;;;;; Martini 3 Force Field: Particle definition and LJ interactions
;;;;;
;;;;; File updated on 2021-03-29 
;;;;;
;;;;; Version: 3.0.0
;;;;;                                                                                        
;;;;; Please cite: 
;;;;;   PCT Souza, et al., Nat. Methods, 2021. DOI: 10.1038/s41592-021-01098-3

[ defaults ]
1 2 ; sigma-epsilon format of LJ parameters

[ atomtypes ]
P6 72.0 0.000 A 0.0 0.0
P5 72.0 0.000 A 0.0 0.0
P4 72.0 0.000 A 0.0 0.0
P3 72.0 0.000 A 0.0 0.0
P2 72.0 0.000 A 0.0 0.0
P1 72.0 0.000 A 0.0 0.0
N6 72.0 0.000 A 0.0 0.0
N5 72.0 0.000 A 0.0 0.0
N4 72.0 0.000 A 0.0 0.0
N3 72.0 0.000 A 0.0 0.0
N2 72.0 0.000 A 0.0 0.0
N1 72.0 0.000 A 0.0 0.0
C6 72.0 0.000 A 0.0 0.0
C5 72.0 0.000 A 0.0 0.0
C4 72.0 0.000 A 0.0 0.0
C3 72.0 0.000 A 0.0 0.0
C2 72.0 0.000 A 0.0 0.0
C1 72.0 0.000 A 0.0 0.0
X4 72.0 0.000 A 0.0 0.0
X3 72.0 0.000 A 0.0 0.0
X2 72.0 0.000 A 0.0 0.0
X1 72.0 0.000 A 0.0 0.0
P6d 72.0 0.000 A 0.0 0.0
P5d 72.0 0.000 A 0.0 0.0
P4d 72.0 0.000 A 0.0 0.0
P3d 72.0 0.000 A 0.0 0.0
P2d 72.0 0.000 A 0.0 0.0
P1d 72.0 0.000 A 0.0 0.0
N6d 72.0 0.000 A 0.0 0.0
N5d 72.0 0.000 A 0.0 0.0
N4d 72.0 0.000 A 0.0 0.0
N3d 72.0 0.000 A 0.0 0.0
N2d 72.0 0.000 A 0.0 0.0
N1d 72.0 0.000 A 0.0 0.0
P6a 72.0 0.000 A 0.0 0.0
P5a 72.0 0.000 A 0.0 0.0
P4a 72.0 0.000 A 0.0 0.0
P3a 72.0 0.000 A 0.0 0.0
P2a 72.0 0.000 A 0.0 0.0
P1a 72.0 0.000 A 0.0 0.0
N6a 72.0 0.000 A 0.0 0.0
N5a 72.0 0.000 A 0.0 0.0
N4a 72.0 0.000 A 0.0 0.0
N3a 72.0 0.000 A 0.0 0.0
N2a 72.0 0.000 A 0.0 0.0
N1a 72.0 0.000 A 0.0 0.0
C6v 72.0 0.000 A 0.0 0.0
C5v 72.0 0.000 A 0.0 0.0
C4v 72.0 0.000 A 0.0 0.0
C3v 72.0 0.000 A 0.0 0.0
C2v 72.0 0.000 A 0.0 0.0
C1v 72.0 0.000 A 0.0 0.0
X4v 72.0 0.000 A 0.0 0.0
X3v 72.0 0.000 A 0.0 0.0
X2v 72.0 0.000 A 0.0 0.0
X1v 72.0 0.000 A 0.0 0.0
C6e 72.0 0.000 A 0.0 0.0
C5e 72.0 0.000 A 0.0 0.0
C4e 72.0 0.000 A 0.0 0.0
C3e 72.0 0.000 A 0.0 0.0
C2e 72.0 0.000 A 0.0 0.0
C1e 72.0 0.000 A 0.0 0.0
X3e 72.0 0.000 A 0.0 0.0
X4e 72.0 0.000 A 0.0 0.0
X2e 72.0 0.000 A 0.0 0.0
X1e 72.0 0.000 A 0.0 0.0
D  72.0 0.000 A 0.0 0.0
Q5 72.0 0.000 A 0.0 0.0
Q4 72.0 0.000 A 0.0 0.0
Q3 72.0 0.000 A 0.0 0.0
Q2 72.0 0.000 A 0.0 0.0
Q1 72.0 0.000 A 0.0 0.0
Q5p 72.0 0.000 A 0.0 0.0
Q4p 72.0 0.000 A 0.0 0.0
Q3p 72.0 0.000 A 0.0 0.0
Q2p 72.0 0.000 A 0.0 0.0
Q1p 72.0 0.000 A 0.0 0.0
Q5n 72.0 0.000 A 0.0 0.0
Q4n 72.0 0.000 A 0.0 0.0
Q3n 72.0 0.000 A 0.0 0.0
Q2n 72.0 0.000 A 0.0 0.0
Q1n 72.0 0.000 A 0.0 0.0
P6q 72.0 0.000 A 0.0 0.0
P5q 72.0 0.000 A 0.0 0.0
P4q 72.0 0.000 A 0.0 0.0
P3q 72.0 0.000 A 0.0 0.0
P2q 72.0 0.000 A 0.0 0.0
P1q 72.0 0.000 A 0.0 0.0
N6q 72.0 0.000 A 0.0 0.0
N5q 72.0 0.000 A 0.0 0.0
N4q 72.0 0.000 A 0.0 0.0
N3q 72.0 0.000 A 0.0 0.0
N2q 72.0 0.000 A 0.0 0.0
N1q 72.0 0.000 A 0.0 0.0
C6q 72.0 0.000 A 0.0 0.0
C5q 72.0 0.000 A 0.0 0.0
C4q 72.0 0.000 A 0.0 0.0
C3q 72.0 0.000 A 0.0 0.0
C2q 72.0 0.000 A 0.0 0.0
C1q 72.0 0.000 A 0.0 0.0
X4q 72.0 0.000 A 0.0 0.0
X3q 72.0 0.000 A 0.0 0.0
X2q 72.0 0.000 A 0.0 0.0
X1q 72.0 0.000 A 0.0 0.0
P6dq 72.0 0.000 A 0.0 0.0
P5dq 72.0 0.000 A 0.0 0.0
P4dq 72.0 0.000 A 0.0 0.0
P3dq 72.0 0.000 A 0.0 0.0
P2dq 72.0 0.000 A 0.0 0.0
P1dq 72.0 0.000 A 0.0 0.0
N6dq 72.0 0.000 A 0.0 0.0
N5dq 72.0 0.000 A 0.0 0.0
N4dq 72.0 0.000 A 0.0 0.0
N3dq 72.0 0.000 A 0.0 0.0
N2dq 72.0 0.000 A 0.0 0.0
N1dq 72.0 0.000 A 0.0 0.0
P6aq 72.0 0.000 A 0.0 0.0
P5aq 72.0 0.000 A 0.0 0.0
P4aq 72.0 0.000 A 0.0 0.0
P3aq 72.0 0.000 A 0.0 0.0
P2aq 72.0 0.000 A 0.0 0.0
P1aq 72.0 0.000 A 0.0 0.0
N6aq 72.0 0.000 A 0.0 0.0
N5aq 72.0 0.000 A 0.0 0.0
N4aq 72.0 0.000 A 0.0 0.0
N3aq 72.0 0.000 A 0.0 0.0
N2aq 72.0 0.000 A 0.0 0.0
N1aq 72.0 0.000 A 0.0 0.0
C6vq 72.0 0.000 A 0.0 0.0
C5vq 72.0 0.000 A 0.0 0.0
C4vq 72.0 0.000 A 0.0 0.0
C3vq 72.0 0.000 A 0.0 0.0
C2vq 72.0 0.000 A 0.0 0.0
C1vq 72.0 0.000 A 0.0 0.0
X4vq 72.0 0.000 A 0.0 0.0
X3vq 72.0 0.000 A 0.0 0.0
X2vq 72.0 0.000 A 0.0 0.0
X1vq 72.0 0.000 A 0.0 0.0
C6eq 72.0 0.000 A 0.0 0.0
C5eq 72.0 0.000 A 0.0 0.0
C4eq 72.0 0.000 A 0.0 0.0
C3eq 72.0 0.000 A 0.0 0.0
C2eq 72.0 0.000 A 0.0 0.0
C1eq 72.0 0.000 A 0.0 0.0
X4eq 72.0 0.000 A 0.0 0.0
X3eq 72.0 0.000 A 0.0 0.0
X2eq 72.0 0.000 A 0.0 0.0
X1eq 72.0 0.000 A 0.0 0.0
P6h 72.0 0.000 A 0.0 0.0
P5h 72.0 0.000 A 0.0 0.0
P4h 72.0 0.000 A 0.0 0.0
P3h 72.0 0.000 A 0.0 0.0
P2h 72.0 0.000 A 0.0 0.0
P1h 72.0 0.000 A 0.0 0.0
N6h 72.0 0.000 A 0.0 0.0
N5h 72.0 0.000 A 0.0 0.0
N4h 72.0 0.000 A 0.0 0.0
N3h 72.0 0.000 A 0.0 0.0
N2h 72.0 0.000 A 0.0 0.0
N1h 72.0 0.000 A 0.0 0.0
C6h 72.0 0.000 A 0.0 0.0
C5h 72.0 0.000 A 0.0 0.0
C4h 72.0 0.000 A 0.0 0.0
C3h 72.0 0.000 A 0.0 0.0
C2h 72.0 0.000 A 0.0 0.0
C1h 72.0 0.000 A 0.0 0.0
X4h 72.0 0.000 A 0.0 0.0
X3h 72.0 0.000 A 0.0 0.0
X2h 72.0 0.000 A 0.0 0.0
X1h 72.0 0.000 A 0.0 0.0
P6dh 72.0 0.000 A 0.0 0.0
P5dh 72.0 0.000 A 0.0 0.0
P4dh 72.0 0.000 A 0.0 0.0
P3dh 72.0 0.000 A 0.0 0.0
P2dh 72.0 0.000 A 0.0 0.0
P1dh 72.0 0.000 A 0.0 0.0
N6dh 72.0 0.000 A 0.0 0.0
N5dh 72.0 0.000 A 0.0 0.0
N4dh 72.0 0.000 A 0.0 0.0
N3dh 72.0 0.000 A 0.0 0.0
N2dh 72.0 0.000 A 0.0 0.0
N1dh 72.0 0.000 A 0.0 0.0
P6ah 72.0 0.000 A 0.0 0.0
P5ah 72.0 0.000 A 0.0 0.0
P4ah 72.0 0.000 A 0.0 0.0
P3ah 72.0 0.000 A 0.0 0.0
P2ah 72.0 0.000 A 0.0 0.0
P1ah 72.0 0.000 A 0.0 0.0
N6ah 72.0 0.000 A 0.0 0.0
N5ah 72.0 0.000 A 0.0 0.0
N4ah 72.0 0.000 A 0.0 0.0
N3ah 72.0 0.000 A 0.0 0.0
N2ah 72.0 0.000 A 0.0 0.0
N1ah 72.0 0.000 A 0.0 0.0
C6vh 72.0 0.000 A 0.0 0.0
C5vh 72.0 0.000 A 0.0 0.0
C4vh 72.0 0.000 A 0.0 0.0
C3vh 72.0 0.000 A 0.0 0.0
C2vh 72.0 0.000 A 0.0 0.0
C1vh 72.0 0.000 A 0.0 0.0
X4vh 72.0 0.000 A 0.0 0.0
X3vh 72.0 0.000 A 0.0 0.0
X2vh 72.0 0.000 A 0.0 0.0
X1vh 72.0 0.000 A 0.0 0.0
C6eh 72.0 0.000 A 0.0 0.0
C5eh 72.0 0.000 A 0.0 0.0
C4eh 72.0 0.000 A 0.0 0.0
C3eh 72.0 0.000 A 0.0 0.0
C2eh 72.0 0.000 A 0.0 0.0
C1eh 72.0 0.000 A 0.0 0.0
X4eh 72.0 0.000 A 0.0 0.0
X3eh 72.0 0.000 A 0.0 0.0
X2eh 72.0 0.000 A 0.0 0.0
X1eh 72.0 0.000 A 0.0 0.0
P6r 72.0 0.000 A 0.0 0.0
P5r 72.0 0.000 A 0.0 0.0
P4r 72.0 0.000 A 0.0 0.0
P3r 72.0 0.000 A 0.0 0.0
P2r 72.0 0.000 A 0.0 0.0
P1r 72.0 0.000 A 0.0 0.0
N6r 72.0 0.000 A 0.0 0.0
N5r 72.0 0.000 A 0.0 0.0
N4r 72.0 0.000 A 0.0 0.0
N3r 72.0 0.000 A 0.0 0.0
N2r 72.0 0.000 A 0.0 0.0
N1r 72.0 0.000 A 0.0 0.0
C6r 72.0 0.000 A 0.0 0.0
C5r 72.0 0.000 A 0.0 0.0
C4r 72.0 0.000 A 0.0 0.0
C3r 72.0 0.000 A 0.0 0.0
C2r 72.0 0.000 A 0.0 0.0
C1r 72.0 0.000 A 0.0 0.0
X4r 72.0 0.000 A 0.0 0.0
X3r 72.0 0.000 A 0.0 0.0
X2r 72.0 0.000 A 0.0 0.0
X1r 72.0 0.000 A 0.0 0.0
P6dr 72.0 0.000 A 0.0 0.0
P5dr 72.0 0.000 A 0.0 0.0
P4dr 72.0 0.000 A 0.0 0.0
P3dr 72.0 0.000 A 0.0 0.0
P2dr 72.0 0.000 A 0.0 0.0
P1dr 72.0 0.000 A 0.0 0.0
N6dr 72.0 0.000 A 0.0 0.0
N5dr 72.0 0.000 A 0.0 0.0
N4dr 72.0 0.000 A 0.0 0.0
N3dr 72.0 0.000 A 0.0 0.0
N2dr 72.0 0.000 A 0.0 0.0
N1dr 72.0 0.000 A 0.0 0.0
P6ar 72.0 0.000 A 0.0 0.0
P5ar 72.0 0.000 A 0.0 0.0
P4ar 72.0 0.000 A 0.0 0.0
P3ar 72.0 0.000 A 0.0 0.0
P2ar 72.0 0.000 A 0.0 0.0
P1ar 72.0 0.000 A 0.0 0.0
N6ar 72.0 0.000 A 0.0 0.0
N5ar 72.0 0.000 A 0.0 0.0
N4ar 72.0 0.000 A 0.0 0.0
N3ar 72.0 0.000 A 0.0 0.0
N2ar 72.0 0.000 A 0.0 0.0
N1ar 72.0 0.000 A 0.0 0.0
C6vr 72.0 0.000 A 0.0 0.0
C5vr 72.0 0.000 A 0.0 0.0
C4vr 72.0 0.000 A 0.0 0.0
C3vr 72.0 0.000 A 0.0 0.0
C2vr 72.0 0.000 A 0.0 0.0
C1vr 72.0 0.000 A 0.0 0.0
X4vr 72.0 0.000 A 0.0 0.0
X3vr 72.0 0.000 A 0.0 0.0
X2vr 72.0 0.000 A 0.0 0.0
X1vr 72.0 0.000 A 0.0 0.0
C6er 72.0 0.000 A 0.0 0.0
C5er 72.0 0.000 A 0.0 0.0
C4er 72.0 0.000 A 0.0 0.0
C3er 72.0 0.000 A 0.0 0.0
C2er 72.0 0.000 A 0.0 0.0
C1er 72.0 0.000 A 0.0 0.0
X4er 72.0 0.000 A 0.0 0.0
X3er 72.0 0.000 A 0.0 0.0
X2er 72.0 0.000 A 0.0 0.0
X1er 72.0 0.000 A 0.0 0.0
SP6 54.0 0.000 A 0.0 0.0
SP5 54.0 0.000 A 0.0 0.0
SP4 54.0 0.000 A 0.0 0.0
SP3 54.0 0.000 A 0.0 0.0
SP2 54.0 0.000 A 0.0 0.0
SP1 54.0 0.000 A 0.0 0.0
SN6 54.0 0.000 A 0.0 0.0
SN5 54.0 0.000 A 0.0 0.0
SN4 54.0 0.000 A 0.0 0.0
SN3 54.0 0.000 A 0.0 0.0
SN2 54.0 0.000 A 0.0 0.0
SN1 54.0 0.000 A 0.0 0.0
SC6 54.0 0.000 A 0.0 0.0
SC5 54.0 0.000 A 0.0 0.0
SC4 54.0 0.000 A 0.0 0.0
SC3 54.0 0.000 A 0.0 0.0
SC2 54.0 0.000 A 0.0 0.0
SC1 54.0 0.000 A 0.0 0.0
SX4 54.0 0.000 A 0.0 0.0
SX3 54.0 0.000 A 0.0 0.0
SX2 54.0 0.000 A 0.0 0.0
SX1 54.0 0.000 A 0.0 0.0
SP6d 54.0 0.000 A 0.0 0.0
SP5d 54.0 0.000 A 0.0 0.0
SP4d 54.0 0.000 A 0.0 0.0
SP3d 54.0 0.000 A 0.0 0.0
SP2d 54.0 0.000 A 0.0 0.0
SP1d 54.0 0.000 A 0.0 0.0
SN6d 54.0 0.000 A 0.0 0.0
SN5d 54.0 0.000 A 0.0 0.0
SN4d 54.0 0.000 A 0.0 0.0
SN3d 54.0 0.000 A 0.0 0.0
SN2d 54.0 0.000 A 0.0 0.0
SN1d 54.0 0.000 A 0.0 0.0
SP6a 54.0 0.000 A 0.0 0.0
SP5a 54.0 0.000 A 0.0 0.0
SP4a 54.0 0.000 A 0.0 0.0
SP3a 54.0 0.000 A 0.0 0.0
SP2a 54.0 0.000 A 0.0 0.0
SP1a 54.0 0.000 A 0.0 0.0
SN6a 54.0 0.000 A 0.0 0.0
SN5a 54.0 0.000 A 0.0 0.0
SN4a 54.0 0.000 A 0.0 0.0
SN3a 54.0 0.000 A 0.0 0.0
SN2a 54.0 0.000 A 0.0 0.0
SN1a 54.0 0.000 A 0.0 0.0
SC6v 54.0 0.000 A 0.0 0.0
SC5v 54.0 0.000 A 0.0 0.0
SC4v 54.0 0.000 A 0.0 0.0
SC3v 54.0 0.000 A 0.0 0.0
SC2v 54.0 0.000 A 0.0 0.0
SC1v 54.0 0.000 A 0.0 0.0
SX4v 54.0 0.000 A 0.0 0.0
SX3v 54.0 0.000 A 0.0 0.0
SX2v 54.0 0.000 A 0.0 0.0
SX1v 54.0 0.000 A 0.0 0.0
SC6e 54.0 0.000 A 0.0 0.0
SC5e 54.0 0.000 A 0.0 0.0
SC4e 54.0 0.000 A 0.0 0.0
SC3e 54.0 0.000 A 0.0 0.0
SC2e 54.0 0.000 A 0.0 0.0
SC1e 54.0 0.000 A 0.0 0.0
SX4e 54.0 0.000 A 0.0 0.0
SX3e 54.0 0.000 A 0.0 0.0
SX2e 54.0 0.000 A 0.0 0.0
SX1e 54.0 0.000 A 0.0 0.0
SD  54.0 0.000 A 0.0 0.0
SQ5 54.0 0.000 A 0.0 0.0
SQ4 54.0 0.000 A 0.0 0.0
SQ3 54.0 0.000 A 0.0 0.0
SQ2 54.0 0.000 A 0.0 0.0
SQ1 54.0 0.000 A 0.0 0.0
SQ5p 54.0 0.000 A 0.0 0.0
SQ4p 54.0 0.000 A 0.0 0.0
SQ3p 54.0 0.000 A 0.0 0.0
SQ2p 54.0 0.000 A 0.0 0.0
SQ1p 54.0 0.000 A 0.0 0.0
SQ5n 54.0 0.000 A 0.0 0.0
SQ4n 54.0 0.000 A 0.0 0.0
SQ3n 54.0 0.000 A 0.0 0.0
SQ2n 54.0 0.000 A 0.0 0.0
SQ1n 54.0 0.000 A 0.0 0.0
SP6q 54.0 0.000 A 0.0 0.0
SP5q 54.0 0.000 A 0.0 0.0
SP4q 54.0 0.000 A 0.0 0.0
SP3q 54.0 0.000 A 0.0 0.0
SP2q 54.0 0.000 A 0.0 0.0
SP1q 54.0 0.000 A 0.0 0.0
SN6q 54.0 0.000 A 0.0 0.0
SN5q 54.0 0.000 A 0.0 0.0
SN4q 54.0 0.000 A 0.0 0.0
SN3q 54.0 0.000 A 0.0 0.0
SN2q 54.0 0.000 A 0.0 0.0
SN1q 54.0 0.000 A 0.0 0.0
SC6q 54.0 0.000 A 0.0 0.0
SC5q 54.0 0.000 A 0.0 0.0
SC4q 54.0 0.000 A 0.0 0.0
SC3q 54.0 0.000 A 0.0 0.0
SC2q 54.0 0.000 A 0.0 0.0
SC1q 54.0 0.000 A 0.0 0.0
SX4q 54.0 0.000 A 0.0 0.0
SX3q 54.0 0.000 A 0.0 0.0
SX2q 54.0 0.000 A 0.0 0.0
SX1q 54.0 0.000 A 0.0 0.0
SP6dq 54.0 0.000 A 0.0 0.0
SP5dq 54.0 0.000 A 0.0 0.0
SP4dq 54.0 0.000 A 0.0 0.0
SP3dq 54.0 0.000 A 0.0 0.0
SP2dq 54.0 0.000 A 0.0 0.0
SP1dq 54.0 0.000 A 0.0 0.0
SN6dq 54.0 0.000 A 0.0 0.0
SN5dq 54.0 0.000 A 0.0 0.0
SN4dq 54.0 0.000 A 0.0 0.0
SN3dq 54.0 0.000 A 0.0 0.0
SN2dq 54.0 0.000 A 0.0 0.0
SN1dq 54.0 0.000 A 0.0 0.0
SP6aq 54.0 0.000 A 0.0 0.0
SP5aq 54.0 0.000 A 0.0 0.0
SP4aq 54.0 0.000 A 0.0 0.0
SP3aq 54.0 0.000 A 0.0 0.0
SP2aq 54.0 0.000 A 0.0 0.0
SP1aq 54.0 0.000 A 0.0 0.0
SN6aq 54.0 0.000 A 0.0 0.0
SN5aq 54.0 0.000 A 0.0 0.0
SN4aq 54.0 0.000 A 0.0 0.0
SN3aq 54.0 0.000 A 0.0 0.0
SN2aq 54.0 0.000 A 0.0 0.0
SN1aq 54.0 0.000 A 0.0 0.0
SC6vq 54.0 0.000 A 0.0 0.0
SC5vq 54.0 0.000 A 0.0 0.0
SC4vq 54.0 0.000 A 0.0 0.0
SC3vq 54.0 0.000 A 0.0 0.0
SC2vq 54.0 0.000 A 0.0 0.0
SC1vq 54.0 0.000 A 0.0 0.0
SX4vq 54.0 0.000 A 0.0 0.0
SX3vq 54.0 0.000 A 0.0 0.0
SX2vq 54.0 0.000 A 0.0 0.0
SX1vq 54.0 0.000 A 0.0 0.0
SC6eq 54.0 0.000 A 0.0 0.0
SC5eq 54.0 0.000 A 0.0 0.0
SC4eq 54.0 0.000 A 0.0 0.0
SC3eq 54.0 0.000 A 0.0 0.0
SC2eq 54.0 0.000 A 0.0 0.0
SC1eq 54.0 0.000 A 0.0 0.0
SX4eq 54.0 0.000 A 0.0 0.0
SX3eq 54.0 0.000 A 0.0 0.0
SX2eq 54.0 0.000 A 0.0 0.0
SX1eq 54.0 0.000 A 0.0 0.0
SP6h 54.0 0.000 A 0.0 0.0
SP5h 54.0 0.000 A 0.0 0.0
SP4h 54.0 0.000 A 0.0 0.0
SP3h 54.0 0.000 A 0.0 0.0
SP2h 54.0 0.000 A 0.0 0.0
SP1h 54.0 0.000 A 0.0 0.0
SN6h 54.0 0.000 A 0.0 0.0
SN5h 54.0 0.000 A 0.0 0.0
SN4h 54.0 0.000 A 0.0 0.0
SN3h 54.0 0.000 A 0.0 0.0
SN2h 54.0 0.000 A 0.0 0.0
SN1h 54.0 0.000 A 0.0 0.0
SC6h 54.0 0.000 A 0.0 0.0
SC5h 54.0 0.000 A 0.0 0.0
SC4h 54.0 0.000 A 0.0 0.0
SC3h 54.0 0.000 A 0.0 0.0
SC2h 54.0 0.000 A 0.0 0.0
SC1h 54.0 0.000 A 0.0 0.0
SX4h 54.0 0.000 A 0.0 0.0
SX3h 54.0 0.000 A 0.0 0.0
SX2h 54.0 0.000 A 0.0 0.0
SX1h 54.0 0.000 A 0.0 0.0
SP6dh 54.0 0.000 A 0.0 0.0
SP5dh 54.0 0.000 A 0.0 0.0
SP4dh 54.0 0.000 A 0.0 0.0
SP3dh 54.0 0.000 A 0.0 0.0
SP2dh 54.0 0.000 A 0.0 0.0
SP1dh 54.0 0.000 A 0.0 0.0
SN6dh 54.0 0.000 A 0.0 0.0
SN5dh 54.0 0.000 A 0.0 0.0
SN4dh 54.0 0.000 A 0.0 0.0
SN3dh 54.0 0.000 A 0.0 0.0
SN2dh 54.0 0.000 A 0.0 0.0
SN1dh 54.0 0.000 A 0.0 0.0
SP6ah 54.0 0.000 A 0.0 0.0
SP5ah 54.0 0.000 A 0.0 0.0
SP4ah 54.0 0.000 A 0.0 0.0
SP3ah 54.0 0.000 A 0.0 0.0
SP2ah 54.0 0.000 A 0.0 0.0
SP1ah 54.0 0.000 A 0.0 0.0
SN6ah 54.0 0.000 A 0.0 0.0
SN5ah 54.0 0.000 A 0.0 0.0
SN4ah 54.0 0.000 A 0.0 0.0
SN3ah 54.0 0.000 A 0.0 0.0
SN2ah 54.0 0.000 A 0.0 0.0
SN1ah 54.0 0.000 A 0.0 0.0
SC6vh 54.0 0.000 A 0.0 0.0
SC5vh 54.0 0.000 A 0.0 0.0
SC4vh 54.0 0.000 A 0.0 0.0
SC3vh 54.0 0.000 A 0.0 0.0
SC2vh 54.0 0.000 A 0.0 0.0
SC1vh 54.0 0.000 A 0.0 0.0
SX4vh 54.0 0.000 A 0.0 0.0
SX3vh 54.0 0.000 A 0.0 0.0
SX2vh 54.0 0.000 A 0.0 0.0
SX1vh 54.0 0.000 A 0.0 0.0
SC6eh 54.0 0.000 A 0.0 0.0
SC5eh 54.0 0.000 A 0.0 0.0
SC4eh 54.0 0.000 A 0.0 0.0
SC3eh 54.0 0.000 A 0.0 0.0
SC2eh 54.0 0.000 A 0.0 0.0
SC1eh 54.0 0.000 A 0.0 0.0
SX4eh 54.0 0.000 A 0.0 0.0
SX3eh 54.0 0.000 A 0.0 0.0
SX2eh 54.0 0.000 A 0.0 0.0
SX1eh 54.0 0.000 A 0.0 0.0
SP6r 54.0 0.000 A 0.0 0.0
SP5r 54.0 0.000 A 0.0 0.0
SP4r 54.0 0.000 A 0.0 0.0
SP3r 54.0 0.000 A 0.0 0.0
SP2r 54.0 0.000 A 0.0 0.0
SP1r 54.0 0.000 A 0.0 0.0
SN6r 54.0 0.000 A 0.0 0.0
SN5r 54.0 0.000 A 0.0 0.0
SN4r 54.0 0.000 A 0.0 0.0
SN3r 54.0 0.000 A 0.0 0.0
SN2r 54.0 0.000 A 0.0 0.0
SN1r 54.0 0.000 A 0.0 0.0
SC6r 54.0 0.000 A 0.0 0.0
SC5r 54.0 0.000 A 0.0 0.0
SC4r 54.0 0.000 A 0.0 0.0
SC3r 54.0 0.000 A 0.0 0.0
SC2r 54.0 0.000 A 0.0 0.0
SC1r 54.0 0.000 A 0.0 0.0
SX4r 54.0 0.000 A 0.0 0.0
SX3r 54.0 0.000 A 0.0 0.0
SX2r 54.0 0.000 A 0.0 0.0
SX1r 54.0 0.000 A 0.0 0.0
SP6dr 54.0 0.000 A 0.0 0.0
SP5dr 54.0 0.000 A 0.0 0.0
SP4dr 54.0 0.000 A 0.0 0.0
SP3dr 54.0 0.000 A 0.0 0.0
SP2dr 54.0 0.000 A 0.0 0.0
SP1dr 54.0 0.000 A 0.0 0.0
SN6dr 54.0 0.000 A 0.0 0.0
SN5dr 54.0 0.000 A 0.0 0.0
SN4dr 54.0 0.000 A 0.0 0.0
SN3dr 54.0 0.000 A 0.0 0.0
SN2dr 54.0 0.000 A 0.0 0.0
SN1dr 54.0 0.000 A 0.0 0.0
SP6ar 54.0 0.000 A 0.0 0.0
SP5ar 54.0 0.000 A 0.0 0.0
SP4ar 54.0 0.000 A 0.0 0.0
SP3ar 54.0 0.000 A 0.0 0.0
SP2ar 54.0 0.000 A 0.0 0.0
SP1ar 54.0 0.000 A 0.0 0.0
SN6ar 54.0 0.000 A 0.0 0.0
SN5ar 54.0 0.000 A 0.0 0.0
SN4ar 54.0 0.000 A 0.0 0.0
SN3ar 54.0 0.000 A 0.0 0.0
SN2ar 54.0 0.000 A 0.0 0.0
SN1ar 54.0 0.000 A 0.0 0.0
SC6vr 54.0 0.000 A 0.0 0.0
SC5vr 54.0 0.000 A 0.0 0.0
SC4vr 54.0 0.000 A 0.0 0.0
SC3vr 54.0 0.000 A 0.0 0.0
SC2vr 54.0 0.000 A 0.0 0.0
SC1vr 54.0 0.000 A 0.0 0.0
SX4vr 54.0 0.000 A 0.0 0.0
SX3vr 54.0 0.000 A 0.0 0.0
SX2vr 54.0 0.000 A 0.0 0.0
SX1vr 54.0 0.000 A 0.0 0.0
SC6er 54.0 0.000 A 0.0 0.0
SC5er 54.0 0.000 A 0.0 0.0
SC4er 54.0 0.000 A 0.0 0.0
SC3er 54.0 0.000 A 0.0 0.0
SC2er 54.0 0.000 A 0.0 0.0
SC1er 54.0 0.000 A 0.0 0.0
SX4er 54.0 0.000 A 0.0 0.0
SX3er 54.0 0.000 A 0.0 0.0
SX2er 54.0 0.000 A 0.0 0.0
SX1er 54.0 0.000 A 0.0 0.0
TP6 36.0 0.000 A 0.0 0.0
TP5 36.0 0.000 A 0.0 0.0
TP4 36.0 0.000 A 0.0 0.0
TP3 36.0 0.000 A 0.0 0.0
TP2 36.0 0.000 A 0.0 0.0
TP1 36.0 0.000 A 0.0 0.0
TN6 36.0 0.000 A 0.0 0.0
TN5 36.0 0.000 A 0.0 0.0
TN4 36.0 0.000 A 0.0 0.0
TN3 36.0 0.000 A 0.0 0.0
TN2 36.0 0.000 A 0.0 0.0
TN1 36.0 0.000 A 0.0 0.0
TC6 36.0 0.000 A 0.0 0.0
TC5 36.0 0.000 A 0.0 0.0
TC4 36.0 0.000 A 0.0 0.0
TC3 36.0 0.000 A 0.0 0.0
TC2 36.0 0.000 A 0.0 0.0
TC1 36.0 0.000 A 0.0 0.0
TX4 36.0 0.000 A 0.0 0.0
TX3 36.0 0.000 A 0.0 0.0
TX2 36.0 0.000 A 0.0 0.0
TX1 36.0 0.000 A 0.0 0.0
TP6d 36.0 0.000 A 0.0 0.0
TP5d 36.0 0.000 A 0.0 0.0
TP4d 36.0 0.000 A 0.0 0.0
TP3d 36.0 0.000 A 0.0 0.0
TP2d 36.0 0.000 A 0.0 0.0
TP1d 36.0 0.000 A 0.0 0.0
TN6d 36.0 0.000 A 0.0 0.0
TN5d 36.0 0.000 A 0.0 0.0
TN4d 36.0 0.000 A 0.0 0.0
TN3d 36.0 0.000 A 0.0 0.0
TN2d 36.0 0.000 A 0.0 0.0
TN1d 36.0 0.000 A 0.0 0.0
TP6a 36.0 0.000 A 0.0 0.0
TP5a 36.0 0.000 A 0.0 0.0
TP4a 36.0 0.000 A 0.0 0.0
TP3a 36.0 0.000 A 0.0 0.0
TP2a 36.0 0.000 A 0.0 0.0
TP1a 36.0 0.000 A 0.0 0.0
TN6a 36.0 0.000 A 0.0 0.0
TN5a 36.0 0.000 A 0.0 0.0
TN4a 36.0 0.000 A 0.0 0.0
TN3a 36.0 0.000 A 0.0 0.0
TN2a 36.0 0.000 A 0.0 0.0
TN1a 36.0 0.000 A 0.0 0.0
TC6v 36.0 0.000 A 0.0 0.0
TC5v 36.0 0.000 A 0.0 0.0
TC4v 36.0 0.000 A 0.0 0.0
TC3v 36.0 0.000 A 0.0 0.0
TC2v 36.0 0.000 A 0.0 0.0
TC1v 36.0 0.000 A 0.0 0.0
TX4v 36.0 0.000 A 0.0 0.0
TX3v 36.0 0.000 A 0.0 0.0
TX2v 36.0 0.000 A 0.0 0.0
TX1v 36.0 0.000 A 0.0 0.0
TC6e 36.0 0.000 A 0.0 0.0
TC5e 36.0 0.000 A 0.0 0.0
TC4e 36.0 0.000 A 0.0 0.0
TC3e 36.0 0.000 A 0.0 0.0
TC2e 36.0 0.000 A 0.0 0.0
TC1e 36.0 0.000 A 0.0 0.0
TX4e 36.0 0.000 A 0.0 0.0
TX3e 36.0 0.000 A 0.0 0.0
TX2e 36.0 0.000 A 0.0 0.0
TX1e 36.0 0.000 A 0.0 0.0
TD  36.0 0.000 A 0.0 0.0
TQ5 36.0 0.000 A 0.0 0.0
TQ4 36.0 0.000 A 0.0 0.0
TQ3 36.0 0.000 A 0.0 0.0
TQ2 36.0 0.000 A 0.0 0.0
TQ1 36.0 0.000 A 0.0 0.0
TQ5p 36.0 0.000 A 0.0 0.0
TQ4p 36.0 0.000 A 0.0 0.0
TQ3p 36.0 0.000 A 0.0 0.0
TQ2p 36.0 0.000 A 0.0 0.0
TQ1p 36.0 0.000 A 0.0 0.0
TQ5n 36.0 0.000 A 0.0 0.0
TQ4n 36.0 0.000 A 0.0 0.0
TQ3n 36.0 0.000 A 0.0 0.0
TQ2n 36.0 0.000 A 0.0 0.0
TQ1n 36.0 0.000 A 0.0 0.0
TP6q 36.0 0.000 A 0.0 0.0
TP5q 36.0 0.000 A 0.0 0.0
TP4q 36.0 0.000 A 0.0 0.0
TP3q 36.0 0.000 A 0.0 0.0
TP2q 36.0 0.000 A 0.0 0.0
TP1q 36.0 0.000 A 0.0 0.0
TN6q 36.0 0.000 A 0.0 0.0
TN5q 36.0 0.000 A 0.0 0.0
TN4q 36.0 0.000 A 0.0 0.0
TN3q 36.0 0.000 A 0.0 0.0
TN2q 36.0 0.000 A 0.0 0.0
TN1q 36.0 0.000 A 0.0 0.0
TC6q 36.0 0.000 A 0.0 0.0
TC5q 36.0 0.000 A 0.0 0.0
TC4q 36.0 0.000 A 0.0 0.0
TC3q 36.0 0.000 A 0.0 0.0
TC2q 36.0 0.000 A 0.0 0.0
TC1q 36.0 0.000 A 0.0 0.0
TX4q 36.0 0.000 A 0.0 0.0
TX3q 36.0 0.000 A 0.0 0.0
TX2q 36.0 0.000 A 0.0 0.0
TX1q 36.0 0.000 A 0.0 0.0
TP6dq 36.0 0.000 A 0.0 0.0
TP5dq 36.0 0.000 A 0.0 0.0
TP4dq 36.0 0.000 A 0.0 0.0
TP3dq 36.0 0.000 A 0.0 0.0
TP2dq 36.0 0.000 A 0.0 0.0
TP1dq 36.0 0.000 A 0.0 0.0
TN6dq 36.0 0.000 A 0.0 0.0
TN5dq 36.0 0.000 A 0.0 0.0
TN4dq 36.0 0.000 A 0.0 0.0
TN3dq 36.0 0.000 A 0.0 0.0
TN2dq 36.0 0.000 A 0.0 0.0
TN1dq 36.0 0.000 A 0.0 0.0
TP6aq 36.0 0.000 A 0.0 0.0
TP5aq 36.0 0.000 A 0.0 0.0
TP4aq 36.0 0.000 A 0.0 0.0
TP3aq 36.0 0.000 A 0.0 0.0
TP2aq 36.0 0.000 A 0.0 0.0
TP1aq 36.0 0.000 A 0.0 0.0
TN6aq 36.0 0.000 A 0.0 0.0
TN5aq 36.0 0.000 A 0.0 0.0
TN4aq 36.0 0.000 A 0.0 0.0
TN3aq 36.0 0.000 A 0.0 0.0
TN2aq 36.0 0.000 A 0.0 0.0
TN1aq 36.0 0.000 A 0.0 0.0
TC6vq 36.0 0.000 A 0.0 0.0
TC5vq 36.0 0.000 A 0.0 0.0
TC4vq 36.0 0.000 A 0.0 0.0
TC3vq 36.0 0.000 A 0.0 0.0
TC2vq 36.0 0.000 A 0.0 0.0
TC1vq 36.0 0.000 A 0.0 0.0
TX4vq 36.0 0.000 A 0.0 0.0
TX3vq 36.0 0.000 A 0.0 0.0
TX2vq 36.0 0.000 A 0.0 0.0
TX1vq 36.0 0.000 A 0.0 0.0
TC6eq 36.0 0.000 A 0.0 0.0
TC5eq 36.0 0.000 A 0.0 0.0
TC4eq 36.0 0.000 A 0.0 0.0
TC3eq 36.0 0.000 A 0.0 0.0
TC2eq 36.0 0.000 A 0.0 0.0
TC1eq 36.0 0.000 A 0.0 0.0
TX4eq 36.0 0.000 A 0.0 0.0
TX3eq 36.0 0.000 A 0.0 0.0
TX2eq 36.0 0.000 A 0.0 0.0
TX1eq 36.0 0.000 A 0.0 0.0
TP6h 36.0 0.000 A 0.0 0.0
TP5h 36.0 0.000 A 0.0 0.0
TP4h 36.0 0.000 A 0.0 0.0
TP3h 36.0 0.000 A 0.0 0.0
TP2h 36.0 0.000 A 0.0 0.0
TP1h 36.0 0.000 A 0.0 0.0
TN6h 36.0 0.000 A 0.0 0.0
TN5h 36.0 0.000 A 0.0 0.0
TN4h 36.0 0.000 A 0.0 0.0
TN3h 36.0 0.000 A 0.0 0.0
TN2h 36.0 0.000 A 0.0 0.0
TN1h 36.0 0.000 A 0.0 0.0
TC6h 36.0 0.000 A 0.0 0.0
TC5h 36.0 0.000 A 0.0 0.0
TC4h 36.0 0.000 A 0.0 0.0
TC3h 36.0 0.000 A 0.0 0.0
TC2h 36.0 0.000 A 0.0 0.0
TC1h 36.0 0.000 A 0.0 0.0
TX4h 36.0 0.000 A 0.0 0.0
TX3h 36.0 0.000 A 0.0 0.0
TX2h 36.0 0.000 A 0.0 0.0
TX1h 36.0 0.000 A 0.0 0.0
TP6dh 36.0 0.000 A 0.0 0.0
TP5dh 36.0 0.000 A 0.0 0.0
TP4dh 36.0 0.000 A 0.0 0.0
TP3dh 36.0 0.000 A 0.0 0.0
TP2dh 36.0 0.000 A 0.0 0.0
TP1dh 36.0 0.000 A 0.0 0.0
TN6dh 36.0 0.000 A 0.0 0.0
TN5dh 36.0 0.000 A 0.0 0.0
TN4dh 36.0 0.000 A 0.0 0.0
TN3dh 36.0 0.000 A 0.0 0.0
TN2dh 36.0 0.000 A 0.0 0.0
TN1dh 36.0 0.000 A 0.0 0.0
TP6ah 36.0 0.000 A 0.0 0.0
TP5ah 36.0 0.000 A 0.0 0.0
TP4ah 36.0 0.000 A 0.0 0.0
TP3ah 36.0 0.000 A 0.0 0.0
TP2ah 36.0 0.000 A 0.0 0.0
TP1ah 36.0 0.000 A 0.0 0.0
TN6ah 36.0 0.000 A 0.0 0.0
TN5ah 36.0 0.000 A 0.0 0.0
TN4ah 36.0 0.000 A 0.0 0.0
TN3ah 36.0 0.000 A 0.0 0.0
TN2ah 36.0 0.000 A 0.0 0.0
TN1ah 36.0 0.000 A 0.0 0.0
TC6vh 36.0 0.000 A 0.0 0.0
TC5vh 36.0 0.000 A 0.0 0.0
TC4vh 36.0 0.000 A 0.0 0.0
TC3vh 36.0 0.000 A 0.0 0.0
TC2vh 36.0 0.000 A 0.0 0.0
TC1vh 36.0 0.000 A 0.0 0.0
TX4vh 36.0 0.000 A 0.0 0.0
TX3vh 36.0 0.000 A 0.0 0.0
TX2vh 36.0 0.000 A 0.0 0.0
TX1vh 36.0 0.000 A 0.0 0.0
TC6eh 36.0 0.000 A 0.0 0.0
TC5eh 36.0 0.000 A 0.0 0.0
TC4eh 36.0 0.000 A 0.0 0.0
TC3eh 36.0 0.000 A 0.0 0.0
TC2eh 36.0 0.000 A 0.0 0.0
TC1eh 36.0 0.000 A 0.0 0.0
TX4eh 36.0 0.000 A 0.0 0.0
TX3eh 36.0 0.000 A 0.0 0.0
TX2eh 36.0 0.000 A 0.0 0.0
TX1eh 36.0 0.000 A 0.0 0.0
TP6r 36.0 0.000 A 0.0 0.0
TP5r 36.0 0.000 A 0.0 0.0
TP4r 36.0 0.000 A 0.0 0.0
TP3r 36.0 0.000 A 0.0 0.0
TP2r 36.0 0.000 A 0.0 0.0
TP1r 36.0 0.000 A 0.0 0.0
TN6r 36.0 0.000 A 0.0 0.0
TN5r 36.0 0.000 A 0.0 0.0
TN4r 36.0 0.000 A 0.0 0.0
TN3r 36.0 0.000 A 0.0 0.0
TN2r 36.0 0.000 A 0.0 0.0
TN1r 36.0 0.000 A 0.0 0.0
TC6r 36.0 0.000 A 0.0 0.0
TC5r 36.0 0.000 A 0.0 0.0
TC4r 36.0 0.000 A 0.0 0.0
TC3r 36.0 0.000 A 0.0 0.0
TC2r 36.0 0.000 A 0.0 0.0
TC1r 36.0 0.000 A 0.0 0.0
TX4r 36.0 0.000 A 0.0 0.0
TX3r 36.0 0.000 A 0.0 0.0
TX2r 36.0 0.000 A 0.0 0.0
TX1r 36.0 0.000 A 0.0 0.0
TP6dr 36.0 0.000 A 0.0 0.0
TP5dr 36.0 0.000 A 0.0 0.0
TP4dr 36.0 0.000 A 0.0 0.0
TP3dr 36.0 0.000 A 0.0 0.0
TP2dr 36.0 0.000 A 0.0 0.0
TP1dr 36.0 0.000 A 0.0 0.0
TN6dr 36.0 0.000 A 0.0 0.0
TN5dr 36.0 0.000 A 0.0 0.0
TN4dr 36.0 0.000 A 0.0 0.0
TN3dr 36.0 0.000 A 0.0 0.0
TN2dr 36.0 0.000 A 0.0 0.0
TN1dr 36.0 0.000 A 0.0 0.0
TP6ar 36.0 0.000 A 0.0 0.0
TP5ar 36.0 0.000 A 0.0 0.0
TP4ar 36.0 0.000 A 0.0 0.0
TP3ar 36.0 0.000 A 0.0 0.0
TP2ar 36.0 0.000 A 0.0 0.0
TP1ar 36.0 0.000 A 0.0 0.0
TN6ar 36.0 0.000 A 0.0 0.0
TN5ar 36.0 0.000 A 0.0 0.0
TN4ar 36.0 0.000 A 0.0 0.0
TN3ar 36.0 0.000 A 0.0 0.0
TN2ar 36.0 0.000 A 0.0 0.0
TN1ar 36.0 0.000 A 0.0 0.0
TC6vr 36.0 0.000 A 0.0 0.0
TC5vr 36.0 0.000 A 0.0 0.0
TC4vr 36.0 0.000 A 0.0 0.0
TC3vr 36.0 0.000 A 0.0 0.0
TC2vr 36.0 0.000 A 0.0 0.0
TC1vr 36.0 0.000 A 0.0 0.0
TX4vr 36.0 0.000 A 0.0 0.0
TX3vr 36.0 0.000 A 0.0 0.0
TX2vr 36.0 0.000 A 0.0 0.0
TX1vr 36.0 0.000 A 0.0 0.0
TC6er 36.0 0.000 A 0.0 0.0
TC5er 36.0 0.000 A 0.0 0.0
TC4er 36.0 0.000 A 0.0 0.0
TC3er 36.0 0.000 A 0.0 0.0
TC2er 36.0 0.000 A 0.0 0.0
TC1er 36.0 0.000 A 0.0 0.0
TX4er 36.0 0.000 A 0.0 0.0
TX3er 36.0 0.000 A 0.0 0.0
TX2er 36.0 0.000 A 0.0 0.0
TX1er 36.0 0.000 A 0.0 0.0
W  72.0 0.000 A 0.0 0.0
SW 54.0 0.000 A 0.0 0.0
TW 36.0 0.000 A 0.0 0.0
U  24.0 0.000 A 0.0 0.0

[ nonbond_params ]
    P6    P6  1 4.700000e-01    4.990000e+00
    P6    P5  1 4.700000e-01    4.730000e+00
    P6    P4  1 4.700000e-01    4.480000e+00
    P6    P3  1 4.700000e-01    4.250000e+00
    P6    P2  1 4.700000e-01    4.250000e+00
    P6    P1  1 4.700000e-01    4.060000e+00
    P6    N6  1 4.700000e-01    3.880000e+00
    P6    N5  1 4.700000e-01    3.520000e+00
    P6    N4  1 4.700000e-01    3.390000e+00
    P6    N3  1 4.700000e-01    3.240000e+00
    P6    N2  1 4.700000e-01    3.070000e+00
    P6    N1  1 4.700000e-01    2.960000e+00
    P6    C6  1 4.700000e-01    2.960000e+00
    P6    C5  1 4.700000e-01    2.790000e+00
    P6    C4  1 4.700000e-01    2.620000e+00
    P6    C3  1 4.700000e-01    2.440000e+00
    P6    C2  1 4.700000e-01    2.440000e+00
    P6    C1  1 5.200000e-01    2.120000e+00
    P6    X4  1 4.700000e-01    3.070000e+00
    P6    X3  1 4.700000e-01    3.070000e+00
    P6    X2  1 4.700000e-01    2.960000e+00
    P6    X1  1 4.700000e-01    2.790000e+00
    P6   P6d  1 4.700000e-01    4.990000e+00
    P6   N1d  1 4.700000e-01    2.960000e+00
    P6   N2d  1 4.700000e-01    3.070000e+00
    P6   N3d  1 4.700000e-01    3.240000e+00
    P6   N4d  1 4.700000e-01    3.390000e+00
    P6   N5d  1 4.700000e-01    3.520000e+00
    P6   N6d  1 4.700000e-01    3.880000e+00
    P6   P1d  1 4.700000e-01    4.060000e+00
    P6   P2d  1 4.700000e-01    4.250000e+00
    P6   P3d  1 4.700000e-01    4.250000e+00
    P6   P4d  1 4.700000e-01    4.480000e+00
    P6   P5d  1 4.700000e-01    4.730000e+00
    P6   P6a  1 4.700000e-01    4.990000e+00
    P6   N1a  1 4.700000e-01    2.960000e+00
    P6   N2a  1 4.700000e-01    3.070000e+00
    P6   N3a  1 4.700000e-01    3.240000e+00
    P6   N4a  1 4.700000e-01    3.390000e+00
    P6   N5a  1 4.700000e-01    3.520000e+00
    P6   N6a  1 4.700000e-01    3.880000e+00
    P6   P1a  1 4.700000e-01    4.060000e+00
    P6   P2a  1 4.700000e-01    4.250000e+00
    P6   P3a  1 4.700000e-01    4.250000e+00
    P6   P4a  1 4.700000e-01    4.480000e+00
    P6   P5a  1 4.700000e-01    4.730000e+00
    P6   C6v  1 4.700000e-01    3.070000e+00
    P6   C5v  1 4.700000e-01    2.960000e+00
    P6   C4v  1 4.700000e-01    2.790000e+00
    P6   C3v  1 4.700000e-01    2.620000e+00
    P6   C2v  1 4.700000e-01    2.620000e+00
    P6   C1v  1 4.850000e-01    2.240000e+00
    P6   X4v  1 4.700000e-01    3.240000e+00
    P6   X3v  1 4.700000e-01    3.240000e+00
    P6   X2v  1 4.700000e-01    3.070000e+00
    P6   X1v  1 4.700000e-01    2.960000e+00
    P6   C6e  1 4.700000e-01    3.070000e+00
    P6   C5e  1 4.700000e-01    2.960000e+00
    P6   C4e  1 4.700000e-01    2.790000e+00
    P6   C3e  1 4.700000e-01    2.620000e+00
    P6   C2e  1 4.700000e-01    2.620000e+00
    P6   C1e  1 4.850000e-01    2.240000e+00
    P6   X4e  1 4.700000e-01    3.240000e+00
    P6   X3e  1 4.700000e-01    3.240000e+00
    P6   X2e  1 4.700000e-01    3.070000e+00
    P6   X1e  1 4.700000e-01    2.960000e+00
    P6   P6q  1 4.700000e-01    5.490000e+00
    P6  X1eq  1 4.700000e-01    3.240000e+00
    P6  X2eq  1 4.700000e-01    3.390000e+00
    P6  X3eq  1 4.700000e-01    3.520000e+00
    P6  X4eq  1 4.700000e-01    3.520000e+00
    P6  C1eq  1 4.700000e-01    2.620000e+00
    P6  C2eq  1 4.700000e-01    2.960000e+00
    P6  C3eq  1 4.700000e-01    2.960000e+00
    P6  C4eq  1 4.700000e-01    3.070000e+00
    P6  C5eq  1 4.700000e-01    3.240000e+00
    P6  C6eq  1 4.700000e-01    3.390000e+00
    P6  X1vq  1 4.700000e-01    3.240000e+00
    P6  X2vq  1 4.700000e-01    3.390000e+00
    P6  X3vq  1 4.700000e-01    3.520000e+00
    P6  X4vq  1 4.700000e-01    3.520000e+00
    P6  C1vq  1 4.700000e-01    2.620000e+00
    P6  C2vq  1 4.700000e-01    2.960000e+00
    P6  C3vq  1 4.700000e-01    2.960000e+00
    P6  C4vq  1 4.700000e-01    3.070000e+00
    P6  C5vq  1 4.700000e-01    3.240000e+00
    P6  C6vq  1 4.700000e-01    3.390000e+00
    P6  N1aq  1 4.700000e-01    3.240000e+00
    P6  N2aq  1 4.700000e-01    3.390000e+00
    P6  N3aq  1 4.700000e-01    3.520000e+00
    P6  N4aq  1 4.700000e-01    3.690000e+00
    P6  N5aq  1 4.700000e-01    3.880000e+00
    P6  N6aq  1 4.700000e-01    4.250000e+00
    P6  P1aq  1 4.700000e-01    4.480000e+00
    P6  P2aq  1 4.700000e-01    4.730000e+00
    P6  P3aq  1 4.700000e-01    4.730000e+00
    P6  P4aq  1 4.700000e-01    4.990000e+00
    P6  P5aq  1 4.700000e-01    5.240000e+00
    P6  P6aq  1 4.700000e-01    5.490000e+00
    P6  N1dq  1 4.700000e-01    3.240000e+00
    P6  N2dq  1 4.700000e-01    3.390000e+00
    P6  N3dq  1 4.700000e-01    3.520000e+00
    P6  N4dq  1 4.700000e-01    3.690000e+00
    P6  N5dq  1 4.700000e-01    3.880000e+00
    P6  N6dq  1 4.700000e-01    4.250000e+00
    P6  P1dq  1 4.700000e-01    4.480000e+00
    P6  P2dq  1 4.700000e-01    4.730000e+00
    P6  P3dq  1 4.700000e-01    4.730000e+00
    P6  P4dq  1 4.700000e-01    4.990000e+00
    P6  P5dq  1 4.700000e-01    5.240000e+00
    P6  P6dq  1 4.700000e-01    5.490000e+00
    P6   X1q  1 4.700000e-01    3.070000e+00
    P6   X2q  1 4.700000e-01    3.240000e+00
    P6   X3q  1 4.700000e-01    3.390000e+00
    P6   X4q  1 4.700000e-01    3.390000e+00
    P6   C1q  1 4.700000e-01    2.440000e+00
    P6   C2q  1 4.700000e-01    2.790000e+00
    P6   C3q  1 4.700000e-01    2.790000e+00
    P6   C4q  1 4.700000e-01    2.960000e+00
    P6   C5q  1 4.700000e-01    3.070000e+00
    P6   C6q  1 4.700000e-01    3.240000e+00
    P6   N1q  1 4.700000e-01    3.240000e+00
    P6   N2q  1 4.700000e-01    3.390000e+00
    P6   N3q  1 4.700000e-01    3.520000e+00
    P6   N4q  1 4.700000e-01    3.690000e+00
    P6   N5q  1 4.700000e-01    3.880000e+00
    P6   N6q  1 4.700000e-01    4.250000e+00
    P6   P1q  1 4.700000e-01    4.480000e+00
    P6   P2q  1 4.700000e-01    4.730000e+00
    P6   P3q  1 4.700000e-01    4.730000e+00
    P6   P4q  1 4.700000e-01    4.990000e+00
    P6   P5q  1 4.700000e-01    5.240000e+00
    P6   P6h  1 4.700000e-01    4.990000e+00
    P6  X1eh  1 4.700000e-01    2.960000e+00
    P6  X2eh  1 4.700000e-01    3.070000e+00
    P6  X3eh  1 4.700000e-01    3.240000e+00
    P6  X4eh  1 4.700000e-01    3.240000e+00
    P6  C1eh  1 4.850000e-01    2.240000e+00
    P6  C2eh  1 4.700000e-01    2.620000e+00
    P6  C3eh  1 4.700000e-01    2.620000e+00
    P6  C4eh  1 4.700000e-01    2.790000e+00
    P6  C5eh  1 4.700000e-01    2.960000e+00
    P6  C6eh  1 4.700000e-01    3.070000e+00
    P6  X1vh  1 4.700000e-01    2.960000e+00
    P6  X2vh  1 4.700000e-01    3.070000e+00
    P6  X3vh  1 4.700000e-01    3.240000e+00
    P6  X4vh  1 4.700000e-01    3.240000e+00
    P6  C1vh  1 4.850000e-01    2.240000e+00
    P6  C2vh  1 4.700000e-01    2.620000e+00
    P6  C3vh  1 4.700000e-01    2.620000e+00
    P6  C4vh  1 4.700000e-01    2.790000e+00
    P6  C5vh  1 4.700000e-01    2.960000e+00
    P6  C6vh  1 4.700000e-01    3.070000e+00
    P6  N1ah  1 4.700000e-01    2.960000e+00
    P6  N2ah  1 4.700000e-01    3.070000e+00
    P6  N3ah  1 4.700000e-01    3.240000e+00
    P6  N4ah  1 4.700000e-01    3.390000e+00
    P6  N5ah  1 4.700000e-01    3.520000e+00
    P6  N6ah  1 4.700000e-01    3.880000e+00
    P6  P1ah  1 4.700000e-01    4.060000e+00
    P6  P2ah  1 4.700000e-01    4.250000e+00
    P6  P3ah  1 4.700000e-01    4.250000e+00
    P6  P4ah  1 4.700000e-01    4.480000e+00
    P6  P5ah  1 4.700000e-01    4.730000e+00
    P6  P6ah  1 4.700000e-01    4.990000e+00
    P6  N1dh  1 4.700000e-01    2.960000e+00
    P6  N2dh  1 4.700000e-01    3.070000e+00
    P6  N3dh  1 4.700000e-01    3.240000e+00
    P6  N4dh  1 4.700000e-01    3.390000e+00
    P6  N5dh  1 4.700000e-01    3.520000e+00
    P6  N6dh  1 4.700000e-01    3.880000e+00
    P6  P1dh  1 4.700000e-01    4.060000e+00
    P6  P2dh  1 4.700000e-01    4.250000e+00
    P6  P3dh  1 4.700000e-01    4.250000e+00
    P6  P4dh  1 4.700000e-01    4.480000e+00
    P6  P5dh  1 4.700000e-01    4.730000e+00
    P6  P6dh  1 4.700000e-01    4.990000e+00
    P6   X1h  1 4.700000e-01    2.790000e+00
    P6   X2h  1 4.700000e-01    2.960000e+00
    P6   X3h  1 4.700000e-01    3.070000e+00
    P6   X4h  1 4.700000e-01    3.070000e+00
    P6   C1h  1 5.200000e-01    2.120000e+00
    P6   C2h  1 4.700000e-01    2.440000e+00
    P6   C3h  1 4.700000e-01    2.440000e+00
    P6   C4h  1 4.700000e-01    2.620000e+00
    P6   C5h  1 4.700000e-01    2.790000e+00
    P6   C6h  1 4.700000e-01    2.960000e+00
    P6   N1h  1 4.700000e-01    2.960000e+00
    P6   N2h  1 4.700000e-01    3.070000e+00
    P6   N3h  1 4.700000e-01    3.240000e+00
    P6   N4h  1 4.700000e-01    3.390000e+00
    P6   N5h  1 4.700000e-01    3.520000e+00
    P6   N6h  1 4.700000e-01    3.880000e+00
    P6   P1h  1 4.700000e-01    4.060000e+00
    P6   P2h  1 4.700000e-01    4.250000e+00
    P6   P3h  1 4.700000e-01    4.250000e+00
    P6   P4h  1 4.700000e-01    4.480000e+00
    P6   P5h  1 4.700000e-01    4.730000e+00
    P6   P6r  1 4.700000e-01    4.990000e+00
    P6  X1er  1 4.700000e-01    2.960000e+00
    P6  X2er  1 4.700000e-01    3.070000e+00
    P6  X3er  1 4.700000e-01    3.240000e+00
    P6  X4er  1 4.700000e-01    3.240000e+00
    P6  C1er  1 4.850000e-01    2.240000e+00
    P6  C2er  1 4.700000e-01    2.620000e+00
    P6  C3er  1 4.700000e-01    2.620000e+00
    P6  C4er  1 4.700000e-01    2.790000e+00
    P6  C5er  1 4.700000e-01    2.960000e+00
    P6  C6er  1 4.700000e-01    3.070000e+00
    P6  X1vr  1 4.700000e-01    2.960000e+00
    P6  X2vr  1 4.700000e-01    3.070000e+00
    P6  X3vr  1 4.700000e-01    3.240000e+00
    P6  X4vr  1 4.700000e-01    3.240000e+00
    P6  C1vr  1 4.850000e-01    2.240000e+00
    P6  C2vr  1 4.700000e-01    2.620000e+00
    P6  C3vr  1 4.700000e-01    2.620000e+00
    P6  C4vr  1 4.700000e-01    2.790000e+00
    P6  C5vr  1 4.700000e-01    2.960000e+00
    P6  C6vr  1 4.700000e-01    3.070000e+00
    P6  N1ar  1 4.700000e-01    2.960000e+00
    P6  N2ar  1 4.700000e-01    3.070000e+00
    P6  N3ar  1 4.700000e-01    3.240000e+00
    P6  N4ar  1 4.700000e-01    3.390000e+00
    P6  N5ar  1 4.700000e-01    3.520000e+00
    P6  N6ar  1 4.700000e-01    3.880000e+00
    P6  P1ar  1 4.700000e-01    4.060000e+00
    P6  P2ar  1 4.700000e-01    4.250000e+00
    P6  P3ar  1 4.700000e-01    4.250000e+00
    P6  P4ar  1 4.700000e-01    4.480000e+00
    P6  P5ar  1 4.700000e-01    4.730000e+00
    P6  P6ar  1 4.700000e-01    4.990000e+00
    P6  N1dr  1 4.700000e-01    2.960000e+00
    P6  N2dr  1 4.700000e-01    3.070000e+00
    P6  N3dr  1 4.700000e-01    3.240000e+00
    P6  N4dr  1 4.700000e-01    3.390000e+00
    P6  N5dr  1 4.700000e-01    3.520000e+00
    P6  N6dr  1 4.700000e-01    3.880000e+00
    P6  P1dr  1 4.700000e-01    4.060000e+00
    P6  P2dr  1 4.700000e-01    4.250000e+00
    P6  P3dr  1 4.700000e-01    4.250000e+00
    P6  P4dr  1 4.700000e-01    4.480000e+00
    P6  P5dr  1 4.700000e-01    4.730000e+00
    P6  P6dr  1 4.700000e-01    4.990000e+00
    P6   X1r  1 4.700000e-01    2.790000e+00
    P6   X2r  1 4.700000e-01    2.960000e+00
    P6   X3r  1 4.700000e-01    3.070000e+00
    P6   X4r  1 4.700000e-01    3.070000e+00
    P6   C1r  1 5.200000e-01    2.120000e+00
    P6   C2r  1 4.700000e-01    2.440000e+00
    P6   C3r  1 4.700000e-01    2.440000e+00
    P6   C4r  1 4.700000e-01    2.620000e+00
    P6   C5r  1 4.700000e-01    2.790000e+00
    P6   C6r  1 4.700000e-01    2.960000e+00
    P6   N1r  1 4.700000e-01    2.960000e+00
    P6   N2r  1 4.700000e-01    3.070000e+00
    P6   N3r  1 4.700000e-01    3.240000e+00
    P6   N4r  1 4.700000e-01    3.390000e+00
    P6   N5r  1 4.700000e-01    3.520000e+00
    P6   N6r  1 4.700000e-01    3.880000e+00
    P6   P1r  1 4.700000e-01    4.060000e+00
    P6   P2r  1 4.700000e-01    4.250000e+00
    P6   P3r  1 4.700000e-01    4.250000e+00
    P6   P4r  1 4.700000e-01    4.480000e+00
    P6   P5r  1 4.700000e-01    4.730000e+00
    P6   SP6  1 4.300000e-01    4.680000e+00
    P6   SP5  1 4.300000e-01    4.400000e+00
    P6   SP4  1 4.300000e-01    4.170000e+00
    P6   SP3  1 4.300000e-01    3.970000e+00
    P6   SP2  1 4.300000e-01    3.970000e+00
    P6   SP1  1 4.300000e-01    3.770000e+00
    P6   SN6  1 4.300000e-01    3.590000e+00
    P6   SN5  1 4.300000e-01    3.160000e+00
    P6   SN4  1 4.300000e-01    2.920000e+00
    P6   SN3  1 4.300000e-01    2.770000e+00
    P6   SN2  1 4.300000e-01    2.530000e+00
    P6   SN1  1 4.300000e-01    2.320000e+00
    P6   SC6  1 4.300000e-01    2.320000e+00
    P6   SC5  1 4.300000e-01    2.160000e+00
    P6   SC4  1 4.300000e-01    1.930000e+00
    P6   SC3  1 4.300000e-01    1.730000e+00
    P6   SC2  1 4.300000e-01    1.730000e+00
    P6   SC1  1 4.730000e-01    1.280000e+00
    P6   SX4  1 4.300000e-01    2.530000e+00
    P6   SX3  1 4.300000e-01    2.530000e+00
    P6   SX2  1 4.300000e-01    2.320000e+00
    P6   SX1  1 4.300000e-01    2.160000e+00
    P6  SP6d  1 4.300000e-01    4.680000e+00
    P6  SN1d  1 4.300000e-01    2.320000e+00
    P6  SN2d  1 4.300000e-01    2.530000e+00
    P6  SN3d  1 4.300000e-01    2.770000e+00
    P6  SN4d  1 4.300000e-01    2.920000e+00
    P6  SN5d  1 4.300000e-01    3.160000e+00
    P6  SN6d  1 4.300000e-01    3.590000e+00
    P6  SP1d  1 4.300000e-01    3.770000e+00
    P6  SP2d  1 4.300000e-01    3.970000e+00
    P6  SP3d  1 4.300000e-01    3.970000e+00
    P6  SP4d  1 4.300000e-01    4.170000e+00
    P6  SP5d  1 4.300000e-01    4.400000e+00
    P6  SP6a  1 4.300000e-01    4.680000e+00
    P6  SN1a  1 4.300000e-01    2.320000e+00
    P6  SN2a  1 4.300000e-01    2.530000e+00
    P6  SN3a  1 4.300000e-01    2.770000e+00
    P6  SN4a  1 4.300000e-01    2.920000e+00
    P6  SN5a  1 4.300000e-01    3.160000e+00
    P6  SN6a  1 4.300000e-01    3.590000e+00
    P6  SP1a  1 4.300000e-01    3.770000e+00
    P6  SP2a  1 4.300000e-01    3.970000e+00
    P6  SP3a  1 4.300000e-01    3.970000e+00
    P6  SP4a  1 4.300000e-01    4.170000e+00
    P6  SP5a  1 4.300000e-01    4.400000e+00
    P6  SC6v  1 4.300000e-01    2.530000e+00
    P6  SC5v  1 4.300000e-01    2.320000e+00
    P6  SC4v  1 4.300000e-01    2.160000e+00
    P6  SC3v  1 4.300000e-01    1.930000e+00
    P6  SC2v  1 4.300000e-01    1.930000e+00
    P6  SC1v  1 4.430000e-01    1.480000e+00
    P6  SX4v  1 4.300000e-01    2.770000e+00
    P6  SX3v  1 4.300000e-01    2.770000e+00
    P6  SX2v  1 4.300000e-01    2.530000e+00
    P6  SX1v  1 4.300000e-01    2.320000e+00
    P6  SC6e  1 4.300000e-01    2.530000e+00
    P6  SC5e  1 4.300000e-01    2.320000e+00
    P6  SC4e  1 4.300000e-01    2.160000e+00
    P6  SC3e  1 4.300000e-01    1.930000e+00
    P6  SC2e  1 4.300000e-01    1.930000e+00
    P6  SC1e  1 4.430000e-01    1.480000e+00
    P6  SX4e  1 4.300000e-01    2.770000e+00
    P6  SX3e  1 4.300000e-01    2.770000e+00
    P6  SX2e  1 4.300000e-01    2.530000e+00
    P6  SX1e  1 4.300000e-01    2.320000e+00
    P6  SP6q  1 4.300000e-01    5.210000e+00
    P6 SX1eq  1 4.300000e-01    2.770000e+00
    P6 SX2eq  1 4.300000e-01    2.920000e+00
    P6 SX3eq  1 4.300000e-01    3.160000e+00
    P6 SX4eq  1 4.300000e-01    3.160000e+00
    P6 SC1eq  1 4.300000e-01    1.930000e+00
    P6 SC2eq  1 4.300000e-01    2.320000e+00
    P6 SC3eq  1 4.300000e-01    2.320000e+00
    P6 SC4eq  1 4.300000e-01    2.530000e+00
    P6 SC5eq  1 4.300000e-01    2.770000e+00
    P6 SC6eq  1 4.300000e-01    2.920000e+00
    P6 SX1vq  1 4.300000e-01    2.770000e+00
    P6 SX2vq  1 4.300000e-01    2.920000e+00
    P6 SX3vq  1 4.300000e-01    3.160000e+00
    P6 SX4vq  1 4.300000e-01    3.160000e+00
    P6 SC1vq  1 4.300000e-01    1.930000e+00
    P6 SC2vq  1 4.300000e-01    2.320000e+00
    P6 SC3vq  1 4.300000e-01    2.320000e+00
    P6 SC4vq  1 4.300000e-01    2.530000e+00
    P6 SC5vq  1 4.300000e-01    2.770000e+00
    P6 SC6vq  1 4.300000e-01    2.920000e+00
    P6 SN1aq  1 4.300000e-01    2.770000e+00
    P6 SN2aq  1 4.300000e-01    2.920000e+00
    P6 SN3aq  1 4.300000e-01    3.160000e+00
    P6 SN4aq  1 4.300000e-01    3.380000e+00
    P6 SN5aq  1 4.300000e-01    3.590000e+00
    P6 SN6aq  1 4.300000e-01    3.970000e+00
    P6 SP1aq  1 4.300000e-01    4.170000e+00
    P6 SP2aq  1 4.300000e-01    4.400000e+00
    P6 SP3aq  1 4.300000e-01    4.400000e+00
    P6 SP4aq  1 4.300000e-01    4.680000e+00
    P6 SP5aq  1 4.300000e-01    4.920000e+00
    P6 SP6aq  1 4.300000e-01    5.210000e+00
    P6 SN1dq  1 4.300000e-01    2.770000e+00
    P6 SN2dq  1 4.300000e-01    2.920000e+00
    P6 SN3dq  1 4.300000e-01    3.160000e+00
    P6 SN4dq  1 4.300000e-01    3.380000e+00
    P6 SN5dq  1 4.300000e-01    3.590000e+00
    P6 SN6dq  1 4.300000e-01    3.970000e+00
    P6 SP1dq  1 4.300000e-01    4.170000e+00
    P6 SP2dq  1 4.300000e-01    4.400000e+00
    P6 SP3dq  1 4.300000e-01    4.400000e+00
    P6 SP4dq  1 4.300000e-01    4.680000e+00
    P6 SP5dq  1 4.300000e-01    4.920000e+00
    P6 SP6dq  1 4.300000e-01    5.210000e+00
    P6  SX1q  1 4.300000e-01    2.530000e+00
    P6  SX2q  1 4.300000e-01    2.770000e+00
    P6  SX3q  1 4.300000e-01    2.920000e+00
    P6  SX4q  1 4.300000e-01    2.920000e+00
    P6  SC1q  1 4.300000e-01    1.730000e+00
    P6  SC2q  1 4.300000e-01    2.160000e+00
    P6  SC3q  1 4.300000e-01    2.160000e+00
    P6  SC4q  1 4.300000e-01    2.320000e+00
    P6  SC5q  1 4.300000e-01    2.530000e+00
    P6  SC6q  1 4.300000e-01    2.770000e+00
    P6  SN1q  1 4.300000e-01    2.770000e+00
    P6  SN2q  1 4.300000e-01    2.920000e+00
    P6  SN3q  1 4.300000e-01    3.160000e+00
    P6  SN4q  1 4.300000e-01    3.380000e+00
    P6  SN5q  1 4.300000e-01    3.590000e+00
    P6  SN6q  1 4.300000e-01    3.970000e+00
    P6  SP1q  1 4.300000e-01    4.170000e+00
    P6  SP2q  1 4.300000e-01    4.400000e+00
    P6  SP3q  1 4.300000e-01    4.400000e+00
    P6  SP4q  1 4.300000e-01    4.680000e+00
    P6  SP5q  1 4.300000e-01    4.920000e+00
    P6  SP6h  1 4.300000e-01    4.680000e+00
    P6 SX1eh  1 4.300000e-01    2.320000e+00
    P6 SX2eh  1 4.300000e-01    2.530000e+00
    P6 SX3eh  1 4.300000e-01    2.770000e+00
    P6 SX4eh  1 4.300000e-01    2.770000e+00
    P6 SC1eh  1 4.430000e-01    1.480000e+00
    P6 SC2eh  1 4.300000e-01    1.930000e+00
    P6 SC3eh  1 4.300000e-01    1.930000e+00
    P6 SC4eh  1 4.300000e-01    2.160000e+00
    P6 SC5eh  1 4.300000e-01    2.320000e+00
    P6 SC6eh  1 4.300000e-01    2.530000e+00
    P6 SX1vh  1 4.300000e-01    2.320000e+00
    P6 SX2vh  1 4.300000e-01    2.530000e+00
    P6 SX3vh  1 4.300000e-01    2.770000e+00
    P6 SX4vh  1 4.300000e-01    2.770000e+00
    P6 SC1vh  1 4.430000e-01    1.480000e+00
    P6 SC2vh  1 4.300000e-01    1.930000e+00
    P6 SC3vh  1 4.300000e-01    1.930000e+00
    P6 SC4vh  1 4.300000e-01    2.160000e+00
    P6 SC5vh  1 4.300000e-01    2.320000e+00
    P6 SC6vh  1 4.300000e-01    2.530000e+00
    P6 SN1ah  1 4.300000e-01    2.320000e+00
    P6 SN2ah  1 4.300000e-01    2.530000e+00
    P6 SN3ah  1 4.300000e-01    2.770000e+00
    P6 SN4ah  1 4.300000e-01    2.920000e+00
    P6 SN5ah  1 4.300000e-01    3.160000e+00
    P6 SN6ah  1 4.300000e-01    3.590000e+00
    P6 SP1ah  1 4.300000e-01    3.770000e+00
    P6 SP2ah  1 4.300000e-01    3.970000e+00
    P6 SP3ah  1 4.300000e-01    3.970000e+00
    P6 SP4ah  1 4.300000e-01    4.170000e+00
    P6 SP5ah  1 4.300000e-01    4.400000e+00
    P6 SP6ah  1 4.300000e-01    4.680000e+00
    P6 SN1dh  1 4.300000e-01    2.320000e+00
    P6 SN2dh  1 4.300000e-01    2.530000e+00
    P6 SN3dh  1 4.300000e-01    2.770000e+00
    P6 SN4dh  1 4.300000e-01    2.920000e+00
    P6 SN5dh  1 4.300000e-01    3.160000e+00
    P6 SN6dh  1 4.300000e-01    3.590000e+00
    P6 SP1dh  1 4.300000e-01    3.770000e+00
    P6 SP2dh  1 4.300000e-01    3.970000e+00
    P6 SP3dh  1 4.300000e-01    3.970000e+00
    P6 SP4dh  1 4.300000e-01    4.170000e+00
    P6 SP5dh  1 4.300000e-01    4.400000e+00
    P6 SP6dh  1 4.300000e-01    4.680000e+00
    P6  SX1h  1 4.300000e-01    2.160000e+00
    P6  SX2h  1 4.300000e-01    2.320000e+00
    P6  SX3h  1 4.300000e-01    2.530000e+00
    P6  SX4h  1 4.300000e-01    2.530000e+00
    P6  SC1h  1 4.730000e-01    1.280000e+00
    P6  SC2h  1 4.300000e-01    1.730000e+00
    P6  SC3h  1 4.300000e-01    1.730000e+00
    P6  SC4h  1 4.300000e-01    1.930000e+00
    P6  SC5h  1 4.300000e-01    2.160000e+00
    P6  SC6h  1 4.300000e-01    2.320000e+00
    P6  SN1h  1 4.300000e-01    2.320000e+00
    P6  SN2h  1 4.300000e-01    2.530000e+00
    P6  SN3h  1 4.300000e-01    2.770000e+00
    P6  SN4h  1 4.300000e-01    2.920000e+00
    P6  SN5h  1 4.300000e-01    3.160000e+00
    P6  SN6h  1 4.300000e-01    3.590000e+00
    P6  SP1h  1 4.300000e-01    3.770000e+00
    P6  SP2h  1 4.300000e-01    3.970000e+00
    P6  SP3h  1 4.300000e-01    3.970000e+00
    P6  SP4h  1 4.300000e-01    4.170000e+00
    P6  SP5h  1 4.300000e-01    4.400000e+00
    P6  SP6r  1 4.300000e-01    4.680000e+00
    P6 SX1er  1 4.300000e-01    2.320000e+00
    P6 SX2er  1 4.300000e-01    2.530000e+00
    P6 SX3er  1 4.300000e-01    2.770000e+00
    P6 SX4er  1 4.300000e-01    2.770000e+00
    P6 SC1er  1 4.430000e-01    1.480000e+00
    P6 SC2er  1 4.300000e-01    1.930000e+00
    P6 SC3er  1 4.300000e-01    1.930000e+00
    P6 SC4er  1 4.300000e-01    2.160000e+00
    P6 SC5er  1 4.300000e-01    2.320000e+00
    P6 SC6er  1 4.300000e-01    2.530000e+00
    P6 SX1vr  1 4.300000e-01    2.320000e+00
    P6 SX2vr  1 4.300000e-01    2.530000e+00
    P6 SX3vr  1 4.300000e-01    2.770000e+00
    P6 SX4vr  1 4.300000e-01    2.770000e+00
    P6 SC1vr  1 4.430000e-01    1.480000e+00
    P6 SC2vr  1 4.300000e-01    1.930000e+00
    P6 SC3vr  1 4.300000e-01    1.930000e+00
    P6 SC4vr  1 4.300000e-01    2.160000e+00
    P6 SC5vr  1 4.300000e-01    2.320000e+00
    P6 SC6vr  1 4.300000e-01    2.530000e+00
    P6 SN1ar  1 4.300000e-01    2.320000e+00
    P6 SN2ar  1 4.300000e-01    2.530000e+00
    P6 SN3ar  1 4.300000e-01    2.770000e+00
    P6 SN4ar  1 4.300000e-01    2.920000e+00
    P6 SN5ar  1 4.300000e-01    3.160000e+00
    P6 SN6ar  1 4.300000e-01    3.590000e+00
    P6 SP1ar  1 4.300000e-01    3.770000e+00
    P6 SP2ar  1 4.300000e-01    3.970000e+00
    P6 SP3ar  1 4.300000e-01    3.970000e+00
    P6 SP4ar  1 4.300000e-01    4.170000e+00
    P6 SP5ar  1 4.300000e-01    4.400000e+00
    P6 SP6ar  1 4.300000e-01    4.680000e+00
    P6 SN1dr  1 4.300000e-01    2.320000e+00
    P6 SN2dr  1 4.300000e-01    2.530000e+00
    P6 SN3dr  1 4.300000e-01    2.770000e+00
    P6 SN4dr  1 4.300000e-01    2.920000e+00
    P6 SN5dr  1 4.300000e-01    3.160000e+00
    P6 SN6dr  1 4.300000e-01    3.590000e+00
    P6 SP1dr  1 4.300000e-01    3.770000e+00
    P6 SP2dr  1 4.300000e-01    3.970000e+00
    P6 SP3dr  1 4.300000e-01    3.970000e+00
    P6 SP4dr  1 4.300000e-01    4.170000e+00
    P6 SP5dr  1 4.300000e-01    4.400000e+00
    P6 SP6dr  1 4.300000e-01    4.680000e+00
    P6  SX1r  1 4.300000e-01    2.160000e+00
    P6  SX2r  1 4.300000e-01    2.320000e+00
    P6  SX3r  1 4.300000e-01    2.530000e+00
    P6  SX4r  1 4.300000e-01    2.530000e+00
    P6  SC1r  1 4.730000e-01    1.280000e+00
    P6  SC2r  1 4.300000e-01    1.730000e+00
    P6  SC3r  1 4.300000e-01    1.730000e+00
    P6  SC4r  1 4.300000e-01    1.930000e+00
    P6  SC5r  1 4.300000e-01    2.160000e+00
    P6  SC6r  1 4.300000e-01    2.320000e+00
    P6  SN1r  1 4.300000e-01    2.320000e+00
    P6  SN2r  1 4.300000e-01    2.530000e+00
    P6  SN3r  1 4.300000e-01    2.770000e+00
    P6  SN4r  1 4.300000e-01    2.920000e+00
    P6  SN5r  1 4.300000e-01    3.160000e+00
    P6  SN6r  1 4.300000e-01    3.590000e+00
    P6  SP1r  1 4.300000e-01    3.770000e+00
    P6  SP2r  1 4.300000e-01    3.970000e+00
    P6  SP3r  1 4.300000e-01    3.970000e+00
    P6  SP4r  1 4.300000e-01    4.170000e+00
    P6  SP5r  1 4.300000e-01    4.400000e+00
    P6   TP6  1 3.950000e-01    4.230000e+00
    P6   TP5  1 3.950000e-01    3.910000e+00
    P6   TP4  1 3.950000e-01    3.670000e+00
    P6   TP3  1 3.950000e-01    3.430000e+00
    P6   TP2  1 3.950000e-01    3.430000e+00
    P6   TP1  1 3.950000e-01    3.190000e+00
    P6   TN6  1 3.950000e-01    2.940000e+00
    P6   TN5  1 3.950000e-01    2.500000e+00
    P6   TN4  1 3.950000e-01    2.310000e+00
    P6   TN3  1 3.950000e-01    2.110000e+00
    P6   TN2  1 3.950000e-01    1.850000e+00
    P6   TN1  1 3.950000e-01    1.670000e+00
    P6   TC6  1 3.950000e-01    1.670000e+00
    P6   TC5  1 3.980000e-01    1.450000e+00
    P6   TC4  1 3.990000e-01    1.180000e+00
    P6   TC3  1 4.010000e-01    9.830000e-01
    P6   TC2  1 4.010000e-01    9.830000e-01
    P6   TC1  1 4.650000e-01    7.030000e-01
    P6   TX4  1 3.950000e-01    1.850000e+00
    P6   TX3  1 3.950000e-01    1.850000e+00
    P6   TX2  1 3.950000e-01    1.670000e+00
    P6   TX1  1 3.980000e-01    1.450000e+00
    P6  TP6d  1 3.950000e-01    4.230000e+00
    P6  TN1d  1 3.950000e-01    1.670000e+00
    P6  TN2d  1 3.950000e-01    1.850000e+00
    P6  TN3d  1 3.950000e-01    2.110000e+00
    P6  TN4d  1 3.950000e-01    2.310000e+00
    P6  TN5d  1 3.950000e-01    2.500000e+00
    P6  TN6d  1 3.950000e-01    2.940000e+00
    P6  TP1d  1 3.950000e-01    3.190000e+00
    P6  TP2d  1 3.950000e-01    3.430000e+00
    P6  TP3d  1 3.950000e-01    3.430000e+00
    P6  TP4d  1 3.950000e-01    3.670000e+00
    P6  TP5d  1 3.950000e-01    3.910000e+00
    P6  TP6a  1 3.950000e-01    4.230000e+00
    P6  TN1a  1 3.950000e-01    1.670000e+00
    P6  TN2a  1 3.950000e-01    1.850000e+00
    P6  TN3a  1 3.950000e-01    2.110000e+00
    P6  TN4a  1 3.950000e-01    2.310000e+00
    P6  TN5a  1 3.950000e-01    2.500000e+00
    P6  TN6a  1 3.950000e-01    2.940000e+00
    P6  TP1a  1 3.950000e-01    3.190000e+00
    P6  TP2a  1 3.950000e-01    3.430000e+00
    P6  TP3a  1 3.950000e-01    3.430000e+00
    P6  TP4a  1 3.950000e-01    3.670000e+00
    P6  TP5a  1 3.950000e-01    3.910000e+00
    P6  TC6v  1 3.950000e-01    1.850000e+00
    P6  TC5v  1 3.950000e-01    1.670000e+00
    P6  TC4v  1 3.980000e-01    1.450000e+00
    P6  TC3v  1 3.990000e-01    1.180000e+00
    P6  TC2v  1 3.990000e-01    1.180000e+00
    P6  TC1v  1 4.040000e-01    8.300000e-01
    P6  TX4v  1 3.950000e-01    2.110000e+00
    P6  TX3v  1 3.950000e-01    2.110000e+00
    P6  TX2v  1 3.950000e-01    1.850000e+00
    P6  TX1v  1 3.950000e-01    1.670000e+00
    P6  TC6e  1 3.950000e-01    1.850000e+00
    P6  TC5e  1 3.950000e-01    1.670000e+00
    P6  TC4e  1 3.980000e-01    1.450000e+00
    P6  TC3e  1 3.990000e-01    1.180000e+00
    P6  TC2e  1 3.990000e-01    1.180000e+00
    P6  TC1e  1 4.040000e-01    8.300000e-01
    P6  TX4e  1 3.950000e-01    2.110000e+00
    P6  TX3e  1 3.950000e-01    2.110000e+00
    P6  TX2e  1 3.950000e-01    1.850000e+00
    P6  TX1e  1 3.950000e-01    1.670000e+00
    P6  TP6q  1 3.950000e-01    4.870000e+00
    P6 TX1eq  1 3.950000e-01    2.110000e+00
    P6 TX2eq  1 3.950000e-01    2.310000e+00
    P6 TX3eq  1 3.950000e-01    2.500000e+00
    P6 TX4eq  1 3.950000e-01    2.500000e+00
    P6 TC1eq  1 3.990000e-01    1.180000e+00
    P6 TC2eq  1 3.950000e-01    1.670000e+00
    P6 TC3eq  1 3.950000e-01    1.670000e+00
    P6 TC4eq  1 3.950000e-01    1.850000e+00
    P6 TC5eq  1 3.950000e-01    2.110000e+00
    P6 TC6eq  1 3.950000e-01    2.310000e+00
    P6 TX1vq  1 3.950000e-01    2.110000e+00
    P6 TX2vq  1 3.950000e-01    2.310000e+00
    P6 TX3vq  1 3.950000e-01    2.500000e+00
    P6 TX4vq  1 3.950000e-01    2.500000e+00
    P6 TC1vq  1 3.990000e-01    1.180000e+00
    P6 TC2vq  1 3.950000e-01    1.670000e+00
    P6 TC3vq  1 3.950000e-01    1.670000e+00
    P6 TC4vq  1 3.950000e-01    1.850000e+00
    P6 TC5vq  1 3.950000e-01    2.110000e+00
    P6 TC6vq  1 3.950000e-01    2.310000e+00
    P6 TN1aq  1 3.950000e-01    2.110000e+00
    P6 TN2aq  1 3.950000e-01    2.310000e+00
    P6 TN3aq  1 3.950000e-01    2.500000e+00
    P6 TN4aq  1 3.950000e-01    2.700000e+00
    P6 TN5aq  1 3.950000e-01    2.940000e+00
    P6 TN6aq  1 3.950000e-01    3.430000e+00
    P6 TP1aq  1 3.950000e-01    3.670000e+00
    P6 TP2aq  1 3.950000e-01    3.910000e+00
    P6 TP3aq  1 3.950000e-01    3.910000e+00
    P6 TP4aq  1 3.950000e-01    4.230000e+00
    P6 TP5aq  1 3.950000e-01    4.540000e+00
    P6 TP6aq  1 3.950000e-01    4.870000e+00
    P6 TN1dq  1 3.950000e-01    2.110000e+00
    P6 TN2dq  1 3.950000e-01    2.310000e+00
    P6 TN3dq  1 3.950000e-01    2.500000e+00
    P6 TN4dq  1 3.950000e-01    2.700000e+00
    P6 TN5dq  1 3.950000e-01    2.940000e+00
    P6 TN6dq  1 3.950000e-01    3.430000e+00
    P6 TP1dq  1 3.950000e-01    3.670000e+00
    P6 TP2dq  1 3.950000e-01    3.910000e+00
    P6 TP3dq  1 3.950000e-01    3.910000e+00
    P6 TP4dq  1 3.950000e-01    4.230000e+00
    P6 TP5dq  1 3.950000e-01    4.540000e+00
    P6 TP6dq  1 3.950000e-01    4.870000e+00
    P6  TX1q  1 3.950000e-01    1.850000e+00
    P6  TX2q  1 3.950000e-01    2.110000e+00
    P6  TX3q  1 3.950000e-01    2.310000e+00
    P6  TX4q  1 3.950000e-01    2.310000e+00
    P6  TC1q  1 4.010000e-01    9.830000e-01
    P6  TC2q  1 3.980000e-01    1.450000e+00
    P6  TC3q  1 3.980000e-01    1.450000e+00
    P6  TC4q  1 3.950000e-01    1.670000e+00
    P6  TC5q  1 3.950000e-01    1.850000e+00
    P6  TC6q  1 3.950000e-01    2.110000e+00
    P6  TN1q  1 3.950000e-01    2.110000e+00
    P6  TN2q  1 3.950000e-01    2.310000e+00
    P6  TN3q  1 3.950000e-01    2.500000e+00
    P6  TN4q  1 3.950000e-01    2.700000e+00
    P6  TN5q  1 3.950000e-01    2.940000e+00
    P6  TN6q  1 3.950000e-01    3.430000e+00
    P6  TP1q  1 3.950000e-01    3.670000e+00
    P6  TP2q  1 3.950000e-01    3.910000e+00
    P6  TP3q  1 3.950000e-01    3.910000e+00
    P6  TP4q  1 3.950000e-01    4.230000e+00
    P6  TP5q  1 3.950000e-01    4.540000e+00
    P6  TP6h  1 3.950000e-01    4.230000e+00
    P6 TX1eh  1 3.950000e-01    1.670000e+00
    P6 TX2eh  1 3.950000e-01    1.850000e+00
    P6 TX3eh  1 3.950000e-01    2.110000e+00
    P6 TX4eh  1 3.950000e-01    2.110000e+00
    P6 TC1eh  1 4.040000e-01    8.300000e-01
    P6 TC2eh  1 3.990000e-01    1.180000e+00
    P6 TC3eh  1 3.990000e-01    1.180000e+00
    P6 TC4eh  1 3.980000e-01    1.450000e+00
    P6 TC5eh  1 3.950000e-01    1.670000e+00
    P6 TC6eh  1 3.950000e-01    1.850000e+00
    P6 TX1vh  1 3.950000e-01    1.670000e+00
    P6 TX2vh  1 3.950000e-01    1.850000e+00
    P6 TX3vh  1 3.950000e-01    2.110000e+00
    P6 TX4vh  1 3.950000e-01    2.110000e+00
    P6 TC1vh  1 4.040000e-01    8.300000e-01
    P6 TC2vh  1 3.990000e-01    1.180000e+00
    P6 TC3vh  1 3.990000e-01    1.180000e+00
    P6 TC4vh  1 3.980000e-01    1.450000e+00
    P6 TC5vh  1 3.950000e-01    1.670000e+00
    P6 TC6vh  1 3.950000e-01    1.850000e+00
    P6 TN1ah  1 3.950000e-01    1.670000e+00
    P6 TN2ah  1 3.950000e-01    1.850000e+00
    P6 TN3ah  1 3.950000e-01    2.110000e+00
    P6 TN4ah  1 3.950000e-01    2.310000e+00
    P6 TN5ah  1 3.950000e-01    2.500000e+00
    P6 TN6ah  1 3.950000e-01    2.940000e+00
    P6 TP1ah  1 3.950000e-01    3.190000e+00
    P6 TP2ah  1 3.950000e-01    3.430000e+00
    P6 TP3ah  1 3.950000e-01    3.430000e+00
    P6 TP4ah  1 3.950000e-01    3.670000e+00
    P6 TP5ah  1 3.950000e-01    3.910000e+00
    P6 TP6ah  1 3.950000e-01    4.230000e+00
    P6 TN1dh  1 3.950000e-01    1.670000e+00
    P6 TN2dh  1 3.950000e-01    1.850000e+00
    P6 TN3dh  1 3.950000e-01    2.110000e+00
    P6 TN4dh  1 3.950000e-01    2.310000e+00
    P6 TN5dh  1 3.950000e-01    2.500000e+00
    P6 TN6dh  1 3.950000e-01    2.940000e+00
    P6 TP1dh  1 3.950000e-01    3.190000e+00
    P6 TP2dh  1 3.950000e-01    3.430000e+00
    P6 TP3dh  1 3.950000e-01    3.430000e+00
    P6 TP4dh  1 3.950000e-01    3.670000e+00
    P6 TP5dh  1 3.950000e-01    3.910000e+00
    P6 TP6dh  1 3.950000e-01    4.230000e+00
    P6  TX1h  1 3.980000e-01    1.450000e+00
    P6  TX2h  1 3.950000e-01    1.670000e+00
    P6  TX3h  1 3.950000e-01    1.850000e+00
    P6  TX4h  1 3.950000e-01    1.850000e+00
    P6  TC1h  1 4.650000e-01    7.030000e-01
    P6  TC2h  1 4.010000e-01    9.830000e-01
    P6  TC3h  1 4.010000e-01    9.830000e-01
    P6  TC4h  1 3.990000e-01    1.180000e+00
    P6  TC5h  1 3.980000e-01    1.450000e+00
    P6  TC6h  1 3.950000e-01    1.670000e+00
    P6  TN1h  1 3.950000e-01    1.670000e+00
    P6  TN2h  1 3.950000e-01    1.850000e+00
    P6  TN3h  1 3.950000e-01    2.110000e+00
    P6  TN4h  1 3.950000e-01    2.310000e+00
    P6  TN5h  1 3.950000e-01    2.500000e+00
    P6  TN6h  1 3.950000e-01    2.940000e+00
    P6  TP1h  1 3.950000e-01    3.190000e+00
    P6  TP2h  1 3.950000e-01    3.430000e+00
    P6  TP3h  1 3.950000e-01    3.430000e+00
    P6  TP4h  1 3.950000e-01    3.670000e+00
    P6  TP5h  1 3.950000e-01    3.910000e+00
    P6  TP6r  1 3.950000e-01    4.230000e+00
    P6 TX1er  1 3.950000e-01    1.670000e+00
    P6 TX2er  1 3.950000e-01    1.850000e+00
    P6 TX3er  1 3.950000e-01    2.110000e+00
    P6 TX4er  1 3.950000e-01    2.110000e+00
    P6 TC1er  1 4.040000e-01    8.300000e-01
    P6 TC2er  1 3.990000e-01    1.180000e+00
    P6 TC3er  1 3.990000e-01    1.180000e+00
    P6 TC4er  1 3.980000e-01    1.450000e+00
    P6 TC5er  1 3.950000e-01    1.670000e+00
    P6 TC6er  1 3.950000e-01    1.850000e+00
    P6 TX1vr  1 3.950000e-01    1.670000e+00
    P6 TX2vr  1 3.950000e-01    1.850000e+00
    P6 TX3vr  1 3.950000e-01    2.110000e+00
    P6 TX4vr  1 3.950000e-01    2.110000e+00
    P6 TC1vr  1 4.040000e-01    8.300000e-01
    P6 TC2vr  1 3.990000e-01    1.180000e+00
    P6 TC3vr  1 3.990000e-01    1.180000e+00
    P6 TC4vr  1 3.980000e-01    1.450000e+00
    P6 TC5vr  1 3.950000e-01    1.670000e+00
    P6 TC6vr  1 3.950000e-01    1.850000e+00
    P6 TN1ar  1 3.950000e-01    1.670000e+00
    P6 TN2ar  1 3.950000e-01    1.850000e+00
    P6 TN3ar  1 3.950000e-01    2.110000e+00
    P6 TN4ar  1 3.950000e-01    2.310000e+00
    P6 TN5ar  1 3.950000e-01    2.500000e+00
    P6 TN6ar  1 3.950000e-01    2.940000e+00
    P6 TP1ar  1 3.950000e-01    3.190000e+00
    P6 TP2ar  1 3.950000e-01    3.430000e+00
    P6 TP3ar  1 3.950000e-01    3.430000e+00
    P6 TP4ar  1 3.950000e-01    3.670000e+00
    P6 TP5ar  1 3.950000e-01    3.910000e+00
    P6 TP6ar  1 3.950000e-01    4.230000e+00
    P6 TN1dr  1 3.950000e-01    1.670000e+00
    P6 TN2dr  1 3.950000e-01    1.850000e+00
    P6 TN3dr  1 3.950000e-01    2.110000e+00
    P6 TN4dr  1 3.950000e-01    2.310000e+00
    P6 TN5dr  1 3.950000e-01    2.500000e+00
    P6 TN6dr  1 3.950000e-01    2.940000e+00
    P6 TP1dr  1 3.950000e-01    3.190000e+00
    P6 TP2dr  1 3.950000e-01    3.430000e+00
    P6 TP3dr  1 3.950000e-01    3.430000e+00
    P6 TP4dr  1 3.950000e-01    3.670000e+00
    P6 TP5dr  1 3.950000e-01    3.910000e+00
    P6 TP6dr  1 3.950000e-01    4.230000e+00
    P6  TX1r  1 3.980000e-01    1.450000e+00
    P6  TX2r  1 3.950000e-01    1.670000e+00
    P6  TX3r  1 3.950000e-01    1.850000e+00
    P6  TX4r  1 3.950000e-01    1.850000e+00
    P6  TC1r  1 4.650000e-01    7.030000e-01
    P6  TC2r  1 4.010000e-01    9.830000e-01
    P6  TC3r  1 4.010000e-01    9.830000e-01
    P6  TC4r  1 3.990000e-01    1.180000e+00
    P6  TC5r  1 3.980000e-01    1.450000e+00
    P6  TC6r  1 3.950000e-01    1.670000e+00
    P6  TN1r  1 3.950000e-01    1.670000e+00
    P6  TN2r  1 3.950000e-01    1.850000e+00
    P6  TN3r  1 3.950000e-01    2.110000e+00
    P6  TN4r  1 3.950000e-01    2.310000e+00
    P6  TN5r  1 3.950000e-01    2.500000e+00
    P6  TN6r  1 3.950000e-01    2.940000e+00
    P6  TP1r  1 3.950000e-01    3.190000e+00
    P6  TP2r  1 3.950000e-01    3.430000e+00
    P6  TP3r  1 3.950000e-01    3.430000e+00
    P6  TP4r  1 3.950000e-01    3.670000e+00
    P6  TP5r  1 3.950000e-01    3.910000e+00
   SP6    P5  1 4.300000e-01    4.400000e+00
   SP6    P4  1 4.300000e-01    4.170000e+00
   SP6    P3  1 4.300000e-01    3.970000e+00
   SP6    P2  1 4.300000e-01    3.970000e+00
   SP6    P1  1 4.300000e-01    3.770000e+00
   SP6    N6  1 4.300000e-01    3.590000e+00
   SP6    N5  1 4.300000e-01    3.160000e+00
   SP6    N4  1 4.300000e-01    2.920000e+00
   SP6    N3  1 4.300000e-01    2.770000e+00
   SP6    N2  1 4.300000e-01    2.530000e+00
   SP6    N1  1 4.300000e-01    2.320000e+00
   SP6    C6  1 4.300000e-01    2.320000e+00
   SP6    C5  1 4.300000e-01    2.160000e+00
   SP6    C4  1 4.300000e-01    1.930000e+00
   SP6    C3  1 4.300000e-01    1.730000e+00
   SP6    C2  1 4.300000e-01    1.730000e+00
   SP6    C1  1 4.730000e-01    1.280000e+00
   SP6    X4  1 4.300000e-01    2.530000e+00
   SP6    X3  1 4.300000e-01    2.530000e+00
   SP6    X2  1 4.300000e-01    2.320000e+00
   SP6    X1  1 4.300000e-01    2.160000e+00
   SP6   P6d  1 4.300000e-01    4.680000e+00
   SP6   N1d  1 4.300000e-01    2.320000e+00
   SP6   N2d  1 4.300000e-01    2.530000e+00
   SP6   N3d  1 4.300000e-01    2.770000e+00
   SP6   N4d  1 4.300000e-01    2.920000e+00
   SP6   N5d  1 4.300000e-01    3.160000e+00
   SP6   N6d  1 4.300000e-01    3.590000e+00
   SP6   P1d  1 4.300000e-01    3.770000e+00
   SP6   P2d  1 4.300000e-01    3.970000e+00
   SP6   P3d  1 4.300000e-01    3.970000e+00
   SP6   P4d  1 4.300000e-01    4.170000e+00
   SP6   P5d  1 4.300000e-01    4.400000e+00
   SP6   P6a  1 4.300000e-01    4.680000e+00
   SP6   N1a  1 4.300000e-01    2.320000e+00
   SP6   N2a  1 4.300000e-01    2.530000e+00
   SP6   N3a  1 4.300000e-01    2.770000e+00
   SP6   N4a  1 4.300000e-01    2.920000e+00
   SP6   N5a  1 4.300000e-01    3.160000e+00
   SP6   N6a  1 4.300000e-01    3.590000e+00
   SP6   P1a  1 4.300000e-01    3.770000e+00
   SP6   P2a  1 4.300000e-01    3.970000e+00
   SP6   P3a  1 4.300000e-01    3.970000e+00
   SP6   P4a  1 4.300000e-01    4.170000e+00
   SP6   P5a  1 4.300000e-01    4.400000e+00
   SP6   C6v  1 4.300000e-01    2.530000e+00
   SP6   C5v  1 4.300000e-01    2.320000e+00
   SP6   C4v  1 4.300000e-01    2.160000e+00
   SP6   C3v  1 4.300000e-01    1.930000e+00
   SP6   C2v  1 4.300000e-01    1.930000e+00
   SP6   C1v  1 4.430000e-01    1.480000e+00
   SP6   X4v  1 4.300000e-01    2.770000e+00
   SP6   X3v  1 4.300000e-01    2.770000e+00
   SP6   X2v  1 4.300000e-01    2.530000e+00
   SP6   X1v  1 4.300000e-01    2.320000e+00
   SP6   C6e  1 4.300000e-01    2.530000e+00
   SP6   C5e  1 4.300000e-01    2.320000e+00
   SP6   C4e  1 4.300000e-01    2.160000e+00
   SP6   C3e  1 4.300000e-01    1.930000e+00
   SP6   C2e  1 4.300000e-01    1.930000e+00
   SP6   C1e  1 4.430000e-01    1.480000e+00
   SP6   X4e  1 4.300000e-01    2.770000e+00
   SP6   X3e  1 4.300000e-01    2.770000e+00
   SP6   X2e  1 4.300000e-01    2.530000e+00
   SP6   X1e  1 4.300000e-01    2.320000e+00
   SP6   P6q  1 4.300000e-01    5.210000e+00
   SP6  X1eq  1 4.300000e-01    2.770000e+00
   SP6  X2eq  1 4.300000e-01    2.920000e+00
   SP6  X3eq  1 4.300000e-01    3.160000e+00
   SP6  X4eq  1 4.300000e-01    3.160000e+00
   SP6  C1eq  1 4.300000e-01    1.930000e+00
   SP6  C2eq  1 4.300000e-01    2.320000e+00
   SP6  C3eq  1 4.300000e-01    2.320000e+00
   SP6  C4eq  1 4.300000e-01    2.530000e+00
   SP6  C5eq  1 4.300000e-01    2.770000e+00
   SP6  C6eq  1 4.300000e-01    2.920000e+00
   SP6  X1vq  1 4.300000e-01    2.770000e+00
   SP6  X2vq  1 4.300000e-01    2.920000e+00
   SP6  X3vq  1 4.300000e-01    3.160000e+00
   SP6  X4vq  1 4.300000e-01    3.160000e+00
   SP6  C1vq  1 4.300000e-01    1.930000e+00
   SP6  C2vq  1 4.300000e-01    2.320000e+00
   SP6  C3vq  1 4.300000e-01    2.320000e+00
   SP6  C4vq  1 4.300000e-01    2.530000e+00
   SP6  C5vq  1 4.300000e-01    2.770000e+00
   SP6  C6vq  1 4.300000e-01    2.920000e+00
   SP6  N1aq  1 4.300000e-01    2.770000e+00
   SP6  N2aq  1 4.300000e-01    2.920000e+00
   SP6  N3aq  1 4.300000e-01    3.160000e+00
   SP6  N4aq  1 4.300000e-01    3.380000e+00
   SP6  N5aq  1 4.300000e-01    3.590000e+00
   SP6  N6aq  1 4.300000e-01    3.970000e+00
   SP6  P1aq  1 4.300000e-01    4.170000e+00
   SP6  P2aq  1 4.300000e-01    4.400000e+00
   SP6  P3aq  1 4.300000e-01    4.400000e+00
   SP6  P4aq  1 4.300000e-01    4.680000e+00
   SP6  P5aq  1 4.300000e-01    4.920000e+00
   SP6  P6aq  1 4.300000e-01    5.210000e+00
   SP6  N1dq  1 4.300000e-01    2.770000e+00
   SP6  N2dq  1 4.300000e-01    2.920000e+00
   SP6  N3dq  1 4.300000e-01    3.160000e+00
   SP6  N4dq  1 4.300000e-01    3.380000e+00
   SP6  N5dq  1 4.300000e-01    3.590000e+00
   SP6  N6dq  1 4.300000e-01    3.970000e+00
   SP6  P1dq  1 4.300000e-01    4.170000e+00
   SP6  P2dq  1 4.300000e-01    4.400000e+00
   SP6  P3dq  1 4.300000e-01    4.400000e+00
   SP6  P4dq  1 4.300000e-01    4.680000e+00
   SP6  P5dq  1 4.300000e-01    4.920000e+00
   SP6  P6dq  1 4.300000e-01    5.210000e+00
   SP6   X1q  1 4.300000e-01    2.530000e+00
   SP6   X2q  1 4.300000e-01    2.770000e+00
   SP6   X3q  1 4.300000e-01    2.920000e+00
   SP6   X4q  1 4.300000e-01    2.920000e+00
   SP6   C1q  1 4.300000e-01    1.730000e+00
   SP6   C2q  1 4.300000e-01    2.160000e+00
   SP6   C3q  1 4.300000e-01    2.160000e+00
   SP6   C4q  1 4.300000e-01    2.320000e+00
   SP6   C5q  1 4.300000e-01    2.530000e+00
   SP6   C6q  1 4.300000e-01    2.770000e+00
   SP6   N1q  1 4.300000e-01    2.770000e+00
   SP6   N2q  1 4.300000e-01    2.920000e+00
   SP6   N3q  1 4.300000e-01    3.160000e+00
   SP6   N4q  1 4.300000e-01    3.380000e+00
   SP6   N5q  1 4.300000e-01    3.590000e+00
   SP6   N6q  1 4.300000e-01    3.970000e+00
   SP6   P1q  1 4.300000e-01    4.170000e+00
   SP6   P2q  1 4.300000e-01    4.400000e+00
   SP6   P3q  1 4.300000e-01    4.400000e+00
   SP6   P4q  1 4.300000e-01    4.680000e+00
   SP6   P5q  1 4.300000e-01    4.920000e+00
   SP6   P6h  1 4.300000e-01    4.680000e+00
   SP6  X1eh  1 4.300000e-01    2.320000e+00
   SP6  X2eh  1 4.300000e-01    2.530000e+00
   SP6  X3eh  1 4.300000e-01    2.770000e+00
   SP6  X4eh  1 4.300000e-01    2.770000e+00
   SP6  C1eh  1 4.430000e-01    1.480000e+00
   SP6  C2eh  1 4.300000e-01    1.930000e+00
   SP6  C3eh  1 4.300000e-01    1.930000e+00
   SP6  C4eh  1 4.300000e-01    2.160000e+00
   SP6  C5eh  1 4.300000e-01    2.320000e+00
   SP6  C6eh  1 4.300000e-01    2.530000e+00
   SP6  X1vh  1 4.300000e-01    2.320000e+00
   SP6  X2vh  1 4.300000e-01    2.530000e+00
   SP6  X3vh  1 4.300000e-01    2.770000e+00
   SP6  X4vh  1 4.300000e-01    2.770000e+00
   SP6  C1vh  1 4.430000e-01    1.480000e+00
   SP6  C2vh  1 4.300000e-01    1.930000e+00
   SP6  C3vh  1 4.300000e-01    1.930000e+00
   SP6  C4vh  1 4.300000e-01    2.160000e+00
   SP6  C5vh  1 4.300000e-01    2.320000e+00
   SP6  C6vh  1 4.300000e-01    2.530000e+00
   SP6  N1ah  1 4.300000e-01    2.320000e+00
   SP6  N2ah  1 4.300000e-01    2.530000e+00
   SP6  N3ah  1 4.300000e-01    2.770000e+00
   SP6  N4ah  1 4.300000e-01    2.920000e+00
   SP6  N5ah  1 4.300000e-01    3.160000e+00
   SP6  N6ah  1 4.300000e-01    3.590000e+00
   SP6  P1ah  1 4.300000e-01    3.770000e+00
   SP6  P2ah  1 4.300000e-01    3.970000e+00
   SP6  P3ah  1 4.300000e-01    3.970000e+00
   SP6  P4ah  1 4.300000e-01    4.170000e+00
   SP6  P5ah  1 4.300000e-01    4.400000e+00
   SP6  P6ah  1 4.300000e-01    4.680000e+00
   SP6  N1dh  1 4.300000e-01    2.320000e+00
   SP6  N2dh  1 4.300000e-01    2.530000e+00
   SP6  N3dh  1 4.300000e-01    2.770000e+00
   SP6  N4dh  1 4.300000e-01    2.920000e+00
   SP6  N5dh  1 4.300000e-01    3.160000e+00
   SP6  N6dh  1 4.300000e-01    3.590000e+00
   SP6  P1dh  1 4.300000e-01    3.770000e+00
   SP6  P2dh  1 4.300000e-01    3.970000e+00
   SP6  P3dh  1 4.300000e-01    3.970000e+00
   SP6  P4dh  1 4.300000e-01    4.170000e+00
   SP6  P5dh  1 4.300000e-01    4.400000e+00
   SP6  P6dh  1 4.300000e-01    4.680000e+00
   SP6   X1h  1 4.300000e-01    2.160000e+00
   SP6   X2h  1 4.300000e-01    2.320000e+00
   SP6   X3h  1 4.300000e-01    2.530000e+00
   SP6   X4h  1 4.300000e-01    2.530000e+00
   SP6   C1h  1 4.730000e-01    1.280000e+00
   SP6   C2h  1 4.300000e-01    1.730000e+00
   SP6   C3h  1 4.300000e-01    1.730000e+00
   SP6   C4h  1 4.300000e-01    1.930000e+00
   SP6   C5h  1 4.300000e-01    2.160000e+00
   SP6   C6h  1 4.300000e-01    2.320000e+00
   SP6   N1h  1 4.300000e-01    2.320000e+00
   SP6   N2h  1 4.300000e-01    2.530000e+00
   SP6   N3h  1 4.300000e-01    2.770000e+00
   SP6   N4h  1 4.300000e-01    2.920000e+00
   SP6   N5h  1 4.300000e-01    3.160000e+00
   SP6   N6h  1 4.300000e-01    3.590000e+00
   SP6   P1h  1 4.300000e-01    3.770000e+00
   SP6   P2h  1 4.300000e-01    3.970000e+00
   SP6   P3h  1 4.300000e-01    3.970000e+00
   SP6   P4h  1 4.300000e-01    4.170000e+00
   SP6   P5h  1 4.300000e-01    4.400000e+00
   SP6   P6r  1 4.300000e-01    4.680000e+00
   SP6  X1er  1 4.300000e-01    2.320000e+00
   SP6  X2er  1 4.300000e-01    2.530000e+00
   SP6  X3er  1 4.300000e-01    2.770000e+00
   SP6  X4er  1 4.300000e-01    2.770000e+00
   SP6  C1er  1 4.430000e-01    1.480000e+00
   SP6  C2er  1 4.300000e-01    1.930000e+00
   SP6  C3er  1 4.300000e-01    1.930000e+00
   SP6  C4er  1 4.300000e-01    2.160000e+00
   SP6  C5er  1 4.300000e-01    2.320000e+00
   SP6  C6er  1 4.300000e-01    2.530000e+00
   SP6  X1vr  1 4.300000e-01    2.320000e+00
   SP6  X2vr  1 4.300000e-01    2.530000e+00
   SP6  X3vr  1 4.300000e-01    2.770000e+00
   SP6  X4vr  1 4.300000e-01    2.770000e+00
   SP6  C1vr  1 4.430000e-01    1.480000e+00
   SP6  C2vr  1 4.300000e-01    1.930000e+00
   SP6  C3vr  1 4.300000e-01    1.930000e+00
   SP6  C4vr  1 4.300000e-01    2.160000e+00
   SP6  C5vr  1 4.300000e-01    2.320000e+00
   SP6  C6vr  1 4.300000e-01    2.530000e+00
   SP6  N1ar  1 4.300000e-01    2.320000e+00
   SP6  N2ar  1 4.300000e-01    2.530000e+00
   SP6  N3ar  1 4.300000e-01    2.770000e+00
   SP6  N4ar  1 4.300000e-01    2.920000e+00
   SP6  N5ar  1 4.300000e-01    3.160000e+00
   SP6  N6ar  1 4.300000e-01    3.590000e+00
   SP6  P1ar  1 4.300000e-01    3.770000e+00
   SP6  P2ar  1 4.300000e-01    3.970000e+00
   SP6  P3ar  1 4.300000e-01    3.970000e+00
   SP6  P4ar  1 4.300000e-01    4.170000e+00
   SP6  P5ar  1 4.300000e-01    4.400000e+00
   SP6  P6ar  1 4.300000e-01    4.680000e+00
   SP6  N1dr  1 4.300000e-01    2.320000e+00
   SP6  N2dr  1 4.300000e-01    2.530000e+00
   SP6  N3dr  1 4.300000e-01    2.770000e+00
   SP6  N4dr  1 4.300000e-01    2.920000e+00
   SP6  N5dr  1 4.300000e-01    3.160000e+00
   SP6  N6dr  1 4.300000e-01    3.590000e+00
   SP6  P1dr  1 4.300000e-01    3.770000e+00
   SP6  P2dr  1 4.300000e-01    3.970000e+00
   SP6  P3dr  1 4.300000e-01    3.970000e+00
   SP6  P4dr  1 4.300000e-01    4.170000e+00
   SP6  P5dr  1 4.300000e-01    4.400000e+00
   SP6  P6dr  1 4.300000e-01    4.680000e+00
   SP6   X1r  1 4.300000e-01    2.160000e+00
   SP6   X2r  1 4.300000e-01    2.320000e+00
   SP6   X3r  1 4.300000e-01    2.530000e+00
   SP6   X4r  1 4.300000e-01    2.530000e+00
   SP6   C1r  1 4.730000e-01    1.280000e+00
   SP6   C2r  1 4.300000e-01    1.730000e+00
   SP6   C3r  1 4.300000e-01    1.730000e+00
   SP6   C4r  1 4.300000e-01    1.930000e+00
   SP6   C5r  1 4.300000e-01    2.160000e+00
   SP6   C6r  1 4.300000e-01    2.320000e+00
   SP6   N1r  1 4.300000e-01    2.320000e+00
   SP6   N2r  1 4.300000e-01    2.530000e+00
   SP6   N3r  1 4.300000e-01    2.770000e+00
   SP6   N4r  1 4.300000e-01    2.920000e+00
   SP6   N5r  1 4.300000e-01    3.160000e+00
   SP6   N6r  1 4.300000e-01    3.590000e+00
   SP6   P1r  1 4.300000e-01    3.770000e+00
   SP6   P2r  1 4.300000e-01    3.970000e+00
   SP6   P3r  1 4.300000e-01    3.970000e+00
   SP6   P4r  1 4.300000e-01    4.170000e+00
   SP6   P5r  1 4.300000e-01    4.400000e+00
   SP6   SP6  1 4.100000e-01    4.290000e+00
   SP6   SP5  1 4.100000e-01    4.040000e+00
   SP6   SP4  1 4.100000e-01    3.820000e+00
   SP6   SP3  1 4.100000e-01    3.550000e+00
   SP6   SP2  1 4.100000e-01    3.550000e+00
   SP6   SP1  1 4.100000e-01    3.310000e+00
   SP6   SN6  1 4.100000e-01    3.070000e+00
   SP6   SN5  1 4.100000e-01    2.600000e+00
   SP6   SN4  1 4.100000e-01    2.350000e+00
   SP6   SN3  1 4.100000e-01    2.200000e+00
   SP6   SN2  1 4.100000e-01    2.040000e+00
   SP6   SN1  1 4.100000e-01    1.910000e+00
   SP6   SC6  1 4.100000e-01    1.910000e+00
   SP6   SC5  1 4.100000e-01    1.750000e+00
   SP6   SC4  1 4.140000e-01    1.560000e+00
   SP6   SC3  1 4.180000e-01    1.400000e+00
   SP6   SC2  1 4.180000e-01    1.400000e+00
   SP6   SC1  1 4.530000e-01    1.150000e+00
   SP6   SX4  1 4.100000e-01    2.040000e+00
   SP6   SX3  1 4.100000e-01    2.040000e+00
   SP6   SX2  1 4.100000e-01    1.910000e+00
   SP6   SX1  1 4.100000e-01    1.750000e+00
   SP6  SP6d  1 4.100000e-01    4.290000e+00
   SP6  SN1d  1 4.100000e-01    1.910000e+00
   SP6  SN2d  1 4.100000e-01    2.040000e+00
   SP6  SN3d  1 4.100000e-01    2.200000e+00
   SP6  SN4d  1 4.100000e-01    2.350000e+00
   SP6  SN5d  1 4.100000e-01    2.600000e+00
   SP6  SN6d  1 4.100000e-01    3.070000e+00
   SP6  SP1d  1 4.100000e-01    3.310000e+00
   SP6  SP2d  1 4.100000e-01    3.550000e+00
   SP6  SP3d  1 4.100000e-01    3.550000e+00
   SP6  SP4d  1 4.100000e-01    3.820000e+00
   SP6  SP5d  1 4.100000e-01    4.040000e+00
   SP6  SP6a  1 4.100000e-01    4.290000e+00
   SP6  SN1a  1 4.100000e-01    1.910000e+00
   SP6  SN2a  1 4.100000e-01    2.040000e+00
   SP6  SN3a  1 4.100000e-01    2.200000e+00
   SP6  SN4a  1 4.100000e-01    2.350000e+00
   SP6  SN5a  1 4.100000e-01    2.600000e+00
   SP6  SN6a  1 4.100000e-01    3.070000e+00
   SP6  SP1a  1 4.100000e-01    3.310000e+00
   SP6  SP2a  1 4.100000e-01    3.550000e+00
   SP6  SP3a  1 4.100000e-01    3.550000e+00
   SP6  SP4a  1 4.100000e-01    3.820000e+00
   SP6  SP5a  1 4.100000e-01    4.040000e+00
   SP6  SC6v  1 4.100000e-01    2.040000e+00
   SP6  SC5v  1 4.100000e-01    1.910000e+00
   SP6  SC4v  1 4.100000e-01    1.750000e+00
   SP6  SC3v  1 4.140000e-01    1.560000e+00
   SP6  SC2v  1 4.140000e-01    1.560000e+00
   SP6  SC1v  1 4.210000e-01    1.250000e+00
   SP6  SX4v  1 4.100000e-01    2.200000e+00
   SP6  SX3v  1 4.100000e-01    2.200000e+00
   SP6  SX2v  1 4.100000e-01    2.040000e+00
   SP6  SX1v  1 4.100000e-01    1.910000e+00
   SP6  SC6e  1 4.100000e-01    2.040000e+00
   SP6  SC5e  1 4.100000e-01    1.910000e+00
   SP6  SC4e  1 4.100000e-01    1.750000e+00
   SP6  SC3e  1 4.140000e-01    1.560000e+00
   SP6  SC2e  1 4.140000e-01    1.560000e+00
   SP6  SC1e  1 4.210000e-01    1.250000e+00
   SP6  SX4e  1 4.100000e-01    2.200000e+00
   SP6  SX3e  1 4.100000e-01    2.200000e+00
   SP6  SX2e  1 4.100000e-01    2.040000e+00
   SP6  SX1e  1 4.100000e-01    1.910000e+00
   SP6  SP6q  1 4.100000e-01    4.840000e+00
   SP6 SX1eq  1 4.100000e-01    2.200000e+00
   SP6 SX2eq  1 4.100000e-01    2.350000e+00
   SP6 SX3eq  1 4.100000e-01    2.600000e+00
   SP6 SX4eq  1 4.100000e-01    2.600000e+00
   SP6 SC1eq  1 4.140000e-01    1.560000e+00
   SP6 SC2eq  1 4.100000e-01    1.910000e+00
   SP6 SC3eq  1 4.100000e-01    1.910000e+00
   SP6 SC4eq  1 4.100000e-01    2.040000e+00
   SP6 SC5eq  1 4.100000e-01    2.200000e+00
   SP6 SC6eq  1 4.100000e-01    2.350000e+00
   SP6 SX1vq  1 4.100000e-01    2.200000e+00
   SP6 SX2vq  1 4.100000e-01    2.350000e+00
   SP6 SX3vq  1 4.100000e-01    2.600000e+00
   SP6 SX4vq  1 4.100000e-01    2.600000e+00
   SP6 SC1vq  1 4.140000e-01    1.560000e+00
   SP6 SC2vq  1 4.100000e-01    1.910000e+00
   SP6 SC3vq  1 4.100000e-01    1.910000e+00
   SP6 SC4vq  1 4.100000e-01    2.040000e+00
   SP6 SC5vq  1 4.100000e-01    2.200000e+00
   SP6 SC6vq  1 4.100000e-01    2.350000e+00
   SP6 SN1aq  1 4.100000e-01    2.200000e+00
   SP6 SN2aq  1 4.100000e-01    2.350000e+00
   SP6 SN3aq  1 4.100000e-01    2.600000e+00
   SP6 SN4aq  1 4.100000e-01    2.840000e+00
   SP6 SN5aq  1 4.100000e-01    3.070000e+00
   SP6 SN6aq  1 4.100000e-01    3.550000e+00
   SP6 SP1aq  1 4.100000e-01    3.820000e+00
   SP6 SP2aq  1 4.100000e-01    4.040000e+00
   SP6 SP3aq  1 4.100000e-01    4.040000e+00
   SP6 SP4aq  1 4.100000e-01    4.290000e+00
   SP6 SP5aq  1 4.100000e-01    4.550000e+00
   SP6 SP6aq  1 4.100000e-01    4.840000e+00
   SP6 SN1dq  1 4.100000e-01    2.200000e+00
   SP6 SN2dq  1 4.100000e-01    2.350000e+00
   SP6 SN3dq  1 4.100000e-01    2.600000e+00
   SP6 SN4dq  1 4.100000e-01    2.840000e+00
   SP6 SN5dq  1 4.100000e-01    3.070000e+00
   SP6 SN6dq  1 4.100000e-01    3.550000e+00
   SP6 SP1dq  1 4.100000e-01    3.820000e+00
   SP6 SP2dq  1 4.100000e-01    4.040000e+00
   SP6 SP3dq  1 4.100000e-01    4.040000e+00
   SP6 SP4dq  1 4.100000e-01    4.290000e+00
   SP6 SP5dq  1 4.100000e-01    4.550000e+00
   SP6 SP6dq  1 4.100000e-01    4.840000e+00
   SP6  SX1q  1 4.100000e-01    2.040000e+00
   SP6  SX2q  1 4.100000e-01    2.200000e+00
   SP6  SX3q  1 4.100000e-01    2.350000e+00
   SP6  SX4q  1 4.100000e-01    2.350000e+00
   SP6  SC1q  1 4.180000e-01    1.400000e+00
   SP6  SC2q  1 4.100000e-01    1.750000e+00
   SP6  SC3q  1 4.100000e-01    1.750000e+00
   SP6  SC4q  1 4.100000e-01    1.910000e+00
   SP6  SC5q  1 4.100000e-01    2.040000e+00
   SP6  SC6q  1 4.100000e-01    2.200000e+00
   SP6  SN1q  1 4.100000e-01    2.200000e+00
   SP6  SN2q  1 4.100000e-01    2.350000e+00
   SP6  SN3q  1 4.100000e-01    2.600000e+00
   SP6  SN4q  1 4.100000e-01    2.840000e+00
   SP6  SN5q  1 4.100000e-01    3.070000e+00
   SP6  SN6q  1 4.100000e-01    3.550000e+00
   SP6  SP1q  1 4.100000e-01    3.820000e+00
   SP6  SP2q  1 4.100000e-01    4.040000e+00
   SP6  SP3q  1 4.100000e-01    4.040000e+00
   SP6  SP4q  1 4.100000e-01    4.290000e+00
   SP6  SP5q  1 4.100000e-01    4.550000e+00
   SP6  SP6h  1 4.100000e-01    4.290000e+00
   SP6 SX1eh  1 4.100000e-01    1.910000e+00
   SP6 SX2eh  1 4.100000e-01    2.040000e+00
   SP6 SX3eh  1 4.100000e-01    2.200000e+00
   SP6 SX4eh  1 4.100000e-01    2.200000e+00
   SP6 SC1eh  1 4.210000e-01    1.250000e+00
   SP6 SC2eh  1 4.140000e-01    1.560000e+00
   SP6 SC3eh  1 4.140000e-01    1.560000e+00
   SP6 SC4eh  1 4.100000e-01    1.750000e+00
   SP6 SC5eh  1 4.100000e-01    1.910000e+00
   SP6 SC6eh  1 4.100000e-01    2.040000e+00
   SP6 SX1vh  1 4.100000e-01    1.910000e+00
   SP6 SX2vh  1 4.100000e-01    2.040000e+00
   SP6 SX3vh  1 4.100000e-01    2.200000e+00
   SP6 SX4vh  1 4.100000e-01    2.200000e+00
   SP6 SC1vh  1 4.210000e-01    1.250000e+00
   SP6 SC2vh  1 4.140000e-01    1.560000e+00
   SP6 SC3vh  1 4.140000e-01    1.560000e+00
   SP6 SC4vh  1 4.100000e-01    1.750000e+00
   SP6 SC5vh  1 4.100000e-01    1.910000e+00
   SP6 SC6vh  1 4.100000e-01    2.040000e+00
   SP6 SN1ah  1 4.100000e-01    1.910000e+00
   SP6 SN2ah  1 4.100000e-01    2.040000e+00
   SP6 SN3ah  1 4.100000e-01    2.200000e+00
   SP6 SN4ah  1 4.100000e-01    2.350000e+00
   SP6 SN5ah  1 4.100000e-01    2.600000e+00
   SP6 SN6ah  1 4.100000e-01    3.070000e+00
   SP6 SP1ah  1 4.100000e-01    3.310000e+00
   SP6 SP2ah  1 4.100000e-01    3.550000e+00
   SP6 SP3ah  1 4.100000e-01    3.550000e+00
   SP6 SP4ah  1 4.100000e-01    3.820000e+00
   SP6 SP5ah  1 4.100000e-01    4.040000e+00
   SP6 SP6ah  1 4.100000e-01    4.290000e+00
   SP6 SN1dh  1 4.100000e-01    1.910000e+00
   SP6 SN2dh  1 4.100000e-01    2.040000e+00
   SP6 SN3dh  1 4.100000e-01    2.200000e+00
   SP6 SN4dh  1 4.100000e-01    2.350000e+00
   SP6 SN5dh  1 4.100000e-01    2.600000e+00
   SP6 SN6dh  1 4.100000e-01    3.070000e+00
   SP6 SP1dh  1 4.100000e-01    3.310000e+00
   SP6 SP2dh  1 4.100000e-01    3.550000e+00
   SP6 SP3dh  1 4.100000e-01    3.550000e+00
   SP6 SP4dh  1 4.100000e-01    3.820000e+00
   SP6 SP5dh  1 4.100000e-01    4.040000e+00
   SP6 SP6dh  1 4.100000e-01    4.290000e+00
   SP6  SX1h  1 4.100000e-01    1.750000e+00
   SP6  SX2h  1 4.100000e-01    1.910000e+00
   SP6  SX3h  1 4.100000e-01    2.040000e+00
   SP6  SX4h  1 4.100000e-01    2.040000e+00
   SP6  SC1h  1 4.530000e-01    1.150000e+00
   SP6  SC2h  1 4.180000e-01    1.400000e+00
   SP6  SC3h  1 4.180000e-01    1.400000e+00
   SP6  SC4h  1 4.140000e-01    1.560000e+00
   SP6  SC5h  1 4.100000e-01    1.750000e+00
   SP6  SC6h  1 4.100000e-01    1.910000e+00
   SP6  SN1h  1 4.100000e-01    1.910000e+00
   SP6  SN2h  1 4.100000e-01    2.040000e+00
   SP6  SN3h  1 4.100000e-01    2.200000e+00
   SP6  SN4h  1 4.100000e-01    2.350000e+00
   SP6  SN5h  1 4.100000e-01    2.600000e+00
   SP6  SN6h  1 4.100000e-01    3.070000e+00
   SP6  SP1h  1 4.100000e-01    3.310000e+00
   SP6  SP2h  1 4.100000e-01    3.550000e+00
   SP6  SP3h  1 4.100000e-01    3.550000e+00
   SP6  SP4h  1 4.100000e-01    3.820000e+00
   SP6  SP5h  1 4.100000e-01    4.040000e+00
   SP6  SP6r  1 4.100000e-01    4.290000e+00
   SP6 SX1er  1 4.100000e-01    1.910000e+00
   SP6 SX2er  1 4.100000e-01    2.040000e+00
   SP6 SX3er  1 4.100000e-01    2.200000e+00
   SP6 SX4er  1 4.100000e-01    2.200000e+00
   SP6 SC1er  1 4.210000e-01    1.250000e+00
   SP6 SC2er  1 4.140000e-01    1.560000e+00
   SP6 SC3er  1 4.140000e-01    1.560000e+00
   SP6 SC4er  1 4.100000e-01    1.750000e+00
   SP6 SC5er  1 4.100000e-01    1.910000e+00
   SP6 SC6er  1 4.100000e-01    2.040000e+00
   SP6 SX1vr  1 4.100000e-01    1.910000e+00
   SP6 SX2vr  1 4.100000e-01    2.040000e+00
   SP6 SX3vr  1 4.100000e-01    2.200000e+00
   SP6 SX4vr  1 4.100000e-01    2.200000e+00
   SP6 SC1vr  1 4.210000e-01    1.250000e+00
   SP6 SC2vr  1 4.140000e-01    1.560000e+00
   SP6 SC3vr  1 4.140000e-01    1.560000e+00
   SP6 SC4vr  1 4.100000e-01    1.750000e+00
   SP6 SC5vr  1 4.100000e-01    1.910000e+00
   SP6 SC6vr  1 4.100000e-01    2.040000e+00
   SP6 SN1ar  1 4.100000e-01    1.910000e+00
   SP6 SN2ar  1 4.100000e-01    2.040000e+00
   SP6 SN3ar  1 4.100000e-01    2.200000e+00
   SP6 SN4ar  1 4.100000e-01    2.350000e+00
   SP6 SN5ar  1 4.100000e-01    2.600000e+00
   SP6 SN6ar  1 4.100000e-01    3.070000e+00
   SP6 SP1ar  1 4.100000e-01    3.310000e+00
   SP6 SP2ar  1 4.100000e-01    3.550000e+00
   SP6 SP3ar  1 4.100000e-01    3.550000e+00
   SP6 SP4ar  1 4.100000e-01    3.820000e+00
   SP6 SP5ar  1 4.100000e-01    4.040000e+00
   SP6 SP6ar  1 4.100000e-01    4.290000e+00
   SP6 SN1dr  1 4.100000e-01    1.910000e+00
   SP6 SN2dr  1 4.100000e-01    2.040000e+00
   SP6 SN3dr  1 4.100000e-01    2.200000e+00
   SP6 SN4dr  1 4.100000e-01    2.350000e+00
   SP6 SN5dr  1 4.100000e-01    2.600000e+00
   SP6 SN6dr  1 4.100000e-01    3.070000e+00
   SP6 SP1dr  1 4.100000e-01    3.310000e+00
   SP6 SP2dr  1 4.100000e-01    3.550000e+00
   SP6 SP3dr  1 4.100000e-01    3.550000e+00
   SP6 SP4dr  1 4.100000e-01    3.820000e+00
   SP6 SP5dr  1 4.100000e-01    4.040000e+00
   SP6 SP6dr  1 4.100000e-01    4.290000e+00
   SP6  SX1r  1 4.100000e-01    1.750000e+00
   SP6  SX2r  1 4.100000e-01    1.910000e+00
   SP6  SX3r  1 4.100000e-01    2.040000e+00
   SP6  SX4r  1 4.100000e-01    2.040000e+00
   SP6  SC1r  1 4.530000e-01    1.150000e+00
   SP6  SC2r  1 4.180000e-01    1.400000e+00
   SP6  SC3r  1 4.180000e-01    1.400000e+00
   SP6  SC4r  1 4.140000e-01    1.560000e+00
   SP6  SC5r  1 4.100000e-01    1.750000e+00
   SP6  SC6r  1 4.100000e-01    1.910000e+00
   SP6  SN1r  1 4.100000e-01    1.910000e+00
   SP6  SN2r  1 4.100000e-01    2.040000e+00
   SP6  SN3r  1 4.100000e-01    2.200000e+00
   SP6  SN4r  1 4.100000e-01    2.350000e+00
   SP6  SN5r  1 4.100000e-01    2.600000e+00
   SP6  SN6r  1 4.100000e-01    3.070000e+00
   SP6  SP1r  1 4.100000e-01    3.310000e+00
   SP6  SP2r  1 4.100000e-01    3.550000e+00
   SP6  SP3r  1 4.100000e-01    3.550000e+00
   SP6  SP4r  1 4.100000e-01    3.820000e+00
   SP6  SP5r  1 4.100000e-01    4.040000e+00
   SP6   TP6  1 3.650000e-01    3.930000e+00
   SP6   TP5  1 3.650000e-01    3.640000e+00
   SP6   TP4  1 3.650000e-01    3.370000e+00
   SP6   TP3  1 3.650000e-01    3.100000e+00
   SP6   TP2  1 3.650000e-01    3.100000e+00
   SP6   TP1  1 3.650000e-01    2.830000e+00
   SP6   TN6  1 3.650000e-01    2.570000e+00
   SP6   TN5  1 3.650000e-01    2.110000e+00
   SP6   TN4  1 3.650000e-01    1.910000e+00
   SP6   TN3  1 3.650000e-01    1.750000e+00
   SP6   TN2  1 3.660000e-01    1.600000e+00
   SP6   TN1  1 3.780000e-01    1.450000e+00
   SP6   TC6  1 3.780000e-01    1.450000e+00
   SP6   TC5  1 3.940000e-01    1.290000e+00
   SP6   TC4  1 4.040000e-01    1.130000e+00
   SP6   TC3  1 4.090000e-01    1.080000e+00
   SP6   TC2  1 4.090000e-01    1.080000e+00
   SP6   TC1  1 4.840000e-01    8.900000e-01
   SP6   TX4  1 3.660000e-01    1.600000e+00
   SP6   TX3  1 3.660000e-01    1.600000e+00
   SP6   TX2  1 3.780000e-01    1.450000e+00
   SP6   TX1  1 3.940000e-01    1.290000e+00
   SP6  TP6d  1 3.650000e-01    3.930000e+00
   SP6  TN1d  1 3.780000e-01    1.450000e+00
   SP6  TN2d  1 3.660000e-01    1.600000e+00
   SP6  TN3d  1 3.650000e-01    1.750000e+00
   SP6  TN4d  1 3.650000e-01    1.910000e+00
   SP6  TN5d  1 3.650000e-01    2.110000e+00
   SP6  TN6d  1 3.650000e-01    2.570000e+00
   SP6  TP1d  1 3.650000e-01    2.830000e+00
   SP6  TP2d  1 3.650000e-01    3.100000e+00
   SP6  TP3d  1 3.650000e-01    3.100000e+00
   SP6  TP4d  1 3.650000e-01    3.370000e+00
   SP6  TP5d  1 3.650000e-01    3.640000e+00
   SP6  TP6a  1 3.650000e-01    3.930000e+00
   SP6  TN1a  1 3.780000e-01    1.450000e+00
   SP6  TN2a  1 3.660000e-01    1.600000e+00
   SP6  TN3a  1 3.650000e-01    1.750000e+00
   SP6  TN4a  1 3.650000e-01    1.910000e+00
   SP6  TN5a  1 3.650000e-01    2.110000e+00
   SP6  TN6a  1 3.650000e-01    2.570000e+00
   SP6  TP1a  1 3.650000e-01    2.830000e+00
   SP6  TP2a  1 3.650000e-01    3.100000e+00
   SP6  TP3a  1 3.650000e-01    3.100000e+00
   SP6  TP4a  1 3.650000e-01    3.370000e+00
   SP6  TP5a  1 3.650000e-01    3.640000e+00
   SP6  TC6v  1 3.660000e-01    1.600000e+00
   SP6  TC5v  1 3.780000e-01    1.450000e+00
   SP6  TC4v  1 3.940000e-01    1.290000e+00
   SP6  TC3v  1 4.040000e-01    1.130000e+00
   SP6  TC2v  1 4.040000e-01    1.130000e+00
   SP6  TC1v  1 4.230000e-01    9.810000e-01
   SP6  TX4v  1 3.650000e-01    1.750000e+00
   SP6  TX3v  1 3.650000e-01    1.750000e+00
   SP6  TX2v  1 3.660000e-01    1.600000e+00
   SP6  TX1v  1 3.780000e-01    1.450000e+00
   SP6  TC6e  1 3.660000e-01    1.600000e+00
   SP6  TC5e  1 3.780000e-01    1.450000e+00
   SP6  TC4e  1 3.940000e-01    1.290000e+00
   SP6  TC3e  1 4.040000e-01    1.130000e+00
   SP6  TC2e  1 4.040000e-01    1.130000e+00
   SP6  TC1e  1 4.230000e-01    9.810000e-01
   SP6  TX4e  1 3.650000e-01    1.750000e+00
   SP6  TX3e  1 3.650000e-01    1.750000e+00
   SP6  TX2e  1 3.660000e-01    1.600000e+00
   SP6  TX1e  1 3.780000e-01    1.450000e+00
   SP6  TP6q  1 3.650000e-01    4.510000e+00
   SP6 TX1eq  1 3.650000e-01    1.750000e+00
   SP6 TX2eq  1 3.650000e-01    1.910000e+00
   SP6 TX3eq  1 3.650000e-01    2.110000e+00
   SP6 TX4eq  1 3.650000e-01    2.110000e+00
   SP6 TC1eq  1 4.040000e-01    1.130000e+00
   SP6 TC2eq  1 3.780000e-01    1.450000e+00
   SP6 TC3eq  1 3.780000e-01    1.450000e+00
   SP6 TC4eq  1 3.660000e-01    1.600000e+00
   SP6 TC5eq  1 3.650000e-01    1.750000e+00
   SP6 TC6eq  1 3.650000e-01    1.910000e+00
   SP6 TX1vq  1 3.650000e-01    1.750000e+00
   SP6 TX2vq  1 3.650000e-01    1.910000e+00
   SP6 TX3vq  1 3.650000e-01    2.110000e+00
   SP6 TX4vq  1 3.650000e-01    2.110000e+00
   SP6 TC1vq  1 4.040000e-01    1.130000e+00
   SP6 TC2vq  1 3.780000e-01    1.450000e+00
   SP6 TC3vq  1 3.780000e-01    1.450000e+00
   SP6 TC4vq  1 3.660000e-01    1.600000e+00
   SP6 TC5vq  1 3.650000e-01    1.750000e+00
   SP6 TC6vq  1 3.650000e-01    1.910000e+00
   SP6 TN1aq  1 3.650000e-01    1.750000e+00
   SP6 TN2aq  1 3.650000e-01    1.910000e+00
   SP6 TN3aq  1 3.650000e-01    2.110000e+00
   SP6 TN4aq  1 3.650000e-01    2.340000e+00
   SP6 TN5aq  1 3.650000e-01    2.570000e+00
   SP6 TN6aq  1 3.650000e-01    3.100000e+00
   SP6 TP1aq  1 3.650000e-01    3.370000e+00
   SP6 TP2aq  1 3.650000e-01    3.640000e+00
   SP6 TP3aq  1 3.650000e-01    3.640000e+00
   SP6 TP4aq  1 3.650000e-01    3.930000e+00
   SP6 TP5aq  1 3.650000e-01    4.220000e+00
   SP6 TP6aq  1 3.650000e-01    4.510000e+00
   SP6 TN1dq  1 3.650000e-01    1.750000e+00
   SP6 TN2dq  1 3.650000e-01    1.910000e+00
   SP6 TN3dq  1 3.650000e-01    2.110000e+00
   SP6 TN4dq  1 3.650000e-01    2.340000e+00
   SP6 TN5dq  1 3.650000e-01    2.570000e+00
   SP6 TN6dq  1 3.650000e-01    3.100000e+00
   SP6 TP1dq  1 3.650000e-01    3.370000e+00
   SP6 TP2dq  1 3.650000e-01    3.640000e+00
   SP6 TP3dq  1 3.650000e-01    3.640000e+00
   SP6 TP4dq  1 3.650000e-01    3.930000e+00
   SP6 TP5dq  1 3.650000e-01    4.220000e+00
   SP6 TP6dq  1 3.650000e-01    4.510000e+00
   SP6  TX1q  1 3.660000e-01    1.600000e+00
   SP6  TX2q  1 3.650000e-01    1.750000e+00
   SP6  TX3q  1 3.650000e-01    1.910000e+00
   SP6  TX4q  1 3.650000e-01    1.910000e+00
   SP6  TC1q  1 4.090000e-01    1.080000e+00
   SP6  TC2q  1 3.940000e-01    1.290000e+00
   SP6  TC3q  1 3.940000e-01    1.290000e+00
   SP6  TC4q  1 3.780000e-01    1.450000e+00
   SP6  TC5q  1 3.660000e-01    1.600000e+00
   SP6  TC6q  1 3.650000e-01    1.750000e+00
   SP6  TN1q  1 3.650000e-01    1.750000e+00
   SP6  TN2q  1 3.650000e-01    1.910000e+00
   SP6  TN3q  1 3.650000e-01    2.110000e+00
   SP6  TN4q  1 3.650000e-01    2.340000e+00
   SP6  TN5q  1 3.650000e-01    2.570000e+00
   SP6  TN6q  1 3.650000e-01    3.100000e+00
   SP6  TP1q  1 3.650000e-01    3.370000e+00
   SP6  TP2q  1 3.650000e-01    3.640000e+00
   SP6  TP3q  1 3.650000e-01    3.640000e+00
   SP6  TP4q  1 3.650000e-01    3.930000e+00
   SP6  TP5q  1 3.650000e-01    4.220000e+00
   SP6  TP6h  1 3.650000e-01    3.930000e+00
   SP6 TX1eh  1 3.780000e-01    1.450000e+00
   SP6 TX2eh  1 3.660000e-01    1.600000e+00
   SP6 TX3eh  1 3.650000e-01    1.750000e+00
   SP6 TX4eh  1 3.650000e-01    1.750000e+00
   SP6 TC1eh  1 4.230000e-01    9.810000e-01
   SP6 TC2eh  1 4.040000e-01    1.130000e+00
   SP6 TC3eh  1 4.040000e-01    1.130000e+00
   SP6 TC4eh  1 3.940000e-01    1.290000e+00
   SP6 TC5eh  1 3.780000e-01    1.450000e+00
   SP6 TC6eh  1 3.660000e-01    1.600000e+00
   SP6 TX1vh  1 3.780000e-01    1.450000e+00
   SP6 TX2vh  1 3.660000e-01    1.600000e+00
   SP6 TX3vh  1 3.650000e-01    1.750000e+00
   SP6 TX4vh  1 3.650000e-01    1.750000e+00
   SP6 TC1vh  1 4.230000e-01    9.810000e-01
   SP6 TC2vh  1 4.040000e-01    1.130000e+00
   SP6 TC3vh  1 4.040000e-01    1.130000e+00
   SP6 TC4vh  1 3.940000e-01    1.290000e+00
   SP6 TC5vh  1 3.780000e-01    1.450000e+00
   SP6 TC6vh  1 3.660000e-01    1.600000e+00
   SP6 TN1ah  1 3.780000e-01    1.450000e+00
   SP6 TN2ah  1 3.660000e-01    1.600000e+00
   SP6 TN3ah  1 3.650000e-01    1.750000e+00
   SP6 TN4ah  1 3.650000e-01    1.910000e+00
   SP6 TN5ah  1 3.650000e-01    2.110000e+00
   SP6 TN6ah  1 3.650000e-01    2.570000e+00
   SP6 TP1ah  1 3.650000e-01    2.830000e+00
   SP6 TP2ah  1 3.650000e-01    3.100000e+00
   SP6 TP3ah  1 3.650000e-01    3.100000e+00
   SP6 TP4ah  1 3.650000e-01    3.370000e+00
   SP6 TP5ah  1 3.650000e-01    3.640000e+00
   SP6 TP6ah  1 3.650000e-01    3.930000e+00
   SP6 TN1dh  1 3.780000e-01    1.450000e+00
   SP6 TN2dh  1 3.660000e-01    1.600000e+00
   SP6 TN3dh  1 3.650000e-01    1.750000e+00
   SP6 TN4dh  1 3.650000e-01    1.910000e+00
   SP6 TN5dh  1 3.650000e-01    2.110000e+00
   SP6 TN6dh  1 3.650000e-01    2.570000e+00
   SP6 TP1dh  1 3.650000e-01    2.830000e+00
   SP6 TP2dh  1 3.650000e-01    3.100000e+00
   SP6 TP3dh  1 3.650000e-01    3.100000e+00
   SP6 TP4dh  1 3.650000e-01    3.370000e+00
   SP6 TP5dh  1 3.650000e-01    3.640000e+00
   SP6 TP6dh  1 3.650000e-01    3.930000e+00
   SP6  TX1h  1 3.940000e-01    1.290000e+00
   SP6  TX2h  1 3.780000e-01    1.450000e+00
   SP6  TX3h  1 3.660000e-01    1.600000e+00
   SP6  TX4h  1 3.660000e-01    1.600000e+00
   SP6  TC1h  1 4.840000e-01    8.900000e-01
   SP6  TC2h  1 4.090000e-01    1.080000e+00
   SP6  TC3h  1 4.090000e-01    1.080000e+00
   SP6  TC4h  1 4.040000e-01    1.130000e+00
   SP6  TC5h  1 3.940000e-01    1.290000e+00
   SP6  TC6h  1 3.780000e-01    1.450000e+00
   SP6  TN1h  1 3.780000e-01    1.450000e+00
   SP6  TN2h  1 3.660000e-01    1.600000e+00
   SP6  TN3h  1 3.650000e-01    1.750000e+00
   SP6  TN4h  1 3.650000e-01    1.910000e+00
   SP6  TN5h  1 3.650000e-01    2.110000e+00
   SP6  TN6h  1 3.650000e-01    2.570000e+00
   SP6  TP1h  1 3.650000e-01    2.830000e+00
   SP6  TP2h  1 3.650000e-01    3.100000e+00
   SP6  TP3h  1 3.650000e-01    3.100000e+00
   SP6  TP4h  1 3.650000e-01    3.370000e+00
   SP6  TP5h  1 3.650000e-01    3.640000e+00
   SP6  TP6r  1 3.650000e-01    3.930000e+00
   SP6 TX1er  1 3.780000e-01    1.450000e+00
   SP6 TX2er  1 3.660000e-01    1.600000e+00
   SP6 TX3er  1 3.650000e-01    1.750000e+00
   SP6 TX4er  1 3.650000e-01    1.750000e+00
   SP6 TC1er  1 4.230000e-01    9.810000e-01
   SP6 TC2er  1 4.040000e-01    1.130000e+00
   SP6 TC3er  1 4.040000e-01    1.130000e+00
   SP6 TC4er  1 3.940000e-01    1.290000e+00
   SP6 TC5er  1 3.780000e-01    1.450000e+00
   SP6 TC6er  1 3.660000e-01    1.600000e+00
   SP6 TX1vr  1 3.780000e-01    1.450000e+00
   SP6 TX2vr  1 3.660000e-01    1.600000e+00
   SP6 TX3vr  1 3.650000e-01    1.750000e+00
   SP6 TX4vr  1 3.650000e-01    1.750000e+00
   SP6 TC1vr  1 4.230000e-01    9.810000e-01
   SP6 TC2vr  1 4.040000e-01    1.130000e+00
   SP6 TC3vr  1 4.040000e-01    1.130000e+00
   SP6 TC4vr  1 3.940000e-01    1.290000e+00
   SP6 TC5vr  1 3.780000e-01    1.450000e+00
   SP6 TC6vr  1 3.660000e-01    1.600000e+00
   SP6 TN1ar  1 3.780000e-01    1.450000e+00
   SP6 TN2ar  1 3.660000e-01    1.600000e+00
   SP6 TN3ar  1 3.650000e-01    1.750000e+00
   SP6 TN4ar  1 3.650000e-01    1.910000e+00
   SP6 TN5ar  1 3.650000e-01    2.110000e+00
   SP6 TN6ar  1 3.650000e-01    2.570000e+00
   SP6 TP1ar  1 3.650000e-01    2.830000e+00
   SP6 TP2ar  1 3.650000e-01    3.100000e+00
   SP6 TP3ar  1 3.650000e-01    3.100000e+00
   SP6 TP4ar  1 3.650000e-01    3.370000e+00
   SP6 TP5ar  1 3.650000e-01    3.640000e+00
   SP6 TP6ar  1 3.650000e-01    3.930000e+00
   SP6 TN1dr  1 3.780000e-01    1.450000e+00
   SP6 TN2dr  1 3.660000e-01    1.600000e+00
   SP6 TN3dr  1 3.650000e-01    1.750000e+00
   SP6 TN4dr  1 3.650000e-01    1.910000e+00
   SP6 TN5dr  1 3.650000e-01    2.110000e+00
   SP6 TN6dr  1 3.650000e-01    2.570000e+00
   SP6 TP1dr  1 3.650000e-01    2.830000e+00
   SP6 TP2dr  1 3.650000e-01    3.100000e+00
   SP6 TP3dr  1 3.650000e-01    3.100000e+00
   SP6 TP4dr  1 3.650000e-01    3.370000e+00
   SP6 TP5dr  1 3.650000e-01    3.640000e+00
   SP6 TP6dr  1 3.650000e-01    3.930000e+00
   SP6  TX1r  1 3.940000e-01    1.290000e+00
   SP6  TX2r  1 3.780000e-01    1.450000e+00
   SP6  TX3r  1 3.660000e-01    1.600000e+00
   SP6  TX4r  1 3.660000e-01    1.600000e+00
   SP6  TC1r  1 4.840000e-01    8.900000e-01
   SP6  TC2r  1 4.090000e-01    1.080000e+00
   SP6  TC3r  1 4.090000e-01    1.080000e+00
   SP6  TC4r  1 4.040000e-01    1.130000e+00
   SP6  TC5r  1 3.940000e-01    1.290000e+00
   SP6  TC6r  1 3.780000e-01    1.450000e+00
   SP6  TN1r  1 3.780000e-01    1.450000e+00
   SP6  TN2r  1 3.660000e-01    1.600000e+00
   SP6  TN3r  1 3.650000e-01    1.750000e+00
   SP6  TN4r  1 3.650000e-01    1.910000e+00
   SP6  TN5r  1 3.650000e-01    2.110000e+00
   SP6  TN6r  1 3.650000e-01    2.570000e+00
   SP6  TP1r  1 3.650000e-01    2.830000e+00
   SP6  TP2r  1 3.650000e-01    3.100000e+00
   SP6  TP3r  1 3.650000e-01    3.100000e+00
   SP6  TP4r  1 3.650000e-01    3.370000e+00
   SP6  TP5r  1 3.650000e-01    3.640000e+00
   TP6    P5  1 3.950000e-01    3.910000e+00
   TP6    P4  1 3.950000e-01    3.670000e+00
   TP6    P3  1 3.950000e-01    3.430000e+00
   TP6    P2  1 3.950000e-01    3.430000e+00
   TP6    P1  1 3.950000e-01    3.190000e+00
   TP6    N6  1 3.950000e-01    2.940000e+00
   TP6    N5  1 3.950000e-01    2.500000e+00
   TP6    N4  1 3.950000e-01    2.310000e+00
   TP6    N3  1 3.950000e-01    2.110000e+00
   TP6    N2  1 3.950000e-01    1.850000e+00
   TP6    N1  1 3.950000e-01    1.670000e+00
   TP6    C6  1 3.950000e-01    1.670000e+00
   TP6    C5  1 3.980000e-01    1.450000e+00
   TP6    C4  1 3.990000e-01    1.180000e+00
   TP6    C3  1 4.010000e-01    9.830000e-01
   TP6    C2  1 4.010000e-01    9.830000e-01
   TP6    C1  1 4.650000e-01    7.030000e-01
   TP6    X4  1 3.950000e-01    1.850000e+00
   TP6    X3  1 3.950000e-01    1.850000e+00
   TP6    X2  1 3.950000e-01    1.670000e+00
   TP6    X1  1 3.980000e-01    1.450000e+00
   TP6   P6d  1 3.950000e-01    4.230000e+00
   TP6   N1d  1 3.950000e-01    1.670000e+00
   TP6   N2d  1 3.950000e-01    1.850000e+00
   TP6   N3d  1 3.950000e-01    2.110000e+00
   TP6   N4d  1 3.950000e-01    2.310000e+00
   TP6   N5d  1 3.950000e-01    2.500000e+00
   TP6   N6d  1 3.950000e-01    2.940000e+00
   TP6   P1d  1 3.950000e-01    3.190000e+00
   TP6   P2d  1 3.950000e-01    3.430000e+00
   TP6   P3d  1 3.950000e-01    3.430000e+00
   TP6   P4d  1 3.950000e-01    3.670000e+00
   TP6   P5d  1 3.950000e-01    3.910000e+00
   TP6   P6a  1 3.950000e-01    4.230000e+00
   TP6   N1a  1 3.950000e-01    1.670000e+00
   TP6   N2a  1 3.950000e-01    1.850000e+00
   TP6   N3a  1 3.950000e-01    2.110000e+00
   TP6   N4a  1 3.950000e-01    2.310000e+00
   TP6   N5a  1 3.950000e-01    2.500000e+00
   TP6   N6a  1 3.950000e-01    2.940000e+00
   TP6   P1a  1 3.950000e-01    3.190000e+00
   TP6   P2a  1 3.950000e-01    3.430000e+00
   TP6   P3a  1 3.950000e-01    3.430000e+00
   TP6   P4a  1 3.950000e-01    3.670000e+00
   TP6   P5a  1 3.950000e-01    3.910000e+00
   TP6   C6v  1 3.950000e-01    1.850000e+00
   TP6   C5v  1 3.950000e-01    1.670000e+00
   TP6   C4v  1 3.980000e-01    1.450000e+00
   TP6   C3v  1 3.990000e-01    1.180000e+00
   TP6   C2v  1 3.990000e-01    1.180000e+00
   TP6   C1v  1 4.040000e-01    8.300000e-01
   TP6   X4v  1 3.950000e-01    2.110000e+00
   TP6   X3v  1 3.950000e-01    2.110000e+00
   TP6   X2v  1 3.950000e-01    1.850000e+00
   TP6   X1v  1 3.950000e-01    1.670000e+00
   TP6   C6e  1 3.950000e-01    1.850000e+00
   TP6   C5e  1 3.950000e-01    1.670000e+00
   TP6   C4e  1 3.980000e-01    1.450000e+00
   TP6   C3e  1 3.990000e-01    1.180000e+00
   TP6   C2e  1 3.990000e-01    1.180000e+00
   TP6   C1e  1 4.040000e-01    8.300000e-01
   TP6   X4e  1 3.950000e-01    2.110000e+00
   TP6   X3e  1 3.950000e-01    2.110000e+00
   TP6   X2e  1 3.950000e-01    1.850000e+00
   TP6   X1e  1 3.950000e-01    1.670000e+00
   TP6   P6q  1 3.950000e-01    4.870000e+00
   TP6  X1eq  1 3.950000e-01    2.110000e+00
   TP6  X2eq  1 3.950000e-01    2.310000e+00
   TP6  X3eq  1 3.950000e-01    2.500000e+00
   TP6  X4eq  1 3.950000e-01    2.500000e+00
   TP6  C1eq  1 3.990000e-01    1.180000e+00
   TP6  C2eq  1 3.950000e-01    1.670000e+00
   TP6  C3eq  1 3.950000e-01    1.670000e+00
   TP6  C4eq  1 3.950000e-01    1.850000e+00
   TP6  C5eq  1 3.950000e-01    2.110000e+00
   TP6  C6eq  1 3.950000e-01    2.310000e+00
   TP6  X1vq  1 3.950000e-01    2.110000e+00
   TP6  X2vq  1 3.950000e-01    2.310000e+00
   TP6  X3vq  1 3.950000e-01    2.500000e+00
   TP6  X4vq  1 3.950000e-01    2.500000e+00
   TP6  C1vq  1 3.990000e-01    1.180000e+00
   TP6  C2vq  1 3.950000e-01    1.670000e+00
   TP6  C3vq  1 3.950000e-01    1.670000e+00
   TP6  C4vq  1 3.950000e-01    1.850000e+00
   TP6  C5vq  1 3.950000e-01    2.110000e+00
   TP6  C6vq  1 3.950000e-01    2.310000e+00
   TP6  N1aq  1 3.950000e-01    2.110000e+00
   TP6  N2aq  1 3.950000e-01    2.310000e+00
   TP6  N3aq  1 3.950000e-01    2.500000e+00
   TP6  N4aq  1 3.950000e-01    2.700000e+00
   TP6  N5aq  1 3.950000e-01    2.940000e+00
   TP6  N6aq  1 3.950000e-01    3.430000e+00
   TP6  P1aq  1 3.950000e-01    3.670000e+00
   TP6  P2aq  1 3.950000e-01    3.910000e+00
   TP6  P3aq  1 3.950000e-01    3.910000e+00
   TP6  P4aq  1 3.950000e-01    4.230000e+00
   TP6  P5aq  1 3.950000e-01    4.540000e+00
   TP6  P6aq  1 3.950000e-01    4.870000e+00
   TP6  N1dq  1 3.950000e-01    2.110000e+00
   TP6  N2dq  1 3.950000e-01    2.310000e+00
   TP6  N3dq  1 3.950000e-01    2.500000e+00
   TP6  N4dq  1 3.950000e-01    2.700000e+00
   TP6  N5dq  1 3.950000e-01    2.940000e+00
   TP6  N6dq  1 3.950000e-01    3.430000e+00
   TP6  P1dq  1 3.950000e-01    3.670000e+00
   TP6  P2dq  1 3.950000e-01    3.910000e+00
   TP6  P3dq  1 3.950000e-01    3.910000e+00
   TP6  P4dq  1 3.950000e-01    4.230000e+00
   TP6  P5dq  1 3.950000e-01    4.540000e+00
   TP6  P6dq  1 3.950000e-01    4.870000e+00
   TP6   X1q  1 3.950000e-01    1.850000e+00
   TP6   X2q  1 3.950000e-01    2.110000e+00
   TP6   X3q  1 3.950000e-01    2.310000e+00
   TP6   X4q  1 3.950000e-01    2.310000e+00
   TP6   C1q  1 4.010000e-01    9.830000e-01
   TP6   C2q  1 3.980000e-01    1.450000e+00
   TP6   C3q  1 3.980000e-01    1.450000e+00
   TP6   C4q  1 3.950000e-01    1.670000e+00
   TP6   C5q  1 3.950000e-01    1.850000e+00
   TP6   C6q  1 3.950000e-01    2.110000e+00
   TP6   N1q  1 3.950000e-01    2.110000e+00
   TP6   N2q  1 3.950000e-01    2.310000e+00
   TP6   N3q  1 3.950000e-01    2.500000e+00
   TP6   N4q  1 3.950000e-01    2.700000e+00
   TP6   N5q  1 3.950000e-01    2.940000e+00
   TP6   N6q  1 3.950000e-01    3.430000e+00
   TP6   P1q  1 3.950000e-01    3.670000e+00
   TP6   P2q  1 3.950000e-01    3.910000e+00
   TP6   P3q  1 3.950000e-01    3.910000e+00
   TP6   P4q  1 3.950000e-01    4.230000e+00
   TP6   P5q  1 3.950000e-01    4.540000e+00
   TP6   P6h  1 3.950000e-01    4.230000e+00
   TP6  X1eh  1 3.950000e-01    1.670000e+00
   TP6  X2eh  1 3.950000e-01    1.850000e+00
   TP6  X3eh  1 3.950000e-01    2.110000e+00
   TP6  X4eh  1 3.950000e-01    2.110000e+00
   TP6  C1eh  1 4.040000e-01    8.300000e-01
   TP6  C2eh  1 3.990000e-01    1.180000e+00
   TP6  C3eh  1 3.990000e-01    1.180000e+00
   TP6  C4eh  1 3.980000e-01    1.450000e+00
   TP6  C5eh  1 3.950000e-01    1.670000e+00
   TP6  C6eh  1 3.950000e-01    1.850000e+00
   TP6  X1vh  1 3.950000e-01    1.670000e+00
   TP6  X2vh  1 3.950000e-01    1.850000e+00
   TP6  X3vh  1 3.950000e-01    2.110000e+00
   TP6  X4vh  1 3.950000e-01    2.110000e+00
   TP6  C1vh  1 4.040000e-01    8.300000e-01
   TP6  C2vh  1 3.990000e-01    1.180000e+00
   TP6  C3vh  1 3.990000e-01    1.180000e+00
   TP6  C4vh  1 3.980000e-01    1.450000e+00
   TP6  C5vh  1 3.950000e-01    1.670000e+00
   TP6  C6vh  1 3.950000e-01    1.850000e+00
   TP6  N1ah  1 3.950000e-01    1.670000e+00
   TP6  N2ah  1 3.950000e-01    1.850000e+00
   TP6  N3ah  1 3.950000e-01    2.110000e+00
   TP6  N4ah  1 3.950000e-01    2.310000e+00
   TP6  N5ah  1 3.950000e-01    2.500000e+00
   TP6  N6ah  1 3.950000e-01    2.940000e+00
   TP6  P1ah  1 3.950000e-01    3.190000e+00
   TP6  P2ah  1 3.950000e-01    3.430000e+00
   TP6  P3ah  1 3.950000e-01    3.430000e+00
   TP6  P4ah  1 3.950000e-01    3.670000e+00
   TP6  P5ah  1 3.950000e-01    3.910000e+00
   TP6  P6ah  1 3.950000e-01    4.230000e+00
   TP6  N1dh  1 3.950000e-01    1.670000e+00
   TP6  N2dh  1 3.950000e-01    1.850000e+00
   TP6  N3dh  1 3.950000e-01    2.110000e+00
   TP6  N4dh  1 3.950000e-01    2.310000e+00
   TP6  N5dh  1 3.950000e-01    2.500000e+00
   TP6  N6dh  1 3.950000e-01    2.940000e+00
   TP6  P1dh  1 3.950000e-01    3.190000e+00
   TP6  P2dh  1 3.950000e-01    3.430000e+00
   TP6  P3dh  1 3.950000e-01    3.430000e+00
   TP6  P4dh  1 3.950000e-01    3.670000e+00
   TP6  P5dh  1 3.950000e-01    3.910000e+00
   TP6  P6dh  1 3.950000e-01    4.230000e+00
   TP6   X1h  1 3.980000e-01    1.450000e+00
   TP6   X2h  1 3.950000e-01    1.670000e+00
   TP6   X3h  1 3.950000e-01    1.850000e+00
   TP6   X4h  1 3.950000e-01    1.850000e+00
   TP6   C1h  1 4.650000e-01    7.030000e-01
   TP6   C2h  1 4.010000e-01    9.830000e-01
   TP6   C3h  1 4.010000e-01    9.830000e-01
   TP6   C4h  1 3.990000e-01    1.180000e+00
   TP6   C5h  1 3.980000e-01    1.450000e+00
   TP6   C6h  1 3.950000e-01    1.670000e+00
   TP6   N1h  1 3.950000e-01    1.670000e+00
   TP6   N2h  1 3.950000e-01    1.850000e+00
   TP6   N3h  1 3.950000e-01    2.110000e+00
   TP6   N4h  1 3.950000e-01    2.310000e+00
   TP6   N5h  1 3.950000e-01    2.500000e+00
   TP6   N6h  1 3.950000e-01    2.940000e+00
   TP6   P1h  1 3.950000e-01    3.190000e+00
   TP6   P2h  1 3.950000e-01    3.430000e+00
   TP6   P3h  1 3.950000e-01    3.430000e+00
   TP6   P4h  1 3.950000e-01    3.670000e+00
   TP6   P5h  1 3.950000e-01    3.910000e+00
   TP6   P6r  1 3.950000e-01    4.230000e+00
   TP6  X1er  1 3.950000e-01    1.670000e+00
   TP6  X2er  1 3.950000e-01    1.850000e+00
   TP6  X3er  1 3.950000e-01    2.110000e+00
   TP6  X4er  1 3.950000e-01    2.110000e+00
   TP6  C1er  1 4.040000e-01    8.300000e-01
   TP6  C2er  1 3.990000e-01    1.180000e+00
   TP6  C3er  1 3.990000e-01    1.180000e+00
   TP6  C4er  1 3.980000e-01    1.450000e+00
   TP6  C5er  1 3.950000e-01    1.670000e+00
   TP6  C6er  1 3.950000e-01    1.850000e+00
   TP6  X1vr  1 3.950000e-01    1.670000e+00
   TP6  X2vr  1 3.950000e-01    1.850000e+00
   TP6  X3vr  1 3.950000e-01    2.110000e+00
   TP6  X4vr  1 3.950000e-01    2.110000e+00
   TP6  C1vr  1 4.040000e-01    8.300000e-01
   TP6  C2vr  1 3.990000e-01    1.180000e+00
   TP6  C3vr  1 3.990000e-01    1.180000e+00
   TP6  C4vr  1 3.980000e-01    1.450000e+00
   TP6  C5vr  1 3.950000e-01    1.670000e+00
   TP6  C6vr  1 3.950000e-01    1.850000e+00
   TP6  N1ar  1 3.950000e-01    1.670000e+00
   TP6  N2ar  1 3.950000e-01    1.850000e+00
   TP6  N3ar  1 3.950000e-01    2.110000e+00
   TP6  N4ar  1 3.950000e-01    2.310000e+00
   TP6  N5ar  1 3.950000e-01    2.500000e+00
   TP6  N6ar  1 3.950000e-01    2.940000e+00
   TP6  P1ar  1 3.950000e-01    3.190000e+00
   TP6  P2ar  1 3.950000e-01    3.430000e+00
   TP6  P3ar  1 3.950000e-01    3.430000e+00
   TP6  P4ar  1 3.950000e-01    3.670000e+00
   TP6  P5ar  1 3.950000e-01    3.910000e+00
   TP6  P6ar  1 3.950000e-01    4.230000e+00
   TP6  N1dr  1 3.950000e-01    1.670000e+00
   TP6  N2dr  1 3.950000e-01    1.850000e+00
   TP6  N3dr  1 3.950000e-01    2.110000e+00
   TP6  N4dr  1 3.950000e-01    2.310000e+00
   TP6  N5dr  1 3.950000e-01    2.500000e+00
   TP6  N6dr  1 3.950000e-01    2.940000e+00
   TP6  P1dr  1 3.950000e-01    3.190000e+00
   TP6  P2dr  1 3.950000e-01    3.430000e+00
   TP6  P3dr  1 3.950000e-01    3.430000e+00
   TP6  P4dr  1 3.950000e-01    3.670000e+00
   TP6  P5dr  1 3.950000e-01    3.910000e+00
   TP6  P6dr  1 3.950000e-01    4.230000e+00
   TP6   X1r  1 3.980000e-01    1.450000e+00
   TP6   X2r  1 3.950000e-01    1.670000e+00
   TP6   X3r  1 3.950000e-01    1.850000e+00
   TP6   X4r  1 3.950000e-01    1.850000e+00
   TP6   C1r  1 4.650000e-01    7.030000e-01
   TP6   C2r  1 4.010000e-01    9.830000e-01
   TP6   C3r  1 4.010000e-01    9.830000e-01
   TP6   C4r  1 3.990000e-01    1.180000e+00
   TP6   C5r  1 3.980000e-01    1.450000e+00
   TP6   C6r  1 3.950000e-01    1.670000e+00
   TP6   N1r  1 3.950000e-01    1.670000e+00
   TP6   N2r  1 3.950000e-01    1.850000e+00
   TP6   N3r  1 3.950000e-01    2.110000e+00
   TP6   N4r  1 3.950000e-01    2.310000e+00
   TP6   N5r  1 3.950000e-01    2.500000e+00
   TP6   N6r  1 3.950000e-01    2.940000e+00
   TP6   P1r  1 3.950000e-01    3.190000e+00
   TP6   P2r  1 3.950000e-01    3.430000e+00
   TP6   P3r  1 3.950000e-01    3.430000e+00
   TP6   P4r  1 3.950000e-01    3.670000e+00
   TP6   P5r  1 3.950000e-01    3.910000e+00
   TP6   TP6  1 3.400000e-01    3.470000e+00
   TP6   TP5  1 3.400000e-01    3.220000e+00
   TP6   TP4  1 3.400000e-01    2.990000e+00
   TP6   TP3  1 3.400000e-01    2.740000e+00
   TP6   TP2  1 3.400000e-01    2.740000e+00
   TP6   TP1  1 3.400000e-01    2.500000e+00
   TP6   TN6  1 3.400000e-01    2.280000e+00
   TP6   TN5  1 3.400000e-01    1.770000e+00
   TP6   TN4  1 3.400000e-01    1.510000e+00
   TP6   TN3  1 3.400000e-01    1.230000e+00
   TP6   TN2  1 3.520000e-01    1.050000e+00
   TP6   TN1  1 3.660000e-01    9.350000e-01
   TP6   TC6  1 3.660000e-01    9.350000e-01
   TP6   TC5  1 3.850000e-01    8.550000e-01
   TP6   TC4  1 4.110000e-01    8.010000e-01
   TP6   TC3  1 4.240000e-01    7.760000e-01
   TP6   TC2  1 4.240000e-01    7.760000e-01
   TP6   TC1  1 5.050000e-01    6.800000e-01
   TP6   TX4  1 3.520000e-01    1.050000e+00
   TP6   TX3  1 3.520000e-01    1.050000e+00
   TP6   TX2  1 3.660000e-01    9.350000e-01
   TP6   TX1  1 3.850000e-01    8.550000e-01
   TP6  TP6d  1 3.400000e-01    3.470000e+00
   TP6  TN1d  1 3.660000e-01    9.350000e-01
   TP6  TN2d  1 3.520000e-01    1.050000e+00
   TP6  TN3d  1 3.400000e-01    1.230000e+00
   TP6  TN4d  1 3.400000e-01    1.510000e+00
   TP6  TN5d  1 3.400000e-01    1.770000e+00
   TP6  TN6d  1 3.400000e-01    2.280000e+00
   TP6  TP1d  1 3.400000e-01    2.500000e+00
   TP6  TP2d  1 3.400000e-01    2.740000e+00
   TP6  TP3d  1 3.400000e-01    2.740000e+00
   TP6  TP4d  1 3.400000e-01    2.990000e+00
   TP6  TP5d  1 3.400000e-01    3.220000e+00
   TP6  TP6a  1 3.400000e-01    3.470000e+00
   TP6  TN1a  1 3.660000e-01    9.350000e-01
   TP6  TN2a  1 3.520000e-01    1.050000e+00
   TP6  TN3a  1 3.400000e-01    1.230000e+00
   TP6  TN4a  1 3.400000e-01    1.510000e+00
   TP6  TN5a  1 3.400000e-01    1.770000e+00
   TP6  TN6a  1 3.400000e-01    2.280000e+00
   TP6  TP1a  1 3.400000e-01    2.500000e+00
   TP6  TP2a  1 3.400000e-01    2.740000e+00
   TP6  TP3a  1 3.400000e-01    2.740000e+00
   TP6  TP4a  1 3.400000e-01    2.990000e+00
   TP6  TP5a  1 3.400000e-01    3.220000e+00
   TP6  TC6v  1 3.520000e-01    1.050000e+00
   TP6  TC5v  1 3.660000e-01    9.350000e-01
   TP6  TC4v  1 3.850000e-01    8.550000e-01
   TP6  TC3v  1 4.110000e-01    8.010000e-01
   TP6  TC2v  1 4.110000e-01    8.010000e-01
   TP6  TC1v  1 4.380000e-01    7.310000e-01
   TP6  TX4v  1 3.400000e-01    1.230000e+00
   TP6  TX3v  1 3.400000e-01    1.230000e+00
   TP6  TX2v  1 3.520000e-01    1.050000e+00
   TP6  TX1v  1 3.660000e-01    9.350000e-01
   TP6  TC6e  1 3.520000e-01    1.050000e+00
   TP6  TC5e  1 3.660000e-01    9.350000e-01
   TP6  TC4e  1 3.850000e-01    8.550000e-01
   TP6  TC3e  1 4.110000e-01    8.010000e-01
   TP6  TC2e  1 4.110000e-01    8.010000e-01
   TP6  TC1e  1 4.380000e-01    7.310000e-01
   TP6  TX4e  1 3.400000e-01    1.230000e+00
   TP6  TX3e  1 3.400000e-01    1.230000e+00
   TP6  TX2e  1 3.520000e-01    1.050000e+00
   TP6  TX1e  1 3.660000e-01    9.350000e-01
   TP6  TP6q  1 3.400000e-01    4.020000e+00
   TP6 TX1eq  1 3.400000e-01    1.230000e+00
   TP6 TX2eq  1 3.400000e-01    1.510000e+00
   TP6 TX3eq  1 3.400000e-01    1.770000e+00
   TP6 TX4eq  1 3.400000e-01    1.770000e+00
   TP6 TC1eq  1 4.110000e-01    8.010000e-01
   TP6 TC2eq  1 3.660000e-01    9.350000e-01
   TP6 TC3eq  1 3.660000e-01    9.350000e-01
   TP6 TC4eq  1 3.520000e-01    1.050000e+00
   TP6 TC5eq  1 3.400000e-01    1.230000e+00
   TP6 TC6eq  1 3.400000e-01    1.510000e+00
   TP6 TX1vq  1 3.400000e-01    1.230000e+00
   TP6 TX2vq  1 3.400000e-01    1.510000e+00
   TP6 TX3vq  1 3.400000e-01    1.770000e+00
   TP6 TX4vq  1 3.400000e-01    1.770000e+00
   TP6 TC1vq  1 4.110000e-01    8.010000e-01
   TP6 TC2vq  1 3.660000e-01    9.350000e-01
   TP6 TC3vq  1 3.660000e-01    9.350000e-01
   TP6 TC4vq  1 3.520000e-01    1.050000e+00
   TP6 TC5vq  1 3.400000e-01    1.230000e+00
   TP6 TC6vq  1 3.400000e-01    1.510000e+00
   TP6 TN1aq  1 3.400000e-01    1.230000e+00
   TP6 TN2aq  1 3.400000e-01    1.510000e+00
   TP6 TN3aq  1 3.400000e-01    1.770000e+00
   TP6 TN4aq  1 3.400000e-01    2.020000e+00
   TP6 TN5aq  1 3.400000e-01    2.280000e+00
   TP6 TN6aq  1 3.400000e-01    2.740000e+00
   TP6 TP1aq  1 3.400000e-01    2.990000e+00
   TP6 TP2aq  1 3.400000e-01    3.220000e+00
   TP6 TP3aq  1 3.400000e-01    3.220000e+00
   TP6 TP4aq  1 3.400000e-01    3.470000e+00
   TP6 TP5aq  1 3.400000e-01    3.750000e+00
   TP6 TP6aq  1 3.400000e-01    4.020000e+00
   TP6 TN1dq  1 3.400000e-01    1.230000e+00
   TP6 TN2dq  1 3.400000e-01    1.510000e+00
   TP6 TN3dq  1 3.400000e-01    1.770000e+00
   TP6 TN4dq  1 3.400000e-01    2.020000e+00
   TP6 TN5dq  1 3.400000e-01    2.280000e+00
   TP6 TN6dq  1 3.400000e-01    2.740000e+00
   TP6 TP1dq  1 3.400000e-01    2.990000e+00
   TP6 TP2dq  1 3.400000e-01    3.220000e+00
   TP6 TP3dq  1 3.400000e-01    3.220000e+00
   TP6 TP4dq  1 3.400000e-01    3.470000e+00
   TP6 TP5dq  1 3.400000e-01    3.750000e+00
   TP6 TP6dq  1 3.400000e-01    4.020000e+00
   TP6  TX1q  1 3.520000e-01    1.050000e+00
   TP6  TX2q  1 3.400000e-01    1.230000e+00
   TP6  TX3q  1 3.400000e-01    1.510000e+00
   TP6  TX4q  1 3.400000e-01    1.510000e+00
   TP6  TC1q  1 4.240000e-01    7.760000e-01
   TP6  TC2q  1 3.850000e-01    8.550000e-01
   TP6  TC3q  1 3.850000e-01    8.550000e-01
   TP6  TC4q  1 3.660000e-01    9.350000e-01
   TP6  TC5q  1 3.520000e-01    1.050000e+00
   TP6  TC6q  1 3.400000e-01    1.230000e+00
   TP6  TN1q  1 3.400000e-01    1.230000e+00
   TP6  TN2q  1 3.400000e-01    1.510000e+00
   TP6  TN3q  1 3.400000e-01    1.770000e+00
   TP6  TN4q  1 3.400000e-01    2.020000e+00
   TP6  TN5q  1 3.400000e-01    2.280000e+00
   TP6  TN6q  1 3.400000e-01    2.740000e+00
   TP6  TP1q  1 3.400000e-01    2.990000e+00
   TP6  TP2q  1 3.400000e-01    3.220000e+00
   TP6  TP3q  1 3.400000e-01    3.220000e+00
   TP6  TP4q  1 3.400000e-01    3.470000e+00
   TP6  TP5q  1 3.400000e-01    3.750000e+00
   TP6  TP6h  1 3.400000e-01    3.470000e+00
   TP6 TX1eh  1 3.660000e-01    9.350000e-01
   TP6 TX2eh  1 3.520000e-01    1.050000e+00
   TP6 TX3eh  1 3.400000e-01    1.230000e+00
   TP6 TX4eh  1 3.400000e-01    1.230000e+00
   TP6 TC1eh  1 4.380000e-01    7.310000e-01
   TP6 TC2eh  1 4.110000e-01    8.010000e-01
   TP6 TC3eh  1 4.110000e-01    8.010000e-01
   TP6 TC4eh  1 3.850000e-01    8.550000e-01
   TP6 TC5eh  1 3.660000e-01    9.350000e-01
   TP6 TC6eh  1 3.520000e-01    1.050000e+00
   TP6 TX1vh  1 3.660000e-01    9.350000e-01
   TP6 TX2vh  1 3.520000e-01    1.050000e+00
   TP6 TX3vh  1 3.400000e-01    1.230000e+00
   TP6 TX4vh  1 3.400000e-01    1.230000e+00
   TP6 TC1vh  1 4.380000e-01    7.310000e-01
   TP6 TC2vh  1 4.110000e-01    8.010000e-01
   TP6 TC3vh  1 4.110000e-01    8.010000e-01
   TP6 TC4vh  1 3.850000e-01    8.550000e-01
   TP6 TC5vh  1 3.660000e-01    9.350000e-01
   TP6 TC6vh  1 3.520000e-01    1.050000e+00
   TP6 TN1ah  1 3.660000e-01    9.350000e-01
   TP6 TN2ah  1 3.520000e-01    1.050000e+00
   TP6 TN3ah  1 3.400000e-01    1.230000e+00
   TP6 TN4ah  1 3.400000e-01    1.510000e+00
   TP6 TN5ah  1 3.400000e-01    1.770000e+00
   TP6 TN6ah  1 3.400000e-01    2.280000e+00
   TP6 TP1ah  1 3.400000e-01    2.500000e+00
   TP6 TP2ah  1 3.400000e-01    2.740000e+00
   TP6 TP3ah  1 3.400000e-01    2.740000e+00
   TP6 TP4ah  1 3.400000e-01    2.990000e+00
   TP6 TP5ah  1 3.400000e-01    3.220000e+00
   TP6 TP6ah  1 3.400000e-01    3.470000e+00
   TP6 TN1dh  1 3.660000e-01    9.350000e-01
   TP6 TN2dh  1 3.520000e-01    1.050000e+00
   TP6 TN3dh  1 3.400000e-01    1.230000e+00
   TP6 TN4dh  1 3.400000e-01    1.510000e+00
   TP6 TN5dh  1 3.400000e-01    1.770000e+00
   TP6 TN6dh  1 3.400000e-01    2.280000e+00
   TP6 TP1dh  1 3.400000e-01    2.500000e+00
   TP6 TP2dh  1 3.400000e-01    2.740000e+00
   TP6 TP3dh  1 3.400000e-01    2.740000e+00
   TP6 TP4dh  1 3.400000e-01    2.990000e+00
   TP6 TP5dh  1 3.400000e-01    3.220000e+00
   TP6 TP6dh  1 3.400000e-01    3.470000e+00
   TP6  TX1h  1 3.850000e-01    8.550000e-01
   TP6  TX2h  1 3.660000e-01    9.350000e-01
   TP6  TX3h  1 3.520000e-01    1.050000e+00
   TP6  TX4h  1 3.520000e-01    1.050000e+00
   TP6  TC1h  1 5.050000e-01    6.800000e-01
   TP6  TC2h  1 4.240000e-01    7.760000e-01
   TP6  TC3h  1 4.240000e-01    7.760000e-01
   TP6  TC4h  1 4.110000e-01    8.010000e-01
   TP6  TC5h  1 3.850000e-01    8.550000e-01
   TP6  TC6h  1 3.660000e-01    9.350000e-01
   TP6  TN1h  1 3.660000e-01    9.350000e-01
   TP6  TN2h  1 3.520000e-01    1.050000e+00
   TP6  TN3h  1 3.400000e-01    1.230000e+00
   TP6  TN4h  1 3.400000e-01    1.510000e+00
   TP6  TN5h  1 3.400000e-01    1.770000e+00
   TP6  TN6h  1 3.400000e-01    2.280000e+00
   TP6  TP1h  1 3.400000e-01    2.500000e+00
   TP6  TP2h  1 3.400000e-01    2.740000e+00
   TP6  TP3h  1 3.400000e-01    2.740000e+00
   TP6  TP4h  1 3.400000e-01    2.990000e+00
   TP6  TP5h  1 3.400000e-01    3.220000e+00
   TP6  TP6r  1 3.400000e-01    3.470000e+00
   TP6 TX1er  1 3.660000e-01    9.350000e-01
   TP6 TX2er  1 3.520000e-01    1.050000e+00
   TP6 TX3er  1 3.400000e-01    1.230000e+00
   TP6 TX4er  1 3.400000e-01    1.230000e+00
   TP6 TC1er  1 4.380000e-01    7.310000e-01
   TP6 TC2er  1 4.110000e-01    8.010000e-01
   TP6 TC3er  1 4.110000e-01    8.010000e-01
   TP6 TC4er  1 3.850000e-01    8.550000e-01
   TP6 TC5er  1 3.660000e-01    9.350000e-01
   TP6 TC6er  1 3.520000e-01    1.050000e+00
   TP6 TX1vr  1 3.660000e-01    9.350000e-01
   TP6 TX2vr  1 3.520000e-01    1.050000e+00
   TP6 TX3vr  1 3.400000e-01    1.230000e+00
   TP6 TX4vr  1 3.400000e-01    1.230000e+00
   TP6 TC1vr  1 4.380000e-01    7.310000e-01
   TP6 TC2vr  1 4.110000e-01    8.010000e-01
   TP6 TC3vr  1 4.110000e-01    8.010000e-01
   TP6 TC4vr  1 3.850000e-01    8.550000e-01
   TP6 TC5vr  1 3.660000e-01    9.350000e-01
   TP6 TC6vr  1 3.520000e-01    1.050000e+00
   TP6 TN1ar  1 3.660000e-01    9.350000e-01
   TP6 TN2ar  1 3.520000e-01    1.050000e+00
   TP6 TN3ar  1 3.400000e-01    1.230000e+00
   TP6 TN4ar  1 3.400000e-01    1.510000e+00
   TP6 TN5ar  1 3.400000e-01    1.770000e+00
   TP6 TN6ar  1 3.400000e-01    2.280000e+00
   TP6 TP1ar  1 3.400000e-01    2.500000e+00
   TP6 TP2ar  1 3.400000e-01    2.740000e+00
   TP6 TP3ar  1 3.400000e-01    2.740000e+00
   TP6 TP4ar  1 3.400000e-01    2.990000e+00
   TP6 TP5ar  1 3.400000e-01    3.220000e+00
   TP6 TP6ar  1 3.400000e-01    3.470000e+00
   TP6 TN1dr  1 3.660000e-01    9.350000e-01
   TP6 TN2dr  1 3.520000e-01    1.050000e+00
   TP6 TN3dr  1 3.400000e-01    1.230000e+00
   TP6 TN4dr  1 3.400000e-01    1.510000e+00
   TP6 TN5dr  1 3.400000e-01    1.770000e+00
   TP6 TN6dr  1 3.400000e-01    2.280000e+00
   TP6 TP1dr  1 3.400000e-01    2.500000e+00
   TP6 TP2dr  1 3.400000e-01    2.740000e+00
   TP6 TP3dr  1 3.400000e-01    2.740000e+00
   TP6 TP4dr  1 3.400000e-01    2.990000e+00
   TP6 TP5dr  1 3.400000e-01    3.220000e+00
   TP6 TP6dr  1 3.400000e-01    3.470000e+00
   TP6  TX1r  1 3.850000e-01    8.550000e-01
   TP6  TX2r  1 3.660000e-01    9.350000e-01
   TP6  TX3r  1 3.520000e-01    1.050000e+00
   TP6  TX4r  1 3.520000e-01    1.050000e+00
   TP6  TC1r  1 5.050000e-01    6.800000e-01
   TP6  TC2r  1 4.240000e-01    7.760000e-01
   TP6  TC3r  1 4.240000e-01    7.760000e-01
   TP6  TC4r  1 4.110000e-01    8.010000e-01
   TP6  TC5r  1 3.850000e-01    8.550000e-01
   TP6  TC6r  1 3.660000e-01    9.350000e-01
   TP6  TN1r  1 3.660000e-01    9.350000e-01
   TP6  TN2r  1 3.520000e-01    1.050000e+00
   TP6  TN3r  1 3.400000e-01    1.230000e+00
   TP6  TN4r  1 3.400000e-01    1.510000e+00
   TP6  TN5r  1 3.400000e-01    1.770000e+00
   TP6  TN6r  1 3.400000e-01    2.280000e+00
   TP6  TP1r  1 3.400000e-01    2.500000e+00
   TP6  TP2r  1 3.400000e-01    2.740000e+00
   TP6  TP3r  1 3.400000e-01    2.740000e+00
   TP6  TP4r  1 3.400000e-01    2.990000e+00
   TP6  TP5r  1 3.400000e-01    3.220000e+00
   TP6   SP5  1 3.650000e-01    3.640000e+00
   TP6   SP4  1 3.650000e-01    3.370000e+00
   TP6   SP3  1 3.650000e-01    3.100000e+00
   TP6   SP2  1 3.650000e-01    3.100000e+00
   TP6   SP1  1 3.650000e-01    2.830000e+00
   TP6   SN6  1 3.650000e-01    2.570000e+00
   TP6   SN5  1 3.650000e-01    2.110000e+00
   TP6   SN4  1 3.650000e-01    1.910000e+00
   TP6   SN3  1 3.650000e-01    1.750000e+00
   TP6   SN2  1 3.660000e-01    1.600000e+00
   TP6   SN1  1 3.780000e-01    1.450000e+00
   TP6   SC6  1 3.780000e-01    1.450000e+00
   TP6   SC5  1 3.940000e-01    1.290000e+00
   TP6   SC4  1 4.040000e-01    1.130000e+00
   TP6   SC3  1 4.090000e-01    1.080000e+00
   TP6   SC2  1 4.090000e-01    1.080000e+00
   TP6   SC1  1 4.840000e-01    8.900000e-01
   TP6   SX4  1 3.660000e-01    1.600000e+00
   TP6   SX3  1 3.660000e-01    1.600000e+00
   TP6   SX2  1 3.780000e-01    1.450000e+00
   TP6   SX1  1 3.940000e-01    1.290000e+00
   TP6  SP6d  1 3.650000e-01    3.930000e+00
   TP6  SN1d  1 3.780000e-01    1.450000e+00
   TP6  SN2d  1 3.660000e-01    1.600000e+00
   TP6  SN3d  1 3.650000e-01    1.750000e+00
   TP6  SN4d  1 3.650000e-01    1.910000e+00
   TP6  SN5d  1 3.650000e-01    2.110000e+00
   TP6  SN6d  1 3.650000e-01    2.570000e+00
   TP6  SP1d  1 3.650000e-01    2.830000e+00
   TP6  SP2d  1 3.650000e-01    3.100000e+00
   TP6  SP3d  1 3.650000e-01    3.100000e+00
   TP6  SP4d  1 3.650000e-01    3.370000e+00
   TP6  SP5d  1 3.650000e-01    3.640000e+00
   TP6  SP6a  1 3.650000e-01    3.930000e+00
   TP6  SN1a  1 3.780000e-01    1.450000e+00
   TP6  SN2a  1 3.660000e-01    1.600000e+00
   TP6  SN3a  1 3.650000e-01    1.750000e+00
   TP6  SN4a  1 3.650000e-01    1.910000e+00
   TP6  SN5a  1 3.650000e-01    2.110000e+00
   TP6  SN6a  1 3.650000e-01    2.570000e+00
   TP6  SP1a  1 3.650000e-01    2.830000e+00
   TP6  SP2a  1 3.650000e-01    3.100000e+00
   TP6  SP3a  1 3.650000e-01    3.100000e+00
   TP6  SP4a  1 3.650000e-01    3.370000e+00
   TP6  SP5a  1 3.650000e-01    3.640000e+00
   TP6  SC6v  1 3.660000e-01    1.600000e+00
   TP6  SC5v  1 3.780000e-01    1.450000e+00
   TP6  SC4v  1 3.940000e-01    1.290000e+00
   TP6  SC3v  1 4.040000e-01    1.130000e+00
   TP6  SC2v  1 4.040000e-01    1.130000e+00
   TP6  SC1v  1 4.230000e-01    9.810000e-01
   TP6  SX4v  1 3.650000e-01    1.750000e+00
   TP6  SX3v  1 3.650000e-01    1.750000e+00
   TP6  SX2v  1 3.660000e-01    1.600000e+00
   TP6  SX1v  1 3.780000e-01    1.450000e+00
   TP6  SC6e  1 3.660000e-01    1.600000e+00
   TP6  SC5e  1 3.780000e-01    1.450000e+00
   TP6  SC4e  1 3.940000e-01    1.290000e+00
   TP6  SC3e  1 4.040000e-01    1.130000e+00
   TP6  SC2e  1 4.040000e-01    1.130000e+00
   TP6  SC1e  1 4.230000e-01    9.810000e-01
   TP6  SX4e  1 3.650000e-01    1.750000e+00
   TP6  SX3e  1 3.650000e-01    1.750000e+00
   TP6  SX2e  1 3.660000e-01    1.600000e+00
   TP6  SX1e  1 3.780000e-01    1.450000e+00
   TP6  SP6q  1 3.650000e-01    4.510000e+00
   TP6 SX1eq  1 3.650000e-01    1.750000e+00
   TP6 SX2eq  1 3.650000e-01    1.910000e+00
   TP6 SX3eq  1 3.650000e-01    2.110000e+00
   TP6 SX4eq  1 3.650000e-01    2.110000e+00
   TP6 SC1eq  1 4.040000e-01    1.130000e+00
   TP6 SC2eq  1 3.780000e-01    1.450000e+00
   TP6 SC3eq  1 3.780000e-01    1.450000e+00
   TP6 SC4eq  1 3.660000e-01    1.600000e+00
   TP6 SC5eq  1 3.650000e-01    1.750000e+00
   TP6 SC6eq  1 3.650000e-01    1.910000e+00
   TP6 SX1vq  1 3.650000e-01    1.750000e+00
   TP6 SX2vq  1 3.650000e-01    1.910000e+00
   TP6 SX3vq  1 3.650000e-01    2.110000e+00
   TP6 SX4vq  1 3.650000e-01    2.110000e+00
   TP6 SC1vq  1 4.040000e-01    1.130000e+00
   TP6 SC2vq  1 3.780000e-01    1.450000e+00
   TP6 SC3vq  1 3.780000e-01    1.450000e+00
   TP6 SC4vq  1 3.660000e-01    1.600000e+00
   TP6 SC5vq  1 3.650000e-01    1.750000e+00
   TP6 SC6vq  1 3.650000e-01    1.910000e+00
   TP6 SN1aq  1 3.650000e-01    1.750000e+00
   TP6 SN2aq  1 3.650000e-01    1.910000e+00
   TP6 SN3aq  1 3.650000e-01    2.110000e+00
   TP6 SN4aq  1 3.650000e-01    2.340000e+00
   TP6 SN5aq  1 3.650000e-01    2.570000e+00
   TP6 SN6aq  1 3.650000e-01    3.100000e+00
   TP6 SP1aq  1 3.650000e-01    3.370000e+00
   TP6 SP2aq  1 3.650000e-01    3.640000e+00
   TP6 SP3aq  1 3.650000e-01    3.640000e+00
   TP6 SP4aq  1 3.650000e-01    3.930000e+00
   TP6 SP5aq  1 3.650000e-01    4.220000e+00
   TP6 SP6aq  1 3.650000e-01    4.510000e+00
   TP6 SN1dq  1 3.650000e-01    1.750000e+00
   TP6 SN2dq  1 3.650000e-01    1.910000e+00
   TP6 SN3dq  1 3.650000e-01    2.110000e+00
   TP6 SN4dq  1 3.650000e-01    2.340000e+00
   TP6 SN5dq  1 3.650000e-01    2.570000e+00
   TP6 SN6dq  1 3.650000e-01    3.100000e+00
   TP6 SP1dq  1 3.650000e-01    3.370000e+00
   TP6 SP2dq  1 3.650000e-01    3.640000e+00
   TP6 SP3dq  1 3.650000e-01    3.640000e+00
   TP6 SP4dq  1 3.650000e-01    3.930000e+00
   TP6 SP5dq  1 3.650000e-01    4.220000e+00
   TP6 SP6dq  1 3.650000e-01    4.510000e+00
   TP6  SX1q  1 3.660000e-01    1.600000e+00
   TP6  SX2q  1 3.650000e-01    1.750000e+00
   TP6  SX3q  1 3.650000e-01    1.910000e+00
   TP6  SX4q  1 3.650000e-01    1.910000e+00
   TP6  SC1q  1 4.090000e-01    1.080000e+00
   TP6  SC2q  1 3.940000e-01    1.290000e+00
   TP6  SC3q  1 3.940000e-01    1.290000e+00
   TP6  SC4q  1 3.780000e-01    1.450000e+00
   TP6  SC5q  1 3.660000e-01    1.600000e+00
   TP6  SC6q  1 3.650000e-01    1.750000e+00
   TP6  SN1q  1 3.650000e-01    1.750000e+00
   TP6  SN2q  1 3.650000e-01    1.910000e+00
   TP6  SN3q  1 3.650000e-01    2.110000e+00
   TP6  SN4q  1 3.650000e-01    2.340000e+00
   TP6  SN5q  1 3.650000e-01    2.570000e+00
   TP6  SN6q  1 3.650000e-01    3.100000e+00
   TP6  SP1q  1 3.650000e-01    3.370000e+00
   TP6  SP2q  1 3.650000e-01    3.640000e+00
   TP6  SP3q  1 3.650000e-01    3.640000e+00
   TP6  SP4q  1 3.650000e-01    3.930000e+00
   TP6  SP5q  1 3.650000e-01    4.220000e+00
   TP6  SP6h  1 3.650000e-01    3.930000e+00
   TP6 SX1eh  1 3.780000e-01    1.450000e+00
   TP6 SX2eh  1 3.660000e-01    1.600000e+00
   TP6 SX3eh  1 3.650000e-01    1.750000e+00
   TP6 SX4eh  1 3.650000e-01    1.750000e+00
   TP6 SC1eh  1 4.230000e-01    9.810000e-01
   TP6 SC2eh  1 4.040000e-01    1.130000e+00
   TP6 SC3eh  1 4.040000e-01    1.130000e+00
   TP6 SC4eh  1 3.940000e-01    1.290000e+00
   TP6 SC5eh  1 3.780000e-01    1.450000e+00
   TP6 SC6eh  1 3.660000e-01    1.600000e+00
   TP6 SX1vh  1 3.780000e-01    1.450000e+00
   TP6 SX2vh  1 3.660000e-01    1.600000e+00
   TP6 SX3vh  1 3.650000e-01    1.750000e+00
   TP6 SX4vh  1 3.650000e-01    1.750000e+00
   TP6 SC1vh  1 4.230000e-01    9.810000e-01
   TP6 SC2vh  1 4.040000e-01    1.130000e+00
   TP6 SC3vh  1 4.040000e-01    1.130000e+00
   TP6 SC4vh  1 3.940000e-01    1.290000e+00
   TP6 SC5vh  1 3.780000e-01    1.450000e+00
   TP6 SC6vh  1 3.660000e-01    1.600000e+00
   TP6 SN1ah  1 3.780000e-01    1.450000e+00
   TP6 SN2ah  1 3.660000e-01    1.600000e+00
   TP6 SN3ah  1 3.650000e-01    1.750000e+00
   TP6 SN4ah  1 3.650000e-01    1.910000e+00
   TP6 SN5ah  1 3.650000e-01    2.110000e+00
   TP6 SN6ah  1 3.650000e-01    2.570000e+00
   TP6 SP1ah  1 3.650000e-01    2.830000e+00
   TP6 SP2ah  1 3.650000e-01    3.100000e+00
   TP6 SP3ah  1 3.650000e-01    3.100000e+00
   TP6 SP4ah  1 3.650000e-01    3.370000e+00
   TP6 SP5ah  1 3.650000e-01    3.640000e+00
   TP6 SP6ah  1 3.650000e-01    3.930000e+00
   TP6 SN1dh  1 3.780000e-01    1.450000e+00
   TP6 SN2dh  1 3.660000e-01    1.600000e+00
   TP6 SN3dh  1 3.650000e-01    1.750000e+00
   TP6 SN4dh  1 3.650000e-01    1.910000e+00
   TP6 SN5dh  1 3.650000e-01    2.110000e+00
   TP6 SN6dh  1 3.650000e-01    2.570000e+00
   TP6 SP1dh  1 3.650000e-01    2.830000e+00
   TP6 SP2dh  1 3.650000e-01    3.100000e+00
   TP6 SP3dh  1 3.650000e-01    3.100000e+00
   TP6 SP4dh  1 3.650000e-01    3.370000e+00
   TP6 SP5dh  1 3.650000e-01    3.640000e+00
   TP6 SP6dh  1 3.650000e-01    3.930000e+00
   TP6  SX1h  1 3.940000e-01    1.290000e+00
   TP6  SX2h  1 3.780000e-01    1.450000e+00
   TP6  SX3h  1 3.660000e-01    1.600000e+00
   TP6  SX4h  1 3.660000e-01    1.600000e+00
   TP6  SC1h  1 4.840000e-01    8.900000e-01
   TP6  SC2h  1 4.090000e-01    1.080000e+00
   TP6  SC3h  1 4.090000e-01    1.080000e+00
   TP6  SC4h  1 4.040000e-01    1.130000e+00
   TP6  SC5h  1 3.940000e-01    1.290000e+00
   TP6  SC6h  1 3.780000e-01    1.450000e+00
   TP6  SN1h  1 3.780000e-01    1.450000e+00
   TP6  SN2h  1 3.660000e-01    1.600000e+00
   TP6  SN3h  1 3.650000e-01    1.750000e+00
   TP6  SN4h  1 3.650000e-01    1.910000e+00
   TP6  SN5h  1 3.650000e-01    2.110000e+00
   TP6  SN6h  1 3.650000e-01    2.570000e+00
   TP6  SP1h  1 3.650000e-01    2.830000e+00
   TP6  SP2h  1 3.650000e-01    3.100000e+00
   TP6  SP3h  1 3.650000e-01    3.100000e+00
   TP6  SP4h  1 3.650000e-01    3.370000e+00
   TP6  SP5h  1 3.650000e-01    3.640000e+00
   TP6  SP6r  1 3.650000e-01    3.930000e+00
   TP6 SX1er  1 3.780000e-01    1.450000e+00
   TP6 SX2er  1 3.660000e-01    1.600000e+00
   TP6 SX3er  1 3.650000e-01    1.750000e+00
   TP6 SX4er  1 3.650000e-01    1.750000e+00
   TP6 SC1er  1 4.230000e-01    9.810000e-01
   TP6 SC2er  1 4.040000e-01    1.130000e+00
   TP6 SC3er  1 4.040000e-01    1.130000e+00
   TP6 SC4er  1 3.940000e-01    1.290000e+00
   TP6 SC5er  1 3.780000e-01    1.450000e+00
   TP6 SC6er  1 3.660000e-01    1.600000e+00
   TP6 SX1vr  1 3.780000e-01    1.450000e+00
   TP6 SX2vr  1 3.660000e-01    1.600000e+00
   TP6 SX3vr  1 3.650000e-01    1.750000e+00
   TP6 SX4vr  1 3.650000e-01    1.750000e+00
   TP6 SC1vr  1 4.230000e-01    9.810000e-01
   TP6 SC2vr  1 4.040000e-01    1.130000e+00
   TP6 SC3vr  1 4.040000e-01    1.130000e+00
   TP6 SC4vr  1 3.940000e-01    1.290000e+00
   TP6 SC5vr  1 3.780000e-01    1.450000e+00
   TP6 SC6vr  1 3.660000e-01    1.600000e+00
   TP6 SN1ar  1 3.780000e-01    1.450000e+00
   TP6 SN2ar  1 3.660000e-01    1.600000e+00
   TP6 SN3ar  1 3.650000e-01    1.750000e+00
   TP6 SN4ar  1 3.650000e-01    1.910000e+00
   TP6 SN5ar  1 3.650000e-01    2.110000e+00
   TP6 SN6ar  1 3.650000e-01    2.570000e+00
   TP6 SP1ar  1 3.650000e-01    2.830000e+00
   TP6 SP2ar  1 3.650000e-01    3.100000e+00
   TP6 SP3ar  1 3.650000e-01    3.100000e+00
   TP6 SP4ar  1 3.650000e-01    3.370000e+00
   TP6 SP5ar  1 3.650000e-01    3.640000e+00
   TP6 SP6ar  1 3.650000e-01    3.930000e+00
   TP6 SN1dr  1 3.780000e-01    1.450000e+00
   TP6 SN2dr  1 3.660000e-01    1.600000e+00
   TP6 SN3dr  1 3.650000e-01    1.750000e+00
   TP6 SN4dr  1 3.650000e-01    1.910000e+00
   TP6 SN5dr  1 3.650000e-01    2.110000e+00
   TP6 SN6dr  1 3.650000e-01    2.570000e+00
   TP6 SP1dr  1 3.650000e-01    2.830000e+00
   TP6 SP2dr  1 3.650000e-01    3.100000e+00
   TP6 SP3dr  1 3.650000e-01    3.100000e+00
   TP6 SP4dr  1 3.650000e-01    3.370000e+00
   TP6 SP5dr  1 3.650000e-01    3.640000e+00
   TP6 SP6dr  1 3.650000e-01    3.930000e+00
   TP6  SX1r  1 3.940000e-01    1.290000e+00
   TP6  SX2r  1 3.780000e-01    1.450000e+00
   TP6  SX3r  1 3.660000e-01    1.600000e+00
   TP6  SX4r  1 3.660000e-01    1.600000e+00
   TP6  SC1r  1 4.840000e-01    8.900000e-01
   TP6  SC2r  1 4.090000e-01    1.080000e+00
   TP6  SC3r  1 4.090000e-01    1.080000e+00
   TP6  SC4r  1 4.040000e-01    1.130000e+00
   TP6  SC5r  1 3.940000e-01    1.290000e+00
   TP6  SC6r  1 3.780000e-01    1.450000e+00
   TP6  SN1r  1 3.780000e-01    1.450000e+00
   TP6  SN2r  1 3.660000e-01    1.600000e+00
   TP6  SN3r  1 3.650000e-01    1.750000e+00
   TP6  SN4r  1 3.650000e-01    1.910000e+00
   TP6  SN5r  1 3.650000e-01    2.110000e+00
   TP6  SN6r  1 3.650000e-01    2.570000e+00
   TP6  SP1r  1 3.650000e-01    2.830000e+00
   TP6  SP2r  1 3.650000e-01    3.100000e+00
   TP6  SP3r  1 3.650000e-01    3.100000e+00
   TP6  SP4r  1 3.650000e-01    3.370000e+00
   TP6  SP5r  1 3.650000e-01    3.640000e+00
    P5    P5  1 4.700000e-01    4.480000e+00
    P5    P4  1 4.700000e-01    4.250000e+00
    P5    P3  1 4.700000e-01    4.060000e+00
    P5    P2  1 4.700000e-01    4.060000e+00
    P5    P1  1 4.700000e-01    3.880000e+00
    P5    N6  1 4.700000e-01    3.690000e+00
    P5    N5  1 4.700000e-01    3.520000e+00
    P5    N4  1 4.700000e-01    3.520000e+00
    P5    N3  1 4.700000e-01    3.240000e+00
    P5    N2  1 4.700000e-01    3.070000e+00
    P5    N1  1 4.700000e-01    2.960000e+00
    P5    C6  1 4.700000e-01    2.960000e+00
    P5    C5  1 4.700000e-01    2.960000e+00
    P5    C4  1 4.700000e-01    2.790000e+00
    P5    C3  1 4.700000e-01    2.620000e+00
    P5    C2  1 4.700000e-01    2.620000e+00
    P5    C1  1 4.700000e-01    2.440000e+00
    P5    X4  1 4.700000e-01    3.240000e+00
    P5    X3  1 4.700000e-01    3.070000e+00
    P5    X2  1 4.700000e-01    3.070000e+00
    P5    X1  1 4.700000e-01    2.790000e+00
   P6d    P5  1 4.700000e-01    4.730000e+00
    P5   P5d  1 4.700000e-01    4.480000e+00
    P5   N1d  1 4.700000e-01    2.960000e+00
    P5   N2d  1 4.700000e-01    3.070000e+00
    P5   N3d  1 4.700000e-01    3.240000e+00
    P5   N4d  1 4.700000e-01    3.520000e+00
    P5   N5d  1 4.700000e-01    3.520000e+00
    P5   N6d  1 4.700000e-01    3.690000e+00
    P5   P1d  1 4.700000e-01    3.880000e+00
    P5   P2d  1 4.700000e-01    4.060000e+00
    P5   P3d  1 4.700000e-01    4.060000e+00
    P5   P4d  1 4.700000e-01    4.250000e+00
   P6a    P5  1 4.700000e-01    4.730000e+00
    P5   P5a  1 4.700000e-01    4.480000e+00
    P5   N1a  1 4.700000e-01    2.960000e+00
    P5   N2a  1 4.700000e-01    3.070000e+00
    P5   N3a  1 4.700000e-01    3.240000e+00
    P5   N4a  1 4.700000e-01    3.520000e+00
    P5   N5a  1 4.700000e-01    3.520000e+00
    P5   N6a  1 4.700000e-01    3.690000e+00
    P5   P1a  1 4.700000e-01    3.880000e+00
    P5   P2a  1 4.700000e-01    4.060000e+00
    P5   P3a  1 4.700000e-01    4.060000e+00
    P5   P4a  1 4.700000e-01    4.250000e+00
    P5   C6v  1 4.700000e-01    3.070000e+00
    P5   C5v  1 4.700000e-01    3.070000e+00
    P5   C4v  1 4.700000e-01    2.960000e+00
    P5   C3v  1 4.700000e-01    2.790000e+00
    P5   C2v  1 4.700000e-01    2.790000e+00
    P5   C1v  1 4.700000e-01    2.620000e+00
    P5   X4v  1 4.700000e-01    3.390000e+00
    P5   X3v  1 4.700000e-01    3.240000e+00
    P5   X2v  1 4.700000e-01    3.240000e+00
    P5   X1v  1 4.700000e-01    2.960000e+00
    P5   C6e  1 4.700000e-01    3.070000e+00
    P5   C5e  1 4.700000e-01    3.070000e+00
    P5   C4e  1 4.700000e-01    2.960000e+00
    P5   C3e  1 4.700000e-01    2.790000e+00
    P5   C2e  1 4.700000e-01    2.790000e+00
    P5   C1e  1 4.700000e-01    2.620000e+00
    P5   X4e  1 4.700000e-01    3.390000e+00
    P5   X3e  1 4.700000e-01    3.240000e+00
    P5   X2e  1 4.700000e-01    3.240000e+00
    P5   X1e  1 4.700000e-01    2.960000e+00
   P6q    P5  1 4.700000e-01    5.240000e+00
    P5   P5q  1 4.700000e-01    4.990000e+00
    P5  X1eq  1 4.700000e-01    3.240000e+00
    P5  X2eq  1 4.700000e-01    3.520000e+00
    P5  X3eq  1 4.700000e-01    3.520000e+00
    P5  X4eq  1 4.700000e-01    3.690000e+00
    P5  C1eq  1 4.700000e-01    2.960000e+00
    P5  C2eq  1 4.700000e-01    3.070000e+00
    P5  C3eq  1 4.700000e-01    3.070000e+00
    P5  C4eq  1 4.700000e-01    3.240000e+00
    P5  C5eq  1 4.700000e-01    3.390000e+00
    P5  C6eq  1 4.700000e-01    3.390000e+00
    P5  X1vq  1 4.700000e-01    3.240000e+00
    P5  X2vq  1 4.700000e-01    3.520000e+00
    P5  X3vq  1 4.700000e-01    3.520000e+00
    P5  X4vq  1 4.700000e-01    3.690000e+00
    P5  C1vq  1 4.700000e-01    2.960000e+00
    P5  C2vq  1 4.700000e-01    3.070000e+00
    P5  C3vq  1 4.700000e-01    3.070000e+00
    P5  C4vq  1 4.700000e-01    3.240000e+00
    P5  C5vq  1 4.700000e-01    3.390000e+00
    P5  C6vq  1 4.700000e-01    3.390000e+00
    P5  N1aq  1 4.700000e-01    3.240000e+00
    P5  N2aq  1 4.700000e-01    3.390000e+00
    P5  N3aq  1 4.700000e-01    3.520000e+00
    P5  N4aq  1 4.700000e-01    3.880000e+00
    P5  N5aq  1 4.700000e-01    3.880000e+00
    P5  N6aq  1 4.700000e-01    4.060000e+00
    P5  P1aq  1 4.700000e-01    4.250000e+00
    P5  P2aq  1 4.700000e-01    4.480000e+00
    P5  P3aq  1 4.700000e-01    4.480000e+00
    P5  P4aq  1 4.700000e-01    4.730000e+00
    P5  P5aq  1 4.700000e-01    4.990000e+00
  P6aq    P5  1 4.700000e-01    5.240000e+00
    P5  N1dq  1 4.700000e-01    3.240000e+00
    P5  N2dq  1 4.700000e-01    3.390000e+00
    P5  N3dq  1 4.700000e-01    3.520000e+00
    P5  N4dq  1 4.700000e-01    3.880000e+00
    P5  N5dq  1 4.700000e-01    3.880000e+00
    P5  N6dq  1 4.700000e-01    4.060000e+00
    P5  P1dq  1 4.700000e-01    4.250000e+00
    P5  P2dq  1 4.700000e-01    4.480000e+00
    P5  P3dq  1 4.700000e-01    4.480000e+00
    P5  P4dq  1 4.700000e-01    4.730000e+00
    P5  P5dq  1 4.700000e-01    4.990000e+00
  P6dq    P5  1 4.700000e-01    5.240000e+00
    P5   X1q  1 4.700000e-01    3.070000e+00
    P5   X2q  1 4.700000e-01    3.390000e+00
    P5   X3q  1 4.700000e-01    3.390000e+00
    P5   X4q  1 4.700000e-01    3.520000e+00
    P5   C1q  1 4.700000e-01    2.790000e+00
    P5   C2q  1 4.700000e-01    2.960000e+00
    P5   C3q  1 4.700000e-01    2.960000e+00
    P5   C4q  1 4.700000e-01    3.070000e+00
    P5   C5q  1 4.700000e-01    3.240000e+00
    P5   C6q  1 4.700000e-01    3.240000e+00
    P5   N1q  1 4.700000e-01    3.240000e+00
    P5   N2q  1 4.700000e-01    3.390000e+00
    P5   N3q  1 4.700000e-01    3.520000e+00
    P5   N4q  1 4.700000e-01    3.880000e+00
    P5   N5q  1 4.700000e-01    3.880000e+00
    P5   N6q  1 4.700000e-01    4.060000e+00
    P5   P1q  1 4.700000e-01    4.250000e+00
    P5   P2q  1 4.700000e-01    4.480000e+00
    P5   P3q  1 4.700000e-01    4.480000e+00
    P5   P4q  1 4.700000e-01    4.730000e+00
   P6h    P5  1 4.700000e-01    4.730000e+00
    P5   P5h  1 4.700000e-01    4.480000e+00
    P5  X1eh  1 4.700000e-01    2.960000e+00
    P5  X2eh  1 4.700000e-01    3.240000e+00
    P5  X3eh  1 4.700000e-01    3.240000e+00
    P5  X4eh  1 4.700000e-01    3.390000e+00
    P5  C1eh  1 4.700000e-01    2.620000e+00
    P5  C2eh  1 4.700000e-01    2.790000e+00
    P5  C3eh  1 4.700000e-01    2.790000e+00
    P5  C4eh  1 4.700000e-01    2.960000e+00
    P5  C5eh  1 4.700000e-01    3.070000e+00
    P5  C6eh  1 4.700000e-01    3.070000e+00
    P5  X1vh  1 4.700000e-01    2.960000e+00
    P5  X2vh  1 4.700000e-01    3.240000e+00
    P5  X3vh  1 4.700000e-01    3.240000e+00
    P5  X4vh  1 4.700000e-01    3.390000e+00
    P5  C1vh  1 4.700000e-01    2.620000e+00
    P5  C2vh  1 4.700000e-01    2.790000e+00
    P5  C3vh  1 4.700000e-01    2.790000e+00
    P5  C4vh  1 4.700000e-01    2.960000e+00
    P5  C5vh  1 4.700000e-01    3.070000e+00
    P5  C6vh  1 4.700000e-01    3.070000e+00
    P5  N1ah  1 4.700000e-01    2.960000e+00
    P5  N2ah  1 4.700000e-01    3.070000e+00
    P5  N3ah  1 4.700000e-01    3.240000e+00
    P5  N4ah  1 4.700000e-01    3.520000e+00
    P5  N5ah  1 4.700000e-01    3.520000e+00
    P5  N6ah  1 4.700000e-01    3.690000e+00
    P5  P1ah  1 4.700000e-01    3.880000e+00
    P5  P2ah  1 4.700000e-01    4.060000e+00
    P5  P3ah  1 4.700000e-01    4.060000e+00
    P5  P4ah  1 4.700000e-01    4.250000e+00
    P5  P5ah  1 4.700000e-01    4.480000e+00
  P6ah    P5  1 4.700000e-01    4.730000e+00
    P5  N1dh  1 4.700000e-01    2.960000e+00
    P5  N2dh  1 4.700000e-01    3.070000e+00
    P5  N3dh  1 4.700000e-01    3.240000e+00
    P5  N4dh  1 4.700000e-01    3.520000e+00
    P5  N5dh  1 4.700000e-01    3.520000e+00
    P5  N6dh  1 4.700000e-01    3.690000e+00
    P5  P1dh  1 4.700000e-01    3.880000e+00
    P5  P2dh  1 4.700000e-01    4.060000e+00
    P5  P3dh  1 4.700000e-01    4.060000e+00
    P5  P4dh  1 4.700000e-01    4.250000e+00
    P5  P5dh  1 4.700000e-01    4.480000e+00
  P6dh    P5  1 4.700000e-01    4.730000e+00
    P5   X1h  1 4.700000e-01    2.790000e+00
    P5   X2h  1 4.700000e-01    3.070000e+00
    P5   X3h  1 4.700000e-01    3.070000e+00
    P5   X4h  1 4.700000e-01    3.240000e+00
    P5   C1h  1 4.700000e-01    2.440000e+00
    P5   C2h  1 4.700000e-01    2.620000e+00
    P5   C3h  1 4.700000e-01    2.620000e+00
    P5   C4h  1 4.700000e-01    2.790000e+00
    P5   C5h  1 4.700000e-01    2.960000e+00
    P5   C6h  1 4.700000e-01    2.960000e+00
    P5   N1h  1 4.700000e-01    2.960000e+00
    P5   N2h  1 4.700000e-01    3.070000e+00
    P5   N3h  1 4.700000e-01    3.240000e+00
    P5   N4h  1 4.700000e-01    3.520000e+00
    P5   N5h  1 4.700000e-01    3.520000e+00
    P5   N6h  1 4.700000e-01    3.690000e+00
    P5   P1h  1 4.700000e-01    3.880000e+00
    P5   P2h  1 4.700000e-01    4.060000e+00
    P5   P3h  1 4.700000e-01    4.060000e+00
    P5   P4h  1 4.700000e-01    4.250000e+00
   P6r    P5  1 4.700000e-01    4.730000e+00
    P5   P5r  1 4.700000e-01    4.480000e+00
    P5  X1er  1 4.700000e-01    2.960000e+00
    P5  X2er  1 4.700000e-01    3.240000e+00
    P5  X3er  1 4.700000e-01    3.240000e+00
    P5  X4er  1 4.700000e-01    3.390000e+00
    P5  C1er  1 4.700000e-01    2.620000e+00
    P5  C2er  1 4.700000e-01    2.790000e+00
    P5  C3er  1 4.700000e-01    2.790000e+00
    P5  C4er  1 4.700000e-01    2.960000e+00
    P5  C5er  1 4.700000e-01    3.070000e+00
    P5  C6er  1 4.700000e-01    3.070000e+00
    P5  X1vr  1 4.700000e-01    2.960000e+00
    P5  X2vr  1 4.700000e-01    3.240000e+00
    P5  X3vr  1 4.700000e-01    3.240000e+00
    P5  X4vr  1 4.700000e-01    3.390000e+00
    P5  C1vr  1 4.700000e-01    2.620000e+00
    P5  C2vr  1 4.700000e-01    2.790000e+00
    P5  C3vr  1 4.700000e-01    2.790000e+00
    P5  C4vr  1 4.700000e-01    2.960000e+00
    P5  C5vr  1 4.700000e-01    3.070000e+00
    P5  C6vr  1 4.700000e-01    3.070000e+00
    P5  N1ar  1 4.700000e-01    2.960000e+00
    P5  N2ar  1 4.700000e-01    3.070000e+00
    P5  N3ar  1 4.700000e-01    3.240000e+00
    P5  N4ar  1 4.700000e-01    3.520000e+00
    P5  N5ar  1 4.700000e-01    3.520000e+00
    P5  N6ar  1 4.700000e-01    3.690000e+00
    P5  P1ar  1 4.700000e-01    3.880000e+00
    P5  P2ar  1 4.700000e-01    4.060000e+00
    P5  P3ar  1 4.700000e-01    4.060000e+00
    P5  P4ar  1 4.700000e-01    4.250000e+00
    P5  P5ar  1 4.700000e-01    4.480000e+00
  P6ar    P5  1 4.700000e-01    4.730000e+00
    P5  N1dr  1 4.700000e-01    2.960000e+00
    P5  N2dr  1 4.700000e-01    3.070000e+00
    P5  N3dr  1 4.700000e-01    3.240000e+00
    P5  N4dr  1 4.700000e-01    3.520000e+00
    P5  N5dr  1 4.700000e-01    3.520000e+00
    P5  N6dr  1 4.700000e-01    3.690000e+00
    P5  P1dr  1 4.700000e-01    3.880000e+00
    P5  P2dr  1 4.700000e-01    4.060000e+00
    P5  P3dr  1 4.700000e-01    4.060000e+00
    P5  P4dr  1 4.700000e-01    4.250000e+00
    P5  P5dr  1 4.700000e-01    4.480000e+00
  P6dr    P5  1 4.700000e-01    4.730000e+00
    P5   X1r  1 4.700000e-01    2.790000e+00
    P5   X2r  1 4.700000e-01    3.070000e+00
    P5   X3r  1 4.700000e-01    3.070000e+00
    P5   X4r  1 4.700000e-01    3.240000e+00
    P5   C1r  1 4.700000e-01    2.440000e+00
    P5   C2r  1 4.700000e-01    2.620000e+00
    P5   C3r  1 4.700000e-01    2.620000e+00
    P5   C4r  1 4.700000e-01    2.790000e+00
    P5   C5r  1 4.700000e-01    2.960000e+00
    P5   C6r  1 4.700000e-01    2.960000e+00
    P5   N1r  1 4.700000e-01    2.960000e+00
    P5   N2r  1 4.700000e-01    3.070000e+00
    P5   N3r  1 4.700000e-01    3.240000e+00
    P5   N4r  1 4.700000e-01    3.520000e+00
    P5   N5r  1 4.700000e-01    3.520000e+00
    P5   N6r  1 4.700000e-01    3.690000e+00
    P5   P1r  1 4.700000e-01    3.880000e+00
    P5   P2r  1 4.700000e-01    4.060000e+00
    P5   P3r  1 4.700000e-01    4.060000e+00
    P5   P4r  1 4.700000e-01    4.250000e+00
    P5   SP5  1 4.300000e-01    4.170000e+00
    P5   SP4  1 4.300000e-01    3.970000e+00
    P5   SP3  1 4.300000e-01    3.770000e+00
    P5   SP2  1 4.300000e-01    3.770000e+00
    P5   SP1  1 4.300000e-01    3.590000e+00
    P5   SN6  1 4.300000e-01    3.380000e+00
    P5   SN5  1 4.300000e-01    3.160000e+00
    P5   SN4  1 4.300000e-01    3.160000e+00
    P5   SN3  1 4.300000e-01    2.770000e+00
    P5   SN2  1 4.300000e-01    2.530000e+00
    P5   SN1  1 4.300000e-01    2.320000e+00
    P5   SC6  1 4.300000e-01    2.320000e+00
    P5   SC5  1 4.300000e-01    2.320000e+00
    P5   SC4  1 4.300000e-01    2.160000e+00
    P5   SC3  1 4.300000e-01    1.930000e+00
    P5   SC2  1 4.300000e-01    1.930000e+00
    P5   SC1  1 4.300000e-01    1.730000e+00
    P5   SX4  1 4.300000e-01    2.770000e+00
    P5   SX3  1 4.300000e-01    2.530000e+00
    P5   SX2  1 4.300000e-01    2.530000e+00
    P5   SX1  1 4.300000e-01    2.160000e+00
    P5  SP5d  1 4.300000e-01    4.170000e+00
    P5  SN1d  1 4.300000e-01    2.320000e+00
    P5  SN2d  1 4.300000e-01    2.530000e+00
    P5  SN3d  1 4.300000e-01    2.770000e+00
    P5  SN4d  1 4.300000e-01    3.160000e+00
    P5  SN5d  1 4.300000e-01    3.160000e+00
    P5  SN6d  1 4.300000e-01    3.380000e+00
    P5  SP1d  1 4.300000e-01    3.590000e+00
    P5  SP2d  1 4.300000e-01    3.770000e+00
    P5  SP3d  1 4.300000e-01    3.770000e+00
    P5  SP4d  1 4.300000e-01    3.970000e+00
    P5  SP5a  1 4.300000e-01    4.170000e+00
    P5  SN1a  1 4.300000e-01    2.320000e+00
    P5  SN2a  1 4.300000e-01    2.530000e+00
    P5  SN3a  1 4.300000e-01    2.770000e+00
    P5  SN4a  1 4.300000e-01    3.160000e+00
    P5  SN5a  1 4.300000e-01    3.160000e+00
    P5  SN6a  1 4.300000e-01    3.380000e+00
    P5  SP1a  1 4.300000e-01    3.590000e+00
    P5  SP2a  1 4.300000e-01    3.770000e+00
    P5  SP3a  1 4.300000e-01    3.770000e+00
    P5  SP4a  1 4.300000e-01    3.970000e+00
    P5  SC6v  1 4.300000e-01    2.530000e+00
    P5  SC5v  1 4.300000e-01    2.530000e+00
    P5  SC4v  1 4.300000e-01    2.320000e+00
    P5  SC3v  1 4.300000e-01    2.160000e+00
    P5  SC2v  1 4.300000e-01    2.160000e+00
    P5  SC1v  1 4.300000e-01    1.930000e+00
    P5  SX4v  1 4.300000e-01    2.920000e+00
    P5  SX3v  1 4.300000e-01    2.770000e+00
    P5  SX2v  1 4.300000e-01    2.770000e+00
    P5  SX1v  1 4.300000e-01    2.320000e+00
    P5  SC6e  1 4.300000e-01    2.530000e+00
    P5  SC5e  1 4.300000e-01    2.530000e+00
    P5  SC4e  1 4.300000e-01    2.320000e+00
    P5  SC3e  1 4.300000e-01    2.160000e+00
    P5  SC2e  1 4.300000e-01    2.160000e+00
    P5  SC1e  1 4.300000e-01    1.930000e+00
    P5  SX4e  1 4.300000e-01    2.920000e+00
    P5  SX3e  1 4.300000e-01    2.770000e+00
    P5  SX2e  1 4.300000e-01    2.770000e+00
    P5  SX1e  1 4.300000e-01    2.320000e+00
    P5  SP5q  1 4.300000e-01    4.680000e+00
    P5 SX1eq  1 4.300000e-01    2.770000e+00
    P5 SX2eq  1 4.300000e-01    3.160000e+00
    P5 SX3eq  1 4.300000e-01    3.160000e+00
    P5 SX4eq  1 4.300000e-01    3.380000e+00
    P5 SC1eq  1 4.300000e-01    2.320000e+00
    P5 SC2eq  1 4.300000e-01    2.530000e+00
    P5 SC3eq  1 4.300000e-01    2.530000e+00
    P5 SC4eq  1 4.300000e-01    2.770000e+00
    P5 SC5eq  1 4.300000e-01    2.920000e+00
    P5 SC6eq  1 4.300000e-01    2.920000e+00
    P5 SX1vq  1 4.300000e-01    2.770000e+00
    P5 SX2vq  1 4.300000e-01    3.160000e+00
    P5 SX3vq  1 4.300000e-01    3.160000e+00
    P5 SX4vq  1 4.300000e-01    3.380000e+00
    P5 SC1vq  1 4.300000e-01    2.320000e+00
    P5 SC2vq  1 4.300000e-01    2.530000e+00
    P5 SC3vq  1 4.300000e-01    2.530000e+00
    P5 SC4vq  1 4.300000e-01    2.770000e+00
    P5 SC5vq  1 4.300000e-01    2.920000e+00
    P5 SC6vq  1 4.300000e-01    2.920000e+00
    P5 SN1aq  1 4.300000e-01    2.770000e+00
    P5 SN2aq  1 4.300000e-01    2.920000e+00
    P5 SN3aq  1 4.300000e-01    3.160000e+00
    P5 SN4aq  1 4.300000e-01    3.590000e+00
    P5 SN5aq  1 4.300000e-01    3.590000e+00
    P5 SN6aq  1 4.300000e-01    3.770000e+00
    P5 SP1aq  1 4.300000e-01    3.970000e+00
    P5 SP2aq  1 4.300000e-01    4.170000e+00
    P5 SP3aq  1 4.300000e-01    4.170000e+00
    P5 SP4aq  1 4.300000e-01    4.400000e+00
    P5 SP5aq  1 4.300000e-01    4.680000e+00
    P5 SN1dq  1 4.300000e-01    2.770000e+00
    P5 SN2dq  1 4.300000e-01    2.920000e+00
    P5 SN3dq  1 4.300000e-01    3.160000e+00
    P5 SN4dq  1 4.300000e-01    3.590000e+00
    P5 SN5dq  1 4.300000e-01    3.590000e+00
    P5 SN6dq  1 4.300000e-01    3.770000e+00
    P5 SP1dq  1 4.300000e-01    3.970000e+00
    P5 SP2dq  1 4.300000e-01    4.170000e+00
    P5 SP3dq  1 4.300000e-01    4.170000e+00
    P5 SP4dq  1 4.300000e-01    4.400000e+00
    P5 SP5dq  1 4.300000e-01    4.680000e+00
    P5  SX1q  1 4.300000e-01    2.530000e+00
    P5  SX2q  1 4.300000e-01    2.920000e+00
    P5  SX3q  1 4.300000e-01    2.920000e+00
    P5  SX4q  1 4.300000e-01    3.160000e+00
    P5  SC1q  1 4.300000e-01    2.160000e+00
    P5  SC2q  1 4.300000e-01    2.320000e+00
    P5  SC3q  1 4.300000e-01    2.320000e+00
    P5  SC4q  1 4.300000e-01    2.530000e+00
    P5  SC5q  1 4.300000e-01    2.770000e+00
    P5  SC6q  1 4.300000e-01    2.770000e+00
    P5  SN1q  1 4.300000e-01    2.770000e+00
    P5  SN2q  1 4.300000e-01    2.920000e+00
    P5  SN3q  1 4.300000e-01    3.160000e+00
    P5  SN4q  1 4.300000e-01    3.590000e+00
    P5  SN5q  1 4.300000e-01    3.590000e+00
    P5  SN6q  1 4.300000e-01    3.770000e+00
    P5  SP1q  1 4.300000e-01    3.970000e+00
    P5  SP2q  1 4.300000e-01    4.170000e+00
    P5  SP3q  1 4.300000e-01    4.170000e+00
    P5  SP4q  1 4.300000e-01    4.400000e+00
    P5  SP5h  1 4.300000e-01    4.170000e+00
    P5 SX1eh  1 4.300000e-01    2.320000e+00
    P5 SX2eh  1 4.300000e-01    2.770000e+00
    P5 SX3eh  1 4.300000e-01    2.770000e+00
    P5 SX4eh  1 4.300000e-01    2.920000e+00
    P5 SC1eh  1 4.300000e-01    1.930000e+00
    P5 SC2eh  1 4.300000e-01    2.160000e+00
    P5 SC3eh  1 4.300000e-01    2.160000e+00
    P5 SC4eh  1 4.300000e-01    2.320000e+00
    P5 SC5eh  1 4.300000e-01    2.530000e+00
    P5 SC6eh  1 4.300000e-01    2.530000e+00
    P5 SX1vh  1 4.300000e-01    2.320000e+00
    P5 SX2vh  1 4.300000e-01    2.770000e+00
    P5 SX3vh  1 4.300000e-01    2.770000e+00
    P5 SX4vh  1 4.300000e-01    2.920000e+00
    P5 SC1vh  1 4.300000e-01    1.930000e+00
    P5 SC2vh  1 4.300000e-01    2.160000e+00
    P5 SC3vh  1 4.300000e-01    2.160000e+00
    P5 SC4vh  1 4.300000e-01    2.320000e+00
    P5 SC5vh  1 4.300000e-01    2.530000e+00
    P5 SC6vh  1 4.300000e-01    2.530000e+00
    P5 SN1ah  1 4.300000e-01    2.320000e+00
    P5 SN2ah  1 4.300000e-01    2.530000e+00
    P5 SN3ah  1 4.300000e-01    2.770000e+00
    P5 SN4ah  1 4.300000e-01    3.160000e+00
    P5 SN5ah  1 4.300000e-01    3.160000e+00
    P5 SN6ah  1 4.300000e-01    3.380000e+00
    P5 SP1ah  1 4.300000e-01    3.590000e+00
    P5 SP2ah  1 4.300000e-01    3.770000e+00
    P5 SP3ah  1 4.300000e-01    3.770000e+00
    P5 SP4ah  1 4.300000e-01    3.970000e+00
    P5 SP5ah  1 4.300000e-01    4.170000e+00
    P5 SN1dh  1 4.300000e-01    2.320000e+00
    P5 SN2dh  1 4.300000e-01    2.530000e+00
    P5 SN3dh  1 4.300000e-01    2.770000e+00
    P5 SN4dh  1 4.300000e-01    3.160000e+00
    P5 SN5dh  1 4.300000e-01    3.160000e+00
    P5 SN6dh  1 4.300000e-01    3.380000e+00
    P5 SP1dh  1 4.300000e-01    3.590000e+00
    P5 SP2dh  1 4.300000e-01    3.770000e+00
    P5 SP3dh  1 4.300000e-01    3.770000e+00
    P5 SP4dh  1 4.300000e-01    3.970000e+00
    P5 SP5dh  1 4.300000e-01    4.170000e+00
    P5  SX1h  1 4.300000e-01    2.160000e+00
    P5  SX2h  1 4.300000e-01    2.530000e+00
    P5  SX3h  1 4.300000e-01    2.530000e+00
    P5  SX4h  1 4.300000e-01    2.770000e+00
    P5  SC1h  1 4.300000e-01    1.730000e+00
    P5  SC2h  1 4.300000e-01    1.930000e+00
    P5  SC3h  1 4.300000e-01    1.930000e+00
    P5  SC4h  1 4.300000e-01    2.160000e+00
    P5  SC5h  1 4.300000e-01    2.320000e+00
    P5  SC6h  1 4.300000e-01    2.320000e+00
    P5  SN1h  1 4.300000e-01    2.320000e+00
    P5  SN2h  1 4.300000e-01    2.530000e+00
    P5  SN3h  1 4.300000e-01    2.770000e+00
    P5  SN4h  1 4.300000e-01    3.160000e+00
    P5  SN5h  1 4.300000e-01    3.160000e+00
    P5  SN6h  1 4.300000e-01    3.380000e+00
    P5  SP1h  1 4.300000e-01    3.590000e+00
    P5  SP2h  1 4.300000e-01    3.770000e+00
    P5  SP3h  1 4.300000e-01    3.770000e+00
    P5  SP4h  1 4.300000e-01    3.970000e+00
    P5  SP5r  1 4.300000e-01    4.170000e+00
    P5 SX1er  1 4.300000e-01    2.320000e+00
    P5 SX2er  1 4.300000e-01    2.770000e+00
    P5 SX3er  1 4.300000e-01    2.770000e+00
    P5 SX4er  1 4.300000e-01    2.920000e+00
    P5 SC1er  1 4.300000e-01    1.930000e+00
    P5 SC2er  1 4.300000e-01    2.160000e+00
    P5 SC3er  1 4.300000e-01    2.160000e+00
    P5 SC4er  1 4.300000e-01    2.320000e+00
    P5 SC5er  1 4.300000e-01    2.530000e+00
    P5 SC6er  1 4.300000e-01    2.530000e+00
    P5 SX1vr  1 4.300000e-01    2.320000e+00
    P5 SX2vr  1 4.300000e-01    2.770000e+00
    P5 SX3vr  1 4.300000e-01    2.770000e+00
    P5 SX4vr  1 4.300000e-01    2.920000e+00
    P5 SC1vr  1 4.300000e-01    1.930000e+00
    P5 SC2vr  1 4.300000e-01    2.160000e+00
    P5 SC3vr  1 4.300000e-01    2.160000e+00
    P5 SC4vr  1 4.300000e-01    2.320000e+00
    P5 SC5vr  1 4.300000e-01    2.530000e+00
    P5 SC6vr  1 4.300000e-01    2.530000e+00
    P5 SN1ar  1 4.300000e-01    2.320000e+00
    P5 SN2ar  1 4.300000e-01    2.530000e+00
    P5 SN3ar  1 4.300000e-01    2.770000e+00
    P5 SN4ar  1 4.300000e-01    3.160000e+00
    P5 SN5ar  1 4.300000e-01    3.160000e+00
    P5 SN6ar  1 4.300000e-01    3.380000e+00
    P5 SP1ar  1 4.300000e-01    3.590000e+00
    P5 SP2ar  1 4.300000e-01    3.770000e+00
    P5 SP3ar  1 4.300000e-01    3.770000e+00
    P5 SP4ar  1 4.300000e-01    3.970000e+00
    P5 SP5ar  1 4.300000e-01    4.170000e+00
    P5 SN1dr  1 4.300000e-01    2.320000e+00
    P5 SN2dr  1 4.300000e-01    2.530000e+00
    P5 SN3dr  1 4.300000e-01    2.770000e+00
    P5 SN4dr  1 4.300000e-01    3.160000e+00
    P5 SN5dr  1 4.300000e-01    3.160000e+00
    P5 SN6dr  1 4.300000e-01    3.380000e+00
    P5 SP1dr  1 4.300000e-01    3.590000e+00
    P5 SP2dr  1 4.300000e-01    3.770000e+00
    P5 SP3dr  1 4.300000e-01    3.770000e+00
    P5 SP4dr  1 4.300000e-01    3.970000e+00
    P5 SP5dr  1 4.300000e-01    4.170000e+00
    P5  SX1r  1 4.300000e-01    2.160000e+00
    P5  SX2r  1 4.300000e-01    2.530000e+00
    P5  SX3r  1 4.300000e-01    2.530000e+00
    P5  SX4r  1 4.300000e-01    2.770000e+00
    P5  SC1r  1 4.300000e-01    1.730000e+00
    P5  SC2r  1 4.300000e-01    1.930000e+00
    P5  SC3r  1 4.300000e-01    1.930000e+00
    P5  SC4r  1 4.300000e-01    2.160000e+00
    P5  SC5r  1 4.300000e-01    2.320000e+00
    P5  SC6r  1 4.300000e-01    2.320000e+00
    P5  SN1r  1 4.300000e-01    2.320000e+00
    P5  SN2r  1 4.300000e-01    2.530000e+00
    P5  SN3r  1 4.300000e-01    2.770000e+00
    P5  SN4r  1 4.300000e-01    3.160000e+00
    P5  SN5r  1 4.300000e-01    3.160000e+00
    P5  SN6r  1 4.300000e-01    3.380000e+00
    P5  SP1r  1 4.300000e-01    3.590000e+00
    P5  SP2r  1 4.300000e-01    3.770000e+00
    P5  SP3r  1 4.300000e-01    3.770000e+00
    P5  SP4r  1 4.300000e-01    3.970000e+00
  SP6d    P5  1 4.300000e-01    4.400000e+00
  SP6a    P5  1 4.300000e-01    4.400000e+00
  SP6q    P5  1 4.300000e-01    4.920000e+00
 SP6aq    P5  1 4.300000e-01    4.920000e+00
 SP6dq    P5  1 4.300000e-01    4.920000e+00
  SP6h    P5  1 4.300000e-01    4.400000e+00
 SP6ah    P5  1 4.300000e-01    4.400000e+00
 SP6dh    P5  1 4.300000e-01    4.400000e+00
  SP6r    P5  1 4.300000e-01    4.400000e+00
 SP6ar    P5  1 4.300000e-01    4.400000e+00
 SP6dr    P5  1 4.300000e-01    4.400000e+00
    P5   TP5  1 3.950000e-01    3.670000e+00
    P5   TP4  1 3.950000e-01    3.430000e+00
    P5   TP3  1 3.950000e-01    3.190000e+00
    P5   TP2  1 3.950000e-01    3.190000e+00
    P5   TP1  1 3.950000e-01    2.940000e+00
    P5   TN6  1 3.950000e-01    2.700000e+00
    P5   TN5  1 3.950000e-01    2.500000e+00
    P5   TN4  1 3.950000e-01    2.500000e+00
    P5   TN3  1 3.950000e-01    2.110000e+00
    P5   TN2  1 3.950000e-01    1.850000e+00
    P5   TN1  1 3.950000e-01    1.670000e+00
    P5   TC6  1 3.950000e-01    1.670000e+00
    P5   TC5  1 3.950000e-01    1.670000e+00
    P5   TC4  1 3.980000e-01    1.450000e+00
    P5   TC3  1 3.990000e-01    1.180000e+00
    P5   TC2  1 3.990000e-01    1.180000e+00
    P5   TC1  1 4.010000e-01    9.830000e-01
    P5   TX4  1 3.950000e-01    2.110000e+00
    P5   TX3  1 3.950000e-01    1.850000e+00
    P5   TX2  1 3.950000e-01    1.850000e+00
    P5   TX1  1 3.980000e-01    1.450000e+00
    P5  TP5d  1 3.950000e-01    3.670000e+00
    P5  TN1d  1 3.950000e-01    1.670000e+00
    P5  TN2d  1 3.950000e-01    1.850000e+00
    P5  TN3d  1 3.950000e-01    2.110000e+00
    P5  TN4d  1 3.950000e-01    2.500000e+00
    P5  TN5d  1 3.950000e-01    2.500000e+00
    P5  TN6d  1 3.950000e-01    2.700000e+00
    P5  TP1d  1 3.950000e-01    2.940000e+00
    P5  TP2d  1 3.950000e-01    3.190000e+00
    P5  TP3d  1 3.950000e-01    3.190000e+00
    P5  TP4d  1 3.950000e-01    3.430000e+00
    P5  TP5a  1 3.950000e-01    3.670000e+00
    P5  TN1a  1 3.950000e-01    1.670000e+00
    P5  TN2a  1 3.950000e-01    1.850000e+00
    P5  TN3a  1 3.950000e-01    2.110000e+00
    P5  TN4a  1 3.950000e-01    2.500000e+00
    P5  TN5a  1 3.950000e-01    2.500000e+00
    P5  TN6a  1 3.950000e-01    2.700000e+00
    P5  TP1a  1 3.950000e-01    2.940000e+00
    P5  TP2a  1 3.950000e-01    3.190000e+00
    P5  TP3a  1 3.950000e-01    3.190000e+00
    P5  TP4a  1 3.950000e-01    3.430000e+00
    P5  TC6v  1 3.950000e-01    1.850000e+00
    P5  TC5v  1 3.950000e-01    1.850000e+00
    P5  TC4v  1 3.950000e-01    1.670000e+00
    P5  TC3v  1 3.980000e-01    1.450000e+00
    P5  TC2v  1 3.980000e-01    1.450000e+00
    P5  TC1v  1 3.990000e-01    1.180000e+00
    P5  TX4v  1 3.950000e-01    2.310000e+00
    P5  TX3v  1 3.950000e-01    2.110000e+00
    P5  TX2v  1 3.950000e-01    2.110000e+00
    P5  TX1v  1 3.950000e-01    1.670000e+00
    P5  TC6e  1 3.950000e-01    1.850000e+00
    P5  TC5e  1 3.950000e-01    1.850000e+00
    P5  TC4e  1 3.950000e-01    1.670000e+00
    P5  TC3e  1 3.980000e-01    1.450000e+00
    P5  TC2e  1 3.980000e-01    1.450000e+00
    P5  TC1e  1 3.990000e-01    1.180000e+00
    P5  TX4e  1 3.950000e-01    2.310000e+00
    P5  TX3e  1 3.950000e-01    2.110000e+00
    P5  TX2e  1 3.950000e-01    2.110000e+00
    P5  TX1e  1 3.950000e-01    1.670000e+00
    P5  TP5q  1 3.950000e-01    4.230000e+00
    P5 TX1eq  1 3.950000e-01    2.110000e+00
    P5 TX2eq  1 3.950000e-01    2.500000e+00
    P5 TX3eq  1 3.950000e-01    2.500000e+00
    P5 TX4eq  1 3.950000e-01    2.700000e+00
    P5 TC1eq  1 3.950000e-01    1.670000e+00
    P5 TC2eq  1 3.950000e-01    1.850000e+00
    P5 TC3eq  1 3.950000e-01    1.850000e+00
    P5 TC4eq  1 3.950000e-01    2.110000e+00
    P5 TC5eq  1 3.950000e-01    2.310000e+00
    P5 TC6eq  1 3.950000e-01    2.310000e+00
    P5 TX1vq  1 3.950000e-01    2.110000e+00
    P5 TX2vq  1 3.950000e-01    2.500000e+00
    P5 TX3vq  1 3.950000e-01    2.500000e+00
    P5 TX4vq  1 3.950000e-01    2.700000e+00
    P5 TC1vq  1 3.950000e-01    1.670000e+00
    P5 TC2vq  1 3.950000e-01    1.850000e+00
    P5 TC3vq  1 3.950000e-01    1.850000e+00
    P5 TC4vq  1 3.950000e-01    2.110000e+00
    P5 TC5vq  1 3.950000e-01    2.310000e+00
    P5 TC6vq  1 3.950000e-01    2.310000e+00
    P5 TN1aq  1 3.950000e-01    2.110000e+00
    P5 TN2aq  1 3.950000e-01    2.310000e+00
    P5 TN3aq  1 3.950000e-01    2.500000e+00
    P5 TN4aq  1 3.950000e-01    2.940000e+00
    P5 TN5aq  1 3.950000e-01    2.940000e+00
    P5 TN6aq  1 3.950000e-01    3.190000e+00
    P5 TP1aq  1 3.950000e-01    3.430000e+00
    P5 TP2aq  1 3.950000e-01    3.670000e+00
    P5 TP3aq  1 3.950000e-01    3.670000e+00
    P5 TP4aq  1 3.950000e-01    3.910000e+00
    P5 TP5aq  1 3.950000e-01    4.230000e+00
    P5 TN1dq  1 3.950000e-01    2.110000e+00
    P5 TN2dq  1 3.950000e-01    2.310000e+00
    P5 TN3dq  1 3.950000e-01    2.500000e+00
    P5 TN4dq  1 3.950000e-01    2.940000e+00
    P5 TN5dq  1 3.950000e-01    2.940000e+00
    P5 TN6dq  1 3.950000e-01    3.190000e+00
    P5 TP1dq  1 3.950000e-01    3.430000e+00
    P5 TP2dq  1 3.950000e-01    3.670000e+00
    P5 TP3dq  1 3.950000e-01    3.670000e+00
    P5 TP4dq  1 3.950000e-01    3.910000e+00
    P5 TP5dq  1 3.950000e-01    4.230000e+00
    P5  TX1q  1 3.950000e-01    1.850000e+00
    P5  TX2q  1 3.950000e-01    2.310000e+00
    P5  TX3q  1 3.950000e-01    2.310000e+00
    P5  TX4q  1 3.950000e-01    2.500000e+00
    P5  TC1q  1 3.980000e-01    1.450000e+00
    P5  TC2q  1 3.950000e-01    1.670000e+00
    P5  TC3q  1 3.950000e-01    1.670000e+00
    P5  TC4q  1 3.950000e-01    1.850000e+00
    P5  TC5q  1 3.950000e-01    2.110000e+00
    P5  TC6q  1 3.950000e-01    2.110000e+00
    P5  TN1q  1 3.950000e-01    2.110000e+00
    P5  TN2q  1 3.950000e-01    2.310000e+00
    P5  TN3q  1 3.950000e-01    2.500000e+00
    P5  TN4q  1 3.950000e-01    2.940000e+00
    P5  TN5q  1 3.950000e-01    2.940000e+00
    P5  TN6q  1 3.950000e-01    3.190000e+00
    P5  TP1q  1 3.950000e-01    3.430000e+00
    P5  TP2q  1 3.950000e-01    3.670000e+00
    P5  TP3q  1 3.950000e-01    3.670000e+00
    P5  TP4q  1 3.950000e-01    3.910000e+00
    P5  TP5h  1 3.950000e-01    3.670000e+00
    P5 TX1eh  1 3.950000e-01    1.670000e+00
    P5 TX2eh  1 3.950000e-01    2.110000e+00
    P5 TX3eh  1 3.950000e-01    2.110000e+00
    P5 TX4eh  1 3.950000e-01    2.310000e+00
    P5 TC1eh  1 3.990000e-01    1.180000e+00
    P5 TC2eh  1 3.980000e-01    1.450000e+00
    P5 TC3eh  1 3.980000e-01    1.450000e+00
    P5 TC4eh  1 3.950000e-01    1.670000e+00
    P5 TC5eh  1 3.950000e-01    1.850000e+00
    P5 TC6eh  1 3.950000e-01    1.850000e+00
    P5 TX1vh  1 3.950000e-01    1.670000e+00
    P5 TX2vh  1 3.950000e-01    2.110000e+00
    P5 TX3vh  1 3.950000e-01    2.110000e+00
    P5 TX4vh  1 3.950000e-01    2.310000e+00
    P5 TC1vh  1 3.990000e-01    1.180000e+00
    P5 TC2vh  1 3.980000e-01    1.450000e+00
    P5 TC3vh  1 3.980000e-01    1.450000e+00
    P5 TC4vh  1 3.950000e-01    1.670000e+00
    P5 TC5vh  1 3.950000e-01    1.850000e+00
    P5 TC6vh  1 3.950000e-01    1.850000e+00
    P5 TN1ah  1 3.950000e-01    1.670000e+00
    P5 TN2ah  1 3.950000e-01    1.850000e+00
    P5 TN3ah  1 3.950000e-01    2.110000e+00
    P5 TN4ah  1 3.950000e-01    2.500000e+00
    P5 TN5ah  1 3.950000e-01    2.500000e+00
    P5 TN6ah  1 3.950000e-01    2.700000e+00
    P5 TP1ah  1 3.950000e-01    2.940000e+00
    P5 TP2ah  1 3.950000e-01    3.190000e+00
    P5 TP3ah  1 3.950000e-01    3.190000e+00
    P5 TP4ah  1 3.950000e-01    3.430000e+00
    P5 TP5ah  1 3.950000e-01    3.670000e+00
    P5 TN1dh  1 3.950000e-01    1.670000e+00
    P5 TN2dh  1 3.950000e-01    1.850000e+00
    P5 TN3dh  1 3.950000e-01    2.110000e+00
    P5 TN4dh  1 3.950000e-01    2.500000e+00
    P5 TN5dh  1 3.950000e-01    2.500000e+00
    P5 TN6dh  1 3.950000e-01    2.700000e+00
    P5 TP1dh  1 3.950000e-01    2.940000e+00
    P5 TP2dh  1 3.950000e-01    3.190000e+00
    P5 TP3dh  1 3.950000e-01    3.190000e+00
    P5 TP4dh  1 3.950000e-01    3.430000e+00
    P5 TP5dh  1 3.950000e-01    3.670000e+00
    P5  TX1h  1 3.980000e-01    1.450000e+00
    P5  TX2h  1 3.950000e-01    1.850000e+00
    P5  TX3h  1 3.950000e-01    1.850000e+00
    P5  TX4h  1 3.950000e-01    2.110000e+00
    P5  TC1h  1 4.010000e-01    9.830000e-01
    P5  TC2h  1 3.990000e-01    1.180000e+00
    P5  TC3h  1 3.990000e-01    1.180000e+00
    P5  TC4h  1 3.980000e-01    1.450000e+00
    P5  TC5h  1 3.950000e-01    1.670000e+00
    P5  TC6h  1 3.950000e-01    1.670000e+00
    P5  TN1h  1 3.950000e-01    1.670000e+00
    P5  TN2h  1 3.950000e-01    1.850000e+00
    P5  TN3h  1 3.950000e-01    2.110000e+00
    P5  TN4h  1 3.950000e-01    2.500000e+00
    P5  TN5h  1 3.950000e-01    2.500000e+00
    P5  TN6h  1 3.950000e-01    2.700000e+00
    P5  TP1h  1 3.950000e-01    2.940000e+00
    P5  TP2h  1 3.950000e-01    3.190000e+00
    P5  TP3h  1 3.950000e-01    3.190000e+00
    P5  TP4h  1 3.950000e-01    3.430000e+00
    P5  TP5r  1 3.950000e-01    3.670000e+00
    P5 TX1er  1 3.950000e-01    1.670000e+00
    P5 TX2er  1 3.950000e-01    2.110000e+00
    P5 TX3er  1 3.950000e-01    2.110000e+00
    P5 TX4er  1 3.950000e-01    2.310000e+00
    P5 TC1er  1 3.990000e-01    1.180000e+00
    P5 TC2er  1 3.980000e-01    1.450000e+00
    P5 TC3er  1 3.980000e-01    1.450000e+00
    P5 TC4er  1 3.950000e-01    1.670000e+00
    P5 TC5er  1 3.950000e-01    1.850000e+00
    P5 TC6er  1 3.950000e-01    1.850000e+00
    P5 TX1vr  1 3.950000e-01    1.670000e+00
    P5 TX2vr  1 3.950000e-01    2.110000e+00
    P5 TX3vr  1 3.950000e-01    2.110000e+00
    P5 TX4vr  1 3.950000e-01    2.310000e+00
    P5 TC1vr  1 3.990000e-01    1.180000e+00
    P5 TC2vr  1 3.980000e-01    1.450000e+00
    P5 TC3vr  1 3.980000e-01    1.450000e+00
    P5 TC4vr  1 3.950000e-01    1.670000e+00
    P5 TC5vr  1 3.950000e-01    1.850000e+00
    P5 TC6vr  1 3.950000e-01    1.850000e+00
    P5 TN1ar  1 3.950000e-01    1.670000e+00
    P5 TN2ar  1 3.950000e-01    1.850000e+00
    P5 TN3ar  1 3.950000e-01    2.110000e+00
    P5 TN4ar  1 3.950000e-01    2.500000e+00
    P5 TN5ar  1 3.950000e-01    2.500000e+00
    P5 TN6ar  1 3.950000e-01    2.700000e+00
    P5 TP1ar  1 3.950000e-01    2.940000e+00
    P5 TP2ar  1 3.950000e-01    3.190000e+00
    P5 TP3ar  1 3.950000e-01    3.190000e+00
    P5 TP4ar  1 3.950000e-01    3.430000e+00
    P5 TP5ar  1 3.950000e-01    3.670000e+00
    P5 TN1dr  1 3.950000e-01    1.670000e+00
    P5 TN2dr  1 3.950000e-01    1.850000e+00
    P5 TN3dr  1 3.950000e-01    2.110000e+00
    P5 TN4dr  1 3.950000e-01    2.500000e+00
    P5 TN5dr  1 3.950000e-01    2.500000e+00
    P5 TN6dr  1 3.950000e-01    2.700000e+00
    P5 TP1dr  1 3.950000e-01    2.940000e+00
    P5 TP2dr  1 3.950000e-01    3.190000e+00
    P5 TP3dr  1 3.950000e-01    3.190000e+00
    P5 TP4dr  1 3.950000e-01    3.430000e+00
    P5 TP5dr  1 3.950000e-01    3.670000e+00
    P5  TX1r  1 3.980000e-01    1.450000e+00
    P5  TX2r  1 3.950000e-01    1.850000e+00
    P5  TX3r  1 3.950000e-01    1.850000e+00
    P5  TX4r  1 3.950000e-01    2.110000e+00
    P5  TC1r  1 4.010000e-01    9.830000e-01
    P5  TC2r  1 3.990000e-01    1.180000e+00
    P5  TC3r  1 3.990000e-01    1.180000e+00
    P5  TC4r  1 3.980000e-01    1.450000e+00
    P5  TC5r  1 3.950000e-01    1.670000e+00
    P5  TC6r  1 3.950000e-01    1.670000e+00
    P5  TN1r  1 3.950000e-01    1.670000e+00
    P5  TN2r  1 3.950000e-01    1.850000e+00
    P5  TN3r  1 3.950000e-01    2.110000e+00
    P5  TN4r  1 3.950000e-01    2.500000e+00
    P5  TN5r  1 3.950000e-01    2.500000e+00
    P5  TN6r  1 3.950000e-01    2.700000e+00
    P5  TP1r  1 3.950000e-01    2.940000e+00
    P5  TP2r  1 3.950000e-01    3.190000e+00
    P5  TP3r  1 3.950000e-01    3.190000e+00
    P5  TP4r  1 3.950000e-01    3.430000e+00
  TP6d    P5  1 3.950000e-01    3.910000e+00
  TP6a    P5  1 3.950000e-01    3.910000e+00
  TP6q    P5  1 3.950000e-01    4.540000e+00
 TP6aq    P5  1 3.950000e-01    4.540000e+00
 TP6dq    P5  1 3.950000e-01    4.540000e+00
  TP6h    P5  1 3.950000e-01    3.910000e+00
 TP6ah    P5  1 3.950000e-01    3.910000e+00
 TP6dh    P5  1 3.950000e-01    3.910000e+00
  TP6r    P5  1 3.950000e-01    3.910000e+00
 TP6ar    P5  1 3.950000e-01    3.910000e+00
 TP6dr    P5  1 3.950000e-01    3.910000e+00
   P6d   SP5  1 4.300000e-01    4.400000e+00
   P6a   SP5  1 4.300000e-01    4.400000e+00
   P6q   SP5  1 4.300000e-01    4.920000e+00
  P6aq   SP5  1 4.300000e-01    4.920000e+00
  P6dq   SP5  1 4.300000e-01    4.920000e+00
   P6h   SP5  1 4.300000e-01    4.400000e+00
  P6ah   SP5  1 4.300000e-01    4.400000e+00
  P6dh   SP5  1 4.300000e-01    4.400000e+00
   P6r   SP5  1 4.300000e-01    4.400000e+00
  P6ar   SP5  1 4.300000e-01    4.400000e+00
  P6dr   SP5  1 4.300000e-01    4.400000e+00
   SP5    P4  1 4.300000e-01    3.970000e+00
   SP5    P3  1 4.300000e-01    3.770000e+00
   SP5    P2  1 4.300000e-01    3.770000e+00
   SP5    P1  1 4.300000e-01    3.590000e+00
   SP5    N6  1 4.300000e-01    3.380000e+00
   SP5    N5  1 4.300000e-01    3.160000e+00
   SP5    N4  1 4.300000e-01    3.160000e+00
   SP5    N3  1 4.300000e-01    2.770000e+00
   SP5    N2  1 4.300000e-01    2.530000e+00
   SP5    N1  1 4.300000e-01    2.320000e+00
   SP5    C6  1 4.300000e-01    2.320000e+00
   SP5    C5  1 4.300000e-01    2.320000e+00
   SP5    C4  1 4.300000e-01    2.160000e+00
   SP5    C3  1 4.300000e-01    1.930000e+00
   SP5    C2  1 4.300000e-01    1.930000e+00
   SP5    C1  1 4.300000e-01    1.730000e+00
   SP5    X4  1 4.300000e-01    2.770000e+00
   SP5    X3  1 4.300000e-01    2.530000e+00
   SP5    X2  1 4.300000e-01    2.530000e+00
   SP5    X1  1 4.300000e-01    2.160000e+00
   SP5   P5d  1 4.300000e-01    4.170000e+00
   SP5   N1d  1 4.300000e-01    2.320000e+00
   SP5   N2d  1 4.300000e-01    2.530000e+00
   SP5   N3d  1 4.300000e-01    2.770000e+00
   SP5   N4d  1 4.300000e-01    3.160000e+00
   SP5   N5d  1 4.300000e-01    3.160000e+00
   SP5   N6d  1 4.300000e-01    3.380000e+00
   SP5   P1d  1 4.300000e-01    3.590000e+00
   SP5   P2d  1 4.300000e-01    3.770000e+00
   SP5   P3d  1 4.300000e-01    3.770000e+00
   SP5   P4d  1 4.300000e-01    3.970000e+00
   SP5   P5a  1 4.300000e-01    4.170000e+00
   SP5   N1a  1 4.300000e-01    2.320000e+00
   SP5   N2a  1 4.300000e-01    2.530000e+00
   SP5   N3a  1 4.300000e-01    2.770000e+00
   SP5   N4a  1 4.300000e-01    3.160000e+00
   SP5   N5a  1 4.300000e-01    3.160000e+00
   SP5   N6a  1 4.300000e-01    3.380000e+00
   SP5   P1a  1 4.300000e-01    3.590000e+00
   SP5   P2a  1 4.300000e-01    3.770000e+00
   SP5   P3a  1 4.300000e-01    3.770000e+00
   SP5   P4a  1 4.300000e-01    3.970000e+00
   SP5   C6v  1 4.300000e-01    2.530000e+00
   SP5   C5v  1 4.300000e-01    2.530000e+00
   SP5   C4v  1 4.300000e-01    2.320000e+00
   SP5   C3v  1 4.300000e-01    2.160000e+00
   SP5   C2v  1 4.300000e-01    2.160000e+00
   SP5   C1v  1 4.300000e-01    1.930000e+00
   SP5   X4v  1 4.300000e-01    2.920000e+00
   SP5   X3v  1 4.300000e-01    2.770000e+00
   SP5   X2v  1 4.300000e-01    2.770000e+00
   SP5   X1v  1 4.300000e-01    2.320000e+00
   SP5   C6e  1 4.300000e-01    2.530000e+00
   SP5   C5e  1 4.300000e-01    2.530000e+00
   SP5   C4e  1 4.300000e-01    2.320000e+00
   SP5   C3e  1 4.300000e-01    2.160000e+00
   SP5   C2e  1 4.300000e-01    2.160000e+00
   SP5   C1e  1 4.300000e-01    1.930000e+00
   SP5   X4e  1 4.300000e-01    2.920000e+00
   SP5   X3e  1 4.300000e-01    2.770000e+00
   SP5   X2e  1 4.300000e-01    2.770000e+00
   SP5   X1e  1 4.300000e-01    2.320000e+00
   SP5   P5q  1 4.300000e-01    4.680000e+00
   SP5  X1eq  1 4.300000e-01    2.770000e+00
   SP5  X2eq  1 4.300000e-01    3.160000e+00
   SP5  X3eq  1 4.300000e-01    3.160000e+00
   SP5  X4eq  1 4.300000e-01    3.380000e+00
   SP5  C1eq  1 4.300000e-01    2.320000e+00
   SP5  C2eq  1 4.300000e-01    2.530000e+00
   SP5  C3eq  1 4.300000e-01    2.530000e+00
   SP5  C4eq  1 4.300000e-01    2.770000e+00
   SP5  C5eq  1 4.300000e-01    2.920000e+00
   SP5  C6eq  1 4.300000e-01    2.920000e+00
   SP5  X1vq  1 4.300000e-01    2.770000e+00
   SP5  X2vq  1 4.300000e-01    3.160000e+00
   SP5  X3vq  1 4.300000e-01    3.160000e+00
   SP5  X4vq  1 4.300000e-01    3.380000e+00
   SP5  C1vq  1 4.300000e-01    2.320000e+00
   SP5  C2vq  1 4.300000e-01    2.530000e+00
   SP5  C3vq  1 4.300000e-01    2.530000e+00
   SP5  C4vq  1 4.300000e-01    2.770000e+00
   SP5  C5vq  1 4.300000e-01    2.920000e+00
   SP5  C6vq  1 4.300000e-01    2.920000e+00
   SP5  N1aq  1 4.300000e-01    2.770000e+00
   SP5  N2aq  1 4.300000e-01    2.920000e+00
   SP5  N3aq  1 4.300000e-01    3.160000e+00
   SP5  N4aq  1 4.300000e-01    3.590000e+00
   SP5  N5aq  1 4.300000e-01    3.590000e+00
   SP5  N6aq  1 4.300000e-01    3.770000e+00
   SP5  P1aq  1 4.300000e-01    3.970000e+00
   SP5  P2aq  1 4.300000e-01    4.170000e+00
   SP5  P3aq  1 4.300000e-01    4.170000e+00
   SP5  P4aq  1 4.300000e-01    4.400000e+00
   SP5  P5aq  1 4.300000e-01    4.680000e+00
   SP5  N1dq  1 4.300000e-01    2.770000e+00
   SP5  N2dq  1 4.300000e-01    2.920000e+00
   SP5  N3dq  1 4.300000e-01    3.160000e+00
   SP5  N4dq  1 4.300000e-01    3.590000e+00
   SP5  N5dq  1 4.300000e-01    3.590000e+00
   SP5  N6dq  1 4.300000e-01    3.770000e+00
   SP5  P1dq  1 4.300000e-01    3.970000e+00
   SP5  P2dq  1 4.300000e-01    4.170000e+00
   SP5  P3dq  1 4.300000e-01    4.170000e+00
   SP5  P4dq  1 4.300000e-01    4.400000e+00
   SP5  P5dq  1 4.300000e-01    4.680000e+00
   SP5   X1q  1 4.300000e-01    2.530000e+00
   SP5   X2q  1 4.300000e-01    2.920000e+00
   SP5   X3q  1 4.300000e-01    2.920000e+00
   SP5   X4q  1 4.300000e-01    3.160000e+00
   SP5   C1q  1 4.300000e-01    2.160000e+00
   SP5   C2q  1 4.300000e-01    2.320000e+00
   SP5   C3q  1 4.300000e-01    2.320000e+00
   SP5   C4q  1 4.300000e-01    2.530000e+00
   SP5   C5q  1 4.300000e-01    2.770000e+00
   SP5   C6q  1 4.300000e-01    2.770000e+00
   SP5   N1q  1 4.300000e-01    2.770000e+00
   SP5   N2q  1 4.300000e-01    2.920000e+00
   SP5   N3q  1 4.300000e-01    3.160000e+00
   SP5   N4q  1 4.300000e-01    3.590000e+00
   SP5   N5q  1 4.300000e-01    3.590000e+00
   SP5   N6q  1 4.300000e-01    3.770000e+00
   SP5   P1q  1 4.300000e-01    3.970000e+00
   SP5   P2q  1 4.300000e-01    4.170000e+00
   SP5   P3q  1 4.300000e-01    4.170000e+00
   SP5   P4q  1 4.300000e-01    4.400000e+00
   SP5   P5h  1 4.300000e-01    4.170000e+00
   SP5  X1eh  1 4.300000e-01    2.320000e+00
   SP5  X2eh  1 4.300000e-01    2.770000e+00
   SP5  X3eh  1 4.300000e-01    2.770000e+00
   SP5  X4eh  1 4.300000e-01    2.920000e+00
   SP5  C1eh  1 4.300000e-01    1.930000e+00
   SP5  C2eh  1 4.300000e-01    2.160000e+00
   SP5  C3eh  1 4.300000e-01    2.160000e+00
   SP5  C4eh  1 4.300000e-01    2.320000e+00
   SP5  C5eh  1 4.300000e-01    2.530000e+00
   SP5  C6eh  1 4.300000e-01    2.530000e+00
   SP5  X1vh  1 4.300000e-01    2.320000e+00
   SP5  X2vh  1 4.300000e-01    2.770000e+00
   SP5  X3vh  1 4.300000e-01    2.770000e+00
   SP5  X4vh  1 4.300000e-01    2.920000e+00
   SP5  C1vh  1 4.300000e-01    1.930000e+00
   SP5  C2vh  1 4.300000e-01    2.160000e+00
   SP5  C3vh  1 4.300000e-01    2.160000e+00
   SP5  C4vh  1 4.300000e-01    2.320000e+00
   SP5  C5vh  1 4.300000e-01    2.530000e+00
   SP5  C6vh  1 4.300000e-01    2.530000e+00
   SP5  N1ah  1 4.300000e-01    2.320000e+00
   SP5  N2ah  1 4.300000e-01    2.530000e+00
   SP5  N3ah  1 4.300000e-01    2.770000e+00
   SP5  N4ah  1 4.300000e-01    3.160000e+00
   SP5  N5ah  1 4.300000e-01    3.160000e+00
   SP5  N6ah  1 4.300000e-01    3.380000e+00
   SP5  P1ah  1 4.300000e-01    3.590000e+00
   SP5  P2ah  1 4.300000e-01    3.770000e+00
   SP5  P3ah  1 4.300000e-01    3.770000e+00
   SP5  P4ah  1 4.300000e-01    3.970000e+00
   SP5  P5ah  1 4.300000e-01    4.170000e+00
   SP5  N1dh  1 4.300000e-01    2.320000e+00
   SP5  N2dh  1 4.300000e-01    2.530000e+00
   SP5  N3dh  1 4.300000e-01    2.770000e+00
   SP5  N4dh  1 4.300000e-01    3.160000e+00
   SP5  N5dh  1 4.300000e-01    3.160000e+00
   SP5  N6dh  1 4.300000e-01    3.380000e+00
   SP5  P1dh  1 4.300000e-01    3.590000e+00
   SP5  P2dh  1 4.300000e-01    3.770000e+00
   SP5  P3dh  1 4.300000e-01    3.770000e+00
   SP5  P4dh  1 4.300000e-01    3.970000e+00
   SP5  P5dh  1 4.300000e-01    4.170000e+00
   SP5   X1h  1 4.300000e-01    2.160000e+00
   SP5   X2h  1 4.300000e-01    2.530000e+00
   SP5   X3h  1 4.300000e-01    2.530000e+00
   SP5   X4h  1 4.300000e-01    2.770000e+00
   SP5   C1h  1 4.300000e-01    1.730000e+00
   SP5   C2h  1 4.300000e-01    1.930000e+00
   SP5   C3h  1 4.300000e-01    1.930000e+00
   SP5   C4h  1 4.300000e-01    2.160000e+00
   SP5   C5h  1 4.300000e-01    2.320000e+00
   SP5   C6h  1 4.300000e-01    2.320000e+00
   SP5   N1h  1 4.300000e-01    2.320000e+00
   SP5   N2h  1 4.300000e-01    2.530000e+00
   SP5   N3h  1 4.300000e-01    2.770000e+00
   SP5   N4h  1 4.300000e-01    3.160000e+00
   SP5   N5h  1 4.300000e-01    3.160000e+00
   SP5   N6h  1 4.300000e-01    3.380000e+00
   SP5   P1h  1 4.300000e-01    3.590000e+00
   SP5   P2h  1 4.300000e-01    3.770000e+00
   SP5   P3h  1 4.300000e-01    3.770000e+00
   SP5   P4h  1 4.300000e-01    3.970000e+00
   SP5   P5r  1 4.300000e-01    4.170000e+00
   SP5  X1er  1 4.300000e-01    2.320000e+00
   SP5  X2er  1 4.300000e-01    2.770000e+00
   SP5  X3er  1 4.300000e-01    2.770000e+00
   SP5  X4er  1 4.300000e-01    2.920000e+00
   SP5  C1er  1 4.300000e-01    1.930000e+00
   SP5  C2er  1 4.300000e-01    2.160000e+00
   SP5  C3er  1 4.300000e-01    2.160000e+00
   SP5  C4er  1 4.300000e-01    2.320000e+00
   SP5  C5er  1 4.300000e-01    2.530000e+00
   SP5  C6er  1 4.300000e-01    2.530000e+00
   SP5  X1vr  1 4.300000e-01    2.320000e+00
   SP5  X2vr  1 4.300000e-01    2.770000e+00
   SP5  X3vr  1 4.300000e-01    2.770000e+00
   SP5  X4vr  1 4.300000e-01    2.920000e+00
   SP5  C1vr  1 4.300000e-01    1.930000e+00
   SP5  C2vr  1 4.300000e-01    2.160000e+00
   SP5  C3vr  1 4.300000e-01    2.160000e+00
   SP5  C4vr  1 4.300000e-01    2.320000e+00
   SP5  C5vr  1 4.300000e-01    2.530000e+00
   SP5  C6vr  1 4.300000e-01    2.530000e+00
   SP5  N1ar  1 4.300000e-01    2.320000e+00
   SP5  N2ar  1 4.300000e-01    2.530000e+00
   SP5  N3ar  1 4.300000e-01    2.770000e+00
   SP5  N4ar  1 4.300000e-01    3.160000e+00
   SP5  N5ar  1 4.300000e-01    3.160000e+00
   SP5  N6ar  1 4.300000e-01    3.380000e+00
   SP5  P1ar  1 4.300000e-01    3.590000e+00
   SP5  P2ar  1 4.300000e-01    3.770000e+00
   SP5  P3ar  1 4.300000e-01    3.770000e+00
   SP5  P4ar  1 4.300000e-01    3.970000e+00
   SP5  P5ar  1 4.300000e-01    4.170000e+00
   SP5  N1dr  1 4.300000e-01    2.320000e+00
   SP5  N2dr  1 4.300000e-01    2.530000e+00
   SP5  N3dr  1 4.300000e-01    2.770000e+00
   SP5  N4dr  1 4.300000e-01    3.160000e+00
   SP5  N5dr  1 4.300000e-01    3.160000e+00
   SP5  N6dr  1 4.300000e-01    3.380000e+00
   SP5  P1dr  1 4.300000e-01    3.590000e+00
   SP5  P2dr  1 4.300000e-01    3.770000e+00
   SP5  P3dr  1 4.300000e-01    3.770000e+00
   SP5  P4dr  1 4.300000e-01    3.970000e+00
   SP5  P5dr  1 4.300000e-01    4.170000e+00
   SP5   X1r  1 4.300000e-01    2.160000e+00
   SP5   X2r  1 4.300000e-01    2.530000e+00
   SP5   X3r  1 4.300000e-01    2.530000e+00
   SP5   X4r  1 4.300000e-01    2.770000e+00
   SP5   C1r  1 4.300000e-01    1.730000e+00
   SP5   C2r  1 4.300000e-01    1.930000e+00
   SP5   C3r  1 4.300000e-01    1.930000e+00
   SP5   C4r  1 4.300000e-01    2.160000e+00
   SP5   C5r  1 4.300000e-01    2.320000e+00
   SP5   C6r  1 4.300000e-01    2.320000e+00
   SP5   N1r  1 4.300000e-01    2.320000e+00
   SP5   N2r  1 4.300000e-01    2.530000e+00
   SP5   N3r  1 4.300000e-01    2.770000e+00
   SP5   N4r  1 4.300000e-01    3.160000e+00
   SP5   N5r  1 4.300000e-01    3.160000e+00
   SP5   N6r  1 4.300000e-01    3.380000e+00
   SP5   P1r  1 4.300000e-01    3.590000e+00
   SP5   P2r  1 4.300000e-01    3.770000e+00
   SP5   P3r  1 4.300000e-01    3.770000e+00
   SP5   P4r  1 4.300000e-01    3.970000e+00
   SP5   SP5  1 4.100000e-01    3.820000e+00
   SP5   SP4  1 4.100000e-01    3.550000e+00
   SP5   SP3  1 4.100000e-01    3.310000e+00
   SP5   SP2  1 4.100000e-01    3.310000e+00
   SP5   SP1  1 4.100000e-01    3.070000e+00
   SP5   SN6  1 4.100000e-01    2.840000e+00
   SP5   SN5  1 4.100000e-01    2.600000e+00
   SP5   SN4  1 4.100000e-01    2.600000e+00
   SP5   SN3  1 4.100000e-01    2.200000e+00
   SP5   SN2  1 4.100000e-01    2.040000e+00
   SP5   SN1  1 4.100000e-01    1.910000e+00
   SP5   SC6  1 4.100000e-01    1.910000e+00
   SP5   SC5  1 4.100000e-01    1.910000e+00
   SP5   SC4  1 4.100000e-01    1.750000e+00
   SP5   SC3  1 4.140000e-01    1.560000e+00
   SP5   SC2  1 4.140000e-01    1.560000e+00
   SP5   SC1  1 4.180000e-01    1.400000e+00
   SP5   SX4  1 4.100000e-01    2.200000e+00
   SP5   SX3  1 4.100000e-01    2.040000e+00
   SP5   SX2  1 4.100000e-01    2.040000e+00
   SP5   SX1  1 4.100000e-01    1.750000e+00
  SP6d   SP5  1 4.100000e-01    4.040000e+00
   SP5  SP5d  1 4.100000e-01    3.820000e+00
   SP5  SN1d  1 4.100000e-01    1.910000e+00
   SP5  SN2d  1 4.100000e-01    2.040000e+00
   SP5  SN3d  1 4.100000e-01    2.200000e+00
   SP5  SN4d  1 4.100000e-01    2.600000e+00
   SP5  SN5d  1 4.100000e-01    2.600000e+00
   SP5  SN6d  1 4.100000e-01    2.840000e+00
   SP5  SP1d  1 4.100000e-01    3.070000e+00
   SP5  SP2d  1 4.100000e-01    3.310000e+00
   SP5  SP3d  1 4.100000e-01    3.310000e+00
   SP5  SP4d  1 4.100000e-01    3.550000e+00
  SP6a   SP5  1 4.100000e-01    4.040000e+00
   SP5  SP5a  1 4.100000e-01    3.820000e+00
   SP5  SN1a  1 4.100000e-01    1.910000e+00
   SP5  SN2a  1 4.100000e-01    2.040000e+00
   SP5  SN3a  1 4.100000e-01    2.200000e+00
   SP5  SN4a  1 4.100000e-01    2.600000e+00
   SP5  SN5a  1 4.100000e-01    2.600000e+00
   SP5  SN6a  1 4.100000e-01    2.840000e+00
   SP5  SP1a  1 4.100000e-01    3.070000e+00
   SP5  SP2a  1 4.100000e-01    3.310000e+00
   SP5  SP3a  1 4.100000e-01    3.310000e+00
   SP5  SP4a  1 4.100000e-01    3.550000e+00
   SP5  SC6v  1 4.100000e-01    2.040000e+00
   SP5  SC5v  1 4.100000e-01    2.040000e+00
   SP5  SC4v  1 4.100000e-01    1.910000e+00
   SP5  SC3v  1 4.100000e-01    1.750000e+00
   SP5  SC2v  1 4.100000e-01    1.750000e+00
   SP5  SC1v  1 4.140000e-01    1.560000e+00
   SP5  SX4v  1 4.100000e-01    2.350000e+00
   SP5  SX3v  1 4.100000e-01    2.200000e+00
   SP5  SX2v  1 4.100000e-01    2.200000e+00
   SP5  SX1v  1 4.100000e-01    1.910000e+00
   SP5  SC6e  1 4.100000e-01    2.040000e+00
   SP5  SC5e  1 4.100000e-01    2.040000e+00
   SP5  SC4e  1 4.100000e-01    1.910000e+00
   SP5  SC3e  1 4.100000e-01    1.750000e+00
   SP5  SC2e  1 4.100000e-01    1.750000e+00
   SP5  SC1e  1 4.140000e-01    1.560000e+00
   SP5  SX4e  1 4.100000e-01    2.350000e+00
   SP5  SX3e  1 4.100000e-01    2.200000e+00
   SP5  SX2e  1 4.100000e-01    2.200000e+00
   SP5  SX1e  1 4.100000e-01    1.910000e+00
  SP6q   SP5  1 4.100000e-01    4.550000e+00
   SP5  SP5q  1 4.100000e-01    4.290000e+00
   SP5 SX1eq  1 4.100000e-01    2.200000e+00
   SP5 SX2eq  1 4.100000e-01    2.600000e+00
   SP5 SX3eq  1 4.100000e-01    2.600000e+00
   SP5 SX4eq  1 4.100000e-01    2.840000e+00
   SP5 SC1eq  1 4.100000e-01    1.910000e+00
   SP5 SC2eq  1 4.100000e-01    2.040000e+00
   SP5 SC3eq  1 4.100000e-01    2.040000e+00
   SP5 SC4eq  1 4.100000e-01    2.200000e+00
   SP5 SC5eq  1 4.100000e-01    2.350000e+00
   SP5 SC6eq  1 4.100000e-01    2.350000e+00
   SP5 SX1vq  1 4.100000e-01    2.200000e+00
   SP5 SX2vq  1 4.100000e-01    2.600000e+00
   SP5 SX3vq  1 4.100000e-01    2.600000e+00
   SP5 SX4vq  1 4.100000e-01    2.840000e+00
   SP5 SC1vq  1 4.100000e-01    1.910000e+00
   SP5 SC2vq  1 4.100000e-01    2.040000e+00
   SP5 SC3vq  1 4.100000e-01    2.040000e+00
   SP5 SC4vq  1 4.100000e-01    2.200000e+00
   SP5 SC5vq  1 4.100000e-01    2.350000e+00
   SP5 SC6vq  1 4.100000e-01    2.350000e+00
   SP5 SN1aq  1 4.100000e-01    2.200000e+00
   SP5 SN2aq  1 4.100000e-01    2.350000e+00
   SP5 SN3aq  1 4.100000e-01    2.600000e+00
   SP5 SN4aq  1 4.100000e-01    3.070000e+00
   SP5 SN5aq  1 4.100000e-01    3.070000e+00
   SP5 SN6aq  1 4.100000e-01    3.310000e+00
   SP5 SP1aq  1 4.100000e-01    3.550000e+00
   SP5 SP2aq  1 4.100000e-01    3.820000e+00
   SP5 SP3aq  1 4.100000e-01    3.820000e+00
   SP5 SP4aq  1 4.100000e-01    4.040000e+00
   SP5 SP5aq  1 4.100000e-01    4.290000e+00
 SP6aq   SP5  1 4.100000e-01    4.550000e+00
   SP5 SN1dq  1 4.100000e-01    2.200000e+00
   SP5 SN2dq  1 4.100000e-01    2.350000e+00
   SP5 SN3dq  1 4.100000e-01    2.600000e+00
   SP5 SN4dq  1 4.100000e-01    3.070000e+00
   SP5 SN5dq  1 4.100000e-01    3.070000e+00
   SP5 SN6dq  1 4.100000e-01    3.310000e+00
   SP5 SP1dq  1 4.100000e-01    3.550000e+00
   SP5 SP2dq  1 4.100000e-01    3.820000e+00
   SP5 SP3dq  1 4.100000e-01    3.820000e+00
   SP5 SP4dq  1 4.100000e-01    4.040000e+00
   SP5 SP5dq  1 4.100000e-01    4.290000e+00
 SP6dq   SP5  1 4.100000e-01    4.550000e+00
   SP5  SX1q  1 4.100000e-01    2.040000e+00
   SP5  SX2q  1 4.100000e-01    2.350000e+00
   SP5  SX3q  1 4.100000e-01    2.350000e+00
   SP5  SX4q  1 4.100000e-01    2.600000e+00
   SP5  SC1q  1 4.100000e-01    1.750000e+00
   SP5  SC2q  1 4.100000e-01    1.910000e+00
   SP5  SC3q  1 4.100000e-01    1.910000e+00
   SP5  SC4q  1 4.100000e-01    2.040000e+00
   SP5  SC5q  1 4.100000e-01    2.200000e+00
   SP5  SC6q  1 4.100000e-01    2.200000e+00
   SP5  SN1q  1 4.100000e-01    2.200000e+00
   SP5  SN2q  1 4.100000e-01    2.350000e+00
   SP5  SN3q  1 4.100000e-01    2.600000e+00
   SP5  SN4q  1 4.100000e-01    3.070000e+00
   SP5  SN5q  1 4.100000e-01    3.070000e+00
   SP5  SN6q  1 4.100000e-01    3.310000e+00
   SP5  SP1q  1 4.100000e-01    3.550000e+00
   SP5  SP2q  1 4.100000e-01    3.820000e+00
   SP5  SP3q  1 4.100000e-01    3.820000e+00
   SP5  SP4q  1 4.100000e-01    4.040000e+00
  SP6h   SP5  1 4.100000e-01    4.040000e+00
   SP5  SP5h  1 4.100000e-01    3.820000e+00
   SP5 SX1eh  1 4.100000e-01    1.910000e+00
   SP5 SX2eh  1 4.100000e-01    2.200000e+00
   SP5 SX3eh  1 4.100000e-01    2.200000e+00
   SP5 SX4eh  1 4.100000e-01    2.350000e+00
   SP5 SC1eh  1 4.140000e-01    1.560000e+00
   SP5 SC2eh  1 4.100000e-01    1.750000e+00
   SP5 SC3eh  1 4.100000e-01    1.750000e+00
   SP5 SC4eh  1 4.100000e-01    1.910000e+00
   SP5 SC5eh  1 4.100000e-01    2.040000e+00
   SP5 SC6eh  1 4.100000e-01    2.040000e+00
   SP5 SX1vh  1 4.100000e-01    1.910000e+00
   SP5 SX2vh  1 4.100000e-01    2.200000e+00
   SP5 SX3vh  1 4.100000e-01    2.200000e+00
   SP5 SX4vh  1 4.100000e-01    2.350000e+00
   SP5 SC1vh  1 4.140000e-01    1.560000e+00
   SP5 SC2vh  1 4.100000e-01    1.750000e+00
   SP5 SC3vh  1 4.100000e-01    1.750000e+00
   SP5 SC4vh  1 4.100000e-01    1.910000e+00
   SP5 SC5vh  1 4.100000e-01    2.040000e+00
   SP5 SC6vh  1 4.100000e-01    2.040000e+00
   SP5 SN1ah  1 4.100000e-01    1.910000e+00
   SP5 SN2ah  1 4.100000e-01    2.040000e+00
   SP5 SN3ah  1 4.100000e-01    2.200000e+00
   SP5 SN4ah  1 4.100000e-01    2.600000e+00
   SP5 SN5ah  1 4.100000e-01    2.600000e+00
   SP5 SN6ah  1 4.100000e-01    2.840000e+00
   SP5 SP1ah  1 4.100000e-01    3.070000e+00
   SP5 SP2ah  1 4.100000e-01    3.310000e+00
   SP5 SP3ah  1 4.100000e-01    3.310000e+00
   SP5 SP4ah  1 4.100000e-01    3.550000e+00
   SP5 SP5ah  1 4.100000e-01    3.820000e+00
 SP6ah   SP5  1 4.100000e-01    4.040000e+00
   SP5 SN1dh  1 4.100000e-01    1.910000e+00
   SP5 SN2dh  1 4.100000e-01    2.040000e+00
   SP5 SN3dh  1 4.100000e-01    2.200000e+00
   SP5 SN4dh  1 4.100000e-01    2.600000e+00
   SP5 SN5dh  1 4.100000e-01    2.600000e+00
   SP5 SN6dh  1 4.100000e-01    2.840000e+00
   SP5 SP1dh  1 4.100000e-01    3.070000e+00
   SP5 SP2dh  1 4.100000e-01    3.310000e+00
   SP5 SP3dh  1 4.100000e-01    3.310000e+00
   SP5 SP4dh  1 4.100000e-01    3.550000e+00
   SP5 SP5dh  1 4.100000e-01    3.820000e+00
 SP6dh   SP5  1 4.100000e-01    4.040000e+00
   SP5  SX1h  1 4.100000e-01    1.750000e+00
   SP5  SX2h  1 4.100000e-01    2.040000e+00
   SP5  SX3h  1 4.100000e-01    2.040000e+00
   SP5  SX4h  1 4.100000e-01    2.200000e+00
   SP5  SC1h  1 4.180000e-01    1.400000e+00
   SP5  SC2h  1 4.140000e-01    1.560000e+00
   SP5  SC3h  1 4.140000e-01    1.560000e+00
   SP5  SC4h  1 4.100000e-01    1.750000e+00
   SP5  SC5h  1 4.100000e-01    1.910000e+00
   SP5  SC6h  1 4.100000e-01    1.910000e+00
   SP5  SN1h  1 4.100000e-01    1.910000e+00
   SP5  SN2h  1 4.100000e-01    2.040000e+00
   SP5  SN3h  1 4.100000e-01    2.200000e+00
   SP5  SN4h  1 4.100000e-01    2.600000e+00
   SP5  SN5h  1 4.100000e-01    2.600000e+00
   SP5  SN6h  1 4.100000e-01    2.840000e+00
   SP5  SP1h  1 4.100000e-01    3.070000e+00
   SP5  SP2h  1 4.100000e-01    3.310000e+00
   SP5  SP3h  1 4.100000e-01    3.310000e+00
   SP5  SP4h  1 4.100000e-01    3.550000e+00
  SP6r   SP5  1 4.100000e-01    4.040000e+00
   SP5  SP5r  1 4.100000e-01    3.820000e+00
   SP5 SX1er  1 4.100000e-01    1.910000e+00
   SP5 SX2er  1 4.100000e-01    2.200000e+00
   SP5 SX3er  1 4.100000e-01    2.200000e+00
   SP5 SX4er  1 4.100000e-01    2.350000e+00
   SP5 SC1er  1 4.140000e-01    1.560000e+00
   SP5 SC2er  1 4.100000e-01    1.750000e+00
   SP5 SC3er  1 4.100000e-01    1.750000e+00
   SP5 SC4er  1 4.100000e-01    1.910000e+00
   SP5 SC5er  1 4.100000e-01    2.040000e+00
   SP5 SC6er  1 4.100000e-01    2.040000e+00
   SP5 SX1vr  1 4.100000e-01    1.910000e+00
   SP5 SX2vr  1 4.100000e-01    2.200000e+00
   SP5 SX3vr  1 4.100000e-01    2.200000e+00
   SP5 SX4vr  1 4.100000e-01    2.350000e+00
   SP5 SC1vr  1 4.140000e-01    1.560000e+00
   SP5 SC2vr  1 4.100000e-01    1.750000e+00
   SP5 SC3vr  1 4.100000e-01    1.750000e+00
   SP5 SC4vr  1 4.100000e-01    1.910000e+00
   SP5 SC5vr  1 4.100000e-01    2.040000e+00
   SP5 SC6vr  1 4.100000e-01    2.040000e+00
   SP5 SN1ar  1 4.100000e-01    1.910000e+00
   SP5 SN2ar  1 4.100000e-01    2.040000e+00
   SP5 SN3ar  1 4.100000e-01    2.200000e+00
   SP5 SN4ar  1 4.100000e-01    2.600000e+00
   SP5 SN5ar  1 4.100000e-01    2.600000e+00
   SP5 SN6ar  1 4.100000e-01    2.840000e+00
   SP5 SP1ar  1 4.100000e-01    3.070000e+00
   SP5 SP2ar  1 4.100000e-01    3.310000e+00
   SP5 SP3ar  1 4.100000e-01    3.310000e+00
   SP5 SP4ar  1 4.100000e-01    3.550000e+00
   SP5 SP5ar  1 4.100000e-01    3.820000e+00
 SP6ar   SP5  1 4.100000e-01    4.040000e+00
   SP5 SN1dr  1 4.100000e-01    1.910000e+00
   SP5 SN2dr  1 4.100000e-01    2.040000e+00
   SP5 SN3dr  1 4.100000e-01    2.200000e+00
   SP5 SN4dr  1 4.100000e-01    2.600000e+00
   SP5 SN5dr  1 4.100000e-01    2.600000e+00
   SP5 SN6dr  1 4.100000e-01    2.840000e+00
   SP5 SP1dr  1 4.100000e-01    3.070000e+00
   SP5 SP2dr  1 4.100000e-01    3.310000e+00
   SP5 SP3dr  1 4.100000e-01    3.310000e+00
   SP5 SP4dr  1 4.100000e-01    3.550000e+00
   SP5 SP5dr  1 4.100000e-01    3.820000e+00
 SP6dr   SP5  1 4.100000e-01    4.040000e+00
   SP5  SX1r  1 4.100000e-01    1.750000e+00
   SP5  SX2r  1 4.100000e-01    2.040000e+00
   SP5  SX3r  1 4.100000e-01    2.040000e+00
   SP5  SX4r  1 4.100000e-01    2.200000e+00
   SP5  SC1r  1 4.180000e-01    1.400000e+00
   SP5  SC2r  1 4.140000e-01    1.560000e+00
   SP5  SC3r  1 4.140000e-01    1.560000e+00
   SP5  SC4r  1 4.100000e-01    1.750000e+00
   SP5  SC5r  1 4.100000e-01    1.910000e+00
   SP5  SC6r  1 4.100000e-01    1.910000e+00
   SP5  SN1r  1 4.100000e-01    1.910000e+00
   SP5  SN2r  1 4.100000e-01    2.040000e+00
   SP5  SN3r  1 4.100000e-01    2.200000e+00
   SP5  SN4r  1 4.100000e-01    2.600000e+00
   SP5  SN5r  1 4.100000e-01    2.600000e+00
   SP5  SN6r  1 4.100000e-01    2.840000e+00
   SP5  SP1r  1 4.100000e-01    3.070000e+00
   SP5  SP2r  1 4.100000e-01    3.310000e+00
   SP5  SP3r  1 4.100000e-01    3.310000e+00
   SP5  SP4r  1 4.100000e-01    3.550000e+00
   SP5   TP5  1 3.650000e-01    3.370000e+00
   SP5   TP4  1 3.650000e-01    3.100000e+00
   SP5   TP3  1 3.650000e-01    2.830000e+00
   SP5   TP2  1 3.650000e-01    2.830000e+00
   SP5   TP1  1 3.650000e-01    2.570000e+00
   SP5   TN6  1 3.650000e-01    2.340000e+00
   SP5   TN5  1 3.650000e-01    2.110000e+00
   SP5   TN4  1 3.650000e-01    2.110000e+00
   SP5   TN3  1 3.650000e-01    1.750000e+00
   SP5   TN2  1 3.660000e-01    1.600000e+00
   SP5   TN1  1 3.780000e-01    1.450000e+00
   SP5   TC6  1 3.780000e-01    1.450000e+00
   SP5   TC5  1 3.780000e-01    1.450000e+00
   SP5   TC4  1 3.940000e-01    1.290000e+00
   SP5   TC3  1 4.040000e-01    1.130000e+00
   SP5   TC2  1 4.040000e-01    1.130000e+00
   SP5   TC1  1 4.090000e-01    1.080000e+00
   SP5   TX4  1 3.650000e-01    1.750000e+00
   SP5   TX3  1 3.660000e-01    1.600000e+00
   SP5   TX2  1 3.660000e-01    1.600000e+00
   SP5   TX1  1 3.940000e-01    1.290000e+00
   SP5  TP5d  1 3.650000e-01    3.370000e+00
   SP5  TN1d  1 3.780000e-01    1.450000e+00
   SP5  TN2d  1 3.660000e-01    1.600000e+00
   SP5  TN3d  1 3.650000e-01    1.750000e+00
   SP5  TN4d  1 3.650000e-01    2.110000e+00
   SP5  TN5d  1 3.650000e-01    2.110000e+00
   SP5  TN6d  1 3.650000e-01    2.340000e+00
   SP5  TP1d  1 3.650000e-01    2.570000e+00
   SP5  TP2d  1 3.650000e-01    2.830000e+00
   SP5  TP3d  1 3.650000e-01    2.830000e+00
   SP5  TP4d  1 3.650000e-01    3.100000e+00
   SP5  TP5a  1 3.650000e-01    3.370000e+00
   SP5  TN1a  1 3.780000e-01    1.450000e+00
   SP5  TN2a  1 3.660000e-01    1.600000e+00
   SP5  TN3a  1 3.650000e-01    1.750000e+00
   SP5  TN4a  1 3.650000e-01    2.110000e+00
   SP5  TN5a  1 3.650000e-01    2.110000e+00
   SP5  TN6a  1 3.650000e-01    2.340000e+00
   SP5  TP1a  1 3.650000e-01    2.570000e+00
   SP5  TP2a  1 3.650000e-01    2.830000e+00
   SP5  TP3a  1 3.650000e-01    2.830000e+00
   SP5  TP4a  1 3.650000e-01    3.100000e+00
   SP5  TC6v  1 3.660000e-01    1.600000e+00
   SP5  TC5v  1 3.660000e-01    1.600000e+00
   SP5  TC4v  1 3.780000e-01    1.450000e+00
   SP5  TC3v  1 3.940000e-01    1.290000e+00
   SP5  TC2v  1 3.940000e-01    1.290000e+00
   SP5  TC1v  1 4.040000e-01    1.130000e+00
   SP5  TX4v  1 3.650000e-01    1.910000e+00
   SP5  TX3v  1 3.650000e-01    1.750000e+00
   SP5  TX2v  1 3.650000e-01    1.750000e+00
   SP5  TX1v  1 3.780000e-01    1.450000e+00
   SP5  TC6e  1 3.660000e-01    1.600000e+00
   SP5  TC5e  1 3.660000e-01    1.600000e+00
   SP5  TC4e  1 3.780000e-01    1.450000e+00
   SP5  TC3e  1 3.940000e-01    1.290000e+00
   SP5  TC2e  1 3.940000e-01    1.290000e+00
   SP5  TC1e  1 4.040000e-01    1.130000e+00
   SP5  TX4e  1 3.650000e-01    1.910000e+00
   SP5  TX3e  1 3.650000e-01    1.750000e+00
   SP5  TX2e  1 3.650000e-01    1.750000e+00
   SP5  TX1e  1 3.780000e-01    1.450000e+00
   SP5  TP5q  1 3.650000e-01    3.930000e+00
   SP5 TX1eq  1 3.650000e-01    1.750000e+00
   SP5 TX2eq  1 3.650000e-01    2.110000e+00
   SP5 TX3eq  1 3.650000e-01    2.110000e+00
   SP5 TX4eq  1 3.650000e-01    2.340000e+00
   SP5 TC1eq  1 3.780000e-01    1.450000e+00
   SP5 TC2eq  1 3.660000e-01    1.600000e+00
   SP5 TC3eq  1 3.660000e-01    1.600000e+00
   SP5 TC4eq  1 3.650000e-01    1.750000e+00
   SP5 TC5eq  1 3.650000e-01    1.910000e+00
   SP5 TC6eq  1 3.650000e-01    1.910000e+00
   SP5 TX1vq  1 3.650000e-01    1.750000e+00
   SP5 TX2vq  1 3.650000e-01    2.110000e+00
   SP5 TX3vq  1 3.650000e-01    2.110000e+00
   SP5 TX4vq  1 3.650000e-01    2.340000e+00
   SP5 TC1vq  1 3.780000e-01    1.450000e+00
   SP5 TC2vq  1 3.660000e-01    1.600000e+00
   SP5 TC3vq  1 3.660000e-01    1.600000e+00
   SP5 TC4vq  1 3.650000e-01    1.750000e+00
   SP5 TC5vq  1 3.650000e-01    1.910000e+00
   SP5 TC6vq  1 3.650000e-01    1.910000e+00
   SP5 TN1aq  1 3.650000e-01    1.750000e+00
   SP5 TN2aq  1 3.650000e-01    1.910000e+00
   SP5 TN3aq  1 3.650000e-01    2.110000e+00
   SP5 TN4aq  1 3.650000e-01    2.570000e+00
   SP5 TN5aq  1 3.650000e-01    2.570000e+00
   SP5 TN6aq  1 3.650000e-01    2.830000e+00
   SP5 TP1aq  1 3.650000e-01    3.100000e+00
   SP5 TP2aq  1 3.650000e-01    3.370000e+00
   SP5 TP3aq  1 3.650000e-01    3.370000e+00
   SP5 TP4aq  1 3.650000e-01    3.640000e+00
   SP5 TP5aq  1 3.650000e-01    3.930000e+00
   SP5 TN1dq  1 3.650000e-01    1.750000e+00
   SP5 TN2dq  1 3.650000e-01    1.910000e+00
   SP5 TN3dq  1 3.650000e-01    2.110000e+00
   SP5 TN4dq  1 3.650000e-01    2.570000e+00
   SP5 TN5dq  1 3.650000e-01    2.570000e+00
   SP5 TN6dq  1 3.650000e-01    2.830000e+00
   SP5 TP1dq  1 3.650000e-01    3.100000e+00
   SP5 TP2dq  1 3.650000e-01    3.370000e+00
   SP5 TP3dq  1 3.650000e-01    3.370000e+00
   SP5 TP4dq  1 3.650000e-01    3.640000e+00
   SP5 TP5dq  1 3.650000e-01    3.930000e+00
   SP5  TX1q  1 3.660000e-01    1.600000e+00
   SP5  TX2q  1 3.650000e-01    1.910000e+00
   SP5  TX3q  1 3.650000e-01    1.910000e+00
   SP5  TX4q  1 3.650000e-01    2.110000e+00
   SP5  TC1q  1 3.940000e-01    1.290000e+00
   SP5  TC2q  1 3.780000e-01    1.450000e+00
   SP5  TC3q  1 3.780000e-01    1.450000e+00
   SP5  TC4q  1 3.660000e-01    1.600000e+00
   SP5  TC5q  1 3.650000e-01    1.750000e+00
   SP5  TC6q  1 3.650000e-01    1.750000e+00
   SP5  TN1q  1 3.650000e-01    1.750000e+00
   SP5  TN2q  1 3.650000e-01    1.910000e+00
   SP5  TN3q  1 3.650000e-01    2.110000e+00
   SP5  TN4q  1 3.650000e-01    2.570000e+00
   SP5  TN5q  1 3.650000e-01    2.570000e+00
   SP5  TN6q  1 3.650000e-01    2.830000e+00
   SP5  TP1q  1 3.650000e-01    3.100000e+00
   SP5  TP2q  1 3.650000e-01    3.370000e+00
   SP5  TP3q  1 3.650000e-01    3.370000e+00
   SP5  TP4q  1 3.650000e-01    3.640000e+00
   SP5  TP5h  1 3.650000e-01    3.370000e+00
   SP5 TX1eh  1 3.780000e-01    1.450000e+00
   SP5 TX2eh  1 3.650000e-01    1.750000e+00
   SP5 TX3eh  1 3.650000e-01    1.750000e+00
   SP5 TX4eh  1 3.650000e-01    1.910000e+00
   SP5 TC1eh  1 4.040000e-01    1.130000e+00
   SP5 TC2eh  1 3.940000e-01    1.290000e+00
   SP5 TC3eh  1 3.940000e-01    1.290000e+00
   SP5 TC4eh  1 3.780000e-01    1.450000e+00
   SP5 TC5eh  1 3.660000e-01    1.600000e+00
   SP5 TC6eh  1 3.660000e-01    1.600000e+00
   SP5 TX1vh  1 3.780000e-01    1.450000e+00
   SP5 TX2vh  1 3.650000e-01    1.750000e+00
   SP5 TX3vh  1 3.650000e-01    1.750000e+00
   SP5 TX4vh  1 3.650000e-01    1.910000e+00
   SP5 TC1vh  1 4.040000e-01    1.130000e+00
   SP5 TC2vh  1 3.940000e-01    1.290000e+00
   SP5 TC3vh  1 3.940000e-01    1.290000e+00
   SP5 TC4vh  1 3.780000e-01    1.450000e+00
   SP5 TC5vh  1 3.660000e-01    1.600000e+00
   SP5 TC6vh  1 3.660000e-01    1.600000e+00
   SP5 TN1ah  1 3.780000e-01    1.450000e+00
   SP5 TN2ah  1 3.660000e-01    1.600000e+00
   SP5 TN3ah  1 3.650000e-01    1.750000e+00
   SP5 TN4ah  1 3.650000e-01    2.110000e+00
   SP5 TN5ah  1 3.650000e-01    2.110000e+00
   SP5 TN6ah  1 3.650000e-01    2.340000e+00
   SP5 TP1ah  1 3.650000e-01    2.570000e+00
   SP5 TP2ah  1 3.650000e-01    2.830000e+00
   SP5 TP3ah  1 3.650000e-01    2.830000e+00
   SP5 TP4ah  1 3.650000e-01    3.100000e+00
   SP5 TP5ah  1 3.650000e-01    3.370000e+00
   SP5 TN1dh  1 3.780000e-01    1.450000e+00
   SP5 TN2dh  1 3.660000e-01    1.600000e+00
   SP5 TN3dh  1 3.650000e-01    1.750000e+00
   SP5 TN4dh  1 3.650000e-01    2.110000e+00
   SP5 TN5dh  1 3.650000e-01    2.110000e+00
   SP5 TN6dh  1 3.650000e-01    2.340000e+00
   SP5 TP1dh  1 3.650000e-01    2.570000e+00
   SP5 TP2dh  1 3.650000e-01    2.830000e+00
   SP5 TP3dh  1 3.650000e-01    2.830000e+00
   SP5 TP4dh  1 3.650000e-01    3.100000e+00
   SP5 TP5dh  1 3.650000e-01    3.370000e+00
   SP5  TX1h  1 3.940000e-01    1.290000e+00
   SP5  TX2h  1 3.660000e-01    1.600000e+00
   SP5  TX3h  1 3.660000e-01    1.600000e+00
   SP5  TX4h  1 3.650000e-01    1.750000e+00
   SP5  TC1h  1 4.090000e-01    1.080000e+00
   SP5  TC2h  1 4.040000e-01    1.130000e+00
   SP5  TC3h  1 4.040000e-01    1.130000e+00
   SP5  TC4h  1 3.940000e-01    1.290000e+00
   SP5  TC5h  1 3.780000e-01    1.450000e+00
   SP5  TC6h  1 3.780000e-01    1.450000e+00
   SP5  TN1h  1 3.780000e-01    1.450000e+00
   SP5  TN2h  1 3.660000e-01    1.600000e+00
   SP5  TN3h  1 3.650000e-01    1.750000e+00
   SP5  TN4h  1 3.650000e-01    2.110000e+00
   SP5  TN5h  1 3.650000e-01    2.110000e+00
   SP5  TN6h  1 3.650000e-01    2.340000e+00
   SP5  TP1h  1 3.650000e-01    2.570000e+00
   SP5  TP2h  1 3.650000e-01    2.830000e+00
   SP5  TP3h  1 3.650000e-01    2.830000e+00
   SP5  TP4h  1 3.650000e-01    3.100000e+00
   SP5  TP5r  1 3.650000e-01    3.370000e+00
   SP5 TX1er  1 3.780000e-01    1.450000e+00
   SP5 TX2er  1 3.650000e-01    1.750000e+00
   SP5 TX3er  1 3.650000e-01    1.750000e+00
   SP5 TX4er  1 3.650000e-01    1.910000e+00
   SP5 TC1er  1 4.040000e-01    1.130000e+00
   SP5 TC2er  1 3.940000e-01    1.290000e+00
   SP5 TC3er  1 3.940000e-01    1.290000e+00
   SP5 TC4er  1 3.780000e-01    1.450000e+00
   SP5 TC5er  1 3.660000e-01    1.600000e+00
   SP5 TC6er  1 3.660000e-01    1.600000e+00
   SP5 TX1vr  1 3.780000e-01    1.450000e+00
   SP5 TX2vr  1 3.650000e-01    1.750000e+00
   SP5 TX3vr  1 3.650000e-01    1.750000e+00
   SP5 TX4vr  1 3.650000e-01    1.910000e+00
   SP5 TC1vr  1 4.040000e-01    1.130000e+00
   SP5 TC2vr  1 3.940000e-01    1.290000e+00
   SP5 TC3vr  1 3.940000e-01    1.290000e+00
   SP5 TC4vr  1 3.780000e-01    1.450000e+00
   SP5 TC5vr  1 3.660000e-01    1.600000e+00
   SP5 TC6vr  1 3.660000e-01    1.600000e+00
   SP5 TN1ar  1 3.780000e-01    1.450000e+00
   SP5 TN2ar  1 3.660000e-01    1.600000e+00
   SP5 TN3ar  1 3.650000e-01    1.750000e+00
   SP5 TN4ar  1 3.650000e-01    2.110000e+00
   SP5 TN5ar  1 3.650000e-01    2.110000e+00
   SP5 TN6ar  1 3.650000e-01    2.340000e+00
   SP5 TP1ar  1 3.650000e-01    2.570000e+00
   SP5 TP2ar  1 3.650000e-01    2.830000e+00
   SP5 TP3ar  1 3.650000e-01    2.830000e+00
   SP5 TP4ar  1 3.650000e-01    3.100000e+00
   SP5 TP5ar  1 3.650000e-01    3.370000e+00
   SP5 TN1dr  1 3.780000e-01    1.450000e+00
   SP5 TN2dr  1 3.660000e-01    1.600000e+00
   SP5 TN3dr  1 3.650000e-01    1.750000e+00
   SP5 TN4dr  1 3.650000e-01    2.110000e+00
   SP5 TN5dr  1 3.650000e-01    2.110000e+00
   SP5 TN6dr  1 3.650000e-01    2.340000e+00
   SP5 TP1dr  1 3.650000e-01    2.570000e+00
   SP5 TP2dr  1 3.650000e-01    2.830000e+00
   SP5 TP3dr  1 3.650000e-01    2.830000e+00
   SP5 TP4dr  1 3.650000e-01    3.100000e+00
   SP5 TP5dr  1 3.650000e-01    3.370000e+00
   SP5  TX1r  1 3.940000e-01    1.290000e+00
   SP5  TX2r  1 3.660000e-01    1.600000e+00
   SP5  TX3r  1 3.660000e-01    1.600000e+00
   SP5  TX4r  1 3.650000e-01    1.750000e+00
   SP5  TC1r  1 4.090000e-01    1.080000e+00
   SP5  TC2r  1 4.040000e-01    1.130000e+00
   SP5  TC3r  1 4.040000e-01    1.130000e+00
   SP5  TC4r  1 3.940000e-01    1.290000e+00
   SP5  TC5r  1 3.780000e-01    1.450000e+00
   SP5  TC6r  1 3.780000e-01    1.450000e+00
   SP5  TN1r  1 3.780000e-01    1.450000e+00
   SP5  TN2r  1 3.660000e-01    1.600000e+00
   SP5  TN3r  1 3.650000e-01    1.750000e+00
   SP5  TN4r  1 3.650000e-01    2.110000e+00
   SP5  TN5r  1 3.650000e-01    2.110000e+00
   SP5  TN6r  1 3.650000e-01    2.340000e+00
   SP5  TP1r  1 3.650000e-01    2.570000e+00
   SP5  TP2r  1 3.650000e-01    2.830000e+00
   SP5  TP3r  1 3.650000e-01    2.830000e+00
   SP5  TP4r  1 3.650000e-01    3.100000e+00
  TP6d   SP5  1 3.650000e-01    3.640000e+00
  TP6a   SP5  1 3.650000e-01    3.640000e+00
  TP6q   SP5  1 3.650000e-01    4.220000e+00
 TP6aq   SP5  1 3.650000e-01    4.220000e+00
 TP6dq   SP5  1 3.650000e-01    4.220000e+00
  TP6h   SP5  1 3.650000e-01    3.640000e+00
 TP6ah   SP5  1 3.650000e-01    3.640000e+00
 TP6dh   SP5  1 3.650000e-01    3.640000e+00
  TP6r   SP5  1 3.650000e-01    3.640000e+00
 TP6ar   SP5  1 3.650000e-01    3.640000e+00
 TP6dr   SP5  1 3.650000e-01    3.640000e+00
   P6d   TP5  1 3.950000e-01    3.910000e+00
   P6a   TP5  1 3.950000e-01    3.910000e+00
   P6q   TP5  1 3.950000e-01    4.540000e+00
  P6aq   TP5  1 3.950000e-01    4.540000e+00
  P6dq   TP5  1 3.950000e-01    4.540000e+00
   P6h   TP5  1 3.950000e-01    3.910000e+00
  P6ah   TP5  1 3.950000e-01    3.910000e+00
  P6dh   TP5  1 3.950000e-01    3.910000e+00
   P6r   TP5  1 3.950000e-01    3.910000e+00
  P6ar   TP5  1 3.950000e-01    3.910000e+00
  P6dr   TP5  1 3.950000e-01    3.910000e+00
   TP5    P4  1 3.950000e-01    3.430000e+00
   TP5    P3  1 3.950000e-01    3.190000e+00
   TP5    P2  1 3.950000e-01    3.190000e+00
   TP5    P1  1 3.950000e-01    2.940000e+00
   TP5    N6  1 3.950000e-01    2.700000e+00
   TP5    N5  1 3.950000e-01    2.500000e+00
   TP5    N4  1 3.950000e-01    2.500000e+00
   TP5    N3  1 3.950000e-01    2.110000e+00
   TP5    N2  1 3.950000e-01    1.850000e+00
   TP5    N1  1 3.950000e-01    1.670000e+00
   TP5    C6  1 3.950000e-01    1.670000e+00
   TP5    C5  1 3.950000e-01    1.670000e+00
   TP5    C4  1 3.980000e-01    1.450000e+00
   TP5    C3  1 3.990000e-01    1.180000e+00
   TP5    C2  1 3.990000e-01    1.180000e+00
   TP5    C1  1 4.010000e-01    9.830000e-01
   TP5    X4  1 3.950000e-01    2.110000e+00
   TP5    X3  1 3.950000e-01    1.850000e+00
   TP5    X2  1 3.950000e-01    1.850000e+00
   TP5    X1  1 3.980000e-01    1.450000e+00
   TP5   P5d  1 3.950000e-01    3.670000e+00
   TP5   N1d  1 3.950000e-01    1.670000e+00
   TP5   N2d  1 3.950000e-01    1.850000e+00
   TP5   N3d  1 3.950000e-01    2.110000e+00
   TP5   N4d  1 3.950000e-01    2.500000e+00
   TP5   N5d  1 3.950000e-01    2.500000e+00
   TP5   N6d  1 3.950000e-01    2.700000e+00
   TP5   P1d  1 3.950000e-01    2.940000e+00
   TP5   P2d  1 3.950000e-01    3.190000e+00
   TP5   P3d  1 3.950000e-01    3.190000e+00
   TP5   P4d  1 3.950000e-01    3.430000e+00
   TP5   P5a  1 3.950000e-01    3.670000e+00
   TP5   N1a  1 3.950000e-01    1.670000e+00
   TP5   N2a  1 3.950000e-01    1.850000e+00
   TP5   N3a  1 3.950000e-01    2.110000e+00
   TP5   N4a  1 3.950000e-01    2.500000e+00
   TP5   N5a  1 3.950000e-01    2.500000e+00
   TP5   N6a  1 3.950000e-01    2.700000e+00
   TP5   P1a  1 3.950000e-01    2.940000e+00
   TP5   P2a  1 3.950000e-01    3.190000e+00
   TP5   P3a  1 3.950000e-01    3.190000e+00
   TP5   P4a  1 3.950000e-01    3.430000e+00
   TP5   C6v  1 3.950000e-01    1.850000e+00
   TP5   C5v  1 3.950000e-01    1.850000e+00
   TP5   C4v  1 3.950000e-01    1.670000e+00
   TP5   C3v  1 3.980000e-01    1.450000e+00
   TP5   C2v  1 3.980000e-01    1.450000e+00
   TP5   C1v  1 3.990000e-01    1.180000e+00
   TP5   X4v  1 3.950000e-01    2.310000e+00
   TP5   X3v  1 3.950000e-01    2.110000e+00
   TP5   X2v  1 3.950000e-01    2.110000e+00
   TP5   X1v  1 3.950000e-01    1.670000e+00
   TP5   C6e  1 3.950000e-01    1.850000e+00
   TP5   C5e  1 3.950000e-01    1.850000e+00
   TP5   C4e  1 3.950000e-01    1.670000e+00
   TP5   C3e  1 3.980000e-01    1.450000e+00
   TP5   C2e  1 3.980000e-01    1.450000e+00
   TP5   C1e  1 3.990000e-01    1.180000e+00
   TP5   X4e  1 3.950000e-01    2.310000e+00
   TP5   X3e  1 3.950000e-01    2.110000e+00
   TP5   X2e  1 3.950000e-01    2.110000e+00
   TP5   X1e  1 3.950000e-01    1.670000e+00
   TP5   P5q  1 3.950000e-01    4.230000e+00
   TP5  X1eq  1 3.950000e-01    2.110000e+00
   TP5  X2eq  1 3.950000e-01    2.500000e+00
   TP5  X3eq  1 3.950000e-01    2.500000e+00
   TP5  X4eq  1 3.950000e-01    2.700000e+00
   TP5  C1eq  1 3.950000e-01    1.670000e+00
   TP5  C2eq  1 3.950000e-01    1.850000e+00
   TP5  C3eq  1 3.950000e-01    1.850000e+00
   TP5  C4eq  1 3.950000e-01    2.110000e+00
   TP5  C5eq  1 3.950000e-01    2.310000e+00
   TP5  C6eq  1 3.950000e-01    2.310000e+00
   TP5  X1vq  1 3.950000e-01    2.110000e+00
   TP5  X2vq  1 3.950000e-01    2.500000e+00
   TP5  X3vq  1 3.950000e-01    2.500000e+00
   TP5  X4vq  1 3.950000e-01    2.700000e+00
   TP5  C1vq  1 3.950000e-01    1.670000e+00
   TP5  C2vq  1 3.950000e-01    1.850000e+00
   TP5  C3vq  1 3.950000e-01    1.850000e+00
   TP5  C4vq  1 3.950000e-01    2.110000e+00
   TP5  C5vq  1 3.950000e-01    2.310000e+00
   TP5  C6vq  1 3.950000e-01    2.310000e+00
   TP5  N1aq  1 3.950000e-01    2.110000e+00
   TP5  N2aq  1 3.950000e-01    2.310000e+00
   TP5  N3aq  1 3.950000e-01    2.500000e+00
   TP5  N4aq  1 3.950000e-01    2.940000e+00
   TP5  N5aq  1 3.950000e-01    2.940000e+00
   TP5  N6aq  1 3.950000e-01    3.190000e+00
   TP5  P1aq  1 3.950000e-01    3.430000e+00
   TP5  P2aq  1 3.950000e-01    3.670000e+00
   TP5  P3aq  1 3.950000e-01    3.670000e+00
   TP5  P4aq  1 3.950000e-01    3.910000e+00
   TP5  P5aq  1 3.950000e-01    4.230000e+00
   TP5  N1dq  1 3.950000e-01    2.110000e+00
   TP5  N2dq  1 3.950000e-01    2.310000e+00
   TP5  N3dq  1 3.950000e-01    2.500000e+00
   TP5  N4dq  1 3.950000e-01    2.940000e+00
   TP5  N5dq  1 3.950000e-01    2.940000e+00
   TP5  N6dq  1 3.950000e-01    3.190000e+00
   TP5  P1dq  1 3.950000e-01    3.430000e+00
   TP5  P2dq  1 3.950000e-01    3.670000e+00
   TP5  P3dq  1 3.950000e-01    3.670000e+00
   TP5  P4dq  1 3.950000e-01    3.910000e+00
   TP5  P5dq  1 3.950000e-01    4.230000e+00
   TP5   X1q  1 3.950000e-01    1.850000e+00
   TP5   X2q  1 3.950000e-01    2.310000e+00
   TP5   X3q  1 3.950000e-01    2.310000e+00
   TP5   X4q  1 3.950000e-01    2.500000e+00
   TP5   C1q  1 3.980000e-01    1.450000e+00
   TP5   C2q  1 3.950000e-01    1.670000e+00
   TP5   C3q  1 3.950000e-01    1.670000e+00
   TP5   C4q  1 3.950000e-01    1.850000e+00
   TP5   C5q  1 3.950000e-01    2.110000e+00
   TP5   C6q  1 3.950000e-01    2.110000e+00
   TP5   N1q  1 3.950000e-01    2.110000e+00
   TP5   N2q  1 3.950000e-01    2.310000e+00
   TP5   N3q  1 3.950000e-01    2.500000e+00
   TP5   N4q  1 3.950000e-01    2.940000e+00
   TP5   N5q  1 3.950000e-01    2.940000e+00
   TP5   N6q  1 3.950000e-01    3.190000e+00
   TP5   P1q  1 3.950000e-01    3.430000e+00
   TP5   P2q  1 3.950000e-01    3.670000e+00
   TP5   P3q  1 3.950000e-01    3.670000e+00
   TP5   P4q  1 3.950000e-01    3.910000e+00
   TP5   P5h  1 3.950000e-01    3.670000e+00
   TP5  X1eh  1 3.950000e-01    1.670000e+00
   TP5  X2eh  1 3.950000e-01    2.110000e+00
   TP5  X3eh  1 3.950000e-01    2.110000e+00
   TP5  X4eh  1 3.950000e-01    2.310000e+00
   TP5  C1eh  1 3.990000e-01    1.180000e+00
   TP5  C2eh  1 3.980000e-01    1.450000e+00
   TP5  C3eh  1 3.980000e-01    1.450000e+00
   TP5  C4eh  1 3.950000e-01    1.670000e+00
   TP5  C5eh  1 3.950000e-01    1.850000e+00
   TP5  C6eh  1 3.950000e-01    1.850000e+00
   TP5  X1vh  1 3.950000e-01    1.670000e+00
   TP5  X2vh  1 3.950000e-01    2.110000e+00
   TP5  X3vh  1 3.950000e-01    2.110000e+00
   TP5  X4vh  1 3.950000e-01    2.310000e+00
   TP5  C1vh  1 3.990000e-01    1.180000e+00
   TP5  C2vh  1 3.980000e-01    1.450000e+00
   TP5  C3vh  1 3.980000e-01    1.450000e+00
   TP5  C4vh  1 3.950000e-01    1.670000e+00
   TP5  C5vh  1 3.950000e-01    1.850000e+00
   TP5  C6vh  1 3.950000e-01    1.850000e+00
   TP5  N1ah  1 3.950000e-01    1.670000e+00
   TP5  N2ah  1 3.950000e-01    1.850000e+00
   TP5  N3ah  1 3.950000e-01    2.110000e+00
   TP5  N4ah  1 3.950000e-01    2.500000e+00
   TP5  N5ah  1 3.950000e-01    2.500000e+00
   TP5  N6ah  1 3.950000e-01    2.700000e+00
   TP5  P1ah  1 3.950000e-01    2.940000e+00
   TP5  P2ah  1 3.950000e-01    3.190000e+00
   TP5  P3ah  1 3.950000e-01    3.190000e+00
   TP5  P4ah  1 3.950000e-01    3.430000e+00
   TP5  P5ah  1 3.950000e-01    3.670000e+00
   TP5  N1dh  1 3.950000e-01    1.670000e+00
   TP5  N2dh  1 3.950000e-01    1.850000e+00
   TP5  N3dh  1 3.950000e-01    2.110000e+00
   TP5  N4dh  1 3.950000e-01    2.500000e+00
   TP5  N5dh  1 3.950000e-01    2.500000e+00
   TP5  N6dh  1 3.950000e-01    2.700000e+00
   TP5  P1dh  1 3.950000e-01    2.940000e+00
   TP5  P2dh  1 3.950000e-01    3.190000e+00
   TP5  P3dh  1 3.950000e-01    3.190000e+00
   TP5  P4dh  1 3.950000e-01    3.430000e+00
   TP5  P5dh  1 3.950000e-01    3.670000e+00
   TP5   X1h  1 3.980000e-01    1.450000e+00
   TP5   X2h  1 3.950000e-01    1.850000e+00
   TP5   X3h  1 3.950000e-01    1.850000e+00
   TP5   X4h  1 3.950000e-01    2.110000e+00
   TP5   C1h  1 4.010000e-01    9.830000e-01
   TP5   C2h  1 3.990000e-01    1.180000e+00
   TP5   C3h  1 3.990000e-01    1.180000e+00
   TP5   C4h  1 3.980000e-01    1.450000e+00
   TP5   C5h  1 3.950000e-01    1.670000e+00
   TP5   C6h  1 3.950000e-01    1.670000e+00
   TP5   N1h  1 3.950000e-01    1.670000e+00
   TP5   N2h  1 3.950000e-01    1.850000e+00
   TP5   N3h  1 3.950000e-01    2.110000e+00
   TP5   N4h  1 3.950000e-01    2.500000e+00
   TP5   N5h  1 3.950000e-01    2.500000e+00
   TP5   N6h  1 3.950000e-01    2.700000e+00
   TP5   P1h  1 3.950000e-01    2.940000e+00
   TP5   P2h  1 3.950000e-01    3.190000e+00
   TP5   P3h  1 3.950000e-01    3.190000e+00
   TP5   P4h  1 3.950000e-01    3.430000e+00
   TP5   P5r  1 3.950000e-01    3.670000e+00
   TP5  X1er  1 3.950000e-01    1.670000e+00
   TP5  X2er  1 3.950000e-01    2.110000e+00
   TP5  X3er  1 3.950000e-01    2.110000e+00
   TP5  X4er  1 3.950000e-01    2.310000e+00
   TP5  C1er  1 3.990000e-01    1.180000e+00
   TP5  C2er  1 3.980000e-01    1.450000e+00
   TP5  C3er  1 3.980000e-01    1.450000e+00
   TP5  C4er  1 3.950000e-01    1.670000e+00
   TP5  C5er  1 3.950000e-01    1.850000e+00
   TP5  C6er  1 3.950000e-01    1.850000e+00
   TP5  X1vr  1 3.950000e-01    1.670000e+00
   TP5  X2vr  1 3.950000e-01    2.110000e+00
   TP5  X3vr  1 3.950000e-01    2.110000e+00
   TP5  X4vr  1 3.950000e-01    2.310000e+00
   TP5  C1vr  1 3.990000e-01    1.180000e+00
   TP5  C2vr  1 3.980000e-01    1.450000e+00
   TP5  C3vr  1 3.980000e-01    1.450000e+00
   TP5  C4vr  1 3.950000e-01    1.670000e+00
   TP5  C5vr  1 3.950000e-01    1.850000e+00
   TP5  C6vr  1 3.950000e-01    1.850000e+00
   TP5  N1ar  1 3.950000e-01    1.670000e+00
   TP5  N2ar  1 3.950000e-01    1.850000e+00
   TP5  N3ar  1 3.950000e-01    2.110000e+00
   TP5  N4ar  1 3.950000e-01    2.500000e+00
   TP5  N5ar  1 3.950000e-01    2.500000e+00
   TP5  N6ar  1 3.950000e-01    2.700000e+00
   TP5  P1ar  1 3.950000e-01    2.940000e+00
   TP5  P2ar  1 3.950000e-01    3.190000e+00
   TP5  P3ar  1 3.950000e-01    3.190000e+00
   TP5  P4ar  1 3.950000e-01    3.430000e+00
   TP5  P5ar  1 3.950000e-01    3.670000e+00
   TP5  N1dr  1 3.950000e-01    1.670000e+00
   TP5  N2dr  1 3.950000e-01    1.850000e+00
   TP5  N3dr  1 3.950000e-01    2.110000e+00
   TP5  N4dr  1 3.950000e-01    2.500000e+00
   TP5  N5dr  1 3.950000e-01    2.500000e+00
   TP5  N6dr  1 3.950000e-01    2.700000e+00
   TP5  P1dr  1 3.950000e-01    2.940000e+00
   TP5  P2dr  1 3.950000e-01    3.190000e+00
   TP5  P3dr  1 3.950000e-01    3.190000e+00
   TP5  P4dr  1 3.950000e-01    3.430000e+00
   TP5  P5dr  1 3.950000e-01    3.670000e+00
   TP5   X1r  1 3.980000e-01    1.450000e+00
   TP5   X2r  1 3.950000e-01    1.850000e+00
   TP5   X3r  1 3.950000e-01    1.850000e+00
   TP5   X4r  1 3.950000e-01    2.110000e+00
   TP5   C1r  1 4.010000e-01    9.830000e-01
   TP5   C2r  1 3.990000e-01    1.180000e+00
   TP5   C3r  1 3.990000e-01    1.180000e+00
   TP5   C4r  1 3.980000e-01    1.450000e+00
   TP5   C5r  1 3.950000e-01    1.670000e+00
   TP5   C6r  1 3.950000e-01    1.670000e+00
   TP5   N1r  1 3.950000e-01    1.670000e+00
   TP5   N2r  1 3.950000e-01    1.850000e+00
   TP5   N3r  1 3.950000e-01    2.110000e+00
   TP5   N4r  1 3.950000e-01    2.500000e+00
   TP5   N5r  1 3.950000e-01    2.500000e+00
   TP5   N6r  1 3.950000e-01    2.700000e+00
   TP5   P1r  1 3.950000e-01    2.940000e+00
   TP5   P2r  1 3.950000e-01    3.190000e+00
   TP5   P3r  1 3.950000e-01    3.190000e+00
   TP5   P4r  1 3.950000e-01    3.430000e+00
   TP5   TP5  1 3.400000e-01    2.990000e+00
   TP5   TP4  1 3.400000e-01    2.740000e+00
   TP5   TP3  1 3.400000e-01    2.500000e+00
   TP5   TP2  1 3.400000e-01    2.500000e+00
   TP5   TP1  1 3.400000e-01    2.280000e+00
   TP5   TN6  1 3.400000e-01    2.020000e+00
   TP5   TN5  1 3.400000e-01    1.770000e+00
   TP5   TN4  1 3.400000e-01    1.770000e+00
   TP5   TN3  1 3.400000e-01    1.230000e+00
   TP5   TN2  1 3.520000e-01    1.050000e+00
   TP5   TN1  1 3.660000e-01    9.350000e-01
   TP5   TC6  1 3.660000e-01    9.350000e-01
   TP5   TC5  1 3.660000e-01    9.350000e-01
   TP5   TC4  1 3.850000e-01    8.550000e-01
   TP5   TC3  1 4.110000e-01    8.010000e-01
   TP5   TC2  1 4.110000e-01    8.010000e-01
   TP5   TC1  1 4.240000e-01    7.760000e-01
   TP5   TX4  1 3.400000e-01    1.230000e+00
   TP5   TX3  1 3.520000e-01    1.050000e+00
   TP5   TX2  1 3.520000e-01    1.050000e+00
   TP5   TX1  1 3.850000e-01    8.550000e-01
  TP6d   TP5  1 3.400000e-01    3.220000e+00
   TP5  TP5d  1 3.400000e-01    2.990000e+00
   TP5  TN1d  1 3.660000e-01    9.350000e-01
   TP5  TN2d  1 3.520000e-01    1.050000e+00
   TP5  TN3d  1 3.400000e-01    1.230000e+00
   TP5  TN4d  1 3.400000e-01    1.770000e+00
   TP5  TN5d  1 3.400000e-01    1.770000e+00
   TP5  TN6d  1 3.400000e-01    2.020000e+00
   TP5  TP1d  1 3.400000e-01    2.280000e+00
   TP5  TP2d  1 3.400000e-01    2.500000e+00
   TP5  TP3d  1 3.400000e-01    2.500000e+00
   TP5  TP4d  1 3.400000e-01    2.740000e+00
  TP6a   TP5  1 3.400000e-01    3.220000e+00
   TP5  TP5a  1 3.400000e-01    2.990000e+00
   TP5  TN1a  1 3.660000e-01    9.350000e-01
   TP5  TN2a  1 3.520000e-01    1.050000e+00
   TP5  TN3a  1 3.400000e-01    1.230000e+00
   TP5  TN4a  1 3.400000e-01    1.770000e+00
   TP5  TN5a  1 3.400000e-01    1.770000e+00
   TP5  TN6a  1 3.400000e-01    2.020000e+00
   TP5  TP1a  1 3.400000e-01    2.280000e+00
   TP5  TP2a  1 3.400000e-01    2.500000e+00
   TP5  TP3a  1 3.400000e-01    2.500000e+00
   TP5  TP4a  1 3.400000e-01    2.740000e+00
   TP5  TC6v  1 3.520000e-01    1.050000e+00
   TP5  TC5v  1 3.520000e-01    1.050000e+00
   TP5  TC4v  1 3.660000e-01    9.350000e-01
   TP5  TC3v  1 3.850000e-01    8.550000e-01
   TP5  TC2v  1 3.850000e-01    8.550000e-01
   TP5  TC1v  1 4.110000e-01    8.010000e-01
   TP5  TX4v  1 3.400000e-01    1.510000e+00
   TP5  TX3v  1 3.400000e-01    1.230000e+00
   TP5  TX2v  1 3.400000e-01    1.230000e+00
   TP5  TX1v  1 3.660000e-01    9.350000e-01
   TP5  TC6e  1 3.520000e-01    1.050000e+00
   TP5  TC5e  1 3.520000e-01    1.050000e+00
   TP5  TC4e  1 3.660000e-01    9.350000e-01
   TP5  TC3e  1 3.850000e-01    8.550000e-01
   TP5  TC2e  1 3.850000e-01    8.550000e-01
   TP5  TC1e  1 4.110000e-01    8.010000e-01
   TP5  TX4e  1 3.400000e-01    1.510000e+00
   TP5  TX3e  1 3.400000e-01    1.230000e+00
   TP5  TX2e  1 3.400000e-01    1.230000e+00
   TP5  TX1e  1 3.660000e-01    9.350000e-01
  TP6q   TP5  1 3.400000e-01    3.750000e+00
   TP5  TP5q  1 3.400000e-01    3.470000e+00
   TP5 TX1eq  1 3.400000e-01    1.230000e+00
   TP5 TX2eq  1 3.400000e-01    1.770000e+00
   TP5 TX3eq  1 3.400000e-01    1.770000e+00
   TP5 TX4eq  1 3.400000e-01    2.020000e+00
   TP5 TC1eq  1 3.660000e-01    9.350000e-01
   TP5 TC2eq  1 3.520000e-01    1.050000e+00
   TP5 TC3eq  1 3.520000e-01    1.050000e+00
   TP5 TC4eq  1 3.400000e-01    1.230000e+00
   TP5 TC5eq  1 3.400000e-01    1.510000e+00
   TP5 TC6eq  1 3.400000e-01    1.510000e+00
   TP5 TX1vq  1 3.400000e-01    1.230000e+00
   TP5 TX2vq  1 3.400000e-01    1.770000e+00
   TP5 TX3vq  1 3.400000e-01    1.770000e+00
   TP5 TX4vq  1 3.400000e-01    2.020000e+00
   TP5 TC1vq  1 3.660000e-01    9.350000e-01
   TP5 TC2vq  1 3.520000e-01    1.050000e+00
   TP5 TC3vq  1 3.520000e-01    1.050000e+00
   TP5 TC4vq  1 3.400000e-01    1.230000e+00
   TP5 TC5vq  1 3.400000e-01    1.510000e+00
   TP5 TC6vq  1 3.400000e-01    1.510000e+00
   TP5 TN1aq  1 3.400000e-01    1.230000e+00
   TP5 TN2aq  1 3.400000e-01    1.510000e+00
   TP5 TN3aq  1 3.400000e-01    1.770000e+00
   TP5 TN4aq  1 3.400000e-01    2.280000e+00
   TP5 TN5aq  1 3.400000e-01    2.280000e+00
   TP5 TN6aq  1 3.400000e-01    2.500000e+00
   TP5 TP1aq  1 3.400000e-01    2.740000e+00
   TP5 TP2aq  1 3.400000e-01    2.990000e+00
   TP5 TP3aq  1 3.400000e-01    2.990000e+00
   TP5 TP4aq  1 3.400000e-01    3.220000e+00
   TP5 TP5aq  1 3.400000e-01    3.470000e+00
 TP6aq   TP5  1 3.400000e-01    3.750000e+00
   TP5 TN1dq  1 3.400000e-01    1.230000e+00
   TP5 TN2dq  1 3.400000e-01    1.510000e+00
   TP5 TN3dq  1 3.400000e-01    1.770000e+00
   TP5 TN4dq  1 3.400000e-01    2.280000e+00
   TP5 TN5dq  1 3.400000e-01    2.280000e+00
   TP5 TN6dq  1 3.400000e-01    2.500000e+00
   TP5 TP1dq  1 3.400000e-01    2.740000e+00
   TP5 TP2dq  1 3.400000e-01    2.990000e+00
   TP5 TP3dq  1 3.400000e-01    2.990000e+00
   TP5 TP4dq  1 3.400000e-01    3.220000e+00
   TP5 TP5dq  1 3.400000e-01    3.470000e+00
 TP6dq   TP5  1 3.400000e-01    3.750000e+00
   TP5  TX1q  1 3.520000e-01    1.050000e+00
   TP5  TX2q  1 3.400000e-01    1.510000e+00
   TP5  TX3q  1 3.400000e-01    1.510000e+00
   TP5  TX4q  1 3.400000e-01    1.770000e+00
   TP5  TC1q  1 3.850000e-01    8.550000e-01
   TP5  TC2q  1 3.660000e-01    9.350000e-01
   TP5  TC3q  1 3.660000e-01    9.350000e-01
   TP5  TC4q  1 3.520000e-01    1.050000e+00
   TP5  TC5q  1 3.400000e-01    1.230000e+00
   TP5  TC6q  1 3.400000e-01    1.230000e+00
   TP5  TN1q  1 3.400000e-01    1.230000e+00
   TP5  TN2q  1 3.400000e-01    1.510000e+00
   TP5  TN3q  1 3.400000e-01    1.770000e+00
   TP5  TN4q  1 3.400000e-01    2.280000e+00
   TP5  TN5q  1 3.400000e-01    2.280000e+00
   TP5  TN6q  1 3.400000e-01    2.500000e+00
   TP5  TP1q  1 3.400000e-01    2.740000e+00
   TP5  TP2q  1 3.400000e-01    2.990000e+00
   TP5  TP3q  1 3.400000e-01    2.990000e+00
   TP5  TP4q  1 3.400000e-01    3.220000e+00
  TP6h   TP5  1 3.400000e-01    3.220000e+00
   TP5  TP5h  1 3.400000e-01    2.990000e+00
   TP5 TX1eh  1 3.660000e-01    9.350000e-01
   TP5 TX2eh  1 3.400000e-01    1.230000e+00
   TP5 TX3eh  1 3.400000e-01    1.230000e+00
   TP5 TX4eh  1 3.400000e-01    1.510000e+00
   TP5 TC1eh  1 4.110000e-01    8.010000e-01
   TP5 TC2eh  1 3.850000e-01    8.550000e-01
   TP5 TC3eh  1 3.850000e-01    8.550000e-01
   TP5 TC4eh  1 3.660000e-01    9.350000e-01
   TP5 TC5eh  1 3.520000e-01    1.050000e+00
   TP5 TC6eh  1 3.520000e-01    1.050000e+00
   TP5 TX1vh  1 3.660000e-01    9.350000e-01
   TP5 TX2vh  1 3.400000e-01    1.230000e+00
   TP5 TX3vh  1 3.400000e-01    1.230000e+00
   TP5 TX4vh  1 3.400000e-01    1.510000e+00
   TP5 TC1vh  1 4.110000e-01    8.010000e-01
   TP5 TC2vh  1 3.850000e-01    8.550000e-01
   TP5 TC3vh  1 3.850000e-01    8.550000e-01
   TP5 TC4vh  1 3.660000e-01    9.350000e-01
   TP5 TC5vh  1 3.520000e-01    1.050000e+00
   TP5 TC6vh  1 3.520000e-01    1.050000e+00
   TP5 TN1ah  1 3.660000e-01    9.350000e-01
   TP5 TN2ah  1 3.520000e-01    1.050000e+00
   TP5 TN3ah  1 3.400000e-01    1.230000e+00
   TP5 TN4ah  1 3.400000e-01    1.770000e+00
   TP5 TN5ah  1 3.400000e-01    1.770000e+00
   TP5 TN6ah  1 3.400000e-01    2.020000e+00
   TP5 TP1ah  1 3.400000e-01    2.280000e+00
   TP5 TP2ah  1 3.400000e-01    2.500000e+00
   TP5 TP3ah  1 3.400000e-01    2.500000e+00
   TP5 TP4ah  1 3.400000e-01    2.740000e+00
   TP5 TP5ah  1 3.400000e-01    2.990000e+00
 TP6ah   TP5  1 3.400000e-01    3.220000e+00
   TP5 TN1dh  1 3.660000e-01    9.350000e-01
   TP5 TN2dh  1 3.520000e-01    1.050000e+00
   TP5 TN3dh  1 3.400000e-01    1.230000e+00
   TP5 TN4dh  1 3.400000e-01    1.770000e+00
   TP5 TN5dh  1 3.400000e-01    1.770000e+00
   TP5 TN6dh  1 3.400000e-01    2.020000e+00
   TP5 TP1dh  1 3.400000e-01    2.280000e+00
   TP5 TP2dh  1 3.400000e-01    2.500000e+00
   TP5 TP3dh  1 3.400000e-01    2.500000e+00
   TP5 TP4dh  1 3.400000e-01    2.740000e+00
   TP5 TP5dh  1 3.400000e-01    2.990000e+00
 TP6dh   TP5  1 3.400000e-01    3.220000e+00
   TP5  TX1h  1 3.850000e-01    8.550000e-01
   TP5  TX2h  1 3.520000e-01    1.050000e+00
   TP5  TX3h  1 3.520000e-01    1.050000e+00
   TP5  TX4h  1 3.400000e-01    1.230000e+00
   TP5  TC1h  1 4.240000e-01    7.760000e-01
   TP5  TC2h  1 4.110000e-01    8.010000e-01
   TP5  TC3h  1 4.110000e-01    8.010000e-01
   TP5  TC4h  1 3.850000e-01    8.550000e-01
   TP5  TC5h  1 3.660000e-01    9.350000e-01
   TP5  TC6h  1 3.660000e-01    9.350000e-01
   TP5  TN1h  1 3.660000e-01    9.350000e-01
   TP5  TN2h  1 3.520000e-01    1.050000e+00
   TP5  TN3h  1 3.400000e-01    1.230000e+00
   TP5  TN4h  1 3.400000e-01    1.770000e+00
   TP5  TN5h  1 3.400000e-01    1.770000e+00
   TP5  TN6h  1 3.400000e-01    2.020000e+00
   TP5  TP1h  1 3.400000e-01    2.280000e+00
   TP5  TP2h  1 3.400000e-01    2.500000e+00
   TP5  TP3h  1 3.400000e-01    2.500000e+00
   TP5  TP4h  1 3.400000e-01    2.740000e+00
  TP6r   TP5  1 3.400000e-01    3.220000e+00
   TP5  TP5r  1 3.400000e-01    2.990000e+00
   TP5 TX1er  1 3.660000e-01    9.350000e-01
   TP5 TX2er  1 3.400000e-01    1.230000e+00
   TP5 TX3er  1 3.400000e-01    1.230000e+00
   TP5 TX4er  1 3.400000e-01    1.510000e+00
   TP5 TC1er  1 4.110000e-01    8.010000e-01
   TP5 TC2er  1 3.850000e-01    8.550000e-01
   TP5 TC3er  1 3.850000e-01    8.550000e-01
   TP5 TC4er  1 3.660000e-01    9.350000e-01
   TP5 TC5er  1 3.520000e-01    1.050000e+00
   TP5 TC6er  1 3.520000e-01    1.050000e+00
   TP5 TX1vr  1 3.660000e-01    9.350000e-01
   TP5 TX2vr  1 3.400000e-01    1.230000e+00
   TP5 TX3vr  1 3.400000e-01    1.230000e+00
   TP5 TX4vr  1 3.400000e-01    1.510000e+00
   TP5 TC1vr  1 4.110000e-01    8.010000e-01
   TP5 TC2vr  1 3.850000e-01    8.550000e-01
   TP5 TC3vr  1 3.850000e-01    8.550000e-01
   TP5 TC4vr  1 3.660000e-01    9.350000e-01
   TP5 TC5vr  1 3.520000e-01    1.050000e+00
   TP5 TC6vr  1 3.520000e-01    1.050000e+00
   TP5 TN1ar  1 3.660000e-01    9.350000e-01
   TP5 TN2ar  1 3.520000e-01    1.050000e+00
   TP5 TN3ar  1 3.400000e-01    1.230000e+00
   TP5 TN4ar  1 3.400000e-01    1.770000e+00
   TP5 TN5ar  1 3.400000e-01    1.770000e+00
   TP5 TN6ar  1 3.400000e-01    2.020000e+00
   TP5 TP1ar  1 3.400000e-01    2.280000e+00
   TP5 TP2ar  1 3.400000e-01    2.500000e+00
   TP5 TP3ar  1 3.400000e-01    2.500000e+00
   TP5 TP4ar  1 3.400000e-01    2.740000e+00
   TP5 TP5ar  1 3.400000e-01    2.990000e+00
 TP6ar   TP5  1 3.400000e-01    3.220000e+00
   TP5 TN1dr  1 3.660000e-01    9.350000e-01
   TP5 TN2dr  1 3.520000e-01    1.050000e+00
   TP5 TN3dr  1 3.400000e-01    1.230000e+00
   TP5 TN4dr  1 3.400000e-01    1.770000e+00
   TP5 TN5dr  1 3.400000e-01    1.770000e+00
   TP5 TN6dr  1 3.400000e-01    2.020000e+00
   TP5 TP1dr  1 3.400000e-01    2.280000e+00
   TP5 TP2dr  1 3.400000e-01    2.500000e+00
   TP5 TP3dr  1 3.400000e-01    2.500000e+00
   TP5 TP4dr  1 3.400000e-01    2.740000e+00
   TP5 TP5dr  1 3.400000e-01    2.990000e+00
 TP6dr   TP5  1 3.400000e-01    3.220000e+00
   TP5  TX1r  1 3.850000e-01    8.550000e-01
   TP5  TX2r  1 3.520000e-01    1.050000e+00
   TP5  TX3r  1 3.520000e-01    1.050000e+00
   TP5  TX4r  1 3.400000e-01    1.230000e+00
   TP5  TC1r  1 4.240000e-01    7.760000e-01
   TP5  TC2r  1 4.110000e-01    8.010000e-01
   TP5  TC3r  1 4.110000e-01    8.010000e-01
   TP5  TC4r  1 3.850000e-01    8.550000e-01
   TP5  TC5r  1 3.660000e-01    9.350000e-01
   TP5  TC6r  1 3.660000e-01    9.350000e-01
   TP5  TN1r  1 3.660000e-01    9.350000e-01
   TP5  TN2r  1 3.520000e-01    1.050000e+00
   TP5  TN3r  1 3.400000e-01    1.230000e+00
   TP5  TN4r  1 3.400000e-01    1.770000e+00
   TP5  TN5r  1 3.400000e-01    1.770000e+00
   TP5  TN6r  1 3.400000e-01    2.020000e+00
   TP5  TP1r  1 3.400000e-01    2.280000e+00
   TP5  TP2r  1 3.400000e-01    2.500000e+00
   TP5  TP3r  1 3.400000e-01    2.500000e+00
   TP5  TP4r  1 3.400000e-01    2.740000e+00
  SP6d   TP5  1 3.650000e-01    3.640000e+00
  SP6a   TP5  1 3.650000e-01    3.640000e+00
  SP6q   TP5  1 3.650000e-01    4.220000e+00
 SP6aq   TP5  1 3.650000e-01    4.220000e+00
 SP6dq   TP5  1 3.650000e-01    4.220000e+00
  SP6h   TP5  1 3.650000e-01    3.640000e+00
 SP6ah   TP5  1 3.650000e-01    3.640000e+00
 SP6dh   TP5  1 3.650000e-01    3.640000e+00
  SP6r   TP5  1 3.650000e-01    3.640000e+00
 SP6ar   TP5  1 3.650000e-01    3.640000e+00
 SP6dr   TP5  1 3.650000e-01    3.640000e+00
   TP5   SP4  1 3.650000e-01    3.100000e+00
   TP5   SP3  1 3.650000e-01    2.830000e+00
   TP5   SP2  1 3.650000e-01    2.830000e+00
   TP5   SP1  1 3.650000e-01    2.570000e+00
   TP5   SN6  1 3.650000e-01    2.340000e+00
   TP5   SN5  1 3.650000e-01    2.110000e+00
   TP5   SN4  1 3.650000e-01    2.110000e+00
   TP5   SN3  1 3.650000e-01    1.750000e+00
   TP5   SN2  1 3.660000e-01    1.600000e+00
   TP5   SN1  1 3.780000e-01    1.450000e+00
   TP5   SC6  1 3.780000e-01    1.450000e+00
   TP5   SC5  1 3.780000e-01    1.450000e+00
   TP5   SC4  1 3.940000e-01    1.290000e+00
   TP5   SC3  1 4.040000e-01    1.130000e+00
   TP5   SC2  1 4.040000e-01    1.130000e+00
   TP5   SC1  1 4.090000e-01    1.080000e+00
   TP5   SX4  1 3.650000e-01    1.750000e+00
   TP5   SX3  1 3.660000e-01    1.600000e+00
   TP5   SX2  1 3.660000e-01    1.600000e+00
   TP5   SX1  1 3.940000e-01    1.290000e+00
   TP5  SP5d  1 3.650000e-01    3.370000e+00
   TP5  SN1d  1 3.780000e-01    1.450000e+00
   TP5  SN2d  1 3.660000e-01    1.600000e+00
   TP5  SN3d  1 3.650000e-01    1.750000e+00
   TP5  SN4d  1 3.650000e-01    2.110000e+00
   TP5  SN5d  1 3.650000e-01    2.110000e+00
   TP5  SN6d  1 3.650000e-01    2.340000e+00
   TP5  SP1d  1 3.650000e-01    2.570000e+00
   TP5  SP2d  1 3.650000e-01    2.830000e+00
   TP5  SP3d  1 3.650000e-01    2.830000e+00
   TP5  SP4d  1 3.650000e-01    3.100000e+00
   TP5  SP5a  1 3.650000e-01    3.370000e+00
   TP5  SN1a  1 3.780000e-01    1.450000e+00
   TP5  SN2a  1 3.660000e-01    1.600000e+00
   TP5  SN3a  1 3.650000e-01    1.750000e+00
   TP5  SN4a  1 3.650000e-01    2.110000e+00
   TP5  SN5a  1 3.650000e-01    2.110000e+00
   TP5  SN6a  1 3.650000e-01    2.340000e+00
   TP5  SP1a  1 3.650000e-01    2.570000e+00
   TP5  SP2a  1 3.650000e-01    2.830000e+00
   TP5  SP3a  1 3.650000e-01    2.830000e+00
   TP5  SP4a  1 3.650000e-01    3.100000e+00
   TP5  SC6v  1 3.660000e-01    1.600000e+00
   TP5  SC5v  1 3.660000e-01    1.600000e+00
   TP5  SC4v  1 3.780000e-01    1.450000e+00
   TP5  SC3v  1 3.940000e-01    1.290000e+00
   TP5  SC2v  1 3.940000e-01    1.290000e+00
   TP5  SC1v  1 4.040000e-01    1.130000e+00
   TP5  SX4v  1 3.650000e-01    1.910000e+00
   TP5  SX3v  1 3.650000e-01    1.750000e+00
   TP5  SX2v  1 3.650000e-01    1.750000e+00
   TP5  SX1v  1 3.780000e-01    1.450000e+00
   TP5  SC6e  1 3.660000e-01    1.600000e+00
   TP5  SC5e  1 3.660000e-01    1.600000e+00
   TP5  SC4e  1 3.780000e-01    1.450000e+00
   TP5  SC3e  1 3.940000e-01    1.290000e+00
   TP5  SC2e  1 3.940000e-01    1.290000e+00
   TP5  SC1e  1 4.040000e-01    1.130000e+00
   TP5  SX4e  1 3.650000e-01    1.910000e+00
   TP5  SX3e  1 3.650000e-01    1.750000e+00
   TP5  SX2e  1 3.650000e-01    1.750000e+00
   TP5  SX1e  1 3.780000e-01    1.450000e+00
   TP5  SP5q  1 3.650000e-01    3.930000e+00
   TP5 SX1eq  1 3.650000e-01    1.750000e+00
   TP5 SX2eq  1 3.650000e-01    2.110000e+00
   TP5 SX3eq  1 3.650000e-01    2.110000e+00
   TP5 SX4eq  1 3.650000e-01    2.340000e+00
   TP5 SC1eq  1 3.780000e-01    1.450000e+00
   TP5 SC2eq  1 3.660000e-01    1.600000e+00
   TP5 SC3eq  1 3.660000e-01    1.600000e+00
   TP5 SC4eq  1 3.650000e-01    1.750000e+00
   TP5 SC5eq  1 3.650000e-01    1.910000e+00
   TP5 SC6eq  1 3.650000e-01    1.910000e+00
   TP5 SX1vq  1 3.650000e-01    1.750000e+00
   TP5 SX2vq  1 3.650000e-01    2.110000e+00
   TP5 SX3vq  1 3.650000e-01    2.110000e+00
   TP5 SX4vq  1 3.650000e-01    2.340000e+00
   TP5 SC1vq  1 3.780000e-01    1.450000e+00
   TP5 SC2vq  1 3.660000e-01    1.600000e+00
   TP5 SC3vq  1 3.660000e-01    1.600000e+00
   TP5 SC4vq  1 3.650000e-01    1.750000e+00
   TP5 SC5vq  1 3.650000e-01    1.910000e+00
   TP5 SC6vq  1 3.650000e-01    1.910000e+00
   TP5 SN1aq  1 3.650000e-01    1.750000e+00
   TP5 SN2aq  1 3.650000e-01    1.910000e+00
   TP5 SN3aq  1 3.650000e-01    2.110000e+00
   TP5 SN4aq  1 3.650000e-01    2.570000e+00
   TP5 SN5aq  1 3.650000e-01    2.570000e+00
   TP5 SN6aq  1 3.650000e-01    2.830000e+00
   TP5 SP1aq  1 3.650000e-01    3.100000e+00
   TP5 SP2aq  1 3.650000e-01    3.370000e+00
   TP5 SP3aq  1 3.650000e-01    3.370000e+00
   TP5 SP4aq  1 3.650000e-01    3.640000e+00
   TP5 SP5aq  1 3.650000e-01    3.930000e+00
   TP5 SN1dq  1 3.650000e-01    1.750000e+00
   TP5 SN2dq  1 3.650000e-01    1.910000e+00
   TP5 SN3dq  1 3.650000e-01    2.110000e+00
   TP5 SN4dq  1 3.650000e-01    2.570000e+00
   TP5 SN5dq  1 3.650000e-01    2.570000e+00
   TP5 SN6dq  1 3.650000e-01    2.830000e+00
   TP5 SP1dq  1 3.650000e-01    3.100000e+00
   TP5 SP2dq  1 3.650000e-01    3.370000e+00
   TP5 SP3dq  1 3.650000e-01    3.370000e+00
   TP5 SP4dq  1 3.650000e-01    3.640000e+00
   TP5 SP5dq  1 3.650000e-01    3.930000e+00
   TP5  SX1q  1 3.660000e-01    1.600000e+00
   TP5  SX2q  1 3.650000e-01    1.910000e+00
   TP5  SX3q  1 3.650000e-01    1.910000e+00
   TP5  SX4q  1 3.650000e-01    2.110000e+00
   TP5  SC1q  1 3.940000e-01    1.290000e+00
   TP5  SC2q  1 3.780000e-01    1.450000e+00
   TP5  SC3q  1 3.780000e-01    1.450000e+00
   TP5  SC4q  1 3.660000e-01    1.600000e+00
   TP5  SC5q  1 3.650000e-01    1.750000e+00
   TP5  SC6q  1 3.650000e-01    1.750000e+00
   TP5  SN1q  1 3.650000e-01    1.750000e+00
   TP5  SN2q  1 3.650000e-01    1.910000e+00
   TP5  SN3q  1 3.650000e-01    2.110000e+00
   TP5  SN4q  1 3.650000e-01    2.570000e+00
   TP5  SN5q  1 3.650000e-01    2.570000e+00
   TP5  SN6q  1 3.650000e-01    2.830000e+00
   TP5  SP1q  1 3.650000e-01    3.100000e+00
   TP5  SP2q  1 3.650000e-01    3.370000e+00
   TP5  SP3q  1 3.650000e-01    3.370000e+00
   TP5  SP4q  1 3.650000e-01    3.640000e+00
   TP5  SP5h  1 3.650000e-01    3.370000e+00
   TP5 SX1eh  1 3.780000e-01    1.450000e+00
   TP5 SX2eh  1 3.650000e-01    1.750000e+00
   TP5 SX3eh  1 3.650000e-01    1.750000e+00
   TP5 SX4eh  1 3.650000e-01    1.910000e+00
   TP5 SC1eh  1 4.040000e-01    1.130000e+00
   TP5 SC2eh  1 3.940000e-01    1.290000e+00
   TP5 SC3eh  1 3.940000e-01    1.290000e+00
   TP5 SC4eh  1 3.780000e-01    1.450000e+00
   TP5 SC5eh  1 3.660000e-01    1.600000e+00
   TP5 SC6eh  1 3.660000e-01    1.600000e+00
   TP5 SX1vh  1 3.780000e-01    1.450000e+00
   TP5 SX2vh  1 3.650000e-01    1.750000e+00
   TP5 SX3vh  1 3.650000e-01    1.750000e+00
   TP5 SX4vh  1 3.650000e-01    1.910000e+00
   TP5 SC1vh  1 4.040000e-01    1.130000e+00
   TP5 SC2vh  1 3.940000e-01    1.290000e+00
   TP5 SC3vh  1 3.940000e-01    1.290000e+00
   TP5 SC4vh  1 3.780000e-01    1.450000e+00
   TP5 SC5vh  1 3.660000e-01    1.600000e+00
   TP5 SC6vh  1 3.660000e-01    1.600000e+00
   TP5 SN1ah  1 3.780000e-01    1.450000e+00
   TP5 SN2ah  1 3.660000e-01    1.600000e+00
   TP5 SN3ah  1 3.650000e-01    1.750000e+00
   TP5 SN4ah  1 3.650000e-01    2.110000e+00
   TP5 SN5ah  1 3.650000e-01    2.110000e+00
   TP5 SN6ah  1 3.650000e-01    2.340000e+00
   TP5 SP1ah  1 3.650000e-01    2.570000e+00
   TP5 SP2ah  1 3.650000e-01    2.830000e+00
   TP5 SP3ah  1 3.650000e-01    2.830000e+00
   TP5 SP4ah  1 3.650000e-01    3.100000e+00
   TP5 SP5ah  1 3.650000e-01    3.370000e+00
   TP5 SN1dh  1 3.780000e-01    1.450000e+00
   TP5 SN2dh  1 3.660000e-01    1.600000e+00
   TP5 SN3dh  1 3.650000e-01    1.750000e+00
   TP5 SN4dh  1 3.650000e-01    2.110000e+00
   TP5 SN5dh  1 3.650000e-01    2.110000e+00
   TP5 SN6dh  1 3.650000e-01    2.340000e+00
   TP5 SP1dh  1 3.650000e-01    2.570000e+00
   TP5 SP2dh  1 3.650000e-01    2.830000e+00
   TP5 SP3dh  1 3.650000e-01    2.830000e+00
   TP5 SP4dh  1 3.650000e-01    3.100000e+00
   TP5 SP5dh  1 3.650000e-01    3.370000e+00
   TP5  SX1h  1 3.940000e-01    1.290000e+00
   TP5  SX2h  1 3.660000e-01    1.600000e+00
   TP5  SX3h  1 3.660000e-01    1.600000e+00
   TP5  SX4h  1 3.650000e-01    1.750000e+00
   TP5  SC1h  1 4.090000e-01    1.080000e+00
   TP5  SC2h  1 4.040000e-01    1.130000e+00
   TP5  SC3h  1 4.040000e-01    1.130000e+00
   TP5  SC4h  1 3.940000e-01    1.290000e+00
   TP5  SC5h  1 3.780000e-01    1.450000e+00
   TP5  SC6h  1 3.780000e-01    1.450000e+00
   TP5  SN1h  1 3.780000e-01    1.450000e+00
   TP5  SN2h  1 3.660000e-01    1.600000e+00
   TP5  SN3h  1 3.650000e-01    1.750000e+00
   TP5  SN4h  1 3.650000e-01    2.110000e+00
   TP5  SN5h  1 3.650000e-01    2.110000e+00
   TP5  SN6h  1 3.650000e-01    2.340000e+00
   TP5  SP1h  1 3.650000e-01    2.570000e+00
   TP5  SP2h  1 3.650000e-01    2.830000e+00
   TP5  SP3h  1 3.650000e-01    2.830000e+00
   TP5  SP4h  1 3.650000e-01    3.100000e+00
   TP5  SP5r  1 3.650000e-01    3.370000e+00
   TP5 SX1er  1 3.780000e-01    1.450000e+00
   TP5 SX2er  1 3.650000e-01    1.750000e+00
   TP5 SX3er  1 3.650000e-01    1.750000e+00
   TP5 SX4er  1 3.650000e-01    1.910000e+00
   TP5 SC1er  1 4.040000e-01    1.130000e+00
   TP5 SC2er  1 3.940000e-01    1.290000e+00
   TP5 SC3er  1 3.940000e-01    1.290000e+00
   TP5 SC4er  1 3.780000e-01    1.450000e+00
   TP5 SC5er  1 3.660000e-01    1.600000e+00
   TP5 SC6er  1 3.660000e-01    1.600000e+00
   TP5 SX1vr  1 3.780000e-01    1.450000e+00
   TP5 SX2vr  1 3.650000e-01    1.750000e+00
   TP5 SX3vr  1 3.650000e-01    1.750000e+00
   TP5 SX4vr  1 3.650000e-01    1.910000e+00
   TP5 SC1vr  1 4.040000e-01    1.130000e+00
   TP5 SC2vr  1 3.940000e-01    1.290000e+00
   TP5 SC3vr  1 3.940000e-01    1.290000e+00
   TP5 SC4vr  1 3.780000e-01    1.450000e+00
   TP5 SC5vr  1 3.660000e-01    1.600000e+00
   TP5 SC6vr  1 3.660000e-01    1.600000e+00
   TP5 SN1ar  1 3.780000e-01    1.450000e+00
   TP5 SN2ar  1 3.660000e-01    1.600000e+00
   TP5 SN3ar  1 3.650000e-01    1.750000e+00
   TP5 SN4ar  1 3.650000e-01    2.110000e+00
   TP5 SN5ar  1 3.650000e-01    2.110000e+00
   TP5 SN6ar  1 3.650000e-01    2.340000e+00
   TP5 SP1ar  1 3.650000e-01    2.570000e+00
   TP5 SP2ar  1 3.650000e-01    2.830000e+00
   TP5 SP3ar  1 3.650000e-01    2.830000e+00
   TP5 SP4ar  1 3.650000e-01    3.100000e+00
   TP5 SP5ar  1 3.650000e-01    3.370000e+00
   TP5 SN1dr  1 3.780000e-01    1.450000e+00
   TP5 SN2dr  1 3.660000e-01    1.600000e+00
   TP5 SN3dr  1 3.650000e-01    1.750000e+00
   TP5 SN4dr  1 3.650000e-01    2.110000e+00
   TP5 SN5dr  1 3.650000e-01    2.110000e+00
   TP5 SN6dr  1 3.650000e-01    2.340000e+00
   TP5 SP1dr  1 3.650000e-01    2.570000e+00
   TP5 SP2dr  1 3.650000e-01    2.830000e+00
   TP5 SP3dr  1 3.650000e-01    2.830000e+00
   TP5 SP4dr  1 3.650000e-01    3.100000e+00
   TP5 SP5dr  1 3.650000e-01    3.370000e+00
   TP5  SX1r  1 3.940000e-01    1.290000e+00
   TP5  SX2r  1 3.660000e-01    1.600000e+00
   TP5  SX3r  1 3.660000e-01    1.600000e+00
   TP5  SX4r  1 3.650000e-01    1.750000e+00
   TP5  SC1r  1 4.090000e-01    1.080000e+00
   TP5  SC2r  1 4.040000e-01    1.130000e+00
   TP5  SC3r  1 4.040000e-01    1.130000e+00
   TP5  SC4r  1 3.940000e-01    1.290000e+00
   TP5  SC5r  1 3.780000e-01    1.450000e+00
   TP5  SC6r  1 3.780000e-01    1.450000e+00
   TP5  SN1r  1 3.780000e-01    1.450000e+00
   TP5  SN2r  1 3.660000e-01    1.600000e+00
   TP5  SN3r  1 3.650000e-01    1.750000e+00
   TP5  SN4r  1 3.650000e-01    2.110000e+00
   TP5  SN5r  1 3.650000e-01    2.110000e+00
   TP5  SN6r  1 3.650000e-01    2.340000e+00
   TP5  SP1r  1 3.650000e-01    2.570000e+00
   TP5  SP2r  1 3.650000e-01    2.830000e+00
   TP5  SP3r  1 3.650000e-01    2.830000e+00
   TP5  SP4r  1 3.650000e-01    3.100000e+00
    P4    P4  1 4.700000e-01    4.250000e+00
    P4    P3  1 4.700000e-01    4.060000e+00
    P4    P2  1 4.700000e-01    4.060000e+00
    P4    P1  1 4.700000e-01    3.880000e+00
    P4    N6  1 4.700000e-01    3.690000e+00
    P4    N5  1 4.700000e-01    3.520000e+00
    P4    N4  1 4.700000e-01    3.520000e+00
    P4    N3  1 4.700000e-01    3.390000e+00
    P4    N2  1 4.700000e-01    3.240000e+00
    P4    N1  1 4.700000e-01    3.070000e+00
    P4    C6  1 4.700000e-01    3.070000e+00
    P4    C5  1 4.700000e-01    2.960000e+00
    P4    C4  1 4.700000e-01    2.790000e+00
    P4    C3  1 4.700000e-01    2.620000e+00
    P4    C2  1 4.700000e-01    2.620000e+00
    P4    C1  1 4.700000e-01    2.440000e+00
    P4    X4  1 4.700000e-01    3.240000e+00
    P4    X3  1 4.700000e-01    3.070000e+00
    P4    X2  1 4.700000e-01    3.070000e+00
    P4    X1  1 4.700000e-01    2.960000e+00
   P6d    P4  1 4.700000e-01    4.480000e+00
   P5d    P4  1 4.700000e-01    4.250000e+00
    P4   P4d  1 4.700000e-01    4.250000e+00
    P4   N1d  1 4.700000e-01    3.070000e+00
    P4   N2d  1 4.700000e-01    3.240000e+00
    P4   N3d  1 4.700000e-01    3.390000e+00
    P4   N4d  1 4.700000e-01    3.520000e+00
    P4   N5d  1 4.700000e-01    3.520000e+00
    P4   N6d  1 4.700000e-01    3.690000e+00
    P4   P1d  1 4.700000e-01    3.880000e+00
    P4   P2d  1 4.700000e-01    4.060000e+00
    P4   P3d  1 4.700000e-01    4.060000e+00
   P6a    P4  1 4.700000e-01    4.480000e+00
   P5a    P4  1 4.700000e-01    4.250000e+00
    P4   P4a  1 4.700000e-01    4.250000e+00
    P4   N1a  1 4.700000e-01    3.070000e+00
    P4   N2a  1 4.700000e-01    3.240000e+00
    P4   N3a  1 4.700000e-01    3.390000e+00
    P4   N4a  1 4.700000e-01    3.520000e+00
    P4   N5a  1 4.700000e-01    3.520000e+00
    P4   N6a  1 4.700000e-01    3.690000e+00
    P4   P1a  1 4.700000e-01    3.880000e+00
    P4   P2a  1 4.700000e-01    4.060000e+00
    P4   P3a  1 4.700000e-01    4.060000e+00
    P4   C6v  1 4.700000e-01    3.240000e+00
    P4   C5v  1 4.700000e-01    3.070000e+00
    P4   C4v  1 4.700000e-01    2.960000e+00
    P4   C3v  1 4.700000e-01    2.790000e+00
    P4   C2v  1 4.700000e-01    2.790000e+00
    P4   C1v  1 4.700000e-01    2.620000e+00
    P4   X4v  1 4.700000e-01    3.390000e+00
    P4   X3v  1 4.700000e-01    3.240000e+00
    P4   X2v  1 4.700000e-01    3.240000e+00
    P4   X1v  1 4.700000e-01    3.070000e+00
    P4   C6e  1 4.700000e-01    3.240000e+00
    P4   C5e  1 4.700000e-01    3.070000e+00
    P4   C4e  1 4.700000e-01    2.960000e+00
    P4   C3e  1 4.700000e-01    2.790000e+00
    P4   C2e  1 4.700000e-01    2.790000e+00
    P4   C1e  1 4.700000e-01    2.620000e+00
    P4   X4e  1 4.700000e-01    3.390000e+00
    P4   X3e  1 4.700000e-01    3.240000e+00
    P4   X2e  1 4.700000e-01    3.240000e+00
    P4   X1e  1 4.700000e-01    3.070000e+00
   P6q    P4  1 4.700000e-01    4.990000e+00
   P5q    P4  1 4.700000e-01    4.730000e+00
    P4   P4q  1 4.700000e-01    4.730000e+00
    P4  X1eq  1 4.700000e-01    3.390000e+00
    P4  X2eq  1 4.700000e-01    3.520000e+00
    P4  X3eq  1 4.700000e-01    3.520000e+00
    P4  X4eq  1 4.700000e-01    3.690000e+00
    P4  C1eq  1 4.700000e-01    2.960000e+00
    P4  C2eq  1 4.700000e-01    3.070000e+00
    P4  C3eq  1 4.700000e-01    3.070000e+00
    P4  C4eq  1 4.700000e-01    3.240000e+00
    P4  C5eq  1 4.700000e-01    3.390000e+00
    P4  C6eq  1 4.700000e-01    3.520000e+00
    P4  X1vq  1 4.700000e-01    3.390000e+00
    P4  X2vq  1 4.700000e-01    3.520000e+00
    P4  X3vq  1 4.700000e-01    3.520000e+00
    P4  X4vq  1 4.700000e-01    3.690000e+00
    P4  C1vq  1 4.700000e-01    2.960000e+00
    P4  C2vq  1 4.700000e-01    3.070000e+00
    P4  C3vq  1 4.700000e-01    3.070000e+00
    P4  C4vq  1 4.700000e-01    3.240000e+00
    P4  C5vq  1 4.700000e-01    3.390000e+00
    P4  C6vq  1 4.700000e-01    3.520000e+00
    P4  N1aq  1 4.700000e-01    3.390000e+00
    P4  N2aq  1 4.700000e-01    3.520000e+00
    P4  N3aq  1 4.700000e-01    3.690000e+00
    P4  N4aq  1 4.700000e-01    3.880000e+00
    P4  N5aq  1 4.700000e-01    3.880000e+00
    P4  N6aq  1 4.700000e-01    4.060000e+00
    P4  P1aq  1 4.700000e-01    4.250000e+00
    P4  P2aq  1 4.700000e-01    4.480000e+00
    P4  P3aq  1 4.700000e-01    4.480000e+00
    P4  P4aq  1 4.700000e-01    4.730000e+00
  P5aq    P4  1 4.700000e-01    4.730000e+00
  P6aq    P4  1 4.700000e-01    4.990000e+00
    P4  N1dq  1 4.700000e-01    3.390000e+00
    P4  N2dq  1 4.700000e-01    3.520000e+00
    P4  N3dq  1 4.700000e-01    3.690000e+00
    P4  N4dq  1 4.700000e-01    3.880000e+00
    P4  N5dq  1 4.700000e-01    3.880000e+00
    P4  N6dq  1 4.700000e-01    4.060000e+00
    P4  P1dq  1 4.700000e-01    4.250000e+00
    P4  P2dq  1 4.700000e-01    4.480000e+00
    P4  P3dq  1 4.700000e-01    4.480000e+00
    P4  P4dq  1 4.700000e-01    4.730000e+00
  P5dq    P4  1 4.700000e-01    4.730000e+00
  P6dq    P4  1 4.700000e-01    4.990000e+00
    P4   X1q  1 4.700000e-01    3.240000e+00
    P4   X2q  1 4.700000e-01    3.390000e+00
    P4   X3q  1 4.700000e-01    3.390000e+00
    P4   X4q  1 4.700000e-01    3.520000e+00
    P4   C1q  1 4.700000e-01    2.790000e+00
    P4   C2q  1 4.700000e-01    2.960000e+00
    P4   C3q  1 4.700000e-01    2.960000e+00
    P4   C4q  1 4.700000e-01    3.070000e+00
    P4   C5q  1 4.700000e-01    3.240000e+00
    P4   C6q  1 4.700000e-01    3.390000e+00
    P4   N1q  1 4.700000e-01    3.390000e+00
    P4   N2q  1 4.700000e-01    3.520000e+00
    P4   N3q  1 4.700000e-01    3.690000e+00
    P4   N4q  1 4.700000e-01    3.880000e+00
    P4   N5q  1 4.700000e-01    3.880000e+00
    P4   N6q  1 4.700000e-01    4.060000e+00
    P4   P1q  1 4.700000e-01    4.250000e+00
    P4   P2q  1 4.700000e-01    4.480000e+00
    P4   P3q  1 4.700000e-01    4.480000e+00
   P6h    P4  1 4.700000e-01    4.480000e+00
   P5h    P4  1 4.700000e-01    4.250000e+00
    P4   P4h  1 4.700000e-01    4.250000e+00
    P4  X1eh  1 4.700000e-01    3.070000e+00
    P4  X2eh  1 4.700000e-01    3.240000e+00
    P4  X3eh  1 4.700000e-01    3.240000e+00
    P4  X4eh  1 4.700000e-01    3.390000e+00
    P4  C1eh  1 4.700000e-01    2.620000e+00
    P4  C2eh  1 4.700000e-01    2.790000e+00
    P4  C3eh  1 4.700000e-01    2.790000e+00
    P4  C4eh  1 4.700000e-01    2.960000e+00
    P4  C5eh  1 4.700000e-01    3.070000e+00
    P4  C6eh  1 4.700000e-01    3.240000e+00
    P4  X1vh  1 4.700000e-01    3.070000e+00
    P4  X2vh  1 4.700000e-01    3.240000e+00
    P4  X3vh  1 4.700000e-01    3.240000e+00
    P4  X4vh  1 4.700000e-01    3.390000e+00
    P4  C1vh  1 4.700000e-01    2.620000e+00
    P4  C2vh  1 4.700000e-01    2.790000e+00
    P4  C3vh  1 4.700000e-01    2.790000e+00
    P4  C4vh  1 4.700000e-01    2.960000e+00
    P4  C5vh  1 4.700000e-01    3.070000e+00
    P4  C6vh  1 4.700000e-01    3.240000e+00
    P4  N1ah  1 4.700000e-01    3.070000e+00
    P4  N2ah  1 4.700000e-01    3.240000e+00
    P4  N3ah  1 4.700000e-01    3.390000e+00
    P4  N4ah  1 4.700000e-01    3.520000e+00
    P4  N5ah  1 4.700000e-01    3.520000e+00
    P4  N6ah  1 4.700000e-01    3.690000e+00
    P4  P1ah  1 4.700000e-01    3.880000e+00
    P4  P2ah  1 4.700000e-01    4.060000e+00
    P4  P3ah  1 4.700000e-01    4.060000e+00
    P4  P4ah  1 4.700000e-01    4.250000e+00
  P5ah    P4  1 4.700000e-01    4.250000e+00
  P6ah    P4  1 4.700000e-01    4.480000e+00
    P4  N1dh  1 4.700000e-01    3.070000e+00
    P4  N2dh  1 4.700000e-01    3.240000e+00
    P4  N3dh  1 4.700000e-01    3.390000e+00
    P4  N4dh  1 4.700000e-01    3.520000e+00
    P4  N5dh  1 4.700000e-01    3.520000e+00
    P4  N6dh  1 4.700000e-01    3.690000e+00
    P4  P1dh  1 4.700000e-01    3.880000e+00
    P4  P2dh  1 4.700000e-01    4.060000e+00
    P4  P3dh  1 4.700000e-01    4.060000e+00
    P4  P4dh  1 4.700000e-01    4.250000e+00
  P5dh    P4  1 4.700000e-01    4.250000e+00
  P6dh    P4  1 4.700000e-01    4.480000e+00
    P4   X1h  1 4.700000e-01    2.960000e+00
    P4   X2h  1 4.700000e-01    3.070000e+00
    P4   X3h  1 4.700000e-01    3.070000e+00
    P4   X4h  1 4.700000e-01    3.240000e+00
    P4   C1h  1 4.700000e-01    2.440000e+00
    P4   C2h  1 4.700000e-01    2.620000e+00
    P4   C3h  1 4.700000e-01    2.620000e+00
    P4   C4h  1 4.700000e-01    2.790000e+00
    P4   C5h  1 4.700000e-01    2.960000e+00
    P4   C6h  1 4.700000e-01    3.070000e+00
    P4   N1h  1 4.700000e-01    3.070000e+00
    P4   N2h  1 4.700000e-01    3.240000e+00
    P4   N3h  1 4.700000e-01    3.390000e+00
    P4   N4h  1 4.700000e-01    3.520000e+00
    P4   N5h  1 4.700000e-01    3.520000e+00
    P4   N6h  1 4.700000e-01    3.690000e+00
    P4   P1h  1 4.700000e-01    3.880000e+00
    P4   P2h  1 4.700000e-01    4.060000e+00
    P4   P3h  1 4.700000e-01    4.060000e+00
   P6r    P4  1 4.700000e-01    4.480000e+00
   P5r    P4  1 4.700000e-01    4.250000e+00
    P4   P4r  1 4.700000e-01    4.250000e+00
    P4  X1er  1 4.700000e-01    3.070000e+00
    P4  X2er  1 4.700000e-01    3.240000e+00
    P4  X3er  1 4.700000e-01    3.240000e+00
    P4  X4er  1 4.700000e-01    3.390000e+00
    P4  C1er  1 4.700000e-01    2.620000e+00
    P4  C2er  1 4.700000e-01    2.790000e+00
    P4  C3er  1 4.700000e-01    2.790000e+00
    P4  C4er  1 4.700000e-01    2.960000e+00
    P4  C5er  1 4.700000e-01    3.070000e+00
    P4  C6er  1 4.700000e-01    3.240000e+00
    P4  X1vr  1 4.700000e-01    3.070000e+00
    P4  X2vr  1 4.700000e-01    3.240000e+00
    P4  X3vr  1 4.700000e-01    3.240000e+00
    P4  X4vr  1 4.700000e-01    3.390000e+00
    P4  C1vr  1 4.700000e-01    2.620000e+00
    P4  C2vr  1 4.700000e-01    2.790000e+00
    P4  C3vr  1 4.700000e-01    2.790000e+00
    P4  C4vr  1 4.700000e-01    2.960000e+00
    P4  C5vr  1 4.700000e-01    3.070000e+00
    P4  C6vr  1 4.700000e-01    3.240000e+00
    P4  N1ar  1 4.700000e-01    3.070000e+00
    P4  N2ar  1 4.700000e-01    3.240000e+00
    P4  N3ar  1 4.700000e-01    3.390000e+00
    P4  N4ar  1 4.700000e-01    3.520000e+00
    P4  N5ar  1 4.700000e-01    3.520000e+00
    P4  N6ar  1 4.700000e-01    3.690000e+00
    P4  P1ar  1 4.700000e-01    3.880000e+00
    P4  P2ar  1 4.700000e-01    4.060000e+00
    P4  P3ar  1 4.700000e-01    4.060000e+00
    P4  P4ar  1 4.700000e-01    4.250000e+00
  P5ar    P4  1 4.700000e-01    4.250000e+00
  P6ar    P4  1 4.700000e-01    4.480000e+00
    P4  N1dr  1 4.700000e-01    3.070000e+00
    P4  N2dr  1 4.700000e-01    3.240000e+00
    P4  N3dr  1 4.700000e-01    3.390000e+00
    P4  N4dr  1 4.700000e-01    3.520000e+00
    P4  N5dr  1 4.700000e-01    3.520000e+00
    P4  N6dr  1 4.700000e-01    3.690000e+00
    P4  P1dr  1 4.700000e-01    3.880000e+00
    P4  P2dr  1 4.700000e-01    4.060000e+00
    P4  P3dr  1 4.700000e-01    4.060000e+00
    P4  P4dr  1 4.700000e-01    4.250000e+00
  P5dr    P4  1 4.700000e-01    4.250000e+00
  P6dr    P4  1 4.700000e-01    4.480000e+00
    P4   X1r  1 4.700000e-01    2.960000e+00
    P4   X2r  1 4.700000e-01    3.070000e+00
    P4   X3r  1 4.700000e-01    3.070000e+00
    P4   X4r  1 4.700000e-01    3.240000e+00
    P4   C1r  1 4.700000e-01    2.440000e+00
    P4   C2r  1 4.700000e-01    2.620000e+00
    P4   C3r  1 4.700000e-01    2.620000e+00
    P4   C4r  1 4.700000e-01    2.790000e+00
    P4   C5r  1 4.700000e-01    2.960000e+00
    P4   C6r  1 4.700000e-01    3.070000e+00
    P4   N1r  1 4.700000e-01    3.070000e+00
    P4   N2r  1 4.700000e-01    3.240000e+00
    P4   N3r  1 4.700000e-01    3.390000e+00
    P4   N4r  1 4.700000e-01    3.520000e+00
    P4   N5r  1 4.700000e-01    3.520000e+00
    P4   N6r  1 4.700000e-01    3.690000e+00
    P4   P1r  1 4.700000e-01    3.880000e+00
    P4   P2r  1 4.700000e-01    4.060000e+00
    P4   P3r  1 4.700000e-01    4.060000e+00
    P4   SP4  1 4.300000e-01    3.970000e+00
    P4   SP3  1 4.300000e-01    3.770000e+00
    P4   SP2  1 4.300000e-01    3.770000e+00
    P4   SP1  1 4.300000e-01    3.590000e+00
    P4   SN6  1 4.300000e-01    3.380000e+00
    P4   SN5  1 4.300000e-01    3.160000e+00
    P4   SN4  1 4.300000e-01    3.160000e+00
    P4   SN3  1 4.300000e-01    2.920000e+00
    P4   SN2  1 4.300000e-01    2.770000e+00
    P4   SN1  1 4.300000e-01    2.530000e+00
    P4   SC6  1 4.300000e-01    2.530000e+00
    P4   SC5  1 4.300000e-01    2.320000e+00
    P4   SC4  1 4.300000e-01    2.160000e+00
    P4   SC3  1 4.300000e-01    1.930000e+00
    P4   SC2  1 4.300000e-01    1.930000e+00
    P4   SC1  1 4.300000e-01    1.730000e+00
    P4   SX4  1 4.300000e-01    2.770000e+00
    P4   SX3  1 4.300000e-01    2.530000e+00
    P4   SX2  1 4.300000e-01    2.530000e+00
    P4   SX1  1 4.300000e-01    2.320000e+00
    P4  SP4d  1 4.300000e-01    3.970000e+00
    P4  SN1d  1 4.300000e-01    2.530000e+00
    P4  SN2d  1 4.300000e-01    2.770000e+00
    P4  SN3d  1 4.300000e-01    2.920000e+00
    P4  SN4d  1 4.300000e-01    3.160000e+00
    P4  SN5d  1 4.300000e-01    3.160000e+00
    P4  SN6d  1 4.300000e-01    3.380000e+00
    P4  SP1d  1 4.300000e-01    3.590000e+00
    P4  SP2d  1 4.300000e-01    3.770000e+00
    P4  SP3d  1 4.300000e-01    3.770000e+00
    P4  SP4a  1 4.300000e-01    3.970000e+00
    P4  SN1a  1 4.300000e-01    2.530000e+00
    P4  SN2a  1 4.300000e-01    2.770000e+00
    P4  SN3a  1 4.300000e-01    2.920000e+00
    P4  SN4a  1 4.300000e-01    3.160000e+00
    P4  SN5a  1 4.300000e-01    3.160000e+00
    P4  SN6a  1 4.300000e-01    3.380000e+00
    P4  SP1a  1 4.300000e-01    3.590000e+00
    P4  SP2a  1 4.300000e-01    3.770000e+00
    P4  SP3a  1 4.300000e-01    3.770000e+00
    P4  SC6v  1 4.300000e-01    2.770000e+00
    P4  SC5v  1 4.300000e-01    2.530000e+00
    P4  SC4v  1 4.300000e-01    2.320000e+00
    P4  SC3v  1 4.300000e-01    2.160000e+00
    P4  SC2v  1 4.300000e-01    2.160000e+00
    P4  SC1v  1 4.300000e-01    1.930000e+00
    P4  SX4v  1 4.300000e-01    2.920000e+00
    P4  SX3v  1 4.300000e-01    2.770000e+00
    P4  SX2v  1 4.300000e-01    2.770000e+00
    P4  SX1v  1 4.300000e-01    2.530000e+00
    P4  SC6e  1 4.300000e-01    2.770000e+00
    P4  SC5e  1 4.300000e-01    2.530000e+00
    P4  SC4e  1 4.300000e-01    2.320000e+00
    P4  SC3e  1 4.300000e-01    2.160000e+00
    P4  SC2e  1 4.300000e-01    2.160000e+00
    P4  SC1e  1 4.300000e-01    1.930000e+00
    P4  SX4e  1 4.300000e-01    2.920000e+00
    P4  SX3e  1 4.300000e-01    2.770000e+00
    P4  SX2e  1 4.300000e-01    2.770000e+00
    P4  SX1e  1 4.300000e-01    2.530000e+00
    P4  SP4q  1 4.300000e-01    4.400000e+00
    P4 SX1eq  1 4.300000e-01    2.920000e+00
    P4 SX2eq  1 4.300000e-01    3.160000e+00
    P4 SX3eq  1 4.300000e-01    3.160000e+00
    P4 SX4eq  1 4.300000e-01    3.380000e+00
    P4 SC1eq  1 4.300000e-01    2.320000e+00
    P4 SC2eq  1 4.300000e-01    2.530000e+00
    P4 SC3eq  1 4.300000e-01    2.530000e+00
    P4 SC4eq  1 4.300000e-01    2.770000e+00
    P4 SC5eq  1 4.300000e-01    2.920000e+00
    P4 SC6eq  1 4.300000e-01    3.160000e+00
    P4 SX1vq  1 4.300000e-01    2.920000e+00
    P4 SX2vq  1 4.300000e-01    3.160000e+00
    P4 SX3vq  1 4.300000e-01    3.160000e+00
    P4 SX4vq  1 4.300000e-01    3.380000e+00
    P4 SC1vq  1 4.300000e-01    2.320000e+00
    P4 SC2vq  1 4.300000e-01    2.530000e+00
    P4 SC3vq  1 4.300000e-01    2.530000e+00
    P4 SC4vq  1 4.300000e-01    2.770000e+00
    P4 SC5vq  1 4.300000e-01    2.920000e+00
    P4 SC6vq  1 4.300000e-01    3.160000e+00
    P4 SN1aq  1 4.300000e-01    2.920000e+00
    P4 SN2aq  1 4.300000e-01    3.160000e+00
    P4 SN3aq  1 4.300000e-01    3.380000e+00
    P4 SN4aq  1 4.300000e-01    3.590000e+00
    P4 SN5aq  1 4.300000e-01    3.590000e+00
    P4 SN6aq  1 4.300000e-01    3.770000e+00
    P4 SP1aq  1 4.300000e-01    3.970000e+00
    P4 SP2aq  1 4.300000e-01    4.170000e+00
    P4 SP3aq  1 4.300000e-01    4.170000e+00
    P4 SP4aq  1 4.300000e-01    4.400000e+00
    P4 SN1dq  1 4.300000e-01    2.920000e+00
    P4 SN2dq  1 4.300000e-01    3.160000e+00
    P4 SN3dq  1 4.300000e-01    3.380000e+00
    P4 SN4dq  1 4.300000e-01    3.590000e+00
    P4 SN5dq  1 4.300000e-01    3.590000e+00
    P4 SN6dq  1 4.300000e-01    3.770000e+00
    P4 SP1dq  1 4.300000e-01    3.970000e+00
    P4 SP2dq  1 4.300000e-01    4.170000e+00
    P4 SP3dq  1 4.300000e-01    4.170000e+00
    P4 SP4dq  1 4.300000e-01    4.400000e+00
    P4  SX1q  1 4.300000e-01    2.770000e+00
    P4  SX2q  1 4.300000e-01    2.920000e+00
    P4  SX3q  1 4.300000e-01    2.920000e+00
    P4  SX4q  1 4.300000e-01    3.160000e+00
    P4  SC1q  1 4.300000e-01    2.160000e+00
    P4  SC2q  1 4.300000e-01    2.320000e+00
    P4  SC3q  1 4.300000e-01    2.320000e+00
    P4  SC4q  1 4.300000e-01    2.530000e+00
    P4  SC5q  1 4.300000e-01    2.770000e+00
    P4  SC6q  1 4.300000e-01    2.920000e+00
    P4  SN1q  1 4.300000e-01    2.920000e+00
    P4  SN2q  1 4.300000e-01    3.160000e+00
    P4  SN3q  1 4.300000e-01    3.380000e+00
    P4  SN4q  1 4.300000e-01    3.590000e+00
    P4  SN5q  1 4.300000e-01    3.590000e+00
    P4  SN6q  1 4.300000e-01    3.770000e+00
    P4  SP1q  1 4.300000e-01    3.970000e+00
    P4  SP2q  1 4.300000e-01    4.170000e+00
    P4  SP3q  1 4.300000e-01    4.170000e+00
    P4  SP4h  1 4.300000e-01    3.970000e+00
    P4 SX1eh  1 4.300000e-01    2.530000e+00
    P4 SX2eh  1 4.300000e-01    2.770000e+00
    P4 SX3eh  1 4.300000e-01    2.770000e+00
    P4 SX4eh  1 4.300000e-01    2.920000e+00
    P4 SC1eh  1 4.300000e-01    1.930000e+00
    P4 SC2eh  1 4.300000e-01    2.160000e+00
    P4 SC3eh  1 4.300000e-01    2.160000e+00
    P4 SC4eh  1 4.300000e-01    2.320000e+00
    P4 SC5eh  1 4.300000e-01    2.530000e+00
    P4 SC6eh  1 4.300000e-01    2.770000e+00
    P4 SX1vh  1 4.300000e-01    2.530000e+00
    P4 SX2vh  1 4.300000e-01    2.770000e+00
    P4 SX3vh  1 4.300000e-01    2.770000e+00
    P4 SX4vh  1 4.300000e-01    2.920000e+00
    P4 SC1vh  1 4.300000e-01    1.930000e+00
    P4 SC2vh  1 4.300000e-01    2.160000e+00
    P4 SC3vh  1 4.300000e-01    2.160000e+00
    P4 SC4vh  1 4.300000e-01    2.320000e+00
    P4 SC5vh  1 4.300000e-01    2.530000e+00
    P4 SC6vh  1 4.300000e-01    2.770000e+00
    P4 SN1ah  1 4.300000e-01    2.530000e+00
    P4 SN2ah  1 4.300000e-01    2.770000e+00
    P4 SN3ah  1 4.300000e-01    2.920000e+00
    P4 SN4ah  1 4.300000e-01    3.160000e+00
    P4 SN5ah  1 4.300000e-01    3.160000e+00
    P4 SN6ah  1 4.300000e-01    3.380000e+00
    P4 SP1ah  1 4.300000e-01    3.590000e+00
    P4 SP2ah  1 4.300000e-01    3.770000e+00
    P4 SP3ah  1 4.300000e-01    3.770000e+00
    P4 SP4ah  1 4.300000e-01    3.970000e+00
    P4 SN1dh  1 4.300000e-01    2.530000e+00
    P4 SN2dh  1 4.300000e-01    2.770000e+00
    P4 SN3dh  1 4.300000e-01    2.920000e+00
    P4 SN4dh  1 4.300000e-01    3.160000e+00
    P4 SN5dh  1 4.300000e-01    3.160000e+00
    P4 SN6dh  1 4.300000e-01    3.380000e+00
    P4 SP1dh  1 4.300000e-01    3.590000e+00
    P4 SP2dh  1 4.300000e-01    3.770000e+00
    P4 SP3dh  1 4.300000e-01    3.770000e+00
    P4 SP4dh  1 4.300000e-01    3.970000e+00
    P4  SX1h  1 4.300000e-01    2.320000e+00
    P4  SX2h  1 4.300000e-01    2.530000e+00
    P4  SX3h  1 4.300000e-01    2.530000e+00
    P4  SX4h  1 4.300000e-01    2.770000e+00
    P4  SC1h  1 4.300000e-01    1.730000e+00
    P4  SC2h  1 4.300000e-01    1.930000e+00
    P4  SC3h  1 4.300000e-01    1.930000e+00
    P4  SC4h  1 4.300000e-01    2.160000e+00
    P4  SC5h  1 4.300000e-01    2.320000e+00
    P4  SC6h  1 4.300000e-01    2.530000e+00
    P4  SN1h  1 4.300000e-01    2.530000e+00
    P4  SN2h  1 4.300000e-01    2.770000e+00
    P4  SN3h  1 4.300000e-01    2.920000e+00
    P4  SN4h  1 4.300000e-01    3.160000e+00
    P4  SN5h  1 4.300000e-01    3.160000e+00
    P4  SN6h  1 4.300000e-01    3.380000e+00
    P4  SP1h  1 4.300000e-01    3.590000e+00
    P4  SP2h  1 4.300000e-01    3.770000e+00
    P4  SP3h  1 4.300000e-01    3.770000e+00
    P4  SP4r  1 4.300000e-01    3.970000e+00
    P4 SX1er  1 4.300000e-01    2.530000e+00
    P4 SX2er  1 4.300000e-01    2.770000e+00
    P4 SX3er  1 4.300000e-01    2.770000e+00
    P4 SX4er  1 4.300000e-01    2.920000e+00
    P4 SC1er  1 4.300000e-01    1.930000e+00
    P4 SC2er  1 4.300000e-01    2.160000e+00
    P4 SC3er  1 4.300000e-01    2.160000e+00
    P4 SC4er  1 4.300000e-01    2.320000e+00
    P4 SC5er  1 4.300000e-01    2.530000e+00
    P4 SC6er  1 4.300000e-01    2.770000e+00
    P4 SX1vr  1 4.300000e-01    2.530000e+00
    P4 SX2vr  1 4.300000e-01    2.770000e+00
    P4 SX3vr  1 4.300000e-01    2.770000e+00
    P4 SX4vr  1 4.300000e-01    2.920000e+00
    P4 SC1vr  1 4.300000e-01    1.930000e+00
    P4 SC2vr  1 4.300000e-01    2.160000e+00
    P4 SC3vr  1 4.300000e-01    2.160000e+00
    P4 SC4vr  1 4.300000e-01    2.320000e+00
    P4 SC5vr  1 4.300000e-01    2.530000e+00
    P4 SC6vr  1 4.300000e-01    2.770000e+00
    P4 SN1ar  1 4.300000e-01    2.530000e+00
    P4 SN2ar  1 4.300000e-01    2.770000e+00
    P4 SN3ar  1 4.300000e-01    2.920000e+00
    P4 SN4ar  1 4.300000e-01    3.160000e+00
    P4 SN5ar  1 4.300000e-01    3.160000e+00
    P4 SN6ar  1 4.300000e-01    3.380000e+00
    P4 SP1ar  1 4.300000e-01    3.590000e+00
    P4 SP2ar  1 4.300000e-01    3.770000e+00
    P4 SP3ar  1 4.300000e-01    3.770000e+00
    P4 SP4ar  1 4.300000e-01    3.970000e+00
    P4 SN1dr  1 4.300000e-01    2.530000e+00
    P4 SN2dr  1 4.300000e-01    2.770000e+00
    P4 SN3dr  1 4.300000e-01    2.920000e+00
    P4 SN4dr  1 4.300000e-01    3.160000e+00
    P4 SN5dr  1 4.300000e-01    3.160000e+00
    P4 SN6dr  1 4.300000e-01    3.380000e+00
    P4 SP1dr  1 4.300000e-01    3.590000e+00
    P4 SP2dr  1 4.300000e-01    3.770000e+00
    P4 SP3dr  1 4.300000e-01    3.770000e+00
    P4 SP4dr  1 4.300000e-01    3.970000e+00
    P4  SX1r  1 4.300000e-01    2.320000e+00
    P4  SX2r  1 4.300000e-01    2.530000e+00
    P4  SX3r  1 4.300000e-01    2.530000e+00
    P4  SX4r  1 4.300000e-01    2.770000e+00
    P4  SC1r  1 4.300000e-01    1.730000e+00
    P4  SC2r  1 4.300000e-01    1.930000e+00
    P4  SC3r  1 4.300000e-01    1.930000e+00
    P4  SC4r  1 4.300000e-01    2.160000e+00
    P4  SC5r  1 4.300000e-01    2.320000e+00
    P4  SC6r  1 4.300000e-01    2.530000e+00
    P4  SN1r  1 4.300000e-01    2.530000e+00
    P4  SN2r  1 4.300000e-01    2.770000e+00
    P4  SN3r  1 4.300000e-01    2.920000e+00
    P4  SN4r  1 4.300000e-01    3.160000e+00
    P4  SN5r  1 4.300000e-01    3.160000e+00
    P4  SN6r  1 4.300000e-01    3.380000e+00
    P4  SP1r  1 4.300000e-01    3.590000e+00
    P4  SP2r  1 4.300000e-01    3.770000e+00
    P4  SP3r  1 4.300000e-01    3.770000e+00
  SP6d    P4  1 4.300000e-01    4.170000e+00
  SP5d    P4  1 4.300000e-01    3.970000e+00
  SP6a    P4  1 4.300000e-01    4.170000e+00
  SP5a    P4  1 4.300000e-01    3.970000e+00
  SP6q    P4  1 4.300000e-01    4.680000e+00
  SP5q    P4  1 4.300000e-01    4.400000e+00
 SP5aq    P4  1 4.300000e-01    4.400000e+00
 SP6aq    P4  1 4.300000e-01    4.680000e+00
 SP5dq    P4  1 4.300000e-01    4.400000e+00
 SP6dq    P4  1 4.300000e-01    4.680000e+00
  SP6h    P4  1 4.300000e-01    4.170000e+00
  SP5h    P4  1 4.300000e-01    3.970000e+00
 SP5ah    P4  1 4.300000e-01    3.970000e+00
 SP6ah    P4  1 4.300000e-01    4.170000e+00
 SP5dh    P4  1 4.300000e-01    3.970000e+00
 SP6dh    P4  1 4.300000e-01    4.170000e+00
  SP6r    P4  1 4.300000e-01    4.170000e+00
  SP5r    P4  1 4.300000e-01    3.970000e+00
 SP5ar    P4  1 4.300000e-01    3.970000e+00
 SP6ar    P4  1 4.300000e-01    4.170000e+00
 SP5dr    P4  1 4.300000e-01    3.970000e+00
 SP6dr    P4  1 4.300000e-01    4.170000e+00
    P4   TP4  1 3.950000e-01    3.430000e+00
    P4   TP3  1 3.950000e-01    3.190000e+00
    P4   TP2  1 3.950000e-01    3.190000e+00
    P4   TP1  1 3.950000e-01    2.940000e+00
    P4   TN6  1 3.950000e-01    2.700000e+00
    P4   TN5  1 3.950000e-01    2.500000e+00
    P4   TN4  1 3.950000e-01    2.500000e+00
    P4   TN3  1 3.950000e-01    2.310000e+00
    P4   TN2  1 3.950000e-01    2.110000e+00
    P4   TN1  1 3.950000e-01    1.850000e+00
    P4   TC6  1 3.950000e-01    1.850000e+00
    P4   TC5  1 3.950000e-01    1.670000e+00
    P4   TC4  1 3.980000e-01    1.450000e+00
    P4   TC3  1 3.990000e-01    1.180000e+00
    P4   TC2  1 3.990000e-01    1.180000e+00
    P4   TC1  1 4.010000e-01    9.830000e-01
    P4   TX4  1 3.950000e-01    2.110000e+00
    P4   TX3  1 3.950000e-01    1.850000e+00
    P4   TX2  1 3.950000e-01    1.850000e+00
    P4   TX1  1 3.950000e-01    1.670000e+00
    P4  TP4d  1 3.950000e-01    3.430000e+00
    P4  TN1d  1 3.950000e-01    1.850000e+00
    P4  TN2d  1 3.950000e-01    2.110000e+00
    P4  TN3d  1 3.950000e-01    2.310000e+00
    P4  TN4d  1 3.950000e-01    2.500000e+00
    P4  TN5d  1 3.950000e-01    2.500000e+00
    P4  TN6d  1 3.950000e-01    2.700000e+00
    P4  TP1d  1 3.950000e-01    2.940000e+00
    P4  TP2d  1 3.950000e-01    3.190000e+00
    P4  TP3d  1 3.950000e-01    3.190000e+00
    P4  TP4a  1 3.950000e-01    3.430000e+00
    P4  TN1a  1 3.950000e-01    1.850000e+00
    P4  TN2a  1 3.950000e-01    2.110000e+00
    P4  TN3a  1 3.950000e-01    2.310000e+00
    P4  TN4a  1 3.950000e-01    2.500000e+00
    P4  TN5a  1 3.950000e-01    2.500000e+00
    P4  TN6a  1 3.950000e-01    2.700000e+00
    P4  TP1a  1 3.950000e-01    2.940000e+00
    P4  TP2a  1 3.950000e-01    3.190000e+00
    P4  TP3a  1 3.950000e-01    3.190000e+00
    P4  TC6v  1 3.950000e-01    2.110000e+00
    P4  TC5v  1 3.950000e-01    1.850000e+00
    P4  TC4v  1 3.950000e-01    1.670000e+00
    P4  TC3v  1 3.980000e-01    1.450000e+00
    P4  TC2v  1 3.980000e-01    1.450000e+00
    P4  TC1v  1 3.990000e-01    1.180000e+00
    P4  TX4v  1 3.950000e-01    2.310000e+00
    P4  TX3v  1 3.950000e-01    2.110000e+00
    P4  TX2v  1 3.950000e-01    2.110000e+00
    P4  TX1v  1 3.950000e-01    1.850000e+00
    P4  TC6e  1 3.950000e-01    2.110000e+00
    P4  TC5e  1 3.950000e-01    1.850000e+00
    P4  TC4e  1 3.950000e-01    1.670000e+00
    P4  TC3e  1 3.980000e-01    1.450000e+00
    P4  TC2e  1 3.980000e-01    1.450000e+00
    P4  TC1e  1 3.990000e-01    1.180000e+00
    P4  TX4e  1 3.950000e-01    2.310000e+00
    P4  TX3e  1 3.950000e-01    2.110000e+00
    P4  TX2e  1 3.950000e-01    2.110000e+00
    P4  TX1e  1 3.950000e-01    1.850000e+00
    P4  TP4q  1 3.950000e-01    3.910000e+00
    P4 TX1eq  1 3.950000e-01    2.310000e+00
    P4 TX2eq  1 3.950000e-01    2.500000e+00
    P4 TX3eq  1 3.950000e-01    2.500000e+00
    P4 TX4eq  1 3.950000e-01    2.700000e+00
    P4 TC1eq  1 3.950000e-01    1.670000e+00
    P4 TC2eq  1 3.950000e-01    1.850000e+00
    P4 TC3eq  1 3.950000e-01    1.850000e+00
    P4 TC4eq  1 3.950000e-01    2.110000e+00
    P4 TC5eq  1 3.950000e-01    2.310000e+00
    P4 TC6eq  1 3.950000e-01    2.500000e+00
    P4 TX1vq  1 3.950000e-01    2.310000e+00
    P4 TX2vq  1 3.950000e-01    2.500000e+00
    P4 TX3vq  1 3.950000e-01    2.500000e+00
    P4 TX4vq  1 3.950000e-01    2.700000e+00
    P4 TC1vq  1 3.950000e-01    1.670000e+00
    P4 TC2vq  1 3.950000e-01    1.850000e+00
    P4 TC3vq  1 3.950000e-01    1.850000e+00
    P4 TC4vq  1 3.950000e-01    2.110000e+00
    P4 TC5vq  1 3.950000e-01    2.310000e+00
    P4 TC6vq  1 3.950000e-01    2.500000e+00
    P4 TN1aq  1 3.950000e-01    2.310000e+00
    P4 TN2aq  1 3.950000e-01    2.500000e+00
    P4 TN3aq  1 3.950000e-01    2.700000e+00
    P4 TN4aq  1 3.950000e-01    2.940000e+00
    P4 TN5aq  1 3.950000e-01    2.940000e+00
    P4 TN6aq  1 3.950000e-01    3.190000e+00
    P4 TP1aq  1 3.950000e-01    3.430000e+00
    P4 TP2aq  1 3.950000e-01    3.670000e+00
    P4 TP3aq  1 3.950000e-01    3.670000e+00
    P4 TP4aq  1 3.950000e-01    3.910000e+00
    P4 TN1dq  1 3.950000e-01    2.310000e+00
    P4 TN2dq  1 3.950000e-01    2.500000e+00
    P4 TN3dq  1 3.950000e-01    2.700000e+00
    P4 TN4dq  1 3.950000e-01    2.940000e+00
    P4 TN5dq  1 3.950000e-01    2.940000e+00
    P4 TN6dq  1 3.950000e-01    3.190000e+00
    P4 TP1dq  1 3.950000e-01    3.430000e+00
    P4 TP2dq  1 3.950000e-01    3.670000e+00
    P4 TP3dq  1 3.950000e-01    3.670000e+00
    P4 TP4dq  1 3.950000e-01    3.910000e+00
    P4  TX1q  1 3.950000e-01    2.110000e+00
    P4  TX2q  1 3.950000e-01    2.310000e+00
    P4  TX3q  1 3.950000e-01    2.310000e+00
    P4  TX4q  1 3.950000e-01    2.500000e+00
    P4  TC1q  1 3.980000e-01    1.450000e+00
    P4  TC2q  1 3.950000e-01    1.670000e+00
    P4  TC3q  1 3.950000e-01    1.670000e+00
    P4  TC4q  1 3.950000e-01    1.850000e+00
    P4  TC5q  1 3.950000e-01    2.110000e+00
    P4  TC6q  1 3.950000e-01    2.310000e+00
    P4  TN1q  1 3.950000e-01    2.310000e+00
    P4  TN2q  1 3.950000e-01    2.500000e+00
    P4  TN3q  1 3.950000e-01    2.700000e+00
    P4  TN4q  1 3.950000e-01    2.940000e+00
    P4  TN5q  1 3.950000e-01    2.940000e+00
    P4  TN6q  1 3.950000e-01    3.190000e+00
    P4  TP1q  1 3.950000e-01    3.430000e+00
    P4  TP2q  1 3.950000e-01    3.670000e+00
    P4  TP3q  1 3.950000e-01    3.670000e+00
    P4  TP4h  1 3.950000e-01    3.430000e+00
    P4 TX1eh  1 3.950000e-01    1.850000e+00
    P4 TX2eh  1 3.950000e-01    2.110000e+00
    P4 TX3eh  1 3.950000e-01    2.110000e+00
    P4 TX4eh  1 3.950000e-01    2.310000e+00
    P4 TC1eh  1 3.990000e-01    1.180000e+00
    P4 TC2eh  1 3.980000e-01    1.450000e+00
    P4 TC3eh  1 3.980000e-01    1.450000e+00
    P4 TC4eh  1 3.950000e-01    1.670000e+00
    P4 TC5eh  1 3.950000e-01    1.850000e+00
    P4 TC6eh  1 3.950000e-01    2.110000e+00
    P4 TX1vh  1 3.950000e-01    1.850000e+00
    P4 TX2vh  1 3.950000e-01    2.110000e+00
    P4 TX3vh  1 3.950000e-01    2.110000e+00
    P4 TX4vh  1 3.950000e-01    2.310000e+00
    P4 TC1vh  1 3.990000e-01    1.180000e+00
    P4 TC2vh  1 3.980000e-01    1.450000e+00
    P4 TC3vh  1 3.980000e-01    1.450000e+00
    P4 TC4vh  1 3.950000e-01    1.670000e+00
    P4 TC5vh  1 3.950000e-01    1.850000e+00
    P4 TC6vh  1 3.950000e-01    2.110000e+00
    P4 TN1ah  1 3.950000e-01    1.850000e+00
    P4 TN2ah  1 3.950000e-01    2.110000e+00
    P4 TN3ah  1 3.950000e-01    2.310000e+00
    P4 TN4ah  1 3.950000e-01    2.500000e+00
    P4 TN5ah  1 3.950000e-01    2.500000e+00
    P4 TN6ah  1 3.950000e-01    2.700000e+00
    P4 TP1ah  1 3.950000e-01    2.940000e+00
    P4 TP2ah  1 3.950000e-01    3.190000e+00
    P4 TP3ah  1 3.950000e-01    3.190000e+00
    P4 TP4ah  1 3.950000e-01    3.430000e+00
    P4 TN1dh  1 3.950000e-01    1.850000e+00
    P4 TN2dh  1 3.950000e-01    2.110000e+00
    P4 TN3dh  1 3.950000e-01    2.310000e+00
    P4 TN4dh  1 3.950000e-01    2.500000e+00
    P4 TN5dh  1 3.950000e-01    2.500000e+00
    P4 TN6dh  1 3.950000e-01    2.700000e+00
    P4 TP1dh  1 3.950000e-01    2.940000e+00
    P4 TP2dh  1 3.950000e-01    3.190000e+00
    P4 TP3dh  1 3.950000e-01    3.190000e+00
    P4 TP4dh  1 3.950000e-01    3.430000e+00
    P4  TX1h  1 3.950000e-01    1.670000e+00
    P4  TX2h  1 3.950000e-01    1.850000e+00
    P4  TX3h  1 3.950000e-01    1.850000e+00
    P4  TX4h  1 3.950000e-01    2.110000e+00
    P4  TC1h  1 4.010000e-01    9.830000e-01
    P4  TC2h  1 3.990000e-01    1.180000e+00
    P4  TC3h  1 3.990000e-01    1.180000e+00
    P4  TC4h  1 3.980000e-01    1.450000e+00
    P4  TC5h  1 3.950000e-01    1.670000e+00
    P4  TC6h  1 3.950000e-01    1.850000e+00
    P4  TN1h  1 3.950000e-01    1.850000e+00
    P4  TN2h  1 3.950000e-01    2.110000e+00
    P4  TN3h  1 3.950000e-01    2.310000e+00
    P4  TN4h  1 3.950000e-01    2.500000e+00
    P4  TN5h  1 3.950000e-01    2.500000e+00
    P4  TN6h  1 3.950000e-01    2.700000e+00
    P4  TP1h  1 3.950000e-01    2.940000e+00
    P4  TP2h  1 3.950000e-01    3.190000e+00
    P4  TP3h  1 3.950000e-01    3.190000e+00
    P4  TP4r  1 3.950000e-01    3.430000e+00
    P4 TX1er  1 3.950000e-01    1.850000e+00
    P4 TX2er  1 3.950000e-01    2.110000e+00
    P4 TX3er  1 3.950000e-01    2.110000e+00
    P4 TX4er  1 3.950000e-01    2.310000e+00
    P4 TC1er  1 3.990000e-01    1.180000e+00
    P4 TC2er  1 3.980000e-01    1.450000e+00
    P4 TC3er  1 3.980000e-01    1.450000e+00
    P4 TC4er  1 3.950000e-01    1.670000e+00
    P4 TC5er  1 3.950000e-01    1.850000e+00
    P4 TC6er  1 3.950000e-01    2.110000e+00
    P4 TX1vr  1 3.950000e-01    1.850000e+00
    P4 TX2vr  1 3.950000e-01    2.110000e+00
    P4 TX3vr  1 3.950000e-01    2.110000e+00
    P4 TX4vr  1 3.950000e-01    2.310000e+00
    P4 TC1vr  1 3.990000e-01    1.180000e+00
    P4 TC2vr  1 3.980000e-01    1.450000e+00
    P4 TC3vr  1 3.980000e-01    1.450000e+00
    P4 TC4vr  1 3.950000e-01    1.670000e+00
    P4 TC5vr  1 3.950000e-01    1.850000e+00
    P4 TC6vr  1 3.950000e-01    2.110000e+00
    P4 TN1ar  1 3.950000e-01    1.850000e+00
    P4 TN2ar  1 3.950000e-01    2.110000e+00
    P4 TN3ar  1 3.950000e-01    2.310000e+00
    P4 TN4ar  1 3.950000e-01    2.500000e+00
    P4 TN5ar  1 3.950000e-01    2.500000e+00
    P4 TN6ar  1 3.950000e-01    2.700000e+00
    P4 TP1ar  1 3.950000e-01    2.940000e+00
    P4 TP2ar  1 3.950000e-01    3.190000e+00
    P4 TP3ar  1 3.950000e-01    3.190000e+00
    P4 TP4ar  1 3.950000e-01    3.430000e+00
    P4 TN1dr  1 3.950000e-01    1.850000e+00
    P4 TN2dr  1 3.950000e-01    2.110000e+00
    P4 TN3dr  1 3.950000e-01    2.310000e+00
    P4 TN4dr  1 3.950000e-01    2.500000e+00
    P4 TN5dr  1 3.950000e-01    2.500000e+00
    P4 TN6dr  1 3.950000e-01    2.700000e+00
    P4 TP1dr  1 3.950000e-01    2.940000e+00
    P4 TP2dr  1 3.950000e-01    3.190000e+00
    P4 TP3dr  1 3.950000e-01    3.190000e+00
    P4 TP4dr  1 3.950000e-01    3.430000e+00
    P4  TX1r  1 3.950000e-01    1.670000e+00
    P4  TX2r  1 3.950000e-01    1.850000e+00
    P4  TX3r  1 3.950000e-01    1.850000e+00
    P4  TX4r  1 3.950000e-01    2.110000e+00
    P4  TC1r  1 4.010000e-01    9.830000e-01
    P4  TC2r  1 3.990000e-01    1.180000e+00
    P4  TC3r  1 3.990000e-01    1.180000e+00
    P4  TC4r  1 3.980000e-01    1.450000e+00
    P4  TC5r  1 3.950000e-01    1.670000e+00
    P4  TC6r  1 3.950000e-01    1.850000e+00
    P4  TN1r  1 3.950000e-01    1.850000e+00
    P4  TN2r  1 3.950000e-01    2.110000e+00
    P4  TN3r  1 3.950000e-01    2.310000e+00
    P4  TN4r  1 3.950000e-01    2.500000e+00
    P4  TN5r  1 3.950000e-01    2.500000e+00
    P4  TN6r  1 3.950000e-01    2.700000e+00
    P4  TP1r  1 3.950000e-01    2.940000e+00
    P4  TP2r  1 3.950000e-01    3.190000e+00
    P4  TP3r  1 3.950000e-01    3.190000e+00
  TP6d    P4  1 3.950000e-01    3.670000e+00
  TP5d    P4  1 3.950000e-01    3.430000e+00
  TP6a    P4  1 3.950000e-01    3.670000e+00
  TP5a    P4  1 3.950000e-01    3.430000e+00
  TP6q    P4  1 3.950000e-01    4.230000e+00
  TP5q    P4  1 3.950000e-01    3.910000e+00
 TP5aq    P4  1 3.950000e-01    3.910000e+00
 TP6aq    P4  1 3.950000e-01    4.230000e+00
 TP5dq    P4  1 3.950000e-01    3.910000e+00
 TP6dq    P4  1 3.950000e-01    4.230000e+00
  TP6h    P4  1 3.950000e-01    3.670000e+00
  TP5h    P4  1 3.950000e-01    3.430000e+00
 TP5ah    P4  1 3.950000e-01    3.430000e+00
 TP6ah    P4  1 3.950000e-01    3.670000e+00
 TP5dh    P4  1 3.950000e-01    3.430000e+00
 TP6dh    P4  1 3.950000e-01    3.670000e+00
  TP6r    P4  1 3.950000e-01    3.670000e+00
  TP5r    P4  1 3.950000e-01    3.430000e+00
 TP5ar    P4  1 3.950000e-01    3.430000e+00
 TP6ar    P4  1 3.950000e-01    3.670000e+00
 TP5dr    P4  1 3.950000e-01    3.430000e+00
 TP6dr    P4  1 3.950000e-01    3.670000e+00
   P6d   SP4  1 4.300000e-01    4.170000e+00
   P5d   SP4  1 4.300000e-01    3.970000e+00
   P6a   SP4  1 4.300000e-01    4.170000e+00
   P5a   SP4  1 4.300000e-01    3.970000e+00
   P6q   SP4  1 4.300000e-01    4.680000e+00
   P5q   SP4  1 4.300000e-01    4.400000e+00
  P5aq   SP4  1 4.300000e-01    4.400000e+00
  P6aq   SP4  1 4.300000e-01    4.680000e+00
  P5dq   SP4  1 4.300000e-01    4.400000e+00
  P6dq   SP4  1 4.300000e-01    4.680000e+00
   P6h   SP4  1 4.300000e-01    4.170000e+00
   P5h   SP4  1 4.300000e-01    3.970000e+00
  P5ah   SP4  1 4.300000e-01    3.970000e+00
  P6ah   SP4  1 4.300000e-01    4.170000e+00
  P5dh   SP4  1 4.300000e-01    3.970000e+00
  P6dh   SP4  1 4.300000e-01    4.170000e+00
   P6r   SP4  1 4.300000e-01    4.170000e+00
   P5r   SP4  1 4.300000e-01    3.970000e+00
  P5ar   SP4  1 4.300000e-01    3.970000e+00
  P6ar   SP4  1 4.300000e-01    4.170000e+00
  P5dr   SP4  1 4.300000e-01    3.970000e+00
  P6dr   SP4  1 4.300000e-01    4.170000e+00
   SP4    P3  1 4.300000e-01    3.770000e+00
   SP4    P2  1 4.300000e-01    3.770000e+00
   SP4    P1  1 4.300000e-01    3.590000e+00
   SP4    N6  1 4.300000e-01    3.380000e+00
   SP4    N5  1 4.300000e-01    3.160000e+00
   SP4    N4  1 4.300000e-01    3.160000e+00
   SP4    N3  1 4.300000e-01    2.920000e+00
   SP4    N2  1 4.300000e-01    2.770000e+00
   SP4    N1  1 4.300000e-01    2.530000e+00
   SP4    C6  1 4.300000e-01    2.530000e+00
   SP4    C5  1 4.300000e-01    2.320000e+00
   SP4    C4  1 4.300000e-01    2.160000e+00
   SP4    C3  1 4.300000e-01    1.930000e+00
   SP4    C2  1 4.300000e-01    1.930000e+00
   SP4    C1  1 4.300000e-01    1.730000e+00
   SP4    X4  1 4.300000e-01    2.770000e+00
   SP4    X3  1 4.300000e-01    2.530000e+00
   SP4    X2  1 4.300000e-01    2.530000e+00
   SP4    X1  1 4.300000e-01    2.320000e+00
   SP4   P4d  1 4.300000e-01    3.970000e+00
   SP4   N1d  1 4.300000e-01    2.530000e+00
   SP4   N2d  1 4.300000e-01    2.770000e+00
   SP4   N3d  1 4.300000e-01    2.920000e+00
   SP4   N4d  1 4.300000e-01    3.160000e+00
   SP4   N5d  1 4.300000e-01    3.160000e+00
   SP4   N6d  1 4.300000e-01    3.380000e+00
   SP4   P1d  1 4.300000e-01    3.590000e+00
   SP4   P2d  1 4.300000e-01    3.770000e+00
   SP4   P3d  1 4.300000e-01    3.770000e+00
   SP4   P4a  1 4.300000e-01    3.970000e+00
   SP4   N1a  1 4.300000e-01    2.530000e+00
   SP4   N2a  1 4.300000e-01    2.770000e+00
   SP4   N3a  1 4.300000e-01    2.920000e+00
   SP4   N4a  1 4.300000e-01    3.160000e+00
   SP4   N5a  1 4.300000e-01    3.160000e+00
   SP4   N6a  1 4.300000e-01    3.380000e+00
   SP4   P1a  1 4.300000e-01    3.590000e+00
   SP4   P2a  1 4.300000e-01    3.770000e+00
   SP4   P3a  1 4.300000e-01    3.770000e+00
   SP4   C6v  1 4.300000e-01    2.770000e+00
   SP4   C5v  1 4.300000e-01    2.530000e+00
   SP4   C4v  1 4.300000e-01    2.320000e+00
   SP4   C3v  1 4.300000e-01    2.160000e+00
   SP4   C2v  1 4.300000e-01    2.160000e+00
   SP4   C1v  1 4.300000e-01    1.930000e+00
   SP4   X4v  1 4.300000e-01    2.920000e+00
   SP4   X3v  1 4.300000e-01    2.770000e+00
   SP4   X2v  1 4.300000e-01    2.770000e+00
   SP4   X1v  1 4.300000e-01    2.530000e+00
   SP4   C6e  1 4.300000e-01    2.770000e+00
   SP4   C5e  1 4.300000e-01    2.530000e+00
   SP4   C4e  1 4.300000e-01    2.320000e+00
   SP4   C3e  1 4.300000e-01    2.160000e+00
   SP4   C2e  1 4.300000e-01    2.160000e+00
   SP4   C1e  1 4.300000e-01    1.930000e+00
   SP4   X4e  1 4.300000e-01    2.920000e+00
   SP4   X3e  1 4.300000e-01    2.770000e+00
   SP4   X2e  1 4.300000e-01    2.770000e+00
   SP4   X1e  1 4.300000e-01    2.530000e+00
   SP4   P4q  1 4.300000e-01    4.400000e+00
   SP4  X1eq  1 4.300000e-01    2.920000e+00
   SP4  X2eq  1 4.300000e-01    3.160000e+00
   SP4  X3eq  1 4.300000e-01    3.160000e+00
   SP4  X4eq  1 4.300000e-01    3.380000e+00
   SP4  C1eq  1 4.300000e-01    2.320000e+00
   SP4  C2eq  1 4.300000e-01    2.530000e+00
   SP4  C3eq  1 4.300000e-01    2.530000e+00
   SP4  C4eq  1 4.300000e-01    2.770000e+00
   SP4  C5eq  1 4.300000e-01    2.920000e+00
   SP4  C6eq  1 4.300000e-01    3.160000e+00
   SP4  X1vq  1 4.300000e-01    2.920000e+00
   SP4  X2vq  1 4.300000e-01    3.160000e+00
   SP4  X3vq  1 4.300000e-01    3.160000e+00
   SP4  X4vq  1 4.300000e-01    3.380000e+00
   SP4  C1vq  1 4.300000e-01    2.320000e+00
   SP4  C2vq  1 4.300000e-01    2.530000e+00
   SP4  C3vq  1 4.300000e-01    2.530000e+00
   SP4  C4vq  1 4.300000e-01    2.770000e+00
   SP4  C5vq  1 4.300000e-01    2.920000e+00
   SP4  C6vq  1 4.300000e-01    3.160000e+00
   SP4  N1aq  1 4.300000e-01    2.920000e+00
   SP4  N2aq  1 4.300000e-01    3.160000e+00
   SP4  N3aq  1 4.300000e-01    3.380000e+00
   SP4  N4aq  1 4.300000e-01    3.590000e+00
   SP4  N5aq  1 4.300000e-01    3.590000e+00
   SP4  N6aq  1 4.300000e-01    3.770000e+00
   SP4  P1aq  1 4.300000e-01    3.970000e+00
   SP4  P2aq  1 4.300000e-01    4.170000e+00
   SP4  P3aq  1 4.300000e-01    4.170000e+00
   SP4  P4aq  1 4.300000e-01    4.400000e+00
   SP4  N1dq  1 4.300000e-01    2.920000e+00
   SP4  N2dq  1 4.300000e-01    3.160000e+00
   SP4  N3dq  1 4.300000e-01    3.380000e+00
   SP4  N4dq  1 4.300000e-01    3.590000e+00
   SP4  N5dq  1 4.300000e-01    3.590000e+00
   SP4  N6dq  1 4.300000e-01    3.770000e+00
   SP4  P1dq  1 4.300000e-01    3.970000e+00
   SP4  P2dq  1 4.300000e-01    4.170000e+00
   SP4  P3dq  1 4.300000e-01    4.170000e+00
   SP4  P4dq  1 4.300000e-01    4.400000e+00
   SP4   X1q  1 4.300000e-01    2.770000e+00
   SP4   X2q  1 4.300000e-01    2.920000e+00
   SP4   X3q  1 4.300000e-01    2.920000e+00
   SP4   X4q  1 4.300000e-01    3.160000e+00
   SP4   C1q  1 4.300000e-01    2.160000e+00
   SP4   C2q  1 4.300000e-01    2.320000e+00
   SP4   C3q  1 4.300000e-01    2.320000e+00
   SP4   C4q  1 4.300000e-01    2.530000e+00
   SP4   C5q  1 4.300000e-01    2.770000e+00
   SP4   C6q  1 4.300000e-01    2.920000e+00
   SP4   N1q  1 4.300000e-01    2.920000e+00
   SP4   N2q  1 4.300000e-01    3.160000e+00
   SP4   N3q  1 4.300000e-01    3.380000e+00
   SP4   N4q  1 4.300000e-01    3.590000e+00
   SP4   N5q  1 4.300000e-01    3.590000e+00
   SP4   N6q  1 4.300000e-01    3.770000e+00
   SP4   P1q  1 4.300000e-01    3.970000e+00
   SP4   P2q  1 4.300000e-01    4.170000e+00
   SP4   P3q  1 4.300000e-01    4.170000e+00
   SP4   P4h  1 4.300000e-01    3.970000e+00
   SP4  X1eh  1 4.300000e-01    2.530000e+00
   SP4  X2eh  1 4.300000e-01    2.770000e+00
   SP4  X3eh  1 4.300000e-01    2.770000e+00
   SP4  X4eh  1 4.300000e-01    2.920000e+00
   SP4  C1eh  1 4.300000e-01    1.930000e+00
   SP4  C2eh  1 4.300000e-01    2.160000e+00
   SP4  C3eh  1 4.300000e-01    2.160000e+00
   SP4  C4eh  1 4.300000e-01    2.320000e+00
   SP4  C5eh  1 4.300000e-01    2.530000e+00
   SP4  C6eh  1 4.300000e-01    2.770000e+00
   SP4  X1vh  1 4.300000e-01    2.530000e+00
   SP4  X2vh  1 4.300000e-01    2.770000e+00
   SP4  X3vh  1 4.300000e-01    2.770000e+00
   SP4  X4vh  1 4.300000e-01    2.920000e+00
   SP4  C1vh  1 4.300000e-01    1.930000e+00
   SP4  C2vh  1 4.300000e-01    2.160000e+00
   SP4  C3vh  1 4.300000e-01    2.160000e+00
   SP4  C4vh  1 4.300000e-01    2.320000e+00
   SP4  C5vh  1 4.300000e-01    2.530000e+00
   SP4  C6vh  1 4.300000e-01    2.770000e+00
   SP4  N1ah  1 4.300000e-01    2.530000e+00
   SP4  N2ah  1 4.300000e-01    2.770000e+00
   SP4  N3ah  1 4.300000e-01    2.920000e+00
   SP4  N4ah  1 4.300000e-01    3.160000e+00
   SP4  N5ah  1 4.300000e-01    3.160000e+00
   SP4  N6ah  1 4.300000e-01    3.380000e+00
   SP4  P1ah  1 4.300000e-01    3.590000e+00
   SP4  P2ah  1 4.300000e-01    3.770000e+00
   SP4  P3ah  1 4.300000e-01    3.770000e+00
   SP4  P4ah  1 4.300000e-01    3.970000e+00
   SP4  N1dh  1 4.300000e-01    2.530000e+00
   SP4  N2dh  1 4.300000e-01    2.770000e+00
   SP4  N3dh  1 4.300000e-01    2.920000e+00
   SP4  N4dh  1 4.300000e-01    3.160000e+00
   SP4  N5dh  1 4.300000e-01    3.160000e+00
   SP4  N6dh  1 4.300000e-01    3.380000e+00
   SP4  P1dh  1 4.300000e-01    3.590000e+00
   SP4  P2dh  1 4.300000e-01    3.770000e+00
   SP4  P3dh  1 4.300000e-01    3.770000e+00
   SP4  P4dh  1 4.300000e-01    3.970000e+00
   SP4   X1h  1 4.300000e-01    2.320000e+00
   SP4   X2h  1 4.300000e-01    2.530000e+00
   SP4   X3h  1 4.300000e-01    2.530000e+00
   SP4   X4h  1 4.300000e-01    2.770000e+00
   SP4   C1h  1 4.300000e-01    1.730000e+00
   SP4   C2h  1 4.300000e-01    1.930000e+00
   SP4   C3h  1 4.300000e-01    1.930000e+00
   SP4   C4h  1 4.300000e-01    2.160000e+00
   SP4   C5h  1 4.300000e-01    2.320000e+00
   SP4   C6h  1 4.300000e-01    2.530000e+00
   SP4   N1h  1 4.300000e-01    2.530000e+00
   SP4   N2h  1 4.300000e-01    2.770000e+00
   SP4   N3h  1 4.300000e-01    2.920000e+00
   SP4   N4h  1 4.300000e-01    3.160000e+00
   SP4   N5h  1 4.300000e-01    3.160000e+00
   SP4   N6h  1 4.300000e-01    3.380000e+00
   SP4   P1h  1 4.300000e-01    3.590000e+00
   SP4   P2h  1 4.300000e-01    3.770000e+00
   SP4   P3h  1 4.300000e-01    3.770000e+00
   SP4   P4r  1 4.300000e-01    3.970000e+00
   SP4  X1er  1 4.300000e-01    2.530000e+00
   SP4  X2er  1 4.300000e-01    2.770000e+00
   SP4  X3er  1 4.300000e-01    2.770000e+00
   SP4  X4er  1 4.300000e-01    2.920000e+00
   SP4  C1er  1 4.300000e-01    1.930000e+00
   SP4  C2er  1 4.300000e-01    2.160000e+00
   SP4  C3er  1 4.300000e-01    2.160000e+00
   SP4  C4er  1 4.300000e-01    2.320000e+00
   SP4  C5er  1 4.300000e-01    2.530000e+00
   SP4  C6er  1 4.300000e-01    2.770000e+00
   SP4  X1vr  1 4.300000e-01    2.530000e+00
   SP4  X2vr  1 4.300000e-01    2.770000e+00
   SP4  X3vr  1 4.300000e-01    2.770000e+00
   SP4  X4vr  1 4.300000e-01    2.920000e+00
   SP4  C1vr  1 4.300000e-01    1.930000e+00
   SP4  C2vr  1 4.300000e-01    2.160000e+00
   SP4  C3vr  1 4.300000e-01    2.160000e+00
   SP4  C4vr  1 4.300000e-01    2.320000e+00
   SP4  C5vr  1 4.300000e-01    2.530000e+00
   SP4  C6vr  1 4.300000e-01    2.770000e+00
   SP4  N1ar  1 4.300000e-01    2.530000e+00
   SP4  N2ar  1 4.300000e-01    2.770000e+00
   SP4  N3ar  1 4.300000e-01    2.920000e+00
   SP4  N4ar  1 4.300000e-01    3.160000e+00
   SP4  N5ar  1 4.300000e-01    3.160000e+00
   SP4  N6ar  1 4.300000e-01    3.380000e+00
   SP4  P1ar  1 4.300000e-01    3.590000e+00
   SP4  P2ar  1 4.300000e-01    3.770000e+00
   SP4  P3ar  1 4.300000e-01    3.770000e+00
   SP4  P4ar  1 4.300000e-01    3.970000e+00
   SP4  N1dr  1 4.300000e-01    2.530000e+00
   SP4  N2dr  1 4.300000e-01    2.770000e+00
   SP4  N3dr  1 4.300000e-01    2.920000e+00
   SP4  N4dr  1 4.300000e-01    3.160000e+00
   SP4  N5dr  1 4.300000e-01    3.160000e+00
   SP4  N6dr  1 4.300000e-01    3.380000e+00
   SP4  P1dr  1 4.300000e-01    3.590000e+00
   SP4  P2dr  1 4.300000e-01    3.770000e+00
   SP4  P3dr  1 4.300000e-01    3.770000e+00
   SP4  P4dr  1 4.300000e-01    3.970000e+00
   SP4   X1r  1 4.300000e-01    2.320000e+00
   SP4   X2r  1 4.300000e-01    2.530000e+00
   SP4   X3r  1 4.300000e-01    2.530000e+00
   SP4   X4r  1 4.300000e-01    2.770000e+00
   SP4   C1r  1 4.300000e-01    1.730000e+00
   SP4   C2r  1 4.300000e-01    1.930000e+00
   SP4   C3r  1 4.300000e-01    1.930000e+00
   SP4   C4r  1 4.300000e-01    2.160000e+00
   SP4   C5r  1 4.300000e-01    2.320000e+00
   SP4   C6r  1 4.300000e-01    2.530000e+00
   SP4   N1r  1 4.300000e-01    2.530000e+00
   SP4   N2r  1 4.300000e-01    2.770000e+00
   SP4   N3r  1 4.300000e-01    2.920000e+00
   SP4   N4r  1 4.300000e-01    3.160000e+00
   SP4   N5r  1 4.300000e-01    3.160000e+00
   SP4   N6r  1 4.300000e-01    3.380000e+00
   SP4   P1r  1 4.300000e-01    3.590000e+00
   SP4   P2r  1 4.300000e-01    3.770000e+00
   SP4   P3r  1 4.300000e-01    3.770000e+00
   SP4   SP4  1 4.100000e-01    3.550000e+00
   SP4   SP3  1 4.100000e-01    3.310000e+00
   SP4   SP2  1 4.100000e-01    3.310000e+00
   SP4   SP1  1 4.100000e-01    3.070000e+00
   SP4   SN6  1 4.100000e-01    2.840000e+00
   SP4   SN5  1 4.100000e-01    2.600000e+00
   SP4   SN4  1 4.100000e-01    2.600000e+00
   SP4   SN3  1 4.100000e-01    2.350000e+00
   SP4   SN2  1 4.100000e-01    2.200000e+00
   SP4   SN1  1 4.100000e-01    2.040000e+00
   SP4   SC6  1 4.100000e-01    2.040000e+00
   SP4   SC5  1 4.100000e-01    1.910000e+00
   SP4   SC4  1 4.100000e-01    1.750000e+00
   SP4   SC3  1 4.140000e-01    1.560000e+00
   SP4   SC2  1 4.140000e-01    1.560000e+00
   SP4   SC1  1 4.180000e-01    1.400000e+00
   SP4   SX4  1 4.100000e-01    2.200000e+00
   SP4   SX3  1 4.100000e-01    2.040000e+00
   SP4   SX2  1 4.100000e-01    2.040000e+00
   SP4   SX1  1 4.100000e-01    1.910000e+00
  SP6d   SP4  1 4.100000e-01    3.820000e+00
  SP5d   SP4  1 4.100000e-01    3.550000e+00
   SP4  SP4d  1 4.100000e-01    3.550000e+00
   SP4  SN1d  1 4.100000e-01    2.040000e+00
   SP4  SN2d  1 4.100000e-01    2.200000e+00
   SP4  SN3d  1 4.100000e-01    2.350000e+00
   SP4  SN4d  1 4.100000e-01    2.600000e+00
   SP4  SN5d  1 4.100000e-01    2.600000e+00
   SP4  SN6d  1 4.100000e-01    2.840000e+00
   SP4  SP1d  1 4.100000e-01    3.070000e+00
   SP4  SP2d  1 4.100000e-01    3.310000e+00
   SP4  SP3d  1 4.100000e-01    3.310000e+00
  SP6a   SP4  1 4.100000e-01    3.820000e+00
  SP5a   SP4  1 4.100000e-01    3.550000e+00
   SP4  SP4a  1 4.100000e-01    3.550000e+00
   SP4  SN1a  1 4.100000e-01    2.040000e+00
   SP4  SN2a  1 4.100000e-01    2.200000e+00
   SP4  SN3a  1 4.100000e-01    2.350000e+00
   SP4  SN4a  1 4.100000e-01    2.600000e+00
   SP4  SN5a  1 4.100000e-01    2.600000e+00
   SP4  SN6a  1 4.100000e-01    2.840000e+00
   SP4  SP1a  1 4.100000e-01    3.070000e+00
   SP4  SP2a  1 4.100000e-01    3.310000e+00
   SP4  SP3a  1 4.100000e-01    3.310000e+00
   SP4  SC6v  1 4.100000e-01    2.200000e+00
   SP4  SC5v  1 4.100000e-01    2.040000e+00
   SP4  SC4v  1 4.100000e-01    1.910000e+00
   SP4  SC3v  1 4.100000e-01    1.750000e+00
   SP4  SC2v  1 4.100000e-01    1.750000e+00
   SP4  SC1v  1 4.140000e-01    1.560000e+00
   SP4  SX4v  1 4.100000e-01    2.350000e+00
   SP4  SX3v  1 4.100000e-01    2.200000e+00
   SP4  SX2v  1 4.100000e-01    2.200000e+00
   SP4  SX1v  1 4.100000e-01    2.040000e+00
   SP4  SC6e  1 4.100000e-01    2.200000e+00
   SP4  SC5e  1 4.100000e-01    2.040000e+00
   SP4  SC4e  1 4.100000e-01    1.910000e+00
   SP4  SC3e  1 4.100000e-01    1.750000e+00
   SP4  SC2e  1 4.100000e-01    1.750000e+00
   SP4  SC1e  1 4.140000e-01    1.560000e+00
   SP4  SX4e  1 4.100000e-01    2.350000e+00
   SP4  SX3e  1 4.100000e-01    2.200000e+00
   SP4  SX2e  1 4.100000e-01    2.200000e+00
   SP4  SX1e  1 4.100000e-01    2.040000e+00
  SP6q   SP4  1 4.100000e-01    4.290000e+00
  SP5q   SP4  1 4.100000e-01    4.040000e+00
   SP4  SP4q  1 4.100000e-01    4.040000e+00
   SP4 SX1eq  1 4.100000e-01    2.350000e+00
   SP4 SX2eq  1 4.100000e-01    2.600000e+00
   SP4 SX3eq  1 4.100000e-01    2.600000e+00
   SP4 SX4eq  1 4.100000e-01    2.840000e+00
   SP4 SC1eq  1 4.100000e-01    1.910000e+00
   SP4 SC2eq  1 4.100000e-01    2.040000e+00
   SP4 SC3eq  1 4.100000e-01    2.040000e+00
   SP4 SC4eq  1 4.100000e-01    2.200000e+00
   SP4 SC5eq  1 4.100000e-01    2.350000e+00
   SP4 SC6eq  1 4.100000e-01    2.600000e+00
   SP4 SX1vq  1 4.100000e-01    2.350000e+00
   SP4 SX2vq  1 4.100000e-01    2.600000e+00
   SP4 SX3vq  1 4.100000e-01    2.600000e+00
   SP4 SX4vq  1 4.100000e-01    2.840000e+00
   SP4 SC1vq  1 4.100000e-01    1.910000e+00
   SP4 SC2vq  1 4.100000e-01    2.040000e+00
   SP4 SC3vq  1 4.100000e-01    2.040000e+00
   SP4 SC4vq  1 4.100000e-01    2.200000e+00
   SP4 SC5vq  1 4.100000e-01    2.350000e+00
   SP4 SC6vq  1 4.100000e-01    2.600000e+00
   SP4 SN1aq  1 4.100000e-01    2.350000e+00
   SP4 SN2aq  1 4.100000e-01    2.600000e+00
   SP4 SN3aq  1 4.100000e-01    2.840000e+00
   SP4 SN4aq  1 4.100000e-01    3.070000e+00
   SP4 SN5aq  1 4.100000e-01    3.070000e+00
   SP4 SN6aq  1 4.100000e-01    3.310000e+00
   SP4 SP1aq  1 4.100000e-01    3.550000e+00
   SP4 SP2aq  1 4.100000e-01    3.820000e+00
   SP4 SP3aq  1 4.100000e-01    3.820000e+00
   SP4 SP4aq  1 4.100000e-01    4.040000e+00
 SP5aq   SP4  1 4.100000e-01    4.040000e+00
 SP6aq   SP4  1 4.100000e-01    4.290000e+00
   SP4 SN1dq  1 4.100000e-01    2.350000e+00
   SP4 SN2dq  1 4.100000e-01    2.600000e+00
   SP4 SN3dq  1 4.100000e-01    2.840000e+00
   SP4 SN4dq  1 4.100000e-01    3.070000e+00
   SP4 SN5dq  1 4.100000e-01    3.070000e+00
   SP4 SN6dq  1 4.100000e-01    3.310000e+00
   SP4 SP1dq  1 4.100000e-01    3.550000e+00
   SP4 SP2dq  1 4.100000e-01    3.820000e+00
   SP4 SP3dq  1 4.100000e-01    3.820000e+00
   SP4 SP4dq  1 4.100000e-01    4.040000e+00
 SP5dq   SP4  1 4.100000e-01    4.040000e+00
 SP6dq   SP4  1 4.100000e-01    4.290000e+00
   SP4  SX1q  1 4.100000e-01    2.200000e+00
   SP4  SX2q  1 4.100000e-01    2.350000e+00
   SP4  SX3q  1 4.100000e-01    2.350000e+00
   SP4  SX4q  1 4.100000e-01    2.600000e+00
   SP4  SC1q  1 4.100000e-01    1.750000e+00
   SP4  SC2q  1 4.100000e-01    1.910000e+00
   SP4  SC3q  1 4.100000e-01    1.910000e+00
   SP4  SC4q  1 4.100000e-01    2.040000e+00
   SP4  SC5q  1 4.100000e-01    2.200000e+00
   SP4  SC6q  1 4.100000e-01    2.350000e+00
   SP4  SN1q  1 4.100000e-01    2.350000e+00
   SP4  SN2q  1 4.100000e-01    2.600000e+00
   SP4  SN3q  1 4.100000e-01    2.840000e+00
   SP4  SN4q  1 4.100000e-01    3.070000e+00
   SP4  SN5q  1 4.100000e-01    3.070000e+00
   SP4  SN6q  1 4.100000e-01    3.310000e+00
   SP4  SP1q  1 4.100000e-01    3.550000e+00
   SP4  SP2q  1 4.100000e-01    3.820000e+00
   SP4  SP3q  1 4.100000e-01    3.820000e+00
  SP6h   SP4  1 4.100000e-01    3.820000e+00
  SP5h   SP4  1 4.100000e-01    3.550000e+00
   SP4  SP4h  1 4.100000e-01    3.550000e+00
   SP4 SX1eh  1 4.100000e-01    2.040000e+00
   SP4 SX2eh  1 4.100000e-01    2.200000e+00
   SP4 SX3eh  1 4.100000e-01    2.200000e+00
   SP4 SX4eh  1 4.100000e-01    2.350000e+00
   SP4 SC1eh  1 4.140000e-01    1.560000e+00
   SP4 SC2eh  1 4.100000e-01    1.750000e+00
   SP4 SC3eh  1 4.100000e-01    1.750000e+00
   SP4 SC4eh  1 4.100000e-01    1.910000e+00
   SP4 SC5eh  1 4.100000e-01    2.040000e+00
   SP4 SC6eh  1 4.100000e-01    2.200000e+00
   SP4 SX1vh  1 4.100000e-01    2.040000e+00
   SP4 SX2vh  1 4.100000e-01    2.200000e+00
   SP4 SX3vh  1 4.100000e-01    2.200000e+00
   SP4 SX4vh  1 4.100000e-01    2.350000e+00
   SP4 SC1vh  1 4.140000e-01    1.560000e+00
   SP4 SC2vh  1 4.100000e-01    1.750000e+00
   SP4 SC3vh  1 4.100000e-01    1.750000e+00
   SP4 SC4vh  1 4.100000e-01    1.910000e+00
   SP4 SC5vh  1 4.100000e-01    2.040000e+00
   SP4 SC6vh  1 4.100000e-01    2.200000e+00
   SP4 SN1ah  1 4.100000e-01    2.040000e+00
   SP4 SN2ah  1 4.100000e-01    2.200000e+00
   SP4 SN3ah  1 4.100000e-01    2.350000e+00
   SP4 SN4ah  1 4.100000e-01    2.600000e+00
   SP4 SN5ah  1 4.100000e-01    2.600000e+00
   SP4 SN6ah  1 4.100000e-01    2.840000e+00
   SP4 SP1ah  1 4.100000e-01    3.070000e+00
   SP4 SP2ah  1 4.100000e-01    3.310000e+00
   SP4 SP3ah  1 4.100000e-01    3.310000e+00
   SP4 SP4ah  1 4.100000e-01    3.550000e+00
 SP5ah   SP4  1 4.100000e-01    3.550000e+00
 SP6ah   SP4  1 4.100000e-01    3.820000e+00
   SP4 SN1dh  1 4.100000e-01    2.040000e+00
   SP4 SN2dh  1 4.100000e-01    2.200000e+00
   SP4 SN3dh  1 4.100000e-01    2.350000e+00
   SP4 SN4dh  1 4.100000e-01    2.600000e+00
   SP4 SN5dh  1 4.100000e-01    2.600000e+00
   SP4 SN6dh  1 4.100000e-01    2.840000e+00
   SP4 SP1dh  1 4.100000e-01    3.070000e+00
   SP4 SP2dh  1 4.100000e-01    3.310000e+00
   SP4 SP3dh  1 4.100000e-01    3.310000e+00
   SP4 SP4dh  1 4.100000e-01    3.550000e+00
 SP5dh   SP4  1 4.100000e-01    3.550000e+00
 SP6dh   SP4  1 4.100000e-01    3.820000e+00
   SP4  SX1h  1 4.100000e-01    1.910000e+00
   SP4  SX2h  1 4.100000e-01    2.040000e+00
   SP4  SX3h  1 4.100000e-01    2.040000e+00
   SP4  SX4h  1 4.100000e-01    2.200000e+00
   SP4  SC1h  1 4.180000e-01    1.400000e+00
   SP4  SC2h  1 4.140000e-01    1.560000e+00
   SP4  SC3h  1 4.140000e-01    1.560000e+00
   SP4  SC4h  1 4.100000e-01    1.750000e+00
   SP4  SC5h  1 4.100000e-01    1.910000e+00
   SP4  SC6h  1 4.100000e-01    2.040000e+00
   SP4  SN1h  1 4.100000e-01    2.040000e+00
   SP4  SN2h  1 4.100000e-01    2.200000e+00
   SP4  SN3h  1 4.100000e-01    2.350000e+00
   SP4  SN4h  1 4.100000e-01    2.600000e+00
   SP4  SN5h  1 4.100000e-01    2.600000e+00
   SP4  SN6h  1 4.100000e-01    2.840000e+00
   SP4  SP1h  1 4.100000e-01    3.070000e+00
   SP4  SP2h  1 4.100000e-01    3.310000e+00
   SP4  SP3h  1 4.100000e-01    3.310000e+00
  SP6r   SP4  1 4.100000e-01    3.820000e+00
  SP5r   SP4  1 4.100000e-01    3.550000e+00
   SP4  SP4r  1 4.100000e-01    3.550000e+00
   SP4 SX1er  1 4.100000e-01    2.040000e+00
   SP4 SX2er  1 4.100000e-01    2.200000e+00
   SP4 SX3er  1 4.100000e-01    2.200000e+00
   SP4 SX4er  1 4.100000e-01    2.350000e+00
   SP4 SC1er  1 4.140000e-01    1.560000e+00
   SP4 SC2er  1 4.100000e-01    1.750000e+00
   SP4 SC3er  1 4.100000e-01    1.750000e+00
   SP4 SC4er  1 4.100000e-01    1.910000e+00
   SP4 SC5er  1 4.100000e-01    2.040000e+00
   SP4 SC6er  1 4.100000e-01    2.200000e+00
   SP4 SX1vr  1 4.100000e-01    2.040000e+00
   SP4 SX2vr  1 4.100000e-01    2.200000e+00
   SP4 SX3vr  1 4.100000e-01    2.200000e+00
   SP4 SX4vr  1 4.100000e-01    2.350000e+00
   SP4 SC1vr  1 4.140000e-01    1.560000e+00
   SP4 SC2vr  1 4.100000e-01    1.750000e+00
   SP4 SC3vr  1 4.100000e-01    1.750000e+00
   SP4 SC4vr  1 4.100000e-01    1.910000e+00
   SP4 SC5vr  1 4.100000e-01    2.040000e+00
   SP4 SC6vr  1 4.100000e-01    2.200000e+00
   SP4 SN1ar  1 4.100000e-01    2.040000e+00
   SP4 SN2ar  1 4.100000e-01    2.200000e+00
   SP4 SN3ar  1 4.100000e-01    2.350000e+00
   SP4 SN4ar  1 4.100000e-01    2.600000e+00
   SP4 SN5ar  1 4.100000e-01    2.600000e+00
   SP4 SN6ar  1 4.100000e-01    2.840000e+00
   SP4 SP1ar  1 4.100000e-01    3.070000e+00
   SP4 SP2ar  1 4.100000e-01    3.310000e+00
   SP4 SP3ar  1 4.100000e-01    3.310000e+00
   SP4 SP4ar  1 4.100000e-01    3.550000e+00
 SP5ar   SP4  1 4.100000e-01    3.550000e+00
 SP6ar   SP4  1 4.100000e-01    3.820000e+00
   SP4 SN1dr  1 4.100000e-01    2.040000e+00
   SP4 SN2dr  1 4.100000e-01    2.200000e+00
   SP4 SN3dr  1 4.100000e-01    2.350000e+00
   SP4 SN4dr  1 4.100000e-01    2.600000e+00
   SP4 SN5dr  1 4.100000e-01    2.600000e+00
   SP4 SN6dr  1 4.100000e-01    2.840000e+00
   SP4 SP1dr  1 4.100000e-01    3.070000e+00
   SP4 SP2dr  1 4.100000e-01    3.310000e+00
   SP4 SP3dr  1 4.100000e-01    3.310000e+00
   SP4 SP4dr  1 4.100000e-01    3.550000e+00
 SP5dr   SP4  1 4.100000e-01    3.550000e+00
 SP6dr   SP4  1 4.100000e-01    3.820000e+00
   SP4  SX1r  1 4.100000e-01    1.910000e+00
   SP4  SX2r  1 4.100000e-01    2.040000e+00
   SP4  SX3r  1 4.100000e-01    2.040000e+00
   SP4  SX4r  1 4.100000e-01    2.200000e+00
   SP4  SC1r  1 4.180000e-01    1.400000e+00
   SP4  SC2r  1 4.140000e-01    1.560000e+00
   SP4  SC3r  1 4.140000e-01    1.560000e+00
   SP4  SC4r  1 4.100000e-01    1.750000e+00
   SP4  SC5r  1 4.100000e-01    1.910000e+00
   SP4  SC6r  1 4.100000e-01    2.040000e+00
   SP4  SN1r  1 4.100000e-01    2.040000e+00
   SP4  SN2r  1 4.100000e-01    2.200000e+00
   SP4  SN3r  1 4.100000e-01    2.350000e+00
   SP4  SN4r  1 4.100000e-01    2.600000e+00
   SP4  SN5r  1 4.100000e-01    2.600000e+00
   SP4  SN6r  1 4.100000e-01    2.840000e+00
   SP4  SP1r  1 4.100000e-01    3.070000e+00
   SP4  SP2r  1 4.100000e-01    3.310000e+00
   SP4  SP3r  1 4.100000e-01    3.310000e+00
   SP4   TP4  1 3.650000e-01    3.100000e+00
   SP4   TP3  1 3.650000e-01    2.830000e+00
   SP4   TP2  1 3.650000e-01    2.830000e+00
   SP4   TP1  1 3.650000e-01    2.570000e+00
   SP4   TN6  1 3.650000e-01    2.340000e+00
   SP4   TN5  1 3.650000e-01    2.110000e+00
   SP4   TN4  1 3.650000e-01    2.110000e+00
   SP4   TN3  1 3.650000e-01    1.910000e+00
   SP4   TN2  1 3.650000e-01    1.750000e+00
   SP4   TN1  1 3.660000e-01    1.600000e+00
   SP4   TC6  1 3.660000e-01    1.600000e+00
   SP4   TC5  1 3.780000e-01    1.450000e+00
   SP4   TC4  1 3.940000e-01    1.290000e+00
   SP4   TC3  1 4.040000e-01    1.130000e+00
   SP4   TC2  1 4.040000e-01    1.130000e+00
   SP4   TC1  1 4.090000e-01    1.080000e+00
   SP4   TX4  1 3.650000e-01    1.750000e+00
   SP4   TX3  1 3.660000e-01    1.600000e+00
   SP4   TX2  1 3.660000e-01    1.600000e+00
   SP4   TX1  1 3.780000e-01    1.450000e+00
   SP4  TP4d  1 3.650000e-01    3.100000e+00
   SP4  TN1d  1 3.660000e-01    1.600000e+00
   SP4  TN2d  1 3.650000e-01    1.750000e+00
   SP4  TN3d  1 3.650000e-01    1.910000e+00
   SP4  TN4d  1 3.650000e-01    2.110000e+00
   SP4  TN5d  1 3.650000e-01    2.110000e+00
   SP4  TN6d  1 3.650000e-01    2.340000e+00
   SP4  TP1d  1 3.650000e-01    2.570000e+00
   SP4  TP2d  1 3.650000e-01    2.830000e+00
   SP4  TP3d  1 3.650000e-01    2.830000e+00
   SP4  TP4a  1 3.650000e-01    3.100000e+00
   SP4  TN1a  1 3.660000e-01    1.600000e+00
   SP4  TN2a  1 3.650000e-01    1.750000e+00
   SP4  TN3a  1 3.650000e-01    1.910000e+00
   SP4  TN4a  1 3.650000e-01    2.110000e+00
   SP4  TN5a  1 3.650000e-01    2.110000e+00
   SP4  TN6a  1 3.650000e-01    2.340000e+00
   SP4  TP1a  1 3.650000e-01    2.570000e+00
   SP4  TP2a  1 3.650000e-01    2.830000e+00
   SP4  TP3a  1 3.650000e-01    2.830000e+00
   SP4  TC6v  1 3.650000e-01    1.750000e+00
   SP4  TC5v  1 3.660000e-01    1.600000e+00
   SP4  TC4v  1 3.780000e-01    1.450000e+00
   SP4  TC3v  1 3.940000e-01    1.290000e+00
   SP4  TC2v  1 3.940000e-01    1.290000e+00
   SP4  TC1v  1 4.040000e-01    1.130000e+00
   SP4  TX4v  1 3.650000e-01    1.910000e+00
   SP4  TX3v  1 3.650000e-01    1.750000e+00
   SP4  TX2v  1 3.650000e-01    1.750000e+00
   SP4  TX1v  1 3.660000e-01    1.600000e+00
   SP4  TC6e  1 3.650000e-01    1.750000e+00
   SP4  TC5e  1 3.660000e-01    1.600000e+00
   SP4  TC4e  1 3.780000e-01    1.450000e+00
   SP4  TC3e  1 3.940000e-01    1.290000e+00
   SP4  TC2e  1 3.940000e-01    1.290000e+00
   SP4  TC1e  1 4.040000e-01    1.130000e+00
   SP4  TX4e  1 3.650000e-01    1.910000e+00
   SP4  TX3e  1 3.650000e-01    1.750000e+00
   SP4  TX2e  1 3.650000e-01    1.750000e+00
   SP4  TX1e  1 3.660000e-01    1.600000e+00
   SP4  TP4q  1 3.650000e-01    3.640000e+00
   SP4 TX1eq  1 3.650000e-01    1.910000e+00
   SP4 TX2eq  1 3.650000e-01    2.110000e+00
   SP4 TX3eq  1 3.650000e-01    2.110000e+00
   SP4 TX4eq  1 3.650000e-01    2.340000e+00
   SP4 TC1eq  1 3.780000e-01    1.450000e+00
   SP4 TC2eq  1 3.660000e-01    1.600000e+00
   SP4 TC3eq  1 3.660000e-01    1.600000e+00
   SP4 TC4eq  1 3.650000e-01    1.750000e+00
   SP4 TC5eq  1 3.650000e-01    1.910000e+00
   SP4 TC6eq  1 3.650000e-01    2.110000e+00
   SP4 TX1vq  1 3.650000e-01    1.910000e+00
   SP4 TX2vq  1 3.650000e-01    2.110000e+00
   SP4 TX3vq  1 3.650000e-01    2.110000e+00
   SP4 TX4vq  1 3.650000e-01    2.340000e+00
   SP4 TC1vq  1 3.780000e-01    1.450000e+00
   SP4 TC2vq  1 3.660000e-01    1.600000e+00
   SP4 TC3vq  1 3.660000e-01    1.600000e+00
   SP4 TC4vq  1 3.650000e-01    1.750000e+00
   SP4 TC5vq  1 3.650000e-01    1.910000e+00
   SP4 TC6vq  1 3.650000e-01    2.110000e+00
   SP4 TN1aq  1 3.650000e-01    1.910000e+00
   SP4 TN2aq  1 3.650000e-01    2.110000e+00
   SP4 TN3aq  1 3.650000e-01    2.340000e+00
   SP4 TN4aq  1 3.650000e-01    2.570000e+00
   SP4 TN5aq  1 3.650000e-01    2.570000e+00
   SP4 TN6aq  1 3.650000e-01    2.830000e+00
   SP4 TP1aq  1 3.650000e-01    3.100000e+00
   SP4 TP2aq  1 3.650000e-01    3.370000e+00
   SP4 TP3aq  1 3.650000e-01    3.370000e+00
   SP4 TP4aq  1 3.650000e-01    3.640000e+00
   SP4 TN1dq  1 3.650000e-01    1.910000e+00
   SP4 TN2dq  1 3.650000e-01    2.110000e+00
   SP4 TN3dq  1 3.650000e-01    2.340000e+00
   SP4 TN4dq  1 3.650000e-01    2.570000e+00
   SP4 TN5dq  1 3.650000e-01    2.570000e+00
   SP4 TN6dq  1 3.650000e-01    2.830000e+00
   SP4 TP1dq  1 3.650000e-01    3.100000e+00
   SP4 TP2dq  1 3.650000e-01    3.370000e+00
   SP4 TP3dq  1 3.650000e-01    3.370000e+00
   SP4 TP4dq  1 3.650000e-01    3.640000e+00
   SP4  TX1q  1 3.650000e-01    1.750000e+00
   SP4  TX2q  1 3.650000e-01    1.910000e+00
   SP4  TX3q  1 3.650000e-01    1.910000e+00
   SP4  TX4q  1 3.650000e-01    2.110000e+00
   SP4  TC1q  1 3.940000e-01    1.290000e+00
   SP4  TC2q  1 3.780000e-01    1.450000e+00
   SP4  TC3q  1 3.780000e-01    1.450000e+00
   SP4  TC4q  1 3.660000e-01    1.600000e+00
   SP4  TC5q  1 3.650000e-01    1.750000e+00
   SP4  TC6q  1 3.650000e-01    1.910000e+00
   SP4  TN1q  1 3.650000e-01    1.910000e+00
   SP4  TN2q  1 3.650000e-01    2.110000e+00
   SP4  TN3q  1 3.650000e-01    2.340000e+00
   SP4  TN4q  1 3.650000e-01    2.570000e+00
   SP4  TN5q  1 3.650000e-01    2.570000e+00
   SP4  TN6q  1 3.650000e-01    2.830000e+00
   SP4  TP1q  1 3.650000e-01    3.100000e+00
   SP4  TP2q  1 3.650000e-01    3.370000e+00
   SP4  TP3q  1 3.650000e-01    3.370000e+00
   SP4  TP4h  1 3.650000e-01    3.100000e+00
   SP4 TX1eh  1 3.660000e-01    1.600000e+00
   SP4 TX2eh  1 3.650000e-01    1.750000e+00
   SP4 TX3eh  1 3.650000e-01    1.750000e+00
   SP4 TX4eh  1 3.650000e-01    1.910000e+00
   SP4 TC1eh  1 4.040000e-01    1.130000e+00
   SP4 TC2eh  1 3.940000e-01    1.290000e+00
   SP4 TC3eh  1 3.940000e-01    1.290000e+00
   SP4 TC4eh  1 3.780000e-01    1.450000e+00
   SP4 TC5eh  1 3.660000e-01    1.600000e+00
   SP4 TC6eh  1 3.650000e-01    1.750000e+00
   SP4 TX1vh  1 3.660000e-01    1.600000e+00
   SP4 TX2vh  1 3.650000e-01    1.750000e+00
   SP4 TX3vh  1 3.650000e-01    1.750000e+00
   SP4 TX4vh  1 3.650000e-01    1.910000e+00
   SP4 TC1vh  1 4.040000e-01    1.130000e+00
   SP4 TC2vh  1 3.940000e-01    1.290000e+00
   SP4 TC3vh  1 3.940000e-01    1.290000e+00
   SP4 TC4vh  1 3.780000e-01    1.450000e+00
   SP4 TC5vh  1 3.660000e-01    1.600000e+00
   SP4 TC6vh  1 3.650000e-01    1.750000e+00
   SP4 TN1ah  1 3.660000e-01    1.600000e+00
   SP4 TN2ah  1 3.650000e-01    1.750000e+00
   SP4 TN3ah  1 3.650000e-01    1.910000e+00
   SP4 TN4ah  1 3.650000e-01    2.110000e+00
   SP4 TN5ah  1 3.650000e-01    2.110000e+00
   SP4 TN6ah  1 3.650000e-01    2.340000e+00
   SP4 TP1ah  1 3.650000e-01    2.570000e+00
   SP4 TP2ah  1 3.650000e-01    2.830000e+00
   SP4 TP3ah  1 3.650000e-01    2.830000e+00
   SP4 TP4ah  1 3.650000e-01    3.100000e+00
   SP4 TN1dh  1 3.660000e-01    1.600000e+00
   SP4 TN2dh  1 3.650000e-01    1.750000e+00
   SP4 TN3dh  1 3.650000e-01    1.910000e+00
   SP4 TN4dh  1 3.650000e-01    2.110000e+00
   SP4 TN5dh  1 3.650000e-01    2.110000e+00
   SP4 TN6dh  1 3.650000e-01    2.340000e+00
   SP4 TP1dh  1 3.650000e-01    2.570000e+00
   SP4 TP2dh  1 3.650000e-01    2.830000e+00
   SP4 TP3dh  1 3.650000e-01    2.830000e+00
   SP4 TP4dh  1 3.650000e-01    3.100000e+00
   SP4  TX1h  1 3.780000e-01    1.450000e+00
   SP4  TX2h  1 3.660000e-01    1.600000e+00
   SP4  TX3h  1 3.660000e-01    1.600000e+00
   SP4  TX4h  1 3.650000e-01    1.750000e+00
   SP4  TC1h  1 4.090000e-01    1.080000e+00
   SP4  TC2h  1 4.040000e-01    1.130000e+00
   SP4  TC3h  1 4.040000e-01    1.130000e+00
   SP4  TC4h  1 3.940000e-01    1.290000e+00
   SP4  TC5h  1 3.780000e-01    1.450000e+00
   SP4  TC6h  1 3.660000e-01    1.600000e+00
   SP4  TN1h  1 3.660000e-01    1.600000e+00
   SP4  TN2h  1 3.650000e-01    1.750000e+00
   SP4  TN3h  1 3.650000e-01    1.910000e+00
   SP4  TN4h  1 3.650000e-01    2.110000e+00
   SP4  TN5h  1 3.650000e-01    2.110000e+00
   SP4  TN6h  1 3.650000e-01    2.340000e+00
   SP4  TP1h  1 3.650000e-01    2.570000e+00
   SP4  TP2h  1 3.650000e-01    2.830000e+00
   SP4  TP3h  1 3.650000e-01    2.830000e+00
   SP4  TP4r  1 3.650000e-01    3.100000e+00
   SP4 TX1er  1 3.660000e-01    1.600000e+00
   SP4 TX2er  1 3.650000e-01    1.750000e+00
   SP4 TX3er  1 3.650000e-01    1.750000e+00
   SP4 TX4er  1 3.650000e-01    1.910000e+00
   SP4 TC1er  1 4.040000e-01    1.130000e+00
   SP4 TC2er  1 3.940000e-01    1.290000e+00
   SP4 TC3er  1 3.940000e-01    1.290000e+00
   SP4 TC4er  1 3.780000e-01    1.450000e+00
   SP4 TC5er  1 3.660000e-01    1.600000e+00
   SP4 TC6er  1 3.650000e-01    1.750000e+00
   SP4 TX1vr  1 3.660000e-01    1.600000e+00
   SP4 TX2vr  1 3.650000e-01    1.750000e+00
   SP4 TX3vr  1 3.650000e-01    1.750000e+00
   SP4 TX4vr  1 3.650000e-01    1.910000e+00
   SP4 TC1vr  1 4.040000e-01    1.130000e+00
   SP4 TC2vr  1 3.940000e-01    1.290000e+00
   SP4 TC3vr  1 3.940000e-01    1.290000e+00
   SP4 TC4vr  1 3.780000e-01    1.450000e+00
   SP4 TC5vr  1 3.660000e-01    1.600000e+00
   SP4 TC6vr  1 3.650000e-01    1.750000e+00
   SP4 TN1ar  1 3.660000e-01    1.600000e+00
   SP4 TN2ar  1 3.650000e-01    1.750000e+00
   SP4 TN3ar  1 3.650000e-01    1.910000e+00
   SP4 TN4ar  1 3.650000e-01    2.110000e+00
   SP4 TN5ar  1 3.650000e-01    2.110000e+00
   SP4 TN6ar  1 3.650000e-01    2.340000e+00
   SP4 TP1ar  1 3.650000e-01    2.570000e+00
   SP4 TP2ar  1 3.650000e-01    2.830000e+00
   SP4 TP3ar  1 3.650000e-01    2.830000e+00
   SP4 TP4ar  1 3.650000e-01    3.100000e+00
   SP4 TN1dr  1 3.660000e-01    1.600000e+00
   SP4 TN2dr  1 3.650000e-01    1.750000e+00
   SP4 TN3dr  1 3.650000e-01    1.910000e+00
   SP4 TN4dr  1 3.650000e-01    2.110000e+00
   SP4 TN5dr  1 3.650000e-01    2.110000e+00
   SP4 TN6dr  1 3.650000e-01    2.340000e+00
   SP4 TP1dr  1 3.650000e-01    2.570000e+00
   SP4 TP2dr  1 3.650000e-01    2.830000e+00
   SP4 TP3dr  1 3.650000e-01    2.830000e+00
   SP4 TP4dr  1 3.650000e-01    3.100000e+00
   SP4  TX1r  1 3.780000e-01    1.450000e+00
   SP4  TX2r  1 3.660000e-01    1.600000e+00
   SP4  TX3r  1 3.660000e-01    1.600000e+00
   SP4  TX4r  1 3.650000e-01    1.750000e+00
   SP4  TC1r  1 4.090000e-01    1.080000e+00
   SP4  TC2r  1 4.040000e-01    1.130000e+00
   SP4  TC3r  1 4.040000e-01    1.130000e+00
   SP4  TC4r  1 3.940000e-01    1.290000e+00
   SP4  TC5r  1 3.780000e-01    1.450000e+00
   SP4  TC6r  1 3.660000e-01    1.600000e+00
   SP4  TN1r  1 3.660000e-01    1.600000e+00
   SP4  TN2r  1 3.650000e-01    1.750000e+00
   SP4  TN3r  1 3.650000e-01    1.910000e+00
   SP4  TN4r  1 3.650000e-01    2.110000e+00
   SP4  TN5r  1 3.650000e-01    2.110000e+00
   SP4  TN6r  1 3.650000e-01    2.340000e+00
   SP4  TP1r  1 3.650000e-01    2.570000e+00
   SP4  TP2r  1 3.650000e-01    2.830000e+00
   SP4  TP3r  1 3.650000e-01    2.830000e+00
  TP6d   SP4  1 3.650000e-01    3.370000e+00
  TP5d   SP4  1 3.650000e-01    3.100000e+00
  TP6a   SP4  1 3.650000e-01    3.370000e+00
  TP5a   SP4  1 3.650000e-01    3.100000e+00
  TP6q   SP4  1 3.650000e-01    3.930000e+00
  TP5q   SP4  1 3.650000e-01    3.640000e+00
 TP5aq   SP4  1 3.650000e-01    3.640000e+00
 TP6aq   SP4  1 3.650000e-01    3.930000e+00
 TP5dq   SP4  1 3.650000e-01    3.640000e+00
 TP6dq   SP4  1 3.650000e-01    3.930000e+00
  TP6h   SP4  1 3.650000e-01    3.370000e+00
  TP5h   SP4  1 3.650000e-01    3.100000e+00
 TP5ah   SP4  1 3.650000e-01    3.100000e+00
 TP6ah   SP4  1 3.650000e-01    3.370000e+00
 TP5dh   SP4  1 3.650000e-01    3.100000e+00
 TP6dh   SP4  1 3.650000e-01    3.370000e+00
  TP6r   SP4  1 3.650000e-01    3.370000e+00
  TP5r   SP4  1 3.650000e-01    3.100000e+00
 TP5ar   SP4  1 3.650000e-01    3.100000e+00
 TP6ar   SP4  1 3.650000e-01    3.370000e+00
 TP5dr   SP4  1 3.650000e-01    3.100000e+00
 TP6dr   SP4  1 3.650000e-01    3.370000e+00
   P6d   TP4  1 3.950000e-01    3.670000e+00
   P5d   TP4  1 3.950000e-01    3.430000e+00
   P6a   TP4  1 3.950000e-01    3.670000e+00
   P5a   TP4  1 3.950000e-01    3.430000e+00
   P6q   TP4  1 3.950000e-01    4.230000e+00
   P5q   TP4  1 3.950000e-01    3.910000e+00
  P5aq   TP4  1 3.950000e-01    3.910000e+00
  P6aq   TP4  1 3.950000e-01    4.230000e+00
  P5dq   TP4  1 3.950000e-01    3.910000e+00
  P6dq   TP4  1 3.950000e-01    4.230000e+00
   P6h   TP4  1 3.950000e-01    3.670000e+00
   P5h   TP4  1 3.950000e-01    3.430000e+00
  P5ah   TP4  1 3.950000e-01    3.430000e+00
  P6ah   TP4  1 3.950000e-01    3.670000e+00
  P5dh   TP4  1 3.950000e-01    3.430000e+00
  P6dh   TP4  1 3.950000e-01    3.670000e+00
   P6r   TP4  1 3.950000e-01    3.670000e+00
   P5r   TP4  1 3.950000e-01    3.430000e+00
  P5ar   TP4  1 3.950000e-01    3.430000e+00
  P6ar   TP4  1 3.950000e-01    3.670000e+00
  P5dr   TP4  1 3.950000e-01    3.430000e+00
  P6dr   TP4  1 3.950000e-01    3.670000e+00
   TP4    P3  1 3.950000e-01    3.190000e+00
   TP4    P2  1 3.950000e-01    3.190000e+00
   TP4    P1  1 3.950000e-01    2.940000e+00
   TP4    N6  1 3.950000e-01    2.700000e+00
   TP4    N5  1 3.950000e-01    2.500000e+00
   TP4    N4  1 3.950000e-01    2.500000e+00
   TP4    N3  1 3.950000e-01    2.310000e+00
   TP4    N2  1 3.950000e-01    2.110000e+00
   TP4    N1  1 3.950000e-01    1.850000e+00
   TP4    C6  1 3.950000e-01    1.850000e+00
   TP4    C5  1 3.950000e-01    1.670000e+00
   TP4    C4  1 3.980000e-01    1.450000e+00
   TP4    C3  1 3.990000e-01    1.180000e+00
   TP4    C2  1 3.990000e-01    1.180000e+00
   TP4    C1  1 4.010000e-01    9.830000e-01
   TP4    X4  1 3.950000e-01    2.110000e+00
   TP4    X3  1 3.950000e-01    1.850000e+00
   TP4    X2  1 3.950000e-01    1.850000e+00
   TP4    X1  1 3.950000e-01    1.670000e+00
   TP4   P4d  1 3.950000e-01    3.430000e+00
   TP4   N1d  1 3.950000e-01    1.850000e+00
   TP4   N2d  1 3.950000e-01    2.110000e+00
   TP4   N3d  1 3.950000e-01    2.310000e+00
   TP4   N4d  1 3.950000e-01    2.500000e+00
   TP4   N5d  1 3.950000e-01    2.500000e+00
   TP4   N6d  1 3.950000e-01    2.700000e+00
   TP4   P1d  1 3.950000e-01    2.940000e+00
   TP4   P2d  1 3.950000e-01    3.190000e+00
   TP4   P3d  1 3.950000e-01    3.190000e+00
   TP4   P4a  1 3.950000e-01    3.430000e+00
   TP4   N1a  1 3.950000e-01    1.850000e+00
   TP4   N2a  1 3.950000e-01    2.110000e+00
   TP4   N3a  1 3.950000e-01    2.310000e+00
   TP4   N4a  1 3.950000e-01    2.500000e+00
   TP4   N5a  1 3.950000e-01    2.500000e+00
   TP4   N6a  1 3.950000e-01    2.700000e+00
   TP4   P1a  1 3.950000e-01    2.940000e+00
   TP4   P2a  1 3.950000e-01    3.190000e+00
   TP4   P3a  1 3.950000e-01    3.190000e+00
   TP4   C6v  1 3.950000e-01    2.110000e+00
   TP4   C5v  1 3.950000e-01    1.850000e+00
   TP4   C4v  1 3.950000e-01    1.670000e+00
   TP4   C3v  1 3.980000e-01    1.450000e+00
   TP4   C2v  1 3.980000e-01    1.450000e+00
   TP4   C1v  1 3.990000e-01    1.180000e+00
   TP4   X4v  1 3.950000e-01    2.310000e+00
   TP4   X3v  1 3.950000e-01    2.110000e+00
   TP4   X2v  1 3.950000e-01    2.110000e+00
   TP4   X1v  1 3.950000e-01    1.850000e+00
   TP4   C6e  1 3.950000e-01    2.110000e+00
   TP4   C5e  1 3.950000e-01    1.850000e+00
   TP4   C4e  1 3.950000e-01    1.670000e+00
   TP4   C3e  1 3.980000e-01    1.450000e+00
   TP4   C2e  1 3.980000e-01    1.450000e+00
   TP4   C1e  1 3.990000e-01    1.180000e+00
   TP4   X4e  1 3.950000e-01    2.310000e+00
   TP4   X3e  1 3.950000e-01    2.110000e+00
   TP4   X2e  1 3.950000e-01    2.110000e+00
   TP4   X1e  1 3.950000e-01    1.850000e+00
   TP4   P4q  1 3.950000e-01    3.910000e+00
   TP4  X1eq  1 3.950000e-01    2.310000e+00
   TP4  X2eq  1 3.950000e-01    2.500000e+00
   TP4  X3eq  1 3.950000e-01    2.500000e+00
   TP4  X4eq  1 3.950000e-01    2.700000e+00
   TP4  C1eq  1 3.950000e-01    1.670000e+00
   TP4  C2eq  1 3.950000e-01    1.850000e+00
   TP4  C3eq  1 3.950000e-01    1.850000e+00
   TP4  C4eq  1 3.950000e-01    2.110000e+00
   TP4  C5eq  1 3.950000e-01    2.310000e+00
   TP4  C6eq  1 3.950000e-01    2.500000e+00
   TP4  X1vq  1 3.950000e-01    2.310000e+00
   TP4  X2vq  1 3.950000e-01    2.500000e+00
   TP4  X3vq  1 3.950000e-01    2.500000e+00
   TP4  X4vq  1 3.950000e-01    2.700000e+00
   TP4  C1vq  1 3.950000e-01    1.670000e+00
   TP4  C2vq  1 3.950000e-01    1.850000e+00
   TP4  C3vq  1 3.950000e-01    1.850000e+00
   TP4  C4vq  1 3.950000e-01    2.110000e+00
   TP4  C5vq  1 3.950000e-01    2.310000e+00
   TP4  C6vq  1 3.950000e-01    2.500000e+00
   TP4  N1aq  1 3.950000e-01    2.310000e+00
   TP4  N2aq  1 3.950000e-01    2.500000e+00
   TP4  N3aq  1 3.950000e-01    2.700000e+00
   TP4  N4aq  1 3.950000e-01    2.940000e+00
   TP4  N5aq  1 3.950000e-01    2.940000e+00
   TP4  N6aq  1 3.950000e-01    3.190000e+00
   TP4  P1aq  1 3.950000e-01    3.430000e+00
   TP4  P2aq  1 3.950000e-01    3.670000e+00
   TP4  P3aq  1 3.950000e-01    3.670000e+00
   TP4  P4aq  1 3.950000e-01    3.910000e+00
   TP4  N1dq  1 3.950000e-01    2.310000e+00
   TP4  N2dq  1 3.950000e-01    2.500000e+00
   TP4  N3dq  1 3.950000e-01    2.700000e+00
   TP4  N4dq  1 3.950000e-01    2.940000e+00
   TP4  N5dq  1 3.950000e-01    2.940000e+00
   TP4  N6dq  1 3.950000e-01    3.190000e+00
   TP4  P1dq  1 3.950000e-01    3.430000e+00
   TP4  P2dq  1 3.950000e-01    3.670000e+00
   TP4  P3dq  1 3.950000e-01    3.670000e+00
   TP4  P4dq  1 3.950000e-01    3.910000e+00
   TP4   X1q  1 3.950000e-01    2.110000e+00
   TP4   X2q  1 3.950000e-01    2.310000e+00
   TP4   X3q  1 3.950000e-01    2.310000e+00
   TP4   X4q  1 3.950000e-01    2.500000e+00
   TP4   C1q  1 3.980000e-01    1.450000e+00
   TP4   C2q  1 3.950000e-01    1.670000e+00
   TP4   C3q  1 3.950000e-01    1.670000e+00
   TP4   C4q  1 3.950000e-01    1.850000e+00
   TP4   C5q  1 3.950000e-01    2.110000e+00
   TP4   C6q  1 3.950000e-01    2.310000e+00
   TP4   N1q  1 3.950000e-01    2.310000e+00
   TP4   N2q  1 3.950000e-01    2.500000e+00
   TP4   N3q  1 3.950000e-01    2.700000e+00
   TP4   N4q  1 3.950000e-01    2.940000e+00
   TP4   N5q  1 3.950000e-01    2.940000e+00
   TP4   N6q  1 3.950000e-01    3.190000e+00
   TP4   P1q  1 3.950000e-01    3.430000e+00
   TP4   P2q  1 3.950000e-01    3.670000e+00
   TP4   P3q  1 3.950000e-01    3.670000e+00
   TP4   P4h  1 3.950000e-01    3.430000e+00
   TP4  X1eh  1 3.950000e-01    1.850000e+00
   TP4  X2eh  1 3.950000e-01    2.110000e+00
   TP4  X3eh  1 3.950000e-01    2.110000e+00
   TP4  X4eh  1 3.950000e-01    2.310000e+00
   TP4  C1eh  1 3.990000e-01    1.180000e+00
   TP4  C2eh  1 3.980000e-01    1.450000e+00
   TP4  C3eh  1 3.980000e-01    1.450000e+00
   TP4  C4eh  1 3.950000e-01    1.670000e+00
   TP4  C5eh  1 3.950000e-01    1.850000e+00
   TP4  C6eh  1 3.950000e-01    2.110000e+00
   TP4  X1vh  1 3.950000e-01    1.850000e+00
   TP4  X2vh  1 3.950000e-01    2.110000e+00
   TP4  X3vh  1 3.950000e-01    2.110000e+00
   TP4  X4vh  1 3.950000e-01    2.310000e+00
   TP4  C1vh  1 3.990000e-01    1.180000e+00
   TP4  C2vh  1 3.980000e-01    1.450000e+00
   TP4  C3vh  1 3.980000e-01    1.450000e+00
   TP4  C4vh  1 3.950000e-01    1.670000e+00
   TP4  C5vh  1 3.950000e-01    1.850000e+00
   TP4  C6vh  1 3.950000e-01    2.110000e+00
   TP4  N1ah  1 3.950000e-01    1.850000e+00
   TP4  N2ah  1 3.950000e-01    2.110000e+00
   TP4  N3ah  1 3.950000e-01    2.310000e+00
   TP4  N4ah  1 3.950000e-01    2.500000e+00
   TP4  N5ah  1 3.950000e-01    2.500000e+00
   TP4  N6ah  1 3.950000e-01    2.700000e+00
   TP4  P1ah  1 3.950000e-01    2.940000e+00
   TP4  P2ah  1 3.950000e-01    3.190000e+00
   TP4  P3ah  1 3.950000e-01    3.190000e+00
   TP4  P4ah  1 3.950000e-01    3.430000e+00
   TP4  N1dh  1 3.950000e-01    1.850000e+00
   TP4  N2dh  1 3.950000e-01    2.110000e+00
   TP4  N3dh  1 3.950000e-01    2.310000e+00
   TP4  N4dh  1 3.950000e-01    2.500000e+00
   TP4  N5dh  1 3.950000e-01    2.500000e+00
   TP4  N6dh  1 3.950000e-01    2.700000e+00
   TP4  P1dh  1 3.950000e-01    2.940000e+00
   TP4  P2dh  1 3.950000e-01    3.190000e+00
   TP4  P3dh  1 3.950000e-01    3.190000e+00
   TP4  P4dh  1 3.950000e-01    3.430000e+00
   TP4   X1h  1 3.950000e-01    1.670000e+00
   TP4   X2h  1 3.950000e-01    1.850000e+00
   TP4   X3h  1 3.950000e-01    1.850000e+00
   TP4   X4h  1 3.950000e-01    2.110000e+00
   TP4   C1h  1 4.010000e-01    9.830000e-01
   TP4   C2h  1 3.990000e-01    1.180000e+00
   TP4   C3h  1 3.990000e-01    1.180000e+00
   TP4   C4h  1 3.980000e-01    1.450000e+00
   TP4   C5h  1 3.950000e-01    1.670000e+00
   TP4   C6h  1 3.950000e-01    1.850000e+00
   TP4   N1h  1 3.950000e-01    1.850000e+00
   TP4   N2h  1 3.950000e-01    2.110000e+00
   TP4   N3h  1 3.950000e-01    2.310000e+00
   TP4   N4h  1 3.950000e-01    2.500000e+00
   TP4   N5h  1 3.950000e-01    2.500000e+00
   TP4   N6h  1 3.950000e-01    2.700000e+00
   TP4   P1h  1 3.950000e-01    2.940000e+00
   TP4   P2h  1 3.950000e-01    3.190000e+00
   TP4   P3h  1 3.950000e-01    3.190000e+00
   TP4   P4r  1 3.950000e-01    3.430000e+00
   TP4  X1er  1 3.950000e-01    1.850000e+00
   TP4  X2er  1 3.950000e-01    2.110000e+00
   TP4  X3er  1 3.950000e-01    2.110000e+00
   TP4  X4er  1 3.950000e-01    2.310000e+00
   TP4  C1er  1 3.990000e-01    1.180000e+00
   TP4  C2er  1 3.980000e-01    1.450000e+00
   TP4  C3er  1 3.980000e-01    1.450000e+00
   TP4  C4er  1 3.950000e-01    1.670000e+00
   TP4  C5er  1 3.950000e-01    1.850000e+00
   TP4  C6er  1 3.950000e-01    2.110000e+00
   TP4  X1vr  1 3.950000e-01    1.850000e+00
   TP4  X2vr  1 3.950000e-01    2.110000e+00
   TP4  X3vr  1 3.950000e-01    2.110000e+00
   TP4  X4vr  1 3.950000e-01    2.310000e+00
   TP4  C1vr  1 3.990000e-01    1.180000e+00
   TP4  C2vr  1 3.980000e-01    1.450000e+00
   TP4  C3vr  1 3.980000e-01    1.450000e+00
   TP4  C4vr  1 3.950000e-01    1.670000e+00
   TP4  C5vr  1 3.950000e-01    1.850000e+00
   TP4  C6vr  1 3.950000e-01    2.110000e+00
   TP4  N1ar  1 3.950000e-01    1.850000e+00
   TP4  N2ar  1 3.950000e-01    2.110000e+00
   TP4  N3ar  1 3.950000e-01    2.310000e+00
   TP4  N4ar  1 3.950000e-01    2.500000e+00
   TP4  N5ar  1 3.950000e-01    2.500000e+00
   TP4  N6ar  1 3.950000e-01    2.700000e+00
   TP4  P1ar  1 3.950000e-01    2.940000e+00
   TP4  P2ar  1 3.950000e-01    3.190000e+00
   TP4  P3ar  1 3.950000e-01    3.190000e+00
   TP4  P4ar  1 3.950000e-01    3.430000e+00
   TP4  N1dr  1 3.950000e-01    1.850000e+00
   TP4  N2dr  1 3.950000e-01    2.110000e+00
   TP4  N3dr  1 3.950000e-01    2.310000e+00
   TP4  N4dr  1 3.950000e-01    2.500000e+00
   TP4  N5dr  1 3.950000e-01    2.500000e+00
   TP4  N6dr  1 3.950000e-01    2.700000e+00
   TP4  P1dr  1 3.950000e-01    2.940000e+00
   TP4  P2dr  1 3.950000e-01    3.190000e+00
   TP4  P3dr  1 3.950000e-01    3.190000e+00
   TP4  P4dr  1 3.950000e-01    3.430000e+00
   TP4   X1r  1 3.950000e-01    1.670000e+00
   TP4   X2r  1 3.950000e-01    1.850000e+00
   TP4   X3r  1 3.950000e-01    1.850000e+00
   TP4   X4r  1 3.950000e-01    2.110000e+00
   TP4   C1r  1 4.010000e-01    9.830000e-01
   TP4   C2r  1 3.990000e-01    1.180000e+00
   TP4   C3r  1 3.990000e-01    1.180000e+00
   TP4   C4r  1 3.980000e-01    1.450000e+00
   TP4   C5r  1 3.950000e-01    1.670000e+00
   TP4   C6r  1 3.950000e-01    1.850000e+00
   TP4   N1r  1 3.950000e-01    1.850000e+00
   TP4   N2r  1 3.950000e-01    2.110000e+00
   TP4   N3r  1 3.950000e-01    2.310000e+00
   TP4   N4r  1 3.950000e-01    2.500000e+00
   TP4   N5r  1 3.950000e-01    2.500000e+00
   TP4   N6r  1 3.950000e-01    2.700000e+00
   TP4   P1r  1 3.950000e-01    2.940000e+00
   TP4   P2r  1 3.950000e-01    3.190000e+00
   TP4   P3r  1 3.950000e-01    3.190000e+00
   TP4   TP4  1 3.400000e-01    2.740000e+00
   TP4   TP3  1 3.400000e-01    2.500000e+00
   TP4   TP2  1 3.400000e-01    2.500000e+00
   TP4   TP1  1 3.400000e-01    2.280000e+00
   TP4   TN6  1 3.400000e-01    2.020000e+00
   TP4   TN5  1 3.400000e-01    1.770000e+00
   TP4   TN4  1 3.400000e-01    1.770000e+00
   TP4   TN3  1 3.400000e-01    1.510000e+00
   TP4   TN2  1 3.400000e-01    1.230000e+00
   TP4   TN1  1 3.520000e-01    1.050000e+00
   TP4   TC6  1 3.520000e-01    1.050000e+00
   TP4   TC5  1 3.660000e-01    9.350000e-01
   TP4   TC4  1 3.850000e-01    8.550000e-01
   TP4   TC3  1 4.110000e-01    8.010000e-01
   TP4   TC2  1 4.110000e-01    8.010000e-01
   TP4   TC1  1 4.240000e-01    7.760000e-01
   TP4   TX4  1 3.400000e-01    1.230000e+00
   TP4   TX3  1 3.520000e-01    1.050000e+00
   TP4   TX2  1 3.520000e-01    1.050000e+00
   TP4   TX1  1 3.660000e-01    9.350000e-01
  TP6d   TP4  1 3.400000e-01    2.990000e+00
  TP5d   TP4  1 3.400000e-01    2.740000e+00
   TP4  TP4d  1 3.400000e-01    2.740000e+00
   TP4  TN1d  1 3.520000e-01    1.050000e+00
   TP4  TN2d  1 3.400000e-01    1.230000e+00
   TP4  TN3d  1 3.400000e-01    1.510000e+00
   TP4  TN4d  1 3.400000e-01    1.770000e+00
   TP4  TN5d  1 3.400000e-01    1.770000e+00
   TP4  TN6d  1 3.400000e-01    2.020000e+00
   TP4  TP1d  1 3.400000e-01    2.280000e+00
   TP4  TP2d  1 3.400000e-01    2.500000e+00
   TP4  TP3d  1 3.400000e-01    2.500000e+00
  TP6a   TP4  1 3.400000e-01    2.990000e+00
  TP5a   TP4  1 3.400000e-01    2.740000e+00
   TP4  TP4a  1 3.400000e-01    2.740000e+00
   TP4  TN1a  1 3.520000e-01    1.050000e+00
   TP4  TN2a  1 3.400000e-01    1.230000e+00
   TP4  TN3a  1 3.400000e-01    1.510000e+00
   TP4  TN4a  1 3.400000e-01    1.770000e+00
   TP4  TN5a  1 3.400000e-01    1.770000e+00
   TP4  TN6a  1 3.400000e-01    2.020000e+00
   TP4  TP1a  1 3.400000e-01    2.280000e+00
   TP4  TP2a  1 3.400000e-01    2.500000e+00
   TP4  TP3a  1 3.400000e-01    2.500000e+00
   TP4  TC6v  1 3.400000e-01    1.230000e+00
   TP4  TC5v  1 3.520000e-01    1.050000e+00
   TP4  TC4v  1 3.660000e-01    9.350000e-01
   TP4  TC3v  1 3.850000e-01    8.550000e-01
   TP4  TC2v  1 3.850000e-01    8.550000e-01
   TP4  TC1v  1 4.110000e-01    8.010000e-01
   TP4  TX4v  1 3.400000e-01    1.510000e+00
   TP4  TX3v  1 3.400000e-01    1.230000e+00
   TP4  TX2v  1 3.400000e-01    1.230000e+00
   TP4  TX1v  1 3.520000e-01    1.050000e+00
   TP4  TC6e  1 3.400000e-01    1.230000e+00
   TP4  TC5e  1 3.520000e-01    1.050000e+00
   TP4  TC4e  1 3.660000e-01    9.350000e-01
   TP4  TC3e  1 3.850000e-01    8.550000e-01
   TP4  TC2e  1 3.850000e-01    8.550000e-01
   TP4  TC1e  1 4.110000e-01    8.010000e-01
   TP4  TX4e  1 3.400000e-01    1.510000e+00
   TP4  TX3e  1 3.400000e-01    1.230000e+00
   TP4  TX2e  1 3.400000e-01    1.230000e+00
   TP4  TX1e  1 3.520000e-01    1.050000e+00
  TP6q   TP4  1 3.400000e-01    3.470000e+00
  TP5q   TP4  1 3.400000e-01    3.220000e+00
   TP4  TP4q  1 3.400000e-01    3.220000e+00
   TP4 TX1eq  1 3.400000e-01    1.510000e+00
   TP4 TX2eq  1 3.400000e-01    1.770000e+00
   TP4 TX3eq  1 3.400000e-01    1.770000e+00
   TP4 TX4eq  1 3.400000e-01    2.020000e+00
   TP4 TC1eq  1 3.660000e-01    9.350000e-01
   TP4 TC2eq  1 3.520000e-01    1.050000e+00
   TP4 TC3eq  1 3.520000e-01    1.050000e+00
   TP4 TC4eq  1 3.400000e-01    1.230000e+00
   TP4 TC5eq  1 3.400000e-01    1.510000e+00
   TP4 TC6eq  1 3.400000e-01    1.770000e+00
   TP4 TX1vq  1 3.400000e-01    1.510000e+00
   TP4 TX2vq  1 3.400000e-01    1.770000e+00
   TP4 TX3vq  1 3.400000e-01    1.770000e+00
   TP4 TX4vq  1 3.400000e-01    2.020000e+00
   TP4 TC1vq  1 3.660000e-01    9.350000e-01
   TP4 TC2vq  1 3.520000e-01    1.050000e+00
   TP4 TC3vq  1 3.520000e-01    1.050000e+00
   TP4 TC4vq  1 3.400000e-01    1.230000e+00
   TP4 TC5vq  1 3.400000e-01    1.510000e+00
   TP4 TC6vq  1 3.400000e-01    1.770000e+00
   TP4 TN1aq  1 3.400000e-01    1.510000e+00
   TP4 TN2aq  1 3.400000e-01    1.770000e+00
   TP4 TN3aq  1 3.400000e-01    2.020000e+00
   TP4 TN4aq  1 3.400000e-01    2.280000e+00
   TP4 TN5aq  1 3.400000e-01    2.280000e+00
   TP4 TN6aq  1 3.400000e-01    2.500000e+00
   TP4 TP1aq  1 3.400000e-01    2.740000e+00
   TP4 TP2aq  1 3.400000e-01    2.990000e+00
   TP4 TP3aq  1 3.400000e-01    2.990000e+00
   TP4 TP4aq  1 3.400000e-01    3.220000e+00
 TP5aq   TP4  1 3.400000e-01    3.220000e+00
 TP6aq   TP4  1 3.400000e-01    3.470000e+00
   TP4 TN1dq  1 3.400000e-01    1.510000e+00
   TP4 TN2dq  1 3.400000e-01    1.770000e+00
   TP4 TN3dq  1 3.400000e-01    2.020000e+00
   TP4 TN4dq  1 3.400000e-01    2.280000e+00
   TP4 TN5dq  1 3.400000e-01    2.280000e+00
   TP4 TN6dq  1 3.400000e-01    2.500000e+00
   TP4 TP1dq  1 3.400000e-01    2.740000e+00
   TP4 TP2dq  1 3.400000e-01    2.990000e+00
   TP4 TP3dq  1 3.400000e-01    2.990000e+00
   TP4 TP4dq  1 3.400000e-01    3.220000e+00
 TP5dq   TP4  1 3.400000e-01    3.220000e+00
 TP6dq   TP4  1 3.400000e-01    3.470000e+00
   TP4  TX1q  1 3.400000e-01    1.230000e+00
   TP4  TX2q  1 3.400000e-01    1.510000e+00
   TP4  TX3q  1 3.400000e-01    1.510000e+00
   TP4  TX4q  1 3.400000e-01    1.770000e+00
   TP4  TC1q  1 3.850000e-01    8.550000e-01
   TP4  TC2q  1 3.660000e-01    9.350000e-01
   TP4  TC3q  1 3.660000e-01    9.350000e-01
   TP4  TC4q  1 3.520000e-01    1.050000e+00
   TP4  TC5q  1 3.400000e-01    1.230000e+00
   TP4  TC6q  1 3.400000e-01    1.510000e+00
   TP4  TN1q  1 3.400000e-01    1.510000e+00
   TP4  TN2q  1 3.400000e-01    1.770000e+00
   TP4  TN3q  1 3.400000e-01    2.020000e+00
   TP4  TN4q  1 3.400000e-01    2.280000e+00
   TP4  TN5q  1 3.400000e-01    2.280000e+00
   TP4  TN6q  1 3.400000e-01    2.500000e+00
   TP4  TP1q  1 3.400000e-01    2.740000e+00
   TP4  TP2q  1 3.400000e-01    2.990000e+00
   TP4  TP3q  1 3.400000e-01    2.990000e+00
  TP6h   TP4  1 3.400000e-01    2.990000e+00
  TP5h   TP4  1 3.400000e-01    2.740000e+00
   TP4  TP4h  1 3.400000e-01    2.740000e+00
   TP4 TX1eh  1 3.520000e-01    1.050000e+00
   TP4 TX2eh  1 3.400000e-01    1.230000e+00
   TP4 TX3eh  1 3.400000e-01    1.230000e+00
   TP4 TX4eh  1 3.400000e-01    1.510000e+00
   TP4 TC1eh  1 4.110000e-01    8.010000e-01
   TP4 TC2eh  1 3.850000e-01    8.550000e-01
   TP4 TC3eh  1 3.850000e-01    8.550000e-01
   TP4 TC4eh  1 3.660000e-01    9.350000e-01
   TP4 TC5eh  1 3.520000e-01    1.050000e+00
   TP4 TC6eh  1 3.400000e-01    1.230000e+00
   TP4 TX1vh  1 3.520000e-01    1.050000e+00
   TP4 TX2vh  1 3.400000e-01    1.230000e+00
   TP4 TX3vh  1 3.400000e-01    1.230000e+00
   TP4 TX4vh  1 3.400000e-01    1.510000e+00
   TP4 TC1vh  1 4.110000e-01    8.010000e-01
   TP4 TC2vh  1 3.850000e-01    8.550000e-01
   TP4 TC3vh  1 3.850000e-01    8.550000e-01
   TP4 TC4vh  1 3.660000e-01    9.350000e-01
   TP4 TC5vh  1 3.520000e-01    1.050000e+00
   TP4 TC6vh  1 3.400000e-01    1.230000e+00
   TP4 TN1ah  1 3.520000e-01    1.050000e+00
   TP4 TN2ah  1 3.400000e-01    1.230000e+00
   TP4 TN3ah  1 3.400000e-01    1.510000e+00
   TP4 TN4ah  1 3.400000e-01    1.770000e+00
   TP4 TN5ah  1 3.400000e-01    1.770000e+00
   TP4 TN6ah  1 3.400000e-01    2.020000e+00
   TP4 TP1ah  1 3.400000e-01    2.280000e+00
   TP4 TP2ah  1 3.400000e-01    2.500000e+00
   TP4 TP3ah  1 3.400000e-01    2.500000e+00
   TP4 TP4ah  1 3.400000e-01    2.740000e+00
 TP5ah   TP4  1 3.400000e-01    2.740000e+00
 TP6ah   TP4  1 3.400000e-01    2.990000e+00
   TP4 TN1dh  1 3.520000e-01    1.050000e+00
   TP4 TN2dh  1 3.400000e-01    1.230000e+00
   TP4 TN3dh  1 3.400000e-01    1.510000e+00
   TP4 TN4dh  1 3.400000e-01    1.770000e+00
   TP4 TN5dh  1 3.400000e-01    1.770000e+00
   TP4 TN6dh  1 3.400000e-01    2.020000e+00
   TP4 TP1dh  1 3.400000e-01    2.280000e+00
   TP4 TP2dh  1 3.400000e-01    2.500000e+00
   TP4 TP3dh  1 3.400000e-01    2.500000e+00
   TP4 TP4dh  1 3.400000e-01    2.740000e+00
 TP5dh   TP4  1 3.400000e-01    2.740000e+00
 TP6dh   TP4  1 3.400000e-01    2.990000e+00
   TP4  TX1h  1 3.660000e-01    9.350000e-01
   TP4  TX2h  1 3.520000e-01    1.050000e+00
   TP4  TX3h  1 3.520000e-01    1.050000e+00
   TP4  TX4h  1 3.400000e-01    1.230000e+00
   TP4  TC1h  1 4.240000e-01    7.760000e-01
   TP4  TC2h  1 4.110000e-01    8.010000e-01
   TP4  TC3h  1 4.110000e-01    8.010000e-01
   TP4  TC4h  1 3.850000e-01    8.550000e-01
   TP4  TC5h  1 3.660000e-01    9.350000e-01
   TP4  TC6h  1 3.520000e-01    1.050000e+00
   TP4  TN1h  1 3.520000e-01    1.050000e+00
   TP4  TN2h  1 3.400000e-01    1.230000e+00
   TP4  TN3h  1 3.400000e-01    1.510000e+00
   TP4  TN4h  1 3.400000e-01    1.770000e+00
   TP4  TN5h  1 3.400000e-01    1.770000e+00
   TP4  TN6h  1 3.400000e-01    2.020000e+00
   TP4  TP1h  1 3.400000e-01    2.280000e+00
   TP4  TP2h  1 3.400000e-01    2.500000e+00
   TP4  TP3h  1 3.400000e-01    2.500000e+00
  TP6r   TP4  1 3.400000e-01    2.990000e+00
  TP5r   TP4  1 3.400000e-01    2.740000e+00
   TP4  TP4r  1 3.400000e-01    2.740000e+00
   TP4 TX1er  1 3.520000e-01    1.050000e+00
   TP4 TX2er  1 3.400000e-01    1.230000e+00
   TP4 TX3er  1 3.400000e-01    1.230000e+00
   TP4 TX4er  1 3.400000e-01    1.510000e+00
   TP4 TC1er  1 4.110000e-01    8.010000e-01
   TP4 TC2er  1 3.850000e-01    8.550000e-01
   TP4 TC3er  1 3.850000e-01    8.550000e-01
   TP4 TC4er  1 3.660000e-01    9.350000e-01
   TP4 TC5er  1 3.520000e-01    1.050000e+00
   TP4 TC6er  1 3.400000e-01    1.230000e+00
   TP4 TX1vr  1 3.520000e-01    1.050000e+00
   TP4 TX2vr  1 3.400000e-01    1.230000e+00
   TP4 TX3vr  1 3.400000e-01    1.230000e+00
   TP4 TX4vr  1 3.400000e-01    1.510000e+00
   TP4 TC1vr  1 4.110000e-01    8.010000e-01
   TP4 TC2vr  1 3.850000e-01    8.550000e-01
   TP4 TC3vr  1 3.850000e-01    8.550000e-01
   TP4 TC4vr  1 3.660000e-01    9.350000e-01
   TP4 TC5vr  1 3.520000e-01    1.050000e+00
   TP4 TC6vr  1 3.400000e-01    1.230000e+00
   TP4 TN1ar  1 3.520000e-01    1.050000e+00
   TP4 TN2ar  1 3.400000e-01    1.230000e+00
   TP4 TN3ar  1 3.400000e-01    1.510000e+00
   TP4 TN4ar  1 3.400000e-01    1.770000e+00
   TP4 TN5ar  1 3.400000e-01    1.770000e+00
   TP4 TN6ar  1 3.400000e-01    2.020000e+00
   TP4 TP1ar  1 3.400000e-01    2.280000e+00
   TP4 TP2ar  1 3.400000e-01    2.500000e+00
   TP4 TP3ar  1 3.400000e-01    2.500000e+00
   TP4 TP4ar  1 3.400000e-01    2.740000e+00
 TP5ar   TP4  1 3.400000e-01    2.740000e+00
 TP6ar   TP4  1 3.400000e-01    2.990000e+00
   TP4 TN1dr  1 3.520000e-01    1.050000e+00
   TP4 TN2dr  1 3.400000e-01    1.230000e+00
   TP4 TN3dr  1 3.400000e-01    1.510000e+00
   TP4 TN4dr  1 3.400000e-01    1.770000e+00
   TP4 TN5dr  1 3.400000e-01    1.770000e+00
   TP4 TN6dr  1 3.400000e-01    2.020000e+00
   TP4 TP1dr  1 3.400000e-01    2.280000e+00
   TP4 TP2dr  1 3.400000e-01    2.500000e+00
   TP4 TP3dr  1 3.400000e-01    2.500000e+00
   TP4 TP4dr  1 3.400000e-01    2.740000e+00
 TP5dr   TP4  1 3.400000e-01    2.740000e+00
 TP6dr   TP4  1 3.400000e-01    2.990000e+00
   TP4  TX1r  1 3.660000e-01    9.350000e-01
   TP4  TX2r  1 3.520000e-01    1.050000e+00
   TP4  TX3r  1 3.520000e-01    1.050000e+00
   TP4  TX4r  1 3.400000e-01    1.230000e+00
   TP4  TC1r  1 4.240000e-01    7.760000e-01
   TP4  TC2r  1 4.110000e-01    8.010000e-01
   TP4  TC3r  1 4.110000e-01    8.010000e-01
   TP4  TC4r  1 3.850000e-01    8.550000e-01
   TP4  TC5r  1 3.660000e-01    9.350000e-01
   TP4  TC6r  1 3.520000e-01    1.050000e+00
   TP4  TN1r  1 3.520000e-01    1.050000e+00
   TP4  TN2r  1 3.400000e-01    1.230000e+00
   TP4  TN3r  1 3.400000e-01    1.510000e+00
   TP4  TN4r  1 3.400000e-01    1.770000e+00
   TP4  TN5r  1 3.400000e-01    1.770000e+00
   TP4  TN6r  1 3.400000e-01    2.020000e+00
   TP4  TP1r  1 3.400000e-01    2.280000e+00
   TP4  TP2r  1 3.400000e-01    2.500000e+00
   TP4  TP3r  1 3.400000e-01    2.500000e+00
  SP6d   TP4  1 3.650000e-01    3.370000e+00
  SP5d   TP4  1 3.650000e-01    3.100000e+00
  SP6a   TP4  1 3.650000e-01    3.370000e+00
  SP5a   TP4  1 3.650000e-01    3.100000e+00
  SP6q   TP4  1 3.650000e-01    3.930000e+00
  SP5q   TP4  1 3.650000e-01    3.640000e+00
 SP5aq   TP4  1 3.650000e-01    3.640000e+00
 SP6aq   TP4  1 3.650000e-01    3.930000e+00
 SP5dq   TP4  1 3.650000e-01    3.640000e+00
 SP6dq   TP4  1 3.650000e-01    3.930000e+00
  SP6h   TP4  1 3.650000e-01    3.370000e+00
  SP5h   TP4  1 3.650000e-01    3.100000e+00
 SP5ah   TP4  1 3.650000e-01    3.100000e+00
 SP6ah   TP4  1 3.650000e-01    3.370000e+00
 SP5dh   TP4  1 3.650000e-01    3.100000e+00
 SP6dh   TP4  1 3.650000e-01    3.370000e+00
  SP6r   TP4  1 3.650000e-01    3.370000e+00
  SP5r   TP4  1 3.650000e-01    3.100000e+00
 SP5ar   TP4  1 3.650000e-01    3.100000e+00
 SP6ar   TP4  1 3.650000e-01    3.370000e+00
 SP5dr   TP4  1 3.650000e-01    3.100000e+00
 SP6dr   TP4  1 3.650000e-01    3.370000e+00
   TP4   SP3  1 3.650000e-01    2.830000e+00
   TP4   SP2  1 3.650000e-01    2.830000e+00
   TP4   SP1  1 3.650000e-01    2.570000e+00
   TP4   SN6  1 3.650000e-01    2.340000e+00
   TP4   SN5  1 3.650000e-01    2.110000e+00
   TP4   SN4  1 3.650000e-01    2.110000e+00
   TP4   SN3  1 3.650000e-01    1.910000e+00
   TP4   SN2  1 3.650000e-01    1.750000e+00
   TP4   SN1  1 3.660000e-01    1.600000e+00
   TP4   SC6  1 3.660000e-01    1.600000e+00
   TP4   SC5  1 3.780000e-01    1.450000e+00
   TP4   SC4  1 3.940000e-01    1.290000e+00
   TP4   SC3  1 4.040000e-01    1.130000e+00
   TP4   SC2  1 4.040000e-01    1.130000e+00
   TP4   SC1  1 4.090000e-01    1.080000e+00
   TP4   SX4  1 3.650000e-01    1.750000e+00
   TP4   SX3  1 3.660000e-01    1.600000e+00
   TP4   SX2  1 3.660000e-01    1.600000e+00
   TP4   SX1  1 3.780000e-01    1.450000e+00
   TP4  SP4d  1 3.650000e-01    3.100000e+00
   TP4  SN1d  1 3.660000e-01    1.600000e+00
   TP4  SN2d  1 3.650000e-01    1.750000e+00
   TP4  SN3d  1 3.650000e-01    1.910000e+00
   TP4  SN4d  1 3.650000e-01    2.110000e+00
   TP4  SN5d  1 3.650000e-01    2.110000e+00
   TP4  SN6d  1 3.650000e-01    2.340000e+00
   TP4  SP1d  1 3.650000e-01    2.570000e+00
   TP4  SP2d  1 3.650000e-01    2.830000e+00
   TP4  SP3d  1 3.650000e-01    2.830000e+00
   TP4  SP4a  1 3.650000e-01    3.100000e+00
   TP4  SN1a  1 3.660000e-01    1.600000e+00
   TP4  SN2a  1 3.650000e-01    1.750000e+00
   TP4  SN3a  1 3.650000e-01    1.910000e+00
   TP4  SN4a  1 3.650000e-01    2.110000e+00
   TP4  SN5a  1 3.650000e-01    2.110000e+00
   TP4  SN6a  1 3.650000e-01    2.340000e+00
   TP4  SP1a  1 3.650000e-01    2.570000e+00
   TP4  SP2a  1 3.650000e-01    2.830000e+00
   TP4  SP3a  1 3.650000e-01    2.830000e+00
   TP4  SC6v  1 3.650000e-01    1.750000e+00
   TP4  SC5v  1 3.660000e-01    1.600000e+00
   TP4  SC4v  1 3.780000e-01    1.450000e+00
   TP4  SC3v  1 3.940000e-01    1.290000e+00
   TP4  SC2v  1 3.940000e-01    1.290000e+00
   TP4  SC1v  1 4.040000e-01    1.130000e+00
   TP4  SX4v  1 3.650000e-01    1.910000e+00
   TP4  SX3v  1 3.650000e-01    1.750000e+00
   TP4  SX2v  1 3.650000e-01    1.750000e+00
   TP4  SX1v  1 3.660000e-01    1.600000e+00
   TP4  SC6e  1 3.650000e-01    1.750000e+00
   TP4  SC5e  1 3.660000e-01    1.600000e+00
   TP4  SC4e  1 3.780000e-01    1.450000e+00
   TP4  SC3e  1 3.940000e-01    1.290000e+00
   TP4  SC2e  1 3.940000e-01    1.290000e+00
   TP4  SC1e  1 4.040000e-01    1.130000e+00
   TP4  SX4e  1 3.650000e-01    1.910000e+00
   TP4  SX3e  1 3.650000e-01    1.750000e+00
   TP4  SX2e  1 3.650000e-01    1.750000e+00
   TP4  SX1e  1 3.660000e-01    1.600000e+00
   TP4  SP4q  1 3.650000e-01    3.640000e+00
   TP4 SX1eq  1 3.650000e-01    1.910000e+00
   TP4 SX2eq  1 3.650000e-01    2.110000e+00
   TP4 SX3eq  1 3.650000e-01    2.110000e+00
   TP4 SX4eq  1 3.650000e-01    2.340000e+00
   TP4 SC1eq  1 3.780000e-01    1.450000e+00
   TP4 SC2eq  1 3.660000e-01    1.600000e+00
   TP4 SC3eq  1 3.660000e-01    1.600000e+00
   TP4 SC4eq  1 3.650000e-01    1.750000e+00
   TP4 SC5eq  1 3.650000e-01    1.910000e+00
   TP4 SC6eq  1 3.650000e-01    2.110000e+00
   TP4 SX1vq  1 3.650000e-01    1.910000e+00
   TP4 SX2vq  1 3.650000e-01    2.110000e+00
   TP4 SX3vq  1 3.650000e-01    2.110000e+00
   TP4 SX4vq  1 3.650000e-01    2.340000e+00
   TP4 SC1vq  1 3.780000e-01    1.450000e+00
   TP4 SC2vq  1 3.660000e-01    1.600000e+00
   TP4 SC3vq  1 3.660000e-01    1.600000e+00
   TP4 SC4vq  1 3.650000e-01    1.750000e+00
   TP4 SC5vq  1 3.650000e-01    1.910000e+00
   TP4 SC6vq  1 3.650000e-01    2.110000e+00
   TP4 SN1aq  1 3.650000e-01    1.910000e+00
   TP4 SN2aq  1 3.650000e-01    2.110000e+00
   TP4 SN3aq  1 3.650000e-01    2.340000e+00
   TP4 SN4aq  1 3.650000e-01    2.570000e+00
   TP4 SN5aq  1 3.650000e-01    2.570000e+00
   TP4 SN6aq  1 3.650000e-01    2.830000e+00
   TP4 SP1aq  1 3.650000e-01    3.100000e+00
   TP4 SP2aq  1 3.650000e-01    3.370000e+00
   TP4 SP3aq  1 3.650000e-01    3.370000e+00
   TP4 SP4aq  1 3.650000e-01    3.640000e+00
   TP4 SN1dq  1 3.650000e-01    1.910000e+00
   TP4 SN2dq  1 3.650000e-01    2.110000e+00
   TP4 SN3dq  1 3.650000e-01    2.340000e+00
   TP4 SN4dq  1 3.650000e-01    2.570000e+00
   TP4 SN5dq  1 3.650000e-01    2.570000e+00
   TP4 SN6dq  1 3.650000e-01    2.830000e+00
   TP4 SP1dq  1 3.650000e-01    3.100000e+00
   TP4 SP2dq  1 3.650000e-01    3.370000e+00
   TP4 SP3dq  1 3.650000e-01    3.370000e+00
   TP4 SP4dq  1 3.650000e-01    3.640000e+00
   TP4  SX1q  1 3.650000e-01    1.750000e+00
   TP4  SX2q  1 3.650000e-01    1.910000e+00
   TP4  SX3q  1 3.650000e-01    1.910000e+00
   TP4  SX4q  1 3.650000e-01    2.110000e+00
   TP4  SC1q  1 3.940000e-01    1.290000e+00
   TP4  SC2q  1 3.780000e-01    1.450000e+00
   TP4  SC3q  1 3.780000e-01    1.450000e+00
   TP4  SC4q  1 3.660000e-01    1.600000e+00
   TP4  SC5q  1 3.650000e-01    1.750000e+00
   TP4  SC6q  1 3.650000e-01    1.910000e+00
   TP4  SN1q  1 3.650000e-01    1.910000e+00
   TP4  SN2q  1 3.650000e-01    2.110000e+00
   TP4  SN3q  1 3.650000e-01    2.340000e+00
   TP4  SN4q  1 3.650000e-01    2.570000e+00
   TP4  SN5q  1 3.650000e-01    2.570000e+00
   TP4  SN6q  1 3.650000e-01    2.830000e+00
   TP4  SP1q  1 3.650000e-01    3.100000e+00
   TP4  SP2q  1 3.650000e-01    3.370000e+00
   TP4  SP3q  1 3.650000e-01    3.370000e+00
   TP4  SP4h  1 3.650000e-01    3.100000e+00
   TP4 SX1eh  1 3.660000e-01    1.600000e+00
   TP4 SX2eh  1 3.650000e-01    1.750000e+00
   TP4 SX3eh  1 3.650000e-01    1.750000e+00
   TP4 SX4eh  1 3.650000e-01    1.910000e+00
   TP4 SC1eh  1 4.040000e-01    1.130000e+00
   TP4 SC2eh  1 3.940000e-01    1.290000e+00
   TP4 SC3eh  1 3.940000e-01    1.290000e+00
   TP4 SC4eh  1 3.780000e-01    1.450000e+00
   TP4 SC5eh  1 3.660000e-01    1.600000e+00
   TP4 SC6eh  1 3.650000e-01    1.750000e+00
   TP4 SX1vh  1 3.660000e-01    1.600000e+00
   TP4 SX2vh  1 3.650000e-01    1.750000e+00
   TP4 SX3vh  1 3.650000e-01    1.750000e+00
   TP4 SX4vh  1 3.650000e-01    1.910000e+00
   TP4 SC1vh  1 4.040000e-01    1.130000e+00
   TP4 SC2vh  1 3.940000e-01    1.290000e+00
   TP4 SC3vh  1 3.940000e-01    1.290000e+00
   TP4 SC4vh  1 3.780000e-01    1.450000e+00
   TP4 SC5vh  1 3.660000e-01    1.600000e+00
   TP4 SC6vh  1 3.650000e-01    1.750000e+00
   TP4 SN1ah  1 3.660000e-01    1.600000e+00
   TP4 SN2ah  1 3.650000e-01    1.750000e+00
   TP4 SN3ah  1 3.650000e-01    1.910000e+00
   TP4 SN4ah  1 3.650000e-01    2.110000e+00
   TP4 SN5ah  1 3.650000e-01    2.110000e+00
   TP4 SN6ah  1 3.650000e-01    2.340000e+00
   TP4 SP1ah  1 3.650000e-01    2.570000e+00
   TP4 SP2ah  1 3.650000e-01    2.830000e+00
   TP4 SP3ah  1 3.650000e-01    2.830000e+00
   TP4 SP4ah  1 3.650000e-01    3.100000e+00
   TP4 SN1dh  1 3.660000e-01    1.600000e+00
   TP4 SN2dh  1 3.650000e-01    1.750000e+00
   TP4 SN3dh  1 3.650000e-01    1.910000e+00
   TP4 SN4dh  1 3.650000e-01    2.110000e+00
   TP4 SN5dh  1 3.650000e-01    2.110000e+00
   TP4 SN6dh  1 3.650000e-01    2.340000e+00
   TP4 SP1dh  1 3.650000e-01    2.570000e+00
   TP4 SP2dh  1 3.650000e-01    2.830000e+00
   TP4 SP3dh  1 3.650000e-01    2.830000e+00
   TP4 SP4dh  1 3.650000e-01    3.100000e+00
   TP4  SX1h  1 3.780000e-01    1.450000e+00
   TP4  SX2h  1 3.660000e-01    1.600000e+00
   TP4  SX3h  1 3.660000e-01    1.600000e+00
   TP4  SX4h  1 3.650000e-01    1.750000e+00
   TP4  SC1h  1 4.090000e-01    1.080000e+00
   TP4  SC2h  1 4.040000e-01    1.130000e+00
   TP4  SC3h  1 4.040000e-01    1.130000e+00
   TP4  SC4h  1 3.940000e-01    1.290000e+00
   TP4  SC5h  1 3.780000e-01    1.450000e+00
   TP4  SC6h  1 3.660000e-01    1.600000e+00
   TP4  SN1h  1 3.660000e-01    1.600000e+00
   TP4  SN2h  1 3.650000e-01    1.750000e+00
   TP4  SN3h  1 3.650000e-01    1.910000e+00
   TP4  SN4h  1 3.650000e-01    2.110000e+00
   TP4  SN5h  1 3.650000e-01    2.110000e+00
   TP4  SN6h  1 3.650000e-01    2.340000e+00
   TP4  SP1h  1 3.650000e-01    2.570000e+00
   TP4  SP2h  1 3.650000e-01    2.830000e+00
   TP4  SP3h  1 3.650000e-01    2.830000e+00
   TP4  SP4r  1 3.650000e-01    3.100000e+00
   TP4 SX1er  1 3.660000e-01    1.600000e+00
   TP4 SX2er  1 3.650000e-01    1.750000e+00
   TP4 SX3er  1 3.650000e-01    1.750000e+00
   TP4 SX4er  1 3.650000e-01    1.910000e+00
   TP4 SC1er  1 4.040000e-01    1.130000e+00
   TP4 SC2er  1 3.940000e-01    1.290000e+00
   TP4 SC3er  1 3.940000e-01    1.290000e+00
   TP4 SC4er  1 3.780000e-01    1.450000e+00
   TP4 SC5er  1 3.660000e-01    1.600000e+00
   TP4 SC6er  1 3.650000e-01    1.750000e+00
   TP4 SX1vr  1 3.660000e-01    1.600000e+00
   TP4 SX2vr  1 3.650000e-01    1.750000e+00
   TP4 SX3vr  1 3.650000e-01    1.750000e+00
   TP4 SX4vr  1 3.650000e-01    1.910000e+00
   TP4 SC1vr  1 4.040000e-01    1.130000e+00
   TP4 SC2vr  1 3.940000e-01    1.290000e+00
   TP4 SC3vr  1 3.940000e-01    1.290000e+00
   TP4 SC4vr  1 3.780000e-01    1.450000e+00
   TP4 SC5vr  1 3.660000e-01    1.600000e+00
   TP4 SC6vr  1 3.650000e-01    1.750000e+00
   TP4 SN1ar  1 3.660000e-01    1.600000e+00
   TP4 SN2ar  1 3.650000e-01    1.750000e+00
   TP4 SN3ar  1 3.650000e-01    1.910000e+00
   TP4 SN4ar  1 3.650000e-01    2.110000e+00
   TP4 SN5ar  1 3.650000e-01    2.110000e+00
   TP4 SN6ar  1 3.650000e-01    2.340000e+00
   TP4 SP1ar  1 3.650000e-01    2.570000e+00
   TP4 SP2ar  1 3.650000e-01    2.830000e+00
   TP4 SP3ar  1 3.650000e-01    2.830000e+00
   TP4 SP4ar  1 3.650000e-01    3.100000e+00
   TP4 SN1dr  1 3.660000e-01    1.600000e+00
   TP4 SN2dr  1 3.650000e-01    1.750000e+00
   TP4 SN3dr  1 3.650000e-01    1.910000e+00
   TP4 SN4dr  1 3.650000e-01    2.110000e+00
   TP4 SN5dr  1 3.650000e-01    2.110000e+00
   TP4 SN6dr  1 3.650000e-01    2.340000e+00
   TP4 SP1dr  1 3.650000e-01    2.570000e+00
   TP4 SP2dr  1 3.650000e-01    2.830000e+00
   TP4 SP3dr  1 3.650000e-01    2.830000e+00
   TP4 SP4dr  1 3.650000e-01    3.100000e+00
   TP4  SX1r  1 3.780000e-01    1.450000e+00
   TP4  SX2r  1 3.660000e-01    1.600000e+00
   TP4  SX3r  1 3.660000e-01    1.600000e+00
   TP4  SX4r  1 3.650000e-01    1.750000e+00
   TP4  SC1r  1 4.090000e-01    1.080000e+00
   TP4  SC2r  1 4.040000e-01    1.130000e+00
   TP4  SC3r  1 4.040000e-01    1.130000e+00
   TP4  SC4r  1 3.940000e-01    1.290000e+00
   TP4  SC5r  1 3.780000e-01    1.450000e+00
   TP4  SC6r  1 3.660000e-01    1.600000e+00
   TP4  SN1r  1 3.660000e-01    1.600000e+00
   TP4  SN2r  1 3.650000e-01    1.750000e+00
   TP4  SN3r  1 3.650000e-01    1.910000e+00
   TP4  SN4r  1 3.650000e-01    2.110000e+00
   TP4  SN5r  1 3.650000e-01    2.110000e+00
   TP4  SN6r  1 3.650000e-01    2.340000e+00
   TP4  SP1r  1 3.650000e-01    2.570000e+00
   TP4  SP2r  1 3.650000e-01    2.830000e+00
   TP4  SP3r  1 3.650000e-01    2.830000e+00
    P3    P3  1 4.700000e-01    4.060000e+00
    P3    P2  1 4.700000e-01    4.060000e+00
    P3    P1  1 4.700000e-01    3.880000e+00
    P3    N6  1 4.700000e-01    3.690000e+00
    P3    N5  1 4.700000e-01    3.520000e+00
    P3    N4  1 4.700000e-01    3.520000e+00
    P3    N3  1 4.700000e-01    3.390000e+00
    P3    N2  1 4.700000e-01    3.390000e+00
    P3    N1  1 4.700000e-01    3.240000e+00
    P3    C6  1 4.700000e-01    3.240000e+00
    P3    C5  1 4.700000e-01    3.070000e+00
    P3    C4  1 4.700000e-01    2.960000e+00
    P3    C3  1 4.700000e-01    2.620000e+00
    P3    C2  1 4.700000e-01    2.620000e+00
    P3    C1  1 4.700000e-01    2.440000e+00
    P3    X4  1 4.700000e-01    3.240000e+00
    P3    X3  1 4.700000e-01    3.240000e+00
    P3    X2  1 4.700000e-01    3.070000e+00
    P3    X1  1 4.700000e-01    2.960000e+00
   P6d    P3  1 4.700000e-01    4.250000e+00
   P5d    P3  1 4.700000e-01    4.060000e+00
   P4d    P3  1 4.700000e-01    4.060000e+00
    P3   P3d  1 4.700000e-01    4.060000e+00
    P3   N1d  1 4.700000e-01    3.240000e+00
    P3   N2d  1 4.700000e-01    3.390000e+00
    P3   N3d  1 4.700000e-01    3.390000e+00
    P3   N4d  1 4.700000e-01    3.520000e+00
    P3   N5d  1 4.700000e-01    3.520000e+00
    P3   N6d  1 4.700000e-01    3.690000e+00
    P3   P1d  1 4.700000e-01    3.880000e+00
    P3   P2d  1 4.700000e-01    4.060000e+00
   P6a    P3  1 4.700000e-01    4.250000e+00
   P5a    P3  1 4.700000e-01    4.060000e+00
   P4a    P3  1 4.700000e-01    4.060000e+00
    P3   P3a  1 4.700000e-01    4.060000e+00
    P3   N1a  1 4.700000e-01    3.240000e+00
    P3   N2a  1 4.700000e-01    3.390000e+00
    P3   N3a  1 4.700000e-01    3.390000e+00
    P3   N4a  1 4.700000e-01    3.520000e+00
    P3   N5a  1 4.700000e-01    3.520000e+00
    P3   N6a  1 4.700000e-01    3.690000e+00
    P3   P1a  1 4.700000e-01    3.880000e+00
    P3   P2a  1 4.700000e-01    4.060000e+00
    P3   C6v  1 4.700000e-01    3.390000e+00
    P3   C5v  1 4.700000e-01    3.240000e+00
    P3   C4v  1 4.700000e-01    3.070000e+00
    P3   C3v  1 4.700000e-01    2.790000e+00
    P3   C2v  1 4.700000e-01    2.790000e+00
    P3   C1v  1 4.700000e-01    2.620000e+00
    P3   X4v  1 4.700000e-01    3.390000e+00
    P3   X3v  1 4.700000e-01    3.390000e+00
    P3   X2v  1 4.700000e-01    3.240000e+00
    P3   X1v  1 4.700000e-01    3.070000e+00
    P3   C6e  1 4.700000e-01    3.390000e+00
    P3   C5e  1 4.700000e-01    3.240000e+00
    P3   C4e  1 4.700000e-01    3.070000e+00
    P3   C3e  1 4.700000e-01    2.790000e+00
    P3   C2e  1 4.700000e-01    2.790000e+00
    P3   C1e  1 4.700000e-01    2.620000e+00
    P3   X4e  1 4.700000e-01    3.390000e+00
    P3   X3e  1 4.700000e-01    3.390000e+00
    P3   X2e  1 4.700000e-01    3.240000e+00
    P3   X1e  1 4.700000e-01    3.070000e+00
   P6q    P3  1 4.700000e-01    4.730000e+00
   P5q    P3  1 4.700000e-01    4.480000e+00
   P4q    P3  1 4.700000e-01    4.480000e+00
    P3   P3q  1 4.700000e-01    4.480000e+00
    P3  X1eq  1 4.700000e-01    3.390000e+00
    P3  X2eq  1 4.700000e-01    3.520000e+00
    P3  X3eq  1 4.700000e-01    3.690000e+00
    P3  X4eq  1 4.700000e-01    3.690000e+00
    P3  C1eq  1 4.700000e-01    2.960000e+00
    P3  C2eq  1 4.700000e-01    3.070000e+00
    P3  C3eq  1 4.700000e-01    3.070000e+00
    P3  C4eq  1 4.700000e-01    3.390000e+00
    P3  C5eq  1 4.700000e-01    3.520000e+00
    P3  C6eq  1 4.700000e-01    3.690000e+00
    P3  X1vq  1 4.700000e-01    3.390000e+00
    P3  X2vq  1 4.700000e-01    3.520000e+00
    P3  X3vq  1 4.700000e-01    3.690000e+00
    P3  X4vq  1 4.700000e-01    3.690000e+00
    P3  C1vq  1 4.700000e-01    2.960000e+00
    P3  C2vq  1 4.700000e-01    3.070000e+00
    P3  C3vq  1 4.700000e-01    3.070000e+00
    P3  C4vq  1 4.700000e-01    3.390000e+00
    P3  C5vq  1 4.700000e-01    3.520000e+00
    P3  C6vq  1 4.700000e-01    3.690000e+00
    P3  N1aq  1 4.700000e-01    3.520000e+00
    P3  N2aq  1 4.700000e-01    3.690000e+00
    P3  N3aq  1 4.700000e-01    3.690000e+00
    P3  N4aq  1 4.700000e-01    3.880000e+00
    P3  N5aq  1 4.700000e-01    3.880000e+00
    P3  N6aq  1 4.700000e-01    4.060000e+00
    P3  P1aq  1 4.700000e-01    4.250000e+00
    P3  P2aq  1 4.700000e-01    4.480000e+00
    P3  P3aq  1 4.700000e-01    4.480000e+00
  P4aq    P3  1 4.700000e-01    4.480000e+00
  P5aq    P3  1 4.700000e-01    4.480000e+00
  P6aq    P3  1 4.700000e-01    4.730000e+00
    P3  N1dq  1 4.700000e-01    3.520000e+00
    P3  N2dq  1 4.700000e-01    3.690000e+00
    P3  N3dq  1 4.700000e-01    3.690000e+00
    P3  N4dq  1 4.700000e-01    3.880000e+00
    P3  N5dq  1 4.700000e-01    3.880000e+00
    P3  N6dq  1 4.700000e-01    4.060000e+00
    P3  P1dq  1 4.700000e-01    4.250000e+00
    P3  P2dq  1 4.700000e-01    4.480000e+00
    P3  P3dq  1 4.700000e-01    4.480000e+00
  P4dq    P3  1 4.700000e-01    4.480000e+00
  P5dq    P3  1 4.700000e-01    4.480000e+00
  P6dq    P3  1 4.700000e-01    4.730000e+00
    P3   X1q  1 4.700000e-01    3.240000e+00
    P3   X2q  1 4.700000e-01    3.390000e+00
    P3   X3q  1 4.700000e-01    3.520000e+00
    P3   X4q  1 4.700000e-01    3.520000e+00
    P3   C1q  1 4.700000e-01    2.790000e+00
    P3   C2q  1 4.700000e-01    2.960000e+00
    P3   C3q  1 4.700000e-01    2.960000e+00
    P3   C4q  1 4.700000e-01    3.240000e+00
    P3   C5q  1 4.700000e-01    3.390000e+00
    P3   C6q  1 4.700000e-01    3.520000e+00
    P3   N1q  1 4.700000e-01    3.520000e+00
    P3   N2q  1 4.700000e-01    3.690000e+00
    P3   N3q  1 4.700000e-01    3.690000e+00
    P3   N4q  1 4.700000e-01    3.880000e+00
    P3   N5q  1 4.700000e-01    3.880000e+00
    P3   N6q  1 4.700000e-01    4.060000e+00
    P3   P1q  1 4.700000e-01    4.250000e+00
    P3   P2q  1 4.700000e-01    4.480000e+00
   P6h    P3  1 4.700000e-01    4.250000e+00
   P5h    P3  1 4.700000e-01    4.060000e+00
   P4h    P3  1 4.700000e-01    4.060000e+00
    P3   P3h  1 4.700000e-01    4.060000e+00
    P3  X1eh  1 4.700000e-01    3.070000e+00
    P3  X2eh  1 4.700000e-01    3.240000e+00
    P3  X3eh  1 4.700000e-01    3.390000e+00
    P3  X4eh  1 4.700000e-01    3.390000e+00
    P3  C1eh  1 4.700000e-01    2.620000e+00
    P3  C2eh  1 4.700000e-01    2.790000e+00
    P3  C3eh  1 4.700000e-01    2.790000e+00
    P3  C4eh  1 4.700000e-01    3.070000e+00
    P3  C5eh  1 4.700000e-01    3.240000e+00
    P3  C6eh  1 4.700000e-01    3.390000e+00
    P3  X1vh  1 4.700000e-01    3.070000e+00
    P3  X2vh  1 4.700000e-01    3.240000e+00
    P3  X3vh  1 4.700000e-01    3.390000e+00
    P3  X4vh  1 4.700000e-01    3.390000e+00
    P3  C1vh  1 4.700000e-01    2.620000e+00
    P3  C2vh  1 4.700000e-01    2.790000e+00
    P3  C3vh  1 4.700000e-01    2.790000e+00
    P3  C4vh  1 4.700000e-01    3.070000e+00
    P3  C5vh  1 4.700000e-01    3.240000e+00
    P3  C6vh  1 4.700000e-01    3.390000e+00
    P3  N1ah  1 4.700000e-01    3.240000e+00
    P3  N2ah  1 4.700000e-01    3.390000e+00
    P3  N3ah  1 4.700000e-01    3.390000e+00
    P3  N4ah  1 4.700000e-01    3.520000e+00
    P3  N5ah  1 4.700000e-01    3.520000e+00
    P3  N6ah  1 4.700000e-01    3.690000e+00
    P3  P1ah  1 4.700000e-01    3.880000e+00
    P3  P2ah  1 4.700000e-01    4.060000e+00
    P3  P3ah  1 4.700000e-01    4.060000e+00
  P4ah    P3  1 4.700000e-01    4.060000e+00
  P5ah    P3  1 4.700000e-01    4.060000e+00
  P6ah    P3  1 4.700000e-01    4.250000e+00
    P3  N1dh  1 4.700000e-01    3.240000e+00
    P3  N2dh  1 4.700000e-01    3.390000e+00
    P3  N3dh  1 4.700000e-01    3.390000e+00
    P3  N4dh  1 4.700000e-01    3.520000e+00
    P3  N5dh  1 4.700000e-01    3.520000e+00
    P3  N6dh  1 4.700000e-01    3.690000e+00
    P3  P1dh  1 4.700000e-01    3.880000e+00
    P3  P2dh  1 4.700000e-01    4.060000e+00
    P3  P3dh  1 4.700000e-01    4.060000e+00
  P4dh    P3  1 4.700000e-01    4.060000e+00
  P5dh    P3  1 4.700000e-01    4.060000e+00
  P6dh    P3  1 4.700000e-01    4.250000e+00
    P3   X1h  1 4.700000e-01    2.960000e+00
    P3   X2h  1 4.700000e-01    3.070000e+00
    P3   X3h  1 4.700000e-01    3.240000e+00
    P3   X4h  1 4.700000e-01    3.240000e+00
    P3   C1h  1 4.700000e-01    2.440000e+00
    P3   C2h  1 4.700000e-01    2.620000e+00
    P3   C3h  1 4.700000e-01    2.620000e+00
    P3   C4h  1 4.700000e-01    2.960000e+00
    P3   C5h  1 4.700000e-01    3.070000e+00
    P3   C6h  1 4.700000e-01    3.240000e+00
    P3   N1h  1 4.700000e-01    3.240000e+00
    P3   N2h  1 4.700000e-01    3.390000e+00
    P3   N3h  1 4.700000e-01    3.390000e+00
    P3   N4h  1 4.700000e-01    3.520000e+00
    P3   N5h  1 4.700000e-01    3.520000e+00
    P3   N6h  1 4.700000e-01    3.690000e+00
    P3   P1h  1 4.700000e-01    3.880000e+00
    P3   P2h  1 4.700000e-01    4.060000e+00
   P6r    P3  1 4.700000e-01    4.250000e+00
   P5r    P3  1 4.700000e-01    4.060000e+00
   P4r    P3  1 4.700000e-01    4.060000e+00
    P3   P3r  1 4.700000e-01    4.060000e+00
    P3  X1er  1 4.700000e-01    3.070000e+00
    P3  X2er  1 4.700000e-01    3.240000e+00
    P3  X3er  1 4.700000e-01    3.390000e+00
    P3  X4er  1 4.700000e-01    3.390000e+00
    P3  C1er  1 4.700000e-01    2.620000e+00
    P3  C2er  1 4.700000e-01    2.790000e+00
    P3  C3er  1 4.700000e-01    2.790000e+00
    P3  C4er  1 4.700000e-01    3.070000e+00
    P3  C5er  1 4.700000e-01    3.240000e+00
    P3  C6er  1 4.700000e-01    3.390000e+00
    P3  X1vr  1 4.700000e-01    3.070000e+00
    P3  X2vr  1 4.700000e-01    3.240000e+00
    P3  X3vr  1 4.700000e-01    3.390000e+00
    P3  X4vr  1 4.700000e-01    3.390000e+00
    P3  C1vr  1 4.700000e-01    2.620000e+00
    P3  C2vr  1 4.700000e-01    2.790000e+00
    P3  C3vr  1 4.700000e-01    2.790000e+00
    P3  C4vr  1 4.700000e-01    3.070000e+00
    P3  C5vr  1 4.700000e-01    3.240000e+00
    P3  C6vr  1 4.700000e-01    3.390000e+00
    P3  N1ar  1 4.700000e-01    3.240000e+00
    P3  N2ar  1 4.700000e-01    3.390000e+00
    P3  N3ar  1 4.700000e-01    3.390000e+00
    P3  N4ar  1 4.700000e-01    3.520000e+00
    P3  N5ar  1 4.700000e-01    3.520000e+00
    P3  N6ar  1 4.700000e-01    3.690000e+00
    P3  P1ar  1 4.700000e-01    3.880000e+00
    P3  P2ar  1 4.700000e-01    4.060000e+00
    P3  P3ar  1 4.700000e-01    4.060000e+00
  P4ar    P3  1 4.700000e-01    4.060000e+00
  P5ar    P3  1 4.700000e-01    4.060000e+00
  P6ar    P3  1 4.700000e-01    4.250000e+00
    P3  N1dr  1 4.700000e-01    3.240000e+00
    P3  N2dr  1 4.700000e-01    3.390000e+00
    P3  N3dr  1 4.700000e-01    3.390000e+00
    P3  N4dr  1 4.700000e-01    3.520000e+00
    P3  N5dr  1 4.700000e-01    3.520000e+00
    P3  N6dr  1 4.700000e-01    3.690000e+00
    P3  P1dr  1 4.700000e-01    3.880000e+00
    P3  P2dr  1 4.700000e-01    4.060000e+00
    P3  P3dr  1 4.700000e-01    4.060000e+00
  P4dr    P3  1 4.700000e-01    4.060000e+00
  P5dr    P3  1 4.700000e-01    4.060000e+00
  P6dr    P3  1 4.700000e-01    4.250000e+00
    P3   X1r  1 4.700000e-01    2.960000e+00
    P3   X2r  1 4.700000e-01    3.070000e+00
    P3   X3r  1 4.700000e-01    3.240000e+00
    P3   X4r  1 4.700000e-01    3.240000e+00
    P3   C1r  1 4.700000e-01    2.440000e+00
    P3   C2r  1 4.700000e-01    2.620000e+00
    P3   C3r  1 4.700000e-01    2.620000e+00
    P3   C4r  1 4.700000e-01    2.960000e+00
    P3   C5r  1 4.700000e-01    3.070000e+00
    P3   C6r  1 4.700000e-01    3.240000e+00
    P3   N1r  1 4.700000e-01    3.240000e+00
    P3   N2r  1 4.700000e-01    3.390000e+00
    P3   N3r  1 4.700000e-01    3.390000e+00
    P3   N4r  1 4.700000e-01    3.520000e+00
    P3   N5r  1 4.700000e-01    3.520000e+00
    P3   N6r  1 4.700000e-01    3.690000e+00
    P3   P1r  1 4.700000e-01    3.880000e+00
    P3   P2r  1 4.700000e-01    4.060000e+00
    P3   SP3  1 4.300000e-01    3.770000e+00
    P3   SP2  1 4.300000e-01    3.770000e+00
    P3   SP1  1 4.300000e-01    3.590000e+00
    P3   SN6  1 4.300000e-01    3.380000e+00
    P3   SN5  1 4.300000e-01    3.160000e+00
    P3   SN4  1 4.300000e-01    3.160000e+00
    P3   SN3  1 4.300000e-01    2.920000e+00
    P3   SN2  1 4.300000e-01    2.920000e+00
    P3   SN1  1 4.300000e-01    2.770000e+00
    P3   SC6  1 4.300000e-01    2.770000e+00
    P3   SC5  1 4.300000e-01    2.530000e+00
    P3   SC4  1 4.300000e-01    2.320000e+00
    P3   SC3  1 4.300000e-01    1.930000e+00
    P3   SC2  1 4.300000e-01    1.930000e+00
    P3   SC1  1 4.300000e-01    1.730000e+00
    P3   SX4  1 4.300000e-01    2.770000e+00
    P3   SX3  1 4.300000e-01    2.770000e+00
    P3   SX2  1 4.300000e-01    2.530000e+00
    P3   SX1  1 4.300000e-01    2.320000e+00
    P3  SP3d  1 4.300000e-01    3.770000e+00
    P3  SN1d  1 4.300000e-01    2.770000e+00
    P3  SN2d  1 4.300000e-01    2.920000e+00
    P3  SN3d  1 4.300000e-01    2.920000e+00
    P3  SN4d  1 4.300000e-01    3.160000e+00
    P3  SN5d  1 4.300000e-01    3.160000e+00
    P3  SN6d  1 4.300000e-01    3.380000e+00
    P3  SP1d  1 4.300000e-01    3.590000e+00
    P3  SP2d  1 4.300000e-01    3.770000e+00
    P3  SP3a  1 4.300000e-01    3.770000e+00
    P3  SN1a  1 4.300000e-01    2.770000e+00
    P3  SN2a  1 4.300000e-01    2.920000e+00
    P3  SN3a  1 4.300000e-01    2.920000e+00
    P3  SN4a  1 4.300000e-01    3.160000e+00
    P3  SN5a  1 4.300000e-01    3.160000e+00
    P3  SN6a  1 4.300000e-01    3.380000e+00
    P3  SP1a  1 4.300000e-01    3.590000e+00
    P3  SP2a  1 4.300000e-01    3.770000e+00
    P3  SC6v  1 4.300000e-01    2.920000e+00
    P3  SC5v  1 4.300000e-01    2.770000e+00
    P3  SC4v  1 4.300000e-01    2.530000e+00
    P3  SC3v  1 4.300000e-01    2.160000e+00
    P3  SC2v  1 4.300000e-01    2.160000e+00
    P3  SC1v  1 4.300000e-01    1.930000e+00
    P3  SX4v  1 4.300000e-01    2.920000e+00
    P3  SX3v  1 4.300000e-01    2.920000e+00
    P3  SX2v  1 4.300000e-01    2.770000e+00
    P3  SX1v  1 4.300000e-01    2.530000e+00
    P3  SC6e  1 4.300000e-01    2.920000e+00
    P3  SC5e  1 4.300000e-01    2.770000e+00
    P3  SC4e  1 4.300000e-01    2.530000e+00
    P3  SC3e  1 4.300000e-01    2.160000e+00
    P3  SC2e  1 4.300000e-01    2.160000e+00
    P3  SC1e  1 4.300000e-01    1.930000e+00
    P3  SX4e  1 4.300000e-01    2.920000e+00
    P3  SX3e  1 4.300000e-01    2.920000e+00
    P3  SX2e  1 4.300000e-01    2.770000e+00
    P3  SX1e  1 4.300000e-01    2.530000e+00
    P3  SP3q  1 4.300000e-01    4.170000e+00
    P3 SX1eq  1 4.300000e-01    2.920000e+00
    P3 SX2eq  1 4.300000e-01    3.160000e+00
    P3 SX3eq  1 4.300000e-01    3.380000e+00
    P3 SX4eq  1 4.300000e-01    3.380000e+00
    P3 SC1eq  1 4.300000e-01    2.320000e+00
    P3 SC2eq  1 4.300000e-01    2.530000e+00
    P3 SC3eq  1 4.300000e-01    2.530000e+00
    P3 SC4eq  1 4.300000e-01    2.920000e+00
    P3 SC5eq  1 4.300000e-01    3.160000e+00
    P3 SC6eq  1 4.300000e-01    3.380000e+00
    P3 SX1vq  1 4.300000e-01    2.920000e+00
    P3 SX2vq  1 4.300000e-01    3.160000e+00
    P3 SX3vq  1 4.300000e-01    3.380000e+00
    P3 SX4vq  1 4.300000e-01    3.380000e+00
    P3 SC1vq  1 4.300000e-01    2.320000e+00
    P3 SC2vq  1 4.300000e-01    2.530000e+00
    P3 SC3vq  1 4.300000e-01    2.530000e+00
    P3 SC4vq  1 4.300000e-01    2.920000e+00
    P3 SC5vq  1 4.300000e-01    3.160000e+00
    P3 SC6vq  1 4.300000e-01    3.380000e+00
    P3 SN1aq  1 4.300000e-01    3.160000e+00
    P3 SN2aq  1 4.300000e-01    3.380000e+00
    P3 SN3aq  1 4.300000e-01    3.380000e+00
    P3 SN4aq  1 4.300000e-01    3.590000e+00
    P3 SN5aq  1 4.300000e-01    3.590000e+00
    P3 SN6aq  1 4.300000e-01    3.770000e+00
    P3 SP1aq  1 4.300000e-01    3.970000e+00
    P3 SP2aq  1 4.300000e-01    4.170000e+00
    P3 SP3aq  1 4.300000e-01    4.170000e+00
    P3 SN1dq  1 4.300000e-01    3.160000e+00
    P3 SN2dq  1 4.300000e-01    3.380000e+00
    P3 SN3dq  1 4.300000e-01    3.380000e+00
    P3 SN4dq  1 4.300000e-01    3.590000e+00
    P3 SN5dq  1 4.300000e-01    3.590000e+00
    P3 SN6dq  1 4.300000e-01    3.770000e+00
    P3 SP1dq  1 4.300000e-01    3.970000e+00
    P3 SP2dq  1 4.300000e-01    4.170000e+00
    P3 SP3dq  1 4.300000e-01    4.170000e+00
    P3  SX1q  1 4.300000e-01    2.770000e+00
    P3  SX2q  1 4.300000e-01    2.920000e+00
    P3  SX3q  1 4.300000e-01    3.160000e+00
    P3  SX4q  1 4.300000e-01    3.160000e+00
    P3  SC1q  1 4.300000e-01    2.160000e+00
    P3  SC2q  1 4.300000e-01    2.320000e+00
    P3  SC3q  1 4.300000e-01    2.320000e+00
    P3  SC4q  1 4.300000e-01    2.770000e+00
    P3  SC5q  1 4.300000e-01    2.920000e+00
    P3  SC6q  1 4.300000e-01    3.160000e+00
    P3  SN1q  1 4.300000e-01    3.160000e+00
    P3  SN2q  1 4.300000e-01    3.380000e+00
    P3  SN3q  1 4.300000e-01    3.380000e+00
    P3  SN4q  1 4.300000e-01    3.590000e+00
    P3  SN5q  1 4.300000e-01    3.590000e+00
    P3  SN6q  1 4.300000e-01    3.770000e+00
    P3  SP1q  1 4.300000e-01    3.970000e+00
    P3  SP2q  1 4.300000e-01    4.170000e+00
    P3  SP3h  1 4.300000e-01    3.770000e+00
    P3 SX1eh  1 4.300000e-01    2.530000e+00
    P3 SX2eh  1 4.300000e-01    2.770000e+00
    P3 SX3eh  1 4.300000e-01    2.920000e+00
    P3 SX4eh  1 4.300000e-01    2.920000e+00
    P3 SC1eh  1 4.300000e-01    1.930000e+00
    P3 SC2eh  1 4.300000e-01    2.160000e+00
    P3 SC3eh  1 4.300000e-01    2.160000e+00
    P3 SC4eh  1 4.300000e-01    2.530000e+00
    P3 SC5eh  1 4.300000e-01    2.770000e+00
    P3 SC6eh  1 4.300000e-01    2.920000e+00
    P3 SX1vh  1 4.300000e-01    2.530000e+00
    P3 SX2vh  1 4.300000e-01    2.770000e+00
    P3 SX3vh  1 4.300000e-01    2.920000e+00
    P3 SX4vh  1 4.300000e-01    2.920000e+00
    P3 SC1vh  1 4.300000e-01    1.930000e+00
    P3 SC2vh  1 4.300000e-01    2.160000e+00
    P3 SC3vh  1 4.300000e-01    2.160000e+00
    P3 SC4vh  1 4.300000e-01    2.530000e+00
    P3 SC5vh  1 4.300000e-01    2.770000e+00
    P3 SC6vh  1 4.300000e-01    2.920000e+00
    P3 SN1ah  1 4.300000e-01    2.770000e+00
    P3 SN2ah  1 4.300000e-01    2.920000e+00
    P3 SN3ah  1 4.300000e-01    2.920000e+00
    P3 SN4ah  1 4.300000e-01    3.160000e+00
    P3 SN5ah  1 4.300000e-01    3.160000e+00
    P3 SN6ah  1 4.300000e-01    3.380000e+00
    P3 SP1ah  1 4.300000e-01    3.590000e+00
    P3 SP2ah  1 4.300000e-01    3.770000e+00
    P3 SP3ah  1 4.300000e-01    3.770000e+00
    P3 SN1dh  1 4.300000e-01    2.770000e+00
    P3 SN2dh  1 4.300000e-01    2.920000e+00
    P3 SN3dh  1 4.300000e-01    2.920000e+00
    P3 SN4dh  1 4.300000e-01    3.160000e+00
    P3 SN5dh  1 4.300000e-01    3.160000e+00
    P3 SN6dh  1 4.300000e-01    3.380000e+00
    P3 SP1dh  1 4.300000e-01    3.590000e+00
    P3 SP2dh  1 4.300000e-01    3.770000e+00
    P3 SP3dh  1 4.300000e-01    3.770000e+00
    P3  SX1h  1 4.300000e-01    2.320000e+00
    P3  SX2h  1 4.300000e-01    2.530000e+00
    P3  SX3h  1 4.300000e-01    2.770000e+00
    P3  SX4h  1 4.300000e-01    2.770000e+00
    P3  SC1h  1 4.300000e-01    1.730000e+00
    P3  SC2h  1 4.300000e-01    1.930000e+00
    P3  SC3h  1 4.300000e-01    1.930000e+00
    P3  SC4h  1 4.300000e-01    2.320000e+00
    P3  SC5h  1 4.300000e-01    2.530000e+00
    P3  SC6h  1 4.300000e-01    2.770000e+00
    P3  SN1h  1 4.300000e-01    2.770000e+00
    P3  SN2h  1 4.300000e-01    2.920000e+00
    P3  SN3h  1 4.300000e-01    2.920000e+00
    P3  SN4h  1 4.300000e-01    3.160000e+00
    P3  SN5h  1 4.300000e-01    3.160000e+00
    P3  SN6h  1 4.300000e-01    3.380000e+00
    P3  SP1h  1 4.300000e-01    3.590000e+00
    P3  SP2h  1 4.300000e-01    3.770000e+00
    P3  SP3r  1 4.300000e-01    3.770000e+00
    P3 SX1er  1 4.300000e-01    2.530000e+00
    P3 SX2er  1 4.300000e-01    2.770000e+00
    P3 SX3er  1 4.300000e-01    2.920000e+00
    P3 SX4er  1 4.300000e-01    2.920000e+00
    P3 SC1er  1 4.300000e-01    1.930000e+00
    P3 SC2er  1 4.300000e-01    2.160000e+00
    P3 SC3er  1 4.300000e-01    2.160000e+00
    P3 SC4er  1 4.300000e-01    2.530000e+00
    P3 SC5er  1 4.300000e-01    2.770000e+00
    P3 SC6er  1 4.300000e-01    2.920000e+00
    P3 SX1vr  1 4.300000e-01    2.530000e+00
    P3 SX2vr  1 4.300000e-01    2.770000e+00
    P3 SX3vr  1 4.300000e-01    2.920000e+00
    P3 SX4vr  1 4.300000e-01    2.920000e+00
    P3 SC1vr  1 4.300000e-01    1.930000e+00
    P3 SC2vr  1 4.300000e-01    2.160000e+00
    P3 SC3vr  1 4.300000e-01    2.160000e+00
    P3 SC4vr  1 4.300000e-01    2.530000e+00
    P3 SC5vr  1 4.300000e-01    2.770000e+00
    P3 SC6vr  1 4.300000e-01    2.920000e+00
    P3 SN1ar  1 4.300000e-01    2.770000e+00
    P3 SN2ar  1 4.300000e-01    2.920000e+00
    P3 SN3ar  1 4.300000e-01    2.920000e+00
    P3 SN4ar  1 4.300000e-01    3.160000e+00
    P3 SN5ar  1 4.300000e-01    3.160000e+00
    P3 SN6ar  1 4.300000e-01    3.380000e+00
    P3 SP1ar  1 4.300000e-01    3.590000e+00
    P3 SP2ar  1 4.300000e-01    3.770000e+00
    P3 SP3ar  1 4.300000e-01    3.770000e+00
    P3 SN1dr  1 4.300000e-01    2.770000e+00
    P3 SN2dr  1 4.300000e-01    2.920000e+00
    P3 SN3dr  1 4.300000e-01    2.920000e+00
    P3 SN4dr  1 4.300000e-01    3.160000e+00
    P3 SN5dr  1 4.300000e-01    3.160000e+00
    P3 SN6dr  1 4.300000e-01    3.380000e+00
    P3 SP1dr  1 4.300000e-01    3.590000e+00
    P3 SP2dr  1 4.300000e-01    3.770000e+00
    P3 SP3dr  1 4.300000e-01    3.770000e+00
    P3  SX1r  1 4.300000e-01    2.320000e+00
    P3  SX2r  1 4.300000e-01    2.530000e+00
    P3  SX3r  1 4.300000e-01    2.770000e+00
    P3  SX4r  1 4.300000e-01    2.770000e+00
    P3  SC1r  1 4.300000e-01    1.730000e+00
    P3  SC2r  1 4.300000e-01    1.930000e+00
    P3  SC3r  1 4.300000e-01    1.930000e+00
    P3  SC4r  1 4.300000e-01    2.320000e+00
    P3  SC5r  1 4.300000e-01    2.530000e+00
    P3  SC6r  1 4.300000e-01    2.770000e+00
    P3  SN1r  1 4.300000e-01    2.770000e+00
    P3  SN2r  1 4.300000e-01    2.920000e+00
    P3  SN3r  1 4.300000e-01    2.920000e+00
    P3  SN4r  1 4.300000e-01    3.160000e+00
    P3  SN5r  1 4.300000e-01    3.160000e+00
    P3  SN6r  1 4.300000e-01    3.380000e+00
    P3  SP1r  1 4.300000e-01    3.590000e+00
    P3  SP2r  1 4.300000e-01    3.770000e+00
  SP6d    P3  1 4.300000e-01    3.970000e+00
  SP5d    P3  1 4.300000e-01    3.770000e+00
  SP4d    P3  1 4.300000e-01    3.770000e+00
  SP6a    P3  1 4.300000e-01    3.970000e+00
  SP5a    P3  1 4.300000e-01    3.770000e+00
  SP4a    P3  1 4.300000e-01    3.770000e+00
  SP6q    P3  1 4.300000e-01    4.400000e+00
  SP5q    P3  1 4.300000e-01    4.170000e+00
  SP4q    P3  1 4.300000e-01    4.170000e+00
 SP4aq    P3  1 4.300000e-01    4.170000e+00
 SP5aq    P3  1 4.300000e-01    4.170000e+00
 SP6aq    P3  1 4.300000e-01    4.400000e+00
 SP4dq    P3  1 4.300000e-01    4.170000e+00
 SP5dq    P3  1 4.300000e-01    4.170000e+00
 SP6dq    P3  1 4.300000e-01    4.400000e+00
  SP6h    P3  1 4.300000e-01    3.970000e+00
  SP5h    P3  1 4.300000e-01    3.770000e+00
  SP4h    P3  1 4.300000e-01    3.770000e+00
 SP4ah    P3  1 4.300000e-01    3.770000e+00
 SP5ah    P3  1 4.300000e-01    3.770000e+00
 SP6ah    P3  1 4.300000e-01    3.970000e+00
 SP4dh    P3  1 4.300000e-01    3.770000e+00
 SP5dh    P3  1 4.300000e-01    3.770000e+00
 SP6dh    P3  1 4.300000e-01    3.970000e+00
  SP6r    P3  1 4.300000e-01    3.970000e+00
  SP5r    P3  1 4.300000e-01    3.770000e+00
  SP4r    P3  1 4.300000e-01    3.770000e+00
 SP4ar    P3  1 4.300000e-01    3.770000e+00
 SP5ar    P3  1 4.300000e-01    3.770000e+00
 SP6ar    P3  1 4.300000e-01    3.970000e+00
 SP4dr    P3  1 4.300000e-01    3.770000e+00
 SP5dr    P3  1 4.300000e-01    3.770000e+00
 SP6dr    P3  1 4.300000e-01    3.970000e+00
    P3   TP3  1 3.950000e-01    3.190000e+00
    P3   TP2  1 3.950000e-01    3.190000e+00
    P3   TP1  1 3.950000e-01    2.940000e+00
    P3   TN6  1 3.950000e-01    2.700000e+00
    P3   TN5  1 3.950000e-01    2.500000e+00
    P3   TN4  1 3.950000e-01    2.500000e+00
    P3   TN3  1 3.950000e-01    2.310000e+00
    P3   TN2  1 3.950000e-01    2.310000e+00
    P3   TN1  1 3.950000e-01    2.110000e+00
    P3   TC6  1 3.950000e-01    2.110000e+00
    P3   TC5  1 3.950000e-01    1.850000e+00
    P3   TC4  1 3.950000e-01    1.670000e+00
    P3   TC3  1 3.990000e-01    1.180000e+00
    P3   TC2  1 3.990000e-01    1.180000e+00
    P3   TC1  1 4.010000e-01    9.830000e-01
    P3   TX4  1 3.950000e-01    2.110000e+00
    P3   TX3  1 3.950000e-01    2.110000e+00
    P3   TX2  1 3.950000e-01    1.850000e+00
    P3   TX1  1 3.950000e-01    1.670000e+00
    P3  TP3d  1 3.950000e-01    3.190000e+00
    P3  TN1d  1 3.950000e-01    2.110000e+00
    P3  TN2d  1 3.950000e-01    2.310000e+00
    P3  TN3d  1 3.950000e-01    2.310000e+00
    P3  TN4d  1 3.950000e-01    2.500000e+00
    P3  TN5d  1 3.950000e-01    2.500000e+00
    P3  TN6d  1 3.950000e-01    2.700000e+00
    P3  TP1d  1 3.950000e-01    2.940000e+00
    P3  TP2d  1 3.950000e-01    3.190000e+00
    P3  TP3a  1 3.950000e-01    3.190000e+00
    P3  TN1a  1 3.950000e-01    2.110000e+00
    P3  TN2a  1 3.950000e-01    2.310000e+00
    P3  TN3a  1 3.950000e-01    2.310000e+00
    P3  TN4a  1 3.950000e-01    2.500000e+00
    P3  TN5a  1 3.950000e-01    2.500000e+00
    P3  TN6a  1 3.950000e-01    2.700000e+00
    P3  TP1a  1 3.950000e-01    2.940000e+00
    P3  TP2a  1 3.950000e-01    3.190000e+00
    P3  TC6v  1 3.950000e-01    2.310000e+00
    P3  TC5v  1 3.950000e-01    2.110000e+00
    P3  TC4v  1 3.950000e-01    1.850000e+00
    P3  TC3v  1 3.980000e-01    1.450000e+00
    P3  TC2v  1 3.980000e-01    1.450000e+00
    P3  TC1v  1 3.990000e-01    1.180000e+00
    P3  TX4v  1 3.950000e-01    2.310000e+00
    P3  TX3v  1 3.950000e-01    2.310000e+00
    P3  TX2v  1 3.950000e-01    2.110000e+00
    P3  TX1v  1 3.950000e-01    1.850000e+00
    P3  TC6e  1 3.950000e-01    2.310000e+00
    P3  TC5e  1 3.950000e-01    2.110000e+00
    P3  TC4e  1 3.950000e-01    1.850000e+00
    P3  TC3e  1 3.980000e-01    1.450000e+00
    P3  TC2e  1 3.980000e-01    1.450000e+00
    P3  TC1e  1 3.990000e-01    1.180000e+00
    P3  TX4e  1 3.950000e-01    2.310000e+00
    P3  TX3e  1 3.950000e-01    2.310000e+00
    P3  TX2e  1 3.950000e-01    2.110000e+00
    P3  TX1e  1 3.950000e-01    1.850000e+00
    P3  TP3q  1 3.950000e-01    3.670000e+00
    P3 TX1eq  1 3.950000e-01    2.310000e+00
    P3 TX2eq  1 3.950000e-01    2.500000e+00
    P3 TX3eq  1 3.950000e-01    2.700000e+00
    P3 TX4eq  1 3.950000e-01    2.700000e+00
    P3 TC1eq  1 3.950000e-01    1.670000e+00
    P3 TC2eq  1 3.950000e-01    1.850000e+00
    P3 TC3eq  1 3.950000e-01    1.850000e+00
    P3 TC4eq  1 3.950000e-01    2.310000e+00
    P3 TC5eq  1 3.950000e-01    2.500000e+00
    P3 TC6eq  1 3.950000e-01    2.700000e+00
    P3 TX1vq  1 3.950000e-01    2.310000e+00
    P3 TX2vq  1 3.950000e-01    2.500000e+00
    P3 TX3vq  1 3.950000e-01    2.700000e+00
    P3 TX4vq  1 3.950000e-01    2.700000e+00
    P3 TC1vq  1 3.950000e-01    1.670000e+00
    P3 TC2vq  1 3.950000e-01    1.850000e+00
    P3 TC3vq  1 3.950000e-01    1.850000e+00
    P3 TC4vq  1 3.950000e-01    2.310000e+00
    P3 TC5vq  1 3.950000e-01    2.500000e+00
    P3 TC6vq  1 3.950000e-01    2.700000e+00
    P3 TN1aq  1 3.950000e-01    2.500000e+00
    P3 TN2aq  1 3.950000e-01    2.700000e+00
    P3 TN3aq  1 3.950000e-01    2.700000e+00
    P3 TN4aq  1 3.950000e-01    2.940000e+00
    P3 TN5aq  1 3.950000e-01    2.940000e+00
    P3 TN6aq  1 3.950000e-01    3.190000e+00
    P3 TP1aq  1 3.950000e-01    3.430000e+00
    P3 TP2aq  1 3.950000e-01    3.670000e+00
    P3 TP3aq  1 3.950000e-01    3.670000e+00
    P3 TN1dq  1 3.950000e-01    2.500000e+00
    P3 TN2dq  1 3.950000e-01    2.700000e+00
    P3 TN3dq  1 3.950000e-01    2.700000e+00
    P3 TN4dq  1 3.950000e-01    2.940000e+00
    P3 TN5dq  1 3.950000e-01    2.940000e+00
    P3 TN6dq  1 3.950000e-01    3.190000e+00
    P3 TP1dq  1 3.950000e-01    3.430000e+00
    P3 TP2dq  1 3.950000e-01    3.670000e+00
    P3 TP3dq  1 3.950000e-01    3.670000e+00
    P3  TX1q  1 3.950000e-01    2.110000e+00
    P3  TX2q  1 3.950000e-01    2.310000e+00
    P3  TX3q  1 3.950000e-01    2.500000e+00
    P3  TX4q  1 3.950000e-01    2.500000e+00
    P3  TC1q  1 3.980000e-01    1.450000e+00
    P3  TC2q  1 3.950000e-01    1.670000e+00
    P3  TC3q  1 3.950000e-01    1.670000e+00
    P3  TC4q  1 3.950000e-01    2.110000e+00
    P3  TC5q  1 3.950000e-01    2.310000e+00
    P3  TC6q  1 3.950000e-01    2.500000e+00
    P3  TN1q  1 3.950000e-01    2.500000e+00
    P3  TN2q  1 3.950000e-01    2.700000e+00
    P3  TN3q  1 3.950000e-01    2.700000e+00
    P3  TN4q  1 3.950000e-01    2.940000e+00
    P3  TN5q  1 3.950000e-01    2.940000e+00
    P3  TN6q  1 3.950000e-01    3.190000e+00
    P3  TP1q  1 3.950000e-01    3.430000e+00
    P3  TP2q  1 3.950000e-01    3.670000e+00
    P3  TP3h  1 3.950000e-01    3.190000e+00
    P3 TX1eh  1 3.950000e-01    1.850000e+00
    P3 TX2eh  1 3.950000e-01    2.110000e+00
    P3 TX3eh  1 3.950000e-01    2.310000e+00
    P3 TX4eh  1 3.950000e-01    2.310000e+00
    P3 TC1eh  1 3.990000e-01    1.180000e+00
    P3 TC2eh  1 3.980000e-01    1.450000e+00
    P3 TC3eh  1 3.980000e-01    1.450000e+00
    P3 TC4eh  1 3.950000e-01    1.850000e+00
    P3 TC5eh  1 3.950000e-01    2.110000e+00
    P3 TC6eh  1 3.950000e-01    2.310000e+00
    P3 TX1vh  1 3.950000e-01    1.850000e+00
    P3 TX2vh  1 3.950000e-01    2.110000e+00
    P3 TX3vh  1 3.950000e-01    2.310000e+00
    P3 TX4vh  1 3.950000e-01    2.310000e+00
    P3 TC1vh  1 3.990000e-01    1.180000e+00
    P3 TC2vh  1 3.980000e-01    1.450000e+00
    P3 TC3vh  1 3.980000e-01    1.450000e+00
    P3 TC4vh  1 3.950000e-01    1.850000e+00
    P3 TC5vh  1 3.950000e-01    2.110000e+00
    P3 TC6vh  1 3.950000e-01    2.310000e+00
    P3 TN1ah  1 3.950000e-01    2.110000e+00
    P3 TN2ah  1 3.950000e-01    2.310000e+00
    P3 TN3ah  1 3.950000e-01    2.310000e+00
    P3 TN4ah  1 3.950000e-01    2.500000e+00
    P3 TN5ah  1 3.950000e-01    2.500000e+00
    P3 TN6ah  1 3.950000e-01    2.700000e+00
    P3 TP1ah  1 3.950000e-01    2.940000e+00
    P3 TP2ah  1 3.950000e-01    3.190000e+00
    P3 TP3ah  1 3.950000e-01    3.190000e+00
    P3 TN1dh  1 3.950000e-01    2.110000e+00
    P3 TN2dh  1 3.950000e-01    2.310000e+00
    P3 TN3dh  1 3.950000e-01    2.310000e+00
    P3 TN4dh  1 3.950000e-01    2.500000e+00
    P3 TN5dh  1 3.950000e-01    2.500000e+00
    P3 TN6dh  1 3.950000e-01    2.700000e+00
    P3 TP1dh  1 3.950000e-01    2.940000e+00
    P3 TP2dh  1 3.950000e-01    3.190000e+00
    P3 TP3dh  1 3.950000e-01    3.190000e+00
    P3  TX1h  1 3.950000e-01    1.670000e+00
    P3  TX2h  1 3.950000e-01    1.850000e+00
    P3  TX3h  1 3.950000e-01    2.110000e+00
    P3  TX4h  1 3.950000e-01    2.110000e+00
    P3  TC1h  1 4.010000e-01    9.830000e-01
    P3  TC2h  1 3.990000e-01    1.180000e+00
    P3  TC3h  1 3.990000e-01    1.180000e+00
    P3  TC4h  1 3.950000e-01    1.670000e+00
    P3  TC5h  1 3.950000e-01    1.850000e+00
    P3  TC6h  1 3.950000e-01    2.110000e+00
    P3  TN1h  1 3.950000e-01    2.110000e+00
    P3  TN2h  1 3.950000e-01    2.310000e+00
    P3  TN3h  1 3.950000e-01    2.310000e+00
    P3  TN4h  1 3.950000e-01    2.500000e+00
    P3  TN5h  1 3.950000e-01    2.500000e+00
    P3  TN6h  1 3.950000e-01    2.700000e+00
    P3  TP1h  1 3.950000e-01    2.940000e+00
    P3  TP2h  1 3.950000e-01    3.190000e+00
    P3  TP3r  1 3.950000e-01    3.190000e+00
    P3 TX1er  1 3.950000e-01    1.850000e+00
    P3 TX2er  1 3.950000e-01    2.110000e+00
    P3 TX3er  1 3.950000e-01    2.310000e+00
    P3 TX4er  1 3.950000e-01    2.310000e+00
    P3 TC1er  1 3.990000e-01    1.180000e+00
    P3 TC2er  1 3.980000e-01    1.450000e+00
    P3 TC3er  1 3.980000e-01    1.450000e+00
    P3 TC4er  1 3.950000e-01    1.850000e+00
    P3 TC5er  1 3.950000e-01    2.110000e+00
    P3 TC6er  1 3.950000e-01    2.310000e+00
    P3 TX1vr  1 3.950000e-01    1.850000e+00
    P3 TX2vr  1 3.950000e-01    2.110000e+00
    P3 TX3vr  1 3.950000e-01    2.310000e+00
    P3 TX4vr  1 3.950000e-01    2.310000e+00
    P3 TC1vr  1 3.990000e-01    1.180000e+00
    P3 TC2vr  1 3.980000e-01    1.450000e+00
    P3 TC3vr  1 3.980000e-01    1.450000e+00
    P3 TC4vr  1 3.950000e-01    1.850000e+00
    P3 TC5vr  1 3.950000e-01    2.110000e+00
    P3 TC6vr  1 3.950000e-01    2.310000e+00
    P3 TN1ar  1 3.950000e-01    2.110000e+00
    P3 TN2ar  1 3.950000e-01    2.310000e+00
    P3 TN3ar  1 3.950000e-01    2.310000e+00
    P3 TN4ar  1 3.950000e-01    2.500000e+00
    P3 TN5ar  1 3.950000e-01    2.500000e+00
    P3 TN6ar  1 3.950000e-01    2.700000e+00
    P3 TP1ar  1 3.950000e-01    2.940000e+00
    P3 TP2ar  1 3.950000e-01    3.190000e+00
    P3 TP3ar  1 3.950000e-01    3.190000e+00
    P3 TN1dr  1 3.950000e-01    2.110000e+00
    P3 TN2dr  1 3.950000e-01    2.310000e+00
    P3 TN3dr  1 3.950000e-01    2.310000e+00
    P3 TN4dr  1 3.950000e-01    2.500000e+00
    P3 TN5dr  1 3.950000e-01    2.500000e+00
    P3 TN6dr  1 3.950000e-01    2.700000e+00
    P3 TP1dr  1 3.950000e-01    2.940000e+00
    P3 TP2dr  1 3.950000e-01    3.190000e+00
    P3 TP3dr  1 3.950000e-01    3.190000e+00
    P3  TX1r  1 3.950000e-01    1.670000e+00
    P3  TX2r  1 3.950000e-01    1.850000e+00
    P3  TX3r  1 3.950000e-01    2.110000e+00
    P3  TX4r  1 3.950000e-01    2.110000e+00
    P3  TC1r  1 4.010000e-01    9.830000e-01
    P3  TC2r  1 3.990000e-01    1.180000e+00
    P3  TC3r  1 3.990000e-01    1.180000e+00
    P3  TC4r  1 3.950000e-01    1.670000e+00
    P3  TC5r  1 3.950000e-01    1.850000e+00
    P3  TC6r  1 3.950000e-01    2.110000e+00
    P3  TN1r  1 3.950000e-01    2.110000e+00
    P3  TN2r  1 3.950000e-01    2.310000e+00
    P3  TN3r  1 3.950000e-01    2.310000e+00
    P3  TN4r  1 3.950000e-01    2.500000e+00
    P3  TN5r  1 3.950000e-01    2.500000e+00
    P3  TN6r  1 3.950000e-01    2.700000e+00
    P3  TP1r  1 3.950000e-01    2.940000e+00
    P3  TP2r  1 3.950000e-01    3.190000e+00
  TP6d    P3  1 3.950000e-01    3.430000e+00
  TP5d    P3  1 3.950000e-01    3.190000e+00
  TP4d    P3  1 3.950000e-01    3.190000e+00
  TP6a    P3  1 3.950000e-01    3.430000e+00
  TP5a    P3  1 3.950000e-01    3.190000e+00
  TP4a    P3  1 3.950000e-01    3.190000e+00
  TP6q    P3  1 3.950000e-01    3.910000e+00
  TP5q    P3  1 3.950000e-01    3.670000e+00
  TP4q    P3  1 3.950000e-01    3.670000e+00
 TP4aq    P3  1 3.950000e-01    3.670000e+00
 TP5aq    P3  1 3.950000e-01    3.670000e+00
 TP6aq    P3  1 3.950000e-01    3.910000e+00
 TP4dq    P3  1 3.950000e-01    3.670000e+00
 TP5dq    P3  1 3.950000e-01    3.670000e+00
 TP6dq    P3  1 3.950000e-01    3.910000e+00
  TP6h    P3  1 3.950000e-01    3.430000e+00
  TP5h    P3  1 3.950000e-01    3.190000e+00
  TP4h    P3  1 3.950000e-01    3.190000e+00
 TP4ah    P3  1 3.950000e-01    3.190000e+00
 TP5ah    P3  1 3.950000e-01    3.190000e+00
 TP6ah    P3  1 3.950000e-01    3.430000e+00
 TP4dh    P3  1 3.950000e-01    3.190000e+00
 TP5dh    P3  1 3.950000e-01    3.190000e+00
 TP6dh    P3  1 3.950000e-01    3.430000e+00
  TP6r    P3  1 3.950000e-01    3.430000e+00
  TP5r    P3  1 3.950000e-01    3.190000e+00
  TP4r    P3  1 3.950000e-01    3.190000e+00
 TP4ar    P3  1 3.950000e-01    3.190000e+00
 TP5ar    P3  1 3.950000e-01    3.190000e+00
 TP6ar    P3  1 3.950000e-01    3.430000e+00
 TP4dr    P3  1 3.950000e-01    3.190000e+00
 TP5dr    P3  1 3.950000e-01    3.190000e+00
 TP6dr    P3  1 3.950000e-01    3.430000e+00
   P6d   SP3  1 4.300000e-01    3.970000e+00
   P5d   SP3  1 4.300000e-01    3.770000e+00
   P4d   SP3  1 4.300000e-01    3.770000e+00
   P6a   SP3  1 4.300000e-01    3.970000e+00
   P5a   SP3  1 4.300000e-01    3.770000e+00
   P4a   SP3  1 4.300000e-01    3.770000e+00
   P6q   SP3  1 4.300000e-01    4.400000e+00
   P5q   SP3  1 4.300000e-01    4.170000e+00
   P4q   SP3  1 4.300000e-01    4.170000e+00
  P4aq   SP3  1 4.300000e-01    4.170000e+00
  P5aq   SP3  1 4.300000e-01    4.170000e+00
  P6aq   SP3  1 4.300000e-01    4.400000e+00
  P4dq   SP3  1 4.300000e-01    4.170000e+00
  P5dq   SP3  1 4.300000e-01    4.170000e+00
  P6dq   SP3  1 4.300000e-01    4.400000e+00
   P6h   SP3  1 4.300000e-01    3.970000e+00
   P5h   SP3  1 4.300000e-01    3.770000e+00
   P4h   SP3  1 4.300000e-01    3.770000e+00
  P4ah   SP3  1 4.300000e-01    3.770000e+00
  P5ah   SP3  1 4.300000e-01    3.770000e+00
  P6ah   SP3  1 4.300000e-01    3.970000e+00
  P4dh   SP3  1 4.300000e-01    3.770000e+00
  P5dh   SP3  1 4.300000e-01    3.770000e+00
  P6dh   SP3  1 4.300000e-01    3.970000e+00
   P6r   SP3  1 4.300000e-01    3.970000e+00
   P5r   SP3  1 4.300000e-01    3.770000e+00
   P4r   SP3  1 4.300000e-01    3.770000e+00
  P4ar   SP3  1 4.300000e-01    3.770000e+00
  P5ar   SP3  1 4.300000e-01    3.770000e+00
  P6ar   SP3  1 4.300000e-01    3.970000e+00
  P4dr   SP3  1 4.300000e-01    3.770000e+00
  P5dr   SP3  1 4.300000e-01    3.770000e+00
  P6dr   SP3  1 4.300000e-01    3.970000e+00
   SP3    P2  1 4.300000e-01    3.770000e+00
   SP3    P1  1 4.300000e-01    3.590000e+00
   SP3    N6  1 4.300000e-01    3.380000e+00
   SP3    N5  1 4.300000e-01    3.160000e+00
   SP3    N4  1 4.300000e-01    3.160000e+00
   SP3    N3  1 4.300000e-01    2.920000e+00
   SP3    N2  1 4.300000e-01    2.920000e+00
   SP3    N1  1 4.300000e-01    2.770000e+00
   SP3    C6  1 4.300000e-01    2.770000e+00
   SP3    C5  1 4.300000e-01    2.530000e+00
   SP3    C4  1 4.300000e-01    2.320000e+00
   SP3    C3  1 4.300000e-01    1.930000e+00
   SP3    C2  1 4.300000e-01    1.930000e+00
   SP3    C1  1 4.300000e-01    1.730000e+00
   SP3    X4  1 4.300000e-01    2.770000e+00
   SP3    X3  1 4.300000e-01    2.770000e+00
   SP3    X2  1 4.300000e-01    2.530000e+00
   SP3    X1  1 4.300000e-01    2.320000e+00
   SP3   P3d  1 4.300000e-01    3.770000e+00
   SP3   N1d  1 4.300000e-01    2.770000e+00
   SP3   N2d  1 4.300000e-01    2.920000e+00
   SP3   N3d  1 4.300000e-01    2.920000e+00
   SP3   N4d  1 4.300000e-01    3.160000e+00
   SP3   N5d  1 4.300000e-01    3.160000e+00
   SP3   N6d  1 4.300000e-01    3.380000e+00
   SP3   P1d  1 4.300000e-01    3.590000e+00
   SP3   P2d  1 4.300000e-01    3.770000e+00
   SP3   P3a  1 4.300000e-01    3.770000e+00
   SP3   N1a  1 4.300000e-01    2.770000e+00
   SP3   N2a  1 4.300000e-01    2.920000e+00
   SP3   N3a  1 4.300000e-01    2.920000e+00
   SP3   N4a  1 4.300000e-01    3.160000e+00
   SP3   N5a  1 4.300000e-01    3.160000e+00
   SP3   N6a  1 4.300000e-01    3.380000e+00
   SP3   P1a  1 4.300000e-01    3.590000e+00
   SP3   P2a  1 4.300000e-01    3.770000e+00
   SP3   C6v  1 4.300000e-01    2.920000e+00
   SP3   C5v  1 4.300000e-01    2.770000e+00
   SP3   C4v  1 4.300000e-01    2.530000e+00
   SP3   C3v  1 4.300000e-01    2.160000e+00
   SP3   C2v  1 4.300000e-01    2.160000e+00
   SP3   C1v  1 4.300000e-01    1.930000e+00
   SP3   X4v  1 4.300000e-01    2.920000e+00
   SP3   X3v  1 4.300000e-01    2.920000e+00
   SP3   X2v  1 4.300000e-01    2.770000e+00
   SP3   X1v  1 4.300000e-01    2.530000e+00
   SP3   C6e  1 4.300000e-01    2.920000e+00
   SP3   C5e  1 4.300000e-01    2.770000e+00
   SP3   C4e  1 4.300000e-01    2.530000e+00
   SP3   C3e  1 4.300000e-01    2.160000e+00
   SP3   C2e  1 4.300000e-01    2.160000e+00
   SP3   C1e  1 4.300000e-01    1.930000e+00
   SP3   X4e  1 4.300000e-01    2.920000e+00
   SP3   X3e  1 4.300000e-01    2.920000e+00
   SP3   X2e  1 4.300000e-01    2.770000e+00
   SP3   X1e  1 4.300000e-01    2.530000e+00
   SP3   P3q  1 4.300000e-01    4.170000e+00
   SP3  X1eq  1 4.300000e-01    2.920000e+00
   SP3  X2eq  1 4.300000e-01    3.160000e+00
   SP3  X3eq  1 4.300000e-01    3.380000e+00
   SP3  X4eq  1 4.300000e-01    3.380000e+00
   SP3  C1eq  1 4.300000e-01    2.320000e+00
   SP3  C2eq  1 4.300000e-01    2.530000e+00
   SP3  C3eq  1 4.300000e-01    2.530000e+00
   SP3  C4eq  1 4.300000e-01    2.920000e+00
   SP3  C5eq  1 4.300000e-01    3.160000e+00
   SP3  C6eq  1 4.300000e-01    3.380000e+00
   SP3  X1vq  1 4.300000e-01    2.920000e+00
   SP3  X2vq  1 4.300000e-01    3.160000e+00
   SP3  X3vq  1 4.300000e-01    3.380000e+00
   SP3  X4vq  1 4.300000e-01    3.380000e+00
   SP3  C1vq  1 4.300000e-01    2.320000e+00
   SP3  C2vq  1 4.300000e-01    2.530000e+00
   SP3  C3vq  1 4.300000e-01    2.530000e+00
   SP3  C4vq  1 4.300000e-01    2.920000e+00
   SP3  C5vq  1 4.300000e-01    3.160000e+00
   SP3  C6vq  1 4.300000e-01    3.380000e+00
   SP3  N1aq  1 4.300000e-01    3.160000e+00
   SP3  N2aq  1 4.300000e-01    3.380000e+00
   SP3  N3aq  1 4.300000e-01    3.380000e+00
   SP3  N4aq  1 4.300000e-01    3.590000e+00
   SP3  N5aq  1 4.300000e-01    3.590000e+00
   SP3  N6aq  1 4.300000e-01    3.770000e+00
   SP3  P1aq  1 4.300000e-01    3.970000e+00
   SP3  P2aq  1 4.300000e-01    4.170000e+00
   SP3  P3aq  1 4.300000e-01    4.170000e+00
   SP3  N1dq  1 4.300000e-01    3.160000e+00
   SP3  N2dq  1 4.300000e-01    3.380000e+00
   SP3  N3dq  1 4.300000e-01    3.380000e+00
   SP3  N4dq  1 4.300000e-01    3.590000e+00
   SP3  N5dq  1 4.300000e-01    3.590000e+00
   SP3  N6dq  1 4.300000e-01    3.770000e+00
   SP3  P1dq  1 4.300000e-01    3.970000e+00
   SP3  P2dq  1 4.300000e-01    4.170000e+00
   SP3  P3dq  1 4.300000e-01    4.170000e+00
   SP3   X1q  1 4.300000e-01    2.770000e+00
   SP3   X2q  1 4.300000e-01    2.920000e+00
   SP3   X3q  1 4.300000e-01    3.160000e+00
   SP3   X4q  1 4.300000e-01    3.160000e+00
   SP3   C1q  1 4.300000e-01    2.160000e+00
   SP3   C2q  1 4.300000e-01    2.320000e+00
   SP3   C3q  1 4.300000e-01    2.320000e+00
   SP3   C4q  1 4.300000e-01    2.770000e+00
   SP3   C5q  1 4.300000e-01    2.920000e+00
   SP3   C6q  1 4.300000e-01    3.160000e+00
   SP3   N1q  1 4.300000e-01    3.160000e+00
   SP3   N2q  1 4.300000e-01    3.380000e+00
   SP3   N3q  1 4.300000e-01    3.380000e+00
   SP3   N4q  1 4.300000e-01    3.590000e+00
   SP3   N5q  1 4.300000e-01    3.590000e+00
   SP3   N6q  1 4.300000e-01    3.770000e+00
   SP3   P1q  1 4.300000e-01    3.970000e+00
   SP3   P2q  1 4.300000e-01    4.170000e+00
   SP3   P3h  1 4.300000e-01    3.770000e+00
   SP3  X1eh  1 4.300000e-01    2.530000e+00
   SP3  X2eh  1 4.300000e-01    2.770000e+00
   SP3  X3eh  1 4.300000e-01    2.920000e+00
   SP3  X4eh  1 4.300000e-01    2.920000e+00
   SP3  C1eh  1 4.300000e-01    1.930000e+00
   SP3  C2eh  1 4.300000e-01    2.160000e+00
   SP3  C3eh  1 4.300000e-01    2.160000e+00
   SP3  C4eh  1 4.300000e-01    2.530000e+00
   SP3  C5eh  1 4.300000e-01    2.770000e+00
   SP3  C6eh  1 4.300000e-01    2.920000e+00
   SP3  X1vh  1 4.300000e-01    2.530000e+00
   SP3  X2vh  1 4.300000e-01    2.770000e+00
   SP3  X3vh  1 4.300000e-01    2.920000e+00
   SP3  X4vh  1 4.300000e-01    2.920000e+00
   SP3  C1vh  1 4.300000e-01    1.930000e+00
   SP3  C2vh  1 4.300000e-01    2.160000e+00
   SP3  C3vh  1 4.300000e-01    2.160000e+00
   SP3  C4vh  1 4.300000e-01    2.530000e+00
   SP3  C5vh  1 4.300000e-01    2.770000e+00
   SP3  C6vh  1 4.300000e-01    2.920000e+00
   SP3  N1ah  1 4.300000e-01    2.770000e+00
   SP3  N2ah  1 4.300000e-01    2.920000e+00
   SP3  N3ah  1 4.300000e-01    2.920000e+00
   SP3  N4ah  1 4.300000e-01    3.160000e+00
   SP3  N5ah  1 4.300000e-01    3.160000e+00
   SP3  N6ah  1 4.300000e-01    3.380000e+00
   SP3  P1ah  1 4.300000e-01    3.590000e+00
   SP3  P2ah  1 4.300000e-01    3.770000e+00
   SP3  P3ah  1 4.300000e-01    3.770000e+00
   SP3  N1dh  1 4.300000e-01    2.770000e+00
   SP3  N2dh  1 4.300000e-01    2.920000e+00
   SP3  N3dh  1 4.300000e-01    2.920000e+00
   SP3  N4dh  1 4.300000e-01    3.160000e+00
   SP3  N5dh  1 4.300000e-01    3.160000e+00
   SP3  N6dh  1 4.300000e-01    3.380000e+00
   SP3  P1dh  1 4.300000e-01    3.590000e+00
   SP3  P2dh  1 4.300000e-01    3.770000e+00
   SP3  P3dh  1 4.300000e-01    3.770000e+00
   SP3   X1h  1 4.300000e-01    2.320000e+00
   SP3   X2h  1 4.300000e-01    2.530000e+00
   SP3   X3h  1 4.300000e-01    2.770000e+00
   SP3   X4h  1 4.300000e-01    2.770000e+00
   SP3   C1h  1 4.300000e-01    1.730000e+00
   SP3   C2h  1 4.300000e-01    1.930000e+00
   SP3   C3h  1 4.300000e-01    1.930000e+00
   SP3   C4h  1 4.300000e-01    2.320000e+00
   SP3   C5h  1 4.300000e-01    2.530000e+00
   SP3   C6h  1 4.300000e-01    2.770000e+00
   SP3   N1h  1 4.300000e-01    2.770000e+00
   SP3   N2h  1 4.300000e-01    2.920000e+00
   SP3   N3h  1 4.300000e-01    2.920000e+00
   SP3   N4h  1 4.300000e-01    3.160000e+00
   SP3   N5h  1 4.300000e-01    3.160000e+00
   SP3   N6h  1 4.300000e-01    3.380000e+00
   SP3   P1h  1 4.300000e-01    3.590000e+00
   SP3   P2h  1 4.300000e-01    3.770000e+00
   SP3   P3r  1 4.300000e-01    3.770000e+00
   SP3  X1er  1 4.300000e-01    2.530000e+00
   SP3  X2er  1 4.300000e-01    2.770000e+00
   SP3  X3er  1 4.300000e-01    2.920000e+00
   SP3  X4er  1 4.300000e-01    2.920000e+00
   SP3  C1er  1 4.300000e-01    1.930000e+00
   SP3  C2er  1 4.300000e-01    2.160000e+00
   SP3  C3er  1 4.300000e-01    2.160000e+00
   SP3  C4er  1 4.300000e-01    2.530000e+00
   SP3  C5er  1 4.300000e-01    2.770000e+00
   SP3  C6er  1 4.300000e-01    2.920000e+00
   SP3  X1vr  1 4.300000e-01    2.530000e+00
   SP3  X2vr  1 4.300000e-01    2.770000e+00
   SP3  X3vr  1 4.300000e-01    2.920000e+00
   SP3  X4vr  1 4.300000e-01    2.920000e+00
   SP3  C1vr  1 4.300000e-01    1.930000e+00
   SP3  C2vr  1 4.300000e-01    2.160000e+00
   SP3  C3vr  1 4.300000e-01    2.160000e+00
   SP3  C4vr  1 4.300000e-01    2.530000e+00
   SP3  C5vr  1 4.300000e-01    2.770000e+00
   SP3  C6vr  1 4.300000e-01    2.920000e+00
   SP3  N1ar  1 4.300000e-01    2.770000e+00
   SP3  N2ar  1 4.300000e-01    2.920000e+00
   SP3  N3ar  1 4.300000e-01    2.920000e+00
   SP3  N4ar  1 4.300000e-01    3.160000e+00
   SP3  N5ar  1 4.300000e-01    3.160000e+00
   SP3  N6ar  1 4.300000e-01    3.380000e+00
   SP3  P1ar  1 4.300000e-01    3.590000e+00
   SP3  P2ar  1 4.300000e-01    3.770000e+00
   SP3  P3ar  1 4.300000e-01    3.770000e+00
   SP3  N1dr  1 4.300000e-01    2.770000e+00
   SP3  N2dr  1 4.300000e-01    2.920000e+00
   SP3  N3dr  1 4.300000e-01    2.920000e+00
   SP3  N4dr  1 4.300000e-01    3.160000e+00
   SP3  N5dr  1 4.300000e-01    3.160000e+00
   SP3  N6dr  1 4.300000e-01    3.380000e+00
   SP3  P1dr  1 4.300000e-01    3.590000e+00
   SP3  P2dr  1 4.300000e-01    3.770000e+00
   SP3  P3dr  1 4.300000e-01    3.770000e+00
   SP3   X1r  1 4.300000e-01    2.320000e+00
   SP3   X2r  1 4.300000e-01    2.530000e+00
   SP3   X3r  1 4.300000e-01    2.770000e+00
   SP3   X4r  1 4.300000e-01    2.770000e+00
   SP3   C1r  1 4.300000e-01    1.730000e+00
   SP3   C2r  1 4.300000e-01    1.930000e+00
   SP3   C3r  1 4.300000e-01    1.930000e+00
   SP3   C4r  1 4.300000e-01    2.320000e+00
   SP3   C5r  1 4.300000e-01    2.530000e+00
   SP3   C6r  1 4.300000e-01    2.770000e+00
   SP3   N1r  1 4.300000e-01    2.770000e+00
   SP3   N2r  1 4.300000e-01    2.920000e+00
   SP3   N3r  1 4.300000e-01    2.920000e+00
   SP3   N4r  1 4.300000e-01    3.160000e+00
   SP3   N5r  1 4.300000e-01    3.160000e+00
   SP3   N6r  1 4.300000e-01    3.380000e+00
   SP3   P1r  1 4.300000e-01    3.590000e+00
   SP3   P2r  1 4.300000e-01    3.770000e+00
   SP3   SP3  1 4.100000e-01    3.310000e+00
   SP3   SP2  1 4.100000e-01    3.310000e+00
   SP3   SP1  1 4.100000e-01    3.070000e+00
   SP3   SN6  1 4.100000e-01    2.840000e+00
   SP3   SN5  1 4.100000e-01    2.600000e+00
   SP3   SN4  1 4.100000e-01    2.600000e+00
   SP3   SN3  1 4.100000e-01    2.350000e+00
   SP3   SN2  1 4.100000e-01    2.350000e+00
   SP3   SN1  1 4.100000e-01    2.200000e+00
   SP3   SC6  1 4.100000e-01    2.200000e+00
   SP3   SC5  1 4.100000e-01    2.040000e+00
   SP3   SC4  1 4.100000e-01    1.910000e+00
   SP3   SC3  1 4.140000e-01    1.560000e+00
   SP3   SC2  1 4.140000e-01    1.560000e+00
   SP3   SC1  1 4.180000e-01    1.400000e+00
   SP3   SX4  1 4.100000e-01    2.200000e+00
   SP3   SX3  1 4.100000e-01    2.200000e+00
   SP3   SX2  1 4.100000e-01    2.040000e+00
   SP3   SX1  1 4.100000e-01    1.910000e+00
  SP6d   SP3  1 4.100000e-01    3.550000e+00
  SP5d   SP3  1 4.100000e-01    3.310000e+00
  SP4d   SP3  1 4.100000e-01    3.310000e+00
   SP3  SP3d  1 4.100000e-01    3.310000e+00
   SP3  SN1d  1 4.100000e-01    2.200000e+00
   SP3  SN2d  1 4.100000e-01    2.350000e+00
   SP3  SN3d  1 4.100000e-01    2.350000e+00
   SP3  SN4d  1 4.100000e-01    2.600000e+00
   SP3  SN5d  1 4.100000e-01    2.600000e+00
   SP3  SN6d  1 4.100000e-01    2.840000e+00
   SP3  SP1d  1 4.100000e-01    3.070000e+00
   SP3  SP2d  1 4.100000e-01    3.310000e+00
  SP6a   SP3  1 4.100000e-01    3.550000e+00
  SP5a   SP3  1 4.100000e-01    3.310000e+00
  SP4a   SP3  1 4.100000e-01    3.310000e+00
   SP3  SP3a  1 4.100000e-01    3.310000e+00
   SP3  SN1a  1 4.100000e-01    2.200000e+00
   SP3  SN2a  1 4.100000e-01    2.350000e+00
   SP3  SN3a  1 4.100000e-01    2.350000e+00
   SP3  SN4a  1 4.100000e-01    2.600000e+00
   SP3  SN5a  1 4.100000e-01    2.600000e+00
   SP3  SN6a  1 4.100000e-01    2.840000e+00
   SP3  SP1a  1 4.100000e-01    3.070000e+00
   SP3  SP2a  1 4.100000e-01    3.310000e+00
   SP3  SC6v  1 4.100000e-01    2.350000e+00
   SP3  SC5v  1 4.100000e-01    2.200000e+00
   SP3  SC4v  1 4.100000e-01    2.040000e+00
   SP3  SC3v  1 4.100000e-01    1.750000e+00
   SP3  SC2v  1 4.100000e-01    1.750000e+00
   SP3  SC1v  1 4.140000e-01    1.560000e+00
   SP3  SX4v  1 4.100000e-01    2.350000e+00
   SP3  SX3v  1 4.100000e-01    2.350000e+00
   SP3  SX2v  1 4.100000e-01    2.200000e+00
   SP3  SX1v  1 4.100000e-01    2.040000e+00
   SP3  SC6e  1 4.100000e-01    2.350000e+00
   SP3  SC5e  1 4.100000e-01    2.200000e+00
   SP3  SC4e  1 4.100000e-01    2.040000e+00
   SP3  SC3e  1 4.100000e-01    1.750000e+00
   SP3  SC2e  1 4.100000e-01    1.750000e+00
   SP3  SC1e  1 4.140000e-01    1.560000e+00
   SP3  SX4e  1 4.100000e-01    2.350000e+00
   SP3  SX3e  1 4.100000e-01    2.350000e+00
   SP3  SX2e  1 4.100000e-01    2.200000e+00
   SP3  SX1e  1 4.100000e-01    2.040000e+00
  SP6q   SP3  1 4.100000e-01    4.040000e+00
  SP5q   SP3  1 4.100000e-01    3.820000e+00
  SP4q   SP3  1 4.100000e-01    3.820000e+00
   SP3  SP3q  1 4.100000e-01    3.820000e+00
   SP3 SX1eq  1 4.100000e-01    2.350000e+00
   SP3 SX2eq  1 4.100000e-01    2.600000e+00
   SP3 SX3eq  1 4.100000e-01    2.840000e+00
   SP3 SX4eq  1 4.100000e-01    2.840000e+00
   SP3 SC1eq  1 4.100000e-01    1.910000e+00
   SP3 SC2eq  1 4.100000e-01    2.040000e+00
   SP3 SC3eq  1 4.100000e-01    2.040000e+00
   SP3 SC4eq  1 4.100000e-01    2.350000e+00
   SP3 SC5eq  1 4.100000e-01    2.600000e+00
   SP3 SC6eq  1 4.100000e-01    2.840000e+00
   SP3 SX1vq  1 4.100000e-01    2.350000e+00
   SP3 SX2vq  1 4.100000e-01    2.600000e+00
   SP3 SX3vq  1 4.100000e-01    2.840000e+00
   SP3 SX4vq  1 4.100000e-01    2.840000e+00
   SP3 SC1vq  1 4.100000e-01    1.910000e+00
   SP3 SC2vq  1 4.100000e-01    2.040000e+00
   SP3 SC3vq  1 4.100000e-01    2.040000e+00
   SP3 SC4vq  1 4.100000e-01    2.350000e+00
   SP3 SC5vq  1 4.100000e-01    2.600000e+00
   SP3 SC6vq  1 4.100000e-01    2.840000e+00
   SP3 SN1aq  1 4.100000e-01    2.600000e+00
   SP3 SN2aq  1 4.100000e-01    2.840000e+00
   SP3 SN3aq  1 4.100000e-01    2.840000e+00
   SP3 SN4aq  1 4.100000e-01    3.070000e+00
   SP3 SN5aq  1 4.100000e-01    3.070000e+00
   SP3 SN6aq  1 4.100000e-01    3.310000e+00
   SP3 SP1aq  1 4.100000e-01    3.550000e+00
   SP3 SP2aq  1 4.100000e-01    3.820000e+00
   SP3 SP3aq  1 4.100000e-01    3.820000e+00
 SP4aq   SP3  1 4.100000e-01    3.820000e+00
 SP5aq   SP3  1 4.100000e-01    3.820000e+00
 SP6aq   SP3  1 4.100000e-01    4.040000e+00
   SP3 SN1dq  1 4.100000e-01    2.600000e+00
   SP3 SN2dq  1 4.100000e-01    2.840000e+00
   SP3 SN3dq  1 4.100000e-01    2.840000e+00
   SP3 SN4dq  1 4.100000e-01    3.070000e+00
   SP3 SN5dq  1 4.100000e-01    3.070000e+00
   SP3 SN6dq  1 4.100000e-01    3.310000e+00
   SP3 SP1dq  1 4.100000e-01    3.550000e+00
   SP3 SP2dq  1 4.100000e-01    3.820000e+00
   SP3 SP3dq  1 4.100000e-01    3.820000e+00
 SP4dq   SP3  1 4.100000e-01    3.820000e+00
 SP5dq   SP3  1 4.100000e-01    3.820000e+00
 SP6dq   SP3  1 4.100000e-01    4.040000e+00
   SP3  SX1q  1 4.100000e-01    2.200000e+00
   SP3  SX2q  1 4.100000e-01    2.350000e+00
   SP3  SX3q  1 4.100000e-01    2.600000e+00
   SP3  SX4q  1 4.100000e-01    2.600000e+00
   SP3  SC1q  1 4.100000e-01    1.750000e+00
   SP3  SC2q  1 4.100000e-01    1.910000e+00
   SP3  SC3q  1 4.100000e-01    1.910000e+00
   SP3  SC4q  1 4.100000e-01    2.200000e+00
   SP3  SC5q  1 4.100000e-01    2.350000e+00
   SP3  SC6q  1 4.100000e-01    2.600000e+00
   SP3  SN1q  1 4.100000e-01    2.600000e+00
   SP3  SN2q  1 4.100000e-01    2.840000e+00
   SP3  SN3q  1 4.100000e-01    2.840000e+00
   SP3  SN4q  1 4.100000e-01    3.070000e+00
   SP3  SN5q  1 4.100000e-01    3.070000e+00
   SP3  SN6q  1 4.100000e-01    3.310000e+00
   SP3  SP1q  1 4.100000e-01    3.550000e+00
   SP3  SP2q  1 4.100000e-01    3.820000e+00
  SP6h   SP3  1 4.100000e-01    3.550000e+00
  SP5h   SP3  1 4.100000e-01    3.310000e+00
  SP4h   SP3  1 4.100000e-01    3.310000e+00
   SP3  SP3h  1 4.100000e-01    3.310000e+00
   SP3 SX1eh  1 4.100000e-01    2.040000e+00
   SP3 SX2eh  1 4.100000e-01    2.200000e+00
   SP3 SX3eh  1 4.100000e-01    2.350000e+00
   SP3 SX4eh  1 4.100000e-01    2.350000e+00
   SP3 SC1eh  1 4.140000e-01    1.560000e+00
   SP3 SC2eh  1 4.100000e-01    1.750000e+00
   SP3 SC3eh  1 4.100000e-01    1.750000e+00
   SP3 SC4eh  1 4.100000e-01    2.040000e+00
   SP3 SC5eh  1 4.100000e-01    2.200000e+00
   SP3 SC6eh  1 4.100000e-01    2.350000e+00
   SP3 SX1vh  1 4.100000e-01    2.040000e+00
   SP3 SX2vh  1 4.100000e-01    2.200000e+00
   SP3 SX3vh  1 4.100000e-01    2.350000e+00
   SP3 SX4vh  1 4.100000e-01    2.350000e+00
   SP3 SC1vh  1 4.140000e-01    1.560000e+00
   SP3 SC2vh  1 4.100000e-01    1.750000e+00
   SP3 SC3vh  1 4.100000e-01    1.750000e+00
   SP3 SC4vh  1 4.100000e-01    2.040000e+00
   SP3 SC5vh  1 4.100000e-01    2.200000e+00
   SP3 SC6vh  1 4.100000e-01    2.350000e+00
   SP3 SN1ah  1 4.100000e-01    2.200000e+00
   SP3 SN2ah  1 4.100000e-01    2.350000e+00
   SP3 SN3ah  1 4.100000e-01    2.350000e+00
   SP3 SN4ah  1 4.100000e-01    2.600000e+00
   SP3 SN5ah  1 4.100000e-01    2.600000e+00
   SP3 SN6ah  1 4.100000e-01    2.840000e+00
   SP3 SP1ah  1 4.100000e-01    3.070000e+00
   SP3 SP2ah  1 4.100000e-01    3.310000e+00
   SP3 SP3ah  1 4.100000e-01    3.310000e+00
 SP4ah   SP3  1 4.100000e-01    3.310000e+00
 SP5ah   SP3  1 4.100000e-01    3.310000e+00
 SP6ah   SP3  1 4.100000e-01    3.550000e+00
   SP3 SN1dh  1 4.100000e-01    2.200000e+00
   SP3 SN2dh  1 4.100000e-01    2.350000e+00
   SP3 SN3dh  1 4.100000e-01    2.350000e+00
   SP3 SN4dh  1 4.100000e-01    2.600000e+00
   SP3 SN5dh  1 4.100000e-01    2.600000e+00
   SP3 SN6dh  1 4.100000e-01    2.840000e+00
   SP3 SP1dh  1 4.100000e-01    3.070000e+00
   SP3 SP2dh  1 4.100000e-01    3.310000e+00
   SP3 SP3dh  1 4.100000e-01    3.310000e+00
 SP4dh   SP3  1 4.100000e-01    3.310000e+00
 SP5dh   SP3  1 4.100000e-01    3.310000e+00
 SP6dh   SP3  1 4.100000e-01    3.550000e+00
   SP3  SX1h  1 4.100000e-01    1.910000e+00
   SP3  SX2h  1 4.100000e-01    2.040000e+00
   SP3  SX3h  1 4.100000e-01    2.200000e+00
   SP3  SX4h  1 4.100000e-01    2.200000e+00
   SP3  SC1h  1 4.180000e-01    1.400000e+00
   SP3  SC2h  1 4.140000e-01    1.560000e+00
   SP3  SC3h  1 4.140000e-01    1.560000e+00
   SP3  SC4h  1 4.100000e-01    1.910000e+00
   SP3  SC5h  1 4.100000e-01    2.040000e+00
   SP3  SC6h  1 4.100000e-01    2.200000e+00
   SP3  SN1h  1 4.100000e-01    2.200000e+00
   SP3  SN2h  1 4.100000e-01    2.350000e+00
   SP3  SN3h  1 4.100000e-01    2.350000e+00
   SP3  SN4h  1 4.100000e-01    2.600000e+00
   SP3  SN5h  1 4.100000e-01    2.600000e+00
   SP3  SN6h  1 4.100000e-01    2.840000e+00
   SP3  SP1h  1 4.100000e-01    3.070000e+00
   SP3  SP2h  1 4.100000e-01    3.310000e+00
  SP6r   SP3  1 4.100000e-01    3.550000e+00
  SP5r   SP3  1 4.100000e-01    3.310000e+00
  SP4r   SP3  1 4.100000e-01    3.310000e+00
   SP3  SP3r  1 4.100000e-01    3.310000e+00
   SP3 SX1er  1 4.100000e-01    2.040000e+00
   SP3 SX2er  1 4.100000e-01    2.200000e+00
   SP3 SX3er  1 4.100000e-01    2.350000e+00
   SP3 SX4er  1 4.100000e-01    2.350000e+00
   SP3 SC1er  1 4.140000e-01    1.560000e+00
   SP3 SC2er  1 4.100000e-01    1.750000e+00
   SP3 SC3er  1 4.100000e-01    1.750000e+00
   SP3 SC4er  1 4.100000e-01    2.040000e+00
   SP3 SC5er  1 4.100000e-01    2.200000e+00
   SP3 SC6er  1 4.100000e-01    2.350000e+00
   SP3 SX1vr  1 4.100000e-01    2.040000e+00
   SP3 SX2vr  1 4.100000e-01    2.200000e+00
   SP3 SX3vr  1 4.100000e-01    2.350000e+00
   SP3 SX4vr  1 4.100000e-01    2.350000e+00
   SP3 SC1vr  1 4.140000e-01    1.560000e+00
   SP3 SC2vr  1 4.100000e-01    1.750000e+00
   SP3 SC3vr  1 4.100000e-01    1.750000e+00
   SP3 SC4vr  1 4.100000e-01    2.040000e+00
   SP3 SC5vr  1 4.100000e-01    2.200000e+00
   SP3 SC6vr  1 4.100000e-01    2.350000e+00
   SP3 SN1ar  1 4.100000e-01    2.200000e+00
   SP3 SN2ar  1 4.100000e-01    2.350000e+00
   SP3 SN3ar  1 4.100000e-01    2.350000e+00
   SP3 SN4ar  1 4.100000e-01    2.600000e+00
   SP3 SN5ar  1 4.100000e-01    2.600000e+00
   SP3 SN6ar  1 4.100000e-01    2.840000e+00
   SP3 SP1ar  1 4.100000e-01    3.070000e+00
   SP3 SP2ar  1 4.100000e-01    3.310000e+00
   SP3 SP3ar  1 4.100000e-01    3.310000e+00
 SP4ar   SP3  1 4.100000e-01    3.310000e+00
 SP5ar   SP3  1 4.100000e-01    3.310000e+00
 SP6ar   SP3  1 4.100000e-01    3.550000e+00
   SP3 SN1dr  1 4.100000e-01    2.200000e+00
   SP3 SN2dr  1 4.100000e-01    2.350000e+00
   SP3 SN3dr  1 4.100000e-01    2.350000e+00
   SP3 SN4dr  1 4.100000e-01    2.600000e+00
   SP3 SN5dr  1 4.100000e-01    2.600000e+00
   SP3 SN6dr  1 4.100000e-01    2.840000e+00
   SP3 SP1dr  1 4.100000e-01    3.070000e+00
   SP3 SP2dr  1 4.100000e-01    3.310000e+00
   SP3 SP3dr  1 4.100000e-01    3.310000e+00
 SP4dr   SP3  1 4.100000e-01    3.310000e+00
 SP5dr   SP3  1 4.100000e-01    3.310000e+00
 SP6dr   SP3  1 4.100000e-01    3.550000e+00
   SP3  SX1r  1 4.100000e-01    1.910000e+00
   SP3  SX2r  1 4.100000e-01    2.040000e+00
   SP3  SX3r  1 4.100000e-01    2.200000e+00
   SP3  SX4r  1 4.100000e-01    2.200000e+00
   SP3  SC1r  1 4.180000e-01    1.400000e+00
   SP3  SC2r  1 4.140000e-01    1.560000e+00
   SP3  SC3r  1 4.140000e-01    1.560000e+00
   SP3  SC4r  1 4.100000e-01    1.910000e+00
   SP3  SC5r  1 4.100000e-01    2.040000e+00
   SP3  SC6r  1 4.100000e-01    2.200000e+00
   SP3  SN1r  1 4.100000e-01    2.200000e+00
   SP3  SN2r  1 4.100000e-01    2.350000e+00
   SP3  SN3r  1 4.100000e-01    2.350000e+00
   SP3  SN4r  1 4.100000e-01    2.600000e+00
   SP3  SN5r  1 4.100000e-01    2.600000e+00
   SP3  SN6r  1 4.100000e-01    2.840000e+00
   SP3  SP1r  1 4.100000e-01    3.070000e+00
   SP3  SP2r  1 4.100000e-01    3.310000e+00
   SP3   TP3  1 3.650000e-01    2.830000e+00
   SP3   TP2  1 3.650000e-01    2.830000e+00
   SP3   TP1  1 3.650000e-01    2.570000e+00
   SP3   TN6  1 3.650000e-01    2.340000e+00
   SP3   TN5  1 3.650000e-01    2.110000e+00
   SP3   TN4  1 3.650000e-01    2.110000e+00
   SP3   TN3  1 3.650000e-01    1.910000e+00
   SP3   TN2  1 3.650000e-01    1.910000e+00
   SP3   TN1  1 3.650000e-01    1.750000e+00
   SP3   TC6  1 3.650000e-01    1.750000e+00
   SP3   TC5  1 3.660000e-01    1.600000e+00
   SP3   TC4  1 3.780000e-01    1.450000e+00
   SP3   TC3  1 4.040000e-01    1.130000e+00
   SP3   TC2  1 4.040000e-01    1.130000e+00
   SP3   TC1  1 4.090000e-01    1.080000e+00
   SP3   TX4  1 3.650000e-01    1.750000e+00
   SP3   TX3  1 3.650000e-01    1.750000e+00
   SP3   TX2  1 3.660000e-01    1.600000e+00
   SP3   TX1  1 3.780000e-01    1.450000e+00
   SP3  TP3d  1 3.650000e-01    2.830000e+00
   SP3  TN1d  1 3.650000e-01    1.750000e+00
   SP3  TN2d  1 3.650000e-01    1.910000e+00
   SP3  TN3d  1 3.650000e-01    1.910000e+00
   SP3  TN4d  1 3.650000e-01    2.110000e+00
   SP3  TN5d  1 3.650000e-01    2.110000e+00
   SP3  TN6d  1 3.650000e-01    2.340000e+00
   SP3  TP1d  1 3.650000e-01    2.570000e+00
   SP3  TP2d  1 3.650000e-01    2.830000e+00
   SP3  TP3a  1 3.650000e-01    2.830000e+00
   SP3  TN1a  1 3.650000e-01    1.750000e+00
   SP3  TN2a  1 3.650000e-01    1.910000e+00
   SP3  TN3a  1 3.650000e-01    1.910000e+00
   SP3  TN4a  1 3.650000e-01    2.110000e+00
   SP3  TN5a  1 3.650000e-01    2.110000e+00
   SP3  TN6a  1 3.650000e-01    2.340000e+00
   SP3  TP1a  1 3.650000e-01    2.570000e+00
   SP3  TP2a  1 3.650000e-01    2.830000e+00
   SP3  TC6v  1 3.650000e-01    1.910000e+00
   SP3  TC5v  1 3.650000e-01    1.750000e+00
   SP3  TC4v  1 3.660000e-01    1.600000e+00
   SP3  TC3v  1 3.940000e-01    1.290000e+00
   SP3  TC2v  1 3.940000e-01    1.290000e+00
   SP3  TC1v  1 4.040000e-01    1.130000e+00
   SP3  TX4v  1 3.650000e-01    1.910000e+00
   SP3  TX3v  1 3.650000e-01    1.910000e+00
   SP3  TX2v  1 3.650000e-01    1.750000e+00
   SP3  TX1v  1 3.660000e-01    1.600000e+00
   SP3  TC6e  1 3.650000e-01    1.910000e+00
   SP3  TC5e  1 3.650000e-01    1.750000e+00
   SP3  TC4e  1 3.660000e-01    1.600000e+00
   SP3  TC3e  1 3.940000e-01    1.290000e+00
   SP3  TC2e  1 3.940000e-01    1.290000e+00
   SP3  TC1e  1 4.040000e-01    1.130000e+00
   SP3  TX4e  1 3.650000e-01    1.910000e+00
   SP3  TX3e  1 3.650000e-01    1.910000e+00
   SP3  TX2e  1 3.650000e-01    1.750000e+00
   SP3  TX1e  1 3.660000e-01    1.600000e+00
   SP3  TP3q  1 3.650000e-01    3.370000e+00
   SP3 TX1eq  1 3.650000e-01    1.910000e+00
   SP3 TX2eq  1 3.650000e-01    2.110000e+00
   SP3 TX3eq  1 3.650000e-01    2.340000e+00
   SP3 TX4eq  1 3.650000e-01    2.340000e+00
   SP3 TC1eq  1 3.780000e-01    1.450000e+00
   SP3 TC2eq  1 3.660000e-01    1.600000e+00
   SP3 TC3eq  1 3.660000e-01    1.600000e+00
   SP3 TC4eq  1 3.650000e-01    1.910000e+00
   SP3 TC5eq  1 3.650000e-01    2.110000e+00
   SP3 TC6eq  1 3.650000e-01    2.340000e+00
   SP3 TX1vq  1 3.650000e-01    1.910000e+00
   SP3 TX2vq  1 3.650000e-01    2.110000e+00
   SP3 TX3vq  1 3.650000e-01    2.340000e+00
   SP3 TX4vq  1 3.650000e-01    2.340000e+00
   SP3 TC1vq  1 3.780000e-01    1.450000e+00
   SP3 TC2vq  1 3.660000e-01    1.600000e+00
   SP3 TC3vq  1 3.660000e-01    1.600000e+00
   SP3 TC4vq  1 3.650000e-01    1.910000e+00
   SP3 TC5vq  1 3.650000e-01    2.110000e+00
   SP3 TC6vq  1 3.650000e-01    2.340000e+00
   SP3 TN1aq  1 3.650000e-01    2.110000e+00
   SP3 TN2aq  1 3.650000e-01    2.340000e+00
   SP3 TN3aq  1 3.650000e-01    2.340000e+00
   SP3 TN4aq  1 3.650000e-01    2.570000e+00
   SP3 TN5aq  1 3.650000e-01    2.570000e+00
   SP3 TN6aq  1 3.650000e-01    2.830000e+00
   SP3 TP1aq  1 3.650000e-01    3.100000e+00
   SP3 TP2aq  1 3.650000e-01    3.370000e+00
   SP3 TP3aq  1 3.650000e-01    3.370000e+00
   SP3 TN1dq  1 3.650000e-01    2.110000e+00
   SP3 TN2dq  1 3.650000e-01    2.340000e+00
   SP3 TN3dq  1 3.650000e-01    2.340000e+00
   SP3 TN4dq  1 3.650000e-01    2.570000e+00
   SP3 TN5dq  1 3.650000e-01    2.570000e+00
   SP3 TN6dq  1 3.650000e-01    2.830000e+00
   SP3 TP1dq  1 3.650000e-01    3.100000e+00
   SP3 TP2dq  1 3.650000e-01    3.370000e+00
   SP3 TP3dq  1 3.650000e-01    3.370000e+00
   SP3  TX1q  1 3.650000e-01    1.750000e+00
   SP3  TX2q  1 3.650000e-01    1.910000e+00
   SP3  TX3q  1 3.650000e-01    2.110000e+00
   SP3  TX4q  1 3.650000e-01    2.110000e+00
   SP3  TC1q  1 3.940000e-01    1.290000e+00
   SP3  TC2q  1 3.780000e-01    1.450000e+00
   SP3  TC3q  1 3.780000e-01    1.450000e+00
   SP3  TC4q  1 3.650000e-01    1.750000e+00
   SP3  TC5q  1 3.650000e-01    1.910000e+00
   SP3  TC6q  1 3.650000e-01    2.110000e+00
   SP3  TN1q  1 3.650000e-01    2.110000e+00
   SP3  TN2q  1 3.650000e-01    2.340000e+00
   SP3  TN3q  1 3.650000e-01    2.340000e+00
   SP3  TN4q  1 3.650000e-01    2.570000e+00
   SP3  TN5q  1 3.650000e-01    2.570000e+00
   SP3  TN6q  1 3.650000e-01    2.830000e+00
   SP3  TP1q  1 3.650000e-01    3.100000e+00
   SP3  TP2q  1 3.650000e-01    3.370000e+00
   SP3  TP3h  1 3.650000e-01    2.830000e+00
   SP3 TX1eh  1 3.660000e-01    1.600000e+00
   SP3 TX2eh  1 3.650000e-01    1.750000e+00
   SP3 TX3eh  1 3.650000e-01    1.910000e+00
   SP3 TX4eh  1 3.650000e-01    1.910000e+00
   SP3 TC1eh  1 4.040000e-01    1.130000e+00
   SP3 TC2eh  1 3.940000e-01    1.290000e+00
   SP3 TC3eh  1 3.940000e-01    1.290000e+00
   SP3 TC4eh  1 3.660000e-01    1.600000e+00
   SP3 TC5eh  1 3.650000e-01    1.750000e+00
   SP3 TC6eh  1 3.650000e-01    1.910000e+00
   SP3 TX1vh  1 3.660000e-01    1.600000e+00
   SP3 TX2vh  1 3.650000e-01    1.750000e+00
   SP3 TX3vh  1 3.650000e-01    1.910000e+00
   SP3 TX4vh  1 3.650000e-01    1.910000e+00
   SP3 TC1vh  1 4.040000e-01    1.130000e+00
   SP3 TC2vh  1 3.940000e-01    1.290000e+00
   SP3 TC3vh  1 3.940000e-01    1.290000e+00
   SP3 TC4vh  1 3.660000e-01    1.600000e+00
   SP3 TC5vh  1 3.650000e-01    1.750000e+00
   SP3 TC6vh  1 3.650000e-01    1.910000e+00
   SP3 TN1ah  1 3.650000e-01    1.750000e+00
   SP3 TN2ah  1 3.650000e-01    1.910000e+00
   SP3 TN3ah  1 3.650000e-01    1.910000e+00
   SP3 TN4ah  1 3.650000e-01    2.110000e+00
   SP3 TN5ah  1 3.650000e-01    2.110000e+00
   SP3 TN6ah  1 3.650000e-01    2.340000e+00
   SP3 TP1ah  1 3.650000e-01    2.570000e+00
   SP3 TP2ah  1 3.650000e-01    2.830000e+00
   SP3 TP3ah  1 3.650000e-01    2.830000e+00
   SP3 TN1dh  1 3.650000e-01    1.750000e+00
   SP3 TN2dh  1 3.650000e-01    1.910000e+00
   SP3 TN3dh  1 3.650000e-01    1.910000e+00
   SP3 TN4dh  1 3.650000e-01    2.110000e+00
   SP3 TN5dh  1 3.650000e-01    2.110000e+00
   SP3 TN6dh  1 3.650000e-01    2.340000e+00
   SP3 TP1dh  1 3.650000e-01    2.570000e+00
   SP3 TP2dh  1 3.650000e-01    2.830000e+00
   SP3 TP3dh  1 3.650000e-01    2.830000e+00
   SP3  TX1h  1 3.780000e-01    1.450000e+00
   SP3  TX2h  1 3.660000e-01    1.600000e+00
   SP3  TX3h  1 3.650000e-01    1.750000e+00
   SP3  TX4h  1 3.650000e-01    1.750000e+00
   SP3  TC1h  1 4.090000e-01    1.080000e+00
   SP3  TC2h  1 4.040000e-01    1.130000e+00
   SP3  TC3h  1 4.040000e-01    1.130000e+00
   SP3  TC4h  1 3.780000e-01    1.450000e+00
   SP3  TC5h  1 3.660000e-01    1.600000e+00
   SP3  TC6h  1 3.650000e-01    1.750000e+00
   SP3  TN1h  1 3.650000e-01    1.750000e+00
   SP3  TN2h  1 3.650000e-01    1.910000e+00
   SP3  TN3h  1 3.650000e-01    1.910000e+00
   SP3  TN4h  1 3.650000e-01    2.110000e+00
   SP3  TN5h  1 3.650000e-01    2.110000e+00
   SP3  TN6h  1 3.650000e-01    2.340000e+00
   SP3  TP1h  1 3.650000e-01    2.570000e+00
   SP3  TP2h  1 3.650000e-01    2.830000e+00
   SP3  TP3r  1 3.650000e-01    2.830000e+00
   SP3 TX1er  1 3.660000e-01    1.600000e+00
   SP3 TX2er  1 3.650000e-01    1.750000e+00
   SP3 TX3er  1 3.650000e-01    1.910000e+00
   SP3 TX4er  1 3.650000e-01    1.910000e+00
   SP3 TC1er  1 4.040000e-01    1.130000e+00
   SP3 TC2er  1 3.940000e-01    1.290000e+00
   SP3 TC3er  1 3.940000e-01    1.290000e+00
   SP3 TC4er  1 3.660000e-01    1.600000e+00
   SP3 TC5er  1 3.650000e-01    1.750000e+00
   SP3 TC6er  1 3.650000e-01    1.910000e+00
   SP3 TX1vr  1 3.660000e-01    1.600000e+00
   SP3 TX2vr  1 3.650000e-01    1.750000e+00
   SP3 TX3vr  1 3.650000e-01    1.910000e+00
   SP3 TX4vr  1 3.650000e-01    1.910000e+00
   SP3 TC1vr  1 4.040000e-01    1.130000e+00
   SP3 TC2vr  1 3.940000e-01    1.290000e+00
   SP3 TC3vr  1 3.940000e-01    1.290000e+00
   SP3 TC4vr  1 3.660000e-01    1.600000e+00
   SP3 TC5vr  1 3.650000e-01    1.750000e+00
   SP3 TC6vr  1 3.650000e-01    1.910000e+00
   SP3 TN1ar  1 3.650000e-01    1.750000e+00
   SP3 TN2ar  1 3.650000e-01    1.910000e+00
   SP3 TN3ar  1 3.650000e-01    1.910000e+00
   SP3 TN4ar  1 3.650000e-01    2.110000e+00
   SP3 TN5ar  1 3.650000e-01    2.110000e+00
   SP3 TN6ar  1 3.650000e-01    2.340000e+00
   SP3 TP1ar  1 3.650000e-01    2.570000e+00
   SP3 TP2ar  1 3.650000e-01    2.830000e+00
   SP3 TP3ar  1 3.650000e-01    2.830000e+00
   SP3 TN1dr  1 3.650000e-01    1.750000e+00
   SP3 TN2dr  1 3.650000e-01    1.910000e+00
   SP3 TN3dr  1 3.650000e-01    1.910000e+00
   SP3 TN4dr  1 3.650000e-01    2.110000e+00
   SP3 TN5dr  1 3.650000e-01    2.110000e+00
   SP3 TN6dr  1 3.650000e-01    2.340000e+00
   SP3 TP1dr  1 3.650000e-01    2.570000e+00
   SP3 TP2dr  1 3.650000e-01    2.830000e+00
   SP3 TP3dr  1 3.650000e-01    2.830000e+00
   SP3  TX1r  1 3.780000e-01    1.450000e+00
   SP3  TX2r  1 3.660000e-01    1.600000e+00
   SP3  TX3r  1 3.650000e-01    1.750000e+00
   SP3  TX4r  1 3.650000e-01    1.750000e+00
   SP3  TC1r  1 4.090000e-01    1.080000e+00
   SP3  TC2r  1 4.040000e-01    1.130000e+00
   SP3  TC3r  1 4.040000e-01    1.130000e+00
   SP3  TC4r  1 3.780000e-01    1.450000e+00
   SP3  TC5r  1 3.660000e-01    1.600000e+00
   SP3  TC6r  1 3.650000e-01    1.750000e+00
   SP3  TN1r  1 3.650000e-01    1.750000e+00
   SP3  TN2r  1 3.650000e-01    1.910000e+00
   SP3  TN3r  1 3.650000e-01    1.910000e+00
   SP3  TN4r  1 3.650000e-01    2.110000e+00
   SP3  TN5r  1 3.650000e-01    2.110000e+00
   SP3  TN6r  1 3.650000e-01    2.340000e+00
   SP3  TP1r  1 3.650000e-01    2.570000e+00
   SP3  TP2r  1 3.650000e-01    2.830000e+00
  TP6d   SP3  1 3.650000e-01    3.100000e+00
  TP5d   SP3  1 3.650000e-01    2.830000e+00
  TP4d   SP3  1 3.650000e-01    2.830000e+00
  TP6a   SP3  1 3.650000e-01    3.100000e+00
  TP5a   SP3  1 3.650000e-01    2.830000e+00
  TP4a   SP3  1 3.650000e-01    2.830000e+00
  TP6q   SP3  1 3.650000e-01    3.640000e+00
  TP5q   SP3  1 3.650000e-01    3.370000e+00
  TP4q   SP3  1 3.650000e-01    3.370000e+00
 TP4aq   SP3  1 3.650000e-01    3.370000e+00
 TP5aq   SP3  1 3.650000e-01    3.370000e+00
 TP6aq   SP3  1 3.650000e-01    3.640000e+00
 TP4dq   SP3  1 3.650000e-01    3.370000e+00
 TP5dq   SP3  1 3.650000e-01    3.370000e+00
 TP6dq   SP3  1 3.650000e-01    3.640000e+00
  TP6h   SP3  1 3.650000e-01    3.100000e+00
  TP5h   SP3  1 3.650000e-01    2.830000e+00
  TP4h   SP3  1 3.650000e-01    2.830000e+00
 TP4ah   SP3  1 3.650000e-01    2.830000e+00
 TP5ah   SP3  1 3.650000e-01    2.830000e+00
 TP6ah   SP3  1 3.650000e-01    3.100000e+00
 TP4dh   SP3  1 3.650000e-01    2.830000e+00
 TP5dh   SP3  1 3.650000e-01    2.830000e+00
 TP6dh   SP3  1 3.650000e-01    3.100000e+00
  TP6r   SP3  1 3.650000e-01    3.100000e+00
  TP5r   SP3  1 3.650000e-01    2.830000e+00
  TP4r   SP3  1 3.650000e-01    2.830000e+00
 TP4ar   SP3  1 3.650000e-01    2.830000e+00
 TP5ar   SP3  1 3.650000e-01    2.830000e+00
 TP6ar   SP3  1 3.650000e-01    3.100000e+00
 TP4dr   SP3  1 3.650000e-01    2.830000e+00
 TP5dr   SP3  1 3.650000e-01    2.830000e+00
 TP6dr   SP3  1 3.650000e-01    3.100000e+00
   P6d   TP3  1 3.950000e-01    3.430000e+00
   P5d   TP3  1 3.950000e-01    3.190000e+00
   P4d   TP3  1 3.950000e-01    3.190000e+00
   P6a   TP3  1 3.950000e-01    3.430000e+00
   P5a   TP3  1 3.950000e-01    3.190000e+00
   P4a   TP3  1 3.950000e-01    3.190000e+00
   P6q   TP3  1 3.950000e-01    3.910000e+00
   P5q   TP3  1 3.950000e-01    3.670000e+00
   P4q   TP3  1 3.950000e-01    3.670000e+00
  P4aq   TP3  1 3.950000e-01    3.670000e+00
  P5aq   TP3  1 3.950000e-01    3.670000e+00
  P6aq   TP3  1 3.950000e-01    3.910000e+00
  P4dq   TP3  1 3.950000e-01    3.670000e+00
  P5dq   TP3  1 3.950000e-01    3.670000e+00
  P6dq   TP3  1 3.950000e-01    3.910000e+00
   P6h   TP3  1 3.950000e-01    3.430000e+00
   P5h   TP3  1 3.950000e-01    3.190000e+00
   P4h   TP3  1 3.950000e-01    3.190000e+00
  P4ah   TP3  1 3.950000e-01    3.190000e+00
  P5ah   TP3  1 3.950000e-01    3.190000e+00
  P6ah   TP3  1 3.950000e-01    3.430000e+00
  P4dh   TP3  1 3.950000e-01    3.190000e+00
  P5dh   TP3  1 3.950000e-01    3.190000e+00
  P6dh   TP3  1 3.950000e-01    3.430000e+00
   P6r   TP3  1 3.950000e-01    3.430000e+00
   P5r   TP3  1 3.950000e-01    3.190000e+00
   P4r   TP3  1 3.950000e-01    3.190000e+00
  P4ar   TP3  1 3.950000e-01    3.190000e+00
  P5ar   TP3  1 3.950000e-01    3.190000e+00
  P6ar   TP3  1 3.950000e-01    3.430000e+00
  P4dr   TP3  1 3.950000e-01    3.190000e+00
  P5dr   TP3  1 3.950000e-01    3.190000e+00
  P6dr   TP3  1 3.950000e-01    3.430000e+00
   TP3    P2  1 3.950000e-01    3.190000e+00
   TP3    P1  1 3.950000e-01    2.940000e+00
   TP3    N6  1 3.950000e-01    2.700000e+00
   TP3    N5  1 3.950000e-01    2.500000e+00
   TP3    N4  1 3.950000e-01    2.500000e+00
   TP3    N3  1 3.950000e-01    2.310000e+00
   TP3    N2  1 3.950000e-01    2.310000e+00
   TP3    N1  1 3.950000e-01    2.110000e+00
   TP3    C6  1 3.950000e-01    2.110000e+00
   TP3    C5  1 3.950000e-01    1.850000e+00
   TP3    C4  1 3.950000e-01    1.670000e+00
   TP3    C3  1 3.990000e-01    1.180000e+00
   TP3    C2  1 3.990000e-01    1.180000e+00
   TP3    C1  1 4.010000e-01    9.830000e-01
   TP3    X4  1 3.950000e-01    2.110000e+00
   TP3    X3  1 3.950000e-01    2.110000e+00
   TP3    X2  1 3.950000e-01    1.850000e+00
   TP3    X1  1 3.950000e-01    1.670000e+00
   TP3   P3d  1 3.950000e-01    3.190000e+00
   TP3   N1d  1 3.950000e-01    2.110000e+00
   TP3   N2d  1 3.950000e-01    2.310000e+00
   TP3   N3d  1 3.950000e-01    2.310000e+00
   TP3   N4d  1 3.950000e-01    2.500000e+00
   TP3   N5d  1 3.950000e-01    2.500000e+00
   TP3   N6d  1 3.950000e-01    2.700000e+00
   TP3   P1d  1 3.950000e-01    2.940000e+00
   TP3   P2d  1 3.950000e-01    3.190000e+00
   TP3   P3a  1 3.950000e-01    3.190000e+00
   TP3   N1a  1 3.950000e-01    2.110000e+00
   TP3   N2a  1 3.950000e-01    2.310000e+00
   TP3   N3a  1 3.950000e-01    2.310000e+00
   TP3   N4a  1 3.950000e-01    2.500000e+00
   TP3   N5a  1 3.950000e-01    2.500000e+00
   TP3   N6a  1 3.950000e-01    2.700000e+00
   TP3   P1a  1 3.950000e-01    2.940000e+00
   TP3   P2a  1 3.950000e-01    3.190000e+00
   TP3   C6v  1 3.950000e-01    2.310000e+00
   TP3   C5v  1 3.950000e-01    2.110000e+00
   TP3   C4v  1 3.950000e-01    1.850000e+00
   TP3   C3v  1 3.980000e-01    1.450000e+00
   TP3   C2v  1 3.980000e-01    1.450000e+00
   TP3   C1v  1 3.990000e-01    1.180000e+00
   TP3   X4v  1 3.950000e-01    2.310000e+00
   TP3   X3v  1 3.950000e-01    2.310000e+00
   TP3   X2v  1 3.950000e-01    2.110000e+00
   TP3   X1v  1 3.950000e-01    1.850000e+00
   TP3   C6e  1 3.950000e-01    2.310000e+00
   TP3   C5e  1 3.950000e-01    2.110000e+00
   TP3   C4e  1 3.950000e-01    1.850000e+00
   TP3   C3e  1 3.980000e-01    1.450000e+00
   TP3   C2e  1 3.980000e-01    1.450000e+00
   TP3   C1e  1 3.990000e-01    1.180000e+00
   TP3   X4e  1 3.950000e-01    2.310000e+00
   TP3   X3e  1 3.950000e-01    2.310000e+00
   TP3   X2e  1 3.950000e-01    2.110000e+00
   TP3   X1e  1 3.950000e-01    1.850000e+00
   TP3   P3q  1 3.950000e-01    3.670000e+00
   TP3  X1eq  1 3.950000e-01    2.310000e+00
   TP3  X2eq  1 3.950000e-01    2.500000e+00
   TP3  X3eq  1 3.950000e-01    2.700000e+00
   TP3  X4eq  1 3.950000e-01    2.700000e+00
   TP3  C1eq  1 3.950000e-01    1.670000e+00
   TP3  C2eq  1 3.950000e-01    1.850000e+00
   TP3  C3eq  1 3.950000e-01    1.850000e+00
   TP3  C4eq  1 3.950000e-01    2.310000e+00
   TP3  C5eq  1 3.950000e-01    2.500000e+00
   TP3  C6eq  1 3.950000e-01    2.700000e+00
   TP3  X1vq  1 3.950000e-01    2.310000e+00
   TP3  X2vq  1 3.950000e-01    2.500000e+00
   TP3  X3vq  1 3.950000e-01    2.700000e+00
   TP3  X4vq  1 3.950000e-01    2.700000e+00
   TP3  C1vq  1 3.950000e-01    1.670000e+00
   TP3  C2vq  1 3.950000e-01    1.850000e+00
   TP3  C3vq  1 3.950000e-01    1.850000e+00
   TP3  C4vq  1 3.950000e-01    2.310000e+00
   TP3  C5vq  1 3.950000e-01    2.500000e+00
   TP3  C6vq  1 3.950000e-01    2.700000e+00
   TP3  N1aq  1 3.950000e-01    2.500000e+00
   TP3  N2aq  1 3.950000e-01    2.700000e+00
   TP3  N3aq  1 3.950000e-01    2.700000e+00
   TP3  N4aq  1 3.950000e-01    2.940000e+00
   TP3  N5aq  1 3.950000e-01    2.940000e+00
   TP3  N6aq  1 3.950000e-01    3.190000e+00
   TP3  P1aq  1 3.950000e-01    3.430000e+00
   TP3  P2aq  1 3.950000e-01    3.670000e+00
   TP3  P3aq  1 3.950000e-01    3.670000e+00
   TP3  N1dq  1 3.950000e-01    2.500000e+00
   TP3  N2dq  1 3.950000e-01    2.700000e+00
   TP3  N3dq  1 3.950000e-01    2.700000e+00
   TP3  N4dq  1 3.950000e-01    2.940000e+00
   TP3  N5dq  1 3.950000e-01    2.940000e+00
   TP3  N6dq  1 3.950000e-01    3.190000e+00
   TP3  P1dq  1 3.950000e-01    3.430000e+00
   TP3  P2dq  1 3.950000e-01    3.670000e+00
   TP3  P3dq  1 3.950000e-01    3.670000e+00
   TP3   X1q  1 3.950000e-01    2.110000e+00
   TP3   X2q  1 3.950000e-01    2.310000e+00
   TP3   X3q  1 3.950000e-01    2.500000e+00
   TP3   X4q  1 3.950000e-01    2.500000e+00
   TP3   C1q  1 3.980000e-01    1.450000e+00
   TP3   C2q  1 3.950000e-01    1.670000e+00
   TP3   C3q  1 3.950000e-01    1.670000e+00
   TP3   C4q  1 3.950000e-01    2.110000e+00
   TP3   C5q  1 3.950000e-01    2.310000e+00
   TP3   C6q  1 3.950000e-01    2.500000e+00
   TP3   N1q  1 3.950000e-01    2.500000e+00
   TP3   N2q  1 3.950000e-01    2.700000e+00
   TP3   N3q  1 3.950000e-01    2.700000e+00
   TP3   N4q  1 3.950000e-01    2.940000e+00
   TP3   N5q  1 3.950000e-01    2.940000e+00
   TP3   N6q  1 3.950000e-01    3.190000e+00
   TP3   P1q  1 3.950000e-01    3.430000e+00
   TP3   P2q  1 3.950000e-01    3.670000e+00
   TP3   P3h  1 3.950000e-01    3.190000e+00
   TP3  X1eh  1 3.950000e-01    1.850000e+00
   TP3  X2eh  1 3.950000e-01    2.110000e+00
   TP3  X3eh  1 3.950000e-01    2.310000e+00
   TP3  X4eh  1 3.950000e-01    2.310000e+00
   TP3  C1eh  1 3.990000e-01    1.180000e+00
   TP3  C2eh  1 3.980000e-01    1.450000e+00
   TP3  C3eh  1 3.980000e-01    1.450000e+00
   TP3  C4eh  1 3.950000e-01    1.850000e+00
   TP3  C5eh  1 3.950000e-01    2.110000e+00
   TP3  C6eh  1 3.950000e-01    2.310000e+00
   TP3  X1vh  1 3.950000e-01    1.850000e+00
   TP3  X2vh  1 3.950000e-01    2.110000e+00
   TP3  X3vh  1 3.950000e-01    2.310000e+00
   TP3  X4vh  1 3.950000e-01    2.310000e+00
   TP3  C1vh  1 3.990000e-01    1.180000e+00
   TP3  C2vh  1 3.980000e-01    1.450000e+00
   TP3  C3vh  1 3.980000e-01    1.450000e+00
   TP3  C4vh  1 3.950000e-01    1.850000e+00
   TP3  C5vh  1 3.950000e-01    2.110000e+00
   TP3  C6vh  1 3.950000e-01    2.310000e+00
   TP3  N1ah  1 3.950000e-01    2.110000e+00
   TP3  N2ah  1 3.950000e-01    2.310000e+00
   TP3  N3ah  1 3.950000e-01    2.310000e+00
   TP3  N4ah  1 3.950000e-01    2.500000e+00
   TP3  N5ah  1 3.950000e-01    2.500000e+00
   TP3  N6ah  1 3.950000e-01    2.700000e+00
   TP3  P1ah  1 3.950000e-01    2.940000e+00
   TP3  P2ah  1 3.950000e-01    3.190000e+00
   TP3  P3ah  1 3.950000e-01    3.190000e+00
   TP3  N1dh  1 3.950000e-01    2.110000e+00
   TP3  N2dh  1 3.950000e-01    2.310000e+00
   TP3  N3dh  1 3.950000e-01    2.310000e+00
   TP3  N4dh  1 3.950000e-01    2.500000e+00
   TP3  N5dh  1 3.950000e-01    2.500000e+00
   TP3  N6dh  1 3.950000e-01    2.700000e+00
   TP3  P1dh  1 3.950000e-01    2.940000e+00
   TP3  P2dh  1 3.950000e-01    3.190000e+00
   TP3  P3dh  1 3.950000e-01    3.190000e+00
   TP3   X1h  1 3.950000e-01    1.670000e+00
   TP3   X2h  1 3.950000e-01    1.850000e+00
   TP3   X3h  1 3.950000e-01    2.110000e+00
   TP3   X4h  1 3.950000e-01    2.110000e+00
   TP3   C1h  1 4.010000e-01    9.830000e-01
   TP3   C2h  1 3.990000e-01    1.180000e+00
   TP3   C3h  1 3.990000e-01    1.180000e+00
   TP3   C4h  1 3.950000e-01    1.670000e+00
   TP3   C5h  1 3.950000e-01    1.850000e+00
   TP3   C6h  1 3.950000e-01    2.110000e+00
   TP3   N1h  1 3.950000e-01    2.110000e+00
   TP3   N2h  1 3.950000e-01    2.310000e+00
   TP3   N3h  1 3.950000e-01    2.310000e+00
   TP3   N4h  1 3.950000e-01    2.500000e+00
   TP3   N5h  1 3.950000e-01    2.500000e+00
   TP3   N6h  1 3.950000e-01    2.700000e+00
   TP3   P1h  1 3.950000e-01    2.940000e+00
   TP3   P2h  1 3.950000e-01    3.190000e+00
   TP3   P3r  1 3.950000e-01    3.190000e+00
   TP3  X1er  1 3.950000e-01    1.850000e+00
   TP3  X2er  1 3.950000e-01    2.110000e+00
   TP3  X3er  1 3.950000e-01    2.310000e+00
   TP3  X4er  1 3.950000e-01    2.310000e+00
   TP3  C1er  1 3.990000e-01    1.180000e+00
   TP3  C2er  1 3.980000e-01    1.450000e+00
   TP3  C3er  1 3.980000e-01    1.450000e+00
   TP3  C4er  1 3.950000e-01    1.850000e+00
   TP3  C5er  1 3.950000e-01    2.110000e+00
   TP3  C6er  1 3.950000e-01    2.310000e+00
   TP3  X1vr  1 3.950000e-01    1.850000e+00
   TP3  X2vr  1 3.950000e-01    2.110000e+00
   TP3  X3vr  1 3.950000e-01    2.310000e+00
   TP3  X4vr  1 3.950000e-01    2.310000e+00
   TP3  C1vr  1 3.990000e-01    1.180000e+00
   TP3  C2vr  1 3.980000e-01    1.450000e+00
   TP3  C3vr  1 3.980000e-01    1.450000e+00
   TP3  C4vr  1 3.950000e-01    1.850000e+00
   TP3  C5vr  1 3.950000e-01    2.110000e+00
   TP3  C6vr  1 3.950000e-01    2.310000e+00
   TP3  N1ar  1 3.950000e-01    2.110000e+00
   TP3  N2ar  1 3.950000e-01    2.310000e+00
   TP3  N3ar  1 3.950000e-01    2.310000e+00
   TP3  N4ar  1 3.950000e-01    2.500000e+00
   TP3  N5ar  1 3.950000e-01    2.500000e+00
   TP3  N6ar  1 3.950000e-01    2.700000e+00
   TP3  P1ar  1 3.950000e-01    2.940000e+00
   TP3  P2ar  1 3.950000e-01    3.190000e+00
   TP3  P3ar  1 3.950000e-01    3.190000e+00
   TP3  N1dr  1 3.950000e-01    2.110000e+00
   TP3  N2dr  1 3.950000e-01    2.310000e+00
   TP3  N3dr  1 3.950000e-01    2.310000e+00
   TP3  N4dr  1 3.950000e-01    2.500000e+00
   TP3  N5dr  1 3.950000e-01    2.500000e+00
   TP3  N6dr  1 3.950000e-01    2.700000e+00
   TP3  P1dr  1 3.950000e-01    2.940000e+00
   TP3  P2dr  1 3.950000e-01    3.190000e+00
   TP3  P3dr  1 3.950000e-01    3.190000e+00
   TP3   X1r  1 3.950000e-01    1.670000e+00
   TP3   X2r  1 3.950000e-01    1.850000e+00
   TP3   X3r  1 3.950000e-01    2.110000e+00
   TP3   X4r  1 3.950000e-01    2.110000e+00
   TP3   C1r  1 4.010000e-01    9.830000e-01
   TP3   C2r  1 3.990000e-01    1.180000e+00
   TP3   C3r  1 3.990000e-01    1.180000e+00
   TP3   C4r  1 3.950000e-01    1.670000e+00
   TP3   C5r  1 3.950000e-01    1.850000e+00
   TP3   C6r  1 3.950000e-01    2.110000e+00
   TP3   N1r  1 3.950000e-01    2.110000e+00
   TP3   N2r  1 3.950000e-01    2.310000e+00
   TP3   N3r  1 3.950000e-01    2.310000e+00
   TP3   N4r  1 3.950000e-01    2.500000e+00
   TP3   N5r  1 3.950000e-01    2.500000e+00
   TP3   N6r  1 3.950000e-01    2.700000e+00
   TP3   P1r  1 3.950000e-01    2.940000e+00
   TP3   P2r  1 3.950000e-01    3.190000e+00
   TP3   TP3  1 3.400000e-01    2.500000e+00
   TP3   TP2  1 3.400000e-01    2.500000e+00
   TP3   TP1  1 3.400000e-01    2.280000e+00
   TP3   TN6  1 3.400000e-01    2.020000e+00
   TP3   TN5  1 3.400000e-01    1.770000e+00
   TP3   TN4  1 3.400000e-01    1.770000e+00
   TP3   TN3  1 3.400000e-01    1.510000e+00
   TP3   TN2  1 3.400000e-01    1.510000e+00
   TP3   TN1  1 3.400000e-01    1.230000e+00
   TP3   TC6  1 3.400000e-01    1.230000e+00
   TP3   TC5  1 3.520000e-01    1.050000e+00
   TP3   TC4  1 3.660000e-01    9.350000e-01
   TP3   TC3  1 4.110000e-01    8.010000e-01
   TP3   TC2  1 4.110000e-01    8.010000e-01
   TP3   TC1  1 4.240000e-01    7.760000e-01
   TP3   TX4  1 3.400000e-01    1.230000e+00
   TP3   TX3  1 3.400000e-01    1.230000e+00
   TP3   TX2  1 3.520000e-01    1.050000e+00
   TP3   TX1  1 3.660000e-01    9.350000e-01
  TP6d   TP3  1 3.400000e-01    2.740000e+00
  TP5d   TP3  1 3.400000e-01    2.500000e+00
  TP4d   TP3  1 3.400000e-01    2.500000e+00
   TP3  TP3d  1 3.400000e-01    2.500000e+00
   TP3  TN1d  1 3.400000e-01    1.230000e+00
   TP3  TN2d  1 3.400000e-01    1.510000e+00
   TP3  TN3d  1 3.400000e-01    1.510000e+00
   TP3  TN4d  1 3.400000e-01    1.770000e+00
   TP3  TN5d  1 3.400000e-01    1.770000e+00
   TP3  TN6d  1 3.400000e-01    2.020000e+00
   TP3  TP1d  1 3.400000e-01    2.280000e+00
   TP3  TP2d  1 3.400000e-01    2.500000e+00
  TP6a   TP3  1 3.400000e-01    2.740000e+00
  TP5a   TP3  1 3.400000e-01    2.500000e+00
  TP4a   TP3  1 3.400000e-01    2.500000e+00
   TP3  TP3a  1 3.400000e-01    2.500000e+00
   TP3  TN1a  1 3.400000e-01    1.230000e+00
   TP3  TN2a  1 3.400000e-01    1.510000e+00
   TP3  TN3a  1 3.400000e-01    1.510000e+00
   TP3  TN4a  1 3.400000e-01    1.770000e+00
   TP3  TN5a  1 3.400000e-01    1.770000e+00
   TP3  TN6a  1 3.400000e-01    2.020000e+00
   TP3  TP1a  1 3.400000e-01    2.280000e+00
   TP3  TP2a  1 3.400000e-01    2.500000e+00
   TP3  TC6v  1 3.400000e-01    1.510000e+00
   TP3  TC5v  1 3.400000e-01    1.230000e+00
   TP3  TC4v  1 3.520000e-01    1.050000e+00
   TP3  TC3v  1 3.850000e-01    8.550000e-01
   TP3  TC2v  1 3.850000e-01    8.550000e-01
   TP3  TC1v  1 4.110000e-01    8.010000e-01
   TP3  TX4v  1 3.400000e-01    1.510000e+00
   TP3  TX3v  1 3.400000e-01    1.510000e+00
   TP3  TX2v  1 3.400000e-01    1.230000e+00
   TP3  TX1v  1 3.520000e-01    1.050000e+00
   TP3  TC6e  1 3.400000e-01    1.510000e+00
   TP3  TC5e  1 3.400000e-01    1.230000e+00
   TP3  TC4e  1 3.520000e-01    1.050000e+00
   TP3  TC3e  1 3.850000e-01    8.550000e-01
   TP3  TC2e  1 3.850000e-01    8.550000e-01
   TP3  TC1e  1 4.110000e-01    8.010000e-01
   TP3  TX4e  1 3.400000e-01    1.510000e+00
   TP3  TX3e  1 3.400000e-01    1.510000e+00
   TP3  TX2e  1 3.400000e-01    1.230000e+00
   TP3  TX1e  1 3.520000e-01    1.050000e+00
  TP6q   TP3  1 3.400000e-01    3.220000e+00
  TP5q   TP3  1 3.400000e-01    2.990000e+00
  TP4q   TP3  1 3.400000e-01    2.990000e+00
   TP3  TP3q  1 3.400000e-01    2.990000e+00
   TP3 TX1eq  1 3.400000e-01    1.510000e+00
   TP3 TX2eq  1 3.400000e-01    1.770000e+00
   TP3 TX3eq  1 3.400000e-01    2.020000e+00
   TP3 TX4eq  1 3.400000e-01    2.020000e+00
   TP3 TC1eq  1 3.660000e-01    9.350000e-01
   TP3 TC2eq  1 3.520000e-01    1.050000e+00
   TP3 TC3eq  1 3.520000e-01    1.050000e+00
   TP3 TC4eq  1 3.400000e-01    1.510000e+00
   TP3 TC5eq  1 3.400000e-01    1.770000e+00
   TP3 TC6eq  1 3.400000e-01    2.020000e+00
   TP3 TX1vq  1 3.400000e-01    1.510000e+00
   TP3 TX2vq  1 3.400000e-01    1.770000e+00
   TP3 TX3vq  1 3.400000e-01    2.020000e+00
   TP3 TX4vq  1 3.400000e-01    2.020000e+00
   TP3 TC1vq  1 3.660000e-01    9.350000e-01
   TP3 TC2vq  1 3.520000e-01    1.050000e+00
   TP3 TC3vq  1 3.520000e-01    1.050000e+00
   TP3 TC4vq  1 3.400000e-01    1.510000e+00
   TP3 TC5vq  1 3.400000e-01    1.770000e+00
   TP3 TC6vq  1 3.400000e-01    2.020000e+00
   TP3 TN1aq  1 3.400000e-01    1.770000e+00
   TP3 TN2aq  1 3.400000e-01    2.020000e+00
   TP3 TN3aq  1 3.400000e-01    2.020000e+00
   TP3 TN4aq  1 3.400000e-01    2.280000e+00
   TP3 TN5aq  1 3.400000e-01    2.280000e+00
   TP3 TN6aq  1 3.400000e-01    2.500000e+00
   TP3 TP1aq  1 3.400000e-01    2.740000e+00
   TP3 TP2aq  1 3.400000e-01    2.990000e+00
   TP3 TP3aq  1 3.400000e-01    2.990000e+00
 TP4aq   TP3  1 3.400000e-01    2.990000e+00
 TP5aq   TP3  1 3.400000e-01    2.990000e+00
 TP6aq   TP3  1 3.400000e-01    3.220000e+00
   TP3 TN1dq  1 3.400000e-01    1.770000e+00
   TP3 TN2dq  1 3.400000e-01    2.020000e+00
   TP3 TN3dq  1 3.400000e-01    2.020000e+00
   TP3 TN4dq  1 3.400000e-01    2.280000e+00
   TP3 TN5dq  1 3.400000e-01    2.280000e+00
   TP3 TN6dq  1 3.400000e-01    2.500000e+00
   TP3 TP1dq  1 3.400000e-01    2.740000e+00
   TP3 TP2dq  1 3.400000e-01    2.990000e+00
   TP3 TP3dq  1 3.400000e-01    2.990000e+00
 TP4dq   TP3  1 3.400000e-01    2.990000e+00
 TP5dq   TP3  1 3.400000e-01    2.990000e+00
 TP6dq   TP3  1 3.400000e-01    3.220000e+00
   TP3  TX1q  1 3.400000e-01    1.230000e+00
   TP3  TX2q  1 3.400000e-01    1.510000e+00
   TP3  TX3q  1 3.400000e-01    1.770000e+00
   TP3  TX4q  1 3.400000e-01    1.770000e+00
   TP3  TC1q  1 3.850000e-01    8.550000e-01
   TP3  TC2q  1 3.660000e-01    9.350000e-01
   TP3  TC3q  1 3.660000e-01    9.350000e-01
   TP3  TC4q  1 3.400000e-01    1.230000e+00
   TP3  TC5q  1 3.400000e-01    1.510000e+00
   TP3  TC6q  1 3.400000e-01    1.770000e+00
   TP3  TN1q  1 3.400000e-01    1.770000e+00
   TP3  TN2q  1 3.400000e-01    2.020000e+00
   TP3  TN3q  1 3.400000e-01    2.020000e+00
   TP3  TN4q  1 3.400000e-01    2.280000e+00
   TP3  TN5q  1 3.400000e-01    2.280000e+00
   TP3  TN6q  1 3.400000e-01    2.500000e+00
   TP3  TP1q  1 3.400000e-01    2.740000e+00
   TP3  TP2q  1 3.400000e-01    2.990000e+00
  TP6h   TP3  1 3.400000e-01    2.740000e+00
  TP5h   TP3  1 3.400000e-01    2.500000e+00
  TP4h   TP3  1 3.400000e-01    2.500000e+00
   TP3  TP3h  1 3.400000e-01    2.500000e+00
   TP3 TX1eh  1 3.520000e-01    1.050000e+00
   TP3 TX2eh  1 3.400000e-01    1.230000e+00
   TP3 TX3eh  1 3.400000e-01    1.510000e+00
   TP3 TX4eh  1 3.400000e-01    1.510000e+00
   TP3 TC1eh  1 4.110000e-01    8.010000e-01
   TP3 TC2eh  1 3.850000e-01    8.550000e-01
   TP3 TC3eh  1 3.850000e-01    8.550000e-01
   TP3 TC4eh  1 3.520000e-01    1.050000e+00
   TP3 TC5eh  1 3.400000e-01    1.230000e+00
   TP3 TC6eh  1 3.400000e-01    1.510000e+00
   TP3 TX1vh  1 3.520000e-01    1.050000e+00
   TP3 TX2vh  1 3.400000e-01    1.230000e+00
   TP3 TX3vh  1 3.400000e-01    1.510000e+00
   TP3 TX4vh  1 3.400000e-01    1.510000e+00
   TP3 TC1vh  1 4.110000e-01    8.010000e-01
   TP3 TC2vh  1 3.850000e-01    8.550000e-01
   TP3 TC3vh  1 3.850000e-01    8.550000e-01
   TP3 TC4vh  1 3.520000e-01    1.050000e+00
   TP3 TC5vh  1 3.400000e-01    1.230000e+00
   TP3 TC6vh  1 3.400000e-01    1.510000e+00
   TP3 TN1ah  1 3.400000e-01    1.230000e+00
   TP3 TN2ah  1 3.400000e-01    1.510000e+00
   TP3 TN3ah  1 3.400000e-01    1.510000e+00
   TP3 TN4ah  1 3.400000e-01    1.770000e+00
   TP3 TN5ah  1 3.400000e-01    1.770000e+00
   TP3 TN6ah  1 3.400000e-01    2.020000e+00
   TP3 TP1ah  1 3.400000e-01    2.280000e+00
   TP3 TP2ah  1 3.400000e-01    2.500000e+00
   TP3 TP3ah  1 3.400000e-01    2.500000e+00
 TP4ah   TP3  1 3.400000e-01    2.500000e+00
 TP5ah   TP3  1 3.400000e-01    2.500000e+00
 TP6ah   TP3  1 3.400000e-01    2.740000e+00
   TP3 TN1dh  1 3.400000e-01    1.230000e+00
   TP3 TN2dh  1 3.400000e-01    1.510000e+00
   TP3 TN3dh  1 3.400000e-01    1.510000e+00
   TP3 TN4dh  1 3.400000e-01    1.770000e+00
   TP3 TN5dh  1 3.400000e-01    1.770000e+00
   TP3 TN6dh  1 3.400000e-01    2.020000e+00
   TP3 TP1dh  1 3.400000e-01    2.280000e+00
   TP3 TP2dh  1 3.400000e-01    2.500000e+00
   TP3 TP3dh  1 3.400000e-01    2.500000e+00
 TP4dh   TP3  1 3.400000e-01    2.500000e+00
 TP5dh   TP3  1 3.400000e-01    2.500000e+00
 TP6dh   TP3  1 3.400000e-01    2.740000e+00
   TP3  TX1h  1 3.660000e-01    9.350000e-01
   TP3  TX2h  1 3.520000e-01    1.050000e+00
   TP3  TX3h  1 3.400000e-01    1.230000e+00
   TP3  TX4h  1 3.400000e-01    1.230000e+00
   TP3  TC1h  1 4.240000e-01    7.760000e-01
   TP3  TC2h  1 4.110000e-01    8.010000e-01
   TP3  TC3h  1 4.110000e-01    8.010000e-01
   TP3  TC4h  1 3.660000e-01    9.350000e-01
   TP3  TC5h  1 3.520000e-01    1.050000e+00
   TP3  TC6h  1 3.400000e-01    1.230000e+00
   TP3  TN1h  1 3.400000e-01    1.230000e+00
   TP3  TN2h  1 3.400000e-01    1.510000e+00
   TP3  TN3h  1 3.400000e-01    1.510000e+00
   TP3  TN4h  1 3.400000e-01    1.770000e+00
   TP3  TN5h  1 3.400000e-01    1.770000e+00
   TP3  TN6h  1 3.400000e-01    2.020000e+00
   TP3  TP1h  1 3.400000e-01    2.280000e+00
   TP3  TP2h  1 3.400000e-01    2.500000e+00
  TP6r   TP3  1 3.400000e-01    2.740000e+00
  TP5r   TP3  1 3.400000e-01    2.500000e+00
  TP4r   TP3  1 3.400000e-01    2.500000e+00
   TP3  TP3r  1 3.400000e-01    2.500000e+00
   TP3 TX1er  1 3.520000e-01    1.050000e+00
   TP3 TX2er  1 3.400000e-01    1.230000e+00
   TP3 TX3er  1 3.400000e-01    1.510000e+00
   TP3 TX4er  1 3.400000e-01    1.510000e+00
   TP3 TC1er  1 4.110000e-01    8.010000e-01
   TP3 TC2er  1 3.850000e-01    8.550000e-01
   TP3 TC3er  1 3.850000e-01    8.550000e-01
   TP3 TC4er  1 3.520000e-01    1.050000e+00
   TP3 TC5er  1 3.400000e-01    1.230000e+00
   TP3 TC6er  1 3.400000e-01    1.510000e+00
   TP3 TX1vr  1 3.520000e-01    1.050000e+00
   TP3 TX2vr  1 3.400000e-01    1.230000e+00
   TP3 TX3vr  1 3.400000e-01    1.510000e+00
   TP3 TX4vr  1 3.400000e-01    1.510000e+00
   TP3 TC1vr  1 4.110000e-01    8.010000e-01
   TP3 TC2vr  1 3.850000e-01    8.550000e-01
   TP3 TC3vr  1 3.850000e-01    8.550000e-01
   TP3 TC4vr  1 3.520000e-01    1.050000e+00
   TP3 TC5vr  1 3.400000e-01    1.230000e+00
   TP3 TC6vr  1 3.400000e-01    1.510000e+00
   TP3 TN1ar  1 3.400000e-01    1.230000e+00
   TP3 TN2ar  1 3.400000e-01    1.510000e+00
   TP3 TN3ar  1 3.400000e-01    1.510000e+00
   TP3 TN4ar  1 3.400000e-01    1.770000e+00
   TP3 TN5ar  1 3.400000e-01    1.770000e+00
   TP3 TN6ar  1 3.400000e-01    2.020000e+00
   TP3 TP1ar  1 3.400000e-01    2.280000e+00
   TP3 TP2ar  1 3.400000e-01    2.500000e+00
   TP3 TP3ar  1 3.400000e-01    2.500000e+00
 TP4ar   TP3  1 3.400000e-01    2.500000e+00
 TP5ar   TP3  1 3.400000e-01    2.500000e+00
 TP6ar   TP3  1 3.400000e-01    2.740000e+00
   TP3 TN1dr  1 3.400000e-01    1.230000e+00
   TP3 TN2dr  1 3.400000e-01    1.510000e+00
   TP3 TN3dr  1 3.400000e-01    1.510000e+00
   TP3 TN4dr  1 3.400000e-01    1.770000e+00
   TP3 TN5dr  1 3.400000e-01    1.770000e+00
   TP3 TN6dr  1 3.400000e-01    2.020000e+00
   TP3 TP1dr  1 3.400000e-01    2.280000e+00
   TP3 TP2dr  1 3.400000e-01    2.500000e+00
   TP3 TP3dr  1 3.400000e-01    2.500000e+00
 TP4dr   TP3  1 3.400000e-01    2.500000e+00
 TP5dr   TP3  1 3.400000e-01    2.500000e+00
 TP6dr   TP3  1 3.400000e-01    2.740000e+00
   TP3  TX1r  1 3.660000e-01    9.350000e-01
   TP3  TX2r  1 3.520000e-01    1.050000e+00
   TP3  TX3r  1 3.400000e-01    1.230000e+00
   TP3  TX4r  1 3.400000e-01    1.230000e+00
   TP3  TC1r  1 4.240000e-01    7.760000e-01
   TP3  TC2r  1 4.110000e-01    8.010000e-01
   TP3  TC3r  1 4.110000e-01    8.010000e-01
   TP3  TC4r  1 3.660000e-01    9.350000e-01
   TP3  TC5r  1 3.520000e-01    1.050000e+00
   TP3  TC6r  1 3.400000e-01    1.230000e+00
   TP3  TN1r  1 3.400000e-01    1.230000e+00
   TP3  TN2r  1 3.400000e-01    1.510000e+00
   TP3  TN3r  1 3.400000e-01    1.510000e+00
   TP3  TN4r  1 3.400000e-01    1.770000e+00
   TP3  TN5r  1 3.400000e-01    1.770000e+00
   TP3  TN6r  1 3.400000e-01    2.020000e+00
   TP3  TP1r  1 3.400000e-01    2.280000e+00
   TP3  TP2r  1 3.400000e-01    2.500000e+00
  SP6d   TP3  1 3.650000e-01    3.100000e+00
  SP5d   TP3  1 3.650000e-01    2.830000e+00
  SP4d   TP3  1 3.650000e-01    2.830000e+00
  SP6a   TP3  1 3.650000e-01    3.100000e+00
  SP5a   TP3  1 3.650000e-01    2.830000e+00
  SP4a   TP3  1 3.650000e-01    2.830000e+00
  SP6q   TP3  1 3.650000e-01    3.640000e+00
  SP5q   TP3  1 3.650000e-01    3.370000e+00
  SP4q   TP3  1 3.650000e-01    3.370000e+00
 SP4aq   TP3  1 3.650000e-01    3.370000e+00
 SP5aq   TP3  1 3.650000e-01    3.370000e+00
 SP6aq   TP3  1 3.650000e-01    3.640000e+00
 SP4dq   TP3  1 3.650000e-01    3.370000e+00
 SP5dq   TP3  1 3.650000e-01    3.370000e+00
 SP6dq   TP3  1 3.650000e-01    3.640000e+00
  SP6h   TP3  1 3.650000e-01    3.100000e+00
  SP5h   TP3  1 3.650000e-01    2.830000e+00
  SP4h   TP3  1 3.650000e-01    2.830000e+00
 SP4ah   TP3  1 3.650000e-01    2.830000e+00
 SP5ah   TP3  1 3.650000e-01    2.830000e+00
 SP6ah   TP3  1 3.650000e-01    3.100000e+00
 SP4dh   TP3  1 3.650000e-01    2.830000e+00
 SP5dh   TP3  1 3.650000e-01    2.830000e+00
 SP6dh   TP3  1 3.650000e-01    3.100000e+00
  SP6r   TP3  1 3.650000e-01    3.100000e+00
  SP5r   TP3  1 3.650000e-01    2.830000e+00
  SP4r   TP3  1 3.650000e-01    2.830000e+00
 SP4ar   TP3  1 3.650000e-01    2.830000e+00
 SP5ar   TP3  1 3.650000e-01    2.830000e+00
 SP6ar   TP3  1 3.650000e-01    3.100000e+00
 SP4dr   TP3  1 3.650000e-01    2.830000e+00
 SP5dr   TP3  1 3.650000e-01    2.830000e+00
 SP6dr   TP3  1 3.650000e-01    3.100000e+00
   TP3   SP2  1 3.650000e-01    2.830000e+00
   TP3   SP1  1 3.650000e-01    2.570000e+00
   TP3   SN6  1 3.650000e-01    2.340000e+00
   TP3   SN5  1 3.650000e-01    2.110000e+00
   TP3   SN4  1 3.650000e-01    2.110000e+00
   TP3   SN3  1 3.650000e-01    1.910000e+00
   TP3   SN2  1 3.650000e-01    1.910000e+00
   TP3   SN1  1 3.650000e-01    1.750000e+00
   TP3   SC6  1 3.650000e-01    1.750000e+00
   TP3   SC5  1 3.660000e-01    1.600000e+00
   TP3   SC4  1 3.780000e-01    1.450000e+00
   TP3   SC3  1 4.040000e-01    1.130000e+00
   TP3   SC2  1 4.040000e-01    1.130000e+00
   TP3   SC1  1 4.090000e-01    1.080000e+00
   TP3   SX4  1 3.650000e-01    1.750000e+00
   TP3   SX3  1 3.650000e-01    1.750000e+00
   TP3   SX2  1 3.660000e-01    1.600000e+00
   TP3   SX1  1 3.780000e-01    1.450000e+00
   TP3  SP3d  1 3.650000e-01    2.830000e+00
   TP3  SN1d  1 3.650000e-01    1.750000e+00
   TP3  SN2d  1 3.650000e-01    1.910000e+00
   TP3  SN3d  1 3.650000e-01    1.910000e+00
   TP3  SN4d  1 3.650000e-01    2.110000e+00
   TP3  SN5d  1 3.650000e-01    2.110000e+00
   TP3  SN6d  1 3.650000e-01    2.340000e+00
   TP3  SP1d  1 3.650000e-01    2.570000e+00
   TP3  SP2d  1 3.650000e-01    2.830000e+00
   TP3  SP3a  1 3.650000e-01    2.830000e+00
   TP3  SN1a  1 3.650000e-01    1.750000e+00
   TP3  SN2a  1 3.650000e-01    1.910000e+00
   TP3  SN3a  1 3.650000e-01    1.910000e+00
   TP3  SN4a  1 3.650000e-01    2.110000e+00
   TP3  SN5a  1 3.650000e-01    2.110000e+00
   TP3  SN6a  1 3.650000e-01    2.340000e+00
   TP3  SP1a  1 3.650000e-01    2.570000e+00
   TP3  SP2a  1 3.650000e-01    2.830000e+00
   TP3  SC6v  1 3.650000e-01    1.910000e+00
   TP3  SC5v  1 3.650000e-01    1.750000e+00
   TP3  SC4v  1 3.660000e-01    1.600000e+00
   TP3  SC3v  1 3.940000e-01    1.290000e+00
   TP3  SC2v  1 3.940000e-01    1.290000e+00
   TP3  SC1v  1 4.040000e-01    1.130000e+00
   TP3  SX4v  1 3.650000e-01    1.910000e+00
   TP3  SX3v  1 3.650000e-01    1.910000e+00
   TP3  SX2v  1 3.650000e-01    1.750000e+00
   TP3  SX1v  1 3.660000e-01    1.600000e+00
   TP3  SC6e  1 3.650000e-01    1.910000e+00
   TP3  SC5e  1 3.650000e-01    1.750000e+00
   TP3  SC4e  1 3.660000e-01    1.600000e+00
   TP3  SC3e  1 3.940000e-01    1.290000e+00
   TP3  SC2e  1 3.940000e-01    1.290000e+00
   TP3  SC1e  1 4.040000e-01    1.130000e+00
   TP3  SX4e  1 3.650000e-01    1.910000e+00
   TP3  SX3e  1 3.650000e-01    1.910000e+00
   TP3  SX2e  1 3.650000e-01    1.750000e+00
   TP3  SX1e  1 3.660000e-01    1.600000e+00
   TP3  SP3q  1 3.650000e-01    3.370000e+00
   TP3 SX1eq  1 3.650000e-01    1.910000e+00
   TP3 SX2eq  1 3.650000e-01    2.110000e+00
   TP3 SX3eq  1 3.650000e-01    2.340000e+00
   TP3 SX4eq  1 3.650000e-01    2.340000e+00
   TP3 SC1eq  1 3.780000e-01    1.450000e+00
   TP3 SC2eq  1 3.660000e-01    1.600000e+00
   TP3 SC3eq  1 3.660000e-01    1.600000e+00
   TP3 SC4eq  1 3.650000e-01    1.910000e+00
   TP3 SC5eq  1 3.650000e-01    2.110000e+00
   TP3 SC6eq  1 3.650000e-01    2.340000e+00
   TP3 SX1vq  1 3.650000e-01    1.910000e+00
   TP3 SX2vq  1 3.650000e-01    2.110000e+00
   TP3 SX3vq  1 3.650000e-01    2.340000e+00
   TP3 SX4vq  1 3.650000e-01    2.340000e+00
   TP3 SC1vq  1 3.780000e-01    1.450000e+00
   TP3 SC2vq  1 3.660000e-01    1.600000e+00
   TP3 SC3vq  1 3.660000e-01    1.600000e+00
   TP3 SC4vq  1 3.650000e-01    1.910000e+00
   TP3 SC5vq  1 3.650000e-01    2.110000e+00
   TP3 SC6vq  1 3.650000e-01    2.340000e+00
   TP3 SN1aq  1 3.650000e-01    2.110000e+00
   TP3 SN2aq  1 3.650000e-01    2.340000e+00
   TP3 SN3aq  1 3.650000e-01    2.340000e+00
   TP3 SN4aq  1 3.650000e-01    2.570000e+00
   TP3 SN5aq  1 3.650000e-01    2.570000e+00
   TP3 SN6aq  1 3.650000e-01    2.830000e+00
   TP3 SP1aq  1 3.650000e-01    3.100000e+00
   TP3 SP2aq  1 3.650000e-01    3.370000e+00
   TP3 SP3aq  1 3.650000e-01    3.370000e+00
   TP3 SN1dq  1 3.650000e-01    2.110000e+00
   TP3 SN2dq  1 3.650000e-01    2.340000e+00
   TP3 SN3dq  1 3.650000e-01    2.340000e+00
   TP3 SN4dq  1 3.650000e-01    2.570000e+00
   TP3 SN5dq  1 3.650000e-01    2.570000e+00
   TP3 SN6dq  1 3.650000e-01    2.830000e+00
   TP3 SP1dq  1 3.650000e-01    3.100000e+00
   TP3 SP2dq  1 3.650000e-01    3.370000e+00
   TP3 SP3dq  1 3.650000e-01    3.370000e+00
   TP3  SX1q  1 3.650000e-01    1.750000e+00
   TP3  SX2q  1 3.650000e-01    1.910000e+00
   TP3  SX3q  1 3.650000e-01    2.110000e+00
   TP3  SX4q  1 3.650000e-01    2.110000e+00
   TP3  SC1q  1 3.940000e-01    1.290000e+00
   TP3  SC2q  1 3.780000e-01    1.450000e+00
   TP3  SC3q  1 3.780000e-01    1.450000e+00
   TP3  SC4q  1 3.650000e-01    1.750000e+00
   TP3  SC5q  1 3.650000e-01    1.910000e+00
   TP3  SC6q  1 3.650000e-01    2.110000e+00
   TP3  SN1q  1 3.650000e-01    2.110000e+00
   TP3  SN2q  1 3.650000e-01    2.340000e+00
   TP3  SN3q  1 3.650000e-01    2.340000e+00
   TP3  SN4q  1 3.650000e-01    2.570000e+00
   TP3  SN5q  1 3.650000e-01    2.570000e+00
   TP3  SN6q  1 3.650000e-01    2.830000e+00
   TP3  SP1q  1 3.650000e-01    3.100000e+00
   TP3  SP2q  1 3.650000e-01    3.370000e+00
   TP3  SP3h  1 3.650000e-01    2.830000e+00
   TP3 SX1eh  1 3.660000e-01    1.600000e+00
   TP3 SX2eh  1 3.650000e-01    1.750000e+00
   TP3 SX3eh  1 3.650000e-01    1.910000e+00
   TP3 SX4eh  1 3.650000e-01    1.910000e+00
   TP3 SC1eh  1 4.040000e-01    1.130000e+00
   TP3 SC2eh  1 3.940000e-01    1.290000e+00
   TP3 SC3eh  1 3.940000e-01    1.290000e+00
   TP3 SC4eh  1 3.660000e-01    1.600000e+00
   TP3 SC5eh  1 3.650000e-01    1.750000e+00
   TP3 SC6eh  1 3.650000e-01    1.910000e+00
   TP3 SX1vh  1 3.660000e-01    1.600000e+00
   TP3 SX2vh  1 3.650000e-01    1.750000e+00
   TP3 SX3vh  1 3.650000e-01    1.910000e+00
   TP3 SX4vh  1 3.650000e-01    1.910000e+00
   TP3 SC1vh  1 4.040000e-01    1.130000e+00
   TP3 SC2vh  1 3.940000e-01    1.290000e+00
   TP3 SC3vh  1 3.940000e-01    1.290000e+00
   TP3 SC4vh  1 3.660000e-01    1.600000e+00
   TP3 SC5vh  1 3.650000e-01    1.750000e+00
   TP3 SC6vh  1 3.650000e-01    1.910000e+00
   TP3 SN1ah  1 3.650000e-01    1.750000e+00
   TP3 SN2ah  1 3.650000e-01    1.910000e+00
   TP3 SN3ah  1 3.650000e-01    1.910000e+00
   TP3 SN4ah  1 3.650000e-01    2.110000e+00
   TP3 SN5ah  1 3.650000e-01    2.110000e+00
   TP3 SN6ah  1 3.650000e-01    2.340000e+00
   TP3 SP1ah  1 3.650000e-01    2.570000e+00
   TP3 SP2ah  1 3.650000e-01    2.830000e+00
   TP3 SP3ah  1 3.650000e-01    2.830000e+00
   TP3 SN1dh  1 3.650000e-01    1.750000e+00
   TP3 SN2dh  1 3.650000e-01    1.910000e+00
   TP3 SN3dh  1 3.650000e-01    1.910000e+00
   TP3 SN4dh  1 3.650000e-01    2.110000e+00
   TP3 SN5dh  1 3.650000e-01    2.110000e+00
   TP3 SN6dh  1 3.650000e-01    2.340000e+00
   TP3 SP1dh  1 3.650000e-01    2.570000e+00
   TP3 SP2dh  1 3.650000e-01    2.830000e+00
   TP3 SP3dh  1 3.650000e-01    2.830000e+00
   TP3  SX1h  1 3.780000e-01    1.450000e+00
   TP3  SX2h  1 3.660000e-01    1.600000e+00
   TP3  SX3h  1 3.650000e-01    1.750000e+00
   TP3  SX4h  1 3.650000e-01    1.750000e+00
   TP3  SC1h  1 4.090000e-01    1.080000e+00
   TP3  SC2h  1 4.040000e-01    1.130000e+00
   TP3  SC3h  1 4.040000e-01    1.130000e+00
   TP3  SC4h  1 3.780000e-01    1.450000e+00
   TP3  SC5h  1 3.660000e-01    1.600000e+00
   TP3  SC6h  1 3.650000e-01    1.750000e+00
   TP3  SN1h  1 3.650000e-01    1.750000e+00
   TP3  SN2h  1 3.650000e-01    1.910000e+00
   TP3  SN3h  1 3.650000e-01    1.910000e+00
   TP3  SN4h  1 3.650000e-01    2.110000e+00
   TP3  SN5h  1 3.650000e-01    2.110000e+00
   TP3  SN6h  1 3.650000e-01    2.340000e+00
   TP3  SP1h  1 3.650000e-01    2.570000e+00
   TP3  SP2h  1 3.650000e-01    2.830000e+00
   TP3  SP3r  1 3.650000e-01    2.830000e+00
   TP3 SX1er  1 3.660000e-01    1.600000e+00
   TP3 SX2er  1 3.650000e-01    1.750000e+00
   TP3 SX3er  1 3.650000e-01    1.910000e+00
   TP3 SX4er  1 3.650000e-01    1.910000e+00
   TP3 SC1er  1 4.040000e-01    1.130000e+00
   TP3 SC2er  1 3.940000e-01    1.290000e+00
   TP3 SC3er  1 3.940000e-01    1.290000e+00
   TP3 SC4er  1 3.660000e-01    1.600000e+00
   TP3 SC5er  1 3.650000e-01    1.750000e+00
   TP3 SC6er  1 3.650000e-01    1.910000e+00
   TP3 SX1vr  1 3.660000e-01    1.600000e+00
   TP3 SX2vr  1 3.650000e-01    1.750000e+00
   TP3 SX3vr  1 3.650000e-01    1.910000e+00
   TP3 SX4vr  1 3.650000e-01    1.910000e+00
   TP3 SC1vr  1 4.040000e-01    1.130000e+00
   TP3 SC2vr  1 3.940000e-01    1.290000e+00
   TP3 SC3vr  1 3.940000e-01    1.290000e+00
   TP3 SC4vr  1 3.660000e-01    1.600000e+00
   TP3 SC5vr  1 3.650000e-01    1.750000e+00
   TP3 SC6vr  1 3.650000e-01    1.910000e+00
   TP3 SN1ar  1 3.650000e-01    1.750000e+00
   TP3 SN2ar  1 3.650000e-01    1.910000e+00
   TP3 SN3ar  1 3.650000e-01    1.910000e+00
   TP3 SN4ar  1 3.650000e-01    2.110000e+00
   TP3 SN5ar  1 3.650000e-01    2.110000e+00
   TP3 SN6ar  1 3.650000e-01    2.340000e+00
   TP3 SP1ar  1 3.650000e-01    2.570000e+00
   TP3 SP2ar  1 3.650000e-01    2.830000e+00
   TP3 SP3ar  1 3.650000e-01    2.830000e+00
   TP3 SN1dr  1 3.650000e-01    1.750000e+00
   TP3 SN2dr  1 3.650000e-01    1.910000e+00
   TP3 SN3dr  1 3.650000e-01    1.910000e+00
   TP3 SN4dr  1 3.650000e-01    2.110000e+00
   TP3 SN5dr  1 3.650000e-01    2.110000e+00
   TP3 SN6dr  1 3.650000e-01    2.340000e+00
   TP3 SP1dr  1 3.650000e-01    2.570000e+00
   TP3 SP2dr  1 3.650000e-01    2.830000e+00
   TP3 SP3dr  1 3.650000e-01    2.830000e+00
   TP3  SX1r  1 3.780000e-01    1.450000e+00
   TP3  SX2r  1 3.660000e-01    1.600000e+00
   TP3  SX3r  1 3.650000e-01    1.750000e+00
   TP3  SX4r  1 3.650000e-01    1.750000e+00
   TP3  SC1r  1 4.090000e-01    1.080000e+00
   TP3  SC2r  1 4.040000e-01    1.130000e+00
   TP3  SC3r  1 4.040000e-01    1.130000e+00
   TP3  SC4r  1 3.780000e-01    1.450000e+00
   TP3  SC5r  1 3.660000e-01    1.600000e+00
   TP3  SC6r  1 3.650000e-01    1.750000e+00
   TP3  SN1r  1 3.650000e-01    1.750000e+00
   TP3  SN2r  1 3.650000e-01    1.910000e+00
   TP3  SN3r  1 3.650000e-01    1.910000e+00
   TP3  SN4r  1 3.650000e-01    2.110000e+00
   TP3  SN5r  1 3.650000e-01    2.110000e+00
   TP3  SN6r  1 3.650000e-01    2.340000e+00
   TP3  SP1r  1 3.650000e-01    2.570000e+00
   TP3  SP2r  1 3.650000e-01    2.830000e+00
    P2    P2  1 4.700000e-01    4.060000e+00
    P2    P1  1 4.700000e-01    3.880000e+00
    P2    N6  1 4.700000e-01    3.880000e+00
    P2    N5  1 4.700000e-01    3.690000e+00
    P2    N4  1 4.700000e-01    3.520000e+00
    P2    N3  1 4.700000e-01    3.390000e+00
    P2    N2  1 4.700000e-01    3.390000e+00
    P2    N1  1 4.700000e-01    3.390000e+00
    P2    C6  1 4.700000e-01    3.240000e+00
    P2    C5  1 4.700000e-01    3.070000e+00
    P2    C4  1 4.700000e-01    2.960000e+00
    P2    C3  1 4.700000e-01    2.790000e+00
    P2    C2  1 4.700000e-01    2.790000e+00
    P2    C1  1 4.700000e-01    2.620000e+00
    P2    X4  1 4.700000e-01    3.240000e+00
    P2    X3  1 4.700000e-01    3.240000e+00
    P2    X2  1 4.700000e-01    3.070000e+00
    P2    X1  1 4.700000e-01    2.960000e+00
   P6d    P2  1 4.700000e-01    4.250000e+00
   P5d    P2  1 4.700000e-01    4.060000e+00
   P4d    P2  1 4.700000e-01    4.060000e+00
   P3d    P2  1 4.700000e-01    4.060000e+00
    P2   P2d  1 4.700000e-01    4.060000e+00
    P2   N1d  1 4.700000e-01    3.390000e+00
    P2   N2d  1 4.700000e-01    3.390000e+00
    P2   N3d  1 4.700000e-01    3.390000e+00
    P2   N4d  1 4.700000e-01    3.520000e+00
    P2   N5d  1 4.700000e-01    3.690000e+00
    P2   N6d  1 4.700000e-01    3.880000e+00
    P2   P1d  1 4.700000e-01    3.880000e+00
   P6a    P2  1 4.700000e-01    4.250000e+00
   P5a    P2  1 4.700000e-01    4.060000e+00
   P4a    P2  1 4.700000e-01    4.060000e+00
   P3a    P2  1 4.700000e-01    4.060000e+00
    P2   P2a  1 4.700000e-01    4.060000e+00
    P2   N1a  1 4.700000e-01    3.390000e+00
    P2   N2a  1 4.700000e-01    3.390000e+00
    P2   N3a  1 4.700000e-01    3.390000e+00
    P2   N4a  1 4.700000e-01    3.520000e+00
    P2   N5a  1 4.700000e-01    3.690000e+00
    P2   N6a  1 4.700000e-01    3.880000e+00
    P2   P1a  1 4.700000e-01    3.880000e+00
    P2   C6v  1 4.700000e-01    3.390000e+00
    P2   C5v  1 4.700000e-01    3.240000e+00
    P2   C4v  1 4.700000e-01    3.070000e+00
    P2   C3v  1 4.700000e-01    2.960000e+00
    P2   C2v  1 4.700000e-01    2.960000e+00
    P2   C1v  1 4.700000e-01    2.790000e+00
    P2   X4v  1 4.700000e-01    3.390000e+00
    P2   X3v  1 4.700000e-01    3.390000e+00
    P2   X2v  1 4.700000e-01    3.240000e+00
    P2   X1v  1 4.700000e-01    3.070000e+00
    P2   C6e  1 4.700000e-01    3.390000e+00
    P2   C5e  1 4.700000e-01    3.240000e+00
    P2   C4e  1 4.700000e-01    3.070000e+00
    P2   C3e  1 4.700000e-01    2.960000e+00
    P2   C2e  1 4.700000e-01    2.960000e+00
    P2   C1e  1 4.700000e-01    2.790000e+00
    P2   X4e  1 4.700000e-01    3.390000e+00
    P2   X3e  1 4.700000e-01    3.390000e+00
    P2   X2e  1 4.700000e-01    3.240000e+00
    P2   X1e  1 4.700000e-01    3.070000e+00
   P6q    P2  1 4.700000e-01    4.730000e+00
   P5q    P2  1 4.700000e-01    4.480000e+00
   P4q    P2  1 4.700000e-01    4.480000e+00
   P3q    P2  1 4.700000e-01    4.480000e+00
    P2   P2q  1 4.700000e-01    4.480000e+00
    P2  X1eq  1 4.700000e-01    3.390000e+00
    P2  X2eq  1 4.700000e-01    3.520000e+00
    P2  X3eq  1 4.700000e-01    3.690000e+00
    P2  X4eq  1 4.700000e-01    3.690000e+00
    P2  C1eq  1 4.700000e-01    3.070000e+00
    P2  C2eq  1 4.700000e-01    3.240000e+00
    P2  C3eq  1 4.700000e-01    3.240000e+00
    P2  C4eq  1 4.700000e-01    3.390000e+00
    P2  C5eq  1 4.700000e-01    3.520000e+00
    P2  C6eq  1 4.700000e-01    3.690000e+00
    P2  X1vq  1 4.700000e-01    3.390000e+00
    P2  X2vq  1 4.700000e-01    3.520000e+00
    P2  X3vq  1 4.700000e-01    3.690000e+00
    P2  X4vq  1 4.700000e-01    3.690000e+00
    P2  C1vq  1 4.700000e-01    3.070000e+00
    P2  C2vq  1 4.700000e-01    3.240000e+00
    P2  C3vq  1 4.700000e-01    3.240000e+00
    P2  C4vq  1 4.700000e-01    3.390000e+00
    P2  C5vq  1 4.700000e-01    3.520000e+00
    P2  C6vq  1 4.700000e-01    3.690000e+00
    P2  N1aq  1 4.700000e-01    3.690000e+00
    P2  N2aq  1 4.700000e-01    3.690000e+00
    P2  N3aq  1 4.700000e-01    3.690000e+00
    P2  N4aq  1 4.700000e-01    3.880000e+00
    P2  N5aq  1 4.700000e-01    4.060000e+00
    P2  N6aq  1 4.700000e-01    4.250000e+00
    P2  P1aq  1 4.700000e-01    4.250000e+00
    P2  P2aq  1 4.700000e-01    4.480000e+00
  P3aq    P2  1 4.700000e-01    4.480000e+00
  P4aq    P2  1 4.700000e-01    4.480000e+00
  P5aq    P2  1 4.700000e-01    4.480000e+00
  P6aq    P2  1 4.700000e-01    4.730000e+00
    P2  N1dq  1 4.700000e-01    3.690000e+00
    P2  N2dq  1 4.700000e-01    3.690000e+00
    P2  N3dq  1 4.700000e-01    3.690000e+00
    P2  N4dq  1 4.700000e-01    3.880000e+00
    P2  N5dq  1 4.700000e-01    4.060000e+00
    P2  N6dq  1 4.700000e-01    4.250000e+00
    P2  P1dq  1 4.700000e-01    4.250000e+00
    P2  P2dq  1 4.700000e-01    4.480000e+00
  P3dq    P2  1 4.700000e-01    4.480000e+00
  P4dq    P2  1 4.700000e-01    4.480000e+00
  P5dq    P2  1 4.700000e-01    4.480000e+00
  P6dq    P2  1 4.700000e-01    4.730000e+00
    P2   X1q  1 4.700000e-01    3.240000e+00
    P2   X2q  1 4.700000e-01    3.390000e+00
    P2   X3q  1 4.700000e-01    3.520000e+00
    P2   X4q  1 4.700000e-01    3.520000e+00
    P2   C1q  1 4.700000e-01    2.960000e+00
    P2   C2q  1 4.700000e-01    3.070000e+00
    P2   C3q  1 4.700000e-01    3.070000e+00
    P2   C4q  1 4.700000e-01    3.240000e+00
    P2   C5q  1 4.700000e-01    3.390000e+00
    P2   C6q  1 4.700000e-01    3.520000e+00
    P2   N1q  1 4.700000e-01    3.690000e+00
    P2   N2q  1 4.700000e-01    3.690000e+00
    P2   N3q  1 4.700000e-01    3.690000e+00
    P2   N4q  1 4.700000e-01    3.880000e+00
    P2   N5q  1 4.700000e-01    4.060000e+00
    P2   N6q  1 4.700000e-01    4.250000e+00
    P2   P1q  1 4.700000e-01    4.250000e+00
   P6h    P2  1 4.700000e-01    4.250000e+00
   P5h    P2  1 4.700000e-01    4.060000e+00
   P4h    P2  1 4.700000e-01    4.060000e+00
   P3h    P2  1 4.700000e-01    4.060000e+00
    P2   P2h  1 4.700000e-01    4.060000e+00
    P2  X1eh  1 4.700000e-01    3.070000e+00
    P2  X2eh  1 4.700000e-01    3.240000e+00
    P2  X3eh  1 4.700000e-01    3.390000e+00
    P2  X4eh  1 4.700000e-01    3.390000e+00
    P2  C1eh  1 4.700000e-01    2.790000e+00
    P2  C2eh  1 4.700000e-01    2.960000e+00
    P2  C3eh  1 4.700000e-01    2.960000e+00
    P2  C4eh  1 4.700000e-01    3.070000e+00
    P2  C5eh  1 4.700000e-01    3.240000e+00
    P2  C6eh  1 4.700000e-01    3.390000e+00
    P2  X1vh  1 4.700000e-01    3.070000e+00
    P2  X2vh  1 4.700000e-01    3.240000e+00
    P2  X3vh  1 4.700000e-01    3.390000e+00
    P2  X4vh  1 4.700000e-01    3.390000e+00
    P2  C1vh  1 4.700000e-01    2.790000e+00
    P2  C2vh  1 4.700000e-01    2.960000e+00
    P2  C3vh  1 4.700000e-01    2.960000e+00
    P2  C4vh  1 4.700000e-01    3.070000e+00
    P2  C5vh  1 4.700000e-01    3.240000e+00
    P2  C6vh  1 4.700000e-01    3.390000e+00
    P2  N1ah  1 4.700000e-01    3.390000e+00
    P2  N2ah  1 4.700000e-01    3.390000e+00
    P2  N3ah  1 4.700000e-01    3.390000e+00
    P2  N4ah  1 4.700000e-01    3.520000e+00
    P2  N5ah  1 4.700000e-01    3.690000e+00
    P2  N6ah  1 4.700000e-01    3.880000e+00
    P2  P1ah  1 4.700000e-01    3.880000e+00
    P2  P2ah  1 4.700000e-01    4.060000e+00
  P3ah    P2  1 4.700000e-01    4.060000e+00
  P4ah    P2  1 4.700000e-01    4.060000e+00
  P5ah    P2  1 4.700000e-01    4.060000e+00
  P6ah    P2  1 4.700000e-01    4.250000e+00
    P2  N1dh  1 4.700000e-01    3.390000e+00
    P2  N2dh  1 4.700000e-01    3.390000e+00
    P2  N3dh  1 4.700000e-01    3.390000e+00
    P2  N4dh  1 4.700000e-01    3.520000e+00
    P2  N5dh  1 4.700000e-01    3.690000e+00
    P2  N6dh  1 4.700000e-01    3.880000e+00
    P2  P1dh  1 4.700000e-01    3.880000e+00
    P2  P2dh  1 4.700000e-01    4.060000e+00
  P3dh    P2  1 4.700000e-01    4.060000e+00
  P4dh    P2  1 4.700000e-01    4.060000e+00
  P5dh    P2  1 4.700000e-01    4.060000e+00
  P6dh    P2  1 4.700000e-01    4.250000e+00
    P2   X1h  1 4.700000e-01    2.960000e+00
    P2   X2h  1 4.700000e-01    3.070000e+00
    P2   X3h  1 4.700000e-01    3.240000e+00
    P2   X4h  1 4.700000e-01    3.240000e+00
    P2   C1h  1 4.700000e-01    2.620000e+00
    P2   C2h  1 4.700000e-01    2.790000e+00
    P2   C3h  1 4.700000e-01    2.790000e+00
    P2   C4h  1 4.700000e-01    2.960000e+00
    P2   C5h  1 4.700000e-01    3.070000e+00
    P2   C6h  1 4.700000e-01    3.240000e+00
    P2   N1h  1 4.700000e-01    3.390000e+00
    P2   N2h  1 4.700000e-01    3.390000e+00
    P2   N3h  1 4.700000e-01    3.390000e+00
    P2   N4h  1 4.700000e-01    3.520000e+00
    P2   N5h  1 4.700000e-01    3.690000e+00
    P2   N6h  1 4.700000e-01    3.880000e+00
    P2   P1h  1 4.700000e-01    3.880000e+00
   P6r    P2  1 4.700000e-01    4.250000e+00
   P5r    P2  1 4.700000e-01    4.060000e+00
   P4r    P2  1 4.700000e-01    4.060000e+00
   P3r    P2  1 4.700000e-01    4.060000e+00
    P2   P2r  1 4.700000e-01    4.060000e+00
    P2  X1er  1 4.700000e-01    3.070000e+00
    P2  X2er  1 4.700000e-01    3.240000e+00
    P2  X3er  1 4.700000e-01    3.390000e+00
    P2  X4er  1 4.700000e-01    3.390000e+00
    P2  C1er  1 4.700000e-01    2.790000e+00
    P2  C2er  1 4.700000e-01    2.960000e+00
    P2  C3er  1 4.700000e-01    2.960000e+00
    P2  C4er  1 4.700000e-01    3.070000e+00
    P2  C5er  1 4.700000e-01    3.240000e+00
    P2  C6er  1 4.700000e-01    3.390000e+00
    P2  X1vr  1 4.700000e-01    3.070000e+00
    P2  X2vr  1 4.700000e-01    3.240000e+00
    P2  X3vr  1 4.700000e-01    3.390000e+00
    P2  X4vr  1 4.700000e-01    3.390000e+00
    P2  C1vr  1 4.700000e-01    2.790000e+00
    P2  C2vr  1 4.700000e-01    2.960000e+00
    P2  C3vr  1 4.700000e-01    2.960000e+00
    P2  C4vr  1 4.700000e-01    3.070000e+00
    P2  C5vr  1 4.700000e-01    3.240000e+00
    P2  C6vr  1 4.700000e-01    3.390000e+00
    P2  N1ar  1 4.700000e-01    3.390000e+00
    P2  N2ar  1 4.700000e-01    3.390000e+00
    P2  N3ar  1 4.700000e-01    3.390000e+00
    P2  N4ar  1 4.700000e-01    3.520000e+00
    P2  N5ar  1 4.700000e-01    3.690000e+00
    P2  N6ar  1 4.700000e-01    3.880000e+00
    P2  P1ar  1 4.700000e-01    3.880000e+00
    P2  P2ar  1 4.700000e-01    4.060000e+00
  P3ar    P2  1 4.700000e-01    4.060000e+00
  P4ar    P2  1 4.700000e-01    4.060000e+00
  P5ar    P2  1 4.700000e-01    4.060000e+00
  P6ar    P2  1 4.700000e-01    4.250000e+00
    P2  N1dr  1 4.700000e-01    3.390000e+00
    P2  N2dr  1 4.700000e-01    3.390000e+00
    P2  N3dr  1 4.700000e-01    3.390000e+00
    P2  N4dr  1 4.700000e-01    3.520000e+00
    P2  N5dr  1 4.700000e-01    3.690000e+00
    P2  N6dr  1 4.700000e-01    3.880000e+00
    P2  P1dr  1 4.700000e-01    3.880000e+00
    P2  P2dr  1 4.700000e-01    4.060000e+00
  P3dr    P2  1 4.700000e-01    4.060000e+00
  P4dr    P2  1 4.700000e-01    4.060000e+00
  P5dr    P2  1 4.700000e-01    4.060000e+00
  P6dr    P2  1 4.700000e-01    4.250000e+00
    P2   X1r  1 4.700000e-01    2.960000e+00
    P2   X2r  1 4.700000e-01    3.070000e+00
    P2   X3r  1 4.700000e-01    3.240000e+00
    P2   X4r  1 4.700000e-01    3.240000e+00
    P2   C1r  1 4.700000e-01    2.620000e+00
    P2   C2r  1 4.700000e-01    2.790000e+00
    P2   C3r  1 4.700000e-01    2.790000e+00
    P2   C4r  1 4.700000e-01    2.960000e+00
    P2   C5r  1 4.700000e-01    3.070000e+00
    P2   C6r  1 4.700000e-01    3.240000e+00
    P2   N1r  1 4.700000e-01    3.390000e+00
    P2   N2r  1 4.700000e-01    3.390000e+00
    P2   N3r  1 4.700000e-01    3.390000e+00
    P2   N4r  1 4.700000e-01    3.520000e+00
    P2   N5r  1 4.700000e-01    3.690000e+00
    P2   N6r  1 4.700000e-01    3.880000e+00
    P2   P1r  1 4.700000e-01    3.880000e+00
    P2   SP2  1 4.300000e-01    3.770000e+00
    P2   SP1  1 4.300000e-01    3.590000e+00
    P2   SN6  1 4.300000e-01    3.590000e+00
    P2   SN5  1 4.300000e-01    3.380000e+00
    P2   SN4  1 4.300000e-01    3.160000e+00
    P2   SN3  1 4.300000e-01    2.920000e+00
    P2   SN2  1 4.300000e-01    2.920000e+00
    P2   SN1  1 4.300000e-01    2.920000e+00
    P2   SC6  1 4.300000e-01    2.770000e+00
    P2   SC5  1 4.300000e-01    2.530000e+00
    P2   SC4  1 4.300000e-01    2.320000e+00
    P2   SC3  1 4.300000e-01    2.160000e+00
    P2   SC2  1 4.300000e-01    2.160000e+00
    P2   SC1  1 4.300000e-01    1.930000e+00
    P2   SX4  1 4.300000e-01    2.770000e+00
    P2   SX3  1 4.300000e-01    2.770000e+00
    P2   SX2  1 4.300000e-01    2.530000e+00
    P2   SX1  1 4.300000e-01    2.320000e+00
    P2  SP2d  1 4.300000e-01    3.770000e+00
    P2  SN1d  1 4.300000e-01    2.920000e+00
    P2  SN2d  1 4.300000e-01    2.920000e+00
    P2  SN3d  1 4.300000e-01    2.920000e+00
    P2  SN4d  1 4.300000e-01    3.160000e+00
    P2  SN5d  1 4.300000e-01    3.380000e+00
    P2  SN6d  1 4.300000e-01    3.590000e+00
    P2  SP1d  1 4.300000e-01    3.590000e+00
    P2  SP2a  1 4.300000e-01    3.770000e+00
    P2  SN1a  1 4.300000e-01    2.920000e+00
    P2  SN2a  1 4.300000e-01    2.920000e+00
    P2  SN3a  1 4.300000e-01    2.920000e+00
    P2  SN4a  1 4.300000e-01    3.160000e+00
    P2  SN5a  1 4.300000e-01    3.380000e+00
    P2  SN6a  1 4.300000e-01    3.590000e+00
    P2  SP1a  1 4.300000e-01    3.590000e+00
    P2  SC6v  1 4.300000e-01    2.920000e+00
    P2  SC5v  1 4.300000e-01    2.770000e+00
    P2  SC4v  1 4.300000e-01    2.530000e+00
    P2  SC3v  1 4.300000e-01    2.320000e+00
    P2  SC2v  1 4.300000e-01    2.320000e+00
    P2  SC1v  1 4.300000e-01    2.160000e+00
    P2  SX4v  1 4.300000e-01    2.920000e+00
    P2  SX3v  1 4.300000e-01    2.920000e+00
    P2  SX2v  1 4.300000e-01    2.770000e+00
    P2  SX1v  1 4.300000e-01    2.530000e+00
    P2  SC6e  1 4.300000e-01    2.920000e+00
    P2  SC5e  1 4.300000e-01    2.770000e+00
    P2  SC4e  1 4.300000e-01    2.530000e+00
    P2  SC3e  1 4.300000e-01    2.320000e+00
    P2  SC2e  1 4.300000e-01    2.320000e+00
    P2  SC1e  1 4.300000e-01    2.160000e+00
    P2  SX4e  1 4.300000e-01    2.920000e+00
    P2  SX3e  1 4.300000e-01    2.920000e+00
    P2  SX2e  1 4.300000e-01    2.770000e+00
    P2  SX1e  1 4.300000e-01    2.530000e+00
    P2  SP2q  1 4.300000e-01    4.170000e+00
    P2 SX1eq  1 4.300000e-01    2.920000e+00
    P2 SX2eq  1 4.300000e-01    3.160000e+00
    P2 SX3eq  1 4.300000e-01    3.380000e+00
    P2 SX4eq  1 4.300000e-01    3.380000e+00
    P2 SC1eq  1 4.300000e-01    2.530000e+00
    P2 SC2eq  1 4.300000e-01    2.770000e+00
    P2 SC3eq  1 4.300000e-01    2.770000e+00
    P2 SC4eq  1 4.300000e-01    2.920000e+00
    P2 SC5eq  1 4.300000e-01    3.160000e+00
    P2 SC6eq  1 4.300000e-01    3.380000e+00
    P2 SX1vq  1 4.300000e-01    2.920000e+00
    P2 SX2vq  1 4.300000e-01    3.160000e+00
    P2 SX3vq  1 4.300000e-01    3.380000e+00
    P2 SX4vq  1 4.300000e-01    3.380000e+00
    P2 SC1vq  1 4.300000e-01    2.530000e+00
    P2 SC2vq  1 4.300000e-01    2.770000e+00
    P2 SC3vq  1 4.300000e-01    2.770000e+00
    P2 SC4vq  1 4.300000e-01    2.920000e+00
    P2 SC5vq  1 4.300000e-01    3.160000e+00
    P2 SC6vq  1 4.300000e-01    3.380000e+00
    P2 SN1aq  1 4.300000e-01    3.380000e+00
    P2 SN2aq  1 4.300000e-01    3.380000e+00
    P2 SN3aq  1 4.300000e-01    3.380000e+00
    P2 SN4aq  1 4.300000e-01    3.590000e+00
    P2 SN5aq  1 4.300000e-01    3.770000e+00
    P2 SN6aq  1 4.300000e-01    3.970000e+00
    P2 SP1aq  1 4.300000e-01    3.970000e+00
    P2 SP2aq  1 4.300000e-01    4.170000e+00
    P2 SN1dq  1 4.300000e-01    3.380000e+00
    P2 SN2dq  1 4.300000e-01    3.380000e+00
    P2 SN3dq  1 4.300000e-01    3.380000e+00
    P2 SN4dq  1 4.300000e-01    3.590000e+00
    P2 SN5dq  1 4.300000e-01    3.770000e+00
    P2 SN6dq  1 4.300000e-01    3.970000e+00
    P2 SP1dq  1 4.300000e-01    3.970000e+00
    P2 SP2dq  1 4.300000e-01    4.170000e+00
    P2  SX1q  1 4.300000e-01    2.770000e+00
    P2  SX2q  1 4.300000e-01    2.920000e+00
    P2  SX3q  1 4.300000e-01    3.160000e+00
    P2  SX4q  1 4.300000e-01    3.160000e+00
    P2  SC1q  1 4.300000e-01    2.320000e+00
    P2  SC2q  1 4.300000e-01    2.530000e+00
    P2  SC3q  1 4.300000e-01    2.530000e+00
    P2  SC4q  1 4.300000e-01    2.770000e+00
    P2  SC5q  1 4.300000e-01    2.920000e+00
    P2  SC6q  1 4.300000e-01    3.160000e+00
    P2  SN1q  1 4.300000e-01    3.380000e+00
    P2  SN2q  1 4.300000e-01    3.380000e+00
    P2  SN3q  1 4.300000e-01    3.380000e+00
    P2  SN4q  1 4.300000e-01    3.590000e+00
    P2  SN5q  1 4.300000e-01    3.770000e+00
    P2  SN6q  1 4.300000e-01    3.970000e+00
    P2  SP1q  1 4.300000e-01    3.970000e+00
    P2  SP2h  1 4.300000e-01    3.770000e+00
    P2 SX1eh  1 4.300000e-01    2.530000e+00
    P2 SX2eh  1 4.300000e-01    2.770000e+00
    P2 SX3eh  1 4.300000e-01    2.920000e+00
    P2 SX4eh  1 4.300000e-01    2.920000e+00
    P2 SC1eh  1 4.300000e-01    2.160000e+00
    P2 SC2eh  1 4.300000e-01    2.320000e+00
    P2 SC3eh  1 4.300000e-01    2.320000e+00
    P2 SC4eh  1 4.300000e-01    2.530000e+00
    P2 SC5eh  1 4.300000e-01    2.770000e+00
    P2 SC6eh  1 4.300000e-01    2.920000e+00
    P2 SX1vh  1 4.300000e-01    2.530000e+00
    P2 SX2vh  1 4.300000e-01    2.770000e+00
    P2 SX3vh  1 4.300000e-01    2.920000e+00
    P2 SX4vh  1 4.300000e-01    2.920000e+00
    P2 SC1vh  1 4.300000e-01    2.160000e+00
    P2 SC2vh  1 4.300000e-01    2.320000e+00
    P2 SC3vh  1 4.300000e-01    2.320000e+00
    P2 SC4vh  1 4.300000e-01    2.530000e+00
    P2 SC5vh  1 4.300000e-01    2.770000e+00
    P2 SC6vh  1 4.300000e-01    2.920000e+00
    P2 SN1ah  1 4.300000e-01    2.920000e+00
    P2 SN2ah  1 4.300000e-01    2.920000e+00
    P2 SN3ah  1 4.300000e-01    2.920000e+00
    P2 SN4ah  1 4.300000e-01    3.160000e+00
    P2 SN5ah  1 4.300000e-01    3.380000e+00
    P2 SN6ah  1 4.300000e-01    3.590000e+00
    P2 SP1ah  1 4.300000e-01    3.590000e+00
    P2 SP2ah  1 4.300000e-01    3.770000e+00
    P2 SN1dh  1 4.300000e-01    2.920000e+00
    P2 SN2dh  1 4.300000e-01    2.920000e+00
    P2 SN3dh  1 4.300000e-01    2.920000e+00
    P2 SN4dh  1 4.300000e-01    3.160000e+00
    P2 SN5dh  1 4.300000e-01    3.380000e+00
    P2 SN6dh  1 4.300000e-01    3.590000e+00
    P2 SP1dh  1 4.300000e-01    3.590000e+00
    P2 SP2dh  1 4.300000e-01    3.770000e+00
    P2  SX1h  1 4.300000e-01    2.320000e+00
    P2  SX2h  1 4.300000e-01    2.530000e+00
    P2  SX3h  1 4.300000e-01    2.770000e+00
    P2  SX4h  1 4.300000e-01    2.770000e+00
    P2  SC1h  1 4.300000e-01    1.930000e+00
    P2  SC2h  1 4.300000e-01    2.160000e+00
    P2  SC3h  1 4.300000e-01    2.160000e+00
    P2  SC4h  1 4.300000e-01    2.320000e+00
    P2  SC5h  1 4.300000e-01    2.530000e+00
    P2  SC6h  1 4.300000e-01    2.770000e+00
    P2  SN1h  1 4.300000e-01    2.920000e+00
    P2  SN2h  1 4.300000e-01    2.920000e+00
    P2  SN3h  1 4.300000e-01    2.920000e+00
    P2  SN4h  1 4.300000e-01    3.160000e+00
    P2  SN5h  1 4.300000e-01    3.380000e+00
    P2  SN6h  1 4.300000e-01    3.590000e+00
    P2  SP1h  1 4.300000e-01    3.590000e+00
    P2  SP2r  1 4.300000e-01    3.770000e+00
    P2 SX1er  1 4.300000e-01    2.530000e+00
    P2 SX2er  1 4.300000e-01    2.770000e+00
    P2 SX3er  1 4.300000e-01    2.920000e+00
    P2 SX4er  1 4.300000e-01    2.920000e+00
    P2 SC1er  1 4.300000e-01    2.160000e+00
    P2 SC2er  1 4.300000e-01    2.320000e+00
    P2 SC3er  1 4.300000e-01    2.320000e+00
    P2 SC4er  1 4.300000e-01    2.530000e+00
    P2 SC5er  1 4.300000e-01    2.770000e+00
    P2 SC6er  1 4.300000e-01    2.920000e+00
    P2 SX1vr  1 4.300000e-01    2.530000e+00
    P2 SX2vr  1 4.300000e-01    2.770000e+00
    P2 SX3vr  1 4.300000e-01    2.920000e+00
    P2 SX4vr  1 4.300000e-01    2.920000e+00
    P2 SC1vr  1 4.300000e-01    2.160000e+00
    P2 SC2vr  1 4.300000e-01    2.320000e+00
    P2 SC3vr  1 4.300000e-01    2.320000e+00
    P2 SC4vr  1 4.300000e-01    2.530000e+00
    P2 SC5vr  1 4.300000e-01    2.770000e+00
    P2 SC6vr  1 4.300000e-01    2.920000e+00
    P2 SN1ar  1 4.300000e-01    2.920000e+00
    P2 SN2ar  1 4.300000e-01    2.920000e+00
    P2 SN3ar  1 4.300000e-01    2.920000e+00
    P2 SN4ar  1 4.300000e-01    3.160000e+00
    P2 SN5ar  1 4.300000e-01    3.380000e+00
    P2 SN6ar  1 4.300000e-01    3.590000e+00
    P2 SP1ar  1 4.300000e-01    3.590000e+00
    P2 SP2ar  1 4.300000e-01    3.770000e+00
    P2 SN1dr  1 4.300000e-01    2.920000e+00
    P2 SN2dr  1 4.300000e-01    2.920000e+00
    P2 SN3dr  1 4.300000e-01    2.920000e+00
    P2 SN4dr  1 4.300000e-01    3.160000e+00
    P2 SN5dr  1 4.300000e-01    3.380000e+00
    P2 SN6dr  1 4.300000e-01    3.590000e+00
    P2 SP1dr  1 4.300000e-01    3.590000e+00
    P2 SP2dr  1 4.300000e-01    3.770000e+00
    P2  SX1r  1 4.300000e-01    2.320000e+00
    P2  SX2r  1 4.300000e-01    2.530000e+00
    P2  SX3r  1 4.300000e-01    2.770000e+00
    P2  SX4r  1 4.300000e-01    2.770000e+00
    P2  SC1r  1 4.300000e-01    1.930000e+00
    P2  SC2r  1 4.300000e-01    2.160000e+00
    P2  SC3r  1 4.300000e-01    2.160000e+00
    P2  SC4r  1 4.300000e-01    2.320000e+00
    P2  SC5r  1 4.300000e-01    2.530000e+00
    P2  SC6r  1 4.300000e-01    2.770000e+00
    P2  SN1r  1 4.300000e-01    2.920000e+00
    P2  SN2r  1 4.300000e-01    2.920000e+00
    P2  SN3r  1 4.300000e-01    2.920000e+00
    P2  SN4r  1 4.300000e-01    3.160000e+00
    P2  SN5r  1 4.300000e-01    3.380000e+00
    P2  SN6r  1 4.300000e-01    3.590000e+00
    P2  SP1r  1 4.300000e-01    3.590000e+00
  SP6d    P2  1 4.300000e-01    3.970000e+00
  SP5d    P2  1 4.300000e-01    3.770000e+00
  SP4d    P2  1 4.300000e-01    3.770000e+00
  SP3d    P2  1 4.300000e-01    3.770000e+00
  SP6a    P2  1 4.300000e-01    3.970000e+00
  SP5a    P2  1 4.300000e-01    3.770000e+00
  SP4a    P2  1 4.300000e-01    3.770000e+00
  SP3a    P2  1 4.300000e-01    3.770000e+00
  SP6q    P2  1 4.300000e-01    4.400000e+00
  SP5q    P2  1 4.300000e-01    4.170000e+00
  SP4q    P2  1 4.300000e-01    4.170000e+00
  SP3q    P2  1 4.300000e-01    4.170000e+00
 SP3aq    P2  1 4.300000e-01    4.170000e+00
 SP4aq    P2  1 4.300000e-01    4.170000e+00
 SP5aq    P2  1 4.300000e-01    4.170000e+00
 SP6aq    P2  1 4.300000e-01    4.400000e+00
 SP3dq    P2  1 4.300000e-01    4.170000e+00
 SP4dq    P2  1 4.300000e-01    4.170000e+00
 SP5dq    P2  1 4.300000e-01    4.170000e+00
 SP6dq    P2  1 4.300000e-01    4.400000e+00
  SP6h    P2  1 4.300000e-01    3.970000e+00
  SP5h    P2  1 4.300000e-01    3.770000e+00
  SP4h    P2  1 4.300000e-01    3.770000e+00
  SP3h    P2  1 4.300000e-01    3.770000e+00
 SP3ah    P2  1 4.300000e-01    3.770000e+00
 SP4ah    P2  1 4.300000e-01    3.770000e+00
 SP5ah    P2  1 4.300000e-01    3.770000e+00
 SP6ah    P2  1 4.300000e-01    3.970000e+00
 SP3dh    P2  1 4.300000e-01    3.770000e+00
 SP4dh    P2  1 4.300000e-01    3.770000e+00
 SP5dh    P2  1 4.300000e-01    3.770000e+00
 SP6dh    P2  1 4.300000e-01    3.970000e+00
  SP6r    P2  1 4.300000e-01    3.970000e+00
  SP5r    P2  1 4.300000e-01    3.770000e+00
  SP4r    P2  1 4.300000e-01    3.770000e+00
  SP3r    P2  1 4.300000e-01    3.770000e+00
 SP3ar    P2  1 4.300000e-01    3.770000e+00
 SP4ar    P2  1 4.300000e-01    3.770000e+00
 SP5ar    P2  1 4.300000e-01    3.770000e+00
 SP6ar    P2  1 4.300000e-01    3.970000e+00
 SP3dr    P2  1 4.300000e-01    3.770000e+00
 SP4dr    P2  1 4.300000e-01    3.770000e+00
 SP5dr    P2  1 4.300000e-01    3.770000e+00
 SP6dr    P2  1 4.300000e-01    3.970000e+00
    P2   TP2  1 3.950000e-01    3.190000e+00
    P2   TP1  1 3.950000e-01    2.940000e+00
    P2   TN6  1 3.950000e-01    2.940000e+00
    P2   TN5  1 3.950000e-01    2.700000e+00
    P2   TN4  1 3.950000e-01    2.500000e+00
    P2   TN3  1 3.950000e-01    2.310000e+00
    P2   TN2  1 3.950000e-01    2.310000e+00
    P2   TN1  1 3.950000e-01    2.310000e+00
    P2   TC6  1 3.950000e-01    2.110000e+00
    P2   TC5  1 3.950000e-01    1.850000e+00
    P2   TC4  1 3.950000e-01    1.670000e+00
    P2   TC3  1 3.980000e-01    1.450000e+00
    P2   TC2  1 3.980000e-01    1.450000e+00
    P2   TC1  1 3.990000e-01    1.180000e+00
    P2   TX4  1 3.950000e-01    2.110000e+00
    P2   TX3  1 3.950000e-01    2.110000e+00
    P2   TX2  1 3.950000e-01    1.850000e+00
    P2   TX1  1 3.950000e-01    1.670000e+00
    P2  TP2d  1 3.950000e-01    3.190000e+00
    P2  TN1d  1 3.950000e-01    2.310000e+00
    P2  TN2d  1 3.950000e-01    2.310000e+00
    P2  TN3d  1 3.950000e-01    2.310000e+00
    P2  TN4d  1 3.950000e-01    2.500000e+00
    P2  TN5d  1 3.950000e-01    2.700000e+00
    P2  TN6d  1 3.950000e-01    2.940000e+00
    P2  TP1d  1 3.950000e-01    2.940000e+00
    P2  TP2a  1 3.950000e-01    3.190000e+00
    P2  TN1a  1 3.950000e-01    2.310000e+00
    P2  TN2a  1 3.950000e-01    2.310000e+00
    P2  TN3a  1 3.950000e-01    2.310000e+00
    P2  TN4a  1 3.950000e-01    2.500000e+00
    P2  TN5a  1 3.950000e-01    2.700000e+00
    P2  TN6a  1 3.950000e-01    2.940000e+00
    P2  TP1a  1 3.950000e-01    2.940000e+00
    P2  TC6v  1 3.950000e-01    2.310000e+00
    P2  TC5v  1 3.950000e-01    2.110000e+00
    P2  TC4v  1 3.950000e-01    1.850000e+00
    P2  TC3v  1 3.950000e-01    1.670000e+00
    P2  TC2v  1 3.950000e-01    1.670000e+00
    P2  TC1v  1 3.980000e-01    1.450000e+00
    P2  TX4v  1 3.950000e-01    2.310000e+00
    P2  TX3v  1 3.950000e-01    2.310000e+00
    P2  TX2v  1 3.950000e-01    2.110000e+00
    P2  TX1v  1 3.950000e-01    1.850000e+00
    P2  TC6e  1 3.950000e-01    2.310000e+00
    P2  TC5e  1 3.950000e-01    2.110000e+00
    P2  TC4e  1 3.950000e-01    1.850000e+00
    P2  TC3e  1 3.950000e-01    1.670000e+00
    P2  TC2e  1 3.950000e-01    1.670000e+00
    P2  TC1e  1 3.980000e-01    1.450000e+00
    P2  TX4e  1 3.950000e-01    2.310000e+00
    P2  TX3e  1 3.950000e-01    2.310000e+00
    P2  TX2e  1 3.950000e-01    2.110000e+00
    P2  TX1e  1 3.950000e-01    1.850000e+00
    P2  TP2q  1 3.950000e-01    3.670000e+00
    P2 TX1eq  1 3.950000e-01    2.310000e+00
    P2 TX2eq  1 3.950000e-01    2.500000e+00
    P2 TX3eq  1 3.950000e-01    2.700000e+00
    P2 TX4eq  1 3.950000e-01    2.700000e+00
    P2 TC1eq  1 3.950000e-01    1.850000e+00
    P2 TC2eq  1 3.950000e-01    2.110000e+00
    P2 TC3eq  1 3.950000e-01    2.110000e+00
    P2 TC4eq  1 3.950000e-01    2.310000e+00
    P2 TC5eq  1 3.950000e-01    2.500000e+00
    P2 TC6eq  1 3.950000e-01    2.700000e+00
    P2 TX1vq  1 3.950000e-01    2.310000e+00
    P2 TX2vq  1 3.950000e-01    2.500000e+00
    P2 TX3vq  1 3.950000e-01    2.700000e+00
    P2 TX4vq  1 3.950000e-01    2.700000e+00
    P2 TC1vq  1 3.950000e-01    1.850000e+00
    P2 TC2vq  1 3.950000e-01    2.110000e+00
    P2 TC3vq  1 3.950000e-01    2.110000e+00
    P2 TC4vq  1 3.950000e-01    2.310000e+00
    P2 TC5vq  1 3.950000e-01    2.500000e+00
    P2 TC6vq  1 3.950000e-01    2.700000e+00
    P2 TN1aq  1 3.950000e-01    2.700000e+00
    P2 TN2aq  1 3.950000e-01    2.700000e+00
    P2 TN3aq  1 3.950000e-01    2.700000e+00
    P2 TN4aq  1 3.950000e-01    2.940000e+00
    P2 TN5aq  1 3.950000e-01    3.190000e+00
    P2 TN6aq  1 3.950000e-01    3.430000e+00
    P2 TP1aq  1 3.950000e-01    3.430000e+00
    P2 TP2aq  1 3.950000e-01    3.670000e+00
    P2 TN1dq  1 3.950000e-01    2.700000e+00
    P2 TN2dq  1 3.950000e-01    2.700000e+00
    P2 TN3dq  1 3.950000e-01    2.700000e+00
    P2 TN4dq  1 3.950000e-01    2.940000e+00
    P2 TN5dq  1 3.950000e-01    3.190000e+00
    P2 TN6dq  1 3.950000e-01    3.430000e+00
    P2 TP1dq  1 3.950000e-01    3.430000e+00
    P2 TP2dq  1 3.950000e-01    3.670000e+00
    P2  TX1q  1 3.950000e-01    2.110000e+00
    P2  TX2q  1 3.950000e-01    2.310000e+00
    P2  TX3q  1 3.950000e-01    2.500000e+00
    P2  TX4q  1 3.950000e-01    2.500000e+00
    P2  TC1q  1 3.950000e-01    1.670000e+00
    P2  TC2q  1 3.950000e-01    1.850000e+00
    P2  TC3q  1 3.950000e-01    1.850000e+00
    P2  TC4q  1 3.950000e-01    2.110000e+00
    P2  TC5q  1 3.950000e-01    2.310000e+00
    P2  TC6q  1 3.950000e-01    2.500000e+00
    P2  TN1q  1 3.950000e-01    2.700000e+00
    P2  TN2q  1 3.950000e-01    2.700000e+00
    P2  TN3q  1 3.950000e-01    2.700000e+00
    P2  TN4q  1 3.950000e-01    2.940000e+00
    P2  TN5q  1 3.950000e-01    3.190000e+00
    P2  TN6q  1 3.950000e-01    3.430000e+00
    P2  TP1q  1 3.950000e-01    3.430000e+00
    P2  TP2h  1 3.950000e-01    3.190000e+00
    P2 TX1eh  1 3.950000e-01    1.850000e+00
    P2 TX2eh  1 3.950000e-01    2.110000e+00
    P2 TX3eh  1 3.950000e-01    2.310000e+00
    P2 TX4eh  1 3.950000e-01    2.310000e+00
    P2 TC1eh  1 3.980000e-01    1.450000e+00
    P2 TC2eh  1 3.950000e-01    1.670000e+00
    P2 TC3eh  1 3.950000e-01    1.670000e+00
    P2 TC4eh  1 3.950000e-01    1.850000e+00
    P2 TC5eh  1 3.950000e-01    2.110000e+00
    P2 TC6eh  1 3.950000e-01    2.310000e+00
    P2 TX1vh  1 3.950000e-01    1.850000e+00
    P2 TX2vh  1 3.950000e-01    2.110000e+00
    P2 TX3vh  1 3.950000e-01    2.310000e+00
    P2 TX4vh  1 3.950000e-01    2.310000e+00
    P2 TC1vh  1 3.980000e-01    1.450000e+00
    P2 TC2vh  1 3.950000e-01    1.670000e+00
    P2 TC3vh  1 3.950000e-01    1.670000e+00
    P2 TC4vh  1 3.950000e-01    1.850000e+00
    P2 TC5vh  1 3.950000e-01    2.110000e+00
    P2 TC6vh  1 3.950000e-01    2.310000e+00
    P2 TN1ah  1 3.950000e-01    2.310000e+00
    P2 TN2ah  1 3.950000e-01    2.310000e+00
    P2 TN3ah  1 3.950000e-01    2.310000e+00
    P2 TN4ah  1 3.950000e-01    2.500000e+00
    P2 TN5ah  1 3.950000e-01    2.700000e+00
    P2 TN6ah  1 3.950000e-01    2.940000e+00
    P2 TP1ah  1 3.950000e-01    2.940000e+00
    P2 TP2ah  1 3.950000e-01    3.190000e+00
    P2 TN1dh  1 3.950000e-01    2.310000e+00
    P2 TN2dh  1 3.950000e-01    2.310000e+00
    P2 TN3dh  1 3.950000e-01    2.310000e+00
    P2 TN4dh  1 3.950000e-01    2.500000e+00
    P2 TN5dh  1 3.950000e-01    2.700000e+00
    P2 TN6dh  1 3.950000e-01    2.940000e+00
    P2 TP1dh  1 3.950000e-01    2.940000e+00
    P2 TP2dh  1 3.950000e-01    3.190000e+00
    P2  TX1h  1 3.950000e-01    1.670000e+00
    P2  TX2h  1 3.950000e-01    1.850000e+00
    P2  TX3h  1 3.950000e-01    2.110000e+00
    P2  TX4h  1 3.950000e-01    2.110000e+00
    P2  TC1h  1 3.990000e-01    1.180000e+00
    P2  TC2h  1 3.980000e-01    1.450000e+00
    P2  TC3h  1 3.980000e-01    1.450000e+00
    P2  TC4h  1 3.950000e-01    1.670000e+00
    P2  TC5h  1 3.950000e-01    1.850000e+00
    P2  TC6h  1 3.950000e-01    2.110000e+00
    P2  TN1h  1 3.950000e-01    2.310000e+00
    P2  TN2h  1 3.950000e-01    2.310000e+00
    P2  TN3h  1 3.950000e-01    2.310000e+00
    P2  TN4h  1 3.950000e-01    2.500000e+00
    P2  TN5h  1 3.950000e-01    2.700000e+00
    P2  TN6h  1 3.950000e-01    2.940000e+00
    P2  TP1h  1 3.950000e-01    2.940000e+00
    P2  TP2r  1 3.950000e-01    3.190000e+00
    P2 TX1er  1 3.950000e-01    1.850000e+00
    P2 TX2er  1 3.950000e-01    2.110000e+00
    P2 TX3er  1 3.950000e-01    2.310000e+00
    P2 TX4er  1 3.950000e-01    2.310000e+00
    P2 TC1er  1 3.980000e-01    1.450000e+00
    P2 TC2er  1 3.950000e-01    1.670000e+00
    P2 TC3er  1 3.950000e-01    1.670000e+00
    P2 TC4er  1 3.950000e-01    1.850000e+00
    P2 TC5er  1 3.950000e-01    2.110000e+00
    P2 TC6er  1 3.950000e-01    2.310000e+00
    P2 TX1vr  1 3.950000e-01    1.850000e+00
    P2 TX2vr  1 3.950000e-01    2.110000e+00
    P2 TX3vr  1 3.950000e-01    2.310000e+00
    P2 TX4vr  1 3.950000e-01    2.310000e+00
    P2 TC1vr  1 3.980000e-01    1.450000e+00
    P2 TC2vr  1 3.950000e-01    1.670000e+00
    P2 TC3vr  1 3.950000e-01    1.670000e+00
    P2 TC4vr  1 3.950000e-01    1.850000e+00
    P2 TC5vr  1 3.950000e-01    2.110000e+00
    P2 TC6vr  1 3.950000e-01    2.310000e+00
    P2 TN1ar  1 3.950000e-01    2.310000e+00
    P2 TN2ar  1 3.950000e-01    2.310000e+00
    P2 TN3ar  1 3.950000e-01    2.310000e+00
    P2 TN4ar  1 3.950000e-01    2.500000e+00
    P2 TN5ar  1 3.950000e-01    2.700000e+00
    P2 TN6ar  1 3.950000e-01    2.940000e+00
    P2 TP1ar  1 3.950000e-01    2.940000e+00
    P2 TP2ar  1 3.950000e-01    3.190000e+00
    P2 TN1dr  1 3.950000e-01    2.310000e+00
    P2 TN2dr  1 3.950000e-01    2.310000e+00
    P2 TN3dr  1 3.950000e-01    2.310000e+00
    P2 TN4dr  1 3.950000e-01    2.500000e+00
    P2 TN5dr  1 3.950000e-01    2.700000e+00
    P2 TN6dr  1 3.950000e-01    2.940000e+00
    P2 TP1dr  1 3.950000e-01    2.940000e+00
    P2 TP2dr  1 3.950000e-01    3.190000e+00
    P2  TX1r  1 3.950000e-01    1.670000e+00
    P2  TX2r  1 3.950000e-01    1.850000e+00
    P2  TX3r  1 3.950000e-01    2.110000e+00
    P2  TX4r  1 3.950000e-01    2.110000e+00
    P2  TC1r  1 3.990000e-01    1.180000e+00
    P2  TC2r  1 3.980000e-01    1.450000e+00
    P2  TC3r  1 3.980000e-01    1.450000e+00
    P2  TC4r  1 3.950000e-01    1.670000e+00
    P2  TC5r  1 3.950000e-01    1.850000e+00
    P2  TC6r  1 3.950000e-01    2.110000e+00
    P2  TN1r  1 3.950000e-01    2.310000e+00
    P2  TN2r  1 3.950000e-01    2.310000e+00
    P2  TN3r  1 3.950000e-01    2.310000e+00
    P2  TN4r  1 3.950000e-01    2.500000e+00
    P2  TN5r  1 3.950000e-01    2.700000e+00
    P2  TN6r  1 3.950000e-01    2.940000e+00
    P2  TP1r  1 3.950000e-01    2.940000e+00
  TP6d    P2  1 3.950000e-01    3.430000e+00
  TP5d    P2  1 3.950000e-01    3.190000e+00
  TP4d    P2  1 3.950000e-01    3.190000e+00
  TP3d    P2  1 3.950000e-01    3.190000e+00
  TP6a    P2  1 3.950000e-01    3.430000e+00
  TP5a    P2  1 3.950000e-01    3.190000e+00
  TP4a    P2  1 3.950000e-01    3.190000e+00
  TP3a    P2  1 3.950000e-01    3.190000e+00
  TP6q    P2  1 3.950000e-01    3.910000e+00
  TP5q    P2  1 3.950000e-01    3.670000e+00
  TP4q    P2  1 3.950000e-01    3.670000e+00
  TP3q    P2  1 3.950000e-01    3.670000e+00
 TP3aq    P2  1 3.950000e-01    3.670000e+00
 TP4aq    P2  1 3.950000e-01    3.670000e+00
 TP5aq    P2  1 3.950000e-01    3.670000e+00
 TP6aq    P2  1 3.950000e-01    3.910000e+00
 TP3dq    P2  1 3.950000e-01    3.670000e+00
 TP4dq    P2  1 3.950000e-01    3.670000e+00
 TP5dq    P2  1 3.950000e-01    3.670000e+00
 TP6dq    P2  1 3.950000e-01    3.910000e+00
  TP6h    P2  1 3.950000e-01    3.430000e+00
  TP5h    P2  1 3.950000e-01    3.190000e+00
  TP4h    P2  1 3.950000e-01    3.190000e+00
  TP3h    P2  1 3.950000e-01    3.190000e+00
 TP3ah    P2  1 3.950000e-01    3.190000e+00
 TP4ah    P2  1 3.950000e-01    3.190000e+00
 TP5ah    P2  1 3.950000e-01    3.190000e+00
 TP6ah    P2  1 3.950000e-01    3.430000e+00
 TP3dh    P2  1 3.950000e-01    3.190000e+00
 TP4dh    P2  1 3.950000e-01    3.190000e+00
 TP5dh    P2  1 3.950000e-01    3.190000e+00
 TP6dh    P2  1 3.950000e-01    3.430000e+00
  TP6r    P2  1 3.950000e-01    3.430000e+00
  TP5r    P2  1 3.950000e-01    3.190000e+00
  TP4r    P2  1 3.950000e-01    3.190000e+00
  TP3r    P2  1 3.950000e-01    3.190000e+00
 TP3ar    P2  1 3.950000e-01    3.190000e+00
 TP4ar    P2  1 3.950000e-01    3.190000e+00
 TP5ar    P2  1 3.950000e-01    3.190000e+00
 TP6ar    P2  1 3.950000e-01    3.430000e+00
 TP3dr    P2  1 3.950000e-01    3.190000e+00
 TP4dr    P2  1 3.950000e-01    3.190000e+00
 TP5dr    P2  1 3.950000e-01    3.190000e+00
 TP6dr    P2  1 3.950000e-01    3.430000e+00
   P6d   SP2  1 4.300000e-01    3.970000e+00
   P5d   SP2  1 4.300000e-01    3.770000e+00
   P4d   SP2  1 4.300000e-01    3.770000e+00
   P3d   SP2  1 4.300000e-01    3.770000e+00
   P6a   SP2  1 4.300000e-01    3.970000e+00
   P5a   SP2  1 4.300000e-01    3.770000e+00
   P4a   SP2  1 4.300000e-01    3.770000e+00
   P3a   SP2  1 4.300000e-01    3.770000e+00
   P6q   SP2  1 4.300000e-01    4.400000e+00
   P5q   SP2  1 4.300000e-01    4.170000e+00
   P4q   SP2  1 4.300000e-01    4.170000e+00
   P3q   SP2  1 4.300000e-01    4.170000e+00
  P3aq   SP2  1 4.300000e-01    4.170000e+00
  P4aq   SP2  1 4.300000e-01    4.170000e+00
  P5aq   SP2  1 4.300000e-01    4.170000e+00
  P6aq   SP2  1 4.300000e-01    4.400000e+00
  P3dq   SP2  1 4.300000e-01    4.170000e+00
  P4dq   SP2  1 4.300000e-01    4.170000e+00
  P5dq   SP2  1 4.300000e-01    4.170000e+00
  P6dq   SP2  1 4.300000e-01    4.400000e+00
   P6h   SP2  1 4.300000e-01    3.970000e+00
   P5h   SP2  1 4.300000e-01    3.770000e+00
   P4h   SP2  1 4.300000e-01    3.770000e+00
   P3h   SP2  1 4.300000e-01    3.770000e+00
  P3ah   SP2  1 4.300000e-01    3.770000e+00
  P4ah   SP2  1 4.300000e-01    3.770000e+00
  P5ah   SP2  1 4.300000e-01    3.770000e+00
  P6ah   SP2  1 4.300000e-01    3.970000e+00
  P3dh   SP2  1 4.300000e-01    3.770000e+00
  P4dh   SP2  1 4.300000e-01    3.770000e+00
  P5dh   SP2  1 4.300000e-01    3.770000e+00
  P6dh   SP2  1 4.300000e-01    3.970000e+00
   P6r   SP2  1 4.300000e-01    3.970000e+00
   P5r   SP2  1 4.300000e-01    3.770000e+00
   P4r   SP2  1 4.300000e-01    3.770000e+00
   P3r   SP2  1 4.300000e-01    3.770000e+00
  P3ar   SP2  1 4.300000e-01    3.770000e+00
  P4ar   SP2  1 4.300000e-01    3.770000e+00
  P5ar   SP2  1 4.300000e-01    3.770000e+00
  P6ar   SP2  1 4.300000e-01    3.970000e+00
  P3dr   SP2  1 4.300000e-01    3.770000e+00
  P4dr   SP2  1 4.300000e-01    3.770000e+00
  P5dr   SP2  1 4.300000e-01    3.770000e+00
  P6dr   SP2  1 4.300000e-01    3.970000e+00
   SP2    P1  1 4.300000e-01    3.590000e+00
   SP2    N6  1 4.300000e-01    3.590000e+00
   SP2    N5  1 4.300000e-01    3.380000e+00
   SP2    N4  1 4.300000e-01    3.160000e+00
   SP2    N3  1 4.300000e-01    2.920000e+00
   SP2    N2  1 4.300000e-01    2.920000e+00
   SP2    N1  1 4.300000e-01    2.920000e+00
   SP2    C6  1 4.300000e-01    2.770000e+00
   SP2    C5  1 4.300000e-01    2.530000e+00
   SP2    C4  1 4.300000e-01    2.320000e+00
   SP2    C3  1 4.300000e-01    2.160000e+00
   SP2    C2  1 4.300000e-01    2.160000e+00
   SP2    C1  1 4.300000e-01    1.930000e+00
   SP2    X4  1 4.300000e-01    2.770000e+00
   SP2    X3  1 4.300000e-01    2.770000e+00
   SP2    X2  1 4.300000e-01    2.530000e+00
   SP2    X1  1 4.300000e-01    2.320000e+00
   SP2   P2d  1 4.300000e-01    3.770000e+00
   SP2   N1d  1 4.300000e-01    2.920000e+00
   SP2   N2d  1 4.300000e-01    2.920000e+00
   SP2   N3d  1 4.300000e-01    2.920000e+00
   SP2   N4d  1 4.300000e-01    3.160000e+00
   SP2   N5d  1 4.300000e-01    3.380000e+00
   SP2   N6d  1 4.300000e-01    3.590000e+00
   SP2   P1d  1 4.300000e-01    3.590000e+00
   SP2   P2a  1 4.300000e-01    3.770000e+00
   SP2   N1a  1 4.300000e-01    2.920000e+00
   SP2   N2a  1 4.300000e-01    2.920000e+00
   SP2   N3a  1 4.300000e-01    2.920000e+00
   SP2   N4a  1 4.300000e-01    3.160000e+00
   SP2   N5a  1 4.300000e-01    3.380000e+00
   SP2   N6a  1 4.300000e-01    3.590000e+00
   SP2   P1a  1 4.300000e-01    3.590000e+00
   SP2   C6v  1 4.300000e-01    2.920000e+00
   SP2   C5v  1 4.300000e-01    2.770000e+00
   SP2   C4v  1 4.300000e-01    2.530000e+00
   SP2   C3v  1 4.300000e-01    2.320000e+00
   SP2   C2v  1 4.300000e-01    2.320000e+00
   SP2   C1v  1 4.300000e-01    2.160000e+00
   SP2   X4v  1 4.300000e-01    2.920000e+00
   SP2   X3v  1 4.300000e-01    2.920000e+00
   SP2   X2v  1 4.300000e-01    2.770000e+00
   SP2   X1v  1 4.300000e-01    2.530000e+00
   SP2   C6e  1 4.300000e-01    2.920000e+00
   SP2   C5e  1 4.300000e-01    2.770000e+00
   SP2   C4e  1 4.300000e-01    2.530000e+00
   SP2   C3e  1 4.300000e-01    2.320000e+00
   SP2   C2e  1 4.300000e-01    2.320000e+00
   SP2   C1e  1 4.300000e-01    2.160000e+00
   SP2   X4e  1 4.300000e-01    2.920000e+00
   SP2   X3e  1 4.300000e-01    2.920000e+00
   SP2   X2e  1 4.300000e-01    2.770000e+00
   SP2   X1e  1 4.300000e-01    2.530000e+00
   SP2   P2q  1 4.300000e-01    4.170000e+00
   SP2  X1eq  1 4.300000e-01    2.920000e+00
   SP2  X2eq  1 4.300000e-01    3.160000e+00
   SP2  X3eq  1 4.300000e-01    3.380000e+00
   SP2  X4eq  1 4.300000e-01    3.380000e+00
   SP2  C1eq  1 4.300000e-01    2.530000e+00
   SP2  C2eq  1 4.300000e-01    2.770000e+00
   SP2  C3eq  1 4.300000e-01    2.770000e+00
   SP2  C4eq  1 4.300000e-01    2.920000e+00
   SP2  C5eq  1 4.300000e-01    3.160000e+00
   SP2  C6eq  1 4.300000e-01    3.380000e+00
   SP2  X1vq  1 4.300000e-01    2.920000e+00
   SP2  X2vq  1 4.300000e-01    3.160000e+00
   SP2  X3vq  1 4.300000e-01    3.380000e+00
   SP2  X4vq  1 4.300000e-01    3.380000e+00
   SP2  C1vq  1 4.300000e-01    2.530000e+00
   SP2  C2vq  1 4.300000e-01    2.770000e+00
   SP2  C3vq  1 4.300000e-01    2.770000e+00
   SP2  C4vq  1 4.300000e-01    2.920000e+00
   SP2  C5vq  1 4.300000e-01    3.160000e+00
   SP2  C6vq  1 4.300000e-01    3.380000e+00
   SP2  N1aq  1 4.300000e-01    3.380000e+00
   SP2  N2aq  1 4.300000e-01    3.380000e+00
   SP2  N3aq  1 4.300000e-01    3.380000e+00
   SP2  N4aq  1 4.300000e-01    3.590000e+00
   SP2  N5aq  1 4.300000e-01    3.770000e+00
   SP2  N6aq  1 4.300000e-01    3.970000e+00
   SP2  P1aq  1 4.300000e-01    3.970000e+00
   SP2  P2aq  1 4.300000e-01    4.170000e+00
   SP2  N1dq  1 4.300000e-01    3.380000e+00
   SP2  N2dq  1 4.300000e-01    3.380000e+00
   SP2  N3dq  1 4.300000e-01    3.380000e+00
   SP2  N4dq  1 4.300000e-01    3.590000e+00
   SP2  N5dq  1 4.300000e-01    3.770000e+00
   SP2  N6dq  1 4.300000e-01    3.970000e+00
   SP2  P1dq  1 4.300000e-01    3.970000e+00
   SP2  P2dq  1 4.300000e-01    4.170000e+00
   SP2   X1q  1 4.300000e-01    2.770000e+00
   SP2   X2q  1 4.300000e-01    2.920000e+00
   SP2   X3q  1 4.300000e-01    3.160000e+00
   SP2   X4q  1 4.300000e-01    3.160000e+00
   SP2   C1q  1 4.300000e-01    2.320000e+00
   SP2   C2q  1 4.300000e-01    2.530000e+00
   SP2   C3q  1 4.300000e-01    2.530000e+00
   SP2   C4q  1 4.300000e-01    2.770000e+00
   SP2   C5q  1 4.300000e-01    2.920000e+00
   SP2   C6q  1 4.300000e-01    3.160000e+00
   SP2   N1q  1 4.300000e-01    3.380000e+00
   SP2   N2q  1 4.300000e-01    3.380000e+00
   SP2   N3q  1 4.300000e-01    3.380000e+00
   SP2   N4q  1 4.300000e-01    3.590000e+00
   SP2   N5q  1 4.300000e-01    3.770000e+00
   SP2   N6q  1 4.300000e-01    3.970000e+00
   SP2   P1q  1 4.300000e-01    3.970000e+00
   SP2   P2h  1 4.300000e-01    3.770000e+00
   SP2  X1eh  1 4.300000e-01    2.530000e+00
   SP2  X2eh  1 4.300000e-01    2.770000e+00
   SP2  X3eh  1 4.300000e-01    2.920000e+00
   SP2  X4eh  1 4.300000e-01    2.920000e+00
   SP2  C1eh  1 4.300000e-01    2.160000e+00
   SP2  C2eh  1 4.300000e-01    2.320000e+00
   SP2  C3eh  1 4.300000e-01    2.320000e+00
   SP2  C4eh  1 4.300000e-01    2.530000e+00
   SP2  C5eh  1 4.300000e-01    2.770000e+00
   SP2  C6eh  1 4.300000e-01    2.920000e+00
   SP2  X1vh  1 4.300000e-01    2.530000e+00
   SP2  X2vh  1 4.300000e-01    2.770000e+00
   SP2  X3vh  1 4.300000e-01    2.920000e+00
   SP2  X4vh  1 4.300000e-01    2.920000e+00
   SP2  C1vh  1 4.300000e-01    2.160000e+00
   SP2  C2vh  1 4.300000e-01    2.320000e+00
   SP2  C3vh  1 4.300000e-01    2.320000e+00
   SP2  C4vh  1 4.300000e-01    2.530000e+00
   SP2  C5vh  1 4.300000e-01    2.770000e+00
   SP2  C6vh  1 4.300000e-01    2.920000e+00
   SP2  N1ah  1 4.300000e-01    2.920000e+00
   SP2  N2ah  1 4.300000e-01    2.920000e+00
   SP2  N3ah  1 4.300000e-01    2.920000e+00
   SP2  N4ah  1 4.300000e-01    3.160000e+00
   SP2  N5ah  1 4.300000e-01    3.380000e+00
   SP2  N6ah  1 4.300000e-01    3.590000e+00
   SP2  P1ah  1 4.300000e-01    3.590000e+00
   SP2  P2ah  1 4.300000e-01    3.770000e+00
   SP2  N1dh  1 4.300000e-01    2.920000e+00
   SP2  N2dh  1 4.300000e-01    2.920000e+00
   SP2  N3dh  1 4.300000e-01    2.920000e+00
   SP2  N4dh  1 4.300000e-01    3.160000e+00
   SP2  N5dh  1 4.300000e-01    3.380000e+00
   SP2  N6dh  1 4.300000e-01    3.590000e+00
   SP2  P1dh  1 4.300000e-01    3.590000e+00
   SP2  P2dh  1 4.300000e-01    3.770000e+00
   SP2   X1h  1 4.300000e-01    2.320000e+00
   SP2   X2h  1 4.300000e-01    2.530000e+00
   SP2   X3h  1 4.300000e-01    2.770000e+00
   SP2   X4h  1 4.300000e-01    2.770000e+00
   SP2   C1h  1 4.300000e-01    1.930000e+00
   SP2   C2h  1 4.300000e-01    2.160000e+00
   SP2   C3h  1 4.300000e-01    2.160000e+00
   SP2   C4h  1 4.300000e-01    2.320000e+00
   SP2   C5h  1 4.300000e-01    2.530000e+00
   SP2   C6h  1 4.300000e-01    2.770000e+00
   SP2   N1h  1 4.300000e-01    2.920000e+00
   SP2   N2h  1 4.300000e-01    2.920000e+00
   SP2   N3h  1 4.300000e-01    2.920000e+00
   SP2   N4h  1 4.300000e-01    3.160000e+00
   SP2   N5h  1 4.300000e-01    3.380000e+00
   SP2   N6h  1 4.300000e-01    3.590000e+00
   SP2   P1h  1 4.300000e-01    3.590000e+00
   SP2   P2r  1 4.300000e-01    3.770000e+00
   SP2  X1er  1 4.300000e-01    2.530000e+00
   SP2  X2er  1 4.300000e-01    2.770000e+00
   SP2  X3er  1 4.300000e-01    2.920000e+00
   SP2  X4er  1 4.300000e-01    2.920000e+00
   SP2  C1er  1 4.300000e-01    2.160000e+00
   SP2  C2er  1 4.300000e-01    2.320000e+00
   SP2  C3er  1 4.300000e-01    2.320000e+00
   SP2  C4er  1 4.300000e-01    2.530000e+00
   SP2  C5er  1 4.300000e-01    2.770000e+00
   SP2  C6er  1 4.300000e-01    2.920000e+00
   SP2  X1vr  1 4.300000e-01    2.530000e+00
   SP2  X2vr  1 4.300000e-01    2.770000e+00
   SP2  X3vr  1 4.300000e-01    2.920000e+00
   SP2  X4vr  1 4.300000e-01    2.920000e+00
   SP2  C1vr  1 4.300000e-01    2.160000e+00
   SP2  C2vr  1 4.300000e-01    2.320000e+00
   SP2  C3vr  1 4.300000e-01    2.320000e+00
   SP2  C4vr  1 4.300000e-01    2.530000e+00
   SP2  C5vr  1 4.300000e-01    2.770000e+00
   SP2  C6vr  1 4.300000e-01    2.920000e+00
   SP2  N1ar  1 4.300000e-01    2.920000e+00
   SP2  N2ar  1 4.300000e-01    2.920000e+00
   SP2  N3ar  1 4.300000e-01    2.920000e+00
   SP2  N4ar  1 4.300000e-01    3.160000e+00
   SP2  N5ar  1 4.300000e-01    3.380000e+00
   SP2  N6ar  1 4.300000e-01    3.590000e+00
   SP2  P1ar  1 4.300000e-01    3.590000e+00
   SP2  P2ar  1 4.300000e-01    3.770000e+00
   SP2  N1dr  1 4.300000e-01    2.920000e+00
   SP2  N2dr  1 4.300000e-01    2.920000e+00
   SP2  N3dr  1 4.300000e-01    2.920000e+00
   SP2  N4dr  1 4.300000e-01    3.160000e+00
   SP2  N5dr  1 4.300000e-01    3.380000e+00
   SP2  N6dr  1 4.300000e-01    3.590000e+00
   SP2  P1dr  1 4.300000e-01    3.590000e+00
   SP2  P2dr  1 4.300000e-01    3.770000e+00
   SP2   X1r  1 4.300000e-01    2.320000e+00
   SP2   X2r  1 4.300000e-01    2.530000e+00
   SP2   X3r  1 4.300000e-01    2.770000e+00
   SP2   X4r  1 4.300000e-01    2.770000e+00
   SP2   C1r  1 4.300000e-01    1.930000e+00
   SP2   C2r  1 4.300000e-01    2.160000e+00
   SP2   C3r  1 4.300000e-01    2.160000e+00
   SP2   C4r  1 4.300000e-01    2.320000e+00
   SP2   C5r  1 4.300000e-01    2.530000e+00
   SP2   C6r  1 4.300000e-01    2.770000e+00
   SP2   N1r  1 4.300000e-01    2.920000e+00
   SP2   N2r  1 4.300000e-01    2.920000e+00
   SP2   N3r  1 4.300000e-01    2.920000e+00
   SP2   N4r  1 4.300000e-01    3.160000e+00
   SP2   N5r  1 4.300000e-01    3.380000e+00
   SP2   N6r  1 4.300000e-01    3.590000e+00
   SP2   P1r  1 4.300000e-01    3.590000e+00
   SP2   SP2  1 4.100000e-01    3.310000e+00
   SP2   SP1  1 4.100000e-01    3.070000e+00
   SP2   SN6  1 4.100000e-01    3.070000e+00
   SP2   SN5  1 4.100000e-01    2.840000e+00
   SP2   SN4  1 4.100000e-01    2.600000e+00
   SP2   SN3  1 4.100000e-01    2.350000e+00
   SP2   SN2  1 4.100000e-01    2.350000e+00
   SP2   SN1  1 4.100000e-01    2.350000e+00
   SP2   SC6  1 4.100000e-01    2.200000e+00
   SP2   SC5  1 4.100000e-01    2.040000e+00
   SP2   SC4  1 4.100000e-01    1.910000e+00
   SP2   SC3  1 4.100000e-01    1.750000e+00
   SP2   SC2  1 4.100000e-01    1.750000e+00
   SP2   SC1  1 4.140000e-01    1.560000e+00
   SP2   SX4  1 4.100000e-01    2.200000e+00
   SP2   SX3  1 4.100000e-01    2.200000e+00
   SP2   SX2  1 4.100000e-01    2.040000e+00
   SP2   SX1  1 4.100000e-01    1.910000e+00
  SP6d   SP2  1 4.100000e-01    3.550000e+00
  SP5d   SP2  1 4.100000e-01    3.310000e+00
  SP4d   SP2  1 4.100000e-01    3.310000e+00
  SP3d   SP2  1 4.100000e-01    3.310000e+00
   SP2  SP2d  1 4.100000e-01    3.310000e+00
   SP2  SN1d  1 4.100000e-01    2.350000e+00
   SP2  SN2d  1 4.100000e-01    2.350000e+00
   SP2  SN3d  1 4.100000e-01    2.350000e+00
   SP2  SN4d  1 4.100000e-01    2.600000e+00
   SP2  SN5d  1 4.100000e-01    2.840000e+00
   SP2  SN6d  1 4.100000e-01    3.070000e+00
   SP2  SP1d  1 4.100000e-01    3.070000e+00
  SP6a   SP2  1 4.100000e-01    3.550000e+00
  SP5a   SP2  1 4.100000e-01    3.310000e+00
  SP4a   SP2  1 4.100000e-01    3.310000e+00
  SP3a   SP2  1 4.100000e-01    3.310000e+00
   SP2  SP2a  1 4.100000e-01    3.310000e+00
   SP2  SN1a  1 4.100000e-01    2.350000e+00
   SP2  SN2a  1 4.100000e-01    2.350000e+00
   SP2  SN3a  1 4.100000e-01    2.350000e+00
   SP2  SN4a  1 4.100000e-01    2.600000e+00
   SP2  SN5a  1 4.100000e-01    2.840000e+00
   SP2  SN6a  1 4.100000e-01    3.070000e+00
   SP2  SP1a  1 4.100000e-01    3.070000e+00
   SP2  SC6v  1 4.100000e-01    2.350000e+00
   SP2  SC5v  1 4.100000e-01    2.200000e+00
   SP2  SC4v  1 4.100000e-01    2.040000e+00
   SP2  SC3v  1 4.100000e-01    1.910000e+00
   SP2  SC2v  1 4.100000e-01    1.910000e+00
   SP2  SC1v  1 4.100000e-01    1.750000e+00
   SP2  SX4v  1 4.100000e-01    2.350000e+00
   SP2  SX3v  1 4.100000e-01    2.350000e+00
   SP2  SX2v  1 4.100000e-01    2.200000e+00
   SP2  SX1v  1 4.100000e-01    2.040000e+00
   SP2  SC6e  1 4.100000e-01    2.350000e+00
   SP2  SC5e  1 4.100000e-01    2.200000e+00
   SP2  SC4e  1 4.100000e-01    2.040000e+00
   SP2  SC3e  1 4.100000e-01    1.910000e+00
   SP2  SC2e  1 4.100000e-01    1.910000e+00
   SP2  SC1e  1 4.100000e-01    1.750000e+00
   SP2  SX4e  1 4.100000e-01    2.350000e+00
   SP2  SX3e  1 4.100000e-01    2.350000e+00
   SP2  SX2e  1 4.100000e-01    2.200000e+00
   SP2  SX1e  1 4.100000e-01    2.040000e+00
  SP6q   SP2  1 4.100000e-01    4.040000e+00
  SP5q   SP2  1 4.100000e-01    3.820000e+00
  SP4q   SP2  1 4.100000e-01    3.820000e+00
  SP3q   SP2  1 4.100000e-01    3.820000e+00
   SP2  SP2q  1 4.100000e-01    3.820000e+00
   SP2 SX1eq  1 4.100000e-01    2.350000e+00
   SP2 SX2eq  1 4.100000e-01    2.600000e+00
   SP2 SX3eq  1 4.100000e-01    2.840000e+00
   SP2 SX4eq  1 4.100000e-01    2.840000e+00
   SP2 SC1eq  1 4.100000e-01    2.040000e+00
   SP2 SC2eq  1 4.100000e-01    2.200000e+00
   SP2 SC3eq  1 4.100000e-01    2.200000e+00
   SP2 SC4eq  1 4.100000e-01    2.350000e+00
   SP2 SC5eq  1 4.100000e-01    2.600000e+00
   SP2 SC6eq  1 4.100000e-01    2.840000e+00
   SP2 SX1vq  1 4.100000e-01    2.350000e+00
   SP2 SX2vq  1 4.100000e-01    2.600000e+00
   SP2 SX3vq  1 4.100000e-01    2.840000e+00
   SP2 SX4vq  1 4.100000e-01    2.840000e+00
   SP2 SC1vq  1 4.100000e-01    2.040000e+00
   SP2 SC2vq  1 4.100000e-01    2.200000e+00
   SP2 SC3vq  1 4.100000e-01    2.200000e+00
   SP2 SC4vq  1 4.100000e-01    2.350000e+00
   SP2 SC5vq  1 4.100000e-01    2.600000e+00
   SP2 SC6vq  1 4.100000e-01    2.840000e+00
   SP2 SN1aq  1 4.100000e-01    2.840000e+00
   SP2 SN2aq  1 4.100000e-01    2.840000e+00
   SP2 SN3aq  1 4.100000e-01    2.840000e+00
   SP2 SN4aq  1 4.100000e-01    3.070000e+00
   SP2 SN5aq  1 4.100000e-01    3.310000e+00
   SP2 SN6aq  1 4.100000e-01    3.550000e+00
   SP2 SP1aq  1 4.100000e-01    3.550000e+00
   SP2 SP2aq  1 4.100000e-01    3.820000e+00
 SP3aq   SP2  1 4.100000e-01    3.820000e+00
 SP4aq   SP2  1 4.100000e-01    3.820000e+00
 SP5aq   SP2  1 4.100000e-01    3.820000e+00
 SP6aq   SP2  1 4.100000e-01    4.040000e+00
   SP2 SN1dq  1 4.100000e-01    2.840000e+00
   SP2 SN2dq  1 4.100000e-01    2.840000e+00
   SP2 SN3dq  1 4.100000e-01    2.840000e+00
   SP2 SN4dq  1 4.100000e-01    3.070000e+00
   SP2 SN5dq  1 4.100000e-01    3.310000e+00
   SP2 SN6dq  1 4.100000e-01    3.550000e+00
   SP2 SP1dq  1 4.100000e-01    3.550000e+00
   SP2 SP2dq  1 4.100000e-01    3.820000e+00
 SP3dq   SP2  1 4.100000e-01    3.820000e+00
 SP4dq   SP2  1 4.100000e-01    3.820000e+00
 SP5dq   SP2  1 4.100000e-01    3.820000e+00
 SP6dq   SP2  1 4.100000e-01    4.040000e+00
   SP2  SX1q  1 4.100000e-01    2.200000e+00
   SP2  SX2q  1 4.100000e-01    2.350000e+00
   SP2  SX3q  1 4.100000e-01    2.600000e+00
   SP2  SX4q  1 4.100000e-01    2.600000e+00
   SP2  SC1q  1 4.100000e-01    1.910000e+00
   SP2  SC2q  1 4.100000e-01    2.040000e+00
   SP2  SC3q  1 4.100000e-01    2.040000e+00
   SP2  SC4q  1 4.100000e-01    2.200000e+00
   SP2  SC5q  1 4.100000e-01    2.350000e+00
   SP2  SC6q  1 4.100000e-01    2.600000e+00
   SP2  SN1q  1 4.100000e-01    2.840000e+00
   SP2  SN2q  1 4.100000e-01    2.840000e+00
   SP2  SN3q  1 4.100000e-01    2.840000e+00
   SP2  SN4q  1 4.100000e-01    3.070000e+00
   SP2  SN5q  1 4.100000e-01    3.310000e+00
   SP2  SN6q  1 4.100000e-01    3.550000e+00
   SP2  SP1q  1 4.100000e-01    3.550000e+00
  SP6h   SP2  1 4.100000e-01    3.550000e+00
  SP5h   SP2  1 4.100000e-01    3.310000e+00
  SP4h   SP2  1 4.100000e-01    3.310000e+00
  SP3h   SP2  1 4.100000e-01    3.310000e+00
   SP2  SP2h  1 4.100000e-01    3.310000e+00
   SP2 SX1eh  1 4.100000e-01    2.040000e+00
   SP2 SX2eh  1 4.100000e-01    2.200000e+00
   SP2 SX3eh  1 4.100000e-01    2.350000e+00
   SP2 SX4eh  1 4.100000e-01    2.350000e+00
   SP2 SC1eh  1 4.100000e-01    1.750000e+00
   SP2 SC2eh  1 4.100000e-01    1.910000e+00
   SP2 SC3eh  1 4.100000e-01    1.910000e+00
   SP2 SC4eh  1 4.100000e-01    2.040000e+00
   SP2 SC5eh  1 4.100000e-01    2.200000e+00
   SP2 SC6eh  1 4.100000e-01    2.350000e+00
   SP2 SX1vh  1 4.100000e-01    2.040000e+00
   SP2 SX2vh  1 4.100000e-01    2.200000e+00
   SP2 SX3vh  1 4.100000e-01    2.350000e+00
   SP2 SX4vh  1 4.100000e-01    2.350000e+00
   SP2 SC1vh  1 4.100000e-01    1.750000e+00
   SP2 SC2vh  1 4.100000e-01    1.910000e+00
   SP2 SC3vh  1 4.100000e-01    1.910000e+00
   SP2 SC4vh  1 4.100000e-01    2.040000e+00
   SP2 SC5vh  1 4.100000e-01    2.200000e+00
   SP2 SC6vh  1 4.100000e-01    2.350000e+00
   SP2 SN1ah  1 4.100000e-01    2.350000e+00
   SP2 SN2ah  1 4.100000e-01    2.350000e+00
   SP2 SN3ah  1 4.100000e-01    2.350000e+00
   SP2 SN4ah  1 4.100000e-01    2.600000e+00
   SP2 SN5ah  1 4.100000e-01    2.840000e+00
   SP2 SN6ah  1 4.100000e-01    3.070000e+00
   SP2 SP1ah  1 4.100000e-01    3.070000e+00
   SP2 SP2ah  1 4.100000e-01    3.310000e+00
 SP3ah   SP2  1 4.100000e-01    3.310000e+00
 SP4ah   SP2  1 4.100000e-01    3.310000e+00
 SP5ah   SP2  1 4.100000e-01    3.310000e+00
 SP6ah   SP2  1 4.100000e-01    3.550000e+00
   SP2 SN1dh  1 4.100000e-01    2.350000e+00
   SP2 SN2dh  1 4.100000e-01    2.350000e+00
   SP2 SN3dh  1 4.100000e-01    2.350000e+00
   SP2 SN4dh  1 4.100000e-01    2.600000e+00
   SP2 SN5dh  1 4.100000e-01    2.840000e+00
   SP2 SN6dh  1 4.100000e-01    3.070000e+00
   SP2 SP1dh  1 4.100000e-01    3.070000e+00
   SP2 SP2dh  1 4.100000e-01    3.310000e+00
 SP3dh   SP2  1 4.100000e-01    3.310000e+00
 SP4dh   SP2  1 4.100000e-01    3.310000e+00
 SP5dh   SP2  1 4.100000e-01    3.310000e+00
 SP6dh   SP2  1 4.100000e-01    3.550000e+00
   SP2  SX1h  1 4.100000e-01    1.910000e+00
   SP2  SX2h  1 4.100000e-01    2.040000e+00
   SP2  SX3h  1 4.100000e-01    2.200000e+00
   SP2  SX4h  1 4.100000e-01    2.200000e+00
   SP2  SC1h  1 4.140000e-01    1.560000e+00
   SP2  SC2h  1 4.100000e-01    1.750000e+00
   SP2  SC3h  1 4.100000e-01    1.750000e+00
   SP2  SC4h  1 4.100000e-01    1.910000e+00
   SP2  SC5h  1 4.100000e-01    2.040000e+00
   SP2  SC6h  1 4.100000e-01    2.200000e+00
   SP2  SN1h  1 4.100000e-01    2.350000e+00
   SP2  SN2h  1 4.100000e-01    2.350000e+00
   SP2  SN3h  1 4.100000e-01    2.350000e+00
   SP2  SN4h  1 4.100000e-01    2.600000e+00
   SP2  SN5h  1 4.100000e-01    2.840000e+00
   SP2  SN6h  1 4.100000e-01    3.070000e+00
   SP2  SP1h  1 4.100000e-01    3.070000e+00
  SP6r   SP2  1 4.100000e-01    3.550000e+00
  SP5r   SP2  1 4.100000e-01    3.310000e+00
  SP4r   SP2  1 4.100000e-01    3.310000e+00
  SP3r   SP2  1 4.100000e-01    3.310000e+00
   SP2  SP2r  1 4.100000e-01    3.310000e+00
   SP2 SX1er  1 4.100000e-01    2.040000e+00
   SP2 SX2er  1 4.100000e-01    2.200000e+00
   SP2 SX3er  1 4.100000e-01    2.350000e+00
   SP2 SX4er  1 4.100000e-01    2.350000e+00
   SP2 SC1er  1 4.100000e-01    1.750000e+00
   SP2 SC2er  1 4.100000e-01    1.910000e+00
   SP2 SC3er  1 4.100000e-01    1.910000e+00
   SP2 SC4er  1 4.100000e-01    2.040000e+00
   SP2 SC5er  1 4.100000e-01    2.200000e+00
   SP2 SC6er  1 4.100000e-01    2.350000e+00
   SP2 SX1vr  1 4.100000e-01    2.040000e+00
   SP2 SX2vr  1 4.100000e-01    2.200000e+00
   SP2 SX3vr  1 4.100000e-01    2.350000e+00
   SP2 SX4vr  1 4.100000e-01    2.350000e+00
   SP2 SC1vr  1 4.100000e-01    1.750000e+00
   SP2 SC2vr  1 4.100000e-01    1.910000e+00
   SP2 SC3vr  1 4.100000e-01    1.910000e+00
   SP2 SC4vr  1 4.100000e-01    2.040000e+00
   SP2 SC5vr  1 4.100000e-01    2.200000e+00
   SP2 SC6vr  1 4.100000e-01    2.350000e+00
   SP2 SN1ar  1 4.100000e-01    2.350000e+00
   SP2 SN2ar  1 4.100000e-01    2.350000e+00
   SP2 SN3ar  1 4.100000e-01    2.350000e+00
   SP2 SN4ar  1 4.100000e-01    2.600000e+00
   SP2 SN5ar  1 4.100000e-01    2.840000e+00
   SP2 SN6ar  1 4.100000e-01    3.070000e+00
   SP2 SP1ar  1 4.100000e-01    3.070000e+00
   SP2 SP2ar  1 4.100000e-01    3.310000e+00
 SP3ar   SP2  1 4.100000e-01    3.310000e+00
 SP4ar   SP2  1 4.100000e-01    3.310000e+00
 SP5ar   SP2  1 4.100000e-01    3.310000e+00
 SP6ar   SP2  1 4.100000e-01    3.550000e+00
   SP2 SN1dr  1 4.100000e-01    2.350000e+00
   SP2 SN2dr  1 4.100000e-01    2.350000e+00
   SP2 SN3dr  1 4.100000e-01    2.350000e+00
   SP2 SN4dr  1 4.100000e-01    2.600000e+00
   SP2 SN5dr  1 4.100000e-01    2.840000e+00
   SP2 SN6dr  1 4.100000e-01    3.070000e+00
   SP2 SP1dr  1 4.100000e-01    3.070000e+00
   SP2 SP2dr  1 4.100000e-01    3.310000e+00
 SP3dr   SP2  1 4.100000e-01    3.310000e+00
 SP4dr   SP2  1 4.100000e-01    3.310000e+00
 SP5dr   SP2  1 4.100000e-01    3.310000e+00
 SP6dr   SP2  1 4.100000e-01    3.550000e+00
   SP2  SX1r  1 4.100000e-01    1.910000e+00
   SP2  SX2r  1 4.100000e-01    2.040000e+00
   SP2  SX3r  1 4.100000e-01    2.200000e+00
   SP2  SX4r  1 4.100000e-01    2.200000e+00
   SP2  SC1r  1 4.140000e-01    1.560000e+00
   SP2  SC2r  1 4.100000e-01    1.750000e+00
   SP2  SC3r  1 4.100000e-01    1.750000e+00
   SP2  SC4r  1 4.100000e-01    1.910000e+00
   SP2  SC5r  1 4.100000e-01    2.040000e+00
   SP2  SC6r  1 4.100000e-01    2.200000e+00
   SP2  SN1r  1 4.100000e-01    2.350000e+00
   SP2  SN2r  1 4.100000e-01    2.350000e+00
   SP2  SN3r  1 4.100000e-01    2.350000e+00
   SP2  SN4r  1 4.100000e-01    2.600000e+00
   SP2  SN5r  1 4.100000e-01    2.840000e+00
   SP2  SN6r  1 4.100000e-01    3.070000e+00
   SP2  SP1r  1 4.100000e-01    3.070000e+00
   SP2   TP2  1 3.650000e-01    2.830000e+00
   SP2   TP1  1 3.650000e-01    2.570000e+00
   SP2   TN6  1 3.650000e-01    2.570000e+00
   SP2   TN5  1 3.650000e-01    2.340000e+00
   SP2   TN4  1 3.650000e-01    2.110000e+00
   SP2   TN3  1 3.650000e-01    1.910000e+00
   SP2   TN2  1 3.650000e-01    1.910000e+00
   SP2   TN1  1 3.650000e-01    1.910000e+00
   SP2   TC6  1 3.650000e-01    1.750000e+00
   SP2   TC5  1 3.660000e-01    1.600000e+00
   SP2   TC4  1 3.780000e-01    1.450000e+00
   SP2   TC3  1 3.940000e-01    1.290000e+00
   SP2   TC2  1 3.940000e-01    1.290000e+00
   SP2   TC1  1 4.040000e-01    1.130000e+00
   SP2   TX4  1 3.650000e-01    1.750000e+00
   SP2   TX3  1 3.650000e-01    1.750000e+00
   SP2   TX2  1 3.660000e-01    1.600000e+00
   SP2   TX1  1 3.780000e-01    1.450000e+00
   SP2  TP2d  1 3.650000e-01    2.830000e+00
   SP2  TN1d  1 3.650000e-01    1.910000e+00
   SP2  TN2d  1 3.650000e-01    1.910000e+00
   SP2  TN3d  1 3.650000e-01    1.910000e+00
   SP2  TN4d  1 3.650000e-01    2.110000e+00
   SP2  TN5d  1 3.650000e-01    2.340000e+00
   SP2  TN6d  1 3.650000e-01    2.570000e+00
   SP2  TP1d  1 3.650000e-01    2.570000e+00
   SP2  TP2a  1 3.650000e-01    2.830000e+00
   SP2  TN1a  1 3.650000e-01    1.910000e+00
   SP2  TN2a  1 3.650000e-01    1.910000e+00
   SP2  TN3a  1 3.650000e-01    1.910000e+00
   SP2  TN4a  1 3.650000e-01    2.110000e+00
   SP2  TN5a  1 3.650000e-01    2.340000e+00
   SP2  TN6a  1 3.650000e-01    2.570000e+00
   SP2  TP1a  1 3.650000e-01    2.570000e+00
   SP2  TC6v  1 3.650000e-01    1.910000e+00
   SP2  TC5v  1 3.650000e-01    1.750000e+00
   SP2  TC4v  1 3.660000e-01    1.600000e+00
   SP2  TC3v  1 3.780000e-01    1.450000e+00
   SP2  TC2v  1 3.780000e-01    1.450000e+00
   SP2  TC1v  1 3.940000e-01    1.290000e+00
   SP2  TX4v  1 3.650000e-01    1.910000e+00
   SP2  TX3v  1 3.650000e-01    1.910000e+00
   SP2  TX2v  1 3.650000e-01    1.750000e+00
   SP2  TX1v  1 3.660000e-01    1.600000e+00
   SP2  TC6e  1 3.650000e-01    1.910000e+00
   SP2  TC5e  1 3.650000e-01    1.750000e+00
   SP2  TC4e  1 3.660000e-01    1.600000e+00
   SP2  TC3e  1 3.780000e-01    1.450000e+00
   SP2  TC2e  1 3.780000e-01    1.450000e+00
   SP2  TC1e  1 3.940000e-01    1.290000e+00
   SP2  TX4e  1 3.650000e-01    1.910000e+00
   SP2  TX3e  1 3.650000e-01    1.910000e+00
   SP2  TX2e  1 3.650000e-01    1.750000e+00
   SP2  TX1e  1 3.660000e-01    1.600000e+00
   SP2  TP2q  1 3.650000e-01    3.370000e+00
   SP2 TX1eq  1 3.650000e-01    1.910000e+00
   SP2 TX2eq  1 3.650000e-01    2.110000e+00
   SP2 TX3eq  1 3.650000e-01    2.340000e+00
   SP2 TX4eq  1 3.650000e-01    2.340000e+00
   SP2 TC1eq  1 3.660000e-01    1.600000e+00
   SP2 TC2eq  1 3.650000e-01    1.750000e+00
   SP2 TC3eq  1 3.650000e-01    1.750000e+00
   SP2 TC4eq  1 3.650000e-01    1.910000e+00
   SP2 TC5eq  1 3.650000e-01    2.110000e+00
   SP2 TC6eq  1 3.650000e-01    2.340000e+00
   SP2 TX1vq  1 3.650000e-01    1.910000e+00
   SP2 TX2vq  1 3.650000e-01    2.110000e+00
   SP2 TX3vq  1 3.650000e-01    2.340000e+00
   SP2 TX4vq  1 3.650000e-01    2.340000e+00
   SP2 TC1vq  1 3.660000e-01    1.600000e+00
   SP2 TC2vq  1 3.650000e-01    1.750000e+00
   SP2 TC3vq  1 3.650000e-01    1.750000e+00
   SP2 TC4vq  1 3.650000e-01    1.910000e+00
   SP2 TC5vq  1 3.650000e-01    2.110000e+00
   SP2 TC6vq  1 3.650000e-01    2.340000e+00
   SP2 TN1aq  1 3.650000e-01    2.340000e+00
   SP2 TN2aq  1 3.650000e-01    2.340000e+00
   SP2 TN3aq  1 3.650000e-01    2.340000e+00
   SP2 TN4aq  1 3.650000e-01    2.570000e+00
   SP2 TN5aq  1 3.650000e-01    2.830000e+00
   SP2 TN6aq  1 3.650000e-01    3.100000e+00
   SP2 TP1aq  1 3.650000e-01    3.100000e+00
   SP2 TP2aq  1 3.650000e-01    3.370000e+00
   SP2 TN1dq  1 3.650000e-01    2.340000e+00
   SP2 TN2dq  1 3.650000e-01    2.340000e+00
   SP2 TN3dq  1 3.650000e-01    2.340000e+00
   SP2 TN4dq  1 3.650000e-01    2.570000e+00
   SP2 TN5dq  1 3.650000e-01    2.830000e+00
   SP2 TN6dq  1 3.650000e-01    3.100000e+00
   SP2 TP1dq  1 3.650000e-01    3.100000e+00
   SP2 TP2dq  1 3.650000e-01    3.370000e+00
   SP2  TX1q  1 3.650000e-01    1.750000e+00
   SP2  TX2q  1 3.650000e-01    1.910000e+00
   SP2  TX3q  1 3.650000e-01    2.110000e+00
   SP2  TX4q  1 3.650000e-01    2.110000e+00
   SP2  TC1q  1 3.780000e-01    1.450000e+00
   SP2  TC2q  1 3.660000e-01    1.600000e+00
   SP2  TC3q  1 3.660000e-01    1.600000e+00
   SP2  TC4q  1 3.650000e-01    1.750000e+00
   SP2  TC5q  1 3.650000e-01    1.910000e+00
   SP2  TC6q  1 3.650000e-01    2.110000e+00
   SP2  TN1q  1 3.650000e-01    2.340000e+00
   SP2  TN2q  1 3.650000e-01    2.340000e+00
   SP2  TN3q  1 3.650000e-01    2.340000e+00
   SP2  TN4q  1 3.650000e-01    2.570000e+00
   SP2  TN5q  1 3.650000e-01    2.830000e+00
   SP2  TN6q  1 3.650000e-01    3.100000e+00
   SP2  TP1q  1 3.650000e-01    3.100000e+00
   SP2  TP2h  1 3.650000e-01    2.830000e+00
   SP2 TX1eh  1 3.660000e-01    1.600000e+00
   SP2 TX2eh  1 3.650000e-01    1.750000e+00
   SP2 TX3eh  1 3.650000e-01    1.910000e+00
   SP2 TX4eh  1 3.650000e-01    1.910000e+00
   SP2 TC1eh  1 3.940000e-01    1.290000e+00
   SP2 TC2eh  1 3.780000e-01    1.450000e+00
   SP2 TC3eh  1 3.780000e-01    1.450000e+00
   SP2 TC4eh  1 3.660000e-01    1.600000e+00
   SP2 TC5eh  1 3.650000e-01    1.750000e+00
   SP2 TC6eh  1 3.650000e-01    1.910000e+00
   SP2 TX1vh  1 3.660000e-01    1.600000e+00
   SP2 TX2vh  1 3.650000e-01    1.750000e+00
   SP2 TX3vh  1 3.650000e-01    1.910000e+00
   SP2 TX4vh  1 3.650000e-01    1.910000e+00
   SP2 TC1vh  1 3.940000e-01    1.290000e+00
   SP2 TC2vh  1 3.780000e-01    1.450000e+00
   SP2 TC3vh  1 3.780000e-01    1.450000e+00
   SP2 TC4vh  1 3.660000e-01    1.600000e+00
   SP2 TC5vh  1 3.650000e-01    1.750000e+00
   SP2 TC6vh  1 3.650000e-01    1.910000e+00
   SP2 TN1ah  1 3.650000e-01    1.910000e+00
   SP2 TN2ah  1 3.650000e-01    1.910000e+00
   SP2 TN3ah  1 3.650000e-01    1.910000e+00
   SP2 TN4ah  1 3.650000e-01    2.110000e+00
   SP2 TN5ah  1 3.650000e-01    2.340000e+00
   SP2 TN6ah  1 3.650000e-01    2.570000e+00
   SP2 TP1ah  1 3.650000e-01    2.570000e+00
   SP2 TP2ah  1 3.650000e-01    2.830000e+00
   SP2 TN1dh  1 3.650000e-01    1.910000e+00
   SP2 TN2dh  1 3.650000e-01    1.910000e+00
   SP2 TN3dh  1 3.650000e-01    1.910000e+00
   SP2 TN4dh  1 3.650000e-01    2.110000e+00
   SP2 TN5dh  1 3.650000e-01    2.340000e+00
   SP2 TN6dh  1 3.650000e-01    2.570000e+00
   SP2 TP1dh  1 3.650000e-01    2.570000e+00
   SP2 TP2dh  1 3.650000e-01    2.830000e+00
   SP2  TX1h  1 3.780000e-01    1.450000e+00
   SP2  TX2h  1 3.660000e-01    1.600000e+00
   SP2  TX3h  1 3.650000e-01    1.750000e+00
   SP2  TX4h  1 3.650000e-01    1.750000e+00
   SP2  TC1h  1 4.040000e-01    1.130000e+00
   SP2  TC2h  1 3.940000e-01    1.290000e+00
   SP2  TC3h  1 3.940000e-01    1.290000e+00
   SP2  TC4h  1 3.780000e-01    1.450000e+00
   SP2  TC5h  1 3.660000e-01    1.600000e+00
   SP2  TC6h  1 3.650000e-01    1.750000e+00
   SP2  TN1h  1 3.650000e-01    1.910000e+00
   SP2  TN2h  1 3.650000e-01    1.910000e+00
   SP2  TN3h  1 3.650000e-01    1.910000e+00
   SP2  TN4h  1 3.650000e-01    2.110000e+00
   SP2  TN5h  1 3.650000e-01    2.340000e+00
   SP2  TN6h  1 3.650000e-01    2.570000e+00
   SP2  TP1h  1 3.650000e-01    2.570000e+00
   SP2  TP2r  1 3.650000e-01    2.830000e+00
   SP2 TX1er  1 3.660000e-01    1.600000e+00
   SP2 TX2er  1 3.650000e-01    1.750000e+00
   SP2 TX3er  1 3.650000e-01    1.910000e+00
   SP2 TX4er  1 3.650000e-01    1.910000e+00
   SP2 TC1er  1 3.940000e-01    1.290000e+00
   SP2 TC2er  1 3.780000e-01    1.450000e+00
   SP2 TC3er  1 3.780000e-01    1.450000e+00
   SP2 TC4er  1 3.660000e-01    1.600000e+00
   SP2 TC5er  1 3.650000e-01    1.750000e+00
   SP2 TC6er  1 3.650000e-01    1.910000e+00
   SP2 TX1vr  1 3.660000e-01    1.600000e+00
   SP2 TX2vr  1 3.650000e-01    1.750000e+00
   SP2 TX3vr  1 3.650000e-01    1.910000e+00
   SP2 TX4vr  1 3.650000e-01    1.910000e+00
   SP2 TC1vr  1 3.940000e-01    1.290000e+00
   SP2 TC2vr  1 3.780000e-01    1.450000e+00
   SP2 TC3vr  1 3.780000e-01    1.450000e+00
   SP2 TC4vr  1 3.660000e-01    1.600000e+00
   SP2 TC5vr  1 3.650000e-01    1.750000e+00
   SP2 TC6vr  1 3.650000e-01    1.910000e+00
   SP2 TN1ar  1 3.650000e-01    1.910000e+00
   SP2 TN2ar  1 3.650000e-01    1.910000e+00
   SP2 TN3ar  1 3.650000e-01    1.910000e+00
   SP2 TN4ar  1 3.650000e-01    2.110000e+00
   SP2 TN5ar  1 3.650000e-01    2.340000e+00
   SP2 TN6ar  1 3.650000e-01    2.570000e+00
   SP2 TP1ar  1 3.650000e-01    2.570000e+00
   SP2 TP2ar  1 3.650000e-01    2.830000e+00
   SP2 TN1dr  1 3.650000e-01    1.910000e+00
   SP2 TN2dr  1 3.650000e-01    1.910000e+00
   SP2 TN3dr  1 3.650000e-01    1.910000e+00
   SP2 TN4dr  1 3.650000e-01    2.110000e+00
   SP2 TN5dr  1 3.650000e-01    2.340000e+00
   SP2 TN6dr  1 3.650000e-01    2.570000e+00
   SP2 TP1dr  1 3.650000e-01    2.570000e+00
   SP2 TP2dr  1 3.650000e-01    2.830000e+00
   SP2  TX1r  1 3.780000e-01    1.450000e+00
   SP2  TX2r  1 3.660000e-01    1.600000e+00
   SP2  TX3r  1 3.650000e-01    1.750000e+00
   SP2  TX4r  1 3.650000e-01    1.750000e+00
   SP2  TC1r  1 4.040000e-01    1.130000e+00
   SP2  TC2r  1 3.940000e-01    1.290000e+00
   SP2  TC3r  1 3.940000e-01    1.290000e+00
   SP2  TC4r  1 3.780000e-01    1.450000e+00
   SP2  TC5r  1 3.660000e-01    1.600000e+00
   SP2  TC6r  1 3.650000e-01    1.750000e+00
   SP2  TN1r  1 3.650000e-01    1.910000e+00
   SP2  TN2r  1 3.650000e-01    1.910000e+00
   SP2  TN3r  1 3.650000e-01    1.910000e+00
   SP2  TN4r  1 3.650000e-01    2.110000e+00
   SP2  TN5r  1 3.650000e-01    2.340000e+00
   SP2  TN6r  1 3.650000e-01    2.570000e+00
   SP2  TP1r  1 3.650000e-01    2.570000e+00
  TP6d   SP2  1 3.650000e-01    3.100000e+00
  TP5d   SP2  1 3.650000e-01    2.830000e+00
  TP4d   SP2  1 3.650000e-01    2.830000e+00
  TP3d   SP2  1 3.650000e-01    2.830000e+00
  TP6a   SP2  1 3.650000e-01    3.100000e+00
  TP5a   SP2  1 3.650000e-01    2.830000e+00
  TP4a   SP2  1 3.650000e-01    2.830000e+00
  TP3a   SP2  1 3.650000e-01    2.830000e+00
  TP6q   SP2  1 3.650000e-01    3.640000e+00
  TP5q   SP2  1 3.650000e-01    3.370000e+00
  TP4q   SP2  1 3.650000e-01    3.370000e+00
  TP3q   SP2  1 3.650000e-01    3.370000e+00
 TP3aq   SP2  1 3.650000e-01    3.370000e+00
 TP4aq   SP2  1 3.650000e-01    3.370000e+00
 TP5aq   SP2  1 3.650000e-01    3.370000e+00
 TP6aq   SP2  1 3.650000e-01    3.640000e+00
 TP3dq   SP2  1 3.650000e-01    3.370000e+00
 TP4dq   SP2  1 3.650000e-01    3.370000e+00
 TP5dq   SP2  1 3.650000e-01    3.370000e+00
 TP6dq   SP2  1 3.650000e-01    3.640000e+00
  TP6h   SP2  1 3.650000e-01    3.100000e+00
  TP5h   SP2  1 3.650000e-01    2.830000e+00
  TP4h   SP2  1 3.650000e-01    2.830000e+00
  TP3h   SP2  1 3.650000e-01    2.830000e+00
 TP3ah   SP2  1 3.650000e-01    2.830000e+00
 TP4ah   SP2  1 3.650000e-01    2.830000e+00
 TP5ah   SP2  1 3.650000e-01    2.830000e+00
 TP6ah   SP2  1 3.650000e-01    3.100000e+00
 TP3dh   SP2  1 3.650000e-01    2.830000e+00
 TP4dh   SP2  1 3.650000e-01    2.830000e+00
 TP5dh   SP2  1 3.650000e-01    2.830000e+00
 TP6dh   SP2  1 3.650000e-01    3.100000e+00
  TP6r   SP2  1 3.650000e-01    3.100000e+00
  TP5r   SP2  1 3.650000e-01    2.830000e+00
  TP4r   SP2  1 3.650000e-01    2.830000e+00
  TP3r   SP2  1 3.650000e-01    2.830000e+00
 TP3ar   SP2  1 3.650000e-01    2.830000e+00
 TP4ar   SP2  1 3.650000e-01    2.830000e+00
 TP5ar   SP2  1 3.650000e-01    2.830000e+00
 TP6ar   SP2  1 3.650000e-01    3.100000e+00
 TP3dr   SP2  1 3.650000e-01    2.830000e+00
 TP4dr   SP2  1 3.650000e-01    2.830000e+00
 TP5dr   SP2  1 3.650000e-01    2.830000e+00
 TP6dr   SP2  1 3.650000e-01    3.100000e+00
   P6d   TP2  1 3.950000e-01    3.430000e+00
   P5d   TP2  1 3.950000e-01    3.190000e+00
   P4d   TP2  1 3.950000e-01    3.190000e+00
   P3d   TP2  1 3.950000e-01    3.190000e+00
   P6a   TP2  1 3.950000e-01    3.430000e+00
   P5a   TP2  1 3.950000e-01    3.190000e+00
   P4a   TP2  1 3.950000e-01    3.190000e+00
   P3a   TP2  1 3.950000e-01    3.190000e+00
   P6q   TP2  1 3.950000e-01    3.910000e+00
   P5q   TP2  1 3.950000e-01    3.670000e+00
   P4q   TP2  1 3.950000e-01    3.670000e+00
   P3q   TP2  1 3.950000e-01    3.670000e+00
  P3aq   TP2  1 3.950000e-01    3.670000e+00
  P4aq   TP2  1 3.950000e-01    3.670000e+00
  P5aq   TP2  1 3.950000e-01    3.670000e+00
  P6aq   TP2  1 3.950000e-01    3.910000e+00
  P3dq   TP2  1 3.950000e-01    3.670000e+00
  P4dq   TP2  1 3.950000e-01    3.670000e+00
  P5dq   TP2  1 3.950000e-01    3.670000e+00
  P6dq   TP2  1 3.950000e-01    3.910000e+00
   P6h   TP2  1 3.950000e-01    3.430000e+00
   P5h   TP2  1 3.950000e-01    3.190000e+00
   P4h   TP2  1 3.950000e-01    3.190000e+00
   P3h   TP2  1 3.950000e-01    3.190000e+00
  P3ah   TP2  1 3.950000e-01    3.190000e+00
  P4ah   TP2  1 3.950000e-01    3.190000e+00
  P5ah   TP2  1 3.950000e-01    3.190000e+00
  P6ah   TP2  1 3.950000e-01    3.430000e+00
  P3dh   TP2  1 3.950000e-01    3.190000e+00
  P4dh   TP2  1 3.950000e-01    3.190000e+00
  P5dh   TP2  1 3.950000e-01    3.190000e+00
  P6dh   TP2  1 3.950000e-01    3.430000e+00
   P6r   TP2  1 3.950000e-01    3.430000e+00
   P5r   TP2  1 3.950000e-01    3.190000e+00
   P4r   TP2  1 3.950000e-01    3.190000e+00
   P3r   TP2  1 3.950000e-01    3.190000e+00
  P3ar   TP2  1 3.950000e-01    3.190000e+00
  P4ar   TP2  1 3.950000e-01    3.190000e+00
  P5ar   TP2  1 3.950000e-01    3.190000e+00
  P6ar   TP2  1 3.950000e-01    3.430000e+00
  P3dr   TP2  1 3.950000e-01    3.190000e+00
  P4dr   TP2  1 3.950000e-01    3.190000e+00
  P5dr   TP2  1 3.950000e-01    3.190000e+00
  P6dr   TP2  1 3.950000e-01    3.430000e+00
   TP2    P1  1 3.950000e-01    2.940000e+00
   TP2    N6  1 3.950000e-01    2.940000e+00
   TP2    N5  1 3.950000e-01    2.700000e+00
   TP2    N4  1 3.950000e-01    2.500000e+00
   TP2    N3  1 3.950000e-01    2.310000e+00
   TP2    N2  1 3.950000e-01    2.310000e+00
   TP2    N1  1 3.950000e-01    2.310000e+00
   TP2    C6  1 3.950000e-01    2.110000e+00
   TP2    C5  1 3.950000e-01    1.850000e+00
   TP2    C4  1 3.950000e-01    1.670000e+00
   TP2    C3  1 3.980000e-01    1.450000e+00
   TP2    C2  1 3.980000e-01    1.450000e+00
   TP2    C1  1 3.990000e-01    1.180000e+00
   TP2    X4  1 3.950000e-01    2.110000e+00
   TP2    X3  1 3.950000e-01    2.110000e+00
   TP2    X2  1 3.950000e-01    1.850000e+00
   TP2    X1  1 3.950000e-01    1.670000e+00
   TP2   P2d  1 3.950000e-01    3.190000e+00
   TP2   N1d  1 3.950000e-01    2.310000e+00
   TP2   N2d  1 3.950000e-01    2.310000e+00
   TP2   N3d  1 3.950000e-01    2.310000e+00
   TP2   N4d  1 3.950000e-01    2.500000e+00
   TP2   N5d  1 3.950000e-01    2.700000e+00
   TP2   N6d  1 3.950000e-01    2.940000e+00
   TP2   P1d  1 3.950000e-01    2.940000e+00
   TP2   P2a  1 3.950000e-01    3.190000e+00
   TP2   N1a  1 3.950000e-01    2.310000e+00
   TP2   N2a  1 3.950000e-01    2.310000e+00
   TP2   N3a  1 3.950000e-01    2.310000e+00
   TP2   N4a  1 3.950000e-01    2.500000e+00
   TP2   N5a  1 3.950000e-01    2.700000e+00
   TP2   N6a  1 3.950000e-01    2.940000e+00
   TP2   P1a  1 3.950000e-01    2.940000e+00
   TP2   C6v  1 3.950000e-01    2.310000e+00
   TP2   C5v  1 3.950000e-01    2.110000e+00
   TP2   C4v  1 3.950000e-01    1.850000e+00
   TP2   C3v  1 3.950000e-01    1.670000e+00
   TP2   C2v  1 3.950000e-01    1.670000e+00
   TP2   C1v  1 3.980000e-01    1.450000e+00
   TP2   X4v  1 3.950000e-01    2.310000e+00
   TP2   X3v  1 3.950000e-01    2.310000e+00
   TP2   X2v  1 3.950000e-01    2.110000e+00
   TP2   X1v  1 3.950000e-01    1.850000e+00
   TP2   C6e  1 3.950000e-01    2.310000e+00
   TP2   C5e  1 3.950000e-01    2.110000e+00
   TP2   C4e  1 3.950000e-01    1.850000e+00
   TP2   C3e  1 3.950000e-01    1.670000e+00
   TP2   C2e  1 3.950000e-01    1.670000e+00
   TP2   C1e  1 3.980000e-01    1.450000e+00
   TP2   X4e  1 3.950000e-01    2.310000e+00
   TP2   X3e  1 3.950000e-01    2.310000e+00
   TP2   X2e  1 3.950000e-01    2.110000e+00
   TP2   X1e  1 3.950000e-01    1.850000e+00
   TP2   P2q  1 3.950000e-01    3.670000e+00
   TP2  X1eq  1 3.950000e-01    2.310000e+00
   TP2  X2eq  1 3.950000e-01    2.500000e+00
   TP2  X3eq  1 3.950000e-01    2.700000e+00
   TP2  X4eq  1 3.950000e-01    2.700000e+00
   TP2  C1eq  1 3.950000e-01    1.850000e+00
   TP2  C2eq  1 3.950000e-01    2.110000e+00
   TP2  C3eq  1 3.950000e-01    2.110000e+00
   TP2  C4eq  1 3.950000e-01    2.310000e+00
   TP2  C5eq  1 3.950000e-01    2.500000e+00
   TP2  C6eq  1 3.950000e-01    2.700000e+00
   TP2  X1vq  1 3.950000e-01    2.310000e+00
   TP2  X2vq  1 3.950000e-01    2.500000e+00
   TP2  X3vq  1 3.950000e-01    2.700000e+00
   TP2  X4vq  1 3.950000e-01    2.700000e+00
   TP2  C1vq  1 3.950000e-01    1.850000e+00
   TP2  C2vq  1 3.950000e-01    2.110000e+00
   TP2  C3vq  1 3.950000e-01    2.110000e+00
   TP2  C4vq  1 3.950000e-01    2.310000e+00
   TP2  C5vq  1 3.950000e-01    2.500000e+00
   TP2  C6vq  1 3.950000e-01    2.700000e+00
   TP2  N1aq  1 3.950000e-01    2.700000e+00
   TP2  N2aq  1 3.950000e-01    2.700000e+00
   TP2  N3aq  1 3.950000e-01    2.700000e+00
   TP2  N4aq  1 3.950000e-01    2.940000e+00
   TP2  N5aq  1 3.950000e-01    3.190000e+00
   TP2  N6aq  1 3.950000e-01    3.430000e+00
   TP2  P1aq  1 3.950000e-01    3.430000e+00
   TP2  P2aq  1 3.950000e-01    3.670000e+00
   TP2  N1dq  1 3.950000e-01    2.700000e+00
   TP2  N2dq  1 3.950000e-01    2.700000e+00
   TP2  N3dq  1 3.950000e-01    2.700000e+00
   TP2  N4dq  1 3.950000e-01    2.940000e+00
   TP2  N5dq  1 3.950000e-01    3.190000e+00
   TP2  N6dq  1 3.950000e-01    3.430000e+00
   TP2  P1dq  1 3.950000e-01    3.430000e+00
   TP2  P2dq  1 3.950000e-01    3.670000e+00
   TP2   X1q  1 3.950000e-01    2.110000e+00
   TP2   X2q  1 3.950000e-01    2.310000e+00
   TP2   X3q  1 3.950000e-01    2.500000e+00
   TP2   X4q  1 3.950000e-01    2.500000e+00
   TP2   C1q  1 3.950000e-01    1.670000e+00
   TP2   C2q  1 3.950000e-01    1.850000e+00
   TP2   C3q  1 3.950000e-01    1.850000e+00
   TP2   C4q  1 3.950000e-01    2.110000e+00
   TP2   C5q  1 3.950000e-01    2.310000e+00
   TP2   C6q  1 3.950000e-01    2.500000e+00
   TP2   N1q  1 3.950000e-01    2.700000e+00
   TP2   N2q  1 3.950000e-01    2.700000e+00
   TP2   N3q  1 3.950000e-01    2.700000e+00
   TP2   N4q  1 3.950000e-01    2.940000e+00
   TP2   N5q  1 3.950000e-01    3.190000e+00
   TP2   N6q  1 3.950000e-01    3.430000e+00
   TP2   P1q  1 3.950000e-01    3.430000e+00
   TP2   P2h  1 3.950000e-01    3.190000e+00
   TP2  X1eh  1 3.950000e-01    1.850000e+00
   TP2  X2eh  1 3.950000e-01    2.110000e+00
   TP2  X3eh  1 3.950000e-01    2.310000e+00
   TP2  X4eh  1 3.950000e-01    2.310000e+00
   TP2  C1eh  1 3.980000e-01    1.450000e+00
   TP2  C2eh  1 3.950000e-01    1.670000e+00
   TP2  C3eh  1 3.950000e-01    1.670000e+00
   TP2  C4eh  1 3.950000e-01    1.850000e+00
   TP2  C5eh  1 3.950000e-01    2.110000e+00
   TP2  C6eh  1 3.950000e-01    2.310000e+00
   TP2  X1vh  1 3.950000e-01    1.850000e+00
   TP2  X2vh  1 3.950000e-01    2.110000e+00
   TP2  X3vh  1 3.950000e-01    2.310000e+00
   TP2  X4vh  1 3.950000e-01    2.310000e+00
   TP2  C1vh  1 3.980000e-01    1.450000e+00
   TP2  C2vh  1 3.950000e-01    1.670000e+00
   TP2  C3vh  1 3.950000e-01    1.670000e+00
   TP2  C4vh  1 3.950000e-01    1.850000e+00
   TP2  C5vh  1 3.950000e-01    2.110000e+00
   TP2  C6vh  1 3.950000e-01    2.310000e+00
   TP2  N1ah  1 3.950000e-01    2.310000e+00
   TP2  N2ah  1 3.950000e-01    2.310000e+00
   TP2  N3ah  1 3.950000e-01    2.310000e+00
   TP2  N4ah  1 3.950000e-01    2.500000e+00
   TP2  N5ah  1 3.950000e-01    2.700000e+00
   TP2  N6ah  1 3.950000e-01    2.940000e+00
   TP2  P1ah  1 3.950000e-01    2.940000e+00
   TP2  P2ah  1 3.950000e-01    3.190000e+00
   TP2  N1dh  1 3.950000e-01    2.310000e+00
   TP2  N2dh  1 3.950000e-01    2.310000e+00
   TP2  N3dh  1 3.950000e-01    2.310000e+00
   TP2  N4dh  1 3.950000e-01    2.500000e+00
   TP2  N5dh  1 3.950000e-01    2.700000e+00
   TP2  N6dh  1 3.950000e-01    2.940000e+00
   TP2  P1dh  1 3.950000e-01    2.940000e+00
   TP2  P2dh  1 3.950000e-01    3.190000e+00
   TP2   X1h  1 3.950000e-01    1.670000e+00
   TP2   X2h  1 3.950000e-01    1.850000e+00
   TP2   X3h  1 3.950000e-01    2.110000e+00
   TP2   X4h  1 3.950000e-01    2.110000e+00
   TP2   C1h  1 3.990000e-01    1.180000e+00
   TP2   C2h  1 3.980000e-01    1.450000e+00
   TP2   C3h  1 3.980000e-01    1.450000e+00
   TP2   C4h  1 3.950000e-01    1.670000e+00
   TP2   C5h  1 3.950000e-01    1.850000e+00
   TP2   C6h  1 3.950000e-01    2.110000e+00
   TP2   N1h  1 3.950000e-01    2.310000e+00
   TP2   N2h  1 3.950000e-01    2.310000e+00
   TP2   N3h  1 3.950000e-01    2.310000e+00
   TP2   N4h  1 3.950000e-01    2.500000e+00
   TP2   N5h  1 3.950000e-01    2.700000e+00
   TP2   N6h  1 3.950000e-01    2.940000e+00
   TP2   P1h  1 3.950000e-01    2.940000e+00
   TP2   P2r  1 3.950000e-01    3.190000e+00
   TP2  X1er  1 3.950000e-01    1.850000e+00
   TP2  X2er  1 3.950000e-01    2.110000e+00
   TP2  X3er  1 3.950000e-01    2.310000e+00
   TP2  X4er  1 3.950000e-01    2.310000e+00
   TP2  C1er  1 3.980000e-01    1.450000e+00
   TP2  C2er  1 3.950000e-01    1.670000e+00
   TP2  C3er  1 3.950000e-01    1.670000e+00
   TP2  C4er  1 3.950000e-01    1.850000e+00
   TP2  C5er  1 3.950000e-01    2.110000e+00
   TP2  C6er  1 3.950000e-01    2.310000e+00
   TP2  X1vr  1 3.950000e-01    1.850000e+00
   TP2  X2vr  1 3.950000e-01    2.110000e+00
   TP2  X3vr  1 3.950000e-01    2.310000e+00
   TP2  X4vr  1 3.950000e-01    2.310000e+00
   TP2  C1vr  1 3.980000e-01    1.450000e+00
   TP2  C2vr  1 3.950000e-01    1.670000e+00
   TP2  C3vr  1 3.950000e-01    1.670000e+00
   TP2  C4vr  1 3.950000e-01    1.850000e+00
   TP2  C5vr  1 3.950000e-01    2.110000e+00
   TP2  C6vr  1 3.950000e-01    2.310000e+00
   TP2  N1ar  1 3.950000e-01    2.310000e+00
   TP2  N2ar  1 3.950000e-01    2.310000e+00
   TP2  N3ar  1 3.950000e-01    2.310000e+00
   TP2  N4ar  1 3.950000e-01    2.500000e+00
   TP2  N5ar  1 3.950000e-01    2.700000e+00
   TP2  N6ar  1 3.950000e-01    2.940000e+00
   TP2  P1ar  1 3.950000e-01    2.940000e+00
   TP2  P2ar  1 3.950000e-01    3.190000e+00
   TP2  N1dr  1 3.950000e-01    2.310000e+00
   TP2  N2dr  1 3.950000e-01    2.310000e+00
   TP2  N3dr  1 3.950000e-01    2.310000e+00
   TP2  N4dr  1 3.950000e-01    2.500000e+00
   TP2  N5dr  1 3.950000e-01    2.700000e+00
   TP2  N6dr  1 3.950000e-01    2.940000e+00
   TP2  P1dr  1 3.950000e-01    2.940000e+00
   TP2  P2dr  1 3.950000e-01    3.190000e+00
   TP2   X1r  1 3.950000e-01    1.670000e+00
   TP2   X2r  1 3.950000e-01    1.850000e+00
   TP2   X3r  1 3.950000e-01    2.110000e+00
   TP2   X4r  1 3.950000e-01    2.110000e+00
   TP2   C1r  1 3.990000e-01    1.180000e+00
   TP2   C2r  1 3.980000e-01    1.450000e+00
   TP2   C3r  1 3.980000e-01    1.450000e+00
   TP2   C4r  1 3.950000e-01    1.670000e+00
   TP2   C5r  1 3.950000e-01    1.850000e+00
   TP2   C6r  1 3.950000e-01    2.110000e+00
   TP2   N1r  1 3.950000e-01    2.310000e+00
   TP2   N2r  1 3.950000e-01    2.310000e+00
   TP2   N3r  1 3.950000e-01    2.310000e+00
   TP2   N4r  1 3.950000e-01    2.500000e+00
   TP2   N5r  1 3.950000e-01    2.700000e+00
   TP2   N6r  1 3.950000e-01    2.940000e+00
   TP2   P1r  1 3.950000e-01    2.940000e+00
   TP2   TP2  1 3.400000e-01    2.500000e+00
   TP2   TP1  1 3.400000e-01    2.280000e+00
   TP2   TN6  1 3.400000e-01    2.280000e+00
   TP2   TN5  1 3.400000e-01    2.020000e+00
   TP2   TN4  1 3.400000e-01    1.770000e+00
   TP2   TN3  1 3.400000e-01    1.510000e+00
   TP2   TN2  1 3.400000e-01    1.510000e+00
   TP2   TN1  1 3.400000e-01    1.510000e+00
   TP2   TC6  1 3.400000e-01    1.230000e+00
   TP2   TC5  1 3.520000e-01    1.050000e+00
   TP2   TC4  1 3.660000e-01    9.350000e-01
   TP2   TC3  1 3.850000e-01    8.550000e-01
   TP2   TC2  1 3.850000e-01    8.550000e-01
   TP2   TC1  1 4.110000e-01    8.010000e-01
   TP2   TX4  1 3.400000e-01    1.230000e+00
   TP2   TX3  1 3.400000e-01    1.230000e+00
   TP2   TX2  1 3.520000e-01    1.050000e+00
   TP2   TX1  1 3.660000e-01    9.350000e-01
  TP6d   TP2  1 3.400000e-01    2.740000e+00
  TP5d   TP2  1 3.400000e-01    2.500000e+00
  TP4d   TP2  1 3.400000e-01    2.500000e+00
  TP3d   TP2  1 3.400000e-01    2.500000e+00
   TP2  TP2d  1 3.400000e-01    2.500000e+00
   TP2  TN1d  1 3.400000e-01    1.510000e+00
   TP2  TN2d  1 3.400000e-01    1.510000e+00
   TP2  TN3d  1 3.400000e-01    1.510000e+00
   TP2  TN4d  1 3.400000e-01    1.770000e+00
   TP2  TN5d  1 3.400000e-01    2.020000e+00
   TP2  TN6d  1 3.400000e-01    2.280000e+00
   TP2  TP1d  1 3.400000e-01    2.280000e+00
  TP6a   TP2  1 3.400000e-01    2.740000e+00
  TP5a   TP2  1 3.400000e-01    2.500000e+00
  TP4a   TP2  1 3.400000e-01    2.500000e+00
  TP3a   TP2  1 3.400000e-01    2.500000e+00
   TP2  TP2a  1 3.400000e-01    2.500000e+00
   TP2  TN1a  1 3.400000e-01    1.510000e+00
   TP2  TN2a  1 3.400000e-01    1.510000e+00
   TP2  TN3a  1 3.400000e-01    1.510000e+00
   TP2  TN4a  1 3.400000e-01    1.770000e+00
   TP2  TN5a  1 3.400000e-01    2.020000e+00
   TP2  TN6a  1 3.400000e-01    2.280000e+00
   TP2  TP1a  1 3.400000e-01    2.280000e+00
   TP2  TC6v  1 3.400000e-01    1.510000e+00
   TP2  TC5v  1 3.400000e-01    1.230000e+00
   TP2  TC4v  1 3.520000e-01    1.050000e+00
   TP2  TC3v  1 3.660000e-01    9.350000e-01
   TP2  TC2v  1 3.660000e-01    9.350000e-01
   TP2  TC1v  1 3.850000e-01    8.550000e-01
   TP2  TX4v  1 3.400000e-01    1.510000e+00
   TP2  TX3v  1 3.400000e-01    1.510000e+00
   TP2  TX2v  1 3.400000e-01    1.230000e+00
   TP2  TX1v  1 3.520000e-01    1.050000e+00
   TP2  TC6e  1 3.400000e-01    1.510000e+00
   TP2  TC5e  1 3.400000e-01    1.230000e+00
   TP2  TC4e  1 3.520000e-01    1.050000e+00
   TP2  TC3e  1 3.660000e-01    9.350000e-01
   TP2  TC2e  1 3.660000e-01    9.350000e-01
   TP2  TC1e  1 3.850000e-01    8.550000e-01
   TP2  TX4e  1 3.400000e-01    1.510000e+00
   TP2  TX3e  1 3.400000e-01    1.510000e+00
   TP2  TX2e  1 3.400000e-01    1.230000e+00
   TP2  TX1e  1 3.520000e-01    1.050000e+00
  TP6q   TP2  1 3.400000e-01    3.220000e+00
  TP5q   TP2  1 3.400000e-01    2.990000e+00
  TP4q   TP2  1 3.400000e-01    2.990000e+00
  TP3q   TP2  1 3.400000e-01    2.990000e+00
   TP2  TP2q  1 3.400000e-01    2.990000e+00
   TP2 TX1eq  1 3.400000e-01    1.510000e+00
   TP2 TX2eq  1 3.400000e-01    1.770000e+00
   TP2 TX3eq  1 3.400000e-01    2.020000e+00
   TP2 TX4eq  1 3.400000e-01    2.020000e+00
   TP2 TC1eq  1 3.520000e-01    1.050000e+00
   TP2 TC2eq  1 3.400000e-01    1.230000e+00
   TP2 TC3eq  1 3.400000e-01    1.230000e+00
   TP2 TC4eq  1 3.400000e-01    1.510000e+00
   TP2 TC5eq  1 3.400000e-01    1.770000e+00
   TP2 TC6eq  1 3.400000e-01    2.020000e+00
   TP2 TX1vq  1 3.400000e-01    1.510000e+00
   TP2 TX2vq  1 3.400000e-01    1.770000e+00
   TP2 TX3vq  1 3.400000e-01    2.020000e+00
   TP2 TX4vq  1 3.400000e-01    2.020000e+00
   TP2 TC1vq  1 3.520000e-01    1.050000e+00
   TP2 TC2vq  1 3.400000e-01    1.230000e+00
   TP2 TC3vq  1 3.400000e-01    1.230000e+00
   TP2 TC4vq  1 3.400000e-01    1.510000e+00
   TP2 TC5vq  1 3.400000e-01    1.770000e+00
   TP2 TC6vq  1 3.400000e-01    2.020000e+00
   TP2 TN1aq  1 3.400000e-01    2.020000e+00
   TP2 TN2aq  1 3.400000e-01    2.020000e+00
   TP2 TN3aq  1 3.400000e-01    2.020000e+00
   TP2 TN4aq  1 3.400000e-01    2.280000e+00
   TP2 TN5aq  1 3.400000e-01    2.500000e+00
   TP2 TN6aq  1 3.400000e-01    2.740000e+00
   TP2 TP1aq  1 3.400000e-01    2.740000e+00
   TP2 TP2aq  1 3.400000e-01    2.990000e+00
 TP3aq   TP2  1 3.400000e-01    2.990000e+00
 TP4aq   TP2  1 3.400000e-01    2.990000e+00
 TP5aq   TP2  1 3.400000e-01    2.990000e+00
 TP6aq   TP2  1 3.400000e-01    3.220000e+00
   TP2 TN1dq  1 3.400000e-01    2.020000e+00
   TP2 TN2dq  1 3.400000e-01    2.020000e+00
   TP2 TN3dq  1 3.400000e-01    2.020000e+00
   TP2 TN4dq  1 3.400000e-01    2.280000e+00
   TP2 TN5dq  1 3.400000e-01    2.500000e+00
   TP2 TN6dq  1 3.400000e-01    2.740000e+00
   TP2 TP1dq  1 3.400000e-01    2.740000e+00
   TP2 TP2dq  1 3.400000e-01    2.990000e+00
 TP3dq   TP2  1 3.400000e-01    2.990000e+00
 TP4dq   TP2  1 3.400000e-01    2.990000e+00
 TP5dq   TP2  1 3.400000e-01    2.990000e+00
 TP6dq   TP2  1 3.400000e-01    3.220000e+00
   TP2  TX1q  1 3.400000e-01    1.230000e+00
   TP2  TX2q  1 3.400000e-01    1.510000e+00
   TP2  TX3q  1 3.400000e-01    1.770000e+00
   TP2  TX4q  1 3.400000e-01    1.770000e+00
   TP2  TC1q  1 3.660000e-01    9.350000e-01
   TP2  TC2q  1 3.520000e-01    1.050000e+00
   TP2  TC3q  1 3.520000e-01    1.050000e+00
   TP2  TC4q  1 3.400000e-01    1.230000e+00
   TP2  TC5q  1 3.400000e-01    1.510000e+00
   TP2  TC6q  1 3.400000e-01    1.770000e+00
   TP2  TN1q  1 3.400000e-01    2.020000e+00
   TP2  TN2q  1 3.400000e-01    2.020000e+00
   TP2  TN3q  1 3.400000e-01    2.020000e+00
   TP2  TN4q  1 3.400000e-01    2.280000e+00
   TP2  TN5q  1 3.400000e-01    2.500000e+00
   TP2  TN6q  1 3.400000e-01    2.740000e+00
   TP2  TP1q  1 3.400000e-01    2.740000e+00
  TP6h   TP2  1 3.400000e-01    2.740000e+00
  TP5h   TP2  1 3.400000e-01    2.500000e+00
  TP4h   TP2  1 3.400000e-01    2.500000e+00
  TP3h   TP2  1 3.400000e-01    2.500000e+00
   TP2  TP2h  1 3.400000e-01    2.500000e+00
   TP2 TX1eh  1 3.520000e-01    1.050000e+00
   TP2 TX2eh  1 3.400000e-01    1.230000e+00
   TP2 TX3eh  1 3.400000e-01    1.510000e+00
   TP2 TX4eh  1 3.400000e-01    1.510000e+00
   TP2 TC1eh  1 3.850000e-01    8.550000e-01
   TP2 TC2eh  1 3.660000e-01    9.350000e-01
   TP2 TC3eh  1 3.660000e-01    9.350000e-01
   TP2 TC4eh  1 3.520000e-01    1.050000e+00
   TP2 TC5eh  1 3.400000e-01    1.230000e+00
   TP2 TC6eh  1 3.400000e-01    1.510000e+00
   TP2 TX1vh  1 3.520000e-01    1.050000e+00
   TP2 TX2vh  1 3.400000e-01    1.230000e+00
   TP2 TX3vh  1 3.400000e-01    1.510000e+00
   TP2 TX4vh  1 3.400000e-01    1.510000e+00
   TP2 TC1vh  1 3.850000e-01    8.550000e-01
   TP2 TC2vh  1 3.660000e-01    9.350000e-01
   TP2 TC3vh  1 3.660000e-01    9.350000e-01
   TP2 TC4vh  1 3.520000e-01    1.050000e+00
   TP2 TC5vh  1 3.400000e-01    1.230000e+00
   TP2 TC6vh  1 3.400000e-01    1.510000e+00
   TP2 TN1ah  1 3.400000e-01    1.510000e+00
   TP2 TN2ah  1 3.400000e-01    1.510000e+00
   TP2 TN3ah  1 3.400000e-01    1.510000e+00
   TP2 TN4ah  1 3.400000e-01    1.770000e+00
   TP2 TN5ah  1 3.400000e-01    2.020000e+00
   TP2 TN6ah  1 3.400000e-01    2.280000e+00
   TP2 TP1ah  1 3.400000e-01    2.280000e+00
   TP2 TP2ah  1 3.400000e-01    2.500000e+00
 TP3ah   TP2  1 3.400000e-01    2.500000e+00
 TP4ah   TP2  1 3.400000e-01    2.500000e+00
 TP5ah   TP2  1 3.400000e-01    2.500000e+00
 TP6ah   TP2  1 3.400000e-01    2.740000e+00
   TP2 TN1dh  1 3.400000e-01    1.510000e+00
   TP2 TN2dh  1 3.400000e-01    1.510000e+00
   TP2 TN3dh  1 3.400000e-01    1.510000e+00
   TP2 TN4dh  1 3.400000e-01    1.770000e+00
   TP2 TN5dh  1 3.400000e-01    2.020000e+00
   TP2 TN6dh  1 3.400000e-01    2.280000e+00
   TP2 TP1dh  1 3.400000e-01    2.280000e+00
   TP2 TP2dh  1 3.400000e-01    2.500000e+00
 TP3dh   TP2  1 3.400000e-01    2.500000e+00
 TP4dh   TP2  1 3.400000e-01    2.500000e+00
 TP5dh   TP2  1 3.400000e-01    2.500000e+00
 TP6dh   TP2  1 3.400000e-01    2.740000e+00
   TP2  TX1h  1 3.660000e-01    9.350000e-01
   TP2  TX2h  1 3.520000e-01    1.050000e+00
   TP2  TX3h  1 3.400000e-01    1.230000e+00
   TP2  TX4h  1 3.400000e-01    1.230000e+00
   TP2  TC1h  1 4.110000e-01    8.010000e-01
   TP2  TC2h  1 3.850000e-01    8.550000e-01
   TP2  TC3h  1 3.850000e-01    8.550000e-01
   TP2  TC4h  1 3.660000e-01    9.350000e-01
   TP2  TC5h  1 3.520000e-01    1.050000e+00
   TP2  TC6h  1 3.400000e-01    1.230000e+00
   TP2  TN1h  1 3.400000e-01    1.510000e+00
   TP2  TN2h  1 3.400000e-01    1.510000e+00
   TP2  TN3h  1 3.400000e-01    1.510000e+00
   TP2  TN4h  1 3.400000e-01    1.770000e+00
   TP2  TN5h  1 3.400000e-01    2.020000e+00
   TP2  TN6h  1 3.400000e-01    2.280000e+00
   TP2  TP1h  1 3.400000e-01    2.280000e+00
  TP6r   TP2  1 3.400000e-01    2.740000e+00
  TP5r   TP2  1 3.400000e-01    2.500000e+00
  TP4r   TP2  1 3.400000e-01    2.500000e+00
  TP3r   TP2  1 3.400000e-01    2.500000e+00
   TP2  TP2r  1 3.400000e-01    2.500000e+00
   TP2 TX1er  1 3.520000e-01    1.050000e+00
   TP2 TX2er  1 3.400000e-01    1.230000e+00
   TP2 TX3er  1 3.400000e-01    1.510000e+00
   TP2 TX4er  1 3.400000e-01    1.510000e+00
   TP2 TC1er  1 3.850000e-01    8.550000e-01
   TP2 TC2er  1 3.660000e-01    9.350000e-01
   TP2 TC3er  1 3.660000e-01    9.350000e-01
   TP2 TC4er  1 3.520000e-01    1.050000e+00
   TP2 TC5er  1 3.400000e-01    1.230000e+00
   TP2 TC6er  1 3.400000e-01    1.510000e+00
   TP2 TX1vr  1 3.520000e-01    1.050000e+00
   TP2 TX2vr  1 3.400000e-01    1.230000e+00
   TP2 TX3vr  1 3.400000e-01    1.510000e+00
   TP2 TX4vr  1 3.400000e-01    1.510000e+00
   TP2 TC1vr  1 3.850000e-01    8.550000e-01
   TP2 TC2vr  1 3.660000e-01    9.350000e-01
   TP2 TC3vr  1 3.660000e-01    9.350000e-01
   TP2 TC4vr  1 3.520000e-01    1.050000e+00
   TP2 TC5vr  1 3.400000e-01    1.230000e+00
   TP2 TC6vr  1 3.400000e-01    1.510000e+00
   TP2 TN1ar  1 3.400000e-01    1.510000e+00
   TP2 TN2ar  1 3.400000e-01    1.510000e+00
   TP2 TN3ar  1 3.400000e-01    1.510000e+00
   TP2 TN4ar  1 3.400000e-01    1.770000e+00
   TP2 TN5ar  1 3.400000e-01    2.020000e+00
   TP2 TN6ar  1 3.400000e-01    2.280000e+00
   TP2 TP1ar  1 3.400000e-01    2.280000e+00
   TP2 TP2ar  1 3.400000e-01    2.500000e+00
 TP3ar   TP2  1 3.400000e-01    2.500000e+00
 TP4ar   TP2  1 3.400000e-01    2.500000e+00
 TP5ar   TP2  1 3.400000e-01    2.500000e+00
 TP6ar   TP2  1 3.400000e-01    2.740000e+00
   TP2 TN1dr  1 3.400000e-01    1.510000e+00
   TP2 TN2dr  1 3.400000e-01    1.510000e+00
   TP2 TN3dr  1 3.400000e-01    1.510000e+00
   TP2 TN4dr  1 3.400000e-01    1.770000e+00
   TP2 TN5dr  1 3.400000e-01    2.020000e+00
   TP2 TN6dr  1 3.400000e-01    2.280000e+00
   TP2 TP1dr  1 3.400000e-01    2.280000e+00
   TP2 TP2dr  1 3.400000e-01    2.500000e+00
 TP3dr   TP2  1 3.400000e-01    2.500000e+00
 TP4dr   TP2  1 3.400000e-01    2.500000e+00
 TP5dr   TP2  1 3.400000e-01    2.500000e+00
 TP6dr   TP2  1 3.400000e-01    2.740000e+00
   TP2  TX1r  1 3.660000e-01    9.350000e-01
   TP2  TX2r  1 3.520000e-01    1.050000e+00
   TP2  TX3r  1 3.400000e-01    1.230000e+00
   TP2  TX4r  1 3.400000e-01    1.230000e+00
   TP2  TC1r  1 4.110000e-01    8.010000e-01
   TP2  TC2r  1 3.850000e-01    8.550000e-01
   TP2  TC3r  1 3.850000e-01    8.550000e-01
   TP2  TC4r  1 3.660000e-01    9.350000e-01
   TP2  TC5r  1 3.520000e-01    1.050000e+00
   TP2  TC6r  1 3.400000e-01    1.230000e+00
   TP2  TN1r  1 3.400000e-01    1.510000e+00
   TP2  TN2r  1 3.400000e-01    1.510000e+00
   TP2  TN3r  1 3.400000e-01    1.510000e+00
   TP2  TN4r  1 3.400000e-01    1.770000e+00
   TP2  TN5r  1 3.400000e-01    2.020000e+00
   TP2  TN6r  1 3.400000e-01    2.280000e+00
   TP2  TP1r  1 3.400000e-01    2.280000e+00
  SP6d   TP2  1 3.650000e-01    3.100000e+00
  SP5d   TP2  1 3.650000e-01    2.830000e+00
  SP4d   TP2  1 3.650000e-01    2.830000e+00
  SP3d   TP2  1 3.650000e-01    2.830000e+00
  SP6a   TP2  1 3.650000e-01    3.100000e+00
  SP5a   TP2  1 3.650000e-01    2.830000e+00
  SP4a   TP2  1 3.650000e-01    2.830000e+00
  SP3a   TP2  1 3.650000e-01    2.830000e+00
  SP6q   TP2  1 3.650000e-01    3.640000e+00
  SP5q   TP2  1 3.650000e-01    3.370000e+00
  SP4q   TP2  1 3.650000e-01    3.370000e+00
  SP3q   TP2  1 3.650000e-01    3.370000e+00
 SP3aq   TP2  1 3.650000e-01    3.370000e+00
 SP4aq   TP2  1 3.650000e-01    3.370000e+00
 SP5aq   TP2  1 3.650000e-01    3.370000e+00
 SP6aq   TP2  1 3.650000e-01    3.640000e+00
 SP3dq   TP2  1 3.650000e-01    3.370000e+00
 SP4dq   TP2  1 3.650000e-01    3.370000e+00
 SP5dq   TP2  1 3.650000e-01    3.370000e+00
 SP6dq   TP2  1 3.650000e-01    3.640000e+00
  SP6h   TP2  1 3.650000e-01    3.100000e+00
  SP5h   TP2  1 3.650000e-01    2.830000e+00
  SP4h   TP2  1 3.650000e-01    2.830000e+00
  SP3h   TP2  1 3.650000e-01    2.830000e+00
 SP3ah   TP2  1 3.650000e-01    2.830000e+00
 SP4ah   TP2  1 3.650000e-01    2.830000e+00
 SP5ah   TP2  1 3.650000e-01    2.830000e+00
 SP6ah   TP2  1 3.650000e-01    3.100000e+00
 SP3dh   TP2  1 3.650000e-01    2.830000e+00
 SP4dh   TP2  1 3.650000e-01    2.830000e+00
 SP5dh   TP2  1 3.650000e-01    2.830000e+00
 SP6dh   TP2  1 3.650000e-01    3.100000e+00
  SP6r   TP2  1 3.650000e-01    3.100000e+00
  SP5r   TP2  1 3.650000e-01    2.830000e+00
  SP4r   TP2  1 3.650000e-01    2.830000e+00
  SP3r   TP2  1 3.650000e-01    2.830000e+00
 SP3ar   TP2  1 3.650000e-01    2.830000e+00
 SP4ar   TP2  1 3.650000e-01    2.830000e+00
 SP5ar   TP2  1 3.650000e-01    2.830000e+00
 SP6ar   TP2  1 3.650000e-01    3.100000e+00
 SP3dr   TP2  1 3.650000e-01    2.830000e+00
 SP4dr   TP2  1 3.650000e-01    2.830000e+00
 SP5dr   TP2  1 3.650000e-01    2.830000e+00
 SP6dr   TP2  1 3.650000e-01    3.100000e+00
   TP2   SP1  1 3.650000e-01    2.570000e+00
   TP2   SN6  1 3.650000e-01    2.570000e+00
   TP2   SN5  1 3.650000e-01    2.340000e+00
   TP2   SN4  1 3.650000e-01    2.110000e+00
   TP2   SN3  1 3.650000e-01    1.910000e+00
   TP2   SN2  1 3.650000e-01    1.910000e+00
   TP2   SN1  1 3.650000e-01    1.910000e+00
   TP2   SC6  1 3.650000e-01    1.750000e+00
   TP2   SC5  1 3.660000e-01    1.600000e+00
   TP2   SC4  1 3.780000e-01    1.450000e+00
   TP2   SC3  1 3.940000e-01    1.290000e+00
   TP2   SC2  1 3.940000e-01    1.290000e+00
   TP2   SC1  1 4.040000e-01    1.130000e+00
   TP2   SX4  1 3.650000e-01    1.750000e+00
   TP2   SX3  1 3.650000e-01    1.750000e+00
   TP2   SX2  1 3.660000e-01    1.600000e+00
   TP2   SX1  1 3.780000e-01    1.450000e+00
   TP2  SP2d  1 3.650000e-01    2.830000e+00
   TP2  SN1d  1 3.650000e-01    1.910000e+00
   TP2  SN2d  1 3.650000e-01    1.910000e+00
   TP2  SN3d  1 3.650000e-01    1.910000e+00
   TP2  SN4d  1 3.650000e-01    2.110000e+00
   TP2  SN5d  1 3.650000e-01    2.340000e+00
   TP2  SN6d  1 3.650000e-01    2.570000e+00
   TP2  SP1d  1 3.650000e-01    2.570000e+00
   TP2  SP2a  1 3.650000e-01    2.830000e+00
   TP2  SN1a  1 3.650000e-01    1.910000e+00
   TP2  SN2a  1 3.650000e-01    1.910000e+00
   TP2  SN3a  1 3.650000e-01    1.910000e+00
   TP2  SN4a  1 3.650000e-01    2.110000e+00
   TP2  SN5a  1 3.650000e-01    2.340000e+00
   TP2  SN6a  1 3.650000e-01    2.570000e+00
   TP2  SP1a  1 3.650000e-01    2.570000e+00
   TP2  SC6v  1 3.650000e-01    1.910000e+00
   TP2  SC5v  1 3.650000e-01    1.750000e+00
   TP2  SC4v  1 3.660000e-01    1.600000e+00
   TP2  SC3v  1 3.780000e-01    1.450000e+00
   TP2  SC2v  1 3.780000e-01    1.450000e+00
   TP2  SC1v  1 3.940000e-01    1.290000e+00
   TP2  SX4v  1 3.650000e-01    1.910000e+00
   TP2  SX3v  1 3.650000e-01    1.910000e+00
   TP2  SX2v  1 3.650000e-01    1.750000e+00
   TP2  SX1v  1 3.660000e-01    1.600000e+00
   TP2  SC6e  1 3.650000e-01    1.910000e+00
   TP2  SC5e  1 3.650000e-01    1.750000e+00
   TP2  SC4e  1 3.660000e-01    1.600000e+00
   TP2  SC3e  1 3.780000e-01    1.450000e+00
   TP2  SC2e  1 3.780000e-01    1.450000e+00
   TP2  SC1e  1 3.940000e-01    1.290000e+00
   TP2  SX4e  1 3.650000e-01    1.910000e+00
   TP2  SX3e  1 3.650000e-01    1.910000e+00
   TP2  SX2e  1 3.650000e-01    1.750000e+00
   TP2  SX1e  1 3.660000e-01    1.600000e+00
   TP2  SP2q  1 3.650000e-01    3.370000e+00
   TP2 SX1eq  1 3.650000e-01    1.910000e+00
   TP2 SX2eq  1 3.650000e-01    2.110000e+00
   TP2 SX3eq  1 3.650000e-01    2.340000e+00
   TP2 SX4eq  1 3.650000e-01    2.340000e+00
   TP2 SC1eq  1 3.660000e-01    1.600000e+00
   TP2 SC2eq  1 3.650000e-01    1.750000e+00
   TP2 SC3eq  1 3.650000e-01    1.750000e+00
   TP2 SC4eq  1 3.650000e-01    1.910000e+00
   TP2 SC5eq  1 3.650000e-01    2.110000e+00
   TP2 SC6eq  1 3.650000e-01    2.340000e+00
   TP2 SX1vq  1 3.650000e-01    1.910000e+00
   TP2 SX2vq  1 3.650000e-01    2.110000e+00
   TP2 SX3vq  1 3.650000e-01    2.340000e+00
   TP2 SX4vq  1 3.650000e-01    2.340000e+00
   TP2 SC1vq  1 3.660000e-01    1.600000e+00
   TP2 SC2vq  1 3.650000e-01    1.750000e+00
   TP2 SC3vq  1 3.650000e-01    1.750000e+00
   TP2 SC4vq  1 3.650000e-01    1.910000e+00
   TP2 SC5vq  1 3.650000e-01    2.110000e+00
   TP2 SC6vq  1 3.650000e-01    2.340000e+00
   TP2 SN1aq  1 3.650000e-01    2.340000e+00
   TP2 SN2aq  1 3.650000e-01    2.340000e+00
   TP2 SN3aq  1 3.650000e-01    2.340000e+00
   TP2 SN4aq  1 3.650000e-01    2.570000e+00
   TP2 SN5aq  1 3.650000e-01    2.830000e+00
   TP2 SN6aq  1 3.650000e-01    3.100000e+00
   TP2 SP1aq  1 3.650000e-01    3.100000e+00
   TP2 SP2aq  1 3.650000e-01    3.370000e+00
   TP2 SN1dq  1 3.650000e-01    2.340000e+00
   TP2 SN2dq  1 3.650000e-01    2.340000e+00
   TP2 SN3dq  1 3.650000e-01    2.340000e+00
   TP2 SN4dq  1 3.650000e-01    2.570000e+00
   TP2 SN5dq  1 3.650000e-01    2.830000e+00
   TP2 SN6dq  1 3.650000e-01    3.100000e+00
   TP2 SP1dq  1 3.650000e-01    3.100000e+00
   TP2 SP2dq  1 3.650000e-01    3.370000e+00
   TP2  SX1q  1 3.650000e-01    1.750000e+00
   TP2  SX2q  1 3.650000e-01    1.910000e+00
   TP2  SX3q  1 3.650000e-01    2.110000e+00
   TP2  SX4q  1 3.650000e-01    2.110000e+00
   TP2  SC1q  1 3.780000e-01    1.450000e+00
   TP2  SC2q  1 3.660000e-01    1.600000e+00
   TP2  SC3q  1 3.660000e-01    1.600000e+00
   TP2  SC4q  1 3.650000e-01    1.750000e+00
   TP2  SC5q  1 3.650000e-01    1.910000e+00
   TP2  SC6q  1 3.650000e-01    2.110000e+00
   TP2  SN1q  1 3.650000e-01    2.340000e+00
   TP2  SN2q  1 3.650000e-01    2.340000e+00
   TP2  SN3q  1 3.650000e-01    2.340000e+00
   TP2  SN4q  1 3.650000e-01    2.570000e+00
   TP2  SN5q  1 3.650000e-01    2.830000e+00
   TP2  SN6q  1 3.650000e-01    3.100000e+00
   TP2  SP1q  1 3.650000e-01    3.100000e+00
   TP2  SP2h  1 3.650000e-01    2.830000e+00
   TP2 SX1eh  1 3.660000e-01    1.600000e+00
   TP2 SX2eh  1 3.650000e-01    1.750000e+00
   TP2 SX3eh  1 3.650000e-01    1.910000e+00
   TP2 SX4eh  1 3.650000e-01    1.910000e+00
   TP2 SC1eh  1 3.940000e-01    1.290000e+00
   TP2 SC2eh  1 3.780000e-01    1.450000e+00
   TP2 SC3eh  1 3.780000e-01    1.450000e+00
   TP2 SC4eh  1 3.660000e-01    1.600000e+00
   TP2 SC5eh  1 3.650000e-01    1.750000e+00
   TP2 SC6eh  1 3.650000e-01    1.910000e+00
   TP2 SX1vh  1 3.660000e-01    1.600000e+00
   TP2 SX2vh  1 3.650000e-01    1.750000e+00
   TP2 SX3vh  1 3.650000e-01    1.910000e+00
   TP2 SX4vh  1 3.650000e-01    1.910000e+00
   TP2 SC1vh  1 3.940000e-01    1.290000e+00
   TP2 SC2vh  1 3.780000e-01    1.450000e+00
   TP2 SC3vh  1 3.780000e-01    1.450000e+00
   TP2 SC4vh  1 3.660000e-01    1.600000e+00
   TP2 SC5vh  1 3.650000e-01    1.750000e+00
   TP2 SC6vh  1 3.650000e-01    1.910000e+00
   TP2 SN1ah  1 3.650000e-01    1.910000e+00
   TP2 SN2ah  1 3.650000e-01    1.910000e+00
   TP2 SN3ah  1 3.650000e-01    1.910000e+00
   TP2 SN4ah  1 3.650000e-01    2.110000e+00
   TP2 SN5ah  1 3.650000e-01    2.340000e+00
   TP2 SN6ah  1 3.650000e-01    2.570000e+00
   TP2 SP1ah  1 3.650000e-01    2.570000e+00
   TP2 SP2ah  1 3.650000e-01    2.830000e+00
   TP2 SN1dh  1 3.650000e-01    1.910000e+00
   TP2 SN2dh  1 3.650000e-01    1.910000e+00
   TP2 SN3dh  1 3.650000e-01    1.910000e+00
   TP2 SN4dh  1 3.650000e-01    2.110000e+00
   TP2 SN5dh  1 3.650000e-01    2.340000e+00
   TP2 SN6dh  1 3.650000e-01    2.570000e+00
   TP2 SP1dh  1 3.650000e-01    2.570000e+00
   TP2 SP2dh  1 3.650000e-01    2.830000e+00
   TP2  SX1h  1 3.780000e-01    1.450000e+00
   TP2  SX2h  1 3.660000e-01    1.600000e+00
   TP2  SX3h  1 3.650000e-01    1.750000e+00
   TP2  SX4h  1 3.650000e-01    1.750000e+00
   TP2  SC1h  1 4.040000e-01    1.130000e+00
   TP2  SC2h  1 3.940000e-01    1.290000e+00
   TP2  SC3h  1 3.940000e-01    1.290000e+00
   TP2  SC4h  1 3.780000e-01    1.450000e+00
   TP2  SC5h  1 3.660000e-01    1.600000e+00
   TP2  SC6h  1 3.650000e-01    1.750000e+00
   TP2  SN1h  1 3.650000e-01    1.910000e+00
   TP2  SN2h  1 3.650000e-01    1.910000e+00
   TP2  SN3h  1 3.650000e-01    1.910000e+00
   TP2  SN4h  1 3.650000e-01    2.110000e+00
   TP2  SN5h  1 3.650000e-01    2.340000e+00
   TP2  SN6h  1 3.650000e-01    2.570000e+00
   TP2  SP1h  1 3.650000e-01    2.570000e+00
   TP2  SP2r  1 3.650000e-01    2.830000e+00
   TP2 SX1er  1 3.660000e-01    1.600000e+00
   TP2 SX2er  1 3.650000e-01    1.750000e+00
   TP2 SX3er  1 3.650000e-01    1.910000e+00
   TP2 SX4er  1 3.650000e-01    1.910000e+00
   TP2 SC1er  1 3.940000e-01    1.290000e+00
   TP2 SC2er  1 3.780000e-01    1.450000e+00
   TP2 SC3er  1 3.780000e-01    1.450000e+00
   TP2 SC4er  1 3.660000e-01    1.600000e+00
   TP2 SC5er  1 3.650000e-01    1.750000e+00
   TP2 SC6er  1 3.650000e-01    1.910000e+00
   TP2 SX1vr  1 3.660000e-01    1.600000e+00
   TP2 SX2vr  1 3.650000e-01    1.750000e+00
   TP2 SX3vr  1 3.650000e-01    1.910000e+00
   TP2 SX4vr  1 3.650000e-01    1.910000e+00
   TP2 SC1vr  1 3.940000e-01    1.290000e+00
   TP2 SC2vr  1 3.780000e-01    1.450000e+00
   TP2 SC3vr  1 3.780000e-01    1.450000e+00
   TP2 SC4vr  1 3.660000e-01    1.600000e+00
   TP2 SC5vr  1 3.650000e-01    1.750000e+00
   TP2 SC6vr  1 3.650000e-01    1.910000e+00
   TP2 SN1ar  1 3.650000e-01    1.910000e+00
   TP2 SN2ar  1 3.650000e-01    1.910000e+00
   TP2 SN3ar  1 3.650000e-01    1.910000e+00
   TP2 SN4ar  1 3.650000e-01    2.110000e+00
   TP2 SN5ar  1 3.650000e-01    2.340000e+00
   TP2 SN6ar  1 3.650000e-01    2.570000e+00
   TP2 SP1ar  1 3.650000e-01    2.570000e+00
   TP2 SP2ar  1 3.650000e-01    2.830000e+00
   TP2 SN1dr  1 3.650000e-01    1.910000e+00
   TP2 SN2dr  1 3.650000e-01    1.910000e+00
   TP2 SN3dr  1 3.650000e-01    1.910000e+00
   TP2 SN4dr  1 3.650000e-01    2.110000e+00
   TP2 SN5dr  1 3.650000e-01    2.340000e+00
   TP2 SN6dr  1 3.650000e-01    2.570000e+00
   TP2 SP1dr  1 3.650000e-01    2.570000e+00
   TP2 SP2dr  1 3.650000e-01    2.830000e+00
   TP2  SX1r  1 3.780000e-01    1.450000e+00
   TP2  SX2r  1 3.660000e-01    1.600000e+00
   TP2  SX3r  1 3.650000e-01    1.750000e+00
   TP2  SX4r  1 3.650000e-01    1.750000e+00
   TP2  SC1r  1 4.040000e-01    1.130000e+00
   TP2  SC2r  1 3.940000e-01    1.290000e+00
   TP2  SC3r  1 3.940000e-01    1.290000e+00
   TP2  SC4r  1 3.780000e-01    1.450000e+00
   TP2  SC5r  1 3.660000e-01    1.600000e+00
   TP2  SC6r  1 3.650000e-01    1.750000e+00
   TP2  SN1r  1 3.650000e-01    1.910000e+00
   TP2  SN2r  1 3.650000e-01    1.910000e+00
   TP2  SN3r  1 3.650000e-01    1.910000e+00
   TP2  SN4r  1 3.650000e-01    2.110000e+00
   TP2  SN5r  1 3.650000e-01    2.340000e+00
   TP2  SN6r  1 3.650000e-01    2.570000e+00
   TP2  SP1r  1 3.650000e-01    2.570000e+00
    P1    P1  1 4.700000e-01    3.880000e+00
    P1    N6  1 4.700000e-01    3.880000e+00
    P1    N5  1 4.700000e-01    3.690000e+00
    P1    N4  1 4.700000e-01    3.690000e+00
    P1    N3  1 4.700000e-01    3.390000e+00
    P1    N2  1 4.700000e-01    3.390000e+00
    P1    N1  1 4.700000e-01    3.390000e+00
    P1    C6  1 4.700000e-01    3.240000e+00
    P1    C5  1 4.700000e-01    3.070000e+00
    P1    C4  1 4.700000e-01    2.960000e+00
    P1    C3  1 4.700000e-01    2.790000e+00
    P1    C2  1 4.700000e-01    2.790000e+00
    P1    C1  1 4.700000e-01    2.620000e+00
    P1    X4  1 4.700000e-01    3.240000e+00
    P1    X3  1 4.700000e-01    3.240000e+00
    P1    X2  1 4.700000e-01    3.070000e+00
    P1    X1  1 4.700000e-01    2.960000e+00
   P6d    P1  1 4.700000e-01    4.060000e+00
   P5d    P1  1 4.700000e-01    3.880000e+00
   P4d    P1  1 4.700000e-01    3.880000e+00
   P3d    P1  1 4.700000e-01    3.880000e+00
   P2d    P1  1 4.700000e-01    3.880000e+00
    P1   P1d  1 4.700000e-01    3.880000e+00
    P1   N1d  1 4.700000e-01    3.390000e+00
    P1   N2d  1 4.700000e-01    3.390000e+00
    P1   N3d  1 4.700000e-01    3.390000e+00
    P1   N4d  1 4.700000e-01    3.690000e+00
    P1   N5d  1 4.700000e-01    3.690000e+00
    P1   N6d  1 4.700000e-01    3.880000e+00
   P6a    P1  1 4.700000e-01    4.060000e+00
   P5a    P1  1 4.700000e-01    3.880000e+00
   P4a    P1  1 4.700000e-01    3.880000e+00
   P3a    P1  1 4.700000e-01    3.880000e+00
   P2a    P1  1 4.700000e-01    3.880000e+00
    P1   P1a  1 4.700000e-01    3.880000e+00
    P1   N1a  1 4.700000e-01    3.390000e+00
    P1   N2a  1 4.700000e-01    3.390000e+00
    P1   N3a  1 4.700000e-01    3.390000e+00
    P1   N4a  1 4.700000e-01    3.690000e+00
    P1   N5a  1 4.700000e-01    3.690000e+00
    P1   N6a  1 4.700000e-01    3.880000e+00
    P1   C6v  1 4.700000e-01    3.390000e+00
    P1   C5v  1 4.700000e-01    3.240000e+00
    P1   C4v  1 4.700000e-01    3.070000e+00
    P1   C3v  1 4.700000e-01    2.960000e+00
    P1   C2v  1 4.700000e-01    2.960000e+00
    P1   C1v  1 4.700000e-01    2.790000e+00
    P1   X4v  1 4.700000e-01    3.390000e+00
    P1   X3v  1 4.700000e-01    3.390000e+00
    P1   X2v  1 4.700000e-01    3.240000e+00
    P1   X1v  1 4.700000e-01    3.070000e+00
    P1   C6e  1 4.700000e-01    3.390000e+00
    P1   C5e  1 4.700000e-01    3.240000e+00
    P1   C4e  1 4.700000e-01    3.070000e+00
    P1   C3e  1 4.700000e-01    2.960000e+00
    P1   C2e  1 4.700000e-01    2.960000e+00
    P1   C1e  1 4.700000e-01    2.790000e+00
    P1   X4e  1 4.700000e-01    3.390000e+00
    P1   X3e  1 4.700000e-01    3.390000e+00
    P1   X2e  1 4.700000e-01    3.240000e+00
    P1   X1e  1 4.700000e-01    3.070000e+00
   P6q    P1  1 4.700000e-01    4.480000e+00
   P5q    P1  1 4.700000e-01    4.250000e+00
   P4q    P1  1 4.700000e-01    4.250000e+00
   P3q    P1  1 4.700000e-01    4.250000e+00
   P2q    P1  1 4.700000e-01    4.250000e+00
    P1   P1q  1 4.700000e-01    4.250000e+00
    P1  X1eq  1 4.700000e-01    3.390000e+00
    P1  X2eq  1 4.700000e-01    3.520000e+00
    P1  X3eq  1 4.700000e-01    3.690000e+00
    P1  X4eq  1 4.700000e-01    3.690000e+00
    P1  C1eq  1 4.700000e-01    3.070000e+00
    P1  C2eq  1 4.700000e-01    3.240000e+00
    P1  C3eq  1 4.700000e-01    3.240000e+00
    P1  C4eq  1 4.700000e-01    3.390000e+00
    P1  C5eq  1 4.700000e-01    3.520000e+00
    P1  C6eq  1 4.700000e-01    3.690000e+00
    P1  X1vq  1 4.700000e-01    3.390000e+00
    P1  X2vq  1 4.700000e-01    3.520000e+00
    P1  X3vq  1 4.700000e-01    3.690000e+00
    P1  X4vq  1 4.700000e-01    3.690000e+00
    P1  C1vq  1 4.700000e-01    3.070000e+00
    P1  C2vq  1 4.700000e-01    3.240000e+00
    P1  C3vq  1 4.700000e-01    3.240000e+00
    P1  C4vq  1 4.700000e-01    3.390000e+00
    P1  C5vq  1 4.700000e-01    3.520000e+00
    P1  C6vq  1 4.700000e-01    3.690000e+00
    P1  N1aq  1 4.700000e-01    3.690000e+00
    P1  N2aq  1 4.700000e-01    3.690000e+00
    P1  N3aq  1 4.700000e-01    3.690000e+00
    P1  N4aq  1 4.700000e-01    4.060000e+00
    P1  N5aq  1 4.700000e-01    4.060000e+00
    P1  N6aq  1 4.700000e-01    4.250000e+00
    P1  P1aq  1 4.700000e-01    4.250000e+00
  P2aq    P1  1 4.700000e-01    4.250000e+00
  P3aq    P1  1 4.700000e-01    4.250000e+00
  P4aq    P1  1 4.700000e-01    4.250000e+00
  P5aq    P1  1 4.700000e-01    4.250000e+00
  P6aq    P1  1 4.700000e-01    4.480000e+00
    P1  N1dq  1 4.700000e-01    3.690000e+00
    P1  N2dq  1 4.700000e-01    3.690000e+00
    P1  N3dq  1 4.700000e-01    3.690000e+00
    P1  N4dq  1 4.700000e-01    4.060000e+00
    P1  N5dq  1 4.700000e-01    4.060000e+00
    P1  N6dq  1 4.700000e-01    4.250000e+00
    P1  P1dq  1 4.700000e-01    4.250000e+00
  P2dq    P1  1 4.700000e-01    4.250000e+00
  P3dq    P1  1 4.700000e-01    4.250000e+00
  P4dq    P1  1 4.700000e-01    4.250000e+00
  P5dq    P1  1 4.700000e-01    4.250000e+00
  P6dq    P1  1 4.700000e-01    4.480000e+00
    P1   X1q  1 4.700000e-01    3.240000e+00
    P1   X2q  1 4.700000e-01    3.390000e+00
    P1   X3q  1 4.700000e-01    3.520000e+00
    P1   X4q  1 4.700000e-01    3.520000e+00
    P1   C1q  1 4.700000e-01    2.960000e+00
    P1   C2q  1 4.700000e-01    3.070000e+00
    P1   C3q  1 4.700000e-01    3.070000e+00
    P1   C4q  1 4.700000e-01    3.240000e+00
    P1   C5q  1 4.700000e-01    3.390000e+00
    P1   C6q  1 4.700000e-01    3.520000e+00
    P1   N1q  1 4.700000e-01    3.690000e+00
    P1   N2q  1 4.700000e-01    3.690000e+00
    P1   N3q  1 4.700000e-01    3.690000e+00
    P1   N4q  1 4.700000e-01    4.060000e+00
    P1   N5q  1 4.700000e-01    4.060000e+00
    P1   N6q  1 4.700000e-01    4.250000e+00
   P6h    P1  1 4.700000e-01    4.060000e+00
   P5h    P1  1 4.700000e-01    3.880000e+00
   P4h    P1  1 4.700000e-01    3.880000e+00
   P3h    P1  1 4.700000e-01    3.880000e+00
   P2h    P1  1 4.700000e-01    3.880000e+00
    P1   P1h  1 4.700000e-01    3.880000e+00
    P1  X1eh  1 4.700000e-01    3.070000e+00
    P1  X2eh  1 4.700000e-01    3.240000e+00
    P1  X3eh  1 4.700000e-01    3.390000e+00
    P1  X4eh  1 4.700000e-01    3.390000e+00
    P1  C1eh  1 4.700000e-01    2.790000e+00
    P1  C2eh  1 4.700000e-01    2.960000e+00
    P1  C3eh  1 4.700000e-01    2.960000e+00
    P1  C4eh  1 4.700000e-01    3.070000e+00
    P1  C5eh  1 4.700000e-01    3.240000e+00
    P1  C6eh  1 4.700000e-01    3.390000e+00
    P1  X1vh  1 4.700000e-01    3.070000e+00
    P1  X2vh  1 4.700000e-01    3.240000e+00
    P1  X3vh  1 4.700000e-01    3.390000e+00
    P1  X4vh  1 4.700000e-01    3.390000e+00
    P1  C1vh  1 4.700000e-01    2.790000e+00
    P1  C2vh  1 4.700000e-01    2.960000e+00
    P1  C3vh  1 4.700000e-01    2.960000e+00
    P1  C4vh  1 4.700000e-01    3.070000e+00
    P1  C5vh  1 4.700000e-01    3.240000e+00
    P1  C6vh  1 4.700000e-01    3.390000e+00
    P1  N1ah  1 4.700000e-01    3.390000e+00
    P1  N2ah  1 4.700000e-01    3.390000e+00
    P1  N3ah  1 4.700000e-01    3.390000e+00
    P1  N4ah  1 4.700000e-01    3.690000e+00
    P1  N5ah  1 4.700000e-01    3.690000e+00
    P1  N6ah  1 4.700000e-01    3.880000e+00
    P1  P1ah  1 4.700000e-01    3.880000e+00
  P2ah    P1  1 4.700000e-01    3.880000e+00
  P3ah    P1  1 4.700000e-01    3.880000e+00
  P4ah    P1  1 4.700000e-01    3.880000e+00
  P5ah    P1  1 4.700000e-01    3.880000e+00
  P6ah    P1  1 4.700000e-01    4.060000e+00
    P1  N1dh  1 4.700000e-01    3.390000e+00
    P1  N2dh  1 4.700000e-01    3.390000e+00
    P1  N3dh  1 4.700000e-01    3.390000e+00
    P1  N4dh  1 4.700000e-01    3.690000e+00
    P1  N5dh  1 4.700000e-01    3.690000e+00
    P1  N6dh  1 4.700000e-01    3.880000e+00
    P1  P1dh  1 4.700000e-01    3.880000e+00
  P2dh    P1  1 4.700000e-01    3.880000e+00
  P3dh    P1  1 4.700000e-01    3.880000e+00
  P4dh    P1  1 4.700000e-01    3.880000e+00
  P5dh    P1  1 4.700000e-01    3.880000e+00
  P6dh    P1  1 4.700000e-01    4.060000e+00
    P1   X1h  1 4.700000e-01    2.960000e+00
    P1   X2h  1 4.700000e-01    3.070000e+00
    P1   X3h  1 4.700000e-01    3.240000e+00
    P1   X4h  1 4.700000e-01    3.240000e+00
    P1   C1h  1 4.700000e-01    2.620000e+00
    P1   C2h  1 4.700000e-01    2.790000e+00
    P1   C3h  1 4.700000e-01    2.790000e+00
    P1   C4h  1 4.700000e-01    2.960000e+00
    P1   C5h  1 4.700000e-01    3.070000e+00
    P1   C6h  1 4.700000e-01    3.240000e+00
    P1   N1h  1 4.700000e-01    3.390000e+00
    P1   N2h  1 4.700000e-01    3.390000e+00
    P1   N3h  1 4.700000e-01    3.390000e+00
    P1   N4h  1 4.700000e-01    3.690000e+00
    P1   N5h  1 4.700000e-01    3.690000e+00
    P1   N6h  1 4.700000e-01    3.880000e+00
   P6r    P1  1 4.700000e-01    4.060000e+00
   P5r    P1  1 4.700000e-01    3.880000e+00
   P4r    P1  1 4.700000e-01    3.880000e+00
   P3r    P1  1 4.700000e-01    3.880000e+00
   P2r    P1  1 4.700000e-01    3.880000e+00
    P1   P1r  1 4.700000e-01    3.880000e+00
    P1  X1er  1 4.700000e-01    3.070000e+00
    P1  X2er  1 4.700000e-01    3.240000e+00
    P1  X3er  1 4.700000e-01    3.390000e+00
    P1  X4er  1 4.700000e-01    3.390000e+00
    P1  C1er  1 4.700000e-01    2.790000e+00
    P1  C2er  1 4.700000e-01    2.960000e+00
    P1  C3er  1 4.700000e-01    2.960000e+00
    P1  C4er  1 4.700000e-01    3.070000e+00
    P1  C5er  1 4.700000e-01    3.240000e+00
    P1  C6er  1 4.700000e-01    3.390000e+00
    P1  X1vr  1 4.700000e-01    3.070000e+00
    P1  X2vr  1 4.700000e-01    3.240000e+00
    P1  X3vr  1 4.700000e-01    3.390000e+00
    P1  X4vr  1 4.700000e-01    3.390000e+00
    P1  C1vr  1 4.700000e-01    2.790000e+00
    P1  C2vr  1 4.700000e-01    2.960000e+00
    P1  C3vr  1 4.700000e-01    2.960000e+00
    P1  C4vr  1 4.700000e-01    3.070000e+00
    P1  C5vr  1 4.700000e-01    3.240000e+00
    P1  C6vr  1 4.700000e-01    3.390000e+00
    P1  N1ar  1 4.700000e-01    3.390000e+00
    P1  N2ar  1 4.700000e-01    3.390000e+00
    P1  N3ar  1 4.700000e-01    3.390000e+00
    P1  N4ar  1 4.700000e-01    3.690000e+00
    P1  N5ar  1 4.700000e-01    3.690000e+00
    P1  N6ar  1 4.700000e-01    3.880000e+00
    P1  P1ar  1 4.700000e-01    3.880000e+00
  P2ar    P1  1 4.700000e-01    3.880000e+00
  P3ar    P1  1 4.700000e-01    3.880000e+00
  P4ar    P1  1 4.700000e-01    3.880000e+00
  P5ar    P1  1 4.700000e-01    3.880000e+00
  P6ar    P1  1 4.700000e-01    4.060000e+00
    P1  N1dr  1 4.700000e-01    3.390000e+00
    P1  N2dr  1 4.700000e-01    3.390000e+00
    P1  N3dr  1 4.700000e-01    3.390000e+00
    P1  N4dr  1 4.700000e-01    3.690000e+00
    P1  N5dr  1 4.700000e-01    3.690000e+00
    P1  N6dr  1 4.700000e-01    3.880000e+00
    P1  P1dr  1 4.700000e-01    3.880000e+00
  P2dr    P1  1 4.700000e-01    3.880000e+00
  P3dr    P1  1 4.700000e-01    3.880000e+00
  P4dr    P1  1 4.700000e-01    3.880000e+00
  P5dr    P1  1 4.700000e-01    3.880000e+00
  P6dr    P1  1 4.700000e-01    4.060000e+00
    P1   X1r  1 4.700000e-01    2.960000e+00
    P1   X2r  1 4.700000e-01    3.070000e+00
    P1   X3r  1 4.700000e-01    3.240000e+00
    P1   X4r  1 4.700000e-01    3.240000e+00
    P1   C1r  1 4.700000e-01    2.620000e+00
    P1   C2r  1 4.700000e-01    2.790000e+00
    P1   C3r  1 4.700000e-01    2.790000e+00
    P1   C4r  1 4.700000e-01    2.960000e+00
    P1   C5r  1 4.700000e-01    3.070000e+00
    P1   C6r  1 4.700000e-01    3.240000e+00
    P1   N1r  1 4.700000e-01    3.390000e+00
    P1   N2r  1 4.700000e-01    3.390000e+00
    P1   N3r  1 4.700000e-01    3.390000e+00
    P1   N4r  1 4.700000e-01    3.690000e+00
    P1   N5r  1 4.700000e-01    3.690000e+00
    P1   N6r  1 4.700000e-01    3.880000e+00
    P1   SP1  1 4.300000e-01    3.590000e+00
    P1   SN6  1 4.300000e-01    3.590000e+00
    P1   SN5  1 4.300000e-01    3.380000e+00
    P1   SN4  1 4.300000e-01    3.380000e+00
    P1   SN3  1 4.300000e-01    2.920000e+00
    P1   SN2  1 4.300000e-01    2.920000e+00
    P1   SN1  1 4.300000e-01    2.920000e+00
    P1   SC6  1 4.300000e-01    2.770000e+00
    P1   SC5  1 4.300000e-01    2.530000e+00
    P1   SC4  1 4.300000e-01    2.320000e+00
    P1   SC3  1 4.300000e-01    2.160000e+00
    P1   SC2  1 4.300000e-01    2.160000e+00
    P1   SC1  1 4.300000e-01    1.930000e+00
    P1   SX4  1 4.300000e-01    2.770000e+00
    P1   SX3  1 4.300000e-01    2.770000e+00
    P1   SX2  1 4.300000e-01    2.530000e+00
    P1   SX1  1 4.300000e-01    2.320000e+00
    P1  SP1d  1 4.300000e-01    3.590000e+00
    P1  SN1d  1 4.300000e-01    2.920000e+00
    P1  SN2d  1 4.300000e-01    2.920000e+00
    P1  SN3d  1 4.300000e-01    2.920000e+00
    P1  SN4d  1 4.300000e-01    3.380000e+00
    P1  SN5d  1 4.300000e-01    3.380000e+00
    P1  SN6d  1 4.300000e-01    3.590000e+00
    P1  SP1a  1 4.300000e-01    3.590000e+00
    P1  SN1a  1 4.300000e-01    2.920000e+00
    P1  SN2a  1 4.300000e-01    2.920000e+00
    P1  SN3a  1 4.300000e-01    2.920000e+00
    P1  SN4a  1 4.300000e-01    3.380000e+00
    P1  SN5a  1 4.300000e-01    3.380000e+00
    P1  SN6a  1 4.300000e-01    3.590000e+00
    P1  SC6v  1 4.300000e-01    2.920000e+00
    P1  SC5v  1 4.300000e-01    2.770000e+00
    P1  SC4v  1 4.300000e-01    2.530000e+00
    P1  SC3v  1 4.300000e-01    2.320000e+00
    P1  SC2v  1 4.300000e-01    2.320000e+00
    P1  SC1v  1 4.300000e-01    2.160000e+00
    P1  SX4v  1 4.300000e-01    2.920000e+00
    P1  SX3v  1 4.300000e-01    2.920000e+00
    P1  SX2v  1 4.300000e-01    2.770000e+00
    P1  SX1v  1 4.300000e-01    2.530000e+00
    P1  SC6e  1 4.300000e-01    2.920000e+00
    P1  SC5e  1 4.300000e-01    2.770000e+00
    P1  SC4e  1 4.300000e-01    2.530000e+00
    P1  SC3e  1 4.300000e-01    2.320000e+00
    P1  SC2e  1 4.300000e-01    2.320000e+00
    P1  SC1e  1 4.300000e-01    2.160000e+00
    P1  SX4e  1 4.300000e-01    2.920000e+00
    P1  SX3e  1 4.300000e-01    2.920000e+00
    P1  SX2e  1 4.300000e-01    2.770000e+00
    P1  SX1e  1 4.300000e-01    2.530000e+00
    P1  SP1q  1 4.300000e-01    3.970000e+00
    P1 SX1eq  1 4.300000e-01    2.920000e+00
    P1 SX2eq  1 4.300000e-01    3.160000e+00
    P1 SX3eq  1 4.300000e-01    3.380000e+00
    P1 SX4eq  1 4.300000e-01    3.380000e+00
    P1 SC1eq  1 4.300000e-01    2.530000e+00
    P1 SC2eq  1 4.300000e-01    2.770000e+00
    P1 SC3eq  1 4.300000e-01    2.770000e+00
    P1 SC4eq  1 4.300000e-01    2.920000e+00
    P1 SC5eq  1 4.300000e-01    3.160000e+00
    P1 SC6eq  1 4.300000e-01    3.380000e+00
    P1 SX1vq  1 4.300000e-01    2.920000e+00
    P1 SX2vq  1 4.300000e-01    3.160000e+00
    P1 SX3vq  1 4.300000e-01    3.380000e+00
    P1 SX4vq  1 4.300000e-01    3.380000e+00
    P1 SC1vq  1 4.300000e-01    2.530000e+00
    P1 SC2vq  1 4.300000e-01    2.770000e+00
    P1 SC3vq  1 4.300000e-01    2.770000e+00
    P1 SC4vq  1 4.300000e-01    2.920000e+00
    P1 SC5vq  1 4.300000e-01    3.160000e+00
    P1 SC6vq  1 4.300000e-01    3.380000e+00
    P1 SN1aq  1 4.300000e-01    3.380000e+00
    P1 SN2aq  1 4.300000e-01    3.380000e+00
    P1 SN3aq  1 4.300000e-01    3.380000e+00
    P1 SN4aq  1 4.300000e-01    3.770000e+00
    P1 SN5aq  1 4.300000e-01    3.770000e+00
    P1 SN6aq  1 4.300000e-01    3.970000e+00
    P1 SP1aq  1 4.300000e-01    3.970000e+00
    P1 SN1dq  1 4.300000e-01    3.380000e+00
    P1 SN2dq  1 4.300000e-01    3.380000e+00
    P1 SN3dq  1 4.300000e-01    3.380000e+00
    P1 SN4dq  1 4.300000e-01    3.770000e+00
    P1 SN5dq  1 4.300000e-01    3.770000e+00
    P1 SN6dq  1 4.300000e-01    3.970000e+00
    P1 SP1dq  1 4.300000e-01    3.970000e+00
    P1  SX1q  1 4.300000e-01    2.770000e+00
    P1  SX2q  1 4.300000e-01    2.920000e+00
    P1  SX3q  1 4.300000e-01    3.160000e+00
    P1  SX4q  1 4.300000e-01    3.160000e+00
    P1  SC1q  1 4.300000e-01    2.320000e+00
    P1  SC2q  1 4.300000e-01    2.530000e+00
    P1  SC3q  1 4.300000e-01    2.530000e+00
    P1  SC4q  1 4.300000e-01    2.770000e+00
    P1  SC5q  1 4.300000e-01    2.920000e+00
    P1  SC6q  1 4.300000e-01    3.160000e+00
    P1  SN1q  1 4.300000e-01    3.380000e+00
    P1  SN2q  1 4.300000e-01    3.380000e+00
    P1  SN3q  1 4.300000e-01    3.380000e+00
    P1  SN4q  1 4.300000e-01    3.770000e+00
    P1  SN5q  1 4.300000e-01    3.770000e+00
    P1  SN6q  1 4.300000e-01    3.970000e+00
    P1  SP1h  1 4.300000e-01    3.590000e+00
    P1 SX1eh  1 4.300000e-01    2.530000e+00
    P1 SX2eh  1 4.300000e-01    2.770000e+00
    P1 SX3eh  1 4.300000e-01    2.920000e+00
    P1 SX4eh  1 4.300000e-01    2.920000e+00
    P1 SC1eh  1 4.300000e-01    2.160000e+00
    P1 SC2eh  1 4.300000e-01    2.320000e+00
    P1 SC3eh  1 4.300000e-01    2.320000e+00
    P1 SC4eh  1 4.300000e-01    2.530000e+00
    P1 SC5eh  1 4.300000e-01    2.770000e+00
    P1 SC6eh  1 4.300000e-01    2.920000e+00
    P1 SX1vh  1 4.300000e-01    2.530000e+00
    P1 SX2vh  1 4.300000e-01    2.770000e+00
    P1 SX3vh  1 4.300000e-01    2.920000e+00
    P1 SX4vh  1 4.300000e-01    2.920000e+00
    P1 SC1vh  1 4.300000e-01    2.160000e+00
    P1 SC2vh  1 4.300000e-01    2.320000e+00
    P1 SC3vh  1 4.300000e-01    2.320000e+00
    P1 SC4vh  1 4.300000e-01    2.530000e+00
    P1 SC5vh  1 4.300000e-01    2.770000e+00
    P1 SC6vh  1 4.300000e-01    2.920000e+00
    P1 SN1ah  1 4.300000e-01    2.920000e+00
    P1 SN2ah  1 4.300000e-01    2.920000e+00
    P1 SN3ah  1 4.300000e-01    2.920000e+00
    P1 SN4ah  1 4.300000e-01    3.380000e+00
    P1 SN5ah  1 4.300000e-01    3.380000e+00
    P1 SN6ah  1 4.300000e-01    3.590000e+00
    P1 SP1ah  1 4.300000e-01    3.590000e+00
    P1 SN1dh  1 4.300000e-01    2.920000e+00
    P1 SN2dh  1 4.300000e-01    2.920000e+00
    P1 SN3dh  1 4.300000e-01    2.920000e+00
    P1 SN4dh  1 4.300000e-01    3.380000e+00
    P1 SN5dh  1 4.300000e-01    3.380000e+00
    P1 SN6dh  1 4.300000e-01    3.590000e+00
    P1 SP1dh  1 4.300000e-01    3.590000e+00
    P1  SX1h  1 4.300000e-01    2.320000e+00
    P1  SX2h  1 4.300000e-01    2.530000e+00
    P1  SX3h  1 4.300000e-01    2.770000e+00
    P1  SX4h  1 4.300000e-01    2.770000e+00
    P1  SC1h  1 4.300000e-01    1.930000e+00
    P1  SC2h  1 4.300000e-01    2.160000e+00
    P1  SC3h  1 4.300000e-01    2.160000e+00
    P1  SC4h  1 4.300000e-01    2.320000e+00
    P1  SC5h  1 4.300000e-01    2.530000e+00
    P1  SC6h  1 4.300000e-01    2.770000e+00
    P1  SN1h  1 4.300000e-01    2.920000e+00
    P1  SN2h  1 4.300000e-01    2.920000e+00
    P1  SN3h  1 4.300000e-01    2.920000e+00
    P1  SN4h  1 4.300000e-01    3.380000e+00
    P1  SN5h  1 4.300000e-01    3.380000e+00
    P1  SN6h  1 4.300000e-01    3.590000e+00
    P1  SP1r  1 4.300000e-01    3.590000e+00
    P1 SX1er  1 4.300000e-01    2.530000e+00
    P1 SX2er  1 4.300000e-01    2.770000e+00
    P1 SX3er  1 4.300000e-01    2.920000e+00
    P1 SX4er  1 4.300000e-01    2.920000e+00
    P1 SC1er  1 4.300000e-01    2.160000e+00
    P1 SC2er  1 4.300000e-01    2.320000e+00
    P1 SC3er  1 4.300000e-01    2.320000e+00
    P1 SC4er  1 4.300000e-01    2.530000e+00
    P1 SC5er  1 4.300000e-01    2.770000e+00
    P1 SC6er  1 4.300000e-01    2.920000e+00
    P1 SX1vr  1 4.300000e-01    2.530000e+00
    P1 SX2vr  1 4.300000e-01    2.770000e+00
    P1 SX3vr  1 4.300000e-01    2.920000e+00
    P1 SX4vr  1 4.300000e-01    2.920000e+00
    P1 SC1vr  1 4.300000e-01    2.160000e+00
    P1 SC2vr  1 4.300000e-01    2.320000e+00
    P1 SC3vr  1 4.300000e-01    2.320000e+00
    P1 SC4vr  1 4.300000e-01    2.530000e+00
    P1 SC5vr  1 4.300000e-01    2.770000e+00
    P1 SC6vr  1 4.300000e-01    2.920000e+00
    P1 SN1ar  1 4.300000e-01    2.920000e+00
    P1 SN2ar  1 4.300000e-01    2.920000e+00
    P1 SN3ar  1 4.300000e-01    2.920000e+00
    P1 SN4ar  1 4.300000e-01    3.380000e+00
    P1 SN5ar  1 4.300000e-01    3.380000e+00
    P1 SN6ar  1 4.300000e-01    3.590000e+00
    P1 SP1ar  1 4.300000e-01    3.590000e+00
    P1 SN1dr  1 4.300000e-01    2.920000e+00
    P1 SN2dr  1 4.300000e-01    2.920000e+00
    P1 SN3dr  1 4.300000e-01    2.920000e+00
    P1 SN4dr  1 4.300000e-01    3.380000e+00
    P1 SN5dr  1 4.300000e-01    3.380000e+00
    P1 SN6dr  1 4.300000e-01    3.590000e+00
    P1 SP1dr  1 4.300000e-01    3.590000e+00
    P1  SX1r  1 4.300000e-01    2.320000e+00
    P1  SX2r  1 4.300000e-01    2.530000e+00
    P1  SX3r  1 4.300000e-01    2.770000e+00
    P1  SX4r  1 4.300000e-01    2.770000e+00
    P1  SC1r  1 4.300000e-01    1.930000e+00
    P1  SC2r  1 4.300000e-01    2.160000e+00
    P1  SC3r  1 4.300000e-01    2.160000e+00
    P1  SC4r  1 4.300000e-01    2.320000e+00
    P1  SC5r  1 4.300000e-01    2.530000e+00
    P1  SC6r  1 4.300000e-01    2.770000e+00
    P1  SN1r  1 4.300000e-01    2.920000e+00
    P1  SN2r  1 4.300000e-01    2.920000e+00
    P1  SN3r  1 4.300000e-01    2.920000e+00
    P1  SN4r  1 4.300000e-01    3.380000e+00
    P1  SN5r  1 4.300000e-01    3.380000e+00
    P1  SN6r  1 4.300000e-01    3.590000e+00
  SP6d    P1  1 4.300000e-01    3.770000e+00
  SP5d    P1  1 4.300000e-01    3.590000e+00
  SP4d    P1  1 4.300000e-01    3.590000e+00
  SP3d    P1  1 4.300000e-01    3.590000e+00
  SP2d    P1  1 4.300000e-01    3.590000e+00
  SP6a    P1  1 4.300000e-01    3.770000e+00
  SP5a    P1  1 4.300000e-01    3.590000e+00
  SP4a    P1  1 4.300000e-01    3.590000e+00
  SP3a    P1  1 4.300000e-01    3.590000e+00
  SP2a    P1  1 4.300000e-01    3.590000e+00
  SP6q    P1  1 4.300000e-01    4.170000e+00
  SP5q    P1  1 4.300000e-01    3.970000e+00
  SP4q    P1  1 4.300000e-01    3.970000e+00
  SP3q    P1  1 4.300000e-01    3.970000e+00
  SP2q    P1  1 4.300000e-01    3.970000e+00
 SP2aq    P1  1 4.300000e-01    3.970000e+00
 SP3aq    P1  1 4.300000e-01    3.970000e+00
 SP4aq    P1  1 4.300000e-01    3.970000e+00
 SP5aq    P1  1 4.300000e-01    3.970000e+00
 SP6aq    P1  1 4.300000e-01    4.170000e+00
 SP2dq    P1  1 4.300000e-01    3.970000e+00
 SP3dq    P1  1 4.300000e-01    3.970000e+00
 SP4dq    P1  1 4.300000e-01    3.970000e+00
 SP5dq    P1  1 4.300000e-01    3.970000e+00
 SP6dq    P1  1 4.300000e-01    4.170000e+00
  SP6h    P1  1 4.300000e-01    3.770000e+00
  SP5h    P1  1 4.300000e-01    3.590000e+00
  SP4h    P1  1 4.300000e-01    3.590000e+00
  SP3h    P1  1 4.300000e-01    3.590000e+00
  SP2h    P1  1 4.300000e-01    3.590000e+00
 SP2ah    P1  1 4.300000e-01    3.590000e+00
 SP3ah    P1  1 4.300000e-01    3.590000e+00
 SP4ah    P1  1 4.300000e-01    3.590000e+00
 SP5ah    P1  1 4.300000e-01    3.590000e+00
 SP6ah    P1  1 4.300000e-01    3.770000e+00
 SP2dh    P1  1 4.300000e-01    3.590000e+00
 SP3dh    P1  1 4.300000e-01    3.590000e+00
 SP4dh    P1  1 4.300000e-01    3.590000e+00
 SP5dh    P1  1 4.300000e-01    3.590000e+00
 SP6dh    P1  1 4.300000e-01    3.770000e+00
  SP6r    P1  1 4.300000e-01    3.770000e+00
  SP5r    P1  1 4.300000e-01    3.590000e+00
  SP4r    P1  1 4.300000e-01    3.590000e+00
  SP3r    P1  1 4.300000e-01    3.590000e+00
  SP2r    P1  1 4.300000e-01    3.590000e+00
 SP2ar    P1  1 4.300000e-01    3.590000e+00
 SP3ar    P1  1 4.300000e-01    3.590000e+00
 SP4ar    P1  1 4.300000e-01    3.590000e+00
 SP5ar    P1  1 4.300000e-01    3.590000e+00
 SP6ar    P1  1 4.300000e-01    3.770000e+00
 SP2dr    P1  1 4.300000e-01    3.590000e+00
 SP3dr    P1  1 4.300000e-01    3.590000e+00
 SP4dr    P1  1 4.300000e-01    3.590000e+00
 SP5dr    P1  1 4.300000e-01    3.590000e+00
 SP6dr    P1  1 4.300000e-01    3.770000e+00
    P1   TP1  1 3.950000e-01    2.940000e+00
    P1   TN6  1 3.950000e-01    2.940000e+00
    P1   TN5  1 3.950000e-01    2.700000e+00
    P1   TN4  1 3.950000e-01    2.700000e+00
    P1   TN3  1 3.950000e-01    2.310000e+00
    P1   TN2  1 3.950000e-01    2.310000e+00
    P1   TN1  1 3.950000e-01    2.310000e+00
    P1   TC6  1 3.950000e-01    2.110000e+00
    P1   TC5  1 3.950000e-01    1.850000e+00
    P1   TC4  1 3.950000e-01    1.670000e+00
    P1   TC3  1 3.980000e-01    1.450000e+00
    P1   TC2  1 3.980000e-01    1.450000e+00
    P1   TC1  1 3.990000e-01    1.180000e+00
    P1   TX4  1 3.950000e-01    2.110000e+00
    P1   TX3  1 3.950000e-01    2.110000e+00
    P1   TX2  1 3.950000e-01    1.850000e+00
    P1   TX1  1 3.950000e-01    1.670000e+00
    P1  TP1d  1 3.950000e-01    2.940000e+00
    P1  TN1d  1 3.950000e-01    2.310000e+00
    P1  TN2d  1 3.950000e-01    2.310000e+00
    P1  TN3d  1 3.950000e-01    2.310000e+00
    P1  TN4d  1 3.950000e-01    2.700000e+00
    P1  TN5d  1 3.950000e-01    2.700000e+00
    P1  TN6d  1 3.950000e-01    2.940000e+00
    P1  TP1a  1 3.950000e-01    2.940000e+00
    P1  TN1a  1 3.950000e-01    2.310000e+00
    P1  TN2a  1 3.950000e-01    2.310000e+00
    P1  TN3a  1 3.950000e-01    2.310000e+00
    P1  TN4a  1 3.950000e-01    2.700000e+00
    P1  TN5a  1 3.950000e-01    2.700000e+00
    P1  TN6a  1 3.950000e-01    2.940000e+00
    P1  TC6v  1 3.950000e-01    2.310000e+00
    P1  TC5v  1 3.950000e-01    2.110000e+00
    P1  TC4v  1 3.950000e-01    1.850000e+00
    P1  TC3v  1 3.950000e-01    1.670000e+00
    P1  TC2v  1 3.950000e-01    1.670000e+00
    P1  TC1v  1 3.980000e-01    1.450000e+00
    P1  TX4v  1 3.950000e-01    2.310000e+00
    P1  TX3v  1 3.950000e-01    2.310000e+00
    P1  TX2v  1 3.950000e-01    2.110000e+00
    P1  TX1v  1 3.950000e-01    1.850000e+00
    P1  TC6e  1 3.950000e-01    2.310000e+00
    P1  TC5e  1 3.950000e-01    2.110000e+00
    P1  TC4e  1 3.950000e-01    1.850000e+00
    P1  TC3e  1 3.950000e-01    1.670000e+00
    P1  TC2e  1 3.950000e-01    1.670000e+00
    P1  TC1e  1 3.980000e-01    1.450000e+00
    P1  TX4e  1 3.950000e-01    2.310000e+00
    P1  TX3e  1 3.950000e-01    2.310000e+00
    P1  TX2e  1 3.950000e-01    2.110000e+00
    P1  TX1e  1 3.950000e-01    1.850000e+00
    P1  TP1q  1 3.950000e-01    3.430000e+00
    P1 TX1eq  1 3.950000e-01    2.310000e+00
    P1 TX2eq  1 3.950000e-01    2.500000e+00
    P1 TX3eq  1 3.950000e-01    2.700000e+00
    P1 TX4eq  1 3.950000e-01    2.700000e+00
    P1 TC1eq  1 3.950000e-01    1.850000e+00
    P1 TC2eq  1 3.950000e-01    2.110000e+00
    P1 TC3eq  1 3.950000e-01    2.110000e+00
    P1 TC4eq  1 3.950000e-01    2.310000e+00
    P1 TC5eq  1 3.950000e-01    2.500000e+00
    P1 TC6eq  1 3.950000e-01    2.700000e+00
    P1 TX1vq  1 3.950000e-01    2.310000e+00
    P1 TX2vq  1 3.950000e-01    2.500000e+00
    P1 TX3vq  1 3.950000e-01    2.700000e+00
    P1 TX4vq  1 3.950000e-01    2.700000e+00
    P1 TC1vq  1 3.950000e-01    1.850000e+00
    P1 TC2vq  1 3.950000e-01    2.110000e+00
    P1 TC3vq  1 3.950000e-01    2.110000e+00
    P1 TC4vq  1 3.950000e-01    2.310000e+00
    P1 TC5vq  1 3.950000e-01    2.500000e+00
    P1 TC6vq  1 3.950000e-01    2.700000e+00
    P1 TN1aq  1 3.950000e-01    2.700000e+00
    P1 TN2aq  1 3.950000e-01    2.700000e+00
    P1 TN3aq  1 3.950000e-01    2.700000e+00
    P1 TN4aq  1 3.950000e-01    3.190000e+00
    P1 TN5aq  1 3.950000e-01    3.190000e+00
    P1 TN6aq  1 3.950000e-01    3.430000e+00
    P1 TP1aq  1 3.950000e-01    3.430000e+00
    P1 TN1dq  1 3.950000e-01    2.700000e+00
    P1 TN2dq  1 3.950000e-01    2.700000e+00
    P1 TN3dq  1 3.950000e-01    2.700000e+00
    P1 TN4dq  1 3.950000e-01    3.190000e+00
    P1 TN5dq  1 3.950000e-01    3.190000e+00
    P1 TN6dq  1 3.950000e-01    3.430000e+00
    P1 TP1dq  1 3.950000e-01    3.430000e+00
    P1  TX1q  1 3.950000e-01    2.110000e+00
    P1  TX2q  1 3.950000e-01    2.310000e+00
    P1  TX3q  1 3.950000e-01    2.500000e+00
    P1  TX4q  1 3.950000e-01    2.500000e+00
    P1  TC1q  1 3.950000e-01    1.670000e+00
    P1  TC2q  1 3.950000e-01    1.850000e+00
    P1  TC3q  1 3.950000e-01    1.850000e+00
    P1  TC4q  1 3.950000e-01    2.110000e+00
    P1  TC5q  1 3.950000e-01    2.310000e+00
    P1  TC6q  1 3.950000e-01    2.500000e+00
    P1  TN1q  1 3.950000e-01    2.700000e+00
    P1  TN2q  1 3.950000e-01    2.700000e+00
    P1  TN3q  1 3.950000e-01    2.700000e+00
    P1  TN4q  1 3.950000e-01    3.190000e+00
    P1  TN5q  1 3.950000e-01    3.190000e+00
    P1  TN6q  1 3.950000e-01    3.430000e+00
    P1  TP1h  1 3.950000e-01    2.940000e+00
    P1 TX1eh  1 3.950000e-01    1.850000e+00
    P1 TX2eh  1 3.950000e-01    2.110000e+00
    P1 TX3eh  1 3.950000e-01    2.310000e+00
    P1 TX4eh  1 3.950000e-01    2.310000e+00
    P1 TC1eh  1 3.980000e-01    1.450000e+00
    P1 TC2eh  1 3.950000e-01    1.670000e+00
    P1 TC3eh  1 3.950000e-01    1.670000e+00
    P1 TC4eh  1 3.950000e-01    1.850000e+00
    P1 TC5eh  1 3.950000e-01    2.110000e+00
    P1 TC6eh  1 3.950000e-01    2.310000e+00
    P1 TX1vh  1 3.950000e-01    1.850000e+00
    P1 TX2vh  1 3.950000e-01    2.110000e+00
    P1 TX3vh  1 3.950000e-01    2.310000e+00
    P1 TX4vh  1 3.950000e-01    2.310000e+00
    P1 TC1vh  1 3.980000e-01    1.450000e+00
    P1 TC2vh  1 3.950000e-01    1.670000e+00
    P1 TC3vh  1 3.950000e-01    1.670000e+00
    P1 TC4vh  1 3.950000e-01    1.850000e+00
    P1 TC5vh  1 3.950000e-01    2.110000e+00
    P1 TC6vh  1 3.950000e-01    2.310000e+00
    P1 TN1ah  1 3.950000e-01    2.310000e+00
    P1 TN2ah  1 3.950000e-01    2.310000e+00
    P1 TN3ah  1 3.950000e-01    2.310000e+00
    P1 TN4ah  1 3.950000e-01    2.700000e+00
    P1 TN5ah  1 3.950000e-01    2.700000e+00
    P1 TN6ah  1 3.950000e-01    2.940000e+00
    P1 TP1ah  1 3.950000e-01    2.940000e+00
    P1 TN1dh  1 3.950000e-01    2.310000e+00
    P1 TN2dh  1 3.950000e-01    2.310000e+00
    P1 TN3dh  1 3.950000e-01    2.310000e+00
    P1 TN4dh  1 3.950000e-01    2.700000e+00
    P1 TN5dh  1 3.950000e-01    2.700000e+00
    P1 TN6dh  1 3.950000e-01    2.940000e+00
    P1 TP1dh  1 3.950000e-01    2.940000e+00
    P1  TX1h  1 3.950000e-01    1.670000e+00
    P1  TX2h  1 3.950000e-01    1.850000e+00
    P1  TX3h  1 3.950000e-01    2.110000e+00
    P1  TX4h  1 3.950000e-01    2.110000e+00
    P1  TC1h  1 3.990000e-01    1.180000e+00
    P1  TC2h  1 3.980000e-01    1.450000e+00
    P1  TC3h  1 3.980000e-01    1.450000e+00
    P1  TC4h  1 3.950000e-01    1.670000e+00
    P1  TC5h  1 3.950000e-01    1.850000e+00
    P1  TC6h  1 3.950000e-01    2.110000e+00
    P1  TN1h  1 3.950000e-01    2.310000e+00
    P1  TN2h  1 3.950000e-01    2.310000e+00
    P1  TN3h  1 3.950000e-01    2.310000e+00
    P1  TN4h  1 3.950000e-01    2.700000e+00
    P1  TN5h  1 3.950000e-01    2.700000e+00
    P1  TN6h  1 3.950000e-01    2.940000e+00
    P1  TP1r  1 3.950000e-01    2.940000e+00
    P1 TX1er  1 3.950000e-01    1.850000e+00
    P1 TX2er  1 3.950000e-01    2.110000e+00
    P1 TX3er  1 3.950000e-01    2.310000e+00
    P1 TX4er  1 3.950000e-01    2.310000e+00
    P1 TC1er  1 3.980000e-01    1.450000e+00
    P1 TC2er  1 3.950000e-01    1.670000e+00
    P1 TC3er  1 3.950000e-01    1.670000e+00
    P1 TC4er  1 3.950000e-01    1.850000e+00
    P1 TC5er  1 3.950000e-01    2.110000e+00
    P1 TC6er  1 3.950000e-01    2.310000e+00
    P1 TX1vr  1 3.950000e-01    1.850000e+00
    P1 TX2vr  1 3.950000e-01    2.110000e+00
    P1 TX3vr  1 3.950000e-01    2.310000e+00
    P1 TX4vr  1 3.950000e-01    2.310000e+00
    P1 TC1vr  1 3.980000e-01    1.450000e+00
    P1 TC2vr  1 3.950000e-01    1.670000e+00
    P1 TC3vr  1 3.950000e-01    1.670000e+00
    P1 TC4vr  1 3.950000e-01    1.850000e+00
    P1 TC5vr  1 3.950000e-01    2.110000e+00
    P1 TC6vr  1 3.950000e-01    2.310000e+00
    P1 TN1ar  1 3.950000e-01    2.310000e+00
    P1 TN2ar  1 3.950000e-01    2.310000e+00
    P1 TN3ar  1 3.950000e-01    2.310000e+00
    P1 TN4ar  1 3.950000e-01    2.700000e+00
    P1 TN5ar  1 3.950000e-01    2.700000e+00
    P1 TN6ar  1 3.950000e-01    2.940000e+00
    P1 TP1ar  1 3.950000e-01    2.940000e+00
    P1 TN1dr  1 3.950000e-01    2.310000e+00
    P1 TN2dr  1 3.950000e-01    2.310000e+00
    P1 TN3dr  1 3.950000e-01    2.310000e+00
    P1 TN4dr  1 3.950000e-01    2.700000e+00
    P1 TN5dr  1 3.950000e-01    2.700000e+00
    P1 TN6dr  1 3.950000e-01    2.940000e+00
    P1 TP1dr  1 3.950000e-01    2.940000e+00
    P1  TX1r  1 3.950000e-01    1.670000e+00
    P1  TX2r  1 3.950000e-01    1.850000e+00
    P1  TX3r  1 3.950000e-01    2.110000e+00
    P1  TX4r  1 3.950000e-01    2.110000e+00
    P1  TC1r  1 3.990000e-01    1.180000e+00
    P1  TC2r  1 3.980000e-01    1.450000e+00
    P1  TC3r  1 3.980000e-01    1.450000e+00
    P1  TC4r  1 3.950000e-01    1.670000e+00
    P1  TC5r  1 3.950000e-01    1.850000e+00
    P1  TC6r  1 3.950000e-01    2.110000e+00
    P1  TN1r  1 3.950000e-01    2.310000e+00
    P1  TN2r  1 3.950000e-01    2.310000e+00
    P1  TN3r  1 3.950000e-01    2.310000e+00
    P1  TN4r  1 3.950000e-01    2.700000e+00
    P1  TN5r  1 3.950000e-01    2.700000e+00
    P1  TN6r  1 3.950000e-01    2.940000e+00
  TP6d    P1  1 3.950000e-01    3.190000e+00
  TP5d    P1  1 3.950000e-01    2.940000e+00
  TP4d    P1  1 3.950000e-01    2.940000e+00
  TP3d    P1  1 3.950000e-01    2.940000e+00
  TP2d    P1  1 3.950000e-01    2.940000e+00
  TP6a    P1  1 3.950000e-01    3.190000e+00
  TP5a    P1  1 3.950000e-01    2.940000e+00
  TP4a    P1  1 3.950000e-01    2.940000e+00
  TP3a    P1  1 3.950000e-01    2.940000e+00
  TP2a    P1  1 3.950000e-01    2.940000e+00
  TP6q    P1  1 3.950000e-01    3.670000e+00
  TP5q    P1  1 3.950000e-01    3.430000e+00
  TP4q    P1  1 3.950000e-01    3.430000e+00
  TP3q    P1  1 3.950000e-01    3.430000e+00
  TP2q    P1  1 3.950000e-01    3.430000e+00
 TP2aq    P1  1 3.950000e-01    3.430000e+00
 TP3aq    P1  1 3.950000e-01    3.430000e+00
 TP4aq    P1  1 3.950000e-01    3.430000e+00
 TP5aq    P1  1 3.950000e-01    3.430000e+00
 TP6aq    P1  1 3.950000e-01    3.670000e+00
 TP2dq    P1  1 3.950000e-01    3.430000e+00
 TP3dq    P1  1 3.950000e-01    3.430000e+00
 TP4dq    P1  1 3.950000e-01    3.430000e+00
 TP5dq    P1  1 3.950000e-01    3.430000e+00
 TP6dq    P1  1 3.950000e-01    3.670000e+00
  TP6h    P1  1 3.950000e-01    3.190000e+00
  TP5h    P1  1 3.950000e-01    2.940000e+00
  TP4h    P1  1 3.950000e-01    2.940000e+00
  TP3h    P1  1 3.950000e-01    2.940000e+00
  TP2h    P1  1 3.950000e-01    2.940000e+00
 TP2ah    P1  1 3.950000e-01    2.940000e+00
 TP3ah    P1  1 3.950000e-01    2.940000e+00
 TP4ah    P1  1 3.950000e-01    2.940000e+00
 TP5ah    P1  1 3.950000e-01    2.940000e+00
 TP6ah    P1  1 3.950000e-01    3.190000e+00
 TP2dh    P1  1 3.950000e-01    2.940000e+00
 TP3dh    P1  1 3.950000e-01    2.940000e+00
 TP4dh    P1  1 3.950000e-01    2.940000e+00
 TP5dh    P1  1 3.950000e-01    2.940000e+00
 TP6dh    P1  1 3.950000e-01    3.190000e+00
  TP6r    P1  1 3.950000e-01    3.190000e+00
  TP5r    P1  1 3.950000e-01    2.940000e+00
  TP4r    P1  1 3.950000e-01    2.940000e+00
  TP3r    P1  1 3.950000e-01    2.940000e+00
  TP2r    P1  1 3.950000e-01    2.940000e+00
 TP2ar    P1  1 3.950000e-01    2.940000e+00
 TP3ar    P1  1 3.950000e-01    2.940000e+00
 TP4ar    P1  1 3.950000e-01    2.940000e+00
 TP5ar    P1  1 3.950000e-01    2.940000e+00
 TP6ar    P1  1 3.950000e-01    3.190000e+00
 TP2dr    P1  1 3.950000e-01    2.940000e+00
 TP3dr    P1  1 3.950000e-01    2.940000e+00
 TP4dr    P1  1 3.950000e-01    2.940000e+00
 TP5dr    P1  1 3.950000e-01    2.940000e+00
 TP6dr    P1  1 3.950000e-01    3.190000e+00
   P6d   SP1  1 4.300000e-01    3.770000e+00
   P5d   SP1  1 4.300000e-01    3.590000e+00
   P4d   SP1  1 4.300000e-01    3.590000e+00
   P3d   SP1  1 4.300000e-01    3.590000e+00
   P2d   SP1  1 4.300000e-01    3.590000e+00
   P6a   SP1  1 4.300000e-01    3.770000e+00
   P5a   SP1  1 4.300000e-01    3.590000e+00
   P4a   SP1  1 4.300000e-01    3.590000e+00
   P3a   SP1  1 4.300000e-01    3.590000e+00
   P2a   SP1  1 4.300000e-01    3.590000e+00
   P6q   SP1  1 4.300000e-01    4.170000e+00
   P5q   SP1  1 4.300000e-01    3.970000e+00
   P4q   SP1  1 4.300000e-01    3.970000e+00
   P3q   SP1  1 4.300000e-01    3.970000e+00
   P2q   SP1  1 4.300000e-01    3.970000e+00
  P2aq   SP1  1 4.300000e-01    3.970000e+00
  P3aq   SP1  1 4.300000e-01    3.970000e+00
  P4aq   SP1  1 4.300000e-01    3.970000e+00
  P5aq   SP1  1 4.300000e-01    3.970000e+00
  P6aq   SP1  1 4.300000e-01    4.170000e+00
  P2dq   SP1  1 4.300000e-01    3.970000e+00
  P3dq   SP1  1 4.300000e-01    3.970000e+00
  P4dq   SP1  1 4.300000e-01    3.970000e+00
  P5dq   SP1  1 4.300000e-01    3.970000e+00
  P6dq   SP1  1 4.300000e-01    4.170000e+00
   P6h   SP1  1 4.300000e-01    3.770000e+00
   P5h   SP1  1 4.300000e-01    3.590000e+00
   P4h   SP1  1 4.300000e-01    3.590000e+00
   P3h   SP1  1 4.300000e-01    3.590000e+00
   P2h   SP1  1 4.300000e-01    3.590000e+00
  P2ah   SP1  1 4.300000e-01    3.590000e+00
  P3ah   SP1  1 4.300000e-01    3.590000e+00
  P4ah   SP1  1 4.300000e-01    3.590000e+00
  P5ah   SP1  1 4.300000e-01    3.590000e+00
  P6ah   SP1  1 4.300000e-01    3.770000e+00
  P2dh   SP1  1 4.300000e-01    3.590000e+00
  P3dh   SP1  1 4.300000e-01    3.590000e+00
  P4dh   SP1  1 4.300000e-01    3.590000e+00
  P5dh   SP1  1 4.300000e-01    3.590000e+00
  P6dh   SP1  1 4.300000e-01    3.770000e+00
   P6r   SP1  1 4.300000e-01    3.770000e+00
   P5r   SP1  1 4.300000e-01    3.590000e+00
   P4r   SP1  1 4.300000e-01    3.590000e+00
   P3r   SP1  1 4.300000e-01    3.590000e+00
   P2r   SP1  1 4.300000e-01    3.590000e+00
  P2ar   SP1  1 4.300000e-01    3.590000e+00
  P3ar   SP1  1 4.300000e-01    3.590000e+00
  P4ar   SP1  1 4.300000e-01    3.590000e+00
  P5ar   SP1  1 4.300000e-01    3.590000e+00
  P6ar   SP1  1 4.300000e-01    3.770000e+00
  P2dr   SP1  1 4.300000e-01    3.590000e+00
  P3dr   SP1  1 4.300000e-01    3.590000e+00
  P4dr   SP1  1 4.300000e-01    3.590000e+00
  P5dr   SP1  1 4.300000e-01    3.590000e+00
  P6dr   SP1  1 4.300000e-01    3.770000e+00
   SP1    N6  1 4.300000e-01    3.590000e+00
   SP1    N5  1 4.300000e-01    3.380000e+00
   SP1    N4  1 4.300000e-01    3.380000e+00
   SP1    N3  1 4.300000e-01    2.920000e+00
   SP1    N2  1 4.300000e-01    2.920000e+00
   SP1    N1  1 4.300000e-01    2.920000e+00
   SP1    C6  1 4.300000e-01    2.770000e+00
   SP1    C5  1 4.300000e-01    2.530000e+00
   SP1    C4  1 4.300000e-01    2.320000e+00
   SP1    C3  1 4.300000e-01    2.160000e+00
   SP1    C2  1 4.300000e-01    2.160000e+00
   SP1    C1  1 4.300000e-01    1.930000e+00
   SP1    X4  1 4.300000e-01    2.770000e+00
   SP1    X3  1 4.300000e-01    2.770000e+00
   SP1    X2  1 4.300000e-01    2.530000e+00
   SP1    X1  1 4.300000e-01    2.320000e+00
   SP1   P1d  1 4.300000e-01    3.590000e+00
   SP1   N1d  1 4.300000e-01    2.920000e+00
   SP1   N2d  1 4.300000e-01    2.920000e+00
   SP1   N3d  1 4.300000e-01    2.920000e+00
   SP1   N4d  1 4.300000e-01    3.380000e+00
   SP1   N5d  1 4.300000e-01    3.380000e+00
   SP1   N6d  1 4.300000e-01    3.590000e+00
   SP1   P1a  1 4.300000e-01    3.590000e+00
   SP1   N1a  1 4.300000e-01    2.920000e+00
   SP1   N2a  1 4.300000e-01    2.920000e+00
   SP1   N3a  1 4.300000e-01    2.920000e+00
   SP1   N4a  1 4.300000e-01    3.380000e+00
   SP1   N5a  1 4.300000e-01    3.380000e+00
   SP1   N6a  1 4.300000e-01    3.590000e+00
   SP1   C6v  1 4.300000e-01    2.920000e+00
   SP1   C5v  1 4.300000e-01    2.770000e+00
   SP1   C4v  1 4.300000e-01    2.530000e+00
   SP1   C3v  1 4.300000e-01    2.320000e+00
   SP1   C2v  1 4.300000e-01    2.320000e+00
   SP1   C1v  1 4.300000e-01    2.160000e+00
   SP1   X4v  1 4.300000e-01    2.920000e+00
   SP1   X3v  1 4.300000e-01    2.920000e+00
   SP1   X2v  1 4.300000e-01    2.770000e+00
   SP1   X1v  1 4.300000e-01    2.530000e+00
   SP1   C6e  1 4.300000e-01    2.920000e+00
   SP1   C5e  1 4.300000e-01    2.770000e+00
   SP1   C4e  1 4.300000e-01    2.530000e+00
   SP1   C3e  1 4.300000e-01    2.320000e+00
   SP1   C2e  1 4.300000e-01    2.320000e+00
   SP1   C1e  1 4.300000e-01    2.160000e+00
   SP1   X4e  1 4.300000e-01    2.920000e+00
   SP1   X3e  1 4.300000e-01    2.920000e+00
   SP1   X2e  1 4.300000e-01    2.770000e+00
   SP1   X1e  1 4.300000e-01    2.530000e+00
   SP1   P1q  1 4.300000e-01    3.970000e+00
   SP1  X1eq  1 4.300000e-01    2.920000e+00
   SP1  X2eq  1 4.300000e-01    3.160000e+00
   SP1  X3eq  1 4.300000e-01    3.380000e+00
   SP1  X4eq  1 4.300000e-01    3.380000e+00
   SP1  C1eq  1 4.300000e-01    2.530000e+00
   SP1  C2eq  1 4.300000e-01    2.770000e+00
   SP1  C3eq  1 4.300000e-01    2.770000e+00
   SP1  C4eq  1 4.300000e-01    2.920000e+00
   SP1  C5eq  1 4.300000e-01    3.160000e+00
   SP1  C6eq  1 4.300000e-01    3.380000e+00
   SP1  X1vq  1 4.300000e-01    2.920000e+00
   SP1  X2vq  1 4.300000e-01    3.160000e+00
   SP1  X3vq  1 4.300000e-01    3.380000e+00
   SP1  X4vq  1 4.300000e-01    3.380000e+00
   SP1  C1vq  1 4.300000e-01    2.530000e+00
   SP1  C2vq  1 4.300000e-01    2.770000e+00
   SP1  C3vq  1 4.300000e-01    2.770000e+00
   SP1  C4vq  1 4.300000e-01    2.920000e+00
   SP1  C5vq  1 4.300000e-01    3.160000e+00
   SP1  C6vq  1 4.300000e-01    3.380000e+00
   SP1  N1aq  1 4.300000e-01    3.380000e+00
   SP1  N2aq  1 4.300000e-01    3.380000e+00
   SP1  N3aq  1 4.300000e-01    3.380000e+00
   SP1  N4aq  1 4.300000e-01    3.770000e+00
   SP1  N5aq  1 4.300000e-01    3.770000e+00
   SP1  N6aq  1 4.300000e-01    3.970000e+00
   SP1  P1aq  1 4.300000e-01    3.970000e+00
   SP1  N1dq  1 4.300000e-01    3.380000e+00
   SP1  N2dq  1 4.300000e-01    3.380000e+00
   SP1  N3dq  1 4.300000e-01    3.380000e+00
   SP1  N4dq  1 4.300000e-01    3.770000e+00
   SP1  N5dq  1 4.300000e-01    3.770000e+00
   SP1  N6dq  1 4.300000e-01    3.970000e+00
   SP1  P1dq  1 4.300000e-01    3.970000e+00
   SP1   X1q  1 4.300000e-01    2.770000e+00
   SP1   X2q  1 4.300000e-01    2.920000e+00
   SP1   X3q  1 4.300000e-01    3.160000e+00
   SP1   X4q  1 4.300000e-01    3.160000e+00
   SP1   C1q  1 4.300000e-01    2.320000e+00
   SP1   C2q  1 4.300000e-01    2.530000e+00
   SP1   C3q  1 4.300000e-01    2.530000e+00
   SP1   C4q  1 4.300000e-01    2.770000e+00
   SP1   C5q  1 4.300000e-01    2.920000e+00
   SP1   C6q  1 4.300000e-01    3.160000e+00
   SP1   N1q  1 4.300000e-01    3.380000e+00
   SP1   N2q  1 4.300000e-01    3.380000e+00
   SP1   N3q  1 4.300000e-01    3.380000e+00
   SP1   N4q  1 4.300000e-01    3.770000e+00
   SP1   N5q  1 4.300000e-01    3.770000e+00
   SP1   N6q  1 4.300000e-01    3.970000e+00
   SP1   P1h  1 4.300000e-01    3.590000e+00
   SP1  X1eh  1 4.300000e-01    2.530000e+00
   SP1  X2eh  1 4.300000e-01    2.770000e+00
   SP1  X3eh  1 4.300000e-01    2.920000e+00
   SP1  X4eh  1 4.300000e-01    2.920000e+00
   SP1  C1eh  1 4.300000e-01    2.160000e+00
   SP1  C2eh  1 4.300000e-01    2.320000e+00
   SP1  C3eh  1 4.300000e-01    2.320000e+00
   SP1  C4eh  1 4.300000e-01    2.530000e+00
   SP1  C5eh  1 4.300000e-01    2.770000e+00
   SP1  C6eh  1 4.300000e-01    2.920000e+00
   SP1  X1vh  1 4.300000e-01    2.530000e+00
   SP1  X2vh  1 4.300000e-01    2.770000e+00
   SP1  X3vh  1 4.300000e-01    2.920000e+00
   SP1  X4vh  1 4.300000e-01    2.920000e+00
   SP1  C1vh  1 4.300000e-01    2.160000e+00
   SP1  C2vh  1 4.300000e-01    2.320000e+00
   SP1  C3vh  1 4.300000e-01    2.320000e+00
   SP1  C4vh  1 4.300000e-01    2.530000e+00
   SP1  C5vh  1 4.300000e-01    2.770000e+00
   SP1  C6vh  1 4.300000e-01    2.920000e+00
   SP1  N1ah  1 4.300000e-01    2.920000e+00
   SP1  N2ah  1 4.300000e-01    2.920000e+00
   SP1  N3ah  1 4.300000e-01    2.920000e+00
   SP1  N4ah  1 4.300000e-01    3.380000e+00
   SP1  N5ah  1 4.300000e-01    3.380000e+00
   SP1  N6ah  1 4.300000e-01    3.590000e+00
   SP1  P1ah  1 4.300000e-01    3.590000e+00
   SP1  N1dh  1 4.300000e-01    2.920000e+00
   SP1  N2dh  1 4.300000e-01    2.920000e+00
   SP1  N3dh  1 4.300000e-01    2.920000e+00
   SP1  N4dh  1 4.300000e-01    3.380000e+00
   SP1  N5dh  1 4.300000e-01    3.380000e+00
   SP1  N6dh  1 4.300000e-01    3.590000e+00
   SP1  P1dh  1 4.300000e-01    3.590000e+00
   SP1   X1h  1 4.300000e-01    2.320000e+00
   SP1   X2h  1 4.300000e-01    2.530000e+00
   SP1   X3h  1 4.300000e-01    2.770000e+00
   SP1   X4h  1 4.300000e-01    2.770000e+00
   SP1   C1h  1 4.300000e-01    1.930000e+00
   SP1   C2h  1 4.300000e-01    2.160000e+00
   SP1   C3h  1 4.300000e-01    2.160000e+00
   SP1   C4h  1 4.300000e-01    2.320000e+00
   SP1   C5h  1 4.300000e-01    2.530000e+00
   SP1   C6h  1 4.300000e-01    2.770000e+00
   SP1   N1h  1 4.300000e-01    2.920000e+00
   SP1   N2h  1 4.300000e-01    2.920000e+00
   SP1   N3h  1 4.300000e-01    2.920000e+00
   SP1   N4h  1 4.300000e-01    3.380000e+00
   SP1   N5h  1 4.300000e-01    3.380000e+00
   SP1   N6h  1 4.300000e-01    3.590000e+00
   SP1   P1r  1 4.300000e-01    3.590000e+00
   SP1  X1er  1 4.300000e-01    2.530000e+00
   SP1  X2er  1 4.300000e-01    2.770000e+00
   SP1  X3er  1 4.300000e-01    2.920000e+00
   SP1  X4er  1 4.300000e-01    2.920000e+00
   SP1  C1er  1 4.300000e-01    2.160000e+00
   SP1  C2er  1 4.300000e-01    2.320000e+00
   SP1  C3er  1 4.300000e-01    2.320000e+00
   SP1  C4er  1 4.300000e-01    2.530000e+00
   SP1  C5er  1 4.300000e-01    2.770000e+00
   SP1  C6er  1 4.300000e-01    2.920000e+00
   SP1  X1vr  1 4.300000e-01    2.530000e+00
   SP1  X2vr  1 4.300000e-01    2.770000e+00
   SP1  X3vr  1 4.300000e-01    2.920000e+00
   SP1  X4vr  1 4.300000e-01    2.920000e+00
   SP1  C1vr  1 4.300000e-01    2.160000e+00
   SP1  C2vr  1 4.300000e-01    2.320000e+00
   SP1  C3vr  1 4.300000e-01    2.320000e+00
   SP1  C4vr  1 4.300000e-01    2.530000e+00
   SP1  C5vr  1 4.300000e-01    2.770000e+00
   SP1  C6vr  1 4.300000e-01    2.920000e+00
   SP1  N1ar  1 4.300000e-01    2.920000e+00
   SP1  N2ar  1 4.300000e-01    2.920000e+00
   SP1  N3ar  1 4.300000e-01    2.920000e+00
   SP1  N4ar  1 4.300000e-01    3.380000e+00
   SP1  N5ar  1 4.300000e-01    3.380000e+00
   SP1  N6ar  1 4.300000e-01    3.590000e+00
   SP1  P1ar  1 4.300000e-01    3.590000e+00
   SP1  N1dr  1 4.300000e-01    2.920000e+00
   SP1  N2dr  1 4.300000e-01    2.920000e+00
   SP1  N3dr  1 4.300000e-01    2.920000e+00
   SP1  N4dr  1 4.300000e-01    3.380000e+00
   SP1  N5dr  1 4.300000e-01    3.380000e+00
   SP1  N6dr  1 4.300000e-01    3.590000e+00
   SP1  P1dr  1 4.300000e-01    3.590000e+00
   SP1   X1r  1 4.300000e-01    2.320000e+00
   SP1   X2r  1 4.300000e-01    2.530000e+00
   SP1   X3r  1 4.300000e-01    2.770000e+00
   SP1   X4r  1 4.300000e-01    2.770000e+00
   SP1   C1r  1 4.300000e-01    1.930000e+00
   SP1   C2r  1 4.300000e-01    2.160000e+00
   SP1   C3r  1 4.300000e-01    2.160000e+00
   SP1   C4r  1 4.300000e-01    2.320000e+00
   SP1   C5r  1 4.300000e-01    2.530000e+00
   SP1   C6r  1 4.300000e-01    2.770000e+00
   SP1   N1r  1 4.300000e-01    2.920000e+00
   SP1   N2r  1 4.300000e-01    2.920000e+00
   SP1   N3r  1 4.300000e-01    2.920000e+00
   SP1   N4r  1 4.300000e-01    3.380000e+00
   SP1   N5r  1 4.300000e-01    3.380000e+00
   SP1   N6r  1 4.300000e-01    3.590000e+00
   SP1   SP1  1 4.100000e-01    3.070000e+00
   SP1   SN6  1 4.100000e-01    3.070000e+00
   SP1   SN5  1 4.100000e-01    2.840000e+00
   SP1   SN4  1 4.100000e-01    2.840000e+00
   SP1   SN3  1 4.100000e-01    2.350000e+00
   SP1   SN2  1 4.100000e-01    2.350000e+00
   SP1   SN1  1 4.100000e-01    2.350000e+00
   SP1   SC6  1 4.100000e-01    2.200000e+00
   SP1   SC5  1 4.100000e-01    2.040000e+00
   SP1   SC4  1 4.100000e-01    1.910000e+00
   SP1   SC3  1 4.100000e-01    1.750000e+00
   SP1   SC2  1 4.100000e-01    1.750000e+00
   SP1   SC1  1 4.140000e-01    1.560000e+00
   SP1   SX4  1 4.100000e-01    2.200000e+00
   SP1   SX3  1 4.100000e-01    2.200000e+00
   SP1   SX2  1 4.100000e-01    2.040000e+00
   SP1   SX1  1 4.100000e-01    1.910000e+00
  SP6d   SP1  1 4.100000e-01    3.310000e+00
  SP5d   SP1  1 4.100000e-01    3.070000e+00
  SP4d   SP1  1 4.100000e-01    3.070000e+00
  SP3d   SP1  1 4.100000e-01    3.070000e+00
  SP2d   SP1  1 4.100000e-01    3.070000e+00
   SP1  SP1d  1 4.100000e-01    3.070000e+00
   SP1  SN1d  1 4.100000e-01    2.350000e+00
   SP1  SN2d  1 4.100000e-01    2.350000e+00
   SP1  SN3d  1 4.100000e-01    2.350000e+00
   SP1  SN4d  1 4.100000e-01    2.840000e+00
   SP1  SN5d  1 4.100000e-01    2.840000e+00
   SP1  SN6d  1 4.100000e-01    3.070000e+00
  SP6a   SP1  1 4.100000e-01    3.310000e+00
  SP5a   SP1  1 4.100000e-01    3.070000e+00
  SP4a   SP1  1 4.100000e-01    3.070000e+00
  SP3a   SP1  1 4.100000e-01    3.070000e+00
  SP2a   SP1  1 4.100000e-01    3.070000e+00
   SP1  SP1a  1 4.100000e-01    3.070000e+00
   SP1  SN1a  1 4.100000e-01    2.350000e+00
   SP1  SN2a  1 4.100000e-01    2.350000e+00
   SP1  SN3a  1 4.100000e-01    2.350000e+00
   SP1  SN4a  1 4.100000e-01    2.840000e+00
   SP1  SN5a  1 4.100000e-01    2.840000e+00
   SP1  SN6a  1 4.100000e-01    3.070000e+00
   SP1  SC6v  1 4.100000e-01    2.350000e+00
   SP1  SC5v  1 4.100000e-01    2.200000e+00
   SP1  SC4v  1 4.100000e-01    2.040000e+00
   SP1  SC3v  1 4.100000e-01    1.910000e+00
   SP1  SC2v  1 4.100000e-01    1.910000e+00
   SP1  SC1v  1 4.100000e-01    1.750000e+00
   SP1  SX4v  1 4.100000e-01    2.350000e+00
   SP1  SX3v  1 4.100000e-01    2.350000e+00
   SP1  SX2v  1 4.100000e-01    2.200000e+00
   SP1  SX1v  1 4.100000e-01    2.040000e+00
   SP1  SC6e  1 4.100000e-01    2.350000e+00
   SP1  SC5e  1 4.100000e-01    2.200000e+00
   SP1  SC4e  1 4.100000e-01    2.040000e+00
   SP1  SC3e  1 4.100000e-01    1.910000e+00
   SP1  SC2e  1 4.100000e-01    1.910000e+00
   SP1  SC1e  1 4.100000e-01    1.750000e+00
   SP1  SX4e  1 4.100000e-01    2.350000e+00
   SP1  SX3e  1 4.100000e-01    2.350000e+00
   SP1  SX2e  1 4.100000e-01    2.200000e+00
   SP1  SX1e  1 4.100000e-01    2.040000e+00
  SP6q   SP1  1 4.100000e-01    3.820000e+00
  SP5q   SP1  1 4.100000e-01    3.550000e+00
  SP4q   SP1  1 4.100000e-01    3.550000e+00
  SP3q   SP1  1 4.100000e-01    3.550000e+00
  SP2q   SP1  1 4.100000e-01    3.550000e+00
   SP1  SP1q  1 4.100000e-01    3.550000e+00
   SP1 SX1eq  1 4.100000e-01    2.350000e+00
   SP1 SX2eq  1 4.100000e-01    2.600000e+00
   SP1 SX3eq  1 4.100000e-01    2.840000e+00
   SP1 SX4eq  1 4.100000e-01    2.840000e+00
   SP1 SC1eq  1 4.100000e-01    2.040000e+00
   SP1 SC2eq  1 4.100000e-01    2.200000e+00
   SP1 SC3eq  1 4.100000e-01    2.200000e+00
   SP1 SC4eq  1 4.100000e-01    2.350000e+00
   SP1 SC5eq  1 4.100000e-01    2.600000e+00
   SP1 SC6eq  1 4.100000e-01    2.840000e+00
   SP1 SX1vq  1 4.100000e-01    2.350000e+00
   SP1 SX2vq  1 4.100000e-01    2.600000e+00
   SP1 SX3vq  1 4.100000e-01    2.840000e+00
   SP1 SX4vq  1 4.100000e-01    2.840000e+00
   SP1 SC1vq  1 4.100000e-01    2.040000e+00
   SP1 SC2vq  1 4.100000e-01    2.200000e+00
   SP1 SC3vq  1 4.100000e-01    2.200000e+00
   SP1 SC4vq  1 4.100000e-01    2.350000e+00
   SP1 SC5vq  1 4.100000e-01    2.600000e+00
   SP1 SC6vq  1 4.100000e-01    2.840000e+00
   SP1 SN1aq  1 4.100000e-01    2.840000e+00
   SP1 SN2aq  1 4.100000e-01    2.840000e+00
   SP1 SN3aq  1 4.100000e-01    2.840000e+00
   SP1 SN4aq  1 4.100000e-01    3.310000e+00
   SP1 SN5aq  1 4.100000e-01    3.310000e+00
   SP1 SN6aq  1 4.100000e-01    3.550000e+00
   SP1 SP1aq  1 4.100000e-01    3.550000e+00
 SP2aq   SP1  1 4.100000e-01    3.550000e+00
 SP3aq   SP1  1 4.100000e-01    3.550000e+00
 SP4aq   SP1  1 4.100000e-01    3.550000e+00
 SP5aq   SP1  1 4.100000e-01    3.550000e+00
 SP6aq   SP1  1 4.100000e-01    3.820000e+00
   SP1 SN1dq  1 4.100000e-01    2.840000e+00
   SP1 SN2dq  1 4.100000e-01    2.840000e+00
   SP1 SN3dq  1 4.100000e-01    2.840000e+00
   SP1 SN4dq  1 4.100000e-01    3.310000e+00
   SP1 SN5dq  1 4.100000e-01    3.310000e+00
   SP1 SN6dq  1 4.100000e-01    3.550000e+00
   SP1 SP1dq  1 4.100000e-01    3.550000e+00
 SP2dq   SP1  1 4.100000e-01    3.550000e+00
 SP3dq   SP1  1 4.100000e-01    3.550000e+00
 SP4dq   SP1  1 4.100000e-01    3.550000e+00
 SP5dq   SP1  1 4.100000e-01    3.550000e+00
 SP6dq   SP1  1 4.100000e-01    3.820000e+00
   SP1  SX1q  1 4.100000e-01    2.200000e+00
   SP1  SX2q  1 4.100000e-01    2.350000e+00
   SP1  SX3q  1 4.100000e-01    2.600000e+00
   SP1  SX4q  1 4.100000e-01    2.600000e+00
   SP1  SC1q  1 4.100000e-01    1.910000e+00
   SP1  SC2q  1 4.100000e-01    2.040000e+00
   SP1  SC3q  1 4.100000e-01    2.040000e+00
   SP1  SC4q  1 4.100000e-01    2.200000e+00
   SP1  SC5q  1 4.100000e-01    2.350000e+00
   SP1  SC6q  1 4.100000e-01    2.600000e+00
   SP1  SN1q  1 4.100000e-01    2.840000e+00
   SP1  SN2q  1 4.100000e-01    2.840000e+00
   SP1  SN3q  1 4.100000e-01    2.840000e+00
   SP1  SN4q  1 4.100000e-01    3.310000e+00
   SP1  SN5q  1 4.100000e-01    3.310000e+00
   SP1  SN6q  1 4.100000e-01    3.550000e+00
  SP6h   SP1  1 4.100000e-01    3.310000e+00
  SP5h   SP1  1 4.100000e-01    3.070000e+00
  SP4h   SP1  1 4.100000e-01    3.070000e+00
  SP3h   SP1  1 4.100000e-01    3.070000e+00
  SP2h   SP1  1 4.100000e-01    3.070000e+00
   SP1  SP1h  1 4.100000e-01    3.070000e+00
   SP1 SX1eh  1 4.100000e-01    2.040000e+00
   SP1 SX2eh  1 4.100000e-01    2.200000e+00
   SP1 SX3eh  1 4.100000e-01    2.350000e+00
   SP1 SX4eh  1 4.100000e-01    2.350000e+00
   SP1 SC1eh  1 4.100000e-01    1.750000e+00
   SP1 SC2eh  1 4.100000e-01    1.910000e+00
   SP1 SC3eh  1 4.100000e-01    1.910000e+00
   SP1 SC4eh  1 4.100000e-01    2.040000e+00
   SP1 SC5eh  1 4.100000e-01    2.200000e+00
   SP1 SC6eh  1 4.100000e-01    2.350000e+00
   SP1 SX1vh  1 4.100000e-01    2.040000e+00
   SP1 SX2vh  1 4.100000e-01    2.200000e+00
   SP1 SX3vh  1 4.100000e-01    2.350000e+00
   SP1 SX4vh  1 4.100000e-01    2.350000e+00
   SP1 SC1vh  1 4.100000e-01    1.750000e+00
   SP1 SC2vh  1 4.100000e-01    1.910000e+00
   SP1 SC3vh  1 4.100000e-01    1.910000e+00
   SP1 SC4vh  1 4.100000e-01    2.040000e+00
   SP1 SC5vh  1 4.100000e-01    2.200000e+00
   SP1 SC6vh  1 4.100000e-01    2.350000e+00
   SP1 SN1ah  1 4.100000e-01    2.350000e+00
   SP1 SN2ah  1 4.100000e-01    2.350000e+00
   SP1 SN3ah  1 4.100000e-01    2.350000e+00
   SP1 SN4ah  1 4.100000e-01    2.840000e+00
   SP1 SN5ah  1 4.100000e-01    2.840000e+00
   SP1 SN6ah  1 4.100000e-01    3.070000e+00
   SP1 SP1ah  1 4.100000e-01    3.070000e+00
 SP2ah   SP1  1 4.100000e-01    3.070000e+00
 SP3ah   SP1  1 4.100000e-01    3.070000e+00
 SP4ah   SP1  1 4.100000e-01    3.070000e+00
 SP5ah   SP1  1 4.100000e-01    3.070000e+00
 SP6ah   SP1  1 4.100000e-01    3.310000e+00
   SP1 SN1dh  1 4.100000e-01    2.350000e+00
   SP1 SN2dh  1 4.100000e-01    2.350000e+00
   SP1 SN3dh  1 4.100000e-01    2.350000e+00
   SP1 SN4dh  1 4.100000e-01    2.840000e+00
   SP1 SN5dh  1 4.100000e-01    2.840000e+00
   SP1 SN6dh  1 4.100000e-01    3.070000e+00
   SP1 SP1dh  1 4.100000e-01    3.070000e+00
 SP2dh   SP1  1 4.100000e-01    3.070000e+00
 SP3dh   SP1  1 4.100000e-01    3.070000e+00
 SP4dh   SP1  1 4.100000e-01    3.070000e+00
 SP5dh   SP1  1 4.100000e-01    3.070000e+00
 SP6dh   SP1  1 4.100000e-01    3.310000e+00
   SP1  SX1h  1 4.100000e-01    1.910000e+00
   SP1  SX2h  1 4.100000e-01    2.040000e+00
   SP1  SX3h  1 4.100000e-01    2.200000e+00
   SP1  SX4h  1 4.100000e-01    2.200000e+00
   SP1  SC1h  1 4.140000e-01    1.560000e+00
   SP1  SC2h  1 4.100000e-01    1.750000e+00
   SP1  SC3h  1 4.100000e-01    1.750000e+00
   SP1  SC4h  1 4.100000e-01    1.910000e+00
   SP1  SC5h  1 4.100000e-01    2.040000e+00
   SP1  SC6h  1 4.100000e-01    2.200000e+00
   SP1  SN1h  1 4.100000e-01    2.350000e+00
   SP1  SN2h  1 4.100000e-01    2.350000e+00
   SP1  SN3h  1 4.100000e-01    2.350000e+00
   SP1  SN4h  1 4.100000e-01    2.840000e+00
   SP1  SN5h  1 4.100000e-01    2.840000e+00
   SP1  SN6h  1 4.100000e-01    3.070000e+00
  SP6r   SP1  1 4.100000e-01    3.310000e+00
  SP5r   SP1  1 4.100000e-01    3.070000e+00
  SP4r   SP1  1 4.100000e-01    3.070000e+00
  SP3r   SP1  1 4.100000e-01    3.070000e+00
  SP2r   SP1  1 4.100000e-01    3.070000e+00
   SP1  SP1r  1 4.100000e-01    3.070000e+00
   SP1 SX1er  1 4.100000e-01    2.040000e+00
   SP1 SX2er  1 4.100000e-01    2.200000e+00
   SP1 SX3er  1 4.100000e-01    2.350000e+00
   SP1 SX4er  1 4.100000e-01    2.350000e+00
   SP1 SC1er  1 4.100000e-01    1.750000e+00
   SP1 SC2er  1 4.100000e-01    1.910000e+00
   SP1 SC3er  1 4.100000e-01    1.910000e+00
   SP1 SC4er  1 4.100000e-01    2.040000e+00
   SP1 SC5er  1 4.100000e-01    2.200000e+00
   SP1 SC6er  1 4.100000e-01    2.350000e+00
   SP1 SX1vr  1 4.100000e-01    2.040000e+00
   SP1 SX2vr  1 4.100000e-01    2.200000e+00
   SP1 SX3vr  1 4.100000e-01    2.350000e+00
   SP1 SX4vr  1 4.100000e-01    2.350000e+00
   SP1 SC1vr  1 4.100000e-01    1.750000e+00
   SP1 SC2vr  1 4.100000e-01    1.910000e+00
   SP1 SC3vr  1 4.100000e-01    1.910000e+00
   SP1 SC4vr  1 4.100000e-01    2.040000e+00
   SP1 SC5vr  1 4.100000e-01    2.200000e+00
   SP1 SC6vr  1 4.100000e-01    2.350000e+00
   SP1 SN1ar  1 4.100000e-01    2.350000e+00
   SP1 SN2ar  1 4.100000e-01    2.350000e+00
   SP1 SN3ar  1 4.100000e-01    2.350000e+00
   SP1 SN4ar  1 4.100000e-01    2.840000e+00
   SP1 SN5ar  1 4.100000e-01    2.840000e+00
   SP1 SN6ar  1 4.100000e-01    3.070000e+00
   SP1 SP1ar  1 4.100000e-01    3.070000e+00
 SP2ar   SP1  1 4.100000e-01    3.070000e+00
 SP3ar   SP1  1 4.100000e-01    3.070000e+00
 SP4ar   SP1  1 4.100000e-01    3.070000e+00
 SP5ar   SP1  1 4.100000e-01    3.070000e+00
 SP6ar   SP1  1 4.100000e-01    3.310000e+00
   SP1 SN1dr  1 4.100000e-01    2.350000e+00
   SP1 SN2dr  1 4.100000e-01    2.350000e+00
   SP1 SN3dr  1 4.100000e-01    2.350000e+00
   SP1 SN4dr  1 4.100000e-01    2.840000e+00
   SP1 SN5dr  1 4.100000e-01    2.840000e+00
   SP1 SN6dr  1 4.100000e-01    3.070000e+00
   SP1 SP1dr  1 4.100000e-01    3.070000e+00
 SP2dr   SP1  1 4.100000e-01    3.070000e+00
 SP3dr   SP1  1 4.100000e-01    3.070000e+00
 SP4dr   SP1  1 4.100000e-01    3.070000e+00
 SP5dr   SP1  1 4.100000e-01    3.070000e+00
 SP6dr   SP1  1 4.100000e-01    3.310000e+00
   SP1  SX1r  1 4.100000e-01    1.910000e+00
   SP1  SX2r  1 4.100000e-01    2.040000e+00
   SP1  SX3r  1 4.100000e-01    2.200000e+00
   SP1  SX4r  1 4.100000e-01    2.200000e+00
   SP1  SC1r  1 4.140000e-01    1.560000e+00
   SP1  SC2r  1 4.100000e-01    1.750000e+00
   SP1  SC3r  1 4.100000e-01    1.750000e+00
   SP1  SC4r  1 4.100000e-01    1.910000e+00
   SP1  SC5r  1 4.100000e-01    2.040000e+00
   SP1  SC6r  1 4.100000e-01    2.200000e+00
   SP1  SN1r  1 4.100000e-01    2.350000e+00
   SP1  SN2r  1 4.100000e-01    2.350000e+00
   SP1  SN3r  1 4.100000e-01    2.350000e+00
   SP1  SN4r  1 4.100000e-01    2.840000e+00
   SP1  SN5r  1 4.100000e-01    2.840000e+00
   SP1  SN6r  1 4.100000e-01    3.070000e+00
   SP1   TP1  1 3.650000e-01    2.570000e+00
   SP1   TN6  1 3.650000e-01    2.570000e+00
   SP1   TN5  1 3.650000e-01    2.340000e+00
   SP1   TN4  1 3.650000e-01    2.340000e+00
   SP1   TN3  1 3.650000e-01    1.910000e+00
   SP1   TN2  1 3.650000e-01    1.910000e+00
   SP1   TN1  1 3.650000e-01    1.910000e+00
   SP1   TC6  1 3.650000e-01    1.750000e+00
   SP1   TC5  1 3.660000e-01    1.600000e+00
   SP1   TC4  1 3.780000e-01    1.450000e+00
   SP1   TC3  1 3.940000e-01    1.290000e+00
   SP1   TC2  1 3.940000e-01    1.290000e+00
   SP1   TC1  1 4.040000e-01    1.130000e+00
   SP1   TX4  1 3.650000e-01    1.750000e+00
   SP1   TX3  1 3.650000e-01    1.750000e+00
   SP1   TX2  1 3.660000e-01    1.600000e+00
   SP1   TX1  1 3.780000e-01    1.450000e+00
   SP1  TP1d  1 3.650000e-01    2.570000e+00
   SP1  TN1d  1 3.650000e-01    1.910000e+00
   SP1  TN2d  1 3.650000e-01    1.910000e+00
   SP1  TN3d  1 3.650000e-01    1.910000e+00
   SP1  TN4d  1 3.650000e-01    2.340000e+00
   SP1  TN5d  1 3.650000e-01    2.340000e+00
   SP1  TN6d  1 3.650000e-01    2.570000e+00
   SP1  TP1a  1 3.650000e-01    2.570000e+00
   SP1  TN1a  1 3.650000e-01    1.910000e+00
   SP1  TN2a  1 3.650000e-01    1.910000e+00
   SP1  TN3a  1 3.650000e-01    1.910000e+00
   SP1  TN4a  1 3.650000e-01    2.340000e+00
   SP1  TN5a  1 3.650000e-01    2.340000e+00
   SP1  TN6a  1 3.650000e-01    2.570000e+00
   SP1  TC6v  1 3.650000e-01    1.910000e+00
   SP1  TC5v  1 3.650000e-01    1.750000e+00
   SP1  TC4v  1 3.660000e-01    1.600000e+00
   SP1  TC3v  1 3.780000e-01    1.450000e+00
   SP1  TC2v  1 3.780000e-01    1.450000e+00
   SP1  TC1v  1 3.940000e-01    1.290000e+00
   SP1  TX4v  1 3.650000e-01    1.910000e+00
   SP1  TX3v  1 3.650000e-01    1.910000e+00
   SP1  TX2v  1 3.650000e-01    1.750000e+00
   SP1  TX1v  1 3.660000e-01    1.600000e+00
   SP1  TC6e  1 3.650000e-01    1.910000e+00
   SP1  TC5e  1 3.650000e-01    1.750000e+00
   SP1  TC4e  1 3.660000e-01    1.600000e+00
   SP1  TC3e  1 3.780000e-01    1.450000e+00
   SP1  TC2e  1 3.780000e-01    1.450000e+00
   SP1  TC1e  1 3.940000e-01    1.290000e+00
   SP1  TX4e  1 3.650000e-01    1.910000e+00
   SP1  TX3e  1 3.650000e-01    1.910000e+00
   SP1  TX2e  1 3.650000e-01    1.750000e+00
   SP1  TX1e  1 3.660000e-01    1.600000e+00
   SP1  TP1q  1 3.650000e-01    3.100000e+00
   SP1 TX1eq  1 3.650000e-01    1.910000e+00
   SP1 TX2eq  1 3.650000e-01    2.110000e+00
   SP1 TX3eq  1 3.650000e-01    2.340000e+00
   SP1 TX4eq  1 3.650000e-01    2.340000e+00
   SP1 TC1eq  1 3.660000e-01    1.600000e+00
   SP1 TC2eq  1 3.650000e-01    1.750000e+00
   SP1 TC3eq  1 3.650000e-01    1.750000e+00
   SP1 TC4eq  1 3.650000e-01    1.910000e+00
   SP1 TC5eq  1 3.650000e-01    2.110000e+00
   SP1 TC6eq  1 3.650000e-01    2.340000e+00
   SP1 TX1vq  1 3.650000e-01    1.910000e+00
   SP1 TX2vq  1 3.650000e-01    2.110000e+00
   SP1 TX3vq  1 3.650000e-01    2.340000e+00
   SP1 TX4vq  1 3.650000e-01    2.340000e+00
   SP1 TC1vq  1 3.660000e-01    1.600000e+00
   SP1 TC2vq  1 3.650000e-01    1.750000e+00
   SP1 TC3vq  1 3.650000e-01    1.750000e+00
   SP1 TC4vq  1 3.650000e-01    1.910000e+00
   SP1 TC5vq  1 3.650000e-01    2.110000e+00
   SP1 TC6vq  1 3.650000e-01    2.340000e+00
   SP1 TN1aq  1 3.650000e-01    2.340000e+00
   SP1 TN2aq  1 3.650000e-01    2.340000e+00
   SP1 TN3aq  1 3.650000e-01    2.340000e+00
   SP1 TN4aq  1 3.650000e-01    2.830000e+00
   SP1 TN5aq  1 3.650000e-01    2.830000e+00
   SP1 TN6aq  1 3.650000e-01    3.100000e+00
   SP1 TP1aq  1 3.650000e-01    3.100000e+00
   SP1 TN1dq  1 3.650000e-01    2.340000e+00
   SP1 TN2dq  1 3.650000e-01    2.340000e+00
   SP1 TN3dq  1 3.650000e-01    2.340000e+00
   SP1 TN4dq  1 3.650000e-01    2.830000e+00
   SP1 TN5dq  1 3.650000e-01    2.830000e+00
   SP1 TN6dq  1 3.650000e-01    3.100000e+00
   SP1 TP1dq  1 3.650000e-01    3.100000e+00
   SP1  TX1q  1 3.650000e-01    1.750000e+00
   SP1  TX2q  1 3.650000e-01    1.910000e+00
   SP1  TX3q  1 3.650000e-01    2.110000e+00
   SP1  TX4q  1 3.650000e-01    2.110000e+00
   SP1  TC1q  1 3.780000e-01    1.450000e+00
   SP1  TC2q  1 3.660000e-01    1.600000e+00
   SP1  TC3q  1 3.660000e-01    1.600000e+00
   SP1  TC4q  1 3.650000e-01    1.750000e+00
   SP1  TC5q  1 3.650000e-01    1.910000e+00
   SP1  TC6q  1 3.650000e-01    2.110000e+00
   SP1  TN1q  1 3.650000e-01    2.340000e+00
   SP1  TN2q  1 3.650000e-01    2.340000e+00
   SP1  TN3q  1 3.650000e-01    2.340000e+00
   SP1  TN4q  1 3.650000e-01    2.830000e+00
   SP1  TN5q  1 3.650000e-01    2.830000e+00
   SP1  TN6q  1 3.650000e-01    3.100000e+00
   SP1  TP1h  1 3.650000e-01    2.570000e+00
   SP1 TX1eh  1 3.660000e-01    1.600000e+00
   SP1 TX2eh  1 3.650000e-01    1.750000e+00
   SP1 TX3eh  1 3.650000e-01    1.910000e+00
   SP1 TX4eh  1 3.650000e-01    1.910000e+00
   SP1 TC1eh  1 3.940000e-01    1.290000e+00
   SP1 TC2eh  1 3.780000e-01    1.450000e+00
   SP1 TC3eh  1 3.780000e-01    1.450000e+00
   SP1 TC4eh  1 3.660000e-01    1.600000e+00
   SP1 TC5eh  1 3.650000e-01    1.750000e+00
   SP1 TC6eh  1 3.650000e-01    1.910000e+00
   SP1 TX1vh  1 3.660000e-01    1.600000e+00
   SP1 TX2vh  1 3.650000e-01    1.750000e+00
   SP1 TX3vh  1 3.650000e-01    1.910000e+00
   SP1 TX4vh  1 3.650000e-01    1.910000e+00
   SP1 TC1vh  1 3.940000e-01    1.290000e+00
   SP1 TC2vh  1 3.780000e-01    1.450000e+00
   SP1 TC3vh  1 3.780000e-01    1.450000e+00
   SP1 TC4vh  1 3.660000e-01    1.600000e+00
   SP1 TC5vh  1 3.650000e-01    1.750000e+00
   SP1 TC6vh  1 3.650000e-01    1.910000e+00
   SP1 TN1ah  1 3.650000e-01    1.910000e+00
   SP1 TN2ah  1 3.650000e-01    1.910000e+00
   SP1 TN3ah  1 3.650000e-01    1.910000e+00
   SP1 TN4ah  1 3.650000e-01    2.340000e+00
   SP1 TN5ah  1 3.650000e-01    2.340000e+00
   SP1 TN6ah  1 3.650000e-01    2.570000e+00
   SP1 TP1ah  1 3.650000e-01    2.570000e+00
   SP1 TN1dh  1 3.650000e-01    1.910000e+00
   SP1 TN2dh  1 3.650000e-01    1.910000e+00
   SP1 TN3dh  1 3.650000e-01    1.910000e+00
   SP1 TN4dh  1 3.650000e-01    2.340000e+00
   SP1 TN5dh  1 3.650000e-01    2.340000e+00
   SP1 TN6dh  1 3.650000e-01    2.570000e+00
   SP1 TP1dh  1 3.650000e-01    2.570000e+00
   SP1  TX1h  1 3.780000e-01    1.450000e+00
   SP1  TX2h  1 3.660000e-01    1.600000e+00
   SP1  TX3h  1 3.650000e-01    1.750000e+00
   SP1  TX4h  1 3.650000e-01    1.750000e+00
   SP1  TC1h  1 4.040000e-01    1.130000e+00
   SP1  TC2h  1 3.940000e-01    1.290000e+00
   SP1  TC3h  1 3.940000e-01    1.290000e+00
   SP1  TC4h  1 3.780000e-01    1.450000e+00
   SP1  TC5h  1 3.660000e-01    1.600000e+00
   SP1  TC6h  1 3.650000e-01    1.750000e+00
   SP1  TN1h  1 3.650000e-01    1.910000e+00
   SP1  TN2h  1 3.650000e-01    1.910000e+00
   SP1  TN3h  1 3.650000e-01    1.910000e+00
   SP1  TN4h  1 3.650000e-01    2.340000e+00
   SP1  TN5h  1 3.650000e-01    2.340000e+00
   SP1  TN6h  1 3.650000e-01    2.570000e+00
   SP1  TP1r  1 3.650000e-01    2.570000e+00
   SP1 TX1er  1 3.660000e-01    1.600000e+00
   SP1 TX2er  1 3.650000e-01    1.750000e+00
   SP1 TX3er  1 3.650000e-01    1.910000e+00
   SP1 TX4er  1 3.650000e-01    1.910000e+00
   SP1 TC1er  1 3.940000e-01    1.290000e+00
   SP1 TC2er  1 3.780000e-01    1.450000e+00
   SP1 TC3er  1 3.780000e-01    1.450000e+00
   SP1 TC4er  1 3.660000e-01    1.600000e+00
   SP1 TC5er  1 3.650000e-01    1.750000e+00
   SP1 TC6er  1 3.650000e-01    1.910000e+00
   SP1 TX1vr  1 3.660000e-01    1.600000e+00
   SP1 TX2vr  1 3.650000e-01    1.750000e+00
   SP1 TX3vr  1 3.650000e-01    1.910000e+00
   SP1 TX4vr  1 3.650000e-01    1.910000e+00
   SP1 TC1vr  1 3.940000e-01    1.290000e+00
   SP1 TC2vr  1 3.780000e-01    1.450000e+00
   SP1 TC3vr  1 3.780000e-01    1.450000e+00
   SP1 TC4vr  1 3.660000e-01    1.600000e+00
   SP1 TC5vr  1 3.650000e-01    1.750000e+00
   SP1 TC6vr  1 3.650000e-01    1.910000e+00
   SP1 TN1ar  1 3.650000e-01    1.910000e+00
   SP1 TN2ar  1 3.650000e-01    1.910000e+00
   SP1 TN3ar  1 3.650000e-01    1.910000e+00
   SP1 TN4ar  1 3.650000e-01    2.340000e+00
   SP1 TN5ar  1 3.650000e-01    2.340000e+00
   SP1 TN6ar  1 3.650000e-01    2.570000e+00
   SP1 TP1ar  1 3.650000e-01    2.570000e+00
   SP1 TN1dr  1 3.650000e-01    1.910000e+00
   SP1 TN2dr  1 3.650000e-01    1.910000e+00
   SP1 TN3dr  1 3.650000e-01    1.910000e+00
   SP1 TN4dr  1 3.650000e-01    2.340000e+00
   SP1 TN5dr  1 3.650000e-01    2.340000e+00
   SP1 TN6dr  1 3.650000e-01    2.570000e+00
   SP1 TP1dr  1 3.650000e-01    2.570000e+00
   SP1  TX1r  1 3.780000e-01    1.450000e+00
   SP1  TX2r  1 3.660000e-01    1.600000e+00
   SP1  TX3r  1 3.650000e-01    1.750000e+00
   SP1  TX4r  1 3.650000e-01    1.750000e+00
   SP1  TC1r  1 4.040000e-01    1.130000e+00
   SP1  TC2r  1 3.940000e-01    1.290000e+00
   SP1  TC3r  1 3.940000e-01    1.290000e+00
   SP1  TC4r  1 3.780000e-01    1.450000e+00
   SP1  TC5r  1 3.660000e-01    1.600000e+00
   SP1  TC6r  1 3.650000e-01    1.750000e+00
   SP1  TN1r  1 3.650000e-01    1.910000e+00
   SP1  TN2r  1 3.650000e-01    1.910000e+00
   SP1  TN3r  1 3.650000e-01    1.910000e+00
   SP1  TN4r  1 3.650000e-01    2.340000e+00
   SP1  TN5r  1 3.650000e-01    2.340000e+00
   SP1  TN6r  1 3.650000e-01    2.570000e+00
  TP6d   SP1  1 3.650000e-01    2.830000e+00
  TP5d   SP1  1 3.650000e-01    2.570000e+00
  TP4d   SP1  1 3.650000e-01    2.570000e+00
  TP3d   SP1  1 3.650000e-01    2.570000e+00
  TP2d   SP1  1 3.650000e-01    2.570000e+00
  TP6a   SP1  1 3.650000e-01    2.830000e+00
  TP5a   SP1  1 3.650000e-01    2.570000e+00
  TP4a   SP1  1 3.650000e-01    2.570000e+00
  TP3a   SP1  1 3.650000e-01    2.570000e+00
  TP2a   SP1  1 3.650000e-01    2.570000e+00
  TP6q   SP1  1 3.650000e-01    3.370000e+00
  TP5q   SP1  1 3.650000e-01    3.100000e+00
  TP4q   SP1  1 3.650000e-01    3.100000e+00
  TP3q   SP1  1 3.650000e-01    3.100000e+00
  TP2q   SP1  1 3.650000e-01    3.100000e+00
 TP2aq   SP1  1 3.650000e-01    3.100000e+00
 TP3aq   SP1  1 3.650000e-01    3.100000e+00
 TP4aq   SP1  1 3.650000e-01    3.100000e+00
 TP5aq   SP1  1 3.650000e-01    3.100000e+00
 TP6aq   SP1  1 3.650000e-01    3.370000e+00
 TP2dq   SP1  1 3.650000e-01    3.100000e+00
 TP3dq   SP1  1 3.650000e-01    3.100000e+00
 TP4dq   SP1  1 3.650000e-01    3.100000e+00
 TP5dq   SP1  1 3.650000e-01    3.100000e+00
 TP6dq   SP1  1 3.650000e-01    3.370000e+00
  TP6h   SP1  1 3.650000e-01    2.830000e+00
  TP5h   SP1  1 3.650000e-01    2.570000e+00
  TP4h   SP1  1 3.650000e-01    2.570000e+00
  TP3h   SP1  1 3.650000e-01    2.570000e+00
  TP2h   SP1  1 3.650000e-01    2.570000e+00
 TP2ah   SP1  1 3.650000e-01    2.570000e+00
 TP3ah   SP1  1 3.650000e-01    2.570000e+00
 TP4ah   SP1  1 3.650000e-01    2.570000e+00
 TP5ah   SP1  1 3.650000e-01    2.570000e+00
 TP6ah   SP1  1 3.650000e-01    2.830000e+00
 TP2dh   SP1  1 3.650000e-01    2.570000e+00
 TP3dh   SP1  1 3.650000e-01    2.570000e+00
 TP4dh   SP1  1 3.650000e-01    2.570000e+00
 TP5dh   SP1  1 3.650000e-01    2.570000e+00
 TP6dh   SP1  1 3.650000e-01    2.830000e+00
  TP6r   SP1  1 3.650000e-01    2.830000e+00
  TP5r   SP1  1 3.650000e-01    2.570000e+00
  TP4r   SP1  1 3.650000e-01    2.570000e+00
  TP3r   SP1  1 3.650000e-01    2.570000e+00
  TP2r   SP1  1 3.650000e-01    2.570000e+00
 TP2ar   SP1  1 3.650000e-01    2.570000e+00
 TP3ar   SP1  1 3.650000e-01    2.570000e+00
 TP4ar   SP1  1 3.650000e-01    2.570000e+00
 TP5ar   SP1  1 3.650000e-01    2.570000e+00
 TP6ar   SP1  1 3.650000e-01    2.830000e+00
 TP2dr   SP1  1 3.650000e-01    2.570000e+00
 TP3dr   SP1  1 3.650000e-01    2.570000e+00
 TP4dr   SP1  1 3.650000e-01    2.570000e+00
 TP5dr   SP1  1 3.650000e-01    2.570000e+00
 TP6dr   SP1  1 3.650000e-01    2.830000e+00
   P6d   TP1  1 3.950000e-01    3.190000e+00
   P5d   TP1  1 3.950000e-01    2.940000e+00
   P4d   TP1  1 3.950000e-01    2.940000e+00
   P3d   TP1  1 3.950000e-01    2.940000e+00
   P2d   TP1  1 3.950000e-01    2.940000e+00
   P6a   TP1  1 3.950000e-01    3.190000e+00
   P5a   TP1  1 3.950000e-01    2.940000e+00
   P4a   TP1  1 3.950000e-01    2.940000e+00
   P3a   TP1  1 3.950000e-01    2.940000e+00
   P2a   TP1  1 3.950000e-01    2.940000e+00
   P6q   TP1  1 3.950000e-01    3.670000e+00
   P5q   TP1  1 3.950000e-01    3.430000e+00
   P4q   TP1  1 3.950000e-01    3.430000e+00
   P3q   TP1  1 3.950000e-01    3.430000e+00
   P2q   TP1  1 3.950000e-01    3.430000e+00
  P2aq   TP1  1 3.950000e-01    3.430000e+00
  P3aq   TP1  1 3.950000e-01    3.430000e+00
  P4aq   TP1  1 3.950000e-01    3.430000e+00
  P5aq   TP1  1 3.950000e-01    3.430000e+00
  P6aq   TP1  1 3.950000e-01    3.670000e+00
  P2dq   TP1  1 3.950000e-01    3.430000e+00
  P3dq   TP1  1 3.950000e-01    3.430000e+00
  P4dq   TP1  1 3.950000e-01    3.430000e+00
  P5dq   TP1  1 3.950000e-01    3.430000e+00
  P6dq   TP1  1 3.950000e-01    3.670000e+00
   P6h   TP1  1 3.950000e-01    3.190000e+00
   P5h   TP1  1 3.950000e-01    2.940000e+00
   P4h   TP1  1 3.950000e-01    2.940000e+00
   P3h   TP1  1 3.950000e-01    2.940000e+00
   P2h   TP1  1 3.950000e-01    2.940000e+00
  P2ah   TP1  1 3.950000e-01    2.940000e+00
  P3ah   TP1  1 3.950000e-01    2.940000e+00
  P4ah   TP1  1 3.950000e-01    2.940000e+00
  P5ah   TP1  1 3.950000e-01    2.940000e+00
  P6ah   TP1  1 3.950000e-01    3.190000e+00
  P2dh   TP1  1 3.950000e-01    2.940000e+00
  P3dh   TP1  1 3.950000e-01    2.940000e+00
  P4dh   TP1  1 3.950000e-01    2.940000e+00
  P5dh   TP1  1 3.950000e-01    2.940000e+00
  P6dh   TP1  1 3.950000e-01    3.190000e+00
   P6r   TP1  1 3.950000e-01    3.190000e+00
   P5r   TP1  1 3.950000e-01    2.940000e+00
   P4r   TP1  1 3.950000e-01    2.940000e+00
   P3r   TP1  1 3.950000e-01    2.940000e+00
   P2r   TP1  1 3.950000e-01    2.940000e+00
  P2ar   TP1  1 3.950000e-01    2.940000e+00
  P3ar   TP1  1 3.950000e-01    2.940000e+00
  P4ar   TP1  1 3.950000e-01    2.940000e+00
  P5ar   TP1  1 3.950000e-01    2.940000e+00
  P6ar   TP1  1 3.950000e-01    3.190000e+00
  P2dr   TP1  1 3.950000e-01    2.940000e+00
  P3dr   TP1  1 3.950000e-01    2.940000e+00
  P4dr   TP1  1 3.950000e-01    2.940000e+00
  P5dr   TP1  1 3.950000e-01    2.940000e+00
  P6dr   TP1  1 3.950000e-01    3.190000e+00
   TP1    N6  1 3.950000e-01    2.940000e+00
   TP1    N5  1 3.950000e-01    2.700000e+00
   TP1    N4  1 3.950000e-01    2.700000e+00
   TP1    N3  1 3.950000e-01    2.310000e+00
   TP1    N2  1 3.950000e-01    2.310000e+00
   TP1    N1  1 3.950000e-01    2.310000e+00
   TP1    C6  1 3.950000e-01    2.110000e+00
   TP1    C5  1 3.950000e-01    1.850000e+00
   TP1    C4  1 3.950000e-01    1.670000e+00
   TP1    C3  1 3.980000e-01    1.450000e+00
   TP1    C2  1 3.980000e-01    1.450000e+00
   TP1    C1  1 3.990000e-01    1.180000e+00
   TP1    X4  1 3.950000e-01    2.110000e+00
   TP1    X3  1 3.950000e-01    2.110000e+00
   TP1    X2  1 3.950000e-01    1.850000e+00
   TP1    X1  1 3.950000e-01    1.670000e+00
   TP1   P1d  1 3.950000e-01    2.940000e+00
   TP1   N1d  1 3.950000e-01    2.310000e+00
   TP1   N2d  1 3.950000e-01    2.310000e+00
   TP1   N3d  1 3.950000e-01    2.310000e+00
   TP1   N4d  1 3.950000e-01    2.700000e+00
   TP1   N5d  1 3.950000e-01    2.700000e+00
   TP1   N6d  1 3.950000e-01    2.940000e+00
   TP1   P1a  1 3.950000e-01    2.940000e+00
   TP1   N1a  1 3.950000e-01    2.310000e+00
   TP1   N2a  1 3.950000e-01    2.310000e+00
   TP1   N3a  1 3.950000e-01    2.310000e+00
   TP1   N4a  1 3.950000e-01    2.700000e+00
   TP1   N5a  1 3.950000e-01    2.700000e+00
   TP1   N6a  1 3.950000e-01    2.940000e+00
   TP1   C6v  1 3.950000e-01    2.310000e+00
   TP1   C5v  1 3.950000e-01    2.110000e+00
   TP1   C4v  1 3.950000e-01    1.850000e+00
   TP1   C3v  1 3.950000e-01    1.670000e+00
   TP1   C2v  1 3.950000e-01    1.670000e+00
   TP1   C1v  1 3.980000e-01    1.450000e+00
   TP1   X4v  1 3.950000e-01    2.310000e+00
   TP1   X3v  1 3.950000e-01    2.310000e+00
   TP1   X2v  1 3.950000e-01    2.110000e+00
   TP1   X1v  1 3.950000e-01    1.850000e+00
   TP1   C6e  1 3.950000e-01    2.310000e+00
   TP1   C5e  1 3.950000e-01    2.110000e+00
   TP1   C4e  1 3.950000e-01    1.850000e+00
   TP1   C3e  1 3.950000e-01    1.670000e+00
   TP1   C2e  1 3.950000e-01    1.670000e+00
   TP1   C1e  1 3.980000e-01    1.450000e+00
   TP1   X4e  1 3.950000e-01    2.310000e+00
   TP1   X3e  1 3.950000e-01    2.310000e+00
   TP1   X2e  1 3.950000e-01    2.110000e+00
   TP1   X1e  1 3.950000e-01    1.850000e+00
   TP1   P1q  1 3.950000e-01    3.430000e+00
   TP1  X1eq  1 3.950000e-01    2.310000e+00
   TP1  X2eq  1 3.950000e-01    2.500000e+00
   TP1  X3eq  1 3.950000e-01    2.700000e+00
   TP1  X4eq  1 3.950000e-01    2.700000e+00
   TP1  C1eq  1 3.950000e-01    1.850000e+00
   TP1  C2eq  1 3.950000e-01    2.110000e+00
   TP1  C3eq  1 3.950000e-01    2.110000e+00
   TP1  C4eq  1 3.950000e-01    2.310000e+00
   TP1  C5eq  1 3.950000e-01    2.500000e+00
   TP1  C6eq  1 3.950000e-01    2.700000e+00
   TP1  X1vq  1 3.950000e-01    2.310000e+00
   TP1  X2vq  1 3.950000e-01    2.500000e+00
   TP1  X3vq  1 3.950000e-01    2.700000e+00
   TP1  X4vq  1 3.950000e-01    2.700000e+00
   TP1  C1vq  1 3.950000e-01    1.850000e+00
   TP1  C2vq  1 3.950000e-01    2.110000e+00
   TP1  C3vq  1 3.950000e-01    2.110000e+00
   TP1  C4vq  1 3.950000e-01    2.310000e+00
   TP1  C5vq  1 3.950000e-01    2.500000e+00
   TP1  C6vq  1 3.950000e-01    2.700000e+00
   TP1  N1aq  1 3.950000e-01    2.700000e+00
   TP1  N2aq  1 3.950000e-01    2.700000e+00
   TP1  N3aq  1 3.950000e-01    2.700000e+00
   TP1  N4aq  1 3.950000e-01    3.190000e+00
   TP1  N5aq  1 3.950000e-01    3.190000e+00
   TP1  N6aq  1 3.950000e-01    3.430000e+00
   TP1  P1aq  1 3.950000e-01    3.430000e+00
   TP1  N1dq  1 3.950000e-01    2.700000e+00
   TP1  N2dq  1 3.950000e-01    2.700000e+00
   TP1  N3dq  1 3.950000e-01    2.700000e+00
   TP1  N4dq  1 3.950000e-01    3.190000e+00
   TP1  N5dq  1 3.950000e-01    3.190000e+00
   TP1  N6dq  1 3.950000e-01    3.430000e+00
   TP1  P1dq  1 3.950000e-01    3.430000e+00
   TP1   X1q  1 3.950000e-01    2.110000e+00
   TP1   X2q  1 3.950000e-01    2.310000e+00
   TP1   X3q  1 3.950000e-01    2.500000e+00
   TP1   X4q  1 3.950000e-01    2.500000e+00
   TP1   C1q  1 3.950000e-01    1.670000e+00
   TP1   C2q  1 3.950000e-01    1.850000e+00
   TP1   C3q  1 3.950000e-01    1.850000e+00
   TP1   C4q  1 3.950000e-01    2.110000e+00
   TP1   C5q  1 3.950000e-01    2.310000e+00
   TP1   C6q  1 3.950000e-01    2.500000e+00
   TP1   N1q  1 3.950000e-01    2.700000e+00
   TP1   N2q  1 3.950000e-01    2.700000e+00
   TP1   N3q  1 3.950000e-01    2.700000e+00
   TP1   N4q  1 3.950000e-01    3.190000e+00
   TP1   N5q  1 3.950000e-01    3.190000e+00
   TP1   N6q  1 3.950000e-01    3.430000e+00
   TP1   P1h  1 3.950000e-01    2.940000e+00
   TP1  X1eh  1 3.950000e-01    1.850000e+00
   TP1  X2eh  1 3.950000e-01    2.110000e+00
   TP1  X3eh  1 3.950000e-01    2.310000e+00
   TP1  X4eh  1 3.950000e-01    2.310000e+00
   TP1  C1eh  1 3.980000e-01    1.450000e+00
   TP1  C2eh  1 3.950000e-01    1.670000e+00
   TP1  C3eh  1 3.950000e-01    1.670000e+00
   TP1  C4eh  1 3.950000e-01    1.850000e+00
   TP1  C5eh  1 3.950000e-01    2.110000e+00
   TP1  C6eh  1 3.950000e-01    2.310000e+00
   TP1  X1vh  1 3.950000e-01    1.850000e+00
   TP1  X2vh  1 3.950000e-01    2.110000e+00
   TP1  X3vh  1 3.950000e-01    2.310000e+00
   TP1  X4vh  1 3.950000e-01    2.310000e+00
   TP1  C1vh  1 3.980000e-01    1.450000e+00
   TP1  C2vh  1 3.950000e-01    1.670000e+00
   TP1  C3vh  1 3.950000e-01    1.670000e+00
   TP1  C4vh  1 3.950000e-01    1.850000e+00
   TP1  C5vh  1 3.950000e-01    2.110000e+00
   TP1  C6vh  1 3.950000e-01    2.310000e+00
   TP1  N1ah  1 3.950000e-01    2.310000e+00
   TP1  N2ah  1 3.950000e-01    2.310000e+00
   TP1  N3ah  1 3.950000e-01    2.310000e+00
   TP1  N4ah  1 3.950000e-01    2.700000e+00
   TP1  N5ah  1 3.950000e-01    2.700000e+00
   TP1  N6ah  1 3.950000e-01    2.940000e+00
   TP1  P1ah  1 3.950000e-01    2.940000e+00
   TP1  N1dh  1 3.950000e-01    2.310000e+00
   TP1  N2dh  1 3.950000e-01    2.310000e+00
   TP1  N3dh  1 3.950000e-01    2.310000e+00
   TP1  N4dh  1 3.950000e-01    2.700000e+00
   TP1  N5dh  1 3.950000e-01    2.700000e+00
   TP1  N6dh  1 3.950000e-01    2.940000e+00
   TP1  P1dh  1 3.950000e-01    2.940000e+00
   TP1   X1h  1 3.950000e-01    1.670000e+00
   TP1   X2h  1 3.950000e-01    1.850000e+00
   TP1   X3h  1 3.950000e-01    2.110000e+00
   TP1   X4h  1 3.950000e-01    2.110000e+00
   TP1   C1h  1 3.990000e-01    1.180000e+00
   TP1   C2h  1 3.980000e-01    1.450000e+00
   TP1   C3h  1 3.980000e-01    1.450000e+00
   TP1   C4h  1 3.950000e-01    1.670000e+00
   TP1   C5h  1 3.950000e-01    1.850000e+00
   TP1   C6h  1 3.950000e-01    2.110000e+00
   TP1   N1h  1 3.950000e-01    2.310000e+00
   TP1   N2h  1 3.950000e-01    2.310000e+00
   TP1   N3h  1 3.950000e-01    2.310000e+00
   TP1   N4h  1 3.950000e-01    2.700000e+00
   TP1   N5h  1 3.950000e-01    2.700000e+00
   TP1   N6h  1 3.950000e-01    2.940000e+00
   TP1   P1r  1 3.950000e-01    2.940000e+00
   TP1  X1er  1 3.950000e-01    1.850000e+00
   TP1  X2er  1 3.950000e-01    2.110000e+00
   TP1  X3er  1 3.950000e-01    2.310000e+00
   TP1  X4er  1 3.950000e-01    2.310000e+00
   TP1  C1er  1 3.980000e-01    1.450000e+00
   TP1  C2er  1 3.950000e-01    1.670000e+00
   TP1  C3er  1 3.950000e-01    1.670000e+00
   TP1  C4er  1 3.950000e-01    1.850000e+00
   TP1  C5er  1 3.950000e-01    2.110000e+00
   TP1  C6er  1 3.950000e-01    2.310000e+00
   TP1  X1vr  1 3.950000e-01    1.850000e+00
   TP1  X2vr  1 3.950000e-01    2.110000e+00
   TP1  X3vr  1 3.950000e-01    2.310000e+00
   TP1  X4vr  1 3.950000e-01    2.310000e+00
   TP1  C1vr  1 3.980000e-01    1.450000e+00
   TP1  C2vr  1 3.950000e-01    1.670000e+00
   TP1  C3vr  1 3.950000e-01    1.670000e+00
   TP1  C4vr  1 3.950000e-01    1.850000e+00
   TP1  C5vr  1 3.950000e-01    2.110000e+00
   TP1  C6vr  1 3.950000e-01    2.310000e+00
   TP1  N1ar  1 3.950000e-01    2.310000e+00
   TP1  N2ar  1 3.950000e-01    2.310000e+00
   TP1  N3ar  1 3.950000e-01    2.310000e+00
   TP1  N4ar  1 3.950000e-01    2.700000e+00
   TP1  N5ar  1 3.950000e-01    2.700000e+00
   TP1  N6ar  1 3.950000e-01    2.940000e+00
   TP1  P1ar  1 3.950000e-01    2.940000e+00
   TP1  N1dr  1 3.950000e-01    2.310000e+00
   TP1  N2dr  1 3.950000e-01    2.310000e+00
   TP1  N3dr  1 3.950000e-01    2.310000e+00
   TP1  N4dr  1 3.950000e-01    2.700000e+00
   TP1  N5dr  1 3.950000e-01    2.700000e+00
   TP1  N6dr  1 3.950000e-01    2.940000e+00
   TP1  P1dr  1 3.950000e-01    2.940000e+00
   TP1   X1r  1 3.950000e-01    1.670000e+00
   TP1   X2r  1 3.950000e-01    1.850000e+00
   TP1   X3r  1 3.950000e-01    2.110000e+00
   TP1   X4r  1 3.950000e-01    2.110000e+00
   TP1   C1r  1 3.990000e-01    1.180000e+00
   TP1   C2r  1 3.980000e-01    1.450000e+00
   TP1   C3r  1 3.980000e-01    1.450000e+00
   TP1   C4r  1 3.950000e-01    1.670000e+00
   TP1   C5r  1 3.950000e-01    1.850000e+00
   TP1   C6r  1 3.950000e-01    2.110000e+00
   TP1   N1r  1 3.950000e-01    2.310000e+00
   TP1   N2r  1 3.950000e-01    2.310000e+00
   TP1   N3r  1 3.950000e-01    2.310000e+00
   TP1   N4r  1 3.950000e-01    2.700000e+00
   TP1   N5r  1 3.950000e-01    2.700000e+00
   TP1   N6r  1 3.950000e-01    2.940000e+00
   TP1   TP1  1 3.400000e-01    2.280000e+00
   TP1   TN6  1 3.400000e-01    2.280000e+00
   TP1   TN5  1 3.400000e-01    2.020000e+00
   TP1   TN4  1 3.400000e-01    2.020000e+00
   TP1   TN3  1 3.400000e-01    1.510000e+00
   TP1   TN2  1 3.400000e-01    1.510000e+00
   TP1   TN1  1 3.400000e-01    1.510000e+00
   TP1   TC6  1 3.400000e-01    1.230000e+00
   TP1   TC5  1 3.520000e-01    1.050000e+00
   TP1   TC4  1 3.660000e-01    9.350000e-01
   TP1   TC3  1 3.850000e-01    8.550000e-01
   TP1   TC2  1 3.850000e-01    8.550000e-01
   TP1   TC1  1 4.110000e-01    8.010000e-01
   TP1   TX4  1 3.400000e-01    1.230000e+00
   TP1   TX3  1 3.400000e-01    1.230000e+00
   TP1   TX2  1 3.520000e-01    1.050000e+00
   TP1   TX1  1 3.660000e-01    9.350000e-01
  TP6d   TP1  1 3.400000e-01    2.500000e+00
  TP5d   TP1  1 3.400000e-01    2.280000e+00
  TP4d   TP1  1 3.400000e-01    2.280000e+00
  TP3d   TP1  1 3.400000e-01    2.280000e+00
  TP2d   TP1  1 3.400000e-01    2.280000e+00
   TP1  TP1d  1 3.400000e-01    2.280000e+00
   TP1  TN1d  1 3.400000e-01    1.510000e+00
   TP1  TN2d  1 3.400000e-01    1.510000e+00
   TP1  TN3d  1 3.400000e-01    1.510000e+00
   TP1  TN4d  1 3.400000e-01    2.020000e+00
   TP1  TN5d  1 3.400000e-01    2.020000e+00
   TP1  TN6d  1 3.400000e-01    2.280000e+00
  TP6a   TP1  1 3.400000e-01    2.500000e+00
  TP5a   TP1  1 3.400000e-01    2.280000e+00
  TP4a   TP1  1 3.400000e-01    2.280000e+00
  TP3a   TP1  1 3.400000e-01    2.280000e+00
  TP2a   TP1  1 3.400000e-01    2.280000e+00
   TP1  TP1a  1 3.400000e-01    2.280000e+00
   TP1  TN1a  1 3.400000e-01    1.510000e+00
   TP1  TN2a  1 3.400000e-01    1.510000e+00
   TP1  TN3a  1 3.400000e-01    1.510000e+00
   TP1  TN4a  1 3.400000e-01    2.020000e+00
   TP1  TN5a  1 3.400000e-01    2.020000e+00
   TP1  TN6a  1 3.400000e-01    2.280000e+00
   TP1  TC6v  1 3.400000e-01    1.510000e+00
   TP1  TC5v  1 3.400000e-01    1.230000e+00
   TP1  TC4v  1 3.520000e-01    1.050000e+00
   TP1  TC3v  1 3.660000e-01    9.350000e-01
   TP1  TC2v  1 3.660000e-01    9.350000e-01
   TP1  TC1v  1 3.850000e-01    8.550000e-01
   TP1  TX4v  1 3.400000e-01    1.510000e+00
   TP1  TX3v  1 3.400000e-01    1.510000e+00
   TP1  TX2v  1 3.400000e-01    1.230000e+00
   TP1  TX1v  1 3.520000e-01    1.050000e+00
   TP1  TC6e  1 3.400000e-01    1.510000e+00
   TP1  TC5e  1 3.400000e-01    1.230000e+00
   TP1  TC4e  1 3.520000e-01    1.050000e+00
   TP1  TC3e  1 3.660000e-01    9.350000e-01
   TP1  TC2e  1 3.660000e-01    9.350000e-01
   TP1  TC1e  1 3.850000e-01    8.550000e-01
   TP1  TX4e  1 3.400000e-01    1.510000e+00
   TP1  TX3e  1 3.400000e-01    1.510000e+00
   TP1  TX2e  1 3.400000e-01    1.230000e+00
   TP1  TX1e  1 3.520000e-01    1.050000e+00
  TP6q   TP1  1 3.400000e-01    2.990000e+00
  TP5q   TP1  1 3.400000e-01    2.740000e+00
  TP4q   TP1  1 3.400000e-01    2.740000e+00
  TP3q   TP1  1 3.400000e-01    2.740000e+00
  TP2q   TP1  1 3.400000e-01    2.740000e+00
   TP1  TP1q  1 3.400000e-01    2.740000e+00
   TP1 TX1eq  1 3.400000e-01    1.510000e+00
   TP1 TX2eq  1 3.400000e-01    1.770000e+00
   TP1 TX3eq  1 3.400000e-01    2.020000e+00
   TP1 TX4eq  1 3.400000e-01    2.020000e+00
   TP1 TC1eq  1 3.520000e-01    1.050000e+00
   TP1 TC2eq  1 3.400000e-01    1.230000e+00
   TP1 TC3eq  1 3.400000e-01    1.230000e+00
   TP1 TC4eq  1 3.400000e-01    1.510000e+00
   TP1 TC5eq  1 3.400000e-01    1.770000e+00
   TP1 TC6eq  1 3.400000e-01    2.020000e+00
   TP1 TX1vq  1 3.400000e-01    1.510000e+00
   TP1 TX2vq  1 3.400000e-01    1.770000e+00
   TP1 TX3vq  1 3.400000e-01    2.020000e+00
   TP1 TX4vq  1 3.400000e-01    2.020000e+00
   TP1 TC1vq  1 3.520000e-01    1.050000e+00
   TP1 TC2vq  1 3.400000e-01    1.230000e+00
   TP1 TC3vq  1 3.400000e-01    1.230000e+00
   TP1 TC4vq  1 3.400000e-01    1.510000e+00
   TP1 TC5vq  1 3.400000e-01    1.770000e+00
   TP1 TC6vq  1 3.400000e-01    2.020000e+00
   TP1 TN1aq  1 3.400000e-01    2.020000e+00
   TP1 TN2aq  1 3.400000e-01    2.020000e+00
   TP1 TN3aq  1 3.400000e-01    2.020000e+00
   TP1 TN4aq  1 3.400000e-01    2.500000e+00
   TP1 TN5aq  1 3.400000e-01    2.500000e+00
   TP1 TN6aq  1 3.400000e-01    2.740000e+00
   TP1 TP1aq  1 3.400000e-01    2.740000e+00
 TP2aq   TP1  1 3.400000e-01    2.740000e+00
 TP3aq   TP1  1 3.400000e-01    2.740000e+00
 TP4aq   TP1  1 3.400000e-01    2.740000e+00
 TP5aq   TP1  1 3.400000e-01    2.740000e+00
 TP6aq   TP1  1 3.400000e-01    2.990000e+00
   TP1 TN1dq  1 3.400000e-01    2.020000e+00
   TP1 TN2dq  1 3.400000e-01    2.020000e+00
   TP1 TN3dq  1 3.400000e-01    2.020000e+00
   TP1 TN4dq  1 3.400000e-01    2.500000e+00
   TP1 TN5dq  1 3.400000e-01    2.500000e+00
   TP1 TN6dq  1 3.400000e-01    2.740000e+00
   TP1 TP1dq  1 3.400000e-01    2.740000e+00
 TP2dq   TP1  1 3.400000e-01    2.740000e+00
 TP3dq   TP1  1 3.400000e-01    2.740000e+00
 TP4dq   TP1  1 3.400000e-01    2.740000e+00
 TP5dq   TP1  1 3.400000e-01    2.740000e+00
 TP6dq   TP1  1 3.400000e-01    2.990000e+00
   TP1  TX1q  1 3.400000e-01    1.230000e+00
   TP1  TX2q  1 3.400000e-01    1.510000e+00
   TP1  TX3q  1 3.400000e-01    1.770000e+00
   TP1  TX4q  1 3.400000e-01    1.770000e+00
   TP1  TC1q  1 3.660000e-01    9.350000e-01
   TP1  TC2q  1 3.520000e-01    1.050000e+00
   TP1  TC3q  1 3.520000e-01    1.050000e+00
   TP1  TC4q  1 3.400000e-01    1.230000e+00
   TP1  TC5q  1 3.400000e-01    1.510000e+00
   TP1  TC6q  1 3.400000e-01    1.770000e+00
   TP1  TN1q  1 3.400000e-01    2.020000e+00
   TP1  TN2q  1 3.400000e-01    2.020000e+00
   TP1  TN3q  1 3.400000e-01    2.020000e+00
   TP1  TN4q  1 3.400000e-01    2.500000e+00
   TP1  TN5q  1 3.400000e-01    2.500000e+00
   TP1  TN6q  1 3.400000e-01    2.740000e+00
  TP6h   TP1  1 3.400000e-01    2.500000e+00
  TP5h   TP1  1 3.400000e-01    2.280000e+00
  TP4h   TP1  1 3.400000e-01    2.280000e+00
  TP3h   TP1  1 3.400000e-01    2.280000e+00
  TP2h   TP1  1 3.400000e-01    2.280000e+00
   TP1  TP1h  1 3.400000e-01    2.280000e+00
   TP1 TX1eh  1 3.520000e-01    1.050000e+00
   TP1 TX2eh  1 3.400000e-01    1.230000e+00
   TP1 TX3eh  1 3.400000e-01    1.510000e+00
   TP1 TX4eh  1 3.400000e-01    1.510000e+00
   TP1 TC1eh  1 3.850000e-01    8.550000e-01
   TP1 TC2eh  1 3.660000e-01    9.350000e-01
   TP1 TC3eh  1 3.660000e-01    9.350000e-01
   TP1 TC4eh  1 3.520000e-01    1.050000e+00
   TP1 TC5eh  1 3.400000e-01    1.230000e+00
   TP1 TC6eh  1 3.400000e-01    1.510000e+00
   TP1 TX1vh  1 3.520000e-01    1.050000e+00
   TP1 TX2vh  1 3.400000e-01    1.230000e+00
   TP1 TX3vh  1 3.400000e-01    1.510000e+00
   TP1 TX4vh  1 3.400000e-01    1.510000e+00
   TP1 TC1vh  1 3.850000e-01    8.550000e-01
   TP1 TC2vh  1 3.660000e-01    9.350000e-01
   TP1 TC3vh  1 3.660000e-01    9.350000e-01
   TP1 TC4vh  1 3.520000e-01    1.050000e+00
   TP1 TC5vh  1 3.400000e-01    1.230000e+00
   TP1 TC6vh  1 3.400000e-01    1.510000e+00
   TP1 TN1ah  1 3.400000e-01    1.510000e+00
   TP1 TN2ah  1 3.400000e-01    1.510000e+00
   TP1 TN3ah  1 3.400000e-01    1.510000e+00
   TP1 TN4ah  1 3.400000e-01    2.020000e+00
   TP1 TN5ah  1 3.400000e-01    2.020000e+00
   TP1 TN6ah  1 3.400000e-01    2.280000e+00
   TP1 TP1ah  1 3.400000e-01    2.280000e+00
 TP2ah   TP1  1 3.400000e-01    2.280000e+00
 TP3ah   TP1  1 3.400000e-01    2.280000e+00
 TP4ah   TP1  1 3.400000e-01    2.280000e+00
 TP5ah   TP1  1 3.400000e-01    2.280000e+00
 TP6ah   TP1  1 3.400000e-01    2.500000e+00
   TP1 TN1dh  1 3.400000e-01    1.510000e+00
   TP1 TN2dh  1 3.400000e-01    1.510000e+00
   TP1 TN3dh  1 3.400000e-01    1.510000e+00
   TP1 TN4dh  1 3.400000e-01    2.020000e+00
   TP1 TN5dh  1 3.400000e-01    2.020000e+00
   TP1 TN6dh  1 3.400000e-01    2.280000e+00
   TP1 TP1dh  1 3.400000e-01    2.280000e+00
 TP2dh   TP1  1 3.400000e-01    2.280000e+00
 TP3dh   TP1  1 3.400000e-01    2.280000e+00
 TP4dh   TP1  1 3.400000e-01    2.280000e+00
 TP5dh   TP1  1 3.400000e-01    2.280000e+00
 TP6dh   TP1  1 3.400000e-01    2.500000e+00
   TP1  TX1h  1 3.660000e-01    9.350000e-01
   TP1  TX2h  1 3.520000e-01    1.050000e+00
   TP1  TX3h  1 3.400000e-01    1.230000e+00
   TP1  TX4h  1 3.400000e-01    1.230000e+00
   TP1  TC1h  1 4.110000e-01    8.010000e-01
   TP1  TC2h  1 3.850000e-01    8.550000e-01
   TP1  TC3h  1 3.850000e-01    8.550000e-01
   TP1  TC4h  1 3.660000e-01    9.350000e-01
   TP1  TC5h  1 3.520000e-01    1.050000e+00
   TP1  TC6h  1 3.400000e-01    1.230000e+00
   TP1  TN1h  1 3.400000e-01    1.510000e+00
   TP1  TN2h  1 3.400000e-01    1.510000e+00
   TP1  TN3h  1 3.400000e-01    1.510000e+00
   TP1  TN4h  1 3.400000e-01    2.020000e+00
   TP1  TN5h  1 3.400000e-01    2.020000e+00
   TP1  TN6h  1 3.400000e-01    2.280000e+00
  TP6r   TP1  1 3.400000e-01    2.500000e+00
  TP5r   TP1  1 3.400000e-01    2.280000e+00
  TP4r   TP1  1 3.400000e-01    2.280000e+00
  TP3r   TP1  1 3.400000e-01    2.280000e+00
  TP2r   TP1  1 3.400000e-01    2.280000e+00
   TP1  TP1r  1 3.400000e-01    2.280000e+00
   TP1 TX1er  1 3.520000e-01    1.050000e+00
   TP1 TX2er  1 3.400000e-01    1.230000e+00
   TP1 TX3er  1 3.400000e-01    1.510000e+00
   TP1 TX4er  1 3.400000e-01    1.510000e+00
   TP1 TC1er  1 3.850000e-01    8.550000e-01
   TP1 TC2er  1 3.660000e-01    9.350000e-01
   TP1 TC3er  1 3.660000e-01    9.350000e-01
   TP1 TC4er  1 3.520000e-01    1.050000e+00
   TP1 TC5er  1 3.400000e-01    1.230000e+00
   TP1 TC6er  1 3.400000e-01    1.510000e+00
   TP1 TX1vr  1 3.520000e-01    1.050000e+00
   TP1 TX2vr  1 3.400000e-01    1.230000e+00
   TP1 TX3vr  1 3.400000e-01    1.510000e+00
   TP1 TX4vr  1 3.400000e-01    1.510000e+00
   TP1 TC1vr  1 3.850000e-01    8.550000e-01
   TP1 TC2vr  1 3.660000e-01    9.350000e-01
   TP1 TC3vr  1 3.660000e-01    9.350000e-01
   TP1 TC4vr  1 3.520000e-01    1.050000e+00
   TP1 TC5vr  1 3.400000e-01    1.230000e+00
   TP1 TC6vr  1 3.400000e-01    1.510000e+00
   TP1 TN1ar  1 3.400000e-01    1.510000e+00
   TP1 TN2ar  1 3.400000e-01    1.510000e+00
   TP1 TN3ar  1 3.400000e-01    1.510000e+00
   TP1 TN4ar  1 3.400000e-01    2.020000e+00
   TP1 TN5ar  1 3.400000e-01    2.020000e+00
   TP1 TN6ar  1 3.400000e-01    2.280000e+00
   TP1 TP1ar  1 3.400000e-01    2.280000e+00
 TP2ar   TP1  1 3.400000e-01    2.280000e+00
 TP3ar   TP1  1 3.400000e-01    2.280000e+00
 TP4ar   TP1  1 3.400000e-01    2.280000e+00
 TP5ar   TP1  1 3.400000e-01    2.280000e+00
 TP6ar   TP1  1 3.400000e-01    2.500000e+00
   TP1 TN1dr  1 3.400000e-01    1.510000e+00
   TP1 TN2dr  1 3.400000e-01    1.510000e+00
   TP1 TN3dr  1 3.400000e-01    1.510000e+00
   TP1 TN4dr  1 3.400000e-01    2.020000e+00
   TP1 TN5dr  1 3.400000e-01    2.020000e+00
   TP1 TN6dr  1 3.400000e-01    2.280000e+00
   TP1 TP1dr  1 3.400000e-01    2.280000e+00
 TP2dr   TP1  1 3.400000e-01    2.280000e+00
 TP3dr   TP1  1 3.400000e-01    2.280000e+00
 TP4dr   TP1  1 3.400000e-01    2.280000e+00
 TP5dr   TP1  1 3.400000e-01    2.280000e+00
 TP6dr   TP1  1 3.400000e-01    2.500000e+00
   TP1  TX1r  1 3.660000e-01    9.350000e-01
   TP1  TX2r  1 3.520000e-01    1.050000e+00
   TP1  TX3r  1 3.400000e-01    1.230000e+00
   TP1  TX4r  1 3.400000e-01    1.230000e+00
   TP1  TC1r  1 4.110000e-01    8.010000e-01
   TP1  TC2r  1 3.850000e-01    8.550000e-01
   TP1  TC3r  1 3.850000e-01    8.550000e-01
   TP1  TC4r  1 3.660000e-01    9.350000e-01
   TP1  TC5r  1 3.520000e-01    1.050000e+00
   TP1  TC6r  1 3.400000e-01    1.230000e+00
   TP1  TN1r  1 3.400000e-01    1.510000e+00
   TP1  TN2r  1 3.400000e-01    1.510000e+00
   TP1  TN3r  1 3.400000e-01    1.510000e+00
   TP1  TN4r  1 3.400000e-01    2.020000e+00
   TP1  TN5r  1 3.400000e-01    2.020000e+00
   TP1  TN6r  1 3.400000e-01    2.280000e+00
  SP6d   TP1  1 3.650000e-01    2.830000e+00
  SP5d   TP1  1 3.650000e-01    2.570000e+00
  SP4d   TP1  1 3.650000e-01    2.570000e+00
  SP3d   TP1  1 3.650000e-01    2.570000e+00
  SP2d   TP1  1 3.650000e-01    2.570000e+00
  SP6a   TP1  1 3.650000e-01    2.830000e+00
  SP5a   TP1  1 3.650000e-01    2.570000e+00
  SP4a   TP1  1 3.650000e-01    2.570000e+00
  SP3a   TP1  1 3.650000e-01    2.570000e+00
  SP2a   TP1  1 3.650000e-01    2.570000e+00
  SP6q   TP1  1 3.650000e-01    3.370000e+00
  SP5q   TP1  1 3.650000e-01    3.100000e+00
  SP4q   TP1  1 3.650000e-01    3.100000e+00
  SP3q   TP1  1 3.650000e-01    3.100000e+00
  SP2q   TP1  1 3.650000e-01    3.100000e+00
 SP2aq   TP1  1 3.650000e-01    3.100000e+00
 SP3aq   TP1  1 3.650000e-01    3.100000e+00
 SP4aq   TP1  1 3.650000e-01    3.100000e+00
 SP5aq   TP1  1 3.650000e-01    3.100000e+00
 SP6aq   TP1  1 3.650000e-01    3.370000e+00
 SP2dq   TP1  1 3.650000e-01    3.100000e+00
 SP3dq   TP1  1 3.650000e-01    3.100000e+00
 SP4dq   TP1  1 3.650000e-01    3.100000e+00
 SP5dq   TP1  1 3.650000e-01    3.100000e+00
 SP6dq   TP1  1 3.650000e-01    3.370000e+00
  SP6h   TP1  1 3.650000e-01    2.830000e+00
  SP5h   TP1  1 3.650000e-01    2.570000e+00
  SP4h   TP1  1 3.650000e-01    2.570000e+00
  SP3h   TP1  1 3.650000e-01    2.570000e+00
  SP2h   TP1  1 3.650000e-01    2.570000e+00
 SP2ah   TP1  1 3.650000e-01    2.570000e+00
 SP3ah   TP1  1 3.650000e-01    2.570000e+00
 SP4ah   TP1  1 3.650000e-01    2.570000e+00
 SP5ah   TP1  1 3.650000e-01    2.570000e+00
 SP6ah   TP1  1 3.650000e-01    2.830000e+00
 SP2dh   TP1  1 3.650000e-01    2.570000e+00
 SP3dh   TP1  1 3.650000e-01    2.570000e+00
 SP4dh   TP1  1 3.650000e-01    2.570000e+00
 SP5dh   TP1  1 3.650000e-01    2.570000e+00
 SP6dh   TP1  1 3.650000e-01    2.830000e+00
  SP6r   TP1  1 3.650000e-01    2.830000e+00
  SP5r   TP1  1 3.650000e-01    2.570000e+00
  SP4r   TP1  1 3.650000e-01    2.570000e+00
  SP3r   TP1  1 3.650000e-01    2.570000e+00
  SP2r   TP1  1 3.650000e-01    2.570000e+00
 SP2ar   TP1  1 3.650000e-01    2.570000e+00
 SP3ar   TP1  1 3.650000e-01    2.570000e+00
 SP4ar   TP1  1 3.650000e-01    2.570000e+00
 SP5ar   TP1  1 3.650000e-01    2.570000e+00
 SP6ar   TP1  1 3.650000e-01    2.830000e+00
 SP2dr   TP1  1 3.650000e-01    2.570000e+00
 SP3dr   TP1  1 3.650000e-01    2.570000e+00
 SP4dr   TP1  1 3.650000e-01    2.570000e+00
 SP5dr   TP1  1 3.650000e-01    2.570000e+00
 SP6dr   TP1  1 3.650000e-01    2.830000e+00
   TP1   SN6  1 3.650000e-01    2.570000e+00
   TP1   SN5  1 3.650000e-01    2.340000e+00
   TP1   SN4  1 3.650000e-01    2.340000e+00
   TP1   SN3  1 3.650000e-01    1.910000e+00
   TP1   SN2  1 3.650000e-01    1.910000e+00
   TP1   SN1  1 3.650000e-01    1.910000e+00
   TP1   SC6  1 3.650000e-01    1.750000e+00
   TP1   SC5  1 3.660000e-01    1.600000e+00
   TP1   SC4  1 3.780000e-01    1.450000e+00
   TP1   SC3  1 3.940000e-01    1.290000e+00
   TP1   SC2  1 3.940000e-01    1.290000e+00
   TP1   SC1  1 4.040000e-01    1.130000e+00
   TP1   SX4  1 3.650000e-01    1.750000e+00
   TP1   SX3  1 3.650000e-01    1.750000e+00
   TP1   SX2  1 3.660000e-01    1.600000e+00
   TP1   SX1  1 3.780000e-01    1.450000e+00
   TP1  SP1d  1 3.650000e-01    2.570000e+00
   TP1  SN1d  1 3.650000e-01    1.910000e+00
   TP1  SN2d  1 3.650000e-01    1.910000e+00
   TP1  SN3d  1 3.650000e-01    1.910000e+00
   TP1  SN4d  1 3.650000e-01    2.340000e+00
   TP1  SN5d  1 3.650000e-01    2.340000e+00
   TP1  SN6d  1 3.650000e-01    2.570000e+00
   TP1  SP1a  1 3.650000e-01    2.570000e+00
   TP1  SN1a  1 3.650000e-01    1.910000e+00
   TP1  SN2a  1 3.650000e-01    1.910000e+00
   TP1  SN3a  1 3.650000e-01    1.910000e+00
   TP1  SN4a  1 3.650000e-01    2.340000e+00
   TP1  SN5a  1 3.650000e-01    2.340000e+00
   TP1  SN6a  1 3.650000e-01    2.570000e+00
   TP1  SC6v  1 3.650000e-01    1.910000e+00
   TP1  SC5v  1 3.650000e-01    1.750000e+00
   TP1  SC4v  1 3.660000e-01    1.600000e+00
   TP1  SC3v  1 3.780000e-01    1.450000e+00
   TP1  SC2v  1 3.780000e-01    1.450000e+00
   TP1  SC1v  1 3.940000e-01    1.290000e+00
   TP1  SX4v  1 3.650000e-01    1.910000e+00
   TP1  SX3v  1 3.650000e-01    1.910000e+00
   TP1  SX2v  1 3.650000e-01    1.750000e+00
   TP1  SX1v  1 3.660000e-01    1.600000e+00
   TP1  SC6e  1 3.650000e-01    1.910000e+00
   TP1  SC5e  1 3.650000e-01    1.750000e+00
   TP1  SC4e  1 3.660000e-01    1.600000e+00
   TP1  SC3e  1 3.780000e-01    1.450000e+00
   TP1  SC2e  1 3.780000e-01    1.450000e+00
   TP1  SC1e  1 3.940000e-01    1.290000e+00
   TP1  SX4e  1 3.650000e-01    1.910000e+00
   TP1  SX3e  1 3.650000e-01    1.910000e+00
   TP1  SX2e  1 3.650000e-01    1.750000e+00
   TP1  SX1e  1 3.660000e-01    1.600000e+00
   TP1  SP1q  1 3.650000e-01    3.100000e+00
   TP1 SX1eq  1 3.650000e-01    1.910000e+00
   TP1 SX2eq  1 3.650000e-01    2.110000e+00
   TP1 SX3eq  1 3.650000e-01    2.340000e+00
   TP1 SX4eq  1 3.650000e-01    2.340000e+00
   TP1 SC1eq  1 3.660000e-01    1.600000e+00
   TP1 SC2eq  1 3.650000e-01    1.750000e+00
   TP1 SC3eq  1 3.650000e-01    1.750000e+00
   TP1 SC4eq  1 3.650000e-01    1.910000e+00
   TP1 SC5eq  1 3.650000e-01    2.110000e+00
   TP1 SC6eq  1 3.650000e-01    2.340000e+00
   TP1 SX1vq  1 3.650000e-01    1.910000e+00
   TP1 SX2vq  1 3.650000e-01    2.110000e+00
   TP1 SX3vq  1 3.650000e-01    2.340000e+00
   TP1 SX4vq  1 3.650000e-01    2.340000e+00
   TP1 SC1vq  1 3.660000e-01    1.600000e+00
   TP1 SC2vq  1 3.650000e-01    1.750000e+00
   TP1 SC3vq  1 3.650000e-01    1.750000e+00
   TP1 SC4vq  1 3.650000e-01    1.910000e+00
   TP1 SC5vq  1 3.650000e-01    2.110000e+00
   TP1 SC6vq  1 3.650000e-01    2.340000e+00
   TP1 SN1aq  1 3.650000e-01    2.340000e+00
   TP1 SN2aq  1 3.650000e-01    2.340000e+00
   TP1 SN3aq  1 3.650000e-01    2.340000e+00
   TP1 SN4aq  1 3.650000e-01    2.830000e+00
   TP1 SN5aq  1 3.650000e-01    2.830000e+00
   TP1 SN6aq  1 3.650000e-01    3.100000e+00
   TP1 SP1aq  1 3.650000e-01    3.100000e+00
   TP1 SN1dq  1 3.650000e-01    2.340000e+00
   TP1 SN2dq  1 3.650000e-01    2.340000e+00
   TP1 SN3dq  1 3.650000e-01    2.340000e+00
   TP1 SN4dq  1 3.650000e-01    2.830000e+00
   TP1 SN5dq  1 3.650000e-01    2.830000e+00
   TP1 SN6dq  1 3.650000e-01    3.100000e+00
   TP1 SP1dq  1 3.650000e-01    3.100000e+00
   TP1  SX1q  1 3.650000e-01    1.750000e+00
   TP1  SX2q  1 3.650000e-01    1.910000e+00
   TP1  SX3q  1 3.650000e-01    2.110000e+00
   TP1  SX4q  1 3.650000e-01    2.110000e+00
   TP1  SC1q  1 3.780000e-01    1.450000e+00
   TP1  SC2q  1 3.660000e-01    1.600000e+00
   TP1  SC3q  1 3.660000e-01    1.600000e+00
   TP1  SC4q  1 3.650000e-01    1.750000e+00
   TP1  SC5q  1 3.650000e-01    1.910000e+00
   TP1  SC6q  1 3.650000e-01    2.110000e+00
   TP1  SN1q  1 3.650000e-01    2.340000e+00
   TP1  SN2q  1 3.650000e-01    2.340000e+00
   TP1  SN3q  1 3.650000e-01    2.340000e+00
   TP1  SN4q  1 3.650000e-01    2.830000e+00
   TP1  SN5q  1 3.650000e-01    2.830000e+00
   TP1  SN6q  1 3.650000e-01    3.100000e+00
   TP1  SP1h  1 3.650000e-01    2.570000e+00
   TP1 SX1eh  1 3.660000e-01    1.600000e+00
   TP1 SX2eh  1 3.650000e-01    1.750000e+00
   TP1 SX3eh  1 3.650000e-01    1.910000e+00
   TP1 SX4eh  1 3.650000e-01    1.910000e+00
   TP1 SC1eh  1 3.940000e-01    1.290000e+00
   TP1 SC2eh  1 3.780000e-01    1.450000e+00
   TP1 SC3eh  1 3.780000e-01    1.450000e+00
   TP1 SC4eh  1 3.660000e-01    1.600000e+00
   TP1 SC5eh  1 3.650000e-01    1.750000e+00
   TP1 SC6eh  1 3.650000e-01    1.910000e+00
   TP1 SX1vh  1 3.660000e-01    1.600000e+00
   TP1 SX2vh  1 3.650000e-01    1.750000e+00
   TP1 SX3vh  1 3.650000e-01    1.910000e+00
   TP1 SX4vh  1 3.650000e-01    1.910000e+00
   TP1 SC1vh  1 3.940000e-01    1.290000e+00
   TP1 SC2vh  1 3.780000e-01    1.450000e+00
   TP1 SC3vh  1 3.780000e-01    1.450000e+00
   TP1 SC4vh  1 3.660000e-01    1.600000e+00
   TP1 SC5vh  1 3.650000e-01    1.750000e+00
   TP1 SC6vh  1 3.650000e-01    1.910000e+00
   TP1 SN1ah  1 3.650000e-01    1.910000e+00
   TP1 SN2ah  1 3.650000e-01    1.910000e+00
   TP1 SN3ah  1 3.650000e-01    1.910000e+00
   TP1 SN4ah  1 3.650000e-01    2.340000e+00
   TP1 SN5ah  1 3.650000e-01    2.340000e+00
   TP1 SN6ah  1 3.650000e-01    2.570000e+00
   TP1 SP1ah  1 3.650000e-01    2.570000e+00
   TP1 SN1dh  1 3.650000e-01    1.910000e+00
   TP1 SN2dh  1 3.650000e-01    1.910000e+00
   TP1 SN3dh  1 3.650000e-01    1.910000e+00
   TP1 SN4dh  1 3.650000e-01    2.340000e+00
   TP1 SN5dh  1 3.650000e-01    2.340000e+00
   TP1 SN6dh  1 3.650000e-01    2.570000e+00
   TP1 SP1dh  1 3.650000e-01    2.570000e+00
   TP1  SX1h  1 3.780000e-01    1.450000e+00
   TP1  SX2h  1 3.660000e-01    1.600000e+00
   TP1  SX3h  1 3.650000e-01    1.750000e+00
   TP1  SX4h  1 3.650000e-01    1.750000e+00
   TP1  SC1h  1 4.040000e-01    1.130000e+00
   TP1  SC2h  1 3.940000e-01    1.290000e+00
   TP1  SC3h  1 3.940000e-01    1.290000e+00
   TP1  SC4h  1 3.780000e-01    1.450000e+00
   TP1  SC5h  1 3.660000e-01    1.600000e+00
   TP1  SC6h  1 3.650000e-01    1.750000e+00
   TP1  SN1h  1 3.650000e-01    1.910000e+00
   TP1  SN2h  1 3.650000e-01    1.910000e+00
   TP1  SN3h  1 3.650000e-01    1.910000e+00
   TP1  SN4h  1 3.650000e-01    2.340000e+00
   TP1  SN5h  1 3.650000e-01    2.340000e+00
   TP1  SN6h  1 3.650000e-01    2.570000e+00
   TP1  SP1r  1 3.650000e-01    2.570000e+00
   TP1 SX1er  1 3.660000e-01    1.600000e+00
   TP1 SX2er  1 3.650000e-01    1.750000e+00
   TP1 SX3er  1 3.650000e-01    1.910000e+00
   TP1 SX4er  1 3.650000e-01    1.910000e+00
   TP1 SC1er  1 3.940000e-01    1.290000e+00
   TP1 SC2er  1 3.780000e-01    1.450000e+00
   TP1 SC3er  1 3.780000e-01    1.450000e+00
   TP1 SC4er  1 3.660000e-01    1.600000e+00
   TP1 SC5er  1 3.650000e-01    1.750000e+00
   TP1 SC6er  1 3.650000e-01    1.910000e+00
   TP1 SX1vr  1 3.660000e-01    1.600000e+00
   TP1 SX2vr  1 3.650000e-01    1.750000e+00
   TP1 SX3vr  1 3.650000e-01    1.910000e+00
   TP1 SX4vr  1 3.650000e-01    1.910000e+00
   TP1 SC1vr  1 3.940000e-01    1.290000e+00
   TP1 SC2vr  1 3.780000e-01    1.450000e+00
   TP1 SC3vr  1 3.780000e-01    1.450000e+00
   TP1 SC4vr  1 3.660000e-01    1.600000e+00
   TP1 SC5vr  1 3.650000e-01    1.750000e+00
   TP1 SC6vr  1 3.650000e-01    1.910000e+00
   TP1 SN1ar  1 3.650000e-01    1.910000e+00
   TP1 SN2ar  1 3.650000e-01    1.910000e+00
   TP1 SN3ar  1 3.650000e-01    1.910000e+00
   TP1 SN4ar  1 3.650000e-01    2.340000e+00
   TP1 SN5ar  1 3.650000e-01    2.340000e+00
   TP1 SN6ar  1 3.650000e-01    2.570000e+00
   TP1 SP1ar  1 3.650000e-01    2.570000e+00
   TP1 SN1dr  1 3.650000e-01    1.910000e+00
   TP1 SN2dr  1 3.650000e-01    1.910000e+00
   TP1 SN3dr  1 3.650000e-01    1.910000e+00
   TP1 SN4dr  1 3.650000e-01    2.340000e+00
   TP1 SN5dr  1 3.650000e-01    2.340000e+00
   TP1 SN6dr  1 3.650000e-01    2.570000e+00
   TP1 SP1dr  1 3.650000e-01    2.570000e+00
   TP1  SX1r  1 3.780000e-01    1.450000e+00
   TP1  SX2r  1 3.660000e-01    1.600000e+00
   TP1  SX3r  1 3.650000e-01    1.750000e+00
   TP1  SX4r  1 3.650000e-01    1.750000e+00
   TP1  SC1r  1 4.040000e-01    1.130000e+00
   TP1  SC2r  1 3.940000e-01    1.290000e+00
   TP1  SC3r  1 3.940000e-01    1.290000e+00
   TP1  SC4r  1 3.780000e-01    1.450000e+00
   TP1  SC5r  1 3.660000e-01    1.600000e+00
   TP1  SC6r  1 3.650000e-01    1.750000e+00
   TP1  SN1r  1 3.650000e-01    1.910000e+00
   TP1  SN2r  1 3.650000e-01    1.910000e+00
   TP1  SN3r  1 3.650000e-01    1.910000e+00
   TP1  SN4r  1 3.650000e-01    2.340000e+00
   TP1  SN5r  1 3.650000e-01    2.340000e+00
   TP1  SN6r  1 3.650000e-01    2.570000e+00
    N6    N6  1 4.700000e-01    3.880000e+00
    N6    N5  1 4.700000e-01    3.880000e+00
    N6    N4  1 4.700000e-01    3.880000e+00
    N6    N3  1 4.700000e-01    3.520000e+00
    N6    N2  1 4.700000e-01    3.390000e+00
    N6    N1  1 4.700000e-01    3.390000e+00
    N6    C6  1 4.700000e-01    3.390000e+00
    N6    C5  1 4.700000e-01    3.240000e+00
    N6    C4  1 4.700000e-01    3.070000e+00
    N6    C3  1 4.700000e-01    2.960000e+00
    N6    C2  1 4.700000e-01    2.960000e+00
    N6    C1  1 4.700000e-01    2.790000e+00
    N6    X4  1 4.700000e-01    3.390000e+00
    N6    X3  1 4.700000e-01    3.240000e+00
    N6    X2  1 4.700000e-01    3.070000e+00
    N6    X1  1 4.700000e-01    2.960000e+00
   P6d    N6  1 4.700000e-01    3.880000e+00
   P5d    N6  1 4.700000e-01    3.690000e+00
   P4d    N6  1 4.700000e-01    3.690000e+00
   P3d    N6  1 4.700000e-01    3.690000e+00
   P2d    N6  1 4.700000e-01    3.880000e+00
   P1d    N6  1 4.700000e-01    3.880000e+00
    N6   N6d  1 4.700000e-01    3.880000e+00
    N6   N1d  1 4.700000e-01    3.390000e+00
    N6   N2d  1 4.700000e-01    3.390000e+00
    N6   N3d  1 4.700000e-01    3.520000e+00
    N6   N4d  1 4.700000e-01    3.880000e+00
    N6   N5d  1 4.700000e-01    3.880000e+00
   P6a    N6  1 4.700000e-01    3.880000e+00
   P5a    N6  1 4.700000e-01    3.690000e+00
   P4a    N6  1 4.700000e-01    3.690000e+00
   P3a    N6  1 4.700000e-01    3.690000e+00
   P2a    N6  1 4.700000e-01    3.880000e+00
   P1a    N6  1 4.700000e-01    3.880000e+00
    N6   N6a  1 4.700000e-01    3.880000e+00
    N6   N1a  1 4.700000e-01    3.390000e+00
    N6   N2a  1 4.700000e-01    3.390000e+00
    N6   N3a  1 4.700000e-01    3.520000e+00
    N6   N4a  1 4.700000e-01    3.880000e+00
    N6   N5a  1 4.700000e-01    3.880000e+00
    N6   C6v  1 4.700000e-01    3.520000e+00
    N6   C5v  1 4.700000e-01    3.390000e+00
    N6   C4v  1 4.700000e-01    3.240000e+00
    N6   C3v  1 4.700000e-01    3.070000e+00
    N6   C2v  1 4.700000e-01    3.070000e+00
    N6   C1v  1 4.700000e-01    2.960000e+00
    N6   X4v  1 4.700000e-01    3.520000e+00
    N6   X3v  1 4.700000e-01    3.390000e+00
    N6   X2v  1 4.700000e-01    3.240000e+00
    N6   X1v  1 4.700000e-01    3.070000e+00
    N6   C6e  1 4.700000e-01    3.520000e+00
    N6   C5e  1 4.700000e-01    3.390000e+00
    N6   C4e  1 4.700000e-01    3.240000e+00
    N6   C3e  1 4.700000e-01    3.070000e+00
    N6   C2e  1 4.700000e-01    3.070000e+00
    N6   C1e  1 4.700000e-01    2.960000e+00
    N6   X4e  1 4.700000e-01    3.520000e+00
    N6   X3e  1 4.700000e-01    3.390000e+00
    N6   X2e  1 4.700000e-01    3.240000e+00
    N6   X1e  1 4.700000e-01    3.070000e+00
   P6q    N6  1 4.700000e-01    4.250000e+00
   P5q    N6  1 4.700000e-01    4.060000e+00
   P4q    N6  1 4.700000e-01    4.060000e+00
   P3q    N6  1 4.700000e-01    4.060000e+00
   P2q    N6  1 4.700000e-01    4.250000e+00
   P1q    N6  1 4.700000e-01    4.250000e+00
    N6   N6q  1 4.700000e-01    4.250000e+00
    N6  X1eq  1 4.700000e-01    3.390000e+00
    N6  X2eq  1 4.700000e-01    3.520000e+00
    N6  X3eq  1 4.700000e-01    3.690000e+00
    N6  X4eq  1 4.700000e-01    3.880000e+00
    N6  C1eq  1 4.700000e-01    3.240000e+00
    N6  C2eq  1 4.700000e-01    3.390000e+00
    N6  C3eq  1 4.700000e-01    3.390000e+00
    N6  C4eq  1 4.700000e-01    3.520000e+00
    N6  C5eq  1 4.700000e-01    3.690000e+00
    N6  C6eq  1 4.700000e-01    3.880000e+00
    N6  X1vq  1 4.700000e-01    3.390000e+00
    N6  X2vq  1 4.700000e-01    3.520000e+00
    N6  X3vq  1 4.700000e-01    3.690000e+00
    N6  X4vq  1 4.700000e-01    3.880000e+00
    N6  C1vq  1 4.700000e-01    3.240000e+00
    N6  C2vq  1 4.700000e-01    3.390000e+00
    N6  C3vq  1 4.700000e-01    3.390000e+00
    N6  C4vq  1 4.700000e-01    3.520000e+00
    N6  C5vq  1 4.700000e-01    3.690000e+00
    N6  C6vq  1 4.700000e-01    3.880000e+00
    N6  N1aq  1 4.700000e-01    3.690000e+00
    N6  N2aq  1 4.700000e-01    3.690000e+00
    N6  N3aq  1 4.700000e-01    3.880000e+00
    N6  N4aq  1 4.700000e-01    4.250000e+00
    N6  N5aq  1 4.700000e-01    4.250000e+00
    N6  N6aq  1 4.700000e-01    4.250000e+00
  P1aq    N6  1 4.700000e-01    4.250000e+00
  P2aq    N6  1 4.700000e-01    4.250000e+00
  P3aq    N6  1 4.700000e-01    4.060000e+00
  P4aq    N6  1 4.700000e-01    4.060000e+00
  P5aq    N6  1 4.700000e-01    4.060000e+00
  P6aq    N6  1 4.700000e-01    4.250000e+00
    N6  N1dq  1 4.700000e-01    3.690000e+00
    N6  N2dq  1 4.700000e-01    3.690000e+00
    N6  N3dq  1 4.700000e-01    3.880000e+00
    N6  N4dq  1 4.700000e-01    4.250000e+00
    N6  N5dq  1 4.700000e-01    4.250000e+00
    N6  N6dq  1 4.700000e-01    4.250000e+00
  P1dq    N6  1 4.700000e-01    4.250000e+00
  P2dq    N6  1 4.700000e-01    4.250000e+00
  P3dq    N6  1 4.700000e-01    4.060000e+00
  P4dq    N6  1 4.700000e-01    4.060000e+00
  P5dq    N6  1 4.700000e-01    4.060000e+00
  P6dq    N6  1 4.700000e-01    4.250000e+00
    N6   X1q  1 4.700000e-01    3.240000e+00
    N6   X2q  1 4.700000e-01    3.390000e+00
    N6   X3q  1 4.700000e-01    3.520000e+00
    N6   X4q  1 4.700000e-01    3.690000e+00
    N6   C1q  1 4.700000e-01    3.070000e+00
    N6   C2q  1 4.700000e-01    3.240000e+00
    N6   C3q  1 4.700000e-01    3.240000e+00
    N6   C4q  1 4.700000e-01    3.390000e+00
    N6   C5q  1 4.700000e-01    3.520000e+00
    N6   C6q  1 4.700000e-01    3.690000e+00
    N6   N1q  1 4.700000e-01    3.690000e+00
    N6   N2q  1 4.700000e-01    3.690000e+00
    N6   N3q  1 4.700000e-01    3.880000e+00
    N6   N4q  1 4.700000e-01    4.250000e+00
    N6   N5q  1 4.700000e-01    4.250000e+00
   P6h    N6  1 4.700000e-01    3.880000e+00
   P5h    N6  1 4.700000e-01    3.690000e+00
   P4h    N6  1 4.700000e-01    3.690000e+00
   P3h    N6  1 4.700000e-01    3.690000e+00
   P2h    N6  1 4.700000e-01    3.880000e+00
   P1h    N6  1 4.700000e-01    3.880000e+00
    N6   N6h  1 4.700000e-01    3.880000e+00
    N6  X1eh  1 4.700000e-01    3.070000e+00
    N6  X2eh  1 4.700000e-01    3.240000e+00
    N6  X3eh  1 4.700000e-01    3.390000e+00
    N6  X4eh  1 4.700000e-01    3.520000e+00
    N6  C1eh  1 4.700000e-01    2.960000e+00
    N6  C2eh  1 4.700000e-01    3.070000e+00
    N6  C3eh  1 4.700000e-01    3.070000e+00
    N6  C4eh  1 4.700000e-01    3.240000e+00
    N6  C5eh  1 4.700000e-01    3.390000e+00
    N6  C6eh  1 4.700000e-01    3.520000e+00
    N6  X1vh  1 4.700000e-01    3.070000e+00
    N6  X2vh  1 4.700000e-01    3.240000e+00
    N6  X3vh  1 4.700000e-01    3.390000e+00
    N6  X4vh  1 4.700000e-01    3.520000e+00
    N6  C1vh  1 4.700000e-01    2.960000e+00
    N6  C2vh  1 4.700000e-01    3.070000e+00
    N6  C3vh  1 4.700000e-01    3.070000e+00
    N6  C4vh  1 4.700000e-01    3.240000e+00
    N6  C5vh  1 4.700000e-01    3.390000e+00
    N6  C6vh  1 4.700000e-01    3.520000e+00
    N6  N1ah  1 4.700000e-01    3.390000e+00
    N6  N2ah  1 4.700000e-01    3.390000e+00
    N6  N3ah  1 4.700000e-01    3.520000e+00
    N6  N4ah  1 4.700000e-01    3.880000e+00
    N6  N5ah  1 4.700000e-01    3.880000e+00
    N6  N6ah  1 4.700000e-01    3.880000e+00
  P1ah    N6  1 4.700000e-01    3.880000e+00
  P2ah    N6  1 4.700000e-01    3.880000e+00
  P3ah    N6  1 4.700000e-01    3.690000e+00
  P4ah    N6  1 4.700000e-01    3.690000e+00
  P5ah    N6  1 4.700000e-01    3.690000e+00
  P6ah    N6  1 4.700000e-01    3.880000e+00
    N6  N1dh  1 4.700000e-01    3.390000e+00
    N6  N2dh  1 4.700000e-01    3.390000e+00
    N6  N3dh  1 4.700000e-01    3.520000e+00
    N6  N4dh  1 4.700000e-01    3.880000e+00
    N6  N5dh  1 4.700000e-01    3.880000e+00
    N6  N6dh  1 4.700000e-01    3.880000e+00
  P1dh    N6  1 4.700000e-01    3.880000e+00
  P2dh    N6  1 4.700000e-01    3.880000e+00
  P3dh    N6  1 4.700000e-01    3.690000e+00
  P4dh    N6  1 4.700000e-01    3.690000e+00
  P5dh    N6  1 4.700000e-01    3.690000e+00
  P6dh    N6  1 4.700000e-01    3.880000e+00
    N6   X1h  1 4.700000e-01    2.960000e+00
    N6   X2h  1 4.700000e-01    3.070000e+00
    N6   X3h  1 4.700000e-01    3.240000e+00
    N6   X4h  1 4.700000e-01    3.390000e+00
    N6   C1h  1 4.700000e-01    2.790000e+00
    N6   C2h  1 4.700000e-01    2.960000e+00
    N6   C3h  1 4.700000e-01    2.960000e+00
    N6   C4h  1 4.700000e-01    3.070000e+00
    N6   C5h  1 4.700000e-01    3.240000e+00
    N6   C6h  1 4.700000e-01    3.390000e+00
    N6   N1h  1 4.700000e-01    3.390000e+00
    N6   N2h  1 4.700000e-01    3.390000e+00
    N6   N3h  1 4.700000e-01    3.520000e+00
    N6   N4h  1 4.700000e-01    3.880000e+00
    N6   N5h  1 4.700000e-01    3.880000e+00
   P6r    N6  1 4.700000e-01    3.880000e+00
   P5r    N6  1 4.700000e-01    3.690000e+00
   P4r    N6  1 4.700000e-01    3.690000e+00
   P3r    N6  1 4.700000e-01    3.690000e+00
   P2r    N6  1 4.700000e-01    3.880000e+00
   P1r    N6  1 4.700000e-01    3.880000e+00
    N6   N6r  1 4.700000e-01    3.880000e+00
    N6  X1er  1 4.700000e-01    3.070000e+00
    N6  X2er  1 4.700000e-01    3.240000e+00
    N6  X3er  1 4.700000e-01    3.390000e+00
    N6  X4er  1 4.700000e-01    3.520000e+00
    N6  C1er  1 4.700000e-01    2.960000e+00
    N6  C2er  1 4.700000e-01    3.070000e+00
    N6  C3er  1 4.700000e-01    3.070000e+00
    N6  C4er  1 4.700000e-01    3.240000e+00
    N6  C5er  1 4.700000e-01    3.390000e+00
    N6  C6er  1 4.700000e-01    3.520000e+00
    N6  X1vr  1 4.700000e-01    3.070000e+00
    N6  X2vr  1 4.700000e-01    3.240000e+00
    N6  X3vr  1 4.700000e-01    3.390000e+00
    N6  X4vr  1 4.700000e-01    3.520000e+00
    N6  C1vr  1 4.700000e-01    2.960000e+00
    N6  C2vr  1 4.700000e-01    3.070000e+00
    N6  C3vr  1 4.700000e-01    3.070000e+00
    N6  C4vr  1 4.700000e-01    3.240000e+00
    N6  C5vr  1 4.700000e-01    3.390000e+00
    N6  C6vr  1 4.700000e-01    3.520000e+00
    N6  N1ar  1 4.700000e-01    3.390000e+00
    N6  N2ar  1 4.700000e-01    3.390000e+00
    N6  N3ar  1 4.700000e-01    3.520000e+00
    N6  N4ar  1 4.700000e-01    3.880000e+00
    N6  N5ar  1 4.700000e-01    3.880000e+00
    N6  N6ar  1 4.700000e-01    3.880000e+00
  P1ar    N6  1 4.700000e-01    3.880000e+00
  P2ar    N6  1 4.700000e-01    3.880000e+00
  P3ar    N6  1 4.700000e-01    3.690000e+00
  P4ar    N6  1 4.700000e-01    3.690000e+00
  P5ar    N6  1 4.700000e-01    3.690000e+00
  P6ar    N6  1 4.700000e-01    3.880000e+00
    N6  N1dr  1 4.700000e-01    3.390000e+00
    N6  N2dr  1 4.700000e-01    3.390000e+00
    N6  N3dr  1 4.700000e-01    3.520000e+00
    N6  N4dr  1 4.700000e-01    3.880000e+00
    N6  N5dr  1 4.700000e-01    3.880000e+00
    N6  N6dr  1 4.700000e-01    3.880000e+00
  P1dr    N6  1 4.700000e-01    3.880000e+00
  P2dr    N6  1 4.700000e-01    3.880000e+00
  P3dr    N6  1 4.700000e-01    3.690000e+00
  P4dr    N6  1 4.700000e-01    3.690000e+00
  P5dr    N6  1 4.700000e-01    3.690000e+00
  P6dr    N6  1 4.700000e-01    3.880000e+00
    N6   X1r  1 4.700000e-01    2.960000e+00
    N6   X2r  1 4.700000e-01    3.070000e+00
    N6   X3r  1 4.700000e-01    3.240000e+00
    N6   X4r  1 4.700000e-01    3.390000e+00
    N6   C1r  1 4.700000e-01    2.790000e+00
    N6   C2r  1 4.700000e-01    2.960000e+00
    N6   C3r  1 4.700000e-01    2.960000e+00
    N6   C4r  1 4.700000e-01    3.070000e+00
    N6   C5r  1 4.700000e-01    3.240000e+00
    N6   C6r  1 4.700000e-01    3.390000e+00
    N6   N1r  1 4.700000e-01    3.390000e+00
    N6   N2r  1 4.700000e-01    3.390000e+00
    N6   N3r  1 4.700000e-01    3.520000e+00
    N6   N4r  1 4.700000e-01    3.880000e+00
    N6   N5r  1 4.700000e-01    3.880000e+00
    N6   SN6  1 4.300000e-01    3.590000e+00
    N6   SN5  1 4.300000e-01    3.590000e+00
    N6   SN4  1 4.300000e-01    3.590000e+00
    N6   SN3  1 4.300000e-01    3.160000e+00
    N6   SN2  1 4.300000e-01    2.920000e+00
    N6   SN1  1 4.300000e-01    2.920000e+00
    N6   SC6  1 4.300000e-01    2.920000e+00
    N6   SC5  1 4.300000e-01    2.770000e+00
    N6   SC4  1 4.300000e-01    2.530000e+00
    N6   SC3  1 4.300000e-01    2.320000e+00
    N6   SC2  1 4.300000e-01    2.320000e+00
    N6   SC1  1 4.300000e-01    2.160000e+00
    N6   SX4  1 4.300000e-01    2.920000e+00
    N6   SX3  1 4.300000e-01    2.770000e+00
    N6   SX2  1 4.300000e-01    2.530000e+00
    N6   SX1  1 4.300000e-01    2.320000e+00
    N6  SN6d  1 4.300000e-01    3.590000e+00
    N6  SN1d  1 4.300000e-01    2.920000e+00
    N6  SN2d  1 4.300000e-01    2.920000e+00
    N6  SN3d  1 4.300000e-01    3.160000e+00
    N6  SN4d  1 4.300000e-01    3.590000e+00
    N6  SN5d  1 4.300000e-01    3.590000e+00
    N6  SN6a  1 4.300000e-01    3.590000e+00
    N6  SN1a  1 4.300000e-01    2.920000e+00
    N6  SN2a  1 4.300000e-01    2.920000e+00
    N6  SN3a  1 4.300000e-01    3.160000e+00
    N6  SN4a  1 4.300000e-01    3.590000e+00
    N6  SN5a  1 4.300000e-01    3.590000e+00
    N6  SC6v  1 4.300000e-01    3.160000e+00
    N6  SC5v  1 4.300000e-01    2.920000e+00
    N6  SC4v  1 4.300000e-01    2.770000e+00
    N6  SC3v  1 4.300000e-01    2.530000e+00
    N6  SC2v  1 4.300000e-01    2.530000e+00
    N6  SC1v  1 4.300000e-01    2.320000e+00
    N6  SX4v  1 4.300000e-01    3.160000e+00
    N6  SX3v  1 4.300000e-01    2.920000e+00
    N6  SX2v  1 4.300000e-01    2.770000e+00
    N6  SX1v  1 4.300000e-01    2.530000e+00
    N6  SC6e  1 4.300000e-01    3.160000e+00
    N6  SC5e  1 4.300000e-01    2.920000e+00
    N6  SC4e  1 4.300000e-01    2.770000e+00
    N6  SC3e  1 4.300000e-01    2.530000e+00
    N6  SC2e  1 4.300000e-01    2.530000e+00
    N6  SC1e  1 4.300000e-01    2.320000e+00
    N6  SX4e  1 4.300000e-01    3.160000e+00
    N6  SX3e  1 4.300000e-01    2.920000e+00
    N6  SX2e  1 4.300000e-01    2.770000e+00
    N6  SX1e  1 4.300000e-01    2.530000e+00
    N6  SN6q  1 4.300000e-01    3.970000e+00
    N6 SX1eq  1 4.300000e-01    2.920000e+00
    N6 SX2eq  1 4.300000e-01    3.160000e+00
    N6 SX3eq  1 4.300000e-01    3.380000e+00
    N6 SX4eq  1 4.300000e-01    3.590000e+00
    N6 SC1eq  1 4.300000e-01    2.770000e+00
    N6 SC2eq  1 4.300000e-01    2.920000e+00
    N6 SC3eq  1 4.300000e-01    2.920000e+00
    N6 SC4eq  1 4.300000e-01    3.160000e+00
    N6 SC5eq  1 4.300000e-01    3.380000e+00
    N6 SC6eq  1 4.300000e-01    3.590000e+00
    N6 SX1vq  1 4.300000e-01    2.920000e+00
    N6 SX2vq  1 4.300000e-01    3.160000e+00
    N6 SX3vq  1 4.300000e-01    3.380000e+00
    N6 SX4vq  1 4.300000e-01    3.590000e+00
    N6 SC1vq  1 4.300000e-01    2.770000e+00
    N6 SC2vq  1 4.300000e-01    2.920000e+00
    N6 SC3vq  1 4.300000e-01    2.920000e+00
    N6 SC4vq  1 4.300000e-01    3.160000e+00
    N6 SC5vq  1 4.300000e-01    3.380000e+00
    N6 SC6vq  1 4.300000e-01    3.590000e+00
    N6 SN1aq  1 4.300000e-01    3.380000e+00
    N6 SN2aq  1 4.300000e-01    3.380000e+00
    N6 SN3aq  1 4.300000e-01    3.590000e+00
    N6 SN4aq  1 4.300000e-01    3.970000e+00
    N6 SN5aq  1 4.300000e-01    3.970000e+00
    N6 SN6aq  1 4.300000e-01    3.970000e+00
    N6 SN1dq  1 4.300000e-01    3.380000e+00
    N6 SN2dq  1 4.300000e-01    3.380000e+00
    N6 SN3dq  1 4.300000e-01    3.590000e+00
    N6 SN4dq  1 4.300000e-01    3.970000e+00
    N6 SN5dq  1 4.300000e-01    3.970000e+00
    N6 SN6dq  1 4.300000e-01    3.970000e+00
    N6  SX1q  1 4.300000e-01    2.770000e+00
    N6  SX2q  1 4.300000e-01    2.920000e+00
    N6  SX3q  1 4.300000e-01    3.160000e+00
    N6  SX4q  1 4.300000e-01    3.380000e+00
    N6  SC1q  1 4.300000e-01    2.530000e+00
    N6  SC2q  1 4.300000e-01    2.770000e+00
    N6  SC3q  1 4.300000e-01    2.770000e+00
    N6  SC4q  1 4.300000e-01    2.920000e+00
    N6  SC5q  1 4.300000e-01    3.160000e+00
    N6  SC6q  1 4.300000e-01    3.380000e+00
    N6  SN1q  1 4.300000e-01    3.380000e+00
    N6  SN2q  1 4.300000e-01    3.380000e+00
    N6  SN3q  1 4.300000e-01    3.590000e+00
    N6  SN4q  1 4.300000e-01    3.970000e+00
    N6  SN5q  1 4.300000e-01    3.970000e+00
    N6  SN6h  1 4.300000e-01    3.590000e+00
    N6 SX1eh  1 4.300000e-01    2.530000e+00
    N6 SX2eh  1 4.300000e-01    2.770000e+00
    N6 SX3eh  1 4.300000e-01    2.920000e+00
    N6 SX4eh  1 4.300000e-01    3.160000e+00
    N6 SC1eh  1 4.300000e-01    2.320000e+00
    N6 SC2eh  1 4.300000e-01    2.530000e+00
    N6 SC3eh  1 4.300000e-01    2.530000e+00
    N6 SC4eh  1 4.300000e-01    2.770000e+00
    N6 SC5eh  1 4.300000e-01    2.920000e+00
    N6 SC6eh  1 4.300000e-01    3.160000e+00
    N6 SX1vh  1 4.300000e-01    2.530000e+00
    N6 SX2vh  1 4.300000e-01    2.770000e+00
    N6 SX3vh  1 4.300000e-01    2.920000e+00
    N6 SX4vh  1 4.300000e-01    3.160000e+00
    N6 SC1vh  1 4.300000e-01    2.320000e+00
    N6 SC2vh  1 4.300000e-01    2.530000e+00
    N6 SC3vh  1 4.300000e-01    2.530000e+00
    N6 SC4vh  1 4.300000e-01    2.770000e+00
    N6 SC5vh  1 4.300000e-01    2.920000e+00
    N6 SC6vh  1 4.300000e-01    3.160000e+00
    N6 SN1ah  1 4.300000e-01    2.920000e+00
    N6 SN2ah  1 4.300000e-01    2.920000e+00
    N6 SN3ah  1 4.300000e-01    3.160000e+00
    N6 SN4ah  1 4.300000e-01    3.590000e+00
    N6 SN5ah  1 4.300000e-01    3.590000e+00
    N6 SN6ah  1 4.300000e-01    3.590000e+00
    N6 SN1dh  1 4.300000e-01    2.920000e+00
    N6 SN2dh  1 4.300000e-01    2.920000e+00
    N6 SN3dh  1 4.300000e-01    3.160000e+00
    N6 SN4dh  1 4.300000e-01    3.590000e+00
    N6 SN5dh  1 4.300000e-01    3.590000e+00
    N6 SN6dh  1 4.300000e-01    3.590000e+00
    N6  SX1h  1 4.300000e-01    2.320000e+00
    N6  SX2h  1 4.300000e-01    2.530000e+00
    N6  SX3h  1 4.300000e-01    2.770000e+00
    N6  SX4h  1 4.300000e-01    2.920000e+00
    N6  SC1h  1 4.300000e-01    2.160000e+00
    N6  SC2h  1 4.300000e-01    2.320000e+00
    N6  SC3h  1 4.300000e-01    2.320000e+00
    N6  SC4h  1 4.300000e-01    2.530000e+00
    N6  SC5h  1 4.300000e-01    2.770000e+00
    N6  SC6h  1 4.300000e-01    2.920000e+00
    N6  SN1h  1 4.300000e-01    2.920000e+00
    N6  SN2h  1 4.300000e-01    2.920000e+00
    N6  SN3h  1 4.300000e-01    3.160000e+00
    N6  SN4h  1 4.300000e-01    3.590000e+00
    N6  SN5h  1 4.300000e-01    3.590000e+00
    N6  SN6r  1 4.300000e-01    3.590000e+00
    N6 SX1er  1 4.300000e-01    2.530000e+00
    N6 SX2er  1 4.300000e-01    2.770000e+00
    N6 SX3er  1 4.300000e-01    2.920000e+00
    N6 SX4er  1 4.300000e-01    3.160000e+00
    N6 SC1er  1 4.300000e-01    2.320000e+00
    N6 SC2er  1 4.300000e-01    2.530000e+00
    N6 SC3er  1 4.300000e-01    2.530000e+00
    N6 SC4er  1 4.300000e-01    2.770000e+00
    N6 SC5er  1 4.300000e-01    2.920000e+00
    N6 SC6er  1 4.300000e-01    3.160000e+00
    N6 SX1vr  1 4.300000e-01    2.530000e+00
    N6 SX2vr  1 4.300000e-01    2.770000e+00
    N6 SX3vr  1 4.300000e-01    2.920000e+00
    N6 SX4vr  1 4.300000e-01    3.160000e+00
    N6 SC1vr  1 4.300000e-01    2.320000e+00
    N6 SC2vr  1 4.300000e-01    2.530000e+00
    N6 SC3vr  1 4.300000e-01    2.530000e+00
    N6 SC4vr  1 4.300000e-01    2.770000e+00
    N6 SC5vr  1 4.300000e-01    2.920000e+00
    N6 SC6vr  1 4.300000e-01    3.160000e+00
    N6 SN1ar  1 4.300000e-01    2.920000e+00
    N6 SN2ar  1 4.300000e-01    2.920000e+00
    N6 SN3ar  1 4.300000e-01    3.160000e+00
    N6 SN4ar  1 4.300000e-01    3.590000e+00
    N6 SN5ar  1 4.300000e-01    3.590000e+00
    N6 SN6ar  1 4.300000e-01    3.590000e+00
    N6 SN1dr  1 4.300000e-01    2.920000e+00
    N6 SN2dr  1 4.300000e-01    2.920000e+00
    N6 SN3dr  1 4.300000e-01    3.160000e+00
    N6 SN4dr  1 4.300000e-01    3.590000e+00
    N6 SN5dr  1 4.300000e-01    3.590000e+00
    N6 SN6dr  1 4.300000e-01    3.590000e+00
    N6  SX1r  1 4.300000e-01    2.320000e+00
    N6  SX2r  1 4.300000e-01    2.530000e+00
    N6  SX3r  1 4.300000e-01    2.770000e+00
    N6  SX4r  1 4.300000e-01    2.920000e+00
    N6  SC1r  1 4.300000e-01    2.160000e+00
    N6  SC2r  1 4.300000e-01    2.320000e+00
    N6  SC3r  1 4.300000e-01    2.320000e+00
    N6  SC4r  1 4.300000e-01    2.530000e+00
    N6  SC5r  1 4.300000e-01    2.770000e+00
    N6  SC6r  1 4.300000e-01    2.920000e+00
    N6  SN1r  1 4.300000e-01    2.920000e+00
    N6  SN2r  1 4.300000e-01    2.920000e+00
    N6  SN3r  1 4.300000e-01    3.160000e+00
    N6  SN4r  1 4.300000e-01    3.590000e+00
    N6  SN5r  1 4.300000e-01    3.590000e+00
  SP6d    N6  1 4.300000e-01    3.590000e+00
  SP5d    N6  1 4.300000e-01    3.380000e+00
  SP4d    N6  1 4.300000e-01    3.380000e+00
  SP3d    N6  1 4.300000e-01    3.380000e+00
  SP2d    N6  1 4.300000e-01    3.590000e+00
  SP1d    N6  1 4.300000e-01    3.590000e+00
  SP6a    N6  1 4.300000e-01    3.590000e+00
  SP5a    N6  1 4.300000e-01    3.380000e+00
  SP4a    N6  1 4.300000e-01    3.380000e+00
  SP3a    N6  1 4.300000e-01    3.380000e+00
  SP2a    N6  1 4.300000e-01    3.590000e+00
  SP1a    N6  1 4.300000e-01    3.590000e+00
  SP6q    N6  1 4.300000e-01    3.970000e+00
  SP5q    N6  1 4.300000e-01    3.770000e+00
  SP4q    N6  1 4.300000e-01    3.770000e+00
  SP3q    N6  1 4.300000e-01    3.770000e+00
  SP2q    N6  1 4.300000e-01    3.970000e+00
  SP1q    N6  1 4.300000e-01    3.970000e+00
 SP1aq    N6  1 4.300000e-01    3.970000e+00
 SP2aq    N6  1 4.300000e-01    3.970000e+00
 SP3aq    N6  1 4.300000e-01    3.770000e+00
 SP4aq    N6  1 4.300000e-01    3.770000e+00
 SP5aq    N6  1 4.300000e-01    3.770000e+00
 SP6aq    N6  1 4.300000e-01    3.970000e+00
 SP1dq    N6  1 4.300000e-01    3.970000e+00
 SP2dq    N6  1 4.300000e-01    3.970000e+00
 SP3dq    N6  1 4.300000e-01    3.770000e+00
 SP4dq    N6  1 4.300000e-01    3.770000e+00
 SP5dq    N6  1 4.300000e-01    3.770000e+00
 SP6dq    N6  1 4.300000e-01    3.970000e+00
  SP6h    N6  1 4.300000e-01    3.590000e+00
  SP5h    N6  1 4.300000e-01    3.380000e+00
  SP4h    N6  1 4.300000e-01    3.380000e+00
  SP3h    N6  1 4.300000e-01    3.380000e+00
  SP2h    N6  1 4.300000e-01    3.590000e+00
  SP1h    N6  1 4.300000e-01    3.590000e+00
 SP1ah    N6  1 4.300000e-01    3.590000e+00
 SP2ah    N6  1 4.300000e-01    3.590000e+00
 SP3ah    N6  1 4.300000e-01    3.380000e+00
 SP4ah    N6  1 4.300000e-01    3.380000e+00
 SP5ah    N6  1 4.300000e-01    3.380000e+00
 SP6ah    N6  1 4.300000e-01    3.590000e+00
 SP1dh    N6  1 4.300000e-01    3.590000e+00
 SP2dh    N6  1 4.300000e-01    3.590000e+00
 SP3dh    N6  1 4.300000e-01    3.380000e+00
 SP4dh    N6  1 4.300000e-01    3.380000e+00
 SP5dh    N6  1 4.300000e-01    3.380000e+00
 SP6dh    N6  1 4.300000e-01    3.590000e+00
  SP6r    N6  1 4.300000e-01    3.590000e+00
  SP5r    N6  1 4.300000e-01    3.380000e+00
  SP4r    N6  1 4.300000e-01    3.380000e+00
  SP3r    N6  1 4.300000e-01    3.380000e+00
  SP2r    N6  1 4.300000e-01    3.590000e+00
  SP1r    N6  1 4.300000e-01    3.590000e+00
 SP1ar    N6  1 4.300000e-01    3.590000e+00
 SP2ar    N6  1 4.300000e-01    3.590000e+00
 SP3ar    N6  1 4.300000e-01    3.380000e+00
 SP4ar    N6  1 4.300000e-01    3.380000e+00
 SP5ar    N6  1 4.300000e-01    3.380000e+00
 SP6ar    N6  1 4.300000e-01    3.590000e+00
 SP1dr    N6  1 4.300000e-01    3.590000e+00
 SP2dr    N6  1 4.300000e-01    3.590000e+00
 SP3dr    N6  1 4.300000e-01    3.380000e+00
 SP4dr    N6  1 4.300000e-01    3.380000e+00
 SP5dr    N6  1 4.300000e-01    3.380000e+00
 SP6dr    N6  1 4.300000e-01    3.590000e+00
    N6   TN6  1 3.950000e-01    2.940000e+00
    N6   TN5  1 3.950000e-01    2.940000e+00
    N6   TN4  1 3.950000e-01    2.940000e+00
    N6   TN3  1 3.950000e-01    2.500000e+00
    N6   TN2  1 3.950000e-01    2.310000e+00
    N6   TN1  1 3.950000e-01    2.310000e+00
    N6   TC6  1 3.950000e-01    2.310000e+00
    N6   TC5  1 3.950000e-01    2.110000e+00
    N6   TC4  1 3.950000e-01    1.850000e+00
    N6   TC3  1 3.950000e-01    1.670000e+00
    N6   TC2  1 3.950000e-01    1.670000e+00
    N6   TC1  1 3.980000e-01    1.450000e+00
    N6   TX4  1 3.950000e-01    2.310000e+00
    N6   TX3  1 3.950000e-01    2.110000e+00
    N6   TX2  1 3.950000e-01    1.850000e+00
    N6   TX1  1 3.950000e-01    1.670000e+00
    N6  TN6d  1 3.950000e-01    2.940000e+00
    N6  TN1d  1 3.950000e-01    2.310000e+00
    N6  TN2d  1 3.950000e-01    2.310000e+00
    N6  TN3d  1 3.950000e-01    2.500000e+00
    N6  TN4d  1 3.950000e-01    2.940000e+00
    N6  TN5d  1 3.950000e-01    2.940000e+00
    N6  TN6a  1 3.950000e-01    2.940000e+00
    N6  TN1a  1 3.950000e-01    2.310000e+00
    N6  TN2a  1 3.950000e-01    2.310000e+00
    N6  TN3a  1 3.950000e-01    2.500000e+00
    N6  TN4a  1 3.950000e-01    2.940000e+00
    N6  TN5a  1 3.950000e-01    2.940000e+00
    N6  TC6v  1 3.950000e-01    2.500000e+00
    N6  TC5v  1 3.950000e-01    2.310000e+00
    N6  TC4v  1 3.950000e-01    2.110000e+00
    N6  TC3v  1 3.950000e-01    1.850000e+00
    N6  TC2v  1 3.950000e-01    1.850000e+00
    N6  TC1v  1 3.950000e-01    1.670000e+00
    N6  TX4v  1 3.950000e-01    2.500000e+00
    N6  TX3v  1 3.950000e-01    2.310000e+00
    N6  TX2v  1 3.950000e-01    2.110000e+00
    N6  TX1v  1 3.950000e-01    1.850000e+00
    N6  TC6e  1 3.950000e-01    2.500000e+00
    N6  TC5e  1 3.950000e-01    2.310000e+00
    N6  TC4e  1 3.950000e-01    2.110000e+00
    N6  TC3e  1 3.950000e-01    1.850000e+00
    N6  TC2e  1 3.950000e-01    1.850000e+00
    N6  TC1e  1 3.950000e-01    1.670000e+00
    N6  TX4e  1 3.950000e-01    2.500000e+00
    N6  TX3e  1 3.950000e-01    2.310000e+00
    N6  TX2e  1 3.950000e-01    2.110000e+00
    N6  TX1e  1 3.950000e-01    1.850000e+00
    N6  TN6q  1 3.950000e-01    3.430000e+00
    N6 TX1eq  1 3.950000e-01    2.310000e+00
    N6 TX2eq  1 3.950000e-01    2.500000e+00
    N6 TX3eq  1 3.950000e-01    2.700000e+00
    N6 TX4eq  1 3.950000e-01    2.940000e+00
    N6 TC1eq  1 3.950000e-01    2.110000e+00
    N6 TC2eq  1 3.950000e-01    2.310000e+00
    N6 TC3eq  1 3.950000e-01    2.310000e+00
    N6 TC4eq  1 3.950000e-01    2.500000e+00
    N6 TC5eq  1 3.950000e-01    2.700000e+00
    N6 TC6eq  1 3.950000e-01    2.940000e+00
    N6 TX1vq  1 3.950000e-01    2.310000e+00
    N6 TX2vq  1 3.950000e-01    2.500000e+00
    N6 TX3vq  1 3.950000e-01    2.700000e+00
    N6 TX4vq  1 3.950000e-01    2.940000e+00
    N6 TC1vq  1 3.950000e-01    2.110000e+00
    N6 TC2vq  1 3.950000e-01    2.310000e+00
    N6 TC3vq  1 3.950000e-01    2.310000e+00
    N6 TC4vq  1 3.950000e-01    2.500000e+00
    N6 TC5vq  1 3.950000e-01    2.700000e+00
    N6 TC6vq  1 3.950000e-01    2.940000e+00
    N6 TN1aq  1 3.950000e-01    2.700000e+00
    N6 TN2aq  1 3.950000e-01    2.700000e+00
    N6 TN3aq  1 3.950000e-01    2.940000e+00
    N6 TN4aq  1 3.950000e-01    3.430000e+00
    N6 TN5aq  1 3.950000e-01    3.430000e+00
    N6 TN6aq  1 3.950000e-01    3.430000e+00
    N6 TN1dq  1 3.950000e-01    2.700000e+00
    N6 TN2dq  1 3.950000e-01    2.700000e+00
    N6 TN3dq  1 3.950000e-01    2.940000e+00
    N6 TN4dq  1 3.950000e-01    3.430000e+00
    N6 TN5dq  1 3.950000e-01    3.430000e+00
    N6 TN6dq  1 3.950000e-01    3.430000e+00
    N6  TX1q  1 3.950000e-01    2.110000e+00
    N6  TX2q  1 3.950000e-01    2.310000e+00
    N6  TX3q  1 3.950000e-01    2.500000e+00
    N6  TX4q  1 3.950000e-01    2.700000e+00
    N6  TC1q  1 3.950000e-01    1.850000e+00
    N6  TC2q  1 3.950000e-01    2.110000e+00
    N6  TC3q  1 3.950000e-01    2.110000e+00
    N6  TC4q  1 3.950000e-01    2.310000e+00
    N6  TC5q  1 3.950000e-01    2.500000e+00
    N6  TC6q  1 3.950000e-01    2.700000e+00
    N6  TN1q  1 3.950000e-01    2.700000e+00
    N6  TN2q  1 3.950000e-01    2.700000e+00
    N6  TN3q  1 3.950000e-01    2.940000e+00
    N6  TN4q  1 3.950000e-01    3.430000e+00
    N6  TN5q  1 3.950000e-01    3.430000e+00
    N6  TN6h  1 3.950000e-01    2.940000e+00
    N6 TX1eh  1 3.950000e-01    1.850000e+00
    N6 TX2eh  1 3.950000e-01    2.110000e+00
    N6 TX3eh  1 3.950000e-01    2.310000e+00
    N6 TX4eh  1 3.950000e-01    2.500000e+00
    N6 TC1eh  1 3.950000e-01    1.670000e+00
    N6 TC2eh  1 3.950000e-01    1.850000e+00
    N6 TC3eh  1 3.950000e-01    1.850000e+00
    N6 TC4eh  1 3.950000e-01    2.110000e+00
    N6 TC5eh  1 3.950000e-01    2.310000e+00
    N6 TC6eh  1 3.950000e-01    2.500000e+00
    N6 TX1vh  1 3.950000e-01    1.850000e+00
    N6 TX2vh  1 3.950000e-01    2.110000e+00
    N6 TX3vh  1 3.950000e-01    2.310000e+00
    N6 TX4vh  1 3.950000e-01    2.500000e+00
    N6 TC1vh  1 3.950000e-01    1.670000e+00
    N6 TC2vh  1 3.950000e-01    1.850000e+00
    N6 TC3vh  1 3.950000e-01    1.850000e+00
    N6 TC4vh  1 3.950000e-01    2.110000e+00
    N6 TC5vh  1 3.950000e-01    2.310000e+00
    N6 TC6vh  1 3.950000e-01    2.500000e+00
    N6 TN1ah  1 3.950000e-01    2.310000e+00
    N6 TN2ah  1 3.950000e-01    2.310000e+00
    N6 TN3ah  1 3.950000e-01    2.500000e+00
    N6 TN4ah  1 3.950000e-01    2.940000e+00
    N6 TN5ah  1 3.950000e-01    2.940000e+00
    N6 TN6ah  1 3.950000e-01    2.940000e+00
    N6 TN1dh  1 3.950000e-01    2.310000e+00
    N6 TN2dh  1 3.950000e-01    2.310000e+00
    N6 TN3dh  1 3.950000e-01    2.500000e+00
    N6 TN4dh  1 3.950000e-01    2.940000e+00
    N6 TN5dh  1 3.950000e-01    2.940000e+00
    N6 TN6dh  1 3.950000e-01    2.940000e+00
    N6  TX1h  1 3.950000e-01    1.670000e+00
    N6  TX2h  1 3.950000e-01    1.850000e+00
    N6  TX3h  1 3.950000e-01    2.110000e+00
    N6  TX4h  1 3.950000e-01    2.310000e+00
    N6  TC1h  1 3.980000e-01    1.450000e+00
    N6  TC2h  1 3.950000e-01    1.670000e+00
    N6  TC3h  1 3.950000e-01    1.670000e+00
    N6  TC4h  1 3.950000e-01    1.850000e+00
    N6  TC5h  1 3.950000e-01    2.110000e+00
    N6  TC6h  1 3.950000e-01    2.310000e+00
    N6  TN1h  1 3.950000e-01    2.310000e+00
    N6  TN2h  1 3.950000e-01    2.310000e+00
    N6  TN3h  1 3.950000e-01    2.500000e+00
    N6  TN4h  1 3.950000e-01    2.940000e+00
    N6  TN5h  1 3.950000e-01    2.940000e+00
    N6  TN6r  1 3.950000e-01    2.940000e+00
    N6 TX1er  1 3.950000e-01    1.850000e+00
    N6 TX2er  1 3.950000e-01    2.110000e+00
    N6 TX3er  1 3.950000e-01    2.310000e+00
    N6 TX4er  1 3.950000e-01    2.500000e+00
    N6 TC1er  1 3.950000e-01    1.670000e+00
    N6 TC2er  1 3.950000e-01    1.850000e+00
    N6 TC3er  1 3.950000e-01    1.850000e+00
    N6 TC4er  1 3.950000e-01    2.110000e+00
    N6 TC5er  1 3.950000e-01    2.310000e+00
    N6 TC6er  1 3.950000e-01    2.500000e+00
    N6 TX1vr  1 3.950000e-01    1.850000e+00
    N6 TX2vr  1 3.950000e-01    2.110000e+00
    N6 TX3vr  1 3.950000e-01    2.310000e+00
    N6 TX4vr  1 3.950000e-01    2.500000e+00
    N6 TC1vr  1 3.950000e-01    1.670000e+00
    N6 TC2vr  1 3.950000e-01    1.850000e+00
    N6 TC3vr  1 3.950000e-01    1.850000e+00
    N6 TC4vr  1 3.950000e-01    2.110000e+00
    N6 TC5vr  1 3.950000e-01    2.310000e+00
    N6 TC6vr  1 3.950000e-01    2.500000e+00
    N6 TN1ar  1 3.950000e-01    2.310000e+00
    N6 TN2ar  1 3.950000e-01    2.310000e+00
    N6 TN3ar  1 3.950000e-01    2.500000e+00
    N6 TN4ar  1 3.950000e-01    2.940000e+00
    N6 TN5ar  1 3.950000e-01    2.940000e+00
    N6 TN6ar  1 3.950000e-01    2.940000e+00
    N6 TN1dr  1 3.950000e-01    2.310000e+00
    N6 TN2dr  1 3.950000e-01    2.310000e+00
    N6 TN3dr  1 3.950000e-01    2.500000e+00
    N6 TN4dr  1 3.950000e-01    2.940000e+00
    N6 TN5dr  1 3.950000e-01    2.940000e+00
    N6 TN6dr  1 3.950000e-01    2.940000e+00
    N6  TX1r  1 3.950000e-01    1.670000e+00
    N6  TX2r  1 3.950000e-01    1.850000e+00
    N6  TX3r  1 3.950000e-01    2.110000e+00
    N6  TX4r  1 3.950000e-01    2.310000e+00
    N6  TC1r  1 3.980000e-01    1.450000e+00
    N6  TC2r  1 3.950000e-01    1.670000e+00
    N6  TC3r  1 3.950000e-01    1.670000e+00
    N6  TC4r  1 3.950000e-01    1.850000e+00
    N6  TC5r  1 3.950000e-01    2.110000e+00
    N6  TC6r  1 3.950000e-01    2.310000e+00
    N6  TN1r  1 3.950000e-01    2.310000e+00
    N6  TN2r  1 3.950000e-01    2.310000e+00
    N6  TN3r  1 3.950000e-01    2.500000e+00
    N6  TN4r  1 3.950000e-01    2.940000e+00
    N6  TN5r  1 3.950000e-01    2.940000e+00
  TP6d    N6  1 3.950000e-01    2.940000e+00
  TP5d    N6  1 3.950000e-01    2.700000e+00
  TP4d    N6  1 3.950000e-01    2.700000e+00
  TP3d    N6  1 3.950000e-01    2.700000e+00
  TP2d    N6  1 3.950000e-01    2.940000e+00
  TP1d    N6  1 3.950000e-01    2.940000e+00
  TP6a    N6  1 3.950000e-01    2.940000e+00
  TP5a    N6  1 3.950000e-01    2.700000e+00
  TP4a    N6  1 3.950000e-01    2.700000e+00
  TP3a    N6  1 3.950000e-01    2.700000e+00
  TP2a    N6  1 3.950000e-01    2.940000e+00
  TP1a    N6  1 3.950000e-01    2.940000e+00
  TP6q    N6  1 3.950000e-01    3.430000e+00
  TP5q    N6  1 3.950000e-01    3.190000e+00
  TP4q    N6  1 3.950000e-01    3.190000e+00
  TP3q    N6  1 3.950000e-01    3.190000e+00
  TP2q    N6  1 3.950000e-01    3.430000e+00
  TP1q    N6  1 3.950000e-01    3.430000e+00
 TP1aq    N6  1 3.950000e-01    3.430000e+00
 TP2aq    N6  1 3.950000e-01    3.430000e+00
 TP3aq    N6  1 3.950000e-01    3.190000e+00
 TP4aq    N6  1 3.950000e-01    3.190000e+00
 TP5aq    N6  1 3.950000e-01    3.190000e+00
 TP6aq    N6  1 3.950000e-01    3.430000e+00
 TP1dq    N6  1 3.950000e-01    3.430000e+00
 TP2dq    N6  1 3.950000e-01    3.430000e+00
 TP3dq    N6  1 3.950000e-01    3.190000e+00
 TP4dq    N6  1 3.950000e-01    3.190000e+00
 TP5dq    N6  1 3.950000e-01    3.190000e+00
 TP6dq    N6  1 3.950000e-01    3.430000e+00
  TP6h    N6  1 3.950000e-01    2.940000e+00
  TP5h    N6  1 3.950000e-01    2.700000e+00
  TP4h    N6  1 3.950000e-01    2.700000e+00
  TP3h    N6  1 3.950000e-01    2.700000e+00
  TP2h    N6  1 3.950000e-01    2.940000e+00
  TP1h    N6  1 3.950000e-01    2.940000e+00
 TP1ah    N6  1 3.950000e-01    2.940000e+00
 TP2ah    N6  1 3.950000e-01    2.940000e+00
 TP3ah    N6  1 3.950000e-01    2.700000e+00
 TP4ah    N6  1 3.950000e-01    2.700000e+00
 TP5ah    N6  1 3.950000e-01    2.700000e+00
 TP6ah    N6  1 3.950000e-01    2.940000e+00
 TP1dh    N6  1 3.950000e-01    2.940000e+00
 TP2dh    N6  1 3.950000e-01    2.940000e+00
 TP3dh    N6  1 3.950000e-01    2.700000e+00
 TP4dh    N6  1 3.950000e-01    2.700000e+00
 TP5dh    N6  1 3.950000e-01    2.700000e+00
 TP6dh    N6  1 3.950000e-01    2.940000e+00
  TP6r    N6  1 3.950000e-01    2.940000e+00
  TP5r    N6  1 3.950000e-01    2.700000e+00
  TP4r    N6  1 3.950000e-01    2.700000e+00
  TP3r    N6  1 3.950000e-01    2.700000e+00
  TP2r    N6  1 3.950000e-01    2.940000e+00
  TP1r    N6  1 3.950000e-01    2.940000e+00
 TP1ar    N6  1 3.950000e-01    2.940000e+00
 TP2ar    N6  1 3.950000e-01    2.940000e+00
 TP3ar    N6  1 3.950000e-01    2.700000e+00
 TP4ar    N6  1 3.950000e-01    2.700000e+00
 TP5ar    N6  1 3.950000e-01    2.700000e+00
 TP6ar    N6  1 3.950000e-01    2.940000e+00
 TP1dr    N6  1 3.950000e-01    2.940000e+00
 TP2dr    N6  1 3.950000e-01    2.940000e+00
 TP3dr    N6  1 3.950000e-01    2.700000e+00
 TP4dr    N6  1 3.950000e-01    2.700000e+00
 TP5dr    N6  1 3.950000e-01    2.700000e+00
 TP6dr    N6  1 3.950000e-01    2.940000e+00
   P6d   SN6  1 4.300000e-01    3.590000e+00
   P5d   SN6  1 4.300000e-01    3.380000e+00
   P4d   SN6  1 4.300000e-01    3.380000e+00
   P3d   SN6  1 4.300000e-01    3.380000e+00
   P2d   SN6  1 4.300000e-01    3.590000e+00
   P1d   SN6  1 4.300000e-01    3.590000e+00
   P6a   SN6  1 4.300000e-01    3.590000e+00
   P5a   SN6  1 4.300000e-01    3.380000e+00
   P4a   SN6  1 4.300000e-01    3.380000e+00
   P3a   SN6  1 4.300000e-01    3.380000e+00
   P2a   SN6  1 4.300000e-01    3.590000e+00
   P1a   SN6  1 4.300000e-01    3.590000e+00
   P6q   SN6  1 4.300000e-01    3.970000e+00
   P5q   SN6  1 4.300000e-01    3.770000e+00
   P4q   SN6  1 4.300000e-01    3.770000e+00
   P3q   SN6  1 4.300000e-01    3.770000e+00
   P2q   SN6  1 4.300000e-01    3.970000e+00
   P1q   SN6  1 4.300000e-01    3.970000e+00
  P1aq   SN6  1 4.300000e-01    3.970000e+00
  P2aq   SN6  1 4.300000e-01    3.970000e+00
  P3aq   SN6  1 4.300000e-01    3.770000e+00
  P4aq   SN6  1 4.300000e-01    3.770000e+00
  P5aq   SN6  1 4.300000e-01    3.770000e+00
  P6aq   SN6  1 4.300000e-01    3.970000e+00
  P1dq   SN6  1 4.300000e-01    3.970000e+00
  P2dq   SN6  1 4.300000e-01    3.970000e+00
  P3dq   SN6  1 4.300000e-01    3.770000e+00
  P4dq   SN6  1 4.300000e-01    3.770000e+00
  P5dq   SN6  1 4.300000e-01    3.770000e+00
  P6dq   SN6  1 4.300000e-01    3.970000e+00
   P6h   SN6  1 4.300000e-01    3.590000e+00
   P5h   SN6  1 4.300000e-01    3.380000e+00
   P4h   SN6  1 4.300000e-01    3.380000e+00
   P3h   SN6  1 4.300000e-01    3.380000e+00
   P2h   SN6  1 4.300000e-01    3.590000e+00
   P1h   SN6  1 4.300000e-01    3.590000e+00
  P1ah   SN6  1 4.300000e-01    3.590000e+00
  P2ah   SN6  1 4.300000e-01    3.590000e+00
  P3ah   SN6  1 4.300000e-01    3.380000e+00
  P4ah   SN6  1 4.300000e-01    3.380000e+00
  P5ah   SN6  1 4.300000e-01    3.380000e+00
  P6ah   SN6  1 4.300000e-01    3.590000e+00
  P1dh   SN6  1 4.300000e-01    3.590000e+00
  P2dh   SN6  1 4.300000e-01    3.590000e+00
  P3dh   SN6  1 4.300000e-01    3.380000e+00
  P4dh   SN6  1 4.300000e-01    3.380000e+00
  P5dh   SN6  1 4.300000e-01    3.380000e+00
  P6dh   SN6  1 4.300000e-01    3.590000e+00
   P6r   SN6  1 4.300000e-01    3.590000e+00
   P5r   SN6  1 4.300000e-01    3.380000e+00
   P4r   SN6  1 4.300000e-01    3.380000e+00
   P3r   SN6  1 4.300000e-01    3.380000e+00
   P2r   SN6  1 4.300000e-01    3.590000e+00
   P1r   SN6  1 4.300000e-01    3.590000e+00
  P1ar   SN6  1 4.300000e-01    3.590000e+00
  P2ar   SN6  1 4.300000e-01    3.590000e+00
  P3ar   SN6  1 4.300000e-01    3.380000e+00
  P4ar   SN6  1 4.300000e-01    3.380000e+00
  P5ar   SN6  1 4.300000e-01    3.380000e+00
  P6ar   SN6  1 4.300000e-01    3.590000e+00
  P1dr   SN6  1 4.300000e-01    3.590000e+00
  P2dr   SN6  1 4.300000e-01    3.590000e+00
  P3dr   SN6  1 4.300000e-01    3.380000e+00
  P4dr   SN6  1 4.300000e-01    3.380000e+00
  P5dr   SN6  1 4.300000e-01    3.380000e+00
  P6dr   SN6  1 4.300000e-01    3.590000e+00
   SN6    N5  1 4.300000e-01    3.590000e+00
   SN6    N4  1 4.300000e-01    3.590000e+00
   SN6    N3  1 4.300000e-01    3.160000e+00
   SN6    N2  1 4.300000e-01    2.920000e+00
   SN6    N1  1 4.300000e-01    2.920000e+00
   SN6    C6  1 4.300000e-01    2.920000e+00
   SN6    C5  1 4.300000e-01    2.770000e+00
   SN6    C4  1 4.300000e-01    2.530000e+00
   SN6    C3  1 4.300000e-01    2.320000e+00
   SN6    C2  1 4.300000e-01    2.320000e+00
   SN6    C1  1 4.300000e-01    2.160000e+00
   SN6    X4  1 4.300000e-01    2.920000e+00
   SN6    X3  1 4.300000e-01    2.770000e+00
   SN6    X2  1 4.300000e-01    2.530000e+00
   SN6    X1  1 4.300000e-01    2.320000e+00
   SN6   N6d  1 4.300000e-01    3.590000e+00
   SN6   N1d  1 4.300000e-01    2.920000e+00
   SN6   N2d  1 4.300000e-01    2.920000e+00
   SN6   N3d  1 4.300000e-01    3.160000e+00
   SN6   N4d  1 4.300000e-01    3.590000e+00
   SN6   N5d  1 4.300000e-01    3.590000e+00
   SN6   N6a  1 4.300000e-01    3.590000e+00
   SN6   N1a  1 4.300000e-01    2.920000e+00
   SN6   N2a  1 4.300000e-01    2.920000e+00
   SN6   N3a  1 4.300000e-01    3.160000e+00
   SN6   N4a  1 4.300000e-01    3.590000e+00
   SN6   N5a  1 4.300000e-01    3.590000e+00
   SN6   C6v  1 4.300000e-01    3.160000e+00
   SN6   C5v  1 4.300000e-01    2.920000e+00
   SN6   C4v  1 4.300000e-01    2.770000e+00
   SN6   C3v  1 4.300000e-01    2.530000e+00
   SN6   C2v  1 4.300000e-01    2.530000e+00
   SN6   C1v  1 4.300000e-01    2.320000e+00
   SN6   X4v  1 4.300000e-01    3.160000e+00
   SN6   X3v  1 4.300000e-01    2.920000e+00
   SN6   X2v  1 4.300000e-01    2.770000e+00
   SN6   X1v  1 4.300000e-01    2.530000e+00
   SN6   C6e  1 4.300000e-01    3.160000e+00
   SN6   C5e  1 4.300000e-01    2.920000e+00
   SN6   C4e  1 4.300000e-01    2.770000e+00
   SN6   C3e  1 4.300000e-01    2.530000e+00
   SN6   C2e  1 4.300000e-01    2.530000e+00
   SN6   C1e  1 4.300000e-01    2.320000e+00
   SN6   X4e  1 4.300000e-01    3.160000e+00
   SN6   X3e  1 4.300000e-01    2.920000e+00
   SN6   X2e  1 4.300000e-01    2.770000e+00
   SN6   X1e  1 4.300000e-01    2.530000e+00
   SN6   N6q  1 4.300000e-01    3.970000e+00
   SN6  X1eq  1 4.300000e-01    2.920000e+00
   SN6  X2eq  1 4.300000e-01    3.160000e+00
   SN6  X3eq  1 4.300000e-01    3.380000e+00
   SN6  X4eq  1 4.300000e-01    3.590000e+00
   SN6  C1eq  1 4.300000e-01    2.770000e+00
   SN6  C2eq  1 4.300000e-01    2.920000e+00
   SN6  C3eq  1 4.300000e-01    2.920000e+00
   SN6  C4eq  1 4.300000e-01    3.160000e+00
   SN6  C5eq  1 4.300000e-01    3.380000e+00
   SN6  C6eq  1 4.300000e-01    3.590000e+00
   SN6  X1vq  1 4.300000e-01    2.920000e+00
   SN6  X2vq  1 4.300000e-01    3.160000e+00
   SN6  X3vq  1 4.300000e-01    3.380000e+00
   SN6  X4vq  1 4.300000e-01    3.590000e+00
   SN6  C1vq  1 4.300000e-01    2.770000e+00
   SN6  C2vq  1 4.300000e-01    2.920000e+00
   SN6  C3vq  1 4.300000e-01    2.920000e+00
   SN6  C4vq  1 4.300000e-01    3.160000e+00
   SN6  C5vq  1 4.300000e-01    3.380000e+00
   SN6  C6vq  1 4.300000e-01    3.590000e+00
   SN6  N1aq  1 4.300000e-01    3.380000e+00
   SN6  N2aq  1 4.300000e-01    3.380000e+00
   SN6  N3aq  1 4.300000e-01    3.590000e+00
   SN6  N4aq  1 4.300000e-01    3.970000e+00
   SN6  N5aq  1 4.300000e-01    3.970000e+00
   SN6  N6aq  1 4.300000e-01    3.970000e+00
   SN6  N1dq  1 4.300000e-01    3.380000e+00
   SN6  N2dq  1 4.300000e-01    3.380000e+00
   SN6  N3dq  1 4.300000e-01    3.590000e+00
   SN6  N4dq  1 4.300000e-01    3.970000e+00
   SN6  N5dq  1 4.300000e-01    3.970000e+00
   SN6  N6dq  1 4.300000e-01    3.970000e+00
   SN6   X1q  1 4.300000e-01    2.770000e+00
   SN6   X2q  1 4.300000e-01    2.920000e+00
   SN6   X3q  1 4.300000e-01    3.160000e+00
   SN6   X4q  1 4.300000e-01    3.380000e+00
   SN6   C1q  1 4.300000e-01    2.530000e+00
   SN6   C2q  1 4.300000e-01    2.770000e+00
   SN6   C3q  1 4.300000e-01    2.770000e+00
   SN6   C4q  1 4.300000e-01    2.920000e+00
   SN6   C5q  1 4.300000e-01    3.160000e+00
   SN6   C6q  1 4.300000e-01    3.380000e+00
   SN6   N1q  1 4.300000e-01    3.380000e+00
   SN6   N2q  1 4.300000e-01    3.380000e+00
   SN6   N3q  1 4.300000e-01    3.590000e+00
   SN6   N4q  1 4.300000e-01    3.970000e+00
   SN6   N5q  1 4.300000e-01    3.970000e+00
   SN6   N6h  1 4.300000e-01    3.590000e+00
   SN6  X1eh  1 4.300000e-01    2.530000e+00
   SN6  X2eh  1 4.300000e-01    2.770000e+00
   SN6  X3eh  1 4.300000e-01    2.920000e+00
   SN6  X4eh  1 4.300000e-01    3.160000e+00
   SN6  C1eh  1 4.300000e-01    2.320000e+00
   SN6  C2eh  1 4.300000e-01    2.530000e+00
   SN6  C3eh  1 4.300000e-01    2.530000e+00
   SN6  C4eh  1 4.300000e-01    2.770000e+00
   SN6  C5eh  1 4.300000e-01    2.920000e+00
   SN6  C6eh  1 4.300000e-01    3.160000e+00
   SN6  X1vh  1 4.300000e-01    2.530000e+00
   SN6  X2vh  1 4.300000e-01    2.770000e+00
   SN6  X3vh  1 4.300000e-01    2.920000e+00
   SN6  X4vh  1 4.300000e-01    3.160000e+00
   SN6  C1vh  1 4.300000e-01    2.320000e+00
   SN6  C2vh  1 4.300000e-01    2.530000e+00
   SN6  C3vh  1 4.300000e-01    2.530000e+00
   SN6  C4vh  1 4.300000e-01    2.770000e+00
   SN6  C5vh  1 4.300000e-01    2.920000e+00
   SN6  C6vh  1 4.300000e-01    3.160000e+00
   SN6  N1ah  1 4.300000e-01    2.920000e+00
   SN6  N2ah  1 4.300000e-01    2.920000e+00
   SN6  N3ah  1 4.300000e-01    3.160000e+00
   SN6  N4ah  1 4.300000e-01    3.590000e+00
   SN6  N5ah  1 4.300000e-01    3.590000e+00
   SN6  N6ah  1 4.300000e-01    3.590000e+00
   SN6  N1dh  1 4.300000e-01    2.920000e+00
   SN6  N2dh  1 4.300000e-01    2.920000e+00
   SN6  N3dh  1 4.300000e-01    3.160000e+00
   SN6  N4dh  1 4.300000e-01    3.590000e+00
   SN6  N5dh  1 4.300000e-01    3.590000e+00
   SN6  N6dh  1 4.300000e-01    3.590000e+00
   SN6   X1h  1 4.300000e-01    2.320000e+00
   SN6   X2h  1 4.300000e-01    2.530000e+00
   SN6   X3h  1 4.300000e-01    2.770000e+00
   SN6   X4h  1 4.300000e-01    2.920000e+00
   SN6   C1h  1 4.300000e-01    2.160000e+00
   SN6   C2h  1 4.300000e-01    2.320000e+00
   SN6   C3h  1 4.300000e-01    2.320000e+00
   SN6   C4h  1 4.300000e-01    2.530000e+00
   SN6   C5h  1 4.300000e-01    2.770000e+00
   SN6   C6h  1 4.300000e-01    2.920000e+00
   SN6   N1h  1 4.300000e-01    2.920000e+00
   SN6   N2h  1 4.300000e-01    2.920000e+00
   SN6   N3h  1 4.300000e-01    3.160000e+00
   SN6   N4h  1 4.300000e-01    3.590000e+00
   SN6   N5h  1 4.300000e-01    3.590000e+00
   SN6   N6r  1 4.300000e-01    3.590000e+00
   SN6  X1er  1 4.300000e-01    2.530000e+00
   SN6  X2er  1 4.300000e-01    2.770000e+00
   SN6  X3er  1 4.300000e-01    2.920000e+00
   SN6  X4er  1 4.300000e-01    3.160000e+00
   SN6  C1er  1 4.300000e-01    2.320000e+00
   SN6  C2er  1 4.300000e-01    2.530000e+00
   SN6  C3er  1 4.300000e-01    2.530000e+00
   SN6  C4er  1 4.300000e-01    2.770000e+00
   SN6  C5er  1 4.300000e-01    2.920000e+00
   SN6  C6er  1 4.300000e-01    3.160000e+00
   SN6  X1vr  1 4.300000e-01    2.530000e+00
   SN6  X2vr  1 4.300000e-01    2.770000e+00
   SN6  X3vr  1 4.300000e-01    2.920000e+00
   SN6  X4vr  1 4.300000e-01    3.160000e+00
   SN6  C1vr  1 4.300000e-01    2.320000e+00
   SN6  C2vr  1 4.300000e-01    2.530000e+00
   SN6  C3vr  1 4.300000e-01    2.530000e+00
   SN6  C4vr  1 4.300000e-01    2.770000e+00
   SN6  C5vr  1 4.300000e-01    2.920000e+00
   SN6  C6vr  1 4.300000e-01    3.160000e+00
   SN6  N1ar  1 4.300000e-01    2.920000e+00
   SN6  N2ar  1 4.300000e-01    2.920000e+00
   SN6  N3ar  1 4.300000e-01    3.160000e+00
   SN6  N4ar  1 4.300000e-01    3.590000e+00
   SN6  N5ar  1 4.300000e-01    3.590000e+00
   SN6  N6ar  1 4.300000e-01    3.590000e+00
   SN6  N1dr  1 4.300000e-01    2.920000e+00
   SN6  N2dr  1 4.300000e-01    2.920000e+00
   SN6  N3dr  1 4.300000e-01    3.160000e+00
   SN6  N4dr  1 4.300000e-01    3.590000e+00
   SN6  N5dr  1 4.300000e-01    3.590000e+00
   SN6  N6dr  1 4.300000e-01    3.590000e+00
   SN6   X1r  1 4.300000e-01    2.320000e+00
   SN6   X2r  1 4.300000e-01    2.530000e+00
   SN6   X3r  1 4.300000e-01    2.770000e+00
   SN6   X4r  1 4.300000e-01    2.920000e+00
   SN6   C1r  1 4.300000e-01    2.160000e+00
   SN6   C2r  1 4.300000e-01    2.320000e+00
   SN6   C3r  1 4.300000e-01    2.320000e+00
   SN6   C4r  1 4.300000e-01    2.530000e+00
   SN6   C5r  1 4.300000e-01    2.770000e+00
   SN6   C6r  1 4.300000e-01    2.920000e+00
   SN6   N1r  1 4.300000e-01    2.920000e+00
   SN6   N2r  1 4.300000e-01    2.920000e+00
   SN6   N3r  1 4.300000e-01    3.160000e+00
   SN6   N4r  1 4.300000e-01    3.590000e+00
   SN6   N5r  1 4.300000e-01    3.590000e+00
   SN6   SN6  1 4.100000e-01    3.070000e+00
   SN6   SN5  1 4.100000e-01    3.070000e+00
   SN6   SN4  1 4.100000e-01    3.070000e+00
   SN6   SN3  1 4.100000e-01    2.600000e+00
   SN6   SN2  1 4.100000e-01    2.350000e+00
   SN6   SN1  1 4.100000e-01    2.350000e+00
   SN6   SC6  1 4.100000e-01    2.350000e+00
   SN6   SC5  1 4.100000e-01    2.200000e+00
   SN6   SC4  1 4.100000e-01    2.040000e+00
   SN6   SC3  1 4.100000e-01    1.910000e+00
   SN6   SC2  1 4.100000e-01    1.910000e+00
   SN6   SC1  1 4.100000e-01    1.750000e+00
   SN6   SX4  1 4.100000e-01    2.350000e+00
   SN6   SX3  1 4.100000e-01    2.200000e+00
   SN6   SX2  1 4.100000e-01    2.040000e+00
   SN6   SX1  1 4.100000e-01    1.910000e+00
  SP6d   SN6  1 4.100000e-01    3.070000e+00
  SP5d   SN6  1 4.100000e-01    2.840000e+00
  SP4d   SN6  1 4.100000e-01    2.840000e+00
  SP3d   SN6  1 4.100000e-01    2.840000e+00
  SP2d   SN6  1 4.100000e-01    3.070000e+00
  SP1d   SN6  1 4.100000e-01    3.070000e+00
   SN6  SN6d  1 4.100000e-01    3.070000e+00
   SN6  SN1d  1 4.100000e-01    2.350000e+00
   SN6  SN2d  1 4.100000e-01    2.350000e+00
   SN6  SN3d  1 4.100000e-01    2.600000e+00
   SN6  SN4d  1 4.100000e-01    3.070000e+00
   SN6  SN5d  1 4.100000e-01    3.070000e+00
  SP6a   SN6  1 4.100000e-01    3.070000e+00
  SP5a   SN6  1 4.100000e-01    2.840000e+00
  SP4a   SN6  1 4.100000e-01    2.840000e+00
  SP3a   SN6  1 4.100000e-01    2.840000e+00
  SP2a   SN6  1 4.100000e-01    3.070000e+00
  SP1a   SN6  1 4.100000e-01    3.070000e+00
   SN6  SN6a  1 4.100000e-01    3.070000e+00
   SN6  SN1a  1 4.100000e-01    2.350000e+00
   SN6  SN2a  1 4.100000e-01    2.350000e+00
   SN6  SN3a  1 4.100000e-01    2.600000e+00
   SN6  SN4a  1 4.100000e-01    3.070000e+00
   SN6  SN5a  1 4.100000e-01    3.070000e+00
   SN6  SC6v  1 4.100000e-01    2.600000e+00
   SN6  SC5v  1 4.100000e-01    2.350000e+00
   SN6  SC4v  1 4.100000e-01    2.200000e+00
   SN6  SC3v  1 4.100000e-01    2.040000e+00
   SN6  SC2v  1 4.100000e-01    2.040000e+00
   SN6  SC1v  1 4.100000e-01    1.910000e+00
   SN6  SX4v  1 4.100000e-01    2.600000e+00
   SN6  SX3v  1 4.100000e-01    2.350000e+00
   SN6  SX2v  1 4.100000e-01    2.200000e+00
   SN6  SX1v  1 4.100000e-01    2.040000e+00
   SN6  SC6e  1 4.100000e-01    2.600000e+00
   SN6  SC5e  1 4.100000e-01    2.350000e+00
   SN6  SC4e  1 4.100000e-01    2.200000e+00
   SN6  SC3e  1 4.100000e-01    2.040000e+00
   SN6  SC2e  1 4.100000e-01    2.040000e+00
   SN6  SC1e  1 4.100000e-01    1.910000e+00
   SN6  SX4e  1 4.100000e-01    2.600000e+00
   SN6  SX3e  1 4.100000e-01    2.350000e+00
   SN6  SX2e  1 4.100000e-01    2.200000e+00
   SN6  SX1e  1 4.100000e-01    2.040000e+00
  SP6q   SN6  1 4.100000e-01    3.550000e+00
  SP5q   SN6  1 4.100000e-01    3.310000e+00
  SP4q   SN6  1 4.100000e-01    3.310000e+00
  SP3q   SN6  1 4.100000e-01    3.310000e+00
  SP2q   SN6  1 4.100000e-01    3.550000e+00
  SP1q   SN6  1 4.100000e-01    3.550000e+00
   SN6  SN6q  1 4.100000e-01    3.550000e+00
   SN6 SX1eq  1 4.100000e-01    2.350000e+00
   SN6 SX2eq  1 4.100000e-01    2.600000e+00
   SN6 SX3eq  1 4.100000e-01    2.840000e+00
   SN6 SX4eq  1 4.100000e-01    3.070000e+00
   SN6 SC1eq  1 4.100000e-01    2.200000e+00
   SN6 SC2eq  1 4.100000e-01    2.350000e+00
   SN6 SC3eq  1 4.100000e-01    2.350000e+00
   SN6 SC4eq  1 4.100000e-01    2.600000e+00
   SN6 SC5eq  1 4.100000e-01    2.840000e+00
   SN6 SC6eq  1 4.100000e-01    3.070000e+00
   SN6 SX1vq  1 4.100000e-01    2.350000e+00
   SN6 SX2vq  1 4.100000e-01    2.600000e+00
   SN6 SX3vq  1 4.100000e-01    2.840000e+00
   SN6 SX4vq  1 4.100000e-01    3.070000e+00
   SN6 SC1vq  1 4.100000e-01    2.200000e+00
   SN6 SC2vq  1 4.100000e-01    2.350000e+00
   SN6 SC3vq  1 4.100000e-01    2.350000e+00
   SN6 SC4vq  1 4.100000e-01    2.600000e+00
   SN6 SC5vq  1 4.100000e-01    2.840000e+00
   SN6 SC6vq  1 4.100000e-01    3.070000e+00
   SN6 SN1aq  1 4.100000e-01    2.840000e+00
   SN6 SN2aq  1 4.100000e-01    2.840000e+00
   SN6 SN3aq  1 4.100000e-01    3.070000e+00
   SN6 SN4aq  1 4.100000e-01    3.550000e+00
   SN6 SN5aq  1 4.100000e-01    3.550000e+00
   SN6 SN6aq  1 4.100000e-01    3.550000e+00
 SP1aq   SN6  1 4.100000e-01    3.550000e+00
 SP2aq   SN6  1 4.100000e-01    3.550000e+00
 SP3aq   SN6  1 4.100000e-01    3.310000e+00
 SP4aq   SN6  1 4.100000e-01    3.310000e+00
 SP5aq   SN6  1 4.100000e-01    3.310000e+00
 SP6aq   SN6  1 4.100000e-01    3.550000e+00
   SN6 SN1dq  1 4.100000e-01    2.840000e+00
   SN6 SN2dq  1 4.100000e-01    2.840000e+00
   SN6 SN3dq  1 4.100000e-01    3.070000e+00
   SN6 SN4dq  1 4.100000e-01    3.550000e+00
   SN6 SN5dq  1 4.100000e-01    3.550000e+00
   SN6 SN6dq  1 4.100000e-01    3.550000e+00
 SP1dq   SN6  1 4.100000e-01    3.550000e+00
 SP2dq   SN6  1 4.100000e-01    3.550000e+00
 SP3dq   SN6  1 4.100000e-01    3.310000e+00
 SP4dq   SN6  1 4.100000e-01    3.310000e+00
 SP5dq   SN6  1 4.100000e-01    3.310000e+00
 SP6dq   SN6  1 4.100000e-01    3.550000e+00
   SN6  SX1q  1 4.100000e-01    2.200000e+00
   SN6  SX2q  1 4.100000e-01    2.350000e+00
   SN6  SX3q  1 4.100000e-01    2.600000e+00
   SN6  SX4q  1 4.100000e-01    2.840000e+00
   SN6  SC1q  1 4.100000e-01    2.040000e+00
   SN6  SC2q  1 4.100000e-01    2.200000e+00
   SN6  SC3q  1 4.100000e-01    2.200000e+00
   SN6  SC4q  1 4.100000e-01    2.350000e+00
   SN6  SC5q  1 4.100000e-01    2.600000e+00
   SN6  SC6q  1 4.100000e-01    2.840000e+00
   SN6  SN1q  1 4.100000e-01    2.840000e+00
   SN6  SN2q  1 4.100000e-01    2.840000e+00
   SN6  SN3q  1 4.100000e-01    3.070000e+00
   SN6  SN4q  1 4.100000e-01    3.550000e+00
   SN6  SN5q  1 4.100000e-01    3.550000e+00
  SP6h   SN6  1 4.100000e-01    3.070000e+00
  SP5h   SN6  1 4.100000e-01    2.840000e+00
  SP4h   SN6  1 4.100000e-01    2.840000e+00
  SP3h   SN6  1 4.100000e-01    2.840000e+00
  SP2h   SN6  1 4.100000e-01    3.070000e+00
  SP1h   SN6  1 4.100000e-01    3.070000e+00
   SN6  SN6h  1 4.100000e-01    3.070000e+00
   SN6 SX1eh  1 4.100000e-01    2.040000e+00
   SN6 SX2eh  1 4.100000e-01    2.200000e+00
   SN6 SX3eh  1 4.100000e-01    2.350000e+00
   SN6 SX4eh  1 4.100000e-01    2.600000e+00
   SN6 SC1eh  1 4.100000e-01    1.910000e+00
   SN6 SC2eh  1 4.100000e-01    2.040000e+00
   SN6 SC3eh  1 4.100000e-01    2.040000e+00
   SN6 SC4eh  1 4.100000e-01    2.200000e+00
   SN6 SC5eh  1 4.100000e-01    2.350000e+00
   SN6 SC6eh  1 4.100000e-01    2.600000e+00
   SN6 SX1vh  1 4.100000e-01    2.040000e+00
   SN6 SX2vh  1 4.100000e-01    2.200000e+00
   SN6 SX3vh  1 4.100000e-01    2.350000e+00
   SN6 SX4vh  1 4.100000e-01    2.600000e+00
   SN6 SC1vh  1 4.100000e-01    1.910000e+00
   SN6 SC2vh  1 4.100000e-01    2.040000e+00
   SN6 SC3vh  1 4.100000e-01    2.040000e+00
   SN6 SC4vh  1 4.100000e-01    2.200000e+00
   SN6 SC5vh  1 4.100000e-01    2.350000e+00
   SN6 SC6vh  1 4.100000e-01    2.600000e+00
   SN6 SN1ah  1 4.100000e-01    2.350000e+00
   SN6 SN2ah  1 4.100000e-01    2.350000e+00
   SN6 SN3ah  1 4.100000e-01    2.600000e+00
   SN6 SN4ah  1 4.100000e-01    3.070000e+00
   SN6 SN5ah  1 4.100000e-01    3.070000e+00
   SN6 SN6ah  1 4.100000e-01    3.070000e+00
 SP1ah   SN6  1 4.100000e-01    3.070000e+00
 SP2ah   SN6  1 4.100000e-01    3.070000e+00
 SP3ah   SN6  1 4.100000e-01    2.840000e+00
 SP4ah   SN6  1 4.100000e-01    2.840000e+00
 SP5ah   SN6  1 4.100000e-01    2.840000e+00
 SP6ah   SN6  1 4.100000e-01    3.070000e+00
   SN6 SN1dh  1 4.100000e-01    2.350000e+00
   SN6 SN2dh  1 4.100000e-01    2.350000e+00
   SN6 SN3dh  1 4.100000e-01    2.600000e+00
   SN6 SN4dh  1 4.100000e-01    3.070000e+00
   SN6 SN5dh  1 4.100000e-01    3.070000e+00
   SN6 SN6dh  1 4.100000e-01    3.070000e+00
 SP1dh   SN6  1 4.100000e-01    3.070000e+00
 SP2dh   SN6  1 4.100000e-01    3.070000e+00
 SP3dh   SN6  1 4.100000e-01    2.840000e+00
 SP4dh   SN6  1 4.100000e-01    2.840000e+00
 SP5dh   SN6  1 4.100000e-01    2.840000e+00
 SP6dh   SN6  1 4.100000e-01    3.070000e+00
   SN6  SX1h  1 4.100000e-01    1.910000e+00
   SN6  SX2h  1 4.100000e-01    2.040000e+00
   SN6  SX3h  1 4.100000e-01    2.200000e+00
   SN6  SX4h  1 4.100000e-01    2.350000e+00
   SN6  SC1h  1 4.100000e-01    1.750000e+00
   SN6  SC2h  1 4.100000e-01    1.910000e+00
   SN6  SC3h  1 4.100000e-01    1.910000e+00
   SN6  SC4h  1 4.100000e-01    2.040000e+00
   SN6  SC5h  1 4.100000e-01    2.200000e+00
   SN6  SC6h  1 4.100000e-01    2.350000e+00
   SN6  SN1h  1 4.100000e-01    2.350000e+00
   SN6  SN2h  1 4.100000e-01    2.350000e+00
   SN6  SN3h  1 4.100000e-01    2.600000e+00
   SN6  SN4h  1 4.100000e-01    3.070000e+00
   SN6  SN5h  1 4.100000e-01    3.070000e+00
  SP6r   SN6  1 4.100000e-01    3.070000e+00
  SP5r   SN6  1 4.100000e-01    2.840000e+00
  SP4r   SN6  1 4.100000e-01    2.840000e+00
  SP3r   SN6  1 4.100000e-01    2.840000e+00
  SP2r   SN6  1 4.100000e-01    3.070000e+00
  SP1r   SN6  1 4.100000e-01    3.070000e+00
   SN6  SN6r  1 4.100000e-01    3.070000e+00
   SN6 SX1er  1 4.100000e-01    2.040000e+00
   SN6 SX2er  1 4.100000e-01    2.200000e+00
   SN6 SX3er  1 4.100000e-01    2.350000e+00
   SN6 SX4er  1 4.100000e-01    2.600000e+00
   SN6 SC1er  1 4.100000e-01    1.910000e+00
   SN6 SC2er  1 4.100000e-01    2.040000e+00
   SN6 SC3er  1 4.100000e-01    2.040000e+00
   SN6 SC4er  1 4.100000e-01    2.200000e+00
   SN6 SC5er  1 4.100000e-01    2.350000e+00
   SN6 SC6er  1 4.100000e-01    2.600000e+00
   SN6 SX1vr  1 4.100000e-01    2.040000e+00
   SN6 SX2vr  1 4.100000e-01    2.200000e+00
   SN6 SX3vr  1 4.100000e-01    2.350000e+00
   SN6 SX4vr  1 4.100000e-01    2.600000e+00
   SN6 SC1vr  1 4.100000e-01    1.910000e+00
   SN6 SC2vr  1 4.100000e-01    2.040000e+00
   SN6 SC3vr  1 4.100000e-01    2.040000e+00
   SN6 SC4vr  1 4.100000e-01    2.200000e+00
   SN6 SC5vr  1 4.100000e-01    2.350000e+00
   SN6 SC6vr  1 4.100000e-01    2.600000e+00
   SN6 SN1ar  1 4.100000e-01    2.350000e+00
   SN6 SN2ar  1 4.100000e-01    2.350000e+00
   SN6 SN3ar  1 4.100000e-01    2.600000e+00
   SN6 SN4ar  1 4.100000e-01    3.070000e+00
   SN6 SN5ar  1 4.100000e-01    3.070000e+00
   SN6 SN6ar  1 4.100000e-01    3.070000e+00
 SP1ar   SN6  1 4.100000e-01    3.070000e+00
 SP2ar   SN6  1 4.100000e-01    3.070000e+00
 SP3ar   SN6  1 4.100000e-01    2.840000e+00
 SP4ar   SN6  1 4.100000e-01    2.840000e+00
 SP5ar   SN6  1 4.100000e-01    2.840000e+00
 SP6ar   SN6  1 4.100000e-01    3.070000e+00
   SN6 SN1dr  1 4.100000e-01    2.350000e+00
   SN6 SN2dr  1 4.100000e-01    2.350000e+00
   SN6 SN3dr  1 4.100000e-01    2.600000e+00
   SN6 SN4dr  1 4.100000e-01    3.070000e+00
   SN6 SN5dr  1 4.100000e-01    3.070000e+00
   SN6 SN6dr  1 4.100000e-01    3.070000e+00
 SP1dr   SN6  1 4.100000e-01    3.070000e+00
 SP2dr   SN6  1 4.100000e-01    3.070000e+00
 SP3dr   SN6  1 4.100000e-01    2.840000e+00
 SP4dr   SN6  1 4.100000e-01    2.840000e+00
 SP5dr   SN6  1 4.100000e-01    2.840000e+00
 SP6dr   SN6  1 4.100000e-01    3.070000e+00
   SN6  SX1r  1 4.100000e-01    1.910000e+00
   SN6  SX2r  1 4.100000e-01    2.040000e+00
   SN6  SX3r  1 4.100000e-01    2.200000e+00
   SN6  SX4r  1 4.100000e-01    2.350000e+00
   SN6  SC1r  1 4.100000e-01    1.750000e+00
   SN6  SC2r  1 4.100000e-01    1.910000e+00
   SN6  SC3r  1 4.100000e-01    1.910000e+00
   SN6  SC4r  1 4.100000e-01    2.040000e+00
   SN6  SC5r  1 4.100000e-01    2.200000e+00
   SN6  SC6r  1 4.100000e-01    2.350000e+00
   SN6  SN1r  1 4.100000e-01    2.350000e+00
   SN6  SN2r  1 4.100000e-01    2.350000e+00
   SN6  SN3r  1 4.100000e-01    2.600000e+00
   SN6  SN4r  1 4.100000e-01    3.070000e+00
   SN6  SN5r  1 4.100000e-01    3.070000e+00
   SN6   TN6  1 3.650000e-01    2.570000e+00
   SN6   TN5  1 3.650000e-01    2.570000e+00
   SN6   TN4  1 3.650000e-01    2.570000e+00
   SN6   TN3  1 3.650000e-01    2.110000e+00
   SN6   TN2  1 3.650000e-01    1.910000e+00
   SN6   TN1  1 3.650000e-01    1.910000e+00
   SN6   TC6  1 3.650000e-01    1.910000e+00
   SN6   TC5  1 3.650000e-01    1.750000e+00
   SN6   TC4  1 3.660000e-01    1.600000e+00
   SN6   TC3  1 3.780000e-01    1.450000e+00
   SN6   TC2  1 3.780000e-01    1.450000e+00
   SN6   TC1  1 3.940000e-01    1.290000e+00
   SN6   TX4  1 3.650000e-01    1.910000e+00
   SN6   TX3  1 3.650000e-01    1.750000e+00
   SN6   TX2  1 3.660000e-01    1.600000e+00
   SN6   TX1  1 3.780000e-01    1.450000e+00
   SN6  TN6d  1 3.650000e-01    2.570000e+00
   SN6  TN1d  1 3.650000e-01    1.910000e+00
   SN6  TN2d  1 3.650000e-01    1.910000e+00
   SN6  TN3d  1 3.650000e-01    2.110000e+00
   SN6  TN4d  1 3.650000e-01    2.570000e+00
   SN6  TN5d  1 3.650000e-01    2.570000e+00
   SN6  TN6a  1 3.650000e-01    2.570000e+00
   SN6  TN1a  1 3.650000e-01    1.910000e+00
   SN6  TN2a  1 3.650000e-01    1.910000e+00
   SN6  TN3a  1 3.650000e-01    2.110000e+00
   SN6  TN4a  1 3.650000e-01    2.570000e+00
   SN6  TN5a  1 3.650000e-01    2.570000e+00
   SN6  TC6v  1 3.650000e-01    2.110000e+00
   SN6  TC5v  1 3.650000e-01    1.910000e+00
   SN6  TC4v  1 3.650000e-01    1.750000e+00
   SN6  TC3v  1 3.660000e-01    1.600000e+00
   SN6  TC2v  1 3.660000e-01    1.600000e+00
   SN6  TC1v  1 3.780000e-01    1.450000e+00
   SN6  TX4v  1 3.650000e-01    2.110000e+00
   SN6  TX3v  1 3.650000e-01    1.910000e+00
   SN6  TX2v  1 3.650000e-01    1.750000e+00
   SN6  TX1v  1 3.660000e-01    1.600000e+00
   SN6  TC6e  1 3.650000e-01    2.110000e+00
   SN6  TC5e  1 3.650000e-01    1.910000e+00
   SN6  TC4e  1 3.650000e-01    1.750000e+00
   SN6  TC3e  1 3.660000e-01    1.600000e+00
   SN6  TC2e  1 3.660000e-01    1.600000e+00
   SN6  TC1e  1 3.780000e-01    1.450000e+00
   SN6  TX4e  1 3.650000e-01    2.110000e+00
   SN6  TX3e  1 3.650000e-01    1.910000e+00
   SN6  TX2e  1 3.650000e-01    1.750000e+00
   SN6  TX1e  1 3.660000e-01    1.600000e+00
   SN6  TN6q  1 3.650000e-01    3.100000e+00
   SN6 TX1eq  1 3.650000e-01    1.910000e+00
   SN6 TX2eq  1 3.650000e-01    2.110000e+00
   SN6 TX3eq  1 3.650000e-01    2.340000e+00
   SN6 TX4eq  1 3.650000e-01    2.570000e+00
   SN6 TC1eq  1 3.650000e-01    1.750000e+00
   SN6 TC2eq  1 3.650000e-01    1.910000e+00
   SN6 TC3eq  1 3.650000e-01    1.910000e+00
   SN6 TC4eq  1 3.650000e-01    2.110000e+00
   SN6 TC5eq  1 3.650000e-01    2.340000e+00
   SN6 TC6eq  1 3.650000e-01    2.570000e+00
   SN6 TX1vq  1 3.650000e-01    1.910000e+00
   SN6 TX2vq  1 3.650000e-01    2.110000e+00
   SN6 TX3vq  1 3.650000e-01    2.340000e+00
   SN6 TX4vq  1 3.650000e-01    2.570000e+00
   SN6 TC1vq  1 3.650000e-01    1.750000e+00
   SN6 TC2vq  1 3.650000e-01    1.910000e+00
   SN6 TC3vq  1 3.650000e-01    1.910000e+00
   SN6 TC4vq  1 3.650000e-01    2.110000e+00
   SN6 TC5vq  1 3.650000e-01    2.340000e+00
   SN6 TC6vq  1 3.650000e-01    2.570000e+00
   SN6 TN1aq  1 3.650000e-01    2.340000e+00
   SN6 TN2aq  1 3.650000e-01    2.340000e+00
   SN6 TN3aq  1 3.650000e-01    2.570000e+00
   SN6 TN4aq  1 3.650000e-01    3.100000e+00
   SN6 TN5aq  1 3.650000e-01    3.100000e+00
   SN6 TN6aq  1 3.650000e-01    3.100000e+00
   SN6 TN1dq  1 3.650000e-01    2.340000e+00
   SN6 TN2dq  1 3.650000e-01    2.340000e+00
   SN6 TN3dq  1 3.650000e-01    2.570000e+00
   SN6 TN4dq  1 3.650000e-01    3.100000e+00
   SN6 TN5dq  1 3.650000e-01    3.100000e+00
   SN6 TN6dq  1 3.650000e-01    3.100000e+00
   SN6  TX1q  1 3.650000e-01    1.750000e+00
   SN6  TX2q  1 3.650000e-01    1.910000e+00
   SN6  TX3q  1 3.650000e-01    2.110000e+00
   SN6  TX4q  1 3.650000e-01    2.340000e+00
   SN6  TC1q  1 3.660000e-01    1.600000e+00
   SN6  TC2q  1 3.650000e-01    1.750000e+00
   SN6  TC3q  1 3.650000e-01    1.750000e+00
   SN6  TC4q  1 3.650000e-01    1.910000e+00
   SN6  TC5q  1 3.650000e-01    2.110000e+00
   SN6  TC6q  1 3.650000e-01    2.340000e+00
   SN6  TN1q  1 3.650000e-01    2.340000e+00
   SN6  TN2q  1 3.650000e-01    2.340000e+00
   SN6  TN3q  1 3.650000e-01    2.570000e+00
   SN6  TN4q  1 3.650000e-01    3.100000e+00
   SN6  TN5q  1 3.650000e-01    3.100000e+00
   SN6  TN6h  1 3.650000e-01    2.570000e+00
   SN6 TX1eh  1 3.660000e-01    1.600000e+00
   SN6 TX2eh  1 3.650000e-01    1.750000e+00
   SN6 TX3eh  1 3.650000e-01    1.910000e+00
   SN6 TX4eh  1 3.650000e-01    2.110000e+00
   SN6 TC1eh  1 3.780000e-01    1.450000e+00
   SN6 TC2eh  1 3.660000e-01    1.600000e+00
   SN6 TC3eh  1 3.660000e-01    1.600000e+00
   SN6 TC4eh  1 3.650000e-01    1.750000e+00
   SN6 TC5eh  1 3.650000e-01    1.910000e+00
   SN6 TC6eh  1 3.650000e-01    2.110000e+00
   SN6 TX1vh  1 3.660000e-01    1.600000e+00
   SN6 TX2vh  1 3.650000e-01    1.750000e+00
   SN6 TX3vh  1 3.650000e-01    1.910000e+00
   SN6 TX4vh  1 3.650000e-01    2.110000e+00
   SN6 TC1vh  1 3.780000e-01    1.450000e+00
   SN6 TC2vh  1 3.660000e-01    1.600000e+00
   SN6 TC3vh  1 3.660000e-01    1.600000e+00
   SN6 TC4vh  1 3.650000e-01    1.750000e+00
   SN6 TC5vh  1 3.650000e-01    1.910000e+00
   SN6 TC6vh  1 3.650000e-01    2.110000e+00
   SN6 TN1ah  1 3.650000e-01    1.910000e+00
   SN6 TN2ah  1 3.650000e-01    1.910000e+00
   SN6 TN3ah  1 3.650000e-01    2.110000e+00
   SN6 TN4ah  1 3.650000e-01    2.570000e+00
   SN6 TN5ah  1 3.650000e-01    2.570000e+00
   SN6 TN6ah  1 3.650000e-01    2.570000e+00
   SN6 TN1dh  1 3.650000e-01    1.910000e+00
   SN6 TN2dh  1 3.650000e-01    1.910000e+00
   SN6 TN3dh  1 3.650000e-01    2.110000e+00
   SN6 TN4dh  1 3.650000e-01    2.570000e+00
   SN6 TN5dh  1 3.650000e-01    2.570000e+00
   SN6 TN6dh  1 3.650000e-01    2.570000e+00
   SN6  TX1h  1 3.780000e-01    1.450000e+00
   SN6  TX2h  1 3.660000e-01    1.600000e+00
   SN6  TX3h  1 3.650000e-01    1.750000e+00
   SN6  TX4h  1 3.650000e-01    1.910000e+00
   SN6  TC1h  1 3.940000e-01    1.290000e+00
   SN6  TC2h  1 3.780000e-01    1.450000e+00
   SN6  TC3h  1 3.780000e-01    1.450000e+00
   SN6  TC4h  1 3.660000e-01    1.600000e+00
   SN6  TC5h  1 3.650000e-01    1.750000e+00
   SN6  TC6h  1 3.650000e-01    1.910000e+00
   SN6  TN1h  1 3.650000e-01    1.910000e+00
   SN6  TN2h  1 3.650000e-01    1.910000e+00
   SN6  TN3h  1 3.650000e-01    2.110000e+00
   SN6  TN4h  1 3.650000e-01    2.570000e+00
   SN6  TN5h  1 3.650000e-01    2.570000e+00
   SN6  TN6r  1 3.650000e-01    2.570000e+00
   SN6 TX1er  1 3.660000e-01    1.600000e+00
   SN6 TX2er  1 3.650000e-01    1.750000e+00
   SN6 TX3er  1 3.650000e-01    1.910000e+00
   SN6 TX4er  1 3.650000e-01    2.110000e+00
   SN6 TC1er  1 3.780000e-01    1.450000e+00
   SN6 TC2er  1 3.660000e-01    1.600000e+00
   SN6 TC3er  1 3.660000e-01    1.600000e+00
   SN6 TC4er  1 3.650000e-01    1.750000e+00
   SN6 TC5er  1 3.650000e-01    1.910000e+00
   SN6 TC6er  1 3.650000e-01    2.110000e+00
   SN6 TX1vr  1 3.660000e-01    1.600000e+00
   SN6 TX2vr  1 3.650000e-01    1.750000e+00
   SN6 TX3vr  1 3.650000e-01    1.910000e+00
   SN6 TX4vr  1 3.650000e-01    2.110000e+00
   SN6 TC1vr  1 3.780000e-01    1.450000e+00
   SN6 TC2vr  1 3.660000e-01    1.600000e+00
   SN6 TC3vr  1 3.660000e-01    1.600000e+00
   SN6 TC4vr  1 3.650000e-01    1.750000e+00
   SN6 TC5vr  1 3.650000e-01    1.910000e+00
   SN6 TC6vr  1 3.650000e-01    2.110000e+00
   SN6 TN1ar  1 3.650000e-01    1.910000e+00
   SN6 TN2ar  1 3.650000e-01    1.910000e+00
   SN6 TN3ar  1 3.650000e-01    2.110000e+00
   SN6 TN4ar  1 3.650000e-01    2.570000e+00
   SN6 TN5ar  1 3.650000e-01    2.570000e+00
   SN6 TN6ar  1 3.650000e-01    2.570000e+00
   SN6 TN1dr  1 3.650000e-01    1.910000e+00
   SN6 TN2dr  1 3.650000e-01    1.910000e+00
   SN6 TN3dr  1 3.650000e-01    2.110000e+00
   SN6 TN4dr  1 3.650000e-01    2.570000e+00
   SN6 TN5dr  1 3.650000e-01    2.570000e+00
   SN6 TN6dr  1 3.650000e-01    2.570000e+00
   SN6  TX1r  1 3.780000e-01    1.450000e+00
   SN6  TX2r  1 3.660000e-01    1.600000e+00
   SN6  TX3r  1 3.650000e-01    1.750000e+00
   SN6  TX4r  1 3.650000e-01    1.910000e+00
   SN6  TC1r  1 3.940000e-01    1.290000e+00
   SN6  TC2r  1 3.780000e-01    1.450000e+00
   SN6  TC3r  1 3.780000e-01    1.450000e+00
   SN6  TC4r  1 3.660000e-01    1.600000e+00
   SN6  TC5r  1 3.650000e-01    1.750000e+00
   SN6  TC6r  1 3.650000e-01    1.910000e+00
   SN6  TN1r  1 3.650000e-01    1.910000e+00
   SN6  TN2r  1 3.650000e-01    1.910000e+00
   SN6  TN3r  1 3.650000e-01    2.110000e+00
   SN6  TN4r  1 3.650000e-01    2.570000e+00
   SN6  TN5r  1 3.650000e-01    2.570000e+00
  TP6d   SN6  1 3.650000e-01    2.570000e+00
  TP5d   SN6  1 3.650000e-01    2.340000e+00
  TP4d   SN6  1 3.650000e-01    2.340000e+00
  TP3d   SN6  1 3.650000e-01    2.340000e+00
  TP2d   SN6  1 3.650000e-01    2.570000e+00
  TP1d   SN6  1 3.650000e-01    2.570000e+00
  TP6a   SN6  1 3.650000e-01    2.570000e+00
  TP5a   SN6  1 3.650000e-01    2.340000e+00
  TP4a   SN6  1 3.650000e-01    2.340000e+00
  TP3a   SN6  1 3.650000e-01    2.340000e+00
  TP2a   SN6  1 3.650000e-01    2.570000e+00
  TP1a   SN6  1 3.650000e-01    2.570000e+00
  TP6q   SN6  1 3.650000e-01    3.100000e+00
  TP5q   SN6  1 3.650000e-01    2.830000e+00
  TP4q   SN6  1 3.650000e-01    2.830000e+00
  TP3q   SN6  1 3.650000e-01    2.830000e+00
  TP2q   SN6  1 3.650000e-01    3.100000e+00
  TP1q   SN6  1 3.650000e-01    3.100000e+00
 TP1aq   SN6  1 3.650000e-01    3.100000e+00
 TP2aq   SN6  1 3.650000e-01    3.100000e+00
 TP3aq   SN6  1 3.650000e-01    2.830000e+00
 TP4aq   SN6  1 3.650000e-01    2.830000e+00
 TP5aq   SN6  1 3.650000e-01    2.830000e+00
 TP6aq   SN6  1 3.650000e-01    3.100000e+00
 TP1dq   SN6  1 3.650000e-01    3.100000e+00
 TP2dq   SN6  1 3.650000e-01    3.100000e+00
 TP3dq   SN6  1 3.650000e-01    2.830000e+00
 TP4dq   SN6  1 3.650000e-01    2.830000e+00
 TP5dq   SN6  1 3.650000e-01    2.830000e+00
 TP6dq   SN6  1 3.650000e-01    3.100000e+00
  TP6h   SN6  1 3.650000e-01    2.570000e+00
  TP5h   SN6  1 3.650000e-01    2.340000e+00
  TP4h   SN6  1 3.650000e-01    2.340000e+00
  TP3h   SN6  1 3.650000e-01    2.340000e+00
  TP2h   SN6  1 3.650000e-01    2.570000e+00
  TP1h   SN6  1 3.650000e-01    2.570000e+00
 TP1ah   SN6  1 3.650000e-01    2.570000e+00
 TP2ah   SN6  1 3.650000e-01    2.570000e+00
 TP3ah   SN6  1 3.650000e-01    2.340000e+00
 TP4ah   SN6  1 3.650000e-01    2.340000e+00
 TP5ah   SN6  1 3.650000e-01    2.340000e+00
 TP6ah   SN6  1 3.650000e-01    2.570000e+00
 TP1dh   SN6  1 3.650000e-01    2.570000e+00
 TP2dh   SN6  1 3.650000e-01    2.570000e+00
 TP3dh   SN6  1 3.650000e-01    2.340000e+00
 TP4dh   SN6  1 3.650000e-01    2.340000e+00
 TP5dh   SN6  1 3.650000e-01    2.340000e+00
 TP6dh   SN6  1 3.650000e-01    2.570000e+00
  TP6r   SN6  1 3.650000e-01    2.570000e+00
  TP5r   SN6  1 3.650000e-01    2.340000e+00
  TP4r   SN6  1 3.650000e-01    2.340000e+00
  TP3r   SN6  1 3.650000e-01    2.340000e+00
  TP2r   SN6  1 3.650000e-01    2.570000e+00
  TP1r   SN6  1 3.650000e-01    2.570000e+00
 TP1ar   SN6  1 3.650000e-01    2.570000e+00
 TP2ar   SN6  1 3.650000e-01    2.570000e+00
 TP3ar   SN6  1 3.650000e-01    2.340000e+00
 TP4ar   SN6  1 3.650000e-01    2.340000e+00
 TP5ar   SN6  1 3.650000e-01    2.340000e+00
 TP6ar   SN6  1 3.650000e-01    2.570000e+00
 TP1dr   SN6  1 3.650000e-01    2.570000e+00
 TP2dr   SN6  1 3.650000e-01    2.570000e+00
 TP3dr   SN6  1 3.650000e-01    2.340000e+00
 TP4dr   SN6  1 3.650000e-01    2.340000e+00
 TP5dr   SN6  1 3.650000e-01    2.340000e+00
 TP6dr   SN6  1 3.650000e-01    2.570000e+00
   P6d   TN6  1 3.950000e-01    2.940000e+00
   P5d   TN6  1 3.950000e-01    2.700000e+00
   P4d   TN6  1 3.950000e-01    2.700000e+00
   P3d   TN6  1 3.950000e-01    2.700000e+00
   P2d   TN6  1 3.950000e-01    2.940000e+00
   P1d   TN6  1 3.950000e-01    2.940000e+00
   P6a   TN6  1 3.950000e-01    2.940000e+00
   P5a   TN6  1 3.950000e-01    2.700000e+00
   P4a   TN6  1 3.950000e-01    2.700000e+00
   P3a   TN6  1 3.950000e-01    2.700000e+00
   P2a   TN6  1 3.950000e-01    2.940000e+00
   P1a   TN6  1 3.950000e-01    2.940000e+00
   P6q   TN6  1 3.950000e-01    3.430000e+00
   P5q   TN6  1 3.950000e-01    3.190000e+00
   P4q   TN6  1 3.950000e-01    3.190000e+00
   P3q   TN6  1 3.950000e-01    3.190000e+00
   P2q   TN6  1 3.950000e-01    3.430000e+00
   P1q   TN6  1 3.950000e-01    3.430000e+00
  P1aq   TN6  1 3.950000e-01    3.430000e+00
  P2aq   TN6  1 3.950000e-01    3.430000e+00
  P3aq   TN6  1 3.950000e-01    3.190000e+00
  P4aq   TN6  1 3.950000e-01    3.190000e+00
  P5aq   TN6  1 3.950000e-01    3.190000e+00
  P6aq   TN6  1 3.950000e-01    3.430000e+00
  P1dq   TN6  1 3.950000e-01    3.430000e+00
  P2dq   TN6  1 3.950000e-01    3.430000e+00
  P3dq   TN6  1 3.950000e-01    3.190000e+00
  P4dq   TN6  1 3.950000e-01    3.190000e+00
  P5dq   TN6  1 3.950000e-01    3.190000e+00
  P6dq   TN6  1 3.950000e-01    3.430000e+00
   P6h   TN6  1 3.950000e-01    2.940000e+00
   P5h   TN6  1 3.950000e-01    2.700000e+00
   P4h   TN6  1 3.950000e-01    2.700000e+00
   P3h   TN6  1 3.950000e-01    2.700000e+00
   P2h   TN6  1 3.950000e-01    2.940000e+00
   P1h   TN6  1 3.950000e-01    2.940000e+00
  P1ah   TN6  1 3.950000e-01    2.940000e+00
  P2ah   TN6  1 3.950000e-01    2.940000e+00
  P3ah   TN6  1 3.950000e-01    2.700000e+00
  P4ah   TN6  1 3.950000e-01    2.700000e+00
  P5ah   TN6  1 3.950000e-01    2.700000e+00
  P6ah   TN6  1 3.950000e-01    2.940000e+00
  P1dh   TN6  1 3.950000e-01    2.940000e+00
  P2dh   TN6  1 3.950000e-01    2.940000e+00
  P3dh   TN6  1 3.950000e-01    2.700000e+00
  P4dh   TN6  1 3.950000e-01    2.700000e+00
  P5dh   TN6  1 3.950000e-01    2.700000e+00
  P6dh   TN6  1 3.950000e-01    2.940000e+00
   P6r   TN6  1 3.950000e-01    2.940000e+00
   P5r   TN6  1 3.950000e-01    2.700000e+00
   P4r   TN6  1 3.950000e-01    2.700000e+00
   P3r   TN6  1 3.950000e-01    2.700000e+00
   P2r   TN6  1 3.950000e-01    2.940000e+00
   P1r   TN6  1 3.950000e-01    2.940000e+00
  P1ar   TN6  1 3.950000e-01    2.940000e+00
  P2ar   TN6  1 3.950000e-01    2.940000e+00
  P3ar   TN6  1 3.950000e-01    2.700000e+00
  P4ar   TN6  1 3.950000e-01    2.700000e+00
  P5ar   TN6  1 3.950000e-01    2.700000e+00
  P6ar   TN6  1 3.950000e-01    2.940000e+00
  P1dr   TN6  1 3.950000e-01    2.940000e+00
  P2dr   TN6  1 3.950000e-01    2.940000e+00
  P3dr   TN6  1 3.950000e-01    2.700000e+00
  P4dr   TN6  1 3.950000e-01    2.700000e+00
  P5dr   TN6  1 3.950000e-01    2.700000e+00
  P6dr   TN6  1 3.950000e-01    2.940000e+00
   TN6    N5  1 3.950000e-01    2.940000e+00
   TN6    N4  1 3.950000e-01    2.940000e+00
   TN6    N3  1 3.950000e-01    2.500000e+00
   TN6    N2  1 3.950000e-01    2.310000e+00
   TN6    N1  1 3.950000e-01    2.310000e+00
   TN6    C6  1 3.950000e-01    2.310000e+00
   TN6    C5  1 3.950000e-01    2.110000e+00
   TN6    C4  1 3.950000e-01    1.850000e+00
   TN6    C3  1 3.950000e-01    1.670000e+00
   TN6    C2  1 3.950000e-01    1.670000e+00
   TN6    C1  1 3.980000e-01    1.450000e+00
   TN6    X4  1 3.950000e-01    2.310000e+00
   TN6    X3  1 3.950000e-01    2.110000e+00
   TN6    X2  1 3.950000e-01    1.850000e+00
   TN6    X1  1 3.950000e-01    1.670000e+00
   TN6   N6d  1 3.950000e-01    2.940000e+00
   TN6   N1d  1 3.950000e-01    2.310000e+00
   TN6   N2d  1 3.950000e-01    2.310000e+00
   TN6   N3d  1 3.950000e-01    2.500000e+00
   TN6   N4d  1 3.950000e-01    2.940000e+00
   TN6   N5d  1 3.950000e-01    2.940000e+00
   TN6   N6a  1 3.950000e-01    2.940000e+00
   TN6   N1a  1 3.950000e-01    2.310000e+00
   TN6   N2a  1 3.950000e-01    2.310000e+00
   TN6   N3a  1 3.950000e-01    2.500000e+00
   TN6   N4a  1 3.950000e-01    2.940000e+00
   TN6   N5a  1 3.950000e-01    2.940000e+00
   TN6   C6v  1 3.950000e-01    2.500000e+00
   TN6   C5v  1 3.950000e-01    2.310000e+00
   TN6   C4v  1 3.950000e-01    2.110000e+00
   TN6   C3v  1 3.950000e-01    1.850000e+00
   TN6   C2v  1 3.950000e-01    1.850000e+00
   TN6   C1v  1 3.950000e-01    1.670000e+00
   TN6   X4v  1 3.950000e-01    2.500000e+00
   TN6   X3v  1 3.950000e-01    2.310000e+00
   TN6   X2v  1 3.950000e-01    2.110000e+00
   TN6   X1v  1 3.950000e-01    1.850000e+00
   TN6   C6e  1 3.950000e-01    2.500000e+00
   TN6   C5e  1 3.950000e-01    2.310000e+00
   TN6   C4e  1 3.950000e-01    2.110000e+00
   TN6   C3e  1 3.950000e-01    1.850000e+00
   TN6   C2e  1 3.950000e-01    1.850000e+00
   TN6   C1e  1 3.950000e-01    1.670000e+00
   TN6   X4e  1 3.950000e-01    2.500000e+00
   TN6   X3e  1 3.950000e-01    2.310000e+00
   TN6   X2e  1 3.950000e-01    2.110000e+00
   TN6   X1e  1 3.950000e-01    1.850000e+00
   TN6   N6q  1 3.950000e-01    3.430000e+00
   TN6  X1eq  1 3.950000e-01    2.310000e+00
   TN6  X2eq  1 3.950000e-01    2.500000e+00
   TN6  X3eq  1 3.950000e-01    2.700000e+00
   TN6  X4eq  1 3.950000e-01    2.940000e+00
   TN6  C1eq  1 3.950000e-01    2.110000e+00
   TN6  C2eq  1 3.950000e-01    2.310000e+00
   TN6  C3eq  1 3.950000e-01    2.310000e+00
   TN6  C4eq  1 3.950000e-01    2.500000e+00
   TN6  C5eq  1 3.950000e-01    2.700000e+00
   TN6  C6eq  1 3.950000e-01    2.940000e+00
   TN6  X1vq  1 3.950000e-01    2.310000e+00
   TN6  X2vq  1 3.950000e-01    2.500000e+00
   TN6  X3vq  1 3.950000e-01    2.700000e+00
   TN6  X4vq  1 3.950000e-01    2.940000e+00
   TN6  C1vq  1 3.950000e-01    2.110000e+00
   TN6  C2vq  1 3.950000e-01    2.310000e+00
   TN6  C3vq  1 3.950000e-01    2.310000e+00
   TN6  C4vq  1 3.950000e-01    2.500000e+00
   TN6  C5vq  1 3.950000e-01    2.700000e+00
   TN6  C6vq  1 3.950000e-01    2.940000e+00
   TN6  N1aq  1 3.950000e-01    2.700000e+00
   TN6  N2aq  1 3.950000e-01    2.700000e+00
   TN6  N3aq  1 3.950000e-01    2.940000e+00
   TN6  N4aq  1 3.950000e-01    3.430000e+00
   TN6  N5aq  1 3.950000e-01    3.430000e+00
   TN6  N6aq  1 3.950000e-01    3.430000e+00
   TN6  N1dq  1 3.950000e-01    2.700000e+00
   TN6  N2dq  1 3.950000e-01    2.700000e+00
   TN6  N3dq  1 3.950000e-01    2.940000e+00
   TN6  N4dq  1 3.950000e-01    3.430000e+00
   TN6  N5dq  1 3.950000e-01    3.430000e+00
   TN6  N6dq  1 3.950000e-01    3.430000e+00
   TN6   X1q  1 3.950000e-01    2.110000e+00
   TN6   X2q  1 3.950000e-01    2.310000e+00
   TN6   X3q  1 3.950000e-01    2.500000e+00
   TN6   X4q  1 3.950000e-01    2.700000e+00
   TN6   C1q  1 3.950000e-01    1.850000e+00
   TN6   C2q  1 3.950000e-01    2.110000e+00
   TN6   C3q  1 3.950000e-01    2.110000e+00
   TN6   C4q  1 3.950000e-01    2.310000e+00
   TN6   C5q  1 3.950000e-01    2.500000e+00
   TN6   C6q  1 3.950000e-01    2.700000e+00
   TN6   N1q  1 3.950000e-01    2.700000e+00
   TN6   N2q  1 3.950000e-01    2.700000e+00
   TN6   N3q  1 3.950000e-01    2.940000e+00
   TN6   N4q  1 3.950000e-01    3.430000e+00
   TN6   N5q  1 3.950000e-01    3.430000e+00
   TN6   N6h  1 3.950000e-01    2.940000e+00
   TN6  X1eh  1 3.950000e-01    1.850000e+00
   TN6  X2eh  1 3.950000e-01    2.110000e+00
   TN6  X3eh  1 3.950000e-01    2.310000e+00
   TN6  X4eh  1 3.950000e-01    2.500000e+00
   TN6  C1eh  1 3.950000e-01    1.670000e+00
   TN6  C2eh  1 3.950000e-01    1.850000e+00
   TN6  C3eh  1 3.950000e-01    1.850000e+00
   TN6  C4eh  1 3.950000e-01    2.110000e+00
   TN6  C5eh  1 3.950000e-01    2.310000e+00
   TN6  C6eh  1 3.950000e-01    2.500000e+00
   TN6  X1vh  1 3.950000e-01    1.850000e+00
   TN6  X2vh  1 3.950000e-01    2.110000e+00
   TN6  X3vh  1 3.950000e-01    2.310000e+00
   TN6  X4vh  1 3.950000e-01    2.500000e+00
   TN6  C1vh  1 3.950000e-01    1.670000e+00
   TN6  C2vh  1 3.950000e-01    1.850000e+00
   TN6  C3vh  1 3.950000e-01    1.850000e+00
   TN6  C4vh  1 3.950000e-01    2.110000e+00
   TN6  C5vh  1 3.950000e-01    2.310000e+00
   TN6  C6vh  1 3.950000e-01    2.500000e+00
   TN6  N1ah  1 3.950000e-01    2.310000e+00
   TN6  N2ah  1 3.950000e-01    2.310000e+00
   TN6  N3ah  1 3.950000e-01    2.500000e+00
   TN6  N4ah  1 3.950000e-01    2.940000e+00
   TN6  N5ah  1 3.950000e-01    2.940000e+00
   TN6  N6ah  1 3.950000e-01    2.940000e+00
   TN6  N1dh  1 3.950000e-01    2.310000e+00
   TN6  N2dh  1 3.950000e-01    2.310000e+00
   TN6  N3dh  1 3.950000e-01    2.500000e+00
   TN6  N4dh  1 3.950000e-01    2.940000e+00
   TN6  N5dh  1 3.950000e-01    2.940000e+00
   TN6  N6dh  1 3.950000e-01    2.940000e+00
   TN6   X1h  1 3.950000e-01    1.670000e+00
   TN6   X2h  1 3.950000e-01    1.850000e+00
   TN6   X3h  1 3.950000e-01    2.110000e+00
   TN6   X4h  1 3.950000e-01    2.310000e+00
   TN6   C1h  1 3.980000e-01    1.450000e+00
   TN6   C2h  1 3.950000e-01    1.670000e+00
   TN6   C3h  1 3.950000e-01    1.670000e+00
   TN6   C4h  1 3.950000e-01    1.850000e+00
   TN6   C5h  1 3.950000e-01    2.110000e+00
   TN6   C6h  1 3.950000e-01    2.310000e+00
   TN6   N1h  1 3.950000e-01    2.310000e+00
   TN6   N2h  1 3.950000e-01    2.310000e+00
   TN6   N3h  1 3.950000e-01    2.500000e+00
   TN6   N4h  1 3.950000e-01    2.940000e+00
   TN6   N5h  1 3.950000e-01    2.940000e+00
   TN6   N6r  1 3.950000e-01    2.940000e+00
   TN6  X1er  1 3.950000e-01    1.850000e+00
   TN6  X2er  1 3.950000e-01    2.110000e+00
   TN6  X3er  1 3.950000e-01    2.310000e+00
   TN6  X4er  1 3.950000e-01    2.500000e+00
   TN6  C1er  1 3.950000e-01    1.670000e+00
   TN6  C2er  1 3.950000e-01    1.850000e+00
   TN6  C3er  1 3.950000e-01    1.850000e+00
   TN6  C4er  1 3.950000e-01    2.110000e+00
   TN6  C5er  1 3.950000e-01    2.310000e+00
   TN6  C6er  1 3.950000e-01    2.500000e+00
   TN6  X1vr  1 3.950000e-01    1.850000e+00
   TN6  X2vr  1 3.950000e-01    2.110000e+00
   TN6  X3vr  1 3.950000e-01    2.310000e+00
   TN6  X4vr  1 3.950000e-01    2.500000e+00
   TN6  C1vr  1 3.950000e-01    1.670000e+00
   TN6  C2vr  1 3.950000e-01    1.850000e+00
   TN6  C3vr  1 3.950000e-01    1.850000e+00
   TN6  C4vr  1 3.950000e-01    2.110000e+00
   TN6  C5vr  1 3.950000e-01    2.310000e+00
   TN6  C6vr  1 3.950000e-01    2.500000e+00
   TN6  N1ar  1 3.950000e-01    2.310000e+00
   TN6  N2ar  1 3.950000e-01    2.310000e+00
   TN6  N3ar  1 3.950000e-01    2.500000e+00
   TN6  N4ar  1 3.950000e-01    2.940000e+00
   TN6  N5ar  1 3.950000e-01    2.940000e+00
   TN6  N6ar  1 3.950000e-01    2.940000e+00
   TN6  N1dr  1 3.950000e-01    2.310000e+00
   TN6  N2dr  1 3.950000e-01    2.310000e+00
   TN6  N3dr  1 3.950000e-01    2.500000e+00
   TN6  N4dr  1 3.950000e-01    2.940000e+00
   TN6  N5dr  1 3.950000e-01    2.940000e+00
   TN6  N6dr  1 3.950000e-01    2.940000e+00
   TN6   X1r  1 3.950000e-01    1.670000e+00
   TN6   X2r  1 3.950000e-01    1.850000e+00
   TN6   X3r  1 3.950000e-01    2.110000e+00
   TN6   X4r  1 3.950000e-01    2.310000e+00
   TN6   C1r  1 3.980000e-01    1.450000e+00
   TN6   C2r  1 3.950000e-01    1.670000e+00
   TN6   C3r  1 3.950000e-01    1.670000e+00
   TN6   C4r  1 3.950000e-01    1.850000e+00
   TN6   C5r  1 3.950000e-01    2.110000e+00
   TN6   C6r  1 3.950000e-01    2.310000e+00
   TN6   N1r  1 3.950000e-01    2.310000e+00
   TN6   N2r  1 3.950000e-01    2.310000e+00
   TN6   N3r  1 3.950000e-01    2.500000e+00
   TN6   N4r  1 3.950000e-01    2.940000e+00
   TN6   N5r  1 3.950000e-01    2.940000e+00
   TN6   TN6  1 3.400000e-01    2.280000e+00
   TN6   TN5  1 3.400000e-01    2.280000e+00
   TN6   TN4  1 3.400000e-01    2.280000e+00
   TN6   TN3  1 3.400000e-01    1.770000e+00
   TN6   TN2  1 3.400000e-01    1.510000e+00
   TN6   TN1  1 3.400000e-01    1.510000e+00
   TN6   TC6  1 3.400000e-01    1.510000e+00
   TN6   TC5  1 3.400000e-01    1.230000e+00
   TN6   TC4  1 3.520000e-01    1.050000e+00
   TN6   TC3  1 3.660000e-01    9.350000e-01
   TN6   TC2  1 3.660000e-01    9.350000e-01
   TN6   TC1  1 3.850000e-01    8.550000e-01
   TN6   TX4  1 3.400000e-01    1.510000e+00
   TN6   TX3  1 3.400000e-01    1.230000e+00
   TN6   TX2  1 3.520000e-01    1.050000e+00
   TN6   TX1  1 3.660000e-01    9.350000e-01
  TP6d   TN6  1 3.400000e-01    2.280000e+00
  TP5d   TN6  1 3.400000e-01    2.020000e+00
  TP4d   TN6  1 3.400000e-01    2.020000e+00
  TP3d   TN6  1 3.400000e-01    2.020000e+00
  TP2d   TN6  1 3.400000e-01    2.280000e+00
  TP1d   TN6  1 3.400000e-01    2.280000e+00
   TN6  TN6d  1 3.400000e-01    2.280000e+00
   TN6  TN1d  1 3.400000e-01    1.510000e+00
   TN6  TN2d  1 3.400000e-01    1.510000e+00
   TN6  TN3d  1 3.400000e-01    1.770000e+00
   TN6  TN4d  1 3.400000e-01    2.280000e+00
   TN6  TN5d  1 3.400000e-01    2.280000e+00
  TP6a   TN6  1 3.400000e-01    2.280000e+00
  TP5a   TN6  1 3.400000e-01    2.020000e+00
  TP4a   TN6  1 3.400000e-01    2.020000e+00
  TP3a   TN6  1 3.400000e-01    2.020000e+00
  TP2a   TN6  1 3.400000e-01    2.280000e+00
  TP1a   TN6  1 3.400000e-01    2.280000e+00
   TN6  TN6a  1 3.400000e-01    2.280000e+00
   TN6  TN1a  1 3.400000e-01    1.510000e+00
   TN6  TN2a  1 3.400000e-01    1.510000e+00
   TN6  TN3a  1 3.400000e-01    1.770000e+00
   TN6  TN4a  1 3.400000e-01    2.280000e+00
   TN6  TN5a  1 3.400000e-01    2.280000e+00
   TN6  TC6v  1 3.400000e-01    1.770000e+00
   TN6  TC5v  1 3.400000e-01    1.510000e+00
   TN6  TC4v  1 3.400000e-01    1.230000e+00
   TN6  TC3v  1 3.520000e-01    1.050000e+00
   TN6  TC2v  1 3.520000e-01    1.050000e+00
   TN6  TC1v  1 3.660000e-01    9.350000e-01
   TN6  TX4v  1 3.400000e-01    1.770000e+00
   TN6  TX3v  1 3.400000e-01    1.510000e+00
   TN6  TX2v  1 3.400000e-01    1.230000e+00
   TN6  TX1v  1 3.520000e-01    1.050000e+00
   TN6  TC6e  1 3.400000e-01    1.770000e+00
   TN6  TC5e  1 3.400000e-01    1.510000e+00
   TN6  TC4e  1 3.400000e-01    1.230000e+00
   TN6  TC3e  1 3.520000e-01    1.050000e+00
   TN6  TC2e  1 3.520000e-01    1.050000e+00
   TN6  TC1e  1 3.660000e-01    9.350000e-01
   TN6  TX4e  1 3.400000e-01    1.770000e+00
   TN6  TX3e  1 3.400000e-01    1.510000e+00
   TN6  TX2e  1 3.400000e-01    1.230000e+00
   TN6  TX1e  1 3.520000e-01    1.050000e+00
  TP6q   TN6  1 3.400000e-01    2.740000e+00
  TP5q   TN6  1 3.400000e-01    2.500000e+00
  TP4q   TN6  1 3.400000e-01    2.500000e+00
  TP3q   TN6  1 3.400000e-01    2.500000e+00
  TP2q   TN6  1 3.400000e-01    2.740000e+00
  TP1q   TN6  1 3.400000e-01    2.740000e+00
   TN6  TN6q  1 3.400000e-01    2.740000e+00
   TN6 TX1eq  1 3.400000e-01    1.510000e+00
   TN6 TX2eq  1 3.400000e-01    1.770000e+00
   TN6 TX3eq  1 3.400000e-01    2.020000e+00
   TN6 TX4eq  1 3.400000e-01    2.280000e+00
   TN6 TC1eq  1 3.400000e-01    1.230000e+00
   TN6 TC2eq  1 3.400000e-01    1.510000e+00
   TN6 TC3eq  1 3.400000e-01    1.510000e+00
   TN6 TC4eq  1 3.400000e-01    1.770000e+00
   TN6 TC5eq  1 3.400000e-01    2.020000e+00
   TN6 TC6eq  1 3.400000e-01    2.280000e+00
   TN6 TX1vq  1 3.400000e-01    1.510000e+00
   TN6 TX2vq  1 3.400000e-01    1.770000e+00
   TN6 TX3vq  1 3.400000e-01    2.020000e+00
   TN6 TX4vq  1 3.400000e-01    2.280000e+00
   TN6 TC1vq  1 3.400000e-01    1.230000e+00
   TN6 TC2vq  1 3.400000e-01    1.510000e+00
   TN6 TC3vq  1 3.400000e-01    1.510000e+00
   TN6 TC4vq  1 3.400000e-01    1.770000e+00
   TN6 TC5vq  1 3.400000e-01    2.020000e+00
   TN6 TC6vq  1 3.400000e-01    2.280000e+00
   TN6 TN1aq  1 3.400000e-01    2.020000e+00
   TN6 TN2aq  1 3.400000e-01    2.020000e+00
   TN6 TN3aq  1 3.400000e-01    2.280000e+00
   TN6 TN4aq  1 3.400000e-01    2.740000e+00
   TN6 TN5aq  1 3.400000e-01    2.740000e+00
   TN6 TN6aq  1 3.400000e-01    2.740000e+00
 TP1aq   TN6  1 3.400000e-01    2.740000e+00
 TP2aq   TN6  1 3.400000e-01    2.740000e+00
 TP3aq   TN6  1 3.400000e-01    2.500000e+00
 TP4aq   TN6  1 3.400000e-01    2.500000e+00
 TP5aq   TN6  1 3.400000e-01    2.500000e+00
 TP6aq   TN6  1 3.400000e-01    2.740000e+00
   TN6 TN1dq  1 3.400000e-01    2.020000e+00
   TN6 TN2dq  1 3.400000e-01    2.020000e+00
   TN6 TN3dq  1 3.400000e-01    2.280000e+00
   TN6 TN4dq  1 3.400000e-01    2.740000e+00
   TN6 TN5dq  1 3.400000e-01    2.740000e+00
   TN6 TN6dq  1 3.400000e-01    2.740000e+00
 TP1dq   TN6  1 3.400000e-01    2.740000e+00
 TP2dq   TN6  1 3.400000e-01    2.740000e+00
 TP3dq   TN6  1 3.400000e-01    2.500000e+00
 TP4dq   TN6  1 3.400000e-01    2.500000e+00
 TP5dq   TN6  1 3.400000e-01    2.500000e+00
 TP6dq   TN6  1 3.400000e-01    2.740000e+00
   TN6  TX1q  1 3.400000e-01    1.230000e+00
   TN6  TX2q  1 3.400000e-01    1.510000e+00
   TN6  TX3q  1 3.400000e-01    1.770000e+00
   TN6  TX4q  1 3.400000e-01    2.020000e+00
   TN6  TC1q  1 3.520000e-01    1.050000e+00
   TN6  TC2q  1 3.400000e-01    1.230000e+00
   TN6  TC3q  1 3.400000e-01    1.230000e+00
   TN6  TC4q  1 3.400000e-01    1.510000e+00
   TN6  TC5q  1 3.400000e-01    1.770000e+00
   TN6  TC6q  1 3.400000e-01    2.020000e+00
   TN6  TN1q  1 3.400000e-01    2.020000e+00
   TN6  TN2q  1 3.400000e-01    2.020000e+00
   TN6  TN3q  1 3.400000e-01    2.280000e+00
   TN6  TN4q  1 3.400000e-01    2.740000e+00
   TN6  TN5q  1 3.400000e-01    2.740000e+00
  TP6h   TN6  1 3.400000e-01    2.280000e+00
  TP5h   TN6  1 3.400000e-01    2.020000e+00
  TP4h   TN6  1 3.400000e-01    2.020000e+00
  TP3h   TN6  1 3.400000e-01    2.020000e+00
  TP2h   TN6  1 3.400000e-01    2.280000e+00
  TP1h   TN6  1 3.400000e-01    2.280000e+00
   TN6  TN6h  1 3.400000e-01    2.280000e+00
   TN6 TX1eh  1 3.520000e-01    1.050000e+00
   TN6 TX2eh  1 3.400000e-01    1.230000e+00
   TN6 TX3eh  1 3.400000e-01    1.510000e+00
   TN6 TX4eh  1 3.400000e-01    1.770000e+00
   TN6 TC1eh  1 3.660000e-01    9.350000e-01
   TN6 TC2eh  1 3.520000e-01    1.050000e+00
   TN6 TC3eh  1 3.520000e-01    1.050000e+00
   TN6 TC4eh  1 3.400000e-01    1.230000e+00
   TN6 TC5eh  1 3.400000e-01    1.510000e+00
   TN6 TC6eh  1 3.400000e-01    1.770000e+00
   TN6 TX1vh  1 3.520000e-01    1.050000e+00
   TN6 TX2vh  1 3.400000e-01    1.230000e+00
   TN6 TX3vh  1 3.400000e-01    1.510000e+00
   TN6 TX4vh  1 3.400000e-01    1.770000e+00
   TN6 TC1vh  1 3.660000e-01    9.350000e-01
   TN6 TC2vh  1 3.520000e-01    1.050000e+00
   TN6 TC3vh  1 3.520000e-01    1.050000e+00
   TN6 TC4vh  1 3.400000e-01    1.230000e+00
   TN6 TC5vh  1 3.400000e-01    1.510000e+00
   TN6 TC6vh  1 3.400000e-01    1.770000e+00
   TN6 TN1ah  1 3.400000e-01    1.510000e+00
   TN6 TN2ah  1 3.400000e-01    1.510000e+00
   TN6 TN3ah  1 3.400000e-01    1.770000e+00
   TN6 TN4ah  1 3.400000e-01    2.280000e+00
   TN6 TN5ah  1 3.400000e-01    2.280000e+00
   TN6 TN6ah  1 3.400000e-01    2.280000e+00
 TP1ah   TN6  1 3.400000e-01    2.280000e+00
 TP2ah   TN6  1 3.400000e-01    2.280000e+00
 TP3ah   TN6  1 3.400000e-01    2.020000e+00
 TP4ah   TN6  1 3.400000e-01    2.020000e+00
 TP5ah   TN6  1 3.400000e-01    2.020000e+00
 TP6ah   TN6  1 3.400000e-01    2.280000e+00
   TN6 TN1dh  1 3.400000e-01    1.510000e+00
   TN6 TN2dh  1 3.400000e-01    1.510000e+00
   TN6 TN3dh  1 3.400000e-01    1.770000e+00
   TN6 TN4dh  1 3.400000e-01    2.280000e+00
   TN6 TN5dh  1 3.400000e-01    2.280000e+00
   TN6 TN6dh  1 3.400000e-01    2.280000e+00
 TP1dh   TN6  1 3.400000e-01    2.280000e+00
 TP2dh   TN6  1 3.400000e-01    2.280000e+00
 TP3dh   TN6  1 3.400000e-01    2.020000e+00
 TP4dh   TN6  1 3.400000e-01    2.020000e+00
 TP5dh   TN6  1 3.400000e-01    2.020000e+00
 TP6dh   TN6  1 3.400000e-01    2.280000e+00
   TN6  TX1h  1 3.660000e-01    9.350000e-01
   TN6  TX2h  1 3.520000e-01    1.050000e+00
   TN6  TX3h  1 3.400000e-01    1.230000e+00
   TN6  TX4h  1 3.400000e-01    1.510000e+00
   TN6  TC1h  1 3.850000e-01    8.550000e-01
   TN6  TC2h  1 3.660000e-01    9.350000e-01
   TN6  TC3h  1 3.660000e-01    9.350000e-01
   TN6  TC4h  1 3.520000e-01    1.050000e+00
   TN6  TC5h  1 3.400000e-01    1.230000e+00
   TN6  TC6h  1 3.400000e-01    1.510000e+00
   TN6  TN1h  1 3.400000e-01    1.510000e+00
   TN6  TN2h  1 3.400000e-01    1.510000e+00
   TN6  TN3h  1 3.400000e-01    1.770000e+00
   TN6  TN4h  1 3.400000e-01    2.280000e+00
   TN6  TN5h  1 3.400000e-01    2.280000e+00
  TP6r   TN6  1 3.400000e-01    2.280000e+00
  TP5r   TN6  1 3.400000e-01    2.020000e+00
  TP4r   TN6  1 3.400000e-01    2.020000e+00
  TP3r   TN6  1 3.400000e-01    2.020000e+00
  TP2r   TN6  1 3.400000e-01    2.280000e+00
  TP1r   TN6  1 3.400000e-01    2.280000e+00
   TN6  TN6r  1 3.400000e-01    2.280000e+00
   TN6 TX1er  1 3.520000e-01    1.050000e+00
   TN6 TX2er  1 3.400000e-01    1.230000e+00
   TN6 TX3er  1 3.400000e-01    1.510000e+00
   TN6 TX4er  1 3.400000e-01    1.770000e+00
   TN6 TC1er  1 3.660000e-01    9.350000e-01
   TN6 TC2er  1 3.520000e-01    1.050000e+00
   TN6 TC3er  1 3.520000e-01    1.050000e+00
   TN6 TC4er  1 3.400000e-01    1.230000e+00
   TN6 TC5er  1 3.400000e-01    1.510000e+00
   TN6 TC6er  1 3.400000e-01    1.770000e+00
   TN6 TX1vr  1 3.520000e-01    1.050000e+00
   TN6 TX2vr  1 3.400000e-01    1.230000e+00
   TN6 TX3vr  1 3.400000e-01    1.510000e+00
   TN6 TX4vr  1 3.400000e-01    1.770000e+00
   TN6 TC1vr  1 3.660000e-01    9.350000e-01
   TN6 TC2vr  1 3.520000e-01    1.050000e+00
   TN6 TC3vr  1 3.520000e-01    1.050000e+00
   TN6 TC4vr  1 3.400000e-01    1.230000e+00
   TN6 TC5vr  1 3.400000e-01    1.510000e+00
   TN6 TC6vr  1 3.400000e-01    1.770000e+00
   TN6 TN1ar  1 3.400000e-01    1.510000e+00
   TN6 TN2ar  1 3.400000e-01    1.510000e+00
   TN6 TN3ar  1 3.400000e-01    1.770000e+00
   TN6 TN4ar  1 3.400000e-01    2.280000e+00
   TN6 TN5ar  1 3.400000e-01    2.280000e+00
   TN6 TN6ar  1 3.400000e-01    2.280000e+00
 TP1ar   TN6  1 3.400000e-01    2.280000e+00
 TP2ar   TN6  1 3.400000e-01    2.280000e+00
 TP3ar   TN6  1 3.400000e-01    2.020000e+00
 TP4ar   TN6  1 3.400000e-01    2.020000e+00
 TP5ar   TN6  1 3.400000e-01    2.020000e+00
 TP6ar   TN6  1 3.400000e-01    2.280000e+00
   TN6 TN1dr  1 3.400000e-01    1.510000e+00
   TN6 TN2dr  1 3.400000e-01    1.510000e+00
   TN6 TN3dr  1 3.400000e-01    1.770000e+00
   TN6 TN4dr  1 3.400000e-01    2.280000e+00
   TN6 TN5dr  1 3.400000e-01    2.280000e+00
   TN6 TN6dr  1 3.400000e-01    2.280000e+00
 TP1dr   TN6  1 3.400000e-01    2.280000e+00
 TP2dr   TN6  1 3.400000e-01    2.280000e+00
 TP3dr   TN6  1 3.400000e-01    2.020000e+00
 TP4dr   TN6  1 3.400000e-01    2.020000e+00
 TP5dr   TN6  1 3.400000e-01    2.020000e+00
 TP6dr   TN6  1 3.400000e-01    2.280000e+00
   TN6  TX1r  1 3.660000e-01    9.350000e-01
   TN6  TX2r  1 3.520000e-01    1.050000e+00
   TN6  TX3r  1 3.400000e-01    1.230000e+00
   TN6  TX4r  1 3.400000e-01    1.510000e+00
   TN6  TC1r  1 3.850000e-01    8.550000e-01
   TN6  TC2r  1 3.660000e-01    9.350000e-01
   TN6  TC3r  1 3.660000e-01    9.350000e-01
   TN6  TC4r  1 3.520000e-01    1.050000e+00
   TN6  TC5r  1 3.400000e-01    1.230000e+00
   TN6  TC6r  1 3.400000e-01    1.510000e+00
   TN6  TN1r  1 3.400000e-01    1.510000e+00
   TN6  TN2r  1 3.400000e-01    1.510000e+00
   TN6  TN3r  1 3.400000e-01    1.770000e+00
   TN6  TN4r  1 3.400000e-01    2.280000e+00
   TN6  TN5r  1 3.400000e-01    2.280000e+00
  SP6d   TN6  1 3.650000e-01    2.570000e+00
  SP5d   TN6  1 3.650000e-01    2.340000e+00
  SP4d   TN6  1 3.650000e-01    2.340000e+00
  SP3d   TN6  1 3.650000e-01    2.340000e+00
  SP2d   TN6  1 3.650000e-01    2.570000e+00
  SP1d   TN6  1 3.650000e-01    2.570000e+00
  SP6a   TN6  1 3.650000e-01    2.570000e+00
  SP5a   TN6  1 3.650000e-01    2.340000e+00
  SP4a   TN6  1 3.650000e-01    2.340000e+00
  SP3a   TN6  1 3.650000e-01    2.340000e+00
  SP2a   TN6  1 3.650000e-01    2.570000e+00
  SP1a   TN6  1 3.650000e-01    2.570000e+00
  SP6q   TN6  1 3.650000e-01    3.100000e+00
  SP5q   TN6  1 3.650000e-01    2.830000e+00
  SP4q   TN6  1 3.650000e-01    2.830000e+00
  SP3q   TN6  1 3.650000e-01    2.830000e+00
  SP2q   TN6  1 3.650000e-01    3.100000e+00
  SP1q   TN6  1 3.650000e-01    3.100000e+00
 SP1aq   TN6  1 3.650000e-01    3.100000e+00
 SP2aq   TN6  1 3.650000e-01    3.100000e+00
 SP3aq   TN6  1 3.650000e-01    2.830000e+00
 SP4aq   TN6  1 3.650000e-01    2.830000e+00
 SP5aq   TN6  1 3.650000e-01    2.830000e+00
 SP6aq   TN6  1 3.650000e-01    3.100000e+00
 SP1dq   TN6  1 3.650000e-01    3.100000e+00
 SP2dq   TN6  1 3.650000e-01    3.100000e+00
 SP3dq   TN6  1 3.650000e-01    2.830000e+00
 SP4dq   TN6  1 3.650000e-01    2.830000e+00
 SP5dq   TN6  1 3.650000e-01    2.830000e+00
 SP6dq   TN6  1 3.650000e-01    3.100000e+00
  SP6h   TN6  1 3.650000e-01    2.570000e+00
  SP5h   TN6  1 3.650000e-01    2.340000e+00
  SP4h   TN6  1 3.650000e-01    2.340000e+00
  SP3h   TN6  1 3.650000e-01    2.340000e+00
  SP2h   TN6  1 3.650000e-01    2.570000e+00
  SP1h   TN6  1 3.650000e-01    2.570000e+00
 SP1ah   TN6  1 3.650000e-01    2.570000e+00
 SP2ah   TN6  1 3.650000e-01    2.570000e+00
 SP3ah   TN6  1 3.650000e-01    2.340000e+00
 SP4ah   TN6  1 3.650000e-01    2.340000e+00
 SP5ah   TN6  1 3.650000e-01    2.340000e+00
 SP6ah   TN6  1 3.650000e-01    2.570000e+00
 SP1dh   TN6  1 3.650000e-01    2.570000e+00
 SP2dh   TN6  1 3.650000e-01    2.570000e+00
 SP3dh   TN6  1 3.650000e-01    2.340000e+00
 SP4dh   TN6  1 3.650000e-01    2.340000e+00
 SP5dh   TN6  1 3.650000e-01    2.340000e+00
 SP6dh   TN6  1 3.650000e-01    2.570000e+00
  SP6r   TN6  1 3.650000e-01    2.570000e+00
  SP5r   TN6  1 3.650000e-01    2.340000e+00
  SP4r   TN6  1 3.650000e-01    2.340000e+00
  SP3r   TN6  1 3.650000e-01    2.340000e+00
  SP2r   TN6  1 3.650000e-01    2.570000e+00
  SP1r   TN6  1 3.650000e-01    2.570000e+00
 SP1ar   TN6  1 3.650000e-01    2.570000e+00
 SP2ar   TN6  1 3.650000e-01    2.570000e+00
 SP3ar   TN6  1 3.650000e-01    2.340000e+00
 SP4ar   TN6  1 3.650000e-01    2.340000e+00
 SP5ar   TN6  1 3.650000e-01    2.340000e+00
 SP6ar   TN6  1 3.650000e-01    2.570000e+00
 SP1dr   TN6  1 3.650000e-01    2.570000e+00
 SP2dr   TN6  1 3.650000e-01    2.570000e+00
 SP3dr   TN6  1 3.650000e-01    2.340000e+00
 SP4dr   TN6  1 3.650000e-01    2.340000e+00
 SP5dr   TN6  1 3.650000e-01    2.340000e+00
 SP6dr   TN6  1 3.650000e-01    2.570000e+00
   TN6   SN5  1 3.650000e-01    2.570000e+00
   TN6   SN4  1 3.650000e-01    2.570000e+00
   TN6   SN3  1 3.650000e-01    2.110000e+00
   TN6   SN2  1 3.650000e-01    1.910000e+00
   TN6   SN1  1 3.650000e-01    1.910000e+00
   TN6   SC6  1 3.650000e-01    1.910000e+00
   TN6   SC5  1 3.650000e-01    1.750000e+00
   TN6   SC4  1 3.660000e-01    1.600000e+00
   TN6   SC3  1 3.780000e-01    1.450000e+00
   TN6   SC2  1 3.780000e-01    1.450000e+00
   TN6   SC1  1 3.940000e-01    1.290000e+00
   TN6   SX4  1 3.650000e-01    1.910000e+00
   TN6   SX3  1 3.650000e-01    1.750000e+00
   TN6   SX2  1 3.660000e-01    1.600000e+00
   TN6   SX1  1 3.780000e-01    1.450000e+00
   TN6  SN6d  1 3.650000e-01    2.570000e+00
   TN6  SN1d  1 3.650000e-01    1.910000e+00
   TN6  SN2d  1 3.650000e-01    1.910000e+00
   TN6  SN3d  1 3.650000e-01    2.110000e+00
   TN6  SN4d  1 3.650000e-01    2.570000e+00
   TN6  SN5d  1 3.650000e-01    2.570000e+00
   TN6  SN6a  1 3.650000e-01    2.570000e+00
   TN6  SN1a  1 3.650000e-01    1.910000e+00
   TN6  SN2a  1 3.650000e-01    1.910000e+00
   TN6  SN3a  1 3.650000e-01    2.110000e+00
   TN6  SN4a  1 3.650000e-01    2.570000e+00
   TN6  SN5a  1 3.650000e-01    2.570000e+00
   TN6  SC6v  1 3.650000e-01    2.110000e+00
   TN6  SC5v  1 3.650000e-01    1.910000e+00
   TN6  SC4v  1 3.650000e-01    1.750000e+00
   TN6  SC3v  1 3.660000e-01    1.600000e+00
   TN6  SC2v  1 3.660000e-01    1.600000e+00
   TN6  SC1v  1 3.780000e-01    1.450000e+00
   TN6  SX4v  1 3.650000e-01    2.110000e+00
   TN6  SX3v  1 3.650000e-01    1.910000e+00
   TN6  SX2v  1 3.650000e-01    1.750000e+00
   TN6  SX1v  1 3.660000e-01    1.600000e+00
   TN6  SC6e  1 3.650000e-01    2.110000e+00
   TN6  SC5e  1 3.650000e-01    1.910000e+00
   TN6  SC4e  1 3.650000e-01    1.750000e+00
   TN6  SC3e  1 3.660000e-01    1.600000e+00
   TN6  SC2e  1 3.660000e-01    1.600000e+00
   TN6  SC1e  1 3.780000e-01    1.450000e+00
   TN6  SX4e  1 3.650000e-01    2.110000e+00
   TN6  SX3e  1 3.650000e-01    1.910000e+00
   TN6  SX2e  1 3.650000e-01    1.750000e+00
   TN6  SX1e  1 3.660000e-01    1.600000e+00
   TN6  SN6q  1 3.650000e-01    3.100000e+00
   TN6 SX1eq  1 3.650000e-01    1.910000e+00
   TN6 SX2eq  1 3.650000e-01    2.110000e+00
   TN6 SX3eq  1 3.650000e-01    2.340000e+00
   TN6 SX4eq  1 3.650000e-01    2.570000e+00
   TN6 SC1eq  1 3.650000e-01    1.750000e+00
   TN6 SC2eq  1 3.650000e-01    1.910000e+00
   TN6 SC3eq  1 3.650000e-01    1.910000e+00
   TN6 SC4eq  1 3.650000e-01    2.110000e+00
   TN6 SC5eq  1 3.650000e-01    2.340000e+00
   TN6 SC6eq  1 3.650000e-01    2.570000e+00
   TN6 SX1vq  1 3.650000e-01    1.910000e+00
   TN6 SX2vq  1 3.650000e-01    2.110000e+00
   TN6 SX3vq  1 3.650000e-01    2.340000e+00
   TN6 SX4vq  1 3.650000e-01    2.570000e+00
   TN6 SC1vq  1 3.650000e-01    1.750000e+00
   TN6 SC2vq  1 3.650000e-01    1.910000e+00
   TN6 SC3vq  1 3.650000e-01    1.910000e+00
   TN6 SC4vq  1 3.650000e-01    2.110000e+00
   TN6 SC5vq  1 3.650000e-01    2.340000e+00
   TN6 SC6vq  1 3.650000e-01    2.570000e+00
   TN6 SN1aq  1 3.650000e-01    2.340000e+00
   TN6 SN2aq  1 3.650000e-01    2.340000e+00
   TN6 SN3aq  1 3.650000e-01    2.570000e+00
   TN6 SN4aq  1 3.650000e-01    3.100000e+00
   TN6 SN5aq  1 3.650000e-01    3.100000e+00
   TN6 SN6aq  1 3.650000e-01    3.100000e+00
   TN6 SN1dq  1 3.650000e-01    2.340000e+00
   TN6 SN2dq  1 3.650000e-01    2.340000e+00
   TN6 SN3dq  1 3.650000e-01    2.570000e+00
   TN6 SN4dq  1 3.650000e-01    3.100000e+00
   TN6 SN5dq  1 3.650000e-01    3.100000e+00
   TN6 SN6dq  1 3.650000e-01    3.100000e+00
   TN6  SX1q  1 3.650000e-01    1.750000e+00
   TN6  SX2q  1 3.650000e-01    1.910000e+00
   TN6  SX3q  1 3.650000e-01    2.110000e+00
   TN6  SX4q  1 3.650000e-01    2.340000e+00
   TN6  SC1q  1 3.660000e-01    1.600000e+00
   TN6  SC2q  1 3.650000e-01    1.750000e+00
   TN6  SC3q  1 3.650000e-01    1.750000e+00
   TN6  SC4q  1 3.650000e-01    1.910000e+00
   TN6  SC5q  1 3.650000e-01    2.110000e+00
   TN6  SC6q  1 3.650000e-01    2.340000e+00
   TN6  SN1q  1 3.650000e-01    2.340000e+00
   TN6  SN2q  1 3.650000e-01    2.340000e+00
   TN6  SN3q  1 3.650000e-01    2.570000e+00
   TN6  SN4q  1 3.650000e-01    3.100000e+00
   TN6  SN5q  1 3.650000e-01    3.100000e+00
   TN6  SN6h  1 3.650000e-01    2.570000e+00
   TN6 SX1eh  1 3.660000e-01    1.600000e+00
   TN6 SX2eh  1 3.650000e-01    1.750000e+00
   TN6 SX3eh  1 3.650000e-01    1.910000e+00
   TN6 SX4eh  1 3.650000e-01    2.110000e+00
   TN6 SC1eh  1 3.780000e-01    1.450000e+00
   TN6 SC2eh  1 3.660000e-01    1.600000e+00
   TN6 SC3eh  1 3.660000e-01    1.600000e+00
   TN6 SC4eh  1 3.650000e-01    1.750000e+00
   TN6 SC5eh  1 3.650000e-01    1.910000e+00
   TN6 SC6eh  1 3.650000e-01    2.110000e+00
   TN6 SX1vh  1 3.660000e-01    1.600000e+00
   TN6 SX2vh  1 3.650000e-01    1.750000e+00
   TN6 SX3vh  1 3.650000e-01    1.910000e+00
   TN6 SX4vh  1 3.650000e-01    2.110000e+00
   TN6 SC1vh  1 3.780000e-01    1.450000e+00
   TN6 SC2vh  1 3.660000e-01    1.600000e+00
   TN6 SC3vh  1 3.660000e-01    1.600000e+00
   TN6 SC4vh  1 3.650000e-01    1.750000e+00
   TN6 SC5vh  1 3.650000e-01    1.910000e+00
   TN6 SC6vh  1 3.650000e-01    2.110000e+00
   TN6 SN1ah  1 3.650000e-01    1.910000e+00
   TN6 SN2ah  1 3.650000e-01    1.910000e+00
   TN6 SN3ah  1 3.650000e-01    2.110000e+00
   TN6 SN4ah  1 3.650000e-01    2.570000e+00
   TN6 SN5ah  1 3.650000e-01    2.570000e+00
   TN6 SN6ah  1 3.650000e-01    2.570000e+00
   TN6 SN1dh  1 3.650000e-01    1.910000e+00
   TN6 SN2dh  1 3.650000e-01    1.910000e+00
   TN6 SN3dh  1 3.650000e-01    2.110000e+00
   TN6 SN4dh  1 3.650000e-01    2.570000e+00
   TN6 SN5dh  1 3.650000e-01    2.570000e+00
   TN6 SN6dh  1 3.650000e-01    2.570000e+00
   TN6  SX1h  1 3.780000e-01    1.450000e+00
   TN6  SX2h  1 3.660000e-01    1.600000e+00
   TN6  SX3h  1 3.650000e-01    1.750000e+00
   TN6  SX4h  1 3.650000e-01    1.910000e+00
   TN6  SC1h  1 3.940000e-01    1.290000e+00
   TN6  SC2h  1 3.780000e-01    1.450000e+00
   TN6  SC3h  1 3.780000e-01    1.450000e+00
   TN6  SC4h  1 3.660000e-01    1.600000e+00
   TN6  SC5h  1 3.650000e-01    1.750000e+00
   TN6  SC6h  1 3.650000e-01    1.910000e+00
   TN6  SN1h  1 3.650000e-01    1.910000e+00
   TN6  SN2h  1 3.650000e-01    1.910000e+00
   TN6  SN3h  1 3.650000e-01    2.110000e+00
   TN6  SN4h  1 3.650000e-01    2.570000e+00
   TN6  SN5h  1 3.650000e-01    2.570000e+00
   TN6  SN6r  1 3.650000e-01    2.570000e+00
   TN6 SX1er  1 3.660000e-01    1.600000e+00
   TN6 SX2er  1 3.650000e-01    1.750000e+00
   TN6 SX3er  1 3.650000e-01    1.910000e+00
   TN6 SX4er  1 3.650000e-01    2.110000e+00
   TN6 SC1er  1 3.780000e-01    1.450000e+00
   TN6 SC2er  1 3.660000e-01    1.600000e+00
   TN6 SC3er  1 3.660000e-01    1.600000e+00
   TN6 SC4er  1 3.650000e-01    1.750000e+00
   TN6 SC5er  1 3.650000e-01    1.910000e+00
   TN6 SC6er  1 3.650000e-01    2.110000e+00
   TN6 SX1vr  1 3.660000e-01    1.600000e+00
   TN6 SX2vr  1 3.650000e-01    1.750000e+00
   TN6 SX3vr  1 3.650000e-01    1.910000e+00
   TN6 SX4vr  1 3.650000e-01    2.110000e+00
   TN6 SC1vr  1 3.780000e-01    1.450000e+00
   TN6 SC2vr  1 3.660000e-01    1.600000e+00
   TN6 SC3vr  1 3.660000e-01    1.600000e+00
   TN6 SC4vr  1 3.650000e-01    1.750000e+00
   TN6 SC5vr  1 3.650000e-01    1.910000e+00
   TN6 SC6vr  1 3.650000e-01    2.110000e+00
   TN6 SN1ar  1 3.650000e-01    1.910000e+00
   TN6 SN2ar  1 3.650000e-01    1.910000e+00
   TN6 SN3ar  1 3.650000e-01    2.110000e+00
   TN6 SN4ar  1 3.650000e-01    2.570000e+00
   TN6 SN5ar  1 3.650000e-01    2.570000e+00
   TN6 SN6ar  1 3.650000e-01    2.570000e+00
   TN6 SN1dr  1 3.650000e-01    1.910000e+00
   TN6 SN2dr  1 3.650000e-01    1.910000e+00
   TN6 SN3dr  1 3.650000e-01    2.110000e+00
   TN6 SN4dr  1 3.650000e-01    2.570000e+00
   TN6 SN5dr  1 3.650000e-01    2.570000e+00
   TN6 SN6dr  1 3.650000e-01    2.570000e+00
   TN6  SX1r  1 3.780000e-01    1.450000e+00
   TN6  SX2r  1 3.660000e-01    1.600000e+00
   TN6  SX3r  1 3.650000e-01    1.750000e+00
   TN6  SX4r  1 3.650000e-01    1.910000e+00
   TN6  SC1r  1 3.940000e-01    1.290000e+00
   TN6  SC2r  1 3.780000e-01    1.450000e+00
   TN6  SC3r  1 3.780000e-01    1.450000e+00
   TN6  SC4r  1 3.660000e-01    1.600000e+00
   TN6  SC5r  1 3.650000e-01    1.750000e+00
   TN6  SC6r  1 3.650000e-01    1.910000e+00
   TN6  SN1r  1 3.650000e-01    1.910000e+00
   TN6  SN2r  1 3.650000e-01    1.910000e+00
   TN6  SN3r  1 3.650000e-01    2.110000e+00
   TN6  SN4r  1 3.650000e-01    2.570000e+00
   TN6  SN5r  1 3.650000e-01    2.570000e+00
    N5    N5  1 4.700000e-01    3.690000e+00
    N5    N4  1 4.700000e-01    3.690000e+00
    N5    N3  1 4.700000e-01    3.520000e+00
    N5    N2  1 4.700000e-01    3.520000e+00
    N5    N1  1 4.700000e-01    3.390000e+00
    N5    C6  1 4.700000e-01    3.390000e+00
    N5    C5  1 4.700000e-01    3.240000e+00
    N5    C4  1 4.700000e-01    3.070000e+00
    N5    C3  1 4.700000e-01    3.070000e+00
    N5    C2  1 4.700000e-01    2.960000e+00
    N5    C1  1 4.700000e-01    2.790000e+00
    N5    X4  1 4.700000e-01    3.520000e+00
    N5    X3  1 4.700000e-01    3.390000e+00
    N5    X2  1 4.700000e-01    3.240000e+00
    N5    X1  1 4.700000e-01    3.070000e+00
   P6d    N5  1 4.700000e-01    3.520000e+00
   P5d    N5  1 4.700000e-01    3.520000e+00
   P4d    N5  1 4.700000e-01    3.520000e+00
   P3d    N5  1 4.700000e-01    3.520000e+00
   P2d    N5  1 4.700000e-01    3.690000e+00
   P1d    N5  1 4.700000e-01    3.690000e+00
   N6d    N5  1 4.700000e-01    3.880000e+00
    N5   N5d  1 4.700000e-01    3.690000e+00
    N5   N1d  1 4.700000e-01    3.390000e+00
    N5   N2d  1 4.700000e-01    3.520000e+00
    N5   N3d  1 4.700000e-01    3.520000e+00
    N5   N4d  1 4.700000e-01    3.690000e+00
   P6a    N5  1 4.700000e-01    3.520000e+00
   P5a    N5  1 4.700000e-01    3.520000e+00
   P4a    N5  1 4.700000e-01    3.520000e+00
   P3a    N5  1 4.700000e-01    3.520000e+00
   P2a    N5  1 4.700000e-01    3.690000e+00
   P1a    N5  1 4.700000e-01    3.690000e+00
   N6a    N5  1 4.700000e-01    3.880000e+00
    N5   N5a  1 4.700000e-01    3.690000e+00
    N5   N1a  1 4.700000e-01    3.390000e+00
    N5   N2a  1 4.700000e-01    3.520000e+00
    N5   N3a  1 4.700000e-01    3.520000e+00
    N5   N4a  1 4.700000e-01    3.690000e+00
    N5   C6v  1 4.700000e-01    3.520000e+00
    N5   C5v  1 4.700000e-01    3.390000e+00
    N5   C4v  1 4.700000e-01    3.240000e+00
    N5   C3v  1 4.700000e-01    3.240000e+00
    N5   C2v  1 4.700000e-01    3.070000e+00
    N5   C1v  1 4.700000e-01    2.960000e+00
    N5   X4v  1 4.700000e-01    3.690000e+00
    N5   X3v  1 4.700000e-01    3.520000e+00
    N5   X2v  1 4.700000e-01    3.390000e+00
    N5   X1v  1 4.700000e-01    3.240000e+00
    N5   C6e  1 4.700000e-01    3.520000e+00
    N5   C5e  1 4.700000e-01    3.390000e+00
    N5   C4e  1 4.700000e-01    3.240000e+00
    N5   C3e  1 4.700000e-01    3.240000e+00
    N5   C2e  1 4.700000e-01    3.070000e+00
    N5   C1e  1 4.700000e-01    2.960000e+00
    N5   X4e  1 4.700000e-01    3.690000e+00
    N5   X3e  1 4.700000e-01    3.520000e+00
    N5   X2e  1 4.700000e-01    3.390000e+00
    N5   X1e  1 4.700000e-01    3.240000e+00
   P6q    N5  1 4.700000e-01    3.880000e+00
   P5q    N5  1 4.700000e-01    3.880000e+00
   P4q    N5  1 4.700000e-01    3.880000e+00
   P3q    N5  1 4.700000e-01    3.880000e+00
   P2q    N5  1 4.700000e-01    4.060000e+00
   P1q    N5  1 4.700000e-01    4.060000e+00
   N6q    N5  1 4.700000e-01    4.250000e+00
    N5   N5q  1 4.700000e-01    4.060000e+00
    N5  X1eq  1 4.700000e-01    3.520000e+00
    N5  X2eq  1 4.700000e-01    3.690000e+00
    N5  X3eq  1 4.700000e-01    3.880000e+00
    N5  X4eq  1 4.700000e-01    4.060000e+00
    N5  C1eq  1 4.700000e-01    3.240000e+00
    N5  C2eq  1 4.700000e-01    3.390000e+00
    N5  C3eq  1 4.700000e-01    3.520000e+00
    N5  C4eq  1 4.700000e-01    3.520000e+00
    N5  C5eq  1 4.700000e-01    3.690000e+00
    N5  C6eq  1 4.700000e-01    3.880000e+00
    N5  X1vq  1 4.700000e-01    3.520000e+00
    N5  X2vq  1 4.700000e-01    3.690000e+00
    N5  X3vq  1 4.700000e-01    3.880000e+00
    N5  X4vq  1 4.700000e-01    4.060000e+00
    N5  C1vq  1 4.700000e-01    3.240000e+00
    N5  C2vq  1 4.700000e-01    3.390000e+00
    N5  C3vq  1 4.700000e-01    3.520000e+00
    N5  C4vq  1 4.700000e-01    3.520000e+00
    N5  C5vq  1 4.700000e-01    3.690000e+00
    N5  C6vq  1 4.700000e-01    3.880000e+00
    N5  N1aq  1 4.700000e-01    3.690000e+00
    N5  N2aq  1 4.700000e-01    3.880000e+00
    N5  N3aq  1 4.700000e-01    3.880000e+00
    N5  N4aq  1 4.700000e-01    4.060000e+00
    N5  N5aq  1 4.700000e-01    4.060000e+00
  N6aq    N5  1 4.700000e-01    4.250000e+00
  P1aq    N5  1 4.700000e-01    4.060000e+00
  P2aq    N5  1 4.700000e-01    4.060000e+00
  P3aq    N5  1 4.700000e-01    3.880000e+00
  P4aq    N5  1 4.700000e-01    3.880000e+00
  P5aq    N5  1 4.700000e-01    3.880000e+00
  P6aq    N5  1 4.700000e-01    3.880000e+00
    N5  N1dq  1 4.700000e-01    3.690000e+00
    N5  N2dq  1 4.700000e-01    3.880000e+00
    N5  N3dq  1 4.700000e-01    3.880000e+00
    N5  N4dq  1 4.700000e-01    4.060000e+00
    N5  N5dq  1 4.700000e-01    4.060000e+00
  N6dq    N5  1 4.700000e-01    4.250000e+00
  P1dq    N5  1 4.700000e-01    4.060000e+00
  P2dq    N5  1 4.700000e-01    4.060000e+00
  P3dq    N5  1 4.700000e-01    3.880000e+00
  P4dq    N5  1 4.700000e-01    3.880000e+00
  P5dq    N5  1 4.700000e-01    3.880000e+00
  P6dq    N5  1 4.700000e-01    3.880000e+00
    N5   X1q  1 4.700000e-01    3.390000e+00
    N5   X2q  1 4.700000e-01    3.520000e+00
    N5   X3q  1 4.700000e-01    3.690000e+00
    N5   X4q  1 4.700000e-01    3.880000e+00
    N5   C1q  1 4.700000e-01    3.070000e+00
    N5   C2q  1 4.700000e-01    3.240000e+00
    N5   C3q  1 4.700000e-01    3.390000e+00
    N5   C4q  1 4.700000e-01    3.390000e+00
    N5   C5q  1 4.700000e-01    3.520000e+00
    N5   C6q  1 4.700000e-01    3.690000e+00
    N5   N1q  1 4.700000e-01    3.690000e+00
    N5   N2q  1 4.700000e-01    3.880000e+00
    N5   N3q  1 4.700000e-01    3.880000e+00
    N5   N4q  1 4.700000e-01    4.060000e+00
   P6h    N5  1 4.700000e-01    3.520000e+00
   P5h    N5  1 4.700000e-01    3.520000e+00
   P4h    N5  1 4.700000e-01    3.520000e+00
   P3h    N5  1 4.700000e-01    3.520000e+00
   P2h    N5  1 4.700000e-01    3.690000e+00
   P1h    N5  1 4.700000e-01    3.690000e+00
   N6h    N5  1 4.700000e-01    3.880000e+00
    N5   N5h  1 4.700000e-01    3.690000e+00
    N5  X1eh  1 4.700000e-01    3.240000e+00
    N5  X2eh  1 4.700000e-01    3.390000e+00
    N5  X3eh  1 4.700000e-01    3.520000e+00
    N5  X4eh  1 4.700000e-01    3.690000e+00
    N5  C1eh  1 4.700000e-01    2.960000e+00
    N5  C2eh  1 4.700000e-01    3.070000e+00
    N5  C3eh  1 4.700000e-01    3.240000e+00
    N5  C4eh  1 4.700000e-01    3.240000e+00
    N5  C5eh  1 4.700000e-01    3.390000e+00
    N5  C6eh  1 4.700000e-01    3.520000e+00
    N5  X1vh  1 4.700000e-01    3.240000e+00
    N5  X2vh  1 4.700000e-01    3.390000e+00
    N5  X3vh  1 4.700000e-01    3.520000e+00
    N5  X4vh  1 4.700000e-01    3.690000e+00
    N5  C1vh  1 4.700000e-01    2.960000e+00
    N5  C2vh  1 4.700000e-01    3.070000e+00
    N5  C3vh  1 4.700000e-01    3.240000e+00
    N5  C4vh  1 4.700000e-01    3.240000e+00
    N5  C5vh  1 4.700000e-01    3.390000e+00
    N5  C6vh  1 4.700000e-01    3.520000e+00
    N5  N1ah  1 4.700000e-01    3.390000e+00
    N5  N2ah  1 4.700000e-01    3.520000e+00
    N5  N3ah  1 4.700000e-01    3.520000e+00
    N5  N4ah  1 4.700000e-01    3.690000e+00
    N5  N5ah  1 4.700000e-01    3.690000e+00
  N6ah    N5  1 4.700000e-01    3.880000e+00
  P1ah    N5  1 4.700000e-01    3.690000e+00
  P2ah    N5  1 4.700000e-01    3.690000e+00
  P3ah    N5  1 4.700000e-01    3.520000e+00
  P4ah    N5  1 4.700000e-01    3.520000e+00
  P5ah    N5  1 4.700000e-01    3.520000e+00
  P6ah    N5  1 4.700000e-01    3.520000e+00
    N5  N1dh  1 4.700000e-01    3.390000e+00
    N5  N2dh  1 4.700000e-01    3.520000e+00
    N5  N3dh  1 4.700000e-01    3.520000e+00
    N5  N4dh  1 4.700000e-01    3.690000e+00
    N5  N5dh  1 4.700000e-01    3.690000e+00
  N6dh    N5  1 4.700000e-01    3.880000e+00
  P1dh    N5  1 4.700000e-01    3.690000e+00
  P2dh    N5  1 4.700000e-01    3.690000e+00
  P3dh    N5  1 4.700000e-01    3.520000e+00
  P4dh    N5  1 4.700000e-01    3.520000e+00
  P5dh    N5  1 4.700000e-01    3.520000e+00
  P6dh    N5  1 4.700000e-01    3.520000e+00
    N5   X1h  1 4.700000e-01    3.070000e+00
    N5   X2h  1 4.700000e-01    3.240000e+00
    N5   X3h  1 4.700000e-01    3.390000e+00
    N5   X4h  1 4.700000e-01    3.520000e+00
    N5   C1h  1 4.700000e-01    2.790000e+00
    N5   C2h  1 4.700000e-01    2.960000e+00
    N5   C3h  1 4.700000e-01    3.070000e+00
    N5   C4h  1 4.700000e-01    3.070000e+00
    N5   C5h  1 4.700000e-01    3.240000e+00
    N5   C6h  1 4.700000e-01    3.390000e+00
    N5   N1h  1 4.700000e-01    3.390000e+00
    N5   N2h  1 4.700000e-01    3.520000e+00
    N5   N3h  1 4.700000e-01    3.520000e+00
    N5   N4h  1 4.700000e-01    3.690000e+00
   P6r    N5  1 4.700000e-01    3.520000e+00
   P5r    N5  1 4.700000e-01    3.520000e+00
   P4r    N5  1 4.700000e-01    3.520000e+00
   P3r    N5  1 4.700000e-01    3.520000e+00
   P2r    N5  1 4.700000e-01    3.690000e+00
   P1r    N5  1 4.700000e-01    3.690000e+00
   N6r    N5  1 4.700000e-01    3.880000e+00
    N5   N5r  1 4.700000e-01    3.690000e+00
    N5  X1er  1 4.700000e-01    3.240000e+00
    N5  X2er  1 4.700000e-01    3.390000e+00
    N5  X3er  1 4.700000e-01    3.520000e+00
    N5  X4er  1 4.700000e-01    3.690000e+00
    N5  C1er  1 4.700000e-01    2.960000e+00
    N5  C2er  1 4.700000e-01    3.070000e+00
    N5  C3er  1 4.700000e-01    3.240000e+00
    N5  C4er  1 4.700000e-01    3.240000e+00
    N5  C5er  1 4.700000e-01    3.390000e+00
    N5  C6er  1 4.700000e-01    3.520000e+00
    N5  X1vr  1 4.700000e-01    3.240000e+00
    N5  X2vr  1 4.700000e-01    3.390000e+00
    N5  X3vr  1 4.700000e-01    3.520000e+00
    N5  X4vr  1 4.700000e-01    3.690000e+00
    N5  C1vr  1 4.700000e-01    2.960000e+00
    N5  C2vr  1 4.700000e-01    3.070000e+00
    N5  C3vr  1 4.700000e-01    3.240000e+00
    N5  C4vr  1 4.700000e-01    3.240000e+00
    N5  C5vr  1 4.700000e-01    3.390000e+00
    N5  C6vr  1 4.700000e-01    3.520000e+00
    N5  N1ar  1 4.700000e-01    3.390000e+00
    N5  N2ar  1 4.700000e-01    3.520000e+00
    N5  N3ar  1 4.700000e-01    3.520000e+00
    N5  N4ar  1 4.700000e-01    3.690000e+00
    N5  N5ar  1 4.700000e-01    3.690000e+00
  N6ar    N5  1 4.700000e-01    3.880000e+00
  P1ar    N5  1 4.700000e-01    3.690000e+00
  P2ar    N5  1 4.700000e-01    3.690000e+00
  P3ar    N5  1 4.700000e-01    3.520000e+00
  P4ar    N5  1 4.700000e-01    3.520000e+00
  P5ar    N5  1 4.700000e-01    3.520000e+00
  P6ar    N5  1 4.700000e-01    3.520000e+00
    N5  N1dr  1 4.700000e-01    3.390000e+00
    N5  N2dr  1 4.700000e-01    3.520000e+00
    N5  N3dr  1 4.700000e-01    3.520000e+00
    N5  N4dr  1 4.700000e-01    3.690000e+00
    N5  N5dr  1 4.700000e-01    3.690000e+00
  N6dr    N5  1 4.700000e-01    3.880000e+00
  P1dr    N5  1 4.700000e-01    3.690000e+00
  P2dr    N5  1 4.700000e-01    3.690000e+00
  P3dr    N5  1 4.700000e-01    3.520000e+00
  P4dr    N5  1 4.700000e-01    3.520000e+00
  P5dr    N5  1 4.700000e-01    3.520000e+00
  P6dr    N5  1 4.700000e-01    3.520000e+00
    N5   X1r  1 4.700000e-01    3.070000e+00
    N5   X2r  1 4.700000e-01    3.240000e+00
    N5   X3r  1 4.700000e-01    3.390000e+00
    N5   X4r  1 4.700000e-01    3.520000e+00
    N5   C1r  1 4.700000e-01    2.790000e+00
    N5   C2r  1 4.700000e-01    2.960000e+00
    N5   C3r  1 4.700000e-01    3.070000e+00
    N5   C4r  1 4.700000e-01    3.070000e+00
    N5   C5r  1 4.700000e-01    3.240000e+00
    N5   C6r  1 4.700000e-01    3.390000e+00
    N5   N1r  1 4.700000e-01    3.390000e+00
    N5   N2r  1 4.700000e-01    3.520000e+00
    N5   N3r  1 4.700000e-01    3.520000e+00
    N5   N4r  1 4.700000e-01    3.690000e+00
    N5   SN5  1 4.300000e-01    3.380000e+00
    N5   SN4  1 4.300000e-01    3.380000e+00
    N5   SN3  1 4.300000e-01    3.160000e+00
    N5   SN2  1 4.300000e-01    3.160000e+00
    N5   SN1  1 4.300000e-01    2.920000e+00
    N5   SC6  1 4.300000e-01    2.920000e+00
    N5   SC5  1 4.300000e-01    2.770000e+00
    N5   SC4  1 4.300000e-01    2.530000e+00
    N5   SC3  1 4.300000e-01    2.530000e+00
    N5   SC2  1 4.300000e-01    2.320000e+00
    N5   SC1  1 4.300000e-01    2.160000e+00
    N5   SX4  1 4.300000e-01    3.160000e+00
    N5   SX3  1 4.300000e-01    2.920000e+00
    N5   SX2  1 4.300000e-01    2.770000e+00
    N5   SX1  1 4.300000e-01    2.530000e+00
    N5  SN5d  1 4.300000e-01    3.380000e+00
    N5  SN1d  1 4.300000e-01    2.920000e+00
    N5  SN2d  1 4.300000e-01    3.160000e+00
    N5  SN3d  1 4.300000e-01    3.160000e+00
    N5  SN4d  1 4.300000e-01    3.380000e+00
    N5  SN5a  1 4.300000e-01    3.380000e+00
    N5  SN1a  1 4.300000e-01    2.920000e+00
    N5  SN2a  1 4.300000e-01    3.160000e+00
    N5  SN3a  1 4.300000e-01    3.160000e+00
    N5  SN4a  1 4.300000e-01    3.380000e+00
    N5  SC6v  1 4.300000e-01    3.160000e+00
    N5  SC5v  1 4.300000e-01    2.920000e+00
    N5  SC4v  1 4.300000e-01    2.770000e+00
    N5  SC3v  1 4.300000e-01    2.770000e+00
    N5  SC2v  1 4.300000e-01    2.530000e+00
    N5  SC1v  1 4.300000e-01    2.320000e+00
    N5  SX4v  1 4.300000e-01    3.380000e+00
    N5  SX3v  1 4.300000e-01    3.160000e+00
    N5  SX2v  1 4.300000e-01    2.920000e+00
    N5  SX1v  1 4.300000e-01    2.770000e+00
    N5  SC6e  1 4.300000e-01    3.160000e+00
    N5  SC5e  1 4.300000e-01    2.920000e+00
    N5  SC4e  1 4.300000e-01    2.770000e+00
    N5  SC3e  1 4.300000e-01    2.770000e+00
    N5  SC2e  1 4.300000e-01    2.530000e+00
    N5  SC1e  1 4.300000e-01    2.320000e+00
    N5  SX4e  1 4.300000e-01    3.380000e+00
    N5  SX3e  1 4.300000e-01    3.160000e+00
    N5  SX2e  1 4.300000e-01    2.920000e+00
    N5  SX1e  1 4.300000e-01    2.770000e+00
    N5  SN5q  1 4.300000e-01    3.770000e+00
    N5 SX1eq  1 4.300000e-01    3.160000e+00
    N5 SX2eq  1 4.300000e-01    3.380000e+00
    N5 SX3eq  1 4.300000e-01    3.590000e+00
    N5 SX4eq  1 4.300000e-01    3.770000e+00
    N5 SC1eq  1 4.300000e-01    2.770000e+00
    N5 SC2eq  1 4.300000e-01    2.920000e+00
    N5 SC3eq  1 4.300000e-01    3.160000e+00
    N5 SC4eq  1 4.300000e-01    3.160000e+00
    N5 SC5eq  1 4.300000e-01    3.380000e+00
    N5 SC6eq  1 4.300000e-01    3.590000e+00
    N5 SX1vq  1 4.300000e-01    3.160000e+00
    N5 SX2vq  1 4.300000e-01    3.380000e+00
    N5 SX3vq  1 4.300000e-01    3.590000e+00
    N5 SX4vq  1 4.300000e-01    3.770000e+00
    N5 SC1vq  1 4.300000e-01    2.770000e+00
    N5 SC2vq  1 4.300000e-01    2.920000e+00
    N5 SC3vq  1 4.300000e-01    3.160000e+00
    N5 SC4vq  1 4.300000e-01    3.160000e+00
    N5 SC5vq  1 4.300000e-01    3.380000e+00
    N5 SC6vq  1 4.300000e-01    3.590000e+00
    N5 SN1aq  1 4.300000e-01    3.380000e+00
    N5 SN2aq  1 4.300000e-01    3.590000e+00
    N5 SN3aq  1 4.300000e-01    3.590000e+00
    N5 SN4aq  1 4.300000e-01    3.770000e+00
    N5 SN5aq  1 4.300000e-01    3.770000e+00
    N5 SN1dq  1 4.300000e-01    3.380000e+00
    N5 SN2dq  1 4.300000e-01    3.590000e+00
    N5 SN3dq  1 4.300000e-01    3.590000e+00
    N5 SN4dq  1 4.300000e-01    3.770000e+00
    N5 SN5dq  1 4.300000e-01    3.770000e+00
    N5  SX1q  1 4.300000e-01    2.920000e+00
    N5  SX2q  1 4.300000e-01    3.160000e+00
    N5  SX3q  1 4.300000e-01    3.380000e+00
    N5  SX4q  1 4.300000e-01    3.590000e+00
    N5  SC1q  1 4.300000e-01    2.530000e+00
    N5  SC2q  1 4.300000e-01    2.770000e+00
    N5  SC3q  1 4.300000e-01    2.920000e+00
    N5  SC4q  1 4.300000e-01    2.920000e+00
    N5  SC5q  1 4.300000e-01    3.160000e+00
    N5  SC6q  1 4.300000e-01    3.380000e+00
    N5  SN1q  1 4.300000e-01    3.380000e+00
    N5  SN2q  1 4.300000e-01    3.590000e+00
    N5  SN3q  1 4.300000e-01    3.590000e+00
    N5  SN4q  1 4.300000e-01    3.770000e+00
    N5  SN5h  1 4.300000e-01    3.380000e+00
    N5 SX1eh  1 4.300000e-01    2.770000e+00
    N5 SX2eh  1 4.300000e-01    2.920000e+00
    N5 SX3eh  1 4.300000e-01    3.160000e+00
    N5 SX4eh  1 4.300000e-01    3.380000e+00
    N5 SC1eh  1 4.300000e-01    2.320000e+00
    N5 SC2eh  1 4.300000e-01    2.530000e+00
    N5 SC3eh  1 4.300000e-01    2.770000e+00
    N5 SC4eh  1 4.300000e-01    2.770000e+00
    N5 SC5eh  1 4.300000e-01    2.920000e+00
    N5 SC6eh  1 4.300000e-01    3.160000e+00
    N5 SX1vh  1 4.300000e-01    2.770000e+00
    N5 SX2vh  1 4.300000e-01    2.920000e+00
    N5 SX3vh  1 4.300000e-01    3.160000e+00
    N5 SX4vh  1 4.300000e-01    3.380000e+00
    N5 SC1vh  1 4.300000e-01    2.320000e+00
    N5 SC2vh  1 4.300000e-01    2.530000e+00
    N5 SC3vh  1 4.300000e-01    2.770000e+00
    N5 SC4vh  1 4.300000e-01    2.770000e+00
    N5 SC5vh  1 4.300000e-01    2.920000e+00
    N5 SC6vh  1 4.300000e-01    3.160000e+00
    N5 SN1ah  1 4.300000e-01    2.920000e+00
    N5 SN2ah  1 4.300000e-01    3.160000e+00
    N5 SN3ah  1 4.300000e-01    3.160000e+00
    N5 SN4ah  1 4.300000e-01    3.380000e+00
    N5 SN5ah  1 4.300000e-01    3.380000e+00
    N5 SN1dh  1 4.300000e-01    2.920000e+00
    N5 SN2dh  1 4.300000e-01    3.160000e+00
    N5 SN3dh  1 4.300000e-01    3.160000e+00
    N5 SN4dh  1 4.300000e-01    3.380000e+00
    N5 SN5dh  1 4.300000e-01    3.380000e+00
    N5  SX1h  1 4.300000e-01    2.530000e+00
    N5  SX2h  1 4.300000e-01    2.770000e+00
    N5  SX3h  1 4.300000e-01    2.920000e+00
    N5  SX4h  1 4.300000e-01    3.160000e+00
    N5  SC1h  1 4.300000e-01    2.160000e+00
    N5  SC2h  1 4.300000e-01    2.320000e+00
    N5  SC3h  1 4.300000e-01    2.530000e+00
    N5  SC4h  1 4.300000e-01    2.530000e+00
    N5  SC5h  1 4.300000e-01    2.770000e+00
    N5  SC6h  1 4.300000e-01    2.920000e+00
    N5  SN1h  1 4.300000e-01    2.920000e+00
    N5  SN2h  1 4.300000e-01    3.160000e+00
    N5  SN3h  1 4.300000e-01    3.160000e+00
    N5  SN4h  1 4.300000e-01    3.380000e+00
    N5  SN5r  1 4.300000e-01    3.380000e+00
    N5 SX1er  1 4.300000e-01    2.770000e+00
    N5 SX2er  1 4.300000e-01    2.920000e+00
    N5 SX3er  1 4.300000e-01    3.160000e+00
    N5 SX4er  1 4.300000e-01    3.380000e+00
    N5 SC1er  1 4.300000e-01    2.320000e+00
    N5 SC2er  1 4.300000e-01    2.530000e+00
    N5 SC3er  1 4.300000e-01    2.770000e+00
    N5 SC4er  1 4.300000e-01    2.770000e+00
    N5 SC5er  1 4.300000e-01    2.920000e+00
    N5 SC6er  1 4.300000e-01    3.160000e+00
    N5 SX1vr  1 4.300000e-01    2.770000e+00
    N5 SX2vr  1 4.300000e-01    2.920000e+00
    N5 SX3vr  1 4.300000e-01    3.160000e+00
    N5 SX4vr  1 4.300000e-01    3.380000e+00
    N5 SC1vr  1 4.300000e-01    2.320000e+00
    N5 SC2vr  1 4.300000e-01    2.530000e+00
    N5 SC3vr  1 4.300000e-01    2.770000e+00
    N5 SC4vr  1 4.300000e-01    2.770000e+00
    N5 SC5vr  1 4.300000e-01    2.920000e+00
    N5 SC6vr  1 4.300000e-01    3.160000e+00
    N5 SN1ar  1 4.300000e-01    2.920000e+00
    N5 SN2ar  1 4.300000e-01    3.160000e+00
    N5 SN3ar  1 4.300000e-01    3.160000e+00
    N5 SN4ar  1 4.300000e-01    3.380000e+00
    N5 SN5ar  1 4.300000e-01    3.380000e+00
    N5 SN1dr  1 4.300000e-01    2.920000e+00
    N5 SN2dr  1 4.300000e-01    3.160000e+00
    N5 SN3dr  1 4.300000e-01    3.160000e+00
    N5 SN4dr  1 4.300000e-01    3.380000e+00
    N5 SN5dr  1 4.300000e-01    3.380000e+00
    N5  SX1r  1 4.300000e-01    2.530000e+00
    N5  SX2r  1 4.300000e-01    2.770000e+00
    N5  SX3r  1 4.300000e-01    2.920000e+00
    N5  SX4r  1 4.300000e-01    3.160000e+00
    N5  SC1r  1 4.300000e-01    2.160000e+00
    N5  SC2r  1 4.300000e-01    2.320000e+00
    N5  SC3r  1 4.300000e-01    2.530000e+00
    N5  SC4r  1 4.300000e-01    2.530000e+00
    N5  SC5r  1 4.300000e-01    2.770000e+00
    N5  SC6r  1 4.300000e-01    2.920000e+00
    N5  SN1r  1 4.300000e-01    2.920000e+00
    N5  SN2r  1 4.300000e-01    3.160000e+00
    N5  SN3r  1 4.300000e-01    3.160000e+00
    N5  SN4r  1 4.300000e-01    3.380000e+00
  SP6d    N5  1 4.300000e-01    3.160000e+00
  SP5d    N5  1 4.300000e-01    3.160000e+00
  SP4d    N5  1 4.300000e-01    3.160000e+00
  SP3d    N5  1 4.300000e-01    3.160000e+00
  SP2d    N5  1 4.300000e-01    3.380000e+00
  SP1d    N5  1 4.300000e-01    3.380000e+00
  SN6d    N5  1 4.300000e-01    3.590000e+00
  SP6a    N5  1 4.300000e-01    3.160000e+00
  SP5a    N5  1 4.300000e-01    3.160000e+00
  SP4a    N5  1 4.300000e-01    3.160000e+00
  SP3a    N5  1 4.300000e-01    3.160000e+00
  SP2a    N5  1 4.300000e-01    3.380000e+00
  SP1a    N5  1 4.300000e-01    3.380000e+00
  SN6a    N5  1 4.300000e-01    3.590000e+00
  SP6q    N5  1 4.300000e-01    3.590000e+00
  SP5q    N5  1 4.300000e-01    3.590000e+00
  SP4q    N5  1 4.300000e-01    3.590000e+00
  SP3q    N5  1 4.300000e-01    3.590000e+00
  SP2q    N5  1 4.300000e-01    3.770000e+00
  SP1q    N5  1 4.300000e-01    3.770000e+00
  SN6q    N5  1 4.300000e-01    3.970000e+00
 SN6aq    N5  1 4.300000e-01    3.970000e+00
 SP1aq    N5  1 4.300000e-01    3.770000e+00
 SP2aq    N5  1 4.300000e-01    3.770000e+00
 SP3aq    N5  1 4.300000e-01    3.590000e+00
 SP4aq    N5  1 4.300000e-01    3.590000e+00
 SP5aq    N5  1 4.300000e-01    3.590000e+00
 SP6aq    N5  1 4.300000e-01    3.590000e+00
 SN6dq    N5  1 4.300000e-01    3.970000e+00
 SP1dq    N5  1 4.300000e-01    3.770000e+00
 SP2dq    N5  1 4.300000e-01    3.770000e+00
 SP3dq    N5  1 4.300000e-01    3.590000e+00
 SP4dq    N5  1 4.300000e-01    3.590000e+00
 SP5dq    N5  1 4.300000e-01    3.590000e+00
 SP6dq    N5  1 4.300000e-01    3.590000e+00
  SP6h    N5  1 4.300000e-01    3.160000e+00
  SP5h    N5  1 4.300000e-01    3.160000e+00
  SP4h    N5  1 4.300000e-01    3.160000e+00
  SP3h    N5  1 4.300000e-01    3.160000e+00
  SP2h    N5  1 4.300000e-01    3.380000e+00
  SP1h    N5  1 4.300000e-01    3.380000e+00
  SN6h    N5  1 4.300000e-01    3.590000e+00
 SN6ah    N5  1 4.300000e-01    3.590000e+00
 SP1ah    N5  1 4.300000e-01    3.380000e+00
 SP2ah    N5  1 4.300000e-01    3.380000e+00
 SP3ah    N5  1 4.300000e-01    3.160000e+00
 SP4ah    N5  1 4.300000e-01    3.160000e+00
 SP5ah    N5  1 4.300000e-01    3.160000e+00
 SP6ah    N5  1 4.300000e-01    3.160000e+00
 SN6dh    N5  1 4.300000e-01    3.590000e+00
 SP1dh    N5  1 4.300000e-01    3.380000e+00
 SP2dh    N5  1 4.300000e-01    3.380000e+00
 SP3dh    N5  1 4.300000e-01    3.160000e+00
 SP4dh    N5  1 4.300000e-01    3.160000e+00
 SP5dh    N5  1 4.300000e-01    3.160000e+00
 SP6dh    N5  1 4.300000e-01    3.160000e+00
  SP6r    N5  1 4.300000e-01    3.160000e+00
  SP5r    N5  1 4.300000e-01    3.160000e+00
  SP4r    N5  1 4.300000e-01    3.160000e+00
  SP3r    N5  1 4.300000e-01    3.160000e+00
  SP2r    N5  1 4.300000e-01    3.380000e+00
  SP1r    N5  1 4.300000e-01    3.380000e+00
  SN6r    N5  1 4.300000e-01    3.590000e+00
 SN6ar    N5  1 4.300000e-01    3.590000e+00
 SP1ar    N5  1 4.300000e-01    3.380000e+00
 SP2ar    N5  1 4.300000e-01    3.380000e+00
 SP3ar    N5  1 4.300000e-01    3.160000e+00
 SP4ar    N5  1 4.300000e-01    3.160000e+00
 SP5ar    N5  1 4.300000e-01    3.160000e+00
 SP6ar    N5  1 4.300000e-01    3.160000e+00
 SN6dr    N5  1 4.300000e-01    3.590000e+00
 SP1dr    N5  1 4.300000e-01    3.380000e+00
 SP2dr    N5  1 4.300000e-01    3.380000e+00
 SP3dr    N5  1 4.300000e-01    3.160000e+00
 SP4dr    N5  1 4.300000e-01    3.160000e+00
 SP5dr    N5  1 4.300000e-01    3.160000e+00
 SP6dr    N5  1 4.300000e-01    3.160000e+00
    N5   TN5  1 3.950000e-01    2.700000e+00
    N5   TN4  1 3.950000e-01    2.700000e+00
    N5   TN3  1 3.950000e-01    2.500000e+00
    N5   TN2  1 3.950000e-01    2.500000e+00
    N5   TN1  1 3.950000e-01    2.310000e+00
    N5   TC6  1 3.950000e-01    2.310000e+00
    N5   TC5  1 3.950000e-01    2.110000e+00
    N5   TC4  1 3.950000e-01    1.850000e+00
    N5   TC3  1 3.950000e-01    1.850000e+00
    N5   TC2  1 3.950000e-01    1.670000e+00
    N5   TC1  1 3.980000e-01    1.450000e+00
    N5   TX4  1 3.950000e-01    2.500000e+00
    N5   TX3  1 3.950000e-01    2.310000e+00
    N5   TX2  1 3.950000e-01    2.110000e+00
    N5   TX1  1 3.950000e-01    1.850000e+00
    N5  TN5d  1 3.950000e-01    2.700000e+00
    N5  TN1d  1 3.950000e-01    2.310000e+00
    N5  TN2d  1 3.950000e-01    2.500000e+00
    N5  TN3d  1 3.950000e-01    2.500000e+00
    N5  TN4d  1 3.950000e-01    2.700000e+00
    N5  TN5a  1 3.950000e-01    2.700000e+00
    N5  TN1a  1 3.950000e-01    2.310000e+00
    N5  TN2a  1 3.950000e-01    2.500000e+00
    N5  TN3a  1 3.950000e-01    2.500000e+00
    N5  TN4a  1 3.950000e-01    2.700000e+00
    N5  TC6v  1 3.950000e-01    2.500000e+00
    N5  TC5v  1 3.950000e-01    2.310000e+00
    N5  TC4v  1 3.950000e-01    2.110000e+00
    N5  TC3v  1 3.950000e-01    2.110000e+00
    N5  TC2v  1 3.950000e-01    1.850000e+00
    N5  TC1v  1 3.950000e-01    1.670000e+00
    N5  TX4v  1 3.950000e-01    2.700000e+00
    N5  TX3v  1 3.950000e-01    2.500000e+00
    N5  TX2v  1 3.950000e-01    2.310000e+00
    N5  TX1v  1 3.950000e-01    2.110000e+00
    N5  TC6e  1 3.950000e-01    2.500000e+00
    N5  TC5e  1 3.950000e-01    2.310000e+00
    N5  TC4e  1 3.950000e-01    2.110000e+00
    N5  TC3e  1 3.950000e-01    2.110000e+00
    N5  TC2e  1 3.950000e-01    1.850000e+00
    N5  TC1e  1 3.950000e-01    1.670000e+00
    N5  TX4e  1 3.950000e-01    2.700000e+00
    N5  TX3e  1 3.950000e-01    2.500000e+00
    N5  TX2e  1 3.950000e-01    2.310000e+00
    N5  TX1e  1 3.950000e-01    2.110000e+00
    N5  TN5q  1 3.950000e-01    3.190000e+00
    N5 TX1eq  1 3.950000e-01    2.500000e+00
    N5 TX2eq  1 3.950000e-01    2.700000e+00
    N5 TX3eq  1 3.950000e-01    2.940000e+00
    N5 TX4eq  1 3.950000e-01    3.190000e+00
    N5 TC1eq  1 3.950000e-01    2.110000e+00
    N5 TC2eq  1 3.950000e-01    2.310000e+00
    N5 TC3eq  1 3.950000e-01    2.500000e+00
    N5 TC4eq  1 3.950000e-01    2.500000e+00
    N5 TC5eq  1 3.950000e-01    2.700000e+00
    N5 TC6eq  1 3.950000e-01    2.940000e+00
    N5 TX1vq  1 3.950000e-01    2.500000e+00
    N5 TX2vq  1 3.950000e-01    2.700000e+00
    N5 TX3vq  1 3.950000e-01    2.940000e+00
    N5 TX4vq  1 3.950000e-01    3.190000e+00
    N5 TC1vq  1 3.950000e-01    2.110000e+00
    N5 TC2vq  1 3.950000e-01    2.310000e+00
    N5 TC3vq  1 3.950000e-01    2.500000e+00
    N5 TC4vq  1 3.950000e-01    2.500000e+00
    N5 TC5vq  1 3.950000e-01    2.700000e+00
    N5 TC6vq  1 3.950000e-01    2.940000e+00
    N5 TN1aq  1 3.950000e-01    2.700000e+00
    N5 TN2aq  1 3.950000e-01    2.940000e+00
    N5 TN3aq  1 3.950000e-01    2.940000e+00
    N5 TN4aq  1 3.950000e-01    3.190000e+00
    N5 TN5aq  1 3.950000e-01    3.190000e+00
    N5 TN1dq  1 3.950000e-01    2.700000e+00
    N5 TN2dq  1 3.950000e-01    2.940000e+00
    N5 TN3dq  1 3.950000e-01    2.940000e+00
    N5 TN4dq  1 3.950000e-01    3.190000e+00
    N5 TN5dq  1 3.950000e-01    3.190000e+00
    N5  TX1q  1 3.950000e-01    2.310000e+00
    N5  TX2q  1 3.950000e-01    2.500000e+00
    N5  TX3q  1 3.950000e-01    2.700000e+00
    N5  TX4q  1 3.950000e-01    2.940000e+00
    N5  TC1q  1 3.950000e-01    1.850000e+00
    N5  TC2q  1 3.950000e-01    2.110000e+00
    N5  TC3q  1 3.950000e-01    2.310000e+00
    N5  TC4q  1 3.950000e-01    2.310000e+00
    N5  TC5q  1 3.950000e-01    2.500000e+00
    N5  TC6q  1 3.950000e-01    2.700000e+00
    N5  TN1q  1 3.950000e-01    2.700000e+00
    N5  TN2q  1 3.950000e-01    2.940000e+00
    N5  TN3q  1 3.950000e-01    2.940000e+00
    N5  TN4q  1 3.950000e-01    3.190000e+00
    N5  TN5h  1 3.950000e-01    2.700000e+00
    N5 TX1eh  1 3.950000e-01    2.110000e+00
    N5 TX2eh  1 3.950000e-01    2.310000e+00
    N5 TX3eh  1 3.950000e-01    2.500000e+00
    N5 TX4eh  1 3.950000e-01    2.700000e+00
    N5 TC1eh  1 3.950000e-01    1.670000e+00
    N5 TC2eh  1 3.950000e-01    1.850000e+00
    N5 TC3eh  1 3.950000e-01    2.110000e+00
    N5 TC4eh  1 3.950000e-01    2.110000e+00
    N5 TC5eh  1 3.950000e-01    2.310000e+00
    N5 TC6eh  1 3.950000e-01    2.500000e+00
    N5 TX1vh  1 3.950000e-01    2.110000e+00
    N5 TX2vh  1 3.950000e-01    2.310000e+00
    N5 TX3vh  1 3.950000e-01    2.500000e+00
    N5 TX4vh  1 3.950000e-01    2.700000e+00
    N5 TC1vh  1 3.950000e-01    1.670000e+00
    N5 TC2vh  1 3.950000e-01    1.850000e+00
    N5 TC3vh  1 3.950000e-01    2.110000e+00
    N5 TC4vh  1 3.950000e-01    2.110000e+00
    N5 TC5vh  1 3.950000e-01    2.310000e+00
    N5 TC6vh  1 3.950000e-01    2.500000e+00
    N5 TN1ah  1 3.950000e-01    2.310000e+00
    N5 TN2ah  1 3.950000e-01    2.500000e+00
    N5 TN3ah  1 3.950000e-01    2.500000e+00
    N5 TN4ah  1 3.950000e-01    2.700000e+00
    N5 TN5ah  1 3.950000e-01    2.700000e+00
    N5 TN1dh  1 3.950000e-01    2.310000e+00
    N5 TN2dh  1 3.950000e-01    2.500000e+00
    N5 TN3dh  1 3.950000e-01    2.500000e+00
    N5 TN4dh  1 3.950000e-01    2.700000e+00
    N5 TN5dh  1 3.950000e-01    2.700000e+00
    N5  TX1h  1 3.950000e-01    1.850000e+00
    N5  TX2h  1 3.950000e-01    2.110000e+00
    N5  TX3h  1 3.950000e-01    2.310000e+00
    N5  TX4h  1 3.950000e-01    2.500000e+00
    N5  TC1h  1 3.980000e-01    1.450000e+00
    N5  TC2h  1 3.950000e-01    1.670000e+00
    N5  TC3h  1 3.950000e-01    1.850000e+00
    N5  TC4h  1 3.950000e-01    1.850000e+00
    N5  TC5h  1 3.950000e-01    2.110000e+00
    N5  TC6h  1 3.950000e-01    2.310000e+00
    N5  TN1h  1 3.950000e-01    2.310000e+00
    N5  TN2h  1 3.950000e-01    2.500000e+00
    N5  TN3h  1 3.950000e-01    2.500000e+00
    N5  TN4h  1 3.950000e-01    2.700000e+00
    N5  TN5r  1 3.950000e-01    2.700000e+00
    N5 TX1er  1 3.950000e-01    2.110000e+00
    N5 TX2er  1 3.950000e-01    2.310000e+00
    N5 TX3er  1 3.950000e-01    2.500000e+00
    N5 TX4er  1 3.950000e-01    2.700000e+00
    N5 TC1er  1 3.950000e-01    1.670000e+00
    N5 TC2er  1 3.950000e-01    1.850000e+00
    N5 TC3er  1 3.950000e-01    2.110000e+00
    N5 TC4er  1 3.950000e-01    2.110000e+00
    N5 TC5er  1 3.950000e-01    2.310000e+00
    N5 TC6er  1 3.950000e-01    2.500000e+00
    N5 TX1vr  1 3.950000e-01    2.110000e+00
    N5 TX2vr  1 3.950000e-01    2.310000e+00
    N5 TX3vr  1 3.950000e-01    2.500000e+00
    N5 TX4vr  1 3.950000e-01    2.700000e+00
    N5 TC1vr  1 3.950000e-01    1.670000e+00
    N5 TC2vr  1 3.950000e-01    1.850000e+00
    N5 TC3vr  1 3.950000e-01    2.110000e+00
    N5 TC4vr  1 3.950000e-01    2.110000e+00
    N5 TC5vr  1 3.950000e-01    2.310000e+00
    N5 TC6vr  1 3.950000e-01    2.500000e+00
    N5 TN1ar  1 3.950000e-01    2.310000e+00
    N5 TN2ar  1 3.950000e-01    2.500000e+00
    N5 TN3ar  1 3.950000e-01    2.500000e+00
    N5 TN4ar  1 3.950000e-01    2.700000e+00
    N5 TN5ar  1 3.950000e-01    2.700000e+00
    N5 TN1dr  1 3.950000e-01    2.310000e+00
    N5 TN2dr  1 3.950000e-01    2.500000e+00
    N5 TN3dr  1 3.950000e-01    2.500000e+00
    N5 TN4dr  1 3.950000e-01    2.700000e+00
    N5 TN5dr  1 3.950000e-01    2.700000e+00
    N5  TX1r  1 3.950000e-01    1.850000e+00
    N5  TX2r  1 3.950000e-01    2.110000e+00
    N5  TX3r  1 3.950000e-01    2.310000e+00
    N5  TX4r  1 3.950000e-01    2.500000e+00
    N5  TC1r  1 3.980000e-01    1.450000e+00
    N5  TC2r  1 3.950000e-01    1.670000e+00
    N5  TC3r  1 3.950000e-01    1.850000e+00
    N5  TC4r  1 3.950000e-01    1.850000e+00
    N5  TC5r  1 3.950000e-01    2.110000e+00
    N5  TC6r  1 3.950000e-01    2.310000e+00
    N5  TN1r  1 3.950000e-01    2.310000e+00
    N5  TN2r  1 3.950000e-01    2.500000e+00
    N5  TN3r  1 3.950000e-01    2.500000e+00
    N5  TN4r  1 3.950000e-01    2.700000e+00
  TP6d    N5  1 3.950000e-01    2.500000e+00
  TP5d    N5  1 3.950000e-01    2.500000e+00
  TP4d    N5  1 3.950000e-01    2.500000e+00
  TP3d    N5  1 3.950000e-01    2.500000e+00
  TP2d    N5  1 3.950000e-01    2.700000e+00
  TP1d    N5  1 3.950000e-01    2.700000e+00
  TN6d    N5  1 3.950000e-01    2.940000e+00
  TP6a    N5  1 3.950000e-01    2.500000e+00
  TP5a    N5  1 3.950000e-01    2.500000e+00
  TP4a    N5  1 3.950000e-01    2.500000e+00
  TP3a    N5  1 3.950000e-01    2.500000e+00
  TP2a    N5  1 3.950000e-01    2.700000e+00
  TP1a    N5  1 3.950000e-01    2.700000e+00
  TN6a    N5  1 3.950000e-01    2.940000e+00
  TP6q    N5  1 3.950000e-01    2.940000e+00
  TP5q    N5  1 3.950000e-01    2.940000e+00
  TP4q    N5  1 3.950000e-01    2.940000e+00
  TP3q    N5  1 3.950000e-01    2.940000e+00
  TP2q    N5  1 3.950000e-01    3.190000e+00
  TP1q    N5  1 3.950000e-01    3.190000e+00
  TN6q    N5  1 3.950000e-01    3.430000e+00
 TN6aq    N5  1 3.950000e-01    3.430000e+00
 TP1aq    N5  1 3.950000e-01    3.190000e+00
 TP2aq    N5  1 3.950000e-01    3.190000e+00
 TP3aq    N5  1 3.950000e-01    2.940000e+00
 TP4aq    N5  1 3.950000e-01    2.940000e+00
 TP5aq    N5  1 3.950000e-01    2.940000e+00
 TP6aq    N5  1 3.950000e-01    2.940000e+00
 TN6dq    N5  1 3.950000e-01    3.430000e+00
 TP1dq    N5  1 3.950000e-01    3.190000e+00
 TP2dq    N5  1 3.950000e-01    3.190000e+00
 TP3dq    N5  1 3.950000e-01    2.940000e+00
 TP4dq    N5  1 3.950000e-01    2.940000e+00
 TP5dq    N5  1 3.950000e-01    2.940000e+00
 TP6dq    N5  1 3.950000e-01    2.940000e+00
  TP6h    N5  1 3.950000e-01    2.500000e+00
  TP5h    N5  1 3.950000e-01    2.500000e+00
  TP4h    N5  1 3.950000e-01    2.500000e+00
  TP3h    N5  1 3.950000e-01    2.500000e+00
  TP2h    N5  1 3.950000e-01    2.700000e+00
  TP1h    N5  1 3.950000e-01    2.700000e+00
  TN6h    N5  1 3.950000e-01    2.940000e+00
 TN6ah    N5  1 3.950000e-01    2.940000e+00
 TP1ah    N5  1 3.950000e-01    2.700000e+00
 TP2ah    N5  1 3.950000e-01    2.700000e+00
 TP3ah    N5  1 3.950000e-01    2.500000e+00
 TP4ah    N5  1 3.950000e-01    2.500000e+00
 TP5ah    N5  1 3.950000e-01    2.500000e+00
 TP6ah    N5  1 3.950000e-01    2.500000e+00
 TN6dh    N5  1 3.950000e-01    2.940000e+00
 TP1dh    N5  1 3.950000e-01    2.700000e+00
 TP2dh    N5  1 3.950000e-01    2.700000e+00
 TP3dh    N5  1 3.950000e-01    2.500000e+00
 TP4dh    N5  1 3.950000e-01    2.500000e+00
 TP5dh    N5  1 3.950000e-01    2.500000e+00
 TP6dh    N5  1 3.950000e-01    2.500000e+00
  TP6r    N5  1 3.950000e-01    2.500000e+00
  TP5r    N5  1 3.950000e-01    2.500000e+00
  TP4r    N5  1 3.950000e-01    2.500000e+00
  TP3r    N5  1 3.950000e-01    2.500000e+00
  TP2r    N5  1 3.950000e-01    2.700000e+00
  TP1r    N5  1 3.950000e-01    2.700000e+00
  TN6r    N5  1 3.950000e-01    2.940000e+00
 TN6ar    N5  1 3.950000e-01    2.940000e+00
 TP1ar    N5  1 3.950000e-01    2.700000e+00
 TP2ar    N5  1 3.950000e-01    2.700000e+00
 TP3ar    N5  1 3.950000e-01    2.500000e+00
 TP4ar    N5  1 3.950000e-01    2.500000e+00
 TP5ar    N5  1 3.950000e-01    2.500000e+00
 TP6ar    N5  1 3.950000e-01    2.500000e+00
 TN6dr    N5  1 3.950000e-01    2.940000e+00
 TP1dr    N5  1 3.950000e-01    2.700000e+00
 TP2dr    N5  1 3.950000e-01    2.700000e+00
 TP3dr    N5  1 3.950000e-01    2.500000e+00
 TP4dr    N5  1 3.950000e-01    2.500000e+00
 TP5dr    N5  1 3.950000e-01    2.500000e+00
 TP6dr    N5  1 3.950000e-01    2.500000e+00
   P6d   SN5  1 4.300000e-01    3.160000e+00
   P5d   SN5  1 4.300000e-01    3.160000e+00
   P4d   SN5  1 4.300000e-01    3.160000e+00
   P3d   SN5  1 4.300000e-01    3.160000e+00
   P2d   SN5  1 4.300000e-01    3.380000e+00
   P1d   SN5  1 4.300000e-01    3.380000e+00
   N6d   SN5  1 4.300000e-01    3.590000e+00
   P6a   SN5  1 4.300000e-01    3.160000e+00
   P5a   SN5  1 4.300000e-01    3.160000e+00
   P4a   SN5  1 4.300000e-01    3.160000e+00
   P3a   SN5  1 4.300000e-01    3.160000e+00
   P2a   SN5  1 4.300000e-01    3.380000e+00
   P1a   SN5  1 4.300000e-01    3.380000e+00
   N6a   SN5  1 4.300000e-01    3.590000e+00
   P6q   SN5  1 4.300000e-01    3.590000e+00
   P5q   SN5  1 4.300000e-01    3.590000e+00
   P4q   SN5  1 4.300000e-01    3.590000e+00
   P3q   SN5  1 4.300000e-01    3.590000e+00
   P2q   SN5  1 4.300000e-01    3.770000e+00
   P1q   SN5  1 4.300000e-01    3.770000e+00
   N6q   SN5  1 4.300000e-01    3.970000e+00
  N6aq   SN5  1 4.300000e-01    3.970000e+00
  P1aq   SN5  1 4.300000e-01    3.770000e+00
  P2aq   SN5  1 4.300000e-01    3.770000e+00
  P3aq   SN5  1 4.300000e-01    3.590000e+00
  P4aq   SN5  1 4.300000e-01    3.590000e+00
  P5aq   SN5  1 4.300000e-01    3.590000e+00
  P6aq   SN5  1 4.300000e-01    3.590000e+00
  N6dq   SN5  1 4.300000e-01    3.970000e+00
  P1dq   SN5  1 4.300000e-01    3.770000e+00
  P2dq   SN5  1 4.300000e-01    3.770000e+00
  P3dq   SN5  1 4.300000e-01    3.590000e+00
  P4dq   SN5  1 4.300000e-01    3.590000e+00
  P5dq   SN5  1 4.300000e-01    3.590000e+00
  P6dq   SN5  1 4.300000e-01    3.590000e+00
   P6h   SN5  1 4.300000e-01    3.160000e+00
   P5h   SN5  1 4.300000e-01    3.160000e+00
   P4h   SN5  1 4.300000e-01    3.160000e+00
   P3h   SN5  1 4.300000e-01    3.160000e+00
   P2h   SN5  1 4.300000e-01    3.380000e+00
   P1h   SN5  1 4.300000e-01    3.380000e+00
   N6h   SN5  1 4.300000e-01    3.590000e+00
  N6ah   SN5  1 4.300000e-01    3.590000e+00
  P1ah   SN5  1 4.300000e-01    3.380000e+00
  P2ah   SN5  1 4.300000e-01    3.380000e+00
  P3ah   SN5  1 4.300000e-01    3.160000e+00
  P4ah   SN5  1 4.300000e-01    3.160000e+00
  P5ah   SN5  1 4.300000e-01    3.160000e+00
  P6ah   SN5  1 4.300000e-01    3.160000e+00
  N6dh   SN5  1 4.300000e-01    3.590000e+00
  P1dh   SN5  1 4.300000e-01    3.380000e+00
  P2dh   SN5  1 4.300000e-01    3.380000e+00
  P3dh   SN5  1 4.300000e-01    3.160000e+00
  P4dh   SN5  1 4.300000e-01    3.160000e+00
  P5dh   SN5  1 4.300000e-01    3.160000e+00
  P6dh   SN5  1 4.300000e-01    3.160000e+00
   P6r   SN5  1 4.300000e-01    3.160000e+00
   P5r   SN5  1 4.300000e-01    3.160000e+00
   P4r   SN5  1 4.300000e-01    3.160000e+00
   P3r   SN5  1 4.300000e-01    3.160000e+00
   P2r   SN5  1 4.300000e-01    3.380000e+00
   P1r   SN5  1 4.300000e-01    3.380000e+00
   N6r   SN5  1 4.300000e-01    3.590000e+00
  N6ar   SN5  1 4.300000e-01    3.590000e+00
  P1ar   SN5  1 4.300000e-01    3.380000e+00
  P2ar   SN5  1 4.300000e-01    3.380000e+00
  P3ar   SN5  1 4.300000e-01    3.160000e+00
  P4ar   SN5  1 4.300000e-01    3.160000e+00
  P5ar   SN5  1 4.300000e-01    3.160000e+00
  P6ar   SN5  1 4.300000e-01    3.160000e+00
  N6dr   SN5  1 4.300000e-01    3.590000e+00
  P1dr   SN5  1 4.300000e-01    3.380000e+00
  P2dr   SN5  1 4.300000e-01    3.380000e+00
  P3dr   SN5  1 4.300000e-01    3.160000e+00
  P4dr   SN5  1 4.300000e-01    3.160000e+00
  P5dr   SN5  1 4.300000e-01    3.160000e+00
  P6dr   SN5  1 4.300000e-01    3.160000e+00
   SN5    N4  1 4.300000e-01    3.380000e+00
   SN5    N3  1 4.300000e-01    3.160000e+00
   SN5    N2  1 4.300000e-01    3.160000e+00
   SN5    N1  1 4.300000e-01    2.920000e+00
   SN5    C6  1 4.300000e-01    2.920000e+00
   SN5    C5  1 4.300000e-01    2.770000e+00
   SN5    C4  1 4.300000e-01    2.530000e+00
   SN5    C3  1 4.300000e-01    2.530000e+00
   SN5    C2  1 4.300000e-01    2.320000e+00
   SN5    C1  1 4.300000e-01    2.160000e+00
   SN5    X4  1 4.300000e-01    3.160000e+00
   SN5    X3  1 4.300000e-01    2.920000e+00
   SN5    X2  1 4.300000e-01    2.770000e+00
   SN5    X1  1 4.300000e-01    2.530000e+00
   SN5   N5d  1 4.300000e-01    3.380000e+00
   SN5   N1d  1 4.300000e-01    2.920000e+00
   SN5   N2d  1 4.300000e-01    3.160000e+00
   SN5   N3d  1 4.300000e-01    3.160000e+00
   SN5   N4d  1 4.300000e-01    3.380000e+00
   SN5   N5a  1 4.300000e-01    3.380000e+00
   SN5   N1a  1 4.300000e-01    2.920000e+00
   SN5   N2a  1 4.300000e-01    3.160000e+00
   SN5   N3a  1 4.300000e-01    3.160000e+00
   SN5   N4a  1 4.300000e-01    3.380000e+00
   SN5   C6v  1 4.300000e-01    3.160000e+00
   SN5   C5v  1 4.300000e-01    2.920000e+00
   SN5   C4v  1 4.300000e-01    2.770000e+00
   SN5   C3v  1 4.300000e-01    2.770000e+00
   SN5   C2v  1 4.300000e-01    2.530000e+00
   SN5   C1v  1 4.300000e-01    2.320000e+00
   SN5   X4v  1 4.300000e-01    3.380000e+00
   SN5   X3v  1 4.300000e-01    3.160000e+00
   SN5   X2v  1 4.300000e-01    2.920000e+00
   SN5   X1v  1 4.300000e-01    2.770000e+00
   SN5   C6e  1 4.300000e-01    3.160000e+00
   SN5   C5e  1 4.300000e-01    2.920000e+00
   SN5   C4e  1 4.300000e-01    2.770000e+00
   SN5   C3e  1 4.300000e-01    2.770000e+00
   SN5   C2e  1 4.300000e-01    2.530000e+00
   SN5   C1e  1 4.300000e-01    2.320000e+00
   SN5   X4e  1 4.300000e-01    3.380000e+00
   SN5   X3e  1 4.300000e-01    3.160000e+00
   SN5   X2e  1 4.300000e-01    2.920000e+00
   SN5   X1e  1 4.300000e-01    2.770000e+00
   SN5   N5q  1 4.300000e-01    3.770000e+00
   SN5  X1eq  1 4.300000e-01    3.160000e+00
   SN5  X2eq  1 4.300000e-01    3.380000e+00
   SN5  X3eq  1 4.300000e-01    3.590000e+00
   SN5  X4eq  1 4.300000e-01    3.770000e+00
   SN5  C1eq  1 4.300000e-01    2.770000e+00
   SN5  C2eq  1 4.300000e-01    2.920000e+00
   SN5  C3eq  1 4.300000e-01    3.160000e+00
   SN5  C4eq  1 4.300000e-01    3.160000e+00
   SN5  C5eq  1 4.300000e-01    3.380000e+00
   SN5  C6eq  1 4.300000e-01    3.590000e+00
   SN5  X1vq  1 4.300000e-01    3.160000e+00
   SN5  X2vq  1 4.300000e-01    3.380000e+00
   SN5  X3vq  1 4.300000e-01    3.590000e+00
   SN5  X4vq  1 4.300000e-01    3.770000e+00
   SN5  C1vq  1 4.300000e-01    2.770000e+00
   SN5  C2vq  1 4.300000e-01    2.920000e+00
   SN5  C3vq  1 4.300000e-01    3.160000e+00
   SN5  C4vq  1 4.300000e-01    3.160000e+00
   SN5  C5vq  1 4.300000e-01    3.380000e+00
   SN5  C6vq  1 4.300000e-01    3.590000e+00
   SN5  N1aq  1 4.300000e-01    3.380000e+00
   SN5  N2aq  1 4.300000e-01    3.590000e+00
   SN5  N3aq  1 4.300000e-01    3.590000e+00
   SN5  N4aq  1 4.300000e-01    3.770000e+00
   SN5  N5aq  1 4.300000e-01    3.770000e+00
   SN5  N1dq  1 4.300000e-01    3.380000e+00
   SN5  N2dq  1 4.300000e-01    3.590000e+00
   SN5  N3dq  1 4.300000e-01    3.590000e+00
   SN5  N4dq  1 4.300000e-01    3.770000e+00
   SN5  N5dq  1 4.300000e-01    3.770000e+00
   SN5   X1q  1 4.300000e-01    2.920000e+00
   SN5   X2q  1 4.300000e-01    3.160000e+00
   SN5   X3q  1 4.300000e-01    3.380000e+00
   SN5   X4q  1 4.300000e-01    3.590000e+00
   SN5   C1q  1 4.300000e-01    2.530000e+00
   SN5   C2q  1 4.300000e-01    2.770000e+00
   SN5   C3q  1 4.300000e-01    2.920000e+00
   SN5   C4q  1 4.300000e-01    2.920000e+00
   SN5   C5q  1 4.300000e-01    3.160000e+00
   SN5   C6q  1 4.300000e-01    3.380000e+00
   SN5   N1q  1 4.300000e-01    3.380000e+00
   SN5   N2q  1 4.300000e-01    3.590000e+00
   SN5   N3q  1 4.300000e-01    3.590000e+00
   SN5   N4q  1 4.300000e-01    3.770000e+00
   SN5   N5h  1 4.300000e-01    3.380000e+00
   SN5  X1eh  1 4.300000e-01    2.770000e+00
   SN5  X2eh  1 4.300000e-01    2.920000e+00
   SN5  X3eh  1 4.300000e-01    3.160000e+00
   SN5  X4eh  1 4.300000e-01    3.380000e+00
   SN5  C1eh  1 4.300000e-01    2.320000e+00
   SN5  C2eh  1 4.300000e-01    2.530000e+00
   SN5  C3eh  1 4.300000e-01    2.770000e+00
   SN5  C4eh  1 4.300000e-01    2.770000e+00
   SN5  C5eh  1 4.300000e-01    2.920000e+00
   SN5  C6eh  1 4.300000e-01    3.160000e+00
   SN5  X1vh  1 4.300000e-01    2.770000e+00
   SN5  X2vh  1 4.300000e-01    2.920000e+00
   SN5  X3vh  1 4.300000e-01    3.160000e+00
   SN5  X4vh  1 4.300000e-01    3.380000e+00
   SN5  C1vh  1 4.300000e-01    2.320000e+00
   SN5  C2vh  1 4.300000e-01    2.530000e+00
   SN5  C3vh  1 4.300000e-01    2.770000e+00
   SN5  C4vh  1 4.300000e-01    2.770000e+00
   SN5  C5vh  1 4.300000e-01    2.920000e+00
   SN5  C6vh  1 4.300000e-01    3.160000e+00
   SN5  N1ah  1 4.300000e-01    2.920000e+00
   SN5  N2ah  1 4.300000e-01    3.160000e+00
   SN5  N3ah  1 4.300000e-01    3.160000e+00
   SN5  N4ah  1 4.300000e-01    3.380000e+00
   SN5  N5ah  1 4.300000e-01    3.380000e+00
   SN5  N1dh  1 4.300000e-01    2.920000e+00
   SN5  N2dh  1 4.300000e-01    3.160000e+00
   SN5  N3dh  1 4.300000e-01    3.160000e+00
   SN5  N4dh  1 4.300000e-01    3.380000e+00
   SN5  N5dh  1 4.300000e-01    3.380000e+00
   SN5   X1h  1 4.300000e-01    2.530000e+00
   SN5   X2h  1 4.300000e-01    2.770000e+00
   SN5   X3h  1 4.300000e-01    2.920000e+00
   SN5   X4h  1 4.300000e-01    3.160000e+00
   SN5   C1h  1 4.300000e-01    2.160000e+00
   SN5   C2h  1 4.300000e-01    2.320000e+00
   SN5   C3h  1 4.300000e-01    2.530000e+00
   SN5   C4h  1 4.300000e-01    2.530000e+00
   SN5   C5h  1 4.300000e-01    2.770000e+00
   SN5   C6h  1 4.300000e-01    2.920000e+00
   SN5   N1h  1 4.300000e-01    2.920000e+00
   SN5   N2h  1 4.300000e-01    3.160000e+00
   SN5   N3h  1 4.300000e-01    3.160000e+00
   SN5   N4h  1 4.300000e-01    3.380000e+00
   SN5   N5r  1 4.300000e-01    3.380000e+00
   SN5  X1er  1 4.300000e-01    2.770000e+00
   SN5  X2er  1 4.300000e-01    2.920000e+00
   SN5  X3er  1 4.300000e-01    3.160000e+00
   SN5  X4er  1 4.300000e-01    3.380000e+00
   SN5  C1er  1 4.300000e-01    2.320000e+00
   SN5  C2er  1 4.300000e-01    2.530000e+00
   SN5  C3er  1 4.300000e-01    2.770000e+00
   SN5  C4er  1 4.300000e-01    2.770000e+00
   SN5  C5er  1 4.300000e-01    2.920000e+00
   SN5  C6er  1 4.300000e-01    3.160000e+00
   SN5  X1vr  1 4.300000e-01    2.770000e+00
   SN5  X2vr  1 4.300000e-01    2.920000e+00
   SN5  X3vr  1 4.300000e-01    3.160000e+00
   SN5  X4vr  1 4.300000e-01    3.380000e+00
   SN5  C1vr  1 4.300000e-01    2.320000e+00
   SN5  C2vr  1 4.300000e-01    2.530000e+00
   SN5  C3vr  1 4.300000e-01    2.770000e+00
   SN5  C4vr  1 4.300000e-01    2.770000e+00
   SN5  C5vr  1 4.300000e-01    2.920000e+00
   SN5  C6vr  1 4.300000e-01    3.160000e+00
   SN5  N1ar  1 4.300000e-01    2.920000e+00
   SN5  N2ar  1 4.300000e-01    3.160000e+00
   SN5  N3ar  1 4.300000e-01    3.160000e+00
   SN5  N4ar  1 4.300000e-01    3.380000e+00
   SN5  N5ar  1 4.300000e-01    3.380000e+00
   SN5  N1dr  1 4.300000e-01    2.920000e+00
   SN5  N2dr  1 4.300000e-01    3.160000e+00
   SN5  N3dr  1 4.300000e-01    3.160000e+00
   SN5  N4dr  1 4.300000e-01    3.380000e+00
   SN5  N5dr  1 4.300000e-01    3.380000e+00
   SN5   X1r  1 4.300000e-01    2.530000e+00
   SN5   X2r  1 4.300000e-01    2.770000e+00
   SN5   X3r  1 4.300000e-01    2.920000e+00
   SN5   X4r  1 4.300000e-01    3.160000e+00
   SN5   C1r  1 4.300000e-01    2.160000e+00
   SN5   C2r  1 4.300000e-01    2.320000e+00
   SN5   C3r  1 4.300000e-01    2.530000e+00
   SN5   C4r  1 4.300000e-01    2.530000e+00
   SN5   C5r  1 4.300000e-01    2.770000e+00
   SN5   C6r  1 4.300000e-01    2.920000e+00
   SN5   N1r  1 4.300000e-01    2.920000e+00
   SN5   N2r  1 4.300000e-01    3.160000e+00
   SN5   N3r  1 4.300000e-01    3.160000e+00
   SN5   N4r  1 4.300000e-01    3.380000e+00
   SN5   SN5  1 4.100000e-01    2.840000e+00
   SN5   SN4  1 4.100000e-01    2.840000e+00
   SN5   SN3  1 4.100000e-01    2.600000e+00
   SN5   SN2  1 4.100000e-01    2.600000e+00
   SN5   SN1  1 4.100000e-01    2.350000e+00
   SN5   SC6  1 4.100000e-01    2.350000e+00
   SN5   SC5  1 4.100000e-01    2.200000e+00
   SN5   SC4  1 4.100000e-01    2.040000e+00
   SN5   SC3  1 4.100000e-01    2.040000e+00
   SN5   SC2  1 4.100000e-01    1.910000e+00
   SN5   SC1  1 4.100000e-01    1.750000e+00
   SN5   SX4  1 4.100000e-01    2.600000e+00
   SN5   SX3  1 4.100000e-01    2.350000e+00
   SN5   SX2  1 4.100000e-01    2.200000e+00
   SN5   SX1  1 4.100000e-01    2.040000e+00
  SP6d   SN5  1 4.100000e-01    2.600000e+00
  SP5d   SN5  1 4.100000e-01    2.600000e+00
  SP4d   SN5  1 4.100000e-01    2.600000e+00
  SP3d   SN5  1 4.100000e-01    2.600000e+00
  SP2d   SN5  1 4.100000e-01    2.840000e+00
  SP1d   SN5  1 4.100000e-01    2.840000e+00
  SN6d   SN5  1 4.100000e-01    3.070000e+00
   SN5  SN5d  1 4.100000e-01    2.840000e+00
   SN5  SN1d  1 4.100000e-01    2.350000e+00
   SN5  SN2d  1 4.100000e-01    2.600000e+00
   SN5  SN3d  1 4.100000e-01    2.600000e+00
   SN5  SN4d  1 4.100000e-01    2.840000e+00
  SP6a   SN5  1 4.100000e-01    2.600000e+00
  SP5a   SN5  1 4.100000e-01    2.600000e+00
  SP4a   SN5  1 4.100000e-01    2.600000e+00
  SP3a   SN5  1 4.100000e-01    2.600000e+00
  SP2a   SN5  1 4.100000e-01    2.840000e+00
  SP1a   SN5  1 4.100000e-01    2.840000e+00
  SN6a   SN5  1 4.100000e-01    3.070000e+00
   SN5  SN5a  1 4.100000e-01    2.840000e+00
   SN5  SN1a  1 4.100000e-01    2.350000e+00
   SN5  SN2a  1 4.100000e-01    2.600000e+00
   SN5  SN3a  1 4.100000e-01    2.600000e+00
   SN5  SN4a  1 4.100000e-01    2.840000e+00
   SN5  SC6v  1 4.100000e-01    2.600000e+00
   SN5  SC5v  1 4.100000e-01    2.350000e+00
   SN5  SC4v  1 4.100000e-01    2.200000e+00
   SN5  SC3v  1 4.100000e-01    2.200000e+00
   SN5  SC2v  1 4.100000e-01    2.040000e+00
   SN5  SC1v  1 4.100000e-01    1.910000e+00
   SN5  SX4v  1 4.100000e-01    2.840000e+00
   SN5  SX3v  1 4.100000e-01    2.600000e+00
   SN5  SX2v  1 4.100000e-01    2.350000e+00
   SN5  SX1v  1 4.100000e-01    2.200000e+00
   SN5  SC6e  1 4.100000e-01    2.600000e+00
   SN5  SC5e  1 4.100000e-01    2.350000e+00
   SN5  SC4e  1 4.100000e-01    2.200000e+00
   SN5  SC3e  1 4.100000e-01    2.200000e+00
   SN5  SC2e  1 4.100000e-01    2.040000e+00
   SN5  SC1e  1 4.100000e-01    1.910000e+00
   SN5  SX4e  1 4.100000e-01    2.840000e+00
   SN5  SX3e  1 4.100000e-01    2.600000e+00
   SN5  SX2e  1 4.100000e-01    2.350000e+00
   SN5  SX1e  1 4.100000e-01    2.200000e+00
  SP6q   SN5  1 4.100000e-01    3.070000e+00
  SP5q   SN5  1 4.100000e-01    3.070000e+00
  SP4q   SN5  1 4.100000e-01    3.070000e+00
  SP3q   SN5  1 4.100000e-01    3.070000e+00
  SP2q   SN5  1 4.100000e-01    3.310000e+00
  SP1q   SN5  1 4.100000e-01    3.310000e+00
  SN6q   SN5  1 4.100000e-01    3.550000e+00
   SN5  SN5q  1 4.100000e-01    3.310000e+00
   SN5 SX1eq  1 4.100000e-01    2.600000e+00
   SN5 SX2eq  1 4.100000e-01    2.840000e+00
   SN5 SX3eq  1 4.100000e-01    3.070000e+00
   SN5 SX4eq  1 4.100000e-01    3.310000e+00
   SN5 SC1eq  1 4.100000e-01    2.200000e+00
   SN5 SC2eq  1 4.100000e-01    2.350000e+00
   SN5 SC3eq  1 4.100000e-01    2.600000e+00
   SN5 SC4eq  1 4.100000e-01    2.600000e+00
   SN5 SC5eq  1 4.100000e-01    2.840000e+00
   SN5 SC6eq  1 4.100000e-01    3.070000e+00
   SN5 SX1vq  1 4.100000e-01    2.600000e+00
   SN5 SX2vq  1 4.100000e-01    2.840000e+00
   SN5 SX3vq  1 4.100000e-01    3.070000e+00
   SN5 SX4vq  1 4.100000e-01    3.310000e+00
   SN5 SC1vq  1 4.100000e-01    2.200000e+00
   SN5 SC2vq  1 4.100000e-01    2.350000e+00
   SN5 SC3vq  1 4.100000e-01    2.600000e+00
   SN5 SC4vq  1 4.100000e-01    2.600000e+00
   SN5 SC5vq  1 4.100000e-01    2.840000e+00
   SN5 SC6vq  1 4.100000e-01    3.070000e+00
   SN5 SN1aq  1 4.100000e-01    2.840000e+00
   SN5 SN2aq  1 4.100000e-01    3.070000e+00
   SN5 SN3aq  1 4.100000e-01    3.070000e+00
   SN5 SN4aq  1 4.100000e-01    3.310000e+00
   SN5 SN5aq  1 4.100000e-01    3.310000e+00
 SN6aq   SN5  1 4.100000e-01    3.550000e+00
 SP1aq   SN5  1 4.100000e-01    3.310000e+00
 SP2aq   SN5  1 4.100000e-01    3.310000e+00
 SP3aq   SN5  1 4.100000e-01    3.070000e+00
 SP4aq   SN5  1 4.100000e-01    3.070000e+00
 SP5aq   SN5  1 4.100000e-01    3.070000e+00
 SP6aq   SN5  1 4.100000e-01    3.070000e+00
   SN5 SN1dq  1 4.100000e-01    2.840000e+00
   SN5 SN2dq  1 4.100000e-01    3.070000e+00
   SN5 SN3dq  1 4.100000e-01    3.070000e+00
   SN5 SN4dq  1 4.100000e-01    3.310000e+00
   SN5 SN5dq  1 4.100000e-01    3.310000e+00
 SN6dq   SN5  1 4.100000e-01    3.550000e+00
 SP1dq   SN5  1 4.100000e-01    3.310000e+00
 SP2dq   SN5  1 4.100000e-01    3.310000e+00
 SP3dq   SN5  1 4.100000e-01    3.070000e+00
 SP4dq   SN5  1 4.100000e-01    3.070000e+00
 SP5dq   SN5  1 4.100000e-01    3.070000e+00
 SP6dq   SN5  1 4.100000e-01    3.070000e+00
   SN5  SX1q  1 4.100000e-01    2.350000e+00
   SN5  SX2q  1 4.100000e-01    2.600000e+00
   SN5  SX3q  1 4.100000e-01    2.840000e+00
   SN5  SX4q  1 4.100000e-01    3.070000e+00
   SN5  SC1q  1 4.100000e-01    2.040000e+00
   SN5  SC2q  1 4.100000e-01    2.200000e+00
   SN5  SC3q  1 4.100000e-01    2.350000e+00
   SN5  SC4q  1 4.100000e-01    2.350000e+00
   SN5  SC5q  1 4.100000e-01    2.600000e+00
   SN5  SC6q  1 4.100000e-01    2.840000e+00
   SN5  SN1q  1 4.100000e-01    2.840000e+00
   SN5  SN2q  1 4.100000e-01    3.070000e+00
   SN5  SN3q  1 4.100000e-01    3.070000e+00
   SN5  SN4q  1 4.100000e-01    3.310000e+00
  SP6h   SN5  1 4.100000e-01    2.600000e+00
  SP5h   SN5  1 4.100000e-01    2.600000e+00
  SP4h   SN5  1 4.100000e-01    2.600000e+00
  SP3h   SN5  1 4.100000e-01    2.600000e+00
  SP2h   SN5  1 4.100000e-01    2.840000e+00
  SP1h   SN5  1 4.100000e-01    2.840000e+00
  SN6h   SN5  1 4.100000e-01    3.070000e+00
   SN5  SN5h  1 4.100000e-01    2.840000e+00
   SN5 SX1eh  1 4.100000e-01    2.200000e+00
   SN5 SX2eh  1 4.100000e-01    2.350000e+00
   SN5 SX3eh  1 4.100000e-01    2.600000e+00
   SN5 SX4eh  1 4.100000e-01    2.840000e+00
   SN5 SC1eh  1 4.100000e-01    1.910000e+00
   SN5 SC2eh  1 4.100000e-01    2.040000e+00
   SN5 SC3eh  1 4.100000e-01    2.200000e+00
   SN5 SC4eh  1 4.100000e-01    2.200000e+00
   SN5 SC5eh  1 4.100000e-01    2.350000e+00
   SN5 SC6eh  1 4.100000e-01    2.600000e+00
   SN5 SX1vh  1 4.100000e-01    2.200000e+00
   SN5 SX2vh  1 4.100000e-01    2.350000e+00
   SN5 SX3vh  1 4.100000e-01    2.600000e+00
   SN5 SX4vh  1 4.100000e-01    2.840000e+00
   SN5 SC1vh  1 4.100000e-01    1.910000e+00
   SN5 SC2vh  1 4.100000e-01    2.040000e+00
   SN5 SC3vh  1 4.100000e-01    2.200000e+00
   SN5 SC4vh  1 4.100000e-01    2.200000e+00
   SN5 SC5vh  1 4.100000e-01    2.350000e+00
   SN5 SC6vh  1 4.100000e-01    2.600000e+00
   SN5 SN1ah  1 4.100000e-01    2.350000e+00
   SN5 SN2ah  1 4.100000e-01    2.600000e+00
   SN5 SN3ah  1 4.100000e-01    2.600000e+00
   SN5 SN4ah  1 4.100000e-01    2.840000e+00
   SN5 SN5ah  1 4.100000e-01    2.840000e+00
 SN6ah   SN5  1 4.100000e-01    3.070000e+00
 SP1ah   SN5  1 4.100000e-01    2.840000e+00
 SP2ah   SN5  1 4.100000e-01    2.840000e+00
 SP3ah   SN5  1 4.100000e-01    2.600000e+00
 SP4ah   SN5  1 4.100000e-01    2.600000e+00
 SP5ah   SN5  1 4.100000e-01    2.600000e+00
 SP6ah   SN5  1 4.100000e-01    2.600000e+00
   SN5 SN1dh  1 4.100000e-01    2.350000e+00
   SN5 SN2dh  1 4.100000e-01    2.600000e+00
   SN5 SN3dh  1 4.100000e-01    2.600000e+00
   SN5 SN4dh  1 4.100000e-01    2.840000e+00
   SN5 SN5dh  1 4.100000e-01    2.840000e+00
 SN6dh   SN5  1 4.100000e-01    3.070000e+00
 SP1dh   SN5  1 4.100000e-01    2.840000e+00
 SP2dh   SN5  1 4.100000e-01    2.840000e+00
 SP3dh   SN5  1 4.100000e-01    2.600000e+00
 SP4dh   SN5  1 4.100000e-01    2.600000e+00
 SP5dh   SN5  1 4.100000e-01    2.600000e+00
 SP6dh   SN5  1 4.100000e-01    2.600000e+00
   SN5  SX1h  1 4.100000e-01    2.040000e+00
   SN5  SX2h  1 4.100000e-01    2.200000e+00
   SN5  SX3h  1 4.100000e-01    2.350000e+00
   SN5  SX4h  1 4.100000e-01    2.600000e+00
   SN5  SC1h  1 4.100000e-01    1.750000e+00
   SN5  SC2h  1 4.100000e-01    1.910000e+00
   SN5  SC3h  1 4.100000e-01    2.040000e+00
   SN5  SC4h  1 4.100000e-01    2.040000e+00
   SN5  SC5h  1 4.100000e-01    2.200000e+00
   SN5  SC6h  1 4.100000e-01    2.350000e+00
   SN5  SN1h  1 4.100000e-01    2.350000e+00
   SN5  SN2h  1 4.100000e-01    2.600000e+00
   SN5  SN3h  1 4.100000e-01    2.600000e+00
   SN5  SN4h  1 4.100000e-01    2.840000e+00
  SP6r   SN5  1 4.100000e-01    2.600000e+00
  SP5r   SN5  1 4.100000e-01    2.600000e+00
  SP4r   SN5  1 4.100000e-01    2.600000e+00
  SP3r   SN5  1 4.100000e-01    2.600000e+00
  SP2r   SN5  1 4.100000e-01    2.840000e+00
  SP1r   SN5  1 4.100000e-01    2.840000e+00
  SN6r   SN5  1 4.100000e-01    3.070000e+00
   SN5  SN5r  1 4.100000e-01    2.840000e+00
   SN5 SX1er  1 4.100000e-01    2.200000e+00
   SN5 SX2er  1 4.100000e-01    2.350000e+00
   SN5 SX3er  1 4.100000e-01    2.600000e+00
   SN5 SX4er  1 4.100000e-01    2.840000e+00
   SN5 SC1er  1 4.100000e-01    1.910000e+00
   SN5 SC2er  1 4.100000e-01    2.040000e+00
   SN5 SC3er  1 4.100000e-01    2.200000e+00
   SN5 SC4er  1 4.100000e-01    2.200000e+00
   SN5 SC5er  1 4.100000e-01    2.350000e+00
   SN5 SC6er  1 4.100000e-01    2.600000e+00
   SN5 SX1vr  1 4.100000e-01    2.200000e+00
   SN5 SX2vr  1 4.100000e-01    2.350000e+00
   SN5 SX3vr  1 4.100000e-01    2.600000e+00
   SN5 SX4vr  1 4.100000e-01    2.840000e+00
   SN5 SC1vr  1 4.100000e-01    1.910000e+00
   SN5 SC2vr  1 4.100000e-01    2.040000e+00
   SN5 SC3vr  1 4.100000e-01    2.200000e+00
   SN5 SC4vr  1 4.100000e-01    2.200000e+00
   SN5 SC5vr  1 4.100000e-01    2.350000e+00
   SN5 SC6vr  1 4.100000e-01    2.600000e+00
   SN5 SN1ar  1 4.100000e-01    2.350000e+00
   SN5 SN2ar  1 4.100000e-01    2.600000e+00
   SN5 SN3ar  1 4.100000e-01    2.600000e+00
   SN5 SN4ar  1 4.100000e-01    2.840000e+00
   SN5 SN5ar  1 4.100000e-01    2.840000e+00
 SN6ar   SN5  1 4.100000e-01    3.070000e+00
 SP1ar   SN5  1 4.100000e-01    2.840000e+00
 SP2ar   SN5  1 4.100000e-01    2.840000e+00
 SP3ar   SN5  1 4.100000e-01    2.600000e+00
 SP4ar   SN5  1 4.100000e-01    2.600000e+00
 SP5ar   SN5  1 4.100000e-01    2.600000e+00
 SP6ar   SN5  1 4.100000e-01    2.600000e+00
   SN5 SN1dr  1 4.100000e-01    2.350000e+00
   SN5 SN2dr  1 4.100000e-01    2.600000e+00
   SN5 SN3dr  1 4.100000e-01    2.600000e+00
   SN5 SN4dr  1 4.100000e-01    2.840000e+00
   SN5 SN5dr  1 4.100000e-01    2.840000e+00
 SN6dr   SN5  1 4.100000e-01    3.070000e+00
 SP1dr   SN5  1 4.100000e-01    2.840000e+00
 SP2dr   SN5  1 4.100000e-01    2.840000e+00
 SP3dr   SN5  1 4.100000e-01    2.600000e+00
 SP4dr   SN5  1 4.100000e-01    2.600000e+00
 SP5dr   SN5  1 4.100000e-01    2.600000e+00
 SP6dr   SN5  1 4.100000e-01    2.600000e+00
   SN5  SX1r  1 4.100000e-01    2.040000e+00
   SN5  SX2r  1 4.100000e-01    2.200000e+00
   SN5  SX3r  1 4.100000e-01    2.350000e+00
   SN5  SX4r  1 4.100000e-01    2.600000e+00
   SN5  SC1r  1 4.100000e-01    1.750000e+00
   SN5  SC2r  1 4.100000e-01    1.910000e+00
   SN5  SC3r  1 4.100000e-01    2.040000e+00
   SN5  SC4r  1 4.100000e-01    2.040000e+00
   SN5  SC5r  1 4.100000e-01    2.200000e+00
   SN5  SC6r  1 4.100000e-01    2.350000e+00
   SN5  SN1r  1 4.100000e-01    2.350000e+00
   SN5  SN2r  1 4.100000e-01    2.600000e+00
   SN5  SN3r  1 4.100000e-01    2.600000e+00
   SN5  SN4r  1 4.100000e-01    2.840000e+00
   SN5   TN5  1 3.650000e-01    2.340000e+00
   SN5   TN4  1 3.650000e-01    2.340000e+00
   SN5   TN3  1 3.650000e-01    2.110000e+00
   SN5   TN2  1 3.650000e-01    2.110000e+00
   SN5   TN1  1 3.650000e-01    1.910000e+00
   SN5   TC6  1 3.650000e-01    1.910000e+00
   SN5   TC5  1 3.650000e-01    1.750000e+00
   SN5   TC4  1 3.660000e-01    1.600000e+00
   SN5   TC3  1 3.660000e-01    1.600000e+00
   SN5   TC2  1 3.780000e-01    1.450000e+00
   SN5   TC1  1 3.940000e-01    1.290000e+00
   SN5   TX4  1 3.650000e-01    2.110000e+00
   SN5   TX3  1 3.650000e-01    1.910000e+00
   SN5   TX2  1 3.650000e-01    1.750000e+00
   SN5   TX1  1 3.660000e-01    1.600000e+00
   SN5  TN5d  1 3.650000e-01    2.340000e+00
   SN5  TN1d  1 3.650000e-01    1.910000e+00
   SN5  TN2d  1 3.650000e-01    2.110000e+00
   SN5  TN3d  1 3.650000e-01    2.110000e+00
   SN5  TN4d  1 3.650000e-01    2.340000e+00
   SN5  TN5a  1 3.650000e-01    2.340000e+00
   SN5  TN1a  1 3.650000e-01    1.910000e+00
   SN5  TN2a  1 3.650000e-01    2.110000e+00
   SN5  TN3a  1 3.650000e-01    2.110000e+00
   SN5  TN4a  1 3.650000e-01    2.340000e+00
   SN5  TC6v  1 3.650000e-01    2.110000e+00
   SN5  TC5v  1 3.650000e-01    1.910000e+00
   SN5  TC4v  1 3.650000e-01    1.750000e+00
   SN5  TC3v  1 3.650000e-01    1.750000e+00
   SN5  TC2v  1 3.660000e-01    1.600000e+00
   SN5  TC1v  1 3.780000e-01    1.450000e+00
   SN5  TX4v  1 3.650000e-01    2.340000e+00
   SN5  TX3v  1 3.650000e-01    2.110000e+00
   SN5  TX2v  1 3.650000e-01    1.910000e+00
   SN5  TX1v  1 3.650000e-01    1.750000e+00
   SN5  TC6e  1 3.650000e-01    2.110000e+00
   SN5  TC5e  1 3.650000e-01    1.910000e+00
   SN5  TC4e  1 3.650000e-01    1.750000e+00
   SN5  TC3e  1 3.650000e-01    1.750000e+00
   SN5  TC2e  1 3.660000e-01    1.600000e+00
   SN5  TC1e  1 3.780000e-01    1.450000e+00
   SN5  TX4e  1 3.650000e-01    2.340000e+00
   SN5  TX3e  1 3.650000e-01    2.110000e+00
   SN5  TX2e  1 3.650000e-01    1.910000e+00
   SN5  TX1e  1 3.650000e-01    1.750000e+00
   SN5  TN5q  1 3.650000e-01    2.830000e+00
   SN5 TX1eq  1 3.650000e-01    2.110000e+00
   SN5 TX2eq  1 3.650000e-01    2.340000e+00
   SN5 TX3eq  1 3.650000e-01    2.570000e+00
   SN5 TX4eq  1 3.650000e-01    2.830000e+00
   SN5 TC1eq  1 3.650000e-01    1.750000e+00
   SN5 TC2eq  1 3.650000e-01    1.910000e+00
   SN5 TC3eq  1 3.650000e-01    2.110000e+00
   SN5 TC4eq  1 3.650000e-01    2.110000e+00
   SN5 TC5eq  1 3.650000e-01    2.340000e+00
   SN5 TC6eq  1 3.650000e-01    2.570000e+00
   SN5 TX1vq  1 3.650000e-01    2.110000e+00
   SN5 TX2vq  1 3.650000e-01    2.340000e+00
   SN5 TX3vq  1 3.650000e-01    2.570000e+00
   SN5 TX4vq  1 3.650000e-01    2.830000e+00
   SN5 TC1vq  1 3.650000e-01    1.750000e+00
   SN5 TC2vq  1 3.650000e-01    1.910000e+00
   SN5 TC3vq  1 3.650000e-01    2.110000e+00
   SN5 TC4vq  1 3.650000e-01    2.110000e+00
   SN5 TC5vq  1 3.650000e-01    2.340000e+00
   SN5 TC6vq  1 3.650000e-01    2.570000e+00
   SN5 TN1aq  1 3.650000e-01    2.340000e+00
   SN5 TN2aq  1 3.650000e-01    2.570000e+00
   SN5 TN3aq  1 3.650000e-01    2.570000e+00
   SN5 TN4aq  1 3.650000e-01    2.830000e+00
   SN5 TN5aq  1 3.650000e-01    2.830000e+00
   SN5 TN1dq  1 3.650000e-01    2.340000e+00
   SN5 TN2dq  1 3.650000e-01    2.570000e+00
   SN5 TN3dq  1 3.650000e-01    2.570000e+00
   SN5 TN4dq  1 3.650000e-01    2.830000e+00
   SN5 TN5dq  1 3.650000e-01    2.830000e+00
   SN5  TX1q  1 3.650000e-01    1.910000e+00
   SN5  TX2q  1 3.650000e-01    2.110000e+00
   SN5  TX3q  1 3.650000e-01    2.340000e+00
   SN5  TX4q  1 3.650000e-01    2.570000e+00
   SN5  TC1q  1 3.660000e-01    1.600000e+00
   SN5  TC2q  1 3.650000e-01    1.750000e+00
   SN5  TC3q  1 3.650000e-01    1.910000e+00
   SN5  TC4q  1 3.650000e-01    1.910000e+00
   SN5  TC5q  1 3.650000e-01    2.110000e+00
   SN5  TC6q  1 3.650000e-01    2.340000e+00
   SN5  TN1q  1 3.650000e-01    2.340000e+00
   SN5  TN2q  1 3.650000e-01    2.570000e+00
   SN5  TN3q  1 3.650000e-01    2.570000e+00
   SN5  TN4q  1 3.650000e-01    2.830000e+00
   SN5  TN5h  1 3.650000e-01    2.340000e+00
   SN5 TX1eh  1 3.650000e-01    1.750000e+00
   SN5 TX2eh  1 3.650000e-01    1.910000e+00
   SN5 TX3eh  1 3.650000e-01    2.110000e+00
   SN5 TX4eh  1 3.650000e-01    2.340000e+00
   SN5 TC1eh  1 3.780000e-01    1.450000e+00
   SN5 TC2eh  1 3.660000e-01    1.600000e+00
   SN5 TC3eh  1 3.650000e-01    1.750000e+00
   SN5 TC4eh  1 3.650000e-01    1.750000e+00
   SN5 TC5eh  1 3.650000e-01    1.910000e+00
   SN5 TC6eh  1 3.650000e-01    2.110000e+00
   SN5 TX1vh  1 3.650000e-01    1.750000e+00
   SN5 TX2vh  1 3.650000e-01    1.910000e+00
   SN5 TX3vh  1 3.650000e-01    2.110000e+00
   SN5 TX4vh  1 3.650000e-01    2.340000e+00
   SN5 TC1vh  1 3.780000e-01    1.450000e+00
   SN5 TC2vh  1 3.660000e-01    1.600000e+00
   SN5 TC3vh  1 3.650000e-01    1.750000e+00
   SN5 TC4vh  1 3.650000e-01    1.750000e+00
   SN5 TC5vh  1 3.650000e-01    1.910000e+00
   SN5 TC6vh  1 3.650000e-01    2.110000e+00
   SN5 TN1ah  1 3.650000e-01    1.910000e+00
   SN5 TN2ah  1 3.650000e-01    2.110000e+00
   SN5 TN3ah  1 3.650000e-01    2.110000e+00
   SN5 TN4ah  1 3.650000e-01    2.340000e+00
   SN5 TN5ah  1 3.650000e-01    2.340000e+00
   SN5 TN1dh  1 3.650000e-01    1.910000e+00
   SN5 TN2dh  1 3.650000e-01    2.110000e+00
   SN5 TN3dh  1 3.650000e-01    2.110000e+00
   SN5 TN4dh  1 3.650000e-01    2.340000e+00
   SN5 TN5dh  1 3.650000e-01    2.340000e+00
   SN5  TX1h  1 3.660000e-01    1.600000e+00
   SN5  TX2h  1 3.650000e-01    1.750000e+00
   SN5  TX3h  1 3.650000e-01    1.910000e+00
   SN5  TX4h  1 3.650000e-01    2.110000e+00
   SN5  TC1h  1 3.940000e-01    1.290000e+00
   SN5  TC2h  1 3.780000e-01    1.450000e+00
   SN5  TC3h  1 3.660000e-01    1.600000e+00
   SN5  TC4h  1 3.660000e-01    1.600000e+00
   SN5  TC5h  1 3.650000e-01    1.750000e+00
   SN5  TC6h  1 3.650000e-01    1.910000e+00
   SN5  TN1h  1 3.650000e-01    1.910000e+00
   SN5  TN2h  1 3.650000e-01    2.110000e+00
   SN5  TN3h  1 3.650000e-01    2.110000e+00
   SN5  TN4h  1 3.650000e-01    2.340000e+00
   SN5  TN5r  1 3.650000e-01    2.340000e+00
   SN5 TX1er  1 3.650000e-01    1.750000e+00
   SN5 TX2er  1 3.650000e-01    1.910000e+00
   SN5 TX3er  1 3.650000e-01    2.110000e+00
   SN5 TX4er  1 3.650000e-01    2.340000e+00
   SN5 TC1er  1 3.780000e-01    1.450000e+00
   SN5 TC2er  1 3.660000e-01    1.600000e+00
   SN5 TC3er  1 3.650000e-01    1.750000e+00
   SN5 TC4er  1 3.650000e-01    1.750000e+00
   SN5 TC5er  1 3.650000e-01    1.910000e+00
   SN5 TC6er  1 3.650000e-01    2.110000e+00
   SN5 TX1vr  1 3.650000e-01    1.750000e+00
   SN5 TX2vr  1 3.650000e-01    1.910000e+00
   SN5 TX3vr  1 3.650000e-01    2.110000e+00
   SN5 TX4vr  1 3.650000e-01    2.340000e+00
   SN5 TC1vr  1 3.780000e-01    1.450000e+00
   SN5 TC2vr  1 3.660000e-01    1.600000e+00
   SN5 TC3vr  1 3.650000e-01    1.750000e+00
   SN5 TC4vr  1 3.650000e-01    1.750000e+00
   SN5 TC5vr  1 3.650000e-01    1.910000e+00
   SN5 TC6vr  1 3.650000e-01    2.110000e+00
   SN5 TN1ar  1 3.650000e-01    1.910000e+00
   SN5 TN2ar  1 3.650000e-01    2.110000e+00
   SN5 TN3ar  1 3.650000e-01    2.110000e+00
   SN5 TN4ar  1 3.650000e-01    2.340000e+00
   SN5 TN5ar  1 3.650000e-01    2.340000e+00
   SN5 TN1dr  1 3.650000e-01    1.910000e+00
   SN5 TN2dr  1 3.650000e-01    2.110000e+00
   SN5 TN3dr  1 3.650000e-01    2.110000e+00
   SN5 TN4dr  1 3.650000e-01    2.340000e+00
   SN5 TN5dr  1 3.650000e-01    2.340000e+00
   SN5  TX1r  1 3.660000e-01    1.600000e+00
   SN5  TX2r  1 3.650000e-01    1.750000e+00
   SN5  TX3r  1 3.650000e-01    1.910000e+00
   SN5  TX4r  1 3.650000e-01    2.110000e+00
   SN5  TC1r  1 3.940000e-01    1.290000e+00
   SN5  TC2r  1 3.780000e-01    1.450000e+00
   SN5  TC3r  1 3.660000e-01    1.600000e+00
   SN5  TC4r  1 3.660000e-01    1.600000e+00
   SN5  TC5r  1 3.650000e-01    1.750000e+00
   SN5  TC6r  1 3.650000e-01    1.910000e+00
   SN5  TN1r  1 3.650000e-01    1.910000e+00
   SN5  TN2r  1 3.650000e-01    2.110000e+00
   SN5  TN3r  1 3.650000e-01    2.110000e+00
   SN5  TN4r  1 3.650000e-01    2.340000e+00
  TP6d   SN5  1 3.650000e-01    2.110000e+00
  TP5d   SN5  1 3.650000e-01    2.110000e+00
  TP4d   SN5  1 3.650000e-01    2.110000e+00
  TP3d   SN5  1 3.650000e-01    2.110000e+00
  TP2d   SN5  1 3.650000e-01    2.340000e+00
  TP1d   SN5  1 3.650000e-01    2.340000e+00
  TN6d   SN5  1 3.650000e-01    2.570000e+00
  TP6a   SN5  1 3.650000e-01    2.110000e+00
  TP5a   SN5  1 3.650000e-01    2.110000e+00
  TP4a   SN5  1 3.650000e-01    2.110000e+00
  TP3a   SN5  1 3.650000e-01    2.110000e+00
  TP2a   SN5  1 3.650000e-01    2.340000e+00
  TP1a   SN5  1 3.650000e-01    2.340000e+00
  TN6a   SN5  1 3.650000e-01    2.570000e+00
  TP6q   SN5  1 3.650000e-01    2.570000e+00
  TP5q   SN5  1 3.650000e-01    2.570000e+00
  TP4q   SN5  1 3.650000e-01    2.570000e+00
  TP3q   SN5  1 3.650000e-01    2.570000e+00
  TP2q   SN5  1 3.650000e-01    2.830000e+00
  TP1q   SN5  1 3.650000e-01    2.830000e+00
  TN6q   SN5  1 3.650000e-01    3.100000e+00
 TN6aq   SN5  1 3.650000e-01    3.100000e+00
 TP1aq   SN5  1 3.650000e-01    2.830000e+00
 TP2aq   SN5  1 3.650000e-01    2.830000e+00
 TP3aq   SN5  1 3.650000e-01    2.570000e+00
 TP4aq   SN5  1 3.650000e-01    2.570000e+00
 TP5aq   SN5  1 3.650000e-01    2.570000e+00
 TP6aq   SN5  1 3.650000e-01    2.570000e+00
 TN6dq   SN5  1 3.650000e-01    3.100000e+00
 TP1dq   SN5  1 3.650000e-01    2.830000e+00
 TP2dq   SN5  1 3.650000e-01    2.830000e+00
 TP3dq   SN5  1 3.650000e-01    2.570000e+00
 TP4dq   SN5  1 3.650000e-01    2.570000e+00
 TP5dq   SN5  1 3.650000e-01    2.570000e+00
 TP6dq   SN5  1 3.650000e-01    2.570000e+00
  TP6h   SN5  1 3.650000e-01    2.110000e+00
  TP5h   SN5  1 3.650000e-01    2.110000e+00
  TP4h   SN5  1 3.650000e-01    2.110000e+00
  TP3h   SN5  1 3.650000e-01    2.110000e+00
  TP2h   SN5  1 3.650000e-01    2.340000e+00
  TP1h   SN5  1 3.650000e-01    2.340000e+00
  TN6h   SN5  1 3.650000e-01    2.570000e+00
 TN6ah   SN5  1 3.650000e-01    2.570000e+00
 TP1ah   SN5  1 3.650000e-01    2.340000e+00
 TP2ah   SN5  1 3.650000e-01    2.340000e+00
 TP3ah   SN5  1 3.650000e-01    2.110000e+00
 TP4ah   SN5  1 3.650000e-01    2.110000e+00
 TP5ah   SN5  1 3.650000e-01    2.110000e+00
 TP6ah   SN5  1 3.650000e-01    2.110000e+00
 TN6dh   SN5  1 3.650000e-01    2.570000e+00
 TP1dh   SN5  1 3.650000e-01    2.340000e+00
 TP2dh   SN5  1 3.650000e-01    2.340000e+00
 TP3dh   SN5  1 3.650000e-01    2.110000e+00
 TP4dh   SN5  1 3.650000e-01    2.110000e+00
 TP5dh   SN5  1 3.650000e-01    2.110000e+00
 TP6dh   SN5  1 3.650000e-01    2.110000e+00
  TP6r   SN5  1 3.650000e-01    2.110000e+00
  TP5r   SN5  1 3.650000e-01    2.110000e+00
  TP4r   SN5  1 3.650000e-01    2.110000e+00
  TP3r   SN5  1 3.650000e-01    2.110000e+00
  TP2r   SN5  1 3.650000e-01    2.340000e+00
  TP1r   SN5  1 3.650000e-01    2.340000e+00
  TN6r   SN5  1 3.650000e-01    2.570000e+00
 TN6ar   SN5  1 3.650000e-01    2.570000e+00
 TP1ar   SN5  1 3.650000e-01    2.340000e+00
 TP2ar   SN5  1 3.650000e-01    2.340000e+00
 TP3ar   SN5  1 3.650000e-01    2.110000e+00
 TP4ar   SN5  1 3.650000e-01    2.110000e+00
 TP5ar   SN5  1 3.650000e-01    2.110000e+00
 TP6ar   SN5  1 3.650000e-01    2.110000e+00
 TN6dr   SN5  1 3.650000e-01    2.570000e+00
 TP1dr   SN5  1 3.650000e-01    2.340000e+00
 TP2dr   SN5  1 3.650000e-01    2.340000e+00
 TP3dr   SN5  1 3.650000e-01    2.110000e+00
 TP4dr   SN5  1 3.650000e-01    2.110000e+00
 TP5dr   SN5  1 3.650000e-01    2.110000e+00
 TP6dr   SN5  1 3.650000e-01    2.110000e+00
   P6d   TN5  1 3.950000e-01    2.500000e+00
   P5d   TN5  1 3.950000e-01    2.500000e+00
   P4d   TN5  1 3.950000e-01    2.500000e+00
   P3d   TN5  1 3.950000e-01    2.500000e+00
   P2d   TN5  1 3.950000e-01    2.700000e+00
   P1d   TN5  1 3.950000e-01    2.700000e+00
   N6d   TN5  1 3.950000e-01    2.940000e+00
   P6a   TN5  1 3.950000e-01    2.500000e+00
   P5a   TN5  1 3.950000e-01    2.500000e+00
   P4a   TN5  1 3.950000e-01    2.500000e+00
   P3a   TN5  1 3.950000e-01    2.500000e+00
   P2a   TN5  1 3.950000e-01    2.700000e+00
   P1a   TN5  1 3.950000e-01    2.700000e+00
   N6a   TN5  1 3.950000e-01    2.940000e+00
   P6q   TN5  1 3.950000e-01    2.940000e+00
   P5q   TN5  1 3.950000e-01    2.940000e+00
   P4q   TN5  1 3.950000e-01    2.940000e+00
   P3q   TN5  1 3.950000e-01    2.940000e+00
   P2q   TN5  1 3.950000e-01    3.190000e+00
   P1q   TN5  1 3.950000e-01    3.190000e+00
   N6q   TN5  1 3.950000e-01    3.430000e+00
  N6aq   TN5  1 3.950000e-01    3.430000e+00
  P1aq   TN5  1 3.950000e-01    3.190000e+00
  P2aq   TN5  1 3.950000e-01    3.190000e+00
  P3aq   TN5  1 3.950000e-01    2.940000e+00
  P4aq   TN5  1 3.950000e-01    2.940000e+00
  P5aq   TN5  1 3.950000e-01    2.940000e+00
  P6aq   TN5  1 3.950000e-01    2.940000e+00
  N6dq   TN5  1 3.950000e-01    3.430000e+00
  P1dq   TN5  1 3.950000e-01    3.190000e+00
  P2dq   TN5  1 3.950000e-01    3.190000e+00
  P3dq   TN5  1 3.950000e-01    2.940000e+00
  P4dq   TN5  1 3.950000e-01    2.940000e+00
  P5dq   TN5  1 3.950000e-01    2.940000e+00
  P6dq   TN5  1 3.950000e-01    2.940000e+00
   P6h   TN5  1 3.950000e-01    2.500000e+00
   P5h   TN5  1 3.950000e-01    2.500000e+00
   P4h   TN5  1 3.950000e-01    2.500000e+00
   P3h   TN5  1 3.950000e-01    2.500000e+00
   P2h   TN5  1 3.950000e-01    2.700000e+00
   P1h   TN5  1 3.950000e-01    2.700000e+00
   N6h   TN5  1 3.950000e-01    2.940000e+00
  N6ah   TN5  1 3.950000e-01    2.940000e+00
  P1ah   TN5  1 3.950000e-01    2.700000e+00
  P2ah   TN5  1 3.950000e-01    2.700000e+00
  P3ah   TN5  1 3.950000e-01    2.500000e+00
  P4ah   TN5  1 3.950000e-01    2.500000e+00
  P5ah   TN5  1 3.950000e-01    2.500000e+00
  P6ah   TN5  1 3.950000e-01    2.500000e+00
  N6dh   TN5  1 3.950000e-01    2.940000e+00
  P1dh   TN5  1 3.950000e-01    2.700000e+00
  P2dh   TN5  1 3.950000e-01    2.700000e+00
  P3dh   TN5  1 3.950000e-01    2.500000e+00
  P4dh   TN5  1 3.950000e-01    2.500000e+00
  P5dh   TN5  1 3.950000e-01    2.500000e+00
  P6dh   TN5  1 3.950000e-01    2.500000e+00
   P6r   TN5  1 3.950000e-01    2.500000e+00
   P5r   TN5  1 3.950000e-01    2.500000e+00
   P4r   TN5  1 3.950000e-01    2.500000e+00
   P3r   TN5  1 3.950000e-01    2.500000e+00
   P2r   TN5  1 3.950000e-01    2.700000e+00
   P1r   TN5  1 3.950000e-01    2.700000e+00
   N6r   TN5  1 3.950000e-01    2.940000e+00
  N6ar   TN5  1 3.950000e-01    2.940000e+00
  P1ar   TN5  1 3.950000e-01    2.700000e+00
  P2ar   TN5  1 3.950000e-01    2.700000e+00
  P3ar   TN5  1 3.950000e-01    2.500000e+00
  P4ar   TN5  1 3.950000e-01    2.500000e+00
  P5ar   TN5  1 3.950000e-01    2.500000e+00
  P6ar   TN5  1 3.950000e-01    2.500000e+00
  N6dr   TN5  1 3.950000e-01    2.940000e+00
  P1dr   TN5  1 3.950000e-01    2.700000e+00
  P2dr   TN5  1 3.950000e-01    2.700000e+00
  P3dr   TN5  1 3.950000e-01    2.500000e+00
  P4dr   TN5  1 3.950000e-01    2.500000e+00
  P5dr   TN5  1 3.950000e-01    2.500000e+00
  P6dr   TN5  1 3.950000e-01    2.500000e+00
   TN5    N4  1 3.950000e-01    2.700000e+00
   TN5    N3  1 3.950000e-01    2.500000e+00
   TN5    N2  1 3.950000e-01    2.500000e+00
   TN5    N1  1 3.950000e-01    2.310000e+00
   TN5    C6  1 3.950000e-01    2.310000e+00
   TN5    C5  1 3.950000e-01    2.110000e+00
   TN5    C4  1 3.950000e-01    1.850000e+00
   TN5    C3  1 3.950000e-01    1.850000e+00
   TN5    C2  1 3.950000e-01    1.670000e+00
   TN5    C1  1 3.980000e-01    1.450000e+00
   TN5    X4  1 3.950000e-01    2.500000e+00
   TN5    X3  1 3.950000e-01    2.310000e+00
   TN5    X2  1 3.950000e-01    2.110000e+00
   TN5    X1  1 3.950000e-01    1.850000e+00
   TN5   N5d  1 3.950000e-01    2.700000e+00
   TN5   N1d  1 3.950000e-01    2.310000e+00
   TN5   N2d  1 3.950000e-01    2.500000e+00
   TN5   N3d  1 3.950000e-01    2.500000e+00
   TN5   N4d  1 3.950000e-01    2.700000e+00
   TN5   N5a  1 3.950000e-01    2.700000e+00
   TN5   N1a  1 3.950000e-01    2.310000e+00
   TN5   N2a  1 3.950000e-01    2.500000e+00
   TN5   N3a  1 3.950000e-01    2.500000e+00
   TN5   N4a  1 3.950000e-01    2.700000e+00
   TN5   C6v  1 3.950000e-01    2.500000e+00
   TN5   C5v  1 3.950000e-01    2.310000e+00
   TN5   C4v  1 3.950000e-01    2.110000e+00
   TN5   C3v  1 3.950000e-01    2.110000e+00
   TN5   C2v  1 3.950000e-01    1.850000e+00
   TN5   C1v  1 3.950000e-01    1.670000e+00
   TN5   X4v  1 3.950000e-01    2.700000e+00
   TN5   X3v  1 3.950000e-01    2.500000e+00
   TN5   X2v  1 3.950000e-01    2.310000e+00
   TN5   X1v  1 3.950000e-01    2.110000e+00
   TN5   C6e  1 3.950000e-01    2.500000e+00
   TN5   C5e  1 3.950000e-01    2.310000e+00
   TN5   C4e  1 3.950000e-01    2.110000e+00
   TN5   C3e  1 3.950000e-01    2.110000e+00
   TN5   C2e  1 3.950000e-01    1.850000e+00
   TN5   C1e  1 3.950000e-01    1.670000e+00
   TN5   X4e  1 3.950000e-01    2.700000e+00
   TN5   X3e  1 3.950000e-01    2.500000e+00
   TN5   X2e  1 3.950000e-01    2.310000e+00
   TN5   X1e  1 3.950000e-01    2.110000e+00
   TN5   N5q  1 3.950000e-01    3.190000e+00
   TN5  X1eq  1 3.950000e-01    2.500000e+00
   TN5  X2eq  1 3.950000e-01    2.700000e+00
   TN5  X3eq  1 3.950000e-01    2.940000e+00
   TN5  X4eq  1 3.950000e-01    3.190000e+00
   TN5  C1eq  1 3.950000e-01    2.110000e+00
   TN5  C2eq  1 3.950000e-01    2.310000e+00
   TN5  C3eq  1 3.950000e-01    2.500000e+00
   TN5  C4eq  1 3.950000e-01    2.500000e+00
   TN5  C5eq  1 3.950000e-01    2.700000e+00
   TN5  C6eq  1 3.950000e-01    2.940000e+00
   TN5  X1vq  1 3.950000e-01    2.500000e+00
   TN5  X2vq  1 3.950000e-01    2.700000e+00
   TN5  X3vq  1 3.950000e-01    2.940000e+00
   TN5  X4vq  1 3.950000e-01    3.190000e+00
   TN5  C1vq  1 3.950000e-01    2.110000e+00
   TN5  C2vq  1 3.950000e-01    2.310000e+00
   TN5  C3vq  1 3.950000e-01    2.500000e+00
   TN5  C4vq  1 3.950000e-01    2.500000e+00
   TN5  C5vq  1 3.950000e-01    2.700000e+00
   TN5  C6vq  1 3.950000e-01    2.940000e+00
   TN5  N1aq  1 3.950000e-01    2.700000e+00
   TN5  N2aq  1 3.950000e-01    2.940000e+00
   TN5  N3aq  1 3.950000e-01    2.940000e+00
   TN5  N4aq  1 3.950000e-01    3.190000e+00
   TN5  N5aq  1 3.950000e-01    3.190000e+00
   TN5  N1dq  1 3.950000e-01    2.700000e+00
   TN5  N2dq  1 3.950000e-01    2.940000e+00
   TN5  N3dq  1 3.950000e-01    2.940000e+00
   TN5  N4dq  1 3.950000e-01    3.190000e+00
   TN5  N5dq  1 3.950000e-01    3.190000e+00
   TN5   X1q  1 3.950000e-01    2.310000e+00
   TN5   X2q  1 3.950000e-01    2.500000e+00
   TN5   X3q  1 3.950000e-01    2.700000e+00
   TN5   X4q  1 3.950000e-01    2.940000e+00
   TN5   C1q  1 3.950000e-01    1.850000e+00
   TN5   C2q  1 3.950000e-01    2.110000e+00
   TN5   C3q  1 3.950000e-01    2.310000e+00
   TN5   C4q  1 3.950000e-01    2.310000e+00
   TN5   C5q  1 3.950000e-01    2.500000e+00
   TN5   C6q  1 3.950000e-01    2.700000e+00
   TN5   N1q  1 3.950000e-01    2.700000e+00
   TN5   N2q  1 3.950000e-01    2.940000e+00
   TN5   N3q  1 3.950000e-01    2.940000e+00
   TN5   N4q  1 3.950000e-01    3.190000e+00
   TN5   N5h  1 3.950000e-01    2.700000e+00
   TN5  X1eh  1 3.950000e-01    2.110000e+00
   TN5  X2eh  1 3.950000e-01    2.310000e+00
   TN5  X3eh  1 3.950000e-01    2.500000e+00
   TN5  X4eh  1 3.950000e-01    2.700000e+00
   TN5  C1eh  1 3.950000e-01    1.670000e+00
   TN5  C2eh  1 3.950000e-01    1.850000e+00
   TN5  C3eh  1 3.950000e-01    2.110000e+00
   TN5  C4eh  1 3.950000e-01    2.110000e+00
   TN5  C5eh  1 3.950000e-01    2.310000e+00
   TN5  C6eh  1 3.950000e-01    2.500000e+00
   TN5  X1vh  1 3.950000e-01    2.110000e+00
   TN5  X2vh  1 3.950000e-01    2.310000e+00
   TN5  X3vh  1 3.950000e-01    2.500000e+00
   TN5  X4vh  1 3.950000e-01    2.700000e+00
   TN5  C1vh  1 3.950000e-01    1.670000e+00
   TN5  C2vh  1 3.950000e-01    1.850000e+00
   TN5  C3vh  1 3.950000e-01    2.110000e+00
   TN5  C4vh  1 3.950000e-01    2.110000e+00
   TN5  C5vh  1 3.950000e-01    2.310000e+00
   TN5  C6vh  1 3.950000e-01    2.500000e+00
   TN5  N1ah  1 3.950000e-01    2.310000e+00
   TN5  N2ah  1 3.950000e-01    2.500000e+00
   TN5  N3ah  1 3.950000e-01    2.500000e+00
   TN5  N4ah  1 3.950000e-01    2.700000e+00
   TN5  N5ah  1 3.950000e-01    2.700000e+00
   TN5  N1dh  1 3.950000e-01    2.310000e+00
   TN5  N2dh  1 3.950000e-01    2.500000e+00
   TN5  N3dh  1 3.950000e-01    2.500000e+00
   TN5  N4dh  1 3.950000e-01    2.700000e+00
   TN5  N5dh  1 3.950000e-01    2.700000e+00
   TN5   X1h  1 3.950000e-01    1.850000e+00
   TN5   X2h  1 3.950000e-01    2.110000e+00
   TN5   X3h  1 3.950000e-01    2.310000e+00
   TN5   X4h  1 3.950000e-01    2.500000e+00
   TN5   C1h  1 3.980000e-01    1.450000e+00
   TN5   C2h  1 3.950000e-01    1.670000e+00
   TN5   C3h  1 3.950000e-01    1.850000e+00
   TN5   C4h  1 3.950000e-01    1.850000e+00
   TN5   C5h  1 3.950000e-01    2.110000e+00
   TN5   C6h  1 3.950000e-01    2.310000e+00
   TN5   N1h  1 3.950000e-01    2.310000e+00
   TN5   N2h  1 3.950000e-01    2.500000e+00
   TN5   N3h  1 3.950000e-01    2.500000e+00
   TN5   N4h  1 3.950000e-01    2.700000e+00
   TN5   N5r  1 3.950000e-01    2.700000e+00
   TN5  X1er  1 3.950000e-01    2.110000e+00
   TN5  X2er  1 3.950000e-01    2.310000e+00
   TN5  X3er  1 3.950000e-01    2.500000e+00
   TN5  X4er  1 3.950000e-01    2.700000e+00
   TN5  C1er  1 3.950000e-01    1.670000e+00
   TN5  C2er  1 3.950000e-01    1.850000e+00
   TN5  C3er  1 3.950000e-01    2.110000e+00
   TN5  C4er  1 3.950000e-01    2.110000e+00
   TN5  C5er  1 3.950000e-01    2.310000e+00
   TN5  C6er  1 3.950000e-01    2.500000e+00
   TN5  X1vr  1 3.950000e-01    2.110000e+00
   TN5  X2vr  1 3.950000e-01    2.310000e+00
   TN5  X3vr  1 3.950000e-01    2.500000e+00
   TN5  X4vr  1 3.950000e-01    2.700000e+00
   TN5  C1vr  1 3.950000e-01    1.670000e+00
   TN5  C2vr  1 3.950000e-01    1.850000e+00
   TN5  C3vr  1 3.950000e-01    2.110000e+00
   TN5  C4vr  1 3.950000e-01    2.110000e+00
   TN5  C5vr  1 3.950000e-01    2.310000e+00
   TN5  C6vr  1 3.950000e-01    2.500000e+00
   TN5  N1ar  1 3.950000e-01    2.310000e+00
   TN5  N2ar  1 3.950000e-01    2.500000e+00
   TN5  N3ar  1 3.950000e-01    2.500000e+00
   TN5  N4ar  1 3.950000e-01    2.700000e+00
   TN5  N5ar  1 3.950000e-01    2.700000e+00
   TN5  N1dr  1 3.950000e-01    2.310000e+00
   TN5  N2dr  1 3.950000e-01    2.500000e+00
   TN5  N3dr  1 3.950000e-01    2.500000e+00
   TN5  N4dr  1 3.950000e-01    2.700000e+00
   TN5  N5dr  1 3.950000e-01    2.700000e+00
   TN5   X1r  1 3.950000e-01    1.850000e+00
   TN5   X2r  1 3.950000e-01    2.110000e+00
   TN5   X3r  1 3.950000e-01    2.310000e+00
   TN5   X4r  1 3.950000e-01    2.500000e+00
   TN5   C1r  1 3.980000e-01    1.450000e+00
   TN5   C2r  1 3.950000e-01    1.670000e+00
   TN5   C3r  1 3.950000e-01    1.850000e+00
   TN5   C4r  1 3.950000e-01    1.850000e+00
   TN5   C5r  1 3.950000e-01    2.110000e+00
   TN5   C6r  1 3.950000e-01    2.310000e+00
   TN5   N1r  1 3.950000e-01    2.310000e+00
   TN5   N2r  1 3.950000e-01    2.500000e+00
   TN5   N3r  1 3.950000e-01    2.500000e+00
   TN5   N4r  1 3.950000e-01    2.700000e+00
   TN5   TN5  1 3.400000e-01    2.020000e+00
   TN5   TN4  1 3.400000e-01    2.020000e+00
   TN5   TN3  1 3.400000e-01    1.770000e+00
   TN5   TN2  1 3.400000e-01    1.770000e+00
   TN5   TN1  1 3.400000e-01    1.510000e+00
   TN5   TC6  1 3.400000e-01    1.510000e+00
   TN5   TC5  1 3.400000e-01    1.230000e+00
   TN5   TC4  1 3.520000e-01    1.050000e+00
   TN5   TC3  1 3.520000e-01    1.050000e+00
   TN5   TC2  1 3.660000e-01    9.350000e-01
   TN5   TC1  1 3.850000e-01    8.550000e-01
   TN5   TX4  1 3.400000e-01    1.770000e+00
   TN5   TX3  1 3.400000e-01    1.510000e+00
   TN5   TX2  1 3.400000e-01    1.230000e+00
   TN5   TX1  1 3.520000e-01    1.050000e+00
  TP6d   TN5  1 3.400000e-01    1.770000e+00
  TP5d   TN5  1 3.400000e-01    1.770000e+00
  TP4d   TN5  1 3.400000e-01    1.770000e+00
  TP3d   TN5  1 3.400000e-01    1.770000e+00
  TP2d   TN5  1 3.400000e-01    2.020000e+00
  TP1d   TN5  1 3.400000e-01    2.020000e+00
  TN6d   TN5  1 3.400000e-01    2.280000e+00
   TN5  TN5d  1 3.400000e-01    2.020000e+00
   TN5  TN1d  1 3.400000e-01    1.510000e+00
   TN5  TN2d  1 3.400000e-01    1.770000e+00
   TN5  TN3d  1 3.400000e-01    1.770000e+00
   TN5  TN4d  1 3.400000e-01    2.020000e+00
  TP6a   TN5  1 3.400000e-01    1.770000e+00
  TP5a   TN5  1 3.400000e-01    1.770000e+00
  TP4a   TN5  1 3.400000e-01    1.770000e+00
  TP3a   TN5  1 3.400000e-01    1.770000e+00
  TP2a   TN5  1 3.400000e-01    2.020000e+00
  TP1a   TN5  1 3.400000e-01    2.020000e+00
  TN6a   TN5  1 3.400000e-01    2.280000e+00
   TN5  TN5a  1 3.400000e-01    2.020000e+00
   TN5  TN1a  1 3.400000e-01    1.510000e+00
   TN5  TN2a  1 3.400000e-01    1.770000e+00
   TN5  TN3a  1 3.400000e-01    1.770000e+00
   TN5  TN4a  1 3.400000e-01    2.020000e+00
   TN5  TC6v  1 3.400000e-01    1.770000e+00
   TN5  TC5v  1 3.400000e-01    1.510000e+00
   TN5  TC4v  1 3.400000e-01    1.230000e+00
   TN5  TC3v  1 3.400000e-01    1.230000e+00
   TN5  TC2v  1 3.520000e-01    1.050000e+00
   TN5  TC1v  1 3.660000e-01    9.350000e-01
   TN5  TX4v  1 3.400000e-01    2.020000e+00
   TN5  TX3v  1 3.400000e-01    1.770000e+00
   TN5  TX2v  1 3.400000e-01    1.510000e+00
   TN5  TX1v  1 3.400000e-01    1.230000e+00
   TN5  TC6e  1 3.400000e-01    1.770000e+00
   TN5  TC5e  1 3.400000e-01    1.510000e+00
   TN5  TC4e  1 3.400000e-01    1.230000e+00
   TN5  TC3e  1 3.400000e-01    1.230000e+00
   TN5  TC2e  1 3.520000e-01    1.050000e+00
   TN5  TC1e  1 3.660000e-01    9.350000e-01
   TN5  TX4e  1 3.400000e-01    2.020000e+00
   TN5  TX3e  1 3.400000e-01    1.770000e+00
   TN5  TX2e  1 3.400000e-01    1.510000e+00
   TN5  TX1e  1 3.400000e-01    1.230000e+00
  TP6q   TN5  1 3.400000e-01    2.280000e+00
  TP5q   TN5  1 3.400000e-01    2.280000e+00
  TP4q   TN5  1 3.400000e-01    2.280000e+00
  TP3q   TN5  1 3.400000e-01    2.280000e+00
  TP2q   TN5  1 3.400000e-01    2.500000e+00
  TP1q   TN5  1 3.400000e-01    2.500000e+00
  TN6q   TN5  1 3.400000e-01    2.740000e+00
   TN5  TN5q  1 3.400000e-01    2.500000e+00
   TN5 TX1eq  1 3.400000e-01    1.770000e+00
   TN5 TX2eq  1 3.400000e-01    2.020000e+00
   TN5 TX3eq  1 3.400000e-01    2.280000e+00
   TN5 TX4eq  1 3.400000e-01    2.500000e+00
   TN5 TC1eq  1 3.400000e-01    1.230000e+00
   TN5 TC2eq  1 3.400000e-01    1.510000e+00
   TN5 TC3eq  1 3.400000e-01    1.770000e+00
   TN5 TC4eq  1 3.400000e-01    1.770000e+00
   TN5 TC5eq  1 3.400000e-01    2.020000e+00
   TN5 TC6eq  1 3.400000e-01    2.280000e+00
   TN5 TX1vq  1 3.400000e-01    1.770000e+00
   TN5 TX2vq  1 3.400000e-01    2.020000e+00
   TN5 TX3vq  1 3.400000e-01    2.280000e+00
   TN5 TX4vq  1 3.400000e-01    2.500000e+00
   TN5 TC1vq  1 3.400000e-01    1.230000e+00
   TN5 TC2vq  1 3.400000e-01    1.510000e+00
   TN5 TC3vq  1 3.400000e-01    1.770000e+00
   TN5 TC4vq  1 3.400000e-01    1.770000e+00
   TN5 TC5vq  1 3.400000e-01    2.020000e+00
   TN5 TC6vq  1 3.400000e-01    2.280000e+00
   TN5 TN1aq  1 3.400000e-01    2.020000e+00
   TN5 TN2aq  1 3.400000e-01    2.280000e+00
   TN5 TN3aq  1 3.400000e-01    2.280000e+00
   TN5 TN4aq  1 3.400000e-01    2.500000e+00
   TN5 TN5aq  1 3.400000e-01    2.500000e+00
 TN6aq   TN5  1 3.400000e-01    2.740000e+00
 TP1aq   TN5  1 3.400000e-01    2.500000e+00
 TP2aq   TN5  1 3.400000e-01    2.500000e+00
 TP3aq   TN5  1 3.400000e-01    2.280000e+00
 TP4aq   TN5  1 3.400000e-01    2.280000e+00
 TP5aq   TN5  1 3.400000e-01    2.280000e+00
 TP6aq   TN5  1 3.400000e-01    2.280000e+00
   TN5 TN1dq  1 3.400000e-01    2.020000e+00
   TN5 TN2dq  1 3.400000e-01    2.280000e+00
   TN5 TN3dq  1 3.400000e-01    2.280000e+00
   TN5 TN4dq  1 3.400000e-01    2.500000e+00
   TN5 TN5dq  1 3.400000e-01    2.500000e+00
 TN6dq   TN5  1 3.400000e-01    2.740000e+00
 TP1dq   TN5  1 3.400000e-01    2.500000e+00
 TP2dq   TN5  1 3.400000e-01    2.500000e+00
 TP3dq   TN5  1 3.400000e-01    2.280000e+00
 TP4dq   TN5  1 3.400000e-01    2.280000e+00
 TP5dq   TN5  1 3.400000e-01    2.280000e+00
 TP6dq   TN5  1 3.400000e-01    2.280000e+00
   TN5  TX1q  1 3.400000e-01    1.510000e+00
   TN5  TX2q  1 3.400000e-01    1.770000e+00
   TN5  TX3q  1 3.400000e-01    2.020000e+00
   TN5  TX4q  1 3.400000e-01    2.280000e+00
   TN5  TC1q  1 3.520000e-01    1.050000e+00
   TN5  TC2q  1 3.400000e-01    1.230000e+00
   TN5  TC3q  1 3.400000e-01    1.510000e+00
   TN5  TC4q  1 3.400000e-01    1.510000e+00
   TN5  TC5q  1 3.400000e-01    1.770000e+00
   TN5  TC6q  1 3.400000e-01    2.020000e+00
   TN5  TN1q  1 3.400000e-01    2.020000e+00
   TN5  TN2q  1 3.400000e-01    2.280000e+00
   TN5  TN3q  1 3.400000e-01    2.280000e+00
   TN5  TN4q  1 3.400000e-01    2.500000e+00
  TP6h   TN5  1 3.400000e-01    1.770000e+00
  TP5h   TN5  1 3.400000e-01    1.770000e+00
  TP4h   TN5  1 3.400000e-01    1.770000e+00
  TP3h   TN5  1 3.400000e-01    1.770000e+00
  TP2h   TN5  1 3.400000e-01    2.020000e+00
  TP1h   TN5  1 3.400000e-01    2.020000e+00
  TN6h   TN5  1 3.400000e-01    2.280000e+00
   TN5  TN5h  1 3.400000e-01    2.020000e+00
   TN5 TX1eh  1 3.400000e-01    1.230000e+00
   TN5 TX2eh  1 3.400000e-01    1.510000e+00
   TN5 TX3eh  1 3.400000e-01    1.770000e+00
   TN5 TX4eh  1 3.400000e-01    2.020000e+00
   TN5 TC1eh  1 3.660000e-01    9.350000e-01
   TN5 TC2eh  1 3.520000e-01    1.050000e+00
   TN5 TC3eh  1 3.400000e-01    1.230000e+00
   TN5 TC4eh  1 3.400000e-01    1.230000e+00
   TN5 TC5eh  1 3.400000e-01    1.510000e+00
   TN5 TC6eh  1 3.400000e-01    1.770000e+00
   TN5 TX1vh  1 3.400000e-01    1.230000e+00
   TN5 TX2vh  1 3.400000e-01    1.510000e+00
   TN5 TX3vh  1 3.400000e-01    1.770000e+00
   TN5 TX4vh  1 3.400000e-01    2.020000e+00
   TN5 TC1vh  1 3.660000e-01    9.350000e-01
   TN5 TC2vh  1 3.520000e-01    1.050000e+00
   TN5 TC3vh  1 3.400000e-01    1.230000e+00
   TN5 TC4vh  1 3.400000e-01    1.230000e+00
   TN5 TC5vh  1 3.400000e-01    1.510000e+00
   TN5 TC6vh  1 3.400000e-01    1.770000e+00
   TN5 TN1ah  1 3.400000e-01    1.510000e+00
   TN5 TN2ah  1 3.400000e-01    1.770000e+00
   TN5 TN3ah  1 3.400000e-01    1.770000e+00
   TN5 TN4ah  1 3.400000e-01    2.020000e+00
   TN5 TN5ah  1 3.400000e-01    2.020000e+00
 TN6ah   TN5  1 3.400000e-01    2.280000e+00
 TP1ah   TN5  1 3.400000e-01    2.020000e+00
 TP2ah   TN5  1 3.400000e-01    2.020000e+00
 TP3ah   TN5  1 3.400000e-01    1.770000e+00
 TP4ah   TN5  1 3.400000e-01    1.770000e+00
 TP5ah   TN5  1 3.400000e-01    1.770000e+00
 TP6ah   TN5  1 3.400000e-01    1.770000e+00
   TN5 TN1dh  1 3.400000e-01    1.510000e+00
   TN5 TN2dh  1 3.400000e-01    1.770000e+00
   TN5 TN3dh  1 3.400000e-01    1.770000e+00
   TN5 TN4dh  1 3.400000e-01    2.020000e+00
   TN5 TN5dh  1 3.400000e-01    2.020000e+00
 TN6dh   TN5  1 3.400000e-01    2.280000e+00
 TP1dh   TN5  1 3.400000e-01    2.020000e+00
 TP2dh   TN5  1 3.400000e-01    2.020000e+00
 TP3dh   TN5  1 3.400000e-01    1.770000e+00
 TP4dh   TN5  1 3.400000e-01    1.770000e+00
 TP5dh   TN5  1 3.400000e-01    1.770000e+00
 TP6dh   TN5  1 3.400000e-01    1.770000e+00
   TN5  TX1h  1 3.520000e-01    1.050000e+00
   TN5  TX2h  1 3.400000e-01    1.230000e+00
   TN5  TX3h  1 3.400000e-01    1.510000e+00
   TN5  TX4h  1 3.400000e-01    1.770000e+00
   TN5  TC1h  1 3.850000e-01    8.550000e-01
   TN5  TC2h  1 3.660000e-01    9.350000e-01
   TN5  TC3h  1 3.520000e-01    1.050000e+00
   TN5  TC4h  1 3.520000e-01    1.050000e+00
   TN5  TC5h  1 3.400000e-01    1.230000e+00
   TN5  TC6h  1 3.400000e-01    1.510000e+00
   TN5  TN1h  1 3.400000e-01    1.510000e+00
   TN5  TN2h  1 3.400000e-01    1.770000e+00
   TN5  TN3h  1 3.400000e-01    1.770000e+00
   TN5  TN4h  1 3.400000e-01    2.020000e+00
  TP6r   TN5  1 3.400000e-01    1.770000e+00
  TP5r   TN5  1 3.400000e-01    1.770000e+00
  TP4r   TN5  1 3.400000e-01    1.770000e+00
  TP3r   TN5  1 3.400000e-01    1.770000e+00
  TP2r   TN5  1 3.400000e-01    2.020000e+00
  TP1r   TN5  1 3.400000e-01    2.020000e+00
  TN6r   TN5  1 3.400000e-01    2.280000e+00
   TN5  TN5r  1 3.400000e-01    2.020000e+00
   TN5 TX1er  1 3.400000e-01    1.230000e+00
   TN5 TX2er  1 3.400000e-01    1.510000e+00
   TN5 TX3er  1 3.400000e-01    1.770000e+00
   TN5 TX4er  1 3.400000e-01    2.020000e+00
   TN5 TC1er  1 3.660000e-01    9.350000e-01
   TN5 TC2er  1 3.520000e-01    1.050000e+00
   TN5 TC3er  1 3.400000e-01    1.230000e+00
   TN5 TC4er  1 3.400000e-01    1.230000e+00
   TN5 TC5er  1 3.400000e-01    1.510000e+00
   TN5 TC6er  1 3.400000e-01    1.770000e+00
   TN5 TX1vr  1 3.400000e-01    1.230000e+00
   TN5 TX2vr  1 3.400000e-01    1.510000e+00
   TN5 TX3vr  1 3.400000e-01    1.770000e+00
   TN5 TX4vr  1 3.400000e-01    2.020000e+00
   TN5 TC1vr  1 3.660000e-01    9.350000e-01
   TN5 TC2vr  1 3.520000e-01    1.050000e+00
   TN5 TC3vr  1 3.400000e-01    1.230000e+00
   TN5 TC4vr  1 3.400000e-01    1.230000e+00
   TN5 TC5vr  1 3.400000e-01    1.510000e+00
   TN5 TC6vr  1 3.400000e-01    1.770000e+00
   TN5 TN1ar  1 3.400000e-01    1.510000e+00
   TN5 TN2ar  1 3.400000e-01    1.770000e+00
   TN5 TN3ar  1 3.400000e-01    1.770000e+00
   TN5 TN4ar  1 3.400000e-01    2.020000e+00
   TN5 TN5ar  1 3.400000e-01    2.020000e+00
 TN6ar   TN5  1 3.400000e-01    2.280000e+00
 TP1ar   TN5  1 3.400000e-01    2.020000e+00
 TP2ar   TN5  1 3.400000e-01    2.020000e+00
 TP3ar   TN5  1 3.400000e-01    1.770000e+00
 TP4ar   TN5  1 3.400000e-01    1.770000e+00
 TP5ar   TN5  1 3.400000e-01    1.770000e+00
 TP6ar   TN5  1 3.400000e-01    1.770000e+00
   TN5 TN1dr  1 3.400000e-01    1.510000e+00
   TN5 TN2dr  1 3.400000e-01    1.770000e+00
   TN5 TN3dr  1 3.400000e-01    1.770000e+00
   TN5 TN4dr  1 3.400000e-01    2.020000e+00
   TN5 TN5dr  1 3.400000e-01    2.020000e+00
 TN6dr   TN5  1 3.400000e-01    2.280000e+00
 TP1dr   TN5  1 3.400000e-01    2.020000e+00
 TP2dr   TN5  1 3.400000e-01    2.020000e+00
 TP3dr   TN5  1 3.400000e-01    1.770000e+00
 TP4dr   TN5  1 3.400000e-01    1.770000e+00
 TP5dr   TN5  1 3.400000e-01    1.770000e+00
 TP6dr   TN5  1 3.400000e-01    1.770000e+00
   TN5  TX1r  1 3.520000e-01    1.050000e+00
   TN5  TX2r  1 3.400000e-01    1.230000e+00
   TN5  TX3r  1 3.400000e-01    1.510000e+00
   TN5  TX4r  1 3.400000e-01    1.770000e+00
   TN5  TC1r  1 3.850000e-01    8.550000e-01
   TN5  TC2r  1 3.660000e-01    9.350000e-01
   TN5  TC3r  1 3.520000e-01    1.050000e+00
   TN5  TC4r  1 3.520000e-01    1.050000e+00
   TN5  TC5r  1 3.400000e-01    1.230000e+00
   TN5  TC6r  1 3.400000e-01    1.510000e+00
   TN5  TN1r  1 3.400000e-01    1.510000e+00
   TN5  TN2r  1 3.400000e-01    1.770000e+00
   TN5  TN3r  1 3.400000e-01    1.770000e+00
   TN5  TN4r  1 3.400000e-01    2.020000e+00
  SP6d   TN5  1 3.650000e-01    2.110000e+00
  SP5d   TN5  1 3.650000e-01    2.110000e+00
  SP4d   TN5  1 3.650000e-01    2.110000e+00
  SP3d   TN5  1 3.650000e-01    2.110000e+00
  SP2d   TN5  1 3.650000e-01    2.340000e+00
  SP1d   TN5  1 3.650000e-01    2.340000e+00
  SN6d   TN5  1 3.650000e-01    2.570000e+00
  SP6a   TN5  1 3.650000e-01    2.110000e+00
  SP5a   TN5  1 3.650000e-01    2.110000e+00
  SP4a   TN5  1 3.650000e-01    2.110000e+00
  SP3a   TN5  1 3.650000e-01    2.110000e+00
  SP2a   TN5  1 3.650000e-01    2.340000e+00
  SP1a   TN5  1 3.650000e-01    2.340000e+00
  SN6a   TN5  1 3.650000e-01    2.570000e+00
  SP6q   TN5  1 3.650000e-01    2.570000e+00
  SP5q   TN5  1 3.650000e-01    2.570000e+00
  SP4q   TN5  1 3.650000e-01    2.570000e+00
  SP3q   TN5  1 3.650000e-01    2.570000e+00
  SP2q   TN5  1 3.650000e-01    2.830000e+00
  SP1q   TN5  1 3.650000e-01    2.830000e+00
  SN6q   TN5  1 3.650000e-01    3.100000e+00
 SN6aq   TN5  1 3.650000e-01    3.100000e+00
 SP1aq   TN5  1 3.650000e-01    2.830000e+00
 SP2aq   TN5  1 3.650000e-01    2.830000e+00
 SP3aq   TN5  1 3.650000e-01    2.570000e+00
 SP4aq   TN5  1 3.650000e-01    2.570000e+00
 SP5aq   TN5  1 3.650000e-01    2.570000e+00
 SP6aq   TN5  1 3.650000e-01    2.570000e+00
 SN6dq   TN5  1 3.650000e-01    3.100000e+00
 SP1dq   TN5  1 3.650000e-01    2.830000e+00
 SP2dq   TN5  1 3.650000e-01    2.830000e+00
 SP3dq   TN5  1 3.650000e-01    2.570000e+00
 SP4dq   TN5  1 3.650000e-01    2.570000e+00
 SP5dq   TN5  1 3.650000e-01    2.570000e+00
 SP6dq   TN5  1 3.650000e-01    2.570000e+00
  SP6h   TN5  1 3.650000e-01    2.110000e+00
  SP5h   TN5  1 3.650000e-01    2.110000e+00
  SP4h   TN5  1 3.650000e-01    2.110000e+00
  SP3h   TN5  1 3.650000e-01    2.110000e+00
  SP2h   TN5  1 3.650000e-01    2.340000e+00
  SP1h   TN5  1 3.650000e-01    2.340000e+00
  SN6h   TN5  1 3.650000e-01    2.570000e+00
 SN6ah   TN5  1 3.650000e-01    2.570000e+00
 SP1ah   TN5  1 3.650000e-01    2.340000e+00
 SP2ah   TN5  1 3.650000e-01    2.340000e+00
 SP3ah   TN5  1 3.650000e-01    2.110000e+00
 SP4ah   TN5  1 3.650000e-01    2.110000e+00
 SP5ah   TN5  1 3.650000e-01    2.110000e+00
 SP6ah   TN5  1 3.650000e-01    2.110000e+00
 SN6dh   TN5  1 3.650000e-01    2.570000e+00
 SP1dh   TN5  1 3.650000e-01    2.340000e+00
 SP2dh   TN5  1 3.650000e-01    2.340000e+00
 SP3dh   TN5  1 3.650000e-01    2.110000e+00
 SP4dh   TN5  1 3.650000e-01    2.110000e+00
 SP5dh   TN5  1 3.650000e-01    2.110000e+00
 SP6dh   TN5  1 3.650000e-01    2.110000e+00
  SP6r   TN5  1 3.650000e-01    2.110000e+00
  SP5r   TN5  1 3.650000e-01    2.110000e+00
  SP4r   TN5  1 3.650000e-01    2.110000e+00
  SP3r   TN5  1 3.650000e-01    2.110000e+00
  SP2r   TN5  1 3.650000e-01    2.340000e+00
  SP1r   TN5  1 3.650000e-01    2.340000e+00
  SN6r   TN5  1 3.650000e-01    2.570000e+00
 SN6ar   TN5  1 3.650000e-01    2.570000e+00
 SP1ar   TN5  1 3.650000e-01    2.340000e+00
 SP2ar   TN5  1 3.650000e-01    2.340000e+00
 SP3ar   TN5  1 3.650000e-01    2.110000e+00
 SP4ar   TN5  1 3.650000e-01    2.110000e+00
 SP5ar   TN5  1 3.650000e-01    2.110000e+00
 SP6ar   TN5  1 3.650000e-01    2.110000e+00
 SN6dr   TN5  1 3.650000e-01    2.570000e+00
 SP1dr   TN5  1 3.650000e-01    2.340000e+00
 SP2dr   TN5  1 3.650000e-01    2.340000e+00
 SP3dr   TN5  1 3.650000e-01    2.110000e+00
 SP4dr   TN5  1 3.650000e-01    2.110000e+00
 SP5dr   TN5  1 3.650000e-01    2.110000e+00
 SP6dr   TN5  1 3.650000e-01    2.110000e+00
   TN5   SN4  1 3.650000e-01    2.340000e+00
   TN5   SN3  1 3.650000e-01    2.110000e+00
   TN5   SN2  1 3.650000e-01    2.110000e+00
   TN5   SN1  1 3.650000e-01    1.910000e+00
   TN5   SC6  1 3.650000e-01    1.910000e+00
   TN5   SC5  1 3.650000e-01    1.750000e+00
   TN5   SC4  1 3.660000e-01    1.600000e+00
   TN5   SC3  1 3.660000e-01    1.600000e+00
   TN5   SC2  1 3.780000e-01    1.450000e+00
   TN5   SC1  1 3.940000e-01    1.290000e+00
   TN5   SX4  1 3.650000e-01    2.110000e+00
   TN5   SX3  1 3.650000e-01    1.910000e+00
   TN5   SX2  1 3.650000e-01    1.750000e+00
   TN5   SX1  1 3.660000e-01    1.600000e+00
   TN5  SN5d  1 3.650000e-01    2.340000e+00
   TN5  SN1d  1 3.650000e-01    1.910000e+00
   TN5  SN2d  1 3.650000e-01    2.110000e+00
   TN5  SN3d  1 3.650000e-01    2.110000e+00
   TN5  SN4d  1 3.650000e-01    2.340000e+00
   TN5  SN5a  1 3.650000e-01    2.340000e+00
   TN5  SN1a  1 3.650000e-01    1.910000e+00
   TN5  SN2a  1 3.650000e-01    2.110000e+00
   TN5  SN3a  1 3.650000e-01    2.110000e+00
   TN5  SN4a  1 3.650000e-01    2.340000e+00
   TN5  SC6v  1 3.650000e-01    2.110000e+00
   TN5  SC5v  1 3.650000e-01    1.910000e+00
   TN5  SC4v  1 3.650000e-01    1.750000e+00
   TN5  SC3v  1 3.650000e-01    1.750000e+00
   TN5  SC2v  1 3.660000e-01    1.600000e+00
   TN5  SC1v  1 3.780000e-01    1.450000e+00
   TN5  SX4v  1 3.650000e-01    2.340000e+00
   TN5  SX3v  1 3.650000e-01    2.110000e+00
   TN5  SX2v  1 3.650000e-01    1.910000e+00
   TN5  SX1v  1 3.650000e-01    1.750000e+00
   TN5  SC6e  1 3.650000e-01    2.110000e+00
   TN5  SC5e  1 3.650000e-01    1.910000e+00
   TN5  SC4e  1 3.650000e-01    1.750000e+00
   TN5  SC3e  1 3.650000e-01    1.750000e+00
   TN5  SC2e  1 3.660000e-01    1.600000e+00
   TN5  SC1e  1 3.780000e-01    1.450000e+00
   TN5  SX4e  1 3.650000e-01    2.340000e+00
   TN5  SX3e  1 3.650000e-01    2.110000e+00
   TN5  SX2e  1 3.650000e-01    1.910000e+00
   TN5  SX1e  1 3.650000e-01    1.750000e+00
   TN5  SN5q  1 3.650000e-01    2.830000e+00
   TN5 SX1eq  1 3.650000e-01    2.110000e+00
   TN5 SX2eq  1 3.650000e-01    2.340000e+00
   TN5 SX3eq  1 3.650000e-01    2.570000e+00
   TN5 SX4eq  1 3.650000e-01    2.830000e+00
   TN5 SC1eq  1 3.650000e-01    1.750000e+00
   TN5 SC2eq  1 3.650000e-01    1.910000e+00
   TN5 SC3eq  1 3.650000e-01    2.110000e+00
   TN5 SC4eq  1 3.650000e-01    2.110000e+00
   TN5 SC5eq  1 3.650000e-01    2.340000e+00
   TN5 SC6eq  1 3.650000e-01    2.570000e+00
   TN5 SX1vq  1 3.650000e-01    2.110000e+00
   TN5 SX2vq  1 3.650000e-01    2.340000e+00
   TN5 SX3vq  1 3.650000e-01    2.570000e+00
   TN5 SX4vq  1 3.650000e-01    2.830000e+00
   TN5 SC1vq  1 3.650000e-01    1.750000e+00
   TN5 SC2vq  1 3.650000e-01    1.910000e+00
   TN5 SC3vq  1 3.650000e-01    2.110000e+00
   TN5 SC4vq  1 3.650000e-01    2.110000e+00
   TN5 SC5vq  1 3.650000e-01    2.340000e+00
   TN5 SC6vq  1 3.650000e-01    2.570000e+00
   TN5 SN1aq  1 3.650000e-01    2.340000e+00
   TN5 SN2aq  1 3.650000e-01    2.570000e+00
   TN5 SN3aq  1 3.650000e-01    2.570000e+00
   TN5 SN4aq  1 3.650000e-01    2.830000e+00
   TN5 SN5aq  1 3.650000e-01    2.830000e+00
   TN5 SN1dq  1 3.650000e-01    2.340000e+00
   TN5 SN2dq  1 3.650000e-01    2.570000e+00
   TN5 SN3dq  1 3.650000e-01    2.570000e+00
   TN5 SN4dq  1 3.650000e-01    2.830000e+00
   TN5 SN5dq  1 3.650000e-01    2.830000e+00
   TN5  SX1q  1 3.650000e-01    1.910000e+00
   TN5  SX2q  1 3.650000e-01    2.110000e+00
   TN5  SX3q  1 3.650000e-01    2.340000e+00
   TN5  SX4q  1 3.650000e-01    2.570000e+00
   TN5  SC1q  1 3.660000e-01    1.600000e+00
   TN5  SC2q  1 3.650000e-01    1.750000e+00
   TN5  SC3q  1 3.650000e-01    1.910000e+00
   TN5  SC4q  1 3.650000e-01    1.910000e+00
   TN5  SC5q  1 3.650000e-01    2.110000e+00
   TN5  SC6q  1 3.650000e-01    2.340000e+00
   TN5  SN1q  1 3.650000e-01    2.340000e+00
   TN5  SN2q  1 3.650000e-01    2.570000e+00
   TN5  SN3q  1 3.650000e-01    2.570000e+00
   TN5  SN4q  1 3.650000e-01    2.830000e+00
   TN5  SN5h  1 3.650000e-01    2.340000e+00
   TN5 SX1eh  1 3.650000e-01    1.750000e+00
   TN5 SX2eh  1 3.650000e-01    1.910000e+00
   TN5 SX3eh  1 3.650000e-01    2.110000e+00
   TN5 SX4eh  1 3.650000e-01    2.340000e+00
   TN5 SC1eh  1 3.780000e-01    1.450000e+00
   TN5 SC2eh  1 3.660000e-01    1.600000e+00
   TN5 SC3eh  1 3.650000e-01    1.750000e+00
   TN5 SC4eh  1 3.650000e-01    1.750000e+00
   TN5 SC5eh  1 3.650000e-01    1.910000e+00
   TN5 SC6eh  1 3.650000e-01    2.110000e+00
   TN5 SX1vh  1 3.650000e-01    1.750000e+00
   TN5 SX2vh  1 3.650000e-01    1.910000e+00
   TN5 SX3vh  1 3.650000e-01    2.110000e+00
   TN5 SX4vh  1 3.650000e-01    2.340000e+00
   TN5 SC1vh  1 3.780000e-01    1.450000e+00
   TN5 SC2vh  1 3.660000e-01    1.600000e+00
   TN5 SC3vh  1 3.650000e-01    1.750000e+00
   TN5 SC4vh  1 3.650000e-01    1.750000e+00
   TN5 SC5vh  1 3.650000e-01    1.910000e+00
   TN5 SC6vh  1 3.650000e-01    2.110000e+00
   TN5 SN1ah  1 3.650000e-01    1.910000e+00
   TN5 SN2ah  1 3.650000e-01    2.110000e+00
   TN5 SN3ah  1 3.650000e-01    2.110000e+00
   TN5 SN4ah  1 3.650000e-01    2.340000e+00
   TN5 SN5ah  1 3.650000e-01    2.340000e+00
   TN5 SN1dh  1 3.650000e-01    1.910000e+00
   TN5 SN2dh  1 3.650000e-01    2.110000e+00
   TN5 SN3dh  1 3.650000e-01    2.110000e+00
   TN5 SN4dh  1 3.650000e-01    2.340000e+00
   TN5 SN5dh  1 3.650000e-01    2.340000e+00
   TN5  SX1h  1 3.660000e-01    1.600000e+00
   TN5  SX2h  1 3.650000e-01    1.750000e+00
   TN5  SX3h  1 3.650000e-01    1.910000e+00
   TN5  SX4h  1 3.650000e-01    2.110000e+00
   TN5  SC1h  1 3.940000e-01    1.290000e+00
   TN5  SC2h  1 3.780000e-01    1.450000e+00
   TN5  SC3h  1 3.660000e-01    1.600000e+00
   TN5  SC4h  1 3.660000e-01    1.600000e+00
   TN5  SC5h  1 3.650000e-01    1.750000e+00
   TN5  SC6h  1 3.650000e-01    1.910000e+00
   TN5  SN1h  1 3.650000e-01    1.910000e+00
   TN5  SN2h  1 3.650000e-01    2.110000e+00
   TN5  SN3h  1 3.650000e-01    2.110000e+00
   TN5  SN4h  1 3.650000e-01    2.340000e+00
   TN5  SN5r  1 3.650000e-01    2.340000e+00
   TN5 SX1er  1 3.650000e-01    1.750000e+00
   TN5 SX2er  1 3.650000e-01    1.910000e+00
   TN5 SX3er  1 3.650000e-01    2.110000e+00
   TN5 SX4er  1 3.650000e-01    2.340000e+00
   TN5 SC1er  1 3.780000e-01    1.450000e+00
   TN5 SC2er  1 3.660000e-01    1.600000e+00
   TN5 SC3er  1 3.650000e-01    1.750000e+00
   TN5 SC4er  1 3.650000e-01    1.750000e+00
   TN5 SC5er  1 3.650000e-01    1.910000e+00
   TN5 SC6er  1 3.650000e-01    2.110000e+00
   TN5 SX1vr  1 3.650000e-01    1.750000e+00
   TN5 SX2vr  1 3.650000e-01    1.910000e+00
   TN5 SX3vr  1 3.650000e-01    2.110000e+00
   TN5 SX4vr  1 3.650000e-01    2.340000e+00
   TN5 SC1vr  1 3.780000e-01    1.450000e+00
   TN5 SC2vr  1 3.660000e-01    1.600000e+00
   TN5 SC3vr  1 3.650000e-01    1.750000e+00
   TN5 SC4vr  1 3.650000e-01    1.750000e+00
   TN5 SC5vr  1 3.650000e-01    1.910000e+00
   TN5 SC6vr  1 3.650000e-01    2.110000e+00
   TN5 SN1ar  1 3.650000e-01    1.910000e+00
   TN5 SN2ar  1 3.650000e-01    2.110000e+00
   TN5 SN3ar  1 3.650000e-01    2.110000e+00
   TN5 SN4ar  1 3.650000e-01    2.340000e+00
   TN5 SN5ar  1 3.650000e-01    2.340000e+00
   TN5 SN1dr  1 3.650000e-01    1.910000e+00
   TN5 SN2dr  1 3.650000e-01    2.110000e+00
   TN5 SN3dr  1 3.650000e-01    2.110000e+00
   TN5 SN4dr  1 3.650000e-01    2.340000e+00
   TN5 SN5dr  1 3.650000e-01    2.340000e+00
   TN5  SX1r  1 3.660000e-01    1.600000e+00
   TN5  SX2r  1 3.650000e-01    1.750000e+00
   TN5  SX3r  1 3.650000e-01    1.910000e+00
   TN5  SX4r  1 3.650000e-01    2.110000e+00
   TN5  SC1r  1 3.940000e-01    1.290000e+00
   TN5  SC2r  1 3.780000e-01    1.450000e+00
   TN5  SC3r  1 3.660000e-01    1.600000e+00
   TN5  SC4r  1 3.660000e-01    1.600000e+00
   TN5  SC5r  1 3.650000e-01    1.750000e+00
   TN5  SC6r  1 3.650000e-01    1.910000e+00
   TN5  SN1r  1 3.650000e-01    1.910000e+00
   TN5  SN2r  1 3.650000e-01    2.110000e+00
   TN5  SN3r  1 3.650000e-01    2.110000e+00
   TN5  SN4r  1 3.650000e-01    2.340000e+00
    N4    N4  1 4.700000e-01    3.690000e+00
    N4    N3  1 4.700000e-01    3.520000e+00
    N4    N2  1 4.700000e-01    3.520000e+00
    N4    N1  1 4.700000e-01    3.390000e+00
    N4    C6  1 4.700000e-01    3.390000e+00
    N4    C5  1 4.700000e-01    3.240000e+00
    N4    C4  1 4.700000e-01    3.240000e+00
    N4    C3  1 4.700000e-01    3.070000e+00
    N4    C2  1 4.700000e-01    2.960000e+00
    N4    C1  1 4.700000e-01    2.790000e+00
    N4    X4  1 4.700000e-01    3.690000e+00
    N4    X3  1 4.700000e-01    3.520000e+00
    N4    X2  1 4.700000e-01    3.240000e+00
    N4    X1  1 4.700000e-01    3.070000e+00
   P6d    N4  1 4.700000e-01    3.390000e+00
   P5d    N4  1 4.700000e-01    3.520000e+00
   P4d    N4  1 4.700000e-01    3.520000e+00
   P3d    N4  1 4.700000e-01    3.520000e+00
   P2d    N4  1 4.700000e-01    3.520000e+00
   P1d    N4  1 4.700000e-01    3.690000e+00
   N6d    N4  1 4.700000e-01    3.880000e+00
   N5d    N4  1 4.700000e-01    3.690000e+00
    N4   N4d  1 4.700000e-01    3.690000e+00
    N4   N1d  1 4.700000e-01    3.390000e+00
    N4   N2d  1 4.700000e-01    3.520000e+00
    N4   N3d  1 4.700000e-01    3.520000e+00
   P6a    N4  1 4.700000e-01    3.390000e+00
   P5a    N4  1 4.700000e-01    3.520000e+00
   P4a    N4  1 4.700000e-01    3.520000e+00
   P3a    N4  1 4.700000e-01    3.520000e+00
   P2a    N4  1 4.700000e-01    3.520000e+00
   P1a    N4  1 4.700000e-01    3.690000e+00
   N6a    N4  1 4.700000e-01    3.880000e+00
   N5a    N4  1 4.700000e-01    3.690000e+00
    N4   N4a  1 4.700000e-01    3.690000e+00
    N4   N1a  1 4.700000e-01    3.390000e+00
    N4   N2a  1 4.700000e-01    3.520000e+00
    N4   N3a  1 4.700000e-01    3.520000e+00
    N4   C6v  1 4.700000e-01    3.520000e+00
    N4   C5v  1 4.700000e-01    3.390000e+00
    N4   C4v  1 4.700000e-01    3.390000e+00
    N4   C3v  1 4.700000e-01    3.240000e+00
    N4   C2v  1 4.700000e-01    3.070000e+00
    N4   C1v  1 4.700000e-01    2.960000e+00
    N4   X4v  1 4.700000e-01    3.880000e+00
    N4   X3v  1 4.700000e-01    3.690000e+00
    N4   X2v  1 4.700000e-01    3.390000e+00
    N4   X1v  1 4.700000e-01    3.240000e+00
    N4   C6e  1 4.700000e-01    3.520000e+00
    N4   C5e  1 4.700000e-01    3.390000e+00
    N4   C4e  1 4.700000e-01    3.390000e+00
    N4   C3e  1 4.700000e-01    3.240000e+00
    N4   C2e  1 4.700000e-01    3.070000e+00
    N4   C1e  1 4.700000e-01    2.960000e+00
    N4   X4e  1 4.700000e-01    3.880000e+00
    N4   X3e  1 4.700000e-01    3.690000e+00
    N4   X2e  1 4.700000e-01    3.390000e+00
    N4   X1e  1 4.700000e-01    3.240000e+00
   P6q    N4  1 4.700000e-01    3.690000e+00
   P5q    N4  1 4.700000e-01    3.880000e+00
   P4q    N4  1 4.700000e-01    3.880000e+00
   P3q    N4  1 4.700000e-01    3.880000e+00
   P2q    N4  1 4.700000e-01    3.880000e+00
   P1q    N4  1 4.700000e-01    4.060000e+00
   N6q    N4  1 4.700000e-01    4.250000e+00
   N5q    N4  1 4.700000e-01    4.060000e+00
    N4   N4q  1 4.700000e-01    4.060000e+00
    N4  X1eq  1 4.700000e-01    3.520000e+00
    N4  X2eq  1 4.700000e-01    3.690000e+00
    N4  X3eq  1 4.700000e-01    4.060000e+00
    N4  X4eq  1 4.700000e-01    4.250000e+00
    N4  C1eq  1 4.700000e-01    3.240000e+00
    N4  C2eq  1 4.700000e-01    3.390000e+00
    N4  C3eq  1 4.700000e-01    3.520000e+00
    N4  C4eq  1 4.700000e-01    3.690000e+00
    N4  C5eq  1 4.700000e-01    3.690000e+00
    N4  C6eq  1 4.700000e-01    3.880000e+00
    N4  X1vq  1 4.700000e-01    3.520000e+00
    N4  X2vq  1 4.700000e-01    3.690000e+00
    N4  X3vq  1 4.700000e-01    4.060000e+00
    N4  X4vq  1 4.700000e-01    4.250000e+00
    N4  C1vq  1 4.700000e-01    3.240000e+00
    N4  C2vq  1 4.700000e-01    3.390000e+00
    N4  C3vq  1 4.700000e-01    3.520000e+00
    N4  C4vq  1 4.700000e-01    3.690000e+00
    N4  C5vq  1 4.700000e-01    3.690000e+00
    N4  C6vq  1 4.700000e-01    3.880000e+00
    N4  N1aq  1 4.700000e-01    3.690000e+00
    N4  N2aq  1 4.700000e-01    3.880000e+00
    N4  N3aq  1 4.700000e-01    3.880000e+00
    N4  N4aq  1 4.700000e-01    4.060000e+00
  N5aq    N4  1 4.700000e-01    4.060000e+00
  N6aq    N4  1 4.700000e-01    4.250000e+00
  P1aq    N4  1 4.700000e-01    4.060000e+00
  P2aq    N4  1 4.700000e-01    3.880000e+00
  P3aq    N4  1 4.700000e-01    3.880000e+00
  P4aq    N4  1 4.700000e-01    3.880000e+00
  P5aq    N4  1 4.700000e-01    3.880000e+00
  P6aq    N4  1 4.700000e-01    3.690000e+00
    N4  N1dq  1 4.700000e-01    3.690000e+00
    N4  N2dq  1 4.700000e-01    3.880000e+00
    N4  N3dq  1 4.700000e-01    3.880000e+00
    N4  N4dq  1 4.700000e-01    4.060000e+00
  N5dq    N4  1 4.700000e-01    4.060000e+00
  N6dq    N4  1 4.700000e-01    4.250000e+00
  P1dq    N4  1 4.700000e-01    4.060000e+00
  P2dq    N4  1 4.700000e-01    3.880000e+00
  P3dq    N4  1 4.700000e-01    3.880000e+00
  P4dq    N4  1 4.700000e-01    3.880000e+00
  P5dq    N4  1 4.700000e-01    3.880000e+00
  P6dq    N4  1 4.700000e-01    3.690000e+00
    N4   X1q  1 4.700000e-01    3.390000e+00
    N4   X2q  1 4.700000e-01    3.520000e+00
    N4   X3q  1 4.700000e-01    3.880000e+00
    N4   X4q  1 4.700000e-01    4.060000e+00
    N4   C1q  1 4.700000e-01    3.070000e+00
    N4   C2q  1 4.700000e-01    3.240000e+00
    N4   C3q  1 4.700000e-01    3.390000e+00
    N4   C4q  1 4.700000e-01    3.520000e+00
    N4   C5q  1 4.700000e-01    3.520000e+00
    N4   C6q  1 4.700000e-01    3.690000e+00
    N4   N1q  1 4.700000e-01    3.690000e+00
    N4   N2q  1 4.700000e-01    3.880000e+00
    N4   N3q  1 4.700000e-01    3.880000e+00
   P6h    N4  1 4.700000e-01    3.390000e+00
   P5h    N4  1 4.700000e-01    3.520000e+00
   P4h    N4  1 4.700000e-01    3.520000e+00
   P3h    N4  1 4.700000e-01    3.520000e+00
   P2h    N4  1 4.700000e-01    3.520000e+00
   P1h    N4  1 4.700000e-01    3.690000e+00
   N6h    N4  1 4.700000e-01    3.880000e+00
   N5h    N4  1 4.700000e-01    3.690000e+00
    N4   N4h  1 4.700000e-01    3.690000e+00
    N4  X1eh  1 4.700000e-01    3.240000e+00
    N4  X2eh  1 4.700000e-01    3.390000e+00
    N4  X3eh  1 4.700000e-01    3.690000e+00
    N4  X4eh  1 4.700000e-01    3.880000e+00
    N4  C1eh  1 4.700000e-01    2.960000e+00
    N4  C2eh  1 4.700000e-01    3.070000e+00
    N4  C3eh  1 4.700000e-01    3.240000e+00
    N4  C4eh  1 4.700000e-01    3.390000e+00
    N4  C5eh  1 4.700000e-01    3.390000e+00
    N4  C6eh  1 4.700000e-01    3.520000e+00
    N4  X1vh  1 4.700000e-01    3.240000e+00
    N4  X2vh  1 4.700000e-01    3.390000e+00
    N4  X3vh  1 4.700000e-01    3.690000e+00
    N4  X4vh  1 4.700000e-01    3.880000e+00
    N4  C1vh  1 4.700000e-01    2.960000e+00
    N4  C2vh  1 4.700000e-01    3.070000e+00
    N4  C3vh  1 4.700000e-01    3.240000e+00
    N4  C4vh  1 4.700000e-01    3.390000e+00
    N4  C5vh  1 4.700000e-01    3.390000e+00
    N4  C6vh  1 4.700000e-01    3.520000e+00
    N4  N1ah  1 4.700000e-01    3.390000e+00
    N4  N2ah  1 4.700000e-01    3.520000e+00
    N4  N3ah  1 4.700000e-01    3.520000e+00
    N4  N4ah  1 4.700000e-01    3.690000e+00
  N5ah    N4  1 4.700000e-01    3.690000e+00
  N6ah    N4  1 4.700000e-01    3.880000e+00
  P1ah    N4  1 4.700000e-01    3.690000e+00
  P2ah    N4  1 4.700000e-01    3.520000e+00
  P3ah    N4  1 4.700000e-01    3.520000e+00
  P4ah    N4  1 4.700000e-01    3.520000e+00
  P5ah    N4  1 4.700000e-01    3.520000e+00
  P6ah    N4  1 4.700000e-01    3.390000e+00
    N4  N1dh  1 4.700000e-01    3.390000e+00
    N4  N2dh  1 4.700000e-01    3.520000e+00
    N4  N3dh  1 4.700000e-01    3.520000e+00
    N4  N4dh  1 4.700000e-01    3.690000e+00
  N5dh    N4  1 4.700000e-01    3.690000e+00
  N6dh    N4  1 4.700000e-01    3.880000e+00
  P1dh    N4  1 4.700000e-01    3.690000e+00
  P2dh    N4  1 4.700000e-01    3.520000e+00
  P3dh    N4  1 4.700000e-01    3.520000e+00
  P4dh    N4  1 4.700000e-01    3.520000e+00
  P5dh    N4  1 4.700000e-01    3.520000e+00
  P6dh    N4  1 4.700000e-01    3.390000e+00
    N4   X1h  1 4.700000e-01    3.070000e+00
    N4   X2h  1 4.700000e-01    3.240000e+00
    N4   X3h  1 4.700000e-01    3.520000e+00
    N4   X4h  1 4.700000e-01    3.690000e+00
    N4   C1h  1 4.700000e-01    2.790000e+00
    N4   C2h  1 4.700000e-01    2.960000e+00
    N4   C3h  1 4.700000e-01    3.070000e+00
    N4   C4h  1 4.700000e-01    3.240000e+00
    N4   C5h  1 4.700000e-01    3.240000e+00
    N4   C6h  1 4.700000e-01    3.390000e+00
    N4   N1h  1 4.700000e-01    3.390000e+00
    N4   N2h  1 4.700000e-01    3.520000e+00
    N4   N3h  1 4.700000e-01    3.520000e+00
   P6r    N4  1 4.700000e-01    3.390000e+00
   P5r    N4  1 4.700000e-01    3.520000e+00
   P4r    N4  1 4.700000e-01    3.520000e+00
   P3r    N4  1 4.700000e-01    3.520000e+00
   P2r    N4  1 4.700000e-01    3.520000e+00
   P1r    N4  1 4.700000e-01    3.690000e+00
   N6r    N4  1 4.700000e-01    3.880000e+00
   N5r    N4  1 4.700000e-01    3.690000e+00
    N4   N4r  1 4.700000e-01    3.690000e+00
    N4  X1er  1 4.700000e-01    3.240000e+00
    N4  X2er  1 4.700000e-01    3.390000e+00
    N4  X3er  1 4.700000e-01    3.690000e+00
    N4  X4er  1 4.700000e-01    3.880000e+00
    N4  C1er  1 4.700000e-01    2.960000e+00
    N4  C2er  1 4.700000e-01    3.070000e+00
    N4  C3er  1 4.700000e-01    3.240000e+00
    N4  C4er  1 4.700000e-01    3.390000e+00
    N4  C5er  1 4.700000e-01    3.390000e+00
    N4  C6er  1 4.700000e-01    3.520000e+00
    N4  X1vr  1 4.700000e-01    3.240000e+00
    N4  X2vr  1 4.700000e-01    3.390000e+00
    N4  X3vr  1 4.700000e-01    3.690000e+00
    N4  X4vr  1 4.700000e-01    3.880000e+00
    N4  C1vr  1 4.700000e-01    2.960000e+00
    N4  C2vr  1 4.700000e-01    3.070000e+00
    N4  C3vr  1 4.700000e-01    3.240000e+00
    N4  C4vr  1 4.700000e-01    3.390000e+00
    N4  C5vr  1 4.700000e-01    3.390000e+00
    N4  C6vr  1 4.700000e-01    3.520000e+00
    N4  N1ar  1 4.700000e-01    3.390000e+00
    N4  N2ar  1 4.700000e-01    3.520000e+00
    N4  N3ar  1 4.700000e-01    3.520000e+00
    N4  N4ar  1 4.700000e-01    3.690000e+00
  N5ar    N4  1 4.700000e-01    3.690000e+00
  N6ar    N4  1 4.700000e-01    3.880000e+00
  P1ar    N4  1 4.700000e-01    3.690000e+00
  P2ar    N4  1 4.700000e-01    3.520000e+00
  P3ar    N4  1 4.700000e-01    3.520000e+00
  P4ar    N4  1 4.700000e-01    3.520000e+00
  P5ar    N4  1 4.700000e-01    3.520000e+00
  P6ar    N4  1 4.700000e-01    3.390000e+00
    N4  N1dr  1 4.700000e-01    3.390000e+00
    N4  N2dr  1 4.700000e-01    3.520000e+00
    N4  N3dr  1 4.700000e-01    3.520000e+00
    N4  N4dr  1 4.700000e-01    3.690000e+00
  N5dr    N4  1 4.700000e-01    3.690000e+00
  N6dr    N4  1 4.700000e-01    3.880000e+00
  P1dr    N4  1 4.700000e-01    3.690000e+00
  P2dr    N4  1 4.700000e-01    3.520000e+00
  P3dr    N4  1 4.700000e-01    3.520000e+00
  P4dr    N4  1 4.700000e-01    3.520000e+00
  P5dr    N4  1 4.700000e-01    3.520000e+00
  P6dr    N4  1 4.700000e-01    3.390000e+00
    N4   X1r  1 4.700000e-01    3.070000e+00
    N4   X2r  1 4.700000e-01    3.240000e+00
    N4   X3r  1 4.700000e-01    3.520000e+00
    N4   X4r  1 4.700000e-01    3.690000e+00
    N4   C1r  1 4.700000e-01    2.790000e+00
    N4   C2r  1 4.700000e-01    2.960000e+00
    N4   C3r  1 4.700000e-01    3.070000e+00
    N4   C4r  1 4.700000e-01    3.240000e+00
    N4   C5r  1 4.700000e-01    3.240000e+00
    N4   C6r  1 4.700000e-01    3.390000e+00
    N4   N1r  1 4.700000e-01    3.390000e+00
    N4   N2r  1 4.700000e-01    3.520000e+00
    N4   N3r  1 4.700000e-01    3.520000e+00
    N4   SN4  1 4.300000e-01    3.380000e+00
    N4   SN3  1 4.300000e-01    3.160000e+00
    N4   SN2  1 4.300000e-01    3.160000e+00
    N4   SN1  1 4.300000e-01    2.920000e+00
    N4   SC6  1 4.300000e-01    2.920000e+00
    N4   SC5  1 4.300000e-01    2.770000e+00
    N4   SC4  1 4.300000e-01    2.770000e+00
    N4   SC3  1 4.300000e-01    2.530000e+00
    N4   SC2  1 4.300000e-01    2.320000e+00
    N4   SC1  1 4.300000e-01    2.160000e+00
    N4   SX4  1 4.300000e-01    3.380000e+00
    N4   SX3  1 4.300000e-01    3.160000e+00
    N4   SX2  1 4.300000e-01    2.770000e+00
    N4   SX1  1 4.300000e-01    2.530000e+00
    N4  SN4d  1 4.300000e-01    3.380000e+00
    N4  SN1d  1 4.300000e-01    2.920000e+00
    N4  SN2d  1 4.300000e-01    3.160000e+00
    N4  SN3d  1 4.300000e-01    3.160000e+00
    N4  SN4a  1 4.300000e-01    3.380000e+00
    N4  SN1a  1 4.300000e-01    2.920000e+00
    N4  SN2a  1 4.300000e-01    3.160000e+00
    N4  SN3a  1 4.300000e-01    3.160000e+00
    N4  SC6v  1 4.300000e-01    3.160000e+00
    N4  SC5v  1 4.300000e-01    2.920000e+00
    N4  SC4v  1 4.300000e-01    2.920000e+00
    N4  SC3v  1 4.300000e-01    2.770000e+00
    N4  SC2v  1 4.300000e-01    2.530000e+00
    N4  SC1v  1 4.300000e-01    2.320000e+00
    N4  SX4v  1 4.300000e-01    3.590000e+00
    N4  SX3v  1 4.300000e-01    3.380000e+00
    N4  SX2v  1 4.300000e-01    2.920000e+00
    N4  SX1v  1 4.300000e-01    2.770000e+00
    N4  SC6e  1 4.300000e-01    3.160000e+00
    N4  SC5e  1 4.300000e-01    2.920000e+00
    N4  SC4e  1 4.300000e-01    2.920000e+00
    N4  SC3e  1 4.300000e-01    2.770000e+00
    N4  SC2e  1 4.300000e-01    2.530000e+00
    N4  SC1e  1 4.300000e-01    2.320000e+00
    N4  SX4e  1 4.300000e-01    3.590000e+00
    N4  SX3e  1 4.300000e-01    3.380000e+00
    N4  SX2e  1 4.300000e-01    2.920000e+00
    N4  SX1e  1 4.300000e-01    2.770000e+00
    N4  SN4q  1 4.300000e-01    3.770000e+00
    N4 SX1eq  1 4.300000e-01    3.160000e+00
    N4 SX2eq  1 4.300000e-01    3.380000e+00
    N4 SX3eq  1 4.300000e-01    3.770000e+00
    N4 SX4eq  1 4.300000e-01    3.970000e+00
    N4 SC1eq  1 4.300000e-01    2.770000e+00
    N4 SC2eq  1 4.300000e-01    2.920000e+00
    N4 SC3eq  1 4.300000e-01    3.160000e+00
    N4 SC4eq  1 4.300000e-01    3.380000e+00
    N4 SC5eq  1 4.300000e-01    3.380000e+00
    N4 SC6eq  1 4.300000e-01    3.590000e+00
    N4 SX1vq  1 4.300000e-01    3.160000e+00
    N4 SX2vq  1 4.300000e-01    3.380000e+00
    N4 SX3vq  1 4.300000e-01    3.770000e+00
    N4 SX4vq  1 4.300000e-01    3.970000e+00
    N4 SC1vq  1 4.300000e-01    2.770000e+00
    N4 SC2vq  1 4.300000e-01    2.920000e+00
    N4 SC3vq  1 4.300000e-01    3.160000e+00
    N4 SC4vq  1 4.300000e-01    3.380000e+00
    N4 SC5vq  1 4.300000e-01    3.380000e+00
    N4 SC6vq  1 4.300000e-01    3.590000e+00
    N4 SN1aq  1 4.300000e-01    3.380000e+00
    N4 SN2aq  1 4.300000e-01    3.590000e+00
    N4 SN3aq  1 4.300000e-01    3.590000e+00
    N4 SN4aq  1 4.300000e-01    3.770000e+00
    N4 SN1dq  1 4.300000e-01    3.380000e+00
    N4 SN2dq  1 4.300000e-01    3.590000e+00
    N4 SN3dq  1 4.300000e-01    3.590000e+00
    N4 SN4dq  1 4.300000e-01    3.770000e+00
    N4  SX1q  1 4.300000e-01    2.920000e+00
    N4  SX2q  1 4.300000e-01    3.160000e+00
    N4  SX3q  1 4.300000e-01    3.590000e+00
    N4  SX4q  1 4.300000e-01    3.770000e+00
    N4  SC1q  1 4.300000e-01    2.530000e+00
    N4  SC2q  1 4.300000e-01    2.770000e+00
    N4  SC3q  1 4.300000e-01    2.920000e+00
    N4  SC4q  1 4.300000e-01    3.160000e+00
    N4  SC5q  1 4.300000e-01    3.160000e+00
    N4  SC6q  1 4.300000e-01    3.380000e+00
    N4  SN1q  1 4.300000e-01    3.380000e+00
    N4  SN2q  1 4.300000e-01    3.590000e+00
    N4  SN3q  1 4.300000e-01    3.590000e+00
    N4  SN4h  1 4.300000e-01    3.380000e+00
    N4 SX1eh  1 4.300000e-01    2.770000e+00
    N4 SX2eh  1 4.300000e-01    2.920000e+00
    N4 SX3eh  1 4.300000e-01    3.380000e+00
    N4 SX4eh  1 4.300000e-01    3.590000e+00
    N4 SC1eh  1 4.300000e-01    2.320000e+00
    N4 SC2eh  1 4.300000e-01    2.530000e+00
    N4 SC3eh  1 4.300000e-01    2.770000e+00
    N4 SC4eh  1 4.300000e-01    2.920000e+00
    N4 SC5eh  1 4.300000e-01    2.920000e+00
    N4 SC6eh  1 4.300000e-01    3.160000e+00
    N4 SX1vh  1 4.300000e-01    2.770000e+00
    N4 SX2vh  1 4.300000e-01    2.920000e+00
    N4 SX3vh  1 4.300000e-01    3.380000e+00
    N4 SX4vh  1 4.300000e-01    3.590000e+00
    N4 SC1vh  1 4.300000e-01    2.320000e+00
    N4 SC2vh  1 4.300000e-01    2.530000e+00
    N4 SC3vh  1 4.300000e-01    2.770000e+00
    N4 SC4vh  1 4.300000e-01    2.920000e+00
    N4 SC5vh  1 4.300000e-01    2.920000e+00
    N4 SC6vh  1 4.300000e-01    3.160000e+00
    N4 SN1ah  1 4.300000e-01    2.920000e+00
    N4 SN2ah  1 4.300000e-01    3.160000e+00
    N4 SN3ah  1 4.300000e-01    3.160000e+00
    N4 SN4ah  1 4.300000e-01    3.380000e+00
    N4 SN1dh  1 4.300000e-01    2.920000e+00
    N4 SN2dh  1 4.300000e-01    3.160000e+00
    N4 SN3dh  1 4.300000e-01    3.160000e+00
    N4 SN4dh  1 4.300000e-01    3.380000e+00
    N4  SX1h  1 4.300000e-01    2.530000e+00
    N4  SX2h  1 4.300000e-01    2.770000e+00
    N4  SX3h  1 4.300000e-01    3.160000e+00
    N4  SX4h  1 4.300000e-01    3.380000e+00
    N4  SC1h  1 4.300000e-01    2.160000e+00
    N4  SC2h  1 4.300000e-01    2.320000e+00
    N4  SC3h  1 4.300000e-01    2.530000e+00
    N4  SC4h  1 4.300000e-01    2.770000e+00
    N4  SC5h  1 4.300000e-01    2.770000e+00
    N4  SC6h  1 4.300000e-01    2.920000e+00
    N4  SN1h  1 4.300000e-01    2.920000e+00
    N4  SN2h  1 4.300000e-01    3.160000e+00
    N4  SN3h  1 4.300000e-01    3.160000e+00
    N4  SN4r  1 4.300000e-01    3.380000e+00
    N4 SX1er  1 4.300000e-01    2.770000e+00
    N4 SX2er  1 4.300000e-01    2.920000e+00
    N4 SX3er  1 4.300000e-01    3.380000e+00
    N4 SX4er  1 4.300000e-01    3.590000e+00
    N4 SC1er  1 4.300000e-01    2.320000e+00
    N4 SC2er  1 4.300000e-01    2.530000e+00
    N4 SC3er  1 4.300000e-01    2.770000e+00
    N4 SC4er  1 4.300000e-01    2.920000e+00
    N4 SC5er  1 4.300000e-01    2.920000e+00
    N4 SC6er  1 4.300000e-01    3.160000e+00
    N4 SX1vr  1 4.300000e-01    2.770000e+00
    N4 SX2vr  1 4.300000e-01    2.920000e+00
    N4 SX3vr  1 4.300000e-01    3.380000e+00
    N4 SX4vr  1 4.300000e-01    3.590000e+00
    N4 SC1vr  1 4.300000e-01    2.320000e+00
    N4 SC2vr  1 4.300000e-01    2.530000e+00
    N4 SC3vr  1 4.300000e-01    2.770000e+00
    N4 SC4vr  1 4.300000e-01    2.920000e+00
    N4 SC5vr  1 4.300000e-01    2.920000e+00
    N4 SC6vr  1 4.300000e-01    3.160000e+00
    N4 SN1ar  1 4.300000e-01    2.920000e+00
    N4 SN2ar  1 4.300000e-01    3.160000e+00
    N4 SN3ar  1 4.300000e-01    3.160000e+00
    N4 SN4ar  1 4.300000e-01    3.380000e+00
    N4 SN1dr  1 4.300000e-01    2.920000e+00
    N4 SN2dr  1 4.300000e-01    3.160000e+00
    N4 SN3dr  1 4.300000e-01    3.160000e+00
    N4 SN4dr  1 4.300000e-01    3.380000e+00
    N4  SX1r  1 4.300000e-01    2.530000e+00
    N4  SX2r  1 4.300000e-01    2.770000e+00
    N4  SX3r  1 4.300000e-01    3.160000e+00
    N4  SX4r  1 4.300000e-01    3.380000e+00
    N4  SC1r  1 4.300000e-01    2.160000e+00
    N4  SC2r  1 4.300000e-01    2.320000e+00
    N4  SC3r  1 4.300000e-01    2.530000e+00
    N4  SC4r  1 4.300000e-01    2.770000e+00
    N4  SC5r  1 4.300000e-01    2.770000e+00
    N4  SC6r  1 4.300000e-01    2.920000e+00
    N4  SN1r  1 4.300000e-01    2.920000e+00
    N4  SN2r  1 4.300000e-01    3.160000e+00
    N4  SN3r  1 4.300000e-01    3.160000e+00
  SP6d    N4  1 4.300000e-01    2.920000e+00
  SP5d    N4  1 4.300000e-01    3.160000e+00
  SP4d    N4  1 4.300000e-01    3.160000e+00
  SP3d    N4  1 4.300000e-01    3.160000e+00
  SP2d    N4  1 4.300000e-01    3.160000e+00
  SP1d    N4  1 4.300000e-01    3.380000e+00
  SN6d    N4  1 4.300000e-01    3.590000e+00
  SN5d    N4  1 4.300000e-01    3.380000e+00
  SP6a    N4  1 4.300000e-01    2.920000e+00
  SP5a    N4  1 4.300000e-01    3.160000e+00
  SP4a    N4  1 4.300000e-01    3.160000e+00
  SP3a    N4  1 4.300000e-01    3.160000e+00
  SP2a    N4  1 4.300000e-01    3.160000e+00
  SP1a    N4  1 4.300000e-01    3.380000e+00
  SN6a    N4  1 4.300000e-01    3.590000e+00
  SN5a    N4  1 4.300000e-01    3.380000e+00
  SP6q    N4  1 4.300000e-01    3.380000e+00
  SP5q    N4  1 4.300000e-01    3.590000e+00
  SP4q    N4  1 4.300000e-01    3.590000e+00
  SP3q    N4  1 4.300000e-01    3.590000e+00
  SP2q    N4  1 4.300000e-01    3.590000e+00
  SP1q    N4  1 4.300000e-01    3.770000e+00
  SN6q    N4  1 4.300000e-01    3.970000e+00
  SN5q    N4  1 4.300000e-01    3.770000e+00
 SN5aq    N4  1 4.300000e-01    3.770000e+00
 SN6aq    N4  1 4.300000e-01    3.970000e+00
 SP1aq    N4  1 4.300000e-01    3.770000e+00
 SP2aq    N4  1 4.300000e-01    3.590000e+00
 SP3aq    N4  1 4.300000e-01    3.590000e+00
 SP4aq    N4  1 4.300000e-01    3.590000e+00
 SP5aq    N4  1 4.300000e-01    3.590000e+00
 SP6aq    N4  1 4.300000e-01    3.380000e+00
 SN5dq    N4  1 4.300000e-01    3.770000e+00
 SN6dq    N4  1 4.300000e-01    3.970000e+00
 SP1dq    N4  1 4.300000e-01    3.770000e+00
 SP2dq    N4  1 4.300000e-01    3.590000e+00
 SP3dq    N4  1 4.300000e-01    3.590000e+00
 SP4dq    N4  1 4.300000e-01    3.590000e+00
 SP5dq    N4  1 4.300000e-01    3.590000e+00
 SP6dq    N4  1 4.300000e-01    3.380000e+00
  SP6h    N4  1 4.300000e-01    2.920000e+00
  SP5h    N4  1 4.300000e-01    3.160000e+00
  SP4h    N4  1 4.300000e-01    3.160000e+00
  SP3h    N4  1 4.300000e-01    3.160000e+00
  SP2h    N4  1 4.300000e-01    3.160000e+00
  SP1h    N4  1 4.300000e-01    3.380000e+00
  SN6h    N4  1 4.300000e-01    3.590000e+00
  SN5h    N4  1 4.300000e-01    3.380000e+00
 SN5ah    N4  1 4.300000e-01    3.380000e+00
 SN6ah    N4  1 4.300000e-01    3.590000e+00
 SP1ah    N4  1 4.300000e-01    3.380000e+00
 SP2ah    N4  1 4.300000e-01    3.160000e+00
 SP3ah    N4  1 4.300000e-01    3.160000e+00
 SP4ah    N4  1 4.300000e-01    3.160000e+00
 SP5ah    N4  1 4.300000e-01    3.160000e+00
 SP6ah    N4  1 4.300000e-01    2.920000e+00
 SN5dh    N4  1 4.300000e-01    3.380000e+00
 SN6dh    N4  1 4.300000e-01    3.590000e+00
 SP1dh    N4  1 4.300000e-01    3.380000e+00
 SP2dh    N4  1 4.300000e-01    3.160000e+00
 SP3dh    N4  1 4.300000e-01    3.160000e+00
 SP4dh    N4  1 4.300000e-01    3.160000e+00
 SP5dh    N4  1 4.300000e-01    3.160000e+00
 SP6dh    N4  1 4.300000e-01    2.920000e+00
  SP6r    N4  1 4.300000e-01    2.920000e+00
  SP5r    N4  1 4.300000e-01    3.160000e+00
  SP4r    N4  1 4.300000e-01    3.160000e+00
  SP3r    N4  1 4.300000e-01    3.160000e+00
  SP2r    N4  1 4.300000e-01    3.160000e+00
  SP1r    N4  1 4.300000e-01    3.380000e+00
  SN6r    N4  1 4.300000e-01    3.590000e+00
  SN5r    N4  1 4.300000e-01    3.380000e+00
 SN5ar    N4  1 4.300000e-01    3.380000e+00
 SN6ar    N4  1 4.300000e-01    3.590000e+00
 SP1ar    N4  1 4.300000e-01    3.380000e+00
 SP2ar    N4  1 4.300000e-01    3.160000e+00
 SP3ar    N4  1 4.300000e-01    3.160000e+00
 SP4ar    N4  1 4.300000e-01    3.160000e+00
 SP5ar    N4  1 4.300000e-01    3.160000e+00
 SP6ar    N4  1 4.300000e-01    2.920000e+00
 SN5dr    N4  1 4.300000e-01    3.380000e+00
 SN6dr    N4  1 4.300000e-01    3.590000e+00
 SP1dr    N4  1 4.300000e-01    3.380000e+00
 SP2dr    N4  1 4.300000e-01    3.160000e+00
 SP3dr    N4  1 4.300000e-01    3.160000e+00
 SP4dr    N4  1 4.300000e-01    3.160000e+00
 SP5dr    N4  1 4.300000e-01    3.160000e+00
 SP6dr    N4  1 4.300000e-01    2.920000e+00
    N4   TN4  1 3.950000e-01    2.700000e+00
    N4   TN3  1 3.950000e-01    2.500000e+00
    N4   TN2  1 3.950000e-01    2.500000e+00
    N4   TN1  1 3.950000e-01    2.310000e+00
    N4   TC6  1 3.950000e-01    2.310000e+00
    N4   TC5  1 3.950000e-01    2.110000e+00
    N4   TC4  1 3.950000e-01    2.110000e+00
    N4   TC3  1 3.950000e-01    1.850000e+00
    N4   TC2  1 3.950000e-01    1.670000e+00
    N4   TC1  1 3.980000e-01    1.450000e+00
    N4   TX4  1 3.950000e-01    2.700000e+00
    N4   TX3  1 3.950000e-01    2.500000e+00
    N4   TX2  1 3.950000e-01    2.110000e+00
    N4   TX1  1 3.950000e-01    1.850000e+00
    N4  TN4d  1 3.950000e-01    2.700000e+00
    N4  TN1d  1 3.950000e-01    2.310000e+00
    N4  TN2d  1 3.950000e-01    2.500000e+00
    N4  TN3d  1 3.950000e-01    2.500000e+00
    N4  TN4a  1 3.950000e-01    2.700000e+00
    N4  TN1a  1 3.950000e-01    2.310000e+00
    N4  TN2a  1 3.950000e-01    2.500000e+00
    N4  TN3a  1 3.950000e-01    2.500000e+00
    N4  TC6v  1 3.950000e-01    2.500000e+00
    N4  TC5v  1 3.950000e-01    2.310000e+00
    N4  TC4v  1 3.950000e-01    2.310000e+00
    N4  TC3v  1 3.950000e-01    2.110000e+00
    N4  TC2v  1 3.950000e-01    1.850000e+00
    N4  TC1v  1 3.950000e-01    1.670000e+00
    N4  TX4v  1 3.950000e-01    2.940000e+00
    N4  TX3v  1 3.950000e-01    2.700000e+00
    N4  TX2v  1 3.950000e-01    2.310000e+00
    N4  TX1v  1 3.950000e-01    2.110000e+00
    N4  TC6e  1 3.950000e-01    2.500000e+00
    N4  TC5e  1 3.950000e-01    2.310000e+00
    N4  TC4e  1 3.950000e-01    2.310000e+00
    N4  TC3e  1 3.950000e-01    2.110000e+00
    N4  TC2e  1 3.950000e-01    1.850000e+00
    N4  TC1e  1 3.950000e-01    1.670000e+00
    N4  TX4e  1 3.950000e-01    2.940000e+00
    N4  TX3e  1 3.950000e-01    2.700000e+00
    N4  TX2e  1 3.950000e-01    2.310000e+00
    N4  TX1e  1 3.950000e-01    2.110000e+00
    N4  TN4q  1 3.950000e-01    3.190000e+00
    N4 TX1eq  1 3.950000e-01    2.500000e+00
    N4 TX2eq  1 3.950000e-01    2.700000e+00
    N4 TX3eq  1 3.950000e-01    3.190000e+00
    N4 TX4eq  1 3.950000e-01    3.430000e+00
    N4 TC1eq  1 3.950000e-01    2.110000e+00
    N4 TC2eq  1 3.950000e-01    2.310000e+00
    N4 TC3eq  1 3.950000e-01    2.500000e+00
    N4 TC4eq  1 3.950000e-01    2.700000e+00
    N4 TC5eq  1 3.950000e-01    2.700000e+00
    N4 TC6eq  1 3.950000e-01    2.940000e+00
    N4 TX1vq  1 3.950000e-01    2.500000e+00
    N4 TX2vq  1 3.950000e-01    2.700000e+00
    N4 TX3vq  1 3.950000e-01    3.190000e+00
    N4 TX4vq  1 3.950000e-01    3.430000e+00
    N4 TC1vq  1 3.950000e-01    2.110000e+00
    N4 TC2vq  1 3.950000e-01    2.310000e+00
    N4 TC3vq  1 3.950000e-01    2.500000e+00
    N4 TC4vq  1 3.950000e-01    2.700000e+00
    N4 TC5vq  1 3.950000e-01    2.700000e+00
    N4 TC6vq  1 3.950000e-01    2.940000e+00
    N4 TN1aq  1 3.950000e-01    2.700000e+00
    N4 TN2aq  1 3.950000e-01    2.940000e+00
    N4 TN3aq  1 3.950000e-01    2.940000e+00
    N4 TN4aq  1 3.950000e-01    3.190000e+00
    N4 TN1dq  1 3.950000e-01    2.700000e+00
    N4 TN2dq  1 3.950000e-01    2.940000e+00
    N4 TN3dq  1 3.950000e-01    2.940000e+00
    N4 TN4dq  1 3.950000e-01    3.190000e+00
    N4  TX1q  1 3.950000e-01    2.310000e+00
    N4  TX2q  1 3.950000e-01    2.500000e+00
    N4  TX3q  1 3.950000e-01    2.940000e+00
    N4  TX4q  1 3.950000e-01    3.190000e+00
    N4  TC1q  1 3.950000e-01    1.850000e+00
    N4  TC2q  1 3.950000e-01    2.110000e+00
    N4  TC3q  1 3.950000e-01    2.310000e+00
    N4  TC4q  1 3.950000e-01    2.500000e+00
    N4  TC5q  1 3.950000e-01    2.500000e+00
    N4  TC6q  1 3.950000e-01    2.700000e+00
    N4  TN1q  1 3.950000e-01    2.700000e+00
    N4  TN2q  1 3.950000e-01    2.940000e+00
    N4  TN3q  1 3.950000e-01    2.940000e+00
    N4  TN4h  1 3.950000e-01    2.700000e+00
    N4 TX1eh  1 3.950000e-01    2.110000e+00
    N4 TX2eh  1 3.950000e-01    2.310000e+00
    N4 TX3eh  1 3.950000e-01    2.700000e+00
    N4 TX4eh  1 3.950000e-01    2.940000e+00
    N4 TC1eh  1 3.950000e-01    1.670000e+00
    N4 TC2eh  1 3.950000e-01    1.850000e+00
    N4 TC3eh  1 3.950000e-01    2.110000e+00
    N4 TC4eh  1 3.950000e-01    2.310000e+00
    N4 TC5eh  1 3.950000e-01    2.310000e+00
    N4 TC6eh  1 3.950000e-01    2.500000e+00
    N4 TX1vh  1 3.950000e-01    2.110000e+00
    N4 TX2vh  1 3.950000e-01    2.310000e+00
    N4 TX3vh  1 3.950000e-01    2.700000e+00
    N4 TX4vh  1 3.950000e-01    2.940000e+00
    N4 TC1vh  1 3.950000e-01    1.670000e+00
    N4 TC2vh  1 3.950000e-01    1.850000e+00
    N4 TC3vh  1 3.950000e-01    2.110000e+00
    N4 TC4vh  1 3.950000e-01    2.310000e+00
    N4 TC5vh  1 3.950000e-01    2.310000e+00
    N4 TC6vh  1 3.950000e-01    2.500000e+00
    N4 TN1ah  1 3.950000e-01    2.310000e+00
    N4 TN2ah  1 3.950000e-01    2.500000e+00
    N4 TN3ah  1 3.950000e-01    2.500000e+00
    N4 TN4ah  1 3.950000e-01    2.700000e+00
    N4 TN1dh  1 3.950000e-01    2.310000e+00
    N4 TN2dh  1 3.950000e-01    2.500000e+00
    N4 TN3dh  1 3.950000e-01    2.500000e+00
    N4 TN4dh  1 3.950000e-01    2.700000e+00
    N4  TX1h  1 3.950000e-01    1.850000e+00
    N4  TX2h  1 3.950000e-01    2.110000e+00
    N4  TX3h  1 3.950000e-01    2.500000e+00
    N4  TX4h  1 3.950000e-01    2.700000e+00
    N4  TC1h  1 3.980000e-01    1.450000e+00
    N4  TC2h  1 3.950000e-01    1.670000e+00
    N4  TC3h  1 3.950000e-01    1.850000e+00
    N4  TC4h  1 3.950000e-01    2.110000e+00
    N4  TC5h  1 3.950000e-01    2.110000e+00
    N4  TC6h  1 3.950000e-01    2.310000e+00
    N4  TN1h  1 3.950000e-01    2.310000e+00
    N4  TN2h  1 3.950000e-01    2.500000e+00
    N4  TN3h  1 3.950000e-01    2.500000e+00
    N4  TN4r  1 3.950000e-01    2.700000e+00
    N4 TX1er  1 3.950000e-01    2.110000e+00
    N4 TX2er  1 3.950000e-01    2.310000e+00
    N4 TX3er  1 3.950000e-01    2.700000e+00
    N4 TX4er  1 3.950000e-01    2.940000e+00
    N4 TC1er  1 3.950000e-01    1.670000e+00
    N4 TC2er  1 3.950000e-01    1.850000e+00
    N4 TC3er  1 3.950000e-01    2.110000e+00
    N4 TC4er  1 3.950000e-01    2.310000e+00
    N4 TC5er  1 3.950000e-01    2.310000e+00
    N4 TC6er  1 3.950000e-01    2.500000e+00
    N4 TX1vr  1 3.950000e-01    2.110000e+00
    N4 TX2vr  1 3.950000e-01    2.310000e+00
    N4 TX3vr  1 3.950000e-01    2.700000e+00
    N4 TX4vr  1 3.950000e-01    2.940000e+00
    N4 TC1vr  1 3.950000e-01    1.670000e+00
    N4 TC2vr  1 3.950000e-01    1.850000e+00
    N4 TC3vr  1 3.950000e-01    2.110000e+00
    N4 TC4vr  1 3.950000e-01    2.310000e+00
    N4 TC5vr  1 3.950000e-01    2.310000e+00
    N4 TC6vr  1 3.950000e-01    2.500000e+00
    N4 TN1ar  1 3.950000e-01    2.310000e+00
    N4 TN2ar  1 3.950000e-01    2.500000e+00
    N4 TN3ar  1 3.950000e-01    2.500000e+00
    N4 TN4ar  1 3.950000e-01    2.700000e+00
    N4 TN1dr  1 3.950000e-01    2.310000e+00
    N4 TN2dr  1 3.950000e-01    2.500000e+00
    N4 TN3dr  1 3.950000e-01    2.500000e+00
    N4 TN4dr  1 3.950000e-01    2.700000e+00
    N4  TX1r  1 3.950000e-01    1.850000e+00
    N4  TX2r  1 3.950000e-01    2.110000e+00
    N4  TX3r  1 3.950000e-01    2.500000e+00
    N4  TX4r  1 3.950000e-01    2.700000e+00
    N4  TC1r  1 3.980000e-01    1.450000e+00
    N4  TC2r  1 3.950000e-01    1.670000e+00
    N4  TC3r  1 3.950000e-01    1.850000e+00
    N4  TC4r  1 3.950000e-01    2.110000e+00
    N4  TC5r  1 3.950000e-01    2.110000e+00
    N4  TC6r  1 3.950000e-01    2.310000e+00
    N4  TN1r  1 3.950000e-01    2.310000e+00
    N4  TN2r  1 3.950000e-01    2.500000e+00
    N4  TN3r  1 3.950000e-01    2.500000e+00
  TP6d    N4  1 3.950000e-01    2.310000e+00
  TP5d    N4  1 3.950000e-01    2.500000e+00
  TP4d    N4  1 3.950000e-01    2.500000e+00
  TP3d    N4  1 3.950000e-01    2.500000e+00
  TP2d    N4  1 3.950000e-01    2.500000e+00
  TP1d    N4  1 3.950000e-01    2.700000e+00
  TN6d    N4  1 3.950000e-01    2.940000e+00
  TN5d    N4  1 3.950000e-01    2.700000e+00
  TP6a    N4  1 3.950000e-01    2.310000e+00
  TP5a    N4  1 3.950000e-01    2.500000e+00
  TP4a    N4  1 3.950000e-01    2.500000e+00
  TP3a    N4  1 3.950000e-01    2.500000e+00
  TP2a    N4  1 3.950000e-01    2.500000e+00
  TP1a    N4  1 3.950000e-01    2.700000e+00
  TN6a    N4  1 3.950000e-01    2.940000e+00
  TN5a    N4  1 3.950000e-01    2.700000e+00
  TP6q    N4  1 3.950000e-01    2.700000e+00
  TP5q    N4  1 3.950000e-01    2.940000e+00
  TP4q    N4  1 3.950000e-01    2.940000e+00
  TP3q    N4  1 3.950000e-01    2.940000e+00
  TP2q    N4  1 3.950000e-01    2.940000e+00
  TP1q    N4  1 3.950000e-01    3.190000e+00
  TN6q    N4  1 3.950000e-01    3.430000e+00
  TN5q    N4  1 3.950000e-01    3.190000e+00
 TN5aq    N4  1 3.950000e-01    3.190000e+00
 TN6aq    N4  1 3.950000e-01    3.430000e+00
 TP1aq    N4  1 3.950000e-01    3.190000e+00
 TP2aq    N4  1 3.950000e-01    2.940000e+00
 TP3aq    N4  1 3.950000e-01    2.940000e+00
 TP4aq    N4  1 3.950000e-01    2.940000e+00
 TP5aq    N4  1 3.950000e-01    2.940000e+00
 TP6aq    N4  1 3.950000e-01    2.700000e+00
 TN5dq    N4  1 3.950000e-01    3.190000e+00
 TN6dq    N4  1 3.950000e-01    3.430000e+00
 TP1dq    N4  1 3.950000e-01    3.190000e+00
 TP2dq    N4  1 3.950000e-01    2.940000e+00
 TP3dq    N4  1 3.950000e-01    2.940000e+00
 TP4dq    N4  1 3.950000e-01    2.940000e+00
 TP5dq    N4  1 3.950000e-01    2.940000e+00
 TP6dq    N4  1 3.950000e-01    2.700000e+00
  TP6h    N4  1 3.950000e-01    2.310000e+00
  TP5h    N4  1 3.950000e-01    2.500000e+00
  TP4h    N4  1 3.950000e-01    2.500000e+00
  TP3h    N4  1 3.950000e-01    2.500000e+00
  TP2h    N4  1 3.950000e-01    2.500000e+00
  TP1h    N4  1 3.950000e-01    2.700000e+00
  TN6h    N4  1 3.950000e-01    2.940000e+00
  TN5h    N4  1 3.950000e-01    2.700000e+00
 TN5ah    N4  1 3.950000e-01    2.700000e+00
 TN6ah    N4  1 3.950000e-01    2.940000e+00
 TP1ah    N4  1 3.950000e-01    2.700000e+00
 TP2ah    N4  1 3.950000e-01    2.500000e+00
 TP3ah    N4  1 3.950000e-01    2.500000e+00
 TP4ah    N4  1 3.950000e-01    2.500000e+00
 TP5ah    N4  1 3.950000e-01    2.500000e+00
 TP6ah    N4  1 3.950000e-01    2.310000e+00
 TN5dh    N4  1 3.950000e-01    2.700000e+00
 TN6dh    N4  1 3.950000e-01    2.940000e+00
 TP1dh    N4  1 3.950000e-01    2.700000e+00
 TP2dh    N4  1 3.950000e-01    2.500000e+00
 TP3dh    N4  1 3.950000e-01    2.500000e+00
 TP4dh    N4  1 3.950000e-01    2.500000e+00
 TP5dh    N4  1 3.950000e-01    2.500000e+00
 TP6dh    N4  1 3.950000e-01    2.310000e+00
  TP6r    N4  1 3.950000e-01    2.310000e+00
  TP5r    N4  1 3.950000e-01    2.500000e+00
  TP4r    N4  1 3.950000e-01    2.500000e+00
  TP3r    N4  1 3.950000e-01    2.500000e+00
  TP2r    N4  1 3.950000e-01    2.500000e+00
  TP1r    N4  1 3.950000e-01    2.700000e+00
  TN6r    N4  1 3.950000e-01    2.940000e+00
  TN5r    N4  1 3.950000e-01    2.700000e+00
 TN5ar    N4  1 3.950000e-01    2.700000e+00
 TN6ar    N4  1 3.950000e-01    2.940000e+00
 TP1ar    N4  1 3.950000e-01    2.700000e+00
 TP2ar    N4  1 3.950000e-01    2.500000e+00
 TP3ar    N4  1 3.950000e-01    2.500000e+00
 TP4ar    N4  1 3.950000e-01    2.500000e+00
 TP5ar    N4  1 3.950000e-01    2.500000e+00
 TP6ar    N4  1 3.950000e-01    2.310000e+00
 TN5dr    N4  1 3.950000e-01    2.700000e+00
 TN6dr    N4  1 3.950000e-01    2.940000e+00
 TP1dr    N4  1 3.950000e-01    2.700000e+00
 TP2dr    N4  1 3.950000e-01    2.500000e+00
 TP3dr    N4  1 3.950000e-01    2.500000e+00
 TP4dr    N4  1 3.950000e-01    2.500000e+00
 TP5dr    N4  1 3.950000e-01    2.500000e+00
 TP6dr    N4  1 3.950000e-01    2.310000e+00
   P6d   SN4  1 4.300000e-01    2.920000e+00
   P5d   SN4  1 4.300000e-01    3.160000e+00
   P4d   SN4  1 4.300000e-01    3.160000e+00
   P3d   SN4  1 4.300000e-01    3.160000e+00
   P2d   SN4  1 4.300000e-01    3.160000e+00
   P1d   SN4  1 4.300000e-01    3.380000e+00
   N6d   SN4  1 4.300000e-01    3.590000e+00
   N5d   SN4  1 4.300000e-01    3.380000e+00
   P6a   SN4  1 4.300000e-01    2.920000e+00
   P5a   SN4  1 4.300000e-01    3.160000e+00
   P4a   SN4  1 4.300000e-01    3.160000e+00
   P3a   SN4  1 4.300000e-01    3.160000e+00
   P2a   SN4  1 4.300000e-01    3.160000e+00
   P1a   SN4  1 4.300000e-01    3.380000e+00
   N6a   SN4  1 4.300000e-01    3.590000e+00
   N5a   SN4  1 4.300000e-01    3.380000e+00
   P6q   SN4  1 4.300000e-01    3.380000e+00
   P5q   SN4  1 4.300000e-01    3.590000e+00
   P4q   SN4  1 4.300000e-01    3.590000e+00
   P3q   SN4  1 4.300000e-01    3.590000e+00
   P2q   SN4  1 4.300000e-01    3.590000e+00
   P1q   SN4  1 4.300000e-01    3.770000e+00
   N6q   SN4  1 4.300000e-01    3.970000e+00
   N5q   SN4  1 4.300000e-01    3.770000e+00
  N5aq   SN4  1 4.300000e-01    3.770000e+00
  N6aq   SN4  1 4.300000e-01    3.970000e+00
  P1aq   SN4  1 4.300000e-01    3.770000e+00
  P2aq   SN4  1 4.300000e-01    3.590000e+00
  P3aq   SN4  1 4.300000e-01    3.590000e+00
  P4aq   SN4  1 4.300000e-01    3.590000e+00
  P5aq   SN4  1 4.300000e-01    3.590000e+00
  P6aq   SN4  1 4.300000e-01    3.380000e+00
  N5dq   SN4  1 4.300000e-01    3.770000e+00
  N6dq   SN4  1 4.300000e-01    3.970000e+00
  P1dq   SN4  1 4.300000e-01    3.770000e+00
  P2dq   SN4  1 4.300000e-01    3.590000e+00
  P3dq   SN4  1 4.300000e-01    3.590000e+00
  P4dq   SN4  1 4.300000e-01    3.590000e+00
  P5dq   SN4  1 4.300000e-01    3.590000e+00
  P6dq   SN4  1 4.300000e-01    3.380000e+00
   P6h   SN4  1 4.300000e-01    2.920000e+00
   P5h   SN4  1 4.300000e-01    3.160000e+00
   P4h   SN4  1 4.300000e-01    3.160000e+00
   P3h   SN4  1 4.300000e-01    3.160000e+00
   P2h   SN4  1 4.300000e-01    3.160000e+00
   P1h   SN4  1 4.300000e-01    3.380000e+00
   N6h   SN4  1 4.300000e-01    3.590000e+00
   N5h   SN4  1 4.300000e-01    3.380000e+00
  N5ah   SN4  1 4.300000e-01    3.380000e+00
  N6ah   SN4  1 4.300000e-01    3.590000e+00
  P1ah   SN4  1 4.300000e-01    3.380000e+00
  P2ah   SN4  1 4.300000e-01    3.160000e+00
  P3ah   SN4  1 4.300000e-01    3.160000e+00
  P4ah   SN4  1 4.300000e-01    3.160000e+00
  P5ah   SN4  1 4.300000e-01    3.160000e+00
  P6ah   SN4  1 4.300000e-01    2.920000e+00
  N5dh   SN4  1 4.300000e-01    3.380000e+00
  N6dh   SN4  1 4.300000e-01    3.590000e+00
  P1dh   SN4  1 4.300000e-01    3.380000e+00
  P2dh   SN4  1 4.300000e-01    3.160000e+00
  P3dh   SN4  1 4.300000e-01    3.160000e+00
  P4dh   SN4  1 4.300000e-01    3.160000e+00
  P5dh   SN4  1 4.300000e-01    3.160000e+00
  P6dh   SN4  1 4.300000e-01    2.920000e+00
   P6r   SN4  1 4.300000e-01    2.920000e+00
   P5r   SN4  1 4.300000e-01    3.160000e+00
   P4r   SN4  1 4.300000e-01    3.160000e+00
   P3r   SN4  1 4.300000e-01    3.160000e+00
   P2r   SN4  1 4.300000e-01    3.160000e+00
   P1r   SN4  1 4.300000e-01    3.380000e+00
   N6r   SN4  1 4.300000e-01    3.590000e+00
   N5r   SN4  1 4.300000e-01    3.380000e+00
  N5ar   SN4  1 4.300000e-01    3.380000e+00
  N6ar   SN4  1 4.300000e-01    3.590000e+00
  P1ar   SN4  1 4.300000e-01    3.380000e+00
  P2ar   SN4  1 4.300000e-01    3.160000e+00
  P3ar   SN4  1 4.300000e-01    3.160000e+00
  P4ar   SN4  1 4.300000e-01    3.160000e+00
  P5ar   SN4  1 4.300000e-01    3.160000e+00
  P6ar   SN4  1 4.300000e-01    2.920000e+00
  N5dr   SN4  1 4.300000e-01    3.380000e+00
  N6dr   SN4  1 4.300000e-01    3.590000e+00
  P1dr   SN4  1 4.300000e-01    3.380000e+00
  P2dr   SN4  1 4.300000e-01    3.160000e+00
  P3dr   SN4  1 4.300000e-01    3.160000e+00
  P4dr   SN4  1 4.300000e-01    3.160000e+00
  P5dr   SN4  1 4.300000e-01    3.160000e+00
  P6dr   SN4  1 4.300000e-01    2.920000e+00
   SN4    N3  1 4.300000e-01    3.160000e+00
   SN4    N2  1 4.300000e-01    3.160000e+00
   SN4    N1  1 4.300000e-01    2.920000e+00
   SN4    C6  1 4.300000e-01    2.920000e+00
   SN4    C5  1 4.300000e-01    2.770000e+00
   SN4    C4  1 4.300000e-01    2.770000e+00
   SN4    C3  1 4.300000e-01    2.530000e+00
   SN4    C2  1 4.300000e-01    2.320000e+00
   SN4    C1  1 4.300000e-01    2.160000e+00
   SN4    X4  1 4.300000e-01    3.380000e+00
   SN4    X3  1 4.300000e-01    3.160000e+00
   SN4    X2  1 4.300000e-01    2.770000e+00
   SN4    X1  1 4.300000e-01    2.530000e+00
   SN4   N4d  1 4.300000e-01    3.380000e+00
   SN4   N1d  1 4.300000e-01    2.920000e+00
   SN4   N2d  1 4.300000e-01    3.160000e+00
   SN4   N3d  1 4.300000e-01    3.160000e+00
   SN4   N4a  1 4.300000e-01    3.380000e+00
   SN4   N1a  1 4.300000e-01    2.920000e+00
   SN4   N2a  1 4.300000e-01    3.160000e+00
   SN4   N3a  1 4.300000e-01    3.160000e+00
   SN4   C6v  1 4.300000e-01    3.160000e+00
   SN4   C5v  1 4.300000e-01    2.920000e+00
   SN4   C4v  1 4.300000e-01    2.920000e+00
   SN4   C3v  1 4.300000e-01    2.770000e+00
   SN4   C2v  1 4.300000e-01    2.530000e+00
   SN4   C1v  1 4.300000e-01    2.320000e+00
   SN4   X4v  1 4.300000e-01    3.590000e+00
   SN4   X3v  1 4.300000e-01    3.380000e+00
   SN4   X2v  1 4.300000e-01    2.920000e+00
   SN4   X1v  1 4.300000e-01    2.770000e+00
   SN4   C6e  1 4.300000e-01    3.160000e+00
   SN4   C5e  1 4.300000e-01    2.920000e+00
   SN4   C4e  1 4.300000e-01    2.920000e+00
   SN4   C3e  1 4.300000e-01    2.770000e+00
   SN4   C2e  1 4.300000e-01    2.530000e+00
   SN4   C1e  1 4.300000e-01    2.320000e+00
   SN4   X4e  1 4.300000e-01    3.590000e+00
   SN4   X3e  1 4.300000e-01    3.380000e+00
   SN4   X2e  1 4.300000e-01    2.920000e+00
   SN4   X1e  1 4.300000e-01    2.770000e+00
   SN4   N4q  1 4.300000e-01    3.770000e+00
   SN4  X1eq  1 4.300000e-01    3.160000e+00
   SN4  X2eq  1 4.300000e-01    3.380000e+00
   SN4  X3eq  1 4.300000e-01    3.770000e+00
   SN4  X4eq  1 4.300000e-01    3.970000e+00
   SN4  C1eq  1 4.300000e-01    2.770000e+00
   SN4  C2eq  1 4.300000e-01    2.920000e+00
   SN4  C3eq  1 4.300000e-01    3.160000e+00
   SN4  C4eq  1 4.300000e-01    3.380000e+00
   SN4  C5eq  1 4.300000e-01    3.380000e+00
   SN4  C6eq  1 4.300000e-01    3.590000e+00
   SN4  X1vq  1 4.300000e-01    3.160000e+00
   SN4  X2vq  1 4.300000e-01    3.380000e+00
   SN4  X3vq  1 4.300000e-01    3.770000e+00
   SN4  X4vq  1 4.300000e-01    3.970000e+00
   SN4  C1vq  1 4.300000e-01    2.770000e+00
   SN4  C2vq  1 4.300000e-01    2.920000e+00
   SN4  C3vq  1 4.300000e-01    3.160000e+00
   SN4  C4vq  1 4.300000e-01    3.380000e+00
   SN4  C5vq  1 4.300000e-01    3.380000e+00
   SN4  C6vq  1 4.300000e-01    3.590000e+00
   SN4  N1aq  1 4.300000e-01    3.380000e+00
   SN4  N2aq  1 4.300000e-01    3.590000e+00
   SN4  N3aq  1 4.300000e-01    3.590000e+00
   SN4  N4aq  1 4.300000e-01    3.770000e+00
   SN4  N1dq  1 4.300000e-01    3.380000e+00
   SN4  N2dq  1 4.300000e-01    3.590000e+00
   SN4  N3dq  1 4.300000e-01    3.590000e+00
   SN4  N4dq  1 4.300000e-01    3.770000e+00
   SN4   X1q  1 4.300000e-01    2.920000e+00
   SN4   X2q  1 4.300000e-01    3.160000e+00
   SN4   X3q  1 4.300000e-01    3.590000e+00
   SN4   X4q  1 4.300000e-01    3.770000e+00
   SN4   C1q  1 4.300000e-01    2.530000e+00
   SN4   C2q  1 4.300000e-01    2.770000e+00
   SN4   C3q  1 4.300000e-01    2.920000e+00
   SN4   C4q  1 4.300000e-01    3.160000e+00
   SN4   C5q  1 4.300000e-01    3.160000e+00
   SN4   C6q  1 4.300000e-01    3.380000e+00
   SN4   N1q  1 4.300000e-01    3.380000e+00
   SN4   N2q  1 4.300000e-01    3.590000e+00
   SN4   N3q  1 4.300000e-01    3.590000e+00
   SN4   N4h  1 4.300000e-01    3.380000e+00
   SN4  X1eh  1 4.300000e-01    2.770000e+00
   SN4  X2eh  1 4.300000e-01    2.920000e+00
   SN4  X3eh  1 4.300000e-01    3.380000e+00
   SN4  X4eh  1 4.300000e-01    3.590000e+00
   SN4  C1eh  1 4.300000e-01    2.320000e+00
   SN4  C2eh  1 4.300000e-01    2.530000e+00
   SN4  C3eh  1 4.300000e-01    2.770000e+00
   SN4  C4eh  1 4.300000e-01    2.920000e+00
   SN4  C5eh  1 4.300000e-01    2.920000e+00
   SN4  C6eh  1 4.300000e-01    3.160000e+00
   SN4  X1vh  1 4.300000e-01    2.770000e+00
   SN4  X2vh  1 4.300000e-01    2.920000e+00
   SN4  X3vh  1 4.300000e-01    3.380000e+00
   SN4  X4vh  1 4.300000e-01    3.590000e+00
   SN4  C1vh  1 4.300000e-01    2.320000e+00
   SN4  C2vh  1 4.300000e-01    2.530000e+00
   SN4  C3vh  1 4.300000e-01    2.770000e+00
   SN4  C4vh  1 4.300000e-01    2.920000e+00
   SN4  C5vh  1 4.300000e-01    2.920000e+00
   SN4  C6vh  1 4.300000e-01    3.160000e+00
   SN4  N1ah  1 4.300000e-01    2.920000e+00
   SN4  N2ah  1 4.300000e-01    3.160000e+00
   SN4  N3ah  1 4.300000e-01    3.160000e+00
   SN4  N4ah  1 4.300000e-01    3.380000e+00
   SN4  N1dh  1 4.300000e-01    2.920000e+00
   SN4  N2dh  1 4.300000e-01    3.160000e+00
   SN4  N3dh  1 4.300000e-01    3.160000e+00
   SN4  N4dh  1 4.300000e-01    3.380000e+00
   SN4   X1h  1 4.300000e-01    2.530000e+00
   SN4   X2h  1 4.300000e-01    2.770000e+00
   SN4   X3h  1 4.300000e-01    3.160000e+00
   SN4   X4h  1 4.300000e-01    3.380000e+00
   SN4   C1h  1 4.300000e-01    2.160000e+00
   SN4   C2h  1 4.300000e-01    2.320000e+00
   SN4   C3h  1 4.300000e-01    2.530000e+00
   SN4   C4h  1 4.300000e-01    2.770000e+00
   SN4   C5h  1 4.300000e-01    2.770000e+00
   SN4   C6h  1 4.300000e-01    2.920000e+00
   SN4   N1h  1 4.300000e-01    2.920000e+00
   SN4   N2h  1 4.300000e-01    3.160000e+00
   SN4   N3h  1 4.300000e-01    3.160000e+00
   SN4   N4r  1 4.300000e-01    3.380000e+00
   SN4  X1er  1 4.300000e-01    2.770000e+00
   SN4  X2er  1 4.300000e-01    2.920000e+00
   SN4  X3er  1 4.300000e-01    3.380000e+00
   SN4  X4er  1 4.300000e-01    3.590000e+00
   SN4  C1er  1 4.300000e-01    2.320000e+00
   SN4  C2er  1 4.300000e-01    2.530000e+00
   SN4  C3er  1 4.300000e-01    2.770000e+00
   SN4  C4er  1 4.300000e-01    2.920000e+00
   SN4  C5er  1 4.300000e-01    2.920000e+00
   SN4  C6er  1 4.300000e-01    3.160000e+00
   SN4  X1vr  1 4.300000e-01    2.770000e+00
   SN4  X2vr  1 4.300000e-01    2.920000e+00
   SN4  X3vr  1 4.300000e-01    3.380000e+00
   SN4  X4vr  1 4.300000e-01    3.590000e+00
   SN4  C1vr  1 4.300000e-01    2.320000e+00
   SN4  C2vr  1 4.300000e-01    2.530000e+00
   SN4  C3vr  1 4.300000e-01    2.770000e+00
   SN4  C4vr  1 4.300000e-01    2.920000e+00
   SN4  C5vr  1 4.300000e-01    2.920000e+00
   SN4  C6vr  1 4.300000e-01    3.160000e+00
   SN4  N1ar  1 4.300000e-01    2.920000e+00
   SN4  N2ar  1 4.300000e-01    3.160000e+00
   SN4  N3ar  1 4.300000e-01    3.160000e+00
   SN4  N4ar  1 4.300000e-01    3.380000e+00
   SN4  N1dr  1 4.300000e-01    2.920000e+00
   SN4  N2dr  1 4.300000e-01    3.160000e+00
   SN4  N3dr  1 4.300000e-01    3.160000e+00
   SN4  N4dr  1 4.300000e-01    3.380000e+00
   SN4   X1r  1 4.300000e-01    2.530000e+00
   SN4   X2r  1 4.300000e-01    2.770000e+00
   SN4   X3r  1 4.300000e-01    3.160000e+00
   SN4   X4r  1 4.300000e-01    3.380000e+00
   SN4   C1r  1 4.300000e-01    2.160000e+00
   SN4   C2r  1 4.300000e-01    2.320000e+00
   SN4   C3r  1 4.300000e-01    2.530000e+00
   SN4   C4r  1 4.300000e-01    2.770000e+00
   SN4   C5r  1 4.300000e-01    2.770000e+00
   SN4   C6r  1 4.300000e-01    2.920000e+00
   SN4   N1r  1 4.300000e-01    2.920000e+00
   SN4   N2r  1 4.300000e-01    3.160000e+00
   SN4   N3r  1 4.300000e-01    3.160000e+00
   SN4   SN4  1 4.100000e-01    2.840000e+00
   SN4   SN3  1 4.100000e-01    2.600000e+00
   SN4   SN2  1 4.100000e-01    2.600000e+00
   SN4   SN1  1 4.100000e-01    2.350000e+00
   SN4   SC6  1 4.100000e-01    2.350000e+00
   SN4   SC5  1 4.100000e-01    2.200000e+00
   SN4   SC4  1 4.100000e-01    2.200000e+00
   SN4   SC3  1 4.100000e-01    2.040000e+00
   SN4   SC2  1 4.100000e-01    1.910000e+00
   SN4   SC1  1 4.100000e-01    1.750000e+00
   SN4   SX4  1 4.100000e-01    2.840000e+00
   SN4   SX3  1 4.100000e-01    2.600000e+00
   SN4   SX2  1 4.100000e-01    2.200000e+00
   SN4   SX1  1 4.100000e-01    2.040000e+00
  SP6d   SN4  1 4.100000e-01    2.350000e+00
  SP5d   SN4  1 4.100000e-01    2.600000e+00
  SP4d   SN4  1 4.100000e-01    2.600000e+00
  SP3d   SN4  1 4.100000e-01    2.600000e+00
  SP2d   SN4  1 4.100000e-01    2.600000e+00
  SP1d   SN4  1 4.100000e-01    2.840000e+00
  SN6d   SN4  1 4.100000e-01    3.070000e+00
  SN5d   SN4  1 4.100000e-01    2.840000e+00
   SN4  SN4d  1 4.100000e-01    2.840000e+00
   SN4  SN1d  1 4.100000e-01    2.350000e+00
   SN4  SN2d  1 4.100000e-01    2.600000e+00
   SN4  SN3d  1 4.100000e-01    2.600000e+00
  SP6a   SN4  1 4.100000e-01    2.350000e+00
  SP5a   SN4  1 4.100000e-01    2.600000e+00
  SP4a   SN4  1 4.100000e-01    2.600000e+00
  SP3a   SN4  1 4.100000e-01    2.600000e+00
  SP2a   SN4  1 4.100000e-01    2.600000e+00
  SP1a   SN4  1 4.100000e-01    2.840000e+00
  SN6a   SN4  1 4.100000e-01    3.070000e+00
  SN5a   SN4  1 4.100000e-01    2.840000e+00
   SN4  SN4a  1 4.100000e-01    2.840000e+00
   SN4  SN1a  1 4.100000e-01    2.350000e+00
   SN4  SN2a  1 4.100000e-01    2.600000e+00
   SN4  SN3a  1 4.100000e-01    2.600000e+00
   SN4  SC6v  1 4.100000e-01    2.600000e+00
   SN4  SC5v  1 4.100000e-01    2.350000e+00
   SN4  SC4v  1 4.100000e-01    2.350000e+00
   SN4  SC3v  1 4.100000e-01    2.200000e+00
   SN4  SC2v  1 4.100000e-01    2.040000e+00
   SN4  SC1v  1 4.100000e-01    1.910000e+00
   SN4  SX4v  1 4.100000e-01    3.070000e+00
   SN4  SX3v  1 4.100000e-01    2.840000e+00
   SN4  SX2v  1 4.100000e-01    2.350000e+00
   SN4  SX1v  1 4.100000e-01    2.200000e+00
   SN4  SC6e  1 4.100000e-01    2.600000e+00
   SN4  SC5e  1 4.100000e-01    2.350000e+00
   SN4  SC4e  1 4.100000e-01    2.350000e+00
   SN4  SC3e  1 4.100000e-01    2.200000e+00
   SN4  SC2e  1 4.100000e-01    2.040000e+00
   SN4  SC1e  1 4.100000e-01    1.910000e+00
   SN4  SX4e  1 4.100000e-01    3.070000e+00
   SN4  SX3e  1 4.100000e-01    2.840000e+00
   SN4  SX2e  1 4.100000e-01    2.350000e+00
   SN4  SX1e  1 4.100000e-01    2.200000e+00
  SP6q   SN4  1 4.100000e-01    2.840000e+00
  SP5q   SN4  1 4.100000e-01    3.070000e+00
  SP4q   SN4  1 4.100000e-01    3.070000e+00
  SP3q   SN4  1 4.100000e-01    3.070000e+00
  SP2q   SN4  1 4.100000e-01    3.070000e+00
  SP1q   SN4  1 4.100000e-01    3.310000e+00
  SN6q   SN4  1 4.100000e-01    3.550000e+00
  SN5q   SN4  1 4.100000e-01    3.310000e+00
   SN4  SN4q  1 4.100000e-01    3.310000e+00
   SN4 SX1eq  1 4.100000e-01    2.600000e+00
   SN4 SX2eq  1 4.100000e-01    2.840000e+00
   SN4 SX3eq  1 4.100000e-01    3.310000e+00
   SN4 SX4eq  1 4.100000e-01    3.550000e+00
   SN4 SC1eq  1 4.100000e-01    2.200000e+00
   SN4 SC2eq  1 4.100000e-01    2.350000e+00
   SN4 SC3eq  1 4.100000e-01    2.600000e+00
   SN4 SC4eq  1 4.100000e-01    2.840000e+00
   SN4 SC5eq  1 4.100000e-01    2.840000e+00
   SN4 SC6eq  1 4.100000e-01    3.070000e+00
   SN4 SX1vq  1 4.100000e-01    2.600000e+00
   SN4 SX2vq  1 4.100000e-01    2.840000e+00
   SN4 SX3vq  1 4.100000e-01    3.310000e+00
   SN4 SX4vq  1 4.100000e-01    3.550000e+00
   SN4 SC1vq  1 4.100000e-01    2.200000e+00
   SN4 SC2vq  1 4.100000e-01    2.350000e+00
   SN4 SC3vq  1 4.100000e-01    2.600000e+00
   SN4 SC4vq  1 4.100000e-01    2.840000e+00
   SN4 SC5vq  1 4.100000e-01    2.840000e+00
   SN4 SC6vq  1 4.100000e-01    3.070000e+00
   SN4 SN1aq  1 4.100000e-01    2.840000e+00
   SN4 SN2aq  1 4.100000e-01    3.070000e+00
   SN4 SN3aq  1 4.100000e-01    3.070000e+00
   SN4 SN4aq  1 4.100000e-01    3.310000e+00
 SN5aq   SN4  1 4.100000e-01    3.310000e+00
 SN6aq   SN4  1 4.100000e-01    3.550000e+00
 SP1aq   SN4  1 4.100000e-01    3.310000e+00
 SP2aq   SN4  1 4.100000e-01    3.070000e+00
 SP3aq   SN4  1 4.100000e-01    3.070000e+00
 SP4aq   SN4  1 4.100000e-01    3.070000e+00
 SP5aq   SN4  1 4.100000e-01    3.070000e+00
 SP6aq   SN4  1 4.100000e-01    2.840000e+00
   SN4 SN1dq  1 4.100000e-01    2.840000e+00
   SN4 SN2dq  1 4.100000e-01    3.070000e+00
   SN4 SN3dq  1 4.100000e-01    3.070000e+00
   SN4 SN4dq  1 4.100000e-01    3.310000e+00
 SN5dq   SN4  1 4.100000e-01    3.310000e+00
 SN6dq   SN4  1 4.100000e-01    3.550000e+00
 SP1dq   SN4  1 4.100000e-01    3.310000e+00
 SP2dq   SN4  1 4.100000e-01    3.070000e+00
 SP3dq   SN4  1 4.100000e-01    3.070000e+00
 SP4dq   SN4  1 4.100000e-01    3.070000e+00
 SP5dq   SN4  1 4.100000e-01    3.070000e+00
 SP6dq   SN4  1 4.100000e-01    2.840000e+00
   SN4  SX1q  1 4.100000e-01    2.350000e+00
   SN4  SX2q  1 4.100000e-01    2.600000e+00
   SN4  SX3q  1 4.100000e-01    3.070000e+00
   SN4  SX4q  1 4.100000e-01    3.310000e+00
   SN4  SC1q  1 4.100000e-01    2.040000e+00
   SN4  SC2q  1 4.100000e-01    2.200000e+00
   SN4  SC3q  1 4.100000e-01    2.350000e+00
   SN4  SC4q  1 4.100000e-01    2.600000e+00
   SN4  SC5q  1 4.100000e-01    2.600000e+00
   SN4  SC6q  1 4.100000e-01    2.840000e+00
   SN4  SN1q  1 4.100000e-01    2.840000e+00
   SN4  SN2q  1 4.100000e-01    3.070000e+00
   SN4  SN3q  1 4.100000e-01    3.070000e+00
  SP6h   SN4  1 4.100000e-01    2.350000e+00
  SP5h   SN4  1 4.100000e-01    2.600000e+00
  SP4h   SN4  1 4.100000e-01    2.600000e+00
  SP3h   SN4  1 4.100000e-01    2.600000e+00
  SP2h   SN4  1 4.100000e-01    2.600000e+00
  SP1h   SN4  1 4.100000e-01    2.840000e+00
  SN6h   SN4  1 4.100000e-01    3.070000e+00
  SN5h   SN4  1 4.100000e-01    2.840000e+00
   SN4  SN4h  1 4.100000e-01    2.840000e+00
   SN4 SX1eh  1 4.100000e-01    2.200000e+00
   SN4 SX2eh  1 4.100000e-01    2.350000e+00
   SN4 SX3eh  1 4.100000e-01    2.840000e+00
   SN4 SX4eh  1 4.100000e-01    3.070000e+00
   SN4 SC1eh  1 4.100000e-01    1.910000e+00
   SN4 SC2eh  1 4.100000e-01    2.040000e+00
   SN4 SC3eh  1 4.100000e-01    2.200000e+00
   SN4 SC4eh  1 4.100000e-01    2.350000e+00
   SN4 SC5eh  1 4.100000e-01    2.350000e+00
   SN4 SC6eh  1 4.100000e-01    2.600000e+00
   SN4 SX1vh  1 4.100000e-01    2.200000e+00
   SN4 SX2vh  1 4.100000e-01    2.350000e+00
   SN4 SX3vh  1 4.100000e-01    2.840000e+00
   SN4 SX4vh  1 4.100000e-01    3.070000e+00
   SN4 SC1vh  1 4.100000e-01    1.910000e+00
   SN4 SC2vh  1 4.100000e-01    2.040000e+00
   SN4 SC3vh  1 4.100000e-01    2.200000e+00
   SN4 SC4vh  1 4.100000e-01    2.350000e+00
   SN4 SC5vh  1 4.100000e-01    2.350000e+00
   SN4 SC6vh  1 4.100000e-01    2.600000e+00
   SN4 SN1ah  1 4.100000e-01    2.350000e+00
   SN4 SN2ah  1 4.100000e-01    2.600000e+00
   SN4 SN3ah  1 4.100000e-01    2.600000e+00
   SN4 SN4ah  1 4.100000e-01    2.840000e+00
 SN5ah   SN4  1 4.100000e-01    2.840000e+00
 SN6ah   SN4  1 4.100000e-01    3.070000e+00
 SP1ah   SN4  1 4.100000e-01    2.840000e+00
 SP2ah   SN4  1 4.100000e-01    2.600000e+00
 SP3ah   SN4  1 4.100000e-01    2.600000e+00
 SP4ah   SN4  1 4.100000e-01    2.600000e+00
 SP5ah   SN4  1 4.100000e-01    2.600000e+00
 SP6ah   SN4  1 4.100000e-01    2.350000e+00
   SN4 SN1dh  1 4.100000e-01    2.350000e+00
   SN4 SN2dh  1 4.100000e-01    2.600000e+00
   SN4 SN3dh  1 4.100000e-01    2.600000e+00
   SN4 SN4dh  1 4.100000e-01    2.840000e+00
 SN5dh   SN4  1 4.100000e-01    2.840000e+00
 SN6dh   SN4  1 4.100000e-01    3.070000e+00
 SP1dh   SN4  1 4.100000e-01    2.840000e+00
 SP2dh   SN4  1 4.100000e-01    2.600000e+00
 SP3dh   SN4  1 4.100000e-01    2.600000e+00
 SP4dh   SN4  1 4.100000e-01    2.600000e+00
 SP5dh   SN4  1 4.100000e-01    2.600000e+00
 SP6dh   SN4  1 4.100000e-01    2.350000e+00
   SN4  SX1h  1 4.100000e-01    2.040000e+00
   SN4  SX2h  1 4.100000e-01    2.200000e+00
   SN4  SX3h  1 4.100000e-01    2.600000e+00
   SN4  SX4h  1 4.100000e-01    2.840000e+00
   SN4  SC1h  1 4.100000e-01    1.750000e+00
   SN4  SC2h  1 4.100000e-01    1.910000e+00
   SN4  SC3h  1 4.100000e-01    2.040000e+00
   SN4  SC4h  1 4.100000e-01    2.200000e+00
   SN4  SC5h  1 4.100000e-01    2.200000e+00
   SN4  SC6h  1 4.100000e-01    2.350000e+00
   SN4  SN1h  1 4.100000e-01    2.350000e+00
   SN4  SN2h  1 4.100000e-01    2.600000e+00
   SN4  SN3h  1 4.100000e-01    2.600000e+00
  SP6r   SN4  1 4.100000e-01    2.350000e+00
  SP5r   SN4  1 4.100000e-01    2.600000e+00
  SP4r   SN4  1 4.100000e-01    2.600000e+00
  SP3r   SN4  1 4.100000e-01    2.600000e+00
  SP2r   SN4  1 4.100000e-01    2.600000e+00
  SP1r   SN4  1 4.100000e-01    2.840000e+00
  SN6r   SN4  1 4.100000e-01    3.070000e+00
  SN5r   SN4  1 4.100000e-01    2.840000e+00
   SN4  SN4r  1 4.100000e-01    2.840000e+00
   SN4 SX1er  1 4.100000e-01    2.200000e+00
   SN4 SX2er  1 4.100000e-01    2.350000e+00
   SN4 SX3er  1 4.100000e-01    2.840000e+00
   SN4 SX4er  1 4.100000e-01    3.070000e+00
   SN4 SC1er  1 4.100000e-01    1.910000e+00
   SN4 SC2er  1 4.100000e-01    2.040000e+00
   SN4 SC3er  1 4.100000e-01    2.200000e+00
   SN4 SC4er  1 4.100000e-01    2.350000e+00
   SN4 SC5er  1 4.100000e-01    2.350000e+00
   SN4 SC6er  1 4.100000e-01    2.600000e+00
   SN4 SX1vr  1 4.100000e-01    2.200000e+00
   SN4 SX2vr  1 4.100000e-01    2.350000e+00
   SN4 SX3vr  1 4.100000e-01    2.840000e+00
   SN4 SX4vr  1 4.100000e-01    3.070000e+00
   SN4 SC1vr  1 4.100000e-01    1.910000e+00
   SN4 SC2vr  1 4.100000e-01    2.040000e+00
   SN4 SC3vr  1 4.100000e-01    2.200000e+00
   SN4 SC4vr  1 4.100000e-01    2.350000e+00
   SN4 SC5vr  1 4.100000e-01    2.350000e+00
   SN4 SC6vr  1 4.100000e-01    2.600000e+00
   SN4 SN1ar  1 4.100000e-01    2.350000e+00
   SN4 SN2ar  1 4.100000e-01    2.600000e+00
   SN4 SN3ar  1 4.100000e-01    2.600000e+00
   SN4 SN4ar  1 4.100000e-01    2.840000e+00
 SN5ar   SN4  1 4.100000e-01    2.840000e+00
 SN6ar   SN4  1 4.100000e-01    3.070000e+00
 SP1ar   SN4  1 4.100000e-01    2.840000e+00
 SP2ar   SN4  1 4.100000e-01    2.600000e+00
 SP3ar   SN4  1 4.100000e-01    2.600000e+00
 SP4ar   SN4  1 4.100000e-01    2.600000e+00
 SP5ar   SN4  1 4.100000e-01    2.600000e+00
 SP6ar   SN4  1 4.100000e-01    2.350000e+00
   SN4 SN1dr  1 4.100000e-01    2.350000e+00
   SN4 SN2dr  1 4.100000e-01    2.600000e+00
   SN4 SN3dr  1 4.100000e-01    2.600000e+00
   SN4 SN4dr  1 4.100000e-01    2.840000e+00
 SN5dr   SN4  1 4.100000e-01    2.840000e+00
 SN6dr   SN4  1 4.100000e-01    3.070000e+00
 SP1dr   SN4  1 4.100000e-01    2.840000e+00
 SP2dr   SN4  1 4.100000e-01    2.600000e+00
 SP3dr   SN4  1 4.100000e-01    2.600000e+00
 SP4dr   SN4  1 4.100000e-01    2.600000e+00
 SP5dr   SN4  1 4.100000e-01    2.600000e+00
 SP6dr   SN4  1 4.100000e-01    2.350000e+00
   SN4  SX1r  1 4.100000e-01    2.040000e+00
   SN4  SX2r  1 4.100000e-01    2.200000e+00
   SN4  SX3r  1 4.100000e-01    2.600000e+00
   SN4  SX4r  1 4.100000e-01    2.840000e+00
   SN4  SC1r  1 4.100000e-01    1.750000e+00
   SN4  SC2r  1 4.100000e-01    1.910000e+00
   SN4  SC3r  1 4.100000e-01    2.040000e+00
   SN4  SC4r  1 4.100000e-01    2.200000e+00
   SN4  SC5r  1 4.100000e-01    2.200000e+00
   SN4  SC6r  1 4.100000e-01    2.350000e+00
   SN4  SN1r  1 4.100000e-01    2.350000e+00
   SN4  SN2r  1 4.100000e-01    2.600000e+00
   SN4  SN3r  1 4.100000e-01    2.600000e+00
   SN4   TN4  1 3.650000e-01    2.340000e+00
   SN4   TN3  1 3.650000e-01    2.110000e+00
   SN4   TN2  1 3.650000e-01    2.110000e+00
   SN4   TN1  1 3.650000e-01    1.910000e+00
   SN4   TC6  1 3.650000e-01    1.910000e+00
   SN4   TC5  1 3.650000e-01    1.750000e+00
   SN4   TC4  1 3.650000e-01    1.750000e+00
   SN4   TC3  1 3.660000e-01    1.600000e+00
   SN4   TC2  1 3.780000e-01    1.450000e+00
   SN4   TC1  1 3.940000e-01    1.290000e+00
   SN4   TX4  1 3.650000e-01    2.340000e+00
   SN4   TX3  1 3.650000e-01    2.110000e+00
   SN4   TX2  1 3.650000e-01    1.750000e+00
   SN4   TX1  1 3.660000e-01    1.600000e+00
   SN4  TN4d  1 3.650000e-01    2.340000e+00
   SN4  TN1d  1 3.650000e-01    1.910000e+00
   SN4  TN2d  1 3.650000e-01    2.110000e+00
   SN4  TN3d  1 3.650000e-01    2.110000e+00
   SN4  TN4a  1 3.650000e-01    2.340000e+00
   SN4  TN1a  1 3.650000e-01    1.910000e+00
   SN4  TN2a  1 3.650000e-01    2.110000e+00
   SN4  TN3a  1 3.650000e-01    2.110000e+00
   SN4  TC6v  1 3.650000e-01    2.110000e+00
   SN4  TC5v  1 3.650000e-01    1.910000e+00
   SN4  TC4v  1 3.650000e-01    1.910000e+00
   SN4  TC3v  1 3.650000e-01    1.750000e+00
   SN4  TC2v  1 3.660000e-01    1.600000e+00
   SN4  TC1v  1 3.780000e-01    1.450000e+00
   SN4  TX4v  1 3.650000e-01    2.570000e+00
   SN4  TX3v  1 3.650000e-01    2.340000e+00
   SN4  TX2v  1 3.650000e-01    1.910000e+00
   SN4  TX1v  1 3.650000e-01    1.750000e+00
   SN4  TC6e  1 3.650000e-01    2.110000e+00
   SN4  TC5e  1 3.650000e-01    1.910000e+00
   SN4  TC4e  1 3.650000e-01    1.910000e+00
   SN4  TC3e  1 3.650000e-01    1.750000e+00
   SN4  TC2e  1 3.660000e-01    1.600000e+00
   SN4  TC1e  1 3.780000e-01    1.450000e+00
   SN4  TX4e  1 3.650000e-01    2.570000e+00
   SN4  TX3e  1 3.650000e-01    2.340000e+00
   SN4  TX2e  1 3.650000e-01    1.910000e+00
   SN4  TX1e  1 3.650000e-01    1.750000e+00
   SN4  TN4q  1 3.650000e-01    2.830000e+00
   SN4 TX1eq  1 3.650000e-01    2.110000e+00
   SN4 TX2eq  1 3.650000e-01    2.340000e+00
   SN4 TX3eq  1 3.650000e-01    2.830000e+00
   SN4 TX4eq  1 3.650000e-01    3.100000e+00
   SN4 TC1eq  1 3.650000e-01    1.750000e+00
   SN4 TC2eq  1 3.650000e-01    1.910000e+00
   SN4 TC3eq  1 3.650000e-01    2.110000e+00
   SN4 TC4eq  1 3.650000e-01    2.340000e+00
   SN4 TC5eq  1 3.650000e-01    2.340000e+00
   SN4 TC6eq  1 3.650000e-01    2.570000e+00
   SN4 TX1vq  1 3.650000e-01    2.110000e+00
   SN4 TX2vq  1 3.650000e-01    2.340000e+00
   SN4 TX3vq  1 3.650000e-01    2.830000e+00
   SN4 TX4vq  1 3.650000e-01    3.100000e+00
   SN4 TC1vq  1 3.650000e-01    1.750000e+00
   SN4 TC2vq  1 3.650000e-01    1.910000e+00
   SN4 TC3vq  1 3.650000e-01    2.110000e+00
   SN4 TC4vq  1 3.650000e-01    2.340000e+00
   SN4 TC5vq  1 3.650000e-01    2.340000e+00
   SN4 TC6vq  1 3.650000e-01    2.570000e+00
   SN4 TN1aq  1 3.650000e-01    2.340000e+00
   SN4 TN2aq  1 3.650000e-01    2.570000e+00
   SN4 TN3aq  1 3.650000e-01    2.570000e+00
   SN4 TN4aq  1 3.650000e-01    2.830000e+00
   SN4 TN1dq  1 3.650000e-01    2.340000e+00
   SN4 TN2dq  1 3.650000e-01    2.570000e+00
   SN4 TN3dq  1 3.650000e-01    2.570000e+00
   SN4 TN4dq  1 3.650000e-01    2.830000e+00
   SN4  TX1q  1 3.650000e-01    1.910000e+00
   SN4  TX2q  1 3.650000e-01    2.110000e+00
   SN4  TX3q  1 3.650000e-01    2.570000e+00
   SN4  TX4q  1 3.650000e-01    2.830000e+00
   SN4  TC1q  1 3.660000e-01    1.600000e+00
   SN4  TC2q  1 3.650000e-01    1.750000e+00
   SN4  TC3q  1 3.650000e-01    1.910000e+00
   SN4  TC4q  1 3.650000e-01    2.110000e+00
   SN4  TC5q  1 3.650000e-01    2.110000e+00
   SN4  TC6q  1 3.650000e-01    2.340000e+00
   SN4  TN1q  1 3.650000e-01    2.340000e+00
   SN4  TN2q  1 3.650000e-01    2.570000e+00
   SN4  TN3q  1 3.650000e-01    2.570000e+00
   SN4  TN4h  1 3.650000e-01    2.340000e+00
   SN4 TX1eh  1 3.650000e-01    1.750000e+00
   SN4 TX2eh  1 3.650000e-01    1.910000e+00
   SN4 TX3eh  1 3.650000e-01    2.340000e+00
   SN4 TX4eh  1 3.650000e-01    2.570000e+00
   SN4 TC1eh  1 3.780000e-01    1.450000e+00
   SN4 TC2eh  1 3.660000e-01    1.600000e+00
   SN4 TC3eh  1 3.650000e-01    1.750000e+00
   SN4 TC4eh  1 3.650000e-01    1.910000e+00
   SN4 TC5eh  1 3.650000e-01    1.910000e+00
   SN4 TC6eh  1 3.650000e-01    2.110000e+00
   SN4 TX1vh  1 3.650000e-01    1.750000e+00
   SN4 TX2vh  1 3.650000e-01    1.910000e+00
   SN4 TX3vh  1 3.650000e-01    2.340000e+00
   SN4 TX4vh  1 3.650000e-01    2.570000e+00
   SN4 TC1vh  1 3.780000e-01    1.450000e+00
   SN4 TC2vh  1 3.660000e-01    1.600000e+00
   SN4 TC3vh  1 3.650000e-01    1.750000e+00
   SN4 TC4vh  1 3.650000e-01    1.910000e+00
   SN4 TC5vh  1 3.650000e-01    1.910000e+00
   SN4 TC6vh  1 3.650000e-01    2.110000e+00
   SN4 TN1ah  1 3.650000e-01    1.910000e+00
   SN4 TN2ah  1 3.650000e-01    2.110000e+00
   SN4 TN3ah  1 3.650000e-01    2.110000e+00
   SN4 TN4ah  1 3.650000e-01    2.340000e+00
   SN4 TN1dh  1 3.650000e-01    1.910000e+00
   SN4 TN2dh  1 3.650000e-01    2.110000e+00
   SN4 TN3dh  1 3.650000e-01    2.110000e+00
   SN4 TN4dh  1 3.650000e-01    2.340000e+00
   SN4  TX1h  1 3.660000e-01    1.600000e+00
   SN4  TX2h  1 3.650000e-01    1.750000e+00
   SN4  TX3h  1 3.650000e-01    2.110000e+00
   SN4  TX4h  1 3.650000e-01    2.340000e+00
   SN4  TC1h  1 3.940000e-01    1.290000e+00
   SN4  TC2h  1 3.780000e-01    1.450000e+00
   SN4  TC3h  1 3.660000e-01    1.600000e+00
   SN4  TC4h  1 3.650000e-01    1.750000e+00
   SN4  TC5h  1 3.650000e-01    1.750000e+00
   SN4  TC6h  1 3.650000e-01    1.910000e+00
   SN4  TN1h  1 3.650000e-01    1.910000e+00
   SN4  TN2h  1 3.650000e-01    2.110000e+00
   SN4  TN3h  1 3.650000e-01    2.110000e+00
   SN4  TN4r  1 3.650000e-01    2.340000e+00
   SN4 TX1er  1 3.650000e-01    1.750000e+00
   SN4 TX2er  1 3.650000e-01    1.910000e+00
   SN4 TX3er  1 3.650000e-01    2.340000e+00
   SN4 TX4er  1 3.650000e-01    2.570000e+00
   SN4 TC1er  1 3.780000e-01    1.450000e+00
   SN4 TC2er  1 3.660000e-01    1.600000e+00
   SN4 TC3er  1 3.650000e-01    1.750000e+00
   SN4 TC4er  1 3.650000e-01    1.910000e+00
   SN4 TC5er  1 3.650000e-01    1.910000e+00
   SN4 TC6er  1 3.650000e-01    2.110000e+00
   SN4 TX1vr  1 3.650000e-01    1.750000e+00
   SN4 TX2vr  1 3.650000e-01    1.910000e+00
   SN4 TX3vr  1 3.650000e-01    2.340000e+00
   SN4 TX4vr  1 3.650000e-01    2.570000e+00
   SN4 TC1vr  1 3.780000e-01    1.450000e+00
   SN4 TC2vr  1 3.660000e-01    1.600000e+00
   SN4 TC3vr  1 3.650000e-01    1.750000e+00
   SN4 TC4vr  1 3.650000e-01    1.910000e+00
   SN4 TC5vr  1 3.650000e-01    1.910000e+00
   SN4 TC6vr  1 3.650000e-01    2.110000e+00
   SN4 TN1ar  1 3.650000e-01    1.910000e+00
   SN4 TN2ar  1 3.650000e-01    2.110000e+00
   SN4 TN3ar  1 3.650000e-01    2.110000e+00
   SN4 TN4ar  1 3.650000e-01    2.340000e+00
   SN4 TN1dr  1 3.650000e-01    1.910000e+00
   SN4 TN2dr  1 3.650000e-01    2.110000e+00
   SN4 TN3dr  1 3.650000e-01    2.110000e+00
   SN4 TN4dr  1 3.650000e-01    2.340000e+00
   SN4  TX1r  1 3.660000e-01    1.600000e+00
   SN4  TX2r  1 3.650000e-01    1.750000e+00
   SN4  TX3r  1 3.650000e-01    2.110000e+00
   SN4  TX4r  1 3.650000e-01    2.340000e+00
   SN4  TC1r  1 3.940000e-01    1.290000e+00
   SN4  TC2r  1 3.780000e-01    1.450000e+00
   SN4  TC3r  1 3.660000e-01    1.600000e+00
   SN4  TC4r  1 3.650000e-01    1.750000e+00
   SN4  TC5r  1 3.650000e-01    1.750000e+00
   SN4  TC6r  1 3.650000e-01    1.910000e+00
   SN4  TN1r  1 3.650000e-01    1.910000e+00
   SN4  TN2r  1 3.650000e-01    2.110000e+00
   SN4  TN3r  1 3.650000e-01    2.110000e+00
  TP6d   SN4  1 3.650000e-01    1.910000e+00
  TP5d   SN4  1 3.650000e-01    2.110000e+00
  TP4d   SN4  1 3.650000e-01    2.110000e+00
  TP3d   SN4  1 3.650000e-01    2.110000e+00
  TP2d   SN4  1 3.650000e-01    2.110000e+00
  TP1d   SN4  1 3.650000e-01    2.340000e+00
  TN6d   SN4  1 3.650000e-01    2.570000e+00
  TN5d   SN4  1 3.650000e-01    2.340000e+00
  TP6a   SN4  1 3.650000e-01    1.910000e+00
  TP5a   SN4  1 3.650000e-01    2.110000e+00
  TP4a   SN4  1 3.650000e-01    2.110000e+00
  TP3a   SN4  1 3.650000e-01    2.110000e+00
  TP2a   SN4  1 3.650000e-01    2.110000e+00
  TP1a   SN4  1 3.650000e-01    2.340000e+00
  TN6a   SN4  1 3.650000e-01    2.570000e+00
  TN5a   SN4  1 3.650000e-01    2.340000e+00
  TP6q   SN4  1 3.650000e-01    2.340000e+00
  TP5q   SN4  1 3.650000e-01    2.570000e+00
  TP4q   SN4  1 3.650000e-01    2.570000e+00
  TP3q   SN4  1 3.650000e-01    2.570000e+00
  TP2q   SN4  1 3.650000e-01    2.570000e+00
  TP1q   SN4  1 3.650000e-01    2.830000e+00
  TN6q   SN4  1 3.650000e-01    3.100000e+00
  TN5q   SN4  1 3.650000e-01    2.830000e+00
 TN5aq   SN4  1 3.650000e-01    2.830000e+00
 TN6aq   SN4  1 3.650000e-01    3.100000e+00
 TP1aq   SN4  1 3.650000e-01    2.830000e+00
 TP2aq   SN4  1 3.650000e-01    2.570000e+00
 TP3aq   SN4  1 3.650000e-01    2.570000e+00
 TP4aq   SN4  1 3.650000e-01    2.570000e+00
 TP5aq   SN4  1 3.650000e-01    2.570000e+00
 TP6aq   SN4  1 3.650000e-01    2.340000e+00
 TN5dq   SN4  1 3.650000e-01    2.830000e+00
 TN6dq   SN4  1 3.650000e-01    3.100000e+00
 TP1dq   SN4  1 3.650000e-01    2.830000e+00
 TP2dq   SN4  1 3.650000e-01    2.570000e+00
 TP3dq   SN4  1 3.650000e-01    2.570000e+00
 TP4dq   SN4  1 3.650000e-01    2.570000e+00
 TP5dq   SN4  1 3.650000e-01    2.570000e+00
 TP6dq   SN4  1 3.650000e-01    2.340000e+00
  TP6h   SN4  1 3.650000e-01    1.910000e+00
  TP5h   SN4  1 3.650000e-01    2.110000e+00
  TP4h   SN4  1 3.650000e-01    2.110000e+00
  TP3h   SN4  1 3.650000e-01    2.110000e+00
  TP2h   SN4  1 3.650000e-01    2.110000e+00
  TP1h   SN4  1 3.650000e-01    2.340000e+00
  TN6h   SN4  1 3.650000e-01    2.570000e+00
  TN5h   SN4  1 3.650000e-01    2.340000e+00
 TN5ah   SN4  1 3.650000e-01    2.340000e+00
 TN6ah   SN4  1 3.650000e-01    2.570000e+00
 TP1ah   SN4  1 3.650000e-01    2.340000e+00
 TP2ah   SN4  1 3.650000e-01    2.110000e+00
 TP3ah   SN4  1 3.650000e-01    2.110000e+00
 TP4ah   SN4  1 3.650000e-01    2.110000e+00
 TP5ah   SN4  1 3.650000e-01    2.110000e+00
 TP6ah   SN4  1 3.650000e-01    1.910000e+00
 TN5dh   SN4  1 3.650000e-01    2.340000e+00
 TN6dh   SN4  1 3.650000e-01    2.570000e+00
 TP1dh   SN4  1 3.650000e-01    2.340000e+00
 TP2dh   SN4  1 3.650000e-01    2.110000e+00
 TP3dh   SN4  1 3.650000e-01    2.110000e+00
 TP4dh   SN4  1 3.650000e-01    2.110000e+00
 TP5dh   SN4  1 3.650000e-01    2.110000e+00
 TP6dh   SN4  1 3.650000e-01    1.910000e+00
  TP6r   SN4  1 3.650000e-01    1.910000e+00
  TP5r   SN4  1 3.650000e-01    2.110000e+00
  TP4r   SN4  1 3.650000e-01    2.110000e+00
  TP3r   SN4  1 3.650000e-01    2.110000e+00
  TP2r   SN4  1 3.650000e-01    2.110000e+00
  TP1r   SN4  1 3.650000e-01    2.340000e+00
  TN6r   SN4  1 3.650000e-01    2.570000e+00
  TN5r   SN4  1 3.650000e-01    2.340000e+00
 TN5ar   SN4  1 3.650000e-01    2.340000e+00
 TN6ar   SN4  1 3.650000e-01    2.570000e+00
 TP1ar   SN4  1 3.650000e-01    2.340000e+00
 TP2ar   SN4  1 3.650000e-01    2.110000e+00
 TP3ar   SN4  1 3.650000e-01    2.110000e+00
 TP4ar   SN4  1 3.650000e-01    2.110000e+00
 TP5ar   SN4  1 3.650000e-01    2.110000e+00
 TP6ar   SN4  1 3.650000e-01    1.910000e+00
 TN5dr   SN4  1 3.650000e-01    2.340000e+00
 TN6dr   SN4  1 3.650000e-01    2.570000e+00
 TP1dr   SN4  1 3.650000e-01    2.340000e+00
 TP2dr   SN4  1 3.650000e-01    2.110000e+00
 TP3dr   SN4  1 3.650000e-01    2.110000e+00
 TP4dr   SN4  1 3.650000e-01    2.110000e+00
 TP5dr   SN4  1 3.650000e-01    2.110000e+00
 TP6dr   SN4  1 3.650000e-01    1.910000e+00
   P6d   TN4  1 3.950000e-01    2.310000e+00
   P5d   TN4  1 3.950000e-01    2.500000e+00
   P4d   TN4  1 3.950000e-01    2.500000e+00
   P3d   TN4  1 3.950000e-01    2.500000e+00
   P2d   TN4  1 3.950000e-01    2.500000e+00
   P1d   TN4  1 3.950000e-01    2.700000e+00
   N6d   TN4  1 3.950000e-01    2.940000e+00
   N5d   TN4  1 3.950000e-01    2.700000e+00
   P6a   TN4  1 3.950000e-01    2.310000e+00
   P5a   TN4  1 3.950000e-01    2.500000e+00
   P4a   TN4  1 3.950000e-01    2.500000e+00
   P3a   TN4  1 3.950000e-01    2.500000e+00
   P2a   TN4  1 3.950000e-01    2.500000e+00
   P1a   TN4  1 3.950000e-01    2.700000e+00
   N6a   TN4  1 3.950000e-01    2.940000e+00
   N5a   TN4  1 3.950000e-01    2.700000e+00
   P6q   TN4  1 3.950000e-01    2.700000e+00
   P5q   TN4  1 3.950000e-01    2.940000e+00
   P4q   TN4  1 3.950000e-01    2.940000e+00
   P3q   TN4  1 3.950000e-01    2.940000e+00
   P2q   TN4  1 3.950000e-01    2.940000e+00
   P1q   TN4  1 3.950000e-01    3.190000e+00
   N6q   TN4  1 3.950000e-01    3.430000e+00
   N5q   TN4  1 3.950000e-01    3.190000e+00
  N5aq   TN4  1 3.950000e-01    3.190000e+00
  N6aq   TN4  1 3.950000e-01    3.430000e+00
  P1aq   TN4  1 3.950000e-01    3.190000e+00
  P2aq   TN4  1 3.950000e-01    2.940000e+00
  P3aq   TN4  1 3.950000e-01    2.940000e+00
  P4aq   TN4  1 3.950000e-01    2.940000e+00
  P5aq   TN4  1 3.950000e-01    2.940000e+00
  P6aq   TN4  1 3.950000e-01    2.700000e+00
  N5dq   TN4  1 3.950000e-01    3.190000e+00
  N6dq   TN4  1 3.950000e-01    3.430000e+00
  P1dq   TN4  1 3.950000e-01    3.190000e+00
  P2dq   TN4  1 3.950000e-01    2.940000e+00
  P3dq   TN4  1 3.950000e-01    2.940000e+00
  P4dq   TN4  1 3.950000e-01    2.940000e+00
  P5dq   TN4  1 3.950000e-01    2.940000e+00
  P6dq   TN4  1 3.950000e-01    2.700000e+00
   P6h   TN4  1 3.950000e-01    2.310000e+00
   P5h   TN4  1 3.950000e-01    2.500000e+00
   P4h   TN4  1 3.950000e-01    2.500000e+00
   P3h   TN4  1 3.950000e-01    2.500000e+00
   P2h   TN4  1 3.950000e-01    2.500000e+00
   P1h   TN4  1 3.950000e-01    2.700000e+00
   N6h   TN4  1 3.950000e-01    2.940000e+00
   N5h   TN4  1 3.950000e-01    2.700000e+00
  N5ah   TN4  1 3.950000e-01    2.700000e+00
  N6ah   TN4  1 3.950000e-01    2.940000e+00
  P1ah   TN4  1 3.950000e-01    2.700000e+00
  P2ah   TN4  1 3.950000e-01    2.500000e+00
  P3ah   TN4  1 3.950000e-01    2.500000e+00
  P4ah   TN4  1 3.950000e-01    2.500000e+00
  P5ah   TN4  1 3.950000e-01    2.500000e+00
  P6ah   TN4  1 3.950000e-01    2.310000e+00
  N5dh   TN4  1 3.950000e-01    2.700000e+00
  N6dh   TN4  1 3.950000e-01    2.940000e+00
  P1dh   TN4  1 3.950000e-01    2.700000e+00
  P2dh   TN4  1 3.950000e-01    2.500000e+00
  P3dh   TN4  1 3.950000e-01    2.500000e+00
  P4dh   TN4  1 3.950000e-01    2.500000e+00
  P5dh   TN4  1 3.950000e-01    2.500000e+00
  P6dh   TN4  1 3.950000e-01    2.310000e+00
   P6r   TN4  1 3.950000e-01    2.310000e+00
   P5r   TN4  1 3.950000e-01    2.500000e+00
   P4r   TN4  1 3.950000e-01    2.500000e+00
   P3r   TN4  1 3.950000e-01    2.500000e+00
   P2r   TN4  1 3.950000e-01    2.500000e+00
   P1r   TN4  1 3.950000e-01    2.700000e+00
   N6r   TN4  1 3.950000e-01    2.940000e+00
   N5r   TN4  1 3.950000e-01    2.700000e+00
  N5ar   TN4  1 3.950000e-01    2.700000e+00
  N6ar   TN4  1 3.950000e-01    2.940000e+00
  P1ar   TN4  1 3.950000e-01    2.700000e+00
  P2ar   TN4  1 3.950000e-01    2.500000e+00
  P3ar   TN4  1 3.950000e-01    2.500000e+00
  P4ar   TN4  1 3.950000e-01    2.500000e+00
  P5ar   TN4  1 3.950000e-01    2.500000e+00
  P6ar   TN4  1 3.950000e-01    2.310000e+00
  N5dr   TN4  1 3.950000e-01    2.700000e+00
  N6dr   TN4  1 3.950000e-01    2.940000e+00
  P1dr   TN4  1 3.950000e-01    2.700000e+00
  P2dr   TN4  1 3.950000e-01    2.500000e+00
  P3dr   TN4  1 3.950000e-01    2.500000e+00
  P4dr   TN4  1 3.950000e-01    2.500000e+00
  P5dr   TN4  1 3.950000e-01    2.500000e+00
  P6dr   TN4  1 3.950000e-01    2.310000e+00
   TN4    N3  1 3.950000e-01    2.500000e+00
   TN4    N2  1 3.950000e-01    2.500000e+00
   TN4    N1  1 3.950000e-01    2.310000e+00
   TN4    C6  1 3.950000e-01    2.310000e+00
   TN4    C5  1 3.950000e-01    2.110000e+00
   TN4    C4  1 3.950000e-01    2.110000e+00
   TN4    C3  1 3.950000e-01    1.850000e+00
   TN4    C2  1 3.950000e-01    1.670000e+00
   TN4    C1  1 3.980000e-01    1.450000e+00
   TN4    X4  1 3.950000e-01    2.700000e+00
   TN4    X3  1 3.950000e-01    2.500000e+00
   TN4    X2  1 3.950000e-01    2.110000e+00
   TN4    X1  1 3.950000e-01    1.850000e+00
   TN4   N4d  1 3.950000e-01    2.700000e+00
   TN4   N1d  1 3.950000e-01    2.310000e+00
   TN4   N2d  1 3.950000e-01    2.500000e+00
   TN4   N3d  1 3.950000e-01    2.500000e+00
   TN4   N4a  1 3.950000e-01    2.700000e+00
   TN4   N1a  1 3.950000e-01    2.310000e+00
   TN4   N2a  1 3.950000e-01    2.500000e+00
   TN4   N3a  1 3.950000e-01    2.500000e+00
   TN4   C6v  1 3.950000e-01    2.500000e+00
   TN4   C5v  1 3.950000e-01    2.310000e+00
   TN4   C4v  1 3.950000e-01    2.310000e+00
   TN4   C3v  1 3.950000e-01    2.110000e+00
   TN4   C2v  1 3.950000e-01    1.850000e+00
   TN4   C1v  1 3.950000e-01    1.670000e+00
   TN4   X4v  1 3.950000e-01    2.940000e+00
   TN4   X3v  1 3.950000e-01    2.700000e+00
   TN4   X2v  1 3.950000e-01    2.310000e+00
   TN4   X1v  1 3.950000e-01    2.110000e+00
   TN4   C6e  1 3.950000e-01    2.500000e+00
   TN4   C5e  1 3.950000e-01    2.310000e+00
   TN4   C4e  1 3.950000e-01    2.310000e+00
   TN4   C3e  1 3.950000e-01    2.110000e+00
   TN4   C2e  1 3.950000e-01    1.850000e+00
   TN4   C1e  1 3.950000e-01    1.670000e+00
   TN4   X4e  1 3.950000e-01    2.940000e+00
   TN4   X3e  1 3.950000e-01    2.700000e+00
   TN4   X2e  1 3.950000e-01    2.310000e+00
   TN4   X1e  1 3.950000e-01    2.110000e+00
   TN4   N4q  1 3.950000e-01    3.190000e+00
   TN4  X1eq  1 3.950000e-01    2.500000e+00
   TN4  X2eq  1 3.950000e-01    2.700000e+00
   TN4  X3eq  1 3.950000e-01    3.190000e+00
   TN4  X4eq  1 3.950000e-01    3.430000e+00
   TN4  C1eq  1 3.950000e-01    2.110000e+00
   TN4  C2eq  1 3.950000e-01    2.310000e+00
   TN4  C3eq  1 3.950000e-01    2.500000e+00
   TN4  C4eq  1 3.950000e-01    2.700000e+00
   TN4  C5eq  1 3.950000e-01    2.700000e+00
   TN4  C6eq  1 3.950000e-01    2.940000e+00
   TN4  X1vq  1 3.950000e-01    2.500000e+00
   TN4  X2vq  1 3.950000e-01    2.700000e+00
   TN4  X3vq  1 3.950000e-01    3.190000e+00
   TN4  X4vq  1 3.950000e-01    3.430000e+00
   TN4  C1vq  1 3.950000e-01    2.110000e+00
   TN4  C2vq  1 3.950000e-01    2.310000e+00
   TN4  C3vq  1 3.950000e-01    2.500000e+00
   TN4  C4vq  1 3.950000e-01    2.700000e+00
   TN4  C5vq  1 3.950000e-01    2.700000e+00
   TN4  C6vq  1 3.950000e-01    2.940000e+00
   TN4  N1aq  1 3.950000e-01    2.700000e+00
   TN4  N2aq  1 3.950000e-01    2.940000e+00
   TN4  N3aq  1 3.950000e-01    2.940000e+00
   TN4  N4aq  1 3.950000e-01    3.190000e+00
   TN4  N1dq  1 3.950000e-01    2.700000e+00
   TN4  N2dq  1 3.950000e-01    2.940000e+00
   TN4  N3dq  1 3.950000e-01    2.940000e+00
   TN4  N4dq  1 3.950000e-01    3.190000e+00
   TN4   X1q  1 3.950000e-01    2.310000e+00
   TN4   X2q  1 3.950000e-01    2.500000e+00
   TN4   X3q  1 3.950000e-01    2.940000e+00
   TN4   X4q  1 3.950000e-01    3.190000e+00
   TN4   C1q  1 3.950000e-01    1.850000e+00
   TN4   C2q  1 3.950000e-01    2.110000e+00
   TN4   C3q  1 3.950000e-01    2.310000e+00
   TN4   C4q  1 3.950000e-01    2.500000e+00
   TN4   C5q  1 3.950000e-01    2.500000e+00
   TN4   C6q  1 3.950000e-01    2.700000e+00
   TN4   N1q  1 3.950000e-01    2.700000e+00
   TN4   N2q  1 3.950000e-01    2.940000e+00
   TN4   N3q  1 3.950000e-01    2.940000e+00
   TN4   N4h  1 3.950000e-01    2.700000e+00
   TN4  X1eh  1 3.950000e-01    2.110000e+00
   TN4  X2eh  1 3.950000e-01    2.310000e+00
   TN4  X3eh  1 3.950000e-01    2.700000e+00
   TN4  X4eh  1 3.950000e-01    2.940000e+00
   TN4  C1eh  1 3.950000e-01    1.670000e+00
   TN4  C2eh  1 3.950000e-01    1.850000e+00
   TN4  C3eh  1 3.950000e-01    2.110000e+00
   TN4  C4eh  1 3.950000e-01    2.310000e+00
   TN4  C5eh  1 3.950000e-01    2.310000e+00
   TN4  C6eh  1 3.950000e-01    2.500000e+00
   TN4  X1vh  1 3.950000e-01    2.110000e+00
   TN4  X2vh  1 3.950000e-01    2.310000e+00
   TN4  X3vh  1 3.950000e-01    2.700000e+00
   TN4  X4vh  1 3.950000e-01    2.940000e+00
   TN4  C1vh  1 3.950000e-01    1.670000e+00
   TN4  C2vh  1 3.950000e-01    1.850000e+00
   TN4  C3vh  1 3.950000e-01    2.110000e+00
   TN4  C4vh  1 3.950000e-01    2.310000e+00
   TN4  C5vh  1 3.950000e-01    2.310000e+00
   TN4  C6vh  1 3.950000e-01    2.500000e+00
   TN4  N1ah  1 3.950000e-01    2.310000e+00
   TN4  N2ah  1 3.950000e-01    2.500000e+00
   TN4  N3ah  1 3.950000e-01    2.500000e+00
   TN4  N4ah  1 3.950000e-01    2.700000e+00
   TN4  N1dh  1 3.950000e-01    2.310000e+00
   TN4  N2dh  1 3.950000e-01    2.500000e+00
   TN4  N3dh  1 3.950000e-01    2.500000e+00
   TN4  N4dh  1 3.950000e-01    2.700000e+00
   TN4   X1h  1 3.950000e-01    1.850000e+00
   TN4   X2h  1 3.950000e-01    2.110000e+00
   TN4   X3h  1 3.950000e-01    2.500000e+00
   TN4   X4h  1 3.950000e-01    2.700000e+00
   TN4   C1h  1 3.980000e-01    1.450000e+00
   TN4   C2h  1 3.950000e-01    1.670000e+00
   TN4   C3h  1 3.950000e-01    1.850000e+00
   TN4   C4h  1 3.950000e-01    2.110000e+00
   TN4   C5h  1 3.950000e-01    2.110000e+00
   TN4   C6h  1 3.950000e-01    2.310000e+00
   TN4   N1h  1 3.950000e-01    2.310000e+00
   TN4   N2h  1 3.950000e-01    2.500000e+00
   TN4   N3h  1 3.950000e-01    2.500000e+00
   TN4   N4r  1 3.950000e-01    2.700000e+00
   TN4  X1er  1 3.950000e-01    2.110000e+00
   TN4  X2er  1 3.950000e-01    2.310000e+00
   TN4  X3er  1 3.950000e-01    2.700000e+00
   TN4  X4er  1 3.950000e-01    2.940000e+00
   TN4  C1er  1 3.950000e-01    1.670000e+00
   TN4  C2er  1 3.950000e-01    1.850000e+00
   TN4  C3er  1 3.950000e-01    2.110000e+00
   TN4  C4er  1 3.950000e-01    2.310000e+00
   TN4  C5er  1 3.950000e-01    2.310000e+00
   TN4  C6er  1 3.950000e-01    2.500000e+00
   TN4  X1vr  1 3.950000e-01    2.110000e+00
   TN4  X2vr  1 3.950000e-01    2.310000e+00
   TN4  X3vr  1 3.950000e-01    2.700000e+00
   TN4  X4vr  1 3.950000e-01    2.940000e+00
   TN4  C1vr  1 3.950000e-01    1.670000e+00
   TN4  C2vr  1 3.950000e-01    1.850000e+00
   TN4  C3vr  1 3.950000e-01    2.110000e+00
   TN4  C4vr  1 3.950000e-01    2.310000e+00
   TN4  C5vr  1 3.950000e-01    2.310000e+00
   TN4  C6vr  1 3.950000e-01    2.500000e+00
   TN4  N1ar  1 3.950000e-01    2.310000e+00
   TN4  N2ar  1 3.950000e-01    2.500000e+00
   TN4  N3ar  1 3.950000e-01    2.500000e+00
   TN4  N4ar  1 3.950000e-01    2.700000e+00
   TN4  N1dr  1 3.950000e-01    2.310000e+00
   TN4  N2dr  1 3.950000e-01    2.500000e+00
   TN4  N3dr  1 3.950000e-01    2.500000e+00
   TN4  N4dr  1 3.950000e-01    2.700000e+00
   TN4   X1r  1 3.950000e-01    1.850000e+00
   TN4   X2r  1 3.950000e-01    2.110000e+00
   TN4   X3r  1 3.950000e-01    2.500000e+00
   TN4   X4r  1 3.950000e-01    2.700000e+00
   TN4   C1r  1 3.980000e-01    1.450000e+00
   TN4   C2r  1 3.950000e-01    1.670000e+00
   TN4   C3r  1 3.950000e-01    1.850000e+00
   TN4   C4r  1 3.950000e-01    2.110000e+00
   TN4   C5r  1 3.950000e-01    2.110000e+00
   TN4   C6r  1 3.950000e-01    2.310000e+00
   TN4   N1r  1 3.950000e-01    2.310000e+00
   TN4   N2r  1 3.950000e-01    2.500000e+00
   TN4   N3r  1 3.950000e-01    2.500000e+00
   TN4   TN4  1 3.400000e-01    2.020000e+00
   TN4   TN3  1 3.400000e-01    1.770000e+00
   TN4   TN2  1 3.400000e-01    1.770000e+00
   TN4   TN1  1 3.400000e-01    1.510000e+00
   TN4   TC6  1 3.400000e-01    1.510000e+00
   TN4   TC5  1 3.400000e-01    1.230000e+00
   TN4   TC4  1 3.400000e-01    1.230000e+00
   TN4   TC3  1 3.520000e-01    1.050000e+00
   TN4   TC2  1 3.660000e-01    9.350000e-01
   TN4   TC1  1 3.850000e-01    8.550000e-01
   TN4   TX4  1 3.400000e-01    2.020000e+00
   TN4   TX3  1 3.400000e-01    1.770000e+00
   TN4   TX2  1 3.400000e-01    1.230000e+00
   TN4   TX1  1 3.520000e-01    1.050000e+00
  TP6d   TN4  1 3.400000e-01    1.510000e+00
  TP5d   TN4  1 3.400000e-01    1.770000e+00
  TP4d   TN4  1 3.400000e-01    1.770000e+00
  TP3d   TN4  1 3.400000e-01    1.770000e+00
  TP2d   TN4  1 3.400000e-01    1.770000e+00
  TP1d   TN4  1 3.400000e-01    2.020000e+00
  TN6d   TN4  1 3.400000e-01    2.280000e+00
  TN5d   TN4  1 3.400000e-01    2.020000e+00
   TN4  TN4d  1 3.400000e-01    2.020000e+00
   TN4  TN1d  1 3.400000e-01    1.510000e+00
   TN4  TN2d  1 3.400000e-01    1.770000e+00
   TN4  TN3d  1 3.400000e-01    1.770000e+00
  TP6a   TN4  1 3.400000e-01    1.510000e+00
  TP5a   TN4  1 3.400000e-01    1.770000e+00
  TP4a   TN4  1 3.400000e-01    1.770000e+00
  TP3a   TN4  1 3.400000e-01    1.770000e+00
  TP2a   TN4  1 3.400000e-01    1.770000e+00
  TP1a   TN4  1 3.400000e-01    2.020000e+00
  TN6a   TN4  1 3.400000e-01    2.280000e+00
  TN5a   TN4  1 3.400000e-01    2.020000e+00
   TN4  TN4a  1 3.400000e-01    2.020000e+00
   TN4  TN1a  1 3.400000e-01    1.510000e+00
   TN4  TN2a  1 3.400000e-01    1.770000e+00
   TN4  TN3a  1 3.400000e-01    1.770000e+00
   TN4  TC6v  1 3.400000e-01    1.770000e+00
   TN4  TC5v  1 3.400000e-01    1.510000e+00
   TN4  TC4v  1 3.400000e-01    1.510000e+00
   TN4  TC3v  1 3.400000e-01    1.230000e+00
   TN4  TC2v  1 3.520000e-01    1.050000e+00
   TN4  TC1v  1 3.660000e-01    9.350000e-01
   TN4  TX4v  1 3.400000e-01    2.280000e+00
   TN4  TX3v  1 3.400000e-01    2.020000e+00
   TN4  TX2v  1 3.400000e-01    1.510000e+00
   TN4  TX1v  1 3.400000e-01    1.230000e+00
   TN4  TC6e  1 3.400000e-01    1.770000e+00
   TN4  TC5e  1 3.400000e-01    1.510000e+00
   TN4  TC4e  1 3.400000e-01    1.510000e+00
   TN4  TC3e  1 3.400000e-01    1.230000e+00
   TN4  TC2e  1 3.520000e-01    1.050000e+00
   TN4  TC1e  1 3.660000e-01    9.350000e-01
   TN4  TX4e  1 3.400000e-01    2.280000e+00
   TN4  TX3e  1 3.400000e-01    2.020000e+00
   TN4  TX2e  1 3.400000e-01    1.510000e+00
   TN4  TX1e  1 3.400000e-01    1.230000e+00
  TP6q   TN4  1 3.400000e-01    2.020000e+00
  TP5q   TN4  1 3.400000e-01    2.280000e+00
  TP4q   TN4  1 3.400000e-01    2.280000e+00
  TP3q   TN4  1 3.400000e-01    2.280000e+00
  TP2q   TN4  1 3.400000e-01    2.280000e+00
  TP1q   TN4  1 3.400000e-01    2.500000e+00
  TN6q   TN4  1 3.400000e-01    2.740000e+00
  TN5q   TN4  1 3.400000e-01    2.500000e+00
   TN4  TN4q  1 3.400000e-01    2.500000e+00
   TN4 TX1eq  1 3.400000e-01    1.770000e+00
   TN4 TX2eq  1 3.400000e-01    2.020000e+00
   TN4 TX3eq  1 3.400000e-01    2.500000e+00
   TN4 TX4eq  1 3.400000e-01    2.740000e+00
   TN4 TC1eq  1 3.400000e-01    1.230000e+00
   TN4 TC2eq  1 3.400000e-01    1.510000e+00
   TN4 TC3eq  1 3.400000e-01    1.770000e+00
   TN4 TC4eq  1 3.400000e-01    2.020000e+00
   TN4 TC5eq  1 3.400000e-01    2.020000e+00
   TN4 TC6eq  1 3.400000e-01    2.280000e+00
   TN4 TX1vq  1 3.400000e-01    1.770000e+00
   TN4 TX2vq  1 3.400000e-01    2.020000e+00
   TN4 TX3vq  1 3.400000e-01    2.500000e+00
   TN4 TX4vq  1 3.400000e-01    2.740000e+00
   TN4 TC1vq  1 3.400000e-01    1.230000e+00
   TN4 TC2vq  1 3.400000e-01    1.510000e+00
   TN4 TC3vq  1 3.400000e-01    1.770000e+00
   TN4 TC4vq  1 3.400000e-01    2.020000e+00
   TN4 TC5vq  1 3.400000e-01    2.020000e+00
   TN4 TC6vq  1 3.400000e-01    2.280000e+00
   TN4 TN1aq  1 3.400000e-01    2.020000e+00
   TN4 TN2aq  1 3.400000e-01    2.280000e+00
   TN4 TN3aq  1 3.400000e-01    2.280000e+00
   TN4 TN4aq  1 3.400000e-01    2.500000e+00
 TN5aq   TN4  1 3.400000e-01    2.500000e+00
 TN6aq   TN4  1 3.400000e-01    2.740000e+00
 TP1aq   TN4  1 3.400000e-01    2.500000e+00
 TP2aq   TN4  1 3.400000e-01    2.280000e+00
 TP3aq   TN4  1 3.400000e-01    2.280000e+00
 TP4aq   TN4  1 3.400000e-01    2.280000e+00
 TP5aq   TN4  1 3.400000e-01    2.280000e+00
 TP6aq   TN4  1 3.400000e-01    2.020000e+00
   TN4 TN1dq  1 3.400000e-01    2.020000e+00
   TN4 TN2dq  1 3.400000e-01    2.280000e+00
   TN4 TN3dq  1 3.400000e-01    2.280000e+00
   TN4 TN4dq  1 3.400000e-01    2.500000e+00
 TN5dq   TN4  1 3.400000e-01    2.500000e+00
 TN6dq   TN4  1 3.400000e-01    2.740000e+00
 TP1dq   TN4  1 3.400000e-01    2.500000e+00
 TP2dq   TN4  1 3.400000e-01    2.280000e+00
 TP3dq   TN4  1 3.400000e-01    2.280000e+00
 TP4dq   TN4  1 3.400000e-01    2.280000e+00
 TP5dq   TN4  1 3.400000e-01    2.280000e+00
 TP6dq   TN4  1 3.400000e-01    2.020000e+00
   TN4  TX1q  1 3.400000e-01    1.510000e+00
   TN4  TX2q  1 3.400000e-01    1.770000e+00
   TN4  TX3q  1 3.400000e-01    2.280000e+00
   TN4  TX4q  1 3.400000e-01    2.500000e+00
   TN4  TC1q  1 3.520000e-01    1.050000e+00
   TN4  TC2q  1 3.400000e-01    1.230000e+00
   TN4  TC3q  1 3.400000e-01    1.510000e+00
   TN4  TC4q  1 3.400000e-01    1.770000e+00
   TN4  TC5q  1 3.400000e-01    1.770000e+00
   TN4  TC6q  1 3.400000e-01    2.020000e+00
   TN4  TN1q  1 3.400000e-01    2.020000e+00
   TN4  TN2q  1 3.400000e-01    2.280000e+00
   TN4  TN3q  1 3.400000e-01    2.280000e+00
  TP6h   TN4  1 3.400000e-01    1.510000e+00
  TP5h   TN4  1 3.400000e-01    1.770000e+00
  TP4h   TN4  1 3.400000e-01    1.770000e+00
  TP3h   TN4  1 3.400000e-01    1.770000e+00
  TP2h   TN4  1 3.400000e-01    1.770000e+00
  TP1h   TN4  1 3.400000e-01    2.020000e+00
  TN6h   TN4  1 3.400000e-01    2.280000e+00
  TN5h   TN4  1 3.400000e-01    2.020000e+00
   TN4  TN4h  1 3.400000e-01    2.020000e+00
   TN4 TX1eh  1 3.400000e-01    1.230000e+00
   TN4 TX2eh  1 3.400000e-01    1.510000e+00
   TN4 TX3eh  1 3.400000e-01    2.020000e+00
   TN4 TX4eh  1 3.400000e-01    2.280000e+00
   TN4 TC1eh  1 3.660000e-01    9.350000e-01
   TN4 TC2eh  1 3.520000e-01    1.050000e+00
   TN4 TC3eh  1 3.400000e-01    1.230000e+00
   TN4 TC4eh  1 3.400000e-01    1.510000e+00
   TN4 TC5eh  1 3.400000e-01    1.510000e+00
   TN4 TC6eh  1 3.400000e-01    1.770000e+00
   TN4 TX1vh  1 3.400000e-01    1.230000e+00
   TN4 TX2vh  1 3.400000e-01    1.510000e+00
   TN4 TX3vh  1 3.400000e-01    2.020000e+00
   TN4 TX4vh  1 3.400000e-01    2.280000e+00
   TN4 TC1vh  1 3.660000e-01    9.350000e-01
   TN4 TC2vh  1 3.520000e-01    1.050000e+00
   TN4 TC3vh  1 3.400000e-01    1.230000e+00
   TN4 TC4vh  1 3.400000e-01    1.510000e+00
   TN4 TC5vh  1 3.400000e-01    1.510000e+00
   TN4 TC6vh  1 3.400000e-01    1.770000e+00
   TN4 TN1ah  1 3.400000e-01    1.510000e+00
   TN4 TN2ah  1 3.400000e-01    1.770000e+00
   TN4 TN3ah  1 3.400000e-01    1.770000e+00
   TN4 TN4ah  1 3.400000e-01    2.020000e+00
 TN5ah   TN4  1 3.400000e-01    2.020000e+00
 TN6ah   TN4  1 3.400000e-01    2.280000e+00
 TP1ah   TN4  1 3.400000e-01    2.020000e+00
 TP2ah   TN4  1 3.400000e-01    1.770000e+00
 TP3ah   TN4  1 3.400000e-01    1.770000e+00
 TP4ah   TN4  1 3.400000e-01    1.770000e+00
 TP5ah   TN4  1 3.400000e-01    1.770000e+00
 TP6ah   TN4  1 3.400000e-01    1.510000e+00
   TN4 TN1dh  1 3.400000e-01    1.510000e+00
   TN4 TN2dh  1 3.400000e-01    1.770000e+00
   TN4 TN3dh  1 3.400000e-01    1.770000e+00
   TN4 TN4dh  1 3.400000e-01    2.020000e+00
 TN5dh   TN4  1 3.400000e-01    2.020000e+00
 TN6dh   TN4  1 3.400000e-01    2.280000e+00
 TP1dh   TN4  1 3.400000e-01    2.020000e+00
 TP2dh   TN4  1 3.400000e-01    1.770000e+00
 TP3dh   TN4  1 3.400000e-01    1.770000e+00
 TP4dh   TN4  1 3.400000e-01    1.770000e+00
 TP5dh   TN4  1 3.400000e-01    1.770000e+00
 TP6dh   TN4  1 3.400000e-01    1.510000e+00
   TN4  TX1h  1 3.520000e-01    1.050000e+00
   TN4  TX2h  1 3.400000e-01    1.230000e+00
   TN4  TX3h  1 3.400000e-01    1.770000e+00
   TN4  TX4h  1 3.400000e-01    2.020000e+00
   TN4  TC1h  1 3.850000e-01    8.550000e-01
   TN4  TC2h  1 3.660000e-01    9.350000e-01
   TN4  TC3h  1 3.520000e-01    1.050000e+00
   TN4  TC4h  1 3.400000e-01    1.230000e+00
   TN4  TC5h  1 3.400000e-01    1.230000e+00
   TN4  TC6h  1 3.400000e-01    1.510000e+00
   TN4  TN1h  1 3.400000e-01    1.510000e+00
   TN4  TN2h  1 3.400000e-01    1.770000e+00
   TN4  TN3h  1 3.400000e-01    1.770000e+00
  TP6r   TN4  1 3.400000e-01    1.510000e+00
  TP5r   TN4  1 3.400000e-01    1.770000e+00
  TP4r   TN4  1 3.400000e-01    1.770000e+00
  TP3r   TN4  1 3.400000e-01    1.770000e+00
  TP2r   TN4  1 3.400000e-01    1.770000e+00
  TP1r   TN4  1 3.400000e-01    2.020000e+00
  TN6r   TN4  1 3.400000e-01    2.280000e+00
  TN5r   TN4  1 3.400000e-01    2.020000e+00
   TN4  TN4r  1 3.400000e-01    2.020000e+00
   TN4 TX1er  1 3.400000e-01    1.230000e+00
   TN4 TX2er  1 3.400000e-01    1.510000e+00
   TN4 TX3er  1 3.400000e-01    2.020000e+00
   TN4 TX4er  1 3.400000e-01    2.280000e+00
   TN4 TC1er  1 3.660000e-01    9.350000e-01
   TN4 TC2er  1 3.520000e-01    1.050000e+00
   TN4 TC3er  1 3.400000e-01    1.230000e+00
   TN4 TC4er  1 3.400000e-01    1.510000e+00
   TN4 TC5er  1 3.400000e-01    1.510000e+00
   TN4 TC6er  1 3.400000e-01    1.770000e+00
   TN4 TX1vr  1 3.400000e-01    1.230000e+00
   TN4 TX2vr  1 3.400000e-01    1.510000e+00
   TN4 TX3vr  1 3.400000e-01    2.020000e+00
   TN4 TX4vr  1 3.400000e-01    2.280000e+00
   TN4 TC1vr  1 3.660000e-01    9.350000e-01
   TN4 TC2vr  1 3.520000e-01    1.050000e+00
   TN4 TC3vr  1 3.400000e-01    1.230000e+00
   TN4 TC4vr  1 3.400000e-01    1.510000e+00
   TN4 TC5vr  1 3.400000e-01    1.510000e+00
   TN4 TC6vr  1 3.400000e-01    1.770000e+00
   TN4 TN1ar  1 3.400000e-01    1.510000e+00
   TN4 TN2ar  1 3.400000e-01    1.770000e+00
   TN4 TN3ar  1 3.400000e-01    1.770000e+00
   TN4 TN4ar  1 3.400000e-01    2.020000e+00
 TN5ar   TN4  1 3.400000e-01    2.020000e+00
 TN6ar   TN4  1 3.400000e-01    2.280000e+00
 TP1ar   TN4  1 3.400000e-01    2.020000e+00
 TP2ar   TN4  1 3.400000e-01    1.770000e+00
 TP3ar   TN4  1 3.400000e-01    1.770000e+00
 TP4ar   TN4  1 3.400000e-01    1.770000e+00
 TP5ar   TN4  1 3.400000e-01    1.770000e+00
 TP6ar   TN4  1 3.400000e-01    1.510000e+00
   TN4 TN1dr  1 3.400000e-01    1.510000e+00
   TN4 TN2dr  1 3.400000e-01    1.770000e+00
   TN4 TN3dr  1 3.400000e-01    1.770000e+00
   TN4 TN4dr  1 3.400000e-01    2.020000e+00
 TN5dr   TN4  1 3.400000e-01    2.020000e+00
 TN6dr   TN4  1 3.400000e-01    2.280000e+00
 TP1dr   TN4  1 3.400000e-01    2.020000e+00
 TP2dr   TN4  1 3.400000e-01    1.770000e+00
 TP3dr   TN4  1 3.400000e-01    1.770000e+00
 TP4dr   TN4  1 3.400000e-01    1.770000e+00
 TP5dr   TN4  1 3.400000e-01    1.770000e+00
 TP6dr   TN4  1 3.400000e-01    1.510000e+00
   TN4  TX1r  1 3.520000e-01    1.050000e+00
   TN4  TX2r  1 3.400000e-01    1.230000e+00
   TN4  TX3r  1 3.400000e-01    1.770000e+00
   TN4  TX4r  1 3.400000e-01    2.020000e+00
   TN4  TC1r  1 3.850000e-01    8.550000e-01
   TN4  TC2r  1 3.660000e-01    9.350000e-01
   TN4  TC3r  1 3.520000e-01    1.050000e+00
   TN4  TC4r  1 3.400000e-01    1.230000e+00
   TN4  TC5r  1 3.400000e-01    1.230000e+00
   TN4  TC6r  1 3.400000e-01    1.510000e+00
   TN4  TN1r  1 3.400000e-01    1.510000e+00
   TN4  TN2r  1 3.400000e-01    1.770000e+00
   TN4  TN3r  1 3.400000e-01    1.770000e+00
  SP6d   TN4  1 3.650000e-01    1.910000e+00
  SP5d   TN4  1 3.650000e-01    2.110000e+00
  SP4d   TN4  1 3.650000e-01    2.110000e+00
  SP3d   TN4  1 3.650000e-01    2.110000e+00
  SP2d   TN4  1 3.650000e-01    2.110000e+00
  SP1d   TN4  1 3.650000e-01    2.340000e+00
  SN6d   TN4  1 3.650000e-01    2.570000e+00
  SN5d   TN4  1 3.650000e-01    2.340000e+00
  SP6a   TN4  1 3.650000e-01    1.910000e+00
  SP5a   TN4  1 3.650000e-01    2.110000e+00
  SP4a   TN4  1 3.650000e-01    2.110000e+00
  SP3a   TN4  1 3.650000e-01    2.110000e+00
  SP2a   TN4  1 3.650000e-01    2.110000e+00
  SP1a   TN4  1 3.650000e-01    2.340000e+00
  SN6a   TN4  1 3.650000e-01    2.570000e+00
  SN5a   TN4  1 3.650000e-01    2.340000e+00
  SP6q   TN4  1 3.650000e-01    2.340000e+00
  SP5q   TN4  1 3.650000e-01    2.570000e+00
  SP4q   TN4  1 3.650000e-01    2.570000e+00
  SP3q   TN4  1 3.650000e-01    2.570000e+00
  SP2q   TN4  1 3.650000e-01    2.570000e+00
  SP1q   TN4  1 3.650000e-01    2.830000e+00
  SN6q   TN4  1 3.650000e-01    3.100000e+00
  SN5q   TN4  1 3.650000e-01    2.830000e+00
 SN5aq   TN4  1 3.650000e-01    2.830000e+00
 SN6aq   TN4  1 3.650000e-01    3.100000e+00
 SP1aq   TN4  1 3.650000e-01    2.830000e+00
 SP2aq   TN4  1 3.650000e-01    2.570000e+00
 SP3aq   TN4  1 3.650000e-01    2.570000e+00
 SP4aq   TN4  1 3.650000e-01    2.570000e+00
 SP5aq   TN4  1 3.650000e-01    2.570000e+00
 SP6aq   TN4  1 3.650000e-01    2.340000e+00
 SN5dq   TN4  1 3.650000e-01    2.830000e+00
 SN6dq   TN4  1 3.650000e-01    3.100000e+00
 SP1dq   TN4  1 3.650000e-01    2.830000e+00
 SP2dq   TN4  1 3.650000e-01    2.570000e+00
 SP3dq   TN4  1 3.650000e-01    2.570000e+00
 SP4dq   TN4  1 3.650000e-01    2.570000e+00
 SP5dq   TN4  1 3.650000e-01    2.570000e+00
 SP6dq   TN4  1 3.650000e-01    2.340000e+00
  SP6h   TN4  1 3.650000e-01    1.910000e+00
  SP5h   TN4  1 3.650000e-01    2.110000e+00
  SP4h   TN4  1 3.650000e-01    2.110000e+00
  SP3h   TN4  1 3.650000e-01    2.110000e+00
  SP2h   TN4  1 3.650000e-01    2.110000e+00
  SP1h   TN4  1 3.650000e-01    2.340000e+00
  SN6h   TN4  1 3.650000e-01    2.570000e+00
  SN5h   TN4  1 3.650000e-01    2.340000e+00
 SN5ah   TN4  1 3.650000e-01    2.340000e+00
 SN6ah   TN4  1 3.650000e-01    2.570000e+00
 SP1ah   TN4  1 3.650000e-01    2.340000e+00
 SP2ah   TN4  1 3.650000e-01    2.110000e+00
 SP3ah   TN4  1 3.650000e-01    2.110000e+00
 SP4ah   TN4  1 3.650000e-01    2.110000e+00
 SP5ah   TN4  1 3.650000e-01    2.110000e+00
 SP6ah   TN4  1 3.650000e-01    1.910000e+00
 SN5dh   TN4  1 3.650000e-01    2.340000e+00
 SN6dh   TN4  1 3.650000e-01    2.570000e+00
 SP1dh   TN4  1 3.650000e-01    2.340000e+00
 SP2dh   TN4  1 3.650000e-01    2.110000e+00
 SP3dh   TN4  1 3.650000e-01    2.110000e+00
 SP4dh   TN4  1 3.650000e-01    2.110000e+00
 SP5dh   TN4  1 3.650000e-01    2.110000e+00
 SP6dh   TN4  1 3.650000e-01    1.910000e+00
  SP6r   TN4  1 3.650000e-01    1.910000e+00
  SP5r   TN4  1 3.650000e-01    2.110000e+00
  SP4r   TN4  1 3.650000e-01    2.110000e+00
  SP3r   TN4  1 3.650000e-01    2.110000e+00
  SP2r   TN4  1 3.650000e-01    2.110000e+00
  SP1r   TN4  1 3.650000e-01    2.340000e+00
  SN6r   TN4  1 3.650000e-01    2.570000e+00
  SN5r   TN4  1 3.650000e-01    2.340000e+00
 SN5ar   TN4  1 3.650000e-01    2.340000e+00
 SN6ar   TN4  1 3.650000e-01    2.570000e+00
 SP1ar   TN4  1 3.650000e-01    2.340000e+00
 SP2ar   TN4  1 3.650000e-01    2.110000e+00
 SP3ar   TN4  1 3.650000e-01    2.110000e+00
 SP4ar   TN4  1 3.650000e-01    2.110000e+00
 SP5ar   TN4  1 3.650000e-01    2.110000e+00
 SP6ar   TN4  1 3.650000e-01    1.910000e+00
 SN5dr   TN4  1 3.650000e-01    2.340000e+00
 SN6dr   TN4  1 3.650000e-01    2.570000e+00
 SP1dr   TN4  1 3.650000e-01    2.340000e+00
 SP2dr   TN4  1 3.650000e-01    2.110000e+00
 SP3dr   TN4  1 3.650000e-01    2.110000e+00
 SP4dr   TN4  1 3.650000e-01    2.110000e+00
 SP5dr   TN4  1 3.650000e-01    2.110000e+00
 SP6dr   TN4  1 3.650000e-01    1.910000e+00
   TN4   SN3  1 3.650000e-01    2.110000e+00
   TN4   SN2  1 3.650000e-01    2.110000e+00
   TN4   SN1  1 3.650000e-01    1.910000e+00
   TN4   SC6  1 3.650000e-01    1.910000e+00
   TN4   SC5  1 3.650000e-01    1.750000e+00
   TN4   SC4  1 3.650000e-01    1.750000e+00
   TN4   SC3  1 3.660000e-01    1.600000e+00
   TN4   SC2  1 3.780000e-01    1.450000e+00
   TN4   SC1  1 3.940000e-01    1.290000e+00
   TN4   SX4  1 3.650000e-01    2.340000e+00
   TN4   SX3  1 3.650000e-01    2.110000e+00
   TN4   SX2  1 3.650000e-01    1.750000e+00
   TN4   SX1  1 3.660000e-01    1.600000e+00
   TN4  SN4d  1 3.650000e-01    2.340000e+00
   TN4  SN1d  1 3.650000e-01    1.910000e+00
   TN4  SN2d  1 3.650000e-01    2.110000e+00
   TN4  SN3d  1 3.650000e-01    2.110000e+00
   TN4  SN4a  1 3.650000e-01    2.340000e+00
   TN4  SN1a  1 3.650000e-01    1.910000e+00
   TN4  SN2a  1 3.650000e-01    2.110000e+00
   TN4  SN3a  1 3.650000e-01    2.110000e+00
   TN4  SC6v  1 3.650000e-01    2.110000e+00
   TN4  SC5v  1 3.650000e-01    1.910000e+00
   TN4  SC4v  1 3.650000e-01    1.910000e+00
   TN4  SC3v  1 3.650000e-01    1.750000e+00
   TN4  SC2v  1 3.660000e-01    1.600000e+00
   TN4  SC1v  1 3.780000e-01    1.450000e+00
   TN4  SX4v  1 3.650000e-01    2.570000e+00
   TN4  SX3v  1 3.650000e-01    2.340000e+00
   TN4  SX2v  1 3.650000e-01    1.910000e+00
   TN4  SX1v  1 3.650000e-01    1.750000e+00
   TN4  SC6e  1 3.650000e-01    2.110000e+00
   TN4  SC5e  1 3.650000e-01    1.910000e+00
   TN4  SC4e  1 3.650000e-01    1.910000e+00
   TN4  SC3e  1 3.650000e-01    1.750000e+00
   TN4  SC2e  1 3.660000e-01    1.600000e+00
   TN4  SC1e  1 3.780000e-01    1.450000e+00
   TN4  SX4e  1 3.650000e-01    2.570000e+00
   TN4  SX3e  1 3.650000e-01    2.340000e+00
   TN4  SX2e  1 3.650000e-01    1.910000e+00
   TN4  SX1e  1 3.650000e-01    1.750000e+00
   TN4  SN4q  1 3.650000e-01    2.830000e+00
   TN4 SX1eq  1 3.650000e-01    2.110000e+00
   TN4 SX2eq  1 3.650000e-01    2.340000e+00
   TN4 SX3eq  1 3.650000e-01    2.830000e+00
   TN4 SX4eq  1 3.650000e-01    3.100000e+00
   TN4 SC1eq  1 3.650000e-01    1.750000e+00
   TN4 SC2eq  1 3.650000e-01    1.910000e+00
   TN4 SC3eq  1 3.650000e-01    2.110000e+00
   TN4 SC4eq  1 3.650000e-01    2.340000e+00
   TN4 SC5eq  1 3.650000e-01    2.340000e+00
   TN4 SC6eq  1 3.650000e-01    2.570000e+00
   TN4 SX1vq  1 3.650000e-01    2.110000e+00
   TN4 SX2vq  1 3.650000e-01    2.340000e+00
   TN4 SX3vq  1 3.650000e-01    2.830000e+00
   TN4 SX4vq  1 3.650000e-01    3.100000e+00
   TN4 SC1vq  1 3.650000e-01    1.750000e+00
   TN4 SC2vq  1 3.650000e-01    1.910000e+00
   TN4 SC3vq  1 3.650000e-01    2.110000e+00
   TN4 SC4vq  1 3.650000e-01    2.340000e+00
   TN4 SC5vq  1 3.650000e-01    2.340000e+00
   TN4 SC6vq  1 3.650000e-01    2.570000e+00
   TN4 SN1aq  1 3.650000e-01    2.340000e+00
   TN4 SN2aq  1 3.650000e-01    2.570000e+00
   TN4 SN3aq  1 3.650000e-01    2.570000e+00
   TN4 SN4aq  1 3.650000e-01    2.830000e+00
   TN4 SN1dq  1 3.650000e-01    2.340000e+00
   TN4 SN2dq  1 3.650000e-01    2.570000e+00
   TN4 SN3dq  1 3.650000e-01    2.570000e+00
   TN4 SN4dq  1 3.650000e-01    2.830000e+00
   TN4  SX1q  1 3.650000e-01    1.910000e+00
   TN4  SX2q  1 3.650000e-01    2.110000e+00
   TN4  SX3q  1 3.650000e-01    2.570000e+00
   TN4  SX4q  1 3.650000e-01    2.830000e+00
   TN4  SC1q  1 3.660000e-01    1.600000e+00
   TN4  SC2q  1 3.650000e-01    1.750000e+00
   TN4  SC3q  1 3.650000e-01    1.910000e+00
   TN4  SC4q  1 3.650000e-01    2.110000e+00
   TN4  SC5q  1 3.650000e-01    2.110000e+00
   TN4  SC6q  1 3.650000e-01    2.340000e+00
   TN4  SN1q  1 3.650000e-01    2.340000e+00
   TN4  SN2q  1 3.650000e-01    2.570000e+00
   TN4  SN3q  1 3.650000e-01    2.570000e+00
   TN4  SN4h  1 3.650000e-01    2.340000e+00
   TN4 SX1eh  1 3.650000e-01    1.750000e+00
   TN4 SX2eh  1 3.650000e-01    1.910000e+00
   TN4 SX3eh  1 3.650000e-01    2.340000e+00
   TN4 SX4eh  1 3.650000e-01    2.570000e+00
   TN4 SC1eh  1 3.780000e-01    1.450000e+00
   TN4 SC2eh  1 3.660000e-01    1.600000e+00
   TN4 SC3eh  1 3.650000e-01    1.750000e+00
   TN4 SC4eh  1 3.650000e-01    1.910000e+00
   TN4 SC5eh  1 3.650000e-01    1.910000e+00
   TN4 SC6eh  1 3.650000e-01    2.110000e+00
   TN4 SX1vh  1 3.650000e-01    1.750000e+00
   TN4 SX2vh  1 3.650000e-01    1.910000e+00
   TN4 SX3vh  1 3.650000e-01    2.340000e+00
   TN4 SX4vh  1 3.650000e-01    2.570000e+00
   TN4 SC1vh  1 3.780000e-01    1.450000e+00
   TN4 SC2vh  1 3.660000e-01    1.600000e+00
   TN4 SC3vh  1 3.650000e-01    1.750000e+00
   TN4 SC4vh  1 3.650000e-01    1.910000e+00
   TN4 SC5vh  1 3.650000e-01    1.910000e+00
   TN4 SC6vh  1 3.650000e-01    2.110000e+00
   TN4 SN1ah  1 3.650000e-01    1.910000e+00
   TN4 SN2ah  1 3.650000e-01    2.110000e+00
   TN4 SN3ah  1 3.650000e-01    2.110000e+00
   TN4 SN4ah  1 3.650000e-01    2.340000e+00
   TN4 SN1dh  1 3.650000e-01    1.910000e+00
   TN4 SN2dh  1 3.650000e-01    2.110000e+00
   TN4 SN3dh  1 3.650000e-01    2.110000e+00
   TN4 SN4dh  1 3.650000e-01    2.340000e+00
   TN4  SX1h  1 3.660000e-01    1.600000e+00
   TN4  SX2h  1 3.650000e-01    1.750000e+00
   TN4  SX3h  1 3.650000e-01    2.110000e+00
   TN4  SX4h  1 3.650000e-01    2.340000e+00
   TN4  SC1h  1 3.940000e-01    1.290000e+00
   TN4  SC2h  1 3.780000e-01    1.450000e+00
   TN4  SC3h  1 3.660000e-01    1.600000e+00
   TN4  SC4h  1 3.650000e-01    1.750000e+00
   TN4  SC5h  1 3.650000e-01    1.750000e+00
   TN4  SC6h  1 3.650000e-01    1.910000e+00
   TN4  SN1h  1 3.650000e-01    1.910000e+00
   TN4  SN2h  1 3.650000e-01    2.110000e+00
   TN4  SN3h  1 3.650000e-01    2.110000e+00
   TN4  SN4r  1 3.650000e-01    2.340000e+00
   TN4 SX1er  1 3.650000e-01    1.750000e+00
   TN4 SX2er  1 3.650000e-01    1.910000e+00
   TN4 SX3er  1 3.650000e-01    2.340000e+00
   TN4 SX4er  1 3.650000e-01    2.570000e+00
   TN4 SC1er  1 3.780000e-01    1.450000e+00
   TN4 SC2er  1 3.660000e-01    1.600000e+00
   TN4 SC3er  1 3.650000e-01    1.750000e+00
   TN4 SC4er  1 3.650000e-01    1.910000e+00
   TN4 SC5er  1 3.650000e-01    1.910000e+00
   TN4 SC6er  1 3.650000e-01    2.110000e+00
   TN4 SX1vr  1 3.650000e-01    1.750000e+00
   TN4 SX2vr  1 3.650000e-01    1.910000e+00
   TN4 SX3vr  1 3.650000e-01    2.340000e+00
   TN4 SX4vr  1 3.650000e-01    2.570000e+00
   TN4 SC1vr  1 3.780000e-01    1.450000e+00
   TN4 SC2vr  1 3.660000e-01    1.600000e+00
   TN4 SC3vr  1 3.650000e-01    1.750000e+00
   TN4 SC4vr  1 3.650000e-01    1.910000e+00
   TN4 SC5vr  1 3.650000e-01    1.910000e+00
   TN4 SC6vr  1 3.650000e-01    2.110000e+00
   TN4 SN1ar  1 3.650000e-01    1.910000e+00
   TN4 SN2ar  1 3.650000e-01    2.110000e+00
   TN4 SN3ar  1 3.650000e-01    2.110000e+00
   TN4 SN4ar  1 3.650000e-01    2.340000e+00
   TN4 SN1dr  1 3.650000e-01    1.910000e+00
   TN4 SN2dr  1 3.650000e-01    2.110000e+00
   TN4 SN3dr  1 3.650000e-01    2.110000e+00
   TN4 SN4dr  1 3.650000e-01    2.340000e+00
   TN4  SX1r  1 3.660000e-01    1.600000e+00
   TN4  SX2r  1 3.650000e-01    1.750000e+00
   TN4  SX3r  1 3.650000e-01    2.110000e+00
   TN4  SX4r  1 3.650000e-01    2.340000e+00
   TN4  SC1r  1 3.940000e-01    1.290000e+00
   TN4  SC2r  1 3.780000e-01    1.450000e+00
   TN4  SC3r  1 3.660000e-01    1.600000e+00
   TN4  SC4r  1 3.650000e-01    1.750000e+00
   TN4  SC5r  1 3.650000e-01    1.750000e+00
   TN4  SC6r  1 3.650000e-01    1.910000e+00
   TN4  SN1r  1 3.650000e-01    1.910000e+00
   TN4  SN2r  1 3.650000e-01    2.110000e+00
   TN4  SN3r  1 3.650000e-01    2.110000e+00
    N3    N3  1 4.700000e-01    3.520000e+00
    N3    N2  1 4.700000e-01    3.520000e+00
    N3    N1  1 4.700000e-01    3.390000e+00
    N3    C6  1 4.700000e-01    3.390000e+00
    N3    C5  1 4.700000e-01    3.240000e+00
    N3    C4  1 4.700000e-01    3.240000e+00
    N3    C3  1 4.700000e-01    3.070000e+00
    N3    C2  1 4.700000e-01    3.070000e+00
    N3    C1  1 4.700000e-01    2.960000e+00
    N3    X4  1 4.700000e-01    3.520000e+00
    N3    X3  1 4.700000e-01    3.390000e+00
    N3    X2  1 4.700000e-01    3.240000e+00
    N3    X1  1 4.700000e-01    3.240000e+00
   P6d    N3  1 4.700000e-01    3.240000e+00
   P5d    N3  1 4.700000e-01    3.240000e+00
   P4d    N3  1 4.700000e-01    3.390000e+00
   P3d    N3  1 4.700000e-01    3.390000e+00
   P2d    N3  1 4.700000e-01    3.390000e+00
   P1d    N3  1 4.700000e-01    3.390000e+00
   N6d    N3  1 4.700000e-01    3.520000e+00
   N5d    N3  1 4.700000e-01    3.520000e+00
   N4d    N3  1 4.700000e-01    3.520000e+00
    N3   N3d  1 4.700000e-01    3.520000e+00
    N3   N1d  1 4.700000e-01    3.390000e+00
    N3   N2d  1 4.700000e-01    3.520000e+00
   P6a    N3  1 4.700000e-01    3.240000e+00
   P5a    N3  1 4.700000e-01    3.240000e+00
   P4a    N3  1 4.700000e-01    3.390000e+00
   P3a    N3  1 4.700000e-01    3.390000e+00
   P2a    N3  1 4.700000e-01    3.390000e+00
   P1a    N3  1 4.700000e-01    3.390000e+00
   N6a    N3  1 4.700000e-01    3.520000e+00
   N5a    N3  1 4.700000e-01    3.520000e+00
   N4a    N3  1 4.700000e-01    3.520000e+00
    N3   N3a  1 4.700000e-01    3.520000e+00
    N3   N1a  1 4.700000e-01    3.390000e+00
    N3   N2a  1 4.700000e-01    3.520000e+00
    N3   C6v  1 4.700000e-01    3.520000e+00
    N3   C5v  1 4.700000e-01    3.390000e+00
    N3   C4v  1 4.700000e-01    3.390000e+00
    N3   C3v  1 4.700000e-01    3.240000e+00
    N3   C2v  1 4.700000e-01    3.240000e+00
    N3   C1v  1 4.700000e-01    3.070000e+00
    N3   X4v  1 4.700000e-01    3.690000e+00
    N3   X3v  1 4.700000e-01    3.520000e+00
    N3   X2v  1 4.700000e-01    3.390000e+00
    N3   X1v  1 4.700000e-01    3.390000e+00
    N3   C6e  1 4.700000e-01    3.520000e+00
    N3   C5e  1 4.700000e-01    3.390000e+00
    N3   C4e  1 4.700000e-01    3.390000e+00
    N3   C3e  1 4.700000e-01    3.240000e+00
    N3   C2e  1 4.700000e-01    3.240000e+00
    N3   C1e  1 4.700000e-01    3.070000e+00
    N3   X4e  1 4.700000e-01    3.690000e+00
    N3   X3e  1 4.700000e-01    3.520000e+00
    N3   X2e  1 4.700000e-01    3.390000e+00
    N3   X1e  1 4.700000e-01    3.390000e+00
   P6q    N3  1 4.700000e-01    3.520000e+00
   P5q    N3  1 4.700000e-01    3.520000e+00
   P4q    N3  1 4.700000e-01    3.690000e+00
   P3q    N3  1 4.700000e-01    3.690000e+00
   P2q    N3  1 4.700000e-01    3.690000e+00
   P1q    N3  1 4.700000e-01    3.690000e+00
   N6q    N3  1 4.700000e-01    3.880000e+00
   N5q    N3  1 4.700000e-01    3.880000e+00
   N4q    N3  1 4.700000e-01    3.880000e+00
    N3   N3q  1 4.700000e-01    3.880000e+00
    N3  X1eq  1 4.700000e-01    3.690000e+00
    N3  X2eq  1 4.700000e-01    3.690000e+00
    N3  X3eq  1 4.700000e-01    3.880000e+00
    N3  X4eq  1 4.700000e-01    4.060000e+00
    N3  C1eq  1 4.700000e-01    3.390000e+00
    N3  C2eq  1 4.700000e-01    3.520000e+00
    N3  C3eq  1 4.700000e-01    3.520000e+00
    N3  C4eq  1 4.700000e-01    3.690000e+00
    N3  C5eq  1 4.700000e-01    3.690000e+00
    N3  C6eq  1 4.700000e-01    3.880000e+00
    N3  X1vq  1 4.700000e-01    3.690000e+00
    N3  X2vq  1 4.700000e-01    3.690000e+00
    N3  X3vq  1 4.700000e-01    3.880000e+00
    N3  X4vq  1 4.700000e-01    4.060000e+00
    N3  C1vq  1 4.700000e-01    3.390000e+00
    N3  C2vq  1 4.700000e-01    3.520000e+00
    N3  C3vq  1 4.700000e-01    3.520000e+00
    N3  C4vq  1 4.700000e-01    3.690000e+00
    N3  C5vq  1 4.700000e-01    3.690000e+00
    N3  C6vq  1 4.700000e-01    3.880000e+00
    N3  N1aq  1 4.700000e-01    3.690000e+00
    N3  N2aq  1 4.700000e-01    3.880000e+00
    N3  N3aq  1 4.700000e-01    3.880000e+00
  N4aq    N3  1 4.700000e-01    3.880000e+00
  N5aq    N3  1 4.700000e-01    3.880000e+00
  N6aq    N3  1 4.700000e-01    3.880000e+00
  P1aq    N3  1 4.700000e-01    3.690000e+00
  P2aq    N3  1 4.700000e-01    3.690000e+00
  P3aq    N3  1 4.700000e-01    3.690000e+00
  P4aq    N3  1 4.700000e-01    3.690000e+00
  P5aq    N3  1 4.700000e-01    3.520000e+00
  P6aq    N3  1 4.700000e-01    3.520000e+00
    N3  N1dq  1 4.700000e-01    3.690000e+00
    N3  N2dq  1 4.700000e-01    3.880000e+00
    N3  N3dq  1 4.700000e-01    3.880000e+00
  N4dq    N3  1 4.700000e-01    3.880000e+00
  N5dq    N3  1 4.700000e-01    3.880000e+00
  N6dq    N3  1 4.700000e-01    3.880000e+00
  P1dq    N3  1 4.700000e-01    3.690000e+00
  P2dq    N3  1 4.700000e-01    3.690000e+00
  P3dq    N3  1 4.700000e-01    3.690000e+00
  P4dq    N3  1 4.700000e-01    3.690000e+00
  P5dq    N3  1 4.700000e-01    3.520000e+00
  P6dq    N3  1 4.700000e-01    3.520000e+00
    N3   X1q  1 4.700000e-01    3.520000e+00
    N3   X2q  1 4.700000e-01    3.520000e+00
    N3   X3q  1 4.700000e-01    3.690000e+00
    N3   X4q  1 4.700000e-01    3.880000e+00
    N3   C1q  1 4.700000e-01    3.240000e+00
    N3   C2q  1 4.700000e-01    3.390000e+00
    N3   C3q  1 4.700000e-01    3.390000e+00
    N3   C4q  1 4.700000e-01    3.520000e+00
    N3   C5q  1 4.700000e-01    3.520000e+00
    N3   C6q  1 4.700000e-01    3.690000e+00
    N3   N1q  1 4.700000e-01    3.690000e+00
    N3   N2q  1 4.700000e-01    3.880000e+00
   P6h    N3  1 4.700000e-01    3.240000e+00
   P5h    N3  1 4.700000e-01    3.240000e+00
   P4h    N3  1 4.700000e-01    3.390000e+00
   P3h    N3  1 4.700000e-01    3.390000e+00
   P2h    N3  1 4.700000e-01    3.390000e+00
   P1h    N3  1 4.700000e-01    3.390000e+00
   N6h    N3  1 4.700000e-01    3.520000e+00
   N5h    N3  1 4.700000e-01    3.520000e+00
   N4h    N3  1 4.700000e-01    3.520000e+00
    N3   N3h  1 4.700000e-01    3.520000e+00
    N3  X1eh  1 4.700000e-01    3.390000e+00
    N3  X2eh  1 4.700000e-01    3.390000e+00
    N3  X3eh  1 4.700000e-01    3.520000e+00
    N3  X4eh  1 4.700000e-01    3.690000e+00
    N3  C1eh  1 4.700000e-01    3.070000e+00
    N3  C2eh  1 4.700000e-01    3.240000e+00
    N3  C3eh  1 4.700000e-01    3.240000e+00
    N3  C4eh  1 4.700000e-01    3.390000e+00
    N3  C5eh  1 4.700000e-01    3.390000e+00
    N3  C6eh  1 4.700000e-01    3.520000e+00
    N3  X1vh  1 4.700000e-01    3.390000e+00
    N3  X2vh  1 4.700000e-01    3.390000e+00
    N3  X3vh  1 4.700000e-01    3.520000e+00
    N3  X4vh  1 4.700000e-01    3.690000e+00
    N3  C1vh  1 4.700000e-01    3.070000e+00
    N3  C2vh  1 4.700000e-01    3.240000e+00
    N3  C3vh  1 4.700000e-01    3.240000e+00
    N3  C4vh  1 4.700000e-01    3.390000e+00
    N3  C5vh  1 4.700000e-01    3.390000e+00
    N3  C6vh  1 4.700000e-01    3.520000e+00
    N3  N1ah  1 4.700000e-01    3.390000e+00
    N3  N2ah  1 4.700000e-01    3.520000e+00
    N3  N3ah  1 4.700000e-01    3.520000e+00
  N4ah    N3  1 4.700000e-01    3.520000e+00
  N5ah    N3  1 4.700000e-01    3.520000e+00
  N6ah    N3  1 4.700000e-01    3.520000e+00
  P1ah    N3  1 4.700000e-01    3.390000e+00
  P2ah    N3  1 4.700000e-01    3.390000e+00
  P3ah    N3  1 4.700000e-01    3.390000e+00
  P4ah    N3  1 4.700000e-01    3.390000e+00
  P5ah    N3  1 4.700000e-01    3.240000e+00
  P6ah    N3  1 4.700000e-01    3.240000e+00
    N3  N1dh  1 4.700000e-01    3.390000e+00
    N3  N2dh  1 4.700000e-01    3.520000e+00
    N3  N3dh  1 4.700000e-01    3.520000e+00
  N4dh    N3  1 4.700000e-01    3.520000e+00
  N5dh    N3  1 4.700000e-01    3.520000e+00
  N6dh    N3  1 4.700000e-01    3.520000e+00
  P1dh    N3  1 4.700000e-01    3.390000e+00
  P2dh    N3  1 4.700000e-01    3.390000e+00
  P3dh    N3  1 4.700000e-01    3.390000e+00
  P4dh    N3  1 4.700000e-01    3.390000e+00
  P5dh    N3  1 4.700000e-01    3.240000e+00
  P6dh    N3  1 4.700000e-01    3.240000e+00
    N3   X1h  1 4.700000e-01    3.240000e+00
    N3   X2h  1 4.700000e-01    3.240000e+00
    N3   X3h  1 4.700000e-01    3.390000e+00
    N3   X4h  1 4.700000e-01    3.520000e+00
    N3   C1h  1 4.700000e-01    2.960000e+00
    N3   C2h  1 4.700000e-01    3.070000e+00
    N3   C3h  1 4.700000e-01    3.070000e+00
    N3   C4h  1 4.700000e-01    3.240000e+00
    N3   C5h  1 4.700000e-01    3.240000e+00
    N3   C6h  1 4.700000e-01    3.390000e+00
    N3   N1h  1 4.700000e-01    3.390000e+00
    N3   N2h  1 4.700000e-01    3.520000e+00
   P6r    N3  1 4.700000e-01    3.240000e+00
   P5r    N3  1 4.700000e-01    3.240000e+00
   P4r    N3  1 4.700000e-01    3.390000e+00
   P3r    N3  1 4.700000e-01    3.390000e+00
   P2r    N3  1 4.700000e-01    3.390000e+00
   P1r    N3  1 4.700000e-01    3.390000e+00
   N6r    N3  1 4.700000e-01    3.520000e+00
   N5r    N3  1 4.700000e-01    3.520000e+00
   N4r    N3  1 4.700000e-01    3.520000e+00
    N3   N3r  1 4.700000e-01    3.520000e+00
    N3  X1er  1 4.700000e-01    3.390000e+00
    N3  X2er  1 4.700000e-01    3.390000e+00
    N3  X3er  1 4.700000e-01    3.520000e+00
    N3  X4er  1 4.700000e-01    3.690000e+00
    N3  C1er  1 4.700000e-01    3.070000e+00
    N3  C2er  1 4.700000e-01    3.240000e+00
    N3  C3er  1 4.700000e-01    3.240000e+00
    N3  C4er  1 4.700000e-01    3.390000e+00
    N3  C5er  1 4.700000e-01    3.390000e+00
    N3  C6er  1 4.700000e-01    3.520000e+00
    N3  X1vr  1 4.700000e-01    3.390000e+00
    N3  X2vr  1 4.700000e-01    3.390000e+00
    N3  X3vr  1 4.700000e-01    3.520000e+00
    N3  X4vr  1 4.700000e-01    3.690000e+00
    N3  C1vr  1 4.700000e-01    3.070000e+00
    N3  C2vr  1 4.700000e-01    3.240000e+00
    N3  C3vr  1 4.700000e-01    3.240000e+00
    N3  C4vr  1 4.700000e-01    3.390000e+00
    N3  C5vr  1 4.700000e-01    3.390000e+00
    N3  C6vr  1 4.700000e-01    3.520000e+00
    N3  N1ar  1 4.700000e-01    3.390000e+00
    N3  N2ar  1 4.700000e-01    3.520000e+00
    N3  N3ar  1 4.700000e-01    3.520000e+00
  N4ar    N3  1 4.700000e-01    3.520000e+00
  N5ar    N3  1 4.700000e-01    3.520000e+00
  N6ar    N3  1 4.700000e-01    3.520000e+00
  P1ar    N3  1 4.700000e-01    3.390000e+00
  P2ar    N3  1 4.700000e-01    3.390000e+00
  P3ar    N3  1 4.700000e-01    3.390000e+00
  P4ar    N3  1 4.700000e-01    3.390000e+00
  P5ar    N3  1 4.700000e-01    3.240000e+00
  P6ar    N3  1 4.700000e-01    3.240000e+00
    N3  N1dr  1 4.700000e-01    3.390000e+00
    N3  N2dr  1 4.700000e-01    3.520000e+00
    N3  N3dr  1 4.700000e-01    3.520000e+00
  N4dr    N3  1 4.700000e-01    3.520000e+00
  N5dr    N3  1 4.700000e-01    3.520000e+00
  N6dr    N3  1 4.700000e-01    3.520000e+00
  P1dr    N3  1 4.700000e-01    3.390000e+00
  P2dr    N3  1 4.700000e-01    3.390000e+00
  P3dr    N3  1 4.700000e-01    3.390000e+00
  P4dr    N3  1 4.700000e-01    3.390000e+00
  P5dr    N3  1 4.700000e-01    3.240000e+00
  P6dr    N3  1 4.700000e-01    3.240000e+00
    N3   X1r  1 4.700000e-01    3.240000e+00
    N3   X2r  1 4.700000e-01    3.240000e+00
    N3   X3r  1 4.700000e-01    3.390000e+00
    N3   X4r  1 4.700000e-01    3.520000e+00
    N3   C1r  1 4.700000e-01    2.960000e+00
    N3   C2r  1 4.700000e-01    3.070000e+00
    N3   C3r  1 4.700000e-01    3.070000e+00
    N3   C4r  1 4.700000e-01    3.240000e+00
    N3   C5r  1 4.700000e-01    3.240000e+00
    N3   C6r  1 4.700000e-01    3.390000e+00
    N3   N1r  1 4.700000e-01    3.390000e+00
    N3   N2r  1 4.700000e-01    3.520000e+00
    N3   SN3  1 4.300000e-01    3.160000e+00
    N3   SN2  1 4.300000e-01    3.160000e+00
    N3   SN1  1 4.300000e-01    2.920000e+00
    N3   SC6  1 4.300000e-01    2.920000e+00
    N3   SC5  1 4.300000e-01    2.770000e+00
    N3   SC4  1 4.300000e-01    2.770000e+00
    N3   SC3  1 4.300000e-01    2.530000e+00
    N3   SC2  1 4.300000e-01    2.530000e+00
    N3   SC1  1 4.300000e-01    2.320000e+00
    N3   SX4  1 4.300000e-01    3.160000e+00
    N3   SX3  1 4.300000e-01    2.920000e+00
    N3   SX2  1 4.300000e-01    2.770000e+00
    N3   SX1  1 4.300000e-01    2.770000e+00
    N3  SN3d  1 4.300000e-01    3.160000e+00
    N3  SN1d  1 4.300000e-01    2.920000e+00
    N3  SN2d  1 4.300000e-01    3.160000e+00
    N3  SN3a  1 4.300000e-01    3.160000e+00
    N3  SN1a  1 4.300000e-01    2.920000e+00
    N3  SN2a  1 4.300000e-01    3.160000e+00
    N3  SC6v  1 4.300000e-01    3.160000e+00
    N3  SC5v  1 4.300000e-01    2.920000e+00
    N3  SC4v  1 4.300000e-01    2.920000e+00
    N3  SC3v  1 4.300000e-01    2.770000e+00
    N3  SC2v  1 4.300000e-01    2.770000e+00
    N3  SC1v  1 4.300000e-01    2.530000e+00
    N3  SX4v  1 4.300000e-01    3.380000e+00
    N3  SX3v  1 4.300000e-01    3.160000e+00
    N3  SX2v  1 4.300000e-01    2.920000e+00
    N3  SX1v  1 4.300000e-01    2.920000e+00
    N3  SC6e  1 4.300000e-01    3.160000e+00
    N3  SC5e  1 4.300000e-01    2.920000e+00
    N3  SC4e  1 4.300000e-01    2.920000e+00
    N3  SC3e  1 4.300000e-01    2.770000e+00
    N3  SC2e  1 4.300000e-01    2.770000e+00
    N3  SC1e  1 4.300000e-01    2.530000e+00
    N3  SX4e  1 4.300000e-01    3.380000e+00
    N3  SX3e  1 4.300000e-01    3.160000e+00
    N3  SX2e  1 4.300000e-01    2.920000e+00
    N3  SX1e  1 4.300000e-01    2.920000e+00
    N3  SN3q  1 4.300000e-01    3.590000e+00
    N3 SX1eq  1 4.300000e-01    3.380000e+00
    N3 SX2eq  1 4.300000e-01    3.380000e+00
    N3 SX3eq  1 4.300000e-01    3.590000e+00
    N3 SX4eq  1 4.300000e-01    3.770000e+00
    N3 SC1eq  1 4.300000e-01    2.920000e+00
    N3 SC2eq  1 4.300000e-01    3.160000e+00
    N3 SC3eq  1 4.300000e-01    3.160000e+00
    N3 SC4eq  1 4.300000e-01    3.380000e+00
    N3 SC5eq  1 4.300000e-01    3.380000e+00
    N3 SC6eq  1 4.300000e-01    3.590000e+00
    N3 SX1vq  1 4.300000e-01    3.380000e+00
    N3 SX2vq  1 4.300000e-01    3.380000e+00
    N3 SX3vq  1 4.300000e-01    3.590000e+00
    N3 SX4vq  1 4.300000e-01    3.770000e+00
    N3 SC1vq  1 4.300000e-01    2.920000e+00
    N3 SC2vq  1 4.300000e-01    3.160000e+00
    N3 SC3vq  1 4.300000e-01    3.160000e+00
    N3 SC4vq  1 4.300000e-01    3.380000e+00
    N3 SC5vq  1 4.300000e-01    3.380000e+00
    N3 SC6vq  1 4.300000e-01    3.590000e+00
    N3 SN1aq  1 4.300000e-01    3.380000e+00
    N3 SN2aq  1 4.300000e-01    3.590000e+00
    N3 SN3aq  1 4.300000e-01    3.590000e+00
    N3 SN1dq  1 4.300000e-01    3.380000e+00
    N3 SN2dq  1 4.300000e-01    3.590000e+00
    N3 SN3dq  1 4.300000e-01    3.590000e+00
    N3  SX1q  1 4.300000e-01    3.160000e+00
    N3  SX2q  1 4.300000e-01    3.160000e+00
    N3  SX3q  1 4.300000e-01    3.380000e+00
    N3  SX4q  1 4.300000e-01    3.590000e+00
    N3  SC1q  1 4.300000e-01    2.770000e+00
    N3  SC2q  1 4.300000e-01    2.920000e+00
    N3  SC3q  1 4.300000e-01    2.920000e+00
    N3  SC4q  1 4.300000e-01    3.160000e+00
    N3  SC5q  1 4.300000e-01    3.160000e+00
    N3  SC6q  1 4.300000e-01    3.380000e+00
    N3  SN1q  1 4.300000e-01    3.380000e+00
    N3  SN2q  1 4.300000e-01    3.590000e+00
    N3  SN3h  1 4.300000e-01    3.160000e+00
    N3 SX1eh  1 4.300000e-01    2.920000e+00
    N3 SX2eh  1 4.300000e-01    2.920000e+00
    N3 SX3eh  1 4.300000e-01    3.160000e+00
    N3 SX4eh  1 4.300000e-01    3.380000e+00
    N3 SC1eh  1 4.300000e-01    2.530000e+00
    N3 SC2eh  1 4.300000e-01    2.770000e+00
    N3 SC3eh  1 4.300000e-01    2.770000e+00
    N3 SC4eh  1 4.300000e-01    2.920000e+00
    N3 SC5eh  1 4.300000e-01    2.920000e+00
    N3 SC6eh  1 4.300000e-01    3.160000e+00
    N3 SX1vh  1 4.300000e-01    2.920000e+00
    N3 SX2vh  1 4.300000e-01    2.920000e+00
    N3 SX3vh  1 4.300000e-01    3.160000e+00
    N3 SX4vh  1 4.300000e-01    3.380000e+00
    N3 SC1vh  1 4.300000e-01    2.530000e+00
    N3 SC2vh  1 4.300000e-01    2.770000e+00
    N3 SC3vh  1 4.300000e-01    2.770000e+00
    N3 SC4vh  1 4.300000e-01    2.920000e+00
    N3 SC5vh  1 4.300000e-01    2.920000e+00
    N3 SC6vh  1 4.300000e-01    3.160000e+00
    N3 SN1ah  1 4.300000e-01    2.920000e+00
    N3 SN2ah  1 4.300000e-01    3.160000e+00
    N3 SN3ah  1 4.300000e-01    3.160000e+00
    N3 SN1dh  1 4.300000e-01    2.920000e+00
    N3 SN2dh  1 4.300000e-01    3.160000e+00
    N3 SN3dh  1 4.300000e-01    3.160000e+00
    N3  SX1h  1 4.300000e-01    2.770000e+00
    N3  SX2h  1 4.300000e-01    2.770000e+00
    N3  SX3h  1 4.300000e-01    2.920000e+00
    N3  SX4h  1 4.300000e-01    3.160000e+00
    N3  SC1h  1 4.300000e-01    2.320000e+00
    N3  SC2h  1 4.300000e-01    2.530000e+00
    N3  SC3h  1 4.300000e-01    2.530000e+00
    N3  SC4h  1 4.300000e-01    2.770000e+00
    N3  SC5h  1 4.300000e-01    2.770000e+00
    N3  SC6h  1 4.300000e-01    2.920000e+00
    N3  SN1h  1 4.300000e-01    2.920000e+00
    N3  SN2h  1 4.300000e-01    3.160000e+00
    N3  SN3r  1 4.300000e-01    3.160000e+00
    N3 SX1er  1 4.300000e-01    2.920000e+00
    N3 SX2er  1 4.300000e-01    2.920000e+00
    N3 SX3er  1 4.300000e-01    3.160000e+00
    N3 SX4er  1 4.300000e-01    3.380000e+00
    N3 SC1er  1 4.300000e-01    2.530000e+00
    N3 SC2er  1 4.300000e-01    2.770000e+00
    N3 SC3er  1 4.300000e-01    2.770000e+00
    N3 SC4er  1 4.300000e-01    2.920000e+00
    N3 SC5er  1 4.300000e-01    2.920000e+00
    N3 SC6er  1 4.300000e-01    3.160000e+00
    N3 SX1vr  1 4.300000e-01    2.920000e+00
    N3 SX2vr  1 4.300000e-01    2.920000e+00
    N3 SX3vr  1 4.300000e-01    3.160000e+00
    N3 SX4vr  1 4.300000e-01    3.380000e+00
    N3 SC1vr  1 4.300000e-01    2.530000e+00
    N3 SC2vr  1 4.300000e-01    2.770000e+00
    N3 SC3vr  1 4.300000e-01    2.770000e+00
    N3 SC4vr  1 4.300000e-01    2.920000e+00
    N3 SC5vr  1 4.300000e-01    2.920000e+00
    N3 SC6vr  1 4.300000e-01    3.160000e+00
    N3 SN1ar  1 4.300000e-01    2.920000e+00
    N3 SN2ar  1 4.300000e-01    3.160000e+00
    N3 SN3ar  1 4.300000e-01    3.160000e+00
    N3 SN1dr  1 4.300000e-01    2.920000e+00
    N3 SN2dr  1 4.300000e-01    3.160000e+00
    N3 SN3dr  1 4.300000e-01    3.160000e+00
    N3  SX1r  1 4.300000e-01    2.770000e+00
    N3  SX2r  1 4.300000e-01    2.770000e+00
    N3  SX3r  1 4.300000e-01    2.920000e+00
    N3  SX4r  1 4.300000e-01    3.160000e+00
    N3  SC1r  1 4.300000e-01    2.320000e+00
    N3  SC2r  1 4.300000e-01    2.530000e+00
    N3  SC3r  1 4.300000e-01    2.530000e+00
    N3  SC4r  1 4.300000e-01    2.770000e+00
    N3  SC5r  1 4.300000e-01    2.770000e+00
    N3  SC6r  1 4.300000e-01    2.920000e+00
    N3  SN1r  1 4.300000e-01    2.920000e+00
    N3  SN2r  1 4.300000e-01    3.160000e+00
  SP6d    N3  1 4.300000e-01    2.770000e+00
  SP5d    N3  1 4.300000e-01    2.770000e+00
  SP4d    N3  1 4.300000e-01    2.920000e+00
  SP3d    N3  1 4.300000e-01    2.920000e+00
  SP2d    N3  1 4.300000e-01    2.920000e+00
  SP1d    N3  1 4.300000e-01    2.920000e+00
  SN6d    N3  1 4.300000e-01    3.160000e+00
  SN5d    N3  1 4.300000e-01    3.160000e+00
  SN4d    N3  1 4.300000e-01    3.160000e+00
  SP6a    N3  1 4.300000e-01    2.770000e+00
  SP5a    N3  1 4.300000e-01    2.770000e+00
  SP4a    N3  1 4.300000e-01    2.920000e+00
  SP3a    N3  1 4.300000e-01    2.920000e+00
  SP2a    N3  1 4.300000e-01    2.920000e+00
  SP1a    N3  1 4.300000e-01    2.920000e+00
  SN6a    N3  1 4.300000e-01    3.160000e+00
  SN5a    N3  1 4.300000e-01    3.160000e+00
  SN4a    N3  1 4.300000e-01    3.160000e+00
  SP6q    N3  1 4.300000e-01    3.160000e+00
  SP5q    N3  1 4.300000e-01    3.160000e+00
  SP4q    N3  1 4.300000e-01    3.380000e+00
  SP3q    N3  1 4.300000e-01    3.380000e+00
  SP2q    N3  1 4.300000e-01    3.380000e+00
  SP1q    N3  1 4.300000e-01    3.380000e+00
  SN6q    N3  1 4.300000e-01    3.590000e+00
  SN5q    N3  1 4.300000e-01    3.590000e+00
  SN4q    N3  1 4.300000e-01    3.590000e+00
 SN4aq    N3  1 4.300000e-01    3.590000e+00
 SN5aq    N3  1 4.300000e-01    3.590000e+00
 SN6aq    N3  1 4.300000e-01    3.590000e+00
 SP1aq    N3  1 4.300000e-01    3.380000e+00
 SP2aq    N3  1 4.300000e-01    3.380000e+00
 SP3aq    N3  1 4.300000e-01    3.380000e+00
 SP4aq    N3  1 4.300000e-01    3.380000e+00
 SP5aq    N3  1 4.300000e-01    3.160000e+00
 SP6aq    N3  1 4.300000e-01    3.160000e+00
 SN4dq    N3  1 4.300000e-01    3.590000e+00
 SN5dq    N3  1 4.300000e-01    3.590000e+00
 SN6dq    N3  1 4.300000e-01    3.590000e+00
 SP1dq    N3  1 4.300000e-01    3.380000e+00
 SP2dq    N3  1 4.300000e-01    3.380000e+00
 SP3dq    N3  1 4.300000e-01    3.380000e+00
 SP4dq    N3  1 4.300000e-01    3.380000e+00
 SP5dq    N3  1 4.300000e-01    3.160000e+00
 SP6dq    N3  1 4.300000e-01    3.160000e+00
  SP6h    N3  1 4.300000e-01    2.770000e+00
  SP5h    N3  1 4.300000e-01    2.770000e+00
  SP4h    N3  1 4.300000e-01    2.920000e+00
  SP3h    N3  1 4.300000e-01    2.920000e+00
  SP2h    N3  1 4.300000e-01    2.920000e+00
  SP1h    N3  1 4.300000e-01    2.920000e+00
  SN6h    N3  1 4.300000e-01    3.160000e+00
  SN5h    N3  1 4.300000e-01    3.160000e+00
  SN4h    N3  1 4.300000e-01    3.160000e+00
 SN4ah    N3  1 4.300000e-01    3.160000e+00
 SN5ah    N3  1 4.300000e-01    3.160000e+00
 SN6ah    N3  1 4.300000e-01    3.160000e+00
 SP1ah    N3  1 4.300000e-01    2.920000e+00
 SP2ah    N3  1 4.300000e-01    2.920000e+00
 SP3ah    N3  1 4.300000e-01    2.920000e+00
 SP4ah    N3  1 4.300000e-01    2.920000e+00
 SP5ah    N3  1 4.300000e-01    2.770000e+00
 SP6ah    N3  1 4.300000e-01    2.770000e+00
 SN4dh    N3  1 4.300000e-01    3.160000e+00
 SN5dh    N3  1 4.300000e-01    3.160000e+00
 SN6dh    N3  1 4.300000e-01    3.160000e+00
 SP1dh    N3  1 4.300000e-01    2.920000e+00
 SP2dh    N3  1 4.300000e-01    2.920000e+00
 SP3dh    N3  1 4.300000e-01    2.920000e+00
 SP4dh    N3  1 4.300000e-01    2.920000e+00
 SP5dh    N3  1 4.300000e-01    2.770000e+00
 SP6dh    N3  1 4.300000e-01    2.770000e+00
  SP6r    N3  1 4.300000e-01    2.770000e+00
  SP5r    N3  1 4.300000e-01    2.770000e+00
  SP4r    N3  1 4.300000e-01    2.920000e+00
  SP3r    N3  1 4.300000e-01    2.920000e+00
  SP2r    N3  1 4.300000e-01    2.920000e+00
  SP1r    N3  1 4.300000e-01    2.920000e+00
  SN6r    N3  1 4.300000e-01    3.160000e+00
  SN5r    N3  1 4.300000e-01    3.160000e+00
  SN4r    N3  1 4.300000e-01    3.160000e+00
 SN4ar    N3  1 4.300000e-01    3.160000e+00
 SN5ar    N3  1 4.300000e-01    3.160000e+00
 SN6ar    N3  1 4.300000e-01    3.160000e+00
 SP1ar    N3  1 4.300000e-01    2.920000e+00
 SP2ar    N3  1 4.300000e-01    2.920000e+00
 SP3ar    N3  1 4.300000e-01    2.920000e+00
 SP4ar    N3  1 4.300000e-01    2.920000e+00
 SP5ar    N3  1 4.300000e-01    2.770000e+00
 SP6ar    N3  1 4.300000e-01    2.770000e+00
 SN4dr    N3  1 4.300000e-01    3.160000e+00
 SN5dr    N3  1 4.300000e-01    3.160000e+00
 SN6dr    N3  1 4.300000e-01    3.160000e+00
 SP1dr    N3  1 4.300000e-01    2.920000e+00
 SP2dr    N3  1 4.300000e-01    2.920000e+00
 SP3dr    N3  1 4.300000e-01    2.920000e+00
 SP4dr    N3  1 4.300000e-01    2.920000e+00
 SP5dr    N3  1 4.300000e-01    2.770000e+00
 SP6dr    N3  1 4.300000e-01    2.770000e+00
    N3   TN3  1 3.950000e-01    2.500000e+00
    N3   TN2  1 3.950000e-01    2.500000e+00
    N3   TN1  1 3.950000e-01    2.310000e+00
    N3   TC6  1 3.950000e-01    2.310000e+00
    N3   TC5  1 3.950000e-01    2.110000e+00
    N3   TC4  1 3.950000e-01    2.110000e+00
    N3   TC3  1 3.950000e-01    1.850000e+00
    N3   TC2  1 3.950000e-01    1.850000e+00
    N3   TC1  1 3.950000e-01    1.670000e+00
    N3   TX4  1 3.950000e-01    2.500000e+00
    N3   TX3  1 3.950000e-01    2.310000e+00
    N3   TX2  1 3.950000e-01    2.110000e+00
    N3   TX1  1 3.950000e-01    2.110000e+00
    N3  TN3d  1 3.950000e-01    2.500000e+00
    N3  TN1d  1 3.950000e-01    2.310000e+00
    N3  TN2d  1 3.950000e-01    2.500000e+00
    N3  TN3a  1 3.950000e-01    2.500000e+00
    N3  TN1a  1 3.950000e-01    2.310000e+00
    N3  TN2a  1 3.950000e-01    2.500000e+00
    N3  TC6v  1 3.950000e-01    2.500000e+00
    N3  TC5v  1 3.950000e-01    2.310000e+00
    N3  TC4v  1 3.950000e-01    2.310000e+00
    N3  TC3v  1 3.950000e-01    2.110000e+00
    N3  TC2v  1 3.950000e-01    2.110000e+00
    N3  TC1v  1 3.950000e-01    1.850000e+00
    N3  TX4v  1 3.950000e-01    2.700000e+00
    N3  TX3v  1 3.950000e-01    2.500000e+00
    N3  TX2v  1 3.950000e-01    2.310000e+00
    N3  TX1v  1 3.950000e-01    2.310000e+00
    N3  TC6e  1 3.950000e-01    2.500000e+00
    N3  TC5e  1 3.950000e-01    2.310000e+00
    N3  TC4e  1 3.950000e-01    2.310000e+00
    N3  TC3e  1 3.950000e-01    2.110000e+00
    N3  TC2e  1 3.950000e-01    2.110000e+00
    N3  TC1e  1 3.950000e-01    1.850000e+00
    N3  TX4e  1 3.950000e-01    2.700000e+00
    N3  TX3e  1 3.950000e-01    2.500000e+00
    N3  TX2e  1 3.950000e-01    2.310000e+00
    N3  TX1e  1 3.950000e-01    2.310000e+00
    N3  TN3q  1 3.950000e-01    2.940000e+00
    N3 TX1eq  1 3.950000e-01    2.700000e+00
    N3 TX2eq  1 3.950000e-01    2.700000e+00
    N3 TX3eq  1 3.950000e-01    2.940000e+00
    N3 TX4eq  1 3.950000e-01    3.190000e+00
    N3 TC1eq  1 3.950000e-01    2.310000e+00
    N3 TC2eq  1 3.950000e-01    2.500000e+00
    N3 TC3eq  1 3.950000e-01    2.500000e+00
    N3 TC4eq  1 3.950000e-01    2.700000e+00
    N3 TC5eq  1 3.950000e-01    2.700000e+00
    N3 TC6eq  1 3.950000e-01    2.940000e+00
    N3 TX1vq  1 3.950000e-01    2.700000e+00
    N3 TX2vq  1 3.950000e-01    2.700000e+00
    N3 TX3vq  1 3.950000e-01    2.940000e+00
    N3 TX4vq  1 3.950000e-01    3.190000e+00
    N3 TC1vq  1 3.950000e-01    2.310000e+00
    N3 TC2vq  1 3.950000e-01    2.500000e+00
    N3 TC3vq  1 3.950000e-01    2.500000e+00
    N3 TC4vq  1 3.950000e-01    2.700000e+00
    N3 TC5vq  1 3.950000e-01    2.700000e+00
    N3 TC6vq  1 3.950000e-01    2.940000e+00
    N3 TN1aq  1 3.950000e-01    2.700000e+00
    N3 TN2aq  1 3.950000e-01    2.940000e+00
    N3 TN3aq  1 3.950000e-01    2.940000e+00
    N3 TN1dq  1 3.950000e-01    2.700000e+00
    N3 TN2dq  1 3.950000e-01    2.940000e+00
    N3 TN3dq  1 3.950000e-01    2.940000e+00
    N3  TX1q  1 3.950000e-01    2.500000e+00
    N3  TX2q  1 3.950000e-01    2.500000e+00
    N3  TX3q  1 3.950000e-01    2.700000e+00
    N3  TX4q  1 3.950000e-01    2.940000e+00
    N3  TC1q  1 3.950000e-01    2.110000e+00
    N3  TC2q  1 3.950000e-01    2.310000e+00
    N3  TC3q  1 3.950000e-01    2.310000e+00
    N3  TC4q  1 3.950000e-01    2.500000e+00
    N3  TC5q  1 3.950000e-01    2.500000e+00
    N3  TC6q  1 3.950000e-01    2.700000e+00
    N3  TN1q  1 3.950000e-01    2.700000e+00
    N3  TN2q  1 3.950000e-01    2.940000e+00
    N3  TN3h  1 3.950000e-01    2.500000e+00
    N3 TX1eh  1 3.950000e-01    2.310000e+00
    N3 TX2eh  1 3.950000e-01    2.310000e+00
    N3 TX3eh  1 3.950000e-01    2.500000e+00
    N3 TX4eh  1 3.950000e-01    2.700000e+00
    N3 TC1eh  1 3.950000e-01    1.850000e+00
    N3 TC2eh  1 3.950000e-01    2.110000e+00
    N3 TC3eh  1 3.950000e-01    2.110000e+00
    N3 TC4eh  1 3.950000e-01    2.310000e+00
    N3 TC5eh  1 3.950000e-01    2.310000e+00
    N3 TC6eh  1 3.950000e-01    2.500000e+00
    N3 TX1vh  1 3.950000e-01    2.310000e+00
    N3 TX2vh  1 3.950000e-01    2.310000e+00
    N3 TX3vh  1 3.950000e-01    2.500000e+00
    N3 TX4vh  1 3.950000e-01    2.700000e+00
    N3 TC1vh  1 3.950000e-01    1.850000e+00
    N3 TC2vh  1 3.950000e-01    2.110000e+00
    N3 TC3vh  1 3.950000e-01    2.110000e+00
    N3 TC4vh  1 3.950000e-01    2.310000e+00
    N3 TC5vh  1 3.950000e-01    2.310000e+00
    N3 TC6vh  1 3.950000e-01    2.500000e+00
    N3 TN1ah  1 3.950000e-01    2.310000e+00
    N3 TN2ah  1 3.950000e-01    2.500000e+00
    N3 TN3ah  1 3.950000e-01    2.500000e+00
    N3 TN1dh  1 3.950000e-01    2.310000e+00
    N3 TN2dh  1 3.950000e-01    2.500000e+00
    N3 TN3dh  1 3.950000e-01    2.500000e+00
    N3  TX1h  1 3.950000e-01    2.110000e+00
    N3  TX2h  1 3.950000e-01    2.110000e+00
    N3  TX3h  1 3.950000e-01    2.310000e+00
    N3  TX4h  1 3.950000e-01    2.500000e+00
    N3  TC1h  1 3.950000e-01    1.670000e+00
    N3  TC2h  1 3.950000e-01    1.850000e+00
    N3  TC3h  1 3.950000e-01    1.850000e+00
    N3  TC4h  1 3.950000e-01    2.110000e+00
    N3  TC5h  1 3.950000e-01    2.110000e+00
    N3  TC6h  1 3.950000e-01    2.310000e+00
    N3  TN1h  1 3.950000e-01    2.310000e+00
    N3  TN2h  1 3.950000e-01    2.500000e+00
    N3  TN3r  1 3.950000e-01    2.500000e+00
    N3 TX1er  1 3.950000e-01    2.310000e+00
    N3 TX2er  1 3.950000e-01    2.310000e+00
    N3 TX3er  1 3.950000e-01    2.500000e+00
    N3 TX4er  1 3.950000e-01    2.700000e+00
    N3 TC1er  1 3.950000e-01    1.850000e+00
    N3 TC2er  1 3.950000e-01    2.110000e+00
    N3 TC3er  1 3.950000e-01    2.110000e+00
    N3 TC4er  1 3.950000e-01    2.310000e+00
    N3 TC5er  1 3.950000e-01    2.310000e+00
    N3 TC6er  1 3.950000e-01    2.500000e+00
    N3 TX1vr  1 3.950000e-01    2.310000e+00
    N3 TX2vr  1 3.950000e-01    2.310000e+00
    N3 TX3vr  1 3.950000e-01    2.500000e+00
    N3 TX4vr  1 3.950000e-01    2.700000e+00
    N3 TC1vr  1 3.950000e-01    1.850000e+00
    N3 TC2vr  1 3.950000e-01    2.110000e+00
    N3 TC3vr  1 3.950000e-01    2.110000e+00
    N3 TC4vr  1 3.950000e-01    2.310000e+00
    N3 TC5vr  1 3.950000e-01    2.310000e+00
    N3 TC6vr  1 3.950000e-01    2.500000e+00
    N3 TN1ar  1 3.950000e-01    2.310000e+00
    N3 TN2ar  1 3.950000e-01    2.500000e+00
    N3 TN3ar  1 3.950000e-01    2.500000e+00
    N3 TN1dr  1 3.950000e-01    2.310000e+00
    N3 TN2dr  1 3.950000e-01    2.500000e+00
    N3 TN3dr  1 3.950000e-01    2.500000e+00
    N3  TX1r  1 3.950000e-01    2.110000e+00
    N3  TX2r  1 3.950000e-01    2.110000e+00
    N3  TX3r  1 3.950000e-01    2.310000e+00
    N3  TX4r  1 3.950000e-01    2.500000e+00
    N3  TC1r  1 3.950000e-01    1.670000e+00
    N3  TC2r  1 3.950000e-01    1.850000e+00
    N3  TC3r  1 3.950000e-01    1.850000e+00
    N3  TC4r  1 3.950000e-01    2.110000e+00
    N3  TC5r  1 3.950000e-01    2.110000e+00
    N3  TC6r  1 3.950000e-01    2.310000e+00
    N3  TN1r  1 3.950000e-01    2.310000e+00
    N3  TN2r  1 3.950000e-01    2.500000e+00
  TP6d    N3  1 3.950000e-01    2.110000e+00
  TP5d    N3  1 3.950000e-01    2.110000e+00
  TP4d    N3  1 3.950000e-01    2.310000e+00
  TP3d    N3  1 3.950000e-01    2.310000e+00
  TP2d    N3  1 3.950000e-01    2.310000e+00
  TP1d    N3  1 3.950000e-01    2.310000e+00
  TN6d    N3  1 3.950000e-01    2.500000e+00
  TN5d    N3  1 3.950000e-01    2.500000e+00
  TN4d    N3  1 3.950000e-01    2.500000e+00
  TP6a    N3  1 3.950000e-01    2.110000e+00
  TP5a    N3  1 3.950000e-01    2.110000e+00
  TP4a    N3  1 3.950000e-01    2.310000e+00
  TP3a    N3  1 3.950000e-01    2.310000e+00
  TP2a    N3  1 3.950000e-01    2.310000e+00
  TP1a    N3  1 3.950000e-01    2.310000e+00
  TN6a    N3  1 3.950000e-01    2.500000e+00
  TN5a    N3  1 3.950000e-01    2.500000e+00
  TN4a    N3  1 3.950000e-01    2.500000e+00
  TP6q    N3  1 3.950000e-01    2.500000e+00
  TP5q    N3  1 3.950000e-01    2.500000e+00
  TP4q    N3  1 3.950000e-01    2.700000e+00
  TP3q    N3  1 3.950000e-01    2.700000e+00
  TP2q    N3  1 3.950000e-01    2.700000e+00
  TP1q    N3  1 3.950000e-01    2.700000e+00
  TN6q    N3  1 3.950000e-01    2.940000e+00
  TN5q    N3  1 3.950000e-01    2.940000e+00
  TN4q    N3  1 3.950000e-01    2.940000e+00
 TN4aq    N3  1 3.950000e-01    2.940000e+00
 TN5aq    N3  1 3.950000e-01    2.940000e+00
 TN6aq    N3  1 3.950000e-01    2.940000e+00
 TP1aq    N3  1 3.950000e-01    2.700000e+00
 TP2aq    N3  1 3.950000e-01    2.700000e+00
 TP3aq    N3  1 3.950000e-01    2.700000e+00
 TP4aq    N3  1 3.950000e-01    2.700000e+00
 TP5aq    N3  1 3.950000e-01    2.500000e+00
 TP6aq    N3  1 3.950000e-01    2.500000e+00
 TN4dq    N3  1 3.950000e-01    2.940000e+00
 TN5dq    N3  1 3.950000e-01    2.940000e+00
 TN6dq    N3  1 3.950000e-01    2.940000e+00
 TP1dq    N3  1 3.950000e-01    2.700000e+00
 TP2dq    N3  1 3.950000e-01    2.700000e+00
 TP3dq    N3  1 3.950000e-01    2.700000e+00
 TP4dq    N3  1 3.950000e-01    2.700000e+00
 TP5dq    N3  1 3.950000e-01    2.500000e+00
 TP6dq    N3  1 3.950000e-01    2.500000e+00
  TP6h    N3  1 3.950000e-01    2.110000e+00
  TP5h    N3  1 3.950000e-01    2.110000e+00
  TP4h    N3  1 3.950000e-01    2.310000e+00
  TP3h    N3  1 3.950000e-01    2.310000e+00
  TP2h    N3  1 3.950000e-01    2.310000e+00
  TP1h    N3  1 3.950000e-01    2.310000e+00
  TN6h    N3  1 3.950000e-01    2.500000e+00
  TN5h    N3  1 3.950000e-01    2.500000e+00
  TN4h    N3  1 3.950000e-01    2.500000e+00
 TN4ah    N3  1 3.950000e-01    2.500000e+00
 TN5ah    N3  1 3.950000e-01    2.500000e+00
 TN6ah    N3  1 3.950000e-01    2.500000e+00
 TP1ah    N3  1 3.950000e-01    2.310000e+00
 TP2ah    N3  1 3.950000e-01    2.310000e+00
 TP3ah    N3  1 3.950000e-01    2.310000e+00
 TP4ah    N3  1 3.950000e-01    2.310000e+00
 TP5ah    N3  1 3.950000e-01    2.110000e+00
 TP6ah    N3  1 3.950000e-01    2.110000e+00
 TN4dh    N3  1 3.950000e-01    2.500000e+00
 TN5dh    N3  1 3.950000e-01    2.500000e+00
 TN6dh    N3  1 3.950000e-01    2.500000e+00
 TP1dh    N3  1 3.950000e-01    2.310000e+00
 TP2dh    N3  1 3.950000e-01    2.310000e+00
 TP3dh    N3  1 3.950000e-01    2.310000e+00
 TP4dh    N3  1 3.950000e-01    2.310000e+00
 TP5dh    N3  1 3.950000e-01    2.110000e+00
 TP6dh    N3  1 3.950000e-01    2.110000e+00
  TP6r    N3  1 3.950000e-01    2.110000e+00
  TP5r    N3  1 3.950000e-01    2.110000e+00
  TP4r    N3  1 3.950000e-01    2.310000e+00
  TP3r    N3  1 3.950000e-01    2.310000e+00
  TP2r    N3  1 3.950000e-01    2.310000e+00
  TP1r    N3  1 3.950000e-01    2.310000e+00
  TN6r    N3  1 3.950000e-01    2.500000e+00
  TN5r    N3  1 3.950000e-01    2.500000e+00
  TN4r    N3  1 3.950000e-01    2.500000e+00
 TN4ar    N3  1 3.950000e-01    2.500000e+00
 TN5ar    N3  1 3.950000e-01    2.500000e+00
 TN6ar    N3  1 3.950000e-01    2.500000e+00
 TP1ar    N3  1 3.950000e-01    2.310000e+00
 TP2ar    N3  1 3.950000e-01    2.310000e+00
 TP3ar    N3  1 3.950000e-01    2.310000e+00
 TP4ar    N3  1 3.950000e-01    2.310000e+00
 TP5ar    N3  1 3.950000e-01    2.110000e+00
 TP6ar    N3  1 3.950000e-01    2.110000e+00
 TN4dr    N3  1 3.950000e-01    2.500000e+00
 TN5dr    N3  1 3.950000e-01    2.500000e+00
 TN6dr    N3  1 3.950000e-01    2.500000e+00
 TP1dr    N3  1 3.950000e-01    2.310000e+00
 TP2dr    N3  1 3.950000e-01    2.310000e+00
 TP3dr    N3  1 3.950000e-01    2.310000e+00
 TP4dr    N3  1 3.950000e-01    2.310000e+00
 TP5dr    N3  1 3.950000e-01    2.110000e+00
 TP6dr    N3  1 3.950000e-01    2.110000e+00
   P6d   SN3  1 4.300000e-01    2.770000e+00
   P5d   SN3  1 4.300000e-01    2.770000e+00
   P4d   SN3  1 4.300000e-01    2.920000e+00
   P3d   SN3  1 4.300000e-01    2.920000e+00
   P2d   SN3  1 4.300000e-01    2.920000e+00
   P1d   SN3  1 4.300000e-01    2.920000e+00
   N6d   SN3  1 4.300000e-01    3.160000e+00
   N5d   SN3  1 4.300000e-01    3.160000e+00
   N4d   SN3  1 4.300000e-01    3.160000e+00
   P6a   SN3  1 4.300000e-01    2.770000e+00
   P5a   SN3  1 4.300000e-01    2.770000e+00
   P4a   SN3  1 4.300000e-01    2.920000e+00
   P3a   SN3  1 4.300000e-01    2.920000e+00
   P2a   SN3  1 4.300000e-01    2.920000e+00
   P1a   SN3  1 4.300000e-01    2.920000e+00
   N6a   SN3  1 4.300000e-01    3.160000e+00
   N5a   SN3  1 4.300000e-01    3.160000e+00
   N4a   SN3  1 4.300000e-01    3.160000e+00
   P6q   SN3  1 4.300000e-01    3.160000e+00
   P5q   SN3  1 4.300000e-01    3.160000e+00
   P4q   SN3  1 4.300000e-01    3.380000e+00
   P3q   SN3  1 4.300000e-01    3.380000e+00
   P2q   SN3  1 4.300000e-01    3.380000e+00
   P1q   SN3  1 4.300000e-01    3.380000e+00
   N6q   SN3  1 4.300000e-01    3.590000e+00
   N5q   SN3  1 4.300000e-01    3.590000e+00
   N4q   SN3  1 4.300000e-01    3.590000e+00
  N4aq   SN3  1 4.300000e-01    3.590000e+00
  N5aq   SN3  1 4.300000e-01    3.590000e+00
  N6aq   SN3  1 4.300000e-01    3.590000e+00
  P1aq   SN3  1 4.300000e-01    3.380000e+00
  P2aq   SN3  1 4.300000e-01    3.380000e+00
  P3aq   SN3  1 4.300000e-01    3.380000e+00
  P4aq   SN3  1 4.300000e-01    3.380000e+00
  P5aq   SN3  1 4.300000e-01    3.160000e+00
  P6aq   SN3  1 4.300000e-01    3.160000e+00
  N4dq   SN3  1 4.300000e-01    3.590000e+00
  N5dq   SN3  1 4.300000e-01    3.590000e+00
  N6dq   SN3  1 4.300000e-01    3.590000e+00
  P1dq   SN3  1 4.300000e-01    3.380000e+00
  P2dq   SN3  1 4.300000e-01    3.380000e+00
  P3dq   SN3  1 4.300000e-01    3.380000e+00
  P4dq   SN3  1 4.300000e-01    3.380000e+00
  P5dq   SN3  1 4.300000e-01    3.160000e+00
  P6dq   SN3  1 4.300000e-01    3.160000e+00
   P6h   SN3  1 4.300000e-01    2.770000e+00
   P5h   SN3  1 4.300000e-01    2.770000e+00
   P4h   SN3  1 4.300000e-01    2.920000e+00
   P3h   SN3  1 4.300000e-01    2.920000e+00
   P2h   SN3  1 4.300000e-01    2.920000e+00
   P1h   SN3  1 4.300000e-01    2.920000e+00
   N6h   SN3  1 4.300000e-01    3.160000e+00
   N5h   SN3  1 4.300000e-01    3.160000e+00
   N4h   SN3  1 4.300000e-01    3.160000e+00
  N4ah   SN3  1 4.300000e-01    3.160000e+00
  N5ah   SN3  1 4.300000e-01    3.160000e+00
  N6ah   SN3  1 4.300000e-01    3.160000e+00
  P1ah   SN3  1 4.300000e-01    2.920000e+00
  P2ah   SN3  1 4.300000e-01    2.920000e+00
  P3ah   SN3  1 4.300000e-01    2.920000e+00
  P4ah   SN3  1 4.300000e-01    2.920000e+00
  P5ah   SN3  1 4.300000e-01    2.770000e+00
  P6ah   SN3  1 4.300000e-01    2.770000e+00
  N4dh   SN3  1 4.300000e-01    3.160000e+00
  N5dh   SN3  1 4.300000e-01    3.160000e+00
  N6dh   SN3  1 4.300000e-01    3.160000e+00
  P1dh   SN3  1 4.300000e-01    2.920000e+00
  P2dh   SN3  1 4.300000e-01    2.920000e+00
  P3dh   SN3  1 4.300000e-01    2.920000e+00
  P4dh   SN3  1 4.300000e-01    2.920000e+00
  P5dh   SN3  1 4.300000e-01    2.770000e+00
  P6dh   SN3  1 4.300000e-01    2.770000e+00
   P6r   SN3  1 4.300000e-01    2.770000e+00
   P5r   SN3  1 4.300000e-01    2.770000e+00
   P4r   SN3  1 4.300000e-01    2.920000e+00
   P3r   SN3  1 4.300000e-01    2.920000e+00
   P2r   SN3  1 4.300000e-01    2.920000e+00
   P1r   SN3  1 4.300000e-01    2.920000e+00
   N6r   SN3  1 4.300000e-01    3.160000e+00
   N5r   SN3  1 4.300000e-01    3.160000e+00
   N4r   SN3  1 4.300000e-01    3.160000e+00
  N4ar   SN3  1 4.300000e-01    3.160000e+00
  N5ar   SN3  1 4.300000e-01    3.160000e+00
  N6ar   SN3  1 4.300000e-01    3.160000e+00
  P1ar   SN3  1 4.300000e-01    2.920000e+00
  P2ar   SN3  1 4.300000e-01    2.920000e+00
  P3ar   SN3  1 4.300000e-01    2.920000e+00
  P4ar   SN3  1 4.300000e-01    2.920000e+00
  P5ar   SN3  1 4.300000e-01    2.770000e+00
  P6ar   SN3  1 4.300000e-01    2.770000e+00
  N4dr   SN3  1 4.300000e-01    3.160000e+00
  N5dr   SN3  1 4.300000e-01    3.160000e+00
  N6dr   SN3  1 4.300000e-01    3.160000e+00
  P1dr   SN3  1 4.300000e-01    2.920000e+00
  P2dr   SN3  1 4.300000e-01    2.920000e+00
  P3dr   SN3  1 4.300000e-01    2.920000e+00
  P4dr   SN3  1 4.300000e-01    2.920000e+00
  P5dr   SN3  1 4.300000e-01    2.770000e+00
  P6dr   SN3  1 4.300000e-01    2.770000e+00
   SN3    N2  1 4.300000e-01    3.160000e+00
   SN3    N1  1 4.300000e-01    2.920000e+00
   SN3    C6  1 4.300000e-01    2.920000e+00
   SN3    C5  1 4.300000e-01    2.770000e+00
   SN3    C4  1 4.300000e-01    2.770000e+00
   SN3    C3  1 4.300000e-01    2.530000e+00
   SN3    C2  1 4.300000e-01    2.530000e+00
   SN3    C1  1 4.300000e-01    2.320000e+00
   SN3    X4  1 4.300000e-01    3.160000e+00
   SN3    X3  1 4.300000e-01    2.920000e+00
   SN3    X2  1 4.300000e-01    2.770000e+00
   SN3    X1  1 4.300000e-01    2.770000e+00
   SN3   N3d  1 4.300000e-01    3.160000e+00
   SN3   N1d  1 4.300000e-01    2.920000e+00
   SN3   N2d  1 4.300000e-01    3.160000e+00
   SN3   N3a  1 4.300000e-01    3.160000e+00
   SN3   N1a  1 4.300000e-01    2.920000e+00
   SN3   N2a  1 4.300000e-01    3.160000e+00
   SN3   C6v  1 4.300000e-01    3.160000e+00
   SN3   C5v  1 4.300000e-01    2.920000e+00
   SN3   C4v  1 4.300000e-01    2.920000e+00
   SN3   C3v  1 4.300000e-01    2.770000e+00
   SN3   C2v  1 4.300000e-01    2.770000e+00
   SN3   C1v  1 4.300000e-01    2.530000e+00
   SN3   X4v  1 4.300000e-01    3.380000e+00
   SN3   X3v  1 4.300000e-01    3.160000e+00
   SN3   X2v  1 4.300000e-01    2.920000e+00
   SN3   X1v  1 4.300000e-01    2.920000e+00
   SN3   C6e  1 4.300000e-01    3.160000e+00
   SN3   C5e  1 4.300000e-01    2.920000e+00
   SN3   C4e  1 4.300000e-01    2.920000e+00
   SN3   C3e  1 4.300000e-01    2.770000e+00
   SN3   C2e  1 4.300000e-01    2.770000e+00
   SN3   C1e  1 4.300000e-01    2.530000e+00
   SN3   X4e  1 4.300000e-01    3.380000e+00
   SN3   X3e  1 4.300000e-01    3.160000e+00
   SN3   X2e  1 4.300000e-01    2.920000e+00
   SN3   X1e  1 4.300000e-01    2.920000e+00
   SN3   N3q  1 4.300000e-01    3.590000e+00
   SN3  X1eq  1 4.300000e-01    3.380000e+00
   SN3  X2eq  1 4.300000e-01    3.380000e+00
   SN3  X3eq  1 4.300000e-01    3.590000e+00
   SN3  X4eq  1 4.300000e-01    3.770000e+00
   SN3  C1eq  1 4.300000e-01    2.920000e+00
   SN3  C2eq  1 4.300000e-01    3.160000e+00
   SN3  C3eq  1 4.300000e-01    3.160000e+00
   SN3  C4eq  1 4.300000e-01    3.380000e+00
   SN3  C5eq  1 4.300000e-01    3.380000e+00
   SN3  C6eq  1 4.300000e-01    3.590000e+00
   SN3  X1vq  1 4.300000e-01    3.380000e+00
   SN3  X2vq  1 4.300000e-01    3.380000e+00
   SN3  X3vq  1 4.300000e-01    3.590000e+00
   SN3  X4vq  1 4.300000e-01    3.770000e+00
   SN3  C1vq  1 4.300000e-01    2.920000e+00
   SN3  C2vq  1 4.300000e-01    3.160000e+00
   SN3  C3vq  1 4.300000e-01    3.160000e+00
   SN3  C4vq  1 4.300000e-01    3.380000e+00
   SN3  C5vq  1 4.300000e-01    3.380000e+00
   SN3  C6vq  1 4.300000e-01    3.590000e+00
   SN3  N1aq  1 4.300000e-01    3.380000e+00
   SN3  N2aq  1 4.300000e-01    3.590000e+00
   SN3  N3aq  1 4.300000e-01    3.590000e+00
   SN3  N1dq  1 4.300000e-01    3.380000e+00
   SN3  N2dq  1 4.300000e-01    3.590000e+00
   SN3  N3dq  1 4.300000e-01    3.590000e+00
   SN3   X1q  1 4.300000e-01    3.160000e+00
   SN3   X2q  1 4.300000e-01    3.160000e+00
   SN3   X3q  1 4.300000e-01    3.380000e+00
   SN3   X4q  1 4.300000e-01    3.590000e+00
   SN3   C1q  1 4.300000e-01    2.770000e+00
   SN3   C2q  1 4.300000e-01    2.920000e+00
   SN3   C3q  1 4.300000e-01    2.920000e+00
   SN3   C4q  1 4.300000e-01    3.160000e+00
   SN3   C5q  1 4.300000e-01    3.160000e+00
   SN3   C6q  1 4.300000e-01    3.380000e+00
   SN3   N1q  1 4.300000e-01    3.380000e+00
   SN3   N2q  1 4.300000e-01    3.590000e+00
   SN3   N3h  1 4.300000e-01    3.160000e+00
   SN3  X1eh  1 4.300000e-01    2.920000e+00
   SN3  X2eh  1 4.300000e-01    2.920000e+00
   SN3  X3eh  1 4.300000e-01    3.160000e+00
   SN3  X4eh  1 4.300000e-01    3.380000e+00
   SN3  C1eh  1 4.300000e-01    2.530000e+00
   SN3  C2eh  1 4.300000e-01    2.770000e+00
   SN3  C3eh  1 4.300000e-01    2.770000e+00
   SN3  C4eh  1 4.300000e-01    2.920000e+00
   SN3  C5eh  1 4.300000e-01    2.920000e+00
   SN3  C6eh  1 4.300000e-01    3.160000e+00
   SN3  X1vh  1 4.300000e-01    2.920000e+00
   SN3  X2vh  1 4.300000e-01    2.920000e+00
   SN3  X3vh  1 4.300000e-01    3.160000e+00
   SN3  X4vh  1 4.300000e-01    3.380000e+00
   SN3  C1vh  1 4.300000e-01    2.530000e+00
   SN3  C2vh  1 4.300000e-01    2.770000e+00
   SN3  C3vh  1 4.300000e-01    2.770000e+00
   SN3  C4vh  1 4.300000e-01    2.920000e+00
   SN3  C5vh  1 4.300000e-01    2.920000e+00
   SN3  C6vh  1 4.300000e-01    3.160000e+00
   SN3  N1ah  1 4.300000e-01    2.920000e+00
   SN3  N2ah  1 4.300000e-01    3.160000e+00
   SN3  N3ah  1 4.300000e-01    3.160000e+00
   SN3  N1dh  1 4.300000e-01    2.920000e+00
   SN3  N2dh  1 4.300000e-01    3.160000e+00
   SN3  N3dh  1 4.300000e-01    3.160000e+00
   SN3   X1h  1 4.300000e-01    2.770000e+00
   SN3   X2h  1 4.300000e-01    2.770000e+00
   SN3   X3h  1 4.300000e-01    2.920000e+00
   SN3   X4h  1 4.300000e-01    3.160000e+00
   SN3   C1h  1 4.300000e-01    2.320000e+00
   SN3   C2h  1 4.300000e-01    2.530000e+00
   SN3   C3h  1 4.300000e-01    2.530000e+00
   SN3   C4h  1 4.300000e-01    2.770000e+00
   SN3   C5h  1 4.300000e-01    2.770000e+00
   SN3   C6h  1 4.300000e-01    2.920000e+00
   SN3   N1h  1 4.300000e-01    2.920000e+00
   SN3   N2h  1 4.300000e-01    3.160000e+00
   SN3   N3r  1 4.300000e-01    3.160000e+00
   SN3  X1er  1 4.300000e-01    2.920000e+00
   SN3  X2er  1 4.300000e-01    2.920000e+00
   SN3  X3er  1 4.300000e-01    3.160000e+00
   SN3  X4er  1 4.300000e-01    3.380000e+00
   SN3  C1er  1 4.300000e-01    2.530000e+00
   SN3  C2er  1 4.300000e-01    2.770000e+00
   SN3  C3er  1 4.300000e-01    2.770000e+00
   SN3  C4er  1 4.300000e-01    2.920000e+00
   SN3  C5er  1 4.300000e-01    2.920000e+00
   SN3  C6er  1 4.300000e-01    3.160000e+00
   SN3  X1vr  1 4.300000e-01    2.920000e+00
   SN3  X2vr  1 4.300000e-01    2.920000e+00
   SN3  X3vr  1 4.300000e-01    3.160000e+00
   SN3  X4vr  1 4.300000e-01    3.380000e+00
   SN3  C1vr  1 4.300000e-01    2.530000e+00
   SN3  C2vr  1 4.300000e-01    2.770000e+00
   SN3  C3vr  1 4.300000e-01    2.770000e+00
   SN3  C4vr  1 4.300000e-01    2.920000e+00
   SN3  C5vr  1 4.300000e-01    2.920000e+00
   SN3  C6vr  1 4.300000e-01    3.160000e+00
   SN3  N1ar  1 4.300000e-01    2.920000e+00
   SN3  N2ar  1 4.300000e-01    3.160000e+00
   SN3  N3ar  1 4.300000e-01    3.160000e+00
   SN3  N1dr  1 4.300000e-01    2.920000e+00
   SN3  N2dr  1 4.300000e-01    3.160000e+00
   SN3  N3dr  1 4.300000e-01    3.160000e+00
   SN3   X1r  1 4.300000e-01    2.770000e+00
   SN3   X2r  1 4.300000e-01    2.770000e+00
   SN3   X3r  1 4.300000e-01    2.920000e+00
   SN3   X4r  1 4.300000e-01    3.160000e+00
   SN3   C1r  1 4.300000e-01    2.320000e+00
   SN3   C2r  1 4.300000e-01    2.530000e+00
   SN3   C3r  1 4.300000e-01    2.530000e+00
   SN3   C4r  1 4.300000e-01    2.770000e+00
   SN3   C5r  1 4.300000e-01    2.770000e+00
   SN3   C6r  1 4.300000e-01    2.920000e+00
   SN3   N1r  1 4.300000e-01    2.920000e+00
   SN3   N2r  1 4.300000e-01    3.160000e+00
   SN3   SN3  1 4.100000e-01    2.600000e+00
   SN3   SN2  1 4.100000e-01    2.600000e+00
   SN3   SN1  1 4.100000e-01    2.350000e+00
   SN3   SC6  1 4.100000e-01    2.350000e+00
   SN3   SC5  1 4.100000e-01    2.200000e+00
   SN3   SC4  1 4.100000e-01    2.200000e+00
   SN3   SC3  1 4.100000e-01    2.040000e+00
   SN3   SC2  1 4.100000e-01    2.040000e+00
   SN3   SC1  1 4.100000e-01    1.910000e+00
   SN3   SX4  1 4.100000e-01    2.600000e+00
   SN3   SX3  1 4.100000e-01    2.350000e+00
   SN3   SX2  1 4.100000e-01    2.200000e+00
   SN3   SX1  1 4.100000e-01    2.200000e+00
  SP6d   SN3  1 4.100000e-01    2.200000e+00
  SP5d   SN3  1 4.100000e-01    2.200000e+00
  SP4d   SN3  1 4.100000e-01    2.350000e+00
  SP3d   SN3  1 4.100000e-01    2.350000e+00
  SP2d   SN3  1 4.100000e-01    2.350000e+00
  SP1d   SN3  1 4.100000e-01    2.350000e+00
  SN6d   SN3  1 4.100000e-01    2.600000e+00
  SN5d   SN3  1 4.100000e-01    2.600000e+00
  SN4d   SN3  1 4.100000e-01    2.600000e+00
   SN3  SN3d  1 4.100000e-01    2.600000e+00
   SN3  SN1d  1 4.100000e-01    2.350000e+00
   SN3  SN2d  1 4.100000e-01    2.600000e+00
  SP6a   SN3  1 4.100000e-01    2.200000e+00
  SP5a   SN3  1 4.100000e-01    2.200000e+00
  SP4a   SN3  1 4.100000e-01    2.350000e+00
  SP3a   SN3  1 4.100000e-01    2.350000e+00
  SP2a   SN3  1 4.100000e-01    2.350000e+00
  SP1a   SN3  1 4.100000e-01    2.350000e+00
  SN6a   SN3  1 4.100000e-01    2.600000e+00
  SN5a   SN3  1 4.100000e-01    2.600000e+00
  SN4a   SN3  1 4.100000e-01    2.600000e+00
   SN3  SN3a  1 4.100000e-01    2.600000e+00
   SN3  SN1a  1 4.100000e-01    2.350000e+00
   SN3  SN2a  1 4.100000e-01    2.600000e+00
   SN3  SC6v  1 4.100000e-01    2.600000e+00
   SN3  SC5v  1 4.100000e-01    2.350000e+00
   SN3  SC4v  1 4.100000e-01    2.350000e+00
   SN3  SC3v  1 4.100000e-01    2.200000e+00
   SN3  SC2v  1 4.100000e-01    2.200000e+00
   SN3  SC1v  1 4.100000e-01    2.040000e+00
   SN3  SX4v  1 4.100000e-01    2.840000e+00
   SN3  SX3v  1 4.100000e-01    2.600000e+00
   SN3  SX2v  1 4.100000e-01    2.350000e+00
   SN3  SX1v  1 4.100000e-01    2.350000e+00
   SN3  SC6e  1 4.100000e-01    2.600000e+00
   SN3  SC5e  1 4.100000e-01    2.350000e+00
   SN3  SC4e  1 4.100000e-01    2.350000e+00
   SN3  SC3e  1 4.100000e-01    2.200000e+00
   SN3  SC2e  1 4.100000e-01    2.200000e+00
   SN3  SC1e  1 4.100000e-01    2.040000e+00
   SN3  SX4e  1 4.100000e-01    2.840000e+00
   SN3  SX3e  1 4.100000e-01    2.600000e+00
   SN3  SX2e  1 4.100000e-01    2.350000e+00
   SN3  SX1e  1 4.100000e-01    2.350000e+00
  SP6q   SN3  1 4.100000e-01    2.600000e+00
  SP5q   SN3  1 4.100000e-01    2.600000e+00
  SP4q   SN3  1 4.100000e-01    2.840000e+00
  SP3q   SN3  1 4.100000e-01    2.840000e+00
  SP2q   SN3  1 4.100000e-01    2.840000e+00
  SP1q   SN3  1 4.100000e-01    2.840000e+00
  SN6q   SN3  1 4.100000e-01    3.070000e+00
  SN5q   SN3  1 4.100000e-01    3.070000e+00
  SN4q   SN3  1 4.100000e-01    3.070000e+00
   SN3  SN3q  1 4.100000e-01    3.070000e+00
   SN3 SX1eq  1 4.100000e-01    2.840000e+00
   SN3 SX2eq  1 4.100000e-01    2.840000e+00
   SN3 SX3eq  1 4.100000e-01    3.070000e+00
   SN3 SX4eq  1 4.100000e-01    3.310000e+00
   SN3 SC1eq  1 4.100000e-01    2.350000e+00
   SN3 SC2eq  1 4.100000e-01    2.600000e+00
   SN3 SC3eq  1 4.100000e-01    2.600000e+00
   SN3 SC4eq  1 4.100000e-01    2.840000e+00
   SN3 SC5eq  1 4.100000e-01    2.840000e+00
   SN3 SC6eq  1 4.100000e-01    3.070000e+00
   SN3 SX1vq  1 4.100000e-01    2.840000e+00
   SN3 SX2vq  1 4.100000e-01    2.840000e+00
   SN3 SX3vq  1 4.100000e-01    3.070000e+00
   SN3 SX4vq  1 4.100000e-01    3.310000e+00
   SN3 SC1vq  1 4.100000e-01    2.350000e+00
   SN3 SC2vq  1 4.100000e-01    2.600000e+00
   SN3 SC3vq  1 4.100000e-01    2.600000e+00
   SN3 SC4vq  1 4.100000e-01    2.840000e+00
   SN3 SC5vq  1 4.100000e-01    2.840000e+00
   SN3 SC6vq  1 4.100000e-01    3.070000e+00
   SN3 SN1aq  1 4.100000e-01    2.840000e+00
   SN3 SN2aq  1 4.100000e-01    3.070000e+00
   SN3 SN3aq  1 4.100000e-01    3.070000e+00
 SN4aq   SN3  1 4.100000e-01    3.070000e+00
 SN5aq   SN3  1 4.100000e-01    3.070000e+00
 SN6aq   SN3  1 4.100000e-01    3.070000e+00
 SP1aq   SN3  1 4.100000e-01    2.840000e+00
 SP2aq   SN3  1 4.100000e-01    2.840000e+00
 SP3aq   SN3  1 4.100000e-01    2.840000e+00
 SP4aq   SN3  1 4.100000e-01    2.840000e+00
 SP5aq   SN3  1 4.100000e-01    2.600000e+00
 SP6aq   SN3  1 4.100000e-01    2.600000e+00
   SN3 SN1dq  1 4.100000e-01    2.840000e+00
   SN3 SN2dq  1 4.100000e-01    3.070000e+00
   SN3 SN3dq  1 4.100000e-01    3.070000e+00
 SN4dq   SN3  1 4.100000e-01    3.070000e+00
 SN5dq   SN3  1 4.100000e-01    3.070000e+00
 SN6dq   SN3  1 4.100000e-01    3.070000e+00
 SP1dq   SN3  1 4.100000e-01    2.840000e+00
 SP2dq   SN3  1 4.100000e-01    2.840000e+00
 SP3dq   SN3  1 4.100000e-01    2.840000e+00
 SP4dq   SN3  1 4.100000e-01    2.840000e+00
 SP5dq   SN3  1 4.100000e-01    2.600000e+00
 SP6dq   SN3  1 4.100000e-01    2.600000e+00
   SN3  SX1q  1 4.100000e-01    2.600000e+00
   SN3  SX2q  1 4.100000e-01    2.600000e+00
   SN3  SX3q  1 4.100000e-01    2.840000e+00
   SN3  SX4q  1 4.100000e-01    3.070000e+00
   SN3  SC1q  1 4.100000e-01    2.200000e+00
   SN3  SC2q  1 4.100000e-01    2.350000e+00
   SN3  SC3q  1 4.100000e-01    2.350000e+00
   SN3  SC4q  1 4.100000e-01    2.600000e+00
   SN3  SC5q  1 4.100000e-01    2.600000e+00
   SN3  SC6q  1 4.100000e-01    2.840000e+00
   SN3  SN1q  1 4.100000e-01    2.840000e+00
   SN3  SN2q  1 4.100000e-01    3.070000e+00
  SP6h   SN3  1 4.100000e-01    2.200000e+00
  SP5h   SN3  1 4.100000e-01    2.200000e+00
  SP4h   SN3  1 4.100000e-01    2.350000e+00
  SP3h   SN3  1 4.100000e-01    2.350000e+00
  SP2h   SN3  1 4.100000e-01    2.350000e+00
  SP1h   SN3  1 4.100000e-01    2.350000e+00
  SN6h   SN3  1 4.100000e-01    2.600000e+00
  SN5h   SN3  1 4.100000e-01    2.600000e+00
  SN4h   SN3  1 4.100000e-01    2.600000e+00
   SN3  SN3h  1 4.100000e-01    2.600000e+00
   SN3 SX1eh  1 4.100000e-01    2.350000e+00
   SN3 SX2eh  1 4.100000e-01    2.350000e+00
   SN3 SX3eh  1 4.100000e-01    2.600000e+00
   SN3 SX4eh  1 4.100000e-01    2.840000e+00
   SN3 SC1eh  1 4.100000e-01    2.040000e+00
   SN3 SC2eh  1 4.100000e-01    2.200000e+00
   SN3 SC3eh  1 4.100000e-01    2.200000e+00
   SN3 SC4eh  1 4.100000e-01    2.350000e+00
   SN3 SC5eh  1 4.100000e-01    2.350000e+00
   SN3 SC6eh  1 4.100000e-01    2.600000e+00
   SN3 SX1vh  1 4.100000e-01    2.350000e+00
   SN3 SX2vh  1 4.100000e-01    2.350000e+00
   SN3 SX3vh  1 4.100000e-01    2.600000e+00
   SN3 SX4vh  1 4.100000e-01    2.840000e+00
   SN3 SC1vh  1 4.100000e-01    2.040000e+00
   SN3 SC2vh  1 4.100000e-01    2.200000e+00
   SN3 SC3vh  1 4.100000e-01    2.200000e+00
   SN3 SC4vh  1 4.100000e-01    2.350000e+00
   SN3 SC5vh  1 4.100000e-01    2.350000e+00
   SN3 SC6vh  1 4.100000e-01    2.600000e+00
   SN3 SN1ah  1 4.100000e-01    2.350000e+00
   SN3 SN2ah  1 4.100000e-01    2.600000e+00
   SN3 SN3ah  1 4.100000e-01    2.600000e+00
 SN4ah   SN3  1 4.100000e-01    2.600000e+00
 SN5ah   SN3  1 4.100000e-01    2.600000e+00
 SN6ah   SN3  1 4.100000e-01    2.600000e+00
 SP1ah   SN3  1 4.100000e-01    2.350000e+00
 SP2ah   SN3  1 4.100000e-01    2.350000e+00
 SP3ah   SN3  1 4.100000e-01    2.350000e+00
 SP4ah   SN3  1 4.100000e-01    2.350000e+00
 SP5ah   SN3  1 4.100000e-01    2.200000e+00
 SP6ah   SN3  1 4.100000e-01    2.200000e+00
   SN3 SN1dh  1 4.100000e-01    2.350000e+00
   SN3 SN2dh  1 4.100000e-01    2.600000e+00
   SN3 SN3dh  1 4.100000e-01    2.600000e+00
 SN4dh   SN3  1 4.100000e-01    2.600000e+00
 SN5dh   SN3  1 4.100000e-01    2.600000e+00
 SN6dh   SN3  1 4.100000e-01    2.600000e+00
 SP1dh   SN3  1 4.100000e-01    2.350000e+00
 SP2dh   SN3  1 4.100000e-01    2.350000e+00
 SP3dh   SN3  1 4.100000e-01    2.350000e+00
 SP4dh   SN3  1 4.100000e-01    2.350000e+00
 SP5dh   SN3  1 4.100000e-01    2.200000e+00
 SP6dh   SN3  1 4.100000e-01    2.200000e+00
   SN3  SX1h  1 4.100000e-01    2.200000e+00
   SN3  SX2h  1 4.100000e-01    2.200000e+00
   SN3  SX3h  1 4.100000e-01    2.350000e+00
   SN3  SX4h  1 4.100000e-01    2.600000e+00
   SN3  SC1h  1 4.100000e-01    1.910000e+00
   SN3  SC2h  1 4.100000e-01    2.040000e+00
   SN3  SC3h  1 4.100000e-01    2.040000e+00
   SN3  SC4h  1 4.100000e-01    2.200000e+00
   SN3  SC5h  1 4.100000e-01    2.200000e+00
   SN3  SC6h  1 4.100000e-01    2.350000e+00
   SN3  SN1h  1 4.100000e-01    2.350000e+00
   SN3  SN2h  1 4.100000e-01    2.600000e+00
  SP6r   SN3  1 4.100000e-01    2.200000e+00
  SP5r   SN3  1 4.100000e-01    2.200000e+00
  SP4r   SN3  1 4.100000e-01    2.350000e+00
  SP3r   SN3  1 4.100000e-01    2.350000e+00
  SP2r   SN3  1 4.100000e-01    2.350000e+00
  SP1r   SN3  1 4.100000e-01    2.350000e+00
  SN6r   SN3  1 4.100000e-01    2.600000e+00
  SN5r   SN3  1 4.100000e-01    2.600000e+00
  SN4r   SN3  1 4.100000e-01    2.600000e+00
   SN3  SN3r  1 4.100000e-01    2.600000e+00
   SN3 SX1er  1 4.100000e-01    2.350000e+00
   SN3 SX2er  1 4.100000e-01    2.350000e+00
   SN3 SX3er  1 4.100000e-01    2.600000e+00
   SN3 SX4er  1 4.100000e-01    2.840000e+00
   SN3 SC1er  1 4.100000e-01    2.040000e+00
   SN3 SC2er  1 4.100000e-01    2.200000e+00
   SN3 SC3er  1 4.100000e-01    2.200000e+00
   SN3 SC4er  1 4.100000e-01    2.350000e+00
   SN3 SC5er  1 4.100000e-01    2.350000e+00
   SN3 SC6er  1 4.100000e-01    2.600000e+00
   SN3 SX1vr  1 4.100000e-01    2.350000e+00
   SN3 SX2vr  1 4.100000e-01    2.350000e+00
   SN3 SX3vr  1 4.100000e-01    2.600000e+00
   SN3 SX4vr  1 4.100000e-01    2.840000e+00
   SN3 SC1vr  1 4.100000e-01    2.040000e+00
   SN3 SC2vr  1 4.100000e-01    2.200000e+00
   SN3 SC3vr  1 4.100000e-01    2.200000e+00
   SN3 SC4vr  1 4.100000e-01    2.350000e+00
   SN3 SC5vr  1 4.100000e-01    2.350000e+00
   SN3 SC6vr  1 4.100000e-01    2.600000e+00
   SN3 SN1ar  1 4.100000e-01    2.350000e+00
   SN3 SN2ar  1 4.100000e-01    2.600000e+00
   SN3 SN3ar  1 4.100000e-01    2.600000e+00
 SN4ar   SN3  1 4.100000e-01    2.600000e+00
 SN5ar   SN3  1 4.100000e-01    2.600000e+00
 SN6ar   SN3  1 4.100000e-01    2.600000e+00
 SP1ar   SN3  1 4.100000e-01    2.350000e+00
 SP2ar   SN3  1 4.100000e-01    2.350000e+00
 SP3ar   SN3  1 4.100000e-01    2.350000e+00
 SP4ar   SN3  1 4.100000e-01    2.350000e+00
 SP5ar   SN3  1 4.100000e-01    2.200000e+00
 SP6ar   SN3  1 4.100000e-01    2.200000e+00
   SN3 SN1dr  1 4.100000e-01    2.350000e+00
   SN3 SN2dr  1 4.100000e-01    2.600000e+00
   SN3 SN3dr  1 4.100000e-01    2.600000e+00
 SN4dr   SN3  1 4.100000e-01    2.600000e+00
 SN5dr   SN3  1 4.100000e-01    2.600000e+00
 SN6dr   SN3  1 4.100000e-01    2.600000e+00
 SP1dr   SN3  1 4.100000e-01    2.350000e+00
 SP2dr   SN3  1 4.100000e-01    2.350000e+00
 SP3dr   SN3  1 4.100000e-01    2.350000e+00
 SP4dr   SN3  1 4.100000e-01    2.350000e+00
 SP5dr   SN3  1 4.100000e-01    2.200000e+00
 SP6dr   SN3  1 4.100000e-01    2.200000e+00
   SN3  SX1r  1 4.100000e-01    2.200000e+00
   SN3  SX2r  1 4.100000e-01    2.200000e+00
   SN3  SX3r  1 4.100000e-01    2.350000e+00
   SN3  SX4r  1 4.100000e-01    2.600000e+00
   SN3  SC1r  1 4.100000e-01    1.910000e+00
   SN3  SC2r  1 4.100000e-01    2.040000e+00
   SN3  SC3r  1 4.100000e-01    2.040000e+00
   SN3  SC4r  1 4.100000e-01    2.200000e+00
   SN3  SC5r  1 4.100000e-01    2.200000e+00
   SN3  SC6r  1 4.100000e-01    2.350000e+00
   SN3  SN1r  1 4.100000e-01    2.350000e+00
   SN3  SN2r  1 4.100000e-01    2.600000e+00
   SN3   TN3  1 3.650000e-01    2.110000e+00
   SN3   TN2  1 3.650000e-01    2.110000e+00
   SN3   TN1  1 3.650000e-01    1.910000e+00
   SN3   TC6  1 3.650000e-01    1.910000e+00
   SN3   TC5  1 3.650000e-01    1.750000e+00
   SN3   TC4  1 3.650000e-01    1.750000e+00
   SN3   TC3  1 3.660000e-01    1.600000e+00
   SN3   TC2  1 3.660000e-01    1.600000e+00
   SN3   TC1  1 3.780000e-01    1.450000e+00
   SN3   TX4  1 3.650000e-01    2.110000e+00
   SN3   TX3  1 3.650000e-01    1.910000e+00
   SN3   TX2  1 3.650000e-01    1.750000e+00
   SN3   TX1  1 3.650000e-01    1.750000e+00
   SN3  TN3d  1 3.650000e-01    2.110000e+00
   SN3  TN1d  1 3.650000e-01    1.910000e+00
   SN3  TN2d  1 3.650000e-01    2.110000e+00
   SN3  TN3a  1 3.650000e-01    2.110000e+00
   SN3  TN1a  1 3.650000e-01    1.910000e+00
   SN3  TN2a  1 3.650000e-01    2.110000e+00
   SN3  TC6v  1 3.650000e-01    2.110000e+00
   SN3  TC5v  1 3.650000e-01    1.910000e+00
   SN3  TC4v  1 3.650000e-01    1.910000e+00
   SN3  TC3v  1 3.650000e-01    1.750000e+00
   SN3  TC2v  1 3.650000e-01    1.750000e+00
   SN3  TC1v  1 3.660000e-01    1.600000e+00
   SN3  TX4v  1 3.650000e-01    2.340000e+00
   SN3  TX3v  1 3.650000e-01    2.110000e+00
   SN3  TX2v  1 3.650000e-01    1.910000e+00
   SN3  TX1v  1 3.650000e-01    1.910000e+00
   SN3  TC6e  1 3.650000e-01    2.110000e+00
   SN3  TC5e  1 3.650000e-01    1.910000e+00
   SN3  TC4e  1 3.650000e-01    1.910000e+00
   SN3  TC3e  1 3.650000e-01    1.750000e+00
   SN3  TC2e  1 3.650000e-01    1.750000e+00
   SN3  TC1e  1 3.660000e-01    1.600000e+00
   SN3  TX4e  1 3.650000e-01    2.340000e+00
   SN3  TX3e  1 3.650000e-01    2.110000e+00
   SN3  TX2e  1 3.650000e-01    1.910000e+00
   SN3  TX1e  1 3.650000e-01    1.910000e+00
   SN3  TN3q  1 3.650000e-01    2.570000e+00
   SN3 TX1eq  1 3.650000e-01    2.340000e+00
   SN3 TX2eq  1 3.650000e-01    2.340000e+00
   SN3 TX3eq  1 3.650000e-01    2.570000e+00
   SN3 TX4eq  1 3.650000e-01    2.830000e+00
   SN3 TC1eq  1 3.650000e-01    1.910000e+00
   SN3 TC2eq  1 3.650000e-01    2.110000e+00
   SN3 TC3eq  1 3.650000e-01    2.110000e+00
   SN3 TC4eq  1 3.650000e-01    2.340000e+00
   SN3 TC5eq  1 3.650000e-01    2.340000e+00
   SN3 TC6eq  1 3.650000e-01    2.570000e+00
   SN3 TX1vq  1 3.650000e-01    2.340000e+00
   SN3 TX2vq  1 3.650000e-01    2.340000e+00
   SN3 TX3vq  1 3.650000e-01    2.570000e+00
   SN3 TX4vq  1 3.650000e-01    2.830000e+00
   SN3 TC1vq  1 3.650000e-01    1.910000e+00
   SN3 TC2vq  1 3.650000e-01    2.110000e+00
   SN3 TC3vq  1 3.650000e-01    2.110000e+00
   SN3 TC4vq  1 3.650000e-01    2.340000e+00
   SN3 TC5vq  1 3.650000e-01    2.340000e+00
   SN3 TC6vq  1 3.650000e-01    2.570000e+00
   SN3 TN1aq  1 3.650000e-01    2.340000e+00
   SN3 TN2aq  1 3.650000e-01    2.570000e+00
   SN3 TN3aq  1 3.650000e-01    2.570000e+00
   SN3 TN1dq  1 3.650000e-01    2.340000e+00
   SN3 TN2dq  1 3.650000e-01    2.570000e+00
   SN3 TN3dq  1 3.650000e-01    2.570000e+00
   SN3  TX1q  1 3.650000e-01    2.110000e+00
   SN3  TX2q  1 3.650000e-01    2.110000e+00
   SN3  TX3q  1 3.650000e-01    2.340000e+00
   SN3  TX4q  1 3.650000e-01    2.570000e+00
   SN3  TC1q  1 3.650000e-01    1.750000e+00
   SN3  TC2q  1 3.650000e-01    1.910000e+00
   SN3  TC3q  1 3.650000e-01    1.910000e+00
   SN3  TC4q  1 3.650000e-01    2.110000e+00
   SN3  TC5q  1 3.650000e-01    2.110000e+00
   SN3  TC6q  1 3.650000e-01    2.340000e+00
   SN3  TN1q  1 3.650000e-01    2.340000e+00
   SN3  TN2q  1 3.650000e-01    2.570000e+00
   SN3  TN3h  1 3.650000e-01    2.110000e+00
   SN3 TX1eh  1 3.650000e-01    1.910000e+00
   SN3 TX2eh  1 3.650000e-01    1.910000e+00
   SN3 TX3eh  1 3.650000e-01    2.110000e+00
   SN3 TX4eh  1 3.650000e-01    2.340000e+00
   SN3 TC1eh  1 3.660000e-01    1.600000e+00
   SN3 TC2eh  1 3.650000e-01    1.750000e+00
   SN3 TC3eh  1 3.650000e-01    1.750000e+00
   SN3 TC4eh  1 3.650000e-01    1.910000e+00
   SN3 TC5eh  1 3.650000e-01    1.910000e+00
   SN3 TC6eh  1 3.650000e-01    2.110000e+00
   SN3 TX1vh  1 3.650000e-01    1.910000e+00
   SN3 TX2vh  1 3.650000e-01    1.910000e+00
   SN3 TX3vh  1 3.650000e-01    2.110000e+00
   SN3 TX4vh  1 3.650000e-01    2.340000e+00
   SN3 TC1vh  1 3.660000e-01    1.600000e+00
   SN3 TC2vh  1 3.650000e-01    1.750000e+00
   SN3 TC3vh  1 3.650000e-01    1.750000e+00
   SN3 TC4vh  1 3.650000e-01    1.910000e+00
   SN3 TC5vh  1 3.650000e-01    1.910000e+00
   SN3 TC6vh  1 3.650000e-01    2.110000e+00
   SN3 TN1ah  1 3.650000e-01    1.910000e+00
   SN3 TN2ah  1 3.650000e-01    2.110000e+00
   SN3 TN3ah  1 3.650000e-01    2.110000e+00
   SN3 TN1dh  1 3.650000e-01    1.910000e+00
   SN3 TN2dh  1 3.650000e-01    2.110000e+00
   SN3 TN3dh  1 3.650000e-01    2.110000e+00
   SN3  TX1h  1 3.650000e-01    1.750000e+00
   SN3  TX2h  1 3.650000e-01    1.750000e+00
   SN3  TX3h  1 3.650000e-01    1.910000e+00
   SN3  TX4h  1 3.650000e-01    2.110000e+00
   SN3  TC1h  1 3.780000e-01    1.450000e+00
   SN3  TC2h  1 3.660000e-01    1.600000e+00
   SN3  TC3h  1 3.660000e-01    1.600000e+00
   SN3  TC4h  1 3.650000e-01    1.750000e+00
   SN3  TC5h  1 3.650000e-01    1.750000e+00
   SN3  TC6h  1 3.650000e-01    1.910000e+00
   SN3  TN1h  1 3.650000e-01    1.910000e+00
   SN3  TN2h  1 3.650000e-01    2.110000e+00
   SN3  TN3r  1 3.650000e-01    2.110000e+00
   SN3 TX1er  1 3.650000e-01    1.910000e+00
   SN3 TX2er  1 3.650000e-01    1.910000e+00
   SN3 TX3er  1 3.650000e-01    2.110000e+00
   SN3 TX4er  1 3.650000e-01    2.340000e+00
   SN3 TC1er  1 3.660000e-01    1.600000e+00
   SN3 TC2er  1 3.650000e-01    1.750000e+00
   SN3 TC3er  1 3.650000e-01    1.750000e+00
   SN3 TC4er  1 3.650000e-01    1.910000e+00
   SN3 TC5er  1 3.650000e-01    1.910000e+00
   SN3 TC6er  1 3.650000e-01    2.110000e+00
   SN3 TX1vr  1 3.650000e-01    1.910000e+00
   SN3 TX2vr  1 3.650000e-01    1.910000e+00
   SN3 TX3vr  1 3.650000e-01    2.110000e+00
   SN3 TX4vr  1 3.650000e-01    2.340000e+00
   SN3 TC1vr  1 3.660000e-01    1.600000e+00
   SN3 TC2vr  1 3.650000e-01    1.750000e+00
   SN3 TC3vr  1 3.650000e-01    1.750000e+00
   SN3 TC4vr  1 3.650000e-01    1.910000e+00
   SN3 TC5vr  1 3.650000e-01    1.910000e+00
   SN3 TC6vr  1 3.650000e-01    2.110000e+00
   SN3 TN1ar  1 3.650000e-01    1.910000e+00
   SN3 TN2ar  1 3.650000e-01    2.110000e+00
   SN3 TN3ar  1 3.650000e-01    2.110000e+00
   SN3 TN1dr  1 3.650000e-01    1.910000e+00
   SN3 TN2dr  1 3.650000e-01    2.110000e+00
   SN3 TN3dr  1 3.650000e-01    2.110000e+00
   SN3  TX1r  1 3.650000e-01    1.750000e+00
   SN3  TX2r  1 3.650000e-01    1.750000e+00
   SN3  TX3r  1 3.650000e-01    1.910000e+00
   SN3  TX4r  1 3.650000e-01    2.110000e+00
   SN3  TC1r  1 3.780000e-01    1.450000e+00
   SN3  TC2r  1 3.660000e-01    1.600000e+00
   SN3  TC3r  1 3.660000e-01    1.600000e+00
   SN3  TC4r  1 3.650000e-01    1.750000e+00
   SN3  TC5r  1 3.650000e-01    1.750000e+00
   SN3  TC6r  1 3.650000e-01    1.910000e+00
   SN3  TN1r  1 3.650000e-01    1.910000e+00
   SN3  TN2r  1 3.650000e-01    2.110000e+00
  TP6d   SN3  1 3.650000e-01    1.750000e+00
  TP5d   SN3  1 3.650000e-01    1.750000e+00
  TP4d   SN3  1 3.650000e-01    1.910000e+00
  TP3d   SN3  1 3.650000e-01    1.910000e+00
  TP2d   SN3  1 3.650000e-01    1.910000e+00
  TP1d   SN3  1 3.650000e-01    1.910000e+00
  TN6d   SN3  1 3.650000e-01    2.110000e+00
  TN5d   SN3  1 3.650000e-01    2.110000e+00
  TN4d   SN3  1 3.650000e-01    2.110000e+00
  TP6a   SN3  1 3.650000e-01    1.750000e+00
  TP5a   SN3  1 3.650000e-01    1.750000e+00
  TP4a   SN3  1 3.650000e-01    1.910000e+00
  TP3a   SN3  1 3.650000e-01    1.910000e+00
  TP2a   SN3  1 3.650000e-01    1.910000e+00
  TP1a   SN3  1 3.650000e-01    1.910000e+00
  TN6a   SN3  1 3.650000e-01    2.110000e+00
  TN5a   SN3  1 3.650000e-01    2.110000e+00
  TN4a   SN3  1 3.650000e-01    2.110000e+00
  TP6q   SN3  1 3.650000e-01    2.110000e+00
  TP5q   SN3  1 3.650000e-01    2.110000e+00
  TP4q   SN3  1 3.650000e-01    2.340000e+00
  TP3q   SN3  1 3.650000e-01    2.340000e+00
  TP2q   SN3  1 3.650000e-01    2.340000e+00
  TP1q   SN3  1 3.650000e-01    2.340000e+00
  TN6q   SN3  1 3.650000e-01    2.570000e+00
  TN5q   SN3  1 3.650000e-01    2.570000e+00
  TN4q   SN3  1 3.650000e-01    2.570000e+00
 TN4aq   SN3  1 3.650000e-01    2.570000e+00
 TN5aq   SN3  1 3.650000e-01    2.570000e+00
 TN6aq   SN3  1 3.650000e-01    2.570000e+00
 TP1aq   SN3  1 3.650000e-01    2.340000e+00
 TP2aq   SN3  1 3.650000e-01    2.340000e+00
 TP3aq   SN3  1 3.650000e-01    2.340000e+00
 TP4aq   SN3  1 3.650000e-01    2.340000e+00
 TP5aq   SN3  1 3.650000e-01    2.110000e+00
 TP6aq   SN3  1 3.650000e-01    2.110000e+00
 TN4dq   SN3  1 3.650000e-01    2.570000e+00
 TN5dq   SN3  1 3.650000e-01    2.570000e+00
 TN6dq   SN3  1 3.650000e-01    2.570000e+00
 TP1dq   SN3  1 3.650000e-01    2.340000e+00
 TP2dq   SN3  1 3.650000e-01    2.340000e+00
 TP3dq   SN3  1 3.650000e-01    2.340000e+00
 TP4dq   SN3  1 3.650000e-01    2.340000e+00
 TP5dq   SN3  1 3.650000e-01    2.110000e+00
 TP6dq   SN3  1 3.650000e-01    2.110000e+00
  TP6h   SN3  1 3.650000e-01    1.750000e+00
  TP5h   SN3  1 3.650000e-01    1.750000e+00
  TP4h   SN3  1 3.650000e-01    1.910000e+00
  TP3h   SN3  1 3.650000e-01    1.910000e+00
  TP2h   SN3  1 3.650000e-01    1.910000e+00
  TP1h   SN3  1 3.650000e-01    1.910000e+00
  TN6h   SN3  1 3.650000e-01    2.110000e+00
  TN5h   SN3  1 3.650000e-01    2.110000e+00
  TN4h   SN3  1 3.650000e-01    2.110000e+00
 TN4ah   SN3  1 3.650000e-01    2.110000e+00
 TN5ah   SN3  1 3.650000e-01    2.110000e+00
 TN6ah   SN3  1 3.650000e-01    2.110000e+00
 TP1ah   SN3  1 3.650000e-01    1.910000e+00
 TP2ah   SN3  1 3.650000e-01    1.910000e+00
 TP3ah   SN3  1 3.650000e-01    1.910000e+00
 TP4ah   SN3  1 3.650000e-01    1.910000e+00
 TP5ah   SN3  1 3.650000e-01    1.750000e+00
 TP6ah   SN3  1 3.650000e-01    1.750000e+00
 TN4dh   SN3  1 3.650000e-01    2.110000e+00
 TN5dh   SN3  1 3.650000e-01    2.110000e+00
 TN6dh   SN3  1 3.650000e-01    2.110000e+00
 TP1dh   SN3  1 3.650000e-01    1.910000e+00
 TP2dh   SN3  1 3.650000e-01    1.910000e+00
 TP3dh   SN3  1 3.650000e-01    1.910000e+00
 TP4dh   SN3  1 3.650000e-01    1.910000e+00
 TP5dh   SN3  1 3.650000e-01    1.750000e+00
 TP6dh   SN3  1 3.650000e-01    1.750000e+00
  TP6r   SN3  1 3.650000e-01    1.750000e+00
  TP5r   SN3  1 3.650000e-01    1.750000e+00
  TP4r   SN3  1 3.650000e-01    1.910000e+00
  TP3r   SN3  1 3.650000e-01    1.910000e+00
  TP2r   SN3  1 3.650000e-01    1.910000e+00
  TP1r   SN3  1 3.650000e-01    1.910000e+00
  TN6r   SN3  1 3.650000e-01    2.110000e+00
  TN5r   SN3  1 3.650000e-01    2.110000e+00
  TN4r   SN3  1 3.650000e-01    2.110000e+00
 TN4ar   SN3  1 3.650000e-01    2.110000e+00
 TN5ar   SN3  1 3.650000e-01    2.110000e+00
 TN6ar   SN3  1 3.650000e-01    2.110000e+00
 TP1ar   SN3  1 3.650000e-01    1.910000e+00
 TP2ar   SN3  1 3.650000e-01    1.910000e+00
 TP3ar   SN3  1 3.650000e-01    1.910000e+00
 TP4ar   SN3  1 3.650000e-01    1.910000e+00
 TP5ar   SN3  1 3.650000e-01    1.750000e+00
 TP6ar   SN3  1 3.650000e-01    1.750000e+00
 TN4dr   SN3  1 3.650000e-01    2.110000e+00
 TN5dr   SN3  1 3.650000e-01    2.110000e+00
 TN6dr   SN3  1 3.650000e-01    2.110000e+00
 TP1dr   SN3  1 3.650000e-01    1.910000e+00
 TP2dr   SN3  1 3.650000e-01    1.910000e+00
 TP3dr   SN3  1 3.650000e-01    1.910000e+00
 TP4dr   SN3  1 3.650000e-01    1.910000e+00
 TP5dr   SN3  1 3.650000e-01    1.750000e+00
 TP6dr   SN3  1 3.650000e-01    1.750000e+00
   P6d   TN3  1 3.950000e-01    2.110000e+00
   P5d   TN3  1 3.950000e-01    2.110000e+00
   P4d   TN3  1 3.950000e-01    2.310000e+00
   P3d   TN3  1 3.950000e-01    2.310000e+00
   P2d   TN3  1 3.950000e-01    2.310000e+00
   P1d   TN3  1 3.950000e-01    2.310000e+00
   N6d   TN3  1 3.950000e-01    2.500000e+00
   N5d   TN3  1 3.950000e-01    2.500000e+00
   N4d   TN3  1 3.950000e-01    2.500000e+00
   P6a   TN3  1 3.950000e-01    2.110000e+00
   P5a   TN3  1 3.950000e-01    2.110000e+00
   P4a   TN3  1 3.950000e-01    2.310000e+00
   P3a   TN3  1 3.950000e-01    2.310000e+00
   P2a   TN3  1 3.950000e-01    2.310000e+00
   P1a   TN3  1 3.950000e-01    2.310000e+00
   N6a   TN3  1 3.950000e-01    2.500000e+00
   N5a   TN3  1 3.950000e-01    2.500000e+00
   N4a   TN3  1 3.950000e-01    2.500000e+00
   P6q   TN3  1 3.950000e-01    2.500000e+00
   P5q   TN3  1 3.950000e-01    2.500000e+00
   P4q   TN3  1 3.950000e-01    2.700000e+00
   P3q   TN3  1 3.950000e-01    2.700000e+00
   P2q   TN3  1 3.950000e-01    2.700000e+00
   P1q   TN3  1 3.950000e-01    2.700000e+00
   N6q   TN3  1 3.950000e-01    2.940000e+00
   N5q   TN3  1 3.950000e-01    2.940000e+00
   N4q   TN3  1 3.950000e-01    2.940000e+00
  N4aq   TN3  1 3.950000e-01    2.940000e+00
  N5aq   TN3  1 3.950000e-01    2.940000e+00
  N6aq   TN3  1 3.950000e-01    2.940000e+00
  P1aq   TN3  1 3.950000e-01    2.700000e+00
  P2aq   TN3  1 3.950000e-01    2.700000e+00
  P3aq   TN3  1 3.950000e-01    2.700000e+00
  P4aq   TN3  1 3.950000e-01    2.700000e+00
  P5aq   TN3  1 3.950000e-01    2.500000e+00
  P6aq   TN3  1 3.950000e-01    2.500000e+00
  N4dq   TN3  1 3.950000e-01    2.940000e+00
  N5dq   TN3  1 3.950000e-01    2.940000e+00
  N6dq   TN3  1 3.950000e-01    2.940000e+00
  P1dq   TN3  1 3.950000e-01    2.700000e+00
  P2dq   TN3  1 3.950000e-01    2.700000e+00
  P3dq   TN3  1 3.950000e-01    2.700000e+00
  P4dq   TN3  1 3.950000e-01    2.700000e+00
  P5dq   TN3  1 3.950000e-01    2.500000e+00
  P6dq   TN3  1 3.950000e-01    2.500000e+00
   P6h   TN3  1 3.950000e-01    2.110000e+00
   P5h   TN3  1 3.950000e-01    2.110000e+00
   P4h   TN3  1 3.950000e-01    2.310000e+00
   P3h   TN3  1 3.950000e-01    2.310000e+00
   P2h   TN3  1 3.950000e-01    2.310000e+00
   P1h   TN3  1 3.950000e-01    2.310000e+00
   N6h   TN3  1 3.950000e-01    2.500000e+00
   N5h   TN3  1 3.950000e-01    2.500000e+00
   N4h   TN3  1 3.950000e-01    2.500000e+00
  N4ah   TN3  1 3.950000e-01    2.500000e+00
  N5ah   TN3  1 3.950000e-01    2.500000e+00
  N6ah   TN3  1 3.950000e-01    2.500000e+00
  P1ah   TN3  1 3.950000e-01    2.310000e+00
  P2ah   TN3  1 3.950000e-01    2.310000e+00
  P3ah   TN3  1 3.950000e-01    2.310000e+00
  P4ah   TN3  1 3.950000e-01    2.310000e+00
  P5ah   TN3  1 3.950000e-01    2.110000e+00
  P6ah   TN3  1 3.950000e-01    2.110000e+00
  N4dh   TN3  1 3.950000e-01    2.500000e+00
  N5dh   TN3  1 3.950000e-01    2.500000e+00
  N6dh   TN3  1 3.950000e-01    2.500000e+00
  P1dh   TN3  1 3.950000e-01    2.310000e+00
  P2dh   TN3  1 3.950000e-01    2.310000e+00
  P3dh   TN3  1 3.950000e-01    2.310000e+00
  P4dh   TN3  1 3.950000e-01    2.310000e+00
  P5dh   TN3  1 3.950000e-01    2.110000e+00
  P6dh   TN3  1 3.950000e-01    2.110000e+00
   P6r   TN3  1 3.950000e-01    2.110000e+00
   P5r   TN3  1 3.950000e-01    2.110000e+00
   P4r   TN3  1 3.950000e-01    2.310000e+00
   P3r   TN3  1 3.950000e-01    2.310000e+00
   P2r   TN3  1 3.950000e-01    2.310000e+00
   P1r   TN3  1 3.950000e-01    2.310000e+00
   N6r   TN3  1 3.950000e-01    2.500000e+00
   N5r   TN3  1 3.950000e-01    2.500000e+00
   N4r   TN3  1 3.950000e-01    2.500000e+00
  N4ar   TN3  1 3.950000e-01    2.500000e+00
  N5ar   TN3  1 3.950000e-01    2.500000e+00
  N6ar   TN3  1 3.950000e-01    2.500000e+00
  P1ar   TN3  1 3.950000e-01    2.310000e+00
  P2ar   TN3  1 3.950000e-01    2.310000e+00
  P3ar   TN3  1 3.950000e-01    2.310000e+00
  P4ar   TN3  1 3.950000e-01    2.310000e+00
  P5ar   TN3  1 3.950000e-01    2.110000e+00
  P6ar   TN3  1 3.950000e-01    2.110000e+00
  N4dr   TN3  1 3.950000e-01    2.500000e+00
  N5dr   TN3  1 3.950000e-01    2.500000e+00
  N6dr   TN3  1 3.950000e-01    2.500000e+00
  P1dr   TN3  1 3.950000e-01    2.310000e+00
  P2dr   TN3  1 3.950000e-01    2.310000e+00
  P3dr   TN3  1 3.950000e-01    2.310000e+00
  P4dr   TN3  1 3.950000e-01    2.310000e+00
  P5dr   TN3  1 3.950000e-01    2.110000e+00
  P6dr   TN3  1 3.950000e-01    2.110000e+00
   TN3    N2  1 3.950000e-01    2.500000e+00
   TN3    N1  1 3.950000e-01    2.310000e+00
   TN3    C6  1 3.950000e-01    2.310000e+00
   TN3    C5  1 3.950000e-01    2.110000e+00
   TN3    C4  1 3.950000e-01    2.110000e+00
   TN3    C3  1 3.950000e-01    1.850000e+00
   TN3    C2  1 3.950000e-01    1.850000e+00
   TN3    C1  1 3.950000e-01    1.670000e+00
   TN3    X4  1 3.950000e-01    2.500000e+00
   TN3    X3  1 3.950000e-01    2.310000e+00
   TN3    X2  1 3.950000e-01    2.110000e+00
   TN3    X1  1 3.950000e-01    2.110000e+00
   TN3   N3d  1 3.950000e-01    2.500000e+00
   TN3   N1d  1 3.950000e-01    2.310000e+00
   TN3   N2d  1 3.950000e-01    2.500000e+00
   TN3   N3a  1 3.950000e-01    2.500000e+00
   TN3   N1a  1 3.950000e-01    2.310000e+00
   TN3   N2a  1 3.950000e-01    2.500000e+00
   TN3   C6v  1 3.950000e-01    2.500000e+00
   TN3   C5v  1 3.950000e-01    2.310000e+00
   TN3   C4v  1 3.950000e-01    2.310000e+00
   TN3   C3v  1 3.950000e-01    2.110000e+00
   TN3   C2v  1 3.950000e-01    2.110000e+00
   TN3   C1v  1 3.950000e-01    1.850000e+00
   TN3   X4v  1 3.950000e-01    2.700000e+00
   TN3   X3v  1 3.950000e-01    2.500000e+00
   TN3   X2v  1 3.950000e-01    2.310000e+00
   TN3   X1v  1 3.950000e-01    2.310000e+00
   TN3   C6e  1 3.950000e-01    2.500000e+00
   TN3   C5e  1 3.950000e-01    2.310000e+00
   TN3   C4e  1 3.950000e-01    2.310000e+00
   TN3   C3e  1 3.950000e-01    2.110000e+00
   TN3   C2e  1 3.950000e-01    2.110000e+00
   TN3   C1e  1 3.950000e-01    1.850000e+00
   TN3   X4e  1 3.950000e-01    2.700000e+00
   TN3   X3e  1 3.950000e-01    2.500000e+00
   TN3   X2e  1 3.950000e-01    2.310000e+00
   TN3   X1e  1 3.950000e-01    2.310000e+00
   TN3   N3q  1 3.950000e-01    2.940000e+00
   TN3  X1eq  1 3.950000e-01    2.700000e+00
   TN3  X2eq  1 3.950000e-01    2.700000e+00
   TN3  X3eq  1 3.950000e-01    2.940000e+00
   TN3  X4eq  1 3.950000e-01    3.190000e+00
   TN3  C1eq  1 3.950000e-01    2.310000e+00
   TN3  C2eq  1 3.950000e-01    2.500000e+00
   TN3  C3eq  1 3.950000e-01    2.500000e+00
   TN3  C4eq  1 3.950000e-01    2.700000e+00
   TN3  C5eq  1 3.950000e-01    2.700000e+00
   TN3  C6eq  1 3.950000e-01    2.940000e+00
   TN3  X1vq  1 3.950000e-01    2.700000e+00
   TN3  X2vq  1 3.950000e-01    2.700000e+00
   TN3  X3vq  1 3.950000e-01    2.940000e+00
   TN3  X4vq  1 3.950000e-01    3.190000e+00
   TN3  C1vq  1 3.950000e-01    2.310000e+00
   TN3  C2vq  1 3.950000e-01    2.500000e+00
   TN3  C3vq  1 3.950000e-01    2.500000e+00
   TN3  C4vq  1 3.950000e-01    2.700000e+00
   TN3  C5vq  1 3.950000e-01    2.700000e+00
   TN3  C6vq  1 3.950000e-01    2.940000e+00
   TN3  N1aq  1 3.950000e-01    2.700000e+00
   TN3  N2aq  1 3.950000e-01    2.940000e+00
   TN3  N3aq  1 3.950000e-01    2.940000e+00
   TN3  N1dq  1 3.950000e-01    2.700000e+00
   TN3  N2dq  1 3.950000e-01    2.940000e+00
   TN3  N3dq  1 3.950000e-01    2.940000e+00
   TN3   X1q  1 3.950000e-01    2.500000e+00
   TN3   X2q  1 3.950000e-01    2.500000e+00
   TN3   X3q  1 3.950000e-01    2.700000e+00
   TN3   X4q  1 3.950000e-01    2.940000e+00
   TN3   C1q  1 3.950000e-01    2.110000e+00
   TN3   C2q  1 3.950000e-01    2.310000e+00
   TN3   C3q  1 3.950000e-01    2.310000e+00
   TN3   C4q  1 3.950000e-01    2.500000e+00
   TN3   C5q  1 3.950000e-01    2.500000e+00
   TN3   C6q  1 3.950000e-01    2.700000e+00
   TN3   N1q  1 3.950000e-01    2.700000e+00
   TN3   N2q  1 3.950000e-01    2.940000e+00
   TN3   N3h  1 3.950000e-01    2.500000e+00
   TN3  X1eh  1 3.950000e-01    2.310000e+00
   TN3  X2eh  1 3.950000e-01    2.310000e+00
   TN3  X3eh  1 3.950000e-01    2.500000e+00
   TN3  X4eh  1 3.950000e-01    2.700000e+00
   TN3  C1eh  1 3.950000e-01    1.850000e+00
   TN3  C2eh  1 3.950000e-01    2.110000e+00
   TN3  C3eh  1 3.950000e-01    2.110000e+00
   TN3  C4eh  1 3.950000e-01    2.310000e+00
   TN3  C5eh  1 3.950000e-01    2.310000e+00
   TN3  C6eh  1 3.950000e-01    2.500000e+00
   TN3  X1vh  1 3.950000e-01    2.310000e+00
   TN3  X2vh  1 3.950000e-01    2.310000e+00
   TN3  X3vh  1 3.950000e-01    2.500000e+00
   TN3  X4vh  1 3.950000e-01    2.700000e+00
   TN3  C1vh  1 3.950000e-01    1.850000e+00
   TN3  C2vh  1 3.950000e-01    2.110000e+00
   TN3  C3vh  1 3.950000e-01    2.110000e+00
   TN3  C4vh  1 3.950000e-01    2.310000e+00
   TN3  C5vh  1 3.950000e-01    2.310000e+00
   TN3  C6vh  1 3.950000e-01    2.500000e+00
   TN3  N1ah  1 3.950000e-01    2.310000e+00
   TN3  N2ah  1 3.950000e-01    2.500000e+00
   TN3  N3ah  1 3.950000e-01    2.500000e+00
   TN3  N1dh  1 3.950000e-01    2.310000e+00
   TN3  N2dh  1 3.950000e-01    2.500000e+00
   TN3  N3dh  1 3.950000e-01    2.500000e+00
   TN3   X1h  1 3.950000e-01    2.110000e+00
   TN3   X2h  1 3.950000e-01    2.110000e+00
   TN3   X3h  1 3.950000e-01    2.310000e+00
   TN3   X4h  1 3.950000e-01    2.500000e+00
   TN3   C1h  1 3.950000e-01    1.670000e+00
   TN3   C2h  1 3.950000e-01    1.850000e+00
   TN3   C3h  1 3.950000e-01    1.850000e+00
   TN3   C4h  1 3.950000e-01    2.110000e+00
   TN3   C5h  1 3.950000e-01    2.110000e+00
   TN3   C6h  1 3.950000e-01    2.310000e+00
   TN3   N1h  1 3.950000e-01    2.310000e+00
   TN3   N2h  1 3.950000e-01    2.500000e+00
   TN3   N3r  1 3.950000e-01    2.500000e+00
   TN3  X1er  1 3.950000e-01    2.310000e+00
   TN3  X2er  1 3.950000e-01    2.310000e+00
   TN3  X3er  1 3.950000e-01    2.500000e+00
   TN3  X4er  1 3.950000e-01    2.700000e+00
   TN3  C1er  1 3.950000e-01    1.850000e+00
   TN3  C2er  1 3.950000e-01    2.110000e+00
   TN3  C3er  1 3.950000e-01    2.110000e+00
   TN3  C4er  1 3.950000e-01    2.310000e+00
   TN3  C5er  1 3.950000e-01    2.310000e+00
   TN3  C6er  1 3.950000e-01    2.500000e+00
   TN3  X1vr  1 3.950000e-01    2.310000e+00
   TN3  X2vr  1 3.950000e-01    2.310000e+00
   TN3  X3vr  1 3.950000e-01    2.500000e+00
   TN3  X4vr  1 3.950000e-01    2.700000e+00
   TN3  C1vr  1 3.950000e-01    1.850000e+00
   TN3  C2vr  1 3.950000e-01    2.110000e+00
   TN3  C3vr  1 3.950000e-01    2.110000e+00
   TN3  C4vr  1 3.950000e-01    2.310000e+00
   TN3  C5vr  1 3.950000e-01    2.310000e+00
   TN3  C6vr  1 3.950000e-01    2.500000e+00
   TN3  N1ar  1 3.950000e-01    2.310000e+00
   TN3  N2ar  1 3.950000e-01    2.500000e+00
   TN3  N3ar  1 3.950000e-01    2.500000e+00
   TN3  N1dr  1 3.950000e-01    2.310000e+00
   TN3  N2dr  1 3.950000e-01    2.500000e+00
   TN3  N3dr  1 3.950000e-01    2.500000e+00
   TN3   X1r  1 3.950000e-01    2.110000e+00
   TN3   X2r  1 3.950000e-01    2.110000e+00
   TN3   X3r  1 3.950000e-01    2.310000e+00
   TN3   X4r  1 3.950000e-01    2.500000e+00
   TN3   C1r  1 3.950000e-01    1.670000e+00
   TN3   C2r  1 3.950000e-01    1.850000e+00
   TN3   C3r  1 3.950000e-01    1.850000e+00
   TN3   C4r  1 3.950000e-01    2.110000e+00
   TN3   C5r  1 3.950000e-01    2.110000e+00
   TN3   C6r  1 3.950000e-01    2.310000e+00
   TN3   N1r  1 3.950000e-01    2.310000e+00
   TN3   N2r  1 3.950000e-01    2.500000e+00
   TN3   TN3  1 3.400000e-01    1.770000e+00
   TN3   TN2  1 3.400000e-01    1.770000e+00
   TN3   TN1  1 3.400000e-01    1.510000e+00
   TN3   TC6  1 3.400000e-01    1.510000e+00
   TN3   TC5  1 3.400000e-01    1.230000e+00
   TN3   TC4  1 3.400000e-01    1.230000e+00
   TN3   TC3  1 3.520000e-01    1.050000e+00
   TN3   TC2  1 3.520000e-01    1.050000e+00
   TN3   TC1  1 3.660000e-01    9.350000e-01
   TN3   TX4  1 3.400000e-01    1.770000e+00
   TN3   TX3  1 3.400000e-01    1.510000e+00
   TN3   TX2  1 3.400000e-01    1.230000e+00
   TN3   TX1  1 3.400000e-01    1.230000e+00
  TP6d   TN3  1 3.400000e-01    1.230000e+00
  TP5d   TN3  1 3.400000e-01    1.230000e+00
  TP4d   TN3  1 3.400000e-01    1.510000e+00
  TP3d   TN3  1 3.400000e-01    1.510000e+00
  TP2d   TN3  1 3.400000e-01    1.510000e+00
  TP1d   TN3  1 3.400000e-01    1.510000e+00
  TN6d   TN3  1 3.400000e-01    1.770000e+00
  TN5d   TN3  1 3.400000e-01    1.770000e+00
  TN4d   TN3  1 3.400000e-01    1.770000e+00
   TN3  TN3d  1 3.400000e-01    1.770000e+00
   TN3  TN1d  1 3.400000e-01    1.510000e+00
   TN3  TN2d  1 3.400000e-01    1.770000e+00
  TP6a   TN3  1 3.400000e-01    1.230000e+00
  TP5a   TN3  1 3.400000e-01    1.230000e+00
  TP4a   TN3  1 3.400000e-01    1.510000e+00
  TP3a   TN3  1 3.400000e-01    1.510000e+00
  TP2a   TN3  1 3.400000e-01    1.510000e+00
  TP1a   TN3  1 3.400000e-01    1.510000e+00
  TN6a   TN3  1 3.400000e-01    1.770000e+00
  TN5a   TN3  1 3.400000e-01    1.770000e+00
  TN4a   TN3  1 3.400000e-01    1.770000e+00
   TN3  TN3a  1 3.400000e-01    1.770000e+00
   TN3  TN1a  1 3.400000e-01    1.510000e+00
   TN3  TN2a  1 3.400000e-01    1.770000e+00
   TN3  TC6v  1 3.400000e-01    1.770000e+00
   TN3  TC5v  1 3.400000e-01    1.510000e+00
   TN3  TC4v  1 3.400000e-01    1.510000e+00
   TN3  TC3v  1 3.400000e-01    1.230000e+00
   TN3  TC2v  1 3.400000e-01    1.230000e+00
   TN3  TC1v  1 3.520000e-01    1.050000e+00
   TN3  TX4v  1 3.400000e-01    2.020000e+00
   TN3  TX3v  1 3.400000e-01    1.770000e+00
   TN3  TX2v  1 3.400000e-01    1.510000e+00
   TN3  TX1v  1 3.400000e-01    1.510000e+00
   TN3  TC6e  1 3.400000e-01    1.770000e+00
   TN3  TC5e  1 3.400000e-01    1.510000e+00
   TN3  TC4e  1 3.400000e-01    1.510000e+00
   TN3  TC3e  1 3.400000e-01    1.230000e+00
   TN3  TC2e  1 3.400000e-01    1.230000e+00
   TN3  TC1e  1 3.520000e-01    1.050000e+00
   TN3  TX4e  1 3.400000e-01    2.020000e+00
   TN3  TX3e  1 3.400000e-01    1.770000e+00
   TN3  TX2e  1 3.400000e-01    1.510000e+00
   TN3  TX1e  1 3.400000e-01    1.510000e+00
  TP6q   TN3  1 3.400000e-01    1.770000e+00
  TP5q   TN3  1 3.400000e-01    1.770000e+00
  TP4q   TN3  1 3.400000e-01    2.020000e+00
  TP3q   TN3  1 3.400000e-01    2.020000e+00
  TP2q   TN3  1 3.400000e-01    2.020000e+00
  TP1q   TN3  1 3.400000e-01    2.020000e+00
  TN6q   TN3  1 3.400000e-01    2.280000e+00
  TN5q   TN3  1 3.400000e-01    2.280000e+00
  TN4q   TN3  1 3.400000e-01    2.280000e+00
   TN3  TN3q  1 3.400000e-01    2.280000e+00
   TN3 TX1eq  1 3.400000e-01    2.020000e+00
   TN3 TX2eq  1 3.400000e-01    2.020000e+00
   TN3 TX3eq  1 3.400000e-01    2.280000e+00
   TN3 TX4eq  1 3.400000e-01    2.500000e+00
   TN3 TC1eq  1 3.400000e-01    1.510000e+00
   TN3 TC2eq  1 3.400000e-01    1.770000e+00
   TN3 TC3eq  1 3.400000e-01    1.770000e+00
   TN3 TC4eq  1 3.400000e-01    2.020000e+00
   TN3 TC5eq  1 3.400000e-01    2.020000e+00
   TN3 TC6eq  1 3.400000e-01    2.280000e+00
   TN3 TX1vq  1 3.400000e-01    2.020000e+00
   TN3 TX2vq  1 3.400000e-01    2.020000e+00
   TN3 TX3vq  1 3.400000e-01    2.280000e+00
   TN3 TX4vq  1 3.400000e-01    2.500000e+00
   TN3 TC1vq  1 3.400000e-01    1.510000e+00
   TN3 TC2vq  1 3.400000e-01    1.770000e+00
   TN3 TC3vq  1 3.400000e-01    1.770000e+00
   TN3 TC4vq  1 3.400000e-01    2.020000e+00
   TN3 TC5vq  1 3.400000e-01    2.020000e+00
   TN3 TC6vq  1 3.400000e-01    2.280000e+00
   TN3 TN1aq  1 3.400000e-01    2.020000e+00
   TN3 TN2aq  1 3.400000e-01    2.280000e+00
   TN3 TN3aq  1 3.400000e-01    2.280000e+00
 TN4aq   TN3  1 3.400000e-01    2.280000e+00
 TN5aq   TN3  1 3.400000e-01    2.280000e+00
 TN6aq   TN3  1 3.400000e-01    2.280000e+00
 TP1aq   TN3  1 3.400000e-01    2.020000e+00
 TP2aq   TN3  1 3.400000e-01    2.020000e+00
 TP3aq   TN3  1 3.400000e-01    2.020000e+00
 TP4aq   TN3  1 3.400000e-01    2.020000e+00
 TP5aq   TN3  1 3.400000e-01    1.770000e+00
 TP6aq   TN3  1 3.400000e-01    1.770000e+00
   TN3 TN1dq  1 3.400000e-01    2.020000e+00
   TN3 TN2dq  1 3.400000e-01    2.280000e+00
   TN3 TN3dq  1 3.400000e-01    2.280000e+00
 TN4dq   TN3  1 3.400000e-01    2.280000e+00
 TN5dq   TN3  1 3.400000e-01    2.280000e+00
 TN6dq   TN3  1 3.400000e-01    2.280000e+00
 TP1dq   TN3  1 3.400000e-01    2.020000e+00
 TP2dq   TN3  1 3.400000e-01    2.020000e+00
 TP3dq   TN3  1 3.400000e-01    2.020000e+00
 TP4dq   TN3  1 3.400000e-01    2.020000e+00
 TP5dq   TN3  1 3.400000e-01    1.770000e+00
 TP6dq   TN3  1 3.400000e-01    1.770000e+00
   TN3  TX1q  1 3.400000e-01    1.770000e+00
   TN3  TX2q  1 3.400000e-01    1.770000e+00
   TN3  TX3q  1 3.400000e-01    2.020000e+00
   TN3  TX4q  1 3.400000e-01    2.280000e+00
   TN3  TC1q  1 3.400000e-01    1.230000e+00
   TN3  TC2q  1 3.400000e-01    1.510000e+00
   TN3  TC3q  1 3.400000e-01    1.510000e+00
   TN3  TC4q  1 3.400000e-01    1.770000e+00
   TN3  TC5q  1 3.400000e-01    1.770000e+00
   TN3  TC6q  1 3.400000e-01    2.020000e+00
   TN3  TN1q  1 3.400000e-01    2.020000e+00
   TN3  TN2q  1 3.400000e-01    2.280000e+00
  TP6h   TN3  1 3.400000e-01    1.230000e+00
  TP5h   TN3  1 3.400000e-01    1.230000e+00
  TP4h   TN3  1 3.400000e-01    1.510000e+00
  TP3h   TN3  1 3.400000e-01    1.510000e+00
  TP2h   TN3  1 3.400000e-01    1.510000e+00
  TP1h   TN3  1 3.400000e-01    1.510000e+00
  TN6h   TN3  1 3.400000e-01    1.770000e+00
  TN5h   TN3  1 3.400000e-01    1.770000e+00
  TN4h   TN3  1 3.400000e-01    1.770000e+00
   TN3  TN3h  1 3.400000e-01    1.770000e+00
   TN3 TX1eh  1 3.400000e-01    1.510000e+00
   TN3 TX2eh  1 3.400000e-01    1.510000e+00
   TN3 TX3eh  1 3.400000e-01    1.770000e+00
   TN3 TX4eh  1 3.400000e-01    2.020000e+00
   TN3 TC1eh  1 3.520000e-01    1.050000e+00
   TN3 TC2eh  1 3.400000e-01    1.230000e+00
   TN3 TC3eh  1 3.400000e-01    1.230000e+00
   TN3 TC4eh  1 3.400000e-01    1.510000e+00
   TN3 TC5eh  1 3.400000e-01    1.510000e+00
   TN3 TC6eh  1 3.400000e-01    1.770000e+00
   TN3 TX1vh  1 3.400000e-01    1.510000e+00
   TN3 TX2vh  1 3.400000e-01    1.510000e+00
   TN3 TX3vh  1 3.400000e-01    1.770000e+00
   TN3 TX4vh  1 3.400000e-01    2.020000e+00
   TN3 TC1vh  1 3.520000e-01    1.050000e+00
   TN3 TC2vh  1 3.400000e-01    1.230000e+00
   TN3 TC3vh  1 3.400000e-01    1.230000e+00
   TN3 TC4vh  1 3.400000e-01    1.510000e+00
   TN3 TC5vh  1 3.400000e-01    1.510000e+00
   TN3 TC6vh  1 3.400000e-01    1.770000e+00
   TN3 TN1ah  1 3.400000e-01    1.510000e+00
   TN3 TN2ah  1 3.400000e-01    1.770000e+00
   TN3 TN3ah  1 3.400000e-01    1.770000e+00
 TN4ah   TN3  1 3.400000e-01    1.770000e+00
 TN5ah   TN3  1 3.400000e-01    1.770000e+00
 TN6ah   TN3  1 3.400000e-01    1.770000e+00
 TP1ah   TN3  1 3.400000e-01    1.510000e+00
 TP2ah   TN3  1 3.400000e-01    1.510000e+00
 TP3ah   TN3  1 3.400000e-01    1.510000e+00
 TP4ah   TN3  1 3.400000e-01    1.510000e+00
 TP5ah   TN3  1 3.400000e-01    1.230000e+00
 TP6ah   TN3  1 3.400000e-01    1.230000e+00
   TN3 TN1dh  1 3.400000e-01    1.510000e+00
   TN3 TN2dh  1 3.400000e-01    1.770000e+00
   TN3 TN3dh  1 3.400000e-01    1.770000e+00
 TN4dh   TN3  1 3.400000e-01    1.770000e+00
 TN5dh   TN3  1 3.400000e-01    1.770000e+00
 TN6dh   TN3  1 3.400000e-01    1.770000e+00
 TP1dh   TN3  1 3.400000e-01    1.510000e+00
 TP2dh   TN3  1 3.400000e-01    1.510000e+00
 TP3dh   TN3  1 3.400000e-01    1.510000e+00
 TP4dh   TN3  1 3.400000e-01    1.510000e+00
 TP5dh   TN3  1 3.400000e-01    1.230000e+00
 TP6dh   TN3  1 3.400000e-01    1.230000e+00
   TN3  TX1h  1 3.400000e-01    1.230000e+00
   TN3  TX2h  1 3.400000e-01    1.230000e+00
   TN3  TX3h  1 3.400000e-01    1.510000e+00
   TN3  TX4h  1 3.400000e-01    1.770000e+00
   TN3  TC1h  1 3.660000e-01    9.350000e-01
   TN3  TC2h  1 3.520000e-01    1.050000e+00
   TN3  TC3h  1 3.520000e-01    1.050000e+00
   TN3  TC4h  1 3.400000e-01    1.230000e+00
   TN3  TC5h  1 3.400000e-01    1.230000e+00
   TN3  TC6h  1 3.400000e-01    1.510000e+00
   TN3  TN1h  1 3.400000e-01    1.510000e+00
   TN3  TN2h  1 3.400000e-01    1.770000e+00
  TP6r   TN3  1 3.400000e-01    1.230000e+00
  TP5r   TN3  1 3.400000e-01    1.230000e+00
  TP4r   TN3  1 3.400000e-01    1.510000e+00
  TP3r   TN3  1 3.400000e-01    1.510000e+00
  TP2r   TN3  1 3.400000e-01    1.510000e+00
  TP1r   TN3  1 3.400000e-01    1.510000e+00
  TN6r   TN3  1 3.400000e-01    1.770000e+00
  TN5r   TN3  1 3.400000e-01    1.770000e+00
  TN4r   TN3  1 3.400000e-01    1.770000e+00
   TN3  TN3r  1 3.400000e-01    1.770000e+00
   TN3 TX1er  1 3.400000e-01    1.510000e+00
   TN3 TX2er  1 3.400000e-01    1.510000e+00
   TN3 TX3er  1 3.400000e-01    1.770000e+00
   TN3 TX4er  1 3.400000e-01    2.020000e+00
   TN3 TC1er  1 3.520000e-01    1.050000e+00
   TN3 TC2er  1 3.400000e-01    1.230000e+00
   TN3 TC3er  1 3.400000e-01    1.230000e+00
   TN3 TC4er  1 3.400000e-01    1.510000e+00
   TN3 TC5er  1 3.400000e-01    1.510000e+00
   TN3 TC6er  1 3.400000e-01    1.770000e+00
   TN3 TX1vr  1 3.400000e-01    1.510000e+00
   TN3 TX2vr  1 3.400000e-01    1.510000e+00
   TN3 TX3vr  1 3.400000e-01    1.770000e+00
   TN3 TX4vr  1 3.400000e-01    2.020000e+00
   TN3 TC1vr  1 3.520000e-01    1.050000e+00
   TN3 TC2vr  1 3.400000e-01    1.230000e+00
   TN3 TC3vr  1 3.400000e-01    1.230000e+00
   TN3 TC4vr  1 3.400000e-01    1.510000e+00
   TN3 TC5vr  1 3.400000e-01    1.510000e+00
   TN3 TC6vr  1 3.400000e-01    1.770000e+00
   TN3 TN1ar  1 3.400000e-01    1.510000e+00
   TN3 TN2ar  1 3.400000e-01    1.770000e+00
   TN3 TN3ar  1 3.400000e-01    1.770000e+00
 TN4ar   TN3  1 3.400000e-01    1.770000e+00
 TN5ar   TN3  1 3.400000e-01    1.770000e+00
 TN6ar   TN3  1 3.400000e-01    1.770000e+00
 TP1ar   TN3  1 3.400000e-01    1.510000e+00
 TP2ar   TN3  1 3.400000e-01    1.510000e+00
 TP3ar   TN3  1 3.400000e-01    1.510000e+00
 TP4ar   TN3  1 3.400000e-01    1.510000e+00
 TP5ar   TN3  1 3.400000e-01    1.230000e+00
 TP6ar   TN3  1 3.400000e-01    1.230000e+00
   TN3 TN1dr  1 3.400000e-01    1.510000e+00
   TN3 TN2dr  1 3.400000e-01    1.770000e+00
   TN3 TN3dr  1 3.400000e-01    1.770000e+00
 TN4dr   TN3  1 3.400000e-01    1.770000e+00
 TN5dr   TN3  1 3.400000e-01    1.770000e+00
 TN6dr   TN3  1 3.400000e-01    1.770000e+00
 TP1dr   TN3  1 3.400000e-01    1.510000e+00
 TP2dr   TN3  1 3.400000e-01    1.510000e+00
 TP3dr   TN3  1 3.400000e-01    1.510000e+00
 TP4dr   TN3  1 3.400000e-01    1.510000e+00
 TP5dr   TN3  1 3.400000e-01    1.230000e+00
 TP6dr   TN3  1 3.400000e-01    1.230000e+00
   TN3  TX1r  1 3.400000e-01    1.230000e+00
   TN3  TX2r  1 3.400000e-01    1.230000e+00
   TN3  TX3r  1 3.400000e-01    1.510000e+00
   TN3  TX4r  1 3.400000e-01    1.770000e+00
   TN3  TC1r  1 3.660000e-01    9.350000e-01
   TN3  TC2r  1 3.520000e-01    1.050000e+00
   TN3  TC3r  1 3.520000e-01    1.050000e+00
   TN3  TC4r  1 3.400000e-01    1.230000e+00
   TN3  TC5r  1 3.400000e-01    1.230000e+00
   TN3  TC6r  1 3.400000e-01    1.510000e+00
   TN3  TN1r  1 3.400000e-01    1.510000e+00
   TN3  TN2r  1 3.400000e-01    1.770000e+00
  SP6d   TN3  1 3.650000e-01    1.750000e+00
  SP5d   TN3  1 3.650000e-01    1.750000e+00
  SP4d   TN3  1 3.650000e-01    1.910000e+00
  SP3d   TN3  1 3.650000e-01    1.910000e+00
  SP2d   TN3  1 3.650000e-01    1.910000e+00
  SP1d   TN3  1 3.650000e-01    1.910000e+00
  SN6d   TN3  1 3.650000e-01    2.110000e+00
  SN5d   TN3  1 3.650000e-01    2.110000e+00
  SN4d   TN3  1 3.650000e-01    2.110000e+00
  SP6a   TN3  1 3.650000e-01    1.750000e+00
  SP5a   TN3  1 3.650000e-01    1.750000e+00
  SP4a   TN3  1 3.650000e-01    1.910000e+00
  SP3a   TN3  1 3.650000e-01    1.910000e+00
  SP2a   TN3  1 3.650000e-01    1.910000e+00
  SP1a   TN3  1 3.650000e-01    1.910000e+00
  SN6a   TN3  1 3.650000e-01    2.110000e+00
  SN5a   TN3  1 3.650000e-01    2.110000e+00
  SN4a   TN3  1 3.650000e-01    2.110000e+00
  SP6q   TN3  1 3.650000e-01    2.110000e+00
  SP5q   TN3  1 3.650000e-01    2.110000e+00
  SP4q   TN3  1 3.650000e-01    2.340000e+00
  SP3q   TN3  1 3.650000e-01    2.340000e+00
  SP2q   TN3  1 3.650000e-01    2.340000e+00
  SP1q   TN3  1 3.650000e-01    2.340000e+00
  SN6q   TN3  1 3.650000e-01    2.570000e+00
  SN5q   TN3  1 3.650000e-01    2.570000e+00
  SN4q   TN3  1 3.650000e-01    2.570000e+00
 SN4aq   TN3  1 3.650000e-01    2.570000e+00
 SN5aq   TN3  1 3.650000e-01    2.570000e+00
 SN6aq   TN3  1 3.650000e-01    2.570000e+00
 SP1aq   TN3  1 3.650000e-01    2.340000e+00
 SP2aq   TN3  1 3.650000e-01    2.340000e+00
 SP3aq   TN3  1 3.650000e-01    2.340000e+00
 SP4aq   TN3  1 3.650000e-01    2.340000e+00
 SP5aq   TN3  1 3.650000e-01    2.110000e+00
 SP6aq   TN3  1 3.650000e-01    2.110000e+00
 SN4dq   TN3  1 3.650000e-01    2.570000e+00
 SN5dq   TN3  1 3.650000e-01    2.570000e+00
 SN6dq   TN3  1 3.650000e-01    2.570000e+00
 SP1dq   TN3  1 3.650000e-01    2.340000e+00
 SP2dq   TN3  1 3.650000e-01    2.340000e+00
 SP3dq   TN3  1 3.650000e-01    2.340000e+00
 SP4dq   TN3  1 3.650000e-01    2.340000e+00
 SP5dq   TN3  1 3.650000e-01    2.110000e+00
 SP6dq   TN3  1 3.650000e-01    2.110000e+00
  SP6h   TN3  1 3.650000e-01    1.750000e+00
  SP5h   TN3  1 3.650000e-01    1.750000e+00
  SP4h   TN3  1 3.650000e-01    1.910000e+00
  SP3h   TN3  1 3.650000e-01    1.910000e+00
  SP2h   TN3  1 3.650000e-01    1.910000e+00
  SP1h   TN3  1 3.650000e-01    1.910000e+00
  SN6h   TN3  1 3.650000e-01    2.110000e+00
  SN5h   TN3  1 3.650000e-01    2.110000e+00
  SN4h   TN3  1 3.650000e-01    2.110000e+00
 SN4ah   TN3  1 3.650000e-01    2.110000e+00
 SN5ah   TN3  1 3.650000e-01    2.110000e+00
 SN6ah   TN3  1 3.650000e-01    2.110000e+00
 SP1ah   TN3  1 3.650000e-01    1.910000e+00
 SP2ah   TN3  1 3.650000e-01    1.910000e+00
 SP3ah   TN3  1 3.650000e-01    1.910000e+00
 SP4ah   TN3  1 3.650000e-01    1.910000e+00
 SP5ah   TN3  1 3.650000e-01    1.750000e+00
 SP6ah   TN3  1 3.650000e-01    1.750000e+00
 SN4dh   TN3  1 3.650000e-01    2.110000e+00
 SN5dh   TN3  1 3.650000e-01    2.110000e+00
 SN6dh   TN3  1 3.650000e-01    2.110000e+00
 SP1dh   TN3  1 3.650000e-01    1.910000e+00
 SP2dh   TN3  1 3.650000e-01    1.910000e+00
 SP3dh   TN3  1 3.650000e-01    1.910000e+00
 SP4dh   TN3  1 3.650000e-01    1.910000e+00
 SP5dh   TN3  1 3.650000e-01    1.750000e+00
 SP6dh   TN3  1 3.650000e-01    1.750000e+00
  SP6r   TN3  1 3.650000e-01    1.750000e+00
  SP5r   TN3  1 3.650000e-01    1.750000e+00
  SP4r   TN3  1 3.650000e-01    1.910000e+00
  SP3r   TN3  1 3.650000e-01    1.910000e+00
  SP2r   TN3  1 3.650000e-01    1.910000e+00
  SP1r   TN3  1 3.650000e-01    1.910000e+00
  SN6r   TN3  1 3.650000e-01    2.110000e+00
  SN5r   TN3  1 3.650000e-01    2.110000e+00
  SN4r   TN3  1 3.650000e-01    2.110000e+00
 SN4ar   TN3  1 3.650000e-01    2.110000e+00
 SN5ar   TN3  1 3.650000e-01    2.110000e+00
 SN6ar   TN3  1 3.650000e-01    2.110000e+00
 SP1ar   TN3  1 3.650000e-01    1.910000e+00
 SP2ar   TN3  1 3.650000e-01    1.910000e+00
 SP3ar   TN3  1 3.650000e-01    1.910000e+00
 SP4ar   TN3  1 3.650000e-01    1.910000e+00
 SP5ar   TN3  1 3.650000e-01    1.750000e+00
 SP6ar   TN3  1 3.650000e-01    1.750000e+00
 SN4dr   TN3  1 3.650000e-01    2.110000e+00
 SN5dr   TN3  1 3.650000e-01    2.110000e+00
 SN6dr   TN3  1 3.650000e-01    2.110000e+00
 SP1dr   TN3  1 3.650000e-01    1.910000e+00
 SP2dr   TN3  1 3.650000e-01    1.910000e+00
 SP3dr   TN3  1 3.650000e-01    1.910000e+00
 SP4dr   TN3  1 3.650000e-01    1.910000e+00
 SP5dr   TN3  1 3.650000e-01    1.750000e+00
 SP6dr   TN3  1 3.650000e-01    1.750000e+00
   TN3   SN2  1 3.650000e-01    2.110000e+00
   TN3   SN1  1 3.650000e-01    1.910000e+00
   TN3   SC6  1 3.650000e-01    1.910000e+00
   TN3   SC5  1 3.650000e-01    1.750000e+00
   TN3   SC4  1 3.650000e-01    1.750000e+00
   TN3   SC3  1 3.660000e-01    1.600000e+00
   TN3   SC2  1 3.660000e-01    1.600000e+00
   TN3   SC1  1 3.780000e-01    1.450000e+00
   TN3   SX4  1 3.650000e-01    2.110000e+00
   TN3   SX3  1 3.650000e-01    1.910000e+00
   TN3   SX2  1 3.650000e-01    1.750000e+00
   TN3   SX1  1 3.650000e-01    1.750000e+00
   TN3  SN3d  1 3.650000e-01    2.110000e+00
   TN3  SN1d  1 3.650000e-01    1.910000e+00
   TN3  SN2d  1 3.650000e-01    2.110000e+00
   TN3  SN3a  1 3.650000e-01    2.110000e+00
   TN3  SN1a  1 3.650000e-01    1.910000e+00
   TN3  SN2a  1 3.650000e-01    2.110000e+00
   TN3  SC6v  1 3.650000e-01    2.110000e+00
   TN3  SC5v  1 3.650000e-01    1.910000e+00
   TN3  SC4v  1 3.650000e-01    1.910000e+00
   TN3  SC3v  1 3.650000e-01    1.750000e+00
   TN3  SC2v  1 3.650000e-01    1.750000e+00
   TN3  SC1v  1 3.660000e-01    1.600000e+00
   TN3  SX4v  1 3.650000e-01    2.340000e+00
   TN3  SX3v  1 3.650000e-01    2.110000e+00
   TN3  SX2v  1 3.650000e-01    1.910000e+00
   TN3  SX1v  1 3.650000e-01    1.910000e+00
   TN3  SC6e  1 3.650000e-01    2.110000e+00
   TN3  SC5e  1 3.650000e-01    1.910000e+00
   TN3  SC4e  1 3.650000e-01    1.910000e+00
   TN3  SC3e  1 3.650000e-01    1.750000e+00
   TN3  SC2e  1 3.650000e-01    1.750000e+00
   TN3  SC1e  1 3.660000e-01    1.600000e+00
   TN3  SX4e  1 3.650000e-01    2.340000e+00
   TN3  SX3e  1 3.650000e-01    2.110000e+00
   TN3  SX2e  1 3.650000e-01    1.910000e+00
   TN3  SX1e  1 3.650000e-01    1.910000e+00
   TN3  SN3q  1 3.650000e-01    2.570000e+00
   TN3 SX1eq  1 3.650000e-01    2.340000e+00
   TN3 SX2eq  1 3.650000e-01    2.340000e+00
   TN3 SX3eq  1 3.650000e-01    2.570000e+00
   TN3 SX4eq  1 3.650000e-01    2.830000e+00
   TN3 SC1eq  1 3.650000e-01    1.910000e+00
   TN3 SC2eq  1 3.650000e-01    2.110000e+00
   TN3 SC3eq  1 3.650000e-01    2.110000e+00
   TN3 SC4eq  1 3.650000e-01    2.340000e+00
   TN3 SC5eq  1 3.650000e-01    2.340000e+00
   TN3 SC6eq  1 3.650000e-01    2.570000e+00
   TN3 SX1vq  1 3.650000e-01    2.340000e+00
   TN3 SX2vq  1 3.650000e-01    2.340000e+00
   TN3 SX3vq  1 3.650000e-01    2.570000e+00
   TN3 SX4vq  1 3.650000e-01    2.830000e+00
   TN3 SC1vq  1 3.650000e-01    1.910000e+00
   TN3 SC2vq  1 3.650000e-01    2.110000e+00
   TN3 SC3vq  1 3.650000e-01    2.110000e+00
   TN3 SC4vq  1 3.650000e-01    2.340000e+00
   TN3 SC5vq  1 3.650000e-01    2.340000e+00
   TN3 SC6vq  1 3.650000e-01    2.570000e+00
   TN3 SN1aq  1 3.650000e-01    2.340000e+00
   TN3 SN2aq  1 3.650000e-01    2.570000e+00
   TN3 SN3aq  1 3.650000e-01    2.570000e+00
   TN3 SN1dq  1 3.650000e-01    2.340000e+00
   TN3 SN2dq  1 3.650000e-01    2.570000e+00
   TN3 SN3dq  1 3.650000e-01    2.570000e+00
   TN3  SX1q  1 3.650000e-01    2.110000e+00
   TN3  SX2q  1 3.650000e-01    2.110000e+00
   TN3  SX3q  1 3.650000e-01    2.340000e+00
   TN3  SX4q  1 3.650000e-01    2.570000e+00
   TN3  SC1q  1 3.650000e-01    1.750000e+00
   TN3  SC2q  1 3.650000e-01    1.910000e+00
   TN3  SC3q  1 3.650000e-01    1.910000e+00
   TN3  SC4q  1 3.650000e-01    2.110000e+00
   TN3  SC5q  1 3.650000e-01    2.110000e+00
   TN3  SC6q  1 3.650000e-01    2.340000e+00
   TN3  SN1q  1 3.650000e-01    2.340000e+00
   TN3  SN2q  1 3.650000e-01    2.570000e+00
   TN3  SN3h  1 3.650000e-01    2.110000e+00
   TN3 SX1eh  1 3.650000e-01    1.910000e+00
   TN3 SX2eh  1 3.650000e-01    1.910000e+00
   TN3 SX3eh  1 3.650000e-01    2.110000e+00
   TN3 SX4eh  1 3.650000e-01    2.340000e+00
   TN3 SC1eh  1 3.660000e-01    1.600000e+00
   TN3 SC2eh  1 3.650000e-01    1.750000e+00
   TN3 SC3eh  1 3.650000e-01    1.750000e+00
   TN3 SC4eh  1 3.650000e-01    1.910000e+00
   TN3 SC5eh  1 3.650000e-01    1.910000e+00
   TN3 SC6eh  1 3.650000e-01    2.110000e+00
   TN3 SX1vh  1 3.650000e-01    1.910000e+00
   TN3 SX2vh  1 3.650000e-01    1.910000e+00
   TN3 SX3vh  1 3.650000e-01    2.110000e+00
   TN3 SX4vh  1 3.650000e-01    2.340000e+00
   TN3 SC1vh  1 3.660000e-01    1.600000e+00
   TN3 SC2vh  1 3.650000e-01    1.750000e+00
   TN3 SC3vh  1 3.650000e-01    1.750000e+00
   TN3 SC4vh  1 3.650000e-01    1.910000e+00
   TN3 SC5vh  1 3.650000e-01    1.910000e+00
   TN3 SC6vh  1 3.650000e-01    2.110000e+00
   TN3 SN1ah  1 3.650000e-01    1.910000e+00
   TN3 SN2ah  1 3.650000e-01    2.110000e+00
   TN3 SN3ah  1 3.650000e-01    2.110000e+00
   TN3 SN1dh  1 3.650000e-01    1.910000e+00
   TN3 SN2dh  1 3.650000e-01    2.110000e+00
   TN3 SN3dh  1 3.650000e-01    2.110000e+00
   TN3  SX1h  1 3.650000e-01    1.750000e+00
   TN3  SX2h  1 3.650000e-01    1.750000e+00
   TN3  SX3h  1 3.650000e-01    1.910000e+00
   TN3  SX4h  1 3.650000e-01    2.110000e+00
   TN3  SC1h  1 3.780000e-01    1.450000e+00
   TN3  SC2h  1 3.660000e-01    1.600000e+00
   TN3  SC3h  1 3.660000e-01    1.600000e+00
   TN3  SC4h  1 3.650000e-01    1.750000e+00
   TN3  SC5h  1 3.650000e-01    1.750000e+00
   TN3  SC6h  1 3.650000e-01    1.910000e+00
   TN3  SN1h  1 3.650000e-01    1.910000e+00
   TN3  SN2h  1 3.650000e-01    2.110000e+00
   TN3  SN3r  1 3.650000e-01    2.110000e+00
   TN3 SX1er  1 3.650000e-01    1.910000e+00
   TN3 SX2er  1 3.650000e-01    1.910000e+00
   TN3 SX3er  1 3.650000e-01    2.110000e+00
   TN3 SX4er  1 3.650000e-01    2.340000e+00
   TN3 SC1er  1 3.660000e-01    1.600000e+00
   TN3 SC2er  1 3.650000e-01    1.750000e+00
   TN3 SC3er  1 3.650000e-01    1.750000e+00
   TN3 SC4er  1 3.650000e-01    1.910000e+00
   TN3 SC5er  1 3.650000e-01    1.910000e+00
   TN3 SC6er  1 3.650000e-01    2.110000e+00
   TN3 SX1vr  1 3.650000e-01    1.910000e+00
   TN3 SX2vr  1 3.650000e-01    1.910000e+00
   TN3 SX3vr  1 3.650000e-01    2.110000e+00
   TN3 SX4vr  1 3.650000e-01    2.340000e+00
   TN3 SC1vr  1 3.660000e-01    1.600000e+00
   TN3 SC2vr  1 3.650000e-01    1.750000e+00
   TN3 SC3vr  1 3.650000e-01    1.750000e+00
   TN3 SC4vr  1 3.650000e-01    1.910000e+00
   TN3 SC5vr  1 3.650000e-01    1.910000e+00
   TN3 SC6vr  1 3.650000e-01    2.110000e+00
   TN3 SN1ar  1 3.650000e-01    1.910000e+00
   TN3 SN2ar  1 3.650000e-01    2.110000e+00
   TN3 SN3ar  1 3.650000e-01    2.110000e+00
   TN3 SN1dr  1 3.650000e-01    1.910000e+00
   TN3 SN2dr  1 3.650000e-01    2.110000e+00
   TN3 SN3dr  1 3.650000e-01    2.110000e+00
   TN3  SX1r  1 3.650000e-01    1.750000e+00
   TN3  SX2r  1 3.650000e-01    1.750000e+00
   TN3  SX3r  1 3.650000e-01    1.910000e+00
   TN3  SX4r  1 3.650000e-01    2.110000e+00
   TN3  SC1r  1 3.780000e-01    1.450000e+00
   TN3  SC2r  1 3.660000e-01    1.600000e+00
   TN3  SC3r  1 3.660000e-01    1.600000e+00
   TN3  SC4r  1 3.650000e-01    1.750000e+00
   TN3  SC5r  1 3.650000e-01    1.750000e+00
   TN3  SC6r  1 3.650000e-01    1.910000e+00
   TN3  SN1r  1 3.650000e-01    1.910000e+00
   TN3  SN2r  1 3.650000e-01    2.110000e+00
    N2    N2  1 4.700000e-01    3.520000e+00
    N2    N1  1 4.700000e-01    3.390000e+00
    N2    C6  1 4.700000e-01    3.390000e+00
    N2    C5  1 4.700000e-01    3.240000e+00
    N2    C4  1 4.700000e-01    3.240000e+00
    N2    C3  1 4.700000e-01    3.240000e+00
    N2    C2  1 4.700000e-01    3.070000e+00
    N2    C1  1 4.700000e-01    2.960000e+00
    N2    X4  1 4.700000e-01    3.520000e+00
    N2    X3  1 4.700000e-01    3.390000e+00
    N2    X2  1 4.700000e-01    3.240000e+00
    N2    X1  1 4.700000e-01    3.240000e+00
   P6d    N2  1 4.700000e-01    3.070000e+00
   P5d    N2  1 4.700000e-01    3.070000e+00
   P4d    N2  1 4.700000e-01    3.240000e+00
   P3d    N2  1 4.700000e-01    3.390000e+00
   P2d    N2  1 4.700000e-01    3.390000e+00
   P1d    N2  1 4.700000e-01    3.390000e+00
   N6d    N2  1 4.700000e-01    3.390000e+00
   N5d    N2  1 4.700000e-01    3.520000e+00
   N4d    N2  1 4.700000e-01    3.520000e+00
   N3d    N2  1 4.700000e-01    3.520000e+00
    N2   N2d  1 4.700000e-01    3.520000e+00
    N2   N1d  1 4.700000e-01    3.390000e+00
   P6a    N2  1 4.700000e-01    3.070000e+00
   P5a    N2  1 4.700000e-01    3.070000e+00
   P4a    N2  1 4.700000e-01    3.240000e+00
   P3a    N2  1 4.700000e-01    3.390000e+00
   P2a    N2  1 4.700000e-01    3.390000e+00
   P1a    N2  1 4.700000e-01    3.390000e+00
   N6a    N2  1 4.700000e-01    3.390000e+00
   N5a    N2  1 4.700000e-01    3.520000e+00
   N4a    N2  1 4.700000e-01    3.520000e+00
   N3a    N2  1 4.700000e-01    3.520000e+00
    N2   N2a  1 4.700000e-01    3.520000e+00
    N2   N1a  1 4.700000e-01    3.390000e+00
    N2   C6v  1 4.700000e-01    3.520000e+00
    N2   C5v  1 4.700000e-01    3.390000e+00
    N2   C4v  1 4.700000e-01    3.390000e+00
    N2   C3v  1 4.700000e-01    3.390000e+00
    N2   C2v  1 4.700000e-01    3.240000e+00
    N2   C1v  1 4.700000e-01    3.070000e+00
    N2   X4v  1 4.700000e-01    3.690000e+00
    N2   X3v  1 4.700000e-01    3.520000e+00
    N2   X2v  1 4.700000e-01    3.390000e+00
    N2   X1v  1 4.700000e-01    3.390000e+00
    N2   C6e  1 4.700000e-01    3.520000e+00
    N2   C5e  1 4.700000e-01    3.390000e+00
    N2   C4e  1 4.700000e-01    3.390000e+00
    N2   C3e  1 4.700000e-01    3.390000e+00
    N2   C2e  1 4.700000e-01    3.240000e+00
    N2   C1e  1 4.700000e-01    3.070000e+00
    N2   X4e  1 4.700000e-01    3.690000e+00
    N2   X3e  1 4.700000e-01    3.520000e+00
    N2   X2e  1 4.700000e-01    3.390000e+00
    N2   X1e  1 4.700000e-01    3.390000e+00
   P6q    N2  1 4.700000e-01    3.390000e+00
   P5q    N2  1 4.700000e-01    3.390000e+00
   P4q    N2  1 4.700000e-01    3.520000e+00
   P3q    N2  1 4.700000e-01    3.690000e+00
   P2q    N2  1 4.700000e-01    3.690000e+00
   P1q    N2  1 4.700000e-01    3.690000e+00
   N6q    N2  1 4.700000e-01    3.690000e+00
   N5q    N2  1 4.700000e-01    3.880000e+00
   N4q    N2  1 4.700000e-01    3.880000e+00
   N3q    N2  1 4.700000e-01    3.880000e+00
    N2   N2q  1 4.700000e-01    3.880000e+00
    N2  X1eq  1 4.700000e-01    3.690000e+00
    N2  X2eq  1 4.700000e-01    3.690000e+00
    N2  X3eq  1 4.700000e-01    3.880000e+00
    N2  X4eq  1 4.700000e-01    4.060000e+00
    N2  C1eq  1 4.700000e-01    3.390000e+00
    N2  C2eq  1 4.700000e-01    3.520000e+00
    N2  C3eq  1 4.700000e-01    3.690000e+00
    N2  C4eq  1 4.700000e-01    3.690000e+00
    N2  C5eq  1 4.700000e-01    3.690000e+00
    N2  C6eq  1 4.700000e-01    3.880000e+00
    N2  X1vq  1 4.700000e-01    3.690000e+00
    N2  X2vq  1 4.700000e-01    3.690000e+00
    N2  X3vq  1 4.700000e-01    3.880000e+00
    N2  X4vq  1 4.700000e-01    4.060000e+00
    N2  C1vq  1 4.700000e-01    3.390000e+00
    N2  C2vq  1 4.700000e-01    3.520000e+00
    N2  C3vq  1 4.700000e-01    3.690000e+00
    N2  C4vq  1 4.700000e-01    3.690000e+00
    N2  C5vq  1 4.700000e-01    3.690000e+00
    N2  C6vq  1 4.700000e-01    3.880000e+00
    N2  N1aq  1 4.700000e-01    3.690000e+00
    N2  N2aq  1 4.700000e-01    3.880000e+00
  N3aq    N2  1 4.700000e-01    3.880000e+00
  N4aq    N2  1 4.700000e-01    3.880000e+00
  N5aq    N2  1 4.700000e-01    3.880000e+00
  N6aq    N2  1 4.700000e-01    3.690000e+00
  P1aq    N2  1 4.700000e-01    3.690000e+00
  P2aq    N2  1 4.700000e-01    3.690000e+00
  P3aq    N2  1 4.700000e-01    3.690000e+00
  P4aq    N2  1 4.700000e-01    3.520000e+00
  P5aq    N2  1 4.700000e-01    3.390000e+00
  P6aq    N2  1 4.700000e-01    3.390000e+00
    N2  N1dq  1 4.700000e-01    3.690000e+00
    N2  N2dq  1 4.700000e-01    3.880000e+00
  N3dq    N2  1 4.700000e-01    3.880000e+00
  N4dq    N2  1 4.700000e-01    3.880000e+00
  N5dq    N2  1 4.700000e-01    3.880000e+00
  N6dq    N2  1 4.700000e-01    3.690000e+00
  P1dq    N2  1 4.700000e-01    3.690000e+00
  P2dq    N2  1 4.700000e-01    3.690000e+00
  P3dq    N2  1 4.700000e-01    3.690000e+00
  P4dq    N2  1 4.700000e-01    3.520000e+00
  P5dq    N2  1 4.700000e-01    3.390000e+00
  P6dq    N2  1 4.700000e-01    3.390000e+00
    N2   X1q  1 4.700000e-01    3.520000e+00
    N2   X2q  1 4.700000e-01    3.520000e+00
    N2   X3q  1 4.700000e-01    3.690000e+00
    N2   X4q  1 4.700000e-01    3.880000e+00
    N2   C1q  1 4.700000e-01    3.240000e+00
    N2   C2q  1 4.700000e-01    3.390000e+00
    N2   C3q  1 4.700000e-01    3.520000e+00
    N2   C4q  1 4.700000e-01    3.520000e+00
    N2   C5q  1 4.700000e-01    3.520000e+00
    N2   C6q  1 4.700000e-01    3.690000e+00
    N2   N1q  1 4.700000e-01    3.690000e+00
   P6h    N2  1 4.700000e-01    3.070000e+00
   P5h    N2  1 4.700000e-01    3.070000e+00
   P4h    N2  1 4.700000e-01    3.240000e+00
   P3h    N2  1 4.700000e-01    3.390000e+00
   P2h    N2  1 4.700000e-01    3.390000e+00
   P1h    N2  1 4.700000e-01    3.390000e+00
   N6h    N2  1 4.700000e-01    3.390000e+00
   N5h    N2  1 4.700000e-01    3.520000e+00
   N4h    N2  1 4.700000e-01    3.520000e+00
   N3h    N2  1 4.700000e-01    3.520000e+00
    N2   N2h  1 4.700000e-01    3.520000e+00
    N2  X1eh  1 4.700000e-01    3.390000e+00
    N2  X2eh  1 4.700000e-01    3.390000e+00
    N2  X3eh  1 4.700000e-01    3.520000e+00
    N2  X4eh  1 4.700000e-01    3.690000e+00
    N2  C1eh  1 4.700000e-01    3.070000e+00
    N2  C2eh  1 4.700000e-01    3.240000e+00
    N2  C3eh  1 4.700000e-01    3.390000e+00
    N2  C4eh  1 4.700000e-01    3.390000e+00
    N2  C5eh  1 4.700000e-01    3.390000e+00
    N2  C6eh  1 4.700000e-01    3.520000e+00
    N2  X1vh  1 4.700000e-01    3.390000e+00
    N2  X2vh  1 4.700000e-01    3.390000e+00
    N2  X3vh  1 4.700000e-01    3.520000e+00
    N2  X4vh  1 4.700000e-01    3.690000e+00
    N2  C1vh  1 4.700000e-01    3.070000e+00
    N2  C2vh  1 4.700000e-01    3.240000e+00
    N2  C3vh  1 4.700000e-01    3.390000e+00
    N2  C4vh  1 4.700000e-01    3.390000e+00
    N2  C5vh  1 4.700000e-01    3.390000e+00
    N2  C6vh  1 4.700000e-01    3.520000e+00
    N2  N1ah  1 4.700000e-01    3.390000e+00
    N2  N2ah  1 4.700000e-01    3.520000e+00
  N3ah    N2  1 4.700000e-01    3.520000e+00
  N4ah    N2  1 4.700000e-01    3.520000e+00
  N5ah    N2  1 4.700000e-01    3.520000e+00
  N6ah    N2  1 4.700000e-01    3.390000e+00
  P1ah    N2  1 4.700000e-01    3.390000e+00
  P2ah    N2  1 4.700000e-01    3.390000e+00
  P3ah    N2  1 4.700000e-01    3.390000e+00
  P4ah    N2  1 4.700000e-01    3.240000e+00
  P5ah    N2  1 4.700000e-01    3.070000e+00
  P6ah    N2  1 4.700000e-01    3.070000e+00
    N2  N1dh  1 4.700000e-01    3.390000e+00
    N2  N2dh  1 4.700000e-01    3.520000e+00
  N3dh    N2  1 4.700000e-01    3.520000e+00
  N4dh    N2  1 4.700000e-01    3.520000e+00
  N5dh    N2  1 4.700000e-01    3.520000e+00
  N6dh    N2  1 4.700000e-01    3.390000e+00
  P1dh    N2  1 4.700000e-01    3.390000e+00
  P2dh    N2  1 4.700000e-01    3.390000e+00
  P3dh    N2  1 4.700000e-01    3.390000e+00
  P4dh    N2  1 4.700000e-01    3.240000e+00
  P5dh    N2  1 4.700000e-01    3.070000e+00
  P6dh    N2  1 4.700000e-01    3.070000e+00
    N2   X1h  1 4.700000e-01    3.240000e+00
    N2   X2h  1 4.700000e-01    3.240000e+00
    N2   X3h  1 4.700000e-01    3.390000e+00
    N2   X4h  1 4.700000e-01    3.520000e+00
    N2   C1h  1 4.700000e-01    2.960000e+00
    N2   C2h  1 4.700000e-01    3.070000e+00
    N2   C3h  1 4.700000e-01    3.240000e+00
    N2   C4h  1 4.700000e-01    3.240000e+00
    N2   C5h  1 4.700000e-01    3.240000e+00
    N2   C6h  1 4.700000e-01    3.390000e+00
    N2   N1h  1 4.700000e-01    3.390000e+00
   P6r    N2  1 4.700000e-01    3.070000e+00
   P5r    N2  1 4.700000e-01    3.070000e+00
   P4r    N2  1 4.700000e-01    3.240000e+00
   P3r    N2  1 4.700000e-01    3.390000e+00
   P2r    N2  1 4.700000e-01    3.390000e+00
   P1r    N2  1 4.700000e-01    3.390000e+00
   N6r    N2  1 4.700000e-01    3.390000e+00
   N5r    N2  1 4.700000e-01    3.520000e+00
   N4r    N2  1 4.700000e-01    3.520000e+00
   N3r    N2  1 4.700000e-01    3.520000e+00
    N2   N2r  1 4.700000e-01    3.520000e+00
    N2  X1er  1 4.700000e-01    3.390000e+00
    N2  X2er  1 4.700000e-01    3.390000e+00
    N2  X3er  1 4.700000e-01    3.520000e+00
    N2  X4er  1 4.700000e-01    3.690000e+00
    N2  C1er  1 4.700000e-01    3.070000e+00
    N2  C2er  1 4.700000e-01    3.240000e+00
    N2  C3er  1 4.700000e-01    3.390000e+00
    N2  C4er  1 4.700000e-01    3.390000e+00
    N2  C5er  1 4.700000e-01    3.390000e+00
    N2  C6er  1 4.700000e-01    3.520000e+00
    N2  X1vr  1 4.700000e-01    3.390000e+00
    N2  X2vr  1 4.700000e-01    3.390000e+00
    N2  X3vr  1 4.700000e-01    3.520000e+00
    N2  X4vr  1 4.700000e-01    3.690000e+00
    N2  C1vr  1 4.700000e-01    3.070000e+00
    N2  C2vr  1 4.700000e-01    3.240000e+00
    N2  C3vr  1 4.700000e-01    3.390000e+00
    N2  C4vr  1 4.700000e-01    3.390000e+00
    N2  C5vr  1 4.700000e-01    3.390000e+00
    N2  C6vr  1 4.700000e-01    3.520000e+00
    N2  N1ar  1 4.700000e-01    3.390000e+00
    N2  N2ar  1 4.700000e-01    3.520000e+00
  N3ar    N2  1 4.700000e-01    3.520000e+00
  N4ar    N2  1 4.700000e-01    3.520000e+00
  N5ar    N2  1 4.700000e-01    3.520000e+00
  N6ar    N2  1 4.700000e-01    3.390000e+00
  P1ar    N2  1 4.700000e-01    3.390000e+00
  P2ar    N2  1 4.700000e-01    3.390000e+00
  P3ar    N2  1 4.700000e-01    3.390000e+00
  P4ar    N2  1 4.700000e-01    3.240000e+00
  P5ar    N2  1 4.700000e-01    3.070000e+00
  P6ar    N2  1 4.700000e-01    3.070000e+00
    N2  N1dr  1 4.700000e-01    3.390000e+00
    N2  N2dr  1 4.700000e-01    3.520000e+00
  N3dr    N2  1 4.700000e-01    3.520000e+00
  N4dr    N2  1 4.700000e-01    3.520000e+00
  N5dr    N2  1 4.700000e-01    3.520000e+00
  N6dr    N2  1 4.700000e-01    3.390000e+00
  P1dr    N2  1 4.700000e-01    3.390000e+00
  P2dr    N2  1 4.700000e-01    3.390000e+00
  P3dr    N2  1 4.700000e-01    3.390000e+00
  P4dr    N2  1 4.700000e-01    3.240000e+00
  P5dr    N2  1 4.700000e-01    3.070000e+00
  P6dr    N2  1 4.700000e-01    3.070000e+00
    N2   X1r  1 4.700000e-01    3.240000e+00
    N2   X2r  1 4.700000e-01    3.240000e+00
    N2   X3r  1 4.700000e-01    3.390000e+00
    N2   X4r  1 4.700000e-01    3.520000e+00
    N2   C1r  1 4.700000e-01    2.960000e+00
    N2   C2r  1 4.700000e-01    3.070000e+00
    N2   C3r  1 4.700000e-01    3.240000e+00
    N2   C4r  1 4.700000e-01    3.240000e+00
    N2   C5r  1 4.700000e-01    3.240000e+00
    N2   C6r  1 4.700000e-01    3.390000e+00
    N2   N1r  1 4.700000e-01    3.390000e+00
    N2   SN2  1 4.300000e-01    3.160000e+00
    N2   SN1  1 4.300000e-01    2.920000e+00
    N2   SC6  1 4.300000e-01    2.920000e+00
    N2   SC5  1 4.300000e-01    2.770000e+00
    N2   SC4  1 4.300000e-01    2.770000e+00
    N2   SC3  1 4.300000e-01    2.770000e+00
    N2   SC2  1 4.300000e-01    2.530000e+00
    N2   SC1  1 4.300000e-01    2.320000e+00
    N2   SX4  1 4.300000e-01    3.160000e+00
    N2   SX3  1 4.300000e-01    2.920000e+00
    N2   SX2  1 4.300000e-01    2.770000e+00
    N2   SX1  1 4.300000e-01    2.770000e+00
    N2  SN2d  1 4.300000e-01    3.160000e+00
    N2  SN1d  1 4.300000e-01    2.920000e+00
    N2  SN2a  1 4.300000e-01    3.160000e+00
    N2  SN1a  1 4.300000e-01    2.920000e+00
    N2  SC6v  1 4.300000e-01    3.160000e+00
    N2  SC5v  1 4.300000e-01    2.920000e+00
    N2  SC4v  1 4.300000e-01    2.920000e+00
    N2  SC3v  1 4.300000e-01    2.920000e+00
    N2  SC2v  1 4.300000e-01    2.770000e+00
    N2  SC1v  1 4.300000e-01    2.530000e+00
    N2  SX4v  1 4.300000e-01    3.380000e+00
    N2  SX3v  1 4.300000e-01    3.160000e+00
    N2  SX2v  1 4.300000e-01    2.920000e+00
    N2  SX1v  1 4.300000e-01    2.920000e+00
    N2  SC6e  1 4.300000e-01    3.160000e+00
    N2  SC5e  1 4.300000e-01    2.920000e+00
    N2  SC4e  1 4.300000e-01    2.920000e+00
    N2  SC3e  1 4.300000e-01    2.920000e+00
    N2  SC2e  1 4.300000e-01    2.770000e+00
    N2  SC1e  1 4.300000e-01    2.530000e+00
    N2  SX4e  1 4.300000e-01    3.380000e+00
    N2  SX3e  1 4.300000e-01    3.160000e+00
    N2  SX2e  1 4.300000e-01    2.920000e+00
    N2  SX1e  1 4.300000e-01    2.920000e+00
    N2  SN2q  1 4.300000e-01    3.590000e+00
    N2 SX1eq  1 4.300000e-01    3.380000e+00
    N2 SX2eq  1 4.300000e-01    3.380000e+00
    N2 SX3eq  1 4.300000e-01    3.590000e+00
    N2 SX4eq  1 4.300000e-01    3.770000e+00
    N2 SC1eq  1 4.300000e-01    2.920000e+00
    N2 SC2eq  1 4.300000e-01    3.160000e+00
    N2 SC3eq  1 4.300000e-01    3.380000e+00
    N2 SC4eq  1 4.300000e-01    3.380000e+00
    N2 SC5eq  1 4.300000e-01    3.380000e+00
    N2 SC6eq  1 4.300000e-01    3.590000e+00
    N2 SX1vq  1 4.300000e-01    3.380000e+00
    N2 SX2vq  1 4.300000e-01    3.380000e+00
    N2 SX3vq  1 4.300000e-01    3.590000e+00
    N2 SX4vq  1 4.300000e-01    3.770000e+00
    N2 SC1vq  1 4.300000e-01    2.920000e+00
    N2 SC2vq  1 4.300000e-01    3.160000e+00
    N2 SC3vq  1 4.300000e-01    3.380000e+00
    N2 SC4vq  1 4.300000e-01    3.380000e+00
    N2 SC5vq  1 4.300000e-01    3.380000e+00
    N2 SC6vq  1 4.300000e-01    3.590000e+00
    N2 SN1aq  1 4.300000e-01    3.380000e+00
    N2 SN2aq  1 4.300000e-01    3.590000e+00
    N2 SN1dq  1 4.300000e-01    3.380000e+00
    N2 SN2dq  1 4.300000e-01    3.590000e+00
    N2  SX1q  1 4.300000e-01    3.160000e+00
    N2  SX2q  1 4.300000e-01    3.160000e+00
    N2  SX3q  1 4.300000e-01    3.380000e+00
    N2  SX4q  1 4.300000e-01    3.590000e+00
    N2  SC1q  1 4.300000e-01    2.770000e+00
    N2  SC2q  1 4.300000e-01    2.920000e+00
    N2  SC3q  1 4.300000e-01    3.160000e+00
    N2  SC4q  1 4.300000e-01    3.160000e+00
    N2  SC5q  1 4.300000e-01    3.160000e+00
    N2  SC6q  1 4.300000e-01    3.380000e+00
    N2  SN1q  1 4.300000e-01    3.380000e+00
    N2  SN2h  1 4.300000e-01    3.160000e+00
    N2 SX1eh  1 4.300000e-01    2.920000e+00
    N2 SX2eh  1 4.300000e-01    2.920000e+00
    N2 SX3eh  1 4.300000e-01    3.160000e+00
    N2 SX4eh  1 4.300000e-01    3.380000e+00
    N2 SC1eh  1 4.300000e-01    2.530000e+00
    N2 SC2eh  1 4.300000e-01    2.770000e+00
    N2 SC3eh  1 4.300000e-01    2.920000e+00
    N2 SC4eh  1 4.300000e-01    2.920000e+00
    N2 SC5eh  1 4.300000e-01    2.920000e+00
    N2 SC6eh  1 4.300000e-01    3.160000e+00
    N2 SX1vh  1 4.300000e-01    2.920000e+00
    N2 SX2vh  1 4.300000e-01    2.920000e+00
    N2 SX3vh  1 4.300000e-01    3.160000e+00
    N2 SX4vh  1 4.300000e-01    3.380000e+00
    N2 SC1vh  1 4.300000e-01    2.530000e+00
    N2 SC2vh  1 4.300000e-01    2.770000e+00
    N2 SC3vh  1 4.300000e-01    2.920000e+00
    N2 SC4vh  1 4.300000e-01    2.920000e+00
    N2 SC5vh  1 4.300000e-01    2.920000e+00
    N2 SC6vh  1 4.300000e-01    3.160000e+00
    N2 SN1ah  1 4.300000e-01    2.920000e+00
    N2 SN2ah  1 4.300000e-01    3.160000e+00
    N2 SN1dh  1 4.300000e-01    2.920000e+00
    N2 SN2dh  1 4.300000e-01    3.160000e+00
    N2  SX1h  1 4.300000e-01    2.770000e+00
    N2  SX2h  1 4.300000e-01    2.770000e+00
    N2  SX3h  1 4.300000e-01    2.920000e+00
    N2  SX4h  1 4.300000e-01    3.160000e+00
    N2  SC1h  1 4.300000e-01    2.320000e+00
    N2  SC2h  1 4.300000e-01    2.530000e+00
    N2  SC3h  1 4.300000e-01    2.770000e+00
    N2  SC4h  1 4.300000e-01    2.770000e+00
    N2  SC5h  1 4.300000e-01    2.770000e+00
    N2  SC6h  1 4.300000e-01    2.920000e+00
    N2  SN1h  1 4.300000e-01    2.920000e+00
    N2  SN2r  1 4.300000e-01    3.160000e+00
    N2 SX1er  1 4.300000e-01    2.920000e+00
    N2 SX2er  1 4.300000e-01    2.920000e+00
    N2 SX3er  1 4.300000e-01    3.160000e+00
    N2 SX4er  1 4.300000e-01    3.380000e+00
    N2 SC1er  1 4.300000e-01    2.530000e+00
    N2 SC2er  1 4.300000e-01    2.770000e+00
    N2 SC3er  1 4.300000e-01    2.920000e+00
    N2 SC4er  1 4.300000e-01    2.920000e+00
    N2 SC5er  1 4.300000e-01    2.920000e+00
    N2 SC6er  1 4.300000e-01    3.160000e+00
    N2 SX1vr  1 4.300000e-01    2.920000e+00
    N2 SX2vr  1 4.300000e-01    2.920000e+00
    N2 SX3vr  1 4.300000e-01    3.160000e+00
    N2 SX4vr  1 4.300000e-01    3.380000e+00
    N2 SC1vr  1 4.300000e-01    2.530000e+00
    N2 SC2vr  1 4.300000e-01    2.770000e+00
    N2 SC3vr  1 4.300000e-01    2.920000e+00
    N2 SC4vr  1 4.300000e-01    2.920000e+00
    N2 SC5vr  1 4.300000e-01    2.920000e+00
    N2 SC6vr  1 4.300000e-01    3.160000e+00
    N2 SN1ar  1 4.300000e-01    2.920000e+00
    N2 SN2ar  1 4.300000e-01    3.160000e+00
    N2 SN1dr  1 4.300000e-01    2.920000e+00
    N2 SN2dr  1 4.300000e-01    3.160000e+00
    N2  SX1r  1 4.300000e-01    2.770000e+00
    N2  SX2r  1 4.300000e-01    2.770000e+00
    N2  SX3r  1 4.300000e-01    2.920000e+00
    N2  SX4r  1 4.300000e-01    3.160000e+00
    N2  SC1r  1 4.300000e-01    2.320000e+00
    N2  SC2r  1 4.300000e-01    2.530000e+00
    N2  SC3r  1 4.300000e-01    2.770000e+00
    N2  SC4r  1 4.300000e-01    2.770000e+00
    N2  SC5r  1 4.300000e-01    2.770000e+00
    N2  SC6r  1 4.300000e-01    2.920000e+00
    N2  SN1r  1 4.300000e-01    2.920000e+00
  SP6d    N2  1 4.300000e-01    2.530000e+00
  SP5d    N2  1 4.300000e-01    2.530000e+00
  SP4d    N2  1 4.300000e-01    2.770000e+00
  SP3d    N2  1 4.300000e-01    2.920000e+00
  SP2d    N2  1 4.300000e-01    2.920000e+00
  SP1d    N2  1 4.300000e-01    2.920000e+00
  SN6d    N2  1 4.300000e-01    2.920000e+00
  SN5d    N2  1 4.300000e-01    3.160000e+00
  SN4d    N2  1 4.300000e-01    3.160000e+00
  SN3d    N2  1 4.300000e-01    3.160000e+00
  SP6a    N2  1 4.300000e-01    2.530000e+00
  SP5a    N2  1 4.300000e-01    2.530000e+00
  SP4a    N2  1 4.300000e-01    2.770000e+00
  SP3a    N2  1 4.300000e-01    2.920000e+00
  SP2a    N2  1 4.300000e-01    2.920000e+00
  SP1a    N2  1 4.300000e-01    2.920000e+00
  SN6a    N2  1 4.300000e-01    2.920000e+00
  SN5a    N2  1 4.300000e-01    3.160000e+00
  SN4a    N2  1 4.300000e-01    3.160000e+00
  SN3a    N2  1 4.300000e-01    3.160000e+00
  SP6q    N2  1 4.300000e-01    2.920000e+00
  SP5q    N2  1 4.300000e-01    2.920000e+00
  SP4q    N2  1 4.300000e-01    3.160000e+00
  SP3q    N2  1 4.300000e-01    3.380000e+00
  SP2q    N2  1 4.300000e-01    3.380000e+00
  SP1q    N2  1 4.300000e-01    3.380000e+00
  SN6q    N2  1 4.300000e-01    3.380000e+00
  SN5q    N2  1 4.300000e-01    3.590000e+00
  SN4q    N2  1 4.300000e-01    3.590000e+00
  SN3q    N2  1 4.300000e-01    3.590000e+00
 SN3aq    N2  1 4.300000e-01    3.590000e+00
 SN4aq    N2  1 4.300000e-01    3.590000e+00
 SN5aq    N2  1 4.300000e-01    3.590000e+00
 SN6aq    N2  1 4.300000e-01    3.380000e+00
 SP1aq    N2  1 4.300000e-01    3.380000e+00
 SP2aq    N2  1 4.300000e-01    3.380000e+00
 SP3aq    N2  1 4.300000e-01    3.380000e+00
 SP4aq    N2  1 4.300000e-01    3.160000e+00
 SP5aq    N2  1 4.300000e-01    2.920000e+00
 SP6aq    N2  1 4.300000e-01    2.920000e+00
 SN3dq    N2  1 4.300000e-01    3.590000e+00
 SN4dq    N2  1 4.300000e-01    3.590000e+00
 SN5dq    N2  1 4.300000e-01    3.590000e+00
 SN6dq    N2  1 4.300000e-01    3.380000e+00
 SP1dq    N2  1 4.300000e-01    3.380000e+00
 SP2dq    N2  1 4.300000e-01    3.380000e+00
 SP3dq    N2  1 4.300000e-01    3.380000e+00
 SP4dq    N2  1 4.300000e-01    3.160000e+00
 SP5dq    N2  1 4.300000e-01    2.920000e+00
 SP6dq    N2  1 4.300000e-01    2.920000e+00
  SP6h    N2  1 4.300000e-01    2.530000e+00
  SP5h    N2  1 4.300000e-01    2.530000e+00
  SP4h    N2  1 4.300000e-01    2.770000e+00
  SP3h    N2  1 4.300000e-01    2.920000e+00
  SP2h    N2  1 4.300000e-01    2.920000e+00
  SP1h    N2  1 4.300000e-01    2.920000e+00
  SN6h    N2  1 4.300000e-01    2.920000e+00
  SN5h    N2  1 4.300000e-01    3.160000e+00
  SN4h    N2  1 4.300000e-01    3.160000e+00
  SN3h    N2  1 4.300000e-01    3.160000e+00
 SN3ah    N2  1 4.300000e-01    3.160000e+00
 SN4ah    N2  1 4.300000e-01    3.160000e+00
 SN5ah    N2  1 4.300000e-01    3.160000e+00
 SN6ah    N2  1 4.300000e-01    2.920000e+00
 SP1ah    N2  1 4.300000e-01    2.920000e+00
 SP2ah    N2  1 4.300000e-01    2.920000e+00
 SP3ah    N2  1 4.300000e-01    2.920000e+00
 SP4ah    N2  1 4.300000e-01    2.770000e+00
 SP5ah    N2  1 4.300000e-01    2.530000e+00
 SP6ah    N2  1 4.300000e-01    2.530000e+00
 SN3dh    N2  1 4.300000e-01    3.160000e+00
 SN4dh    N2  1 4.300000e-01    3.160000e+00
 SN5dh    N2  1 4.300000e-01    3.160000e+00
 SN6dh    N2  1 4.300000e-01    2.920000e+00
 SP1dh    N2  1 4.300000e-01    2.920000e+00
 SP2dh    N2  1 4.300000e-01    2.920000e+00
 SP3dh    N2  1 4.300000e-01    2.920000e+00
 SP4dh    N2  1 4.300000e-01    2.770000e+00
 SP5dh    N2  1 4.300000e-01    2.530000e+00
 SP6dh    N2  1 4.300000e-01    2.530000e+00
  SP6r    N2  1 4.300000e-01    2.530000e+00
  SP5r    N2  1 4.300000e-01    2.530000e+00
  SP4r    N2  1 4.300000e-01    2.770000e+00
  SP3r    N2  1 4.300000e-01    2.920000e+00
  SP2r    N2  1 4.300000e-01    2.920000e+00
  SP1r    N2  1 4.300000e-01    2.920000e+00
  SN6r    N2  1 4.300000e-01    2.920000e+00
  SN5r    N2  1 4.300000e-01    3.160000e+00
  SN4r    N2  1 4.300000e-01    3.160000e+00
  SN3r    N2  1 4.300000e-01    3.160000e+00
 SN3ar    N2  1 4.300000e-01    3.160000e+00
 SN4ar    N2  1 4.300000e-01    3.160000e+00
 SN5ar    N2  1 4.300000e-01    3.160000e+00
 SN6ar    N2  1 4.300000e-01    2.920000e+00
 SP1ar    N2  1 4.300000e-01    2.920000e+00
 SP2ar    N2  1 4.300000e-01    2.920000e+00
 SP3ar    N2  1 4.300000e-01    2.920000e+00
 SP4ar    N2  1 4.300000e-01    2.770000e+00
 SP5ar    N2  1 4.300000e-01    2.530000e+00
 SP6ar    N2  1 4.300000e-01    2.530000e+00
 SN3dr    N2  1 4.300000e-01    3.160000e+00
 SN4dr    N2  1 4.300000e-01    3.160000e+00
 SN5dr    N2  1 4.300000e-01    3.160000e+00
 SN6dr    N2  1 4.300000e-01    2.920000e+00
 SP1dr    N2  1 4.300000e-01    2.920000e+00
 SP2dr    N2  1 4.300000e-01    2.920000e+00
 SP3dr    N2  1 4.300000e-01    2.920000e+00
 SP4dr    N2  1 4.300000e-01    2.770000e+00
 SP5dr    N2  1 4.300000e-01    2.530000e+00
 SP6dr    N2  1 4.300000e-01    2.530000e+00
    N2   TN2  1 3.950000e-01    2.500000e+00
    N2   TN1  1 3.950000e-01    2.310000e+00
    N2   TC6  1 3.950000e-01    2.310000e+00
    N2   TC5  1 3.950000e-01    2.110000e+00
    N2   TC4  1 3.950000e-01    2.110000e+00
    N2   TC3  1 3.950000e-01    2.110000e+00
    N2   TC2  1 3.950000e-01    1.850000e+00
    N2   TC1  1 3.950000e-01    1.670000e+00
    N2   TX4  1 3.950000e-01    2.500000e+00
    N2   TX3  1 3.950000e-01    2.310000e+00
    N2   TX2  1 3.950000e-01    2.110000e+00
    N2   TX1  1 3.950000e-01    2.110000e+00
    N2  TN2d  1 3.950000e-01    2.500000e+00
    N2  TN1d  1 3.950000e-01    2.310000e+00
    N2  TN2a  1 3.950000e-01    2.500000e+00
    N2  TN1a  1 3.950000e-01    2.310000e+00
    N2  TC6v  1 3.950000e-01    2.500000e+00
    N2  TC5v  1 3.950000e-01    2.310000e+00
    N2  TC4v  1 3.950000e-01    2.310000e+00
    N2  TC3v  1 3.950000e-01    2.310000e+00
    N2  TC2v  1 3.950000e-01    2.110000e+00
    N2  TC1v  1 3.950000e-01    1.850000e+00
    N2  TX4v  1 3.950000e-01    2.700000e+00
    N2  TX3v  1 3.950000e-01    2.500000e+00
    N2  TX2v  1 3.950000e-01    2.310000e+00
    N2  TX1v  1 3.950000e-01    2.310000e+00
    N2  TC6e  1 3.950000e-01    2.500000e+00
    N2  TC5e  1 3.950000e-01    2.310000e+00
    N2  TC4e  1 3.950000e-01    2.310000e+00
    N2  TC3e  1 3.950000e-01    2.310000e+00
    N2  TC2e  1 3.950000e-01    2.110000e+00
    N2  TC1e  1 3.950000e-01    1.850000e+00
    N2  TX4e  1 3.950000e-01    2.700000e+00
    N2  TX3e  1 3.950000e-01    2.500000e+00
    N2  TX2e  1 3.950000e-01    2.310000e+00
    N2  TX1e  1 3.950000e-01    2.310000e+00
    N2  TN2q  1 3.950000e-01    2.940000e+00
    N2 TX1eq  1 3.950000e-01    2.700000e+00
    N2 TX2eq  1 3.950000e-01    2.700000e+00
    N2 TX3eq  1 3.950000e-01    2.940000e+00
    N2 TX4eq  1 3.950000e-01    3.190000e+00
    N2 TC1eq  1 3.950000e-01    2.310000e+00
    N2 TC2eq  1 3.950000e-01    2.500000e+00
    N2 TC3eq  1 3.950000e-01    2.700000e+00
    N2 TC4eq  1 3.950000e-01    2.700000e+00
    N2 TC5eq  1 3.950000e-01    2.700000e+00
    N2 TC6eq  1 3.950000e-01    2.940000e+00
    N2 TX1vq  1 3.950000e-01    2.700000e+00
    N2 TX2vq  1 3.950000e-01    2.700000e+00
    N2 TX3vq  1 3.950000e-01    2.940000e+00
    N2 TX4vq  1 3.950000e-01    3.190000e+00
    N2 TC1vq  1 3.950000e-01    2.310000e+00
    N2 TC2vq  1 3.950000e-01    2.500000e+00
    N2 TC3vq  1 3.950000e-01    2.700000e+00
    N2 TC4vq  1 3.950000e-01    2.700000e+00
    N2 TC5vq  1 3.950000e-01    2.700000e+00
    N2 TC6vq  1 3.950000e-01    2.940000e+00
    N2 TN1aq  1 3.950000e-01    2.700000e+00
    N2 TN2aq  1 3.950000e-01    2.940000e+00
    N2 TN1dq  1 3.950000e-01    2.700000e+00
    N2 TN2dq  1 3.950000e-01    2.940000e+00
    N2  TX1q  1 3.950000e-01    2.500000e+00
    N2  TX2q  1 3.950000e-01    2.500000e+00
    N2  TX3q  1 3.950000e-01    2.700000e+00
    N2  TX4q  1 3.950000e-01    2.940000e+00
    N2  TC1q  1 3.950000e-01    2.110000e+00
    N2  TC2q  1 3.950000e-01    2.310000e+00
    N2  TC3q  1 3.950000e-01    2.500000e+00
    N2  TC4q  1 3.950000e-01    2.500000e+00
    N2  TC5q  1 3.950000e-01    2.500000e+00
    N2  TC6q  1 3.950000e-01    2.700000e+00
    N2  TN1q  1 3.950000e-01    2.700000e+00
    N2  TN2h  1 3.950000e-01    2.500000e+00
    N2 TX1eh  1 3.950000e-01    2.310000e+00
    N2 TX2eh  1 3.950000e-01    2.310000e+00
    N2 TX3eh  1 3.950000e-01    2.500000e+00
    N2 TX4eh  1 3.950000e-01    2.700000e+00
    N2 TC1eh  1 3.950000e-01    1.850000e+00
    N2 TC2eh  1 3.950000e-01    2.110000e+00
    N2 TC3eh  1 3.950000e-01    2.310000e+00
    N2 TC4eh  1 3.950000e-01    2.310000e+00
    N2 TC5eh  1 3.950000e-01    2.310000e+00
    N2 TC6eh  1 3.950000e-01    2.500000e+00
    N2 TX1vh  1 3.950000e-01    2.310000e+00
    N2 TX2vh  1 3.950000e-01    2.310000e+00
    N2 TX3vh  1 3.950000e-01    2.500000e+00
    N2 TX4vh  1 3.950000e-01    2.700000e+00
    N2 TC1vh  1 3.950000e-01    1.850000e+00
    N2 TC2vh  1 3.950000e-01    2.110000e+00
    N2 TC3vh  1 3.950000e-01    2.310000e+00
    N2 TC4vh  1 3.950000e-01    2.310000e+00
    N2 TC5vh  1 3.950000e-01    2.310000e+00
    N2 TC6vh  1 3.950000e-01    2.500000e+00
    N2 TN1ah  1 3.950000e-01    2.310000e+00
    N2 TN2ah  1 3.950000e-01    2.500000e+00
    N2 TN1dh  1 3.950000e-01    2.310000e+00
    N2 TN2dh  1 3.950000e-01    2.500000e+00
    N2  TX1h  1 3.950000e-01    2.110000e+00
    N2  TX2h  1 3.950000e-01    2.110000e+00
    N2  TX3h  1 3.950000e-01    2.310000e+00
    N2  TX4h  1 3.950000e-01    2.500000e+00
    N2  TC1h  1 3.950000e-01    1.670000e+00
    N2  TC2h  1 3.950000e-01    1.850000e+00
    N2  TC3h  1 3.950000e-01    2.110000e+00
    N2  TC4h  1 3.950000e-01    2.110000e+00
    N2  TC5h  1 3.950000e-01    2.110000e+00
    N2  TC6h  1 3.950000e-01    2.310000e+00
    N2  TN1h  1 3.950000e-01    2.310000e+00
    N2  TN2r  1 3.950000e-01    2.500000e+00
    N2 TX1er  1 3.950000e-01    2.310000e+00
    N2 TX2er  1 3.950000e-01    2.310000e+00
    N2 TX3er  1 3.950000e-01    2.500000e+00
    N2 TX4er  1 3.950000e-01    2.700000e+00
    N2 TC1er  1 3.950000e-01    1.850000e+00
    N2 TC2er  1 3.950000e-01    2.110000e+00
    N2 TC3er  1 3.950000e-01    2.310000e+00
    N2 TC4er  1 3.950000e-01    2.310000e+00
    N2 TC5er  1 3.950000e-01    2.310000e+00
    N2 TC6er  1 3.950000e-01    2.500000e+00
    N2 TX1vr  1 3.950000e-01    2.310000e+00
    N2 TX2vr  1 3.950000e-01    2.310000e+00
    N2 TX3vr  1 3.950000e-01    2.500000e+00
    N2 TX4vr  1 3.950000e-01    2.700000e+00
    N2 TC1vr  1 3.950000e-01    1.850000e+00
    N2 TC2vr  1 3.950000e-01    2.110000e+00
    N2 TC3vr  1 3.950000e-01    2.310000e+00
    N2 TC4vr  1 3.950000e-01    2.310000e+00
    N2 TC5vr  1 3.950000e-01    2.310000e+00
    N2 TC6vr  1 3.950000e-01    2.500000e+00
    N2 TN1ar  1 3.950000e-01    2.310000e+00
    N2 TN2ar  1 3.950000e-01    2.500000e+00
    N2 TN1dr  1 3.950000e-01    2.310000e+00
    N2 TN2dr  1 3.950000e-01    2.500000e+00
    N2  TX1r  1 3.950000e-01    2.110000e+00
    N2  TX2r  1 3.950000e-01    2.110000e+00
    N2  TX3r  1 3.950000e-01    2.310000e+00
    N2  TX4r  1 3.950000e-01    2.500000e+00
    N2  TC1r  1 3.950000e-01    1.670000e+00
    N2  TC2r  1 3.950000e-01    1.850000e+00
    N2  TC3r  1 3.950000e-01    2.110000e+00
    N2  TC4r  1 3.950000e-01    2.110000e+00
    N2  TC5r  1 3.950000e-01    2.110000e+00
    N2  TC6r  1 3.950000e-01    2.310000e+00
    N2  TN1r  1 3.950000e-01    2.310000e+00
  TP6d    N2  1 3.950000e-01    1.850000e+00
  TP5d    N2  1 3.950000e-01    1.850000e+00
  TP4d    N2  1 3.950000e-01    2.110000e+00
  TP3d    N2  1 3.950000e-01    2.310000e+00
  TP2d    N2  1 3.950000e-01    2.310000e+00
  TP1d    N2  1 3.950000e-01    2.310000e+00
  TN6d    N2  1 3.950000e-01    2.310000e+00
  TN5d    N2  1 3.950000e-01    2.500000e+00
  TN4d    N2  1 3.950000e-01    2.500000e+00
  TN3d    N2  1 3.950000e-01    2.500000e+00
  TP6a    N2  1 3.950000e-01    1.850000e+00
  TP5a    N2  1 3.950000e-01    1.850000e+00
  TP4a    N2  1 3.950000e-01    2.110000e+00
  TP3a    N2  1 3.950000e-01    2.310000e+00
  TP2a    N2  1 3.950000e-01    2.310000e+00
  TP1a    N2  1 3.950000e-01    2.310000e+00
  TN6a    N2  1 3.950000e-01    2.310000e+00
  TN5a    N2  1 3.950000e-01    2.500000e+00
  TN4a    N2  1 3.950000e-01    2.500000e+00
  TN3a    N2  1 3.950000e-01    2.500000e+00
  TP6q    N2  1 3.950000e-01    2.310000e+00
  TP5q    N2  1 3.950000e-01    2.310000e+00
  TP4q    N2  1 3.950000e-01    2.500000e+00
  TP3q    N2  1 3.950000e-01    2.700000e+00
  TP2q    N2  1 3.950000e-01    2.700000e+00
  TP1q    N2  1 3.950000e-01    2.700000e+00
  TN6q    N2  1 3.950000e-01    2.700000e+00
  TN5q    N2  1 3.950000e-01    2.940000e+00
  TN4q    N2  1 3.950000e-01    2.940000e+00
  TN3q    N2  1 3.950000e-01    2.940000e+00
 TN3aq    N2  1 3.950000e-01    2.940000e+00
 TN4aq    N2  1 3.950000e-01    2.940000e+00
 TN5aq    N2  1 3.950000e-01    2.940000e+00
 TN6aq    N2  1 3.950000e-01    2.700000e+00
 TP1aq    N2  1 3.950000e-01    2.700000e+00
 TP2aq    N2  1 3.950000e-01    2.700000e+00
 TP3aq    N2  1 3.950000e-01    2.700000e+00
 TP4aq    N2  1 3.950000e-01    2.500000e+00
 TP5aq    N2  1 3.950000e-01    2.310000e+00
 TP6aq    N2  1 3.950000e-01    2.310000e+00
 TN3dq    N2  1 3.950000e-01    2.940000e+00
 TN4dq    N2  1 3.950000e-01    2.940000e+00
 TN5dq    N2  1 3.950000e-01    2.940000e+00
 TN6dq    N2  1 3.950000e-01    2.700000e+00
 TP1dq    N2  1 3.950000e-01    2.700000e+00
 TP2dq    N2  1 3.950000e-01    2.700000e+00
 TP3dq    N2  1 3.950000e-01    2.700000e+00
 TP4dq    N2  1 3.950000e-01    2.500000e+00
 TP5dq    N2  1 3.950000e-01    2.310000e+00
 TP6dq    N2  1 3.950000e-01    2.310000e+00
  TP6h    N2  1 3.950000e-01    1.850000e+00
  TP5h    N2  1 3.950000e-01    1.850000e+00
  TP4h    N2  1 3.950000e-01    2.110000e+00
  TP3h    N2  1 3.950000e-01    2.310000e+00
  TP2h    N2  1 3.950000e-01    2.310000e+00
  TP1h    N2  1 3.950000e-01    2.310000e+00
  TN6h    N2  1 3.950000e-01    2.310000e+00
  TN5h    N2  1 3.950000e-01    2.500000e+00
  TN4h    N2  1 3.950000e-01    2.500000e+00
  TN3h    N2  1 3.950000e-01    2.500000e+00
 TN3ah    N2  1 3.950000e-01    2.500000e+00
 TN4ah    N2  1 3.950000e-01    2.500000e+00
 TN5ah    N2  1 3.950000e-01    2.500000e+00
 TN6ah    N2  1 3.950000e-01    2.310000e+00
 TP1ah    N2  1 3.950000e-01    2.310000e+00
 TP2ah    N2  1 3.950000e-01    2.310000e+00
 TP3ah    N2  1 3.950000e-01    2.310000e+00
 TP4ah    N2  1 3.950000e-01    2.110000e+00
 TP5ah    N2  1 3.950000e-01    1.850000e+00
 TP6ah    N2  1 3.950000e-01    1.850000e+00
 TN3dh    N2  1 3.950000e-01    2.500000e+00
 TN4dh    N2  1 3.950000e-01    2.500000e+00
 TN5dh    N2  1 3.950000e-01    2.500000e+00
 TN6dh    N2  1 3.950000e-01    2.310000e+00
 TP1dh    N2  1 3.950000e-01    2.310000e+00
 TP2dh    N2  1 3.950000e-01    2.310000e+00
 TP3dh    N2  1 3.950000e-01    2.310000e+00
 TP4dh    N2  1 3.950000e-01    2.110000e+00
 TP5dh    N2  1 3.950000e-01    1.850000e+00
 TP6dh    N2  1 3.950000e-01    1.850000e+00
  TP6r    N2  1 3.950000e-01    1.850000e+00
  TP5r    N2  1 3.950000e-01    1.850000e+00
  TP4r    N2  1 3.950000e-01    2.110000e+00
  TP3r    N2  1 3.950000e-01    2.310000e+00
  TP2r    N2  1 3.950000e-01    2.310000e+00
  TP1r    N2  1 3.950000e-01    2.310000e+00
  TN6r    N2  1 3.950000e-01    2.310000e+00
  TN5r    N2  1 3.950000e-01    2.500000e+00
  TN4r    N2  1 3.950000e-01    2.500000e+00
  TN3r    N2  1 3.950000e-01    2.500000e+00
 TN3ar    N2  1 3.950000e-01    2.500000e+00
 TN4ar    N2  1 3.950000e-01    2.500000e+00
 TN5ar    N2  1 3.950000e-01    2.500000e+00
 TN6ar    N2  1 3.950000e-01    2.310000e+00
 TP1ar    N2  1 3.950000e-01    2.310000e+00
 TP2ar    N2  1 3.950000e-01    2.310000e+00
 TP3ar    N2  1 3.950000e-01    2.310000e+00
 TP4ar    N2  1 3.950000e-01    2.110000e+00
 TP5ar    N2  1 3.950000e-01    1.850000e+00
 TP6ar    N2  1 3.950000e-01    1.850000e+00
 TN3dr    N2  1 3.950000e-01    2.500000e+00
 TN4dr    N2  1 3.950000e-01    2.500000e+00
 TN5dr    N2  1 3.950000e-01    2.500000e+00
 TN6dr    N2  1 3.950000e-01    2.310000e+00
 TP1dr    N2  1 3.950000e-01    2.310000e+00
 TP2dr    N2  1 3.950000e-01    2.310000e+00
 TP3dr    N2  1 3.950000e-01    2.310000e+00
 TP4dr    N2  1 3.950000e-01    2.110000e+00
 TP5dr    N2  1 3.950000e-01    1.850000e+00
 TP6dr    N2  1 3.950000e-01    1.850000e+00
   P6d   SN2  1 4.300000e-01    2.530000e+00
   P5d   SN2  1 4.300000e-01    2.530000e+00
   P4d   SN2  1 4.300000e-01    2.770000e+00
   P3d   SN2  1 4.300000e-01    2.920000e+00
   P2d   SN2  1 4.300000e-01    2.920000e+00
   P1d   SN2  1 4.300000e-01    2.920000e+00
   N6d   SN2  1 4.300000e-01    2.920000e+00
   N5d   SN2  1 4.300000e-01    3.160000e+00
   N4d   SN2  1 4.300000e-01    3.160000e+00
   N3d   SN2  1 4.300000e-01    3.160000e+00
   P6a   SN2  1 4.300000e-01    2.530000e+00
   P5a   SN2  1 4.300000e-01    2.530000e+00
   P4a   SN2  1 4.300000e-01    2.770000e+00
   P3a   SN2  1 4.300000e-01    2.920000e+00
   P2a   SN2  1 4.300000e-01    2.920000e+00
   P1a   SN2  1 4.300000e-01    2.920000e+00
   N6a   SN2  1 4.300000e-01    2.920000e+00
   N5a   SN2  1 4.300000e-01    3.160000e+00
   N4a   SN2  1 4.300000e-01    3.160000e+00
   N3a   SN2  1 4.300000e-01    3.160000e+00
   P6q   SN2  1 4.300000e-01    2.920000e+00
   P5q   SN2  1 4.300000e-01    2.920000e+00
   P4q   SN2  1 4.300000e-01    3.160000e+00
   P3q   SN2  1 4.300000e-01    3.380000e+00
   P2q   SN2  1 4.300000e-01    3.380000e+00
   P1q   SN2  1 4.300000e-01    3.380000e+00
   N6q   SN2  1 4.300000e-01    3.380000e+00
   N5q   SN2  1 4.300000e-01    3.590000e+00
   N4q   SN2  1 4.300000e-01    3.590000e+00
   N3q   SN2  1 4.300000e-01    3.590000e+00
  N3aq   SN2  1 4.300000e-01    3.590000e+00
  N4aq   SN2  1 4.300000e-01    3.590000e+00
  N5aq   SN2  1 4.300000e-01    3.590000e+00
  N6aq   SN2  1 4.300000e-01    3.380000e+00
  P1aq   SN2  1 4.300000e-01    3.380000e+00
  P2aq   SN2  1 4.300000e-01    3.380000e+00
  P3aq   SN2  1 4.300000e-01    3.380000e+00
  P4aq   SN2  1 4.300000e-01    3.160000e+00
  P5aq   SN2  1 4.300000e-01    2.920000e+00
  P6aq   SN2  1 4.300000e-01    2.920000e+00
  N3dq   SN2  1 4.300000e-01    3.590000e+00
  N4dq   SN2  1 4.300000e-01    3.590000e+00
  N5dq   SN2  1 4.300000e-01    3.590000e+00
  N6dq   SN2  1 4.300000e-01    3.380000e+00
  P1dq   SN2  1 4.300000e-01    3.380000e+00
  P2dq   SN2  1 4.300000e-01    3.380000e+00
  P3dq   SN2  1 4.300000e-01    3.380000e+00
  P4dq   SN2  1 4.300000e-01    3.160000e+00
  P5dq   SN2  1 4.300000e-01    2.920000e+00
  P6dq   SN2  1 4.300000e-01    2.920000e+00
   P6h   SN2  1 4.300000e-01    2.530000e+00
   P5h   SN2  1 4.300000e-01    2.530000e+00
   P4h   SN2  1 4.300000e-01    2.770000e+00
   P3h   SN2  1 4.300000e-01    2.920000e+00
   P2h   SN2  1 4.300000e-01    2.920000e+00
   P1h   SN2  1 4.300000e-01    2.920000e+00
   N6h   SN2  1 4.300000e-01    2.920000e+00
   N5h   SN2  1 4.300000e-01    3.160000e+00
   N4h   SN2  1 4.300000e-01    3.160000e+00
   N3h   SN2  1 4.300000e-01    3.160000e+00
  N3ah   SN2  1 4.300000e-01    3.160000e+00
  N4ah   SN2  1 4.300000e-01    3.160000e+00
  N5ah   SN2  1 4.300000e-01    3.160000e+00
  N6ah   SN2  1 4.300000e-01    2.920000e+00
  P1ah   SN2  1 4.300000e-01    2.920000e+00
  P2ah   SN2  1 4.300000e-01    2.920000e+00
  P3ah   SN2  1 4.300000e-01    2.920000e+00
  P4ah   SN2  1 4.300000e-01    2.770000e+00
  P5ah   SN2  1 4.300000e-01    2.530000e+00
  P6ah   SN2  1 4.300000e-01    2.530000e+00
  N3dh   SN2  1 4.300000e-01    3.160000e+00
  N4dh   SN2  1 4.300000e-01    3.160000e+00
  N5dh   SN2  1 4.300000e-01    3.160000e+00
  N6dh   SN2  1 4.300000e-01    2.920000e+00
  P1dh   SN2  1 4.300000e-01    2.920000e+00
  P2dh   SN2  1 4.300000e-01    2.920000e+00
  P3dh   SN2  1 4.300000e-01    2.920000e+00
  P4dh   SN2  1 4.300000e-01    2.770000e+00
  P5dh   SN2  1 4.300000e-01    2.530000e+00
  P6dh   SN2  1 4.300000e-01    2.530000e+00
   P6r   SN2  1 4.300000e-01    2.530000e+00
   P5r   SN2  1 4.300000e-01    2.530000e+00
   P4r   SN2  1 4.300000e-01    2.770000e+00
   P3r   SN2  1 4.300000e-01    2.920000e+00
   P2r   SN2  1 4.300000e-01    2.920000e+00
   P1r   SN2  1 4.300000e-01    2.920000e+00
   N6r   SN2  1 4.300000e-01    2.920000e+00
   N5r   SN2  1 4.300000e-01    3.160000e+00
   N4r   SN2  1 4.300000e-01    3.160000e+00
   N3r   SN2  1 4.300000e-01    3.160000e+00
  N3ar   SN2  1 4.300000e-01    3.160000e+00
  N4ar   SN2  1 4.300000e-01    3.160000e+00
  N5ar   SN2  1 4.300000e-01    3.160000e+00
  N6ar   SN2  1 4.300000e-01    2.920000e+00
  P1ar   SN2  1 4.300000e-01    2.920000e+00
  P2ar   SN2  1 4.300000e-01    2.920000e+00
  P3ar   SN2  1 4.300000e-01    2.920000e+00
  P4ar   SN2  1 4.300000e-01    2.770000e+00
  P5ar   SN2  1 4.300000e-01    2.530000e+00
  P6ar   SN2  1 4.300000e-01    2.530000e+00
  N3dr   SN2  1 4.300000e-01    3.160000e+00
  N4dr   SN2  1 4.300000e-01    3.160000e+00
  N5dr   SN2  1 4.300000e-01    3.160000e+00
  N6dr   SN2  1 4.300000e-01    2.920000e+00
  P1dr   SN2  1 4.300000e-01    2.920000e+00
  P2dr   SN2  1 4.300000e-01    2.920000e+00
  P3dr   SN2  1 4.300000e-01    2.920000e+00
  P4dr   SN2  1 4.300000e-01    2.770000e+00
  P5dr   SN2  1 4.300000e-01    2.530000e+00
  P6dr   SN2  1 4.300000e-01    2.530000e+00
   SN2    N1  1 4.300000e-01    2.920000e+00
   SN2    C6  1 4.300000e-01    2.920000e+00
   SN2    C5  1 4.300000e-01    2.770000e+00
   SN2    C4  1 4.300000e-01    2.770000e+00
   SN2    C3  1 4.300000e-01    2.770000e+00
   SN2    C2  1 4.300000e-01    2.530000e+00
   SN2    C1  1 4.300000e-01    2.320000e+00
   SN2    X4  1 4.300000e-01    3.160000e+00
   SN2    X3  1 4.300000e-01    2.920000e+00
   SN2    X2  1 4.300000e-01    2.770000e+00
   SN2    X1  1 4.300000e-01    2.770000e+00
   SN2   N2d  1 4.300000e-01    3.160000e+00
   SN2   N1d  1 4.300000e-01    2.920000e+00
   SN2   N2a  1 4.300000e-01    3.160000e+00
   SN2   N1a  1 4.300000e-01    2.920000e+00
   SN2   C6v  1 4.300000e-01    3.160000e+00
   SN2   C5v  1 4.300000e-01    2.920000e+00
   SN2   C4v  1 4.300000e-01    2.920000e+00
   SN2   C3v  1 4.300000e-01    2.920000e+00
   SN2   C2v  1 4.300000e-01    2.770000e+00
   SN2   C1v  1 4.300000e-01    2.530000e+00
   SN2   X4v  1 4.300000e-01    3.380000e+00
   SN2   X3v  1 4.300000e-01    3.160000e+00
   SN2   X2v  1 4.300000e-01    2.920000e+00
   SN2   X1v  1 4.300000e-01    2.920000e+00
   SN2   C6e  1 4.300000e-01    3.160000e+00
   SN2   C5e  1 4.300000e-01    2.920000e+00
   SN2   C4e  1 4.300000e-01    2.920000e+00
   SN2   C3e  1 4.300000e-01    2.920000e+00
   SN2   C2e  1 4.300000e-01    2.770000e+00
   SN2   C1e  1 4.300000e-01    2.530000e+00
   SN2   X4e  1 4.300000e-01    3.380000e+00
   SN2   X3e  1 4.300000e-01    3.160000e+00
   SN2   X2e  1 4.300000e-01    2.920000e+00
   SN2   X1e  1 4.300000e-01    2.920000e+00
   SN2   N2q  1 4.300000e-01    3.590000e+00
   SN2  X1eq  1 4.300000e-01    3.380000e+00
   SN2  X2eq  1 4.300000e-01    3.380000e+00
   SN2  X3eq  1 4.300000e-01    3.590000e+00
   SN2  X4eq  1 4.300000e-01    3.770000e+00
   SN2  C1eq  1 4.300000e-01    2.920000e+00
   SN2  C2eq  1 4.300000e-01    3.160000e+00
   SN2  C3eq  1 4.300000e-01    3.380000e+00
   SN2  C4eq  1 4.300000e-01    3.380000e+00
   SN2  C5eq  1 4.300000e-01    3.380000e+00
   SN2  C6eq  1 4.300000e-01    3.590000e+00
   SN2  X1vq  1 4.300000e-01    3.380000e+00
   SN2  X2vq  1 4.300000e-01    3.380000e+00
   SN2  X3vq  1 4.300000e-01    3.590000e+00
   SN2  X4vq  1 4.300000e-01    3.770000e+00
   SN2  C1vq  1 4.300000e-01    2.920000e+00
   SN2  C2vq  1 4.300000e-01    3.160000e+00
   SN2  C3vq  1 4.300000e-01    3.380000e+00
   SN2  C4vq  1 4.300000e-01    3.380000e+00
   SN2  C5vq  1 4.300000e-01    3.380000e+00
   SN2  C6vq  1 4.300000e-01    3.590000e+00
   SN2  N1aq  1 4.300000e-01    3.380000e+00
   SN2  N2aq  1 4.300000e-01    3.590000e+00
   SN2  N1dq  1 4.300000e-01    3.380000e+00
   SN2  N2dq  1 4.300000e-01    3.590000e+00
   SN2   X1q  1 4.300000e-01    3.160000e+00
   SN2   X2q  1 4.300000e-01    3.160000e+00
   SN2   X3q  1 4.300000e-01    3.380000e+00
   SN2   X4q  1 4.300000e-01    3.590000e+00
   SN2   C1q  1 4.300000e-01    2.770000e+00
   SN2   C2q  1 4.300000e-01    2.920000e+00
   SN2   C3q  1 4.300000e-01    3.160000e+00
   SN2   C4q  1 4.300000e-01    3.160000e+00
   SN2   C5q  1 4.300000e-01    3.160000e+00
   SN2   C6q  1 4.300000e-01    3.380000e+00
   SN2   N1q  1 4.300000e-01    3.380000e+00
   SN2   N2h  1 4.300000e-01    3.160000e+00
   SN2  X1eh  1 4.300000e-01    2.920000e+00
   SN2  X2eh  1 4.300000e-01    2.920000e+00
   SN2  X3eh  1 4.300000e-01    3.160000e+00
   SN2  X4eh  1 4.300000e-01    3.380000e+00
   SN2  C1eh  1 4.300000e-01    2.530000e+00
   SN2  C2eh  1 4.300000e-01    2.770000e+00
   SN2  C3eh  1 4.300000e-01    2.920000e+00
   SN2  C4eh  1 4.300000e-01    2.920000e+00
   SN2  C5eh  1 4.300000e-01    2.920000e+00
   SN2  C6eh  1 4.300000e-01    3.160000e+00
   SN2  X1vh  1 4.300000e-01    2.920000e+00
   SN2  X2vh  1 4.300000e-01    2.920000e+00
   SN2  X3vh  1 4.300000e-01    3.160000e+00
   SN2  X4vh  1 4.300000e-01    3.380000e+00
   SN2  C1vh  1 4.300000e-01    2.530000e+00
   SN2  C2vh  1 4.300000e-01    2.770000e+00
   SN2  C3vh  1 4.300000e-01    2.920000e+00
   SN2  C4vh  1 4.300000e-01    2.920000e+00
   SN2  C5vh  1 4.300000e-01    2.920000e+00
   SN2  C6vh  1 4.300000e-01    3.160000e+00
   SN2  N1ah  1 4.300000e-01    2.920000e+00
   SN2  N2ah  1 4.300000e-01    3.160000e+00
   SN2  N1dh  1 4.300000e-01    2.920000e+00
   SN2  N2dh  1 4.300000e-01    3.160000e+00
   SN2   X1h  1 4.300000e-01    2.770000e+00
   SN2   X2h  1 4.300000e-01    2.770000e+00
   SN2   X3h  1 4.300000e-01    2.920000e+00
   SN2   X4h  1 4.300000e-01    3.160000e+00
   SN2   C1h  1 4.300000e-01    2.320000e+00
   SN2   C2h  1 4.300000e-01    2.530000e+00
   SN2   C3h  1 4.300000e-01    2.770000e+00
   SN2   C4h  1 4.300000e-01    2.770000e+00
   SN2   C5h  1 4.300000e-01    2.770000e+00
   SN2   C6h  1 4.300000e-01    2.920000e+00
   SN2   N1h  1 4.300000e-01    2.920000e+00
   SN2   N2r  1 4.300000e-01    3.160000e+00
   SN2  X1er  1 4.300000e-01    2.920000e+00
   SN2  X2er  1 4.300000e-01    2.920000e+00
   SN2  X3er  1 4.300000e-01    3.160000e+00
   SN2  X4er  1 4.300000e-01    3.380000e+00
   SN2  C1er  1 4.300000e-01    2.530000e+00
   SN2  C2er  1 4.300000e-01    2.770000e+00
   SN2  C3er  1 4.300000e-01    2.920000e+00
   SN2  C4er  1 4.300000e-01    2.920000e+00
   SN2  C5er  1 4.300000e-01    2.920000e+00
   SN2  C6er  1 4.300000e-01    3.160000e+00
   SN2  X1vr  1 4.300000e-01    2.920000e+00
   SN2  X2vr  1 4.300000e-01    2.920000e+00
   SN2  X3vr  1 4.300000e-01    3.160000e+00
   SN2  X4vr  1 4.300000e-01    3.380000e+00
   SN2  C1vr  1 4.300000e-01    2.530000e+00
   SN2  C2vr  1 4.300000e-01    2.770000e+00
   SN2  C3vr  1 4.300000e-01    2.920000e+00
   SN2  C4vr  1 4.300000e-01    2.920000e+00
   SN2  C5vr  1 4.300000e-01    2.920000e+00
   SN2  C6vr  1 4.300000e-01    3.160000e+00
   SN2  N1ar  1 4.300000e-01    2.920000e+00
   SN2  N2ar  1 4.300000e-01    3.160000e+00
   SN2  N1dr  1 4.300000e-01    2.920000e+00
   SN2  N2dr  1 4.300000e-01    3.160000e+00
   SN2   X1r  1 4.300000e-01    2.770000e+00
   SN2   X2r  1 4.300000e-01    2.770000e+00
   SN2   X3r  1 4.300000e-01    2.920000e+00
   SN2   X4r  1 4.300000e-01    3.160000e+00
   SN2   C1r  1 4.300000e-01    2.320000e+00
   SN2   C2r  1 4.300000e-01    2.530000e+00
   SN2   C3r  1 4.300000e-01    2.770000e+00
   SN2   C4r  1 4.300000e-01    2.770000e+00
   SN2   C5r  1 4.300000e-01    2.770000e+00
   SN2   C6r  1 4.300000e-01    2.920000e+00
   SN2   N1r  1 4.300000e-01    2.920000e+00
   SN2   SN2  1 4.100000e-01    2.600000e+00
   SN2   SN1  1 4.100000e-01    2.350000e+00
   SN2   SC6  1 4.100000e-01    2.350000e+00
   SN2   SC5  1 4.100000e-01    2.200000e+00
   SN2   SC4  1 4.100000e-01    2.200000e+00
   SN2   SC3  1 4.100000e-01    2.200000e+00
   SN2   SC2  1 4.100000e-01    2.040000e+00
   SN2   SC1  1 4.100000e-01    1.910000e+00
   SN2   SX4  1 4.100000e-01    2.600000e+00
   SN2   SX3  1 4.100000e-01    2.350000e+00
   SN2   SX2  1 4.100000e-01    2.200000e+00
   SN2   SX1  1 4.100000e-01    2.200000e+00
  SP6d   SN2  1 4.100000e-01    2.040000e+00
  SP5d   SN2  1 4.100000e-01    2.040000e+00
  SP4d   SN2  1 4.100000e-01    2.200000e+00
  SP3d   SN2  1 4.100000e-01    2.350000e+00
  SP2d   SN2  1 4.100000e-01    2.350000e+00
  SP1d   SN2  1 4.100000e-01    2.350000e+00
  SN6d   SN2  1 4.100000e-01    2.350000e+00
  SN5d   SN2  1 4.100000e-01    2.600000e+00
  SN4d   SN2  1 4.100000e-01    2.600000e+00
  SN3d   SN2  1 4.100000e-01    2.600000e+00
   SN2  SN2d  1 4.100000e-01    2.600000e+00
   SN2  SN1d  1 4.100000e-01    2.350000e+00
  SP6a   SN2  1 4.100000e-01    2.040000e+00
  SP5a   SN2  1 4.100000e-01    2.040000e+00
  SP4a   SN2  1 4.100000e-01    2.200000e+00
  SP3a   SN2  1 4.100000e-01    2.350000e+00
  SP2a   SN2  1 4.100000e-01    2.350000e+00
  SP1a   SN2  1 4.100000e-01    2.350000e+00
  SN6a   SN2  1 4.100000e-01    2.350000e+00
  SN5a   SN2  1 4.100000e-01    2.600000e+00
  SN4a   SN2  1 4.100000e-01    2.600000e+00
  SN3a   SN2  1 4.100000e-01    2.600000e+00
   SN2  SN2a  1 4.100000e-01    2.600000e+00
   SN2  SN1a  1 4.100000e-01    2.350000e+00
   SN2  SC6v  1 4.100000e-01    2.600000e+00
   SN2  SC5v  1 4.100000e-01    2.350000e+00
   SN2  SC4v  1 4.100000e-01    2.350000e+00
   SN2  SC3v  1 4.100000e-01    2.350000e+00
   SN2  SC2v  1 4.100000e-01    2.200000e+00
   SN2  SC1v  1 4.100000e-01    2.040000e+00
   SN2  SX4v  1 4.100000e-01    2.840000e+00
   SN2  SX3v  1 4.100000e-01    2.600000e+00
   SN2  SX2v  1 4.100000e-01    2.350000e+00
   SN2  SX1v  1 4.100000e-01    2.350000e+00
   SN2  SC6e  1 4.100000e-01    2.600000e+00
   SN2  SC5e  1 4.100000e-01    2.350000e+00
   SN2  SC4e  1 4.100000e-01    2.350000e+00
   SN2  SC3e  1 4.100000e-01    2.350000e+00
   SN2  SC2e  1 4.100000e-01    2.200000e+00
   SN2  SC1e  1 4.100000e-01    2.040000e+00
   SN2  SX4e  1 4.100000e-01    2.840000e+00
   SN2  SX3e  1 4.100000e-01    2.600000e+00
   SN2  SX2e  1 4.100000e-01    2.350000e+00
   SN2  SX1e  1 4.100000e-01    2.350000e+00
  SP6q   SN2  1 4.100000e-01    2.350000e+00
  SP5q   SN2  1 4.100000e-01    2.350000e+00
  SP4q   SN2  1 4.100000e-01    2.600000e+00
  SP3q   SN2  1 4.100000e-01    2.840000e+00
  SP2q   SN2  1 4.100000e-01    2.840000e+00
  SP1q   SN2  1 4.100000e-01    2.840000e+00
  SN6q   SN2  1 4.100000e-01    2.840000e+00
  SN5q   SN2  1 4.100000e-01    3.070000e+00
  SN4q   SN2  1 4.100000e-01    3.070000e+00
  SN3q   SN2  1 4.100000e-01    3.070000e+00
   SN2  SN2q  1 4.100000e-01    3.070000e+00
   SN2 SX1eq  1 4.100000e-01    2.840000e+00
   SN2 SX2eq  1 4.100000e-01    2.840000e+00
   SN2 SX3eq  1 4.100000e-01    3.070000e+00
   SN2 SX4eq  1 4.100000e-01    3.310000e+00
   SN2 SC1eq  1 4.100000e-01    2.350000e+00
   SN2 SC2eq  1 4.100000e-01    2.600000e+00
   SN2 SC3eq  1 4.100000e-01    2.840000e+00
   SN2 SC4eq  1 4.100000e-01    2.840000e+00
   SN2 SC5eq  1 4.100000e-01    2.840000e+00
   SN2 SC6eq  1 4.100000e-01    3.070000e+00
   SN2 SX1vq  1 4.100000e-01    2.840000e+00
   SN2 SX2vq  1 4.100000e-01    2.840000e+00
   SN2 SX3vq  1 4.100000e-01    3.070000e+00
   SN2 SX4vq  1 4.100000e-01    3.310000e+00
   SN2 SC1vq  1 4.100000e-01    2.350000e+00
   SN2 SC2vq  1 4.100000e-01    2.600000e+00
   SN2 SC3vq  1 4.100000e-01    2.840000e+00
   SN2 SC4vq  1 4.100000e-01    2.840000e+00
   SN2 SC5vq  1 4.100000e-01    2.840000e+00
   SN2 SC6vq  1 4.100000e-01    3.070000e+00
   SN2 SN1aq  1 4.100000e-01    2.840000e+00
   SN2 SN2aq  1 4.100000e-01    3.070000e+00
 SN3aq   SN2  1 4.100000e-01    3.070000e+00
 SN4aq   SN2  1 4.100000e-01    3.070000e+00
 SN5aq   SN2  1 4.100000e-01    3.070000e+00
 SN6aq   SN2  1 4.100000e-01    2.840000e+00
 SP1aq   SN2  1 4.100000e-01    2.840000e+00
 SP2aq   SN2  1 4.100000e-01    2.840000e+00
 SP3aq   SN2  1 4.100000e-01    2.840000e+00
 SP4aq   SN2  1 4.100000e-01    2.600000e+00
 SP5aq   SN2  1 4.100000e-01    2.350000e+00
 SP6aq   SN2  1 4.100000e-01    2.350000e+00
   SN2 SN1dq  1 4.100000e-01    2.840000e+00
   SN2 SN2dq  1 4.100000e-01    3.070000e+00
 SN3dq   SN2  1 4.100000e-01    3.070000e+00
 SN4dq   SN2  1 4.100000e-01    3.070000e+00
 SN5dq   SN2  1 4.100000e-01    3.070000e+00
 SN6dq   SN2  1 4.100000e-01    2.840000e+00
 SP1dq   SN2  1 4.100000e-01    2.840000e+00
 SP2dq   SN2  1 4.100000e-01    2.840000e+00
 SP3dq   SN2  1 4.100000e-01    2.840000e+00
 SP4dq   SN2  1 4.100000e-01    2.600000e+00
 SP5dq   SN2  1 4.100000e-01    2.350000e+00
 SP6dq   SN2  1 4.100000e-01    2.350000e+00
   SN2  SX1q  1 4.100000e-01    2.600000e+00
   SN2  SX2q  1 4.100000e-01    2.600000e+00
   SN2  SX3q  1 4.100000e-01    2.840000e+00
   SN2  SX4q  1 4.100000e-01    3.070000e+00
   SN2  SC1q  1 4.100000e-01    2.200000e+00
   SN2  SC2q  1 4.100000e-01    2.350000e+00
   SN2  SC3q  1 4.100000e-01    2.600000e+00
   SN2  SC4q  1 4.100000e-01    2.600000e+00
   SN2  SC5q  1 4.100000e-01    2.600000e+00
   SN2  SC6q  1 4.100000e-01    2.840000e+00
   SN2  SN1q  1 4.100000e-01    2.840000e+00
  SP6h   SN2  1 4.100000e-01    2.040000e+00
  SP5h   SN2  1 4.100000e-01    2.040000e+00
  SP4h   SN2  1 4.100000e-01    2.200000e+00
  SP3h   SN2  1 4.100000e-01    2.350000e+00
  SP2h   SN2  1 4.100000e-01    2.350000e+00
  SP1h   SN2  1 4.100000e-01    2.350000e+00
  SN6h   SN2  1 4.100000e-01    2.350000e+00
  SN5h   SN2  1 4.100000e-01    2.600000e+00
  SN4h   SN2  1 4.100000e-01    2.600000e+00
  SN3h   SN2  1 4.100000e-01    2.600000e+00
   SN2  SN2h  1 4.100000e-01    2.600000e+00
   SN2 SX1eh  1 4.100000e-01    2.350000e+00
   SN2 SX2eh  1 4.100000e-01    2.350000e+00
   SN2 SX3eh  1 4.100000e-01    2.600000e+00
   SN2 SX4eh  1 4.100000e-01    2.840000e+00
   SN2 SC1eh  1 4.100000e-01    2.040000e+00
   SN2 SC2eh  1 4.100000e-01    2.200000e+00
   SN2 SC3eh  1 4.100000e-01    2.350000e+00
   SN2 SC4eh  1 4.100000e-01    2.350000e+00
   SN2 SC5eh  1 4.100000e-01    2.350000e+00
   SN2 SC6eh  1 4.100000e-01    2.600000e+00
   SN2 SX1vh  1 4.100000e-01    2.350000e+00
   SN2 SX2vh  1 4.100000e-01    2.350000e+00
   SN2 SX3vh  1 4.100000e-01    2.600000e+00
   SN2 SX4vh  1 4.100000e-01    2.840000e+00
   SN2 SC1vh  1 4.100000e-01    2.040000e+00
   SN2 SC2vh  1 4.100000e-01    2.200000e+00
   SN2 SC3vh  1 4.100000e-01    2.350000e+00
   SN2 SC4vh  1 4.100000e-01    2.350000e+00
   SN2 SC5vh  1 4.100000e-01    2.350000e+00
   SN2 SC6vh  1 4.100000e-01    2.600000e+00
   SN2 SN1ah  1 4.100000e-01    2.350000e+00
   SN2 SN2ah  1 4.100000e-01    2.600000e+00
 SN3ah   SN2  1 4.100000e-01    2.600000e+00
 SN4ah   SN2  1 4.100000e-01    2.600000e+00
 SN5ah   SN2  1 4.100000e-01    2.600000e+00
 SN6ah   SN2  1 4.100000e-01    2.350000e+00
 SP1ah   SN2  1 4.100000e-01    2.350000e+00
 SP2ah   SN2  1 4.100000e-01    2.350000e+00
 SP3ah   SN2  1 4.100000e-01    2.350000e+00
 SP4ah   SN2  1 4.100000e-01    2.200000e+00
 SP5ah   SN2  1 4.100000e-01    2.040000e+00
 SP6ah   SN2  1 4.100000e-01    2.040000e+00
   SN2 SN1dh  1 4.100000e-01    2.350000e+00
   SN2 SN2dh  1 4.100000e-01    2.600000e+00
 SN3dh   SN2  1 4.100000e-01    2.600000e+00
 SN4dh   SN2  1 4.100000e-01    2.600000e+00
 SN5dh   SN2  1 4.100000e-01    2.600000e+00
 SN6dh   SN2  1 4.100000e-01    2.350000e+00
 SP1dh   SN2  1 4.100000e-01    2.350000e+00
 SP2dh   SN2  1 4.100000e-01    2.350000e+00
 SP3dh   SN2  1 4.100000e-01    2.350000e+00
 SP4dh   SN2  1 4.100000e-01    2.200000e+00
 SP5dh   SN2  1 4.100000e-01    2.040000e+00
 SP6dh   SN2  1 4.100000e-01    2.040000e+00
   SN2  SX1h  1 4.100000e-01    2.200000e+00
   SN2  SX2h  1 4.100000e-01    2.200000e+00
   SN2  SX3h  1 4.100000e-01    2.350000e+00
   SN2  SX4h  1 4.100000e-01    2.600000e+00
   SN2  SC1h  1 4.100000e-01    1.910000e+00
   SN2  SC2h  1 4.100000e-01    2.040000e+00
   SN2  SC3h  1 4.100000e-01    2.200000e+00
   SN2  SC4h  1 4.100000e-01    2.200000e+00
   SN2  SC5h  1 4.100000e-01    2.200000e+00
   SN2  SC6h  1 4.100000e-01    2.350000e+00
   SN2  SN1h  1 4.100000e-01    2.350000e+00
  SP6r   SN2  1 4.100000e-01    2.040000e+00
  SP5r   SN2  1 4.100000e-01    2.040000e+00
  SP4r   SN2  1 4.100000e-01    2.200000e+00
  SP3r   SN2  1 4.100000e-01    2.350000e+00
  SP2r   SN2  1 4.100000e-01    2.350000e+00
  SP1r   SN2  1 4.100000e-01    2.350000e+00
  SN6r   SN2  1 4.100000e-01    2.350000e+00
  SN5r   SN2  1 4.100000e-01    2.600000e+00
  SN4r   SN2  1 4.100000e-01    2.600000e+00
  SN3r   SN2  1 4.100000e-01    2.600000e+00
   SN2  SN2r  1 4.100000e-01    2.600000e+00
   SN2 SX1er  1 4.100000e-01    2.350000e+00
   SN2 SX2er  1 4.100000e-01    2.350000e+00
   SN2 SX3er  1 4.100000e-01    2.600000e+00
   SN2 SX4er  1 4.100000e-01    2.840000e+00
   SN2 SC1er  1 4.100000e-01    2.040000e+00
   SN2 SC2er  1 4.100000e-01    2.200000e+00
   SN2 SC3er  1 4.100000e-01    2.350000e+00
   SN2 SC4er  1 4.100000e-01    2.350000e+00
   SN2 SC5er  1 4.100000e-01    2.350000e+00
   SN2 SC6er  1 4.100000e-01    2.600000e+00
   SN2 SX1vr  1 4.100000e-01    2.350000e+00
   SN2 SX2vr  1 4.100000e-01    2.350000e+00
   SN2 SX3vr  1 4.100000e-01    2.600000e+00
   SN2 SX4vr  1 4.100000e-01    2.840000e+00
   SN2 SC1vr  1 4.100000e-01    2.040000e+00
   SN2 SC2vr  1 4.100000e-01    2.200000e+00
   SN2 SC3vr  1 4.100000e-01    2.350000e+00
   SN2 SC4vr  1 4.100000e-01    2.350000e+00
   SN2 SC5vr  1 4.100000e-01    2.350000e+00
   SN2 SC6vr  1 4.100000e-01    2.600000e+00
   SN2 SN1ar  1 4.100000e-01    2.350000e+00
   SN2 SN2ar  1 4.100000e-01    2.600000e+00
 SN3ar   SN2  1 4.100000e-01    2.600000e+00
 SN4ar   SN2  1 4.100000e-01    2.600000e+00
 SN5ar   SN2  1 4.100000e-01    2.600000e+00
 SN6ar   SN2  1 4.100000e-01    2.350000e+00
 SP1ar   SN2  1 4.100000e-01    2.350000e+00
 SP2ar   SN2  1 4.100000e-01    2.350000e+00
 SP3ar   SN2  1 4.100000e-01    2.350000e+00
 SP4ar   SN2  1 4.100000e-01    2.200000e+00
 SP5ar   SN2  1 4.100000e-01    2.040000e+00
 SP6ar   SN2  1 4.100000e-01    2.040000e+00
   SN2 SN1dr  1 4.100000e-01    2.350000e+00
   SN2 SN2dr  1 4.100000e-01    2.600000e+00
 SN3dr   SN2  1 4.100000e-01    2.600000e+00
 SN4dr   SN2  1 4.100000e-01    2.600000e+00
 SN5dr   SN2  1 4.100000e-01    2.600000e+00
 SN6dr   SN2  1 4.100000e-01    2.350000e+00
 SP1dr   SN2  1 4.100000e-01    2.350000e+00
 SP2dr   SN2  1 4.100000e-01    2.350000e+00
 SP3dr   SN2  1 4.100000e-01    2.350000e+00
 SP4dr   SN2  1 4.100000e-01    2.200000e+00
 SP5dr   SN2  1 4.100000e-01    2.040000e+00
 SP6dr   SN2  1 4.100000e-01    2.040000e+00
   SN2  SX1r  1 4.100000e-01    2.200000e+00
   SN2  SX2r  1 4.100000e-01    2.200000e+00
   SN2  SX3r  1 4.100000e-01    2.350000e+00
   SN2  SX4r  1 4.100000e-01    2.600000e+00
   SN2  SC1r  1 4.100000e-01    1.910000e+00
   SN2  SC2r  1 4.100000e-01    2.040000e+00
   SN2  SC3r  1 4.100000e-01    2.200000e+00
   SN2  SC4r  1 4.100000e-01    2.200000e+00
   SN2  SC5r  1 4.100000e-01    2.200000e+00
   SN2  SC6r  1 4.100000e-01    2.350000e+00
   SN2  SN1r  1 4.100000e-01    2.350000e+00
   SN2   TN2  1 3.650000e-01    2.110000e+00
   SN2   TN1  1 3.650000e-01    1.910000e+00
   SN2   TC6  1 3.650000e-01    1.910000e+00
   SN2   TC5  1 3.650000e-01    1.750000e+00
   SN2   TC4  1 3.650000e-01    1.750000e+00
   SN2   TC3  1 3.650000e-01    1.750000e+00
   SN2   TC2  1 3.660000e-01    1.600000e+00
   SN2   TC1  1 3.780000e-01    1.450000e+00
   SN2   TX4  1 3.650000e-01    2.110000e+00
   SN2   TX3  1 3.650000e-01    1.910000e+00
   SN2   TX2  1 3.650000e-01    1.750000e+00
   SN2   TX1  1 3.650000e-01    1.750000e+00
   SN2  TN2d  1 3.650000e-01    2.110000e+00
   SN2  TN1d  1 3.650000e-01    1.910000e+00
   SN2  TN2a  1 3.650000e-01    2.110000e+00
   SN2  TN1a  1 3.650000e-01    1.910000e+00
   SN2  TC6v  1 3.650000e-01    2.110000e+00
   SN2  TC5v  1 3.650000e-01    1.910000e+00
   SN2  TC4v  1 3.650000e-01    1.910000e+00
   SN2  TC3v  1 3.650000e-01    1.910000e+00
   SN2  TC2v  1 3.650000e-01    1.750000e+00
   SN2  TC1v  1 3.660000e-01    1.600000e+00
   SN2  TX4v  1 3.650000e-01    2.340000e+00
   SN2  TX3v  1 3.650000e-01    2.110000e+00
   SN2  TX2v  1 3.650000e-01    1.910000e+00
   SN2  TX1v  1 3.650000e-01    1.910000e+00
   SN2  TC6e  1 3.650000e-01    2.110000e+00
   SN2  TC5e  1 3.650000e-01    1.910000e+00
   SN2  TC4e  1 3.650000e-01    1.910000e+00
   SN2  TC3e  1 3.650000e-01    1.910000e+00
   SN2  TC2e  1 3.650000e-01    1.750000e+00
   SN2  TC1e  1 3.660000e-01    1.600000e+00
   SN2  TX4e  1 3.650000e-01    2.340000e+00
   SN2  TX3e  1 3.650000e-01    2.110000e+00
   SN2  TX2e  1 3.650000e-01    1.910000e+00
   SN2  TX1e  1 3.650000e-01    1.910000e+00
   SN2  TN2q  1 3.650000e-01    2.570000e+00
   SN2 TX1eq  1 3.650000e-01    2.340000e+00
   SN2 TX2eq  1 3.650000e-01    2.340000e+00
   SN2 TX3eq  1 3.650000e-01    2.570000e+00
   SN2 TX4eq  1 3.650000e-01    2.830000e+00
   SN2 TC1eq  1 3.650000e-01    1.910000e+00
   SN2 TC2eq  1 3.650000e-01    2.110000e+00
   SN2 TC3eq  1 3.650000e-01    2.340000e+00
   SN2 TC4eq  1 3.650000e-01    2.340000e+00
   SN2 TC5eq  1 3.650000e-01    2.340000e+00
   SN2 TC6eq  1 3.650000e-01    2.570000e+00
   SN2 TX1vq  1 3.650000e-01    2.340000e+00
   SN2 TX2vq  1 3.650000e-01    2.340000e+00
   SN2 TX3vq  1 3.650000e-01    2.570000e+00
   SN2 TX4vq  1 3.650000e-01    2.830000e+00
   SN2 TC1vq  1 3.650000e-01    1.910000e+00
   SN2 TC2vq  1 3.650000e-01    2.110000e+00
   SN2 TC3vq  1 3.650000e-01    2.340000e+00
   SN2 TC4vq  1 3.650000e-01    2.340000e+00
   SN2 TC5vq  1 3.650000e-01    2.340000e+00
   SN2 TC6vq  1 3.650000e-01    2.570000e+00
   SN2 TN1aq  1 3.650000e-01    2.340000e+00
   SN2 TN2aq  1 3.650000e-01    2.570000e+00
   SN2 TN1dq  1 3.650000e-01    2.340000e+00
   SN2 TN2dq  1 3.650000e-01    2.570000e+00
   SN2  TX1q  1 3.650000e-01    2.110000e+00
   SN2  TX2q  1 3.650000e-01    2.110000e+00
   SN2  TX3q  1 3.650000e-01    2.340000e+00
   SN2  TX4q  1 3.650000e-01    2.570000e+00
   SN2  TC1q  1 3.650000e-01    1.750000e+00
   SN2  TC2q  1 3.650000e-01    1.910000e+00
   SN2  TC3q  1 3.650000e-01    2.110000e+00
   SN2  TC4q  1 3.650000e-01    2.110000e+00
   SN2  TC5q  1 3.650000e-01    2.110000e+00
   SN2  TC6q  1 3.650000e-01    2.340000e+00
   SN2  TN1q  1 3.650000e-01    2.340000e+00
   SN2  TN2h  1 3.650000e-01    2.110000e+00
   SN2 TX1eh  1 3.650000e-01    1.910000e+00
   SN2 TX2eh  1 3.650000e-01    1.910000e+00
   SN2 TX3eh  1 3.650000e-01    2.110000e+00
   SN2 TX4eh  1 3.650000e-01    2.340000e+00
   SN2 TC1eh  1 3.660000e-01    1.600000e+00
   SN2 TC2eh  1 3.650000e-01    1.750000e+00
   SN2 TC3eh  1 3.650000e-01    1.910000e+00
   SN2 TC4eh  1 3.650000e-01    1.910000e+00
   SN2 TC5eh  1 3.650000e-01    1.910000e+00
   SN2 TC6eh  1 3.650000e-01    2.110000e+00
   SN2 TX1vh  1 3.650000e-01    1.910000e+00
   SN2 TX2vh  1 3.650000e-01    1.910000e+00
   SN2 TX3vh  1 3.650000e-01    2.110000e+00
   SN2 TX4vh  1 3.650000e-01    2.340000e+00
   SN2 TC1vh  1 3.660000e-01    1.600000e+00
   SN2 TC2vh  1 3.650000e-01    1.750000e+00
   SN2 TC3vh  1 3.650000e-01    1.910000e+00
   SN2 TC4vh  1 3.650000e-01    1.910000e+00
   SN2 TC5vh  1 3.650000e-01    1.910000e+00
   SN2 TC6vh  1 3.650000e-01    2.110000e+00
   SN2 TN1ah  1 3.650000e-01    1.910000e+00
   SN2 TN2ah  1 3.650000e-01    2.110000e+00
   SN2 TN1dh  1 3.650000e-01    1.910000e+00
   SN2 TN2dh  1 3.650000e-01    2.110000e+00
   SN2  TX1h  1 3.650000e-01    1.750000e+00
   SN2  TX2h  1 3.650000e-01    1.750000e+00
   SN2  TX3h  1 3.650000e-01    1.910000e+00
   SN2  TX4h  1 3.650000e-01    2.110000e+00
   SN2  TC1h  1 3.780000e-01    1.450000e+00
   SN2  TC2h  1 3.660000e-01    1.600000e+00
   SN2  TC3h  1 3.650000e-01    1.750000e+00
   SN2  TC4h  1 3.650000e-01    1.750000e+00
   SN2  TC5h  1 3.650000e-01    1.750000e+00
   SN2  TC6h  1 3.650000e-01    1.910000e+00
   SN2  TN1h  1 3.650000e-01    1.910000e+00
   SN2  TN2r  1 3.650000e-01    2.110000e+00
   SN2 TX1er  1 3.650000e-01    1.910000e+00
   SN2 TX2er  1 3.650000e-01    1.910000e+00
   SN2 TX3er  1 3.650000e-01    2.110000e+00
   SN2 TX4er  1 3.650000e-01    2.340000e+00
   SN2 TC1er  1 3.660000e-01    1.600000e+00
   SN2 TC2er  1 3.650000e-01    1.750000e+00
   SN2 TC3er  1 3.650000e-01    1.910000e+00
   SN2 TC4er  1 3.650000e-01    1.910000e+00
   SN2 TC5er  1 3.650000e-01    1.910000e+00
   SN2 TC6er  1 3.650000e-01    2.110000e+00
   SN2 TX1vr  1 3.650000e-01    1.910000e+00
   SN2 TX2vr  1 3.650000e-01    1.910000e+00
   SN2 TX3vr  1 3.650000e-01    2.110000e+00
   SN2 TX4vr  1 3.650000e-01    2.340000e+00
   SN2 TC1vr  1 3.660000e-01    1.600000e+00
   SN2 TC2vr  1 3.650000e-01    1.750000e+00
   SN2 TC3vr  1 3.650000e-01    1.910000e+00
   SN2 TC4vr  1 3.650000e-01    1.910000e+00
   SN2 TC5vr  1 3.650000e-01    1.910000e+00
   SN2 TC6vr  1 3.650000e-01    2.110000e+00
   SN2 TN1ar  1 3.650000e-01    1.910000e+00
   SN2 TN2ar  1 3.650000e-01    2.110000e+00
   SN2 TN1dr  1 3.650000e-01    1.910000e+00
   SN2 TN2dr  1 3.650000e-01    2.110000e+00
   SN2  TX1r  1 3.650000e-01    1.750000e+00
   SN2  TX2r  1 3.650000e-01    1.750000e+00
   SN2  TX3r  1 3.650000e-01    1.910000e+00
   SN2  TX4r  1 3.650000e-01    2.110000e+00
   SN2  TC1r  1 3.780000e-01    1.450000e+00
   SN2  TC2r  1 3.660000e-01    1.600000e+00
   SN2  TC3r  1 3.650000e-01    1.750000e+00
   SN2  TC4r  1 3.650000e-01    1.750000e+00
   SN2  TC5r  1 3.650000e-01    1.750000e+00
   SN2  TC6r  1 3.650000e-01    1.910000e+00
   SN2  TN1r  1 3.650000e-01    1.910000e+00
  TP6d   SN2  1 3.660000e-01    1.600000e+00
  TP5d   SN2  1 3.660000e-01    1.600000e+00
  TP4d   SN2  1 3.650000e-01    1.750000e+00
  TP3d   SN2  1 3.650000e-01    1.910000e+00
  TP2d   SN2  1 3.650000e-01    1.910000e+00
  TP1d   SN2  1 3.650000e-01    1.910000e+00
  TN6d   SN2  1 3.650000e-01    1.910000e+00
  TN5d   SN2  1 3.650000e-01    2.110000e+00
  TN4d   SN2  1 3.650000e-01    2.110000e+00
  TN3d   SN2  1 3.650000e-01    2.110000e+00
  TP6a   SN2  1 3.660000e-01    1.600000e+00
  TP5a   SN2  1 3.660000e-01    1.600000e+00
  TP4a   SN2  1 3.650000e-01    1.750000e+00
  TP3a   SN2  1 3.650000e-01    1.910000e+00
  TP2a   SN2  1 3.650000e-01    1.910000e+00
  TP1a   SN2  1 3.650000e-01    1.910000e+00
  TN6a   SN2  1 3.650000e-01    1.910000e+00
  TN5a   SN2  1 3.650000e-01    2.110000e+00
  TN4a   SN2  1 3.650000e-01    2.110000e+00
  TN3a   SN2  1 3.650000e-01    2.110000e+00
  TP6q   SN2  1 3.650000e-01    1.910000e+00
  TP5q   SN2  1 3.650000e-01    1.910000e+00
  TP4q   SN2  1 3.650000e-01    2.110000e+00
  TP3q   SN2  1 3.650000e-01    2.340000e+00
  TP2q   SN2  1 3.650000e-01    2.340000e+00
  TP1q   SN2  1 3.650000e-01    2.340000e+00
  TN6q   SN2  1 3.650000e-01    2.340000e+00
  TN5q   SN2  1 3.650000e-01    2.570000e+00
  TN4q   SN2  1 3.650000e-01    2.570000e+00
  TN3q   SN2  1 3.650000e-01    2.570000e+00
 TN3aq   SN2  1 3.650000e-01    2.570000e+00
 TN4aq   SN2  1 3.650000e-01    2.570000e+00
 TN5aq   SN2  1 3.650000e-01    2.570000e+00
 TN6aq   SN2  1 3.650000e-01    2.340000e+00
 TP1aq   SN2  1 3.650000e-01    2.340000e+00
 TP2aq   SN2  1 3.650000e-01    2.340000e+00
 TP3aq   SN2  1 3.650000e-01    2.340000e+00
 TP4aq   SN2  1 3.650000e-01    2.110000e+00
 TP5aq   SN2  1 3.650000e-01    1.910000e+00
 TP6aq   SN2  1 3.650000e-01    1.910000e+00
 TN3dq   SN2  1 3.650000e-01    2.570000e+00
 TN4dq   SN2  1 3.650000e-01    2.570000e+00
 TN5dq   SN2  1 3.650000e-01    2.570000e+00
 TN6dq   SN2  1 3.650000e-01    2.340000e+00
 TP1dq   SN2  1 3.650000e-01    2.340000e+00
 TP2dq   SN2  1 3.650000e-01    2.340000e+00
 TP3dq   SN2  1 3.650000e-01    2.340000e+00
 TP4dq   SN2  1 3.650000e-01    2.110000e+00
 TP5dq   SN2  1 3.650000e-01    1.910000e+00
 TP6dq   SN2  1 3.650000e-01    1.910000e+00
  TP6h   SN2  1 3.660000e-01    1.600000e+00
  TP5h   SN2  1 3.660000e-01    1.600000e+00
  TP4h   SN2  1 3.650000e-01    1.750000e+00
  TP3h   SN2  1 3.650000e-01    1.910000e+00
  TP2h   SN2  1 3.650000e-01    1.910000e+00
  TP1h   SN2  1 3.650000e-01    1.910000e+00
  TN6h   SN2  1 3.650000e-01    1.910000e+00
  TN5h   SN2  1 3.650000e-01    2.110000e+00
  TN4h   SN2  1 3.650000e-01    2.110000e+00
  TN3h   SN2  1 3.650000e-01    2.110000e+00
 TN3ah   SN2  1 3.650000e-01    2.110000e+00
 TN4ah   SN2  1 3.650000e-01    2.110000e+00
 TN5ah   SN2  1 3.650000e-01    2.110000e+00
 TN6ah   SN2  1 3.650000e-01    1.910000e+00
 TP1ah   SN2  1 3.650000e-01    1.910000e+00
 TP2ah   SN2  1 3.650000e-01    1.910000e+00
 TP3ah   SN2  1 3.650000e-01    1.910000e+00
 TP4ah   SN2  1 3.650000e-01    1.750000e+00
 TP5ah   SN2  1 3.660000e-01    1.600000e+00
 TP6ah   SN2  1 3.660000e-01    1.600000e+00
 TN3dh   SN2  1 3.650000e-01    2.110000e+00
 TN4dh   SN2  1 3.650000e-01    2.110000e+00
 TN5dh   SN2  1 3.650000e-01    2.110000e+00
 TN6dh   SN2  1 3.650000e-01    1.910000e+00
 TP1dh   SN2  1 3.650000e-01    1.910000e+00
 TP2dh   SN2  1 3.650000e-01    1.910000e+00
 TP3dh   SN2  1 3.650000e-01    1.910000e+00
 TP4dh   SN2  1 3.650000e-01    1.750000e+00
 TP5dh   SN2  1 3.660000e-01    1.600000e+00
 TP6dh   SN2  1 3.660000e-01    1.600000e+00
  TP6r   SN2  1 3.660000e-01    1.600000e+00
  TP5r   SN2  1 3.660000e-01    1.600000e+00
  TP4r   SN2  1 3.650000e-01    1.750000e+00
  TP3r   SN2  1 3.650000e-01    1.910000e+00
  TP2r   SN2  1 3.650000e-01    1.910000e+00
  TP1r   SN2  1 3.650000e-01    1.910000e+00
  TN6r   SN2  1 3.650000e-01    1.910000e+00
  TN5r   SN2  1 3.650000e-01    2.110000e+00
  TN4r   SN2  1 3.650000e-01    2.110000e+00
  TN3r   SN2  1 3.650000e-01    2.110000e+00
 TN3ar   SN2  1 3.650000e-01    2.110000e+00
 TN4ar   SN2  1 3.650000e-01    2.110000e+00
 TN5ar   SN2  1 3.650000e-01    2.110000e+00
 TN6ar   SN2  1 3.650000e-01    1.910000e+00
 TP1ar   SN2  1 3.650000e-01    1.910000e+00
 TP2ar   SN2  1 3.650000e-01    1.910000e+00
 TP3ar   SN2  1 3.650000e-01    1.910000e+00
 TP4ar   SN2  1 3.650000e-01    1.750000e+00
 TP5ar   SN2  1 3.660000e-01    1.600000e+00
 TP6ar   SN2  1 3.660000e-01    1.600000e+00
 TN3dr   SN2  1 3.650000e-01    2.110000e+00
 TN4dr   SN2  1 3.650000e-01    2.110000e+00
 TN5dr   SN2  1 3.650000e-01    2.110000e+00
 TN6dr   SN2  1 3.650000e-01    1.910000e+00
 TP1dr   SN2  1 3.650000e-01    1.910000e+00
 TP2dr   SN2  1 3.650000e-01    1.910000e+00
 TP3dr   SN2  1 3.650000e-01    1.910000e+00
 TP4dr   SN2  1 3.650000e-01    1.750000e+00
 TP5dr   SN2  1 3.660000e-01    1.600000e+00
 TP6dr   SN2  1 3.660000e-01    1.600000e+00
   P6d   TN2  1 3.950000e-01    1.850000e+00
   P5d   TN2  1 3.950000e-01    1.850000e+00
   P4d   TN2  1 3.950000e-01    2.110000e+00
   P3d   TN2  1 3.950000e-01    2.310000e+00
   P2d   TN2  1 3.950000e-01    2.310000e+00
   P1d   TN2  1 3.950000e-01    2.310000e+00
   N6d   TN2  1 3.950000e-01    2.310000e+00
   N5d   TN2  1 3.950000e-01    2.500000e+00
   N4d   TN2  1 3.950000e-01    2.500000e+00
   N3d   TN2  1 3.950000e-01    2.500000e+00
   P6a   TN2  1 3.950000e-01    1.850000e+00
   P5a   TN2  1 3.950000e-01    1.850000e+00
   P4a   TN2  1 3.950000e-01    2.110000e+00
   P3a   TN2  1 3.950000e-01    2.310000e+00
   P2a   TN2  1 3.950000e-01    2.310000e+00
   P1a   TN2  1 3.950000e-01    2.310000e+00
   N6a   TN2  1 3.950000e-01    2.310000e+00
   N5a   TN2  1 3.950000e-01    2.500000e+00
   N4a   TN2  1 3.950000e-01    2.500000e+00
   N3a   TN2  1 3.950000e-01    2.500000e+00
   P6q   TN2  1 3.950000e-01    2.310000e+00
   P5q   TN2  1 3.950000e-01    2.310000e+00
   P4q   TN2  1 3.950000e-01    2.500000e+00
   P3q   TN2  1 3.950000e-01    2.700000e+00
   P2q   TN2  1 3.950000e-01    2.700000e+00
   P1q   TN2  1 3.950000e-01    2.700000e+00
   N6q   TN2  1 3.950000e-01    2.700000e+00
   N5q   TN2  1 3.950000e-01    2.940000e+00
   N4q   TN2  1 3.950000e-01    2.940000e+00
   N3q   TN2  1 3.950000e-01    2.940000e+00
  N3aq   TN2  1 3.950000e-01    2.940000e+00
  N4aq   TN2  1 3.950000e-01    2.940000e+00
  N5aq   TN2  1 3.950000e-01    2.940000e+00
  N6aq   TN2  1 3.950000e-01    2.700000e+00
  P1aq   TN2  1 3.950000e-01    2.700000e+00
  P2aq   TN2  1 3.950000e-01    2.700000e+00
  P3aq   TN2  1 3.950000e-01    2.700000e+00
  P4aq   TN2  1 3.950000e-01    2.500000e+00
  P5aq   TN2  1 3.950000e-01    2.310000e+00
  P6aq   TN2  1 3.950000e-01    2.310000e+00
  N3dq   TN2  1 3.950000e-01    2.940000e+00
  N4dq   TN2  1 3.950000e-01    2.940000e+00
  N5dq   TN2  1 3.950000e-01    2.940000e+00
  N6dq   TN2  1 3.950000e-01    2.700000e+00
  P1dq   TN2  1 3.950000e-01    2.700000e+00
  P2dq   TN2  1 3.950000e-01    2.700000e+00
  P3dq   TN2  1 3.950000e-01    2.700000e+00
  P4dq   TN2  1 3.950000e-01    2.500000e+00
  P5dq   TN2  1 3.950000e-01    2.310000e+00
  P6dq   TN2  1 3.950000e-01    2.310000e+00
   P6h   TN2  1 3.950000e-01    1.850000e+00
   P5h   TN2  1 3.950000e-01    1.850000e+00
   P4h   TN2  1 3.950000e-01    2.110000e+00
   P3h   TN2  1 3.950000e-01    2.310000e+00
   P2h   TN2  1 3.950000e-01    2.310000e+00
   P1h   TN2  1 3.950000e-01    2.310000e+00
   N6h   TN2  1 3.950000e-01    2.310000e+00
   N5h   TN2  1 3.950000e-01    2.500000e+00
   N4h   TN2  1 3.950000e-01    2.500000e+00
   N3h   TN2  1 3.950000e-01    2.500000e+00
  N3ah   TN2  1 3.950000e-01    2.500000e+00
  N4ah   TN2  1 3.950000e-01    2.500000e+00
  N5ah   TN2  1 3.950000e-01    2.500000e+00
  N6ah   TN2  1 3.950000e-01    2.310000e+00
  P1ah   TN2  1 3.950000e-01    2.310000e+00
  P2ah   TN2  1 3.950000e-01    2.310000e+00
  P3ah   TN2  1 3.950000e-01    2.310000e+00
  P4ah   TN2  1 3.950000e-01    2.110000e+00
  P5ah   TN2  1 3.950000e-01    1.850000e+00
  P6ah   TN2  1 3.950000e-01    1.850000e+00
  N3dh   TN2  1 3.950000e-01    2.500000e+00
  N4dh   TN2  1 3.950000e-01    2.500000e+00
  N5dh   TN2  1 3.950000e-01    2.500000e+00
  N6dh   TN2  1 3.950000e-01    2.310000e+00
  P1dh   TN2  1 3.950000e-01    2.310000e+00
  P2dh   TN2  1 3.950000e-01    2.310000e+00
  P3dh   TN2  1 3.950000e-01    2.310000e+00
  P4dh   TN2  1 3.950000e-01    2.110000e+00
  P5dh   TN2  1 3.950000e-01    1.850000e+00
  P6dh   TN2  1 3.950000e-01    1.850000e+00
   P6r   TN2  1 3.950000e-01    1.850000e+00
   P5r   TN2  1 3.950000e-01    1.850000e+00
   P4r   TN2  1 3.950000e-01    2.110000e+00
   P3r   TN2  1 3.950000e-01    2.310000e+00
   P2r   TN2  1 3.950000e-01    2.310000e+00
   P1r   TN2  1 3.950000e-01    2.310000e+00
   N6r   TN2  1 3.950000e-01    2.310000e+00
   N5r   TN2  1 3.950000e-01    2.500000e+00
   N4r   TN2  1 3.950000e-01    2.500000e+00
   N3r   TN2  1 3.950000e-01    2.500000e+00
  N3ar   TN2  1 3.950000e-01    2.500000e+00
  N4ar   TN2  1 3.950000e-01    2.500000e+00
  N5ar   TN2  1 3.950000e-01    2.500000e+00
  N6ar   TN2  1 3.950000e-01    2.310000e+00
  P1ar   TN2  1 3.950000e-01    2.310000e+00
  P2ar   TN2  1 3.950000e-01    2.310000e+00
  P3ar   TN2  1 3.950000e-01    2.310000e+00
  P4ar   TN2  1 3.950000e-01    2.110000e+00
  P5ar   TN2  1 3.950000e-01    1.850000e+00
  P6ar   TN2  1 3.950000e-01    1.850000e+00
  N3dr   TN2  1 3.950000e-01    2.500000e+00
  N4dr   TN2  1 3.950000e-01    2.500000e+00
  N5dr   TN2  1 3.950000e-01    2.500000e+00
  N6dr   TN2  1 3.950000e-01    2.310000e+00
  P1dr   TN2  1 3.950000e-01    2.310000e+00
  P2dr   TN2  1 3.950000e-01    2.310000e+00
  P3dr   TN2  1 3.950000e-01    2.310000e+00
  P4dr   TN2  1 3.950000e-01    2.110000e+00
  P5dr   TN2  1 3.950000e-01    1.850000e+00
  P6dr   TN2  1 3.950000e-01    1.850000e+00
   TN2    N1  1 3.950000e-01    2.310000e+00
   TN2    C6  1 3.950000e-01    2.310000e+00
   TN2    C5  1 3.950000e-01    2.110000e+00
   TN2    C4  1 3.950000e-01    2.110000e+00
   TN2    C3  1 3.950000e-01    2.110000e+00
   TN2    C2  1 3.950000e-01    1.850000e+00
   TN2    C1  1 3.950000e-01    1.670000e+00
   TN2    X4  1 3.950000e-01    2.500000e+00
   TN2    X3  1 3.950000e-01    2.310000e+00
   TN2    X2  1 3.950000e-01    2.110000e+00
   TN2    X1  1 3.950000e-01    2.110000e+00
   TN2   N2d  1 3.950000e-01    2.500000e+00
   TN2   N1d  1 3.950000e-01    2.310000e+00
   TN2   N2a  1 3.950000e-01    2.500000e+00
   TN2   N1a  1 3.950000e-01    2.310000e+00
   TN2   C6v  1 3.950000e-01    2.500000e+00
   TN2   C5v  1 3.950000e-01    2.310000e+00
   TN2   C4v  1 3.950000e-01    2.310000e+00
   TN2   C3v  1 3.950000e-01    2.310000e+00
   TN2   C2v  1 3.950000e-01    2.110000e+00
   TN2   C1v  1 3.950000e-01    1.850000e+00
   TN2   X4v  1 3.950000e-01    2.700000e+00
   TN2   X3v  1 3.950000e-01    2.500000e+00
   TN2   X2v  1 3.950000e-01    2.310000e+00
   TN2   X1v  1 3.950000e-01    2.310000e+00
   TN2   C6e  1 3.950000e-01    2.500000e+00
   TN2   C5e  1 3.950000e-01    2.310000e+00
   TN2   C4e  1 3.950000e-01    2.310000e+00
   TN2   C3e  1 3.950000e-01    2.310000e+00
   TN2   C2e  1 3.950000e-01    2.110000e+00
   TN2   C1e  1 3.950000e-01    1.850000e+00
   TN2   X4e  1 3.950000e-01    2.700000e+00
   TN2   X3e  1 3.950000e-01    2.500000e+00
   TN2   X2e  1 3.950000e-01    2.310000e+00
   TN2   X1e  1 3.950000e-01    2.310000e+00
   TN2   N2q  1 3.950000e-01    2.940000e+00
   TN2  X1eq  1 3.950000e-01    2.700000e+00
   TN2  X2eq  1 3.950000e-01    2.700000e+00
   TN2  X3eq  1 3.950000e-01    2.940000e+00
   TN2  X4eq  1 3.950000e-01    3.190000e+00
   TN2  C1eq  1 3.950000e-01    2.310000e+00
   TN2  C2eq  1 3.950000e-01    2.500000e+00
   TN2  C3eq  1 3.950000e-01    2.700000e+00
   TN2  C4eq  1 3.950000e-01    2.700000e+00
   TN2  C5eq  1 3.950000e-01    2.700000e+00
   TN2  C6eq  1 3.950000e-01    2.940000e+00
   TN2  X1vq  1 3.950000e-01    2.700000e+00
   TN2  X2vq  1 3.950000e-01    2.700000e+00
   TN2  X3vq  1 3.950000e-01    2.940000e+00
   TN2  X4vq  1 3.950000e-01    3.190000e+00
   TN2  C1vq  1 3.950000e-01    2.310000e+00
   TN2  C2vq  1 3.950000e-01    2.500000e+00
   TN2  C3vq  1 3.950000e-01    2.700000e+00
   TN2  C4vq  1 3.950000e-01    2.700000e+00
   TN2  C5vq  1 3.950000e-01    2.700000e+00
   TN2  C6vq  1 3.950000e-01    2.940000e+00
   TN2  N1aq  1 3.950000e-01    2.700000e+00
   TN2  N2aq  1 3.950000e-01    2.940000e+00
   TN2  N1dq  1 3.950000e-01    2.700000e+00
   TN2  N2dq  1 3.950000e-01    2.940000e+00
   TN2   X1q  1 3.950000e-01    2.500000e+00
   TN2   X2q  1 3.950000e-01    2.500000e+00
   TN2   X3q  1 3.950000e-01    2.700000e+00
   TN2   X4q  1 3.950000e-01    2.940000e+00
   TN2   C1q  1 3.950000e-01    2.110000e+00
   TN2   C2q  1 3.950000e-01    2.310000e+00
   TN2   C3q  1 3.950000e-01    2.500000e+00
   TN2   C4q  1 3.950000e-01    2.500000e+00
   TN2   C5q  1 3.950000e-01    2.500000e+00
   TN2   C6q  1 3.950000e-01    2.700000e+00
   TN2   N1q  1 3.950000e-01    2.700000e+00
   TN2   N2h  1 3.950000e-01    2.500000e+00
   TN2  X1eh  1 3.950000e-01    2.310000e+00
   TN2  X2eh  1 3.950000e-01    2.310000e+00
   TN2  X3eh  1 3.950000e-01    2.500000e+00
   TN2  X4eh  1 3.950000e-01    2.700000e+00
   TN2  C1eh  1 3.950000e-01    1.850000e+00
   TN2  C2eh  1 3.950000e-01    2.110000e+00
   TN2  C3eh  1 3.950000e-01    2.310000e+00
   TN2  C4eh  1 3.950000e-01    2.310000e+00
   TN2  C5eh  1 3.950000e-01    2.310000e+00
   TN2  C6eh  1 3.950000e-01    2.500000e+00
   TN2  X1vh  1 3.950000e-01    2.310000e+00
   TN2  X2vh  1 3.950000e-01    2.310000e+00
   TN2  X3vh  1 3.950000e-01    2.500000e+00
   TN2  X4vh  1 3.950000e-01    2.700000e+00
   TN2  C1vh  1 3.950000e-01    1.850000e+00
   TN2  C2vh  1 3.950000e-01    2.110000e+00
   TN2  C3vh  1 3.950000e-01    2.310000e+00
   TN2  C4vh  1 3.950000e-01    2.310000e+00
   TN2  C5vh  1 3.950000e-01    2.310000e+00
   TN2  C6vh  1 3.950000e-01    2.500000e+00
   TN2  N1ah  1 3.950000e-01    2.310000e+00
   TN2  N2ah  1 3.950000e-01    2.500000e+00
   TN2  N1dh  1 3.950000e-01    2.310000e+00
   TN2  N2dh  1 3.950000e-01    2.500000e+00
   TN2   X1h  1 3.950000e-01    2.110000e+00
   TN2   X2h  1 3.950000e-01    2.110000e+00
   TN2   X3h  1 3.950000e-01    2.310000e+00
   TN2   X4h  1 3.950000e-01    2.500000e+00
   TN2   C1h  1 3.950000e-01    1.670000e+00
   TN2   C2h  1 3.950000e-01    1.850000e+00
   TN2   C3h  1 3.950000e-01    2.110000e+00
   TN2   C4h  1 3.950000e-01    2.110000e+00
   TN2   C5h  1 3.950000e-01    2.110000e+00
   TN2   C6h  1 3.950000e-01    2.310000e+00
   TN2   N1h  1 3.950000e-01    2.310000e+00
   TN2   N2r  1 3.950000e-01    2.500000e+00
   TN2  X1er  1 3.950000e-01    2.310000e+00
   TN2  X2er  1 3.950000e-01    2.310000e+00
   TN2  X3er  1 3.950000e-01    2.500000e+00
   TN2  X4er  1 3.950000e-01    2.700000e+00
   TN2  C1er  1 3.950000e-01    1.850000e+00
   TN2  C2er  1 3.950000e-01    2.110000e+00
   TN2  C3er  1 3.950000e-01    2.310000e+00
   TN2  C4er  1 3.950000e-01    2.310000e+00
   TN2  C5er  1 3.950000e-01    2.310000e+00
   TN2  C6er  1 3.950000e-01    2.500000e+00
   TN2  X1vr  1 3.950000e-01    2.310000e+00
   TN2  X2vr  1 3.950000e-01    2.310000e+00
   TN2  X3vr  1 3.950000e-01    2.500000e+00
   TN2  X4vr  1 3.950000e-01    2.700000e+00
   TN2  C1vr  1 3.950000e-01    1.850000e+00
   TN2  C2vr  1 3.950000e-01    2.110000e+00
   TN2  C3vr  1 3.950000e-01    2.310000e+00
   TN2  C4vr  1 3.950000e-01    2.310000e+00
   TN2  C5vr  1 3.950000e-01    2.310000e+00
   TN2  C6vr  1 3.950000e-01    2.500000e+00
   TN2  N1ar  1 3.950000e-01    2.310000e+00
   TN2  N2ar  1 3.950000e-01    2.500000e+00
   TN2  N1dr  1 3.950000e-01    2.310000e+00
   TN2  N2dr  1 3.950000e-01    2.500000e+00
   TN2   X1r  1 3.950000e-01    2.110000e+00
   TN2   X2r  1 3.950000e-01    2.110000e+00
   TN2   X3r  1 3.950000e-01    2.310000e+00
   TN2   X4r  1 3.950000e-01    2.500000e+00
   TN2   C1r  1 3.950000e-01    1.670000e+00
   TN2   C2r  1 3.950000e-01    1.850000e+00
   TN2   C3r  1 3.950000e-01    2.110000e+00
   TN2   C4r  1 3.950000e-01    2.110000e+00
   TN2   C5r  1 3.950000e-01    2.110000e+00
   TN2   C6r  1 3.950000e-01    2.310000e+00
   TN2   N1r  1 3.950000e-01    2.310000e+00
   TN2   TN2  1 3.400000e-01    1.770000e+00
   TN2   TN1  1 3.400000e-01    1.510000e+00
   TN2   TC6  1 3.400000e-01    1.510000e+00
   TN2   TC5  1 3.400000e-01    1.230000e+00
   TN2   TC4  1 3.400000e-01    1.230000e+00
   TN2   TC3  1 3.400000e-01    1.230000e+00
   TN2   TC2  1 3.520000e-01    1.050000e+00
   TN2   TC1  1 3.660000e-01    9.350000e-01
   TN2   TX4  1 3.400000e-01    1.770000e+00
   TN2   TX3  1 3.400000e-01    1.510000e+00
   TN2   TX2  1 3.400000e-01    1.230000e+00
   TN2   TX1  1 3.400000e-01    1.230000e+00
  TP6d   TN2  1 3.520000e-01    1.050000e+00
  TP5d   TN2  1 3.520000e-01    1.050000e+00
  TP4d   TN2  1 3.400000e-01    1.230000e+00
  TP3d   TN2  1 3.400000e-01    1.510000e+00
  TP2d   TN2  1 3.400000e-01    1.510000e+00
  TP1d   TN2  1 3.400000e-01    1.510000e+00
  TN6d   TN2  1 3.400000e-01    1.510000e+00
  TN5d   TN2  1 3.400000e-01    1.770000e+00
  TN4d   TN2  1 3.400000e-01    1.770000e+00
  TN3d   TN2  1 3.400000e-01    1.770000e+00
   TN2  TN2d  1 3.400000e-01    1.770000e+00
   TN2  TN1d  1 3.400000e-01    1.510000e+00
  TP6a   TN2  1 3.520000e-01    1.050000e+00
  TP5a   TN2  1 3.520000e-01    1.050000e+00
  TP4a   TN2  1 3.400000e-01    1.230000e+00
  TP3a   TN2  1 3.400000e-01    1.510000e+00
  TP2a   TN2  1 3.400000e-01    1.510000e+00
  TP1a   TN2  1 3.400000e-01    1.510000e+00
  TN6a   TN2  1 3.400000e-01    1.510000e+00
  TN5a   TN2  1 3.400000e-01    1.770000e+00
  TN4a   TN2  1 3.400000e-01    1.770000e+00
  TN3a   TN2  1 3.400000e-01    1.770000e+00
   TN2  TN2a  1 3.400000e-01    1.770000e+00
   TN2  TN1a  1 3.400000e-01    1.510000e+00
   TN2  TC6v  1 3.400000e-01    1.770000e+00
   TN2  TC5v  1 3.400000e-01    1.510000e+00
   TN2  TC4v  1 3.400000e-01    1.510000e+00
   TN2  TC3v  1 3.400000e-01    1.510000e+00
   TN2  TC2v  1 3.400000e-01    1.230000e+00
   TN2  TC1v  1 3.520000e-01    1.050000e+00
   TN2  TX4v  1 3.400000e-01    2.020000e+00
   TN2  TX3v  1 3.400000e-01    1.770000e+00
   TN2  TX2v  1 3.400000e-01    1.510000e+00
   TN2  TX1v  1 3.400000e-01    1.510000e+00
   TN2  TC6e  1 3.400000e-01    1.770000e+00
   TN2  TC5e  1 3.400000e-01    1.510000e+00
   TN2  TC4e  1 3.400000e-01    1.510000e+00
   TN2  TC3e  1 3.400000e-01    1.510000e+00
   TN2  TC2e  1 3.400000e-01    1.230000e+00
   TN2  TC1e  1 3.520000e-01    1.050000e+00
   TN2  TX4e  1 3.400000e-01    2.020000e+00
   TN2  TX3e  1 3.400000e-01    1.770000e+00
   TN2  TX2e  1 3.400000e-01    1.510000e+00
   TN2  TX1e  1 3.400000e-01    1.510000e+00
  TP6q   TN2  1 3.400000e-01    1.510000e+00
  TP5q   TN2  1 3.400000e-01    1.510000e+00
  TP4q   TN2  1 3.400000e-01    1.770000e+00
  TP3q   TN2  1 3.400000e-01    2.020000e+00
  TP2q   TN2  1 3.400000e-01    2.020000e+00
  TP1q   TN2  1 3.400000e-01    2.020000e+00
  TN6q   TN2  1 3.400000e-01    2.020000e+00
  TN5q   TN2  1 3.400000e-01    2.280000e+00
  TN4q   TN2  1 3.400000e-01    2.280000e+00
  TN3q   TN2  1 3.400000e-01    2.280000e+00
   TN2  TN2q  1 3.400000e-01    2.280000e+00
   TN2 TX1eq  1 3.400000e-01    2.020000e+00
   TN2 TX2eq  1 3.400000e-01    2.020000e+00
   TN2 TX3eq  1 3.400000e-01    2.280000e+00
   TN2 TX4eq  1 3.400000e-01    2.500000e+00
   TN2 TC1eq  1 3.400000e-01    1.510000e+00
   TN2 TC2eq  1 3.400000e-01    1.770000e+00
   TN2 TC3eq  1 3.400000e-01    2.020000e+00
   TN2 TC4eq  1 3.400000e-01    2.020000e+00
   TN2 TC5eq  1 3.400000e-01    2.020000e+00
   TN2 TC6eq  1 3.400000e-01    2.280000e+00
   TN2 TX1vq  1 3.400000e-01    2.020000e+00
   TN2 TX2vq  1 3.400000e-01    2.020000e+00
   TN2 TX3vq  1 3.400000e-01    2.280000e+00
   TN2 TX4vq  1 3.400000e-01    2.500000e+00
   TN2 TC1vq  1 3.400000e-01    1.510000e+00
   TN2 TC2vq  1 3.400000e-01    1.770000e+00
   TN2 TC3vq  1 3.400000e-01    2.020000e+00
   TN2 TC4vq  1 3.400000e-01    2.020000e+00
   TN2 TC5vq  1 3.400000e-01    2.020000e+00
   TN2 TC6vq  1 3.400000e-01    2.280000e+00
   TN2 TN1aq  1 3.400000e-01    2.020000e+00
   TN2 TN2aq  1 3.400000e-01    2.280000e+00
 TN3aq   TN2  1 3.400000e-01    2.280000e+00
 TN4aq   TN2  1 3.400000e-01    2.280000e+00
 TN5aq   TN2  1 3.400000e-01    2.280000e+00
 TN6aq   TN2  1 3.400000e-01    2.020000e+00
 TP1aq   TN2  1 3.400000e-01    2.020000e+00
 TP2aq   TN2  1 3.400000e-01    2.020000e+00
 TP3aq   TN2  1 3.400000e-01    2.020000e+00
 TP4aq   TN2  1 3.400000e-01    1.770000e+00
 TP5aq   TN2  1 3.400000e-01    1.510000e+00
 TP6aq   TN2  1 3.400000e-01    1.510000e+00
   TN2 TN1dq  1 3.400000e-01    2.020000e+00
   TN2 TN2dq  1 3.400000e-01    2.280000e+00
 TN3dq   TN2  1 3.400000e-01    2.280000e+00
 TN4dq   TN2  1 3.400000e-01    2.280000e+00
 TN5dq   TN2  1 3.400000e-01    2.280000e+00
 TN6dq   TN2  1 3.400000e-01    2.020000e+00
 TP1dq   TN2  1 3.400000e-01    2.020000e+00
 TP2dq   TN2  1 3.400000e-01    2.020000e+00
 TP3dq   TN2  1 3.400000e-01    2.020000e+00
 TP4dq   TN2  1 3.400000e-01    1.770000e+00
 TP5dq   TN2  1 3.400000e-01    1.510000e+00
 TP6dq   TN2  1 3.400000e-01    1.510000e+00
   TN2  TX1q  1 3.400000e-01    1.770000e+00
   TN2  TX2q  1 3.400000e-01    1.770000e+00
   TN2  TX3q  1 3.400000e-01    2.020000e+00
   TN2  TX4q  1 3.400000e-01    2.280000e+00
   TN2  TC1q  1 3.400000e-01    1.230000e+00
   TN2  TC2q  1 3.400000e-01    1.510000e+00
   TN2  TC3q  1 3.400000e-01    1.770000e+00
   TN2  TC4q  1 3.400000e-01    1.770000e+00
   TN2  TC5q  1 3.400000e-01    1.770000e+00
   TN2  TC6q  1 3.400000e-01    2.020000e+00
   TN2  TN1q  1 3.400000e-01    2.020000e+00
  TP6h   TN2  1 3.520000e-01    1.050000e+00
  TP5h   TN2  1 3.520000e-01    1.050000e+00
  TP4h   TN2  1 3.400000e-01    1.230000e+00
  TP3h   TN2  1 3.400000e-01    1.510000e+00
  TP2h   TN2  1 3.400000e-01    1.510000e+00
  TP1h   TN2  1 3.400000e-01    1.510000e+00
  TN6h   TN2  1 3.400000e-01    1.510000e+00
  TN5h   TN2  1 3.400000e-01    1.770000e+00
  TN4h   TN2  1 3.400000e-01    1.770000e+00
  TN3h   TN2  1 3.400000e-01    1.770000e+00
   TN2  TN2h  1 3.400000e-01    1.770000e+00
   TN2 TX1eh  1 3.400000e-01    1.510000e+00
   TN2 TX2eh  1 3.400000e-01    1.510000e+00
   TN2 TX3eh  1 3.400000e-01    1.770000e+00
   TN2 TX4eh  1 3.400000e-01    2.020000e+00
   TN2 TC1eh  1 3.520000e-01    1.050000e+00
   TN2 TC2eh  1 3.400000e-01    1.230000e+00
   TN2 TC3eh  1 3.400000e-01    1.510000e+00
   TN2 TC4eh  1 3.400000e-01    1.510000e+00
   TN2 TC5eh  1 3.400000e-01    1.510000e+00
   TN2 TC6eh  1 3.400000e-01    1.770000e+00
   TN2 TX1vh  1 3.400000e-01    1.510000e+00
   TN2 TX2vh  1 3.400000e-01    1.510000e+00
   TN2 TX3vh  1 3.400000e-01    1.770000e+00
   TN2 TX4vh  1 3.400000e-01    2.020000e+00
   TN2 TC1vh  1 3.520000e-01    1.050000e+00
   TN2 TC2vh  1 3.400000e-01    1.230000e+00
   TN2 TC3vh  1 3.400000e-01    1.510000e+00
   TN2 TC4vh  1 3.400000e-01    1.510000e+00
   TN2 TC5vh  1 3.400000e-01    1.510000e+00
   TN2 TC6vh  1 3.400000e-01    1.770000e+00
   TN2 TN1ah  1 3.400000e-01    1.510000e+00
   TN2 TN2ah  1 3.400000e-01    1.770000e+00
 TN3ah   TN2  1 3.400000e-01    1.770000e+00
 TN4ah   TN2  1 3.400000e-01    1.770000e+00
 TN5ah   TN2  1 3.400000e-01    1.770000e+00
 TN6ah   TN2  1 3.400000e-01    1.510000e+00
 TP1ah   TN2  1 3.400000e-01    1.510000e+00
 TP2ah   TN2  1 3.400000e-01    1.510000e+00
 TP3ah   TN2  1 3.400000e-01    1.510000e+00
 TP4ah   TN2  1 3.400000e-01    1.230000e+00
 TP5ah   TN2  1 3.520000e-01    1.050000e+00
 TP6ah   TN2  1 3.520000e-01    1.050000e+00
   TN2 TN1dh  1 3.400000e-01    1.510000e+00
   TN2 TN2dh  1 3.400000e-01    1.770000e+00
 TN3dh   TN2  1 3.400000e-01    1.770000e+00
 TN4dh   TN2  1 3.400000e-01    1.770000e+00
 TN5dh   TN2  1 3.400000e-01    1.770000e+00
 TN6dh   TN2  1 3.400000e-01    1.510000e+00
 TP1dh   TN2  1 3.400000e-01    1.510000e+00
 TP2dh   TN2  1 3.400000e-01    1.510000e+00
 TP3dh   TN2  1 3.400000e-01    1.510000e+00
 TP4dh   TN2  1 3.400000e-01    1.230000e+00
 TP5dh   TN2  1 3.520000e-01    1.050000e+00
 TP6dh   TN2  1 3.520000e-01    1.050000e+00
   TN2  TX1h  1 3.400000e-01    1.230000e+00
   TN2  TX2h  1 3.400000e-01    1.230000e+00
   TN2  TX3h  1 3.400000e-01    1.510000e+00
   TN2  TX4h  1 3.400000e-01    1.770000e+00
   TN2  TC1h  1 3.660000e-01    9.350000e-01
   TN2  TC2h  1 3.520000e-01    1.050000e+00
   TN2  TC3h  1 3.400000e-01    1.230000e+00
   TN2  TC4h  1 3.400000e-01    1.230000e+00
   TN2  TC5h  1 3.400000e-01    1.230000e+00
   TN2  TC6h  1 3.400000e-01    1.510000e+00
   TN2  TN1h  1 3.400000e-01    1.510000e+00
  TP6r   TN2  1 3.520000e-01    1.050000e+00
  TP5r   TN2  1 3.520000e-01    1.050000e+00
  TP4r   TN2  1 3.400000e-01    1.230000e+00
  TP3r   TN2  1 3.400000e-01    1.510000e+00
  TP2r   TN2  1 3.400000e-01    1.510000e+00
  TP1r   TN2  1 3.400000e-01    1.510000e+00
  TN6r   TN2  1 3.400000e-01    1.510000e+00
  TN5r   TN2  1 3.400000e-01    1.770000e+00
  TN4r   TN2  1 3.400000e-01    1.770000e+00
  TN3r   TN2  1 3.400000e-01    1.770000e+00
   TN2  TN2r  1 3.400000e-01    1.770000e+00
   TN2 TX1er  1 3.400000e-01    1.510000e+00
   TN2 TX2er  1 3.400000e-01    1.510000e+00
   TN2 TX3er  1 3.400000e-01    1.770000e+00
   TN2 TX4er  1 3.400000e-01    2.020000e+00
   TN2 TC1er  1 3.520000e-01    1.050000e+00
   TN2 TC2er  1 3.400000e-01    1.230000e+00
   TN2 TC3er  1 3.400000e-01    1.510000e+00
   TN2 TC4er  1 3.400000e-01    1.510000e+00
   TN2 TC5er  1 3.400000e-01    1.510000e+00
   TN2 TC6er  1 3.400000e-01    1.770000e+00
   TN2 TX1vr  1 3.400000e-01    1.510000e+00
   TN2 TX2vr  1 3.400000e-01    1.510000e+00
   TN2 TX3vr  1 3.400000e-01    1.770000e+00
   TN2 TX4vr  1 3.400000e-01    2.020000e+00
   TN2 TC1vr  1 3.520000e-01    1.050000e+00
   TN2 TC2vr  1 3.400000e-01    1.230000e+00
   TN2 TC3vr  1 3.400000e-01    1.510000e+00
   TN2 TC4vr  1 3.400000e-01    1.510000e+00
   TN2 TC5vr  1 3.400000e-01    1.510000e+00
   TN2 TC6vr  1 3.400000e-01    1.770000e+00
   TN2 TN1ar  1 3.400000e-01    1.510000e+00
   TN2 TN2ar  1 3.400000e-01    1.770000e+00
 TN3ar   TN2  1 3.400000e-01    1.770000e+00
 TN4ar   TN2  1 3.400000e-01    1.770000e+00
 TN5ar   TN2  1 3.400000e-01    1.770000e+00
 TN6ar   TN2  1 3.400000e-01    1.510000e+00
 TP1ar   TN2  1 3.400000e-01    1.510000e+00
 TP2ar   TN2  1 3.400000e-01    1.510000e+00
 TP3ar   TN2  1 3.400000e-01    1.510000e+00
 TP4ar   TN2  1 3.400000e-01    1.230000e+00
 TP5ar   TN2  1 3.520000e-01    1.050000e+00
 TP6ar   TN2  1 3.520000e-01    1.050000e+00
   TN2 TN1dr  1 3.400000e-01    1.510000e+00
   TN2 TN2dr  1 3.400000e-01    1.770000e+00
 TN3dr   TN2  1 3.400000e-01    1.770000e+00
 TN4dr   TN2  1 3.400000e-01    1.770000e+00
 TN5dr   TN2  1 3.400000e-01    1.770000e+00
 TN6dr   TN2  1 3.400000e-01    1.510000e+00
 TP1dr   TN2  1 3.400000e-01    1.510000e+00
 TP2dr   TN2  1 3.400000e-01    1.510000e+00
 TP3dr   TN2  1 3.400000e-01    1.510000e+00
 TP4dr   TN2  1 3.400000e-01    1.230000e+00
 TP5dr   TN2  1 3.520000e-01    1.050000e+00
 TP6dr   TN2  1 3.520000e-01    1.050000e+00
   TN2  TX1r  1 3.400000e-01    1.230000e+00
   TN2  TX2r  1 3.400000e-01    1.230000e+00
   TN2  TX3r  1 3.400000e-01    1.510000e+00
   TN2  TX4r  1 3.400000e-01    1.770000e+00
   TN2  TC1r  1 3.660000e-01    9.350000e-01
   TN2  TC2r  1 3.520000e-01    1.050000e+00
   TN2  TC3r  1 3.400000e-01    1.230000e+00
   TN2  TC4r  1 3.400000e-01    1.230000e+00
   TN2  TC5r  1 3.400000e-01    1.230000e+00
   TN2  TC6r  1 3.400000e-01    1.510000e+00
   TN2  TN1r  1 3.400000e-01    1.510000e+00
  SP6d   TN2  1 3.660000e-01    1.600000e+00
  SP5d   TN2  1 3.660000e-01    1.600000e+00
  SP4d   TN2  1 3.650000e-01    1.750000e+00
  SP3d   TN2  1 3.650000e-01    1.910000e+00
  SP2d   TN2  1 3.650000e-01    1.910000e+00
  SP1d   TN2  1 3.650000e-01    1.910000e+00
  SN6d   TN2  1 3.650000e-01    1.910000e+00
  SN5d   TN2  1 3.650000e-01    2.110000e+00
  SN4d   TN2  1 3.650000e-01    2.110000e+00
  SN3d   TN2  1 3.650000e-01    2.110000e+00
  SP6a   TN2  1 3.660000e-01    1.600000e+00
  SP5a   TN2  1 3.660000e-01    1.600000e+00
  SP4a   TN2  1 3.650000e-01    1.750000e+00
  SP3a   TN2  1 3.650000e-01    1.910000e+00
  SP2a   TN2  1 3.650000e-01    1.910000e+00
  SP1a   TN2  1 3.650000e-01    1.910000e+00
  SN6a   TN2  1 3.650000e-01    1.910000e+00
  SN5a   TN2  1 3.650000e-01    2.110000e+00
  SN4a   TN2  1 3.650000e-01    2.110000e+00
  SN3a   TN2  1 3.650000e-01    2.110000e+00
  SP6q   TN2  1 3.650000e-01    1.910000e+00
  SP5q   TN2  1 3.650000e-01    1.910000e+00
  SP4q   TN2  1 3.650000e-01    2.110000e+00
  SP3q   TN2  1 3.650000e-01    2.340000e+00
  SP2q   TN2  1 3.650000e-01    2.340000e+00
  SP1q   TN2  1 3.650000e-01    2.340000e+00
  SN6q   TN2  1 3.650000e-01    2.340000e+00
  SN5q   TN2  1 3.650000e-01    2.570000e+00
  SN4q   TN2  1 3.650000e-01    2.570000e+00
  SN3q   TN2  1 3.650000e-01    2.570000e+00
 SN3aq   TN2  1 3.650000e-01    2.570000e+00
 SN4aq   TN2  1 3.650000e-01    2.570000e+00
 SN5aq   TN2  1 3.650000e-01    2.570000e+00
 SN6aq   TN2  1 3.650000e-01    2.340000e+00
 SP1aq   TN2  1 3.650000e-01    2.340000e+00
 SP2aq   TN2  1 3.650000e-01    2.340000e+00
 SP3aq   TN2  1 3.650000e-01    2.340000e+00
 SP4aq   TN2  1 3.650000e-01    2.110000e+00
 SP5aq   TN2  1 3.650000e-01    1.910000e+00
 SP6aq   TN2  1 3.650000e-01    1.910000e+00
 SN3dq   TN2  1 3.650000e-01    2.570000e+00
 SN4dq   TN2  1 3.650000e-01    2.570000e+00
 SN5dq   TN2  1 3.650000e-01    2.570000e+00
 SN6dq   TN2  1 3.650000e-01    2.340000e+00
 SP1dq   TN2  1 3.650000e-01    2.340000e+00
 SP2dq   TN2  1 3.650000e-01    2.340000e+00
 SP3dq   TN2  1 3.650000e-01    2.340000e+00
 SP4dq   TN2  1 3.650000e-01    2.110000e+00
 SP5dq   TN2  1 3.650000e-01    1.910000e+00
 SP6dq   TN2  1 3.650000e-01    1.910000e+00
  SP6h   TN2  1 3.660000e-01    1.600000e+00
  SP5h   TN2  1 3.660000e-01    1.600000e+00
  SP4h   TN2  1 3.650000e-01    1.750000e+00
  SP3h   TN2  1 3.650000e-01    1.910000e+00
  SP2h   TN2  1 3.650000e-01    1.910000e+00
  SP1h   TN2  1 3.650000e-01    1.910000e+00
  SN6h   TN2  1 3.650000e-01    1.910000e+00
  SN5h   TN2  1 3.650000e-01    2.110000e+00
  SN4h   TN2  1 3.650000e-01    2.110000e+00
  SN3h   TN2  1 3.650000e-01    2.110000e+00
 SN3ah   TN2  1 3.650000e-01    2.110000e+00
 SN4ah   TN2  1 3.650000e-01    2.110000e+00
 SN5ah   TN2  1 3.650000e-01    2.110000e+00
 SN6ah   TN2  1 3.650000e-01    1.910000e+00
 SP1ah   TN2  1 3.650000e-01    1.910000e+00
 SP2ah   TN2  1 3.650000e-01    1.910000e+00
 SP3ah   TN2  1 3.650000e-01    1.910000e+00
 SP4ah   TN2  1 3.650000e-01    1.750000e+00
 SP5ah   TN2  1 3.660000e-01    1.600000e+00
 SP6ah   TN2  1 3.660000e-01    1.600000e+00
 SN3dh   TN2  1 3.650000e-01    2.110000e+00
 SN4dh   TN2  1 3.650000e-01    2.110000e+00
 SN5dh   TN2  1 3.650000e-01    2.110000e+00
 SN6dh   TN2  1 3.650000e-01    1.910000e+00
 SP1dh   TN2  1 3.650000e-01    1.910000e+00
 SP2dh   TN2  1 3.650000e-01    1.910000e+00
 SP3dh   TN2  1 3.650000e-01    1.910000e+00
 SP4dh   TN2  1 3.650000e-01    1.750000e+00
 SP5dh   TN2  1 3.660000e-01    1.600000e+00
 SP6dh   TN2  1 3.660000e-01    1.600000e+00
  SP6r   TN2  1 3.660000e-01    1.600000e+00
  SP5r   TN2  1 3.660000e-01    1.600000e+00
  SP4r   TN2  1 3.650000e-01    1.750000e+00
  SP3r   TN2  1 3.650000e-01    1.910000e+00
  SP2r   TN2  1 3.650000e-01    1.910000e+00
  SP1r   TN2  1 3.650000e-01    1.910000e+00
  SN6r   TN2  1 3.650000e-01    1.910000e+00
  SN5r   TN2  1 3.650000e-01    2.110000e+00
  SN4r   TN2  1 3.650000e-01    2.110000e+00
  SN3r   TN2  1 3.650000e-01    2.110000e+00
 SN3ar   TN2  1 3.650000e-01    2.110000e+00
 SN4ar   TN2  1 3.650000e-01    2.110000e+00
 SN5ar   TN2  1 3.650000e-01    2.110000e+00
 SN6ar   TN2  1 3.650000e-01    1.910000e+00
 SP1ar   TN2  1 3.650000e-01    1.910000e+00
 SP2ar   TN2  1 3.650000e-01    1.910000e+00
 SP3ar   TN2  1 3.650000e-01    1.910000e+00
 SP4ar   TN2  1 3.650000e-01    1.750000e+00
 SP5ar   TN2  1 3.660000e-01    1.600000e+00
 SP6ar   TN2  1 3.660000e-01    1.600000e+00
 SN3dr   TN2  1 3.650000e-01    2.110000e+00
 SN4dr   TN2  1 3.650000e-01    2.110000e+00
 SN5dr   TN2  1 3.650000e-01    2.110000e+00
 SN6dr   TN2  1 3.650000e-01    1.910000e+00
 SP1dr   TN2  1 3.650000e-01    1.910000e+00
 SP2dr   TN2  1 3.650000e-01    1.910000e+00
 SP3dr   TN2  1 3.650000e-01    1.910000e+00
 SP4dr   TN2  1 3.650000e-01    1.750000e+00
 SP5dr   TN2  1 3.660000e-01    1.600000e+00
 SP6dr   TN2  1 3.660000e-01    1.600000e+00
   TN2   SN1  1 3.650000e-01    1.910000e+00
   TN2   SC6  1 3.650000e-01    1.910000e+00
   TN2   SC5  1 3.650000e-01    1.750000e+00
   TN2   SC4  1 3.650000e-01    1.750000e+00
   TN2   SC3  1 3.650000e-01    1.750000e+00
   TN2   SC2  1 3.660000e-01    1.600000e+00
   TN2   SC1  1 3.780000e-01    1.450000e+00
   TN2   SX4  1 3.650000e-01    2.110000e+00
   TN2   SX3  1 3.650000e-01    1.910000e+00
   TN2   SX2  1 3.650000e-01    1.750000e+00
   TN2   SX1  1 3.650000e-01    1.750000e+00
   TN2  SN2d  1 3.650000e-01    2.110000e+00
   TN2  SN1d  1 3.650000e-01    1.910000e+00
   TN2  SN2a  1 3.650000e-01    2.110000e+00
   TN2  SN1a  1 3.650000e-01    1.910000e+00
   TN2  SC6v  1 3.650000e-01    2.110000e+00
   TN2  SC5v  1 3.650000e-01    1.910000e+00
   TN2  SC4v  1 3.650000e-01    1.910000e+00
   TN2  SC3v  1 3.650000e-01    1.910000e+00
   TN2  SC2v  1 3.650000e-01    1.750000e+00
   TN2  SC1v  1 3.660000e-01    1.600000e+00
   TN2  SX4v  1 3.650000e-01    2.340000e+00
   TN2  SX3v  1 3.650000e-01    2.110000e+00
   TN2  SX2v  1 3.650000e-01    1.910000e+00
   TN2  SX1v  1 3.650000e-01    1.910000e+00
   TN2  SC6e  1 3.650000e-01    2.110000e+00
   TN2  SC5e  1 3.650000e-01    1.910000e+00
   TN2  SC4e  1 3.650000e-01    1.910000e+00
   TN2  SC3e  1 3.650000e-01    1.910000e+00
   TN2  SC2e  1 3.650000e-01    1.750000e+00
   TN2  SC1e  1 3.660000e-01    1.600000e+00
   TN2  SX4e  1 3.650000e-01    2.340000e+00
   TN2  SX3e  1 3.650000e-01    2.110000e+00
   TN2  SX2e  1 3.650000e-01    1.910000e+00
   TN2  SX1e  1 3.650000e-01    1.910000e+00
   TN2  SN2q  1 3.650000e-01    2.570000e+00
   TN2 SX1eq  1 3.650000e-01    2.340000e+00
   TN2 SX2eq  1 3.650000e-01    2.340000e+00
   TN2 SX3eq  1 3.650000e-01    2.570000e+00
   TN2 SX4eq  1 3.650000e-01    2.830000e+00
   TN2 SC1eq  1 3.650000e-01    1.910000e+00
   TN2 SC2eq  1 3.650000e-01    2.110000e+00
   TN2 SC3eq  1 3.650000e-01    2.340000e+00
   TN2 SC4eq  1 3.650000e-01    2.340000e+00
   TN2 SC5eq  1 3.650000e-01    2.340000e+00
   TN2 SC6eq  1 3.650000e-01    2.570000e+00
   TN2 SX1vq  1 3.650000e-01    2.340000e+00
   TN2 SX2vq  1 3.650000e-01    2.340000e+00
   TN2 SX3vq  1 3.650000e-01    2.570000e+00
   TN2 SX4vq  1 3.650000e-01    2.830000e+00
   TN2 SC1vq  1 3.650000e-01    1.910000e+00
   TN2 SC2vq  1 3.650000e-01    2.110000e+00
   TN2 SC3vq  1 3.650000e-01    2.340000e+00
   TN2 SC4vq  1 3.650000e-01    2.340000e+00
   TN2 SC5vq  1 3.650000e-01    2.340000e+00
   TN2 SC6vq  1 3.650000e-01    2.570000e+00
   TN2 SN1aq  1 3.650000e-01    2.340000e+00
   TN2 SN2aq  1 3.650000e-01    2.570000e+00
   TN2 SN1dq  1 3.650000e-01    2.340000e+00
   TN2 SN2dq  1 3.650000e-01    2.570000e+00
   TN2  SX1q  1 3.650000e-01    2.110000e+00
   TN2  SX2q  1 3.650000e-01    2.110000e+00
   TN2  SX3q  1 3.650000e-01    2.340000e+00
   TN2  SX4q  1 3.650000e-01    2.570000e+00
   TN2  SC1q  1 3.650000e-01    1.750000e+00
   TN2  SC2q  1 3.650000e-01    1.910000e+00
   TN2  SC3q  1 3.650000e-01    2.110000e+00
   TN2  SC4q  1 3.650000e-01    2.110000e+00
   TN2  SC5q  1 3.650000e-01    2.110000e+00
   TN2  SC6q  1 3.650000e-01    2.340000e+00
   TN2  SN1q  1 3.650000e-01    2.340000e+00
   TN2  SN2h  1 3.650000e-01    2.110000e+00
   TN2 SX1eh  1 3.650000e-01    1.910000e+00
   TN2 SX2eh  1 3.650000e-01    1.910000e+00
   TN2 SX3eh  1 3.650000e-01    2.110000e+00
   TN2 SX4eh  1 3.650000e-01    2.340000e+00
   TN2 SC1eh  1 3.660000e-01    1.600000e+00
   TN2 SC2eh  1 3.650000e-01    1.750000e+00
   TN2 SC3eh  1 3.650000e-01    1.910000e+00
   TN2 SC4eh  1 3.650000e-01    1.910000e+00
   TN2 SC5eh  1 3.650000e-01    1.910000e+00
   TN2 SC6eh  1 3.650000e-01    2.110000e+00
   TN2 SX1vh  1 3.650000e-01    1.910000e+00
   TN2 SX2vh  1 3.650000e-01    1.910000e+00
   TN2 SX3vh  1 3.650000e-01    2.110000e+00
   TN2 SX4vh  1 3.650000e-01    2.340000e+00
   TN2 SC1vh  1 3.660000e-01    1.600000e+00
   TN2 SC2vh  1 3.650000e-01    1.750000e+00
   TN2 SC3vh  1 3.650000e-01    1.910000e+00
   TN2 SC4vh  1 3.650000e-01    1.910000e+00
   TN2 SC5vh  1 3.650000e-01    1.910000e+00
   TN2 SC6vh  1 3.650000e-01    2.110000e+00
   TN2 SN1ah  1 3.650000e-01    1.910000e+00
   TN2 SN2ah  1 3.650000e-01    2.110000e+00
   TN2 SN1dh  1 3.650000e-01    1.910000e+00
   TN2 SN2dh  1 3.650000e-01    2.110000e+00
   TN2  SX1h  1 3.650000e-01    1.750000e+00
   TN2  SX2h  1 3.650000e-01    1.750000e+00
   TN2  SX3h  1 3.650000e-01    1.910000e+00
   TN2  SX4h  1 3.650000e-01    2.110000e+00
   TN2  SC1h  1 3.780000e-01    1.450000e+00
   TN2  SC2h  1 3.660000e-01    1.600000e+00
   TN2  SC3h  1 3.650000e-01    1.750000e+00
   TN2  SC4h  1 3.650000e-01    1.750000e+00
   TN2  SC5h  1 3.650000e-01    1.750000e+00
   TN2  SC6h  1 3.650000e-01    1.910000e+00
   TN2  SN1h  1 3.650000e-01    1.910000e+00
   TN2  SN2r  1 3.650000e-01    2.110000e+00
   TN2 SX1er  1 3.650000e-01    1.910000e+00
   TN2 SX2er  1 3.650000e-01    1.910000e+00
   TN2 SX3er  1 3.650000e-01    2.110000e+00
   TN2 SX4er  1 3.650000e-01    2.340000e+00
   TN2 SC1er  1 3.660000e-01    1.600000e+00
   TN2 SC2er  1 3.650000e-01    1.750000e+00
   TN2 SC3er  1 3.650000e-01    1.910000e+00
   TN2 SC4er  1 3.650000e-01    1.910000e+00
   TN2 SC5er  1 3.650000e-01    1.910000e+00
   TN2 SC6er  1 3.650000e-01    2.110000e+00
   TN2 SX1vr  1 3.650000e-01    1.910000e+00
   TN2 SX2vr  1 3.650000e-01    1.910000e+00
   TN2 SX3vr  1 3.650000e-01    2.110000e+00
   TN2 SX4vr  1 3.650000e-01    2.340000e+00
   TN2 SC1vr  1 3.660000e-01    1.600000e+00
   TN2 SC2vr  1 3.650000e-01    1.750000e+00
   TN2 SC3vr  1 3.650000e-01    1.910000e+00
   TN2 SC4vr  1 3.650000e-01    1.910000e+00
   TN2 SC5vr  1 3.650000e-01    1.910000e+00
   TN2 SC6vr  1 3.650000e-01    2.110000e+00
   TN2 SN1ar  1 3.650000e-01    1.910000e+00
   TN2 SN2ar  1 3.650000e-01    2.110000e+00
   TN2 SN1dr  1 3.650000e-01    1.910000e+00
   TN2 SN2dr  1 3.650000e-01    2.110000e+00
   TN2  SX1r  1 3.650000e-01    1.750000e+00
   TN2  SX2r  1 3.650000e-01    1.750000e+00
   TN2  SX3r  1 3.650000e-01    1.910000e+00
   TN2  SX4r  1 3.650000e-01    2.110000e+00
   TN2  SC1r  1 3.780000e-01    1.450000e+00
   TN2  SC2r  1 3.660000e-01    1.600000e+00
   TN2  SC3r  1 3.650000e-01    1.750000e+00
   TN2  SC4r  1 3.650000e-01    1.750000e+00
   TN2  SC5r  1 3.650000e-01    1.750000e+00
   TN2  SC6r  1 3.650000e-01    1.910000e+00
   TN2  SN1r  1 3.650000e-01    1.910000e+00
    N1    N1  1 4.700000e-01    3.520000e+00
    N1    C6  1 4.700000e-01    3.520000e+00
    N1    C5  1 4.700000e-01    3.390000e+00
    N1    C4  1 4.700000e-01    3.390000e+00
    N1    C3  1 4.700000e-01    3.240000e+00
    N1    C2  1 4.700000e-01    3.070000e+00
    N1    C1  1 4.700000e-01    2.960000e+00
    N1    X4  1 4.700000e-01    3.390000e+00
    N1    X3  1 4.700000e-01    3.390000e+00
    N1    X2  1 4.700000e-01    3.240000e+00
    N1    X1  1 4.700000e-01    3.240000e+00
   P6d    N1  1 4.700000e-01    2.960000e+00
   P5d    N1  1 4.700000e-01    2.960000e+00
   P4d    N1  1 4.700000e-01    3.070000e+00
   P3d    N1  1 4.700000e-01    3.240000e+00
   P2d    N1  1 4.700000e-01    3.390000e+00
   P1d    N1  1 4.700000e-01    3.390000e+00
   N6d    N1  1 4.700000e-01    3.390000e+00
   N5d    N1  1 4.700000e-01    3.390000e+00
   N4d    N1  1 4.700000e-01    3.390000e+00
   N3d    N1  1 4.700000e-01    3.390000e+00
   N2d    N1  1 4.700000e-01    3.390000e+00
    N1   N1d  1 4.700000e-01    3.520000e+00
   P6a    N1  1 4.700000e-01    2.960000e+00
   P5a    N1  1 4.700000e-01    2.960000e+00
   P4a    N1  1 4.700000e-01    3.070000e+00
   P3a    N1  1 4.700000e-01    3.240000e+00
   P2a    N1  1 4.700000e-01    3.390000e+00
   P1a    N1  1 4.700000e-01    3.390000e+00
   N6a    N1  1 4.700000e-01    3.390000e+00
   N5a    N1  1 4.700000e-01    3.390000e+00
   N4a    N1  1 4.700000e-01    3.390000e+00
   N3a    N1  1 4.700000e-01    3.390000e+00
   N2a    N1  1 4.700000e-01    3.390000e+00
    N1   N1a  1 4.700000e-01    3.520000e+00
    N1   C6v  1 4.700000e-01    3.690000e+00
    N1   C5v  1 4.700000e-01    3.520000e+00
    N1   C4v  1 4.700000e-01    3.520000e+00
    N1   C3v  1 4.700000e-01    3.390000e+00
    N1   C2v  1 4.700000e-01    3.240000e+00
    N1   C1v  1 4.700000e-01    3.070000e+00
    N1   X4v  1 4.700000e-01    3.520000e+00
    N1   X3v  1 4.700000e-01    3.520000e+00
    N1   X2v  1 4.700000e-01    3.390000e+00
    N1   X1v  1 4.700000e-01    3.390000e+00
    N1   C6e  1 4.700000e-01    3.690000e+00
    N1   C5e  1 4.700000e-01    3.520000e+00
    N1   C4e  1 4.700000e-01    3.520000e+00
    N1   C3e  1 4.700000e-01    3.390000e+00
    N1   C2e  1 4.700000e-01    3.240000e+00
    N1   C1e  1 4.700000e-01    3.070000e+00
    N1   X4e  1 4.700000e-01    3.520000e+00
    N1   X3e  1 4.700000e-01    3.520000e+00
    N1   X2e  1 4.700000e-01    3.390000e+00
    N1   X1e  1 4.700000e-01    3.390000e+00
   P6q    N1  1 4.700000e-01    3.240000e+00
   P5q    N1  1 4.700000e-01    3.240000e+00
   P4q    N1  1 4.700000e-01    3.390000e+00
   P3q    N1  1 4.700000e-01    3.520000e+00
   P2q    N1  1 4.700000e-01    3.690000e+00
   P1q    N1  1 4.700000e-01    3.690000e+00
   N6q    N1  1 4.700000e-01    3.690000e+00
   N5q    N1  1 4.700000e-01    3.690000e+00
   N4q    N1  1 4.700000e-01    3.690000e+00
   N3q    N1  1 4.700000e-01    3.690000e+00
   N2q    N1  1 4.700000e-01    3.690000e+00
    N1   N1q  1 4.700000e-01    3.880000e+00
    N1  X1eq  1 4.700000e-01    3.690000e+00
    N1  X2eq  1 4.700000e-01    3.690000e+00
    N1  X3eq  1 4.700000e-01    3.880000e+00
    N1  X4eq  1 4.700000e-01    3.880000e+00
    N1  C1eq  1 4.700000e-01    3.390000e+00
    N1  C2eq  1 4.700000e-01    3.520000e+00
    N1  C3eq  1 4.700000e-01    3.690000e+00
    N1  C4eq  1 4.700000e-01    3.880000e+00
    N1  C5eq  1 4.700000e-01    3.880000e+00
    N1  C6eq  1 4.700000e-01    4.060000e+00
    N1  X1vq  1 4.700000e-01    3.690000e+00
    N1  X2vq  1 4.700000e-01    3.690000e+00
    N1  X3vq  1 4.700000e-01    3.880000e+00
    N1  X4vq  1 4.700000e-01    3.880000e+00
    N1  C1vq  1 4.700000e-01    3.390000e+00
    N1  C2vq  1 4.700000e-01    3.520000e+00
    N1  C3vq  1 4.700000e-01    3.690000e+00
    N1  C4vq  1 4.700000e-01    3.880000e+00
    N1  C5vq  1 4.700000e-01    3.880000e+00
    N1  C6vq  1 4.700000e-01    4.060000e+00
    N1  N1aq  1 4.700000e-01    3.880000e+00
  N2aq    N1  1 4.700000e-01    3.690000e+00
  N3aq    N1  1 4.700000e-01    3.690000e+00
  N4aq    N1  1 4.700000e-01    3.690000e+00
  N5aq    N1  1 4.700000e-01    3.690000e+00
  N6aq    N1  1 4.700000e-01    3.690000e+00
  P1aq    N1  1 4.700000e-01    3.690000e+00
  P2aq    N1  1 4.700000e-01    3.690000e+00
  P3aq    N1  1 4.700000e-01    3.520000e+00
  P4aq    N1  1 4.700000e-01    3.390000e+00
  P5aq    N1  1 4.700000e-01    3.240000e+00
  P6aq    N1  1 4.700000e-01    3.240000e+00
    N1  N1dq  1 4.700000e-01    3.880000e+00
  N2dq    N1  1 4.700000e-01    3.690000e+00
  N3dq    N1  1 4.700000e-01    3.690000e+00
  N4dq    N1  1 4.700000e-01    3.690000e+00
  N5dq    N1  1 4.700000e-01    3.690000e+00
  N6dq    N1  1 4.700000e-01    3.690000e+00
  P1dq    N1  1 4.700000e-01    3.690000e+00
  P2dq    N1  1 4.700000e-01    3.690000e+00
  P3dq    N1  1 4.700000e-01    3.520000e+00
  P4dq    N1  1 4.700000e-01    3.390000e+00
  P5dq    N1  1 4.700000e-01    3.240000e+00
  P6dq    N1  1 4.700000e-01    3.240000e+00
    N1   X1q  1 4.700000e-01    3.520000e+00
    N1   X2q  1 4.700000e-01    3.520000e+00
    N1   X3q  1 4.700000e-01    3.690000e+00
    N1   X4q  1 4.700000e-01    3.690000e+00
    N1   C1q  1 4.700000e-01    3.240000e+00
    N1   C2q  1 4.700000e-01    3.390000e+00
    N1   C3q  1 4.700000e-01    3.520000e+00
    N1   C4q  1 4.700000e-01    3.690000e+00
    N1   C5q  1 4.700000e-01    3.690000e+00
    N1   C6q  1 4.700000e-01    3.880000e+00
   P6h    N1  1 4.700000e-01    2.960000e+00
   P5h    N1  1 4.700000e-01    2.960000e+00
   P4h    N1  1 4.700000e-01    3.070000e+00
   P3h    N1  1 4.700000e-01    3.240000e+00
   P2h    N1  1 4.700000e-01    3.390000e+00
   P1h    N1  1 4.700000e-01    3.390000e+00
   N6h    N1  1 4.700000e-01    3.390000e+00
   N5h    N1  1 4.700000e-01    3.390000e+00
   N4h    N1  1 4.700000e-01    3.390000e+00
   N3h    N1  1 4.700000e-01    3.390000e+00
   N2h    N1  1 4.700000e-01    3.390000e+00
    N1   N1h  1 4.700000e-01    3.520000e+00
    N1  X1eh  1 4.700000e-01    3.390000e+00
    N1  X2eh  1 4.700000e-01    3.390000e+00
    N1  X3eh  1 4.700000e-01    3.520000e+00
    N1  X4eh  1 4.700000e-01    3.520000e+00
    N1  C1eh  1 4.700000e-01    3.070000e+00
    N1  C2eh  1 4.700000e-01    3.240000e+00
    N1  C3eh  1 4.700000e-01    3.390000e+00
    N1  C4eh  1 4.700000e-01    3.520000e+00
    N1  C5eh  1 4.700000e-01    3.520000e+00
    N1  C6eh  1 4.700000e-01    3.690000e+00
    N1  X1vh  1 4.700000e-01    3.390000e+00
    N1  X2vh  1 4.700000e-01    3.390000e+00
    N1  X3vh  1 4.700000e-01    3.520000e+00
    N1  X4vh  1 4.700000e-01    3.520000e+00
    N1  C1vh  1 4.700000e-01    3.070000e+00
    N1  C2vh  1 4.700000e-01    3.240000e+00
    N1  C3vh  1 4.700000e-01    3.390000e+00
    N1  C4vh  1 4.700000e-01    3.520000e+00
    N1  C5vh  1 4.700000e-01    3.520000e+00
    N1  C6vh  1 4.700000e-01    3.690000e+00
    N1  N1ah  1 4.700000e-01    3.520000e+00
  N2ah    N1  1 4.700000e-01    3.390000e+00
  N3ah    N1  1 4.700000e-01    3.390000e+00
  N4ah    N1  1 4.700000e-01    3.390000e+00
  N5ah    N1  1 4.700000e-01    3.390000e+00
  N6ah    N1  1 4.700000e-01    3.390000e+00
  P1ah    N1  1 4.700000e-01    3.390000e+00
  P2ah    N1  1 4.700000e-01    3.390000e+00
  P3ah    N1  1 4.700000e-01    3.240000e+00
  P4ah    N1  1 4.700000e-01    3.070000e+00
  P5ah    N1  1 4.700000e-01    2.960000e+00
  P6ah    N1  1 4.700000e-01    2.960000e+00
    N1  N1dh  1 4.700000e-01    3.520000e+00
  N2dh    N1  1 4.700000e-01    3.390000e+00
  N3dh    N1  1 4.700000e-01    3.390000e+00
  N4dh    N1  1 4.700000e-01    3.390000e+00
  N5dh    N1  1 4.700000e-01    3.390000e+00
  N6dh    N1  1 4.700000e-01    3.390000e+00
  P1dh    N1  1 4.700000e-01    3.390000e+00
  P2dh    N1  1 4.700000e-01    3.390000e+00
  P3dh    N1  1 4.700000e-01    3.240000e+00
  P4dh    N1  1 4.700000e-01    3.070000e+00
  P5dh    N1  1 4.700000e-01    2.960000e+00
  P6dh    N1  1 4.700000e-01    2.960000e+00
    N1   X1h  1 4.700000e-01    3.240000e+00
    N1   X2h  1 4.700000e-01    3.240000e+00
    N1   X3h  1 4.700000e-01    3.390000e+00
    N1   X4h  1 4.700000e-01    3.390000e+00
    N1   C1h  1 4.700000e-01    2.960000e+00
    N1   C2h  1 4.700000e-01    3.070000e+00
    N1   C3h  1 4.700000e-01    3.240000e+00
    N1   C4h  1 4.700000e-01    3.390000e+00
    N1   C5h  1 4.700000e-01    3.390000e+00
    N1   C6h  1 4.700000e-01    3.520000e+00
   P6r    N1  1 4.700000e-01    2.960000e+00
   P5r    N1  1 4.700000e-01    2.960000e+00
   P4r    N1  1 4.700000e-01    3.070000e+00
   P3r    N1  1 4.700000e-01    3.240000e+00
   P2r    N1  1 4.700000e-01    3.390000e+00
   P1r    N1  1 4.700000e-01    3.390000e+00
   N6r    N1  1 4.700000e-01    3.390000e+00
   N5r    N1  1 4.700000e-01    3.390000e+00
   N4r    N1  1 4.700000e-01    3.390000e+00
   N3r    N1  1 4.700000e-01    3.390000e+00
   N2r    N1  1 4.700000e-01    3.390000e+00
    N1   N1r  1 4.700000e-01    3.520000e+00
    N1  X1er  1 4.700000e-01    3.390000e+00
    N1  X2er  1 4.700000e-01    3.390000e+00
    N1  X3er  1 4.700000e-01    3.520000e+00
    N1  X4er  1 4.700000e-01    3.520000e+00
    N1  C1er  1 4.700000e-01    3.070000e+00
    N1  C2er  1 4.700000e-01    3.240000e+00
    N1  C3er  1 4.700000e-01    3.390000e+00
    N1  C4er  1 4.700000e-01    3.520000e+00
    N1  C5er  1 4.700000e-01    3.520000e+00
    N1  C6er  1 4.700000e-01    3.690000e+00
    N1  X1vr  1 4.700000e-01    3.390000e+00
    N1  X2vr  1 4.700000e-01    3.390000e+00
    N1  X3vr  1 4.700000e-01    3.520000e+00
    N1  X4vr  1 4.700000e-01    3.520000e+00
    N1  C1vr  1 4.700000e-01    3.070000e+00
    N1  C2vr  1 4.700000e-01    3.240000e+00
    N1  C3vr  1 4.700000e-01    3.390000e+00
    N1  C4vr  1 4.700000e-01    3.520000e+00
    N1  C5vr  1 4.700000e-01    3.520000e+00
    N1  C6vr  1 4.700000e-01    3.690000e+00
    N1  N1ar  1 4.700000e-01    3.520000e+00
  N2ar    N1  1 4.700000e-01    3.390000e+00
  N3ar    N1  1 4.700000e-01    3.390000e+00
  N4ar    N1  1 4.700000e-01    3.390000e+00
  N5ar    N1  1 4.700000e-01    3.390000e+00
  N6ar    N1  1 4.700000e-01    3.390000e+00
  P1ar    N1  1 4.700000e-01    3.390000e+00
  P2ar    N1  1 4.700000e-01    3.390000e+00
  P3ar    N1  1 4.700000e-01    3.240000e+00
  P4ar    N1  1 4.700000e-01    3.070000e+00
  P5ar    N1  1 4.700000e-01    2.960000e+00
  P6ar    N1  1 4.700000e-01    2.960000e+00
    N1  N1dr  1 4.700000e-01    3.520000e+00
  N2dr    N1  1 4.700000e-01    3.390000e+00
  N3dr    N1  1 4.700000e-01    3.390000e+00
  N4dr    N1  1 4.700000e-01    3.390000e+00
  N5dr    N1  1 4.700000e-01    3.390000e+00
  N6dr    N1  1 4.700000e-01    3.390000e+00
  P1dr    N1  1 4.700000e-01    3.390000e+00
  P2dr    N1  1 4.700000e-01    3.390000e+00
  P3dr    N1  1 4.700000e-01    3.240000e+00
  P4dr    N1  1 4.700000e-01    3.070000e+00
  P5dr    N1  1 4.700000e-01    2.960000e+00
  P6dr    N1  1 4.700000e-01    2.960000e+00
    N1   X1r  1 4.700000e-01    3.240000e+00
    N1   X2r  1 4.700000e-01    3.240000e+00
    N1   X3r  1 4.700000e-01    3.390000e+00
    N1   X4r  1 4.700000e-01    3.390000e+00
    N1   C1r  1 4.700000e-01    2.960000e+00
    N1   C2r  1 4.700000e-01    3.070000e+00
    N1   C3r  1 4.700000e-01    3.240000e+00
    N1   C4r  1 4.700000e-01    3.390000e+00
    N1   C5r  1 4.700000e-01    3.390000e+00
    N1   C6r  1 4.700000e-01    3.520000e+00
    N1   SN1  1 4.300000e-01    3.160000e+00
    N1   SC6  1 4.300000e-01    3.160000e+00
    N1   SC5  1 4.300000e-01    2.920000e+00
    N1   SC4  1 4.300000e-01    2.920000e+00
    N1   SC3  1 4.300000e-01    2.770000e+00
    N1   SC2  1 4.300000e-01    2.530000e+00
    N1   SC1  1 4.300000e-01    2.320000e+00
    N1   SX4  1 4.300000e-01    2.920000e+00
    N1   SX3  1 4.300000e-01    2.920000e+00
    N1   SX2  1 4.300000e-01    2.770000e+00
    N1   SX1  1 4.300000e-01    2.770000e+00
    N1  SN1d  1 4.300000e-01    3.160000e+00
    N1  SN1a  1 4.300000e-01    3.160000e+00
    N1  SC6v  1 4.300000e-01    3.380000e+00
    N1  SC5v  1 4.300000e-01    3.160000e+00
    N1  SC4v  1 4.300000e-01    3.160000e+00
    N1  SC3v  1 4.300000e-01    2.920000e+00
    N1  SC2v  1 4.300000e-01    2.770000e+00
    N1  SC1v  1 4.300000e-01    2.530000e+00
    N1  SX4v  1 4.300000e-01    3.160000e+00
    N1  SX3v  1 4.300000e-01    3.160000e+00
    N1  SX2v  1 4.300000e-01    2.920000e+00
    N1  SX1v  1 4.300000e-01    2.920000e+00
    N1  SC6e  1 4.300000e-01    3.380000e+00
    N1  SC5e  1 4.300000e-01    3.160000e+00
    N1  SC4e  1 4.300000e-01    3.160000e+00
    N1  SC3e  1 4.300000e-01    2.920000e+00
    N1  SC2e  1 4.300000e-01    2.770000e+00
    N1  SC1e  1 4.300000e-01    2.530000e+00
    N1  SX4e  1 4.300000e-01    3.160000e+00
    N1  SX3e  1 4.300000e-01    3.160000e+00
    N1  SX2e  1 4.300000e-01    2.920000e+00
    N1  SX1e  1 4.300000e-01    2.920000e+00
    N1  SN1q  1 4.300000e-01    3.590000e+00
    N1 SX1eq  1 4.300000e-01    3.380000e+00
    N1 SX2eq  1 4.300000e-01    3.380000e+00
    N1 SX3eq  1 4.300000e-01    3.590000e+00
    N1 SX4eq  1 4.300000e-01    3.590000e+00
    N1 SC1eq  1 4.300000e-01    2.920000e+00
    N1 SC2eq  1 4.300000e-01    3.160000e+00
    N1 SC3eq  1 4.300000e-01    3.380000e+00
    N1 SC4eq  1 4.300000e-01    3.590000e+00
    N1 SC5eq  1 4.300000e-01    3.590000e+00
    N1 SC6eq  1 4.300000e-01    3.770000e+00
    N1 SX1vq  1 4.300000e-01    3.380000e+00
    N1 SX2vq  1 4.300000e-01    3.380000e+00
    N1 SX3vq  1 4.300000e-01    3.590000e+00
    N1 SX4vq  1 4.300000e-01    3.590000e+00
    N1 SC1vq  1 4.300000e-01    2.920000e+00
    N1 SC2vq  1 4.300000e-01    3.160000e+00
    N1 SC3vq  1 4.300000e-01    3.380000e+00
    N1 SC4vq  1 4.300000e-01    3.590000e+00
    N1 SC5vq  1 4.300000e-01    3.590000e+00
    N1 SC6vq  1 4.300000e-01    3.770000e+00
    N1 SN1aq  1 4.300000e-01    3.590000e+00
    N1 SN1dq  1 4.300000e-01    3.590000e+00
    N1  SX1q  1 4.300000e-01    3.160000e+00
    N1  SX2q  1 4.300000e-01    3.160000e+00
    N1  SX3q  1 4.300000e-01    3.380000e+00
    N1  SX4q  1 4.300000e-01    3.380000e+00
    N1  SC1q  1 4.300000e-01    2.770000e+00
    N1  SC2q  1 4.300000e-01    2.920000e+00
    N1  SC3q  1 4.300000e-01    3.160000e+00
    N1  SC4q  1 4.300000e-01    3.380000e+00
    N1  SC5q  1 4.300000e-01    3.380000e+00
    N1  SC6q  1 4.300000e-01    3.590000e+00
    N1  SN1h  1 4.300000e-01    3.160000e+00
    N1 SX1eh  1 4.300000e-01    2.920000e+00
    N1 SX2eh  1 4.300000e-01    2.920000e+00
    N1 SX3eh  1 4.300000e-01    3.160000e+00
    N1 SX4eh  1 4.300000e-01    3.160000e+00
    N1 SC1eh  1 4.300000e-01    2.530000e+00
    N1 SC2eh  1 4.300000e-01    2.770000e+00
    N1 SC3eh  1 4.300000e-01    2.920000e+00
    N1 SC4eh  1 4.300000e-01    3.160000e+00
    N1 SC5eh  1 4.300000e-01    3.160000e+00
    N1 SC6eh  1 4.300000e-01    3.380000e+00
    N1 SX1vh  1 4.300000e-01    2.920000e+00
    N1 SX2vh  1 4.300000e-01    2.920000e+00
    N1 SX3vh  1 4.300000e-01    3.160000e+00
    N1 SX4vh  1 4.300000e-01    3.160000e+00
    N1 SC1vh  1 4.300000e-01    2.530000e+00
    N1 SC2vh  1 4.300000e-01    2.770000e+00
    N1 SC3vh  1 4.300000e-01    2.920000e+00
    N1 SC4vh  1 4.300000e-01    3.160000e+00
    N1 SC5vh  1 4.300000e-01    3.160000e+00
    N1 SC6vh  1 4.300000e-01    3.380000e+00
    N1 SN1ah  1 4.300000e-01    3.160000e+00
    N1 SN1dh  1 4.300000e-01    3.160000e+00
    N1  SX1h  1 4.300000e-01    2.770000e+00
    N1  SX2h  1 4.300000e-01    2.770000e+00
    N1  SX3h  1 4.300000e-01    2.920000e+00
    N1  SX4h  1 4.300000e-01    2.920000e+00
    N1  SC1h  1 4.300000e-01    2.320000e+00
    N1  SC2h  1 4.300000e-01    2.530000e+00
    N1  SC3h  1 4.300000e-01    2.770000e+00
    N1  SC4h  1 4.300000e-01    2.920000e+00
    N1  SC5h  1 4.300000e-01    2.920000e+00
    N1  SC6h  1 4.300000e-01    3.160000e+00
    N1  SN1r  1 4.300000e-01    3.160000e+00
    N1 SX1er  1 4.300000e-01    2.920000e+00
    N1 SX2er  1 4.300000e-01    2.920000e+00
    N1 SX3er  1 4.300000e-01    3.160000e+00
    N1 SX4er  1 4.300000e-01    3.160000e+00
    N1 SC1er  1 4.300000e-01    2.530000e+00
    N1 SC2er  1 4.300000e-01    2.770000e+00
    N1 SC3er  1 4.300000e-01    2.920000e+00
    N1 SC4er  1 4.300000e-01    3.160000e+00
    N1 SC5er  1 4.300000e-01    3.160000e+00
    N1 SC6er  1 4.300000e-01    3.380000e+00
    N1 SX1vr  1 4.300000e-01    2.920000e+00
    N1 SX2vr  1 4.300000e-01    2.920000e+00
    N1 SX3vr  1 4.300000e-01    3.160000e+00
    N1 SX4vr  1 4.300000e-01    3.160000e+00
    N1 SC1vr  1 4.300000e-01    2.530000e+00
    N1 SC2vr  1 4.300000e-01    2.770000e+00
    N1 SC3vr  1 4.300000e-01    2.920000e+00
    N1 SC4vr  1 4.300000e-01    3.160000e+00
    N1 SC5vr  1 4.300000e-01    3.160000e+00
    N1 SC6vr  1 4.300000e-01    3.380000e+00
    N1 SN1ar  1 4.300000e-01    3.160000e+00
    N1 SN1dr  1 4.300000e-01    3.160000e+00
    N1  SX1r  1 4.300000e-01    2.770000e+00
    N1  SX2r  1 4.300000e-01    2.770000e+00
    N1  SX3r  1 4.300000e-01    2.920000e+00
    N1  SX4r  1 4.300000e-01    2.920000e+00
    N1  SC1r  1 4.300000e-01    2.320000e+00
    N1  SC2r  1 4.300000e-01    2.530000e+00
    N1  SC3r  1 4.300000e-01    2.770000e+00
    N1  SC4r  1 4.300000e-01    2.920000e+00
    N1  SC5r  1 4.300000e-01    2.920000e+00
    N1  SC6r  1 4.300000e-01    3.160000e+00
  SP6d    N1  1 4.300000e-01    2.320000e+00
  SP5d    N1  1 4.300000e-01    2.320000e+00
  SP4d    N1  1 4.300000e-01    2.530000e+00
  SP3d    N1  1 4.300000e-01    2.770000e+00
  SP2d    N1  1 4.300000e-01    2.920000e+00
  SP1d    N1  1 4.300000e-01    2.920000e+00
  SN6d    N1  1 4.300000e-01    2.920000e+00
  SN5d    N1  1 4.300000e-01    2.920000e+00
  SN4d    N1  1 4.300000e-01    2.920000e+00
  SN3d    N1  1 4.300000e-01    2.920000e+00
  SN2d    N1  1 4.300000e-01    2.920000e+00
  SP6a    N1  1 4.300000e-01    2.320000e+00
  SP5a    N1  1 4.300000e-01    2.320000e+00
  SP4a    N1  1 4.300000e-01    2.530000e+00
  SP3a    N1  1 4.300000e-01    2.770000e+00
  SP2a    N1  1 4.300000e-01    2.920000e+00
  SP1a    N1  1 4.300000e-01    2.920000e+00
  SN6a    N1  1 4.300000e-01    2.920000e+00
  SN5a    N1  1 4.300000e-01    2.920000e+00
  SN4a    N1  1 4.300000e-01    2.920000e+00
  SN3a    N1  1 4.300000e-01    2.920000e+00
  SN2a    N1  1 4.300000e-01    2.920000e+00
  SP6q    N1  1 4.300000e-01    2.770000e+00
  SP5q    N1  1 4.300000e-01    2.770000e+00
  SP4q    N1  1 4.300000e-01    2.920000e+00
  SP3q    N1  1 4.300000e-01    3.160000e+00
  SP2q    N1  1 4.300000e-01    3.380000e+00
  SP1q    N1  1 4.300000e-01    3.380000e+00
  SN6q    N1  1 4.300000e-01    3.380000e+00
  SN5q    N1  1 4.300000e-01    3.380000e+00
  SN4q    N1  1 4.300000e-01    3.380000e+00
  SN3q    N1  1 4.300000e-01    3.380000e+00
  SN2q    N1  1 4.300000e-01    3.380000e+00
 SN2aq    N1  1 4.300000e-01    3.380000e+00
 SN3aq    N1  1 4.300000e-01    3.380000e+00
 SN4aq    N1  1 4.300000e-01    3.380000e+00
 SN5aq    N1  1 4.300000e-01    3.380000e+00
 SN6aq    N1  1 4.300000e-01    3.380000e+00
 SP1aq    N1  1 4.300000e-01    3.380000e+00
 SP2aq    N1  1 4.300000e-01    3.380000e+00
 SP3aq    N1  1 4.300000e-01    3.160000e+00
 SP4aq    N1  1 4.300000e-01    2.920000e+00
 SP5aq    N1  1 4.300000e-01    2.770000e+00
 SP6aq    N1  1 4.300000e-01    2.770000e+00
 SN2dq    N1  1 4.300000e-01    3.380000e+00
 SN3dq    N1  1 4.300000e-01    3.380000e+00
 SN4dq    N1  1 4.300000e-01    3.380000e+00
 SN5dq    N1  1 4.300000e-01    3.380000e+00
 SN6dq    N1  1 4.300000e-01    3.380000e+00
 SP1dq    N1  1 4.300000e-01    3.380000e+00
 SP2dq    N1  1 4.300000e-01    3.380000e+00
 SP3dq    N1  1 4.300000e-01    3.160000e+00
 SP4dq    N1  1 4.300000e-01    2.920000e+00
 SP5dq    N1  1 4.300000e-01    2.770000e+00
 SP6dq    N1  1 4.300000e-01    2.770000e+00
  SP6h    N1  1 4.300000e-01    2.320000e+00
  SP5h    N1  1 4.300000e-01    2.320000e+00
  SP4h    N1  1 4.300000e-01    2.530000e+00
  SP3h    N1  1 4.300000e-01    2.770000e+00
  SP2h    N1  1 4.300000e-01    2.920000e+00
  SP1h    N1  1 4.300000e-01    2.920000e+00
  SN6h    N1  1 4.300000e-01    2.920000e+00
  SN5h    N1  1 4.300000e-01    2.920000e+00
  SN4h    N1  1 4.300000e-01    2.920000e+00
  SN3h    N1  1 4.300000e-01    2.920000e+00
  SN2h    N1  1 4.300000e-01    2.920000e+00
 SN2ah    N1  1 4.300000e-01    2.920000e+00
 SN3ah    N1  1 4.300000e-01    2.920000e+00
 SN4ah    N1  1 4.300000e-01    2.920000e+00
 SN5ah    N1  1 4.300000e-01    2.920000e+00
 SN6ah    N1  1 4.300000e-01    2.920000e+00
 SP1ah    N1  1 4.300000e-01    2.920000e+00
 SP2ah    N1  1 4.300000e-01    2.920000e+00
 SP3ah    N1  1 4.300000e-01    2.770000e+00
 SP4ah    N1  1 4.300000e-01    2.530000e+00
 SP5ah    N1  1 4.300000e-01    2.320000e+00
 SP6ah    N1  1 4.300000e-01    2.320000e+00
 SN2dh    N1  1 4.300000e-01    2.920000e+00
 SN3dh    N1  1 4.300000e-01    2.920000e+00
 SN4dh    N1  1 4.300000e-01    2.920000e+00
 SN5dh    N1  1 4.300000e-01    2.920000e+00
 SN6dh    N1  1 4.300000e-01    2.920000e+00
 SP1dh    N1  1 4.300000e-01    2.920000e+00
 SP2dh    N1  1 4.300000e-01    2.920000e+00
 SP3dh    N1  1 4.300000e-01    2.770000e+00
 SP4dh    N1  1 4.300000e-01    2.530000e+00
 SP5dh    N1  1 4.300000e-01    2.320000e+00
 SP6dh    N1  1 4.300000e-01    2.320000e+00
  SP6r    N1  1 4.300000e-01    2.320000e+00
  SP5r    N1  1 4.300000e-01    2.320000e+00
  SP4r    N1  1 4.300000e-01    2.530000e+00
  SP3r    N1  1 4.300000e-01    2.770000e+00
  SP2r    N1  1 4.300000e-01    2.920000e+00
  SP1r    N1  1 4.300000e-01    2.920000e+00
  SN6r    N1  1 4.300000e-01    2.920000e+00
  SN5r    N1  1 4.300000e-01    2.920000e+00
  SN4r    N1  1 4.300000e-01    2.920000e+00
  SN3r    N1  1 4.300000e-01    2.920000e+00
  SN2r    N1  1 4.300000e-01    2.920000e+00
 SN2ar    N1  1 4.300000e-01    2.920000e+00
 SN3ar    N1  1 4.300000e-01    2.920000e+00
 SN4ar    N1  1 4.300000e-01    2.920000e+00
 SN5ar    N1  1 4.300000e-01    2.920000e+00
 SN6ar    N1  1 4.300000e-01    2.920000e+00
 SP1ar    N1  1 4.300000e-01    2.920000e+00
 SP2ar    N1  1 4.300000e-01    2.920000e+00
 SP3ar    N1  1 4.300000e-01    2.770000e+00
 SP4ar    N1  1 4.300000e-01    2.530000e+00
 SP5ar    N1  1 4.300000e-01    2.320000e+00
 SP6ar    N1  1 4.300000e-01    2.320000e+00
 SN2dr    N1  1 4.300000e-01    2.920000e+00
 SN3dr    N1  1 4.300000e-01    2.920000e+00
 SN4dr    N1  1 4.300000e-01    2.920000e+00
 SN5dr    N1  1 4.300000e-01    2.920000e+00
 SN6dr    N1  1 4.300000e-01    2.920000e+00
 SP1dr    N1  1 4.300000e-01    2.920000e+00
 SP2dr    N1  1 4.300000e-01    2.920000e+00
 SP3dr    N1  1 4.300000e-01    2.770000e+00
 SP4dr    N1  1 4.300000e-01    2.530000e+00
 SP5dr    N1  1 4.300000e-01    2.320000e+00
 SP6dr    N1  1 4.300000e-01    2.320000e+00
    N1   TN1  1 3.950000e-01    2.500000e+00
    N1   TC6  1 3.950000e-01    2.500000e+00
    N1   TC5  1 3.950000e-01    2.310000e+00
    N1   TC4  1 3.950000e-01    2.310000e+00
    N1   TC3  1 3.950000e-01    2.110000e+00
    N1   TC2  1 3.950000e-01    1.850000e+00
    N1   TC1  1 3.950000e-01    1.670000e+00
    N1   TX4  1 3.950000e-01    2.310000e+00
    N1   TX3  1 3.950000e-01    2.310000e+00
    N1   TX2  1 3.950000e-01    2.110000e+00
    N1   TX1  1 3.950000e-01    2.110000e+00
    N1  TN1d  1 3.950000e-01    2.500000e+00
    N1  TN1a  1 3.950000e-01    2.500000e+00
    N1  TC6v  1 3.950000e-01    2.700000e+00
    N1  TC5v  1 3.950000e-01    2.500000e+00
    N1  TC4v  1 3.950000e-01    2.500000e+00
    N1  TC3v  1 3.950000e-01    2.310000e+00
    N1  TC2v  1 3.950000e-01    2.110000e+00
    N1  TC1v  1 3.950000e-01    1.850000e+00
    N1  TX4v  1 3.950000e-01    2.500000e+00
    N1  TX3v  1 3.950000e-01    2.500000e+00
    N1  TX2v  1 3.950000e-01    2.310000e+00
    N1  TX1v  1 3.950000e-01    2.310000e+00
    N1  TC6e  1 3.950000e-01    2.700000e+00
    N1  TC5e  1 3.950000e-01    2.500000e+00
    N1  TC4e  1 3.950000e-01    2.500000e+00
    N1  TC3e  1 3.950000e-01    2.310000e+00
    N1  TC2e  1 3.950000e-01    2.110000e+00
    N1  TC1e  1 3.950000e-01    1.850000e+00
    N1  TX4e  1 3.950000e-01    2.500000e+00
    N1  TX3e  1 3.950000e-01    2.500000e+00
    N1  TX2e  1 3.950000e-01    2.310000e+00
    N1  TX1e  1 3.950000e-01    2.310000e+00
    N1  TN1q  1 3.950000e-01    2.940000e+00
    N1 TX1eq  1 3.950000e-01    2.700000e+00
    N1 TX2eq  1 3.950000e-01    2.700000e+00
    N1 TX3eq  1 3.950000e-01    2.940000e+00
    N1 TX4eq  1 3.950000e-01    2.940000e+00
    N1 TC1eq  1 3.950000e-01    2.310000e+00
    N1 TC2eq  1 3.950000e-01    2.500000e+00
    N1 TC3eq  1 3.950000e-01    2.700000e+00
    N1 TC4eq  1 3.950000e-01    2.940000e+00
    N1 TC5eq  1 3.950000e-01    2.940000e+00
    N1 TC6eq  1 3.950000e-01    3.190000e+00
    N1 TX1vq  1 3.950000e-01    2.700000e+00
    N1 TX2vq  1 3.950000e-01    2.700000e+00
    N1 TX3vq  1 3.950000e-01    2.940000e+00
    N1 TX4vq  1 3.950000e-01    2.940000e+00
    N1 TC1vq  1 3.950000e-01    2.310000e+00
    N1 TC2vq  1 3.950000e-01    2.500000e+00
    N1 TC3vq  1 3.950000e-01    2.700000e+00
    N1 TC4vq  1 3.950000e-01    2.940000e+00
    N1 TC5vq  1 3.950000e-01    2.940000e+00
    N1 TC6vq  1 3.950000e-01    3.190000e+00
    N1 TN1aq  1 3.950000e-01    2.940000e+00
    N1 TN1dq  1 3.950000e-01    2.940000e+00
    N1  TX1q  1 3.950000e-01    2.500000e+00
    N1  TX2q  1 3.950000e-01    2.500000e+00
    N1  TX3q  1 3.950000e-01    2.700000e+00
    N1  TX4q  1 3.950000e-01    2.700000e+00
    N1  TC1q  1 3.950000e-01    2.110000e+00
    N1  TC2q  1 3.950000e-01    2.310000e+00
    N1  TC3q  1 3.950000e-01    2.500000e+00
    N1  TC4q  1 3.950000e-01    2.700000e+00
    N1  TC5q  1 3.950000e-01    2.700000e+00
    N1  TC6q  1 3.950000e-01    2.940000e+00
    N1  TN1h  1 3.950000e-01    2.500000e+00
    N1 TX1eh  1 3.950000e-01    2.310000e+00
    N1 TX2eh  1 3.950000e-01    2.310000e+00
    N1 TX3eh  1 3.950000e-01    2.500000e+00
    N1 TX4eh  1 3.950000e-01    2.500000e+00
    N1 TC1eh  1 3.950000e-01    1.850000e+00
    N1 TC2eh  1 3.950000e-01    2.110000e+00
    N1 TC3eh  1 3.950000e-01    2.310000e+00
    N1 TC4eh  1 3.950000e-01    2.500000e+00
    N1 TC5eh  1 3.950000e-01    2.500000e+00
    N1 TC6eh  1 3.950000e-01    2.700000e+00
    N1 TX1vh  1 3.950000e-01    2.310000e+00
    N1 TX2vh  1 3.950000e-01    2.310000e+00
    N1 TX3vh  1 3.950000e-01    2.500000e+00
    N1 TX4vh  1 3.950000e-01    2.500000e+00
    N1 TC1vh  1 3.950000e-01    1.850000e+00
    N1 TC2vh  1 3.950000e-01    2.110000e+00
    N1 TC3vh  1 3.950000e-01    2.310000e+00
    N1 TC4vh  1 3.950000e-01    2.500000e+00
    N1 TC5vh  1 3.950000e-01    2.500000e+00
    N1 TC6vh  1 3.950000e-01    2.700000e+00
    N1 TN1ah  1 3.950000e-01    2.500000e+00
    N1 TN1dh  1 3.950000e-01    2.500000e+00
    N1  TX1h  1 3.950000e-01    2.110000e+00
    N1  TX2h  1 3.950000e-01    2.110000e+00
    N1  TX3h  1 3.950000e-01    2.310000e+00
    N1  TX4h  1 3.950000e-01    2.310000e+00
    N1  TC1h  1 3.950000e-01    1.670000e+00
    N1  TC2h  1 3.950000e-01    1.850000e+00
    N1  TC3h  1 3.950000e-01    2.110000e+00
    N1  TC4h  1 3.950000e-01    2.310000e+00
    N1  TC5h  1 3.950000e-01    2.310000e+00
    N1  TC6h  1 3.950000e-01    2.500000e+00
    N1  TN1r  1 3.950000e-01    2.500000e+00
    N1 TX1er  1 3.950000e-01    2.310000e+00
    N1 TX2er  1 3.950000e-01    2.310000e+00
    N1 TX3er  1 3.950000e-01    2.500000e+00
    N1 TX4er  1 3.950000e-01    2.500000e+00
    N1 TC1er  1 3.950000e-01    1.850000e+00
    N1 TC2er  1 3.950000e-01    2.110000e+00
    N1 TC3er  1 3.950000e-01    2.310000e+00
    N1 TC4er  1 3.950000e-01    2.500000e+00
    N1 TC5er  1 3.950000e-01    2.500000e+00
    N1 TC6er  1 3.950000e-01    2.700000e+00
    N1 TX1vr  1 3.950000e-01    2.310000e+00
    N1 TX2vr  1 3.950000e-01    2.310000e+00
    N1 TX3vr  1 3.950000e-01    2.500000e+00
    N1 TX4vr  1 3.950000e-01    2.500000e+00
    N1 TC1vr  1 3.950000e-01    1.850000e+00
    N1 TC2vr  1 3.950000e-01    2.110000e+00
    N1 TC3vr  1 3.950000e-01    2.310000e+00
    N1 TC4vr  1 3.950000e-01    2.500000e+00
    N1 TC5vr  1 3.950000e-01    2.500000e+00
    N1 TC6vr  1 3.950000e-01    2.700000e+00
    N1 TN1ar  1 3.950000e-01    2.500000e+00
    N1 TN1dr  1 3.950000e-01    2.500000e+00
    N1  TX1r  1 3.950000e-01    2.110000e+00
    N1  TX2r  1 3.950000e-01    2.110000e+00
    N1  TX3r  1 3.950000e-01    2.310000e+00
    N1  TX4r  1 3.950000e-01    2.310000e+00
    N1  TC1r  1 3.950000e-01    1.670000e+00
    N1  TC2r  1 3.950000e-01    1.850000e+00
    N1  TC3r  1 3.950000e-01    2.110000e+00
    N1  TC4r  1 3.950000e-01    2.310000e+00
    N1  TC5r  1 3.950000e-01    2.310000e+00
    N1  TC6r  1 3.950000e-01    2.500000e+00
  TP6d    N1  1 3.950000e-01    1.670000e+00
  TP5d    N1  1 3.950000e-01    1.670000e+00
  TP4d    N1  1 3.950000e-01    1.850000e+00
  TP3d    N1  1 3.950000e-01    2.110000e+00
  TP2d    N1  1 3.950000e-01    2.310000e+00
  TP1d    N1  1 3.950000e-01    2.310000e+00
  TN6d    N1  1 3.950000e-01    2.310000e+00
  TN5d    N1  1 3.950000e-01    2.310000e+00
  TN4d    N1  1 3.950000e-01    2.310000e+00
  TN3d    N1  1 3.950000e-01    2.310000e+00
  TN2d    N1  1 3.950000e-01    2.310000e+00
  TP6a    N1  1 3.950000e-01    1.670000e+00
  TP5a    N1  1 3.950000e-01    1.670000e+00
  TP4a    N1  1 3.950000e-01    1.850000e+00
  TP3a    N1  1 3.950000e-01    2.110000e+00
  TP2a    N1  1 3.950000e-01    2.310000e+00
  TP1a    N1  1 3.950000e-01    2.310000e+00
  TN6a    N1  1 3.950000e-01    2.310000e+00
  TN5a    N1  1 3.950000e-01    2.310000e+00
  TN4a    N1  1 3.950000e-01    2.310000e+00
  TN3a    N1  1 3.950000e-01    2.310000e+00
  TN2a    N1  1 3.950000e-01    2.310000e+00
  TP6q    N1  1 3.950000e-01    2.110000e+00
  TP5q    N1  1 3.950000e-01    2.110000e+00
  TP4q    N1  1 3.950000e-01    2.310000e+00
  TP3q    N1  1 3.950000e-01    2.500000e+00
  TP2q    N1  1 3.950000e-01    2.700000e+00
  TP1q    N1  1 3.950000e-01    2.700000e+00
  TN6q    N1  1 3.950000e-01    2.700000e+00
  TN5q    N1  1 3.950000e-01    2.700000e+00
  TN4q    N1  1 3.950000e-01    2.700000e+00
  TN3q    N1  1 3.950000e-01    2.700000e+00
  TN2q    N1  1 3.950000e-01    2.700000e+00
 TN2aq    N1  1 3.950000e-01    2.700000e+00
 TN3aq    N1  1 3.950000e-01    2.700000e+00
 TN4aq    N1  1 3.950000e-01    2.700000e+00
 TN5aq    N1  1 3.950000e-01    2.700000e+00
 TN6aq    N1  1 3.950000e-01    2.700000e+00
 TP1aq    N1  1 3.950000e-01    2.700000e+00
 TP2aq    N1  1 3.950000e-01    2.700000e+00
 TP3aq    N1  1 3.950000e-01    2.500000e+00
 TP4aq    N1  1 3.950000e-01    2.310000e+00
 TP5aq    N1  1 3.950000e-01    2.110000e+00
 TP6aq    N1  1 3.950000e-01    2.110000e+00
 TN2dq    N1  1 3.950000e-01    2.700000e+00
 TN3dq    N1  1 3.950000e-01    2.700000e+00
 TN4dq    N1  1 3.950000e-01    2.700000e+00
 TN5dq    N1  1 3.950000e-01    2.700000e+00
 TN6dq    N1  1 3.950000e-01    2.700000e+00
 TP1dq    N1  1 3.950000e-01    2.700000e+00
 TP2dq    N1  1 3.950000e-01    2.700000e+00
 TP3dq    N1  1 3.950000e-01    2.500000e+00
 TP4dq    N1  1 3.950000e-01    2.310000e+00
 TP5dq    N1  1 3.950000e-01    2.110000e+00
 TP6dq    N1  1 3.950000e-01    2.110000e+00
  TP6h    N1  1 3.950000e-01    1.670000e+00
  TP5h    N1  1 3.950000e-01    1.670000e+00
  TP4h    N1  1 3.950000e-01    1.850000e+00
  TP3h    N1  1 3.950000e-01    2.110000e+00
  TP2h    N1  1 3.950000e-01    2.310000e+00
  TP1h    N1  1 3.950000e-01    2.310000e+00
  TN6h    N1  1 3.950000e-01    2.310000e+00
  TN5h    N1  1 3.950000e-01    2.310000e+00
  TN4h    N1  1 3.950000e-01    2.310000e+00
  TN3h    N1  1 3.950000e-01    2.310000e+00
  TN2h    N1  1 3.950000e-01    2.310000e+00
 TN2ah    N1  1 3.950000e-01    2.310000e+00
 TN3ah    N1  1 3.950000e-01    2.310000e+00
 TN4ah    N1  1 3.950000e-01    2.310000e+00
 TN5ah    N1  1 3.950000e-01    2.310000e+00
 TN6ah    N1  1 3.950000e-01    2.310000e+00
 TP1ah    N1  1 3.950000e-01    2.310000e+00
 TP2ah    N1  1 3.950000e-01    2.310000e+00
 TP3ah    N1  1 3.950000e-01    2.110000e+00
 TP4ah    N1  1 3.950000e-01    1.850000e+00
 TP5ah    N1  1 3.950000e-01    1.670000e+00
 TP6ah    N1  1 3.950000e-01    1.670000e+00
 TN2dh    N1  1 3.950000e-01    2.310000e+00
 TN3dh    N1  1 3.950000e-01    2.310000e+00
 TN4dh    N1  1 3.950000e-01    2.310000e+00
 TN5dh    N1  1 3.950000e-01    2.310000e+00
 TN6dh    N1  1 3.950000e-01    2.310000e+00
 TP1dh    N1  1 3.950000e-01    2.310000e+00
 TP2dh    N1  1 3.950000e-01    2.310000e+00
 TP3dh    N1  1 3.950000e-01    2.110000e+00
 TP4dh    N1  1 3.950000e-01    1.850000e+00
 TP5dh    N1  1 3.950000e-01    1.670000e+00
 TP6dh    N1  1 3.950000e-01    1.670000e+00
  TP6r    N1  1 3.950000e-01    1.670000e+00
  TP5r    N1  1 3.950000e-01    1.670000e+00
  TP4r    N1  1 3.950000e-01    1.850000e+00
  TP3r    N1  1 3.950000e-01    2.110000e+00
  TP2r    N1  1 3.950000e-01    2.310000e+00
  TP1r    N1  1 3.950000e-01    2.310000e+00
  TN6r    N1  1 3.950000e-01    2.310000e+00
  TN5r    N1  1 3.950000e-01    2.310000e+00
  TN4r    N1  1 3.950000e-01    2.310000e+00
  TN3r    N1  1 3.950000e-01    2.310000e+00
  TN2r    N1  1 3.950000e-01    2.310000e+00
 TN2ar    N1  1 3.950000e-01    2.310000e+00
 TN3ar    N1  1 3.950000e-01    2.310000e+00
 TN4ar    N1  1 3.950000e-01    2.310000e+00
 TN5ar    N1  1 3.950000e-01    2.310000e+00
 TN6ar    N1  1 3.950000e-01    2.310000e+00
 TP1ar    N1  1 3.950000e-01    2.310000e+00
 TP2ar    N1  1 3.950000e-01    2.310000e+00
 TP3ar    N1  1 3.950000e-01    2.110000e+00
 TP4ar    N1  1 3.950000e-01    1.850000e+00
 TP5ar    N1  1 3.950000e-01    1.670000e+00
 TP6ar    N1  1 3.950000e-01    1.670000e+00
 TN2dr    N1  1 3.950000e-01    2.310000e+00
 TN3dr    N1  1 3.950000e-01    2.310000e+00
 TN4dr    N1  1 3.950000e-01    2.310000e+00
 TN5dr    N1  1 3.950000e-01    2.310000e+00
 TN6dr    N1  1 3.950000e-01    2.310000e+00
 TP1dr    N1  1 3.950000e-01    2.310000e+00
 TP2dr    N1  1 3.950000e-01    2.310000e+00
 TP3dr    N1  1 3.950000e-01    2.110000e+00
 TP4dr    N1  1 3.950000e-01    1.850000e+00
 TP5dr    N1  1 3.950000e-01    1.670000e+00
 TP6dr    N1  1 3.950000e-01    1.670000e+00
   P6d   SN1  1 4.300000e-01    2.320000e+00
   P5d   SN1  1 4.300000e-01    2.320000e+00
   P4d   SN1  1 4.300000e-01    2.530000e+00
   P3d   SN1  1 4.300000e-01    2.770000e+00
   P2d   SN1  1 4.300000e-01    2.920000e+00
   P1d   SN1  1 4.300000e-01    2.920000e+00
   N6d   SN1  1 4.300000e-01    2.920000e+00
   N5d   SN1  1 4.300000e-01    2.920000e+00
   N4d   SN1  1 4.300000e-01    2.920000e+00
   N3d   SN1  1 4.300000e-01    2.920000e+00
   N2d   SN1  1 4.300000e-01    2.920000e+00
   P6a   SN1  1 4.300000e-01    2.320000e+00
   P5a   SN1  1 4.300000e-01    2.320000e+00
   P4a   SN1  1 4.300000e-01    2.530000e+00
   P3a   SN1  1 4.300000e-01    2.770000e+00
   P2a   SN1  1 4.300000e-01    2.920000e+00
   P1a   SN1  1 4.300000e-01    2.920000e+00
   N6a   SN1  1 4.300000e-01    2.920000e+00
   N5a   SN1  1 4.300000e-01    2.920000e+00
   N4a   SN1  1 4.300000e-01    2.920000e+00
   N3a   SN1  1 4.300000e-01    2.920000e+00
   N2a   SN1  1 4.300000e-01    2.920000e+00
   P6q   SN1  1 4.300000e-01    2.770000e+00
   P5q   SN1  1 4.300000e-01    2.770000e+00
   P4q   SN1  1 4.300000e-01    2.920000e+00
   P3q   SN1  1 4.300000e-01    3.160000e+00
   P2q   SN1  1 4.300000e-01    3.380000e+00
   P1q   SN1  1 4.300000e-01    3.380000e+00
   N6q   SN1  1 4.300000e-01    3.380000e+00
   N5q   SN1  1 4.300000e-01    3.380000e+00
   N4q   SN1  1 4.300000e-01    3.380000e+00
   N3q   SN1  1 4.300000e-01    3.380000e+00
   N2q   SN1  1 4.300000e-01    3.380000e+00
  N2aq   SN1  1 4.300000e-01    3.380000e+00
  N3aq   SN1  1 4.300000e-01    3.380000e+00
  N4aq   SN1  1 4.300000e-01    3.380000e+00
  N5aq   SN1  1 4.300000e-01    3.380000e+00
  N6aq   SN1  1 4.300000e-01    3.380000e+00
  P1aq   SN1  1 4.300000e-01    3.380000e+00
  P2aq   SN1  1 4.300000e-01    3.380000e+00
  P3aq   SN1  1 4.300000e-01    3.160000e+00
  P4aq   SN1  1 4.300000e-01    2.920000e+00
  P5aq   SN1  1 4.300000e-01    2.770000e+00
  P6aq   SN1  1 4.300000e-01    2.770000e+00
  N2dq   SN1  1 4.300000e-01    3.380000e+00
  N3dq   SN1  1 4.300000e-01    3.380000e+00
  N4dq   SN1  1 4.300000e-01    3.380000e+00
  N5dq   SN1  1 4.300000e-01    3.380000e+00
  N6dq   SN1  1 4.300000e-01    3.380000e+00
  P1dq   SN1  1 4.300000e-01    3.380000e+00
  P2dq   SN1  1 4.300000e-01    3.380000e+00
  P3dq   SN1  1 4.300000e-01    3.160000e+00
  P4dq   SN1  1 4.300000e-01    2.920000e+00
  P5dq   SN1  1 4.300000e-01    2.770000e+00
  P6dq   SN1  1 4.300000e-01    2.770000e+00
   P6h   SN1  1 4.300000e-01    2.320000e+00
   P5h   SN1  1 4.300000e-01    2.320000e+00
   P4h   SN1  1 4.300000e-01    2.530000e+00
   P3h   SN1  1 4.300000e-01    2.770000e+00
   P2h   SN1  1 4.300000e-01    2.920000e+00
   P1h   SN1  1 4.300000e-01    2.920000e+00
   N6h   SN1  1 4.300000e-01    2.920000e+00
   N5h   SN1  1 4.300000e-01    2.920000e+00
   N4h   SN1  1 4.300000e-01    2.920000e+00
   N3h   SN1  1 4.300000e-01    2.920000e+00
   N2h   SN1  1 4.300000e-01    2.920000e+00
  N2ah   SN1  1 4.300000e-01    2.920000e+00
  N3ah   SN1  1 4.300000e-01    2.920000e+00
  N4ah   SN1  1 4.300000e-01    2.920000e+00
  N5ah   SN1  1 4.300000e-01    2.920000e+00
  N6ah   SN1  1 4.300000e-01    2.920000e+00
  P1ah   SN1  1 4.300000e-01    2.920000e+00
  P2ah   SN1  1 4.300000e-01    2.920000e+00
  P3ah   SN1  1 4.300000e-01    2.770000e+00
  P4ah   SN1  1 4.300000e-01    2.530000e+00
  P5ah   SN1  1 4.300000e-01    2.320000e+00
  P6ah   SN1  1 4.300000e-01    2.320000e+00
  N2dh   SN1  1 4.300000e-01    2.920000e+00
  N3dh   SN1  1 4.300000e-01    2.920000e+00
  N4dh   SN1  1 4.300000e-01    2.920000e+00
  N5dh   SN1  1 4.300000e-01    2.920000e+00
  N6dh   SN1  1 4.300000e-01    2.920000e+00
  P1dh   SN1  1 4.300000e-01    2.920000e+00
  P2dh   SN1  1 4.300000e-01    2.920000e+00
  P3dh   SN1  1 4.300000e-01    2.770000e+00
  P4dh   SN1  1 4.300000e-01    2.530000e+00
  P5dh   SN1  1 4.300000e-01    2.320000e+00
  P6dh   SN1  1 4.300000e-01    2.320000e+00
   P6r   SN1  1 4.300000e-01    2.320000e+00
   P5r   SN1  1 4.300000e-01    2.320000e+00
   P4r   SN1  1 4.300000e-01    2.530000e+00
   P3r   SN1  1 4.300000e-01    2.770000e+00
   P2r   SN1  1 4.300000e-01    2.920000e+00
   P1r   SN1  1 4.300000e-01    2.920000e+00
   N6r   SN1  1 4.300000e-01    2.920000e+00
   N5r   SN1  1 4.300000e-01    2.920000e+00
   N4r   SN1  1 4.300000e-01    2.920000e+00
   N3r   SN1  1 4.300000e-01    2.920000e+00
   N2r   SN1  1 4.300000e-01    2.920000e+00
  N2ar   SN1  1 4.300000e-01    2.920000e+00
  N3ar   SN1  1 4.300000e-01    2.920000e+00
  N4ar   SN1  1 4.300000e-01    2.920000e+00
  N5ar   SN1  1 4.300000e-01    2.920000e+00
  N6ar   SN1  1 4.300000e-01    2.920000e+00
  P1ar   SN1  1 4.300000e-01    2.920000e+00
  P2ar   SN1  1 4.300000e-01    2.920000e+00
  P3ar   SN1  1 4.300000e-01    2.770000e+00
  P4ar   SN1  1 4.300000e-01    2.530000e+00
  P5ar   SN1  1 4.300000e-01    2.320000e+00
  P6ar   SN1  1 4.300000e-01    2.320000e+00
  N2dr   SN1  1 4.300000e-01    2.920000e+00
  N3dr   SN1  1 4.300000e-01    2.920000e+00
  N4dr   SN1  1 4.300000e-01    2.920000e+00
  N5dr   SN1  1 4.300000e-01    2.920000e+00
  N6dr   SN1  1 4.300000e-01    2.920000e+00
  P1dr   SN1  1 4.300000e-01    2.920000e+00
  P2dr   SN1  1 4.300000e-01    2.920000e+00
  P3dr   SN1  1 4.300000e-01    2.770000e+00
  P4dr   SN1  1 4.300000e-01    2.530000e+00
  P5dr   SN1  1 4.300000e-01    2.320000e+00
  P6dr   SN1  1 4.300000e-01    2.320000e+00
   SN1    C6  1 4.300000e-01    3.160000e+00
   SN1    C5  1 4.300000e-01    2.920000e+00
   SN1    C4  1 4.300000e-01    2.920000e+00
   SN1    C3  1 4.300000e-01    2.770000e+00
   SN1    C2  1 4.300000e-01    2.530000e+00
   SN1    C1  1 4.300000e-01    2.320000e+00
   SN1    X4  1 4.300000e-01    2.920000e+00
   SN1    X3  1 4.300000e-01    2.920000e+00
   SN1    X2  1 4.300000e-01    2.770000e+00
   SN1    X1  1 4.300000e-01    2.770000e+00
   SN1   N1d  1 4.300000e-01    3.160000e+00
   SN1   N1a  1 4.300000e-01    3.160000e+00
   SN1   C6v  1 4.300000e-01    3.380000e+00
   SN1   C5v  1 4.300000e-01    3.160000e+00
   SN1   C4v  1 4.300000e-01    3.160000e+00
   SN1   C3v  1 4.300000e-01    2.920000e+00
   SN1   C2v  1 4.300000e-01    2.770000e+00
   SN1   C1v  1 4.300000e-01    2.530000e+00
   SN1   X4v  1 4.300000e-01    3.160000e+00
   SN1   X3v  1 4.300000e-01    3.160000e+00
   SN1   X2v  1 4.300000e-01    2.920000e+00
   SN1   X1v  1 4.300000e-01    2.920000e+00
   SN1   C6e  1 4.300000e-01    3.380000e+00
   SN1   C5e  1 4.300000e-01    3.160000e+00
   SN1   C4e  1 4.300000e-01    3.160000e+00
   SN1   C3e  1 4.300000e-01    2.920000e+00
   SN1   C2e  1 4.300000e-01    2.770000e+00
   SN1   C1e  1 4.300000e-01    2.530000e+00
   SN1   X4e  1 4.300000e-01    3.160000e+00
   SN1   X3e  1 4.300000e-01    3.160000e+00
   SN1   X2e  1 4.300000e-01    2.920000e+00
   SN1   X1e  1 4.300000e-01    2.920000e+00
   SN1   N1q  1 4.300000e-01    3.590000e+00
   SN1  X1eq  1 4.300000e-01    3.380000e+00
   SN1  X2eq  1 4.300000e-01    3.380000e+00
   SN1  X3eq  1 4.300000e-01    3.590000e+00
   SN1  X4eq  1 4.300000e-01    3.590000e+00
   SN1  C1eq  1 4.300000e-01    2.920000e+00
   SN1  C2eq  1 4.300000e-01    3.160000e+00
   SN1  C3eq  1 4.300000e-01    3.380000e+00
   SN1  C4eq  1 4.300000e-01    3.590000e+00
   SN1  C5eq  1 4.300000e-01    3.590000e+00
   SN1  C6eq  1 4.300000e-01    3.770000e+00
   SN1  X1vq  1 4.300000e-01    3.380000e+00
   SN1  X2vq  1 4.300000e-01    3.380000e+00
   SN1  X3vq  1 4.300000e-01    3.590000e+00
   SN1  X4vq  1 4.300000e-01    3.590000e+00
   SN1  C1vq  1 4.300000e-01    2.920000e+00
   SN1  C2vq  1 4.300000e-01    3.160000e+00
   SN1  C3vq  1 4.300000e-01    3.380000e+00
   SN1  C4vq  1 4.300000e-01    3.590000e+00
   SN1  C5vq  1 4.300000e-01    3.590000e+00
   SN1  C6vq  1 4.300000e-01    3.770000e+00
   SN1  N1aq  1 4.300000e-01    3.590000e+00
   SN1  N1dq  1 4.300000e-01    3.590000e+00
   SN1   X1q  1 4.300000e-01    3.160000e+00
   SN1   X2q  1 4.300000e-01    3.160000e+00
   SN1   X3q  1 4.300000e-01    3.380000e+00
   SN1   X4q  1 4.300000e-01    3.380000e+00
   SN1   C1q  1 4.300000e-01    2.770000e+00
   SN1   C2q  1 4.300000e-01    2.920000e+00
   SN1   C3q  1 4.300000e-01    3.160000e+00
   SN1   C4q  1 4.300000e-01    3.380000e+00
   SN1   C5q  1 4.300000e-01    3.380000e+00
   SN1   C6q  1 4.300000e-01    3.590000e+00
   SN1   N1h  1 4.300000e-01    3.160000e+00
   SN1  X1eh  1 4.300000e-01    2.920000e+00
   SN1  X2eh  1 4.300000e-01    2.920000e+00
   SN1  X3eh  1 4.300000e-01    3.160000e+00
   SN1  X4eh  1 4.300000e-01    3.160000e+00
   SN1  C1eh  1 4.300000e-01    2.530000e+00
   SN1  C2eh  1 4.300000e-01    2.770000e+00
   SN1  C3eh  1 4.300000e-01    2.920000e+00
   SN1  C4eh  1 4.300000e-01    3.160000e+00
   SN1  C5eh  1 4.300000e-01    3.160000e+00
   SN1  C6eh  1 4.300000e-01    3.380000e+00
   SN1  X1vh  1 4.300000e-01    2.920000e+00
   SN1  X2vh  1 4.300000e-01    2.920000e+00
   SN1  X3vh  1 4.300000e-01    3.160000e+00
   SN1  X4vh  1 4.300000e-01    3.160000e+00
   SN1  C1vh  1 4.300000e-01    2.530000e+00
   SN1  C2vh  1 4.300000e-01    2.770000e+00
   SN1  C3vh  1 4.300000e-01    2.920000e+00
   SN1  C4vh  1 4.300000e-01    3.160000e+00
   SN1  C5vh  1 4.300000e-01    3.160000e+00
   SN1  C6vh  1 4.300000e-01    3.380000e+00
   SN1  N1ah  1 4.300000e-01    3.160000e+00
   SN1  N1dh  1 4.300000e-01    3.160000e+00
   SN1   X1h  1 4.300000e-01    2.770000e+00
   SN1   X2h  1 4.300000e-01    2.770000e+00
   SN1   X3h  1 4.300000e-01    2.920000e+00
   SN1   X4h  1 4.300000e-01    2.920000e+00
   SN1   C1h  1 4.300000e-01    2.320000e+00
   SN1   C2h  1 4.300000e-01    2.530000e+00
   SN1   C3h  1 4.300000e-01    2.770000e+00
   SN1   C4h  1 4.300000e-01    2.920000e+00
   SN1   C5h  1 4.300000e-01    2.920000e+00
   SN1   C6h  1 4.300000e-01    3.160000e+00
   SN1   N1r  1 4.300000e-01    3.160000e+00
   SN1  X1er  1 4.300000e-01    2.920000e+00
   SN1  X2er  1 4.300000e-01    2.920000e+00
   SN1  X3er  1 4.300000e-01    3.160000e+00
   SN1  X4er  1 4.300000e-01    3.160000e+00
   SN1  C1er  1 4.300000e-01    2.530000e+00
   SN1  C2er  1 4.300000e-01    2.770000e+00
   SN1  C3er  1 4.300000e-01    2.920000e+00
   SN1  C4er  1 4.300000e-01    3.160000e+00
   SN1  C5er  1 4.300000e-01    3.160000e+00
   SN1  C6er  1 4.300000e-01    3.380000e+00
   SN1  X1vr  1 4.300000e-01    2.920000e+00
   SN1  X2vr  1 4.300000e-01    2.920000e+00
   SN1  X3vr  1 4.300000e-01    3.160000e+00
   SN1  X4vr  1 4.300000e-01    3.160000e+00
   SN1  C1vr  1 4.300000e-01    2.530000e+00
   SN1  C2vr  1 4.300000e-01    2.770000e+00
   SN1  C3vr  1 4.300000e-01    2.920000e+00
   SN1  C4vr  1 4.300000e-01    3.160000e+00
   SN1  C5vr  1 4.300000e-01    3.160000e+00
   SN1  C6vr  1 4.300000e-01    3.380000e+00
   SN1  N1ar  1 4.300000e-01    3.160000e+00
   SN1  N1dr  1 4.300000e-01    3.160000e+00
   SN1   X1r  1 4.300000e-01    2.770000e+00
   SN1   X2r  1 4.300000e-01    2.770000e+00
   SN1   X3r  1 4.300000e-01    2.920000e+00
   SN1   X4r  1 4.300000e-01    2.920000e+00
   SN1   C1r  1 4.300000e-01    2.320000e+00
   SN1   C2r  1 4.300000e-01    2.530000e+00
   SN1   C3r  1 4.300000e-01    2.770000e+00
   SN1   C4r  1 4.300000e-01    2.920000e+00
   SN1   C5r  1 4.300000e-01    2.920000e+00
   SN1   C6r  1 4.300000e-01    3.160000e+00
   SN1   SN1  1 4.100000e-01    2.600000e+00
   SN1   SC6  1 4.100000e-01    2.600000e+00
   SN1   SC5  1 4.100000e-01    2.350000e+00
   SN1   SC4  1 4.100000e-01    2.350000e+00
   SN1   SC3  1 4.100000e-01    2.200000e+00
   SN1   SC2  1 4.100000e-01    2.040000e+00
   SN1   SC1  1 4.100000e-01    1.910000e+00
   SN1   SX4  1 4.100000e-01    2.350000e+00
   SN1   SX3  1 4.100000e-01    2.350000e+00
   SN1   SX2  1 4.100000e-01    2.200000e+00
   SN1   SX1  1 4.100000e-01    2.200000e+00
  SP6d   SN1  1 4.100000e-01    1.910000e+00
  SP5d   SN1  1 4.100000e-01    1.910000e+00
  SP4d   SN1  1 4.100000e-01    2.040000e+00
  SP3d   SN1  1 4.100000e-01    2.200000e+00
  SP2d   SN1  1 4.100000e-01    2.350000e+00
  SP1d   SN1  1 4.100000e-01    2.350000e+00
  SN6d   SN1  1 4.100000e-01    2.350000e+00
  SN5d   SN1  1 4.100000e-01    2.350000e+00
  SN4d   SN1  1 4.100000e-01    2.350000e+00
  SN3d   SN1  1 4.100000e-01    2.350000e+00
  SN2d   SN1  1 4.100000e-01    2.350000e+00
   SN1  SN1d  1 4.100000e-01    2.600000e+00
  SP6a   SN1  1 4.100000e-01    1.910000e+00
  SP5a   SN1  1 4.100000e-01    1.910000e+00
  SP4a   SN1  1 4.100000e-01    2.040000e+00
  SP3a   SN1  1 4.100000e-01    2.200000e+00
  SP2a   SN1  1 4.100000e-01    2.350000e+00
  SP1a   SN1  1 4.100000e-01    2.350000e+00
  SN6a   SN1  1 4.100000e-01    2.350000e+00
  SN5a   SN1  1 4.100000e-01    2.350000e+00
  SN4a   SN1  1 4.100000e-01    2.350000e+00
  SN3a   SN1  1 4.100000e-01    2.350000e+00
  SN2a   SN1  1 4.100000e-01    2.350000e+00
   SN1  SN1a  1 4.100000e-01    2.600000e+00
   SN1  SC6v  1 4.100000e-01    2.840000e+00
   SN1  SC5v  1 4.100000e-01    2.600000e+00
   SN1  SC4v  1 4.100000e-01    2.600000e+00
   SN1  SC3v  1 4.100000e-01    2.350000e+00
   SN1  SC2v  1 4.100000e-01    2.200000e+00
   SN1  SC1v  1 4.100000e-01    2.040000e+00
   SN1  SX4v  1 4.100000e-01    2.600000e+00
   SN1  SX3v  1 4.100000e-01    2.600000e+00
   SN1  SX2v  1 4.100000e-01    2.350000e+00
   SN1  SX1v  1 4.100000e-01    2.350000e+00
   SN1  SC6e  1 4.100000e-01    2.840000e+00
   SN1  SC5e  1 4.100000e-01    2.600000e+00
   SN1  SC4e  1 4.100000e-01    2.600000e+00
   SN1  SC3e  1 4.100000e-01    2.350000e+00
   SN1  SC2e  1 4.100000e-01    2.200000e+00
   SN1  SC1e  1 4.100000e-01    2.040000e+00
   SN1  SX4e  1 4.100000e-01    2.600000e+00
   SN1  SX3e  1 4.100000e-01    2.600000e+00
   SN1  SX2e  1 4.100000e-01    2.350000e+00
   SN1  SX1e  1 4.100000e-01    2.350000e+00
  SP6q   SN1  1 4.100000e-01    2.200000e+00
  SP5q   SN1  1 4.100000e-01    2.200000e+00
  SP4q   SN1  1 4.100000e-01    2.350000e+00
  SP3q   SN1  1 4.100000e-01    2.600000e+00
  SP2q   SN1  1 4.100000e-01    2.840000e+00
  SP1q   SN1  1 4.100000e-01    2.840000e+00
  SN6q   SN1  1 4.100000e-01    2.840000e+00
  SN5q   SN1  1 4.100000e-01    2.840000e+00
  SN4q   SN1  1 4.100000e-01    2.840000e+00
  SN3q   SN1  1 4.100000e-01    2.840000e+00
  SN2q   SN1  1 4.100000e-01    2.840000e+00
   SN1  SN1q  1 4.100000e-01    3.070000e+00
   SN1 SX1eq  1 4.100000e-01    2.840000e+00
   SN1 SX2eq  1 4.100000e-01    2.840000e+00
   SN1 SX3eq  1 4.100000e-01    3.070000e+00
   SN1 SX4eq  1 4.100000e-01    3.070000e+00
   SN1 SC1eq  1 4.100000e-01    2.350000e+00
   SN1 SC2eq  1 4.100000e-01    2.600000e+00
   SN1 SC3eq  1 4.100000e-01    2.840000e+00
   SN1 SC4eq  1 4.100000e-01    3.070000e+00
   SN1 SC5eq  1 4.100000e-01    3.070000e+00
   SN1 SC6eq  1 4.100000e-01    3.310000e+00
   SN1 SX1vq  1 4.100000e-01    2.840000e+00
   SN1 SX2vq  1 4.100000e-01    2.840000e+00
   SN1 SX3vq  1 4.100000e-01    3.070000e+00
   SN1 SX4vq  1 4.100000e-01    3.070000e+00
   SN1 SC1vq  1 4.100000e-01    2.350000e+00
   SN1 SC2vq  1 4.100000e-01    2.600000e+00
   SN1 SC3vq  1 4.100000e-01    2.840000e+00
   SN1 SC4vq  1 4.100000e-01    3.070000e+00
   SN1 SC5vq  1 4.100000e-01    3.070000e+00
   SN1 SC6vq  1 4.100000e-01    3.310000e+00
   SN1 SN1aq  1 4.100000e-01    3.070000e+00
 SN2aq   SN1  1 4.100000e-01    2.840000e+00
 SN3aq   SN1  1 4.100000e-01    2.840000e+00
 SN4aq   SN1  1 4.100000e-01    2.840000e+00
 SN5aq   SN1  1 4.100000e-01    2.840000e+00
 SN6aq   SN1  1 4.100000e-01    2.840000e+00
 SP1aq   SN1  1 4.100000e-01    2.840000e+00
 SP2aq   SN1  1 4.100000e-01    2.840000e+00
 SP3aq   SN1  1 4.100000e-01    2.600000e+00
 SP4aq   SN1  1 4.100000e-01    2.350000e+00
 SP5aq   SN1  1 4.100000e-01    2.200000e+00
 SP6aq   SN1  1 4.100000e-01    2.200000e+00
   SN1 SN1dq  1 4.100000e-01    3.070000e+00
 SN2dq   SN1  1 4.100000e-01    2.840000e+00
 SN3dq   SN1  1 4.100000e-01    2.840000e+00
 SN4dq   SN1  1 4.100000e-01    2.840000e+00
 SN5dq   SN1  1 4.100000e-01    2.840000e+00
 SN6dq   SN1  1 4.100000e-01    2.840000e+00
 SP1dq   SN1  1 4.100000e-01    2.840000e+00
 SP2dq   SN1  1 4.100000e-01    2.840000e+00
 SP3dq   SN1  1 4.100000e-01    2.600000e+00
 SP4dq   SN1  1 4.100000e-01    2.350000e+00
 SP5dq   SN1  1 4.100000e-01    2.200000e+00
 SP6dq   SN1  1 4.100000e-01    2.200000e+00
   SN1  SX1q  1 4.100000e-01    2.600000e+00
   SN1  SX2q  1 4.100000e-01    2.600000e+00
   SN1  SX3q  1 4.100000e-01    2.840000e+00
   SN1  SX4q  1 4.100000e-01    2.840000e+00
   SN1  SC1q  1 4.100000e-01    2.200000e+00
   SN1  SC2q  1 4.100000e-01    2.350000e+00
   SN1  SC3q  1 4.100000e-01    2.600000e+00
   SN1  SC4q  1 4.100000e-01    2.840000e+00
   SN1  SC5q  1 4.100000e-01    2.840000e+00
   SN1  SC6q  1 4.100000e-01    3.070000e+00
  SP6h   SN1  1 4.100000e-01    1.910000e+00
  SP5h   SN1  1 4.100000e-01    1.910000e+00
  SP4h   SN1  1 4.100000e-01    2.040000e+00
  SP3h   SN1  1 4.100000e-01    2.200000e+00
  SP2h   SN1  1 4.100000e-01    2.350000e+00
  SP1h   SN1  1 4.100000e-01    2.350000e+00
  SN6h   SN1  1 4.100000e-01    2.350000e+00
  SN5h   SN1  1 4.100000e-01    2.350000e+00
  SN4h   SN1  1 4.100000e-01    2.350000e+00
  SN3h   SN1  1 4.100000e-01    2.350000e+00
  SN2h   SN1  1 4.100000e-01    2.350000e+00
   SN1  SN1h  1 4.100000e-01    2.600000e+00
   SN1 SX1eh  1 4.100000e-01    2.350000e+00
   SN1 SX2eh  1 4.100000e-01    2.350000e+00
   SN1 SX3eh  1 4.100000e-01    2.600000e+00
   SN1 SX4eh  1 4.100000e-01    2.600000e+00
   SN1 SC1eh  1 4.100000e-01    2.040000e+00
   SN1 SC2eh  1 4.100000e-01    2.200000e+00
   SN1 SC3eh  1 4.100000e-01    2.350000e+00
   SN1 SC4eh  1 4.100000e-01    2.600000e+00
   SN1 SC5eh  1 4.100000e-01    2.600000e+00
   SN1 SC6eh  1 4.100000e-01    2.840000e+00
   SN1 SX1vh  1 4.100000e-01    2.350000e+00
   SN1 SX2vh  1 4.100000e-01    2.350000e+00
   SN1 SX3vh  1 4.100000e-01    2.600000e+00
   SN1 SX4vh  1 4.100000e-01    2.600000e+00
   SN1 SC1vh  1 4.100000e-01    2.040000e+00
   SN1 SC2vh  1 4.100000e-01    2.200000e+00
   SN1 SC3vh  1 4.100000e-01    2.350000e+00
   SN1 SC4vh  1 4.100000e-01    2.600000e+00
   SN1 SC5vh  1 4.100000e-01    2.600000e+00
   SN1 SC6vh  1 4.100000e-01    2.840000e+00
   SN1 SN1ah  1 4.100000e-01    2.600000e+00
 SN2ah   SN1  1 4.100000e-01    2.350000e+00
 SN3ah   SN1  1 4.100000e-01    2.350000e+00
 SN4ah   SN1  1 4.100000e-01    2.350000e+00
 SN5ah   SN1  1 4.100000e-01    2.350000e+00
 SN6ah   SN1  1 4.100000e-01    2.350000e+00
 SP1ah   SN1  1 4.100000e-01    2.350000e+00
 SP2ah   SN1  1 4.100000e-01    2.350000e+00
 SP3ah   SN1  1 4.100000e-01    2.200000e+00
 SP4ah   SN1  1 4.100000e-01    2.040000e+00
 SP5ah   SN1  1 4.100000e-01    1.910000e+00
 SP6ah   SN1  1 4.100000e-01    1.910000e+00
   SN1 SN1dh  1 4.100000e-01    2.600000e+00
 SN2dh   SN1  1 4.100000e-01    2.350000e+00
 SN3dh   SN1  1 4.100000e-01    2.350000e+00
 SN4dh   SN1  1 4.100000e-01    2.350000e+00
 SN5dh   SN1  1 4.100000e-01    2.350000e+00
 SN6dh   SN1  1 4.100000e-01    2.350000e+00
 SP1dh   SN1  1 4.100000e-01    2.350000e+00
 SP2dh   SN1  1 4.100000e-01    2.350000e+00
 SP3dh   SN1  1 4.100000e-01    2.200000e+00
 SP4dh   SN1  1 4.100000e-01    2.040000e+00
 SP5dh   SN1  1 4.100000e-01    1.910000e+00
 SP6dh   SN1  1 4.100000e-01    1.910000e+00
   SN1  SX1h  1 4.100000e-01    2.200000e+00
   SN1  SX2h  1 4.100000e-01    2.200000e+00
   SN1  SX3h  1 4.100000e-01    2.350000e+00
   SN1  SX4h  1 4.100000e-01    2.350000e+00
   SN1  SC1h  1 4.100000e-01    1.910000e+00
   SN1  SC2h  1 4.100000e-01    2.040000e+00
   SN1  SC3h  1 4.100000e-01    2.200000e+00
   SN1  SC4h  1 4.100000e-01    2.350000e+00
   SN1  SC5h  1 4.100000e-01    2.350000e+00
   SN1  SC6h  1 4.100000e-01    2.600000e+00
  SP6r   SN1  1 4.100000e-01    1.910000e+00
  SP5r   SN1  1 4.100000e-01    1.910000e+00
  SP4r   SN1  1 4.100000e-01    2.040000e+00
  SP3r   SN1  1 4.100000e-01    2.200000e+00
  SP2r   SN1  1 4.100000e-01    2.350000e+00
  SP1r   SN1  1 4.100000e-01    2.350000e+00
  SN6r   SN1  1 4.100000e-01    2.350000e+00
  SN5r   SN1  1 4.100000e-01    2.350000e+00
  SN4r   SN1  1 4.100000e-01    2.350000e+00
  SN3r   SN1  1 4.100000e-01    2.350000e+00
  SN2r   SN1  1 4.100000e-01    2.350000e+00
   SN1  SN1r  1 4.100000e-01    2.600000e+00
   SN1 SX1er  1 4.100000e-01    2.350000e+00
   SN1 SX2er  1 4.100000e-01    2.350000e+00
   SN1 SX3er  1 4.100000e-01    2.600000e+00
   SN1 SX4er  1 4.100000e-01    2.600000e+00
   SN1 SC1er  1 4.100000e-01    2.040000e+00
   SN1 SC2er  1 4.100000e-01    2.200000e+00
   SN1 SC3er  1 4.100000e-01    2.350000e+00
   SN1 SC4er  1 4.100000e-01    2.600000e+00
   SN1 SC5er  1 4.100000e-01    2.600000e+00
   SN1 SC6er  1 4.100000e-01    2.840000e+00
   SN1 SX1vr  1 4.100000e-01    2.350000e+00
   SN1 SX2vr  1 4.100000e-01    2.350000e+00
   SN1 SX3vr  1 4.100000e-01    2.600000e+00
   SN1 SX4vr  1 4.100000e-01    2.600000e+00
   SN1 SC1vr  1 4.100000e-01    2.040000e+00
   SN1 SC2vr  1 4.100000e-01    2.200000e+00
   SN1 SC3vr  1 4.100000e-01    2.350000e+00
   SN1 SC4vr  1 4.100000e-01    2.600000e+00
   SN1 SC5vr  1 4.100000e-01    2.600000e+00
   SN1 SC6vr  1 4.100000e-01    2.840000e+00
   SN1 SN1ar  1 4.100000e-01    2.600000e+00
 SN2ar   SN1  1 4.100000e-01    2.350000e+00
 SN3ar   SN1  1 4.100000e-01    2.350000e+00
 SN4ar   SN1  1 4.100000e-01    2.350000e+00
 SN5ar   SN1  1 4.100000e-01    2.350000e+00
 SN6ar   SN1  1 4.100000e-01    2.350000e+00
 SP1ar   SN1  1 4.100000e-01    2.350000e+00
 SP2ar   SN1  1 4.100000e-01    2.350000e+00
 SP3ar   SN1  1 4.100000e-01    2.200000e+00
 SP4ar   SN1  1 4.100000e-01    2.040000e+00
 SP5ar   SN1  1 4.100000e-01    1.910000e+00
 SP6ar   SN1  1 4.100000e-01    1.910000e+00
   SN1 SN1dr  1 4.100000e-01    2.600000e+00
 SN2dr   SN1  1 4.100000e-01    2.350000e+00
 SN3dr   SN1  1 4.100000e-01    2.350000e+00
 SN4dr   SN1  1 4.100000e-01    2.350000e+00
 SN5dr   SN1  1 4.100000e-01    2.350000e+00
 SN6dr   SN1  1 4.100000e-01    2.350000e+00
 SP1dr   SN1  1 4.100000e-01    2.350000e+00
 SP2dr   SN1  1 4.100000e-01    2.350000e+00
 SP3dr   SN1  1 4.100000e-01    2.200000e+00
 SP4dr   SN1  1 4.100000e-01    2.040000e+00
 SP5dr   SN1  1 4.100000e-01    1.910000e+00
 SP6dr   SN1  1 4.100000e-01    1.910000e+00
   SN1  SX1r  1 4.100000e-01    2.200000e+00
   SN1  SX2r  1 4.100000e-01    2.200000e+00
   SN1  SX3r  1 4.100000e-01    2.350000e+00
   SN1  SX4r  1 4.100000e-01    2.350000e+00
   SN1  SC1r  1 4.100000e-01    1.910000e+00
   SN1  SC2r  1 4.100000e-01    2.040000e+00
   SN1  SC3r  1 4.100000e-01    2.200000e+00
   SN1  SC4r  1 4.100000e-01    2.350000e+00
   SN1  SC5r  1 4.100000e-01    2.350000e+00
   SN1  SC6r  1 4.100000e-01    2.600000e+00
   SN1   TN1  1 3.650000e-01    2.110000e+00
   SN1   TC6  1 3.650000e-01    2.110000e+00
   SN1   TC5  1 3.650000e-01    1.910000e+00
   SN1   TC4  1 3.650000e-01    1.910000e+00
   SN1   TC3  1 3.650000e-01    1.750000e+00
   SN1   TC2  1 3.660000e-01    1.600000e+00
   SN1   TC1  1 3.780000e-01    1.450000e+00
   SN1   TX4  1 3.650000e-01    1.910000e+00
   SN1   TX3  1 3.650000e-01    1.910000e+00
   SN1   TX2  1 3.650000e-01    1.750000e+00
   SN1   TX1  1 3.650000e-01    1.750000e+00
   SN1  TN1d  1 3.650000e-01    2.110000e+00
   SN1  TN1a  1 3.650000e-01    2.110000e+00
   SN1  TC6v  1 3.650000e-01    2.340000e+00
   SN1  TC5v  1 3.650000e-01    2.110000e+00
   SN1  TC4v  1 3.650000e-01    2.110000e+00
   SN1  TC3v  1 3.650000e-01    1.910000e+00
   SN1  TC2v  1 3.650000e-01    1.750000e+00
   SN1  TC1v  1 3.660000e-01    1.600000e+00
   SN1  TX4v  1 3.650000e-01    2.110000e+00
   SN1  TX3v  1 3.650000e-01    2.110000e+00
   SN1  TX2v  1 3.650000e-01    1.910000e+00
   SN1  TX1v  1 3.650000e-01    1.910000e+00
   SN1  TC6e  1 3.650000e-01    2.340000e+00
   SN1  TC5e  1 3.650000e-01    2.110000e+00
   SN1  TC4e  1 3.650000e-01    2.110000e+00
   SN1  TC3e  1 3.650000e-01    1.910000e+00
   SN1  TC2e  1 3.650000e-01    1.750000e+00
   SN1  TC1e  1 3.660000e-01    1.600000e+00
   SN1  TX4e  1 3.650000e-01    2.110000e+00
   SN1  TX3e  1 3.650000e-01    2.110000e+00
   SN1  TX2e  1 3.650000e-01    1.910000e+00
   SN1  TX1e  1 3.650000e-01    1.910000e+00
   SN1  TN1q  1 3.650000e-01    2.570000e+00
   SN1 TX1eq  1 3.650000e-01    2.340000e+00
   SN1 TX2eq  1 3.650000e-01    2.340000e+00
   SN1 TX3eq  1 3.650000e-01    2.570000e+00
   SN1 TX4eq  1 3.650000e-01    2.570000e+00
   SN1 TC1eq  1 3.650000e-01    1.910000e+00
   SN1 TC2eq  1 3.650000e-01    2.110000e+00
   SN1 TC3eq  1 3.650000e-01    2.340000e+00
   SN1 TC4eq  1 3.650000e-01    2.570000e+00
   SN1 TC5eq  1 3.650000e-01    2.570000e+00
   SN1 TC6eq  1 3.650000e-01    2.830000e+00
   SN1 TX1vq  1 3.650000e-01    2.340000e+00
   SN1 TX2vq  1 3.650000e-01    2.340000e+00
   SN1 TX3vq  1 3.650000e-01    2.570000e+00
   SN1 TX4vq  1 3.650000e-01    2.570000e+00
   SN1 TC1vq  1 3.650000e-01    1.910000e+00
   SN1 TC2vq  1 3.650000e-01    2.110000e+00
   SN1 TC3vq  1 3.650000e-01    2.340000e+00
   SN1 TC4vq  1 3.650000e-01    2.570000e+00
   SN1 TC5vq  1 3.650000e-01    2.570000e+00
   SN1 TC6vq  1 3.650000e-01    2.830000e+00
   SN1 TN1aq  1 3.650000e-01    2.570000e+00
   SN1 TN1dq  1 3.650000e-01    2.570000e+00
   SN1  TX1q  1 3.650000e-01    2.110000e+00
   SN1  TX2q  1 3.650000e-01    2.110000e+00
   SN1  TX3q  1 3.650000e-01    2.340000e+00
   SN1  TX4q  1 3.650000e-01    2.340000e+00
   SN1  TC1q  1 3.650000e-01    1.750000e+00
   SN1  TC2q  1 3.650000e-01    1.910000e+00
   SN1  TC3q  1 3.650000e-01    2.110000e+00
   SN1  TC4q  1 3.650000e-01    2.340000e+00
   SN1  TC5q  1 3.650000e-01    2.340000e+00
   SN1  TC6q  1 3.650000e-01    2.570000e+00
   SN1  TN1h  1 3.650000e-01    2.110000e+00
   SN1 TX1eh  1 3.650000e-01    1.910000e+00
   SN1 TX2eh  1 3.650000e-01    1.910000e+00
   SN1 TX3eh  1 3.650000e-01    2.110000e+00
   SN1 TX4eh  1 3.650000e-01    2.110000e+00
   SN1 TC1eh  1 3.660000e-01    1.600000e+00
   SN1 TC2eh  1 3.650000e-01    1.750000e+00
   SN1 TC3eh  1 3.650000e-01    1.910000e+00
   SN1 TC4eh  1 3.650000e-01    2.110000e+00
   SN1 TC5eh  1 3.650000e-01    2.110000e+00
   SN1 TC6eh  1 3.650000e-01    2.340000e+00
   SN1 TX1vh  1 3.650000e-01    1.910000e+00
   SN1 TX2vh  1 3.650000e-01    1.910000e+00
   SN1 TX3vh  1 3.650000e-01    2.110000e+00
   SN1 TX4vh  1 3.650000e-01    2.110000e+00
   SN1 TC1vh  1 3.660000e-01    1.600000e+00
   SN1 TC2vh  1 3.650000e-01    1.750000e+00
   SN1 TC3vh  1 3.650000e-01    1.910000e+00
   SN1 TC4vh  1 3.650000e-01    2.110000e+00
   SN1 TC5vh  1 3.650000e-01    2.110000e+00
   SN1 TC6vh  1 3.650000e-01    2.340000e+00
   SN1 TN1ah  1 3.650000e-01    2.110000e+00
   SN1 TN1dh  1 3.650000e-01    2.110000e+00
   SN1  TX1h  1 3.650000e-01    1.750000e+00
   SN1  TX2h  1 3.650000e-01    1.750000e+00
   SN1  TX3h  1 3.650000e-01    1.910000e+00
   SN1  TX4h  1 3.650000e-01    1.910000e+00
   SN1  TC1h  1 3.780000e-01    1.450000e+00
   SN1  TC2h  1 3.660000e-01    1.600000e+00
   SN1  TC3h  1 3.650000e-01    1.750000e+00
   SN1  TC4h  1 3.650000e-01    1.910000e+00
   SN1  TC5h  1 3.650000e-01    1.910000e+00
   SN1  TC6h  1 3.650000e-01    2.110000e+00
   SN1  TN1r  1 3.650000e-01    2.110000e+00
   SN1 TX1er  1 3.650000e-01    1.910000e+00
   SN1 TX2er  1 3.650000e-01    1.910000e+00
   SN1 TX3er  1 3.650000e-01    2.110000e+00
   SN1 TX4er  1 3.650000e-01    2.110000e+00
   SN1 TC1er  1 3.660000e-01    1.600000e+00
   SN1 TC2er  1 3.650000e-01    1.750000e+00
   SN1 TC3er  1 3.650000e-01    1.910000e+00
   SN1 TC4er  1 3.650000e-01    2.110000e+00
   SN1 TC5er  1 3.650000e-01    2.110000e+00
   SN1 TC6er  1 3.650000e-01    2.340000e+00
   SN1 TX1vr  1 3.650000e-01    1.910000e+00
   SN1 TX2vr  1 3.650000e-01    1.910000e+00
   SN1 TX3vr  1 3.650000e-01    2.110000e+00
   SN1 TX4vr  1 3.650000e-01    2.110000e+00
   SN1 TC1vr  1 3.660000e-01    1.600000e+00
   SN1 TC2vr  1 3.650000e-01    1.750000e+00
   SN1 TC3vr  1 3.650000e-01    1.910000e+00
   SN1 TC4vr  1 3.650000e-01    2.110000e+00
   SN1 TC5vr  1 3.650000e-01    2.110000e+00
   SN1 TC6vr  1 3.650000e-01    2.340000e+00
   SN1 TN1ar  1 3.650000e-01    2.110000e+00
   SN1 TN1dr  1 3.650000e-01    2.110000e+00
   SN1  TX1r  1 3.650000e-01    1.750000e+00
   SN1  TX2r  1 3.650000e-01    1.750000e+00
   SN1  TX3r  1 3.650000e-01    1.910000e+00
   SN1  TX4r  1 3.650000e-01    1.910000e+00
   SN1  TC1r  1 3.780000e-01    1.450000e+00
   SN1  TC2r  1 3.660000e-01    1.600000e+00
   SN1  TC3r  1 3.650000e-01    1.750000e+00
   SN1  TC4r  1 3.650000e-01    1.910000e+00
   SN1  TC5r  1 3.650000e-01    1.910000e+00
   SN1  TC6r  1 3.650000e-01    2.110000e+00
  TP6d   SN1  1 3.780000e-01    1.450000e+00
  TP5d   SN1  1 3.780000e-01    1.450000e+00
  TP4d   SN1  1 3.660000e-01    1.600000e+00
  TP3d   SN1  1 3.650000e-01    1.750000e+00
  TP2d   SN1  1 3.650000e-01    1.910000e+00
  TP1d   SN1  1 3.650000e-01    1.910000e+00
  TN6d   SN1  1 3.650000e-01    1.910000e+00
  TN5d   SN1  1 3.650000e-01    1.910000e+00
  TN4d   SN1  1 3.650000e-01    1.910000e+00
  TN3d   SN1  1 3.650000e-01    1.910000e+00
  TN2d   SN1  1 3.650000e-01    1.910000e+00
  TP6a   SN1  1 3.780000e-01    1.450000e+00
  TP5a   SN1  1 3.780000e-01    1.450000e+00
  TP4a   SN1  1 3.660000e-01    1.600000e+00
  TP3a   SN1  1 3.650000e-01    1.750000e+00
  TP2a   SN1  1 3.650000e-01    1.910000e+00
  TP1a   SN1  1 3.650000e-01    1.910000e+00
  TN6a   SN1  1 3.650000e-01    1.910000e+00
  TN5a   SN1  1 3.650000e-01    1.910000e+00
  TN4a   SN1  1 3.650000e-01    1.910000e+00
  TN3a   SN1  1 3.650000e-01    1.910000e+00
  TN2a   SN1  1 3.650000e-01    1.910000e+00
  TP6q   SN1  1 3.650000e-01    1.750000e+00
  TP5q   SN1  1 3.650000e-01    1.750000e+00
  TP4q   SN1  1 3.650000e-01    1.910000e+00
  TP3q   SN1  1 3.650000e-01    2.110000e+00
  TP2q   SN1  1 3.650000e-01    2.340000e+00
  TP1q   SN1  1 3.650000e-01    2.340000e+00
  TN6q   SN1  1 3.650000e-01    2.340000e+00
  TN5q   SN1  1 3.650000e-01    2.340000e+00
  TN4q   SN1  1 3.650000e-01    2.340000e+00
  TN3q   SN1  1 3.650000e-01    2.340000e+00
  TN2q   SN1  1 3.650000e-01    2.340000e+00
 TN2aq   SN1  1 3.650000e-01    2.340000e+00
 TN3aq   SN1  1 3.650000e-01    2.340000e+00
 TN4aq   SN1  1 3.650000e-01    2.340000e+00
 TN5aq   SN1  1 3.650000e-01    2.340000e+00
 TN6aq   SN1  1 3.650000e-01    2.340000e+00
 TP1aq   SN1  1 3.650000e-01    2.340000e+00
 TP2aq   SN1  1 3.650000e-01    2.340000e+00
 TP3aq   SN1  1 3.650000e-01    2.110000e+00
 TP4aq   SN1  1 3.650000e-01    1.910000e+00
 TP5aq   SN1  1 3.650000e-01    1.750000e+00
 TP6aq   SN1  1 3.650000e-01    1.750000e+00
 TN2dq   SN1  1 3.650000e-01    2.340000e+00
 TN3dq   SN1  1 3.650000e-01    2.340000e+00
 TN4dq   SN1  1 3.650000e-01    2.340000e+00
 TN5dq   SN1  1 3.650000e-01    2.340000e+00
 TN6dq   SN1  1 3.650000e-01    2.340000e+00
 TP1dq   SN1  1 3.650000e-01    2.340000e+00
 TP2dq   SN1  1 3.650000e-01    2.340000e+00
 TP3dq   SN1  1 3.650000e-01    2.110000e+00
 TP4dq   SN1  1 3.650000e-01    1.910000e+00
 TP5dq   SN1  1 3.650000e-01    1.750000e+00
 TP6dq   SN1  1 3.650000e-01    1.750000e+00
  TP6h   SN1  1 3.780000e-01    1.450000e+00
  TP5h   SN1  1 3.780000e-01    1.450000e+00
  TP4h   SN1  1 3.660000e-01    1.600000e+00
  TP3h   SN1  1 3.650000e-01    1.750000e+00
  TP2h   SN1  1 3.650000e-01    1.910000e+00
  TP1h   SN1  1 3.650000e-01    1.910000e+00
  TN6h   SN1  1 3.650000e-01    1.910000e+00
  TN5h   SN1  1 3.650000e-01    1.910000e+00
  TN4h   SN1  1 3.650000e-01    1.910000e+00
  TN3h   SN1  1 3.650000e-01    1.910000e+00
  TN2h   SN1  1 3.650000e-01    1.910000e+00
 TN2ah   SN1  1 3.650000e-01    1.910000e+00
 TN3ah   SN1  1 3.650000e-01    1.910000e+00
 TN4ah   SN1  1 3.650000e-01    1.910000e+00
 TN5ah   SN1  1 3.650000e-01    1.910000e+00
 TN6ah   SN1  1 3.650000e-01    1.910000e+00
 TP1ah   SN1  1 3.650000e-01    1.910000e+00
 TP2ah   SN1  1 3.650000e-01    1.910000e+00
 TP3ah   SN1  1 3.650000e-01    1.750000e+00
 TP4ah   SN1  1 3.660000e-01    1.600000e+00
 TP5ah   SN1  1 3.780000e-01    1.450000e+00
 TP6ah   SN1  1 3.780000e-01    1.450000e+00
 TN2dh   SN1  1 3.650000e-01    1.910000e+00
 TN3dh   SN1  1 3.650000e-01    1.910000e+00
 TN4dh   SN1  1 3.650000e-01    1.910000e+00
 TN5dh   SN1  1 3.650000e-01    1.910000e+00
 TN6dh   SN1  1 3.650000e-01    1.910000e+00
 TP1dh   SN1  1 3.650000e-01    1.910000e+00
 TP2dh   SN1  1 3.650000e-01    1.910000e+00
 TP3dh   SN1  1 3.650000e-01    1.750000e+00
 TP4dh   SN1  1 3.660000e-01    1.600000e+00
 TP5dh   SN1  1 3.780000e-01    1.450000e+00
 TP6dh   SN1  1 3.780000e-01    1.450000e+00
  TP6r   SN1  1 3.780000e-01    1.450000e+00
  TP5r   SN1  1 3.780000e-01    1.450000e+00
  TP4r   SN1  1 3.660000e-01    1.600000e+00
  TP3r   SN1  1 3.650000e-01    1.750000e+00
  TP2r   SN1  1 3.650000e-01    1.910000e+00
  TP1r   SN1  1 3.650000e-01    1.910000e+00
  TN6r   SN1  1 3.650000e-01    1.910000e+00
  TN5r   SN1  1 3.650000e-01    1.910000e+00
  TN4r   SN1  1 3.650000e-01    1.910000e+00
  TN3r   SN1  1 3.650000e-01    1.910000e+00
  TN2r   SN1  1 3.650000e-01    1.910000e+00
 TN2ar   SN1  1 3.650000e-01    1.910000e+00
 TN3ar   SN1  1 3.650000e-01    1.910000e+00
 TN4ar   SN1  1 3.650000e-01    1.910000e+00
 TN5ar   SN1  1 3.650000e-01    1.910000e+00
 TN6ar   SN1  1 3.650000e-01    1.910000e+00
 TP1ar   SN1  1 3.650000e-01    1.910000e+00
 TP2ar   SN1  1 3.650000e-01    1.910000e+00
 TP3ar   SN1  1 3.650000e-01    1.750000e+00
 TP4ar   SN1  1 3.660000e-01    1.600000e+00
 TP5ar   SN1  1 3.780000e-01    1.450000e+00
 TP6ar   SN1  1 3.780000e-01    1.450000e+00
 TN2dr   SN1  1 3.650000e-01    1.910000e+00
 TN3dr   SN1  1 3.650000e-01    1.910000e+00
 TN4dr   SN1  1 3.650000e-01    1.910000e+00
 TN5dr   SN1  1 3.650000e-01    1.910000e+00
 TN6dr   SN1  1 3.650000e-01    1.910000e+00
 TP1dr   SN1  1 3.650000e-01    1.910000e+00
 TP2dr   SN1  1 3.650000e-01    1.910000e+00
 TP3dr   SN1  1 3.650000e-01    1.750000e+00
 TP4dr   SN1  1 3.660000e-01    1.600000e+00
 TP5dr   SN1  1 3.780000e-01    1.450000e+00
 TP6dr   SN1  1 3.780000e-01    1.450000e+00
   P6d   TN1  1 3.950000e-01    1.670000e+00
   P5d   TN1  1 3.950000e-01    1.670000e+00
   P4d   TN1  1 3.950000e-01    1.850000e+00
   P3d   TN1  1 3.950000e-01    2.110000e+00
   P2d   TN1  1 3.950000e-01    2.310000e+00
   P1d   TN1  1 3.950000e-01    2.310000e+00
   N6d   TN1  1 3.950000e-01    2.310000e+00
   N5d   TN1  1 3.950000e-01    2.310000e+00
   N4d   TN1  1 3.950000e-01    2.310000e+00
   N3d   TN1  1 3.950000e-01    2.310000e+00
   N2d   TN1  1 3.950000e-01    2.310000e+00
   P6a   TN1  1 3.950000e-01    1.670000e+00
   P5a   TN1  1 3.950000e-01    1.670000e+00
   P4a   TN1  1 3.950000e-01    1.850000e+00
   P3a   TN1  1 3.950000e-01    2.110000e+00
   P2a   TN1  1 3.950000e-01    2.310000e+00
   P1a   TN1  1 3.950000e-01    2.310000e+00
   N6a   TN1  1 3.950000e-01    2.310000e+00
   N5a   TN1  1 3.950000e-01    2.310000e+00
   N4a   TN1  1 3.950000e-01    2.310000e+00
   N3a   TN1  1 3.950000e-01    2.310000e+00
   N2a   TN1  1 3.950000e-01    2.310000e+00
   P6q   TN1  1 3.950000e-01    2.110000e+00
   P5q   TN1  1 3.950000e-01    2.110000e+00
   P4q   TN1  1 3.950000e-01    2.310000e+00
   P3q   TN1  1 3.950000e-01    2.500000e+00
   P2q   TN1  1 3.950000e-01    2.700000e+00
   P1q   TN1  1 3.950000e-01    2.700000e+00
   N6q   TN1  1 3.950000e-01    2.700000e+00
   N5q   TN1  1 3.950000e-01    2.700000e+00
   N4q   TN1  1 3.950000e-01    2.700000e+00
   N3q   TN1  1 3.950000e-01    2.700000e+00
   N2q   TN1  1 3.950000e-01    2.700000e+00
  N2aq   TN1  1 3.950000e-01    2.700000e+00
  N3aq   TN1  1 3.950000e-01    2.700000e+00
  N4aq   TN1  1 3.950000e-01    2.700000e+00
  N5aq   TN1  1 3.950000e-01    2.700000e+00
  N6aq   TN1  1 3.950000e-01    2.700000e+00
  P1aq   TN1  1 3.950000e-01    2.700000e+00
  P2aq   TN1  1 3.950000e-01    2.700000e+00
  P3aq   TN1  1 3.950000e-01    2.500000e+00
  P4aq   TN1  1 3.950000e-01    2.310000e+00
  P5aq   TN1  1 3.950000e-01    2.110000e+00
  P6aq   TN1  1 3.950000e-01    2.110000e+00
  N2dq   TN1  1 3.950000e-01    2.700000e+00
  N3dq   TN1  1 3.950000e-01    2.700000e+00
  N4dq   TN1  1 3.950000e-01    2.700000e+00
  N5dq   TN1  1 3.950000e-01    2.700000e+00
  N6dq   TN1  1 3.950000e-01    2.700000e+00
  P1dq   TN1  1 3.950000e-01    2.700000e+00
  P2dq   TN1  1 3.950000e-01    2.700000e+00
  P3dq   TN1  1 3.950000e-01    2.500000e+00
  P4dq   TN1  1 3.950000e-01    2.310000e+00
  P5dq   TN1  1 3.950000e-01    2.110000e+00
  P6dq   TN1  1 3.950000e-01    2.110000e+00
   P6h   TN1  1 3.950000e-01    1.670000e+00
   P5h   TN1  1 3.950000e-01    1.670000e+00
   P4h   TN1  1 3.950000e-01    1.850000e+00
   P3h   TN1  1 3.950000e-01    2.110000e+00
   P2h   TN1  1 3.950000e-01    2.310000e+00
   P1h   TN1  1 3.950000e-01    2.310000e+00
   N6h   TN1  1 3.950000e-01    2.310000e+00
   N5h   TN1  1 3.950000e-01    2.310000e+00
   N4h   TN1  1 3.950000e-01    2.310000e+00
   N3h   TN1  1 3.950000e-01    2.310000e+00
   N2h   TN1  1 3.950000e-01    2.310000e+00
  N2ah   TN1  1 3.950000e-01    2.310000e+00
  N3ah   TN1  1 3.950000e-01    2.310000e+00
  N4ah   TN1  1 3.950000e-01    2.310000e+00
  N5ah   TN1  1 3.950000e-01    2.310000e+00
  N6ah   TN1  1 3.950000e-01    2.310000e+00
  P1ah   TN1  1 3.950000e-01    2.310000e+00
  P2ah   TN1  1 3.950000e-01    2.310000e+00
  P3ah   TN1  1 3.950000e-01    2.110000e+00
  P4ah   TN1  1 3.950000e-01    1.850000e+00
  P5ah   TN1  1 3.950000e-01    1.670000e+00
  P6ah   TN1  1 3.950000e-01    1.670000e+00
  N2dh   TN1  1 3.950000e-01    2.310000e+00
  N3dh   TN1  1 3.950000e-01    2.310000e+00
  N4dh   TN1  1 3.950000e-01    2.310000e+00
  N5dh   TN1  1 3.950000e-01    2.310000e+00
  N6dh   TN1  1 3.950000e-01    2.310000e+00
  P1dh   TN1  1 3.950000e-01    2.310000e+00
  P2dh   TN1  1 3.950000e-01    2.310000e+00
  P3dh   TN1  1 3.950000e-01    2.110000e+00
  P4dh   TN1  1 3.950000e-01    1.850000e+00
  P5dh   TN1  1 3.950000e-01    1.670000e+00
  P6dh   TN1  1 3.950000e-01    1.670000e+00
   P6r   TN1  1 3.950000e-01    1.670000e+00
   P5r   TN1  1 3.950000e-01    1.670000e+00
   P4r   TN1  1 3.950000e-01    1.850000e+00
   P3r   TN1  1 3.950000e-01    2.110000e+00
   P2r   TN1  1 3.950000e-01    2.310000e+00
   P1r   TN1  1 3.950000e-01    2.310000e+00
   N6r   TN1  1 3.950000e-01    2.310000e+00
   N5r   TN1  1 3.950000e-01    2.310000e+00
   N4r   TN1  1 3.950000e-01    2.310000e+00
   N3r   TN1  1 3.950000e-01    2.310000e+00
   N2r   TN1  1 3.950000e-01    2.310000e+00
  N2ar   TN1  1 3.950000e-01    2.310000e+00
  N3ar   TN1  1 3.950000e-01    2.310000e+00
  N4ar   TN1  1 3.950000e-01    2.310000e+00
  N5ar   TN1  1 3.950000e-01    2.310000e+00
  N6ar   TN1  1 3.950000e-01    2.310000e+00
  P1ar   TN1  1 3.950000e-01    2.310000e+00
  P2ar   TN1  1 3.950000e-01    2.310000e+00
  P3ar   TN1  1 3.950000e-01    2.110000e+00
  P4ar   TN1  1 3.950000e-01    1.850000e+00
  P5ar   TN1  1 3.950000e-01    1.670000e+00
  P6ar   TN1  1 3.950000e-01    1.670000e+00
  N2dr   TN1  1 3.950000e-01    2.310000e+00
  N3dr   TN1  1 3.950000e-01    2.310000e+00
  N4dr   TN1  1 3.950000e-01    2.310000e+00
  N5dr   TN1  1 3.950000e-01    2.310000e+00
  N6dr   TN1  1 3.950000e-01    2.310000e+00
  P1dr   TN1  1 3.950000e-01    2.310000e+00
  P2dr   TN1  1 3.950000e-01    2.310000e+00
  P3dr   TN1  1 3.950000e-01    2.110000e+00
  P4dr   TN1  1 3.950000e-01    1.850000e+00
  P5dr   TN1  1 3.950000e-01    1.670000e+00
  P6dr   TN1  1 3.950000e-01    1.670000e+00
   TN1    C6  1 3.950000e-01    2.500000e+00
   TN1    C5  1 3.950000e-01    2.310000e+00
   TN1    C4  1 3.950000e-01    2.310000e+00
   TN1    C3  1 3.950000e-01    2.110000e+00
   TN1    C2  1 3.950000e-01    1.850000e+00
   TN1    C1  1 3.950000e-01    1.670000e+00
   TN1    X4  1 3.950000e-01    2.310000e+00
   TN1    X3  1 3.950000e-01    2.310000e+00
   TN1    X2  1 3.950000e-01    2.110000e+00
   TN1    X1  1 3.950000e-01    2.110000e+00
   TN1   N1d  1 3.950000e-01    2.500000e+00
   TN1   N1a  1 3.950000e-01    2.500000e+00
   TN1   C6v  1 3.950000e-01    2.700000e+00
   TN1   C5v  1 3.950000e-01    2.500000e+00
   TN1   C4v  1 3.950000e-01    2.500000e+00
   TN1   C3v  1 3.950000e-01    2.310000e+00
   TN1   C2v  1 3.950000e-01    2.110000e+00
   TN1   C1v  1 3.950000e-01    1.850000e+00
   TN1   X4v  1 3.950000e-01    2.500000e+00
   TN1   X3v  1 3.950000e-01    2.500000e+00
   TN1   X2v  1 3.950000e-01    2.310000e+00
   TN1   X1v  1 3.950000e-01    2.310000e+00
   TN1   C6e  1 3.950000e-01    2.700000e+00
   TN1   C5e  1 3.950000e-01    2.500000e+00
   TN1   C4e  1 3.950000e-01    2.500000e+00
   TN1   C3e  1 3.950000e-01    2.310000e+00
   TN1   C2e  1 3.950000e-01    2.110000e+00
   TN1   C1e  1 3.950000e-01    1.850000e+00
   TN1   X4e  1 3.950000e-01    2.500000e+00
   TN1   X3e  1 3.950000e-01    2.500000e+00
   TN1   X2e  1 3.950000e-01    2.310000e+00
   TN1   X1e  1 3.950000e-01    2.310000e+00
   TN1   N1q  1 3.950000e-01    2.940000e+00
   TN1  X1eq  1 3.950000e-01    2.700000e+00
   TN1  X2eq  1 3.950000e-01    2.700000e+00
   TN1  X3eq  1 3.950000e-01    2.940000e+00
   TN1  X4eq  1 3.950000e-01    2.940000e+00
   TN1  C1eq  1 3.950000e-01    2.310000e+00
   TN1  C2eq  1 3.950000e-01    2.500000e+00
   TN1  C3eq  1 3.950000e-01    2.700000e+00
   TN1  C4eq  1 3.950000e-01    2.940000e+00
   TN1  C5eq  1 3.950000e-01    2.940000e+00
   TN1  C6eq  1 3.950000e-01    3.190000e+00
   TN1  X1vq  1 3.950000e-01    2.700000e+00
   TN1  X2vq  1 3.950000e-01    2.700000e+00
   TN1  X3vq  1 3.950000e-01    2.940000e+00
   TN1  X4vq  1 3.950000e-01    2.940000e+00
   TN1  C1vq  1 3.950000e-01    2.310000e+00
   TN1  C2vq  1 3.950000e-01    2.500000e+00
   TN1  C3vq  1 3.950000e-01    2.700000e+00
   TN1  C4vq  1 3.950000e-01    2.940000e+00
   TN1  C5vq  1 3.950000e-01    2.940000e+00
   TN1  C6vq  1 3.950000e-01    3.190000e+00
   TN1  N1aq  1 3.950000e-01    2.940000e+00
   TN1  N1dq  1 3.950000e-01    2.940000e+00
   TN1   X1q  1 3.950000e-01    2.500000e+00
   TN1   X2q  1 3.950000e-01    2.500000e+00
   TN1   X3q  1 3.950000e-01    2.700000e+00
   TN1   X4q  1 3.950000e-01    2.700000e+00
   TN1   C1q  1 3.950000e-01    2.110000e+00
   TN1   C2q  1 3.950000e-01    2.310000e+00
   TN1   C3q  1 3.950000e-01    2.500000e+00
   TN1   C4q  1 3.950000e-01    2.700000e+00
   TN1   C5q  1 3.950000e-01    2.700000e+00
   TN1   C6q  1 3.950000e-01    2.940000e+00
   TN1   N1h  1 3.950000e-01    2.500000e+00
   TN1  X1eh  1 3.950000e-01    2.310000e+00
   TN1  X2eh  1 3.950000e-01    2.310000e+00
   TN1  X3eh  1 3.950000e-01    2.500000e+00
   TN1  X4eh  1 3.950000e-01    2.500000e+00
   TN1  C1eh  1 3.950000e-01    1.850000e+00
   TN1  C2eh  1 3.950000e-01    2.110000e+00
   TN1  C3eh  1 3.950000e-01    2.310000e+00
   TN1  C4eh  1 3.950000e-01    2.500000e+00
   TN1  C5eh  1 3.950000e-01    2.500000e+00
   TN1  C6eh  1 3.950000e-01    2.700000e+00
   TN1  X1vh  1 3.950000e-01    2.310000e+00
   TN1  X2vh  1 3.950000e-01    2.310000e+00
   TN1  X3vh  1 3.950000e-01    2.500000e+00
   TN1  X4vh  1 3.950000e-01    2.500000e+00
   TN1  C1vh  1 3.950000e-01    1.850000e+00
   TN1  C2vh  1 3.950000e-01    2.110000e+00
   TN1  C3vh  1 3.950000e-01    2.310000e+00
   TN1  C4vh  1 3.950000e-01    2.500000e+00
   TN1  C5vh  1 3.950000e-01    2.500000e+00
   TN1  C6vh  1 3.950000e-01    2.700000e+00
   TN1  N1ah  1 3.950000e-01    2.500000e+00
   TN1  N1dh  1 3.950000e-01    2.500000e+00
   TN1   X1h  1 3.950000e-01    2.110000e+00
   TN1   X2h  1 3.950000e-01    2.110000e+00
   TN1   X3h  1 3.950000e-01    2.310000e+00
   TN1   X4h  1 3.950000e-01    2.310000e+00
   TN1   C1h  1 3.950000e-01    1.670000e+00
   TN1   C2h  1 3.950000e-01    1.850000e+00
   TN1   C3h  1 3.950000e-01    2.110000e+00
   TN1   C4h  1 3.950000e-01    2.310000e+00
   TN1   C5h  1 3.950000e-01    2.310000e+00
   TN1   C6h  1 3.950000e-01    2.500000e+00
   TN1   N1r  1 3.950000e-01    2.500000e+00
   TN1  X1er  1 3.950000e-01    2.310000e+00
   TN1  X2er  1 3.950000e-01    2.310000e+00
   TN1  X3er  1 3.950000e-01    2.500000e+00
   TN1  X4er  1 3.950000e-01    2.500000e+00
   TN1  C1er  1 3.950000e-01    1.850000e+00
   TN1  C2er  1 3.950000e-01    2.110000e+00
   TN1  C3er  1 3.950000e-01    2.310000e+00
   TN1  C4er  1 3.950000e-01    2.500000e+00
   TN1  C5er  1 3.950000e-01    2.500000e+00
   TN1  C6er  1 3.950000e-01    2.700000e+00
   TN1  X1vr  1 3.950000e-01    2.310000e+00
   TN1  X2vr  1 3.950000e-01    2.310000e+00
   TN1  X3vr  1 3.950000e-01    2.500000e+00
   TN1  X4vr  1 3.950000e-01    2.500000e+00
   TN1  C1vr  1 3.950000e-01    1.850000e+00
   TN1  C2vr  1 3.950000e-01    2.110000e+00
   TN1  C3vr  1 3.950000e-01    2.310000e+00
   TN1  C4vr  1 3.950000e-01    2.500000e+00
   TN1  C5vr  1 3.950000e-01    2.500000e+00
   TN1  C6vr  1 3.950000e-01    2.700000e+00
   TN1  N1ar  1 3.950000e-01    2.500000e+00
   TN1  N1dr  1 3.950000e-01    2.500000e+00
   TN1   X1r  1 3.950000e-01    2.110000e+00
   TN1   X2r  1 3.950000e-01    2.110000e+00
   TN1   X3r  1 3.950000e-01    2.310000e+00
   TN1   X4r  1 3.950000e-01    2.310000e+00
   TN1   C1r  1 3.950000e-01    1.670000e+00
   TN1   C2r  1 3.950000e-01    1.850000e+00
   TN1   C3r  1 3.950000e-01    2.110000e+00
   TN1   C4r  1 3.950000e-01    2.310000e+00
   TN1   C5r  1 3.950000e-01    2.310000e+00
   TN1   C6r  1 3.950000e-01    2.500000e+00
   TN1   TN1  1 3.400000e-01    1.770000e+00
   TN1   TC6  1 3.400000e-01    1.770000e+00
   TN1   TC5  1 3.400000e-01    1.510000e+00
   TN1   TC4  1 3.400000e-01    1.510000e+00
   TN1   TC3  1 3.400000e-01    1.230000e+00
   TN1   TC2  1 3.520000e-01    1.050000e+00
   TN1   TC1  1 3.660000e-01    9.350000e-01
   TN1   TX4  1 3.400000e-01    1.510000e+00
   TN1   TX3  1 3.400000e-01    1.510000e+00
   TN1   TX2  1 3.400000e-01    1.230000e+00
   TN1   TX1  1 3.400000e-01    1.230000e+00
  TP6d   TN1  1 3.660000e-01    9.350000e-01
  TP5d   TN1  1 3.660000e-01    9.350000e-01
  TP4d   TN1  1 3.520000e-01    1.050000e+00
  TP3d   TN1  1 3.400000e-01    1.230000e+00
  TP2d   TN1  1 3.400000e-01    1.510000e+00
  TP1d   TN1  1 3.400000e-01    1.510000e+00
  TN6d   TN1  1 3.400000e-01    1.510000e+00
  TN5d   TN1  1 3.400000e-01    1.510000e+00
  TN4d   TN1  1 3.400000e-01    1.510000e+00
  TN3d   TN1  1 3.400000e-01    1.510000e+00
  TN2d   TN1  1 3.400000e-01    1.510000e+00
   TN1  TN1d  1 3.400000e-01    1.770000e+00
  TP6a   TN1  1 3.660000e-01    9.350000e-01
  TP5a   TN1  1 3.660000e-01    9.350000e-01
  TP4a   TN1  1 3.520000e-01    1.050000e+00
  TP3a   TN1  1 3.400000e-01    1.230000e+00
  TP2a   TN1  1 3.400000e-01    1.510000e+00
  TP1a   TN1  1 3.400000e-01    1.510000e+00
  TN6a   TN1  1 3.400000e-01    1.510000e+00
  TN5a   TN1  1 3.400000e-01    1.510000e+00
  TN4a   TN1  1 3.400000e-01    1.510000e+00
  TN3a   TN1  1 3.400000e-01    1.510000e+00
  TN2a   TN1  1 3.400000e-01    1.510000e+00
   TN1  TN1a  1 3.400000e-01    1.770000e+00
   TN1  TC6v  1 3.400000e-01    2.020000e+00
   TN1  TC5v  1 3.400000e-01    1.770000e+00
   TN1  TC4v  1 3.400000e-01    1.770000e+00
   TN1  TC3v  1 3.400000e-01    1.510000e+00
   TN1  TC2v  1 3.400000e-01    1.230000e+00
   TN1  TC1v  1 3.520000e-01    1.050000e+00
   TN1  TX4v  1 3.400000e-01    1.770000e+00
   TN1  TX3v  1 3.400000e-01    1.770000e+00
   TN1  TX2v  1 3.400000e-01    1.510000e+00
   TN1  TX1v  1 3.400000e-01    1.510000e+00
   TN1  TC6e  1 3.400000e-01    2.020000e+00
   TN1  TC5e  1 3.400000e-01    1.770000e+00
   TN1  TC4e  1 3.400000e-01    1.770000e+00
   TN1  TC3e  1 3.400000e-01    1.510000e+00
   TN1  TC2e  1 3.400000e-01    1.230000e+00
   TN1  TC1e  1 3.520000e-01    1.050000e+00
   TN1  TX4e  1 3.400000e-01    1.770000e+00
   TN1  TX3e  1 3.400000e-01    1.770000e+00
   TN1  TX2e  1 3.400000e-01    1.510000e+00
   TN1  TX1e  1 3.400000e-01    1.510000e+00
  TP6q   TN1  1 3.400000e-01    1.230000e+00
  TP5q   TN1  1 3.400000e-01    1.230000e+00
  TP4q   TN1  1 3.400000e-01    1.510000e+00
  TP3q   TN1  1 3.400000e-01    1.770000e+00
  TP2q   TN1  1 3.400000e-01    2.020000e+00
  TP1q   TN1  1 3.400000e-01    2.020000e+00
  TN6q   TN1  1 3.400000e-01    2.020000e+00
  TN5q   TN1  1 3.400000e-01    2.020000e+00
  TN4q   TN1  1 3.400000e-01    2.020000e+00
  TN3q   TN1  1 3.400000e-01    2.020000e+00
  TN2q   TN1  1 3.400000e-01    2.020000e+00
   TN1  TN1q  1 3.400000e-01    2.280000e+00
   TN1 TX1eq  1 3.400000e-01    2.020000e+00
   TN1 TX2eq  1 3.400000e-01    2.020000e+00
   TN1 TX3eq  1 3.400000e-01    2.280000e+00
   TN1 TX4eq  1 3.400000e-01    2.280000e+00
   TN1 TC1eq  1 3.400000e-01    1.510000e+00
   TN1 TC2eq  1 3.400000e-01    1.770000e+00
   TN1 TC3eq  1 3.400000e-01    2.020000e+00
   TN1 TC4eq  1 3.400000e-01    2.280000e+00
   TN1 TC5eq  1 3.400000e-01    2.280000e+00
   TN1 TC6eq  1 3.400000e-01    2.500000e+00
   TN1 TX1vq  1 3.400000e-01    2.020000e+00
   TN1 TX2vq  1 3.400000e-01    2.020000e+00
   TN1 TX3vq  1 3.400000e-01    2.280000e+00
   TN1 TX4vq  1 3.400000e-01    2.280000e+00
   TN1 TC1vq  1 3.400000e-01    1.510000e+00
   TN1 TC2vq  1 3.400000e-01    1.770000e+00
   TN1 TC3vq  1 3.400000e-01    2.020000e+00
   TN1 TC4vq  1 3.400000e-01    2.280000e+00
   TN1 TC5vq  1 3.400000e-01    2.280000e+00
   TN1 TC6vq  1 3.400000e-01    2.500000e+00
   TN1 TN1aq  1 3.400000e-01    2.280000e+00
 TN2aq   TN1  1 3.400000e-01    2.020000e+00
 TN3aq   TN1  1 3.400000e-01    2.020000e+00
 TN4aq   TN1  1 3.400000e-01    2.020000e+00
 TN5aq   TN1  1 3.400000e-01    2.020000e+00
 TN6aq   TN1  1 3.400000e-01    2.020000e+00
 TP1aq   TN1  1 3.400000e-01    2.020000e+00
 TP2aq   TN1  1 3.400000e-01    2.020000e+00
 TP3aq   TN1  1 3.400000e-01    1.770000e+00
 TP4aq   TN1  1 3.400000e-01    1.510000e+00
 TP5aq   TN1  1 3.400000e-01    1.230000e+00
 TP6aq   TN1  1 3.400000e-01    1.230000e+00
   TN1 TN1dq  1 3.400000e-01    2.280000e+00
 TN2dq   TN1  1 3.400000e-01    2.020000e+00
 TN3dq   TN1  1 3.400000e-01    2.020000e+00
 TN4dq   TN1  1 3.400000e-01    2.020000e+00
 TN5dq   TN1  1 3.400000e-01    2.020000e+00
 TN6dq   TN1  1 3.400000e-01    2.020000e+00
 TP1dq   TN1  1 3.400000e-01    2.020000e+00
 TP2dq   TN1  1 3.400000e-01    2.020000e+00
 TP3dq   TN1  1 3.400000e-01    1.770000e+00
 TP4dq   TN1  1 3.400000e-01    1.510000e+00
 TP5dq   TN1  1 3.400000e-01    1.230000e+00
 TP6dq   TN1  1 3.400000e-01    1.230000e+00
   TN1  TX1q  1 3.400000e-01    1.770000e+00
   TN1  TX2q  1 3.400000e-01    1.770000e+00
   TN1  TX3q  1 3.400000e-01    2.020000e+00
   TN1  TX4q  1 3.400000e-01    2.020000e+00
   TN1  TC1q  1 3.400000e-01    1.230000e+00
   TN1  TC2q  1 3.400000e-01    1.510000e+00
   TN1  TC3q  1 3.400000e-01    1.770000e+00
   TN1  TC4q  1 3.400000e-01    2.020000e+00
   TN1  TC5q  1 3.400000e-01    2.020000e+00
   TN1  TC6q  1 3.400000e-01    2.280000e+00
  TP6h   TN1  1 3.660000e-01    9.350000e-01
  TP5h   TN1  1 3.660000e-01    9.350000e-01
  TP4h   TN1  1 3.520000e-01    1.050000e+00
  TP3h   TN1  1 3.400000e-01    1.230000e+00
  TP2h   TN1  1 3.400000e-01    1.510000e+00
  TP1h   TN1  1 3.400000e-01    1.510000e+00
  TN6h   TN1  1 3.400000e-01    1.510000e+00
  TN5h   TN1  1 3.400000e-01    1.510000e+00
  TN4h   TN1  1 3.400000e-01    1.510000e+00
  TN3h   TN1  1 3.400000e-01    1.510000e+00
  TN2h   TN1  1 3.400000e-01    1.510000e+00
   TN1  TN1h  1 3.400000e-01    1.770000e+00
   TN1 TX1eh  1 3.400000e-01    1.510000e+00
   TN1 TX2eh  1 3.400000e-01    1.510000e+00
   TN1 TX3eh  1 3.400000e-01    1.770000e+00
   TN1 TX4eh  1 3.400000e-01    1.770000e+00
   TN1 TC1eh  1 3.520000e-01    1.050000e+00
   TN1 TC2eh  1 3.400000e-01    1.230000e+00
   TN1 TC3eh  1 3.400000e-01    1.510000e+00
   TN1 TC4eh  1 3.400000e-01    1.770000e+00
   TN1 TC5eh  1 3.400000e-01    1.770000e+00
   TN1 TC6eh  1 3.400000e-01    2.020000e+00
   TN1 TX1vh  1 3.400000e-01    1.510000e+00
   TN1 TX2vh  1 3.400000e-01    1.510000e+00
   TN1 TX3vh  1 3.400000e-01    1.770000e+00
   TN1 TX4vh  1 3.400000e-01    1.770000e+00
   TN1 TC1vh  1 3.520000e-01    1.050000e+00
   TN1 TC2vh  1 3.400000e-01    1.230000e+00
   TN1 TC3vh  1 3.400000e-01    1.510000e+00
   TN1 TC4vh  1 3.400000e-01    1.770000e+00
   TN1 TC5vh  1 3.400000e-01    1.770000e+00
   TN1 TC6vh  1 3.400000e-01    2.020000e+00
   TN1 TN1ah  1 3.400000e-01    1.770000e+00
 TN2ah   TN1  1 3.400000e-01    1.510000e+00
 TN3ah   TN1  1 3.400000e-01    1.510000e+00
 TN4ah   TN1  1 3.400000e-01    1.510000e+00
 TN5ah   TN1  1 3.400000e-01    1.510000e+00
 TN6ah   TN1  1 3.400000e-01    1.510000e+00
 TP1ah   TN1  1 3.400000e-01    1.510000e+00
 TP2ah   TN1  1 3.400000e-01    1.510000e+00
 TP3ah   TN1  1 3.400000e-01    1.230000e+00
 TP4ah   TN1  1 3.520000e-01    1.050000e+00
 TP5ah   TN1  1 3.660000e-01    9.350000e-01
 TP6ah   TN1  1 3.660000e-01    9.350000e-01
   TN1 TN1dh  1 3.400000e-01    1.770000e+00
 TN2dh   TN1  1 3.400000e-01    1.510000e+00
 TN3dh   TN1  1 3.400000e-01    1.510000e+00
 TN4dh   TN1  1 3.400000e-01    1.510000e+00
 TN5dh   TN1  1 3.400000e-01    1.510000e+00
 TN6dh   TN1  1 3.400000e-01    1.510000e+00
 TP1dh   TN1  1 3.400000e-01    1.510000e+00
 TP2dh   TN1  1 3.400000e-01    1.510000e+00
 TP3dh   TN1  1 3.400000e-01    1.230000e+00
 TP4dh   TN1  1 3.520000e-01    1.050000e+00
 TP5dh   TN1  1 3.660000e-01    9.350000e-01
 TP6dh   TN1  1 3.660000e-01    9.350000e-01
   TN1  TX1h  1 3.400000e-01    1.230000e+00
   TN1  TX2h  1 3.400000e-01    1.230000e+00
   TN1  TX3h  1 3.400000e-01    1.510000e+00
   TN1  TX4h  1 3.400000e-01    1.510000e+00
   TN1  TC1h  1 3.660000e-01    9.350000e-01
   TN1  TC2h  1 3.520000e-01    1.050000e+00
   TN1  TC3h  1 3.400000e-01    1.230000e+00
   TN1  TC4h  1 3.400000e-01    1.510000e+00
   TN1  TC5h  1 3.400000e-01    1.510000e+00
   TN1  TC6h  1 3.400000e-01    1.770000e+00
  TP6r   TN1  1 3.660000e-01    9.350000e-01
  TP5r   TN1  1 3.660000e-01    9.350000e-01
  TP4r   TN1  1 3.520000e-01    1.050000e+00
  TP3r   TN1  1 3.400000e-01    1.230000e+00
  TP2r   TN1  1 3.400000e-01    1.510000e+00
  TP1r   TN1  1 3.400000e-01    1.510000e+00
  TN6r   TN1  1 3.400000e-01    1.510000e+00
  TN5r   TN1  1 3.400000e-01    1.510000e+00
  TN4r   TN1  1 3.400000e-01    1.510000e+00
  TN3r   TN1  1 3.400000e-01    1.510000e+00
  TN2r   TN1  1 3.400000e-01    1.510000e+00
   TN1  TN1r  1 3.400000e-01    1.770000e+00
   TN1 TX1er  1 3.400000e-01    1.510000e+00
   TN1 TX2er  1 3.400000e-01    1.510000e+00
   TN1 TX3er  1 3.400000e-01    1.770000e+00
   TN1 TX4er  1 3.400000e-01    1.770000e+00
   TN1 TC1er  1 3.520000e-01    1.050000e+00
   TN1 TC2er  1 3.400000e-01    1.230000e+00
   TN1 TC3er  1 3.400000e-01    1.510000e+00
   TN1 TC4er  1 3.400000e-01    1.770000e+00
   TN1 TC5er  1 3.400000e-01    1.770000e+00
   TN1 TC6er  1 3.400000e-01    2.020000e+00
   TN1 TX1vr  1 3.400000e-01    1.510000e+00
   TN1 TX2vr  1 3.400000e-01    1.510000e+00
   TN1 TX3vr  1 3.400000e-01    1.770000e+00
   TN1 TX4vr  1 3.400000e-01    1.770000e+00
   TN1 TC1vr  1 3.520000e-01    1.050000e+00
   TN1 TC2vr  1 3.400000e-01    1.230000e+00
   TN1 TC3vr  1 3.400000e-01    1.510000e+00
   TN1 TC4vr  1 3.400000e-01    1.770000e+00
   TN1 TC5vr  1 3.400000e-01    1.770000e+00
   TN1 TC6vr  1 3.400000e-01    2.020000e+00
   TN1 TN1ar  1 3.400000e-01    1.770000e+00
 TN2ar   TN1  1 3.400000e-01    1.510000e+00
 TN3ar   TN1  1 3.400000e-01    1.510000e+00
 TN4ar   TN1  1 3.400000e-01    1.510000e+00
 TN5ar   TN1  1 3.400000e-01    1.510000e+00
 TN6ar   TN1  1 3.400000e-01    1.510000e+00
 TP1ar   TN1  1 3.400000e-01    1.510000e+00
 TP2ar   TN1  1 3.400000e-01    1.510000e+00
 TP3ar   TN1  1 3.400000e-01    1.230000e+00
 TP4ar   TN1  1 3.520000e-01    1.050000e+00
 TP5ar   TN1  1 3.660000e-01    9.350000e-01
 TP6ar   TN1  1 3.660000e-01    9.350000e-01
   TN1 TN1dr  1 3.400000e-01    1.770000e+00
 TN2dr   TN1  1 3.400000e-01    1.510000e+00
 TN3dr   TN1  1 3.400000e-01    1.510000e+00
 TN4dr   TN1  1 3.400000e-01    1.510000e+00
 TN5dr   TN1  1 3.400000e-01    1.510000e+00
 TN6dr   TN1  1 3.400000e-01    1.510000e+00
 TP1dr   TN1  1 3.400000e-01    1.510000e+00
 TP2dr   TN1  1 3.400000e-01    1.510000e+00
 TP3dr   TN1  1 3.400000e-01    1.230000e+00
 TP4dr   TN1  1 3.520000e-01    1.050000e+00
 TP5dr   TN1  1 3.660000e-01    9.350000e-01
 TP6dr   TN1  1 3.660000e-01    9.350000e-01
   TN1  TX1r  1 3.400000e-01    1.230000e+00
   TN1  TX2r  1 3.400000e-01    1.230000e+00
   TN1  TX3r  1 3.400000e-01    1.510000e+00
   TN1  TX4r  1 3.400000e-01    1.510000e+00
   TN1  TC1r  1 3.660000e-01    9.350000e-01
   TN1  TC2r  1 3.520000e-01    1.050000e+00
   TN1  TC3r  1 3.400000e-01    1.230000e+00
   TN1  TC4r  1 3.400000e-01    1.510000e+00
   TN1  TC5r  1 3.400000e-01    1.510000e+00
   TN1  TC6r  1 3.400000e-01    1.770000e+00
  SP6d   TN1  1 3.780000e-01    1.450000e+00
  SP5d   TN1  1 3.780000e-01    1.450000e+00
  SP4d   TN1  1 3.660000e-01    1.600000e+00
  SP3d   TN1  1 3.650000e-01    1.750000e+00
  SP2d   TN1  1 3.650000e-01    1.910000e+00
  SP1d   TN1  1 3.650000e-01    1.910000e+00
  SN6d   TN1  1 3.650000e-01    1.910000e+00
  SN5d   TN1  1 3.650000e-01    1.910000e+00
  SN4d   TN1  1 3.650000e-01    1.910000e+00
  SN3d   TN1  1 3.650000e-01    1.910000e+00
  SN2d   TN1  1 3.650000e-01    1.910000e+00
  SP6a   TN1  1 3.780000e-01    1.450000e+00
  SP5a   TN1  1 3.780000e-01    1.450000e+00
  SP4a   TN1  1 3.660000e-01    1.600000e+00
  SP3a   TN1  1 3.650000e-01    1.750000e+00
  SP2a   TN1  1 3.650000e-01    1.910000e+00
  SP1a   TN1  1 3.650000e-01    1.910000e+00
  SN6a   TN1  1 3.650000e-01    1.910000e+00
  SN5a   TN1  1 3.650000e-01    1.910000e+00
  SN4a   TN1  1 3.650000e-01    1.910000e+00
  SN3a   TN1  1 3.650000e-01    1.910000e+00
  SN2a   TN1  1 3.650000e-01    1.910000e+00
  SP6q   TN1  1 3.650000e-01    1.750000e+00
  SP5q   TN1  1 3.650000e-01    1.750000e+00
  SP4q   TN1  1 3.650000e-01    1.910000e+00
  SP3q   TN1  1 3.650000e-01    2.110000e+00
  SP2q   TN1  1 3.650000e-01    2.340000e+00
  SP1q   TN1  1 3.650000e-01    2.340000e+00
  SN6q   TN1  1 3.650000e-01    2.340000e+00
  SN5q   TN1  1 3.650000e-01    2.340000e+00
  SN4q   TN1  1 3.650000e-01    2.340000e+00
  SN3q   TN1  1 3.650000e-01    2.340000e+00
  SN2q   TN1  1 3.650000e-01    2.340000e+00
 SN2aq   TN1  1 3.650000e-01    2.340000e+00
 SN3aq   TN1  1 3.650000e-01    2.340000e+00
 SN4aq   TN1  1 3.650000e-01    2.340000e+00
 SN5aq   TN1  1 3.650000e-01    2.340000e+00
 SN6aq   TN1  1 3.650000e-01    2.340000e+00
 SP1aq   TN1  1 3.650000e-01    2.340000e+00
 SP2aq   TN1  1 3.650000e-01    2.340000e+00
 SP3aq   TN1  1 3.650000e-01    2.110000e+00
 SP4aq   TN1  1 3.650000e-01    1.910000e+00
 SP5aq   TN1  1 3.650000e-01    1.750000e+00
 SP6aq   TN1  1 3.650000e-01    1.750000e+00
 SN2dq   TN1  1 3.650000e-01    2.340000e+00
 SN3dq   TN1  1 3.650000e-01    2.340000e+00
 SN4dq   TN1  1 3.650000e-01    2.340000e+00
 SN5dq   TN1  1 3.650000e-01    2.340000e+00
 SN6dq   TN1  1 3.650000e-01    2.340000e+00
 SP1dq   TN1  1 3.650000e-01    2.340000e+00
 SP2dq   TN1  1 3.650000e-01    2.340000e+00
 SP3dq   TN1  1 3.650000e-01    2.110000e+00
 SP4dq   TN1  1 3.650000e-01    1.910000e+00
 SP5dq   TN1  1 3.650000e-01    1.750000e+00
 SP6dq   TN1  1 3.650000e-01    1.750000e+00
  SP6h   TN1  1 3.780000e-01    1.450000e+00
  SP5h   TN1  1 3.780000e-01    1.450000e+00
  SP4h   TN1  1 3.660000e-01    1.600000e+00
  SP3h   TN1  1 3.650000e-01    1.750000e+00
  SP2h   TN1  1 3.650000e-01    1.910000e+00
  SP1h   TN1  1 3.650000e-01    1.910000e+00
  SN6h   TN1  1 3.650000e-01    1.910000e+00
  SN5h   TN1  1 3.650000e-01    1.910000e+00
  SN4h   TN1  1 3.650000e-01    1.910000e+00
  SN3h   TN1  1 3.650000e-01    1.910000e+00
  SN2h   TN1  1 3.650000e-01    1.910000e+00
 SN2ah   TN1  1 3.650000e-01    1.910000e+00
 SN3ah   TN1  1 3.650000e-01    1.910000e+00
 SN4ah   TN1  1 3.650000e-01    1.910000e+00
 SN5ah   TN1  1 3.650000e-01    1.910000e+00
 SN6ah   TN1  1 3.650000e-01    1.910000e+00
 SP1ah   TN1  1 3.650000e-01    1.910000e+00
 SP2ah   TN1  1 3.650000e-01    1.910000e+00
 SP3ah   TN1  1 3.650000e-01    1.750000e+00
 SP4ah   TN1  1 3.660000e-01    1.600000e+00
 SP5ah   TN1  1 3.780000e-01    1.450000e+00
 SP6ah   TN1  1 3.780000e-01    1.450000e+00
 SN2dh   TN1  1 3.650000e-01    1.910000e+00
 SN3dh   TN1  1 3.650000e-01    1.910000e+00
 SN4dh   TN1  1 3.650000e-01    1.910000e+00
 SN5dh   TN1  1 3.650000e-01    1.910000e+00
 SN6dh   TN1  1 3.650000e-01    1.910000e+00
 SP1dh   TN1  1 3.650000e-01    1.910000e+00
 SP2dh   TN1  1 3.650000e-01    1.910000e+00
 SP3dh   TN1  1 3.650000e-01    1.750000e+00
 SP4dh   TN1  1 3.660000e-01    1.600000e+00
 SP5dh   TN1  1 3.780000e-01    1.450000e+00
 SP6dh   TN1  1 3.780000e-01    1.450000e+00
  SP6r   TN1  1 3.780000e-01    1.450000e+00
  SP5r   TN1  1 3.780000e-01    1.450000e+00
  SP4r   TN1  1 3.660000e-01    1.600000e+00
  SP3r   TN1  1 3.650000e-01    1.750000e+00
  SP2r   TN1  1 3.650000e-01    1.910000e+00
  SP1r   TN1  1 3.650000e-01    1.910000e+00
  SN6r   TN1  1 3.650000e-01    1.910000e+00
  SN5r   TN1  1 3.650000e-01    1.910000e+00
  SN4r   TN1  1 3.650000e-01    1.910000e+00
  SN3r   TN1  1 3.650000e-01    1.910000e+00
  SN2r   TN1  1 3.650000e-01    1.910000e+00
 SN2ar   TN1  1 3.650000e-01    1.910000e+00
 SN3ar   TN1  1 3.650000e-01    1.910000e+00
 SN4ar   TN1  1 3.650000e-01    1.910000e+00
 SN5ar   TN1  1 3.650000e-01    1.910000e+00
 SN6ar   TN1  1 3.650000e-01    1.910000e+00
 SP1ar   TN1  1 3.650000e-01    1.910000e+00
 SP2ar   TN1  1 3.650000e-01    1.910000e+00
 SP3ar   TN1  1 3.650000e-01    1.750000e+00
 SP4ar   TN1  1 3.660000e-01    1.600000e+00
 SP5ar   TN1  1 3.780000e-01    1.450000e+00
 SP6ar   TN1  1 3.780000e-01    1.450000e+00
 SN2dr   TN1  1 3.650000e-01    1.910000e+00
 SN3dr   TN1  1 3.650000e-01    1.910000e+00
 SN4dr   TN1  1 3.650000e-01    1.910000e+00
 SN5dr   TN1  1 3.650000e-01    1.910000e+00
 SN6dr   TN1  1 3.650000e-01    1.910000e+00
 SP1dr   TN1  1 3.650000e-01    1.910000e+00
 SP2dr   TN1  1 3.650000e-01    1.910000e+00
 SP3dr   TN1  1 3.650000e-01    1.750000e+00
 SP4dr   TN1  1 3.660000e-01    1.600000e+00
 SP5dr   TN1  1 3.780000e-01    1.450000e+00
 SP6dr   TN1  1 3.780000e-01    1.450000e+00
   TN1   SC6  1 3.650000e-01    2.110000e+00
   TN1   SC5  1 3.650000e-01    1.910000e+00
   TN1   SC4  1 3.650000e-01    1.910000e+00
   TN1   SC3  1 3.650000e-01    1.750000e+00
   TN1   SC2  1 3.660000e-01    1.600000e+00
   TN1   SC1  1 3.780000e-01    1.450000e+00
   TN1   SX4  1 3.650000e-01    1.910000e+00
   TN1   SX3  1 3.650000e-01    1.910000e+00
   TN1   SX2  1 3.650000e-01    1.750000e+00
   TN1   SX1  1 3.650000e-01    1.750000e+00
   TN1  SN1d  1 3.650000e-01    2.110000e+00
   TN1  SN1a  1 3.650000e-01    2.110000e+00
   TN1  SC6v  1 3.650000e-01    2.340000e+00
   TN1  SC5v  1 3.650000e-01    2.110000e+00
   TN1  SC4v  1 3.650000e-01    2.110000e+00
   TN1  SC3v  1 3.650000e-01    1.910000e+00
   TN1  SC2v  1 3.650000e-01    1.750000e+00
   TN1  SC1v  1 3.660000e-01    1.600000e+00
   TN1  SX4v  1 3.650000e-01    2.110000e+00
   TN1  SX3v  1 3.650000e-01    2.110000e+00
   TN1  SX2v  1 3.650000e-01    1.910000e+00
   TN1  SX1v  1 3.650000e-01    1.910000e+00
   TN1  SC6e  1 3.650000e-01    2.340000e+00
   TN1  SC5e  1 3.650000e-01    2.110000e+00
   TN1  SC4e  1 3.650000e-01    2.110000e+00
   TN1  SC3e  1 3.650000e-01    1.910000e+00
   TN1  SC2e  1 3.650000e-01    1.750000e+00
   TN1  SC1e  1 3.660000e-01    1.600000e+00
   TN1  SX4e  1 3.650000e-01    2.110000e+00
   TN1  SX3e  1 3.650000e-01    2.110000e+00
   TN1  SX2e  1 3.650000e-01    1.910000e+00
   TN1  SX1e  1 3.650000e-01    1.910000e+00
   TN1  SN1q  1 3.650000e-01    2.570000e+00
   TN1 SX1eq  1 3.650000e-01    2.340000e+00
   TN1 SX2eq  1 3.650000e-01    2.340000e+00
   TN1 SX3eq  1 3.650000e-01    2.570000e+00
   TN1 SX4eq  1 3.650000e-01    2.570000e+00
   TN1 SC1eq  1 3.650000e-01    1.910000e+00
   TN1 SC2eq  1 3.650000e-01    2.110000e+00
   TN1 SC3eq  1 3.650000e-01    2.340000e+00
   TN1 SC4eq  1 3.650000e-01    2.570000e+00
   TN1 SC5eq  1 3.650000e-01    2.570000e+00
   TN1 SC6eq  1 3.650000e-01    2.830000e+00
   TN1 SX1vq  1 3.650000e-01    2.340000e+00
   TN1 SX2vq  1 3.650000e-01    2.340000e+00
   TN1 SX3vq  1 3.650000e-01    2.570000e+00
   TN1 SX4vq  1 3.650000e-01    2.570000e+00
   TN1 SC1vq  1 3.650000e-01    1.910000e+00
   TN1 SC2vq  1 3.650000e-01    2.110000e+00
   TN1 SC3vq  1 3.650000e-01    2.340000e+00
   TN1 SC4vq  1 3.650000e-01    2.570000e+00
   TN1 SC5vq  1 3.650000e-01    2.570000e+00
   TN1 SC6vq  1 3.650000e-01    2.830000e+00
   TN1 SN1aq  1 3.650000e-01    2.570000e+00
   TN1 SN1dq  1 3.650000e-01    2.570000e+00
   TN1  SX1q  1 3.650000e-01    2.110000e+00
   TN1  SX2q  1 3.650000e-01    2.110000e+00
   TN1  SX3q  1 3.650000e-01    2.340000e+00
   TN1  SX4q  1 3.650000e-01    2.340000e+00
   TN1  SC1q  1 3.650000e-01    1.750000e+00
   TN1  SC2q  1 3.650000e-01    1.910000e+00
   TN1  SC3q  1 3.650000e-01    2.110000e+00
   TN1  SC4q  1 3.650000e-01    2.340000e+00
   TN1  SC5q  1 3.650000e-01    2.340000e+00
   TN1  SC6q  1 3.650000e-01    2.570000e+00
   TN1  SN1h  1 3.650000e-01    2.110000e+00
   TN1 SX1eh  1 3.650000e-01    1.910000e+00
   TN1 SX2eh  1 3.650000e-01    1.910000e+00
   TN1 SX3eh  1 3.650000e-01    2.110000e+00
   TN1 SX4eh  1 3.650000e-01    2.110000e+00
   TN1 SC1eh  1 3.660000e-01    1.600000e+00
   TN1 SC2eh  1 3.650000e-01    1.750000e+00
   TN1 SC3eh  1 3.650000e-01    1.910000e+00
   TN1 SC4eh  1 3.650000e-01    2.110000e+00
   TN1 SC5eh  1 3.650000e-01    2.110000e+00
   TN1 SC6eh  1 3.650000e-01    2.340000e+00
   TN1 SX1vh  1 3.650000e-01    1.910000e+00
   TN1 SX2vh  1 3.650000e-01    1.910000e+00
   TN1 SX3vh  1 3.650000e-01    2.110000e+00
   TN1 SX4vh  1 3.650000e-01    2.110000e+00
   TN1 SC1vh  1 3.660000e-01    1.600000e+00
   TN1 SC2vh  1 3.650000e-01    1.750000e+00
   TN1 SC3vh  1 3.650000e-01    1.910000e+00
   TN1 SC4vh  1 3.650000e-01    2.110000e+00
   TN1 SC5vh  1 3.650000e-01    2.110000e+00
   TN1 SC6vh  1 3.650000e-01    2.340000e+00
   TN1 SN1ah  1 3.650000e-01    2.110000e+00
   TN1 SN1dh  1 3.650000e-01    2.110000e+00
   TN1  SX1h  1 3.650000e-01    1.750000e+00
   TN1  SX2h  1 3.650000e-01    1.750000e+00
   TN1  SX3h  1 3.650000e-01    1.910000e+00
   TN1  SX4h  1 3.650000e-01    1.910000e+00
   TN1  SC1h  1 3.780000e-01    1.450000e+00
   TN1  SC2h  1 3.660000e-01    1.600000e+00
   TN1  SC3h  1 3.650000e-01    1.750000e+00
   TN1  SC4h  1 3.650000e-01    1.910000e+00
   TN1  SC5h  1 3.650000e-01    1.910000e+00
   TN1  SC6h  1 3.650000e-01    2.110000e+00
   TN1  SN1r  1 3.650000e-01    2.110000e+00
   TN1 SX1er  1 3.650000e-01    1.910000e+00
   TN1 SX2er  1 3.650000e-01    1.910000e+00
   TN1 SX3er  1 3.650000e-01    2.110000e+00
   TN1 SX4er  1 3.650000e-01    2.110000e+00
   TN1 SC1er  1 3.660000e-01    1.600000e+00
   TN1 SC2er  1 3.650000e-01    1.750000e+00
   TN1 SC3er  1 3.650000e-01    1.910000e+00
   TN1 SC4er  1 3.650000e-01    2.110000e+00
   TN1 SC5er  1 3.650000e-01    2.110000e+00
   TN1 SC6er  1 3.650000e-01    2.340000e+00
   TN1 SX1vr  1 3.650000e-01    1.910000e+00
   TN1 SX2vr  1 3.650000e-01    1.910000e+00
   TN1 SX3vr  1 3.650000e-01    2.110000e+00
   TN1 SX4vr  1 3.650000e-01    2.110000e+00
   TN1 SC1vr  1 3.660000e-01    1.600000e+00
   TN1 SC2vr  1 3.650000e-01    1.750000e+00
   TN1 SC3vr  1 3.650000e-01    1.910000e+00
   TN1 SC4vr  1 3.650000e-01    2.110000e+00
   TN1 SC5vr  1 3.650000e-01    2.110000e+00
   TN1 SC6vr  1 3.650000e-01    2.340000e+00
   TN1 SN1ar  1 3.650000e-01    2.110000e+00
   TN1 SN1dr  1 3.650000e-01    2.110000e+00
   TN1  SX1r  1 3.650000e-01    1.750000e+00
   TN1  SX2r  1 3.650000e-01    1.750000e+00
   TN1  SX3r  1 3.650000e-01    1.910000e+00
   TN1  SX4r  1 3.650000e-01    1.910000e+00
   TN1  SC1r  1 3.780000e-01    1.450000e+00
   TN1  SC2r  1 3.660000e-01    1.600000e+00
   TN1  SC3r  1 3.650000e-01    1.750000e+00
   TN1  SC4r  1 3.650000e-01    1.910000e+00
   TN1  SC5r  1 3.650000e-01    1.910000e+00
   TN1  SC6r  1 3.650000e-01    2.110000e+00
    C6    C6  1 4.700000e-01    3.520000e+00
    C6    C5  1 4.700000e-01    3.390000e+00
    C6    C4  1 4.700000e-01    3.390000e+00
    C6    C3  1 4.700000e-01    3.240000e+00
    C6    C2  1 4.700000e-01    3.070000e+00
    C6    C1  1 4.700000e-01    2.960000e+00
    C6    X4  1 4.700000e-01    3.390000e+00
    C6    X3  1 4.700000e-01    3.390000e+00
    C6    X2  1 4.700000e-01    3.390000e+00
    C6    X1  1 4.700000e-01    3.390000e+00
   P6d    C6  1 4.700000e-01    2.960000e+00
   P5d    C6  1 4.700000e-01    2.960000e+00
   P4d    C6  1 4.700000e-01    3.070000e+00
   P3d    C6  1 4.700000e-01    3.240000e+00
   P2d    C6  1 4.700000e-01    3.240000e+00
   P1d    C6  1 4.700000e-01    3.240000e+00
   N6d    C6  1 4.700000e-01    3.390000e+00
   N5d    C6  1 4.700000e-01    3.390000e+00
   N4d    C6  1 4.700000e-01    3.390000e+00
   N3d    C6  1 4.700000e-01    3.390000e+00
   N2d    C6  1 4.700000e-01    3.390000e+00
   N1d    C6  1 4.700000e-01    3.520000e+00
   P6a    C6  1 4.700000e-01    2.960000e+00
   P5a    C6  1 4.700000e-01    2.960000e+00
   P4a    C6  1 4.700000e-01    3.070000e+00
   P3a    C6  1 4.700000e-01    3.240000e+00
   P2a    C6  1 4.700000e-01    3.240000e+00
   P1a    C6  1 4.700000e-01    3.240000e+00
   N6a    C6  1 4.700000e-01    3.390000e+00
   N5a    C6  1 4.700000e-01    3.390000e+00
   N4a    C6  1 4.700000e-01    3.390000e+00
   N3a    C6  1 4.700000e-01    3.390000e+00
   N2a    C6  1 4.700000e-01    3.390000e+00
   N1a    C6  1 4.700000e-01    3.520000e+00
    C6   C6v  1 4.700000e-01    3.690000e+00
    C6   X1v  1 4.700000e-01    3.520000e+00
    C6   X2v  1 4.700000e-01    3.520000e+00
    C6   X3v  1 4.700000e-01    3.520000e+00
    C6   X4v  1 4.700000e-01    3.520000e+00
    C6   C1v  1 4.700000e-01    3.070000e+00
    C6   C2v  1 4.700000e-01    3.240000e+00
    C6   C3v  1 4.700000e-01    3.390000e+00
    C6   C4v  1 4.700000e-01    3.520000e+00
    C6   C5v  1 4.700000e-01    3.520000e+00
    C6   C6e  1 4.700000e-01    3.690000e+00
    C6   X1e  1 4.700000e-01    3.520000e+00
    C6   X2e  1 4.700000e-01    3.520000e+00
    C6   X3e  1 4.700000e-01    3.520000e+00
    C6   X4e  1 4.700000e-01    3.520000e+00
    C6   C1e  1 4.700000e-01    3.070000e+00
    C6   C2e  1 4.700000e-01    3.240000e+00
    C6   C3e  1 4.700000e-01    3.390000e+00
    C6   C4e  1 4.700000e-01    3.520000e+00
    C6   C5e  1 4.700000e-01    3.520000e+00
   P6q    C6  1 4.700000e-01    3.240000e+00
   P5q    C6  1 4.700000e-01    3.240000e+00
   P4q    C6  1 4.700000e-01    3.390000e+00
   P3q    C6  1 4.700000e-01    3.520000e+00
   P2q    C6  1 4.700000e-01    3.520000e+00
   P1q    C6  1 4.700000e-01    3.520000e+00
   N6q    C6  1 4.700000e-01    3.690000e+00
   N5q    C6  1 4.700000e-01    3.690000e+00
   N4q    C6  1 4.700000e-01    3.690000e+00
   N3q    C6  1 4.700000e-01    3.690000e+00
   N2q    C6  1 4.700000e-01    3.690000e+00
   N1q    C6  1 4.700000e-01    3.880000e+00
    C6   C6q  1 4.700000e-01    3.880000e+00
    C6  X1eq  1 4.700000e-01    3.880000e+00
    C6  X2eq  1 4.700000e-01    3.880000e+00
    C6  X3eq  1 4.700000e-01    3.880000e+00
    C6  X4eq  1 4.700000e-01    3.880000e+00
    C6  C1eq  1 4.700000e-01    3.390000e+00
    C6  C2eq  1 4.700000e-01    3.520000e+00
    C6  C3eq  1 4.700000e-01    3.690000e+00
    C6  C4eq  1 4.700000e-01    3.880000e+00
    C6  C5eq  1 4.700000e-01    3.880000e+00
    C6  C6eq  1 4.700000e-01    4.060000e+00
    C6  X1vq  1 4.700000e-01    3.880000e+00
    C6  X2vq  1 4.700000e-01    3.880000e+00
    C6  X3vq  1 4.700000e-01    3.880000e+00
    C6  X4vq  1 4.700000e-01    3.880000e+00
    C6  C1vq  1 4.700000e-01    3.390000e+00
    C6  C2vq  1 4.700000e-01    3.520000e+00
    C6  C3vq  1 4.700000e-01    3.690000e+00
    C6  C4vq  1 4.700000e-01    3.880000e+00
    C6  C5vq  1 4.700000e-01    3.880000e+00
    C6  C6vq  1 4.700000e-01    4.060000e+00
  N1aq    C6  1 4.700000e-01    3.880000e+00
  N2aq    C6  1 4.700000e-01    3.690000e+00
  N3aq    C6  1 4.700000e-01    3.690000e+00
  N4aq    C6  1 4.700000e-01    3.690000e+00
  N5aq    C6  1 4.700000e-01    3.690000e+00
  N6aq    C6  1 4.700000e-01    3.690000e+00
  P1aq    C6  1 4.700000e-01    3.520000e+00
  P2aq    C6  1 4.700000e-01    3.520000e+00
  P3aq    C6  1 4.700000e-01    3.520000e+00
  P4aq    C6  1 4.700000e-01    3.390000e+00
  P5aq    C6  1 4.700000e-01    3.240000e+00
  P6aq    C6  1 4.700000e-01    3.240000e+00
  N1dq    C6  1 4.700000e-01    3.880000e+00
  N2dq    C6  1 4.700000e-01    3.690000e+00
  N3dq    C6  1 4.700000e-01    3.690000e+00
  N4dq    C6  1 4.700000e-01    3.690000e+00
  N5dq    C6  1 4.700000e-01    3.690000e+00
  N6dq    C6  1 4.700000e-01    3.690000e+00
  P1dq    C6  1 4.700000e-01    3.520000e+00
  P2dq    C6  1 4.700000e-01    3.520000e+00
  P3dq    C6  1 4.700000e-01    3.520000e+00
  P4dq    C6  1 4.700000e-01    3.390000e+00
  P5dq    C6  1 4.700000e-01    3.240000e+00
  P6dq    C6  1 4.700000e-01    3.240000e+00
    C6   X1q  1 4.700000e-01    3.690000e+00
    C6   X2q  1 4.700000e-01    3.690000e+00
    C6   X3q  1 4.700000e-01    3.690000e+00
    C6   X4q  1 4.700000e-01    3.690000e+00
    C6   C1q  1 4.700000e-01    3.240000e+00
    C6   C2q  1 4.700000e-01    3.390000e+00
    C6   C3q  1 4.700000e-01    3.520000e+00
    C6   C4q  1 4.700000e-01    3.690000e+00
    C6   C5q  1 4.700000e-01    3.690000e+00
   P6h    C6  1 4.700000e-01    2.960000e+00
   P5h    C6  1 4.700000e-01    2.960000e+00
   P4h    C6  1 4.700000e-01    3.070000e+00
   P3h    C6  1 4.700000e-01    3.240000e+00
   P2h    C6  1 4.700000e-01    3.240000e+00
   P1h    C6  1 4.700000e-01    3.240000e+00
   N6h    C6  1 4.700000e-01    3.390000e+00
   N5h    C6  1 4.700000e-01    3.390000e+00
   N4h    C6  1 4.700000e-01    3.390000e+00
   N3h    C6  1 4.700000e-01    3.390000e+00
   N2h    C6  1 4.700000e-01    3.390000e+00
   N1h    C6  1 4.700000e-01    3.520000e+00
    C6   C6h  1 4.700000e-01    3.520000e+00
    C6  X1eh  1 4.700000e-01    3.520000e+00
    C6  X2eh  1 4.700000e-01    3.520000e+00
    C6  X3eh  1 4.700000e-01    3.520000e+00
    C6  X4eh  1 4.700000e-01    3.520000e+00
    C6  C1eh  1 4.700000e-01    3.070000e+00
    C6  C2eh  1 4.700000e-01    3.240000e+00
    C6  C3eh  1 4.700000e-01    3.390000e+00
    C6  C4eh  1 4.700000e-01    3.520000e+00
    C6  C5eh  1 4.700000e-01    3.520000e+00
    C6  C6eh  1 4.700000e-01    3.690000e+00
    C6  X1vh  1 4.700000e-01    3.520000e+00
    C6  X2vh  1 4.700000e-01    3.520000e+00
    C6  X3vh  1 4.700000e-01    3.520000e+00
    C6  X4vh  1 4.700000e-01    3.520000e+00
    C6  C1vh  1 4.700000e-01    3.070000e+00
    C6  C2vh  1 4.700000e-01    3.240000e+00
    C6  C3vh  1 4.700000e-01    3.390000e+00
    C6  C4vh  1 4.700000e-01    3.520000e+00
    C6  C5vh  1 4.700000e-01    3.520000e+00
    C6  C6vh  1 4.700000e-01    3.690000e+00
  N1ah    C6  1 4.700000e-01    3.520000e+00
  N2ah    C6  1 4.700000e-01    3.390000e+00
  N3ah    C6  1 4.700000e-01    3.390000e+00
  N4ah    C6  1 4.700000e-01    3.390000e+00
  N5ah    C6  1 4.700000e-01    3.390000e+00
  N6ah    C6  1 4.700000e-01    3.390000e+00
  P1ah    C6  1 4.700000e-01    3.240000e+00
  P2ah    C6  1 4.700000e-01    3.240000e+00
  P3ah    C6  1 4.700000e-01    3.240000e+00
  P4ah    C6  1 4.700000e-01    3.070000e+00
  P5ah    C6  1 4.700000e-01    2.960000e+00
  P6ah    C6  1 4.700000e-01    2.960000e+00
  N1dh    C6  1 4.700000e-01    3.520000e+00
  N2dh    C6  1 4.700000e-01    3.390000e+00
  N3dh    C6  1 4.700000e-01    3.390000e+00
  N4dh    C6  1 4.700000e-01    3.390000e+00
  N5dh    C6  1 4.700000e-01    3.390000e+00
  N6dh    C6  1 4.700000e-01    3.390000e+00
  P1dh    C6  1 4.700000e-01    3.240000e+00
  P2dh    C6  1 4.700000e-01    3.240000e+00
  P3dh    C6  1 4.700000e-01    3.240000e+00
  P4dh    C6  1 4.700000e-01    3.070000e+00
  P5dh    C6  1 4.700000e-01    2.960000e+00
  P6dh    C6  1 4.700000e-01    2.960000e+00
    C6   X1h  1 4.700000e-01    3.390000e+00
    C6   X2h  1 4.700000e-01    3.390000e+00
    C6   X3h  1 4.700000e-01    3.390000e+00
    C6   X4h  1 4.700000e-01    3.390000e+00
    C6   C1h  1 4.700000e-01    2.960000e+00
    C6   C2h  1 4.700000e-01    3.070000e+00
    C6   C3h  1 4.700000e-01    3.240000e+00
    C6   C4h  1 4.700000e-01    3.390000e+00
    C6   C5h  1 4.700000e-01    3.390000e+00
   P6r    C6  1 4.700000e-01    2.960000e+00
   P5r    C6  1 4.700000e-01    2.960000e+00
   P4r    C6  1 4.700000e-01    3.070000e+00
   P3r    C6  1 4.700000e-01    3.240000e+00
   P2r    C6  1 4.700000e-01    3.240000e+00
   P1r    C6  1 4.700000e-01    3.240000e+00
   N6r    C6  1 4.700000e-01    3.390000e+00
   N5r    C6  1 4.700000e-01    3.390000e+00
   N4r    C6  1 4.700000e-01    3.390000e+00
   N3r    C6  1 4.700000e-01    3.390000e+00
   N2r    C6  1 4.700000e-01    3.390000e+00
   N1r    C6  1 4.700000e-01    3.520000e+00
    C6   C6r  1 4.700000e-01    3.520000e+00
    C6  X1er  1 4.700000e-01    3.520000e+00
    C6  X2er  1 4.700000e-01    3.520000e+00
    C6  X3er  1 4.700000e-01    3.520000e+00
    C6  X4er  1 4.700000e-01    3.520000e+00
    C6  C1er  1 4.700000e-01    3.070000e+00
    C6  C2er  1 4.700000e-01    3.240000e+00
    C6  C3er  1 4.700000e-01    3.390000e+00
    C6  C4er  1 4.700000e-01    3.520000e+00
    C6  C5er  1 4.700000e-01    3.520000e+00
    C6  C6er  1 4.700000e-01    3.690000e+00
    C6  X1vr  1 4.700000e-01    3.520000e+00
    C6  X2vr  1 4.700000e-01    3.520000e+00
    C6  X3vr  1 4.700000e-01    3.520000e+00
    C6  X4vr  1 4.700000e-01    3.520000e+00
    C6  C1vr  1 4.700000e-01    3.070000e+00
    C6  C2vr  1 4.700000e-01    3.240000e+00
    C6  C3vr  1 4.700000e-01    3.390000e+00
    C6  C4vr  1 4.700000e-01    3.520000e+00
    C6  C5vr  1 4.700000e-01    3.520000e+00
    C6  C6vr  1 4.700000e-01    3.690000e+00
  N1ar    C6  1 4.700000e-01    3.520000e+00
  N2ar    C6  1 4.700000e-01    3.390000e+00
  N3ar    C6  1 4.700000e-01    3.390000e+00
  N4ar    C6  1 4.700000e-01    3.390000e+00
  N5ar    C6  1 4.700000e-01    3.390000e+00
  N6ar    C6  1 4.700000e-01    3.390000e+00
  P1ar    C6  1 4.700000e-01    3.240000e+00
  P2ar    C6  1 4.700000e-01    3.240000e+00
  P3ar    C6  1 4.700000e-01    3.240000e+00
  P4ar    C6  1 4.700000e-01    3.070000e+00
  P5ar    C6  1 4.700000e-01    2.960000e+00
  P6ar    C6  1 4.700000e-01    2.960000e+00
  N1dr    C6  1 4.700000e-01    3.520000e+00
  N2dr    C6  1 4.700000e-01    3.390000e+00
  N3dr    C6  1 4.700000e-01    3.390000e+00
  N4dr    C6  1 4.700000e-01    3.390000e+00
  N5dr    C6  1 4.700000e-01    3.390000e+00
  N6dr    C6  1 4.700000e-01    3.390000e+00
  P1dr    C6  1 4.700000e-01    3.240000e+00
  P2dr    C6  1 4.700000e-01    3.240000e+00
  P3dr    C6  1 4.700000e-01    3.240000e+00
  P4dr    C6  1 4.700000e-01    3.070000e+00
  P5dr    C6  1 4.700000e-01    2.960000e+00
  P6dr    C6  1 4.700000e-01    2.960000e+00
    C6   X1r  1 4.700000e-01    3.390000e+00
    C6   X2r  1 4.700000e-01    3.390000e+00
    C6   X3r  1 4.700000e-01    3.390000e+00
    C6   X4r  1 4.700000e-01    3.390000e+00
    C6   C1r  1 4.700000e-01    2.960000e+00
    C6   C2r  1 4.700000e-01    3.070000e+00
    C6   C3r  1 4.700000e-01    3.240000e+00
    C6   C4r  1 4.700000e-01    3.390000e+00
    C6   C5r  1 4.700000e-01    3.390000e+00
    C6   SC6  1 4.300000e-01    3.160000e+00
    C6   SC5  1 4.300000e-01    2.920000e+00
    C6   SC4  1 4.300000e-01    2.920000e+00
    C6   SC3  1 4.300000e-01    2.770000e+00
    C6   SC2  1 4.300000e-01    2.530000e+00
    C6   SC1  1 4.300000e-01    2.320000e+00
    C6   SX4  1 4.300000e-01    2.920000e+00
    C6   SX3  1 4.300000e-01    2.920000e+00
    C6   SX2  1 4.300000e-01    2.920000e+00
    C6   SX1  1 4.300000e-01    2.920000e+00
    C6  SC6v  1 4.300000e-01    3.380000e+00
    C6  SX1v  1 4.300000e-01    3.160000e+00
    C6  SX2v  1 4.300000e-01    3.160000e+00
    C6  SX3v  1 4.300000e-01    3.160000e+00
    C6  SX4v  1 4.300000e-01    3.160000e+00
    C6  SC1v  1 4.300000e-01    2.530000e+00
    C6  SC2v  1 4.300000e-01    2.770000e+00
    C6  SC3v  1 4.300000e-01    2.920000e+00
    C6  SC4v  1 4.300000e-01    3.160000e+00
    C6  SC5v  1 4.300000e-01    3.160000e+00
    C6  SC6e  1 4.300000e-01    3.380000e+00
    C6  SX1e  1 4.300000e-01    3.160000e+00
    C6  SX2e  1 4.300000e-01    3.160000e+00
    C6  SX3e  1 4.300000e-01    3.160000e+00
    C6  SX4e  1 4.300000e-01    3.160000e+00
    C6  SC1e  1 4.300000e-01    2.530000e+00
    C6  SC2e  1 4.300000e-01    2.770000e+00
    C6  SC3e  1 4.300000e-01    2.920000e+00
    C6  SC4e  1 4.300000e-01    3.160000e+00
    C6  SC5e  1 4.300000e-01    3.160000e+00
    C6  SC6q  1 4.300000e-01    3.590000e+00
    C6 SX1eq  1 4.300000e-01    3.590000e+00
    C6 SX2eq  1 4.300000e-01    3.590000e+00
    C6 SX3eq  1 4.300000e-01    3.590000e+00
    C6 SX4eq  1 4.300000e-01    3.590000e+00
    C6 SC1eq  1 4.300000e-01    2.920000e+00
    C6 SC2eq  1 4.300000e-01    3.160000e+00
    C6 SC3eq  1 4.300000e-01    3.380000e+00
    C6 SC4eq  1 4.300000e-01    3.590000e+00
    C6 SC5eq  1 4.300000e-01    3.590000e+00
    C6 SC6eq  1 4.300000e-01    3.770000e+00
    C6 SX1vq  1 4.300000e-01    3.590000e+00
    C6 SX2vq  1 4.300000e-01    3.590000e+00
    C6 SX3vq  1 4.300000e-01    3.590000e+00
    C6 SX4vq  1 4.300000e-01    3.590000e+00
    C6 SC1vq  1 4.300000e-01    2.920000e+00
    C6 SC2vq  1 4.300000e-01    3.160000e+00
    C6 SC3vq  1 4.300000e-01    3.380000e+00
    C6 SC4vq  1 4.300000e-01    3.590000e+00
    C6 SC5vq  1 4.300000e-01    3.590000e+00
    C6 SC6vq  1 4.300000e-01    3.770000e+00
    C6  SX1q  1 4.300000e-01    3.380000e+00
    C6  SX2q  1 4.300000e-01    3.380000e+00
    C6  SX3q  1 4.300000e-01    3.380000e+00
    C6  SX4q  1 4.300000e-01    3.380000e+00
    C6  SC1q  1 4.300000e-01    2.770000e+00
    C6  SC2q  1 4.300000e-01    2.920000e+00
    C6  SC3q  1 4.300000e-01    3.160000e+00
    C6  SC4q  1 4.300000e-01    3.380000e+00
    C6  SC5q  1 4.300000e-01    3.380000e+00
    C6  SC6h  1 4.300000e-01    3.160000e+00
    C6 SX1eh  1 4.300000e-01    3.160000e+00
    C6 SX2eh  1 4.300000e-01    3.160000e+00
    C6 SX3eh  1 4.300000e-01    3.160000e+00
    C6 SX4eh  1 4.300000e-01    3.160000e+00
    C6 SC1eh  1 4.300000e-01    2.530000e+00
    C6 SC2eh  1 4.300000e-01    2.770000e+00
    C6 SC3eh  1 4.300000e-01    2.920000e+00
    C6 SC4eh  1 4.300000e-01    3.160000e+00
    C6 SC5eh  1 4.300000e-01    3.160000e+00
    C6 SC6eh  1 4.300000e-01    3.380000e+00
    C6 SX1vh  1 4.300000e-01    3.160000e+00
    C6 SX2vh  1 4.300000e-01    3.160000e+00
    C6 SX3vh  1 4.300000e-01    3.160000e+00
    C6 SX4vh  1 4.300000e-01    3.160000e+00
    C6 SC1vh  1 4.300000e-01    2.530000e+00
    C6 SC2vh  1 4.300000e-01    2.770000e+00
    C6 SC3vh  1 4.300000e-01    2.920000e+00
    C6 SC4vh  1 4.300000e-01    3.160000e+00
    C6 SC5vh  1 4.300000e-01    3.160000e+00
    C6 SC6vh  1 4.300000e-01    3.380000e+00
    C6  SX1h  1 4.300000e-01    2.920000e+00
    C6  SX2h  1 4.300000e-01    2.920000e+00
    C6  SX3h  1 4.300000e-01    2.920000e+00
    C6  SX4h  1 4.300000e-01    2.920000e+00
    C6  SC1h  1 4.300000e-01    2.320000e+00
    C6  SC2h  1 4.300000e-01    2.530000e+00
    C6  SC3h  1 4.300000e-01    2.770000e+00
    C6  SC4h  1 4.300000e-01    2.920000e+00
    C6  SC5h  1 4.300000e-01    2.920000e+00
    C6  SC6r  1 4.300000e-01    3.160000e+00
    C6 SX1er  1 4.300000e-01    3.160000e+00
    C6 SX2er  1 4.300000e-01    3.160000e+00
    C6 SX3er  1 4.300000e-01    3.160000e+00
    C6 SX4er  1 4.300000e-01    3.160000e+00
    C6 SC1er  1 4.300000e-01    2.530000e+00
    C6 SC2er  1 4.300000e-01    2.770000e+00
    C6 SC3er  1 4.300000e-01    2.920000e+00
    C6 SC4er  1 4.300000e-01    3.160000e+00
    C6 SC5er  1 4.300000e-01    3.160000e+00
    C6 SC6er  1 4.300000e-01    3.380000e+00
    C6 SX1vr  1 4.300000e-01    3.160000e+00
    C6 SX2vr  1 4.300000e-01    3.160000e+00
    C6 SX3vr  1 4.300000e-01    3.160000e+00
    C6 SX4vr  1 4.300000e-01    3.160000e+00
    C6 SC1vr  1 4.300000e-01    2.530000e+00
    C6 SC2vr  1 4.300000e-01    2.770000e+00
    C6 SC3vr  1 4.300000e-01    2.920000e+00
    C6 SC4vr  1 4.300000e-01    3.160000e+00
    C6 SC5vr  1 4.300000e-01    3.160000e+00
    C6 SC6vr  1 4.300000e-01    3.380000e+00
    C6  SX1r  1 4.300000e-01    2.920000e+00
    C6  SX2r  1 4.300000e-01    2.920000e+00
    C6  SX3r  1 4.300000e-01    2.920000e+00
    C6  SX4r  1 4.300000e-01    2.920000e+00
    C6  SC1r  1 4.300000e-01    2.320000e+00
    C6  SC2r  1 4.300000e-01    2.530000e+00
    C6  SC3r  1 4.300000e-01    2.770000e+00
    C6  SC4r  1 4.300000e-01    2.920000e+00
    C6  SC5r  1 4.300000e-01    2.920000e+00
  SP6d    C6  1 4.300000e-01    2.320000e+00
  SP5d    C6  1 4.300000e-01    2.320000e+00
  SP4d    C6  1 4.300000e-01    2.530000e+00
  SP3d    C6  1 4.300000e-01    2.770000e+00
  SP2d    C6  1 4.300000e-01    2.770000e+00
  SP1d    C6  1 4.300000e-01    2.770000e+00
  SN6d    C6  1 4.300000e-01    2.920000e+00
  SN5d    C6  1 4.300000e-01    2.920000e+00
  SN4d    C6  1 4.300000e-01    2.920000e+00
  SN3d    C6  1 4.300000e-01    2.920000e+00
  SN2d    C6  1 4.300000e-01    2.920000e+00
  SN1d    C6  1 4.300000e-01    3.160000e+00
  SP6a    C6  1 4.300000e-01    2.320000e+00
  SP5a    C6  1 4.300000e-01    2.320000e+00
  SP4a    C6  1 4.300000e-01    2.530000e+00
  SP3a    C6  1 4.300000e-01    2.770000e+00
  SP2a    C6  1 4.300000e-01    2.770000e+00
  SP1a    C6  1 4.300000e-01    2.770000e+00
  SN6a    C6  1 4.300000e-01    2.920000e+00
  SN5a    C6  1 4.300000e-01    2.920000e+00
  SN4a    C6  1 4.300000e-01    2.920000e+00
  SN3a    C6  1 4.300000e-01    2.920000e+00
  SN2a    C6  1 4.300000e-01    2.920000e+00
  SN1a    C6  1 4.300000e-01    3.160000e+00
  SP6q    C6  1 4.300000e-01    2.770000e+00
  SP5q    C6  1 4.300000e-01    2.770000e+00
  SP4q    C6  1 4.300000e-01    2.920000e+00
  SP3q    C6  1 4.300000e-01    3.160000e+00
  SP2q    C6  1 4.300000e-01    3.160000e+00
  SP1q    C6  1 4.300000e-01    3.160000e+00
  SN6q    C6  1 4.300000e-01    3.380000e+00
  SN5q    C6  1 4.300000e-01    3.380000e+00
  SN4q    C6  1 4.300000e-01    3.380000e+00
  SN3q    C6  1 4.300000e-01    3.380000e+00
  SN2q    C6  1 4.300000e-01    3.380000e+00
  SN1q    C6  1 4.300000e-01    3.590000e+00
 SN1aq    C6  1 4.300000e-01    3.590000e+00
 SN2aq    C6  1 4.300000e-01    3.380000e+00
 SN3aq    C6  1 4.300000e-01    3.380000e+00
 SN4aq    C6  1 4.300000e-01    3.380000e+00
 SN5aq    C6  1 4.300000e-01    3.380000e+00
 SN6aq    C6  1 4.300000e-01    3.380000e+00
 SP1aq    C6  1 4.300000e-01    3.160000e+00
 SP2aq    C6  1 4.300000e-01    3.160000e+00
 SP3aq    C6  1 4.300000e-01    3.160000e+00
 SP4aq    C6  1 4.300000e-01    2.920000e+00
 SP5aq    C6  1 4.300000e-01    2.770000e+00
 SP6aq    C6  1 4.300000e-01    2.770000e+00
 SN1dq    C6  1 4.300000e-01    3.590000e+00
 SN2dq    C6  1 4.300000e-01    3.380000e+00
 SN3dq    C6  1 4.300000e-01    3.380000e+00
 SN4dq    C6  1 4.300000e-01    3.380000e+00
 SN5dq    C6  1 4.300000e-01    3.380000e+00
 SN6dq    C6  1 4.300000e-01    3.380000e+00
 SP1dq    C6  1 4.300000e-01    3.160000e+00
 SP2dq    C6  1 4.300000e-01    3.160000e+00
 SP3dq    C6  1 4.300000e-01    3.160000e+00
 SP4dq    C6  1 4.300000e-01    2.920000e+00
 SP5dq    C6  1 4.300000e-01    2.770000e+00
 SP6dq    C6  1 4.300000e-01    2.770000e+00
  SP6h    C6  1 4.300000e-01    2.320000e+00
  SP5h    C6  1 4.300000e-01    2.320000e+00
  SP4h    C6  1 4.300000e-01    2.530000e+00
  SP3h    C6  1 4.300000e-01    2.770000e+00
  SP2h    C6  1 4.300000e-01    2.770000e+00
  SP1h    C6  1 4.300000e-01    2.770000e+00
  SN6h    C6  1 4.300000e-01    2.920000e+00
  SN5h    C6  1 4.300000e-01    2.920000e+00
  SN4h    C6  1 4.300000e-01    2.920000e+00
  SN3h    C6  1 4.300000e-01    2.920000e+00
  SN2h    C6  1 4.300000e-01    2.920000e+00
  SN1h    C6  1 4.300000e-01    3.160000e+00
 SN1ah    C6  1 4.300000e-01    3.160000e+00
 SN2ah    C6  1 4.300000e-01    2.920000e+00
 SN3ah    C6  1 4.300000e-01    2.920000e+00
 SN4ah    C6  1 4.300000e-01    2.920000e+00
 SN5ah    C6  1 4.300000e-01    2.920000e+00
 SN6ah    C6  1 4.300000e-01    2.920000e+00
 SP1ah    C6  1 4.300000e-01    2.770000e+00
 SP2ah    C6  1 4.300000e-01    2.770000e+00
 SP3ah    C6  1 4.300000e-01    2.770000e+00
 SP4ah    C6  1 4.300000e-01    2.530000e+00
 SP5ah    C6  1 4.300000e-01    2.320000e+00
 SP6ah    C6  1 4.300000e-01    2.320000e+00
 SN1dh    C6  1 4.300000e-01    3.160000e+00
 SN2dh    C6  1 4.300000e-01    2.920000e+00
 SN3dh    C6  1 4.300000e-01    2.920000e+00
 SN4dh    C6  1 4.300000e-01    2.920000e+00
 SN5dh    C6  1 4.300000e-01    2.920000e+00
 SN6dh    C6  1 4.300000e-01    2.920000e+00
 SP1dh    C6  1 4.300000e-01    2.770000e+00
 SP2dh    C6  1 4.300000e-01    2.770000e+00
 SP3dh    C6  1 4.300000e-01    2.770000e+00
 SP4dh    C6  1 4.300000e-01    2.530000e+00
 SP5dh    C6  1 4.300000e-01    2.320000e+00
 SP6dh    C6  1 4.300000e-01    2.320000e+00
  SP6r    C6  1 4.300000e-01    2.320000e+00
  SP5r    C6  1 4.300000e-01    2.320000e+00
  SP4r    C6  1 4.300000e-01    2.530000e+00
  SP3r    C6  1 4.300000e-01    2.770000e+00
  SP2r    C6  1 4.300000e-01    2.770000e+00
  SP1r    C6  1 4.300000e-01    2.770000e+00
  SN6r    C6  1 4.300000e-01    2.920000e+00
  SN5r    C6  1 4.300000e-01    2.920000e+00
  SN4r    C6  1 4.300000e-01    2.920000e+00
  SN3r    C6  1 4.300000e-01    2.920000e+00
  SN2r    C6  1 4.300000e-01    2.920000e+00
  SN1r    C6  1 4.300000e-01    3.160000e+00
 SN1ar    C6  1 4.300000e-01    3.160000e+00
 SN2ar    C6  1 4.300000e-01    2.920000e+00
 SN3ar    C6  1 4.300000e-01    2.920000e+00
 SN4ar    C6  1 4.300000e-01    2.920000e+00
 SN5ar    C6  1 4.300000e-01    2.920000e+00
 SN6ar    C6  1 4.300000e-01    2.920000e+00
 SP1ar    C6  1 4.300000e-01    2.770000e+00
 SP2ar    C6  1 4.300000e-01    2.770000e+00
 SP3ar    C6  1 4.300000e-01    2.770000e+00
 SP4ar    C6  1 4.300000e-01    2.530000e+00
 SP5ar    C6  1 4.300000e-01    2.320000e+00
 SP6ar    C6  1 4.300000e-01    2.320000e+00
 SN1dr    C6  1 4.300000e-01    3.160000e+00
 SN2dr    C6  1 4.300000e-01    2.920000e+00
 SN3dr    C6  1 4.300000e-01    2.920000e+00
 SN4dr    C6  1 4.300000e-01    2.920000e+00
 SN5dr    C6  1 4.300000e-01    2.920000e+00
 SN6dr    C6  1 4.300000e-01    2.920000e+00
 SP1dr    C6  1 4.300000e-01    2.770000e+00
 SP2dr    C6  1 4.300000e-01    2.770000e+00
 SP3dr    C6  1 4.300000e-01    2.770000e+00
 SP4dr    C6  1 4.300000e-01    2.530000e+00
 SP5dr    C6  1 4.300000e-01    2.320000e+00
 SP6dr    C6  1 4.300000e-01    2.320000e+00
    C6   TC6  1 3.950000e-01    2.500000e+00
    C6   TC5  1 3.950000e-01    2.310000e+00
    C6   TC4  1 3.950000e-01    2.310000e+00
    C6   TC3  1 3.950000e-01    2.110000e+00
    C6   TC2  1 3.950000e-01    1.850000e+00
    C6   TC1  1 3.950000e-01    1.670000e+00
    C6   TX4  1 3.950000e-01    2.310000e+00
    C6   TX3  1 3.950000e-01    2.310000e+00
    C6   TX2  1 3.950000e-01    2.310000e+00
    C6   TX1  1 3.950000e-01    2.310000e+00
    C6  TC6v  1 3.950000e-01    2.700000e+00
    C6  TX1v  1 3.950000e-01    2.500000e+00
    C6  TX2v  1 3.950000e-01    2.500000e+00
    C6  TX3v  1 3.950000e-01    2.500000e+00
    C6  TX4v  1 3.950000e-01    2.500000e+00
    C6  TC1v  1 3.950000e-01    1.850000e+00
    C6  TC2v  1 3.950000e-01    2.110000e+00
    C6  TC3v  1 3.950000e-01    2.310000e+00
    C6  TC4v  1 3.950000e-01    2.500000e+00
    C6  TC5v  1 3.950000e-01    2.500000e+00
    C6  TC6e  1 3.950000e-01    2.700000e+00
    C6  TX1e  1 3.950000e-01    2.500000e+00
    C6  TX2e  1 3.950000e-01    2.500000e+00
    C6  TX3e  1 3.950000e-01    2.500000e+00
    C6  TX4e  1 3.950000e-01    2.500000e+00
    C6  TC1e  1 3.950000e-01    1.850000e+00
    C6  TC2e  1 3.950000e-01    2.110000e+00
    C6  TC3e  1 3.950000e-01    2.310000e+00
    C6  TC4e  1 3.950000e-01    2.500000e+00
    C6  TC5e  1 3.950000e-01    2.500000e+00
    C6  TC6q  1 3.950000e-01    2.940000e+00
    C6 TX1eq  1 3.950000e-01    2.940000e+00
    C6 TX2eq  1 3.950000e-01    2.940000e+00
    C6 TX3eq  1 3.950000e-01    2.940000e+00
    C6 TX4eq  1 3.950000e-01    2.940000e+00
    C6 TC1eq  1 3.950000e-01    2.310000e+00
    C6 TC2eq  1 3.950000e-01    2.500000e+00
    C6 TC3eq  1 3.950000e-01    2.700000e+00
    C6 TC4eq  1 3.950000e-01    2.940000e+00
    C6 TC5eq  1 3.950000e-01    2.940000e+00
    C6 TC6eq  1 3.950000e-01    3.190000e+00
    C6 TX1vq  1 3.950000e-01    2.940000e+00
    C6 TX2vq  1 3.950000e-01    2.940000e+00
    C6 TX3vq  1 3.950000e-01    2.940000e+00
    C6 TX4vq  1 3.950000e-01    2.940000e+00
    C6 TC1vq  1 3.950000e-01    2.310000e+00
    C6 TC2vq  1 3.950000e-01    2.500000e+00
    C6 TC3vq  1 3.950000e-01    2.700000e+00
    C6 TC4vq  1 3.950000e-01    2.940000e+00
    C6 TC5vq  1 3.950000e-01    2.940000e+00
    C6 TC6vq  1 3.950000e-01    3.190000e+00
    C6  TX1q  1 3.950000e-01    2.700000e+00
    C6  TX2q  1 3.950000e-01    2.700000e+00
    C6  TX3q  1 3.950000e-01    2.700000e+00
    C6  TX4q  1 3.950000e-01    2.700000e+00
    C6  TC1q  1 3.950000e-01    2.110000e+00
    C6  TC2q  1 3.950000e-01    2.310000e+00
    C6  TC3q  1 3.950000e-01    2.500000e+00
    C6  TC4q  1 3.950000e-01    2.700000e+00
    C6  TC5q  1 3.950000e-01    2.700000e+00
    C6  TC6h  1 3.950000e-01    2.500000e+00
    C6 TX1eh  1 3.950000e-01    2.500000e+00
    C6 TX2eh  1 3.950000e-01    2.500000e+00
    C6 TX3eh  1 3.950000e-01    2.500000e+00
    C6 TX4eh  1 3.950000e-01    2.500000e+00
    C6 TC1eh  1 3.950000e-01    1.850000e+00
    C6 TC2eh  1 3.950000e-01    2.110000e+00
    C6 TC3eh  1 3.950000e-01    2.310000e+00
    C6 TC4eh  1 3.950000e-01    2.500000e+00
    C6 TC5eh  1 3.950000e-01    2.500000e+00
    C6 TC6eh  1 3.950000e-01    2.700000e+00
    C6 TX1vh  1 3.950000e-01    2.500000e+00
    C6 TX2vh  1 3.950000e-01    2.500000e+00
    C6 TX3vh  1 3.950000e-01    2.500000e+00
    C6 TX4vh  1 3.950000e-01    2.500000e+00
    C6 TC1vh  1 3.950000e-01    1.850000e+00
    C6 TC2vh  1 3.950000e-01    2.110000e+00
    C6 TC3vh  1 3.950000e-01    2.310000e+00
    C6 TC4vh  1 3.950000e-01    2.500000e+00
    C6 TC5vh  1 3.950000e-01    2.500000e+00
    C6 TC6vh  1 3.950000e-01    2.700000e+00
    C6  TX1h  1 3.950000e-01    2.310000e+00
    C6  TX2h  1 3.950000e-01    2.310000e+00
    C6  TX3h  1 3.950000e-01    2.310000e+00
    C6  TX4h  1 3.950000e-01    2.310000e+00
    C6  TC1h  1 3.950000e-01    1.670000e+00
    C6  TC2h  1 3.950000e-01    1.850000e+00
    C6  TC3h  1 3.950000e-01    2.110000e+00
    C6  TC4h  1 3.950000e-01    2.310000e+00
    C6  TC5h  1 3.950000e-01    2.310000e+00
    C6  TC6r  1 3.950000e-01    2.500000e+00
    C6 TX1er  1 3.950000e-01    2.500000e+00
    C6 TX2er  1 3.950000e-01    2.500000e+00
    C6 TX3er  1 3.950000e-01    2.500000e+00
    C6 TX4er  1 3.950000e-01    2.500000e+00
    C6 TC1er  1 3.950000e-01    1.850000e+00
    C6 TC2er  1 3.950000e-01    2.110000e+00
    C6 TC3er  1 3.950000e-01    2.310000e+00
    C6 TC4er  1 3.950000e-01    2.500000e+00
    C6 TC5er  1 3.950000e-01    2.500000e+00
    C6 TC6er  1 3.950000e-01    2.700000e+00
    C6 TX1vr  1 3.950000e-01    2.500000e+00
    C6 TX2vr  1 3.950000e-01    2.500000e+00
    C6 TX3vr  1 3.950000e-01    2.500000e+00
    C6 TX4vr  1 3.950000e-01    2.500000e+00
    C6 TC1vr  1 3.950000e-01    1.850000e+00
    C6 TC2vr  1 3.950000e-01    2.110000e+00
    C6 TC3vr  1 3.950000e-01    2.310000e+00
    C6 TC4vr  1 3.950000e-01    2.500000e+00
    C6 TC5vr  1 3.950000e-01    2.500000e+00
    C6 TC6vr  1 3.950000e-01    2.700000e+00
    C6  TX1r  1 3.950000e-01    2.310000e+00
    C6  TX2r  1 3.950000e-01    2.310000e+00
    C6  TX3r  1 3.950000e-01    2.310000e+00
    C6  TX4r  1 3.950000e-01    2.310000e+00
    C6  TC1r  1 3.950000e-01    1.670000e+00
    C6  TC2r  1 3.950000e-01    1.850000e+00
    C6  TC3r  1 3.950000e-01    2.110000e+00
    C6  TC4r  1 3.950000e-01    2.310000e+00
    C6  TC5r  1 3.950000e-01    2.310000e+00
  TP6d    C6  1 3.950000e-01    1.670000e+00
  TP5d    C6  1 3.950000e-01    1.670000e+00
  TP4d    C6  1 3.950000e-01    1.850000e+00
  TP3d    C6  1 3.950000e-01    2.110000e+00
  TP2d    C6  1 3.950000e-01    2.110000e+00
  TP1d    C6  1 3.950000e-01    2.110000e+00
  TN6d    C6  1 3.950000e-01    2.310000e+00
  TN5d    C6  1 3.950000e-01    2.310000e+00
  TN4d    C6  1 3.950000e-01    2.310000e+00
  TN3d    C6  1 3.950000e-01    2.310000e+00
  TN2d    C6  1 3.950000e-01    2.310000e+00
  TN1d    C6  1 3.950000e-01    2.500000e+00
  TP6a    C6  1 3.950000e-01    1.670000e+00
  TP5a    C6  1 3.950000e-01    1.670000e+00
  TP4a    C6  1 3.950000e-01    1.850000e+00
  TP3a    C6  1 3.950000e-01    2.110000e+00
  TP2a    C6  1 3.950000e-01    2.110000e+00
  TP1a    C6  1 3.950000e-01    2.110000e+00
  TN6a    C6  1 3.950000e-01    2.310000e+00
  TN5a    C6  1 3.950000e-01    2.310000e+00
  TN4a    C6  1 3.950000e-01    2.310000e+00
  TN3a    C6  1 3.950000e-01    2.310000e+00
  TN2a    C6  1 3.950000e-01    2.310000e+00
  TN1a    C6  1 3.950000e-01    2.500000e+00
  TP6q    C6  1 3.950000e-01    2.110000e+00
  TP5q    C6  1 3.950000e-01    2.110000e+00
  TP4q    C6  1 3.950000e-01    2.310000e+00
  TP3q    C6  1 3.950000e-01    2.500000e+00
  TP2q    C6  1 3.950000e-01    2.500000e+00
  TP1q    C6  1 3.950000e-01    2.500000e+00
  TN6q    C6  1 3.950000e-01    2.700000e+00
  TN5q    C6  1 3.950000e-01    2.700000e+00
  TN4q    C6  1 3.950000e-01    2.700000e+00
  TN3q    C6  1 3.950000e-01    2.700000e+00
  TN2q    C6  1 3.950000e-01    2.700000e+00
  TN1q    C6  1 3.950000e-01    2.940000e+00
 TN1aq    C6  1 3.950000e-01    2.940000e+00
 TN2aq    C6  1 3.950000e-01    2.700000e+00
 TN3aq    C6  1 3.950000e-01    2.700000e+00
 TN4aq    C6  1 3.950000e-01    2.700000e+00
 TN5aq    C6  1 3.950000e-01    2.700000e+00
 TN6aq    C6  1 3.950000e-01    2.700000e+00
 TP1aq    C6  1 3.950000e-01    2.500000e+00
 TP2aq    C6  1 3.950000e-01    2.500000e+00
 TP3aq    C6  1 3.950000e-01    2.500000e+00
 TP4aq    C6  1 3.950000e-01    2.310000e+00
 TP5aq    C6  1 3.950000e-01    2.110000e+00
 TP6aq    C6  1 3.950000e-01    2.110000e+00
 TN1dq    C6  1 3.950000e-01    2.940000e+00
 TN2dq    C6  1 3.950000e-01    2.700000e+00
 TN3dq    C6  1 3.950000e-01    2.700000e+00
 TN4dq    C6  1 3.950000e-01    2.700000e+00
 TN5dq    C6  1 3.950000e-01    2.700000e+00
 TN6dq    C6  1 3.950000e-01    2.700000e+00
 TP1dq    C6  1 3.950000e-01    2.500000e+00
 TP2dq    C6  1 3.950000e-01    2.500000e+00
 TP3dq    C6  1 3.950000e-01    2.500000e+00
 TP4dq    C6  1 3.950000e-01    2.310000e+00
 TP5dq    C6  1 3.950000e-01    2.110000e+00
 TP6dq    C6  1 3.950000e-01    2.110000e+00
  TP6h    C6  1 3.950000e-01    1.670000e+00
  TP5h    C6  1 3.950000e-01    1.670000e+00
  TP4h    C6  1 3.950000e-01    1.850000e+00
  TP3h    C6  1 3.950000e-01    2.110000e+00
  TP2h    C6  1 3.950000e-01    2.110000e+00
  TP1h    C6  1 3.950000e-01    2.110000e+00
  TN6h    C6  1 3.950000e-01    2.310000e+00
  TN5h    C6  1 3.950000e-01    2.310000e+00
  TN4h    C6  1 3.950000e-01    2.310000e+00
  TN3h    C6  1 3.950000e-01    2.310000e+00
  TN2h    C6  1 3.950000e-01    2.310000e+00
  TN1h    C6  1 3.950000e-01    2.500000e+00
 TN1ah    C6  1 3.950000e-01    2.500000e+00
 TN2ah    C6  1 3.950000e-01    2.310000e+00
 TN3ah    C6  1 3.950000e-01    2.310000e+00
 TN4ah    C6  1 3.950000e-01    2.310000e+00
 TN5ah    C6  1 3.950000e-01    2.310000e+00
 TN6ah    C6  1 3.950000e-01    2.310000e+00
 TP1ah    C6  1 3.950000e-01    2.110000e+00
 TP2ah    C6  1 3.950000e-01    2.110000e+00
 TP3ah    C6  1 3.950000e-01    2.110000e+00
 TP4ah    C6  1 3.950000e-01    1.850000e+00
 TP5ah    C6  1 3.950000e-01    1.670000e+00
 TP6ah    C6  1 3.950000e-01    1.670000e+00
 TN1dh    C6  1 3.950000e-01    2.500000e+00
 TN2dh    C6  1 3.950000e-01    2.310000e+00
 TN3dh    C6  1 3.950000e-01    2.310000e+00
 TN4dh    C6  1 3.950000e-01    2.310000e+00
 TN5dh    C6  1 3.950000e-01    2.310000e+00
 TN6dh    C6  1 3.950000e-01    2.310000e+00
 TP1dh    C6  1 3.950000e-01    2.110000e+00
 TP2dh    C6  1 3.950000e-01    2.110000e+00
 TP3dh    C6  1 3.950000e-01    2.110000e+00
 TP4dh    C6  1 3.950000e-01    1.850000e+00
 TP5dh    C6  1 3.950000e-01    1.670000e+00
 TP6dh    C6  1 3.950000e-01    1.670000e+00
  TP6r    C6  1 3.950000e-01    1.670000e+00
  TP5r    C6  1 3.950000e-01    1.670000e+00
  TP4r    C6  1 3.950000e-01    1.850000e+00
  TP3r    C6  1 3.950000e-01    2.110000e+00
  TP2r    C6  1 3.950000e-01    2.110000e+00
  TP1r    C6  1 3.950000e-01    2.110000e+00
  TN6r    C6  1 3.950000e-01    2.310000e+00
  TN5r    C6  1 3.950000e-01    2.310000e+00
  TN4r    C6  1 3.950000e-01    2.310000e+00
  TN3r    C6  1 3.950000e-01    2.310000e+00
  TN2r    C6  1 3.950000e-01    2.310000e+00
  TN1r    C6  1 3.950000e-01    2.500000e+00
 TN1ar    C6  1 3.950000e-01    2.500000e+00
 TN2ar    C6  1 3.950000e-01    2.310000e+00
 TN3ar    C6  1 3.950000e-01    2.310000e+00
 TN4ar    C6  1 3.950000e-01    2.310000e+00
 TN5ar    C6  1 3.950000e-01    2.310000e+00
 TN6ar    C6  1 3.950000e-01    2.310000e+00
 TP1ar    C6  1 3.950000e-01    2.110000e+00
 TP2ar    C6  1 3.950000e-01    2.110000e+00
 TP3ar    C6  1 3.950000e-01    2.110000e+00
 TP4ar    C6  1 3.950000e-01    1.850000e+00
 TP5ar    C6  1 3.950000e-01    1.670000e+00
 TP6ar    C6  1 3.950000e-01    1.670000e+00
 TN1dr    C6  1 3.950000e-01    2.500000e+00
 TN2dr    C6  1 3.950000e-01    2.310000e+00
 TN3dr    C6  1 3.950000e-01    2.310000e+00
 TN4dr    C6  1 3.950000e-01    2.310000e+00
 TN5dr    C6  1 3.950000e-01    2.310000e+00
 TN6dr    C6  1 3.950000e-01    2.310000e+00
 TP1dr    C6  1 3.950000e-01    2.110000e+00
 TP2dr    C6  1 3.950000e-01    2.110000e+00
 TP3dr    C6  1 3.950000e-01    2.110000e+00
 TP4dr    C6  1 3.950000e-01    1.850000e+00
 TP5dr    C6  1 3.950000e-01    1.670000e+00
 TP6dr    C6  1 3.950000e-01    1.670000e+00
   P6d   SC6  1 4.300000e-01    2.320000e+00
   P5d   SC6  1 4.300000e-01    2.320000e+00
   P4d   SC6  1 4.300000e-01    2.530000e+00
   P3d   SC6  1 4.300000e-01    2.770000e+00
   P2d   SC6  1 4.300000e-01    2.770000e+00
   P1d   SC6  1 4.300000e-01    2.770000e+00
   N6d   SC6  1 4.300000e-01    2.920000e+00
   N5d   SC6  1 4.300000e-01    2.920000e+00
   N4d   SC6  1 4.300000e-01    2.920000e+00
   N3d   SC6  1 4.300000e-01    2.920000e+00
   N2d   SC6  1 4.300000e-01    2.920000e+00
   N1d   SC6  1 4.300000e-01    3.160000e+00
   P6a   SC6  1 4.300000e-01    2.320000e+00
   P5a   SC6  1 4.300000e-01    2.320000e+00
   P4a   SC6  1 4.300000e-01    2.530000e+00
   P3a   SC6  1 4.300000e-01    2.770000e+00
   P2a   SC6  1 4.300000e-01    2.770000e+00
   P1a   SC6  1 4.300000e-01    2.770000e+00
   N6a   SC6  1 4.300000e-01    2.920000e+00
   N5a   SC6  1 4.300000e-01    2.920000e+00
   N4a   SC6  1 4.300000e-01    2.920000e+00
   N3a   SC6  1 4.300000e-01    2.920000e+00
   N2a   SC6  1 4.300000e-01    2.920000e+00
   N1a   SC6  1 4.300000e-01    3.160000e+00
   P6q   SC6  1 4.300000e-01    2.770000e+00
   P5q   SC6  1 4.300000e-01    2.770000e+00
   P4q   SC6  1 4.300000e-01    2.920000e+00
   P3q   SC6  1 4.300000e-01    3.160000e+00
   P2q   SC6  1 4.300000e-01    3.160000e+00
   P1q   SC6  1 4.300000e-01    3.160000e+00
   N6q   SC6  1 4.300000e-01    3.380000e+00
   N5q   SC6  1 4.300000e-01    3.380000e+00
   N4q   SC6  1 4.300000e-01    3.380000e+00
   N3q   SC6  1 4.300000e-01    3.380000e+00
   N2q   SC6  1 4.300000e-01    3.380000e+00
   N1q   SC6  1 4.300000e-01    3.590000e+00
  N1aq   SC6  1 4.300000e-01    3.590000e+00
  N2aq   SC6  1 4.300000e-01    3.380000e+00
  N3aq   SC6  1 4.300000e-01    3.380000e+00
  N4aq   SC6  1 4.300000e-01    3.380000e+00
  N5aq   SC6  1 4.300000e-01    3.380000e+00
  N6aq   SC6  1 4.300000e-01    3.380000e+00
  P1aq   SC6  1 4.300000e-01    3.160000e+00
  P2aq   SC6  1 4.300000e-01    3.160000e+00
  P3aq   SC6  1 4.300000e-01    3.160000e+00
  P4aq   SC6  1 4.300000e-01    2.920000e+00
  P5aq   SC6  1 4.300000e-01    2.770000e+00
  P6aq   SC6  1 4.300000e-01    2.770000e+00
  N1dq   SC6  1 4.300000e-01    3.590000e+00
  N2dq   SC6  1 4.300000e-01    3.380000e+00
  N3dq   SC6  1 4.300000e-01    3.380000e+00
  N4dq   SC6  1 4.300000e-01    3.380000e+00
  N5dq   SC6  1 4.300000e-01    3.380000e+00
  N6dq   SC6  1 4.300000e-01    3.380000e+00
  P1dq   SC6  1 4.300000e-01    3.160000e+00
  P2dq   SC6  1 4.300000e-01    3.160000e+00
  P3dq   SC6  1 4.300000e-01    3.160000e+00
  P4dq   SC6  1 4.300000e-01    2.920000e+00
  P5dq   SC6  1 4.300000e-01    2.770000e+00
  P6dq   SC6  1 4.300000e-01    2.770000e+00
   P6h   SC6  1 4.300000e-01    2.320000e+00
   P5h   SC6  1 4.300000e-01    2.320000e+00
   P4h   SC6  1 4.300000e-01    2.530000e+00
   P3h   SC6  1 4.300000e-01    2.770000e+00
   P2h   SC6  1 4.300000e-01    2.770000e+00
   P1h   SC6  1 4.300000e-01    2.770000e+00
   N6h   SC6  1 4.300000e-01    2.920000e+00
   N5h   SC6  1 4.300000e-01    2.920000e+00
   N4h   SC6  1 4.300000e-01    2.920000e+00
   N3h   SC6  1 4.300000e-01    2.920000e+00
   N2h   SC6  1 4.300000e-01    2.920000e+00
   N1h   SC6  1 4.300000e-01    3.160000e+00
  N1ah   SC6  1 4.300000e-01    3.160000e+00
  N2ah   SC6  1 4.300000e-01    2.920000e+00
  N3ah   SC6  1 4.300000e-01    2.920000e+00
  N4ah   SC6  1 4.300000e-01    2.920000e+00
  N5ah   SC6  1 4.300000e-01    2.920000e+00
  N6ah   SC6  1 4.300000e-01    2.920000e+00
  P1ah   SC6  1 4.300000e-01    2.770000e+00
  P2ah   SC6  1 4.300000e-01    2.770000e+00
  P3ah   SC6  1 4.300000e-01    2.770000e+00
  P4ah   SC6  1 4.300000e-01    2.530000e+00
  P5ah   SC6  1 4.300000e-01    2.320000e+00
  P6ah   SC6  1 4.300000e-01    2.320000e+00
  N1dh   SC6  1 4.300000e-01    3.160000e+00
  N2dh   SC6  1 4.300000e-01    2.920000e+00
  N3dh   SC6  1 4.300000e-01    2.920000e+00
  N4dh   SC6  1 4.300000e-01    2.920000e+00
  N5dh   SC6  1 4.300000e-01    2.920000e+00
  N6dh   SC6  1 4.300000e-01    2.920000e+00
  P1dh   SC6  1 4.300000e-01    2.770000e+00
  P2dh   SC6  1 4.300000e-01    2.770000e+00
  P3dh   SC6  1 4.300000e-01    2.770000e+00
  P4dh   SC6  1 4.300000e-01    2.530000e+00
  P5dh   SC6  1 4.300000e-01    2.320000e+00
  P6dh   SC6  1 4.300000e-01    2.320000e+00
   P6r   SC6  1 4.300000e-01    2.320000e+00
   P5r   SC6  1 4.300000e-01    2.320000e+00
   P4r   SC6  1 4.300000e-01    2.530000e+00
   P3r   SC6  1 4.300000e-01    2.770000e+00
   P2r   SC6  1 4.300000e-01    2.770000e+00
   P1r   SC6  1 4.300000e-01    2.770000e+00
   N6r   SC6  1 4.300000e-01    2.920000e+00
   N5r   SC6  1 4.300000e-01    2.920000e+00
   N4r   SC6  1 4.300000e-01    2.920000e+00
   N3r   SC6  1 4.300000e-01    2.920000e+00
   N2r   SC6  1 4.300000e-01    2.920000e+00
   N1r   SC6  1 4.300000e-01    3.160000e+00
  N1ar   SC6  1 4.300000e-01    3.160000e+00
  N2ar   SC6  1 4.300000e-01    2.920000e+00
  N3ar   SC6  1 4.300000e-01    2.920000e+00
  N4ar   SC6  1 4.300000e-01    2.920000e+00
  N5ar   SC6  1 4.300000e-01    2.920000e+00
  N6ar   SC6  1 4.300000e-01    2.920000e+00
  P1ar   SC6  1 4.300000e-01    2.770000e+00
  P2ar   SC6  1 4.300000e-01    2.770000e+00
  P3ar   SC6  1 4.300000e-01    2.770000e+00
  P4ar   SC6  1 4.300000e-01    2.530000e+00
  P5ar   SC6  1 4.300000e-01    2.320000e+00
  P6ar   SC6  1 4.300000e-01    2.320000e+00
  N1dr   SC6  1 4.300000e-01    3.160000e+00
  N2dr   SC6  1 4.300000e-01    2.920000e+00
  N3dr   SC6  1 4.300000e-01    2.920000e+00
  N4dr   SC6  1 4.300000e-01    2.920000e+00
  N5dr   SC6  1 4.300000e-01    2.920000e+00
  N6dr   SC6  1 4.300000e-01    2.920000e+00
  P1dr   SC6  1 4.300000e-01    2.770000e+00
  P2dr   SC6  1 4.300000e-01    2.770000e+00
  P3dr   SC6  1 4.300000e-01    2.770000e+00
  P4dr   SC6  1 4.300000e-01    2.530000e+00
  P5dr   SC6  1 4.300000e-01    2.320000e+00
  P6dr   SC6  1 4.300000e-01    2.320000e+00
   SC6    C5  1 4.300000e-01    2.920000e+00
   SC6    C4  1 4.300000e-01    2.920000e+00
   SC6    C3  1 4.300000e-01    2.770000e+00
   SC6    C2  1 4.300000e-01    2.530000e+00
   SC6    C1  1 4.300000e-01    2.320000e+00
   SC6    X4  1 4.300000e-01    2.920000e+00
   SC6    X3  1 4.300000e-01    2.920000e+00
   SC6    X2  1 4.300000e-01    2.920000e+00
   SC6    X1  1 4.300000e-01    2.920000e+00
   SC6   C6v  1 4.300000e-01    3.380000e+00
   SC6   X1v  1 4.300000e-01    3.160000e+00
   SC6   X2v  1 4.300000e-01    3.160000e+00
   SC6   X3v  1 4.300000e-01    3.160000e+00
   SC6   X4v  1 4.300000e-01    3.160000e+00
   SC6   C1v  1 4.300000e-01    2.530000e+00
   SC6   C2v  1 4.300000e-01    2.770000e+00
   SC6   C3v  1 4.300000e-01    2.920000e+00
   SC6   C4v  1 4.300000e-01    3.160000e+00
   SC6   C5v  1 4.300000e-01    3.160000e+00
   SC6   C6e  1 4.300000e-01    3.380000e+00
   SC6   X1e  1 4.300000e-01    3.160000e+00
   SC6   X2e  1 4.300000e-01    3.160000e+00
   SC6   X3e  1 4.300000e-01    3.160000e+00
   SC6   X4e  1 4.300000e-01    3.160000e+00
   SC6   C1e  1 4.300000e-01    2.530000e+00
   SC6   C2e  1 4.300000e-01    2.770000e+00
   SC6   C3e  1 4.300000e-01    2.920000e+00
   SC6   C4e  1 4.300000e-01    3.160000e+00
   SC6   C5e  1 4.300000e-01    3.160000e+00
   SC6   C6q  1 4.300000e-01    3.590000e+00
   SC6  X1eq  1 4.300000e-01    3.590000e+00
   SC6  X2eq  1 4.300000e-01    3.590000e+00
   SC6  X3eq  1 4.300000e-01    3.590000e+00
   SC6  X4eq  1 4.300000e-01    3.590000e+00
   SC6  C1eq  1 4.300000e-01    2.920000e+00
   SC6  C2eq  1 4.300000e-01    3.160000e+00
   SC6  C3eq  1 4.300000e-01    3.380000e+00
   SC6  C4eq  1 4.300000e-01    3.590000e+00
   SC6  C5eq  1 4.300000e-01    3.590000e+00
   SC6  C6eq  1 4.300000e-01    3.770000e+00
   SC6  X1vq  1 4.300000e-01    3.590000e+00
   SC6  X2vq  1 4.300000e-01    3.590000e+00
   SC6  X3vq  1 4.300000e-01    3.590000e+00
   SC6  X4vq  1 4.300000e-01    3.590000e+00
   SC6  C1vq  1 4.300000e-01    2.920000e+00
   SC6  C2vq  1 4.300000e-01    3.160000e+00
   SC6  C3vq  1 4.300000e-01    3.380000e+00
   SC6  C4vq  1 4.300000e-01    3.590000e+00
   SC6  C5vq  1 4.300000e-01    3.590000e+00
   SC6  C6vq  1 4.300000e-01    3.770000e+00
   SC6   X1q  1 4.300000e-01    3.380000e+00
   SC6   X2q  1 4.300000e-01    3.380000e+00
   SC6   X3q  1 4.300000e-01    3.380000e+00
   SC6   X4q  1 4.300000e-01    3.380000e+00
   SC6   C1q  1 4.300000e-01    2.770000e+00
   SC6   C2q  1 4.300000e-01    2.920000e+00
   SC6   C3q  1 4.300000e-01    3.160000e+00
   SC6   C4q  1 4.300000e-01    3.380000e+00
   SC6   C5q  1 4.300000e-01    3.380000e+00
   SC6   C6h  1 4.300000e-01    3.160000e+00
   SC6  X1eh  1 4.300000e-01    3.160000e+00
   SC6  X2eh  1 4.300000e-01    3.160000e+00
   SC6  X3eh  1 4.300000e-01    3.160000e+00
   SC6  X4eh  1 4.300000e-01    3.160000e+00
   SC6  C1eh  1 4.300000e-01    2.530000e+00
   SC6  C2eh  1 4.300000e-01    2.770000e+00
   SC6  C3eh  1 4.300000e-01    2.920000e+00
   SC6  C4eh  1 4.300000e-01    3.160000e+00
   SC6  C5eh  1 4.300000e-01    3.160000e+00
   SC6  C6eh  1 4.300000e-01    3.380000e+00
   SC6  X1vh  1 4.300000e-01    3.160000e+00
   SC6  X2vh  1 4.300000e-01    3.160000e+00
   SC6  X3vh  1 4.300000e-01    3.160000e+00
   SC6  X4vh  1 4.300000e-01    3.160000e+00
   SC6  C1vh  1 4.300000e-01    2.530000e+00
   SC6  C2vh  1 4.300000e-01    2.770000e+00
   SC6  C3vh  1 4.300000e-01    2.920000e+00
   SC6  C4vh  1 4.300000e-01    3.160000e+00
   SC6  C5vh  1 4.300000e-01    3.160000e+00
   SC6  C6vh  1 4.300000e-01    3.380000e+00
   SC6   X1h  1 4.300000e-01    2.920000e+00
   SC6   X2h  1 4.300000e-01    2.920000e+00
   SC6   X3h  1 4.300000e-01    2.920000e+00
   SC6   X4h  1 4.300000e-01    2.920000e+00
   SC6   C1h  1 4.300000e-01    2.320000e+00
   SC6   C2h  1 4.300000e-01    2.530000e+00
   SC6   C3h  1 4.300000e-01    2.770000e+00
   SC6   C4h  1 4.300000e-01    2.920000e+00
   SC6   C5h  1 4.300000e-01    2.920000e+00
   SC6   C6r  1 4.300000e-01    3.160000e+00
   SC6  X1er  1 4.300000e-01    3.160000e+00
   SC6  X2er  1 4.300000e-01    3.160000e+00
   SC6  X3er  1 4.300000e-01    3.160000e+00
   SC6  X4er  1 4.300000e-01    3.160000e+00
   SC6  C1er  1 4.300000e-01    2.530000e+00
   SC6  C2er  1 4.300000e-01    2.770000e+00
   SC6  C3er  1 4.300000e-01    2.920000e+00
   SC6  C4er  1 4.300000e-01    3.160000e+00
   SC6  C5er  1 4.300000e-01    3.160000e+00
   SC6  C6er  1 4.300000e-01    3.380000e+00
   SC6  X1vr  1 4.300000e-01    3.160000e+00
   SC6  X2vr  1 4.300000e-01    3.160000e+00
   SC6  X3vr  1 4.300000e-01    3.160000e+00
   SC6  X4vr  1 4.300000e-01    3.160000e+00
   SC6  C1vr  1 4.300000e-01    2.530000e+00
   SC6  C2vr  1 4.300000e-01    2.770000e+00
   SC6  C3vr  1 4.300000e-01    2.920000e+00
   SC6  C4vr  1 4.300000e-01    3.160000e+00
   SC6  C5vr  1 4.300000e-01    3.160000e+00
   SC6  C6vr  1 4.300000e-01    3.380000e+00
   SC6   X1r  1 4.300000e-01    2.920000e+00
   SC6   X2r  1 4.300000e-01    2.920000e+00
   SC6   X3r  1 4.300000e-01    2.920000e+00
   SC6   X4r  1 4.300000e-01    2.920000e+00
   SC6   C1r  1 4.300000e-01    2.320000e+00
   SC6   C2r  1 4.300000e-01    2.530000e+00
   SC6   C3r  1 4.300000e-01    2.770000e+00
   SC6   C4r  1 4.300000e-01    2.920000e+00
   SC6   C5r  1 4.300000e-01    2.920000e+00
   SC6   SC6  1 4.100000e-01    2.600000e+00
   SC6   SC5  1 4.100000e-01    2.350000e+00
   SC6   SC4  1 4.100000e-01    2.350000e+00
   SC6   SC3  1 4.100000e-01    2.200000e+00
   SC6   SC2  1 4.100000e-01    2.040000e+00
   SC6   SC1  1 4.100000e-01    1.910000e+00
   SC6   SX4  1 4.100000e-01    2.350000e+00
   SC6   SX3  1 4.100000e-01    2.350000e+00
   SC6   SX2  1 4.100000e-01    2.350000e+00
   SC6   SX1  1 4.100000e-01    2.350000e+00
  SP6d   SC6  1 4.100000e-01    1.910000e+00
  SP5d   SC6  1 4.100000e-01    1.910000e+00
  SP4d   SC6  1 4.100000e-01    2.040000e+00
  SP3d   SC6  1 4.100000e-01    2.200000e+00
  SP2d   SC6  1 4.100000e-01    2.200000e+00
  SP1d   SC6  1 4.100000e-01    2.200000e+00
  SN6d   SC6  1 4.100000e-01    2.350000e+00
  SN5d   SC6  1 4.100000e-01    2.350000e+00
  SN4d   SC6  1 4.100000e-01    2.350000e+00
  SN3d   SC6  1 4.100000e-01    2.350000e+00
  SN2d   SC6  1 4.100000e-01    2.350000e+00
  SN1d   SC6  1 4.100000e-01    2.600000e+00
  SP6a   SC6  1 4.100000e-01    1.910000e+00
  SP5a   SC6  1 4.100000e-01    1.910000e+00
  SP4a   SC6  1 4.100000e-01    2.040000e+00
  SP3a   SC6  1 4.100000e-01    2.200000e+00
  SP2a   SC6  1 4.100000e-01    2.200000e+00
  SP1a   SC6  1 4.100000e-01    2.200000e+00
  SN6a   SC6  1 4.100000e-01    2.350000e+00
  SN5a   SC6  1 4.100000e-01    2.350000e+00
  SN4a   SC6  1 4.100000e-01    2.350000e+00
  SN3a   SC6  1 4.100000e-01    2.350000e+00
  SN2a   SC6  1 4.100000e-01    2.350000e+00
  SN1a   SC6  1 4.100000e-01    2.600000e+00
   SC6  SC6v  1 4.100000e-01    2.840000e+00
   SC6  SX1v  1 4.100000e-01    2.600000e+00
   SC6  SX2v  1 4.100000e-01    2.600000e+00
   SC6  SX3v  1 4.100000e-01    2.600000e+00
   SC6  SX4v  1 4.100000e-01    2.600000e+00
   SC6  SC1v  1 4.100000e-01    2.040000e+00
   SC6  SC2v  1 4.100000e-01    2.200000e+00
   SC6  SC3v  1 4.100000e-01    2.350000e+00
   SC6  SC4v  1 4.100000e-01    2.600000e+00
   SC6  SC5v  1 4.100000e-01    2.600000e+00
   SC6  SC6e  1 4.100000e-01    2.840000e+00
   SC6  SX1e  1 4.100000e-01    2.600000e+00
   SC6  SX2e  1 4.100000e-01    2.600000e+00
   SC6  SX3e  1 4.100000e-01    2.600000e+00
   SC6  SX4e  1 4.100000e-01    2.600000e+00
   SC6  SC1e  1 4.100000e-01    2.040000e+00
   SC6  SC2e  1 4.100000e-01    2.200000e+00
   SC6  SC3e  1 4.100000e-01    2.350000e+00
   SC6  SC4e  1 4.100000e-01    2.600000e+00
   SC6  SC5e  1 4.100000e-01    2.600000e+00
  SP6q   SC6  1 4.100000e-01    2.200000e+00
  SP5q   SC6  1 4.100000e-01    2.200000e+00
  SP4q   SC6  1 4.100000e-01    2.350000e+00
  SP3q   SC6  1 4.100000e-01    2.600000e+00
  SP2q   SC6  1 4.100000e-01    2.600000e+00
  SP1q   SC6  1 4.100000e-01    2.600000e+00
  SN6q   SC6  1 4.100000e-01    2.840000e+00
  SN5q   SC6  1 4.100000e-01    2.840000e+00
  SN4q   SC6  1 4.100000e-01    2.840000e+00
  SN3q   SC6  1 4.100000e-01    2.840000e+00
  SN2q   SC6  1 4.100000e-01    2.840000e+00
  SN1q   SC6  1 4.100000e-01    3.070000e+00
   SC6  SC6q  1 4.100000e-01    3.070000e+00
   SC6 SX1eq  1 4.100000e-01    3.070000e+00
   SC6 SX2eq  1 4.100000e-01    3.070000e+00
   SC6 SX3eq  1 4.100000e-01    3.070000e+00
   SC6 SX4eq  1 4.100000e-01    3.070000e+00
   SC6 SC1eq  1 4.100000e-01    2.350000e+00
   SC6 SC2eq  1 4.100000e-01    2.600000e+00
   SC6 SC3eq  1 4.100000e-01    2.840000e+00
   SC6 SC4eq  1 4.100000e-01    3.070000e+00
   SC6 SC5eq  1 4.100000e-01    3.070000e+00
   SC6 SC6eq  1 4.100000e-01    3.310000e+00
   SC6 SX1vq  1 4.100000e-01    3.070000e+00
   SC6 SX2vq  1 4.100000e-01    3.070000e+00
   SC6 SX3vq  1 4.100000e-01    3.070000e+00
   SC6 SX4vq  1 4.100000e-01    3.070000e+00
   SC6 SC1vq  1 4.100000e-01    2.350000e+00
   SC6 SC2vq  1 4.100000e-01    2.600000e+00
   SC6 SC3vq  1 4.100000e-01    2.840000e+00
   SC6 SC4vq  1 4.100000e-01    3.070000e+00
   SC6 SC5vq  1 4.100000e-01    3.070000e+00
   SC6 SC6vq  1 4.100000e-01    3.310000e+00
 SN1aq   SC6  1 4.100000e-01    3.070000e+00
 SN2aq   SC6  1 4.100000e-01    2.840000e+00
 SN3aq   SC6  1 4.100000e-01    2.840000e+00
 SN4aq   SC6  1 4.100000e-01    2.840000e+00
 SN5aq   SC6  1 4.100000e-01    2.840000e+00
 SN6aq   SC6  1 4.100000e-01    2.840000e+00
 SP1aq   SC6  1 4.100000e-01    2.600000e+00
 SP2aq   SC6  1 4.100000e-01    2.600000e+00
 SP3aq   SC6  1 4.100000e-01    2.600000e+00
 SP4aq   SC6  1 4.100000e-01    2.350000e+00
 SP5aq   SC6  1 4.100000e-01    2.200000e+00
 SP6aq   SC6  1 4.100000e-01    2.200000e+00
 SN1dq   SC6  1 4.100000e-01    3.070000e+00
 SN2dq   SC6  1 4.100000e-01    2.840000e+00
 SN3dq   SC6  1 4.100000e-01    2.840000e+00
 SN4dq   SC6  1 4.100000e-01    2.840000e+00
 SN5dq   SC6  1 4.100000e-01    2.840000e+00
 SN6dq   SC6  1 4.100000e-01    2.840000e+00
 SP1dq   SC6  1 4.100000e-01    2.600000e+00
 SP2dq   SC6  1 4.100000e-01    2.600000e+00
 SP3dq   SC6  1 4.100000e-01    2.600000e+00
 SP4dq   SC6  1 4.100000e-01    2.350000e+00
 SP5dq   SC6  1 4.100000e-01    2.200000e+00
 SP6dq   SC6  1 4.100000e-01    2.200000e+00
   SC6  SX1q  1 4.100000e-01    2.840000e+00
   SC6  SX2q  1 4.100000e-01    2.840000e+00
   SC6  SX3q  1 4.100000e-01    2.840000e+00
   SC6  SX4q  1 4.100000e-01    2.840000e+00
   SC6  SC1q  1 4.100000e-01    2.200000e+00
   SC6  SC2q  1 4.100000e-01    2.350000e+00
   SC6  SC3q  1 4.100000e-01    2.600000e+00
   SC6  SC4q  1 4.100000e-01    2.840000e+00
   SC6  SC5q  1 4.100000e-01    2.840000e+00
  SP6h   SC6  1 4.100000e-01    1.910000e+00
  SP5h   SC6  1 4.100000e-01    1.910000e+00
  SP4h   SC6  1 4.100000e-01    2.040000e+00
  SP3h   SC6  1 4.100000e-01    2.200000e+00
  SP2h   SC6  1 4.100000e-01    2.200000e+00
  SP1h   SC6  1 4.100000e-01    2.200000e+00
  SN6h   SC6  1 4.100000e-01    2.350000e+00
  SN5h   SC6  1 4.100000e-01    2.350000e+00
  SN4h   SC6  1 4.100000e-01    2.350000e+00
  SN3h   SC6  1 4.100000e-01    2.350000e+00
  SN2h   SC6  1 4.100000e-01    2.350000e+00
  SN1h   SC6  1 4.100000e-01    2.600000e+00
   SC6  SC6h  1 4.100000e-01    2.600000e+00
   SC6 SX1eh  1 4.100000e-01    2.600000e+00
   SC6 SX2eh  1 4.100000e-01    2.600000e+00
   SC6 SX3eh  1 4.100000e-01    2.600000e+00
   SC6 SX4eh  1 4.100000e-01    2.600000e+00
   SC6 SC1eh  1 4.100000e-01    2.040000e+00
   SC6 SC2eh  1 4.100000e-01    2.200000e+00
   SC6 SC3eh  1 4.100000e-01    2.350000e+00
   SC6 SC4eh  1 4.100000e-01    2.600000e+00
   SC6 SC5eh  1 4.100000e-01    2.600000e+00
   SC6 SC6eh  1 4.100000e-01    2.840000e+00
   SC6 SX1vh  1 4.100000e-01    2.600000e+00
   SC6 SX2vh  1 4.100000e-01    2.600000e+00
   SC6 SX3vh  1 4.100000e-01    2.600000e+00
   SC6 SX4vh  1 4.100000e-01    2.600000e+00
   SC6 SC1vh  1 4.100000e-01    2.040000e+00
   SC6 SC2vh  1 4.100000e-01    2.200000e+00
   SC6 SC3vh  1 4.100000e-01    2.350000e+00
   SC6 SC4vh  1 4.100000e-01    2.600000e+00
   SC6 SC5vh  1 4.100000e-01    2.600000e+00
   SC6 SC6vh  1 4.100000e-01    2.840000e+00
 SN1ah   SC6  1 4.100000e-01    2.600000e+00
 SN2ah   SC6  1 4.100000e-01    2.350000e+00
 SN3ah   SC6  1 4.100000e-01    2.350000e+00
 SN4ah   SC6  1 4.100000e-01    2.350000e+00
 SN5ah   SC6  1 4.100000e-01    2.350000e+00
 SN6ah   SC6  1 4.100000e-01    2.350000e+00
 SP1ah   SC6  1 4.100000e-01    2.200000e+00
 SP2ah   SC6  1 4.100000e-01    2.200000e+00
 SP3ah   SC6  1 4.100000e-01    2.200000e+00
 SP4ah   SC6  1 4.100000e-01    2.040000e+00
 SP5ah   SC6  1 4.100000e-01    1.910000e+00
 SP6ah   SC6  1 4.100000e-01    1.910000e+00
 SN1dh   SC6  1 4.100000e-01    2.600000e+00
 SN2dh   SC6  1 4.100000e-01    2.350000e+00
 SN3dh   SC6  1 4.100000e-01    2.350000e+00
 SN4dh   SC6  1 4.100000e-01    2.350000e+00
 SN5dh   SC6  1 4.100000e-01    2.350000e+00
 SN6dh   SC6  1 4.100000e-01    2.350000e+00
 SP1dh   SC6  1 4.100000e-01    2.200000e+00
 SP2dh   SC6  1 4.100000e-01    2.200000e+00
 SP3dh   SC6  1 4.100000e-01    2.200000e+00
 SP4dh   SC6  1 4.100000e-01    2.040000e+00
 SP5dh   SC6  1 4.100000e-01    1.910000e+00
 SP6dh   SC6  1 4.100000e-01    1.910000e+00
   SC6  SX1h  1 4.100000e-01    2.350000e+00
   SC6  SX2h  1 4.100000e-01    2.350000e+00
   SC6  SX3h  1 4.100000e-01    2.350000e+00
   SC6  SX4h  1 4.100000e-01    2.350000e+00
   SC6  SC1h  1 4.100000e-01    1.910000e+00
   SC6  SC2h  1 4.100000e-01    2.040000e+00
   SC6  SC3h  1 4.100000e-01    2.200000e+00
   SC6  SC4h  1 4.100000e-01    2.350000e+00
   SC6  SC5h  1 4.100000e-01    2.350000e+00
  SP6r   SC6  1 4.100000e-01    1.910000e+00
  SP5r   SC6  1 4.100000e-01    1.910000e+00
  SP4r   SC6  1 4.100000e-01    2.040000e+00
  SP3r   SC6  1 4.100000e-01    2.200000e+00
  SP2r   SC6  1 4.100000e-01    2.200000e+00
  SP1r   SC6  1 4.100000e-01    2.200000e+00
  SN6r   SC6  1 4.100000e-01    2.350000e+00
  SN5r   SC6  1 4.100000e-01    2.350000e+00
  SN4r   SC6  1 4.100000e-01    2.350000e+00
  SN3r   SC6  1 4.100000e-01    2.350000e+00
  SN2r   SC6  1 4.100000e-01    2.350000e+00
  SN1r   SC6  1 4.100000e-01    2.600000e+00
   SC6  SC6r  1 4.100000e-01    2.600000e+00
   SC6 SX1er  1 4.100000e-01    2.600000e+00
   SC6 SX2er  1 4.100000e-01    2.600000e+00
   SC6 SX3er  1 4.100000e-01    2.600000e+00
   SC6 SX4er  1 4.100000e-01    2.600000e+00
   SC6 SC1er  1 4.100000e-01    2.040000e+00
   SC6 SC2er  1 4.100000e-01    2.200000e+00
   SC6 SC3er  1 4.100000e-01    2.350000e+00
   SC6 SC4er  1 4.100000e-01    2.600000e+00
   SC6 SC5er  1 4.100000e-01    2.600000e+00
   SC6 SC6er  1 4.100000e-01    2.840000e+00
   SC6 SX1vr  1 4.100000e-01    2.600000e+00
   SC6 SX2vr  1 4.100000e-01    2.600000e+00
   SC6 SX3vr  1 4.100000e-01    2.600000e+00
   SC6 SX4vr  1 4.100000e-01    2.600000e+00
   SC6 SC1vr  1 4.100000e-01    2.040000e+00
   SC6 SC2vr  1 4.100000e-01    2.200000e+00
   SC6 SC3vr  1 4.100000e-01    2.350000e+00
   SC6 SC4vr  1 4.100000e-01    2.600000e+00
   SC6 SC5vr  1 4.100000e-01    2.600000e+00
   SC6 SC6vr  1 4.100000e-01    2.840000e+00
 SN1ar   SC6  1 4.100000e-01    2.600000e+00
 SN2ar   SC6  1 4.100000e-01    2.350000e+00
 SN3ar   SC6  1 4.100000e-01    2.350000e+00
 SN4ar   SC6  1 4.100000e-01    2.350000e+00
 SN5ar   SC6  1 4.100000e-01    2.350000e+00
 SN6ar   SC6  1 4.100000e-01    2.350000e+00
 SP1ar   SC6  1 4.100000e-01    2.200000e+00
 SP2ar   SC6  1 4.100000e-01    2.200000e+00
 SP3ar   SC6  1 4.100000e-01    2.200000e+00
 SP4ar   SC6  1 4.100000e-01    2.040000e+00
 SP5ar   SC6  1 4.100000e-01    1.910000e+00
 SP6ar   SC6  1 4.100000e-01    1.910000e+00
 SN1dr   SC6  1 4.100000e-01    2.600000e+00
 SN2dr   SC6  1 4.100000e-01    2.350000e+00
 SN3dr   SC6  1 4.100000e-01    2.350000e+00
 SN4dr   SC6  1 4.100000e-01    2.350000e+00
 SN5dr   SC6  1 4.100000e-01    2.350000e+00
 SN6dr   SC6  1 4.100000e-01    2.350000e+00
 SP1dr   SC6  1 4.100000e-01    2.200000e+00
 SP2dr   SC6  1 4.100000e-01    2.200000e+00
 SP3dr   SC6  1 4.100000e-01    2.200000e+00
 SP4dr   SC6  1 4.100000e-01    2.040000e+00
 SP5dr   SC6  1 4.100000e-01    1.910000e+00
 SP6dr   SC6  1 4.100000e-01    1.910000e+00
   SC6  SX1r  1 4.100000e-01    2.350000e+00
   SC6  SX2r  1 4.100000e-01    2.350000e+00
   SC6  SX3r  1 4.100000e-01    2.350000e+00
   SC6  SX4r  1 4.100000e-01    2.350000e+00
   SC6  SC1r  1 4.100000e-01    1.910000e+00
   SC6  SC2r  1 4.100000e-01    2.040000e+00
   SC6  SC3r  1 4.100000e-01    2.200000e+00
   SC6  SC4r  1 4.100000e-01    2.350000e+00
   SC6  SC5r  1 4.100000e-01    2.350000e+00
   SC6   TC6  1 3.650000e-01    2.110000e+00
   SC6   TC5  1 3.650000e-01    1.910000e+00
   SC6   TC4  1 3.650000e-01    1.910000e+00
   SC6   TC3  1 3.650000e-01    1.750000e+00
   SC6   TC2  1 3.660000e-01    1.600000e+00
   SC6   TC1  1 3.780000e-01    1.450000e+00
   SC6   TX4  1 3.650000e-01    1.910000e+00
   SC6   TX3  1 3.650000e-01    1.910000e+00
   SC6   TX2  1 3.650000e-01    1.910000e+00
   SC6   TX1  1 3.650000e-01    1.910000e+00
   SC6  TC6v  1 3.650000e-01    2.340000e+00
   SC6  TX1v  1 3.650000e-01    2.110000e+00
   SC6  TX2v  1 3.650000e-01    2.110000e+00
   SC6  TX3v  1 3.650000e-01    2.110000e+00
   SC6  TX4v  1 3.650000e-01    2.110000e+00
   SC6  TC1v  1 3.660000e-01    1.600000e+00
   SC6  TC2v  1 3.650000e-01    1.750000e+00
   SC6  TC3v  1 3.650000e-01    1.910000e+00
   SC6  TC4v  1 3.650000e-01    2.110000e+00
   SC6  TC5v  1 3.650000e-01    2.110000e+00
   SC6  TC6e  1 3.650000e-01    2.340000e+00
   SC6  TX1e  1 3.650000e-01    2.110000e+00
   SC6  TX2e  1 3.650000e-01    2.110000e+00
   SC6  TX3e  1 3.650000e-01    2.110000e+00
   SC6  TX4e  1 3.650000e-01    2.110000e+00
   SC6  TC1e  1 3.660000e-01    1.600000e+00
   SC6  TC2e  1 3.650000e-01    1.750000e+00
   SC6  TC3e  1 3.650000e-01    1.910000e+00
   SC6  TC4e  1 3.650000e-01    2.110000e+00
   SC6  TC5e  1 3.650000e-01    2.110000e+00
   SC6  TC6q  1 3.650000e-01    2.570000e+00
   SC6 TX1eq  1 3.650000e-01    2.570000e+00
   SC6 TX2eq  1 3.650000e-01    2.570000e+00
   SC6 TX3eq  1 3.650000e-01    2.570000e+00
   SC6 TX4eq  1 3.650000e-01    2.570000e+00
   SC6 TC1eq  1 3.650000e-01    1.910000e+00
   SC6 TC2eq  1 3.650000e-01    2.110000e+00
   SC6 TC3eq  1 3.650000e-01    2.340000e+00
   SC6 TC4eq  1 3.650000e-01    2.570000e+00
   SC6 TC5eq  1 3.650000e-01    2.570000e+00
   SC6 TC6eq  1 3.650000e-01    2.830000e+00
   SC6 TX1vq  1 3.650000e-01    2.570000e+00
   SC6 TX2vq  1 3.650000e-01    2.570000e+00
   SC6 TX3vq  1 3.650000e-01    2.570000e+00
   SC6 TX4vq  1 3.650000e-01    2.570000e+00
   SC6 TC1vq  1 3.650000e-01    1.910000e+00
   SC6 TC2vq  1 3.650000e-01    2.110000e+00
   SC6 TC3vq  1 3.650000e-01    2.340000e+00
   SC6 TC4vq  1 3.650000e-01    2.570000e+00
   SC6 TC5vq  1 3.650000e-01    2.570000e+00
   SC6 TC6vq  1 3.650000e-01    2.830000e+00
   SC6  TX1q  1 3.650000e-01    2.340000e+00
   SC6  TX2q  1 3.650000e-01    2.340000e+00
   SC6  TX3q  1 3.650000e-01    2.340000e+00
   SC6  TX4q  1 3.650000e-01    2.340000e+00
   SC6  TC1q  1 3.650000e-01    1.750000e+00
   SC6  TC2q  1 3.650000e-01    1.910000e+00
   SC6  TC3q  1 3.650000e-01    2.110000e+00
   SC6  TC4q  1 3.650000e-01    2.340000e+00
   SC6  TC5q  1 3.650000e-01    2.340000e+00
   SC6  TC6h  1 3.650000e-01    2.110000e+00
   SC6 TX1eh  1 3.650000e-01    2.110000e+00
   SC6 TX2eh  1 3.650000e-01    2.110000e+00
   SC6 TX3eh  1 3.650000e-01    2.110000e+00
   SC6 TX4eh  1 3.650000e-01    2.110000e+00
   SC6 TC1eh  1 3.660000e-01    1.600000e+00
   SC6 TC2eh  1 3.650000e-01    1.750000e+00
   SC6 TC3eh  1 3.650000e-01    1.910000e+00
   SC6 TC4eh  1 3.650000e-01    2.110000e+00
   SC6 TC5eh  1 3.650000e-01    2.110000e+00
   SC6 TC6eh  1 3.650000e-01    2.340000e+00
   SC6 TX1vh  1 3.650000e-01    2.110000e+00
   SC6 TX2vh  1 3.650000e-01    2.110000e+00
   SC6 TX3vh  1 3.650000e-01    2.110000e+00
   SC6 TX4vh  1 3.650000e-01    2.110000e+00
   SC6 TC1vh  1 3.660000e-01    1.600000e+00
   SC6 TC2vh  1 3.650000e-01    1.750000e+00
   SC6 TC3vh  1 3.650000e-01    1.910000e+00
   SC6 TC4vh  1 3.650000e-01    2.110000e+00
   SC6 TC5vh  1 3.650000e-01    2.110000e+00
   SC6 TC6vh  1 3.650000e-01    2.340000e+00
   SC6  TX1h  1 3.650000e-01    1.910000e+00
   SC6  TX2h  1 3.650000e-01    1.910000e+00
   SC6  TX3h  1 3.650000e-01    1.910000e+00
   SC6  TX4h  1 3.650000e-01    1.910000e+00
   SC6  TC1h  1 3.780000e-01    1.450000e+00
   SC6  TC2h  1 3.660000e-01    1.600000e+00
   SC6  TC3h  1 3.650000e-01    1.750000e+00
   SC6  TC4h  1 3.650000e-01    1.910000e+00
   SC6  TC5h  1 3.650000e-01    1.910000e+00
   SC6  TC6r  1 3.650000e-01    2.110000e+00
   SC6 TX1er  1 3.650000e-01    2.110000e+00
   SC6 TX2er  1 3.650000e-01    2.110000e+00
   SC6 TX3er  1 3.650000e-01    2.110000e+00
   SC6 TX4er  1 3.650000e-01    2.110000e+00
   SC6 TC1er  1 3.660000e-01    1.600000e+00
   SC6 TC2er  1 3.650000e-01    1.750000e+00
   SC6 TC3er  1 3.650000e-01    1.910000e+00
   SC6 TC4er  1 3.650000e-01    2.110000e+00
   SC6 TC5er  1 3.650000e-01    2.110000e+00
   SC6 TC6er  1 3.650000e-01    2.340000e+00
   SC6 TX1vr  1 3.650000e-01    2.110000e+00
   SC6 TX2vr  1 3.650000e-01    2.110000e+00
   SC6 TX3vr  1 3.650000e-01    2.110000e+00
   SC6 TX4vr  1 3.650000e-01    2.110000e+00
   SC6 TC1vr  1 3.660000e-01    1.600000e+00
   SC6 TC2vr  1 3.650000e-01    1.750000e+00
   SC6 TC3vr  1 3.650000e-01    1.910000e+00
   SC6 TC4vr  1 3.650000e-01    2.110000e+00
   SC6 TC5vr  1 3.650000e-01    2.110000e+00
   SC6 TC6vr  1 3.650000e-01    2.340000e+00
   SC6  TX1r  1 3.650000e-01    1.910000e+00
   SC6  TX2r  1 3.650000e-01    1.910000e+00
   SC6  TX3r  1 3.650000e-01    1.910000e+00
   SC6  TX4r  1 3.650000e-01    1.910000e+00
   SC6  TC1r  1 3.780000e-01    1.450000e+00
   SC6  TC2r  1 3.660000e-01    1.600000e+00
   SC6  TC3r  1 3.650000e-01    1.750000e+00
   SC6  TC4r  1 3.650000e-01    1.910000e+00
   SC6  TC5r  1 3.650000e-01    1.910000e+00
  TP6d   SC6  1 3.780000e-01    1.450000e+00
  TP5d   SC6  1 3.780000e-01    1.450000e+00
  TP4d   SC6  1 3.660000e-01    1.600000e+00
  TP3d   SC6  1 3.650000e-01    1.750000e+00
  TP2d   SC6  1 3.650000e-01    1.750000e+00
  TP1d   SC6  1 3.650000e-01    1.750000e+00
  TN6d   SC6  1 3.650000e-01    1.910000e+00
  TN5d   SC6  1 3.650000e-01    1.910000e+00
  TN4d   SC6  1 3.650000e-01    1.910000e+00
  TN3d   SC6  1 3.650000e-01    1.910000e+00
  TN2d   SC6  1 3.650000e-01    1.910000e+00
  TN1d   SC6  1 3.650000e-01    2.110000e+00
  TP6a   SC6  1 3.780000e-01    1.450000e+00
  TP5a   SC6  1 3.780000e-01    1.450000e+00
  TP4a   SC6  1 3.660000e-01    1.600000e+00
  TP3a   SC6  1 3.650000e-01    1.750000e+00
  TP2a   SC6  1 3.650000e-01    1.750000e+00
  TP1a   SC6  1 3.650000e-01    1.750000e+00
  TN6a   SC6  1 3.650000e-01    1.910000e+00
  TN5a   SC6  1 3.650000e-01    1.910000e+00
  TN4a   SC6  1 3.650000e-01    1.910000e+00
  TN3a   SC6  1 3.650000e-01    1.910000e+00
  TN2a   SC6  1 3.650000e-01    1.910000e+00
  TN1a   SC6  1 3.650000e-01    2.110000e+00
  TP6q   SC6  1 3.650000e-01    1.750000e+00
  TP5q   SC6  1 3.650000e-01    1.750000e+00
  TP4q   SC6  1 3.650000e-01    1.910000e+00
  TP3q   SC6  1 3.650000e-01    2.110000e+00
  TP2q   SC6  1 3.650000e-01    2.110000e+00
  TP1q   SC6  1 3.650000e-01    2.110000e+00
  TN6q   SC6  1 3.650000e-01    2.340000e+00
  TN5q   SC6  1 3.650000e-01    2.340000e+00
  TN4q   SC6  1 3.650000e-01    2.340000e+00
  TN3q   SC6  1 3.650000e-01    2.340000e+00
  TN2q   SC6  1 3.650000e-01    2.340000e+00
  TN1q   SC6  1 3.650000e-01    2.570000e+00
 TN1aq   SC6  1 3.650000e-01    2.570000e+00
 TN2aq   SC6  1 3.650000e-01    2.340000e+00
 TN3aq   SC6  1 3.650000e-01    2.340000e+00
 TN4aq   SC6  1 3.650000e-01    2.340000e+00
 TN5aq   SC6  1 3.650000e-01    2.340000e+00
 TN6aq   SC6  1 3.650000e-01    2.340000e+00
 TP1aq   SC6  1 3.650000e-01    2.110000e+00
 TP2aq   SC6  1 3.650000e-01    2.110000e+00
 TP3aq   SC6  1 3.650000e-01    2.110000e+00
 TP4aq   SC6  1 3.650000e-01    1.910000e+00
 TP5aq   SC6  1 3.650000e-01    1.750000e+00
 TP6aq   SC6  1 3.650000e-01    1.750000e+00
 TN1dq   SC6  1 3.650000e-01    2.570000e+00
 TN2dq   SC6  1 3.650000e-01    2.340000e+00
 TN3dq   SC6  1 3.650000e-01    2.340000e+00
 TN4dq   SC6  1 3.650000e-01    2.340000e+00
 TN5dq   SC6  1 3.650000e-01    2.340000e+00
 TN6dq   SC6  1 3.650000e-01    2.340000e+00
 TP1dq   SC6  1 3.650000e-01    2.110000e+00
 TP2dq   SC6  1 3.650000e-01    2.110000e+00
 TP3dq   SC6  1 3.650000e-01    2.110000e+00
 TP4dq   SC6  1 3.650000e-01    1.910000e+00
 TP5dq   SC6  1 3.650000e-01    1.750000e+00
 TP6dq   SC6  1 3.650000e-01    1.750000e+00
  TP6h   SC6  1 3.780000e-01    1.450000e+00
  TP5h   SC6  1 3.780000e-01    1.450000e+00
  TP4h   SC6  1 3.660000e-01    1.600000e+00
  TP3h   SC6  1 3.650000e-01    1.750000e+00
  TP2h   SC6  1 3.650000e-01    1.750000e+00
  TP1h   SC6  1 3.650000e-01    1.750000e+00
  TN6h   SC6  1 3.650000e-01    1.910000e+00
  TN5h   SC6  1 3.650000e-01    1.910000e+00
  TN4h   SC6  1 3.650000e-01    1.910000e+00
  TN3h   SC6  1 3.650000e-01    1.910000e+00
  TN2h   SC6  1 3.650000e-01    1.910000e+00
  TN1h   SC6  1 3.650000e-01    2.110000e+00
 TN1ah   SC6  1 3.650000e-01    2.110000e+00
 TN2ah   SC6  1 3.650000e-01    1.910000e+00
 TN3ah   SC6  1 3.650000e-01    1.910000e+00
 TN4ah   SC6  1 3.650000e-01    1.910000e+00
 TN5ah   SC6  1 3.650000e-01    1.910000e+00
 TN6ah   SC6  1 3.650000e-01    1.910000e+00
 TP1ah   SC6  1 3.650000e-01    1.750000e+00
 TP2ah   SC6  1 3.650000e-01    1.750000e+00
 TP3ah   SC6  1 3.650000e-01    1.750000e+00
 TP4ah   SC6  1 3.660000e-01    1.600000e+00
 TP5ah   SC6  1 3.780000e-01    1.450000e+00
 TP6ah   SC6  1 3.780000e-01    1.450000e+00
 TN1dh   SC6  1 3.650000e-01    2.110000e+00
 TN2dh   SC6  1 3.650000e-01    1.910000e+00
 TN3dh   SC6  1 3.650000e-01    1.910000e+00
 TN4dh   SC6  1 3.650000e-01    1.910000e+00
 TN5dh   SC6  1 3.650000e-01    1.910000e+00
 TN6dh   SC6  1 3.650000e-01    1.910000e+00
 TP1dh   SC6  1 3.650000e-01    1.750000e+00
 TP2dh   SC6  1 3.650000e-01    1.750000e+00
 TP3dh   SC6  1 3.650000e-01    1.750000e+00
 TP4dh   SC6  1 3.660000e-01    1.600000e+00
 TP5dh   SC6  1 3.780000e-01    1.450000e+00
 TP6dh   SC6  1 3.780000e-01    1.450000e+00
  TP6r   SC6  1 3.780000e-01    1.450000e+00
  TP5r   SC6  1 3.780000e-01    1.450000e+00
  TP4r   SC6  1 3.660000e-01    1.600000e+00
  TP3r   SC6  1 3.650000e-01    1.750000e+00
  TP2r   SC6  1 3.650000e-01    1.750000e+00
  TP1r   SC6  1 3.650000e-01    1.750000e+00
  TN6r   SC6  1 3.650000e-01    1.910000e+00
  TN5r   SC6  1 3.650000e-01    1.910000e+00
  TN4r   SC6  1 3.650000e-01    1.910000e+00
  TN3r   SC6  1 3.650000e-01    1.910000e+00
  TN2r   SC6  1 3.650000e-01    1.910000e+00
  TN1r   SC6  1 3.650000e-01    2.110000e+00
 TN1ar   SC6  1 3.650000e-01    2.110000e+00
 TN2ar   SC6  1 3.650000e-01    1.910000e+00
 TN3ar   SC6  1 3.650000e-01    1.910000e+00
 TN4ar   SC6  1 3.650000e-01    1.910000e+00
 TN5ar   SC6  1 3.650000e-01    1.910000e+00
 TN6ar   SC6  1 3.650000e-01    1.910000e+00
 TP1ar   SC6  1 3.650000e-01    1.750000e+00
 TP2ar   SC6  1 3.650000e-01    1.750000e+00
 TP3ar   SC6  1 3.650000e-01    1.750000e+00
 TP4ar   SC6  1 3.660000e-01    1.600000e+00
 TP5ar   SC6  1 3.780000e-01    1.450000e+00
 TP6ar   SC6  1 3.780000e-01    1.450000e+00
 TN1dr   SC6  1 3.650000e-01    2.110000e+00
 TN2dr   SC6  1 3.650000e-01    1.910000e+00
 TN3dr   SC6  1 3.650000e-01    1.910000e+00
 TN4dr   SC6  1 3.650000e-01    1.910000e+00
 TN5dr   SC6  1 3.650000e-01    1.910000e+00
 TN6dr   SC6  1 3.650000e-01    1.910000e+00
 TP1dr   SC6  1 3.650000e-01    1.750000e+00
 TP2dr   SC6  1 3.650000e-01    1.750000e+00
 TP3dr   SC6  1 3.650000e-01    1.750000e+00
 TP4dr   SC6  1 3.660000e-01    1.600000e+00
 TP5dr   SC6  1 3.780000e-01    1.450000e+00
 TP6dr   SC6  1 3.780000e-01    1.450000e+00
   P6d   TC6  1 3.950000e-01    1.670000e+00
   P5d   TC6  1 3.950000e-01    1.670000e+00
   P4d   TC6  1 3.950000e-01    1.850000e+00
   P3d   TC6  1 3.950000e-01    2.110000e+00
   P2d   TC6  1 3.950000e-01    2.110000e+00
   P1d   TC6  1 3.950000e-01    2.110000e+00
   N6d   TC6  1 3.950000e-01    2.310000e+00
   N5d   TC6  1 3.950000e-01    2.310000e+00
   N4d   TC6  1 3.950000e-01    2.310000e+00
   N3d   TC6  1 3.950000e-01    2.310000e+00
   N2d   TC6  1 3.950000e-01    2.310000e+00
   N1d   TC6  1 3.950000e-01    2.500000e+00
   P6a   TC6  1 3.950000e-01    1.670000e+00
   P5a   TC6  1 3.950000e-01    1.670000e+00
   P4a   TC6  1 3.950000e-01    1.850000e+00
   P3a   TC6  1 3.950000e-01    2.110000e+00
   P2a   TC6  1 3.950000e-01    2.110000e+00
   P1a   TC6  1 3.950000e-01    2.110000e+00
   N6a   TC6  1 3.950000e-01    2.310000e+00
   N5a   TC6  1 3.950000e-01    2.310000e+00
   N4a   TC6  1 3.950000e-01    2.310000e+00
   N3a   TC6  1 3.950000e-01    2.310000e+00
   N2a   TC6  1 3.950000e-01    2.310000e+00
   N1a   TC6  1 3.950000e-01    2.500000e+00
   P6q   TC6  1 3.950000e-01    2.110000e+00
   P5q   TC6  1 3.950000e-01    2.110000e+00
   P4q   TC6  1 3.950000e-01    2.310000e+00
   P3q   TC6  1 3.950000e-01    2.500000e+00
   P2q   TC6  1 3.950000e-01    2.500000e+00
   P1q   TC6  1 3.950000e-01    2.500000e+00
   N6q   TC6  1 3.950000e-01    2.700000e+00
   N5q   TC6  1 3.950000e-01    2.700000e+00
   N4q   TC6  1 3.950000e-01    2.700000e+00
   N3q   TC6  1 3.950000e-01    2.700000e+00
   N2q   TC6  1 3.950000e-01    2.700000e+00
   N1q   TC6  1 3.950000e-01    2.940000e+00
  N1aq   TC6  1 3.950000e-01    2.940000e+00
  N2aq   TC6  1 3.950000e-01    2.700000e+00
  N3aq   TC6  1 3.950000e-01    2.700000e+00
  N4aq   TC6  1 3.950000e-01    2.700000e+00
  N5aq   TC6  1 3.950000e-01    2.700000e+00
  N6aq   TC6  1 3.950000e-01    2.700000e+00
  P1aq   TC6  1 3.950000e-01    2.500000e+00
  P2aq   TC6  1 3.950000e-01    2.500000e+00
  P3aq   TC6  1 3.950000e-01    2.500000e+00
  P4aq   TC6  1 3.950000e-01    2.310000e+00
  P5aq   TC6  1 3.950000e-01    2.110000e+00
  P6aq   TC6  1 3.950000e-01    2.110000e+00
  N1dq   TC6  1 3.950000e-01    2.940000e+00
  N2dq   TC6  1 3.950000e-01    2.700000e+00
  N3dq   TC6  1 3.950000e-01    2.700000e+00
  N4dq   TC6  1 3.950000e-01    2.700000e+00
  N5dq   TC6  1 3.950000e-01    2.700000e+00
  N6dq   TC6  1 3.950000e-01    2.700000e+00
  P1dq   TC6  1 3.950000e-01    2.500000e+00
  P2dq   TC6  1 3.950000e-01    2.500000e+00
  P3dq   TC6  1 3.950000e-01    2.500000e+00
  P4dq   TC6  1 3.950000e-01    2.310000e+00
  P5dq   TC6  1 3.950000e-01    2.110000e+00
  P6dq   TC6  1 3.950000e-01    2.110000e+00
   P6h   TC6  1 3.950000e-01    1.670000e+00
   P5h   TC6  1 3.950000e-01    1.670000e+00
   P4h   TC6  1 3.950000e-01    1.850000e+00
   P3h   TC6  1 3.950000e-01    2.110000e+00
   P2h   TC6  1 3.950000e-01    2.110000e+00
   P1h   TC6  1 3.950000e-01    2.110000e+00
   N6h   TC6  1 3.950000e-01    2.310000e+00
   N5h   TC6  1 3.950000e-01    2.310000e+00
   N4h   TC6  1 3.950000e-01    2.310000e+00
   N3h   TC6  1 3.950000e-01    2.310000e+00
   N2h   TC6  1 3.950000e-01    2.310000e+00
   N1h   TC6  1 3.950000e-01    2.500000e+00
  N1ah   TC6  1 3.950000e-01    2.500000e+00
  N2ah   TC6  1 3.950000e-01    2.310000e+00
  N3ah   TC6  1 3.950000e-01    2.310000e+00
  N4ah   TC6  1 3.950000e-01    2.310000e+00
  N5ah   TC6  1 3.950000e-01    2.310000e+00
  N6ah   TC6  1 3.950000e-01    2.310000e+00
  P1ah   TC6  1 3.950000e-01    2.110000e+00
  P2ah   TC6  1 3.950000e-01    2.110000e+00
  P3ah   TC6  1 3.950000e-01    2.110000e+00
  P4ah   TC6  1 3.950000e-01    1.850000e+00
  P5ah   TC6  1 3.950000e-01    1.670000e+00
  P6ah   TC6  1 3.950000e-01    1.670000e+00
  N1dh   TC6  1 3.950000e-01    2.500000e+00
  N2dh   TC6  1 3.950000e-01    2.310000e+00
  N3dh   TC6  1 3.950000e-01    2.310000e+00
  N4dh   TC6  1 3.950000e-01    2.310000e+00
  N5dh   TC6  1 3.950000e-01    2.310000e+00
  N6dh   TC6  1 3.950000e-01    2.310000e+00
  P1dh   TC6  1 3.950000e-01    2.110000e+00
  P2dh   TC6  1 3.950000e-01    2.110000e+00
  P3dh   TC6  1 3.950000e-01    2.110000e+00
  P4dh   TC6  1 3.950000e-01    1.850000e+00
  P5dh   TC6  1 3.950000e-01    1.670000e+00
  P6dh   TC6  1 3.950000e-01    1.670000e+00
   P6r   TC6  1 3.950000e-01    1.670000e+00
   P5r   TC6  1 3.950000e-01    1.670000e+00
   P4r   TC6  1 3.950000e-01    1.850000e+00
   P3r   TC6  1 3.950000e-01    2.110000e+00
   P2r   TC6  1 3.950000e-01    2.110000e+00
   P1r   TC6  1 3.950000e-01    2.110000e+00
   N6r   TC6  1 3.950000e-01    2.310000e+00
   N5r   TC6  1 3.950000e-01    2.310000e+00
   N4r   TC6  1 3.950000e-01    2.310000e+00
   N3r   TC6  1 3.950000e-01    2.310000e+00
   N2r   TC6  1 3.950000e-01    2.310000e+00
   N1r   TC6  1 3.950000e-01    2.500000e+00
  N1ar   TC6  1 3.950000e-01    2.500000e+00
  N2ar   TC6  1 3.950000e-01    2.310000e+00
  N3ar   TC6  1 3.950000e-01    2.310000e+00
  N4ar   TC6  1 3.950000e-01    2.310000e+00
  N5ar   TC6  1 3.950000e-01    2.310000e+00
  N6ar   TC6  1 3.950000e-01    2.310000e+00
  P1ar   TC6  1 3.950000e-01    2.110000e+00
  P2ar   TC6  1 3.950000e-01    2.110000e+00
  P3ar   TC6  1 3.950000e-01    2.110000e+00
  P4ar   TC6  1 3.950000e-01    1.850000e+00
  P5ar   TC6  1 3.950000e-01    1.670000e+00
  P6ar   TC6  1 3.950000e-01    1.670000e+00
  N1dr   TC6  1 3.950000e-01    2.500000e+00
  N2dr   TC6  1 3.950000e-01    2.310000e+00
  N3dr   TC6  1 3.950000e-01    2.310000e+00
  N4dr   TC6  1 3.950000e-01    2.310000e+00
  N5dr   TC6  1 3.950000e-01    2.310000e+00
  N6dr   TC6  1 3.950000e-01    2.310000e+00
  P1dr   TC6  1 3.950000e-01    2.110000e+00
  P2dr   TC6  1 3.950000e-01    2.110000e+00
  P3dr   TC6  1 3.950000e-01    2.110000e+00
  P4dr   TC6  1 3.950000e-01    1.850000e+00
  P5dr   TC6  1 3.950000e-01    1.670000e+00
  P6dr   TC6  1 3.950000e-01    1.670000e+00
   TC6    C5  1 3.950000e-01    2.310000e+00
   TC6    C4  1 3.950000e-01    2.310000e+00
   TC6    C3  1 3.950000e-01    2.110000e+00
   TC6    C2  1 3.950000e-01    1.850000e+00
   TC6    C1  1 3.950000e-01    1.670000e+00
   TC6    X4  1 3.950000e-01    2.310000e+00
   TC6    X3  1 3.950000e-01    2.310000e+00
   TC6    X2  1 3.950000e-01    2.310000e+00
   TC6    X1  1 3.950000e-01    2.310000e+00
   TC6   C6v  1 3.950000e-01    2.700000e+00
   TC6   X1v  1 3.950000e-01    2.500000e+00
   TC6   X2v  1 3.950000e-01    2.500000e+00
   TC6   X3v  1 3.950000e-01    2.500000e+00
   TC6   X4v  1 3.950000e-01    2.500000e+00
   TC6   C1v  1 3.950000e-01    1.850000e+00
   TC6   C2v  1 3.950000e-01    2.110000e+00
   TC6   C3v  1 3.950000e-01    2.310000e+00
   TC6   C4v  1 3.950000e-01    2.500000e+00
   TC6   C5v  1 3.950000e-01    2.500000e+00
   TC6   C6e  1 3.950000e-01    2.700000e+00
   TC6   X1e  1 3.950000e-01    2.500000e+00
   TC6   X2e  1 3.950000e-01    2.500000e+00
   TC6   X3e  1 3.950000e-01    2.500000e+00
   TC6   X4e  1 3.950000e-01    2.500000e+00
   TC6   C1e  1 3.950000e-01    1.850000e+00
   TC6   C2e  1 3.950000e-01    2.110000e+00
   TC6   C3e  1 3.950000e-01    2.310000e+00
   TC6   C4e  1 3.950000e-01    2.500000e+00
   TC6   C5e  1 3.950000e-01    2.500000e+00
   TC6   C6q  1 3.950000e-01    2.940000e+00
   TC6  X1eq  1 3.950000e-01    2.940000e+00
   TC6  X2eq  1 3.950000e-01    2.940000e+00
   TC6  X3eq  1 3.950000e-01    2.940000e+00
   TC6  X4eq  1 3.950000e-01    2.940000e+00
   TC6  C1eq  1 3.950000e-01    2.310000e+00
   TC6  C2eq  1 3.950000e-01    2.500000e+00
   TC6  C3eq  1 3.950000e-01    2.700000e+00
   TC6  C4eq  1 3.950000e-01    2.940000e+00
   TC6  C5eq  1 3.950000e-01    2.940000e+00
   TC6  C6eq  1 3.950000e-01    3.190000e+00
   TC6  X1vq  1 3.950000e-01    2.940000e+00
   TC6  X2vq  1 3.950000e-01    2.940000e+00
   TC6  X3vq  1 3.950000e-01    2.940000e+00
   TC6  X4vq  1 3.950000e-01    2.940000e+00
   TC6  C1vq  1 3.950000e-01    2.310000e+00
   TC6  C2vq  1 3.950000e-01    2.500000e+00
   TC6  C3vq  1 3.950000e-01    2.700000e+00
   TC6  C4vq  1 3.950000e-01    2.940000e+00
   TC6  C5vq  1 3.950000e-01    2.940000e+00
   TC6  C6vq  1 3.950000e-01    3.190000e+00
   TC6   X1q  1 3.950000e-01    2.700000e+00
   TC6   X2q  1 3.950000e-01    2.700000e+00
   TC6   X3q  1 3.950000e-01    2.700000e+00
   TC6   X4q  1 3.950000e-01    2.700000e+00
   TC6   C1q  1 3.950000e-01    2.110000e+00
   TC6   C2q  1 3.950000e-01    2.310000e+00
   TC6   C3q  1 3.950000e-01    2.500000e+00
   TC6   C4q  1 3.950000e-01    2.700000e+00
   TC6   C5q  1 3.950000e-01    2.700000e+00
   TC6   C6h  1 3.950000e-01    2.500000e+00
   TC6  X1eh  1 3.950000e-01    2.500000e+00
   TC6  X2eh  1 3.950000e-01    2.500000e+00
   TC6  X3eh  1 3.950000e-01    2.500000e+00
   TC6  X4eh  1 3.950000e-01    2.500000e+00
   TC6  C1eh  1 3.950000e-01    1.850000e+00
   TC6  C2eh  1 3.950000e-01    2.110000e+00
   TC6  C3eh  1 3.950000e-01    2.310000e+00
   TC6  C4eh  1 3.950000e-01    2.500000e+00
   TC6  C5eh  1 3.950000e-01    2.500000e+00
   TC6  C6eh  1 3.950000e-01    2.700000e+00
   TC6  X1vh  1 3.950000e-01    2.500000e+00
   TC6  X2vh  1 3.950000e-01    2.500000e+00
   TC6  X3vh  1 3.950000e-01    2.500000e+00
   TC6  X4vh  1 3.950000e-01    2.500000e+00
   TC6  C1vh  1 3.950000e-01    1.850000e+00
   TC6  C2vh  1 3.950000e-01    2.110000e+00
   TC6  C3vh  1 3.950000e-01    2.310000e+00
   TC6  C4vh  1 3.950000e-01    2.500000e+00
   TC6  C5vh  1 3.950000e-01    2.500000e+00
   TC6  C6vh  1 3.950000e-01    2.700000e+00
   TC6   X1h  1 3.950000e-01    2.310000e+00
   TC6   X2h  1 3.950000e-01    2.310000e+00
   TC6   X3h  1 3.950000e-01    2.310000e+00
   TC6   X4h  1 3.950000e-01    2.310000e+00
   TC6   C1h  1 3.950000e-01    1.670000e+00
   TC6   C2h  1 3.950000e-01    1.850000e+00
   TC6   C3h  1 3.950000e-01    2.110000e+00
   TC6   C4h  1 3.950000e-01    2.310000e+00
   TC6   C5h  1 3.950000e-01    2.310000e+00
   TC6   C6r  1 3.950000e-01    2.500000e+00
   TC6  X1er  1 3.950000e-01    2.500000e+00
   TC6  X2er  1 3.950000e-01    2.500000e+00
   TC6  X3er  1 3.950000e-01    2.500000e+00
   TC6  X4er  1 3.950000e-01    2.500000e+00
   TC6  C1er  1 3.950000e-01    1.850000e+00
   TC6  C2er  1 3.950000e-01    2.110000e+00
   TC6  C3er  1 3.950000e-01    2.310000e+00
   TC6  C4er  1 3.950000e-01    2.500000e+00
   TC6  C5er  1 3.950000e-01    2.500000e+00
   TC6  C6er  1 3.950000e-01    2.700000e+00
   TC6  X1vr  1 3.950000e-01    2.500000e+00
   TC6  X2vr  1 3.950000e-01    2.500000e+00
   TC6  X3vr  1 3.950000e-01    2.500000e+00
   TC6  X4vr  1 3.950000e-01    2.500000e+00
   TC6  C1vr  1 3.950000e-01    1.850000e+00
   TC6  C2vr  1 3.950000e-01    2.110000e+00
   TC6  C3vr  1 3.950000e-01    2.310000e+00
   TC6  C4vr  1 3.950000e-01    2.500000e+00
   TC6  C5vr  1 3.950000e-01    2.500000e+00
   TC6  C6vr  1 3.950000e-01    2.700000e+00
   TC6   X1r  1 3.950000e-01    2.310000e+00
   TC6   X2r  1 3.950000e-01    2.310000e+00
   TC6   X3r  1 3.950000e-01    2.310000e+00
   TC6   X4r  1 3.950000e-01    2.310000e+00
   TC6   C1r  1 3.950000e-01    1.670000e+00
   TC6   C2r  1 3.950000e-01    1.850000e+00
   TC6   C3r  1 3.950000e-01    2.110000e+00
   TC6   C4r  1 3.950000e-01    2.310000e+00
   TC6   C5r  1 3.950000e-01    2.310000e+00
   TC6   TC6  1 3.400000e-01    1.770000e+00
   TC6   TC5  1 3.400000e-01    1.510000e+00
   TC6   TC4  1 3.400000e-01    1.510000e+00
   TC6   TC3  1 3.400000e-01    1.230000e+00
   TC6   TC2  1 3.520000e-01    1.050000e+00
   TC6   TC1  1 3.660000e-01    9.350000e-01
   TC6   TX4  1 3.400000e-01    1.510000e+00
   TC6   TX3  1 3.400000e-01    1.510000e+00
   TC6   TX2  1 3.400000e-01    1.510000e+00
   TC6   TX1  1 3.400000e-01    1.510000e+00
  TP6d   TC6  1 3.660000e-01    9.350000e-01
  TP5d   TC6  1 3.660000e-01    9.350000e-01
  TP4d   TC6  1 3.520000e-01    1.050000e+00
  TP3d   TC6  1 3.400000e-01    1.230000e+00
  TP2d   TC6  1 3.400000e-01    1.230000e+00
  TP1d   TC6  1 3.400000e-01    1.230000e+00
  TN6d   TC6  1 3.400000e-01    1.510000e+00
  TN5d   TC6  1 3.400000e-01    1.510000e+00
  TN4d   TC6  1 3.400000e-01    1.510000e+00
  TN3d   TC6  1 3.400000e-01    1.510000e+00
  TN2d   TC6  1 3.400000e-01    1.510000e+00
  TN1d   TC6  1 3.400000e-01    1.770000e+00
  TP6a   TC6  1 3.660000e-01    9.350000e-01
  TP5a   TC6  1 3.660000e-01    9.350000e-01
  TP4a   TC6  1 3.520000e-01    1.050000e+00
  TP3a   TC6  1 3.400000e-01    1.230000e+00
  TP2a   TC6  1 3.400000e-01    1.230000e+00
  TP1a   TC6  1 3.400000e-01    1.230000e+00
  TN6a   TC6  1 3.400000e-01    1.510000e+00
  TN5a   TC6  1 3.400000e-01    1.510000e+00
  TN4a   TC6  1 3.400000e-01    1.510000e+00
  TN3a   TC6  1 3.400000e-01    1.510000e+00
  TN2a   TC6  1 3.400000e-01    1.510000e+00
  TN1a   TC6  1 3.400000e-01    1.770000e+00
   TC6  TC6v  1 3.400000e-01    2.020000e+00
   TC6  TX1v  1 3.400000e-01    1.770000e+00
   TC6  TX2v  1 3.400000e-01    1.770000e+00
   TC6  TX3v  1 3.400000e-01    1.770000e+00
   TC6  TX4v  1 3.400000e-01    1.770000e+00
   TC6  TC1v  1 3.520000e-01    1.050000e+00
   TC6  TC2v  1 3.400000e-01    1.230000e+00
   TC6  TC3v  1 3.400000e-01    1.510000e+00
   TC6  TC4v  1 3.400000e-01    1.770000e+00
   TC6  TC5v  1 3.400000e-01    1.770000e+00
   TC6  TC6e  1 3.400000e-01    2.020000e+00
   TC6  TX1e  1 3.400000e-01    1.770000e+00
   TC6  TX2e  1 3.400000e-01    1.770000e+00
   TC6  TX3e  1 3.400000e-01    1.770000e+00
   TC6  TX4e  1 3.400000e-01    1.770000e+00
   TC6  TC1e  1 3.520000e-01    1.050000e+00
   TC6  TC2e  1 3.400000e-01    1.230000e+00
   TC6  TC3e  1 3.400000e-01    1.510000e+00
   TC6  TC4e  1 3.400000e-01    1.770000e+00
   TC6  TC5e  1 3.400000e-01    1.770000e+00
  TP6q   TC6  1 3.400000e-01    1.230000e+00
  TP5q   TC6  1 3.400000e-01    1.230000e+00
  TP4q   TC6  1 3.400000e-01    1.510000e+00
  TP3q   TC6  1 3.400000e-01    1.770000e+00
  TP2q   TC6  1 3.400000e-01    1.770000e+00
  TP1q   TC6  1 3.400000e-01    1.770000e+00
  TN6q   TC6  1 3.400000e-01    2.020000e+00
  TN5q   TC6  1 3.400000e-01    2.020000e+00
  TN4q   TC6  1 3.400000e-01    2.020000e+00
  TN3q   TC6  1 3.400000e-01    2.020000e+00
  TN2q   TC6  1 3.400000e-01    2.020000e+00
  TN1q   TC6  1 3.400000e-01    2.280000e+00
   TC6  TC6q  1 3.400000e-01    2.280000e+00
   TC6 TX1eq  1 3.400000e-01    2.280000e+00
   TC6 TX2eq  1 3.400000e-01    2.280000e+00
   TC6 TX3eq  1 3.400000e-01    2.280000e+00
   TC6 TX4eq  1 3.400000e-01    2.280000e+00
   TC6 TC1eq  1 3.400000e-01    1.510000e+00
   TC6 TC2eq  1 3.400000e-01    1.770000e+00
   TC6 TC3eq  1 3.400000e-01    2.020000e+00
   TC6 TC4eq  1 3.400000e-01    2.280000e+00
   TC6 TC5eq  1 3.400000e-01    2.280000e+00
   TC6 TC6eq  1 3.400000e-01    2.500000e+00
   TC6 TX1vq  1 3.400000e-01    2.280000e+00
   TC6 TX2vq  1 3.400000e-01    2.280000e+00
   TC6 TX3vq  1 3.400000e-01    2.280000e+00
   TC6 TX4vq  1 3.400000e-01    2.280000e+00
   TC6 TC1vq  1 3.400000e-01    1.510000e+00
   TC6 TC2vq  1 3.400000e-01    1.770000e+00
   TC6 TC3vq  1 3.400000e-01    2.020000e+00
   TC6 TC4vq  1 3.400000e-01    2.280000e+00
   TC6 TC5vq  1 3.400000e-01    2.280000e+00
   TC6 TC6vq  1 3.400000e-01    2.500000e+00
 TN1aq   TC6  1 3.400000e-01    2.280000e+00
 TN2aq   TC6  1 3.400000e-01    2.020000e+00
 TN3aq   TC6  1 3.400000e-01    2.020000e+00
 TN4aq   TC6  1 3.400000e-01    2.020000e+00
 TN5aq   TC6  1 3.400000e-01    2.020000e+00
 TN6aq   TC6  1 3.400000e-01    2.020000e+00
 TP1aq   TC6  1 3.400000e-01    1.770000e+00
 TP2aq   TC6  1 3.400000e-01    1.770000e+00
 TP3aq   TC6  1 3.400000e-01    1.770000e+00
 TP4aq   TC6  1 3.400000e-01    1.510000e+00
 TP5aq   TC6  1 3.400000e-01    1.230000e+00
 TP6aq   TC6  1 3.400000e-01    1.230000e+00
 TN1dq   TC6  1 3.400000e-01    2.280000e+00
 TN2dq   TC6  1 3.400000e-01    2.020000e+00
 TN3dq   TC6  1 3.400000e-01    2.020000e+00
 TN4dq   TC6  1 3.400000e-01    2.020000e+00
 TN5dq   TC6  1 3.400000e-01    2.020000e+00
 TN6dq   TC6  1 3.400000e-01    2.020000e+00
 TP1dq   TC6  1 3.400000e-01    1.770000e+00
 TP2dq   TC6  1 3.400000e-01    1.770000e+00
 TP3dq   TC6  1 3.400000e-01    1.770000e+00
 TP4dq   TC6  1 3.400000e-01    1.510000e+00
 TP5dq   TC6  1 3.400000e-01    1.230000e+00
 TP6dq   TC6  1 3.400000e-01    1.230000e+00
   TC6  TX1q  1 3.400000e-01    2.020000e+00
   TC6  TX2q  1 3.400000e-01    2.020000e+00
   TC6  TX3q  1 3.400000e-01    2.020000e+00
   TC6  TX4q  1 3.400000e-01    2.020000e+00
   TC6  TC1q  1 3.400000e-01    1.230000e+00
   TC6  TC2q  1 3.400000e-01    1.510000e+00
   TC6  TC3q  1 3.400000e-01    1.770000e+00
   TC6  TC4q  1 3.400000e-01    2.020000e+00
   TC6  TC5q  1 3.400000e-01    2.020000e+00
  TP6h   TC6  1 3.660000e-01    9.350000e-01
  TP5h   TC6  1 3.660000e-01    9.350000e-01
  TP4h   TC6  1 3.520000e-01    1.050000e+00
  TP3h   TC6  1 3.400000e-01    1.230000e+00
  TP2h   TC6  1 3.400000e-01    1.230000e+00
  TP1h   TC6  1 3.400000e-01    1.230000e+00
  TN6h   TC6  1 3.400000e-01    1.510000e+00
  TN5h   TC6  1 3.400000e-01    1.510000e+00
  TN4h   TC6  1 3.400000e-01    1.510000e+00
  TN3h   TC6  1 3.400000e-01    1.510000e+00
  TN2h   TC6  1 3.400000e-01    1.510000e+00
  TN1h   TC6  1 3.400000e-01    1.770000e+00
   TC6  TC6h  1 3.400000e-01    1.770000e+00
   TC6 TX1eh  1 3.400000e-01    1.770000e+00
   TC6 TX2eh  1 3.400000e-01    1.770000e+00
   TC6 TX3eh  1 3.400000e-01    1.770000e+00
   TC6 TX4eh  1 3.400000e-01    1.770000e+00
   TC6 TC1eh  1 3.520000e-01    1.050000e+00
   TC6 TC2eh  1 3.400000e-01    1.230000e+00
   TC6 TC3eh  1 3.400000e-01    1.510000e+00
   TC6 TC4eh  1 3.400000e-01    1.770000e+00
   TC6 TC5eh  1 3.400000e-01    1.770000e+00
   TC6 TC6eh  1 3.400000e-01    2.020000e+00
   TC6 TX1vh  1 3.400000e-01    1.770000e+00
   TC6 TX2vh  1 3.400000e-01    1.770000e+00
   TC6 TX3vh  1 3.400000e-01    1.770000e+00
   TC6 TX4vh  1 3.400000e-01    1.770000e+00
   TC6 TC1vh  1 3.520000e-01    1.050000e+00
   TC6 TC2vh  1 3.400000e-01    1.230000e+00
   TC6 TC3vh  1 3.400000e-01    1.510000e+00
   TC6 TC4vh  1 3.400000e-01    1.770000e+00
   TC6 TC5vh  1 3.400000e-01    1.770000e+00
   TC6 TC6vh  1 3.400000e-01    2.020000e+00
 TN1ah   TC6  1 3.400000e-01    1.770000e+00
 TN2ah   TC6  1 3.400000e-01    1.510000e+00
 TN3ah   TC6  1 3.400000e-01    1.510000e+00
 TN4ah   TC6  1 3.400000e-01    1.510000e+00
 TN5ah   TC6  1 3.400000e-01    1.510000e+00
 TN6ah   TC6  1 3.400000e-01    1.510000e+00
 TP1ah   TC6  1 3.400000e-01    1.230000e+00
 TP2ah   TC6  1 3.400000e-01    1.230000e+00
 TP3ah   TC6  1 3.400000e-01    1.230000e+00
 TP4ah   TC6  1 3.520000e-01    1.050000e+00
 TP5ah   TC6  1 3.660000e-01    9.350000e-01
 TP6ah   TC6  1 3.660000e-01    9.350000e-01
 TN1dh   TC6  1 3.400000e-01    1.770000e+00
 TN2dh   TC6  1 3.400000e-01    1.510000e+00
 TN3dh   TC6  1 3.400000e-01    1.510000e+00
 TN4dh   TC6  1 3.400000e-01    1.510000e+00
 TN5dh   TC6  1 3.400000e-01    1.510000e+00
 TN6dh   TC6  1 3.400000e-01    1.510000e+00
 TP1dh   TC6  1 3.400000e-01    1.230000e+00
 TP2dh   TC6  1 3.400000e-01    1.230000e+00
 TP3dh   TC6  1 3.400000e-01    1.230000e+00
 TP4dh   TC6  1 3.520000e-01    1.050000e+00
 TP5dh   TC6  1 3.660000e-01    9.350000e-01
 TP6dh   TC6  1 3.660000e-01    9.350000e-01
   TC6  TX1h  1 3.400000e-01    1.510000e+00
   TC6  TX2h  1 3.400000e-01    1.510000e+00
   TC6  TX3h  1 3.400000e-01    1.510000e+00
   TC6  TX4h  1 3.400000e-01    1.510000e+00
   TC6  TC1h  1 3.660000e-01    9.350000e-01
   TC6  TC2h  1 3.520000e-01    1.050000e+00
   TC6  TC3h  1 3.400000e-01    1.230000e+00
   TC6  TC4h  1 3.400000e-01    1.510000e+00
   TC6  TC5h  1 3.400000e-01    1.510000e+00
  TP6r   TC6  1 3.660000e-01    9.350000e-01
  TP5r   TC6  1 3.660000e-01    9.350000e-01
  TP4r   TC6  1 3.520000e-01    1.050000e+00
  TP3r   TC6  1 3.400000e-01    1.230000e+00
  TP2r   TC6  1 3.400000e-01    1.230000e+00
  TP1r   TC6  1 3.400000e-01    1.230000e+00
  TN6r   TC6  1 3.400000e-01    1.510000e+00
  TN5r   TC6  1 3.400000e-01    1.510000e+00
  TN4r   TC6  1 3.400000e-01    1.510000e+00
  TN3r   TC6  1 3.400000e-01    1.510000e+00
  TN2r   TC6  1 3.400000e-01    1.510000e+00
  TN1r   TC6  1 3.400000e-01    1.770000e+00
   TC6  TC6r  1 3.400000e-01    1.770000e+00
   TC6 TX1er  1 3.400000e-01    1.770000e+00
   TC6 TX2er  1 3.400000e-01    1.770000e+00
   TC6 TX3er  1 3.400000e-01    1.770000e+00
   TC6 TX4er  1 3.400000e-01    1.770000e+00
   TC6 TC1er  1 3.520000e-01    1.050000e+00
   TC6 TC2er  1 3.400000e-01    1.230000e+00
   TC6 TC3er  1 3.400000e-01    1.510000e+00
   TC6 TC4er  1 3.400000e-01    1.770000e+00
   TC6 TC5er  1 3.400000e-01    1.770000e+00
   TC6 TC6er  1 3.400000e-01    2.020000e+00
   TC6 TX1vr  1 3.400000e-01    1.770000e+00
   TC6 TX2vr  1 3.400000e-01    1.770000e+00
   TC6 TX3vr  1 3.400000e-01    1.770000e+00
   TC6 TX4vr  1 3.400000e-01    1.770000e+00
   TC6 TC1vr  1 3.520000e-01    1.050000e+00
   TC6 TC2vr  1 3.400000e-01    1.230000e+00
   TC6 TC3vr  1 3.400000e-01    1.510000e+00
   TC6 TC4vr  1 3.400000e-01    1.770000e+00
   TC6 TC5vr  1 3.400000e-01    1.770000e+00
   TC6 TC6vr  1 3.400000e-01    2.020000e+00
 TN1ar   TC6  1 3.400000e-01    1.770000e+00
 TN2ar   TC6  1 3.400000e-01    1.510000e+00
 TN3ar   TC6  1 3.400000e-01    1.510000e+00
 TN4ar   TC6  1 3.400000e-01    1.510000e+00
 TN5ar   TC6  1 3.400000e-01    1.510000e+00
 TN6ar   TC6  1 3.400000e-01    1.510000e+00
 TP1ar   TC6  1 3.400000e-01    1.230000e+00
 TP2ar   TC6  1 3.400000e-01    1.230000e+00
 TP3ar   TC6  1 3.400000e-01    1.230000e+00
 TP4ar   TC6  1 3.520000e-01    1.050000e+00
 TP5ar   TC6  1 3.660000e-01    9.350000e-01
 TP6ar   TC6  1 3.660000e-01    9.350000e-01
 TN1dr   TC6  1 3.400000e-01    1.770000e+00
 TN2dr   TC6  1 3.400000e-01    1.510000e+00
 TN3dr   TC6  1 3.400000e-01    1.510000e+00
 TN4dr   TC6  1 3.400000e-01    1.510000e+00
 TN5dr   TC6  1 3.400000e-01    1.510000e+00
 TN6dr   TC6  1 3.400000e-01    1.510000e+00
 TP1dr   TC6  1 3.400000e-01    1.230000e+00
 TP2dr   TC6  1 3.400000e-01    1.230000e+00
 TP3dr   TC6  1 3.400000e-01    1.230000e+00
 TP4dr   TC6  1 3.520000e-01    1.050000e+00
 TP5dr   TC6  1 3.660000e-01    9.350000e-01
 TP6dr   TC6  1 3.660000e-01    9.350000e-01
   TC6  TX1r  1 3.400000e-01    1.510000e+00
   TC6  TX2r  1 3.400000e-01    1.510000e+00
   TC6  TX3r  1 3.400000e-01    1.510000e+00
   TC6  TX4r  1 3.400000e-01    1.510000e+00
   TC6  TC1r  1 3.660000e-01    9.350000e-01
   TC6  TC2r  1 3.520000e-01    1.050000e+00
   TC6  TC3r  1 3.400000e-01    1.230000e+00
   TC6  TC4r  1 3.400000e-01    1.510000e+00
   TC6  TC5r  1 3.400000e-01    1.510000e+00
  SP6d   TC6  1 3.780000e-01    1.450000e+00
  SP5d   TC6  1 3.780000e-01    1.450000e+00
  SP4d   TC6  1 3.660000e-01    1.600000e+00
  SP3d   TC6  1 3.650000e-01    1.750000e+00
  SP2d   TC6  1 3.650000e-01    1.750000e+00
  SP1d   TC6  1 3.650000e-01    1.750000e+00
  SN6d   TC6  1 3.650000e-01    1.910000e+00
  SN5d   TC6  1 3.650000e-01    1.910000e+00
  SN4d   TC6  1 3.650000e-01    1.910000e+00
  SN3d   TC6  1 3.650000e-01    1.910000e+00
  SN2d   TC6  1 3.650000e-01    1.910000e+00
  SN1d   TC6  1 3.650000e-01    2.110000e+00
  SP6a   TC6  1 3.780000e-01    1.450000e+00
  SP5a   TC6  1 3.780000e-01    1.450000e+00
  SP4a   TC6  1 3.660000e-01    1.600000e+00
  SP3a   TC6  1 3.650000e-01    1.750000e+00
  SP2a   TC6  1 3.650000e-01    1.750000e+00
  SP1a   TC6  1 3.650000e-01    1.750000e+00
  SN6a   TC6  1 3.650000e-01    1.910000e+00
  SN5a   TC6  1 3.650000e-01    1.910000e+00
  SN4a   TC6  1 3.650000e-01    1.910000e+00
  SN3a   TC6  1 3.650000e-01    1.910000e+00
  SN2a   TC6  1 3.650000e-01    1.910000e+00
  SN1a   TC6  1 3.650000e-01    2.110000e+00
  SP6q   TC6  1 3.650000e-01    1.750000e+00
  SP5q   TC6  1 3.650000e-01    1.750000e+00
  SP4q   TC6  1 3.650000e-01    1.910000e+00
  SP3q   TC6  1 3.650000e-01    2.110000e+00
  SP2q   TC6  1 3.650000e-01    2.110000e+00
  SP1q   TC6  1 3.650000e-01    2.110000e+00
  SN6q   TC6  1 3.650000e-01    2.340000e+00
  SN5q   TC6  1 3.650000e-01    2.340000e+00
  SN4q   TC6  1 3.650000e-01    2.340000e+00
  SN3q   TC6  1 3.650000e-01    2.340000e+00
  SN2q   TC6  1 3.650000e-01    2.340000e+00
  SN1q   TC6  1 3.650000e-01    2.570000e+00
 SN1aq   TC6  1 3.650000e-01    2.570000e+00
 SN2aq   TC6  1 3.650000e-01    2.340000e+00
 SN3aq   TC6  1 3.650000e-01    2.340000e+00
 SN4aq   TC6  1 3.650000e-01    2.340000e+00
 SN5aq   TC6  1 3.650000e-01    2.340000e+00
 SN6aq   TC6  1 3.650000e-01    2.340000e+00
 SP1aq   TC6  1 3.650000e-01    2.110000e+00
 SP2aq   TC6  1 3.650000e-01    2.110000e+00
 SP3aq   TC6  1 3.650000e-01    2.110000e+00
 SP4aq   TC6  1 3.650000e-01    1.910000e+00
 SP5aq   TC6  1 3.650000e-01    1.750000e+00
 SP6aq   TC6  1 3.650000e-01    1.750000e+00
 SN1dq   TC6  1 3.650000e-01    2.570000e+00
 SN2dq   TC6  1 3.650000e-01    2.340000e+00
 SN3dq   TC6  1 3.650000e-01    2.340000e+00
 SN4dq   TC6  1 3.650000e-01    2.340000e+00
 SN5dq   TC6  1 3.650000e-01    2.340000e+00
 SN6dq   TC6  1 3.650000e-01    2.340000e+00
 SP1dq   TC6  1 3.650000e-01    2.110000e+00
 SP2dq   TC6  1 3.650000e-01    2.110000e+00
 SP3dq   TC6  1 3.650000e-01    2.110000e+00
 SP4dq   TC6  1 3.650000e-01    1.910000e+00
 SP5dq   TC6  1 3.650000e-01    1.750000e+00
 SP6dq   TC6  1 3.650000e-01    1.750000e+00
  SP6h   TC6  1 3.780000e-01    1.450000e+00
  SP5h   TC6  1 3.780000e-01    1.450000e+00
  SP4h   TC6  1 3.660000e-01    1.600000e+00
  SP3h   TC6  1 3.650000e-01    1.750000e+00
  SP2h   TC6  1 3.650000e-01    1.750000e+00
  SP1h   TC6  1 3.650000e-01    1.750000e+00
  SN6h   TC6  1 3.650000e-01    1.910000e+00
  SN5h   TC6  1 3.650000e-01    1.910000e+00
  SN4h   TC6  1 3.650000e-01    1.910000e+00
  SN3h   TC6  1 3.650000e-01    1.910000e+00
  SN2h   TC6  1 3.650000e-01    1.910000e+00
  SN1h   TC6  1 3.650000e-01    2.110000e+00
 SN1ah   TC6  1 3.650000e-01    2.110000e+00
 SN2ah   TC6  1 3.650000e-01    1.910000e+00
 SN3ah   TC6  1 3.650000e-01    1.910000e+00
 SN4ah   TC6  1 3.650000e-01    1.910000e+00
 SN5ah   TC6  1 3.650000e-01    1.910000e+00
 SN6ah   TC6  1 3.650000e-01    1.910000e+00
 SP1ah   TC6  1 3.650000e-01    1.750000e+00
 SP2ah   TC6  1 3.650000e-01    1.750000e+00
 SP3ah   TC6  1 3.650000e-01    1.750000e+00
 SP4ah   TC6  1 3.660000e-01    1.600000e+00
 SP5ah   TC6  1 3.780000e-01    1.450000e+00
 SP6ah   TC6  1 3.780000e-01    1.450000e+00
 SN1dh   TC6  1 3.650000e-01    2.110000e+00
 SN2dh   TC6  1 3.650000e-01    1.910000e+00
 SN3dh   TC6  1 3.650000e-01    1.910000e+00
 SN4dh   TC6  1 3.650000e-01    1.910000e+00
 SN5dh   TC6  1 3.650000e-01    1.910000e+00
 SN6dh   TC6  1 3.650000e-01    1.910000e+00
 SP1dh   TC6  1 3.650000e-01    1.750000e+00
 SP2dh   TC6  1 3.650000e-01    1.750000e+00
 SP3dh   TC6  1 3.650000e-01    1.750000e+00
 SP4dh   TC6  1 3.660000e-01    1.600000e+00
 SP5dh   TC6  1 3.780000e-01    1.450000e+00
 SP6dh   TC6  1 3.780000e-01    1.450000e+00
  SP6r   TC6  1 3.780000e-01    1.450000e+00
  SP5r   TC6  1 3.780000e-01    1.450000e+00
  SP4r   TC6  1 3.660000e-01    1.600000e+00
  SP3r   TC6  1 3.650000e-01    1.750000e+00
  SP2r   TC6  1 3.650000e-01    1.750000e+00
  SP1r   TC6  1 3.650000e-01    1.750000e+00
  SN6r   TC6  1 3.650000e-01    1.910000e+00
  SN5r   TC6  1 3.650000e-01    1.910000e+00
  SN4r   TC6  1 3.650000e-01    1.910000e+00
  SN3r   TC6  1 3.650000e-01    1.910000e+00
  SN2r   TC6  1 3.650000e-01    1.910000e+00
  SN1r   TC6  1 3.650000e-01    2.110000e+00
 SN1ar   TC6  1 3.650000e-01    2.110000e+00
 SN2ar   TC6  1 3.650000e-01    1.910000e+00
 SN3ar   TC6  1 3.650000e-01    1.910000e+00
 SN4ar   TC6  1 3.650000e-01    1.910000e+00
 SN5ar   TC6  1 3.650000e-01    1.910000e+00
 SN6ar   TC6  1 3.650000e-01    1.910000e+00
 SP1ar   TC6  1 3.650000e-01    1.750000e+00
 SP2ar   TC6  1 3.650000e-01    1.750000e+00
 SP3ar   TC6  1 3.650000e-01    1.750000e+00
 SP4ar   TC6  1 3.660000e-01    1.600000e+00
 SP5ar   TC6  1 3.780000e-01    1.450000e+00
 SP6ar   TC6  1 3.780000e-01    1.450000e+00
 SN1dr   TC6  1 3.650000e-01    2.110000e+00
 SN2dr   TC6  1 3.650000e-01    1.910000e+00
 SN3dr   TC6  1 3.650000e-01    1.910000e+00
 SN4dr   TC6  1 3.650000e-01    1.910000e+00
 SN5dr   TC6  1 3.650000e-01    1.910000e+00
 SN6dr   TC6  1 3.650000e-01    1.910000e+00
 SP1dr   TC6  1 3.650000e-01    1.750000e+00
 SP2dr   TC6  1 3.650000e-01    1.750000e+00
 SP3dr   TC6  1 3.650000e-01    1.750000e+00
 SP4dr   TC6  1 3.660000e-01    1.600000e+00
 SP5dr   TC6  1 3.780000e-01    1.450000e+00
 SP6dr   TC6  1 3.780000e-01    1.450000e+00
   TC6   SC5  1 3.650000e-01    1.910000e+00
   TC6   SC4  1 3.650000e-01    1.910000e+00
   TC6   SC3  1 3.650000e-01    1.750000e+00
   TC6   SC2  1 3.660000e-01    1.600000e+00
   TC6   SC1  1 3.780000e-01    1.450000e+00
   TC6   SX4  1 3.650000e-01    1.910000e+00
   TC6   SX3  1 3.650000e-01    1.910000e+00
   TC6   SX2  1 3.650000e-01    1.910000e+00
   TC6   SX1  1 3.650000e-01    1.910000e+00
   TC6  SC6v  1 3.650000e-01    2.340000e+00
   TC6  SX1v  1 3.650000e-01    2.110000e+00
   TC6  SX2v  1 3.650000e-01    2.110000e+00
   TC6  SX3v  1 3.650000e-01    2.110000e+00
   TC6  SX4v  1 3.650000e-01    2.110000e+00
   TC6  SC1v  1 3.660000e-01    1.600000e+00
   TC6  SC2v  1 3.650000e-01    1.750000e+00
   TC6  SC3v  1 3.650000e-01    1.910000e+00
   TC6  SC4v  1 3.650000e-01    2.110000e+00
   TC6  SC5v  1 3.650000e-01    2.110000e+00
   TC6  SC6e  1 3.650000e-01    2.340000e+00
   TC6  SX1e  1 3.650000e-01    2.110000e+00
   TC6  SX2e  1 3.650000e-01    2.110000e+00
   TC6  SX3e  1 3.650000e-01    2.110000e+00
   TC6  SX4e  1 3.650000e-01    2.110000e+00
   TC6  SC1e  1 3.660000e-01    1.600000e+00
   TC6  SC2e  1 3.650000e-01    1.750000e+00
   TC6  SC3e  1 3.650000e-01    1.910000e+00
   TC6  SC4e  1 3.650000e-01    2.110000e+00
   TC6  SC5e  1 3.650000e-01    2.110000e+00
   TC6  SC6q  1 3.650000e-01    2.570000e+00
   TC6 SX1eq  1 3.650000e-01    2.570000e+00
   TC6 SX2eq  1 3.650000e-01    2.570000e+00
   TC6 SX3eq  1 3.650000e-01    2.570000e+00
   TC6 SX4eq  1 3.650000e-01    2.570000e+00
   TC6 SC1eq  1 3.650000e-01    1.910000e+00
   TC6 SC2eq  1 3.650000e-01    2.110000e+00
   TC6 SC3eq  1 3.650000e-01    2.340000e+00
   TC6 SC4eq  1 3.650000e-01    2.570000e+00
   TC6 SC5eq  1 3.650000e-01    2.570000e+00
   TC6 SC6eq  1 3.650000e-01    2.830000e+00
   TC6 SX1vq  1 3.650000e-01    2.570000e+00
   TC6 SX2vq  1 3.650000e-01    2.570000e+00
   TC6 SX3vq  1 3.650000e-01    2.570000e+00
   TC6 SX4vq  1 3.650000e-01    2.570000e+00
   TC6 SC1vq  1 3.650000e-01    1.910000e+00
   TC6 SC2vq  1 3.650000e-01    2.110000e+00
   TC6 SC3vq  1 3.650000e-01    2.340000e+00
   TC6 SC4vq  1 3.650000e-01    2.570000e+00
   TC6 SC5vq  1 3.650000e-01    2.570000e+00
   TC6 SC6vq  1 3.650000e-01    2.830000e+00
   TC6  SX1q  1 3.650000e-01    2.340000e+00
   TC6  SX2q  1 3.650000e-01    2.340000e+00
   TC6  SX3q  1 3.650000e-01    2.340000e+00
   TC6  SX4q  1 3.650000e-01    2.340000e+00
   TC6  SC1q  1 3.650000e-01    1.750000e+00
   TC6  SC2q  1 3.650000e-01    1.910000e+00
   TC6  SC3q  1 3.650000e-01    2.110000e+00
   TC6  SC4q  1 3.650000e-01    2.340000e+00
   TC6  SC5q  1 3.650000e-01    2.340000e+00
   TC6  SC6h  1 3.650000e-01    2.110000e+00
   TC6 SX1eh  1 3.650000e-01    2.110000e+00
   TC6 SX2eh  1 3.650000e-01    2.110000e+00
   TC6 SX3eh  1 3.650000e-01    2.110000e+00
   TC6 SX4eh  1 3.650000e-01    2.110000e+00
   TC6 SC1eh  1 3.660000e-01    1.600000e+00
   TC6 SC2eh  1 3.650000e-01    1.750000e+00
   TC6 SC3eh  1 3.650000e-01    1.910000e+00
   TC6 SC4eh  1 3.650000e-01    2.110000e+00
   TC6 SC5eh  1 3.650000e-01    2.110000e+00
   TC6 SC6eh  1 3.650000e-01    2.340000e+00
   TC6 SX1vh  1 3.650000e-01    2.110000e+00
   TC6 SX2vh  1 3.650000e-01    2.110000e+00
   TC6 SX3vh  1 3.650000e-01    2.110000e+00
   TC6 SX4vh  1 3.650000e-01    2.110000e+00
   TC6 SC1vh  1 3.660000e-01    1.600000e+00
   TC6 SC2vh  1 3.650000e-01    1.750000e+00
   TC6 SC3vh  1 3.650000e-01    1.910000e+00
   TC6 SC4vh  1 3.650000e-01    2.110000e+00
   TC6 SC5vh  1 3.650000e-01    2.110000e+00
   TC6 SC6vh  1 3.650000e-01    2.340000e+00
   TC6  SX1h  1 3.650000e-01    1.910000e+00
   TC6  SX2h  1 3.650000e-01    1.910000e+00
   TC6  SX3h  1 3.650000e-01    1.910000e+00
   TC6  SX4h  1 3.650000e-01    1.910000e+00
   TC6  SC1h  1 3.780000e-01    1.450000e+00
   TC6  SC2h  1 3.660000e-01    1.600000e+00
   TC6  SC3h  1 3.650000e-01    1.750000e+00
   TC6  SC4h  1 3.650000e-01    1.910000e+00
   TC6  SC5h  1 3.650000e-01    1.910000e+00
   TC6  SC6r  1 3.650000e-01    2.110000e+00
   TC6 SX1er  1 3.650000e-01    2.110000e+00
   TC6 SX2er  1 3.650000e-01    2.110000e+00
   TC6 SX3er  1 3.650000e-01    2.110000e+00
   TC6 SX4er  1 3.650000e-01    2.110000e+00
   TC6 SC1er  1 3.660000e-01    1.600000e+00
   TC6 SC2er  1 3.650000e-01    1.750000e+00
   TC6 SC3er  1 3.650000e-01    1.910000e+00
   TC6 SC4er  1 3.650000e-01    2.110000e+00
   TC6 SC5er  1 3.650000e-01    2.110000e+00
   TC6 SC6er  1 3.650000e-01    2.340000e+00
   TC6 SX1vr  1 3.650000e-01    2.110000e+00
   TC6 SX2vr  1 3.650000e-01    2.110000e+00
   TC6 SX3vr  1 3.650000e-01    2.110000e+00
   TC6 SX4vr  1 3.650000e-01    2.110000e+00
   TC6 SC1vr  1 3.660000e-01    1.600000e+00
   TC6 SC2vr  1 3.650000e-01    1.750000e+00
   TC6 SC3vr  1 3.650000e-01    1.910000e+00
   TC6 SC4vr  1 3.650000e-01    2.110000e+00
   TC6 SC5vr  1 3.650000e-01    2.110000e+00
   TC6 SC6vr  1 3.650000e-01    2.340000e+00
   TC6  SX1r  1 3.650000e-01    1.910000e+00
   TC6  SX2r  1 3.650000e-01    1.910000e+00
   TC6  SX3r  1 3.650000e-01    1.910000e+00
   TC6  SX4r  1 3.650000e-01    1.910000e+00
   TC6  SC1r  1 3.780000e-01    1.450000e+00
   TC6  SC2r  1 3.660000e-01    1.600000e+00
   TC6  SC3r  1 3.650000e-01    1.750000e+00
   TC6  SC4r  1 3.650000e-01    1.910000e+00
   TC6  SC5r  1 3.650000e-01    1.910000e+00
    C5    C5  1 4.700000e-01    3.390000e+00
    C5    C4  1 4.700000e-01    3.390000e+00
    C5    C3  1 4.700000e-01    3.240000e+00
    C5    C2  1 4.700000e-01    3.070000e+00
    C5    C1  1 4.700000e-01    3.070000e+00
    C5    X4  1 4.700000e-01    3.240000e+00
    C5    X3  1 4.700000e-01    3.240000e+00
    C5    X2  1 4.700000e-01    3.240000e+00
    C5    X1  1 4.700000e-01    3.390000e+00
   P6d    C5  1 4.700000e-01    2.790000e+00
   P5d    C5  1 4.700000e-01    2.960000e+00
   P4d    C5  1 4.700000e-01    2.960000e+00
   P3d    C5  1 4.700000e-01    3.070000e+00
   P2d    C5  1 4.700000e-01    3.070000e+00
   P1d    C5  1 4.700000e-01    3.070000e+00
   N6d    C5  1 4.700000e-01    3.240000e+00
   N5d    C5  1 4.700000e-01    3.240000e+00
   N4d    C5  1 4.700000e-01    3.240000e+00
   N3d    C5  1 4.700000e-01    3.240000e+00
   N2d    C5  1 4.700000e-01    3.240000e+00
   N1d    C5  1 4.700000e-01    3.390000e+00
   P6a    C5  1 4.700000e-01    2.790000e+00
   P5a    C5  1 4.700000e-01    2.960000e+00
   P4a    C5  1 4.700000e-01    2.960000e+00
   P3a    C5  1 4.700000e-01    3.070000e+00
   P2a    C5  1 4.700000e-01    3.070000e+00
   P1a    C5  1 4.700000e-01    3.070000e+00
   N6a    C5  1 4.700000e-01    3.240000e+00
   N5a    C5  1 4.700000e-01    3.240000e+00
   N4a    C5  1 4.700000e-01    3.240000e+00
   N3a    C5  1 4.700000e-01    3.240000e+00
   N2a    C5  1 4.700000e-01    3.240000e+00
   N1a    C5  1 4.700000e-01    3.390000e+00
   C6v    C5  1 4.700000e-01    3.520000e+00
    C5   C5v  1 4.700000e-01    3.520000e+00
    C5   X1v  1 4.700000e-01    3.520000e+00
    C5   X2v  1 4.700000e-01    3.390000e+00
    C5   X3v  1 4.700000e-01    3.390000e+00
    C5   X4v  1 4.700000e-01    3.390000e+00
    C5   C1v  1 4.700000e-01    3.240000e+00
    C5   C2v  1 4.700000e-01    3.240000e+00
    C5   C3v  1 4.700000e-01    3.390000e+00
    C5   C4v  1 4.700000e-01    3.520000e+00
   C6e    C5  1 4.700000e-01    3.520000e+00
    C5   C5e  1 4.700000e-01    3.520000e+00
    C5   X1e  1 4.700000e-01    3.520000e+00
    C5   X2e  1 4.700000e-01    3.390000e+00
    C5   X3e  1 4.700000e-01    3.390000e+00
    C5   X4e  1 4.700000e-01    3.390000e+00
    C5   C1e  1 4.700000e-01    3.240000e+00
    C5   C2e  1 4.700000e-01    3.240000e+00
    C5   C3e  1 4.700000e-01    3.390000e+00
    C5   C4e  1 4.700000e-01    3.520000e+00
   P6q    C5  1 4.700000e-01    3.070000e+00
   P5q    C5  1 4.700000e-01    3.240000e+00
   P4q    C5  1 4.700000e-01    3.240000e+00
   P3q    C5  1 4.700000e-01    3.390000e+00
   P2q    C5  1 4.700000e-01    3.390000e+00
   P1q    C5  1 4.700000e-01    3.390000e+00
   N6q    C5  1 4.700000e-01    3.520000e+00
   N5q    C5  1 4.700000e-01    3.520000e+00
   N4q    C5  1 4.700000e-01    3.520000e+00
   N3q    C5  1 4.700000e-01    3.520000e+00
   N2q    C5  1 4.700000e-01    3.520000e+00
   N1q    C5  1 4.700000e-01    3.690000e+00
   C6q    C5  1 4.700000e-01    3.690000e+00
    C5   C5q  1 4.700000e-01    3.690000e+00
    C5  X1eq  1 4.700000e-01    3.880000e+00
    C5  X2eq  1 4.700000e-01    3.690000e+00
    C5  X3eq  1 4.700000e-01    3.690000e+00
    C5  X4eq  1 4.700000e-01    3.690000e+00
    C5  C1eq  1 4.700000e-01    3.520000e+00
    C5  C2eq  1 4.700000e-01    3.520000e+00
    C5  C3eq  1 4.700000e-01    3.690000e+00
    C5  C4eq  1 4.700000e-01    3.880000e+00
    C5  C5eq  1 4.700000e-01    3.880000e+00
  C6eq    C5  1 4.700000e-01    3.880000e+00
    C5  X1vq  1 4.700000e-01    3.880000e+00
    C5  X2vq  1 4.700000e-01    3.690000e+00
    C5  X3vq  1 4.700000e-01    3.690000e+00
    C5  X4vq  1 4.700000e-01    3.690000e+00
    C5  C1vq  1 4.700000e-01    3.520000e+00
    C5  C2vq  1 4.700000e-01    3.520000e+00
    C5  C3vq  1 4.700000e-01    3.690000e+00
    C5  C4vq  1 4.700000e-01    3.880000e+00
    C5  C5vq  1 4.700000e-01    3.880000e+00
  C6vq    C5  1 4.700000e-01    3.880000e+00
  N1aq    C5  1 4.700000e-01    3.690000e+00
  N2aq    C5  1 4.700000e-01    3.520000e+00
  N3aq    C5  1 4.700000e-01    3.520000e+00
  N4aq    C5  1 4.700000e-01    3.520000e+00
  N5aq    C5  1 4.700000e-01    3.520000e+00
  N6aq    C5  1 4.700000e-01    3.520000e+00
  P1aq    C5  1 4.700000e-01    3.390000e+00
  P2aq    C5  1 4.700000e-01    3.390000e+00
  P3aq    C5  1 4.700000e-01    3.390000e+00
  P4aq    C5  1 4.700000e-01    3.240000e+00
  P5aq    C5  1 4.700000e-01    3.240000e+00
  P6aq    C5  1 4.700000e-01    3.070000e+00
  N1dq    C5  1 4.700000e-01    3.690000e+00
  N2dq    C5  1 4.700000e-01    3.520000e+00
  N3dq    C5  1 4.700000e-01    3.520000e+00
  N4dq    C5  1 4.700000e-01    3.520000e+00
  N5dq    C5  1 4.700000e-01    3.520000e+00
  N6dq    C5  1 4.700000e-01    3.520000e+00
  P1dq    C5  1 4.700000e-01    3.390000e+00
  P2dq    C5  1 4.700000e-01    3.390000e+00
  P3dq    C5  1 4.700000e-01    3.390000e+00
  P4dq    C5  1 4.700000e-01    3.240000e+00
  P5dq    C5  1 4.700000e-01    3.240000e+00
  P6dq    C5  1 4.700000e-01    3.070000e+00
    C5   X1q  1 4.700000e-01    3.690000e+00
    C5   X2q  1 4.700000e-01    3.520000e+00
    C5   X3q  1 4.700000e-01    3.520000e+00
    C5   X4q  1 4.700000e-01    3.520000e+00
    C5   C1q  1 4.700000e-01    3.390000e+00
    C5   C2q  1 4.700000e-01    3.390000e+00
    C5   C3q  1 4.700000e-01    3.520000e+00
    C5   C4q  1 4.700000e-01    3.690000e+00
   P6h    C5  1 4.700000e-01    2.790000e+00
   P5h    C5  1 4.700000e-01    2.960000e+00
   P4h    C5  1 4.700000e-01    2.960000e+00
   P3h    C5  1 4.700000e-01    3.070000e+00
   P2h    C5  1 4.700000e-01    3.070000e+00
   P1h    C5  1 4.700000e-01    3.070000e+00
   N6h    C5  1 4.700000e-01    3.240000e+00
   N5h    C5  1 4.700000e-01    3.240000e+00
   N4h    C5  1 4.700000e-01    3.240000e+00
   N3h    C5  1 4.700000e-01    3.240000e+00
   N2h    C5  1 4.700000e-01    3.240000e+00
   N1h    C5  1 4.700000e-01    3.390000e+00
   C6h    C5  1 4.700000e-01    3.390000e+00
    C5   C5h  1 4.700000e-01    3.390000e+00
    C5  X1eh  1 4.700000e-01    3.520000e+00
    C5  X2eh  1 4.700000e-01    3.390000e+00
    C5  X3eh  1 4.700000e-01    3.390000e+00
    C5  X4eh  1 4.700000e-01    3.390000e+00
    C5  C1eh  1 4.700000e-01    3.240000e+00
    C5  C2eh  1 4.700000e-01    3.240000e+00
    C5  C3eh  1 4.700000e-01    3.390000e+00
    C5  C4eh  1 4.700000e-01    3.520000e+00
    C5  C5eh  1 4.700000e-01    3.520000e+00
  C6eh    C5  1 4.700000e-01    3.520000e+00
    C5  X1vh  1 4.700000e-01    3.520000e+00
    C5  X2vh  1 4.700000e-01    3.390000e+00
    C5  X3vh  1 4.700000e-01    3.390000e+00
    C5  X4vh  1 4.700000e-01    3.390000e+00
    C5  C1vh  1 4.700000e-01    3.240000e+00
    C5  C2vh  1 4.700000e-01    3.240000e+00
    C5  C3vh  1 4.700000e-01    3.390000e+00
    C5  C4vh  1 4.700000e-01    3.520000e+00
    C5  C5vh  1 4.700000e-01    3.520000e+00
  C6vh    C5  1 4.700000e-01    3.520000e+00
  N1ah    C5  1 4.700000e-01    3.390000e+00
  N2ah    C5  1 4.700000e-01    3.240000e+00
  N3ah    C5  1 4.700000e-01    3.240000e+00
  N4ah    C5  1 4.700000e-01    3.240000e+00
  N5ah    C5  1 4.700000e-01    3.240000e+00
  N6ah    C5  1 4.700000e-01    3.240000e+00
  P1ah    C5  1 4.700000e-01    3.070000e+00
  P2ah    C5  1 4.700000e-01    3.070000e+00
  P3ah    C5  1 4.700000e-01    3.070000e+00
  P4ah    C5  1 4.700000e-01    2.960000e+00
  P5ah    C5  1 4.700000e-01    2.960000e+00
  P6ah    C5  1 4.700000e-01    2.790000e+00
  N1dh    C5  1 4.700000e-01    3.390000e+00
  N2dh    C5  1 4.700000e-01    3.240000e+00
  N3dh    C5  1 4.700000e-01    3.240000e+00
  N4dh    C5  1 4.700000e-01    3.240000e+00
  N5dh    C5  1 4.700000e-01    3.240000e+00
  N6dh    C5  1 4.700000e-01    3.240000e+00
  P1dh    C5  1 4.700000e-01    3.070000e+00
  P2dh    C5  1 4.700000e-01    3.070000e+00
  P3dh    C5  1 4.700000e-01    3.070000e+00
  P4dh    C5  1 4.700000e-01    2.960000e+00
  P5dh    C5  1 4.700000e-01    2.960000e+00
  P6dh    C5  1 4.700000e-01    2.790000e+00
    C5   X1h  1 4.700000e-01    3.390000e+00
    C5   X2h  1 4.700000e-01    3.240000e+00
    C5   X3h  1 4.700000e-01    3.240000e+00
    C5   X4h  1 4.700000e-01    3.240000e+00
    C5   C1h  1 4.700000e-01    3.070000e+00
    C5   C2h  1 4.700000e-01    3.070000e+00
    C5   C3h  1 4.700000e-01    3.240000e+00
    C5   C4h  1 4.700000e-01    3.390000e+00
   P6r    C5  1 4.700000e-01    2.790000e+00
   P5r    C5  1 4.700000e-01    2.960000e+00
   P4r    C5  1 4.700000e-01    2.960000e+00
   P3r    C5  1 4.700000e-01    3.070000e+00
   P2r    C5  1 4.700000e-01    3.070000e+00
   P1r    C5  1 4.700000e-01    3.070000e+00
   N6r    C5  1 4.700000e-01    3.240000e+00
   N5r    C5  1 4.700000e-01    3.240000e+00
   N4r    C5  1 4.700000e-01    3.240000e+00
   N3r    C5  1 4.700000e-01    3.240000e+00
   N2r    C5  1 4.700000e-01    3.240000e+00
   N1r    C5  1 4.700000e-01    3.390000e+00
   C6r    C5  1 4.700000e-01    3.390000e+00
    C5   C5r  1 4.700000e-01    3.390000e+00
    C5  X1er  1 4.700000e-01    3.520000e+00
    C5  X2er  1 4.700000e-01    3.390000e+00
    C5  X3er  1 4.700000e-01    3.390000e+00
    C5  X4er  1 4.700000e-01    3.390000e+00
    C5  C1er  1 4.700000e-01    3.240000e+00
    C5  C2er  1 4.700000e-01    3.240000e+00
    C5  C3er  1 4.700000e-01    3.390000e+00
    C5  C4er  1 4.700000e-01    3.520000e+00
    C5  C5er  1 4.700000e-01    3.520000e+00
  C6er    C5  1 4.700000e-01    3.520000e+00
    C5  X1vr  1 4.700000e-01    3.520000e+00
    C5  X2vr  1 4.700000e-01    3.390000e+00
    C5  X3vr  1 4.700000e-01    3.390000e+00
    C5  X4vr  1 4.700000e-01    3.390000e+00
    C5  C1vr  1 4.700000e-01    3.240000e+00
    C5  C2vr  1 4.700000e-01    3.240000e+00
    C5  C3vr  1 4.700000e-01    3.390000e+00
    C5  C4vr  1 4.700000e-01    3.520000e+00
    C5  C5vr  1 4.700000e-01    3.520000e+00
  C6vr    C5  1 4.700000e-01    3.520000e+00
  N1ar    C5  1 4.700000e-01    3.390000e+00
  N2ar    C5  1 4.700000e-01    3.240000e+00
  N3ar    C5  1 4.700000e-01    3.240000e+00
  N4ar    C5  1 4.700000e-01    3.240000e+00
  N5ar    C5  1 4.700000e-01    3.240000e+00
  N6ar    C5  1 4.700000e-01    3.240000e+00
  P1ar    C5  1 4.700000e-01    3.070000e+00
  P2ar    C5  1 4.700000e-01    3.070000e+00
  P3ar    C5  1 4.700000e-01    3.070000e+00
  P4ar    C5  1 4.700000e-01    2.960000e+00
  P5ar    C5  1 4.700000e-01    2.960000e+00
  P6ar    C5  1 4.700000e-01    2.790000e+00
  N1dr    C5  1 4.700000e-01    3.390000e+00
  N2dr    C5  1 4.700000e-01    3.240000e+00
  N3dr    C5  1 4.700000e-01    3.240000e+00
  N4dr    C5  1 4.700000e-01    3.240000e+00
  N5dr    C5  1 4.700000e-01    3.240000e+00
  N6dr    C5  1 4.700000e-01    3.240000e+00
  P1dr    C5  1 4.700000e-01    3.070000e+00
  P2dr    C5  1 4.700000e-01    3.070000e+00
  P3dr    C5  1 4.700000e-01    3.070000e+00
  P4dr    C5  1 4.700000e-01    2.960000e+00
  P5dr    C5  1 4.700000e-01    2.960000e+00
  P6dr    C5  1 4.700000e-01    2.790000e+00
    C5   X1r  1 4.700000e-01    3.390000e+00
    C5   X2r  1 4.700000e-01    3.240000e+00
    C5   X3r  1 4.700000e-01    3.240000e+00
    C5   X4r  1 4.700000e-01    3.240000e+00
    C5   C1r  1 4.700000e-01    3.070000e+00
    C5   C2r  1 4.700000e-01    3.070000e+00
    C5   C3r  1 4.700000e-01    3.240000e+00
    C5   C4r  1 4.700000e-01    3.390000e+00
    C5   SC5  1 4.300000e-01    2.920000e+00
    C5   SC4  1 4.300000e-01    2.920000e+00
    C5   SC3  1 4.300000e-01    2.770000e+00
    C5   SC2  1 4.300000e-01    2.530000e+00
    C5   SC1  1 4.300000e-01    2.530000e+00
    C5   SX4  1 4.300000e-01    2.770000e+00
    C5   SX3  1 4.300000e-01    2.770000e+00
    C5   SX2  1 4.300000e-01    2.770000e+00
    C5   SX1  1 4.300000e-01    2.920000e+00
    C5  SC5v  1 4.300000e-01    3.160000e+00
    C5  SX1v  1 4.300000e-01    3.160000e+00
    C5  SX2v  1 4.300000e-01    2.920000e+00
    C5  SX3v  1 4.300000e-01    2.920000e+00
    C5  SX4v  1 4.300000e-01    2.920000e+00
    C5  SC1v  1 4.300000e-01    2.770000e+00
    C5  SC2v  1 4.300000e-01    2.770000e+00
    C5  SC3v  1 4.300000e-01    2.920000e+00
    C5  SC4v  1 4.300000e-01    3.160000e+00
    C5  SC5e  1 4.300000e-01    3.160000e+00
    C5  SX1e  1 4.300000e-01    3.160000e+00
    C5  SX2e  1 4.300000e-01    2.920000e+00
    C5  SX3e  1 4.300000e-01    2.920000e+00
    C5  SX4e  1 4.300000e-01    2.920000e+00
    C5  SC1e  1 4.300000e-01    2.770000e+00
    C5  SC2e  1 4.300000e-01    2.770000e+00
    C5  SC3e  1 4.300000e-01    2.920000e+00
    C5  SC4e  1 4.300000e-01    3.160000e+00
    C5  SC5q  1 4.300000e-01    3.380000e+00
    C5 SX1eq  1 4.300000e-01    3.590000e+00
    C5 SX2eq  1 4.300000e-01    3.380000e+00
    C5 SX3eq  1 4.300000e-01    3.380000e+00
    C5 SX4eq  1 4.300000e-01    3.380000e+00
    C5 SC1eq  1 4.300000e-01    3.160000e+00
    C5 SC2eq  1 4.300000e-01    3.160000e+00
    C5 SC3eq  1 4.300000e-01    3.380000e+00
    C5 SC4eq  1 4.300000e-01    3.590000e+00
    C5 SC5eq  1 4.300000e-01    3.590000e+00
    C5 SX1vq  1 4.300000e-01    3.590000e+00
    C5 SX2vq  1 4.300000e-01    3.380000e+00
    C5 SX3vq  1 4.300000e-01    3.380000e+00
    C5 SX4vq  1 4.300000e-01    3.380000e+00
    C5 SC1vq  1 4.300000e-01    3.160000e+00
    C5 SC2vq  1 4.300000e-01    3.160000e+00
    C5 SC3vq  1 4.300000e-01    3.380000e+00
    C5 SC4vq  1 4.300000e-01    3.590000e+00
    C5 SC5vq  1 4.300000e-01    3.590000e+00
    C5  SX1q  1 4.300000e-01    3.380000e+00
    C5  SX2q  1 4.300000e-01    3.160000e+00
    C5  SX3q  1 4.300000e-01    3.160000e+00
    C5  SX4q  1 4.300000e-01    3.160000e+00
    C5  SC1q  1 4.300000e-01    2.920000e+00
    C5  SC2q  1 4.300000e-01    2.920000e+00
    C5  SC3q  1 4.300000e-01    3.160000e+00
    C5  SC4q  1 4.300000e-01    3.380000e+00
    C5  SC5h  1 4.300000e-01    2.920000e+00
    C5 SX1eh  1 4.300000e-01    3.160000e+00
    C5 SX2eh  1 4.300000e-01    2.920000e+00
    C5 SX3eh  1 4.300000e-01    2.920000e+00
    C5 SX4eh  1 4.300000e-01    2.920000e+00
    C5 SC1eh  1 4.300000e-01    2.770000e+00
    C5 SC2eh  1 4.300000e-01    2.770000e+00
    C5 SC3eh  1 4.300000e-01    2.920000e+00
    C5 SC4eh  1 4.300000e-01    3.160000e+00
    C5 SC5eh  1 4.300000e-01    3.160000e+00
    C5 SX1vh  1 4.300000e-01    3.160000e+00
    C5 SX2vh  1 4.300000e-01    2.920000e+00
    C5 SX3vh  1 4.300000e-01    2.920000e+00
    C5 SX4vh  1 4.300000e-01    2.920000e+00
    C5 SC1vh  1 4.300000e-01    2.770000e+00
    C5 SC2vh  1 4.300000e-01    2.770000e+00
    C5 SC3vh  1 4.300000e-01    2.920000e+00
    C5 SC4vh  1 4.300000e-01    3.160000e+00
    C5 SC5vh  1 4.300000e-01    3.160000e+00
    C5  SX1h  1 4.300000e-01    2.920000e+00
    C5  SX2h  1 4.300000e-01    2.770000e+00
    C5  SX3h  1 4.300000e-01    2.770000e+00
    C5  SX4h  1 4.300000e-01    2.770000e+00
    C5  SC1h  1 4.300000e-01    2.530000e+00
    C5  SC2h  1 4.300000e-01    2.530000e+00
    C5  SC3h  1 4.300000e-01    2.770000e+00
    C5  SC4h  1 4.300000e-01    2.920000e+00
    C5  SC5r  1 4.300000e-01    2.920000e+00
    C5 SX1er  1 4.300000e-01    3.160000e+00
    C5 SX2er  1 4.300000e-01    2.920000e+00
    C5 SX3er  1 4.300000e-01    2.920000e+00
    C5 SX4er  1 4.300000e-01    2.920000e+00
    C5 SC1er  1 4.300000e-01    2.770000e+00
    C5 SC2er  1 4.300000e-01    2.770000e+00
    C5 SC3er  1 4.300000e-01    2.920000e+00
    C5 SC4er  1 4.300000e-01    3.160000e+00
    C5 SC5er  1 4.300000e-01    3.160000e+00
    C5 SX1vr  1 4.300000e-01    3.160000e+00
    C5 SX2vr  1 4.300000e-01    2.920000e+00
    C5 SX3vr  1 4.300000e-01    2.920000e+00
    C5 SX4vr  1 4.300000e-01    2.920000e+00
    C5 SC1vr  1 4.300000e-01    2.770000e+00
    C5 SC2vr  1 4.300000e-01    2.770000e+00
    C5 SC3vr  1 4.300000e-01    2.920000e+00
    C5 SC4vr  1 4.300000e-01    3.160000e+00
    C5 SC5vr  1 4.300000e-01    3.160000e+00
    C5  SX1r  1 4.300000e-01    2.920000e+00
    C5  SX2r  1 4.300000e-01    2.770000e+00
    C5  SX3r  1 4.300000e-01    2.770000e+00
    C5  SX4r  1 4.300000e-01    2.770000e+00
    C5  SC1r  1 4.300000e-01    2.530000e+00
    C5  SC2r  1 4.300000e-01    2.530000e+00
    C5  SC3r  1 4.300000e-01    2.770000e+00
    C5  SC4r  1 4.300000e-01    2.920000e+00
  SP6d    C5  1 4.300000e-01    2.160000e+00
  SP5d    C5  1 4.300000e-01    2.320000e+00
  SP4d    C5  1 4.300000e-01    2.320000e+00
  SP3d    C5  1 4.300000e-01    2.530000e+00
  SP2d    C5  1 4.300000e-01    2.530000e+00
  SP1d    C5  1 4.300000e-01    2.530000e+00
  SN6d    C5  1 4.300000e-01    2.770000e+00
  SN5d    C5  1 4.300000e-01    2.770000e+00
  SN4d    C5  1 4.300000e-01    2.770000e+00
  SN3d    C5  1 4.300000e-01    2.770000e+00
  SN2d    C5  1 4.300000e-01    2.770000e+00
  SN1d    C5  1 4.300000e-01    2.920000e+00
  SP6a    C5  1 4.300000e-01    2.160000e+00
  SP5a    C5  1 4.300000e-01    2.320000e+00
  SP4a    C5  1 4.300000e-01    2.320000e+00
  SP3a    C5  1 4.300000e-01    2.530000e+00
  SP2a    C5  1 4.300000e-01    2.530000e+00
  SP1a    C5  1 4.300000e-01    2.530000e+00
  SN6a    C5  1 4.300000e-01    2.770000e+00
  SN5a    C5  1 4.300000e-01    2.770000e+00
  SN4a    C5  1 4.300000e-01    2.770000e+00
  SN3a    C5  1 4.300000e-01    2.770000e+00
  SN2a    C5  1 4.300000e-01    2.770000e+00
  SN1a    C5  1 4.300000e-01    2.920000e+00
  SC6v    C5  1 4.300000e-01    3.160000e+00
  SC6e    C5  1 4.300000e-01    3.160000e+00
  SP6q    C5  1 4.300000e-01    2.530000e+00
  SP5q    C5  1 4.300000e-01    2.770000e+00
  SP4q    C5  1 4.300000e-01    2.770000e+00
  SP3q    C5  1 4.300000e-01    2.920000e+00
  SP2q    C5  1 4.300000e-01    2.920000e+00
  SP1q    C5  1 4.300000e-01    2.920000e+00
  SN6q    C5  1 4.300000e-01    3.160000e+00
  SN5q    C5  1 4.300000e-01    3.160000e+00
  SN4q    C5  1 4.300000e-01    3.160000e+00
  SN3q    C5  1 4.300000e-01    3.160000e+00
  SN2q    C5  1 4.300000e-01    3.160000e+00
  SN1q    C5  1 4.300000e-01    3.380000e+00
  SC6q    C5  1 4.300000e-01    3.380000e+00
 SC6eq    C5  1 4.300000e-01    3.590000e+00
 SC6vq    C5  1 4.300000e-01    3.590000e+00
 SN1aq    C5  1 4.300000e-01    3.380000e+00
 SN2aq    C5  1 4.300000e-01    3.160000e+00
 SN3aq    C5  1 4.300000e-01    3.160000e+00
 SN4aq    C5  1 4.300000e-01    3.160000e+00
 SN5aq    C5  1 4.300000e-01    3.160000e+00
 SN6aq    C5  1 4.300000e-01    3.160000e+00
 SP1aq    C5  1 4.300000e-01    2.920000e+00
 SP2aq    C5  1 4.300000e-01    2.920000e+00
 SP3aq    C5  1 4.300000e-01    2.920000e+00
 SP4aq    C5  1 4.300000e-01    2.770000e+00
 SP5aq    C5  1 4.300000e-01    2.770000e+00
 SP6aq    C5  1 4.300000e-01    2.530000e+00
 SN1dq    C5  1 4.300000e-01    3.380000e+00
 SN2dq    C5  1 4.300000e-01    3.160000e+00
 SN3dq    C5  1 4.300000e-01    3.160000e+00
 SN4dq    C5  1 4.300000e-01    3.160000e+00
 SN5dq    C5  1 4.300000e-01    3.160000e+00
 SN6dq    C5  1 4.300000e-01    3.160000e+00
 SP1dq    C5  1 4.300000e-01    2.920000e+00
 SP2dq    C5  1 4.300000e-01    2.920000e+00
 SP3dq    C5  1 4.300000e-01    2.920000e+00
 SP4dq    C5  1 4.300000e-01    2.770000e+00
 SP5dq    C5  1 4.300000e-01    2.770000e+00
 SP6dq    C5  1 4.300000e-01    2.530000e+00
  SP6h    C5  1 4.300000e-01    2.160000e+00
  SP5h    C5  1 4.300000e-01    2.320000e+00
  SP4h    C5  1 4.300000e-01    2.320000e+00
  SP3h    C5  1 4.300000e-01    2.530000e+00
  SP2h    C5  1 4.300000e-01    2.530000e+00
  SP1h    C5  1 4.300000e-01    2.530000e+00
  SN6h    C5  1 4.300000e-01    2.770000e+00
  SN5h    C5  1 4.300000e-01    2.770000e+00
  SN4h    C5  1 4.300000e-01    2.770000e+00
  SN3h    C5  1 4.300000e-01    2.770000e+00
  SN2h    C5  1 4.300000e-01    2.770000e+00
  SN1h    C5  1 4.300000e-01    2.920000e+00
  SC6h    C5  1 4.300000e-01    2.920000e+00
 SC6eh    C5  1 4.300000e-01    3.160000e+00
 SC6vh    C5  1 4.300000e-01    3.160000e+00
 SN1ah    C5  1 4.300000e-01    2.920000e+00
 SN2ah    C5  1 4.300000e-01    2.770000e+00
 SN3ah    C5  1 4.300000e-01    2.770000e+00
 SN4ah    C5  1 4.300000e-01    2.770000e+00
 SN5ah    C5  1 4.300000e-01    2.770000e+00
 SN6ah    C5  1 4.300000e-01    2.770000e+00
 SP1ah    C5  1 4.300000e-01    2.530000e+00
 SP2ah    C5  1 4.300000e-01    2.530000e+00
 SP3ah    C5  1 4.300000e-01    2.530000e+00
 SP4ah    C5  1 4.300000e-01    2.320000e+00
 SP5ah    C5  1 4.300000e-01    2.320000e+00
 SP6ah    C5  1 4.300000e-01    2.160000e+00
 SN1dh    C5  1 4.300000e-01    2.920000e+00
 SN2dh    C5  1 4.300000e-01    2.770000e+00
 SN3dh    C5  1 4.300000e-01    2.770000e+00
 SN4dh    C5  1 4.300000e-01    2.770000e+00
 SN5dh    C5  1 4.300000e-01    2.770000e+00
 SN6dh    C5  1 4.300000e-01    2.770000e+00
 SP1dh    C5  1 4.300000e-01    2.530000e+00
 SP2dh    C5  1 4.300000e-01    2.530000e+00
 SP3dh    C5  1 4.300000e-01    2.530000e+00
 SP4dh    C5  1 4.300000e-01    2.320000e+00
 SP5dh    C5  1 4.300000e-01    2.320000e+00
 SP6dh    C5  1 4.300000e-01    2.160000e+00
  SP6r    C5  1 4.300000e-01    2.160000e+00
  SP5r    C5  1 4.300000e-01    2.320000e+00
  SP4r    C5  1 4.300000e-01    2.320000e+00
  SP3r    C5  1 4.300000e-01    2.530000e+00
  SP2r    C5  1 4.300000e-01    2.530000e+00
  SP1r    C5  1 4.300000e-01    2.530000e+00
  SN6r    C5  1 4.300000e-01    2.770000e+00
  SN5r    C5  1 4.300000e-01    2.770000e+00
  SN4r    C5  1 4.300000e-01    2.770000e+00
  SN3r    C5  1 4.300000e-01    2.770000e+00
  SN2r    C5  1 4.300000e-01    2.770000e+00
  SN1r    C5  1 4.300000e-01    2.920000e+00
  SC6r    C5  1 4.300000e-01    2.920000e+00
 SC6er    C5  1 4.300000e-01    3.160000e+00
 SC6vr    C5  1 4.300000e-01    3.160000e+00
 SN1ar    C5  1 4.300000e-01    2.920000e+00
 SN2ar    C5  1 4.300000e-01    2.770000e+00
 SN3ar    C5  1 4.300000e-01    2.770000e+00
 SN4ar    C5  1 4.300000e-01    2.770000e+00
 SN5ar    C5  1 4.300000e-01    2.770000e+00
 SN6ar    C5  1 4.300000e-01    2.770000e+00
 SP1ar    C5  1 4.300000e-01    2.530000e+00
 SP2ar    C5  1 4.300000e-01    2.530000e+00
 SP3ar    C5  1 4.300000e-01    2.530000e+00
 SP4ar    C5  1 4.300000e-01    2.320000e+00
 SP5ar    C5  1 4.300000e-01    2.320000e+00
 SP6ar    C5  1 4.300000e-01    2.160000e+00
 SN1dr    C5  1 4.300000e-01    2.920000e+00
 SN2dr    C5  1 4.300000e-01    2.770000e+00
 SN3dr    C5  1 4.300000e-01    2.770000e+00
 SN4dr    C5  1 4.300000e-01    2.770000e+00
 SN5dr    C5  1 4.300000e-01    2.770000e+00
 SN6dr    C5  1 4.300000e-01    2.770000e+00
 SP1dr    C5  1 4.300000e-01    2.530000e+00
 SP2dr    C5  1 4.300000e-01    2.530000e+00
 SP3dr    C5  1 4.300000e-01    2.530000e+00
 SP4dr    C5  1 4.300000e-01    2.320000e+00
 SP5dr    C5  1 4.300000e-01    2.320000e+00
 SP6dr    C5  1 4.300000e-01    2.160000e+00
    C5   TC5  1 3.950000e-01    2.310000e+00
    C5   TC4  1 3.950000e-01    2.310000e+00
    C5   TC3  1 3.950000e-01    2.110000e+00
    C5   TC2  1 3.950000e-01    1.850000e+00
    C5   TC1  1 3.950000e-01    1.850000e+00
    C5   TX4  1 3.950000e-01    2.110000e+00
    C5   TX3  1 3.950000e-01    2.110000e+00
    C5   TX2  1 3.950000e-01    2.110000e+00
    C5   TX1  1 3.950000e-01    2.310000e+00
    C5  TC5v  1 3.950000e-01    2.500000e+00
    C5  TX1v  1 3.950000e-01    2.500000e+00
    C5  TX2v  1 3.950000e-01    2.310000e+00
    C5  TX3v  1 3.950000e-01    2.310000e+00
    C5  TX4v  1 3.950000e-01    2.310000e+00
    C5  TC1v  1 3.950000e-01    2.110000e+00
    C5  TC2v  1 3.950000e-01    2.110000e+00
    C5  TC3v  1 3.950000e-01    2.310000e+00
    C5  TC4v  1 3.950000e-01    2.500000e+00
    C5  TC5e  1 3.950000e-01    2.500000e+00
    C5  TX1e  1 3.950000e-01    2.500000e+00
    C5  TX2e  1 3.950000e-01    2.310000e+00
    C5  TX3e  1 3.950000e-01    2.310000e+00
    C5  TX4e  1 3.950000e-01    2.310000e+00
    C5  TC1e  1 3.950000e-01    2.110000e+00
    C5  TC2e  1 3.950000e-01    2.110000e+00
    C5  TC3e  1 3.950000e-01    2.310000e+00
    C5  TC4e  1 3.950000e-01    2.500000e+00
    C5  TC5q  1 3.950000e-01    2.700000e+00
    C5 TX1eq  1 3.950000e-01    2.940000e+00
    C5 TX2eq  1 3.950000e-01    2.700000e+00
    C5 TX3eq  1 3.950000e-01    2.700000e+00
    C5 TX4eq  1 3.950000e-01    2.700000e+00
    C5 TC1eq  1 3.950000e-01    2.500000e+00
    C5 TC2eq  1 3.950000e-01    2.500000e+00
    C5 TC3eq  1 3.950000e-01    2.700000e+00
    C5 TC4eq  1 3.950000e-01    2.940000e+00
    C5 TC5eq  1 3.950000e-01    2.940000e+00
    C5 TX1vq  1 3.950000e-01    2.940000e+00
    C5 TX2vq  1 3.950000e-01    2.700000e+00
    C5 TX3vq  1 3.950000e-01    2.700000e+00
    C5 TX4vq  1 3.950000e-01    2.700000e+00
    C5 TC1vq  1 3.950000e-01    2.500000e+00
    C5 TC2vq  1 3.950000e-01    2.500000e+00
    C5 TC3vq  1 3.950000e-01    2.700000e+00
    C5 TC4vq  1 3.950000e-01    2.940000e+00
    C5 TC5vq  1 3.950000e-01    2.940000e+00
    C5  TX1q  1 3.950000e-01    2.700000e+00
    C5  TX2q  1 3.950000e-01    2.500000e+00
    C5  TX3q  1 3.950000e-01    2.500000e+00
    C5  TX4q  1 3.950000e-01    2.500000e+00
    C5  TC1q  1 3.950000e-01    2.310000e+00
    C5  TC2q  1 3.950000e-01    2.310000e+00
    C5  TC3q  1 3.950000e-01    2.500000e+00
    C5  TC4q  1 3.950000e-01    2.700000e+00
    C5  TC5h  1 3.950000e-01    2.310000e+00
    C5 TX1eh  1 3.950000e-01    2.500000e+00
    C5 TX2eh  1 3.950000e-01    2.310000e+00
    C5 TX3eh  1 3.950000e-01    2.310000e+00
    C5 TX4eh  1 3.950000e-01    2.310000e+00
    C5 TC1eh  1 3.950000e-01    2.110000e+00
    C5 TC2eh  1 3.950000e-01    2.110000e+00
    C5 TC3eh  1 3.950000e-01    2.310000e+00
    C5 TC4eh  1 3.950000e-01    2.500000e+00
    C5 TC5eh  1 3.950000e-01    2.500000e+00
    C5 TX1vh  1 3.950000e-01    2.500000e+00
    C5 TX2vh  1 3.950000e-01    2.310000e+00
    C5 TX3vh  1 3.950000e-01    2.310000e+00
    C5 TX4vh  1 3.950000e-01    2.310000e+00
    C5 TC1vh  1 3.950000e-01    2.110000e+00
    C5 TC2vh  1 3.950000e-01    2.110000e+00
    C5 TC3vh  1 3.950000e-01    2.310000e+00
    C5 TC4vh  1 3.950000e-01    2.500000e+00
    C5 TC5vh  1 3.950000e-01    2.500000e+00
    C5  TX1h  1 3.950000e-01    2.310000e+00
    C5  TX2h  1 3.950000e-01    2.110000e+00
    C5  TX3h  1 3.950000e-01    2.110000e+00
    C5  TX4h  1 3.950000e-01    2.110000e+00
    C5  TC1h  1 3.950000e-01    1.850000e+00
    C5  TC2h  1 3.950000e-01    1.850000e+00
    C5  TC3h  1 3.950000e-01    2.110000e+00
    C5  TC4h  1 3.950000e-01    2.310000e+00
    C5  TC5r  1 3.950000e-01    2.310000e+00
    C5 TX1er  1 3.950000e-01    2.500000e+00
    C5 TX2er  1 3.950000e-01    2.310000e+00
    C5 TX3er  1 3.950000e-01    2.310000e+00
    C5 TX4er  1 3.950000e-01    2.310000e+00
    C5 TC1er  1 3.950000e-01    2.110000e+00
    C5 TC2er  1 3.950000e-01    2.110000e+00
    C5 TC3er  1 3.950000e-01    2.310000e+00
    C5 TC4er  1 3.950000e-01    2.500000e+00
    C5 TC5er  1 3.950000e-01    2.500000e+00
    C5 TX1vr  1 3.950000e-01    2.500000e+00
    C5 TX2vr  1 3.950000e-01    2.310000e+00
    C5 TX3vr  1 3.950000e-01    2.310000e+00
    C5 TX4vr  1 3.950000e-01    2.310000e+00
    C5 TC1vr  1 3.950000e-01    2.110000e+00
    C5 TC2vr  1 3.950000e-01    2.110000e+00
    C5 TC3vr  1 3.950000e-01    2.310000e+00
    C5 TC4vr  1 3.950000e-01    2.500000e+00
    C5 TC5vr  1 3.950000e-01    2.500000e+00
    C5  TX1r  1 3.950000e-01    2.310000e+00
    C5  TX2r  1 3.950000e-01    2.110000e+00
    C5  TX3r  1 3.950000e-01    2.110000e+00
    C5  TX4r  1 3.950000e-01    2.110000e+00
    C5  TC1r  1 3.950000e-01    1.850000e+00
    C5  TC2r  1 3.950000e-01    1.850000e+00
    C5  TC3r  1 3.950000e-01    2.110000e+00
    C5  TC4r  1 3.950000e-01    2.310000e+00
  TP6d    C5  1 3.980000e-01    1.450000e+00
  TP5d    C5  1 3.950000e-01    1.670000e+00
  TP4d    C5  1 3.950000e-01    1.670000e+00
  TP3d    C5  1 3.950000e-01    1.850000e+00
  TP2d    C5  1 3.950000e-01    1.850000e+00
  TP1d    C5  1 3.950000e-01    1.850000e+00
  TN6d    C5  1 3.950000e-01    2.110000e+00
  TN5d    C5  1 3.950000e-01    2.110000e+00
  TN4d    C5  1 3.950000e-01    2.110000e+00
  TN3d    C5  1 3.950000e-01    2.110000e+00
  TN2d    C5  1 3.950000e-01    2.110000e+00
  TN1d    C5  1 3.950000e-01    2.310000e+00
  TP6a    C5  1 3.980000e-01    1.450000e+00
  TP5a    C5  1 3.950000e-01    1.670000e+00
  TP4a    C5  1 3.950000e-01    1.670000e+00
  TP3a    C5  1 3.950000e-01    1.850000e+00
  TP2a    C5  1 3.950000e-01    1.850000e+00
  TP1a    C5  1 3.950000e-01    1.850000e+00
  TN6a    C5  1 3.950000e-01    2.110000e+00
  TN5a    C5  1 3.950000e-01    2.110000e+00
  TN4a    C5  1 3.950000e-01    2.110000e+00
  TN3a    C5  1 3.950000e-01    2.110000e+00
  TN2a    C5  1 3.950000e-01    2.110000e+00
  TN1a    C5  1 3.950000e-01    2.310000e+00
  TC6v    C5  1 3.950000e-01    2.500000e+00
  TC6e    C5  1 3.950000e-01    2.500000e+00
  TP6q    C5  1 3.950000e-01    1.850000e+00
  TP5q    C5  1 3.950000e-01    2.110000e+00
  TP4q    C5  1 3.950000e-01    2.110000e+00
  TP3q    C5  1 3.950000e-01    2.310000e+00
  TP2q    C5  1 3.950000e-01    2.310000e+00
  TP1q    C5  1 3.950000e-01    2.310000e+00
  TN6q    C5  1 3.950000e-01    2.500000e+00
  TN5q    C5  1 3.950000e-01    2.500000e+00
  TN4q    C5  1 3.950000e-01    2.500000e+00
  TN3q    C5  1 3.950000e-01    2.500000e+00
  TN2q    C5  1 3.950000e-01    2.500000e+00
  TN1q    C5  1 3.950000e-01    2.700000e+00
  TC6q    C5  1 3.950000e-01    2.700000e+00
 TC6eq    C5  1 3.950000e-01    2.940000e+00
 TC6vq    C5  1 3.950000e-01    2.940000e+00
 TN1aq    C5  1 3.950000e-01    2.700000e+00
 TN2aq    C5  1 3.950000e-01    2.500000e+00
 TN3aq    C5  1 3.950000e-01    2.500000e+00
 TN4aq    C5  1 3.950000e-01    2.500000e+00
 TN5aq    C5  1 3.950000e-01    2.500000e+00
 TN6aq    C5  1 3.950000e-01    2.500000e+00
 TP1aq    C5  1 3.950000e-01    2.310000e+00
 TP2aq    C5  1 3.950000e-01    2.310000e+00
 TP3aq    C5  1 3.950000e-01    2.310000e+00
 TP4aq    C5  1 3.950000e-01    2.110000e+00
 TP5aq    C5  1 3.950000e-01    2.110000e+00
 TP6aq    C5  1 3.950000e-01    1.850000e+00
 TN1dq    C5  1 3.950000e-01    2.700000e+00
 TN2dq    C5  1 3.950000e-01    2.500000e+00
 TN3dq    C5  1 3.950000e-01    2.500000e+00
 TN4dq    C5  1 3.950000e-01    2.500000e+00
 TN5dq    C5  1 3.950000e-01    2.500000e+00
 TN6dq    C5  1 3.950000e-01    2.500000e+00
 TP1dq    C5  1 3.950000e-01    2.310000e+00
 TP2dq    C5  1 3.950000e-01    2.310000e+00
 TP3dq    C5  1 3.950000e-01    2.310000e+00
 TP4dq    C5  1 3.950000e-01    2.110000e+00
 TP5dq    C5  1 3.950000e-01    2.110000e+00
 TP6dq    C5  1 3.950000e-01    1.850000e+00
  TP6h    C5  1 3.980000e-01    1.450000e+00
  TP5h    C5  1 3.950000e-01    1.670000e+00
  TP4h    C5  1 3.950000e-01    1.670000e+00
  TP3h    C5  1 3.950000e-01    1.850000e+00
  TP2h    C5  1 3.950000e-01    1.850000e+00
  TP1h    C5  1 3.950000e-01    1.850000e+00
  TN6h    C5  1 3.950000e-01    2.110000e+00
  TN5h    C5  1 3.950000e-01    2.110000e+00
  TN4h    C5  1 3.950000e-01    2.110000e+00
  TN3h    C5  1 3.950000e-01    2.110000e+00
  TN2h    C5  1 3.950000e-01    2.110000e+00
  TN1h    C5  1 3.950000e-01    2.310000e+00
  TC6h    C5  1 3.950000e-01    2.310000e+00
 TC6eh    C5  1 3.950000e-01    2.500000e+00
 TC6vh    C5  1 3.950000e-01    2.500000e+00
 TN1ah    C5  1 3.950000e-01    2.310000e+00
 TN2ah    C5  1 3.950000e-01    2.110000e+00
 TN3ah    C5  1 3.950000e-01    2.110000e+00
 TN4ah    C5  1 3.950000e-01    2.110000e+00
 TN5ah    C5  1 3.950000e-01    2.110000e+00
 TN6ah    C5  1 3.950000e-01    2.110000e+00
 TP1ah    C5  1 3.950000e-01    1.850000e+00
 TP2ah    C5  1 3.950000e-01    1.850000e+00
 TP3ah    C5  1 3.950000e-01    1.850000e+00
 TP4ah    C5  1 3.950000e-01    1.670000e+00
 TP5ah    C5  1 3.950000e-01    1.670000e+00
 TP6ah    C5  1 3.980000e-01    1.450000e+00
 TN1dh    C5  1 3.950000e-01    2.310000e+00
 TN2dh    C5  1 3.950000e-01    2.110000e+00
 TN3dh    C5  1 3.950000e-01    2.110000e+00
 TN4dh    C5  1 3.950000e-01    2.110000e+00
 TN5dh    C5  1 3.950000e-01    2.110000e+00
 TN6dh    C5  1 3.950000e-01    2.110000e+00
 TP1dh    C5  1 3.950000e-01    1.850000e+00
 TP2dh    C5  1 3.950000e-01    1.850000e+00
 TP3dh    C5  1 3.950000e-01    1.850000e+00
 TP4dh    C5  1 3.950000e-01    1.670000e+00
 TP5dh    C5  1 3.950000e-01    1.670000e+00
 TP6dh    C5  1 3.980000e-01    1.450000e+00
  TP6r    C5  1 3.980000e-01    1.450000e+00
  TP5r    C5  1 3.950000e-01    1.670000e+00
  TP4r    C5  1 3.950000e-01    1.670000e+00
  TP3r    C5  1 3.950000e-01    1.850000e+00
  TP2r    C5  1 3.950000e-01    1.850000e+00
  TP1r    C5  1 3.950000e-01    1.850000e+00
  TN6r    C5  1 3.950000e-01    2.110000e+00
  TN5r    C5  1 3.950000e-01    2.110000e+00
  TN4r    C5  1 3.950000e-01    2.110000e+00
  TN3r    C5  1 3.950000e-01    2.110000e+00
  TN2r    C5  1 3.950000e-01    2.110000e+00
  TN1r    C5  1 3.950000e-01    2.310000e+00
  TC6r    C5  1 3.950000e-01    2.310000e+00
 TC6er    C5  1 3.950000e-01    2.500000e+00
 TC6vr    C5  1 3.950000e-01    2.500000e+00
 TN1ar    C5  1 3.950000e-01    2.310000e+00
 TN2ar    C5  1 3.950000e-01    2.110000e+00
 TN3ar    C5  1 3.950000e-01    2.110000e+00
 TN4ar    C5  1 3.950000e-01    2.110000e+00
 TN5ar    C5  1 3.950000e-01    2.110000e+00
 TN6ar    C5  1 3.950000e-01    2.110000e+00
 TP1ar    C5  1 3.950000e-01    1.850000e+00
 TP2ar    C5  1 3.950000e-01    1.850000e+00
 TP3ar    C5  1 3.950000e-01    1.850000e+00
 TP4ar    C5  1 3.950000e-01    1.670000e+00
 TP5ar    C5  1 3.950000e-01    1.670000e+00
 TP6ar    C5  1 3.980000e-01    1.450000e+00
 TN1dr    C5  1 3.950000e-01    2.310000e+00
 TN2dr    C5  1 3.950000e-01    2.110000e+00
 TN3dr    C5  1 3.950000e-01    2.110000e+00
 TN4dr    C5  1 3.950000e-01    2.110000e+00
 TN5dr    C5  1 3.950000e-01    2.110000e+00
 TN6dr    C5  1 3.950000e-01    2.110000e+00
 TP1dr    C5  1 3.950000e-01    1.850000e+00
 TP2dr    C5  1 3.950000e-01    1.850000e+00
 TP3dr    C5  1 3.950000e-01    1.850000e+00
 TP4dr    C5  1 3.950000e-01    1.670000e+00
 TP5dr    C5  1 3.950000e-01    1.670000e+00
 TP6dr    C5  1 3.980000e-01    1.450000e+00
   P6d   SC5  1 4.300000e-01    2.160000e+00
   P5d   SC5  1 4.300000e-01    2.320000e+00
   P4d   SC5  1 4.300000e-01    2.320000e+00
   P3d   SC5  1 4.300000e-01    2.530000e+00
   P2d   SC5  1 4.300000e-01    2.530000e+00
   P1d   SC5  1 4.300000e-01    2.530000e+00
   N6d   SC5  1 4.300000e-01    2.770000e+00
   N5d   SC5  1 4.300000e-01    2.770000e+00
   N4d   SC5  1 4.300000e-01    2.770000e+00
   N3d   SC5  1 4.300000e-01    2.770000e+00
   N2d   SC5  1 4.300000e-01    2.770000e+00
   N1d   SC5  1 4.300000e-01    2.920000e+00
   P6a   SC5  1 4.300000e-01    2.160000e+00
   P5a   SC5  1 4.300000e-01    2.320000e+00
   P4a   SC5  1 4.300000e-01    2.320000e+00
   P3a   SC5  1 4.300000e-01    2.530000e+00
   P2a   SC5  1 4.300000e-01    2.530000e+00
   P1a   SC5  1 4.300000e-01    2.530000e+00
   N6a   SC5  1 4.300000e-01    2.770000e+00
   N5a   SC5  1 4.300000e-01    2.770000e+00
   N4a   SC5  1 4.300000e-01    2.770000e+00
   N3a   SC5  1 4.300000e-01    2.770000e+00
   N2a   SC5  1 4.300000e-01    2.770000e+00
   N1a   SC5  1 4.300000e-01    2.920000e+00
   C6v   SC5  1 4.300000e-01    3.160000e+00
   C6e   SC5  1 4.300000e-01    3.160000e+00
   P6q   SC5  1 4.300000e-01    2.530000e+00
   P5q   SC5  1 4.300000e-01    2.770000e+00
   P4q   SC5  1 4.300000e-01    2.770000e+00
   P3q   SC5  1 4.300000e-01    2.920000e+00
   P2q   SC5  1 4.300000e-01    2.920000e+00
   P1q   SC5  1 4.300000e-01    2.920000e+00
   N6q   SC5  1 4.300000e-01    3.160000e+00
   N5q   SC5  1 4.300000e-01    3.160000e+00
   N4q   SC5  1 4.300000e-01    3.160000e+00
   N3q   SC5  1 4.300000e-01    3.160000e+00
   N2q   SC5  1 4.300000e-01    3.160000e+00
   N1q   SC5  1 4.300000e-01    3.380000e+00
   C6q   SC5  1 4.300000e-01    3.380000e+00
  C6eq   SC5  1 4.300000e-01    3.590000e+00
  C6vq   SC5  1 4.300000e-01    3.590000e+00
  N1aq   SC5  1 4.300000e-01    3.380000e+00
  N2aq   SC5  1 4.300000e-01    3.160000e+00
  N3aq   SC5  1 4.300000e-01    3.160000e+00
  N4aq   SC5  1 4.300000e-01    3.160000e+00
  N5aq   SC5  1 4.300000e-01    3.160000e+00
  N6aq   SC5  1 4.300000e-01    3.160000e+00
  P1aq   SC5  1 4.300000e-01    2.920000e+00
  P2aq   SC5  1 4.300000e-01    2.920000e+00
  P3aq   SC5  1 4.300000e-01    2.920000e+00
  P4aq   SC5  1 4.300000e-01    2.770000e+00
  P5aq   SC5  1 4.300000e-01    2.770000e+00
  P6aq   SC5  1 4.300000e-01    2.530000e+00
  N1dq   SC5  1 4.300000e-01    3.380000e+00
  N2dq   SC5  1 4.300000e-01    3.160000e+00
  N3dq   SC5  1 4.300000e-01    3.160000e+00
  N4dq   SC5  1 4.300000e-01    3.160000e+00
  N5dq   SC5  1 4.300000e-01    3.160000e+00
  N6dq   SC5  1 4.300000e-01    3.160000e+00
  P1dq   SC5  1 4.300000e-01    2.920000e+00
  P2dq   SC5  1 4.300000e-01    2.920000e+00
  P3dq   SC5  1 4.300000e-01    2.920000e+00
  P4dq   SC5  1 4.300000e-01    2.770000e+00
  P5dq   SC5  1 4.300000e-01    2.770000e+00
  P6dq   SC5  1 4.300000e-01    2.530000e+00
   P6h   SC5  1 4.300000e-01    2.160000e+00
   P5h   SC5  1 4.300000e-01    2.320000e+00
   P4h   SC5  1 4.300000e-01    2.320000e+00
   P3h   SC5  1 4.300000e-01    2.530000e+00
   P2h   SC5  1 4.300000e-01    2.530000e+00
   P1h   SC5  1 4.300000e-01    2.530000e+00
   N6h   SC5  1 4.300000e-01    2.770000e+00
   N5h   SC5  1 4.300000e-01    2.770000e+00
   N4h   SC5  1 4.300000e-01    2.770000e+00
   N3h   SC5  1 4.300000e-01    2.770000e+00
   N2h   SC5  1 4.300000e-01    2.770000e+00
   N1h   SC5  1 4.300000e-01    2.920000e+00
   C6h   SC5  1 4.300000e-01    2.920000e+00
  C6eh   SC5  1 4.300000e-01    3.160000e+00
  C6vh   SC5  1 4.300000e-01    3.160000e+00
  N1ah   SC5  1 4.300000e-01    2.920000e+00
  N2ah   SC5  1 4.300000e-01    2.770000e+00
  N3ah   SC5  1 4.300000e-01    2.770000e+00
  N4ah   SC5  1 4.300000e-01    2.770000e+00
  N5ah   SC5  1 4.300000e-01    2.770000e+00
  N6ah   SC5  1 4.300000e-01    2.770000e+00
  P1ah   SC5  1 4.300000e-01    2.530000e+00
  P2ah   SC5  1 4.300000e-01    2.530000e+00
  P3ah   SC5  1 4.300000e-01    2.530000e+00
  P4ah   SC5  1 4.300000e-01    2.320000e+00
  P5ah   SC5  1 4.300000e-01    2.320000e+00
  P6ah   SC5  1 4.300000e-01    2.160000e+00
  N1dh   SC5  1 4.300000e-01    2.920000e+00
  N2dh   SC5  1 4.300000e-01    2.770000e+00
  N3dh   SC5  1 4.300000e-01    2.770000e+00
  N4dh   SC5  1 4.300000e-01    2.770000e+00
  N5dh   SC5  1 4.300000e-01    2.770000e+00
  N6dh   SC5  1 4.300000e-01    2.770000e+00
  P1dh   SC5  1 4.300000e-01    2.530000e+00
  P2dh   SC5  1 4.300000e-01    2.530000e+00
  P3dh   SC5  1 4.300000e-01    2.530000e+00
  P4dh   SC5  1 4.300000e-01    2.320000e+00
  P5dh   SC5  1 4.300000e-01    2.320000e+00
  P6dh   SC5  1 4.300000e-01    2.160000e+00
   P6r   SC5  1 4.300000e-01    2.160000e+00
   P5r   SC5  1 4.300000e-01    2.320000e+00
   P4r   SC5  1 4.300000e-01    2.320000e+00
   P3r   SC5  1 4.300000e-01    2.530000e+00
   P2r   SC5  1 4.300000e-01    2.530000e+00
   P1r   SC5  1 4.300000e-01    2.530000e+00
   N6r   SC5  1 4.300000e-01    2.770000e+00
   N5r   SC5  1 4.300000e-01    2.770000e+00
   N4r   SC5  1 4.300000e-01    2.770000e+00
   N3r   SC5  1 4.300000e-01    2.770000e+00
   N2r   SC5  1 4.300000e-01    2.770000e+00
   N1r   SC5  1 4.300000e-01    2.920000e+00
   C6r   SC5  1 4.300000e-01    2.920000e+00
  C6er   SC5  1 4.300000e-01    3.160000e+00
  C6vr   SC5  1 4.300000e-01    3.160000e+00
  N1ar   SC5  1 4.300000e-01    2.920000e+00
  N2ar   SC5  1 4.300000e-01    2.770000e+00
  N3ar   SC5  1 4.300000e-01    2.770000e+00
  N4ar   SC5  1 4.300000e-01    2.770000e+00
  N5ar   SC5  1 4.300000e-01    2.770000e+00
  N6ar   SC5  1 4.300000e-01    2.770000e+00
  P1ar   SC5  1 4.300000e-01    2.530000e+00
  P2ar   SC5  1 4.300000e-01    2.530000e+00
  P3ar   SC5  1 4.300000e-01    2.530000e+00
  P4ar   SC5  1 4.300000e-01    2.320000e+00
  P5ar   SC5  1 4.300000e-01    2.320000e+00
  P6ar   SC5  1 4.300000e-01    2.160000e+00
  N1dr   SC5  1 4.300000e-01    2.920000e+00
  N2dr   SC5  1 4.300000e-01    2.770000e+00
  N3dr   SC5  1 4.300000e-01    2.770000e+00
  N4dr   SC5  1 4.300000e-01    2.770000e+00
  N5dr   SC5  1 4.300000e-01    2.770000e+00
  N6dr   SC5  1 4.300000e-01    2.770000e+00
  P1dr   SC5  1 4.300000e-01    2.530000e+00
  P2dr   SC5  1 4.300000e-01    2.530000e+00
  P3dr   SC5  1 4.300000e-01    2.530000e+00
  P4dr   SC5  1 4.300000e-01    2.320000e+00
  P5dr   SC5  1 4.300000e-01    2.320000e+00
  P6dr   SC5  1 4.300000e-01    2.160000e+00
   SC5    C4  1 4.300000e-01    2.920000e+00
   SC5    C3  1 4.300000e-01    2.770000e+00
   SC5    C2  1 4.300000e-01    2.530000e+00
   SC5    C1  1 4.300000e-01    2.530000e+00
   SC5    X4  1 4.300000e-01    2.770000e+00
   SC5    X3  1 4.300000e-01    2.770000e+00
   SC5    X2  1 4.300000e-01    2.770000e+00
   SC5    X1  1 4.300000e-01    2.920000e+00
   SC5   C5v  1 4.300000e-01    3.160000e+00
   SC5   X1v  1 4.300000e-01    3.160000e+00
   SC5   X2v  1 4.300000e-01    2.920000e+00
   SC5   X3v  1 4.300000e-01    2.920000e+00
   SC5   X4v  1 4.300000e-01    2.920000e+00
   SC5   C1v  1 4.300000e-01    2.770000e+00
   SC5   C2v  1 4.300000e-01    2.770000e+00
   SC5   C3v  1 4.300000e-01    2.920000e+00
   SC5   C4v  1 4.300000e-01    3.160000e+00
   SC5   C5e  1 4.300000e-01    3.160000e+00
   SC5   X1e  1 4.300000e-01    3.160000e+00
   SC5   X2e  1 4.300000e-01    2.920000e+00
   SC5   X3e  1 4.300000e-01    2.920000e+00
   SC5   X4e  1 4.300000e-01    2.920000e+00
   SC5   C1e  1 4.300000e-01    2.770000e+00
   SC5   C2e  1 4.300000e-01    2.770000e+00
   SC5   C3e  1 4.300000e-01    2.920000e+00
   SC5   C4e  1 4.300000e-01    3.160000e+00
   SC5   C5q  1 4.300000e-01    3.380000e+00
   SC5  X1eq  1 4.300000e-01    3.590000e+00
   SC5  X2eq  1 4.300000e-01    3.380000e+00
   SC5  X3eq  1 4.300000e-01    3.380000e+00
   SC5  X4eq  1 4.300000e-01    3.380000e+00
   SC5  C1eq  1 4.300000e-01    3.160000e+00
   SC5  C2eq  1 4.300000e-01    3.160000e+00
   SC5  C3eq  1 4.300000e-01    3.380000e+00
   SC5  C4eq  1 4.300000e-01    3.590000e+00
   SC5  C5eq  1 4.300000e-01    3.590000e+00
   SC5  X1vq  1 4.300000e-01    3.590000e+00
   SC5  X2vq  1 4.300000e-01    3.380000e+00
   SC5  X3vq  1 4.300000e-01    3.380000e+00
   SC5  X4vq  1 4.300000e-01    3.380000e+00
   SC5  C1vq  1 4.300000e-01    3.160000e+00
   SC5  C2vq  1 4.300000e-01    3.160000e+00
   SC5  C3vq  1 4.300000e-01    3.380000e+00
   SC5  C4vq  1 4.300000e-01    3.590000e+00
   SC5  C5vq  1 4.300000e-01    3.590000e+00
   SC5   X1q  1 4.300000e-01    3.380000e+00
   SC5   X2q  1 4.300000e-01    3.160000e+00
   SC5   X3q  1 4.300000e-01    3.160000e+00
   SC5   X4q  1 4.300000e-01    3.160000e+00
   SC5   C1q  1 4.300000e-01    2.920000e+00
   SC5   C2q  1 4.300000e-01    2.920000e+00
   SC5   C3q  1 4.300000e-01    3.160000e+00
   SC5   C4q  1 4.300000e-01    3.380000e+00
   SC5   C5h  1 4.300000e-01    2.920000e+00
   SC5  X1eh  1 4.300000e-01    3.160000e+00
   SC5  X2eh  1 4.300000e-01    2.920000e+00
   SC5  X3eh  1 4.300000e-01    2.920000e+00
   SC5  X4eh  1 4.300000e-01    2.920000e+00
   SC5  C1eh  1 4.300000e-01    2.770000e+00
   SC5  C2eh  1 4.300000e-01    2.770000e+00
   SC5  C3eh  1 4.300000e-01    2.920000e+00
   SC5  C4eh  1 4.300000e-01    3.160000e+00
   SC5  C5eh  1 4.300000e-01    3.160000e+00
   SC5  X1vh  1 4.300000e-01    3.160000e+00
   SC5  X2vh  1 4.300000e-01    2.920000e+00
   SC5  X3vh  1 4.300000e-01    2.920000e+00
   SC5  X4vh  1 4.300000e-01    2.920000e+00
   SC5  C1vh  1 4.300000e-01    2.770000e+00
   SC5  C2vh  1 4.300000e-01    2.770000e+00
   SC5  C3vh  1 4.300000e-01    2.920000e+00
   SC5  C4vh  1 4.300000e-01    3.160000e+00
   SC5  C5vh  1 4.300000e-01    3.160000e+00
   SC5   X1h  1 4.300000e-01    2.920000e+00
   SC5   X2h  1 4.300000e-01    2.770000e+00
   SC5   X3h  1 4.300000e-01    2.770000e+00
   SC5   X4h  1 4.300000e-01    2.770000e+00
   SC5   C1h  1 4.300000e-01    2.530000e+00
   SC5   C2h  1 4.300000e-01    2.530000e+00
   SC5   C3h  1 4.300000e-01    2.770000e+00
   SC5   C4h  1 4.300000e-01    2.920000e+00
   SC5   C5r  1 4.300000e-01    2.920000e+00
   SC5  X1er  1 4.300000e-01    3.160000e+00
   SC5  X2er  1 4.300000e-01    2.920000e+00
   SC5  X3er  1 4.300000e-01    2.920000e+00
   SC5  X4er  1 4.300000e-01    2.920000e+00
   SC5  C1er  1 4.300000e-01    2.770000e+00
   SC5  C2er  1 4.300000e-01    2.770000e+00
   SC5  C3er  1 4.300000e-01    2.920000e+00
   SC5  C4er  1 4.300000e-01    3.160000e+00
   SC5  C5er  1 4.300000e-01    3.160000e+00
   SC5  X1vr  1 4.300000e-01    3.160000e+00
   SC5  X2vr  1 4.300000e-01    2.920000e+00
   SC5  X3vr  1 4.300000e-01    2.920000e+00
   SC5  X4vr  1 4.300000e-01    2.920000e+00
   SC5  C1vr  1 4.300000e-01    2.770000e+00
   SC5  C2vr  1 4.300000e-01    2.770000e+00
   SC5  C3vr  1 4.300000e-01    2.920000e+00
   SC5  C4vr  1 4.300000e-01    3.160000e+00
   SC5  C5vr  1 4.300000e-01    3.160000e+00
   SC5   X1r  1 4.300000e-01    2.920000e+00
   SC5   X2r  1 4.300000e-01    2.770000e+00
   SC5   X3r  1 4.300000e-01    2.770000e+00
   SC5   X4r  1 4.300000e-01    2.770000e+00
   SC5   C1r  1 4.300000e-01    2.530000e+00
   SC5   C2r  1 4.300000e-01    2.530000e+00
   SC5   C3r  1 4.300000e-01    2.770000e+00
   SC5   C4r  1 4.300000e-01    2.920000e+00
   SC5   SC5  1 4.100000e-01    2.350000e+00
   SC5   SC4  1 4.100000e-01    2.350000e+00
   SC5   SC3  1 4.100000e-01    2.200000e+00
   SC5   SC2  1 4.100000e-01    2.040000e+00
   SC5   SC1  1 4.100000e-01    2.040000e+00
   SC5   SX4  1 4.100000e-01    2.200000e+00
   SC5   SX3  1 4.100000e-01    2.200000e+00
   SC5   SX2  1 4.100000e-01    2.200000e+00
   SC5   SX1  1 4.100000e-01    2.350000e+00
  SP6d   SC5  1 4.100000e-01    1.750000e+00
  SP5d   SC5  1 4.100000e-01    1.910000e+00
  SP4d   SC5  1 4.100000e-01    1.910000e+00
  SP3d   SC5  1 4.100000e-01    2.040000e+00
  SP2d   SC5  1 4.100000e-01    2.040000e+00
  SP1d   SC5  1 4.100000e-01    2.040000e+00
  SN6d   SC5  1 4.100000e-01    2.200000e+00
  SN5d   SC5  1 4.100000e-01    2.200000e+00
  SN4d   SC5  1 4.100000e-01    2.200000e+00
  SN3d   SC5  1 4.100000e-01    2.200000e+00
  SN2d   SC5  1 4.100000e-01    2.200000e+00
  SN1d   SC5  1 4.100000e-01    2.350000e+00
  SP6a   SC5  1 4.100000e-01    1.750000e+00
  SP5a   SC5  1 4.100000e-01    1.910000e+00
  SP4a   SC5  1 4.100000e-01    1.910000e+00
  SP3a   SC5  1 4.100000e-01    2.040000e+00
  SP2a   SC5  1 4.100000e-01    2.040000e+00
  SP1a   SC5  1 4.100000e-01    2.040000e+00
  SN6a   SC5  1 4.100000e-01    2.200000e+00
  SN5a   SC5  1 4.100000e-01    2.200000e+00
  SN4a   SC5  1 4.100000e-01    2.200000e+00
  SN3a   SC5  1 4.100000e-01    2.200000e+00
  SN2a   SC5  1 4.100000e-01    2.200000e+00
  SN1a   SC5  1 4.100000e-01    2.350000e+00
  SC6v   SC5  1 4.100000e-01    2.600000e+00
   SC5  SC5v  1 4.100000e-01    2.600000e+00
   SC5  SX1v  1 4.100000e-01    2.600000e+00
   SC5  SX2v  1 4.100000e-01    2.350000e+00
   SC5  SX3v  1 4.100000e-01    2.350000e+00
   SC5  SX4v  1 4.100000e-01    2.350000e+00
   SC5  SC1v  1 4.100000e-01    2.200000e+00
   SC5  SC2v  1 4.100000e-01    2.200000e+00
   SC5  SC3v  1 4.100000e-01    2.350000e+00
   SC5  SC4v  1 4.100000e-01    2.600000e+00
  SC6e   SC5  1 4.100000e-01    2.600000e+00
   SC5  SC5e  1 4.100000e-01    2.600000e+00
   SC5  SX1e  1 4.100000e-01    2.600000e+00
   SC5  SX2e  1 4.100000e-01    2.350000e+00
   SC5  SX3e  1 4.100000e-01    2.350000e+00
   SC5  SX4e  1 4.100000e-01    2.350000e+00
   SC5  SC1e  1 4.100000e-01    2.200000e+00
   SC5  SC2e  1 4.100000e-01    2.200000e+00
   SC5  SC3e  1 4.100000e-01    2.350000e+00
   SC5  SC4e  1 4.100000e-01    2.600000e+00
  SP6q   SC5  1 4.100000e-01    2.040000e+00
  SP5q   SC5  1 4.100000e-01    2.200000e+00
  SP4q   SC5  1 4.100000e-01    2.200000e+00
  SP3q   SC5  1 4.100000e-01    2.350000e+00
  SP2q   SC5  1 4.100000e-01    2.350000e+00
  SP1q   SC5  1 4.100000e-01    2.350000e+00
  SN6q   SC5  1 4.100000e-01    2.600000e+00
  SN5q   SC5  1 4.100000e-01    2.600000e+00
  SN4q   SC5  1 4.100000e-01    2.600000e+00
  SN3q   SC5  1 4.100000e-01    2.600000e+00
  SN2q   SC5  1 4.100000e-01    2.600000e+00
  SN1q   SC5  1 4.100000e-01    2.840000e+00
  SC6q   SC5  1 4.100000e-01    2.840000e+00
   SC5  SC5q  1 4.100000e-01    2.840000e+00
   SC5 SX1eq  1 4.100000e-01    3.070000e+00
   SC5 SX2eq  1 4.100000e-01    2.840000e+00
   SC5 SX3eq  1 4.100000e-01    2.840000e+00
   SC5 SX4eq  1 4.100000e-01    2.840000e+00
   SC5 SC1eq  1 4.100000e-01    2.600000e+00
   SC5 SC2eq  1 4.100000e-01    2.600000e+00
   SC5 SC3eq  1 4.100000e-01    2.840000e+00
   SC5 SC4eq  1 4.100000e-01    3.070000e+00
   SC5 SC5eq  1 4.100000e-01    3.070000e+00
 SC6eq   SC5  1 4.100000e-01    3.070000e+00
   SC5 SX1vq  1 4.100000e-01    3.070000e+00
   SC5 SX2vq  1 4.100000e-01    2.840000e+00
   SC5 SX3vq  1 4.100000e-01    2.840000e+00
   SC5 SX4vq  1 4.100000e-01    2.840000e+00
   SC5 SC1vq  1 4.100000e-01    2.600000e+00
   SC5 SC2vq  1 4.100000e-01    2.600000e+00
   SC5 SC3vq  1 4.100000e-01    2.840000e+00
   SC5 SC4vq  1 4.100000e-01    3.070000e+00
   SC5 SC5vq  1 4.100000e-01    3.070000e+00
 SC6vq   SC5  1 4.100000e-01    3.070000e+00
 SN1aq   SC5  1 4.100000e-01    2.840000e+00
 SN2aq   SC5  1 4.100000e-01    2.600000e+00
 SN3aq   SC5  1 4.100000e-01    2.600000e+00
 SN4aq   SC5  1 4.100000e-01    2.600000e+00
 SN5aq   SC5  1 4.100000e-01    2.600000e+00
 SN6aq   SC5  1 4.100000e-01    2.600000e+00
 SP1aq   SC5  1 4.100000e-01    2.350000e+00
 SP2aq   SC5  1 4.100000e-01    2.350000e+00
 SP3aq   SC5  1 4.100000e-01    2.350000e+00
 SP4aq   SC5  1 4.100000e-01    2.200000e+00
 SP5aq   SC5  1 4.100000e-01    2.200000e+00
 SP6aq   SC5  1 4.100000e-01    2.040000e+00
 SN1dq   SC5  1 4.100000e-01    2.840000e+00
 SN2dq   SC5  1 4.100000e-01    2.600000e+00
 SN3dq   SC5  1 4.100000e-01    2.600000e+00
 SN4dq   SC5  1 4.100000e-01    2.600000e+00
 SN5dq   SC5  1 4.100000e-01    2.600000e+00
 SN6dq   SC5  1 4.100000e-01    2.600000e+00
 SP1dq   SC5  1 4.100000e-01    2.350000e+00
 SP2dq   SC5  1 4.100000e-01    2.350000e+00
 SP3dq   SC5  1 4.100000e-01    2.350000e+00
 SP4dq   SC5  1 4.100000e-01    2.200000e+00
 SP5dq   SC5  1 4.100000e-01    2.200000e+00
 SP6dq   SC5  1 4.100000e-01    2.040000e+00
   SC5  SX1q  1 4.100000e-01    2.840000e+00
   SC5  SX2q  1 4.100000e-01    2.600000e+00
   SC5  SX3q  1 4.100000e-01    2.600000e+00
   SC5  SX4q  1 4.100000e-01    2.600000e+00
   SC5  SC1q  1 4.100000e-01    2.350000e+00
   SC5  SC2q  1 4.100000e-01    2.350000e+00
   SC5  SC3q  1 4.100000e-01    2.600000e+00
   SC5  SC4q  1 4.100000e-01    2.840000e+00
  SP6h   SC5  1 4.100000e-01    1.750000e+00
  SP5h   SC5  1 4.100000e-01    1.910000e+00
  SP4h   SC5  1 4.100000e-01    1.910000e+00
  SP3h   SC5  1 4.100000e-01    2.040000e+00
  SP2h   SC5  1 4.100000e-01    2.040000e+00
  SP1h   SC5  1 4.100000e-01    2.040000e+00
  SN6h   SC5  1 4.100000e-01    2.200000e+00
  SN5h   SC5  1 4.100000e-01    2.200000e+00
  SN4h   SC5  1 4.100000e-01    2.200000e+00
  SN3h   SC5  1 4.100000e-01    2.200000e+00
  SN2h   SC5  1 4.100000e-01    2.200000e+00
  SN1h   SC5  1 4.100000e-01    2.350000e+00
  SC6h   SC5  1 4.100000e-01    2.350000e+00
   SC5  SC5h  1 4.100000e-01    2.350000e+00
   SC5 SX1eh  1 4.100000e-01    2.600000e+00
   SC5 SX2eh  1 4.100000e-01    2.350000e+00
   SC5 SX3eh  1 4.100000e-01    2.350000e+00
   SC5 SX4eh  1 4.100000e-01    2.350000e+00
   SC5 SC1eh  1 4.100000e-01    2.200000e+00
   SC5 SC2eh  1 4.100000e-01    2.200000e+00
   SC5 SC3eh  1 4.100000e-01    2.350000e+00
   SC5 SC4eh  1 4.100000e-01    2.600000e+00
   SC5 SC5eh  1 4.100000e-01    2.600000e+00
 SC6eh   SC5  1 4.100000e-01    2.600000e+00
   SC5 SX1vh  1 4.100000e-01    2.600000e+00
   SC5 SX2vh  1 4.100000e-01    2.350000e+00
   SC5 SX3vh  1 4.100000e-01    2.350000e+00
   SC5 SX4vh  1 4.100000e-01    2.350000e+00
   SC5 SC1vh  1 4.100000e-01    2.200000e+00
   SC5 SC2vh  1 4.100000e-01    2.200000e+00
   SC5 SC3vh  1 4.100000e-01    2.350000e+00
   SC5 SC4vh  1 4.100000e-01    2.600000e+00
   SC5 SC5vh  1 4.100000e-01    2.600000e+00
 SC6vh   SC5  1 4.100000e-01    2.600000e+00
 SN1ah   SC5  1 4.100000e-01    2.350000e+00
 SN2ah   SC5  1 4.100000e-01    2.200000e+00
 SN3ah   SC5  1 4.100000e-01    2.200000e+00
 SN4ah   SC5  1 4.100000e-01    2.200000e+00
 SN5ah   SC5  1 4.100000e-01    2.200000e+00
 SN6ah   SC5  1 4.100000e-01    2.200000e+00
 SP1ah   SC5  1 4.100000e-01    2.040000e+00
 SP2ah   SC5  1 4.100000e-01    2.040000e+00
 SP3ah   SC5  1 4.100000e-01    2.040000e+00
 SP4ah   SC5  1 4.100000e-01    1.910000e+00
 SP5ah   SC5  1 4.100000e-01    1.910000e+00
 SP6ah   SC5  1 4.100000e-01    1.750000e+00
 SN1dh   SC5  1 4.100000e-01    2.350000e+00
 SN2dh   SC5  1 4.100000e-01    2.200000e+00
 SN3dh   SC5  1 4.100000e-01    2.200000e+00
 SN4dh   SC5  1 4.100000e-01    2.200000e+00
 SN5dh   SC5  1 4.100000e-01    2.200000e+00
 SN6dh   SC5  1 4.100000e-01    2.200000e+00
 SP1dh   SC5  1 4.100000e-01    2.040000e+00
 SP2dh   SC5  1 4.100000e-01    2.040000e+00
 SP3dh   SC5  1 4.100000e-01    2.040000e+00
 SP4dh   SC5  1 4.100000e-01    1.910000e+00
 SP5dh   SC5  1 4.100000e-01    1.910000e+00
 SP6dh   SC5  1 4.100000e-01    1.750000e+00
   SC5  SX1h  1 4.100000e-01    2.350000e+00
   SC5  SX2h  1 4.100000e-01    2.200000e+00
   SC5  SX3h  1 4.100000e-01    2.200000e+00
   SC5  SX4h  1 4.100000e-01    2.200000e+00
   SC5  SC1h  1 4.100000e-01    2.040000e+00
   SC5  SC2h  1 4.100000e-01    2.040000e+00
   SC5  SC3h  1 4.100000e-01    2.200000e+00
   SC5  SC4h  1 4.100000e-01    2.350000e+00
  SP6r   SC5  1 4.100000e-01    1.750000e+00
  SP5r   SC5  1 4.100000e-01    1.910000e+00
  SP4r   SC5  1 4.100000e-01    1.910000e+00
  SP3r   SC5  1 4.100000e-01    2.040000e+00
  SP2r   SC5  1 4.100000e-01    2.040000e+00
  SP1r   SC5  1 4.100000e-01    2.040000e+00
  SN6r   SC5  1 4.100000e-01    2.200000e+00
  SN5r   SC5  1 4.100000e-01    2.200000e+00
  SN4r   SC5  1 4.100000e-01    2.200000e+00
  SN3r   SC5  1 4.100000e-01    2.200000e+00
  SN2r   SC5  1 4.100000e-01    2.200000e+00
  SN1r   SC5  1 4.100000e-01    2.350000e+00
  SC6r   SC5  1 4.100000e-01    2.350000e+00
   SC5  SC5r  1 4.100000e-01    2.350000e+00
   SC5 SX1er  1 4.100000e-01    2.600000e+00
   SC5 SX2er  1 4.100000e-01    2.350000e+00
   SC5 SX3er  1 4.100000e-01    2.350000e+00
   SC5 SX4er  1 4.100000e-01    2.350000e+00
   SC5 SC1er  1 4.100000e-01    2.200000e+00
   SC5 SC2er  1 4.100000e-01    2.200000e+00
   SC5 SC3er  1 4.100000e-01    2.350000e+00
   SC5 SC4er  1 4.100000e-01    2.600000e+00
   SC5 SC5er  1 4.100000e-01    2.600000e+00
 SC6er   SC5  1 4.100000e-01    2.600000e+00
   SC5 SX1vr  1 4.100000e-01    2.600000e+00
   SC5 SX2vr  1 4.100000e-01    2.350000e+00
   SC5 SX3vr  1 4.100000e-01    2.350000e+00
   SC5 SX4vr  1 4.100000e-01    2.350000e+00
   SC5 SC1vr  1 4.100000e-01    2.200000e+00
   SC5 SC2vr  1 4.100000e-01    2.200000e+00
   SC5 SC3vr  1 4.100000e-01    2.350000e+00
   SC5 SC4vr  1 4.100000e-01    2.600000e+00
   SC5 SC5vr  1 4.100000e-01    2.600000e+00
 SC6vr   SC5  1 4.100000e-01    2.600000e+00
 SN1ar   SC5  1 4.100000e-01    2.350000e+00
 SN2ar   SC5  1 4.100000e-01    2.200000e+00
 SN3ar   SC5  1 4.100000e-01    2.200000e+00
 SN4ar   SC5  1 4.100000e-01    2.200000e+00
 SN5ar   SC5  1 4.100000e-01    2.200000e+00
 SN6ar   SC5  1 4.100000e-01    2.200000e+00
 SP1ar   SC5  1 4.100000e-01    2.040000e+00
 SP2ar   SC5  1 4.100000e-01    2.040000e+00
 SP3ar   SC5  1 4.100000e-01    2.040000e+00
 SP4ar   SC5  1 4.100000e-01    1.910000e+00
 SP5ar   SC5  1 4.100000e-01    1.910000e+00
 SP6ar   SC5  1 4.100000e-01    1.750000e+00
 SN1dr   SC5  1 4.100000e-01    2.350000e+00
 SN2dr   SC5  1 4.100000e-01    2.200000e+00
 SN3dr   SC5  1 4.100000e-01    2.200000e+00
 SN4dr   SC5  1 4.100000e-01    2.200000e+00
 SN5dr   SC5  1 4.100000e-01    2.200000e+00
 SN6dr   SC5  1 4.100000e-01    2.200000e+00
 SP1dr   SC5  1 4.100000e-01    2.040000e+00
 SP2dr   SC5  1 4.100000e-01    2.040000e+00
 SP3dr   SC5  1 4.100000e-01    2.040000e+00
 SP4dr   SC5  1 4.100000e-01    1.910000e+00
 SP5dr   SC5  1 4.100000e-01    1.910000e+00
 SP6dr   SC5  1 4.100000e-01    1.750000e+00
   SC5  SX1r  1 4.100000e-01    2.350000e+00
   SC5  SX2r  1 4.100000e-01    2.200000e+00
   SC5  SX3r  1 4.100000e-01    2.200000e+00
   SC5  SX4r  1 4.100000e-01    2.200000e+00
   SC5  SC1r  1 4.100000e-01    2.040000e+00
   SC5  SC2r  1 4.100000e-01    2.040000e+00
   SC5  SC3r  1 4.100000e-01    2.200000e+00
   SC5  SC4r  1 4.100000e-01    2.350000e+00
   SC5   TC5  1 3.650000e-01    1.910000e+00
   SC5   TC4  1 3.650000e-01    1.910000e+00
   SC5   TC3  1 3.650000e-01    1.750000e+00
   SC5   TC2  1 3.660000e-01    1.600000e+00
   SC5   TC1  1 3.660000e-01    1.600000e+00
   SC5   TX4  1 3.650000e-01    1.750000e+00
   SC5   TX3  1 3.650000e-01    1.750000e+00
   SC5   TX2  1 3.650000e-01    1.750000e+00
   SC5   TX1  1 3.650000e-01    1.910000e+00
   SC5  TC5v  1 3.650000e-01    2.110000e+00
   SC5  TX1v  1 3.650000e-01    2.110000e+00
   SC5  TX2v  1 3.650000e-01    1.910000e+00
   SC5  TX3v  1 3.650000e-01    1.910000e+00
   SC5  TX4v  1 3.650000e-01    1.910000e+00
   SC5  TC1v  1 3.650000e-01    1.750000e+00
   SC5  TC2v  1 3.650000e-01    1.750000e+00
   SC5  TC3v  1 3.650000e-01    1.910000e+00
   SC5  TC4v  1 3.650000e-01    2.110000e+00
   SC5  TC5e  1 3.650000e-01    2.110000e+00
   SC5  TX1e  1 3.650000e-01    2.110000e+00
   SC5  TX2e  1 3.650000e-01    1.910000e+00
   SC5  TX3e  1 3.650000e-01    1.910000e+00
   SC5  TX4e  1 3.650000e-01    1.910000e+00
   SC5  TC1e  1 3.650000e-01    1.750000e+00
   SC5  TC2e  1 3.650000e-01    1.750000e+00
   SC5  TC3e  1 3.650000e-01    1.910000e+00
   SC5  TC4e  1 3.650000e-01    2.110000e+00
   SC5  TC5q  1 3.650000e-01    2.340000e+00
   SC5 TX1eq  1 3.650000e-01    2.570000e+00
   SC5 TX2eq  1 3.650000e-01    2.340000e+00
   SC5 TX3eq  1 3.650000e-01    2.340000e+00
   SC5 TX4eq  1 3.650000e-01    2.340000e+00
   SC5 TC1eq  1 3.650000e-01    2.110000e+00
   SC5 TC2eq  1 3.650000e-01    2.110000e+00
   SC5 TC3eq  1 3.650000e-01    2.340000e+00
   SC5 TC4eq  1 3.650000e-01    2.570000e+00
   SC5 TC5eq  1 3.650000e-01    2.570000e+00
   SC5 TX1vq  1 3.650000e-01    2.570000e+00
   SC5 TX2vq  1 3.650000e-01    2.340000e+00
   SC5 TX3vq  1 3.650000e-01    2.340000e+00
   SC5 TX4vq  1 3.650000e-01    2.340000e+00
   SC5 TC1vq  1 3.650000e-01    2.110000e+00
   SC5 TC2vq  1 3.650000e-01    2.110000e+00
   SC5 TC3vq  1 3.650000e-01    2.340000e+00
   SC5 TC4vq  1 3.650000e-01    2.570000e+00
   SC5 TC5vq  1 3.650000e-01    2.570000e+00
   SC5  TX1q  1 3.650000e-01    2.340000e+00
   SC5  TX2q  1 3.650000e-01    2.110000e+00
   SC5  TX3q  1 3.650000e-01    2.110000e+00
   SC5  TX4q  1 3.650000e-01    2.110000e+00
   SC5  TC1q  1 3.650000e-01    1.910000e+00
   SC5  TC2q  1 3.650000e-01    1.910000e+00
   SC5  TC3q  1 3.650000e-01    2.110000e+00
   SC5  TC4q  1 3.650000e-01    2.340000e+00
   SC5  TC5h  1 3.650000e-01    1.910000e+00
   SC5 TX1eh  1 3.650000e-01    2.110000e+00
   SC5 TX2eh  1 3.650000e-01    1.910000e+00
   SC5 TX3eh  1 3.650000e-01    1.910000e+00
   SC5 TX4eh  1 3.650000e-01    1.910000e+00
   SC5 TC1eh  1 3.650000e-01    1.750000e+00
   SC5 TC2eh  1 3.650000e-01    1.750000e+00
   SC5 TC3eh  1 3.650000e-01    1.910000e+00
   SC5 TC4eh  1 3.650000e-01    2.110000e+00
   SC5 TC5eh  1 3.650000e-01    2.110000e+00
   SC5 TX1vh  1 3.650000e-01    2.110000e+00
   SC5 TX2vh  1 3.650000e-01    1.910000e+00
   SC5 TX3vh  1 3.650000e-01    1.910000e+00
   SC5 TX4vh  1 3.650000e-01    1.910000e+00
   SC5 TC1vh  1 3.650000e-01    1.750000e+00
   SC5 TC2vh  1 3.650000e-01    1.750000e+00
   SC5 TC3vh  1 3.650000e-01    1.910000e+00
   SC5 TC4vh  1 3.650000e-01    2.110000e+00
   SC5 TC5vh  1 3.650000e-01    2.110000e+00
   SC5  TX1h  1 3.650000e-01    1.910000e+00
   SC5  TX2h  1 3.650000e-01    1.750000e+00
   SC5  TX3h  1 3.650000e-01    1.750000e+00
   SC5  TX4h  1 3.650000e-01    1.750000e+00
   SC5  TC1h  1 3.660000e-01    1.600000e+00
   SC5  TC2h  1 3.660000e-01    1.600000e+00
   SC5  TC3h  1 3.650000e-01    1.750000e+00
   SC5  TC4h  1 3.650000e-01    1.910000e+00
   SC5  TC5r  1 3.650000e-01    1.910000e+00
   SC5 TX1er  1 3.650000e-01    2.110000e+00
   SC5 TX2er  1 3.650000e-01    1.910000e+00
   SC5 TX3er  1 3.650000e-01    1.910000e+00
   SC5 TX4er  1 3.650000e-01    1.910000e+00
   SC5 TC1er  1 3.650000e-01    1.750000e+00
   SC5 TC2er  1 3.650000e-01    1.750000e+00
   SC5 TC3er  1 3.650000e-01    1.910000e+00
   SC5 TC4er  1 3.650000e-01    2.110000e+00
   SC5 TC5er  1 3.650000e-01    2.110000e+00
   SC5 TX1vr  1 3.650000e-01    2.110000e+00
   SC5 TX2vr  1 3.650000e-01    1.910000e+00
   SC5 TX3vr  1 3.650000e-01    1.910000e+00
   SC5 TX4vr  1 3.650000e-01    1.910000e+00
   SC5 TC1vr  1 3.650000e-01    1.750000e+00
   SC5 TC2vr  1 3.650000e-01    1.750000e+00
   SC5 TC3vr  1 3.650000e-01    1.910000e+00
   SC5 TC4vr  1 3.650000e-01    2.110000e+00
   SC5 TC5vr  1 3.650000e-01    2.110000e+00
   SC5  TX1r  1 3.650000e-01    1.910000e+00
   SC5  TX2r  1 3.650000e-01    1.750000e+00
   SC5  TX3r  1 3.650000e-01    1.750000e+00
   SC5  TX4r  1 3.650000e-01    1.750000e+00
   SC5  TC1r  1 3.660000e-01    1.600000e+00
   SC5  TC2r  1 3.660000e-01    1.600000e+00
   SC5  TC3r  1 3.650000e-01    1.750000e+00
   SC5  TC4r  1 3.650000e-01    1.910000e+00
  TP6d   SC5  1 3.940000e-01    1.290000e+00
  TP5d   SC5  1 3.780000e-01    1.450000e+00
  TP4d   SC5  1 3.780000e-01    1.450000e+00
  TP3d   SC5  1 3.660000e-01    1.600000e+00
  TP2d   SC5  1 3.660000e-01    1.600000e+00
  TP1d   SC5  1 3.660000e-01    1.600000e+00
  TN6d   SC5  1 3.650000e-01    1.750000e+00
  TN5d   SC5  1 3.650000e-01    1.750000e+00
  TN4d   SC5  1 3.650000e-01    1.750000e+00
  TN3d   SC5  1 3.650000e-01    1.750000e+00
  TN2d   SC5  1 3.650000e-01    1.750000e+00
  TN1d   SC5  1 3.650000e-01    1.910000e+00
  TP6a   SC5  1 3.940000e-01    1.290000e+00
  TP5a   SC5  1 3.780000e-01    1.450000e+00
  TP4a   SC5  1 3.780000e-01    1.450000e+00
  TP3a   SC5  1 3.660000e-01    1.600000e+00
  TP2a   SC5  1 3.660000e-01    1.600000e+00
  TP1a   SC5  1 3.660000e-01    1.600000e+00
  TN6a   SC5  1 3.650000e-01    1.750000e+00
  TN5a   SC5  1 3.650000e-01    1.750000e+00
  TN4a   SC5  1 3.650000e-01    1.750000e+00
  TN3a   SC5  1 3.650000e-01    1.750000e+00
  TN2a   SC5  1 3.650000e-01    1.750000e+00
  TN1a   SC5  1 3.650000e-01    1.910000e+00
  TC6v   SC5  1 3.650000e-01    2.110000e+00
  TC6e   SC5  1 3.650000e-01    2.110000e+00
  TP6q   SC5  1 3.660000e-01    1.600000e+00
  TP5q   SC5  1 3.650000e-01    1.750000e+00
  TP4q   SC5  1 3.650000e-01    1.750000e+00
  TP3q   SC5  1 3.650000e-01    1.910000e+00
  TP2q   SC5  1 3.650000e-01    1.910000e+00
  TP1q   SC5  1 3.650000e-01    1.910000e+00
  TN6q   SC5  1 3.650000e-01    2.110000e+00
  TN5q   SC5  1 3.650000e-01    2.110000e+00
  TN4q   SC5  1 3.650000e-01    2.110000e+00
  TN3q   SC5  1 3.650000e-01    2.110000e+00
  TN2q   SC5  1 3.650000e-01    2.110000e+00
  TN1q   SC5  1 3.650000e-01    2.340000e+00
  TC6q   SC5  1 3.650000e-01    2.340000e+00
 TC6eq   SC5  1 3.650000e-01    2.570000e+00
 TC6vq   SC5  1 3.650000e-01    2.570000e+00
 TN1aq   SC5  1 3.650000e-01    2.340000e+00
 TN2aq   SC5  1 3.650000e-01    2.110000e+00
 TN3aq   SC5  1 3.650000e-01    2.110000e+00
 TN4aq   SC5  1 3.650000e-01    2.110000e+00
 TN5aq   SC5  1 3.650000e-01    2.110000e+00
 TN6aq   SC5  1 3.650000e-01    2.110000e+00
 TP1aq   SC5  1 3.650000e-01    1.910000e+00
 TP2aq   SC5  1 3.650000e-01    1.910000e+00
 TP3aq   SC5  1 3.650000e-01    1.910000e+00
 TP4aq   SC5  1 3.650000e-01    1.750000e+00
 TP5aq   SC5  1 3.650000e-01    1.750000e+00
 TP6aq   SC5  1 3.660000e-01    1.600000e+00
 TN1dq   SC5  1 3.650000e-01    2.340000e+00
 TN2dq   SC5  1 3.650000e-01    2.110000e+00
 TN3dq   SC5  1 3.650000e-01    2.110000e+00
 TN4dq   SC5  1 3.650000e-01    2.110000e+00
 TN5dq   SC5  1 3.650000e-01    2.110000e+00
 TN6dq   SC5  1 3.650000e-01    2.110000e+00
 TP1dq   SC5  1 3.650000e-01    1.910000e+00
 TP2dq   SC5  1 3.650000e-01    1.910000e+00
 TP3dq   SC5  1 3.650000e-01    1.910000e+00
 TP4dq   SC5  1 3.650000e-01    1.750000e+00
 TP5dq   SC5  1 3.650000e-01    1.750000e+00
 TP6dq   SC5  1 3.660000e-01    1.600000e+00
  TP6h   SC5  1 3.940000e-01    1.290000e+00
  TP5h   SC5  1 3.780000e-01    1.450000e+00
  TP4h   SC5  1 3.780000e-01    1.450000e+00
  TP3h   SC5  1 3.660000e-01    1.600000e+00
  TP2h   SC5  1 3.660000e-01    1.600000e+00
  TP1h   SC5  1 3.660000e-01    1.600000e+00
  TN6h   SC5  1 3.650000e-01    1.750000e+00
  TN5h   SC5  1 3.650000e-01    1.750000e+00
  TN4h   SC5  1 3.650000e-01    1.750000e+00
  TN3h   SC5  1 3.650000e-01    1.750000e+00
  TN2h   SC5  1 3.650000e-01    1.750000e+00
  TN1h   SC5  1 3.650000e-01    1.910000e+00
  TC6h   SC5  1 3.650000e-01    1.910000e+00
 TC6eh   SC5  1 3.650000e-01    2.110000e+00
 TC6vh   SC5  1 3.650000e-01    2.110000e+00
 TN1ah   SC5  1 3.650000e-01    1.910000e+00
 TN2ah   SC5  1 3.650000e-01    1.750000e+00
 TN3ah   SC5  1 3.650000e-01    1.750000e+00
 TN4ah   SC5  1 3.650000e-01    1.750000e+00
 TN5ah   SC5  1 3.650000e-01    1.750000e+00
 TN6ah   SC5  1 3.650000e-01    1.750000e+00
 TP1ah   SC5  1 3.660000e-01    1.600000e+00
 TP2ah   SC5  1 3.660000e-01    1.600000e+00
 TP3ah   SC5  1 3.660000e-01    1.600000e+00
 TP4ah   SC5  1 3.780000e-01    1.450000e+00
 TP5ah   SC5  1 3.780000e-01    1.450000e+00
 TP6ah   SC5  1 3.940000e-01    1.290000e+00
 TN1dh   SC5  1 3.650000e-01    1.910000e+00
 TN2dh   SC5  1 3.650000e-01    1.750000e+00
 TN3dh   SC5  1 3.650000e-01    1.750000e+00
 TN4dh   SC5  1 3.650000e-01    1.750000e+00
 TN5dh   SC5  1 3.650000e-01    1.750000e+00
 TN6dh   SC5  1 3.650000e-01    1.750000e+00
 TP1dh   SC5  1 3.660000e-01    1.600000e+00
 TP2dh   SC5  1 3.660000e-01    1.600000e+00
 TP3dh   SC5  1 3.660000e-01    1.600000e+00
 TP4dh   SC5  1 3.780000e-01    1.450000e+00
 TP5dh   SC5  1 3.780000e-01    1.450000e+00
 TP6dh   SC5  1 3.940000e-01    1.290000e+00
  TP6r   SC5  1 3.940000e-01    1.290000e+00
  TP5r   SC5  1 3.780000e-01    1.450000e+00
  TP4r   SC5  1 3.780000e-01    1.450000e+00
  TP3r   SC5  1 3.660000e-01    1.600000e+00
  TP2r   SC5  1 3.660000e-01    1.600000e+00
  TP1r   SC5  1 3.660000e-01    1.600000e+00
  TN6r   SC5  1 3.650000e-01    1.750000e+00
  TN5r   SC5  1 3.650000e-01    1.750000e+00
  TN4r   SC5  1 3.650000e-01    1.750000e+00
  TN3r   SC5  1 3.650000e-01    1.750000e+00
  TN2r   SC5  1 3.650000e-01    1.750000e+00
  TN1r   SC5  1 3.650000e-01    1.910000e+00
  TC6r   SC5  1 3.650000e-01    1.910000e+00
 TC6er   SC5  1 3.650000e-01    2.110000e+00
 TC6vr   SC5  1 3.650000e-01    2.110000e+00
 TN1ar   SC5  1 3.650000e-01    1.910000e+00
 TN2ar   SC5  1 3.650000e-01    1.750000e+00
 TN3ar   SC5  1 3.650000e-01    1.750000e+00
 TN4ar   SC5  1 3.650000e-01    1.750000e+00
 TN5ar   SC5  1 3.650000e-01    1.750000e+00
 TN6ar   SC5  1 3.650000e-01    1.750000e+00
 TP1ar   SC5  1 3.660000e-01    1.600000e+00
 TP2ar   SC5  1 3.660000e-01    1.600000e+00
 TP3ar   SC5  1 3.660000e-01    1.600000e+00
 TP4ar   SC5  1 3.780000e-01    1.450000e+00
 TP5ar   SC5  1 3.780000e-01    1.450000e+00
 TP6ar   SC5  1 3.940000e-01    1.290000e+00
 TN1dr   SC5  1 3.650000e-01    1.910000e+00
 TN2dr   SC5  1 3.650000e-01    1.750000e+00
 TN3dr   SC5  1 3.650000e-01    1.750000e+00
 TN4dr   SC5  1 3.650000e-01    1.750000e+00
 TN5dr   SC5  1 3.650000e-01    1.750000e+00
 TN6dr   SC5  1 3.650000e-01    1.750000e+00
 TP1dr   SC5  1 3.660000e-01    1.600000e+00
 TP2dr   SC5  1 3.660000e-01    1.600000e+00
 TP3dr   SC5  1 3.660000e-01    1.600000e+00
 TP4dr   SC5  1 3.780000e-01    1.450000e+00
 TP5dr   SC5  1 3.780000e-01    1.450000e+00
 TP6dr   SC5  1 3.940000e-01    1.290000e+00
   P6d   TC5  1 3.980000e-01    1.450000e+00
   P5d   TC5  1 3.950000e-01    1.670000e+00
   P4d   TC5  1 3.950000e-01    1.670000e+00
   P3d   TC5  1 3.950000e-01    1.850000e+00
   P2d   TC5  1 3.950000e-01    1.850000e+00
   P1d   TC5  1 3.950000e-01    1.850000e+00
   N6d   TC5  1 3.950000e-01    2.110000e+00
   N5d   TC5  1 3.950000e-01    2.110000e+00
   N4d   TC5  1 3.950000e-01    2.110000e+00
   N3d   TC5  1 3.950000e-01    2.110000e+00
   N2d   TC5  1 3.950000e-01    2.110000e+00
   N1d   TC5  1 3.950000e-01    2.310000e+00
   P6a   TC5  1 3.980000e-01    1.450000e+00
   P5a   TC5  1 3.950000e-01    1.670000e+00
   P4a   TC5  1 3.950000e-01    1.670000e+00
   P3a   TC5  1 3.950000e-01    1.850000e+00
   P2a   TC5  1 3.950000e-01    1.850000e+00
   P1a   TC5  1 3.950000e-01    1.850000e+00
   N6a   TC5  1 3.950000e-01    2.110000e+00
   N5a   TC5  1 3.950000e-01    2.110000e+00
   N4a   TC5  1 3.950000e-01    2.110000e+00
   N3a   TC5  1 3.950000e-01    2.110000e+00
   N2a   TC5  1 3.950000e-01    2.110000e+00
   N1a   TC5  1 3.950000e-01    2.310000e+00
   C6v   TC5  1 3.950000e-01    2.500000e+00
   C6e   TC5  1 3.950000e-01    2.500000e+00
   P6q   TC5  1 3.950000e-01    1.850000e+00
   P5q   TC5  1 3.950000e-01    2.110000e+00
   P4q   TC5  1 3.950000e-01    2.110000e+00
   P3q   TC5  1 3.950000e-01    2.310000e+00
   P2q   TC5  1 3.950000e-01    2.310000e+00
   P1q   TC5  1 3.950000e-01    2.310000e+00
   N6q   TC5  1 3.950000e-01    2.500000e+00
   N5q   TC5  1 3.950000e-01    2.500000e+00
   N4q   TC5  1 3.950000e-01    2.500000e+00
   N3q   TC5  1 3.950000e-01    2.500000e+00
   N2q   TC5  1 3.950000e-01    2.500000e+00
   N1q   TC5  1 3.950000e-01    2.700000e+00
   C6q   TC5  1 3.950000e-01    2.700000e+00
  C6eq   TC5  1 3.950000e-01    2.940000e+00
  C6vq   TC5  1 3.950000e-01    2.940000e+00
  N1aq   TC5  1 3.950000e-01    2.700000e+00
  N2aq   TC5  1 3.950000e-01    2.500000e+00
  N3aq   TC5  1 3.950000e-01    2.500000e+00
  N4aq   TC5  1 3.950000e-01    2.500000e+00
  N5aq   TC5  1 3.950000e-01    2.500000e+00
  N6aq   TC5  1 3.950000e-01    2.500000e+00
  P1aq   TC5  1 3.950000e-01    2.310000e+00
  P2aq   TC5  1 3.950000e-01    2.310000e+00
  P3aq   TC5  1 3.950000e-01    2.310000e+00
  P4aq   TC5  1 3.950000e-01    2.110000e+00
  P5aq   TC5  1 3.950000e-01    2.110000e+00
  P6aq   TC5  1 3.950000e-01    1.850000e+00
  N1dq   TC5  1 3.950000e-01    2.700000e+00
  N2dq   TC5  1 3.950000e-01    2.500000e+00
  N3dq   TC5  1 3.950000e-01    2.500000e+00
  N4dq   TC5  1 3.950000e-01    2.500000e+00
  N5dq   TC5  1 3.950000e-01    2.500000e+00
  N6dq   TC5  1 3.950000e-01    2.500000e+00
  P1dq   TC5  1 3.950000e-01    2.310000e+00
  P2dq   TC5  1 3.950000e-01    2.310000e+00
  P3dq   TC5  1 3.950000e-01    2.310000e+00
  P4dq   TC5  1 3.950000e-01    2.110000e+00
  P5dq   TC5  1 3.950000e-01    2.110000e+00
  P6dq   TC5  1 3.950000e-01    1.850000e+00
   P6h   TC5  1 3.980000e-01    1.450000e+00
   P5h   TC5  1 3.950000e-01    1.670000e+00
   P4h   TC5  1 3.950000e-01    1.670000e+00
   P3h   TC5  1 3.950000e-01    1.850000e+00
   P2h   TC5  1 3.950000e-01    1.850000e+00
   P1h   TC5  1 3.950000e-01    1.850000e+00
   N6h   TC5  1 3.950000e-01    2.110000e+00
   N5h   TC5  1 3.950000e-01    2.110000e+00
   N4h   TC5  1 3.950000e-01    2.110000e+00
   N3h   TC5  1 3.950000e-01    2.110000e+00
   N2h   TC5  1 3.950000e-01    2.110000e+00
   N1h   TC5  1 3.950000e-01    2.310000e+00
   C6h   TC5  1 3.950000e-01    2.310000e+00
  C6eh   TC5  1 3.950000e-01    2.500000e+00
  C6vh   TC5  1 3.950000e-01    2.500000e+00
  N1ah   TC5  1 3.950000e-01    2.310000e+00
  N2ah   TC5  1 3.950000e-01    2.110000e+00
  N3ah   TC5  1 3.950000e-01    2.110000e+00
  N4ah   TC5  1 3.950000e-01    2.110000e+00
  N5ah   TC5  1 3.950000e-01    2.110000e+00
  N6ah   TC5  1 3.950000e-01    2.110000e+00
  P1ah   TC5  1 3.950000e-01    1.850000e+00
  P2ah   TC5  1 3.950000e-01    1.850000e+00
  P3ah   TC5  1 3.950000e-01    1.850000e+00
  P4ah   TC5  1 3.950000e-01    1.670000e+00
  P5ah   TC5  1 3.950000e-01    1.670000e+00
  P6ah   TC5  1 3.980000e-01    1.450000e+00
  N1dh   TC5  1 3.950000e-01    2.310000e+00
  N2dh   TC5  1 3.950000e-01    2.110000e+00
  N3dh   TC5  1 3.950000e-01    2.110000e+00
  N4dh   TC5  1 3.950000e-01    2.110000e+00
  N5dh   TC5  1 3.950000e-01    2.110000e+00
  N6dh   TC5  1 3.950000e-01    2.110000e+00
  P1dh   TC5  1 3.950000e-01    1.850000e+00
  P2dh   TC5  1 3.950000e-01    1.850000e+00
  P3dh   TC5  1 3.950000e-01    1.850000e+00
  P4dh   TC5  1 3.950000e-01    1.670000e+00
  P5dh   TC5  1 3.950000e-01    1.670000e+00
  P6dh   TC5  1 3.980000e-01    1.450000e+00
   P6r   TC5  1 3.980000e-01    1.450000e+00
   P5r   TC5  1 3.950000e-01    1.670000e+00
   P4r   TC5  1 3.950000e-01    1.670000e+00
   P3r   TC5  1 3.950000e-01    1.850000e+00
   P2r   TC5  1 3.950000e-01    1.850000e+00
   P1r   TC5  1 3.950000e-01    1.850000e+00
   N6r   TC5  1 3.950000e-01    2.110000e+00
   N5r   TC5  1 3.950000e-01    2.110000e+00
   N4r   TC5  1 3.950000e-01    2.110000e+00
   N3r   TC5  1 3.950000e-01    2.110000e+00
   N2r   TC5  1 3.950000e-01    2.110000e+00
   N1r   TC5  1 3.950000e-01    2.310000e+00
   C6r   TC5  1 3.950000e-01    2.310000e+00
  C6er   TC5  1 3.950000e-01    2.500000e+00
  C6vr   TC5  1 3.950000e-01    2.500000e+00
  N1ar   TC5  1 3.950000e-01    2.310000e+00
  N2ar   TC5  1 3.950000e-01    2.110000e+00
  N3ar   TC5  1 3.950000e-01    2.110000e+00
  N4ar   TC5  1 3.950000e-01    2.110000e+00
  N5ar   TC5  1 3.950000e-01    2.110000e+00
  N6ar   TC5  1 3.950000e-01    2.110000e+00
  P1ar   TC5  1 3.950000e-01    1.850000e+00
  P2ar   TC5  1 3.950000e-01    1.850000e+00
  P3ar   TC5  1 3.950000e-01    1.850000e+00
  P4ar   TC5  1 3.950000e-01    1.670000e+00
  P5ar   TC5  1 3.950000e-01    1.670000e+00
  P6ar   TC5  1 3.980000e-01    1.450000e+00
  N1dr   TC5  1 3.950000e-01    2.310000e+00
  N2dr   TC5  1 3.950000e-01    2.110000e+00
  N3dr   TC5  1 3.950000e-01    2.110000e+00
  N4dr   TC5  1 3.950000e-01    2.110000e+00
  N5dr   TC5  1 3.950000e-01    2.110000e+00
  N6dr   TC5  1 3.950000e-01    2.110000e+00
  P1dr   TC5  1 3.950000e-01    1.850000e+00
  P2dr   TC5  1 3.950000e-01    1.850000e+00
  P3dr   TC5  1 3.950000e-01    1.850000e+00
  P4dr   TC5  1 3.950000e-01    1.670000e+00
  P5dr   TC5  1 3.950000e-01    1.670000e+00
  P6dr   TC5  1 3.980000e-01    1.450000e+00
   TC5    C4  1 3.950000e-01    2.310000e+00
   TC5    C3  1 3.950000e-01    2.110000e+00
   TC5    C2  1 3.950000e-01    1.850000e+00
   TC5    C1  1 3.950000e-01    1.850000e+00
   TC5    X4  1 3.950000e-01    2.110000e+00
   TC5    X3  1 3.950000e-01    2.110000e+00
   TC5    X2  1 3.950000e-01    2.110000e+00
   TC5    X1  1 3.950000e-01    2.310000e+00
   TC5   C5v  1 3.950000e-01    2.500000e+00
   TC5   X1v  1 3.950000e-01    2.500000e+00
   TC5   X2v  1 3.950000e-01    2.310000e+00
   TC5   X3v  1 3.950000e-01    2.310000e+00
   TC5   X4v  1 3.950000e-01    2.310000e+00
   TC5   C1v  1 3.950000e-01    2.110000e+00
   TC5   C2v  1 3.950000e-01    2.110000e+00
   TC5   C3v  1 3.950000e-01    2.310000e+00
   TC5   C4v  1 3.950000e-01    2.500000e+00
   TC5   C5e  1 3.950000e-01    2.500000e+00
   TC5   X1e  1 3.950000e-01    2.500000e+00
   TC5   X2e  1 3.950000e-01    2.310000e+00
   TC5   X3e  1 3.950000e-01    2.310000e+00
   TC5   X4e  1 3.950000e-01    2.310000e+00
   TC5   C1e  1 3.950000e-01    2.110000e+00
   TC5   C2e  1 3.950000e-01    2.110000e+00
   TC5   C3e  1 3.950000e-01    2.310000e+00
   TC5   C4e  1 3.950000e-01    2.500000e+00
   TC5   C5q  1 3.950000e-01    2.700000e+00
   TC5  X1eq  1 3.950000e-01    2.940000e+00
   TC5  X2eq  1 3.950000e-01    2.700000e+00
   TC5  X3eq  1 3.950000e-01    2.700000e+00
   TC5  X4eq  1 3.950000e-01    2.700000e+00
   TC5  C1eq  1 3.950000e-01    2.500000e+00
   TC5  C2eq  1 3.950000e-01    2.500000e+00
   TC5  C3eq  1 3.950000e-01    2.700000e+00
   TC5  C4eq  1 3.950000e-01    2.940000e+00
   TC5  C5eq  1 3.950000e-01    2.940000e+00
   TC5  X1vq  1 3.950000e-01    2.940000e+00
   TC5  X2vq  1 3.950000e-01    2.700000e+00
   TC5  X3vq  1 3.950000e-01    2.700000e+00
   TC5  X4vq  1 3.950000e-01    2.700000e+00
   TC5  C1vq  1 3.950000e-01    2.500000e+00
   TC5  C2vq  1 3.950000e-01    2.500000e+00
   TC5  C3vq  1 3.950000e-01    2.700000e+00
   TC5  C4vq  1 3.950000e-01    2.940000e+00
   TC5  C5vq  1 3.950000e-01    2.940000e+00
   TC5   X1q  1 3.950000e-01    2.700000e+00
   TC5   X2q  1 3.950000e-01    2.500000e+00
   TC5   X3q  1 3.950000e-01    2.500000e+00
   TC5   X4q  1 3.950000e-01    2.500000e+00
   TC5   C1q  1 3.950000e-01    2.310000e+00
   TC5   C2q  1 3.950000e-01    2.310000e+00
   TC5   C3q  1 3.950000e-01    2.500000e+00
   TC5   C4q  1 3.950000e-01    2.700000e+00
   TC5   C5h  1 3.950000e-01    2.310000e+00
   TC5  X1eh  1 3.950000e-01    2.500000e+00
   TC5  X2eh  1 3.950000e-01    2.310000e+00
   TC5  X3eh  1 3.950000e-01    2.310000e+00
   TC5  X4eh  1 3.950000e-01    2.310000e+00
   TC5  C1eh  1 3.950000e-01    2.110000e+00
   TC5  C2eh  1 3.950000e-01    2.110000e+00
   TC5  C3eh  1 3.950000e-01    2.310000e+00
   TC5  C4eh  1 3.950000e-01    2.500000e+00
   TC5  C5eh  1 3.950000e-01    2.500000e+00
   TC5  X1vh  1 3.950000e-01    2.500000e+00
   TC5  X2vh  1 3.950000e-01    2.310000e+00
   TC5  X3vh  1 3.950000e-01    2.310000e+00
   TC5  X4vh  1 3.950000e-01    2.310000e+00
   TC5  C1vh  1 3.950000e-01    2.110000e+00
   TC5  C2vh  1 3.950000e-01    2.110000e+00
   TC5  C3vh  1 3.950000e-01    2.310000e+00
   TC5  C4vh  1 3.950000e-01    2.500000e+00
   TC5  C5vh  1 3.950000e-01    2.500000e+00
   TC5   X1h  1 3.950000e-01    2.310000e+00
   TC5   X2h  1 3.950000e-01    2.110000e+00
   TC5   X3h  1 3.950000e-01    2.110000e+00
   TC5   X4h  1 3.950000e-01    2.110000e+00
   TC5   C1h  1 3.950000e-01    1.850000e+00
   TC5   C2h  1 3.950000e-01    1.850000e+00
   TC5   C3h  1 3.950000e-01    2.110000e+00
   TC5   C4h  1 3.950000e-01    2.310000e+00
   TC5   C5r  1 3.950000e-01    2.310000e+00
   TC5  X1er  1 3.950000e-01    2.500000e+00
   TC5  X2er  1 3.950000e-01    2.310000e+00
   TC5  X3er  1 3.950000e-01    2.310000e+00
   TC5  X4er  1 3.950000e-01    2.310000e+00
   TC5  C1er  1 3.950000e-01    2.110000e+00
   TC5  C2er  1 3.950000e-01    2.110000e+00
   TC5  C3er  1 3.950000e-01    2.310000e+00
   TC5  C4er  1 3.950000e-01    2.500000e+00
   TC5  C5er  1 3.950000e-01    2.500000e+00
   TC5  X1vr  1 3.950000e-01    2.500000e+00
   TC5  X2vr  1 3.950000e-01    2.310000e+00
   TC5  X3vr  1 3.950000e-01    2.310000e+00
   TC5  X4vr  1 3.950000e-01    2.310000e+00
   TC5  C1vr  1 3.950000e-01    2.110000e+00
   TC5  C2vr  1 3.950000e-01    2.110000e+00
   TC5  C3vr  1 3.950000e-01    2.310000e+00
   TC5  C4vr  1 3.950000e-01    2.500000e+00
   TC5  C5vr  1 3.950000e-01    2.500000e+00
   TC5   X1r  1 3.950000e-01    2.310000e+00
   TC5   X2r  1 3.950000e-01    2.110000e+00
   TC5   X3r  1 3.950000e-01    2.110000e+00
   TC5   X4r  1 3.950000e-01    2.110000e+00
   TC5   C1r  1 3.950000e-01    1.850000e+00
   TC5   C2r  1 3.950000e-01    1.850000e+00
   TC5   C3r  1 3.950000e-01    2.110000e+00
   TC5   C4r  1 3.950000e-01    2.310000e+00
   TC5   TC5  1 3.400000e-01    1.510000e+00
   TC5   TC4  1 3.400000e-01    1.510000e+00
   TC5   TC3  1 3.400000e-01    1.230000e+00
   TC5   TC2  1 3.520000e-01    1.050000e+00
   TC5   TC1  1 3.520000e-01    1.050000e+00
   TC5   TX4  1 3.400000e-01    1.230000e+00
   TC5   TX3  1 3.400000e-01    1.230000e+00
   TC5   TX2  1 3.400000e-01    1.230000e+00
   TC5   TX1  1 3.400000e-01    1.510000e+00
  TP6d   TC5  1 3.850000e-01    8.550000e-01
  TP5d   TC5  1 3.660000e-01    9.350000e-01
  TP4d   TC5  1 3.660000e-01    9.350000e-01
  TP3d   TC5  1 3.520000e-01    1.050000e+00
  TP2d   TC5  1 3.520000e-01    1.050000e+00
  TP1d   TC5  1 3.520000e-01    1.050000e+00
  TN6d   TC5  1 3.400000e-01    1.230000e+00
  TN5d   TC5  1 3.400000e-01    1.230000e+00
  TN4d   TC5  1 3.400000e-01    1.230000e+00
  TN3d   TC5  1 3.400000e-01    1.230000e+00
  TN2d   TC5  1 3.400000e-01    1.230000e+00
  TN1d   TC5  1 3.400000e-01    1.510000e+00
  TP6a   TC5  1 3.850000e-01    8.550000e-01
  TP5a   TC5  1 3.660000e-01    9.350000e-01
  TP4a   TC5  1 3.660000e-01    9.350000e-01
  TP3a   TC5  1 3.520000e-01    1.050000e+00
  TP2a   TC5  1 3.520000e-01    1.050000e+00
  TP1a   TC5  1 3.520000e-01    1.050000e+00
  TN6a   TC5  1 3.400000e-01    1.230000e+00
  TN5a   TC5  1 3.400000e-01    1.230000e+00
  TN4a   TC5  1 3.400000e-01    1.230000e+00
  TN3a   TC5  1 3.400000e-01    1.230000e+00
  TN2a   TC5  1 3.400000e-01    1.230000e+00
  TN1a   TC5  1 3.400000e-01    1.510000e+00
  TC6v   TC5  1 3.400000e-01    1.770000e+00
   TC5  TC5v  1 3.400000e-01    1.770000e+00
   TC5  TX1v  1 3.400000e-01    1.770000e+00
   TC5  TX2v  1 3.400000e-01    1.510000e+00
   TC5  TX3v  1 3.400000e-01    1.510000e+00
   TC5  TX4v  1 3.400000e-01    1.510000e+00
   TC5  TC1v  1 3.400000e-01    1.230000e+00
   TC5  TC2v  1 3.400000e-01    1.230000e+00
   TC5  TC3v  1 3.400000e-01    1.510000e+00
   TC5  TC4v  1 3.400000e-01    1.770000e+00
  TC6e   TC5  1 3.400000e-01    1.770000e+00
   TC5  TC5e  1 3.400000e-01    1.770000e+00
   TC5  TX1e  1 3.400000e-01    1.770000e+00
   TC5  TX2e  1 3.400000e-01    1.510000e+00
   TC5  TX3e  1 3.400000e-01    1.510000e+00
   TC5  TX4e  1 3.400000e-01    1.510000e+00
   TC5  TC1e  1 3.400000e-01    1.230000e+00
   TC5  TC2e  1 3.400000e-01    1.230000e+00
   TC5  TC3e  1 3.400000e-01    1.510000e+00
   TC5  TC4e  1 3.400000e-01    1.770000e+00
  TP6q   TC5  1 3.520000e-01    1.050000e+00
  TP5q   TC5  1 3.400000e-01    1.230000e+00
  TP4q   TC5  1 3.400000e-01    1.230000e+00
  TP3q   TC5  1 3.400000e-01    1.510000e+00
  TP2q   TC5  1 3.400000e-01    1.510000e+00
  TP1q   TC5  1 3.400000e-01    1.510000e+00
  TN6q   TC5  1 3.400000e-01    1.770000e+00
  TN5q   TC5  1 3.400000e-01    1.770000e+00
  TN4q   TC5  1 3.400000e-01    1.770000e+00
  TN3q   TC5  1 3.400000e-01    1.770000e+00
  TN2q   TC5  1 3.400000e-01    1.770000e+00
  TN1q   TC5  1 3.400000e-01    2.020000e+00
  TC6q   TC5  1 3.400000e-01    2.020000e+00
   TC5  TC5q  1 3.400000e-01    2.020000e+00
   TC5 TX1eq  1 3.400000e-01    2.280000e+00
   TC5 TX2eq  1 3.400000e-01    2.020000e+00
   TC5 TX3eq  1 3.400000e-01    2.020000e+00
   TC5 TX4eq  1 3.400000e-01    2.020000e+00
   TC5 TC1eq  1 3.400000e-01    1.770000e+00
   TC5 TC2eq  1 3.400000e-01    1.770000e+00
   TC5 TC3eq  1 3.400000e-01    2.020000e+00
   TC5 TC4eq  1 3.400000e-01    2.280000e+00
   TC5 TC5eq  1 3.400000e-01    2.280000e+00
 TC6eq   TC5  1 3.400000e-01    2.280000e+00
   TC5 TX1vq  1 3.400000e-01    2.280000e+00
   TC5 TX2vq  1 3.400000e-01    2.020000e+00
   TC5 TX3vq  1 3.400000e-01    2.020000e+00
   TC5 TX4vq  1 3.400000e-01    2.020000e+00
   TC5 TC1vq  1 3.400000e-01    1.770000e+00
   TC5 TC2vq  1 3.400000e-01    1.770000e+00
   TC5 TC3vq  1 3.400000e-01    2.020000e+00
   TC5 TC4vq  1 3.400000e-01    2.280000e+00
   TC5 TC5vq  1 3.400000e-01    2.280000e+00
 TC6vq   TC5  1 3.400000e-01    2.280000e+00
 TN1aq   TC5  1 3.400000e-01    2.020000e+00
 TN2aq   TC5  1 3.400000e-01    1.770000e+00
 TN3aq   TC5  1 3.400000e-01    1.770000e+00
 TN4aq   TC5  1 3.400000e-01    1.770000e+00
 TN5aq   TC5  1 3.400000e-01    1.770000e+00
 TN6aq   TC5  1 3.400000e-01    1.770000e+00
 TP1aq   TC5  1 3.400000e-01    1.510000e+00
 TP2aq   TC5  1 3.400000e-01    1.510000e+00
 TP3aq   TC5  1 3.400000e-01    1.510000e+00
 TP4aq   TC5  1 3.400000e-01    1.230000e+00
 TP5aq   TC5  1 3.400000e-01    1.230000e+00
 TP6aq   TC5  1 3.520000e-01    1.050000e+00
 TN1dq   TC5  1 3.400000e-01    2.020000e+00
 TN2dq   TC5  1 3.400000e-01    1.770000e+00
 TN3dq   TC5  1 3.400000e-01    1.770000e+00
 TN4dq   TC5  1 3.400000e-01    1.770000e+00
 TN5dq   TC5  1 3.400000e-01    1.770000e+00
 TN6dq   TC5  1 3.400000e-01    1.770000e+00
 TP1dq   TC5  1 3.400000e-01    1.510000e+00
 TP2dq   TC5  1 3.400000e-01    1.510000e+00
 TP3dq   TC5  1 3.400000e-01    1.510000e+00
 TP4dq   TC5  1 3.400000e-01    1.230000e+00
 TP5dq   TC5  1 3.400000e-01    1.230000e+00
 TP6dq   TC5  1 3.520000e-01    1.050000e+00
   TC5  TX1q  1 3.400000e-01    2.020000e+00
   TC5  TX2q  1 3.400000e-01    1.770000e+00
   TC5  TX3q  1 3.400000e-01    1.770000e+00
   TC5  TX4q  1 3.400000e-01    1.770000e+00
   TC5  TC1q  1 3.400000e-01    1.510000e+00
   TC5  TC2q  1 3.400000e-01    1.510000e+00
   TC5  TC3q  1 3.400000e-01    1.770000e+00
   TC5  TC4q  1 3.400000e-01    2.020000e+00
  TP6h   TC5  1 3.850000e-01    8.550000e-01
  TP5h   TC5  1 3.660000e-01    9.350000e-01
  TP4h   TC5  1 3.660000e-01    9.350000e-01
  TP3h   TC5  1 3.520000e-01    1.050000e+00
  TP2h   TC5  1 3.520000e-01    1.050000e+00
  TP1h   TC5  1 3.520000e-01    1.050000e+00
  TN6h   TC5  1 3.400000e-01    1.230000e+00
  TN5h   TC5  1 3.400000e-01    1.230000e+00
  TN4h   TC5  1 3.400000e-01    1.230000e+00
  TN3h   TC5  1 3.400000e-01    1.230000e+00
  TN2h   TC5  1 3.400000e-01    1.230000e+00
  TN1h   TC5  1 3.400000e-01    1.510000e+00
  TC6h   TC5  1 3.400000e-01    1.510000e+00
   TC5  TC5h  1 3.400000e-01    1.510000e+00
   TC5 TX1eh  1 3.400000e-01    1.770000e+00
   TC5 TX2eh  1 3.400000e-01    1.510000e+00
   TC5 TX3eh  1 3.400000e-01    1.510000e+00
   TC5 TX4eh  1 3.400000e-01    1.510000e+00
   TC5 TC1eh  1 3.400000e-01    1.230000e+00
   TC5 TC2eh  1 3.400000e-01    1.230000e+00
   TC5 TC3eh  1 3.400000e-01    1.510000e+00
   TC5 TC4eh  1 3.400000e-01    1.770000e+00
   TC5 TC5eh  1 3.400000e-01    1.770000e+00
 TC6eh   TC5  1 3.400000e-01    1.770000e+00
   TC5 TX1vh  1 3.400000e-01    1.770000e+00
   TC5 TX2vh  1 3.400000e-01    1.510000e+00
   TC5 TX3vh  1 3.400000e-01    1.510000e+00
   TC5 TX4vh  1 3.400000e-01    1.510000e+00
   TC5 TC1vh  1 3.400000e-01    1.230000e+00
   TC5 TC2vh  1 3.400000e-01    1.230000e+00
   TC5 TC3vh  1 3.400000e-01    1.510000e+00
   TC5 TC4vh  1 3.400000e-01    1.770000e+00
   TC5 TC5vh  1 3.400000e-01    1.770000e+00
 TC6vh   TC5  1 3.400000e-01    1.770000e+00
 TN1ah   TC5  1 3.400000e-01    1.510000e+00
 TN2ah   TC5  1 3.400000e-01    1.230000e+00
 TN3ah   TC5  1 3.400000e-01    1.230000e+00
 TN4ah   TC5  1 3.400000e-01    1.230000e+00
 TN5ah   TC5  1 3.400000e-01    1.230000e+00
 TN6ah   TC5  1 3.400000e-01    1.230000e+00
 TP1ah   TC5  1 3.520000e-01    1.050000e+00
 TP2ah   TC5  1 3.520000e-01    1.050000e+00
 TP3ah   TC5  1 3.520000e-01    1.050000e+00
 TP4ah   TC5  1 3.660000e-01    9.350000e-01
 TP5ah   TC5  1 3.660000e-01    9.350000e-01
 TP6ah   TC5  1 3.850000e-01    8.550000e-01
 TN1dh   TC5  1 3.400000e-01    1.510000e+00
 TN2dh   TC5  1 3.400000e-01    1.230000e+00
 TN3dh   TC5  1 3.400000e-01    1.230000e+00
 TN4dh   TC5  1 3.400000e-01    1.230000e+00
 TN5dh   TC5  1 3.400000e-01    1.230000e+00
 TN6dh   TC5  1 3.400000e-01    1.230000e+00
 TP1dh   TC5  1 3.520000e-01    1.050000e+00
 TP2dh   TC5  1 3.520000e-01    1.050000e+00
 TP3dh   TC5  1 3.520000e-01    1.050000e+00
 TP4dh   TC5  1 3.660000e-01    9.350000e-01
 TP5dh   TC5  1 3.660000e-01    9.350000e-01
 TP6dh   TC5  1 3.850000e-01    8.550000e-01
   TC5  TX1h  1 3.400000e-01    1.510000e+00
   TC5  TX2h  1 3.400000e-01    1.230000e+00
   TC5  TX3h  1 3.400000e-01    1.230000e+00
   TC5  TX4h  1 3.400000e-01    1.230000e+00
   TC5  TC1h  1 3.520000e-01    1.050000e+00
   TC5  TC2h  1 3.520000e-01    1.050000e+00
   TC5  TC3h  1 3.400000e-01    1.230000e+00
   TC5  TC4h  1 3.400000e-01    1.510000e+00
  TP6r   TC5  1 3.850000e-01    8.550000e-01
  TP5r   TC5  1 3.660000e-01    9.350000e-01
  TP4r   TC5  1 3.660000e-01    9.350000e-01
  TP3r   TC5  1 3.520000e-01    1.050000e+00
  TP2r   TC5  1 3.520000e-01    1.050000e+00
  TP1r   TC5  1 3.520000e-01    1.050000e+00
  TN6r   TC5  1 3.400000e-01    1.230000e+00
  TN5r   TC5  1 3.400000e-01    1.230000e+00
  TN4r   TC5  1 3.400000e-01    1.230000e+00
  TN3r   TC5  1 3.400000e-01    1.230000e+00
  TN2r   TC5  1 3.400000e-01    1.230000e+00
  TN1r   TC5  1 3.400000e-01    1.510000e+00
  TC6r   TC5  1 3.400000e-01    1.510000e+00
   TC5  TC5r  1 3.400000e-01    1.510000e+00
   TC5 TX1er  1 3.400000e-01    1.770000e+00
   TC5 TX2er  1 3.400000e-01    1.510000e+00
   TC5 TX3er  1 3.400000e-01    1.510000e+00
   TC5 TX4er  1 3.400000e-01    1.510000e+00
   TC5 TC1er  1 3.400000e-01    1.230000e+00
   TC5 TC2er  1 3.400000e-01    1.230000e+00
   TC5 TC3er  1 3.400000e-01    1.510000e+00
   TC5 TC4er  1 3.400000e-01    1.770000e+00
   TC5 TC5er  1 3.400000e-01    1.770000e+00
 TC6er   TC5  1 3.400000e-01    1.770000e+00
   TC5 TX1vr  1 3.400000e-01    1.770000e+00
   TC5 TX2vr  1 3.400000e-01    1.510000e+00
   TC5 TX3vr  1 3.400000e-01    1.510000e+00
   TC5 TX4vr  1 3.400000e-01    1.510000e+00
   TC5 TC1vr  1 3.400000e-01    1.230000e+00
   TC5 TC2vr  1 3.400000e-01    1.230000e+00
   TC5 TC3vr  1 3.400000e-01    1.510000e+00
   TC5 TC4vr  1 3.400000e-01    1.770000e+00
   TC5 TC5vr  1 3.400000e-01    1.770000e+00
 TC6vr   TC5  1 3.400000e-01    1.770000e+00
 TN1ar   TC5  1 3.400000e-01    1.510000e+00
 TN2ar   TC5  1 3.400000e-01    1.230000e+00
 TN3ar   TC5  1 3.400000e-01    1.230000e+00
 TN4ar   TC5  1 3.400000e-01    1.230000e+00
 TN5ar   TC5  1 3.400000e-01    1.230000e+00
 TN6ar   TC5  1 3.400000e-01    1.230000e+00
 TP1ar   TC5  1 3.520000e-01    1.050000e+00
 TP2ar   TC5  1 3.520000e-01    1.050000e+00
 TP3ar   TC5  1 3.520000e-01    1.050000e+00
 TP4ar   TC5  1 3.660000e-01    9.350000e-01
 TP5ar   TC5  1 3.660000e-01    9.350000e-01
 TP6ar   TC5  1 3.850000e-01    8.550000e-01
 TN1dr   TC5  1 3.400000e-01    1.510000e+00
 TN2dr   TC5  1 3.400000e-01    1.230000e+00
 TN3dr   TC5  1 3.400000e-01    1.230000e+00
 TN4dr   TC5  1 3.400000e-01    1.230000e+00
 TN5dr   TC5  1 3.400000e-01    1.230000e+00
 TN6dr   TC5  1 3.400000e-01    1.230000e+00
 TP1dr   TC5  1 3.520000e-01    1.050000e+00
 TP2dr   TC5  1 3.520000e-01    1.050000e+00
 TP3dr   TC5  1 3.520000e-01    1.050000e+00
 TP4dr   TC5  1 3.660000e-01    9.350000e-01
 TP5dr   TC5  1 3.660000e-01    9.350000e-01
 TP6dr   TC5  1 3.850000e-01    8.550000e-01
   TC5  TX1r  1 3.400000e-01    1.510000e+00
   TC5  TX2r  1 3.400000e-01    1.230000e+00
   TC5  TX3r  1 3.400000e-01    1.230000e+00
   TC5  TX4r  1 3.400000e-01    1.230000e+00
   TC5  TC1r  1 3.520000e-01    1.050000e+00
   TC5  TC2r  1 3.520000e-01    1.050000e+00
   TC5  TC3r  1 3.400000e-01    1.230000e+00
   TC5  TC4r  1 3.400000e-01    1.510000e+00
  SP6d   TC5  1 3.940000e-01    1.290000e+00
  SP5d   TC5  1 3.780000e-01    1.450000e+00
  SP4d   TC5  1 3.780000e-01    1.450000e+00
  SP3d   TC5  1 3.660000e-01    1.600000e+00
  SP2d   TC5  1 3.660000e-01    1.600000e+00
  SP1d   TC5  1 3.660000e-01    1.600000e+00
  SN6d   TC5  1 3.650000e-01    1.750000e+00
  SN5d   TC5  1 3.650000e-01    1.750000e+00
  SN4d   TC5  1 3.650000e-01    1.750000e+00
  SN3d   TC5  1 3.650000e-01    1.750000e+00
  SN2d   TC5  1 3.650000e-01    1.750000e+00
  SN1d   TC5  1 3.650000e-01    1.910000e+00
  SP6a   TC5  1 3.940000e-01    1.290000e+00
  SP5a   TC5  1 3.780000e-01    1.450000e+00
  SP4a   TC5  1 3.780000e-01    1.450000e+00
  SP3a   TC5  1 3.660000e-01    1.600000e+00
  SP2a   TC5  1 3.660000e-01    1.600000e+00
  SP1a   TC5  1 3.660000e-01    1.600000e+00
  SN6a   TC5  1 3.650000e-01    1.750000e+00
  SN5a   TC5  1 3.650000e-01    1.750000e+00
  SN4a   TC5  1 3.650000e-01    1.750000e+00
  SN3a   TC5  1 3.650000e-01    1.750000e+00
  SN2a   TC5  1 3.650000e-01    1.750000e+00
  SN1a   TC5  1 3.650000e-01    1.910000e+00
  SC6v   TC5  1 3.650000e-01    2.110000e+00
  SC6e   TC5  1 3.650000e-01    2.110000e+00
  SP6q   TC5  1 3.660000e-01    1.600000e+00
  SP5q   TC5  1 3.650000e-01    1.750000e+00
  SP4q   TC5  1 3.650000e-01    1.750000e+00
  SP3q   TC5  1 3.650000e-01    1.910000e+00
  SP2q   TC5  1 3.650000e-01    1.910000e+00
  SP1q   TC5  1 3.650000e-01    1.910000e+00
  SN6q   TC5  1 3.650000e-01    2.110000e+00
  SN5q   TC5  1 3.650000e-01    2.110000e+00
  SN4q   TC5  1 3.650000e-01    2.110000e+00
  SN3q   TC5  1 3.650000e-01    2.110000e+00
  SN2q   TC5  1 3.650000e-01    2.110000e+00
  SN1q   TC5  1 3.650000e-01    2.340000e+00
  SC6q   TC5  1 3.650000e-01    2.340000e+00
 SC6eq   TC5  1 3.650000e-01    2.570000e+00
 SC6vq   TC5  1 3.650000e-01    2.570000e+00
 SN1aq   TC5  1 3.650000e-01    2.340000e+00
 SN2aq   TC5  1 3.650000e-01    2.110000e+00
 SN3aq   TC5  1 3.650000e-01    2.110000e+00
 SN4aq   TC5  1 3.650000e-01    2.110000e+00
 SN5aq   TC5  1 3.650000e-01    2.110000e+00
 SN6aq   TC5  1 3.650000e-01    2.110000e+00
 SP1aq   TC5  1 3.650000e-01    1.910000e+00
 SP2aq   TC5  1 3.650000e-01    1.910000e+00
 SP3aq   TC5  1 3.650000e-01    1.910000e+00
 SP4aq   TC5  1 3.650000e-01    1.750000e+00
 SP5aq   TC5  1 3.650000e-01    1.750000e+00
 SP6aq   TC5  1 3.660000e-01    1.600000e+00
 SN1dq   TC5  1 3.650000e-01    2.340000e+00
 SN2dq   TC5  1 3.650000e-01    2.110000e+00
 SN3dq   TC5  1 3.650000e-01    2.110000e+00
 SN4dq   TC5  1 3.650000e-01    2.110000e+00
 SN5dq   TC5  1 3.650000e-01    2.110000e+00
 SN6dq   TC5  1 3.650000e-01    2.110000e+00
 SP1dq   TC5  1 3.650000e-01    1.910000e+00
 SP2dq   TC5  1 3.650000e-01    1.910000e+00
 SP3dq   TC5  1 3.650000e-01    1.910000e+00
 SP4dq   TC5  1 3.650000e-01    1.750000e+00
 SP5dq   TC5  1 3.650000e-01    1.750000e+00
 SP6dq   TC5  1 3.660000e-01    1.600000e+00
  SP6h   TC5  1 3.940000e-01    1.290000e+00
  SP5h   TC5  1 3.780000e-01    1.450000e+00
  SP4h   TC5  1 3.780000e-01    1.450000e+00
  SP3h   TC5  1 3.660000e-01    1.600000e+00
  SP2h   TC5  1 3.660000e-01    1.600000e+00
  SP1h   TC5  1 3.660000e-01    1.600000e+00
  SN6h   TC5  1 3.650000e-01    1.750000e+00
  SN5h   TC5  1 3.650000e-01    1.750000e+00
  SN4h   TC5  1 3.650000e-01    1.750000e+00
  SN3h   TC5  1 3.650000e-01    1.750000e+00
  SN2h   TC5  1 3.650000e-01    1.750000e+00
  SN1h   TC5  1 3.650000e-01    1.910000e+00
  SC6h   TC5  1 3.650000e-01    1.910000e+00
 SC6eh   TC5  1 3.650000e-01    2.110000e+00
 SC6vh   TC5  1 3.650000e-01    2.110000e+00
 SN1ah   TC5  1 3.650000e-01    1.910000e+00
 SN2ah   TC5  1 3.650000e-01    1.750000e+00
 SN3ah   TC5  1 3.650000e-01    1.750000e+00
 SN4ah   TC5  1 3.650000e-01    1.750000e+00
 SN5ah   TC5  1 3.650000e-01    1.750000e+00
 SN6ah   TC5  1 3.650000e-01    1.750000e+00
 SP1ah   TC5  1 3.660000e-01    1.600000e+00
 SP2ah   TC5  1 3.660000e-01    1.600000e+00
 SP3ah   TC5  1 3.660000e-01    1.600000e+00
 SP4ah   TC5  1 3.780000e-01    1.450000e+00
 SP5ah   TC5  1 3.780000e-01    1.450000e+00
 SP6ah   TC5  1 3.940000e-01    1.290000e+00
 SN1dh   TC5  1 3.650000e-01    1.910000e+00
 SN2dh   TC5  1 3.650000e-01    1.750000e+00
 SN3dh   TC5  1 3.650000e-01    1.750000e+00
 SN4dh   TC5  1 3.650000e-01    1.750000e+00
 SN5dh   TC5  1 3.650000e-01    1.750000e+00
 SN6dh   TC5  1 3.650000e-01    1.750000e+00
 SP1dh   TC5  1 3.660000e-01    1.600000e+00
 SP2dh   TC5  1 3.660000e-01    1.600000e+00
 SP3dh   TC5  1 3.660000e-01    1.600000e+00
 SP4dh   TC5  1 3.780000e-01    1.450000e+00
 SP5dh   TC5  1 3.780000e-01    1.450000e+00
 SP6dh   TC5  1 3.940000e-01    1.290000e+00
  SP6r   TC5  1 3.940000e-01    1.290000e+00
  SP5r   TC5  1 3.780000e-01    1.450000e+00
  SP4r   TC5  1 3.780000e-01    1.450000e+00
  SP3r   TC5  1 3.660000e-01    1.600000e+00
  SP2r   TC5  1 3.660000e-01    1.600000e+00
  SP1r   TC5  1 3.660000e-01    1.600000e+00
  SN6r   TC5  1 3.650000e-01    1.750000e+00
  SN5r   TC5  1 3.650000e-01    1.750000e+00
  SN4r   TC5  1 3.650000e-01    1.750000e+00
  SN3r   TC5  1 3.650000e-01    1.750000e+00
  SN2r   TC5  1 3.650000e-01    1.750000e+00
  SN1r   TC5  1 3.650000e-01    1.910000e+00
  SC6r   TC5  1 3.650000e-01    1.910000e+00
 SC6er   TC5  1 3.650000e-01    2.110000e+00
 SC6vr   TC5  1 3.650000e-01    2.110000e+00
 SN1ar   TC5  1 3.650000e-01    1.910000e+00
 SN2ar   TC5  1 3.650000e-01    1.750000e+00
 SN3ar   TC5  1 3.650000e-01    1.750000e+00
 SN4ar   TC5  1 3.650000e-01    1.750000e+00
 SN5ar   TC5  1 3.650000e-01    1.750000e+00
 SN6ar   TC5  1 3.650000e-01    1.750000e+00
 SP1ar   TC5  1 3.660000e-01    1.600000e+00
 SP2ar   TC5  1 3.660000e-01    1.600000e+00
 SP3ar   TC5  1 3.660000e-01    1.600000e+00
 SP4ar   TC5  1 3.780000e-01    1.450000e+00
 SP5ar   TC5  1 3.780000e-01    1.450000e+00
 SP6ar   TC5  1 3.940000e-01    1.290000e+00
 SN1dr   TC5  1 3.650000e-01    1.910000e+00
 SN2dr   TC5  1 3.650000e-01    1.750000e+00
 SN3dr   TC5  1 3.650000e-01    1.750000e+00
 SN4dr   TC5  1 3.650000e-01    1.750000e+00
 SN5dr   TC5  1 3.650000e-01    1.750000e+00
 SN6dr   TC5  1 3.650000e-01    1.750000e+00
 SP1dr   TC5  1 3.660000e-01    1.600000e+00
 SP2dr   TC5  1 3.660000e-01    1.600000e+00
 SP3dr   TC5  1 3.660000e-01    1.600000e+00
 SP4dr   TC5  1 3.780000e-01    1.450000e+00
 SP5dr   TC5  1 3.780000e-01    1.450000e+00
 SP6dr   TC5  1 3.940000e-01    1.290000e+00
   TC5   SC4  1 3.650000e-01    1.910000e+00
   TC5   SC3  1 3.650000e-01    1.750000e+00
   TC5   SC2  1 3.660000e-01    1.600000e+00
   TC5   SC1  1 3.660000e-01    1.600000e+00
   TC5   SX4  1 3.650000e-01    1.750000e+00
   TC5   SX3  1 3.650000e-01    1.750000e+00
   TC5   SX2  1 3.650000e-01    1.750000e+00
   TC5   SX1  1 3.650000e-01    1.910000e+00
   TC5  SC5v  1 3.650000e-01    2.110000e+00
   TC5  SX1v  1 3.650000e-01    2.110000e+00
   TC5  SX2v  1 3.650000e-01    1.910000e+00
   TC5  SX3v  1 3.650000e-01    1.910000e+00
   TC5  SX4v  1 3.650000e-01    1.910000e+00
   TC5  SC1v  1 3.650000e-01    1.750000e+00
   TC5  SC2v  1 3.650000e-01    1.750000e+00
   TC5  SC3v  1 3.650000e-01    1.910000e+00
   TC5  SC4v  1 3.650000e-01    2.110000e+00
   TC5  SC5e  1 3.650000e-01    2.110000e+00
   TC5  SX1e  1 3.650000e-01    2.110000e+00
   TC5  SX2e  1 3.650000e-01    1.910000e+00
   TC5  SX3e  1 3.650000e-01    1.910000e+00
   TC5  SX4e  1 3.650000e-01    1.910000e+00
   TC5  SC1e  1 3.650000e-01    1.750000e+00
   TC5  SC2e  1 3.650000e-01    1.750000e+00
   TC5  SC3e  1 3.650000e-01    1.910000e+00
   TC5  SC4e  1 3.650000e-01    2.110000e+00
   TC5  SC5q  1 3.650000e-01    2.340000e+00
   TC5 SX1eq  1 3.650000e-01    2.570000e+00
   TC5 SX2eq  1 3.650000e-01    2.340000e+00
   TC5 SX3eq  1 3.650000e-01    2.340000e+00
   TC5 SX4eq  1 3.650000e-01    2.340000e+00
   TC5 SC1eq  1 3.650000e-01    2.110000e+00
   TC5 SC2eq  1 3.650000e-01    2.110000e+00
   TC5 SC3eq  1 3.650000e-01    2.340000e+00
   TC5 SC4eq  1 3.650000e-01    2.570000e+00
   TC5 SC5eq  1 3.650000e-01    2.570000e+00
   TC5 SX1vq  1 3.650000e-01    2.570000e+00
   TC5 SX2vq  1 3.650000e-01    2.340000e+00
   TC5 SX3vq  1 3.650000e-01    2.340000e+00
   TC5 SX4vq  1 3.650000e-01    2.340000e+00
   TC5 SC1vq  1 3.650000e-01    2.110000e+00
   TC5 SC2vq  1 3.650000e-01    2.110000e+00
   TC5 SC3vq  1 3.650000e-01    2.340000e+00
   TC5 SC4vq  1 3.650000e-01    2.570000e+00
   TC5 SC5vq  1 3.650000e-01    2.570000e+00
   TC5  SX1q  1 3.650000e-01    2.340000e+00
   TC5  SX2q  1 3.650000e-01    2.110000e+00
   TC5  SX3q  1 3.650000e-01    2.110000e+00
   TC5  SX4q  1 3.650000e-01    2.110000e+00
   TC5  SC1q  1 3.650000e-01    1.910000e+00
   TC5  SC2q  1 3.650000e-01    1.910000e+00
   TC5  SC3q  1 3.650000e-01    2.110000e+00
   TC5  SC4q  1 3.650000e-01    2.340000e+00
   TC5  SC5h  1 3.650000e-01    1.910000e+00
   TC5 SX1eh  1 3.650000e-01    2.110000e+00
   TC5 SX2eh  1 3.650000e-01    1.910000e+00
   TC5 SX3eh  1 3.650000e-01    1.910000e+00
   TC5 SX4eh  1 3.650000e-01    1.910000e+00
   TC5 SC1eh  1 3.650000e-01    1.750000e+00
   TC5 SC2eh  1 3.650000e-01    1.750000e+00
   TC5 SC3eh  1 3.650000e-01    1.910000e+00
   TC5 SC4eh  1 3.650000e-01    2.110000e+00
   TC5 SC5eh  1 3.650000e-01    2.110000e+00
   TC5 SX1vh  1 3.650000e-01    2.110000e+00
   TC5 SX2vh  1 3.650000e-01    1.910000e+00
   TC5 SX3vh  1 3.650000e-01    1.910000e+00
   TC5 SX4vh  1 3.650000e-01    1.910000e+00
   TC5 SC1vh  1 3.650000e-01    1.750000e+00
   TC5 SC2vh  1 3.650000e-01    1.750000e+00
   TC5 SC3vh  1 3.650000e-01    1.910000e+00
   TC5 SC4vh  1 3.650000e-01    2.110000e+00
   TC5 SC5vh  1 3.650000e-01    2.110000e+00
   TC5  SX1h  1 3.650000e-01    1.910000e+00
   TC5  SX2h  1 3.650000e-01    1.750000e+00
   TC5  SX3h  1 3.650000e-01    1.750000e+00
   TC5  SX4h  1 3.650000e-01    1.750000e+00
   TC5  SC1h  1 3.660000e-01    1.600000e+00
   TC5  SC2h  1 3.660000e-01    1.600000e+00
   TC5  SC3h  1 3.650000e-01    1.750000e+00
   TC5  SC4h  1 3.650000e-01    1.910000e+00
   TC5  SC5r  1 3.650000e-01    1.910000e+00
   TC5 SX1er  1 3.650000e-01    2.110000e+00
   TC5 SX2er  1 3.650000e-01    1.910000e+00
   TC5 SX3er  1 3.650000e-01    1.910000e+00
   TC5 SX4er  1 3.650000e-01    1.910000e+00
   TC5 SC1er  1 3.650000e-01    1.750000e+00
   TC5 SC2er  1 3.650000e-01    1.750000e+00
   TC5 SC3er  1 3.650000e-01    1.910000e+00
   TC5 SC4er  1 3.650000e-01    2.110000e+00
   TC5 SC5er  1 3.650000e-01    2.110000e+00
   TC5 SX1vr  1 3.650000e-01    2.110000e+00
   TC5 SX2vr  1 3.650000e-01    1.910000e+00
   TC5 SX3vr  1 3.650000e-01    1.910000e+00
   TC5 SX4vr  1 3.650000e-01    1.910000e+00
   TC5 SC1vr  1 3.650000e-01    1.750000e+00
   TC5 SC2vr  1 3.650000e-01    1.750000e+00
   TC5 SC3vr  1 3.650000e-01    1.910000e+00
   TC5 SC4vr  1 3.650000e-01    2.110000e+00
   TC5 SC5vr  1 3.650000e-01    2.110000e+00
   TC5  SX1r  1 3.650000e-01    1.910000e+00
   TC5  SX2r  1 3.650000e-01    1.750000e+00
   TC5  SX3r  1 3.650000e-01    1.750000e+00
   TC5  SX4r  1 3.650000e-01    1.750000e+00
   TC5  SC1r  1 3.660000e-01    1.600000e+00
   TC5  SC2r  1 3.660000e-01    1.600000e+00
   TC5  SC3r  1 3.650000e-01    1.750000e+00
   TC5  SC4r  1 3.650000e-01    1.910000e+00
    C4    C4  1 4.700000e-01    3.390000e+00
    C4    C3  1 4.700000e-01    3.390000e+00
    C4    C2  1 4.700000e-01    3.240000e+00
    C4    C1  1 4.700000e-01    3.070000e+00
    C4    X4  1 4.700000e-01    3.240000e+00
    C4    X3  1 4.700000e-01    3.240000e+00
    C4    X2  1 4.700000e-01    3.240000e+00
    C4    X1  1 4.700000e-01    3.390000e+00
   P6d    C4  1 4.700000e-01    2.620000e+00
   P5d    C4  1 4.700000e-01    2.790000e+00
   P4d    C4  1 4.700000e-01    2.790000e+00
   P3d    C4  1 4.700000e-01    2.960000e+00
   P2d    C4  1 4.700000e-01    2.960000e+00
   P1d    C4  1 4.700000e-01    2.960000e+00
   N6d    C4  1 4.700000e-01    3.070000e+00
   N5d    C4  1 4.700000e-01    3.070000e+00
   N4d    C4  1 4.700000e-01    3.240000e+00
   N3d    C4  1 4.700000e-01    3.240000e+00
   N2d    C4  1 4.700000e-01    3.240000e+00
   N1d    C4  1 4.700000e-01    3.390000e+00
   P6a    C4  1 4.700000e-01    2.620000e+00
   P5a    C4  1 4.700000e-01    2.790000e+00
   P4a    C4  1 4.700000e-01    2.790000e+00
   P3a    C4  1 4.700000e-01    2.960000e+00
   P2a    C4  1 4.700000e-01    2.960000e+00
   P1a    C4  1 4.700000e-01    2.960000e+00
   N6a    C4  1 4.700000e-01    3.070000e+00
   N5a    C4  1 4.700000e-01    3.070000e+00
   N4a    C4  1 4.700000e-01    3.240000e+00
   N3a    C4  1 4.700000e-01    3.240000e+00
   N2a    C4  1 4.700000e-01    3.240000e+00
   N1a    C4  1 4.700000e-01    3.390000e+00
   C6v    C4  1 4.700000e-01    3.520000e+00
   C5v    C4  1 4.700000e-01    3.520000e+00
    C4   C4v  1 4.700000e-01    3.520000e+00
    C4   X1v  1 4.700000e-01    3.520000e+00
    C4   X2v  1 4.700000e-01    3.390000e+00
    C4   X3v  1 4.700000e-01    3.390000e+00
    C4   X4v  1 4.700000e-01    3.390000e+00
    C4   C1v  1 4.700000e-01    3.240000e+00
    C4   C2v  1 4.700000e-01    3.390000e+00
    C4   C3v  1 4.700000e-01    3.520000e+00
   C6e    C4  1 4.700000e-01    3.520000e+00
   C5e    C4  1 4.700000e-01    3.520000e+00
    C4   C4e  1 4.700000e-01    3.520000e+00
    C4   X1e  1 4.700000e-01    3.520000e+00
    C4   X2e  1 4.700000e-01    3.390000e+00
    C4   X3e  1 4.700000e-01    3.390000e+00
    C4   X4e  1 4.700000e-01    3.390000e+00
    C4   C1e  1 4.700000e-01    3.240000e+00
    C4   C2e  1 4.700000e-01    3.390000e+00
    C4   C3e  1 4.700000e-01    3.520000e+00
   P6q    C4  1 4.700000e-01    2.960000e+00
   P5q    C4  1 4.700000e-01    3.070000e+00
   P4q    C4  1 4.700000e-01    3.070000e+00
   P3q    C4  1 4.700000e-01    3.240000e+00
   P2q    C4  1 4.700000e-01    3.240000e+00
   P1q    C4  1 4.700000e-01    3.240000e+00
   N6q    C4  1 4.700000e-01    3.390000e+00
   N5q    C4  1 4.700000e-01    3.390000e+00
   N4q    C4  1 4.700000e-01    3.520000e+00
   N3q    C4  1 4.700000e-01    3.520000e+00
   N2q    C4  1 4.700000e-01    3.520000e+00
   N1q    C4  1 4.700000e-01    3.690000e+00
   C6q    C4  1 4.700000e-01    3.690000e+00
   C5q    C4  1 4.700000e-01    3.690000e+00
    C4   C4q  1 4.700000e-01    3.690000e+00
    C4  X1eq  1 4.700000e-01    3.880000e+00
    C4  X2eq  1 4.700000e-01    3.690000e+00
    C4  X3eq  1 4.700000e-01    3.690000e+00
    C4  X4eq  1 4.700000e-01    3.690000e+00
    C4  C1eq  1 4.700000e-01    3.520000e+00
    C4  C2eq  1 4.700000e-01    3.690000e+00
    C4  C3eq  1 4.700000e-01    3.880000e+00
    C4  C4eq  1 4.700000e-01    3.880000e+00
  C5eq    C4  1 4.700000e-01    3.880000e+00
  C6eq    C4  1 4.700000e-01    3.880000e+00
    C4  X1vq  1 4.700000e-01    3.880000e+00
    C4  X2vq  1 4.700000e-01    3.690000e+00
    C4  X3vq  1 4.700000e-01    3.690000e+00
    C4  X4vq  1 4.700000e-01    3.690000e+00
    C4  C1vq  1 4.700000e-01    3.520000e+00
    C4  C2vq  1 4.700000e-01    3.690000e+00
    C4  C3vq  1 4.700000e-01    3.880000e+00
    C4  C4vq  1 4.700000e-01    3.880000e+00
  C5vq    C4  1 4.700000e-01    3.880000e+00
  C6vq    C4  1 4.700000e-01    3.880000e+00
  N1aq    C4  1 4.700000e-01    3.690000e+00
  N2aq    C4  1 4.700000e-01    3.520000e+00
  N3aq    C4  1 4.700000e-01    3.520000e+00
  N4aq    C4  1 4.700000e-01    3.520000e+00
  N5aq    C4  1 4.700000e-01    3.390000e+00
  N6aq    C4  1 4.700000e-01    3.390000e+00
  P1aq    C4  1 4.700000e-01    3.240000e+00
  P2aq    C4  1 4.700000e-01    3.240000e+00
  P3aq    C4  1 4.700000e-01    3.240000e+00
  P4aq    C4  1 4.700000e-01    3.070000e+00
  P5aq    C4  1 4.700000e-01    3.070000e+00
  P6aq    C4  1 4.700000e-01    2.960000e+00
  N1dq    C4  1 4.700000e-01    3.690000e+00
  N2dq    C4  1 4.700000e-01    3.520000e+00
  N3dq    C4  1 4.700000e-01    3.520000e+00
  N4dq    C4  1 4.700000e-01    3.520000e+00
  N5dq    C4  1 4.700000e-01    3.390000e+00
  N6dq    C4  1 4.700000e-01    3.390000e+00
  P1dq    C4  1 4.700000e-01    3.240000e+00
  P2dq    C4  1 4.700000e-01    3.240000e+00
  P3dq    C4  1 4.700000e-01    3.240000e+00
  P4dq    C4  1 4.700000e-01    3.070000e+00
  P5dq    C4  1 4.700000e-01    3.070000e+00
  P6dq    C4  1 4.700000e-01    2.960000e+00
    C4   X1q  1 4.700000e-01    3.690000e+00
    C4   X2q  1 4.700000e-01    3.520000e+00
    C4   X3q  1 4.700000e-01    3.520000e+00
    C4   X4q  1 4.700000e-01    3.520000e+00
    C4   C1q  1 4.700000e-01    3.390000e+00
    C4   C2q  1 4.700000e-01    3.520000e+00
    C4   C3q  1 4.700000e-01    3.690000e+00
   P6h    C4  1 4.700000e-01    2.620000e+00
   P5h    C4  1 4.700000e-01    2.790000e+00
   P4h    C4  1 4.700000e-01    2.790000e+00
   P3h    C4  1 4.700000e-01    2.960000e+00
   P2h    C4  1 4.700000e-01    2.960000e+00
   P1h    C4  1 4.700000e-01    2.960000e+00
   N6h    C4  1 4.700000e-01    3.070000e+00
   N5h    C4  1 4.700000e-01    3.070000e+00
   N4h    C4  1 4.700000e-01    3.240000e+00
   N3h    C4  1 4.700000e-01    3.240000e+00
   N2h    C4  1 4.700000e-01    3.240000e+00
   N1h    C4  1 4.700000e-01    3.390000e+00
   C6h    C4  1 4.700000e-01    3.390000e+00
   C5h    C4  1 4.700000e-01    3.390000e+00
    C4   C4h  1 4.700000e-01    3.390000e+00
    C4  X1eh  1 4.700000e-01    3.520000e+00
    C4  X2eh  1 4.700000e-01    3.390000e+00
    C4  X3eh  1 4.700000e-01    3.390000e+00
    C4  X4eh  1 4.700000e-01    3.390000e+00
    C4  C1eh  1 4.700000e-01    3.240000e+00
    C4  C2eh  1 4.700000e-01    3.390000e+00
    C4  C3eh  1 4.700000e-01    3.520000e+00
    C4  C4eh  1 4.700000e-01    3.520000e+00
  C5eh    C4  1 4.700000e-01    3.520000e+00
  C6eh    C4  1 4.700000e-01    3.520000e+00
    C4  X1vh  1 4.700000e-01    3.520000e+00
    C4  X2vh  1 4.700000e-01    3.390000e+00
    C4  X3vh  1 4.700000e-01    3.390000e+00
    C4  X4vh  1 4.700000e-01    3.390000e+00
    C4  C1vh  1 4.700000e-01    3.240000e+00
    C4  C2vh  1 4.700000e-01    3.390000e+00
    C4  C3vh  1 4.700000e-01    3.520000e+00
    C4  C4vh  1 4.700000e-01    3.520000e+00
  C5vh    C4  1 4.700000e-01    3.520000e+00
  C6vh    C4  1 4.700000e-01    3.520000e+00
  N1ah    C4  1 4.700000e-01    3.390000e+00
  N2ah    C4  1 4.700000e-01    3.240000e+00
  N3ah    C4  1 4.700000e-01    3.240000e+00
  N4ah    C4  1 4.700000e-01    3.240000e+00
  N5ah    C4  1 4.700000e-01    3.070000e+00
  N6ah    C4  1 4.700000e-01    3.070000e+00
  P1ah    C4  1 4.700000e-01    2.960000e+00
  P2ah    C4  1 4.700000e-01    2.960000e+00
  P3ah    C4  1 4.700000e-01    2.960000e+00
  P4ah    C4  1 4.700000e-01    2.790000e+00
  P5ah    C4  1 4.700000e-01    2.790000e+00
  P6ah    C4  1 4.700000e-01    2.620000e+00
  N1dh    C4  1 4.700000e-01    3.390000e+00
  N2dh    C4  1 4.700000e-01    3.240000e+00
  N3dh    C4  1 4.700000e-01    3.240000e+00
  N4dh    C4  1 4.700000e-01    3.240000e+00
  N5dh    C4  1 4.700000e-01    3.070000e+00
  N6dh    C4  1 4.700000e-01    3.070000e+00
  P1dh    C4  1 4.700000e-01    2.960000e+00
  P2dh    C4  1 4.700000e-01    2.960000e+00
  P3dh    C4  1 4.700000e-01    2.960000e+00
  P4dh    C4  1 4.700000e-01    2.790000e+00
  P5dh    C4  1 4.700000e-01    2.790000e+00
  P6dh    C4  1 4.700000e-01    2.620000e+00
    C4   X1h  1 4.700000e-01    3.390000e+00
    C4   X2h  1 4.700000e-01    3.240000e+00
    C4   X3h  1 4.700000e-01    3.240000e+00
    C4   X4h  1 4.700000e-01    3.240000e+00
    C4   C1h  1 4.700000e-01    3.070000e+00
    C4   C2h  1 4.700000e-01    3.240000e+00
    C4   C3h  1 4.700000e-01    3.390000e+00
   P6r    C4  1 4.700000e-01    2.620000e+00
   P5r    C4  1 4.700000e-01    2.790000e+00
   P4r    C4  1 4.700000e-01    2.790000e+00
   P3r    C4  1 4.700000e-01    2.960000e+00
   P2r    C4  1 4.700000e-01    2.960000e+00
   P1r    C4  1 4.700000e-01    2.960000e+00
   N6r    C4  1 4.700000e-01    3.070000e+00
   N5r    C4  1 4.700000e-01    3.070000e+00
   N4r    C4  1 4.700000e-01    3.240000e+00
   N3r    C4  1 4.700000e-01    3.240000e+00
   N2r    C4  1 4.700000e-01    3.240000e+00
   N1r    C4  1 4.700000e-01    3.390000e+00
   C6r    C4  1 4.700000e-01    3.390000e+00
   C5r    C4  1 4.700000e-01    3.390000e+00
    C4   C4r  1 4.700000e-01    3.390000e+00
    C4  X1er  1 4.700000e-01    3.520000e+00
    C4  X2er  1 4.700000e-01    3.390000e+00
    C4  X3er  1 4.700000e-01    3.390000e+00
    C4  X4er  1 4.700000e-01    3.390000e+00
    C4  C1er  1 4.700000e-01    3.240000e+00
    C4  C2er  1 4.700000e-01    3.390000e+00
    C4  C3er  1 4.700000e-01    3.520000e+00
    C4  C4er  1 4.700000e-01    3.520000e+00
  C5er    C4  1 4.700000e-01    3.520000e+00
  C6er    C4  1 4.700000e-01    3.520000e+00
    C4  X1vr  1 4.700000e-01    3.520000e+00
    C4  X2vr  1 4.700000e-01    3.390000e+00
    C4  X3vr  1 4.700000e-01    3.390000e+00
    C4  X4vr  1 4.700000e-01    3.390000e+00
    C4  C1vr  1 4.700000e-01    3.240000e+00
    C4  C2vr  1 4.700000e-01    3.390000e+00
    C4  C3vr  1 4.700000e-01    3.520000e+00
    C4  C4vr  1 4.700000e-01    3.520000e+00
  C5vr    C4  1 4.700000e-01    3.520000e+00
  C6vr    C4  1 4.700000e-01    3.520000e+00
  N1ar    C4  1 4.700000e-01    3.390000e+00
  N2ar    C4  1 4.700000e-01    3.240000e+00
  N3ar    C4  1 4.700000e-01    3.240000e+00
  N4ar    C4  1 4.700000e-01    3.240000e+00
  N5ar    C4  1 4.700000e-01    3.070000e+00
  N6ar    C4  1 4.700000e-01    3.070000e+00
  P1ar    C4  1 4.700000e-01    2.960000e+00
  P2ar    C4  1 4.700000e-01    2.960000e+00
  P3ar    C4  1 4.700000e-01    2.960000e+00
  P4ar    C4  1 4.700000e-01    2.790000e+00
  P5ar    C4  1 4.700000e-01    2.790000e+00
  P6ar    C4  1 4.700000e-01    2.620000e+00
  N1dr    C4  1 4.700000e-01    3.390000e+00
  N2dr    C4  1 4.700000e-01    3.240000e+00
  N3dr    C4  1 4.700000e-01    3.240000e+00
  N4dr    C4  1 4.700000e-01    3.240000e+00
  N5dr    C4  1 4.700000e-01    3.070000e+00
  N6dr    C4  1 4.700000e-01    3.070000e+00
  P1dr    C4  1 4.700000e-01    2.960000e+00
  P2dr    C4  1 4.700000e-01    2.960000e+00
  P3dr    C4  1 4.700000e-01    2.960000e+00
  P4dr    C4  1 4.700000e-01    2.790000e+00
  P5dr    C4  1 4.700000e-01    2.790000e+00
  P6dr    C4  1 4.700000e-01    2.620000e+00
    C4   X1r  1 4.700000e-01    3.390000e+00
    C4   X2r  1 4.700000e-01    3.240000e+00
    C4   X3r  1 4.700000e-01    3.240000e+00
    C4   X4r  1 4.700000e-01    3.240000e+00
    C4   C1r  1 4.700000e-01    3.070000e+00
    C4   C2r  1 4.700000e-01    3.240000e+00
    C4   C3r  1 4.700000e-01    3.390000e+00
    C4   SC4  1 4.300000e-01    2.920000e+00
    C4   SC3  1 4.300000e-01    2.920000e+00
    C4   SC2  1 4.300000e-01    2.770000e+00
    C4   SC1  1 4.300000e-01    2.530000e+00
    C4   SX4  1 4.300000e-01    2.770000e+00
    C4   SX3  1 4.300000e-01    2.770000e+00
    C4   SX2  1 4.300000e-01    2.770000e+00
    C4   SX1  1 4.300000e-01    2.920000e+00
    C4  SC4v  1 4.300000e-01    3.160000e+00
    C4  SX1v  1 4.300000e-01    3.160000e+00
    C4  SX2v  1 4.300000e-01    2.920000e+00
    C4  SX3v  1 4.300000e-01    2.920000e+00
    C4  SX4v  1 4.300000e-01    2.920000e+00
    C4  SC1v  1 4.300000e-01    2.770000e+00
    C4  SC2v  1 4.300000e-01    2.920000e+00
    C4  SC3v  1 4.300000e-01    3.160000e+00
    C4  SC4e  1 4.300000e-01    3.160000e+00
    C4  SX1e  1 4.300000e-01    3.160000e+00
    C4  SX2e  1 4.300000e-01    2.920000e+00
    C4  SX3e  1 4.300000e-01    2.920000e+00
    C4  SX4e  1 4.300000e-01    2.920000e+00
    C4  SC1e  1 4.300000e-01    2.770000e+00
    C4  SC2e  1 4.300000e-01    2.920000e+00
    C4  SC3e  1 4.300000e-01    3.160000e+00
    C4  SC4q  1 4.300000e-01    3.380000e+00
    C4 SX1eq  1 4.300000e-01    3.590000e+00
    C4 SX2eq  1 4.300000e-01    3.380000e+00
    C4 SX3eq  1 4.300000e-01    3.380000e+00
    C4 SX4eq  1 4.300000e-01    3.380000e+00
    C4 SC1eq  1 4.300000e-01    3.160000e+00
    C4 SC2eq  1 4.300000e-01    3.380000e+00
    C4 SC3eq  1 4.300000e-01    3.590000e+00
    C4 SC4eq  1 4.300000e-01    3.590000e+00
    C4 SX1vq  1 4.300000e-01    3.590000e+00
    C4 SX2vq  1 4.300000e-01    3.380000e+00
    C4 SX3vq  1 4.300000e-01    3.380000e+00
    C4 SX4vq  1 4.300000e-01    3.380000e+00
    C4 SC1vq  1 4.300000e-01    3.160000e+00
    C4 SC2vq  1 4.300000e-01    3.380000e+00
    C4 SC3vq  1 4.300000e-01    3.590000e+00
    C4 SC4vq  1 4.300000e-01    3.590000e+00
    C4  SX1q  1 4.300000e-01    3.380000e+00
    C4  SX2q  1 4.300000e-01    3.160000e+00
    C4  SX3q  1 4.300000e-01    3.160000e+00
    C4  SX4q  1 4.300000e-01    3.160000e+00
    C4  SC1q  1 4.300000e-01    2.920000e+00
    C4  SC2q  1 4.300000e-01    3.160000e+00
    C4  SC3q  1 4.300000e-01    3.380000e+00
    C4  SC4h  1 4.300000e-01    2.920000e+00
    C4 SX1eh  1 4.300000e-01    3.160000e+00
    C4 SX2eh  1 4.300000e-01    2.920000e+00
    C4 SX3eh  1 4.300000e-01    2.920000e+00
    C4 SX4eh  1 4.300000e-01    2.920000e+00
    C4 SC1eh  1 4.300000e-01    2.770000e+00
    C4 SC2eh  1 4.300000e-01    2.920000e+00
    C4 SC3eh  1 4.300000e-01    3.160000e+00
    C4 SC4eh  1 4.300000e-01    3.160000e+00
    C4 SX1vh  1 4.300000e-01    3.160000e+00
    C4 SX2vh  1 4.300000e-01    2.920000e+00
    C4 SX3vh  1 4.300000e-01    2.920000e+00
    C4 SX4vh  1 4.300000e-01    2.920000e+00
    C4 SC1vh  1 4.300000e-01    2.770000e+00
    C4 SC2vh  1 4.300000e-01    2.920000e+00
    C4 SC3vh  1 4.300000e-01    3.160000e+00
    C4 SC4vh  1 4.300000e-01    3.160000e+00
    C4  SX1h  1 4.300000e-01    2.920000e+00
    C4  SX2h  1 4.300000e-01    2.770000e+00
    C4  SX3h  1 4.300000e-01    2.770000e+00
    C4  SX4h  1 4.300000e-01    2.770000e+00
    C4  SC1h  1 4.300000e-01    2.530000e+00
    C4  SC2h  1 4.300000e-01    2.770000e+00
    C4  SC3h  1 4.300000e-01    2.920000e+00
    C4  SC4r  1 4.300000e-01    2.920000e+00
    C4 SX1er  1 4.300000e-01    3.160000e+00
    C4 SX2er  1 4.300000e-01    2.920000e+00
    C4 SX3er  1 4.300000e-01    2.920000e+00
    C4 SX4er  1 4.300000e-01    2.920000e+00
    C4 SC1er  1 4.300000e-01    2.770000e+00
    C4 SC2er  1 4.300000e-01    2.920000e+00
    C4 SC3er  1 4.300000e-01    3.160000e+00
    C4 SC4er  1 4.300000e-01    3.160000e+00
    C4 SX1vr  1 4.300000e-01    3.160000e+00
    C4 SX2vr  1 4.300000e-01    2.920000e+00
    C4 SX3vr  1 4.300000e-01    2.920000e+00
    C4 SX4vr  1 4.300000e-01    2.920000e+00
    C4 SC1vr  1 4.300000e-01    2.770000e+00
    C4 SC2vr  1 4.300000e-01    2.920000e+00
    C4 SC3vr  1 4.300000e-01    3.160000e+00
    C4 SC4vr  1 4.300000e-01    3.160000e+00
    C4  SX1r  1 4.300000e-01    2.920000e+00
    C4  SX2r  1 4.300000e-01    2.770000e+00
    C4  SX3r  1 4.300000e-01    2.770000e+00
    C4  SX4r  1 4.300000e-01    2.770000e+00
    C4  SC1r  1 4.300000e-01    2.530000e+00
    C4  SC2r  1 4.300000e-01    2.770000e+00
    C4  SC3r  1 4.300000e-01    2.920000e+00
  SP6d    C4  1 4.300000e-01    1.930000e+00
  SP5d    C4  1 4.300000e-01    2.160000e+00
  SP4d    C4  1 4.300000e-01    2.160000e+00
  SP3d    C4  1 4.300000e-01    2.320000e+00
  SP2d    C4  1 4.300000e-01    2.320000e+00
  SP1d    C4  1 4.300000e-01    2.320000e+00
  SN6d    C4  1 4.300000e-01    2.530000e+00
  SN5d    C4  1 4.300000e-01    2.530000e+00
  SN4d    C4  1 4.300000e-01    2.770000e+00
  SN3d    C4  1 4.300000e-01    2.770000e+00
  SN2d    C4  1 4.300000e-01    2.770000e+00
  SN1d    C4  1 4.300000e-01    2.920000e+00
  SP6a    C4  1 4.300000e-01    1.930000e+00
  SP5a    C4  1 4.300000e-01    2.160000e+00
  SP4a    C4  1 4.300000e-01    2.160000e+00
  SP3a    C4  1 4.300000e-01    2.320000e+00
  SP2a    C4  1 4.300000e-01    2.320000e+00
  SP1a    C4  1 4.300000e-01    2.320000e+00
  SN6a    C4  1 4.300000e-01    2.530000e+00
  SN5a    C4  1 4.300000e-01    2.530000e+00
  SN4a    C4  1 4.300000e-01    2.770000e+00
  SN3a    C4  1 4.300000e-01    2.770000e+00
  SN2a    C4  1 4.300000e-01    2.770000e+00
  SN1a    C4  1 4.300000e-01    2.920000e+00
  SC6v    C4  1 4.300000e-01    3.160000e+00
  SC5v    C4  1 4.300000e-01    3.160000e+00
  SC6e    C4  1 4.300000e-01    3.160000e+00
  SC5e    C4  1 4.300000e-01    3.160000e+00
  SP6q    C4  1 4.300000e-01    2.320000e+00
  SP5q    C4  1 4.300000e-01    2.530000e+00
  SP4q    C4  1 4.300000e-01    2.530000e+00
  SP3q    C4  1 4.300000e-01    2.770000e+00
  SP2q    C4  1 4.300000e-01    2.770000e+00
  SP1q    C4  1 4.300000e-01    2.770000e+00
  SN6q    C4  1 4.300000e-01    2.920000e+00
  SN5q    C4  1 4.300000e-01    2.920000e+00
  SN4q    C4  1 4.300000e-01    3.160000e+00
  SN3q    C4  1 4.300000e-01    3.160000e+00
  SN2q    C4  1 4.300000e-01    3.160000e+00
  SN1q    C4  1 4.300000e-01    3.380000e+00
  SC6q    C4  1 4.300000e-01    3.380000e+00
  SC5q    C4  1 4.300000e-01    3.380000e+00
 SC5eq    C4  1 4.300000e-01    3.590000e+00
 SC6eq    C4  1 4.300000e-01    3.590000e+00
 SC5vq    C4  1 4.300000e-01    3.590000e+00
 SC6vq    C4  1 4.300000e-01    3.590000e+00
 SN1aq    C4  1 4.300000e-01    3.380000e+00
 SN2aq    C4  1 4.300000e-01    3.160000e+00
 SN3aq    C4  1 4.300000e-01    3.160000e+00
 SN4aq    C4  1 4.300000e-01    3.160000e+00
 SN5aq    C4  1 4.300000e-01    2.920000e+00
 SN6aq    C4  1 4.300000e-01    2.920000e+00
 SP1aq    C4  1 4.300000e-01    2.770000e+00
 SP2aq    C4  1 4.300000e-01    2.770000e+00
 SP3aq    C4  1 4.300000e-01    2.770000e+00
 SP4aq    C4  1 4.300000e-01    2.530000e+00
 SP5aq    C4  1 4.300000e-01    2.530000e+00
 SP6aq    C4  1 4.300000e-01    2.320000e+00
 SN1dq    C4  1 4.300000e-01    3.380000e+00
 SN2dq    C4  1 4.300000e-01    3.160000e+00
 SN3dq    C4  1 4.300000e-01    3.160000e+00
 SN4dq    C4  1 4.300000e-01    3.160000e+00
 SN5dq    C4  1 4.300000e-01    2.920000e+00
 SN6dq    C4  1 4.300000e-01    2.920000e+00
 SP1dq    C4  1 4.300000e-01    2.770000e+00
 SP2dq    C4  1 4.300000e-01    2.770000e+00
 SP3dq    C4  1 4.300000e-01    2.770000e+00
 SP4dq    C4  1 4.300000e-01    2.530000e+00
 SP5dq    C4  1 4.300000e-01    2.530000e+00
 SP6dq    C4  1 4.300000e-01    2.320000e+00
  SP6h    C4  1 4.300000e-01    1.930000e+00
  SP5h    C4  1 4.300000e-01    2.160000e+00
  SP4h    C4  1 4.300000e-01    2.160000e+00
  SP3h    C4  1 4.300000e-01    2.320000e+00
  SP2h    C4  1 4.300000e-01    2.320000e+00
  SP1h    C4  1 4.300000e-01    2.320000e+00
  SN6h    C4  1 4.300000e-01    2.530000e+00
  SN5h    C4  1 4.300000e-01    2.530000e+00
  SN4h    C4  1 4.300000e-01    2.770000e+00
  SN3h    C4  1 4.300000e-01    2.770000e+00
  SN2h    C4  1 4.300000e-01    2.770000e+00
  SN1h    C4  1 4.300000e-01    2.920000e+00
  SC6h    C4  1 4.300000e-01    2.920000e+00
  SC5h    C4  1 4.300000e-01    2.920000e+00
 SC5eh    C4  1 4.300000e-01    3.160000e+00
 SC6eh    C4  1 4.300000e-01    3.160000e+00
 SC5vh    C4  1 4.300000e-01    3.160000e+00
 SC6vh    C4  1 4.300000e-01    3.160000e+00
 SN1ah    C4  1 4.300000e-01    2.920000e+00
 SN2ah    C4  1 4.300000e-01    2.770000e+00
 SN3ah    C4  1 4.300000e-01    2.770000e+00
 SN4ah    C4  1 4.300000e-01    2.770000e+00
 SN5ah    C4  1 4.300000e-01    2.530000e+00
 SN6ah    C4  1 4.300000e-01    2.530000e+00
 SP1ah    C4  1 4.300000e-01    2.320000e+00
 SP2ah    C4  1 4.300000e-01    2.320000e+00
 SP3ah    C4  1 4.300000e-01    2.320000e+00
 SP4ah    C4  1 4.300000e-01    2.160000e+00
 SP5ah    C4  1 4.300000e-01    2.160000e+00
 SP6ah    C4  1 4.300000e-01    1.930000e+00
 SN1dh    C4  1 4.300000e-01    2.920000e+00
 SN2dh    C4  1 4.300000e-01    2.770000e+00
 SN3dh    C4  1 4.300000e-01    2.770000e+00
 SN4dh    C4  1 4.300000e-01    2.770000e+00
 SN5dh    C4  1 4.300000e-01    2.530000e+00
 SN6dh    C4  1 4.300000e-01    2.530000e+00
 SP1dh    C4  1 4.300000e-01    2.320000e+00
 SP2dh    C4  1 4.300000e-01    2.320000e+00
 SP3dh    C4  1 4.300000e-01    2.320000e+00
 SP4dh    C4  1 4.300000e-01    2.160000e+00
 SP5dh    C4  1 4.300000e-01    2.160000e+00
 SP6dh    C4  1 4.300000e-01    1.930000e+00
  SP6r    C4  1 4.300000e-01    1.930000e+00
  SP5r    C4  1 4.300000e-01    2.160000e+00
  SP4r    C4  1 4.300000e-01    2.160000e+00
  SP3r    C4  1 4.300000e-01    2.320000e+00
  SP2r    C4  1 4.300000e-01    2.320000e+00
  SP1r    C4  1 4.300000e-01    2.320000e+00
  SN6r    C4  1 4.300000e-01    2.530000e+00
  SN5r    C4  1 4.300000e-01    2.530000e+00
  SN4r    C4  1 4.300000e-01    2.770000e+00
  SN3r    C4  1 4.300000e-01    2.770000e+00
  SN2r    C4  1 4.300000e-01    2.770000e+00
  SN1r    C4  1 4.300000e-01    2.920000e+00
  SC6r    C4  1 4.300000e-01    2.920000e+00
  SC5r    C4  1 4.300000e-01    2.920000e+00
 SC5er    C4  1 4.300000e-01    3.160000e+00
 SC6er    C4  1 4.300000e-01    3.160000e+00
 SC5vr    C4  1 4.300000e-01    3.160000e+00
 SC6vr    C4  1 4.300000e-01    3.160000e+00
 SN1ar    C4  1 4.300000e-01    2.920000e+00
 SN2ar    C4  1 4.300000e-01    2.770000e+00
 SN3ar    C4  1 4.300000e-01    2.770000e+00
 SN4ar    C4  1 4.300000e-01    2.770000e+00
 SN5ar    C4  1 4.300000e-01    2.530000e+00
 SN6ar    C4  1 4.300000e-01    2.530000e+00
 SP1ar    C4  1 4.300000e-01    2.320000e+00
 SP2ar    C4  1 4.300000e-01    2.320000e+00
 SP3ar    C4  1 4.300000e-01    2.320000e+00
 SP4ar    C4  1 4.300000e-01    2.160000e+00
 SP5ar    C4  1 4.300000e-01    2.160000e+00
 SP6ar    C4  1 4.300000e-01    1.930000e+00
 SN1dr    C4  1 4.300000e-01    2.920000e+00
 SN2dr    C4  1 4.300000e-01    2.770000e+00
 SN3dr    C4  1 4.300000e-01    2.770000e+00
 SN4dr    C4  1 4.300000e-01    2.770000e+00
 SN5dr    C4  1 4.300000e-01    2.530000e+00
 SN6dr    C4  1 4.300000e-01    2.530000e+00
 SP1dr    C4  1 4.300000e-01    2.320000e+00
 SP2dr    C4  1 4.300000e-01    2.320000e+00
 SP3dr    C4  1 4.300000e-01    2.320000e+00
 SP4dr    C4  1 4.300000e-01    2.160000e+00
 SP5dr    C4  1 4.300000e-01    2.160000e+00
 SP6dr    C4  1 4.300000e-01    1.930000e+00
    C4   TC4  1 3.950000e-01    2.310000e+00
    C4   TC3  1 3.950000e-01    2.310000e+00
    C4   TC2  1 3.950000e-01    2.110000e+00
    C4   TC1  1 3.950000e-01    1.850000e+00
    C4   TX4  1 3.950000e-01    2.110000e+00
    C4   TX3  1 3.950000e-01    2.110000e+00
    C4   TX2  1 3.950000e-01    2.110000e+00
    C4   TX1  1 3.950000e-01    2.310000e+00
    C4  TC4v  1 3.950000e-01    2.500000e+00
    C4  TX1v  1 3.950000e-01    2.500000e+00
    C4  TX2v  1 3.950000e-01    2.310000e+00
    C4  TX3v  1 3.950000e-01    2.310000e+00
    C4  TX4v  1 3.950000e-01    2.310000e+00
    C4  TC1v  1 3.950000e-01    2.110000e+00
    C4  TC2v  1 3.950000e-01    2.310000e+00
    C4  TC3v  1 3.950000e-01    2.500000e+00
    C4  TC4e  1 3.950000e-01    2.500000e+00
    C4  TX1e  1 3.950000e-01    2.500000e+00
    C4  TX2e  1 3.950000e-01    2.310000e+00
    C4  TX3e  1 3.950000e-01    2.310000e+00
    C4  TX4e  1 3.950000e-01    2.310000e+00
    C4  TC1e  1 3.950000e-01    2.110000e+00
    C4  TC2e  1 3.950000e-01    2.310000e+00
    C4  TC3e  1 3.950000e-01    2.500000e+00
    C4  TC4q  1 3.950000e-01    2.700000e+00
    C4 TX1eq  1 3.950000e-01    2.940000e+00
    C4 TX2eq  1 3.950000e-01    2.700000e+00
    C4 TX3eq  1 3.950000e-01    2.700000e+00
    C4 TX4eq  1 3.950000e-01    2.700000e+00
    C4 TC1eq  1 3.950000e-01    2.500000e+00
    C4 TC2eq  1 3.950000e-01    2.700000e+00
    C4 TC3eq  1 3.950000e-01    2.940000e+00
    C4 TC4eq  1 3.950000e-01    2.940000e+00
    C4 TX1vq  1 3.950000e-01    2.940000e+00
    C4 TX2vq  1 3.950000e-01    2.700000e+00
    C4 TX3vq  1 3.950000e-01    2.700000e+00
    C4 TX4vq  1 3.950000e-01    2.700000e+00
    C4 TC1vq  1 3.950000e-01    2.500000e+00
    C4 TC2vq  1 3.950000e-01    2.700000e+00
    C4 TC3vq  1 3.950000e-01    2.940000e+00
    C4 TC4vq  1 3.950000e-01    2.940000e+00
    C4  TX1q  1 3.950000e-01    2.700000e+00
    C4  TX2q  1 3.950000e-01    2.500000e+00
    C4  TX3q  1 3.950000e-01    2.500000e+00
    C4  TX4q  1 3.950000e-01    2.500000e+00
    C4  TC1q  1 3.950000e-01    2.310000e+00
    C4  TC2q  1 3.950000e-01    2.500000e+00
    C4  TC3q  1 3.950000e-01    2.700000e+00
    C4  TC4h  1 3.950000e-01    2.310000e+00
    C4 TX1eh  1 3.950000e-01    2.500000e+00
    C4 TX2eh  1 3.950000e-01    2.310000e+00
    C4 TX3eh  1 3.950000e-01    2.310000e+00
    C4 TX4eh  1 3.950000e-01    2.310000e+00
    C4 TC1eh  1 3.950000e-01    2.110000e+00
    C4 TC2eh  1 3.950000e-01    2.310000e+00
    C4 TC3eh  1 3.950000e-01    2.500000e+00
    C4 TC4eh  1 3.950000e-01    2.500000e+00
    C4 TX1vh  1 3.950000e-01    2.500000e+00
    C4 TX2vh  1 3.950000e-01    2.310000e+00
    C4 TX3vh  1 3.950000e-01    2.310000e+00
    C4 TX4vh  1 3.950000e-01    2.310000e+00
    C4 TC1vh  1 3.950000e-01    2.110000e+00
    C4 TC2vh  1 3.950000e-01    2.310000e+00
    C4 TC3vh  1 3.950000e-01    2.500000e+00
    C4 TC4vh  1 3.950000e-01    2.500000e+00
    C4  TX1h  1 3.950000e-01    2.310000e+00
    C4  TX2h  1 3.950000e-01    2.110000e+00
    C4  TX3h  1 3.950000e-01    2.110000e+00
    C4  TX4h  1 3.950000e-01    2.110000e+00
    C4  TC1h  1 3.950000e-01    1.850000e+00
    C4  TC2h  1 3.950000e-01    2.110000e+00
    C4  TC3h  1 3.950000e-01    2.310000e+00
    C4  TC4r  1 3.950000e-01    2.310000e+00
    C4 TX1er  1 3.950000e-01    2.500000e+00
    C4 TX2er  1 3.950000e-01    2.310000e+00
    C4 TX3er  1 3.950000e-01    2.310000e+00
    C4 TX4er  1 3.950000e-01    2.310000e+00
    C4 TC1er  1 3.950000e-01    2.110000e+00
    C4 TC2er  1 3.950000e-01    2.310000e+00
    C4 TC3er  1 3.950000e-01    2.500000e+00
    C4 TC4er  1 3.950000e-01    2.500000e+00
    C4 TX1vr  1 3.950000e-01    2.500000e+00
    C4 TX2vr  1 3.950000e-01    2.310000e+00
    C4 TX3vr  1 3.950000e-01    2.310000e+00
    C4 TX4vr  1 3.950000e-01    2.310000e+00
    C4 TC1vr  1 3.950000e-01    2.110000e+00
    C4 TC2vr  1 3.950000e-01    2.310000e+00
    C4 TC3vr  1 3.950000e-01    2.500000e+00
    C4 TC4vr  1 3.950000e-01    2.500000e+00
    C4  TX1r  1 3.950000e-01    2.310000e+00
    C4  TX2r  1 3.950000e-01    2.110000e+00
    C4  TX3r  1 3.950000e-01    2.110000e+00
    C4  TX4r  1 3.950000e-01    2.110000e+00
    C4  TC1r  1 3.950000e-01    1.850000e+00
    C4  TC2r  1 3.950000e-01    2.110000e+00
    C4  TC3r  1 3.950000e-01    2.310000e+00
  TP6d    C4  1 3.990000e-01    1.180000e+00
  TP5d    C4  1 3.980000e-01    1.450000e+00
  TP4d    C4  1 3.980000e-01    1.450000e+00
  TP3d    C4  1 3.950000e-01    1.670000e+00
  TP2d    C4  1 3.950000e-01    1.670000e+00
  TP1d    C4  1 3.950000e-01    1.670000e+00
  TN6d    C4  1 3.950000e-01    1.850000e+00
  TN5d    C4  1 3.950000e-01    1.850000e+00
  TN4d    C4  1 3.950000e-01    2.110000e+00
  TN3d    C4  1 3.950000e-01    2.110000e+00
  TN2d    C4  1 3.950000e-01    2.110000e+00
  TN1d    C4  1 3.950000e-01    2.310000e+00
  TP6a    C4  1 3.990000e-01    1.180000e+00
  TP5a    C4  1 3.980000e-01    1.450000e+00
  TP4a    C4  1 3.980000e-01    1.450000e+00
  TP3a    C4  1 3.950000e-01    1.670000e+00
  TP2a    C4  1 3.950000e-01    1.670000e+00
  TP1a    C4  1 3.950000e-01    1.670000e+00
  TN6a    C4  1 3.950000e-01    1.850000e+00
  TN5a    C4  1 3.950000e-01    1.850000e+00
  TN4a    C4  1 3.950000e-01    2.110000e+00
  TN3a    C4  1 3.950000e-01    2.110000e+00
  TN2a    C4  1 3.950000e-01    2.110000e+00
  TN1a    C4  1 3.950000e-01    2.310000e+00
  TC6v    C4  1 3.950000e-01    2.500000e+00
  TC5v    C4  1 3.950000e-01    2.500000e+00
  TC6e    C4  1 3.950000e-01    2.500000e+00
  TC5e    C4  1 3.950000e-01    2.500000e+00
  TP6q    C4  1 3.950000e-01    1.670000e+00
  TP5q    C4  1 3.950000e-01    1.850000e+00
  TP4q    C4  1 3.950000e-01    1.850000e+00
  TP3q    C4  1 3.950000e-01    2.110000e+00
  TP2q    C4  1 3.950000e-01    2.110000e+00
  TP1q    C4  1 3.950000e-01    2.110000e+00
  TN6q    C4  1 3.950000e-01    2.310000e+00
  TN5q    C4  1 3.950000e-01    2.310000e+00
  TN4q    C4  1 3.950000e-01    2.500000e+00
  TN3q    C4  1 3.950000e-01    2.500000e+00
  TN2q    C4  1 3.950000e-01    2.500000e+00
  TN1q    C4  1 3.950000e-01    2.700000e+00
  TC6q    C4  1 3.950000e-01    2.700000e+00
  TC5q    C4  1 3.950000e-01    2.700000e+00
 TC5eq    C4  1 3.950000e-01    2.940000e+00
 TC6eq    C4  1 3.950000e-01    2.940000e+00
 TC5vq    C4  1 3.950000e-01    2.940000e+00
 TC6vq    C4  1 3.950000e-01    2.940000e+00
 TN1aq    C4  1 3.950000e-01    2.700000e+00
 TN2aq    C4  1 3.950000e-01    2.500000e+00
 TN3aq    C4  1 3.950000e-01    2.500000e+00
 TN4aq    C4  1 3.950000e-01    2.500000e+00
 TN5aq    C4  1 3.950000e-01    2.310000e+00
 TN6aq    C4  1 3.950000e-01    2.310000e+00
 TP1aq    C4  1 3.950000e-01    2.110000e+00
 TP2aq    C4  1 3.950000e-01    2.110000e+00
 TP3aq    C4  1 3.950000e-01    2.110000e+00
 TP4aq    C4  1 3.950000e-01    1.850000e+00
 TP5aq    C4  1 3.950000e-01    1.850000e+00
 TP6aq    C4  1 3.950000e-01    1.670000e+00
 TN1dq    C4  1 3.950000e-01    2.700000e+00
 TN2dq    C4  1 3.950000e-01    2.500000e+00
 TN3dq    C4  1 3.950000e-01    2.500000e+00
 TN4dq    C4  1 3.950000e-01    2.500000e+00
 TN5dq    C4  1 3.950000e-01    2.310000e+00
 TN6dq    C4  1 3.950000e-01    2.310000e+00
 TP1dq    C4  1 3.950000e-01    2.110000e+00
 TP2dq    C4  1 3.950000e-01    2.110000e+00
 TP3dq    C4  1 3.950000e-01    2.110000e+00
 TP4dq    C4  1 3.950000e-01    1.850000e+00
 TP5dq    C4  1 3.950000e-01    1.850000e+00
 TP6dq    C4  1 3.950000e-01    1.670000e+00
  TP6h    C4  1 3.990000e-01    1.180000e+00
  TP5h    C4  1 3.980000e-01    1.450000e+00
  TP4h    C4  1 3.980000e-01    1.450000e+00
  TP3h    C4  1 3.950000e-01    1.670000e+00
  TP2h    C4  1 3.950000e-01    1.670000e+00
  TP1h    C4  1 3.950000e-01    1.670000e+00
  TN6h    C4  1 3.950000e-01    1.850000e+00
  TN5h    C4  1 3.950000e-01    1.850000e+00
  TN4h    C4  1 3.950000e-01    2.110000e+00
  TN3h    C4  1 3.950000e-01    2.110000e+00
  TN2h    C4  1 3.950000e-01    2.110000e+00
  TN1h    C4  1 3.950000e-01    2.310000e+00
  TC6h    C4  1 3.950000e-01    2.310000e+00
  TC5h    C4  1 3.950000e-01    2.310000e+00
 TC5eh    C4  1 3.950000e-01    2.500000e+00
 TC6eh    C4  1 3.950000e-01    2.500000e+00
 TC5vh    C4  1 3.950000e-01    2.500000e+00
 TC6vh    C4  1 3.950000e-01    2.500000e+00
 TN1ah    C4  1 3.950000e-01    2.310000e+00
 TN2ah    C4  1 3.950000e-01    2.110000e+00
 TN3ah    C4  1 3.950000e-01    2.110000e+00
 TN4ah    C4  1 3.950000e-01    2.110000e+00
 TN5ah    C4  1 3.950000e-01    1.850000e+00
 TN6ah    C4  1 3.950000e-01    1.850000e+00
 TP1ah    C4  1 3.950000e-01    1.670000e+00
 TP2ah    C4  1 3.950000e-01    1.670000e+00
 TP3ah    C4  1 3.950000e-01    1.670000e+00
 TP4ah    C4  1 3.980000e-01    1.450000e+00
 TP5ah    C4  1 3.980000e-01    1.450000e+00
 TP6ah    C4  1 3.990000e-01    1.180000e+00
 TN1dh    C4  1 3.950000e-01    2.310000e+00
 TN2dh    C4  1 3.950000e-01    2.110000e+00
 TN3dh    C4  1 3.950000e-01    2.110000e+00
 TN4dh    C4  1 3.950000e-01    2.110000e+00
 TN5dh    C4  1 3.950000e-01    1.850000e+00
 TN6dh    C4  1 3.950000e-01    1.850000e+00
 TP1dh    C4  1 3.950000e-01    1.670000e+00
 TP2dh    C4  1 3.950000e-01    1.670000e+00
 TP3dh    C4  1 3.950000e-01    1.670000e+00
 TP4dh    C4  1 3.980000e-01    1.450000e+00
 TP5dh    C4  1 3.980000e-01    1.450000e+00
 TP6dh    C4  1 3.990000e-01    1.180000e+00
  TP6r    C4  1 3.990000e-01    1.180000e+00
  TP5r    C4  1 3.980000e-01    1.450000e+00
  TP4r    C4  1 3.980000e-01    1.450000e+00
  TP3r    C4  1 3.950000e-01    1.670000e+00
  TP2r    C4  1 3.950000e-01    1.670000e+00
  TP1r    C4  1 3.950000e-01    1.670000e+00
  TN6r    C4  1 3.950000e-01    1.850000e+00
  TN5r    C4  1 3.950000e-01    1.850000e+00
  TN4r    C4  1 3.950000e-01    2.110000e+00
  TN3r    C4  1 3.950000e-01    2.110000e+00
  TN2r    C4  1 3.950000e-01    2.110000e+00
  TN1r    C4  1 3.950000e-01    2.310000e+00
  TC6r    C4  1 3.950000e-01    2.310000e+00
  TC5r    C4  1 3.950000e-01    2.310000e+00
 TC5er    C4  1 3.950000e-01    2.500000e+00
 TC6er    C4  1 3.950000e-01    2.500000e+00
 TC5vr    C4  1 3.950000e-01    2.500000e+00
 TC6vr    C4  1 3.950000e-01    2.500000e+00
 TN1ar    C4  1 3.950000e-01    2.310000e+00
 TN2ar    C4  1 3.950000e-01    2.110000e+00
 TN3ar    C4  1 3.950000e-01    2.110000e+00
 TN4ar    C4  1 3.950000e-01    2.110000e+00
 TN5ar    C4  1 3.950000e-01    1.850000e+00
 TN6ar    C4  1 3.950000e-01    1.850000e+00
 TP1ar    C4  1 3.950000e-01    1.670000e+00
 TP2ar    C4  1 3.950000e-01    1.670000e+00
 TP3ar    C4  1 3.950000e-01    1.670000e+00
 TP4ar    C4  1 3.980000e-01    1.450000e+00
 TP5ar    C4  1 3.980000e-01    1.450000e+00
 TP6ar    C4  1 3.990000e-01    1.180000e+00
 TN1dr    C4  1 3.950000e-01    2.310000e+00
 TN2dr    C4  1 3.950000e-01    2.110000e+00
 TN3dr    C4  1 3.950000e-01    2.110000e+00
 TN4dr    C4  1 3.950000e-01    2.110000e+00
 TN5dr    C4  1 3.950000e-01    1.850000e+00
 TN6dr    C4  1 3.950000e-01    1.850000e+00
 TP1dr    C4  1 3.950000e-01    1.670000e+00
 TP2dr    C4  1 3.950000e-01    1.670000e+00
 TP3dr    C4  1 3.950000e-01    1.670000e+00
 TP4dr    C4  1 3.980000e-01    1.450000e+00
 TP5dr    C4  1 3.980000e-01    1.450000e+00
 TP6dr    C4  1 3.990000e-01    1.180000e+00
   P6d   SC4  1 4.300000e-01    1.930000e+00
   P5d   SC4  1 4.300000e-01    2.160000e+00
   P4d   SC4  1 4.300000e-01    2.160000e+00
   P3d   SC4  1 4.300000e-01    2.320000e+00
   P2d   SC4  1 4.300000e-01    2.320000e+00
   P1d   SC4  1 4.300000e-01    2.320000e+00
   N6d   SC4  1 4.300000e-01    2.530000e+00
   N5d   SC4  1 4.300000e-01    2.530000e+00
   N4d   SC4  1 4.300000e-01    2.770000e+00
   N3d   SC4  1 4.300000e-01    2.770000e+00
   N2d   SC4  1 4.300000e-01    2.770000e+00
   N1d   SC4  1 4.300000e-01    2.920000e+00
   P6a   SC4  1 4.300000e-01    1.930000e+00
   P5a   SC4  1 4.300000e-01    2.160000e+00
   P4a   SC4  1 4.300000e-01    2.160000e+00
   P3a   SC4  1 4.300000e-01    2.320000e+00
   P2a   SC4  1 4.300000e-01    2.320000e+00
   P1a   SC4  1 4.300000e-01    2.320000e+00
   N6a   SC4  1 4.300000e-01    2.530000e+00
   N5a   SC4  1 4.300000e-01    2.530000e+00
   N4a   SC4  1 4.300000e-01    2.770000e+00
   N3a   SC4  1 4.300000e-01    2.770000e+00
   N2a   SC4  1 4.300000e-01    2.770000e+00
   N1a   SC4  1 4.300000e-01    2.920000e+00
   C6v   SC4  1 4.300000e-01    3.160000e+00
   C5v   SC4  1 4.300000e-01    3.160000e+00
   C6e   SC4  1 4.300000e-01    3.160000e+00
   C5e   SC4  1 4.300000e-01    3.160000e+00
   P6q   SC4  1 4.300000e-01    2.320000e+00
   P5q   SC4  1 4.300000e-01    2.530000e+00
   P4q   SC4  1 4.300000e-01    2.530000e+00
   P3q   SC4  1 4.300000e-01    2.770000e+00
   P2q   SC4  1 4.300000e-01    2.770000e+00
   P1q   SC4  1 4.300000e-01    2.770000e+00
   N6q   SC4  1 4.300000e-01    2.920000e+00
   N5q   SC4  1 4.300000e-01    2.920000e+00
   N4q   SC4  1 4.300000e-01    3.160000e+00
   N3q   SC4  1 4.300000e-01    3.160000e+00
   N2q   SC4  1 4.300000e-01    3.160000e+00
   N1q   SC4  1 4.300000e-01    3.380000e+00
   C6q   SC4  1 4.300000e-01    3.380000e+00
   C5q   SC4  1 4.300000e-01    3.380000e+00
  C5eq   SC4  1 4.300000e-01    3.590000e+00
  C6eq   SC4  1 4.300000e-01    3.590000e+00
  C5vq   SC4  1 4.300000e-01    3.590000e+00
  C6vq   SC4  1 4.300000e-01    3.590000e+00
  N1aq   SC4  1 4.300000e-01    3.380000e+00
  N2aq   SC4  1 4.300000e-01    3.160000e+00
  N3aq   SC4  1 4.300000e-01    3.160000e+00
  N4aq   SC4  1 4.300000e-01    3.160000e+00
  N5aq   SC4  1 4.300000e-01    2.920000e+00
  N6aq   SC4  1 4.300000e-01    2.920000e+00
  P1aq   SC4  1 4.300000e-01    2.770000e+00
  P2aq   SC4  1 4.300000e-01    2.770000e+00
  P3aq   SC4  1 4.300000e-01    2.770000e+00
  P4aq   SC4  1 4.300000e-01    2.530000e+00
  P5aq   SC4  1 4.300000e-01    2.530000e+00
  P6aq   SC4  1 4.300000e-01    2.320000e+00
  N1dq   SC4  1 4.300000e-01    3.380000e+00
  N2dq   SC4  1 4.300000e-01    3.160000e+00
  N3dq   SC4  1 4.300000e-01    3.160000e+00
  N4dq   SC4  1 4.300000e-01    3.160000e+00
  N5dq   SC4  1 4.300000e-01    2.920000e+00
  N6dq   SC4  1 4.300000e-01    2.920000e+00
  P1dq   SC4  1 4.300000e-01    2.770000e+00
  P2dq   SC4  1 4.300000e-01    2.770000e+00
  P3dq   SC4  1 4.300000e-01    2.770000e+00
  P4dq   SC4  1 4.300000e-01    2.530000e+00
  P5dq   SC4  1 4.300000e-01    2.530000e+00
  P6dq   SC4  1 4.300000e-01    2.320000e+00
   P6h   SC4  1 4.300000e-01    1.930000e+00
   P5h   SC4  1 4.300000e-01    2.160000e+00
   P4h   SC4  1 4.300000e-01    2.160000e+00
   P3h   SC4  1 4.300000e-01    2.320000e+00
   P2h   SC4  1 4.300000e-01    2.320000e+00
   P1h   SC4  1 4.300000e-01    2.320000e+00
   N6h   SC4  1 4.300000e-01    2.530000e+00
   N5h   SC4  1 4.300000e-01    2.530000e+00
   N4h   SC4  1 4.300000e-01    2.770000e+00
   N3h   SC4  1 4.300000e-01    2.770000e+00
   N2h   SC4  1 4.300000e-01    2.770000e+00
   N1h   SC4  1 4.300000e-01    2.920000e+00
   C6h   SC4  1 4.300000e-01    2.920000e+00
   C5h   SC4  1 4.300000e-01    2.920000e+00
  C5eh   SC4  1 4.300000e-01    3.160000e+00
  C6eh   SC4  1 4.300000e-01    3.160000e+00
  C5vh   SC4  1 4.300000e-01    3.160000e+00
  C6vh   SC4  1 4.300000e-01    3.160000e+00
  N1ah   SC4  1 4.300000e-01    2.920000e+00
  N2ah   SC4  1 4.300000e-01    2.770000e+00
  N3ah   SC4  1 4.300000e-01    2.770000e+00
  N4ah   SC4  1 4.300000e-01    2.770000e+00
  N5ah   SC4  1 4.300000e-01    2.530000e+00
  N6ah   SC4  1 4.300000e-01    2.530000e+00
  P1ah   SC4  1 4.300000e-01    2.320000e+00
  P2ah   SC4  1 4.300000e-01    2.320000e+00
  P3ah   SC4  1 4.300000e-01    2.320000e+00
  P4ah   SC4  1 4.300000e-01    2.160000e+00
  P5ah   SC4  1 4.300000e-01    2.160000e+00
  P6ah   SC4  1 4.300000e-01    1.930000e+00
  N1dh   SC4  1 4.300000e-01    2.920000e+00
  N2dh   SC4  1 4.300000e-01    2.770000e+00
  N3dh   SC4  1 4.300000e-01    2.770000e+00
  N4dh   SC4  1 4.300000e-01    2.770000e+00
  N5dh   SC4  1 4.300000e-01    2.530000e+00
  N6dh   SC4  1 4.300000e-01    2.530000e+00
  P1dh   SC4  1 4.300000e-01    2.320000e+00
  P2dh   SC4  1 4.300000e-01    2.320000e+00
  P3dh   SC4  1 4.300000e-01    2.320000e+00
  P4dh   SC4  1 4.300000e-01    2.160000e+00
  P5dh   SC4  1 4.300000e-01    2.160000e+00
  P6dh   SC4  1 4.300000e-01    1.930000e+00
   P6r   SC4  1 4.300000e-01    1.930000e+00
   P5r   SC4  1 4.300000e-01    2.160000e+00
   P4r   SC4  1 4.300000e-01    2.160000e+00
   P3r   SC4  1 4.300000e-01    2.320000e+00
   P2r   SC4  1 4.300000e-01    2.320000e+00
   P1r   SC4  1 4.300000e-01    2.320000e+00
   N6r   SC4  1 4.300000e-01    2.530000e+00
   N5r   SC4  1 4.300000e-01    2.530000e+00
   N4r   SC4  1 4.300000e-01    2.770000e+00
   N3r   SC4  1 4.300000e-01    2.770000e+00
   N2r   SC4  1 4.300000e-01    2.770000e+00
   N1r   SC4  1 4.300000e-01    2.920000e+00
   C6r   SC4  1 4.300000e-01    2.920000e+00
   C5r   SC4  1 4.300000e-01    2.920000e+00
  C5er   SC4  1 4.300000e-01    3.160000e+00
  C6er   SC4  1 4.300000e-01    3.160000e+00
  C5vr   SC4  1 4.300000e-01    3.160000e+00
  C6vr   SC4  1 4.300000e-01    3.160000e+00
  N1ar   SC4  1 4.300000e-01    2.920000e+00
  N2ar   SC4  1 4.300000e-01    2.770000e+00
  N3ar   SC4  1 4.300000e-01    2.770000e+00
  N4ar   SC4  1 4.300000e-01    2.770000e+00
  N5ar   SC4  1 4.300000e-01    2.530000e+00
  N6ar   SC4  1 4.300000e-01    2.530000e+00
  P1ar   SC4  1 4.300000e-01    2.320000e+00
  P2ar   SC4  1 4.300000e-01    2.320000e+00
  P3ar   SC4  1 4.300000e-01    2.320000e+00
  P4ar   SC4  1 4.300000e-01    2.160000e+00
  P5ar   SC4  1 4.300000e-01    2.160000e+00
  P6ar   SC4  1 4.300000e-01    1.930000e+00
  N1dr   SC4  1 4.300000e-01    2.920000e+00
  N2dr   SC4  1 4.300000e-01    2.770000e+00
  N3dr   SC4  1 4.300000e-01    2.770000e+00
  N4dr   SC4  1 4.300000e-01    2.770000e+00
  N5dr   SC4  1 4.300000e-01    2.530000e+00
  N6dr   SC4  1 4.300000e-01    2.530000e+00
  P1dr   SC4  1 4.300000e-01    2.320000e+00
  P2dr   SC4  1 4.300000e-01    2.320000e+00
  P3dr   SC4  1 4.300000e-01    2.320000e+00
  P4dr   SC4  1 4.300000e-01    2.160000e+00
  P5dr   SC4  1 4.300000e-01    2.160000e+00
  P6dr   SC4  1 4.300000e-01    1.930000e+00
   SC4    C3  1 4.300000e-01    2.920000e+00
   SC4    C2  1 4.300000e-01    2.770000e+00
   SC4    C1  1 4.300000e-01    2.530000e+00
   SC4    X4  1 4.300000e-01    2.770000e+00
   SC4    X3  1 4.300000e-01    2.770000e+00
   SC4    X2  1 4.300000e-01    2.770000e+00
   SC4    X1  1 4.300000e-01    2.920000e+00
   SC4   C4v  1 4.300000e-01    3.160000e+00
   SC4   X1v  1 4.300000e-01    3.160000e+00
   SC4   X2v  1 4.300000e-01    2.920000e+00
   SC4   X3v  1 4.300000e-01    2.920000e+00
   SC4   X4v  1 4.300000e-01    2.920000e+00
   SC4   C1v  1 4.300000e-01    2.770000e+00
   SC4   C2v  1 4.300000e-01    2.920000e+00
   SC4   C3v  1 4.300000e-01    3.160000e+00
   SC4   C4e  1 4.300000e-01    3.160000e+00
   SC4   X1e  1 4.300000e-01    3.160000e+00
   SC4   X2e  1 4.300000e-01    2.920000e+00
   SC4   X3e  1 4.300000e-01    2.920000e+00
   SC4   X4e  1 4.300000e-01    2.920000e+00
   SC4   C1e  1 4.300000e-01    2.770000e+00
   SC4   C2e  1 4.300000e-01    2.920000e+00
   SC4   C3e  1 4.300000e-01    3.160000e+00
   SC4   C4q  1 4.300000e-01    3.380000e+00
   SC4  X1eq  1 4.300000e-01    3.590000e+00
   SC4  X2eq  1 4.300000e-01    3.380000e+00
   SC4  X3eq  1 4.300000e-01    3.380000e+00
   SC4  X4eq  1 4.300000e-01    3.380000e+00
   SC4  C1eq  1 4.300000e-01    3.160000e+00
   SC4  C2eq  1 4.300000e-01    3.380000e+00
   SC4  C3eq  1 4.300000e-01    3.590000e+00
   SC4  C4eq  1 4.300000e-01    3.590000e+00
   SC4  X1vq  1 4.300000e-01    3.590000e+00
   SC4  X2vq  1 4.300000e-01    3.380000e+00
   SC4  X3vq  1 4.300000e-01    3.380000e+00
   SC4  X4vq  1 4.300000e-01    3.380000e+00
   SC4  C1vq  1 4.300000e-01    3.160000e+00
   SC4  C2vq  1 4.300000e-01    3.380000e+00
   SC4  C3vq  1 4.300000e-01    3.590000e+00
   SC4  C4vq  1 4.300000e-01    3.590000e+00
   SC4   X1q  1 4.300000e-01    3.380000e+00
   SC4   X2q  1 4.300000e-01    3.160000e+00
   SC4   X3q  1 4.300000e-01    3.160000e+00
   SC4   X4q  1 4.300000e-01    3.160000e+00
   SC4   C1q  1 4.300000e-01    2.920000e+00
   SC4   C2q  1 4.300000e-01    3.160000e+00
   SC4   C3q  1 4.300000e-01    3.380000e+00
   SC4   C4h  1 4.300000e-01    2.920000e+00
   SC4  X1eh  1 4.300000e-01    3.160000e+00
   SC4  X2eh  1 4.300000e-01    2.920000e+00
   SC4  X3eh  1 4.300000e-01    2.920000e+00
   SC4  X4eh  1 4.300000e-01    2.920000e+00
   SC4  C1eh  1 4.300000e-01    2.770000e+00
   SC4  C2eh  1 4.300000e-01    2.920000e+00
   SC4  C3eh  1 4.300000e-01    3.160000e+00
   SC4  C4eh  1 4.300000e-01    3.160000e+00
   SC4  X1vh  1 4.300000e-01    3.160000e+00
   SC4  X2vh  1 4.300000e-01    2.920000e+00
   SC4  X3vh  1 4.300000e-01    2.920000e+00
   SC4  X4vh  1 4.300000e-01    2.920000e+00
   SC4  C1vh  1 4.300000e-01    2.770000e+00
   SC4  C2vh  1 4.300000e-01    2.920000e+00
   SC4  C3vh  1 4.300000e-01    3.160000e+00
   SC4  C4vh  1 4.300000e-01    3.160000e+00
   SC4   X1h  1 4.300000e-01    2.920000e+00
   SC4   X2h  1 4.300000e-01    2.770000e+00
   SC4   X3h  1 4.300000e-01    2.770000e+00
   SC4   X4h  1 4.300000e-01    2.770000e+00
   SC4   C1h  1 4.300000e-01    2.530000e+00
   SC4   C2h  1 4.300000e-01    2.770000e+00
   SC4   C3h  1 4.300000e-01    2.920000e+00
   SC4   C4r  1 4.300000e-01    2.920000e+00
   SC4  X1er  1 4.300000e-01    3.160000e+00
   SC4  X2er  1 4.300000e-01    2.920000e+00
   SC4  X3er  1 4.300000e-01    2.920000e+00
   SC4  X4er  1 4.300000e-01    2.920000e+00
   SC4  C1er  1 4.300000e-01    2.770000e+00
   SC4  C2er  1 4.300000e-01    2.920000e+00
   SC4  C3er  1 4.300000e-01    3.160000e+00
   SC4  C4er  1 4.300000e-01    3.160000e+00
   SC4  X1vr  1 4.300000e-01    3.160000e+00
   SC4  X2vr  1 4.300000e-01    2.920000e+00
   SC4  X3vr  1 4.300000e-01    2.920000e+00
   SC4  X4vr  1 4.300000e-01    2.920000e+00
   SC4  C1vr  1 4.300000e-01    2.770000e+00
   SC4  C2vr  1 4.300000e-01    2.920000e+00
   SC4  C3vr  1 4.300000e-01    3.160000e+00
   SC4  C4vr  1 4.300000e-01    3.160000e+00
   SC4   X1r  1 4.300000e-01    2.920000e+00
   SC4   X2r  1 4.300000e-01    2.770000e+00
   SC4   X3r  1 4.300000e-01    2.770000e+00
   SC4   X4r  1 4.300000e-01    2.770000e+00
   SC4   C1r  1 4.300000e-01    2.530000e+00
   SC4   C2r  1 4.300000e-01    2.770000e+00
   SC4   C3r  1 4.300000e-01    2.920000e+00
   SC4   SC4  1 4.100000e-01    2.350000e+00
   SC4   SC3  1 4.100000e-01    2.350000e+00
   SC4   SC2  1 4.100000e-01    2.200000e+00
   SC4   SC1  1 4.100000e-01    2.040000e+00
   SC4   SX4  1 4.100000e-01    2.200000e+00
   SC4   SX3  1 4.100000e-01    2.200000e+00
   SC4   SX2  1 4.100000e-01    2.200000e+00
   SC4   SX1  1 4.100000e-01    2.350000e+00
  SP6d   SC4  1 4.140000e-01    1.560000e+00
  SP5d   SC4  1 4.100000e-01    1.750000e+00
  SP4d   SC4  1 4.100000e-01    1.750000e+00
  SP3d   SC4  1 4.100000e-01    1.910000e+00
  SP2d   SC4  1 4.100000e-01    1.910000e+00
  SP1d   SC4  1 4.100000e-01    1.910000e+00
  SN6d   SC4  1 4.100000e-01    2.040000e+00
  SN5d   SC4  1 4.100000e-01    2.040000e+00
  SN4d   SC4  1 4.100000e-01    2.200000e+00
  SN3d   SC4  1 4.100000e-01    2.200000e+00
  SN2d   SC4  1 4.100000e-01    2.200000e+00
  SN1d   SC4  1 4.100000e-01    2.350000e+00
  SP6a   SC4  1 4.140000e-01    1.560000e+00
  SP5a   SC4  1 4.100000e-01    1.750000e+00
  SP4a   SC4  1 4.100000e-01    1.750000e+00
  SP3a   SC4  1 4.100000e-01    1.910000e+00
  SP2a   SC4  1 4.100000e-01    1.910000e+00
  SP1a   SC4  1 4.100000e-01    1.910000e+00
  SN6a   SC4  1 4.100000e-01    2.040000e+00
  SN5a   SC4  1 4.100000e-01    2.040000e+00
  SN4a   SC4  1 4.100000e-01    2.200000e+00
  SN3a   SC4  1 4.100000e-01    2.200000e+00
  SN2a   SC4  1 4.100000e-01    2.200000e+00
  SN1a   SC4  1 4.100000e-01    2.350000e+00
  SC6v   SC4  1 4.100000e-01    2.600000e+00
  SC5v   SC4  1 4.100000e-01    2.600000e+00
   SC4  SC4v  1 4.100000e-01    2.600000e+00
   SC4  SX1v  1 4.100000e-01    2.600000e+00
   SC4  SX2v  1 4.100000e-01    2.350000e+00
   SC4  SX3v  1 4.100000e-01    2.350000e+00
   SC4  SX4v  1 4.100000e-01    2.350000e+00
   SC4  SC1v  1 4.100000e-01    2.200000e+00
   SC4  SC2v  1 4.100000e-01    2.350000e+00
   SC4  SC3v  1 4.100000e-01    2.600000e+00
  SC6e   SC4  1 4.100000e-01    2.600000e+00
  SC5e   SC4  1 4.100000e-01    2.600000e+00
   SC4  SC4e  1 4.100000e-01    2.600000e+00
   SC4  SX1e  1 4.100000e-01    2.600000e+00
   SC4  SX2e  1 4.100000e-01    2.350000e+00
   SC4  SX3e  1 4.100000e-01    2.350000e+00
   SC4  SX4e  1 4.100000e-01    2.350000e+00
   SC4  SC1e  1 4.100000e-01    2.200000e+00
   SC4  SC2e  1 4.100000e-01    2.350000e+00
   SC4  SC3e  1 4.100000e-01    2.600000e+00
  SP6q   SC4  1 4.100000e-01    1.910000e+00
  SP5q   SC4  1 4.100000e-01    2.040000e+00
  SP4q   SC4  1 4.100000e-01    2.040000e+00
  SP3q   SC4  1 4.100000e-01    2.200000e+00
  SP2q   SC4  1 4.100000e-01    2.200000e+00
  SP1q   SC4  1 4.100000e-01    2.200000e+00
  SN6q   SC4  1 4.100000e-01    2.350000e+00
  SN5q   SC4  1 4.100000e-01    2.350000e+00
  SN4q   SC4  1 4.100000e-01    2.600000e+00
  SN3q   SC4  1 4.100000e-01    2.600000e+00
  SN2q   SC4  1 4.100000e-01    2.600000e+00
  SN1q   SC4  1 4.100000e-01    2.840000e+00
  SC6q   SC4  1 4.100000e-01    2.840000e+00
  SC5q   SC4  1 4.100000e-01    2.840000e+00
   SC4  SC4q  1 4.100000e-01    2.840000e+00
   SC4 SX1eq  1 4.100000e-01    3.070000e+00
   SC4 SX2eq  1 4.100000e-01    2.840000e+00
   SC4 SX3eq  1 4.100000e-01    2.840000e+00
   SC4 SX4eq  1 4.100000e-01    2.840000e+00
   SC4 SC1eq  1 4.100000e-01    2.600000e+00
   SC4 SC2eq  1 4.100000e-01    2.840000e+00
   SC4 SC3eq  1 4.100000e-01    3.070000e+00
   SC4 SC4eq  1 4.100000e-01    3.070000e+00
 SC5eq   SC4  1 4.100000e-01    3.070000e+00
 SC6eq   SC4  1 4.100000e-01    3.070000e+00
   SC4 SX1vq  1 4.100000e-01    3.070000e+00
   SC4 SX2vq  1 4.100000e-01    2.840000e+00
   SC4 SX3vq  1 4.100000e-01    2.840000e+00
   SC4 SX4vq  1 4.100000e-01    2.840000e+00
   SC4 SC1vq  1 4.100000e-01    2.600000e+00
   SC4 SC2vq  1 4.100000e-01    2.840000e+00
   SC4 SC3vq  1 4.100000e-01    3.070000e+00
   SC4 SC4vq  1 4.100000e-01    3.070000e+00
 SC5vq   SC4  1 4.100000e-01    3.070000e+00
 SC6vq   SC4  1 4.100000e-01    3.070000e+00
 SN1aq   SC4  1 4.100000e-01    2.840000e+00
 SN2aq   SC4  1 4.100000e-01    2.600000e+00
 SN3aq   SC4  1 4.100000e-01    2.600000e+00
 SN4aq   SC4  1 4.100000e-01    2.600000e+00
 SN5aq   SC4  1 4.100000e-01    2.350000e+00
 SN6aq   SC4  1 4.100000e-01    2.350000e+00
 SP1aq   SC4  1 4.100000e-01    2.200000e+00
 SP2aq   SC4  1 4.100000e-01    2.200000e+00
 SP3aq   SC4  1 4.100000e-01    2.200000e+00
 SP4aq   SC4  1 4.100000e-01    2.040000e+00
 SP5aq   SC4  1 4.100000e-01    2.040000e+00
 SP6aq   SC4  1 4.100000e-01    1.910000e+00
 SN1dq   SC4  1 4.100000e-01    2.840000e+00
 SN2dq   SC4  1 4.100000e-01    2.600000e+00
 SN3dq   SC4  1 4.100000e-01    2.600000e+00
 SN4dq   SC4  1 4.100000e-01    2.600000e+00
 SN5dq   SC4  1 4.100000e-01    2.350000e+00
 SN6dq   SC4  1 4.100000e-01    2.350000e+00
 SP1dq   SC4  1 4.100000e-01    2.200000e+00
 SP2dq   SC4  1 4.100000e-01    2.200000e+00
 SP3dq   SC4  1 4.100000e-01    2.200000e+00
 SP4dq   SC4  1 4.100000e-01    2.040000e+00
 SP5dq   SC4  1 4.100000e-01    2.040000e+00
 SP6dq   SC4  1 4.100000e-01    1.910000e+00
   SC4  SX1q  1 4.100000e-01    2.840000e+00
   SC4  SX2q  1 4.100000e-01    2.600000e+00
   SC4  SX3q  1 4.100000e-01    2.600000e+00
   SC4  SX4q  1 4.100000e-01    2.600000e+00
   SC4  SC1q  1 4.100000e-01    2.350000e+00
   SC4  SC2q  1 4.100000e-01    2.600000e+00
   SC4  SC3q  1 4.100000e-01    2.840000e+00
  SP6h   SC4  1 4.140000e-01    1.560000e+00
  SP5h   SC4  1 4.100000e-01    1.750000e+00
  SP4h   SC4  1 4.100000e-01    1.750000e+00
  SP3h   SC4  1 4.100000e-01    1.910000e+00
  SP2h   SC4  1 4.100000e-01    1.910000e+00
  SP1h   SC4  1 4.100000e-01    1.910000e+00
  SN6h   SC4  1 4.100000e-01    2.040000e+00
  SN5h   SC4  1 4.100000e-01    2.040000e+00
  SN4h   SC4  1 4.100000e-01    2.200000e+00
  SN3h   SC4  1 4.100000e-01    2.200000e+00
  SN2h   SC4  1 4.100000e-01    2.200000e+00
  SN1h   SC4  1 4.100000e-01    2.350000e+00
  SC6h   SC4  1 4.100000e-01    2.350000e+00
  SC5h   SC4  1 4.100000e-01    2.350000e+00
   SC4  SC4h  1 4.100000e-01    2.350000e+00
   SC4 SX1eh  1 4.100000e-01    2.600000e+00
   SC4 SX2eh  1 4.100000e-01    2.350000e+00
   SC4 SX3eh  1 4.100000e-01    2.350000e+00
   SC4 SX4eh  1 4.100000e-01    2.350000e+00
   SC4 SC1eh  1 4.100000e-01    2.200000e+00
   SC4 SC2eh  1 4.100000e-01    2.350000e+00
   SC4 SC3eh  1 4.100000e-01    2.600000e+00
   SC4 SC4eh  1 4.100000e-01    2.600000e+00
 SC5eh   SC4  1 4.100000e-01    2.600000e+00
 SC6eh   SC4  1 4.100000e-01    2.600000e+00
   SC4 SX1vh  1 4.100000e-01    2.600000e+00
   SC4 SX2vh  1 4.100000e-01    2.350000e+00
   SC4 SX3vh  1 4.100000e-01    2.350000e+00
   SC4 SX4vh  1 4.100000e-01    2.350000e+00
   SC4 SC1vh  1 4.100000e-01    2.200000e+00
   SC4 SC2vh  1 4.100000e-01    2.350000e+00
   SC4 SC3vh  1 4.100000e-01    2.600000e+00
   SC4 SC4vh  1 4.100000e-01    2.600000e+00
 SC5vh   SC4  1 4.100000e-01    2.600000e+00
 SC6vh   SC4  1 4.100000e-01    2.600000e+00
 SN1ah   SC4  1 4.100000e-01    2.350000e+00
 SN2ah   SC4  1 4.100000e-01    2.200000e+00
 SN3ah   SC4  1 4.100000e-01    2.200000e+00
 SN4ah   SC4  1 4.100000e-01    2.200000e+00
 SN5ah   SC4  1 4.100000e-01    2.040000e+00
 SN6ah   SC4  1 4.100000e-01    2.040000e+00
 SP1ah   SC4  1 4.100000e-01    1.910000e+00
 SP2ah   SC4  1 4.100000e-01    1.910000e+00
 SP3ah   SC4  1 4.100000e-01    1.910000e+00
 SP4ah   SC4  1 4.100000e-01    1.750000e+00
 SP5ah   SC4  1 4.100000e-01    1.750000e+00
 SP6ah   SC4  1 4.140000e-01    1.560000e+00
 SN1dh   SC4  1 4.100000e-01    2.350000e+00
 SN2dh   SC4  1 4.100000e-01    2.200000e+00
 SN3dh   SC4  1 4.100000e-01    2.200000e+00
 SN4dh   SC4  1 4.100000e-01    2.200000e+00
 SN5dh   SC4  1 4.100000e-01    2.040000e+00
 SN6dh   SC4  1 4.100000e-01    2.040000e+00
 SP1dh   SC4  1 4.100000e-01    1.910000e+00
 SP2dh   SC4  1 4.100000e-01    1.910000e+00
 SP3dh   SC4  1 4.100000e-01    1.910000e+00
 SP4dh   SC4  1 4.100000e-01    1.750000e+00
 SP5dh   SC4  1 4.100000e-01    1.750000e+00
 SP6dh   SC4  1 4.140000e-01    1.560000e+00
   SC4  SX1h  1 4.100000e-01    2.350000e+00
   SC4  SX2h  1 4.100000e-01    2.200000e+00
   SC4  SX3h  1 4.100000e-01    2.200000e+00
   SC4  SX4h  1 4.100000e-01    2.200000e+00
   SC4  SC1h  1 4.100000e-01    2.040000e+00
   SC4  SC2h  1 4.100000e-01    2.200000e+00
   SC4  SC3h  1 4.100000e-01    2.350000e+00
  SP6r   SC4  1 4.140000e-01    1.560000e+00
  SP5r   SC4  1 4.100000e-01    1.750000e+00
  SP4r   SC4  1 4.100000e-01    1.750000e+00
  SP3r   SC4  1 4.100000e-01    1.910000e+00
  SP2r   SC4  1 4.100000e-01    1.910000e+00
  SP1r   SC4  1 4.100000e-01    1.910000e+00
  SN6r   SC4  1 4.100000e-01    2.040000e+00
  SN5r   SC4  1 4.100000e-01    2.040000e+00
  SN4r   SC4  1 4.100000e-01    2.200000e+00
  SN3r   SC4  1 4.100000e-01    2.200000e+00
  SN2r   SC4  1 4.100000e-01    2.200000e+00
  SN1r   SC4  1 4.100000e-01    2.350000e+00
  SC6r   SC4  1 4.100000e-01    2.350000e+00
  SC5r   SC4  1 4.100000e-01    2.350000e+00
   SC4  SC4r  1 4.100000e-01    2.350000e+00
   SC4 SX1er  1 4.100000e-01    2.600000e+00
   SC4 SX2er  1 4.100000e-01    2.350000e+00
   SC4 SX3er  1 4.100000e-01    2.350000e+00
   SC4 SX4er  1 4.100000e-01    2.350000e+00
   SC4 SC1er  1 4.100000e-01    2.200000e+00
   SC4 SC2er  1 4.100000e-01    2.350000e+00
   SC4 SC3er  1 4.100000e-01    2.600000e+00
   SC4 SC4er  1 4.100000e-01    2.600000e+00
 SC5er   SC4  1 4.100000e-01    2.600000e+00
 SC6er   SC4  1 4.100000e-01    2.600000e+00
   SC4 SX1vr  1 4.100000e-01    2.600000e+00
   SC4 SX2vr  1 4.100000e-01    2.350000e+00
   SC4 SX3vr  1 4.100000e-01    2.350000e+00
   SC4 SX4vr  1 4.100000e-01    2.350000e+00
   SC4 SC1vr  1 4.100000e-01    2.200000e+00
   SC4 SC2vr  1 4.100000e-01    2.350000e+00
   SC4 SC3vr  1 4.100000e-01    2.600000e+00
   SC4 SC4vr  1 4.100000e-01    2.600000e+00
 SC5vr   SC4  1 4.100000e-01    2.600000e+00
 SC6vr   SC4  1 4.100000e-01    2.600000e+00
 SN1ar   SC4  1 4.100000e-01    2.350000e+00
 SN2ar   SC4  1 4.100000e-01    2.200000e+00
 SN3ar   SC4  1 4.100000e-01    2.200000e+00
 SN4ar   SC4  1 4.100000e-01    2.200000e+00
 SN5ar   SC4  1 4.100000e-01    2.040000e+00
 SN6ar   SC4  1 4.100000e-01    2.040000e+00
 SP1ar   SC4  1 4.100000e-01    1.910000e+00
 SP2ar   SC4  1 4.100000e-01    1.910000e+00
 SP3ar   SC4  1 4.100000e-01    1.910000e+00
 SP4ar   SC4  1 4.100000e-01    1.750000e+00
 SP5ar   SC4  1 4.100000e-01    1.750000e+00
 SP6ar   SC4  1 4.140000e-01    1.560000e+00
 SN1dr   SC4  1 4.100000e-01    2.350000e+00
 SN2dr   SC4  1 4.100000e-01    2.200000e+00
 SN3dr   SC4  1 4.100000e-01    2.200000e+00
 SN4dr   SC4  1 4.100000e-01    2.200000e+00
 SN5dr   SC4  1 4.100000e-01    2.040000e+00
 SN6dr   SC4  1 4.100000e-01    2.040000e+00
 SP1dr   SC4  1 4.100000e-01    1.910000e+00
 SP2dr   SC4  1 4.100000e-01    1.910000e+00
 SP3dr   SC4  1 4.100000e-01    1.910000e+00
 SP4dr   SC4  1 4.100000e-01    1.750000e+00
 SP5dr   SC4  1 4.100000e-01    1.750000e+00
 SP6dr   SC4  1 4.140000e-01    1.560000e+00
   SC4  SX1r  1 4.100000e-01    2.350000e+00
   SC4  SX2r  1 4.100000e-01    2.200000e+00
   SC4  SX3r  1 4.100000e-01    2.200000e+00
   SC4  SX4r  1 4.100000e-01    2.200000e+00
   SC4  SC1r  1 4.100000e-01    2.040000e+00
   SC4  SC2r  1 4.100000e-01    2.200000e+00
   SC4  SC3r  1 4.100000e-01    2.350000e+00
   SC4   TC4  1 3.650000e-01    1.910000e+00
   SC4   TC3  1 3.650000e-01    1.910000e+00
   SC4   TC2  1 3.650000e-01    1.750000e+00
   SC4   TC1  1 3.660000e-01    1.600000e+00
   SC4   TX4  1 3.650000e-01    1.750000e+00
   SC4   TX3  1 3.650000e-01    1.750000e+00
   SC4   TX2  1 3.650000e-01    1.750000e+00
   SC4   TX1  1 3.650000e-01    1.910000e+00
   SC4  TC4v  1 3.650000e-01    2.110000e+00
   SC4  TX1v  1 3.650000e-01    2.110000e+00
   SC4  TX2v  1 3.650000e-01    1.910000e+00
   SC4  TX3v  1 3.650000e-01    1.910000e+00
   SC4  TX4v  1 3.650000e-01    1.910000e+00
   SC4  TC1v  1 3.650000e-01    1.750000e+00
   SC4  TC2v  1 3.650000e-01    1.910000e+00
   SC4  TC3v  1 3.650000e-01    2.110000e+00
   SC4  TC4e  1 3.650000e-01    2.110000e+00
   SC4  TX1e  1 3.650000e-01    2.110000e+00
   SC4  TX2e  1 3.650000e-01    1.910000e+00
   SC4  TX3e  1 3.650000e-01    1.910000e+00
   SC4  TX4e  1 3.650000e-01    1.910000e+00
   SC4  TC1e  1 3.650000e-01    1.750000e+00
   SC4  TC2e  1 3.650000e-01    1.910000e+00
   SC4  TC3e  1 3.650000e-01    2.110000e+00
   SC4  TC4q  1 3.650000e-01    2.340000e+00
   SC4 TX1eq  1 3.650000e-01    2.570000e+00
   SC4 TX2eq  1 3.650000e-01    2.340000e+00
   SC4 TX3eq  1 3.650000e-01    2.340000e+00
   SC4 TX4eq  1 3.650000e-01    2.340000e+00
   SC4 TC1eq  1 3.650000e-01    2.110000e+00
   SC4 TC2eq  1 3.650000e-01    2.340000e+00
   SC4 TC3eq  1 3.650000e-01    2.570000e+00
   SC4 TC4eq  1 3.650000e-01    2.570000e+00
   SC4 TX1vq  1 3.650000e-01    2.570000e+00
   SC4 TX2vq  1 3.650000e-01    2.340000e+00
   SC4 TX3vq  1 3.650000e-01    2.340000e+00
   SC4 TX4vq  1 3.650000e-01    2.340000e+00
   SC4 TC1vq  1 3.650000e-01    2.110000e+00
   SC4 TC2vq  1 3.650000e-01    2.340000e+00
   SC4 TC3vq  1 3.650000e-01    2.570000e+00
   SC4 TC4vq  1 3.650000e-01    2.570000e+00
   SC4  TX1q  1 3.650000e-01    2.340000e+00
   SC4  TX2q  1 3.650000e-01    2.110000e+00
   SC4  TX3q  1 3.650000e-01    2.110000e+00
   SC4  TX4q  1 3.650000e-01    2.110000e+00
   SC4  TC1q  1 3.650000e-01    1.910000e+00
   SC4  TC2q  1 3.650000e-01    2.110000e+00
   SC4  TC3q  1 3.650000e-01    2.340000e+00
   SC4  TC4h  1 3.650000e-01    1.910000e+00
   SC4 TX1eh  1 3.650000e-01    2.110000e+00
   SC4 TX2eh  1 3.650000e-01    1.910000e+00
   SC4 TX3eh  1 3.650000e-01    1.910000e+00
   SC4 TX4eh  1 3.650000e-01    1.910000e+00
   SC4 TC1eh  1 3.650000e-01    1.750000e+00
   SC4 TC2eh  1 3.650000e-01    1.910000e+00
   SC4 TC3eh  1 3.650000e-01    2.110000e+00
   SC4 TC4eh  1 3.650000e-01    2.110000e+00
   SC4 TX1vh  1 3.650000e-01    2.110000e+00
   SC4 TX2vh  1 3.650000e-01    1.910000e+00
   SC4 TX3vh  1 3.650000e-01    1.910000e+00
   SC4 TX4vh  1 3.650000e-01    1.910000e+00
   SC4 TC1vh  1 3.650000e-01    1.750000e+00
   SC4 TC2vh  1 3.650000e-01    1.910000e+00
   SC4 TC3vh  1 3.650000e-01    2.110000e+00
   SC4 TC4vh  1 3.650000e-01    2.110000e+00
   SC4  TX1h  1 3.650000e-01    1.910000e+00
   SC4  TX2h  1 3.650000e-01    1.750000e+00
   SC4  TX3h  1 3.650000e-01    1.750000e+00
   SC4  TX4h  1 3.650000e-01    1.750000e+00
   SC4  TC1h  1 3.660000e-01    1.600000e+00
   SC4  TC2h  1 3.650000e-01    1.750000e+00
   SC4  TC3h  1 3.650000e-01    1.910000e+00
   SC4  TC4r  1 3.650000e-01    1.910000e+00
   SC4 TX1er  1 3.650000e-01    2.110000e+00
   SC4 TX2er  1 3.650000e-01    1.910000e+00
   SC4 TX3er  1 3.650000e-01    1.910000e+00
   SC4 TX4er  1 3.650000e-01    1.910000e+00
   SC4 TC1er  1 3.650000e-01    1.750000e+00
   SC4 TC2er  1 3.650000e-01    1.910000e+00
   SC4 TC3er  1 3.650000e-01    2.110000e+00
   SC4 TC4er  1 3.650000e-01    2.110000e+00
   SC4 TX1vr  1 3.650000e-01    2.110000e+00
   SC4 TX2vr  1 3.650000e-01    1.910000e+00
   SC4 TX3vr  1 3.650000e-01    1.910000e+00
   SC4 TX4vr  1 3.650000e-01    1.910000e+00
   SC4 TC1vr  1 3.650000e-01    1.750000e+00
   SC4 TC2vr  1 3.650000e-01    1.910000e+00
   SC4 TC3vr  1 3.650000e-01    2.110000e+00
   SC4 TC4vr  1 3.650000e-01    2.110000e+00
   SC4  TX1r  1 3.650000e-01    1.910000e+00
   SC4  TX2r  1 3.650000e-01    1.750000e+00
   SC4  TX3r  1 3.650000e-01    1.750000e+00
   SC4  TX4r  1 3.650000e-01    1.750000e+00
   SC4  TC1r  1 3.660000e-01    1.600000e+00
   SC4  TC2r  1 3.650000e-01    1.750000e+00
   SC4  TC3r  1 3.650000e-01    1.910000e+00
  TP6d   SC4  1 4.040000e-01    1.130000e+00
  TP5d   SC4  1 3.940000e-01    1.290000e+00
  TP4d   SC4  1 3.940000e-01    1.290000e+00
  TP3d   SC4  1 3.780000e-01    1.450000e+00
  TP2d   SC4  1 3.780000e-01    1.450000e+00
  TP1d   SC4  1 3.780000e-01    1.450000e+00
  TN6d   SC4  1 3.660000e-01    1.600000e+00
  TN5d   SC4  1 3.660000e-01    1.600000e+00
  TN4d   SC4  1 3.650000e-01    1.750000e+00
  TN3d   SC4  1 3.650000e-01    1.750000e+00
  TN2d   SC4  1 3.650000e-01    1.750000e+00
  TN1d   SC4  1 3.650000e-01    1.910000e+00
  TP6a   SC4  1 4.040000e-01    1.130000e+00
  TP5a   SC4  1 3.940000e-01    1.290000e+00
  TP4a   SC4  1 3.940000e-01    1.290000e+00
  TP3a   SC4  1 3.780000e-01    1.450000e+00
  TP2a   SC4  1 3.780000e-01    1.450000e+00
  TP1a   SC4  1 3.780000e-01    1.450000e+00
  TN6a   SC4  1 3.660000e-01    1.600000e+00
  TN5a   SC4  1 3.660000e-01    1.600000e+00
  TN4a   SC4  1 3.650000e-01    1.750000e+00
  TN3a   SC4  1 3.650000e-01    1.750000e+00
  TN2a   SC4  1 3.650000e-01    1.750000e+00
  TN1a   SC4  1 3.650000e-01    1.910000e+00
  TC6v   SC4  1 3.650000e-01    2.110000e+00
  TC5v   SC4  1 3.650000e-01    2.110000e+00
  TC6e   SC4  1 3.650000e-01    2.110000e+00
  TC5e   SC4  1 3.650000e-01    2.110000e+00
  TP6q   SC4  1 3.780000e-01    1.450000e+00
  TP5q   SC4  1 3.660000e-01    1.600000e+00
  TP4q   SC4  1 3.660000e-01    1.600000e+00
  TP3q   SC4  1 3.650000e-01    1.750000e+00
  TP2q   SC4  1 3.650000e-01    1.750000e+00
  TP1q   SC4  1 3.650000e-01    1.750000e+00
  TN6q   SC4  1 3.650000e-01    1.910000e+00
  TN5q   SC4  1 3.650000e-01    1.910000e+00
  TN4q   SC4  1 3.650000e-01    2.110000e+00
  TN3q   SC4  1 3.650000e-01    2.110000e+00
  TN2q   SC4  1 3.650000e-01    2.110000e+00
  TN1q   SC4  1 3.650000e-01    2.340000e+00
  TC6q   SC4  1 3.650000e-01    2.340000e+00
  TC5q   SC4  1 3.650000e-01    2.340000e+00
 TC5eq   SC4  1 3.650000e-01    2.570000e+00
 TC6eq   SC4  1 3.650000e-01    2.570000e+00
 TC5vq   SC4  1 3.650000e-01    2.570000e+00
 TC6vq   SC4  1 3.650000e-01    2.570000e+00
 TN1aq   SC4  1 3.650000e-01    2.340000e+00
 TN2aq   SC4  1 3.650000e-01    2.110000e+00
 TN3aq   SC4  1 3.650000e-01    2.110000e+00
 TN4aq   SC4  1 3.650000e-01    2.110000e+00
 TN5aq   SC4  1 3.650000e-01    1.910000e+00
 TN6aq   SC4  1 3.650000e-01    1.910000e+00
 TP1aq   SC4  1 3.650000e-01    1.750000e+00
 TP2aq   SC4  1 3.650000e-01    1.750000e+00
 TP3aq   SC4  1 3.650000e-01    1.750000e+00
 TP4aq   SC4  1 3.660000e-01    1.600000e+00
 TP5aq   SC4  1 3.660000e-01    1.600000e+00
 TP6aq   SC4  1 3.780000e-01    1.450000e+00
 TN1dq   SC4  1 3.650000e-01    2.340000e+00
 TN2dq   SC4  1 3.650000e-01    2.110000e+00
 TN3dq   SC4  1 3.650000e-01    2.110000e+00
 TN4dq   SC4  1 3.650000e-01    2.110000e+00
 TN5dq   SC4  1 3.650000e-01    1.910000e+00
 TN6dq   SC4  1 3.650000e-01    1.910000e+00
 TP1dq   SC4  1 3.650000e-01    1.750000e+00
 TP2dq   SC4  1 3.650000e-01    1.750000e+00
 TP3dq   SC4  1 3.650000e-01    1.750000e+00
 TP4dq   SC4  1 3.660000e-01    1.600000e+00
 TP5dq   SC4  1 3.660000e-01    1.600000e+00
 TP6dq   SC4  1 3.780000e-01    1.450000e+00
  TP6h   SC4  1 4.040000e-01    1.130000e+00
  TP5h   SC4  1 3.940000e-01    1.290000e+00
  TP4h   SC4  1 3.940000e-01    1.290000e+00
  TP3h   SC4  1 3.780000e-01    1.450000e+00
  TP2h   SC4  1 3.780000e-01    1.450000e+00
  TP1h   SC4  1 3.780000e-01    1.450000e+00
  TN6h   SC4  1 3.660000e-01    1.600000e+00
  TN5h   SC4  1 3.660000e-01    1.600000e+00
  TN4h   SC4  1 3.650000e-01    1.750000e+00
  TN3h   SC4  1 3.650000e-01    1.750000e+00
  TN2h   SC4  1 3.650000e-01    1.750000e+00
  TN1h   SC4  1 3.650000e-01    1.910000e+00
  TC6h   SC4  1 3.650000e-01    1.910000e+00
  TC5h   SC4  1 3.650000e-01    1.910000e+00
 TC5eh   SC4  1 3.650000e-01    2.110000e+00
 TC6eh   SC4  1 3.650000e-01    2.110000e+00
 TC5vh   SC4  1 3.650000e-01    2.110000e+00
 TC6vh   SC4  1 3.650000e-01    2.110000e+00
 TN1ah   SC4  1 3.650000e-01    1.910000e+00
 TN2ah   SC4  1 3.650000e-01    1.750000e+00
 TN3ah   SC4  1 3.650000e-01    1.750000e+00
 TN4ah   SC4  1 3.650000e-01    1.750000e+00
 TN5ah   SC4  1 3.660000e-01    1.600000e+00
 TN6ah   SC4  1 3.660000e-01    1.600000e+00
 TP1ah   SC4  1 3.780000e-01    1.450000e+00
 TP2ah   SC4  1 3.780000e-01    1.450000e+00
 TP3ah   SC4  1 3.780000e-01    1.450000e+00
 TP4ah   SC4  1 3.940000e-01    1.290000e+00
 TP5ah   SC4  1 3.940000e-01    1.290000e+00
 TP6ah   SC4  1 4.040000e-01    1.130000e+00
 TN1dh   SC4  1 3.650000e-01    1.910000e+00
 TN2dh   SC4  1 3.650000e-01    1.750000e+00
 TN3dh   SC4  1 3.650000e-01    1.750000e+00
 TN4dh   SC4  1 3.650000e-01    1.750000e+00
 TN5dh   SC4  1 3.660000e-01    1.600000e+00
 TN6dh   SC4  1 3.660000e-01    1.600000e+00
 TP1dh   SC4  1 3.780000e-01    1.450000e+00
 TP2dh   SC4  1 3.780000e-01    1.450000e+00
 TP3dh   SC4  1 3.780000e-01    1.450000e+00
 TP4dh   SC4  1 3.940000e-01    1.290000e+00
 TP5dh   SC4  1 3.940000e-01    1.290000e+00
 TP6dh   SC4  1 4.040000e-01    1.130000e+00
  TP6r   SC4  1 4.040000e-01    1.130000e+00
  TP5r   SC4  1 3.940000e-01    1.290000e+00
  TP4r   SC4  1 3.940000e-01    1.290000e+00
  TP3r   SC4  1 3.780000e-01    1.450000e+00
  TP2r   SC4  1 3.780000e-01    1.450000e+00
  TP1r   SC4  1 3.780000e-01    1.450000e+00
  TN6r   SC4  1 3.660000e-01    1.600000e+00
  TN5r   SC4  1 3.660000e-01    1.600000e+00
  TN4r   SC4  1 3.650000e-01    1.750000e+00
  TN3r   SC4  1 3.650000e-01    1.750000e+00
  TN2r   SC4  1 3.650000e-01    1.750000e+00
  TN1r   SC4  1 3.650000e-01    1.910000e+00
  TC6r   SC4  1 3.650000e-01    1.910000e+00
  TC5r   SC4  1 3.650000e-01    1.910000e+00
 TC5er   SC4  1 3.650000e-01    2.110000e+00
 TC6er   SC4  1 3.650000e-01    2.110000e+00
 TC5vr   SC4  1 3.650000e-01    2.110000e+00
 TC6vr   SC4  1 3.650000e-01    2.110000e+00
 TN1ar   SC4  1 3.650000e-01    1.910000e+00
 TN2ar   SC4  1 3.650000e-01    1.750000e+00
 TN3ar   SC4  1 3.650000e-01    1.750000e+00
 TN4ar   SC4  1 3.650000e-01    1.750000e+00
 TN5ar   SC4  1 3.660000e-01    1.600000e+00
 TN6ar   SC4  1 3.660000e-01    1.600000e+00
 TP1ar   SC4  1 3.780000e-01    1.450000e+00
 TP2ar   SC4  1 3.780000e-01    1.450000e+00
 TP3ar   SC4  1 3.780000e-01    1.450000e+00
 TP4ar   SC4  1 3.940000e-01    1.290000e+00
 TP5ar   SC4  1 3.940000e-01    1.290000e+00
 TP6ar   SC4  1 4.040000e-01    1.130000e+00
 TN1dr   SC4  1 3.650000e-01    1.910000e+00
 TN2dr   SC4  1 3.650000e-01    1.750000e+00
 TN3dr   SC4  1 3.650000e-01    1.750000e+00
 TN4dr   SC4  1 3.650000e-01    1.750000e+00
 TN5dr   SC4  1 3.660000e-01    1.600000e+00
 TN6dr   SC4  1 3.660000e-01    1.600000e+00
 TP1dr   SC4  1 3.780000e-01    1.450000e+00
 TP2dr   SC4  1 3.780000e-01    1.450000e+00
 TP3dr   SC4  1 3.780000e-01    1.450000e+00
 TP4dr   SC4  1 3.940000e-01    1.290000e+00
 TP5dr   SC4  1 3.940000e-01    1.290000e+00
 TP6dr   SC4  1 4.040000e-01    1.130000e+00
   P6d   TC4  1 3.990000e-01    1.180000e+00
   P5d   TC4  1 3.980000e-01    1.450000e+00
   P4d   TC4  1 3.980000e-01    1.450000e+00
   P3d   TC4  1 3.950000e-01    1.670000e+00
   P2d   TC4  1 3.950000e-01    1.670000e+00
   P1d   TC4  1 3.950000e-01    1.670000e+00
   N6d   TC4  1 3.950000e-01    1.850000e+00
   N5d   TC4  1 3.950000e-01    1.850000e+00
   N4d   TC4  1 3.950000e-01    2.110000e+00
   N3d   TC4  1 3.950000e-01    2.110000e+00
   N2d   TC4  1 3.950000e-01    2.110000e+00
   N1d   TC4  1 3.950000e-01    2.310000e+00
   P6a   TC4  1 3.990000e-01    1.180000e+00
   P5a   TC4  1 3.980000e-01    1.450000e+00
   P4a   TC4  1 3.980000e-01    1.450000e+00
   P3a   TC4  1 3.950000e-01    1.670000e+00
   P2a   TC4  1 3.950000e-01    1.670000e+00
   P1a   TC4  1 3.950000e-01    1.670000e+00
   N6a   TC4  1 3.950000e-01    1.850000e+00
   N5a   TC4  1 3.950000e-01    1.850000e+00
   N4a   TC4  1 3.950000e-01    2.110000e+00
   N3a   TC4  1 3.950000e-01    2.110000e+00
   N2a   TC4  1 3.950000e-01    2.110000e+00
   N1a   TC4  1 3.950000e-01    2.310000e+00
   C6v   TC4  1 3.950000e-01    2.500000e+00
   C5v   TC4  1 3.950000e-01    2.500000e+00
   C6e   TC4  1 3.950000e-01    2.500000e+00
   C5e   TC4  1 3.950000e-01    2.500000e+00
   P6q   TC4  1 3.950000e-01    1.670000e+00
   P5q   TC4  1 3.950000e-01    1.850000e+00
   P4q   TC4  1 3.950000e-01    1.850000e+00
   P3q   TC4  1 3.950000e-01    2.110000e+00
   P2q   TC4  1 3.950000e-01    2.110000e+00
   P1q   TC4  1 3.950000e-01    2.110000e+00
   N6q   TC4  1 3.950000e-01    2.310000e+00
   N5q   TC4  1 3.950000e-01    2.310000e+00
   N4q   TC4  1 3.950000e-01    2.500000e+00
   N3q   TC4  1 3.950000e-01    2.500000e+00
   N2q   TC4  1 3.950000e-01    2.500000e+00
   N1q   TC4  1 3.950000e-01    2.700000e+00
   C6q   TC4  1 3.950000e-01    2.700000e+00
   C5q   TC4  1 3.950000e-01    2.700000e+00
  C5eq   TC4  1 3.950000e-01    2.940000e+00
  C6eq   TC4  1 3.950000e-01    2.940000e+00
  C5vq   TC4  1 3.950000e-01    2.940000e+00
  C6vq   TC4  1 3.950000e-01    2.940000e+00
  N1aq   TC4  1 3.950000e-01    2.700000e+00
  N2aq   TC4  1 3.950000e-01    2.500000e+00
  N3aq   TC4  1 3.950000e-01    2.500000e+00
  N4aq   TC4  1 3.950000e-01    2.500000e+00
  N5aq   TC4  1 3.950000e-01    2.310000e+00
  N6aq   TC4  1 3.950000e-01    2.310000e+00
  P1aq   TC4  1 3.950000e-01    2.110000e+00
  P2aq   TC4  1 3.950000e-01    2.110000e+00
  P3aq   TC4  1 3.950000e-01    2.110000e+00
  P4aq   TC4  1 3.950000e-01    1.850000e+00
  P5aq   TC4  1 3.950000e-01    1.850000e+00
  P6aq   TC4  1 3.950000e-01    1.670000e+00
  N1dq   TC4  1 3.950000e-01    2.700000e+00
  N2dq   TC4  1 3.950000e-01    2.500000e+00
  N3dq   TC4  1 3.950000e-01    2.500000e+00
  N4dq   TC4  1 3.950000e-01    2.500000e+00
  N5dq   TC4  1 3.950000e-01    2.310000e+00
  N6dq   TC4  1 3.950000e-01    2.310000e+00
  P1dq   TC4  1 3.950000e-01    2.110000e+00
  P2dq   TC4  1 3.950000e-01    2.110000e+00
  P3dq   TC4  1 3.950000e-01    2.110000e+00
  P4dq   TC4  1 3.950000e-01    1.850000e+00
  P5dq   TC4  1 3.950000e-01    1.850000e+00
  P6dq   TC4  1 3.950000e-01    1.670000e+00
   P6h   TC4  1 3.990000e-01    1.180000e+00
   P5h   TC4  1 3.980000e-01    1.450000e+00
   P4h   TC4  1 3.980000e-01    1.450000e+00
   P3h   TC4  1 3.950000e-01    1.670000e+00
   P2h   TC4  1 3.950000e-01    1.670000e+00
   P1h   TC4  1 3.950000e-01    1.670000e+00
   N6h   TC4  1 3.950000e-01    1.850000e+00
   N5h   TC4  1 3.950000e-01    1.850000e+00
   N4h   TC4  1 3.950000e-01    2.110000e+00
   N3h   TC4  1 3.950000e-01    2.110000e+00
   N2h   TC4  1 3.950000e-01    2.110000e+00
   N1h   TC4  1 3.950000e-01    2.310000e+00
   C6h   TC4  1 3.950000e-01    2.310000e+00
   C5h   TC4  1 3.950000e-01    2.310000e+00
  C5eh   TC4  1 3.950000e-01    2.500000e+00
  C6eh   TC4  1 3.950000e-01    2.500000e+00
  C5vh   TC4  1 3.950000e-01    2.500000e+00
  C6vh   TC4  1 3.950000e-01    2.500000e+00
  N1ah   TC4  1 3.950000e-01    2.310000e+00
  N2ah   TC4  1 3.950000e-01    2.110000e+00
  N3ah   TC4  1 3.950000e-01    2.110000e+00
  N4ah   TC4  1 3.950000e-01    2.110000e+00
  N5ah   TC4  1 3.950000e-01    1.850000e+00
  N6ah   TC4  1 3.950000e-01    1.850000e+00
  P1ah   TC4  1 3.950000e-01    1.670000e+00
  P2ah   TC4  1 3.950000e-01    1.670000e+00
  P3ah   TC4  1 3.950000e-01    1.670000e+00
  P4ah   TC4  1 3.980000e-01    1.450000e+00
  P5ah   TC4  1 3.980000e-01    1.450000e+00
  P6ah   TC4  1 3.990000e-01    1.180000e+00
  N1dh   TC4  1 3.950000e-01    2.310000e+00
  N2dh   TC4  1 3.950000e-01    2.110000e+00
  N3dh   TC4  1 3.950000e-01    2.110000e+00
  N4dh   TC4  1 3.950000e-01    2.110000e+00
  N5dh   TC4  1 3.950000e-01    1.850000e+00
  N6dh   TC4  1 3.950000e-01    1.850000e+00
  P1dh   TC4  1 3.950000e-01    1.670000e+00
  P2dh   TC4  1 3.950000e-01    1.670000e+00
  P3dh   TC4  1 3.950000e-01    1.670000e+00
  P4dh   TC4  1 3.980000e-01    1.450000e+00
  P5dh   TC4  1 3.980000e-01    1.450000e+00
  P6dh   TC4  1 3.990000e-01    1.180000e+00
   P6r   TC4  1 3.990000e-01    1.180000e+00
   P5r   TC4  1 3.980000e-01    1.450000e+00
   P4r   TC4  1 3.980000e-01    1.450000e+00
   P3r   TC4  1 3.950000e-01    1.670000e+00
   P2r   TC4  1 3.950000e-01    1.670000e+00
   P1r   TC4  1 3.950000e-01    1.670000e+00
   N6r   TC4  1 3.950000e-01    1.850000e+00
   N5r   TC4  1 3.950000e-01    1.850000e+00
   N4r   TC4  1 3.950000e-01    2.110000e+00
   N3r   TC4  1 3.950000e-01    2.110000e+00
   N2r   TC4  1 3.950000e-01    2.110000e+00
   N1r   TC4  1 3.950000e-01    2.310000e+00
   C6r   TC4  1 3.950000e-01    2.310000e+00
   C5r   TC4  1 3.950000e-01    2.310000e+00
  C5er   TC4  1 3.950000e-01    2.500000e+00
  C6er   TC4  1 3.950000e-01    2.500000e+00
  C5vr   TC4  1 3.950000e-01    2.500000e+00
  C6vr   TC4  1 3.950000e-01    2.500000e+00
  N1ar   TC4  1 3.950000e-01    2.310000e+00
  N2ar   TC4  1 3.950000e-01    2.110000e+00
  N3ar   TC4  1 3.950000e-01    2.110000e+00
  N4ar   TC4  1 3.950000e-01    2.110000e+00
  N5ar   TC4  1 3.950000e-01    1.850000e+00
  N6ar   TC4  1 3.950000e-01    1.850000e+00
  P1ar   TC4  1 3.950000e-01    1.670000e+00
  P2ar   TC4  1 3.950000e-01    1.670000e+00
  P3ar   TC4  1 3.950000e-01    1.670000e+00
  P4ar   TC4  1 3.980000e-01    1.450000e+00
  P5ar   TC4  1 3.980000e-01    1.450000e+00
  P6ar   TC4  1 3.990000e-01    1.180000e+00
  N1dr   TC4  1 3.950000e-01    2.310000e+00
  N2dr   TC4  1 3.950000e-01    2.110000e+00
  N3dr   TC4  1 3.950000e-01    2.110000e+00
  N4dr   TC4  1 3.950000e-01    2.110000e+00
  N5dr   TC4  1 3.950000e-01    1.850000e+00
  N6dr   TC4  1 3.950000e-01    1.850000e+00
  P1dr   TC4  1 3.950000e-01    1.670000e+00
  P2dr   TC4  1 3.950000e-01    1.670000e+00
  P3dr   TC4  1 3.950000e-01    1.670000e+00
  P4dr   TC4  1 3.980000e-01    1.450000e+00
  P5dr   TC4  1 3.980000e-01    1.450000e+00
  P6dr   TC4  1 3.990000e-01    1.180000e+00
   TC4    C3  1 3.950000e-01    2.310000e+00
   TC4    C2  1 3.950000e-01    2.110000e+00
   TC4    C1  1 3.950000e-01    1.850000e+00
   TC4    X4  1 3.950000e-01    2.110000e+00
   TC4    X3  1 3.950000e-01    2.110000e+00
   TC4    X2  1 3.950000e-01    2.110000e+00
   TC4    X1  1 3.950000e-01    2.310000e+00
   TC4   C4v  1 3.950000e-01    2.500000e+00
   TC4   X1v  1 3.950000e-01    2.500000e+00
   TC4   X2v  1 3.950000e-01    2.310000e+00
   TC4   X3v  1 3.950000e-01    2.310000e+00
   TC4   X4v  1 3.950000e-01    2.310000e+00
   TC4   C1v  1 3.950000e-01    2.110000e+00
   TC4   C2v  1 3.950000e-01    2.310000e+00
   TC4   C3v  1 3.950000e-01    2.500000e+00
   TC4   C4e  1 3.950000e-01    2.500000e+00
   TC4   X1e  1 3.950000e-01    2.500000e+00
   TC4   X2e  1 3.950000e-01    2.310000e+00
   TC4   X3e  1 3.950000e-01    2.310000e+00
   TC4   X4e  1 3.950000e-01    2.310000e+00
   TC4   C1e  1 3.950000e-01    2.110000e+00
   TC4   C2e  1 3.950000e-01    2.310000e+00
   TC4   C3e  1 3.950000e-01    2.500000e+00
   TC4   C4q  1 3.950000e-01    2.700000e+00
   TC4  X1eq  1 3.950000e-01    2.940000e+00
   TC4  X2eq  1 3.950000e-01    2.700000e+00
   TC4  X3eq  1 3.950000e-01    2.700000e+00
   TC4  X4eq  1 3.950000e-01    2.700000e+00
   TC4  C1eq  1 3.950000e-01    2.500000e+00
   TC4  C2eq  1 3.950000e-01    2.700000e+00
   TC4  C3eq  1 3.950000e-01    2.940000e+00
   TC4  C4eq  1 3.950000e-01    2.940000e+00
   TC4  X1vq  1 3.950000e-01    2.940000e+00
   TC4  X2vq  1 3.950000e-01    2.700000e+00
   TC4  X3vq  1 3.950000e-01    2.700000e+00
   TC4  X4vq  1 3.950000e-01    2.700000e+00
   TC4  C1vq  1 3.950000e-01    2.500000e+00
   TC4  C2vq  1 3.950000e-01    2.700000e+00
   TC4  C3vq  1 3.950000e-01    2.940000e+00
   TC4  C4vq  1 3.950000e-01    2.940000e+00
   TC4   X1q  1 3.950000e-01    2.700000e+00
   TC4   X2q  1 3.950000e-01    2.500000e+00
   TC4   X3q  1 3.950000e-01    2.500000e+00
   TC4   X4q  1 3.950000e-01    2.500000e+00
   TC4   C1q  1 3.950000e-01    2.310000e+00
   TC4   C2q  1 3.950000e-01    2.500000e+00
   TC4   C3q  1 3.950000e-01    2.700000e+00
   TC4   C4h  1 3.950000e-01    2.310000e+00
   TC4  X1eh  1 3.950000e-01    2.500000e+00
   TC4  X2eh  1 3.950000e-01    2.310000e+00
   TC4  X3eh  1 3.950000e-01    2.310000e+00
   TC4  X4eh  1 3.950000e-01    2.310000e+00
   TC4  C1eh  1 3.950000e-01    2.110000e+00
   TC4  C2eh  1 3.950000e-01    2.310000e+00
   TC4  C3eh  1 3.950000e-01    2.500000e+00
   TC4  C4eh  1 3.950000e-01    2.500000e+00
   TC4  X1vh  1 3.950000e-01    2.500000e+00
   TC4  X2vh  1 3.950000e-01    2.310000e+00
   TC4  X3vh  1 3.950000e-01    2.310000e+00
   TC4  X4vh  1 3.950000e-01    2.310000e+00
   TC4  C1vh  1 3.950000e-01    2.110000e+00
   TC4  C2vh  1 3.950000e-01    2.310000e+00
   TC4  C3vh  1 3.950000e-01    2.500000e+00
   TC4  C4vh  1 3.950000e-01    2.500000e+00
   TC4   X1h  1 3.950000e-01    2.310000e+00
   TC4   X2h  1 3.950000e-01    2.110000e+00
   TC4   X3h  1 3.950000e-01    2.110000e+00
   TC4   X4h  1 3.950000e-01    2.110000e+00
   TC4   C1h  1 3.950000e-01    1.850000e+00
   TC4   C2h  1 3.950000e-01    2.110000e+00
   TC4   C3h  1 3.950000e-01    2.310000e+00
   TC4   C4r  1 3.950000e-01    2.310000e+00
   TC4  X1er  1 3.950000e-01    2.500000e+00
   TC4  X2er  1 3.950000e-01    2.310000e+00
   TC4  X3er  1 3.950000e-01    2.310000e+00
   TC4  X4er  1 3.950000e-01    2.310000e+00
   TC4  C1er  1 3.950000e-01    2.110000e+00
   TC4  C2er  1 3.950000e-01    2.310000e+00
   TC4  C3er  1 3.950000e-01    2.500000e+00
   TC4  C4er  1 3.950000e-01    2.500000e+00
   TC4  X1vr  1 3.950000e-01    2.500000e+00
   TC4  X2vr  1 3.950000e-01    2.310000e+00
   TC4  X3vr  1 3.950000e-01    2.310000e+00
   TC4  X4vr  1 3.950000e-01    2.310000e+00
   TC4  C1vr  1 3.950000e-01    2.110000e+00
   TC4  C2vr  1 3.950000e-01    2.310000e+00
   TC4  C3vr  1 3.950000e-01    2.500000e+00
   TC4  C4vr  1 3.950000e-01    2.500000e+00
   TC4   X1r  1 3.950000e-01    2.310000e+00
   TC4   X2r  1 3.950000e-01    2.110000e+00
   TC4   X3r  1 3.950000e-01    2.110000e+00
   TC4   X4r  1 3.950000e-01    2.110000e+00
   TC4   C1r  1 3.950000e-01    1.850000e+00
   TC4   C2r  1 3.950000e-01    2.110000e+00
   TC4   C3r  1 3.950000e-01    2.310000e+00
   TC4   TC4  1 3.400000e-01    1.510000e+00
   TC4   TC3  1 3.400000e-01    1.510000e+00
   TC4   TC2  1 3.400000e-01    1.230000e+00
   TC4   TC1  1 3.520000e-01    1.050000e+00
   TC4   TX4  1 3.400000e-01    1.230000e+00
   TC4   TX3  1 3.400000e-01    1.230000e+00
   TC4   TX2  1 3.400000e-01    1.230000e+00
   TC4   TX1  1 3.400000e-01    1.510000e+00
  TP6d   TC4  1 4.110000e-01    8.010000e-01
  TP5d   TC4  1 3.850000e-01    8.550000e-01
  TP4d   TC4  1 3.850000e-01    8.550000e-01
  TP3d   TC4  1 3.660000e-01    9.350000e-01
  TP2d   TC4  1 3.660000e-01    9.350000e-01
  TP1d   TC4  1 3.660000e-01    9.350000e-01
  TN6d   TC4  1 3.520000e-01    1.050000e+00
  TN5d   TC4  1 3.520000e-01    1.050000e+00
  TN4d   TC4  1 3.400000e-01    1.230000e+00
  TN3d   TC4  1 3.400000e-01    1.230000e+00
  TN2d   TC4  1 3.400000e-01    1.230000e+00
  TN1d   TC4  1 3.400000e-01    1.510000e+00
  TP6a   TC4  1 4.110000e-01    8.010000e-01
  TP5a   TC4  1 3.850000e-01    8.550000e-01
  TP4a   TC4  1 3.850000e-01    8.550000e-01
  TP3a   TC4  1 3.660000e-01    9.350000e-01
  TP2a   TC4  1 3.660000e-01    9.350000e-01
  TP1a   TC4  1 3.660000e-01    9.350000e-01
  TN6a   TC4  1 3.520000e-01    1.050000e+00
  TN5a   TC4  1 3.520000e-01    1.050000e+00
  TN4a   TC4  1 3.400000e-01    1.230000e+00
  TN3a   TC4  1 3.400000e-01    1.230000e+00
  TN2a   TC4  1 3.400000e-01    1.230000e+00
  TN1a   TC4  1 3.400000e-01    1.510000e+00
  TC6v   TC4  1 3.400000e-01    1.770000e+00
  TC5v   TC4  1 3.400000e-01    1.770000e+00
   TC4  TC4v  1 3.400000e-01    1.770000e+00
   TC4  TX1v  1 3.400000e-01    1.770000e+00
   TC4  TX2v  1 3.400000e-01    1.510000e+00
   TC4  TX3v  1 3.400000e-01    1.510000e+00
   TC4  TX4v  1 3.400000e-01    1.510000e+00
   TC4  TC1v  1 3.400000e-01    1.230000e+00
   TC4  TC2v  1 3.400000e-01    1.510000e+00
   TC4  TC3v  1 3.400000e-01    1.770000e+00
  TC6e   TC4  1 3.400000e-01    1.770000e+00
  TC5e   TC4  1 3.400000e-01    1.770000e+00
   TC4  TC4e  1 3.400000e-01    1.770000e+00
   TC4  TX1e  1 3.400000e-01    1.770000e+00
   TC4  TX2e  1 3.400000e-01    1.510000e+00
   TC4  TX3e  1 3.400000e-01    1.510000e+00
   TC4  TX4e  1 3.400000e-01    1.510000e+00
   TC4  TC1e  1 3.400000e-01    1.230000e+00
   TC4  TC2e  1 3.400000e-01    1.510000e+00
   TC4  TC3e  1 3.400000e-01    1.770000e+00
  TP6q   TC4  1 3.660000e-01    9.350000e-01
  TP5q   TC4  1 3.520000e-01    1.050000e+00
  TP4q   TC4  1 3.520000e-01    1.050000e+00
  TP3q   TC4  1 3.400000e-01    1.230000e+00
  TP2q   TC4  1 3.400000e-01    1.230000e+00
  TP1q   TC4  1 3.400000e-01    1.230000e+00
  TN6q   TC4  1 3.400000e-01    1.510000e+00
  TN5q   TC4  1 3.400000e-01    1.510000e+00
  TN4q   TC4  1 3.400000e-01    1.770000e+00
  TN3q   TC4  1 3.400000e-01    1.770000e+00
  TN2q   TC4  1 3.400000e-01    1.770000e+00
  TN1q   TC4  1 3.400000e-01    2.020000e+00
  TC6q   TC4  1 3.400000e-01    2.020000e+00
  TC5q   TC4  1 3.400000e-01    2.020000e+00
   TC4  TC4q  1 3.400000e-01    2.020000e+00
   TC4 TX1eq  1 3.400000e-01    2.280000e+00
   TC4 TX2eq  1 3.400000e-01    2.020000e+00
   TC4 TX3eq  1 3.400000e-01    2.020000e+00
   TC4 TX4eq  1 3.400000e-01    2.020000e+00
   TC4 TC1eq  1 3.400000e-01    1.770000e+00
   TC4 TC2eq  1 3.400000e-01    2.020000e+00
   TC4 TC3eq  1 3.400000e-01    2.280000e+00
   TC4 TC4eq  1 3.400000e-01    2.280000e+00
 TC5eq   TC4  1 3.400000e-01    2.280000e+00
 TC6eq   TC4  1 3.400000e-01    2.280000e+00
   TC4 TX1vq  1 3.400000e-01    2.280000e+00
   TC4 TX2vq  1 3.400000e-01    2.020000e+00
   TC4 TX3vq  1 3.400000e-01    2.020000e+00
   TC4 TX4vq  1 3.400000e-01    2.020000e+00
   TC4 TC1vq  1 3.400000e-01    1.770000e+00
   TC4 TC2vq  1 3.400000e-01    2.020000e+00
   TC4 TC3vq  1 3.400000e-01    2.280000e+00
   TC4 TC4vq  1 3.400000e-01    2.280000e+00
 TC5vq   TC4  1 3.400000e-01    2.280000e+00
 TC6vq   TC4  1 3.400000e-01    2.280000e+00
 TN1aq   TC4  1 3.400000e-01    2.020000e+00
 TN2aq   TC4  1 3.400000e-01    1.770000e+00
 TN3aq   TC4  1 3.400000e-01    1.770000e+00
 TN4aq   TC4  1 3.400000e-01    1.770000e+00
 TN5aq   TC4  1 3.400000e-01    1.510000e+00
 TN6aq   TC4  1 3.400000e-01    1.510000e+00
 TP1aq   TC4  1 3.400000e-01    1.230000e+00
 TP2aq   TC4  1 3.400000e-01    1.230000e+00
 TP3aq   TC4  1 3.400000e-01    1.230000e+00
 TP4aq   TC4  1 3.520000e-01    1.050000e+00
 TP5aq   TC4  1 3.520000e-01    1.050000e+00
 TP6aq   TC4  1 3.660000e-01    9.350000e-01
 TN1dq   TC4  1 3.400000e-01    2.020000e+00
 TN2dq   TC4  1 3.400000e-01    1.770000e+00
 TN3dq   TC4  1 3.400000e-01    1.770000e+00
 TN4dq   TC4  1 3.400000e-01    1.770000e+00
 TN5dq   TC4  1 3.400000e-01    1.510000e+00
 TN6dq   TC4  1 3.400000e-01    1.510000e+00
 TP1dq   TC4  1 3.400000e-01    1.230000e+00
 TP2dq   TC4  1 3.400000e-01    1.230000e+00
 TP3dq   TC4  1 3.400000e-01    1.230000e+00
 TP4dq   TC4  1 3.520000e-01    1.050000e+00
 TP5dq   TC4  1 3.520000e-01    1.050000e+00
 TP6dq   TC4  1 3.660000e-01    9.350000e-01
   TC4  TX1q  1 3.400000e-01    2.020000e+00
   TC4  TX2q  1 3.400000e-01    1.770000e+00
   TC4  TX3q  1 3.400000e-01    1.770000e+00
   TC4  TX4q  1 3.400000e-01    1.770000e+00
   TC4  TC1q  1 3.400000e-01    1.510000e+00
   TC4  TC2q  1 3.400000e-01    1.770000e+00
   TC4  TC3q  1 3.400000e-01    2.020000e+00
  TP6h   TC4  1 4.110000e-01    8.010000e-01
  TP5h   TC4  1 3.850000e-01    8.550000e-01
  TP4h   TC4  1 3.850000e-01    8.550000e-01
  TP3h   TC4  1 3.660000e-01    9.350000e-01
  TP2h   TC4  1 3.660000e-01    9.350000e-01
  TP1h   TC4  1 3.660000e-01    9.350000e-01
  TN6h   TC4  1 3.520000e-01    1.050000e+00
  TN5h   TC4  1 3.520000e-01    1.050000e+00
  TN4h   TC4  1 3.400000e-01    1.230000e+00
  TN3h   TC4  1 3.400000e-01    1.230000e+00
  TN2h   TC4  1 3.400000e-01    1.230000e+00
  TN1h   TC4  1 3.400000e-01    1.510000e+00
  TC6h   TC4  1 3.400000e-01    1.510000e+00
  TC5h   TC4  1 3.400000e-01    1.510000e+00
   TC4  TC4h  1 3.400000e-01    1.510000e+00
   TC4 TX1eh  1 3.400000e-01    1.770000e+00
   TC4 TX2eh  1 3.400000e-01    1.510000e+00
   TC4 TX3eh  1 3.400000e-01    1.510000e+00
   TC4 TX4eh  1 3.400000e-01    1.510000e+00
   TC4 TC1eh  1 3.400000e-01    1.230000e+00
   TC4 TC2eh  1 3.400000e-01    1.510000e+00
   TC4 TC3eh  1 3.400000e-01    1.770000e+00
   TC4 TC4eh  1 3.400000e-01    1.770000e+00
 TC5eh   TC4  1 3.400000e-01    1.770000e+00
 TC6eh   TC4  1 3.400000e-01    1.770000e+00
   TC4 TX1vh  1 3.400000e-01    1.770000e+00
   TC4 TX2vh  1 3.400000e-01    1.510000e+00
   TC4 TX3vh  1 3.400000e-01    1.510000e+00
   TC4 TX4vh  1 3.400000e-01    1.510000e+00
   TC4 TC1vh  1 3.400000e-01    1.230000e+00
   TC4 TC2vh  1 3.400000e-01    1.510000e+00
   TC4 TC3vh  1 3.400000e-01    1.770000e+00
   TC4 TC4vh  1 3.400000e-01    1.770000e+00
 TC5vh   TC4  1 3.400000e-01    1.770000e+00
 TC6vh   TC4  1 3.400000e-01    1.770000e+00
 TN1ah   TC4  1 3.400000e-01    1.510000e+00
 TN2ah   TC4  1 3.400000e-01    1.230000e+00
 TN3ah   TC4  1 3.400000e-01    1.230000e+00
 TN4ah   TC4  1 3.400000e-01    1.230000e+00
 TN5ah   TC4  1 3.520000e-01    1.050000e+00
 TN6ah   TC4  1 3.520000e-01    1.050000e+00
 TP1ah   TC4  1 3.660000e-01    9.350000e-01
 TP2ah   TC4  1 3.660000e-01    9.350000e-01
 TP3ah   TC4  1 3.660000e-01    9.350000e-01
 TP4ah   TC4  1 3.850000e-01    8.550000e-01
 TP5ah   TC4  1 3.850000e-01    8.550000e-01
 TP6ah   TC4  1 4.110000e-01    8.010000e-01
 TN1dh   TC4  1 3.400000e-01    1.510000e+00
 TN2dh   TC4  1 3.400000e-01    1.230000e+00
 TN3dh   TC4  1 3.400000e-01    1.230000e+00
 TN4dh   TC4  1 3.400000e-01    1.230000e+00
 TN5dh   TC4  1 3.520000e-01    1.050000e+00
 TN6dh   TC4  1 3.520000e-01    1.050000e+00
 TP1dh   TC4  1 3.660000e-01    9.350000e-01
 TP2dh   TC4  1 3.660000e-01    9.350000e-01
 TP3dh   TC4  1 3.660000e-01    9.350000e-01
 TP4dh   TC4  1 3.850000e-01    8.550000e-01
 TP5dh   TC4  1 3.850000e-01    8.550000e-01
 TP6dh   TC4  1 4.110000e-01    8.010000e-01
   TC4  TX1h  1 3.400000e-01    1.510000e+00
   TC4  TX2h  1 3.400000e-01    1.230000e+00
   TC4  TX3h  1 3.400000e-01    1.230000e+00
   TC4  TX4h  1 3.400000e-01    1.230000e+00
   TC4  TC1h  1 3.520000e-01    1.050000e+00
   TC4  TC2h  1 3.400000e-01    1.230000e+00
   TC4  TC3h  1 3.400000e-01    1.510000e+00
  TP6r   TC4  1 4.110000e-01    8.010000e-01
  TP5r   TC4  1 3.850000e-01    8.550000e-01
  TP4r   TC4  1 3.850000e-01    8.550000e-01
  TP3r   TC4  1 3.660000e-01    9.350000e-01
  TP2r   TC4  1 3.660000e-01    9.350000e-01
  TP1r   TC4  1 3.660000e-01    9.350000e-01
  TN6r   TC4  1 3.520000e-01    1.050000e+00
  TN5r   TC4  1 3.520000e-01    1.050000e+00
  TN4r   TC4  1 3.400000e-01    1.230000e+00
  TN3r   TC4  1 3.400000e-01    1.230000e+00
  TN2r   TC4  1 3.400000e-01    1.230000e+00
  TN1r   TC4  1 3.400000e-01    1.510000e+00
  TC6r   TC4  1 3.400000e-01    1.510000e+00
  TC5r   TC4  1 3.400000e-01    1.510000e+00
   TC4  TC4r  1 3.400000e-01    1.510000e+00
   TC4 TX1er  1 3.400000e-01    1.770000e+00
   TC4 TX2er  1 3.400000e-01    1.510000e+00
   TC4 TX3er  1 3.400000e-01    1.510000e+00
   TC4 TX4er  1 3.400000e-01    1.510000e+00
   TC4 TC1er  1 3.400000e-01    1.230000e+00
   TC4 TC2er  1 3.400000e-01    1.510000e+00
   TC4 TC3er  1 3.400000e-01    1.770000e+00
   TC4 TC4er  1 3.400000e-01    1.770000e+00
 TC5er   TC4  1 3.400000e-01    1.770000e+00
 TC6er   TC4  1 3.400000e-01    1.770000e+00
   TC4 TX1vr  1 3.400000e-01    1.770000e+00
   TC4 TX2vr  1 3.400000e-01    1.510000e+00
   TC4 TX3vr  1 3.400000e-01    1.510000e+00
   TC4 TX4vr  1 3.400000e-01    1.510000e+00
   TC4 TC1vr  1 3.400000e-01    1.230000e+00
   TC4 TC2vr  1 3.400000e-01    1.510000e+00
   TC4 TC3vr  1 3.400000e-01    1.770000e+00
   TC4 TC4vr  1 3.400000e-01    1.770000e+00
 TC5vr   TC4  1 3.400000e-01    1.770000e+00
 TC6vr   TC4  1 3.400000e-01    1.770000e+00
 TN1ar   TC4  1 3.400000e-01    1.510000e+00
 TN2ar   TC4  1 3.400000e-01    1.230000e+00
 TN3ar   TC4  1 3.400000e-01    1.230000e+00
 TN4ar   TC4  1 3.400000e-01    1.230000e+00
 TN5ar   TC4  1 3.520000e-01    1.050000e+00
 TN6ar   TC4  1 3.520000e-01    1.050000e+00
 TP1ar   TC4  1 3.660000e-01    9.350000e-01
 TP2ar   TC4  1 3.660000e-01    9.350000e-01
 TP3ar   TC4  1 3.660000e-01    9.350000e-01
 TP4ar   TC4  1 3.850000e-01    8.550000e-01
 TP5ar   TC4  1 3.850000e-01    8.550000e-01
 TP6ar   TC4  1 4.110000e-01    8.010000e-01
 TN1dr   TC4  1 3.400000e-01    1.510000e+00
 TN2dr   TC4  1 3.400000e-01    1.230000e+00
 TN3dr   TC4  1 3.400000e-01    1.230000e+00
 TN4dr   TC4  1 3.400000e-01    1.230000e+00
 TN5dr   TC4  1 3.520000e-01    1.050000e+00
 TN6dr   TC4  1 3.520000e-01    1.050000e+00
 TP1dr   TC4  1 3.660000e-01    9.350000e-01
 TP2dr   TC4  1 3.660000e-01    9.350000e-01
 TP3dr   TC4  1 3.660000e-01    9.350000e-01
 TP4dr   TC4  1 3.850000e-01    8.550000e-01
 TP5dr   TC4  1 3.850000e-01    8.550000e-01
 TP6dr   TC4  1 4.110000e-01    8.010000e-01
   TC4  TX1r  1 3.400000e-01    1.510000e+00
   TC4  TX2r  1 3.400000e-01    1.230000e+00
   TC4  TX3r  1 3.400000e-01    1.230000e+00
   TC4  TX4r  1 3.400000e-01    1.230000e+00
   TC4  TC1r  1 3.520000e-01    1.050000e+00
   TC4  TC2r  1 3.400000e-01    1.230000e+00
   TC4  TC3r  1 3.400000e-01    1.510000e+00
  SP6d   TC4  1 4.040000e-01    1.130000e+00
  SP5d   TC4  1 3.940000e-01    1.290000e+00
  SP4d   TC4  1 3.940000e-01    1.290000e+00
  SP3d   TC4  1 3.780000e-01    1.450000e+00
  SP2d   TC4  1 3.780000e-01    1.450000e+00
  SP1d   TC4  1 3.780000e-01    1.450000e+00
  SN6d   TC4  1 3.660000e-01    1.600000e+00
  SN5d   TC4  1 3.660000e-01    1.600000e+00
  SN4d   TC4  1 3.650000e-01    1.750000e+00
  SN3d   TC4  1 3.650000e-01    1.750000e+00
  SN2d   TC4  1 3.650000e-01    1.750000e+00
  SN1d   TC4  1 3.650000e-01    1.910000e+00
  SP6a   TC4  1 4.040000e-01    1.130000e+00
  SP5a   TC4  1 3.940000e-01    1.290000e+00
  SP4a   TC4  1 3.940000e-01    1.290000e+00
  SP3a   TC4  1 3.780000e-01    1.450000e+00
  SP2a   TC4  1 3.780000e-01    1.450000e+00
  SP1a   TC4  1 3.780000e-01    1.450000e+00
  SN6a   TC4  1 3.660000e-01    1.600000e+00
  SN5a   TC4  1 3.660000e-01    1.600000e+00
  SN4a   TC4  1 3.650000e-01    1.750000e+00
  SN3a   TC4  1 3.650000e-01    1.750000e+00
  SN2a   TC4  1 3.650000e-01    1.750000e+00
  SN1a   TC4  1 3.650000e-01    1.910000e+00
  SC6v   TC4  1 3.650000e-01    2.110000e+00
  SC5v   TC4  1 3.650000e-01    2.110000e+00
  SC6e   TC4  1 3.650000e-01    2.110000e+00
  SC5e   TC4  1 3.650000e-01    2.110000e+00
  SP6q   TC4  1 3.780000e-01    1.450000e+00
  SP5q   TC4  1 3.660000e-01    1.600000e+00
  SP4q   TC4  1 3.660000e-01    1.600000e+00
  SP3q   TC4  1 3.650000e-01    1.750000e+00
  SP2q   TC4  1 3.650000e-01    1.750000e+00
  SP1q   TC4  1 3.650000e-01    1.750000e+00
  SN6q   TC4  1 3.650000e-01    1.910000e+00
  SN5q   TC4  1 3.650000e-01    1.910000e+00
  SN4q   TC4  1 3.650000e-01    2.110000e+00
  SN3q   TC4  1 3.650000e-01    2.110000e+00
  SN2q   TC4  1 3.650000e-01    2.110000e+00
  SN1q   TC4  1 3.650000e-01    2.340000e+00
  SC6q   TC4  1 3.650000e-01    2.340000e+00
  SC5q   TC4  1 3.650000e-01    2.340000e+00
 SC5eq   TC4  1 3.650000e-01    2.570000e+00
 SC6eq   TC4  1 3.650000e-01    2.570000e+00
 SC5vq   TC4  1 3.650000e-01    2.570000e+00
 SC6vq   TC4  1 3.650000e-01    2.570000e+00
 SN1aq   TC4  1 3.650000e-01    2.340000e+00
 SN2aq   TC4  1 3.650000e-01    2.110000e+00
 SN3aq   TC4  1 3.650000e-01    2.110000e+00
 SN4aq   TC4  1 3.650000e-01    2.110000e+00
 SN5aq   TC4  1 3.650000e-01    1.910000e+00
 SN6aq   TC4  1 3.650000e-01    1.910000e+00
 SP1aq   TC4  1 3.650000e-01    1.750000e+00
 SP2aq   TC4  1 3.650000e-01    1.750000e+00
 SP3aq   TC4  1 3.650000e-01    1.750000e+00
 SP4aq   TC4  1 3.660000e-01    1.600000e+00
 SP5aq   TC4  1 3.660000e-01    1.600000e+00
 SP6aq   TC4  1 3.780000e-01    1.450000e+00
 SN1dq   TC4  1 3.650000e-01    2.340000e+00
 SN2dq   TC4  1 3.650000e-01    2.110000e+00
 SN3dq   TC4  1 3.650000e-01    2.110000e+00
 SN4dq   TC4  1 3.650000e-01    2.110000e+00
 SN5dq   TC4  1 3.650000e-01    1.910000e+00
 SN6dq   TC4  1 3.650000e-01    1.910000e+00
 SP1dq   TC4  1 3.650000e-01    1.750000e+00
 SP2dq   TC4  1 3.650000e-01    1.750000e+00
 SP3dq   TC4  1 3.650000e-01    1.750000e+00
 SP4dq   TC4  1 3.660000e-01    1.600000e+00
 SP5dq   TC4  1 3.660000e-01    1.600000e+00
 SP6dq   TC4  1 3.780000e-01    1.450000e+00
  SP6h   TC4  1 4.040000e-01    1.130000e+00
  SP5h   TC4  1 3.940000e-01    1.290000e+00
  SP4h   TC4  1 3.940000e-01    1.290000e+00
  SP3h   TC4  1 3.780000e-01    1.450000e+00
  SP2h   TC4  1 3.780000e-01    1.450000e+00
  SP1h   TC4  1 3.780000e-01    1.450000e+00
  SN6h   TC4  1 3.660000e-01    1.600000e+00
  SN5h   TC4  1 3.660000e-01    1.600000e+00
  SN4h   TC4  1 3.650000e-01    1.750000e+00
  SN3h   TC4  1 3.650000e-01    1.750000e+00
  SN2h   TC4  1 3.650000e-01    1.750000e+00
  SN1h   TC4  1 3.650000e-01    1.910000e+00
  SC6h   TC4  1 3.650000e-01    1.910000e+00
  SC5h   TC4  1 3.650000e-01    1.910000e+00
 SC5eh   TC4  1 3.650000e-01    2.110000e+00
 SC6eh   TC4  1 3.650000e-01    2.110000e+00
 SC5vh   TC4  1 3.650000e-01    2.110000e+00
 SC6vh   TC4  1 3.650000e-01    2.110000e+00
 SN1ah   TC4  1 3.650000e-01    1.910000e+00
 SN2ah   TC4  1 3.650000e-01    1.750000e+00
 SN3ah   TC4  1 3.650000e-01    1.750000e+00
 SN4ah   TC4  1 3.650000e-01    1.750000e+00
 SN5ah   TC4  1 3.660000e-01    1.600000e+00
 SN6ah   TC4  1 3.660000e-01    1.600000e+00
 SP1ah   TC4  1 3.780000e-01    1.450000e+00
 SP2ah   TC4  1 3.780000e-01    1.450000e+00
 SP3ah   TC4  1 3.780000e-01    1.450000e+00
 SP4ah   TC4  1 3.940000e-01    1.290000e+00
 SP5ah   TC4  1 3.940000e-01    1.290000e+00
 SP6ah   TC4  1 4.040000e-01    1.130000e+00
 SN1dh   TC4  1 3.650000e-01    1.910000e+00
 SN2dh   TC4  1 3.650000e-01    1.750000e+00
 SN3dh   TC4  1 3.650000e-01    1.750000e+00
 SN4dh   TC4  1 3.650000e-01    1.750000e+00
 SN5dh   TC4  1 3.660000e-01    1.600000e+00
 SN6dh   TC4  1 3.660000e-01    1.600000e+00
 SP1dh   TC4  1 3.780000e-01    1.450000e+00
 SP2dh   TC4  1 3.780000e-01    1.450000e+00
 SP3dh   TC4  1 3.780000e-01    1.450000e+00
 SP4dh   TC4  1 3.940000e-01    1.290000e+00
 SP5dh   TC4  1 3.940000e-01    1.290000e+00
 SP6dh   TC4  1 4.040000e-01    1.130000e+00
  SP6r   TC4  1 4.040000e-01    1.130000e+00
  SP5r   TC4  1 3.940000e-01    1.290000e+00
  SP4r   TC4  1 3.940000e-01    1.290000e+00
  SP3r   TC4  1 3.780000e-01    1.450000e+00
  SP2r   TC4  1 3.780000e-01    1.450000e+00
  SP1r   TC4  1 3.780000e-01    1.450000e+00
  SN6r   TC4  1 3.660000e-01    1.600000e+00
  SN5r   TC4  1 3.660000e-01    1.600000e+00
  SN4r   TC4  1 3.650000e-01    1.750000e+00
  SN3r   TC4  1 3.650000e-01    1.750000e+00
  SN2r   TC4  1 3.650000e-01    1.750000e+00
  SN1r   TC4  1 3.650000e-01    1.910000e+00
  SC6r   TC4  1 3.650000e-01    1.910000e+00
  SC5r   TC4  1 3.650000e-01    1.910000e+00
 SC5er   TC4  1 3.650000e-01    2.110000e+00
 SC6er   TC4  1 3.650000e-01    2.110000e+00
 SC5vr   TC4  1 3.650000e-01    2.110000e+00
 SC6vr   TC4  1 3.650000e-01    2.110000e+00
 SN1ar   TC4  1 3.650000e-01    1.910000e+00
 SN2ar   TC4  1 3.650000e-01    1.750000e+00
 SN3ar   TC4  1 3.650000e-01    1.750000e+00
 SN4ar   TC4  1 3.650000e-01    1.750000e+00
 SN5ar   TC4  1 3.660000e-01    1.600000e+00
 SN6ar   TC4  1 3.660000e-01    1.600000e+00
 SP1ar   TC4  1 3.780000e-01    1.450000e+00
 SP2ar   TC4  1 3.780000e-01    1.450000e+00
 SP3ar   TC4  1 3.780000e-01    1.450000e+00
 SP4ar   TC4  1 3.940000e-01    1.290000e+00
 SP5ar   TC4  1 3.940000e-01    1.290000e+00
 SP6ar   TC4  1 4.040000e-01    1.130000e+00
 SN1dr   TC4  1 3.650000e-01    1.910000e+00
 SN2dr   TC4  1 3.650000e-01    1.750000e+00
 SN3dr   TC4  1 3.650000e-01    1.750000e+00
 SN4dr   TC4  1 3.650000e-01    1.750000e+00
 SN5dr   TC4  1 3.660000e-01    1.600000e+00
 SN6dr   TC4  1 3.660000e-01    1.600000e+00
 SP1dr   TC4  1 3.780000e-01    1.450000e+00
 SP2dr   TC4  1 3.780000e-01    1.450000e+00
 SP3dr   TC4  1 3.780000e-01    1.450000e+00
 SP4dr   TC4  1 3.940000e-01    1.290000e+00
 SP5dr   TC4  1 3.940000e-01    1.290000e+00
 SP6dr   TC4  1 4.040000e-01    1.130000e+00
   TC4   SC3  1 3.650000e-01    1.910000e+00
   TC4   SC2  1 3.650000e-01    1.750000e+00
   TC4   SC1  1 3.660000e-01    1.600000e+00
   TC4   SX4  1 3.650000e-01    1.750000e+00
   TC4   SX3  1 3.650000e-01    1.750000e+00
   TC4   SX2  1 3.650000e-01    1.750000e+00
   TC4   SX1  1 3.650000e-01    1.910000e+00
   TC4  SC4v  1 3.650000e-01    2.110000e+00
   TC4  SX1v  1 3.650000e-01    2.110000e+00
   TC4  SX2v  1 3.650000e-01    1.910000e+00
   TC4  SX3v  1 3.650000e-01    1.910000e+00
   TC4  SX4v  1 3.650000e-01    1.910000e+00
   TC4  SC1v  1 3.650000e-01    1.750000e+00
   TC4  SC2v  1 3.650000e-01    1.910000e+00
   TC4  SC3v  1 3.650000e-01    2.110000e+00
   TC4  SC4e  1 3.650000e-01    2.110000e+00
   TC4  SX1e  1 3.650000e-01    2.110000e+00
   TC4  SX2e  1 3.650000e-01    1.910000e+00
   TC4  SX3e  1 3.650000e-01    1.910000e+00
   TC4  SX4e  1 3.650000e-01    1.910000e+00
   TC4  SC1e  1 3.650000e-01    1.750000e+00
   TC4  SC2e  1 3.650000e-01    1.910000e+00
   TC4  SC3e  1 3.650000e-01    2.110000e+00
   TC4  SC4q  1 3.650000e-01    2.340000e+00
   TC4 SX1eq  1 3.650000e-01    2.570000e+00
   TC4 SX2eq  1 3.650000e-01    2.340000e+00
   TC4 SX3eq  1 3.650000e-01    2.340000e+00
   TC4 SX4eq  1 3.650000e-01    2.340000e+00
   TC4 SC1eq  1 3.650000e-01    2.110000e+00
   TC4 SC2eq  1 3.650000e-01    2.340000e+00
   TC4 SC3eq  1 3.650000e-01    2.570000e+00
   TC4 SC4eq  1 3.650000e-01    2.570000e+00
   TC4 SX1vq  1 3.650000e-01    2.570000e+00
   TC4 SX2vq  1 3.650000e-01    2.340000e+00
   TC4 SX3vq  1 3.650000e-01    2.340000e+00
   TC4 SX4vq  1 3.650000e-01    2.340000e+00
   TC4 SC1vq  1 3.650000e-01    2.110000e+00
   TC4 SC2vq  1 3.650000e-01    2.340000e+00
   TC4 SC3vq  1 3.650000e-01    2.570000e+00
   TC4 SC4vq  1 3.650000e-01    2.570000e+00
   TC4  SX1q  1 3.650000e-01    2.340000e+00
   TC4  SX2q  1 3.650000e-01    2.110000e+00
   TC4  SX3q  1 3.650000e-01    2.110000e+00
   TC4  SX4q  1 3.650000e-01    2.110000e+00
   TC4  SC1q  1 3.650000e-01    1.910000e+00
   TC4  SC2q  1 3.650000e-01    2.110000e+00
   TC4  SC3q  1 3.650000e-01    2.340000e+00
   TC4  SC4h  1 3.650000e-01    1.910000e+00
   TC4 SX1eh  1 3.650000e-01    2.110000e+00
   TC4 SX2eh  1 3.650000e-01    1.910000e+00
   TC4 SX3eh  1 3.650000e-01    1.910000e+00
   TC4 SX4eh  1 3.650000e-01    1.910000e+00
   TC4 SC1eh  1 3.650000e-01    1.750000e+00
   TC4 SC2eh  1 3.650000e-01    1.910000e+00
   TC4 SC3eh  1 3.650000e-01    2.110000e+00
   TC4 SC4eh  1 3.650000e-01    2.110000e+00
   TC4 SX1vh  1 3.650000e-01    2.110000e+00
   TC4 SX2vh  1 3.650000e-01    1.910000e+00
   TC4 SX3vh  1 3.650000e-01    1.910000e+00
   TC4 SX4vh  1 3.650000e-01    1.910000e+00
   TC4 SC1vh  1 3.650000e-01    1.750000e+00
   TC4 SC2vh  1 3.650000e-01    1.910000e+00
   TC4 SC3vh  1 3.650000e-01    2.110000e+00
   TC4 SC4vh  1 3.650000e-01    2.110000e+00
   TC4  SX1h  1 3.650000e-01    1.910000e+00
   TC4  SX2h  1 3.650000e-01    1.750000e+00
   TC4  SX3h  1 3.650000e-01    1.750000e+00
   TC4  SX4h  1 3.650000e-01    1.750000e+00
   TC4  SC1h  1 3.660000e-01    1.600000e+00
   TC4  SC2h  1 3.650000e-01    1.750000e+00
   TC4  SC3h  1 3.650000e-01    1.910000e+00
   TC4  SC4r  1 3.650000e-01    1.910000e+00
   TC4 SX1er  1 3.650000e-01    2.110000e+00
   TC4 SX2er  1 3.650000e-01    1.910000e+00
   TC4 SX3er  1 3.650000e-01    1.910000e+00
   TC4 SX4er  1 3.650000e-01    1.910000e+00
   TC4 SC1er  1 3.650000e-01    1.750000e+00
   TC4 SC2er  1 3.650000e-01    1.910000e+00
   TC4 SC3er  1 3.650000e-01    2.110000e+00
   TC4 SC4er  1 3.650000e-01    2.110000e+00
   TC4 SX1vr  1 3.650000e-01    2.110000e+00
   TC4 SX2vr  1 3.650000e-01    1.910000e+00
   TC4 SX3vr  1 3.650000e-01    1.910000e+00
   TC4 SX4vr  1 3.650000e-01    1.910000e+00
   TC4 SC1vr  1 3.650000e-01    1.750000e+00
   TC4 SC2vr  1 3.650000e-01    1.910000e+00
   TC4 SC3vr  1 3.650000e-01    2.110000e+00
   TC4 SC4vr  1 3.650000e-01    2.110000e+00
   TC4  SX1r  1 3.650000e-01    1.910000e+00
   TC4  SX2r  1 3.650000e-01    1.750000e+00
   TC4  SX3r  1 3.650000e-01    1.750000e+00
   TC4  SX4r  1 3.650000e-01    1.750000e+00
   TC4  SC1r  1 3.660000e-01    1.600000e+00
   TC4  SC2r  1 3.650000e-01    1.750000e+00
   TC4  SC3r  1 3.650000e-01    1.910000e+00
    C3    C3  1 4.700000e-01    3.390000e+00
    C3    C2  1 4.700000e-01    3.390000e+00
    C3    C1  1 4.700000e-01    3.390000e+00
    C3    X4  1 4.700000e-01    3.240000e+00
    C3    X3  1 4.700000e-01    3.240000e+00
    C3    X2  1 4.700000e-01    3.240000e+00
    C3    X1  1 4.700000e-01    3.390000e+00
   P6d    C3  1 4.700000e-01    2.440000e+00
   P5d    C3  1 4.700000e-01    2.620000e+00
   P4d    C3  1 4.700000e-01    2.620000e+00
   P3d    C3  1 4.700000e-01    2.620000e+00
   P2d    C3  1 4.700000e-01    2.790000e+00
   P1d    C3  1 4.700000e-01    2.790000e+00
   N6d    C3  1 4.700000e-01    2.960000e+00
   N5d    C3  1 4.700000e-01    3.070000e+00
   N4d    C3  1 4.700000e-01    3.070000e+00
   N3d    C3  1 4.700000e-01    3.070000e+00
   N2d    C3  1 4.700000e-01    3.240000e+00
   N1d    C3  1 4.700000e-01    3.240000e+00
   P6a    C3  1 4.700000e-01    2.440000e+00
   P5a    C3  1 4.700000e-01    2.620000e+00
   P4a    C3  1 4.700000e-01    2.620000e+00
   P3a    C3  1 4.700000e-01    2.620000e+00
   P2a    C3  1 4.700000e-01    2.790000e+00
   P1a    C3  1 4.700000e-01    2.790000e+00
   N6a    C3  1 4.700000e-01    2.960000e+00
   N5a    C3  1 4.700000e-01    3.070000e+00
   N4a    C3  1 4.700000e-01    3.070000e+00
   N3a    C3  1 4.700000e-01    3.070000e+00
   N2a    C3  1 4.700000e-01    3.240000e+00
   N1a    C3  1 4.700000e-01    3.240000e+00
   C6v    C3  1 4.700000e-01    3.390000e+00
   C5v    C3  1 4.700000e-01    3.390000e+00
   C4v    C3  1 4.700000e-01    3.520000e+00
    C3   C3v  1 4.700000e-01    3.520000e+00
    C3   X1v  1 4.700000e-01    3.520000e+00
    C3   X2v  1 4.700000e-01    3.390000e+00
    C3   X3v  1 4.700000e-01    3.390000e+00
    C3   X4v  1 4.700000e-01    3.390000e+00
    C3   C1v  1 4.700000e-01    3.520000e+00
    C3   C2v  1 4.700000e-01    3.520000e+00
   C6e    C3  1 4.700000e-01    3.390000e+00
   C5e    C3  1 4.700000e-01    3.390000e+00
   C4e    C3  1 4.700000e-01    3.520000e+00
    C3   C3e  1 4.700000e-01    3.520000e+00
    C3   X1e  1 4.700000e-01    3.520000e+00
    C3   X2e  1 4.700000e-01    3.390000e+00
    C3   X3e  1 4.700000e-01    3.390000e+00
    C3   X4e  1 4.700000e-01    3.390000e+00
    C3   C1e  1 4.700000e-01    3.520000e+00
    C3   C2e  1 4.700000e-01    3.520000e+00
   P6q    C3  1 4.700000e-01    2.790000e+00
   P5q    C3  1 4.700000e-01    2.960000e+00
   P4q    C3  1 4.700000e-01    2.960000e+00
   P3q    C3  1 4.700000e-01    2.960000e+00
   P2q    C3  1 4.700000e-01    3.070000e+00
   P1q    C3  1 4.700000e-01    3.070000e+00
   N6q    C3  1 4.700000e-01    3.240000e+00
   N5q    C3  1 4.700000e-01    3.390000e+00
   N4q    C3  1 4.700000e-01    3.390000e+00
   N3q    C3  1 4.700000e-01    3.390000e+00
   N2q    C3  1 4.700000e-01    3.520000e+00
   N1q    C3  1 4.700000e-01    3.520000e+00
   C6q    C3  1 4.700000e-01    3.520000e+00
   C5q    C3  1 4.700000e-01    3.520000e+00
   C4q    C3  1 4.700000e-01    3.690000e+00
    C3   C3q  1 4.700000e-01    3.690000e+00
    C3  X1eq  1 4.700000e-01    3.880000e+00
    C3  X2eq  1 4.700000e-01    3.690000e+00
    C3  X3eq  1 4.700000e-01    3.690000e+00
    C3  X4eq  1 4.700000e-01    3.690000e+00
    C3  C1eq  1 4.700000e-01    3.880000e+00
    C3  C2eq  1 4.700000e-01    3.880000e+00
    C3  C3eq  1 4.700000e-01    3.880000e+00
  C4eq    C3  1 4.700000e-01    3.880000e+00
  C5eq    C3  1 4.700000e-01    3.690000e+00
  C6eq    C3  1 4.700000e-01    3.690000e+00
    C3  X1vq  1 4.700000e-01    3.880000e+00
    C3  X2vq  1 4.700000e-01    3.690000e+00
    C3  X3vq  1 4.700000e-01    3.690000e+00
    C3  X4vq  1 4.700000e-01    3.690000e+00
    C3  C1vq  1 4.700000e-01    3.880000e+00
    C3  C2vq  1 4.700000e-01    3.880000e+00
    C3  C3vq  1 4.700000e-01    3.880000e+00
  C4vq    C3  1 4.700000e-01    3.880000e+00
  C5vq    C3  1 4.700000e-01    3.690000e+00
  C6vq    C3  1 4.700000e-01    3.690000e+00
  N1aq    C3  1 4.700000e-01    3.520000e+00
  N2aq    C3  1 4.700000e-01    3.520000e+00
  N3aq    C3  1 4.700000e-01    3.390000e+00
  N4aq    C3  1 4.700000e-01    3.390000e+00
  N5aq    C3  1 4.700000e-01    3.390000e+00
  N6aq    C3  1 4.700000e-01    3.240000e+00
  P1aq    C3  1 4.700000e-01    3.070000e+00
  P2aq    C3  1 4.700000e-01    3.070000e+00
  P3aq    C3  1 4.700000e-01    2.960000e+00
  P4aq    C3  1 4.700000e-01    2.960000e+00
  P5aq    C3  1 4.700000e-01    2.960000e+00
  P6aq    C3  1 4.700000e-01    2.790000e+00
  N1dq    C3  1 4.700000e-01    3.520000e+00
  N2dq    C3  1 4.700000e-01    3.520000e+00
  N3dq    C3  1 4.700000e-01    3.390000e+00
  N4dq    C3  1 4.700000e-01    3.390000e+00
  N5dq    C3  1 4.700000e-01    3.390000e+00
  N6dq    C3  1 4.700000e-01    3.240000e+00
  P1dq    C3  1 4.700000e-01    3.070000e+00
  P2dq    C3  1 4.700000e-01    3.070000e+00
  P3dq    C3  1 4.700000e-01    2.960000e+00
  P4dq    C3  1 4.700000e-01    2.960000e+00
  P5dq    C3  1 4.700000e-01    2.960000e+00
  P6dq    C3  1 4.700000e-01    2.790000e+00
    C3   X1q  1 4.700000e-01    3.690000e+00
    C3   X2q  1 4.700000e-01    3.520000e+00
    C3   X3q  1 4.700000e-01    3.520000e+00
    C3   X4q  1 4.700000e-01    3.520000e+00
    C3   C1q  1 4.700000e-01    3.690000e+00
    C3   C2q  1 4.700000e-01    3.690000e+00
   P6h    C3  1 4.700000e-01    2.440000e+00
   P5h    C3  1 4.700000e-01    2.620000e+00
   P4h    C3  1 4.700000e-01    2.620000e+00
   P3h    C3  1 4.700000e-01    2.620000e+00
   P2h    C3  1 4.700000e-01    2.790000e+00
   P1h    C3  1 4.700000e-01    2.790000e+00
   N6h    C3  1 4.700000e-01    2.960000e+00
   N5h    C3  1 4.700000e-01    3.070000e+00
   N4h    C3  1 4.700000e-01    3.070000e+00
   N3h    C3  1 4.700000e-01    3.070000e+00
   N2h    C3  1 4.700000e-01    3.240000e+00
   N1h    C3  1 4.700000e-01    3.240000e+00
   C6h    C3  1 4.700000e-01    3.240000e+00
   C5h    C3  1 4.700000e-01    3.240000e+00
   C4h    C3  1 4.700000e-01    3.390000e+00
    C3   C3h  1 4.700000e-01    3.390000e+00
    C3  X1eh  1 4.700000e-01    3.520000e+00
    C3  X2eh  1 4.700000e-01    3.390000e+00
    C3  X3eh  1 4.700000e-01    3.390000e+00
    C3  X4eh  1 4.700000e-01    3.390000e+00
    C3  C1eh  1 4.700000e-01    3.520000e+00
    C3  C2eh  1 4.700000e-01    3.520000e+00
    C3  C3eh  1 4.700000e-01    3.520000e+00
  C4eh    C3  1 4.700000e-01    3.520000e+00
  C5eh    C3  1 4.700000e-01    3.390000e+00
  C6eh    C3  1 4.700000e-01    3.390000e+00
    C3  X1vh  1 4.700000e-01    3.520000e+00
    C3  X2vh  1 4.700000e-01    3.390000e+00
    C3  X3vh  1 4.700000e-01    3.390000e+00
    C3  X4vh  1 4.700000e-01    3.390000e+00
    C3  C1vh  1 4.700000e-01    3.520000e+00
    C3  C2vh  1 4.700000e-01    3.520000e+00
    C3  C3vh  1 4.700000e-01    3.520000e+00
  C4vh    C3  1 4.700000e-01    3.520000e+00
  C5vh    C3  1 4.700000e-01    3.390000e+00
  C6vh    C3  1 4.700000e-01    3.390000e+00
  N1ah    C3  1 4.700000e-01    3.240000e+00
  N2ah    C3  1 4.700000e-01    3.240000e+00
  N3ah    C3  1 4.700000e-01    3.070000e+00
  N4ah    C3  1 4.700000e-01    3.070000e+00
  N5ah    C3  1 4.700000e-01    3.070000e+00
  N6ah    C3  1 4.700000e-01    2.960000e+00
  P1ah    C3  1 4.700000e-01    2.790000e+00
  P2ah    C3  1 4.700000e-01    2.790000e+00
  P3ah    C3  1 4.700000e-01    2.620000e+00
  P4ah    C3  1 4.700000e-01    2.620000e+00
  P5ah    C3  1 4.700000e-01    2.620000e+00
  P6ah    C3  1 4.700000e-01    2.440000e+00
  N1dh    C3  1 4.700000e-01    3.240000e+00
  N2dh    C3  1 4.700000e-01    3.240000e+00
  N3dh    C3  1 4.700000e-01    3.070000e+00
  N4dh    C3  1 4.700000e-01    3.070000e+00
  N5dh    C3  1 4.700000e-01    3.070000e+00
  N6dh    C3  1 4.700000e-01    2.960000e+00
  P1dh    C3  1 4.700000e-01    2.790000e+00
  P2dh    C3  1 4.700000e-01    2.790000e+00
  P3dh    C3  1 4.700000e-01    2.620000e+00
  P4dh    C3  1 4.700000e-01    2.620000e+00
  P5dh    C3  1 4.700000e-01    2.620000e+00
  P6dh    C3  1 4.700000e-01    2.440000e+00
    C3   X1h  1 4.700000e-01    3.390000e+00
    C3   X2h  1 4.700000e-01    3.240000e+00
    C3   X3h  1 4.700000e-01    3.240000e+00
    C3   X4h  1 4.700000e-01    3.240000e+00
    C3   C1h  1 4.700000e-01    3.390000e+00
    C3   C2h  1 4.700000e-01    3.390000e+00
   P6r    C3  1 4.700000e-01    2.440000e+00
   P5r    C3  1 4.700000e-01    2.620000e+00
   P4r    C3  1 4.700000e-01    2.620000e+00
   P3r    C3  1 4.700000e-01    2.620000e+00
   P2r    C3  1 4.700000e-01    2.790000e+00
   P1r    C3  1 4.700000e-01    2.790000e+00
   N6r    C3  1 4.700000e-01    2.960000e+00
   N5r    C3  1 4.700000e-01    3.070000e+00
   N4r    C3  1 4.700000e-01    3.070000e+00
   N3r    C3  1 4.700000e-01    3.070000e+00
   N2r    C3  1 4.700000e-01    3.240000e+00
   N1r    C3  1 4.700000e-01    3.240000e+00
   C6r    C3  1 4.700000e-01    3.240000e+00
   C5r    C3  1 4.700000e-01    3.240000e+00
   C4r    C3  1 4.700000e-01    3.390000e+00
    C3   C3r  1 4.700000e-01    3.390000e+00
    C3  X1er  1 4.700000e-01    3.520000e+00
    C3  X2er  1 4.700000e-01    3.390000e+00
    C3  X3er  1 4.700000e-01    3.390000e+00
    C3  X4er  1 4.700000e-01    3.390000e+00
    C3  C1er  1 4.700000e-01    3.520000e+00
    C3  C2er  1 4.700000e-01    3.520000e+00
    C3  C3er  1 4.700000e-01    3.520000e+00
  C4er    C3  1 4.700000e-01    3.520000e+00
  C5er    C3  1 4.700000e-01    3.390000e+00
  C6er    C3  1 4.700000e-01    3.390000e+00
    C3  X1vr  1 4.700000e-01    3.520000e+00
    C3  X2vr  1 4.700000e-01    3.390000e+00
    C3  X3vr  1 4.700000e-01    3.390000e+00
    C3  X4vr  1 4.700000e-01    3.390000e+00
    C3  C1vr  1 4.700000e-01    3.520000e+00
    C3  C2vr  1 4.700000e-01    3.520000e+00
    C3  C3vr  1 4.700000e-01    3.520000e+00
  C4vr    C3  1 4.700000e-01    3.520000e+00
  C5vr    C3  1 4.700000e-01    3.390000e+00
  C6vr    C3  1 4.700000e-01    3.390000e+00
  N1ar    C3  1 4.700000e-01    3.240000e+00
  N2ar    C3  1 4.700000e-01    3.240000e+00
  N3ar    C3  1 4.700000e-01    3.070000e+00
  N4ar    C3  1 4.700000e-01    3.070000e+00
  N5ar    C3  1 4.700000e-01    3.070000e+00
  N6ar    C3  1 4.700000e-01    2.960000e+00
  P1ar    C3  1 4.700000e-01    2.790000e+00
  P2ar    C3  1 4.700000e-01    2.790000e+00
  P3ar    C3  1 4.700000e-01    2.620000e+00
  P4ar    C3  1 4.700000e-01    2.620000e+00
  P5ar    C3  1 4.700000e-01    2.620000e+00
  P6ar    C3  1 4.700000e-01    2.440000e+00
  N1dr    C3  1 4.700000e-01    3.240000e+00
  N2dr    C3  1 4.700000e-01    3.240000e+00
  N3dr    C3  1 4.700000e-01    3.070000e+00
  N4dr    C3  1 4.700000e-01    3.070000e+00
  N5dr    C3  1 4.700000e-01    3.070000e+00
  N6dr    C3  1 4.700000e-01    2.960000e+00
  P1dr    C3  1 4.700000e-01    2.790000e+00
  P2dr    C3  1 4.700000e-01    2.790000e+00
  P3dr    C3  1 4.700000e-01    2.620000e+00
  P4dr    C3  1 4.700000e-01    2.620000e+00
  P5dr    C3  1 4.700000e-01    2.620000e+00
  P6dr    C3  1 4.700000e-01    2.440000e+00
    C3   X1r  1 4.700000e-01    3.390000e+00
    C3   X2r  1 4.700000e-01    3.240000e+00
    C3   X3r  1 4.700000e-01    3.240000e+00
    C3   X4r  1 4.700000e-01    3.240000e+00
    C3   C1r  1 4.700000e-01    3.390000e+00
    C3   C2r  1 4.700000e-01    3.390000e+00
    C3   SC3  1 4.300000e-01    2.920000e+00
    C3   SC2  1 4.300000e-01    2.920000e+00
    C3   SC1  1 4.300000e-01    2.920000e+00
    C3   SX4  1 4.300000e-01    2.770000e+00
    C3   SX3  1 4.300000e-01    2.770000e+00
    C3   SX2  1 4.300000e-01    2.770000e+00
    C3   SX1  1 4.300000e-01    2.920000e+00
    C3  SC3v  1 4.300000e-01    3.160000e+00
    C3  SX1v  1 4.300000e-01    3.160000e+00
    C3  SX2v  1 4.300000e-01    2.920000e+00
    C3  SX3v  1 4.300000e-01    2.920000e+00
    C3  SX4v  1 4.300000e-01    2.920000e+00
    C3  SC1v  1 4.300000e-01    3.160000e+00
    C3  SC2v  1 4.300000e-01    3.160000e+00
    C3  SC3e  1 4.300000e-01    3.160000e+00
    C3  SX1e  1 4.300000e-01    3.160000e+00
    C3  SX2e  1 4.300000e-01    2.920000e+00
    C3  SX3e  1 4.300000e-01    2.920000e+00
    C3  SX4e  1 4.300000e-01    2.920000e+00
    C3  SC1e  1 4.300000e-01    3.160000e+00
    C3  SC2e  1 4.300000e-01    3.160000e+00
    C3  SC3q  1 4.300000e-01    3.380000e+00
    C3 SX1eq  1 4.300000e-01    3.590000e+00
    C3 SX2eq  1 4.300000e-01    3.380000e+00
    C3 SX3eq  1 4.300000e-01    3.380000e+00
    C3 SX4eq  1 4.300000e-01    3.380000e+00
    C3 SC1eq  1 4.300000e-01    3.590000e+00
    C3 SC2eq  1 4.300000e-01    3.590000e+00
    C3 SC3eq  1 4.300000e-01    3.590000e+00
    C3 SX1vq  1 4.300000e-01    3.590000e+00
    C3 SX2vq  1 4.300000e-01    3.380000e+00
    C3 SX3vq  1 4.300000e-01    3.380000e+00
    C3 SX4vq  1 4.300000e-01    3.380000e+00
    C3 SC1vq  1 4.300000e-01    3.590000e+00
    C3 SC2vq  1 4.300000e-01    3.590000e+00
    C3 SC3vq  1 4.300000e-01    3.590000e+00
    C3  SX1q  1 4.300000e-01    3.380000e+00
    C3  SX2q  1 4.300000e-01    3.160000e+00
    C3  SX3q  1 4.300000e-01    3.160000e+00
    C3  SX4q  1 4.300000e-01    3.160000e+00
    C3  SC1q  1 4.300000e-01    3.380000e+00
    C3  SC2q  1 4.300000e-01    3.380000e+00
    C3  SC3h  1 4.300000e-01    2.920000e+00
    C3 SX1eh  1 4.300000e-01    3.160000e+00
    C3 SX2eh  1 4.300000e-01    2.920000e+00
    C3 SX3eh  1 4.300000e-01    2.920000e+00
    C3 SX4eh  1 4.300000e-01    2.920000e+00
    C3 SC1eh  1 4.300000e-01    3.160000e+00
    C3 SC2eh  1 4.300000e-01    3.160000e+00
    C3 SC3eh  1 4.300000e-01    3.160000e+00
    C3 SX1vh  1 4.300000e-01    3.160000e+00
    C3 SX2vh  1 4.300000e-01    2.920000e+00
    C3 SX3vh  1 4.300000e-01    2.920000e+00
    C3 SX4vh  1 4.300000e-01    2.920000e+00
    C3 SC1vh  1 4.300000e-01    3.160000e+00
    C3 SC2vh  1 4.300000e-01    3.160000e+00
    C3 SC3vh  1 4.300000e-01    3.160000e+00
    C3  SX1h  1 4.300000e-01    2.920000e+00
    C3  SX2h  1 4.300000e-01    2.770000e+00
    C3  SX3h  1 4.300000e-01    2.770000e+00
    C3  SX4h  1 4.300000e-01    2.770000e+00
    C3  SC1h  1 4.300000e-01    2.920000e+00
    C3  SC2h  1 4.300000e-01    2.920000e+00
    C3  SC3r  1 4.300000e-01    2.920000e+00
    C3 SX1er  1 4.300000e-01    3.160000e+00
    C3 SX2er  1 4.300000e-01    2.920000e+00
    C3 SX3er  1 4.300000e-01    2.920000e+00
    C3 SX4er  1 4.300000e-01    2.920000e+00
    C3 SC1er  1 4.300000e-01    3.160000e+00
    C3 SC2er  1 4.300000e-01    3.160000e+00
    C3 SC3er  1 4.300000e-01    3.160000e+00
    C3 SX1vr  1 4.300000e-01    3.160000e+00
    C3 SX2vr  1 4.300000e-01    2.920000e+00
    C3 SX3vr  1 4.300000e-01    2.920000e+00
    C3 SX4vr  1 4.300000e-01    2.920000e+00
    C3 SC1vr  1 4.300000e-01    3.160000e+00
    C3 SC2vr  1 4.300000e-01    3.160000e+00
    C3 SC3vr  1 4.300000e-01    3.160000e+00
    C3  SX1r  1 4.300000e-01    2.920000e+00
    C3  SX2r  1 4.300000e-01    2.770000e+00
    C3  SX3r  1 4.300000e-01    2.770000e+00
    C3  SX4r  1 4.300000e-01    2.770000e+00
    C3  SC1r  1 4.300000e-01    2.920000e+00
    C3  SC2r  1 4.300000e-01    2.920000e+00
  SP6d    C3  1 4.300000e-01    1.730000e+00
  SP5d    C3  1 4.300000e-01    1.930000e+00
  SP4d    C3  1 4.300000e-01    1.930000e+00
  SP3d    C3  1 4.300000e-01    1.930000e+00
  SP2d    C3  1 4.300000e-01    2.160000e+00
  SP1d    C3  1 4.300000e-01    2.160000e+00
  SN6d    C3  1 4.300000e-01    2.320000e+00
  SN5d    C3  1 4.300000e-01    2.530000e+00
  SN4d    C3  1 4.300000e-01    2.530000e+00
  SN3d    C3  1 4.300000e-01    2.530000e+00
  SN2d    C3  1 4.300000e-01    2.770000e+00
  SN1d    C3  1 4.300000e-01    2.770000e+00
  SP6a    C3  1 4.300000e-01    1.730000e+00
  SP5a    C3  1 4.300000e-01    1.930000e+00
  SP4a    C3  1 4.300000e-01    1.930000e+00
  SP3a    C3  1 4.300000e-01    1.930000e+00
  SP2a    C3  1 4.300000e-01    2.160000e+00
  SP1a    C3  1 4.300000e-01    2.160000e+00
  SN6a    C3  1 4.300000e-01    2.320000e+00
  SN5a    C3  1 4.300000e-01    2.530000e+00
  SN4a    C3  1 4.300000e-01    2.530000e+00
  SN3a    C3  1 4.300000e-01    2.530000e+00
  SN2a    C3  1 4.300000e-01    2.770000e+00
  SN1a    C3  1 4.300000e-01    2.770000e+00
  SC6v    C3  1 4.300000e-01    2.920000e+00
  SC5v    C3  1 4.300000e-01    2.920000e+00
  SC4v    C3  1 4.300000e-01    3.160000e+00
  SC6e    C3  1 4.300000e-01    2.920000e+00
  SC5e    C3  1 4.300000e-01    2.920000e+00
  SC4e    C3  1 4.300000e-01    3.160000e+00
  SP6q    C3  1 4.300000e-01    2.160000e+00
  SP5q    C3  1 4.300000e-01    2.320000e+00
  SP4q    C3  1 4.300000e-01    2.320000e+00
  SP3q    C3  1 4.300000e-01    2.320000e+00
  SP2q    C3  1 4.300000e-01    2.530000e+00
  SP1q    C3  1 4.300000e-01    2.530000e+00
  SN6q    C3  1 4.300000e-01    2.770000e+00
  SN5q    C3  1 4.300000e-01    2.920000e+00
  SN4q    C3  1 4.300000e-01    2.920000e+00
  SN3q    C3  1 4.300000e-01    2.920000e+00
  SN2q    C3  1 4.300000e-01    3.160000e+00
  SN1q    C3  1 4.300000e-01    3.160000e+00
  SC6q    C3  1 4.300000e-01    3.160000e+00
  SC5q    C3  1 4.300000e-01    3.160000e+00
  SC4q    C3  1 4.300000e-01    3.380000e+00
 SC4eq    C3  1 4.300000e-01    3.590000e+00
 SC5eq    C3  1 4.300000e-01    3.380000e+00
 SC6eq    C3  1 4.300000e-01    3.380000e+00
 SC4vq    C3  1 4.300000e-01    3.590000e+00
 SC5vq    C3  1 4.300000e-01    3.380000e+00
 SC6vq    C3  1 4.300000e-01    3.380000e+00
 SN1aq    C3  1 4.300000e-01    3.160000e+00
 SN2aq    C3  1 4.300000e-01    3.160000e+00
 SN3aq    C3  1 4.300000e-01    2.920000e+00
 SN4aq    C3  1 4.300000e-01    2.920000e+00
 SN5aq    C3  1 4.300000e-01    2.920000e+00
 SN6aq    C3  1 4.300000e-01    2.770000e+00
 SP1aq    C3  1 4.300000e-01    2.530000e+00
 SP2aq    C3  1 4.300000e-01    2.530000e+00
 SP3aq    C3  1 4.300000e-01    2.320000e+00
 SP4aq    C3  1 4.300000e-01    2.320000e+00
 SP5aq    C3  1 4.300000e-01    2.320000e+00
 SP6aq    C3  1 4.300000e-01    2.160000e+00
 SN1dq    C3  1 4.300000e-01    3.160000e+00
 SN2dq    C3  1 4.300000e-01    3.160000e+00
 SN3dq    C3  1 4.300000e-01    2.920000e+00
 SN4dq    C3  1 4.300000e-01    2.920000e+00
 SN5dq    C3  1 4.300000e-01    2.920000e+00
 SN6dq    C3  1 4.300000e-01    2.770000e+00
 SP1dq    C3  1 4.300000e-01    2.530000e+00
 SP2dq    C3  1 4.300000e-01    2.530000e+00
 SP3dq    C3  1 4.300000e-01    2.320000e+00
 SP4dq    C3  1 4.300000e-01    2.320000e+00
 SP5dq    C3  1 4.300000e-01    2.320000e+00
 SP6dq    C3  1 4.300000e-01    2.160000e+00
  SP6h    C3  1 4.300000e-01    1.730000e+00
  SP5h    C3  1 4.300000e-01    1.930000e+00
  SP4h    C3  1 4.300000e-01    1.930000e+00
  SP3h    C3  1 4.300000e-01    1.930000e+00
  SP2h    C3  1 4.300000e-01    2.160000e+00
  SP1h    C3  1 4.300000e-01    2.160000e+00
  SN6h    C3  1 4.300000e-01    2.320000e+00
  SN5h    C3  1 4.300000e-01    2.530000e+00
  SN4h    C3  1 4.300000e-01    2.530000e+00
  SN3h    C3  1 4.300000e-01    2.530000e+00
  SN2h    C3  1 4.300000e-01    2.770000e+00
  SN1h    C3  1 4.300000e-01    2.770000e+00
  SC6h    C3  1 4.300000e-01    2.770000e+00
  SC5h    C3  1 4.300000e-01    2.770000e+00
  SC4h    C3  1 4.300000e-01    2.920000e+00
 SC4eh    C3  1 4.300000e-01    3.160000e+00
 SC5eh    C3  1 4.300000e-01    2.920000e+00
 SC6eh    C3  1 4.300000e-01    2.920000e+00
 SC4vh    C3  1 4.300000e-01    3.160000e+00
 SC5vh    C3  1 4.300000e-01    2.920000e+00
 SC6vh    C3  1 4.300000e-01    2.920000e+00
 SN1ah    C3  1 4.300000e-01    2.770000e+00
 SN2ah    C3  1 4.300000e-01    2.770000e+00
 SN3ah    C3  1 4.300000e-01    2.530000e+00
 SN4ah    C3  1 4.300000e-01    2.530000e+00
 SN5ah    C3  1 4.300000e-01    2.530000e+00
 SN6ah    C3  1 4.300000e-01    2.320000e+00
 SP1ah    C3  1 4.300000e-01    2.160000e+00
 SP2ah    C3  1 4.300000e-01    2.160000e+00
 SP3ah    C3  1 4.300000e-01    1.930000e+00
 SP4ah    C3  1 4.300000e-01    1.930000e+00
 SP5ah    C3  1 4.300000e-01    1.930000e+00
 SP6ah    C3  1 4.300000e-01    1.730000e+00
 SN1dh    C3  1 4.300000e-01    2.770000e+00
 SN2dh    C3  1 4.300000e-01    2.770000e+00
 SN3dh    C3  1 4.300000e-01    2.530000e+00
 SN4dh    C3  1 4.300000e-01    2.530000e+00
 SN5dh    C3  1 4.300000e-01    2.530000e+00
 SN6dh    C3  1 4.300000e-01    2.320000e+00
 SP1dh    C3  1 4.300000e-01    2.160000e+00
 SP2dh    C3  1 4.300000e-01    2.160000e+00
 SP3dh    C3  1 4.300000e-01    1.930000e+00
 SP4dh    C3  1 4.300000e-01    1.930000e+00
 SP5dh    C3  1 4.300000e-01    1.930000e+00
 SP6dh    C3  1 4.300000e-01    1.730000e+00
  SP6r    C3  1 4.300000e-01    1.730000e+00
  SP5r    C3  1 4.300000e-01    1.930000e+00
  SP4r    C3  1 4.300000e-01    1.930000e+00
  SP3r    C3  1 4.300000e-01    1.930000e+00
  SP2r    C3  1 4.300000e-01    2.160000e+00
  SP1r    C3  1 4.300000e-01    2.160000e+00
  SN6r    C3  1 4.300000e-01    2.320000e+00
  SN5r    C3  1 4.300000e-01    2.530000e+00
  SN4r    C3  1 4.300000e-01    2.530000e+00
  SN3r    C3  1 4.300000e-01    2.530000e+00
  SN2r    C3  1 4.300000e-01    2.770000e+00
  SN1r    C3  1 4.300000e-01    2.770000e+00
  SC6r    C3  1 4.300000e-01    2.770000e+00
  SC5r    C3  1 4.300000e-01    2.770000e+00
  SC4r    C3  1 4.300000e-01    2.920000e+00
 SC4er    C3  1 4.300000e-01    3.160000e+00
 SC5er    C3  1 4.300000e-01    2.920000e+00
 SC6er    C3  1 4.300000e-01    2.920000e+00
 SC4vr    C3  1 4.300000e-01    3.160000e+00
 SC5vr    C3  1 4.300000e-01    2.920000e+00
 SC6vr    C3  1 4.300000e-01    2.920000e+00
 SN1ar    C3  1 4.300000e-01    2.770000e+00
 SN2ar    C3  1 4.300000e-01    2.770000e+00
 SN3ar    C3  1 4.300000e-01    2.530000e+00
 SN4ar    C3  1 4.300000e-01    2.530000e+00
 SN5ar    C3  1 4.300000e-01    2.530000e+00
 SN6ar    C3  1 4.300000e-01    2.320000e+00
 SP1ar    C3  1 4.300000e-01    2.160000e+00
 SP2ar    C3  1 4.300000e-01    2.160000e+00
 SP3ar    C3  1 4.300000e-01    1.930000e+00
 SP4ar    C3  1 4.300000e-01    1.930000e+00
 SP5ar    C3  1 4.300000e-01    1.930000e+00
 SP6ar    C3  1 4.300000e-01    1.730000e+00
 SN1dr    C3  1 4.300000e-01    2.770000e+00
 SN2dr    C3  1 4.300000e-01    2.770000e+00
 SN3dr    C3  1 4.300000e-01    2.530000e+00
 SN4dr    C3  1 4.300000e-01    2.530000e+00
 SN5dr    C3  1 4.300000e-01    2.530000e+00
 SN6dr    C3  1 4.300000e-01    2.320000e+00
 SP1dr    C3  1 4.300000e-01    2.160000e+00
 SP2dr    C3  1 4.300000e-01    2.160000e+00
 SP3dr    C3  1 4.300000e-01    1.930000e+00
 SP4dr    C3  1 4.300000e-01    1.930000e+00
 SP5dr    C3  1 4.300000e-01    1.930000e+00
 SP6dr    C3  1 4.300000e-01    1.730000e+00
    C3   TC3  1 3.950000e-01    2.310000e+00
    C3   TC2  1 3.950000e-01    2.310000e+00
    C3   TC1  1 3.950000e-01    2.310000e+00
    C3   TX4  1 3.950000e-01    2.110000e+00
    C3   TX3  1 3.950000e-01    2.110000e+00
    C3   TX2  1 3.950000e-01    2.110000e+00
    C3   TX1  1 3.950000e-01    2.310000e+00
    C3  TC3v  1 3.950000e-01    2.500000e+00
    C3  TX1v  1 3.950000e-01    2.500000e+00
    C3  TX2v  1 3.950000e-01    2.310000e+00
    C3  TX3v  1 3.950000e-01    2.310000e+00
    C3  TX4v  1 3.950000e-01    2.310000e+00
    C3  TC1v  1 3.950000e-01    2.500000e+00
    C3  TC2v  1 3.950000e-01    2.500000e+00
    C3  TC3e  1 3.950000e-01    2.500000e+00
    C3  TX1e  1 3.950000e-01    2.500000e+00
    C3  TX2e  1 3.950000e-01    2.310000e+00
    C3  TX3e  1 3.950000e-01    2.310000e+00
    C3  TX4e  1 3.950000e-01    2.310000e+00
    C3  TC1e  1 3.950000e-01    2.500000e+00
    C3  TC2e  1 3.950000e-01    2.500000e+00
    C3  TC3q  1 3.950000e-01    2.700000e+00
    C3 TX1eq  1 3.950000e-01    2.940000e+00
    C3 TX2eq  1 3.950000e-01    2.700000e+00
    C3 TX3eq  1 3.950000e-01    2.700000e+00
    C3 TX4eq  1 3.950000e-01    2.700000e+00
    C3 TC1eq  1 3.950000e-01    2.940000e+00
    C3 TC2eq  1 3.950000e-01    2.940000e+00
    C3 TC3eq  1 3.950000e-01    2.940000e+00
    C3 TX1vq  1 3.950000e-01    2.940000e+00
    C3 TX2vq  1 3.950000e-01    2.700000e+00
    C3 TX3vq  1 3.950000e-01    2.700000e+00
    C3 TX4vq  1 3.950000e-01    2.700000e+00
    C3 TC1vq  1 3.950000e-01    2.940000e+00
    C3 TC2vq  1 3.950000e-01    2.940000e+00
    C3 TC3vq  1 3.950000e-01    2.940000e+00
    C3  TX1q  1 3.950000e-01    2.700000e+00
    C3  TX2q  1 3.950000e-01    2.500000e+00
    C3  TX3q  1 3.950000e-01    2.500000e+00
    C3  TX4q  1 3.950000e-01    2.500000e+00
    C3  TC1q  1 3.950000e-01    2.700000e+00
    C3  TC2q  1 3.950000e-01    2.700000e+00
    C3  TC3h  1 3.950000e-01    2.310000e+00
    C3 TX1eh  1 3.950000e-01    2.500000e+00
    C3 TX2eh  1 3.950000e-01    2.310000e+00
    C3 TX3eh  1 3.950000e-01    2.310000e+00
    C3 TX4eh  1 3.950000e-01    2.310000e+00
    C3 TC1eh  1 3.950000e-01    2.500000e+00
    C3 TC2eh  1 3.950000e-01    2.500000e+00
    C3 TC3eh  1 3.950000e-01    2.500000e+00
    C3 TX1vh  1 3.950000e-01    2.500000e+00
    C3 TX2vh  1 3.950000e-01    2.310000e+00
    C3 TX3vh  1 3.950000e-01    2.310000e+00
    C3 TX4vh  1 3.950000e-01    2.310000e+00
    C3 TC1vh  1 3.950000e-01    2.500000e+00
    C3 TC2vh  1 3.950000e-01    2.500000e+00
    C3 TC3vh  1 3.950000e-01    2.500000e+00
    C3  TX1h  1 3.950000e-01    2.310000e+00
    C3  TX2h  1 3.950000e-01    2.110000e+00
    C3  TX3h  1 3.950000e-01    2.110000e+00
    C3  TX4h  1 3.950000e-01    2.110000e+00
    C3  TC1h  1 3.950000e-01    2.310000e+00
    C3  TC2h  1 3.950000e-01    2.310000e+00
    C3  TC3r  1 3.950000e-01    2.310000e+00
    C3 TX1er  1 3.950000e-01    2.500000e+00
    C3 TX2er  1 3.950000e-01    2.310000e+00
    C3 TX3er  1 3.950000e-01    2.310000e+00
    C3 TX4er  1 3.950000e-01    2.310000e+00
    C3 TC1er  1 3.950000e-01    2.500000e+00
    C3 TC2er  1 3.950000e-01    2.500000e+00
    C3 TC3er  1 3.950000e-01    2.500000e+00
    C3 TX1vr  1 3.950000e-01    2.500000e+00
    C3 TX2vr  1 3.950000e-01    2.310000e+00
    C3 TX3vr  1 3.950000e-01    2.310000e+00
    C3 TX4vr  1 3.950000e-01    2.310000e+00
    C3 TC1vr  1 3.950000e-01    2.500000e+00
    C3 TC2vr  1 3.950000e-01    2.500000e+00
    C3 TC3vr  1 3.950000e-01    2.500000e+00
    C3  TX1r  1 3.950000e-01    2.310000e+00
    C3  TX2r  1 3.950000e-01    2.110000e+00
    C3  TX3r  1 3.950000e-01    2.110000e+00
    C3  TX4r  1 3.950000e-01    2.110000e+00
    C3  TC1r  1 3.950000e-01    2.310000e+00
    C3  TC2r  1 3.950000e-01    2.310000e+00
  TP6d    C3  1 4.010000e-01    9.830000e-01
  TP5d    C3  1 3.990000e-01    1.180000e+00
  TP4d    C3  1 3.990000e-01    1.180000e+00
  TP3d    C3  1 3.990000e-01    1.180000e+00
  TP2d    C3  1 3.980000e-01    1.450000e+00
  TP1d    C3  1 3.980000e-01    1.450000e+00
  TN6d    C3  1 3.950000e-01    1.670000e+00
  TN5d    C3  1 3.950000e-01    1.850000e+00
  TN4d    C3  1 3.950000e-01    1.850000e+00
  TN3d    C3  1 3.950000e-01    1.850000e+00
  TN2d    C3  1 3.950000e-01    2.110000e+00
  TN1d    C3  1 3.950000e-01    2.110000e+00
  TP6a    C3  1 4.010000e-01    9.830000e-01
  TP5a    C3  1 3.990000e-01    1.180000e+00
  TP4a    C3  1 3.990000e-01    1.180000e+00
  TP3a    C3  1 3.990000e-01    1.180000e+00
  TP2a    C3  1 3.980000e-01    1.450000e+00
  TP1a    C3  1 3.980000e-01    1.450000e+00
  TN6a    C3  1 3.950000e-01    1.670000e+00
  TN5a    C3  1 3.950000e-01    1.850000e+00
  TN4a    C3  1 3.950000e-01    1.850000e+00
  TN3a    C3  1 3.950000e-01    1.850000e+00
  TN2a    C3  1 3.950000e-01    2.110000e+00
  TN1a    C3  1 3.950000e-01    2.110000e+00
  TC6v    C3  1 3.950000e-01    2.310000e+00
  TC5v    C3  1 3.950000e-01    2.310000e+00
  TC4v    C3  1 3.950000e-01    2.500000e+00
  TC6e    C3  1 3.950000e-01    2.310000e+00
  TC5e    C3  1 3.950000e-01    2.310000e+00
  TC4e    C3  1 3.950000e-01    2.500000e+00
  TP6q    C3  1 3.980000e-01    1.450000e+00
  TP5q    C3  1 3.950000e-01    1.670000e+00
  TP4q    C3  1 3.950000e-01    1.670000e+00
  TP3q    C3  1 3.950000e-01    1.670000e+00
  TP2q    C3  1 3.950000e-01    1.850000e+00
  TP1q    C3  1 3.950000e-01    1.850000e+00
  TN6q    C3  1 3.950000e-01    2.110000e+00
  TN5q    C3  1 3.950000e-01    2.310000e+00
  TN4q    C3  1 3.950000e-01    2.310000e+00
  TN3q    C3  1 3.950000e-01    2.310000e+00
  TN2q    C3  1 3.950000e-01    2.500000e+00
  TN1q    C3  1 3.950000e-01    2.500000e+00
  TC6q    C3  1 3.950000e-01    2.500000e+00
  TC5q    C3  1 3.950000e-01    2.500000e+00
  TC4q    C3  1 3.950000e-01    2.700000e+00
 TC4eq    C3  1 3.950000e-01    2.940000e+00
 TC5eq    C3  1 3.950000e-01    2.700000e+00
 TC6eq    C3  1 3.950000e-01    2.700000e+00
 TC4vq    C3  1 3.950000e-01    2.940000e+00
 TC5vq    C3  1 3.950000e-01    2.700000e+00
 TC6vq    C3  1 3.950000e-01    2.700000e+00
 TN1aq    C3  1 3.950000e-01    2.500000e+00
 TN2aq    C3  1 3.950000e-01    2.500000e+00
 TN3aq    C3  1 3.950000e-01    2.310000e+00
 TN4aq    C3  1 3.950000e-01    2.310000e+00
 TN5aq    C3  1 3.950000e-01    2.310000e+00
 TN6aq    C3  1 3.950000e-01    2.110000e+00
 TP1aq    C3  1 3.950000e-01    1.850000e+00
 TP2aq    C3  1 3.950000e-01    1.850000e+00
 TP3aq    C3  1 3.950000e-01    1.670000e+00
 TP4aq    C3  1 3.950000e-01    1.670000e+00
 TP5aq    C3  1 3.950000e-01    1.670000e+00
 TP6aq    C3  1 3.980000e-01    1.450000e+00
 TN1dq    C3  1 3.950000e-01    2.500000e+00
 TN2dq    C3  1 3.950000e-01    2.500000e+00
 TN3dq    C3  1 3.950000e-01    2.310000e+00
 TN4dq    C3  1 3.950000e-01    2.310000e+00
 TN5dq    C3  1 3.950000e-01    2.310000e+00
 TN6dq    C3  1 3.950000e-01    2.110000e+00
 TP1dq    C3  1 3.950000e-01    1.850000e+00
 TP2dq    C3  1 3.950000e-01    1.850000e+00
 TP3dq    C3  1 3.950000e-01    1.670000e+00
 TP4dq    C3  1 3.950000e-01    1.670000e+00
 TP5dq    C3  1 3.950000e-01    1.670000e+00
 TP6dq    C3  1 3.980000e-01    1.450000e+00
  TP6h    C3  1 4.010000e-01    9.830000e-01
  TP5h    C3  1 3.990000e-01    1.180000e+00
  TP4h    C3  1 3.990000e-01    1.180000e+00
  TP3h    C3  1 3.990000e-01    1.180000e+00
  TP2h    C3  1 3.980000e-01    1.450000e+00
  TP1h    C3  1 3.980000e-01    1.450000e+00
  TN6h    C3  1 3.950000e-01    1.670000e+00
  TN5h    C3  1 3.950000e-01    1.850000e+00
  TN4h    C3  1 3.950000e-01    1.850000e+00
  TN3h    C3  1 3.950000e-01    1.850000e+00
  TN2h    C3  1 3.950000e-01    2.110000e+00
  TN1h    C3  1 3.950000e-01    2.110000e+00
  TC6h    C3  1 3.950000e-01    2.110000e+00
  TC5h    C3  1 3.950000e-01    2.110000e+00
  TC4h    C3  1 3.950000e-01    2.310000e+00
 TC4eh    C3  1 3.950000e-01    2.500000e+00
 TC5eh    C3  1 3.950000e-01    2.310000e+00
 TC6eh    C3  1 3.950000e-01    2.310000e+00
 TC4vh    C3  1 3.950000e-01    2.500000e+00
 TC5vh    C3  1 3.950000e-01    2.310000e+00
 TC6vh    C3  1 3.950000e-01    2.310000e+00
 TN1ah    C3  1 3.950000e-01    2.110000e+00
 TN2ah    C3  1 3.950000e-01    2.110000e+00
 TN3ah    C3  1 3.950000e-01    1.850000e+00
 TN4ah    C3  1 3.950000e-01    1.850000e+00
 TN5ah    C3  1 3.950000e-01    1.850000e+00
 TN6ah    C3  1 3.950000e-01    1.670000e+00
 TP1ah    C3  1 3.980000e-01    1.450000e+00
 TP2ah    C3  1 3.980000e-01    1.450000e+00
 TP3ah    C3  1 3.990000e-01    1.180000e+00
 TP4ah    C3  1 3.990000e-01    1.180000e+00
 TP5ah    C3  1 3.990000e-01    1.180000e+00
 TP6ah    C3  1 4.010000e-01    9.830000e-01
 TN1dh    C3  1 3.950000e-01    2.110000e+00
 TN2dh    C3  1 3.950000e-01    2.110000e+00
 TN3dh    C3  1 3.950000e-01    1.850000e+00
 TN4dh    C3  1 3.950000e-01    1.850000e+00
 TN5dh    C3  1 3.950000e-01    1.850000e+00
 TN6dh    C3  1 3.950000e-01    1.670000e+00
 TP1dh    C3  1 3.980000e-01    1.450000e+00
 TP2dh    C3  1 3.980000e-01    1.450000e+00
 TP3dh    C3  1 3.990000e-01    1.180000e+00
 TP4dh    C3  1 3.990000e-01    1.180000e+00
 TP5dh    C3  1 3.990000e-01    1.180000e+00
 TP6dh    C3  1 4.010000e-01    9.830000e-01
  TP6r    C3  1 4.010000e-01    9.830000e-01
  TP5r    C3  1 3.990000e-01    1.180000e+00
  TP4r    C3  1 3.990000e-01    1.180000e+00
  TP3r    C3  1 3.990000e-01    1.180000e+00
  TP2r    C3  1 3.980000e-01    1.450000e+00
  TP1r    C3  1 3.980000e-01    1.450000e+00
  TN6r    C3  1 3.950000e-01    1.670000e+00
  TN5r    C3  1 3.950000e-01    1.850000e+00
  TN4r    C3  1 3.950000e-01    1.850000e+00
  TN3r    C3  1 3.950000e-01    1.850000e+00
  TN2r    C3  1 3.950000e-01    2.110000e+00
  TN1r    C3  1 3.950000e-01    2.110000e+00
  TC6r    C3  1 3.950000e-01    2.110000e+00
  TC5r    C3  1 3.950000e-01    2.110000e+00
  TC4r    C3  1 3.950000e-01    2.310000e+00
 TC4er    C3  1 3.950000e-01    2.500000e+00
 TC5er    C3  1 3.950000e-01    2.310000e+00
 TC6er    C3  1 3.950000e-01    2.310000e+00
 TC4vr    C3  1 3.950000e-01    2.500000e+00
 TC5vr    C3  1 3.950000e-01    2.310000e+00
 TC6vr    C3  1 3.950000e-01    2.310000e+00
 TN1ar    C3  1 3.950000e-01    2.110000e+00
 TN2ar    C3  1 3.950000e-01    2.110000e+00
 TN3ar    C3  1 3.950000e-01    1.850000e+00
 TN4ar    C3  1 3.950000e-01    1.850000e+00
 TN5ar    C3  1 3.950000e-01    1.850000e+00
 TN6ar    C3  1 3.950000e-01    1.670000e+00
 TP1ar    C3  1 3.980000e-01    1.450000e+00
 TP2ar    C3  1 3.980000e-01    1.450000e+00
 TP3ar    C3  1 3.990000e-01    1.180000e+00
 TP4ar    C3  1 3.990000e-01    1.180000e+00
 TP5ar    C3  1 3.990000e-01    1.180000e+00
 TP6ar    C3  1 4.010000e-01    9.830000e-01
 TN1dr    C3  1 3.950000e-01    2.110000e+00
 TN2dr    C3  1 3.950000e-01    2.110000e+00
 TN3dr    C3  1 3.950000e-01    1.850000e+00
 TN4dr    C3  1 3.950000e-01    1.850000e+00
 TN5dr    C3  1 3.950000e-01    1.850000e+00
 TN6dr    C3  1 3.950000e-01    1.670000e+00
 TP1dr    C3  1 3.980000e-01    1.450000e+00
 TP2dr    C3  1 3.980000e-01    1.450000e+00
 TP3dr    C3  1 3.990000e-01    1.180000e+00
 TP4dr    C3  1 3.990000e-01    1.180000e+00
 TP5dr    C3  1 3.990000e-01    1.180000e+00
 TP6dr    C3  1 4.010000e-01    9.830000e-01
   P6d   SC3  1 4.300000e-01    1.730000e+00
   P5d   SC3  1 4.300000e-01    1.930000e+00
   P4d   SC3  1 4.300000e-01    1.930000e+00
   P3d   SC3  1 4.300000e-01    1.930000e+00
   P2d   SC3  1 4.300000e-01    2.160000e+00
   P1d   SC3  1 4.300000e-01    2.160000e+00
   N6d   SC3  1 4.300000e-01    2.320000e+00
   N5d   SC3  1 4.300000e-01    2.530000e+00
   N4d   SC3  1 4.300000e-01    2.530000e+00
   N3d   SC3  1 4.300000e-01    2.530000e+00
   N2d   SC3  1 4.300000e-01    2.770000e+00
   N1d   SC3  1 4.300000e-01    2.770000e+00
   P6a   SC3  1 4.300000e-01    1.730000e+00
   P5a   SC3  1 4.300000e-01    1.930000e+00
   P4a   SC3  1 4.300000e-01    1.930000e+00
   P3a   SC3  1 4.300000e-01    1.930000e+00
   P2a   SC3  1 4.300000e-01    2.160000e+00
   P1a   SC3  1 4.300000e-01    2.160000e+00
   N6a   SC3  1 4.300000e-01    2.320000e+00
   N5a   SC3  1 4.300000e-01    2.530000e+00
   N4a   SC3  1 4.300000e-01    2.530000e+00
   N3a   SC3  1 4.300000e-01    2.530000e+00
   N2a   SC3  1 4.300000e-01    2.770000e+00
   N1a   SC3  1 4.300000e-01    2.770000e+00
   C6v   SC3  1 4.300000e-01    2.920000e+00
   C5v   SC3  1 4.300000e-01    2.920000e+00
   C4v   SC3  1 4.300000e-01    3.160000e+00
   C6e   SC3  1 4.300000e-01    2.920000e+00
   C5e   SC3  1 4.300000e-01    2.920000e+00
   C4e   SC3  1 4.300000e-01    3.160000e+00
   P6q   SC3  1 4.300000e-01    2.160000e+00
   P5q   SC3  1 4.300000e-01    2.320000e+00
   P4q   SC3  1 4.300000e-01    2.320000e+00
   P3q   SC3  1 4.300000e-01    2.320000e+00
   P2q   SC3  1 4.300000e-01    2.530000e+00
   P1q   SC3  1 4.300000e-01    2.530000e+00
   N6q   SC3  1 4.300000e-01    2.770000e+00
   N5q   SC3  1 4.300000e-01    2.920000e+00
   N4q   SC3  1 4.300000e-01    2.920000e+00
   N3q   SC3  1 4.300000e-01    2.920000e+00
   N2q   SC3  1 4.300000e-01    3.160000e+00
   N1q   SC3  1 4.300000e-01    3.160000e+00
   C6q   SC3  1 4.300000e-01    3.160000e+00
   C5q   SC3  1 4.300000e-01    3.160000e+00
   C4q   SC3  1 4.300000e-01    3.380000e+00
  C4eq   SC3  1 4.300000e-01    3.590000e+00
  C5eq   SC3  1 4.300000e-01    3.380000e+00
  C6eq   SC3  1 4.300000e-01    3.380000e+00
  C4vq   SC3  1 4.300000e-01    3.590000e+00
  C5vq   SC3  1 4.300000e-01    3.380000e+00
  C6vq   SC3  1 4.300000e-01    3.380000e+00
  N1aq   SC3  1 4.300000e-01    3.160000e+00
  N2aq   SC3  1 4.300000e-01    3.160000e+00
  N3aq   SC3  1 4.300000e-01    2.920000e+00
  N4aq   SC3  1 4.300000e-01    2.920000e+00
  N5aq   SC3  1 4.300000e-01    2.920000e+00
  N6aq   SC3  1 4.300000e-01    2.770000e+00
  P1aq   SC3  1 4.300000e-01    2.530000e+00
  P2aq   SC3  1 4.300000e-01    2.530000e+00
  P3aq   SC3  1 4.300000e-01    2.320000e+00
  P4aq   SC3  1 4.300000e-01    2.320000e+00
  P5aq   SC3  1 4.300000e-01    2.320000e+00
  P6aq   SC3  1 4.300000e-01    2.160000e+00
  N1dq   SC3  1 4.300000e-01    3.160000e+00
  N2dq   SC3  1 4.300000e-01    3.160000e+00
  N3dq   SC3  1 4.300000e-01    2.920000e+00
  N4dq   SC3  1 4.300000e-01    2.920000e+00
  N5dq   SC3  1 4.300000e-01    2.920000e+00
  N6dq   SC3  1 4.300000e-01    2.770000e+00
  P1dq   SC3  1 4.300000e-01    2.530000e+00
  P2dq   SC3  1 4.300000e-01    2.530000e+00
  P3dq   SC3  1 4.300000e-01    2.320000e+00
  P4dq   SC3  1 4.300000e-01    2.320000e+00
  P5dq   SC3  1 4.300000e-01    2.320000e+00
  P6dq   SC3  1 4.300000e-01    2.160000e+00
   P6h   SC3  1 4.300000e-01    1.730000e+00
   P5h   SC3  1 4.300000e-01    1.930000e+00
   P4h   SC3  1 4.300000e-01    1.930000e+00
   P3h   SC3  1 4.300000e-01    1.930000e+00
   P2h   SC3  1 4.300000e-01    2.160000e+00
   P1h   SC3  1 4.300000e-01    2.160000e+00
   N6h   SC3  1 4.300000e-01    2.320000e+00
   N5h   SC3  1 4.300000e-01    2.530000e+00
   N4h   SC3  1 4.300000e-01    2.530000e+00
   N3h   SC3  1 4.300000e-01    2.530000e+00
   N2h   SC3  1 4.300000e-01    2.770000e+00
   N1h   SC3  1 4.300000e-01    2.770000e+00
   C6h   SC3  1 4.300000e-01    2.770000e+00
   C5h   SC3  1 4.300000e-01    2.770000e+00
   C4h   SC3  1 4.300000e-01    2.920000e+00
  C4eh   SC3  1 4.300000e-01    3.160000e+00
  C5eh   SC3  1 4.300000e-01    2.920000e+00
  C6eh   SC3  1 4.300000e-01    2.920000e+00
  C4vh   SC3  1 4.300000e-01    3.160000e+00
  C5vh   SC3  1 4.300000e-01    2.920000e+00
  C6vh   SC3  1 4.300000e-01    2.920000e+00
  N1ah   SC3  1 4.300000e-01    2.770000e+00
  N2ah   SC3  1 4.300000e-01    2.770000e+00
  N3ah   SC3  1 4.300000e-01    2.530000e+00
  N4ah   SC3  1 4.300000e-01    2.530000e+00
  N5ah   SC3  1 4.300000e-01    2.530000e+00
  N6ah   SC3  1 4.300000e-01    2.320000e+00
  P1ah   SC3  1 4.300000e-01    2.160000e+00
  P2ah   SC3  1 4.300000e-01    2.160000e+00
  P3ah   SC3  1 4.300000e-01    1.930000e+00
  P4ah   SC3  1 4.300000e-01    1.930000e+00
  P5ah   SC3  1 4.300000e-01    1.930000e+00
  P6ah   SC3  1 4.300000e-01    1.730000e+00
  N1dh   SC3  1 4.300000e-01    2.770000e+00
  N2dh   SC3  1 4.300000e-01    2.770000e+00
  N3dh   SC3  1 4.300000e-01    2.530000e+00
  N4dh   SC3  1 4.300000e-01    2.530000e+00
  N5dh   SC3  1 4.300000e-01    2.530000e+00
  N6dh   SC3  1 4.300000e-01    2.320000e+00
  P1dh   SC3  1 4.300000e-01    2.160000e+00
  P2dh   SC3  1 4.300000e-01    2.160000e+00
  P3dh   SC3  1 4.300000e-01    1.930000e+00
  P4dh   SC3  1 4.300000e-01    1.930000e+00
  P5dh   SC3  1 4.300000e-01    1.930000e+00
  P6dh   SC3  1 4.300000e-01    1.730000e+00
   P6r   SC3  1 4.300000e-01    1.730000e+00
   P5r   SC3  1 4.300000e-01    1.930000e+00
   P4r   SC3  1 4.300000e-01    1.930000e+00
   P3r   SC3  1 4.300000e-01    1.930000e+00
   P2r   SC3  1 4.300000e-01    2.160000e+00
   P1r   SC3  1 4.300000e-01    2.160000e+00
   N6r   SC3  1 4.300000e-01    2.320000e+00
   N5r   SC3  1 4.300000e-01    2.530000e+00
   N4r   SC3  1 4.300000e-01    2.530000e+00
   N3r   SC3  1 4.300000e-01    2.530000e+00
   N2r   SC3  1 4.300000e-01    2.770000e+00
   N1r   SC3  1 4.300000e-01    2.770000e+00
   C6r   SC3  1 4.300000e-01    2.770000e+00
   C5r   SC3  1 4.300000e-01    2.770000e+00
   C4r   SC3  1 4.300000e-01    2.920000e+00
  C4er   SC3  1 4.300000e-01    3.160000e+00
  C5er   SC3  1 4.300000e-01    2.920000e+00
  C6er   SC3  1 4.300000e-01    2.920000e+00
  C4vr   SC3  1 4.300000e-01    3.160000e+00
  C5vr   SC3  1 4.300000e-01    2.920000e+00
  C6vr   SC3  1 4.300000e-01    2.920000e+00
  N1ar   SC3  1 4.300000e-01    2.770000e+00
  N2ar   SC3  1 4.300000e-01    2.770000e+00
  N3ar   SC3  1 4.300000e-01    2.530000e+00
  N4ar   SC3  1 4.300000e-01    2.530000e+00
  N5ar   SC3  1 4.300000e-01    2.530000e+00
  N6ar   SC3  1 4.300000e-01    2.320000e+00
  P1ar   SC3  1 4.300000e-01    2.160000e+00
  P2ar   SC3  1 4.300000e-01    2.160000e+00
  P3ar   SC3  1 4.300000e-01    1.930000e+00
  P4ar   SC3  1 4.300000e-01    1.930000e+00
  P5ar   SC3  1 4.300000e-01    1.930000e+00
  P6ar   SC3  1 4.300000e-01    1.730000e+00
  N1dr   SC3  1 4.300000e-01    2.770000e+00
  N2dr   SC3  1 4.300000e-01    2.770000e+00
  N3dr   SC3  1 4.300000e-01    2.530000e+00
  N4dr   SC3  1 4.300000e-01    2.530000e+00
  N5dr   SC3  1 4.300000e-01    2.530000e+00
  N6dr   SC3  1 4.300000e-01    2.320000e+00
  P1dr   SC3  1 4.300000e-01    2.160000e+00
  P2dr   SC3  1 4.300000e-01    2.160000e+00
  P3dr   SC3  1 4.300000e-01    1.930000e+00
  P4dr   SC3  1 4.300000e-01    1.930000e+00
  P5dr   SC3  1 4.300000e-01    1.930000e+00
  P6dr   SC3  1 4.300000e-01    1.730000e+00
   SC3    C2  1 4.300000e-01    2.920000e+00
   SC3    C1  1 4.300000e-01    2.920000e+00
   SC3    X4  1 4.300000e-01    2.770000e+00
   SC3    X3  1 4.300000e-01    2.770000e+00
   SC3    X2  1 4.300000e-01    2.770000e+00
   SC3    X1  1 4.300000e-01    2.920000e+00
   SC3   C3v  1 4.300000e-01    3.160000e+00
   SC3   X1v  1 4.300000e-01    3.160000e+00
   SC3   X2v  1 4.300000e-01    2.920000e+00
   SC3   X3v  1 4.300000e-01    2.920000e+00
   SC3   X4v  1 4.300000e-01    2.920000e+00
   SC3   C1v  1 4.300000e-01    3.160000e+00
   SC3   C2v  1 4.300000e-01    3.160000e+00
   SC3   C3e  1 4.300000e-01    3.160000e+00
   SC3   X1e  1 4.300000e-01    3.160000e+00
   SC3   X2e  1 4.300000e-01    2.920000e+00
   SC3   X3e  1 4.300000e-01    2.920000e+00
   SC3   X4e  1 4.300000e-01    2.920000e+00
   SC3   C1e  1 4.300000e-01    3.160000e+00
   SC3   C2e  1 4.300000e-01    3.160000e+00
   SC3   C3q  1 4.300000e-01    3.380000e+00
   SC3  X1eq  1 4.300000e-01    3.590000e+00
   SC3  X2eq  1 4.300000e-01    3.380000e+00
   SC3  X3eq  1 4.300000e-01    3.380000e+00
   SC3  X4eq  1 4.300000e-01    3.380000e+00
   SC3  C1eq  1 4.300000e-01    3.590000e+00
   SC3  C2eq  1 4.300000e-01    3.590000e+00
   SC3  C3eq  1 4.300000e-01    3.590000e+00
   SC3  X1vq  1 4.300000e-01    3.590000e+00
   SC3  X2vq  1 4.300000e-01    3.380000e+00
   SC3  X3vq  1 4.300000e-01    3.380000e+00
   SC3  X4vq  1 4.300000e-01    3.380000e+00
   SC3  C1vq  1 4.300000e-01    3.590000e+00
   SC3  C2vq  1 4.300000e-01    3.590000e+00
   SC3  C3vq  1 4.300000e-01    3.590000e+00
   SC3   X1q  1 4.300000e-01    3.380000e+00
   SC3   X2q  1 4.300000e-01    3.160000e+00
   SC3   X3q  1 4.300000e-01    3.160000e+00
   SC3   X4q  1 4.300000e-01    3.160000e+00
   SC3   C1q  1 4.300000e-01    3.380000e+00
   SC3   C2q  1 4.300000e-01    3.380000e+00
   SC3   C3h  1 4.300000e-01    2.920000e+00
   SC3  X1eh  1 4.300000e-01    3.160000e+00
   SC3  X2eh  1 4.300000e-01    2.920000e+00
   SC3  X3eh  1 4.300000e-01    2.920000e+00
   SC3  X4eh  1 4.300000e-01    2.920000e+00
   SC3  C1eh  1 4.300000e-01    3.160000e+00
   SC3  C2eh  1 4.300000e-01    3.160000e+00
   SC3  C3eh  1 4.300000e-01    3.160000e+00
   SC3  X1vh  1 4.300000e-01    3.160000e+00
   SC3  X2vh  1 4.300000e-01    2.920000e+00
   SC3  X3vh  1 4.300000e-01    2.920000e+00
   SC3  X4vh  1 4.300000e-01    2.920000e+00
   SC3  C1vh  1 4.300000e-01    3.160000e+00
   SC3  C2vh  1 4.300000e-01    3.160000e+00
   SC3  C3vh  1 4.300000e-01    3.160000e+00
   SC3   X1h  1 4.300000e-01    2.920000e+00
   SC3   X2h  1 4.300000e-01    2.770000e+00
   SC3   X3h  1 4.300000e-01    2.770000e+00
   SC3   X4h  1 4.300000e-01    2.770000e+00
   SC3   C1h  1 4.300000e-01    2.920000e+00
   SC3   C2h  1 4.300000e-01    2.920000e+00
   SC3   C3r  1 4.300000e-01    2.920000e+00
   SC3  X1er  1 4.300000e-01    3.160000e+00
   SC3  X2er  1 4.300000e-01    2.920000e+00
   SC3  X3er  1 4.300000e-01    2.920000e+00
   SC3  X4er  1 4.300000e-01    2.920000e+00
   SC3  C1er  1 4.300000e-01    3.160000e+00
   SC3  C2er  1 4.300000e-01    3.160000e+00
   SC3  C3er  1 4.300000e-01    3.160000e+00
   SC3  X1vr  1 4.300000e-01    3.160000e+00
   SC3  X2vr  1 4.300000e-01    2.920000e+00
   SC3  X3vr  1 4.300000e-01    2.920000e+00
   SC3  X4vr  1 4.300000e-01    2.920000e+00
   SC3  C1vr  1 4.300000e-01    3.160000e+00
   SC3  C2vr  1 4.300000e-01    3.160000e+00
   SC3  C3vr  1 4.300000e-01    3.160000e+00
   SC3   X1r  1 4.300000e-01    2.920000e+00
   SC3   X2r  1 4.300000e-01    2.770000e+00
   SC3   X3r  1 4.300000e-01    2.770000e+00
   SC3   X4r  1 4.300000e-01    2.770000e+00
   SC3   C1r  1 4.300000e-01    2.920000e+00
   SC3   C2r  1 4.300000e-01    2.920000e+00
   SC3   SC3  1 4.100000e-01    2.350000e+00
   SC3   SC2  1 4.100000e-01    2.350000e+00
   SC3   SC1  1 4.100000e-01    2.350000e+00
   SC3   SX4  1 4.100000e-01    2.200000e+00
   SC3   SX3  1 4.100000e-01    2.200000e+00
   SC3   SX2  1 4.100000e-01    2.200000e+00
   SC3   SX1  1 4.100000e-01    2.350000e+00
  SP6d   SC3  1 4.180000e-01    1.400000e+00
  SP5d   SC3  1 4.140000e-01    1.560000e+00
  SP4d   SC3  1 4.140000e-01    1.560000e+00
  SP3d   SC3  1 4.140000e-01    1.560000e+00
  SP2d   SC3  1 4.100000e-01    1.750000e+00
  SP1d   SC3  1 4.100000e-01    1.750000e+00
  SN6d   SC3  1 4.100000e-01    1.910000e+00
  SN5d   SC3  1 4.100000e-01    2.040000e+00
  SN4d   SC3  1 4.100000e-01    2.040000e+00
  SN3d   SC3  1 4.100000e-01    2.040000e+00
  SN2d   SC3  1 4.100000e-01    2.200000e+00
  SN1d   SC3  1 4.100000e-01    2.200000e+00
  SP6a   SC3  1 4.180000e-01    1.400000e+00
  SP5a   SC3  1 4.140000e-01    1.560000e+00
  SP4a   SC3  1 4.140000e-01    1.560000e+00
  SP3a   SC3  1 4.140000e-01    1.560000e+00
  SP2a   SC3  1 4.100000e-01    1.750000e+00
  SP1a   SC3  1 4.100000e-01    1.750000e+00
  SN6a   SC3  1 4.100000e-01    1.910000e+00
  SN5a   SC3  1 4.100000e-01    2.040000e+00
  SN4a   SC3  1 4.100000e-01    2.040000e+00
  SN3a   SC3  1 4.100000e-01    2.040000e+00
  SN2a   SC3  1 4.100000e-01    2.200000e+00
  SN1a   SC3  1 4.100000e-01    2.200000e+00
  SC6v   SC3  1 4.100000e-01    2.350000e+00
  SC5v   SC3  1 4.100000e-01    2.350000e+00
  SC4v   SC3  1 4.100000e-01    2.600000e+00
   SC3  SC3v  1 4.100000e-01    2.600000e+00
   SC3  SX1v  1 4.100000e-01    2.600000e+00
   SC3  SX2v  1 4.100000e-01    2.350000e+00
   SC3  SX3v  1 4.100000e-01    2.350000e+00
   SC3  SX4v  1 4.100000e-01    2.350000e+00
   SC3  SC1v  1 4.100000e-01    2.600000e+00
   SC3  SC2v  1 4.100000e-01    2.600000e+00
  SC6e   SC3  1 4.100000e-01    2.350000e+00
  SC5e   SC3  1 4.100000e-01    2.350000e+00
  SC4e   SC3  1 4.100000e-01    2.600000e+00
   SC3  SC3e  1 4.100000e-01    2.600000e+00
   SC3  SX1e  1 4.100000e-01    2.600000e+00
   SC3  SX2e  1 4.100000e-01    2.350000e+00
   SC3  SX3e  1 4.100000e-01    2.350000e+00
   SC3  SX4e  1 4.100000e-01    2.350000e+00
   SC3  SC1e  1 4.100000e-01    2.600000e+00
   SC3  SC2e  1 4.100000e-01    2.600000e+00
  SP6q   SC3  1 4.100000e-01    1.750000e+00
  SP5q   SC3  1 4.100000e-01    1.910000e+00
  SP4q   SC3  1 4.100000e-01    1.910000e+00
  SP3q   SC3  1 4.100000e-01    1.910000e+00
  SP2q   SC3  1 4.100000e-01    2.040000e+00
  SP1q   SC3  1 4.100000e-01    2.040000e+00
  SN6q   SC3  1 4.100000e-01    2.200000e+00
  SN5q   SC3  1 4.100000e-01    2.350000e+00
  SN4q   SC3  1 4.100000e-01    2.350000e+00
  SN3q   SC3  1 4.100000e-01    2.350000e+00
  SN2q   SC3  1 4.100000e-01    2.600000e+00
  SN1q   SC3  1 4.100000e-01    2.600000e+00
  SC6q   SC3  1 4.100000e-01    2.600000e+00
  SC5q   SC3  1 4.100000e-01    2.600000e+00
  SC4q   SC3  1 4.100000e-01    2.840000e+00
   SC3  SC3q  1 4.100000e-01    2.840000e+00
   SC3 SX1eq  1 4.100000e-01    3.070000e+00
   SC3 SX2eq  1 4.100000e-01    2.840000e+00
   SC3 SX3eq  1 4.100000e-01    2.840000e+00
   SC3 SX4eq  1 4.100000e-01    2.840000e+00
   SC3 SC1eq  1 4.100000e-01    3.070000e+00
   SC3 SC2eq  1 4.100000e-01    3.070000e+00
   SC3 SC3eq  1 4.100000e-01    3.070000e+00
 SC4eq   SC3  1 4.100000e-01    3.070000e+00
 SC5eq   SC3  1 4.100000e-01    2.840000e+00
 SC6eq   SC3  1 4.100000e-01    2.840000e+00
   SC3 SX1vq  1 4.100000e-01    3.070000e+00
   SC3 SX2vq  1 4.100000e-01    2.840000e+00
   SC3 SX3vq  1 4.100000e-01    2.840000e+00
   SC3 SX4vq  1 4.100000e-01    2.840000e+00
   SC3 SC1vq  1 4.100000e-01    3.070000e+00
   SC3 SC2vq  1 4.100000e-01    3.070000e+00
   SC3 SC3vq  1 4.100000e-01    3.070000e+00
 SC4vq   SC3  1 4.100000e-01    3.070000e+00
 SC5vq   SC3  1 4.100000e-01    2.840000e+00
 SC6vq   SC3  1 4.100000e-01    2.840000e+00
 SN1aq   SC3  1 4.100000e-01    2.600000e+00
 SN2aq   SC3  1 4.100000e-01    2.600000e+00
 SN3aq   SC3  1 4.100000e-01    2.350000e+00
 SN4aq   SC3  1 4.100000e-01    2.350000e+00
 SN5aq   SC3  1 4.100000e-01    2.350000e+00
 SN6aq   SC3  1 4.100000e-01    2.200000e+00
 SP1aq   SC3  1 4.100000e-01    2.040000e+00
 SP2aq   SC3  1 4.100000e-01    2.040000e+00
 SP3aq   SC3  1 4.100000e-01    1.910000e+00
 SP4aq   SC3  1 4.100000e-01    1.910000e+00
 SP5aq   SC3  1 4.100000e-01    1.910000e+00
 SP6aq   SC3  1 4.100000e-01    1.750000e+00
 SN1dq   SC3  1 4.100000e-01    2.600000e+00
 SN2dq   SC3  1 4.100000e-01    2.600000e+00
 SN3dq   SC3  1 4.100000e-01    2.350000e+00
 SN4dq   SC3  1 4.100000e-01    2.350000e+00
 SN5dq   SC3  1 4.100000e-01    2.350000e+00
 SN6dq   SC3  1 4.100000e-01    2.200000e+00
 SP1dq   SC3  1 4.100000e-01    2.040000e+00
 SP2dq   SC3  1 4.100000e-01    2.040000e+00
 SP3dq   SC3  1 4.100000e-01    1.910000e+00
 SP4dq   SC3  1 4.100000e-01    1.910000e+00
 SP5dq   SC3  1 4.100000e-01    1.910000e+00
 SP6dq   SC3  1 4.100000e-01    1.750000e+00
   SC3  SX1q  1 4.100000e-01    2.840000e+00
   SC3  SX2q  1 4.100000e-01    2.600000e+00
   SC3  SX3q  1 4.100000e-01    2.600000e+00
   SC3  SX4q  1 4.100000e-01    2.600000e+00
   SC3  SC1q  1 4.100000e-01    2.840000e+00
   SC3  SC2q  1 4.100000e-01    2.840000e+00
  SP6h   SC3  1 4.180000e-01    1.400000e+00
  SP5h   SC3  1 4.140000e-01    1.560000e+00
  SP4h   SC3  1 4.140000e-01    1.560000e+00
  SP3h   SC3  1 4.140000e-01    1.560000e+00
  SP2h   SC3  1 4.100000e-01    1.750000e+00
  SP1h   SC3  1 4.100000e-01    1.750000e+00
  SN6h   SC3  1 4.100000e-01    1.910000e+00
  SN5h   SC3  1 4.100000e-01    2.040000e+00
  SN4h   SC3  1 4.100000e-01    2.040000e+00
  SN3h   SC3  1 4.100000e-01    2.040000e+00
  SN2h   SC3  1 4.100000e-01    2.200000e+00
  SN1h   SC3  1 4.100000e-01    2.200000e+00
  SC6h   SC3  1 4.100000e-01    2.200000e+00
  SC5h   SC3  1 4.100000e-01    2.200000e+00
  SC4h   SC3  1 4.100000e-01    2.350000e+00
   SC3  SC3h  1 4.100000e-01    2.350000e+00
   SC3 SX1eh  1 4.100000e-01    2.600000e+00
   SC3 SX2eh  1 4.100000e-01    2.350000e+00
   SC3 SX3eh  1 4.100000e-01    2.350000e+00
   SC3 SX4eh  1 4.100000e-01    2.350000e+00
   SC3 SC1eh  1 4.100000e-01    2.600000e+00
   SC3 SC2eh  1 4.100000e-01    2.600000e+00
   SC3 SC3eh  1 4.100000e-01    2.600000e+00
 SC4eh   SC3  1 4.100000e-01    2.600000e+00
 SC5eh   SC3  1 4.100000e-01    2.350000e+00
 SC6eh   SC3  1 4.100000e-01    2.350000e+00
   SC3 SX1vh  1 4.100000e-01    2.600000e+00
   SC3 SX2vh  1 4.100000e-01    2.350000e+00
   SC3 SX3vh  1 4.100000e-01    2.350000e+00
   SC3 SX4vh  1 4.100000e-01    2.350000e+00
   SC3 SC1vh  1 4.100000e-01    2.600000e+00
   SC3 SC2vh  1 4.100000e-01    2.600000e+00
   SC3 SC3vh  1 4.100000e-01    2.600000e+00
 SC4vh   SC3  1 4.100000e-01    2.600000e+00
 SC5vh   SC3  1 4.100000e-01    2.350000e+00
 SC6vh   SC3  1 4.100000e-01    2.350000e+00
 SN1ah   SC3  1 4.100000e-01    2.200000e+00
 SN2ah   SC3  1 4.100000e-01    2.200000e+00
 SN3ah   SC3  1 4.100000e-01    2.040000e+00
 SN4ah   SC3  1 4.100000e-01    2.040000e+00
 SN5ah   SC3  1 4.100000e-01    2.040000e+00
 SN6ah   SC3  1 4.100000e-01    1.910000e+00
 SP1ah   SC3  1 4.100000e-01    1.750000e+00
 SP2ah   SC3  1 4.100000e-01    1.750000e+00
 SP3ah   SC3  1 4.140000e-01    1.560000e+00
 SP4ah   SC3  1 4.140000e-01    1.560000e+00
 SP5ah   SC3  1 4.140000e-01    1.560000e+00
 SP6ah   SC3  1 4.180000e-01    1.400000e+00
 SN1dh   SC3  1 4.100000e-01    2.200000e+00
 SN2dh   SC3  1 4.100000e-01    2.200000e+00
 SN3dh   SC3  1 4.100000e-01    2.040000e+00
 SN4dh   SC3  1 4.100000e-01    2.040000e+00
 SN5dh   SC3  1 4.100000e-01    2.040000e+00
 SN6dh   SC3  1 4.100000e-01    1.910000e+00
 SP1dh   SC3  1 4.100000e-01    1.750000e+00
 SP2dh   SC3  1 4.100000e-01    1.750000e+00
 SP3dh   SC3  1 4.140000e-01    1.560000e+00
 SP4dh   SC3  1 4.140000e-01    1.560000e+00
 SP5dh   SC3  1 4.140000e-01    1.560000e+00
 SP6dh   SC3  1 4.180000e-01    1.400000e+00
   SC3  SX1h  1 4.100000e-01    2.350000e+00
   SC3  SX2h  1 4.100000e-01    2.200000e+00
   SC3  SX3h  1 4.100000e-01    2.200000e+00
   SC3  SX4h  1 4.100000e-01    2.200000e+00
   SC3  SC1h  1 4.100000e-01    2.350000e+00
   SC3  SC2h  1 4.100000e-01    2.350000e+00
  SP6r   SC3  1 4.180000e-01    1.400000e+00
  SP5r   SC3  1 4.140000e-01    1.560000e+00
  SP4r   SC3  1 4.140000e-01    1.560000e+00
  SP3r   SC3  1 4.140000e-01    1.560000e+00
  SP2r   SC3  1 4.100000e-01    1.750000e+00
  SP1r   SC3  1 4.100000e-01    1.750000e+00
  SN6r   SC3  1 4.100000e-01    1.910000e+00
  SN5r   SC3  1 4.100000e-01    2.040000e+00
  SN4r   SC3  1 4.100000e-01    2.040000e+00
  SN3r   SC3  1 4.100000e-01    2.040000e+00
  SN2r   SC3  1 4.100000e-01    2.200000e+00
  SN1r   SC3  1 4.100000e-01    2.200000e+00
  SC6r   SC3  1 4.100000e-01    2.200000e+00
  SC5r   SC3  1 4.100000e-01    2.200000e+00
  SC4r   SC3  1 4.100000e-01    2.350000e+00
   SC3  SC3r  1 4.100000e-01    2.350000e+00
   SC3 SX1er  1 4.100000e-01    2.600000e+00
   SC3 SX2er  1 4.100000e-01    2.350000e+00
   SC3 SX3er  1 4.100000e-01    2.350000e+00
   SC3 SX4er  1 4.100000e-01    2.350000e+00
   SC3 SC1er  1 4.100000e-01    2.600000e+00
   SC3 SC2er  1 4.100000e-01    2.600000e+00
   SC3 SC3er  1 4.100000e-01    2.600000e+00
 SC4er   SC3  1 4.100000e-01    2.600000e+00
 SC5er   SC3  1 4.100000e-01    2.350000e+00
 SC6er   SC3  1 4.100000e-01    2.350000e+00
   SC3 SX1vr  1 4.100000e-01    2.600000e+00
   SC3 SX2vr  1 4.100000e-01    2.350000e+00
   SC3 SX3vr  1 4.100000e-01    2.350000e+00
   SC3 SX4vr  1 4.100000e-01    2.350000e+00
   SC3 SC1vr  1 4.100000e-01    2.600000e+00
   SC3 SC2vr  1 4.100000e-01    2.600000e+00
   SC3 SC3vr  1 4.100000e-01    2.600000e+00
 SC4vr   SC3  1 4.100000e-01    2.600000e+00
 SC5vr   SC3  1 4.100000e-01    2.350000e+00
 SC6vr   SC3  1 4.100000e-01    2.350000e+00
 SN1ar   SC3  1 4.100000e-01    2.200000e+00
 SN2ar   SC3  1 4.100000e-01    2.200000e+00
 SN3ar   SC3  1 4.100000e-01    2.040000e+00
 SN4ar   SC3  1 4.100000e-01    2.040000e+00
 SN5ar   SC3  1 4.100000e-01    2.040000e+00
 SN6ar   SC3  1 4.100000e-01    1.910000e+00
 SP1ar   SC3  1 4.100000e-01    1.750000e+00
 SP2ar   SC3  1 4.100000e-01    1.750000e+00
 SP3ar   SC3  1 4.140000e-01    1.560000e+00
 SP4ar   SC3  1 4.140000e-01    1.560000e+00
 SP5ar   SC3  1 4.140000e-01    1.560000e+00
 SP6ar   SC3  1 4.180000e-01    1.400000e+00
 SN1dr   SC3  1 4.100000e-01    2.200000e+00
 SN2dr   SC3  1 4.100000e-01    2.200000e+00
 SN3dr   SC3  1 4.100000e-01    2.040000e+00
 SN4dr   SC3  1 4.100000e-01    2.040000e+00
 SN5dr   SC3  1 4.100000e-01    2.040000e+00
 SN6dr   SC3  1 4.100000e-01    1.910000e+00
 SP1dr   SC3  1 4.100000e-01    1.750000e+00
 SP2dr   SC3  1 4.100000e-01    1.750000e+00
 SP3dr   SC3  1 4.140000e-01    1.560000e+00
 SP4dr   SC3  1 4.140000e-01    1.560000e+00
 SP5dr   SC3  1 4.140000e-01    1.560000e+00
 SP6dr   SC3  1 4.180000e-01    1.400000e+00
   SC3  SX1r  1 4.100000e-01    2.350000e+00
   SC3  SX2r  1 4.100000e-01    2.200000e+00
   SC3  SX3r  1 4.100000e-01    2.200000e+00
   SC3  SX4r  1 4.100000e-01    2.200000e+00
   SC3  SC1r  1 4.100000e-01    2.350000e+00
   SC3  SC2r  1 4.100000e-01    2.350000e+00
   SC3   TC3  1 3.650000e-01    1.910000e+00
   SC3   TC2  1 3.650000e-01    1.910000e+00
   SC3   TC1  1 3.650000e-01    1.910000e+00
   SC3   TX4  1 3.650000e-01    1.750000e+00
   SC3   TX3  1 3.650000e-01    1.750000e+00
   SC3   TX2  1 3.650000e-01    1.750000e+00
   SC3   TX1  1 3.650000e-01    1.910000e+00
   SC3  TC3v  1 3.650000e-01    2.110000e+00
   SC3  TX1v  1 3.650000e-01    2.110000e+00
   SC3  TX2v  1 3.650000e-01    1.910000e+00
   SC3  TX3v  1 3.650000e-01    1.910000e+00
   SC3  TX4v  1 3.650000e-01    1.910000e+00
   SC3  TC1v  1 3.650000e-01    2.110000e+00
   SC3  TC2v  1 3.650000e-01    2.110000e+00
   SC3  TC3e  1 3.650000e-01    2.110000e+00
   SC3  TX1e  1 3.650000e-01    2.110000e+00
   SC3  TX2e  1 3.650000e-01    1.910000e+00
   SC3  TX3e  1 3.650000e-01    1.910000e+00
   SC3  TX4e  1 3.650000e-01    1.910000e+00
   SC3  TC1e  1 3.650000e-01    2.110000e+00
   SC3  TC2e  1 3.650000e-01    2.110000e+00
   SC3  TC3q  1 3.650000e-01    2.340000e+00
   SC3 TX1eq  1 3.650000e-01    2.570000e+00
   SC3 TX2eq  1 3.650000e-01    2.340000e+00
   SC3 TX3eq  1 3.650000e-01    2.340000e+00
   SC3 TX4eq  1 3.650000e-01    2.340000e+00
   SC3 TC1eq  1 3.650000e-01    2.570000e+00
   SC3 TC2eq  1 3.650000e-01    2.570000e+00
   SC3 TC3eq  1 3.650000e-01    2.570000e+00
   SC3 TX1vq  1 3.650000e-01    2.570000e+00
   SC3 TX2vq  1 3.650000e-01    2.340000e+00
   SC3 TX3vq  1 3.650000e-01    2.340000e+00
   SC3 TX4vq  1 3.650000e-01    2.340000e+00
   SC3 TC1vq  1 3.650000e-01    2.570000e+00
   SC3 TC2vq  1 3.650000e-01    2.570000e+00
   SC3 TC3vq  1 3.650000e-01    2.570000e+00
   SC3  TX1q  1 3.650000e-01    2.340000e+00
   SC3  TX2q  1 3.650000e-01    2.110000e+00
   SC3  TX3q  1 3.650000e-01    2.110000e+00
   SC3  TX4q  1 3.650000e-01    2.110000e+00
   SC3  TC1q  1 3.650000e-01    2.340000e+00
   SC3  TC2q  1 3.650000e-01    2.340000e+00
   SC3  TC3h  1 3.650000e-01    1.910000e+00
   SC3 TX1eh  1 3.650000e-01    2.110000e+00
   SC3 TX2eh  1 3.650000e-01    1.910000e+00
   SC3 TX3eh  1 3.650000e-01    1.910000e+00
   SC3 TX4eh  1 3.650000e-01    1.910000e+00
   SC3 TC1eh  1 3.650000e-01    2.110000e+00
   SC3 TC2eh  1 3.650000e-01    2.110000e+00
   SC3 TC3eh  1 3.650000e-01    2.110000e+00
   SC3 TX1vh  1 3.650000e-01    2.110000e+00
   SC3 TX2vh  1 3.650000e-01    1.910000e+00
   SC3 TX3vh  1 3.650000e-01    1.910000e+00
   SC3 TX4vh  1 3.650000e-01    1.910000e+00
   SC3 TC1vh  1 3.650000e-01    2.110000e+00
   SC3 TC2vh  1 3.650000e-01    2.110000e+00
   SC3 TC3vh  1 3.650000e-01    2.110000e+00
   SC3  TX1h  1 3.650000e-01    1.910000e+00
   SC3  TX2h  1 3.650000e-01    1.750000e+00
   SC3  TX3h  1 3.650000e-01    1.750000e+00
   SC3  TX4h  1 3.650000e-01    1.750000e+00
   SC3  TC1h  1 3.650000e-01    1.910000e+00
   SC3  TC2h  1 3.650000e-01    1.910000e+00
   SC3  TC3r  1 3.650000e-01    1.910000e+00
   SC3 TX1er  1 3.650000e-01    2.110000e+00
   SC3 TX2er  1 3.650000e-01    1.910000e+00
   SC3 TX3er  1 3.650000e-01    1.910000e+00
   SC3 TX4er  1 3.650000e-01    1.910000e+00
   SC3 TC1er  1 3.650000e-01    2.110000e+00
   SC3 TC2er  1 3.650000e-01    2.110000e+00
   SC3 TC3er  1 3.650000e-01    2.110000e+00
   SC3 TX1vr  1 3.650000e-01    2.110000e+00
   SC3 TX2vr  1 3.650000e-01    1.910000e+00
   SC3 TX3vr  1 3.650000e-01    1.910000e+00
   SC3 TX4vr  1 3.650000e-01    1.910000e+00
   SC3 TC1vr  1 3.650000e-01    2.110000e+00
   SC3 TC2vr  1 3.650000e-01    2.110000e+00
   SC3 TC3vr  1 3.650000e-01    2.110000e+00
   SC3  TX1r  1 3.650000e-01    1.910000e+00
   SC3  TX2r  1 3.650000e-01    1.750000e+00
   SC3  TX3r  1 3.650000e-01    1.750000e+00
   SC3  TX4r  1 3.650000e-01    1.750000e+00
   SC3  TC1r  1 3.650000e-01    1.910000e+00
   SC3  TC2r  1 3.650000e-01    1.910000e+00
  TP6d   SC3  1 4.090000e-01    1.080000e+00
  TP5d   SC3  1 4.040000e-01    1.130000e+00
  TP4d   SC3  1 4.040000e-01    1.130000e+00
  TP3d   SC3  1 4.040000e-01    1.130000e+00
  TP2d   SC3  1 3.940000e-01    1.290000e+00
  TP1d   SC3  1 3.940000e-01    1.290000e+00
  TN6d   SC3  1 3.780000e-01    1.450000e+00
  TN5d   SC3  1 3.660000e-01    1.600000e+00
  TN4d   SC3  1 3.660000e-01    1.600000e+00
  TN3d   SC3  1 3.660000e-01    1.600000e+00
  TN2d   SC3  1 3.650000e-01    1.750000e+00
  TN1d   SC3  1 3.650000e-01    1.750000e+00
  TP6a   SC3  1 4.090000e-01    1.080000e+00
  TP5a   SC3  1 4.040000e-01    1.130000e+00
  TP4a   SC3  1 4.040000e-01    1.130000e+00
  TP3a   SC3  1 4.040000e-01    1.130000e+00
  TP2a   SC3  1 3.940000e-01    1.290000e+00
  TP1a   SC3  1 3.940000e-01    1.290000e+00
  TN6a   SC3  1 3.780000e-01    1.450000e+00
  TN5a   SC3  1 3.660000e-01    1.600000e+00
  TN4a   SC3  1 3.660000e-01    1.600000e+00
  TN3a   SC3  1 3.660000e-01    1.600000e+00
  TN2a   SC3  1 3.650000e-01    1.750000e+00
  TN1a   SC3  1 3.650000e-01    1.750000e+00
  TC6v   SC3  1 3.650000e-01    1.910000e+00
  TC5v   SC3  1 3.650000e-01    1.910000e+00
  TC4v   SC3  1 3.650000e-01    2.110000e+00
  TC6e   SC3  1 3.650000e-01    1.910000e+00
  TC5e   SC3  1 3.650000e-01    1.910000e+00
  TC4e   SC3  1 3.650000e-01    2.110000e+00
  TP6q   SC3  1 3.940000e-01    1.290000e+00
  TP5q   SC3  1 3.780000e-01    1.450000e+00
  TP4q   SC3  1 3.780000e-01    1.450000e+00
  TP3q   SC3  1 3.780000e-01    1.450000e+00
  TP2q   SC3  1 3.660000e-01    1.600000e+00
  TP1q   SC3  1 3.660000e-01    1.600000e+00
  TN6q   SC3  1 3.650000e-01    1.750000e+00
  TN5q   SC3  1 3.650000e-01    1.910000e+00
  TN4q   SC3  1 3.650000e-01    1.910000e+00
  TN3q   SC3  1 3.650000e-01    1.910000e+00
  TN2q   SC3  1 3.650000e-01    2.110000e+00
  TN1q   SC3  1 3.650000e-01    2.110000e+00
  TC6q   SC3  1 3.650000e-01    2.110000e+00
  TC5q   SC3  1 3.650000e-01    2.110000e+00
  TC4q   SC3  1 3.650000e-01    2.340000e+00
 TC4eq   SC3  1 3.650000e-01    2.570000e+00
 TC5eq   SC3  1 3.650000e-01    2.340000e+00
 TC6eq   SC3  1 3.650000e-01    2.340000e+00
 TC4vq   SC3  1 3.650000e-01    2.570000e+00
 TC5vq   SC3  1 3.650000e-01    2.340000e+00
 TC6vq   SC3  1 3.650000e-01    2.340000e+00
 TN1aq   SC3  1 3.650000e-01    2.110000e+00
 TN2aq   SC3  1 3.650000e-01    2.110000e+00
 TN3aq   SC3  1 3.650000e-01    1.910000e+00
 TN4aq   SC3  1 3.650000e-01    1.910000e+00
 TN5aq   SC3  1 3.650000e-01    1.910000e+00
 TN6aq   SC3  1 3.650000e-01    1.750000e+00
 TP1aq   SC3  1 3.660000e-01    1.600000e+00
 TP2aq   SC3  1 3.660000e-01    1.600000e+00
 TP3aq   SC3  1 3.780000e-01    1.450000e+00
 TP4aq   SC3  1 3.780000e-01    1.450000e+00
 TP5aq   SC3  1 3.780000e-01    1.450000e+00
 TP6aq   SC3  1 3.940000e-01    1.290000e+00
 TN1dq   SC3  1 3.650000e-01    2.110000e+00
 TN2dq   SC3  1 3.650000e-01    2.110000e+00
 TN3dq   SC3  1 3.650000e-01    1.910000e+00
 TN4dq   SC3  1 3.650000e-01    1.910000e+00
 TN5dq   SC3  1 3.650000e-01    1.910000e+00
 TN6dq   SC3  1 3.650000e-01    1.750000e+00
 TP1dq   SC3  1 3.660000e-01    1.600000e+00
 TP2dq   SC3  1 3.660000e-01    1.600000e+00
 TP3dq   SC3  1 3.780000e-01    1.450000e+00
 TP4dq   SC3  1 3.780000e-01    1.450000e+00
 TP5dq   SC3  1 3.780000e-01    1.450000e+00
 TP6dq   SC3  1 3.940000e-01    1.290000e+00
  TP6h   SC3  1 4.090000e-01    1.080000e+00
  TP5h   SC3  1 4.040000e-01    1.130000e+00
  TP4h   SC3  1 4.040000e-01    1.130000e+00
  TP3h   SC3  1 4.040000e-01    1.130000e+00
  TP2h   SC3  1 3.940000e-01    1.290000e+00
  TP1h   SC3  1 3.940000e-01    1.290000e+00
  TN6h   SC3  1 3.780000e-01    1.450000e+00
  TN5h   SC3  1 3.660000e-01    1.600000e+00
  TN4h   SC3  1 3.660000e-01    1.600000e+00
  TN3h   SC3  1 3.660000e-01    1.600000e+00
  TN2h   SC3  1 3.650000e-01    1.750000e+00
  TN1h   SC3  1 3.650000e-01    1.750000e+00
  TC6h   SC3  1 3.650000e-01    1.750000e+00
  TC5h   SC3  1 3.650000e-01    1.750000e+00
  TC4h   SC3  1 3.650000e-01    1.910000e+00
 TC4eh   SC3  1 3.650000e-01    2.110000e+00
 TC5eh   SC3  1 3.650000e-01    1.910000e+00
 TC6eh   SC3  1 3.650000e-01    1.910000e+00
 TC4vh   SC3  1 3.650000e-01    2.110000e+00
 TC5vh   SC3  1 3.650000e-01    1.910000e+00
 TC6vh   SC3  1 3.650000e-01    1.910000e+00
 TN1ah   SC3  1 3.650000e-01    1.750000e+00
 TN2ah   SC3  1 3.650000e-01    1.750000e+00
 TN3ah   SC3  1 3.660000e-01    1.600000e+00
 TN4ah   SC3  1 3.660000e-01    1.600000e+00
 TN5ah   SC3  1 3.660000e-01    1.600000e+00
 TN6ah   SC3  1 3.780000e-01    1.450000e+00
 TP1ah   SC3  1 3.940000e-01    1.290000e+00
 TP2ah   SC3  1 3.940000e-01    1.290000e+00
 TP3ah   SC3  1 4.040000e-01    1.130000e+00
 TP4ah   SC3  1 4.040000e-01    1.130000e+00
 TP5ah   SC3  1 4.040000e-01    1.130000e+00
 TP6ah   SC3  1 4.090000e-01    1.080000e+00
 TN1dh   SC3  1 3.650000e-01    1.750000e+00
 TN2dh   SC3  1 3.650000e-01    1.750000e+00
 TN3dh   SC3  1 3.660000e-01    1.600000e+00
 TN4dh   SC3  1 3.660000e-01    1.600000e+00
 TN5dh   SC3  1 3.660000e-01    1.600000e+00
 TN6dh   SC3  1 3.780000e-01    1.450000e+00
 TP1dh   SC3  1 3.940000e-01    1.290000e+00
 TP2dh   SC3  1 3.940000e-01    1.290000e+00
 TP3dh   SC3  1 4.040000e-01    1.130000e+00
 TP4dh   SC3  1 4.040000e-01    1.130000e+00
 TP5dh   SC3  1 4.040000e-01    1.130000e+00
 TP6dh   SC3  1 4.090000e-01    1.080000e+00
  TP6r   SC3  1 4.090000e-01    1.080000e+00
  TP5r   SC3  1 4.040000e-01    1.130000e+00
  TP4r   SC3  1 4.040000e-01    1.130000e+00
  TP3r   SC3  1 4.040000e-01    1.130000e+00
  TP2r   SC3  1 3.940000e-01    1.290000e+00
  TP1r   SC3  1 3.940000e-01    1.290000e+00
  TN6r   SC3  1 3.780000e-01    1.450000e+00
  TN5r   SC3  1 3.660000e-01    1.600000e+00
  TN4r   SC3  1 3.660000e-01    1.600000e+00
  TN3r   SC3  1 3.660000e-01    1.600000e+00
  TN2r   SC3  1 3.650000e-01    1.750000e+00
  TN1r   SC3  1 3.650000e-01    1.750000e+00
  TC6r   SC3  1 3.650000e-01    1.750000e+00
  TC5r   SC3  1 3.650000e-01    1.750000e+00
  TC4r   SC3  1 3.650000e-01    1.910000e+00
 TC4er   SC3  1 3.650000e-01    2.110000e+00
 TC5er   SC3  1 3.650000e-01    1.910000e+00
 TC6er   SC3  1 3.650000e-01    1.910000e+00
 TC4vr   SC3  1 3.650000e-01    2.110000e+00
 TC5vr   SC3  1 3.650000e-01    1.910000e+00
 TC6vr   SC3  1 3.650000e-01    1.910000e+00
 TN1ar   SC3  1 3.650000e-01    1.750000e+00
 TN2ar   SC3  1 3.650000e-01    1.750000e+00
 TN3ar   SC3  1 3.660000e-01    1.600000e+00
 TN4ar   SC3  1 3.660000e-01    1.600000e+00
 TN5ar   SC3  1 3.660000e-01    1.600000e+00
 TN6ar   SC3  1 3.780000e-01    1.450000e+00
 TP1ar   SC3  1 3.940000e-01    1.290000e+00
 TP2ar   SC3  1 3.940000e-01    1.290000e+00
 TP3ar   SC3  1 4.040000e-01    1.130000e+00
 TP4ar   SC3  1 4.040000e-01    1.130000e+00
 TP5ar   SC3  1 4.040000e-01    1.130000e+00
 TP6ar   SC3  1 4.090000e-01    1.080000e+00
 TN1dr   SC3  1 3.650000e-01    1.750000e+00
 TN2dr   SC3  1 3.650000e-01    1.750000e+00
 TN3dr   SC3  1 3.660000e-01    1.600000e+00
 TN4dr   SC3  1 3.660000e-01    1.600000e+00
 TN5dr   SC3  1 3.660000e-01    1.600000e+00
 TN6dr   SC3  1 3.780000e-01    1.450000e+00
 TP1dr   SC3  1 3.940000e-01    1.290000e+00
 TP2dr   SC3  1 3.940000e-01    1.290000e+00
 TP3dr   SC3  1 4.040000e-01    1.130000e+00
 TP4dr   SC3  1 4.040000e-01    1.130000e+00
 TP5dr   SC3  1 4.040000e-01    1.130000e+00
 TP6dr   SC3  1 4.090000e-01    1.080000e+00
   P6d   TC3  1 4.010000e-01    9.830000e-01
   P5d   TC3  1 3.990000e-01    1.180000e+00
   P4d   TC3  1 3.990000e-01    1.180000e+00
   P3d   TC3  1 3.990000e-01    1.180000e+00
   P2d   TC3  1 3.980000e-01    1.450000e+00
   P1d   TC3  1 3.980000e-01    1.450000e+00
   N6d   TC3  1 3.950000e-01    1.670000e+00
   N5d   TC3  1 3.950000e-01    1.850000e+00
   N4d   TC3  1 3.950000e-01    1.850000e+00
   N3d   TC3  1 3.950000e-01    1.850000e+00
   N2d   TC3  1 3.950000e-01    2.110000e+00
   N1d   TC3  1 3.950000e-01    2.110000e+00
   P6a   TC3  1 4.010000e-01    9.830000e-01
   P5a   TC3  1 3.990000e-01    1.180000e+00
   P4a   TC3  1 3.990000e-01    1.180000e+00
   P3a   TC3  1 3.990000e-01    1.180000e+00
   P2a   TC3  1 3.980000e-01    1.450000e+00
   P1a   TC3  1 3.980000e-01    1.450000e+00
   N6a   TC3  1 3.950000e-01    1.670000e+00
   N5a   TC3  1 3.950000e-01    1.850000e+00
   N4a   TC3  1 3.950000e-01    1.850000e+00
   N3a   TC3  1 3.950000e-01    1.850000e+00
   N2a   TC3  1 3.950000e-01    2.110000e+00
   N1a   TC3  1 3.950000e-01    2.110000e+00
   C6v   TC3  1 3.950000e-01    2.310000e+00
   C5v   TC3  1 3.950000e-01    2.310000e+00
   C4v   TC3  1 3.950000e-01    2.500000e+00
   C6e   TC3  1 3.950000e-01    2.310000e+00
   C5e   TC3  1 3.950000e-01    2.310000e+00
   C4e   TC3  1 3.950000e-01    2.500000e+00
   P6q   TC3  1 3.980000e-01    1.450000e+00
   P5q   TC3  1 3.950000e-01    1.670000e+00
   P4q   TC3  1 3.950000e-01    1.670000e+00
   P3q   TC3  1 3.950000e-01    1.670000e+00
   P2q   TC3  1 3.950000e-01    1.850000e+00
   P1q   TC3  1 3.950000e-01    1.850000e+00
   N6q   TC3  1 3.950000e-01    2.110000e+00
   N5q   TC3  1 3.950000e-01    2.310000e+00
   N4q   TC3  1 3.950000e-01    2.310000e+00
   N3q   TC3  1 3.950000e-01    2.310000e+00
   N2q   TC3  1 3.950000e-01    2.500000e+00
   N1q   TC3  1 3.950000e-01    2.500000e+00
   C6q   TC3  1 3.950000e-01    2.500000e+00
   C5q   TC3  1 3.950000e-01    2.500000e+00
   C4q   TC3  1 3.950000e-01    2.700000e+00
  C4eq   TC3  1 3.950000e-01    2.940000e+00
  C5eq   TC3  1 3.950000e-01    2.700000e+00
  C6eq   TC3  1 3.950000e-01    2.700000e+00
  C4vq   TC3  1 3.950000e-01    2.940000e+00
  C5vq   TC3  1 3.950000e-01    2.700000e+00
  C6vq   TC3  1 3.950000e-01    2.700000e+00
  N1aq   TC3  1 3.950000e-01    2.500000e+00
  N2aq   TC3  1 3.950000e-01    2.500000e+00
  N3aq   TC3  1 3.950000e-01    2.310000e+00
  N4aq   TC3  1 3.950000e-01    2.310000e+00
  N5aq   TC3  1 3.950000e-01    2.310000e+00
  N6aq   TC3  1 3.950000e-01    2.110000e+00
  P1aq   TC3  1 3.950000e-01    1.850000e+00
  P2aq   TC3  1 3.950000e-01    1.850000e+00
  P3aq   TC3  1 3.950000e-01    1.670000e+00
  P4aq   TC3  1 3.950000e-01    1.670000e+00
  P5aq   TC3  1 3.950000e-01    1.670000e+00
  P6aq   TC3  1 3.980000e-01    1.450000e+00
  N1dq   TC3  1 3.950000e-01    2.500000e+00
  N2dq   TC3  1 3.950000e-01    2.500000e+00
  N3dq   TC3  1 3.950000e-01    2.310000e+00
  N4dq   TC3  1 3.950000e-01    2.310000e+00
  N5dq   TC3  1 3.950000e-01    2.310000e+00
  N6dq   TC3  1 3.950000e-01    2.110000e+00
  P1dq   TC3  1 3.950000e-01    1.850000e+00
  P2dq   TC3  1 3.950000e-01    1.850000e+00
  P3dq   TC3  1 3.950000e-01    1.670000e+00
  P4dq   TC3  1 3.950000e-01    1.670000e+00
  P5dq   TC3  1 3.950000e-01    1.670000e+00
  P6dq   TC3  1 3.980000e-01    1.450000e+00
   P6h   TC3  1 4.010000e-01    9.830000e-01
   P5h   TC3  1 3.990000e-01    1.180000e+00
   P4h   TC3  1 3.990000e-01    1.180000e+00
   P3h   TC3  1 3.990000e-01    1.180000e+00
   P2h   TC3  1 3.980000e-01    1.450000e+00
   P1h   TC3  1 3.980000e-01    1.450000e+00
   N6h   TC3  1 3.950000e-01    1.670000e+00
   N5h   TC3  1 3.950000e-01    1.850000e+00
   N4h   TC3  1 3.950000e-01    1.850000e+00
   N3h   TC3  1 3.950000e-01    1.850000e+00
   N2h   TC3  1 3.950000e-01    2.110000e+00
   N1h   TC3  1 3.950000e-01    2.110000e+00
   C6h   TC3  1 3.950000e-01    2.110000e+00
   C5h   TC3  1 3.950000e-01    2.110000e+00
   C4h   TC3  1 3.950000e-01    2.310000e+00
  C4eh   TC3  1 3.950000e-01    2.500000e+00
  C5eh   TC3  1 3.950000e-01    2.310000e+00
  C6eh   TC3  1 3.950000e-01    2.310000e+00
  C4vh   TC3  1 3.950000e-01    2.500000e+00
  C5vh   TC3  1 3.950000e-01    2.310000e+00
  C6vh   TC3  1 3.950000e-01    2.310000e+00
  N1ah   TC3  1 3.950000e-01    2.110000e+00
  N2ah   TC3  1 3.950000e-01    2.110000e+00
  N3ah   TC3  1 3.950000e-01    1.850000e+00
  N4ah   TC3  1 3.950000e-01    1.850000e+00
  N5ah   TC3  1 3.950000e-01    1.850000e+00
  N6ah   TC3  1 3.950000e-01    1.670000e+00
  P1ah   TC3  1 3.980000e-01    1.450000e+00
  P2ah   TC3  1 3.980000e-01    1.450000e+00
  P3ah   TC3  1 3.990000e-01    1.180000e+00
  P4ah   TC3  1 3.990000e-01    1.180000e+00
  P5ah   TC3  1 3.990000e-01    1.180000e+00
  P6ah   TC3  1 4.010000e-01    9.830000e-01
  N1dh   TC3  1 3.950000e-01    2.110000e+00
  N2dh   TC3  1 3.950000e-01    2.110000e+00
  N3dh   TC3  1 3.950000e-01    1.850000e+00
  N4dh   TC3  1 3.950000e-01    1.850000e+00
  N5dh   TC3  1 3.950000e-01    1.850000e+00
  N6dh   TC3  1 3.950000e-01    1.670000e+00
  P1dh   TC3  1 3.980000e-01    1.450000e+00
  P2dh   TC3  1 3.980000e-01    1.450000e+00
  P3dh   TC3  1 3.990000e-01    1.180000e+00
  P4dh   TC3  1 3.990000e-01    1.180000e+00
  P5dh   TC3  1 3.990000e-01    1.180000e+00
  P6dh   TC3  1 4.010000e-01    9.830000e-01
   P6r   TC3  1 4.010000e-01    9.830000e-01
   P5r   TC3  1 3.990000e-01    1.180000e+00
   P4r   TC3  1 3.990000e-01    1.180000e+00
   P3r   TC3  1 3.990000e-01    1.180000e+00
   P2r   TC3  1 3.980000e-01    1.450000e+00
   P1r   TC3  1 3.980000e-01    1.450000e+00
   N6r   TC3  1 3.950000e-01    1.670000e+00
   N5r   TC3  1 3.950000e-01    1.850000e+00
   N4r   TC3  1 3.950000e-01    1.850000e+00
   N3r   TC3  1 3.950000e-01    1.850000e+00
   N2r   TC3  1 3.950000e-01    2.110000e+00
   N1r   TC3  1 3.950000e-01    2.110000e+00
   C6r   TC3  1 3.950000e-01    2.110000e+00
   C5r   TC3  1 3.950000e-01    2.110000e+00
   C4r   TC3  1 3.950000e-01    2.310000e+00
  C4er   TC3  1 3.950000e-01    2.500000e+00
  C5er   TC3  1 3.950000e-01    2.310000e+00
  C6er   TC3  1 3.950000e-01    2.310000e+00
  C4vr   TC3  1 3.950000e-01    2.500000e+00
  C5vr   TC3  1 3.950000e-01    2.310000e+00
  C6vr   TC3  1 3.950000e-01    2.310000e+00
  N1ar   TC3  1 3.950000e-01    2.110000e+00
  N2ar   TC3  1 3.950000e-01    2.110000e+00
  N3ar   TC3  1 3.950000e-01    1.850000e+00
  N4ar   TC3  1 3.950000e-01    1.850000e+00
  N5ar   TC3  1 3.950000e-01    1.850000e+00
  N6ar   TC3  1 3.950000e-01    1.670000e+00
  P1ar   TC3  1 3.980000e-01    1.450000e+00
  P2ar   TC3  1 3.980000e-01    1.450000e+00
  P3ar   TC3  1 3.990000e-01    1.180000e+00
  P4ar   TC3  1 3.990000e-01    1.180000e+00
  P5ar   TC3  1 3.990000e-01    1.180000e+00
  P6ar   TC3  1 4.010000e-01    9.830000e-01
  N1dr   TC3  1 3.950000e-01    2.110000e+00
  N2dr   TC3  1 3.950000e-01    2.110000e+00
  N3dr   TC3  1 3.950000e-01    1.850000e+00
  N4dr   TC3  1 3.950000e-01    1.850000e+00
  N5dr   TC3  1 3.950000e-01    1.850000e+00
  N6dr   TC3  1 3.950000e-01    1.670000e+00
  P1dr   TC3  1 3.980000e-01    1.450000e+00
  P2dr   TC3  1 3.980000e-01    1.450000e+00
  P3dr   TC3  1 3.990000e-01    1.180000e+00
  P4dr   TC3  1 3.990000e-01    1.180000e+00
  P5dr   TC3  1 3.990000e-01    1.180000e+00
  P6dr   TC3  1 4.010000e-01    9.830000e-01
   TC3    C2  1 3.950000e-01    2.310000e+00
   TC3    C1  1 3.950000e-01    2.310000e+00
   TC3    X4  1 3.950000e-01    2.110000e+00
   TC3    X3  1 3.950000e-01    2.110000e+00
   TC3    X2  1 3.950000e-01    2.110000e+00
   TC3    X1  1 3.950000e-01    2.310000e+00
   TC3   C3v  1 3.950000e-01    2.500000e+00
   TC3   X1v  1 3.950000e-01    2.500000e+00
   TC3   X2v  1 3.950000e-01    2.310000e+00
   TC3   X3v  1 3.950000e-01    2.310000e+00
   TC3   X4v  1 3.950000e-01    2.310000e+00
   TC3   C1v  1 3.950000e-01    2.500000e+00
   TC3   C2v  1 3.950000e-01    2.500000e+00
   TC3   C3e  1 3.950000e-01    2.500000e+00
   TC3   X1e  1 3.950000e-01    2.500000e+00
   TC3   X2e  1 3.950000e-01    2.310000e+00
   TC3   X3e  1 3.950000e-01    2.310000e+00
   TC3   X4e  1 3.950000e-01    2.310000e+00
   TC3   C1e  1 3.950000e-01    2.500000e+00
   TC3   C2e  1 3.950000e-01    2.500000e+00
   TC3   C3q  1 3.950000e-01    2.700000e+00
   TC3  X1eq  1 3.950000e-01    2.940000e+00
   TC3  X2eq  1 3.950000e-01    2.700000e+00
   TC3  X3eq  1 3.950000e-01    2.700000e+00
   TC3  X4eq  1 3.950000e-01    2.700000e+00
   TC3  C1eq  1 3.950000e-01    2.940000e+00
   TC3  C2eq  1 3.950000e-01    2.940000e+00
   TC3  C3eq  1 3.950000e-01    2.940000e+00
   TC3  X1vq  1 3.950000e-01    2.940000e+00
   TC3  X2vq  1 3.950000e-01    2.700000e+00
   TC3  X3vq  1 3.950000e-01    2.700000e+00
   TC3  X4vq  1 3.950000e-01    2.700000e+00
   TC3  C1vq  1 3.950000e-01    2.940000e+00
   TC3  C2vq  1 3.950000e-01    2.940000e+00
   TC3  C3vq  1 3.950000e-01    2.940000e+00
   TC3   X1q  1 3.950000e-01    2.700000e+00
   TC3   X2q  1 3.950000e-01    2.500000e+00
   TC3   X3q  1 3.950000e-01    2.500000e+00
   TC3   X4q  1 3.950000e-01    2.500000e+00
   TC3   C1q  1 3.950000e-01    2.700000e+00
   TC3   C2q  1 3.950000e-01    2.700000e+00
   TC3   C3h  1 3.950000e-01    2.310000e+00
   TC3  X1eh  1 3.950000e-01    2.500000e+00
   TC3  X2eh  1 3.950000e-01    2.310000e+00
   TC3  X3eh  1 3.950000e-01    2.310000e+00
   TC3  X4eh  1 3.950000e-01    2.310000e+00
   TC3  C1eh  1 3.950000e-01    2.500000e+00
   TC3  C2eh  1 3.950000e-01    2.500000e+00
   TC3  C3eh  1 3.950000e-01    2.500000e+00
   TC3  X1vh  1 3.950000e-01    2.500000e+00
   TC3  X2vh  1 3.950000e-01    2.310000e+00
   TC3  X3vh  1 3.950000e-01    2.310000e+00
   TC3  X4vh  1 3.950000e-01    2.310000e+00
   TC3  C1vh  1 3.950000e-01    2.500000e+00
   TC3  C2vh  1 3.950000e-01    2.500000e+00
   TC3  C3vh  1 3.950000e-01    2.500000e+00
   TC3   X1h  1 3.950000e-01    2.310000e+00
   TC3   X2h  1 3.950000e-01    2.110000e+00
   TC3   X3h  1 3.950000e-01    2.110000e+00
   TC3   X4h  1 3.950000e-01    2.110000e+00
   TC3   C1h  1 3.950000e-01    2.310000e+00
   TC3   C2h  1 3.950000e-01    2.310000e+00
   TC3   C3r  1 3.950000e-01    2.310000e+00
   TC3  X1er  1 3.950000e-01    2.500000e+00
   TC3  X2er  1 3.950000e-01    2.310000e+00
   TC3  X3er  1 3.950000e-01    2.310000e+00
   TC3  X4er  1 3.950000e-01    2.310000e+00
   TC3  C1er  1 3.950000e-01    2.500000e+00
   TC3  C2er  1 3.950000e-01    2.500000e+00
   TC3  C3er  1 3.950000e-01    2.500000e+00
   TC3  X1vr  1 3.950000e-01    2.500000e+00
   TC3  X2vr  1 3.950000e-01    2.310000e+00
   TC3  X3vr  1 3.950000e-01    2.310000e+00
   TC3  X4vr  1 3.950000e-01    2.310000e+00
   TC3  C1vr  1 3.950000e-01    2.500000e+00
   TC3  C2vr  1 3.950000e-01    2.500000e+00
   TC3  C3vr  1 3.950000e-01    2.500000e+00
   TC3   X1r  1 3.950000e-01    2.310000e+00
   TC3   X2r  1 3.950000e-01    2.110000e+00
   TC3   X3r  1 3.950000e-01    2.110000e+00
   TC3   X4r  1 3.950000e-01    2.110000e+00
   TC3   C1r  1 3.950000e-01    2.310000e+00
   TC3   C2r  1 3.950000e-01    2.310000e+00
   TC3   TC3  1 3.400000e-01    1.510000e+00
   TC3   TC2  1 3.400000e-01    1.510000e+00
   TC3   TC1  1 3.400000e-01    1.510000e+00
   TC3   TX4  1 3.400000e-01    1.230000e+00
   TC3   TX3  1 3.400000e-01    1.230000e+00
   TC3   TX2  1 3.400000e-01    1.230000e+00
   TC3   TX1  1 3.400000e-01    1.510000e+00
  TP6d   TC3  1 4.240000e-01    7.760000e-01
  TP5d   TC3  1 4.110000e-01    8.010000e-01
  TP4d   TC3  1 4.110000e-01    8.010000e-01
  TP3d   TC3  1 4.110000e-01    8.010000e-01
  TP2d   TC3  1 3.850000e-01    8.550000e-01
  TP1d   TC3  1 3.850000e-01    8.550000e-01
  TN6d   TC3  1 3.660000e-01    9.350000e-01
  TN5d   TC3  1 3.520000e-01    1.050000e+00
  TN4d   TC3  1 3.520000e-01    1.050000e+00
  TN3d   TC3  1 3.520000e-01    1.050000e+00
  TN2d   TC3  1 3.400000e-01    1.230000e+00
  TN1d   TC3  1 3.400000e-01    1.230000e+00
  TP6a   TC3  1 4.240000e-01    7.760000e-01
  TP5a   TC3  1 4.110000e-01    8.010000e-01
  TP4a   TC3  1 4.110000e-01    8.010000e-01
  TP3a   TC3  1 4.110000e-01    8.010000e-01
  TP2a   TC3  1 3.850000e-01    8.550000e-01
  TP1a   TC3  1 3.850000e-01    8.550000e-01
  TN6a   TC3  1 3.660000e-01    9.350000e-01
  TN5a   TC3  1 3.520000e-01    1.050000e+00
  TN4a   TC3  1 3.520000e-01    1.050000e+00
  TN3a   TC3  1 3.520000e-01    1.050000e+00
  TN2a   TC3  1 3.400000e-01    1.230000e+00
  TN1a   TC3  1 3.400000e-01    1.230000e+00
  TC6v   TC3  1 3.400000e-01    1.510000e+00
  TC5v   TC3  1 3.400000e-01    1.510000e+00
  TC4v   TC3  1 3.400000e-01    1.770000e+00
   TC3  TC3v  1 3.400000e-01    1.770000e+00
   TC3  TX1v  1 3.400000e-01    1.770000e+00
   TC3  TX2v  1 3.400000e-01    1.510000e+00
   TC3  TX3v  1 3.400000e-01    1.510000e+00
   TC3  TX4v  1 3.400000e-01    1.510000e+00
   TC3  TC1v  1 3.400000e-01    1.770000e+00
   TC3  TC2v  1 3.400000e-01    1.770000e+00
  TC6e   TC3  1 3.400000e-01    1.510000e+00
  TC5e   TC3  1 3.400000e-01    1.510000e+00
  TC4e   TC3  1 3.400000e-01    1.770000e+00
   TC3  TC3e  1 3.400000e-01    1.770000e+00
   TC3  TX1e  1 3.400000e-01    1.770000e+00
   TC3  TX2e  1 3.400000e-01    1.510000e+00
   TC3  TX3e  1 3.400000e-01    1.510000e+00
   TC3  TX4e  1 3.400000e-01    1.510000e+00
   TC3  TC1e  1 3.400000e-01    1.770000e+00
   TC3  TC2e  1 3.400000e-01    1.770000e+00
  TP6q   TC3  1 3.850000e-01    8.550000e-01
  TP5q   TC3  1 3.660000e-01    9.350000e-01
  TP4q   TC3  1 3.660000e-01    9.350000e-01
  TP3q   TC3  1 3.660000e-01    9.350000e-01
  TP2q   TC3  1 3.520000e-01    1.050000e+00
  TP1q   TC3  1 3.520000e-01    1.050000e+00
  TN6q   TC3  1 3.400000e-01    1.230000e+00
  TN5q   TC3  1 3.400000e-01    1.510000e+00
  TN4q   TC3  1 3.400000e-01    1.510000e+00
  TN3q   TC3  1 3.400000e-01    1.510000e+00
  TN2q   TC3  1 3.400000e-01    1.770000e+00
  TN1q   TC3  1 3.400000e-01    1.770000e+00
  TC6q   TC3  1 3.400000e-01    1.770000e+00
  TC5q   TC3  1 3.400000e-01    1.770000e+00
  TC4q   TC3  1 3.400000e-01    2.020000e+00
   TC3  TC3q  1 3.400000e-01    2.020000e+00
   TC3 TX1eq  1 3.400000e-01    2.280000e+00
   TC3 TX2eq  1 3.400000e-01    2.020000e+00
   TC3 TX3eq  1 3.400000e-01    2.020000e+00
   TC3 TX4eq  1 3.400000e-01    2.020000e+00
   TC3 TC1eq  1 3.400000e-01    2.280000e+00
   TC3 TC2eq  1 3.400000e-01    2.280000e+00
   TC3 TC3eq  1 3.400000e-01    2.280000e+00
 TC4eq   TC3  1 3.400000e-01    2.280000e+00
 TC5eq   TC3  1 3.400000e-01    2.020000e+00
 TC6eq   TC3  1 3.400000e-01    2.020000e+00
   TC3 TX1vq  1 3.400000e-01    2.280000e+00
   TC3 TX2vq  1 3.400000e-01    2.020000e+00
   TC3 TX3vq  1 3.400000e-01    2.020000e+00
   TC3 TX4vq  1 3.400000e-01    2.020000e+00
   TC3 TC1vq  1 3.400000e-01    2.280000e+00
   TC3 TC2vq  1 3.400000e-01    2.280000e+00
   TC3 TC3vq  1 3.400000e-01    2.280000e+00
 TC4vq   TC3  1 3.400000e-01    2.280000e+00
 TC5vq   TC3  1 3.400000e-01    2.020000e+00
 TC6vq   TC3  1 3.400000e-01    2.020000e+00
 TN1aq   TC3  1 3.400000e-01    1.770000e+00
 TN2aq   TC3  1 3.400000e-01    1.770000e+00
 TN3aq   TC3  1 3.400000e-01    1.510000e+00
 TN4aq   TC3  1 3.400000e-01    1.510000e+00
 TN5aq   TC3  1 3.400000e-01    1.510000e+00
 TN6aq   TC3  1 3.400000e-01    1.230000e+00
 TP1aq   TC3  1 3.520000e-01    1.050000e+00
 TP2aq   TC3  1 3.520000e-01    1.050000e+00
 TP3aq   TC3  1 3.660000e-01    9.350000e-01
 TP4aq   TC3  1 3.660000e-01    9.350000e-01
 TP5aq   TC3  1 3.660000e-01    9.350000e-01
 TP6aq   TC3  1 3.850000e-01    8.550000e-01
 TN1dq   TC3  1 3.400000e-01    1.770000e+00
 TN2dq   TC3  1 3.400000e-01    1.770000e+00
 TN3dq   TC3  1 3.400000e-01    1.510000e+00
 TN4dq   TC3  1 3.400000e-01    1.510000e+00
 TN5dq   TC3  1 3.400000e-01    1.510000e+00
 TN6dq   TC3  1 3.400000e-01    1.230000e+00
 TP1dq   TC3  1 3.520000e-01    1.050000e+00
 TP2dq   TC3  1 3.520000e-01    1.050000e+00
 TP3dq   TC3  1 3.660000e-01    9.350000e-01
 TP4dq   TC3  1 3.660000e-01    9.350000e-01
 TP5dq   TC3  1 3.660000e-01    9.350000e-01
 TP6dq   TC3  1 3.850000e-01    8.550000e-01
   TC3  TX1q  1 3.400000e-01    2.020000e+00
   TC3  TX2q  1 3.400000e-01    1.770000e+00
   TC3  TX3q  1 3.400000e-01    1.770000e+00
   TC3  TX4q  1 3.400000e-01    1.770000e+00
   TC3  TC1q  1 3.400000e-01    2.020000e+00
   TC3  TC2q  1 3.400000e-01    2.020000e+00
  TP6h   TC3  1 4.240000e-01    7.760000e-01
  TP5h   TC3  1 4.110000e-01    8.010000e-01
  TP4h   TC3  1 4.110000e-01    8.010000e-01
  TP3h   TC3  1 4.110000e-01    8.010000e-01
  TP2h   TC3  1 3.850000e-01    8.550000e-01
  TP1h   TC3  1 3.850000e-01    8.550000e-01
  TN6h   TC3  1 3.660000e-01    9.350000e-01
  TN5h   TC3  1 3.520000e-01    1.050000e+00
  TN4h   TC3  1 3.520000e-01    1.050000e+00
  TN3h   TC3  1 3.520000e-01    1.050000e+00
  TN2h   TC3  1 3.400000e-01    1.230000e+00
  TN1h   TC3  1 3.400000e-01    1.230000e+00
  TC6h   TC3  1 3.400000e-01    1.230000e+00
  TC5h   TC3  1 3.400000e-01    1.230000e+00
  TC4h   TC3  1 3.400000e-01    1.510000e+00
   TC3  TC3h  1 3.400000e-01    1.510000e+00
   TC3 TX1eh  1 3.400000e-01    1.770000e+00
   TC3 TX2eh  1 3.400000e-01    1.510000e+00
   TC3 TX3eh  1 3.400000e-01    1.510000e+00
   TC3 TX4eh  1 3.400000e-01    1.510000e+00
   TC3 TC1eh  1 3.400000e-01    1.770000e+00
   TC3 TC2eh  1 3.400000e-01    1.770000e+00
   TC3 TC3eh  1 3.400000e-01    1.770000e+00
 TC4eh   TC3  1 3.400000e-01    1.770000e+00
 TC5eh   TC3  1 3.400000e-01    1.510000e+00
 TC6eh   TC3  1 3.400000e-01    1.510000e+00
   TC3 TX1vh  1 3.400000e-01    1.770000e+00
   TC3 TX2vh  1 3.400000e-01    1.510000e+00
   TC3 TX3vh  1 3.400000e-01    1.510000e+00
   TC3 TX4vh  1 3.400000e-01    1.510000e+00
   TC3 TC1vh  1 3.400000e-01    1.770000e+00
   TC3 TC2vh  1 3.400000e-01    1.770000e+00
   TC3 TC3vh  1 3.400000e-01    1.770000e+00
 TC4vh   TC3  1 3.400000e-01    1.770000e+00
 TC5vh   TC3  1 3.400000e-01    1.510000e+00
 TC6vh   TC3  1 3.400000e-01    1.510000e+00
 TN1ah   TC3  1 3.400000e-01    1.230000e+00
 TN2ah   TC3  1 3.400000e-01    1.230000e+00
 TN3ah   TC3  1 3.520000e-01    1.050000e+00
 TN4ah   TC3  1 3.520000e-01    1.050000e+00
 TN5ah   TC3  1 3.520000e-01    1.050000e+00
 TN6ah   TC3  1 3.660000e-01    9.350000e-01
 TP1ah   TC3  1 3.850000e-01    8.550000e-01
 TP2ah   TC3  1 3.850000e-01    8.550000e-01
 TP3ah   TC3  1 4.110000e-01    8.010000e-01
 TP4ah   TC3  1 4.110000e-01    8.010000e-01
 TP5ah   TC3  1 4.110000e-01    8.010000e-01
 TP6ah   TC3  1 4.240000e-01    7.760000e-01
 TN1dh   TC3  1 3.400000e-01    1.230000e+00
 TN2dh   TC3  1 3.400000e-01    1.230000e+00
 TN3dh   TC3  1 3.520000e-01    1.050000e+00
 TN4dh   TC3  1 3.520000e-01    1.050000e+00
 TN5dh   TC3  1 3.520000e-01    1.050000e+00
 TN6dh   TC3  1 3.660000e-01    9.350000e-01
 TP1dh   TC3  1 3.850000e-01    8.550000e-01
 TP2dh   TC3  1 3.850000e-01    8.550000e-01
 TP3dh   TC3  1 4.110000e-01    8.010000e-01
 TP4dh   TC3  1 4.110000e-01    8.010000e-01
 TP5dh   TC3  1 4.110000e-01    8.010000e-01
 TP6dh   TC3  1 4.240000e-01    7.760000e-01
   TC3  TX1h  1 3.400000e-01    1.510000e+00
   TC3  TX2h  1 3.400000e-01    1.230000e+00
   TC3  TX3h  1 3.400000e-01    1.230000e+00
   TC3  TX4h  1 3.400000e-01    1.230000e+00
   TC3  TC1h  1 3.400000e-01    1.510000e+00
   TC3  TC2h  1 3.400000e-01    1.510000e+00
  TP6r   TC3  1 4.240000e-01    7.760000e-01
  TP5r   TC3  1 4.110000e-01    8.010000e-01
  TP4r   TC3  1 4.110000e-01    8.010000e-01
  TP3r   TC3  1 4.110000e-01    8.010000e-01
  TP2r   TC3  1 3.850000e-01    8.550000e-01
  TP1r   TC3  1 3.850000e-01    8.550000e-01
  TN6r   TC3  1 3.660000e-01    9.350000e-01
  TN5r   TC3  1 3.520000e-01    1.050000e+00
  TN4r   TC3  1 3.520000e-01    1.050000e+00
  TN3r   TC3  1 3.520000e-01    1.050000e+00
  TN2r   TC3  1 3.400000e-01    1.230000e+00
  TN1r   TC3  1 3.400000e-01    1.230000e+00
  TC6r   TC3  1 3.400000e-01    1.230000e+00
  TC5r   TC3  1 3.400000e-01    1.230000e+00
  TC4r   TC3  1 3.400000e-01    1.510000e+00
   TC3  TC3r  1 3.400000e-01    1.510000e+00
   TC3 TX1er  1 3.400000e-01    1.770000e+00
   TC3 TX2er  1 3.400000e-01    1.510000e+00
   TC3 TX3er  1 3.400000e-01    1.510000e+00
   TC3 TX4er  1 3.400000e-01    1.510000e+00
   TC3 TC1er  1 3.400000e-01    1.770000e+00
   TC3 TC2er  1 3.400000e-01    1.770000e+00
   TC3 TC3er  1 3.400000e-01    1.770000e+00
 TC4er   TC3  1 3.400000e-01    1.770000e+00
 TC5er   TC3  1 3.400000e-01    1.510000e+00
 TC6er   TC3  1 3.400000e-01    1.510000e+00
   TC3 TX1vr  1 3.400000e-01    1.770000e+00
   TC3 TX2vr  1 3.400000e-01    1.510000e+00
   TC3 TX3vr  1 3.400000e-01    1.510000e+00
   TC3 TX4vr  1 3.400000e-01    1.510000e+00
   TC3 TC1vr  1 3.400000e-01    1.770000e+00
   TC3 TC2vr  1 3.400000e-01    1.770000e+00
   TC3 TC3vr  1 3.400000e-01    1.770000e+00
 TC4vr   TC3  1 3.400000e-01    1.770000e+00
 TC5vr   TC3  1 3.400000e-01    1.510000e+00
 TC6vr   TC3  1 3.400000e-01    1.510000e+00
 TN1ar   TC3  1 3.400000e-01    1.230000e+00
 TN2ar   TC3  1 3.400000e-01    1.230000e+00
 TN3ar   TC3  1 3.520000e-01    1.050000e+00
 TN4ar   TC3  1 3.520000e-01    1.050000e+00
 TN5ar   TC3  1 3.520000e-01    1.050000e+00
 TN6ar   TC3  1 3.660000e-01    9.350000e-01
 TP1ar   TC3  1 3.850000e-01    8.550000e-01
 TP2ar   TC3  1 3.850000e-01    8.550000e-01
 TP3ar   TC3  1 4.110000e-01    8.010000e-01
 TP4ar   TC3  1 4.110000e-01    8.010000e-01
 TP5ar   TC3  1 4.110000e-01    8.010000e-01
 TP6ar   TC3  1 4.240000e-01    7.760000e-01
 TN1dr   TC3  1 3.400000e-01    1.230000e+00
 TN2dr   TC3  1 3.400000e-01    1.230000e+00
 TN3dr   TC3  1 3.520000e-01    1.050000e+00
 TN4dr   TC3  1 3.520000e-01    1.050000e+00
 TN5dr   TC3  1 3.520000e-01    1.050000e+00
 TN6dr   TC3  1 3.660000e-01    9.350000e-01
 TP1dr   TC3  1 3.850000e-01    8.550000e-01
 TP2dr   TC3  1 3.850000e-01    8.550000e-01
 TP3dr   TC3  1 4.110000e-01    8.010000e-01
 TP4dr   TC3  1 4.110000e-01    8.010000e-01
 TP5dr   TC3  1 4.110000e-01    8.010000e-01
 TP6dr   TC3  1 4.240000e-01    7.760000e-01
   TC3  TX1r  1 3.400000e-01    1.510000e+00
   TC3  TX2r  1 3.400000e-01    1.230000e+00
   TC3  TX3r  1 3.400000e-01    1.230000e+00
   TC3  TX4r  1 3.400000e-01    1.230000e+00
   TC3  TC1r  1 3.400000e-01    1.510000e+00
   TC3  TC2r  1 3.400000e-01    1.510000e+00
  SP6d   TC3  1 4.090000e-01    1.080000e+00
  SP5d   TC3  1 4.040000e-01    1.130000e+00
  SP4d   TC3  1 4.040000e-01    1.130000e+00
  SP3d   TC3  1 4.040000e-01    1.130000e+00
  SP2d   TC3  1 3.940000e-01    1.290000e+00
  SP1d   TC3  1 3.940000e-01    1.290000e+00
  SN6d   TC3  1 3.780000e-01    1.450000e+00
  SN5d   TC3  1 3.660000e-01    1.600000e+00
  SN4d   TC3  1 3.660000e-01    1.600000e+00
  SN3d   TC3  1 3.660000e-01    1.600000e+00
  SN2d   TC3  1 3.650000e-01    1.750000e+00
  SN1d   TC3  1 3.650000e-01    1.750000e+00
  SP6a   TC3  1 4.090000e-01    1.080000e+00
  SP5a   TC3  1 4.040000e-01    1.130000e+00
  SP4a   TC3  1 4.040000e-01    1.130000e+00
  SP3a   TC3  1 4.040000e-01    1.130000e+00
  SP2a   TC3  1 3.940000e-01    1.290000e+00
  SP1a   TC3  1 3.940000e-01    1.290000e+00
  SN6a   TC3  1 3.780000e-01    1.450000e+00
  SN5a   TC3  1 3.660000e-01    1.600000e+00
  SN4a   TC3  1 3.660000e-01    1.600000e+00
  SN3a   TC3  1 3.660000e-01    1.600000e+00
  SN2a   TC3  1 3.650000e-01    1.750000e+00
  SN1a   TC3  1 3.650000e-01    1.750000e+00
  SC6v   TC3  1 3.650000e-01    1.910000e+00
  SC5v   TC3  1 3.650000e-01    1.910000e+00
  SC4v   TC3  1 3.650000e-01    2.110000e+00
  SC6e   TC3  1 3.650000e-01    1.910000e+00
  SC5e   TC3  1 3.650000e-01    1.910000e+00
  SC4e   TC3  1 3.650000e-01    2.110000e+00
  SP6q   TC3  1 3.940000e-01    1.290000e+00
  SP5q   TC3  1 3.780000e-01    1.450000e+00
  SP4q   TC3  1 3.780000e-01    1.450000e+00
  SP3q   TC3  1 3.780000e-01    1.450000e+00
  SP2q   TC3  1 3.660000e-01    1.600000e+00
  SP1q   TC3  1 3.660000e-01    1.600000e+00
  SN6q   TC3  1 3.650000e-01    1.750000e+00
  SN5q   TC3  1 3.650000e-01    1.910000e+00
  SN4q   TC3  1 3.650000e-01    1.910000e+00
  SN3q   TC3  1 3.650000e-01    1.910000e+00
  SN2q   TC3  1 3.650000e-01    2.110000e+00
  SN1q   TC3  1 3.650000e-01    2.110000e+00
  SC6q   TC3  1 3.650000e-01    2.110000e+00
  SC5q   TC3  1 3.650000e-01    2.110000e+00
  SC4q   TC3  1 3.650000e-01    2.340000e+00
 SC4eq   TC3  1 3.650000e-01    2.570000e+00
 SC5eq   TC3  1 3.650000e-01    2.340000e+00
 SC6eq   TC3  1 3.650000e-01    2.340000e+00
 SC4vq   TC3  1 3.650000e-01    2.570000e+00
 SC5vq   TC3  1 3.650000e-01    2.340000e+00
 SC6vq   TC3  1 3.650000e-01    2.340000e+00
 SN1aq   TC3  1 3.650000e-01    2.110000e+00
 SN2aq   TC3  1 3.650000e-01    2.110000e+00
 SN3aq   TC3  1 3.650000e-01    1.910000e+00
 SN4aq   TC3  1 3.650000e-01    1.910000e+00
 SN5aq   TC3  1 3.650000e-01    1.910000e+00
 SN6aq   TC3  1 3.650000e-01    1.750000e+00
 SP1aq   TC3  1 3.660000e-01    1.600000e+00
 SP2aq   TC3  1 3.660000e-01    1.600000e+00
 SP3aq   TC3  1 3.780000e-01    1.450000e+00
 SP4aq   TC3  1 3.780000e-01    1.450000e+00
 SP5aq   TC3  1 3.780000e-01    1.450000e+00
 SP6aq   TC3  1 3.940000e-01    1.290000e+00
 SN1dq   TC3  1 3.650000e-01    2.110000e+00
 SN2dq   TC3  1 3.650000e-01    2.110000e+00
 SN3dq   TC3  1 3.650000e-01    1.910000e+00
 SN4dq   TC3  1 3.650000e-01    1.910000e+00
 SN5dq   TC3  1 3.650000e-01    1.910000e+00
 SN6dq   TC3  1 3.650000e-01    1.750000e+00
 SP1dq   TC3  1 3.660000e-01    1.600000e+00
 SP2dq   TC3  1 3.660000e-01    1.600000e+00
 SP3dq   TC3  1 3.780000e-01    1.450000e+00
 SP4dq   TC3  1 3.780000e-01    1.450000e+00
 SP5dq   TC3  1 3.780000e-01    1.450000e+00
 SP6dq   TC3  1 3.940000e-01    1.290000e+00
  SP6h   TC3  1 4.090000e-01    1.080000e+00
  SP5h   TC3  1 4.040000e-01    1.130000e+00
  SP4h   TC3  1 4.040000e-01    1.130000e+00
  SP3h   TC3  1 4.040000e-01    1.130000e+00
  SP2h   TC3  1 3.940000e-01    1.290000e+00
  SP1h   TC3  1 3.940000e-01    1.290000e+00
  SN6h   TC3  1 3.780000e-01    1.450000e+00
  SN5h   TC3  1 3.660000e-01    1.600000e+00
  SN4h   TC3  1 3.660000e-01    1.600000e+00
  SN3h   TC3  1 3.660000e-01    1.600000e+00
  SN2h   TC3  1 3.650000e-01    1.750000e+00
  SN1h   TC3  1 3.650000e-01    1.750000e+00
  SC6h   TC3  1 3.650000e-01    1.750000e+00
  SC5h   TC3  1 3.650000e-01    1.750000e+00
  SC4h   TC3  1 3.650000e-01    1.910000e+00
 SC4eh   TC3  1 3.650000e-01    2.110000e+00
 SC5eh   TC3  1 3.650000e-01    1.910000e+00
 SC6eh   TC3  1 3.650000e-01    1.910000e+00
 SC4vh   TC3  1 3.650000e-01    2.110000e+00
 SC5vh   TC3  1 3.650000e-01    1.910000e+00
 SC6vh   TC3  1 3.650000e-01    1.910000e+00
 SN1ah   TC3  1 3.650000e-01    1.750000e+00
 SN2ah   TC3  1 3.650000e-01    1.750000e+00
 SN3ah   TC3  1 3.660000e-01    1.600000e+00
 SN4ah   TC3  1 3.660000e-01    1.600000e+00
 SN5ah   TC3  1 3.660000e-01    1.600000e+00
 SN6ah   TC3  1 3.780000e-01    1.450000e+00
 SP1ah   TC3  1 3.940000e-01    1.290000e+00
 SP2ah   TC3  1 3.940000e-01    1.290000e+00
 SP3ah   TC3  1 4.040000e-01    1.130000e+00
 SP4ah   TC3  1 4.040000e-01    1.130000e+00
 SP5ah   TC3  1 4.040000e-01    1.130000e+00
 SP6ah   TC3  1 4.090000e-01    1.080000e+00
 SN1dh   TC3  1 3.650000e-01    1.750000e+00
 SN2dh   TC3  1 3.650000e-01    1.750000e+00
 SN3dh   TC3  1 3.660000e-01    1.600000e+00
 SN4dh   TC3  1 3.660000e-01    1.600000e+00
 SN5dh   TC3  1 3.660000e-01    1.600000e+00
 SN6dh   TC3  1 3.780000e-01    1.450000e+00
 SP1dh   TC3  1 3.940000e-01    1.290000e+00
 SP2dh   TC3  1 3.940000e-01    1.290000e+00
 SP3dh   TC3  1 4.040000e-01    1.130000e+00
 SP4dh   TC3  1 4.040000e-01    1.130000e+00
 SP5dh   TC3  1 4.040000e-01    1.130000e+00
 SP6dh   TC3  1 4.090000e-01    1.080000e+00
  SP6r   TC3  1 4.090000e-01    1.080000e+00
  SP5r   TC3  1 4.040000e-01    1.130000e+00
  SP4r   TC3  1 4.040000e-01    1.130000e+00
  SP3r   TC3  1 4.040000e-01    1.130000e+00
  SP2r   TC3  1 3.940000e-01    1.290000e+00
  SP1r   TC3  1 3.940000e-01    1.290000e+00
  SN6r   TC3  1 3.780000e-01    1.450000e+00
  SN5r   TC3  1 3.660000e-01    1.600000e+00
  SN4r   TC3  1 3.660000e-01    1.600000e+00
  SN3r   TC3  1 3.660000e-01    1.600000e+00
  SN2r   TC3  1 3.650000e-01    1.750000e+00
  SN1r   TC3  1 3.650000e-01    1.750000e+00
  SC6r   TC3  1 3.650000e-01    1.750000e+00
  SC5r   TC3  1 3.650000e-01    1.750000e+00
  SC4r   TC3  1 3.650000e-01    1.910000e+00
 SC4er   TC3  1 3.650000e-01    2.110000e+00
 SC5er   TC3  1 3.650000e-01    1.910000e+00
 SC6er   TC3  1 3.650000e-01    1.910000e+00
 SC4vr   TC3  1 3.650000e-01    2.110000e+00
 SC5vr   TC3  1 3.650000e-01    1.910000e+00
 SC6vr   TC3  1 3.650000e-01    1.910000e+00
 SN1ar   TC3  1 3.650000e-01    1.750000e+00
 SN2ar   TC3  1 3.650000e-01    1.750000e+00
 SN3ar   TC3  1 3.660000e-01    1.600000e+00
 SN4ar   TC3  1 3.660000e-01    1.600000e+00
 SN5ar   TC3  1 3.660000e-01    1.600000e+00
 SN6ar   TC3  1 3.780000e-01    1.450000e+00
 SP1ar   TC3  1 3.940000e-01    1.290000e+00
 SP2ar   TC3  1 3.940000e-01    1.290000e+00
 SP3ar   TC3  1 4.040000e-01    1.130000e+00
 SP4ar   TC3  1 4.040000e-01    1.130000e+00
 SP5ar   TC3  1 4.040000e-01    1.130000e+00
 SP6ar   TC3  1 4.090000e-01    1.080000e+00
 SN1dr   TC3  1 3.650000e-01    1.750000e+00
 SN2dr   TC3  1 3.650000e-01    1.750000e+00
 SN3dr   TC3  1 3.660000e-01    1.600000e+00
 SN4dr   TC3  1 3.660000e-01    1.600000e+00
 SN5dr   TC3  1 3.660000e-01    1.600000e+00
 SN6dr   TC3  1 3.780000e-01    1.450000e+00
 SP1dr   TC3  1 3.940000e-01    1.290000e+00
 SP2dr   TC3  1 3.940000e-01    1.290000e+00
 SP3dr   TC3  1 4.040000e-01    1.130000e+00
 SP4dr   TC3  1 4.040000e-01    1.130000e+00
 SP5dr   TC3  1 4.040000e-01    1.130000e+00
 SP6dr   TC3  1 4.090000e-01    1.080000e+00
   TC3   SC2  1 3.650000e-01    1.910000e+00
   TC3   SC1  1 3.650000e-01    1.910000e+00
   TC3   SX4  1 3.650000e-01    1.750000e+00
   TC3   SX3  1 3.650000e-01    1.750000e+00
   TC3   SX2  1 3.650000e-01    1.750000e+00
   TC3   SX1  1 3.650000e-01    1.910000e+00
   TC3  SC3v  1 3.650000e-01    2.110000e+00
   TC3  SX1v  1 3.650000e-01    2.110000e+00
   TC3  SX2v  1 3.650000e-01    1.910000e+00
   TC3  SX3v  1 3.650000e-01    1.910000e+00
   TC3  SX4v  1 3.650000e-01    1.910000e+00
   TC3  SC1v  1 3.650000e-01    2.110000e+00
   TC3  SC2v  1 3.650000e-01    2.110000e+00
   TC3  SC3e  1 3.650000e-01    2.110000e+00
   TC3  SX1e  1 3.650000e-01    2.110000e+00
   TC3  SX2e  1 3.650000e-01    1.910000e+00
   TC3  SX3e  1 3.650000e-01    1.910000e+00
   TC3  SX4e  1 3.650000e-01    1.910000e+00
   TC3  SC1e  1 3.650000e-01    2.110000e+00
   TC3  SC2e  1 3.650000e-01    2.110000e+00
   TC3  SC3q  1 3.650000e-01    2.340000e+00
   TC3 SX1eq  1 3.650000e-01    2.570000e+00
   TC3 SX2eq  1 3.650000e-01    2.340000e+00
   TC3 SX3eq  1 3.650000e-01    2.340000e+00
   TC3 SX4eq  1 3.650000e-01    2.340000e+00
   TC3 SC1eq  1 3.650000e-01    2.570000e+00
   TC3 SC2eq  1 3.650000e-01    2.570000e+00
   TC3 SC3eq  1 3.650000e-01    2.570000e+00
   TC3 SX1vq  1 3.650000e-01    2.570000e+00
   TC3 SX2vq  1 3.650000e-01    2.340000e+00
   TC3 SX3vq  1 3.650000e-01    2.340000e+00
   TC3 SX4vq  1 3.650000e-01    2.340000e+00
   TC3 SC1vq  1 3.650000e-01    2.570000e+00
   TC3 SC2vq  1 3.650000e-01    2.570000e+00
   TC3 SC3vq  1 3.650000e-01    2.570000e+00
   TC3  SX1q  1 3.650000e-01    2.340000e+00
   TC3  SX2q  1 3.650000e-01    2.110000e+00
   TC3  SX3q  1 3.650000e-01    2.110000e+00
   TC3  SX4q  1 3.650000e-01    2.110000e+00
   TC3  SC1q  1 3.650000e-01    2.340000e+00
   TC3  SC2q  1 3.650000e-01    2.340000e+00
   TC3  SC3h  1 3.650000e-01    1.910000e+00
   TC3 SX1eh  1 3.650000e-01    2.110000e+00
   TC3 SX2eh  1 3.650000e-01    1.910000e+00
   TC3 SX3eh  1 3.650000e-01    1.910000e+00
   TC3 SX4eh  1 3.650000e-01    1.910000e+00
   TC3 SC1eh  1 3.650000e-01    2.110000e+00
   TC3 SC2eh  1 3.650000e-01    2.110000e+00
   TC3 SC3eh  1 3.650000e-01    2.110000e+00
   TC3 SX1vh  1 3.650000e-01    2.110000e+00
   TC3 SX2vh  1 3.650000e-01    1.910000e+00
   TC3 SX3vh  1 3.650000e-01    1.910000e+00
   TC3 SX4vh  1 3.650000e-01    1.910000e+00
   TC3 SC1vh  1 3.650000e-01    2.110000e+00
   TC3 SC2vh  1 3.650000e-01    2.110000e+00
   TC3 SC3vh  1 3.650000e-01    2.110000e+00
   TC3  SX1h  1 3.650000e-01    1.910000e+00
   TC3  SX2h  1 3.650000e-01    1.750000e+00
   TC3  SX3h  1 3.650000e-01    1.750000e+00
   TC3  SX4h  1 3.650000e-01    1.750000e+00
   TC3  SC1h  1 3.650000e-01    1.910000e+00
   TC3  SC2h  1 3.650000e-01    1.910000e+00
   TC3  SC3r  1 3.650000e-01    1.910000e+00
   TC3 SX1er  1 3.650000e-01    2.110000e+00
   TC3 SX2er  1 3.650000e-01    1.910000e+00
   TC3 SX3er  1 3.650000e-01    1.910000e+00
   TC3 SX4er  1 3.650000e-01    1.910000e+00
   TC3 SC1er  1 3.650000e-01    2.110000e+00
   TC3 SC2er  1 3.650000e-01    2.110000e+00
   TC3 SC3er  1 3.650000e-01    2.110000e+00
   TC3 SX1vr  1 3.650000e-01    2.110000e+00
   TC3 SX2vr  1 3.650000e-01    1.910000e+00
   TC3 SX3vr  1 3.650000e-01    1.910000e+00
   TC3 SX4vr  1 3.650000e-01    1.910000e+00
   TC3 SC1vr  1 3.650000e-01    2.110000e+00
   TC3 SC2vr  1 3.650000e-01    2.110000e+00
   TC3 SC3vr  1 3.650000e-01    2.110000e+00
   TC3  SX1r  1 3.650000e-01    1.910000e+00
   TC3  SX2r  1 3.650000e-01    1.750000e+00
   TC3  SX3r  1 3.650000e-01    1.750000e+00
   TC3  SX4r  1 3.650000e-01    1.750000e+00
   TC3  SC1r  1 3.650000e-01    1.910000e+00
   TC3  SC2r  1 3.650000e-01    1.910000e+00
    C2    C2  1 4.700000e-01    3.390000e+00
    C2    C1  1 4.700000e-01    3.520000e+00
    C2    X4  1 4.700000e-01    2.960000e+00
    C2    X3  1 4.700000e-01    3.240000e+00
    C2    X2  1 4.700000e-01    3.240000e+00
    C2    X1  1 4.700000e-01    3.240000e+00
   P6d    C2  1 4.700000e-01    2.440000e+00
   P5d    C2  1 4.700000e-01    2.620000e+00
   P4d    C2  1 4.700000e-01    2.620000e+00
   P3d    C2  1 4.700000e-01    2.620000e+00
   P2d    C2  1 4.700000e-01    2.790000e+00
   P1d    C2  1 4.700000e-01    2.790000e+00
   N6d    C2  1 4.700000e-01    2.960000e+00
   N5d    C2  1 4.700000e-01    2.960000e+00
   N4d    C2  1 4.700000e-01    2.960000e+00
   N3d    C2  1 4.700000e-01    3.070000e+00
   N2d    C2  1 4.700000e-01    3.070000e+00
   N1d    C2  1 4.700000e-01    3.070000e+00
   P6a    C2  1 4.700000e-01    2.440000e+00
   P5a    C2  1 4.700000e-01    2.620000e+00
   P4a    C2  1 4.700000e-01    2.620000e+00
   P3a    C2  1 4.700000e-01    2.620000e+00
   P2a    C2  1 4.700000e-01    2.790000e+00
   P1a    C2  1 4.700000e-01    2.790000e+00
   N6a    C2  1 4.700000e-01    2.960000e+00
   N5a    C2  1 4.700000e-01    2.960000e+00
   N4a    C2  1 4.700000e-01    2.960000e+00
   N3a    C2  1 4.700000e-01    3.070000e+00
   N2a    C2  1 4.700000e-01    3.070000e+00
   N1a    C2  1 4.700000e-01    3.070000e+00
   C6v    C2  1 4.700000e-01    3.240000e+00
   C5v    C2  1 4.700000e-01    3.240000e+00
   C4v    C2  1 4.700000e-01    3.390000e+00
   C3v    C2  1 4.700000e-01    3.520000e+00
    C2   C2v  1 4.700000e-01    3.520000e+00
    C2   X1v  1 4.700000e-01    3.390000e+00
    C2   X2v  1 4.700000e-01    3.390000e+00
    C2   X3v  1 4.700000e-01    3.390000e+00
    C2   X4v  1 4.700000e-01    3.070000e+00
    C2   C1v  1 4.700000e-01    3.690000e+00
   C6e    C2  1 4.700000e-01    3.240000e+00
   C5e    C2  1 4.700000e-01    3.240000e+00
   C4e    C2  1 4.700000e-01    3.390000e+00
   C3e    C2  1 4.700000e-01    3.520000e+00
    C2   C2e  1 4.700000e-01    3.520000e+00
    C2   X1e  1 4.700000e-01    3.390000e+00
    C2   X2e  1 4.700000e-01    3.390000e+00
    C2   X3e  1 4.700000e-01    3.390000e+00
    C2   X4e  1 4.700000e-01    3.070000e+00
    C2   C1e  1 4.700000e-01    3.690000e+00
   P6q    C2  1 4.700000e-01    2.790000e+00
   P5q    C2  1 4.700000e-01    2.960000e+00
   P4q    C2  1 4.700000e-01    2.960000e+00
   P3q    C2  1 4.700000e-01    2.960000e+00
   P2q    C2  1 4.700000e-01    3.070000e+00
   P1q    C2  1 4.700000e-01    3.070000e+00
   N6q    C2  1 4.700000e-01    3.240000e+00
   N5q    C2  1 4.700000e-01    3.240000e+00
   N4q    C2  1 4.700000e-01    3.240000e+00
   N3q    C2  1 4.700000e-01    3.390000e+00
   N2q    C2  1 4.700000e-01    3.390000e+00
   N1q    C2  1 4.700000e-01    3.390000e+00
   C6q    C2  1 4.700000e-01    3.390000e+00
   C5q    C2  1 4.700000e-01    3.390000e+00
   C4q    C2  1 4.700000e-01    3.520000e+00
   C3q    C2  1 4.700000e-01    3.690000e+00
    C2   C2q  1 4.700000e-01    3.690000e+00
    C2  X1eq  1 4.700000e-01    3.690000e+00
    C2  X2eq  1 4.700000e-01    3.690000e+00
    C2  X3eq  1 4.700000e-01    3.690000e+00
    C2  X4eq  1 4.700000e-01    3.390000e+00
    C2  C1eq  1 4.700000e-01    4.060000e+00
    C2  C2eq  1 4.700000e-01    3.880000e+00
  C3eq    C2  1 4.700000e-01    3.880000e+00
  C4eq    C2  1 4.700000e-01    3.690000e+00
  C5eq    C2  1 4.700000e-01    3.520000e+00
  C6eq    C2  1 4.700000e-01    3.520000e+00
    C2  X1vq  1 4.700000e-01    3.690000e+00
    C2  X2vq  1 4.700000e-01    3.690000e+00
    C2  X3vq  1 4.700000e-01    3.690000e+00
    C2  X4vq  1 4.700000e-01    3.390000e+00
    C2  C1vq  1 4.700000e-01    4.060000e+00
    C2  C2vq  1 4.700000e-01    3.880000e+00
  C3vq    C2  1 4.700000e-01    3.880000e+00
  C4vq    C2  1 4.700000e-01    3.690000e+00
  C5vq    C2  1 4.700000e-01    3.520000e+00
  C6vq    C2  1 4.700000e-01    3.520000e+00
  N1aq    C2  1 4.700000e-01    3.390000e+00
  N2aq    C2  1 4.700000e-01    3.390000e+00
  N3aq    C2  1 4.700000e-01    3.390000e+00
  N4aq    C2  1 4.700000e-01    3.240000e+00
  N5aq    C2  1 4.700000e-01    3.240000e+00
  N6aq    C2  1 4.700000e-01    3.240000e+00
  P1aq    C2  1 4.700000e-01    3.070000e+00
  P2aq    C2  1 4.700000e-01    3.070000e+00
  P3aq    C2  1 4.700000e-01    2.960000e+00
  P4aq    C2  1 4.700000e-01    2.960000e+00
  P5aq    C2  1 4.700000e-01    2.960000e+00
  P6aq    C2  1 4.700000e-01    2.790000e+00
  N1dq    C2  1 4.700000e-01    3.390000e+00
  N2dq    C2  1 4.700000e-01    3.390000e+00
  N3dq    C2  1 4.700000e-01    3.390000e+00
  N4dq    C2  1 4.700000e-01    3.240000e+00
  N5dq    C2  1 4.700000e-01    3.240000e+00
  N6dq    C2  1 4.700000e-01    3.240000e+00
  P1dq    C2  1 4.700000e-01    3.070000e+00
  P2dq    C2  1 4.700000e-01    3.070000e+00
  P3dq    C2  1 4.700000e-01    2.960000e+00
  P4dq    C2  1 4.700000e-01    2.960000e+00
  P5dq    C2  1 4.700000e-01    2.960000e+00
  P6dq    C2  1 4.700000e-01    2.790000e+00
    C2   X1q  1 4.700000e-01    3.520000e+00
    C2   X2q  1 4.700000e-01    3.520000e+00
    C2   X3q  1 4.700000e-01    3.520000e+00
    C2   X4q  1 4.700000e-01    3.240000e+00
    C2   C1q  1 4.700000e-01    3.880000e+00
   P6h    C2  1 4.700000e-01    2.440000e+00
   P5h    C2  1 4.700000e-01    2.620000e+00
   P4h    C2  1 4.700000e-01    2.620000e+00
   P3h    C2  1 4.700000e-01    2.620000e+00
   P2h    C2  1 4.700000e-01    2.790000e+00
   P1h    C2  1 4.700000e-01    2.790000e+00
   N6h    C2  1 4.700000e-01    2.960000e+00
   N5h    C2  1 4.700000e-01    2.960000e+00
   N4h    C2  1 4.700000e-01    2.960000e+00
   N3h    C2  1 4.700000e-01    3.070000e+00
   N2h    C2  1 4.700000e-01    3.070000e+00
   N1h    C2  1 4.700000e-01    3.070000e+00
   C6h    C2  1 4.700000e-01    3.070000e+00
   C5h    C2  1 4.700000e-01    3.070000e+00
   C4h    C2  1 4.700000e-01    3.240000e+00
   C3h    C2  1 4.700000e-01    3.390000e+00
    C2   C2h  1 4.700000e-01    3.390000e+00
    C2  X1eh  1 4.700000e-01    3.390000e+00
    C2  X2eh  1 4.700000e-01    3.390000e+00
    C2  X3eh  1 4.700000e-01    3.390000e+00
    C2  X4eh  1 4.700000e-01    3.070000e+00
    C2  C1eh  1 4.700000e-01    3.690000e+00
    C2  C2eh  1 4.700000e-01    3.520000e+00
  C3eh    C2  1 4.700000e-01    3.520000e+00
  C4eh    C2  1 4.700000e-01    3.390000e+00
  C5eh    C2  1 4.700000e-01    3.240000e+00
  C6eh    C2  1 4.700000e-01    3.240000e+00
    C2  X1vh  1 4.700000e-01    3.390000e+00
    C2  X2vh  1 4.700000e-01    3.390000e+00
    C2  X3vh  1 4.700000e-01    3.390000e+00
    C2  X4vh  1 4.700000e-01    3.070000e+00
    C2  C1vh  1 4.700000e-01    3.690000e+00
    C2  C2vh  1 4.700000e-01    3.520000e+00
  C3vh    C2  1 4.700000e-01    3.520000e+00
  C4vh    C2  1 4.700000e-01    3.390000e+00
  C5vh    C2  1 4.700000e-01    3.240000e+00
  C6vh    C2  1 4.700000e-01    3.240000e+00
  N1ah    C2  1 4.700000e-01    3.070000e+00
  N2ah    C2  1 4.700000e-01    3.070000e+00
  N3ah    C2  1 4.700000e-01    3.070000e+00
  N4ah    C2  1 4.700000e-01    2.960000e+00
  N5ah    C2  1 4.700000e-01    2.960000e+00
  N6ah    C2  1 4.700000e-01    2.960000e+00
  P1ah    C2  1 4.700000e-01    2.790000e+00
  P2ah    C2  1 4.700000e-01    2.790000e+00
  P3ah    C2  1 4.700000e-01    2.620000e+00
  P4ah    C2  1 4.700000e-01    2.620000e+00
  P5ah    C2  1 4.700000e-01    2.620000e+00
  P6ah    C2  1 4.700000e-01    2.440000e+00
  N1dh    C2  1 4.700000e-01    3.070000e+00
  N2dh    C2  1 4.700000e-01    3.070000e+00
  N3dh    C2  1 4.700000e-01    3.070000e+00
  N4dh    C2  1 4.700000e-01    2.960000e+00
  N5dh    C2  1 4.700000e-01    2.960000e+00
  N6dh    C2  1 4.700000e-01    2.960000e+00
  P1dh    C2  1 4.700000e-01    2.790000e+00
  P2dh    C2  1 4.700000e-01    2.790000e+00
  P3dh    C2  1 4.700000e-01    2.620000e+00
  P4dh    C2  1 4.700000e-01    2.620000e+00
  P5dh    C2  1 4.700000e-01    2.620000e+00
  P6dh    C2  1 4.700000e-01    2.440000e+00
    C2   X1h  1 4.700000e-01    3.240000e+00
    C2   X2h  1 4.700000e-01    3.240000e+00
    C2   X3h  1 4.700000e-01    3.240000e+00
    C2   X4h  1 4.700000e-01    2.960000e+00
    C2   C1h  1 4.700000e-01    3.520000e+00
   P6r    C2  1 4.700000e-01    2.440000e+00
   P5r    C2  1 4.700000e-01    2.620000e+00
   P4r    C2  1 4.700000e-01    2.620000e+00
   P3r    C2  1 4.700000e-01    2.620000e+00
   P2r    C2  1 4.700000e-01    2.790000e+00
   P1r    C2  1 4.700000e-01    2.790000e+00
   N6r    C2  1 4.700000e-01    2.960000e+00
   N5r    C2  1 4.700000e-01    2.960000e+00
   N4r    C2  1 4.700000e-01    2.960000e+00
   N3r    C2  1 4.700000e-01    3.070000e+00
   N2r    C2  1 4.700000e-01    3.070000e+00
   N1r    C2  1 4.700000e-01    3.070000e+00
   C6r    C2  1 4.700000e-01    3.070000e+00
   C5r    C2  1 4.700000e-01    3.070000e+00
   C4r    C2  1 4.700000e-01    3.240000e+00
   C3r    C2  1 4.700000e-01    3.390000e+00
    C2   C2r  1 4.700000e-01    3.390000e+00
    C2  X1er  1 4.700000e-01    3.390000e+00
    C2  X2er  1 4.700000e-01    3.390000e+00
    C2  X3er  1 4.700000e-01    3.390000e+00
    C2  X4er  1 4.700000e-01    3.070000e+00
    C2  C1er  1 4.700000e-01    3.690000e+00
    C2  C2er  1 4.700000e-01    3.520000e+00
  C3er    C2  1 4.700000e-01    3.520000e+00
  C4er    C2  1 4.700000e-01    3.390000e+00
  C5er    C2  1 4.700000e-01    3.240000e+00
  C6er    C2  1 4.700000e-01    3.240000e+00
    C2  X1vr  1 4.700000e-01    3.390000e+00
    C2  X2vr  1 4.700000e-01    3.390000e+00
    C2  X3vr  1 4.700000e-01    3.390000e+00
    C2  X4vr  1 4.700000e-01    3.070000e+00
    C2  C1vr  1 4.700000e-01    3.690000e+00
    C2  C2vr  1 4.700000e-01    3.520000e+00
  C3vr    C2  1 4.700000e-01    3.520000e+00
  C4vr    C2  1 4.700000e-01    3.390000e+00
  C5vr    C2  1 4.700000e-01    3.240000e+00
  C6vr    C2  1 4.700000e-01    3.240000e+00
  N1ar    C2  1 4.700000e-01    3.070000e+00
  N2ar    C2  1 4.700000e-01    3.070000e+00
  N3ar    C2  1 4.700000e-01    3.070000e+00
  N4ar    C2  1 4.700000e-01    2.960000e+00
  N5ar    C2  1 4.700000e-01    2.960000e+00
  N6ar    C2  1 4.700000e-01    2.960000e+00
  P1ar    C2  1 4.700000e-01    2.790000e+00
  P2ar    C2  1 4.700000e-01    2.790000e+00
  P3ar    C2  1 4.700000e-01    2.620000e+00
  P4ar    C2  1 4.700000e-01    2.620000e+00
  P5ar    C2  1 4.700000e-01    2.620000e+00
  P6ar    C2  1 4.700000e-01    2.440000e+00
  N1dr    C2  1 4.700000e-01    3.070000e+00
  N2dr    C2  1 4.700000e-01    3.070000e+00
  N3dr    C2  1 4.700000e-01    3.070000e+00
  N4dr    C2  1 4.700000e-01    2.960000e+00
  N5dr    C2  1 4.700000e-01    2.960000e+00
  N6dr    C2  1 4.700000e-01    2.960000e+00
  P1dr    C2  1 4.700000e-01    2.790000e+00
  P2dr    C2  1 4.700000e-01    2.790000e+00
  P3dr    C2  1 4.700000e-01    2.620000e+00
  P4dr    C2  1 4.700000e-01    2.620000e+00
  P5dr    C2  1 4.700000e-01    2.620000e+00
  P6dr    C2  1 4.700000e-01    2.440000e+00
    C2   X1r  1 4.700000e-01    3.240000e+00
    C2   X2r  1 4.700000e-01    3.240000e+00
    C2   X3r  1 4.700000e-01    3.240000e+00
    C2   X4r  1 4.700000e-01    2.960000e+00
    C2   C1r  1 4.700000e-01    3.520000e+00
    C2   SC2  1 4.300000e-01    2.920000e+00
    C2   SC1  1 4.300000e-01    3.160000e+00
    C2   SX4  1 4.300000e-01    2.320000e+00
    C2   SX3  1 4.300000e-01    2.770000e+00
    C2   SX2  1 4.300000e-01    2.770000e+00
    C2   SX1  1 4.300000e-01    2.770000e+00
    C2  SC2v  1 4.300000e-01    3.160000e+00
    C2  SX1v  1 4.300000e-01    2.920000e+00
    C2  SX2v  1 4.300000e-01    2.920000e+00
    C2  SX3v  1 4.300000e-01    2.920000e+00
    C2  SX4v  1 4.300000e-01    2.530000e+00
    C2  SC1v  1 4.300000e-01    3.380000e+00
    C2  SC2e  1 4.300000e-01    3.160000e+00
    C2  SX1e  1 4.300000e-01    2.920000e+00
    C2  SX2e  1 4.300000e-01    2.920000e+00
    C2  SX3e  1 4.300000e-01    2.920000e+00
    C2  SX4e  1 4.300000e-01    2.530000e+00
    C2  SC1e  1 4.300000e-01    3.380000e+00
    C2  SC2q  1 4.300000e-01    3.380000e+00
    C2 SX1eq  1 4.300000e-01    3.380000e+00
    C2 SX2eq  1 4.300000e-01    3.380000e+00
    C2 SX3eq  1 4.300000e-01    3.380000e+00
    C2 SX4eq  1 4.300000e-01    2.920000e+00
    C2 SC1eq  1 4.300000e-01    3.770000e+00
    C2 SC2eq  1 4.300000e-01    3.590000e+00
    C2 SX1vq  1 4.300000e-01    3.380000e+00
    C2 SX2vq  1 4.300000e-01    3.380000e+00
    C2 SX3vq  1 4.300000e-01    3.380000e+00
    C2 SX4vq  1 4.300000e-01    2.920000e+00
    C2 SC1vq  1 4.300000e-01    3.770000e+00
    C2 SC2vq  1 4.300000e-01    3.590000e+00
    C2  SX1q  1 4.300000e-01    3.160000e+00
    C2  SX2q  1 4.300000e-01    3.160000e+00
    C2  SX3q  1 4.300000e-01    3.160000e+00
    C2  SX4q  1 4.300000e-01    2.770000e+00
    C2  SC1q  1 4.300000e-01    3.590000e+00
    C2  SC2h  1 4.300000e-01    2.920000e+00
    C2 SX1eh  1 4.300000e-01    2.920000e+00
    C2 SX2eh  1 4.300000e-01    2.920000e+00
    C2 SX3eh  1 4.300000e-01    2.920000e+00
    C2 SX4eh  1 4.300000e-01    2.530000e+00
    C2 SC1eh  1 4.300000e-01    3.380000e+00
    C2 SC2eh  1 4.300000e-01    3.160000e+00
    C2 SX1vh  1 4.300000e-01    2.920000e+00
    C2 SX2vh  1 4.300000e-01    2.920000e+00
    C2 SX3vh  1 4.300000e-01    2.920000e+00
    C2 SX4vh  1 4.300000e-01    2.530000e+00
    C2 SC1vh  1 4.300000e-01    3.380000e+00
    C2 SC2vh  1 4.300000e-01    3.160000e+00
    C2  SX1h  1 4.300000e-01    2.770000e+00
    C2  SX2h  1 4.300000e-01    2.770000e+00
    C2  SX3h  1 4.300000e-01    2.770000e+00
    C2  SX4h  1 4.300000e-01    2.320000e+00
    C2  SC1h  1 4.300000e-01    3.160000e+00
    C2  SC2r  1 4.300000e-01    2.920000e+00
    C2 SX1er  1 4.300000e-01    2.920000e+00
    C2 SX2er  1 4.300000e-01    2.920000e+00
    C2 SX3er  1 4.300000e-01    2.920000e+00
    C2 SX4er  1 4.300000e-01    2.530000e+00
    C2 SC1er  1 4.300000e-01    3.380000e+00
    C2 SC2er  1 4.300000e-01    3.160000e+00
    C2 SX1vr  1 4.300000e-01    2.920000e+00
    C2 SX2vr  1 4.300000e-01    2.920000e+00
    C2 SX3vr  1 4.300000e-01    2.920000e+00
    C2 SX4vr  1 4.300000e-01    2.530000e+00
    C2 SC1vr  1 4.300000e-01    3.380000e+00
    C2 SC2vr  1 4.300000e-01    3.160000e+00
    C2  SX1r  1 4.300000e-01    2.770000e+00
    C2  SX2r  1 4.300000e-01    2.770000e+00
    C2  SX3r  1 4.300000e-01    2.770000e+00
    C2  SX4r  1 4.300000e-01    2.320000e+00
    C2  SC1r  1 4.300000e-01    3.160000e+00
  SP6d    C2  1 4.300000e-01    1.730000e+00
  SP5d    C2  1 4.300000e-01    1.930000e+00
  SP4d    C2  1 4.300000e-01    1.930000e+00
  SP3d    C2  1 4.300000e-01    1.930000e+00
  SP2d    C2  1 4.300000e-01    2.160000e+00
  SP1d    C2  1 4.300000e-01    2.160000e+00
  SN6d    C2  1 4.300000e-01    2.320000e+00
  SN5d    C2  1 4.300000e-01    2.320000e+00
  SN4d    C2  1 4.300000e-01    2.320000e+00
  SN3d    C2  1 4.300000e-01    2.530000e+00
  SN2d    C2  1 4.300000e-01    2.530000e+00
  SN1d    C2  1 4.300000e-01    2.530000e+00
  SP6a    C2  1 4.300000e-01    1.730000e+00
  SP5a    C2  1 4.300000e-01    1.930000e+00
  SP4a    C2  1 4.300000e-01    1.930000e+00
  SP3a    C2  1 4.300000e-01    1.930000e+00
  SP2a    C2  1 4.300000e-01    2.160000e+00
  SP1a    C2  1 4.300000e-01    2.160000e+00
  SN6a    C2  1 4.300000e-01    2.320000e+00
  SN5a    C2  1 4.300000e-01    2.320000e+00
  SN4a    C2  1 4.300000e-01    2.320000e+00
  SN3a    C2  1 4.300000e-01    2.530000e+00
  SN2a    C2  1 4.300000e-01    2.530000e+00
  SN1a    C2  1 4.300000e-01    2.530000e+00
  SC6v    C2  1 4.300000e-01    2.770000e+00
  SC5v    C2  1 4.300000e-01    2.770000e+00
  SC4v    C2  1 4.300000e-01    2.920000e+00
  SC3v    C2  1 4.300000e-01    3.160000e+00
  SC6e    C2  1 4.300000e-01    2.770000e+00
  SC5e    C2  1 4.300000e-01    2.770000e+00
  SC4e    C2  1 4.300000e-01    2.920000e+00
  SC3e    C2  1 4.300000e-01    3.160000e+00
  SP6q    C2  1 4.300000e-01    2.160000e+00
  SP5q    C2  1 4.300000e-01    2.320000e+00
  SP4q    C2  1 4.300000e-01    2.320000e+00
  SP3q    C2  1 4.300000e-01    2.320000e+00
  SP2q    C2  1 4.300000e-01    2.530000e+00
  SP1q    C2  1 4.300000e-01    2.530000e+00
  SN6q    C2  1 4.300000e-01    2.770000e+00
  SN5q    C2  1 4.300000e-01    2.770000e+00
  SN4q    C2  1 4.300000e-01    2.770000e+00
  SN3q    C2  1 4.300000e-01    2.920000e+00
  SN2q    C2  1 4.300000e-01    2.920000e+00
  SN1q    C2  1 4.300000e-01    2.920000e+00
  SC6q    C2  1 4.300000e-01    2.920000e+00
  SC5q    C2  1 4.300000e-01    2.920000e+00
  SC4q    C2  1 4.300000e-01    3.160000e+00
  SC3q    C2  1 4.300000e-01    3.380000e+00
 SC3eq    C2  1 4.300000e-01    3.590000e+00
 SC4eq    C2  1 4.300000e-01    3.380000e+00
 SC5eq    C2  1 4.300000e-01    3.160000e+00
 SC6eq    C2  1 4.300000e-01    3.160000e+00
 SC3vq    C2  1 4.300000e-01    3.590000e+00
 SC4vq    C2  1 4.300000e-01    3.380000e+00
 SC5vq    C2  1 4.300000e-01    3.160000e+00
 SC6vq    C2  1 4.300000e-01    3.160000e+00
 SN1aq    C2  1 4.300000e-01    2.920000e+00
 SN2aq    C2  1 4.300000e-01    2.920000e+00
 SN3aq    C2  1 4.300000e-01    2.920000e+00
 SN4aq    C2  1 4.300000e-01    2.770000e+00
 SN5aq    C2  1 4.300000e-01    2.770000e+00
 SN6aq    C2  1 4.300000e-01    2.770000e+00
 SP1aq    C2  1 4.300000e-01    2.530000e+00
 SP2aq    C2  1 4.300000e-01    2.530000e+00
 SP3aq    C2  1 4.300000e-01    2.320000e+00
 SP4aq    C2  1 4.300000e-01    2.320000e+00
 SP5aq    C2  1 4.300000e-01    2.320000e+00
 SP6aq    C2  1 4.300000e-01    2.160000e+00
 SN1dq    C2  1 4.300000e-01    2.920000e+00
 SN2dq    C2  1 4.300000e-01    2.920000e+00
 SN3dq    C2  1 4.300000e-01    2.920000e+00
 SN4dq    C2  1 4.300000e-01    2.770000e+00
 SN5dq    C2  1 4.300000e-01    2.770000e+00
 SN6dq    C2  1 4.300000e-01    2.770000e+00
 SP1dq    C2  1 4.300000e-01    2.530000e+00
 SP2dq    C2  1 4.300000e-01    2.530000e+00
 SP3dq    C2  1 4.300000e-01    2.320000e+00
 SP4dq    C2  1 4.300000e-01    2.320000e+00
 SP5dq    C2  1 4.300000e-01    2.320000e+00
 SP6dq    C2  1 4.300000e-01    2.160000e+00
  SP6h    C2  1 4.300000e-01    1.730000e+00
  SP5h    C2  1 4.300000e-01    1.930000e+00
  SP4h    C2  1 4.300000e-01    1.930000e+00
  SP3h    C2  1 4.300000e-01    1.930000e+00
  SP2h    C2  1 4.300000e-01    2.160000e+00
  SP1h    C2  1 4.300000e-01    2.160000e+00
  SN6h    C2  1 4.300000e-01    2.320000e+00
  SN5h    C2  1 4.300000e-01    2.320000e+00
  SN4h    C2  1 4.300000e-01    2.320000e+00
  SN3h    C2  1 4.300000e-01    2.530000e+00
  SN2h    C2  1 4.300000e-01    2.530000e+00
  SN1h    C2  1 4.300000e-01    2.530000e+00
  SC6h    C2  1 4.300000e-01    2.530000e+00
  SC5h    C2  1 4.300000e-01    2.530000e+00
  SC4h    C2  1 4.300000e-01    2.770000e+00
  SC3h    C2  1 4.300000e-01    2.920000e+00
 SC3eh    C2  1 4.300000e-01    3.160000e+00
 SC4eh    C2  1 4.300000e-01    2.920000e+00
 SC5eh    C2  1 4.300000e-01    2.770000e+00
 SC6eh    C2  1 4.300000e-01    2.770000e+00
 SC3vh    C2  1 4.300000e-01    3.160000e+00
 SC4vh    C2  1 4.300000e-01    2.920000e+00
 SC5vh    C2  1 4.300000e-01    2.770000e+00
 SC6vh    C2  1 4.300000e-01    2.770000e+00
 SN1ah    C2  1 4.300000e-01    2.530000e+00
 SN2ah    C2  1 4.300000e-01    2.530000e+00
 SN3ah    C2  1 4.300000e-01    2.530000e+00
 SN4ah    C2  1 4.300000e-01    2.320000e+00
 SN5ah    C2  1 4.300000e-01    2.320000e+00
 SN6ah    C2  1 4.300000e-01    2.320000e+00
 SP1ah    C2  1 4.300000e-01    2.160000e+00
 SP2ah    C2  1 4.300000e-01    2.160000e+00
 SP3ah    C2  1 4.300000e-01    1.930000e+00
 SP4ah    C2  1 4.300000e-01    1.930000e+00
 SP5ah    C2  1 4.300000e-01    1.930000e+00
 SP6ah    C2  1 4.300000e-01    1.730000e+00
 SN1dh    C2  1 4.300000e-01    2.530000e+00
 SN2dh    C2  1 4.300000e-01    2.530000e+00
 SN3dh    C2  1 4.300000e-01    2.530000e+00
 SN4dh    C2  1 4.300000e-01    2.320000e+00
 SN5dh    C2  1 4.300000e-01    2.320000e+00
 SN6dh    C2  1 4.300000e-01    2.320000e+00
 SP1dh    C2  1 4.300000e-01    2.160000e+00
 SP2dh    C2  1 4.300000e-01    2.160000e+00
 SP3dh    C2  1 4.300000e-01    1.930000e+00
 SP4dh    C2  1 4.300000e-01    1.930000e+00
 SP5dh    C2  1 4.300000e-01    1.930000e+00
 SP6dh    C2  1 4.300000e-01    1.730000e+00
  SP6r    C2  1 4.300000e-01    1.730000e+00
  SP5r    C2  1 4.300000e-01    1.930000e+00
  SP4r    C2  1 4.300000e-01    1.930000e+00
  SP3r    C2  1 4.300000e-01    1.930000e+00
  SP2r    C2  1 4.300000e-01    2.160000e+00
  SP1r    C2  1 4.300000e-01    2.160000e+00
  SN6r    C2  1 4.300000e-01    2.320000e+00
  SN5r    C2  1 4.300000e-01    2.320000e+00
  SN4r    C2  1 4.300000e-01    2.320000e+00
  SN3r    C2  1 4.300000e-01    2.530000e+00
  SN2r    C2  1 4.300000e-01    2.530000e+00
  SN1r    C2  1 4.300000e-01    2.530000e+00
  SC6r    C2  1 4.300000e-01    2.530000e+00
  SC5r    C2  1 4.300000e-01    2.530000e+00
  SC4r    C2  1 4.300000e-01    2.770000e+00
  SC3r    C2  1 4.300000e-01    2.920000e+00
 SC3er    C2  1 4.300000e-01    3.160000e+00
 SC4er    C2  1 4.300000e-01    2.920000e+00
 SC5er    C2  1 4.300000e-01    2.770000e+00
 SC6er    C2  1 4.300000e-01    2.770000e+00
 SC3vr    C2  1 4.300000e-01    3.160000e+00
 SC4vr    C2  1 4.300000e-01    2.920000e+00
 SC5vr    C2  1 4.300000e-01    2.770000e+00
 SC6vr    C2  1 4.300000e-01    2.770000e+00
 SN1ar    C2  1 4.300000e-01    2.530000e+00
 SN2ar    C2  1 4.300000e-01    2.530000e+00
 SN3ar    C2  1 4.300000e-01    2.530000e+00
 SN4ar    C2  1 4.300000e-01    2.320000e+00
 SN5ar    C2  1 4.300000e-01    2.320000e+00
 SN6ar    C2  1 4.300000e-01    2.320000e+00
 SP1ar    C2  1 4.300000e-01    2.160000e+00
 SP2ar    C2  1 4.300000e-01    2.160000e+00
 SP3ar    C2  1 4.300000e-01    1.930000e+00
 SP4ar    C2  1 4.300000e-01    1.930000e+00
 SP5ar    C2  1 4.300000e-01    1.930000e+00
 SP6ar    C2  1 4.300000e-01    1.730000e+00
 SN1dr    C2  1 4.300000e-01    2.530000e+00
 SN2dr    C2  1 4.300000e-01    2.530000e+00
 SN3dr    C2  1 4.300000e-01    2.530000e+00
 SN4dr    C2  1 4.300000e-01    2.320000e+00
 SN5dr    C2  1 4.300000e-01    2.320000e+00
 SN6dr    C2  1 4.300000e-01    2.320000e+00
 SP1dr    C2  1 4.300000e-01    2.160000e+00
 SP2dr    C2  1 4.300000e-01    2.160000e+00
 SP3dr    C2  1 4.300000e-01    1.930000e+00
 SP4dr    C2  1 4.300000e-01    1.930000e+00
 SP5dr    C2  1 4.300000e-01    1.930000e+00
 SP6dr    C2  1 4.300000e-01    1.730000e+00
    C2   TC2  1 3.950000e-01    2.310000e+00
    C2   TC1  1 3.950000e-01    2.500000e+00
    C2   TX4  1 3.950000e-01    1.670000e+00
    C2   TX3  1 3.950000e-01    2.110000e+00
    C2   TX2  1 3.950000e-01    2.110000e+00
    C2   TX1  1 3.950000e-01    2.110000e+00
    C2  TC2v  1 3.950000e-01    2.500000e+00
    C2  TX1v  1 3.950000e-01    2.310000e+00
    C2  TX2v  1 3.950000e-01    2.310000e+00
    C2  TX3v  1 3.950000e-01    2.310000e+00
    C2  TX4v  1 3.950000e-01    1.850000e+00
    C2  TC1v  1 3.950000e-01    2.700000e+00
    C2  TC2e  1 3.950000e-01    2.500000e+00
    C2  TX1e  1 3.950000e-01    2.310000e+00
    C2  TX2e  1 3.950000e-01    2.310000e+00
    C2  TX3e  1 3.950000e-01    2.310000e+00
    C2  TX4e  1 3.950000e-01    1.850000e+00
    C2  TC1e  1 3.950000e-01    2.700000e+00
    C2  TC2q  1 3.950000e-01    2.700000e+00
    C2 TX1eq  1 3.950000e-01    2.700000e+00
    C2 TX2eq  1 3.950000e-01    2.700000e+00
    C2 TX3eq  1 3.950000e-01    2.700000e+00
    C2 TX4eq  1 3.950000e-01    2.310000e+00
    C2 TC1eq  1 3.950000e-01    3.190000e+00
    C2 TC2eq  1 3.950000e-01    2.940000e+00
    C2 TX1vq  1 3.950000e-01    2.700000e+00
    C2 TX2vq  1 3.950000e-01    2.700000e+00
    C2 TX3vq  1 3.950000e-01    2.700000e+00
    C2 TX4vq  1 3.950000e-01    2.310000e+00
    C2 TC1vq  1 3.950000e-01    3.190000e+00
    C2 TC2vq  1 3.950000e-01    2.940000e+00
    C2  TX1q  1 3.950000e-01    2.500000e+00
    C2  TX2q  1 3.950000e-01    2.500000e+00
    C2  TX3q  1 3.950000e-01    2.500000e+00
    C2  TX4q  1 3.950000e-01    2.110000e+00
    C2  TC1q  1 3.950000e-01    2.940000e+00
    C2  TC2h  1 3.950000e-01    2.310000e+00
    C2 TX1eh  1 3.950000e-01    2.310000e+00
    C2 TX2eh  1 3.950000e-01    2.310000e+00
    C2 TX3eh  1 3.950000e-01    2.310000e+00
    C2 TX4eh  1 3.950000e-01    1.850000e+00
    C2 TC1eh  1 3.950000e-01    2.700000e+00
    C2 TC2eh  1 3.950000e-01    2.500000e+00
    C2 TX1vh  1 3.950000e-01    2.310000e+00
    C2 TX2vh  1 3.950000e-01    2.310000e+00
    C2 TX3vh  1 3.950000e-01    2.310000e+00
    C2 TX4vh  1 3.950000e-01    1.850000e+00
    C2 TC1vh  1 3.950000e-01    2.700000e+00
    C2 TC2vh  1 3.950000e-01    2.500000e+00
    C2  TX1h  1 3.950000e-01    2.110000e+00
    C2  TX2h  1 3.950000e-01    2.110000e+00
    C2  TX3h  1 3.950000e-01    2.110000e+00
    C2  TX4h  1 3.950000e-01    1.670000e+00
    C2  TC1h  1 3.950000e-01    2.500000e+00
    C2  TC2r  1 3.950000e-01    2.310000e+00
    C2 TX1er  1 3.950000e-01    2.310000e+00
    C2 TX2er  1 3.950000e-01    2.310000e+00
    C2 TX3er  1 3.950000e-01    2.310000e+00
    C2 TX4er  1 3.950000e-01    1.850000e+00
    C2 TC1er  1 3.950000e-01    2.700000e+00
    C2 TC2er  1 3.950000e-01    2.500000e+00
    C2 TX1vr  1 3.950000e-01    2.310000e+00
    C2 TX2vr  1 3.950000e-01    2.310000e+00
    C2 TX3vr  1 3.950000e-01    2.310000e+00
    C2 TX4vr  1 3.950000e-01    1.850000e+00
    C2 TC1vr  1 3.950000e-01    2.700000e+00
    C2 TC2vr  1 3.950000e-01    2.500000e+00
    C2  TX1r  1 3.950000e-01    2.110000e+00
    C2  TX2r  1 3.950000e-01    2.110000e+00
    C2  TX3r  1 3.950000e-01    2.110000e+00
    C2  TX4r  1 3.950000e-01    1.670000e+00
    C2  TC1r  1 3.950000e-01    2.500000e+00
  TP6d    C2  1 4.010000e-01    9.830000e-01
  TP5d    C2  1 3.990000e-01    1.180000e+00
  TP4d    C2  1 3.990000e-01    1.180000e+00
  TP3d    C2  1 3.990000e-01    1.180000e+00
  TP2d    C2  1 3.980000e-01    1.450000e+00
  TP1d    C2  1 3.980000e-01    1.450000e+00
  TN6d    C2  1 3.950000e-01    1.670000e+00
  TN5d    C2  1 3.950000e-01    1.670000e+00
  TN4d    C2  1 3.950000e-01    1.670000e+00
  TN3d    C2  1 3.950000e-01    1.850000e+00
  TN2d    C2  1 3.950000e-01    1.850000e+00
  TN1d    C2  1 3.950000e-01    1.850000e+00
  TP6a    C2  1 4.010000e-01    9.830000e-01
  TP5a    C2  1 3.990000e-01    1.180000e+00
  TP4a    C2  1 3.990000e-01    1.180000e+00
  TP3a    C2  1 3.990000e-01    1.180000e+00
  TP2a    C2  1 3.980000e-01    1.450000e+00
  TP1a    C2  1 3.980000e-01    1.450000e+00
  TN6a    C2  1 3.950000e-01    1.670000e+00
  TN5a    C2  1 3.950000e-01    1.670000e+00
  TN4a    C2  1 3.950000e-01    1.670000e+00
  TN3a    C2  1 3.950000e-01    1.850000e+00
  TN2a    C2  1 3.950000e-01    1.850000e+00
  TN1a    C2  1 3.950000e-01    1.850000e+00
  TC6v    C2  1 3.950000e-01    2.110000e+00
  TC5v    C2  1 3.950000e-01    2.110000e+00
  TC4v    C2  1 3.950000e-01    2.310000e+00
  TC3v    C2  1 3.950000e-01    2.500000e+00
  TC6e    C2  1 3.950000e-01    2.110000e+00
  TC5e    C2  1 3.950000e-01    2.110000e+00
  TC4e    C2  1 3.950000e-01    2.310000e+00
  TC3e    C2  1 3.950000e-01    2.500000e+00
  TP6q    C2  1 3.980000e-01    1.450000e+00
  TP5q    C2  1 3.950000e-01    1.670000e+00
  TP4q    C2  1 3.950000e-01    1.670000e+00
  TP3q    C2  1 3.950000e-01    1.670000e+00
  TP2q    C2  1 3.950000e-01    1.850000e+00
  TP1q    C2  1 3.950000e-01    1.850000e+00
  TN6q    C2  1 3.950000e-01    2.110000e+00
  TN5q    C2  1 3.950000e-01    2.110000e+00
  TN4q    C2  1 3.950000e-01    2.110000e+00
  TN3q    C2  1 3.950000e-01    2.310000e+00
  TN2q    C2  1 3.950000e-01    2.310000e+00
  TN1q    C2  1 3.950000e-01    2.310000e+00
  TC6q    C2  1 3.950000e-01    2.310000e+00
  TC5q    C2  1 3.950000e-01    2.310000e+00
  TC4q    C2  1 3.950000e-01    2.500000e+00
  TC3q    C2  1 3.950000e-01    2.700000e+00
 TC3eq    C2  1 3.950000e-01    2.940000e+00
 TC4eq    C2  1 3.950000e-01    2.700000e+00
 TC5eq    C2  1 3.950000e-01    2.500000e+00
 TC6eq    C2  1 3.950000e-01    2.500000e+00
 TC3vq    C2  1 3.950000e-01    2.940000e+00
 TC4vq    C2  1 3.950000e-01    2.700000e+00
 TC5vq    C2  1 3.950000e-01    2.500000e+00
 TC6vq    C2  1 3.950000e-01    2.500000e+00
 TN1aq    C2  1 3.950000e-01    2.310000e+00
 TN2aq    C2  1 3.950000e-01    2.310000e+00
 TN3aq    C2  1 3.950000e-01    2.310000e+00
 TN4aq    C2  1 3.950000e-01    2.110000e+00
 TN5aq    C2  1 3.950000e-01    2.110000e+00
 TN6aq    C2  1 3.950000e-01    2.110000e+00
 TP1aq    C2  1 3.950000e-01    1.850000e+00
 TP2aq    C2  1 3.950000e-01    1.850000e+00
 TP3aq    C2  1 3.950000e-01    1.670000e+00
 TP4aq    C2  1 3.950000e-01    1.670000e+00
 TP5aq    C2  1 3.950000e-01    1.670000e+00
 TP6aq    C2  1 3.980000e-01    1.450000e+00
 TN1dq    C2  1 3.950000e-01    2.310000e+00
 TN2dq    C2  1 3.950000e-01    2.310000e+00
 TN3dq    C2  1 3.950000e-01    2.310000e+00
 TN4dq    C2  1 3.950000e-01    2.110000e+00
 TN5dq    C2  1 3.950000e-01    2.110000e+00
 TN6dq    C2  1 3.950000e-01    2.110000e+00
 TP1dq    C2  1 3.950000e-01    1.850000e+00
 TP2dq    C2  1 3.950000e-01    1.850000e+00
 TP3dq    C2  1 3.950000e-01    1.670000e+00
 TP4dq    C2  1 3.950000e-01    1.670000e+00
 TP5dq    C2  1 3.950000e-01    1.670000e+00
 TP6dq    C2  1 3.980000e-01    1.450000e+00
  TP6h    C2  1 4.010000e-01    9.830000e-01
  TP5h    C2  1 3.990000e-01    1.180000e+00
  TP4h    C2  1 3.990000e-01    1.180000e+00
  TP3h    C2  1 3.990000e-01    1.180000e+00
  TP2h    C2  1 3.980000e-01    1.450000e+00
  TP1h    C2  1 3.980000e-01    1.450000e+00
  TN6h    C2  1 3.950000e-01    1.670000e+00
  TN5h    C2  1 3.950000e-01    1.670000e+00
  TN4h    C2  1 3.950000e-01    1.670000e+00
  TN3h    C2  1 3.950000e-01    1.850000e+00
  TN2h    C2  1 3.950000e-01    1.850000e+00
  TN1h    C2  1 3.950000e-01    1.850000e+00
  TC6h    C2  1 3.950000e-01    1.850000e+00
  TC5h    C2  1 3.950000e-01    1.850000e+00
  TC4h    C2  1 3.950000e-01    2.110000e+00
  TC3h    C2  1 3.950000e-01    2.310000e+00
 TC3eh    C2  1 3.950000e-01    2.500000e+00
 TC4eh    C2  1 3.950000e-01    2.310000e+00
 TC5eh    C2  1 3.950000e-01    2.110000e+00
 TC6eh    C2  1 3.950000e-01    2.110000e+00
 TC3vh    C2  1 3.950000e-01    2.500000e+00
 TC4vh    C2  1 3.950000e-01    2.310000e+00
 TC5vh    C2  1 3.950000e-01    2.110000e+00
 TC6vh    C2  1 3.950000e-01    2.110000e+00
 TN1ah    C2  1 3.950000e-01    1.850000e+00
 TN2ah    C2  1 3.950000e-01    1.850000e+00
 TN3ah    C2  1 3.950000e-01    1.850000e+00
 TN4ah    C2  1 3.950000e-01    1.670000e+00
 TN5ah    C2  1 3.950000e-01    1.670000e+00
 TN6ah    C2  1 3.950000e-01    1.670000e+00
 TP1ah    C2  1 3.980000e-01    1.450000e+00
 TP2ah    C2  1 3.980000e-01    1.450000e+00
 TP3ah    C2  1 3.990000e-01    1.180000e+00
 TP4ah    C2  1 3.990000e-01    1.180000e+00
 TP5ah    C2  1 3.990000e-01    1.180000e+00
 TP6ah    C2  1 4.010000e-01    9.830000e-01
 TN1dh    C2  1 3.950000e-01    1.850000e+00
 TN2dh    C2  1 3.950000e-01    1.850000e+00
 TN3dh    C2  1 3.950000e-01    1.850000e+00
 TN4dh    C2  1 3.950000e-01    1.670000e+00
 TN5dh    C2  1 3.950000e-01    1.670000e+00
 TN6dh    C2  1 3.950000e-01    1.670000e+00
 TP1dh    C2  1 3.980000e-01    1.450000e+00
 TP2dh    C2  1 3.980000e-01    1.450000e+00
 TP3dh    C2  1 3.990000e-01    1.180000e+00
 TP4dh    C2  1 3.990000e-01    1.180000e+00
 TP5dh    C2  1 3.990000e-01    1.180000e+00
 TP6dh    C2  1 4.010000e-01    9.830000e-01
  TP6r    C2  1 4.010000e-01    9.830000e-01
  TP5r    C2  1 3.990000e-01    1.180000e+00
  TP4r    C2  1 3.990000e-01    1.180000e+00
  TP3r    C2  1 3.990000e-01    1.180000e+00
  TP2r    C2  1 3.980000e-01    1.450000e+00
  TP1r    C2  1 3.980000e-01    1.450000e+00
  TN6r    C2  1 3.950000e-01    1.670000e+00
  TN5r    C2  1 3.950000e-01    1.670000e+00
  TN4r    C2  1 3.950000e-01    1.670000e+00
  TN3r    C2  1 3.950000e-01    1.850000e+00
  TN2r    C2  1 3.950000e-01    1.850000e+00
  TN1r    C2  1 3.950000e-01    1.850000e+00
  TC6r    C2  1 3.950000e-01    1.850000e+00
  TC5r    C2  1 3.950000e-01    1.850000e+00
  TC4r    C2  1 3.950000e-01    2.110000e+00
  TC3r    C2  1 3.950000e-01    2.310000e+00
 TC3er    C2  1 3.950000e-01    2.500000e+00
 TC4er    C2  1 3.950000e-01    2.310000e+00
 TC5er    C2  1 3.950000e-01    2.110000e+00
 TC6er    C2  1 3.950000e-01    2.110000e+00
 TC3vr    C2  1 3.950000e-01    2.500000e+00
 TC4vr    C2  1 3.950000e-01    2.310000e+00
 TC5vr    C2  1 3.950000e-01    2.110000e+00
 TC6vr    C2  1 3.950000e-01    2.110000e+00
 TN1ar    C2  1 3.950000e-01    1.850000e+00
 TN2ar    C2  1 3.950000e-01    1.850000e+00
 TN3ar    C2  1 3.950000e-01    1.850000e+00
 TN4ar    C2  1 3.950000e-01    1.670000e+00
 TN5ar    C2  1 3.950000e-01    1.670000e+00
 TN6ar    C2  1 3.950000e-01    1.670000e+00
 TP1ar    C2  1 3.980000e-01    1.450000e+00
 TP2ar    C2  1 3.980000e-01    1.450000e+00
 TP3ar    C2  1 3.990000e-01    1.180000e+00
 TP4ar    C2  1 3.990000e-01    1.180000e+00
 TP5ar    C2  1 3.990000e-01    1.180000e+00
 TP6ar    C2  1 4.010000e-01    9.830000e-01
 TN1dr    C2  1 3.950000e-01    1.850000e+00
 TN2dr    C2  1 3.950000e-01    1.850000e+00
 TN3dr    C2  1 3.950000e-01    1.850000e+00
 TN4dr    C2  1 3.950000e-01    1.670000e+00
 TN5dr    C2  1 3.950000e-01    1.670000e+00
 TN6dr    C2  1 3.950000e-01    1.670000e+00
 TP1dr    C2  1 3.980000e-01    1.450000e+00
 TP2dr    C2  1 3.980000e-01    1.450000e+00
 TP3dr    C2  1 3.990000e-01    1.180000e+00
 TP4dr    C2  1 3.990000e-01    1.180000e+00
 TP5dr    C2  1 3.990000e-01    1.180000e+00
 TP6dr    C2  1 4.010000e-01    9.830000e-01
   P6d   SC2  1 4.300000e-01    1.730000e+00
   P5d   SC2  1 4.300000e-01    1.930000e+00
   P4d   SC2  1 4.300000e-01    1.930000e+00
   P3d   SC2  1 4.300000e-01    1.930000e+00
   P2d   SC2  1 4.300000e-01    2.160000e+00
   P1d   SC2  1 4.300000e-01    2.160000e+00
   N6d   SC2  1 4.300000e-01    2.320000e+00
   N5d   SC2  1 4.300000e-01    2.320000e+00
   N4d   SC2  1 4.300000e-01    2.320000e+00
   N3d   SC2  1 4.300000e-01    2.530000e+00
   N2d   SC2  1 4.300000e-01    2.530000e+00
   N1d   SC2  1 4.300000e-01    2.530000e+00
   P6a   SC2  1 4.300000e-01    1.730000e+00
   P5a   SC2  1 4.300000e-01    1.930000e+00
   P4a   SC2  1 4.300000e-01    1.930000e+00
   P3a   SC2  1 4.300000e-01    1.930000e+00
   P2a   SC2  1 4.300000e-01    2.160000e+00
   P1a   SC2  1 4.300000e-01    2.160000e+00
   N6a   SC2  1 4.300000e-01    2.320000e+00
   N5a   SC2  1 4.300000e-01    2.320000e+00
   N4a   SC2  1 4.300000e-01    2.320000e+00
   N3a   SC2  1 4.300000e-01    2.530000e+00
   N2a   SC2  1 4.300000e-01    2.530000e+00
   N1a   SC2  1 4.300000e-01    2.530000e+00
   C6v   SC2  1 4.300000e-01    2.770000e+00
   C5v   SC2  1 4.300000e-01    2.770000e+00
   C4v   SC2  1 4.300000e-01    2.920000e+00
   C3v   SC2  1 4.300000e-01    3.160000e+00
   C6e   SC2  1 4.300000e-01    2.770000e+00
   C5e   SC2  1 4.300000e-01    2.770000e+00
   C4e   SC2  1 4.300000e-01    2.920000e+00
   C3e   SC2  1 4.300000e-01    3.160000e+00
   P6q   SC2  1 4.300000e-01    2.160000e+00
   P5q   SC2  1 4.300000e-01    2.320000e+00
   P4q   SC2  1 4.300000e-01    2.320000e+00
   P3q   SC2  1 4.300000e-01    2.320000e+00
   P2q   SC2  1 4.300000e-01    2.530000e+00
   P1q   SC2  1 4.300000e-01    2.530000e+00
   N6q   SC2  1 4.300000e-01    2.770000e+00
   N5q   SC2  1 4.300000e-01    2.770000e+00
   N4q   SC2  1 4.300000e-01    2.770000e+00
   N3q   SC2  1 4.300000e-01    2.920000e+00
   N2q   SC2  1 4.300000e-01    2.920000e+00
   N1q   SC2  1 4.300000e-01    2.920000e+00
   C6q   SC2  1 4.300000e-01    2.920000e+00
   C5q   SC2  1 4.300000e-01    2.920000e+00
   C4q   SC2  1 4.300000e-01    3.160000e+00
   C3q   SC2  1 4.300000e-01    3.380000e+00
  C3eq   SC2  1 4.300000e-01    3.590000e+00
  C4eq   SC2  1 4.300000e-01    3.380000e+00
  C5eq   SC2  1 4.300000e-01    3.160000e+00
  C6eq   SC2  1 4.300000e-01    3.160000e+00
  C3vq   SC2  1 4.300000e-01    3.590000e+00
  C4vq   SC2  1 4.300000e-01    3.380000e+00
  C5vq   SC2  1 4.300000e-01    3.160000e+00
  C6vq   SC2  1 4.300000e-01    3.160000e+00
  N1aq   SC2  1 4.300000e-01    2.920000e+00
  N2aq   SC2  1 4.300000e-01    2.920000e+00
  N3aq   SC2  1 4.300000e-01    2.920000e+00
  N4aq   SC2  1 4.300000e-01    2.770000e+00
  N5aq   SC2  1 4.300000e-01    2.770000e+00
  N6aq   SC2  1 4.300000e-01    2.770000e+00
  P1aq   SC2  1 4.300000e-01    2.530000e+00
  P2aq   SC2  1 4.300000e-01    2.530000e+00
  P3aq   SC2  1 4.300000e-01    2.320000e+00
  P4aq   SC2  1 4.300000e-01    2.320000e+00
  P5aq   SC2  1 4.300000e-01    2.320000e+00
  P6aq   SC2  1 4.300000e-01    2.160000e+00
  N1dq   SC2  1 4.300000e-01    2.920000e+00
  N2dq   SC2  1 4.300000e-01    2.920000e+00
  N3dq   SC2  1 4.300000e-01    2.920000e+00
  N4dq   SC2  1 4.300000e-01    2.770000e+00
  N5dq   SC2  1 4.300000e-01    2.770000e+00
  N6dq   SC2  1 4.300000e-01    2.770000e+00
  P1dq   SC2  1 4.300000e-01    2.530000e+00
  P2dq   SC2  1 4.300000e-01    2.530000e+00
  P3dq   SC2  1 4.300000e-01    2.320000e+00
  P4dq   SC2  1 4.300000e-01    2.320000e+00
  P5dq   SC2  1 4.300000e-01    2.320000e+00
  P6dq   SC2  1 4.300000e-01    2.160000e+00
   P6h   SC2  1 4.300000e-01    1.730000e+00
   P5h   SC2  1 4.300000e-01    1.930000e+00
   P4h   SC2  1 4.300000e-01    1.930000e+00
   P3h   SC2  1 4.300000e-01    1.930000e+00
   P2h   SC2  1 4.300000e-01    2.160000e+00
   P1h   SC2  1 4.300000e-01    2.160000e+00
   N6h   SC2  1 4.300000e-01    2.320000e+00
   N5h   SC2  1 4.300000e-01    2.320000e+00
   N4h   SC2  1 4.300000e-01    2.320000e+00
   N3h   SC2  1 4.300000e-01    2.530000e+00
   N2h   SC2  1 4.300000e-01    2.530000e+00
   N1h   SC2  1 4.300000e-01    2.530000e+00
   C6h   SC2  1 4.300000e-01    2.530000e+00
   C5h   SC2  1 4.300000e-01    2.530000e+00
   C4h   SC2  1 4.300000e-01    2.770000e+00
   C3h   SC2  1 4.300000e-01    2.920000e+00
  C3eh   SC2  1 4.300000e-01    3.160000e+00
  C4eh   SC2  1 4.300000e-01    2.920000e+00
  C5eh   SC2  1 4.300000e-01    2.770000e+00
  C6eh   SC2  1 4.300000e-01    2.770000e+00
  C3vh   SC2  1 4.300000e-01    3.160000e+00
  C4vh   SC2  1 4.300000e-01    2.920000e+00
  C5vh   SC2  1 4.300000e-01    2.770000e+00
  C6vh   SC2  1 4.300000e-01    2.770000e+00
  N1ah   SC2  1 4.300000e-01    2.530000e+00
  N2ah   SC2  1 4.300000e-01    2.530000e+00
  N3ah   SC2  1 4.300000e-01    2.530000e+00
  N4ah   SC2  1 4.300000e-01    2.320000e+00
  N5ah   SC2  1 4.300000e-01    2.320000e+00
  N6ah   SC2  1 4.300000e-01    2.320000e+00
  P1ah   SC2  1 4.300000e-01    2.160000e+00
  P2ah   SC2  1 4.300000e-01    2.160000e+00
  P3ah   SC2  1 4.300000e-01    1.930000e+00
  P4ah   SC2  1 4.300000e-01    1.930000e+00
  P5ah   SC2  1 4.300000e-01    1.930000e+00
  P6ah   SC2  1 4.300000e-01    1.730000e+00
  N1dh   SC2  1 4.300000e-01    2.530000e+00
  N2dh   SC2  1 4.300000e-01    2.530000e+00
  N3dh   SC2  1 4.300000e-01    2.530000e+00
  N4dh   SC2  1 4.300000e-01    2.320000e+00
  N5dh   SC2  1 4.300000e-01    2.320000e+00
  N6dh   SC2  1 4.300000e-01    2.320000e+00
  P1dh   SC2  1 4.300000e-01    2.160000e+00
  P2dh   SC2  1 4.300000e-01    2.160000e+00
  P3dh   SC2  1 4.300000e-01    1.930000e+00
  P4dh   SC2  1 4.300000e-01    1.930000e+00
  P5dh   SC2  1 4.300000e-01    1.930000e+00
  P6dh   SC2  1 4.300000e-01    1.730000e+00
   P6r   SC2  1 4.300000e-01    1.730000e+00
   P5r   SC2  1 4.300000e-01    1.930000e+00
   P4r   SC2  1 4.300000e-01    1.930000e+00
   P3r   SC2  1 4.300000e-01    1.930000e+00
   P2r   SC2  1 4.300000e-01    2.160000e+00
   P1r   SC2  1 4.300000e-01    2.160000e+00
   N6r   SC2  1 4.300000e-01    2.320000e+00
   N5r   SC2  1 4.300000e-01    2.320000e+00
   N4r   SC2  1 4.300000e-01    2.320000e+00
   N3r   SC2  1 4.300000e-01    2.530000e+00
   N2r   SC2  1 4.300000e-01    2.530000e+00
   N1r   SC2  1 4.300000e-01    2.530000e+00
   C6r   SC2  1 4.300000e-01    2.530000e+00
   C5r   SC2  1 4.300000e-01    2.530000e+00
   C4r   SC2  1 4.300000e-01    2.770000e+00
   C3r   SC2  1 4.300000e-01    2.920000e+00
  C3er   SC2  1 4.300000e-01    3.160000e+00
  C4er   SC2  1 4.300000e-01    2.920000e+00
  C5er   SC2  1 4.300000e-01    2.770000e+00
  C6er   SC2  1 4.300000e-01    2.770000e+00
  C3vr   SC2  1 4.300000e-01    3.160000e+00
  C4vr   SC2  1 4.300000e-01    2.920000e+00
  C5vr   SC2  1 4.300000e-01    2.770000e+00
  C6vr   SC2  1 4.300000e-01    2.770000e+00
  N1ar   SC2  1 4.300000e-01    2.530000e+00
  N2ar   SC2  1 4.300000e-01    2.530000e+00
  N3ar   SC2  1 4.300000e-01    2.530000e+00
  N4ar   SC2  1 4.300000e-01    2.320000e+00
  N5ar   SC2  1 4.300000e-01    2.320000e+00
  N6ar   SC2  1 4.300000e-01    2.320000e+00
  P1ar   SC2  1 4.300000e-01    2.160000e+00
  P2ar   SC2  1 4.300000e-01    2.160000e+00
  P3ar   SC2  1 4.300000e-01    1.930000e+00
  P4ar   SC2  1 4.300000e-01    1.930000e+00
  P5ar   SC2  1 4.300000e-01    1.930000e+00
  P6ar   SC2  1 4.300000e-01    1.730000e+00
  N1dr   SC2  1 4.300000e-01    2.530000e+00
  N2dr   SC2  1 4.300000e-01    2.530000e+00
  N3dr   SC2  1 4.300000e-01    2.530000e+00
  N4dr   SC2  1 4.300000e-01    2.320000e+00
  N5dr   SC2  1 4.300000e-01    2.320000e+00
  N6dr   SC2  1 4.300000e-01    2.320000e+00
  P1dr   SC2  1 4.300000e-01    2.160000e+00
  P2dr   SC2  1 4.300000e-01    2.160000e+00
  P3dr   SC2  1 4.300000e-01    1.930000e+00
  P4dr   SC2  1 4.300000e-01    1.930000e+00
  P5dr   SC2  1 4.300000e-01    1.930000e+00
  P6dr   SC2  1 4.300000e-01    1.730000e+00
   SC2    C1  1 4.300000e-01    3.160000e+00
   SC2    X4  1 4.300000e-01    2.320000e+00
   SC2    X3  1 4.300000e-01    2.770000e+00
   SC2    X2  1 4.300000e-01    2.770000e+00
   SC2    X1  1 4.300000e-01    2.770000e+00
   SC2   C2v  1 4.300000e-01    3.160000e+00
   SC2   X1v  1 4.300000e-01    2.920000e+00
   SC2   X2v  1 4.300000e-01    2.920000e+00
   SC2   X3v  1 4.300000e-01    2.920000e+00
   SC2   X4v  1 4.300000e-01    2.530000e+00
   SC2   C1v  1 4.300000e-01    3.380000e+00
   SC2   C2e  1 4.300000e-01    3.160000e+00
   SC2   X1e  1 4.300000e-01    2.920000e+00
   SC2   X2e  1 4.300000e-01    2.920000e+00
   SC2   X3e  1 4.300000e-01    2.920000e+00
   SC2   X4e  1 4.300000e-01    2.530000e+00
   SC2   C1e  1 4.300000e-01    3.380000e+00
   SC2   C2q  1 4.300000e-01    3.380000e+00
   SC2  X1eq  1 4.300000e-01    3.380000e+00
   SC2  X2eq  1 4.300000e-01    3.380000e+00
   SC2  X3eq  1 4.300000e-01    3.380000e+00
   SC2  X4eq  1 4.300000e-01    2.920000e+00
   SC2  C1eq  1 4.300000e-01    3.770000e+00
   SC2  C2eq  1 4.300000e-01    3.590000e+00
   SC2  X1vq  1 4.300000e-01    3.380000e+00
   SC2  X2vq  1 4.300000e-01    3.380000e+00
   SC2  X3vq  1 4.300000e-01    3.380000e+00
   SC2  X4vq  1 4.300000e-01    2.920000e+00
   SC2  C1vq  1 4.300000e-01    3.770000e+00
   SC2  C2vq  1 4.300000e-01    3.590000e+00
   SC2   X1q  1 4.300000e-01    3.160000e+00
   SC2   X2q  1 4.300000e-01    3.160000e+00
   SC2   X3q  1 4.300000e-01    3.160000e+00
   SC2   X4q  1 4.300000e-01    2.770000e+00
   SC2   C1q  1 4.300000e-01    3.590000e+00
   SC2   C2h  1 4.300000e-01    2.920000e+00
   SC2  X1eh  1 4.300000e-01    2.920000e+00
   SC2  X2eh  1 4.300000e-01    2.920000e+00
   SC2  X3eh  1 4.300000e-01    2.920000e+00
   SC2  X4eh  1 4.300000e-01    2.530000e+00
   SC2  C1eh  1 4.300000e-01    3.380000e+00
   SC2  C2eh  1 4.300000e-01    3.160000e+00
   SC2  X1vh  1 4.300000e-01    2.920000e+00
   SC2  X2vh  1 4.300000e-01    2.920000e+00
   SC2  X3vh  1 4.300000e-01    2.920000e+00
   SC2  X4vh  1 4.300000e-01    2.530000e+00
   SC2  C1vh  1 4.300000e-01    3.380000e+00
   SC2  C2vh  1 4.300000e-01    3.160000e+00
   SC2   X1h  1 4.300000e-01    2.770000e+00
   SC2   X2h  1 4.300000e-01    2.770000e+00
   SC2   X3h  1 4.300000e-01    2.770000e+00
   SC2   X4h  1 4.300000e-01    2.320000e+00
   SC2   C1h  1 4.300000e-01    3.160000e+00
   SC2   C2r  1 4.300000e-01    2.920000e+00
   SC2  X1er  1 4.300000e-01    2.920000e+00
   SC2  X2er  1 4.300000e-01    2.920000e+00
   SC2  X3er  1 4.300000e-01    2.920000e+00
   SC2  X4er  1 4.300000e-01    2.530000e+00
   SC2  C1er  1 4.300000e-01    3.380000e+00
   SC2  C2er  1 4.300000e-01    3.160000e+00
   SC2  X1vr  1 4.300000e-01    2.920000e+00
   SC2  X2vr  1 4.300000e-01    2.920000e+00
   SC2  X3vr  1 4.300000e-01    2.920000e+00
   SC2  X4vr  1 4.300000e-01    2.530000e+00
   SC2  C1vr  1 4.300000e-01    3.380000e+00
   SC2  C2vr  1 4.300000e-01    3.160000e+00
   SC2   X1r  1 4.300000e-01    2.770000e+00
   SC2   X2r  1 4.300000e-01    2.770000e+00
   SC2   X3r  1 4.300000e-01    2.770000e+00
   SC2   X4r  1 4.300000e-01    2.320000e+00
   SC2   C1r  1 4.300000e-01    3.160000e+00
   SC2   SC2  1 4.100000e-01    2.350000e+00
   SC2   SC1  1 4.100000e-01    2.600000e+00
   SC2   SX4  1 4.100000e-01    1.910000e+00
   SC2   SX3  1 4.100000e-01    2.200000e+00
   SC2   SX2  1 4.100000e-01    2.200000e+00
   SC2   SX1  1 4.100000e-01    2.200000e+00
  SP6d   SC2  1 4.180000e-01    1.400000e+00
  SP5d   SC2  1 4.140000e-01    1.560000e+00
  SP4d   SC2  1 4.140000e-01    1.560000e+00
  SP3d   SC2  1 4.140000e-01    1.560000e+00
  SP2d   SC2  1 4.100000e-01    1.750000e+00
  SP1d   SC2  1 4.100000e-01    1.750000e+00
  SN6d   SC2  1 4.100000e-01    1.910000e+00
  SN5d   SC2  1 4.100000e-01    1.910000e+00
  SN4d   SC2  1 4.100000e-01    1.910000e+00
  SN3d   SC2  1 4.100000e-01    2.040000e+00
  SN2d   SC2  1 4.100000e-01    2.040000e+00
  SN1d   SC2  1 4.100000e-01    2.040000e+00
  SP6a   SC2  1 4.180000e-01    1.400000e+00
  SP5a   SC2  1 4.140000e-01    1.560000e+00
  SP4a   SC2  1 4.140000e-01    1.560000e+00
  SP3a   SC2  1 4.140000e-01    1.560000e+00
  SP2a   SC2  1 4.100000e-01    1.750000e+00
  SP1a   SC2  1 4.100000e-01    1.750000e+00
  SN6a   SC2  1 4.100000e-01    1.910000e+00
  SN5a   SC2  1 4.100000e-01    1.910000e+00
  SN4a   SC2  1 4.100000e-01    1.910000e+00
  SN3a   SC2  1 4.100000e-01    2.040000e+00
  SN2a   SC2  1 4.100000e-01    2.040000e+00
  SN1a   SC2  1 4.100000e-01    2.040000e+00
  SC6v   SC2  1 4.100000e-01    2.200000e+00
  SC5v   SC2  1 4.100000e-01    2.200000e+00
  SC4v   SC2  1 4.100000e-01    2.350000e+00
  SC3v   SC2  1 4.100000e-01    2.600000e+00
   SC2  SC2v  1 4.100000e-01    2.600000e+00
   SC2  SX1v  1 4.100000e-01    2.350000e+00
   SC2  SX2v  1 4.100000e-01    2.350000e+00
   SC2  SX3v  1 4.100000e-01    2.350000e+00
   SC2  SX4v  1 4.100000e-01    2.040000e+00
   SC2  SC1v  1 4.100000e-01    2.840000e+00
  SC6e   SC2  1 4.100000e-01    2.200000e+00
  SC5e   SC2  1 4.100000e-01    2.200000e+00
  SC4e   SC2  1 4.100000e-01    2.350000e+00
  SC3e   SC2  1 4.100000e-01    2.600000e+00
   SC2  SC2e  1 4.100000e-01    2.600000e+00
   SC2  SX1e  1 4.100000e-01    2.350000e+00
   SC2  SX2e  1 4.100000e-01    2.350000e+00
   SC2  SX3e  1 4.100000e-01    2.350000e+00
   SC2  SX4e  1 4.100000e-01    2.040000e+00
   SC2  SC1e  1 4.100000e-01    2.840000e+00
  SP6q   SC2  1 4.100000e-01    1.750000e+00
  SP5q   SC2  1 4.100000e-01    1.910000e+00
  SP4q   SC2  1 4.100000e-01    1.910000e+00
  SP3q   SC2  1 4.100000e-01    1.910000e+00
  SP2q   SC2  1 4.100000e-01    2.040000e+00
  SP1q   SC2  1 4.100000e-01    2.040000e+00
  SN6q   SC2  1 4.100000e-01    2.200000e+00
  SN5q   SC2  1 4.100000e-01    2.200000e+00
  SN4q   SC2  1 4.100000e-01    2.200000e+00
  SN3q   SC2  1 4.100000e-01    2.350000e+00
  SN2q   SC2  1 4.100000e-01    2.350000e+00
  SN1q   SC2  1 4.100000e-01    2.350000e+00
  SC6q   SC2  1 4.100000e-01    2.350000e+00
  SC5q   SC2  1 4.100000e-01    2.350000e+00
  SC4q   SC2  1 4.100000e-01    2.600000e+00
  SC3q   SC2  1 4.100000e-01    2.840000e+00
   SC2  SC2q  1 4.100000e-01    2.840000e+00
   SC2 SX1eq  1 4.100000e-01    2.840000e+00
   SC2 SX2eq  1 4.100000e-01    2.840000e+00
   SC2 SX3eq  1 4.100000e-01    2.840000e+00
   SC2 SX4eq  1 4.100000e-01    2.350000e+00
   SC2 SC1eq  1 4.100000e-01    3.310000e+00
   SC2 SC2eq  1 4.100000e-01    3.070000e+00
 SC3eq   SC2  1 4.100000e-01    3.070000e+00
 SC4eq   SC2  1 4.100000e-01    2.840000e+00
 SC5eq   SC2  1 4.100000e-01    2.600000e+00
 SC6eq   SC2  1 4.100000e-01    2.600000e+00
   SC2 SX1vq  1 4.100000e-01    2.840000e+00
   SC2 SX2vq  1 4.100000e-01    2.840000e+00
   SC2 SX3vq  1 4.100000e-01    2.840000e+00
   SC2 SX4vq  1 4.100000e-01    2.350000e+00
   SC2 SC1vq  1 4.100000e-01    3.310000e+00
   SC2 SC2vq  1 4.100000e-01    3.070000e+00
 SC3vq   SC2  1 4.100000e-01    3.070000e+00
 SC4vq   SC2  1 4.100000e-01    2.840000e+00
 SC5vq   SC2  1 4.100000e-01    2.600000e+00
 SC6vq   SC2  1 4.100000e-01    2.600000e+00
 SN1aq   SC2  1 4.100000e-01    2.350000e+00
 SN2aq   SC2  1 4.100000e-01    2.350000e+00
 SN3aq   SC2  1 4.100000e-01    2.350000e+00
 SN4aq   SC2  1 4.100000e-01    2.200000e+00
 SN5aq   SC2  1 4.100000e-01    2.200000e+00
 SN6aq   SC2  1 4.100000e-01    2.200000e+00
 SP1aq   SC2  1 4.100000e-01    2.040000e+00
 SP2aq   SC2  1 4.100000e-01    2.040000e+00
 SP3aq   SC2  1 4.100000e-01    1.910000e+00
 SP4aq   SC2  1 4.100000e-01    1.910000e+00
 SP5aq   SC2  1 4.100000e-01    1.910000e+00
 SP6aq   SC2  1 4.100000e-01    1.750000e+00
 SN1dq   SC2  1 4.100000e-01    2.350000e+00
 SN2dq   SC2  1 4.100000e-01    2.350000e+00
 SN3dq   SC2  1 4.100000e-01    2.350000e+00
 SN4dq   SC2  1 4.100000e-01    2.200000e+00
 SN5dq   SC2  1 4.100000e-01    2.200000e+00
 SN6dq   SC2  1 4.100000e-01    2.200000e+00
 SP1dq   SC2  1 4.100000e-01    2.040000e+00
 SP2dq   SC2  1 4.100000e-01    2.040000e+00
 SP3dq   SC2  1 4.100000e-01    1.910000e+00
 SP4dq   SC2  1 4.100000e-01    1.910000e+00
 SP5dq   SC2  1 4.100000e-01    1.910000e+00
 SP6dq   SC2  1 4.100000e-01    1.750000e+00
   SC2  SX1q  1 4.100000e-01    2.600000e+00
   SC2  SX2q  1 4.100000e-01    2.600000e+00
   SC2  SX3q  1 4.100000e-01    2.600000e+00
   SC2  SX4q  1 4.100000e-01    2.200000e+00
   SC2  SC1q  1 4.100000e-01    3.070000e+00
  SP6h   SC2  1 4.180000e-01    1.400000e+00
  SP5h   SC2  1 4.140000e-01    1.560000e+00
  SP4h   SC2  1 4.140000e-01    1.560000e+00
  SP3h   SC2  1 4.140000e-01    1.560000e+00
  SP2h   SC2  1 4.100000e-01    1.750000e+00
  SP1h   SC2  1 4.100000e-01    1.750000e+00
  SN6h   SC2  1 4.100000e-01    1.910000e+00
  SN5h   SC2  1 4.100000e-01    1.910000e+00
  SN4h   SC2  1 4.100000e-01    1.910000e+00
  SN3h   SC2  1 4.100000e-01    2.040000e+00
  SN2h   SC2  1 4.100000e-01    2.040000e+00
  SN1h   SC2  1 4.100000e-01    2.040000e+00
  SC6h   SC2  1 4.100000e-01    2.040000e+00
  SC5h   SC2  1 4.100000e-01    2.040000e+00
  SC4h   SC2  1 4.100000e-01    2.200000e+00
  SC3h   SC2  1 4.100000e-01    2.350000e+00
   SC2  SC2h  1 4.100000e-01    2.350000e+00
   SC2 SX1eh  1 4.100000e-01    2.350000e+00
   SC2 SX2eh  1 4.100000e-01    2.350000e+00
   SC2 SX3eh  1 4.100000e-01    2.350000e+00
   SC2 SX4eh  1 4.100000e-01    2.040000e+00
   SC2 SC1eh  1 4.100000e-01    2.840000e+00
   SC2 SC2eh  1 4.100000e-01    2.600000e+00
 SC3eh   SC2  1 4.100000e-01    2.600000e+00
 SC4eh   SC2  1 4.100000e-01    2.350000e+00
 SC5eh   SC2  1 4.100000e-01    2.200000e+00
 SC6eh   SC2  1 4.100000e-01    2.200000e+00
   SC2 SX1vh  1 4.100000e-01    2.350000e+00
   SC2 SX2vh  1 4.100000e-01    2.350000e+00
   SC2 SX3vh  1 4.100000e-01    2.350000e+00
   SC2 SX4vh  1 4.100000e-01    2.040000e+00
   SC2 SC1vh  1 4.100000e-01    2.840000e+00
   SC2 SC2vh  1 4.100000e-01    2.600000e+00
 SC3vh   SC2  1 4.100000e-01    2.600000e+00
 SC4vh   SC2  1 4.100000e-01    2.350000e+00
 SC5vh   SC2  1 4.100000e-01    2.200000e+00
 SC6vh   SC2  1 4.100000e-01    2.200000e+00
 SN1ah   SC2  1 4.100000e-01    2.040000e+00
 SN2ah   SC2  1 4.100000e-01    2.040000e+00
 SN3ah   SC2  1 4.100000e-01    2.040000e+00
 SN4ah   SC2  1 4.100000e-01    1.910000e+00
 SN5ah   SC2  1 4.100000e-01    1.910000e+00
 SN6ah   SC2  1 4.100000e-01    1.910000e+00
 SP1ah   SC2  1 4.100000e-01    1.750000e+00
 SP2ah   SC2  1 4.100000e-01    1.750000e+00
 SP3ah   SC2  1 4.140000e-01    1.560000e+00
 SP4ah   SC2  1 4.140000e-01    1.560000e+00
 SP5ah   SC2  1 4.140000e-01    1.560000e+00
 SP6ah   SC2  1 4.180000e-01    1.400000e+00
 SN1dh   SC2  1 4.100000e-01    2.040000e+00
 SN2dh   SC2  1 4.100000e-01    2.040000e+00
 SN3dh   SC2  1 4.100000e-01    2.040000e+00
 SN4dh   SC2  1 4.100000e-01    1.910000e+00
 SN5dh   SC2  1 4.100000e-01    1.910000e+00
 SN6dh   SC2  1 4.100000e-01    1.910000e+00
 SP1dh   SC2  1 4.100000e-01    1.750000e+00
 SP2dh   SC2  1 4.100000e-01    1.750000e+00
 SP3dh   SC2  1 4.140000e-01    1.560000e+00
 SP4dh   SC2  1 4.140000e-01    1.560000e+00
 SP5dh   SC2  1 4.140000e-01    1.560000e+00
 SP6dh   SC2  1 4.180000e-01    1.400000e+00
   SC2  SX1h  1 4.100000e-01    2.200000e+00
   SC2  SX2h  1 4.100000e-01    2.200000e+00
   SC2  SX3h  1 4.100000e-01    2.200000e+00
   SC2  SX4h  1 4.100000e-01    1.910000e+00
   SC2  SC1h  1 4.100000e-01    2.600000e+00
  SP6r   SC2  1 4.180000e-01    1.400000e+00
  SP5r   SC2  1 4.140000e-01    1.560000e+00
  SP4r   SC2  1 4.140000e-01    1.560000e+00
  SP3r   SC2  1 4.140000e-01    1.560000e+00
  SP2r   SC2  1 4.100000e-01    1.750000e+00
  SP1r   SC2  1 4.100000e-01    1.750000e+00
  SN6r   SC2  1 4.100000e-01    1.910000e+00
  SN5r   SC2  1 4.100000e-01    1.910000e+00
  SN4r   SC2  1 4.100000e-01    1.910000e+00
  SN3r   SC2  1 4.100000e-01    2.040000e+00
  SN2r   SC2  1 4.100000e-01    2.040000e+00
  SN1r   SC2  1 4.100000e-01    2.040000e+00
  SC6r   SC2  1 4.100000e-01    2.040000e+00
  SC5r   SC2  1 4.100000e-01    2.040000e+00
  SC4r   SC2  1 4.100000e-01    2.200000e+00
  SC3r   SC2  1 4.100000e-01    2.350000e+00
   SC2  SC2r  1 4.100000e-01    2.350000e+00
   SC2 SX1er  1 4.100000e-01    2.350000e+00
   SC2 SX2er  1 4.100000e-01    2.350000e+00
   SC2 SX3er  1 4.100000e-01    2.350000e+00
   SC2 SX4er  1 4.100000e-01    2.040000e+00
   SC2 SC1er  1 4.100000e-01    2.840000e+00
   SC2 SC2er  1 4.100000e-01    2.600000e+00
 SC3er   SC2  1 4.100000e-01    2.600000e+00
 SC4er   SC2  1 4.100000e-01    2.350000e+00
 SC5er   SC2  1 4.100000e-01    2.200000e+00
 SC6er   SC2  1 4.100000e-01    2.200000e+00
   SC2 SX1vr  1 4.100000e-01    2.350000e+00
   SC2 SX2vr  1 4.100000e-01    2.350000e+00
   SC2 SX3vr  1 4.100000e-01    2.350000e+00
   SC2 SX4vr  1 4.100000e-01    2.040000e+00
   SC2 SC1vr  1 4.100000e-01    2.840000e+00
   SC2 SC2vr  1 4.100000e-01    2.600000e+00
 SC3vr   SC2  1 4.100000e-01    2.600000e+00
 SC4vr   SC2  1 4.100000e-01    2.350000e+00
 SC5vr   SC2  1 4.100000e-01    2.200000e+00
 SC6vr   SC2  1 4.100000e-01    2.200000e+00
 SN1ar   SC2  1 4.100000e-01    2.040000e+00
 SN2ar   SC2  1 4.100000e-01    2.040000e+00
 SN3ar   SC2  1 4.100000e-01    2.040000e+00
 SN4ar   SC2  1 4.100000e-01    1.910000e+00
 SN5ar   SC2  1 4.100000e-01    1.910000e+00
 SN6ar   SC2  1 4.100000e-01    1.910000e+00
 SP1ar   SC2  1 4.100000e-01    1.750000e+00
 SP2ar   SC2  1 4.100000e-01    1.750000e+00
 SP3ar   SC2  1 4.140000e-01    1.560000e+00
 SP4ar   SC2  1 4.140000e-01    1.560000e+00
 SP5ar   SC2  1 4.140000e-01    1.560000e+00
 SP6ar   SC2  1 4.180000e-01    1.400000e+00
 SN1dr   SC2  1 4.100000e-01    2.040000e+00
 SN2dr   SC2  1 4.100000e-01    2.040000e+00
 SN3dr   SC2  1 4.100000e-01    2.040000e+00
 SN4dr   SC2  1 4.100000e-01    1.910000e+00
 SN5dr   SC2  1 4.100000e-01    1.910000e+00
 SN6dr   SC2  1 4.100000e-01    1.910000e+00
 SP1dr   SC2  1 4.100000e-01    1.750000e+00
 SP2dr   SC2  1 4.100000e-01    1.750000e+00
 SP3dr   SC2  1 4.140000e-01    1.560000e+00
 SP4dr   SC2  1 4.140000e-01    1.560000e+00
 SP5dr   SC2  1 4.140000e-01    1.560000e+00
 SP6dr   SC2  1 4.180000e-01    1.400000e+00
   SC2  SX1r  1 4.100000e-01    2.200000e+00
   SC2  SX2r  1 4.100000e-01    2.200000e+00
   SC2  SX3r  1 4.100000e-01    2.200000e+00
   SC2  SX4r  1 4.100000e-01    1.910000e+00
   SC2  SC1r  1 4.100000e-01    2.600000e+00
   SC2   TC2  1 3.650000e-01    1.910000e+00
   SC2   TC1  1 3.650000e-01    2.110000e+00
   SC2   TX4  1 3.780000e-01    1.450000e+00
   SC2   TX3  1 3.650000e-01    1.750000e+00
   SC2   TX2  1 3.650000e-01    1.750000e+00
   SC2   TX1  1 3.650000e-01    1.750000e+00
   SC2  TC2v  1 3.650000e-01    2.110000e+00
   SC2  TX1v  1 3.650000e-01    1.910000e+00
   SC2  TX2v  1 3.650000e-01    1.910000e+00
   SC2  TX3v  1 3.650000e-01    1.910000e+00
   SC2  TX4v  1 3.660000e-01    1.600000e+00
   SC2  TC1v  1 3.650000e-01    2.340000e+00
   SC2  TC2e  1 3.650000e-01    2.110000e+00
   SC2  TX1e  1 3.650000e-01    1.910000e+00
   SC2  TX2e  1 3.650000e-01    1.910000e+00
   SC2  TX3e  1 3.650000e-01    1.910000e+00
   SC2  TX4e  1 3.660000e-01    1.600000e+00
   SC2  TC1e  1 3.650000e-01    2.340000e+00
   SC2  TC2q  1 3.650000e-01    2.340000e+00
   SC2 TX1eq  1 3.650000e-01    2.340000e+00
   SC2 TX2eq  1 3.650000e-01    2.340000e+00
   SC2 TX3eq  1 3.650000e-01    2.340000e+00
   SC2 TX4eq  1 3.650000e-01    1.910000e+00
   SC2 TC1eq  1 3.650000e-01    2.830000e+00
   SC2 TC2eq  1 3.650000e-01    2.570000e+00
   SC2 TX1vq  1 3.650000e-01    2.340000e+00
   SC2 TX2vq  1 3.650000e-01    2.340000e+00
   SC2 TX3vq  1 3.650000e-01    2.340000e+00
   SC2 TX4vq  1 3.650000e-01    1.910000e+00
   SC2 TC1vq  1 3.650000e-01    2.830000e+00
   SC2 TC2vq  1 3.650000e-01    2.570000e+00
   SC2  TX1q  1 3.650000e-01    2.110000e+00
   SC2  TX2q  1 3.650000e-01    2.110000e+00
   SC2  TX3q  1 3.650000e-01    2.110000e+00
   SC2  TX4q  1 3.650000e-01    1.750000e+00
   SC2  TC1q  1 3.650000e-01    2.570000e+00
   SC2  TC2h  1 3.650000e-01    1.910000e+00
   SC2 TX1eh  1 3.650000e-01    1.910000e+00
   SC2 TX2eh  1 3.650000e-01    1.910000e+00
   SC2 TX3eh  1 3.650000e-01    1.910000e+00
   SC2 TX4eh  1 3.660000e-01    1.600000e+00
   SC2 TC1eh  1 3.650000e-01    2.340000e+00
   SC2 TC2eh  1 3.650000e-01    2.110000e+00
   SC2 TX1vh  1 3.650000e-01    1.910000e+00
   SC2 TX2vh  1 3.650000e-01    1.910000e+00
   SC2 TX3vh  1 3.650000e-01    1.910000e+00
   SC2 TX4vh  1 3.660000e-01    1.600000e+00
   SC2 TC1vh  1 3.650000e-01    2.340000e+00
   SC2 TC2vh  1 3.650000e-01    2.110000e+00
   SC2  TX1h  1 3.650000e-01    1.750000e+00
   SC2  TX2h  1 3.650000e-01    1.750000e+00
   SC2  TX3h  1 3.650000e-01    1.750000e+00
   SC2  TX4h  1 3.780000e-01    1.450000e+00
   SC2  TC1h  1 3.650000e-01    2.110000e+00
   SC2  TC2r  1 3.650000e-01    1.910000e+00
   SC2 TX1er  1 3.650000e-01    1.910000e+00
   SC2 TX2er  1 3.650000e-01    1.910000e+00
   SC2 TX3er  1 3.650000e-01    1.910000e+00
   SC2 TX4er  1 3.660000e-01    1.600000e+00
   SC2 TC1er  1 3.650000e-01    2.340000e+00
   SC2 TC2er  1 3.650000e-01    2.110000e+00
   SC2 TX1vr  1 3.650000e-01    1.910000e+00
   SC2 TX2vr  1 3.650000e-01    1.910000e+00
   SC2 TX3vr  1 3.650000e-01    1.910000e+00
   SC2 TX4vr  1 3.660000e-01    1.600000e+00
   SC2 TC1vr  1 3.650000e-01    2.340000e+00
   SC2 TC2vr  1 3.650000e-01    2.110000e+00
   SC2  TX1r  1 3.650000e-01    1.750000e+00
   SC2  TX2r  1 3.650000e-01    1.750000e+00
   SC2  TX3r  1 3.650000e-01    1.750000e+00
   SC2  TX4r  1 3.780000e-01    1.450000e+00
   SC2  TC1r  1 3.650000e-01    2.110000e+00
  TP6d   SC2  1 4.090000e-01    1.080000e+00
  TP5d   SC2  1 4.040000e-01    1.130000e+00
  TP4d   SC2  1 4.040000e-01    1.130000e+00
  TP3d   SC2  1 4.040000e-01    1.130000e+00
  TP2d   SC2  1 3.940000e-01    1.290000e+00
  TP1d   SC2  1 3.940000e-01    1.290000e+00
  TN6d   SC2  1 3.780000e-01    1.450000e+00
  TN5d   SC2  1 3.780000e-01    1.450000e+00
  TN4d   SC2  1 3.780000e-01    1.450000e+00
  TN3d   SC2  1 3.660000e-01    1.600000e+00
  TN2d   SC2  1 3.660000e-01    1.600000e+00
  TN1d   SC2  1 3.660000e-01    1.600000e+00
  TP6a   SC2  1 4.090000e-01    1.080000e+00
  TP5a   SC2  1 4.040000e-01    1.130000e+00
  TP4a   SC2  1 4.040000e-01    1.130000e+00
  TP3a   SC2  1 4.040000e-01    1.130000e+00
  TP2a   SC2  1 3.940000e-01    1.290000e+00
  TP1a   SC2  1 3.940000e-01    1.290000e+00
  TN6a   SC2  1 3.780000e-01    1.450000e+00
  TN5a   SC2  1 3.780000e-01    1.450000e+00
  TN4a   SC2  1 3.780000e-01    1.450000e+00
  TN3a   SC2  1 3.660000e-01    1.600000e+00
  TN2a   SC2  1 3.660000e-01    1.600000e+00
  TN1a   SC2  1 3.660000e-01    1.600000e+00
  TC6v   SC2  1 3.650000e-01    1.750000e+00
  TC5v   SC2  1 3.650000e-01    1.750000e+00
  TC4v   SC2  1 3.650000e-01    1.910000e+00
  TC3v   SC2  1 3.650000e-01    2.110000e+00
  TC6e   SC2  1 3.650000e-01    1.750000e+00
  TC5e   SC2  1 3.650000e-01    1.750000e+00
  TC4e   SC2  1 3.650000e-01    1.910000e+00
  TC3e   SC2  1 3.650000e-01    2.110000e+00
  TP6q   SC2  1 3.940000e-01    1.290000e+00
  TP5q   SC2  1 3.780000e-01    1.450000e+00
  TP4q   SC2  1 3.780000e-01    1.450000e+00
  TP3q   SC2  1 3.780000e-01    1.450000e+00
  TP2q   SC2  1 3.660000e-01    1.600000e+00
  TP1q   SC2  1 3.660000e-01    1.600000e+00
  TN6q   SC2  1 3.650000e-01    1.750000e+00
  TN5q   SC2  1 3.650000e-01    1.750000e+00
  TN4q   SC2  1 3.650000e-01    1.750000e+00
  TN3q   SC2  1 3.650000e-01    1.910000e+00
  TN2q   SC2  1 3.650000e-01    1.910000e+00
  TN1q   SC2  1 3.650000e-01    1.910000e+00
  TC6q   SC2  1 3.650000e-01    1.910000e+00
  TC5q   SC2  1 3.650000e-01    1.910000e+00
  TC4q   SC2  1 3.650000e-01    2.110000e+00
  TC3q   SC2  1 3.650000e-01    2.340000e+00
 TC3eq   SC2  1 3.650000e-01    2.570000e+00
 TC4eq   SC2  1 3.650000e-01    2.340000e+00
 TC5eq   SC2  1 3.650000e-01    2.110000e+00
 TC6eq   SC2  1 3.650000e-01    2.110000e+00
 TC3vq   SC2  1 3.650000e-01    2.570000e+00
 TC4vq   SC2  1 3.650000e-01    2.340000e+00
 TC5vq   SC2  1 3.650000e-01    2.110000e+00
 TC6vq   SC2  1 3.650000e-01    2.110000e+00
 TN1aq   SC2  1 3.650000e-01    1.910000e+00
 TN2aq   SC2  1 3.650000e-01    1.910000e+00
 TN3aq   SC2  1 3.650000e-01    1.910000e+00
 TN4aq   SC2  1 3.650000e-01    1.750000e+00
 TN5aq   SC2  1 3.650000e-01    1.750000e+00
 TN6aq   SC2  1 3.650000e-01    1.750000e+00
 TP1aq   SC2  1 3.660000e-01    1.600000e+00
 TP2aq   SC2  1 3.660000e-01    1.600000e+00
 TP3aq   SC2  1 3.780000e-01    1.450000e+00
 TP4aq   SC2  1 3.780000e-01    1.450000e+00
 TP5aq   SC2  1 3.780000e-01    1.450000e+00
 TP6aq   SC2  1 3.940000e-01    1.290000e+00
 TN1dq   SC2  1 3.650000e-01    1.910000e+00
 TN2dq   SC2  1 3.650000e-01    1.910000e+00
 TN3dq   SC2  1 3.650000e-01    1.910000e+00
 TN4dq   SC2  1 3.650000e-01    1.750000e+00
 TN5dq   SC2  1 3.650000e-01    1.750000e+00
 TN6dq   SC2  1 3.650000e-01    1.750000e+00
 TP1dq   SC2  1 3.660000e-01    1.600000e+00
 TP2dq   SC2  1 3.660000e-01    1.600000e+00
 TP3dq   SC2  1 3.780000e-01    1.450000e+00
 TP4dq   SC2  1 3.780000e-01    1.450000e+00
 TP5dq   SC2  1 3.780000e-01    1.450000e+00
 TP6dq   SC2  1 3.940000e-01    1.290000e+00
  TP6h   SC2  1 4.090000e-01    1.080000e+00
  TP5h   SC2  1 4.040000e-01    1.130000e+00
  TP4h   SC2  1 4.040000e-01    1.130000e+00
  TP3h   SC2  1 4.040000e-01    1.130000e+00
  TP2h   SC2  1 3.940000e-01    1.290000e+00
  TP1h   SC2  1 3.940000e-01    1.290000e+00
  TN6h   SC2  1 3.780000e-01    1.450000e+00
  TN5h   SC2  1 3.780000e-01    1.450000e+00
  TN4h   SC2  1 3.780000e-01    1.450000e+00
  TN3h   SC2  1 3.660000e-01    1.600000e+00
  TN2h   SC2  1 3.660000e-01    1.600000e+00
  TN1h   SC2  1 3.660000e-01    1.600000e+00
  TC6h   SC2  1 3.660000e-01    1.600000e+00
  TC5h   SC2  1 3.660000e-01    1.600000e+00
  TC4h   SC2  1 3.650000e-01    1.750000e+00
  TC3h   SC2  1 3.650000e-01    1.910000e+00
 TC3eh   SC2  1 3.650000e-01    2.110000e+00
 TC4eh   SC2  1 3.650000e-01    1.910000e+00
 TC5eh   SC2  1 3.650000e-01    1.750000e+00
 TC6eh   SC2  1 3.650000e-01    1.750000e+00
 TC3vh   SC2  1 3.650000e-01    2.110000e+00
 TC4vh   SC2  1 3.650000e-01    1.910000e+00
 TC5vh   SC2  1 3.650000e-01    1.750000e+00
 TC6vh   SC2  1 3.650000e-01    1.750000e+00
 TN1ah   SC2  1 3.660000e-01    1.600000e+00
 TN2ah   SC2  1 3.660000e-01    1.600000e+00
 TN3ah   SC2  1 3.660000e-01    1.600000e+00
 TN4ah   SC2  1 3.780000e-01    1.450000e+00
 TN5ah   SC2  1 3.780000e-01    1.450000e+00
 TN6ah   SC2  1 3.780000e-01    1.450000e+00
 TP1ah   SC2  1 3.940000e-01    1.290000e+00
 TP2ah   SC2  1 3.940000e-01    1.290000e+00
 TP3ah   SC2  1 4.040000e-01    1.130000e+00
 TP4ah   SC2  1 4.040000e-01    1.130000e+00
 TP5ah   SC2  1 4.040000e-01    1.130000e+00
 TP6ah   SC2  1 4.090000e-01    1.080000e+00
 TN1dh   SC2  1 3.660000e-01    1.600000e+00
 TN2dh   SC2  1 3.660000e-01    1.600000e+00
 TN3dh   SC2  1 3.660000e-01    1.600000e+00
 TN4dh   SC2  1 3.780000e-01    1.450000e+00
 TN5dh   SC2  1 3.780000e-01    1.450000e+00
 TN6dh   SC2  1 3.780000e-01    1.450000e+00
 TP1dh   SC2  1 3.940000e-01    1.290000e+00
 TP2dh   SC2  1 3.940000e-01    1.290000e+00
 TP3dh   SC2  1 4.040000e-01    1.130000e+00
 TP4dh   SC2  1 4.040000e-01    1.130000e+00
 TP5dh   SC2  1 4.040000e-01    1.130000e+00
 TP6dh   SC2  1 4.090000e-01    1.080000e+00
  TP6r   SC2  1 4.090000e-01    1.080000e+00
  TP5r   SC2  1 4.040000e-01    1.130000e+00
  TP4r   SC2  1 4.040000e-01    1.130000e+00
  TP3r   SC2  1 4.040000e-01    1.130000e+00
  TP2r   SC2  1 3.940000e-01    1.290000e+00
  TP1r   SC2  1 3.940000e-01    1.290000e+00
  TN6r   SC2  1 3.780000e-01    1.450000e+00
  TN5r   SC2  1 3.780000e-01    1.450000e+00
  TN4r   SC2  1 3.780000e-01    1.450000e+00
  TN3r   SC2  1 3.660000e-01    1.600000e+00
  TN2r   SC2  1 3.660000e-01    1.600000e+00
  TN1r   SC2  1 3.660000e-01    1.600000e+00
  TC6r   SC2  1 3.660000e-01    1.600000e+00
  TC5r   SC2  1 3.660000e-01    1.600000e+00
  TC4r   SC2  1 3.650000e-01    1.750000e+00
  TC3r   SC2  1 3.650000e-01    1.910000e+00
 TC3er   SC2  1 3.650000e-01    2.110000e+00
 TC4er   SC2  1 3.650000e-01    1.910000e+00
 TC5er   SC2  1 3.650000e-01    1.750000e+00
 TC6er   SC2  1 3.650000e-01    1.750000e+00
 TC3vr   SC2  1 3.650000e-01    2.110000e+00
 TC4vr   SC2  1 3.650000e-01    1.910000e+00
 TC5vr   SC2  1 3.650000e-01    1.750000e+00
 TC6vr   SC2  1 3.650000e-01    1.750000e+00
 TN1ar   SC2  1 3.660000e-01    1.600000e+00
 TN2ar   SC2  1 3.660000e-01    1.600000e+00
 TN3ar   SC2  1 3.660000e-01    1.600000e+00
 TN4ar   SC2  1 3.780000e-01    1.450000e+00
 TN5ar   SC2  1 3.780000e-01    1.450000e+00
 TN6ar   SC2  1 3.780000e-01    1.450000e+00
 TP1ar   SC2  1 3.940000e-01    1.290000e+00
 TP2ar   SC2  1 3.940000e-01    1.290000e+00
 TP3ar   SC2  1 4.040000e-01    1.130000e+00
 TP4ar   SC2  1 4.040000e-01    1.130000e+00
 TP5ar   SC2  1 4.040000e-01    1.130000e+00
 TP6ar   SC2  1 4.090000e-01    1.080000e+00
 TN1dr   SC2  1 3.660000e-01    1.600000e+00
 TN2dr   SC2  1 3.660000e-01    1.600000e+00
 TN3dr   SC2  1 3.660000e-01    1.600000e+00
 TN4dr   SC2  1 3.780000e-01    1.450000e+00
 TN5dr   SC2  1 3.780000e-01    1.450000e+00
 TN6dr   SC2  1 3.780000e-01    1.450000e+00
 TP1dr   SC2  1 3.940000e-01    1.290000e+00
 TP2dr   SC2  1 3.940000e-01    1.290000e+00
 TP3dr   SC2  1 4.040000e-01    1.130000e+00
 TP4dr   SC2  1 4.040000e-01    1.130000e+00
 TP5dr   SC2  1 4.040000e-01    1.130000e+00
 TP6dr   SC2  1 4.090000e-01    1.080000e+00
   P6d   TC2  1 4.010000e-01    9.830000e-01
   P5d   TC2  1 3.990000e-01    1.180000e+00
   P4d   TC2  1 3.990000e-01    1.180000e+00
   P3d   TC2  1 3.990000e-01    1.180000e+00
   P2d   TC2  1 3.980000e-01    1.450000e+00
   P1d   TC2  1 3.980000e-01    1.450000e+00
   N6d   TC2  1 3.950000e-01    1.670000e+00
   N5d   TC2  1 3.950000e-01    1.670000e+00
   N4d   TC2  1 3.950000e-01    1.670000e+00
   N3d   TC2  1 3.950000e-01    1.850000e+00
   N2d   TC2  1 3.950000e-01    1.850000e+00
   N1d   TC2  1 3.950000e-01    1.850000e+00
   P6a   TC2  1 4.010000e-01    9.830000e-01
   P5a   TC2  1 3.990000e-01    1.180000e+00
   P4a   TC2  1 3.990000e-01    1.180000e+00
   P3a   TC2  1 3.990000e-01    1.180000e+00
   P2a   TC2  1 3.980000e-01    1.450000e+00
   P1a   TC2  1 3.980000e-01    1.450000e+00
   N6a   TC2  1 3.950000e-01    1.670000e+00
   N5a   TC2  1 3.950000e-01    1.670000e+00
   N4a   TC2  1 3.950000e-01    1.670000e+00
   N3a   TC2  1 3.950000e-01    1.850000e+00
   N2a   TC2  1 3.950000e-01    1.850000e+00
   N1a   TC2  1 3.950000e-01    1.850000e+00
   C6v   TC2  1 3.950000e-01    2.110000e+00
   C5v   TC2  1 3.950000e-01    2.110000e+00
   C4v   TC2  1 3.950000e-01    2.310000e+00
   C3v   TC2  1 3.950000e-01    2.500000e+00
   C6e   TC2  1 3.950000e-01    2.110000e+00
   C5e   TC2  1 3.950000e-01    2.110000e+00
   C4e   TC2  1 3.950000e-01    2.310000e+00
   C3e   TC2  1 3.950000e-01    2.500000e+00
   P6q   TC2  1 3.980000e-01    1.450000e+00
   P5q   TC2  1 3.950000e-01    1.670000e+00
   P4q   TC2  1 3.950000e-01    1.670000e+00
   P3q   TC2  1 3.950000e-01    1.670000e+00
   P2q   TC2  1 3.950000e-01    1.850000e+00
   P1q   TC2  1 3.950000e-01    1.850000e+00
   N6q   TC2  1 3.950000e-01    2.110000e+00
   N5q   TC2  1 3.950000e-01    2.110000e+00
   N4q   TC2  1 3.950000e-01    2.110000e+00
   N3q   TC2  1 3.950000e-01    2.310000e+00
   N2q   TC2  1 3.950000e-01    2.310000e+00
   N1q   TC2  1 3.950000e-01    2.310000e+00
   C6q   TC2  1 3.950000e-01    2.310000e+00
   C5q   TC2  1 3.950000e-01    2.310000e+00
   C4q   TC2  1 3.950000e-01    2.500000e+00
   C3q   TC2  1 3.950000e-01    2.700000e+00
  C3eq   TC2  1 3.950000e-01    2.940000e+00
  C4eq   TC2  1 3.950000e-01    2.700000e+00
  C5eq   TC2  1 3.950000e-01    2.500000e+00
  C6eq   TC2  1 3.950000e-01    2.500000e+00
  C3vq   TC2  1 3.950000e-01    2.940000e+00
  C4vq   TC2  1 3.950000e-01    2.700000e+00
  C5vq   TC2  1 3.950000e-01    2.500000e+00
  C6vq   TC2  1 3.950000e-01    2.500000e+00
  N1aq   TC2  1 3.950000e-01    2.310000e+00
  N2aq   TC2  1 3.950000e-01    2.310000e+00
  N3aq   TC2  1 3.950000e-01    2.310000e+00
  N4aq   TC2  1 3.950000e-01    2.110000e+00
  N5aq   TC2  1 3.950000e-01    2.110000e+00
  N6aq   TC2  1 3.950000e-01    2.110000e+00
  P1aq   TC2  1 3.950000e-01    1.850000e+00
  P2aq   TC2  1 3.950000e-01    1.850000e+00
  P3aq   TC2  1 3.950000e-01    1.670000e+00
  P4aq   TC2  1 3.950000e-01    1.670000e+00
  P5aq   TC2  1 3.950000e-01    1.670000e+00
  P6aq   TC2  1 3.980000e-01    1.450000e+00
  N1dq   TC2  1 3.950000e-01    2.310000e+00
  N2dq   TC2  1 3.950000e-01    2.310000e+00
  N3dq   TC2  1 3.950000e-01    2.310000e+00
  N4dq   TC2  1 3.950000e-01    2.110000e+00
  N5dq   TC2  1 3.950000e-01    2.110000e+00
  N6dq   TC2  1 3.950000e-01    2.110000e+00
  P1dq   TC2  1 3.950000e-01    1.850000e+00
  P2dq   TC2  1 3.950000e-01    1.850000e+00
  P3dq   TC2  1 3.950000e-01    1.670000e+00
  P4dq   TC2  1 3.950000e-01    1.670000e+00
  P5dq   TC2  1 3.950000e-01    1.670000e+00
  P6dq   TC2  1 3.980000e-01    1.450000e+00
   P6h   TC2  1 4.010000e-01    9.830000e-01
   P5h   TC2  1 3.990000e-01    1.180000e+00
   P4h   TC2  1 3.990000e-01    1.180000e+00
   P3h   TC2  1 3.990000e-01    1.180000e+00
   P2h   TC2  1 3.980000e-01    1.450000e+00
   P1h   TC2  1 3.980000e-01    1.450000e+00
   N6h   TC2  1 3.950000e-01    1.670000e+00
   N5h   TC2  1 3.950000e-01    1.670000e+00
   N4h   TC2  1 3.950000e-01    1.670000e+00
   N3h   TC2  1 3.950000e-01    1.850000e+00
   N2h   TC2  1 3.950000e-01    1.850000e+00
   N1h   TC2  1 3.950000e-01    1.850000e+00
   C6h   TC2  1 3.950000e-01    1.850000e+00
   C5h   TC2  1 3.950000e-01    1.850000e+00
   C4h   TC2  1 3.950000e-01    2.110000e+00
   C3h   TC2  1 3.950000e-01    2.310000e+00
  C3eh   TC2  1 3.950000e-01    2.500000e+00
  C4eh   TC2  1 3.950000e-01    2.310000e+00
  C5eh   TC2  1 3.950000e-01    2.110000e+00
  C6eh   TC2  1 3.950000e-01    2.110000e+00
  C3vh   TC2  1 3.950000e-01    2.500000e+00
  C4vh   TC2  1 3.950000e-01    2.310000e+00
  C5vh   TC2  1 3.950000e-01    2.110000e+00
  C6vh   TC2  1 3.950000e-01    2.110000e+00
  N1ah   TC2  1 3.950000e-01    1.850000e+00
  N2ah   TC2  1 3.950000e-01    1.850000e+00
  N3ah   TC2  1 3.950000e-01    1.850000e+00
  N4ah   TC2  1 3.950000e-01    1.670000e+00
  N5ah   TC2  1 3.950000e-01    1.670000e+00
  N6ah   TC2  1 3.950000e-01    1.670000e+00
  P1ah   TC2  1 3.980000e-01    1.450000e+00
  P2ah   TC2  1 3.980000e-01    1.450000e+00
  P3ah   TC2  1 3.990000e-01    1.180000e+00
  P4ah   TC2  1 3.990000e-01    1.180000e+00
  P5ah   TC2  1 3.990000e-01    1.180000e+00
  P6ah   TC2  1 4.010000e-01    9.830000e-01
  N1dh   TC2  1 3.950000e-01    1.850000e+00
  N2dh   TC2  1 3.950000e-01    1.850000e+00
  N3dh   TC2  1 3.950000e-01    1.850000e+00
  N4dh   TC2  1 3.950000e-01    1.670000e+00
  N5dh   TC2  1 3.950000e-01    1.670000e+00
  N6dh   TC2  1 3.950000e-01    1.670000e+00
  P1dh   TC2  1 3.980000e-01    1.450000e+00
  P2dh   TC2  1 3.980000e-01    1.450000e+00
  P3dh   TC2  1 3.990000e-01    1.180000e+00
  P4dh   TC2  1 3.990000e-01    1.180000e+00
  P5dh   TC2  1 3.990000e-01    1.180000e+00
  P6dh   TC2  1 4.010000e-01    9.830000e-01
   P6r   TC2  1 4.010000e-01    9.830000e-01
   P5r   TC2  1 3.990000e-01    1.180000e+00
   P4r   TC2  1 3.990000e-01    1.180000e+00
   P3r   TC2  1 3.990000e-01    1.180000e+00
   P2r   TC2  1 3.980000e-01    1.450000e+00
   P1r   TC2  1 3.980000e-01    1.450000e+00
   N6r   TC2  1 3.950000e-01    1.670000e+00
   N5r   TC2  1 3.950000e-01    1.670000e+00
   N4r   TC2  1 3.950000e-01    1.670000e+00
   N3r   TC2  1 3.950000e-01    1.850000e+00
   N2r   TC2  1 3.950000e-01    1.850000e+00
   N1r   TC2  1 3.950000e-01    1.850000e+00
   C6r   TC2  1 3.950000e-01    1.850000e+00
   C5r   TC2  1 3.950000e-01    1.850000e+00
   C4r   TC2  1 3.950000e-01    2.110000e+00
   C3r   TC2  1 3.950000e-01    2.310000e+00
  C3er   TC2  1 3.950000e-01    2.500000e+00
  C4er   TC2  1 3.950000e-01    2.310000e+00
  C5er   TC2  1 3.950000e-01    2.110000e+00
  C6er   TC2  1 3.950000e-01    2.110000e+00
  C3vr   TC2  1 3.950000e-01    2.500000e+00
  C4vr   TC2  1 3.950000e-01    2.310000e+00
  C5vr   TC2  1 3.950000e-01    2.110000e+00
  C6vr   TC2  1 3.950000e-01    2.110000e+00
  N1ar   TC2  1 3.950000e-01    1.850000e+00
  N2ar   TC2  1 3.950000e-01    1.850000e+00
  N3ar   TC2  1 3.950000e-01    1.850000e+00
  N4ar   TC2  1 3.950000e-01    1.670000e+00
  N5ar   TC2  1 3.950000e-01    1.670000e+00
  N6ar   TC2  1 3.950000e-01    1.670000e+00
  P1ar   TC2  1 3.980000e-01    1.450000e+00
  P2ar   TC2  1 3.980000e-01    1.450000e+00
  P3ar   TC2  1 3.990000e-01    1.180000e+00
  P4ar   TC2  1 3.990000e-01    1.180000e+00
  P5ar   TC2  1 3.990000e-01    1.180000e+00
  P6ar   TC2  1 4.010000e-01    9.830000e-01
  N1dr   TC2  1 3.950000e-01    1.850000e+00
  N2dr   TC2  1 3.950000e-01    1.850000e+00
  N3dr   TC2  1 3.950000e-01    1.850000e+00
  N4dr   TC2  1 3.950000e-01    1.670000e+00
  N5dr   TC2  1 3.950000e-01    1.670000e+00
  N6dr   TC2  1 3.950000e-01    1.670000e+00
  P1dr   TC2  1 3.980000e-01    1.450000e+00
  P2dr   TC2  1 3.980000e-01    1.450000e+00
  P3dr   TC2  1 3.990000e-01    1.180000e+00
  P4dr   TC2  1 3.990000e-01    1.180000e+00
  P5dr   TC2  1 3.990000e-01    1.180000e+00
  P6dr   TC2  1 4.010000e-01    9.830000e-01
   TC2    C1  1 3.950000e-01    2.500000e+00
   TC2    X4  1 3.950000e-01    1.670000e+00
   TC2    X3  1 3.950000e-01    2.110000e+00
   TC2    X2  1 3.950000e-01    2.110000e+00
   TC2    X1  1 3.950000e-01    2.110000e+00
   TC2   C2v  1 3.950000e-01    2.500000e+00
   TC2   X1v  1 3.950000e-01    2.310000e+00
   TC2   X2v  1 3.950000e-01    2.310000e+00
   TC2   X3v  1 3.950000e-01    2.310000e+00
   TC2   X4v  1 3.950000e-01    1.850000e+00
   TC2   C1v  1 3.950000e-01    2.700000e+00
   TC2   C2e  1 3.950000e-01    2.500000e+00
   TC2   X1e  1 3.950000e-01    2.310000e+00
   TC2   X2e  1 3.950000e-01    2.310000e+00
   TC2   X3e  1 3.950000e-01    2.310000e+00
   TC2   X4e  1 3.950000e-01    1.850000e+00
   TC2   C1e  1 3.950000e-01    2.700000e+00
   TC2   C2q  1 3.950000e-01    2.700000e+00
   TC2  X1eq  1 3.950000e-01    2.700000e+00
   TC2  X2eq  1 3.950000e-01    2.700000e+00
   TC2  X3eq  1 3.950000e-01    2.700000e+00
   TC2  X4eq  1 3.950000e-01    2.310000e+00
   TC2  C1eq  1 3.950000e-01    3.190000e+00
   TC2  C2eq  1 3.950000e-01    2.940000e+00
   TC2  X1vq  1 3.950000e-01    2.700000e+00
   TC2  X2vq  1 3.950000e-01    2.700000e+00
   TC2  X3vq  1 3.950000e-01    2.700000e+00
   TC2  X4vq  1 3.950000e-01    2.310000e+00
   TC2  C1vq  1 3.950000e-01    3.190000e+00
   TC2  C2vq  1 3.950000e-01    2.940000e+00
   TC2   X1q  1 3.950000e-01    2.500000e+00
   TC2   X2q  1 3.950000e-01    2.500000e+00
   TC2   X3q  1 3.950000e-01    2.500000e+00
   TC2   X4q  1 3.950000e-01    2.110000e+00
   TC2   C1q  1 3.950000e-01    2.940000e+00
   TC2   C2h  1 3.950000e-01    2.310000e+00
   TC2  X1eh  1 3.950000e-01    2.310000e+00
   TC2  X2eh  1 3.950000e-01    2.310000e+00
   TC2  X3eh  1 3.950000e-01    2.310000e+00
   TC2  X4eh  1 3.950000e-01    1.850000e+00
   TC2  C1eh  1 3.950000e-01    2.700000e+00
   TC2  C2eh  1 3.950000e-01    2.500000e+00
   TC2  X1vh  1 3.950000e-01    2.310000e+00
   TC2  X2vh  1 3.950000e-01    2.310000e+00
   TC2  X3vh  1 3.950000e-01    2.310000e+00
   TC2  X4vh  1 3.950000e-01    1.850000e+00
   TC2  C1vh  1 3.950000e-01    2.700000e+00
   TC2  C2vh  1 3.950000e-01    2.500000e+00
   TC2   X1h  1 3.950000e-01    2.110000e+00
   TC2   X2h  1 3.950000e-01    2.110000e+00
   TC2   X3h  1 3.950000e-01    2.110000e+00
   TC2   X4h  1 3.950000e-01    1.670000e+00
   TC2   C1h  1 3.950000e-01    2.500000e+00
   TC2   C2r  1 3.950000e-01    2.310000e+00
   TC2  X1er  1 3.950000e-01    2.310000e+00
   TC2  X2er  1 3.950000e-01    2.310000e+00
   TC2  X3er  1 3.950000e-01    2.310000e+00
   TC2  X4er  1 3.950000e-01    1.850000e+00
   TC2  C1er  1 3.950000e-01    2.700000e+00
   TC2  C2er  1 3.950000e-01    2.500000e+00
   TC2  X1vr  1 3.950000e-01    2.310000e+00
   TC2  X2vr  1 3.950000e-01    2.310000e+00
   TC2  X3vr  1 3.950000e-01    2.310000e+00
   TC2  X4vr  1 3.950000e-01    1.850000e+00
   TC2  C1vr  1 3.950000e-01    2.700000e+00
   TC2  C2vr  1 3.950000e-01    2.500000e+00
   TC2   X1r  1 3.950000e-01    2.110000e+00
   TC2   X2r  1 3.950000e-01    2.110000e+00
   TC2   X3r  1 3.950000e-01    2.110000e+00
   TC2   X4r  1 3.950000e-01    1.670000e+00
   TC2   C1r  1 3.950000e-01    2.500000e+00
   TC2   TC2  1 3.400000e-01    1.510000e+00
   TC2   TC1  1 3.400000e-01    1.770000e+00
   TC2   TX4  1 3.660000e-01    9.350000e-01
   TC2   TX3  1 3.400000e-01    1.230000e+00
   TC2   TX2  1 3.400000e-01    1.230000e+00
   TC2   TX1  1 3.400000e-01    1.230000e+00
  TP6d   TC2  1 4.240000e-01    7.760000e-01
  TP5d   TC2  1 4.110000e-01    8.010000e-01
  TP4d   TC2  1 4.110000e-01    8.010000e-01
  TP3d   TC2  1 4.110000e-01    8.010000e-01
  TP2d   TC2  1 3.850000e-01    8.550000e-01
  TP1d   TC2  1 3.850000e-01    8.550000e-01
  TN6d   TC2  1 3.660000e-01    9.350000e-01
  TN5d   TC2  1 3.660000e-01    9.350000e-01
  TN4d   TC2  1 3.660000e-01    9.350000e-01
  TN3d   TC2  1 3.520000e-01    1.050000e+00
  TN2d   TC2  1 3.520000e-01    1.050000e+00
  TN1d   TC2  1 3.520000e-01    1.050000e+00
  TP6a   TC2  1 4.240000e-01    7.760000e-01
  TP5a   TC2  1 4.110000e-01    8.010000e-01
  TP4a   TC2  1 4.110000e-01    8.010000e-01
  TP3a   TC2  1 4.110000e-01    8.010000e-01
  TP2a   TC2  1 3.850000e-01    8.550000e-01
  TP1a   TC2  1 3.850000e-01    8.550000e-01
  TN6a   TC2  1 3.660000e-01    9.350000e-01
  TN5a   TC2  1 3.660000e-01    9.350000e-01
  TN4a   TC2  1 3.660000e-01    9.350000e-01
  TN3a   TC2  1 3.520000e-01    1.050000e+00
  TN2a   TC2  1 3.520000e-01    1.050000e+00
  TN1a   TC2  1 3.520000e-01    1.050000e+00
  TC6v   TC2  1 3.400000e-01    1.230000e+00
  TC5v   TC2  1 3.400000e-01    1.230000e+00
  TC4v   TC2  1 3.400000e-01    1.510000e+00
  TC3v   TC2  1 3.400000e-01    1.770000e+00
   TC2  TC2v  1 3.400000e-01    1.770000e+00
   TC2  TX1v  1 3.400000e-01    1.510000e+00
   TC2  TX2v  1 3.400000e-01    1.510000e+00
   TC2  TX3v  1 3.400000e-01    1.510000e+00
   TC2  TX4v  1 3.520000e-01    1.050000e+00
   TC2  TC1v  1 3.400000e-01    2.020000e+00
  TC6e   TC2  1 3.400000e-01    1.230000e+00
  TC5e   TC2  1 3.400000e-01    1.230000e+00
  TC4e   TC2  1 3.400000e-01    1.510000e+00
  TC3e   TC2  1 3.400000e-01    1.770000e+00
   TC2  TC2e  1 3.400000e-01    1.770000e+00
   TC2  TX1e  1 3.400000e-01    1.510000e+00
   TC2  TX2e  1 3.400000e-01    1.510000e+00
   TC2  TX3e  1 3.400000e-01    1.510000e+00
   TC2  TX4e  1 3.520000e-01    1.050000e+00
   TC2  TC1e  1 3.400000e-01    2.020000e+00
  TP6q   TC2  1 3.850000e-01    8.550000e-01
  TP5q   TC2  1 3.660000e-01    9.350000e-01
  TP4q   TC2  1 3.660000e-01    9.350000e-01
  TP3q   TC2  1 3.660000e-01    9.350000e-01
  TP2q   TC2  1 3.520000e-01    1.050000e+00
  TP1q   TC2  1 3.520000e-01    1.050000e+00
  TN6q   TC2  1 3.400000e-01    1.230000e+00
  TN5q   TC2  1 3.400000e-01    1.230000e+00
  TN4q   TC2  1 3.400000e-01    1.230000e+00
  TN3q   TC2  1 3.400000e-01    1.510000e+00
  TN2q   TC2  1 3.400000e-01    1.510000e+00
  TN1q   TC2  1 3.400000e-01    1.510000e+00
  TC6q   TC2  1 3.400000e-01    1.510000e+00
  TC5q   TC2  1 3.400000e-01    1.510000e+00
  TC4q   TC2  1 3.400000e-01    1.770000e+00
  TC3q   TC2  1 3.400000e-01    2.020000e+00
   TC2  TC2q  1 3.400000e-01    2.020000e+00
   TC2 TX1eq  1 3.400000e-01    2.020000e+00
   TC2 TX2eq  1 3.400000e-01    2.020000e+00
   TC2 TX3eq  1 3.400000e-01    2.020000e+00
   TC2 TX4eq  1 3.400000e-01    1.510000e+00
   TC2 TC1eq  1 3.400000e-01    2.500000e+00
   TC2 TC2eq  1 3.400000e-01    2.280000e+00
 TC3eq   TC2  1 3.400000e-01    2.280000e+00
 TC4eq   TC2  1 3.400000e-01    2.020000e+00
 TC5eq   TC2  1 3.400000e-01    1.770000e+00
 TC6eq   TC2  1 3.400000e-01    1.770000e+00
   TC2 TX1vq  1 3.400000e-01    2.020000e+00
   TC2 TX2vq  1 3.400000e-01    2.020000e+00
   TC2 TX3vq  1 3.400000e-01    2.020000e+00
   TC2 TX4vq  1 3.400000e-01    1.510000e+00
   TC2 TC1vq  1 3.400000e-01    2.500000e+00
   TC2 TC2vq  1 3.400000e-01    2.280000e+00
 TC3vq   TC2  1 3.400000e-01    2.280000e+00
 TC4vq   TC2  1 3.400000e-01    2.020000e+00
 TC5vq   TC2  1 3.400000e-01    1.770000e+00
 TC6vq   TC2  1 3.400000e-01    1.770000e+00
 TN1aq   TC2  1 3.400000e-01    1.510000e+00
 TN2aq   TC2  1 3.400000e-01    1.510000e+00
 TN3aq   TC2  1 3.400000e-01    1.510000e+00
 TN4aq   TC2  1 3.400000e-01    1.230000e+00
 TN5aq   TC2  1 3.400000e-01    1.230000e+00
 TN6aq   TC2  1 3.400000e-01    1.230000e+00
 TP1aq   TC2  1 3.520000e-01    1.050000e+00
 TP2aq   TC2  1 3.520000e-01    1.050000e+00
 TP3aq   TC2  1 3.660000e-01    9.350000e-01
 TP4aq   TC2  1 3.660000e-01    9.350000e-01
 TP5aq   TC2  1 3.660000e-01    9.350000e-01
 TP6aq   TC2  1 3.850000e-01    8.550000e-01
 TN1dq   TC2  1 3.400000e-01    1.510000e+00
 TN2dq   TC2  1 3.400000e-01    1.510000e+00
 TN3dq   TC2  1 3.400000e-01    1.510000e+00
 TN4dq   TC2  1 3.400000e-01    1.230000e+00
 TN5dq   TC2  1 3.400000e-01    1.230000e+00
 TN6dq   TC2  1 3.400000e-01    1.230000e+00
 TP1dq   TC2  1 3.520000e-01    1.050000e+00
 TP2dq   TC2  1 3.520000e-01    1.050000e+00
 TP3dq   TC2  1 3.660000e-01    9.350000e-01
 TP4dq   TC2  1 3.660000e-01    9.350000e-01
 TP5dq   TC2  1 3.660000e-01    9.350000e-01
 TP6dq   TC2  1 3.850000e-01    8.550000e-01
   TC2  TX1q  1 3.400000e-01    1.770000e+00
   TC2  TX2q  1 3.400000e-01    1.770000e+00
   TC2  TX3q  1 3.400000e-01    1.770000e+00
   TC2  TX4q  1 3.400000e-01    1.230000e+00
   TC2  TC1q  1 3.400000e-01    2.280000e+00
  TP6h   TC2  1 4.240000e-01    7.760000e-01
  TP5h   TC2  1 4.110000e-01    8.010000e-01
  TP4h   TC2  1 4.110000e-01    8.010000e-01
  TP3h   TC2  1 4.110000e-01    8.010000e-01
  TP2h   TC2  1 3.850000e-01    8.550000e-01
  TP1h   TC2  1 3.850000e-01    8.550000e-01
  TN6h   TC2  1 3.660000e-01    9.350000e-01
  TN5h   TC2  1 3.660000e-01    9.350000e-01
  TN4h   TC2  1 3.660000e-01    9.350000e-01
  TN3h   TC2  1 3.520000e-01    1.050000e+00
  TN2h   TC2  1 3.520000e-01    1.050000e+00
  TN1h   TC2  1 3.520000e-01    1.050000e+00
  TC6h   TC2  1 3.520000e-01    1.050000e+00
  TC5h   TC2  1 3.520000e-01    1.050000e+00
  TC4h   TC2  1 3.400000e-01    1.230000e+00
  TC3h   TC2  1 3.400000e-01    1.510000e+00
   TC2  TC2h  1 3.400000e-01    1.510000e+00
   TC2 TX1eh  1 3.400000e-01    1.510000e+00
   TC2 TX2eh  1 3.400000e-01    1.510000e+00
   TC2 TX3eh  1 3.400000e-01    1.510000e+00
   TC2 TX4eh  1 3.520000e-01    1.050000e+00
   TC2 TC1eh  1 3.400000e-01    2.020000e+00
   TC2 TC2eh  1 3.400000e-01    1.770000e+00
 TC3eh   TC2  1 3.400000e-01    1.770000e+00
 TC4eh   TC2  1 3.400000e-01    1.510000e+00
 TC5eh   TC2  1 3.400000e-01    1.230000e+00
 TC6eh   TC2  1 3.400000e-01    1.230000e+00
   TC2 TX1vh  1 3.400000e-01    1.510000e+00
   TC2 TX2vh  1 3.400000e-01    1.510000e+00
   TC2 TX3vh  1 3.400000e-01    1.510000e+00
   TC2 TX4vh  1 3.520000e-01    1.050000e+00
   TC2 TC1vh  1 3.400000e-01    2.020000e+00
   TC2 TC2vh  1 3.400000e-01    1.770000e+00
 TC3vh   TC2  1 3.400000e-01    1.770000e+00
 TC4vh   TC2  1 3.400000e-01    1.510000e+00
 TC5vh   TC2  1 3.400000e-01    1.230000e+00
 TC6vh   TC2  1 3.400000e-01    1.230000e+00
 TN1ah   TC2  1 3.520000e-01    1.050000e+00
 TN2ah   TC2  1 3.520000e-01    1.050000e+00
 TN3ah   TC2  1 3.520000e-01    1.050000e+00
 TN4ah   TC2  1 3.660000e-01    9.350000e-01
 TN5ah   TC2  1 3.660000e-01    9.350000e-01
 TN6ah   TC2  1 3.660000e-01    9.350000e-01
 TP1ah   TC2  1 3.850000e-01    8.550000e-01
 TP2ah   TC2  1 3.850000e-01    8.550000e-01
 TP3ah   TC2  1 4.110000e-01    8.010000e-01
 TP4ah   TC2  1 4.110000e-01    8.010000e-01
 TP5ah   TC2  1 4.110000e-01    8.010000e-01
 TP6ah   TC2  1 4.240000e-01    7.760000e-01
 TN1dh   TC2  1 3.520000e-01    1.050000e+00
 TN2dh   TC2  1 3.520000e-01    1.050000e+00
 TN3dh   TC2  1 3.520000e-01    1.050000e+00
 TN4dh   TC2  1 3.660000e-01    9.350000e-01
 TN5dh   TC2  1 3.660000e-01    9.350000e-01
 TN6dh   TC2  1 3.660000e-01    9.350000e-01
 TP1dh   TC2  1 3.850000e-01    8.550000e-01
 TP2dh   TC2  1 3.850000e-01    8.550000e-01
 TP3dh   TC2  1 4.110000e-01    8.010000e-01
 TP4dh   TC2  1 4.110000e-01    8.010000e-01
 TP5dh   TC2  1 4.110000e-01    8.010000e-01
 TP6dh   TC2  1 4.240000e-01    7.760000e-01
   TC2  TX1h  1 3.400000e-01    1.230000e+00
   TC2  TX2h  1 3.400000e-01    1.230000e+00
   TC2  TX3h  1 3.400000e-01    1.230000e+00
   TC2  TX4h  1 3.660000e-01    9.350000e-01
   TC2  TC1h  1 3.400000e-01    1.770000e+00
  TP6r   TC2  1 4.240000e-01    7.760000e-01
  TP5r   TC2  1 4.110000e-01    8.010000e-01
  TP4r   TC2  1 4.110000e-01    8.010000e-01
  TP3r   TC2  1 4.110000e-01    8.010000e-01
  TP2r   TC2  1 3.850000e-01    8.550000e-01
  TP1r   TC2  1 3.850000e-01    8.550000e-01
  TN6r   TC2  1 3.660000e-01    9.350000e-01
  TN5r   TC2  1 3.660000e-01    9.350000e-01
  TN4r   TC2  1 3.660000e-01    9.350000e-01
  TN3r   TC2  1 3.520000e-01    1.050000e+00
  TN2r   TC2  1 3.520000e-01    1.050000e+00
  TN1r   TC2  1 3.520000e-01    1.050000e+00
  TC6r   TC2  1 3.520000e-01    1.050000e+00
  TC5r   TC2  1 3.520000e-01    1.050000e+00
  TC4r   TC2  1 3.400000e-01    1.230000e+00
  TC3r   TC2  1 3.400000e-01    1.510000e+00
   TC2  TC2r  1 3.400000e-01    1.510000e+00
   TC2 TX1er  1 3.400000e-01    1.510000e+00
   TC2 TX2er  1 3.400000e-01    1.510000e+00
   TC2 TX3er  1 3.400000e-01    1.510000e+00
   TC2 TX4er  1 3.520000e-01    1.050000e+00
   TC2 TC1er  1 3.400000e-01    2.020000e+00
   TC2 TC2er  1 3.400000e-01    1.770000e+00
 TC3er   TC2  1 3.400000e-01    1.770000e+00
 TC4er   TC2  1 3.400000e-01    1.510000e+00
 TC5er   TC2  1 3.400000e-01    1.230000e+00
 TC6er   TC2  1 3.400000e-01    1.230000e+00
   TC2 TX1vr  1 3.400000e-01    1.510000e+00
   TC2 TX2vr  1 3.400000e-01    1.510000e+00
   TC2 TX3vr  1 3.400000e-01    1.510000e+00
   TC2 TX4vr  1 3.520000e-01    1.050000e+00
   TC2 TC1vr  1 3.400000e-01    2.020000e+00
   TC2 TC2vr  1 3.400000e-01    1.770000e+00
 TC3vr   TC2  1 3.400000e-01    1.770000e+00
 TC4vr   TC2  1 3.400000e-01    1.510000e+00
 TC5vr   TC2  1 3.400000e-01    1.230000e+00
 TC6vr   TC2  1 3.400000e-01    1.230000e+00
 TN1ar   TC2  1 3.520000e-01    1.050000e+00
 TN2ar   TC2  1 3.520000e-01    1.050000e+00
 TN3ar   TC2  1 3.520000e-01    1.050000e+00
 TN4ar   TC2  1 3.660000e-01    9.350000e-01
 TN5ar   TC2  1 3.660000e-01    9.350000e-01
 TN6ar   TC2  1 3.660000e-01    9.350000e-01
 TP1ar   TC2  1 3.850000e-01    8.550000e-01
 TP2ar   TC2  1 3.850000e-01    8.550000e-01
 TP3ar   TC2  1 4.110000e-01    8.010000e-01
 TP4ar   TC2  1 4.110000e-01    8.010000e-01
 TP5ar   TC2  1 4.110000e-01    8.010000e-01
 TP6ar   TC2  1 4.240000e-01    7.760000e-01
 TN1dr   TC2  1 3.520000e-01    1.050000e+00
 TN2dr   TC2  1 3.520000e-01    1.050000e+00
 TN3dr   TC2  1 3.520000e-01    1.050000e+00
 TN4dr   TC2  1 3.660000e-01    9.350000e-01
 TN5dr   TC2  1 3.660000e-01    9.350000e-01
 TN6dr   TC2  1 3.660000e-01    9.350000e-01
 TP1dr   TC2  1 3.850000e-01    8.550000e-01
 TP2dr   TC2  1 3.850000e-01    8.550000e-01
 TP3dr   TC2  1 4.110000e-01    8.010000e-01
 TP4dr   TC2  1 4.110000e-01    8.010000e-01
 TP5dr   TC2  1 4.110000e-01    8.010000e-01
 TP6dr   TC2  1 4.240000e-01    7.760000e-01
   TC2  TX1r  1 3.400000e-01    1.230000e+00
   TC2  TX2r  1 3.400000e-01    1.230000e+00
   TC2  TX3r  1 3.400000e-01    1.230000e+00
   TC2  TX4r  1 3.660000e-01    9.350000e-01
   TC2  TC1r  1 3.400000e-01    1.770000e+00
  SP6d   TC2  1 4.090000e-01    1.080000e+00
  SP5d   TC2  1 4.040000e-01    1.130000e+00
  SP4d   TC2  1 4.040000e-01    1.130000e+00
  SP3d   TC2  1 4.040000e-01    1.130000e+00
  SP2d   TC2  1 3.940000e-01    1.290000e+00
  SP1d   TC2  1 3.940000e-01    1.290000e+00
  SN6d   TC2  1 3.780000e-01    1.450000e+00
  SN5d   TC2  1 3.780000e-01    1.450000e+00
  SN4d   TC2  1 3.780000e-01    1.450000e+00
  SN3d   TC2  1 3.660000e-01    1.600000e+00
  SN2d   TC2  1 3.660000e-01    1.600000e+00
  SN1d   TC2  1 3.660000e-01    1.600000e+00
  SP6a   TC2  1 4.090000e-01    1.080000e+00
  SP5a   TC2  1 4.040000e-01    1.130000e+00
  SP4a   TC2  1 4.040000e-01    1.130000e+00
  SP3a   TC2  1 4.040000e-01    1.130000e+00
  SP2a   TC2  1 3.940000e-01    1.290000e+00
  SP1a   TC2  1 3.940000e-01    1.290000e+00
  SN6a   TC2  1 3.780000e-01    1.450000e+00
  SN5a   TC2  1 3.780000e-01    1.450000e+00
  SN4a   TC2  1 3.780000e-01    1.450000e+00
  SN3a   TC2  1 3.660000e-01    1.600000e+00
  SN2a   TC2  1 3.660000e-01    1.600000e+00
  SN1a   TC2  1 3.660000e-01    1.600000e+00
  SC6v   TC2  1 3.650000e-01    1.750000e+00
  SC5v   TC2  1 3.650000e-01    1.750000e+00
  SC4v   TC2  1 3.650000e-01    1.910000e+00
  SC3v   TC2  1 3.650000e-01    2.110000e+00
  SC6e   TC2  1 3.650000e-01    1.750000e+00
  SC5e   TC2  1 3.650000e-01    1.750000e+00
  SC4e   TC2  1 3.650000e-01    1.910000e+00
  SC3e   TC2  1 3.650000e-01    2.110000e+00
  SP6q   TC2  1 3.940000e-01    1.290000e+00
  SP5q   TC2  1 3.780000e-01    1.450000e+00
  SP4q   TC2  1 3.780000e-01    1.450000e+00
  SP3q   TC2  1 3.780000e-01    1.450000e+00
  SP2q   TC2  1 3.660000e-01    1.600000e+00
  SP1q   TC2  1 3.660000e-01    1.600000e+00
  SN6q   TC2  1 3.650000e-01    1.750000e+00
  SN5q   TC2  1 3.650000e-01    1.750000e+00
  SN4q   TC2  1 3.650000e-01    1.750000e+00
  SN3q   TC2  1 3.650000e-01    1.910000e+00
  SN2q   TC2  1 3.650000e-01    1.910000e+00
  SN1q   TC2  1 3.650000e-01    1.910000e+00
  SC6q   TC2  1 3.650000e-01    1.910000e+00
  SC5q   TC2  1 3.650000e-01    1.910000e+00
  SC4q   TC2  1 3.650000e-01    2.110000e+00
  SC3q   TC2  1 3.650000e-01    2.340000e+00
 SC3eq   TC2  1 3.650000e-01    2.570000e+00
 SC4eq   TC2  1 3.650000e-01    2.340000e+00
 SC5eq   TC2  1 3.650000e-01    2.110000e+00
 SC6eq   TC2  1 3.650000e-01    2.110000e+00
 SC3vq   TC2  1 3.650000e-01    2.570000e+00
 SC4vq   TC2  1 3.650000e-01    2.340000e+00
 SC5vq   TC2  1 3.650000e-01    2.110000e+00
 SC6vq   TC2  1 3.650000e-01    2.110000e+00
 SN1aq   TC2  1 3.650000e-01    1.910000e+00
 SN2aq   TC2  1 3.650000e-01    1.910000e+00
 SN3aq   TC2  1 3.650000e-01    1.910000e+00
 SN4aq   TC2  1 3.650000e-01    1.750000e+00
 SN5aq   TC2  1 3.650000e-01    1.750000e+00
 SN6aq   TC2  1 3.650000e-01    1.750000e+00
 SP1aq   TC2  1 3.660000e-01    1.600000e+00
 SP2aq   TC2  1 3.660000e-01    1.600000e+00
 SP3aq   TC2  1 3.780000e-01    1.450000e+00
 SP4aq   TC2  1 3.780000e-01    1.450000e+00
 SP5aq   TC2  1 3.780000e-01    1.450000e+00
 SP6aq   TC2  1 3.940000e-01    1.290000e+00
 SN1dq   TC2  1 3.650000e-01    1.910000e+00
 SN2dq   TC2  1 3.650000e-01    1.910000e+00
 SN3dq   TC2  1 3.650000e-01    1.910000e+00
 SN4dq   TC2  1 3.650000e-01    1.750000e+00
 SN5dq   TC2  1 3.650000e-01    1.750000e+00
 SN6dq   TC2  1 3.650000e-01    1.750000e+00
 SP1dq   TC2  1 3.660000e-01    1.600000e+00
 SP2dq   TC2  1 3.660000e-01    1.600000e+00
 SP3dq   TC2  1 3.780000e-01    1.450000e+00
 SP4dq   TC2  1 3.780000e-01    1.450000e+00
 SP5dq   TC2  1 3.780000e-01    1.450000e+00
 SP6dq   TC2  1 3.940000e-01    1.290000e+00
  SP6h   TC2  1 4.090000e-01    1.080000e+00
  SP5h   TC2  1 4.040000e-01    1.130000e+00
  SP4h   TC2  1 4.040000e-01    1.130000e+00
  SP3h   TC2  1 4.040000e-01    1.130000e+00
  SP2h   TC2  1 3.940000e-01    1.290000e+00
  SP1h   TC2  1 3.940000e-01    1.290000e+00
  SN6h   TC2  1 3.780000e-01    1.450000e+00
  SN5h   TC2  1 3.780000e-01    1.450000e+00
  SN4h   TC2  1 3.780000e-01    1.450000e+00
  SN3h   TC2  1 3.660000e-01    1.600000e+00
  SN2h   TC2  1 3.660000e-01    1.600000e+00
  SN1h   TC2  1 3.660000e-01    1.600000e+00
  SC6h   TC2  1 3.660000e-01    1.600000e+00
  SC5h   TC2  1 3.660000e-01    1.600000e+00
  SC4h   TC2  1 3.650000e-01    1.750000e+00
  SC3h   TC2  1 3.650000e-01    1.910000e+00
 SC3eh   TC2  1 3.650000e-01    2.110000e+00
 SC4eh   TC2  1 3.650000e-01    1.910000e+00
 SC5eh   TC2  1 3.650000e-01    1.750000e+00
 SC6eh   TC2  1 3.650000e-01    1.750000e+00
 SC3vh   TC2  1 3.650000e-01    2.110000e+00
 SC4vh   TC2  1 3.650000e-01    1.910000e+00
 SC5vh   TC2  1 3.650000e-01    1.750000e+00
 SC6vh   TC2  1 3.650000e-01    1.750000e+00
 SN1ah   TC2  1 3.660000e-01    1.600000e+00
 SN2ah   TC2  1 3.660000e-01    1.600000e+00
 SN3ah   TC2  1 3.660000e-01    1.600000e+00
 SN4ah   TC2  1 3.780000e-01    1.450000e+00
 SN5ah   TC2  1 3.780000e-01    1.450000e+00
 SN6ah   TC2  1 3.780000e-01    1.450000e+00
 SP1ah   TC2  1 3.940000e-01    1.290000e+00
 SP2ah   TC2  1 3.940000e-01    1.290000e+00
 SP3ah   TC2  1 4.040000e-01    1.130000e+00
 SP4ah   TC2  1 4.040000e-01    1.130000e+00
 SP5ah   TC2  1 4.040000e-01    1.130000e+00
 SP6ah   TC2  1 4.090000e-01    1.080000e+00
 SN1dh   TC2  1 3.660000e-01    1.600000e+00
 SN2dh   TC2  1 3.660000e-01    1.600000e+00
 SN3dh   TC2  1 3.660000e-01    1.600000e+00
 SN4dh   TC2  1 3.780000e-01    1.450000e+00
 SN5dh   TC2  1 3.780000e-01    1.450000e+00
 SN6dh   TC2  1 3.780000e-01    1.450000e+00
 SP1dh   TC2  1 3.940000e-01    1.290000e+00
 SP2dh   TC2  1 3.940000e-01    1.290000e+00
 SP3dh   TC2  1 4.040000e-01    1.130000e+00
 SP4dh   TC2  1 4.040000e-01    1.130000e+00
 SP5dh   TC2  1 4.040000e-01    1.130000e+00
 SP6dh   TC2  1 4.090000e-01    1.080000e+00
  SP6r   TC2  1 4.090000e-01    1.080000e+00
  SP5r   TC2  1 4.040000e-01    1.130000e+00
  SP4r   TC2  1 4.040000e-01    1.130000e+00
  SP3r   TC2  1 4.040000e-01    1.130000e+00
  SP2r   TC2  1 3.940000e-01    1.290000e+00
  SP1r   TC2  1 3.940000e-01    1.290000e+00
  SN6r   TC2  1 3.780000e-01    1.450000e+00
  SN5r   TC2  1 3.780000e-01    1.450000e+00
  SN4r   TC2  1 3.780000e-01    1.450000e+00
  SN3r   TC2  1 3.660000e-01    1.600000e+00
  SN2r   TC2  1 3.660000e-01    1.600000e+00
  SN1r   TC2  1 3.660000e-01    1.600000e+00
  SC6r   TC2  1 3.660000e-01    1.600000e+00
  SC5r   TC2  1 3.660000e-01    1.600000e+00
  SC4r   TC2  1 3.650000e-01    1.750000e+00
  SC3r   TC2  1 3.650000e-01    1.910000e+00
 SC3er   TC2  1 3.650000e-01    2.110000e+00
 SC4er   TC2  1 3.650000e-01    1.910000e+00
 SC5er   TC2  1 3.650000e-01    1.750000e+00
 SC6er   TC2  1 3.650000e-01    1.750000e+00
 SC3vr   TC2  1 3.650000e-01    2.110000e+00
 SC4vr   TC2  1 3.650000e-01    1.910000e+00
 SC5vr   TC2  1 3.650000e-01    1.750000e+00
 SC6vr   TC2  1 3.650000e-01    1.750000e+00
 SN1ar   TC2  1 3.660000e-01    1.600000e+00
 SN2ar   TC2  1 3.660000e-01    1.600000e+00
 SN3ar   TC2  1 3.660000e-01    1.600000e+00
 SN4ar   TC2  1 3.780000e-01    1.450000e+00
 SN5ar   TC2  1 3.780000e-01    1.450000e+00
 SN6ar   TC2  1 3.780000e-01    1.450000e+00
 SP1ar   TC2  1 3.940000e-01    1.290000e+00
 SP2ar   TC2  1 3.940000e-01    1.290000e+00
 SP3ar   TC2  1 4.040000e-01    1.130000e+00
 SP4ar   TC2  1 4.040000e-01    1.130000e+00
 SP5ar   TC2  1 4.040000e-01    1.130000e+00
 SP6ar   TC2  1 4.090000e-01    1.080000e+00
 SN1dr   TC2  1 3.660000e-01    1.600000e+00
 SN2dr   TC2  1 3.660000e-01    1.600000e+00
 SN3dr   TC2  1 3.660000e-01    1.600000e+00
 SN4dr   TC2  1 3.780000e-01    1.450000e+00
 SN5dr   TC2  1 3.780000e-01    1.450000e+00
 SN6dr   TC2  1 3.780000e-01    1.450000e+00
 SP1dr   TC2  1 3.940000e-01    1.290000e+00
 SP2dr   TC2  1 3.940000e-01    1.290000e+00
 SP3dr   TC2  1 4.040000e-01    1.130000e+00
 SP4dr   TC2  1 4.040000e-01    1.130000e+00
 SP5dr   TC2  1 4.040000e-01    1.130000e+00
 SP6dr   TC2  1 4.090000e-01    1.080000e+00
   TC2   SC1  1 3.650000e-01    2.110000e+00
   TC2   SX4  1 3.780000e-01    1.450000e+00
   TC2   SX3  1 3.650000e-01    1.750000e+00
   TC2   SX2  1 3.650000e-01    1.750000e+00
   TC2   SX1  1 3.650000e-01    1.750000e+00
   TC2  SC2v  1 3.650000e-01    2.110000e+00
   TC2  SX1v  1 3.650000e-01    1.910000e+00
   TC2  SX2v  1 3.650000e-01    1.910000e+00
   TC2  SX3v  1 3.650000e-01    1.910000e+00
   TC2  SX4v  1 3.660000e-01    1.600000e+00
   TC2  SC1v  1 3.650000e-01    2.340000e+00
   TC2  SC2e  1 3.650000e-01    2.110000e+00
   TC2  SX1e  1 3.650000e-01    1.910000e+00
   TC2  SX2e  1 3.650000e-01    1.910000e+00
   TC2  SX3e  1 3.650000e-01    1.910000e+00
   TC2  SX4e  1 3.660000e-01    1.600000e+00
   TC2  SC1e  1 3.650000e-01    2.340000e+00
   TC2  SC2q  1 3.650000e-01    2.340000e+00
   TC2 SX1eq  1 3.650000e-01    2.340000e+00
   TC2 SX2eq  1 3.650000e-01    2.340000e+00
   TC2 SX3eq  1 3.650000e-01    2.340000e+00
   TC2 SX4eq  1 3.650000e-01    1.910000e+00
   TC2 SC1eq  1 3.650000e-01    2.830000e+00
   TC2 SC2eq  1 3.650000e-01    2.570000e+00
   TC2 SX1vq  1 3.650000e-01    2.340000e+00
   TC2 SX2vq  1 3.650000e-01    2.340000e+00
   TC2 SX3vq  1 3.650000e-01    2.340000e+00
   TC2 SX4vq  1 3.650000e-01    1.910000e+00
   TC2 SC1vq  1 3.650000e-01    2.830000e+00
   TC2 SC2vq  1 3.650000e-01    2.570000e+00
   TC2  SX1q  1 3.650000e-01    2.110000e+00
   TC2  SX2q  1 3.650000e-01    2.110000e+00
   TC2  SX3q  1 3.650000e-01    2.110000e+00
   TC2  SX4q  1 3.650000e-01    1.750000e+00
   TC2  SC1q  1 3.650000e-01    2.570000e+00
   TC2  SC2h  1 3.650000e-01    1.910000e+00
   TC2 SX1eh  1 3.650000e-01    1.910000e+00
   TC2 SX2eh  1 3.650000e-01    1.910000e+00
   TC2 SX3eh  1 3.650000e-01    1.910000e+00
   TC2 SX4eh  1 3.660000e-01    1.600000e+00
   TC2 SC1eh  1 3.650000e-01    2.340000e+00
   TC2 SC2eh  1 3.650000e-01    2.110000e+00
   TC2 SX1vh  1 3.650000e-01    1.910000e+00
   TC2 SX2vh  1 3.650000e-01    1.910000e+00
   TC2 SX3vh  1 3.650000e-01    1.910000e+00
   TC2 SX4vh  1 3.660000e-01    1.600000e+00
   TC2 SC1vh  1 3.650000e-01    2.340000e+00
   TC2 SC2vh  1 3.650000e-01    2.110000e+00
   TC2  SX1h  1 3.650000e-01    1.750000e+00
   TC2  SX2h  1 3.650000e-01    1.750000e+00
   TC2  SX3h  1 3.650000e-01    1.750000e+00
   TC2  SX4h  1 3.780000e-01    1.450000e+00
   TC2  SC1h  1 3.650000e-01    2.110000e+00
   TC2  SC2r  1 3.650000e-01    1.910000e+00
   TC2 SX1er  1 3.650000e-01    1.910000e+00
   TC2 SX2er  1 3.650000e-01    1.910000e+00
   TC2 SX3er  1 3.650000e-01    1.910000e+00
   TC2 SX4er  1 3.660000e-01    1.600000e+00
   TC2 SC1er  1 3.650000e-01    2.340000e+00
   TC2 SC2er  1 3.650000e-01    2.110000e+00
   TC2 SX1vr  1 3.650000e-01    1.910000e+00
   TC2 SX2vr  1 3.650000e-01    1.910000e+00
   TC2 SX3vr  1 3.650000e-01    1.910000e+00
   TC2 SX4vr  1 3.660000e-01    1.600000e+00
   TC2 SC1vr  1 3.650000e-01    2.340000e+00
   TC2 SC2vr  1 3.650000e-01    2.110000e+00
   TC2  SX1r  1 3.650000e-01    1.750000e+00
   TC2  SX2r  1 3.650000e-01    1.750000e+00
   TC2  SX3r  1 3.650000e-01    1.750000e+00
   TC2  SX4r  1 3.780000e-01    1.450000e+00
   TC2  SC1r  1 3.650000e-01    2.110000e+00
    C1    C1  1 4.700000e-01    3.390000e+00
    C1    X4  1 4.700000e-01    2.960000e+00
    C1    X3  1 4.700000e-01    3.240000e+00
    C1    X2  1 4.700000e-01    3.240000e+00
    C1    X1  1 4.700000e-01    3.240000e+00
   P6d    C1  1 5.200000e-01    2.120000e+00
   P5d    C1  1 4.700000e-01    2.440000e+00
   P4d    C1  1 4.700000e-01    2.440000e+00
   P3d    C1  1 4.700000e-01    2.440000e+00
   P2d    C1  1 4.700000e-01    2.620000e+00
   P1d    C1  1 4.700000e-01    2.620000e+00
   N6d    C1  1 4.700000e-01    2.790000e+00
   N5d    C1  1 4.700000e-01    2.790000e+00
   N4d    C1  1 4.700000e-01    2.790000e+00
   N3d    C1  1 4.700000e-01    2.960000e+00
   N2d    C1  1 4.700000e-01    2.960000e+00
   N1d    C1  1 4.700000e-01    2.960000e+00
   P6a    C1  1 5.200000e-01    2.120000e+00
   P5a    C1  1 4.700000e-01    2.440000e+00
   P4a    C1  1 4.700000e-01    2.440000e+00
   P3a    C1  1 4.700000e-01    2.440000e+00
   P2a    C1  1 4.700000e-01    2.620000e+00
   P1a    C1  1 4.700000e-01    2.620000e+00
   N6a    C1  1 4.700000e-01    2.790000e+00
   N5a    C1  1 4.700000e-01    2.790000e+00
   N4a    C1  1 4.700000e-01    2.790000e+00
   N3a    C1  1 4.700000e-01    2.960000e+00
   N2a    C1  1 4.700000e-01    2.960000e+00
   N1a    C1  1 4.700000e-01    2.960000e+00
   C6v    C1  1 4.700000e-01    3.070000e+00
   C5v    C1  1 4.700000e-01    3.240000e+00
   C4v    C1  1 4.700000e-01    3.240000e+00
   C3v    C1  1 4.700000e-01    3.520000e+00
   C2v    C1  1 4.700000e-01    3.690000e+00
    C1   C1v  1 4.700000e-01    3.520000e+00
    C1   X1v  1 4.700000e-01    3.390000e+00
    C1   X2v  1 4.700000e-01    3.390000e+00
    C1   X3v  1 4.700000e-01    3.390000e+00
    C1   X4v  1 4.700000e-01    3.070000e+00
   C6e    C1  1 4.700000e-01    3.070000e+00
   C5e    C1  1 4.700000e-01    3.240000e+00
   C4e    C1  1 4.700000e-01    3.240000e+00
   C3e    C1  1 4.700000e-01    3.520000e+00
   C2e    C1  1 4.700000e-01    3.690000e+00
    C1   C1e  1 4.700000e-01    3.520000e+00
    C1   X1e  1 4.700000e-01    3.390000e+00
    C1   X2e  1 4.700000e-01    3.390000e+00
    C1   X3e  1 4.700000e-01    3.390000e+00
    C1   X4e  1 4.700000e-01    3.070000e+00
   P6q    C1  1 4.700000e-01    2.440000e+00
   P5q    C1  1 4.700000e-01    2.790000e+00
   P4q    C1  1 4.700000e-01    2.790000e+00
   P3q    C1  1 4.700000e-01    2.790000e+00
   P2q    C1  1 4.700000e-01    2.960000e+00
   P1q    C1  1 4.700000e-01    2.960000e+00
   N6q    C1  1 4.700000e-01    3.070000e+00
   N5q    C1  1 4.700000e-01    3.070000e+00
   N4q    C1  1 4.700000e-01    3.070000e+00
   N3q    C1  1 4.700000e-01    3.240000e+00
   N2q    C1  1 4.700000e-01    3.240000e+00
   N1q    C1  1 4.700000e-01    3.240000e+00
   C6q    C1  1 4.700000e-01    3.240000e+00
   C5q    C1  1 4.700000e-01    3.390000e+00
   C4q    C1  1 4.700000e-01    3.390000e+00
   C3q    C1  1 4.700000e-01    3.690000e+00
   C2q    C1  1 4.700000e-01    3.880000e+00
    C1   C1q  1 4.700000e-01    3.690000e+00
    C1  X1eq  1 4.700000e-01    3.690000e+00
    C1  X2eq  1 4.700000e-01    3.690000e+00
    C1  X3eq  1 4.700000e-01    3.690000e+00
    C1  X4eq  1 4.700000e-01    3.390000e+00
    C1  C1eq  1 4.700000e-01    3.880000e+00
  C2eq    C1  1 4.700000e-01    4.060000e+00
  C3eq    C1  1 4.700000e-01    3.880000e+00
  C4eq    C1  1 4.700000e-01    3.520000e+00
  C5eq    C1  1 4.700000e-01    3.520000e+00
  C6eq    C1  1 4.700000e-01    3.390000e+00
    C1  X1vq  1 4.700000e-01    3.690000e+00
    C1  X2vq  1 4.700000e-01    3.690000e+00
    C1  X3vq  1 4.700000e-01    3.690000e+00
    C1  X4vq  1 4.700000e-01    3.390000e+00
    C1  C1vq  1 4.700000e-01    3.880000e+00
  C2vq    C1  1 4.700000e-01    4.060000e+00
  C3vq    C1  1 4.700000e-01    3.880000e+00
  C4vq    C1  1 4.700000e-01    3.520000e+00
  C5vq    C1  1 4.700000e-01    3.520000e+00
  C6vq    C1  1 4.700000e-01    3.390000e+00
  N1aq    C1  1 4.700000e-01    3.240000e+00
  N2aq    C1  1 4.700000e-01    3.240000e+00
  N3aq    C1  1 4.700000e-01    3.240000e+00
  N4aq    C1  1 4.700000e-01    3.070000e+00
  N5aq    C1  1 4.700000e-01    3.070000e+00
  N6aq    C1  1 4.700000e-01    3.070000e+00
  P1aq    C1  1 4.700000e-01    2.960000e+00
  P2aq    C1  1 4.700000e-01    2.960000e+00
  P3aq    C1  1 4.700000e-01    2.790000e+00
  P4aq    C1  1 4.700000e-01    2.790000e+00
  P5aq    C1  1 4.700000e-01    2.790000e+00
  P6aq    C1  1 4.700000e-01    2.440000e+00
  N1dq    C1  1 4.700000e-01    3.240000e+00
  N2dq    C1  1 4.700000e-01    3.240000e+00
  N3dq    C1  1 4.700000e-01    3.240000e+00
  N4dq    C1  1 4.700000e-01    3.070000e+00
  N5dq    C1  1 4.700000e-01    3.070000e+00
  N6dq    C1  1 4.700000e-01    3.070000e+00
  P1dq    C1  1 4.700000e-01    2.960000e+00
  P2dq    C1  1 4.700000e-01    2.960000e+00
  P3dq    C1  1 4.700000e-01    2.790000e+00
  P4dq    C1  1 4.700000e-01    2.790000e+00
  P5dq    C1  1 4.700000e-01    2.790000e+00
  P6dq    C1  1 4.700000e-01    2.440000e+00
    C1   X1q  1 4.700000e-01    3.520000e+00
    C1   X2q  1 4.700000e-01    3.520000e+00
    C1   X3q  1 4.700000e-01    3.520000e+00
    C1   X4q  1 4.700000e-01    3.240000e+00
   P6h    C1  1 5.200000e-01    2.120000e+00
   P5h    C1  1 4.700000e-01    2.440000e+00
   P4h    C1  1 4.700000e-01    2.440000e+00
   P3h    C1  1 4.700000e-01    2.440000e+00
   P2h    C1  1 4.700000e-01    2.620000e+00
   P1h    C1  1 4.700000e-01    2.620000e+00
   N6h    C1  1 4.700000e-01    2.790000e+00
   N5h    C1  1 4.700000e-01    2.790000e+00
   N4h    C1  1 4.700000e-01    2.790000e+00
   N3h    C1  1 4.700000e-01    2.960000e+00
   N2h    C1  1 4.700000e-01    2.960000e+00
   N1h    C1  1 4.700000e-01    2.960000e+00
   C6h    C1  1 4.700000e-01    2.960000e+00
   C5h    C1  1 4.700000e-01    3.070000e+00
   C4h    C1  1 4.700000e-01    3.070000e+00
   C3h    C1  1 4.700000e-01    3.390000e+00
   C2h    C1  1 4.700000e-01    3.520000e+00
    C1   C1h  1 4.700000e-01    3.390000e+00
    C1  X1eh  1 4.700000e-01    3.390000e+00
    C1  X2eh  1 4.700000e-01    3.390000e+00
    C1  X3eh  1 4.700000e-01    3.390000e+00
    C1  X4eh  1 4.700000e-01    3.070000e+00
    C1  C1eh  1 4.700000e-01    3.520000e+00
  C2eh    C1  1 4.700000e-01    3.690000e+00
  C3eh    C1  1 4.700000e-01    3.520000e+00
  C4eh    C1  1 4.700000e-01    3.240000e+00
  C5eh    C1  1 4.700000e-01    3.240000e+00
  C6eh    C1  1 4.700000e-01    3.070000e+00
    C1  X1vh  1 4.700000e-01    3.390000e+00
    C1  X2vh  1 4.700000e-01    3.390000e+00
    C1  X3vh  1 4.700000e-01    3.390000e+00
    C1  X4vh  1 4.700000e-01    3.070000e+00
    C1  C1vh  1 4.700000e-01    3.520000e+00
  C2vh    C1  1 4.700000e-01    3.690000e+00
  C3vh    C1  1 4.700000e-01    3.520000e+00
  C4vh    C1  1 4.700000e-01    3.240000e+00
  C5vh    C1  1 4.700000e-01    3.240000e+00
  C6vh    C1  1 4.700000e-01    3.070000e+00
  N1ah    C1  1 4.700000e-01    2.960000e+00
  N2ah    C1  1 4.700000e-01    2.960000e+00
  N3ah    C1  1 4.700000e-01    2.960000e+00
  N4ah    C1  1 4.700000e-01    2.790000e+00
  N5ah    C1  1 4.700000e-01    2.790000e+00
  N6ah    C1  1 4.700000e-01    2.790000e+00
  P1ah    C1  1 4.700000e-01    2.620000e+00
  P2ah    C1  1 4.700000e-01    2.620000e+00
  P3ah    C1  1 4.700000e-01    2.440000e+00
  P4ah    C1  1 4.700000e-01    2.440000e+00
  P5ah    C1  1 4.700000e-01    2.440000e+00
  P6ah    C1  1 5.200000e-01    2.120000e+00
  N1dh    C1  1 4.700000e-01    2.960000e+00
  N2dh    C1  1 4.700000e-01    2.960000e+00
  N3dh    C1  1 4.700000e-01    2.960000e+00
  N4dh    C1  1 4.700000e-01    2.790000e+00
  N5dh    C1  1 4.700000e-01    2.790000e+00
  N6dh    C1  1 4.700000e-01    2.790000e+00
  P1dh    C1  1 4.700000e-01    2.620000e+00
  P2dh    C1  1 4.700000e-01    2.620000e+00
  P3dh    C1  1 4.700000e-01    2.440000e+00
  P4dh    C1  1 4.700000e-01    2.440000e+00
  P5dh    C1  1 4.700000e-01    2.440000e+00
  P6dh    C1  1 5.200000e-01    2.120000e+00
    C1   X1h  1 4.700000e-01    3.240000e+00
    C1   X2h  1 4.700000e-01    3.240000e+00
    C1   X3h  1 4.700000e-01    3.240000e+00
    C1   X4h  1 4.700000e-01    2.960000e+00
   P6r    C1  1 5.200000e-01    2.120000e+00
   P5r    C1  1 4.700000e-01    2.440000e+00
   P4r    C1  1 4.700000e-01    2.440000e+00
   P3r    C1  1 4.700000e-01    2.440000e+00
   P2r    C1  1 4.700000e-01    2.620000e+00
   P1r    C1  1 4.700000e-01    2.620000e+00
   N6r    C1  1 4.700000e-01    2.790000e+00
   N5r    C1  1 4.700000e-01    2.790000e+00
   N4r    C1  1 4.700000e-01    2.790000e+00
   N3r    C1  1 4.700000e-01    2.960000e+00
   N2r    C1  1 4.700000e-01    2.960000e+00
   N1r    C1  1 4.700000e-01    2.960000e+00
   C6r    C1  1 4.700000e-01    2.960000e+00
   C5r    C1  1 4.700000e-01    3.070000e+00
   C4r    C1  1 4.700000e-01    3.070000e+00
   C3r    C1  1 4.700000e-01    3.390000e+00
   C2r    C1  1 4.700000e-01    3.520000e+00
    C1   C1r  1 4.700000e-01    3.390000e+00
    C1  X1er  1 4.700000e-01    3.390000e+00
    C1  X2er  1 4.700000e-01    3.390000e+00
    C1  X3er  1 4.700000e-01    3.390000e+00
    C1  X4er  1 4.700000e-01    3.070000e+00
    C1  C1er  1 4.700000e-01    3.520000e+00
  C2er    C1  1 4.700000e-01    3.690000e+00
  C3er    C1  1 4.700000e-01    3.520000e+00
  C4er    C1  1 4.700000e-01    3.240000e+00
  C5er    C1  1 4.700000e-01    3.240000e+00
  C6er    C1  1 4.700000e-01    3.070000e+00
    C1  X1vr  1 4.700000e-01    3.390000e+00
    C1  X2vr  1 4.700000e-01    3.390000e+00
    C1  X3vr  1 4.700000e-01    3.390000e+00
    C1  X4vr  1 4.700000e-01    3.070000e+00
    C1  C1vr  1 4.700000e-01    3.520000e+00
  C2vr    C1  1 4.700000e-01    3.690000e+00
  C3vr    C1  1 4.700000e-01    3.520000e+00
  C4vr    C1  1 4.700000e-01    3.240000e+00
  C5vr    C1  1 4.700000e-01    3.240000e+00
  C6vr    C1  1 4.700000e-01    3.070000e+00
  N1ar    C1  1 4.700000e-01    2.960000e+00
  N2ar    C1  1 4.700000e-01    2.960000e+00
  N3ar    C1  1 4.700000e-01    2.960000e+00
  N4ar    C1  1 4.700000e-01    2.790000e+00
  N5ar    C1  1 4.700000e-01    2.790000e+00
  N6ar    C1  1 4.700000e-01    2.790000e+00
  P1ar    C1  1 4.700000e-01    2.620000e+00
  P2ar    C1  1 4.700000e-01    2.620000e+00
  P3ar    C1  1 4.700000e-01    2.440000e+00
  P4ar    C1  1 4.700000e-01    2.440000e+00
  P5ar    C1  1 4.700000e-01    2.440000e+00
  P6ar    C1  1 5.200000e-01    2.120000e+00
  N1dr    C1  1 4.700000e-01    2.960000e+00
  N2dr    C1  1 4.700000e-01    2.960000e+00
  N3dr    C1  1 4.700000e-01    2.960000e+00
  N4dr    C1  1 4.700000e-01    2.790000e+00
  N5dr    C1  1 4.700000e-01    2.790000e+00
  N6dr    C1  1 4.700000e-01    2.790000e+00
  P1dr    C1  1 4.700000e-01    2.620000e+00
  P2dr    C1  1 4.700000e-01    2.620000e+00
  P3dr    C1  1 4.700000e-01    2.440000e+00
  P4dr    C1  1 4.700000e-01    2.440000e+00
  P5dr    C1  1 4.700000e-01    2.440000e+00
  P6dr    C1  1 5.200000e-01    2.120000e+00
    C1   X1r  1 4.700000e-01    3.240000e+00
    C1   X2r  1 4.700000e-01    3.240000e+00
    C1   X3r  1 4.700000e-01    3.240000e+00
    C1   X4r  1 4.700000e-01    2.960000e+00
    C1   SC1  1 4.300000e-01    2.920000e+00
    C1   SX4  1 4.300000e-01    2.320000e+00
    C1   SX3  1 4.300000e-01    2.770000e+00
    C1   SX2  1 4.300000e-01    2.770000e+00
    C1   SX1  1 4.300000e-01    2.770000e+00
    C1  SC1v  1 4.300000e-01    3.160000e+00
    C1  SX1v  1 4.300000e-01    2.920000e+00
    C1  SX2v  1 4.300000e-01    2.920000e+00
    C1  SX3v  1 4.300000e-01    2.920000e+00
    C1  SX4v  1 4.300000e-01    2.530000e+00
    C1  SC1e  1 4.300000e-01    3.160000e+00
    C1  SX1e  1 4.300000e-01    2.920000e+00
    C1  SX2e  1 4.300000e-01    2.920000e+00
    C1  SX3e  1 4.300000e-01    2.920000e+00
    C1  SX4e  1 4.300000e-01    2.530000e+00
    C1  SC1q  1 4.300000e-01    3.380000e+00
    C1 SX1eq  1 4.300000e-01    3.380000e+00
    C1 SX2eq  1 4.300000e-01    3.380000e+00
    C1 SX3eq  1 4.300000e-01    3.380000e+00
    C1 SX4eq  1 4.300000e-01    2.920000e+00
    C1 SC1eq  1 4.300000e-01    3.590000e+00
    C1 SX1vq  1 4.300000e-01    3.380000e+00
    C1 SX2vq  1 4.300000e-01    3.380000e+00
    C1 SX3vq  1 4.300000e-01    3.380000e+00
    C1 SX4vq  1 4.300000e-01    2.920000e+00
    C1 SC1vq  1 4.300000e-01    3.590000e+00
    C1  SX1q  1 4.300000e-01    3.160000e+00
    C1  SX2q  1 4.300000e-01    3.160000e+00
    C1  SX3q  1 4.300000e-01    3.160000e+00
    C1  SX4q  1 4.300000e-01    2.770000e+00
    C1  SC1h  1 4.300000e-01    2.920000e+00
    C1 SX1eh  1 4.300000e-01    2.920000e+00
    C1 SX2eh  1 4.300000e-01    2.920000e+00
    C1 SX3eh  1 4.300000e-01    2.920000e+00
    C1 SX4eh  1 4.300000e-01    2.530000e+00
    C1 SC1eh  1 4.300000e-01    3.160000e+00
    C1 SX1vh  1 4.300000e-01    2.920000e+00
    C1 SX2vh  1 4.300000e-01    2.920000e+00
    C1 SX3vh  1 4.300000e-01    2.920000e+00
    C1 SX4vh  1 4.300000e-01    2.530000e+00
    C1 SC1vh  1 4.300000e-01    3.160000e+00
    C1  SX1h  1 4.300000e-01    2.770000e+00
    C1  SX2h  1 4.300000e-01    2.770000e+00
    C1  SX3h  1 4.300000e-01    2.770000e+00
    C1  SX4h  1 4.300000e-01    2.320000e+00
    C1  SC1r  1 4.300000e-01    2.920000e+00
    C1 SX1er  1 4.300000e-01    2.920000e+00
    C1 SX2er  1 4.300000e-01    2.920000e+00
    C1 SX3er  1 4.300000e-01    2.920000e+00
    C1 SX4er  1 4.300000e-01    2.530000e+00
    C1 SC1er  1 4.300000e-01    3.160000e+00
    C1 SX1vr  1 4.300000e-01    2.920000e+00
    C1 SX2vr  1 4.300000e-01    2.920000e+00
    C1 SX3vr  1 4.300000e-01    2.920000e+00
    C1 SX4vr  1 4.300000e-01    2.530000e+00
    C1 SC1vr  1 4.300000e-01    3.160000e+00
    C1  SX1r  1 4.300000e-01    2.770000e+00
    C1  SX2r  1 4.300000e-01    2.770000e+00
    C1  SX3r  1 4.300000e-01    2.770000e+00
    C1  SX4r  1 4.300000e-01    2.320000e+00
  SP6d    C1  1 4.730000e-01    1.280000e+00
  SP5d    C1  1 4.300000e-01    1.730000e+00
  SP4d    C1  1 4.300000e-01    1.730000e+00
  SP3d    C1  1 4.300000e-01    1.730000e+00
  SP2d    C1  1 4.300000e-01    1.930000e+00
  SP1d    C1  1 4.300000e-01    1.930000e+00
  SN6d    C1  1 4.300000e-01    2.160000e+00
  SN5d    C1  1 4.300000e-01    2.160000e+00
  SN4d    C1  1 4.300000e-01    2.160000e+00
  SN3d    C1  1 4.300000e-01    2.320000e+00
  SN2d    C1  1 4.300000e-01    2.320000e+00
  SN1d    C1  1 4.300000e-01    2.320000e+00
  SP6a    C1  1 4.730000e-01    1.280000e+00
  SP5a    C1  1 4.300000e-01    1.730000e+00
  SP4a    C1  1 4.300000e-01    1.730000e+00
  SP3a    C1  1 4.300000e-01    1.730000e+00
  SP2a    C1  1 4.300000e-01    1.930000e+00
  SP1a    C1  1 4.300000e-01    1.930000e+00
  SN6a    C1  1 4.300000e-01    2.160000e+00
  SN5a    C1  1 4.300000e-01    2.160000e+00
  SN4a    C1  1 4.300000e-01    2.160000e+00
  SN3a    C1  1 4.300000e-01    2.320000e+00
  SN2a    C1  1 4.300000e-01    2.320000e+00
  SN1a    C1  1 4.300000e-01    2.320000e+00
  SC6v    C1  1 4.300000e-01    2.530000e+00
  SC5v    C1  1 4.300000e-01    2.770000e+00
  SC4v    C1  1 4.300000e-01    2.770000e+00
  SC3v    C1  1 4.300000e-01    3.160000e+00
  SC2v    C1  1 4.300000e-01    3.380000e+00
  SC6e    C1  1 4.300000e-01    2.530000e+00
  SC5e    C1  1 4.300000e-01    2.770000e+00
  SC4e    C1  1 4.300000e-01    2.770000e+00
  SC3e    C1  1 4.300000e-01    3.160000e+00
  SC2e    C1  1 4.300000e-01    3.380000e+00
  SP6q    C1  1 4.300000e-01    1.730000e+00
  SP5q    C1  1 4.300000e-01    2.160000e+00
  SP4q    C1  1 4.300000e-01    2.160000e+00
  SP3q    C1  1 4.300000e-01    2.160000e+00
  SP2q    C1  1 4.300000e-01    2.320000e+00
  SP1q    C1  1 4.300000e-01    2.320000e+00
  SN6q    C1  1 4.300000e-01    2.530000e+00
  SN5q    C1  1 4.300000e-01    2.530000e+00
  SN4q    C1  1 4.300000e-01    2.530000e+00
  SN3q    C1  1 4.300000e-01    2.770000e+00
  SN2q    C1  1 4.300000e-01    2.770000e+00
  SN1q    C1  1 4.300000e-01    2.770000e+00
  SC6q    C1  1 4.300000e-01    2.770000e+00
  SC5q    C1  1 4.300000e-01    2.920000e+00
  SC4q    C1  1 4.300000e-01    2.920000e+00
  SC3q    C1  1 4.300000e-01    3.380000e+00
  SC2q    C1  1 4.300000e-01    3.590000e+00
 SC2eq    C1  1 4.300000e-01    3.770000e+00
 SC3eq    C1  1 4.300000e-01    3.590000e+00
 SC4eq    C1  1 4.300000e-01    3.160000e+00
 SC5eq    C1  1 4.300000e-01    3.160000e+00
 SC6eq    C1  1 4.300000e-01    2.920000e+00
 SC2vq    C1  1 4.300000e-01    3.770000e+00
 SC3vq    C1  1 4.300000e-01    3.590000e+00
 SC4vq    C1  1 4.300000e-01    3.160000e+00
 SC5vq    C1  1 4.300000e-01    3.160000e+00
 SC6vq    C1  1 4.300000e-01    2.920000e+00
 SN1aq    C1  1 4.300000e-01    2.770000e+00
 SN2aq    C1  1 4.300000e-01    2.770000e+00
 SN3aq    C1  1 4.300000e-01    2.770000e+00
 SN4aq    C1  1 4.300000e-01    2.530000e+00
 SN5aq    C1  1 4.300000e-01    2.530000e+00
 SN6aq    C1  1 4.300000e-01    2.530000e+00
 SP1aq    C1  1 4.300000e-01    2.320000e+00
 SP2aq    C1  1 4.300000e-01    2.320000e+00
 SP3aq    C1  1 4.300000e-01    2.160000e+00
 SP4aq    C1  1 4.300000e-01    2.160000e+00
 SP5aq    C1  1 4.300000e-01    2.160000e+00
 SP6aq    C1  1 4.300000e-01    1.730000e+00
 SN1dq    C1  1 4.300000e-01    2.770000e+00
 SN2dq    C1  1 4.300000e-01    2.770000e+00
 SN3dq    C1  1 4.300000e-01    2.770000e+00
 SN4dq    C1  1 4.300000e-01    2.530000e+00
 SN5dq    C1  1 4.300000e-01    2.530000e+00
 SN6dq    C1  1 4.300000e-01    2.530000e+00
 SP1dq    C1  1 4.300000e-01    2.320000e+00
 SP2dq    C1  1 4.300000e-01    2.320000e+00
 SP3dq    C1  1 4.300000e-01    2.160000e+00
 SP4dq    C1  1 4.300000e-01    2.160000e+00
 SP5dq    C1  1 4.300000e-01    2.160000e+00
 SP6dq    C1  1 4.300000e-01    1.730000e+00
  SP6h    C1  1 4.730000e-01    1.280000e+00
  SP5h    C1  1 4.300000e-01    1.730000e+00
  SP4h    C1  1 4.300000e-01    1.730000e+00
  SP3h    C1  1 4.300000e-01    1.730000e+00
  SP2h    C1  1 4.300000e-01    1.930000e+00
  SP1h    C1  1 4.300000e-01    1.930000e+00
  SN6h    C1  1 4.300000e-01    2.160000e+00
  SN5h    C1  1 4.300000e-01    2.160000e+00
  SN4h    C1  1 4.300000e-01    2.160000e+00
  SN3h    C1  1 4.300000e-01    2.320000e+00
  SN2h    C1  1 4.300000e-01    2.320000e+00
  SN1h    C1  1 4.300000e-01    2.320000e+00
  SC6h    C1  1 4.300000e-01    2.320000e+00
  SC5h    C1  1 4.300000e-01    2.530000e+00
  SC4h    C1  1 4.300000e-01    2.530000e+00
  SC3h    C1  1 4.300000e-01    2.920000e+00
  SC2h    C1  1 4.300000e-01    3.160000e+00
 SC2eh    C1  1 4.300000e-01    3.380000e+00
 SC3eh    C1  1 4.300000e-01    3.160000e+00
 SC4eh    C1  1 4.300000e-01    2.770000e+00
 SC5eh    C1  1 4.300000e-01    2.770000e+00
 SC6eh    C1  1 4.300000e-01    2.530000e+00
 SC2vh    C1  1 4.300000e-01    3.380000e+00
 SC3vh    C1  1 4.300000e-01    3.160000e+00
 SC4vh    C1  1 4.300000e-01    2.770000e+00
 SC5vh    C1  1 4.300000e-01    2.770000e+00
 SC6vh    C1  1 4.300000e-01    2.530000e+00
 SN1ah    C1  1 4.300000e-01    2.320000e+00
 SN2ah    C1  1 4.300000e-01    2.320000e+00
 SN3ah    C1  1 4.300000e-01    2.320000e+00
 SN4ah    C1  1 4.300000e-01    2.160000e+00
 SN5ah    C1  1 4.300000e-01    2.160000e+00
 SN6ah    C1  1 4.300000e-01    2.160000e+00
 SP1ah    C1  1 4.300000e-01    1.930000e+00
 SP2ah    C1  1 4.300000e-01    1.930000e+00
 SP3ah    C1  1 4.300000e-01    1.730000e+00
 SP4ah    C1  1 4.300000e-01    1.730000e+00
 SP5ah    C1  1 4.300000e-01    1.730000e+00
 SP6ah    C1  1 4.730000e-01    1.280000e+00
 SN1dh    C1  1 4.300000e-01    2.320000e+00
 SN2dh    C1  1 4.300000e-01    2.320000e+00
 SN3dh    C1  1 4.300000e-01    2.320000e+00
 SN4dh    C1  1 4.300000e-01    2.160000e+00
 SN5dh    C1  1 4.300000e-01    2.160000e+00
 SN6dh    C1  1 4.300000e-01    2.160000e+00
 SP1dh    C1  1 4.300000e-01    1.930000e+00
 SP2dh    C1  1 4.300000e-01    1.930000e+00
 SP3dh    C1  1 4.300000e-01    1.730000e+00
 SP4dh    C1  1 4.300000e-01    1.730000e+00
 SP5dh    C1  1 4.300000e-01    1.730000e+00
 SP6dh    C1  1 4.730000e-01    1.280000e+00
  SP6r    C1  1 4.730000e-01    1.280000e+00
  SP5r    C1  1 4.300000e-01    1.730000e+00
  SP4r    C1  1 4.300000e-01    1.730000e+00
  SP3r    C1  1 4.300000e-01    1.730000e+00
  SP2r    C1  1 4.300000e-01    1.930000e+00
  SP1r    C1  1 4.300000e-01    1.930000e+00
  SN6r    C1  1 4.300000e-01    2.160000e+00
  SN5r    C1  1 4.300000e-01    2.160000e+00
  SN4r    C1  1 4.300000e-01    2.160000e+00
  SN3r    C1  1 4.300000e-01    2.320000e+00
  SN2r    C1  1 4.300000e-01    2.320000e+00
  SN1r    C1  1 4.300000e-01    2.320000e+00
  SC6r    C1  1 4.300000e-01    2.320000e+00
  SC5r    C1  1 4.300000e-01    2.530000e+00
  SC4r    C1  1 4.300000e-01    2.530000e+00
  SC3r    C1  1 4.300000e-01    2.920000e+00
  SC2r    C1  1 4.300000e-01    3.160000e+00
 SC2er    C1  1 4.300000e-01    3.380000e+00
 SC3er    C1  1 4.300000e-01    3.160000e+00
 SC4er    C1  1 4.300000e-01    2.770000e+00
 SC5er    C1  1 4.300000e-01    2.770000e+00
 SC6er    C1  1 4.300000e-01    2.530000e+00
 SC2vr    C1  1 4.300000e-01    3.380000e+00
 SC3vr    C1  1 4.300000e-01    3.160000e+00
 SC4vr    C1  1 4.300000e-01    2.770000e+00
 SC5vr    C1  1 4.300000e-01    2.770000e+00
 SC6vr    C1  1 4.300000e-01    2.530000e+00
 SN1ar    C1  1 4.300000e-01    2.320000e+00
 SN2ar    C1  1 4.300000e-01    2.320000e+00
 SN3ar    C1  1 4.300000e-01    2.320000e+00
 SN4ar    C1  1 4.300000e-01    2.160000e+00
 SN5ar    C1  1 4.300000e-01    2.160000e+00
 SN6ar    C1  1 4.300000e-01    2.160000e+00
 SP1ar    C1  1 4.300000e-01    1.930000e+00
 SP2ar    C1  1 4.300000e-01    1.930000e+00
 SP3ar    C1  1 4.300000e-01    1.730000e+00
 SP4ar    C1  1 4.300000e-01    1.730000e+00
 SP5ar    C1  1 4.300000e-01    1.730000e+00
 SP6ar    C1  1 4.730000e-01    1.280000e+00
 SN1dr    C1  1 4.300000e-01    2.320000e+00
 SN2dr    C1  1 4.300000e-01    2.320000e+00
 SN3dr    C1  1 4.300000e-01    2.320000e+00
 SN4dr    C1  1 4.300000e-01    2.160000e+00
 SN5dr    C1  1 4.300000e-01    2.160000e+00
 SN6dr    C1  1 4.300000e-01    2.160000e+00
 SP1dr    C1  1 4.300000e-01    1.930000e+00
 SP2dr    C1  1 4.300000e-01    1.930000e+00
 SP3dr    C1  1 4.300000e-01    1.730000e+00
 SP4dr    C1  1 4.300000e-01    1.730000e+00
 SP5dr    C1  1 4.300000e-01    1.730000e+00
 SP6dr    C1  1 4.730000e-01    1.280000e+00
    C1   TC1  1 3.950000e-01    2.310000e+00
    C1   TX4  1 3.950000e-01    1.670000e+00
    C1   TX3  1 3.950000e-01    2.110000e+00
    C1   TX2  1 3.950000e-01    2.110000e+00
    C1   TX1  1 3.950000e-01    2.110000e+00
    C1  TC1v  1 3.950000e-01    2.500000e+00
    C1  TX1v  1 3.950000e-01    2.310000e+00
    C1  TX2v  1 3.950000e-01    2.310000e+00
    C1  TX3v  1 3.950000e-01    2.310000e+00
    C1  TX4v  1 3.950000e-01    1.850000e+00
    C1  TC1e  1 3.950000e-01    2.500000e+00
    C1  TX1e  1 3.950000e-01    2.310000e+00
    C1  TX2e  1 3.950000e-01    2.310000e+00
    C1  TX3e  1 3.950000e-01    2.310000e+00
    C1  TX4e  1 3.950000e-01    1.850000e+00
    C1  TC1q  1 3.950000e-01    2.700000e+00
    C1 TX1eq  1 3.950000e-01    2.700000e+00
    C1 TX2eq  1 3.950000e-01    2.700000e+00
    C1 TX3eq  1 3.950000e-01    2.700000e+00
    C1 TX4eq  1 3.950000e-01    2.310000e+00
    C1 TC1eq  1 3.950000e-01    2.940000e+00
    C1 TX1vq  1 3.950000e-01    2.700000e+00
    C1 TX2vq  1 3.950000e-01    2.700000e+00
    C1 TX3vq  1 3.950000e-01    2.700000e+00
    C1 TX4vq  1 3.950000e-01    2.310000e+00
    C1 TC1vq  1 3.950000e-01    2.940000e+00
    C1  TX1q  1 3.950000e-01    2.500000e+00
    C1  TX2q  1 3.950000e-01    2.500000e+00
    C1  TX3q  1 3.950000e-01    2.500000e+00
    C1  TX4q  1 3.950000e-01    2.110000e+00
    C1  TC1h  1 3.950000e-01    2.310000e+00
    C1 TX1eh  1 3.950000e-01    2.310000e+00
    C1 TX2eh  1 3.950000e-01    2.310000e+00
    C1 TX3eh  1 3.950000e-01    2.310000e+00
    C1 TX4eh  1 3.950000e-01    1.850000e+00
    C1 TC1eh  1 3.950000e-01    2.500000e+00
    C1 TX1vh  1 3.950000e-01    2.310000e+00
    C1 TX2vh  1 3.950000e-01    2.310000e+00
    C1 TX3vh  1 3.950000e-01    2.310000e+00
    C1 TX4vh  1 3.950000e-01    1.850000e+00
    C1 TC1vh  1 3.950000e-01    2.500000e+00
    C1  TX1h  1 3.950000e-01    2.110000e+00
    C1  TX2h  1 3.950000e-01    2.110000e+00
    C1  TX3h  1 3.950000e-01    2.110000e+00
    C1  TX4h  1 3.950000e-01    1.670000e+00
    C1  TC1r  1 3.950000e-01    2.310000e+00
    C1 TX1er  1 3.950000e-01    2.310000e+00
    C1 TX2er  1 3.950000e-01    2.310000e+00
    C1 TX3er  1 3.950000e-01    2.310000e+00
    C1 TX4er  1 3.950000e-01    1.850000e+00
    C1 TC1er  1 3.950000e-01    2.500000e+00
    C1 TX1vr  1 3.950000e-01    2.310000e+00
    C1 TX2vr  1 3.950000e-01    2.310000e+00
    C1 TX3vr  1 3.950000e-01    2.310000e+00
    C1 TX4vr  1 3.950000e-01    1.850000e+00
    C1 TC1vr  1 3.950000e-01    2.500000e+00
    C1  TX1r  1 3.950000e-01    2.110000e+00
    C1  TX2r  1 3.950000e-01    2.110000e+00
    C1  TX3r  1 3.950000e-01    2.110000e+00
    C1  TX4r  1 3.950000e-01    1.670000e+00
  TP6d    C1  1 4.650000e-01    7.030000e-01
  TP5d    C1  1 4.010000e-01    9.830000e-01
  TP4d    C1  1 4.010000e-01    9.830000e-01
  TP3d    C1  1 4.010000e-01    9.830000e-01
  TP2d    C1  1 3.990000e-01    1.180000e+00
  TP1d    C1  1 3.990000e-01    1.180000e+00
  TN6d    C1  1 3.980000e-01    1.450000e+00
  TN5d    C1  1 3.980000e-01    1.450000e+00
  TN4d    C1  1 3.980000e-01    1.450000e+00
  TN3d    C1  1 3.950000e-01    1.670000e+00
  TN2d    C1  1 3.950000e-01    1.670000e+00
  TN1d    C1  1 3.950000e-01    1.670000e+00
  TP6a    C1  1 4.650000e-01    7.030000e-01
  TP5a    C1  1 4.010000e-01    9.830000e-01
  TP4a    C1  1 4.010000e-01    9.830000e-01
  TP3a    C1  1 4.010000e-01    9.830000e-01
  TP2a    C1  1 3.990000e-01    1.180000e+00
  TP1a    C1  1 3.990000e-01    1.180000e+00
  TN6a    C1  1 3.980000e-01    1.450000e+00
  TN5a    C1  1 3.980000e-01    1.450000e+00
  TN4a    C1  1 3.980000e-01    1.450000e+00
  TN3a    C1  1 3.950000e-01    1.670000e+00
  TN2a    C1  1 3.950000e-01    1.670000e+00
  TN1a    C1  1 3.950000e-01    1.670000e+00
  TC6v    C1  1 3.950000e-01    1.850000e+00
  TC5v    C1  1 3.950000e-01    2.110000e+00
  TC4v    C1  1 3.950000e-01    2.110000e+00
  TC3v    C1  1 3.950000e-01    2.500000e+00
  TC2v    C1  1 3.950000e-01    2.700000e+00
  TC6e    C1  1 3.950000e-01    1.850000e+00
  TC5e    C1  1 3.950000e-01    2.110000e+00
  TC4e    C1  1 3.950000e-01    2.110000e+00
  TC3e    C1  1 3.950000e-01    2.500000e+00
  TC2e    C1  1 3.950000e-01    2.700000e+00
  TP6q    C1  1 4.010000e-01    9.830000e-01
  TP5q    C1  1 3.980000e-01    1.450000e+00
  TP4q    C1  1 3.980000e-01    1.450000e+00
  TP3q    C1  1 3.980000e-01    1.450000e+00
  TP2q    C1  1 3.950000e-01    1.670000e+00
  TP1q    C1  1 3.950000e-01    1.670000e+00
  TN6q    C1  1 3.950000e-01    1.850000e+00
  TN5q    C1  1 3.950000e-01    1.850000e+00
  TN4q    C1  1 3.950000e-01    1.850000e+00
  TN3q    C1  1 3.950000e-01    2.110000e+00
  TN2q    C1  1 3.950000e-01    2.110000e+00
  TN1q    C1  1 3.950000e-01    2.110000e+00
  TC6q    C1  1 3.950000e-01    2.110000e+00
  TC5q    C1  1 3.950000e-01    2.310000e+00
  TC4q    C1  1 3.950000e-01    2.310000e+00
  TC3q    C1  1 3.950000e-01    2.700000e+00
  TC2q    C1  1 3.950000e-01    2.940000e+00
 TC2eq    C1  1 3.950000e-01    3.190000e+00
 TC3eq    C1  1 3.950000e-01    2.940000e+00
 TC4eq    C1  1 3.950000e-01    2.500000e+00
 TC5eq    C1  1 3.950000e-01    2.500000e+00
 TC6eq    C1  1 3.950000e-01    2.310000e+00
 TC2vq    C1  1 3.950000e-01    3.190000e+00
 TC3vq    C1  1 3.950000e-01    2.940000e+00
 TC4vq    C1  1 3.950000e-01    2.500000e+00
 TC5vq    C1  1 3.950000e-01    2.500000e+00
 TC6vq    C1  1 3.950000e-01    2.310000e+00
 TN1aq    C1  1 3.950000e-01    2.110000e+00
 TN2aq    C1  1 3.950000e-01    2.110000e+00
 TN3aq    C1  1 3.950000e-01    2.110000e+00
 TN4aq    C1  1 3.950000e-01    1.850000e+00
 TN5aq    C1  1 3.950000e-01    1.850000e+00
 TN6aq    C1  1 3.950000e-01    1.850000e+00
 TP1aq    C1  1 3.950000e-01    1.670000e+00
 TP2aq    C1  1 3.950000e-01    1.670000e+00
 TP3aq    C1  1 3.980000e-01    1.450000e+00
 TP4aq    C1  1 3.980000e-01    1.450000e+00
 TP5aq    C1  1 3.980000e-01    1.450000e+00
 TP6aq    C1  1 4.010000e-01    9.830000e-01
 TN1dq    C1  1 3.950000e-01    2.110000e+00
 TN2dq    C1  1 3.950000e-01    2.110000e+00
 TN3dq    C1  1 3.950000e-01    2.110000e+00
 TN4dq    C1  1 3.950000e-01    1.850000e+00
 TN5dq    C1  1 3.950000e-01    1.850000e+00
 TN6dq    C1  1 3.950000e-01    1.850000e+00
 TP1dq    C1  1 3.950000e-01    1.670000e+00
 TP2dq    C1  1 3.950000e-01    1.670000e+00
 TP3dq    C1  1 3.980000e-01    1.450000e+00
 TP4dq    C1  1 3.980000e-01    1.450000e+00
 TP5dq    C1  1 3.980000e-01    1.450000e+00
 TP6dq    C1  1 4.010000e-01    9.830000e-01
  TP6h    C1  1 4.650000e-01    7.030000e-01
  TP5h    C1  1 4.010000e-01    9.830000e-01
  TP4h    C1  1 4.010000e-01    9.830000e-01
  TP3h    C1  1 4.010000e-01    9.830000e-01
  TP2h    C1  1 3.990000e-01    1.180000e+00
  TP1h    C1  1 3.990000e-01    1.180000e+00
  TN6h    C1  1 3.980000e-01    1.450000e+00
  TN5h    C1  1 3.980000e-01    1.450000e+00
  TN4h    C1  1 3.980000e-01    1.450000e+00
  TN3h    C1  1 3.950000e-01    1.670000e+00
  TN2h    C1  1 3.950000e-01    1.670000e+00
  TN1h    C1  1 3.950000e-01    1.670000e+00
  TC6h    C1  1 3.950000e-01    1.670000e+00
  TC5h    C1  1 3.950000e-01    1.850000e+00
  TC4h    C1  1 3.950000e-01    1.850000e+00
  TC3h    C1  1 3.950000e-01    2.310000e+00
  TC2h    C1  1 3.950000e-01    2.500000e+00
 TC2eh    C1  1 3.950000e-01    2.700000e+00
 TC3eh    C1  1 3.950000e-01    2.500000e+00
 TC4eh    C1  1 3.950000e-01    2.110000e+00
 TC5eh    C1  1 3.950000e-01    2.110000e+00
 TC6eh    C1  1 3.950000e-01    1.850000e+00
 TC2vh    C1  1 3.950000e-01    2.700000e+00
 TC3vh    C1  1 3.950000e-01    2.500000e+00
 TC4vh    C1  1 3.950000e-01    2.110000e+00
 TC5vh    C1  1 3.950000e-01    2.110000e+00
 TC6vh    C1  1 3.950000e-01    1.850000e+00
 TN1ah    C1  1 3.950000e-01    1.670000e+00
 TN2ah    C1  1 3.950000e-01    1.670000e+00
 TN3ah    C1  1 3.950000e-01    1.670000e+00
 TN4ah    C1  1 3.980000e-01    1.450000e+00
 TN5ah    C1  1 3.980000e-01    1.450000e+00
 TN6ah    C1  1 3.980000e-01    1.450000e+00
 TP1ah    C1  1 3.990000e-01    1.180000e+00
 TP2ah    C1  1 3.990000e-01    1.180000e+00
 TP3ah    C1  1 4.010000e-01    9.830000e-01
 TP4ah    C1  1 4.010000e-01    9.830000e-01
 TP5ah    C1  1 4.010000e-01    9.830000e-01
 TP6ah    C1  1 4.650000e-01    7.030000e-01
 TN1dh    C1  1 3.950000e-01    1.670000e+00
 TN2dh    C1  1 3.950000e-01    1.670000e+00
 TN3dh    C1  1 3.950000e-01    1.670000e+00
 TN4dh    C1  1 3.980000e-01    1.450000e+00
 TN5dh    C1  1 3.980000e-01    1.450000e+00
 TN6dh    C1  1 3.980000e-01    1.450000e+00
 TP1dh    C1  1 3.990000e-01    1.180000e+00
 TP2dh    C1  1 3.990000e-01    1.180000e+00
 TP3dh    C1  1 4.010000e-01    9.830000e-01
 TP4dh    C1  1 4.010000e-01    9.830000e-01
 TP5dh    C1  1 4.010000e-01    9.830000e-01
 TP6dh    C1  1 4.650000e-01    7.030000e-01
  TP6r    C1  1 4.650000e-01    7.030000e-01
  TP5r    C1  1 4.010000e-01    9.830000e-01
  TP4r    C1  1 4.010000e-01    9.830000e-01
  TP3r    C1  1 4.010000e-01    9.830000e-01
  TP2r    C1  1 3.990000e-01    1.180000e+00
  TP1r    C1  1 3.990000e-01    1.180000e+00
  TN6r    C1  1 3.980000e-01    1.450000e+00
  TN5r    C1  1 3.980000e-01    1.450000e+00
  TN4r    C1  1 3.980000e-01    1.450000e+00
  TN3r    C1  1 3.950000e-01    1.670000e+00
  TN2r    C1  1 3.950000e-01    1.670000e+00
  TN1r    C1  1 3.950000e-01    1.670000e+00
  TC6r    C1  1 3.950000e-01    1.670000e+00
  TC5r    C1  1 3.950000e-01    1.850000e+00
  TC4r    C1  1 3.950000e-01    1.850000e+00
  TC3r    C1  1 3.950000e-01    2.310000e+00
  TC2r    C1  1 3.950000e-01    2.500000e+00
 TC2er    C1  1 3.950000e-01    2.700000e+00
 TC3er    C1  1 3.950000e-01    2.500000e+00
 TC4er    C1  1 3.950000e-01    2.110000e+00
 TC5er    C1  1 3.950000e-01    2.110000e+00
 TC6er    C1  1 3.950000e-01    1.850000e+00
 TC2vr    C1  1 3.950000e-01    2.700000e+00
 TC3vr    C1  1 3.950000e-01    2.500000e+00
 TC4vr    C1  1 3.950000e-01    2.110000e+00
 TC5vr    C1  1 3.950000e-01    2.110000e+00
 TC6vr    C1  1 3.950000e-01    1.850000e+00
 TN1ar    C1  1 3.950000e-01    1.670000e+00
 TN2ar    C1  1 3.950000e-01    1.670000e+00
 TN3ar    C1  1 3.950000e-01    1.670000e+00
 TN4ar    C1  1 3.980000e-01    1.450000e+00
 TN5ar    C1  1 3.980000e-01    1.450000e+00
 TN6ar    C1  1 3.980000e-01    1.450000e+00
 TP1ar    C1  1 3.990000e-01    1.180000e+00
 TP2ar    C1  1 3.990000e-01    1.180000e+00
 TP3ar    C1  1 4.010000e-01    9.830000e-01
 TP4ar    C1  1 4.010000e-01    9.830000e-01
 TP5ar    C1  1 4.010000e-01    9.830000e-01
 TP6ar    C1  1 4.650000e-01    7.030000e-01
 TN1dr    C1  1 3.950000e-01    1.670000e+00
 TN2dr    C1  1 3.950000e-01    1.670000e+00
 TN3dr    C1  1 3.950000e-01    1.670000e+00
 TN4dr    C1  1 3.980000e-01    1.450000e+00
 TN5dr    C1  1 3.980000e-01    1.450000e+00
 TN6dr    C1  1 3.980000e-01    1.450000e+00
 TP1dr    C1  1 3.990000e-01    1.180000e+00
 TP2dr    C1  1 3.990000e-01    1.180000e+00
 TP3dr    C1  1 4.010000e-01    9.830000e-01
 TP4dr    C1  1 4.010000e-01    9.830000e-01
 TP5dr    C1  1 4.010000e-01    9.830000e-01
 TP6dr    C1  1 4.650000e-01    7.030000e-01
   P6d   SC1  1 4.730000e-01    1.280000e+00
   P5d   SC1  1 4.300000e-01    1.730000e+00
   P4d   SC1  1 4.300000e-01    1.730000e+00
   P3d   SC1  1 4.300000e-01    1.730000e+00
   P2d   SC1  1 4.300000e-01    1.930000e+00
   P1d   SC1  1 4.300000e-01    1.930000e+00
   N6d   SC1  1 4.300000e-01    2.160000e+00
   N5d   SC1  1 4.300000e-01    2.160000e+00
   N4d   SC1  1 4.300000e-01    2.160000e+00
   N3d   SC1  1 4.300000e-01    2.320000e+00
   N2d   SC1  1 4.300000e-01    2.320000e+00
   N1d   SC1  1 4.300000e-01    2.320000e+00
   P6a   SC1  1 4.730000e-01    1.280000e+00
   P5a   SC1  1 4.300000e-01    1.730000e+00
   P4a   SC1  1 4.300000e-01    1.730000e+00
   P3a   SC1  1 4.300000e-01    1.730000e+00
   P2a   SC1  1 4.300000e-01    1.930000e+00
   P1a   SC1  1 4.300000e-01    1.930000e+00
   N6a   SC1  1 4.300000e-01    2.160000e+00
   N5a   SC1  1 4.300000e-01    2.160000e+00
   N4a   SC1  1 4.300000e-01    2.160000e+00
   N3a   SC1  1 4.300000e-01    2.320000e+00
   N2a   SC1  1 4.300000e-01    2.320000e+00
   N1a   SC1  1 4.300000e-01    2.320000e+00
   C6v   SC1  1 4.300000e-01    2.530000e+00
   C5v   SC1  1 4.300000e-01    2.770000e+00
   C4v   SC1  1 4.300000e-01    2.770000e+00
   C3v   SC1  1 4.300000e-01    3.160000e+00
   C2v   SC1  1 4.300000e-01    3.380000e+00
   C6e   SC1  1 4.300000e-01    2.530000e+00
   C5e   SC1  1 4.300000e-01    2.770000e+00
   C4e   SC1  1 4.300000e-01    2.770000e+00
   C3e   SC1  1 4.300000e-01    3.160000e+00
   C2e   SC1  1 4.300000e-01    3.380000e+00
   P6q   SC1  1 4.300000e-01    1.730000e+00
   P5q   SC1  1 4.300000e-01    2.160000e+00
   P4q   SC1  1 4.300000e-01    2.160000e+00
   P3q   SC1  1 4.300000e-01    2.160000e+00
   P2q   SC1  1 4.300000e-01    2.320000e+00
   P1q   SC1  1 4.300000e-01    2.320000e+00
   N6q   SC1  1 4.300000e-01    2.530000e+00
   N5q   SC1  1 4.300000e-01    2.530000e+00
   N4q   SC1  1 4.300000e-01    2.530000e+00
   N3q   SC1  1 4.300000e-01    2.770000e+00
   N2q   SC1  1 4.300000e-01    2.770000e+00
   N1q   SC1  1 4.300000e-01    2.770000e+00
   C6q   SC1  1 4.300000e-01    2.770000e+00
   C5q   SC1  1 4.300000e-01    2.920000e+00
   C4q   SC1  1 4.300000e-01    2.920000e+00
   C3q   SC1  1 4.300000e-01    3.380000e+00
   C2q   SC1  1 4.300000e-01    3.590000e+00
  C2eq   SC1  1 4.300000e-01    3.770000e+00
  C3eq   SC1  1 4.300000e-01    3.590000e+00
  C4eq   SC1  1 4.300000e-01    3.160000e+00
  C5eq   SC1  1 4.300000e-01    3.160000e+00
  C6eq   SC1  1 4.300000e-01    2.920000e+00
  C2vq   SC1  1 4.300000e-01    3.770000e+00
  C3vq   SC1  1 4.300000e-01    3.590000e+00
  C4vq   SC1  1 4.300000e-01    3.160000e+00
  C5vq   SC1  1 4.300000e-01    3.160000e+00
  C6vq   SC1  1 4.300000e-01    2.920000e+00
  N1aq   SC1  1 4.300000e-01    2.770000e+00
  N2aq   SC1  1 4.300000e-01    2.770000e+00
  N3aq   SC1  1 4.300000e-01    2.770000e+00
  N4aq   SC1  1 4.300000e-01    2.530000e+00
  N5aq   SC1  1 4.300000e-01    2.530000e+00
  N6aq   SC1  1 4.300000e-01    2.530000e+00
  P1aq   SC1  1 4.300000e-01    2.320000e+00
  P2aq   SC1  1 4.300000e-01    2.320000e+00
  P3aq   SC1  1 4.300000e-01    2.160000e+00
  P4aq   SC1  1 4.300000e-01    2.160000e+00
  P5aq   SC1  1 4.300000e-01    2.160000e+00
  P6aq   SC1  1 4.300000e-01    1.730000e+00
  N1dq   SC1  1 4.300000e-01    2.770000e+00
  N2dq   SC1  1 4.300000e-01    2.770000e+00
  N3dq   SC1  1 4.300000e-01    2.770000e+00
  N4dq   SC1  1 4.300000e-01    2.530000e+00
  N5dq   SC1  1 4.300000e-01    2.530000e+00
  N6dq   SC1  1 4.300000e-01    2.530000e+00
  P1dq   SC1  1 4.300000e-01    2.320000e+00
  P2dq   SC1  1 4.300000e-01    2.320000e+00
  P3dq   SC1  1 4.300000e-01    2.160000e+00
  P4dq   SC1  1 4.300000e-01    2.160000e+00
  P5dq   SC1  1 4.300000e-01    2.160000e+00
  P6dq   SC1  1 4.300000e-01    1.730000e+00
   P6h   SC1  1 4.730000e-01    1.280000e+00
   P5h   SC1  1 4.300000e-01    1.730000e+00
   P4h   SC1  1 4.300000e-01    1.730000e+00
   P3h   SC1  1 4.300000e-01    1.730000e+00
   P2h   SC1  1 4.300000e-01    1.930000e+00
   P1h   SC1  1 4.300000e-01    1.930000e+00
   N6h   SC1  1 4.300000e-01    2.160000e+00
   N5h   SC1  1 4.300000e-01    2.160000e+00
   N4h   SC1  1 4.300000e-01    2.160000e+00
   N3h   SC1  1 4.300000e-01    2.320000e+00
   N2h   SC1  1 4.300000e-01    2.320000e+00
   N1h   SC1  1 4.300000e-01    2.320000e+00
   C6h   SC1  1 4.300000e-01    2.320000e+00
   C5h   SC1  1 4.300000e-01    2.530000e+00
   C4h   SC1  1 4.300000e-01    2.530000e+00
   C3h   SC1  1 4.300000e-01    2.920000e+00
   C2h   SC1  1 4.300000e-01    3.160000e+00
  C2eh   SC1  1 4.300000e-01    3.380000e+00
  C3eh   SC1  1 4.300000e-01    3.160000e+00
  C4eh   SC1  1 4.300000e-01    2.770000e+00
  C5eh   SC1  1 4.300000e-01    2.770000e+00
  C6eh   SC1  1 4.300000e-01    2.530000e+00
  C2vh   SC1  1 4.300000e-01    3.380000e+00
  C3vh   SC1  1 4.300000e-01    3.160000e+00
  C4vh   SC1  1 4.300000e-01    2.770000e+00
  C5vh   SC1  1 4.300000e-01    2.770000e+00
  C6vh   SC1  1 4.300000e-01    2.530000e+00
  N1ah   SC1  1 4.300000e-01    2.320000e+00
  N2ah   SC1  1 4.300000e-01    2.320000e+00
  N3ah   SC1  1 4.300000e-01    2.320000e+00
  N4ah   SC1  1 4.300000e-01    2.160000e+00
  N5ah   SC1  1 4.300000e-01    2.160000e+00
  N6ah   SC1  1 4.300000e-01    2.160000e+00
  P1ah   SC1  1 4.300000e-01    1.930000e+00
  P2ah   SC1  1 4.300000e-01    1.930000e+00
  P3ah   SC1  1 4.300000e-01    1.730000e+00
  P4ah   SC1  1 4.300000e-01    1.730000e+00
  P5ah   SC1  1 4.300000e-01    1.730000e+00
  P6ah   SC1  1 4.730000e-01    1.280000e+00
  N1dh   SC1  1 4.300000e-01    2.320000e+00
  N2dh   SC1  1 4.300000e-01    2.320000e+00
  N3dh   SC1  1 4.300000e-01    2.320000e+00
  N4dh   SC1  1 4.300000e-01    2.160000e+00
  N5dh   SC1  1 4.300000e-01    2.160000e+00
  N6dh   SC1  1 4.300000e-01    2.160000e+00
  P1dh   SC1  1 4.300000e-01    1.930000e+00
  P2dh   SC1  1 4.300000e-01    1.930000e+00
  P3dh   SC1  1 4.300000e-01    1.730000e+00
  P4dh   SC1  1 4.300000e-01    1.730000e+00
  P5dh   SC1  1 4.300000e-01    1.730000e+00
  P6dh   SC1  1 4.730000e-01    1.280000e+00
   P6r   SC1  1 4.730000e-01    1.280000e+00
   P5r   SC1  1 4.300000e-01    1.730000e+00
   P4r   SC1  1 4.300000e-01    1.730000e+00
   P3r   SC1  1 4.300000e-01    1.730000e+00
   P2r   SC1  1 4.300000e-01    1.930000e+00
   P1r   SC1  1 4.300000e-01    1.930000e+00
   N6r   SC1  1 4.300000e-01    2.160000e+00
   N5r   SC1  1 4.300000e-01    2.160000e+00
   N4r   SC1  1 4.300000e-01    2.160000e+00
   N3r   SC1  1 4.300000e-01    2.320000e+00
   N2r   SC1  1 4.300000e-01    2.320000e+00
   N1r   SC1  1 4.300000e-01    2.320000e+00
   C6r   SC1  1 4.300000e-01    2.320000e+00
   C5r   SC1  1 4.300000e-01    2.530000e+00
   C4r   SC1  1 4.300000e-01    2.530000e+00
   C3r   SC1  1 4.300000e-01    2.920000e+00
   C2r   SC1  1 4.300000e-01    3.160000e+00
  C2er   SC1  1 4.300000e-01    3.380000e+00
  C3er   SC1  1 4.300000e-01    3.160000e+00
  C4er   SC1  1 4.300000e-01    2.770000e+00
  C5er   SC1  1 4.300000e-01    2.770000e+00
  C6er   SC1  1 4.300000e-01    2.530000e+00
  C2vr   SC1  1 4.300000e-01    3.380000e+00
  C3vr   SC1  1 4.300000e-01    3.160000e+00
  C4vr   SC1  1 4.300000e-01    2.770000e+00
  C5vr   SC1  1 4.300000e-01    2.770000e+00
  C6vr   SC1  1 4.300000e-01    2.530000e+00
  N1ar   SC1  1 4.300000e-01    2.320000e+00
  N2ar   SC1  1 4.300000e-01    2.320000e+00
  N3ar   SC1  1 4.300000e-01    2.320000e+00
  N4ar   SC1  1 4.300000e-01    2.160000e+00
  N5ar   SC1  1 4.300000e-01    2.160000e+00
  N6ar   SC1  1 4.300000e-01    2.160000e+00
  P1ar   SC1  1 4.300000e-01    1.930000e+00
  P2ar   SC1  1 4.300000e-01    1.930000e+00
  P3ar   SC1  1 4.300000e-01    1.730000e+00
  P4ar   SC1  1 4.300000e-01    1.730000e+00
  P5ar   SC1  1 4.300000e-01    1.730000e+00
  P6ar   SC1  1 4.730000e-01    1.280000e+00
  N1dr   SC1  1 4.300000e-01    2.320000e+00
  N2dr   SC1  1 4.300000e-01    2.320000e+00
  N3dr   SC1  1 4.300000e-01    2.320000e+00
  N4dr   SC1  1 4.300000e-01    2.160000e+00
  N5dr   SC1  1 4.300000e-01    2.160000e+00
  N6dr   SC1  1 4.300000e-01    2.160000e+00
  P1dr   SC1  1 4.300000e-01    1.930000e+00
  P2dr   SC1  1 4.300000e-01    1.930000e+00
  P3dr   SC1  1 4.300000e-01    1.730000e+00
  P4dr   SC1  1 4.300000e-01    1.730000e+00
  P5dr   SC1  1 4.300000e-01    1.730000e+00
  P6dr   SC1  1 4.730000e-01    1.280000e+00
   SC1    X4  1 4.300000e-01    2.320000e+00
   SC1    X3  1 4.300000e-01    2.770000e+00
   SC1    X2  1 4.300000e-01    2.770000e+00
   SC1    X1  1 4.300000e-01    2.770000e+00
   SC1   C1v  1 4.300000e-01    3.160000e+00
   SC1   X1v  1 4.300000e-01    2.920000e+00
   SC1   X2v  1 4.300000e-01    2.920000e+00
   SC1   X3v  1 4.300000e-01    2.920000e+00
   SC1   X4v  1 4.300000e-01    2.530000e+00
   SC1   C1e  1 4.300000e-01    3.160000e+00
   SC1   X1e  1 4.300000e-01    2.920000e+00
   SC1   X2e  1 4.300000e-01    2.920000e+00
   SC1   X3e  1 4.300000e-01    2.920000e+00
   SC1   X4e  1 4.300000e-01    2.530000e+00
   SC1   C1q  1 4.300000e-01    3.380000e+00
   SC1  X1eq  1 4.300000e-01    3.380000e+00
   SC1  X2eq  1 4.300000e-01    3.380000e+00
   SC1  X3eq  1 4.300000e-01    3.380000e+00
   SC1  X4eq  1 4.300000e-01    2.920000e+00
   SC1  C1eq  1 4.300000e-01    3.590000e+00
   SC1  X1vq  1 4.300000e-01    3.380000e+00
   SC1  X2vq  1 4.300000e-01    3.380000e+00
   SC1  X3vq  1 4.300000e-01    3.380000e+00
   SC1  X4vq  1 4.300000e-01    2.920000e+00
   SC1  C1vq  1 4.300000e-01    3.590000e+00
   SC1   X1q  1 4.300000e-01    3.160000e+00
   SC1   X2q  1 4.300000e-01    3.160000e+00
   SC1   X3q  1 4.300000e-01    3.160000e+00
   SC1   X4q  1 4.300000e-01    2.770000e+00
   SC1   C1h  1 4.300000e-01    2.920000e+00
   SC1  X1eh  1 4.300000e-01    2.920000e+00
   SC1  X2eh  1 4.300000e-01    2.920000e+00
   SC1  X3eh  1 4.300000e-01    2.920000e+00
   SC1  X4eh  1 4.300000e-01    2.530000e+00
   SC1  C1eh  1 4.300000e-01    3.160000e+00
   SC1  X1vh  1 4.300000e-01    2.920000e+00
   SC1  X2vh  1 4.300000e-01    2.920000e+00
   SC1  X3vh  1 4.300000e-01    2.920000e+00
   SC1  X4vh  1 4.300000e-01    2.530000e+00
   SC1  C1vh  1 4.300000e-01    3.160000e+00
   SC1   X1h  1 4.300000e-01    2.770000e+00
   SC1   X2h  1 4.300000e-01    2.770000e+00
   SC1   X3h  1 4.300000e-01    2.770000e+00
   SC1   X4h  1 4.300000e-01    2.320000e+00
   SC1   C1r  1 4.300000e-01    2.920000e+00
   SC1  X1er  1 4.300000e-01    2.920000e+00
   SC1  X2er  1 4.300000e-01    2.920000e+00
   SC1  X3er  1 4.300000e-01    2.920000e+00
   SC1  X4er  1 4.300000e-01    2.530000e+00
   SC1  C1er  1 4.300000e-01    3.160000e+00
   SC1  X1vr  1 4.300000e-01    2.920000e+00
   SC1  X2vr  1 4.300000e-01    2.920000e+00
   SC1  X3vr  1 4.300000e-01    2.920000e+00
   SC1  X4vr  1 4.300000e-01    2.530000e+00
   SC1  C1vr  1 4.300000e-01    3.160000e+00
   SC1   X1r  1 4.300000e-01    2.770000e+00
   SC1   X2r  1 4.300000e-01    2.770000e+00
   SC1   X3r  1 4.300000e-01    2.770000e+00
   SC1   X4r  1 4.300000e-01    2.320000e+00
   SC1   SC1  1 4.100000e-01    2.350000e+00
   SC1   SX4  1 4.100000e-01    1.910000e+00
   SC1   SX3  1 4.100000e-01    2.200000e+00
   SC1   SX2  1 4.100000e-01    2.200000e+00
   SC1   SX1  1 4.100000e-01    2.200000e+00
  SP6d   SC1  1 4.530000e-01    1.150000e+00
  SP5d   SC1  1 4.180000e-01    1.400000e+00
  SP4d   SC1  1 4.180000e-01    1.400000e+00
  SP3d   SC1  1 4.180000e-01    1.400000e+00
  SP2d   SC1  1 4.140000e-01    1.560000e+00
  SP1d   SC1  1 4.140000e-01    1.560000e+00
  SN6d   SC1  1 4.100000e-01    1.750000e+00
  SN5d   SC1  1 4.100000e-01    1.750000e+00
  SN4d   SC1  1 4.100000e-01    1.750000e+00
  SN3d   SC1  1 4.100000e-01    1.910000e+00
  SN2d   SC1  1 4.100000e-01    1.910000e+00
  SN1d   SC1  1 4.100000e-01    1.910000e+00
  SP6a   SC1  1 4.530000e-01    1.150000e+00
  SP5a   SC1  1 4.180000e-01    1.400000e+00
  SP4a   SC1  1 4.180000e-01    1.400000e+00
  SP3a   SC1  1 4.180000e-01    1.400000e+00
  SP2a   SC1  1 4.140000e-01    1.560000e+00
  SP1a   SC1  1 4.140000e-01    1.560000e+00
  SN6a   SC1  1 4.100000e-01    1.750000e+00
  SN5a   SC1  1 4.100000e-01    1.750000e+00
  SN4a   SC1  1 4.100000e-01    1.750000e+00
  SN3a   SC1  1 4.100000e-01    1.910000e+00
  SN2a   SC1  1 4.100000e-01    1.910000e+00
  SN1a   SC1  1 4.100000e-01    1.910000e+00
  SC6v   SC1  1 4.100000e-01    2.040000e+00
  SC5v   SC1  1 4.100000e-01    2.200000e+00
  SC4v   SC1  1 4.100000e-01    2.200000e+00
  SC3v   SC1  1 4.100000e-01    2.600000e+00
  SC2v   SC1  1 4.100000e-01    2.840000e+00
   SC1  SC1v  1 4.100000e-01    2.600000e+00
   SC1  SX1v  1 4.100000e-01    2.350000e+00
   SC1  SX2v  1 4.100000e-01    2.350000e+00
   SC1  SX3v  1 4.100000e-01    2.350000e+00
   SC1  SX4v  1 4.100000e-01    2.040000e+00
  SC6e   SC1  1 4.100000e-01    2.040000e+00
  SC5e   SC1  1 4.100000e-01    2.200000e+00
  SC4e   SC1  1 4.100000e-01    2.200000e+00
  SC3e   SC1  1 4.100000e-01    2.600000e+00
  SC2e   SC1  1 4.100000e-01    2.840000e+00
   SC1  SC1e  1 4.100000e-01    2.600000e+00
   SC1  SX1e  1 4.100000e-01    2.350000e+00
   SC1  SX2e  1 4.100000e-01    2.350000e+00
   SC1  SX3e  1 4.100000e-01    2.350000e+00
   SC1  SX4e  1 4.100000e-01    2.040000e+00
  SP6q   SC1  1 4.180000e-01    1.400000e+00
  SP5q   SC1  1 4.100000e-01    1.750000e+00
  SP4q   SC1  1 4.100000e-01    1.750000e+00
  SP3q   SC1  1 4.100000e-01    1.750000e+00
  SP2q   SC1  1 4.100000e-01    1.910000e+00
  SP1q   SC1  1 4.100000e-01    1.910000e+00
  SN6q   SC1  1 4.100000e-01    2.040000e+00
  SN5q   SC1  1 4.100000e-01    2.040000e+00
  SN4q   SC1  1 4.100000e-01    2.040000e+00
  SN3q   SC1  1 4.100000e-01    2.200000e+00
  SN2q   SC1  1 4.100000e-01    2.200000e+00
  SN1q   SC1  1 4.100000e-01    2.200000e+00
  SC6q   SC1  1 4.100000e-01    2.200000e+00
  SC5q   SC1  1 4.100000e-01    2.350000e+00
  SC4q   SC1  1 4.100000e-01    2.350000e+00
  SC3q   SC1  1 4.100000e-01    2.840000e+00
  SC2q   SC1  1 4.100000e-01    3.070000e+00
   SC1  SC1q  1 4.100000e-01    2.840000e+00
   SC1 SX1eq  1 4.100000e-01    2.840000e+00
   SC1 SX2eq  1 4.100000e-01    2.840000e+00
   SC1 SX3eq  1 4.100000e-01    2.840000e+00
   SC1 SX4eq  1 4.100000e-01    2.350000e+00
   SC1 SC1eq  1 4.100000e-01    3.070000e+00
 SC2eq   SC1  1 4.100000e-01    3.310000e+00
 SC3eq   SC1  1 4.100000e-01    3.070000e+00
 SC4eq   SC1  1 4.100000e-01    2.600000e+00
 SC5eq   SC1  1 4.100000e-01    2.600000e+00
 SC6eq   SC1  1 4.100000e-01    2.350000e+00
   SC1 SX1vq  1 4.100000e-01    2.840000e+00
   SC1 SX2vq  1 4.100000e-01    2.840000e+00
   SC1 SX3vq  1 4.100000e-01    2.840000e+00
   SC1 SX4vq  1 4.100000e-01    2.350000e+00
   SC1 SC1vq  1 4.100000e-01    3.070000e+00
 SC2vq   SC1  1 4.100000e-01    3.310000e+00
 SC3vq   SC1  1 4.100000e-01    3.070000e+00
 SC4vq   SC1  1 4.100000e-01    2.600000e+00
 SC5vq   SC1  1 4.100000e-01    2.600000e+00
 SC6vq   SC1  1 4.100000e-01    2.350000e+00
 SN1aq   SC1  1 4.100000e-01    2.200000e+00
 SN2aq   SC1  1 4.100000e-01    2.200000e+00
 SN3aq   SC1  1 4.100000e-01    2.200000e+00
 SN4aq   SC1  1 4.100000e-01    2.040000e+00
 SN5aq   SC1  1 4.100000e-01    2.040000e+00
 SN6aq   SC1  1 4.100000e-01    2.040000e+00
 SP1aq   SC1  1 4.100000e-01    1.910000e+00
 SP2aq   SC1  1 4.100000e-01    1.910000e+00
 SP3aq   SC1  1 4.100000e-01    1.750000e+00
 SP4aq   SC1  1 4.100000e-01    1.750000e+00
 SP5aq   SC1  1 4.100000e-01    1.750000e+00
 SP6aq   SC1  1 4.180000e-01    1.400000e+00
 SN1dq   SC1  1 4.100000e-01    2.200000e+00
 SN2dq   SC1  1 4.100000e-01    2.200000e+00
 SN3dq   SC1  1 4.100000e-01    2.200000e+00
 SN4dq   SC1  1 4.100000e-01    2.040000e+00
 SN5dq   SC1  1 4.100000e-01    2.040000e+00
 SN6dq   SC1  1 4.100000e-01    2.040000e+00
 SP1dq   SC1  1 4.100000e-01    1.910000e+00
 SP2dq   SC1  1 4.100000e-01    1.910000e+00
 SP3dq   SC1  1 4.100000e-01    1.750000e+00
 SP4dq   SC1  1 4.100000e-01    1.750000e+00
 SP5dq   SC1  1 4.100000e-01    1.750000e+00
 SP6dq   SC1  1 4.180000e-01    1.400000e+00
   SC1  SX1q  1 4.100000e-01    2.600000e+00
   SC1  SX2q  1 4.100000e-01    2.600000e+00
   SC1  SX3q  1 4.100000e-01    2.600000e+00
   SC1  SX4q  1 4.100000e-01    2.200000e+00
  SP6h   SC1  1 4.530000e-01    1.150000e+00
  SP5h   SC1  1 4.180000e-01    1.400000e+00
  SP4h   SC1  1 4.180000e-01    1.400000e+00
  SP3h   SC1  1 4.180000e-01    1.400000e+00
  SP2h   SC1  1 4.140000e-01    1.560000e+00
  SP1h   SC1  1 4.140000e-01    1.560000e+00
  SN6h   SC1  1 4.100000e-01    1.750000e+00
  SN5h   SC1  1 4.100000e-01    1.750000e+00
  SN4h   SC1  1 4.100000e-01    1.750000e+00
  SN3h   SC1  1 4.100000e-01    1.910000e+00
  SN2h   SC1  1 4.100000e-01    1.910000e+00
  SN1h   SC1  1 4.100000e-01    1.910000e+00
  SC6h   SC1  1 4.100000e-01    1.910000e+00
  SC5h   SC1  1 4.100000e-01    2.040000e+00
  SC4h   SC1  1 4.100000e-01    2.040000e+00
  SC3h   SC1  1 4.100000e-01    2.350000e+00
  SC2h   SC1  1 4.100000e-01    2.600000e+00
   SC1  SC1h  1 4.100000e-01    2.350000e+00
   SC1 SX1eh  1 4.100000e-01    2.350000e+00
   SC1 SX2eh  1 4.100000e-01    2.350000e+00
   SC1 SX3eh  1 4.100000e-01    2.350000e+00
   SC1 SX4eh  1 4.100000e-01    2.040000e+00
   SC1 SC1eh  1 4.100000e-01    2.600000e+00
 SC2eh   SC1  1 4.100000e-01    2.840000e+00
 SC3eh   SC1  1 4.100000e-01    2.600000e+00
 SC4eh   SC1  1 4.100000e-01    2.200000e+00
 SC5eh   SC1  1 4.100000e-01    2.200000e+00
 SC6eh   SC1  1 4.100000e-01    2.040000e+00
   SC1 SX1vh  1 4.100000e-01    2.350000e+00
   SC1 SX2vh  1 4.100000e-01    2.350000e+00
   SC1 SX3vh  1 4.100000e-01    2.350000e+00
   SC1 SX4vh  1 4.100000e-01    2.040000e+00
   SC1 SC1vh  1 4.100000e-01    2.600000e+00
 SC2vh   SC1  1 4.100000e-01    2.840000e+00
 SC3vh   SC1  1 4.100000e-01    2.600000e+00
 SC4vh   SC1  1 4.100000e-01    2.200000e+00
 SC5vh   SC1  1 4.100000e-01    2.200000e+00
 SC6vh   SC1  1 4.100000e-01    2.040000e+00
 SN1ah   SC1  1 4.100000e-01    1.910000e+00
 SN2ah   SC1  1 4.100000e-01    1.910000e+00
 SN3ah   SC1  1 4.100000e-01    1.910000e+00
 SN4ah   SC1  1 4.100000e-01    1.750000e+00
 SN5ah   SC1  1 4.100000e-01    1.750000e+00
 SN6ah   SC1  1 4.100000e-01    1.750000e+00
 SP1ah   SC1  1 4.140000e-01    1.560000e+00
 SP2ah   SC1  1 4.140000e-01    1.560000e+00
 SP3ah   SC1  1 4.180000e-01    1.400000e+00
 SP4ah   SC1  1 4.180000e-01    1.400000e+00
 SP5ah   SC1  1 4.180000e-01    1.400000e+00
 SP6ah   SC1  1 4.530000e-01    1.150000e+00
 SN1dh   SC1  1 4.100000e-01    1.910000e+00
 SN2dh   SC1  1 4.100000e-01    1.910000e+00
 SN3dh   SC1  1 4.100000e-01    1.910000e+00
 SN4dh   SC1  1 4.100000e-01    1.750000e+00
 SN5dh   SC1  1 4.100000e-01    1.750000e+00
 SN6dh   SC1  1 4.100000e-01    1.750000e+00
 SP1dh   SC1  1 4.140000e-01    1.560000e+00
 SP2dh   SC1  1 4.140000e-01    1.560000e+00
 SP3dh   SC1  1 4.180000e-01    1.400000e+00
 SP4dh   SC1  1 4.180000e-01    1.400000e+00
 SP5dh   SC1  1 4.180000e-01    1.400000e+00
 SP6dh   SC1  1 4.530000e-01    1.150000e+00
   SC1  SX1h  1 4.100000e-01    2.200000e+00
   SC1  SX2h  1 4.100000e-01    2.200000e+00
   SC1  SX3h  1 4.100000e-01    2.200000e+00
   SC1  SX4h  1 4.100000e-01    1.910000e+00
  SP6r   SC1  1 4.530000e-01    1.150000e+00
  SP5r   SC1  1 4.180000e-01    1.400000e+00
  SP4r   SC1  1 4.180000e-01    1.400000e+00
  SP3r   SC1  1 4.180000e-01    1.400000e+00
  SP2r   SC1  1 4.140000e-01    1.560000e+00
  SP1r   SC1  1 4.140000e-01    1.560000e+00
  SN6r   SC1  1 4.100000e-01    1.750000e+00
  SN5r   SC1  1 4.100000e-01    1.750000e+00
  SN4r   SC1  1 4.100000e-01    1.750000e+00
  SN3r   SC1  1 4.100000e-01    1.910000e+00
  SN2r   SC1  1 4.100000e-01    1.910000e+00
  SN1r   SC1  1 4.100000e-01    1.910000e+00
  SC6r   SC1  1 4.100000e-01    1.910000e+00
  SC5r   SC1  1 4.100000e-01    2.040000e+00
  SC4r   SC1  1 4.100000e-01    2.040000e+00
  SC3r   SC1  1 4.100000e-01    2.350000e+00
  SC2r   SC1  1 4.100000e-01    2.600000e+00
   SC1  SC1r  1 4.100000e-01    2.350000e+00
   SC1 SX1er  1 4.100000e-01    2.350000e+00
   SC1 SX2er  1 4.100000e-01    2.350000e+00
   SC1 SX3er  1 4.100000e-01    2.350000e+00
   SC1 SX4er  1 4.100000e-01    2.040000e+00
   SC1 SC1er  1 4.100000e-01    2.600000e+00
 SC2er   SC1  1 4.100000e-01    2.840000e+00
 SC3er   SC1  1 4.100000e-01    2.600000e+00
 SC4er   SC1  1 4.100000e-01    2.200000e+00
 SC5er   SC1  1 4.100000e-01    2.200000e+00
 SC6er   SC1  1 4.100000e-01    2.040000e+00
   SC1 SX1vr  1 4.100000e-01    2.350000e+00
   SC1 SX2vr  1 4.100000e-01    2.350000e+00
   SC1 SX3vr  1 4.100000e-01    2.350000e+00
   SC1 SX4vr  1 4.100000e-01    2.040000e+00
   SC1 SC1vr  1 4.100000e-01    2.600000e+00
 SC2vr   SC1  1 4.100000e-01    2.840000e+00
 SC3vr   SC1  1 4.100000e-01    2.600000e+00
 SC4vr   SC1  1 4.100000e-01    2.200000e+00
 SC5vr   SC1  1 4.100000e-01    2.200000e+00
 SC6vr   SC1  1 4.100000e-01    2.040000e+00
 SN1ar   SC1  1 4.100000e-01    1.910000e+00
 SN2ar   SC1  1 4.100000e-01    1.910000e+00
 SN3ar   SC1  1 4.100000e-01    1.910000e+00
 SN4ar   SC1  1 4.100000e-01    1.750000e+00
 SN5ar   SC1  1 4.100000e-01    1.750000e+00
 SN6ar   SC1  1 4.100000e-01    1.750000e+00
 SP1ar   SC1  1 4.140000e-01    1.560000e+00
 SP2ar   SC1  1 4.140000e-01    1.560000e+00
 SP3ar   SC1  1 4.180000e-01    1.400000e+00
 SP4ar   SC1  1 4.180000e-01    1.400000e+00
 SP5ar   SC1  1 4.180000e-01    1.400000e+00
 SP6ar   SC1  1 4.530000e-01    1.150000e+00
 SN1dr   SC1  1 4.100000e-01    1.910000e+00
 SN2dr   SC1  1 4.100000e-01    1.910000e+00
 SN3dr   SC1  1 4.100000e-01    1.910000e+00
 SN4dr   SC1  1 4.100000e-01    1.750000e+00
 SN5dr   SC1  1 4.100000e-01    1.750000e+00
 SN6dr   SC1  1 4.100000e-01    1.750000e+00
 SP1dr   SC1  1 4.140000e-01    1.560000e+00
 SP2dr   SC1  1 4.140000e-01    1.560000e+00
 SP3dr   SC1  1 4.180000e-01    1.400000e+00
 SP4dr   SC1  1 4.180000e-01    1.400000e+00
 SP5dr   SC1  1 4.180000e-01    1.400000e+00
 SP6dr   SC1  1 4.530000e-01    1.150000e+00
   SC1  SX1r  1 4.100000e-01    2.200000e+00
   SC1  SX2r  1 4.100000e-01    2.200000e+00
   SC1  SX3r  1 4.100000e-01    2.200000e+00
   SC1  SX4r  1 4.100000e-01    1.910000e+00
   SC1   TC1  1 3.650000e-01    1.910000e+00
   SC1   TX4  1 3.780000e-01    1.450000e+00
   SC1   TX3  1 3.650000e-01    1.750000e+00
   SC1   TX2  1 3.650000e-01    1.750000e+00
   SC1   TX1  1 3.650000e-01    1.750000e+00
   SC1  TC1v  1 3.650000e-01    2.110000e+00
   SC1  TX1v  1 3.650000e-01    1.910000e+00
   SC1  TX2v  1 3.650000e-01    1.910000e+00
   SC1  TX3v  1 3.650000e-01    1.910000e+00
   SC1  TX4v  1 3.660000e-01    1.600000e+00
   SC1  TC1e  1 3.650000e-01    2.110000e+00
   SC1  TX1e  1 3.650000e-01    1.910000e+00
   SC1  TX2e  1 3.650000e-01    1.910000e+00
   SC1  TX3e  1 3.650000e-01    1.910000e+00
   SC1  TX4e  1 3.660000e-01    1.600000e+00
   SC1  TC1q  1 3.650000e-01    2.340000e+00
   SC1 TX1eq  1 3.650000e-01    2.340000e+00
   SC1 TX2eq  1 3.650000e-01    2.340000e+00
   SC1 TX3eq  1 3.650000e-01    2.340000e+00
   SC1 TX4eq  1 3.650000e-01    1.910000e+00
   SC1 TC1eq  1 3.650000e-01    2.570000e+00
   SC1 TX1vq  1 3.650000e-01    2.340000e+00
   SC1 TX2vq  1 3.650000e-01    2.340000e+00
   SC1 TX3vq  1 3.650000e-01    2.340000e+00
   SC1 TX4vq  1 3.650000e-01    1.910000e+00
   SC1 TC1vq  1 3.650000e-01    2.570000e+00
   SC1  TX1q  1 3.650000e-01    2.110000e+00
   SC1  TX2q  1 3.650000e-01    2.110000e+00
   SC1  TX3q  1 3.650000e-01    2.110000e+00
   SC1  TX4q  1 3.650000e-01    1.750000e+00
   SC1  TC1h  1 3.650000e-01    1.910000e+00
   SC1 TX1eh  1 3.650000e-01    1.910000e+00
   SC1 TX2eh  1 3.650000e-01    1.910000e+00
   SC1 TX3eh  1 3.650000e-01    1.910000e+00
   SC1 TX4eh  1 3.660000e-01    1.600000e+00
   SC1 TC1eh  1 3.650000e-01    2.110000e+00
   SC1 TX1vh  1 3.650000e-01    1.910000e+00
   SC1 TX2vh  1 3.650000e-01    1.910000e+00
   SC1 TX3vh  1 3.650000e-01    1.910000e+00
   SC1 TX4vh  1 3.660000e-01    1.600000e+00
   SC1 TC1vh  1 3.650000e-01    2.110000e+00
   SC1  TX1h  1 3.650000e-01    1.750000e+00
   SC1  TX2h  1 3.650000e-01    1.750000e+00
   SC1  TX3h  1 3.650000e-01    1.750000e+00
   SC1  TX4h  1 3.780000e-01    1.450000e+00
   SC1  TC1r  1 3.650000e-01    1.910000e+00
   SC1 TX1er  1 3.650000e-01    1.910000e+00
   SC1 TX2er  1 3.650000e-01    1.910000e+00
   SC1 TX3er  1 3.650000e-01    1.910000e+00
   SC1 TX4er  1 3.660000e-01    1.600000e+00
   SC1 TC1er  1 3.650000e-01    2.110000e+00
   SC1 TX1vr  1 3.650000e-01    1.910000e+00
   SC1 TX2vr  1 3.650000e-01    1.910000e+00
   SC1 TX3vr  1 3.650000e-01    1.910000e+00
   SC1 TX4vr  1 3.660000e-01    1.600000e+00
   SC1 TC1vr  1 3.650000e-01    2.110000e+00
   SC1  TX1r  1 3.650000e-01    1.750000e+00
   SC1  TX2r  1 3.650000e-01    1.750000e+00
   SC1  TX3r  1 3.650000e-01    1.750000e+00
   SC1  TX4r  1 3.780000e-01    1.450000e+00
  TP6d   SC1  1 4.840000e-01    8.900000e-01
  TP5d   SC1  1 4.090000e-01    1.080000e+00
  TP4d   SC1  1 4.090000e-01    1.080000e+00
  TP3d   SC1  1 4.090000e-01    1.080000e+00
  TP2d   SC1  1 4.040000e-01    1.130000e+00
  TP1d   SC1  1 4.040000e-01    1.130000e+00
  TN6d   SC1  1 3.940000e-01    1.290000e+00
  TN5d   SC1  1 3.940000e-01    1.290000e+00
  TN4d   SC1  1 3.940000e-01    1.290000e+00
  TN3d   SC1  1 3.780000e-01    1.450000e+00
  TN2d   SC1  1 3.780000e-01    1.450000e+00
  TN1d   SC1  1 3.780000e-01    1.450000e+00
  TP6a   SC1  1 4.840000e-01    8.900000e-01
  TP5a   SC1  1 4.090000e-01    1.080000e+00
  TP4a   SC1  1 4.090000e-01    1.080000e+00
  TP3a   SC1  1 4.090000e-01    1.080000e+00
  TP2a   SC1  1 4.040000e-01    1.130000e+00
  TP1a   SC1  1 4.040000e-01    1.130000e+00
  TN6a   SC1  1 3.940000e-01    1.290000e+00
  TN5a   SC1  1 3.940000e-01    1.290000e+00
  TN4a   SC1  1 3.940000e-01    1.290000e+00
  TN3a   SC1  1 3.780000e-01    1.450000e+00
  TN2a   SC1  1 3.780000e-01    1.450000e+00
  TN1a   SC1  1 3.780000e-01    1.450000e+00
  TC6v   SC1  1 3.660000e-01    1.600000e+00
  TC5v   SC1  1 3.650000e-01    1.750000e+00
  TC4v   SC1  1 3.650000e-01    1.750000e+00
  TC3v   SC1  1 3.650000e-01    2.110000e+00
  TC2v   SC1  1 3.650000e-01    2.340000e+00
  TC6e   SC1  1 3.660000e-01    1.600000e+00
  TC5e   SC1  1 3.650000e-01    1.750000e+00
  TC4e   SC1  1 3.650000e-01    1.750000e+00
  TC3e   SC1  1 3.650000e-01    2.110000e+00
  TC2e   SC1  1 3.650000e-01    2.340000e+00
  TP6q   SC1  1 4.090000e-01    1.080000e+00
  TP5q   SC1  1 3.940000e-01    1.290000e+00
  TP4q   SC1  1 3.940000e-01    1.290000e+00
  TP3q   SC1  1 3.940000e-01    1.290000e+00
  TP2q   SC1  1 3.780000e-01    1.450000e+00
  TP1q   SC1  1 3.780000e-01    1.450000e+00
  TN6q   SC1  1 3.660000e-01    1.600000e+00
  TN5q   SC1  1 3.660000e-01    1.600000e+00
  TN4q   SC1  1 3.660000e-01    1.600000e+00
  TN3q   SC1  1 3.650000e-01    1.750000e+00
  TN2q   SC1  1 3.650000e-01    1.750000e+00
  TN1q   SC1  1 3.650000e-01    1.750000e+00
  TC6q   SC1  1 3.650000e-01    1.750000e+00
  TC5q   SC1  1 3.650000e-01    1.910000e+00
  TC4q   SC1  1 3.650000e-01    1.910000e+00
  TC3q   SC1  1 3.650000e-01    2.340000e+00
  TC2q   SC1  1 3.650000e-01    2.570000e+00
 TC2eq   SC1  1 3.650000e-01    2.830000e+00
 TC3eq   SC1  1 3.650000e-01    2.570000e+00
 TC4eq   SC1  1 3.650000e-01    2.110000e+00
 TC5eq   SC1  1 3.650000e-01    2.110000e+00
 TC6eq   SC1  1 3.650000e-01    1.910000e+00
 TC2vq   SC1  1 3.650000e-01    2.830000e+00
 TC3vq   SC1  1 3.650000e-01    2.570000e+00
 TC4vq   SC1  1 3.650000e-01    2.110000e+00
 TC5vq   SC1  1 3.650000e-01    2.110000e+00
 TC6vq   SC1  1 3.650000e-01    1.910000e+00
 TN1aq   SC1  1 3.650000e-01    1.750000e+00
 TN2aq   SC1  1 3.650000e-01    1.750000e+00
 TN3aq   SC1  1 3.650000e-01    1.750000e+00
 TN4aq   SC1  1 3.660000e-01    1.600000e+00
 TN5aq   SC1  1 3.660000e-01    1.600000e+00
 TN6aq   SC1  1 3.660000e-01    1.600000e+00
 TP1aq   SC1  1 3.780000e-01    1.450000e+00
 TP2aq   SC1  1 3.780000e-01    1.450000e+00
 TP3aq   SC1  1 3.940000e-01    1.290000e+00
 TP4aq   SC1  1 3.940000e-01    1.290000e+00
 TP5aq   SC1  1 3.940000e-01    1.290000e+00
 TP6aq   SC1  1 4.090000e-01    1.080000e+00
 TN1dq   SC1  1 3.650000e-01    1.750000e+00
 TN2dq   SC1  1 3.650000e-01    1.750000e+00
 TN3dq   SC1  1 3.650000e-01    1.750000e+00
 TN4dq   SC1  1 3.660000e-01    1.600000e+00
 TN5dq   SC1  1 3.660000e-01    1.600000e+00
 TN6dq   SC1  1 3.660000e-01    1.600000e+00
 TP1dq   SC1  1 3.780000e-01    1.450000e+00
 TP2dq   SC1  1 3.780000e-01    1.450000e+00
 TP3dq   SC1  1 3.940000e-01    1.290000e+00
 TP4dq   SC1  1 3.940000e-01    1.290000e+00
 TP5dq   SC1  1 3.940000e-01    1.290000e+00
 TP6dq   SC1  1 4.090000e-01    1.080000e+00
  TP6h   SC1  1 4.840000e-01    8.900000e-01
  TP5h   SC1  1 4.090000e-01    1.080000e+00
  TP4h   SC1  1 4.090000e-01    1.080000e+00
  TP3h   SC1  1 4.090000e-01    1.080000e+00
  TP2h   SC1  1 4.040000e-01    1.130000e+00
  TP1h   SC1  1 4.040000e-01    1.130000e+00
  TN6h   SC1  1 3.940000e-01    1.290000e+00
  TN5h   SC1  1 3.940000e-01    1.290000e+00
  TN4h   SC1  1 3.940000e-01    1.290000e+00
  TN3h   SC1  1 3.780000e-01    1.450000e+00
  TN2h   SC1  1 3.780000e-01    1.450000e+00
  TN1h   SC1  1 3.780000e-01    1.450000e+00
  TC6h   SC1  1 3.780000e-01    1.450000e+00
  TC5h   SC1  1 3.660000e-01    1.600000e+00
  TC4h   SC1  1 3.660000e-01    1.600000e+00
  TC3h   SC1  1 3.650000e-01    1.910000e+00
  TC2h   SC1  1 3.650000e-01    2.110000e+00
 TC2eh   SC1  1 3.650000e-01    2.340000e+00
 TC3eh   SC1  1 3.650000e-01    2.110000e+00
 TC4eh   SC1  1 3.650000e-01    1.750000e+00
 TC5eh   SC1  1 3.650000e-01    1.750000e+00
 TC6eh   SC1  1 3.660000e-01    1.600000e+00
 TC2vh   SC1  1 3.650000e-01    2.340000e+00
 TC3vh   SC1  1 3.650000e-01    2.110000e+00
 TC4vh   SC1  1 3.650000e-01    1.750000e+00
 TC5vh   SC1  1 3.650000e-01    1.750000e+00
 TC6vh   SC1  1 3.660000e-01    1.600000e+00
 TN1ah   SC1  1 3.780000e-01    1.450000e+00
 TN2ah   SC1  1 3.780000e-01    1.450000e+00
 TN3ah   SC1  1 3.780000e-01    1.450000e+00
 TN4ah   SC1  1 3.940000e-01    1.290000e+00
 TN5ah   SC1  1 3.940000e-01    1.290000e+00
 TN6ah   SC1  1 3.940000e-01    1.290000e+00
 TP1ah   SC1  1 4.040000e-01    1.130000e+00
 TP2ah   SC1  1 4.040000e-01    1.130000e+00
 TP3ah   SC1  1 4.090000e-01    1.080000e+00
 TP4ah   SC1  1 4.090000e-01    1.080000e+00
 TP5ah   SC1  1 4.090000e-01    1.080000e+00
 TP6ah   SC1  1 4.840000e-01    8.900000e-01
 TN1dh   SC1  1 3.780000e-01    1.450000e+00
 TN2dh   SC1  1 3.780000e-01    1.450000e+00
 TN3dh   SC1  1 3.780000e-01    1.450000e+00
 TN4dh   SC1  1 3.940000e-01    1.290000e+00
 TN5dh   SC1  1 3.940000e-01    1.290000e+00
 TN6dh   SC1  1 3.940000e-01    1.290000e+00
 TP1dh   SC1  1 4.040000e-01    1.130000e+00
 TP2dh   SC1  1 4.040000e-01    1.130000e+00
 TP3dh   SC1  1 4.090000e-01    1.080000e+00
 TP4dh   SC1  1 4.090000e-01    1.080000e+00
 TP5dh   SC1  1 4.090000e-01    1.080000e+00
 TP6dh   SC1  1 4.840000e-01    8.900000e-01
  TP6r   SC1  1 4.840000e-01    8.900000e-01
  TP5r   SC1  1 4.090000e-01    1.080000e+00
  TP4r   SC1  1 4.090000e-01    1.080000e+00
  TP3r   SC1  1 4.090000e-01    1.080000e+00
  TP2r   SC1  1 4.040000e-01    1.130000e+00
  TP1r   SC1  1 4.040000e-01    1.130000e+00
  TN6r   SC1  1 3.940000e-01    1.290000e+00
  TN5r   SC1  1 3.940000e-01    1.290000e+00
  TN4r   SC1  1 3.940000e-01    1.290000e+00
  TN3r   SC1  1 3.780000e-01    1.450000e+00
  TN2r   SC1  1 3.780000e-01    1.450000e+00
  TN1r   SC1  1 3.780000e-01    1.450000e+00
  TC6r   SC1  1 3.780000e-01    1.450000e+00
  TC5r   SC1  1 3.660000e-01    1.600000e+00
  TC4r   SC1  1 3.660000e-01    1.600000e+00
  TC3r   SC1  1 3.650000e-01    1.910000e+00
  TC2r   SC1  1 3.650000e-01    2.110000e+00
 TC2er   SC1  1 3.650000e-01    2.340000e+00
 TC3er   SC1  1 3.650000e-01    2.110000e+00
 TC4er   SC1  1 3.650000e-01    1.750000e+00
 TC5er   SC1  1 3.650000e-01    1.750000e+00
 TC6er   SC1  1 3.660000e-01    1.600000e+00
 TC2vr   SC1  1 3.650000e-01    2.340000e+00
 TC3vr   SC1  1 3.650000e-01    2.110000e+00
 TC4vr   SC1  1 3.650000e-01    1.750000e+00
 TC5vr   SC1  1 3.650000e-01    1.750000e+00
 TC6vr   SC1  1 3.660000e-01    1.600000e+00
 TN1ar   SC1  1 3.780000e-01    1.450000e+00
 TN2ar   SC1  1 3.780000e-01    1.450000e+00
 TN3ar   SC1  1 3.780000e-01    1.450000e+00
 TN4ar   SC1  1 3.940000e-01    1.290000e+00
 TN5ar   SC1  1 3.940000e-01    1.290000e+00
 TN6ar   SC1  1 3.940000e-01    1.290000e+00
 TP1ar   SC1  1 4.040000e-01    1.130000e+00
 TP2ar   SC1  1 4.040000e-01    1.130000e+00
 TP3ar   SC1  1 4.090000e-01    1.080000e+00
 TP4ar   SC1  1 4.090000e-01    1.080000e+00
 TP5ar   SC1  1 4.090000e-01    1.080000e+00
 TP6ar   SC1  1 4.840000e-01    8.900000e-01
 TN1dr   SC1  1 3.780000e-01    1.450000e+00
 TN2dr   SC1  1 3.780000e-01    1.450000e+00
 TN3dr   SC1  1 3.780000e-01    1.450000e+00
 TN4dr   SC1  1 3.940000e-01    1.290000e+00
 TN5dr   SC1  1 3.940000e-01    1.290000e+00
 TN6dr   SC1  1 3.940000e-01    1.290000e+00
 TP1dr   SC1  1 4.040000e-01    1.130000e+00
 TP2dr   SC1  1 4.040000e-01    1.130000e+00
 TP3dr   SC1  1 4.090000e-01    1.080000e+00
 TP4dr   SC1  1 4.090000e-01    1.080000e+00
 TP5dr   SC1  1 4.090000e-01    1.080000e+00
 TP6dr   SC1  1 4.840000e-01    8.900000e-01
   P6d   TC1  1 4.650000e-01    7.030000e-01
   P5d   TC1  1 4.010000e-01    9.830000e-01
   P4d   TC1  1 4.010000e-01    9.830000e-01
   P3d   TC1  1 4.010000e-01    9.830000e-01
   P2d   TC1  1 3.990000e-01    1.180000e+00
   P1d   TC1  1 3.990000e-01    1.180000e+00
   N6d   TC1  1 3.980000e-01    1.450000e+00
   N5d   TC1  1 3.980000e-01    1.450000e+00
   N4d   TC1  1 3.980000e-01    1.450000e+00
   N3d   TC1  1 3.950000e-01    1.670000e+00
   N2d   TC1  1 3.950000e-01    1.670000e+00
   N1d   TC1  1 3.950000e-01    1.670000e+00
   P6a   TC1  1 4.650000e-01    7.030000e-01
   P5a   TC1  1 4.010000e-01    9.830000e-01
   P4a   TC1  1 4.010000e-01    9.830000e-01
   P3a   TC1  1 4.010000e-01    9.830000e-01
   P2a   TC1  1 3.990000e-01    1.180000e+00
   P1a   TC1  1 3.990000e-01    1.180000e+00
   N6a   TC1  1 3.980000e-01    1.450000e+00
   N5a   TC1  1 3.980000e-01    1.450000e+00
   N4a   TC1  1 3.980000e-01    1.450000e+00
   N3a   TC1  1 3.950000e-01    1.670000e+00
   N2a   TC1  1 3.950000e-01    1.670000e+00
   N1a   TC1  1 3.950000e-01    1.670000e+00
   C6v   TC1  1 3.950000e-01    1.850000e+00
   C5v   TC1  1 3.950000e-01    2.110000e+00
   C4v   TC1  1 3.950000e-01    2.110000e+00
   C3v   TC1  1 3.950000e-01    2.500000e+00
   C2v   TC1  1 3.950000e-01    2.700000e+00
   C6e   TC1  1 3.950000e-01    1.850000e+00
   C5e   TC1  1 3.950000e-01    2.110000e+00
   C4e   TC1  1 3.950000e-01    2.110000e+00
   C3e   TC1  1 3.950000e-01    2.500000e+00
   C2e   TC1  1 3.950000e-01    2.700000e+00
   P6q   TC1  1 4.010000e-01    9.830000e-01
   P5q   TC1  1 3.980000e-01    1.450000e+00
   P4q   TC1  1 3.980000e-01    1.450000e+00
   P3q   TC1  1 3.980000e-01    1.450000e+00
   P2q   TC1  1 3.950000e-01    1.670000e+00
   P1q   TC1  1 3.950000e-01    1.670000e+00
   N6q   TC1  1 3.950000e-01    1.850000e+00
   N5q   TC1  1 3.950000e-01    1.850000e+00
   N4q   TC1  1 3.950000e-01    1.850000e+00
   N3q   TC1  1 3.950000e-01    2.110000e+00
   N2q   TC1  1 3.950000e-01    2.110000e+00
   N1q   TC1  1 3.950000e-01    2.110000e+00
   C6q   TC1  1 3.950000e-01    2.110000e+00
   C5q   TC1  1 3.950000e-01    2.310000e+00
   C4q   TC1  1 3.950000e-01    2.310000e+00
   C3q   TC1  1 3.950000e-01    2.700000e+00
   C2q   TC1  1 3.950000e-01    2.940000e+00
  C2eq   TC1  1 3.950000e-01    3.190000e+00
  C3eq   TC1  1 3.950000e-01    2.940000e+00
  C4eq   TC1  1 3.950000e-01    2.500000e+00
  C5eq   TC1  1 3.950000e-01    2.500000e+00
  C6eq   TC1  1 3.950000e-01    2.310000e+00
  C2vq   TC1  1 3.950000e-01    3.190000e+00
  C3vq   TC1  1 3.950000e-01    2.940000e+00
  C4vq   TC1  1 3.950000e-01    2.500000e+00
  C5vq   TC1  1 3.950000e-01    2.500000e+00
  C6vq   TC1  1 3.950000e-01    2.310000e+00
  N1aq   TC1  1 3.950000e-01    2.110000e+00
  N2aq   TC1  1 3.950000e-01    2.110000e+00
  N3aq   TC1  1 3.950000e-01    2.110000e+00
  N4aq   TC1  1 3.950000e-01    1.850000e+00
  N5aq   TC1  1 3.950000e-01    1.850000e+00
  N6aq   TC1  1 3.950000e-01    1.850000e+00
  P1aq   TC1  1 3.950000e-01    1.670000e+00
  P2aq   TC1  1 3.950000e-01    1.670000e+00
  P3aq   TC1  1 3.980000e-01    1.450000e+00
  P4aq   TC1  1 3.980000e-01    1.450000e+00
  P5aq   TC1  1 3.980000e-01    1.450000e+00
  P6aq   TC1  1 4.010000e-01    9.830000e-01
  N1dq   TC1  1 3.950000e-01    2.110000e+00
  N2dq   TC1  1 3.950000e-01    2.110000e+00
  N3dq   TC1  1 3.950000e-01    2.110000e+00
  N4dq   TC1  1 3.950000e-01    1.850000e+00
  N5dq   TC1  1 3.950000e-01    1.850000e+00
  N6dq   TC1  1 3.950000e-01    1.850000e+00
  P1dq   TC1  1 3.950000e-01    1.670000e+00
  P2dq   TC1  1 3.950000e-01    1.670000e+00
  P3dq   TC1  1 3.980000e-01    1.450000e+00
  P4dq   TC1  1 3.980000e-01    1.450000e+00
  P5dq   TC1  1 3.980000e-01    1.450000e+00
  P6dq   TC1  1 4.010000e-01    9.830000e-01
   P6h   TC1  1 4.650000e-01    7.030000e-01
   P5h   TC1  1 4.010000e-01    9.830000e-01
   P4h   TC1  1 4.010000e-01    9.830000e-01
   P3h   TC1  1 4.010000e-01    9.830000e-01
   P2h   TC1  1 3.990000e-01    1.180000e+00
   P1h   TC1  1 3.990000e-01    1.180000e+00
   N6h   TC1  1 3.980000e-01    1.450000e+00
   N5h   TC1  1 3.980000e-01    1.450000e+00
   N4h   TC1  1 3.980000e-01    1.450000e+00
   N3h   TC1  1 3.950000e-01    1.670000e+00
   N2h   TC1  1 3.950000e-01    1.670000e+00
   N1h   TC1  1 3.950000e-01    1.670000e+00
   C6h   TC1  1 3.950000e-01    1.670000e+00
   C5h   TC1  1 3.950000e-01    1.850000e+00
   C4h   TC1  1 3.950000e-01    1.850000e+00
   C3h   TC1  1 3.950000e-01    2.310000e+00
   C2h   TC1  1 3.950000e-01    2.500000e+00
  C2eh   TC1  1 3.950000e-01    2.700000e+00
  C3eh   TC1  1 3.950000e-01    2.500000e+00
  C4eh   TC1  1 3.950000e-01    2.110000e+00
  C5eh   TC1  1 3.950000e-01    2.110000e+00
  C6eh   TC1  1 3.950000e-01    1.850000e+00
  C2vh   TC1  1 3.950000e-01    2.700000e+00
  C3vh   TC1  1 3.950000e-01    2.500000e+00
  C4vh   TC1  1 3.950000e-01    2.110000e+00
  C5vh   TC1  1 3.950000e-01    2.110000e+00
  C6vh   TC1  1 3.950000e-01    1.850000e+00
  N1ah   TC1  1 3.950000e-01    1.670000e+00
  N2ah   TC1  1 3.950000e-01    1.670000e+00
  N3ah   TC1  1 3.950000e-01    1.670000e+00
  N4ah   TC1  1 3.980000e-01    1.450000e+00
  N5ah   TC1  1 3.980000e-01    1.450000e+00
  N6ah   TC1  1 3.980000e-01    1.450000e+00
  P1ah   TC1  1 3.990000e-01    1.180000e+00
  P2ah   TC1  1 3.990000e-01    1.180000e+00
  P3ah   TC1  1 4.010000e-01    9.830000e-01
  P4ah   TC1  1 4.010000e-01    9.830000e-01
  P5ah   TC1  1 4.010000e-01    9.830000e-01
  P6ah   TC1  1 4.650000e-01    7.030000e-01
  N1dh   TC1  1 3.950000e-01    1.670000e+00
  N2dh   TC1  1 3.950000e-01    1.670000e+00
  N3dh   TC1  1 3.950000e-01    1.670000e+00
  N4dh   TC1  1 3.980000e-01    1.450000e+00
  N5dh   TC1  1 3.980000e-01    1.450000e+00
  N6dh   TC1  1 3.980000e-01    1.450000e+00
  P1dh   TC1  1 3.990000e-01    1.180000e+00
  P2dh   TC1  1 3.990000e-01    1.180000e+00
  P3dh   TC1  1 4.010000e-01    9.830000e-01
  P4dh   TC1  1 4.010000e-01    9.830000e-01
  P5dh   TC1  1 4.010000e-01    9.830000e-01
  P6dh   TC1  1 4.650000e-01    7.030000e-01
   P6r   TC1  1 4.650000e-01    7.030000e-01
   P5r   TC1  1 4.010000e-01    9.830000e-01
   P4r   TC1  1 4.010000e-01    9.830000e-01
   P3r   TC1  1 4.010000e-01    9.830000e-01
   P2r   TC1  1 3.990000e-01    1.180000e+00
   P1r   TC1  1 3.990000e-01    1.180000e+00
   N6r   TC1  1 3.980000e-01    1.450000e+00
   N5r   TC1  1 3.980000e-01    1.450000e+00
   N4r   TC1  1 3.980000e-01    1.450000e+00
   N3r   TC1  1 3.950000e-01    1.670000e+00
   N2r   TC1  1 3.950000e-01    1.670000e+00
   N1r   TC1  1 3.950000e-01    1.670000e+00
   C6r   TC1  1 3.950000e-01    1.670000e+00
   C5r   TC1  1 3.950000e-01    1.850000e+00
   C4r   TC1  1 3.950000e-01    1.850000e+00
   C3r   TC1  1 3.950000e-01    2.310000e+00
   C2r   TC1  1 3.950000e-01    2.500000e+00
  C2er   TC1  1 3.950000e-01    2.700000e+00
  C3er   TC1  1 3.950000e-01    2.500000e+00
  C4er   TC1  1 3.950000e-01    2.110000e+00
  C5er   TC1  1 3.950000e-01    2.110000e+00
  C6er   TC1  1 3.950000e-01    1.850000e+00
  C2vr   TC1  1 3.950000e-01    2.700000e+00
  C3vr   TC1  1 3.950000e-01    2.500000e+00
  C4vr   TC1  1 3.950000e-01    2.110000e+00
  C5vr   TC1  1 3.950000e-01    2.110000e+00
  C6vr   TC1  1 3.950000e-01    1.850000e+00
  N1ar   TC1  1 3.950000e-01    1.670000e+00
  N2ar   TC1  1 3.950000e-01    1.670000e+00
  N3ar   TC1  1 3.950000e-01    1.670000e+00
  N4ar   TC1  1 3.980000e-01    1.450000e+00
  N5ar   TC1  1 3.980000e-01    1.450000e+00
  N6ar   TC1  1 3.980000e-01    1.450000e+00
  P1ar   TC1  1 3.990000e-01    1.180000e+00
  P2ar   TC1  1 3.990000e-01    1.180000e+00
  P3ar   TC1  1 4.010000e-01    9.830000e-01
  P4ar   TC1  1 4.010000e-01    9.830000e-01
  P5ar   TC1  1 4.010000e-01    9.830000e-01
  P6ar   TC1  1 4.650000e-01    7.030000e-01
  N1dr   TC1  1 3.950000e-01    1.670000e+00
  N2dr   TC1  1 3.950000e-01    1.670000e+00
  N3dr   TC1  1 3.950000e-01    1.670000e+00
  N4dr   TC1  1 3.980000e-01    1.450000e+00
  N5dr   TC1  1 3.980000e-01    1.450000e+00
  N6dr   TC1  1 3.980000e-01    1.450000e+00
  P1dr   TC1  1 3.990000e-01    1.180000e+00
  P2dr   TC1  1 3.990000e-01    1.180000e+00
  P3dr   TC1  1 4.010000e-01    9.830000e-01
  P4dr   TC1  1 4.010000e-01    9.830000e-01
  P5dr   TC1  1 4.010000e-01    9.830000e-01
  P6dr   TC1  1 4.650000e-01    7.030000e-01
   TC1    X4  1 3.950000e-01    1.670000e+00
   TC1    X3  1 3.950000e-01    2.110000e+00
   TC1    X2  1 3.950000e-01    2.110000e+00
   TC1    X1  1 3.950000e-01    2.110000e+00
   TC1   C1v  1 3.950000e-01    2.500000e+00
   TC1   X1v  1 3.950000e-01    2.310000e+00
   TC1   X2v  1 3.950000e-01    2.310000e+00
   TC1   X3v  1 3.950000e-01    2.310000e+00
   TC1   X4v  1 3.950000e-01    1.850000e+00
   TC1   C1e  1 3.950000e-01    2.500000e+00
   TC1   X1e  1 3.950000e-01    2.310000e+00
   TC1   X2e  1 3.950000e-01    2.310000e+00
   TC1   X3e  1 3.950000e-01    2.310000e+00
   TC1   X4e  1 3.950000e-01    1.850000e+00
   TC1   C1q  1 3.950000e-01    2.700000e+00
   TC1  X1eq  1 3.950000e-01    2.700000e+00
   TC1  X2eq  1 3.950000e-01    2.700000e+00
   TC1  X3eq  1 3.950000e-01    2.700000e+00
   TC1  X4eq  1 3.950000e-01    2.310000e+00
   TC1  C1eq  1 3.950000e-01    2.940000e+00
   TC1  X1vq  1 3.950000e-01    2.700000e+00
   TC1  X2vq  1 3.950000e-01    2.700000e+00
   TC1  X3vq  1 3.950000e-01    2.700000e+00
   TC1  X4vq  1 3.950000e-01    2.310000e+00
   TC1  C1vq  1 3.950000e-01    2.940000e+00
   TC1   X1q  1 3.950000e-01    2.500000e+00
   TC1   X2q  1 3.950000e-01    2.500000e+00
   TC1   X3q  1 3.950000e-01    2.500000e+00
   TC1   X4q  1 3.950000e-01    2.110000e+00
   TC1   C1h  1 3.950000e-01    2.310000e+00
   TC1  X1eh  1 3.950000e-01    2.310000e+00
   TC1  X2eh  1 3.950000e-01    2.310000e+00
   TC1  X3eh  1 3.950000e-01    2.310000e+00
   TC1  X4eh  1 3.950000e-01    1.850000e+00
   TC1  C1eh  1 3.950000e-01    2.500000e+00
   TC1  X1vh  1 3.950000e-01    2.310000e+00
   TC1  X2vh  1 3.950000e-01    2.310000e+00
   TC1  X3vh  1 3.950000e-01    2.310000e+00
   TC1  X4vh  1 3.950000e-01    1.850000e+00
   TC1  C1vh  1 3.950000e-01    2.500000e+00
   TC1   X1h  1 3.950000e-01    2.110000e+00
   TC1   X2h  1 3.950000e-01    2.110000e+00
   TC1   X3h  1 3.950000e-01    2.110000e+00
   TC1   X4h  1 3.950000e-01    1.670000e+00
   TC1   C1r  1 3.950000e-01    2.310000e+00
   TC1  X1er  1 3.950000e-01    2.310000e+00
   TC1  X2er  1 3.950000e-01    2.310000e+00
   TC1  X3er  1 3.950000e-01    2.310000e+00
   TC1  X4er  1 3.950000e-01    1.850000e+00
   TC1  C1er  1 3.950000e-01    2.500000e+00
   TC1  X1vr  1 3.950000e-01    2.310000e+00
   TC1  X2vr  1 3.950000e-01    2.310000e+00
   TC1  X3vr  1 3.950000e-01    2.310000e+00
   TC1  X4vr  1 3.950000e-01    1.850000e+00
   TC1  C1vr  1 3.950000e-01    2.500000e+00
   TC1   X1r  1 3.950000e-01    2.110000e+00
   TC1   X2r  1 3.950000e-01    2.110000e+00
   TC1   X3r  1 3.950000e-01    2.110000e+00
   TC1   X4r  1 3.950000e-01    1.670000e+00
   TC1   TC1  1 3.400000e-01    1.510000e+00
   TC1   TX4  1 3.660000e-01    9.350000e-01
   TC1   TX3  1 3.400000e-01    1.230000e+00
   TC1   TX2  1 3.400000e-01    1.230000e+00
   TC1   TX1  1 3.400000e-01    1.230000e+00
  TP6d   TC1  1 5.050000e-01    6.800000e-01
  TP5d   TC1  1 4.240000e-01    7.760000e-01
  TP4d   TC1  1 4.240000e-01    7.760000e-01
  TP3d   TC1  1 4.240000e-01    7.760000e-01
  TP2d   TC1  1 4.110000e-01    8.010000e-01
  TP1d   TC1  1 4.110000e-01    8.010000e-01
  TN6d   TC1  1 3.850000e-01    8.550000e-01
  TN5d   TC1  1 3.850000e-01    8.550000e-01
  TN4d   TC1  1 3.850000e-01    8.550000e-01
  TN3d   TC1  1 3.660000e-01    9.350000e-01
  TN2d   TC1  1 3.660000e-01    9.350000e-01
  TN1d   TC1  1 3.660000e-01    9.350000e-01
  TP6a   TC1  1 5.050000e-01    6.800000e-01
  TP5a   TC1  1 4.240000e-01    7.760000e-01
  TP4a   TC1  1 4.240000e-01    7.760000e-01
  TP3a   TC1  1 4.240000e-01    7.760000e-01
  TP2a   TC1  1 4.110000e-01    8.010000e-01
  TP1a   TC1  1 4.110000e-01    8.010000e-01
  TN6a   TC1  1 3.850000e-01    8.550000e-01
  TN5a   TC1  1 3.850000e-01    8.550000e-01
  TN4a   TC1  1 3.850000e-01    8.550000e-01
  TN3a   TC1  1 3.660000e-01    9.350000e-01
  TN2a   TC1  1 3.660000e-01    9.350000e-01
  TN1a   TC1  1 3.660000e-01    9.350000e-01
  TC6v   TC1  1 3.520000e-01    1.050000e+00
  TC5v   TC1  1 3.400000e-01    1.230000e+00
  TC4v   TC1  1 3.400000e-01    1.230000e+00
  TC3v   TC1  1 3.400000e-01    1.770000e+00
  TC2v   TC1  1 3.400000e-01    2.020000e+00
   TC1  TC1v  1 3.400000e-01    1.770000e+00
   TC1  TX1v  1 3.400000e-01    1.510000e+00
   TC1  TX2v  1 3.400000e-01    1.510000e+00
   TC1  TX3v  1 3.400000e-01    1.510000e+00
   TC1  TX4v  1 3.520000e-01    1.050000e+00
  TC6e   TC1  1 3.520000e-01    1.050000e+00
  TC5e   TC1  1 3.400000e-01    1.230000e+00
  TC4e   TC1  1 3.400000e-01    1.230000e+00
  TC3e   TC1  1 3.400000e-01    1.770000e+00
  TC2e   TC1  1 3.400000e-01    2.020000e+00
   TC1  TC1e  1 3.400000e-01    1.770000e+00
   TC1  TX1e  1 3.400000e-01    1.510000e+00
   TC1  TX2e  1 3.400000e-01    1.510000e+00
   TC1  TX3e  1 3.400000e-01    1.510000e+00
   TC1  TX4e  1 3.520000e-01    1.050000e+00
  TP6q   TC1  1 4.240000e-01    7.760000e-01
  TP5q   TC1  1 3.850000e-01    8.550000e-01
  TP4q   TC1  1 3.850000e-01    8.550000e-01
  TP3q   TC1  1 3.850000e-01    8.550000e-01
  TP2q   TC1  1 3.660000e-01    9.350000e-01
  TP1q   TC1  1 3.660000e-01    9.350000e-01
  TN6q   TC1  1 3.520000e-01    1.050000e+00
  TN5q   TC1  1 3.520000e-01    1.050000e+00
  TN4q   TC1  1 3.520000e-01    1.050000e+00
  TN3q   TC1  1 3.400000e-01    1.230000e+00
  TN2q   TC1  1 3.400000e-01    1.230000e+00
  TN1q   TC1  1 3.400000e-01    1.230000e+00
  TC6q   TC1  1 3.400000e-01    1.230000e+00
  TC5q   TC1  1 3.400000e-01    1.510000e+00
  TC4q   TC1  1 3.400000e-01    1.510000e+00
  TC3q   TC1  1 3.400000e-01    2.020000e+00
  TC2q   TC1  1 3.400000e-01    2.280000e+00
   TC1  TC1q  1 3.400000e-01    2.020000e+00
   TC1 TX1eq  1 3.400000e-01    2.020000e+00
   TC1 TX2eq  1 3.400000e-01    2.020000e+00
   TC1 TX3eq  1 3.400000e-01    2.020000e+00
   TC1 TX4eq  1 3.400000e-01    1.510000e+00
   TC1 TC1eq  1 3.400000e-01    2.280000e+00
 TC2eq   TC1  1 3.400000e-01    2.500000e+00
 TC3eq   TC1  1 3.400000e-01    2.280000e+00
 TC4eq   TC1  1 3.400000e-01    1.770000e+00
 TC5eq   TC1  1 3.400000e-01    1.770000e+00
 TC6eq   TC1  1 3.400000e-01    1.510000e+00
   TC1 TX1vq  1 3.400000e-01    2.020000e+00
   TC1 TX2vq  1 3.400000e-01    2.020000e+00
   TC1 TX3vq  1 3.400000e-01    2.020000e+00
   TC1 TX4vq  1 3.400000e-01    1.510000e+00
   TC1 TC1vq  1 3.400000e-01    2.280000e+00
 TC2vq   TC1  1 3.400000e-01    2.500000e+00
 TC3vq   TC1  1 3.400000e-01    2.280000e+00
 TC4vq   TC1  1 3.400000e-01    1.770000e+00
 TC5vq   TC1  1 3.400000e-01    1.770000e+00
 TC6vq   TC1  1 3.400000e-01    1.510000e+00
 TN1aq   TC1  1 3.400000e-01    1.230000e+00
 TN2aq   TC1  1 3.400000e-01    1.230000e+00
 TN3aq   TC1  1 3.400000e-01    1.230000e+00
 TN4aq   TC1  1 3.520000e-01    1.050000e+00
 TN5aq   TC1  1 3.520000e-01    1.050000e+00
 TN6aq   TC1  1 3.520000e-01    1.050000e+00
 TP1aq   TC1  1 3.660000e-01    9.350000e-01
 TP2aq   TC1  1 3.660000e-01    9.350000e-01
 TP3aq   TC1  1 3.850000e-01    8.550000e-01
 TP4aq   TC1  1 3.850000e-01    8.550000e-01
 TP5aq   TC1  1 3.850000e-01    8.550000e-01
 TP6aq   TC1  1 4.240000e-01    7.760000e-01
 TN1dq   TC1  1 3.400000e-01    1.230000e+00
 TN2dq   TC1  1 3.400000e-01    1.230000e+00
 TN3dq   TC1  1 3.400000e-01    1.230000e+00
 TN4dq   TC1  1 3.520000e-01    1.050000e+00
 TN5dq   TC1  1 3.520000e-01    1.050000e+00
 TN6dq   TC1  1 3.520000e-01    1.050000e+00
 TP1dq   TC1  1 3.660000e-01    9.350000e-01
 TP2dq   TC1  1 3.660000e-01    9.350000e-01
 TP3dq   TC1  1 3.850000e-01    8.550000e-01
 TP4dq   TC1  1 3.850000e-01    8.550000e-01
 TP5dq   TC1  1 3.850000e-01    8.550000e-01
 TP6dq   TC1  1 4.240000e-01    7.760000e-01
   TC1  TX1q  1 3.400000e-01    1.770000e+00
   TC1  TX2q  1 3.400000e-01    1.770000e+00
   TC1  TX3q  1 3.400000e-01    1.770000e+00
   TC1  TX4q  1 3.400000e-01    1.230000e+00
  TP6h   TC1  1 5.050000e-01    6.800000e-01
  TP5h   TC1  1 4.240000e-01    7.760000e-01
  TP4h   TC1  1 4.240000e-01    7.760000e-01
  TP3h   TC1  1 4.240000e-01    7.760000e-01
  TP2h   TC1  1 4.110000e-01    8.010000e-01
  TP1h   TC1  1 4.110000e-01    8.010000e-01
  TN6h   TC1  1 3.850000e-01    8.550000e-01
  TN5h   TC1  1 3.850000e-01    8.550000e-01
  TN4h   TC1  1 3.850000e-01    8.550000e-01
  TN3h   TC1  1 3.660000e-01    9.350000e-01
  TN2h   TC1  1 3.660000e-01    9.350000e-01
  TN1h   TC1  1 3.660000e-01    9.350000e-01
  TC6h   TC1  1 3.660000e-01    9.350000e-01
  TC5h   TC1  1 3.520000e-01    1.050000e+00
  TC4h   TC1  1 3.520000e-01    1.050000e+00
  TC3h   TC1  1 3.400000e-01    1.510000e+00
  TC2h   TC1  1 3.400000e-01    1.770000e+00
   TC1  TC1h  1 3.400000e-01    1.510000e+00
   TC1 TX1eh  1 3.400000e-01    1.510000e+00
   TC1 TX2eh  1 3.400000e-01    1.510000e+00
   TC1 TX3eh  1 3.400000e-01    1.510000e+00
   TC1 TX4eh  1 3.520000e-01    1.050000e+00
   TC1 TC1eh  1 3.400000e-01    1.770000e+00
 TC2eh   TC1  1 3.400000e-01    2.020000e+00
 TC3eh   TC1  1 3.400000e-01    1.770000e+00
 TC4eh   TC1  1 3.400000e-01    1.230000e+00
 TC5eh   TC1  1 3.400000e-01    1.230000e+00
 TC6eh   TC1  1 3.520000e-01    1.050000e+00
   TC1 TX1vh  1 3.400000e-01    1.510000e+00
   TC1 TX2vh  1 3.400000e-01    1.510000e+00
   TC1 TX3vh  1 3.400000e-01    1.510000e+00
   TC1 TX4vh  1 3.520000e-01    1.050000e+00
   TC1 TC1vh  1 3.400000e-01    1.770000e+00
 TC2vh   TC1  1 3.400000e-01    2.020000e+00
 TC3vh   TC1  1 3.400000e-01    1.770000e+00
 TC4vh   TC1  1 3.400000e-01    1.230000e+00
 TC5vh   TC1  1 3.400000e-01    1.230000e+00
 TC6vh   TC1  1 3.520000e-01    1.050000e+00
 TN1ah   TC1  1 3.660000e-01    9.350000e-01
 TN2ah   TC1  1 3.660000e-01    9.350000e-01
 TN3ah   TC1  1 3.660000e-01    9.350000e-01
 TN4ah   TC1  1 3.850000e-01    8.550000e-01
 TN5ah   TC1  1 3.850000e-01    8.550000e-01
 TN6ah   TC1  1 3.850000e-01    8.550000e-01
 TP1ah   TC1  1 4.110000e-01    8.010000e-01
 TP2ah   TC1  1 4.110000e-01    8.010000e-01
 TP3ah   TC1  1 4.240000e-01    7.760000e-01
 TP4ah   TC1  1 4.240000e-01    7.760000e-01
 TP5ah   TC1  1 4.240000e-01    7.760000e-01
 TP6ah   TC1  1 5.050000e-01    6.800000e-01
 TN1dh   TC1  1 3.660000e-01    9.350000e-01
 TN2dh   TC1  1 3.660000e-01    9.350000e-01
 TN3dh   TC1  1 3.660000e-01    9.350000e-01
 TN4dh   TC1  1 3.850000e-01    8.550000e-01
 TN5dh   TC1  1 3.850000e-01    8.550000e-01
 TN6dh   TC1  1 3.850000e-01    8.550000e-01
 TP1dh   TC1  1 4.110000e-01    8.010000e-01
 TP2dh   TC1  1 4.110000e-01    8.010000e-01
 TP3dh   TC1  1 4.240000e-01    7.760000e-01
 TP4dh   TC1  1 4.240000e-01    7.760000e-01
 TP5dh   TC1  1 4.240000e-01    7.760000e-01
 TP6dh   TC1  1 5.050000e-01    6.800000e-01
   TC1  TX1h  1 3.400000e-01    1.230000e+00
   TC1  TX2h  1 3.400000e-01    1.230000e+00
   TC1  TX3h  1 3.400000e-01    1.230000e+00
   TC1  TX4h  1 3.660000e-01    9.350000e-01
  TP6r   TC1  1 5.050000e-01    6.800000e-01
  TP5r   TC1  1 4.240000e-01    7.760000e-01
  TP4r   TC1  1 4.240000e-01    7.760000e-01
  TP3r   TC1  1 4.240000e-01    7.760000e-01
  TP2r   TC1  1 4.110000e-01    8.010000e-01
  TP1r   TC1  1 4.110000e-01    8.010000e-01
  TN6r   TC1  1 3.850000e-01    8.550000e-01
  TN5r   TC1  1 3.850000e-01    8.550000e-01
  TN4r   TC1  1 3.850000e-01    8.550000e-01
  TN3r   TC1  1 3.660000e-01    9.350000e-01
  TN2r   TC1  1 3.660000e-01    9.350000e-01
  TN1r   TC1  1 3.660000e-01    9.350000e-01
  TC6r   TC1  1 3.660000e-01    9.350000e-01
  TC5r   TC1  1 3.520000e-01    1.050000e+00
  TC4r   TC1  1 3.520000e-01    1.050000e+00
  TC3r   TC1  1 3.400000e-01    1.510000e+00
  TC2r   TC1  1 3.400000e-01    1.770000e+00
   TC1  TC1r  1 3.400000e-01    1.510000e+00
   TC1 TX1er  1 3.400000e-01    1.510000e+00
   TC1 TX2er  1 3.400000e-01    1.510000e+00
   TC1 TX3er  1 3.400000e-01    1.510000e+00
   TC1 TX4er  1 3.520000e-01    1.050000e+00
   TC1 TC1er  1 3.400000e-01    1.770000e+00
 TC2er   TC1  1 3.400000e-01    2.020000e+00
 TC3er   TC1  1 3.400000e-01    1.770000e+00
 TC4er   TC1  1 3.400000e-01    1.230000e+00
 TC5er   TC1  1 3.400000e-01    1.230000e+00
 TC6er   TC1  1 3.520000e-01    1.050000e+00
   TC1 TX1vr  1 3.400000e-01    1.510000e+00
   TC1 TX2vr  1 3.400000e-01    1.510000e+00
   TC1 TX3vr  1 3.400000e-01    1.510000e+00
   TC1 TX4vr  1 3.520000e-01    1.050000e+00
   TC1 TC1vr  1 3.400000e-01    1.770000e+00
 TC2vr   TC1  1 3.400000e-01    2.020000e+00
 TC3vr   TC1  1 3.400000e-01    1.770000e+00
 TC4vr   TC1  1 3.400000e-01    1.230000e+00
 TC5vr   TC1  1 3.400000e-01    1.230000e+00
 TC6vr   TC1  1 3.520000e-01    1.050000e+00
 TN1ar   TC1  1 3.660000e-01    9.350000e-01
 TN2ar   TC1  1 3.660000e-01    9.350000e-01
 TN3ar   TC1  1 3.660000e-01    9.350000e-01
 TN4ar   TC1  1 3.850000e-01    8.550000e-01
 TN5ar   TC1  1 3.850000e-01    8.550000e-01
 TN6ar   TC1  1 3.850000e-01    8.550000e-01
 TP1ar   TC1  1 4.110000e-01    8.010000e-01
 TP2ar   TC1  1 4.110000e-01    8.010000e-01
 TP3ar   TC1  1 4.240000e-01    7.760000e-01
 TP4ar   TC1  1 4.240000e-01    7.760000e-01
 TP5ar   TC1  1 4.240000e-01    7.760000e-01
 TP6ar   TC1  1 5.050000e-01    6.800000e-01
 TN1dr   TC1  1 3.660000e-01    9.350000e-01
 TN2dr   TC1  1 3.660000e-01    9.350000e-01
 TN3dr   TC1  1 3.660000e-01    9.350000e-01
 TN4dr   TC1  1 3.850000e-01    8.550000e-01
 TN5dr   TC1  1 3.850000e-01    8.550000e-01
 TN6dr   TC1  1 3.850000e-01    8.550000e-01
 TP1dr   TC1  1 4.110000e-01    8.010000e-01
 TP2dr   TC1  1 4.110000e-01    8.010000e-01
 TP3dr   TC1  1 4.240000e-01    7.760000e-01
 TP4dr   TC1  1 4.240000e-01    7.760000e-01
 TP5dr   TC1  1 4.240000e-01    7.760000e-01
 TP6dr   TC1  1 5.050000e-01    6.800000e-01
   TC1  TX1r  1 3.400000e-01    1.230000e+00
   TC1  TX2r  1 3.400000e-01    1.230000e+00
   TC1  TX3r  1 3.400000e-01    1.230000e+00
   TC1  TX4r  1 3.660000e-01    9.350000e-01
  SP6d   TC1  1 4.840000e-01    8.900000e-01
  SP5d   TC1  1 4.090000e-01    1.080000e+00
  SP4d   TC1  1 4.090000e-01    1.080000e+00
  SP3d   TC1  1 4.090000e-01    1.080000e+00
  SP2d   TC1  1 4.040000e-01    1.130000e+00
  SP1d   TC1  1 4.040000e-01    1.130000e+00
  SN6d   TC1  1 3.940000e-01    1.290000e+00
  SN5d   TC1  1 3.940000e-01    1.290000e+00
  SN4d   TC1  1 3.940000e-01    1.290000e+00
  SN3d   TC1  1 3.780000e-01    1.450000e+00
  SN2d   TC1  1 3.780000e-01    1.450000e+00
  SN1d   TC1  1 3.780000e-01    1.450000e+00
  SP6a   TC1  1 4.840000e-01    8.900000e-01
  SP5a   TC1  1 4.090000e-01    1.080000e+00
  SP4a   TC1  1 4.090000e-01    1.080000e+00
  SP3a   TC1  1 4.090000e-01    1.080000e+00
  SP2a   TC1  1 4.040000e-01    1.130000e+00
  SP1a   TC1  1 4.040000e-01    1.130000e+00
  SN6a   TC1  1 3.940000e-01    1.290000e+00
  SN5a   TC1  1 3.940000e-01    1.290000e+00
  SN4a   TC1  1 3.940000e-01    1.290000e+00
  SN3a   TC1  1 3.780000e-01    1.450000e+00
  SN2a   TC1  1 3.780000e-01    1.450000e+00
  SN1a   TC1  1 3.780000e-01    1.450000e+00
  SC6v   TC1  1 3.660000e-01    1.600000e+00
  SC5v   TC1  1 3.650000e-01    1.750000e+00
  SC4v   TC1  1 3.650000e-01    1.750000e+00
  SC3v   TC1  1 3.650000e-01    2.110000e+00
  SC2v   TC1  1 3.650000e-01    2.340000e+00
  SC6e   TC1  1 3.660000e-01    1.600000e+00
  SC5e   TC1  1 3.650000e-01    1.750000e+00
  SC4e   TC1  1 3.650000e-01    1.750000e+00
  SC3e   TC1  1 3.650000e-01    2.110000e+00
  SC2e   TC1  1 3.650000e-01    2.340000e+00
  SP6q   TC1  1 4.090000e-01    1.080000e+00
  SP5q   TC1  1 3.940000e-01    1.290000e+00
  SP4q   TC1  1 3.940000e-01    1.290000e+00
  SP3q   TC1  1 3.940000e-01    1.290000e+00
  SP2q   TC1  1 3.780000e-01    1.450000e+00
  SP1q   TC1  1 3.780000e-01    1.450000e+00
  SN6q   TC1  1 3.660000e-01    1.600000e+00
  SN5q   TC1  1 3.660000e-01    1.600000e+00
  SN4q   TC1  1 3.660000e-01    1.600000e+00
  SN3q   TC1  1 3.650000e-01    1.750000e+00
  SN2q   TC1  1 3.650000e-01    1.750000e+00
  SN1q   TC1  1 3.650000e-01    1.750000e+00
  SC6q   TC1  1 3.650000e-01    1.750000e+00
  SC5q   TC1  1 3.650000e-01    1.910000e+00
  SC4q   TC1  1 3.650000e-01    1.910000e+00
  SC3q   TC1  1 3.650000e-01    2.340000e+00
  SC2q   TC1  1 3.650000e-01    2.570000e+00
 SC2eq   TC1  1 3.650000e-01    2.830000e+00
 SC3eq   TC1  1 3.650000e-01    2.570000e+00
 SC4eq   TC1  1 3.650000e-01    2.110000e+00
 SC5eq   TC1  1 3.650000e-01    2.110000e+00
 SC6eq   TC1  1 3.650000e-01    1.910000e+00
 SC2vq   TC1  1 3.650000e-01    2.830000e+00
 SC3vq   TC1  1 3.650000e-01    2.570000e+00
 SC4vq   TC1  1 3.650000e-01    2.110000e+00
 SC5vq   TC1  1 3.650000e-01    2.110000e+00
 SC6vq   TC1  1 3.650000e-01    1.910000e+00
 SN1aq   TC1  1 3.650000e-01    1.750000e+00
 SN2aq   TC1  1 3.650000e-01    1.750000e+00
 SN3aq   TC1  1 3.650000e-01    1.750000e+00
 SN4aq   TC1  1 3.660000e-01    1.600000e+00
 SN5aq   TC1  1 3.660000e-01    1.600000e+00
 SN6aq   TC1  1 3.660000e-01    1.600000e+00
 SP1aq   TC1  1 3.780000e-01    1.450000e+00
 SP2aq   TC1  1 3.780000e-01    1.450000e+00
 SP3aq   TC1  1 3.940000e-01    1.290000e+00
 SP4aq   TC1  1 3.940000e-01    1.290000e+00
 SP5aq   TC1  1 3.940000e-01    1.290000e+00
 SP6aq   TC1  1 4.090000e-01    1.080000e+00
 SN1dq   TC1  1 3.650000e-01    1.750000e+00
 SN2dq   TC1  1 3.650000e-01    1.750000e+00
 SN3dq   TC1  1 3.650000e-01    1.750000e+00
 SN4dq   TC1  1 3.660000e-01    1.600000e+00
 SN5dq   TC1  1 3.660000e-01    1.600000e+00
 SN6dq   TC1  1 3.660000e-01    1.600000e+00
 SP1dq   TC1  1 3.780000e-01    1.450000e+00
 SP2dq   TC1  1 3.780000e-01    1.450000e+00
 SP3dq   TC1  1 3.940000e-01    1.290000e+00
 SP4dq   TC1  1 3.940000e-01    1.290000e+00
 SP5dq   TC1  1 3.940000e-01    1.290000e+00
 SP6dq   TC1  1 4.090000e-01    1.080000e+00
  SP6h   TC1  1 4.840000e-01    8.900000e-01
  SP5h   TC1  1 4.090000e-01    1.080000e+00
  SP4h   TC1  1 4.090000e-01    1.080000e+00
  SP3h   TC1  1 4.090000e-01    1.080000e+00
  SP2h   TC1  1 4.040000e-01    1.130000e+00
  SP1h   TC1  1 4.040000e-01    1.130000e+00
  SN6h   TC1  1 3.940000e-01    1.290000e+00
  SN5h   TC1  1 3.940000e-01    1.290000e+00
  SN4h   TC1  1 3.940000e-01    1.290000e+00
  SN3h   TC1  1 3.780000e-01    1.450000e+00
  SN2h   TC1  1 3.780000e-01    1.450000e+00
  SN1h   TC1  1 3.780000e-01    1.450000e+00
  SC6h   TC1  1 3.780000e-01    1.450000e+00
  SC5h   TC1  1 3.660000e-01    1.600000e+00
  SC4h   TC1  1 3.660000e-01    1.600000e+00
  SC3h   TC1  1 3.650000e-01    1.910000e+00
  SC2h   TC1  1 3.650000e-01    2.110000e+00
 SC2eh   TC1  1 3.650000e-01    2.340000e+00
 SC3eh   TC1  1 3.650000e-01    2.110000e+00
 SC4eh   TC1  1 3.650000e-01    1.750000e+00
 SC5eh   TC1  1 3.650000e-01    1.750000e+00
 SC6eh   TC1  1 3.660000e-01    1.600000e+00
 SC2vh   TC1  1 3.650000e-01    2.340000e+00
 SC3vh   TC1  1 3.650000e-01    2.110000e+00
 SC4vh   TC1  1 3.650000e-01    1.750000e+00
 SC5vh   TC1  1 3.650000e-01    1.750000e+00
 SC6vh   TC1  1 3.660000e-01    1.600000e+00
 SN1ah   TC1  1 3.780000e-01    1.450000e+00
 SN2ah   TC1  1 3.780000e-01    1.450000e+00
 SN3ah   TC1  1 3.780000e-01    1.450000e+00
 SN4ah   TC1  1 3.940000e-01    1.290000e+00
 SN5ah   TC1  1 3.940000e-01    1.290000e+00
 SN6ah   TC1  1 3.940000e-01    1.290000e+00
 SP1ah   TC1  1 4.040000e-01    1.130000e+00
 SP2ah   TC1  1 4.040000e-01    1.130000e+00
 SP3ah   TC1  1 4.090000e-01    1.080000e+00
 SP4ah   TC1  1 4.090000e-01    1.080000e+00
 SP5ah   TC1  1 4.090000e-01    1.080000e+00
 SP6ah   TC1  1 4.840000e-01    8.900000e-01
 SN1dh   TC1  1 3.780000e-01    1.450000e+00
 SN2dh   TC1  1 3.780000e-01    1.450000e+00
 SN3dh   TC1  1 3.780000e-01    1.450000e+00
 SN4dh   TC1  1 3.940000e-01    1.290000e+00
 SN5dh   TC1  1 3.940000e-01    1.290000e+00
 SN6dh   TC1  1 3.940000e-01    1.290000e+00
 SP1dh   TC1  1 4.040000e-01    1.130000e+00
 SP2dh   TC1  1 4.040000e-01    1.130000e+00
 SP3dh   TC1  1 4.090000e-01    1.080000e+00
 SP4dh   TC1  1 4.090000e-01    1.080000e+00
 SP5dh   TC1  1 4.090000e-01    1.080000e+00
 SP6dh   TC1  1 4.840000e-01    8.900000e-01
  SP6r   TC1  1 4.840000e-01    8.900000e-01
  SP5r   TC1  1 4.090000e-01    1.080000e+00
  SP4r   TC1  1 4.090000e-01    1.080000e+00
  SP3r   TC1  1 4.090000e-01    1.080000e+00
  SP2r   TC1  1 4.040000e-01    1.130000e+00
  SP1r   TC1  1 4.040000e-01    1.130000e+00
  SN6r   TC1  1 3.940000e-01    1.290000e+00
  SN5r   TC1  1 3.940000e-01    1.290000e+00
  SN4r   TC1  1 3.940000e-01    1.290000e+00
  SN3r   TC1  1 3.780000e-01    1.450000e+00
  SN2r   TC1  1 3.780000e-01    1.450000e+00
  SN1r   TC1  1 3.780000e-01    1.450000e+00
  SC6r   TC1  1 3.780000e-01    1.450000e+00
  SC5r   TC1  1 3.660000e-01    1.600000e+00
  SC4r   TC1  1 3.660000e-01    1.600000e+00
  SC3r   TC1  1 3.650000e-01    1.910000e+00
  SC2r   TC1  1 3.650000e-01    2.110000e+00
 SC2er   TC1  1 3.650000e-01    2.340000e+00
 SC3er   TC1  1 3.650000e-01    2.110000e+00
 SC4er   TC1  1 3.650000e-01    1.750000e+00
 SC5er   TC1  1 3.650000e-01    1.750000e+00
 SC6er   TC1  1 3.660000e-01    1.600000e+00
 SC2vr   TC1  1 3.650000e-01    2.340000e+00
 SC3vr   TC1  1 3.650000e-01    2.110000e+00
 SC4vr   TC1  1 3.650000e-01    1.750000e+00
 SC5vr   TC1  1 3.650000e-01    1.750000e+00
 SC6vr   TC1  1 3.660000e-01    1.600000e+00
 SN1ar   TC1  1 3.780000e-01    1.450000e+00
 SN2ar   TC1  1 3.780000e-01    1.450000e+00
 SN3ar   TC1  1 3.780000e-01    1.450000e+00
 SN4ar   TC1  1 3.940000e-01    1.290000e+00
 SN5ar   TC1  1 3.940000e-01    1.290000e+00
 SN6ar   TC1  1 3.940000e-01    1.290000e+00
 SP1ar   TC1  1 4.040000e-01    1.130000e+00
 SP2ar   TC1  1 4.040000e-01    1.130000e+00
 SP3ar   TC1  1 4.090000e-01    1.080000e+00
 SP4ar   TC1  1 4.090000e-01    1.080000e+00
 SP5ar   TC1  1 4.090000e-01    1.080000e+00
 SP6ar   TC1  1 4.840000e-01    8.900000e-01
 SN1dr   TC1  1 3.780000e-01    1.450000e+00
 SN2dr   TC1  1 3.780000e-01    1.450000e+00
 SN3dr   TC1  1 3.780000e-01    1.450000e+00
 SN4dr   TC1  1 3.940000e-01    1.290000e+00
 SN5dr   TC1  1 3.940000e-01    1.290000e+00
 SN6dr   TC1  1 3.940000e-01    1.290000e+00
 SP1dr   TC1  1 4.040000e-01    1.130000e+00
 SP2dr   TC1  1 4.040000e-01    1.130000e+00
 SP3dr   TC1  1 4.090000e-01    1.080000e+00
 SP4dr   TC1  1 4.090000e-01    1.080000e+00
 SP5dr   TC1  1 4.090000e-01    1.080000e+00
 SP6dr   TC1  1 4.840000e-01    8.900000e-01
   TC1   SX4  1 3.780000e-01    1.450000e+00
   TC1   SX3  1 3.650000e-01    1.750000e+00
   TC1   SX2  1 3.650000e-01    1.750000e+00
   TC1   SX1  1 3.650000e-01    1.750000e+00
   TC1  SC1v  1 3.650000e-01    2.110000e+00
   TC1  SX1v  1 3.650000e-01    1.910000e+00
   TC1  SX2v  1 3.650000e-01    1.910000e+00
   TC1  SX3v  1 3.650000e-01    1.910000e+00
   TC1  SX4v  1 3.660000e-01    1.600000e+00
   TC1  SC1e  1 3.650000e-01    2.110000e+00
   TC1  SX1e  1 3.650000e-01    1.910000e+00
   TC1  SX2e  1 3.650000e-01    1.910000e+00
   TC1  SX3e  1 3.650000e-01    1.910000e+00
   TC1  SX4e  1 3.660000e-01    1.600000e+00
   TC1  SC1q  1 3.650000e-01    2.340000e+00
   TC1 SX1eq  1 3.650000e-01    2.340000e+00
   TC1 SX2eq  1 3.650000e-01    2.340000e+00
   TC1 SX3eq  1 3.650000e-01    2.340000e+00
   TC1 SX4eq  1 3.650000e-01    1.910000e+00
   TC1 SC1eq  1 3.650000e-01    2.570000e+00
   TC1 SX1vq  1 3.650000e-01    2.340000e+00
   TC1 SX2vq  1 3.650000e-01    2.340000e+00
   TC1 SX3vq  1 3.650000e-01    2.340000e+00
   TC1 SX4vq  1 3.650000e-01    1.910000e+00
   TC1 SC1vq  1 3.650000e-01    2.570000e+00
   TC1  SX1q  1 3.650000e-01    2.110000e+00
   TC1  SX2q  1 3.650000e-01    2.110000e+00
   TC1  SX3q  1 3.650000e-01    2.110000e+00
   TC1  SX4q  1 3.650000e-01    1.750000e+00
   TC1  SC1h  1 3.650000e-01    1.910000e+00
   TC1 SX1eh  1 3.650000e-01    1.910000e+00
   TC1 SX2eh  1 3.650000e-01    1.910000e+00
   TC1 SX3eh  1 3.650000e-01    1.910000e+00
   TC1 SX4eh  1 3.660000e-01    1.600000e+00
   TC1 SC1eh  1 3.650000e-01    2.110000e+00
   TC1 SX1vh  1 3.650000e-01    1.910000e+00
   TC1 SX2vh  1 3.650000e-01    1.910000e+00
   TC1 SX3vh  1 3.650000e-01    1.910000e+00
   TC1 SX4vh  1 3.660000e-01    1.600000e+00
   TC1 SC1vh  1 3.650000e-01    2.110000e+00
   TC1  SX1h  1 3.650000e-01    1.750000e+00
   TC1  SX2h  1 3.650000e-01    1.750000e+00
   TC1  SX3h  1 3.650000e-01    1.750000e+00
   TC1  SX4h  1 3.780000e-01    1.450000e+00
   TC1  SC1r  1 3.650000e-01    1.910000e+00
   TC1 SX1er  1 3.650000e-01    1.910000e+00
   TC1 SX2er  1 3.650000e-01    1.910000e+00
   TC1 SX3er  1 3.650000e-01    1.910000e+00
   TC1 SX4er  1 3.660000e-01    1.600000e+00
   TC1 SC1er  1 3.650000e-01    2.110000e+00
   TC1 SX1vr  1 3.650000e-01    1.910000e+00
   TC1 SX2vr  1 3.650000e-01    1.910000e+00
   TC1 SX3vr  1 3.650000e-01    1.910000e+00
   TC1 SX4vr  1 3.660000e-01    1.600000e+00
   TC1 SC1vr  1 3.650000e-01    2.110000e+00
   TC1  SX1r  1 3.650000e-01    1.750000e+00
   TC1  SX2r  1 3.650000e-01    1.750000e+00
   TC1  SX3r  1 3.650000e-01    1.750000e+00
   TC1  SX4r  1 3.780000e-01    1.450000e+00
    X4    X4  1 4.700000e-01    3.390000e+00
    X4    X3  1 4.700000e-01    3.390000e+00
    X4    X2  1 4.700000e-01    3.390000e+00
    X4    X1  1 4.700000e-01    3.390000e+00
   P6d    X4  1 4.700000e-01    3.070000e+00
   P5d    X4  1 4.700000e-01    3.240000e+00
   P4d    X4  1 4.700000e-01    3.240000e+00
   P3d    X4  1 4.700000e-01    3.240000e+00
   P2d    X4  1 4.700000e-01    3.240000e+00
   P1d    X4  1 4.700000e-01    3.240000e+00
   N6d    X4  1 4.700000e-01    3.390000e+00
   N5d    X4  1 4.700000e-01    3.520000e+00
   N4d    X4  1 4.700000e-01    3.690000e+00
   N3d    X4  1 4.700000e-01    3.520000e+00
   N2d    X4  1 4.700000e-01    3.520000e+00
   N1d    X4  1 4.700000e-01    3.390000e+00
   P6a    X4  1 4.700000e-01    3.070000e+00
   P5a    X4  1 4.700000e-01    3.240000e+00
   P4a    X4  1 4.700000e-01    3.240000e+00
   P3a    X4  1 4.700000e-01    3.240000e+00
   P2a    X4  1 4.700000e-01    3.240000e+00
   P1a    X4  1 4.700000e-01    3.240000e+00
   N6a    X4  1 4.700000e-01    3.390000e+00
   N5a    X4  1 4.700000e-01    3.520000e+00
   N4a    X4  1 4.700000e-01    3.690000e+00
   N3a    X4  1 4.700000e-01    3.520000e+00
   N2a    X4  1 4.700000e-01    3.520000e+00
   N1a    X4  1 4.700000e-01    3.390000e+00
   C6v    X4  1 4.700000e-01    3.520000e+00
   C5v    X4  1 4.700000e-01    3.390000e+00
   C4v    X4  1 4.700000e-01    3.390000e+00
   C3v    X4  1 4.700000e-01    3.390000e+00
   C2v    X4  1 4.700000e-01    3.070000e+00
   C1v    X4  1 4.700000e-01    3.070000e+00
    X4   X4v  1 4.700000e-01    3.520000e+00
    X4   X1v  1 4.700000e-01    3.520000e+00
    X4   X2v  1 4.700000e-01    3.520000e+00
    X4   X3v  1 4.700000e-01    3.520000e+00
   C6e    X4  1 4.700000e-01    3.520000e+00
   C5e    X4  1 4.700000e-01    3.390000e+00
   C4e    X4  1 4.700000e-01    3.390000e+00
   C3e    X4  1 4.700000e-01    3.390000e+00
   C2e    X4  1 4.700000e-01    3.070000e+00
   C1e    X4  1 4.700000e-01    3.070000e+00
    X4   X4e  1 4.700000e-01    3.520000e+00
    X4   X1e  1 4.700000e-01    3.520000e+00
    X4   X2e  1 4.700000e-01    3.520000e+00
    X4   X3e  1 4.700000e-01    3.520000e+00
   P6q    X4  1 4.700000e-01    3.390000e+00
   P5q    X4  1 4.700000e-01    3.520000e+00
   P4q    X4  1 4.700000e-01    3.520000e+00
   P3q    X4  1 4.700000e-01    3.520000e+00
   P2q    X4  1 4.700000e-01    3.520000e+00
   P1q    X4  1 4.700000e-01    3.520000e+00
   N6q    X4  1 4.700000e-01    3.690000e+00
   N5q    X4  1 4.700000e-01    3.880000e+00
   N4q    X4  1 4.700000e-01    4.060000e+00
   N3q    X4  1 4.700000e-01    3.880000e+00
   N2q    X4  1 4.700000e-01    3.880000e+00
   N1q    X4  1 4.700000e-01    3.690000e+00
   C6q    X4  1 4.700000e-01    3.690000e+00
   C5q    X4  1 4.700000e-01    3.520000e+00
   C4q    X4  1 4.700000e-01    3.520000e+00
   C3q    X4  1 4.700000e-01    3.520000e+00
   C2q    X4  1 4.700000e-01    3.240000e+00
   C1q    X4  1 4.700000e-01    3.240000e+00
    X4   X4q  1 4.700000e-01    3.690000e+00
    X4  X1eq  1 4.700000e-01    3.880000e+00
    X4  X2eq  1 4.700000e-01    3.880000e+00
    X4  X3eq  1 4.700000e-01    3.880000e+00
    X4  X4eq  1 4.700000e-01    3.880000e+00
  C1eq    X4  1 4.700000e-01    3.390000e+00
  C2eq    X4  1 4.700000e-01    3.390000e+00
  C3eq    X4  1 4.700000e-01    3.690000e+00
  C4eq    X4  1 4.700000e-01    3.690000e+00
  C5eq    X4  1 4.700000e-01    3.690000e+00
  C6eq    X4  1 4.700000e-01    3.880000e+00
    X4  X1vq  1 4.700000e-01    3.880000e+00
    X4  X2vq  1 4.700000e-01    3.880000e+00
    X4  X3vq  1 4.700000e-01    3.880000e+00
    X4  X4vq  1 4.700000e-01    3.880000e+00
  C1vq    X4  1 4.700000e-01    3.390000e+00
  C2vq    X4  1 4.700000e-01    3.390000e+00
  C3vq    X4  1 4.700000e-01    3.690000e+00
  C4vq    X4  1 4.700000e-01    3.690000e+00
  C5vq    X4  1 4.700000e-01    3.690000e+00
  C6vq    X4  1 4.700000e-01    3.880000e+00
  N1aq    X4  1 4.700000e-01    3.690000e+00
  N2aq    X4  1 4.700000e-01    3.880000e+00
  N3aq    X4  1 4.700000e-01    3.880000e+00
  N4aq    X4  1 4.700000e-01    4.060000e+00
  N5aq    X4  1 4.700000e-01    3.880000e+00
  N6aq    X4  1 4.700000e-01    3.690000e+00
  P1aq    X4  1 4.700000e-01    3.520000e+00
  P2aq    X4  1 4.700000e-01    3.520000e+00
  P3aq    X4  1 4.700000e-01    3.520000e+00
  P4aq    X4  1 4.700000e-01    3.520000e+00
  P5aq    X4  1 4.700000e-01    3.520000e+00
  P6aq    X4  1 4.700000e-01    3.390000e+00
  N1dq    X4  1 4.700000e-01    3.690000e+00
  N2dq    X4  1 4.700000e-01    3.880000e+00
  N3dq    X4  1 4.700000e-01    3.880000e+00
  N4dq    X4  1 4.700000e-01    4.060000e+00
  N5dq    X4  1 4.700000e-01    3.880000e+00
  N6dq    X4  1 4.700000e-01    3.690000e+00
  P1dq    X4  1 4.700000e-01    3.520000e+00
  P2dq    X4  1 4.700000e-01    3.520000e+00
  P3dq    X4  1 4.700000e-01    3.520000e+00
  P4dq    X4  1 4.700000e-01    3.520000e+00
  P5dq    X4  1 4.700000e-01    3.520000e+00
  P6dq    X4  1 4.700000e-01    3.390000e+00
    X4   X1q  1 4.700000e-01    3.690000e+00
    X4   X2q  1 4.700000e-01    3.690000e+00
    X4   X3q  1 4.700000e-01    3.690000e+00
   P6h    X4  1 4.700000e-01    3.070000e+00
   P5h    X4  1 4.700000e-01    3.240000e+00
   P4h    X4  1 4.700000e-01    3.240000e+00
   P3h    X4  1 4.700000e-01    3.240000e+00
   P2h    X4  1 4.700000e-01    3.240000e+00
   P1h    X4  1 4.700000e-01    3.240000e+00
   N6h    X4  1 4.700000e-01    3.390000e+00
   N5h    X4  1 4.700000e-01    3.520000e+00
   N4h    X4  1 4.700000e-01    3.690000e+00
   N3h    X4  1 4.700000e-01    3.520000e+00
   N2h    X4  1 4.700000e-01    3.520000e+00
   N1h    X4  1 4.700000e-01    3.390000e+00
   C6h    X4  1 4.700000e-01    3.390000e+00
   C5h    X4  1 4.700000e-01    3.240000e+00
   C4h    X4  1 4.700000e-01    3.240000e+00
   C3h    X4  1 4.700000e-01    3.240000e+00
   C2h    X4  1 4.700000e-01    2.960000e+00
   C1h    X4  1 4.700000e-01    2.960000e+00
    X4   X4h  1 4.700000e-01    3.390000e+00
    X4  X1eh  1 4.700000e-01    3.520000e+00
    X4  X2eh  1 4.700000e-01    3.520000e+00
    X4  X3eh  1 4.700000e-01    3.520000e+00
    X4  X4eh  1 4.700000e-01    3.520000e+00
  C1eh    X4  1 4.700000e-01    3.070000e+00
  C2eh    X4  1 4.700000e-01    3.070000e+00
  C3eh    X4  1 4.700000e-01    3.390000e+00
  C4eh    X4  1 4.700000e-01    3.390000e+00
  C5eh    X4  1 4.700000e-01    3.390000e+00
  C6eh    X4  1 4.700000e-01    3.520000e+00
    X4  X1vh  1 4.700000e-01    3.520000e+00
    X4  X2vh  1 4.700000e-01    3.520000e+00
    X4  X3vh  1 4.700000e-01    3.520000e+00
    X4  X4vh  1 4.700000e-01    3.520000e+00
  C1vh    X4  1 4.700000e-01    3.070000e+00
  C2vh    X4  1 4.700000e-01    3.070000e+00
  C3vh    X4  1 4.700000e-01    3.390000e+00
  C4vh    X4  1 4.700000e-01    3.390000e+00
  C5vh    X4  1 4.700000e-01    3.390000e+00
  C6vh    X4  1 4.700000e-01    3.520000e+00
  N1ah    X4  1 4.700000e-01    3.390000e+00
  N2ah    X4  1 4.700000e-01    3.520000e+00
  N3ah    X4  1 4.700000e-01    3.520000e+00
  N4ah    X4  1 4.700000e-01    3.690000e+00
  N5ah    X4  1 4.700000e-01    3.520000e+00
  N6ah    X4  1 4.700000e-01    3.390000e+00
  P1ah    X4  1 4.700000e-01    3.240000e+00
  P2ah    X4  1 4.700000e-01    3.240000e+00
  P3ah    X4  1 4.700000e-01    3.240000e+00
  P4ah    X4  1 4.700000e-01    3.240000e+00
  P5ah    X4  1 4.700000e-01    3.240000e+00
  P6ah    X4  1 4.700000e-01    3.070000e+00
  N1dh    X4  1 4.700000e-01    3.390000e+00
  N2dh    X4  1 4.700000e-01    3.520000e+00
  N3dh    X4  1 4.700000e-01    3.520000e+00
  N4dh    X4  1 4.700000e-01    3.690000e+00
  N5dh    X4  1 4.700000e-01    3.520000e+00
  N6dh    X4  1 4.700000e-01    3.390000e+00
  P1dh    X4  1 4.700000e-01    3.240000e+00
  P2dh    X4  1 4.700000e-01    3.240000e+00
  P3dh    X4  1 4.700000e-01    3.240000e+00
  P4dh    X4  1 4.700000e-01    3.240000e+00
  P5dh    X4  1 4.700000e-01    3.240000e+00
  P6dh    X4  1 4.700000e-01    3.070000e+00
    X4   X1h  1 4.700000e-01    3.390000e+00
    X4   X2h  1 4.700000e-01    3.390000e+00
    X4   X3h  1 4.700000e-01    3.390000e+00
   P6r    X4  1 4.700000e-01    3.070000e+00
   P5r    X4  1 4.700000e-01    3.240000e+00
   P4r    X4  1 4.700000e-01    3.240000e+00
   P3r    X4  1 4.700000e-01    3.240000e+00
   P2r    X4  1 4.700000e-01    3.240000e+00
   P1r    X4  1 4.700000e-01    3.240000e+00
   N6r    X4  1 4.700000e-01    3.390000e+00
   N5r    X4  1 4.700000e-01    3.520000e+00
   N4r    X4  1 4.700000e-01    3.690000e+00
   N3r    X4  1 4.700000e-01    3.520000e+00
   N2r    X4  1 4.700000e-01    3.520000e+00
   N1r    X4  1 4.700000e-01    3.390000e+00
   C6r    X4  1 4.700000e-01    3.390000e+00
   C5r    X4  1 4.700000e-01    3.240000e+00
   C4r    X4  1 4.700000e-01    3.240000e+00
   C3r    X4  1 4.700000e-01    3.240000e+00
   C2r    X4  1 4.700000e-01    2.960000e+00
   C1r    X4  1 4.700000e-01    2.960000e+00
    X4   X4r  1 4.700000e-01    3.390000e+00
    X4  X1er  1 4.700000e-01    3.520000e+00
    X4  X2er  1 4.700000e-01    3.520000e+00
    X4  X3er  1 4.700000e-01    3.520000e+00
    X4  X4er  1 4.700000e-01    3.520000e+00
  C1er    X4  1 4.700000e-01    3.070000e+00
  C2er    X4  1 4.700000e-01    3.070000e+00
  C3er    X4  1 4.700000e-01    3.390000e+00
  C4er    X4  1 4.700000e-01    3.390000e+00
  C5er    X4  1 4.700000e-01    3.390000e+00
  C6er    X4  1 4.700000e-01    3.520000e+00
    X4  X1vr  1 4.700000e-01    3.520000e+00
    X4  X2vr  1 4.700000e-01    3.520000e+00
    X4  X3vr  1 4.700000e-01    3.520000e+00
    X4  X4vr  1 4.700000e-01    3.520000e+00
  C1vr    X4  1 4.700000e-01    3.070000e+00
  C2vr    X4  1 4.700000e-01    3.070000e+00
  C3vr    X4  1 4.700000e-01    3.390000e+00
  C4vr    X4  1 4.700000e-01    3.390000e+00
  C5vr    X4  1 4.700000e-01    3.390000e+00
  C6vr    X4  1 4.700000e-01    3.520000e+00
  N1ar    X4  1 4.700000e-01    3.390000e+00
  N2ar    X4  1 4.700000e-01    3.520000e+00
  N3ar    X4  1 4.700000e-01    3.520000e+00
  N4ar    X4  1 4.700000e-01    3.690000e+00
  N5ar    X4  1 4.700000e-01    3.520000e+00
  N6ar    X4  1 4.700000e-01    3.390000e+00
  P1ar    X4  1 4.700000e-01    3.240000e+00
  P2ar    X4  1 4.700000e-01    3.240000e+00
  P3ar    X4  1 4.700000e-01    3.240000e+00
  P4ar    X4  1 4.700000e-01    3.240000e+00
  P5ar    X4  1 4.700000e-01    3.240000e+00
  P6ar    X4  1 4.700000e-01    3.070000e+00
  N1dr    X4  1 4.700000e-01    3.390000e+00
  N2dr    X4  1 4.700000e-01    3.520000e+00
  N3dr    X4  1 4.700000e-01    3.520000e+00
  N4dr    X4  1 4.700000e-01    3.690000e+00
  N5dr    X4  1 4.700000e-01    3.520000e+00
  N6dr    X4  1 4.700000e-01    3.390000e+00
  P1dr    X4  1 4.700000e-01    3.240000e+00
  P2dr    X4  1 4.700000e-01    3.240000e+00
  P3dr    X4  1 4.700000e-01    3.240000e+00
  P4dr    X4  1 4.700000e-01    3.240000e+00
  P5dr    X4  1 4.700000e-01    3.240000e+00
  P6dr    X4  1 4.700000e-01    3.070000e+00
    X4   X1r  1 4.700000e-01    3.390000e+00
    X4   X2r  1 4.700000e-01    3.390000e+00
    X4   X3r  1 4.700000e-01    3.390000e+00
    X4   SX4  1 4.300000e-01    2.920000e+00
    X4   SX3  1 4.300000e-01    2.920000e+00
    X4   SX2  1 4.300000e-01    2.920000e+00
    X4   SX1  1 4.300000e-01    2.920000e+00
    X4  SX4v  1 4.300000e-01    3.160000e+00
    X4  SX1v  1 4.300000e-01    3.160000e+00
    X4  SX2v  1 4.300000e-01    3.160000e+00
    X4  SX3v  1 4.300000e-01    3.160000e+00
    X4  SX4e  1 4.300000e-01    3.160000e+00
    X4  SX1e  1 4.300000e-01    3.160000e+00
    X4  SX2e  1 4.300000e-01    3.160000e+00
    X4  SX3e  1 4.300000e-01    3.160000e+00
    X4  SX4q  1 4.300000e-01    3.380000e+00
    X4 SX1eq  1 4.300000e-01    3.590000e+00
    X4 SX2eq  1 4.300000e-01    3.590000e+00
    X4 SX3eq  1 4.300000e-01    3.590000e+00
    X4 SX4eq  1 4.300000e-01    3.590000e+00
    X4 SX1vq  1 4.300000e-01    3.590000e+00
    X4 SX2vq  1 4.300000e-01    3.590000e+00
    X4 SX3vq  1 4.300000e-01    3.590000e+00
    X4 SX4vq  1 4.300000e-01    3.590000e+00
    X4  SX1q  1 4.300000e-01    3.380000e+00
    X4  SX2q  1 4.300000e-01    3.380000e+00
    X4  SX3q  1 4.300000e-01    3.380000e+00
    X4  SX4h  1 4.300000e-01    2.920000e+00
    X4 SX1eh  1 4.300000e-01    3.160000e+00
    X4 SX2eh  1 4.300000e-01    3.160000e+00
    X4 SX3eh  1 4.300000e-01    3.160000e+00
    X4 SX4eh  1 4.300000e-01    3.160000e+00
    X4 SX1vh  1 4.300000e-01    3.160000e+00
    X4 SX2vh  1 4.300000e-01    3.160000e+00
    X4 SX3vh  1 4.300000e-01    3.160000e+00
    X4 SX4vh  1 4.300000e-01    3.160000e+00
    X4  SX1h  1 4.300000e-01    2.920000e+00
    X4  SX2h  1 4.300000e-01    2.920000e+00
    X4  SX3h  1 4.300000e-01    2.920000e+00
    X4  SX4r  1 4.300000e-01    2.920000e+00
    X4 SX1er  1 4.300000e-01    3.160000e+00
    X4 SX2er  1 4.300000e-01    3.160000e+00
    X4 SX3er  1 4.300000e-01    3.160000e+00
    X4 SX4er  1 4.300000e-01    3.160000e+00
    X4 SX1vr  1 4.300000e-01    3.160000e+00
    X4 SX2vr  1 4.300000e-01    3.160000e+00
    X4 SX3vr  1 4.300000e-01    3.160000e+00
    X4 SX4vr  1 4.300000e-01    3.160000e+00
    X4  SX1r  1 4.300000e-01    2.920000e+00
    X4  SX2r  1 4.300000e-01    2.920000e+00
    X4  SX3r  1 4.300000e-01    2.920000e+00
  SP6d    X4  1 4.300000e-01    2.530000e+00
  SP5d    X4  1 4.300000e-01    2.770000e+00
  SP4d    X4  1 4.300000e-01    2.770000e+00
  SP3d    X4  1 4.300000e-01    2.770000e+00
  SP2d    X4  1 4.300000e-01    2.770000e+00
  SP1d    X4  1 4.300000e-01    2.770000e+00
  SN6d    X4  1 4.300000e-01    2.920000e+00
  SN5d    X4  1 4.300000e-01    3.160000e+00
  SN4d    X4  1 4.300000e-01    3.380000e+00
  SN3d    X4  1 4.300000e-01    3.160000e+00
  SN2d    X4  1 4.300000e-01    3.160000e+00
  SN1d    X4  1 4.300000e-01    2.920000e+00
  SP6a    X4  1 4.300000e-01    2.530000e+00
  SP5a    X4  1 4.300000e-01    2.770000e+00
  SP4a    X4  1 4.300000e-01    2.770000e+00
  SP3a    X4  1 4.300000e-01    2.770000e+00
  SP2a    X4  1 4.300000e-01    2.770000e+00
  SP1a    X4  1 4.300000e-01    2.770000e+00
  SN6a    X4  1 4.300000e-01    2.920000e+00
  SN5a    X4  1 4.300000e-01    3.160000e+00
  SN4a    X4  1 4.300000e-01    3.380000e+00
  SN3a    X4  1 4.300000e-01    3.160000e+00
  SN2a    X4  1 4.300000e-01    3.160000e+00
  SN1a    X4  1 4.300000e-01    2.920000e+00
  SC6v    X4  1 4.300000e-01    3.160000e+00
  SC5v    X4  1 4.300000e-01    2.920000e+00
  SC4v    X4  1 4.300000e-01    2.920000e+00
  SC3v    X4  1 4.300000e-01    2.920000e+00
  SC2v    X4  1 4.300000e-01    2.530000e+00
  SC1v    X4  1 4.300000e-01    2.530000e+00
  SC6e    X4  1 4.300000e-01    3.160000e+00
  SC5e    X4  1 4.300000e-01    2.920000e+00
  SC4e    X4  1 4.300000e-01    2.920000e+00
  SC3e    X4  1 4.300000e-01    2.920000e+00
  SC2e    X4  1 4.300000e-01    2.530000e+00
  SC1e    X4  1 4.300000e-01    2.530000e+00
  SP6q    X4  1 4.300000e-01    2.920000e+00
  SP5q    X4  1 4.300000e-01    3.160000e+00
  SP4q    X4  1 4.300000e-01    3.160000e+00
  SP3q    X4  1 4.300000e-01    3.160000e+00
  SP2q    X4  1 4.300000e-01    3.160000e+00
  SP1q    X4  1 4.300000e-01    3.160000e+00
  SN6q    X4  1 4.300000e-01    3.380000e+00
  SN5q    X4  1 4.300000e-01    3.590000e+00
  SN4q    X4  1 4.300000e-01    3.770000e+00
  SN3q    X4  1 4.300000e-01    3.590000e+00
  SN2q    X4  1 4.300000e-01    3.590000e+00
  SN1q    X4  1 4.300000e-01    3.380000e+00
  SC6q    X4  1 4.300000e-01    3.380000e+00
  SC5q    X4  1 4.300000e-01    3.160000e+00
  SC4q    X4  1 4.300000e-01    3.160000e+00
  SC3q    X4  1 4.300000e-01    3.160000e+00
  SC2q    X4  1 4.300000e-01    2.770000e+00
  SC1q    X4  1 4.300000e-01    2.770000e+00
 SC1eq    X4  1 4.300000e-01    2.920000e+00
 SC2eq    X4  1 4.300000e-01    2.920000e+00
 SC3eq    X4  1 4.300000e-01    3.380000e+00
 SC4eq    X4  1 4.300000e-01    3.380000e+00
 SC5eq    X4  1 4.300000e-01    3.380000e+00
 SC6eq    X4  1 4.300000e-01    3.590000e+00
 SC1vq    X4  1 4.300000e-01    2.920000e+00
 SC2vq    X4  1 4.300000e-01    2.920000e+00
 SC3vq    X4  1 4.300000e-01    3.380000e+00
 SC4vq    X4  1 4.300000e-01    3.380000e+00
 SC5vq    X4  1 4.300000e-01    3.380000e+00
 SC6vq    X4  1 4.300000e-01    3.590000e+00
 SN1aq    X4  1 4.300000e-01    3.380000e+00
 SN2aq    X4  1 4.300000e-01    3.590000e+00
 SN3aq    X4  1 4.300000e-01    3.590000e+00
 SN4aq    X4  1 4.300000e-01    3.770000e+00
 SN5aq    X4  1 4.300000e-01    3.590000e+00
 SN6aq    X4  1 4.300000e-01    3.380000e+00
 SP1aq    X4  1 4.300000e-01    3.160000e+00
 SP2aq    X4  1 4.300000e-01    3.160000e+00
 SP3aq    X4  1 4.300000e-01    3.160000e+00
 SP4aq    X4  1 4.300000e-01    3.160000e+00
 SP5aq    X4  1 4.300000e-01    3.160000e+00
 SP6aq    X4  1 4.300000e-01    2.920000e+00
 SN1dq    X4  1 4.300000e-01    3.380000e+00
 SN2dq    X4  1 4.300000e-01    3.590000e+00
 SN3dq    X4  1 4.300000e-01    3.590000e+00
 SN4dq    X4  1 4.300000e-01    3.770000e+00
 SN5dq    X4  1 4.300000e-01    3.590000e+00
 SN6dq    X4  1 4.300000e-01    3.380000e+00
 SP1dq    X4  1 4.300000e-01    3.160000e+00
 SP2dq    X4  1 4.300000e-01    3.160000e+00
 SP3dq    X4  1 4.300000e-01    3.160000e+00
 SP4dq    X4  1 4.300000e-01    3.160000e+00
 SP5dq    X4  1 4.300000e-01    3.160000e+00
 SP6dq    X4  1 4.300000e-01    2.920000e+00
  SP6h    X4  1 4.300000e-01    2.530000e+00
  SP5h    X4  1 4.300000e-01    2.770000e+00
  SP4h    X4  1 4.300000e-01    2.770000e+00
  SP3h    X4  1 4.300000e-01    2.770000e+00
  SP2h    X4  1 4.300000e-01    2.770000e+00
  SP1h    X4  1 4.300000e-01    2.770000e+00
  SN6h    X4  1 4.300000e-01    2.920000e+00
  SN5h    X4  1 4.300000e-01    3.160000e+00
  SN4h    X4  1 4.300000e-01    3.380000e+00
  SN3h    X4  1 4.300000e-01    3.160000e+00
  SN2h    X4  1 4.300000e-01    3.160000e+00
  SN1h    X4  1 4.300000e-01    2.920000e+00
  SC6h    X4  1 4.300000e-01    2.920000e+00
  SC5h    X4  1 4.300000e-01    2.770000e+00
  SC4h    X4  1 4.300000e-01    2.770000e+00
  SC3h    X4  1 4.300000e-01    2.770000e+00
  SC2h    X4  1 4.300000e-01    2.320000e+00
  SC1h    X4  1 4.300000e-01    2.320000e+00
 SC1eh    X4  1 4.300000e-01    2.530000e+00
 SC2eh    X4  1 4.300000e-01    2.530000e+00
 SC3eh    X4  1 4.300000e-01    2.920000e+00
 SC4eh    X4  1 4.300000e-01    2.920000e+00
 SC5eh    X4  1 4.300000e-01    2.920000e+00
 SC6eh    X4  1 4.300000e-01    3.160000e+00
 SC1vh    X4  1 4.300000e-01    2.530000e+00
 SC2vh    X4  1 4.300000e-01    2.530000e+00
 SC3vh    X4  1 4.300000e-01    2.920000e+00
 SC4vh    X4  1 4.300000e-01    2.920000e+00
 SC5vh    X4  1 4.300000e-01    2.920000e+00
 SC6vh    X4  1 4.300000e-01    3.160000e+00
 SN1ah    X4  1 4.300000e-01    2.920000e+00
 SN2ah    X4  1 4.300000e-01    3.160000e+00
 SN3ah    X4  1 4.300000e-01    3.160000e+00
 SN4ah    X4  1 4.300000e-01    3.380000e+00
 SN5ah    X4  1 4.300000e-01    3.160000e+00
 SN6ah    X4  1 4.300000e-01    2.920000e+00
 SP1ah    X4  1 4.300000e-01    2.770000e+00
 SP2ah    X4  1 4.300000e-01    2.770000e+00
 SP3ah    X4  1 4.300000e-01    2.770000e+00
 SP4ah    X4  1 4.300000e-01    2.770000e+00
 SP5ah    X4  1 4.300000e-01    2.770000e+00
 SP6ah    X4  1 4.300000e-01    2.530000e+00
 SN1dh    X4  1 4.300000e-01    2.920000e+00
 SN2dh    X4  1 4.300000e-01    3.160000e+00
 SN3dh    X4  1 4.300000e-01    3.160000e+00
 SN4dh    X4  1 4.300000e-01    3.380000e+00
 SN5dh    X4  1 4.300000e-01    3.160000e+00
 SN6dh    X4  1 4.300000e-01    2.920000e+00
 SP1dh    X4  1 4.300000e-01    2.770000e+00
 SP2dh    X4  1 4.300000e-01    2.770000e+00
 SP3dh    X4  1 4.300000e-01    2.770000e+00
 SP4dh    X4  1 4.300000e-01    2.770000e+00
 SP5dh    X4  1 4.300000e-01    2.770000e+00
 SP6dh    X4  1 4.300000e-01    2.530000e+00
  SP6r    X4  1 4.300000e-01    2.530000e+00
  SP5r    X4  1 4.300000e-01    2.770000e+00
  SP4r    X4  1 4.300000e-01    2.770000e+00
  SP3r    X4  1 4.300000e-01    2.770000e+00
  SP2r    X4  1 4.300000e-01    2.770000e+00
  SP1r    X4  1 4.300000e-01    2.770000e+00
  SN6r    X4  1 4.300000e-01    2.920000e+00
  SN5r    X4  1 4.300000e-01    3.160000e+00
  SN4r    X4  1 4.300000e-01    3.380000e+00
  SN3r    X4  1 4.300000e-01    3.160000e+00
  SN2r    X4  1 4.300000e-01    3.160000e+00
  SN1r    X4  1 4.300000e-01    2.920000e+00
  SC6r    X4  1 4.300000e-01    2.920000e+00
  SC5r    X4  1 4.300000e-01    2.770000e+00
  SC4r    X4  1 4.300000e-01    2.770000e+00
  SC3r    X4  1 4.300000e-01    2.770000e+00
  SC2r    X4  1 4.300000e-01    2.320000e+00
  SC1r    X4  1 4.300000e-01    2.320000e+00
 SC1er    X4  1 4.300000e-01    2.530000e+00
 SC2er    X4  1 4.300000e-01    2.530000e+00
 SC3er    X4  1 4.300000e-01    2.920000e+00
 SC4er    X4  1 4.300000e-01    2.920000e+00
 SC5er    X4  1 4.300000e-01    2.920000e+00
 SC6er    X4  1 4.300000e-01    3.160000e+00
 SC1vr    X4  1 4.300000e-01    2.530000e+00
 SC2vr    X4  1 4.300000e-01    2.530000e+00
 SC3vr    X4  1 4.300000e-01    2.920000e+00
 SC4vr    X4  1 4.300000e-01    2.920000e+00
 SC5vr    X4  1 4.300000e-01    2.920000e+00
 SC6vr    X4  1 4.300000e-01    3.160000e+00
 SN1ar    X4  1 4.300000e-01    2.920000e+00
 SN2ar    X4  1 4.300000e-01    3.160000e+00
 SN3ar    X4  1 4.300000e-01    3.160000e+00
 SN4ar    X4  1 4.300000e-01    3.380000e+00
 SN5ar    X4  1 4.300000e-01    3.160000e+00
 SN6ar    X4  1 4.300000e-01    2.920000e+00
 SP1ar    X4  1 4.300000e-01    2.770000e+00
 SP2ar    X4  1 4.300000e-01    2.770000e+00
 SP3ar    X4  1 4.300000e-01    2.770000e+00
 SP4ar    X4  1 4.300000e-01    2.770000e+00
 SP5ar    X4  1 4.300000e-01    2.770000e+00
 SP6ar    X4  1 4.300000e-01    2.530000e+00
 SN1dr    X4  1 4.300000e-01    2.920000e+00
 SN2dr    X4  1 4.300000e-01    3.160000e+00
 SN3dr    X4  1 4.300000e-01    3.160000e+00
 SN4dr    X4  1 4.300000e-01    3.380000e+00
 SN5dr    X4  1 4.300000e-01    3.160000e+00
 SN6dr    X4  1 4.300000e-01    2.920000e+00
 SP1dr    X4  1 4.300000e-01    2.770000e+00
 SP2dr    X4  1 4.300000e-01    2.770000e+00
 SP3dr    X4  1 4.300000e-01    2.770000e+00
 SP4dr    X4  1 4.300000e-01    2.770000e+00
 SP5dr    X4  1 4.300000e-01    2.770000e+00
 SP6dr    X4  1 4.300000e-01    2.530000e+00
    X4   TX4  1 3.950000e-01    2.310000e+00
    X4   TX3  1 3.950000e-01    2.310000e+00
    X4   TX2  1 3.950000e-01    2.310000e+00
    X4   TX1  1 3.950000e-01    2.310000e+00
    X4  TX4v  1 3.950000e-01    2.500000e+00
    X4  TX1v  1 3.950000e-01    2.500000e+00
    X4  TX2v  1 3.950000e-01    2.500000e+00
    X4  TX3v  1 3.950000e-01    2.500000e+00
    X4  TX4e  1 3.950000e-01    2.500000e+00
    X4  TX1e  1 3.950000e-01    2.500000e+00
    X4  TX2e  1 3.950000e-01    2.500000e+00
    X4  TX3e  1 3.950000e-01    2.500000e+00
    X4  TX4q  1 3.950000e-01    2.700000e+00
    X4 TX1eq  1 3.950000e-01    2.940000e+00
    X4 TX2eq  1 3.950000e-01    2.940000e+00
    X4 TX3eq  1 3.950000e-01    2.940000e+00
    X4 TX4eq  1 3.950000e-01    2.940000e+00
    X4 TX1vq  1 3.950000e-01    2.940000e+00
    X4 TX2vq  1 3.950000e-01    2.940000e+00
    X4 TX3vq  1 3.950000e-01    2.940000e+00
    X4 TX4vq  1 3.950000e-01    2.940000e+00
    X4  TX1q  1 3.950000e-01    2.700000e+00
    X4  TX2q  1 3.950000e-01    2.700000e+00
    X4  TX3q  1 3.950000e-01    2.700000e+00
    X4  TX4h  1 3.950000e-01    2.310000e+00
    X4 TX1eh  1 3.950000e-01    2.500000e+00
    X4 TX2eh  1 3.950000e-01    2.500000e+00
    X4 TX3eh  1 3.950000e-01    2.500000e+00
    X4 TX4eh  1 3.950000e-01    2.500000e+00
    X4 TX1vh  1 3.950000e-01    2.500000e+00
    X4 TX2vh  1 3.950000e-01    2.500000e+00
    X4 TX3vh  1 3.950000e-01    2.500000e+00
    X4 TX4vh  1 3.950000e-01    2.500000e+00
    X4  TX1h  1 3.950000e-01    2.310000e+00
    X4  TX2h  1 3.950000e-01    2.310000e+00
    X4  TX3h  1 3.950000e-01    2.310000e+00
    X4  TX4r  1 3.950000e-01    2.310000e+00
    X4 TX1er  1 3.950000e-01    2.500000e+00
    X4 TX2er  1 3.950000e-01    2.500000e+00
    X4 TX3er  1 3.950000e-01    2.500000e+00
    X4 TX4er  1 3.950000e-01    2.500000e+00
    X4 TX1vr  1 3.950000e-01    2.500000e+00
    X4 TX2vr  1 3.950000e-01    2.500000e+00
    X4 TX3vr  1 3.950000e-01    2.500000e+00
    X4 TX4vr  1 3.950000e-01    2.500000e+00
    X4  TX1r  1 3.950000e-01    2.310000e+00
    X4  TX2r  1 3.950000e-01    2.310000e+00
    X4  TX3r  1 3.950000e-01    2.310000e+00
  TP6d    X4  1 3.950000e-01    1.850000e+00
  TP5d    X4  1 3.950000e-01    2.110000e+00
  TP4d    X4  1 3.950000e-01    2.110000e+00
  TP3d    X4  1 3.950000e-01    2.110000e+00
  TP2d    X4  1 3.950000e-01    2.110000e+00
  TP1d    X4  1 3.950000e-01    2.110000e+00
  TN6d    X4  1 3.950000e-01    2.310000e+00
  TN5d    X4  1 3.950000e-01    2.500000e+00
  TN4d    X4  1 3.950000e-01    2.700000e+00
  TN3d    X4  1 3.950000e-01    2.500000e+00
  TN2d    X4  1 3.950000e-01    2.500000e+00
  TN1d    X4  1 3.950000e-01    2.310000e+00
  TP6a    X4  1 3.950000e-01    1.850000e+00
  TP5a    X4  1 3.950000e-01    2.110000e+00
  TP4a    X4  1 3.950000e-01    2.110000e+00
  TP3a    X4  1 3.950000e-01    2.110000e+00
  TP2a    X4  1 3.950000e-01    2.110000e+00
  TP1a    X4  1 3.950000e-01    2.110000e+00
  TN6a    X4  1 3.950000e-01    2.310000e+00
  TN5a    X4  1 3.950000e-01    2.500000e+00
  TN4a    X4  1 3.950000e-01    2.700000e+00
  TN3a    X4  1 3.950000e-01    2.500000e+00
  TN2a    X4  1 3.950000e-01    2.500000e+00
  TN1a    X4  1 3.950000e-01    2.310000e+00
  TC6v    X4  1 3.950000e-01    2.500000e+00
  TC5v    X4  1 3.950000e-01    2.310000e+00
  TC4v    X4  1 3.950000e-01    2.310000e+00
  TC3v    X4  1 3.950000e-01    2.310000e+00
  TC2v    X4  1 3.950000e-01    1.850000e+00
  TC1v    X4  1 3.950000e-01    1.850000e+00
  TC6e    X4  1 3.950000e-01    2.500000e+00
  TC5e    X4  1 3.950000e-01    2.310000e+00
  TC4e    X4  1 3.950000e-01    2.310000e+00
  TC3e    X4  1 3.950000e-01    2.310000e+00
  TC2e    X4  1 3.950000e-01    1.850000e+00
  TC1e    X4  1 3.950000e-01    1.850000e+00
  TP6q    X4  1 3.950000e-01    2.310000e+00
  TP5q    X4  1 3.950000e-01    2.500000e+00
  TP4q    X4  1 3.950000e-01    2.500000e+00
  TP3q    X4  1 3.950000e-01    2.500000e+00
  TP2q    X4  1 3.950000e-01    2.500000e+00
  TP1q    X4  1 3.950000e-01    2.500000e+00
  TN6q    X4  1 3.950000e-01    2.700000e+00
  TN5q    X4  1 3.950000e-01    2.940000e+00
  TN4q    X4  1 3.950000e-01    3.190000e+00
  TN3q    X4  1 3.950000e-01    2.940000e+00
  TN2q    X4  1 3.950000e-01    2.940000e+00
  TN1q    X4  1 3.950000e-01    2.700000e+00
  TC6q    X4  1 3.950000e-01    2.700000e+00
  TC5q    X4  1 3.950000e-01    2.500000e+00
  TC4q    X4  1 3.950000e-01    2.500000e+00
  TC3q    X4  1 3.950000e-01    2.500000e+00
  TC2q    X4  1 3.950000e-01    2.110000e+00
  TC1q    X4  1 3.950000e-01    2.110000e+00
 TC1eq    X4  1 3.950000e-01    2.310000e+00
 TC2eq    X4  1 3.950000e-01    2.310000e+00
 TC3eq    X4  1 3.950000e-01    2.700000e+00
 TC4eq    X4  1 3.950000e-01    2.700000e+00
 TC5eq    X4  1 3.950000e-01    2.700000e+00
 TC6eq    X4  1 3.950000e-01    2.940000e+00
 TC1vq    X4  1 3.950000e-01    2.310000e+00
 TC2vq    X4  1 3.950000e-01    2.310000e+00
 TC3vq    X4  1 3.950000e-01    2.700000e+00
 TC4vq    X4  1 3.950000e-01    2.700000e+00
 TC5vq    X4  1 3.950000e-01    2.700000e+00
 TC6vq    X4  1 3.950000e-01    2.940000e+00
 TN1aq    X4  1 3.950000e-01    2.700000e+00
 TN2aq    X4  1 3.950000e-01    2.940000e+00
 TN3aq    X4  1 3.950000e-01    2.940000e+00
 TN4aq    X4  1 3.950000e-01    3.190000e+00
 TN5aq    X4  1 3.950000e-01    2.940000e+00
 TN6aq    X4  1 3.950000e-01    2.700000e+00
 TP1aq    X4  1 3.950000e-01    2.500000e+00
 TP2aq    X4  1 3.950000e-01    2.500000e+00
 TP3aq    X4  1 3.950000e-01    2.500000e+00
 TP4aq    X4  1 3.950000e-01    2.500000e+00
 TP5aq    X4  1 3.950000e-01    2.500000e+00
 TP6aq    X4  1 3.950000e-01    2.310000e+00
 TN1dq    X4  1 3.950000e-01    2.700000e+00
 TN2dq    X4  1 3.950000e-01    2.940000e+00
 TN3dq    X4  1 3.950000e-01    2.940000e+00
 TN4dq    X4  1 3.950000e-01    3.190000e+00
 TN5dq    X4  1 3.950000e-01    2.940000e+00
 TN6dq    X4  1 3.950000e-01    2.700000e+00
 TP1dq    X4  1 3.950000e-01    2.500000e+00
 TP2dq    X4  1 3.950000e-01    2.500000e+00
 TP3dq    X4  1 3.950000e-01    2.500000e+00
 TP4dq    X4  1 3.950000e-01    2.500000e+00
 TP5dq    X4  1 3.950000e-01    2.500000e+00
 TP6dq    X4  1 3.950000e-01    2.310000e+00
  TP6h    X4  1 3.950000e-01    1.850000e+00
  TP5h    X4  1 3.950000e-01    2.110000e+00
  TP4h    X4  1 3.950000e-01    2.110000e+00
  TP3h    X4  1 3.950000e-01    2.110000e+00
  TP2h    X4  1 3.950000e-01    2.110000e+00
  TP1h    X4  1 3.950000e-01    2.110000e+00
  TN6h    X4  1 3.950000e-01    2.310000e+00
  TN5h    X4  1 3.950000e-01    2.500000e+00
  TN4h    X4  1 3.950000e-01    2.700000e+00
  TN3h    X4  1 3.950000e-01    2.500000e+00
  TN2h    X4  1 3.950000e-01    2.500000e+00
  TN1h    X4  1 3.950000e-01    2.310000e+00
  TC6h    X4  1 3.950000e-01    2.310000e+00
  TC5h    X4  1 3.950000e-01    2.110000e+00
  TC4h    X4  1 3.950000e-01    2.110000e+00
  TC3h    X4  1 3.950000e-01    2.110000e+00
  TC2h    X4  1 3.950000e-01    1.670000e+00
  TC1h    X4  1 3.950000e-01    1.670000e+00
 TC1eh    X4  1 3.950000e-01    1.850000e+00
 TC2eh    X4  1 3.950000e-01    1.850000e+00
 TC3eh    X4  1 3.950000e-01    2.310000e+00
 TC4eh    X4  1 3.950000e-01    2.310000e+00
 TC5eh    X4  1 3.950000e-01    2.310000e+00
 TC6eh    X4  1 3.950000e-01    2.500000e+00
 TC1vh    X4  1 3.950000e-01    1.850000e+00
 TC2vh    X4  1 3.950000e-01    1.850000e+00
 TC3vh    X4  1 3.950000e-01    2.310000e+00
 TC4vh    X4  1 3.950000e-01    2.310000e+00
 TC5vh    X4  1 3.950000e-01    2.310000e+00
 TC6vh    X4  1 3.950000e-01    2.500000e+00
 TN1ah    X4  1 3.950000e-01    2.310000e+00
 TN2ah    X4  1 3.950000e-01    2.500000e+00
 TN3ah    X4  1 3.950000e-01    2.500000e+00
 TN4ah    X4  1 3.950000e-01    2.700000e+00
 TN5ah    X4  1 3.950000e-01    2.500000e+00
 TN6ah    X4  1 3.950000e-01    2.310000e+00
 TP1ah    X4  1 3.950000e-01    2.110000e+00
 TP2ah    X4  1 3.950000e-01    2.110000e+00
 TP3ah    X4  1 3.950000e-01    2.110000e+00
 TP4ah    X4  1 3.950000e-01    2.110000e+00
 TP5ah    X4  1 3.950000e-01    2.110000e+00
 TP6ah    X4  1 3.950000e-01    1.850000e+00
 TN1dh    X4  1 3.950000e-01    2.310000e+00
 TN2dh    X4  1 3.950000e-01    2.500000e+00
 TN3dh    X4  1 3.950000e-01    2.500000e+00
 TN4dh    X4  1 3.950000e-01    2.700000e+00
 TN5dh    X4  1 3.950000e-01    2.500000e+00
 TN6dh    X4  1 3.950000e-01    2.310000e+00
 TP1dh    X4  1 3.950000e-01    2.110000e+00
 TP2dh    X4  1 3.950000e-01    2.110000e+00
 TP3dh    X4  1 3.950000e-01    2.110000e+00
 TP4dh    X4  1 3.950000e-01    2.110000e+00
 TP5dh    X4  1 3.950000e-01    2.110000e+00
 TP6dh    X4  1 3.950000e-01    1.850000e+00
  TP6r    X4  1 3.950000e-01    1.850000e+00
  TP5r    X4  1 3.950000e-01    2.110000e+00
  TP4r    X4  1 3.950000e-01    2.110000e+00
  TP3r    X4  1 3.950000e-01    2.110000e+00
  TP2r    X4  1 3.950000e-01    2.110000e+00
  TP1r    X4  1 3.950000e-01    2.110000e+00
  TN6r    X4  1 3.950000e-01    2.310000e+00
  TN5r    X4  1 3.950000e-01    2.500000e+00
  TN4r    X4  1 3.950000e-01    2.700000e+00
  TN3r    X4  1 3.950000e-01    2.500000e+00
  TN2r    X4  1 3.950000e-01    2.500000e+00
  TN1r    X4  1 3.950000e-01    2.310000e+00
  TC6r    X4  1 3.950000e-01    2.310000e+00
  TC5r    X4  1 3.950000e-01    2.110000e+00
  TC4r    X4  1 3.950000e-01    2.110000e+00
  TC3r    X4  1 3.950000e-01    2.110000e+00
  TC2r    X4  1 3.950000e-01    1.670000e+00
  TC1r    X4  1 3.950000e-01    1.670000e+00
 TC1er    X4  1 3.950000e-01    1.850000e+00
 TC2er    X4  1 3.950000e-01    1.850000e+00
 TC3er    X4  1 3.950000e-01    2.310000e+00
 TC4er    X4  1 3.950000e-01    2.310000e+00
 TC5er    X4  1 3.950000e-01    2.310000e+00
 TC6er    X4  1 3.950000e-01    2.500000e+00
 TC1vr    X4  1 3.950000e-01    1.850000e+00
 TC2vr    X4  1 3.950000e-01    1.850000e+00
 TC3vr    X4  1 3.950000e-01    2.310000e+00
 TC4vr    X4  1 3.950000e-01    2.310000e+00
 TC5vr    X4  1 3.950000e-01    2.310000e+00
 TC6vr    X4  1 3.950000e-01    2.500000e+00
 TN1ar    X4  1 3.950000e-01    2.310000e+00
 TN2ar    X4  1 3.950000e-01    2.500000e+00
 TN3ar    X4  1 3.950000e-01    2.500000e+00
 TN4ar    X4  1 3.950000e-01    2.700000e+00
 TN5ar    X4  1 3.950000e-01    2.500000e+00
 TN6ar    X4  1 3.950000e-01    2.310000e+00
 TP1ar    X4  1 3.950000e-01    2.110000e+00
 TP2ar    X4  1 3.950000e-01    2.110000e+00
 TP3ar    X4  1 3.950000e-01    2.110000e+00
 TP4ar    X4  1 3.950000e-01    2.110000e+00
 TP5ar    X4  1 3.950000e-01    2.110000e+00
 TP6ar    X4  1 3.950000e-01    1.850000e+00
 TN1dr    X4  1 3.950000e-01    2.310000e+00
 TN2dr    X4  1 3.950000e-01    2.500000e+00
 TN3dr    X4  1 3.950000e-01    2.500000e+00
 TN4dr    X4  1 3.950000e-01    2.700000e+00
 TN5dr    X4  1 3.950000e-01    2.500000e+00
 TN6dr    X4  1 3.950000e-01    2.310000e+00
 TP1dr    X4  1 3.950000e-01    2.110000e+00
 TP2dr    X4  1 3.950000e-01    2.110000e+00
 TP3dr    X4  1 3.950000e-01    2.110000e+00
 TP4dr    X4  1 3.950000e-01    2.110000e+00
 TP5dr    X4  1 3.950000e-01    2.110000e+00
 TP6dr    X4  1 3.950000e-01    1.850000e+00
   P6d   SX4  1 4.300000e-01    2.530000e+00
   P5d   SX4  1 4.300000e-01    2.770000e+00
   P4d   SX4  1 4.300000e-01    2.770000e+00
   P3d   SX4  1 4.300000e-01    2.770000e+00
   P2d   SX4  1 4.300000e-01    2.770000e+00
   P1d   SX4  1 4.300000e-01    2.770000e+00
   N6d   SX4  1 4.300000e-01    2.920000e+00
   N5d   SX4  1 4.300000e-01    3.160000e+00
   N4d   SX4  1 4.300000e-01    3.380000e+00
   N3d   SX4  1 4.300000e-01    3.160000e+00
   N2d   SX4  1 4.300000e-01    3.160000e+00
   N1d   SX4  1 4.300000e-01    2.920000e+00
   P6a   SX4  1 4.300000e-01    2.530000e+00
   P5a   SX4  1 4.300000e-01    2.770000e+00
   P4a   SX4  1 4.300000e-01    2.770000e+00
   P3a   SX4  1 4.300000e-01    2.770000e+00
   P2a   SX4  1 4.300000e-01    2.770000e+00
   P1a   SX4  1 4.300000e-01    2.770000e+00
   N6a   SX4  1 4.300000e-01    2.920000e+00
   N5a   SX4  1 4.300000e-01    3.160000e+00
   N4a   SX4  1 4.300000e-01    3.380000e+00
   N3a   SX4  1 4.300000e-01    3.160000e+00
   N2a   SX4  1 4.300000e-01    3.160000e+00
   N1a   SX4  1 4.300000e-01    2.920000e+00
   C6v   SX4  1 4.300000e-01    3.160000e+00
   C5v   SX4  1 4.300000e-01    2.920000e+00
   C4v   SX4  1 4.300000e-01    2.920000e+00
   C3v   SX4  1 4.300000e-01    2.920000e+00
   C2v   SX4  1 4.300000e-01    2.530000e+00
   C1v   SX4  1 4.300000e-01    2.530000e+00
   C6e   SX4  1 4.300000e-01    3.160000e+00
   C5e   SX4  1 4.300000e-01    2.920000e+00
   C4e   SX4  1 4.300000e-01    2.920000e+00
   C3e   SX4  1 4.300000e-01    2.920000e+00
   C2e   SX4  1 4.300000e-01    2.530000e+00
   C1e   SX4  1 4.300000e-01    2.530000e+00
   P6q   SX4  1 4.300000e-01    2.920000e+00
   P5q   SX4  1 4.300000e-01    3.160000e+00
   P4q   SX4  1 4.300000e-01    3.160000e+00
   P3q   SX4  1 4.300000e-01    3.160000e+00
   P2q   SX4  1 4.300000e-01    3.160000e+00
   P1q   SX4  1 4.300000e-01    3.160000e+00
   N6q   SX4  1 4.300000e-01    3.380000e+00
   N5q   SX4  1 4.300000e-01    3.590000e+00
   N4q   SX4  1 4.300000e-01    3.770000e+00
   N3q   SX4  1 4.300000e-01    3.590000e+00
   N2q   SX4  1 4.300000e-01    3.590000e+00
   N1q   SX4  1 4.300000e-01    3.380000e+00
   C6q   SX4  1 4.300000e-01    3.380000e+00
   C5q   SX4  1 4.300000e-01    3.160000e+00
   C4q   SX4  1 4.300000e-01    3.160000e+00
   C3q   SX4  1 4.300000e-01    3.160000e+00
   C2q   SX4  1 4.300000e-01    2.770000e+00
   C1q   SX4  1 4.300000e-01    2.770000e+00
  C1eq   SX4  1 4.300000e-01    2.920000e+00
  C2eq   SX4  1 4.300000e-01    2.920000e+00
  C3eq   SX4  1 4.300000e-01    3.380000e+00
  C4eq   SX4  1 4.300000e-01    3.380000e+00
  C5eq   SX4  1 4.300000e-01    3.380000e+00
  C6eq   SX4  1 4.300000e-01    3.590000e+00
  C1vq   SX4  1 4.300000e-01    2.920000e+00
  C2vq   SX4  1 4.300000e-01    2.920000e+00
  C3vq   SX4  1 4.300000e-01    3.380000e+00
  C4vq   SX4  1 4.300000e-01    3.380000e+00
  C5vq   SX4  1 4.300000e-01    3.380000e+00
  C6vq   SX4  1 4.300000e-01    3.590000e+00
  N1aq   SX4  1 4.300000e-01    3.380000e+00
  N2aq   SX4  1 4.300000e-01    3.590000e+00
  N3aq   SX4  1 4.300000e-01    3.590000e+00
  N4aq   SX4  1 4.300000e-01    3.770000e+00
  N5aq   SX4  1 4.300000e-01    3.590000e+00
  N6aq   SX4  1 4.300000e-01    3.380000e+00
  P1aq   SX4  1 4.300000e-01    3.160000e+00
  P2aq   SX4  1 4.300000e-01    3.160000e+00
  P3aq   SX4  1 4.300000e-01    3.160000e+00
  P4aq   SX4  1 4.300000e-01    3.160000e+00
  P5aq   SX4  1 4.300000e-01    3.160000e+00
  P6aq   SX4  1 4.300000e-01    2.920000e+00
  N1dq   SX4  1 4.300000e-01    3.380000e+00
  N2dq   SX4  1 4.300000e-01    3.590000e+00
  N3dq   SX4  1 4.300000e-01    3.590000e+00
  N4dq   SX4  1 4.300000e-01    3.770000e+00
  N5dq   SX4  1 4.300000e-01    3.590000e+00
  N6dq   SX4  1 4.300000e-01    3.380000e+00
  P1dq   SX4  1 4.300000e-01    3.160000e+00
  P2dq   SX4  1 4.300000e-01    3.160000e+00
  P3dq   SX4  1 4.300000e-01    3.160000e+00
  P4dq   SX4  1 4.300000e-01    3.160000e+00
  P5dq   SX4  1 4.300000e-01    3.160000e+00
  P6dq   SX4  1 4.300000e-01    2.920000e+00
   P6h   SX4  1 4.300000e-01    2.530000e+00
   P5h   SX4  1 4.300000e-01    2.770000e+00
   P4h   SX4  1 4.300000e-01    2.770000e+00
   P3h   SX4  1 4.300000e-01    2.770000e+00
   P2h   SX4  1 4.300000e-01    2.770000e+00
   P1h   SX4  1 4.300000e-01    2.770000e+00
   N6h   SX4  1 4.300000e-01    2.920000e+00
   N5h   SX4  1 4.300000e-01    3.160000e+00
   N4h   SX4  1 4.300000e-01    3.380000e+00
   N3h   SX4  1 4.300000e-01    3.160000e+00
   N2h   SX4  1 4.300000e-01    3.160000e+00
   N1h   SX4  1 4.300000e-01    2.920000e+00
   C6h   SX4  1 4.300000e-01    2.920000e+00
   C5h   SX4  1 4.300000e-01    2.770000e+00
   C4h   SX4  1 4.300000e-01    2.770000e+00
   C3h   SX4  1 4.300000e-01    2.770000e+00
   C2h   SX4  1 4.300000e-01    2.320000e+00
   C1h   SX4  1 4.300000e-01    2.320000e+00
  C1eh   SX4  1 4.300000e-01    2.530000e+00
  C2eh   SX4  1 4.300000e-01    2.530000e+00
  C3eh   SX4  1 4.300000e-01    2.920000e+00
  C4eh   SX4  1 4.300000e-01    2.920000e+00
  C5eh   SX4  1 4.300000e-01    2.920000e+00
  C6eh   SX4  1 4.300000e-01    3.160000e+00
  C1vh   SX4  1 4.300000e-01    2.530000e+00
  C2vh   SX4  1 4.300000e-01    2.530000e+00
  C3vh   SX4  1 4.300000e-01    2.920000e+00
  C4vh   SX4  1 4.300000e-01    2.920000e+00
  C5vh   SX4  1 4.300000e-01    2.920000e+00
  C6vh   SX4  1 4.300000e-01    3.160000e+00
  N1ah   SX4  1 4.300000e-01    2.920000e+00
  N2ah   SX4  1 4.300000e-01    3.160000e+00
  N3ah   SX4  1 4.300000e-01    3.160000e+00
  N4ah   SX4  1 4.300000e-01    3.380000e+00
  N5ah   SX4  1 4.300000e-01    3.160000e+00
  N6ah   SX4  1 4.300000e-01    2.920000e+00
  P1ah   SX4  1 4.300000e-01    2.770000e+00
  P2ah   SX4  1 4.300000e-01    2.770000e+00
  P3ah   SX4  1 4.300000e-01    2.770000e+00
  P4ah   SX4  1 4.300000e-01    2.770000e+00
  P5ah   SX4  1 4.300000e-01    2.770000e+00
  P6ah   SX4  1 4.300000e-01    2.530000e+00
  N1dh   SX4  1 4.300000e-01    2.920000e+00
  N2dh   SX4  1 4.300000e-01    3.160000e+00
  N3dh   SX4  1 4.300000e-01    3.160000e+00
  N4dh   SX4  1 4.300000e-01    3.380000e+00
  N5dh   SX4  1 4.300000e-01    3.160000e+00
  N6dh   SX4  1 4.300000e-01    2.920000e+00
  P1dh   SX4  1 4.300000e-01    2.770000e+00
  P2dh   SX4  1 4.300000e-01    2.770000e+00
  P3dh   SX4  1 4.300000e-01    2.770000e+00
  P4dh   SX4  1 4.300000e-01    2.770000e+00
  P5dh   SX4  1 4.300000e-01    2.770000e+00
  P6dh   SX4  1 4.300000e-01    2.530000e+00
   P6r   SX4  1 4.300000e-01    2.530000e+00
   P5r   SX4  1 4.300000e-01    2.770000e+00
   P4r   SX4  1 4.300000e-01    2.770000e+00
   P3r   SX4  1 4.300000e-01    2.770000e+00
   P2r   SX4  1 4.300000e-01    2.770000e+00
   P1r   SX4  1 4.300000e-01    2.770000e+00
   N6r   SX4  1 4.300000e-01    2.920000e+00
   N5r   SX4  1 4.300000e-01    3.160000e+00
   N4r   SX4  1 4.300000e-01    3.380000e+00
   N3r   SX4  1 4.300000e-01    3.160000e+00
   N2r   SX4  1 4.300000e-01    3.160000e+00
   N1r   SX4  1 4.300000e-01    2.920000e+00
   C6r   SX4  1 4.300000e-01    2.920000e+00
   C5r   SX4  1 4.300000e-01    2.770000e+00
   C4r   SX4  1 4.300000e-01    2.770000e+00
   C3r   SX4  1 4.300000e-01    2.770000e+00
   C2r   SX4  1 4.300000e-01    2.320000e+00
   C1r   SX4  1 4.300000e-01    2.320000e+00
  C1er   SX4  1 4.300000e-01    2.530000e+00
  C2er   SX4  1 4.300000e-01    2.530000e+00
  C3er   SX4  1 4.300000e-01    2.920000e+00
  C4er   SX4  1 4.300000e-01    2.920000e+00
  C5er   SX4  1 4.300000e-01    2.920000e+00
  C6er   SX4  1 4.300000e-01    3.160000e+00
  C1vr   SX4  1 4.300000e-01    2.530000e+00
  C2vr   SX4  1 4.300000e-01    2.530000e+00
  C3vr   SX4  1 4.300000e-01    2.920000e+00
  C4vr   SX4  1 4.300000e-01    2.920000e+00
  C5vr   SX4  1 4.300000e-01    2.920000e+00
  C6vr   SX4  1 4.300000e-01    3.160000e+00
  N1ar   SX4  1 4.300000e-01    2.920000e+00
  N2ar   SX4  1 4.300000e-01    3.160000e+00
  N3ar   SX4  1 4.300000e-01    3.160000e+00
  N4ar   SX4  1 4.300000e-01    3.380000e+00
  N5ar   SX4  1 4.300000e-01    3.160000e+00
  N6ar   SX4  1 4.300000e-01    2.920000e+00
  P1ar   SX4  1 4.300000e-01    2.770000e+00
  P2ar   SX4  1 4.300000e-01    2.770000e+00
  P3ar   SX4  1 4.300000e-01    2.770000e+00
  P4ar   SX4  1 4.300000e-01    2.770000e+00
  P5ar   SX4  1 4.300000e-01    2.770000e+00
  P6ar   SX4  1 4.300000e-01    2.530000e+00
  N1dr   SX4  1 4.300000e-01    2.920000e+00
  N2dr   SX4  1 4.300000e-01    3.160000e+00
  N3dr   SX4  1 4.300000e-01    3.160000e+00
  N4dr   SX4  1 4.300000e-01    3.380000e+00
  N5dr   SX4  1 4.300000e-01    3.160000e+00
  N6dr   SX4  1 4.300000e-01    2.920000e+00
  P1dr   SX4  1 4.300000e-01    2.770000e+00
  P2dr   SX4  1 4.300000e-01    2.770000e+00
  P3dr   SX4  1 4.300000e-01    2.770000e+00
  P4dr   SX4  1 4.300000e-01    2.770000e+00
  P5dr   SX4  1 4.300000e-01    2.770000e+00
  P6dr   SX4  1 4.300000e-01    2.530000e+00
   SX4    X3  1 4.300000e-01    2.920000e+00
   SX4    X2  1 4.300000e-01    2.920000e+00
   SX4    X1  1 4.300000e-01    2.920000e+00
   SX4   X4v  1 4.300000e-01    3.160000e+00
   SX4   X1v  1 4.300000e-01    3.160000e+00
   SX4   X2v  1 4.300000e-01    3.160000e+00
   SX4   X3v  1 4.300000e-01    3.160000e+00
   SX4   X4e  1 4.300000e-01    3.160000e+00
   SX4   X1e  1 4.300000e-01    3.160000e+00
   SX4   X2e  1 4.300000e-01    3.160000e+00
   SX4   X3e  1 4.300000e-01    3.160000e+00
   SX4   X4q  1 4.300000e-01    3.380000e+00
   SX4  X1eq  1 4.300000e-01    3.590000e+00
   SX4  X2eq  1 4.300000e-01    3.590000e+00
   SX4  X3eq  1 4.300000e-01    3.590000e+00
   SX4  X4eq  1 4.300000e-01    3.590000e+00
   SX4  X1vq  1 4.300000e-01    3.590000e+00
   SX4  X2vq  1 4.300000e-01    3.590000e+00
   SX4  X3vq  1 4.300000e-01    3.590000e+00
   SX4  X4vq  1 4.300000e-01    3.590000e+00
   SX4   X1q  1 4.300000e-01    3.380000e+00
   SX4   X2q  1 4.300000e-01    3.380000e+00
   SX4   X3q  1 4.300000e-01    3.380000e+00
   SX4   X4h  1 4.300000e-01    2.920000e+00
   SX4  X1eh  1 4.300000e-01    3.160000e+00
   SX4  X2eh  1 4.300000e-01    3.160000e+00
   SX4  X3eh  1 4.300000e-01    3.160000e+00
   SX4  X4eh  1 4.300000e-01    3.160000e+00
   SX4  X1vh  1 4.300000e-01    3.160000e+00
   SX4  X2vh  1 4.300000e-01    3.160000e+00
   SX4  X3vh  1 4.300000e-01    3.160000e+00
   SX4  X4vh  1 4.300000e-01    3.160000e+00
   SX4   X1h  1 4.300000e-01    2.920000e+00
   SX4   X2h  1 4.300000e-01    2.920000e+00
   SX4   X3h  1 4.300000e-01    2.920000e+00
   SX4   X4r  1 4.300000e-01    2.920000e+00
   SX4  X1er  1 4.300000e-01    3.160000e+00
   SX4  X2er  1 4.300000e-01    3.160000e+00
   SX4  X3er  1 4.300000e-01    3.160000e+00
   SX4  X4er  1 4.300000e-01    3.160000e+00
   SX4  X1vr  1 4.300000e-01    3.160000e+00
   SX4  X2vr  1 4.300000e-01    3.160000e+00
   SX4  X3vr  1 4.300000e-01    3.160000e+00
   SX4  X4vr  1 4.300000e-01    3.160000e+00
   SX4   X1r  1 4.300000e-01    2.920000e+00
   SX4   X2r  1 4.300000e-01    2.920000e+00
   SX4   X3r  1 4.300000e-01    2.920000e+00
   SX4   SX4  1 4.100000e-01    2.350000e+00
   SX4   SX3  1 4.100000e-01    2.350000e+00
   SX4   SX2  1 4.100000e-01    2.350000e+00
   SX4   SX1  1 4.100000e-01    2.350000e+00
  SP6d   SX4  1 4.100000e-01    2.040000e+00
  SP5d   SX4  1 4.100000e-01    2.200000e+00
  SP4d   SX4  1 4.100000e-01    2.200000e+00
  SP3d   SX4  1 4.100000e-01    2.200000e+00
  SP2d   SX4  1 4.100000e-01    2.200000e+00
  SP1d   SX4  1 4.100000e-01    2.200000e+00
  SN6d   SX4  1 4.100000e-01    2.350000e+00
  SN5d   SX4  1 4.100000e-01    2.600000e+00
  SN4d   SX4  1 4.100000e-01    2.840000e+00
  SN3d   SX4  1 4.100000e-01    2.600000e+00
  SN2d   SX4  1 4.100000e-01    2.600000e+00
  SN1d   SX4  1 4.100000e-01    2.350000e+00
  SP6a   SX4  1 4.100000e-01    2.040000e+00
  SP5a   SX4  1 4.100000e-01    2.200000e+00
  SP4a   SX4  1 4.100000e-01    2.200000e+00
  SP3a   SX4  1 4.100000e-01    2.200000e+00
  SP2a   SX4  1 4.100000e-01    2.200000e+00
  SP1a   SX4  1 4.100000e-01    2.200000e+00
  SN6a   SX4  1 4.100000e-01    2.350000e+00
  SN5a   SX4  1 4.100000e-01    2.600000e+00
  SN4a   SX4  1 4.100000e-01    2.840000e+00
  SN3a   SX4  1 4.100000e-01    2.600000e+00
  SN2a   SX4  1 4.100000e-01    2.600000e+00
  SN1a   SX4  1 4.100000e-01    2.350000e+00
  SC6v   SX4  1 4.100000e-01    2.600000e+00
  SC5v   SX4  1 4.100000e-01    2.350000e+00
  SC4v   SX4  1 4.100000e-01    2.350000e+00
  SC3v   SX4  1 4.100000e-01    2.350000e+00
  SC2v   SX4  1 4.100000e-01    2.040000e+00
  SC1v   SX4  1 4.100000e-01    2.040000e+00
   SX4  SX4v  1 4.100000e-01    2.600000e+00
   SX4  SX1v  1 4.100000e-01    2.600000e+00
   SX4  SX2v  1 4.100000e-01    2.600000e+00
   SX4  SX3v  1 4.100000e-01    2.600000e+00
  SC6e   SX4  1 4.100000e-01    2.600000e+00
  SC5e   SX4  1 4.100000e-01    2.350000e+00
  SC4e   SX4  1 4.100000e-01    2.350000e+00
  SC3e   SX4  1 4.100000e-01    2.350000e+00
  SC2e   SX4  1 4.100000e-01    2.040000e+00
  SC1e   SX4  1 4.100000e-01    2.040000e+00
   SX4  SX4e  1 4.100000e-01    2.600000e+00
   SX4  SX1e  1 4.100000e-01    2.600000e+00
   SX4  SX2e  1 4.100000e-01    2.600000e+00
   SX4  SX3e  1 4.100000e-01    2.600000e+00
  SP6q   SX4  1 4.100000e-01    2.350000e+00
  SP5q   SX4  1 4.100000e-01    2.600000e+00
  SP4q   SX4  1 4.100000e-01    2.600000e+00
  SP3q   SX4  1 4.100000e-01    2.600000e+00
  SP2q   SX4  1 4.100000e-01    2.600000e+00
  SP1q   SX4  1 4.100000e-01    2.600000e+00
  SN6q   SX4  1 4.100000e-01    2.840000e+00
  SN5q   SX4  1 4.100000e-01    3.070000e+00
  SN4q   SX4  1 4.100000e-01    3.310000e+00
  SN3q   SX4  1 4.100000e-01    3.070000e+00
  SN2q   SX4  1 4.100000e-01    3.070000e+00
  SN1q   SX4  1 4.100000e-01    2.840000e+00
  SC6q   SX4  1 4.100000e-01    2.840000e+00
  SC5q   SX4  1 4.100000e-01    2.600000e+00
  SC4q   SX4  1 4.100000e-01    2.600000e+00
  SC3q   SX4  1 4.100000e-01    2.600000e+00
  SC2q   SX4  1 4.100000e-01    2.200000e+00
  SC1q   SX4  1 4.100000e-01    2.200000e+00
   SX4  SX4q  1 4.100000e-01    2.840000e+00
   SX4 SX1eq  1 4.100000e-01    3.070000e+00
   SX4 SX2eq  1 4.100000e-01    3.070000e+00
   SX4 SX3eq  1 4.100000e-01    3.070000e+00
   SX4 SX4eq  1 4.100000e-01    3.070000e+00
 SC1eq   SX4  1 4.100000e-01    2.350000e+00
 SC2eq   SX4  1 4.100000e-01    2.350000e+00
 SC3eq   SX4  1 4.100000e-01    2.840000e+00
 SC4eq   SX4  1 4.100000e-01    2.840000e+00
 SC5eq   SX4  1 4.100000e-01    2.840000e+00
 SC6eq   SX4  1 4.100000e-01    3.070000e+00
   SX4 SX1vq  1 4.100000e-01    3.070000e+00
   SX4 SX2vq  1 4.100000e-01    3.070000e+00
   SX4 SX3vq  1 4.100000e-01    3.070000e+00
   SX4 SX4vq  1 4.100000e-01    3.070000e+00
 SC1vq   SX4  1 4.100000e-01    2.350000e+00
 SC2vq   SX4  1 4.100000e-01    2.350000e+00
 SC3vq   SX4  1 4.100000e-01    2.840000e+00
 SC4vq   SX4  1 4.100000e-01    2.840000e+00
 SC5vq   SX4  1 4.100000e-01    2.840000e+00
 SC6vq   SX4  1 4.100000e-01    3.070000e+00
 SN1aq   SX4  1 4.100000e-01    2.840000e+00
 SN2aq   SX4  1 4.100000e-01    3.070000e+00
 SN3aq   SX4  1 4.100000e-01    3.070000e+00
 SN4aq   SX4  1 4.100000e-01    3.310000e+00
 SN5aq   SX4  1 4.100000e-01    3.070000e+00
 SN6aq   SX4  1 4.100000e-01    2.840000e+00
 SP1aq   SX4  1 4.100000e-01    2.600000e+00
 SP2aq   SX4  1 4.100000e-01    2.600000e+00
 SP3aq   SX4  1 4.100000e-01    2.600000e+00
 SP4aq   SX4  1 4.100000e-01    2.600000e+00
 SP5aq   SX4  1 4.100000e-01    2.600000e+00
 SP6aq   SX4  1 4.100000e-01    2.350000e+00
 SN1dq   SX4  1 4.100000e-01    2.840000e+00
 SN2dq   SX4  1 4.100000e-01    3.070000e+00
 SN3dq   SX4  1 4.100000e-01    3.070000e+00
 SN4dq   SX4  1 4.100000e-01    3.310000e+00
 SN5dq   SX4  1 4.100000e-01    3.070000e+00
 SN6dq   SX4  1 4.100000e-01    2.840000e+00
 SP1dq   SX4  1 4.100000e-01    2.600000e+00
 SP2dq   SX4  1 4.100000e-01    2.600000e+00
 SP3dq   SX4  1 4.100000e-01    2.600000e+00
 SP4dq   SX4  1 4.100000e-01    2.600000e+00
 SP5dq   SX4  1 4.100000e-01    2.600000e+00
 SP6dq   SX4  1 4.100000e-01    2.350000e+00
   SX4  SX1q  1 4.100000e-01    2.840000e+00
   SX4  SX2q  1 4.100000e-01    2.840000e+00
   SX4  SX3q  1 4.100000e-01    2.840000e+00
  SP6h   SX4  1 4.100000e-01    2.040000e+00
  SP5h   SX4  1 4.100000e-01    2.200000e+00
  SP4h   SX4  1 4.100000e-01    2.200000e+00
  SP3h   SX4  1 4.100000e-01    2.200000e+00
  SP2h   SX4  1 4.100000e-01    2.200000e+00
  SP1h   SX4  1 4.100000e-01    2.200000e+00
  SN6h   SX4  1 4.100000e-01    2.350000e+00
  SN5h   SX4  1 4.100000e-01    2.600000e+00
  SN4h   SX4  1 4.100000e-01    2.840000e+00
  SN3h   SX4  1 4.100000e-01    2.600000e+00
  SN2h   SX4  1 4.100000e-01    2.600000e+00
  SN1h   SX4  1 4.100000e-01    2.350000e+00
  SC6h   SX4  1 4.100000e-01    2.350000e+00
  SC5h   SX4  1 4.100000e-01    2.200000e+00
  SC4h   SX4  1 4.100000e-01    2.200000e+00
  SC3h   SX4  1 4.100000e-01    2.200000e+00
  SC2h   SX4  1 4.100000e-01    1.910000e+00
  SC1h   SX4  1 4.100000e-01    1.910000e+00
   SX4  SX4h  1 4.100000e-01    2.350000e+00
   SX4 SX1eh  1 4.100000e-01    2.600000e+00
   SX4 SX2eh  1 4.100000e-01    2.600000e+00
   SX4 SX3eh  1 4.100000e-01    2.600000e+00
   SX4 SX4eh  1 4.100000e-01    2.600000e+00
 SC1eh   SX4  1 4.100000e-01    2.040000e+00
 SC2eh   SX4  1 4.100000e-01    2.040000e+00
 SC3eh   SX4  1 4.100000e-01    2.350000e+00
 SC4eh   SX4  1 4.100000e-01    2.350000e+00
 SC5eh   SX4  1 4.100000e-01    2.350000e+00
 SC6eh   SX4  1 4.100000e-01    2.600000e+00
   SX4 SX1vh  1 4.100000e-01    2.600000e+00
   SX4 SX2vh  1 4.100000e-01    2.600000e+00
   SX4 SX3vh  1 4.100000e-01    2.600000e+00
   SX4 SX4vh  1 4.100000e-01    2.600000e+00
 SC1vh   SX4  1 4.100000e-01    2.040000e+00
 SC2vh   SX4  1 4.100000e-01    2.040000e+00
 SC3vh   SX4  1 4.100000e-01    2.350000e+00
 SC4vh   SX4  1 4.100000e-01    2.350000e+00
 SC5vh   SX4  1 4.100000e-01    2.350000e+00
 SC6vh   SX4  1 4.100000e-01    2.600000e+00
 SN1ah   SX4  1 4.100000e-01    2.350000e+00
 SN2ah   SX4  1 4.100000e-01    2.600000e+00
 SN3ah   SX4  1 4.100000e-01    2.600000e+00
 SN4ah   SX4  1 4.100000e-01    2.840000e+00
 SN5ah   SX4  1 4.100000e-01    2.600000e+00
 SN6ah   SX4  1 4.100000e-01    2.350000e+00
 SP1ah   SX4  1 4.100000e-01    2.200000e+00
 SP2ah   SX4  1 4.100000e-01    2.200000e+00
 SP3ah   SX4  1 4.100000e-01    2.200000e+00
 SP4ah   SX4  1 4.100000e-01    2.200000e+00
 SP5ah   SX4  1 4.100000e-01    2.200000e+00
 SP6ah   SX4  1 4.100000e-01    2.040000e+00
 SN1dh   SX4  1 4.100000e-01    2.350000e+00
 SN2dh   SX4  1 4.100000e-01    2.600000e+00
 SN3dh   SX4  1 4.100000e-01    2.600000e+00
 SN4dh   SX4  1 4.100000e-01    2.840000e+00
 SN5dh   SX4  1 4.100000e-01    2.600000e+00
 SN6dh   SX4  1 4.100000e-01    2.350000e+00
 SP1dh   SX4  1 4.100000e-01    2.200000e+00
 SP2dh   SX4  1 4.100000e-01    2.200000e+00
 SP3dh   SX4  1 4.100000e-01    2.200000e+00
 SP4dh   SX4  1 4.100000e-01    2.200000e+00
 SP5dh   SX4  1 4.100000e-01    2.200000e+00
 SP6dh   SX4  1 4.100000e-01    2.040000e+00
   SX4  SX1h  1 4.100000e-01    2.350000e+00
   SX4  SX2h  1 4.100000e-01    2.350000e+00
   SX4  SX3h  1 4.100000e-01    2.350000e+00
  SP6r   SX4  1 4.100000e-01    2.040000e+00
  SP5r   SX4  1 4.100000e-01    2.200000e+00
  SP4r   SX4  1 4.100000e-01    2.200000e+00
  SP3r   SX4  1 4.100000e-01    2.200000e+00
  SP2r   SX4  1 4.100000e-01    2.200000e+00
  SP1r   SX4  1 4.100000e-01    2.200000e+00
  SN6r   SX4  1 4.100000e-01    2.350000e+00
  SN5r   SX4  1 4.100000e-01    2.600000e+00
  SN4r   SX4  1 4.100000e-01    2.840000e+00
  SN3r   SX4  1 4.100000e-01    2.600000e+00
  SN2r   SX4  1 4.100000e-01    2.600000e+00
  SN1r   SX4  1 4.100000e-01    2.350000e+00
  SC6r   SX4  1 4.100000e-01    2.350000e+00
  SC5r   SX4  1 4.100000e-01    2.200000e+00
  SC4r   SX4  1 4.100000e-01    2.200000e+00
  SC3r   SX4  1 4.100000e-01    2.200000e+00
  SC2r   SX4  1 4.100000e-01    1.910000e+00
  SC1r   SX4  1 4.100000e-01    1.910000e+00
   SX4  SX4r  1 4.100000e-01    2.350000e+00
   SX4 SX1er  1 4.100000e-01    2.600000e+00
   SX4 SX2er  1 4.100000e-01    2.600000e+00
   SX4 SX3er  1 4.100000e-01    2.600000e+00
   SX4 SX4er  1 4.100000e-01    2.600000e+00
 SC1er   SX4  1 4.100000e-01    2.040000e+00
 SC2er   SX4  1 4.100000e-01    2.040000e+00
 SC3er   SX4  1 4.100000e-01    2.350000e+00
 SC4er   SX4  1 4.100000e-01    2.350000e+00
 SC5er   SX4  1 4.100000e-01    2.350000e+00
 SC6er   SX4  1 4.100000e-01    2.600000e+00
   SX4 SX1vr  1 4.100000e-01    2.600000e+00
   SX4 SX2vr  1 4.100000e-01    2.600000e+00
   SX4 SX3vr  1 4.100000e-01    2.600000e+00
   SX4 SX4vr  1 4.100000e-01    2.600000e+00
 SC1vr   SX4  1 4.100000e-01    2.040000e+00
 SC2vr   SX4  1 4.100000e-01    2.040000e+00
 SC3vr   SX4  1 4.100000e-01    2.350000e+00
 SC4vr   SX4  1 4.100000e-01    2.350000e+00
 SC5vr   SX4  1 4.100000e-01    2.350000e+00
 SC6vr   SX4  1 4.100000e-01    2.600000e+00
 SN1ar   SX4  1 4.100000e-01    2.350000e+00
 SN2ar   SX4  1 4.100000e-01    2.600000e+00
 SN3ar   SX4  1 4.100000e-01    2.600000e+00
 SN4ar   SX4  1 4.100000e-01    2.840000e+00
 SN5ar   SX4  1 4.100000e-01    2.600000e+00
 SN6ar   SX4  1 4.100000e-01    2.350000e+00
 SP1ar   SX4  1 4.100000e-01    2.200000e+00
 SP2ar   SX4  1 4.100000e-01    2.200000e+00
 SP3ar   SX4  1 4.100000e-01    2.200000e+00
 SP4ar   SX4  1 4.100000e-01    2.200000e+00
 SP5ar   SX4  1 4.100000e-01    2.200000e+00
 SP6ar   SX4  1 4.100000e-01    2.040000e+00
 SN1dr   SX4  1 4.100000e-01    2.350000e+00
 SN2dr   SX4  1 4.100000e-01    2.600000e+00
 SN3dr   SX4  1 4.100000e-01    2.600000e+00
 SN4dr   SX4  1 4.100000e-01    2.840000e+00
 SN5dr   SX4  1 4.100000e-01    2.600000e+00
 SN6dr   SX4  1 4.100000e-01    2.350000e+00
 SP1dr   SX4  1 4.100000e-01    2.200000e+00
 SP2dr   SX4  1 4.100000e-01    2.200000e+00
 SP3dr   SX4  1 4.100000e-01    2.200000e+00
 SP4dr   SX4  1 4.100000e-01    2.200000e+00
 SP5dr   SX4  1 4.100000e-01    2.200000e+00
 SP6dr   SX4  1 4.100000e-01    2.040000e+00
   SX4  SX1r  1 4.100000e-01    2.350000e+00
   SX4  SX2r  1 4.100000e-01    2.350000e+00
   SX4  SX3r  1 4.100000e-01    2.350000e+00
   SX4   TX4  1 3.650000e-01    1.910000e+00
   SX4   TX3  1 3.650000e-01    1.910000e+00
   SX4   TX2  1 3.650000e-01    1.910000e+00
   SX4   TX1  1 3.650000e-01    1.910000e+00
   SX4  TX4v  1 3.650000e-01    2.110000e+00
   SX4  TX1v  1 3.650000e-01    2.110000e+00
   SX4  TX2v  1 3.650000e-01    2.110000e+00
   SX4  TX3v  1 3.650000e-01    2.110000e+00
   SX4  TX4e  1 3.650000e-01    2.110000e+00
   SX4  TX1e  1 3.650000e-01    2.110000e+00
   SX4  TX2e  1 3.650000e-01    2.110000e+00
   SX4  TX3e  1 3.650000e-01    2.110000e+00
   SX4  TX4q  1 3.650000e-01    2.340000e+00
   SX4 TX1eq  1 3.650000e-01    2.570000e+00
   SX4 TX2eq  1 3.650000e-01    2.570000e+00
   SX4 TX3eq  1 3.650000e-01    2.570000e+00
   SX4 TX4eq  1 3.650000e-01    2.570000e+00
   SX4 TX1vq  1 3.650000e-01    2.570000e+00
   SX4 TX2vq  1 3.650000e-01    2.570000e+00
   SX4 TX3vq  1 3.650000e-01    2.570000e+00
   SX4 TX4vq  1 3.650000e-01    2.570000e+00
   SX4  TX1q  1 3.650000e-01    2.340000e+00
   SX4  TX2q  1 3.650000e-01    2.340000e+00
   SX4  TX3q  1 3.650000e-01    2.340000e+00
   SX4  TX4h  1 3.650000e-01    1.910000e+00
   SX4 TX1eh  1 3.650000e-01    2.110000e+00
   SX4 TX2eh  1 3.650000e-01    2.110000e+00
   SX4 TX3eh  1 3.650000e-01    2.110000e+00
   SX4 TX4eh  1 3.650000e-01    2.110000e+00
   SX4 TX1vh  1 3.650000e-01    2.110000e+00
   SX4 TX2vh  1 3.650000e-01    2.110000e+00
   SX4 TX3vh  1 3.650000e-01    2.110000e+00
   SX4 TX4vh  1 3.650000e-01    2.110000e+00
   SX4  TX1h  1 3.650000e-01    1.910000e+00
   SX4  TX2h  1 3.650000e-01    1.910000e+00
   SX4  TX3h  1 3.650000e-01    1.910000e+00
   SX4  TX4r  1 3.650000e-01    1.910000e+00
   SX4 TX1er  1 3.650000e-01    2.110000e+00
   SX4 TX2er  1 3.650000e-01    2.110000e+00
   SX4 TX3er  1 3.650000e-01    2.110000e+00
   SX4 TX4er  1 3.650000e-01    2.110000e+00
   SX4 TX1vr  1 3.650000e-01    2.110000e+00
   SX4 TX2vr  1 3.650000e-01    2.110000e+00
   SX4 TX3vr  1 3.650000e-01    2.110000e+00
   SX4 TX4vr  1 3.650000e-01    2.110000e+00
   SX4  TX1r  1 3.650000e-01    1.910000e+00
   SX4  TX2r  1 3.650000e-01    1.910000e+00
   SX4  TX3r  1 3.650000e-01    1.910000e+00
  TP6d   SX4  1 3.660000e-01    1.600000e+00
  TP5d   SX4  1 3.650000e-01    1.750000e+00
  TP4d   SX4  1 3.650000e-01    1.750000e+00
  TP3d   SX4  1 3.650000e-01    1.750000e+00
  TP2d   SX4  1 3.650000e-01    1.750000e+00
  TP1d   SX4  1 3.650000e-01    1.750000e+00
  TN6d   SX4  1 3.650000e-01    1.910000e+00
  TN5d   SX4  1 3.650000e-01    2.110000e+00
  TN4d   SX4  1 3.650000e-01    2.340000e+00
  TN3d   SX4  1 3.650000e-01    2.110000e+00
  TN2d   SX4  1 3.650000e-01    2.110000e+00
  TN1d   SX4  1 3.650000e-01    1.910000e+00
  TP6a   SX4  1 3.660000e-01    1.600000e+00
  TP5a   SX4  1 3.650000e-01    1.750000e+00
  TP4a   SX4  1 3.650000e-01    1.750000e+00
  TP3a   SX4  1 3.650000e-01    1.750000e+00
  TP2a   SX4  1 3.650000e-01    1.750000e+00
  TP1a   SX4  1 3.650000e-01    1.750000e+00
  TN6a   SX4  1 3.650000e-01    1.910000e+00
  TN5a   SX4  1 3.650000e-01    2.110000e+00
  TN4a   SX4  1 3.650000e-01    2.340000e+00
  TN3a   SX4  1 3.650000e-01    2.110000e+00
  TN2a   SX4  1 3.650000e-01    2.110000e+00
  TN1a   SX4  1 3.650000e-01    1.910000e+00
  TC6v   SX4  1 3.650000e-01    2.110000e+00
  TC5v   SX4  1 3.650000e-01    1.910000e+00
  TC4v   SX4  1 3.650000e-01    1.910000e+00
  TC3v   SX4  1 3.650000e-01    1.910000e+00
  TC2v   SX4  1 3.660000e-01    1.600000e+00
  TC1v   SX4  1 3.660000e-01    1.600000e+00
  TC6e   SX4  1 3.650000e-01    2.110000e+00
  TC5e   SX4  1 3.650000e-01    1.910000e+00
  TC4e   SX4  1 3.650000e-01    1.910000e+00
  TC3e   SX4  1 3.650000e-01    1.910000e+00
  TC2e   SX4  1 3.660000e-01    1.600000e+00
  TC1e   SX4  1 3.660000e-01    1.600000e+00
  TP6q   SX4  1 3.650000e-01    1.910000e+00
  TP5q   SX4  1 3.650000e-01    2.110000e+00
  TP4q   SX4  1 3.650000e-01    2.110000e+00
  TP3q   SX4  1 3.650000e-01    2.110000e+00
  TP2q   SX4  1 3.650000e-01    2.110000e+00
  TP1q   SX4  1 3.650000e-01    2.110000e+00
  TN6q   SX4  1 3.650000e-01    2.340000e+00
  TN5q   SX4  1 3.650000e-01    2.570000e+00
  TN4q   SX4  1 3.650000e-01    2.830000e+00
  TN3q   SX4  1 3.650000e-01    2.570000e+00
  TN2q   SX4  1 3.650000e-01    2.570000e+00
  TN1q   SX4  1 3.650000e-01    2.340000e+00
  TC6q   SX4  1 3.650000e-01    2.340000e+00
  TC5q   SX4  1 3.650000e-01    2.110000e+00
  TC4q   SX4  1 3.650000e-01    2.110000e+00
  TC3q   SX4  1 3.650000e-01    2.110000e+00
  TC2q   SX4  1 3.650000e-01    1.750000e+00
  TC1q   SX4  1 3.650000e-01    1.750000e+00
 TC1eq   SX4  1 3.650000e-01    1.910000e+00
 TC2eq   SX4  1 3.650000e-01    1.910000e+00
 TC3eq   SX4  1 3.650000e-01    2.340000e+00
 TC4eq   SX4  1 3.650000e-01    2.340000e+00
 TC5eq   SX4  1 3.650000e-01    2.340000e+00
 TC6eq   SX4  1 3.650000e-01    2.570000e+00
 TC1vq   SX4  1 3.650000e-01    1.910000e+00
 TC2vq   SX4  1 3.650000e-01    1.910000e+00
 TC3vq   SX4  1 3.650000e-01    2.340000e+00
 TC4vq   SX4  1 3.650000e-01    2.340000e+00
 TC5vq   SX4  1 3.650000e-01    2.340000e+00
 TC6vq   SX4  1 3.650000e-01    2.570000e+00
 TN1aq   SX4  1 3.650000e-01    2.340000e+00
 TN2aq   SX4  1 3.650000e-01    2.570000e+00
 TN3aq   SX4  1 3.650000e-01    2.570000e+00
 TN4aq   SX4  1 3.650000e-01    2.830000e+00
 TN5aq   SX4  1 3.650000e-01    2.570000e+00
 TN6aq   SX4  1 3.650000e-01    2.340000e+00
 TP1aq   SX4  1 3.650000e-01    2.110000e+00
 TP2aq   SX4  1 3.650000e-01    2.110000e+00
 TP3aq   SX4  1 3.650000e-01    2.110000e+00
 TP4aq   SX4  1 3.650000e-01    2.110000e+00
 TP5aq   SX4  1 3.650000e-01    2.110000e+00
 TP6aq   SX4  1 3.650000e-01    1.910000e+00
 TN1dq   SX4  1 3.650000e-01    2.340000e+00
 TN2dq   SX4  1 3.650000e-01    2.570000e+00
 TN3dq   SX4  1 3.650000e-01    2.570000e+00
 TN4dq   SX4  1 3.650000e-01    2.830000e+00
 TN5dq   SX4  1 3.650000e-01    2.570000e+00
 TN6dq   SX4  1 3.650000e-01    2.340000e+00
 TP1dq   SX4  1 3.650000e-01    2.110000e+00
 TP2dq   SX4  1 3.650000e-01    2.110000e+00
 TP3dq   SX4  1 3.650000e-01    2.110000e+00
 TP4dq   SX4  1 3.650000e-01    2.110000e+00
 TP5dq   SX4  1 3.650000e-01    2.110000e+00
 TP6dq   SX4  1 3.650000e-01    1.910000e+00
  TP6h   SX4  1 3.660000e-01    1.600000e+00
  TP5h   SX4  1 3.650000e-01    1.750000e+00
  TP4h   SX4  1 3.650000e-01    1.750000e+00
  TP3h   SX4  1 3.650000e-01    1.750000e+00
  TP2h   SX4  1 3.650000e-01    1.750000e+00
  TP1h   SX4  1 3.650000e-01    1.750000e+00
  TN6h   SX4  1 3.650000e-01    1.910000e+00
  TN5h   SX4  1 3.650000e-01    2.110000e+00
  TN4h   SX4  1 3.650000e-01    2.340000e+00
  TN3h   SX4  1 3.650000e-01    2.110000e+00
  TN2h   SX4  1 3.650000e-01    2.110000e+00
  TN1h   SX4  1 3.650000e-01    1.910000e+00
  TC6h   SX4  1 3.650000e-01    1.910000e+00
  TC5h   SX4  1 3.650000e-01    1.750000e+00
  TC4h   SX4  1 3.650000e-01    1.750000e+00
  TC3h   SX4  1 3.650000e-01    1.750000e+00
  TC2h   SX4  1 3.780000e-01    1.450000e+00
  TC1h   SX4  1 3.780000e-01    1.450000e+00
 TC1eh   SX4  1 3.660000e-01    1.600000e+00
 TC2eh   SX4  1 3.660000e-01    1.600000e+00
 TC3eh   SX4  1 3.650000e-01    1.910000e+00
 TC4eh   SX4  1 3.650000e-01    1.910000e+00
 TC5eh   SX4  1 3.650000e-01    1.910000e+00
 TC6eh   SX4  1 3.650000e-01    2.110000e+00
 TC1vh   SX4  1 3.660000e-01    1.600000e+00
 TC2vh   SX4  1 3.660000e-01    1.600000e+00
 TC3vh   SX4  1 3.650000e-01    1.910000e+00
 TC4vh   SX4  1 3.650000e-01    1.910000e+00
 TC5vh   SX4  1 3.650000e-01    1.910000e+00
 TC6vh   SX4  1 3.650000e-01    2.110000e+00
 TN1ah   SX4  1 3.650000e-01    1.910000e+00
 TN2ah   SX4  1 3.650000e-01    2.110000e+00
 TN3ah   SX4  1 3.650000e-01    2.110000e+00
 TN4ah   SX4  1 3.650000e-01    2.340000e+00
 TN5ah   SX4  1 3.650000e-01    2.110000e+00
 TN6ah   SX4  1 3.650000e-01    1.910000e+00
 TP1ah   SX4  1 3.650000e-01    1.750000e+00
 TP2ah   SX4  1 3.650000e-01    1.750000e+00
 TP3ah   SX4  1 3.650000e-01    1.750000e+00
 TP4ah   SX4  1 3.650000e-01    1.750000e+00
 TP5ah   SX4  1 3.650000e-01    1.750000e+00
 TP6ah   SX4  1 3.660000e-01    1.600000e+00
 TN1dh   SX4  1 3.650000e-01    1.910000e+00
 TN2dh   SX4  1 3.650000e-01    2.110000e+00
 TN3dh   SX4  1 3.650000e-01    2.110000e+00
 TN4dh   SX4  1 3.650000e-01    2.340000e+00
 TN5dh   SX4  1 3.650000e-01    2.110000e+00
 TN6dh   SX4  1 3.650000e-01    1.910000e+00
 TP1dh   SX4  1 3.650000e-01    1.750000e+00
 TP2dh   SX4  1 3.650000e-01    1.750000e+00
 TP3dh   SX4  1 3.650000e-01    1.750000e+00
 TP4dh   SX4  1 3.650000e-01    1.750000e+00
 TP5dh   SX4  1 3.650000e-01    1.750000e+00
 TP6dh   SX4  1 3.660000e-01    1.600000e+00
  TP6r   SX4  1 3.660000e-01    1.600000e+00
  TP5r   SX4  1 3.650000e-01    1.750000e+00
  TP4r   SX4  1 3.650000e-01    1.750000e+00
  TP3r   SX4  1 3.650000e-01    1.750000e+00
  TP2r   SX4  1 3.650000e-01    1.750000e+00
  TP1r   SX4  1 3.650000e-01    1.750000e+00
  TN6r   SX4  1 3.650000e-01    1.910000e+00
  TN5r   SX4  1 3.650000e-01    2.110000e+00
  TN4r   SX4  1 3.650000e-01    2.340000e+00
  TN3r   SX4  1 3.650000e-01    2.110000e+00
  TN2r   SX4  1 3.650000e-01    2.110000e+00
  TN1r   SX4  1 3.650000e-01    1.910000e+00
  TC6r   SX4  1 3.650000e-01    1.910000e+00
  TC5r   SX4  1 3.650000e-01    1.750000e+00
  TC4r   SX4  1 3.650000e-01    1.750000e+00
  TC3r   SX4  1 3.650000e-01    1.750000e+00
  TC2r   SX4  1 3.780000e-01    1.450000e+00
  TC1r   SX4  1 3.780000e-01    1.450000e+00
 TC1er   SX4  1 3.660000e-01    1.600000e+00
 TC2er   SX4  1 3.660000e-01    1.600000e+00
 TC3er   SX4  1 3.650000e-01    1.910000e+00
 TC4er   SX4  1 3.650000e-01    1.910000e+00
 TC5er   SX4  1 3.650000e-01    1.910000e+00
 TC6er   SX4  1 3.650000e-01    2.110000e+00
 TC1vr   SX4  1 3.660000e-01    1.600000e+00
 TC2vr   SX4  1 3.660000e-01    1.600000e+00
 TC3vr   SX4  1 3.650000e-01    1.910000e+00
 TC4vr   SX4  1 3.650000e-01    1.910000e+00
 TC5vr   SX4  1 3.650000e-01    1.910000e+00
 TC6vr   SX4  1 3.650000e-01    2.110000e+00
 TN1ar   SX4  1 3.650000e-01    1.910000e+00
 TN2ar   SX4  1 3.650000e-01    2.110000e+00
 TN3ar   SX4  1 3.650000e-01    2.110000e+00
 TN4ar   SX4  1 3.650000e-01    2.340000e+00
 TN5ar   SX4  1 3.650000e-01    2.110000e+00
 TN6ar   SX4  1 3.650000e-01    1.910000e+00
 TP1ar   SX4  1 3.650000e-01    1.750000e+00
 TP2ar   SX4  1 3.650000e-01    1.750000e+00
 TP3ar   SX4  1 3.650000e-01    1.750000e+00
 TP4ar   SX4  1 3.650000e-01    1.750000e+00
 TP5ar   SX4  1 3.650000e-01    1.750000e+00
 TP6ar   SX4  1 3.660000e-01    1.600000e+00
 TN1dr   SX4  1 3.650000e-01    1.910000e+00
 TN2dr   SX4  1 3.650000e-01    2.110000e+00
 TN3dr   SX4  1 3.650000e-01    2.110000e+00
 TN4dr   SX4  1 3.650000e-01    2.340000e+00
 TN5dr   SX4  1 3.650000e-01    2.110000e+00
 TN6dr   SX4  1 3.650000e-01    1.910000e+00
 TP1dr   SX4  1 3.650000e-01    1.750000e+00
 TP2dr   SX4  1 3.650000e-01    1.750000e+00
 TP3dr   SX4  1 3.650000e-01    1.750000e+00
 TP4dr   SX4  1 3.650000e-01    1.750000e+00
 TP5dr   SX4  1 3.650000e-01    1.750000e+00
 TP6dr   SX4  1 3.660000e-01    1.600000e+00
   P6d   TX4  1 3.950000e-01    1.850000e+00
   P5d   TX4  1 3.950000e-01    2.110000e+00
   P4d   TX4  1 3.950000e-01    2.110000e+00
   P3d   TX4  1 3.950000e-01    2.110000e+00
   P2d   TX4  1 3.950000e-01    2.110000e+00
   P1d   TX4  1 3.950000e-01    2.110000e+00
   N6d   TX4  1 3.950000e-01    2.310000e+00
   N5d   TX4  1 3.950000e-01    2.500000e+00
   N4d   TX4  1 3.950000e-01    2.700000e+00
   N3d   TX4  1 3.950000e-01    2.500000e+00
   N2d   TX4  1 3.950000e-01    2.500000e+00
   N1d   TX4  1 3.950000e-01    2.310000e+00
   P6a   TX4  1 3.950000e-01    1.850000e+00
   P5a   TX4  1 3.950000e-01    2.110000e+00
   P4a   TX4  1 3.950000e-01    2.110000e+00
   P3a   TX4  1 3.950000e-01    2.110000e+00
   P2a   TX4  1 3.950000e-01    2.110000e+00
   P1a   TX4  1 3.950000e-01    2.110000e+00
   N6a   TX4  1 3.950000e-01    2.310000e+00
   N5a   TX4  1 3.950000e-01    2.500000e+00
   N4a   TX4  1 3.950000e-01    2.700000e+00
   N3a   TX4  1 3.950000e-01    2.500000e+00
   N2a   TX4  1 3.950000e-01    2.500000e+00
   N1a   TX4  1 3.950000e-01    2.310000e+00
   C6v   TX4  1 3.950000e-01    2.500000e+00
   C5v   TX4  1 3.950000e-01    2.310000e+00
   C4v   TX4  1 3.950000e-01    2.310000e+00
   C3v   TX4  1 3.950000e-01    2.310000e+00
   C2v   TX4  1 3.950000e-01    1.850000e+00
   C1v   TX4  1 3.950000e-01    1.850000e+00
   C6e   TX4  1 3.950000e-01    2.500000e+00
   C5e   TX4  1 3.950000e-01    2.310000e+00
   C4e   TX4  1 3.950000e-01    2.310000e+00
   C3e   TX4  1 3.950000e-01    2.310000e+00
   C2e   TX4  1 3.950000e-01    1.850000e+00
   C1e   TX4  1 3.950000e-01    1.850000e+00
   P6q   TX4  1 3.950000e-01    2.310000e+00
   P5q   TX4  1 3.950000e-01    2.500000e+00
   P4q   TX4  1 3.950000e-01    2.500000e+00
   P3q   TX4  1 3.950000e-01    2.500000e+00
   P2q   TX4  1 3.950000e-01    2.500000e+00
   P1q   TX4  1 3.950000e-01    2.500000e+00
   N6q   TX4  1 3.950000e-01    2.700000e+00
   N5q   TX4  1 3.950000e-01    2.940000e+00
   N4q   TX4  1 3.950000e-01    3.190000e+00
   N3q   TX4  1 3.950000e-01    2.940000e+00
   N2q   TX4  1 3.950000e-01    2.940000e+00
   N1q   TX4  1 3.950000e-01    2.700000e+00
   C6q   TX4  1 3.950000e-01    2.700000e+00
   C5q   TX4  1 3.950000e-01    2.500000e+00
   C4q   TX4  1 3.950000e-01    2.500000e+00
   C3q   TX4  1 3.950000e-01    2.500000e+00
   C2q   TX4  1 3.950000e-01    2.110000e+00
   C1q   TX4  1 3.950000e-01    2.110000e+00
  C1eq   TX4  1 3.950000e-01    2.310000e+00
  C2eq   TX4  1 3.950000e-01    2.310000e+00
  C3eq   TX4  1 3.950000e-01    2.700000e+00
  C4eq   TX4  1 3.950000e-01    2.700000e+00
  C5eq   TX4  1 3.950000e-01    2.700000e+00
  C6eq   TX4  1 3.950000e-01    2.940000e+00
  C1vq   TX4  1 3.950000e-01    2.310000e+00
  C2vq   TX4  1 3.950000e-01    2.310000e+00
  C3vq   TX4  1 3.950000e-01    2.700000e+00
  C4vq   TX4  1 3.950000e-01    2.700000e+00
  C5vq   TX4  1 3.950000e-01    2.700000e+00
  C6vq   TX4  1 3.950000e-01    2.940000e+00
  N1aq   TX4  1 3.950000e-01    2.700000e+00
  N2aq   TX4  1 3.950000e-01    2.940000e+00
  N3aq   TX4  1 3.950000e-01    2.940000e+00
  N4aq   TX4  1 3.950000e-01    3.190000e+00
  N5aq   TX4  1 3.950000e-01    2.940000e+00
  N6aq   TX4  1 3.950000e-01    2.700000e+00
  P1aq   TX4  1 3.950000e-01    2.500000e+00
  P2aq   TX4  1 3.950000e-01    2.500000e+00
  P3aq   TX4  1 3.950000e-01    2.500000e+00
  P4aq   TX4  1 3.950000e-01    2.500000e+00
  P5aq   TX4  1 3.950000e-01    2.500000e+00
  P6aq   TX4  1 3.950000e-01    2.310000e+00
  N1dq   TX4  1 3.950000e-01    2.700000e+00
  N2dq   TX4  1 3.950000e-01    2.940000e+00
  N3dq   TX4  1 3.950000e-01    2.940000e+00
  N4dq   TX4  1 3.950000e-01    3.190000e+00
  N5dq   TX4  1 3.950000e-01    2.940000e+00
  N6dq   TX4  1 3.950000e-01    2.700000e+00
  P1dq   TX4  1 3.950000e-01    2.500000e+00
  P2dq   TX4  1 3.950000e-01    2.500000e+00
  P3dq   TX4  1 3.950000e-01    2.500000e+00
  P4dq   TX4  1 3.950000e-01    2.500000e+00
  P5dq   TX4  1 3.950000e-01    2.500000e+00
  P6dq   TX4  1 3.950000e-01    2.310000e+00
   P6h   TX4  1 3.950000e-01    1.850000e+00
   P5h   TX4  1 3.950000e-01    2.110000e+00
   P4h   TX4  1 3.950000e-01    2.110000e+00
   P3h   TX4  1 3.950000e-01    2.110000e+00
   P2h   TX4  1 3.950000e-01    2.110000e+00
   P1h   TX4  1 3.950000e-01    2.110000e+00
   N6h   TX4  1 3.950000e-01    2.310000e+00
   N5h   TX4  1 3.950000e-01    2.500000e+00
   N4h   TX4  1 3.950000e-01    2.700000e+00
   N3h   TX4  1 3.950000e-01    2.500000e+00
   N2h   TX4  1 3.950000e-01    2.500000e+00
   N1h   TX4  1 3.950000e-01    2.310000e+00
   C6h   TX4  1 3.950000e-01    2.310000e+00
   C5h   TX4  1 3.950000e-01    2.110000e+00
   C4h   TX4  1 3.950000e-01    2.110000e+00
   C3h   TX4  1 3.950000e-01    2.110000e+00
   C2h   TX4  1 3.950000e-01    1.670000e+00
   C1h   TX4  1 3.950000e-01    1.670000e+00
  C1eh   TX4  1 3.950000e-01    1.850000e+00
  C2eh   TX4  1 3.950000e-01    1.850000e+00
  C3eh   TX4  1 3.950000e-01    2.310000e+00
  C4eh   TX4  1 3.950000e-01    2.310000e+00
  C5eh   TX4  1 3.950000e-01    2.310000e+00
  C6eh   TX4  1 3.950000e-01    2.500000e+00
  C1vh   TX4  1 3.950000e-01    1.850000e+00
  C2vh   TX4  1 3.950000e-01    1.850000e+00
  C3vh   TX4  1 3.950000e-01    2.310000e+00
  C4vh   TX4  1 3.950000e-01    2.310000e+00
  C5vh   TX4  1 3.950000e-01    2.310000e+00
  C6vh   TX4  1 3.950000e-01    2.500000e+00
  N1ah   TX4  1 3.950000e-01    2.310000e+00
  N2ah   TX4  1 3.950000e-01    2.500000e+00
  N3ah   TX4  1 3.950000e-01    2.500000e+00
  N4ah   TX4  1 3.950000e-01    2.700000e+00
  N5ah   TX4  1 3.950000e-01    2.500000e+00
  N6ah   TX4  1 3.950000e-01    2.310000e+00
  P1ah   TX4  1 3.950000e-01    2.110000e+00
  P2ah   TX4  1 3.950000e-01    2.110000e+00
  P3ah   TX4  1 3.950000e-01    2.110000e+00
  P4ah   TX4  1 3.950000e-01    2.110000e+00
  P5ah   TX4  1 3.950000e-01    2.110000e+00
  P6ah   TX4  1 3.950000e-01    1.850000e+00
  N1dh   TX4  1 3.950000e-01    2.310000e+00
  N2dh   TX4  1 3.950000e-01    2.500000e+00
  N3dh   TX4  1 3.950000e-01    2.500000e+00
  N4dh   TX4  1 3.950000e-01    2.700000e+00
  N5dh   TX4  1 3.950000e-01    2.500000e+00
  N6dh   TX4  1 3.950000e-01    2.310000e+00
  P1dh   TX4  1 3.950000e-01    2.110000e+00
  P2dh   TX4  1 3.950000e-01    2.110000e+00
  P3dh   TX4  1 3.950000e-01    2.110000e+00
  P4dh   TX4  1 3.950000e-01    2.110000e+00
  P5dh   TX4  1 3.950000e-01    2.110000e+00
  P6dh   TX4  1 3.950000e-01    1.850000e+00
   P6r   TX4  1 3.950000e-01    1.850000e+00
   P5r   TX4  1 3.950000e-01    2.110000e+00
   P4r   TX4  1 3.950000e-01    2.110000e+00
   P3r   TX4  1 3.950000e-01    2.110000e+00
   P2r   TX4  1 3.950000e-01    2.110000e+00
   P1r   TX4  1 3.950000e-01    2.110000e+00
   N6r   TX4  1 3.950000e-01    2.310000e+00
   N5r   TX4  1 3.950000e-01    2.500000e+00
   N4r   TX4  1 3.950000e-01    2.700000e+00
   N3r   TX4  1 3.950000e-01    2.500000e+00
   N2r   TX4  1 3.950000e-01    2.500000e+00
   N1r   TX4  1 3.950000e-01    2.310000e+00
   C6r   TX4  1 3.950000e-01    2.310000e+00
   C5r   TX4  1 3.950000e-01    2.110000e+00
   C4r   TX4  1 3.950000e-01    2.110000e+00
   C3r   TX4  1 3.950000e-01    2.110000e+00
   C2r   TX4  1 3.950000e-01    1.670000e+00
   C1r   TX4  1 3.950000e-01    1.670000e+00
  C1er   TX4  1 3.950000e-01    1.850000e+00
  C2er   TX4  1 3.950000e-01    1.850000e+00
  C3er   TX4  1 3.950000e-01    2.310000e+00
  C4er   TX4  1 3.950000e-01    2.310000e+00
  C5er   TX4  1 3.950000e-01    2.310000e+00
  C6er   TX4  1 3.950000e-01    2.500000e+00
  C1vr   TX4  1 3.950000e-01    1.850000e+00
  C2vr   TX4  1 3.950000e-01    1.850000e+00
  C3vr   TX4  1 3.950000e-01    2.310000e+00
  C4vr   TX4  1 3.950000e-01    2.310000e+00
  C5vr   TX4  1 3.950000e-01    2.310000e+00
  C6vr   TX4  1 3.950000e-01    2.500000e+00
  N1ar   TX4  1 3.950000e-01    2.310000e+00
  N2ar   TX4  1 3.950000e-01    2.500000e+00
  N3ar   TX4  1 3.950000e-01    2.500000e+00
  N4ar   TX4  1 3.950000e-01    2.700000e+00
  N5ar   TX4  1 3.950000e-01    2.500000e+00
  N6ar   TX4  1 3.950000e-01    2.310000e+00
  P1ar   TX4  1 3.950000e-01    2.110000e+00
  P2ar   TX4  1 3.950000e-01    2.110000e+00
  P3ar   TX4  1 3.950000e-01    2.110000e+00
  P4ar   TX4  1 3.950000e-01    2.110000e+00
  P5ar   TX4  1 3.950000e-01    2.110000e+00
  P6ar   TX4  1 3.950000e-01    1.850000e+00
  N1dr   TX4  1 3.950000e-01    2.310000e+00
  N2dr   TX4  1 3.950000e-01    2.500000e+00
  N3dr   TX4  1 3.950000e-01    2.500000e+00
  N4dr   TX4  1 3.950000e-01    2.700000e+00
  N5dr   TX4  1 3.950000e-01    2.500000e+00
  N6dr   TX4  1 3.950000e-01    2.310000e+00
  P1dr   TX4  1 3.950000e-01    2.110000e+00
  P2dr   TX4  1 3.950000e-01    2.110000e+00
  P3dr   TX4  1 3.950000e-01    2.110000e+00
  P4dr   TX4  1 3.950000e-01    2.110000e+00
  P5dr   TX4  1 3.950000e-01    2.110000e+00
  P6dr   TX4  1 3.950000e-01    1.850000e+00
   TX4    X3  1 3.950000e-01    2.310000e+00
   TX4    X2  1 3.950000e-01    2.310000e+00
   TX4    X1  1 3.950000e-01    2.310000e+00
   TX4   X4v  1 3.950000e-01    2.500000e+00
   TX4   X1v  1 3.950000e-01    2.500000e+00
   TX4   X2v  1 3.950000e-01    2.500000e+00
   TX4   X3v  1 3.950000e-01    2.500000e+00
   TX4   X4e  1 3.950000e-01    2.500000e+00
   TX4   X1e  1 3.950000e-01    2.500000e+00
   TX4   X2e  1 3.950000e-01    2.500000e+00
   TX4   X3e  1 3.950000e-01    2.500000e+00
   TX4   X4q  1 3.950000e-01    2.700000e+00
   TX4  X1eq  1 3.950000e-01    2.940000e+00
   TX4  X2eq  1 3.950000e-01    2.940000e+00
   TX4  X3eq  1 3.950000e-01    2.940000e+00
   TX4  X4eq  1 3.950000e-01    2.940000e+00
   TX4  X1vq  1 3.950000e-01    2.940000e+00
   TX4  X2vq  1 3.950000e-01    2.940000e+00
   TX4  X3vq  1 3.950000e-01    2.940000e+00
   TX4  X4vq  1 3.950000e-01    2.940000e+00
   TX4   X1q  1 3.950000e-01    2.700000e+00
   TX4   X2q  1 3.950000e-01    2.700000e+00
   TX4   X3q  1 3.950000e-01    2.700000e+00
   TX4   X4h  1 3.950000e-01    2.310000e+00
   TX4  X1eh  1 3.950000e-01    2.500000e+00
   TX4  X2eh  1 3.950000e-01    2.500000e+00
   TX4  X3eh  1 3.950000e-01    2.500000e+00
   TX4  X4eh  1 3.950000e-01    2.500000e+00
   TX4  X1vh  1 3.950000e-01    2.500000e+00
   TX4  X2vh  1 3.950000e-01    2.500000e+00
   TX4  X3vh  1 3.950000e-01    2.500000e+00
   TX4  X4vh  1 3.950000e-01    2.500000e+00
   TX4   X1h  1 3.950000e-01    2.310000e+00
   TX4   X2h  1 3.950000e-01    2.310000e+00
   TX4   X3h  1 3.950000e-01    2.310000e+00
   TX4   X4r  1 3.950000e-01    2.310000e+00
   TX4  X1er  1 3.950000e-01    2.500000e+00
   TX4  X2er  1 3.950000e-01    2.500000e+00
   TX4  X3er  1 3.950000e-01    2.500000e+00
   TX4  X4er  1 3.950000e-01    2.500000e+00
   TX4  X1vr  1 3.950000e-01    2.500000e+00
   TX4  X2vr  1 3.950000e-01    2.500000e+00
   TX4  X3vr  1 3.950000e-01    2.500000e+00
   TX4  X4vr  1 3.950000e-01    2.500000e+00
   TX4   X1r  1 3.950000e-01    2.310000e+00
   TX4   X2r  1 3.950000e-01    2.310000e+00
   TX4   X3r  1 3.950000e-01    2.310000e+00
   TX4   TX4  1 3.400000e-01    1.510000e+00
   TX4   TX3  1 3.400000e-01    1.510000e+00
   TX4   TX2  1 3.400000e-01    1.510000e+00
   TX4   TX1  1 3.400000e-01    1.510000e+00
  TP6d   TX4  1 3.520000e-01    1.050000e+00
  TP5d   TX4  1 3.400000e-01    1.230000e+00
  TP4d   TX4  1 3.400000e-01    1.230000e+00
  TP3d   TX4  1 3.400000e-01    1.230000e+00
  TP2d   TX4  1 3.400000e-01    1.230000e+00
  TP1d   TX4  1 3.400000e-01    1.230000e+00
  TN6d   TX4  1 3.400000e-01    1.510000e+00
  TN5d   TX4  1 3.400000e-01    1.770000e+00
  TN4d   TX4  1 3.400000e-01    2.020000e+00
  TN3d   TX4  1 3.400000e-01    1.770000e+00
  TN2d   TX4  1 3.400000e-01    1.770000e+00
  TN1d   TX4  1 3.400000e-01    1.510000e+00
  TP6a   TX4  1 3.520000e-01    1.050000e+00
  TP5a   TX4  1 3.400000e-01    1.230000e+00
  TP4a   TX4  1 3.400000e-01    1.230000e+00
  TP3a   TX4  1 3.400000e-01    1.230000e+00
  TP2a   TX4  1 3.400000e-01    1.230000e+00
  TP1a   TX4  1 3.400000e-01    1.230000e+00
  TN6a   TX4  1 3.400000e-01    1.510000e+00
  TN5a   TX4  1 3.400000e-01    1.770000e+00
  TN4a   TX4  1 3.400000e-01    2.020000e+00
  TN3a   TX4  1 3.400000e-01    1.770000e+00
  TN2a   TX4  1 3.400000e-01    1.770000e+00
  TN1a   TX4  1 3.400000e-01    1.510000e+00
  TC6v   TX4  1 3.400000e-01    1.770000e+00
  TC5v   TX4  1 3.400000e-01    1.510000e+00
  TC4v   TX4  1 3.400000e-01    1.510000e+00
  TC3v   TX4  1 3.400000e-01    1.510000e+00
  TC2v   TX4  1 3.520000e-01    1.050000e+00
  TC1v   TX4  1 3.520000e-01    1.050000e+00
   TX4  TX4v  1 3.400000e-01    1.770000e+00
   TX4  TX1v  1 3.400000e-01    1.770000e+00
   TX4  TX2v  1 3.400000e-01    1.770000e+00
   TX4  TX3v  1 3.400000e-01    1.770000e+00
  TC6e   TX4  1 3.400000e-01    1.770000e+00
  TC5e   TX4  1 3.400000e-01    1.510000e+00
  TC4e   TX4  1 3.400000e-01    1.510000e+00
  TC3e   TX4  1 3.400000e-01    1.510000e+00
  TC2e   TX4  1 3.520000e-01    1.050000e+00
  TC1e   TX4  1 3.520000e-01    1.050000e+00
   TX4  TX4e  1 3.400000e-01    1.770000e+00
   TX4  TX1e  1 3.400000e-01    1.770000e+00
   TX4  TX2e  1 3.400000e-01    1.770000e+00
   TX4  TX3e  1 3.400000e-01    1.770000e+00
  TP6q   TX4  1 3.400000e-01    1.510000e+00
  TP5q   TX4  1 3.400000e-01    1.770000e+00
  TP4q   TX4  1 3.400000e-01    1.770000e+00
  TP3q   TX4  1 3.400000e-01    1.770000e+00
  TP2q   TX4  1 3.400000e-01    1.770000e+00
  TP1q   TX4  1 3.400000e-01    1.770000e+00
  TN6q   TX4  1 3.400000e-01    2.020000e+00
  TN5q   TX4  1 3.400000e-01    2.280000e+00
  TN4q   TX4  1 3.400000e-01    2.500000e+00
  TN3q   TX4  1 3.400000e-01    2.280000e+00
  TN2q   TX4  1 3.400000e-01    2.280000e+00
  TN1q   TX4  1 3.400000e-01    2.020000e+00
  TC6q   TX4  1 3.400000e-01    2.020000e+00
  TC5q   TX4  1 3.400000e-01    1.770000e+00
  TC4q   TX4  1 3.400000e-01    1.770000e+00
  TC3q   TX4  1 3.400000e-01    1.770000e+00
  TC2q   TX4  1 3.400000e-01    1.230000e+00
  TC1q   TX4  1 3.400000e-01    1.230000e+00
   TX4  TX4q  1 3.400000e-01    2.020000e+00
   TX4 TX1eq  1 3.400000e-01    2.280000e+00
   TX4 TX2eq  1 3.400000e-01    2.280000e+00
   TX4 TX3eq  1 3.400000e-01    2.280000e+00
   TX4 TX4eq  1 3.400000e-01    2.280000e+00
 TC1eq   TX4  1 3.400000e-01    1.510000e+00
 TC2eq   TX4  1 3.400000e-01    1.510000e+00
 TC3eq   TX4  1 3.400000e-01    2.020000e+00
 TC4eq   TX4  1 3.400000e-01    2.020000e+00
 TC5eq   TX4  1 3.400000e-01    2.020000e+00
 TC6eq   TX4  1 3.400000e-01    2.280000e+00
   TX4 TX1vq  1 3.400000e-01    2.280000e+00
   TX4 TX2vq  1 3.400000e-01    2.280000e+00
   TX4 TX3vq  1 3.400000e-01    2.280000e+00
   TX4 TX4vq  1 3.400000e-01    2.280000e+00
 TC1vq   TX4  1 3.400000e-01    1.510000e+00
 TC2vq   TX4  1 3.400000e-01    1.510000e+00
 TC3vq   TX4  1 3.400000e-01    2.020000e+00
 TC4vq   TX4  1 3.400000e-01    2.020000e+00
 TC5vq   TX4  1 3.400000e-01    2.020000e+00
 TC6vq   TX4  1 3.400000e-01    2.280000e+00
 TN1aq   TX4  1 3.400000e-01    2.020000e+00
 TN2aq   TX4  1 3.400000e-01    2.280000e+00
 TN3aq   TX4  1 3.400000e-01    2.280000e+00
 TN4aq   TX4  1 3.400000e-01    2.500000e+00
 TN5aq   TX4  1 3.400000e-01    2.280000e+00
 TN6aq   TX4  1 3.400000e-01    2.020000e+00
 TP1aq   TX4  1 3.400000e-01    1.770000e+00
 TP2aq   TX4  1 3.400000e-01    1.770000e+00
 TP3aq   TX4  1 3.400000e-01    1.770000e+00
 TP4aq   TX4  1 3.400000e-01    1.770000e+00
 TP5aq   TX4  1 3.400000e-01    1.770000e+00
 TP6aq   TX4  1 3.400000e-01    1.510000e+00
 TN1dq   TX4  1 3.400000e-01    2.020000e+00
 TN2dq   TX4  1 3.400000e-01    2.280000e+00
 TN3dq   TX4  1 3.400000e-01    2.280000e+00
 TN4dq   TX4  1 3.400000e-01    2.500000e+00
 TN5dq   TX4  1 3.400000e-01    2.280000e+00
 TN6dq   TX4  1 3.400000e-01    2.020000e+00
 TP1dq   TX4  1 3.400000e-01    1.770000e+00
 TP2dq   TX4  1 3.400000e-01    1.770000e+00
 TP3dq   TX4  1 3.400000e-01    1.770000e+00
 TP4dq   TX4  1 3.400000e-01    1.770000e+00
 TP5dq   TX4  1 3.400000e-01    1.770000e+00
 TP6dq   TX4  1 3.400000e-01    1.510000e+00
   TX4  TX1q  1 3.400000e-01    2.020000e+00
   TX4  TX2q  1 3.400000e-01    2.020000e+00
   TX4  TX3q  1 3.400000e-01    2.020000e+00
  TP6h   TX4  1 3.520000e-01    1.050000e+00
  TP5h   TX4  1 3.400000e-01    1.230000e+00
  TP4h   TX4  1 3.400000e-01    1.230000e+00
  TP3h   TX4  1 3.400000e-01    1.230000e+00
  TP2h   TX4  1 3.400000e-01    1.230000e+00
  TP1h   TX4  1 3.400000e-01    1.230000e+00
  TN6h   TX4  1 3.400000e-01    1.510000e+00
  TN5h   TX4  1 3.400000e-01    1.770000e+00
  TN4h   TX4  1 3.400000e-01    2.020000e+00
  TN3h   TX4  1 3.400000e-01    1.770000e+00
  TN2h   TX4  1 3.400000e-01    1.770000e+00
  TN1h   TX4  1 3.400000e-01    1.510000e+00
  TC6h   TX4  1 3.400000e-01    1.510000e+00
  TC5h   TX4  1 3.400000e-01    1.230000e+00
  TC4h   TX4  1 3.400000e-01    1.230000e+00
  TC3h   TX4  1 3.400000e-01    1.230000e+00
  TC2h   TX4  1 3.660000e-01    9.350000e-01
  TC1h   TX4  1 3.660000e-01    9.350000e-01
   TX4  TX4h  1 3.400000e-01    1.510000e+00
   TX4 TX1eh  1 3.400000e-01    1.770000e+00
   TX4 TX2eh  1 3.400000e-01    1.770000e+00
   TX4 TX3eh  1 3.400000e-01    1.770000e+00
   TX4 TX4eh  1 3.400000e-01    1.770000e+00
 TC1eh   TX4  1 3.520000e-01    1.050000e+00
 TC2eh   TX4  1 3.520000e-01    1.050000e+00
 TC3eh   TX4  1 3.400000e-01    1.510000e+00
 TC4eh   TX4  1 3.400000e-01    1.510000e+00
 TC5eh   TX4  1 3.400000e-01    1.510000e+00
 TC6eh   TX4  1 3.400000e-01    1.770000e+00
   TX4 TX1vh  1 3.400000e-01    1.770000e+00
   TX4 TX2vh  1 3.400000e-01    1.770000e+00
   TX4 TX3vh  1 3.400000e-01    1.770000e+00
   TX4 TX4vh  1 3.400000e-01    1.770000e+00
 TC1vh   TX4  1 3.520000e-01    1.050000e+00
 TC2vh   TX4  1 3.520000e-01    1.050000e+00
 TC3vh   TX4  1 3.400000e-01    1.510000e+00
 TC4vh   TX4  1 3.400000e-01    1.510000e+00
 TC5vh   TX4  1 3.400000e-01    1.510000e+00
 TC6vh   TX4  1 3.400000e-01    1.770000e+00
 TN1ah   TX4  1 3.400000e-01    1.510000e+00
 TN2ah   TX4  1 3.400000e-01    1.770000e+00
 TN3ah   TX4  1 3.400000e-01    1.770000e+00
 TN4ah   TX4  1 3.400000e-01    2.020000e+00
 TN5ah   TX4  1 3.400000e-01    1.770000e+00
 TN6ah   TX4  1 3.400000e-01    1.510000e+00
 TP1ah   TX4  1 3.400000e-01    1.230000e+00
 TP2ah   TX4  1 3.400000e-01    1.230000e+00
 TP3ah   TX4  1 3.400000e-01    1.230000e+00
 TP4ah   TX4  1 3.400000e-01    1.230000e+00
 TP5ah   TX4  1 3.400000e-01    1.230000e+00
 TP6ah   TX4  1 3.520000e-01    1.050000e+00
 TN1dh   TX4  1 3.400000e-01    1.510000e+00
 TN2dh   TX4  1 3.400000e-01    1.770000e+00
 TN3dh   TX4  1 3.400000e-01    1.770000e+00
 TN4dh   TX4  1 3.400000e-01    2.020000e+00
 TN5dh   TX4  1 3.400000e-01    1.770000e+00
 TN6dh   TX4  1 3.400000e-01    1.510000e+00
 TP1dh   TX4  1 3.400000e-01    1.230000e+00
 TP2dh   TX4  1 3.400000e-01    1.230000e+00
 TP3dh   TX4  1 3.400000e-01    1.230000e+00
 TP4dh   TX4  1 3.400000e-01    1.230000e+00
 TP5dh   TX4  1 3.400000e-01    1.230000e+00
 TP6dh   TX4  1 3.520000e-01    1.050000e+00
   TX4  TX1h  1 3.400000e-01    1.510000e+00
   TX4  TX2h  1 3.400000e-01    1.510000e+00
   TX4  TX3h  1 3.400000e-01    1.510000e+00
  TP6r   TX4  1 3.520000e-01    1.050000e+00
  TP5r   TX4  1 3.400000e-01    1.230000e+00
  TP4r   TX4  1 3.400000e-01    1.230000e+00
  TP3r   TX4  1 3.400000e-01    1.230000e+00
  TP2r   TX4  1 3.400000e-01    1.230000e+00
  TP1r   TX4  1 3.400000e-01    1.230000e+00
  TN6r   TX4  1 3.400000e-01    1.510000e+00
  TN5r   TX4  1 3.400000e-01    1.770000e+00
  TN4r   TX4  1 3.400000e-01    2.020000e+00
  TN3r   TX4  1 3.400000e-01    1.770000e+00
  TN2r   TX4  1 3.400000e-01    1.770000e+00
  TN1r   TX4  1 3.400000e-01    1.510000e+00
  TC6r   TX4  1 3.400000e-01    1.510000e+00
  TC5r   TX4  1 3.400000e-01    1.230000e+00
  TC4r   TX4  1 3.400000e-01    1.230000e+00
  TC3r   TX4  1 3.400000e-01    1.230000e+00
  TC2r   TX4  1 3.660000e-01    9.350000e-01
  TC1r   TX4  1 3.660000e-01    9.350000e-01
   TX4  TX4r  1 3.400000e-01    1.510000e+00
   TX4 TX1er  1 3.400000e-01    1.770000e+00
   TX4 TX2er  1 3.400000e-01    1.770000e+00
   TX4 TX3er  1 3.400000e-01    1.770000e+00
   TX4 TX4er  1 3.400000e-01    1.770000e+00
 TC1er   TX4  1 3.520000e-01    1.050000e+00
 TC2er   TX4  1 3.520000e-01    1.050000e+00
 TC3er   TX4  1 3.400000e-01    1.510000e+00
 TC4er   TX4  1 3.400000e-01    1.510000e+00
 TC5er   TX4  1 3.400000e-01    1.510000e+00
 TC6er   TX4  1 3.400000e-01    1.770000e+00
   TX4 TX1vr  1 3.400000e-01    1.770000e+00
   TX4 TX2vr  1 3.400000e-01    1.770000e+00
   TX4 TX3vr  1 3.400000e-01    1.770000e+00
   TX4 TX4vr  1 3.400000e-01    1.770000e+00
 TC1vr   TX4  1 3.520000e-01    1.050000e+00
 TC2vr   TX4  1 3.520000e-01    1.050000e+00
 TC3vr   TX4  1 3.400000e-01    1.510000e+00
 TC4vr   TX4  1 3.400000e-01    1.510000e+00
 TC5vr   TX4  1 3.400000e-01    1.510000e+00
 TC6vr   TX4  1 3.400000e-01    1.770000e+00
 TN1ar   TX4  1 3.400000e-01    1.510000e+00
 TN2ar   TX4  1 3.400000e-01    1.770000e+00
 TN3ar   TX4  1 3.400000e-01    1.770000e+00
 TN4ar   TX4  1 3.400000e-01    2.020000e+00
 TN5ar   TX4  1 3.400000e-01    1.770000e+00
 TN6ar   TX4  1 3.400000e-01    1.510000e+00
 TP1ar   TX4  1 3.400000e-01    1.230000e+00
 TP2ar   TX4  1 3.400000e-01    1.230000e+00
 TP3ar   TX4  1 3.400000e-01    1.230000e+00
 TP4ar   TX4  1 3.400000e-01    1.230000e+00
 TP5ar   TX4  1 3.400000e-01    1.230000e+00
 TP6ar   TX4  1 3.520000e-01    1.050000e+00
 TN1dr   TX4  1 3.400000e-01    1.510000e+00
 TN2dr   TX4  1 3.400000e-01    1.770000e+00
 TN3dr   TX4  1 3.400000e-01    1.770000e+00
 TN4dr   TX4  1 3.400000e-01    2.020000e+00
 TN5dr   TX4  1 3.400000e-01    1.770000e+00
 TN6dr   TX4  1 3.400000e-01    1.510000e+00
 TP1dr   TX4  1 3.400000e-01    1.230000e+00
 TP2dr   TX4  1 3.400000e-01    1.230000e+00
 TP3dr   TX4  1 3.400000e-01    1.230000e+00
 TP4dr   TX4  1 3.400000e-01    1.230000e+00
 TP5dr   TX4  1 3.400000e-01    1.230000e+00
 TP6dr   TX4  1 3.520000e-01    1.050000e+00
   TX4  TX1r  1 3.400000e-01    1.510000e+00
   TX4  TX2r  1 3.400000e-01    1.510000e+00
   TX4  TX3r  1 3.400000e-01    1.510000e+00
  SP6d   TX4  1 3.660000e-01    1.600000e+00
  SP5d   TX4  1 3.650000e-01    1.750000e+00
  SP4d   TX4  1 3.650000e-01    1.750000e+00
  SP3d   TX4  1 3.650000e-01    1.750000e+00
  SP2d   TX4  1 3.650000e-01    1.750000e+00
  SP1d   TX4  1 3.650000e-01    1.750000e+00
  SN6d   TX4  1 3.650000e-01    1.910000e+00
  SN5d   TX4  1 3.650000e-01    2.110000e+00
  SN4d   TX4  1 3.650000e-01    2.340000e+00
  SN3d   TX4  1 3.650000e-01    2.110000e+00
  SN2d   TX4  1 3.650000e-01    2.110000e+00
  SN1d   TX4  1 3.650000e-01    1.910000e+00
  SP6a   TX4  1 3.660000e-01    1.600000e+00
  SP5a   TX4  1 3.650000e-01    1.750000e+00
  SP4a   TX4  1 3.650000e-01    1.750000e+00
  SP3a   TX4  1 3.650000e-01    1.750000e+00
  SP2a   TX4  1 3.650000e-01    1.750000e+00
  SP1a   TX4  1 3.650000e-01    1.750000e+00
  SN6a   TX4  1 3.650000e-01    1.910000e+00
  SN5a   TX4  1 3.650000e-01    2.110000e+00
  SN4a   TX4  1 3.650000e-01    2.340000e+00
  SN3a   TX4  1 3.650000e-01    2.110000e+00
  SN2a   TX4  1 3.650000e-01    2.110000e+00
  SN1a   TX4  1 3.650000e-01    1.910000e+00
  SC6v   TX4  1 3.650000e-01    2.110000e+00
  SC5v   TX4  1 3.650000e-01    1.910000e+00
  SC4v   TX4  1 3.650000e-01    1.910000e+00
  SC3v   TX4  1 3.650000e-01    1.910000e+00
  SC2v   TX4  1 3.660000e-01    1.600000e+00
  SC1v   TX4  1 3.660000e-01    1.600000e+00
  SC6e   TX4  1 3.650000e-01    2.110000e+00
  SC5e   TX4  1 3.650000e-01    1.910000e+00
  SC4e   TX4  1 3.650000e-01    1.910000e+00
  SC3e   TX4  1 3.650000e-01    1.910000e+00
  SC2e   TX4  1 3.660000e-01    1.600000e+00
  SC1e   TX4  1 3.660000e-01    1.600000e+00
  SP6q   TX4  1 3.650000e-01    1.910000e+00
  SP5q   TX4  1 3.650000e-01    2.110000e+00
  SP4q   TX4  1 3.650000e-01    2.110000e+00
  SP3q   TX4  1 3.650000e-01    2.110000e+00
  SP2q   TX4  1 3.650000e-01    2.110000e+00
  SP1q   TX4  1 3.650000e-01    2.110000e+00
  SN6q   TX4  1 3.650000e-01    2.340000e+00
  SN5q   TX4  1 3.650000e-01    2.570000e+00
  SN4q   TX4  1 3.650000e-01    2.830000e+00
  SN3q   TX4  1 3.650000e-01    2.570000e+00
  SN2q   TX4  1 3.650000e-01    2.570000e+00
  SN1q   TX4  1 3.650000e-01    2.340000e+00
  SC6q   TX4  1 3.650000e-01    2.340000e+00
  SC5q   TX4  1 3.650000e-01    2.110000e+00
  SC4q   TX4  1 3.650000e-01    2.110000e+00
  SC3q   TX4  1 3.650000e-01    2.110000e+00
  SC2q   TX4  1 3.650000e-01    1.750000e+00
  SC1q   TX4  1 3.650000e-01    1.750000e+00
 SC1eq   TX4  1 3.650000e-01    1.910000e+00
 SC2eq   TX4  1 3.650000e-01    1.910000e+00
 SC3eq   TX4  1 3.650000e-01    2.340000e+00
 SC4eq   TX4  1 3.650000e-01    2.340000e+00
 SC5eq   TX4  1 3.650000e-01    2.340000e+00
 SC6eq   TX4  1 3.650000e-01    2.570000e+00
 SC1vq   TX4  1 3.650000e-01    1.910000e+00
 SC2vq   TX4  1 3.650000e-01    1.910000e+00
 SC3vq   TX4  1 3.650000e-01    2.340000e+00
 SC4vq   TX4  1 3.650000e-01    2.340000e+00
 SC5vq   TX4  1 3.650000e-01    2.340000e+00
 SC6vq   TX4  1 3.650000e-01    2.570000e+00
 SN1aq   TX4  1 3.650000e-01    2.340000e+00
 SN2aq   TX4  1 3.650000e-01    2.570000e+00
 SN3aq   TX4  1 3.650000e-01    2.570000e+00
 SN4aq   TX4  1 3.650000e-01    2.830000e+00
 SN5aq   TX4  1 3.650000e-01    2.570000e+00
 SN6aq   TX4  1 3.650000e-01    2.340000e+00
 SP1aq   TX4  1 3.650000e-01    2.110000e+00
 SP2aq   TX4  1 3.650000e-01    2.110000e+00
 SP3aq   TX4  1 3.650000e-01    2.110000e+00
 SP4aq   TX4  1 3.650000e-01    2.110000e+00
 SP5aq   TX4  1 3.650000e-01    2.110000e+00
 SP6aq   TX4  1 3.650000e-01    1.910000e+00
 SN1dq   TX4  1 3.650000e-01    2.340000e+00
 SN2dq   TX4  1 3.650000e-01    2.570000e+00
 SN3dq   TX4  1 3.650000e-01    2.570000e+00
 SN4dq   TX4  1 3.650000e-01    2.830000e+00
 SN5dq   TX4  1 3.650000e-01    2.570000e+00
 SN6dq   TX4  1 3.650000e-01    2.340000e+00
 SP1dq   TX4  1 3.650000e-01    2.110000e+00
 SP2dq   TX4  1 3.650000e-01    2.110000e+00
 SP3dq   TX4  1 3.650000e-01    2.110000e+00
 SP4dq   TX4  1 3.650000e-01    2.110000e+00
 SP5dq   TX4  1 3.650000e-01    2.110000e+00
 SP6dq   TX4  1 3.650000e-01    1.910000e+00
  SP6h   TX4  1 3.660000e-01    1.600000e+00
  SP5h   TX4  1 3.650000e-01    1.750000e+00
  SP4h   TX4  1 3.650000e-01    1.750000e+00
  SP3h   TX4  1 3.650000e-01    1.750000e+00
  SP2h   TX4  1 3.650000e-01    1.750000e+00
  SP1h   TX4  1 3.650000e-01    1.750000e+00
  SN6h   TX4  1 3.650000e-01    1.910000e+00
  SN5h   TX4  1 3.650000e-01    2.110000e+00
  SN4h   TX4  1 3.650000e-01    2.340000e+00
  SN3h   TX4  1 3.650000e-01    2.110000e+00
  SN2h   TX4  1 3.650000e-01    2.110000e+00
  SN1h   TX4  1 3.650000e-01    1.910000e+00
  SC6h   TX4  1 3.650000e-01    1.910000e+00
  SC5h   TX4  1 3.650000e-01    1.750000e+00
  SC4h   TX4  1 3.650000e-01    1.750000e+00
  SC3h   TX4  1 3.650000e-01    1.750000e+00
  SC2h   TX4  1 3.780000e-01    1.450000e+00
  SC1h   TX4  1 3.780000e-01    1.450000e+00
 SC1eh   TX4  1 3.660000e-01    1.600000e+00
 SC2eh   TX4  1 3.660000e-01    1.600000e+00
 SC3eh   TX4  1 3.650000e-01    1.910000e+00
 SC4eh   TX4  1 3.650000e-01    1.910000e+00
 SC5eh   TX4  1 3.650000e-01    1.910000e+00
 SC6eh   TX4  1 3.650000e-01    2.110000e+00
 SC1vh   TX4  1 3.660000e-01    1.600000e+00
 SC2vh   TX4  1 3.660000e-01    1.600000e+00
 SC3vh   TX4  1 3.650000e-01    1.910000e+00
 SC4vh   TX4  1 3.650000e-01    1.910000e+00
 SC5vh   TX4  1 3.650000e-01    1.910000e+00
 SC6vh   TX4  1 3.650000e-01    2.110000e+00
 SN1ah   TX4  1 3.650000e-01    1.910000e+00
 SN2ah   TX4  1 3.650000e-01    2.110000e+00
 SN3ah   TX4  1 3.650000e-01    2.110000e+00
 SN4ah   TX4  1 3.650000e-01    2.340000e+00
 SN5ah   TX4  1 3.650000e-01    2.110000e+00
 SN6ah   TX4  1 3.650000e-01    1.910000e+00
 SP1ah   TX4  1 3.650000e-01    1.750000e+00
 SP2ah   TX4  1 3.650000e-01    1.750000e+00
 SP3ah   TX4  1 3.650000e-01    1.750000e+00
 SP4ah   TX4  1 3.650000e-01    1.750000e+00
 SP5ah   TX4  1 3.650000e-01    1.750000e+00
 SP6ah   TX4  1 3.660000e-01    1.600000e+00
 SN1dh   TX4  1 3.650000e-01    1.910000e+00
 SN2dh   TX4  1 3.650000e-01    2.110000e+00
 SN3dh   TX4  1 3.650000e-01    2.110000e+00
 SN4dh   TX4  1 3.650000e-01    2.340000e+00
 SN5dh   TX4  1 3.650000e-01    2.110000e+00
 SN6dh   TX4  1 3.650000e-01    1.910000e+00
 SP1dh   TX4  1 3.650000e-01    1.750000e+00
 SP2dh   TX4  1 3.650000e-01    1.750000e+00
 SP3dh   TX4  1 3.650000e-01    1.750000e+00
 SP4dh   TX4  1 3.650000e-01    1.750000e+00
 SP5dh   TX4  1 3.650000e-01    1.750000e+00
 SP6dh   TX4  1 3.660000e-01    1.600000e+00
  SP6r   TX4  1 3.660000e-01    1.600000e+00
  SP5r   TX4  1 3.650000e-01    1.750000e+00
  SP4r   TX4  1 3.650000e-01    1.750000e+00
  SP3r   TX4  1 3.650000e-01    1.750000e+00
  SP2r   TX4  1 3.650000e-01    1.750000e+00
  SP1r   TX4  1 3.650000e-01    1.750000e+00
  SN6r   TX4  1 3.650000e-01    1.910000e+00
  SN5r   TX4  1 3.650000e-01    2.110000e+00
  SN4r   TX4  1 3.650000e-01    2.340000e+00
  SN3r   TX4  1 3.650000e-01    2.110000e+00
  SN2r   TX4  1 3.650000e-01    2.110000e+00
  SN1r   TX4  1 3.650000e-01    1.910000e+00
  SC6r   TX4  1 3.650000e-01    1.910000e+00
  SC5r   TX4  1 3.650000e-01    1.750000e+00
  SC4r   TX4  1 3.650000e-01    1.750000e+00
  SC3r   TX4  1 3.650000e-01    1.750000e+00
  SC2r   TX4  1 3.780000e-01    1.450000e+00
  SC1r   TX4  1 3.780000e-01    1.450000e+00
 SC1er   TX4  1 3.660000e-01    1.600000e+00
 SC2er   TX4  1 3.660000e-01    1.600000e+00
 SC3er   TX4  1 3.650000e-01    1.910000e+00
 SC4er   TX4  1 3.650000e-01    1.910000e+00
 SC5er   TX4  1 3.650000e-01    1.910000e+00
 SC6er   TX4  1 3.650000e-01    2.110000e+00
 SC1vr   TX4  1 3.660000e-01    1.600000e+00
 SC2vr   TX4  1 3.660000e-01    1.600000e+00
 SC3vr   TX4  1 3.650000e-01    1.910000e+00
 SC4vr   TX4  1 3.650000e-01    1.910000e+00
 SC5vr   TX4  1 3.650000e-01    1.910000e+00
 SC6vr   TX4  1 3.650000e-01    2.110000e+00
 SN1ar   TX4  1 3.650000e-01    1.910000e+00
 SN2ar   TX4  1 3.650000e-01    2.110000e+00
 SN3ar   TX4  1 3.650000e-01    2.110000e+00
 SN4ar   TX4  1 3.650000e-01    2.340000e+00
 SN5ar   TX4  1 3.650000e-01    2.110000e+00
 SN6ar   TX4  1 3.650000e-01    1.910000e+00
 SP1ar   TX4  1 3.650000e-01    1.750000e+00
 SP2ar   TX4  1 3.650000e-01    1.750000e+00
 SP3ar   TX4  1 3.650000e-01    1.750000e+00
 SP4ar   TX4  1 3.650000e-01    1.750000e+00
 SP5ar   TX4  1 3.650000e-01    1.750000e+00
 SP6ar   TX4  1 3.660000e-01    1.600000e+00
 SN1dr   TX4  1 3.650000e-01    1.910000e+00
 SN2dr   TX4  1 3.650000e-01    2.110000e+00
 SN3dr   TX4  1 3.650000e-01    2.110000e+00
 SN4dr   TX4  1 3.650000e-01    2.340000e+00
 SN5dr   TX4  1 3.650000e-01    2.110000e+00
 SN6dr   TX4  1 3.650000e-01    1.910000e+00
 SP1dr   TX4  1 3.650000e-01    1.750000e+00
 SP2dr   TX4  1 3.650000e-01    1.750000e+00
 SP3dr   TX4  1 3.650000e-01    1.750000e+00
 SP4dr   TX4  1 3.650000e-01    1.750000e+00
 SP5dr   TX4  1 3.650000e-01    1.750000e+00
 SP6dr   TX4  1 3.660000e-01    1.600000e+00
   TX4   SX3  1 3.650000e-01    1.910000e+00
   TX4   SX2  1 3.650000e-01    1.910000e+00
   TX4   SX1  1 3.650000e-01    1.910000e+00
   TX4  SX4v  1 3.650000e-01    2.110000e+00
   TX4  SX1v  1 3.650000e-01    2.110000e+00
   TX4  SX2v  1 3.650000e-01    2.110000e+00
   TX4  SX3v  1 3.650000e-01    2.110000e+00
   TX4  SX4e  1 3.650000e-01    2.110000e+00
   TX4  SX1e  1 3.650000e-01    2.110000e+00
   TX4  SX2e  1 3.650000e-01    2.110000e+00
   TX4  SX3e  1 3.650000e-01    2.110000e+00
   TX4  SX4q  1 3.650000e-01    2.340000e+00
   TX4 SX1eq  1 3.650000e-01    2.570000e+00
   TX4 SX2eq  1 3.650000e-01    2.570000e+00
   TX4 SX3eq  1 3.650000e-01    2.570000e+00
   TX4 SX4eq  1 3.650000e-01    2.570000e+00
   TX4 SX1vq  1 3.650000e-01    2.570000e+00
   TX4 SX2vq  1 3.650000e-01    2.570000e+00
   TX4 SX3vq  1 3.650000e-01    2.570000e+00
   TX4 SX4vq  1 3.650000e-01    2.570000e+00
   TX4  SX1q  1 3.650000e-01    2.340000e+00
   TX4  SX2q  1 3.650000e-01    2.340000e+00
   TX4  SX3q  1 3.650000e-01    2.340000e+00
   TX4  SX4h  1 3.650000e-01    1.910000e+00
   TX4 SX1eh  1 3.650000e-01    2.110000e+00
   TX4 SX2eh  1 3.650000e-01    2.110000e+00
   TX4 SX3eh  1 3.650000e-01    2.110000e+00
   TX4 SX4eh  1 3.650000e-01    2.110000e+00
   TX4 SX1vh  1 3.650000e-01    2.110000e+00
   TX4 SX2vh  1 3.650000e-01    2.110000e+00
   TX4 SX3vh  1 3.650000e-01    2.110000e+00
   TX4 SX4vh  1 3.650000e-01    2.110000e+00
   TX4  SX1h  1 3.650000e-01    1.910000e+00
   TX4  SX2h  1 3.650000e-01    1.910000e+00
   TX4  SX3h  1 3.650000e-01    1.910000e+00
   TX4  SX4r  1 3.650000e-01    1.910000e+00
   TX4 SX1er  1 3.650000e-01    2.110000e+00
   TX4 SX2er  1 3.650000e-01    2.110000e+00
   TX4 SX3er  1 3.650000e-01    2.110000e+00
   TX4 SX4er  1 3.650000e-01    2.110000e+00
   TX4 SX1vr  1 3.650000e-01    2.110000e+00
   TX4 SX2vr  1 3.650000e-01    2.110000e+00
   TX4 SX3vr  1 3.650000e-01    2.110000e+00
   TX4 SX4vr  1 3.650000e-01    2.110000e+00
   TX4  SX1r  1 3.650000e-01    1.910000e+00
   TX4  SX2r  1 3.650000e-01    1.910000e+00
   TX4  SX3r  1 3.650000e-01    1.910000e+00
    X3    X3  1 4.700000e-01    3.390000e+00
    X3    X2  1 4.700000e-01    3.520000e+00
    X3    X1  1 4.700000e-01    3.520000e+00
   P6d    X3  1 4.700000e-01    3.070000e+00
   P5d    X3  1 4.700000e-01    3.070000e+00
   P4d    X3  1 4.700000e-01    3.070000e+00
   P3d    X3  1 4.700000e-01    3.240000e+00
   P2d    X3  1 4.700000e-01    3.240000e+00
   P1d    X3  1 4.700000e-01    3.240000e+00
   N6d    X3  1 4.700000e-01    3.240000e+00
   N5d    X3  1 4.700000e-01    3.390000e+00
   N4d    X3  1 4.700000e-01    3.520000e+00
   N3d    X3  1 4.700000e-01    3.390000e+00
   N2d    X3  1 4.700000e-01    3.390000e+00
   N1d    X3  1 4.700000e-01    3.390000e+00
   P6a    X3  1 4.700000e-01    3.070000e+00
   P5a    X3  1 4.700000e-01    3.070000e+00
   P4a    X3  1 4.700000e-01    3.070000e+00
   P3a    X3  1 4.700000e-01    3.240000e+00
   P2a    X3  1 4.700000e-01    3.240000e+00
   P1a    X3  1 4.700000e-01    3.240000e+00
   N6a    X3  1 4.700000e-01    3.240000e+00
   N5a    X3  1 4.700000e-01    3.390000e+00
   N4a    X3  1 4.700000e-01    3.520000e+00
   N3a    X3  1 4.700000e-01    3.390000e+00
   N2a    X3  1 4.700000e-01    3.390000e+00
   N1a    X3  1 4.700000e-01    3.390000e+00
   C6v    X3  1 4.700000e-01    3.520000e+00
   C5v    X3  1 4.700000e-01    3.390000e+00
   C4v    X3  1 4.700000e-01    3.390000e+00
   C3v    X3  1 4.700000e-01    3.390000e+00
   C2v    X3  1 4.700000e-01    3.390000e+00
   C1v    X3  1 4.700000e-01    3.390000e+00
   X4v    X3  1 4.700000e-01    3.520000e+00
    X3   X3v  1 4.700000e-01    3.520000e+00
    X3   X1v  1 4.700000e-01    3.690000e+00
    X3   X2v  1 4.700000e-01    3.690000e+00
   C6e    X3  1 4.700000e-01    3.520000e+00
   C5e    X3  1 4.700000e-01    3.390000e+00
   C4e    X3  1 4.700000e-01    3.390000e+00
   C3e    X3  1 4.700000e-01    3.390000e+00
   C2e    X3  1 4.700000e-01    3.390000e+00
   C1e    X3  1 4.700000e-01    3.390000e+00
   X4e    X3  1 4.700000e-01    3.520000e+00
    X3   X3e  1 4.700000e-01    3.520000e+00
    X3   X1e  1 4.700000e-01    3.690000e+00
    X3   X2e  1 4.700000e-01    3.690000e+00
   P6q    X3  1 4.700000e-01    3.390000e+00
   P5q    X3  1 4.700000e-01    3.390000e+00
   P4q    X3  1 4.700000e-01    3.390000e+00
   P3q    X3  1 4.700000e-01    3.520000e+00
   P2q    X3  1 4.700000e-01    3.520000e+00
   P1q    X3  1 4.700000e-01    3.520000e+00
   N6q    X3  1 4.700000e-01    3.520000e+00
   N5q    X3  1 4.700000e-01    3.690000e+00
   N4q    X3  1 4.700000e-01    3.880000e+00
   N3q    X3  1 4.700000e-01    3.690000e+00
   N2q    X3  1 4.700000e-01    3.690000e+00
   N1q    X3  1 4.700000e-01    3.690000e+00
   C6q    X3  1 4.700000e-01    3.690000e+00
   C5q    X3  1 4.700000e-01    3.520000e+00
   C4q    X3  1 4.700000e-01    3.520000e+00
   C3q    X3  1 4.700000e-01    3.520000e+00
   C2q    X3  1 4.700000e-01    3.520000e+00
   C1q    X3  1 4.700000e-01    3.520000e+00
   X4q    X3  1 4.700000e-01    3.690000e+00
    X3   X3q  1 4.700000e-01    3.690000e+00
    X3  X1eq  1 4.700000e-01    4.060000e+00
    X3  X2eq  1 4.700000e-01    4.060000e+00
    X3  X3eq  1 4.700000e-01    3.880000e+00
  X4eq    X3  1 4.700000e-01    3.880000e+00
  C1eq    X3  1 4.700000e-01    3.690000e+00
  C2eq    X3  1 4.700000e-01    3.690000e+00
  C3eq    X3  1 4.700000e-01    3.690000e+00
  C4eq    X3  1 4.700000e-01    3.690000e+00
  C5eq    X3  1 4.700000e-01    3.690000e+00
  C6eq    X3  1 4.700000e-01    3.880000e+00
    X3  X1vq  1 4.700000e-01    4.060000e+00
    X3  X2vq  1 4.700000e-01    4.060000e+00
    X3  X3vq  1 4.700000e-01    3.880000e+00
  X4vq    X3  1 4.700000e-01    3.880000e+00
  C1vq    X3  1 4.700000e-01    3.690000e+00
  C2vq    X3  1 4.700000e-01    3.690000e+00
  C3vq    X3  1 4.700000e-01    3.690000e+00
  C4vq    X3  1 4.700000e-01    3.690000e+00
  C5vq    X3  1 4.700000e-01    3.690000e+00
  C6vq    X3  1 4.700000e-01    3.880000e+00
  N1aq    X3  1 4.700000e-01    3.690000e+00
  N2aq    X3  1 4.700000e-01    3.690000e+00
  N3aq    X3  1 4.700000e-01    3.690000e+00
  N4aq    X3  1 4.700000e-01    3.880000e+00
  N5aq    X3  1 4.700000e-01    3.690000e+00
  N6aq    X3  1 4.700000e-01    3.520000e+00
  P1aq    X3  1 4.700000e-01    3.520000e+00
  P2aq    X3  1 4.700000e-01    3.520000e+00
  P3aq    X3  1 4.700000e-01    3.520000e+00
  P4aq    X3  1 4.700000e-01    3.390000e+00
  P5aq    X3  1 4.700000e-01    3.390000e+00
  P6aq    X3  1 4.700000e-01    3.390000e+00
  N1dq    X3  1 4.700000e-01    3.690000e+00
  N2dq    X3  1 4.700000e-01    3.690000e+00
  N3dq    X3  1 4.700000e-01    3.690000e+00
  N4dq    X3  1 4.700000e-01    3.880000e+00
  N5dq    X3  1 4.700000e-01    3.690000e+00
  N6dq    X3  1 4.700000e-01    3.520000e+00
  P1dq    X3  1 4.700000e-01    3.520000e+00
  P2dq    X3  1 4.700000e-01    3.520000e+00
  P3dq    X3  1 4.700000e-01    3.520000e+00
  P4dq    X3  1 4.700000e-01    3.390000e+00
  P5dq    X3  1 4.700000e-01    3.390000e+00
  P6dq    X3  1 4.700000e-01    3.390000e+00
    X3   X1q  1 4.700000e-01    3.880000e+00
    X3   X2q  1 4.700000e-01    3.880000e+00
   P6h    X3  1 4.700000e-01    3.070000e+00
   P5h    X3  1 4.700000e-01    3.070000e+00
   P4h    X3  1 4.700000e-01    3.070000e+00
   P3h    X3  1 4.700000e-01    3.240000e+00
   P2h    X3  1 4.700000e-01    3.240000e+00
   P1h    X3  1 4.700000e-01    3.240000e+00
   N6h    X3  1 4.700000e-01    3.240000e+00
   N5h    X3  1 4.700000e-01    3.390000e+00
   N4h    X3  1 4.700000e-01    3.520000e+00
   N3h    X3  1 4.700000e-01    3.390000e+00
   N2h    X3  1 4.700000e-01    3.390000e+00
   N1h    X3  1 4.700000e-01    3.390000e+00
   C6h    X3  1 4.700000e-01    3.390000e+00
   C5h    X3  1 4.700000e-01    3.240000e+00
   C4h    X3  1 4.700000e-01    3.240000e+00
   C3h    X3  1 4.700000e-01    3.240000e+00
   C2h    X3  1 4.700000e-01    3.240000e+00
   C1h    X3  1 4.700000e-01    3.240000e+00
   X4h    X3  1 4.700000e-01    3.390000e+00
    X3   X3h  1 4.700000e-01    3.390000e+00
    X3  X1eh  1 4.700000e-01    3.690000e+00
    X3  X2eh  1 4.700000e-01    3.690000e+00
    X3  X3eh  1 4.700000e-01    3.520000e+00
  X4eh    X3  1 4.700000e-01    3.520000e+00
  C1eh    X3  1 4.700000e-01    3.390000e+00
  C2eh    X3  1 4.700000e-01    3.390000e+00
  C3eh    X3  1 4.700000e-01    3.390000e+00
  C4eh    X3  1 4.700000e-01    3.390000e+00
  C5eh    X3  1 4.700000e-01    3.390000e+00
  C6eh    X3  1 4.700000e-01    3.520000e+00
    X3  X1vh  1 4.700000e-01    3.690000e+00
    X3  X2vh  1 4.700000e-01    3.690000e+00
    X3  X3vh  1 4.700000e-01    3.520000e+00
  X4vh    X3  1 4.700000e-01    3.520000e+00
  C1vh    X3  1 4.700000e-01    3.390000e+00
  C2vh    X3  1 4.700000e-01    3.390000e+00
  C3vh    X3  1 4.700000e-01    3.390000e+00
  C4vh    X3  1 4.700000e-01    3.390000e+00
  C5vh    X3  1 4.700000e-01    3.390000e+00
  C6vh    X3  1 4.700000e-01    3.520000e+00
  N1ah    X3  1 4.700000e-01    3.390000e+00
  N2ah    X3  1 4.700000e-01    3.390000e+00
  N3ah    X3  1 4.700000e-01    3.390000e+00
  N4ah    X3  1 4.700000e-01    3.520000e+00
  N5ah    X3  1 4.700000e-01    3.390000e+00
  N6ah    X3  1 4.700000e-01    3.240000e+00
  P1ah    X3  1 4.700000e-01    3.240000e+00
  P2ah    X3  1 4.700000e-01    3.240000e+00
  P3ah    X3  1 4.700000e-01    3.240000e+00
  P4ah    X3  1 4.700000e-01    3.070000e+00
  P5ah    X3  1 4.700000e-01    3.070000e+00
  P6ah    X3  1 4.700000e-01    3.070000e+00
  N1dh    X3  1 4.700000e-01    3.390000e+00
  N2dh    X3  1 4.700000e-01    3.390000e+00
  N3dh    X3  1 4.700000e-01    3.390000e+00
  N4dh    X3  1 4.700000e-01    3.520000e+00
  N5dh    X3  1 4.700000e-01    3.390000e+00
  N6dh    X3  1 4.700000e-01    3.240000e+00
  P1dh    X3  1 4.700000e-01    3.240000e+00
  P2dh    X3  1 4.700000e-01    3.240000e+00
  P3dh    X3  1 4.700000e-01    3.240000e+00
  P4dh    X3  1 4.700000e-01    3.070000e+00
  P5dh    X3  1 4.700000e-01    3.070000e+00
  P6dh    X3  1 4.700000e-01    3.070000e+00
    X3   X1h  1 4.700000e-01    3.520000e+00
    X3   X2h  1 4.700000e-01    3.520000e+00
   P6r    X3  1 4.700000e-01    3.070000e+00
   P5r    X3  1 4.700000e-01    3.070000e+00
   P4r    X3  1 4.700000e-01    3.070000e+00
   P3r    X3  1 4.700000e-01    3.240000e+00
   P2r    X3  1 4.700000e-01    3.240000e+00
   P1r    X3  1 4.700000e-01    3.240000e+00
   N6r    X3  1 4.700000e-01    3.240000e+00
   N5r    X3  1 4.700000e-01    3.390000e+00
   N4r    X3  1 4.700000e-01    3.520000e+00
   N3r    X3  1 4.700000e-01    3.390000e+00
   N2r    X3  1 4.700000e-01    3.390000e+00
   N1r    X3  1 4.700000e-01    3.390000e+00
   C6r    X3  1 4.700000e-01    3.390000e+00
   C5r    X3  1 4.700000e-01    3.240000e+00
   C4r    X3  1 4.700000e-01    3.240000e+00
   C3r    X3  1 4.700000e-01    3.240000e+00
   C2r    X3  1 4.700000e-01    3.240000e+00
   C1r    X3  1 4.700000e-01    3.240000e+00
   X4r    X3  1 4.700000e-01    3.390000e+00
    X3   X3r  1 4.700000e-01    3.390000e+00
    X3  X1er  1 4.700000e-01    3.690000e+00
    X3  X2er  1 4.700000e-01    3.690000e+00
    X3  X3er  1 4.700000e-01    3.520000e+00
  X4er    X3  1 4.700000e-01    3.520000e+00
  C1er    X3  1 4.700000e-01    3.390000e+00
  C2er    X3  1 4.700000e-01    3.390000e+00
  C3er    X3  1 4.700000e-01    3.390000e+00
  C4er    X3  1 4.700000e-01    3.390000e+00
  C5er    X3  1 4.700000e-01    3.390000e+00
  C6er    X3  1 4.700000e-01    3.520000e+00
    X3  X1vr  1 4.700000e-01    3.690000e+00
    X3  X2vr  1 4.700000e-01    3.690000e+00
    X3  X3vr  1 4.700000e-01    3.520000e+00
  X4vr    X3  1 4.700000e-01    3.520000e+00
  C1vr    X3  1 4.700000e-01    3.390000e+00
  C2vr    X3  1 4.700000e-01    3.390000e+00
  C3vr    X3  1 4.700000e-01    3.390000e+00
  C4vr    X3  1 4.700000e-01    3.390000e+00
  C5vr    X3  1 4.700000e-01    3.390000e+00
  C6vr    X3  1 4.700000e-01    3.520000e+00
  N1ar    X3  1 4.700000e-01    3.390000e+00
  N2ar    X3  1 4.700000e-01    3.390000e+00
  N3ar    X3  1 4.700000e-01    3.390000e+00
  N4ar    X3  1 4.700000e-01    3.520000e+00
  N5ar    X3  1 4.700000e-01    3.390000e+00
  N6ar    X3  1 4.700000e-01    3.240000e+00
  P1ar    X3  1 4.700000e-01    3.240000e+00
  P2ar    X3  1 4.700000e-01    3.240000e+00
  P3ar    X3  1 4.700000e-01    3.240000e+00
  P4ar    X3  1 4.700000e-01    3.070000e+00
  P5ar    X3  1 4.700000e-01    3.070000e+00
  P6ar    X3  1 4.700000e-01    3.070000e+00
  N1dr    X3  1 4.700000e-01    3.390000e+00
  N2dr    X3  1 4.700000e-01    3.390000e+00
  N3dr    X3  1 4.700000e-01    3.390000e+00
  N4dr    X3  1 4.700000e-01    3.520000e+00
  N5dr    X3  1 4.700000e-01    3.390000e+00
  N6dr    X3  1 4.700000e-01    3.240000e+00
  P1dr    X3  1 4.700000e-01    3.240000e+00
  P2dr    X3  1 4.700000e-01    3.240000e+00
  P3dr    X3  1 4.700000e-01    3.240000e+00
  P4dr    X3  1 4.700000e-01    3.070000e+00
  P5dr    X3  1 4.700000e-01    3.070000e+00
  P6dr    X3  1 4.700000e-01    3.070000e+00
    X3   X1r  1 4.700000e-01    3.520000e+00
    X3   X2r  1 4.700000e-01    3.520000e+00
    X3   SX3  1 4.300000e-01    2.920000e+00
    X3   SX2  1 4.300000e-01    3.160000e+00
    X3   SX1  1 4.300000e-01    3.160000e+00
    X3  SX3v  1 4.300000e-01    3.160000e+00
    X3  SX1v  1 4.300000e-01    3.380000e+00
    X3  SX2v  1 4.300000e-01    3.380000e+00
    X3  SX3e  1 4.300000e-01    3.160000e+00
    X3  SX1e  1 4.300000e-01    3.380000e+00
    X3  SX2e  1 4.300000e-01    3.380000e+00
    X3  SX3q  1 4.300000e-01    3.380000e+00
    X3 SX1eq  1 4.300000e-01    3.770000e+00
    X3 SX2eq  1 4.300000e-01    3.770000e+00
    X3 SX3eq  1 4.300000e-01    3.590000e+00
    X3 SX1vq  1 4.300000e-01    3.770000e+00
    X3 SX2vq  1 4.300000e-01    3.770000e+00
    X3 SX3vq  1 4.300000e-01    3.590000e+00
    X3  SX1q  1 4.300000e-01    3.590000e+00
    X3  SX2q  1 4.300000e-01    3.590000e+00
    X3  SX3h  1 4.300000e-01    2.920000e+00
    X3 SX1eh  1 4.300000e-01    3.380000e+00
    X3 SX2eh  1 4.300000e-01    3.380000e+00
    X3 SX3eh  1 4.300000e-01    3.160000e+00
    X3 SX1vh  1 4.300000e-01    3.380000e+00
    X3 SX2vh  1 4.300000e-01    3.380000e+00
    X3 SX3vh  1 4.300000e-01    3.160000e+00
    X3  SX1h  1 4.300000e-01    3.160000e+00
    X3  SX2h  1 4.300000e-01    3.160000e+00
    X3  SX3r  1 4.300000e-01    2.920000e+00
    X3 SX1er  1 4.300000e-01    3.380000e+00
    X3 SX2er  1 4.300000e-01    3.380000e+00
    X3 SX3er  1 4.300000e-01    3.160000e+00
    X3 SX1vr  1 4.300000e-01    3.380000e+00
    X3 SX2vr  1 4.300000e-01    3.380000e+00
    X3 SX3vr  1 4.300000e-01    3.160000e+00
    X3  SX1r  1 4.300000e-01    3.160000e+00
    X3  SX2r  1 4.300000e-01    3.160000e+00
  SP6d    X3  1 4.300000e-01    2.530000e+00
  SP5d    X3  1 4.300000e-01    2.530000e+00
  SP4d    X3  1 4.300000e-01    2.530000e+00
  SP3d    X3  1 4.300000e-01    2.770000e+00
  SP2d    X3  1 4.300000e-01    2.770000e+00
  SP1d    X3  1 4.300000e-01    2.770000e+00
  SN6d    X3  1 4.300000e-01    2.770000e+00
  SN5d    X3  1 4.300000e-01    2.920000e+00
  SN4d    X3  1 4.300000e-01    3.160000e+00
  SN3d    X3  1 4.300000e-01    2.920000e+00
  SN2d    X3  1 4.300000e-01    2.920000e+00
  SN1d    X3  1 4.300000e-01    2.920000e+00
  SP6a    X3  1 4.300000e-01    2.530000e+00
  SP5a    X3  1 4.300000e-01    2.530000e+00
  SP4a    X3  1 4.300000e-01    2.530000e+00
  SP3a    X3  1 4.300000e-01    2.770000e+00
  SP2a    X3  1 4.300000e-01    2.770000e+00
  SP1a    X3  1 4.300000e-01    2.770000e+00
  SN6a    X3  1 4.300000e-01    2.770000e+00
  SN5a    X3  1 4.300000e-01    2.920000e+00
  SN4a    X3  1 4.300000e-01    3.160000e+00
  SN3a    X3  1 4.300000e-01    2.920000e+00
  SN2a    X3  1 4.300000e-01    2.920000e+00
  SN1a    X3  1 4.300000e-01    2.920000e+00
  SC6v    X3  1 4.300000e-01    3.160000e+00
  SC5v    X3  1 4.300000e-01    2.920000e+00
  SC4v    X3  1 4.300000e-01    2.920000e+00
  SC3v    X3  1 4.300000e-01    2.920000e+00
  SC2v    X3  1 4.300000e-01    2.920000e+00
  SC1v    X3  1 4.300000e-01    2.920000e+00
  SX4v    X3  1 4.300000e-01    3.160000e+00
  SC6e    X3  1 4.300000e-01    3.160000e+00
  SC5e    X3  1 4.300000e-01    2.920000e+00
  SC4e    X3  1 4.300000e-01    2.920000e+00
  SC3e    X3  1 4.300000e-01    2.920000e+00
  SC2e    X3  1 4.300000e-01    2.920000e+00
  SC1e    X3  1 4.300000e-01    2.920000e+00
  SX4e    X3  1 4.300000e-01    3.160000e+00
  SP6q    X3  1 4.300000e-01    2.920000e+00
  SP5q    X3  1 4.300000e-01    2.920000e+00
  SP4q    X3  1 4.300000e-01    2.920000e+00
  SP3q    X3  1 4.300000e-01    3.160000e+00
  SP2q    X3  1 4.300000e-01    3.160000e+00
  SP1q    X3  1 4.300000e-01    3.160000e+00
  SN6q    X3  1 4.300000e-01    3.160000e+00
  SN5q    X3  1 4.300000e-01    3.380000e+00
  SN4q    X3  1 4.300000e-01    3.590000e+00
  SN3q    X3  1 4.300000e-01    3.380000e+00
  SN2q    X3  1 4.300000e-01    3.380000e+00
  SN1q    X3  1 4.300000e-01    3.380000e+00
  SC6q    X3  1 4.300000e-01    3.380000e+00
  SC5q    X3  1 4.300000e-01    3.160000e+00
  SC4q    X3  1 4.300000e-01    3.160000e+00
  SC3q    X3  1 4.300000e-01    3.160000e+00
  SC2q    X3  1 4.300000e-01    3.160000e+00
  SC1q    X3  1 4.300000e-01    3.160000e+00
  SX4q    X3  1 4.300000e-01    3.380000e+00
 SX4eq    X3  1 4.300000e-01    3.590000e+00
 SC1eq    X3  1 4.300000e-01    3.380000e+00
 SC2eq    X3  1 4.300000e-01    3.380000e+00
 SC3eq    X3  1 4.300000e-01    3.380000e+00
 SC4eq    X3  1 4.300000e-01    3.380000e+00
 SC5eq    X3  1 4.300000e-01    3.380000e+00
 SC6eq    X3  1 4.300000e-01    3.590000e+00
 SX4vq    X3  1 4.300000e-01    3.590000e+00
 SC1vq    X3  1 4.300000e-01    3.380000e+00
 SC2vq    X3  1 4.300000e-01    3.380000e+00
 SC3vq    X3  1 4.300000e-01    3.380000e+00
 SC4vq    X3  1 4.300000e-01    3.380000e+00
 SC5vq    X3  1 4.300000e-01    3.380000e+00
 SC6vq    X3  1 4.300000e-01    3.590000e+00
 SN1aq    X3  1 4.300000e-01    3.380000e+00
 SN2aq    X3  1 4.300000e-01    3.380000e+00
 SN3aq    X3  1 4.300000e-01    3.380000e+00
 SN4aq    X3  1 4.300000e-01    3.590000e+00
 SN5aq    X3  1 4.300000e-01    3.380000e+00
 SN6aq    X3  1 4.300000e-01    3.160000e+00
 SP1aq    X3  1 4.300000e-01    3.160000e+00
 SP2aq    X3  1 4.300000e-01    3.160000e+00
 SP3aq    X3  1 4.300000e-01    3.160000e+00
 SP4aq    X3  1 4.300000e-01    2.920000e+00
 SP5aq    X3  1 4.300000e-01    2.920000e+00
 SP6aq    X3  1 4.300000e-01    2.920000e+00
 SN1dq    X3  1 4.300000e-01    3.380000e+00
 SN2dq    X3  1 4.300000e-01    3.380000e+00
 SN3dq    X3  1 4.300000e-01    3.380000e+00
 SN4dq    X3  1 4.300000e-01    3.590000e+00
 SN5dq    X3  1 4.300000e-01    3.380000e+00
 SN6dq    X3  1 4.300000e-01    3.160000e+00
 SP1dq    X3  1 4.300000e-01    3.160000e+00
 SP2dq    X3  1 4.300000e-01    3.160000e+00
 SP3dq    X3  1 4.300000e-01    3.160000e+00
 SP4dq    X3  1 4.300000e-01    2.920000e+00
 SP5dq    X3  1 4.300000e-01    2.920000e+00
 SP6dq    X3  1 4.300000e-01    2.920000e+00
  SP6h    X3  1 4.300000e-01    2.530000e+00
  SP5h    X3  1 4.300000e-01    2.530000e+00
  SP4h    X3  1 4.300000e-01    2.530000e+00
  SP3h    X3  1 4.300000e-01    2.770000e+00
  SP2h    X3  1 4.300000e-01    2.770000e+00
  SP1h    X3  1 4.300000e-01    2.770000e+00
  SN6h    X3  1 4.300000e-01    2.770000e+00
  SN5h    X3  1 4.300000e-01    2.920000e+00
  SN4h    X3  1 4.300000e-01    3.160000e+00
  SN3h    X3  1 4.300000e-01    2.920000e+00
  SN2h    X3  1 4.300000e-01    2.920000e+00
  SN1h    X3  1 4.300000e-01    2.920000e+00
  SC6h    X3  1 4.300000e-01    2.920000e+00
  SC5h    X3  1 4.300000e-01    2.770000e+00
  SC4h    X3  1 4.300000e-01    2.770000e+00
  SC3h    X3  1 4.300000e-01    2.770000e+00
  SC2h    X3  1 4.300000e-01    2.770000e+00
  SC1h    X3  1 4.300000e-01    2.770000e+00
  SX4h    X3  1 4.300000e-01    2.920000e+00
 SX4eh    X3  1 4.300000e-01    3.160000e+00
 SC1eh    X3  1 4.300000e-01    2.920000e+00
 SC2eh    X3  1 4.300000e-01    2.920000e+00
 SC3eh    X3  1 4.300000e-01    2.920000e+00
 SC4eh    X3  1 4.300000e-01    2.920000e+00
 SC5eh    X3  1 4.300000e-01    2.920000e+00
 SC6eh    X3  1 4.300000e-01    3.160000e+00
 SX4vh    X3  1 4.300000e-01    3.160000e+00
 SC1vh    X3  1 4.300000e-01    2.920000e+00
 SC2vh    X3  1 4.300000e-01    2.920000e+00
 SC3vh    X3  1 4.300000e-01    2.920000e+00
 SC4vh    X3  1 4.300000e-01    2.920000e+00
 SC5vh    X3  1 4.300000e-01    2.920000e+00
 SC6vh    X3  1 4.300000e-01    3.160000e+00
 SN1ah    X3  1 4.300000e-01    2.920000e+00
 SN2ah    X3  1 4.300000e-01    2.920000e+00
 SN3ah    X3  1 4.300000e-01    2.920000e+00
 SN4ah    X3  1 4.300000e-01    3.160000e+00
 SN5ah    X3  1 4.300000e-01    2.920000e+00
 SN6ah    X3  1 4.300000e-01    2.770000e+00
 SP1ah    X3  1 4.300000e-01    2.770000e+00
 SP2ah    X3  1 4.300000e-01    2.770000e+00
 SP3ah    X3  1 4.300000e-01    2.770000e+00
 SP4ah    X3  1 4.300000e-01    2.530000e+00
 SP5ah    X3  1 4.300000e-01    2.530000e+00
 SP6ah    X3  1 4.300000e-01    2.530000e+00
 SN1dh    X3  1 4.300000e-01    2.920000e+00
 SN2dh    X3  1 4.300000e-01    2.920000e+00
 SN3dh    X3  1 4.300000e-01    2.920000e+00
 SN4dh    X3  1 4.300000e-01    3.160000e+00
 SN5dh    X3  1 4.300000e-01    2.920000e+00
 SN6dh    X3  1 4.300000e-01    2.770000e+00
 SP1dh    X3  1 4.300000e-01    2.770000e+00
 SP2dh    X3  1 4.300000e-01    2.770000e+00
 SP3dh    X3  1 4.300000e-01    2.770000e+00
 SP4dh    X3  1 4.300000e-01    2.530000e+00
 SP5dh    X3  1 4.300000e-01    2.530000e+00
 SP6dh    X3  1 4.300000e-01    2.530000e+00
  SP6r    X3  1 4.300000e-01    2.530000e+00
  SP5r    X3  1 4.300000e-01    2.530000e+00
  SP4r    X3  1 4.300000e-01    2.530000e+00
  SP3r    X3  1 4.300000e-01    2.770000e+00
  SP2r    X3  1 4.300000e-01    2.770000e+00
  SP1r    X3  1 4.300000e-01    2.770000e+00
  SN6r    X3  1 4.300000e-01    2.770000e+00
  SN5r    X3  1 4.300000e-01    2.920000e+00
  SN4r    X3  1 4.300000e-01    3.160000e+00
  SN3r    X3  1 4.300000e-01    2.920000e+00
  SN2r    X3  1 4.300000e-01    2.920000e+00
  SN1r    X3  1 4.300000e-01    2.920000e+00
  SC6r    X3  1 4.300000e-01    2.920000e+00
  SC5r    X3  1 4.300000e-01    2.770000e+00
  SC4r    X3  1 4.300000e-01    2.770000e+00
  SC3r    X3  1 4.300000e-01    2.770000e+00
  SC2r    X3  1 4.300000e-01    2.770000e+00
  SC1r    X3  1 4.300000e-01    2.770000e+00
  SX4r    X3  1 4.300000e-01    2.920000e+00
 SX4er    X3  1 4.300000e-01    3.160000e+00
 SC1er    X3  1 4.300000e-01    2.920000e+00
 SC2er    X3  1 4.300000e-01    2.920000e+00
 SC3er    X3  1 4.300000e-01    2.920000e+00
 SC4er    X3  1 4.300000e-01    2.920000e+00
 SC5er    X3  1 4.300000e-01    2.920000e+00
 SC6er    X3  1 4.300000e-01    3.160000e+00
 SX4vr    X3  1 4.300000e-01    3.160000e+00
 SC1vr    X3  1 4.300000e-01    2.920000e+00
 SC2vr    X3  1 4.300000e-01    2.920000e+00
 SC3vr    X3  1 4.300000e-01    2.920000e+00
 SC4vr    X3  1 4.300000e-01    2.920000e+00
 SC5vr    X3  1 4.300000e-01    2.920000e+00
 SC6vr    X3  1 4.300000e-01    3.160000e+00
 SN1ar    X3  1 4.300000e-01    2.920000e+00
 SN2ar    X3  1 4.300000e-01    2.920000e+00
 SN3ar    X3  1 4.300000e-01    2.920000e+00
 SN4ar    X3  1 4.300000e-01    3.160000e+00
 SN5ar    X3  1 4.300000e-01    2.920000e+00
 SN6ar    X3  1 4.300000e-01    2.770000e+00
 SP1ar    X3  1 4.300000e-01    2.770000e+00
 SP2ar    X3  1 4.300000e-01    2.770000e+00
 SP3ar    X3  1 4.300000e-01    2.770000e+00
 SP4ar    X3  1 4.300000e-01    2.530000e+00
 SP5ar    X3  1 4.300000e-01    2.530000e+00
 SP6ar    X3  1 4.300000e-01    2.530000e+00
 SN1dr    X3  1 4.300000e-01    2.920000e+00
 SN2dr    X3  1 4.300000e-01    2.920000e+00
 SN3dr    X3  1 4.300000e-01    2.920000e+00
 SN4dr    X3  1 4.300000e-01    3.160000e+00
 SN5dr    X3  1 4.300000e-01    2.920000e+00
 SN6dr    X3  1 4.300000e-01    2.770000e+00
 SP1dr    X3  1 4.300000e-01    2.770000e+00
 SP2dr    X3  1 4.300000e-01    2.770000e+00
 SP3dr    X3  1 4.300000e-01    2.770000e+00
 SP4dr    X3  1 4.300000e-01    2.530000e+00
 SP5dr    X3  1 4.300000e-01    2.530000e+00
 SP6dr    X3  1 4.300000e-01    2.530000e+00
    X3   TX3  1 3.950000e-01    2.310000e+00
    X3   TX2  1 3.950000e-01    2.500000e+00
    X3   TX1  1 3.950000e-01    2.500000e+00
    X3  TX3v  1 3.950000e-01    2.500000e+00
    X3  TX1v  1 3.950000e-01    2.700000e+00
    X3  TX2v  1 3.950000e-01    2.700000e+00
    X3  TX3e  1 3.950000e-01    2.500000e+00
    X3  TX1e  1 3.950000e-01    2.700000e+00
    X3  TX2e  1 3.950000e-01    2.700000e+00
    X3  TX3q  1 3.950000e-01    2.700000e+00
    X3 TX1eq  1 3.950000e-01    3.190000e+00
    X3 TX2eq  1 3.950000e-01    3.190000e+00
    X3 TX3eq  1 3.950000e-01    2.940000e+00
    X3 TX1vq  1 3.950000e-01    3.190000e+00
    X3 TX2vq  1 3.950000e-01    3.190000e+00
    X3 TX3vq  1 3.950000e-01    2.940000e+00
    X3  TX1q  1 3.950000e-01    2.940000e+00
    X3  TX2q  1 3.950000e-01    2.940000e+00
    X3  TX3h  1 3.950000e-01    2.310000e+00
    X3 TX1eh  1 3.950000e-01    2.700000e+00
    X3 TX2eh  1 3.950000e-01    2.700000e+00
    X3 TX3eh  1 3.950000e-01    2.500000e+00
    X3 TX1vh  1 3.950000e-01    2.700000e+00
    X3 TX2vh  1 3.950000e-01    2.700000e+00
    X3 TX3vh  1 3.950000e-01    2.500000e+00
    X3  TX1h  1 3.950000e-01    2.500000e+00
    X3  TX2h  1 3.950000e-01    2.500000e+00
    X3  TX3r  1 3.950000e-01    2.310000e+00
    X3 TX1er  1 3.950000e-01    2.700000e+00
    X3 TX2er  1 3.950000e-01    2.700000e+00
    X3 TX3er  1 3.950000e-01    2.500000e+00
    X3 TX1vr  1 3.950000e-01    2.700000e+00
    X3 TX2vr  1 3.950000e-01    2.700000e+00
    X3 TX3vr  1 3.950000e-01    2.500000e+00
    X3  TX1r  1 3.950000e-01    2.500000e+00
    X3  TX2r  1 3.950000e-01    2.500000e+00
  TP6d    X3  1 3.950000e-01    1.850000e+00
  TP5d    X3  1 3.950000e-01    1.850000e+00
  TP4d    X3  1 3.950000e-01    1.850000e+00
  TP3d    X3  1 3.950000e-01    2.110000e+00
  TP2d    X3  1 3.950000e-01    2.110000e+00
  TP1d    X3  1 3.950000e-01    2.110000e+00
  TN6d    X3  1 3.950000e-01    2.110000e+00
  TN5d    X3  1 3.950000e-01    2.310000e+00
  TN4d    X3  1 3.950000e-01    2.500000e+00
  TN3d    X3  1 3.950000e-01    2.310000e+00
  TN2d    X3  1 3.950000e-01    2.310000e+00
  TN1d    X3  1 3.950000e-01    2.310000e+00
  TP6a    X3  1 3.950000e-01    1.850000e+00
  TP5a    X3  1 3.950000e-01    1.850000e+00
  TP4a    X3  1 3.950000e-01    1.850000e+00
  TP3a    X3  1 3.950000e-01    2.110000e+00
  TP2a    X3  1 3.950000e-01    2.110000e+00
  TP1a    X3  1 3.950000e-01    2.110000e+00
  TN6a    X3  1 3.950000e-01    2.110000e+00
  TN5a    X3  1 3.950000e-01    2.310000e+00
  TN4a    X3  1 3.950000e-01    2.500000e+00
  TN3a    X3  1 3.950000e-01    2.310000e+00
  TN2a    X3  1 3.950000e-01    2.310000e+00
  TN1a    X3  1 3.950000e-01    2.310000e+00
  TC6v    X3  1 3.950000e-01    2.500000e+00
  TC5v    X3  1 3.950000e-01    2.310000e+00
  TC4v    X3  1 3.950000e-01    2.310000e+00
  TC3v    X3  1 3.950000e-01    2.310000e+00
  TC2v    X3  1 3.950000e-01    2.310000e+00
  TC1v    X3  1 3.950000e-01    2.310000e+00
  TX4v    X3  1 3.950000e-01    2.500000e+00
  TC6e    X3  1 3.950000e-01    2.500000e+00
  TC5e    X3  1 3.950000e-01    2.310000e+00
  TC4e    X3  1 3.950000e-01    2.310000e+00
  TC3e    X3  1 3.950000e-01    2.310000e+00
  TC2e    X3  1 3.950000e-01    2.310000e+00
  TC1e    X3  1 3.950000e-01    2.310000e+00
  TX4e    X3  1 3.950000e-01    2.500000e+00
  TP6q    X3  1 3.950000e-01    2.310000e+00
  TP5q    X3  1 3.950000e-01    2.310000e+00
  TP4q    X3  1 3.950000e-01    2.310000e+00
  TP3q    X3  1 3.950000e-01    2.500000e+00
  TP2q    X3  1 3.950000e-01    2.500000e+00
  TP1q    X3  1 3.950000e-01    2.500000e+00
  TN6q    X3  1 3.950000e-01    2.500000e+00
  TN5q    X3  1 3.950000e-01    2.700000e+00
  TN4q    X3  1 3.950000e-01    2.940000e+00
  TN3q    X3  1 3.950000e-01    2.700000e+00
  TN2q    X3  1 3.950000e-01    2.700000e+00
  TN1q    X3  1 3.950000e-01    2.700000e+00
  TC6q    X3  1 3.950000e-01    2.700000e+00
  TC5q    X3  1 3.950000e-01    2.500000e+00
  TC4q    X3  1 3.950000e-01    2.500000e+00
  TC3q    X3  1 3.950000e-01    2.500000e+00
  TC2q    X3  1 3.950000e-01    2.500000e+00
  TC1q    X3  1 3.950000e-01    2.500000e+00
  TX4q    X3  1 3.950000e-01    2.700000e+00
 TX4eq    X3  1 3.950000e-01    2.940000e+00
 TC1eq    X3  1 3.950000e-01    2.700000e+00
 TC2eq    X3  1 3.950000e-01    2.700000e+00
 TC3eq    X3  1 3.950000e-01    2.700000e+00
 TC4eq    X3  1 3.950000e-01    2.700000e+00
 TC5eq    X3  1 3.950000e-01    2.700000e+00
 TC6eq    X3  1 3.950000e-01    2.940000e+00
 TX4vq    X3  1 3.950000e-01    2.940000e+00
 TC1vq    X3  1 3.950000e-01    2.700000e+00
 TC2vq    X3  1 3.950000e-01    2.700000e+00
 TC3vq    X3  1 3.950000e-01    2.700000e+00
 TC4vq    X3  1 3.950000e-01    2.700000e+00
 TC5vq    X3  1 3.950000e-01    2.700000e+00
 TC6vq    X3  1 3.950000e-01    2.940000e+00
 TN1aq    X3  1 3.950000e-01    2.700000e+00
 TN2aq    X3  1 3.950000e-01    2.700000e+00
 TN3aq    X3  1 3.950000e-01    2.700000e+00
 TN4aq    X3  1 3.950000e-01    2.940000e+00
 TN5aq    X3  1 3.950000e-01    2.700000e+00
 TN6aq    X3  1 3.950000e-01    2.500000e+00
 TP1aq    X3  1 3.950000e-01    2.500000e+00
 TP2aq    X3  1 3.950000e-01    2.500000e+00
 TP3aq    X3  1 3.950000e-01    2.500000e+00
 TP4aq    X3  1 3.950000e-01    2.310000e+00
 TP5aq    X3  1 3.950000e-01    2.310000e+00
 TP6aq    X3  1 3.950000e-01    2.310000e+00
 TN1dq    X3  1 3.950000e-01    2.700000e+00
 TN2dq    X3  1 3.950000e-01    2.700000e+00
 TN3dq    X3  1 3.950000e-01    2.700000e+00
 TN4dq    X3  1 3.950000e-01    2.940000e+00
 TN5dq    X3  1 3.950000e-01    2.700000e+00
 TN6dq    X3  1 3.950000e-01    2.500000e+00
 TP1dq    X3  1 3.950000e-01    2.500000e+00
 TP2dq    X3  1 3.950000e-01    2.500000e+00
 TP3dq    X3  1 3.950000e-01    2.500000e+00
 TP4dq    X3  1 3.950000e-01    2.310000e+00
 TP5dq    X3  1 3.950000e-01    2.310000e+00
 TP6dq    X3  1 3.950000e-01    2.310000e+00
  TP6h    X3  1 3.950000e-01    1.850000e+00
  TP5h    X3  1 3.950000e-01    1.850000e+00
  TP4h    X3  1 3.950000e-01    1.850000e+00
  TP3h    X3  1 3.950000e-01    2.110000e+00
  TP2h    X3  1 3.950000e-01    2.110000e+00
  TP1h    X3  1 3.950000e-01    2.110000e+00
  TN6h    X3  1 3.950000e-01    2.110000e+00
  TN5h    X3  1 3.950000e-01    2.310000e+00
  TN4h    X3  1 3.950000e-01    2.500000e+00
  TN3h    X3  1 3.950000e-01    2.310000e+00
  TN2h    X3  1 3.950000e-01    2.310000e+00
  TN1h    X3  1 3.950000e-01    2.310000e+00
  TC6h    X3  1 3.950000e-01    2.310000e+00
  TC5h    X3  1 3.950000e-01    2.110000e+00
  TC4h    X3  1 3.950000e-01    2.110000e+00
  TC3h    X3  1 3.950000e-01    2.110000e+00
  TC2h    X3  1 3.950000e-01    2.110000e+00
  TC1h    X3  1 3.950000e-01    2.110000e+00
  TX4h    X3  1 3.950000e-01    2.310000e+00
 TX4eh    X3  1 3.950000e-01    2.500000e+00
 TC1eh    X3  1 3.950000e-01    2.310000e+00
 TC2eh    X3  1 3.950000e-01    2.310000e+00
 TC3eh    X3  1 3.950000e-01    2.310000e+00
 TC4eh    X3  1 3.950000e-01    2.310000e+00
 TC5eh    X3  1 3.950000e-01    2.310000e+00
 TC6eh    X3  1 3.950000e-01    2.500000e+00
 TX4vh    X3  1 3.950000e-01    2.500000e+00
 TC1vh    X3  1 3.950000e-01    2.310000e+00
 TC2vh    X3  1 3.950000e-01    2.310000e+00
 TC3vh    X3  1 3.950000e-01    2.310000e+00
 TC4vh    X3  1 3.950000e-01    2.310000e+00
 TC5vh    X3  1 3.950000e-01    2.310000e+00
 TC6vh    X3  1 3.950000e-01    2.500000e+00
 TN1ah    X3  1 3.950000e-01    2.310000e+00
 TN2ah    X3  1 3.950000e-01    2.310000e+00
 TN3ah    X3  1 3.950000e-01    2.310000e+00
 TN4ah    X3  1 3.950000e-01    2.500000e+00
 TN5ah    X3  1 3.950000e-01    2.310000e+00
 TN6ah    X3  1 3.950000e-01    2.110000e+00
 TP1ah    X3  1 3.950000e-01    2.110000e+00
 TP2ah    X3  1 3.950000e-01    2.110000e+00
 TP3ah    X3  1 3.950000e-01    2.110000e+00
 TP4ah    X3  1 3.950000e-01    1.850000e+00
 TP5ah    X3  1 3.950000e-01    1.850000e+00
 TP6ah    X3  1 3.950000e-01    1.850000e+00
 TN1dh    X3  1 3.950000e-01    2.310000e+00
 TN2dh    X3  1 3.950000e-01    2.310000e+00
 TN3dh    X3  1 3.950000e-01    2.310000e+00
 TN4dh    X3  1 3.950000e-01    2.500000e+00
 TN5dh    X3  1 3.950000e-01    2.310000e+00
 TN6dh    X3  1 3.950000e-01    2.110000e+00
 TP1dh    X3  1 3.950000e-01    2.110000e+00
 TP2dh    X3  1 3.950000e-01    2.110000e+00
 TP3dh    X3  1 3.950000e-01    2.110000e+00
 TP4dh    X3  1 3.950000e-01    1.850000e+00
 TP5dh    X3  1 3.950000e-01    1.850000e+00
 TP6dh    X3  1 3.950000e-01    1.850000e+00
  TP6r    X3  1 3.950000e-01    1.850000e+00
  TP5r    X3  1 3.950000e-01    1.850000e+00
  TP4r    X3  1 3.950000e-01    1.850000e+00
  TP3r    X3  1 3.950000e-01    2.110000e+00
  TP2r    X3  1 3.950000e-01    2.110000e+00
  TP1r    X3  1 3.950000e-01    2.110000e+00
  TN6r    X3  1 3.950000e-01    2.110000e+00
  TN5r    X3  1 3.950000e-01    2.310000e+00
  TN4r    X3  1 3.950000e-01    2.500000e+00
  TN3r    X3  1 3.950000e-01    2.310000e+00
  TN2r    X3  1 3.950000e-01    2.310000e+00
  TN1r    X3  1 3.950000e-01    2.310000e+00
  TC6r    X3  1 3.950000e-01    2.310000e+00
  TC5r    X3  1 3.950000e-01    2.110000e+00
  TC4r    X3  1 3.950000e-01    2.110000e+00
  TC3r    X3  1 3.950000e-01    2.110000e+00
  TC2r    X3  1 3.950000e-01    2.110000e+00
  TC1r    X3  1 3.950000e-01    2.110000e+00
  TX4r    X3  1 3.950000e-01    2.310000e+00
 TX4er    X3  1 3.950000e-01    2.500000e+00
 TC1er    X3  1 3.950000e-01    2.310000e+00
 TC2er    X3  1 3.950000e-01    2.310000e+00
 TC3er    X3  1 3.950000e-01    2.310000e+00
 TC4er    X3  1 3.950000e-01    2.310000e+00
 TC5er    X3  1 3.950000e-01    2.310000e+00
 TC6er    X3  1 3.950000e-01    2.500000e+00
 TX4vr    X3  1 3.950000e-01    2.500000e+00
 TC1vr    X3  1 3.950000e-01    2.310000e+00
 TC2vr    X3  1 3.950000e-01    2.310000e+00
 TC3vr    X3  1 3.950000e-01    2.310000e+00
 TC4vr    X3  1 3.950000e-01    2.310000e+00
 TC5vr    X3  1 3.950000e-01    2.310000e+00
 TC6vr    X3  1 3.950000e-01    2.500000e+00
 TN1ar    X3  1 3.950000e-01    2.310000e+00
 TN2ar    X3  1 3.950000e-01    2.310000e+00
 TN3ar    X3  1 3.950000e-01    2.310000e+00
 TN4ar    X3  1 3.950000e-01    2.500000e+00
 TN5ar    X3  1 3.950000e-01    2.310000e+00
 TN6ar    X3  1 3.950000e-01    2.110000e+00
 TP1ar    X3  1 3.950000e-01    2.110000e+00
 TP2ar    X3  1 3.950000e-01    2.110000e+00
 TP3ar    X3  1 3.950000e-01    2.110000e+00
 TP4ar    X3  1 3.950000e-01    1.850000e+00
 TP5ar    X3  1 3.950000e-01    1.850000e+00
 TP6ar    X3  1 3.950000e-01    1.850000e+00
 TN1dr    X3  1 3.950000e-01    2.310000e+00
 TN2dr    X3  1 3.950000e-01    2.310000e+00
 TN3dr    X3  1 3.950000e-01    2.310000e+00
 TN4dr    X3  1 3.950000e-01    2.500000e+00
 TN5dr    X3  1 3.950000e-01    2.310000e+00
 TN6dr    X3  1 3.950000e-01    2.110000e+00
 TP1dr    X3  1 3.950000e-01    2.110000e+00
 TP2dr    X3  1 3.950000e-01    2.110000e+00
 TP3dr    X3  1 3.950000e-01    2.110000e+00
 TP4dr    X3  1 3.950000e-01    1.850000e+00
 TP5dr    X3  1 3.950000e-01    1.850000e+00
 TP6dr    X3  1 3.950000e-01    1.850000e+00
   P6d   SX3  1 4.300000e-01    2.530000e+00
   P5d   SX3  1 4.300000e-01    2.530000e+00
   P4d   SX3  1 4.300000e-01    2.530000e+00
   P3d   SX3  1 4.300000e-01    2.770000e+00
   P2d   SX3  1 4.300000e-01    2.770000e+00
   P1d   SX3  1 4.300000e-01    2.770000e+00
   N6d   SX3  1 4.300000e-01    2.770000e+00
   N5d   SX3  1 4.300000e-01    2.920000e+00
   N4d   SX3  1 4.300000e-01    3.160000e+00
   N3d   SX3  1 4.300000e-01    2.920000e+00
   N2d   SX3  1 4.300000e-01    2.920000e+00
   N1d   SX3  1 4.300000e-01    2.920000e+00
   P6a   SX3  1 4.300000e-01    2.530000e+00
   P5a   SX3  1 4.300000e-01    2.530000e+00
   P4a   SX3  1 4.300000e-01    2.530000e+00
   P3a   SX3  1 4.300000e-01    2.770000e+00
   P2a   SX3  1 4.300000e-01    2.770000e+00
   P1a   SX3  1 4.300000e-01    2.770000e+00
   N6a   SX3  1 4.300000e-01    2.770000e+00
   N5a   SX3  1 4.300000e-01    2.920000e+00
   N4a   SX3  1 4.300000e-01    3.160000e+00
   N3a   SX3  1 4.300000e-01    2.920000e+00
   N2a   SX3  1 4.300000e-01    2.920000e+00
   N1a   SX3  1 4.300000e-01    2.920000e+00
   C6v   SX3  1 4.300000e-01    3.160000e+00
   C5v   SX3  1 4.300000e-01    2.920000e+00
   C4v   SX3  1 4.300000e-01    2.920000e+00
   C3v   SX3  1 4.300000e-01    2.920000e+00
   C2v   SX3  1 4.300000e-01    2.920000e+00
   C1v   SX3  1 4.300000e-01    2.920000e+00
   X4v   SX3  1 4.300000e-01    3.160000e+00
   C6e   SX3  1 4.300000e-01    3.160000e+00
   C5e   SX3  1 4.300000e-01    2.920000e+00
   C4e   SX3  1 4.300000e-01    2.920000e+00
   C3e   SX3  1 4.300000e-01    2.920000e+00
   C2e   SX3  1 4.300000e-01    2.920000e+00
   C1e   SX3  1 4.300000e-01    2.920000e+00
   X4e   SX3  1 4.300000e-01    3.160000e+00
   P6q   SX3  1 4.300000e-01    2.920000e+00
   P5q   SX3  1 4.300000e-01    2.920000e+00
   P4q   SX3  1 4.300000e-01    2.920000e+00
   P3q   SX3  1 4.300000e-01    3.160000e+00
   P2q   SX3  1 4.300000e-01    3.160000e+00
   P1q   SX3  1 4.300000e-01    3.160000e+00
   N6q   SX3  1 4.300000e-01    3.160000e+00
   N5q   SX3  1 4.300000e-01    3.380000e+00
   N4q   SX3  1 4.300000e-01    3.590000e+00
   N3q   SX3  1 4.300000e-01    3.380000e+00
   N2q   SX3  1 4.300000e-01    3.380000e+00
   N1q   SX3  1 4.300000e-01    3.380000e+00
   C6q   SX3  1 4.300000e-01    3.380000e+00
   C5q   SX3  1 4.300000e-01    3.160000e+00
   C4q   SX3  1 4.300000e-01    3.160000e+00
   C3q   SX3  1 4.300000e-01    3.160000e+00
   C2q   SX3  1 4.300000e-01    3.160000e+00
   C1q   SX3  1 4.300000e-01    3.160000e+00
   X4q   SX3  1 4.300000e-01    3.380000e+00
  X4eq   SX3  1 4.300000e-01    3.590000e+00
  C1eq   SX3  1 4.300000e-01    3.380000e+00
  C2eq   SX3  1 4.300000e-01    3.380000e+00
  C3eq   SX3  1 4.300000e-01    3.380000e+00
  C4eq   SX3  1 4.300000e-01    3.380000e+00
  C5eq   SX3  1 4.300000e-01    3.380000e+00
  C6eq   SX3  1 4.300000e-01    3.590000e+00
  X4vq   SX3  1 4.300000e-01    3.590000e+00
  C1vq   SX3  1 4.300000e-01    3.380000e+00
  C2vq   SX3  1 4.300000e-01    3.380000e+00
  C3vq   SX3  1 4.300000e-01    3.380000e+00
  C4vq   SX3  1 4.300000e-01    3.380000e+00
  C5vq   SX3  1 4.300000e-01    3.380000e+00
  C6vq   SX3  1 4.300000e-01    3.590000e+00
  N1aq   SX3  1 4.300000e-01    3.380000e+00
  N2aq   SX3  1 4.300000e-01    3.380000e+00
  N3aq   SX3  1 4.300000e-01    3.380000e+00
  N4aq   SX3  1 4.300000e-01    3.590000e+00
  N5aq   SX3  1 4.300000e-01    3.380000e+00
  N6aq   SX3  1 4.300000e-01    3.160000e+00
  P1aq   SX3  1 4.300000e-01    3.160000e+00
  P2aq   SX3  1 4.300000e-01    3.160000e+00
  P3aq   SX3  1 4.300000e-01    3.160000e+00
  P4aq   SX3  1 4.300000e-01    2.920000e+00
  P5aq   SX3  1 4.300000e-01    2.920000e+00
  P6aq   SX3  1 4.300000e-01    2.920000e+00
  N1dq   SX3  1 4.300000e-01    3.380000e+00
  N2dq   SX3  1 4.300000e-01    3.380000e+00
  N3dq   SX3  1 4.300000e-01    3.380000e+00
  N4dq   SX3  1 4.300000e-01    3.590000e+00
  N5dq   SX3  1 4.300000e-01    3.380000e+00
  N6dq   SX3  1 4.300000e-01    3.160000e+00
  P1dq   SX3  1 4.300000e-01    3.160000e+00
  P2dq   SX3  1 4.300000e-01    3.160000e+00
  P3dq   SX3  1 4.300000e-01    3.160000e+00
  P4dq   SX3  1 4.300000e-01    2.920000e+00
  P5dq   SX3  1 4.300000e-01    2.920000e+00
  P6dq   SX3  1 4.300000e-01    2.920000e+00
   P6h   SX3  1 4.300000e-01    2.530000e+00
   P5h   SX3  1 4.300000e-01    2.530000e+00
   P4h   SX3  1 4.300000e-01    2.530000e+00
   P3h   SX3  1 4.300000e-01    2.770000e+00
   P2h   SX3  1 4.300000e-01    2.770000e+00
   P1h   SX3  1 4.300000e-01    2.770000e+00
   N6h   SX3  1 4.300000e-01    2.770000e+00
   N5h   SX3  1 4.300000e-01    2.920000e+00
   N4h   SX3  1 4.300000e-01    3.160000e+00
   N3h   SX3  1 4.300000e-01    2.920000e+00
   N2h   SX3  1 4.300000e-01    2.920000e+00
   N1h   SX3  1 4.300000e-01    2.920000e+00
   C6h   SX3  1 4.300000e-01    2.920000e+00
   C5h   SX3  1 4.300000e-01    2.770000e+00
   C4h   SX3  1 4.300000e-01    2.770000e+00
   C3h   SX3  1 4.300000e-01    2.770000e+00
   C2h   SX3  1 4.300000e-01    2.770000e+00
   C1h   SX3  1 4.300000e-01    2.770000e+00
   X4h   SX3  1 4.300000e-01    2.920000e+00
  X4eh   SX3  1 4.300000e-01    3.160000e+00
  C1eh   SX3  1 4.300000e-01    2.920000e+00
  C2eh   SX3  1 4.300000e-01    2.920000e+00
  C3eh   SX3  1 4.300000e-01    2.920000e+00
  C4eh   SX3  1 4.300000e-01    2.920000e+00
  C5eh   SX3  1 4.300000e-01    2.920000e+00
  C6eh   SX3  1 4.300000e-01    3.160000e+00
  X4vh   SX3  1 4.300000e-01    3.160000e+00
  C1vh   SX3  1 4.300000e-01    2.920000e+00
  C2vh   SX3  1 4.300000e-01    2.920000e+00
  C3vh   SX3  1 4.300000e-01    2.920000e+00
  C4vh   SX3  1 4.300000e-01    2.920000e+00
  C5vh   SX3  1 4.300000e-01    2.920000e+00
  C6vh   SX3  1 4.300000e-01    3.160000e+00
  N1ah   SX3  1 4.300000e-01    2.920000e+00
  N2ah   SX3  1 4.300000e-01    2.920000e+00
  N3ah   SX3  1 4.300000e-01    2.920000e+00
  N4ah   SX3  1 4.300000e-01    3.160000e+00
  N5ah   SX3  1 4.300000e-01    2.920000e+00
  N6ah   SX3  1 4.300000e-01    2.770000e+00
  P1ah   SX3  1 4.300000e-01    2.770000e+00
  P2ah   SX3  1 4.300000e-01    2.770000e+00
  P3ah   SX3  1 4.300000e-01    2.770000e+00
  P4ah   SX3  1 4.300000e-01    2.530000e+00
  P5ah   SX3  1 4.300000e-01    2.530000e+00
  P6ah   SX3  1 4.300000e-01    2.530000e+00
  N1dh   SX3  1 4.300000e-01    2.920000e+00
  N2dh   SX3  1 4.300000e-01    2.920000e+00
  N3dh   SX3  1 4.300000e-01    2.920000e+00
  N4dh   SX3  1 4.300000e-01    3.160000e+00
  N5dh   SX3  1 4.300000e-01    2.920000e+00
  N6dh   SX3  1 4.300000e-01    2.770000e+00
  P1dh   SX3  1 4.300000e-01    2.770000e+00
  P2dh   SX3  1 4.300000e-01    2.770000e+00
  P3dh   SX3  1 4.300000e-01    2.770000e+00
  P4dh   SX3  1 4.300000e-01    2.530000e+00
  P5dh   SX3  1 4.300000e-01    2.530000e+00
  P6dh   SX3  1 4.300000e-01    2.530000e+00
   P6r   SX3  1 4.300000e-01    2.530000e+00
   P5r   SX3  1 4.300000e-01    2.530000e+00
   P4r   SX3  1 4.300000e-01    2.530000e+00
   P3r   SX3  1 4.300000e-01    2.770000e+00
   P2r   SX3  1 4.300000e-01    2.770000e+00
   P1r   SX3  1 4.300000e-01    2.770000e+00
   N6r   SX3  1 4.300000e-01    2.770000e+00
   N5r   SX3  1 4.300000e-01    2.920000e+00
   N4r   SX3  1 4.300000e-01    3.160000e+00
   N3r   SX3  1 4.300000e-01    2.920000e+00
   N2r   SX3  1 4.300000e-01    2.920000e+00
   N1r   SX3  1 4.300000e-01    2.920000e+00
   C6r   SX3  1 4.300000e-01    2.920000e+00
   C5r   SX3  1 4.300000e-01    2.770000e+00
   C4r   SX3  1 4.300000e-01    2.770000e+00
   C3r   SX3  1 4.300000e-01    2.770000e+00
   C2r   SX3  1 4.300000e-01    2.770000e+00
   C1r   SX3  1 4.300000e-01    2.770000e+00
   X4r   SX3  1 4.300000e-01    2.920000e+00
  X4er   SX3  1 4.300000e-01    3.160000e+00
  C1er   SX3  1 4.300000e-01    2.920000e+00
  C2er   SX3  1 4.300000e-01    2.920000e+00
  C3er   SX3  1 4.300000e-01    2.920000e+00
  C4er   SX3  1 4.300000e-01    2.920000e+00
  C5er   SX3  1 4.300000e-01    2.920000e+00
  C6er   SX3  1 4.300000e-01    3.160000e+00
  X4vr   SX3  1 4.300000e-01    3.160000e+00
  C1vr   SX3  1 4.300000e-01    2.920000e+00
  C2vr   SX3  1 4.300000e-01    2.920000e+00
  C3vr   SX3  1 4.300000e-01    2.920000e+00
  C4vr   SX3  1 4.300000e-01    2.920000e+00
  C5vr   SX3  1 4.300000e-01    2.920000e+00
  C6vr   SX3  1 4.300000e-01    3.160000e+00
  N1ar   SX3  1 4.300000e-01    2.920000e+00
  N2ar   SX3  1 4.300000e-01    2.920000e+00
  N3ar   SX3  1 4.300000e-01    2.920000e+00
  N4ar   SX3  1 4.300000e-01    3.160000e+00
  N5ar   SX3  1 4.300000e-01    2.920000e+00
  N6ar   SX3  1 4.300000e-01    2.770000e+00
  P1ar   SX3  1 4.300000e-01    2.770000e+00
  P2ar   SX3  1 4.300000e-01    2.770000e+00
  P3ar   SX3  1 4.300000e-01    2.770000e+00
  P4ar   SX3  1 4.300000e-01    2.530000e+00
  P5ar   SX3  1 4.300000e-01    2.530000e+00
  P6ar   SX3  1 4.300000e-01    2.530000e+00
  N1dr   SX3  1 4.300000e-01    2.920000e+00
  N2dr   SX3  1 4.300000e-01    2.920000e+00
  N3dr   SX3  1 4.300000e-01    2.920000e+00
  N4dr   SX3  1 4.300000e-01    3.160000e+00
  N5dr   SX3  1 4.300000e-01    2.920000e+00
  N6dr   SX3  1 4.300000e-01    2.770000e+00
  P1dr   SX3  1 4.300000e-01    2.770000e+00
  P2dr   SX3  1 4.300000e-01    2.770000e+00
  P3dr   SX3  1 4.300000e-01    2.770000e+00
  P4dr   SX3  1 4.300000e-01    2.530000e+00
  P5dr   SX3  1 4.300000e-01    2.530000e+00
  P6dr   SX3  1 4.300000e-01    2.530000e+00
   SX3    X2  1 4.300000e-01    3.160000e+00
   SX3    X1  1 4.300000e-01    3.160000e+00
   SX3   X3v  1 4.300000e-01    3.160000e+00
   SX3   X1v  1 4.300000e-01    3.380000e+00
   SX3   X2v  1 4.300000e-01    3.380000e+00
   SX3   X3e  1 4.300000e-01    3.160000e+00
   SX3   X1e  1 4.300000e-01    3.380000e+00
   SX3   X2e  1 4.300000e-01    3.380000e+00
   SX3   X3q  1 4.300000e-01    3.380000e+00
   SX3  X1eq  1 4.300000e-01    3.770000e+00
   SX3  X2eq  1 4.300000e-01    3.770000e+00
   SX3  X3eq  1 4.300000e-01    3.590000e+00
   SX3  X1vq  1 4.300000e-01    3.770000e+00
   SX3  X2vq  1 4.300000e-01    3.770000e+00
   SX3  X3vq  1 4.300000e-01    3.590000e+00
   SX3   X1q  1 4.300000e-01    3.590000e+00
   SX3   X2q  1 4.300000e-01    3.590000e+00
   SX3   X3h  1 4.300000e-01    2.920000e+00
   SX3  X1eh  1 4.300000e-01    3.380000e+00
   SX3  X2eh  1 4.300000e-01    3.380000e+00
   SX3  X3eh  1 4.300000e-01    3.160000e+00
   SX3  X1vh  1 4.300000e-01    3.380000e+00
   SX3  X2vh  1 4.300000e-01    3.380000e+00
   SX3  X3vh  1 4.300000e-01    3.160000e+00
   SX3   X1h  1 4.300000e-01    3.160000e+00
   SX3   X2h  1 4.300000e-01    3.160000e+00
   SX3   X3r  1 4.300000e-01    2.920000e+00
   SX3  X1er  1 4.300000e-01    3.380000e+00
   SX3  X2er  1 4.300000e-01    3.380000e+00
   SX3  X3er  1 4.300000e-01    3.160000e+00
   SX3  X1vr  1 4.300000e-01    3.380000e+00
   SX3  X2vr  1 4.300000e-01    3.380000e+00
   SX3  X3vr  1 4.300000e-01    3.160000e+00
   SX3   X1r  1 4.300000e-01    3.160000e+00
   SX3   X2r  1 4.300000e-01    3.160000e+00
   SX3   SX3  1 4.100000e-01    2.350000e+00
   SX3   SX2  1 4.100000e-01    2.600000e+00
   SX3   SX1  1 4.100000e-01    2.600000e+00
  SP6d   SX3  1 4.100000e-01    2.040000e+00
  SP5d   SX3  1 4.100000e-01    2.040000e+00
  SP4d   SX3  1 4.100000e-01    2.040000e+00
  SP3d   SX3  1 4.100000e-01    2.200000e+00
  SP2d   SX3  1 4.100000e-01    2.200000e+00
  SP1d   SX3  1 4.100000e-01    2.200000e+00
  SN6d   SX3  1 4.100000e-01    2.200000e+00
  SN5d   SX3  1 4.100000e-01    2.350000e+00
  SN4d   SX3  1 4.100000e-01    2.600000e+00
  SN3d   SX3  1 4.100000e-01    2.350000e+00
  SN2d   SX3  1 4.100000e-01    2.350000e+00
  SN1d   SX3  1 4.100000e-01    2.350000e+00
  SP6a   SX3  1 4.100000e-01    2.040000e+00
  SP5a   SX3  1 4.100000e-01    2.040000e+00
  SP4a   SX3  1 4.100000e-01    2.040000e+00
  SP3a   SX3  1 4.100000e-01    2.200000e+00
  SP2a   SX3  1 4.100000e-01    2.200000e+00
  SP1a   SX3  1 4.100000e-01    2.200000e+00
  SN6a   SX3  1 4.100000e-01    2.200000e+00
  SN5a   SX3  1 4.100000e-01    2.350000e+00
  SN4a   SX3  1 4.100000e-01    2.600000e+00
  SN3a   SX3  1 4.100000e-01    2.350000e+00
  SN2a   SX3  1 4.100000e-01    2.350000e+00
  SN1a   SX3  1 4.100000e-01    2.350000e+00
  SC6v   SX3  1 4.100000e-01    2.600000e+00
  SC5v   SX3  1 4.100000e-01    2.350000e+00
  SC4v   SX3  1 4.100000e-01    2.350000e+00
  SC3v   SX3  1 4.100000e-01    2.350000e+00
  SC2v   SX3  1 4.100000e-01    2.350000e+00
  SC1v   SX3  1 4.100000e-01    2.350000e+00
  SX4v   SX3  1 4.100000e-01    2.600000e+00
   SX3  SX3v  1 4.100000e-01    2.600000e+00
   SX3  SX1v  1 4.100000e-01    2.840000e+00
   SX3  SX2v  1 4.100000e-01    2.840000e+00
  SC6e   SX3  1 4.100000e-01    2.600000e+00
  SC5e   SX3  1 4.100000e-01    2.350000e+00
  SC4e   SX3  1 4.100000e-01    2.350000e+00
  SC3e   SX3  1 4.100000e-01    2.350000e+00
  SC2e   SX3  1 4.100000e-01    2.350000e+00
  SC1e   SX3  1 4.100000e-01    2.350000e+00
  SX4e   SX3  1 4.100000e-01    2.600000e+00
   SX3  SX3e  1 4.100000e-01    2.600000e+00
   SX3  SX1e  1 4.100000e-01    2.840000e+00
   SX3  SX2e  1 4.100000e-01    2.840000e+00
  SP6q   SX3  1 4.100000e-01    2.350000e+00
  SP5q   SX3  1 4.100000e-01    2.350000e+00
  SP4q   SX3  1 4.100000e-01    2.350000e+00
  SP3q   SX3  1 4.100000e-01    2.600000e+00
  SP2q   SX3  1 4.100000e-01    2.600000e+00
  SP1q   SX3  1 4.100000e-01    2.600000e+00
  SN6q   SX3  1 4.100000e-01    2.600000e+00
  SN5q   SX3  1 4.100000e-01    2.840000e+00
  SN4q   SX3  1 4.100000e-01    3.070000e+00
  SN3q   SX3  1 4.100000e-01    2.840000e+00
  SN2q   SX3  1 4.100000e-01    2.840000e+00
  SN1q   SX3  1 4.100000e-01    2.840000e+00
  SC6q   SX3  1 4.100000e-01    2.840000e+00
  SC5q   SX3  1 4.100000e-01    2.600000e+00
  SC4q   SX3  1 4.100000e-01    2.600000e+00
  SC3q   SX3  1 4.100000e-01    2.600000e+00
  SC2q   SX3  1 4.100000e-01    2.600000e+00
  SC1q   SX3  1 4.100000e-01    2.600000e+00
  SX4q   SX3  1 4.100000e-01    2.840000e+00
   SX3  SX3q  1 4.100000e-01    2.840000e+00
   SX3 SX1eq  1 4.100000e-01    3.310000e+00
   SX3 SX2eq  1 4.100000e-01    3.310000e+00
   SX3 SX3eq  1 4.100000e-01    3.070000e+00
 SX4eq   SX3  1 4.100000e-01    3.070000e+00
 SC1eq   SX3  1 4.100000e-01    2.840000e+00
 SC2eq   SX3  1 4.100000e-01    2.840000e+00
 SC3eq   SX3  1 4.100000e-01    2.840000e+00
 SC4eq   SX3  1 4.100000e-01    2.840000e+00
 SC5eq   SX3  1 4.100000e-01    2.840000e+00
 SC6eq   SX3  1 4.100000e-01    3.070000e+00
   SX3 SX1vq  1 4.100000e-01    3.310000e+00
   SX3 SX2vq  1 4.100000e-01    3.310000e+00
   SX3 SX3vq  1 4.100000e-01    3.070000e+00
 SX4vq   SX3  1 4.100000e-01    3.070000e+00
 SC1vq   SX3  1 4.100000e-01    2.840000e+00
 SC2vq   SX3  1 4.100000e-01    2.840000e+00
 SC3vq   SX3  1 4.100000e-01    2.840000e+00
 SC4vq   SX3  1 4.100000e-01    2.840000e+00
 SC5vq   SX3  1 4.100000e-01    2.840000e+00
 SC6vq   SX3  1 4.100000e-01    3.070000e+00
 SN1aq   SX3  1 4.100000e-01    2.840000e+00
 SN2aq   SX3  1 4.100000e-01    2.840000e+00
 SN3aq   SX3  1 4.100000e-01    2.840000e+00
 SN4aq   SX3  1 4.100000e-01    3.070000e+00
 SN5aq   SX3  1 4.100000e-01    2.840000e+00
 SN6aq   SX3  1 4.100000e-01    2.600000e+00
 SP1aq   SX3  1 4.100000e-01    2.600000e+00
 SP2aq   SX3  1 4.100000e-01    2.600000e+00
 SP3aq   SX3  1 4.100000e-01    2.600000e+00
 SP4aq   SX3  1 4.100000e-01    2.350000e+00
 SP5aq   SX3  1 4.100000e-01    2.350000e+00
 SP6aq   SX3  1 4.100000e-01    2.350000e+00
 SN1dq   SX3  1 4.100000e-01    2.840000e+00
 SN2dq   SX3  1 4.100000e-01    2.840000e+00
 SN3dq   SX3  1 4.100000e-01    2.840000e+00
 SN4dq   SX3  1 4.100000e-01    3.070000e+00
 SN5dq   SX3  1 4.100000e-01    2.840000e+00
 SN6dq   SX3  1 4.100000e-01    2.600000e+00
 SP1dq   SX3  1 4.100000e-01    2.600000e+00
 SP2dq   SX3  1 4.100000e-01    2.600000e+00
 SP3dq   SX3  1 4.100000e-01    2.600000e+00
 SP4dq   SX3  1 4.100000e-01    2.350000e+00
 SP5dq   SX3  1 4.100000e-01    2.350000e+00
 SP6dq   SX3  1 4.100000e-01    2.350000e+00
   SX3  SX1q  1 4.100000e-01    3.070000e+00
   SX3  SX2q  1 4.100000e-01    3.070000e+00
  SP6h   SX3  1 4.100000e-01    2.040000e+00
  SP5h   SX3  1 4.100000e-01    2.040000e+00
  SP4h   SX3  1 4.100000e-01    2.040000e+00
  SP3h   SX3  1 4.100000e-01    2.200000e+00
  SP2h   SX3  1 4.100000e-01    2.200000e+00
  SP1h   SX3  1 4.100000e-01    2.200000e+00
  SN6h   SX3  1 4.100000e-01    2.200000e+00
  SN5h   SX3  1 4.100000e-01    2.350000e+00
  SN4h   SX3  1 4.100000e-01    2.600000e+00
  SN3h   SX3  1 4.100000e-01    2.350000e+00
  SN2h   SX3  1 4.100000e-01    2.350000e+00
  SN1h   SX3  1 4.100000e-01    2.350000e+00
  SC6h   SX3  1 4.100000e-01    2.350000e+00
  SC5h   SX3  1 4.100000e-01    2.200000e+00
  SC4h   SX3  1 4.100000e-01    2.200000e+00
  SC3h   SX3  1 4.100000e-01    2.200000e+00
  SC2h   SX3  1 4.100000e-01    2.200000e+00
  SC1h   SX3  1 4.100000e-01    2.200000e+00
  SX4h   SX3  1 4.100000e-01    2.350000e+00
   SX3  SX3h  1 4.100000e-01    2.350000e+00
   SX3 SX1eh  1 4.100000e-01    2.840000e+00
   SX3 SX2eh  1 4.100000e-01    2.840000e+00
   SX3 SX3eh  1 4.100000e-01    2.600000e+00
 SX4eh   SX3  1 4.100000e-01    2.600000e+00
 SC1eh   SX3  1 4.100000e-01    2.350000e+00
 SC2eh   SX3  1 4.100000e-01    2.350000e+00
 SC3eh   SX3  1 4.100000e-01    2.350000e+00
 SC4eh   SX3  1 4.100000e-01    2.350000e+00
 SC5eh   SX3  1 4.100000e-01    2.350000e+00
 SC6eh   SX3  1 4.100000e-01    2.600000e+00
   SX3 SX1vh  1 4.100000e-01    2.840000e+00
   SX3 SX2vh  1 4.100000e-01    2.840000e+00
   SX3 SX3vh  1 4.100000e-01    2.600000e+00
 SX4vh   SX3  1 4.100000e-01    2.600000e+00
 SC1vh   SX3  1 4.100000e-01    2.350000e+00
 SC2vh   SX3  1 4.100000e-01    2.350000e+00
 SC3vh   SX3  1 4.100000e-01    2.350000e+00
 SC4vh   SX3  1 4.100000e-01    2.350000e+00
 SC5vh   SX3  1 4.100000e-01    2.350000e+00
 SC6vh   SX3  1 4.100000e-01    2.600000e+00
 SN1ah   SX3  1 4.100000e-01    2.350000e+00
 SN2ah   SX3  1 4.100000e-01    2.350000e+00
 SN3ah   SX3  1 4.100000e-01    2.350000e+00
 SN4ah   SX3  1 4.100000e-01    2.600000e+00
 SN5ah   SX3  1 4.100000e-01    2.350000e+00
 SN6ah   SX3  1 4.100000e-01    2.200000e+00
 SP1ah   SX3  1 4.100000e-01    2.200000e+00
 SP2ah   SX3  1 4.100000e-01    2.200000e+00
 SP3ah   SX3  1 4.100000e-01    2.200000e+00
 SP4ah   SX3  1 4.100000e-01    2.040000e+00
 SP5ah   SX3  1 4.100000e-01    2.040000e+00
 SP6ah   SX3  1 4.100000e-01    2.040000e+00
 SN1dh   SX3  1 4.100000e-01    2.350000e+00
 SN2dh   SX3  1 4.100000e-01    2.350000e+00
 SN3dh   SX3  1 4.100000e-01    2.350000e+00
 SN4dh   SX3  1 4.100000e-01    2.600000e+00
 SN5dh   SX3  1 4.100000e-01    2.350000e+00
 SN6dh   SX3  1 4.100000e-01    2.200000e+00
 SP1dh   SX3  1 4.100000e-01    2.200000e+00
 SP2dh   SX3  1 4.100000e-01    2.200000e+00
 SP3dh   SX3  1 4.100000e-01    2.200000e+00
 SP4dh   SX3  1 4.100000e-01    2.040000e+00
 SP5dh   SX3  1 4.100000e-01    2.040000e+00
 SP6dh   SX3  1 4.100000e-01    2.040000e+00
   SX3  SX1h  1 4.100000e-01    2.600000e+00
   SX3  SX2h  1 4.100000e-01    2.600000e+00
  SP6r   SX3  1 4.100000e-01    2.040000e+00
  SP5r   SX3  1 4.100000e-01    2.040000e+00
  SP4r   SX3  1 4.100000e-01    2.040000e+00
  SP3r   SX3  1 4.100000e-01    2.200000e+00
  SP2r   SX3  1 4.100000e-01    2.200000e+00
  SP1r   SX3  1 4.100000e-01    2.200000e+00
  SN6r   SX3  1 4.100000e-01    2.200000e+00
  SN5r   SX3  1 4.100000e-01    2.350000e+00
  SN4r   SX3  1 4.100000e-01    2.600000e+00
  SN3r   SX3  1 4.100000e-01    2.350000e+00
  SN2r   SX3  1 4.100000e-01    2.350000e+00
  SN1r   SX3  1 4.100000e-01    2.350000e+00
  SC6r   SX3  1 4.100000e-01    2.350000e+00
  SC5r   SX3  1 4.100000e-01    2.200000e+00
  SC4r   SX3  1 4.100000e-01    2.200000e+00
  SC3r   SX3  1 4.100000e-01    2.200000e+00
  SC2r   SX3  1 4.100000e-01    2.200000e+00
  SC1r   SX3  1 4.100000e-01    2.200000e+00
  SX4r   SX3  1 4.100000e-01    2.350000e+00
   SX3  SX3r  1 4.100000e-01    2.350000e+00
   SX3 SX1er  1 4.100000e-01    2.840000e+00
   SX3 SX2er  1 4.100000e-01    2.840000e+00
   SX3 SX3er  1 4.100000e-01    2.600000e+00
 SX4er   SX3  1 4.100000e-01    2.600000e+00
 SC1er   SX3  1 4.100000e-01    2.350000e+00
 SC2er   SX3  1 4.100000e-01    2.350000e+00
 SC3er   SX3  1 4.100000e-01    2.350000e+00
 SC4er   SX3  1 4.100000e-01    2.350000e+00
 SC5er   SX3  1 4.100000e-01    2.350000e+00
 SC6er   SX3  1 4.100000e-01    2.600000e+00
   SX3 SX1vr  1 4.100000e-01    2.840000e+00
   SX3 SX2vr  1 4.100000e-01    2.840000e+00
   SX3 SX3vr  1 4.100000e-01    2.600000e+00
 SX4vr   SX3  1 4.100000e-01    2.600000e+00
 SC1vr   SX3  1 4.100000e-01    2.350000e+00
 SC2vr   SX3  1 4.100000e-01    2.350000e+00
 SC3vr   SX3  1 4.100000e-01    2.350000e+00
 SC4vr   SX3  1 4.100000e-01    2.350000e+00
 SC5vr   SX3  1 4.100000e-01    2.350000e+00
 SC6vr   SX3  1 4.100000e-01    2.600000e+00
 SN1ar   SX3  1 4.100000e-01    2.350000e+00
 SN2ar   SX3  1 4.100000e-01    2.350000e+00
 SN3ar   SX3  1 4.100000e-01    2.350000e+00
 SN4ar   SX3  1 4.100000e-01    2.600000e+00
 SN5ar   SX3  1 4.100000e-01    2.350000e+00
 SN6ar   SX3  1 4.100000e-01    2.200000e+00
 SP1ar   SX3  1 4.100000e-01    2.200000e+00
 SP2ar   SX3  1 4.100000e-01    2.200000e+00
 SP3ar   SX3  1 4.100000e-01    2.200000e+00
 SP4ar   SX3  1 4.100000e-01    2.040000e+00
 SP5ar   SX3  1 4.100000e-01    2.040000e+00
 SP6ar   SX3  1 4.100000e-01    2.040000e+00
 SN1dr   SX3  1 4.100000e-01    2.350000e+00
 SN2dr   SX3  1 4.100000e-01    2.350000e+00
 SN3dr   SX3  1 4.100000e-01    2.350000e+00
 SN4dr   SX3  1 4.100000e-01    2.600000e+00
 SN5dr   SX3  1 4.100000e-01    2.350000e+00
 SN6dr   SX3  1 4.100000e-01    2.200000e+00
 SP1dr   SX3  1 4.100000e-01    2.200000e+00
 SP2dr   SX3  1 4.100000e-01    2.200000e+00
 SP3dr   SX3  1 4.100000e-01    2.200000e+00
 SP4dr   SX3  1 4.100000e-01    2.040000e+00
 SP5dr   SX3  1 4.100000e-01    2.040000e+00
 SP6dr   SX3  1 4.100000e-01    2.040000e+00
   SX3  SX1r  1 4.100000e-01    2.600000e+00
   SX3  SX2r  1 4.100000e-01    2.600000e+00
   SX3   TX3  1 3.650000e-01    1.910000e+00
   SX3   TX2  1 3.650000e-01    2.110000e+00
   SX3   TX1  1 3.650000e-01    2.110000e+00
   SX3  TX3v  1 3.650000e-01    2.110000e+00
   SX3  TX1v  1 3.650000e-01    2.340000e+00
   SX3  TX2v  1 3.650000e-01    2.340000e+00
   SX3  TX3e  1 3.650000e-01    2.110000e+00
   SX3  TX1e  1 3.650000e-01    2.340000e+00
   SX3  TX2e  1 3.650000e-01    2.340000e+00
   SX3  TX3q  1 3.650000e-01    2.340000e+00
   SX3 TX1eq  1 3.650000e-01    2.830000e+00
   SX3 TX2eq  1 3.650000e-01    2.830000e+00
   SX3 TX3eq  1 3.650000e-01    2.570000e+00
   SX3 TX1vq  1 3.650000e-01    2.830000e+00
   SX3 TX2vq  1 3.650000e-01    2.830000e+00
   SX3 TX3vq  1 3.650000e-01    2.570000e+00
   SX3  TX1q  1 3.650000e-01    2.570000e+00
   SX3  TX2q  1 3.650000e-01    2.570000e+00
   SX3  TX3h  1 3.650000e-01    1.910000e+00
   SX3 TX1eh  1 3.650000e-01    2.340000e+00
   SX3 TX2eh  1 3.650000e-01    2.340000e+00
   SX3 TX3eh  1 3.650000e-01    2.110000e+00
   SX3 TX1vh  1 3.650000e-01    2.340000e+00
   SX3 TX2vh  1 3.650000e-01    2.340000e+00
   SX3 TX3vh  1 3.650000e-01    2.110000e+00
   SX3  TX1h  1 3.650000e-01    2.110000e+00
   SX3  TX2h  1 3.650000e-01    2.110000e+00
   SX3  TX3r  1 3.650000e-01    1.910000e+00
   SX3 TX1er  1 3.650000e-01    2.340000e+00
   SX3 TX2er  1 3.650000e-01    2.340000e+00
   SX3 TX3er  1 3.650000e-01    2.110000e+00
   SX3 TX1vr  1 3.650000e-01    2.340000e+00
   SX3 TX2vr  1 3.650000e-01    2.340000e+00
   SX3 TX3vr  1 3.650000e-01    2.110000e+00
   SX3  TX1r  1 3.650000e-01    2.110000e+00
   SX3  TX2r  1 3.650000e-01    2.110000e+00
  TP6d   SX3  1 3.660000e-01    1.600000e+00
  TP5d   SX3  1 3.660000e-01    1.600000e+00
  TP4d   SX3  1 3.660000e-01    1.600000e+00
  TP3d   SX3  1 3.650000e-01    1.750000e+00
  TP2d   SX3  1 3.650000e-01    1.750000e+00
  TP1d   SX3  1 3.650000e-01    1.750000e+00
  TN6d   SX3  1 3.650000e-01    1.750000e+00
  TN5d   SX3  1 3.650000e-01    1.910000e+00
  TN4d   SX3  1 3.650000e-01    2.110000e+00
  TN3d   SX3  1 3.650000e-01    1.910000e+00
  TN2d   SX3  1 3.650000e-01    1.910000e+00
  TN1d   SX3  1 3.650000e-01    1.910000e+00
  TP6a   SX3  1 3.660000e-01    1.600000e+00
  TP5a   SX3  1 3.660000e-01    1.600000e+00
  TP4a   SX3  1 3.660000e-01    1.600000e+00
  TP3a   SX3  1 3.650000e-01    1.750000e+00
  TP2a   SX3  1 3.650000e-01    1.750000e+00
  TP1a   SX3  1 3.650000e-01    1.750000e+00
  TN6a   SX3  1 3.650000e-01    1.750000e+00
  TN5a   SX3  1 3.650000e-01    1.910000e+00
  TN4a   SX3  1 3.650000e-01    2.110000e+00
  TN3a   SX3  1 3.650000e-01    1.910000e+00
  TN2a   SX3  1 3.650000e-01    1.910000e+00
  TN1a   SX3  1 3.650000e-01    1.910000e+00
  TC6v   SX3  1 3.650000e-01    2.110000e+00
  TC5v   SX3  1 3.650000e-01    1.910000e+00
  TC4v   SX3  1 3.650000e-01    1.910000e+00
  TC3v   SX3  1 3.650000e-01    1.910000e+00
  TC2v   SX3  1 3.650000e-01    1.910000e+00
  TC1v   SX3  1 3.650000e-01    1.910000e+00
  TX4v   SX3  1 3.650000e-01    2.110000e+00
  TC6e   SX3  1 3.650000e-01    2.110000e+00
  TC5e   SX3  1 3.650000e-01    1.910000e+00
  TC4e   SX3  1 3.650000e-01    1.910000e+00
  TC3e   SX3  1 3.650000e-01    1.910000e+00
  TC2e   SX3  1 3.650000e-01    1.910000e+00
  TC1e   SX3  1 3.650000e-01    1.910000e+00
  TX4e   SX3  1 3.650000e-01    2.110000e+00
  TP6q   SX3  1 3.650000e-01    1.910000e+00
  TP5q   SX3  1 3.650000e-01    1.910000e+00
  TP4q   SX3  1 3.650000e-01    1.910000e+00
  TP3q   SX3  1 3.650000e-01    2.110000e+00
  TP2q   SX3  1 3.650000e-01    2.110000e+00
  TP1q   SX3  1 3.650000e-01    2.110000e+00
  TN6q   SX3  1 3.650000e-01    2.110000e+00
  TN5q   SX3  1 3.650000e-01    2.340000e+00
  TN4q   SX3  1 3.650000e-01    2.570000e+00
  TN3q   SX3  1 3.650000e-01    2.340000e+00
  TN2q   SX3  1 3.650000e-01    2.340000e+00
  TN1q   SX3  1 3.650000e-01    2.340000e+00
  TC6q   SX3  1 3.650000e-01    2.340000e+00
  TC5q   SX3  1 3.650000e-01    2.110000e+00
  TC4q   SX3  1 3.650000e-01    2.110000e+00
  TC3q   SX3  1 3.650000e-01    2.110000e+00
  TC2q   SX3  1 3.650000e-01    2.110000e+00
  TC1q   SX3  1 3.650000e-01    2.110000e+00
  TX4q   SX3  1 3.650000e-01    2.340000e+00
 TX4eq   SX3  1 3.650000e-01    2.570000e+00
 TC1eq   SX3  1 3.650000e-01    2.340000e+00
 TC2eq   SX3  1 3.650000e-01    2.340000e+00
 TC3eq   SX3  1 3.650000e-01    2.340000e+00
 TC4eq   SX3  1 3.650000e-01    2.340000e+00
 TC5eq   SX3  1 3.650000e-01    2.340000e+00
 TC6eq   SX3  1 3.650000e-01    2.570000e+00
 TX4vq   SX3  1 3.650000e-01    2.570000e+00
 TC1vq   SX3  1 3.650000e-01    2.340000e+00
 TC2vq   SX3  1 3.650000e-01    2.340000e+00
 TC3vq   SX3  1 3.650000e-01    2.340000e+00
 TC4vq   SX3  1 3.650000e-01    2.340000e+00
 TC5vq   SX3  1 3.650000e-01    2.340000e+00
 TC6vq   SX3  1 3.650000e-01    2.570000e+00
 TN1aq   SX3  1 3.650000e-01    2.340000e+00
 TN2aq   SX3  1 3.650000e-01    2.340000e+00
 TN3aq   SX3  1 3.650000e-01    2.340000e+00
 TN4aq   SX3  1 3.650000e-01    2.570000e+00
 TN5aq   SX3  1 3.650000e-01    2.340000e+00
 TN6aq   SX3  1 3.650000e-01    2.110000e+00
 TP1aq   SX3  1 3.650000e-01    2.110000e+00
 TP2aq   SX3  1 3.650000e-01    2.110000e+00
 TP3aq   SX3  1 3.650000e-01    2.110000e+00
 TP4aq   SX3  1 3.650000e-01    1.910000e+00
 TP5aq   SX3  1 3.650000e-01    1.910000e+00
 TP6aq   SX3  1 3.650000e-01    1.910000e+00
 TN1dq   SX3  1 3.650000e-01    2.340000e+00
 TN2dq   SX3  1 3.650000e-01    2.340000e+00
 TN3dq   SX3  1 3.650000e-01    2.340000e+00
 TN4dq   SX3  1 3.650000e-01    2.570000e+00
 TN5dq   SX3  1 3.650000e-01    2.340000e+00
 TN6dq   SX3  1 3.650000e-01    2.110000e+00
 TP1dq   SX3  1 3.650000e-01    2.110000e+00
 TP2dq   SX3  1 3.650000e-01    2.110000e+00
 TP3dq   SX3  1 3.650000e-01    2.110000e+00
 TP4dq   SX3  1 3.650000e-01    1.910000e+00
 TP5dq   SX3  1 3.650000e-01    1.910000e+00
 TP6dq   SX3  1 3.650000e-01    1.910000e+00
  TP6h   SX3  1 3.660000e-01    1.600000e+00
  TP5h   SX3  1 3.660000e-01    1.600000e+00
  TP4h   SX3  1 3.660000e-01    1.600000e+00
  TP3h   SX3  1 3.650000e-01    1.750000e+00
  TP2h   SX3  1 3.650000e-01    1.750000e+00
  TP1h   SX3  1 3.650000e-01    1.750000e+00
  TN6h   SX3  1 3.650000e-01    1.750000e+00
  TN5h   SX3  1 3.650000e-01    1.910000e+00
  TN4h   SX3  1 3.650000e-01    2.110000e+00
  TN3h   SX3  1 3.650000e-01    1.910000e+00
  TN2h   SX3  1 3.650000e-01    1.910000e+00
  TN1h   SX3  1 3.650000e-01    1.910000e+00
  TC6h   SX3  1 3.650000e-01    1.910000e+00
  TC5h   SX3  1 3.650000e-01    1.750000e+00
  TC4h   SX3  1 3.650000e-01    1.750000e+00
  TC3h   SX3  1 3.650000e-01    1.750000e+00
  TC2h   SX3  1 3.650000e-01    1.750000e+00
  TC1h   SX3  1 3.650000e-01    1.750000e+00
  TX4h   SX3  1 3.650000e-01    1.910000e+00
 TX4eh   SX3  1 3.650000e-01    2.110000e+00
 TC1eh   SX3  1 3.650000e-01    1.910000e+00
 TC2eh   SX3  1 3.650000e-01    1.910000e+00
 TC3eh   SX3  1 3.650000e-01    1.910000e+00
 TC4eh   SX3  1 3.650000e-01    1.910000e+00
 TC5eh   SX3  1 3.650000e-01    1.910000e+00
 TC6eh   SX3  1 3.650000e-01    2.110000e+00
 TX4vh   SX3  1 3.650000e-01    2.110000e+00
 TC1vh   SX3  1 3.650000e-01    1.910000e+00
 TC2vh   SX3  1 3.650000e-01    1.910000e+00
 TC3vh   SX3  1 3.650000e-01    1.910000e+00
 TC4vh   SX3  1 3.650000e-01    1.910000e+00
 TC5vh   SX3  1 3.650000e-01    1.910000e+00
 TC6vh   SX3  1 3.650000e-01    2.110000e+00
 TN1ah   SX3  1 3.650000e-01    1.910000e+00
 TN2ah   SX3  1 3.650000e-01    1.910000e+00
 TN3ah   SX3  1 3.650000e-01    1.910000e+00
 TN4ah   SX3  1 3.650000e-01    2.110000e+00
 TN5ah   SX3  1 3.650000e-01    1.910000e+00
 TN6ah   SX3  1 3.650000e-01    1.750000e+00
 TP1ah   SX3  1 3.650000e-01    1.750000e+00
 TP2ah   SX3  1 3.650000e-01    1.750000e+00
 TP3ah   SX3  1 3.650000e-01    1.750000e+00
 TP4ah   SX3  1 3.660000e-01    1.600000e+00
 TP5ah   SX3  1 3.660000e-01    1.600000e+00
 TP6ah   SX3  1 3.660000e-01    1.600000e+00
 TN1dh   SX3  1 3.650000e-01    1.910000e+00
 TN2dh   SX3  1 3.650000e-01    1.910000e+00
 TN3dh   SX3  1 3.650000e-01    1.910000e+00
 TN4dh   SX3  1 3.650000e-01    2.110000e+00
 TN5dh   SX3  1 3.650000e-01    1.910000e+00
 TN6dh   SX3  1 3.650000e-01    1.750000e+00
 TP1dh   SX3  1 3.650000e-01    1.750000e+00
 TP2dh   SX3  1 3.650000e-01    1.750000e+00
 TP3dh   SX3  1 3.650000e-01    1.750000e+00
 TP4dh   SX3  1 3.660000e-01    1.600000e+00
 TP5dh   SX3  1 3.660000e-01    1.600000e+00
 TP6dh   SX3  1 3.660000e-01    1.600000e+00
  TP6r   SX3  1 3.660000e-01    1.600000e+00
  TP5r   SX3  1 3.660000e-01    1.600000e+00
  TP4r   SX3  1 3.660000e-01    1.600000e+00
  TP3r   SX3  1 3.650000e-01    1.750000e+00
  TP2r   SX3  1 3.650000e-01    1.750000e+00
  TP1r   SX3  1 3.650000e-01    1.750000e+00
  TN6r   SX3  1 3.650000e-01    1.750000e+00
  TN5r   SX3  1 3.650000e-01    1.910000e+00
  TN4r   SX3  1 3.650000e-01    2.110000e+00
  TN3r   SX3  1 3.650000e-01    1.910000e+00
  TN2r   SX3  1 3.650000e-01    1.910000e+00
  TN1r   SX3  1 3.650000e-01    1.910000e+00
  TC6r   SX3  1 3.650000e-01    1.910000e+00
  TC5r   SX3  1 3.650000e-01    1.750000e+00
  TC4r   SX3  1 3.650000e-01    1.750000e+00
  TC3r   SX3  1 3.650000e-01    1.750000e+00
  TC2r   SX3  1 3.650000e-01    1.750000e+00
  TC1r   SX3  1 3.650000e-01    1.750000e+00
  TX4r   SX3  1 3.650000e-01    1.910000e+00
 TX4er   SX3  1 3.650000e-01    2.110000e+00
 TC1er   SX3  1 3.650000e-01    1.910000e+00
 TC2er   SX3  1 3.650000e-01    1.910000e+00
 TC3er   SX3  1 3.650000e-01    1.910000e+00
 TC4er   SX3  1 3.650000e-01    1.910000e+00
 TC5er   SX3  1 3.650000e-01    1.910000e+00
 TC6er   SX3  1 3.650000e-01    2.110000e+00
 TX4vr   SX3  1 3.650000e-01    2.110000e+00
 TC1vr   SX3  1 3.650000e-01    1.910000e+00
 TC2vr   SX3  1 3.650000e-01    1.910000e+00
 TC3vr   SX3  1 3.650000e-01    1.910000e+00
 TC4vr   SX3  1 3.650000e-01    1.910000e+00
 TC5vr   SX3  1 3.650000e-01    1.910000e+00
 TC6vr   SX3  1 3.650000e-01    2.110000e+00
 TN1ar   SX3  1 3.650000e-01    1.910000e+00
 TN2ar   SX3  1 3.650000e-01    1.910000e+00
 TN3ar   SX3  1 3.650000e-01    1.910000e+00
 TN4ar   SX3  1 3.650000e-01    2.110000e+00
 TN5ar   SX3  1 3.650000e-01    1.910000e+00
 TN6ar   SX3  1 3.650000e-01    1.750000e+00
 TP1ar   SX3  1 3.650000e-01    1.750000e+00
 TP2ar   SX3  1 3.650000e-01    1.750000e+00
 TP3ar   SX3  1 3.650000e-01    1.750000e+00
 TP4ar   SX3  1 3.660000e-01    1.600000e+00
 TP5ar   SX3  1 3.660000e-01    1.600000e+00
 TP6ar   SX3  1 3.660000e-01    1.600000e+00
 TN1dr   SX3  1 3.650000e-01    1.910000e+00
 TN2dr   SX3  1 3.650000e-01    1.910000e+00
 TN3dr   SX3  1 3.650000e-01    1.910000e+00
 TN4dr   SX3  1 3.650000e-01    2.110000e+00
 TN5dr   SX3  1 3.650000e-01    1.910000e+00
 TN6dr   SX3  1 3.650000e-01    1.750000e+00
 TP1dr   SX3  1 3.650000e-01    1.750000e+00
 TP2dr   SX3  1 3.650000e-01    1.750000e+00
 TP3dr   SX3  1 3.650000e-01    1.750000e+00
 TP4dr   SX3  1 3.660000e-01    1.600000e+00
 TP5dr   SX3  1 3.660000e-01    1.600000e+00
 TP6dr   SX3  1 3.660000e-01    1.600000e+00
   P6d   TX3  1 3.950000e-01    1.850000e+00
   P5d   TX3  1 3.950000e-01    1.850000e+00
   P4d   TX3  1 3.950000e-01    1.850000e+00
   P3d   TX3  1 3.950000e-01    2.110000e+00
   P2d   TX3  1 3.950000e-01    2.110000e+00
   P1d   TX3  1 3.950000e-01    2.110000e+00
   N6d   TX3  1 3.950000e-01    2.110000e+00
   N5d   TX3  1 3.950000e-01    2.310000e+00
   N4d   TX3  1 3.950000e-01    2.500000e+00
   N3d   TX3  1 3.950000e-01    2.310000e+00
   N2d   TX3  1 3.950000e-01    2.310000e+00
   N1d   TX3  1 3.950000e-01    2.310000e+00
   P6a   TX3  1 3.950000e-01    1.850000e+00
   P5a   TX3  1 3.950000e-01    1.850000e+00
   P4a   TX3  1 3.950000e-01    1.850000e+00
   P3a   TX3  1 3.950000e-01    2.110000e+00
   P2a   TX3  1 3.950000e-01    2.110000e+00
   P1a   TX3  1 3.950000e-01    2.110000e+00
   N6a   TX3  1 3.950000e-01    2.110000e+00
   N5a   TX3  1 3.950000e-01    2.310000e+00
   N4a   TX3  1 3.950000e-01    2.500000e+00
   N3a   TX3  1 3.950000e-01    2.310000e+00
   N2a   TX3  1 3.950000e-01    2.310000e+00
   N1a   TX3  1 3.950000e-01    2.310000e+00
   C6v   TX3  1 3.950000e-01    2.500000e+00
   C5v   TX3  1 3.950000e-01    2.310000e+00
   C4v   TX3  1 3.950000e-01    2.310000e+00
   C3v   TX3  1 3.950000e-01    2.310000e+00
   C2v   TX3  1 3.950000e-01    2.310000e+00
   C1v   TX3  1 3.950000e-01    2.310000e+00
   X4v   TX3  1 3.950000e-01    2.500000e+00
   C6e   TX3  1 3.950000e-01    2.500000e+00
   C5e   TX3  1 3.950000e-01    2.310000e+00
   C4e   TX3  1 3.950000e-01    2.310000e+00
   C3e   TX3  1 3.950000e-01    2.310000e+00
   C2e   TX3  1 3.950000e-01    2.310000e+00
   C1e   TX3  1 3.950000e-01    2.310000e+00
   X4e   TX3  1 3.950000e-01    2.500000e+00
   P6q   TX3  1 3.950000e-01    2.310000e+00
   P5q   TX3  1 3.950000e-01    2.310000e+00
   P4q   TX3  1 3.950000e-01    2.310000e+00
   P3q   TX3  1 3.950000e-01    2.500000e+00
   P2q   TX3  1 3.950000e-01    2.500000e+00
   P1q   TX3  1 3.950000e-01    2.500000e+00
   N6q   TX3  1 3.950000e-01    2.500000e+00
   N5q   TX3  1 3.950000e-01    2.700000e+00
   N4q   TX3  1 3.950000e-01    2.940000e+00
   N3q   TX3  1 3.950000e-01    2.700000e+00
   N2q   TX3  1 3.950000e-01    2.700000e+00
   N1q   TX3  1 3.950000e-01    2.700000e+00
   C6q   TX3  1 3.950000e-01    2.700000e+00
   C5q   TX3  1 3.950000e-01    2.500000e+00
   C4q   TX3  1 3.950000e-01    2.500000e+00
   C3q   TX3  1 3.950000e-01    2.500000e+00
   C2q   TX3  1 3.950000e-01    2.500000e+00
   C1q   TX3  1 3.950000e-01    2.500000e+00
   X4q   TX3  1 3.950000e-01    2.700000e+00
  X4eq   TX3  1 3.950000e-01    2.940000e+00
  C1eq   TX3  1 3.950000e-01    2.700000e+00
  C2eq   TX3  1 3.950000e-01    2.700000e+00
  C3eq   TX3  1 3.950000e-01    2.700000e+00
  C4eq   TX3  1 3.950000e-01    2.700000e+00
  C5eq   TX3  1 3.950000e-01    2.700000e+00
  C6eq   TX3  1 3.950000e-01    2.940000e+00
  X4vq   TX3  1 3.950000e-01    2.940000e+00
  C1vq   TX3  1 3.950000e-01    2.700000e+00
  C2vq   TX3  1 3.950000e-01    2.700000e+00
  C3vq   TX3  1 3.950000e-01    2.700000e+00
  C4vq   TX3  1 3.950000e-01    2.700000e+00
  C5vq   TX3  1 3.950000e-01    2.700000e+00
  C6vq   TX3  1 3.950000e-01    2.940000e+00
  N1aq   TX3  1 3.950000e-01    2.700000e+00
  N2aq   TX3  1 3.950000e-01    2.700000e+00
  N3aq   TX3  1 3.950000e-01    2.700000e+00
  N4aq   TX3  1 3.950000e-01    2.940000e+00
  N5aq   TX3  1 3.950000e-01    2.700000e+00
  N6aq   TX3  1 3.950000e-01    2.500000e+00
  P1aq   TX3  1 3.950000e-01    2.500000e+00
  P2aq   TX3  1 3.950000e-01    2.500000e+00
  P3aq   TX3  1 3.950000e-01    2.500000e+00
  P4aq   TX3  1 3.950000e-01    2.310000e+00
  P5aq   TX3  1 3.950000e-01    2.310000e+00
  P6aq   TX3  1 3.950000e-01    2.310000e+00
  N1dq   TX3  1 3.950000e-01    2.700000e+00
  N2dq   TX3  1 3.950000e-01    2.700000e+00
  N3dq   TX3  1 3.950000e-01    2.700000e+00
  N4dq   TX3  1 3.950000e-01    2.940000e+00
  N5dq   TX3  1 3.950000e-01    2.700000e+00
  N6dq   TX3  1 3.950000e-01    2.500000e+00
  P1dq   TX3  1 3.950000e-01    2.500000e+00
  P2dq   TX3  1 3.950000e-01    2.500000e+00
  P3dq   TX3  1 3.950000e-01    2.500000e+00
  P4dq   TX3  1 3.950000e-01    2.310000e+00
  P5dq   TX3  1 3.950000e-01    2.310000e+00
  P6dq   TX3  1 3.950000e-01    2.310000e+00
   P6h   TX3  1 3.950000e-01    1.850000e+00
   P5h   TX3  1 3.950000e-01    1.850000e+00
   P4h   TX3  1 3.950000e-01    1.850000e+00
   P3h   TX3  1 3.950000e-01    2.110000e+00
   P2h   TX3  1 3.950000e-01    2.110000e+00
   P1h   TX3  1 3.950000e-01    2.110000e+00
   N6h   TX3  1 3.950000e-01    2.110000e+00
   N5h   TX3  1 3.950000e-01    2.310000e+00
   N4h   TX3  1 3.950000e-01    2.500000e+00
   N3h   TX3  1 3.950000e-01    2.310000e+00
   N2h   TX3  1 3.950000e-01    2.310000e+00
   N1h   TX3  1 3.950000e-01    2.310000e+00
   C6h   TX3  1 3.950000e-01    2.310000e+00
   C5h   TX3  1 3.950000e-01    2.110000e+00
   C4h   TX3  1 3.950000e-01    2.110000e+00
   C3h   TX3  1 3.950000e-01    2.110000e+00
   C2h   TX3  1 3.950000e-01    2.110000e+00
   C1h   TX3  1 3.950000e-01    2.110000e+00
   X4h   TX3  1 3.950000e-01    2.310000e+00
  X4eh   TX3  1 3.950000e-01    2.500000e+00
  C1eh   TX3  1 3.950000e-01    2.310000e+00
  C2eh   TX3  1 3.950000e-01    2.310000e+00
  C3eh   TX3  1 3.950000e-01    2.310000e+00
  C4eh   TX3  1 3.950000e-01    2.310000e+00
  C5eh   TX3  1 3.950000e-01    2.310000e+00
  C6eh   TX3  1 3.950000e-01    2.500000e+00
  X4vh   TX3  1 3.950000e-01    2.500000e+00
  C1vh   TX3  1 3.950000e-01    2.310000e+00
  C2vh   TX3  1 3.950000e-01    2.310000e+00
  C3vh   TX3  1 3.950000e-01    2.310000e+00
  C4vh   TX3  1 3.950000e-01    2.310000e+00
  C5vh   TX3  1 3.950000e-01    2.310000e+00
  C6vh   TX3  1 3.950000e-01    2.500000e+00
  N1ah   TX3  1 3.950000e-01    2.310000e+00
  N2ah   TX3  1 3.950000e-01    2.310000e+00
  N3ah   TX3  1 3.950000e-01    2.310000e+00
  N4ah   TX3  1 3.950000e-01    2.500000e+00
  N5ah   TX3  1 3.950000e-01    2.310000e+00
  N6ah   TX3  1 3.950000e-01    2.110000e+00
  P1ah   TX3  1 3.950000e-01    2.110000e+00
  P2ah   TX3  1 3.950000e-01    2.110000e+00
  P3ah   TX3  1 3.950000e-01    2.110000e+00
  P4ah   TX3  1 3.950000e-01    1.850000e+00
  P5ah   TX3  1 3.950000e-01    1.850000e+00
  P6ah   TX3  1 3.950000e-01    1.850000e+00
  N1dh   TX3  1 3.950000e-01    2.310000e+00
  N2dh   TX3  1 3.950000e-01    2.310000e+00
  N3dh   TX3  1 3.950000e-01    2.310000e+00
  N4dh   TX3  1 3.950000e-01    2.500000e+00
  N5dh   TX3  1 3.950000e-01    2.310000e+00
  N6dh   TX3  1 3.950000e-01    2.110000e+00
  P1dh   TX3  1 3.950000e-01    2.110000e+00
  P2dh   TX3  1 3.950000e-01    2.110000e+00
  P3dh   TX3  1 3.950000e-01    2.110000e+00
  P4dh   TX3  1 3.950000e-01    1.850000e+00
  P5dh   TX3  1 3.950000e-01    1.850000e+00
  P6dh   TX3  1 3.950000e-01    1.850000e+00
   P6r   TX3  1 3.950000e-01    1.850000e+00
   P5r   TX3  1 3.950000e-01    1.850000e+00
   P4r   TX3  1 3.950000e-01    1.850000e+00
   P3r   TX3  1 3.950000e-01    2.110000e+00
   P2r   TX3  1 3.950000e-01    2.110000e+00
   P1r   TX3  1 3.950000e-01    2.110000e+00
   N6r   TX3  1 3.950000e-01    2.110000e+00
   N5r   TX3  1 3.950000e-01    2.310000e+00
   N4r   TX3  1 3.950000e-01    2.500000e+00
   N3r   TX3  1 3.950000e-01    2.310000e+00
   N2r   TX3  1 3.950000e-01    2.310000e+00
   N1r   TX3  1 3.950000e-01    2.310000e+00
   C6r   TX3  1 3.950000e-01    2.310000e+00
   C5r   TX3  1 3.950000e-01    2.110000e+00
   C4r   TX3  1 3.950000e-01    2.110000e+00
   C3r   TX3  1 3.950000e-01    2.110000e+00
   C2r   TX3  1 3.950000e-01    2.110000e+00
   C1r   TX3  1 3.950000e-01    2.110000e+00
   X4r   TX3  1 3.950000e-01    2.310000e+00
  X4er   TX3  1 3.950000e-01    2.500000e+00
  C1er   TX3  1 3.950000e-01    2.310000e+00
  C2er   TX3  1 3.950000e-01    2.310000e+00
  C3er   TX3  1 3.950000e-01    2.310000e+00
  C4er   TX3  1 3.950000e-01    2.310000e+00
  C5er   TX3  1 3.950000e-01    2.310000e+00
  C6er   TX3  1 3.950000e-01    2.500000e+00
  X4vr   TX3  1 3.950000e-01    2.500000e+00
  C1vr   TX3  1 3.950000e-01    2.310000e+00
  C2vr   TX3  1 3.950000e-01    2.310000e+00
  C3vr   TX3  1 3.950000e-01    2.310000e+00
  C4vr   TX3  1 3.950000e-01    2.310000e+00
  C5vr   TX3  1 3.950000e-01    2.310000e+00
  C6vr   TX3  1 3.950000e-01    2.500000e+00
  N1ar   TX3  1 3.950000e-01    2.310000e+00
  N2ar   TX3  1 3.950000e-01    2.310000e+00
  N3ar   TX3  1 3.950000e-01    2.310000e+00
  N4ar   TX3  1 3.950000e-01    2.500000e+00
  N5ar   TX3  1 3.950000e-01    2.310000e+00
  N6ar   TX3  1 3.950000e-01    2.110000e+00
  P1ar   TX3  1 3.950000e-01    2.110000e+00
  P2ar   TX3  1 3.950000e-01    2.110000e+00
  P3ar   TX3  1 3.950000e-01    2.110000e+00
  P4ar   TX3  1 3.950000e-01    1.850000e+00
  P5ar   TX3  1 3.950000e-01    1.850000e+00
  P6ar   TX3  1 3.950000e-01    1.850000e+00
  N1dr   TX3  1 3.950000e-01    2.310000e+00
  N2dr   TX3  1 3.950000e-01    2.310000e+00
  N3dr   TX3  1 3.950000e-01    2.310000e+00
  N4dr   TX3  1 3.950000e-01    2.500000e+00
  N5dr   TX3  1 3.950000e-01    2.310000e+00
  N6dr   TX3  1 3.950000e-01    2.110000e+00
  P1dr   TX3  1 3.950000e-01    2.110000e+00
  P2dr   TX3  1 3.950000e-01    2.110000e+00
  P3dr   TX3  1 3.950000e-01    2.110000e+00
  P4dr   TX3  1 3.950000e-01    1.850000e+00
  P5dr   TX3  1 3.950000e-01    1.850000e+00
  P6dr   TX3  1 3.950000e-01    1.850000e+00
   TX3    X2  1 3.950000e-01    2.500000e+00
   TX3    X1  1 3.950000e-01    2.500000e+00
   TX3   X3v  1 3.950000e-01    2.500000e+00
   TX3   X1v  1 3.950000e-01    2.700000e+00
   TX3   X2v  1 3.950000e-01    2.700000e+00
   TX3   X3e  1 3.950000e-01    2.500000e+00
   TX3   X1e  1 3.950000e-01    2.700000e+00
   TX3   X2e  1 3.950000e-01    2.700000e+00
   TX3   X3q  1 3.950000e-01    2.700000e+00
   TX3  X1eq  1 3.950000e-01    3.190000e+00
   TX3  X2eq  1 3.950000e-01    3.190000e+00
   TX3  X3eq  1 3.950000e-01    2.940000e+00
   TX3  X1vq  1 3.950000e-01    3.190000e+00
   TX3  X2vq  1 3.950000e-01    3.190000e+00
   TX3  X3vq  1 3.950000e-01    2.940000e+00
   TX3   X1q  1 3.950000e-01    2.940000e+00
   TX3   X2q  1 3.950000e-01    2.940000e+00
   TX3   X3h  1 3.950000e-01    2.310000e+00
   TX3  X1eh  1 3.950000e-01    2.700000e+00
   TX3  X2eh  1 3.950000e-01    2.700000e+00
   TX3  X3eh  1 3.950000e-01    2.500000e+00
   TX3  X1vh  1 3.950000e-01    2.700000e+00
   TX3  X2vh  1 3.950000e-01    2.700000e+00
   TX3  X3vh  1 3.950000e-01    2.500000e+00
   TX3   X1h  1 3.950000e-01    2.500000e+00
   TX3   X2h  1 3.950000e-01    2.500000e+00
   TX3   X3r  1 3.950000e-01    2.310000e+00
   TX3  X1er  1 3.950000e-01    2.700000e+00
   TX3  X2er  1 3.950000e-01    2.700000e+00
   TX3  X3er  1 3.950000e-01    2.500000e+00
   TX3  X1vr  1 3.950000e-01    2.700000e+00
   TX3  X2vr  1 3.950000e-01    2.700000e+00
   TX3  X3vr  1 3.950000e-01    2.500000e+00
   TX3   X1r  1 3.950000e-01    2.500000e+00
   TX3   X2r  1 3.950000e-01    2.500000e+00
   TX3   TX3  1 3.400000e-01    1.510000e+00
   TX3   TX2  1 3.400000e-01    1.770000e+00
   TX3   TX1  1 3.400000e-01    1.770000e+00
  TP6d   TX3  1 3.520000e-01    1.050000e+00
  TP5d   TX3  1 3.520000e-01    1.050000e+00
  TP4d   TX3  1 3.520000e-01    1.050000e+00
  TP3d   TX3  1 3.400000e-01    1.230000e+00
  TP2d   TX3  1 3.400000e-01    1.230000e+00
  TP1d   TX3  1 3.400000e-01    1.230000e+00
  TN6d   TX3  1 3.400000e-01    1.230000e+00
  TN5d   TX3  1 3.400000e-01    1.510000e+00
  TN4d   TX3  1 3.400000e-01    1.770000e+00
  TN3d   TX3  1 3.400000e-01    1.510000e+00
  TN2d   TX3  1 3.400000e-01    1.510000e+00
  TN1d   TX3  1 3.400000e-01    1.510000e+00
  TP6a   TX3  1 3.520000e-01    1.050000e+00
  TP5a   TX3  1 3.520000e-01    1.050000e+00
  TP4a   TX3  1 3.520000e-01    1.050000e+00
  TP3a   TX3  1 3.400000e-01    1.230000e+00
  TP2a   TX3  1 3.400000e-01    1.230000e+00
  TP1a   TX3  1 3.400000e-01    1.230000e+00
  TN6a   TX3  1 3.400000e-01    1.230000e+00
  TN5a   TX3  1 3.400000e-01    1.510000e+00
  TN4a   TX3  1 3.400000e-01    1.770000e+00
  TN3a   TX3  1 3.400000e-01    1.510000e+00
  TN2a   TX3  1 3.400000e-01    1.510000e+00
  TN1a   TX3  1 3.400000e-01    1.510000e+00
  TC6v   TX3  1 3.400000e-01    1.770000e+00
  TC5v   TX3  1 3.400000e-01    1.510000e+00
  TC4v   TX3  1 3.400000e-01    1.510000e+00
  TC3v   TX3  1 3.400000e-01    1.510000e+00
  TC2v   TX3  1 3.400000e-01    1.510000e+00
  TC1v   TX3  1 3.400000e-01    1.510000e+00
  TX4v   TX3  1 3.400000e-01    1.770000e+00
   TX3  TX3v  1 3.400000e-01    1.770000e+00
   TX3  TX1v  1 3.400000e-01    2.020000e+00
   TX3  TX2v  1 3.400000e-01    2.020000e+00
  TC6e   TX3  1 3.400000e-01    1.770000e+00
  TC5e   TX3  1 3.400000e-01    1.510000e+00
  TC4e   TX3  1 3.400000e-01    1.510000e+00
  TC3e   TX3  1 3.400000e-01    1.510000e+00
  TC2e   TX3  1 3.400000e-01    1.510000e+00
  TC1e   TX3  1 3.400000e-01    1.510000e+00
  TX4e   TX3  1 3.400000e-01    1.770000e+00
   TX3  TX3e  1 3.400000e-01    1.770000e+00
   TX3  TX1e  1 3.400000e-01    2.020000e+00
   TX3  TX2e  1 3.400000e-01    2.020000e+00
  TP6q   TX3  1 3.400000e-01    1.510000e+00
  TP5q   TX3  1 3.400000e-01    1.510000e+00
  TP4q   TX3  1 3.400000e-01    1.510000e+00
  TP3q   TX3  1 3.400000e-01    1.770000e+00
  TP2q   TX3  1 3.400000e-01    1.770000e+00
  TP1q   TX3  1 3.400000e-01    1.770000e+00
  TN6q   TX3  1 3.400000e-01    1.770000e+00
  TN5q   TX3  1 3.400000e-01    2.020000e+00
  TN4q   TX3  1 3.400000e-01    2.280000e+00
  TN3q   TX3  1 3.400000e-01    2.020000e+00
  TN2q   TX3  1 3.400000e-01    2.020000e+00
  TN1q   TX3  1 3.400000e-01    2.020000e+00
  TC6q   TX3  1 3.400000e-01    2.020000e+00
  TC5q   TX3  1 3.400000e-01    1.770000e+00
  TC4q   TX3  1 3.400000e-01    1.770000e+00
  TC3q   TX3  1 3.400000e-01    1.770000e+00
  TC2q   TX3  1 3.400000e-01    1.770000e+00
  TC1q   TX3  1 3.400000e-01    1.770000e+00
  TX4q   TX3  1 3.400000e-01    2.020000e+00
   TX3  TX3q  1 3.400000e-01    2.020000e+00
   TX3 TX1eq  1 3.400000e-01    2.500000e+00
   TX3 TX2eq  1 3.400000e-01    2.500000e+00
   TX3 TX3eq  1 3.400000e-01    2.280000e+00
 TX4eq   TX3  1 3.400000e-01    2.280000e+00
 TC1eq   TX3  1 3.400000e-01    2.020000e+00
 TC2eq   TX3  1 3.400000e-01    2.020000e+00
 TC3eq   TX3  1 3.400000e-01    2.020000e+00
 TC4eq   TX3  1 3.400000e-01    2.020000e+00
 TC5eq   TX3  1 3.400000e-01    2.020000e+00
 TC6eq   TX3  1 3.400000e-01    2.280000e+00
   TX3 TX1vq  1 3.400000e-01    2.500000e+00
   TX3 TX2vq  1 3.400000e-01    2.500000e+00
   TX3 TX3vq  1 3.400000e-01    2.280000e+00
 TX4vq   TX3  1 3.400000e-01    2.280000e+00
 TC1vq   TX3  1 3.400000e-01    2.020000e+00
 TC2vq   TX3  1 3.400000e-01    2.020000e+00
 TC3vq   TX3  1 3.400000e-01    2.020000e+00
 TC4vq   TX3  1 3.400000e-01    2.020000e+00
 TC5vq   TX3  1 3.400000e-01    2.020000e+00
 TC6vq   TX3  1 3.400000e-01    2.280000e+00
 TN1aq   TX3  1 3.400000e-01    2.020000e+00
 TN2aq   TX3  1 3.400000e-01    2.020000e+00
 TN3aq   TX3  1 3.400000e-01    2.020000e+00
 TN4aq   TX3  1 3.400000e-01    2.280000e+00
 TN5aq   TX3  1 3.400000e-01    2.020000e+00
 TN6aq   TX3  1 3.400000e-01    1.770000e+00
 TP1aq   TX3  1 3.400000e-01    1.770000e+00
 TP2aq   TX3  1 3.400000e-01    1.770000e+00
 TP3aq   TX3  1 3.400000e-01    1.770000e+00
 TP4aq   TX3  1 3.400000e-01    1.510000e+00
 TP5aq   TX3  1 3.400000e-01    1.510000e+00
 TP6aq   TX3  1 3.400000e-01    1.510000e+00
 TN1dq   TX3  1 3.400000e-01    2.020000e+00
 TN2dq   TX3  1 3.400000e-01    2.020000e+00
 TN3dq   TX3  1 3.400000e-01    2.020000e+00
 TN4dq   TX3  1 3.400000e-01    2.280000e+00
 TN5dq   TX3  1 3.400000e-01    2.020000e+00
 TN6dq   TX3  1 3.400000e-01    1.770000e+00
 TP1dq   TX3  1 3.400000e-01    1.770000e+00
 TP2dq   TX3  1 3.400000e-01    1.770000e+00
 TP3dq   TX3  1 3.400000e-01    1.770000e+00
 TP4dq   TX3  1 3.400000e-01    1.510000e+00
 TP5dq   TX3  1 3.400000e-01    1.510000e+00
 TP6dq   TX3  1 3.400000e-01    1.510000e+00
   TX3  TX1q  1 3.400000e-01    2.280000e+00
   TX3  TX2q  1 3.400000e-01    2.280000e+00
  TP6h   TX3  1 3.520000e-01    1.050000e+00
  TP5h   TX3  1 3.520000e-01    1.050000e+00
  TP4h   TX3  1 3.520000e-01    1.050000e+00
  TP3h   TX3  1 3.400000e-01    1.230000e+00
  TP2h   TX3  1 3.400000e-01    1.230000e+00
  TP1h   TX3  1 3.400000e-01    1.230000e+00
  TN6h   TX3  1 3.400000e-01    1.230000e+00
  TN5h   TX3  1 3.400000e-01    1.510000e+00
  TN4h   TX3  1 3.400000e-01    1.770000e+00
  TN3h   TX3  1 3.400000e-01    1.510000e+00
  TN2h   TX3  1 3.400000e-01    1.510000e+00
  TN1h   TX3  1 3.400000e-01    1.510000e+00
  TC6h   TX3  1 3.400000e-01    1.510000e+00
  TC5h   TX3  1 3.400000e-01    1.230000e+00
  TC4h   TX3  1 3.400000e-01    1.230000e+00
  TC3h   TX3  1 3.400000e-01    1.230000e+00
  TC2h   TX3  1 3.400000e-01    1.230000e+00
  TC1h   TX3  1 3.400000e-01    1.230000e+00
  TX4h   TX3  1 3.400000e-01    1.510000e+00
   TX3  TX3h  1 3.400000e-01    1.510000e+00
   TX3 TX1eh  1 3.400000e-01    2.020000e+00
   TX3 TX2eh  1 3.400000e-01    2.020000e+00
   TX3 TX3eh  1 3.400000e-01    1.770000e+00
 TX4eh   TX3  1 3.400000e-01    1.770000e+00
 TC1eh   TX3  1 3.400000e-01    1.510000e+00
 TC2eh   TX3  1 3.400000e-01    1.510000e+00
 TC3eh   TX3  1 3.400000e-01    1.510000e+00
 TC4eh   TX3  1 3.400000e-01    1.510000e+00
 TC5eh   TX3  1 3.400000e-01    1.510000e+00
 TC6eh   TX3  1 3.400000e-01    1.770000e+00
   TX3 TX1vh  1 3.400000e-01    2.020000e+00
   TX3 TX2vh  1 3.400000e-01    2.020000e+00
   TX3 TX3vh  1 3.400000e-01    1.770000e+00
 TX4vh   TX3  1 3.400000e-01    1.770000e+00
 TC1vh   TX3  1 3.400000e-01    1.510000e+00
 TC2vh   TX3  1 3.400000e-01    1.510000e+00
 TC3vh   TX3  1 3.400000e-01    1.510000e+00
 TC4vh   TX3  1 3.400000e-01    1.510000e+00
 TC5vh   TX3  1 3.400000e-01    1.510000e+00
 TC6vh   TX3  1 3.400000e-01    1.770000e+00
 TN1ah   TX3  1 3.400000e-01    1.510000e+00
 TN2ah   TX3  1 3.400000e-01    1.510000e+00
 TN3ah   TX3  1 3.400000e-01    1.510000e+00
 TN4ah   TX3  1 3.400000e-01    1.770000e+00
 TN5ah   TX3  1 3.400000e-01    1.510000e+00
 TN6ah   TX3  1 3.400000e-01    1.230000e+00
 TP1ah   TX3  1 3.400000e-01    1.230000e+00
 TP2ah   TX3  1 3.400000e-01    1.230000e+00
 TP3ah   TX3  1 3.400000e-01    1.230000e+00
 TP4ah   TX3  1 3.520000e-01    1.050000e+00
 TP5ah   TX3  1 3.520000e-01    1.050000e+00
 TP6ah   TX3  1 3.520000e-01    1.050000e+00
 TN1dh   TX3  1 3.400000e-01    1.510000e+00
 TN2dh   TX3  1 3.400000e-01    1.510000e+00
 TN3dh   TX3  1 3.400000e-01    1.510000e+00
 TN4dh   TX3  1 3.400000e-01    1.770000e+00
 TN5dh   TX3  1 3.400000e-01    1.510000e+00
 TN6dh   TX3  1 3.400000e-01    1.230000e+00
 TP1dh   TX3  1 3.400000e-01    1.230000e+00
 TP2dh   TX3  1 3.400000e-01    1.230000e+00
 TP3dh   TX3  1 3.400000e-01    1.230000e+00
 TP4dh   TX3  1 3.520000e-01    1.050000e+00
 TP5dh   TX3  1 3.520000e-01    1.050000e+00
 TP6dh   TX3  1 3.520000e-01    1.050000e+00
   TX3  TX1h  1 3.400000e-01    1.770000e+00
   TX3  TX2h  1 3.400000e-01    1.770000e+00
  TP6r   TX3  1 3.520000e-01    1.050000e+00
  TP5r   TX3  1 3.520000e-01    1.050000e+00
  TP4r   TX3  1 3.520000e-01    1.050000e+00
  TP3r   TX3  1 3.400000e-01    1.230000e+00
  TP2r   TX3  1 3.400000e-01    1.230000e+00
  TP1r   TX3  1 3.400000e-01    1.230000e+00
  TN6r   TX3  1 3.400000e-01    1.230000e+00
  TN5r   TX3  1 3.400000e-01    1.510000e+00
  TN4r   TX3  1 3.400000e-01    1.770000e+00
  TN3r   TX3  1 3.400000e-01    1.510000e+00
  TN2r   TX3  1 3.400000e-01    1.510000e+00
  TN1r   TX3  1 3.400000e-01    1.510000e+00
  TC6r   TX3  1 3.400000e-01    1.510000e+00
  TC5r   TX3  1 3.400000e-01    1.230000e+00
  TC4r   TX3  1 3.400000e-01    1.230000e+00
  TC3r   TX3  1 3.400000e-01    1.230000e+00
  TC2r   TX3  1 3.400000e-01    1.230000e+00
  TC1r   TX3  1 3.400000e-01    1.230000e+00
  TX4r   TX3  1 3.400000e-01    1.510000e+00
   TX3  TX3r  1 3.400000e-01    1.510000e+00
   TX3 TX1er  1 3.400000e-01    2.020000e+00
   TX3 TX2er  1 3.400000e-01    2.020000e+00
   TX3 TX3er  1 3.400000e-01    1.770000e+00
 TX4er   TX3  1 3.400000e-01    1.770000e+00
 TC1er   TX3  1 3.400000e-01    1.510000e+00
 TC2er   TX3  1 3.400000e-01    1.510000e+00
 TC3er   TX3  1 3.400000e-01    1.510000e+00
 TC4er   TX3  1 3.400000e-01    1.510000e+00
 TC5er   TX3  1 3.400000e-01    1.510000e+00
 TC6er   TX3  1 3.400000e-01    1.770000e+00
   TX3 TX1vr  1 3.400000e-01    2.020000e+00
   TX3 TX2vr  1 3.400000e-01    2.020000e+00
   TX3 TX3vr  1 3.400000e-01    1.770000e+00
 TX4vr   TX3  1 3.400000e-01    1.770000e+00
 TC1vr   TX3  1 3.400000e-01    1.510000e+00
 TC2vr   TX3  1 3.400000e-01    1.510000e+00
 TC3vr   TX3  1 3.400000e-01    1.510000e+00
 TC4vr   TX3  1 3.400000e-01    1.510000e+00
 TC5vr   TX3  1 3.400000e-01    1.510000e+00
 TC6vr   TX3  1 3.400000e-01    1.770000e+00
 TN1ar   TX3  1 3.400000e-01    1.510000e+00
 TN2ar   TX3  1 3.400000e-01    1.510000e+00
 TN3ar   TX3  1 3.400000e-01    1.510000e+00
 TN4ar   TX3  1 3.400000e-01    1.770000e+00
 TN5ar   TX3  1 3.400000e-01    1.510000e+00
 TN6ar   TX3  1 3.400000e-01    1.230000e+00
 TP1ar   TX3  1 3.400000e-01    1.230000e+00
 TP2ar   TX3  1 3.400000e-01    1.230000e+00
 TP3ar   TX3  1 3.400000e-01    1.230000e+00
 TP4ar   TX3  1 3.520000e-01    1.050000e+00
 TP5ar   TX3  1 3.520000e-01    1.050000e+00
 TP6ar   TX3  1 3.520000e-01    1.050000e+00
 TN1dr   TX3  1 3.400000e-01    1.510000e+00
 TN2dr   TX3  1 3.400000e-01    1.510000e+00
 TN3dr   TX3  1 3.400000e-01    1.510000e+00
 TN4dr   TX3  1 3.400000e-01    1.770000e+00
 TN5dr   TX3  1 3.400000e-01    1.510000e+00
 TN6dr   TX3  1 3.400000e-01    1.230000e+00
 TP1dr   TX3  1 3.400000e-01    1.230000e+00
 TP2dr   TX3  1 3.400000e-01    1.230000e+00
 TP3dr   TX3  1 3.400000e-01    1.230000e+00
 TP4dr   TX3  1 3.520000e-01    1.050000e+00
 TP5dr   TX3  1 3.520000e-01    1.050000e+00
 TP6dr   TX3  1 3.520000e-01    1.050000e+00
   TX3  TX1r  1 3.400000e-01    1.770000e+00
   TX3  TX2r  1 3.400000e-01    1.770000e+00
  SP6d   TX3  1 3.660000e-01    1.600000e+00
  SP5d   TX3  1 3.660000e-01    1.600000e+00
  SP4d   TX3  1 3.660000e-01    1.600000e+00
  SP3d   TX3  1 3.650000e-01    1.750000e+00
  SP2d   TX3  1 3.650000e-01    1.750000e+00
  SP1d   TX3  1 3.650000e-01    1.750000e+00
  SN6d   TX3  1 3.650000e-01    1.750000e+00
  SN5d   TX3  1 3.650000e-01    1.910000e+00
  SN4d   TX3  1 3.650000e-01    2.110000e+00
  SN3d   TX3  1 3.650000e-01    1.910000e+00
  SN2d   TX3  1 3.650000e-01    1.910000e+00
  SN1d   TX3  1 3.650000e-01    1.910000e+00
  SP6a   TX3  1 3.660000e-01    1.600000e+00
  SP5a   TX3  1 3.660000e-01    1.600000e+00
  SP4a   TX3  1 3.660000e-01    1.600000e+00
  SP3a   TX3  1 3.650000e-01    1.750000e+00
  SP2a   TX3  1 3.650000e-01    1.750000e+00
  SP1a   TX3  1 3.650000e-01    1.750000e+00
  SN6a   TX3  1 3.650000e-01    1.750000e+00
  SN5a   TX3  1 3.650000e-01    1.910000e+00
  SN4a   TX3  1 3.650000e-01    2.110000e+00
  SN3a   TX3  1 3.650000e-01    1.910000e+00
  SN2a   TX3  1 3.650000e-01    1.910000e+00
  SN1a   TX3  1 3.650000e-01    1.910000e+00
  SC6v   TX3  1 3.650000e-01    2.110000e+00
  SC5v   TX3  1 3.650000e-01    1.910000e+00
  SC4v   TX3  1 3.650000e-01    1.910000e+00
  SC3v   TX3  1 3.650000e-01    1.910000e+00
  SC2v   TX3  1 3.650000e-01    1.910000e+00
  SC1v   TX3  1 3.650000e-01    1.910000e+00
  SX4v   TX3  1 3.650000e-01    2.110000e+00
  SC6e   TX3  1 3.650000e-01    2.110000e+00
  SC5e   TX3  1 3.650000e-01    1.910000e+00
  SC4e   TX3  1 3.650000e-01    1.910000e+00
  SC3e   TX3  1 3.650000e-01    1.910000e+00
  SC2e   TX3  1 3.650000e-01    1.910000e+00
  SC1e   TX3  1 3.650000e-01    1.910000e+00
  SX4e   TX3  1 3.650000e-01    2.110000e+00
  SP6q   TX3  1 3.650000e-01    1.910000e+00
  SP5q   TX3  1 3.650000e-01    1.910000e+00
  SP4q   TX3  1 3.650000e-01    1.910000e+00
  SP3q   TX3  1 3.650000e-01    2.110000e+00
  SP2q   TX3  1 3.650000e-01    2.110000e+00
  SP1q   TX3  1 3.650000e-01    2.110000e+00
  SN6q   TX3  1 3.650000e-01    2.110000e+00
  SN5q   TX3  1 3.650000e-01    2.340000e+00
  SN4q   TX3  1 3.650000e-01    2.570000e+00
  SN3q   TX3  1 3.650000e-01    2.340000e+00
  SN2q   TX3  1 3.650000e-01    2.340000e+00
  SN1q   TX3  1 3.650000e-01    2.340000e+00
  SC6q   TX3  1 3.650000e-01    2.340000e+00
  SC5q   TX3  1 3.650000e-01    2.110000e+00
  SC4q   TX3  1 3.650000e-01    2.110000e+00
  SC3q   TX3  1 3.650000e-01    2.110000e+00
  SC2q   TX3  1 3.650000e-01    2.110000e+00
  SC1q   TX3  1 3.650000e-01    2.110000e+00
  SX4q   TX3  1 3.650000e-01    2.340000e+00
 SX4eq   TX3  1 3.650000e-01    2.570000e+00
 SC1eq   TX3  1 3.650000e-01    2.340000e+00
 SC2eq   TX3  1 3.650000e-01    2.340000e+00
 SC3eq   TX3  1 3.650000e-01    2.340000e+00
 SC4eq   TX3  1 3.650000e-01    2.340000e+00
 SC5eq   TX3  1 3.650000e-01    2.340000e+00
 SC6eq   TX3  1 3.650000e-01    2.570000e+00
 SX4vq   TX3  1 3.650000e-01    2.570000e+00
 SC1vq   TX3  1 3.650000e-01    2.340000e+00
 SC2vq   TX3  1 3.650000e-01    2.340000e+00
 SC3vq   TX3  1 3.650000e-01    2.340000e+00
 SC4vq   TX3  1 3.650000e-01    2.340000e+00
 SC5vq   TX3  1 3.650000e-01    2.340000e+00
 SC6vq   TX3  1 3.650000e-01    2.570000e+00
 SN1aq   TX3  1 3.650000e-01    2.340000e+00
 SN2aq   TX3  1 3.650000e-01    2.340000e+00
 SN3aq   TX3  1 3.650000e-01    2.340000e+00
 SN4aq   TX3  1 3.650000e-01    2.570000e+00
 SN5aq   TX3  1 3.650000e-01    2.340000e+00
 SN6aq   TX3  1 3.650000e-01    2.110000e+00
 SP1aq   TX3  1 3.650000e-01    2.110000e+00
 SP2aq   TX3  1 3.650000e-01    2.110000e+00
 SP3aq   TX3  1 3.650000e-01    2.110000e+00
 SP4aq   TX3  1 3.650000e-01    1.910000e+00
 SP5aq   TX3  1 3.650000e-01    1.910000e+00
 SP6aq   TX3  1 3.650000e-01    1.910000e+00
 SN1dq   TX3  1 3.650000e-01    2.340000e+00
 SN2dq   TX3  1 3.650000e-01    2.340000e+00
 SN3dq   TX3  1 3.650000e-01    2.340000e+00
 SN4dq   TX3  1 3.650000e-01    2.570000e+00
 SN5dq   TX3  1 3.650000e-01    2.340000e+00
 SN6dq   TX3  1 3.650000e-01    2.110000e+00
 SP1dq   TX3  1 3.650000e-01    2.110000e+00
 SP2dq   TX3  1 3.650000e-01    2.110000e+00
 SP3dq   TX3  1 3.650000e-01    2.110000e+00
 SP4dq   TX3  1 3.650000e-01    1.910000e+00
 SP5dq   TX3  1 3.650000e-01    1.910000e+00
 SP6dq   TX3  1 3.650000e-01    1.910000e+00
  SP6h   TX3  1 3.660000e-01    1.600000e+00
  SP5h   TX3  1 3.660000e-01    1.600000e+00
  SP4h   TX3  1 3.660000e-01    1.600000e+00
  SP3h   TX3  1 3.650000e-01    1.750000e+00
  SP2h   TX3  1 3.650000e-01    1.750000e+00
  SP1h   TX3  1 3.650000e-01    1.750000e+00
  SN6h   TX3  1 3.650000e-01    1.750000e+00
  SN5h   TX3  1 3.650000e-01    1.910000e+00
  SN4h   TX3  1 3.650000e-01    2.110000e+00
  SN3h   TX3  1 3.650000e-01    1.910000e+00
  SN2h   TX3  1 3.650000e-01    1.910000e+00
  SN1h   TX3  1 3.650000e-01    1.910000e+00
  SC6h   TX3  1 3.650000e-01    1.910000e+00
  SC5h   TX3  1 3.650000e-01    1.750000e+00
  SC4h   TX3  1 3.650000e-01    1.750000e+00
  SC3h   TX3  1 3.650000e-01    1.750000e+00
  SC2h   TX3  1 3.650000e-01    1.750000e+00
  SC1h   TX3  1 3.650000e-01    1.750000e+00
  SX4h   TX3  1 3.650000e-01    1.910000e+00
 SX4eh   TX3  1 3.650000e-01    2.110000e+00
 SC1eh   TX3  1 3.650000e-01    1.910000e+00
 SC2eh   TX3  1 3.650000e-01    1.910000e+00
 SC3eh   TX3  1 3.650000e-01    1.910000e+00
 SC4eh   TX3  1 3.650000e-01    1.910000e+00
 SC5eh   TX3  1 3.650000e-01    1.910000e+00
 SC6eh   TX3  1 3.650000e-01    2.110000e+00
 SX4vh   TX3  1 3.650000e-01    2.110000e+00
 SC1vh   TX3  1 3.650000e-01    1.910000e+00
 SC2vh   TX3  1 3.650000e-01    1.910000e+00
 SC3vh   TX3  1 3.650000e-01    1.910000e+00
 SC4vh   TX3  1 3.650000e-01    1.910000e+00
 SC5vh   TX3  1 3.650000e-01    1.910000e+00
 SC6vh   TX3  1 3.650000e-01    2.110000e+00
 SN1ah   TX3  1 3.650000e-01    1.910000e+00
 SN2ah   TX3  1 3.650000e-01    1.910000e+00
 SN3ah   TX3  1 3.650000e-01    1.910000e+00
 SN4ah   TX3  1 3.650000e-01    2.110000e+00
 SN5ah   TX3  1 3.650000e-01    1.910000e+00
 SN6ah   TX3  1 3.650000e-01    1.750000e+00
 SP1ah   TX3  1 3.650000e-01    1.750000e+00
 SP2ah   TX3  1 3.650000e-01    1.750000e+00
 SP3ah   TX3  1 3.650000e-01    1.750000e+00
 SP4ah   TX3  1 3.660000e-01    1.600000e+00
 SP5ah   TX3  1 3.660000e-01    1.600000e+00
 SP6ah   TX3  1 3.660000e-01    1.600000e+00
 SN1dh   TX3  1 3.650000e-01    1.910000e+00
 SN2dh   TX3  1 3.650000e-01    1.910000e+00
 SN3dh   TX3  1 3.650000e-01    1.910000e+00
 SN4dh   TX3  1 3.650000e-01    2.110000e+00
 SN5dh   TX3  1 3.650000e-01    1.910000e+00
 SN6dh   TX3  1 3.650000e-01    1.750000e+00
 SP1dh   TX3  1 3.650000e-01    1.750000e+00
 SP2dh   TX3  1 3.650000e-01    1.750000e+00
 SP3dh   TX3  1 3.650000e-01    1.750000e+00
 SP4dh   TX3  1 3.660000e-01    1.600000e+00
 SP5dh   TX3  1 3.660000e-01    1.600000e+00
 SP6dh   TX3  1 3.660000e-01    1.600000e+00
  SP6r   TX3  1 3.660000e-01    1.600000e+00
  SP5r   TX3  1 3.660000e-01    1.600000e+00
  SP4r   TX3  1 3.660000e-01    1.600000e+00
  SP3r   TX3  1 3.650000e-01    1.750000e+00
  SP2r   TX3  1 3.650000e-01    1.750000e+00
  SP1r   TX3  1 3.650000e-01    1.750000e+00
  SN6r   TX3  1 3.650000e-01    1.750000e+00
  SN5r   TX3  1 3.650000e-01    1.910000e+00
  SN4r   TX3  1 3.650000e-01    2.110000e+00
  SN3r   TX3  1 3.650000e-01    1.910000e+00
  SN2r   TX3  1 3.650000e-01    1.910000e+00
  SN1r   TX3  1 3.650000e-01    1.910000e+00
  SC6r   TX3  1 3.650000e-01    1.910000e+00
  SC5r   TX3  1 3.650000e-01    1.750000e+00
  SC4r   TX3  1 3.650000e-01    1.750000e+00
  SC3r   TX3  1 3.650000e-01    1.750000e+00
  SC2r   TX3  1 3.650000e-01    1.750000e+00
  SC1r   TX3  1 3.650000e-01    1.750000e+00
  SX4r   TX3  1 3.650000e-01    1.910000e+00
 SX4er   TX3  1 3.650000e-01    2.110000e+00
 SC1er   TX3  1 3.650000e-01    1.910000e+00
 SC2er   TX3  1 3.650000e-01    1.910000e+00
 SC3er   TX3  1 3.650000e-01    1.910000e+00
 SC4er   TX3  1 3.650000e-01    1.910000e+00
 SC5er   TX3  1 3.650000e-01    1.910000e+00
 SC6er   TX3  1 3.650000e-01    2.110000e+00
 SX4vr   TX3  1 3.650000e-01    2.110000e+00
 SC1vr   TX3  1 3.650000e-01    1.910000e+00
 SC2vr   TX3  1 3.650000e-01    1.910000e+00
 SC3vr   TX3  1 3.650000e-01    1.910000e+00
 SC4vr   TX3  1 3.650000e-01    1.910000e+00
 SC5vr   TX3  1 3.650000e-01    1.910000e+00
 SC6vr   TX3  1 3.650000e-01    2.110000e+00
 SN1ar   TX3  1 3.650000e-01    1.910000e+00
 SN2ar   TX3  1 3.650000e-01    1.910000e+00
 SN3ar   TX3  1 3.650000e-01    1.910000e+00
 SN4ar   TX3  1 3.650000e-01    2.110000e+00
 SN5ar   TX3  1 3.650000e-01    1.910000e+00
 SN6ar   TX3  1 3.650000e-01    1.750000e+00
 SP1ar   TX3  1 3.650000e-01    1.750000e+00
 SP2ar   TX3  1 3.650000e-01    1.750000e+00
 SP3ar   TX3  1 3.650000e-01    1.750000e+00
 SP4ar   TX3  1 3.660000e-01    1.600000e+00
 SP5ar   TX3  1 3.660000e-01    1.600000e+00
 SP6ar   TX3  1 3.660000e-01    1.600000e+00
 SN1dr   TX3  1 3.650000e-01    1.910000e+00
 SN2dr   TX3  1 3.650000e-01    1.910000e+00
 SN3dr   TX3  1 3.650000e-01    1.910000e+00
 SN4dr   TX3  1 3.650000e-01    2.110000e+00
 SN5dr   TX3  1 3.650000e-01    1.910000e+00
 SN6dr   TX3  1 3.650000e-01    1.750000e+00
 SP1dr   TX3  1 3.650000e-01    1.750000e+00
 SP2dr   TX3  1 3.650000e-01    1.750000e+00
 SP3dr   TX3  1 3.650000e-01    1.750000e+00
 SP4dr   TX3  1 3.660000e-01    1.600000e+00
 SP5dr   TX3  1 3.660000e-01    1.600000e+00
 SP6dr   TX3  1 3.660000e-01    1.600000e+00
   TX3   SX2  1 3.650000e-01    2.110000e+00
   TX3   SX1  1 3.650000e-01    2.110000e+00
   TX3  SX3v  1 3.650000e-01    2.110000e+00
   TX3  SX1v  1 3.650000e-01    2.340000e+00
   TX3  SX2v  1 3.650000e-01    2.340000e+00
   TX3  SX3e  1 3.650000e-01    2.110000e+00
   TX3  SX1e  1 3.650000e-01    2.340000e+00
   TX3  SX2e  1 3.650000e-01    2.340000e+00
   TX3  SX3q  1 3.650000e-01    2.340000e+00
   TX3 SX1eq  1 3.650000e-01    2.830000e+00
   TX3 SX2eq  1 3.650000e-01    2.830000e+00
   TX3 SX3eq  1 3.650000e-01    2.570000e+00
   TX3 SX1vq  1 3.650000e-01    2.830000e+00
   TX3 SX2vq  1 3.650000e-01    2.830000e+00
   TX3 SX3vq  1 3.650000e-01    2.570000e+00
   TX3  SX1q  1 3.650000e-01    2.570000e+00
   TX3  SX2q  1 3.650000e-01    2.570000e+00
   TX3  SX3h  1 3.650000e-01    1.910000e+00
   TX3 SX1eh  1 3.650000e-01    2.340000e+00
   TX3 SX2eh  1 3.650000e-01    2.340000e+00
   TX3 SX3eh  1 3.650000e-01    2.110000e+00
   TX3 SX1vh  1 3.650000e-01    2.340000e+00
   TX3 SX2vh  1 3.650000e-01    2.340000e+00
   TX3 SX3vh  1 3.650000e-01    2.110000e+00
   TX3  SX1h  1 3.650000e-01    2.110000e+00
   TX3  SX2h  1 3.650000e-01    2.110000e+00
   TX3  SX3r  1 3.650000e-01    1.910000e+00
   TX3 SX1er  1 3.650000e-01    2.340000e+00
   TX3 SX2er  1 3.650000e-01    2.340000e+00
   TX3 SX3er  1 3.650000e-01    2.110000e+00
   TX3 SX1vr  1 3.650000e-01    2.340000e+00
   TX3 SX2vr  1 3.650000e-01    2.340000e+00
   TX3 SX3vr  1 3.650000e-01    2.110000e+00
   TX3  SX1r  1 3.650000e-01    2.110000e+00
   TX3  SX2r  1 3.650000e-01    2.110000e+00
    X2    X2  1 4.700000e-01    3.520000e+00
    X2    X1  1 4.700000e-01    3.520000e+00
   P6d    X2  1 4.700000e-01    2.960000e+00
   P5d    X2  1 4.700000e-01    3.070000e+00
   P4d    X2  1 4.700000e-01    3.070000e+00
   P3d    X2  1 4.700000e-01    3.070000e+00
   P2d    X2  1 4.700000e-01    3.070000e+00
   P1d    X2  1 4.700000e-01    3.070000e+00
   N6d    X2  1 4.700000e-01    3.070000e+00
   N5d    X2  1 4.700000e-01    3.240000e+00
   N4d    X2  1 4.700000e-01    3.240000e+00
   N3d    X2  1 4.700000e-01    3.240000e+00
   N2d    X2  1 4.700000e-01    3.240000e+00
   N1d    X2  1 4.700000e-01    3.240000e+00
   P6a    X2  1 4.700000e-01    2.960000e+00
   P5a    X2  1 4.700000e-01    3.070000e+00
   P4a    X2  1 4.700000e-01    3.070000e+00
   P3a    X2  1 4.700000e-01    3.070000e+00
   P2a    X2  1 4.700000e-01    3.070000e+00
   P1a    X2  1 4.700000e-01    3.070000e+00
   N6a    X2  1 4.700000e-01    3.070000e+00
   N5a    X2  1 4.700000e-01    3.240000e+00
   N4a    X2  1 4.700000e-01    3.240000e+00
   N3a    X2  1 4.700000e-01    3.240000e+00
   N2a    X2  1 4.700000e-01    3.240000e+00
   N1a    X2  1 4.700000e-01    3.240000e+00
   C6v    X2  1 4.700000e-01    3.520000e+00
   C5v    X2  1 4.700000e-01    3.390000e+00
   C4v    X2  1 4.700000e-01    3.390000e+00
   C3v    X2  1 4.700000e-01    3.390000e+00
   C2v    X2  1 4.700000e-01    3.390000e+00
   C1v    X2  1 4.700000e-01    3.390000e+00
   X4v    X2  1 4.700000e-01    3.520000e+00
   X3v    X2  1 4.700000e-01    3.690000e+00
    X2   X2v  1 4.700000e-01    3.690000e+00
    X2   X1v  1 4.700000e-01    3.690000e+00
   C6e    X2  1 4.700000e-01    3.520000e+00
   C5e    X2  1 4.700000e-01    3.390000e+00
   C4e    X2  1 4.700000e-01    3.390000e+00
   C3e    X2  1 4.700000e-01    3.390000e+00
   C2e    X2  1 4.700000e-01    3.390000e+00
   C1e    X2  1 4.700000e-01    3.390000e+00
   X4e    X2  1 4.700000e-01    3.520000e+00
   X3e    X2  1 4.700000e-01    3.690000e+00
    X2   X2e  1 4.700000e-01    3.690000e+00
    X2   X1e  1 4.700000e-01    3.690000e+00
   P6q    X2  1 4.700000e-01    3.240000e+00
   P5q    X2  1 4.700000e-01    3.390000e+00
   P4q    X2  1 4.700000e-01    3.390000e+00
   P3q    X2  1 4.700000e-01    3.390000e+00
   P2q    X2  1 4.700000e-01    3.390000e+00
   P1q    X2  1 4.700000e-01    3.390000e+00
   N6q    X2  1 4.700000e-01    3.390000e+00
   N5q    X2  1 4.700000e-01    3.520000e+00
   N4q    X2  1 4.700000e-01    3.520000e+00
   N3q    X2  1 4.700000e-01    3.520000e+00
   N2q    X2  1 4.700000e-01    3.520000e+00
   N1q    X2  1 4.700000e-01    3.520000e+00
   C6q    X2  1 4.700000e-01    3.690000e+00
   C5q    X2  1 4.700000e-01    3.520000e+00
   C4q    X2  1 4.700000e-01    3.520000e+00
   C3q    X2  1 4.700000e-01    3.520000e+00
   C2q    X2  1 4.700000e-01    3.520000e+00
   C1q    X2  1 4.700000e-01    3.520000e+00
   X4q    X2  1 4.700000e-01    3.690000e+00
   X3q    X2  1 4.700000e-01    3.880000e+00
    X2   X2q  1 4.700000e-01    3.880000e+00
    X2  X1eq  1 4.700000e-01    4.060000e+00
    X2  X2eq  1 4.700000e-01    4.060000e+00
  X3eq    X2  1 4.700000e-01    4.060000e+00
  X4eq    X2  1 4.700000e-01    3.880000e+00
  C1eq    X2  1 4.700000e-01    3.690000e+00
  C2eq    X2  1 4.700000e-01    3.690000e+00
  C3eq    X2  1 4.700000e-01    3.690000e+00
  C4eq    X2  1 4.700000e-01    3.690000e+00
  C5eq    X2  1 4.700000e-01    3.690000e+00
  C6eq    X2  1 4.700000e-01    3.880000e+00
    X2  X1vq  1 4.700000e-01    4.060000e+00
    X2  X2vq  1 4.700000e-01    4.060000e+00
  X3vq    X2  1 4.700000e-01    4.060000e+00
  X4vq    X2  1 4.700000e-01    3.880000e+00
  C1vq    X2  1 4.700000e-01    3.690000e+00
  C2vq    X2  1 4.700000e-01    3.690000e+00
  C3vq    X2  1 4.700000e-01    3.690000e+00
  C4vq    X2  1 4.700000e-01    3.690000e+00
  C5vq    X2  1 4.700000e-01    3.690000e+00
  C6vq    X2  1 4.700000e-01    3.880000e+00
  N1aq    X2  1 4.700000e-01    3.520000e+00
  N2aq    X2  1 4.700000e-01    3.520000e+00
  N3aq    X2  1 4.700000e-01    3.520000e+00
  N4aq    X2  1 4.700000e-01    3.520000e+00
  N5aq    X2  1 4.700000e-01    3.520000e+00
  N6aq    X2  1 4.700000e-01    3.390000e+00
  P1aq    X2  1 4.700000e-01    3.390000e+00
  P2aq    X2  1 4.700000e-01    3.390000e+00
  P3aq    X2  1 4.700000e-01    3.390000e+00
  P4aq    X2  1 4.700000e-01    3.390000e+00
  P5aq    X2  1 4.700000e-01    3.390000e+00
  P6aq    X2  1 4.700000e-01    3.240000e+00
  N1dq    X2  1 4.700000e-01    3.520000e+00
  N2dq    X2  1 4.700000e-01    3.520000e+00
  N3dq    X2  1 4.700000e-01    3.520000e+00
  N4dq    X2  1 4.700000e-01    3.520000e+00
  N5dq    X2  1 4.700000e-01    3.520000e+00
  N6dq    X2  1 4.700000e-01    3.390000e+00
  P1dq    X2  1 4.700000e-01    3.390000e+00
  P2dq    X2  1 4.700000e-01    3.390000e+00
  P3dq    X2  1 4.700000e-01    3.390000e+00
  P4dq    X2  1 4.700000e-01    3.390000e+00
  P5dq    X2  1 4.700000e-01    3.390000e+00
  P6dq    X2  1 4.700000e-01    3.240000e+00
    X2   X1q  1 4.700000e-01    3.880000e+00
   P6h    X2  1 4.700000e-01    2.960000e+00
   P5h    X2  1 4.700000e-01    3.070000e+00
   P4h    X2  1 4.700000e-01    3.070000e+00
   P3h    X2  1 4.700000e-01    3.070000e+00
   P2h    X2  1 4.700000e-01    3.070000e+00
   P1h    X2  1 4.700000e-01    3.070000e+00
   N6h    X2  1 4.700000e-01    3.070000e+00
   N5h    X2  1 4.700000e-01    3.240000e+00
   N4h    X2  1 4.700000e-01    3.240000e+00
   N3h    X2  1 4.700000e-01    3.240000e+00
   N2h    X2  1 4.700000e-01    3.240000e+00
   N1h    X2  1 4.700000e-01    3.240000e+00
   C6h    X2  1 4.700000e-01    3.390000e+00
   C5h    X2  1 4.700000e-01    3.240000e+00
   C4h    X2  1 4.700000e-01    3.240000e+00
   C3h    X2  1 4.700000e-01    3.240000e+00
   C2h    X2  1 4.700000e-01    3.240000e+00
   C1h    X2  1 4.700000e-01    3.240000e+00
   X4h    X2  1 4.700000e-01    3.390000e+00
   X3h    X2  1 4.700000e-01    3.520000e+00
    X2   X2h  1 4.700000e-01    3.520000e+00
    X2  X1eh  1 4.700000e-01    3.690000e+00
    X2  X2eh  1 4.700000e-01    3.690000e+00
  X3eh    X2  1 4.700000e-01    3.690000e+00
  X4eh    X2  1 4.700000e-01    3.520000e+00
  C1eh    X2  1 4.700000e-01    3.390000e+00
  C2eh    X2  1 4.700000e-01    3.390000e+00
  C3eh    X2  1 4.700000e-01    3.390000e+00
  C4eh    X2  1 4.700000e-01    3.390000e+00
  C5eh    X2  1 4.700000e-01    3.390000e+00
  C6eh    X2  1 4.700000e-01    3.520000e+00
    X2  X1vh  1 4.700000e-01    3.690000e+00
    X2  X2vh  1 4.700000e-01    3.690000e+00
  X3vh    X2  1 4.700000e-01    3.690000e+00
  X4vh    X2  1 4.700000e-01    3.520000e+00
  C1vh    X2  1 4.700000e-01    3.390000e+00
  C2vh    X2  1 4.700000e-01    3.390000e+00
  C3vh    X2  1 4.700000e-01    3.390000e+00
  C4vh    X2  1 4.700000e-01    3.390000e+00
  C5vh    X2  1 4.700000e-01    3.390000e+00
  C6vh    X2  1 4.700000e-01    3.520000e+00
  N1ah    X2  1 4.700000e-01    3.240000e+00
  N2ah    X2  1 4.700000e-01    3.240000e+00
  N3ah    X2  1 4.700000e-01    3.240000e+00
  N4ah    X2  1 4.700000e-01    3.240000e+00
  N5ah    X2  1 4.700000e-01    3.240000e+00
  N6ah    X2  1 4.700000e-01    3.070000e+00
  P1ah    X2  1 4.700000e-01    3.070000e+00
  P2ah    X2  1 4.700000e-01    3.070000e+00
  P3ah    X2  1 4.700000e-01    3.070000e+00
  P4ah    X2  1 4.700000e-01    3.070000e+00
  P5ah    X2  1 4.700000e-01    3.070000e+00
  P6ah    X2  1 4.700000e-01    2.960000e+00
  N1dh    X2  1 4.700000e-01    3.240000e+00
  N2dh    X2  1 4.700000e-01    3.240000e+00
  N3dh    X2  1 4.700000e-01    3.240000e+00
  N4dh    X2  1 4.700000e-01    3.240000e+00
  N5dh    X2  1 4.700000e-01    3.240000e+00
  N6dh    X2  1 4.700000e-01    3.070000e+00
  P1dh    X2  1 4.700000e-01    3.070000e+00
  P2dh    X2  1 4.700000e-01    3.070000e+00
  P3dh    X2  1 4.700000e-01    3.070000e+00
  P4dh    X2  1 4.700000e-01    3.070000e+00
  P5dh    X2  1 4.700000e-01    3.070000e+00
  P6dh    X2  1 4.700000e-01    2.960000e+00
    X2   X1h  1 4.700000e-01    3.520000e+00
   P6r    X2  1 4.700000e-01    2.960000e+00
   P5r    X2  1 4.700000e-01    3.070000e+00
   P4r    X2  1 4.700000e-01    3.070000e+00
   P3r    X2  1 4.700000e-01    3.070000e+00
   P2r    X2  1 4.700000e-01    3.070000e+00
   P1r    X2  1 4.700000e-01    3.070000e+00
   N6r    X2  1 4.700000e-01    3.070000e+00
   N5r    X2  1 4.700000e-01    3.240000e+00
   N4r    X2  1 4.700000e-01    3.240000e+00
   N3r    X2  1 4.700000e-01    3.240000e+00
   N2r    X2  1 4.700000e-01    3.240000e+00
   N1r    X2  1 4.700000e-01    3.240000e+00
   C6r    X2  1 4.700000e-01    3.390000e+00
   C5r    X2  1 4.700000e-01    3.240000e+00
   C4r    X2  1 4.700000e-01    3.240000e+00
   C3r    X2  1 4.700000e-01    3.240000e+00
   C2r    X2  1 4.700000e-01    3.240000e+00
   C1r    X2  1 4.700000e-01    3.240000e+00
   X4r    X2  1 4.700000e-01    3.390000e+00
   X3r    X2  1 4.700000e-01    3.520000e+00
    X2   X2r  1 4.700000e-01    3.520000e+00
    X2  X1er  1 4.700000e-01    3.690000e+00
    X2  X2er  1 4.700000e-01    3.690000e+00
  X3er    X2  1 4.700000e-01    3.690000e+00
  X4er    X2  1 4.700000e-01    3.520000e+00
  C1er    X2  1 4.700000e-01    3.390000e+00
  C2er    X2  1 4.700000e-01    3.390000e+00
  C3er    X2  1 4.700000e-01    3.390000e+00
  C4er    X2  1 4.700000e-01    3.390000e+00
  C5er    X2  1 4.700000e-01    3.390000e+00
  C6er    X2  1 4.700000e-01    3.520000e+00
    X2  X1vr  1 4.700000e-01    3.690000e+00
    X2  X2vr  1 4.700000e-01    3.690000e+00
  X3vr    X2  1 4.700000e-01    3.690000e+00
  X4vr    X2  1 4.700000e-01    3.520000e+00
  C1vr    X2  1 4.700000e-01    3.390000e+00
  C2vr    X2  1 4.700000e-01    3.390000e+00
  C3vr    X2  1 4.700000e-01    3.390000e+00
  C4vr    X2  1 4.700000e-01    3.390000e+00
  C5vr    X2  1 4.700000e-01    3.390000e+00
  C6vr    X2  1 4.700000e-01    3.520000e+00
  N1ar    X2  1 4.700000e-01    3.240000e+00
  N2ar    X2  1 4.700000e-01    3.240000e+00
  N3ar    X2  1 4.700000e-01    3.240000e+00
  N4ar    X2  1 4.700000e-01    3.240000e+00
  N5ar    X2  1 4.700000e-01    3.240000e+00
  N6ar    X2  1 4.700000e-01    3.070000e+00
  P1ar    X2  1 4.700000e-01    3.070000e+00
  P2ar    X2  1 4.700000e-01    3.070000e+00
  P3ar    X2  1 4.700000e-01    3.070000e+00
  P4ar    X2  1 4.700000e-01    3.070000e+00
  P5ar    X2  1 4.700000e-01    3.070000e+00
  P6ar    X2  1 4.700000e-01    2.960000e+00
  N1dr    X2  1 4.700000e-01    3.240000e+00
  N2dr    X2  1 4.700000e-01    3.240000e+00
  N3dr    X2  1 4.700000e-01    3.240000e+00
  N4dr    X2  1 4.700000e-01    3.240000e+00
  N5dr    X2  1 4.700000e-01    3.240000e+00
  N6dr    X2  1 4.700000e-01    3.070000e+00
  P1dr    X2  1 4.700000e-01    3.070000e+00
  P2dr    X2  1 4.700000e-01    3.070000e+00
  P3dr    X2  1 4.700000e-01    3.070000e+00
  P4dr    X2  1 4.700000e-01    3.070000e+00
  P5dr    X2  1 4.700000e-01    3.070000e+00
  P6dr    X2  1 4.700000e-01    2.960000e+00
    X2   X1r  1 4.700000e-01    3.520000e+00
    X2   SX2  1 4.300000e-01    3.160000e+00
    X2   SX1  1 4.300000e-01    3.160000e+00
    X2  SX2v  1 4.300000e-01    3.380000e+00
    X2  SX1v  1 4.300000e-01    3.380000e+00
    X2  SX2e  1 4.300000e-01    3.380000e+00
    X2  SX1e  1 4.300000e-01    3.380000e+00
    X2  SX2q  1 4.300000e-01    3.590000e+00
    X2 SX1eq  1 4.300000e-01    3.770000e+00
    X2 SX2eq  1 4.300000e-01    3.770000e+00
    X2 SX1vq  1 4.300000e-01    3.770000e+00
    X2 SX2vq  1 4.300000e-01    3.770000e+00
    X2  SX1q  1 4.300000e-01    3.590000e+00
    X2  SX2h  1 4.300000e-01    3.160000e+00
    X2 SX1eh  1 4.300000e-01    3.380000e+00
    X2 SX2eh  1 4.300000e-01    3.380000e+00
    X2 SX1vh  1 4.300000e-01    3.380000e+00
    X2 SX2vh  1 4.300000e-01    3.380000e+00
    X2  SX1h  1 4.300000e-01    3.160000e+00
    X2  SX2r  1 4.300000e-01    3.160000e+00
    X2 SX1er  1 4.300000e-01    3.380000e+00
    X2 SX2er  1 4.300000e-01    3.380000e+00
    X2 SX1vr  1 4.300000e-01    3.380000e+00
    X2 SX2vr  1 4.300000e-01    3.380000e+00
    X2  SX1r  1 4.300000e-01    3.160000e+00
  SP6d    X2  1 4.300000e-01    2.320000e+00
  SP5d    X2  1 4.300000e-01    2.530000e+00
  SP4d    X2  1 4.300000e-01    2.530000e+00
  SP3d    X2  1 4.300000e-01    2.530000e+00
  SP2d    X2  1 4.300000e-01    2.530000e+00
  SP1d    X2  1 4.300000e-01    2.530000e+00
  SN6d    X2  1 4.300000e-01    2.530000e+00
  SN5d    X2  1 4.300000e-01    2.770000e+00
  SN4d    X2  1 4.300000e-01    2.770000e+00
  SN3d    X2  1 4.300000e-01    2.770000e+00
  SN2d    X2  1 4.300000e-01    2.770000e+00
  SN1d    X2  1 4.300000e-01    2.770000e+00
  SP6a    X2  1 4.300000e-01    2.320000e+00
  SP5a    X2  1 4.300000e-01    2.530000e+00
  SP4a    X2  1 4.300000e-01    2.530000e+00
  SP3a    X2  1 4.300000e-01    2.530000e+00
  SP2a    X2  1 4.300000e-01    2.530000e+00
  SP1a    X2  1 4.300000e-01    2.530000e+00
  SN6a    X2  1 4.300000e-01    2.530000e+00
  SN5a    X2  1 4.300000e-01    2.770000e+00
  SN4a    X2  1 4.300000e-01    2.770000e+00
  SN3a    X2  1 4.300000e-01    2.770000e+00
  SN2a    X2  1 4.300000e-01    2.770000e+00
  SN1a    X2  1 4.300000e-01    2.770000e+00
  SC6v    X2  1 4.300000e-01    3.160000e+00
  SC5v    X2  1 4.300000e-01    2.920000e+00
  SC4v    X2  1 4.300000e-01    2.920000e+00
  SC3v    X2  1 4.300000e-01    2.920000e+00
  SC2v    X2  1 4.300000e-01    2.920000e+00
  SC1v    X2  1 4.300000e-01    2.920000e+00
  SX4v    X2  1 4.300000e-01    3.160000e+00
  SX3v    X2  1 4.300000e-01    3.380000e+00
  SC6e    X2  1 4.300000e-01    3.160000e+00
  SC5e    X2  1 4.300000e-01    2.920000e+00
  SC4e    X2  1 4.300000e-01    2.920000e+00
  SC3e    X2  1 4.300000e-01    2.920000e+00
  SC2e    X2  1 4.300000e-01    2.920000e+00
  SC1e    X2  1 4.300000e-01    2.920000e+00
  SX4e    X2  1 4.300000e-01    3.160000e+00
  SX3e    X2  1 4.300000e-01    3.380000e+00
  SP6q    X2  1 4.300000e-01    2.770000e+00
  SP5q    X2  1 4.300000e-01    2.920000e+00
  SP4q    X2  1 4.300000e-01    2.920000e+00
  SP3q    X2  1 4.300000e-01    2.920000e+00
  SP2q    X2  1 4.300000e-01    2.920000e+00
  SP1q    X2  1 4.300000e-01    2.920000e+00
  SN6q    X2  1 4.300000e-01    2.920000e+00
  SN5q    X2  1 4.300000e-01    3.160000e+00
  SN4q    X2  1 4.300000e-01    3.160000e+00
  SN3q    X2  1 4.300000e-01    3.160000e+00
  SN2q    X2  1 4.300000e-01    3.160000e+00
  SN1q    X2  1 4.300000e-01    3.160000e+00
  SC6q    X2  1 4.300000e-01    3.380000e+00
  SC5q    X2  1 4.300000e-01    3.160000e+00
  SC4q    X2  1 4.300000e-01    3.160000e+00
  SC3q    X2  1 4.300000e-01    3.160000e+00
  SC2q    X2  1 4.300000e-01    3.160000e+00
  SC1q    X2  1 4.300000e-01    3.160000e+00
  SX4q    X2  1 4.300000e-01    3.380000e+00
  SX3q    X2  1 4.300000e-01    3.590000e+00
 SX3eq    X2  1 4.300000e-01    3.770000e+00
 SX4eq    X2  1 4.300000e-01    3.590000e+00
 SC1eq    X2  1 4.300000e-01    3.380000e+00
 SC2eq    X2  1 4.300000e-01    3.380000e+00
 SC3eq    X2  1 4.300000e-01    3.380000e+00
 SC4eq    X2  1 4.300000e-01    3.380000e+00
 SC5eq    X2  1 4.300000e-01    3.380000e+00
 SC6eq    X2  1 4.300000e-01    3.590000e+00
 SX3vq    X2  1 4.300000e-01    3.770000e+00
 SX4vq    X2  1 4.300000e-01    3.590000e+00
 SC1vq    X2  1 4.300000e-01    3.380000e+00
 SC2vq    X2  1 4.300000e-01    3.380000e+00
 SC3vq    X2  1 4.300000e-01    3.380000e+00
 SC4vq    X2  1 4.300000e-01    3.380000e+00
 SC5vq    X2  1 4.300000e-01    3.380000e+00
 SC6vq    X2  1 4.300000e-01    3.590000e+00
 SN1aq    X2  1 4.300000e-01    3.160000e+00
 SN2aq    X2  1 4.300000e-01    3.160000e+00
 SN3aq    X2  1 4.300000e-01    3.160000e+00
 SN4aq    X2  1 4.300000e-01    3.160000e+00
 SN5aq    X2  1 4.300000e-01    3.160000e+00
 SN6aq    X2  1 4.300000e-01    2.920000e+00
 SP1aq    X2  1 4.300000e-01    2.920000e+00
 SP2aq    X2  1 4.300000e-01    2.920000e+00
 SP3aq    X2  1 4.300000e-01    2.920000e+00
 SP4aq    X2  1 4.300000e-01    2.920000e+00
 SP5aq    X2  1 4.300000e-01    2.920000e+00
 SP6aq    X2  1 4.300000e-01    2.770000e+00
 SN1dq    X2  1 4.300000e-01    3.160000e+00
 SN2dq    X2  1 4.300000e-01    3.160000e+00
 SN3dq    X2  1 4.300000e-01    3.160000e+00
 SN4dq    X2  1 4.300000e-01    3.160000e+00
 SN5dq    X2  1 4.300000e-01    3.160000e+00
 SN6dq    X2  1 4.300000e-01    2.920000e+00
 SP1dq    X2  1 4.300000e-01    2.920000e+00
 SP2dq    X2  1 4.300000e-01    2.920000e+00
 SP3dq    X2  1 4.300000e-01    2.920000e+00
 SP4dq    X2  1 4.300000e-01    2.920000e+00
 SP5dq    X2  1 4.300000e-01    2.920000e+00
 SP6dq    X2  1 4.300000e-01    2.770000e+00
  SP6h    X2  1 4.300000e-01    2.320000e+00
  SP5h    X2  1 4.300000e-01    2.530000e+00
  SP4h    X2  1 4.300000e-01    2.530000e+00
  SP3h    X2  1 4.300000e-01    2.530000e+00
  SP2h    X2  1 4.300000e-01    2.530000e+00
  SP1h    X2  1 4.300000e-01    2.530000e+00
  SN6h    X2  1 4.300000e-01    2.530000e+00
  SN5h    X2  1 4.300000e-01    2.770000e+00
  SN4h    X2  1 4.300000e-01    2.770000e+00
  SN3h    X2  1 4.300000e-01    2.770000e+00
  SN2h    X2  1 4.300000e-01    2.770000e+00
  SN1h    X2  1 4.300000e-01    2.770000e+00
  SC6h    X2  1 4.300000e-01    2.920000e+00
  SC5h    X2  1 4.300000e-01    2.770000e+00
  SC4h    X2  1 4.300000e-01    2.770000e+00
  SC3h    X2  1 4.300000e-01    2.770000e+00
  SC2h    X2  1 4.300000e-01    2.770000e+00
  SC1h    X2  1 4.300000e-01    2.770000e+00
  SX4h    X2  1 4.300000e-01    2.920000e+00
  SX3h    X2  1 4.300000e-01    3.160000e+00
 SX3eh    X2  1 4.300000e-01    3.380000e+00
 SX4eh    X2  1 4.300000e-01    3.160000e+00
 SC1eh    X2  1 4.300000e-01    2.920000e+00
 SC2eh    X2  1 4.300000e-01    2.920000e+00
 SC3eh    X2  1 4.300000e-01    2.920000e+00
 SC4eh    X2  1 4.300000e-01    2.920000e+00
 SC5eh    X2  1 4.300000e-01    2.920000e+00
 SC6eh    X2  1 4.300000e-01    3.160000e+00
 SX3vh    X2  1 4.300000e-01    3.380000e+00
 SX4vh    X2  1 4.300000e-01    3.160000e+00
 SC1vh    X2  1 4.300000e-01    2.920000e+00
 SC2vh    X2  1 4.300000e-01    2.920000e+00
 SC3vh    X2  1 4.300000e-01    2.920000e+00
 SC4vh    X2  1 4.300000e-01    2.920000e+00
 SC5vh    X2  1 4.300000e-01    2.920000e+00
 SC6vh    X2  1 4.300000e-01    3.160000e+00
 SN1ah    X2  1 4.300000e-01    2.770000e+00
 SN2ah    X2  1 4.300000e-01    2.770000e+00
 SN3ah    X2  1 4.300000e-01    2.770000e+00
 SN4ah    X2  1 4.300000e-01    2.770000e+00
 SN5ah    X2  1 4.300000e-01    2.770000e+00
 SN6ah    X2  1 4.300000e-01    2.530000e+00
 SP1ah    X2  1 4.300000e-01    2.530000e+00
 SP2ah    X2  1 4.300000e-01    2.530000e+00
 SP3ah    X2  1 4.300000e-01    2.530000e+00
 SP4ah    X2  1 4.300000e-01    2.530000e+00
 SP5ah    X2  1 4.300000e-01    2.530000e+00
 SP6ah    X2  1 4.300000e-01    2.320000e+00
 SN1dh    X2  1 4.300000e-01    2.770000e+00
 SN2dh    X2  1 4.300000e-01    2.770000e+00
 SN3dh    X2  1 4.300000e-01    2.770000e+00
 SN4dh    X2  1 4.300000e-01    2.770000e+00
 SN5dh    X2  1 4.300000e-01    2.770000e+00
 SN6dh    X2  1 4.300000e-01    2.530000e+00
 SP1dh    X2  1 4.300000e-01    2.530000e+00
 SP2dh    X2  1 4.300000e-01    2.530000e+00
 SP3dh    X2  1 4.300000e-01    2.530000e+00
 SP4dh    X2  1 4.300000e-01    2.530000e+00
 SP5dh    X2  1 4.300000e-01    2.530000e+00
 SP6dh    X2  1 4.300000e-01    2.320000e+00
  SP6r    X2  1 4.300000e-01    2.320000e+00
  SP5r    X2  1 4.300000e-01    2.530000e+00
  SP4r    X2  1 4.300000e-01    2.530000e+00
  SP3r    X2  1 4.300000e-01    2.530000e+00
  SP2r    X2  1 4.300000e-01    2.530000e+00
  SP1r    X2  1 4.300000e-01    2.530000e+00
  SN6r    X2  1 4.300000e-01    2.530000e+00
  SN5r    X2  1 4.300000e-01    2.770000e+00
  SN4r    X2  1 4.300000e-01    2.770000e+00
  SN3r    X2  1 4.300000e-01    2.770000e+00
  SN2r    X2  1 4.300000e-01    2.770000e+00
  SN1r    X2  1 4.300000e-01    2.770000e+00
  SC6r    X2  1 4.300000e-01    2.920000e+00
  SC5r    X2  1 4.300000e-01    2.770000e+00
  SC4r    X2  1 4.300000e-01    2.770000e+00
  SC3r    X2  1 4.300000e-01    2.770000e+00
  SC2r    X2  1 4.300000e-01    2.770000e+00
  SC1r    X2  1 4.300000e-01    2.770000e+00
  SX4r    X2  1 4.300000e-01    2.920000e+00
  SX3r    X2  1 4.300000e-01    3.160000e+00
 SX3er    X2  1 4.300000e-01    3.380000e+00
 SX4er    X2  1 4.300000e-01    3.160000e+00
 SC1er    X2  1 4.300000e-01    2.920000e+00
 SC2er    X2  1 4.300000e-01    2.920000e+00
 SC3er    X2  1 4.300000e-01    2.920000e+00
 SC4er    X2  1 4.300000e-01    2.920000e+00
 SC5er    X2  1 4.300000e-01    2.920000e+00
 SC6er    X2  1 4.300000e-01    3.160000e+00
 SX3vr    X2  1 4.300000e-01    3.380000e+00
 SX4vr    X2  1 4.300000e-01    3.160000e+00
 SC1vr    X2  1 4.300000e-01    2.920000e+00
 SC2vr    X2  1 4.300000e-01    2.920000e+00
 SC3vr    X2  1 4.300000e-01    2.920000e+00
 SC4vr    X2  1 4.300000e-01    2.920000e+00
 SC5vr    X2  1 4.300000e-01    2.920000e+00
 SC6vr    X2  1 4.300000e-01    3.160000e+00
 SN1ar    X2  1 4.300000e-01    2.770000e+00
 SN2ar    X2  1 4.300000e-01    2.770000e+00
 SN3ar    X2  1 4.300000e-01    2.770000e+00
 SN4ar    X2  1 4.300000e-01    2.770000e+00
 SN5ar    X2  1 4.300000e-01    2.770000e+00
 SN6ar    X2  1 4.300000e-01    2.530000e+00
 SP1ar    X2  1 4.300000e-01    2.530000e+00
 SP2ar    X2  1 4.300000e-01    2.530000e+00
 SP3ar    X2  1 4.300000e-01    2.530000e+00
 SP4ar    X2  1 4.300000e-01    2.530000e+00
 SP5ar    X2  1 4.300000e-01    2.530000e+00
 SP6ar    X2  1 4.300000e-01    2.320000e+00
 SN1dr    X2  1 4.300000e-01    2.770000e+00
 SN2dr    X2  1 4.300000e-01    2.770000e+00
 SN3dr    X2  1 4.300000e-01    2.770000e+00
 SN4dr    X2  1 4.300000e-01    2.770000e+00
 SN5dr    X2  1 4.300000e-01    2.770000e+00
 SN6dr    X2  1 4.300000e-01    2.530000e+00
 SP1dr    X2  1 4.300000e-01    2.530000e+00
 SP2dr    X2  1 4.300000e-01    2.530000e+00
 SP3dr    X2  1 4.300000e-01    2.530000e+00
 SP4dr    X2  1 4.300000e-01    2.530000e+00
 SP5dr    X2  1 4.300000e-01    2.530000e+00
 SP6dr    X2  1 4.300000e-01    2.320000e+00
    X2   TX2  1 3.950000e-01    2.500000e+00
    X2   TX1  1 3.950000e-01    2.500000e+00
    X2  TX2v  1 3.950000e-01    2.700000e+00
    X2  TX1v  1 3.950000e-01    2.700000e+00
    X2  TX2e  1 3.950000e-01    2.700000e+00
    X2  TX1e  1 3.950000e-01    2.700000e+00
    X2  TX2q  1 3.950000e-01    2.940000e+00
    X2 TX1eq  1 3.950000e-01    3.190000e+00
    X2 TX2eq  1 3.950000e-01    3.190000e+00
    X2 TX1vq  1 3.950000e-01    3.190000e+00
    X2 TX2vq  1 3.950000e-01    3.190000e+00
    X2  TX1q  1 3.950000e-01    2.940000e+00
    X2  TX2h  1 3.950000e-01    2.500000e+00
    X2 TX1eh  1 3.950000e-01    2.700000e+00
    X2 TX2eh  1 3.950000e-01    2.700000e+00
    X2 TX1vh  1 3.950000e-01    2.700000e+00
    X2 TX2vh  1 3.950000e-01    2.700000e+00
    X2  TX1h  1 3.950000e-01    2.500000e+00
    X2  TX2r  1 3.950000e-01    2.500000e+00
    X2 TX1er  1 3.950000e-01    2.700000e+00
    X2 TX2er  1 3.950000e-01    2.700000e+00
    X2 TX1vr  1 3.950000e-01    2.700000e+00
    X2 TX2vr  1 3.950000e-01    2.700000e+00
    X2  TX1r  1 3.950000e-01    2.500000e+00
  TP6d    X2  1 3.950000e-01    1.670000e+00
  TP5d    X2  1 3.950000e-01    1.850000e+00
  TP4d    X2  1 3.950000e-01    1.850000e+00
  TP3d    X2  1 3.950000e-01    1.850000e+00
  TP2d    X2  1 3.950000e-01    1.850000e+00
  TP1d    X2  1 3.950000e-01    1.850000e+00
  TN6d    X2  1 3.950000e-01    1.850000e+00
  TN5d    X2  1 3.950000e-01    2.110000e+00
  TN4d    X2  1 3.950000e-01    2.110000e+00
  TN3d    X2  1 3.950000e-01    2.110000e+00
  TN2d    X2  1 3.950000e-01    2.110000e+00
  TN1d    X2  1 3.950000e-01    2.110000e+00
  TP6a    X2  1 3.950000e-01    1.670000e+00
  TP5a    X2  1 3.950000e-01    1.850000e+00
  TP4a    X2  1 3.950000e-01    1.850000e+00
  TP3a    X2  1 3.950000e-01    1.850000e+00
  TP2a    X2  1 3.950000e-01    1.850000e+00
  TP1a    X2  1 3.950000e-01    1.850000e+00
  TN6a    X2  1 3.950000e-01    1.850000e+00
  TN5a    X2  1 3.950000e-01    2.110000e+00
  TN4a    X2  1 3.950000e-01    2.110000e+00
  TN3a    X2  1 3.950000e-01    2.110000e+00
  TN2a    X2  1 3.950000e-01    2.110000e+00
  TN1a    X2  1 3.950000e-01    2.110000e+00
  TC6v    X2  1 3.950000e-01    2.500000e+00
  TC5v    X2  1 3.950000e-01    2.310000e+00
  TC4v    X2  1 3.950000e-01    2.310000e+00
  TC3v    X2  1 3.950000e-01    2.310000e+00
  TC2v    X2  1 3.950000e-01    2.310000e+00
  TC1v    X2  1 3.950000e-01    2.310000e+00
  TX4v    X2  1 3.950000e-01    2.500000e+00
  TX3v    X2  1 3.950000e-01    2.700000e+00
  TC6e    X2  1 3.950000e-01    2.500000e+00
  TC5e    X2  1 3.950000e-01    2.310000e+00
  TC4e    X2  1 3.950000e-01    2.310000e+00
  TC3e    X2  1 3.950000e-01    2.310000e+00
  TC2e    X2  1 3.950000e-01    2.310000e+00
  TC1e    X2  1 3.950000e-01    2.310000e+00
  TX4e    X2  1 3.950000e-01    2.500000e+00
  TX3e    X2  1 3.950000e-01    2.700000e+00
  TP6q    X2  1 3.950000e-01    2.110000e+00
  TP5q    X2  1 3.950000e-01    2.310000e+00
  TP4q    X2  1 3.950000e-01    2.310000e+00
  TP3q    X2  1 3.950000e-01    2.310000e+00
  TP2q    X2  1 3.950000e-01    2.310000e+00
  TP1q    X2  1 3.950000e-01    2.310000e+00
  TN6q    X2  1 3.950000e-01    2.310000e+00
  TN5q    X2  1 3.950000e-01    2.500000e+00
  TN4q    X2  1 3.950000e-01    2.500000e+00
  TN3q    X2  1 3.950000e-01    2.500000e+00
  TN2q    X2  1 3.950000e-01    2.500000e+00
  TN1q    X2  1 3.950000e-01    2.500000e+00
  TC6q    X2  1 3.950000e-01    2.700000e+00
  TC5q    X2  1 3.950000e-01    2.500000e+00
  TC4q    X2  1 3.950000e-01    2.500000e+00
  TC3q    X2  1 3.950000e-01    2.500000e+00
  TC2q    X2  1 3.950000e-01    2.500000e+00
  TC1q    X2  1 3.950000e-01    2.500000e+00
  TX4q    X2  1 3.950000e-01    2.700000e+00
  TX3q    X2  1 3.950000e-01    2.940000e+00
 TX3eq    X2  1 3.950000e-01    3.190000e+00
 TX4eq    X2  1 3.950000e-01    2.940000e+00
 TC1eq    X2  1 3.950000e-01    2.700000e+00
 TC2eq    X2  1 3.950000e-01    2.700000e+00
 TC3eq    X2  1 3.950000e-01    2.700000e+00
 TC4eq    X2  1 3.950000e-01    2.700000e+00
 TC5eq    X2  1 3.950000e-01    2.700000e+00
 TC6eq    X2  1 3.950000e-01    2.940000e+00
 TX3vq    X2  1 3.950000e-01    3.190000e+00
 TX4vq    X2  1 3.950000e-01    2.940000e+00
 TC1vq    X2  1 3.950000e-01    2.700000e+00
 TC2vq    X2  1 3.950000e-01    2.700000e+00
 TC3vq    X2  1 3.950000e-01    2.700000e+00
 TC4vq    X2  1 3.950000e-01    2.700000e+00
 TC5vq    X2  1 3.950000e-01    2.700000e+00
 TC6vq    X2  1 3.950000e-01    2.940000e+00
 TN1aq    X2  1 3.950000e-01    2.500000e+00
 TN2aq    X2  1 3.950000e-01    2.500000e+00
 TN3aq    X2  1 3.950000e-01    2.500000e+00
 TN4aq    X2  1 3.950000e-01    2.500000e+00
 TN5aq    X2  1 3.950000e-01    2.500000e+00
 TN6aq    X2  1 3.950000e-01    2.310000e+00
 TP1aq    X2  1 3.950000e-01    2.310000e+00
 TP2aq    X2  1 3.950000e-01    2.310000e+00
 TP3aq    X2  1 3.950000e-01    2.310000e+00
 TP4aq    X2  1 3.950000e-01    2.310000e+00
 TP5aq    X2  1 3.950000e-01    2.310000e+00
 TP6aq    X2  1 3.950000e-01    2.110000e+00
 TN1dq    X2  1 3.950000e-01    2.500000e+00
 TN2dq    X2  1 3.950000e-01    2.500000e+00
 TN3dq    X2  1 3.950000e-01    2.500000e+00
 TN4dq    X2  1 3.950000e-01    2.500000e+00
 TN5dq    X2  1 3.950000e-01    2.500000e+00
 TN6dq    X2  1 3.950000e-01    2.310000e+00
 TP1dq    X2  1 3.950000e-01    2.310000e+00
 TP2dq    X2  1 3.950000e-01    2.310000e+00
 TP3dq    X2  1 3.950000e-01    2.310000e+00
 TP4dq    X2  1 3.950000e-01    2.310000e+00
 TP5dq    X2  1 3.950000e-01    2.310000e+00
 TP6dq    X2  1 3.950000e-01    2.110000e+00
  TP6h    X2  1 3.950000e-01    1.670000e+00
  TP5h    X2  1 3.950000e-01    1.850000e+00
  TP4h    X2  1 3.950000e-01    1.850000e+00
  TP3h    X2  1 3.950000e-01    1.850000e+00
  TP2h    X2  1 3.950000e-01    1.850000e+00
  TP1h    X2  1 3.950000e-01    1.850000e+00
  TN6h    X2  1 3.950000e-01    1.850000e+00
  TN5h    X2  1 3.950000e-01    2.110000e+00
  TN4h    X2  1 3.950000e-01    2.110000e+00
  TN3h    X2  1 3.950000e-01    2.110000e+00
  TN2h    X2  1 3.950000e-01    2.110000e+00
  TN1h    X2  1 3.950000e-01    2.110000e+00
  TC6h    X2  1 3.950000e-01    2.310000e+00
  TC5h    X2  1 3.950000e-01    2.110000e+00
  TC4h    X2  1 3.950000e-01    2.110000e+00
  TC3h    X2  1 3.950000e-01    2.110000e+00
  TC2h    X2  1 3.950000e-01    2.110000e+00
  TC1h    X2  1 3.950000e-01    2.110000e+00
  TX4h    X2  1 3.950000e-01    2.310000e+00
  TX3h    X2  1 3.950000e-01    2.500000e+00
 TX3eh    X2  1 3.950000e-01    2.700000e+00
 TX4eh    X2  1 3.950000e-01    2.500000e+00
 TC1eh    X2  1 3.950000e-01    2.310000e+00
 TC2eh    X2  1 3.950000e-01    2.310000e+00
 TC3eh    X2  1 3.950000e-01    2.310000e+00
 TC4eh    X2  1 3.950000e-01    2.310000e+00
 TC5eh    X2  1 3.950000e-01    2.310000e+00
 TC6eh    X2  1 3.950000e-01    2.500000e+00
 TX3vh    X2  1 3.950000e-01    2.700000e+00
 TX4vh    X2  1 3.950000e-01    2.500000e+00
 TC1vh    X2  1 3.950000e-01    2.310000e+00
 TC2vh    X2  1 3.950000e-01    2.310000e+00
 TC3vh    X2  1 3.950000e-01    2.310000e+00
 TC4vh    X2  1 3.950000e-01    2.310000e+00
 TC5vh    X2  1 3.950000e-01    2.310000e+00
 TC6vh    X2  1 3.950000e-01    2.500000e+00
 TN1ah    X2  1 3.950000e-01    2.110000e+00
 TN2ah    X2  1 3.950000e-01    2.110000e+00
 TN3ah    X2  1 3.950000e-01    2.110000e+00
 TN4ah    X2  1 3.950000e-01    2.110000e+00
 TN5ah    X2  1 3.950000e-01    2.110000e+00
 TN6ah    X2  1 3.950000e-01    1.850000e+00
 TP1ah    X2  1 3.950000e-01    1.850000e+00
 TP2ah    X2  1 3.950000e-01    1.850000e+00
 TP3ah    X2  1 3.950000e-01    1.850000e+00
 TP4ah    X2  1 3.950000e-01    1.850000e+00
 TP5ah    X2  1 3.950000e-01    1.850000e+00
 TP6ah    X2  1 3.950000e-01    1.670000e+00
 TN1dh    X2  1 3.950000e-01    2.110000e+00
 TN2dh    X2  1 3.950000e-01    2.110000e+00
 TN3dh    X2  1 3.950000e-01    2.110000e+00
 TN4dh    X2  1 3.950000e-01    2.110000e+00
 TN5dh    X2  1 3.950000e-01    2.110000e+00
 TN6dh    X2  1 3.950000e-01    1.850000e+00
 TP1dh    X2  1 3.950000e-01    1.850000e+00
 TP2dh    X2  1 3.950000e-01    1.850000e+00
 TP3dh    X2  1 3.950000e-01    1.850000e+00
 TP4dh    X2  1 3.950000e-01    1.850000e+00
 TP5dh    X2  1 3.950000e-01    1.850000e+00
 TP6dh    X2  1 3.950000e-01    1.670000e+00
  TP6r    X2  1 3.950000e-01    1.670000e+00
  TP5r    X2  1 3.950000e-01    1.850000e+00
  TP4r    X2  1 3.950000e-01    1.850000e+00
  TP3r    X2  1 3.950000e-01    1.850000e+00
  TP2r    X2  1 3.950000e-01    1.850000e+00
  TP1r    X2  1 3.950000e-01    1.850000e+00
  TN6r    X2  1 3.950000e-01    1.850000e+00
  TN5r    X2  1 3.950000e-01    2.110000e+00
  TN4r    X2  1 3.950000e-01    2.110000e+00
  TN3r    X2  1 3.950000e-01    2.110000e+00
  TN2r    X2  1 3.950000e-01    2.110000e+00
  TN1r    X2  1 3.950000e-01    2.110000e+00
  TC6r    X2  1 3.950000e-01    2.310000e+00
  TC5r    X2  1 3.950000e-01    2.110000e+00
  TC4r    X2  1 3.950000e-01    2.110000e+00
  TC3r    X2  1 3.950000e-01    2.110000e+00
  TC2r    X2  1 3.950000e-01    2.110000e+00
  TC1r    X2  1 3.950000e-01    2.110000e+00
  TX4r    X2  1 3.950000e-01    2.310000e+00
  TX3r    X2  1 3.950000e-01    2.500000e+00
 TX3er    X2  1 3.950000e-01    2.700000e+00
 TX4er    X2  1 3.950000e-01    2.500000e+00
 TC1er    X2  1 3.950000e-01    2.310000e+00
 TC2er    X2  1 3.950000e-01    2.310000e+00
 TC3er    X2  1 3.950000e-01    2.310000e+00
 TC4er    X2  1 3.950000e-01    2.310000e+00
 TC5er    X2  1 3.950000e-01    2.310000e+00
 TC6er    X2  1 3.950000e-01    2.500000e+00
 TX3vr    X2  1 3.950000e-01    2.700000e+00
 TX4vr    X2  1 3.950000e-01    2.500000e+00
 TC1vr    X2  1 3.950000e-01    2.310000e+00
 TC2vr    X2  1 3.950000e-01    2.310000e+00
 TC3vr    X2  1 3.950000e-01    2.310000e+00
 TC4vr    X2  1 3.950000e-01    2.310000e+00
 TC5vr    X2  1 3.950000e-01    2.310000e+00
 TC6vr    X2  1 3.950000e-01    2.500000e+00
 TN1ar    X2  1 3.950000e-01    2.110000e+00
 TN2ar    X2  1 3.950000e-01    2.110000e+00
 TN3ar    X2  1 3.950000e-01    2.110000e+00
 TN4ar    X2  1 3.950000e-01    2.110000e+00
 TN5ar    X2  1 3.950000e-01    2.110000e+00
 TN6ar    X2  1 3.950000e-01    1.850000e+00
 TP1ar    X2  1 3.950000e-01    1.850000e+00
 TP2ar    X2  1 3.950000e-01    1.850000e+00
 TP3ar    X2  1 3.950000e-01    1.850000e+00
 TP4ar    X2  1 3.950000e-01    1.850000e+00
 TP5ar    X2  1 3.950000e-01    1.850000e+00
 TP6ar    X2  1 3.950000e-01    1.670000e+00
 TN1dr    X2  1 3.950000e-01    2.110000e+00
 TN2dr    X2  1 3.950000e-01    2.110000e+00
 TN3dr    X2  1 3.950000e-01    2.110000e+00
 TN4dr    X2  1 3.950000e-01    2.110000e+00
 TN5dr    X2  1 3.950000e-01    2.110000e+00
 TN6dr    X2  1 3.950000e-01    1.850000e+00
 TP1dr    X2  1 3.950000e-01    1.850000e+00
 TP2dr    X2  1 3.950000e-01    1.850000e+00
 TP3dr    X2  1 3.950000e-01    1.850000e+00
 TP4dr    X2  1 3.950000e-01    1.850000e+00
 TP5dr    X2  1 3.950000e-01    1.850000e+00
 TP6dr    X2  1 3.950000e-01    1.670000e+00
   P6d   SX2  1 4.300000e-01    2.320000e+00
   P5d   SX2  1 4.300000e-01    2.530000e+00
   P4d   SX2  1 4.300000e-01    2.530000e+00
   P3d   SX2  1 4.300000e-01    2.530000e+00
   P2d   SX2  1 4.300000e-01    2.530000e+00
   P1d   SX2  1 4.300000e-01    2.530000e+00
   N6d   SX2  1 4.300000e-01    2.530000e+00
   N5d   SX2  1 4.300000e-01    2.770000e+00
   N4d   SX2  1 4.300000e-01    2.770000e+00
   N3d   SX2  1 4.300000e-01    2.770000e+00
   N2d   SX2  1 4.300000e-01    2.770000e+00
   N1d   SX2  1 4.300000e-01    2.770000e+00
   P6a   SX2  1 4.300000e-01    2.320000e+00
   P5a   SX2  1 4.300000e-01    2.530000e+00
   P4a   SX2  1 4.300000e-01    2.530000e+00
   P3a   SX2  1 4.300000e-01    2.530000e+00
   P2a   SX2  1 4.300000e-01    2.530000e+00
   P1a   SX2  1 4.300000e-01    2.530000e+00
   N6a   SX2  1 4.300000e-01    2.530000e+00
   N5a   SX2  1 4.300000e-01    2.770000e+00
   N4a   SX2  1 4.300000e-01    2.770000e+00
   N3a   SX2  1 4.300000e-01    2.770000e+00
   N2a   SX2  1 4.300000e-01    2.770000e+00
   N1a   SX2  1 4.300000e-01    2.770000e+00
   C6v   SX2  1 4.300000e-01    3.160000e+00
   C5v   SX2  1 4.300000e-01    2.920000e+00
   C4v   SX2  1 4.300000e-01    2.920000e+00
   C3v   SX2  1 4.300000e-01    2.920000e+00
   C2v   SX2  1 4.300000e-01    2.920000e+00
   C1v   SX2  1 4.300000e-01    2.920000e+00
   X4v   SX2  1 4.300000e-01    3.160000e+00
   X3v   SX2  1 4.300000e-01    3.380000e+00
   C6e   SX2  1 4.300000e-01    3.160000e+00
   C5e   SX2  1 4.300000e-01    2.920000e+00
   C4e   SX2  1 4.300000e-01    2.920000e+00
   C3e   SX2  1 4.300000e-01    2.920000e+00
   C2e   SX2  1 4.300000e-01    2.920000e+00
   C1e   SX2  1 4.300000e-01    2.920000e+00
   X4e   SX2  1 4.300000e-01    3.160000e+00
   X3e   SX2  1 4.300000e-01    3.380000e+00
   P6q   SX2  1 4.300000e-01    2.770000e+00
   P5q   SX2  1 4.300000e-01    2.920000e+00
   P4q   SX2  1 4.300000e-01    2.920000e+00
   P3q   SX2  1 4.300000e-01    2.920000e+00
   P2q   SX2  1 4.300000e-01    2.920000e+00
   P1q   SX2  1 4.300000e-01    2.920000e+00
   N6q   SX2  1 4.300000e-01    2.920000e+00
   N5q   SX2  1 4.300000e-01    3.160000e+00
   N4q   SX2  1 4.300000e-01    3.160000e+00
   N3q   SX2  1 4.300000e-01    3.160000e+00
   N2q   SX2  1 4.300000e-01    3.160000e+00
   N1q   SX2  1 4.300000e-01    3.160000e+00
   C6q   SX2  1 4.300000e-01    3.380000e+00
   C5q   SX2  1 4.300000e-01    3.160000e+00
   C4q   SX2  1 4.300000e-01    3.160000e+00
   C3q   SX2  1 4.300000e-01    3.160000e+00
   C2q   SX2  1 4.300000e-01    3.160000e+00
   C1q   SX2  1 4.300000e-01    3.160000e+00
   X4q   SX2  1 4.300000e-01    3.380000e+00
   X3q   SX2  1 4.300000e-01    3.590000e+00
  X3eq   SX2  1 4.300000e-01    3.770000e+00
  X4eq   SX2  1 4.300000e-01    3.590000e+00
  C1eq   SX2  1 4.300000e-01    3.380000e+00
  C2eq   SX2  1 4.300000e-01    3.380000e+00
  C3eq   SX2  1 4.300000e-01    3.380000e+00
  C4eq   SX2  1 4.300000e-01    3.380000e+00
  C5eq   SX2  1 4.300000e-01    3.380000e+00
  C6eq   SX2  1 4.300000e-01    3.590000e+00
  X3vq   SX2  1 4.300000e-01    3.770000e+00
  X4vq   SX2  1 4.300000e-01    3.590000e+00
  C1vq   SX2  1 4.300000e-01    3.380000e+00
  C2vq   SX2  1 4.300000e-01    3.380000e+00
  C3vq   SX2  1 4.300000e-01    3.380000e+00
  C4vq   SX2  1 4.300000e-01    3.380000e+00
  C5vq   SX2  1 4.300000e-01    3.380000e+00
  C6vq   SX2  1 4.300000e-01    3.590000e+00
  N1aq   SX2  1 4.300000e-01    3.160000e+00
  N2aq   SX2  1 4.300000e-01    3.160000e+00
  N3aq   SX2  1 4.300000e-01    3.160000e+00
  N4aq   SX2  1 4.300000e-01    3.160000e+00
  N5aq   SX2  1 4.300000e-01    3.160000e+00
  N6aq   SX2  1 4.300000e-01    2.920000e+00
  P1aq   SX2  1 4.300000e-01    2.920000e+00
  P2aq   SX2  1 4.300000e-01    2.920000e+00
  P3aq   SX2  1 4.300000e-01    2.920000e+00
  P4aq   SX2  1 4.300000e-01    2.920000e+00
  P5aq   SX2  1 4.300000e-01    2.920000e+00
  P6aq   SX2  1 4.300000e-01    2.770000e+00
  N1dq   SX2  1 4.300000e-01    3.160000e+00
  N2dq   SX2  1 4.300000e-01    3.160000e+00
  N3dq   SX2  1 4.300000e-01    3.160000e+00
  N4dq   SX2  1 4.300000e-01    3.160000e+00
  N5dq   SX2  1 4.300000e-01    3.160000e+00
  N6dq   SX2  1 4.300000e-01    2.920000e+00
  P1dq   SX2  1 4.300000e-01    2.920000e+00
  P2dq   SX2  1 4.300000e-01    2.920000e+00
  P3dq   SX2  1 4.300000e-01    2.920000e+00
  P4dq   SX2  1 4.300000e-01    2.920000e+00
  P5dq   SX2  1 4.300000e-01    2.920000e+00
  P6dq   SX2  1 4.300000e-01    2.770000e+00
   P6h   SX2  1 4.300000e-01    2.320000e+00
   P5h   SX2  1 4.300000e-01    2.530000e+00
   P4h   SX2  1 4.300000e-01    2.530000e+00
   P3h   SX2  1 4.300000e-01    2.530000e+00
   P2h   SX2  1 4.300000e-01    2.530000e+00
   P1h   SX2  1 4.300000e-01    2.530000e+00
   N6h   SX2  1 4.300000e-01    2.530000e+00
   N5h   SX2  1 4.300000e-01    2.770000e+00
   N4h   SX2  1 4.300000e-01    2.770000e+00
   N3h   SX2  1 4.300000e-01    2.770000e+00
   N2h   SX2  1 4.300000e-01    2.770000e+00
   N1h   SX2  1 4.300000e-01    2.770000e+00
   C6h   SX2  1 4.300000e-01    2.920000e+00
   C5h   SX2  1 4.300000e-01    2.770000e+00
   C4h   SX2  1 4.300000e-01    2.770000e+00
   C3h   SX2  1 4.300000e-01    2.770000e+00
   C2h   SX2  1 4.300000e-01    2.770000e+00
   C1h   SX2  1 4.300000e-01    2.770000e+00
   X4h   SX2  1 4.300000e-01    2.920000e+00
   X3h   SX2  1 4.300000e-01    3.160000e+00
  X3eh   SX2  1 4.300000e-01    3.380000e+00
  X4eh   SX2  1 4.300000e-01    3.160000e+00
  C1eh   SX2  1 4.300000e-01    2.920000e+00
  C2eh   SX2  1 4.300000e-01    2.920000e+00
  C3eh   SX2  1 4.300000e-01    2.920000e+00
  C4eh   SX2  1 4.300000e-01    2.920000e+00
  C5eh   SX2  1 4.300000e-01    2.920000e+00
  C6eh   SX2  1 4.300000e-01    3.160000e+00
  X3vh   SX2  1 4.300000e-01    3.380000e+00
  X4vh   SX2  1 4.300000e-01    3.160000e+00
  C1vh   SX2  1 4.300000e-01    2.920000e+00
  C2vh   SX2  1 4.300000e-01    2.920000e+00
  C3vh   SX2  1 4.300000e-01    2.920000e+00
  C4vh   SX2  1 4.300000e-01    2.920000e+00
  C5vh   SX2  1 4.300000e-01    2.920000e+00
  C6vh   SX2  1 4.300000e-01    3.160000e+00
  N1ah   SX2  1 4.300000e-01    2.770000e+00
  N2ah   SX2  1 4.300000e-01    2.770000e+00
  N3ah   SX2  1 4.300000e-01    2.770000e+00
  N4ah   SX2  1 4.300000e-01    2.770000e+00
  N5ah   SX2  1 4.300000e-01    2.770000e+00
  N6ah   SX2  1 4.300000e-01    2.530000e+00
  P1ah   SX2  1 4.300000e-01    2.530000e+00
  P2ah   SX2  1 4.300000e-01    2.530000e+00
  P3ah   SX2  1 4.300000e-01    2.530000e+00
  P4ah   SX2  1 4.300000e-01    2.530000e+00
  P5ah   SX2  1 4.300000e-01    2.530000e+00
  P6ah   SX2  1 4.300000e-01    2.320000e+00
  N1dh   SX2  1 4.300000e-01    2.770000e+00
  N2dh   SX2  1 4.300000e-01    2.770000e+00
  N3dh   SX2  1 4.300000e-01    2.770000e+00
  N4dh   SX2  1 4.300000e-01    2.770000e+00
  N5dh   SX2  1 4.300000e-01    2.770000e+00
  N6dh   SX2  1 4.300000e-01    2.530000e+00
  P1dh   SX2  1 4.300000e-01    2.530000e+00
  P2dh   SX2  1 4.300000e-01    2.530000e+00
  P3dh   SX2  1 4.300000e-01    2.530000e+00
  P4dh   SX2  1 4.300000e-01    2.530000e+00
  P5dh   SX2  1 4.300000e-01    2.530000e+00
  P6dh   SX2  1 4.300000e-01    2.320000e+00
   P6r   SX2  1 4.300000e-01    2.320000e+00
   P5r   SX2  1 4.300000e-01    2.530000e+00
   P4r   SX2  1 4.300000e-01    2.530000e+00
   P3r   SX2  1 4.300000e-01    2.530000e+00
   P2r   SX2  1 4.300000e-01    2.530000e+00
   P1r   SX2  1 4.300000e-01    2.530000e+00
   N6r   SX2  1 4.300000e-01    2.530000e+00
   N5r   SX2  1 4.300000e-01    2.770000e+00
   N4r   SX2  1 4.300000e-01    2.770000e+00
   N3r   SX2  1 4.300000e-01    2.770000e+00
   N2r   SX2  1 4.300000e-01    2.770000e+00
   N1r   SX2  1 4.300000e-01    2.770000e+00
   C6r   SX2  1 4.300000e-01    2.920000e+00
   C5r   SX2  1 4.300000e-01    2.770000e+00
   C4r   SX2  1 4.300000e-01    2.770000e+00
   C3r   SX2  1 4.300000e-01    2.770000e+00
   C2r   SX2  1 4.300000e-01    2.770000e+00
   C1r   SX2  1 4.300000e-01    2.770000e+00
   X4r   SX2  1 4.300000e-01    2.920000e+00
   X3r   SX2  1 4.300000e-01    3.160000e+00
  X3er   SX2  1 4.300000e-01    3.380000e+00
  X4er   SX2  1 4.300000e-01    3.160000e+00
  C1er   SX2  1 4.300000e-01    2.920000e+00
  C2er   SX2  1 4.300000e-01    2.920000e+00
  C3er   SX2  1 4.300000e-01    2.920000e+00
  C4er   SX2  1 4.300000e-01    2.920000e+00
  C5er   SX2  1 4.300000e-01    2.920000e+00
  C6er   SX2  1 4.300000e-01    3.160000e+00
  X3vr   SX2  1 4.300000e-01    3.380000e+00
  X4vr   SX2  1 4.300000e-01    3.160000e+00
  C1vr   SX2  1 4.300000e-01    2.920000e+00
  C2vr   SX2  1 4.300000e-01    2.920000e+00
  C3vr   SX2  1 4.300000e-01    2.920000e+00
  C4vr   SX2  1 4.300000e-01    2.920000e+00
  C5vr   SX2  1 4.300000e-01    2.920000e+00
  C6vr   SX2  1 4.300000e-01    3.160000e+00
  N1ar   SX2  1 4.300000e-01    2.770000e+00
  N2ar   SX2  1 4.300000e-01    2.770000e+00
  N3ar   SX2  1 4.300000e-01    2.770000e+00
  N4ar   SX2  1 4.300000e-01    2.770000e+00
  N5ar   SX2  1 4.300000e-01    2.770000e+00
  N6ar   SX2  1 4.300000e-01    2.530000e+00
  P1ar   SX2  1 4.300000e-01    2.530000e+00
  P2ar   SX2  1 4.300000e-01    2.530000e+00
  P3ar   SX2  1 4.300000e-01    2.530000e+00
  P4ar   SX2  1 4.300000e-01    2.530000e+00
  P5ar   SX2  1 4.300000e-01    2.530000e+00
  P6ar   SX2  1 4.300000e-01    2.320000e+00
  N1dr   SX2  1 4.300000e-01    2.770000e+00
  N2dr   SX2  1 4.300000e-01    2.770000e+00
  N3dr   SX2  1 4.300000e-01    2.770000e+00
  N4dr   SX2  1 4.300000e-01    2.770000e+00
  N5dr   SX2  1 4.300000e-01    2.770000e+00
  N6dr   SX2  1 4.300000e-01    2.530000e+00
  P1dr   SX2  1 4.300000e-01    2.530000e+00
  P2dr   SX2  1 4.300000e-01    2.530000e+00
  P3dr   SX2  1 4.300000e-01    2.530000e+00
  P4dr   SX2  1 4.300000e-01    2.530000e+00
  P5dr   SX2  1 4.300000e-01    2.530000e+00
  P6dr   SX2  1 4.300000e-01    2.320000e+00
   SX2    X1  1 4.300000e-01    3.160000e+00
   SX2   X2v  1 4.300000e-01    3.380000e+00
   SX2   X1v  1 4.300000e-01    3.380000e+00
   SX2   X2e  1 4.300000e-01    3.380000e+00
   SX2   X1e  1 4.300000e-01    3.380000e+00
   SX2   X2q  1 4.300000e-01    3.590000e+00
   SX2  X1eq  1 4.300000e-01    3.770000e+00
   SX2  X2eq  1 4.300000e-01    3.770000e+00
   SX2  X1vq  1 4.300000e-01    3.770000e+00
   SX2  X2vq  1 4.300000e-01    3.770000e+00
   SX2   X1q  1 4.300000e-01    3.590000e+00
   SX2   X2h  1 4.300000e-01    3.160000e+00
   SX2  X1eh  1 4.300000e-01    3.380000e+00
   SX2  X2eh  1 4.300000e-01    3.380000e+00
   SX2  X1vh  1 4.300000e-01    3.380000e+00
   SX2  X2vh  1 4.300000e-01    3.380000e+00
   SX2   X1h  1 4.300000e-01    3.160000e+00
   SX2   X2r  1 4.300000e-01    3.160000e+00
   SX2  X1er  1 4.300000e-01    3.380000e+00
   SX2  X2er  1 4.300000e-01    3.380000e+00
   SX2  X1vr  1 4.300000e-01    3.380000e+00
   SX2  X2vr  1 4.300000e-01    3.380000e+00
   SX2   X1r  1 4.300000e-01    3.160000e+00
   SX2   SX2  1 4.100000e-01    2.600000e+00
   SX2   SX1  1 4.100000e-01    2.600000e+00
  SP6d   SX2  1 4.100000e-01    1.910000e+00
  SP5d   SX2  1 4.100000e-01    2.040000e+00
  SP4d   SX2  1 4.100000e-01    2.040000e+00
  SP3d   SX2  1 4.100000e-01    2.040000e+00
  SP2d   SX2  1 4.100000e-01    2.040000e+00
  SP1d   SX2  1 4.100000e-01    2.040000e+00
  SN6d   SX2  1 4.100000e-01    2.040000e+00
  SN5d   SX2  1 4.100000e-01    2.200000e+00
  SN4d   SX2  1 4.100000e-01    2.200000e+00
  SN3d   SX2  1 4.100000e-01    2.200000e+00
  SN2d   SX2  1 4.100000e-01    2.200000e+00
  SN1d   SX2  1 4.100000e-01    2.200000e+00
  SP6a   SX2  1 4.100000e-01    1.910000e+00
  SP5a   SX2  1 4.100000e-01    2.040000e+00
  SP4a   SX2  1 4.100000e-01    2.040000e+00
  SP3a   SX2  1 4.100000e-01    2.040000e+00
  SP2a   SX2  1 4.100000e-01    2.040000e+00
  SP1a   SX2  1 4.100000e-01    2.040000e+00
  SN6a   SX2  1 4.100000e-01    2.040000e+00
  SN5a   SX2  1 4.100000e-01    2.200000e+00
  SN4a   SX2  1 4.100000e-01    2.200000e+00
  SN3a   SX2  1 4.100000e-01    2.200000e+00
  SN2a   SX2  1 4.100000e-01    2.200000e+00
  SN1a   SX2  1 4.100000e-01    2.200000e+00
  SC6v   SX2  1 4.100000e-01    2.600000e+00
  SC5v   SX2  1 4.100000e-01    2.350000e+00
  SC4v   SX2  1 4.100000e-01    2.350000e+00
  SC3v   SX2  1 4.100000e-01    2.350000e+00
  SC2v   SX2  1 4.100000e-01    2.350000e+00
  SC1v   SX2  1 4.100000e-01    2.350000e+00
  SX4v   SX2  1 4.100000e-01    2.600000e+00
  SX3v   SX2  1 4.100000e-01    2.840000e+00
   SX2  SX2v  1 4.100000e-01    2.840000e+00
   SX2  SX1v  1 4.100000e-01    2.840000e+00
  SC6e   SX2  1 4.100000e-01    2.600000e+00
  SC5e   SX2  1 4.100000e-01    2.350000e+00
  SC4e   SX2  1 4.100000e-01    2.350000e+00
  SC3e   SX2  1 4.100000e-01    2.350000e+00
  SC2e   SX2  1 4.100000e-01    2.350000e+00
  SC1e   SX2  1 4.100000e-01    2.350000e+00
  SX4e   SX2  1 4.100000e-01    2.600000e+00
  SX3e   SX2  1 4.100000e-01    2.840000e+00
   SX2  SX2e  1 4.100000e-01    2.840000e+00
   SX2  SX1e  1 4.100000e-01    2.840000e+00
  SP6q   SX2  1 4.100000e-01    2.200000e+00
  SP5q   SX2  1 4.100000e-01    2.350000e+00
  SP4q   SX2  1 4.100000e-01    2.350000e+00
  SP3q   SX2  1 4.100000e-01    2.350000e+00
  SP2q   SX2  1 4.100000e-01    2.350000e+00
  SP1q   SX2  1 4.100000e-01    2.350000e+00
  SN6q   SX2  1 4.100000e-01    2.350000e+00
  SN5q   SX2  1 4.100000e-01    2.600000e+00
  SN4q   SX2  1 4.100000e-01    2.600000e+00
  SN3q   SX2  1 4.100000e-01    2.600000e+00
  SN2q   SX2  1 4.100000e-01    2.600000e+00
  SN1q   SX2  1 4.100000e-01    2.600000e+00
  SC6q   SX2  1 4.100000e-01    2.840000e+00
  SC5q   SX2  1 4.100000e-01    2.600000e+00
  SC4q   SX2  1 4.100000e-01    2.600000e+00
  SC3q   SX2  1 4.100000e-01    2.600000e+00
  SC2q   SX2  1 4.100000e-01    2.600000e+00
  SC1q   SX2  1 4.100000e-01    2.600000e+00
  SX4q   SX2  1 4.100000e-01    2.840000e+00
  SX3q   SX2  1 4.100000e-01    3.070000e+00
   SX2  SX2q  1 4.100000e-01    3.070000e+00
   SX2 SX1eq  1 4.100000e-01    3.310000e+00
   SX2 SX2eq  1 4.100000e-01    3.310000e+00
 SX3eq   SX2  1 4.100000e-01    3.310000e+00
 SX4eq   SX2  1 4.100000e-01    3.070000e+00
 SC1eq   SX2  1 4.100000e-01    2.840000e+00
 SC2eq   SX2  1 4.100000e-01    2.840000e+00
 SC3eq   SX2  1 4.100000e-01    2.840000e+00
 SC4eq   SX2  1 4.100000e-01    2.840000e+00
 SC5eq   SX2  1 4.100000e-01    2.840000e+00
 SC6eq   SX2  1 4.100000e-01    3.070000e+00
   SX2 SX1vq  1 4.100000e-01    3.310000e+00
   SX2 SX2vq  1 4.100000e-01    3.310000e+00
 SX3vq   SX2  1 4.100000e-01    3.310000e+00
 SX4vq   SX2  1 4.100000e-01    3.070000e+00
 SC1vq   SX2  1 4.100000e-01    2.840000e+00
 SC2vq   SX2  1 4.100000e-01    2.840000e+00
 SC3vq   SX2  1 4.100000e-01    2.840000e+00
 SC4vq   SX2  1 4.100000e-01    2.840000e+00
 SC5vq   SX2  1 4.100000e-01    2.840000e+00
 SC6vq   SX2  1 4.100000e-01    3.070000e+00
 SN1aq   SX2  1 4.100000e-01    2.600000e+00
 SN2aq   SX2  1 4.100000e-01    2.600000e+00
 SN3aq   SX2  1 4.100000e-01    2.600000e+00
 SN4aq   SX2  1 4.100000e-01    2.600000e+00
 SN5aq   SX2  1 4.100000e-01    2.600000e+00
 SN6aq   SX2  1 4.100000e-01    2.350000e+00
 SP1aq   SX2  1 4.100000e-01    2.350000e+00
 SP2aq   SX2  1 4.100000e-01    2.350000e+00
 SP3aq   SX2  1 4.100000e-01    2.350000e+00
 SP4aq   SX2  1 4.100000e-01    2.350000e+00
 SP5aq   SX2  1 4.100000e-01    2.350000e+00
 SP6aq   SX2  1 4.100000e-01    2.200000e+00
 SN1dq   SX2  1 4.100000e-01    2.600000e+00
 SN2dq   SX2  1 4.100000e-01    2.600000e+00
 SN3dq   SX2  1 4.100000e-01    2.600000e+00
 SN4dq   SX2  1 4.100000e-01    2.600000e+00
 SN5dq   SX2  1 4.100000e-01    2.600000e+00
 SN6dq   SX2  1 4.100000e-01    2.350000e+00
 SP1dq   SX2  1 4.100000e-01    2.350000e+00
 SP2dq   SX2  1 4.100000e-01    2.350000e+00
 SP3dq   SX2  1 4.100000e-01    2.350000e+00
 SP4dq   SX2  1 4.100000e-01    2.350000e+00
 SP5dq   SX2  1 4.100000e-01    2.350000e+00
 SP6dq   SX2  1 4.100000e-01    2.200000e+00
   SX2  SX1q  1 4.100000e-01    3.070000e+00
  SP6h   SX2  1 4.100000e-01    1.910000e+00
  SP5h   SX2  1 4.100000e-01    2.040000e+00
  SP4h   SX2  1 4.100000e-01    2.040000e+00
  SP3h   SX2  1 4.100000e-01    2.040000e+00
  SP2h   SX2  1 4.100000e-01    2.040000e+00
  SP1h   SX2  1 4.100000e-01    2.040000e+00
  SN6h   SX2  1 4.100000e-01    2.040000e+00
  SN5h   SX2  1 4.100000e-01    2.200000e+00
  SN4h   SX2  1 4.100000e-01    2.200000e+00
  SN3h   SX2  1 4.100000e-01    2.200000e+00
  SN2h   SX2  1 4.100000e-01    2.200000e+00
  SN1h   SX2  1 4.100000e-01    2.200000e+00
  SC6h   SX2  1 4.100000e-01    2.350000e+00
  SC5h   SX2  1 4.100000e-01    2.200000e+00
  SC4h   SX2  1 4.100000e-01    2.200000e+00
  SC3h   SX2  1 4.100000e-01    2.200000e+00
  SC2h   SX2  1 4.100000e-01    2.200000e+00
  SC1h   SX2  1 4.100000e-01    2.200000e+00
  SX4h   SX2  1 4.100000e-01    2.350000e+00
  SX3h   SX2  1 4.100000e-01    2.600000e+00
   SX2  SX2h  1 4.100000e-01    2.600000e+00
   SX2 SX1eh  1 4.100000e-01    2.840000e+00
   SX2 SX2eh  1 4.100000e-01    2.840000e+00
 SX3eh   SX2  1 4.100000e-01    2.840000e+00
 SX4eh   SX2  1 4.100000e-01    2.600000e+00
 SC1eh   SX2  1 4.100000e-01    2.350000e+00
 SC2eh   SX2  1 4.100000e-01    2.350000e+00
 SC3eh   SX2  1 4.100000e-01    2.350000e+00
 SC4eh   SX2  1 4.100000e-01    2.350000e+00
 SC5eh   SX2  1 4.100000e-01    2.350000e+00
 SC6eh   SX2  1 4.100000e-01    2.600000e+00
   SX2 SX1vh  1 4.100000e-01    2.840000e+00
   SX2 SX2vh  1 4.100000e-01    2.840000e+00
 SX3vh   SX2  1 4.100000e-01    2.840000e+00
 SX4vh   SX2  1 4.100000e-01    2.600000e+00
 SC1vh   SX2  1 4.100000e-01    2.350000e+00
 SC2vh   SX2  1 4.100000e-01    2.350000e+00
 SC3vh   SX2  1 4.100000e-01    2.350000e+00
 SC4vh   SX2  1 4.100000e-01    2.350000e+00
 SC5vh   SX2  1 4.100000e-01    2.350000e+00
 SC6vh   SX2  1 4.100000e-01    2.600000e+00
 SN1ah   SX2  1 4.100000e-01    2.200000e+00
 SN2ah   SX2  1 4.100000e-01    2.200000e+00
 SN3ah   SX2  1 4.100000e-01    2.200000e+00
 SN4ah   SX2  1 4.100000e-01    2.200000e+00
 SN5ah   SX2  1 4.100000e-01    2.200000e+00
 SN6ah   SX2  1 4.100000e-01    2.040000e+00
 SP1ah   SX2  1 4.100000e-01    2.040000e+00
 SP2ah   SX2  1 4.100000e-01    2.040000e+00
 SP3ah   SX2  1 4.100000e-01    2.040000e+00
 SP4ah   SX2  1 4.100000e-01    2.040000e+00
 SP5ah   SX2  1 4.100000e-01    2.040000e+00
 SP6ah   SX2  1 4.100000e-01    1.910000e+00
 SN1dh   SX2  1 4.100000e-01    2.200000e+00
 SN2dh   SX2  1 4.100000e-01    2.200000e+00
 SN3dh   SX2  1 4.100000e-01    2.200000e+00
 SN4dh   SX2  1 4.100000e-01    2.200000e+00
 SN5dh   SX2  1 4.100000e-01    2.200000e+00
 SN6dh   SX2  1 4.100000e-01    2.040000e+00
 SP1dh   SX2  1 4.100000e-01    2.040000e+00
 SP2dh   SX2  1 4.100000e-01    2.040000e+00
 SP3dh   SX2  1 4.100000e-01    2.040000e+00
 SP4dh   SX2  1 4.100000e-01    2.040000e+00
 SP5dh   SX2  1 4.100000e-01    2.040000e+00
 SP6dh   SX2  1 4.100000e-01    1.910000e+00
   SX2  SX1h  1 4.100000e-01    2.600000e+00
  SP6r   SX2  1 4.100000e-01    1.910000e+00
  SP5r   SX2  1 4.100000e-01    2.040000e+00
  SP4r   SX2  1 4.100000e-01    2.040000e+00
  SP3r   SX2  1 4.100000e-01    2.040000e+00
  SP2r   SX2  1 4.100000e-01    2.040000e+00
  SP1r   SX2  1 4.100000e-01    2.040000e+00
  SN6r   SX2  1 4.100000e-01    2.040000e+00
  SN5r   SX2  1 4.100000e-01    2.200000e+00
  SN4r   SX2  1 4.100000e-01    2.200000e+00
  SN3r   SX2  1 4.100000e-01    2.200000e+00
  SN2r   SX2  1 4.100000e-01    2.200000e+00
  SN1r   SX2  1 4.100000e-01    2.200000e+00
  SC6r   SX2  1 4.100000e-01    2.350000e+00
  SC5r   SX2  1 4.100000e-01    2.200000e+00
  SC4r   SX2  1 4.100000e-01    2.200000e+00
  SC3r   SX2  1 4.100000e-01    2.200000e+00
  SC2r   SX2  1 4.100000e-01    2.200000e+00
  SC1r   SX2  1 4.100000e-01    2.200000e+00
  SX4r   SX2  1 4.100000e-01    2.350000e+00
  SX3r   SX2  1 4.100000e-01    2.600000e+00
   SX2  SX2r  1 4.100000e-01    2.600000e+00
   SX2 SX1er  1 4.100000e-01    2.840000e+00
   SX2 SX2er  1 4.100000e-01    2.840000e+00
 SX3er   SX2  1 4.100000e-01    2.840000e+00
 SX4er   SX2  1 4.100000e-01    2.600000e+00
 SC1er   SX2  1 4.100000e-01    2.350000e+00
 SC2er   SX2  1 4.100000e-01    2.350000e+00
 SC3er   SX2  1 4.100000e-01    2.350000e+00
 SC4er   SX2  1 4.100000e-01    2.350000e+00
 SC5er   SX2  1 4.100000e-01    2.350000e+00
 SC6er   SX2  1 4.100000e-01    2.600000e+00
   SX2 SX1vr  1 4.100000e-01    2.840000e+00
   SX2 SX2vr  1 4.100000e-01    2.840000e+00
 SX3vr   SX2  1 4.100000e-01    2.840000e+00
 SX4vr   SX2  1 4.100000e-01    2.600000e+00
 SC1vr   SX2  1 4.100000e-01    2.350000e+00
 SC2vr   SX2  1 4.100000e-01    2.350000e+00
 SC3vr   SX2  1 4.100000e-01    2.350000e+00
 SC4vr   SX2  1 4.100000e-01    2.350000e+00
 SC5vr   SX2  1 4.100000e-01    2.350000e+00
 SC6vr   SX2  1 4.100000e-01    2.600000e+00
 SN1ar   SX2  1 4.100000e-01    2.200000e+00
 SN2ar   SX2  1 4.100000e-01    2.200000e+00
 SN3ar   SX2  1 4.100000e-01    2.200000e+00
 SN4ar   SX2  1 4.100000e-01    2.200000e+00
 SN5ar   SX2  1 4.100000e-01    2.200000e+00
 SN6ar   SX2  1 4.100000e-01    2.040000e+00
 SP1ar   SX2  1 4.100000e-01    2.040000e+00
 SP2ar   SX2  1 4.100000e-01    2.040000e+00
 SP3ar   SX2  1 4.100000e-01    2.040000e+00
 SP4ar   SX2  1 4.100000e-01    2.040000e+00
 SP5ar   SX2  1 4.100000e-01    2.040000e+00
 SP6ar   SX2  1 4.100000e-01    1.910000e+00
 SN1dr   SX2  1 4.100000e-01    2.200000e+00
 SN2dr   SX2  1 4.100000e-01    2.200000e+00
 SN3dr   SX2  1 4.100000e-01    2.200000e+00
 SN4dr   SX2  1 4.100000e-01    2.200000e+00
 SN5dr   SX2  1 4.100000e-01    2.200000e+00
 SN6dr   SX2  1 4.100000e-01    2.040000e+00
 SP1dr   SX2  1 4.100000e-01    2.040000e+00
 SP2dr   SX2  1 4.100000e-01    2.040000e+00
 SP3dr   SX2  1 4.100000e-01    2.040000e+00
 SP4dr   SX2  1 4.100000e-01    2.040000e+00
 SP5dr   SX2  1 4.100000e-01    2.040000e+00
 SP6dr   SX2  1 4.100000e-01    1.910000e+00
   SX2  SX1r  1 4.100000e-01    2.600000e+00
   SX2   TX2  1 3.650000e-01    2.110000e+00
   SX2   TX1  1 3.650000e-01    2.110000e+00
   SX2  TX2v  1 3.650000e-01    2.340000e+00
   SX2  TX1v  1 3.650000e-01    2.340000e+00
   SX2  TX2e  1 3.650000e-01    2.340000e+00
   SX2  TX1e  1 3.650000e-01    2.340000e+00
   SX2  TX2q  1 3.650000e-01    2.570000e+00
   SX2 TX1eq  1 3.650000e-01    2.830000e+00
   SX2 TX2eq  1 3.650000e-01    2.830000e+00
   SX2 TX1vq  1 3.650000e-01    2.830000e+00
   SX2 TX2vq  1 3.650000e-01    2.830000e+00
   SX2  TX1q  1 3.650000e-01    2.570000e+00
   SX2  TX2h  1 3.650000e-01    2.110000e+00
   SX2 TX1eh  1 3.650000e-01    2.340000e+00
   SX2 TX2eh  1 3.650000e-01    2.340000e+00
   SX2 TX1vh  1 3.650000e-01    2.340000e+00
   SX2 TX2vh  1 3.650000e-01    2.340000e+00
   SX2  TX1h  1 3.650000e-01    2.110000e+00
   SX2  TX2r  1 3.650000e-01    2.110000e+00
   SX2 TX1er  1 3.650000e-01    2.340000e+00
   SX2 TX2er  1 3.650000e-01    2.340000e+00
   SX2 TX1vr  1 3.650000e-01    2.340000e+00
   SX2 TX2vr  1 3.650000e-01    2.340000e+00
   SX2  TX1r  1 3.650000e-01    2.110000e+00
  TP6d   SX2  1 3.780000e-01    1.450000e+00
  TP5d   SX2  1 3.660000e-01    1.600000e+00
  TP4d   SX2  1 3.660000e-01    1.600000e+00
  TP3d   SX2  1 3.660000e-01    1.600000e+00
  TP2d   SX2  1 3.660000e-01    1.600000e+00
  TP1d   SX2  1 3.660000e-01    1.600000e+00
  TN6d   SX2  1 3.660000e-01    1.600000e+00
  TN5d   SX2  1 3.650000e-01    1.750000e+00
  TN4d   SX2  1 3.650000e-01    1.750000e+00
  TN3d   SX2  1 3.650000e-01    1.750000e+00
  TN2d   SX2  1 3.650000e-01    1.750000e+00
  TN1d   SX2  1 3.650000e-01    1.750000e+00
  TP6a   SX2  1 3.780000e-01    1.450000e+00
  TP5a   SX2  1 3.660000e-01    1.600000e+00
  TP4a   SX2  1 3.660000e-01    1.600000e+00
  TP3a   SX2  1 3.660000e-01    1.600000e+00
  TP2a   SX2  1 3.660000e-01    1.600000e+00
  TP1a   SX2  1 3.660000e-01    1.600000e+00
  TN6a   SX2  1 3.660000e-01    1.600000e+00
  TN5a   SX2  1 3.650000e-01    1.750000e+00
  TN4a   SX2  1 3.650000e-01    1.750000e+00
  TN3a   SX2  1 3.650000e-01    1.750000e+00
  TN2a   SX2  1 3.650000e-01    1.750000e+00
  TN1a   SX2  1 3.650000e-01    1.750000e+00
  TC6v   SX2  1 3.650000e-01    2.110000e+00
  TC5v   SX2  1 3.650000e-01    1.910000e+00
  TC4v   SX2  1 3.650000e-01    1.910000e+00
  TC3v   SX2  1 3.650000e-01    1.910000e+00
  TC2v   SX2  1 3.650000e-01    1.910000e+00
  TC1v   SX2  1 3.650000e-01    1.910000e+00
  TX4v   SX2  1 3.650000e-01    2.110000e+00
  TX3v   SX2  1 3.650000e-01    2.340000e+00
  TC6e   SX2  1 3.650000e-01    2.110000e+00
  TC5e   SX2  1 3.650000e-01    1.910000e+00
  TC4e   SX2  1 3.650000e-01    1.910000e+00
  TC3e   SX2  1 3.650000e-01    1.910000e+00
  TC2e   SX2  1 3.650000e-01    1.910000e+00
  TC1e   SX2  1 3.650000e-01    1.910000e+00
  TX4e   SX2  1 3.650000e-01    2.110000e+00
  TX3e   SX2  1 3.650000e-01    2.340000e+00
  TP6q   SX2  1 3.650000e-01    1.750000e+00
  TP5q   SX2  1 3.650000e-01    1.910000e+00
  TP4q   SX2  1 3.650000e-01    1.910000e+00
  TP3q   SX2  1 3.650000e-01    1.910000e+00
  TP2q   SX2  1 3.650000e-01    1.910000e+00
  TP1q   SX2  1 3.650000e-01    1.910000e+00
  TN6q   SX2  1 3.650000e-01    1.910000e+00
  TN5q   SX2  1 3.650000e-01    2.110000e+00
  TN4q   SX2  1 3.650000e-01    2.110000e+00
  TN3q   SX2  1 3.650000e-01    2.110000e+00
  TN2q   SX2  1 3.650000e-01    2.110000e+00
  TN1q   SX2  1 3.650000e-01    2.110000e+00
  TC6q   SX2  1 3.650000e-01    2.340000e+00
  TC5q   SX2  1 3.650000e-01    2.110000e+00
  TC4q   SX2  1 3.650000e-01    2.110000e+00
  TC3q   SX2  1 3.650000e-01    2.110000e+00
  TC2q   SX2  1 3.650000e-01    2.110000e+00
  TC1q   SX2  1 3.650000e-01    2.110000e+00
  TX4q   SX2  1 3.650000e-01    2.340000e+00
  TX3q   SX2  1 3.650000e-01    2.570000e+00
 TX3eq   SX2  1 3.650000e-01    2.830000e+00
 TX4eq   SX2  1 3.650000e-01    2.570000e+00
 TC1eq   SX2  1 3.650000e-01    2.340000e+00
 TC2eq   SX2  1 3.650000e-01    2.340000e+00
 TC3eq   SX2  1 3.650000e-01    2.340000e+00
 TC4eq   SX2  1 3.650000e-01    2.340000e+00
 TC5eq   SX2  1 3.650000e-01    2.340000e+00
 TC6eq   SX2  1 3.650000e-01    2.570000e+00
 TX3vq   SX2  1 3.650000e-01    2.830000e+00
 TX4vq   SX2  1 3.650000e-01    2.570000e+00
 TC1vq   SX2  1 3.650000e-01    2.340000e+00
 TC2vq   SX2  1 3.650000e-01    2.340000e+00
 TC3vq   SX2  1 3.650000e-01    2.340000e+00
 TC4vq   SX2  1 3.650000e-01    2.340000e+00
 TC5vq   SX2  1 3.650000e-01    2.340000e+00
 TC6vq   SX2  1 3.650000e-01    2.570000e+00
 TN1aq   SX2  1 3.650000e-01    2.110000e+00
 TN2aq   SX2  1 3.650000e-01    2.110000e+00
 TN3aq   SX2  1 3.650000e-01    2.110000e+00
 TN4aq   SX2  1 3.650000e-01    2.110000e+00
 TN5aq   SX2  1 3.650000e-01    2.110000e+00
 TN6aq   SX2  1 3.650000e-01    1.910000e+00
 TP1aq   SX2  1 3.650000e-01    1.910000e+00
 TP2aq   SX2  1 3.650000e-01    1.910000e+00
 TP3aq   SX2  1 3.650000e-01    1.910000e+00
 TP4aq   SX2  1 3.650000e-01    1.910000e+00
 TP5aq   SX2  1 3.650000e-01    1.910000e+00
 TP6aq   SX2  1 3.650000e-01    1.750000e+00
 TN1dq   SX2  1 3.650000e-01    2.110000e+00
 TN2dq   SX2  1 3.650000e-01    2.110000e+00
 TN3dq   SX2  1 3.650000e-01    2.110000e+00
 TN4dq   SX2  1 3.650000e-01    2.110000e+00
 TN5dq   SX2  1 3.650000e-01    2.110000e+00
 TN6dq   SX2  1 3.650000e-01    1.910000e+00
 TP1dq   SX2  1 3.650000e-01    1.910000e+00
 TP2dq   SX2  1 3.650000e-01    1.910000e+00
 TP3dq   SX2  1 3.650000e-01    1.910000e+00
 TP4dq   SX2  1 3.650000e-01    1.910000e+00
 TP5dq   SX2  1 3.650000e-01    1.910000e+00
 TP6dq   SX2  1 3.650000e-01    1.750000e+00
  TP6h   SX2  1 3.780000e-01    1.450000e+00
  TP5h   SX2  1 3.660000e-01    1.600000e+00
  TP4h   SX2  1 3.660000e-01    1.600000e+00
  TP3h   SX2  1 3.660000e-01    1.600000e+00
  TP2h   SX2  1 3.660000e-01    1.600000e+00
  TP1h   SX2  1 3.660000e-01    1.600000e+00
  TN6h   SX2  1 3.660000e-01    1.600000e+00
  TN5h   SX2  1 3.650000e-01    1.750000e+00
  TN4h   SX2  1 3.650000e-01    1.750000e+00
  TN3h   SX2  1 3.650000e-01    1.750000e+00
  TN2h   SX2  1 3.650000e-01    1.750000e+00
  TN1h   SX2  1 3.650000e-01    1.750000e+00
  TC6h   SX2  1 3.650000e-01    1.910000e+00
  TC5h   SX2  1 3.650000e-01    1.750000e+00
  TC4h   SX2  1 3.650000e-01    1.750000e+00
  TC3h   SX2  1 3.650000e-01    1.750000e+00
  TC2h   SX2  1 3.650000e-01    1.750000e+00
  TC1h   SX2  1 3.650000e-01    1.750000e+00
  TX4h   SX2  1 3.650000e-01    1.910000e+00
  TX3h   SX2  1 3.650000e-01    2.110000e+00
 TX3eh   SX2  1 3.650000e-01    2.340000e+00
 TX4eh   SX2  1 3.650000e-01    2.110000e+00
 TC1eh   SX2  1 3.650000e-01    1.910000e+00
 TC2eh   SX2  1 3.650000e-01    1.910000e+00
 TC3eh   SX2  1 3.650000e-01    1.910000e+00
 TC4eh   SX2  1 3.650000e-01    1.910000e+00
 TC5eh   SX2  1 3.650000e-01    1.910000e+00
 TC6eh   SX2  1 3.650000e-01    2.110000e+00
 TX3vh   SX2  1 3.650000e-01    2.340000e+00
 TX4vh   SX2  1 3.650000e-01    2.110000e+00
 TC1vh   SX2  1 3.650000e-01    1.910000e+00
 TC2vh   SX2  1 3.650000e-01    1.910000e+00
 TC3vh   SX2  1 3.650000e-01    1.910000e+00
 TC4vh   SX2  1 3.650000e-01    1.910000e+00
 TC5vh   SX2  1 3.650000e-01    1.910000e+00
 TC6vh   SX2  1 3.650000e-01    2.110000e+00
 TN1ah   SX2  1 3.650000e-01    1.750000e+00
 TN2ah   SX2  1 3.650000e-01    1.750000e+00
 TN3ah   SX2  1 3.650000e-01    1.750000e+00
 TN4ah   SX2  1 3.650000e-01    1.750000e+00
 TN5ah   SX2  1 3.650000e-01    1.750000e+00
 TN6ah   SX2  1 3.660000e-01    1.600000e+00
 TP1ah   SX2  1 3.660000e-01    1.600000e+00
 TP2ah   SX2  1 3.660000e-01    1.600000e+00
 TP3ah   SX2  1 3.660000e-01    1.600000e+00
 TP4ah   SX2  1 3.660000e-01    1.600000e+00
 TP5ah   SX2  1 3.660000e-01    1.600000e+00
 TP6ah   SX2  1 3.780000e-01    1.450000e+00
 TN1dh   SX2  1 3.650000e-01    1.750000e+00
 TN2dh   SX2  1 3.650000e-01    1.750000e+00
 TN3dh   SX2  1 3.650000e-01    1.750000e+00
 TN4dh   SX2  1 3.650000e-01    1.750000e+00
 TN5dh   SX2  1 3.650000e-01    1.750000e+00
 TN6dh   SX2  1 3.660000e-01    1.600000e+00
 TP1dh   SX2  1 3.660000e-01    1.600000e+00
 TP2dh   SX2  1 3.660000e-01    1.600000e+00
 TP3dh   SX2  1 3.660000e-01    1.600000e+00
 TP4dh   SX2  1 3.660000e-01    1.600000e+00
 TP5dh   SX2  1 3.660000e-01    1.600000e+00
 TP6dh   SX2  1 3.780000e-01    1.450000e+00
  TP6r   SX2  1 3.780000e-01    1.450000e+00
  TP5r   SX2  1 3.660000e-01    1.600000e+00
  TP4r   SX2  1 3.660000e-01    1.600000e+00
  TP3r   SX2  1 3.660000e-01    1.600000e+00
  TP2r   SX2  1 3.660000e-01    1.600000e+00
  TP1r   SX2  1 3.660000e-01    1.600000e+00
  TN6r   SX2  1 3.660000e-01    1.600000e+00
  TN5r   SX2  1 3.650000e-01    1.750000e+00
  TN4r   SX2  1 3.650000e-01    1.750000e+00
  TN3r   SX2  1 3.650000e-01    1.750000e+00
  TN2r   SX2  1 3.650000e-01    1.750000e+00
  TN1r   SX2  1 3.650000e-01    1.750000e+00
  TC6r   SX2  1 3.650000e-01    1.910000e+00
  TC5r   SX2  1 3.650000e-01    1.750000e+00
  TC4r   SX2  1 3.650000e-01    1.750000e+00
  TC3r   SX2  1 3.650000e-01    1.750000e+00
  TC2r   SX2  1 3.650000e-01    1.750000e+00
  TC1r   SX2  1 3.650000e-01    1.750000e+00
  TX4r   SX2  1 3.650000e-01    1.910000e+00
  TX3r   SX2  1 3.650000e-01    2.110000e+00
 TX3er   SX2  1 3.650000e-01    2.340000e+00
 TX4er   SX2  1 3.650000e-01    2.110000e+00
 TC1er   SX2  1 3.650000e-01    1.910000e+00
 TC2er   SX2  1 3.650000e-01    1.910000e+00
 TC3er   SX2  1 3.650000e-01    1.910000e+00
 TC4er   SX2  1 3.650000e-01    1.910000e+00
 TC5er   SX2  1 3.650000e-01    1.910000e+00
 TC6er   SX2  1 3.650000e-01    2.110000e+00
 TX3vr   SX2  1 3.650000e-01    2.340000e+00
 TX4vr   SX2  1 3.650000e-01    2.110000e+00
 TC1vr   SX2  1 3.650000e-01    1.910000e+00
 TC2vr   SX2  1 3.650000e-01    1.910000e+00
 TC3vr   SX2  1 3.650000e-01    1.910000e+00
 TC4vr   SX2  1 3.650000e-01    1.910000e+00
 TC5vr   SX2  1 3.650000e-01    1.910000e+00
 TC6vr   SX2  1 3.650000e-01    2.110000e+00
 TN1ar   SX2  1 3.650000e-01    1.750000e+00
 TN2ar   SX2  1 3.650000e-01    1.750000e+00
 TN3ar   SX2  1 3.650000e-01    1.750000e+00
 TN4ar   SX2  1 3.650000e-01    1.750000e+00
 TN5ar   SX2  1 3.650000e-01    1.750000e+00
 TN6ar   SX2  1 3.660000e-01    1.600000e+00
 TP1ar   SX2  1 3.660000e-01    1.600000e+00
 TP2ar   SX2  1 3.660000e-01    1.600000e+00
 TP3ar   SX2  1 3.660000e-01    1.600000e+00
 TP4ar   SX2  1 3.660000e-01    1.600000e+00
 TP5ar   SX2  1 3.660000e-01    1.600000e+00
 TP6ar   SX2  1 3.780000e-01    1.450000e+00
 TN1dr   SX2  1 3.650000e-01    1.750000e+00
 TN2dr   SX2  1 3.650000e-01    1.750000e+00
 TN3dr   SX2  1 3.650000e-01    1.750000e+00
 TN4dr   SX2  1 3.650000e-01    1.750000e+00
 TN5dr   SX2  1 3.650000e-01    1.750000e+00
 TN6dr   SX2  1 3.660000e-01    1.600000e+00
 TP1dr   SX2  1 3.660000e-01    1.600000e+00
 TP2dr   SX2  1 3.660000e-01    1.600000e+00
 TP3dr   SX2  1 3.660000e-01    1.600000e+00
 TP4dr   SX2  1 3.660000e-01    1.600000e+00
 TP5dr   SX2  1 3.660000e-01    1.600000e+00
 TP6dr   SX2  1 3.780000e-01    1.450000e+00
   P6d   TX2  1 3.950000e-01    1.670000e+00
   P5d   TX2  1 3.950000e-01    1.850000e+00
   P4d   TX2  1 3.950000e-01    1.850000e+00
   P3d   TX2  1 3.950000e-01    1.850000e+00
   P2d   TX2  1 3.950000e-01    1.850000e+00
   P1d   TX2  1 3.950000e-01    1.850000e+00
   N6d   TX2  1 3.950000e-01    1.850000e+00
   N5d   TX2  1 3.950000e-01    2.110000e+00
   N4d   TX2  1 3.950000e-01    2.110000e+00
   N3d   TX2  1 3.950000e-01    2.110000e+00
   N2d   TX2  1 3.950000e-01    2.110000e+00
   N1d   TX2  1 3.950000e-01    2.110000e+00
   P6a   TX2  1 3.950000e-01    1.670000e+00
   P5a   TX2  1 3.950000e-01    1.850000e+00
   P4a   TX2  1 3.950000e-01    1.850000e+00
   P3a   TX2  1 3.950000e-01    1.850000e+00
   P2a   TX2  1 3.950000e-01    1.850000e+00
   P1a   TX2  1 3.950000e-01    1.850000e+00
   N6a   TX2  1 3.950000e-01    1.850000e+00
   N5a   TX2  1 3.950000e-01    2.110000e+00
   N4a   TX2  1 3.950000e-01    2.110000e+00
   N3a   TX2  1 3.950000e-01    2.110000e+00
   N2a   TX2  1 3.950000e-01    2.110000e+00
   N1a   TX2  1 3.950000e-01    2.110000e+00
   C6v   TX2  1 3.950000e-01    2.500000e+00
   C5v   TX2  1 3.950000e-01    2.310000e+00
   C4v   TX2  1 3.950000e-01    2.310000e+00
   C3v   TX2  1 3.950000e-01    2.310000e+00
   C2v   TX2  1 3.950000e-01    2.310000e+00
   C1v   TX2  1 3.950000e-01    2.310000e+00
   X4v   TX2  1 3.950000e-01    2.500000e+00
   X3v   TX2  1 3.950000e-01    2.700000e+00
   C6e   TX2  1 3.950000e-01    2.500000e+00
   C5e   TX2  1 3.950000e-01    2.310000e+00
   C4e   TX2  1 3.950000e-01    2.310000e+00
   C3e   TX2  1 3.950000e-01    2.310000e+00
   C2e   TX2  1 3.950000e-01    2.310000e+00
   C1e   TX2  1 3.950000e-01    2.310000e+00
   X4e   TX2  1 3.950000e-01    2.500000e+00
   X3e   TX2  1 3.950000e-01    2.700000e+00
   P6q   TX2  1 3.950000e-01    2.110000e+00
   P5q   TX2  1 3.950000e-01    2.310000e+00
   P4q   TX2  1 3.950000e-01    2.310000e+00
   P3q   TX2  1 3.950000e-01    2.310000e+00
   P2q   TX2  1 3.950000e-01    2.310000e+00
   P1q   TX2  1 3.950000e-01    2.310000e+00
   N6q   TX2  1 3.950000e-01    2.310000e+00
   N5q   TX2  1 3.950000e-01    2.500000e+00
   N4q   TX2  1 3.950000e-01    2.500000e+00
   N3q   TX2  1 3.950000e-01    2.500000e+00
   N2q   TX2  1 3.950000e-01    2.500000e+00
   N1q   TX2  1 3.950000e-01    2.500000e+00
   C6q   TX2  1 3.950000e-01    2.700000e+00
   C5q   TX2  1 3.950000e-01    2.500000e+00
   C4q   TX2  1 3.950000e-01    2.500000e+00
   C3q   TX2  1 3.950000e-01    2.500000e+00
   C2q   TX2  1 3.950000e-01    2.500000e+00
   C1q   TX2  1 3.950000e-01    2.500000e+00
   X4q   TX2  1 3.950000e-01    2.700000e+00
   X3q   TX2  1 3.950000e-01    2.940000e+00
  X3eq   TX2  1 3.950000e-01    3.190000e+00
  X4eq   TX2  1 3.950000e-01    2.940000e+00
  C1eq   TX2  1 3.950000e-01    2.700000e+00
  C2eq   TX2  1 3.950000e-01    2.700000e+00
  C3eq   TX2  1 3.950000e-01    2.700000e+00
  C4eq   TX2  1 3.950000e-01    2.700000e+00
  C5eq   TX2  1 3.950000e-01    2.700000e+00
  C6eq   TX2  1 3.950000e-01    2.940000e+00
  X3vq   TX2  1 3.950000e-01    3.190000e+00
  X4vq   TX2  1 3.950000e-01    2.940000e+00
  C1vq   TX2  1 3.950000e-01    2.700000e+00
  C2vq   TX2  1 3.950000e-01    2.700000e+00
  C3vq   TX2  1 3.950000e-01    2.700000e+00
  C4vq   TX2  1 3.950000e-01    2.700000e+00
  C5vq   TX2  1 3.950000e-01    2.700000e+00
  C6vq   TX2  1 3.950000e-01    2.940000e+00
  N1aq   TX2  1 3.950000e-01    2.500000e+00
  N2aq   TX2  1 3.950000e-01    2.500000e+00
  N3aq   TX2  1 3.950000e-01    2.500000e+00
  N4aq   TX2  1 3.950000e-01    2.500000e+00
  N5aq   TX2  1 3.950000e-01    2.500000e+00
  N6aq   TX2  1 3.950000e-01    2.310000e+00
  P1aq   TX2  1 3.950000e-01    2.310000e+00
  P2aq   TX2  1 3.950000e-01    2.310000e+00
  P3aq   TX2  1 3.950000e-01    2.310000e+00
  P4aq   TX2  1 3.950000e-01    2.310000e+00
  P5aq   TX2  1 3.950000e-01    2.310000e+00
  P6aq   TX2  1 3.950000e-01    2.110000e+00
  N1dq   TX2  1 3.950000e-01    2.500000e+00
  N2dq   TX2  1 3.950000e-01    2.500000e+00
  N3dq   TX2  1 3.950000e-01    2.500000e+00
  N4dq   TX2  1 3.950000e-01    2.500000e+00
  N5dq   TX2  1 3.950000e-01    2.500000e+00
  N6dq   TX2  1 3.950000e-01    2.310000e+00
  P1dq   TX2  1 3.950000e-01    2.310000e+00
  P2dq   TX2  1 3.950000e-01    2.310000e+00
  P3dq   TX2  1 3.950000e-01    2.310000e+00
  P4dq   TX2  1 3.950000e-01    2.310000e+00
  P5dq   TX2  1 3.950000e-01    2.310000e+00
  P6dq   TX2  1 3.950000e-01    2.110000e+00
   P6h   TX2  1 3.950000e-01    1.670000e+00
   P5h   TX2  1 3.950000e-01    1.850000e+00
   P4h   TX2  1 3.950000e-01    1.850000e+00
   P3h   TX2  1 3.950000e-01    1.850000e+00
   P2h   TX2  1 3.950000e-01    1.850000e+00
   P1h   TX2  1 3.950000e-01    1.850000e+00
   N6h   TX2  1 3.950000e-01    1.850000e+00
   N5h   TX2  1 3.950000e-01    2.110000e+00
   N4h   TX2  1 3.950000e-01    2.110000e+00
   N3h   TX2  1 3.950000e-01    2.110000e+00
   N2h   TX2  1 3.950000e-01    2.110000e+00
   N1h   TX2  1 3.950000e-01    2.110000e+00
   C6h   TX2  1 3.950000e-01    2.310000e+00
   C5h   TX2  1 3.950000e-01    2.110000e+00
   C4h   TX2  1 3.950000e-01    2.110000e+00
   C3h   TX2  1 3.950000e-01    2.110000e+00
   C2h   TX2  1 3.950000e-01    2.110000e+00
   C1h   TX2  1 3.950000e-01    2.110000e+00
   X4h   TX2  1 3.950000e-01    2.310000e+00
   X3h   TX2  1 3.950000e-01    2.500000e+00
  X3eh   TX2  1 3.950000e-01    2.700000e+00
  X4eh   TX2  1 3.950000e-01    2.500000e+00
  C1eh   TX2  1 3.950000e-01    2.310000e+00
  C2eh   TX2  1 3.950000e-01    2.310000e+00
  C3eh   TX2  1 3.950000e-01    2.310000e+00
  C4eh   TX2  1 3.950000e-01    2.310000e+00
  C5eh   TX2  1 3.950000e-01    2.310000e+00
  C6eh   TX2  1 3.950000e-01    2.500000e+00
  X3vh   TX2  1 3.950000e-01    2.700000e+00
  X4vh   TX2  1 3.950000e-01    2.500000e+00
  C1vh   TX2  1 3.950000e-01    2.310000e+00
  C2vh   TX2  1 3.950000e-01    2.310000e+00
  C3vh   TX2  1 3.950000e-01    2.310000e+00
  C4vh   TX2  1 3.950000e-01    2.310000e+00
  C5vh   TX2  1 3.950000e-01    2.310000e+00
  C6vh   TX2  1 3.950000e-01    2.500000e+00
  N1ah   TX2  1 3.950000e-01    2.110000e+00
  N2ah   TX2  1 3.950000e-01    2.110000e+00
  N3ah   TX2  1 3.950000e-01    2.110000e+00
  N4ah   TX2  1 3.950000e-01    2.110000e+00
  N5ah   TX2  1 3.950000e-01    2.110000e+00
  N6ah   TX2  1 3.950000e-01    1.850000e+00
  P1ah   TX2  1 3.950000e-01    1.850000e+00
  P2ah   TX2  1 3.950000e-01    1.850000e+00
  P3ah   TX2  1 3.950000e-01    1.850000e+00
  P4ah   TX2  1 3.950000e-01    1.850000e+00
  P5ah   TX2  1 3.950000e-01    1.850000e+00
  P6ah   TX2  1 3.950000e-01    1.670000e+00
  N1dh   TX2  1 3.950000e-01    2.110000e+00
  N2dh   TX2  1 3.950000e-01    2.110000e+00
  N3dh   TX2  1 3.950000e-01    2.110000e+00
  N4dh   TX2  1 3.950000e-01    2.110000e+00
  N5dh   TX2  1 3.950000e-01    2.110000e+00
  N6dh   TX2  1 3.950000e-01    1.850000e+00
  P1dh   TX2  1 3.950000e-01    1.850000e+00
  P2dh   TX2  1 3.950000e-01    1.850000e+00
  P3dh   TX2  1 3.950000e-01    1.850000e+00
  P4dh   TX2  1 3.950000e-01    1.850000e+00
  P5dh   TX2  1 3.950000e-01    1.850000e+00
  P6dh   TX2  1 3.950000e-01    1.670000e+00
   P6r   TX2  1 3.950000e-01    1.670000e+00
   P5r   TX2  1 3.950000e-01    1.850000e+00
   P4r   TX2  1 3.950000e-01    1.850000e+00
   P3r   TX2  1 3.950000e-01    1.850000e+00
   P2r   TX2  1 3.950000e-01    1.850000e+00
   P1r   TX2  1 3.950000e-01    1.850000e+00
   N6r   TX2  1 3.950000e-01    1.850000e+00
   N5r   TX2  1 3.950000e-01    2.110000e+00
   N4r   TX2  1 3.950000e-01    2.110000e+00
   N3r   TX2  1 3.950000e-01    2.110000e+00
   N2r   TX2  1 3.950000e-01    2.110000e+00
   N1r   TX2  1 3.950000e-01    2.110000e+00
   C6r   TX2  1 3.950000e-01    2.310000e+00
   C5r   TX2  1 3.950000e-01    2.110000e+00
   C4r   TX2  1 3.950000e-01    2.110000e+00
   C3r   TX2  1 3.950000e-01    2.110000e+00
   C2r   TX2  1 3.950000e-01    2.110000e+00
   C1r   TX2  1 3.950000e-01    2.110000e+00
   X4r   TX2  1 3.950000e-01    2.310000e+00
   X3r   TX2  1 3.950000e-01    2.500000e+00
  X3er   TX2  1 3.950000e-01    2.700000e+00
  X4er   TX2  1 3.950000e-01    2.500000e+00
  C1er   TX2  1 3.950000e-01    2.310000e+00
  C2er   TX2  1 3.950000e-01    2.310000e+00
  C3er   TX2  1 3.950000e-01    2.310000e+00
  C4er   TX2  1 3.950000e-01    2.310000e+00
  C5er   TX2  1 3.950000e-01    2.310000e+00
  C6er   TX2  1 3.950000e-01    2.500000e+00
  X3vr   TX2  1 3.950000e-01    2.700000e+00
  X4vr   TX2  1 3.950000e-01    2.500000e+00
  C1vr   TX2  1 3.950000e-01    2.310000e+00
  C2vr   TX2  1 3.950000e-01    2.310000e+00
  C3vr   TX2  1 3.950000e-01    2.310000e+00
  C4vr   TX2  1 3.950000e-01    2.310000e+00
  C5vr   TX2  1 3.950000e-01    2.310000e+00
  C6vr   TX2  1 3.950000e-01    2.500000e+00
  N1ar   TX2  1 3.950000e-01    2.110000e+00
  N2ar   TX2  1 3.950000e-01    2.110000e+00
  N3ar   TX2  1 3.950000e-01    2.110000e+00
  N4ar   TX2  1 3.950000e-01    2.110000e+00
  N5ar   TX2  1 3.950000e-01    2.110000e+00
  N6ar   TX2  1 3.950000e-01    1.850000e+00
  P1ar   TX2  1 3.950000e-01    1.850000e+00
  P2ar   TX2  1 3.950000e-01    1.850000e+00
  P3ar   TX2  1 3.950000e-01    1.850000e+00
  P4ar   TX2  1 3.950000e-01    1.850000e+00
  P5ar   TX2  1 3.950000e-01    1.850000e+00
  P6ar   TX2  1 3.950000e-01    1.670000e+00
  N1dr   TX2  1 3.950000e-01    2.110000e+00
  N2dr   TX2  1 3.950000e-01    2.110000e+00
  N3dr   TX2  1 3.950000e-01    2.110000e+00
  N4dr   TX2  1 3.950000e-01    2.110000e+00
  N5dr   TX2  1 3.950000e-01    2.110000e+00
  N6dr   TX2  1 3.950000e-01    1.850000e+00
  P1dr   TX2  1 3.950000e-01    1.850000e+00
  P2dr   TX2  1 3.950000e-01    1.850000e+00
  P3dr   TX2  1 3.950000e-01    1.850000e+00
  P4dr   TX2  1 3.950000e-01    1.850000e+00
  P5dr   TX2  1 3.950000e-01    1.850000e+00
  P6dr   TX2  1 3.950000e-01    1.670000e+00
   TX2    X1  1 3.950000e-01    2.500000e+00
   TX2   X2v  1 3.950000e-01    2.700000e+00
   TX2   X1v  1 3.950000e-01    2.700000e+00
   TX2   X2e  1 3.950000e-01    2.700000e+00
   TX2   X1e  1 3.950000e-01    2.700000e+00
   TX2   X2q  1 3.950000e-01    2.940000e+00
   TX2  X1eq  1 3.950000e-01    3.190000e+00
   TX2  X2eq  1 3.950000e-01    3.190000e+00
   TX2  X1vq  1 3.950000e-01    3.190000e+00
   TX2  X2vq  1 3.950000e-01    3.190000e+00
   TX2   X1q  1 3.950000e-01    2.940000e+00
   TX2   X2h  1 3.950000e-01    2.500000e+00
   TX2  X1eh  1 3.950000e-01    2.700000e+00
   TX2  X2eh  1 3.950000e-01    2.700000e+00
   TX2  X1vh  1 3.950000e-01    2.700000e+00
   TX2  X2vh  1 3.950000e-01    2.700000e+00
   TX2   X1h  1 3.950000e-01    2.500000e+00
   TX2   X2r  1 3.950000e-01    2.500000e+00
   TX2  X1er  1 3.950000e-01    2.700000e+00
   TX2  X2er  1 3.950000e-01    2.700000e+00
   TX2  X1vr  1 3.950000e-01    2.700000e+00
   TX2  X2vr  1 3.950000e-01    2.700000e+00
   TX2   X1r  1 3.950000e-01    2.500000e+00
   TX2   TX2  1 3.400000e-01    1.770000e+00
   TX2   TX1  1 3.400000e-01    1.770000e+00
  TP6d   TX2  1 3.660000e-01    9.350000e-01
  TP5d   TX2  1 3.520000e-01    1.050000e+00
  TP4d   TX2  1 3.520000e-01    1.050000e+00
  TP3d   TX2  1 3.520000e-01    1.050000e+00
  TP2d   TX2  1 3.520000e-01    1.050000e+00
  TP1d   TX2  1 3.520000e-01    1.050000e+00
  TN6d   TX2  1 3.520000e-01    1.050000e+00
  TN5d   TX2  1 3.400000e-01    1.230000e+00
  TN4d   TX2  1 3.400000e-01    1.230000e+00
  TN3d   TX2  1 3.400000e-01    1.230000e+00
  TN2d   TX2  1 3.400000e-01    1.230000e+00
  TN1d   TX2  1 3.400000e-01    1.230000e+00
  TP6a   TX2  1 3.660000e-01    9.350000e-01
  TP5a   TX2  1 3.520000e-01    1.050000e+00
  TP4a   TX2  1 3.520000e-01    1.050000e+00
  TP3a   TX2  1 3.520000e-01    1.050000e+00
  TP2a   TX2  1 3.520000e-01    1.050000e+00
  TP1a   TX2  1 3.520000e-01    1.050000e+00
  TN6a   TX2  1 3.520000e-01    1.050000e+00
  TN5a   TX2  1 3.400000e-01    1.230000e+00
  TN4a   TX2  1 3.400000e-01    1.230000e+00
  TN3a   TX2  1 3.400000e-01    1.230000e+00
  TN2a   TX2  1 3.400000e-01    1.230000e+00
  TN1a   TX2  1 3.400000e-01    1.230000e+00
  TC6v   TX2  1 3.400000e-01    1.770000e+00
  TC5v   TX2  1 3.400000e-01    1.510000e+00
  TC4v   TX2  1 3.400000e-01    1.510000e+00
  TC3v   TX2  1 3.400000e-01    1.510000e+00
  TC2v   TX2  1 3.400000e-01    1.510000e+00
  TC1v   TX2  1 3.400000e-01    1.510000e+00
  TX4v   TX2  1 3.400000e-01    1.770000e+00
  TX3v   TX2  1 3.400000e-01    2.020000e+00
   TX2  TX2v  1 3.400000e-01    2.020000e+00
   TX2  TX1v  1 3.400000e-01    2.020000e+00
  TC6e   TX2  1 3.400000e-01    1.770000e+00
  TC5e   TX2  1 3.400000e-01    1.510000e+00
  TC4e   TX2  1 3.400000e-01    1.510000e+00
  TC3e   TX2  1 3.400000e-01    1.510000e+00
  TC2e   TX2  1 3.400000e-01    1.510000e+00
  TC1e   TX2  1 3.400000e-01    1.510000e+00
  TX4e   TX2  1 3.400000e-01    1.770000e+00
  TX3e   TX2  1 3.400000e-01    2.020000e+00
   TX2  TX2e  1 3.400000e-01    2.020000e+00
   TX2  TX1e  1 3.400000e-01    2.020000e+00
  TP6q   TX2  1 3.400000e-01    1.230000e+00
  TP5q   TX2  1 3.400000e-01    1.510000e+00
  TP4q   TX2  1 3.400000e-01    1.510000e+00
  TP3q   TX2  1 3.400000e-01    1.510000e+00
  TP2q   TX2  1 3.400000e-01    1.510000e+00
  TP1q   TX2  1 3.400000e-01    1.510000e+00
  TN6q   TX2  1 3.400000e-01    1.510000e+00
  TN5q   TX2  1 3.400000e-01    1.770000e+00
  TN4q   TX2  1 3.400000e-01    1.770000e+00
  TN3q   TX2  1 3.400000e-01    1.770000e+00
  TN2q   TX2  1 3.400000e-01    1.770000e+00
  TN1q   TX2  1 3.400000e-01    1.770000e+00
  TC6q   TX2  1 3.400000e-01    2.020000e+00
  TC5q   TX2  1 3.400000e-01    1.770000e+00
  TC4q   TX2  1 3.400000e-01    1.770000e+00
  TC3q   TX2  1 3.400000e-01    1.770000e+00
  TC2q   TX2  1 3.400000e-01    1.770000e+00
  TC1q   TX2  1 3.400000e-01    1.770000e+00
  TX4q   TX2  1 3.400000e-01    2.020000e+00
  TX3q   TX2  1 3.400000e-01    2.280000e+00
   TX2  TX2q  1 3.400000e-01    2.280000e+00
   TX2 TX1eq  1 3.400000e-01    2.500000e+00
   TX2 TX2eq  1 3.400000e-01    2.500000e+00
 TX3eq   TX2  1 3.400000e-01    2.500000e+00
 TX4eq   TX2  1 3.400000e-01    2.280000e+00
 TC1eq   TX2  1 3.400000e-01    2.020000e+00
 TC2eq   TX2  1 3.400000e-01    2.020000e+00
 TC3eq   TX2  1 3.400000e-01    2.020000e+00
 TC4eq   TX2  1 3.400000e-01    2.020000e+00
 TC5eq   TX2  1 3.400000e-01    2.020000e+00
 TC6eq   TX2  1 3.400000e-01    2.280000e+00
   TX2 TX1vq  1 3.400000e-01    2.500000e+00
   TX2 TX2vq  1 3.400000e-01    2.500000e+00
 TX3vq   TX2  1 3.400000e-01    2.500000e+00
 TX4vq   TX2  1 3.400000e-01    2.280000e+00
 TC1vq   TX2  1 3.400000e-01    2.020000e+00
 TC2vq   TX2  1 3.400000e-01    2.020000e+00
 TC3vq   TX2  1 3.400000e-01    2.020000e+00
 TC4vq   TX2  1 3.400000e-01    2.020000e+00
 TC5vq   TX2  1 3.400000e-01    2.020000e+00
 TC6vq   TX2  1 3.400000e-01    2.280000e+00
 TN1aq   TX2  1 3.400000e-01    1.770000e+00
 TN2aq   TX2  1 3.400000e-01    1.770000e+00
 TN3aq   TX2  1 3.400000e-01    1.770000e+00
 TN4aq   TX2  1 3.400000e-01    1.770000e+00
 TN5aq   TX2  1 3.400000e-01    1.770000e+00
 TN6aq   TX2  1 3.400000e-01    1.510000e+00
 TP1aq   TX2  1 3.400000e-01    1.510000e+00
 TP2aq   TX2  1 3.400000e-01    1.510000e+00
 TP3aq   TX2  1 3.400000e-01    1.510000e+00
 TP4aq   TX2  1 3.400000e-01    1.510000e+00
 TP5aq   TX2  1 3.400000e-01    1.510000e+00
 TP6aq   TX2  1 3.400000e-01    1.230000e+00
 TN1dq   TX2  1 3.400000e-01    1.770000e+00
 TN2dq   TX2  1 3.400000e-01    1.770000e+00
 TN3dq   TX2  1 3.400000e-01    1.770000e+00
 TN4dq   TX2  1 3.400000e-01    1.770000e+00
 TN5dq   TX2  1 3.400000e-01    1.770000e+00
 TN6dq   TX2  1 3.400000e-01    1.510000e+00
 TP1dq   TX2  1 3.400000e-01    1.510000e+00
 TP2dq   TX2  1 3.400000e-01    1.510000e+00
 TP3dq   TX2  1 3.400000e-01    1.510000e+00
 TP4dq   TX2  1 3.400000e-01    1.510000e+00
 TP5dq   TX2  1 3.400000e-01    1.510000e+00
 TP6dq   TX2  1 3.400000e-01    1.230000e+00
   TX2  TX1q  1 3.400000e-01    2.280000e+00
  TP6h   TX2  1 3.660000e-01    9.350000e-01
  TP5h   TX2  1 3.520000e-01    1.050000e+00
  TP4h   TX2  1 3.520000e-01    1.050000e+00
  TP3h   TX2  1 3.520000e-01    1.050000e+00
  TP2h   TX2  1 3.520000e-01    1.050000e+00
  TP1h   TX2  1 3.520000e-01    1.050000e+00
  TN6h   TX2  1 3.520000e-01    1.050000e+00
  TN5h   TX2  1 3.400000e-01    1.230000e+00
  TN4h   TX2  1 3.400000e-01    1.230000e+00
  TN3h   TX2  1 3.400000e-01    1.230000e+00
  TN2h   TX2  1 3.400000e-01    1.230000e+00
  TN1h   TX2  1 3.400000e-01    1.230000e+00
  TC6h   TX2  1 3.400000e-01    1.510000e+00
  TC5h   TX2  1 3.400000e-01    1.230000e+00
  TC4h   TX2  1 3.400000e-01    1.230000e+00
  TC3h   TX2  1 3.400000e-01    1.230000e+00
  TC2h   TX2  1 3.400000e-01    1.230000e+00
  TC1h   TX2  1 3.400000e-01    1.230000e+00
  TX4h   TX2  1 3.400000e-01    1.510000e+00
  TX3h   TX2  1 3.400000e-01    1.770000e+00
   TX2  TX2h  1 3.400000e-01    1.770000e+00
   TX2 TX1eh  1 3.400000e-01    2.020000e+00
   TX2 TX2eh  1 3.400000e-01    2.020000e+00
 TX3eh   TX2  1 3.400000e-01    2.020000e+00
 TX4eh   TX2  1 3.400000e-01    1.770000e+00
 TC1eh   TX2  1 3.400000e-01    1.510000e+00
 TC2eh   TX2  1 3.400000e-01    1.510000e+00
 TC3eh   TX2  1 3.400000e-01    1.510000e+00
 TC4eh   TX2  1 3.400000e-01    1.510000e+00
 TC5eh   TX2  1 3.400000e-01    1.510000e+00
 TC6eh   TX2  1 3.400000e-01    1.770000e+00
   TX2 TX1vh  1 3.400000e-01    2.020000e+00
   TX2 TX2vh  1 3.400000e-01    2.020000e+00
 TX3vh   TX2  1 3.400000e-01    2.020000e+00
 TX4vh   TX2  1 3.400000e-01    1.770000e+00
 TC1vh   TX2  1 3.400000e-01    1.510000e+00
 TC2vh   TX2  1 3.400000e-01    1.510000e+00
 TC3vh   TX2  1 3.400000e-01    1.510000e+00
 TC4vh   TX2  1 3.400000e-01    1.510000e+00
 TC5vh   TX2  1 3.400000e-01    1.510000e+00
 TC6vh   TX2  1 3.400000e-01    1.770000e+00
 TN1ah   TX2  1 3.400000e-01    1.230000e+00
 TN2ah   TX2  1 3.400000e-01    1.230000e+00
 TN3ah   TX2  1 3.400000e-01    1.230000e+00
 TN4ah   TX2  1 3.400000e-01    1.230000e+00
 TN5ah   TX2  1 3.400000e-01    1.230000e+00
 TN6ah   TX2  1 3.520000e-01    1.050000e+00
 TP1ah   TX2  1 3.520000e-01    1.050000e+00
 TP2ah   TX2  1 3.520000e-01    1.050000e+00
 TP3ah   TX2  1 3.520000e-01    1.050000e+00
 TP4ah   TX2  1 3.520000e-01    1.050000e+00
 TP5ah   TX2  1 3.520000e-01    1.050000e+00
 TP6ah   TX2  1 3.660000e-01    9.350000e-01
 TN1dh   TX2  1 3.400000e-01    1.230000e+00
 TN2dh   TX2  1 3.400000e-01    1.230000e+00
 TN3dh   TX2  1 3.400000e-01    1.230000e+00
 TN4dh   TX2  1 3.400000e-01    1.230000e+00
 TN5dh   TX2  1 3.400000e-01    1.230000e+00
 TN6dh   TX2  1 3.520000e-01    1.050000e+00
 TP1dh   TX2  1 3.520000e-01    1.050000e+00
 TP2dh   TX2  1 3.520000e-01    1.050000e+00
 TP3dh   TX2  1 3.520000e-01    1.050000e+00
 TP4dh   TX2  1 3.520000e-01    1.050000e+00
 TP5dh   TX2  1 3.520000e-01    1.050000e+00
 TP6dh   TX2  1 3.660000e-01    9.350000e-01
   TX2  TX1h  1 3.400000e-01    1.770000e+00
  TP6r   TX2  1 3.660000e-01    9.350000e-01
  TP5r   TX2  1 3.520000e-01    1.050000e+00
  TP4r   TX2  1 3.520000e-01    1.050000e+00
  TP3r   TX2  1 3.520000e-01    1.050000e+00
  TP2r   TX2  1 3.520000e-01    1.050000e+00
  TP1r   TX2  1 3.520000e-01    1.050000e+00
  TN6r   TX2  1 3.520000e-01    1.050000e+00
  TN5r   TX2  1 3.400000e-01    1.230000e+00
  TN4r   TX2  1 3.400000e-01    1.230000e+00
  TN3r   TX2  1 3.400000e-01    1.230000e+00
  TN2r   TX2  1 3.400000e-01    1.230000e+00
  TN1r   TX2  1 3.400000e-01    1.230000e+00
  TC6r   TX2  1 3.400000e-01    1.510000e+00
  TC5r   TX2  1 3.400000e-01    1.230000e+00
  TC4r   TX2  1 3.400000e-01    1.230000e+00
  TC3r   TX2  1 3.400000e-01    1.230000e+00
  TC2r   TX2  1 3.400000e-01    1.230000e+00
  TC1r   TX2  1 3.400000e-01    1.230000e+00
  TX4r   TX2  1 3.400000e-01    1.510000e+00
  TX3r   TX2  1 3.400000e-01    1.770000e+00
   TX2  TX2r  1 3.400000e-01    1.770000e+00
   TX2 TX1er  1 3.400000e-01    2.020000e+00
   TX2 TX2er  1 3.400000e-01    2.020000e+00
 TX3er   TX2  1 3.400000e-01    2.020000e+00
 TX4er   TX2  1 3.400000e-01    1.770000e+00
 TC1er   TX2  1 3.400000e-01    1.510000e+00
 TC2er   TX2  1 3.400000e-01    1.510000e+00
 TC3er   TX2  1 3.400000e-01    1.510000e+00
 TC4er   TX2  1 3.400000e-01    1.510000e+00
 TC5er   TX2  1 3.400000e-01    1.510000e+00
 TC6er   TX2  1 3.400000e-01    1.770000e+00
   TX2 TX1vr  1 3.400000e-01    2.020000e+00
   TX2 TX2vr  1 3.400000e-01    2.020000e+00
 TX3vr   TX2  1 3.400000e-01    2.020000e+00
 TX4vr   TX2  1 3.400000e-01    1.770000e+00
 TC1vr   TX2  1 3.400000e-01    1.510000e+00
 TC2vr   TX2  1 3.400000e-01    1.510000e+00
 TC3vr   TX2  1 3.400000e-01    1.510000e+00
 TC4vr   TX2  1 3.400000e-01    1.510000e+00
 TC5vr   TX2  1 3.400000e-01    1.510000e+00
 TC6vr   TX2  1 3.400000e-01    1.770000e+00
 TN1ar   TX2  1 3.400000e-01    1.230000e+00
 TN2ar   TX2  1 3.400000e-01    1.230000e+00
 TN3ar   TX2  1 3.400000e-01    1.230000e+00
 TN4ar   TX2  1 3.400000e-01    1.230000e+00
 TN5ar   TX2  1 3.400000e-01    1.230000e+00
 TN6ar   TX2  1 3.520000e-01    1.050000e+00
 TP1ar   TX2  1 3.520000e-01    1.050000e+00
 TP2ar   TX2  1 3.520000e-01    1.050000e+00
 TP3ar   TX2  1 3.520000e-01    1.050000e+00
 TP4ar   TX2  1 3.520000e-01    1.050000e+00
 TP5ar   TX2  1 3.520000e-01    1.050000e+00
 TP6ar   TX2  1 3.660000e-01    9.350000e-01
 TN1dr   TX2  1 3.400000e-01    1.230000e+00
 TN2dr   TX2  1 3.400000e-01    1.230000e+00
 TN3dr   TX2  1 3.400000e-01    1.230000e+00
 TN4dr   TX2  1 3.400000e-01    1.230000e+00
 TN5dr   TX2  1 3.400000e-01    1.230000e+00
 TN6dr   TX2  1 3.520000e-01    1.050000e+00
 TP1dr   TX2  1 3.520000e-01    1.050000e+00
 TP2dr   TX2  1 3.520000e-01    1.050000e+00
 TP3dr   TX2  1 3.520000e-01    1.050000e+00
 TP4dr   TX2  1 3.520000e-01    1.050000e+00
 TP5dr   TX2  1 3.520000e-01    1.050000e+00
 TP6dr   TX2  1 3.660000e-01    9.350000e-01
   TX2  TX1r  1 3.400000e-01    1.770000e+00
  SP6d   TX2  1 3.780000e-01    1.450000e+00
  SP5d   TX2  1 3.660000e-01    1.600000e+00
  SP4d   TX2  1 3.660000e-01    1.600000e+00
  SP3d   TX2  1 3.660000e-01    1.600000e+00
  SP2d   TX2  1 3.660000e-01    1.600000e+00
  SP1d   TX2  1 3.660000e-01    1.600000e+00
  SN6d   TX2  1 3.660000e-01    1.600000e+00
  SN5d   TX2  1 3.650000e-01    1.750000e+00
  SN4d   TX2  1 3.650000e-01    1.750000e+00
  SN3d   TX2  1 3.650000e-01    1.750000e+00
  SN2d   TX2  1 3.650000e-01    1.750000e+00
  SN1d   TX2  1 3.650000e-01    1.750000e+00
  SP6a   TX2  1 3.780000e-01    1.450000e+00
  SP5a   TX2  1 3.660000e-01    1.600000e+00
  SP4a   TX2  1 3.660000e-01    1.600000e+00
  SP3a   TX2  1 3.660000e-01    1.600000e+00
  SP2a   TX2  1 3.660000e-01    1.600000e+00
  SP1a   TX2  1 3.660000e-01    1.600000e+00
  SN6a   TX2  1 3.660000e-01    1.600000e+00
  SN5a   TX2  1 3.650000e-01    1.750000e+00
  SN4a   TX2  1 3.650000e-01    1.750000e+00
  SN3a   TX2  1 3.650000e-01    1.750000e+00
  SN2a   TX2  1 3.650000e-01    1.750000e+00
  SN1a   TX2  1 3.650000e-01    1.750000e+00
  SC6v   TX2  1 3.650000e-01    2.110000e+00
  SC5v   TX2  1 3.650000e-01    1.910000e+00
  SC4v   TX2  1 3.650000e-01    1.910000e+00
  SC3v   TX2  1 3.650000e-01    1.910000e+00
  SC2v   TX2  1 3.650000e-01    1.910000e+00
  SC1v   TX2  1 3.650000e-01    1.910000e+00
  SX4v   TX2  1 3.650000e-01    2.110000e+00
  SX3v   TX2  1 3.650000e-01    2.340000e+00
  SC6e   TX2  1 3.650000e-01    2.110000e+00
  SC5e   TX2  1 3.650000e-01    1.910000e+00
  SC4e   TX2  1 3.650000e-01    1.910000e+00
  SC3e   TX2  1 3.650000e-01    1.910000e+00
  SC2e   TX2  1 3.650000e-01    1.910000e+00
  SC1e   TX2  1 3.650000e-01    1.910000e+00
  SX4e   TX2  1 3.650000e-01    2.110000e+00
  SX3e   TX2  1 3.650000e-01    2.340000e+00
  SP6q   TX2  1 3.650000e-01    1.750000e+00
  SP5q   TX2  1 3.650000e-01    1.910000e+00
  SP4q   TX2  1 3.650000e-01    1.910000e+00
  SP3q   TX2  1 3.650000e-01    1.910000e+00
  SP2q   TX2  1 3.650000e-01    1.910000e+00
  SP1q   TX2  1 3.650000e-01    1.910000e+00
  SN6q   TX2  1 3.650000e-01    1.910000e+00
  SN5q   TX2  1 3.650000e-01    2.110000e+00
  SN4q   TX2  1 3.650000e-01    2.110000e+00
  SN3q   TX2  1 3.650000e-01    2.110000e+00
  SN2q   TX2  1 3.650000e-01    2.110000e+00
  SN1q   TX2  1 3.650000e-01    2.110000e+00
  SC6q   TX2  1 3.650000e-01    2.340000e+00
  SC5q   TX2  1 3.650000e-01    2.110000e+00
  SC4q   TX2  1 3.650000e-01    2.110000e+00
  SC3q   TX2  1 3.650000e-01    2.110000e+00
  SC2q   TX2  1 3.650000e-01    2.110000e+00
  SC1q   TX2  1 3.650000e-01    2.110000e+00
  SX4q   TX2  1 3.650000e-01    2.340000e+00
  SX3q   TX2  1 3.650000e-01    2.570000e+00
 SX3eq   TX2  1 3.650000e-01    2.830000e+00
 SX4eq   TX2  1 3.650000e-01    2.570000e+00
 SC1eq   TX2  1 3.650000e-01    2.340000e+00
 SC2eq   TX2  1 3.650000e-01    2.340000e+00
 SC3eq   TX2  1 3.650000e-01    2.340000e+00
 SC4eq   TX2  1 3.650000e-01    2.340000e+00
 SC5eq   TX2  1 3.650000e-01    2.340000e+00
 SC6eq   TX2  1 3.650000e-01    2.570000e+00
 SX3vq   TX2  1 3.650000e-01    2.830000e+00
 SX4vq   TX2  1 3.650000e-01    2.570000e+00
 SC1vq   TX2  1 3.650000e-01    2.340000e+00
 SC2vq   TX2  1 3.650000e-01    2.340000e+00
 SC3vq   TX2  1 3.650000e-01    2.340000e+00
 SC4vq   TX2  1 3.650000e-01    2.340000e+00
 SC5vq   TX2  1 3.650000e-01    2.340000e+00
 SC6vq   TX2  1 3.650000e-01    2.570000e+00
 SN1aq   TX2  1 3.650000e-01    2.110000e+00
 SN2aq   TX2  1 3.650000e-01    2.110000e+00
 SN3aq   TX2  1 3.650000e-01    2.110000e+00
 SN4aq   TX2  1 3.650000e-01    2.110000e+00
 SN5aq   TX2  1 3.650000e-01    2.110000e+00
 SN6aq   TX2  1 3.650000e-01    1.910000e+00
 SP1aq   TX2  1 3.650000e-01    1.910000e+00
 SP2aq   TX2  1 3.650000e-01    1.910000e+00
 SP3aq   TX2  1 3.650000e-01    1.910000e+00
 SP4aq   TX2  1 3.650000e-01    1.910000e+00
 SP5aq   TX2  1 3.650000e-01    1.910000e+00
 SP6aq   TX2  1 3.650000e-01    1.750000e+00
 SN1dq   TX2  1 3.650000e-01    2.110000e+00
 SN2dq   TX2  1 3.650000e-01    2.110000e+00
 SN3dq   TX2  1 3.650000e-01    2.110000e+00
 SN4dq   TX2  1 3.650000e-01    2.110000e+00
 SN5dq   TX2  1 3.650000e-01    2.110000e+00
 SN6dq   TX2  1 3.650000e-01    1.910000e+00
 SP1dq   TX2  1 3.650000e-01    1.910000e+00
 SP2dq   TX2  1 3.650000e-01    1.910000e+00
 SP3dq   TX2  1 3.650000e-01    1.910000e+00
 SP4dq   TX2  1 3.650000e-01    1.910000e+00
 SP5dq   TX2  1 3.650000e-01    1.910000e+00
 SP6dq   TX2  1 3.650000e-01    1.750000e+00
  SP6h   TX2  1 3.780000e-01    1.450000e+00
  SP5h   TX2  1 3.660000e-01    1.600000e+00
  SP4h   TX2  1 3.660000e-01    1.600000e+00
  SP3h   TX2  1 3.660000e-01    1.600000e+00
  SP2h   TX2  1 3.660000e-01    1.600000e+00
  SP1h   TX2  1 3.660000e-01    1.600000e+00
  SN6h   TX2  1 3.660000e-01    1.600000e+00
  SN5h   TX2  1 3.650000e-01    1.750000e+00
  SN4h   TX2  1 3.650000e-01    1.750000e+00
  SN3h   TX2  1 3.650000e-01    1.750000e+00
  SN2h   TX2  1 3.650000e-01    1.750000e+00
  SN1h   TX2  1 3.650000e-01    1.750000e+00
  SC6h   TX2  1 3.650000e-01    1.910000e+00
  SC5h   TX2  1 3.650000e-01    1.750000e+00
  SC4h   TX2  1 3.650000e-01    1.750000e+00
  SC3h   TX2  1 3.650000e-01    1.750000e+00
  SC2h   TX2  1 3.650000e-01    1.750000e+00
  SC1h   TX2  1 3.650000e-01    1.750000e+00
  SX4h   TX2  1 3.650000e-01    1.910000e+00
  SX3h   TX2  1 3.650000e-01    2.110000e+00
 SX3eh   TX2  1 3.650000e-01    2.340000e+00
 SX4eh   TX2  1 3.650000e-01    2.110000e+00
 SC1eh   TX2  1 3.650000e-01    1.910000e+00
 SC2eh   TX2  1 3.650000e-01    1.910000e+00
 SC3eh   TX2  1 3.650000e-01    1.910000e+00
 SC4eh   TX2  1 3.650000e-01    1.910000e+00
 SC5eh   TX2  1 3.650000e-01    1.910000e+00
 SC6eh   TX2  1 3.650000e-01    2.110000e+00
 SX3vh   TX2  1 3.650000e-01    2.340000e+00
 SX4vh   TX2  1 3.650000e-01    2.110000e+00
 SC1vh   TX2  1 3.650000e-01    1.910000e+00
 SC2vh   TX2  1 3.650000e-01    1.910000e+00
 SC3vh   TX2  1 3.650000e-01    1.910000e+00
 SC4vh   TX2  1 3.650000e-01    1.910000e+00
 SC5vh   TX2  1 3.650000e-01    1.910000e+00
 SC6vh   TX2  1 3.650000e-01    2.110000e+00
 SN1ah   TX2  1 3.650000e-01    1.750000e+00
 SN2ah   TX2  1 3.650000e-01    1.750000e+00
 SN3ah   TX2  1 3.650000e-01    1.750000e+00
 SN4ah   TX2  1 3.650000e-01    1.750000e+00
 SN5ah   TX2  1 3.650000e-01    1.750000e+00
 SN6ah   TX2  1 3.660000e-01    1.600000e+00
 SP1ah   TX2  1 3.660000e-01    1.600000e+00
 SP2ah   TX2  1 3.660000e-01    1.600000e+00
 SP3ah   TX2  1 3.660000e-01    1.600000e+00
 SP4ah   TX2  1 3.660000e-01    1.600000e+00
 SP5ah   TX2  1 3.660000e-01    1.600000e+00
 SP6ah   TX2  1 3.780000e-01    1.450000e+00
 SN1dh   TX2  1 3.650000e-01    1.750000e+00
 SN2dh   TX2  1 3.650000e-01    1.750000e+00
 SN3dh   TX2  1 3.650000e-01    1.750000e+00
 SN4dh   TX2  1 3.650000e-01    1.750000e+00
 SN5dh   TX2  1 3.650000e-01    1.750000e+00
 SN6dh   TX2  1 3.660000e-01    1.600000e+00
 SP1dh   TX2  1 3.660000e-01    1.600000e+00
 SP2dh   TX2  1 3.660000e-01    1.600000e+00
 SP3dh   TX2  1 3.660000e-01    1.600000e+00
 SP4dh   TX2  1 3.660000e-01    1.600000e+00
 SP5dh   TX2  1 3.660000e-01    1.600000e+00
 SP6dh   TX2  1 3.780000e-01    1.450000e+00
  SP6r   TX2  1 3.780000e-01    1.450000e+00
  SP5r   TX2  1 3.660000e-01    1.600000e+00
  SP4r   TX2  1 3.660000e-01    1.600000e+00
  SP3r   TX2  1 3.660000e-01    1.600000e+00
  SP2r   TX2  1 3.660000e-01    1.600000e+00
  SP1r   TX2  1 3.660000e-01    1.600000e+00
  SN6r   TX2  1 3.660000e-01    1.600000e+00
  SN5r   TX2  1 3.650000e-01    1.750000e+00
  SN4r   TX2  1 3.650000e-01    1.750000e+00
  SN3r   TX2  1 3.650000e-01    1.750000e+00
  SN2r   TX2  1 3.650000e-01    1.750000e+00
  SN1r   TX2  1 3.650000e-01    1.750000e+00
  SC6r   TX2  1 3.650000e-01    1.910000e+00
  SC5r   TX2  1 3.650000e-01    1.750000e+00
  SC4r   TX2  1 3.650000e-01    1.750000e+00
  SC3r   TX2  1 3.650000e-01    1.750000e+00
  SC2r   TX2  1 3.650000e-01    1.750000e+00
  SC1r   TX2  1 3.650000e-01    1.750000e+00
  SX4r   TX2  1 3.650000e-01    1.910000e+00
  SX3r   TX2  1 3.650000e-01    2.110000e+00
 SX3er   TX2  1 3.650000e-01    2.340000e+00
 SX4er   TX2  1 3.650000e-01    2.110000e+00
 SC1er   TX2  1 3.650000e-01    1.910000e+00
 SC2er   TX2  1 3.650000e-01    1.910000e+00
 SC3er   TX2  1 3.650000e-01    1.910000e+00
 SC4er   TX2  1 3.650000e-01    1.910000e+00
 SC5er   TX2  1 3.650000e-01    1.910000e+00
 SC6er   TX2  1 3.650000e-01    2.110000e+00
 SX3vr   TX2  1 3.650000e-01    2.340000e+00
 SX4vr   TX2  1 3.650000e-01    2.110000e+00
 SC1vr   TX2  1 3.650000e-01    1.910000e+00
 SC2vr   TX2  1 3.650000e-01    1.910000e+00
 SC3vr   TX2  1 3.650000e-01    1.910000e+00
 SC4vr   TX2  1 3.650000e-01    1.910000e+00
 SC5vr   TX2  1 3.650000e-01    1.910000e+00
 SC6vr   TX2  1 3.650000e-01    2.110000e+00
 SN1ar   TX2  1 3.650000e-01    1.750000e+00
 SN2ar   TX2  1 3.650000e-01    1.750000e+00
 SN3ar   TX2  1 3.650000e-01    1.750000e+00
 SN4ar   TX2  1 3.650000e-01    1.750000e+00
 SN5ar   TX2  1 3.650000e-01    1.750000e+00
 SN6ar   TX2  1 3.660000e-01    1.600000e+00
 SP1ar   TX2  1 3.660000e-01    1.600000e+00
 SP2ar   TX2  1 3.660000e-01    1.600000e+00
 SP3ar   TX2  1 3.660000e-01    1.600000e+00
 SP4ar   TX2  1 3.660000e-01    1.600000e+00
 SP5ar   TX2  1 3.660000e-01    1.600000e+00
 SP6ar   TX2  1 3.780000e-01    1.450000e+00
 SN1dr   TX2  1 3.650000e-01    1.750000e+00
 SN2dr   TX2  1 3.650000e-01    1.750000e+00
 SN3dr   TX2  1 3.650000e-01    1.750000e+00
 SN4dr   TX2  1 3.650000e-01    1.750000e+00
 SN5dr   TX2  1 3.650000e-01    1.750000e+00
 SN6dr   TX2  1 3.660000e-01    1.600000e+00
 SP1dr   TX2  1 3.660000e-01    1.600000e+00
 SP2dr   TX2  1 3.660000e-01    1.600000e+00
 SP3dr   TX2  1 3.660000e-01    1.600000e+00
 SP4dr   TX2  1 3.660000e-01    1.600000e+00
 SP5dr   TX2  1 3.660000e-01    1.600000e+00
 SP6dr   TX2  1 3.780000e-01    1.450000e+00
   TX2   SX1  1 3.650000e-01    2.110000e+00
   TX2  SX2v  1 3.650000e-01    2.340000e+00
   TX2  SX1v  1 3.650000e-01    2.340000e+00
   TX2  SX2e  1 3.650000e-01    2.340000e+00
   TX2  SX1e  1 3.650000e-01    2.340000e+00
   TX2  SX2q  1 3.650000e-01    2.570000e+00
   TX2 SX1eq  1 3.650000e-01    2.830000e+00
   TX2 SX2eq  1 3.650000e-01    2.830000e+00
   TX2 SX1vq  1 3.650000e-01    2.830000e+00
   TX2 SX2vq  1 3.650000e-01    2.830000e+00
   TX2  SX1q  1 3.650000e-01    2.570000e+00
   TX2  SX2h  1 3.650000e-01    2.110000e+00
   TX2 SX1eh  1 3.650000e-01    2.340000e+00
   TX2 SX2eh  1 3.650000e-01    2.340000e+00
   TX2 SX1vh  1 3.650000e-01    2.340000e+00
   TX2 SX2vh  1 3.650000e-01    2.340000e+00
   TX2  SX1h  1 3.650000e-01    2.110000e+00
   TX2  SX2r  1 3.650000e-01    2.110000e+00
   TX2 SX1er  1 3.650000e-01    2.340000e+00
   TX2 SX2er  1 3.650000e-01    2.340000e+00
   TX2 SX1vr  1 3.650000e-01    2.340000e+00
   TX2 SX2vr  1 3.650000e-01    2.340000e+00
   TX2  SX1r  1 3.650000e-01    2.110000e+00
    X1    X1  1 4.700000e-01    3.690000e+00
   P6d    X1  1 4.700000e-01    2.790000e+00
   P5d    X1  1 4.700000e-01    2.790000e+00
   P4d    X1  1 4.700000e-01    2.960000e+00
   P3d    X1  1 4.700000e-01    2.960000e+00
   P2d    X1  1 4.700000e-01    2.960000e+00
   P1d    X1  1 4.700000e-01    2.960000e+00
   N6d    X1  1 4.700000e-01    2.960000e+00
   N5d    X1  1 4.700000e-01    3.070000e+00
   N4d    X1  1 4.700000e-01    3.070000e+00
   N3d    X1  1 4.700000e-01    3.240000e+00
   N2d    X1  1 4.700000e-01    3.240000e+00
   N1d    X1  1 4.700000e-01    3.240000e+00
   P6a    X1  1 4.700000e-01    2.790000e+00
   P5a    X1  1 4.700000e-01    2.790000e+00
   P4a    X1  1 4.700000e-01    2.960000e+00
   P3a    X1  1 4.700000e-01    2.960000e+00
   P2a    X1  1 4.700000e-01    2.960000e+00
   P1a    X1  1 4.700000e-01    2.960000e+00
   N6a    X1  1 4.700000e-01    2.960000e+00
   N5a    X1  1 4.700000e-01    3.070000e+00
   N4a    X1  1 4.700000e-01    3.070000e+00
   N3a    X1  1 4.700000e-01    3.240000e+00
   N2a    X1  1 4.700000e-01    3.240000e+00
   N1a    X1  1 4.700000e-01    3.240000e+00
   C6v    X1  1 4.700000e-01    3.520000e+00
   C5v    X1  1 4.700000e-01    3.520000e+00
   C4v    X1  1 4.700000e-01    3.520000e+00
   C3v    X1  1 4.700000e-01    3.520000e+00
   C2v    X1  1 4.700000e-01    3.390000e+00
   C1v    X1  1 4.700000e-01    3.390000e+00
   X4v    X1  1 4.700000e-01    3.520000e+00
   X3v    X1  1 4.700000e-01    3.690000e+00
   X2v    X1  1 4.700000e-01    3.690000e+00
    X1   X1v  1 4.700000e-01    3.880000e+00
   C6e    X1  1 4.700000e-01    3.520000e+00
   C5e    X1  1 4.700000e-01    3.520000e+00
   C4e    X1  1 4.700000e-01    3.520000e+00
   C3e    X1  1 4.700000e-01    3.520000e+00
   C2e    X1  1 4.700000e-01    3.390000e+00
   C1e    X1  1 4.700000e-01    3.390000e+00
   X4e    X1  1 4.700000e-01    3.520000e+00
   X3e    X1  1 4.700000e-01    3.690000e+00
   X2e    X1  1 4.700000e-01    3.690000e+00
    X1   X1e  1 4.700000e-01    3.880000e+00
   P6q    X1  1 4.700000e-01    3.070000e+00
   P5q    X1  1 4.700000e-01    3.070000e+00
   P4q    X1  1 4.700000e-01    3.240000e+00
   P3q    X1  1 4.700000e-01    3.240000e+00
   P2q    X1  1 4.700000e-01    3.240000e+00
   P1q    X1  1 4.700000e-01    3.240000e+00
   N6q    X1  1 4.700000e-01    3.240000e+00
   N5q    X1  1 4.700000e-01    3.390000e+00
   N4q    X1  1 4.700000e-01    3.390000e+00
   N3q    X1  1 4.700000e-01    3.520000e+00
   N2q    X1  1 4.700000e-01    3.520000e+00
   N1q    X1  1 4.700000e-01    3.520000e+00
   C6q    X1  1 4.700000e-01    3.690000e+00
   C5q    X1  1 4.700000e-01    3.690000e+00
   C4q    X1  1 4.700000e-01    3.690000e+00
   C3q    X1  1 4.700000e-01    3.690000e+00
   C2q    X1  1 4.700000e-01    3.520000e+00
   C1q    X1  1 4.700000e-01    3.520000e+00
   X4q    X1  1 4.700000e-01    3.690000e+00
   X3q    X1  1 4.700000e-01    3.880000e+00
   X2q    X1  1 4.700000e-01    3.880000e+00
    X1   X1q  1 4.700000e-01    4.060000e+00
    X1  X1eq  1 4.700000e-01    4.250000e+00
  X2eq    X1  1 4.700000e-01    4.060000e+00
  X3eq    X1  1 4.700000e-01    4.060000e+00
  X4eq    X1  1 4.700000e-01    3.880000e+00
  C1eq    X1  1 4.700000e-01    3.690000e+00
  C2eq    X1  1 4.700000e-01    3.690000e+00
  C3eq    X1  1 4.700000e-01    3.880000e+00
  C4eq    X1  1 4.700000e-01    3.880000e+00
  C5eq    X1  1 4.700000e-01    3.880000e+00
  C6eq    X1  1 4.700000e-01    3.880000e+00
    X1  X1vq  1 4.700000e-01    4.250000e+00
  X2vq    X1  1 4.700000e-01    4.060000e+00
  X3vq    X1  1 4.700000e-01    4.060000e+00
  X4vq    X1  1 4.700000e-01    3.880000e+00
  C1vq    X1  1 4.700000e-01    3.690000e+00
  C2vq    X1  1 4.700000e-01    3.690000e+00
  C3vq    X1  1 4.700000e-01    3.880000e+00
  C4vq    X1  1 4.700000e-01    3.880000e+00
  C5vq    X1  1 4.700000e-01    3.880000e+00
  C6vq    X1  1 4.700000e-01    3.880000e+00
  N1aq    X1  1 4.700000e-01    3.520000e+00
  N2aq    X1  1 4.700000e-01    3.520000e+00
  N3aq    X1  1 4.700000e-01    3.520000e+00
  N4aq    X1  1 4.700000e-01    3.390000e+00
  N5aq    X1  1 4.700000e-01    3.390000e+00
  N6aq    X1  1 4.700000e-01    3.240000e+00
  P1aq    X1  1 4.700000e-01    3.240000e+00
  P2aq    X1  1 4.700000e-01    3.240000e+00
  P3aq    X1  1 4.700000e-01    3.240000e+00
  P4aq    X1  1 4.700000e-01    3.240000e+00
  P5aq    X1  1 4.700000e-01    3.070000e+00
  P6aq    X1  1 4.700000e-01    3.070000e+00
  N1dq    X1  1 4.700000e-01    3.520000e+00
  N2dq    X1  1 4.700000e-01    3.520000e+00
  N3dq    X1  1 4.700000e-01    3.520000e+00
  N4dq    X1  1 4.700000e-01    3.390000e+00
  N5dq    X1  1 4.700000e-01    3.390000e+00
  N6dq    X1  1 4.700000e-01    3.240000e+00
  P1dq    X1  1 4.700000e-01    3.240000e+00
  P2dq    X1  1 4.700000e-01    3.240000e+00
  P3dq    X1  1 4.700000e-01    3.240000e+00
  P4dq    X1  1 4.700000e-01    3.240000e+00
  P5dq    X1  1 4.700000e-01    3.070000e+00
  P6dq    X1  1 4.700000e-01    3.070000e+00
   P6h    X1  1 4.700000e-01    2.790000e+00
   P5h    X1  1 4.700000e-01    2.790000e+00
   P4h    X1  1 4.700000e-01    2.960000e+00
   P3h    X1  1 4.700000e-01    2.960000e+00
   P2h    X1  1 4.700000e-01    2.960000e+00
   P1h    X1  1 4.700000e-01    2.960000e+00
   N6h    X1  1 4.700000e-01    2.960000e+00
   N5h    X1  1 4.700000e-01    3.070000e+00
   N4h    X1  1 4.700000e-01    3.070000e+00
   N3h    X1  1 4.700000e-01    3.240000e+00
   N2h    X1  1 4.700000e-01    3.240000e+00
   N1h    X1  1 4.700000e-01    3.240000e+00
   C6h    X1  1 4.700000e-01    3.390000e+00
   C5h    X1  1 4.700000e-01    3.390000e+00
   C4h    X1  1 4.700000e-01    3.390000e+00
   C3h    X1  1 4.700000e-01    3.390000e+00
   C2h    X1  1 4.700000e-01    3.240000e+00
   C1h    X1  1 4.700000e-01    3.240000e+00
   X4h    X1  1 4.700000e-01    3.390000e+00
   X3h    X1  1 4.700000e-01    3.520000e+00
   X2h    X1  1 4.700000e-01    3.520000e+00
    X1   X1h  1 4.700000e-01    3.690000e+00
    X1  X1eh  1 4.700000e-01    3.880000e+00
  X2eh    X1  1 4.700000e-01    3.690000e+00
  X3eh    X1  1 4.700000e-01    3.690000e+00
  X4eh    X1  1 4.700000e-01    3.520000e+00
  C1eh    X1  1 4.700000e-01    3.390000e+00
  C2eh    X1  1 4.700000e-01    3.390000e+00
  C3eh    X1  1 4.700000e-01    3.520000e+00
  C4eh    X1  1 4.700000e-01    3.520000e+00
  C5eh    X1  1 4.700000e-01    3.520000e+00
  C6eh    X1  1 4.700000e-01    3.520000e+00
    X1  X1vh  1 4.700000e-01    3.880000e+00
  X2vh    X1  1 4.700000e-01    3.690000e+00
  X3vh    X1  1 4.700000e-01    3.690000e+00
  X4vh    X1  1 4.700000e-01    3.520000e+00
  C1vh    X1  1 4.700000e-01    3.390000e+00
  C2vh    X1  1 4.700000e-01    3.390000e+00
  C3vh    X1  1 4.700000e-01    3.520000e+00
  C4vh    X1  1 4.700000e-01    3.520000e+00
  C5vh    X1  1 4.700000e-01    3.520000e+00
  C6vh    X1  1 4.700000e-01    3.520000e+00
  N1ah    X1  1 4.700000e-01    3.240000e+00
  N2ah    X1  1 4.700000e-01    3.240000e+00
  N3ah    X1  1 4.700000e-01    3.240000e+00
  N4ah    X1  1 4.700000e-01    3.070000e+00
  N5ah    X1  1 4.700000e-01    3.070000e+00
  N6ah    X1  1 4.700000e-01    2.960000e+00
  P1ah    X1  1 4.700000e-01    2.960000e+00
  P2ah    X1  1 4.700000e-01    2.960000e+00
  P3ah    X1  1 4.700000e-01    2.960000e+00
  P4ah    X1  1 4.700000e-01    2.960000e+00
  P5ah    X1  1 4.700000e-01    2.790000e+00
  P6ah    X1  1 4.700000e-01    2.790000e+00
  N1dh    X1  1 4.700000e-01    3.240000e+00
  N2dh    X1  1 4.700000e-01    3.240000e+00
  N3dh    X1  1 4.700000e-01    3.240000e+00
  N4dh    X1  1 4.700000e-01    3.070000e+00
  N5dh    X1  1 4.700000e-01    3.070000e+00
  N6dh    X1  1 4.700000e-01    2.960000e+00
  P1dh    X1  1 4.700000e-01    2.960000e+00
  P2dh    X1  1 4.700000e-01    2.960000e+00
  P3dh    X1  1 4.700000e-01    2.960000e+00
  P4dh    X1  1 4.700000e-01    2.960000e+00
  P5dh    X1  1 4.700000e-01    2.790000e+00
  P6dh    X1  1 4.700000e-01    2.790000e+00
   P6r    X1  1 4.700000e-01    2.790000e+00
   P5r    X1  1 4.700000e-01    2.790000e+00
   P4r    X1  1 4.700000e-01    2.960000e+00
   P3r    X1  1 4.700000e-01    2.960000e+00
   P2r    X1  1 4.700000e-01    2.960000e+00
   P1r    X1  1 4.700000e-01    2.960000e+00
   N6r    X1  1 4.700000e-01    2.960000e+00
   N5r    X1  1 4.700000e-01    3.070000e+00
   N4r    X1  1 4.700000e-01    3.070000e+00
   N3r    X1  1 4.700000e-01    3.240000e+00
   N2r    X1  1 4.700000e-01    3.240000e+00
   N1r    X1  1 4.700000e-01    3.240000e+00
   C6r    X1  1 4.700000e-01    3.390000e+00
   C5r    X1  1 4.700000e-01    3.390000e+00
   C4r    X1  1 4.700000e-01    3.390000e+00
   C3r    X1  1 4.700000e-01    3.390000e+00
   C2r    X1  1 4.700000e-01    3.240000e+00
   C1r    X1  1 4.700000e-01    3.240000e+00
   X4r    X1  1 4.700000e-01    3.390000e+00
   X3r    X1  1 4.700000e-01    3.520000e+00
   X2r    X1  1 4.700000e-01    3.520000e+00
    X1   X1r  1 4.700000e-01    3.690000e+00
    X1  X1er  1 4.700000e-01    3.880000e+00
  X2er    X1  1 4.700000e-01    3.690000e+00
  X3er    X1  1 4.700000e-01    3.690000e+00
  X4er    X1  1 4.700000e-01    3.520000e+00
  C1er    X1  1 4.700000e-01    3.390000e+00
  C2er    X1  1 4.700000e-01    3.390000e+00
  C3er    X1  1 4.700000e-01    3.520000e+00
  C4er    X1  1 4.700000e-01    3.520000e+00
  C5er    X1  1 4.700000e-01    3.520000e+00
  C6er    X1  1 4.700000e-01    3.520000e+00
    X1  X1vr  1 4.700000e-01    3.880000e+00
  X2vr    X1  1 4.700000e-01    3.690000e+00
  X3vr    X1  1 4.700000e-01    3.690000e+00
  X4vr    X1  1 4.700000e-01    3.520000e+00
  C1vr    X1  1 4.700000e-01    3.390000e+00
  C2vr    X1  1 4.700000e-01    3.390000e+00
  C3vr    X1  1 4.700000e-01    3.520000e+00
  C4vr    X1  1 4.700000e-01    3.520000e+00
  C5vr    X1  1 4.700000e-01    3.520000e+00
  C6vr    X1  1 4.700000e-01    3.520000e+00
  N1ar    X1  1 4.700000e-01    3.240000e+00
  N2ar    X1  1 4.700000e-01    3.240000e+00
  N3ar    X1  1 4.700000e-01    3.240000e+00
  N4ar    X1  1 4.700000e-01    3.070000e+00
  N5ar    X1  1 4.700000e-01    3.070000e+00
  N6ar    X1  1 4.700000e-01    2.960000e+00
  P1ar    X1  1 4.700000e-01    2.960000e+00
  P2ar    X1  1 4.700000e-01    2.960000e+00
  P3ar    X1  1 4.700000e-01    2.960000e+00
  P4ar    X1  1 4.700000e-01    2.960000e+00
  P5ar    X1  1 4.700000e-01    2.790000e+00
  P6ar    X1  1 4.700000e-01    2.790000e+00
  N1dr    X1  1 4.700000e-01    3.240000e+00
  N2dr    X1  1 4.700000e-01    3.240000e+00
  N3dr    X1  1 4.700000e-01    3.240000e+00
  N4dr    X1  1 4.700000e-01    3.070000e+00
  N5dr    X1  1 4.700000e-01    3.070000e+00
  N6dr    X1  1 4.700000e-01    2.960000e+00
  P1dr    X1  1 4.700000e-01    2.960000e+00
  P2dr    X1  1 4.700000e-01    2.960000e+00
  P3dr    X1  1 4.700000e-01    2.960000e+00
  P4dr    X1  1 4.700000e-01    2.960000e+00
  P5dr    X1  1 4.700000e-01    2.790000e+00
  P6dr    X1  1 4.700000e-01    2.790000e+00
    X1   SX1  1 4.300000e-01    3.380000e+00
    X1  SX1v  1 4.300000e-01    3.590000e+00
    X1  SX1e  1 4.300000e-01    3.590000e+00
    X1  SX1q  1 4.300000e-01    3.770000e+00
    X1 SX1eq  1 4.300000e-01    3.970000e+00
    X1 SX1vq  1 4.300000e-01    3.970000e+00
    X1  SX1h  1 4.300000e-01    3.380000e+00
    X1 SX1eh  1 4.300000e-01    3.590000e+00
    X1 SX1vh  1 4.300000e-01    3.590000e+00
    X1  SX1r  1 4.300000e-01    3.380000e+00
    X1 SX1er  1 4.300000e-01    3.590000e+00
    X1 SX1vr  1 4.300000e-01    3.590000e+00
  SP6d    X1  1 4.300000e-01    2.160000e+00
  SP5d    X1  1 4.300000e-01    2.160000e+00
  SP4d    X1  1 4.300000e-01    2.320000e+00
  SP3d    X1  1 4.300000e-01    2.320000e+00
  SP2d    X1  1 4.300000e-01    2.320000e+00
  SP1d    X1  1 4.300000e-01    2.320000e+00
  SN6d    X1  1 4.300000e-01    2.320000e+00
  SN5d    X1  1 4.300000e-01    2.530000e+00
  SN4d    X1  1 4.300000e-01    2.530000e+00
  SN3d    X1  1 4.300000e-01    2.770000e+00
  SN2d    X1  1 4.300000e-01    2.770000e+00
  SN1d    X1  1 4.300000e-01    2.770000e+00
  SP6a    X1  1 4.300000e-01    2.160000e+00
  SP5a    X1  1 4.300000e-01    2.160000e+00
  SP4a    X1  1 4.300000e-01    2.320000e+00
  SP3a    X1  1 4.300000e-01    2.320000e+00
  SP2a    X1  1 4.300000e-01    2.320000e+00
  SP1a    X1  1 4.300000e-01    2.320000e+00
  SN6a    X1  1 4.300000e-01    2.320000e+00
  SN5a    X1  1 4.300000e-01    2.530000e+00
  SN4a    X1  1 4.300000e-01    2.530000e+00
  SN3a    X1  1 4.300000e-01    2.770000e+00
  SN2a    X1  1 4.300000e-01    2.770000e+00
  SN1a    X1  1 4.300000e-01    2.770000e+00
  SC6v    X1  1 4.300000e-01    3.160000e+00
  SC5v    X1  1 4.300000e-01    3.160000e+00
  SC4v    X1  1 4.300000e-01    3.160000e+00
  SC3v    X1  1 4.300000e-01    3.160000e+00
  SC2v    X1  1 4.300000e-01    2.920000e+00
  SC1v    X1  1 4.300000e-01    2.920000e+00
  SX4v    X1  1 4.300000e-01    3.160000e+00
  SX3v    X1  1 4.300000e-01    3.380000e+00
  SX2v    X1  1 4.300000e-01    3.380000e+00
  SC6e    X1  1 4.300000e-01    3.160000e+00
  SC5e    X1  1 4.300000e-01    3.160000e+00
  SC4e    X1  1 4.300000e-01    3.160000e+00
  SC3e    X1  1 4.300000e-01    3.160000e+00
  SC2e    X1  1 4.300000e-01    2.920000e+00
  SC1e    X1  1 4.300000e-01    2.920000e+00
  SX4e    X1  1 4.300000e-01    3.160000e+00
  SX3e    X1  1 4.300000e-01    3.380000e+00
  SX2e    X1  1 4.300000e-01    3.380000e+00
  SP6q    X1  1 4.300000e-01    2.530000e+00
  SP5q    X1  1 4.300000e-01    2.530000e+00
  SP4q    X1  1 4.300000e-01    2.770000e+00
  SP3q    X1  1 4.300000e-01    2.770000e+00
  SP2q    X1  1 4.300000e-01    2.770000e+00
  SP1q    X1  1 4.300000e-01    2.770000e+00
  SN6q    X1  1 4.300000e-01    2.770000e+00
  SN5q    X1  1 4.300000e-01    2.920000e+00
  SN4q    X1  1 4.300000e-01    2.920000e+00
  SN3q    X1  1 4.300000e-01    3.160000e+00
  SN2q    X1  1 4.300000e-01    3.160000e+00
  SN1q    X1  1 4.300000e-01    3.160000e+00
  SC6q    X1  1 4.300000e-01    3.380000e+00
  SC5q    X1  1 4.300000e-01    3.380000e+00
  SC4q    X1  1 4.300000e-01    3.380000e+00
  SC3q    X1  1 4.300000e-01    3.380000e+00
  SC2q    X1  1 4.300000e-01    3.160000e+00
  SC1q    X1  1 4.300000e-01    3.160000e+00
  SX4q    X1  1 4.300000e-01    3.380000e+00
  SX3q    X1  1 4.300000e-01    3.590000e+00
  SX2q    X1  1 4.300000e-01    3.590000e+00
 SX2eq    X1  1 4.300000e-01    3.770000e+00
 SX3eq    X1  1 4.300000e-01    3.770000e+00
 SX4eq    X1  1 4.300000e-01    3.590000e+00
 SC1eq    X1  1 4.300000e-01    3.380000e+00
 SC2eq    X1  1 4.300000e-01    3.380000e+00
 SC3eq    X1  1 4.300000e-01    3.590000e+00
 SC4eq    X1  1 4.300000e-01    3.590000e+00
 SC5eq    X1  1 4.300000e-01    3.590000e+00
 SC6eq    X1  1 4.300000e-01    3.590000e+00
 SX2vq    X1  1 4.300000e-01    3.770000e+00
 SX3vq    X1  1 4.300000e-01    3.770000e+00
 SX4vq    X1  1 4.300000e-01    3.590000e+00
 SC1vq    X1  1 4.300000e-01    3.380000e+00
 SC2vq    X1  1 4.300000e-01    3.380000e+00
 SC3vq    X1  1 4.300000e-01    3.590000e+00
 SC4vq    X1  1 4.300000e-01    3.590000e+00
 SC5vq    X1  1 4.300000e-01    3.590000e+00
 SC6vq    X1  1 4.300000e-01    3.590000e+00
 SN1aq    X1  1 4.300000e-01    3.160000e+00
 SN2aq    X1  1 4.300000e-01    3.160000e+00
 SN3aq    X1  1 4.300000e-01    3.160000e+00
 SN4aq    X1  1 4.300000e-01    2.920000e+00
 SN5aq    X1  1 4.300000e-01    2.920000e+00
 SN6aq    X1  1 4.300000e-01    2.770000e+00
 SP1aq    X1  1 4.300000e-01    2.770000e+00
 SP2aq    X1  1 4.300000e-01    2.770000e+00
 SP3aq    X1  1 4.300000e-01    2.770000e+00
 SP4aq    X1  1 4.300000e-01    2.770000e+00
 SP5aq    X1  1 4.300000e-01    2.530000e+00
 SP6aq    X1  1 4.300000e-01    2.530000e+00
 SN1dq    X1  1 4.300000e-01    3.160000e+00
 SN2dq    X1  1 4.300000e-01    3.160000e+00
 SN3dq    X1  1 4.300000e-01    3.160000e+00
 SN4dq    X1  1 4.300000e-01    2.920000e+00
 SN5dq    X1  1 4.300000e-01    2.920000e+00
 SN6dq    X1  1 4.300000e-01    2.770000e+00
 SP1dq    X1  1 4.300000e-01    2.770000e+00
 SP2dq    X1  1 4.300000e-01    2.770000e+00
 SP3dq    X1  1 4.300000e-01    2.770000e+00
 SP4dq    X1  1 4.300000e-01    2.770000e+00
 SP5dq    X1  1 4.300000e-01    2.530000e+00
 SP6dq    X1  1 4.300000e-01    2.530000e+00
  SP6h    X1  1 4.300000e-01    2.160000e+00
  SP5h    X1  1 4.300000e-01    2.160000e+00
  SP4h    X1  1 4.300000e-01    2.320000e+00
  SP3h    X1  1 4.300000e-01    2.320000e+00
  SP2h    X1  1 4.300000e-01    2.320000e+00
  SP1h    X1  1 4.300000e-01    2.320000e+00
  SN6h    X1  1 4.300000e-01    2.320000e+00
  SN5h    X1  1 4.300000e-01    2.530000e+00
  SN4h    X1  1 4.300000e-01    2.530000e+00
  SN3h    X1  1 4.300000e-01    2.770000e+00
  SN2h    X1  1 4.300000e-01    2.770000e+00
  SN1h    X1  1 4.300000e-01    2.770000e+00
  SC6h    X1  1 4.300000e-01    2.920000e+00
  SC5h    X1  1 4.300000e-01    2.920000e+00
  SC4h    X1  1 4.300000e-01    2.920000e+00
  SC3h    X1  1 4.300000e-01    2.920000e+00
  SC2h    X1  1 4.300000e-01    2.770000e+00
  SC1h    X1  1 4.300000e-01    2.770000e+00
  SX4h    X1  1 4.300000e-01    2.920000e+00
  SX3h    X1  1 4.300000e-01    3.160000e+00
  SX2h    X1  1 4.300000e-01    3.160000e+00
 SX2eh    X1  1 4.300000e-01    3.380000e+00
 SX3eh    X1  1 4.300000e-01    3.380000e+00
 SX4eh    X1  1 4.300000e-01    3.160000e+00
 SC1eh    X1  1 4.300000e-01    2.920000e+00
 SC2eh    X1  1 4.300000e-01    2.920000e+00
 SC3eh    X1  1 4.300000e-01    3.160000e+00
 SC4eh    X1  1 4.300000e-01    3.160000e+00
 SC5eh    X1  1 4.300000e-01    3.160000e+00
 SC6eh    X1  1 4.300000e-01    3.160000e+00
 SX2vh    X1  1 4.300000e-01    3.380000e+00
 SX3vh    X1  1 4.300000e-01    3.380000e+00
 SX4vh    X1  1 4.300000e-01    3.160000e+00
 SC1vh    X1  1 4.300000e-01    2.920000e+00
 SC2vh    X1  1 4.300000e-01    2.920000e+00
 SC3vh    X1  1 4.300000e-01    3.160000e+00
 SC4vh    X1  1 4.300000e-01    3.160000e+00
 SC5vh    X1  1 4.300000e-01    3.160000e+00
 SC6vh    X1  1 4.300000e-01    3.160000e+00
 SN1ah    X1  1 4.300000e-01    2.770000e+00
 SN2ah    X1  1 4.300000e-01    2.770000e+00
 SN3ah    X1  1 4.300000e-01    2.770000e+00
 SN4ah    X1  1 4.300000e-01    2.530000e+00
 SN5ah    X1  1 4.300000e-01    2.530000e+00
 SN6ah    X1  1 4.300000e-01    2.320000e+00
 SP1ah    X1  1 4.300000e-01    2.320000e+00
 SP2ah    X1  1 4.300000e-01    2.320000e+00
 SP3ah    X1  1 4.300000e-01    2.320000e+00
 SP4ah    X1  1 4.300000e-01    2.320000e+00
 SP5ah    X1  1 4.300000e-01    2.160000e+00
 SP6ah    X1  1 4.300000e-01    2.160000e+00
 SN1dh    X1  1 4.300000e-01    2.770000e+00
 SN2dh    X1  1 4.300000e-01    2.770000e+00
 SN3dh    X1  1 4.300000e-01    2.770000e+00
 SN4dh    X1  1 4.300000e-01    2.530000e+00
 SN5dh    X1  1 4.300000e-01    2.530000e+00
 SN6dh    X1  1 4.300000e-01    2.320000e+00
 SP1dh    X1  1 4.300000e-01    2.320000e+00
 SP2dh    X1  1 4.300000e-01    2.320000e+00
 SP3dh    X1  1 4.300000e-01    2.320000e+00
 SP4dh    X1  1 4.300000e-01    2.320000e+00
 SP5dh    X1  1 4.300000e-01    2.160000e+00
 SP6dh    X1  1 4.300000e-01    2.160000e+00
  SP6r    X1  1 4.300000e-01    2.160000e+00
  SP5r    X1  1 4.300000e-01    2.160000e+00
  SP4r    X1  1 4.300000e-01    2.320000e+00
  SP3r    X1  1 4.300000e-01    2.320000e+00
  SP2r    X1  1 4.300000e-01    2.320000e+00
  SP1r    X1  1 4.300000e-01    2.320000e+00
  SN6r    X1  1 4.300000e-01    2.320000e+00
  SN5r    X1  1 4.300000e-01    2.530000e+00
  SN4r    X1  1 4.300000e-01    2.530000e+00
  SN3r    X1  1 4.300000e-01    2.770000e+00
  SN2r    X1  1 4.300000e-01    2.770000e+00
  SN1r    X1  1 4.300000e-01    2.770000e+00
  SC6r    X1  1 4.300000e-01    2.920000e+00
  SC5r    X1  1 4.300000e-01    2.920000e+00
  SC4r    X1  1 4.300000e-01    2.920000e+00
  SC3r    X1  1 4.300000e-01    2.920000e+00
  SC2r    X1  1 4.300000e-01    2.770000e+00
  SC1r    X1  1 4.300000e-01    2.770000e+00
  SX4r    X1  1 4.300000e-01    2.920000e+00
  SX3r    X1  1 4.300000e-01    3.160000e+00
  SX2r    X1  1 4.300000e-01    3.160000e+00
 SX2er    X1  1 4.300000e-01    3.380000e+00
 SX3er    X1  1 4.300000e-01    3.380000e+00
 SX4er    X1  1 4.300000e-01    3.160000e+00
 SC1er    X1  1 4.300000e-01    2.920000e+00
 SC2er    X1  1 4.300000e-01    2.920000e+00
 SC3er    X1  1 4.300000e-01    3.160000e+00
 SC4er    X1  1 4.300000e-01    3.160000e+00
 SC5er    X1  1 4.300000e-01    3.160000e+00
 SC6er    X1  1 4.300000e-01    3.160000e+00
 SX2vr    X1  1 4.300000e-01    3.380000e+00
 SX3vr    X1  1 4.300000e-01    3.380000e+00
 SX4vr    X1  1 4.300000e-01    3.160000e+00
 SC1vr    X1  1 4.300000e-01    2.920000e+00
 SC2vr    X1  1 4.300000e-01    2.920000e+00
 SC3vr    X1  1 4.300000e-01    3.160000e+00
 SC4vr    X1  1 4.300000e-01    3.160000e+00
 SC5vr    X1  1 4.300000e-01    3.160000e+00
 SC6vr    X1  1 4.300000e-01    3.160000e+00
 SN1ar    X1  1 4.300000e-01    2.770000e+00
 SN2ar    X1  1 4.300000e-01    2.770000e+00
 SN3ar    X1  1 4.300000e-01    2.770000e+00
 SN4ar    X1  1 4.300000e-01    2.530000e+00
 SN5ar    X1  1 4.300000e-01    2.530000e+00
 SN6ar    X1  1 4.300000e-01    2.320000e+00
 SP1ar    X1  1 4.300000e-01    2.320000e+00
 SP2ar    X1  1 4.300000e-01    2.320000e+00
 SP3ar    X1  1 4.300000e-01    2.320000e+00
 SP4ar    X1  1 4.300000e-01    2.320000e+00
 SP5ar    X1  1 4.300000e-01    2.160000e+00
 SP6ar    X1  1 4.300000e-01    2.160000e+00
 SN1dr    X1  1 4.300000e-01    2.770000e+00
 SN2dr    X1  1 4.300000e-01    2.770000e+00
 SN3dr    X1  1 4.300000e-01    2.770000e+00
 SN4dr    X1  1 4.300000e-01    2.530000e+00
 SN5dr    X1  1 4.300000e-01    2.530000e+00
 SN6dr    X1  1 4.300000e-01    2.320000e+00
 SP1dr    X1  1 4.300000e-01    2.320000e+00
 SP2dr    X1  1 4.300000e-01    2.320000e+00
 SP3dr    X1  1 4.300000e-01    2.320000e+00
 SP4dr    X1  1 4.300000e-01    2.320000e+00
 SP5dr    X1  1 4.300000e-01    2.160000e+00
 SP6dr    X1  1 4.300000e-01    2.160000e+00
    X1   TX1  1 3.950000e-01    2.700000e+00
    X1  TX1v  1 3.950000e-01    2.940000e+00
    X1  TX1e  1 3.950000e-01    2.940000e+00
    X1  TX1q  1 3.950000e-01    3.190000e+00
    X1 TX1eq  1 3.950000e-01    3.430000e+00
    X1 TX1vq  1 3.950000e-01    3.430000e+00
    X1  TX1h  1 3.950000e-01    2.700000e+00
    X1 TX1eh  1 3.950000e-01    2.940000e+00
    X1 TX1vh  1 3.950000e-01    2.940000e+00
    X1  TX1r  1 3.950000e-01    2.700000e+00
    X1 TX1er  1 3.950000e-01    2.940000e+00
    X1 TX1vr  1 3.950000e-01    2.940000e+00
  TP6d    X1  1 3.980000e-01    1.450000e+00
  TP5d    X1  1 3.980000e-01    1.450000e+00
  TP4d    X1  1 3.950000e-01    1.670000e+00
  TP3d    X1  1 3.950000e-01    1.670000e+00
  TP2d    X1  1 3.950000e-01    1.670000e+00
  TP1d    X1  1 3.950000e-01    1.670000e+00
  TN6d    X1  1 3.950000e-01    1.670000e+00
  TN5d    X1  1 3.950000e-01    1.850000e+00
  TN4d    X1  1 3.950000e-01    1.850000e+00
  TN3d    X1  1 3.950000e-01    2.110000e+00
  TN2d    X1  1 3.950000e-01    2.110000e+00
  TN1d    X1  1 3.950000e-01    2.110000e+00
  TP6a    X1  1 3.980000e-01    1.450000e+00
  TP5a    X1  1 3.980000e-01    1.450000e+00
  TP4a    X1  1 3.950000e-01    1.670000e+00
  TP3a    X1  1 3.950000e-01    1.670000e+00
  TP2a    X1  1 3.950000e-01    1.670000e+00
  TP1a    X1  1 3.950000e-01    1.670000e+00
  TN6a    X1  1 3.950000e-01    1.670000e+00
  TN5a    X1  1 3.950000e-01    1.850000e+00
  TN4a    X1  1 3.950000e-01    1.850000e+00
  TN3a    X1  1 3.950000e-01    2.110000e+00
  TN2a    X1  1 3.950000e-01    2.110000e+00
  TN1a    X1  1 3.950000e-01    2.110000e+00
  TC6v    X1  1 3.950000e-01    2.500000e+00
  TC5v    X1  1 3.950000e-01    2.500000e+00
  TC4v    X1  1 3.950000e-01    2.500000e+00
  TC3v    X1  1 3.950000e-01    2.500000e+00
  TC2v    X1  1 3.950000e-01    2.310000e+00
  TC1v    X1  1 3.950000e-01    2.310000e+00
  TX4v    X1  1 3.950000e-01    2.500000e+00
  TX3v    X1  1 3.950000e-01    2.700000e+00
  TX2v    X1  1 3.950000e-01    2.700000e+00
  TC6e    X1  1 3.950000e-01    2.500000e+00
  TC5e    X1  1 3.950000e-01    2.500000e+00
  TC4e    X1  1 3.950000e-01    2.500000e+00
  TC3e    X1  1 3.950000e-01    2.500000e+00
  TC2e    X1  1 3.950000e-01    2.310000e+00
  TC1e    X1  1 3.950000e-01    2.310000e+00
  TX4e    X1  1 3.950000e-01    2.500000e+00
  TX3e    X1  1 3.950000e-01    2.700000e+00
  TX2e    X1  1 3.950000e-01    2.700000e+00
  TP6q    X1  1 3.950000e-01    1.850000e+00
  TP5q    X1  1 3.950000e-01    1.850000e+00
  TP4q    X1  1 3.950000e-01    2.110000e+00
  TP3q    X1  1 3.950000e-01    2.110000e+00
  TP2q    X1  1 3.950000e-01    2.110000e+00
  TP1q    X1  1 3.950000e-01    2.110000e+00
  TN6q    X1  1 3.950000e-01    2.110000e+00
  TN5q    X1  1 3.950000e-01    2.310000e+00
  TN4q    X1  1 3.950000e-01    2.310000e+00
  TN3q    X1  1 3.950000e-01    2.500000e+00
  TN2q    X1  1 3.950000e-01    2.500000e+00
  TN1q    X1  1 3.950000e-01    2.500000e+00
  TC6q    X1  1 3.950000e-01    2.700000e+00
  TC5q    X1  1 3.950000e-01    2.700000e+00
  TC4q    X1  1 3.950000e-01    2.700000e+00
  TC3q    X1  1 3.950000e-01    2.700000e+00
  TC2q    X1  1 3.950000e-01    2.500000e+00
  TC1q    X1  1 3.950000e-01    2.500000e+00
  TX4q    X1  1 3.950000e-01    2.700000e+00
  TX3q    X1  1 3.950000e-01    2.940000e+00
  TX2q    X1  1 3.950000e-01    2.940000e+00
 TX2eq    X1  1 3.950000e-01    3.190000e+00
 TX3eq    X1  1 3.950000e-01    3.190000e+00
 TX4eq    X1  1 3.950000e-01    2.940000e+00
 TC1eq    X1  1 3.950000e-01    2.700000e+00
 TC2eq    X1  1 3.950000e-01    2.700000e+00
 TC3eq    X1  1 3.950000e-01    2.940000e+00
 TC4eq    X1  1 3.950000e-01    2.940000e+00
 TC5eq    X1  1 3.950000e-01    2.940000e+00
 TC6eq    X1  1 3.950000e-01    2.940000e+00
 TX2vq    X1  1 3.950000e-01    3.190000e+00
 TX3vq    X1  1 3.950000e-01    3.190000e+00
 TX4vq    X1  1 3.950000e-01    2.940000e+00
 TC1vq    X1  1 3.950000e-01    2.700000e+00
 TC2vq    X1  1 3.950000e-01    2.700000e+00
 TC3vq    X1  1 3.950000e-01    2.940000e+00
 TC4vq    X1  1 3.950000e-01    2.940000e+00
 TC5vq    X1  1 3.950000e-01    2.940000e+00
 TC6vq    X1  1 3.950000e-01    2.940000e+00
 TN1aq    X1  1 3.950000e-01    2.500000e+00
 TN2aq    X1  1 3.950000e-01    2.500000e+00
 TN3aq    X1  1 3.950000e-01    2.500000e+00
 TN4aq    X1  1 3.950000e-01    2.310000e+00
 TN5aq    X1  1 3.950000e-01    2.310000e+00
 TN6aq    X1  1 3.950000e-01    2.110000e+00
 TP1aq    X1  1 3.950000e-01    2.110000e+00
 TP2aq    X1  1 3.950000e-01    2.110000e+00
 TP3aq    X1  1 3.950000e-01    2.110000e+00
 TP4aq    X1  1 3.950000e-01    2.110000e+00
 TP5aq    X1  1 3.950000e-01    1.850000e+00
 TP6aq    X1  1 3.950000e-01    1.850000e+00
 TN1dq    X1  1 3.950000e-01    2.500000e+00
 TN2dq    X1  1 3.950000e-01    2.500000e+00
 TN3dq    X1  1 3.950000e-01    2.500000e+00
 TN4dq    X1  1 3.950000e-01    2.310000e+00
 TN5dq    X1  1 3.950000e-01    2.310000e+00
 TN6dq    X1  1 3.950000e-01    2.110000e+00
 TP1dq    X1  1 3.950000e-01    2.110000e+00
 TP2dq    X1  1 3.950000e-01    2.110000e+00
 TP3dq    X1  1 3.950000e-01    2.110000e+00
 TP4dq    X1  1 3.950000e-01    2.110000e+00
 TP5dq    X1  1 3.950000e-01    1.850000e+00
 TP6dq    X1  1 3.950000e-01    1.850000e+00
  TP6h    X1  1 3.980000e-01    1.450000e+00
  TP5h    X1  1 3.980000e-01    1.450000e+00
  TP4h    X1  1 3.950000e-01    1.670000e+00
  TP3h    X1  1 3.950000e-01    1.670000e+00
  TP2h    X1  1 3.950000e-01    1.670000e+00
  TP1h    X1  1 3.950000e-01    1.670000e+00
  TN6h    X1  1 3.950000e-01    1.670000e+00
  TN5h    X1  1 3.950000e-01    1.850000e+00
  TN4h    X1  1 3.950000e-01    1.850000e+00
  TN3h    X1  1 3.950000e-01    2.110000e+00
  TN2h    X1  1 3.950000e-01    2.110000e+00
  TN1h    X1  1 3.950000e-01    2.110000e+00
  TC6h    X1  1 3.950000e-01    2.310000e+00
  TC5h    X1  1 3.950000e-01    2.310000e+00
  TC4h    X1  1 3.950000e-01    2.310000e+00
  TC3h    X1  1 3.950000e-01    2.310000e+00
  TC2h    X1  1 3.950000e-01    2.110000e+00
  TC1h    X1  1 3.950000e-01    2.110000e+00
  TX4h    X1  1 3.950000e-01    2.310000e+00
  TX3h    X1  1 3.950000e-01    2.500000e+00
  TX2h    X1  1 3.950000e-01    2.500000e+00
 TX2eh    X1  1 3.950000e-01    2.700000e+00
 TX3eh    X1  1 3.950000e-01    2.700000e+00
 TX4eh    X1  1 3.950000e-01    2.500000e+00
 TC1eh    X1  1 3.950000e-01    2.310000e+00
 TC2eh    X1  1 3.950000e-01    2.310000e+00
 TC3eh    X1  1 3.950000e-01    2.500000e+00
 TC4eh    X1  1 3.950000e-01    2.500000e+00
 TC5eh    X1  1 3.950000e-01    2.500000e+00
 TC6eh    X1  1 3.950000e-01    2.500000e+00
 TX2vh    X1  1 3.950000e-01    2.700000e+00
 TX3vh    X1  1 3.950000e-01    2.700000e+00
 TX4vh    X1  1 3.950000e-01    2.500000e+00
 TC1vh    X1  1 3.950000e-01    2.310000e+00
 TC2vh    X1  1 3.950000e-01    2.310000e+00
 TC3vh    X1  1 3.950000e-01    2.500000e+00
 TC4vh    X1  1 3.950000e-01    2.500000e+00
 TC5vh    X1  1 3.950000e-01    2.500000e+00
 TC6vh    X1  1 3.950000e-01    2.500000e+00
 TN1ah    X1  1 3.950000e-01    2.110000e+00
 TN2ah    X1  1 3.950000e-01    2.110000e+00
 TN3ah    X1  1 3.950000e-01    2.110000e+00
 TN4ah    X1  1 3.950000e-01    1.850000e+00
 TN5ah    X1  1 3.950000e-01    1.850000e+00
 TN6ah    X1  1 3.950000e-01    1.670000e+00
 TP1ah    X1  1 3.950000e-01    1.670000e+00
 TP2ah    X1  1 3.950000e-01    1.670000e+00
 TP3ah    X1  1 3.950000e-01    1.670000e+00
 TP4ah    X1  1 3.950000e-01    1.670000e+00
 TP5ah    X1  1 3.980000e-01    1.450000e+00
 TP6ah    X1  1 3.980000e-01    1.450000e+00
 TN1dh    X1  1 3.950000e-01    2.110000e+00
 TN2dh    X1  1 3.950000e-01    2.110000e+00
 TN3dh    X1  1 3.950000e-01    2.110000e+00
 TN4dh    X1  1 3.950000e-01    1.850000e+00
 TN5dh    X1  1 3.950000e-01    1.850000e+00
 TN6dh    X1  1 3.950000e-01    1.670000e+00
 TP1dh    X1  1 3.950000e-01    1.670000e+00
 TP2dh    X1  1 3.950000e-01    1.670000e+00
 TP3dh    X1  1 3.950000e-01    1.670000e+00
 TP4dh    X1  1 3.950000e-01    1.670000e+00
 TP5dh    X1  1 3.980000e-01    1.450000e+00
 TP6dh    X1  1 3.980000e-01    1.450000e+00
  TP6r    X1  1 3.980000e-01    1.450000e+00
  TP5r    X1  1 3.980000e-01    1.450000e+00
  TP4r    X1  1 3.950000e-01    1.670000e+00
  TP3r    X1  1 3.950000e-01    1.670000e+00
  TP2r    X1  1 3.950000e-01    1.670000e+00
  TP1r    X1  1 3.950000e-01    1.670000e+00
  TN6r    X1  1 3.950000e-01    1.670000e+00
  TN5r    X1  1 3.950000e-01    1.850000e+00
  TN4r    X1  1 3.950000e-01    1.850000e+00
  TN3r    X1  1 3.950000e-01    2.110000e+00
  TN2r    X1  1 3.950000e-01    2.110000e+00
  TN1r    X1  1 3.950000e-01    2.110000e+00
  TC6r    X1  1 3.950000e-01    2.310000e+00
  TC5r    X1  1 3.950000e-01    2.310000e+00
  TC4r    X1  1 3.950000e-01    2.310000e+00
  TC3r    X1  1 3.950000e-01    2.310000e+00
  TC2r    X1  1 3.950000e-01    2.110000e+00
  TC1r    X1  1 3.950000e-01    2.110000e+00
  TX4r    X1  1 3.950000e-01    2.310000e+00
  TX3r    X1  1 3.950000e-01    2.500000e+00
  TX2r    X1  1 3.950000e-01    2.500000e+00
 TX2er    X1  1 3.950000e-01    2.700000e+00
 TX3er    X1  1 3.950000e-01    2.700000e+00
 TX4er    X1  1 3.950000e-01    2.500000e+00
 TC1er    X1  1 3.950000e-01    2.310000e+00
 TC2er    X1  1 3.950000e-01    2.310000e+00
 TC3er    X1  1 3.950000e-01    2.500000e+00
 TC4er    X1  1 3.950000e-01    2.500000e+00
 TC5er    X1  1 3.950000e-01    2.500000e+00
 TC6er    X1  1 3.950000e-01    2.500000e+00
 TX2vr    X1  1 3.950000e-01    2.700000e+00
 TX3vr    X1  1 3.950000e-01    2.700000e+00
 TX4vr    X1  1 3.950000e-01    2.500000e+00
 TC1vr    X1  1 3.950000e-01    2.310000e+00
 TC2vr    X1  1 3.950000e-01    2.310000e+00
 TC3vr    X1  1 3.950000e-01    2.500000e+00
 TC4vr    X1  1 3.950000e-01    2.500000e+00
 TC5vr    X1  1 3.950000e-01    2.500000e+00
 TC6vr    X1  1 3.950000e-01    2.500000e+00
 TN1ar    X1  1 3.950000e-01    2.110000e+00
 TN2ar    X1  1 3.950000e-01    2.110000e+00
 TN3ar    X1  1 3.950000e-01    2.110000e+00
 TN4ar    X1  1 3.950000e-01    1.850000e+00
 TN5ar    X1  1 3.950000e-01    1.850000e+00
 TN6ar    X1  1 3.950000e-01    1.670000e+00
 TP1ar    X1  1 3.950000e-01    1.670000e+00
 TP2ar    X1  1 3.950000e-01    1.670000e+00
 TP3ar    X1  1 3.950000e-01    1.670000e+00
 TP4ar    X1  1 3.950000e-01    1.670000e+00
 TP5ar    X1  1 3.980000e-01    1.450000e+00
 TP6ar    X1  1 3.980000e-01    1.450000e+00
 TN1dr    X1  1 3.950000e-01    2.110000e+00
 TN2dr    X1  1 3.950000e-01    2.110000e+00
 TN3dr    X1  1 3.950000e-01    2.110000e+00
 TN4dr    X1  1 3.950000e-01    1.850000e+00
 TN5dr    X1  1 3.950000e-01    1.850000e+00
 TN6dr    X1  1 3.950000e-01    1.670000e+00
 TP1dr    X1  1 3.950000e-01    1.670000e+00
 TP2dr    X1  1 3.950000e-01    1.670000e+00
 TP3dr    X1  1 3.950000e-01    1.670000e+00
 TP4dr    X1  1 3.950000e-01    1.670000e+00
 TP5dr    X1  1 3.980000e-01    1.450000e+00
 TP6dr    X1  1 3.980000e-01    1.450000e+00
   P6d   SX1  1 4.300000e-01    2.160000e+00
   P5d   SX1  1 4.300000e-01    2.160000e+00
   P4d   SX1  1 4.300000e-01    2.320000e+00
   P3d   SX1  1 4.300000e-01    2.320000e+00
   P2d   SX1  1 4.300000e-01    2.320000e+00
   P1d   SX1  1 4.300000e-01    2.320000e+00
   N6d   SX1  1 4.300000e-01    2.320000e+00
   N5d   SX1  1 4.300000e-01    2.530000e+00
   N4d   SX1  1 4.300000e-01    2.530000e+00
   N3d   SX1  1 4.300000e-01    2.770000e+00
   N2d   SX1  1 4.300000e-01    2.770000e+00
   N1d   SX1  1 4.300000e-01    2.770000e+00
   P6a   SX1  1 4.300000e-01    2.160000e+00
   P5a   SX1  1 4.300000e-01    2.160000e+00
   P4a   SX1  1 4.300000e-01    2.320000e+00
   P3a   SX1  1 4.300000e-01    2.320000e+00
   P2a   SX1  1 4.300000e-01    2.320000e+00
   P1a   SX1  1 4.300000e-01    2.320000e+00
   N6a   SX1  1 4.300000e-01    2.320000e+00
   N5a   SX1  1 4.300000e-01    2.530000e+00
   N4a   SX1  1 4.300000e-01    2.530000e+00
   N3a   SX1  1 4.300000e-01    2.770000e+00
   N2a   SX1  1 4.300000e-01    2.770000e+00
   N1a   SX1  1 4.300000e-01    2.770000e+00
   C6v   SX1  1 4.300000e-01    3.160000e+00
   C5v   SX1  1 4.300000e-01    3.160000e+00
   C4v   SX1  1 4.300000e-01    3.160000e+00
   C3v   SX1  1 4.300000e-01    3.160000e+00
   C2v   SX1  1 4.300000e-01    2.920000e+00
   C1v   SX1  1 4.300000e-01    2.920000e+00
   X4v   SX1  1 4.300000e-01    3.160000e+00
   X3v   SX1  1 4.300000e-01    3.380000e+00
   X2v   SX1  1 4.300000e-01    3.380000e+00
   C6e   SX1  1 4.300000e-01    3.160000e+00
   C5e   SX1  1 4.300000e-01    3.160000e+00
   C4e   SX1  1 4.300000e-01    3.160000e+00
   C3e   SX1  1 4.300000e-01    3.160000e+00
   C2e   SX1  1 4.300000e-01    2.920000e+00
   C1e   SX1  1 4.300000e-01    2.920000e+00
   X4e   SX1  1 4.300000e-01    3.160000e+00
   X3e   SX1  1 4.300000e-01    3.380000e+00
   X2e   SX1  1 4.300000e-01    3.380000e+00
   P6q   SX1  1 4.300000e-01    2.530000e+00
   P5q   SX1  1 4.300000e-01    2.530000e+00
   P4q   SX1  1 4.300000e-01    2.770000e+00
   P3q   SX1  1 4.300000e-01    2.770000e+00
   P2q   SX1  1 4.300000e-01    2.770000e+00
   P1q   SX1  1 4.300000e-01    2.770000e+00
   N6q   SX1  1 4.300000e-01    2.770000e+00
   N5q   SX1  1 4.300000e-01    2.920000e+00
   N4q   SX1  1 4.300000e-01    2.920000e+00
   N3q   SX1  1 4.300000e-01    3.160000e+00
   N2q   SX1  1 4.300000e-01    3.160000e+00
   N1q   SX1  1 4.300000e-01    3.160000e+00
   C6q   SX1  1 4.300000e-01    3.380000e+00
   C5q   SX1  1 4.300000e-01    3.380000e+00
   C4q   SX1  1 4.300000e-01    3.380000e+00
   C3q   SX1  1 4.300000e-01    3.380000e+00
   C2q   SX1  1 4.300000e-01    3.160000e+00
   C1q   SX1  1 4.300000e-01    3.160000e+00
   X4q   SX1  1 4.300000e-01    3.380000e+00
   X3q   SX1  1 4.300000e-01    3.590000e+00
   X2q   SX1  1 4.300000e-01    3.590000e+00
  X2eq   SX1  1 4.300000e-01    3.770000e+00
  X3eq   SX1  1 4.300000e-01    3.770000e+00
  X4eq   SX1  1 4.300000e-01    3.590000e+00
  C1eq   SX1  1 4.300000e-01    3.380000e+00
  C2eq   SX1  1 4.300000e-01    3.380000e+00
  C3eq   SX1  1 4.300000e-01    3.590000e+00
  C4eq   SX1  1 4.300000e-01    3.590000e+00
  C5eq   SX1  1 4.300000e-01    3.590000e+00
  C6eq   SX1  1 4.300000e-01    3.590000e+00
  X2vq   SX1  1 4.300000e-01    3.770000e+00
  X3vq   SX1  1 4.300000e-01    3.770000e+00
  X4vq   SX1  1 4.300000e-01    3.590000e+00
  C1vq   SX1  1 4.300000e-01    3.380000e+00
  C2vq   SX1  1 4.300000e-01    3.380000e+00
  C3vq   SX1  1 4.300000e-01    3.590000e+00
  C4vq   SX1  1 4.300000e-01    3.590000e+00
  C5vq   SX1  1 4.300000e-01    3.590000e+00
  C6vq   SX1  1 4.300000e-01    3.590000e+00
  N1aq   SX1  1 4.300000e-01    3.160000e+00
  N2aq   SX1  1 4.300000e-01    3.160000e+00
  N3aq   SX1  1 4.300000e-01    3.160000e+00
  N4aq   SX1  1 4.300000e-01    2.920000e+00
  N5aq   SX1  1 4.300000e-01    2.920000e+00
  N6aq   SX1  1 4.300000e-01    2.770000e+00
  P1aq   SX1  1 4.300000e-01    2.770000e+00
  P2aq   SX1  1 4.300000e-01    2.770000e+00
  P3aq   SX1  1 4.300000e-01    2.770000e+00
  P4aq   SX1  1 4.300000e-01    2.770000e+00
  P5aq   SX1  1 4.300000e-01    2.530000e+00
  P6aq   SX1  1 4.300000e-01    2.530000e+00
  N1dq   SX1  1 4.300000e-01    3.160000e+00
  N2dq   SX1  1 4.300000e-01    3.160000e+00
  N3dq   SX1  1 4.300000e-01    3.160000e+00
  N4dq   SX1  1 4.300000e-01    2.920000e+00
  N5dq   SX1  1 4.300000e-01    2.920000e+00
  N6dq   SX1  1 4.300000e-01    2.770000e+00
  P1dq   SX1  1 4.300000e-01    2.770000e+00
  P2dq   SX1  1 4.300000e-01    2.770000e+00
  P3dq   SX1  1 4.300000e-01    2.770000e+00
  P4dq   SX1  1 4.300000e-01    2.770000e+00
  P5dq   SX1  1 4.300000e-01    2.530000e+00
  P6dq   SX1  1 4.300000e-01    2.530000e+00
   P6h   SX1  1 4.300000e-01    2.160000e+00
   P5h   SX1  1 4.300000e-01    2.160000e+00
   P4h   SX1  1 4.300000e-01    2.320000e+00
   P3h   SX1  1 4.300000e-01    2.320000e+00
   P2h   SX1  1 4.300000e-01    2.320000e+00
   P1h   SX1  1 4.300000e-01    2.320000e+00
   N6h   SX1  1 4.300000e-01    2.320000e+00
   N5h   SX1  1 4.300000e-01    2.530000e+00
   N4h   SX1  1 4.300000e-01    2.530000e+00
   N3h   SX1  1 4.300000e-01    2.770000e+00
   N2h   SX1  1 4.300000e-01    2.770000e+00
   N1h   SX1  1 4.300000e-01    2.770000e+00
   C6h   SX1  1 4.300000e-01    2.920000e+00
   C5h   SX1  1 4.300000e-01    2.920000e+00
   C4h   SX1  1 4.300000e-01    2.920000e+00
   C3h   SX1  1 4.300000e-01    2.920000e+00
   C2h   SX1  1 4.300000e-01    2.770000e+00
   C1h   SX1  1 4.300000e-01    2.770000e+00
   X4h   SX1  1 4.300000e-01    2.920000e+00
   X3h   SX1  1 4.300000e-01    3.160000e+00
   X2h   SX1  1 4.300000e-01    3.160000e+00
  X2eh   SX1  1 4.300000e-01    3.380000e+00
  X3eh   SX1  1 4.300000e-01    3.380000e+00
  X4eh   SX1  1 4.300000e-01    3.160000e+00
  C1eh   SX1  1 4.300000e-01    2.920000e+00
  C2eh   SX1  1 4.300000e-01    2.920000e+00
  C3eh   SX1  1 4.300000e-01    3.160000e+00
  C4eh   SX1  1 4.300000e-01    3.160000e+00
  C5eh   SX1  1 4.300000e-01    3.160000e+00
  C6eh   SX1  1 4.300000e-01    3.160000e+00
  X2vh   SX1  1 4.300000e-01    3.380000e+00
  X3vh   SX1  1 4.300000e-01    3.380000e+00
  X4vh   SX1  1 4.300000e-01    3.160000e+00
  C1vh   SX1  1 4.300000e-01    2.920000e+00
  C2vh   SX1  1 4.300000e-01    2.920000e+00
  C3vh   SX1  1 4.300000e-01    3.160000e+00
  C4vh   SX1  1 4.300000e-01    3.160000e+00
  C5vh   SX1  1 4.300000e-01    3.160000e+00
  C6vh   SX1  1 4.300000e-01    3.160000e+00
  N1ah   SX1  1 4.300000e-01    2.770000e+00
  N2ah   SX1  1 4.300000e-01    2.770000e+00
  N3ah   SX1  1 4.300000e-01    2.770000e+00
  N4ah   SX1  1 4.300000e-01    2.530000e+00
  N5ah   SX1  1 4.300000e-01    2.530000e+00
  N6ah   SX1  1 4.300000e-01    2.320000e+00
  P1ah   SX1  1 4.300000e-01    2.320000e+00
  P2ah   SX1  1 4.300000e-01    2.320000e+00
  P3ah   SX1  1 4.300000e-01    2.320000e+00
  P4ah   SX1  1 4.300000e-01    2.320000e+00
  P5ah   SX1  1 4.300000e-01    2.160000e+00
  P6ah   SX1  1 4.300000e-01    2.160000e+00
  N1dh   SX1  1 4.300000e-01    2.770000e+00
  N2dh   SX1  1 4.300000e-01    2.770000e+00
  N3dh   SX1  1 4.300000e-01    2.770000e+00
  N4dh   SX1  1 4.300000e-01    2.530000e+00
  N5dh   SX1  1 4.300000e-01    2.530000e+00
  N6dh   SX1  1 4.300000e-01    2.320000e+00
  P1dh   SX1  1 4.300000e-01    2.320000e+00
  P2dh   SX1  1 4.300000e-01    2.320000e+00
  P3dh   SX1  1 4.300000e-01    2.320000e+00
  P4dh   SX1  1 4.300000e-01    2.320000e+00
  P5dh   SX1  1 4.300000e-01    2.160000e+00
  P6dh   SX1  1 4.300000e-01    2.160000e+00
   P6r   SX1  1 4.300000e-01    2.160000e+00
   P5r   SX1  1 4.300000e-01    2.160000e+00
   P4r   SX1  1 4.300000e-01    2.320000e+00
   P3r   SX1  1 4.300000e-01    2.320000e+00
   P2r   SX1  1 4.300000e-01    2.320000e+00
   P1r   SX1  1 4.300000e-01    2.320000e+00
   N6r   SX1  1 4.300000e-01    2.320000e+00
   N5r   SX1  1 4.300000e-01    2.530000e+00
   N4r   SX1  1 4.300000e-01    2.530000e+00
   N3r   SX1  1 4.300000e-01    2.770000e+00
   N2r   SX1  1 4.300000e-01    2.770000e+00
   N1r   SX1  1 4.300000e-01    2.770000e+00
   C6r   SX1  1 4.300000e-01    2.920000e+00
   C5r   SX1  1 4.300000e-01    2.920000e+00
   C4r   SX1  1 4.300000e-01    2.920000e+00
   C3r   SX1  1 4.300000e-01    2.920000e+00
   C2r   SX1  1 4.300000e-01    2.770000e+00
   C1r   SX1  1 4.300000e-01    2.770000e+00
   X4r   SX1  1 4.300000e-01    2.920000e+00
   X3r   SX1  1 4.300000e-01    3.160000e+00
   X2r   SX1  1 4.300000e-01    3.160000e+00
  X2er   SX1  1 4.300000e-01    3.380000e+00
  X3er   SX1  1 4.300000e-01    3.380000e+00
  X4er   SX1  1 4.300000e-01    3.160000e+00
  C1er   SX1  1 4.300000e-01    2.920000e+00
  C2er   SX1  1 4.300000e-01    2.920000e+00
  C3er   SX1  1 4.300000e-01    3.160000e+00
  C4er   SX1  1 4.300000e-01    3.160000e+00
  C5er   SX1  1 4.300000e-01    3.160000e+00
  C6er   SX1  1 4.300000e-01    3.160000e+00
  X2vr   SX1  1 4.300000e-01    3.380000e+00
  X3vr   SX1  1 4.300000e-01    3.380000e+00
  X4vr   SX1  1 4.300000e-01    3.160000e+00
  C1vr   SX1  1 4.300000e-01    2.920000e+00
  C2vr   SX1  1 4.300000e-01    2.920000e+00
  C3vr   SX1  1 4.300000e-01    3.160000e+00
  C4vr   SX1  1 4.300000e-01    3.160000e+00
  C5vr   SX1  1 4.300000e-01    3.160000e+00
  C6vr   SX1  1 4.300000e-01    3.160000e+00
  N1ar   SX1  1 4.300000e-01    2.770000e+00
  N2ar   SX1  1 4.300000e-01    2.770000e+00
  N3ar   SX1  1 4.300000e-01    2.770000e+00
  N4ar   SX1  1 4.300000e-01    2.530000e+00
  N5ar   SX1  1 4.300000e-01    2.530000e+00
  N6ar   SX1  1 4.300000e-01    2.320000e+00
  P1ar   SX1  1 4.300000e-01    2.320000e+00
  P2ar   SX1  1 4.300000e-01    2.320000e+00
  P3ar   SX1  1 4.300000e-01    2.320000e+00
  P4ar   SX1  1 4.300000e-01    2.320000e+00
  P5ar   SX1  1 4.300000e-01    2.160000e+00
  P6ar   SX1  1 4.300000e-01    2.160000e+00
  N1dr   SX1  1 4.300000e-01    2.770000e+00
  N2dr   SX1  1 4.300000e-01    2.770000e+00
  N3dr   SX1  1 4.300000e-01    2.770000e+00
  N4dr   SX1  1 4.300000e-01    2.530000e+00
  N5dr   SX1  1 4.300000e-01    2.530000e+00
  N6dr   SX1  1 4.300000e-01    2.320000e+00
  P1dr   SX1  1 4.300000e-01    2.320000e+00
  P2dr   SX1  1 4.300000e-01    2.320000e+00
  P3dr   SX1  1 4.300000e-01    2.320000e+00
  P4dr   SX1  1 4.300000e-01    2.320000e+00
  P5dr   SX1  1 4.300000e-01    2.160000e+00
  P6dr   SX1  1 4.300000e-01    2.160000e+00
   SX1   X1v  1 4.300000e-01    3.590000e+00
   SX1   X1e  1 4.300000e-01    3.590000e+00
   SX1   X1q  1 4.300000e-01    3.770000e+00
   SX1  X1eq  1 4.300000e-01    3.970000e+00
   SX1  X1vq  1 4.300000e-01    3.970000e+00
   SX1   X1h  1 4.300000e-01    3.380000e+00
   SX1  X1eh  1 4.300000e-01    3.590000e+00
   SX1  X1vh  1 4.300000e-01    3.590000e+00
   SX1   X1r  1 4.300000e-01    3.380000e+00
   SX1  X1er  1 4.300000e-01    3.590000e+00
   SX1  X1vr  1 4.300000e-01    3.590000e+00
   SX1   SX1  1 4.100000e-01    2.840000e+00
  SP6d   SX1  1 4.100000e-01    1.750000e+00
  SP5d   SX1  1 4.100000e-01    1.750000e+00
  SP4d   SX1  1 4.100000e-01    1.910000e+00
  SP3d   SX1  1 4.100000e-01    1.910000e+00
  SP2d   SX1  1 4.100000e-01    1.910000e+00
  SP1d   SX1  1 4.100000e-01    1.910000e+00
  SN6d   SX1  1 4.100000e-01    1.910000e+00
  SN5d   SX1  1 4.100000e-01    2.040000e+00
  SN4d   SX1  1 4.100000e-01    2.040000e+00
  SN3d   SX1  1 4.100000e-01    2.200000e+00
  SN2d   SX1  1 4.100000e-01    2.200000e+00
  SN1d   SX1  1 4.100000e-01    2.200000e+00
  SP6a   SX1  1 4.100000e-01    1.750000e+00
  SP5a   SX1  1 4.100000e-01    1.750000e+00
  SP4a   SX1  1 4.100000e-01    1.910000e+00
  SP3a   SX1  1 4.100000e-01    1.910000e+00
  SP2a   SX1  1 4.100000e-01    1.910000e+00
  SP1a   SX1  1 4.100000e-01    1.910000e+00
  SN6a   SX1  1 4.100000e-01    1.910000e+00
  SN5a   SX1  1 4.100000e-01    2.040000e+00
  SN4a   SX1  1 4.100000e-01    2.040000e+00
  SN3a   SX1  1 4.100000e-01    2.200000e+00
  SN2a   SX1  1 4.100000e-01    2.200000e+00
  SN1a   SX1  1 4.100000e-01    2.200000e+00
  SC6v   SX1  1 4.100000e-01    2.600000e+00
  SC5v   SX1  1 4.100000e-01    2.600000e+00
  SC4v   SX1  1 4.100000e-01    2.600000e+00
  SC3v   SX1  1 4.100000e-01    2.600000e+00
  SC2v   SX1  1 4.100000e-01    2.350000e+00
  SC1v   SX1  1 4.100000e-01    2.350000e+00
  SX4v   SX1  1 4.100000e-01    2.600000e+00
  SX3v   SX1  1 4.100000e-01    2.840000e+00
  SX2v   SX1  1 4.100000e-01    2.840000e+00
   SX1  SX1v  1 4.100000e-01    3.070000e+00
  SC6e   SX1  1 4.100000e-01    2.600000e+00
  SC5e   SX1  1 4.100000e-01    2.600000e+00
  SC4e   SX1  1 4.100000e-01    2.600000e+00
  SC3e   SX1  1 4.100000e-01    2.600000e+00
  SC2e   SX1  1 4.100000e-01    2.350000e+00
  SC1e   SX1  1 4.100000e-01    2.350000e+00
  SX4e   SX1  1 4.100000e-01    2.600000e+00
  SX3e   SX1  1 4.100000e-01    2.840000e+00
  SX2e   SX1  1 4.100000e-01    2.840000e+00
   SX1  SX1e  1 4.100000e-01    3.070000e+00
  SP6q   SX1  1 4.100000e-01    2.040000e+00
  SP5q   SX1  1 4.100000e-01    2.040000e+00
  SP4q   SX1  1 4.100000e-01    2.200000e+00
  SP3q   SX1  1 4.100000e-01    2.200000e+00
  SP2q   SX1  1 4.100000e-01    2.200000e+00
  SP1q   SX1  1 4.100000e-01    2.200000e+00
  SN6q   SX1  1 4.100000e-01    2.200000e+00
  SN5q   SX1  1 4.100000e-01    2.350000e+00
  SN4q   SX1  1 4.100000e-01    2.350000e+00
  SN3q   SX1  1 4.100000e-01    2.600000e+00
  SN2q   SX1  1 4.100000e-01    2.600000e+00
  SN1q   SX1  1 4.100000e-01    2.600000e+00
  SC6q   SX1  1 4.100000e-01    2.840000e+00
  SC5q   SX1  1 4.100000e-01    2.840000e+00
  SC4q   SX1  1 4.100000e-01    2.840000e+00
  SC3q   SX1  1 4.100000e-01    2.840000e+00
  SC2q   SX1  1 4.100000e-01    2.600000e+00
  SC1q   SX1  1 4.100000e-01    2.600000e+00
  SX4q   SX1  1 4.100000e-01    2.840000e+00
  SX3q   SX1  1 4.100000e-01    3.070000e+00
  SX2q   SX1  1 4.100000e-01    3.070000e+00
   SX1  SX1q  1 4.100000e-01    3.310000e+00
   SX1 SX1eq  1 4.100000e-01    3.550000e+00
 SX2eq   SX1  1 4.100000e-01    3.310000e+00
 SX3eq   SX1  1 4.100000e-01    3.310000e+00
 SX4eq   SX1  1 4.100000e-01    3.070000e+00
 SC1eq   SX1  1 4.100000e-01    2.840000e+00
 SC2eq   SX1  1 4.100000e-01    2.840000e+00
 SC3eq   SX1  1 4.100000e-01    3.070000e+00
 SC4eq   SX1  1 4.100000e-01    3.070000e+00
 SC5eq   SX1  1 4.100000e-01    3.070000e+00
 SC6eq   SX1  1 4.100000e-01    3.070000e+00
   SX1 SX1vq  1 4.100000e-01    3.550000e+00
 SX2vq   SX1  1 4.100000e-01    3.310000e+00
 SX3vq   SX1  1 4.100000e-01    3.310000e+00
 SX4vq   SX1  1 4.100000e-01    3.070000e+00
 SC1vq   SX1  1 4.100000e-01    2.840000e+00
 SC2vq   SX1  1 4.100000e-01    2.840000e+00
 SC3vq   SX1  1 4.100000e-01    3.070000e+00
 SC4vq   SX1  1 4.100000e-01    3.070000e+00
 SC5vq   SX1  1 4.100000e-01    3.070000e+00
 SC6vq   SX1  1 4.100000e-01    3.070000e+00
 SN1aq   SX1  1 4.100000e-01    2.600000e+00
 SN2aq   SX1  1 4.100000e-01    2.600000e+00
 SN3aq   SX1  1 4.100000e-01    2.600000e+00
 SN4aq   SX1  1 4.100000e-01    2.350000e+00
 SN5aq   SX1  1 4.100000e-01    2.350000e+00
 SN6aq   SX1  1 4.100000e-01    2.200000e+00
 SP1aq   SX1  1 4.100000e-01    2.200000e+00
 SP2aq   SX1  1 4.100000e-01    2.200000e+00
 SP3aq   SX1  1 4.100000e-01    2.200000e+00
 SP4aq   SX1  1 4.100000e-01    2.200000e+00
 SP5aq   SX1  1 4.100000e-01    2.040000e+00
 SP6aq   SX1  1 4.100000e-01    2.040000e+00
 SN1dq   SX1  1 4.100000e-01    2.600000e+00
 SN2dq   SX1  1 4.100000e-01    2.600000e+00
 SN3dq   SX1  1 4.100000e-01    2.600000e+00
 SN4dq   SX1  1 4.100000e-01    2.350000e+00
 SN5dq   SX1  1 4.100000e-01    2.350000e+00
 SN6dq   SX1  1 4.100000e-01    2.200000e+00
 SP1dq   SX1  1 4.100000e-01    2.200000e+00
 SP2dq   SX1  1 4.100000e-01    2.200000e+00
 SP3dq   SX1  1 4.100000e-01    2.200000e+00
 SP4dq   SX1  1 4.100000e-01    2.200000e+00
 SP5dq   SX1  1 4.100000e-01    2.040000e+00
 SP6dq   SX1  1 4.100000e-01    2.040000e+00
  SP6h   SX1  1 4.100000e-01    1.750000e+00
  SP5h   SX1  1 4.100000e-01    1.750000e+00
  SP4h   SX1  1 4.100000e-01    1.910000e+00
  SP3h   SX1  1 4.100000e-01    1.910000e+00
  SP2h   SX1  1 4.100000e-01    1.910000e+00
  SP1h   SX1  1 4.100000e-01    1.910000e+00
  SN6h   SX1  1 4.100000e-01    1.910000e+00
  SN5h   SX1  1 4.100000e-01    2.040000e+00
  SN4h   SX1  1 4.100000e-01    2.040000e+00
  SN3h   SX1  1 4.100000e-01    2.200000e+00
  SN2h   SX1  1 4.100000e-01    2.200000e+00
  SN1h   SX1  1 4.100000e-01    2.200000e+00
  SC6h   SX1  1 4.100000e-01    2.350000e+00
  SC5h   SX1  1 4.100000e-01    2.350000e+00
  SC4h   SX1  1 4.100000e-01    2.350000e+00
  SC3h   SX1  1 4.100000e-01    2.350000e+00
  SC2h   SX1  1 4.100000e-01    2.200000e+00
  SC1h   SX1  1 4.100000e-01    2.200000e+00
  SX4h   SX1  1 4.100000e-01    2.350000e+00
  SX3h   SX1  1 4.100000e-01    2.600000e+00
  SX2h   SX1  1 4.100000e-01    2.600000e+00
   SX1  SX1h  1 4.100000e-01    2.840000e+00
   SX1 SX1eh  1 4.100000e-01    3.070000e+00
 SX2eh   SX1  1 4.100000e-01    2.840000e+00
 SX3eh   SX1  1 4.100000e-01    2.840000e+00
 SX4eh   SX1  1 4.100000e-01    2.600000e+00
 SC1eh   SX1  1 4.100000e-01    2.350000e+00
 SC2eh   SX1  1 4.100000e-01    2.350000e+00
 SC3eh   SX1  1 4.100000e-01    2.600000e+00
 SC4eh   SX1  1 4.100000e-01    2.600000e+00
 SC5eh   SX1  1 4.100000e-01    2.600000e+00
 SC6eh   SX1  1 4.100000e-01    2.600000e+00
   SX1 SX1vh  1 4.100000e-01    3.070000e+00
 SX2vh   SX1  1 4.100000e-01    2.840000e+00
 SX3vh   SX1  1 4.100000e-01    2.840000e+00
 SX4vh   SX1  1 4.100000e-01    2.600000e+00
 SC1vh   SX1  1 4.100000e-01    2.350000e+00
 SC2vh   SX1  1 4.100000e-01    2.350000e+00
 SC3vh   SX1  1 4.100000e-01    2.600000e+00
 SC4vh   SX1  1 4.100000e-01    2.600000e+00
 SC5vh   SX1  1 4.100000e-01    2.600000e+00
 SC6vh   SX1  1 4.100000e-01    2.600000e+00
 SN1ah   SX1  1 4.100000e-01    2.200000e+00
 SN2ah   SX1  1 4.100000e-01    2.200000e+00
 SN3ah   SX1  1 4.100000e-01    2.200000e+00
 SN4ah   SX1  1 4.100000e-01    2.040000e+00
 SN5ah   SX1  1 4.100000e-01    2.040000e+00
 SN6ah   SX1  1 4.100000e-01    1.910000e+00
 SP1ah   SX1  1 4.100000e-01    1.910000e+00
 SP2ah   SX1  1 4.100000e-01    1.910000e+00
 SP3ah   SX1  1 4.100000e-01    1.910000e+00
 SP4ah   SX1  1 4.100000e-01    1.910000e+00
 SP5ah   SX1  1 4.100000e-01    1.750000e+00
 SP6ah   SX1  1 4.100000e-01    1.750000e+00
 SN1dh   SX1  1 4.100000e-01    2.200000e+00
 SN2dh   SX1  1 4.100000e-01    2.200000e+00
 SN3dh   SX1  1 4.100000e-01    2.200000e+00
 SN4dh   SX1  1 4.100000e-01    2.040000e+00
 SN5dh   SX1  1 4.100000e-01    2.040000e+00
 SN6dh   SX1  1 4.100000e-01    1.910000e+00
 SP1dh   SX1  1 4.100000e-01    1.910000e+00
 SP2dh   SX1  1 4.100000e-01    1.910000e+00
 SP3dh   SX1  1 4.100000e-01    1.910000e+00
 SP4dh   SX1  1 4.100000e-01    1.910000e+00
 SP5dh   SX1  1 4.100000e-01    1.750000e+00
 SP6dh   SX1  1 4.100000e-01    1.750000e+00
  SP6r   SX1  1 4.100000e-01    1.750000e+00
  SP5r   SX1  1 4.100000e-01    1.750000e+00
  SP4r   SX1  1 4.100000e-01    1.910000e+00
  SP3r   SX1  1 4.100000e-01    1.910000e+00
  SP2r   SX1  1 4.100000e-01    1.910000e+00
  SP1r   SX1  1 4.100000e-01    1.910000e+00
  SN6r   SX1  1 4.100000e-01    1.910000e+00
  SN5r   SX1  1 4.100000e-01    2.040000e+00
  SN4r   SX1  1 4.100000e-01    2.040000e+00
  SN3r   SX1  1 4.100000e-01    2.200000e+00
  SN2r   SX1  1 4.100000e-01    2.200000e+00
  SN1r   SX1  1 4.100000e-01    2.200000e+00
  SC6r   SX1  1 4.100000e-01    2.350000e+00
  SC5r   SX1  1 4.100000e-01    2.350000e+00
  SC4r   SX1  1 4.100000e-01    2.350000e+00
  SC3r   SX1  1 4.100000e-01    2.350000e+00
  SC2r   SX1  1 4.100000e-01    2.200000e+00
  SC1r   SX1  1 4.100000e-01    2.200000e+00
  SX4r   SX1  1 4.100000e-01    2.350000e+00
  SX3r   SX1  1 4.100000e-01    2.600000e+00
  SX2r   SX1  1 4.100000e-01    2.600000e+00
   SX1  SX1r  1 4.100000e-01    2.840000e+00
   SX1 SX1er  1 4.100000e-01    3.070000e+00
 SX2er   SX1  1 4.100000e-01    2.840000e+00
 SX3er   SX1  1 4.100000e-01    2.840000e+00
 SX4er   SX1  1 4.100000e-01    2.600000e+00
 SC1er   SX1  1 4.100000e-01    2.350000e+00
 SC2er   SX1  1 4.100000e-01    2.350000e+00
 SC3er   SX1  1 4.100000e-01    2.600000e+00
 SC4er   SX1  1 4.100000e-01    2.600000e+00
 SC5er   SX1  1 4.100000e-01    2.600000e+00
 SC6er   SX1  1 4.100000e-01    2.600000e+00
   SX1 SX1vr  1 4.100000e-01    3.070000e+00
 SX2vr   SX1  1 4.100000e-01    2.840000e+00
 SX3vr   SX1  1 4.100000e-01    2.840000e+00
 SX4vr   SX1  1 4.100000e-01    2.600000e+00
 SC1vr   SX1  1 4.100000e-01    2.350000e+00
 SC2vr   SX1  1 4.100000e-01    2.350000e+00
 SC3vr   SX1  1 4.100000e-01    2.600000e+00
 SC4vr   SX1  1 4.100000e-01    2.600000e+00
 SC5vr   SX1  1 4.100000e-01    2.600000e+00
 SC6vr   SX1  1 4.100000e-01    2.600000e+00
 SN1ar   SX1  1 4.100000e-01    2.200000e+00
 SN2ar   SX1  1 4.100000e-01    2.200000e+00
 SN3ar   SX1  1 4.100000e-01    2.200000e+00
 SN4ar   SX1  1 4.100000e-01    2.040000e+00
 SN5ar   SX1  1 4.100000e-01    2.040000e+00
 SN6ar   SX1  1 4.100000e-01    1.910000e+00
 SP1ar   SX1  1 4.100000e-01    1.910000e+00
 SP2ar   SX1  1 4.100000e-01    1.910000e+00
 SP3ar   SX1  1 4.100000e-01    1.910000e+00
 SP4ar   SX1  1 4.100000e-01    1.910000e+00
 SP5ar   SX1  1 4.100000e-01    1.750000e+00
 SP6ar   SX1  1 4.100000e-01    1.750000e+00
 SN1dr   SX1  1 4.100000e-01    2.200000e+00
 SN2dr   SX1  1 4.100000e-01    2.200000e+00
 SN3dr   SX1  1 4.100000e-01    2.200000e+00
 SN4dr   SX1  1 4.100000e-01    2.040000e+00
 SN5dr   SX1  1 4.100000e-01    2.040000e+00
 SN6dr   SX1  1 4.100000e-01    1.910000e+00
 SP1dr   SX1  1 4.100000e-01    1.910000e+00
 SP2dr   SX1  1 4.100000e-01    1.910000e+00
 SP3dr   SX1  1 4.100000e-01    1.910000e+00
 SP4dr   SX1  1 4.100000e-01    1.910000e+00
 SP5dr   SX1  1 4.100000e-01    1.750000e+00
 SP6dr   SX1  1 4.100000e-01    1.750000e+00
   SX1   TX1  1 3.650000e-01    2.340000e+00
   SX1  TX1v  1 3.650000e-01    2.570000e+00
   SX1  TX1e  1 3.650000e-01    2.570000e+00
   SX1  TX1q  1 3.650000e-01    2.830000e+00
   SX1 TX1eq  1 3.650000e-01    3.100000e+00
   SX1 TX1vq  1 3.650000e-01    3.100000e+00
   SX1  TX1h  1 3.650000e-01    2.340000e+00
   SX1 TX1eh  1 3.650000e-01    2.570000e+00
   SX1 TX1vh  1 3.650000e-01    2.570000e+00
   SX1  TX1r  1 3.650000e-01    2.340000e+00
   SX1 TX1er  1 3.650000e-01    2.570000e+00
   SX1 TX1vr  1 3.650000e-01    2.570000e+00
  TP6d   SX1  1 3.940000e-01    1.290000e+00
  TP5d   SX1  1 3.940000e-01    1.290000e+00
  TP4d   SX1  1 3.780000e-01    1.450000e+00
  TP3d   SX1  1 3.780000e-01    1.450000e+00
  TP2d   SX1  1 3.780000e-01    1.450000e+00
  TP1d   SX1  1 3.780000e-01    1.450000e+00
  TN6d   SX1  1 3.780000e-01    1.450000e+00
  TN5d   SX1  1 3.660000e-01    1.600000e+00
  TN4d   SX1  1 3.660000e-01    1.600000e+00
  TN3d   SX1  1 3.650000e-01    1.750000e+00
  TN2d   SX1  1 3.650000e-01    1.750000e+00
  TN1d   SX1  1 3.650000e-01    1.750000e+00
  TP6a   SX1  1 3.940000e-01    1.290000e+00
  TP5a   SX1  1 3.940000e-01    1.290000e+00
  TP4a   SX1  1 3.780000e-01    1.450000e+00
  TP3a   SX1  1 3.780000e-01    1.450000e+00
  TP2a   SX1  1 3.780000e-01    1.450000e+00
  TP1a   SX1  1 3.780000e-01    1.450000e+00
  TN6a   SX1  1 3.780000e-01    1.450000e+00
  TN5a   SX1  1 3.660000e-01    1.600000e+00
  TN4a   SX1  1 3.660000e-01    1.600000e+00
  TN3a   SX1  1 3.650000e-01    1.750000e+00
  TN2a   SX1  1 3.650000e-01    1.750000e+00
  TN1a   SX1  1 3.650000e-01    1.750000e+00
  TC6v   SX1  1 3.650000e-01    2.110000e+00
  TC5v   SX1  1 3.650000e-01    2.110000e+00
  TC4v   SX1  1 3.650000e-01    2.110000e+00
  TC3v   SX1  1 3.650000e-01    2.110000e+00
  TC2v   SX1  1 3.650000e-01    1.910000e+00
  TC1v   SX1  1 3.650000e-01    1.910000e+00
  TX4v   SX1  1 3.650000e-01    2.110000e+00
  TX3v   SX1  1 3.650000e-01    2.340000e+00
  TX2v   SX1  1 3.650000e-01    2.340000e+00
  TC6e   SX1  1 3.650000e-01    2.110000e+00
  TC5e   SX1  1 3.650000e-01    2.110000e+00
  TC4e   SX1  1 3.650000e-01    2.110000e+00
  TC3e   SX1  1 3.650000e-01    2.110000e+00
  TC2e   SX1  1 3.650000e-01    1.910000e+00
  TC1e   SX1  1 3.650000e-01    1.910000e+00
  TX4e   SX1  1 3.650000e-01    2.110000e+00
  TX3e   SX1  1 3.650000e-01    2.340000e+00
  TX2e   SX1  1 3.650000e-01    2.340000e+00
  TP6q   SX1  1 3.660000e-01    1.600000e+00
  TP5q   SX1  1 3.660000e-01    1.600000e+00
  TP4q   SX1  1 3.650000e-01    1.750000e+00
  TP3q   SX1  1 3.650000e-01    1.750000e+00
  TP2q   SX1  1 3.650000e-01    1.750000e+00
  TP1q   SX1  1 3.650000e-01    1.750000e+00
  TN6q   SX1  1 3.650000e-01    1.750000e+00
  TN5q   SX1  1 3.650000e-01    1.910000e+00
  TN4q   SX1  1 3.650000e-01    1.910000e+00
  TN3q   SX1  1 3.650000e-01    2.110000e+00
  TN2q   SX1  1 3.650000e-01    2.110000e+00
  TN1q   SX1  1 3.650000e-01    2.110000e+00
  TC6q   SX1  1 3.650000e-01    2.340000e+00
  TC5q   SX1  1 3.650000e-01    2.340000e+00
  TC4q   SX1  1 3.650000e-01    2.340000e+00
  TC3q   SX1  1 3.650000e-01    2.340000e+00
  TC2q   SX1  1 3.650000e-01    2.110000e+00
  TC1q   SX1  1 3.650000e-01    2.110000e+00
  TX4q   SX1  1 3.650000e-01    2.340000e+00
  TX3q   SX1  1 3.650000e-01    2.570000e+00
  TX2q   SX1  1 3.650000e-01    2.570000e+00
 TX2eq   SX1  1 3.650000e-01    2.830000e+00
 TX3eq   SX1  1 3.650000e-01    2.830000e+00
 TX4eq   SX1  1 3.650000e-01    2.570000e+00
 TC1eq   SX1  1 3.650000e-01    2.340000e+00
 TC2eq   SX1  1 3.650000e-01    2.340000e+00
 TC3eq   SX1  1 3.650000e-01    2.570000e+00
 TC4eq   SX1  1 3.650000e-01    2.570000e+00
 TC5eq   SX1  1 3.650000e-01    2.570000e+00
 TC6eq   SX1  1 3.650000e-01    2.570000e+00
 TX2vq   SX1  1 3.650000e-01    2.830000e+00
 TX3vq   SX1  1 3.650000e-01    2.830000e+00
 TX4vq   SX1  1 3.650000e-01    2.570000e+00
 TC1vq   SX1  1 3.650000e-01    2.340000e+00
 TC2vq   SX1  1 3.650000e-01    2.340000e+00
 TC3vq   SX1  1 3.650000e-01    2.570000e+00
 TC4vq   SX1  1 3.650000e-01    2.570000e+00
 TC5vq   SX1  1 3.650000e-01    2.570000e+00
 TC6vq   SX1  1 3.650000e-01    2.570000e+00
 TN1aq   SX1  1 3.650000e-01    2.110000e+00
 TN2aq   SX1  1 3.650000e-01    2.110000e+00
 TN3aq   SX1  1 3.650000e-01    2.110000e+00
 TN4aq   SX1  1 3.650000e-01    1.910000e+00
 TN5aq   SX1  1 3.650000e-01    1.910000e+00
 TN6aq   SX1  1 3.650000e-01    1.750000e+00
 TP1aq   SX1  1 3.650000e-01    1.750000e+00
 TP2aq   SX1  1 3.650000e-01    1.750000e+00
 TP3aq   SX1  1 3.650000e-01    1.750000e+00
 TP4aq   SX1  1 3.650000e-01    1.750000e+00
 TP5aq   SX1  1 3.660000e-01    1.600000e+00
 TP6aq   SX1  1 3.660000e-01    1.600000e+00
 TN1dq   SX1  1 3.650000e-01    2.110000e+00
 TN2dq   SX1  1 3.650000e-01    2.110000e+00
 TN3dq   SX1  1 3.650000e-01    2.110000e+00
 TN4dq   SX1  1 3.650000e-01    1.910000e+00
 TN5dq   SX1  1 3.650000e-01    1.910000e+00
 TN6dq   SX1  1 3.650000e-01    1.750000e+00
 TP1dq   SX1  1 3.650000e-01    1.750000e+00
 TP2dq   SX1  1 3.650000e-01    1.750000e+00
 TP3dq   SX1  1 3.650000e-01    1.750000e+00
 TP4dq   SX1  1 3.650000e-01    1.750000e+00
 TP5dq   SX1  1 3.660000e-01    1.600000e+00
 TP6dq   SX1  1 3.660000e-01    1.600000e+00
  TP6h   SX1  1 3.940000e-01    1.290000e+00
  TP5h   SX1  1 3.940000e-01    1.290000e+00
  TP4h   SX1  1 3.780000e-01    1.450000e+00
  TP3h   SX1  1 3.780000e-01    1.450000e+00
  TP2h   SX1  1 3.780000e-01    1.450000e+00
  TP1h   SX1  1 3.780000e-01    1.450000e+00
  TN6h   SX1  1 3.780000e-01    1.450000e+00
  TN5h   SX1  1 3.660000e-01    1.600000e+00
  TN4h   SX1  1 3.660000e-01    1.600000e+00
  TN3h   SX1  1 3.650000e-01    1.750000e+00
  TN2h   SX1  1 3.650000e-01    1.750000e+00
  TN1h   SX1  1 3.650000e-01    1.750000e+00
  TC6h   SX1  1 3.650000e-01    1.910000e+00
  TC5h   SX1  1 3.650000e-01    1.910000e+00
  TC4h   SX1  1 3.650000e-01    1.910000e+00
  TC3h   SX1  1 3.650000e-01    1.910000e+00
  TC2h   SX1  1 3.650000e-01    1.750000e+00
  TC1h   SX1  1 3.650000e-01    1.750000e+00
  TX4h   SX1  1 3.650000e-01    1.910000e+00
  TX3h   SX1  1 3.650000e-01    2.110000e+00
  TX2h   SX1  1 3.650000e-01    2.110000e+00
 TX2eh   SX1  1 3.650000e-01    2.340000e+00
 TX3eh   SX1  1 3.650000e-01    2.340000e+00
 TX4eh   SX1  1 3.650000e-01    2.110000e+00
 TC1eh   SX1  1 3.650000e-01    1.910000e+00
 TC2eh   SX1  1 3.650000e-01    1.910000e+00
 TC3eh   SX1  1 3.650000e-01    2.110000e+00
 TC4eh   SX1  1 3.650000e-01    2.110000e+00
 TC5eh   SX1  1 3.650000e-01    2.110000e+00
 TC6eh   SX1  1 3.650000e-01    2.110000e+00
 TX2vh   SX1  1 3.650000e-01    2.340000e+00
 TX3vh   SX1  1 3.650000e-01    2.340000e+00
 TX4vh   SX1  1 3.650000e-01    2.110000e+00
 TC1vh   SX1  1 3.650000e-01    1.910000e+00
 TC2vh   SX1  1 3.650000e-01    1.910000e+00
 TC3vh   SX1  1 3.650000e-01    2.110000e+00
 TC4vh   SX1  1 3.650000e-01    2.110000e+00
 TC5vh   SX1  1 3.650000e-01    2.110000e+00
 TC6vh   SX1  1 3.650000e-01    2.110000e+00
 TN1ah   SX1  1 3.650000e-01    1.750000e+00
 TN2ah   SX1  1 3.650000e-01    1.750000e+00
 TN3ah   SX1  1 3.650000e-01    1.750000e+00
 TN4ah   SX1  1 3.660000e-01    1.600000e+00
 TN5ah   SX1  1 3.660000e-01    1.600000e+00
 TN6ah   SX1  1 3.780000e-01    1.450000e+00
 TP1ah   SX1  1 3.780000e-01    1.450000e+00
 TP2ah   SX1  1 3.780000e-01    1.450000e+00
 TP3ah   SX1  1 3.780000e-01    1.450000e+00
 TP4ah   SX1  1 3.780000e-01    1.450000e+00
 TP5ah   SX1  1 3.940000e-01    1.290000e+00
 TP6ah   SX1  1 3.940000e-01    1.290000e+00
 TN1dh   SX1  1 3.650000e-01    1.750000e+00
 TN2dh   SX1  1 3.650000e-01    1.750000e+00
 TN3dh   SX1  1 3.650000e-01    1.750000e+00
 TN4dh   SX1  1 3.660000e-01    1.600000e+00
 TN5dh   SX1  1 3.660000e-01    1.600000e+00
 TN6dh   SX1  1 3.780000e-01    1.450000e+00
 TP1dh   SX1  1 3.780000e-01    1.450000e+00
 TP2dh   SX1  1 3.780000e-01    1.450000e+00
 TP3dh   SX1  1 3.780000e-01    1.450000e+00
 TP4dh   SX1  1 3.780000e-01    1.450000e+00
 TP5dh   SX1  1 3.940000e-01    1.290000e+00
 TP6dh   SX1  1 3.940000e-01    1.290000e+00
  TP6r   SX1  1 3.940000e-01    1.290000e+00
  TP5r   SX1  1 3.940000e-01    1.290000e+00
  TP4r   SX1  1 3.780000e-01    1.450000e+00
  TP3r   SX1  1 3.780000e-01    1.450000e+00
  TP2r   SX1  1 3.780000e-01    1.450000e+00
  TP1r   SX1  1 3.780000e-01    1.450000e+00
  TN6r   SX1  1 3.780000e-01    1.450000e+00
  TN5r   SX1  1 3.660000e-01    1.600000e+00
  TN4r   SX1  1 3.660000e-01    1.600000e+00
  TN3r   SX1  1 3.650000e-01    1.750000e+00
  TN2r   SX1  1 3.650000e-01    1.750000e+00
  TN1r   SX1  1 3.650000e-01    1.750000e+00
  TC6r   SX1  1 3.650000e-01    1.910000e+00
  TC5r   SX1  1 3.650000e-01    1.910000e+00
  TC4r   SX1  1 3.650000e-01    1.910000e+00
  TC3r   SX1  1 3.650000e-01    1.910000e+00
  TC2r   SX1  1 3.650000e-01    1.750000e+00
  TC1r   SX1  1 3.650000e-01    1.750000e+00
  TX4r   SX1  1 3.650000e-01    1.910000e+00
  TX3r   SX1  1 3.650000e-01    2.110000e+00
  TX2r   SX1  1 3.650000e-01    2.110000e+00
 TX2er   SX1  1 3.650000e-01    2.340000e+00
 TX3er   SX1  1 3.650000e-01    2.340000e+00
 TX4er   SX1  1 3.650000e-01    2.110000e+00
 TC1er   SX1  1 3.650000e-01    1.910000e+00
 TC2er   SX1  1 3.650000e-01    1.910000e+00
 TC3er   SX1  1 3.650000e-01    2.110000e+00
 TC4er   SX1  1 3.650000e-01    2.110000e+00
 TC5er   SX1  1 3.650000e-01    2.110000e+00
 TC6er   SX1  1 3.650000e-01    2.110000e+00
 TX2vr   SX1  1 3.650000e-01    2.340000e+00
 TX3vr   SX1  1 3.650000e-01    2.340000e+00
 TX4vr   SX1  1 3.650000e-01    2.110000e+00
 TC1vr   SX1  1 3.650000e-01    1.910000e+00
 TC2vr   SX1  1 3.650000e-01    1.910000e+00
 TC3vr   SX1  1 3.650000e-01    2.110000e+00
 TC4vr   SX1  1 3.650000e-01    2.110000e+00
 TC5vr   SX1  1 3.650000e-01    2.110000e+00
 TC6vr   SX1  1 3.650000e-01    2.110000e+00
 TN1ar   SX1  1 3.650000e-01    1.750000e+00
 TN2ar   SX1  1 3.650000e-01    1.750000e+00
 TN3ar   SX1  1 3.650000e-01    1.750000e+00
 TN4ar   SX1  1 3.660000e-01    1.600000e+00
 TN5ar   SX1  1 3.660000e-01    1.600000e+00
 TN6ar   SX1  1 3.780000e-01    1.450000e+00
 TP1ar   SX1  1 3.780000e-01    1.450000e+00
 TP2ar   SX1  1 3.780000e-01    1.450000e+00
 TP3ar   SX1  1 3.780000e-01    1.450000e+00
 TP4ar   SX1  1 3.780000e-01    1.450000e+00
 TP5ar   SX1  1 3.940000e-01    1.290000e+00
 TP6ar   SX1  1 3.940000e-01    1.290000e+00
 TN1dr   SX1  1 3.650000e-01    1.750000e+00
 TN2dr   SX1  1 3.650000e-01    1.750000e+00
 TN3dr   SX1  1 3.650000e-01    1.750000e+00
 TN4dr   SX1  1 3.660000e-01    1.600000e+00
 TN5dr   SX1  1 3.660000e-01    1.600000e+00
 TN6dr   SX1  1 3.780000e-01    1.450000e+00
 TP1dr   SX1  1 3.780000e-01    1.450000e+00
 TP2dr   SX1  1 3.780000e-01    1.450000e+00
 TP3dr   SX1  1 3.780000e-01    1.450000e+00
 TP4dr   SX1  1 3.780000e-01    1.450000e+00
 TP5dr   SX1  1 3.940000e-01    1.290000e+00
 TP6dr   SX1  1 3.940000e-01    1.290000e+00
   P6d   TX1  1 3.980000e-01    1.450000e+00
   P5d   TX1  1 3.980000e-01    1.450000e+00
   P4d   TX1  1 3.950000e-01    1.670000e+00
   P3d   TX1  1 3.950000e-01    1.670000e+00
   P2d   TX1  1 3.950000e-01    1.670000e+00
   P1d   TX1  1 3.950000e-01    1.670000e+00
   N6d   TX1  1 3.950000e-01    1.670000e+00
   N5d   TX1  1 3.950000e-01    1.850000e+00
   N4d   TX1  1 3.950000e-01    1.850000e+00
   N3d   TX1  1 3.950000e-01    2.110000e+00
   N2d   TX1  1 3.950000e-01    2.110000e+00
   N1d   TX1  1 3.950000e-01    2.110000e+00
   P6a   TX1  1 3.980000e-01    1.450000e+00
   P5a   TX1  1 3.980000e-01    1.450000e+00
   P4a   TX1  1 3.950000e-01    1.670000e+00
   P3a   TX1  1 3.950000e-01    1.670000e+00
   P2a   TX1  1 3.950000e-01    1.670000e+00
   P1a   TX1  1 3.950000e-01    1.670000e+00
   N6a   TX1  1 3.950000e-01    1.670000e+00
   N5a   TX1  1 3.950000e-01    1.850000e+00
   N4a   TX1  1 3.950000e-01    1.850000e+00
   N3a   TX1  1 3.950000e-01    2.110000e+00
   N2a   TX1  1 3.950000e-01    2.110000e+00
   N1a   TX1  1 3.950000e-01    2.110000e+00
   C6v   TX1  1 3.950000e-01    2.500000e+00
   C5v   TX1  1 3.950000e-01    2.500000e+00
   C4v   TX1  1 3.950000e-01    2.500000e+00
   C3v   TX1  1 3.950000e-01    2.500000e+00
   C2v   TX1  1 3.950000e-01    2.310000e+00
   C1v   TX1  1 3.950000e-01    2.310000e+00
   X4v   TX1  1 3.950000e-01    2.500000e+00
   X3v   TX1  1 3.950000e-01    2.700000e+00
   X2v   TX1  1 3.950000e-01    2.700000e+00
   C6e   TX1  1 3.950000e-01    2.500000e+00
   C5e   TX1  1 3.950000e-01    2.500000e+00
   C4e   TX1  1 3.950000e-01    2.500000e+00
   C3e   TX1  1 3.950000e-01    2.500000e+00
   C2e   TX1  1 3.950000e-01    2.310000e+00
   C1e   TX1  1 3.950000e-01    2.310000e+00
   X4e   TX1  1 3.950000e-01    2.500000e+00
   X3e   TX1  1 3.950000e-01    2.700000e+00
   X2e   TX1  1 3.950000e-01    2.700000e+00
   P6q   TX1  1 3.950000e-01    1.850000e+00
   P5q   TX1  1 3.950000e-01    1.850000e+00
   P4q   TX1  1 3.950000e-01    2.110000e+00
   P3q   TX1  1 3.950000e-01    2.110000e+00
   P2q   TX1  1 3.950000e-01    2.110000e+00
   P1q   TX1  1 3.950000e-01    2.110000e+00
   N6q   TX1  1 3.950000e-01    2.110000e+00
   N5q   TX1  1 3.950000e-01    2.310000e+00
   N4q   TX1  1 3.950000e-01    2.310000e+00
   N3q   TX1  1 3.950000e-01    2.500000e+00
   N2q   TX1  1 3.950000e-01    2.500000e+00
   N1q   TX1  1 3.950000e-01    2.500000e+00
   C6q   TX1  1 3.950000e-01    2.700000e+00
   C5q   TX1  1 3.950000e-01    2.700000e+00
   C4q   TX1  1 3.950000e-01    2.700000e+00
   C3q   TX1  1 3.950000e-01    2.700000e+00
   C2q   TX1  1 3.950000e-01    2.500000e+00
   C1q   TX1  1 3.950000e-01    2.500000e+00
   X4q   TX1  1 3.950000e-01    2.700000e+00
   X3q   TX1  1 3.950000e-01    2.940000e+00
   X2q   TX1  1 3.950000e-01    2.940000e+00
  X2eq   TX1  1 3.950000e-01    3.190000e+00
  X3eq   TX1  1 3.950000e-01    3.190000e+00
  X4eq   TX1  1 3.950000e-01    2.940000e+00
  C1eq   TX1  1 3.950000e-01    2.700000e+00
  C2eq   TX1  1 3.950000e-01    2.700000e+00
  C3eq   TX1  1 3.950000e-01    2.940000e+00
  C4eq   TX1  1 3.950000e-01    2.940000e+00
  C5eq   TX1  1 3.950000e-01    2.940000e+00
  C6eq   TX1  1 3.950000e-01    2.940000e+00
  X2vq   TX1  1 3.950000e-01    3.190000e+00
  X3vq   TX1  1 3.950000e-01    3.190000e+00
  X4vq   TX1  1 3.950000e-01    2.940000e+00
  C1vq   TX1  1 3.950000e-01    2.700000e+00
  C2vq   TX1  1 3.950000e-01    2.700000e+00
  C3vq   TX1  1 3.950000e-01    2.940000e+00
  C4vq   TX1  1 3.950000e-01    2.940000e+00
  C5vq   TX1  1 3.950000e-01    2.940000e+00
  C6vq   TX1  1 3.950000e-01    2.940000e+00
  N1aq   TX1  1 3.950000e-01    2.500000e+00
  N2aq   TX1  1 3.950000e-01    2.500000e+00
  N3aq   TX1  1 3.950000e-01    2.500000e+00
  N4aq   TX1  1 3.950000e-01    2.310000e+00
  N5aq   TX1  1 3.950000e-01    2.310000e+00
  N6aq   TX1  1 3.950000e-01    2.110000e+00
  P1aq   TX1  1 3.950000e-01    2.110000e+00
  P2aq   TX1  1 3.950000e-01    2.110000e+00
  P3aq   TX1  1 3.950000e-01    2.110000e+00
  P4aq   TX1  1 3.950000e-01    2.110000e+00
  P5aq   TX1  1 3.950000e-01    1.850000e+00
  P6aq   TX1  1 3.950000e-01    1.850000e+00
  N1dq   TX1  1 3.950000e-01    2.500000e+00
  N2dq   TX1  1 3.950000e-01    2.500000e+00
  N3dq   TX1  1 3.950000e-01    2.500000e+00
  N4dq   TX1  1 3.950000e-01    2.310000e+00
  N5dq   TX1  1 3.950000e-01    2.310000e+00
  N6dq   TX1  1 3.950000e-01    2.110000e+00
  P1dq   TX1  1 3.950000e-01    2.110000e+00
  P2dq   TX1  1 3.950000e-01    2.110000e+00
  P3dq   TX1  1 3.950000e-01    2.110000e+00
  P4dq   TX1  1 3.950000e-01    2.110000e+00
  P5dq   TX1  1 3.950000e-01    1.850000e+00
  P6dq   TX1  1 3.950000e-01    1.850000e+00
   P6h   TX1  1 3.980000e-01    1.450000e+00
   P5h   TX1  1 3.980000e-01    1.450000e+00
   P4h   TX1  1 3.950000e-01    1.670000e+00
   P3h   TX1  1 3.950000e-01    1.670000e+00
   P2h   TX1  1 3.950000e-01    1.670000e+00
   P1h   TX1  1 3.950000e-01    1.670000e+00
   N6h   TX1  1 3.950000e-01    1.670000e+00
   N5h   TX1  1 3.950000e-01    1.850000e+00
   N4h   TX1  1 3.950000e-01    1.850000e+00
   N3h   TX1  1 3.950000e-01    2.110000e+00
   N2h   TX1  1 3.950000e-01    2.110000e+00
   N1h   TX1  1 3.950000e-01    2.110000e+00
   C6h   TX1  1 3.950000e-01    2.310000e+00
   C5h   TX1  1 3.950000e-01    2.310000e+00
   C4h   TX1  1 3.950000e-01    2.310000e+00
   C3h   TX1  1 3.950000e-01    2.310000e+00
   C2h   TX1  1 3.950000e-01    2.110000e+00
   C1h   TX1  1 3.950000e-01    2.110000e+00
   X4h   TX1  1 3.950000e-01    2.310000e+00
   X3h   TX1  1 3.950000e-01    2.500000e+00
   X2h   TX1  1 3.950000e-01    2.500000e+00
  X2eh   TX1  1 3.950000e-01    2.700000e+00
  X3eh   TX1  1 3.950000e-01    2.700000e+00
  X4eh   TX1  1 3.950000e-01    2.500000e+00
  C1eh   TX1  1 3.950000e-01    2.310000e+00
  C2eh   TX1  1 3.950000e-01    2.310000e+00
  C3eh   TX1  1 3.950000e-01    2.500000e+00
  C4eh   TX1  1 3.950000e-01    2.500000e+00
  C5eh   TX1  1 3.950000e-01    2.500000e+00
  C6eh   TX1  1 3.950000e-01    2.500000e+00
  X2vh   TX1  1 3.950000e-01    2.700000e+00
  X3vh   TX1  1 3.950000e-01    2.700000e+00
  X4vh   TX1  1 3.950000e-01    2.500000e+00
  C1vh   TX1  1 3.950000e-01    2.310000e+00
  C2vh   TX1  1 3.950000e-01    2.310000e+00
  C3vh   TX1  1 3.950000e-01    2.500000e+00
  C4vh   TX1  1 3.950000e-01    2.500000e+00
  C5vh   TX1  1 3.950000e-01    2.500000e+00
  C6vh   TX1  1 3.950000e-01    2.500000e+00
  N1ah   TX1  1 3.950000e-01    2.110000e+00
  N2ah   TX1  1 3.950000e-01    2.110000e+00
  N3ah   TX1  1 3.950000e-01    2.110000e+00
  N4ah   TX1  1 3.950000e-01    1.850000e+00
  N5ah   TX1  1 3.950000e-01    1.850000e+00
  N6ah   TX1  1 3.950000e-01    1.670000e+00
  P1ah   TX1  1 3.950000e-01    1.670000e+00
  P2ah   TX1  1 3.950000e-01    1.670000e+00
  P3ah   TX1  1 3.950000e-01    1.670000e+00
  P4ah   TX1  1 3.950000e-01    1.670000e+00
  P5ah   TX1  1 3.980000e-01    1.450000e+00
  P6ah   TX1  1 3.980000e-01    1.450000e+00
  N1dh   TX1  1 3.950000e-01    2.110000e+00
  N2dh   TX1  1 3.950000e-01    2.110000e+00
  N3dh   TX1  1 3.950000e-01    2.110000e+00
  N4dh   TX1  1 3.950000e-01    1.850000e+00
  N5dh   TX1  1 3.950000e-01    1.850000e+00
  N6dh   TX1  1 3.950000e-01    1.670000e+00
  P1dh   TX1  1 3.950000e-01    1.670000e+00
  P2dh   TX1  1 3.950000e-01    1.670000e+00
  P3dh   TX1  1 3.950000e-01    1.670000e+00
  P4dh   TX1  1 3.950000e-01    1.670000e+00
  P5dh   TX1  1 3.980000e-01    1.450000e+00
  P6dh   TX1  1 3.980000e-01    1.450000e+00
   P6r   TX1  1 3.980000e-01    1.450000e+00
   P5r   TX1  1 3.980000e-01    1.450000e+00
   P4r   TX1  1 3.950000e-01    1.670000e+00
   P3r   TX1  1 3.950000e-01    1.670000e+00
   P2r   TX1  1 3.950000e-01    1.670000e+00
   P1r   TX1  1 3.950000e-01    1.670000e+00
   N6r   TX1  1 3.950000e-01    1.670000e+00
   N5r   TX1  1 3.950000e-01    1.850000e+00
   N4r   TX1  1 3.950000e-01    1.850000e+00
   N3r   TX1  1 3.950000e-01    2.110000e+00
   N2r   TX1  1 3.950000e-01    2.110000e+00
   N1r   TX1  1 3.950000e-01    2.110000e+00
   C6r   TX1  1 3.950000e-01    2.310000e+00
   C5r   TX1  1 3.950000e-01    2.310000e+00
   C4r   TX1  1 3.950000e-01    2.310000e+00
   C3r   TX1  1 3.950000e-01    2.310000e+00
   C2r   TX1  1 3.950000e-01    2.110000e+00
   C1r   TX1  1 3.950000e-01    2.110000e+00
   X4r   TX1  1 3.950000e-01    2.310000e+00
   X3r   TX1  1 3.950000e-01    2.500000e+00
   X2r   TX1  1 3.950000e-01    2.500000e+00
  X2er   TX1  1 3.950000e-01    2.700000e+00
  X3er   TX1  1 3.950000e-01    2.700000e+00
  X4er   TX1  1 3.950000e-01    2.500000e+00
  C1er   TX1  1 3.950000e-01    2.310000e+00
  C2er   TX1  1 3.950000e-01    2.310000e+00
  C3er   TX1  1 3.950000e-01    2.500000e+00
  C4er   TX1  1 3.950000e-01    2.500000e+00
  C5er   TX1  1 3.950000e-01    2.500000e+00
  C6er   TX1  1 3.950000e-01    2.500000e+00
  X2vr   TX1  1 3.950000e-01    2.700000e+00
  X3vr   TX1  1 3.950000e-01    2.700000e+00
  X4vr   TX1  1 3.950000e-01    2.500000e+00
  C1vr   TX1  1 3.950000e-01    2.310000e+00
  C2vr   TX1  1 3.950000e-01    2.310000e+00
  C3vr   TX1  1 3.950000e-01    2.500000e+00
  C4vr   TX1  1 3.950000e-01    2.500000e+00
  C5vr   TX1  1 3.950000e-01    2.500000e+00
  C6vr   TX1  1 3.950000e-01    2.500000e+00
  N1ar   TX1  1 3.950000e-01    2.110000e+00
  N2ar   TX1  1 3.950000e-01    2.110000e+00
  N3ar   TX1  1 3.950000e-01    2.110000e+00
  N4ar   TX1  1 3.950000e-01    1.850000e+00
  N5ar   TX1  1 3.950000e-01    1.850000e+00
  N6ar   TX1  1 3.950000e-01    1.670000e+00
  P1ar   TX1  1 3.950000e-01    1.670000e+00
  P2ar   TX1  1 3.950000e-01    1.670000e+00
  P3ar   TX1  1 3.950000e-01    1.670000e+00
  P4ar   TX1  1 3.950000e-01    1.670000e+00
  P5ar   TX1  1 3.980000e-01    1.450000e+00
  P6ar   TX1  1 3.980000e-01    1.450000e+00
  N1dr   TX1  1 3.950000e-01    2.110000e+00
  N2dr   TX1  1 3.950000e-01    2.110000e+00
  N3dr   TX1  1 3.950000e-01    2.110000e+00
  N4dr   TX1  1 3.950000e-01    1.850000e+00
  N5dr   TX1  1 3.950000e-01    1.850000e+00
  N6dr   TX1  1 3.950000e-01    1.670000e+00
  P1dr   TX1  1 3.950000e-01    1.670000e+00
  P2dr   TX1  1 3.950000e-01    1.670000e+00
  P3dr   TX1  1 3.950000e-01    1.670000e+00
  P4dr   TX1  1 3.950000e-01    1.670000e+00
  P5dr   TX1  1 3.980000e-01    1.450000e+00
  P6dr   TX1  1 3.980000e-01    1.450000e+00
   TX1   X1v  1 3.950000e-01    2.940000e+00
   TX1   X1e  1 3.950000e-01    2.940000e+00
   TX1   X1q  1 3.950000e-01    3.190000e+00
   TX1  X1eq  1 3.950000e-01    3.430000e+00
   TX1  X1vq  1 3.950000e-01    3.430000e+00
   TX1   X1h  1 3.950000e-01    2.700000e+00
   TX1  X1eh  1 3.950000e-01    2.940000e+00
   TX1  X1vh  1 3.950000e-01    2.940000e+00
   TX1   X1r  1 3.950000e-01    2.700000e+00
   TX1  X1er  1 3.950000e-01    2.940000e+00
   TX1  X1vr  1 3.950000e-01    2.940000e+00
   TX1   TX1  1 3.400000e-01    2.020000e+00
  TP6d   TX1  1 3.850000e-01    8.550000e-01
  TP5d   TX1  1 3.850000e-01    8.550000e-01
  TP4d   TX1  1 3.660000e-01    9.350000e-01
  TP3d   TX1  1 3.660000e-01    9.350000e-01
  TP2d   TX1  1 3.660000e-01    9.350000e-01
  TP1d   TX1  1 3.660000e-01    9.350000e-01
  TN6d   TX1  1 3.660000e-01    9.350000e-01
  TN5d   TX1  1 3.520000e-01    1.050000e+00
  TN4d   TX1  1 3.520000e-01    1.050000e+00
  TN3d   TX1  1 3.400000e-01    1.230000e+00
  TN2d   TX1  1 3.400000e-01    1.230000e+00
  TN1d   TX1  1 3.400000e-01    1.230000e+00
  TP6a   TX1  1 3.850000e-01    8.550000e-01
  TP5a   TX1  1 3.850000e-01    8.550000e-01
  TP4a   TX1  1 3.660000e-01    9.350000e-01
  TP3a   TX1  1 3.660000e-01    9.350000e-01
  TP2a   TX1  1 3.660000e-01    9.350000e-01
  TP1a   TX1  1 3.660000e-01    9.350000e-01
  TN6a   TX1  1 3.660000e-01    9.350000e-01
  TN5a   TX1  1 3.520000e-01    1.050000e+00
  TN4a   TX1  1 3.520000e-01    1.050000e+00
  TN3a   TX1  1 3.400000e-01    1.230000e+00
  TN2a   TX1  1 3.400000e-01    1.230000e+00
  TN1a   TX1  1 3.400000e-01    1.230000e+00
  TC6v   TX1  1 3.400000e-01    1.770000e+00
  TC5v   TX1  1 3.400000e-01    1.770000e+00
  TC4v   TX1  1 3.400000e-01    1.770000e+00
  TC3v   TX1  1 3.400000e-01    1.770000e+00
  TC2v   TX1  1 3.400000e-01    1.510000e+00
  TC1v   TX1  1 3.400000e-01    1.510000e+00
  TX4v   TX1  1 3.400000e-01    1.770000e+00
  TX3v   TX1  1 3.400000e-01    2.020000e+00
  TX2v   TX1  1 3.400000e-01    2.020000e+00
   TX1  TX1v  1 3.400000e-01    2.280000e+00
  TC6e   TX1  1 3.400000e-01    1.770000e+00
  TC5e   TX1  1 3.400000e-01    1.770000e+00
  TC4e   TX1  1 3.400000e-01    1.770000e+00
  TC3e   TX1  1 3.400000e-01    1.770000e+00
  TC2e   TX1  1 3.400000e-01    1.510000e+00
  TC1e   TX1  1 3.400000e-01    1.510000e+00
  TX4e   TX1  1 3.400000e-01    1.770000e+00
  TX3e   TX1  1 3.400000e-01    2.020000e+00
  TX2e   TX1  1 3.400000e-01    2.020000e+00
   TX1  TX1e  1 3.400000e-01    2.280000e+00
  TP6q   TX1  1 3.520000e-01    1.050000e+00
  TP5q   TX1  1 3.520000e-01    1.050000e+00
  TP4q   TX1  1 3.400000e-01    1.230000e+00
  TP3q   TX1  1 3.400000e-01    1.230000e+00
  TP2q   TX1  1 3.400000e-01    1.230000e+00
  TP1q   TX1  1 3.400000e-01    1.230000e+00
  TN6q   TX1  1 3.400000e-01    1.230000e+00
  TN5q   TX1  1 3.400000e-01    1.510000e+00
  TN4q   TX1  1 3.400000e-01    1.510000e+00
  TN3q   TX1  1 3.400000e-01    1.770000e+00
  TN2q   TX1  1 3.400000e-01    1.770000e+00
  TN1q   TX1  1 3.400000e-01    1.770000e+00
  TC6q   TX1  1 3.400000e-01    2.020000e+00
  TC5q   TX1  1 3.400000e-01    2.020000e+00
  TC4q   TX1  1 3.400000e-01    2.020000e+00
  TC3q   TX1  1 3.400000e-01    2.020000e+00
  TC2q   TX1  1 3.400000e-01    1.770000e+00
  TC1q   TX1  1 3.400000e-01    1.770000e+00
  TX4q   TX1  1 3.400000e-01    2.020000e+00
  TX3q   TX1  1 3.400000e-01    2.280000e+00
  TX2q   TX1  1 3.400000e-01    2.280000e+00
   TX1  TX1q  1 3.400000e-01    2.500000e+00
   TX1 TX1eq  1 3.400000e-01    2.740000e+00
 TX2eq   TX1  1 3.400000e-01    2.500000e+00
 TX3eq   TX1  1 3.400000e-01    2.500000e+00
 TX4eq   TX1  1 3.400000e-01    2.280000e+00
 TC1eq   TX1  1 3.400000e-01    2.020000e+00
 TC2eq   TX1  1 3.400000e-01    2.020000e+00
 TC3eq   TX1  1 3.400000e-01    2.280000e+00
 TC4eq   TX1  1 3.400000e-01    2.280000e+00
 TC5eq   TX1  1 3.400000e-01    2.280000e+00
 TC6eq   TX1  1 3.400000e-01    2.280000e+00
   TX1 TX1vq  1 3.400000e-01    2.740000e+00
 TX2vq   TX1  1 3.400000e-01    2.500000e+00
 TX3vq   TX1  1 3.400000e-01    2.500000e+00
 TX4vq   TX1  1 3.400000e-01    2.280000e+00
 TC1vq   TX1  1 3.400000e-01    2.020000e+00
 TC2vq   TX1  1 3.400000e-01    2.020000e+00
 TC3vq   TX1  1 3.400000e-01    2.280000e+00
 TC4vq   TX1  1 3.400000e-01    2.280000e+00
 TC5vq   TX1  1 3.400000e-01    2.280000e+00
 TC6vq   TX1  1 3.400000e-01    2.280000e+00
 TN1aq   TX1  1 3.400000e-01    1.770000e+00
 TN2aq   TX1  1 3.400000e-01    1.770000e+00
 TN3aq   TX1  1 3.400000e-01    1.770000e+00
 TN4aq   TX1  1 3.400000e-01    1.510000e+00
 TN5aq   TX1  1 3.400000e-01    1.510000e+00
 TN6aq   TX1  1 3.400000e-01    1.230000e+00
 TP1aq   TX1  1 3.400000e-01    1.230000e+00
 TP2aq   TX1  1 3.400000e-01    1.230000e+00
 TP3aq   TX1  1 3.400000e-01    1.230000e+00
 TP4aq   TX1  1 3.400000e-01    1.230000e+00
 TP5aq   TX1  1 3.520000e-01    1.050000e+00
 TP6aq   TX1  1 3.520000e-01    1.050000e+00
 TN1dq   TX1  1 3.400000e-01    1.770000e+00
 TN2dq   TX1  1 3.400000e-01    1.770000e+00
 TN3dq   TX1  1 3.400000e-01    1.770000e+00
 TN4dq   TX1  1 3.400000e-01    1.510000e+00
 TN5dq   TX1  1 3.400000e-01    1.510000e+00
 TN6dq   TX1  1 3.400000e-01    1.230000e+00
 TP1dq   TX1  1 3.400000e-01    1.230000e+00
 TP2dq   TX1  1 3.400000e-01    1.230000e+00
 TP3dq   TX1  1 3.400000e-01    1.230000e+00
 TP4dq   TX1  1 3.400000e-01    1.230000e+00
 TP5dq   TX1  1 3.520000e-01    1.050000e+00
 TP6dq   TX1  1 3.520000e-01    1.050000e+00
  TP6h   TX1  1 3.850000e-01    8.550000e-01
  TP5h   TX1  1 3.850000e-01    8.550000e-01
  TP4h   TX1  1 3.660000e-01    9.350000e-01
  TP3h   TX1  1 3.660000e-01    9.350000e-01
  TP2h   TX1  1 3.660000e-01    9.350000e-01
  TP1h   TX1  1 3.660000e-01    9.350000e-01
  TN6h   TX1  1 3.660000e-01    9.350000e-01
  TN5h   TX1  1 3.520000e-01    1.050000e+00
  TN4h   TX1  1 3.520000e-01    1.050000e+00
  TN3h   TX1  1 3.400000e-01    1.230000e+00
  TN2h   TX1  1 3.400000e-01    1.230000e+00
  TN1h   TX1  1 3.400000e-01    1.230000e+00
  TC6h   TX1  1 3.400000e-01    1.510000e+00
  TC5h   TX1  1 3.400000e-01    1.510000e+00
  TC4h   TX1  1 3.400000e-01    1.510000e+00
  TC3h   TX1  1 3.400000e-01    1.510000e+00
  TC2h   TX1  1 3.400000e-01    1.230000e+00
  TC1h   TX1  1 3.400000e-01    1.230000e+00
  TX4h   TX1  1 3.400000e-01    1.510000e+00
  TX3h   TX1  1 3.400000e-01    1.770000e+00
  TX2h   TX1  1 3.400000e-01    1.770000e+00
   TX1  TX1h  1 3.400000e-01    2.020000e+00
   TX1 TX1eh  1 3.400000e-01    2.280000e+00
 TX2eh   TX1  1 3.400000e-01    2.020000e+00
 TX3eh   TX1  1 3.400000e-01    2.020000e+00
 TX4eh   TX1  1 3.400000e-01    1.770000e+00
 TC1eh   TX1  1 3.400000e-01    1.510000e+00
 TC2eh   TX1  1 3.400000e-01    1.510000e+00
 TC3eh   TX1  1 3.400000e-01    1.770000e+00
 TC4eh   TX1  1 3.400000e-01    1.770000e+00
 TC5eh   TX1  1 3.400000e-01    1.770000e+00
 TC6eh   TX1  1 3.400000e-01    1.770000e+00
   TX1 TX1vh  1 3.400000e-01    2.280000e+00
 TX2vh   TX1  1 3.400000e-01    2.020000e+00
 TX3vh   TX1  1 3.400000e-01    2.020000e+00
 TX4vh   TX1  1 3.400000e-01    1.770000e+00
 TC1vh   TX1  1 3.400000e-01    1.510000e+00
 TC2vh   TX1  1 3.400000e-01    1.510000e+00
 TC3vh   TX1  1 3.400000e-01    1.770000e+00
 TC4vh   TX1  1 3.400000e-01    1.770000e+00
 TC5vh   TX1  1 3.400000e-01    1.770000e+00
 TC6vh   TX1  1 3.400000e-01    1.770000e+00
 TN1ah   TX1  1 3.400000e-01    1.230000e+00
 TN2ah   TX1  1 3.400000e-01    1.230000e+00
 TN3ah   TX1  1 3.400000e-01    1.230000e+00
 TN4ah   TX1  1 3.520000e-01    1.050000e+00
 TN5ah   TX1  1 3.520000e-01    1.050000e+00
 TN6ah   TX1  1 3.660000e-01    9.350000e-01
 TP1ah   TX1  1 3.660000e-01    9.350000e-01
 TP2ah   TX1  1 3.660000e-01    9.350000e-01
 TP3ah   TX1  1 3.660000e-01    9.350000e-01
 TP4ah   TX1  1 3.660000e-01    9.350000e-01
 TP5ah   TX1  1 3.850000e-01    8.550000e-01
 TP6ah   TX1  1 3.850000e-01    8.550000e-01
 TN1dh   TX1  1 3.400000e-01    1.230000e+00
 TN2dh   TX1  1 3.400000e-01    1.230000e+00
 TN3dh   TX1  1 3.400000e-01    1.230000e+00
 TN4dh   TX1  1 3.520000e-01    1.050000e+00
 TN5dh   TX1  1 3.520000e-01    1.050000e+00
 TN6dh   TX1  1 3.660000e-01    9.350000e-01
 TP1dh   TX1  1 3.660000e-01    9.350000e-01
 TP2dh   TX1  1 3.660000e-01    9.350000e-01
 TP3dh   TX1  1 3.660000e-01    9.350000e-01
 TP4dh   TX1  1 3.660000e-01    9.350000e-01
 TP5dh   TX1  1 3.850000e-01    8.550000e-01
 TP6dh   TX1  1 3.850000e-01    8.550000e-01
  TP6r   TX1  1 3.850000e-01    8.550000e-01
  TP5r   TX1  1 3.850000e-01    8.550000e-01
  TP4r   TX1  1 3.660000e-01    9.350000e-01
  TP3r   TX1  1 3.660000e-01    9.350000e-01
  TP2r   TX1  1 3.660000e-01    9.350000e-01
  TP1r   TX1  1 3.660000e-01    9.350000e-01
  TN6r   TX1  1 3.660000e-01    9.350000e-01
  TN5r   TX1  1 3.520000e-01    1.050000e+00
  TN4r   TX1  1 3.520000e-01    1.050000e+00
  TN3r   TX1  1 3.400000e-01    1.230000e+00
  TN2r   TX1  1 3.400000e-01    1.230000e+00
  TN1r   TX1  1 3.400000e-01    1.230000e+00
  TC6r   TX1  1 3.400000e-01    1.510000e+00
  TC5r   TX1  1 3.400000e-01    1.510000e+00
  TC4r   TX1  1 3.400000e-01    1.510000e+00
  TC3r   TX1  1 3.400000e-01    1.510000e+00
  TC2r   TX1  1 3.400000e-01    1.230000e+00
  TC1r   TX1  1 3.400000e-01    1.230000e+00
  TX4r   TX1  1 3.400000e-01    1.510000e+00
  TX3r   TX1  1 3.400000e-01    1.770000e+00
  TX2r   TX1  1 3.400000e-01    1.770000e+00
   TX1  TX1r  1 3.400000e-01    2.020000e+00
   TX1 TX1er  1 3.400000e-01    2.280000e+00
 TX2er   TX1  1 3.400000e-01    2.020000e+00
 TX3er   TX1  1 3.400000e-01    2.020000e+00
 TX4er   TX1  1 3.400000e-01    1.770000e+00
 TC1er   TX1  1 3.400000e-01    1.510000e+00
 TC2er   TX1  1 3.400000e-01    1.510000e+00
 TC3er   TX1  1 3.400000e-01    1.770000e+00
 TC4er   TX1  1 3.400000e-01    1.770000e+00
 TC5er   TX1  1 3.400000e-01    1.770000e+00
 TC6er   TX1  1 3.400000e-01    1.770000e+00
   TX1 TX1vr  1 3.400000e-01    2.280000e+00
 TX2vr   TX1  1 3.400000e-01    2.020000e+00
 TX3vr   TX1  1 3.400000e-01    2.020000e+00
 TX4vr   TX1  1 3.400000e-01    1.770000e+00
 TC1vr   TX1  1 3.400000e-01    1.510000e+00
 TC2vr   TX1  1 3.400000e-01    1.510000e+00
 TC3vr   TX1  1 3.400000e-01    1.770000e+00
 TC4vr   TX1  1 3.400000e-01    1.770000e+00
 TC5vr   TX1  1 3.400000e-01    1.770000e+00
 TC6vr   TX1  1 3.400000e-01    1.770000e+00
 TN1ar   TX1  1 3.400000e-01    1.230000e+00
 TN2ar   TX1  1 3.400000e-01    1.230000e+00
 TN3ar   TX1  1 3.400000e-01    1.230000e+00
 TN4ar   TX1  1 3.520000e-01    1.050000e+00
 TN5ar   TX1  1 3.520000e-01    1.050000e+00
 TN6ar   TX1  1 3.660000e-01    9.350000e-01
 TP1ar   TX1  1 3.660000e-01    9.350000e-01
 TP2ar   TX1  1 3.660000e-01    9.350000e-01
 TP3ar   TX1  1 3.660000e-01    9.350000e-01
 TP4ar   TX1  1 3.660000e-01    9.350000e-01
 TP5ar   TX1  1 3.850000e-01    8.550000e-01
 TP6ar   TX1  1 3.850000e-01    8.550000e-01
 TN1dr   TX1  1 3.400000e-01    1.230000e+00
 TN2dr   TX1  1 3.400000e-01    1.230000e+00
 TN3dr   TX1  1 3.400000e-01    1.230000e+00
 TN4dr   TX1  1 3.520000e-01    1.050000e+00
 TN5dr   TX1  1 3.520000e-01    1.050000e+00
 TN6dr   TX1  1 3.660000e-01    9.350000e-01
 TP1dr   TX1  1 3.660000e-01    9.350000e-01
 TP2dr   TX1  1 3.660000e-01    9.350000e-01
 TP3dr   TX1  1 3.660000e-01    9.350000e-01
 TP4dr   TX1  1 3.660000e-01    9.350000e-01
 TP5dr   TX1  1 3.850000e-01    8.550000e-01
 TP6dr   TX1  1 3.850000e-01    8.550000e-01
  SP6d   TX1  1 3.940000e-01    1.290000e+00
  SP5d   TX1  1 3.940000e-01    1.290000e+00
  SP4d   TX1  1 3.780000e-01    1.450000e+00
  SP3d   TX1  1 3.780000e-01    1.450000e+00
  SP2d   TX1  1 3.780000e-01    1.450000e+00
  SP1d   TX1  1 3.780000e-01    1.450000e+00
  SN6d   TX1  1 3.780000e-01    1.450000e+00
  SN5d   TX1  1 3.660000e-01    1.600000e+00
  SN4d   TX1  1 3.660000e-01    1.600000e+00
  SN3d   TX1  1 3.650000e-01    1.750000e+00
  SN2d   TX1  1 3.650000e-01    1.750000e+00
  SN1d   TX1  1 3.650000e-01    1.750000e+00
  SP6a   TX1  1 3.940000e-01    1.290000e+00
  SP5a   TX1  1 3.940000e-01    1.290000e+00
  SP4a   TX1  1 3.780000e-01    1.450000e+00
  SP3a   TX1  1 3.780000e-01    1.450000e+00
  SP2a   TX1  1 3.780000e-01    1.450000e+00
  SP1a   TX1  1 3.780000e-01    1.450000e+00
  SN6a   TX1  1 3.780000e-01    1.450000e+00
  SN5a   TX1  1 3.660000e-01    1.600000e+00
  SN4a   TX1  1 3.660000e-01    1.600000e+00
  SN3a   TX1  1 3.650000e-01    1.750000e+00
  SN2a   TX1  1 3.650000e-01    1.750000e+00
  SN1a   TX1  1 3.650000e-01    1.750000e+00
  SC6v   TX1  1 3.650000e-01    2.110000e+00
  SC5v   TX1  1 3.650000e-01    2.110000e+00
  SC4v   TX1  1 3.650000e-01    2.110000e+00
  SC3v   TX1  1 3.650000e-01    2.110000e+00
  SC2v   TX1  1 3.650000e-01    1.910000e+00
  SC1v   TX1  1 3.650000e-01    1.910000e+00
  SX4v   TX1  1 3.650000e-01    2.110000e+00
  SX3v   TX1  1 3.650000e-01    2.340000e+00
  SX2v   TX1  1 3.650000e-01    2.340000e+00
  SC6e   TX1  1 3.650000e-01    2.110000e+00
  SC5e   TX1  1 3.650000e-01    2.110000e+00
  SC4e   TX1  1 3.650000e-01    2.110000e+00
  SC3e   TX1  1 3.650000e-01    2.110000e+00
  SC2e   TX1  1 3.650000e-01    1.910000e+00
  SC1e   TX1  1 3.650000e-01    1.910000e+00
  SX4e   TX1  1 3.650000e-01    2.110000e+00
  SX3e   TX1  1 3.650000e-01    2.340000e+00
  SX2e   TX1  1 3.650000e-01    2.340000e+00
  SP6q   TX1  1 3.660000e-01    1.600000e+00
  SP5q   TX1  1 3.660000e-01    1.600000e+00
  SP4q   TX1  1 3.650000e-01    1.750000e+00
  SP3q   TX1  1 3.650000e-01    1.750000e+00
  SP2q   TX1  1 3.650000e-01    1.750000e+00
  SP1q   TX1  1 3.650000e-01    1.750000e+00
  SN6q   TX1  1 3.650000e-01    1.750000e+00
  SN5q   TX1  1 3.650000e-01    1.910000e+00
  SN4q   TX1  1 3.650000e-01    1.910000e+00
  SN3q   TX1  1 3.650000e-01    2.110000e+00
  SN2q   TX1  1 3.650000e-01    2.110000e+00
  SN1q   TX1  1 3.650000e-01    2.110000e+00
  SC6q   TX1  1 3.650000e-01    2.340000e+00
  SC5q   TX1  1 3.650000e-01    2.340000e+00
  SC4q   TX1  1 3.650000e-01    2.340000e+00
  SC3q   TX1  1 3.650000e-01    2.340000e+00
  SC2q   TX1  1 3.650000e-01    2.110000e+00
  SC1q   TX1  1 3.650000e-01    2.110000e+00
  SX4q   TX1  1 3.650000e-01    2.340000e+00
  SX3q   TX1  1 3.650000e-01    2.570000e+00
  SX2q   TX1  1 3.650000e-01    2.570000e+00
 SX2eq   TX1  1 3.650000e-01    2.830000e+00
 SX3eq   TX1  1 3.650000e-01    2.830000e+00
 SX4eq   TX1  1 3.650000e-01    2.570000e+00
 SC1eq   TX1  1 3.650000e-01    2.340000e+00
 SC2eq   TX1  1 3.650000e-01    2.340000e+00
 SC3eq   TX1  1 3.650000e-01    2.570000e+00
 SC4eq   TX1  1 3.650000e-01    2.570000e+00
 SC5eq   TX1  1 3.650000e-01    2.570000e+00
 SC6eq   TX1  1 3.650000e-01    2.570000e+00
 SX2vq   TX1  1 3.650000e-01    2.830000e+00
 SX3vq   TX1  1 3.650000e-01    2.830000e+00
 SX4vq   TX1  1 3.650000e-01    2.570000e+00
 SC1vq   TX1  1 3.650000e-01    2.340000e+00
 SC2vq   TX1  1 3.650000e-01    2.340000e+00
 SC3vq   TX1  1 3.650000e-01    2.570000e+00
 SC4vq   TX1  1 3.650000e-01    2.570000e+00
 SC5vq   TX1  1 3.650000e-01    2.570000e+00
 SC6vq   TX1  1 3.650000e-01    2.570000e+00
 SN1aq   TX1  1 3.650000e-01    2.110000e+00
 SN2aq   TX1  1 3.650000e-01    2.110000e+00
 SN3aq   TX1  1 3.650000e-01    2.110000e+00
 SN4aq   TX1  1 3.650000e-01    1.910000e+00
 SN5aq   TX1  1 3.650000e-01    1.910000e+00
 SN6aq   TX1  1 3.650000e-01    1.750000e+00
 SP1aq   TX1  1 3.650000e-01    1.750000e+00
 SP2aq   TX1  1 3.650000e-01    1.750000e+00
 SP3aq   TX1  1 3.650000e-01    1.750000e+00
 SP4aq   TX1  1 3.650000e-01    1.750000e+00
 SP5aq   TX1  1 3.660000e-01    1.600000e+00
 SP6aq   TX1  1 3.660000e-01    1.600000e+00
 SN1dq   TX1  1 3.650000e-01    2.110000e+00
 SN2dq   TX1  1 3.650000e-01    2.110000e+00
 SN3dq   TX1  1 3.650000e-01    2.110000e+00
 SN4dq   TX1  1 3.650000e-01    1.910000e+00
 SN5dq   TX1  1 3.650000e-01    1.910000e+00
 SN6dq   TX1  1 3.650000e-01    1.750000e+00
 SP1dq   TX1  1 3.650000e-01    1.750000e+00
 SP2dq   TX1  1 3.650000e-01    1.750000e+00
 SP3dq   TX1  1 3.650000e-01    1.750000e+00
 SP4dq   TX1  1 3.650000e-01    1.750000e+00
 SP5dq   TX1  1 3.660000e-01    1.600000e+00
 SP6dq   TX1  1 3.660000e-01    1.600000e+00
  SP6h   TX1  1 3.940000e-01    1.290000e+00
  SP5h   TX1  1 3.940000e-01    1.290000e+00
  SP4h   TX1  1 3.780000e-01    1.450000e+00
  SP3h   TX1  1 3.780000e-01    1.450000e+00
  SP2h   TX1  1 3.780000e-01    1.450000e+00
  SP1h   TX1  1 3.780000e-01    1.450000e+00
  SN6h   TX1  1 3.780000e-01    1.450000e+00
  SN5h   TX1  1 3.660000e-01    1.600000e+00
  SN4h   TX1  1 3.660000e-01    1.600000e+00
  SN3h   TX1  1 3.650000e-01    1.750000e+00
  SN2h   TX1  1 3.650000e-01    1.750000e+00
  SN1h   TX1  1 3.650000e-01    1.750000e+00
  SC6h   TX1  1 3.650000e-01    1.910000e+00
  SC5h   TX1  1 3.650000e-01    1.910000e+00
  SC4h   TX1  1 3.650000e-01    1.910000e+00
  SC3h   TX1  1 3.650000e-01    1.910000e+00
  SC2h   TX1  1 3.650000e-01    1.750000e+00
  SC1h   TX1  1 3.650000e-01    1.750000e+00
  SX4h   TX1  1 3.650000e-01    1.910000e+00
  SX3h   TX1  1 3.650000e-01    2.110000e+00
  SX2h   TX1  1 3.650000e-01    2.110000e+00
 SX2eh   TX1  1 3.650000e-01    2.340000e+00
 SX3eh   TX1  1 3.650000e-01    2.340000e+00
 SX4eh   TX1  1 3.650000e-01    2.110000e+00
 SC1eh   TX1  1 3.650000e-01    1.910000e+00
 SC2eh   TX1  1 3.650000e-01    1.910000e+00
 SC3eh   TX1  1 3.650000e-01    2.110000e+00
 SC4eh   TX1  1 3.650000e-01    2.110000e+00
 SC5eh   TX1  1 3.650000e-01    2.110000e+00
 SC6eh   TX1  1 3.650000e-01    2.110000e+00
 SX2vh   TX1  1 3.650000e-01    2.340000e+00
 SX3vh   TX1  1 3.650000e-01    2.340000e+00
 SX4vh   TX1  1 3.650000e-01    2.110000e+00
 SC1vh   TX1  1 3.650000e-01    1.910000e+00
 SC2vh   TX1  1 3.650000e-01    1.910000e+00
 SC3vh   TX1  1 3.650000e-01    2.110000e+00
 SC4vh   TX1  1 3.650000e-01    2.110000e+00
 SC5vh   TX1  1 3.650000e-01    2.110000e+00
 SC6vh   TX1  1 3.650000e-01    2.110000e+00
 SN1ah   TX1  1 3.650000e-01    1.750000e+00
 SN2ah   TX1  1 3.650000e-01    1.750000e+00
 SN3ah   TX1  1 3.650000e-01    1.750000e+00
 SN4ah   TX1  1 3.660000e-01    1.600000e+00
 SN5ah   TX1  1 3.660000e-01    1.600000e+00
 SN6ah   TX1  1 3.780000e-01    1.450000e+00
 SP1ah   TX1  1 3.780000e-01    1.450000e+00
 SP2ah   TX1  1 3.780000e-01    1.450000e+00
 SP3ah   TX1  1 3.780000e-01    1.450000e+00
 SP4ah   TX1  1 3.780000e-01    1.450000e+00
 SP5ah   TX1  1 3.940000e-01    1.290000e+00
 SP6ah   TX1  1 3.940000e-01    1.290000e+00
 SN1dh   TX1  1 3.650000e-01    1.750000e+00
 SN2dh   TX1  1 3.650000e-01    1.750000e+00
 SN3dh   TX1  1 3.650000e-01    1.750000e+00
 SN4dh   TX1  1 3.660000e-01    1.600000e+00
 SN5dh   TX1  1 3.660000e-01    1.600000e+00
 SN6dh   TX1  1 3.780000e-01    1.450000e+00
 SP1dh   TX1  1 3.780000e-01    1.450000e+00
 SP2dh   TX1  1 3.780000e-01    1.450000e+00
 SP3dh   TX1  1 3.780000e-01    1.450000e+00
 SP4dh   TX1  1 3.780000e-01    1.450000e+00
 SP5dh   TX1  1 3.940000e-01    1.290000e+00
 SP6dh   TX1  1 3.940000e-01    1.290000e+00
  SP6r   TX1  1 3.940000e-01    1.290000e+00
  SP5r   TX1  1 3.940000e-01    1.290000e+00
  SP4r   TX1  1 3.780000e-01    1.450000e+00
  SP3r   TX1  1 3.780000e-01    1.450000e+00
  SP2r   TX1  1 3.780000e-01    1.450000e+00
  SP1r   TX1  1 3.780000e-01    1.450000e+00
  SN6r   TX1  1 3.780000e-01    1.450000e+00
  SN5r   TX1  1 3.660000e-01    1.600000e+00
  SN4r   TX1  1 3.660000e-01    1.600000e+00
  SN3r   TX1  1 3.650000e-01    1.750000e+00
  SN2r   TX1  1 3.650000e-01    1.750000e+00
  SN1r   TX1  1 3.650000e-01    1.750000e+00
  SC6r   TX1  1 3.650000e-01    1.910000e+00
  SC5r   TX1  1 3.650000e-01    1.910000e+00
  SC4r   TX1  1 3.650000e-01    1.910000e+00
  SC3r   TX1  1 3.650000e-01    1.910000e+00
  SC2r   TX1  1 3.650000e-01    1.750000e+00
  SC1r   TX1  1 3.650000e-01    1.750000e+00
  SX4r   TX1  1 3.650000e-01    1.910000e+00
  SX3r   TX1  1 3.650000e-01    2.110000e+00
  SX2r   TX1  1 3.650000e-01    2.110000e+00
 SX2er   TX1  1 3.650000e-01    2.340000e+00
 SX3er   TX1  1 3.650000e-01    2.340000e+00
 SX4er   TX1  1 3.650000e-01    2.110000e+00
 SC1er   TX1  1 3.650000e-01    1.910000e+00
 SC2er   TX1  1 3.650000e-01    1.910000e+00
 SC3er   TX1  1 3.650000e-01    2.110000e+00
 SC4er   TX1  1 3.650000e-01    2.110000e+00
 SC5er   TX1  1 3.650000e-01    2.110000e+00
 SC6er   TX1  1 3.650000e-01    2.110000e+00
 SX2vr   TX1  1 3.650000e-01    2.340000e+00
 SX3vr   TX1  1 3.650000e-01    2.340000e+00
 SX4vr   TX1  1 3.650000e-01    2.110000e+00
 SC1vr   TX1  1 3.650000e-01    1.910000e+00
 SC2vr   TX1  1 3.650000e-01    1.910000e+00
 SC3vr   TX1  1 3.650000e-01    2.110000e+00
 SC4vr   TX1  1 3.650000e-01    2.110000e+00
 SC5vr   TX1  1 3.650000e-01    2.110000e+00
 SC6vr   TX1  1 3.650000e-01    2.110000e+00
 SN1ar   TX1  1 3.650000e-01    1.750000e+00
 SN2ar   TX1  1 3.650000e-01    1.750000e+00
 SN3ar   TX1  1 3.650000e-01    1.750000e+00
 SN4ar   TX1  1 3.660000e-01    1.600000e+00
 SN5ar   TX1  1 3.660000e-01    1.600000e+00
 SN6ar   TX1  1 3.780000e-01    1.450000e+00
 SP1ar   TX1  1 3.780000e-01    1.450000e+00
 SP2ar   TX1  1 3.780000e-01    1.450000e+00
 SP3ar   TX1  1 3.780000e-01    1.450000e+00
 SP4ar   TX1  1 3.780000e-01    1.450000e+00
 SP5ar   TX1  1 3.940000e-01    1.290000e+00
 SP6ar   TX1  1 3.940000e-01    1.290000e+00
 SN1dr   TX1  1 3.650000e-01    1.750000e+00
 SN2dr   TX1  1 3.650000e-01    1.750000e+00
 SN3dr   TX1  1 3.650000e-01    1.750000e+00
 SN4dr   TX1  1 3.660000e-01    1.600000e+00
 SN5dr   TX1  1 3.660000e-01    1.600000e+00
 SN6dr   TX1  1 3.780000e-01    1.450000e+00
 SP1dr   TX1  1 3.780000e-01    1.450000e+00
 SP2dr   TX1  1 3.780000e-01    1.450000e+00
 SP3dr   TX1  1 3.780000e-01    1.450000e+00
 SP4dr   TX1  1 3.780000e-01    1.450000e+00
 SP5dr   TX1  1 3.940000e-01    1.290000e+00
 SP6dr   TX1  1 3.940000e-01    1.290000e+00
   TX1  SX1v  1 3.650000e-01    2.570000e+00
   TX1  SX1e  1 3.650000e-01    2.570000e+00
   TX1  SX1q  1 3.650000e-01    2.830000e+00
   TX1 SX1eq  1 3.650000e-01    3.100000e+00
   TX1 SX1vq  1 3.650000e-01    3.100000e+00
   TX1  SX1h  1 3.650000e-01    2.340000e+00
   TX1 SX1eh  1 3.650000e-01    2.570000e+00
   TX1 SX1vh  1 3.650000e-01    2.570000e+00
   TX1  SX1r  1 3.650000e-01    2.340000e+00
   TX1 SX1er  1 3.650000e-01    2.570000e+00
   TX1 SX1vr  1 3.650000e-01    2.570000e+00
  SP6d SP6dq  1 4.100000e-01    4.550000e+00
  SP5d SP5dq  1 4.100000e-01    4.040000e+00
  SP6a SP5dq  1 4.100000e-01    4.840000e+00
  SP4d SP4dq  1 4.100000e-01    3.820000e+00
  SP6a SP4dq  1 4.100000e-01    4.550000e+00
  SP5a SP4dq  1 4.100000e-01    4.290000e+00
  SP3d SP3dq  1 4.100000e-01    3.550000e+00
  SP6a SP3dq  1 4.100000e-01    4.290000e+00
  SP5a SP3dq  1 4.100000e-01    4.040000e+00
  SP4a SP3dq  1 4.100000e-01    4.040000e+00
  SP2d SP2dq  1 4.100000e-01    3.550000e+00
  SP6a SP2dq  1 4.100000e-01    4.290000e+00
  SP5a SP2dq  1 4.100000e-01    4.040000e+00
  SP4a SP2dq  1 4.100000e-01    4.040000e+00
  SP3a SP2dq  1 4.100000e-01    4.040000e+00
  SP1d SP1dq  1 4.100000e-01    3.310000e+00
  SP6a SP1dq  1 4.100000e-01    4.040000e+00
  SP5a SP1dq  1 4.100000e-01    3.820000e+00
  SP4a SP1dq  1 4.100000e-01    3.820000e+00
  SP3a SP1dq  1 4.100000e-01    3.820000e+00
  SP2a SP1dq  1 4.100000e-01    3.820000e+00
  SN6d SN6dq  1 4.100000e-01    3.310000e+00
  SP6a SN6dq  1 4.100000e-01    3.820000e+00
  SP5a SN6dq  1 4.100000e-01    3.550000e+00
  SP4a SN6dq  1 4.100000e-01    3.550000e+00
  SP3a SN6dq  1 4.100000e-01    3.550000e+00
  SP2a SN6dq  1 4.100000e-01    3.820000e+00
  SP1a SN6dq  1 4.100000e-01    3.820000e+00
  SN5d SN5dq  1 4.100000e-01    3.070000e+00
  SP6a SN5dq  1 4.100000e-01    3.310000e+00
  SP5a SN5dq  1 4.100000e-01    3.310000e+00
  SP4a SN5dq  1 4.100000e-01    3.310000e+00
  SP3a SN5dq  1 4.100000e-01    3.310000e+00
  SP2a SN5dq  1 4.100000e-01    3.550000e+00
  SP1a SN5dq  1 4.100000e-01    3.550000e+00
  SN6a SN5dq  1 4.100000e-01    3.820000e+00
  SN4d SN4dq  1 4.100000e-01    3.070000e+00
  SP6a SN4dq  1 4.100000e-01    3.070000e+00
  SP5a SN4dq  1 4.100000e-01    3.310000e+00
  SP4a SN4dq  1 4.100000e-01    3.310000e+00
  SP3a SN4dq  1 4.100000e-01    3.310000e+00
  SP2a SN4dq  1 4.100000e-01    3.310000e+00
  SP1a SN4dq  1 4.100000e-01    3.550000e+00
  SN6a SN4dq  1 4.100000e-01    3.820000e+00
  SN5a SN4dq  1 4.100000e-01    3.550000e+00
  SN3d SN3dq  1 4.100000e-01    2.840000e+00
  SP6a SN3dq  1 4.100000e-01    2.600000e+00
  SP5a SN3dq  1 4.100000e-01    2.600000e+00
  SP4a SN3dq  1 4.100000e-01    3.070000e+00
  SP3a SN3dq  1 4.100000e-01    3.070000e+00
  SP2a SN3dq  1 4.100000e-01    3.070000e+00
  SP1a SN3dq  1 4.100000e-01    3.070000e+00
  SN6a SN3dq  1 4.100000e-01    3.310000e+00
  SN5a SN3dq  1 4.100000e-01    3.310000e+00
  SN4a SN3dq  1 4.100000e-01    3.310000e+00
  SN2d SN2dq  1 4.100000e-01    2.840000e+00
  SP6a SN2dq  1 4.100000e-01    2.350000e+00
  SP5a SN2dq  1 4.100000e-01    2.350000e+00
  SP4a SN2dq  1 4.100000e-01    2.600000e+00
  SP3a SN2dq  1 4.100000e-01    3.070000e+00
  SP2a SN2dq  1 4.100000e-01    3.070000e+00
  SP1a SN2dq  1 4.100000e-01    3.070000e+00
  SN6a SN2dq  1 4.100000e-01    3.070000e+00
  SN5a SN2dq  1 4.100000e-01    3.310000e+00
  SN4a SN2dq  1 4.100000e-01    3.310000e+00
  SN3a SN2dq  1 4.100000e-01    3.310000e+00
  SN1d SN1dq  1 4.100000e-01    2.840000e+00
  SP6a SN1dq  1 4.100000e-01    2.200000e+00
  SP5a SN1dq  1 4.100000e-01    2.200000e+00
  SP4a SN1dq  1 4.100000e-01    2.350000e+00
  SP3a SN1dq  1 4.100000e-01    2.600000e+00
  SP2a SN1dq  1 4.100000e-01    3.070000e+00
  SP1a SN1dq  1 4.100000e-01    3.070000e+00
  SN6a SN1dq  1 4.100000e-01    3.070000e+00
  SN5a SN1dq  1 4.100000e-01    3.070000e+00
  SN4a SN1dq  1 4.100000e-01    3.070000e+00
  SN3a SN1dq  1 4.100000e-01    3.070000e+00
  SN2a SN1dq  1 4.100000e-01    3.070000e+00
  SP6a SP6aq  1 4.100000e-01    4.550000e+00
  SP5a SP5aq  1 4.100000e-01    4.040000e+00
  SP4a SP4aq  1 4.100000e-01    3.820000e+00
  SP3a SP3aq  1 4.100000e-01    3.550000e+00
  SP2a SP2aq  1 4.100000e-01    3.550000e+00
  SP1a SP1aq  1 4.100000e-01    3.310000e+00
  SN6a SN6aq  1 4.100000e-01    3.310000e+00
  SN5a SN5aq  1 4.100000e-01    3.070000e+00
  SN4a SN4aq  1 4.100000e-01    3.070000e+00
  SN3a SN3aq  1 4.100000e-01    2.840000e+00
  SN2a SN2aq  1 4.100000e-01    2.840000e+00
  SN1a SN1aq  1 4.100000e-01    2.840000e+00
  SC6v SC6vq  1 4.100000e-01    2.840000e+00
  SC5v SC5vq  1 4.100000e-01    2.600000e+00
  SC6e SC5vq  1 4.100000e-01    3.310000e+00
  SC4v SC4vq  1 4.100000e-01    2.600000e+00
  SC6e SC4vq  1 4.100000e-01    3.310000e+00
  SC5e SC4vq  1 4.100000e-01    3.310000e+00
  SC3v SC3vq  1 4.100000e-01    2.600000e+00
  SC6e SC3vq  1 4.100000e-01    3.070000e+00
  SC5e SC3vq  1 4.100000e-01    3.070000e+00
  SC4e SC3vq  1 4.100000e-01    3.310000e+00
  SC2v SC2vq  1 4.100000e-01    2.600000e+00
  SC6e SC2vq  1 4.100000e-01    2.840000e+00
  SC5e SC2vq  1 4.100000e-01    2.840000e+00
  SC4e SC2vq  1 4.100000e-01    3.070000e+00
  SC3e SC2vq  1 4.100000e-01    3.310000e+00
  SC1v SC1vq  1 4.100000e-01    2.600000e+00
  SC6e SC1vq  1 4.100000e-01    2.600000e+00
  SC5e SC1vq  1 4.100000e-01    2.840000e+00
  SC4e SC1vq  1 4.100000e-01    2.840000e+00
  SC3e SC1vq  1 4.100000e-01    3.310000e+00
  SC2e SC1vq  1 4.100000e-01    3.550000e+00
  SX4v SX4vq  1 4.100000e-01    2.600000e+00
  SC6e SX4vq  1 4.100000e-01    3.310000e+00
  SC5e SX4vq  1 4.100000e-01    3.070000e+00
  SC4e SX4vq  1 4.100000e-01    3.070000e+00
  SC3e SX4vq  1 4.100000e-01    3.070000e+00
  SC2e SX4vq  1 4.100000e-01    2.600000e+00
  SC1e SX4vq  1 4.100000e-01    2.600000e+00
  SX3v SX3vq  1 4.100000e-01    2.600000e+00
  SC6e SX3vq  1 4.100000e-01    3.310000e+00
  SC5e SX3vq  1 4.100000e-01    3.070000e+00
  SC4e SX3vq  1 4.100000e-01    3.070000e+00
  SC3e SX3vq  1 4.100000e-01    3.070000e+00
  SC2e SX3vq  1 4.100000e-01    3.070000e+00
  SC1e SX3vq  1 4.100000e-01    3.070000e+00
  SX4e SX3vq  1 4.100000e-01    3.310000e+00
  SX2v SX2vq  1 4.100000e-01    2.840000e+00
  SC6e SX2vq  1 4.100000e-01    3.310000e+00
  SC5e SX2vq  1 4.100000e-01    3.070000e+00
  SC4e SX2vq  1 4.100000e-01    3.070000e+00
  SC3e SX2vq  1 4.100000e-01    3.070000e+00
  SC2e SX2vq  1 4.100000e-01    3.070000e+00
  SC1e SX2vq  1 4.100000e-01    3.070000e+00
  SX4e SX2vq  1 4.100000e-01    3.310000e+00
  SX3e SX2vq  1 4.100000e-01    3.550000e+00
  SX1v SX1vq  1 4.100000e-01    3.070000e+00
  SC6e SX1vq  1 4.100000e-01    3.310000e+00
  SC5e SX1vq  1 4.100000e-01    3.310000e+00
  SC4e SX1vq  1 4.100000e-01    3.310000e+00
  SC3e SX1vq  1 4.100000e-01    3.310000e+00
  SC2e SX1vq  1 4.100000e-01    3.070000e+00
  SC1e SX1vq  1 4.100000e-01    3.070000e+00
  SX4e SX1vq  1 4.100000e-01    3.310000e+00
  SX3e SX1vq  1 4.100000e-01    3.550000e+00
  SX2e SX1vq  1 4.100000e-01    3.550000e+00
  SC6e SC6eq  1 4.100000e-01    2.840000e+00
  SC5e SC5eq  1 4.100000e-01    2.600000e+00
  SC4e SC4eq  1 4.100000e-01    2.600000e+00
  SC3e SC3eq  1 4.100000e-01    2.600000e+00
  SC2e SC2eq  1 4.100000e-01    2.600000e+00
  SC1e SC1eq  1 4.100000e-01    2.600000e+00
  SX4e SX4eq  1 4.100000e-01    2.600000e+00
  SX3e SX3eq  1 4.100000e-01    2.600000e+00
  SX2e SX2eq  1 4.100000e-01    2.840000e+00
  SX1e SX1eq  1 4.100000e-01    3.070000e+00
  SC6e SX1eq  1 4.100000e-01    2.600000e+00
  SC5e SX1eq  1 4.100000e-01    2.600000e+00
  SC4e SX1eq  1 4.100000e-01    2.600000e+00
  SC3e SX1eq  1 4.100000e-01    2.600000e+00
  SC2e SX1eq  1 4.100000e-01    2.350000e+00
  SC1e SX1eq  1 4.100000e-01    2.350000e+00
  SX4e SX1eq  1 4.100000e-01    2.600000e+00
  SX3e SX1eq  1 4.100000e-01    2.840000e+00
  SX2e SX1eq  1 4.100000e-01    2.840000e+00
  SC6v SX1eq  1 4.100000e-01    3.310000e+00
  SC5v SX1eq  1 4.100000e-01    3.310000e+00
  SC4v SX1eq  1 4.100000e-01    3.310000e+00
  SC3v SX1eq  1 4.100000e-01    3.310000e+00
  SC2v SX1eq  1 4.100000e-01    3.070000e+00
  SC1v SX1eq  1 4.100000e-01    3.070000e+00
  SX4v SX1eq  1 4.100000e-01    3.310000e+00
  SX3v SX1eq  1 4.100000e-01    3.550000e+00
  SX2v SX1eq  1 4.100000e-01    3.550000e+00
  SX1v SX1eq  1 4.100000e-01    3.820000e+00
  SP6d SX1eq  1 4.100000e-01    2.200000e+00
  SP5d SX1eq  1 4.100000e-01    2.200000e+00
  SP4d SX1eq  1 4.100000e-01    2.350000e+00
  SP3d SX1eq  1 4.100000e-01    2.350000e+00
  SP2d SX1eq  1 4.100000e-01    2.350000e+00
  SP1d SX1eq  1 4.100000e-01    2.350000e+00
  SN6d SX1eq  1 4.100000e-01    2.350000e+00
  SN5d SX1eq  1 4.100000e-01    2.600000e+00
  SN4d SX1eq  1 4.100000e-01    2.600000e+00
  SN3d SX1eq  1 4.100000e-01    2.840000e+00
  SN2d SX1eq  1 4.100000e-01    2.840000e+00
  SN1d SX1eq  1 4.100000e-01    2.840000e+00
  SP6a SX1eq  1 4.100000e-01    1.910000e+00
  SP5a SX1eq  1 4.100000e-01    1.910000e+00
  SP4a SX1eq  1 4.100000e-01    2.040000e+00
  SP3a SX1eq  1 4.100000e-01    2.040000e+00
  SP2a SX1eq  1 4.100000e-01    2.040000e+00
  SP1a SX1eq  1 4.100000e-01    2.040000e+00
  SN6a SX1eq  1 4.100000e-01    2.040000e+00
  SN5a SX1eq  1 4.100000e-01    2.200000e+00
  SN4a SX1eq  1 4.100000e-01    2.200000e+00
  SN3a SX1eq  1 4.100000e-01    2.350000e+00
  SN2a SX1eq  1 4.100000e-01    2.350000e+00
  SN1a SX1eq  1 4.100000e-01    2.350000e+00
  SC6e SX2eq  1 4.100000e-01    2.600000e+00
  SC5e SX2eq  1 4.100000e-01    2.350000e+00
  SC4e SX2eq  1 4.100000e-01    2.350000e+00
  SC3e SX2eq  1 4.100000e-01    2.350000e+00
  SC2e SX2eq  1 4.100000e-01    2.350000e+00
  SC1e SX2eq  1 4.100000e-01    2.350000e+00
  SX4e SX2eq  1 4.100000e-01    2.600000e+00
  SX3e SX2eq  1 4.100000e-01    2.840000e+00
  SC6v SX2eq  1 4.100000e-01    3.310000e+00
  SC5v SX2eq  1 4.100000e-01    3.070000e+00
  SC4v SX2eq  1 4.100000e-01    3.070000e+00
  SC3v SX2eq  1 4.100000e-01    3.070000e+00
  SC2v SX2eq  1 4.100000e-01    3.070000e+00
  SC1v SX2eq  1 4.100000e-01    3.070000e+00
  SX4v SX2eq  1 4.100000e-01    3.310000e+00
  SX3v SX2eq  1 4.100000e-01    3.550000e+00
  SX2v SX2eq  1 4.100000e-01    3.550000e+00
  SP6d SX2eq  1 4.100000e-01    2.350000e+00
  SP5d SX2eq  1 4.100000e-01    2.600000e+00
  SP4d SX2eq  1 4.100000e-01    2.600000e+00
  SP3d SX2eq  1 4.100000e-01    2.600000e+00
  SP2d SX2eq  1 4.100000e-01    2.600000e+00
  SP1d SX2eq  1 4.100000e-01    2.600000e+00
  SN6d SX2eq  1 4.100000e-01    2.600000e+00
  SN5d SX2eq  1 4.100000e-01    2.840000e+00
  SN4d SX2eq  1 4.100000e-01    2.840000e+00
  SN3d SX2eq  1 4.100000e-01    2.840000e+00
  SN2d SX2eq  1 4.100000e-01    2.840000e+00
  SN1d SX2eq  1 4.100000e-01    2.840000e+00
  SP6a SX2eq  1 4.100000e-01    2.040000e+00
  SP5a SX2eq  1 4.100000e-01    2.200000e+00
  SP4a SX2eq  1 4.100000e-01    2.200000e+00
  SP3a SX2eq  1 4.100000e-01    2.200000e+00
  SP2a SX2eq  1 4.100000e-01    2.200000e+00
  SP1a SX2eq  1 4.100000e-01    2.200000e+00
  SN6a SX2eq  1 4.100000e-01    2.200000e+00
  SN5a SX2eq  1 4.100000e-01    2.350000e+00
  SN4a SX2eq  1 4.100000e-01    2.350000e+00
  SN3a SX2eq  1 4.100000e-01    2.350000e+00
  SN2a SX2eq  1 4.100000e-01    2.350000e+00
  SN1a SX2eq  1 4.100000e-01    2.350000e+00
  SC6e SX3eq  1 4.100000e-01    2.600000e+00
  SC5e SX3eq  1 4.100000e-01    2.350000e+00
  SC4e SX3eq  1 4.100000e-01    2.350000e+00
  SC3e SX3eq  1 4.100000e-01    2.350000e+00
  SC2e SX3eq  1 4.100000e-01    2.350000e+00
  SC1e SX3eq  1 4.100000e-01    2.350000e+00
  SX4e SX3eq  1 4.100000e-01    2.600000e+00
  SC6v SX3eq  1 4.100000e-01    3.310000e+00
  SC5v SX3eq  1 4.100000e-01    3.070000e+00
  SC4v SX3eq  1 4.100000e-01    3.070000e+00
  SC3v SX3eq  1 4.100000e-01    3.070000e+00
  SC2v SX3eq  1 4.100000e-01    3.070000e+00
  SC1v SX3eq  1 4.100000e-01    3.070000e+00
  SX4v SX3eq  1 4.100000e-01    3.310000e+00
  SX3v SX3eq  1 4.100000e-01    3.310000e+00
  SP6d SX3eq  1 4.100000e-01    2.600000e+00
  SP5d SX3eq  1 4.100000e-01    2.600000e+00
  SP4d SX3eq  1 4.100000e-01    2.600000e+00
  SP3d SX3eq  1 4.100000e-01    2.840000e+00
  SP2d SX3eq  1 4.100000e-01    2.840000e+00
  SP1d SX3eq  1 4.100000e-01    2.840000e+00
  SN6d SX3eq  1 4.100000e-01    2.840000e+00
  SN5d SX3eq  1 4.100000e-01    3.070000e+00
  SN4d SX3eq  1 4.100000e-01    3.310000e+00
  SN3d SX3eq  1 4.100000e-01    3.070000e+00
  SN2d SX3eq  1 4.100000e-01    3.070000e+00
  SN1d SX3eq  1 4.100000e-01    3.070000e+00
  SP6a SX3eq  1 4.100000e-01    2.200000e+00
  SP5a SX3eq  1 4.100000e-01    2.200000e+00
  SP4a SX3eq  1 4.100000e-01    2.200000e+00
  SP3a SX3eq  1 4.100000e-01    2.350000e+00
  SP2a SX3eq  1 4.100000e-01    2.350000e+00
  SP1a SX3eq  1 4.100000e-01    2.350000e+00
  SN6a SX3eq  1 4.100000e-01    2.350000e+00
  SN5a SX3eq  1 4.100000e-01    2.600000e+00
  SN4a SX3eq  1 4.100000e-01    2.840000e+00
  SN3a SX3eq  1 4.100000e-01    2.600000e+00
  SN2a SX3eq  1 4.100000e-01    2.600000e+00
  SN1a SX3eq  1 4.100000e-01    2.600000e+00
  SC6e SX4eq  1 4.100000e-01    2.600000e+00
  SC5e SX4eq  1 4.100000e-01    2.350000e+00
  SC4e SX4eq  1 4.100000e-01    2.350000e+00
  SC3e SX4eq  1 4.100000e-01    2.350000e+00
  SC2e SX4eq  1 4.100000e-01    2.040000e+00
  SC1e SX4eq  1 4.100000e-01    2.040000e+00
  SC6v SX4eq  1 4.100000e-01    3.310000e+00
  SC5v SX4eq  1 4.100000e-01    3.070000e+00
  SC4v SX4eq  1 4.100000e-01    3.070000e+00
  SC3v SX4eq  1 4.100000e-01    3.070000e+00
  SC2v SX4eq  1 4.100000e-01    2.600000e+00
  SC1v SX4eq  1 4.100000e-01    2.600000e+00
  SX4v SX4eq  1 4.100000e-01    3.310000e+00
  SP6d SX4eq  1 4.100000e-01    2.600000e+00
  SP5d SX4eq  1 4.100000e-01    2.840000e+00
  SP4d SX4eq  1 4.100000e-01    2.840000e+00
  SP3d SX4eq  1 4.100000e-01    2.840000e+00
  SP2d SX4eq  1 4.100000e-01    2.840000e+00
  SP1d SX4eq  1 4.100000e-01    2.840000e+00
  SN6d SX4eq  1 4.100000e-01    3.070000e+00
  SN5d SX4eq  1 4.100000e-01    3.310000e+00
  SN4d SX4eq  1 4.100000e-01    3.550000e+00
  SN3d SX4eq  1 4.100000e-01    3.310000e+00
  SN2d SX4eq  1 4.100000e-01    3.310000e+00
  SN1d SX4eq  1 4.100000e-01    3.070000e+00
  SP6a SX4eq  1 4.100000e-01    2.200000e+00
  SP5a SX4eq  1 4.100000e-01    2.350000e+00
  SP4a SX4eq  1 4.100000e-01    2.350000e+00
  SP3a SX4eq  1 4.100000e-01    2.350000e+00
  SP2a SX4eq  1 4.100000e-01    2.350000e+00
  SP1a SX4eq  1 4.100000e-01    2.350000e+00
  SN6a SX4eq  1 4.100000e-01    2.600000e+00
  SN5a SX4eq  1 4.100000e-01    2.840000e+00
  SN4a SX4eq  1 4.100000e-01    3.070000e+00
  SN3a SX4eq  1 4.100000e-01    2.840000e+00
  SN2a SX4eq  1 4.100000e-01    2.840000e+00
  SN1a SX4eq  1 4.100000e-01    2.600000e+00
  SC6e SC1eq  1 4.100000e-01    2.040000e+00
  SC5e SC1eq  1 4.100000e-01    2.200000e+00
  SC4e SC1eq  1 4.100000e-01    2.200000e+00
  SC3e SC1eq  1 4.100000e-01    2.600000e+00
  SC2e SC1eq  1 4.100000e-01    2.840000e+00
  SC6v SC1eq  1 4.100000e-01    2.600000e+00
  SC5v SC1eq  1 4.100000e-01    2.840000e+00
  SC4v SC1eq  1 4.100000e-01    2.840000e+00
  SC3v SC1eq  1 4.100000e-01    3.310000e+00
  SC2v SC1eq  1 4.100000e-01    3.550000e+00
  SC1v SC1eq  1 4.100000e-01    3.310000e+00
  SP6d SC1eq  1 4.140000e-01    1.560000e+00
  SP5d SC1eq  1 4.100000e-01    1.910000e+00
  SP4d SC1eq  1 4.100000e-01    1.910000e+00
  SP3d SC1eq  1 4.100000e-01    1.910000e+00
  SP2d SC1eq  1 4.100000e-01    2.040000e+00
  SP1d SC1eq  1 4.100000e-01    2.040000e+00
  SN6d SC1eq  1 4.100000e-01    2.200000e+00
  SN5d SC1eq  1 4.100000e-01    2.200000e+00
  SN4d SC1eq  1 4.100000e-01    2.200000e+00
  SN3d SC1eq  1 4.100000e-01    2.350000e+00
  SN2d SC1eq  1 4.100000e-01    2.350000e+00
  SN1d SC1eq  1 4.100000e-01    2.350000e+00
  SP6a SC1eq  1 4.210000e-01    1.250000e+00
  SP5a SC1eq  1 4.140000e-01    1.560000e+00
  SP4a SC1eq  1 4.140000e-01    1.560000e+00
  SP3a SC1eq  1 4.140000e-01    1.560000e+00
  SP2a SC1eq  1 4.100000e-01    1.750000e+00
  SP1a SC1eq  1 4.100000e-01    1.750000e+00
  SN6a SC1eq  1 4.100000e-01    1.910000e+00
  SN5a SC1eq  1 4.100000e-01    1.910000e+00
  SN4a SC1eq  1 4.100000e-01    1.910000e+00
  SN3a SC1eq  1 4.100000e-01    2.040000e+00
  SN2a SC1eq  1 4.100000e-01    2.040000e+00
  SN1a SC1eq  1 4.100000e-01    2.040000e+00
  SC6e SC2eq  1 4.100000e-01    2.200000e+00
  SC5e SC2eq  1 4.100000e-01    2.200000e+00
  SC4e SC2eq  1 4.100000e-01    2.350000e+00
  SC3e SC2eq  1 4.100000e-01    2.600000e+00
  SC6v SC2eq  1 4.100000e-01    2.840000e+00
  SC5v SC2eq  1 4.100000e-01    2.840000e+00
  SC4v SC2eq  1 4.100000e-01    3.070000e+00
  SC3v SC2eq  1 4.100000e-01    3.310000e+00
  SC2v SC2eq  1 4.100000e-01    3.310000e+00
  SP6d SC2eq  1 4.100000e-01    1.910000e+00
  SP5d SC2eq  1 4.100000e-01    2.040000e+00
  SP4d SC2eq  1 4.100000e-01    2.040000e+00
  SP3d SC2eq  1 4.100000e-01    2.040000e+00
  SP2d SC2eq  1 4.100000e-01    2.200000e+00
  SP1d SC2eq  1 4.100000e-01    2.200000e+00
  SN6d SC2eq  1 4.100000e-01    2.350000e+00
  SN5d SC2eq  1 4.100000e-01    2.350000e+00
  SN4d SC2eq  1 4.100000e-01    2.350000e+00
  SN3d SC2eq  1 4.100000e-01    2.600000e+00
  SN2d SC2eq  1 4.100000e-01    2.600000e+00
  SN1d SC2eq  1 4.100000e-01    2.600000e+00
  SP6a SC2eq  1 4.140000e-01    1.560000e+00
  SP5a SC2eq  1 4.100000e-01    1.750000e+00
  SP4a SC2eq  1 4.100000e-01    1.750000e+00
  SP3a SC2eq  1 4.100000e-01    1.750000e+00
  SP2a SC2eq  1 4.100000e-01    1.910000e+00
  SP1a SC2eq  1 4.100000e-01    1.910000e+00
  SN6a SC2eq  1 4.100000e-01    2.040000e+00
  SN5a SC2eq  1 4.100000e-01    2.040000e+00
  SN4a SC2eq  1 4.100000e-01    2.040000e+00
  SN3a SC2eq  1 4.100000e-01    2.200000e+00
  SN2a SC2eq  1 4.100000e-01    2.200000e+00
  SN1a SC2eq  1 4.100000e-01    2.200000e+00
  SC6e SC3eq  1 4.100000e-01    2.350000e+00
  SC5e SC3eq  1 4.100000e-01    2.350000e+00
  SC4e SC3eq  1 4.100000e-01    2.600000e+00
  SC6v SC3eq  1 4.100000e-01    3.070000e+00
  SC5v SC3eq  1 4.100000e-01    3.070000e+00
  SC4v SC3eq  1 4.100000e-01    3.310000e+00
  SC3v SC3eq  1 4.100000e-01    3.310000e+00
  SP6d SC3eq  1 4.100000e-01    1.910000e+00
  SP5d SC3eq  1 4.100000e-01    2.040000e+00
  SP4d SC3eq  1 4.100000e-01    2.040000e+00
  SP3d SC3eq  1 4.100000e-01    2.040000e+00
  SP2d SC3eq  1 4.100000e-01    2.200000e+00
  SP1d SC3eq  1 4.100000e-01    2.200000e+00
  SN6d SC3eq  1 4.100000e-01    2.350000e+00
  SN5d SC3eq  1 4.100000e-01    2.600000e+00
  SN4d SC3eq  1 4.100000e-01    2.600000e+00
  SN3d SC3eq  1 4.100000e-01    2.600000e+00
  SN2d SC3eq  1 4.100000e-01    2.840000e+00
  SN1d SC3eq  1 4.100000e-01    2.840000e+00
  SP6a SC3eq  1 4.140000e-01    1.560000e+00
  SP5a SC3eq  1 4.100000e-01    1.750000e+00
  SP4a SC3eq  1 4.100000e-01    1.750000e+00
  SP3a SC3eq  1 4.100000e-01    1.750000e+00
  SP2a SC3eq  1 4.100000e-01    1.910000e+00
  SP1a SC3eq  1 4.100000e-01    1.910000e+00
  SN6a SC3eq  1 4.100000e-01    2.040000e+00
  SN5a SC3eq  1 4.100000e-01    2.200000e+00
  SN4a SC3eq  1 4.100000e-01    2.200000e+00
  SN3a SC3eq  1 4.100000e-01    2.200000e+00
  SN2a SC3eq  1 4.100000e-01    2.350000e+00
  SN1a SC3eq  1 4.100000e-01    2.350000e+00
  SC6e SC4eq  1 4.100000e-01    2.600000e+00
  SC5e SC4eq  1 4.100000e-01    2.600000e+00
  SC6v SC4eq  1 4.100000e-01    3.310000e+00
  SC5v SC4eq  1 4.100000e-01    3.310000e+00
  SC4v SC4eq  1 4.100000e-01    3.310000e+00
  SP6d SC4eq  1 4.100000e-01    2.040000e+00
  SP5d SC4eq  1 4.100000e-01    2.200000e+00
  SP4d SC4eq  1 4.100000e-01    2.200000e+00
  SP3d SC4eq  1 4.100000e-01    2.350000e+00
  SP2d SC4eq  1 4.100000e-01    2.350000e+00
  SP1d SC4eq  1 4.100000e-01    2.350000e+00
  SN6d SC4eq  1 4.100000e-01    2.600000e+00
  SN5d SC4eq  1 4.100000e-01    2.600000e+00
  SN4d SC4eq  1 4.100000e-01    2.840000e+00
  SN3d SC4eq  1 4.100000e-01    2.840000e+00
  SN2d SC4eq  1 4.100000e-01    2.840000e+00
  SN1d SC4eq  1 4.100000e-01    3.070000e+00
  SP6a SC4eq  1 4.100000e-01    1.750000e+00
  SP5a SC4eq  1 4.100000e-01    1.910000e+00
  SP4a SC4eq  1 4.100000e-01    1.910000e+00
  SP3a SC4eq  1 4.100000e-01    2.040000e+00
  SP2a SC4eq  1 4.100000e-01    2.040000e+00
  SP1a SC4eq  1 4.100000e-01    2.040000e+00
  SN6a SC4eq  1 4.100000e-01    2.200000e+00
  SN5a SC4eq  1 4.100000e-01    2.200000e+00
  SN4a SC4eq  1 4.100000e-01    2.350000e+00
  SN3a SC4eq  1 4.100000e-01    2.350000e+00
  SN2a SC4eq  1 4.100000e-01    2.350000e+00
  SN1a SC4eq  1 4.100000e-01    2.600000e+00
  SC6e SC5eq  1 4.100000e-01    2.600000e+00
  SC6v SC5eq  1 4.100000e-01    3.310000e+00
  SC5v SC5eq  1 4.100000e-01    3.310000e+00
  SP6d SC5eq  1 4.100000e-01    2.200000e+00
  SP5d SC5eq  1 4.100000e-01    2.350000e+00
  SP4d SC5eq  1 4.100000e-01    2.350000e+00
  SP3d SC5eq  1 4.100000e-01    2.600000e+00
  SP2d SC5eq  1 4.100000e-01    2.600000e+00
  SP1d SC5eq  1 4.100000e-01    2.600000e+00
  SN6d SC5eq  1 4.100000e-01    2.840000e+00
  SN5d SC5eq  1 4.100000e-01    2.840000e+00
  SN4d SC5eq  1 4.100000e-01    2.840000e+00
  SN3d SC5eq  1 4.100000e-01    2.840000e+00
  SN2d SC5eq  1 4.100000e-01    2.840000e+00
  SN1d SC5eq  1 4.100000e-01    3.070000e+00
  SP6a SC5eq  1 4.100000e-01    1.910000e+00
  SP5a SC5eq  1 4.100000e-01    2.040000e+00
  SP4a SC5eq  1 4.100000e-01    2.040000e+00
  SP3a SC5eq  1 4.100000e-01    2.200000e+00
  SP2a SC5eq  1 4.100000e-01    2.200000e+00
  SP1a SC5eq  1 4.100000e-01    2.200000e+00
  SN6a SC5eq  1 4.100000e-01    2.350000e+00
  SN5a SC5eq  1 4.100000e-01    2.350000e+00
  SN4a SC5eq  1 4.100000e-01    2.350000e+00
  SN3a SC5eq  1 4.100000e-01    2.350000e+00
  SN2a SC5eq  1 4.100000e-01    2.350000e+00
  SN1a SC5eq  1 4.100000e-01    2.600000e+00
  SC6v SC6eq  1 4.100000e-01    3.550000e+00
  SP6d SC6eq  1 4.100000e-01    2.350000e+00
  SP5d SC6eq  1 4.100000e-01    2.350000e+00
  SP4d SC6eq  1 4.100000e-01    2.600000e+00
  SP3d SC6eq  1 4.100000e-01    2.840000e+00
  SP2d SC6eq  1 4.100000e-01    2.840000e+00
  SP1d SC6eq  1 4.100000e-01    2.840000e+00
  SN6d SC6eq  1 4.100000e-01    3.070000e+00
  SN5d SC6eq  1 4.100000e-01    3.070000e+00
  SN4d SC6eq  1 4.100000e-01    3.070000e+00
  SN3d SC6eq  1 4.100000e-01    3.070000e+00
  SN2d SC6eq  1 4.100000e-01    3.070000e+00
  SN1d SC6eq  1 4.100000e-01    3.310000e+00
  SP6a SC6eq  1 4.100000e-01    2.040000e+00
  SP5a SC6eq  1 4.100000e-01    2.040000e+00
  SP4a SC6eq  1 4.100000e-01    2.200000e+00
  SP3a SC6eq  1 4.100000e-01    2.350000e+00
  SP2a SC6eq  1 4.100000e-01    2.350000e+00
  SP1a SC6eq  1 4.100000e-01    2.350000e+00
  SN6a SC6eq  1 4.100000e-01    2.600000e+00
  SN5a SC6eq  1 4.100000e-01    2.600000e+00
  SN4a SC6eq  1 4.100000e-01    2.600000e+00
  SN3a SC6eq  1 4.100000e-01    2.600000e+00
  SN2a SC6eq  1 4.100000e-01    2.600000e+00
  SN1a SC6eq  1 4.100000e-01    2.840000e+00
  SC6v SX1vq  1 4.100000e-01    2.600000e+00
  SC5v SX1vq  1 4.100000e-01    2.600000e+00
  SC4v SX1vq  1 4.100000e-01    2.600000e+00
  SC3v SX1vq  1 4.100000e-01    2.600000e+00
  SC2v SX1vq  1 4.100000e-01    2.350000e+00
  SC1v SX1vq  1 4.100000e-01    2.350000e+00
  SX4v SX1vq  1 4.100000e-01    2.600000e+00
  SX3v SX1vq  1 4.100000e-01    2.840000e+00
  SX2v SX1vq  1 4.100000e-01    2.840000e+00
  SP6a SX1vq  1 4.100000e-01    2.200000e+00
  SP5a SX1vq  1 4.100000e-01    2.200000e+00
  SP4a SX1vq  1 4.100000e-01    2.350000e+00
  SP3a SX1vq  1 4.100000e-01    2.350000e+00
  SP2a SX1vq  1 4.100000e-01    2.350000e+00
  SP1a SX1vq  1 4.100000e-01    2.350000e+00
  SN6a SX1vq  1 4.100000e-01    2.350000e+00
  SN5a SX1vq  1 4.100000e-01    2.600000e+00
  SN4a SX1vq  1 4.100000e-01    2.600000e+00
  SN3a SX1vq  1 4.100000e-01    2.840000e+00
  SN2a SX1vq  1 4.100000e-01    2.840000e+00
  SN1a SX1vq  1 4.100000e-01    2.840000e+00
  SP6d SX1vq  1 4.100000e-01    1.910000e+00
  SP5d SX1vq  1 4.100000e-01    1.910000e+00
  SP4d SX1vq  1 4.100000e-01    2.040000e+00
  SP3d SX1vq  1 4.100000e-01    2.040000e+00
  SP2d SX1vq  1 4.100000e-01    2.040000e+00
  SP1d SX1vq  1 4.100000e-01    2.040000e+00
  SN6d SX1vq  1 4.100000e-01    2.040000e+00
  SN5d SX1vq  1 4.100000e-01    2.200000e+00
  SN4d SX1vq  1 4.100000e-01    2.200000e+00
  SN3d SX1vq  1 4.100000e-01    2.350000e+00
  SN2d SX1vq  1 4.100000e-01    2.350000e+00
  SN1d SX1vq  1 4.100000e-01    2.350000e+00
  SC6v SX2vq  1 4.100000e-01    2.600000e+00
  SC5v SX2vq  1 4.100000e-01    2.350000e+00
  SC4v SX2vq  1 4.100000e-01    2.350000e+00
  SC3v SX2vq  1 4.100000e-01    2.350000e+00
  SC2v SX2vq  1 4.100000e-01    2.350000e+00
  SC1v SX2vq  1 4.100000e-01    2.350000e+00
  SX4v SX2vq  1 4.100000e-01    2.600000e+00
  SX3v SX2vq  1 4.100000e-01    2.840000e+00
  SP6a SX2vq  1 4.100000e-01    2.350000e+00
  SP5a SX2vq  1 4.100000e-01    2.600000e+00
  SP4a SX2vq  1 4.100000e-01    2.600000e+00
  SP3a SX2vq  1 4.100000e-01    2.600000e+00
  SP2a SX2vq  1 4.100000e-01    2.600000e+00
  SP1a SX2vq  1 4.100000e-01    2.600000e+00
  SN6a SX2vq  1 4.100000e-01    2.600000e+00
  SN5a SX2vq  1 4.100000e-01    2.840000e+00
  SN4a SX2vq  1 4.100000e-01    2.840000e+00
  SN3a SX2vq  1 4.100000e-01    2.840000e+00
  SN2a SX2vq  1 4.100000e-01    2.840000e+00
  SN1a SX2vq  1 4.100000e-01    2.840000e+00
  SP6d SX2vq  1 4.100000e-01    2.040000e+00
  SP5d SX2vq  1 4.100000e-01    2.200000e+00
  SP4d SX2vq  1 4.100000e-01    2.200000e+00
  SP3d SX2vq  1 4.100000e-01    2.200000e+00
  SP2d SX2vq  1 4.100000e-01    2.200000e+00
  SP1d SX2vq  1 4.100000e-01    2.200000e+00
  SN6d SX2vq  1 4.100000e-01    2.200000e+00
  SN5d SX2vq  1 4.100000e-01    2.350000e+00
  SN4d SX2vq  1 4.100000e-01    2.350000e+00
  SN3d SX2vq  1 4.100000e-01    2.350000e+00
  SN2d SX2vq  1 4.100000e-01    2.350000e+00
  SN1d SX2vq  1 4.100000e-01    2.350000e+00
  SC6v SX3vq  1 4.100000e-01    2.600000e+00
  SC5v SX3vq  1 4.100000e-01    2.350000e+00
  SC4v SX3vq  1 4.100000e-01    2.350000e+00
  SC3v SX3vq  1 4.100000e-01    2.350000e+00
  SC2v SX3vq  1 4.100000e-01    2.350000e+00
  SC1v SX3vq  1 4.100000e-01    2.350000e+00
  SX4v SX3vq  1 4.100000e-01    2.600000e+00
  SP6a SX3vq  1 4.100000e-01    2.600000e+00
  SP5a SX3vq  1 4.100000e-01    2.600000e+00
  SP4a SX3vq  1 4.100000e-01    2.600000e+00
  SP3a SX3vq  1 4.100000e-01    2.840000e+00
  SP2a SX3vq  1 4.100000e-01    2.840000e+00
  SP1a SX3vq  1 4.100000e-01    2.840000e+00
  SN6a SX3vq  1 4.100000e-01    2.840000e+00
  SN5a SX3vq  1 4.100000e-01    3.070000e+00
  SN4a SX3vq  1 4.100000e-01    3.310000e+00
  SN3a SX3vq  1 4.100000e-01    3.070000e+00
  SN2a SX3vq  1 4.100000e-01    3.070000e+00
  SN1a SX3vq  1 4.100000e-01    3.070000e+00
  SP6d SX3vq  1 4.100000e-01    2.200000e+00
  SP5d SX3vq  1 4.100000e-01    2.200000e+00
  SP4d SX3vq  1 4.100000e-01    2.200000e+00
  SP3d SX3vq  1 4.100000e-01    2.350000e+00
  SP2d SX3vq  1 4.100000e-01    2.350000e+00
  SP1d SX3vq  1 4.100000e-01    2.350000e+00
  SN6d SX3vq  1 4.100000e-01    2.350000e+00
  SN5d SX3vq  1 4.100000e-01    2.600000e+00
  SN4d SX3vq  1 4.100000e-01    2.840000e+00
  SN3d SX3vq  1 4.100000e-01    2.600000e+00
  SN2d SX3vq  1 4.100000e-01    2.600000e+00
  SN1d SX3vq  1 4.100000e-01    2.600000e+00
  SC6v SX4vq  1 4.100000e-01    2.600000e+00
  SC5v SX4vq  1 4.100000e-01    2.350000e+00
  SC4v SX4vq  1 4.100000e-01    2.350000e+00
  SC3v SX4vq  1 4.100000e-01    2.350000e+00
  SC2v SX4vq  1 4.100000e-01    2.040000e+00
  SC1v SX4vq  1 4.100000e-01    2.040000e+00
  SP6a SX4vq  1 4.100000e-01    2.600000e+00
  SP5a SX4vq  1 4.100000e-01    2.840000e+00
  SP4a SX4vq  1 4.100000e-01    2.840000e+00
  SP3a SX4vq  1 4.100000e-01    2.840000e+00
  SP2a SX4vq  1 4.100000e-01    2.840000e+00
  SP1a SX4vq  1 4.100000e-01    2.840000e+00
  SN6a SX4vq  1 4.100000e-01    3.070000e+00
  SN5a SX4vq  1 4.100000e-01    3.310000e+00
  SN4a SX4vq  1 4.100000e-01    3.550000e+00
  SN3a SX4vq  1 4.100000e-01    3.310000e+00
  SN2a SX4vq  1 4.100000e-01    3.310000e+00
  SN1a SX4vq  1 4.100000e-01    3.070000e+00
  SP6d SX4vq  1 4.100000e-01    2.200000e+00
  SP5d SX4vq  1 4.100000e-01    2.350000e+00
  SP4d SX4vq  1 4.100000e-01    2.350000e+00
  SP3d SX4vq  1 4.100000e-01    2.350000e+00
  SP2d SX4vq  1 4.100000e-01    2.350000e+00
  SP1d SX4vq  1 4.100000e-01    2.350000e+00
  SN6d SX4vq  1 4.100000e-01    2.600000e+00
  SN5d SX4vq  1 4.100000e-01    2.840000e+00
  SN4d SX4vq  1 4.100000e-01    3.070000e+00
  SN3d SX4vq  1 4.100000e-01    2.840000e+00
  SN2d SX4vq  1 4.100000e-01    2.840000e+00
  SN1d SX4vq  1 4.100000e-01    2.600000e+00
  SC6v SC1vq  1 4.100000e-01    2.040000e+00
  SC5v SC1vq  1 4.100000e-01    2.200000e+00
  SC4v SC1vq  1 4.100000e-01    2.200000e+00
  SC3v SC1vq  1 4.100000e-01    2.600000e+00
  SC2v SC1vq  1 4.100000e-01    2.840000e+00
  SP6a SC1vq  1 4.140000e-01    1.560000e+00
  SP5a SC1vq  1 4.100000e-01    1.910000e+00
  SP4a SC1vq  1 4.100000e-01    1.910000e+00
  SP3a SC1vq  1 4.100000e-01    1.910000e+00
  SP2a SC1vq  1 4.100000e-01    2.040000e+00
  SP1a SC1vq  1 4.100000e-01    2.040000e+00
  SN6a SC1vq  1 4.100000e-01    2.200000e+00
  SN5a SC1vq  1 4.100000e-01    2.200000e+00
  SN4a SC1vq  1 4.100000e-01    2.200000e+00
  SN3a SC1vq  1 4.100000e-01    2.350000e+00
  SN2a SC1vq  1 4.100000e-01    2.350000e+00
  SN1a SC1vq  1 4.100000e-01    2.350000e+00
  SP6d SC1vq  1 4.210000e-01    1.250000e+00
  SP5d SC1vq  1 4.140000e-01    1.560000e+00
  SP4d SC1vq  1 4.140000e-01    1.560000e+00
  SP3d SC1vq  1 4.140000e-01    1.560000e+00
  SP2d SC1vq  1 4.100000e-01    1.750000e+00
  SP1d SC1vq  1 4.100000e-01    1.750000e+00
  SN6d SC1vq  1 4.100000e-01    1.910000e+00
  SN5d SC1vq  1 4.100000e-01    1.910000e+00
  SN4d SC1vq  1 4.100000e-01    1.910000e+00
  SN3d SC1vq  1 4.100000e-01    2.040000e+00
  SN2d SC1vq  1 4.100000e-01    2.040000e+00
  SN1d SC1vq  1 4.100000e-01    2.040000e+00
  SC6v SC2vq  1 4.100000e-01    2.200000e+00
  SC5v SC2vq  1 4.100000e-01    2.200000e+00
  SC4v SC2vq  1 4.100000e-01    2.350000e+00
  SC3v SC2vq  1 4.100000e-01    2.600000e+00
  SP6a SC2vq  1 4.100000e-01    1.910000e+00
  SP5a SC2vq  1 4.100000e-01    2.040000e+00
  SP4a SC2vq  1 4.100000e-01    2.040000e+00
  SP3a SC2vq  1 4.100000e-01    2.040000e+00
  SP2a SC2vq  1 4.100000e-01    2.200000e+00
  SP1a SC2vq  1 4.100000e-01    2.200000e+00
  SN6a SC2vq  1 4.100000e-01    2.350000e+00
  SN5a SC2vq  1 4.100000e-01    2.350000e+00
  SN4a SC2vq  1 4.100000e-01    2.350000e+00
  SN3a SC2vq  1 4.100000e-01    2.600000e+00
  SN2a SC2vq  1 4.100000e-01    2.600000e+00
  SN1a SC2vq  1 4.100000e-01    2.600000e+00
  SP6d SC2vq  1 4.140000e-01    1.560000e+00
  SP5d SC2vq  1 4.100000e-01    1.750000e+00
  SP4d SC2vq  1 4.100000e-01    1.750000e+00
  SP3d SC2vq  1 4.100000e-01    1.750000e+00
  SP2d SC2vq  1 4.100000e-01    1.910000e+00
  SP1d SC2vq  1 4.100000e-01    1.910000e+00
  SN6d SC2vq  1 4.100000e-01    2.040000e+00
  SN5d SC2vq  1 4.100000e-01    2.040000e+00
  SN4d SC2vq  1 4.100000e-01    2.040000e+00
  SN3d SC2vq  1 4.100000e-01    2.200000e+00
  SN2d SC2vq  1 4.100000e-01    2.200000e+00
  SN1d SC2vq  1 4.100000e-01    2.200000e+00
  SC6v SC3vq  1 4.100000e-01    2.350000e+00
  SC5v SC3vq  1 4.100000e-01    2.350000e+00
  SC4v SC3vq  1 4.100000e-01    2.600000e+00
  SP6a SC3vq  1 4.100000e-01    1.910000e+00
  SP5a SC3vq  1 4.100000e-01    2.040000e+00
  SP4a SC3vq  1 4.100000e-01    2.040000e+00
  SP3a SC3vq  1 4.100000e-01    2.040000e+00
  SP2a SC3vq  1 4.100000e-01    2.200000e+00
  SP1a SC3vq  1 4.100000e-01    2.200000e+00
  SN6a SC3vq  1 4.100000e-01    2.350000e+00
  SN5a SC3vq  1 4.100000e-01    2.600000e+00
  SN4a SC3vq  1 4.100000e-01    2.600000e+00
  SN3a SC3vq  1 4.100000e-01    2.600000e+00
  SN2a SC3vq  1 4.100000e-01    2.840000e+00
  SN1a SC3vq  1 4.100000e-01    2.840000e+00
  SP6d SC3vq  1 4.140000e-01    1.560000e+00
  SP5d SC3vq  1 4.100000e-01    1.750000e+00
  SP4d SC3vq  1 4.100000e-01    1.750000e+00
  SP3d SC3vq  1 4.100000e-01    1.750000e+00
  SP2d SC3vq  1 4.100000e-01    1.910000e+00
  SP1d SC3vq  1 4.100000e-01    1.910000e+00
  SN6d SC3vq  1 4.100000e-01    2.040000e+00
  SN5d SC3vq  1 4.100000e-01    2.200000e+00
  SN4d SC3vq  1 4.100000e-01    2.200000e+00
  SN3d SC3vq  1 4.100000e-01    2.200000e+00
  SN2d SC3vq  1 4.100000e-01    2.350000e+00
  SN1d SC3vq  1 4.100000e-01    2.350000e+00
  SC6v SC4vq  1 4.100000e-01    2.600000e+00
  SC5v SC4vq  1 4.100000e-01    2.600000e+00
  SP6a SC4vq  1 4.100000e-01    2.040000e+00
  SP5a SC4vq  1 4.100000e-01    2.200000e+00
  SP4a SC4vq  1 4.100000e-01    2.200000e+00
  SP3a SC4vq  1 4.100000e-01    2.350000e+00
  SP2a SC4vq  1 4.100000e-01    2.350000e+00
  SP1a SC4vq  1 4.100000e-01    2.350000e+00
  SN6a SC4vq  1 4.100000e-01    2.600000e+00
  SN5a SC4vq  1 4.100000e-01    2.600000e+00
  SN4a SC4vq  1 4.100000e-01    2.840000e+00
  SN3a SC4vq  1 4.100000e-01    2.840000e+00
  SN2a SC4vq  1 4.100000e-01    2.840000e+00
  SN1a SC4vq  1 4.100000e-01    3.070000e+00
  SP6d SC4vq  1 4.100000e-01    1.750000e+00
  SP5d SC4vq  1 4.100000e-01    1.910000e+00
  SP4d SC4vq  1 4.100000e-01    1.910000e+00
  SP3d SC4vq  1 4.100000e-01    2.040000e+00
  SP2d SC4vq  1 4.100000e-01    2.040000e+00
  SP1d SC4vq  1 4.100000e-01    2.040000e+00
  SN6d SC4vq  1 4.100000e-01    2.200000e+00
  SN5d SC4vq  1 4.100000e-01    2.200000e+00
  SN4d SC4vq  1 4.100000e-01    2.350000e+00
  SN3d SC4vq  1 4.100000e-01    2.350000e+00
  SN2d SC4vq  1 4.100000e-01    2.350000e+00
  SN1d SC4vq  1 4.100000e-01    2.600000e+00
  SC6v SC5vq  1 4.100000e-01    2.600000e+00
  SP6a SC5vq  1 4.100000e-01    2.200000e+00
  SP5a SC5vq  1 4.100000e-01    2.350000e+00
  SP4a SC5vq  1 4.100000e-01    2.350000e+00
  SP3a SC5vq  1 4.100000e-01    2.600000e+00
  SP2a SC5vq  1 4.100000e-01    2.600000e+00
  SP1a SC5vq  1 4.100000e-01    2.600000e+00
  SN6a SC5vq  1 4.100000e-01    2.840000e+00
  SN5a SC5vq  1 4.100000e-01    2.840000e+00
  SN4a SC5vq  1 4.100000e-01    2.840000e+00
  SN3a SC5vq  1 4.100000e-01    2.840000e+00
  SN2a SC5vq  1 4.100000e-01    2.840000e+00
  SN1a SC5vq  1 4.100000e-01    3.070000e+00
  SP6d SC5vq  1 4.100000e-01    1.910000e+00
  SP5d SC5vq  1 4.100000e-01    2.040000e+00
  SP4d SC5vq  1 4.100000e-01    2.040000e+00
  SP3d SC5vq  1 4.100000e-01    2.200000e+00
  SP2d SC5vq  1 4.100000e-01    2.200000e+00
  SP1d SC5vq  1 4.100000e-01    2.200000e+00
  SN6d SC5vq  1 4.100000e-01    2.350000e+00
  SN5d SC5vq  1 4.100000e-01    2.350000e+00
  SN4d SC5vq  1 4.100000e-01    2.350000e+00
  SN3d SC5vq  1 4.100000e-01    2.350000e+00
  SN2d SC5vq  1 4.100000e-01    2.350000e+00
  SN1d SC5vq  1 4.100000e-01    2.600000e+00
  SP6a SC6vq  1 4.100000e-01    2.350000e+00
  SP5a SC6vq  1 4.100000e-01    2.350000e+00
  SP4a SC6vq  1 4.100000e-01    2.600000e+00
  SP3a SC6vq  1 4.100000e-01    2.840000e+00
  SP2a SC6vq  1 4.100000e-01    2.840000e+00
  SP1a SC6vq  1 4.100000e-01    2.840000e+00
  SN6a SC6vq  1 4.100000e-01    3.070000e+00
  SN5a SC6vq  1 4.100000e-01    3.070000e+00
  SN4a SC6vq  1 4.100000e-01    3.070000e+00
  SN3a SC6vq  1 4.100000e-01    3.070000e+00
  SN2a SC6vq  1 4.100000e-01    3.070000e+00
  SN1a SC6vq  1 4.100000e-01    3.310000e+00
  SP6d SC6vq  1 4.100000e-01    2.040000e+00
  SP5d SC6vq  1 4.100000e-01    2.040000e+00
  SP4d SC6vq  1 4.100000e-01    2.200000e+00
  SP3d SC6vq  1 4.100000e-01    2.350000e+00
  SP2d SC6vq  1 4.100000e-01    2.350000e+00
  SP1d SC6vq  1 4.100000e-01    2.350000e+00
  SN6d SC6vq  1 4.100000e-01    2.600000e+00
  SN5d SC6vq  1 4.100000e-01    2.600000e+00
  SN4d SC6vq  1 4.100000e-01    2.600000e+00
  SN3d SC6vq  1 4.100000e-01    2.600000e+00
  SN2d SC6vq  1 4.100000e-01    2.600000e+00
  SN1d SC6vq  1 4.100000e-01    2.840000e+00
  SP6a SN1aq  1 4.100000e-01    2.200000e+00
  SP5a SN1aq  1 4.100000e-01    2.200000e+00
  SP4a SN1aq  1 4.100000e-01    2.350000e+00
  SP3a SN1aq  1 4.100000e-01    2.600000e+00
  SP2a SN1aq  1 4.100000e-01    2.600000e+00
  SP1a SN1aq  1 4.100000e-01    2.600000e+00
  SN6a SN1aq  1 4.100000e-01    2.600000e+00
  SN5a SN1aq  1 4.100000e-01    2.600000e+00
  SN4a SN1aq  1 4.100000e-01    2.600000e+00
  SN3a SN1aq  1 4.100000e-01    2.600000e+00
  SN2a SN1aq  1 4.100000e-01    2.600000e+00
  SP6d SN1aq  1 4.100000e-01    2.200000e+00
  SP5d SN1aq  1 4.100000e-01    2.200000e+00
  SP4d SN1aq  1 4.100000e-01    2.350000e+00
  SP3d SN1aq  1 4.100000e-01    2.600000e+00
  SP2d SN1aq  1 4.100000e-01    3.070000e+00
  SP1d SN1aq  1 4.100000e-01    3.070000e+00
  SN6d SN1aq  1 4.100000e-01    3.070000e+00
  SN5d SN1aq  1 4.100000e-01    3.070000e+00
  SN4d SN1aq  1 4.100000e-01    3.070000e+00
  SN3d SN1aq  1 4.100000e-01    3.070000e+00
  SN2d SN1aq  1 4.100000e-01    3.070000e+00
  SN1d SN1aq  1 4.100000e-01    3.310000e+00
  SP6a SN2aq  1 4.100000e-01    2.350000e+00
  SP5a SN2aq  1 4.100000e-01    2.350000e+00
  SP4a SN2aq  1 4.100000e-01    2.600000e+00
  SP3a SN2aq  1 4.100000e-01    2.600000e+00
  SP2a SN2aq  1 4.100000e-01    2.600000e+00
  SP1a SN2aq  1 4.100000e-01    2.600000e+00
  SN6a SN2aq  1 4.100000e-01    2.600000e+00
  SN5a SN2aq  1 4.100000e-01    2.840000e+00
  SN4a SN2aq  1 4.100000e-01    2.840000e+00
  SN3a SN2aq  1 4.100000e-01    2.840000e+00
  SP6d SN2aq  1 4.100000e-01    2.350000e+00
  SP5d SN2aq  1 4.100000e-01    2.350000e+00
  SP4d SN2aq  1 4.100000e-01    2.600000e+00
  SP3d SN2aq  1 4.100000e-01    3.070000e+00
  SP2d SN2aq  1 4.100000e-01    3.070000e+00
  SP1d SN2aq  1 4.100000e-01    3.070000e+00
  SN6d SN2aq  1 4.100000e-01    3.070000e+00
  SN5d SN2aq  1 4.100000e-01    3.310000e+00
  SN4d SN2aq  1 4.100000e-01    3.310000e+00
  SN3d SN2aq  1 4.100000e-01    3.310000e+00
  SN2d SN2aq  1 4.100000e-01    3.310000e+00
  SP6a SN3aq  1 4.100000e-01    2.600000e+00
  SP5a SN3aq  1 4.100000e-01    2.600000e+00
  SP4a SN3aq  1 4.100000e-01    2.600000e+00
  SP3a SN3aq  1 4.100000e-01    2.600000e+00
  SP2a SN3aq  1 4.100000e-01    2.600000e+00
  SP1a SN3aq  1 4.100000e-01    2.600000e+00
  SN6a SN3aq  1 4.100000e-01    2.840000e+00
  SN5a SN3aq  1 4.100000e-01    2.840000e+00
  SN4a SN3aq  1 4.100000e-01    2.840000e+00
  SP6d SN3aq  1 4.100000e-01    2.600000e+00
  SP5d SN3aq  1 4.100000e-01    2.600000e+00
  SP4d SN3aq  1 4.100000e-01    3.070000e+00
  SP3d SN3aq  1 4.100000e-01    3.070000e+00
  SP2d SN3aq  1 4.100000e-01    3.070000e+00
  SP1d SN3aq  1 4.100000e-01    3.070000e+00
  SN6d SN3aq  1 4.100000e-01    3.310000e+00
  SN5d SN3aq  1 4.100000e-01    3.310000e+00
  SN4d SN3aq  1 4.100000e-01    3.310000e+00
  SN3d SN3aq  1 4.100000e-01    3.310000e+00
  SP6a SN4aq  1 4.100000e-01    2.600000e+00
  SP5a SN4aq  1 4.100000e-01    2.840000e+00
  SP4a SN4aq  1 4.100000e-01    2.840000e+00
  SP3a SN4aq  1 4.100000e-01    2.840000e+00
  SP2a SN4aq  1 4.100000e-01    2.840000e+00
  SP1a SN4aq  1 4.100000e-01    3.070000e+00
  SN6a SN4aq  1 4.100000e-01    3.310000e+00
  SN5a SN4aq  1 4.100000e-01    3.070000e+00
  SP6d SN4aq  1 4.100000e-01    3.070000e+00
  SP5d SN4aq  1 4.100000e-01    3.310000e+00
  SP4d SN4aq  1 4.100000e-01    3.310000e+00
  SP3d SN4aq  1 4.100000e-01    3.310000e+00
  SP2d SN4aq  1 4.100000e-01    3.310000e+00
  SP1d SN4aq  1 4.100000e-01    3.550000e+00
  SN6d SN4aq  1 4.100000e-01    3.820000e+00
  SN5d SN4aq  1 4.100000e-01    3.550000e+00
  SN4d SN4aq  1 4.100000e-01    3.550000e+00
  SP6a SN5aq  1 4.100000e-01    2.840000e+00
  SP5a SN5aq  1 4.100000e-01    2.840000e+00
  SP4a SN5aq  1 4.100000e-01    2.840000e+00
  SP3a SN5aq  1 4.100000e-01    2.840000e+00
  SP2a SN5aq  1 4.100000e-01    3.070000e+00
  SP1a SN5aq  1 4.100000e-01    3.070000e+00
  SN6a SN5aq  1 4.100000e-01    3.310000e+00
  SP6d SN5aq  1 4.100000e-01    3.310000e+00
  SP5d SN5aq  1 4.100000e-01    3.310000e+00
  SP4d SN5aq  1 4.100000e-01    3.310000e+00
  SP3d SN5aq  1 4.100000e-01    3.310000e+00
  SP2d SN5aq  1 4.100000e-01    3.550000e+00
  SP1d SN5aq  1 4.100000e-01    3.550000e+00
  SN6d SN5aq  1 4.100000e-01    3.820000e+00
  SN5d SN5aq  1 4.100000e-01    3.550000e+00
  SP6a SN6aq  1 4.100000e-01    3.310000e+00
  SP5a SN6aq  1 4.100000e-01    3.070000e+00
  SP4a SN6aq  1 4.100000e-01    3.070000e+00
  SP3a SN6aq  1 4.100000e-01    3.070000e+00
  SP2a SN6aq  1 4.100000e-01    3.310000e+00
  SP1a SN6aq  1 4.100000e-01    3.310000e+00
  SP6d SN6aq  1 4.100000e-01    3.820000e+00
  SP5d SN6aq  1 4.100000e-01    3.550000e+00
  SP4d SN6aq  1 4.100000e-01    3.550000e+00
  SP3d SN6aq  1 4.100000e-01    3.550000e+00
  SP2d SN6aq  1 4.100000e-01    3.820000e+00
  SP1d SN6aq  1 4.100000e-01    3.820000e+00
  SN6d SN6aq  1 4.100000e-01    3.820000e+00
  SP6a SP1aq  1 4.100000e-01    3.550000e+00
  SP5a SP1aq  1 4.100000e-01    3.310000e+00
  SP4a SP1aq  1 4.100000e-01    3.310000e+00
  SP3a SP1aq  1 4.100000e-01    3.310000e+00
  SP2a SP1aq  1 4.100000e-01    3.310000e+00
  SP6d SP1aq  1 4.100000e-01    4.040000e+00
  SP5d SP1aq  1 4.100000e-01    3.820000e+00
  SP4d SP1aq  1 4.100000e-01    3.820000e+00
  SP3d SP1aq  1 4.100000e-01    3.820000e+00
  SP2d SP1aq  1 4.100000e-01    3.820000e+00
  SP1d SP1aq  1 4.100000e-01    3.820000e+00
  SP6a SP2aq  1 4.100000e-01    3.820000e+00
  SP5a SP2aq  1 4.100000e-01    3.550000e+00
  SP4a SP2aq  1 4.100000e-01    3.550000e+00
  SP3a SP2aq  1 4.100000e-01    3.550000e+00
  SP6d SP2aq  1 4.100000e-01    4.290000e+00
  SP5d SP2aq  1 4.100000e-01    4.040000e+00
  SP4d SP2aq  1 4.100000e-01    4.040000e+00
  SP3d SP2aq  1 4.100000e-01    4.040000e+00
  SP2d SP2aq  1 4.100000e-01    4.040000e+00
  SP6a SP3aq  1 4.100000e-01    3.820000e+00
  SP5a SP3aq  1 4.100000e-01    3.550000e+00
  SP4a SP3aq  1 4.100000e-01    3.550000e+00
  SP6d SP3aq  1 4.100000e-01    4.290000e+00
  SP5d SP3aq  1 4.100000e-01    4.040000e+00
  SP4d SP3aq  1 4.100000e-01    4.040000e+00
  SP3d SP3aq  1 4.100000e-01    4.040000e+00
  SP6a SP4aq  1 4.100000e-01    4.040000e+00
  SP5a SP4aq  1 4.100000e-01    3.820000e+00
  SP6d SP4aq  1 4.100000e-01    4.550000e+00
  SP5d SP4aq  1 4.100000e-01    4.290000e+00
  SP4d SP4aq  1 4.100000e-01    4.290000e+00
  SP6a SP5aq  1 4.100000e-01    4.290000e+00
  SP6d SP5aq  1 4.100000e-01    4.840000e+00
  SP5d SP5aq  1 4.100000e-01    4.550000e+00
  SP6d SP6aq  1 4.100000e-01    5.130000e+00
  SP6d SN1dq  1 4.100000e-01    2.200000e+00
  SP5d SN1dq  1 4.100000e-01    2.200000e+00
  SP4d SN1dq  1 4.100000e-01    2.350000e+00
  SP3d SN1dq  1 4.100000e-01    2.600000e+00
  SP2d SN1dq  1 4.100000e-01    2.600000e+00
  SP1d SN1dq  1 4.100000e-01    2.600000e+00
  SN6d SN1dq  1 4.100000e-01    2.600000e+00
  SN5d SN1dq  1 4.100000e-01    2.600000e+00
  SN4d SN1dq  1 4.100000e-01    2.600000e+00
  SN3d SN1dq  1 4.100000e-01    2.600000e+00
  SN2d SN1dq  1 4.100000e-01    2.600000e+00
  SP6d SN2dq  1 4.100000e-01    2.350000e+00
  SP5d SN2dq  1 4.100000e-01    2.350000e+00
  SP4d SN2dq  1 4.100000e-01    2.600000e+00
  SP3d SN2dq  1 4.100000e-01    2.600000e+00
  SP2d SN2dq  1 4.100000e-01    2.600000e+00
  SP1d SN2dq  1 4.100000e-01    2.600000e+00
  SN6d SN2dq  1 4.100000e-01    2.600000e+00
  SN5d SN2dq  1 4.100000e-01    2.840000e+00
  SN4d SN2dq  1 4.100000e-01    2.840000e+00
  SN3d SN2dq  1 4.100000e-01    2.840000e+00
  SP6d SN3dq  1 4.100000e-01    2.600000e+00
  SP5d SN3dq  1 4.100000e-01    2.600000e+00
  SP4d SN3dq  1 4.100000e-01    2.600000e+00
  SP3d SN3dq  1 4.100000e-01    2.600000e+00
  SP2d SN3dq  1 4.100000e-01    2.600000e+00
  SP1d SN3dq  1 4.100000e-01    2.600000e+00
  SN6d SN3dq  1 4.100000e-01    2.840000e+00
  SN5d SN3dq  1 4.100000e-01    2.840000e+00
  SN4d SN3dq  1 4.100000e-01    2.840000e+00
  SP6d SN4dq  1 4.100000e-01    2.600000e+00
  SP5d SN4dq  1 4.100000e-01    2.840000e+00
  SP4d SN4dq  1 4.100000e-01    2.840000e+00
  SP3d SN4dq  1 4.100000e-01    2.840000e+00
  SP2d SN4dq  1 4.100000e-01    2.840000e+00
  SP1d SN4dq  1 4.100000e-01    3.070000e+00
  SN6d SN4dq  1 4.100000e-01    3.310000e+00
  SN5d SN4dq  1 4.100000e-01    3.070000e+00
  SP6d SN5dq  1 4.100000e-01    2.840000e+00
  SP5d SN5dq  1 4.100000e-01    2.840000e+00
  SP4d SN5dq  1 4.100000e-01    2.840000e+00
  SP3d SN5dq  1 4.100000e-01    2.840000e+00
  SP2d SN5dq  1 4.100000e-01    3.070000e+00
  SP1d SN5dq  1 4.100000e-01    3.070000e+00
  SN6d SN5dq  1 4.100000e-01    3.310000e+00
  SP6d SN6dq  1 4.100000e-01    3.310000e+00
  SP5d SN6dq  1 4.100000e-01    3.070000e+00
  SP4d SN6dq  1 4.100000e-01    3.070000e+00
  SP3d SN6dq  1 4.100000e-01    3.070000e+00
  SP2d SN6dq  1 4.100000e-01    3.310000e+00
  SP1d SN6dq  1 4.100000e-01    3.310000e+00
  SP6d SP1dq  1 4.100000e-01    3.550000e+00
  SP5d SP1dq  1 4.100000e-01    3.310000e+00
  SP4d SP1dq  1 4.100000e-01    3.310000e+00
  SP3d SP1dq  1 4.100000e-01    3.310000e+00
  SP2d SP1dq  1 4.100000e-01    3.310000e+00
  SP6d SP2dq  1 4.100000e-01    3.820000e+00
  SP5d SP2dq  1 4.100000e-01    3.550000e+00
  SP4d SP2dq  1 4.100000e-01    3.550000e+00
  SP3d SP2dq  1 4.100000e-01    3.550000e+00
  SP6d SP3dq  1 4.100000e-01    3.820000e+00
  SP5d SP3dq  1 4.100000e-01    3.550000e+00
  SP4d SP3dq  1 4.100000e-01    3.550000e+00
  SP6d SP4dq  1 4.100000e-01    4.040000e+00
  SP5d SP4dq  1 4.100000e-01    3.820000e+00
  SP6d SP5dq  1 4.100000e-01    4.290000e+00
  SP6q SP6dq  1 4.100000e-01    4.840000e+00
  SP6q SP5dq  1 4.100000e-01    4.550000e+00
  SP6q SP4dq  1 4.100000e-01    4.290000e+00
  SP6q SP3dq  1 4.100000e-01    4.040000e+00
  SP6q SP2dq  1 4.100000e-01    4.040000e+00
  SP6q SP1dq  1 4.100000e-01    3.820000e+00
  SP6q SN6dq  1 4.100000e-01    3.550000e+00
  SP6q SN5dq  1 4.100000e-01    3.070000e+00
  SP6q SN4dq  1 4.100000e-01    2.840000e+00
  SP6q SN3dq  1 4.100000e-01    2.600000e+00
  SP6q SN2dq  1 4.100000e-01    2.350000e+00
  SP6q SN1dq  1 4.100000e-01    2.200000e+00
  SP6q SP6aq  1 4.100000e-01    4.840000e+00
  SP6q SP5aq  1 4.100000e-01    4.550000e+00
  SP6q SP4aq  1 4.100000e-01    4.290000e+00
  SP6q SP3aq  1 4.100000e-01    4.040000e+00
  SP6q SP2aq  1 4.100000e-01    4.040000e+00
  SP6q SP1aq  1 4.100000e-01    3.820000e+00
  SP6q SN6aq  1 4.100000e-01    3.550000e+00
  SP6q SN5aq  1 4.100000e-01    3.070000e+00
  SP6q SN4aq  1 4.100000e-01    2.840000e+00
  SP6q SN3aq  1 4.100000e-01    2.600000e+00
  SP6q SN2aq  1 4.100000e-01    2.350000e+00
  SP6q SN1aq  1 4.100000e-01    2.200000e+00
  SP6q SC6vq  1 4.100000e-01    2.350000e+00
  SP6q SC5vq  1 4.100000e-01    2.200000e+00
  SP6q SC4vq  1 4.100000e-01    2.040000e+00
  SP6q SC3vq  1 4.100000e-01    1.910000e+00
  SP6q SC2vq  1 4.100000e-01    1.910000e+00
  SP6q SC1vq  1 4.140000e-01    1.560000e+00
  SP6q SX4vq  1 4.100000e-01    2.600000e+00
  SP6q SX3vq  1 4.100000e-01    2.600000e+00
  SP6q SX2vq  1 4.100000e-01    2.350000e+00
  SP6q SX1vq  1 4.100000e-01    2.200000e+00
  SP6q SC6eq  1 4.100000e-01    2.350000e+00
  SP6q SC5eq  1 4.100000e-01    2.200000e+00
  SP6q SC4eq  1 4.100000e-01    2.040000e+00
  SP6q SC3eq  1 4.100000e-01    1.910000e+00
  SP6q SC2eq  1 4.100000e-01    1.910000e+00
  SP6q SC1eq  1 4.140000e-01    1.560000e+00
  SP6q SX4eq  1 4.100000e-01    2.600000e+00
  SP6q SX3eq  1 4.100000e-01    2.600000e+00
  SP6q SX2eq  1 4.100000e-01    2.350000e+00
  SP6q SX1eq  1 4.100000e-01    2.200000e+00
  SP5q SP5dq  1 4.100000e-01    4.290000e+00
  SP5q SP4dq  1 4.100000e-01    4.040000e+00
  SP5q SP3dq  1 4.100000e-01    3.820000e+00
  SP5q SP2dq  1 4.100000e-01    3.820000e+00
  SP5q SP1dq  1 4.100000e-01    3.550000e+00
  SP5q SN6dq  1 4.100000e-01    3.310000e+00
  SP5q SN5dq  1 4.100000e-01    3.070000e+00
  SP5q SN4dq  1 4.100000e-01    3.070000e+00
  SP5q SN3dq  1 4.100000e-01    2.600000e+00
  SP5q SN2dq  1 4.100000e-01    2.350000e+00
  SP5q SN1dq  1 4.100000e-01    2.200000e+00
  SP5q SP5aq  1 4.100000e-01    4.290000e+00
  SP5q SP4aq  1 4.100000e-01    4.040000e+00
  SP5q SP3aq  1 4.100000e-01    3.820000e+00
  SP5q SP2aq  1 4.100000e-01    3.820000e+00
  SP5q SP1aq  1 4.100000e-01    3.550000e+00
  SP5q SN6aq  1 4.100000e-01    3.310000e+00
  SP5q SN5aq  1 4.100000e-01    3.070000e+00
  SP5q SN4aq  1 4.100000e-01    3.070000e+00
  SP5q SN3aq  1 4.100000e-01    2.600000e+00
  SP5q SN2aq  1 4.100000e-01    2.350000e+00
  SP5q SN1aq  1 4.100000e-01    2.200000e+00
  SP5q SC6vq  1 4.100000e-01    2.350000e+00
  SP5q SC5vq  1 4.100000e-01    2.350000e+00
  SP5q SC4vq  1 4.100000e-01    2.200000e+00
  SP5q SC3vq  1 4.100000e-01    2.040000e+00
  SP5q SC2vq  1 4.100000e-01    2.040000e+00
  SP5q SC1vq  1 4.100000e-01    1.910000e+00
  SP5q SX4vq  1 4.100000e-01    2.840000e+00
  SP5q SX3vq  1 4.100000e-01    2.600000e+00
  SP5q SX2vq  1 4.100000e-01    2.600000e+00
  SP5q SX1vq  1 4.100000e-01    2.200000e+00
  SP5q SC6eq  1 4.100000e-01    2.350000e+00
  SP5q SC5eq  1 4.100000e-01    2.350000e+00
  SP5q SC4eq  1 4.100000e-01    2.200000e+00
  SP5q SC3eq  1 4.100000e-01    2.040000e+00
  SP5q SC2eq  1 4.100000e-01    2.040000e+00
  SP5q SC1eq  1 4.100000e-01    1.910000e+00
  SP5q SX4eq  1 4.100000e-01    2.840000e+00
  SP5q SX3eq  1 4.100000e-01    2.600000e+00
  SP5q SX2eq  1 4.100000e-01    2.600000e+00
  SP5q SX1eq  1 4.100000e-01    2.200000e+00
  SP4q SP4dq  1 4.100000e-01    4.040000e+00
  SP4q SP3dq  1 4.100000e-01    3.820000e+00
  SP4q SP2dq  1 4.100000e-01    3.820000e+00
  SP4q SP1dq  1 4.100000e-01    3.550000e+00
  SP4q SN6dq  1 4.100000e-01    3.310000e+00
  SP4q SN5dq  1 4.100000e-01    3.070000e+00
  SP4q SN4dq  1 4.100000e-01    3.070000e+00
  SP4q SN3dq  1 4.100000e-01    2.840000e+00
  SP4q SN2dq  1 4.100000e-01    2.600000e+00
  SP4q SN1dq  1 4.100000e-01    2.350000e+00
  SP4q SP4aq  1 4.100000e-01    4.040000e+00
  SP4q SP3aq  1 4.100000e-01    3.820000e+00
  SP4q SP2aq  1 4.100000e-01    3.820000e+00
  SP4q SP1aq  1 4.100000e-01    3.550000e+00
  SP4q SN6aq  1 4.100000e-01    3.310000e+00
  SP4q SN5aq  1 4.100000e-01    3.070000e+00
  SP4q SN4aq  1 4.100000e-01    3.070000e+00
  SP4q SN3aq  1 4.100000e-01    2.840000e+00
  SP4q SN2aq  1 4.100000e-01    2.600000e+00
  SP4q SN1aq  1 4.100000e-01    2.350000e+00
  SP4q SC6vq  1 4.100000e-01    2.600000e+00
  SP4q SC5vq  1 4.100000e-01    2.350000e+00
  SP4q SC4vq  1 4.100000e-01    2.200000e+00
  SP4q SC3vq  1 4.100000e-01    2.040000e+00
  SP4q SC2vq  1 4.100000e-01    2.040000e+00
  SP4q SC1vq  1 4.100000e-01    1.910000e+00
  SP4q SX4vq  1 4.100000e-01    2.840000e+00
  SP4q SX3vq  1 4.100000e-01    2.600000e+00
  SP4q SX2vq  1 4.100000e-01    2.600000e+00
  SP4q SX1vq  1 4.100000e-01    2.350000e+00
  SP4q SC6eq  1 4.100000e-01    2.600000e+00
  SP4q SC5eq  1 4.100000e-01    2.350000e+00
  SP4q SC4eq  1 4.100000e-01    2.200000e+00
  SP4q SC3eq  1 4.100000e-01    2.040000e+00
  SP4q SC2eq  1 4.100000e-01    2.040000e+00
  SP4q SC1eq  1 4.100000e-01    1.910000e+00
  SP4q SX4eq  1 4.100000e-01    2.840000e+00
  SP4q SX3eq  1 4.100000e-01    2.600000e+00
  SP4q SX2eq  1 4.100000e-01    2.600000e+00
  SP4q SX1eq  1 4.100000e-01    2.350000e+00
  SP3q SP3dq  1 4.100000e-01    3.820000e+00
  SP3q SP2dq  1 4.100000e-01    3.820000e+00
  SP3q SP1dq  1 4.100000e-01    3.550000e+00
  SP3q SN6dq  1 4.100000e-01    3.310000e+00
  SP3q SN5dq  1 4.100000e-01    3.070000e+00
  SP3q SN4dq  1 4.100000e-01    3.070000e+00
  SP3q SN3dq  1 4.100000e-01    2.840000e+00
  SP3q SN2dq  1 4.100000e-01    2.840000e+00
  SP3q SN1dq  1 4.100000e-01    2.600000e+00
  SP3q SP3aq  1 4.100000e-01    3.820000e+00
  SP3q SP2aq  1 4.100000e-01    3.820000e+00
  SP3q SP1aq  1 4.100000e-01    3.550000e+00
  SP3q SN6aq  1 4.100000e-01    3.310000e+00
  SP3q SN5aq  1 4.100000e-01    3.070000e+00
  SP3q SN4aq  1 4.100000e-01    3.070000e+00
  SP3q SN3aq  1 4.100000e-01    2.840000e+00
  SP3q SN2aq  1 4.100000e-01    2.840000e+00
  SP3q SN1aq  1 4.100000e-01    2.600000e+00
  SP3q SC6vq  1 4.100000e-01    2.840000e+00
  SP3q SC5vq  1 4.100000e-01    2.600000e+00
  SP3q SC4vq  1 4.100000e-01    2.350000e+00
  SP3q SC3vq  1 4.100000e-01    2.040000e+00
  SP3q SC2vq  1 4.100000e-01    2.040000e+00
  SP3q SC1vq  1 4.100000e-01    1.910000e+00
  SP3q SX4vq  1 4.100000e-01    2.840000e+00
  SP3q SX3vq  1 4.100000e-01    2.840000e+00
  SP3q SX2vq  1 4.100000e-01    2.600000e+00
  SP3q SX1vq  1 4.100000e-01    2.350000e+00
  SP3q SC6eq  1 4.100000e-01    2.840000e+00
  SP3q SC5eq  1 4.100000e-01    2.600000e+00
  SP3q SC4eq  1 4.100000e-01    2.350000e+00
  SP3q SC3eq  1 4.100000e-01    2.040000e+00
  SP3q SC2eq  1 4.100000e-01    2.040000e+00
  SP3q SC1eq  1 4.100000e-01    1.910000e+00
  SP3q SX4eq  1 4.100000e-01    2.840000e+00
  SP3q SX3eq  1 4.100000e-01    2.840000e+00
  SP3q SX2eq  1 4.100000e-01    2.600000e+00
  SP3q SX1eq  1 4.100000e-01    2.350000e+00
  SP2q SP2dq  1 4.100000e-01    3.820000e+00
  SP2q SP1dq  1 4.100000e-01    3.550000e+00
  SP2q SN6dq  1 4.100000e-01    3.550000e+00
  SP2q SN5dq  1 4.100000e-01    3.310000e+00
  SP2q SN4dq  1 4.100000e-01    3.070000e+00
  SP2q SN3dq  1 4.100000e-01    2.840000e+00
  SP2q SN2dq  1 4.100000e-01    2.840000e+00
  SP2q SN1dq  1 4.100000e-01    2.840000e+00
  SP2q SP2aq  1 4.100000e-01    3.820000e+00
  SP2q SP1aq  1 4.100000e-01    3.550000e+00
  SP2q SN6aq  1 4.100000e-01    3.550000e+00
  SP2q SN5aq  1 4.100000e-01    3.310000e+00
  SP2q SN4aq  1 4.100000e-01    3.070000e+00
  SP2q SN3aq  1 4.100000e-01    2.840000e+00
  SP2q SN2aq  1 4.100000e-01    2.840000e+00
  SP2q SN1aq  1 4.100000e-01    2.840000e+00
  SP2q SC6vq  1 4.100000e-01    2.840000e+00
  SP2q SC5vq  1 4.100000e-01    2.600000e+00
  SP2q SC4vq  1 4.100000e-01    2.350000e+00
  SP2q SC3vq  1 4.100000e-01    2.200000e+00
  SP2q SC2vq  1 4.100000e-01    2.200000e+00
  SP2q SC1vq  1 4.100000e-01    2.040000e+00
  SP2q SX4vq  1 4.100000e-01    2.840000e+00
  SP2q SX3vq  1 4.100000e-01    2.840000e+00
  SP2q SX2vq  1 4.100000e-01    2.600000e+00
  SP2q SX1vq  1 4.100000e-01    2.350000e+00
  SP2q SC6eq  1 4.100000e-01    2.840000e+00
  SP2q SC5eq  1 4.100000e-01    2.600000e+00
  SP2q SC4eq  1 4.100000e-01    2.350000e+00
  SP2q SC3eq  1 4.100000e-01    2.200000e+00
  SP2q SC2eq  1 4.100000e-01    2.200000e+00
  SP2q SC1eq  1 4.100000e-01    2.040000e+00
  SP2q SX4eq  1 4.100000e-01    2.840000e+00
  SP2q SX3eq  1 4.100000e-01    2.840000e+00
  SP2q SX2eq  1 4.100000e-01    2.600000e+00
  SP2q SX1eq  1 4.100000e-01    2.350000e+00
  SP1q SP1dq  1 4.100000e-01    3.550000e+00
  SP1q SN6dq  1 4.100000e-01    3.550000e+00
  SP1q SN5dq  1 4.100000e-01    3.310000e+00
  SP1q SN4dq  1 4.100000e-01    3.310000e+00
  SP1q SN3dq  1 4.100000e-01    2.840000e+00
  SP1q SN2dq  1 4.100000e-01    2.840000e+00
  SP1q SN1dq  1 4.100000e-01    2.840000e+00
  SP1q SP1aq  1 4.100000e-01    3.550000e+00
  SP1q SN6aq  1 4.100000e-01    3.550000e+00
  SP1q SN5aq  1 4.100000e-01    3.310000e+00
  SP1q SN4aq  1 4.100000e-01    3.310000e+00
  SP1q SN3aq  1 4.100000e-01    2.840000e+00
  SP1q SN2aq  1 4.100000e-01    2.840000e+00
  SP1q SN1aq  1 4.100000e-01    2.840000e+00
  SP1q SC6vq  1 4.100000e-01    2.840000e+00
  SP1q SC5vq  1 4.100000e-01    2.600000e+00
  SP1q SC4vq  1 4.100000e-01    2.350000e+00
  SP1q SC3vq  1 4.100000e-01    2.200000e+00
  SP1q SC2vq  1 4.100000e-01    2.200000e+00
  SP1q SC1vq  1 4.100000e-01    2.040000e+00
  SP1q SX4vq  1 4.100000e-01    2.840000e+00
  SP1q SX3vq  1 4.100000e-01    2.840000e+00
  SP1q SX2vq  1 4.100000e-01    2.600000e+00
  SP1q SX1vq  1 4.100000e-01    2.350000e+00
  SP1q SC6eq  1 4.100000e-01    2.840000e+00
  SP1q SC5eq  1 4.100000e-01    2.600000e+00
  SP1q SC4eq  1 4.100000e-01    2.350000e+00
  SP1q SC3eq  1 4.100000e-01    2.200000e+00
  SP1q SC2eq  1 4.100000e-01    2.200000e+00
  SP1q SC1eq  1 4.100000e-01    2.040000e+00
  SP1q SX4eq  1 4.100000e-01    2.840000e+00
  SP1q SX3eq  1 4.100000e-01    2.840000e+00
  SP1q SX2eq  1 4.100000e-01    2.600000e+00
  SP1q SX1eq  1 4.100000e-01    2.350000e+00
  SN6q SN6dq  1 4.100000e-01    3.550000e+00
  SN6q SN5dq  1 4.100000e-01    3.550000e+00
  SN6q SN4dq  1 4.100000e-01    3.550000e+00
  SN6q SN3dq  1 4.100000e-01    3.070000e+00
  SN6q SN2dq  1 4.100000e-01    2.840000e+00
  SN6q SN1dq  1 4.100000e-01    2.840000e+00
  SN6q SN6aq  1 4.100000e-01    3.550000e+00
  SN6q SN5aq  1 4.100000e-01    3.550000e+00
  SN6q SN4aq  1 4.100000e-01    3.550000e+00
  SN6q SN3aq  1 4.100000e-01    3.070000e+00
  SN6q SN2aq  1 4.100000e-01    2.840000e+00
  SN6q SN1aq  1 4.100000e-01    2.840000e+00
  SN6q SC6vq  1 4.100000e-01    3.070000e+00
  SN6q SC5vq  1 4.100000e-01    2.840000e+00
  SN6q SC4vq  1 4.100000e-01    2.600000e+00
  SN6q SC3vq  1 4.100000e-01    2.350000e+00
  SN6q SC2vq  1 4.100000e-01    2.350000e+00
  SN6q SC1vq  1 4.100000e-01    2.200000e+00
  SN6q SX4vq  1 4.100000e-01    3.070000e+00
  SN6q SX3vq  1 4.100000e-01    2.840000e+00
  SN6q SX2vq  1 4.100000e-01    2.600000e+00
  SN6q SX1vq  1 4.100000e-01    2.350000e+00
  SN6q SC6eq  1 4.100000e-01    3.070000e+00
  SN6q SC5eq  1 4.100000e-01    2.840000e+00
  SN6q SC4eq  1 4.100000e-01    2.600000e+00
  SN6q SC3eq  1 4.100000e-01    2.350000e+00
  SN6q SC2eq  1 4.100000e-01    2.350000e+00
  SN6q SC1eq  1 4.100000e-01    2.200000e+00
  SN6q SX4eq  1 4.100000e-01    3.070000e+00
  SN6q SX3eq  1 4.100000e-01    2.840000e+00
  SN6q SX2eq  1 4.100000e-01    2.600000e+00
  SN6q SX1eq  1 4.100000e-01    2.350000e+00
  SN5q SN5dq  1 4.100000e-01    3.310000e+00
  SN5q SN4dq  1 4.100000e-01    3.310000e+00
  SN5q SN3dq  1 4.100000e-01    3.070000e+00
  SN5q SN2dq  1 4.100000e-01    3.070000e+00
  SN5q SN1dq  1 4.100000e-01    2.840000e+00
  SN5q SN5aq  1 4.100000e-01    3.310000e+00
  SN5q SN4aq  1 4.100000e-01    3.310000e+00
  SN5q SN3aq  1 4.100000e-01    3.070000e+00
  SN5q SN2aq  1 4.100000e-01    3.070000e+00
  SN5q SN1aq  1 4.100000e-01    2.840000e+00
  SN5q SC6vq  1 4.100000e-01    3.070000e+00
  SN5q SC5vq  1 4.100000e-01    2.840000e+00
  SN5q SC4vq  1 4.100000e-01    2.600000e+00
  SN5q SC3vq  1 4.100000e-01    2.600000e+00
  SN5q SC2vq  1 4.100000e-01    2.350000e+00
  SN5q SC1vq  1 4.100000e-01    2.200000e+00
  SN5q SX4vq  1 4.100000e-01    3.310000e+00
  SN5q SX3vq  1 4.100000e-01    3.070000e+00
  SN5q SX2vq  1 4.100000e-01    2.840000e+00
  SN5q SX1vq  1 4.100000e-01    2.600000e+00
  SN5q SC6eq  1 4.100000e-01    3.070000e+00
  SN5q SC5eq  1 4.100000e-01    2.840000e+00
  SN5q SC4eq  1 4.100000e-01    2.600000e+00
  SN5q SC3eq  1 4.100000e-01    2.600000e+00
  SN5q SC2eq  1 4.100000e-01    2.350000e+00
  SN5q SC1eq  1 4.100000e-01    2.200000e+00
  SN5q SX4eq  1 4.100000e-01    3.310000e+00
  SN5q SX3eq  1 4.100000e-01    3.070000e+00
  SN5q SX2eq  1 4.100000e-01    2.840000e+00
  SN5q SX1eq  1 4.100000e-01    2.600000e+00
  SN4q SN4dq  1 4.100000e-01    3.310000e+00
  SN4q SN3dq  1 4.100000e-01    3.070000e+00
  SN4q SN2dq  1 4.100000e-01    3.070000e+00
  SN4q SN1dq  1 4.100000e-01    2.840000e+00
  SN4q SN4aq  1 4.100000e-01    3.310000e+00
  SN4q SN3aq  1 4.100000e-01    3.070000e+00
  SN4q SN2aq  1 4.100000e-01    3.070000e+00
  SN4q SN1aq  1 4.100000e-01    2.840000e+00
  SN4q SC6vq  1 4.100000e-01    3.070000e+00
  SN4q SC5vq  1 4.100000e-01    2.840000e+00
  SN4q SC4vq  1 4.100000e-01    2.840000e+00
  SN4q SC3vq  1 4.100000e-01    2.600000e+00
  SN4q SC2vq  1 4.100000e-01    2.350000e+00
  SN4q SC1vq  1 4.100000e-01    2.200000e+00
  SN4q SX4vq  1 4.100000e-01    3.550000e+00
  SN4q SX3vq  1 4.100000e-01    3.310000e+00
  SN4q SX2vq  1 4.100000e-01    2.840000e+00
  SN4q SX1vq  1 4.100000e-01    2.600000e+00
  SN4q SC6eq  1 4.100000e-01    3.070000e+00
  SN4q SC5eq  1 4.100000e-01    2.840000e+00
  SN4q SC4eq  1 4.100000e-01    2.840000e+00
  SN4q SC3eq  1 4.100000e-01    2.600000e+00
  SN4q SC2eq  1 4.100000e-01    2.350000e+00
  SN4q SC1eq  1 4.100000e-01    2.200000e+00
  SN4q SX4eq  1 4.100000e-01    3.550000e+00
  SN4q SX3eq  1 4.100000e-01    3.310000e+00
  SN4q SX2eq  1 4.100000e-01    2.840000e+00
  SN4q SX1eq  1 4.100000e-01    2.600000e+00
  SN3q SN3dq  1 4.100000e-01    3.070000e+00
  SN3q SN2dq  1 4.100000e-01    3.070000e+00
  SN3q SN1dq  1 4.100000e-01    2.840000e+00
  SN3q SN3aq  1 4.100000e-01    3.070000e+00
  SN3q SN2aq  1 4.100000e-01    3.070000e+00
  SN3q SN1aq  1 4.100000e-01    2.840000e+00
  SN3q SC6vq  1 4.100000e-01    3.070000e+00
  SN3q SC5vq  1 4.100000e-01    2.840000e+00
  SN3q SC4vq  1 4.100000e-01    2.840000e+00
  SN3q SC3vq  1 4.100000e-01    2.600000e+00
  SN3q SC2vq  1 4.100000e-01    2.600000e+00
  SN3q SC1vq  1 4.100000e-01    2.350000e+00
  SN3q SX4vq  1 4.100000e-01    3.310000e+00
  SN3q SX3vq  1 4.100000e-01    3.070000e+00
  SN3q SX2vq  1 4.100000e-01    2.840000e+00
  SN3q SX1vq  1 4.100000e-01    2.840000e+00
  SN3q SC6eq  1 4.100000e-01    3.070000e+00
  SN3q SC5eq  1 4.100000e-01    2.840000e+00
  SN3q SC4eq  1 4.100000e-01    2.840000e+00
  SN3q SC3eq  1 4.100000e-01    2.600000e+00
  SN3q SC2eq  1 4.100000e-01    2.600000e+00
  SN3q SC1eq  1 4.100000e-01    2.350000e+00
  SN3q SX4eq  1 4.100000e-01    3.310000e+00
  SN3q SX3eq  1 4.100000e-01    3.070000e+00
  SN3q SX2eq  1 4.100000e-01    2.840000e+00
  SN3q SX1eq  1 4.100000e-01    2.840000e+00
  SN2q SN2dq  1 4.100000e-01    3.070000e+00
  SN2q SN1dq  1 4.100000e-01    2.840000e+00
  SN2q SN2aq  1 4.100000e-01    3.070000e+00
  SN2q SN1aq  1 4.100000e-01    2.840000e+00
  SN2q SC6vq  1 4.100000e-01    3.070000e+00
  SN2q SC5vq  1 4.100000e-01    2.840000e+00
  SN2q SC4vq  1 4.100000e-01    2.840000e+00
  SN2q SC3vq  1 4.100000e-01    2.840000e+00
  SN2q SC2vq  1 4.100000e-01    2.600000e+00
  SN2q SC1vq  1 4.100000e-01    2.350000e+00
  SN2q SX4vq  1 4.100000e-01    3.310000e+00
  SN2q SX3vq  1 4.100000e-01    3.070000e+00
  SN2q SX2vq  1 4.100000e-01    2.840000e+00
  SN2q SX1vq  1 4.100000e-01    2.840000e+00
  SN2q SC6eq  1 4.100000e-01    3.070000e+00
  SN2q SC5eq  1 4.100000e-01    2.840000e+00
  SN2q SC4eq  1 4.100000e-01    2.840000e+00
  SN2q SC3eq  1 4.100000e-01    2.840000e+00
  SN2q SC2eq  1 4.100000e-01    2.600000e+00
  SN2q SC1eq  1 4.100000e-01    2.350000e+00
  SN2q SX4eq  1 4.100000e-01    3.310000e+00
  SN2q SX3eq  1 4.100000e-01    3.070000e+00
  SN2q SX2eq  1 4.100000e-01    2.840000e+00
  SN2q SX1eq  1 4.100000e-01    2.840000e+00
  SN1q SN1dq  1 4.100000e-01    3.070000e+00
  SN1q SN1aq  1 4.100000e-01    3.070000e+00
  SN1q SC6vq  1 4.100000e-01    3.310000e+00
  SN1q SC5vq  1 4.100000e-01    3.070000e+00
  SN1q SC4vq  1 4.100000e-01    3.070000e+00
  SN1q SC3vq  1 4.100000e-01    2.840000e+00
  SN1q SC2vq  1 4.100000e-01    2.600000e+00
  SN1q SC1vq  1 4.100000e-01    2.350000e+00
  SN1q SX4vq  1 4.100000e-01    3.070000e+00
  SN1q SX3vq  1 4.100000e-01    3.070000e+00
  SN1q SX2vq  1 4.100000e-01    2.840000e+00
  SN1q SX1vq  1 4.100000e-01    2.840000e+00
  SN1q SC6eq  1 4.100000e-01    3.310000e+00
  SN1q SC5eq  1 4.100000e-01    3.070000e+00
  SN1q SC4eq  1 4.100000e-01    3.070000e+00
  SN1q SC3eq  1 4.100000e-01    2.840000e+00
  SN1q SC2eq  1 4.100000e-01    2.600000e+00
  SN1q SC1eq  1 4.100000e-01    2.350000e+00
  SN1q SX4eq  1 4.100000e-01    3.070000e+00
  SN1q SX3eq  1 4.100000e-01    3.070000e+00
  SN1q SX2eq  1 4.100000e-01    2.840000e+00
  SN1q SX1eq  1 4.100000e-01    2.840000e+00
  SC6q SC6vq  1 4.100000e-01    3.310000e+00
  SC6q SC5vq  1 4.100000e-01    3.070000e+00
  SC6q SC4vq  1 4.100000e-01    3.070000e+00
  SC6q SC3vq  1 4.100000e-01    2.840000e+00
  SC6q SC2vq  1 4.100000e-01    2.600000e+00
  SC6q SC1vq  1 4.100000e-01    2.350000e+00
  SC6q SX4vq  1 4.100000e-01    3.070000e+00
  SC6q SX3vq  1 4.100000e-01    3.070000e+00
  SC6q SX2vq  1 4.100000e-01    3.070000e+00
  SC6q SX1vq  1 4.100000e-01    3.070000e+00
  SC6q SC6eq  1 4.100000e-01    3.310000e+00
  SC6q SC5eq  1 4.100000e-01    3.070000e+00
  SC6q SC4eq  1 4.100000e-01    3.070000e+00
  SC6q SC3eq  1 4.100000e-01    2.840000e+00
  SC6q SC2eq  1 4.100000e-01    2.600000e+00
  SC6q SC1eq  1 4.100000e-01    2.350000e+00
  SC6q SX4eq  1 4.100000e-01    3.070000e+00
  SC6q SX3eq  1 4.100000e-01    3.070000e+00
  SC6q SX2eq  1 4.100000e-01    3.070000e+00
  SC6q SX1eq  1 4.100000e-01    3.070000e+00
  SC5q SC5vq  1 4.100000e-01    3.070000e+00
  SC5q SC4vq  1 4.100000e-01    3.070000e+00
  SC5q SC3vq  1 4.100000e-01    2.840000e+00
  SC5q SC2vq  1 4.100000e-01    2.600000e+00
  SC5q SC1vq  1 4.100000e-01    2.600000e+00
  SC5q SX4vq  1 4.100000e-01    2.840000e+00
  SC5q SX3vq  1 4.100000e-01    2.840000e+00
  SC5q SX2vq  1 4.100000e-01    2.840000e+00
  SC5q SX1vq  1 4.100000e-01    3.070000e+00
  SC5q SC5eq  1 4.100000e-01    3.070000e+00
  SC5q SC4eq  1 4.100000e-01    3.070000e+00
  SC5q SC3eq  1 4.100000e-01    2.840000e+00
  SC5q SC2eq  1 4.100000e-01    2.600000e+00
  SC5q SC1eq  1 4.100000e-01    2.600000e+00
  SC5q SX4eq  1 4.100000e-01    2.840000e+00
  SC5q SX3eq  1 4.100000e-01    2.840000e+00
  SC5q SX2eq  1 4.100000e-01    2.840000e+00
  SC5q SX1eq  1 4.100000e-01    3.070000e+00
  SC4q SC4vq  1 4.100000e-01    3.070000e+00
  SC4q SC3vq  1 4.100000e-01    3.070000e+00
  SC4q SC2vq  1 4.100000e-01    2.840000e+00
  SC4q SC1vq  1 4.100000e-01    2.600000e+00
  SC4q SX4vq  1 4.100000e-01    2.840000e+00
  SC4q SX3vq  1 4.100000e-01    2.840000e+00
  SC4q SX2vq  1 4.100000e-01    2.840000e+00
  SC4q SX1vq  1 4.100000e-01    3.070000e+00
  SC4q SC4eq  1 4.100000e-01    3.070000e+00
  SC4q SC3eq  1 4.100000e-01    3.070000e+00
  SC4q SC2eq  1 4.100000e-01    2.840000e+00
  SC4q SC1eq  1 4.100000e-01    2.600000e+00
  SC4q SX4eq  1 4.100000e-01    2.840000e+00
  SC4q SX3eq  1 4.100000e-01    2.840000e+00
  SC4q SX2eq  1 4.100000e-01    2.840000e+00
  SC4q SX1eq  1 4.100000e-01    3.070000e+00
  SC3q SC3vq  1 4.100000e-01    3.070000e+00
  SC3q SC2vq  1 4.100000e-01    3.070000e+00
  SC3q SC1vq  1 4.100000e-01    3.070000e+00
  SC3q SX4vq  1 4.100000e-01    2.840000e+00
  SC3q SX3vq  1 4.100000e-01    2.840000e+00
  SC3q SX2vq  1 4.100000e-01    2.840000e+00
  SC3q SX1vq  1 4.100000e-01    3.070000e+00
  SC3q SC3eq  1 4.100000e-01    3.070000e+00
  SC3q SC2eq  1 4.100000e-01    3.070000e+00
  SC3q SC1eq  1 4.100000e-01    3.070000e+00
  SC3q SX4eq  1 4.100000e-01    2.840000e+00
  SC3q SX3eq  1 4.100000e-01    2.840000e+00
  SC3q SX2eq  1 4.100000e-01    2.840000e+00
  SC3q SX1eq  1 4.100000e-01    3.070000e+00
  SC2q SC2vq  1 4.100000e-01    3.070000e+00
  SC2q SC1vq  1 4.100000e-01    3.310000e+00
  SC2q SX4vq  1 4.100000e-01    2.350000e+00
  SC2q SX3vq  1 4.100000e-01    2.840000e+00
  SC2q SX2vq  1 4.100000e-01    2.840000e+00
  SC2q SX1vq  1 4.100000e-01    2.840000e+00
  SC2q SC2eq  1 4.100000e-01    3.070000e+00
  SC2q SC1eq  1 4.100000e-01    3.310000e+00
  SC2q SX4eq  1 4.100000e-01    2.350000e+00
  SC2q SX3eq  1 4.100000e-01    2.840000e+00
  SC2q SX2eq  1 4.100000e-01    2.840000e+00
  SC2q SX1eq  1 4.100000e-01    2.840000e+00
  SC1q SC1vq  1 4.100000e-01    3.070000e+00
  SC1q SX4vq  1 4.100000e-01    2.350000e+00
  SC1q SX3vq  1 4.100000e-01    2.840000e+00
  SC1q SX2vq  1 4.100000e-01    2.840000e+00
  SC1q SX1vq  1 4.100000e-01    2.840000e+00
  SC1q SC1eq  1 4.100000e-01    3.070000e+00
  SC1q SX4eq  1 4.100000e-01    2.350000e+00
  SC1q SX3eq  1 4.100000e-01    2.840000e+00
  SC1q SX2eq  1 4.100000e-01    2.840000e+00
  SC1q SX1eq  1 4.100000e-01    2.840000e+00
  SX4q SX4vq  1 4.100000e-01    3.070000e+00
  SX4q SX3vq  1 4.100000e-01    3.070000e+00
  SX4q SX2vq  1 4.100000e-01    3.070000e+00
  SX4q SX1vq  1 4.100000e-01    3.070000e+00
  SX4q SX4eq  1 4.100000e-01    3.070000e+00
  SX4q SX3eq  1 4.100000e-01    3.070000e+00
  SX4q SX2eq  1 4.100000e-01    3.070000e+00
  SX4q SX1eq  1 4.100000e-01    3.070000e+00
  SX3q SX3vq  1 4.100000e-01    3.070000e+00
  SX3q SX2vq  1 4.100000e-01    3.310000e+00
  SX3q SX1vq  1 4.100000e-01    3.310000e+00
  SX3q SX3eq  1 4.100000e-01    3.070000e+00
  SX3q SX2eq  1 4.100000e-01    3.310000e+00
  SX3q SX1eq  1 4.100000e-01    3.310000e+00
  SX2q SX2vq  1 4.100000e-01    3.310000e+00
  SX2q SX1vq  1 4.100000e-01    3.310000e+00
  SX2q SX2eq  1 4.100000e-01    3.310000e+00
  SX2q SX1eq  1 4.100000e-01    3.310000e+00
  SX1q SX1vq  1 4.100000e-01    3.550000e+00
  SX1q SX1eq  1 4.100000e-01    3.550000e+00
  SP6h SX1eq  1 4.100000e-01    2.200000e+00
  SP6h SX2eq  1 4.100000e-01    2.350000e+00
  SP6h SX3eq  1 4.100000e-01    2.600000e+00
  SP6h SX4eq  1 4.100000e-01    2.600000e+00
  SP6h SC1eq  1 4.140000e-01    1.560000e+00
  SP6h SC2eq  1 4.100000e-01    1.910000e+00
  SP6h SC3eq  1 4.100000e-01    1.910000e+00
  SP6h SC4eq  1 4.100000e-01    2.040000e+00
  SP6h SC5eq  1 4.100000e-01    2.200000e+00
  SP6h SC6eq  1 4.100000e-01    2.350000e+00
  SP6h SX1vq  1 4.100000e-01    2.200000e+00
  SP6h SX2vq  1 4.100000e-01    2.350000e+00
  SP6h SX3vq  1 4.100000e-01    2.600000e+00
  SP6h SX4vq  1 4.100000e-01    2.600000e+00
  SP6h SC1vq  1 4.140000e-01    1.560000e+00
  SP6h SC2vq  1 4.100000e-01    1.910000e+00
  SP6h SC3vq  1 4.100000e-01    1.910000e+00
  SP6h SC4vq  1 4.100000e-01    2.040000e+00
  SP6h SC5vq  1 4.100000e-01    2.200000e+00
  SP6h SC6vq  1 4.100000e-01    2.350000e+00
  SP6h SN1aq  1 4.100000e-01    2.200000e+00
  SP6h SN2aq  1 4.100000e-01    2.350000e+00
  SP6h SN3aq  1 4.100000e-01    2.600000e+00
  SP6h SN4aq  1 4.100000e-01    2.840000e+00
  SP6h SN5aq  1 4.100000e-01    3.070000e+00
  SP6h SN6aq  1 4.100000e-01    3.550000e+00
  SP6h SP1aq  1 4.100000e-01    3.820000e+00
  SP6h SP2aq  1 4.100000e-01    4.040000e+00
  SP6h SP3aq  1 4.100000e-01    4.040000e+00
  SP6h SP4aq  1 4.100000e-01    4.290000e+00
  SP6h SP5aq  1 4.100000e-01    4.550000e+00
  SP6h SP6aq  1 4.100000e-01    4.840000e+00
  SP6h SN1dq  1 4.100000e-01    2.200000e+00
  SP6h SN2dq  1 4.100000e-01    2.350000e+00
  SP6h SN3dq  1 4.100000e-01    2.600000e+00
  SP6h SN4dq  1 4.100000e-01    2.840000e+00
  SP6h SN5dq  1 4.100000e-01    3.070000e+00
  SP6h SN6dq  1 4.100000e-01    3.550000e+00
  SP6h SP1dq  1 4.100000e-01    3.820000e+00
  SP6h SP2dq  1 4.100000e-01    4.040000e+00
  SP6h SP3dq  1 4.100000e-01    4.040000e+00
  SP6h SP4dq  1 4.100000e-01    4.290000e+00
  SP6h SP5dq  1 4.100000e-01    4.550000e+00
  SP6h SP6dq  1 4.100000e-01    4.840000e+00
  SP5h SX1eq  1 4.100000e-01    2.200000e+00
  SP5h SX2eq  1 4.100000e-01    2.600000e+00
  SP5h SX3eq  1 4.100000e-01    2.600000e+00
  SP5h SX4eq  1 4.100000e-01    2.840000e+00
  SP5h SC1eq  1 4.100000e-01    1.910000e+00
  SP5h SC2eq  1 4.100000e-01    2.040000e+00
  SP5h SC3eq  1 4.100000e-01    2.040000e+00
  SP5h SC4eq  1 4.100000e-01    2.200000e+00
  SP5h SC5eq  1 4.100000e-01    2.350000e+00
  SP5h SC6eq  1 4.100000e-01    2.350000e+00
  SP5h SX1vq  1 4.100000e-01    2.200000e+00
  SP5h SX2vq  1 4.100000e-01    2.600000e+00
  SP5h SX3vq  1 4.100000e-01    2.600000e+00
  SP5h SX4vq  1 4.100000e-01    2.840000e+00
  SP5h SC1vq  1 4.100000e-01    1.910000e+00
  SP5h SC2vq  1 4.100000e-01    2.040000e+00
  SP5h SC3vq  1 4.100000e-01    2.040000e+00
  SP5h SC4vq  1 4.100000e-01    2.200000e+00
  SP5h SC5vq  1 4.100000e-01    2.350000e+00
  SP5h SC6vq  1 4.100000e-01    2.350000e+00
  SP5h SN1aq  1 4.100000e-01    2.200000e+00
  SP5h SN2aq  1 4.100000e-01    2.350000e+00
  SP5h SN3aq  1 4.100000e-01    2.600000e+00
  SP5h SN4aq  1 4.100000e-01    3.070000e+00
  SP5h SN5aq  1 4.100000e-01    3.070000e+00
  SP5h SN6aq  1 4.100000e-01    3.310000e+00
  SP5h SP1aq  1 4.100000e-01    3.550000e+00
  SP5h SP2aq  1 4.100000e-01    3.820000e+00
  SP5h SP3aq  1 4.100000e-01    3.820000e+00
  SP5h SP4aq  1 4.100000e-01    4.040000e+00
  SP5h SP5aq  1 4.100000e-01    4.290000e+00
  SP5h SN1dq  1 4.100000e-01    2.200000e+00
  SP5h SN2dq  1 4.100000e-01    2.350000e+00
  SP5h SN3dq  1 4.100000e-01    2.600000e+00
  SP5h SN4dq  1 4.100000e-01    3.070000e+00
  SP5h SN5dq  1 4.100000e-01    3.070000e+00
  SP5h SN6dq  1 4.100000e-01    3.310000e+00
  SP5h SP1dq  1 4.100000e-01    3.550000e+00
  SP5h SP2dq  1 4.100000e-01    3.820000e+00
  SP5h SP3dq  1 4.100000e-01    3.820000e+00
  SP5h SP4dq  1 4.100000e-01    4.040000e+00
  SP5h SP5dq  1 4.100000e-01    4.290000e+00
  SP4h SX1eq  1 4.100000e-01    2.350000e+00
  SP4h SX2eq  1 4.100000e-01    2.600000e+00
  SP4h SX3eq  1 4.100000e-01    2.600000e+00
  SP4h SX4eq  1 4.100000e-01    2.840000e+00
  SP4h SC1eq  1 4.100000e-01    1.910000e+00
  SP4h SC2eq  1 4.100000e-01    2.040000e+00
  SP4h SC3eq  1 4.100000e-01    2.040000e+00
  SP4h SC4eq  1 4.100000e-01    2.200000e+00
  SP4h SC5eq  1 4.100000e-01    2.350000e+00
  SP4h SC6eq  1 4.100000e-01    2.600000e+00
  SP4h SX1vq  1 4.100000e-01    2.350000e+00
  SP4h SX2vq  1 4.100000e-01    2.600000e+00
  SP4h SX3vq  1 4.100000e-01    2.600000e+00
  SP4h SX4vq  1 4.100000e-01    2.840000e+00
  SP4h SC1vq  1 4.100000e-01    1.910000e+00
  SP4h SC2vq  1 4.100000e-01    2.040000e+00
  SP4h SC3vq  1 4.100000e-01    2.040000e+00
  SP4h SC4vq  1 4.100000e-01    2.200000e+00
  SP4h SC5vq  1 4.100000e-01    2.350000e+00
  SP4h SC6vq  1 4.100000e-01    2.600000e+00
  SP4h SN1aq  1 4.100000e-01    2.350000e+00
  SP4h SN2aq  1 4.100000e-01    2.600000e+00
  SP4h SN3aq  1 4.100000e-01    2.840000e+00
  SP4h SN4aq  1 4.100000e-01    3.070000e+00
  SP4h SN5aq  1 4.100000e-01    3.070000e+00
  SP4h SN6aq  1 4.100000e-01    3.310000e+00
  SP4h SP1aq  1 4.100000e-01    3.550000e+00
  SP4h SP2aq  1 4.100000e-01    3.820000e+00
  SP4h SP3aq  1 4.100000e-01    3.820000e+00
  SP4h SP4aq  1 4.100000e-01    4.040000e+00
  SP4h SN1dq  1 4.100000e-01    2.350000e+00
  SP4h SN2dq  1 4.100000e-01    2.600000e+00
  SP4h SN3dq  1 4.100000e-01    2.840000e+00
  SP4h SN4dq  1 4.100000e-01    3.070000e+00
  SP4h SN5dq  1 4.100000e-01    3.070000e+00
  SP4h SN6dq  1 4.100000e-01    3.310000e+00
  SP4h SP1dq  1 4.100000e-01    3.550000e+00
  SP4h SP2dq  1 4.100000e-01    3.820000e+00
  SP4h SP3dq  1 4.100000e-01    3.820000e+00
  SP4h SP4dq  1 4.100000e-01    4.040000e+00
  SP3h SX1eq  1 4.100000e-01    2.350000e+00
  SP3h SX2eq  1 4.100000e-01    2.600000e+00
  SP3h SX3eq  1 4.100000e-01    2.840000e+00
  SP3h SX4eq  1 4.100000e-01    2.840000e+00
  SP3h SC1eq  1 4.100000e-01    1.910000e+00
  SP3h SC2eq  1 4.100000e-01    2.040000e+00
  SP3h SC3eq  1 4.100000e-01    2.040000e+00
  SP3h SC4eq  1 4.100000e-01    2.350000e+00
  SP3h SC5eq  1 4.100000e-01    2.600000e+00
  SP3h SC6eq  1 4.100000e-01    2.840000e+00
  SP3h SX1vq  1 4.100000e-01    2.350000e+00
  SP3h SX2vq  1 4.100000e-01    2.600000e+00
  SP3h SX3vq  1 4.100000e-01    2.840000e+00
  SP3h SX4vq  1 4.100000e-01    2.840000e+00
  SP3h SC1vq  1 4.100000e-01    1.910000e+00
  SP3h SC2vq  1 4.100000e-01    2.040000e+00
  SP3h SC3vq  1 4.100000e-01    2.040000e+00
  SP3h SC4vq  1 4.100000e-01    2.350000e+00
  SP3h SC5vq  1 4.100000e-01    2.600000e+00
  SP3h SC6vq  1 4.100000e-01    2.840000e+00
  SP3h SN1aq  1 4.100000e-01    2.600000e+00
  SP3h SN2aq  1 4.100000e-01    2.840000e+00
  SP3h SN3aq  1 4.100000e-01    2.840000e+00
  SP3h SN4aq  1 4.100000e-01    3.070000e+00
  SP3h SN5aq  1 4.100000e-01    3.070000e+00
  SP3h SN6aq  1 4.100000e-01    3.310000e+00
  SP3h SP1aq  1 4.100000e-01    3.550000e+00
  SP3h SP2aq  1 4.100000e-01    3.820000e+00
  SP3h SP3aq  1 4.100000e-01    3.820000e+00
  SP3h SN1dq  1 4.100000e-01    2.600000e+00
  SP3h SN2dq  1 4.100000e-01    2.840000e+00
  SP3h SN3dq  1 4.100000e-01    2.840000e+00
  SP3h SN4dq  1 4.100000e-01    3.070000e+00
  SP3h SN5dq  1 4.100000e-01    3.070000e+00
  SP3h SN6dq  1 4.100000e-01    3.310000e+00
  SP3h SP1dq  1 4.100000e-01    3.550000e+00
  SP3h SP2dq  1 4.100000e-01    3.820000e+00
  SP3h SP3dq  1 4.100000e-01    3.820000e+00
  SP2h SX1eq  1 4.100000e-01    2.350000e+00
  SP2h SX2eq  1 4.100000e-01    2.600000e+00
  SP2h SX3eq  1 4.100000e-01    2.840000e+00
  SP2h SX4eq  1 4.100000e-01    2.840000e+00
  SP2h SC1eq  1 4.100000e-01    2.040000e+00
  SP2h SC2eq  1 4.100000e-01    2.200000e+00
  SP2h SC3eq  1 4.100000e-01    2.200000e+00
  SP2h SC4eq  1 4.100000e-01    2.350000e+00
  SP2h SC5eq  1 4.100000e-01    2.600000e+00
  SP2h SC6eq  1 4.100000e-01    2.840000e+00
  SP2h SX1vq  1 4.100000e-01    2.350000e+00
  SP2h SX2vq  1 4.100000e-01    2.600000e+00
  SP2h SX3vq  1 4.100000e-01    2.840000e+00
  SP2h SX4vq  1 4.100000e-01    2.840000e+00
  SP2h SC1vq  1 4.100000e-01    2.040000e+00
  SP2h SC2vq  1 4.100000e-01    2.200000e+00
  SP2h SC3vq  1 4.100000e-01    2.200000e+00
  SP2h SC4vq  1 4.100000e-01    2.350000e+00
  SP2h SC5vq  1 4.100000e-01    2.600000e+00
  SP2h SC6vq  1 4.100000e-01    2.840000e+00
  SP2h SN1aq  1 4.100000e-01    2.840000e+00
  SP2h SN2aq  1 4.100000e-01    2.840000e+00
  SP2h SN3aq  1 4.100000e-01    2.840000e+00
  SP2h SN4aq  1 4.100000e-01    3.070000e+00
  SP2h SN5aq  1 4.100000e-01    3.310000e+00
  SP2h SN6aq  1 4.100000e-01    3.550000e+00
  SP2h SP1aq  1 4.100000e-01    3.550000e+00
  SP2h SP2aq  1 4.100000e-01    3.820000e+00
  SP2h SN1dq  1 4.100000e-01    2.840000e+00
  SP2h SN2dq  1 4.100000e-01    2.840000e+00
  SP2h SN3dq  1 4.100000e-01    2.840000e+00
  SP2h SN4dq  1 4.100000e-01    3.070000e+00
  SP2h SN5dq  1 4.100000e-01    3.310000e+00
  SP2h SN6dq  1 4.100000e-01    3.550000e+00
  SP2h SP1dq  1 4.100000e-01    3.550000e+00
  SP2h SP2dq  1 4.100000e-01    3.820000e+00
  SP1h SX1eq  1 4.100000e-01    2.350000e+00
  SP1h SX2eq  1 4.100000e-01    2.600000e+00
  SP1h SX3eq  1 4.100000e-01    2.840000e+00
  SP1h SX4eq  1 4.100000e-01    2.840000e+00
  SP1h SC1eq  1 4.100000e-01    2.040000e+00
  SP1h SC2eq  1 4.100000e-01    2.200000e+00
  SP1h SC3eq  1 4.100000e-01    2.200000e+00
  SP1h SC4eq  1 4.100000e-01    2.350000e+00
  SP1h SC5eq  1 4.100000e-01    2.600000e+00
  SP1h SC6eq  1 4.100000e-01    2.840000e+00
  SP1h SX1vq  1 4.100000e-01    2.350000e+00
  SP1h SX2vq  1 4.100000e-01    2.600000e+00
  SP1h SX3vq  1 4.100000e-01    2.840000e+00
  SP1h SX4vq  1 4.100000e-01    2.840000e+00
  SP1h SC1vq  1 4.100000e-01    2.040000e+00
  SP1h SC2vq  1 4.100000e-01    2.200000e+00
  SP1h SC3vq  1 4.100000e-01    2.200000e+00
  SP1h SC4vq  1 4.100000e-01    2.350000e+00
  SP1h SC5vq  1 4.100000e-01    2.600000e+00
  SP1h SC6vq  1 4.100000e-01    2.840000e+00
  SP1h SN1aq  1 4.100000e-01    2.840000e+00
  SP1h SN2aq  1 4.100000e-01    2.840000e+00
  SP1h SN3aq  1 4.100000e-01    2.840000e+00
  SP1h SN4aq  1 4.100000e-01    3.310000e+00
  SP1h SN5aq  1 4.100000e-01    3.310000e+00
  SP1h SN6aq  1 4.100000e-01    3.550000e+00
  SP1h SP1aq  1 4.100000e-01    3.550000e+00
  SP1h SN1dq  1 4.100000e-01    2.840000e+00
  SP1h SN2dq  1 4.100000e-01    2.840000e+00
  SP1h SN3dq  1 4.100000e-01    2.840000e+00
  SP1h SN4dq  1 4.100000e-01    3.310000e+00
  SP1h SN5dq  1 4.100000e-01    3.310000e+00
  SP1h SN6dq  1 4.100000e-01    3.550000e+00
  SP1h SP1dq  1 4.100000e-01    3.550000e+00
  SN6h SX1eq  1 4.100000e-01    2.350000e+00
  SN6h SX2eq  1 4.100000e-01    2.600000e+00
  SN6h SX3eq  1 4.100000e-01    2.840000e+00
  SN6h SX4eq  1 4.100000e-01    3.070000e+00
  SN6h SC1eq  1 4.100000e-01    2.200000e+00
  SN6h SC2eq  1 4.100000e-01    2.350000e+00
  SN6h SC3eq  1 4.100000e-01    2.350000e+00
  SN6h SC4eq  1 4.100000e-01    2.600000e+00
  SN6h SC5eq  1 4.100000e-01    2.840000e+00
  SN6h SC6eq  1 4.100000e-01    3.070000e+00
  SN6h SX1vq  1 4.100000e-01    2.350000e+00
  SN6h SX2vq  1 4.100000e-01    2.600000e+00
  SN6h SX3vq  1 4.100000e-01    2.840000e+00
  SN6h SX4vq  1 4.100000e-01    3.070000e+00
  SN6h SC1vq  1 4.100000e-01    2.200000e+00
  SN6h SC2vq  1 4.100000e-01    2.350000e+00
  SN6h SC3vq  1 4.100000e-01    2.350000e+00
  SN6h SC4vq  1 4.100000e-01    2.600000e+00
  SN6h SC5vq  1 4.100000e-01    2.840000e+00
  SN6h SC6vq  1 4.100000e-01    3.070000e+00
  SN6h SN1aq  1 4.100000e-01    2.840000e+00
  SN6h SN2aq  1 4.100000e-01    2.840000e+00
  SN6h SN3aq  1 4.100000e-01    3.070000e+00
  SN6h SN4aq  1 4.100000e-01    3.550000e+00
  SN6h SN5aq  1 4.100000e-01    3.550000e+00
  SN6h SN6aq  1 4.100000e-01    3.550000e+00
  SN6h SN1dq  1 4.100000e-01    2.840000e+00
  SN6h SN2dq  1 4.100000e-01    2.840000e+00
  SN6h SN3dq  1 4.100000e-01    3.070000e+00
  SN6h SN4dq  1 4.100000e-01    3.550000e+00
  SN6h SN5dq  1 4.100000e-01    3.550000e+00
  SN6h SN6dq  1 4.100000e-01    3.550000e+00
  SN5h SX1eq  1 4.100000e-01    2.600000e+00
  SN5h SX2eq  1 4.100000e-01    2.840000e+00
  SN5h SX3eq  1 4.100000e-01    3.070000e+00
  SN5h SX4eq  1 4.100000e-01    3.310000e+00
  SN5h SC1eq  1 4.100000e-01    2.200000e+00
  SN5h SC2eq  1 4.100000e-01    2.350000e+00
  SN5h SC3eq  1 4.100000e-01    2.600000e+00
  SN5h SC4eq  1 4.100000e-01    2.600000e+00
  SN5h SC5eq  1 4.100000e-01    2.840000e+00
  SN5h SC6eq  1 4.100000e-01    3.070000e+00
  SN5h SX1vq  1 4.100000e-01    2.600000e+00
  SN5h SX2vq  1 4.100000e-01    2.840000e+00
  SN5h SX3vq  1 4.100000e-01    3.070000e+00
  SN5h SX4vq  1 4.100000e-01    3.310000e+00
  SN5h SC1vq  1 4.100000e-01    2.200000e+00
  SN5h SC2vq  1 4.100000e-01    2.350000e+00
  SN5h SC3vq  1 4.100000e-01    2.600000e+00
  SN5h SC4vq  1 4.100000e-01    2.600000e+00
  SN5h SC5vq  1 4.100000e-01    2.840000e+00
  SN5h SC6vq  1 4.100000e-01    3.070000e+00
  SN5h SN1aq  1 4.100000e-01    2.840000e+00
  SN5h SN2aq  1 4.100000e-01    3.070000e+00
  SN5h SN3aq  1 4.100000e-01    3.070000e+00
  SN5h SN4aq  1 4.100000e-01    3.310000e+00
  SN5h SN5aq  1 4.100000e-01    3.310000e+00
  SN5h SN1dq  1 4.100000e-01    2.840000e+00
  SN5h SN2dq  1 4.100000e-01    3.070000e+00
  SN5h SN3dq  1 4.100000e-01    3.070000e+00
  SN5h SN4dq  1 4.100000e-01    3.310000e+00
  SN5h SN5dq  1 4.100000e-01    3.310000e+00
  SN4h SX1eq  1 4.100000e-01    2.600000e+00
  SN4h SX2eq  1 4.100000e-01    2.840000e+00
  SN4h SX3eq  1 4.100000e-01    3.310000e+00
  SN4h SX4eq  1 4.100000e-01    3.550000e+00
  SN4h SC1eq  1 4.100000e-01    2.200000e+00
  SN4h SC2eq  1 4.100000e-01    2.350000e+00
  SN4h SC3eq  1 4.100000e-01    2.600000e+00
  SN4h SC4eq  1 4.100000e-01    2.840000e+00
  SN4h SC5eq  1 4.100000e-01    2.840000e+00
  SN4h SC6eq  1 4.100000e-01    3.070000e+00
  SN4h SX1vq  1 4.100000e-01    2.600000e+00
  SN4h SX2vq  1 4.100000e-01    2.840000e+00
  SN4h SX3vq  1 4.100000e-01    3.310000e+00
  SN4h SX4vq  1 4.100000e-01    3.550000e+00
  SN4h SC1vq  1 4.100000e-01    2.200000e+00
  SN4h SC2vq  1 4.100000e-01    2.350000e+00
  SN4h SC3vq  1 4.100000e-01    2.600000e+00
  SN4h SC4vq  1 4.100000e-01    2.840000e+00
  SN4h SC5vq  1 4.100000e-01    2.840000e+00
  SN4h SC6vq  1 4.100000e-01    3.070000e+00
  SN4h SN1aq  1 4.100000e-01    2.840000e+00
  SN4h SN2aq  1 4.100000e-01    3.070000e+00
  SN4h SN3aq  1 4.100000e-01    3.070000e+00
  SN4h SN4aq  1 4.100000e-01    3.310000e+00
  SN4h SN1dq  1 4.100000e-01    2.840000e+00
  SN4h SN2dq  1 4.100000e-01    3.070000e+00
  SN4h SN3dq  1 4.100000e-01    3.070000e+00
  SN4h SN4dq  1 4.100000e-01    3.310000e+00
  SN3h SX1eq  1 4.100000e-01    2.840000e+00
  SN3h SX2eq  1 4.100000e-01    2.840000e+00
  SN3h SX3eq  1 4.100000e-01    3.070000e+00
  SN3h SX4eq  1 4.100000e-01    3.310000e+00
  SN3h SC1eq  1 4.100000e-01    2.350000e+00
  SN3h SC2eq  1 4.100000e-01    2.600000e+00
  SN3h SC3eq  1 4.100000e-01    2.600000e+00
  SN3h SC4eq  1 4.100000e-01    2.840000e+00
  SN3h SC5eq  1 4.100000e-01    2.840000e+00
  SN3h SC6eq  1 4.100000e-01    3.070000e+00
  SN3h SX1vq  1 4.100000e-01    2.840000e+00
  SN3h SX2vq  1 4.100000e-01    2.840000e+00
  SN3h SX3vq  1 4.100000e-01    3.070000e+00
  SN3h SX4vq  1 4.100000e-01    3.310000e+00
  SN3h SC1vq  1 4.100000e-01    2.350000e+00
  SN3h SC2vq  1 4.100000e-01    2.600000e+00
  SN3h SC3vq  1 4.100000e-01    2.600000e+00
  SN3h SC4vq  1 4.100000e-01    2.840000e+00
  SN3h SC5vq  1 4.100000e-01    2.840000e+00
  SN3h SC6vq  1 4.100000e-01    3.070000e+00
  SN3h SN1aq  1 4.100000e-01    2.840000e+00
  SN3h SN2aq  1 4.100000e-01    3.070000e+00
  SN3h SN3aq  1 4.100000e-01    3.070000e+00
  SN3h SN1dq  1 4.100000e-01    2.840000e+00
  SN3h SN2dq  1 4.100000e-01    3.070000e+00
  SN3h SN3dq  1 4.100000e-01    3.070000e+00
  SN2h SX1eq  1 4.100000e-01    2.840000e+00
  SN2h SX2eq  1 4.100000e-01    2.840000e+00
  SN2h SX3eq  1 4.100000e-01    3.070000e+00
  SN2h SX4eq  1 4.100000e-01    3.310000e+00
  SN2h SC1eq  1 4.100000e-01    2.350000e+00
  SN2h SC2eq  1 4.100000e-01    2.600000e+00
  SN2h SC3eq  1 4.100000e-01    2.840000e+00
  SN2h SC4eq  1 4.100000e-01    2.840000e+00
  SN2h SC5eq  1 4.100000e-01    2.840000e+00
  SN2h SC6eq  1 4.100000e-01    3.070000e+00
  SN2h SX1vq  1 4.100000e-01    2.840000e+00
  SN2h SX2vq  1 4.100000e-01    2.840000e+00
  SN2h SX3vq  1 4.100000e-01    3.070000e+00
  SN2h SX4vq  1 4.100000e-01    3.310000e+00
  SN2h SC1vq  1 4.100000e-01    2.350000e+00
  SN2h SC2vq  1 4.100000e-01    2.600000e+00
  SN2h SC3vq  1 4.100000e-01    2.840000e+00
  SN2h SC4vq  1 4.100000e-01    2.840000e+00
  SN2h SC5vq  1 4.100000e-01    2.840000e+00
  SN2h SC6vq  1 4.100000e-01    3.070000e+00
  SN2h SN1aq  1 4.100000e-01    2.840000e+00
  SN2h SN2aq  1 4.100000e-01    3.070000e+00
  SN2h SN1dq  1 4.100000e-01    2.840000e+00
  SN2h SN2dq  1 4.100000e-01    3.070000e+00
  SN1h SX1eq  1 4.100000e-01    2.840000e+00
  SN1h SX2eq  1 4.100000e-01    2.840000e+00
  SN1h SX3eq  1 4.100000e-01    3.070000e+00
  SN1h SX4eq  1 4.100000e-01    3.070000e+00
  SN1h SC1eq  1 4.100000e-01    2.350000e+00
  SN1h SC2eq  1 4.100000e-01    2.600000e+00
  SN1h SC3eq  1 4.100000e-01    2.840000e+00
  SN1h SC4eq  1 4.100000e-01    3.070000e+00
  SN1h SC5eq  1 4.100000e-01    3.070000e+00
  SN1h SC6eq  1 4.100000e-01    3.310000e+00
  SN1h SX1vq  1 4.100000e-01    2.840000e+00
  SN1h SX2vq  1 4.100000e-01    2.840000e+00
  SN1h SX3vq  1 4.100000e-01    3.070000e+00
  SN1h SX4vq  1 4.100000e-01    3.070000e+00
  SN1h SC1vq  1 4.100000e-01    2.350000e+00
  SN1h SC2vq  1 4.100000e-01    2.600000e+00
  SN1h SC3vq  1 4.100000e-01    2.840000e+00
  SN1h SC4vq  1 4.100000e-01    3.070000e+00
  SN1h SC5vq  1 4.100000e-01    3.070000e+00
  SN1h SC6vq  1 4.100000e-01    3.310000e+00
  SN1h SN1aq  1 4.100000e-01    3.070000e+00
  SN1h SN1dq  1 4.100000e-01    3.070000e+00
  SC6h SX1eq  1 4.100000e-01    3.070000e+00
  SC6h SX2eq  1 4.100000e-01    3.070000e+00
  SC6h SX3eq  1 4.100000e-01    3.070000e+00
  SC6h SX4eq  1 4.100000e-01    3.070000e+00
  SC6h SC1eq  1 4.100000e-01    2.350000e+00
  SC6h SC2eq  1 4.100000e-01    2.600000e+00
  SC6h SC3eq  1 4.100000e-01    2.840000e+00
  SC6h SC4eq  1 4.100000e-01    3.070000e+00
  SC6h SC5eq  1 4.100000e-01    3.070000e+00
  SC6h SC6eq  1 4.100000e-01    3.310000e+00
  SC6h SX1vq  1 4.100000e-01    3.070000e+00
  SC6h SX2vq  1 4.100000e-01    3.070000e+00
  SC6h SX3vq  1 4.100000e-01    3.070000e+00
  SC6h SX4vq  1 4.100000e-01    3.070000e+00
  SC6h SC1vq  1 4.100000e-01    2.350000e+00
  SC6h SC2vq  1 4.100000e-01    2.600000e+00
  SC6h SC3vq  1 4.100000e-01    2.840000e+00
  SC6h SC4vq  1 4.100000e-01    3.070000e+00
  SC6h SC5vq  1 4.100000e-01    3.070000e+00
  SC6h SC6vq  1 4.100000e-01    3.310000e+00
  SC5h SX1eq  1 4.100000e-01    3.070000e+00
  SC5h SX2eq  1 4.100000e-01    2.840000e+00
  SC5h SX3eq  1 4.100000e-01    2.840000e+00
  SC5h SX4eq  1 4.100000e-01    2.840000e+00
  SC5h SC1eq  1 4.100000e-01    2.600000e+00
  SC5h SC2eq  1 4.100000e-01    2.600000e+00
  SC5h SC3eq  1 4.100000e-01    2.840000e+00
  SC5h SC4eq  1 4.100000e-01    3.070000e+00
  SC5h SC5eq  1 4.100000e-01    3.070000e+00
  SC5h SX1vq  1 4.100000e-01    3.070000e+00
  SC5h SX2vq  1 4.100000e-01    2.840000e+00
  SC5h SX3vq  1 4.100000e-01    2.840000e+00
  SC5h SX4vq  1 4.100000e-01    2.840000e+00
  SC5h SC1vq  1 4.100000e-01    2.600000e+00
  SC5h SC2vq  1 4.100000e-01    2.600000e+00
  SC5h SC3vq  1 4.100000e-01    2.840000e+00
  SC5h SC4vq  1 4.100000e-01    3.070000e+00
  SC5h SC5vq  1 4.100000e-01    3.070000e+00
  SC4h SX1eq  1 4.100000e-01    3.070000e+00
  SC4h SX2eq  1 4.100000e-01    2.840000e+00
  SC4h SX3eq  1 4.100000e-01    2.840000e+00
  SC4h SX4eq  1 4.100000e-01    2.840000e+00
  SC4h SC1eq  1 4.100000e-01    2.600000e+00
  SC4h SC2eq  1 4.100000e-01    2.840000e+00
  SC4h SC3eq  1 4.100000e-01    3.070000e+00
  SC4h SC4eq  1 4.100000e-01    3.070000e+00
  SC4h SX1vq  1 4.100000e-01    3.070000e+00
  SC4h SX2vq  1 4.100000e-01    2.840000e+00
  SC4h SX3vq  1 4.100000e-01    2.840000e+00
  SC4h SX4vq  1 4.100000e-01    2.840000e+00
  SC4h SC1vq  1 4.100000e-01    2.600000e+00
  SC4h SC2vq  1 4.100000e-01    2.840000e+00
  SC4h SC3vq  1 4.100000e-01    3.070000e+00
  SC4h SC4vq  1 4.100000e-01    3.070000e+00
  SC3h SX1eq  1 4.100000e-01    3.070000e+00
  SC3h SX2eq  1 4.100000e-01    2.840000e+00
  SC3h SX3eq  1 4.100000e-01    2.840000e+00
  SC3h SX4eq  1 4.100000e-01    2.840000e+00
  SC3h SC1eq  1 4.100000e-01    3.070000e+00
  SC3h SC2eq  1 4.100000e-01    3.070000e+00
  SC3h SC3eq  1 4.100000e-01    3.070000e+00
  SC3h SX1vq  1 4.100000e-01    3.070000e+00
  SC3h SX2vq  1 4.100000e-01    2.840000e+00
  SC3h SX3vq  1 4.100000e-01    2.840000e+00
  SC3h SX4vq  1 4.100000e-01    2.840000e+00
  SC3h SC1vq  1 4.100000e-01    3.070000e+00
  SC3h SC2vq  1 4.100000e-01    3.070000e+00
  SC3h SC3vq  1 4.100000e-01    3.070000e+00
  SC2h SX1eq  1 4.100000e-01    2.840000e+00
  SC2h SX2eq  1 4.100000e-01    2.840000e+00
  SC2h SX3eq  1 4.100000e-01    2.840000e+00
  SC2h SX4eq  1 4.100000e-01    2.350000e+00
  SC2h SC1eq  1 4.100000e-01    3.310000e+00
  SC2h SC2eq  1 4.100000e-01    3.070000e+00
  SC2h SX1vq  1 4.100000e-01    2.840000e+00
  SC2h SX2vq  1 4.100000e-01    2.840000e+00
  SC2h SX3vq  1 4.100000e-01    2.840000e+00
  SC2h SX4vq  1 4.100000e-01    2.350000e+00
  SC2h SC1vq  1 4.100000e-01    3.310000e+00
  SC2h SC2vq  1 4.100000e-01    3.070000e+00
  SC1h SX1eq  1 4.100000e-01    2.840000e+00
  SC1h SX2eq  1 4.100000e-01    2.840000e+00
  SC1h SX3eq  1 4.100000e-01    2.840000e+00
  SC1h SX4eq  1 4.100000e-01    2.350000e+00
  SC1h SC1eq  1 4.100000e-01    3.070000e+00
  SC1h SX1vq  1 4.100000e-01    2.840000e+00
  SC1h SX2vq  1 4.100000e-01    2.840000e+00
  SC1h SX3vq  1 4.100000e-01    2.840000e+00
  SC1h SX4vq  1 4.100000e-01    2.350000e+00
  SC1h SC1vq  1 4.100000e-01    3.070000e+00
  SX4h SX1eq  1 4.100000e-01    3.070000e+00
  SX4h SX2eq  1 4.100000e-01    3.070000e+00
  SX4h SX3eq  1 4.100000e-01    3.070000e+00
  SX4h SX4eq  1 4.100000e-01    3.070000e+00
  SX4h SX1vq  1 4.100000e-01    3.070000e+00
  SX4h SX2vq  1 4.100000e-01    3.070000e+00
  SX4h SX3vq  1 4.100000e-01    3.070000e+00
  SX4h SX4vq  1 4.100000e-01    3.070000e+00
  SX3h SX1eq  1 4.100000e-01    3.310000e+00
  SX3h SX2eq  1 4.100000e-01    3.310000e+00
  SX3h SX3eq  1 4.100000e-01    3.070000e+00
  SX3h SX1vq  1 4.100000e-01    3.310000e+00
  SX3h SX2vq  1 4.100000e-01    3.310000e+00
  SX3h SX3vq  1 4.100000e-01    3.070000e+00
  SX2h SX1eq  1 4.100000e-01    3.310000e+00
  SX2h SX2eq  1 4.100000e-01    3.310000e+00
  SX2h SX1vq  1 4.100000e-01    3.310000e+00
  SX2h SX2vq  1 4.100000e-01    3.310000e+00
  SX1h SX1eq  1 4.100000e-01    3.550000e+00
  SX1h SX1vq  1 4.100000e-01    3.550000e+00
  SP6d SP6dh  1 4.100000e-01    4.040000e+00
  SP6q SP6dh  1 4.100000e-01    4.840000e+00
  SP5d SP5dh  1 4.100000e-01    3.550000e+00
  SP6a SP5dh  1 4.100000e-01    4.290000e+00
  SP6q SP5dh  1 4.100000e-01    4.550000e+00
  SP5q SP5dh  1 4.100000e-01    4.290000e+00
  SP4d SP4dh  1 4.100000e-01    3.310000e+00
  SP6a SP4dh  1 4.100000e-01    4.040000e+00
  SP5a SP4dh  1 4.100000e-01    3.820000e+00
  SP6q SP4dh  1 4.100000e-01    4.290000e+00
  SP5q SP4dh  1 4.100000e-01    4.040000e+00
  SP4q SP4dh  1 4.100000e-01    4.040000e+00
  SP3d SP3dh  1 4.100000e-01    3.070000e+00
  SP6a SP3dh  1 4.100000e-01    3.820000e+00
  SP5a SP3dh  1 4.100000e-01    3.550000e+00
  SP4a SP3dh  1 4.100000e-01    3.550000e+00
  SP6q SP3dh  1 4.100000e-01    4.040000e+00
  SP5q SP3dh  1 4.100000e-01    3.820000e+00
  SP4q SP3dh  1 4.100000e-01    3.820000e+00
  SP3q SP3dh  1 4.100000e-01    3.820000e+00
  SP2d SP2dh  1 4.100000e-01    3.070000e+00
  SP6a SP2dh  1 4.100000e-01    3.820000e+00
  SP5a SP2dh  1 4.100000e-01    3.550000e+00
  SP4a SP2dh  1 4.100000e-01    3.550000e+00
  SP3a SP2dh  1 4.100000e-01    3.550000e+00
  SP6q SP2dh  1 4.100000e-01    4.040000e+00
  SP5q SP2dh  1 4.100000e-01    3.820000e+00
  SP4q SP2dh  1 4.100000e-01    3.820000e+00
  SP3q SP2dh  1 4.100000e-01    3.820000e+00
  SP2q SP2dh  1 4.100000e-01    3.820000e+00
  SP1d SP1dh  1 4.100000e-01    2.840000e+00
  SP6a SP1dh  1 4.100000e-01    3.550000e+00
  SP5a SP1dh  1 4.100000e-01    3.310000e+00
  SP4a SP1dh  1 4.100000e-01    3.310000e+00
  SP3a SP1dh  1 4.100000e-01    3.310000e+00
  SP2a SP1dh  1 4.100000e-01    3.310000e+00
  SP6q SP1dh  1 4.100000e-01    3.820000e+00
  SP5q SP1dh  1 4.100000e-01    3.550000e+00
  SP4q SP1dh  1 4.100000e-01    3.550000e+00
  SP3q SP1dh  1 4.100000e-01    3.550000e+00
  SP2q SP1dh  1 4.100000e-01    3.550000e+00
  SP1q SP1dh  1 4.100000e-01    3.550000e+00
  SN6d SN6dh  1 4.100000e-01    2.840000e+00
  SP6a SN6dh  1 4.100000e-01    3.310000e+00
  SP5a SN6dh  1 4.100000e-01    3.070000e+00
  SP4a SN6dh  1 4.100000e-01    3.070000e+00
  SP3a SN6dh  1 4.100000e-01    3.070000e+00
  SP2a SN6dh  1 4.100000e-01    3.310000e+00
  SP1a SN6dh  1 4.100000e-01    3.310000e+00
  SP6q SN6dh  1 4.100000e-01    3.550000e+00
  SP5q SN6dh  1 4.100000e-01    3.310000e+00
  SP4q SN6dh  1 4.100000e-01    3.310000e+00
  SP3q SN6dh  1 4.100000e-01    3.310000e+00
  SP2q SN6dh  1 4.100000e-01    3.550000e+00
  SP1q SN6dh  1 4.100000e-01    3.550000e+00
  SN6q SN6dh  1 4.100000e-01    3.550000e+00
  SN5d SN5dh  1 4.100000e-01    2.600000e+00
  SP6a SN5dh  1 4.100000e-01    2.840000e+00
  SP5a SN5dh  1 4.100000e-01    2.840000e+00
  SP4a SN5dh  1 4.100000e-01    2.840000e+00
  SP3a SN5dh  1 4.100000e-01    2.840000e+00
  SP2a SN5dh  1 4.100000e-01    3.070000e+00
  SP1a SN5dh  1 4.100000e-01    3.070000e+00
  SN6a SN5dh  1 4.100000e-01    3.310000e+00
  SP6q SN5dh  1 4.100000e-01    3.070000e+00
  SP5q SN5dh  1 4.100000e-01    3.070000e+00
  SP4q SN5dh  1 4.100000e-01    3.070000e+00
  SP3q SN5dh  1 4.100000e-01    3.070000e+00
  SP2q SN5dh  1 4.100000e-01    3.310000e+00
  SP1q SN5dh  1 4.100000e-01    3.310000e+00
  SN6q SN5dh  1 4.100000e-01    3.550000e+00
  SN5q SN5dh  1 4.100000e-01    3.310000e+00
  SN4d SN4dh  1 4.100000e-01    2.600000e+00
  SP6a SN4dh  1 4.100000e-01    2.600000e+00
  SP5a SN4dh  1 4.100000e-01    2.840000e+00
  SP4a SN4dh  1 4.100000e-01    2.840000e+00
  SP3a SN4dh  1 4.100000e-01    2.840000e+00
  SP2a SN4dh  1 4.100000e-01    2.840000e+00
  SP1a SN4dh  1 4.100000e-01    3.070000e+00
  SN6a SN4dh  1 4.100000e-01    3.310000e+00
  SN5a SN4dh  1 4.100000e-01    3.070000e+00
  SP6q SN4dh  1 4.100000e-01    2.840000e+00
  SP5q SN4dh  1 4.100000e-01    3.070000e+00
  SP4q SN4dh  1 4.100000e-01    3.070000e+00
  SP3q SN4dh  1 4.100000e-01    3.070000e+00
  SP2q SN4dh  1 4.100000e-01    3.070000e+00
  SP1q SN4dh  1 4.100000e-01    3.310000e+00
  SN6q SN4dh  1 4.100000e-01    3.550000e+00
  SN5q SN4dh  1 4.100000e-01    3.310000e+00
  SN4q SN4dh  1 4.100000e-01    3.310000e+00
  SN3d SN3dh  1 4.100000e-01    2.350000e+00
  SP6a SN3dh  1 4.100000e-01    2.200000e+00
  SP5a SN3dh  1 4.100000e-01    2.200000e+00
  SP4a SN3dh  1 4.100000e-01    2.600000e+00
  SP3a SN3dh  1 4.100000e-01    2.600000e+00
  SP2a SN3dh  1 4.100000e-01    2.600000e+00
  SP1a SN3dh  1 4.100000e-01    2.600000e+00
  SN6a SN3dh  1 4.100000e-01    2.840000e+00
  SN5a SN3dh  1 4.100000e-01    2.840000e+00
  SN4a SN3dh  1 4.100000e-01    2.840000e+00
  SP6q SN3dh  1 4.100000e-01    2.600000e+00
  SP5q SN3dh  1 4.100000e-01    2.600000e+00
  SP4q SN3dh  1 4.100000e-01    2.840000e+00
  SP3q SN3dh  1 4.100000e-01    2.840000e+00
  SP2q SN3dh  1 4.100000e-01    2.840000e+00
  SP1q SN3dh  1 4.100000e-01    2.840000e+00
  SN6q SN3dh  1 4.100000e-01    3.070000e+00
  SN5q SN3dh  1 4.100000e-01    3.070000e+00
  SN4q SN3dh  1 4.100000e-01    3.070000e+00
  SN3q SN3dh  1 4.100000e-01    3.070000e+00
  SN2d SN2dh  1 4.100000e-01    2.350000e+00
  SP6a SN2dh  1 4.100000e-01    2.040000e+00
  SP5a SN2dh  1 4.100000e-01    2.040000e+00
  SP4a SN2dh  1 4.100000e-01    2.200000e+00
  SP3a SN2dh  1 4.100000e-01    2.600000e+00
  SP2a SN2dh  1 4.100000e-01    2.600000e+00
  SP1a SN2dh  1 4.100000e-01    2.600000e+00
  SN6a SN2dh  1 4.100000e-01    2.600000e+00
  SN5a SN2dh  1 4.100000e-01    2.840000e+00
  SN4a SN2dh  1 4.100000e-01    2.840000e+00
  SN3a SN2dh  1 4.100000e-01    2.840000e+00
  SP6q SN2dh  1 4.100000e-01    2.350000e+00
  SP5q SN2dh  1 4.100000e-01    2.350000e+00
  SP4q SN2dh  1 4.100000e-01    2.600000e+00
  SP3q SN2dh  1 4.100000e-01    2.840000e+00
  SP2q SN2dh  1 4.100000e-01    2.840000e+00
  SP1q SN2dh  1 4.100000e-01    2.840000e+00
  SN6q SN2dh  1 4.100000e-01    2.840000e+00
  SN5q SN2dh  1 4.100000e-01    3.070000e+00
  SN4q SN2dh  1 4.100000e-01    3.070000e+00
  SN3q SN2dh  1 4.100000e-01    3.070000e+00
  SN2q SN2dh  1 4.100000e-01    3.070000e+00
  SN1d SN1dh  1 4.100000e-01    2.350000e+00
  SP6a SN1dh  1 4.100000e-01    1.910000e+00
  SP5a SN1dh  1 4.100000e-01    1.910000e+00
  SP4a SN1dh  1 4.100000e-01    2.040000e+00
  SP3a SN1dh  1 4.100000e-01    2.200000e+00
  SP2a SN1dh  1 4.100000e-01    2.600000e+00
  SP1a SN1dh  1 4.100000e-01    2.600000e+00
  SN6a SN1dh  1 4.100000e-01    2.600000e+00
  SN5a SN1dh  1 4.100000e-01    2.600000e+00
  SN4a SN1dh  1 4.100000e-01    2.600000e+00
  SN3a SN1dh  1 4.100000e-01    2.600000e+00
  SN2a SN1dh  1 4.100000e-01    2.600000e+00
  SP6q SN1dh  1 4.100000e-01    2.200000e+00
  SP5q SN1dh  1 4.100000e-01    2.200000e+00
  SP4q SN1dh  1 4.100000e-01    2.350000e+00
  SP3q SN1dh  1 4.100000e-01    2.600000e+00
  SP2q SN1dh  1 4.100000e-01    2.840000e+00
  SP1q SN1dh  1 4.100000e-01    2.840000e+00
  SN6q SN1dh  1 4.100000e-01    2.840000e+00
  SN5q SN1dh  1 4.100000e-01    2.840000e+00
  SN4q SN1dh  1 4.100000e-01    2.840000e+00
  SN3q SN1dh  1 4.100000e-01    2.840000e+00
  SN2q SN1dh  1 4.100000e-01    2.840000e+00
  SN1q SN1dh  1 4.100000e-01    3.070000e+00
  SP6a SP6ah  1 4.100000e-01    4.040000e+00
  SP6q SP6ah  1 4.100000e-01    4.840000e+00
  SP5a SP5ah  1 4.100000e-01    3.550000e+00
  SP6q SP5ah  1 4.100000e-01    4.550000e+00
  SP5q SP5ah  1 4.100000e-01    4.290000e+00
  SP4a SP4ah  1 4.100000e-01    3.310000e+00
  SP6q SP4ah  1 4.100000e-01    4.290000e+00
  SP5q SP4ah  1 4.100000e-01    4.040000e+00
  SP4q SP4ah  1 4.100000e-01    4.040000e+00
  SP3a SP3ah  1 4.100000e-01    3.070000e+00
  SP6q SP3ah  1 4.100000e-01    4.040000e+00
  SP5q SP3ah  1 4.100000e-01    3.820000e+00
  SP4q SP3ah  1 4.100000e-01    3.820000e+00
  SP3q SP3ah  1 4.100000e-01    3.820000e+00
  SP2a SP2ah  1 4.100000e-01    3.070000e+00
  SP6q SP2ah  1 4.100000e-01    4.040000e+00
  SP5q SP2ah  1 4.100000e-01    3.820000e+00
  SP4q SP2ah  1 4.100000e-01    3.820000e+00
  SP3q SP2ah  1 4.100000e-01    3.820000e+00
  SP2q SP2ah  1 4.100000e-01    3.820000e+00
  SP1a SP1ah  1 4.100000e-01    2.840000e+00
  SP6q SP1ah  1 4.100000e-01    3.820000e+00
  SP5q SP1ah  1 4.100000e-01    3.550000e+00
  SP4q SP1ah  1 4.100000e-01    3.550000e+00
  SP3q SP1ah  1 4.100000e-01    3.550000e+00
  SP2q SP1ah  1 4.100000e-01    3.550000e+00
  SP1q SP1ah  1 4.100000e-01    3.550000e+00
  SN6a SN6ah  1 4.100000e-01    2.840000e+00
  SP6q SN6ah  1 4.100000e-01    3.550000e+00
  SP5q SN6ah  1 4.100000e-01    3.310000e+00
  SP4q SN6ah  1 4.100000e-01    3.310000e+00
  SP3q SN6ah  1 4.100000e-01    3.310000e+00
  SP2q SN6ah  1 4.100000e-01    3.550000e+00
  SP1q SN6ah  1 4.100000e-01    3.550000e+00
  SN6q SN6ah  1 4.100000e-01    3.550000e+00
  SN5a SN5ah  1 4.100000e-01    2.600000e+00
  SP6q SN5ah  1 4.100000e-01    3.070000e+00
  SP5q SN5ah  1 4.100000e-01    3.070000e+00
  SP4q SN5ah  1 4.100000e-01    3.070000e+00
  SP3q SN5ah  1 4.100000e-01    3.070000e+00
  SP2q SN5ah  1 4.100000e-01    3.310000e+00
  SP1q SN5ah  1 4.100000e-01    3.310000e+00
  SN6q SN5ah  1 4.100000e-01    3.550000e+00
  SN5q SN5ah  1 4.100000e-01    3.310000e+00
  SN4a SN4ah  1 4.100000e-01    2.600000e+00
  SP6q SN4ah  1 4.100000e-01    2.840000e+00
  SP5q SN4ah  1 4.100000e-01    3.070000e+00
  SP4q SN4ah  1 4.100000e-01    3.070000e+00
  SP3q SN4ah  1 4.100000e-01    3.070000e+00
  SP2q SN4ah  1 4.100000e-01    3.070000e+00
  SP1q SN4ah  1 4.100000e-01    3.310000e+00
  SN6q SN4ah  1 4.100000e-01    3.550000e+00
  SN5q SN4ah  1 4.100000e-01    3.310000e+00
  SN4q SN4ah  1 4.100000e-01    3.310000e+00
  SN3a SN3ah  1 4.100000e-01    2.350000e+00
  SP6q SN3ah  1 4.100000e-01    2.600000e+00
  SP5q SN3ah  1 4.100000e-01    2.600000e+00
  SP4q SN3ah  1 4.100000e-01    2.840000e+00
  SP3q SN3ah  1 4.100000e-01    2.840000e+00
  SP2q SN3ah  1 4.100000e-01    2.840000e+00
  SP1q SN3ah  1 4.100000e-01    2.840000e+00
  SN6q SN3ah  1 4.100000e-01    3.070000e+00
  SN5q SN3ah  1 4.100000e-01    3.070000e+00
  SN4q SN3ah  1 4.100000e-01    3.070000e+00
  SN3q SN3ah  1 4.100000e-01    3.070000e+00
  SN2a SN2ah  1 4.100000e-01    2.350000e+00
  SP6q SN2ah  1 4.100000e-01    2.350000e+00
  SP5q SN2ah  1 4.100000e-01    2.350000e+00
  SP4q SN2ah  1 4.100000e-01    2.600000e+00
  SP3q SN2ah  1 4.100000e-01    2.840000e+00
  SP2q SN2ah  1 4.100000e-01    2.840000e+00
  SP1q SN2ah  1 4.100000e-01    2.840000e+00
  SN6q SN2ah  1 4.100000e-01    2.840000e+00
  SN5q SN2ah  1 4.100000e-01    3.070000e+00
  SN4q SN2ah  1 4.100000e-01    3.070000e+00
  SN3q SN2ah  1 4.100000e-01    3.070000e+00
  SN2q SN2ah  1 4.100000e-01    3.070000e+00
  SN1a SN1ah  1 4.100000e-01    2.350000e+00
  SP6q SN1ah  1 4.100000e-01    2.200000e+00
  SP5q SN1ah  1 4.100000e-01    2.200000e+00
  SP4q SN1ah  1 4.100000e-01    2.350000e+00
  SP3q SN1ah  1 4.100000e-01    2.600000e+00
  SP2q SN1ah  1 4.100000e-01    2.840000e+00
  SP1q SN1ah  1 4.100000e-01    2.840000e+00
  SN6q SN1ah  1 4.100000e-01    2.840000e+00
  SN5q SN1ah  1 4.100000e-01    2.840000e+00
  SN4q SN1ah  1 4.100000e-01    2.840000e+00
  SN3q SN1ah  1 4.100000e-01    2.840000e+00
  SN2q SN1ah  1 4.100000e-01    2.840000e+00
  SN1q SN1ah  1 4.100000e-01    3.070000e+00
  SC6v SC6vh  1 4.100000e-01    2.350000e+00
  SP6q SC6vh  1 4.100000e-01    2.350000e+00
  SP5q SC6vh  1 4.100000e-01    2.350000e+00
  SP4q SC6vh  1 4.100000e-01    2.600000e+00
  SP3q SC6vh  1 4.100000e-01    2.840000e+00
  SP2q SC6vh  1 4.100000e-01    2.840000e+00
  SP1q SC6vh  1 4.100000e-01    2.840000e+00
  SN6q SC6vh  1 4.100000e-01    3.070000e+00
  SN5q SC6vh  1 4.100000e-01    3.070000e+00
  SN4q SC6vh  1 4.100000e-01    3.070000e+00
  SN3q SC6vh  1 4.100000e-01    3.070000e+00
  SN2q SC6vh  1 4.100000e-01    3.070000e+00
  SN1q SC6vh  1 4.100000e-01    3.310000e+00
  SC6q SC6vh  1 4.100000e-01    3.310000e+00
  SC5v SC5vh  1 4.100000e-01    2.200000e+00
  SC6e SC5vh  1 4.100000e-01    2.840000e+00
  SP6q SC5vh  1 4.100000e-01    2.200000e+00
  SP5q SC5vh  1 4.100000e-01    2.350000e+00
  SP4q SC5vh  1 4.100000e-01    2.350000e+00
  SP3q SC5vh  1 4.100000e-01    2.600000e+00
  SP2q SC5vh  1 4.100000e-01    2.600000e+00
  SP1q SC5vh  1 4.100000e-01    2.600000e+00
  SN6q SC5vh  1 4.100000e-01    2.840000e+00
  SN5q SC5vh  1 4.100000e-01    2.840000e+00
  SN4q SC5vh  1 4.100000e-01    2.840000e+00
  SN3q SC5vh  1 4.100000e-01    2.840000e+00
  SN2q SC5vh  1 4.100000e-01    2.840000e+00
  SN1q SC5vh  1 4.100000e-01    3.070000e+00
  SC6q SC5vh  1 4.100000e-01    3.070000e+00
  SC5q SC5vh  1 4.100000e-01    3.070000e+00
  SC4v SC4vh  1 4.100000e-01    2.200000e+00
  SC6e SC4vh  1 4.100000e-01    2.840000e+00
  SC5e SC4vh  1 4.100000e-01    2.840000e+00
  SP6q SC4vh  1 4.100000e-01    2.040000e+00
  SP5q SC4vh  1 4.100000e-01    2.200000e+00
  SP4q SC4vh  1 4.100000e-01    2.200000e+00
  SP3q SC4vh  1 4.100000e-01    2.350000e+00
  SP2q SC4vh  1 4.100000e-01    2.350000e+00
  SP1q SC4vh  1 4.100000e-01    2.350000e+00
  SN6q SC4vh  1 4.100000e-01    2.600000e+00
  SN5q SC4vh  1 4.100000e-01    2.600000e+00
  SN4q SC4vh  1 4.100000e-01    2.840000e+00
  SN3q SC4vh  1 4.100000e-01    2.840000e+00
  SN2q SC4vh  1 4.100000e-01    2.840000e+00
  SN1q SC4vh  1 4.100000e-01    3.070000e+00
  SC6q SC4vh  1 4.100000e-01    3.070000e+00
  SC5q SC4vh  1 4.100000e-01    3.070000e+00
  SC4q SC4vh  1 4.100000e-01    3.070000e+00
  SC3v SC3vh  1 4.100000e-01    2.200000e+00
  SC6e SC3vh  1 4.100000e-01    2.600000e+00
  SC5e SC3vh  1 4.100000e-01    2.600000e+00
  SC4e SC3vh  1 4.100000e-01    2.840000e+00
  SP6q SC3vh  1 4.100000e-01    1.910000e+00
  SP5q SC3vh  1 4.100000e-01    2.040000e+00
  SP4q SC3vh  1 4.100000e-01    2.040000e+00
  SP3q SC3vh  1 4.100000e-01    2.040000e+00
  SP2q SC3vh  1 4.100000e-01    2.200000e+00
  SP1q SC3vh  1 4.100000e-01    2.200000e+00
  SN6q SC3vh  1 4.100000e-01    2.350000e+00
  SN5q SC3vh  1 4.100000e-01    2.600000e+00
  SN4q SC3vh  1 4.100000e-01    2.600000e+00
  SN3q SC3vh  1 4.100000e-01    2.600000e+00
  SN2q SC3vh  1 4.100000e-01    2.840000e+00
  SN1q SC3vh  1 4.100000e-01    2.840000e+00
  SC6q SC3vh  1 4.100000e-01    2.840000e+00
  SC5q SC3vh  1 4.100000e-01    2.840000e+00
  SC4q SC3vh  1 4.100000e-01    3.070000e+00
  SC3q SC3vh  1 4.100000e-01    3.070000e+00
  SC2v SC2vh  1 4.100000e-01    2.200000e+00
  SC6e SC2vh  1 4.100000e-01    2.350000e+00
  SC5e SC2vh  1 4.100000e-01    2.350000e+00
  SC4e SC2vh  1 4.100000e-01    2.600000e+00
  SC3e SC2vh  1 4.100000e-01    2.840000e+00
  SP6q SC2vh  1 4.100000e-01    1.910000e+00
  SP5q SC2vh  1 4.100000e-01    2.040000e+00
  SP4q SC2vh  1 4.100000e-01    2.040000e+00
  SP3q SC2vh  1 4.100000e-01    2.040000e+00
  SP2q SC2vh  1 4.100000e-01    2.200000e+00
  SP1q SC2vh  1 4.100000e-01    2.200000e+00
  SN6q SC2vh  1 4.100000e-01    2.350000e+00
  SN5q SC2vh  1 4.100000e-01    2.350000e+00
  SN4q SC2vh  1 4.100000e-01    2.350000e+00
  SN3q SC2vh  1 4.100000e-01    2.600000e+00
  SN2q SC2vh  1 4.100000e-01    2.600000e+00
  SN1q SC2vh  1 4.100000e-01    2.600000e+00
  SC6q SC2vh  1 4.100000e-01    2.600000e+00
  SC5q SC2vh  1 4.100000e-01    2.600000e+00
  SC4q SC2vh  1 4.100000e-01    2.840000e+00
  SC3q SC2vh  1 4.100000e-01    3.070000e+00
  SC2q SC2vh  1 4.100000e-01    3.070000e+00
  SC1v SC1vh  1 4.100000e-01    2.200000e+00
  SC6e SC1vh  1 4.100000e-01    2.200000e+00
  SC5e SC1vh  1 4.100000e-01    2.350000e+00
  SC4e SC1vh  1 4.100000e-01    2.350000e+00
  SC3e SC1vh  1 4.100000e-01    2.840000e+00
  SC2e SC1vh  1 4.100000e-01    3.070000e+00
  SP6q SC1vh  1 4.140000e-01    1.560000e+00
  SP5q SC1vh  1 4.100000e-01    1.910000e+00
  SP4q SC1vh  1 4.100000e-01    1.910000e+00
  SP3q SC1vh  1 4.100000e-01    1.910000e+00
  SP2q SC1vh  1 4.100000e-01    2.040000e+00
  SP1q SC1vh  1 4.100000e-01    2.040000e+00
  SN6q SC1vh  1 4.100000e-01    2.200000e+00
  SN5q SC1vh  1 4.100000e-01    2.200000e+00
  SN4q SC1vh  1 4.100000e-01    2.200000e+00
  SN3q SC1vh  1 4.100000e-01    2.350000e+00
  SN2q SC1vh  1 4.100000e-01    2.350000e+00
  SN1q SC1vh  1 4.100000e-01    2.350000e+00
  SC6q SC1vh  1 4.100000e-01    2.350000e+00
  SC5q SC1vh  1 4.100000e-01    2.600000e+00
  SC4q SC1vh  1 4.100000e-01    2.600000e+00
  SC3q SC1vh  1 4.100000e-01    3.070000e+00
  SC2q SC1vh  1 4.100000e-01    3.310000e+00
  SC1q SC1vh  1 4.100000e-01    3.070000e+00
  SX4v SX4vh  1 4.100000e-01    2.200000e+00
  SC6e SX4vh  1 4.100000e-01    2.840000e+00
  SC5e SX4vh  1 4.100000e-01    2.600000e+00
  SC4e SX4vh  1 4.100000e-01    2.600000e+00
  SC3e SX4vh  1 4.100000e-01    2.600000e+00
  SC2e SX4vh  1 4.100000e-01    2.200000e+00
  SC1e SX4vh  1 4.100000e-01    2.200000e+00
  SP6q SX4vh  1 4.100000e-01    2.600000e+00
  SP5q SX4vh  1 4.100000e-01    2.840000e+00
  SP4q SX4vh  1 4.100000e-01    2.840000e+00
  SP3q SX4vh  1 4.100000e-01    2.840000e+00
  SP2q SX4vh  1 4.100000e-01    2.840000e+00
  SP1q SX4vh  1 4.100000e-01    2.840000e+00
  SN6q SX4vh  1 4.100000e-01    3.070000e+00
  SN5q SX4vh  1 4.100000e-01    3.310000e+00
  SN4q SX4vh  1 4.100000e-01    3.550000e+00
  SN3q SX4vh  1 4.100000e-01    3.310000e+00
  SN2q SX4vh  1 4.100000e-01    3.310000e+00
  SN1q SX4vh  1 4.100000e-01    3.070000e+00
  SC6q SX4vh  1 4.100000e-01    3.070000e+00
  SC5q SX4vh  1 4.100000e-01    2.840000e+00
  SC4q SX4vh  1 4.100000e-01    2.840000e+00
  SC3q SX4vh  1 4.100000e-01    2.840000e+00
  SC2q SX4vh  1 4.100000e-01    2.350000e+00
  SC1q SX4vh  1 4.100000e-01    2.350000e+00
  SX4q SX4vh  1 4.100000e-01    3.070000e+00
  SX3v SX3vh  1 4.100000e-01    2.200000e+00
  SC6e SX3vh  1 4.100000e-01    2.840000e+00
  SC5e SX3vh  1 4.100000e-01    2.600000e+00
  SC4e SX3vh  1 4.100000e-01    2.600000e+00
  SC3e SX3vh  1 4.100000e-01    2.600000e+00
  SC2e SX3vh  1 4.100000e-01    2.600000e+00
  SC1e SX3vh  1 4.100000e-01    2.600000e+00
  SX4e SX3vh  1 4.100000e-01    2.840000e+00
  SP6q SX3vh  1 4.100000e-01    2.600000e+00
  SP5q SX3vh  1 4.100000e-01    2.600000e+00
  SP4q SX3vh  1 4.100000e-01    2.600000e+00
  SP3q SX3vh  1 4.100000e-01    2.840000e+00
  SP2q SX3vh  1 4.100000e-01    2.840000e+00
  SP1q SX3vh  1 4.100000e-01    2.840000e+00
  SN6q SX3vh  1 4.100000e-01    2.840000e+00
  SN5q SX3vh  1 4.100000e-01    3.070000e+00
  SN4q SX3vh  1 4.100000e-01    3.310000e+00
  SN3q SX3vh  1 4.100000e-01    3.070000e+00
  SN2q SX3vh  1 4.100000e-01    3.070000e+00
  SN1q SX3vh  1 4.100000e-01    3.070000e+00
  SC6q SX3vh  1 4.100000e-01    3.070000e+00
  SC5q SX3vh  1 4.100000e-01    2.840000e+00
  SC4q SX3vh  1 4.100000e-01    2.840000e+00
  SC3q SX3vh  1 4.100000e-01    2.840000e+00
  SC2q SX3vh  1 4.100000e-01    2.840000e+00
  SC1q SX3vh  1 4.100000e-01    2.840000e+00
  SX4q SX3vh  1 4.100000e-01    3.070000e+00
  SX3q SX3vh  1 4.100000e-01    3.070000e+00
  SX2v SX2vh  1 4.100000e-01    2.350000e+00
  SC6e SX2vh  1 4.100000e-01    2.840000e+00
  SC5e SX2vh  1 4.100000e-01    2.600000e+00
  SC4e SX2vh  1 4.100000e-01    2.600000e+00
  SC3e SX2vh  1 4.100000e-01    2.600000e+00
  SC2e SX2vh  1 4.100000e-01    2.600000e+00
  SC1e SX2vh  1 4.100000e-01    2.600000e+00
  SX4e SX2vh  1 4.100000e-01    2.840000e+00
  SX3e SX2vh  1 4.100000e-01    3.070000e+00
  SP6q SX2vh  1 4.100000e-01    2.350000e+00
  SP5q SX2vh  1 4.100000e-01    2.600000e+00
  SP4q SX2vh  1 4.100000e-01    2.600000e+00
  SP3q SX2vh  1 4.100000e-01    2.600000e+00
  SP2q SX2vh  1 4.100000e-01    2.600000e+00
  SP1q SX2vh  1 4.100000e-01    2.600000e+00
  SN6q SX2vh  1 4.100000e-01    2.600000e+00
  SN5q SX2vh  1 4.100000e-01    2.840000e+00
  SN4q SX2vh  1 4.100000e-01    2.840000e+00
  SN3q SX2vh  1 4.100000e-01    2.840000e+00
  SN2q SX2vh  1 4.100000e-01    2.840000e+00
  SN1q SX2vh  1 4.100000e-01    2.840000e+00
  SC6q SX2vh  1 4.100000e-01    3.070000e+00
  SC5q SX2vh  1 4.100000e-01    2.840000e+00
  SC4q SX2vh  1 4.100000e-01    2.840000e+00
  SC3q SX2vh  1 4.100000e-01    2.840000e+00
  SC2q SX2vh  1 4.100000e-01    2.840000e+00
  SC1q SX2vh  1 4.100000e-01    2.840000e+00
  SX4q SX2vh  1 4.100000e-01    3.070000e+00
  SX3q SX2vh  1 4.100000e-01    3.310000e+00
  SX2q SX2vh  1 4.100000e-01    3.310000e+00
  SX1v SX1vh  1 4.100000e-01    2.600000e+00
  SC6e SX1vh  1 4.100000e-01    2.840000e+00
  SC5e SX1vh  1 4.100000e-01    2.840000e+00
  SC4e SX1vh  1 4.100000e-01    2.840000e+00
  SC3e SX1vh  1 4.100000e-01    2.840000e+00
  SC2e SX1vh  1 4.100000e-01    2.600000e+00
  SC1e SX1vh  1 4.100000e-01    2.600000e+00
  SX4e SX1vh  1 4.100000e-01    2.840000e+00
  SX3e SX1vh  1 4.100000e-01    3.070000e+00
  SX2e SX1vh  1 4.100000e-01    3.070000e+00
  SP6q SX1vh  1 4.100000e-01    2.200000e+00
  SP5q SX1vh  1 4.100000e-01    2.200000e+00
  SP4q SX1vh  1 4.100000e-01    2.350000e+00
  SP3q SX1vh  1 4.100000e-01    2.350000e+00
  SP2q SX1vh  1 4.100000e-01    2.350000e+00
  SP1q SX1vh  1 4.100000e-01    2.350000e+00
  SN6q SX1vh  1 4.100000e-01    2.350000e+00
  SN5q SX1vh  1 4.100000e-01    2.600000e+00
  SN4q SX1vh  1 4.100000e-01    2.600000e+00
  SN3q SX1vh  1 4.100000e-01    2.840000e+00
  SN2q SX1vh  1 4.100000e-01    2.840000e+00
  SN1q SX1vh  1 4.100000e-01    2.840000e+00
  SC6q SX1vh  1 4.100000e-01    3.070000e+00
  SC5q SX1vh  1 4.100000e-01    3.070000e+00
  SC4q SX1vh  1 4.100000e-01    3.070000e+00
  SC3q SX1vh  1 4.100000e-01    3.070000e+00
  SC2q SX1vh  1 4.100000e-01    2.840000e+00
  SC1q SX1vh  1 4.100000e-01    2.840000e+00
  SX4q SX1vh  1 4.100000e-01    3.070000e+00
  SX3q SX1vh  1 4.100000e-01    3.310000e+00
  SX2q SX1vh  1 4.100000e-01    3.310000e+00
  SX1q SX1vh  1 4.100000e-01    3.550000e+00
  SC6e SC6eh  1 4.100000e-01    2.350000e+00
  SP6q SC6eh  1 4.100000e-01    2.350000e+00
  SP5q SC6eh  1 4.100000e-01    2.350000e+00
  SP4q SC6eh  1 4.100000e-01    2.600000e+00
  SP3q SC6eh  1 4.100000e-01    2.840000e+00
  SP2q SC6eh  1 4.100000e-01    2.840000e+00
  SP1q SC6eh  1 4.100000e-01    2.840000e+00
  SN6q SC6eh  1 4.100000e-01    3.070000e+00
  SN5q SC6eh  1 4.100000e-01    3.070000e+00
  SN4q SC6eh  1 4.100000e-01    3.070000e+00
  SN3q SC6eh  1 4.100000e-01    3.070000e+00
  SN2q SC6eh  1 4.100000e-01    3.070000e+00
  SN1q SC6eh  1 4.100000e-01    3.310000e+00
  SC6q SC6eh  1 4.100000e-01    3.310000e+00
  SC5e SC5eh  1 4.100000e-01    2.200000e+00
  SP6q SC5eh  1 4.100000e-01    2.200000e+00
  SP5q SC5eh  1 4.100000e-01    2.350000e+00
  SP4q SC5eh  1 4.100000e-01    2.350000e+00
  SP3q SC5eh  1 4.100000e-01    2.600000e+00
  SP2q SC5eh  1 4.100000e-01    2.600000e+00
  SP1q SC5eh  1 4.100000e-01    2.600000e+00
  SN6q SC5eh  1 4.100000e-01    2.840000e+00
  SN5q SC5eh  1 4.100000e-01    2.840000e+00
  SN4q SC5eh  1 4.100000e-01    2.840000e+00
  SN3q SC5eh  1 4.100000e-01    2.840000e+00
  SN2q SC5eh  1 4.100000e-01    2.840000e+00
  SN1q SC5eh  1 4.100000e-01    3.070000e+00
  SC6q SC5eh  1 4.100000e-01    3.070000e+00
  SC5q SC5eh  1 4.100000e-01    3.070000e+00
  SC4e SC4eh  1 4.100000e-01    2.200000e+00
  SP6q SC4eh  1 4.100000e-01    2.040000e+00
  SP5q SC4eh  1 4.100000e-01    2.200000e+00
  SP4q SC4eh  1 4.100000e-01    2.200000e+00
  SP3q SC4eh  1 4.100000e-01    2.350000e+00
  SP2q SC4eh  1 4.100000e-01    2.350000e+00
  SP1q SC4eh  1 4.100000e-01    2.350000e+00
  SN6q SC4eh  1 4.100000e-01    2.600000e+00
  SN5q SC4eh  1 4.100000e-01    2.600000e+00
  SN4q SC4eh  1 4.100000e-01    2.840000e+00
  SN3q SC4eh  1 4.100000e-01    2.840000e+00
  SN2q SC4eh  1 4.100000e-01    2.840000e+00
  SN1q SC4eh  1 4.100000e-01    3.070000e+00
  SC6q SC4eh  1 4.100000e-01    3.070000e+00
  SC5q SC4eh  1 4.100000e-01    3.070000e+00
  SC4q SC4eh  1 4.100000e-01    3.070000e+00
  SC3e SC3eh  1 4.100000e-01    2.200000e+00
  SP6q SC3eh  1 4.100000e-01    1.910000e+00
  SP5q SC3eh  1 4.100000e-01    2.040000e+00
  SP4q SC3eh  1 4.100000e-01    2.040000e+00
  SP3q SC3eh  1 4.100000e-01    2.040000e+00
  SP2q SC3eh  1 4.100000e-01    2.200000e+00
  SP1q SC3eh  1 4.100000e-01    2.200000e+00
  SN6q SC3eh  1 4.100000e-01    2.350000e+00
  SN5q SC3eh  1 4.100000e-01    2.600000e+00
  SN4q SC3eh  1 4.100000e-01    2.600000e+00
  SN3q SC3eh  1 4.100000e-01    2.600000e+00
  SN2q SC3eh  1 4.100000e-01    2.840000e+00
  SN1q SC3eh  1 4.100000e-01    2.840000e+00
  SC6q SC3eh  1 4.100000e-01    2.840000e+00
  SC5q SC3eh  1 4.100000e-01    2.840000e+00
  SC4q SC3eh  1 4.100000e-01    3.070000e+00
  SC3q SC3eh  1 4.100000e-01    3.070000e+00
  SC2e SC2eh  1 4.100000e-01    2.200000e+00
  SP6q SC2eh  1 4.100000e-01    1.910000e+00
  SP5q SC2eh  1 4.100000e-01    2.040000e+00
  SP4q SC2eh  1 4.100000e-01    2.040000e+00
  SP3q SC2eh  1 4.100000e-01    2.040000e+00
  SP2q SC2eh  1 4.100000e-01    2.200000e+00
  SP1q SC2eh  1 4.100000e-01    2.200000e+00
  SN6q SC2eh  1 4.100000e-01    2.350000e+00
  SN5q SC2eh  1 4.100000e-01    2.350000e+00
  SN4q SC2eh  1 4.100000e-01    2.350000e+00
  SN3q SC2eh  1 4.100000e-01    2.600000e+00
  SN2q SC2eh  1 4.100000e-01    2.600000e+00
  SN1q SC2eh  1 4.100000e-01    2.600000e+00
  SC6q SC2eh  1 4.100000e-01    2.600000e+00
  SC5q SC2eh  1 4.100000e-01    2.600000e+00
  SC4q SC2eh  1 4.100000e-01    2.840000e+00
  SC3q SC2eh  1 4.100000e-01    3.070000e+00
  SC2q SC2eh  1 4.100000e-01    3.070000e+00
  SC1e SC1eh  1 4.100000e-01    2.200000e+00
  SP6q SC1eh  1 4.140000e-01    1.560000e+00
  SP5q SC1eh  1 4.100000e-01    1.910000e+00
  SP4q SC1eh  1 4.100000e-01    1.910000e+00
  SP3q SC1eh  1 4.100000e-01    1.910000e+00
  SP2q SC1eh  1 4.100000e-01    2.040000e+00
  SP1q SC1eh  1 4.100000e-01    2.040000e+00
  SN6q SC1eh  1 4.100000e-01    2.200000e+00
  SN5q SC1eh  1 4.100000e-01    2.200000e+00
  SN4q SC1eh  1 4.100000e-01    2.200000e+00
  SN3q SC1eh  1 4.100000e-01    2.350000e+00
  SN2q SC1eh  1 4.100000e-01    2.350000e+00
  SN1q SC1eh  1 4.100000e-01    2.350000e+00
  SC6q SC1eh  1 4.100000e-01    2.350000e+00
  SC5q SC1eh  1 4.100000e-01    2.600000e+00
  SC4q SC1eh  1 4.100000e-01    2.600000e+00
  SC3q SC1eh  1 4.100000e-01    3.070000e+00
  SC2q SC1eh  1 4.100000e-01    3.310000e+00
  SC1q SC1eh  1 4.100000e-01    3.070000e+00
  SX4e SX4eh  1 4.100000e-01    2.200000e+00
  SP6q SX4eh  1 4.100000e-01    2.600000e+00
  SP5q SX4eh  1 4.100000e-01    2.840000e+00
  SP4q SX4eh  1 4.100000e-01    2.840000e+00
  SP3q SX4eh  1 4.100000e-01    2.840000e+00
  SP2q SX4eh  1 4.100000e-01    2.840000e+00
  SP1q SX4eh  1 4.100000e-01    2.840000e+00
  SN6q SX4eh  1 4.100000e-01    3.070000e+00
  SN5q SX4eh  1 4.100000e-01    3.310000e+00
  SN4q SX4eh  1 4.100000e-01    3.550000e+00
  SN3q SX4eh  1 4.100000e-01    3.310000e+00
  SN2q SX4eh  1 4.100000e-01    3.310000e+00
  SN1q SX4eh  1 4.100000e-01    3.070000e+00
  SC6q SX4eh  1 4.100000e-01    3.070000e+00
  SC5q SX4eh  1 4.100000e-01    2.840000e+00
  SC4q SX4eh  1 4.100000e-01    2.840000e+00
  SC3q SX4eh  1 4.100000e-01    2.840000e+00
  SC2q SX4eh  1 4.100000e-01    2.350000e+00
  SC1q SX4eh  1 4.100000e-01    2.350000e+00
  SX4q SX4eh  1 4.100000e-01    3.070000e+00
  SX3e SX3eh  1 4.100000e-01    2.200000e+00
  SP6q SX3eh  1 4.100000e-01    2.600000e+00
  SP5q SX3eh  1 4.100000e-01    2.600000e+00
  SP4q SX3eh  1 4.100000e-01    2.600000e+00
  SP3q SX3eh  1 4.100000e-01    2.840000e+00
  SP2q SX3eh  1 4.100000e-01    2.840000e+00
  SP1q SX3eh  1 4.100000e-01    2.840000e+00
  SN6q SX3eh  1 4.100000e-01    2.840000e+00
  SN5q SX3eh  1 4.100000e-01    3.070000e+00
  SN4q SX3eh  1 4.100000e-01    3.310000e+00
  SN3q SX3eh  1 4.100000e-01    3.070000e+00
  SN2q SX3eh  1 4.100000e-01    3.070000e+00
  SN1q SX3eh  1 4.100000e-01    3.070000e+00
  SC6q SX3eh  1 4.100000e-01    3.070000e+00
  SC5q SX3eh  1 4.100000e-01    2.840000e+00
  SC4q SX3eh  1 4.100000e-01    2.840000e+00
  SC3q SX3eh  1 4.100000e-01    2.840000e+00
  SC2q SX3eh  1 4.100000e-01    2.840000e+00
  SC1q SX3eh  1 4.100000e-01    2.840000e+00
  SX4q SX3eh  1 4.100000e-01    3.070000e+00
  SX3q SX3eh  1 4.100000e-01    3.070000e+00
  SX2e SX2eh  1 4.100000e-01    2.350000e+00
  SP6q SX2eh  1 4.100000e-01    2.350000e+00
  SP5q SX2eh  1 4.100000e-01    2.600000e+00
  SP4q SX2eh  1 4.100000e-01    2.600000e+00
  SP3q SX2eh  1 4.100000e-01    2.600000e+00
  SP2q SX2eh  1 4.100000e-01    2.600000e+00
  SP1q SX2eh  1 4.100000e-01    2.600000e+00
  SN6q SX2eh  1 4.100000e-01    2.600000e+00
  SN5q SX2eh  1 4.100000e-01    2.840000e+00
  SN4q SX2eh  1 4.100000e-01    2.840000e+00
  SN3q SX2eh  1 4.100000e-01    2.840000e+00
  SN2q SX2eh  1 4.100000e-01    2.840000e+00
  SN1q SX2eh  1 4.100000e-01    2.840000e+00
  SC6q SX2eh  1 4.100000e-01    3.070000e+00
  SC5q SX2eh  1 4.100000e-01    2.840000e+00
  SC4q SX2eh  1 4.100000e-01    2.840000e+00
  SC3q SX2eh  1 4.100000e-01    2.840000e+00
  SC2q SX2eh  1 4.100000e-01    2.840000e+00
  SC1q SX2eh  1 4.100000e-01    2.840000e+00
  SX4q SX2eh  1 4.100000e-01    3.070000e+00
  SX3q SX2eh  1 4.100000e-01    3.310000e+00
  SX2q SX2eh  1 4.100000e-01    3.310000e+00
  SX1e SX1eh  1 4.100000e-01    2.600000e+00
  SP6q SX1eh  1 4.100000e-01    2.200000e+00
  SP5q SX1eh  1 4.100000e-01    2.200000e+00
  SP4q SX1eh  1 4.100000e-01    2.350000e+00
  SP3q SX1eh  1 4.100000e-01    2.350000e+00
  SP2q SX1eh  1 4.100000e-01    2.350000e+00
  SP1q SX1eh  1 4.100000e-01    2.350000e+00
  SN6q SX1eh  1 4.100000e-01    2.350000e+00
  SN5q SX1eh  1 4.100000e-01    2.600000e+00
  SN4q SX1eh  1 4.100000e-01    2.600000e+00
  SN3q SX1eh  1 4.100000e-01    2.840000e+00
  SN2q SX1eh  1 4.100000e-01    2.840000e+00
  SN1q SX1eh  1 4.100000e-01    2.840000e+00
  SC6q SX1eh  1 4.100000e-01    3.070000e+00
  SC5q SX1eh  1 4.100000e-01    3.070000e+00
  SC4q SX1eh  1 4.100000e-01    3.070000e+00
  SC3q SX1eh  1 4.100000e-01    3.070000e+00
  SC2q SX1eh  1 4.100000e-01    2.840000e+00
  SC1q SX1eh  1 4.100000e-01    2.840000e+00
  SX4q SX1eh  1 4.100000e-01    3.070000e+00
  SX3q SX1eh  1 4.100000e-01    3.310000e+00
  SX2q SX1eh  1 4.100000e-01    3.310000e+00
  SX1q SX1eh  1 4.100000e-01    3.550000e+00
  SC6e SX1eh  1 4.100000e-01    2.200000e+00
  SC5e SX1eh  1 4.100000e-01    2.200000e+00
  SC4e SX1eh  1 4.100000e-01    2.200000e+00
  SC3e SX1eh  1 4.100000e-01    2.200000e+00
  SC2e SX1eh  1 4.100000e-01    2.040000e+00
  SC1e SX1eh  1 4.100000e-01    2.040000e+00
  SX4e SX1eh  1 4.100000e-01    2.200000e+00
  SX3e SX1eh  1 4.100000e-01    2.350000e+00
  SX2e SX1eh  1 4.100000e-01    2.350000e+00
  SC6v SX1eh  1 4.100000e-01    2.840000e+00
  SC5v SX1eh  1 4.100000e-01    2.840000e+00
  SC4v SX1eh  1 4.100000e-01    2.840000e+00
  SC3v SX1eh  1 4.100000e-01    2.840000e+00
  SC2v SX1eh  1 4.100000e-01    2.600000e+00
  SC1v SX1eh  1 4.100000e-01    2.600000e+00
  SX4v SX1eh  1 4.100000e-01    2.840000e+00
  SX3v SX1eh  1 4.100000e-01    3.070000e+00
  SX2v SX1eh  1 4.100000e-01    3.070000e+00
  SX1v SX1eh  1 4.100000e-01    3.310000e+00
  SP6d SX1eh  1 4.100000e-01    1.910000e+00
  SP5d SX1eh  1 4.100000e-01    1.910000e+00
  SP4d SX1eh  1 4.100000e-01    2.040000e+00
  SP3d SX1eh  1 4.100000e-01    2.040000e+00
  SP2d SX1eh  1 4.100000e-01    2.040000e+00
  SP1d SX1eh  1 4.100000e-01    2.040000e+00
  SN6d SX1eh  1 4.100000e-01    2.040000e+00
  SN5d SX1eh  1 4.100000e-01    2.200000e+00
  SN4d SX1eh  1 4.100000e-01    2.200000e+00
  SN3d SX1eh  1 4.100000e-01    2.350000e+00
  SN2d SX1eh  1 4.100000e-01    2.350000e+00
  SN1d SX1eh  1 4.100000e-01    2.350000e+00
  SP6a SX1eh  1 4.140000e-01    1.560000e+00
  SP5a SX1eh  1 4.140000e-01    1.560000e+00
  SP4a SX1eh  1 4.100000e-01    1.750000e+00
  SP3a SX1eh  1 4.100000e-01    1.750000e+00
  SP2a SX1eh  1 4.100000e-01    1.750000e+00
  SP1a SX1eh  1 4.100000e-01    1.750000e+00
  SN6a SX1eh  1 4.100000e-01    1.750000e+00
  SN5a SX1eh  1 4.100000e-01    1.910000e+00
  SN4a SX1eh  1 4.100000e-01    1.910000e+00
  SN3a SX1eh  1 4.100000e-01    2.040000e+00
  SN2a SX1eh  1 4.100000e-01    2.040000e+00
  SN1a SX1eh  1 4.100000e-01    2.040000e+00
  SC6e SX2eh  1 4.100000e-01    2.200000e+00
  SC5e SX2eh  1 4.100000e-01    2.040000e+00
  SC4e SX2eh  1 4.100000e-01    2.040000e+00
  SC3e SX2eh  1 4.100000e-01    2.040000e+00
  SC2e SX2eh  1 4.100000e-01    2.040000e+00
  SC1e SX2eh  1 4.100000e-01    2.040000e+00
  SX4e SX2eh  1 4.100000e-01    2.200000e+00
  SX3e SX2eh  1 4.100000e-01    2.350000e+00
  SC6v SX2eh  1 4.100000e-01    2.840000e+00
  SC5v SX2eh  1 4.100000e-01    2.600000e+00
  SC4v SX2eh  1 4.100000e-01    2.600000e+00
  SC3v SX2eh  1 4.100000e-01    2.600000e+00
  SC2v SX2eh  1 4.100000e-01    2.600000e+00
  SC1v SX2eh  1 4.100000e-01    2.600000e+00
  SX4v SX2eh  1 4.100000e-01    2.840000e+00
  SX3v SX2eh  1 4.100000e-01    3.070000e+00
  SX2v SX2eh  1 4.100000e-01    3.070000e+00
  SP6d SX2eh  1 4.100000e-01    2.040000e+00
  SP5d SX2eh  1 4.100000e-01    2.200000e+00
  SP4d SX2eh  1 4.100000e-01    2.200000e+00
  SP3d SX2eh  1 4.100000e-01    2.200000e+00
  SP2d SX2eh  1 4.100000e-01    2.200000e+00
  SP1d SX2eh  1 4.100000e-01    2.200000e+00
  SN6d SX2eh  1 4.100000e-01    2.200000e+00
  SN5d SX2eh  1 4.100000e-01    2.350000e+00
  SN4d SX2eh  1 4.100000e-01    2.350000e+00
  SN3d SX2eh  1 4.100000e-01    2.350000e+00
  SN2d SX2eh  1 4.100000e-01    2.350000e+00
  SN1d SX2eh  1 4.100000e-01    2.350000e+00
  SP6a SX2eh  1 4.100000e-01    1.750000e+00
  SP5a SX2eh  1 4.100000e-01    1.910000e+00
  SP4a SX2eh  1 4.100000e-01    1.910000e+00
  SP3a SX2eh  1 4.100000e-01    1.910000e+00
  SP2a SX2eh  1 4.100000e-01    1.910000e+00
  SP1a SX2eh  1 4.100000e-01    1.910000e+00
  SN6a SX2eh  1 4.100000e-01    1.910000e+00
  SN5a SX2eh  1 4.100000e-01    2.040000e+00
  SN4a SX2eh  1 4.100000e-01    2.040000e+00
  SN3a SX2eh  1 4.100000e-01    2.040000e+00
  SN2a SX2eh  1 4.100000e-01    2.040000e+00
  SN1a SX2eh  1 4.100000e-01    2.040000e+00
  SC6e SX3eh  1 4.100000e-01    2.200000e+00
  SC5e SX3eh  1 4.100000e-01    2.040000e+00
  SC4e SX3eh  1 4.100000e-01    2.040000e+00
  SC3e SX3eh  1 4.100000e-01    2.040000e+00
  SC2e SX3eh  1 4.100000e-01    2.040000e+00
  SC1e SX3eh  1 4.100000e-01    2.040000e+00
  SX4e SX3eh  1 4.100000e-01    2.200000e+00
  SC6v SX3eh  1 4.100000e-01    2.840000e+00
  SC5v SX3eh  1 4.100000e-01    2.600000e+00
  SC4v SX3eh  1 4.100000e-01    2.600000e+00
  SC3v SX3eh  1 4.100000e-01    2.600000e+00
  SC2v SX3eh  1 4.100000e-01    2.600000e+00
  SC1v SX3eh  1 4.100000e-01    2.600000e+00
  SX4v SX3eh  1 4.100000e-01    2.840000e+00
  SX3v SX3eh  1 4.100000e-01    2.840000e+00
  SP6d SX3eh  1 4.100000e-01    2.200000e+00
  SP5d SX3eh  1 4.100000e-01    2.200000e+00
  SP4d SX3eh  1 4.100000e-01    2.200000e+00
  SP3d SX3eh  1 4.100000e-01    2.350000e+00
  SP2d SX3eh  1 4.100000e-01    2.350000e+00
  SP1d SX3eh  1 4.100000e-01    2.350000e+00
  SN6d SX3eh  1 4.100000e-01    2.350000e+00
  SN5d SX3eh  1 4.100000e-01    2.600000e+00
  SN4d SX3eh  1 4.100000e-01    2.840000e+00
  SN3d SX3eh  1 4.100000e-01    2.600000e+00
  SN2d SX3eh  1 4.100000e-01    2.600000e+00
  SN1d SX3eh  1 4.100000e-01    2.600000e+00
  SP6a SX3eh  1 4.100000e-01    1.910000e+00
  SP5a SX3eh  1 4.100000e-01    1.910000e+00
  SP4a SX3eh  1 4.100000e-01    1.910000e+00
  SP3a SX3eh  1 4.100000e-01    2.040000e+00
  SP2a SX3eh  1 4.100000e-01    2.040000e+00
  SP1a SX3eh  1 4.100000e-01    2.040000e+00
  SN6a SX3eh  1 4.100000e-01    2.040000e+00
  SN5a SX3eh  1 4.100000e-01    2.200000e+00
  SN4a SX3eh  1 4.100000e-01    2.350000e+00
  SN3a SX3eh  1 4.100000e-01    2.200000e+00
  SN2a SX3eh  1 4.100000e-01    2.200000e+00
  SN1a SX3eh  1 4.100000e-01    2.200000e+00
  SC6e SX4eh  1 4.100000e-01    2.200000e+00
  SC5e SX4eh  1 4.100000e-01    2.040000e+00
  SC4e SX4eh  1 4.100000e-01    2.040000e+00
  SC3e SX4eh  1 4.100000e-01    2.040000e+00
  SC2e SX4eh  1 4.100000e-01    1.750000e+00
  SC1e SX4eh  1 4.100000e-01    1.750000e+00
  SC6v SX4eh  1 4.100000e-01    2.840000e+00
  SC5v SX4eh  1 4.100000e-01    2.600000e+00
  SC4v SX4eh  1 4.100000e-01    2.600000e+00
  SC3v SX4eh  1 4.100000e-01    2.600000e+00
  SC2v SX4eh  1 4.100000e-01    2.200000e+00
  SC1v SX4eh  1 4.100000e-01    2.200000e+00
  SX4v SX4eh  1 4.100000e-01    2.840000e+00
  SP6d SX4eh  1 4.100000e-01    2.200000e+00
  SP5d SX4eh  1 4.100000e-01    2.350000e+00
  SP4d SX4eh  1 4.100000e-01    2.350000e+00
  SP3d SX4eh  1 4.100000e-01    2.350000e+00
  SP2d SX4eh  1 4.100000e-01    2.350000e+00
  SP1d SX4eh  1 4.100000e-01    2.350000e+00
  SN6d SX4eh  1 4.100000e-01    2.600000e+00
  SN5d SX4eh  1 4.100000e-01    2.840000e+00
  SN4d SX4eh  1 4.100000e-01    3.070000e+00
  SN3d SX4eh  1 4.100000e-01    2.840000e+00
  SN2d SX4eh  1 4.100000e-01    2.840000e+00
  SN1d SX4eh  1 4.100000e-01    2.600000e+00
  SP6a SX4eh  1 4.100000e-01    1.910000e+00
  SP5a SX4eh  1 4.100000e-01    2.040000e+00
  SP4a SX4eh  1 4.100000e-01    2.040000e+00
  SP3a SX4eh  1 4.100000e-01    2.040000e+00
  SP2a SX4eh  1 4.100000e-01    2.040000e+00
  SP1a SX4eh  1 4.100000e-01    2.040000e+00
  SN6a SX4eh  1 4.100000e-01    2.200000e+00
  SN5a SX4eh  1 4.100000e-01    2.350000e+00
  SN4a SX4eh  1 4.100000e-01    2.600000e+00
  SN3a SX4eh  1 4.100000e-01    2.350000e+00
  SN2a SX4eh  1 4.100000e-01    2.350000e+00
  SN1a SX4eh  1 4.100000e-01    2.200000e+00
  SC6e SC1eh  1 4.100000e-01    1.750000e+00
  SC5e SC1eh  1 4.100000e-01    1.910000e+00
  SC4e SC1eh  1 4.100000e-01    1.910000e+00
  SC3e SC1eh  1 4.100000e-01    2.200000e+00
  SC2e SC1eh  1 4.100000e-01    2.350000e+00
  SC6v SC1eh  1 4.100000e-01    2.200000e+00
  SC5v SC1eh  1 4.100000e-01    2.350000e+00
  SC4v SC1eh  1 4.100000e-01    2.350000e+00
  SC3v SC1eh  1 4.100000e-01    2.840000e+00
  SC2v SC1eh  1 4.100000e-01    3.070000e+00
  SC1v SC1eh  1 4.100000e-01    2.840000e+00
  SP6d SC1eh  1 4.210000e-01    1.250000e+00
  SP5d SC1eh  1 4.140000e-01    1.560000e+00
  SP4d SC1eh  1 4.140000e-01    1.560000e+00
  SP3d SC1eh  1 4.140000e-01    1.560000e+00
  SP2d SC1eh  1 4.100000e-01    1.750000e+00
  SP1d SC1eh  1 4.100000e-01    1.750000e+00
  SN6d SC1eh  1 4.100000e-01    1.910000e+00
  SN5d SC1eh  1 4.100000e-01    1.910000e+00
  SN4d SC1eh  1 4.100000e-01    1.910000e+00
  SN3d SC1eh  1 4.100000e-01    2.040000e+00
  SN2d SC1eh  1 4.100000e-01    2.040000e+00
  SN1d SC1eh  1 4.100000e-01    2.040000e+00
  SP6a SC1eh  1 4.960000e-01    1.050000e+00
  SP5a SC1eh  1 4.210000e-01    1.250000e+00
  SP4a SC1eh  1 4.210000e-01    1.250000e+00
  SP3a SC1eh  1 4.210000e-01    1.250000e+00
  SP2a SC1eh  1 4.180000e-01    1.400000e+00
  SP1a SC1eh  1 4.180000e-01    1.400000e+00
  SN6a SC1eh  1 4.140000e-01    1.560000e+00
  SN5a SC1eh  1 4.140000e-01    1.560000e+00
  SN4a SC1eh  1 4.140000e-01    1.560000e+00
  SN3a SC1eh  1 4.100000e-01    1.750000e+00
  SN2a SC1eh  1 4.100000e-01    1.750000e+00
  SN1a SC1eh  1 4.100000e-01    1.750000e+00
  SC6e SC2eh  1 4.100000e-01    1.910000e+00
  SC5e SC2eh  1 4.100000e-01    1.910000e+00
  SC4e SC2eh  1 4.100000e-01    2.040000e+00
  SC3e SC2eh  1 4.100000e-01    2.200000e+00
  SC6v SC2eh  1 4.100000e-01    2.350000e+00
  SC5v SC2eh  1 4.100000e-01    2.350000e+00
  SC4v SC2eh  1 4.100000e-01    2.600000e+00
  SC3v SC2eh  1 4.100000e-01    2.840000e+00
  SC2v SC2eh  1 4.100000e-01    2.840000e+00
  SP6d SC2eh  1 4.140000e-01    1.560000e+00
  SP5d SC2eh  1 4.100000e-01    1.750000e+00
  SP4d SC2eh  1 4.100000e-01    1.750000e+00
  SP3d SC2eh  1 4.100000e-01    1.750000e+00
  SP2d SC2eh  1 4.100000e-01    1.910000e+00
  SP1d SC2eh  1 4.100000e-01    1.910000e+00
  SN6d SC2eh  1 4.100000e-01    2.040000e+00
  SN5d SC2eh  1 4.100000e-01    2.040000e+00
  SN4d SC2eh  1 4.100000e-01    2.040000e+00
  SN3d SC2eh  1 4.100000e-01    2.200000e+00
  SN2d SC2eh  1 4.100000e-01    2.200000e+00
  SN1d SC2eh  1 4.100000e-01    2.200000e+00
  SP6a SC2eh  1 4.210000e-01    1.250000e+00
  SP5a SC2eh  1 4.180000e-01    1.400000e+00
  SP4a SC2eh  1 4.180000e-01    1.400000e+00
  SP3a SC2eh  1 4.180000e-01    1.400000e+00
  SP2a SC2eh  1 4.140000e-01    1.560000e+00
  SP1a SC2eh  1 4.140000e-01    1.560000e+00
  SN6a SC2eh  1 4.100000e-01    1.750000e+00
  SN5a SC2eh  1 4.100000e-01    1.750000e+00
  SN4a SC2eh  1 4.100000e-01    1.750000e+00
  SN3a SC2eh  1 4.100000e-01    1.910000e+00
  SN2a SC2eh  1 4.100000e-01    1.910000e+00
  SN1a SC2eh  1 4.100000e-01    1.910000e+00
  SC6e SC3eh  1 4.100000e-01    2.040000e+00
  SC5e SC3eh  1 4.100000e-01    2.040000e+00
  SC4e SC3eh  1 4.100000e-01    2.200000e+00
  SC6v SC3eh  1 4.100000e-01    2.600000e+00
  SC5v SC3eh  1 4.100000e-01    2.600000e+00
  SC4v SC3eh  1 4.100000e-01    2.840000e+00
  SC3v SC3eh  1 4.100000e-01    2.840000e+00
  SP6d SC3eh  1 4.140000e-01    1.560000e+00
  SP5d SC3eh  1 4.100000e-01    1.750000e+00
  SP4d SC3eh  1 4.100000e-01    1.750000e+00
  SP3d SC3eh  1 4.100000e-01    1.750000e+00
  SP2d SC3eh  1 4.100000e-01    1.910000e+00
  SP1d SC3eh  1 4.100000e-01    1.910000e+00
  SN6d SC3eh  1 4.100000e-01    2.040000e+00
  SN5d SC3eh  1 4.100000e-01    2.200000e+00
  SN4d SC3eh  1 4.100000e-01    2.200000e+00
  SN3d SC3eh  1 4.100000e-01    2.200000e+00
  SN2d SC3eh  1 4.100000e-01    2.350000e+00
  SN1d SC3eh  1 4.100000e-01    2.350000e+00
  SP6a SC3eh  1 4.210000e-01    1.250000e+00
  SP5a SC3eh  1 4.180000e-01    1.400000e+00
  SP4a SC3eh  1 4.180000e-01    1.400000e+00
  SP3a SC3eh  1 4.180000e-01    1.400000e+00
  SP2a SC3eh  1 4.140000e-01    1.560000e+00
  SP1a SC3eh  1 4.140000e-01    1.560000e+00
  SN6a SC3eh  1 4.100000e-01    1.750000e+00
  SN5a SC3eh  1 4.100000e-01    1.910000e+00
  SN4a SC3eh  1 4.100000e-01    1.910000e+00
  SN3a SC3eh  1 4.100000e-01    1.910000e+00
  SN2a SC3eh  1 4.100000e-01    2.040000e+00
  SN1a SC3eh  1 4.100000e-01    2.040000e+00
  SC6e SC4eh  1 4.100000e-01    2.200000e+00
  SC5e SC4eh  1 4.100000e-01    2.200000e+00
  SC6v SC4eh  1 4.100000e-01    2.840000e+00
  SC5v SC4eh  1 4.100000e-01    2.840000e+00
  SC4v SC4eh  1 4.100000e-01    2.840000e+00
  SP6d SC4eh  1 4.100000e-01    1.750000e+00
  SP5d SC4eh  1 4.100000e-01    1.910000e+00
  SP4d SC4eh  1 4.100000e-01    1.910000e+00
  SP3d SC4eh  1 4.100000e-01    2.040000e+00
  SP2d SC4eh  1 4.100000e-01    2.040000e+00
  SP1d SC4eh  1 4.100000e-01    2.040000e+00
  SN6d SC4eh  1 4.100000e-01    2.200000e+00
  SN5d SC4eh  1 4.100000e-01    2.200000e+00
  SN4d SC4eh  1 4.100000e-01    2.350000e+00
  SN3d SC4eh  1 4.100000e-01    2.350000e+00
  SN2d SC4eh  1 4.100000e-01    2.350000e+00
  SN1d SC4eh  1 4.100000e-01    2.600000e+00
  SP6a SC4eh  1 4.180000e-01    1.400000e+00
  SP5a SC4eh  1 4.140000e-01    1.560000e+00
  SP4a SC4eh  1 4.140000e-01    1.560000e+00
  SP3a SC4eh  1 4.100000e-01    1.750000e+00
  SP2a SC4eh  1 4.100000e-01    1.750000e+00
  SP1a SC4eh  1 4.100000e-01    1.750000e+00
  SN6a SC4eh  1 4.100000e-01    1.910000e+00
  SN5a SC4eh  1 4.100000e-01    1.910000e+00
  SN4a SC4eh  1 4.100000e-01    2.040000e+00
  SN3a SC4eh  1 4.100000e-01    2.040000e+00
  SN2a SC4eh  1 4.100000e-01    2.040000e+00
  SN1a SC4eh  1 4.100000e-01    2.200000e+00
  SC6e SC5eh  1 4.100000e-01    2.200000e+00
  SC6v SC5eh  1 4.100000e-01    2.840000e+00
  SC5v SC5eh  1 4.100000e-01    2.840000e+00
  SP6d SC5eh  1 4.100000e-01    1.910000e+00
  SP5d SC5eh  1 4.100000e-01    2.040000e+00
  SP4d SC5eh  1 4.100000e-01    2.040000e+00
  SP3d SC5eh  1 4.100000e-01    2.200000e+00
  SP2d SC5eh  1 4.100000e-01    2.200000e+00
  SP1d SC5eh  1 4.100000e-01    2.200000e+00
  SN6d SC5eh  1 4.100000e-01    2.350000e+00
  SN5d SC5eh  1 4.100000e-01    2.350000e+00
  SN4d SC5eh  1 4.100000e-01    2.350000e+00
  SN3d SC5eh  1 4.100000e-01    2.350000e+00
  SN2d SC5eh  1 4.100000e-01    2.350000e+00
  SN1d SC5eh  1 4.100000e-01    2.600000e+00
  SP6a SC5eh  1 4.140000e-01    1.560000e+00
  SP5a SC5eh  1 4.100000e-01    1.750000e+00
  SP4a SC5eh  1 4.100000e-01    1.750000e+00
  SP3a SC5eh  1 4.100000e-01    1.910000e+00
  SP2a SC5eh  1 4.100000e-01    1.910000e+00
  SP1a SC5eh  1 4.100000e-01    1.910000e+00
  SN6a SC5eh  1 4.100000e-01    2.040000e+00
  SN5a SC5eh  1 4.100000e-01    2.040000e+00
  SN4a SC5eh  1 4.100000e-01    2.040000e+00
  SN3a SC5eh  1 4.100000e-01    2.040000e+00
  SN2a SC5eh  1 4.100000e-01    2.040000e+00
  SN1a SC5eh  1 4.100000e-01    2.200000e+00
  SC6v SC6eh  1 4.100000e-01    3.070000e+00
  SP6d SC6eh  1 4.100000e-01    2.040000e+00
  SP5d SC6eh  1 4.100000e-01    2.040000e+00
  SP4d SC6eh  1 4.100000e-01    2.200000e+00
  SP3d SC6eh  1 4.100000e-01    2.350000e+00
  SP2d SC6eh  1 4.100000e-01    2.350000e+00
  SP1d SC6eh  1 4.100000e-01    2.350000e+00
  SN6d SC6eh  1 4.100000e-01    2.600000e+00
  SN5d SC6eh  1 4.100000e-01    2.600000e+00
  SN4d SC6eh  1 4.100000e-01    2.600000e+00
  SN3d SC6eh  1 4.100000e-01    2.600000e+00
  SN2d SC6eh  1 4.100000e-01    2.600000e+00
  SN1d SC6eh  1 4.100000e-01    2.840000e+00
  SP6a SC6eh  1 4.100000e-01    1.750000e+00
  SP5a SC6eh  1 4.100000e-01    1.750000e+00
  SP4a SC6eh  1 4.100000e-01    1.910000e+00
  SP3a SC6eh  1 4.100000e-01    2.040000e+00
  SP2a SC6eh  1 4.100000e-01    2.040000e+00
  SP1a SC6eh  1 4.100000e-01    2.040000e+00
  SN6a SC6eh  1 4.100000e-01    2.200000e+00
  SN5a SC6eh  1 4.100000e-01    2.200000e+00
  SN4a SC6eh  1 4.100000e-01    2.200000e+00
  SN3a SC6eh  1 4.100000e-01    2.200000e+00
  SN2a SC6eh  1 4.100000e-01    2.200000e+00
  SN1a SC6eh  1 4.100000e-01    2.350000e+00
  SC6v SX1vh  1 4.100000e-01    2.200000e+00
  SC5v SX1vh  1 4.100000e-01    2.200000e+00
  SC4v SX1vh  1 4.100000e-01    2.200000e+00
  SC3v SX1vh  1 4.100000e-01    2.200000e+00
  SC2v SX1vh  1 4.100000e-01    2.040000e+00
  SC1v SX1vh  1 4.100000e-01    2.040000e+00
  SX4v SX1vh  1 4.100000e-01    2.200000e+00
  SX3v SX1vh  1 4.100000e-01    2.350000e+00
  SX2v SX1vh  1 4.100000e-01    2.350000e+00
  SP6a SX1vh  1 4.100000e-01    1.910000e+00
  SP5a SX1vh  1 4.100000e-01    1.910000e+00
  SP4a SX1vh  1 4.100000e-01    2.040000e+00
  SP3a SX1vh  1 4.100000e-01    2.040000e+00
  SP2a SX1vh  1 4.100000e-01    2.040000e+00
  SP1a SX1vh  1 4.100000e-01    2.040000e+00
  SN6a SX1vh  1 4.100000e-01    2.040000e+00
  SN5a SX1vh  1 4.100000e-01    2.200000e+00
  SN4a SX1vh  1 4.100000e-01    2.200000e+00
  SN3a SX1vh  1 4.100000e-01    2.350000e+00
  SN2a SX1vh  1 4.100000e-01    2.350000e+00
  SN1a SX1vh  1 4.100000e-01    2.350000e+00
  SP6d SX1vh  1 4.140000e-01    1.560000e+00
  SP5d SX1vh  1 4.140000e-01    1.560000e+00
  SP4d SX1vh  1 4.100000e-01    1.750000e+00
  SP3d SX1vh  1 4.100000e-01    1.750000e+00
  SP2d SX1vh  1 4.100000e-01    1.750000e+00
  SP1d SX1vh  1 4.100000e-01    1.750000e+00
  SN6d SX1vh  1 4.100000e-01    1.750000e+00
  SN5d SX1vh  1 4.100000e-01    1.910000e+00
  SN4d SX1vh  1 4.100000e-01    1.910000e+00
  SN3d SX1vh  1 4.100000e-01    2.040000e+00
  SN2d SX1vh  1 4.100000e-01    2.040000e+00
  SN1d SX1vh  1 4.100000e-01    2.040000e+00
  SC6v SX2vh  1 4.100000e-01    2.200000e+00
  SC5v SX2vh  1 4.100000e-01    2.040000e+00
  SC4v SX2vh  1 4.100000e-01    2.040000e+00
  SC3v SX2vh  1 4.100000e-01    2.040000e+00
  SC2v SX2vh  1 4.100000e-01    2.040000e+00
  SC1v SX2vh  1 4.100000e-01    2.040000e+00
  SX4v SX2vh  1 4.100000e-01    2.200000e+00
  SX3v SX2vh  1 4.100000e-01    2.350000e+00
  SP6a SX2vh  1 4.100000e-01    2.040000e+00
  SP5a SX2vh  1 4.100000e-01    2.200000e+00
  SP4a SX2vh  1 4.100000e-01    2.200000e+00
  SP3a SX2vh  1 4.100000e-01    2.200000e+00
  SP2a SX2vh  1 4.100000e-01    2.200000e+00
  SP1a SX2vh  1 4.100000e-01    2.200000e+00
  SN6a SX2vh  1 4.100000e-01    2.200000e+00
  SN5a SX2vh  1 4.100000e-01    2.350000e+00
  SN4a SX2vh  1 4.100000e-01    2.350000e+00
  SN3a SX2vh  1 4.100000e-01    2.350000e+00
  SN2a SX2vh  1 4.100000e-01    2.350000e+00
  SN1a SX2vh  1 4.100000e-01    2.350000e+00
  SP6d SX2vh  1 4.100000e-01    1.750000e+00
  SP5d SX2vh  1 4.100000e-01    1.910000e+00
  SP4d SX2vh  1 4.100000e-01    1.910000e+00
  SP3d SX2vh  1 4.100000e-01    1.910000e+00
  SP2d SX2vh  1 4.100000e-01    1.910000e+00
  SP1d SX2vh  1 4.100000e-01    1.910000e+00
  SN6d SX2vh  1 4.100000e-01    1.910000e+00
  SN5d SX2vh  1 4.100000e-01    2.040000e+00
  SN4d SX2vh  1 4.100000e-01    2.040000e+00
  SN3d SX2vh  1 4.100000e-01    2.040000e+00
  SN2d SX2vh  1 4.100000e-01    2.040000e+00
  SN1d SX2vh  1 4.100000e-01    2.040000e+00
  SC6v SX3vh  1 4.100000e-01    2.200000e+00
  SC5v SX3vh  1 4.100000e-01    2.040000e+00
  SC4v SX3vh  1 4.100000e-01    2.040000e+00
  SC3v SX3vh  1 4.100000e-01    2.040000e+00
  SC2v SX3vh  1 4.100000e-01    2.040000e+00
  SC1v SX3vh  1 4.100000e-01    2.040000e+00
  SX4v SX3vh  1 4.100000e-01    2.200000e+00
  SP6a SX3vh  1 4.100000e-01    2.200000e+00
  SP5a SX3vh  1 4.100000e-01    2.200000e+00
  SP4a SX3vh  1 4.100000e-01    2.200000e+00
  SP3a SX3vh  1 4.100000e-01    2.350000e+00
  SP2a SX3vh  1 4.100000e-01    2.350000e+00
  SP1a SX3vh  1 4.100000e-01    2.350000e+00
  SN6a SX3vh  1 4.100000e-01    2.350000e+00
  SN5a SX3vh  1 4.100000e-01    2.600000e+00
  SN4a SX3vh  1 4.100000e-01    2.840000e+00
  SN3a SX3vh  1 4.100000e-01    2.600000e+00
  SN2a SX3vh  1 4.100000e-01    2.600000e+00
  SN1a SX3vh  1 4.100000e-01    2.600000e+00
  SP6d SX3vh  1 4.100000e-01    1.910000e+00
  SP5d SX3vh  1 4.100000e-01    1.910000e+00
  SP4d SX3vh  1 4.100000e-01    1.910000e+00
  SP3d SX3vh  1 4.100000e-01    2.040000e+00
  SP2d SX3vh  1 4.100000e-01    2.040000e+00
  SP1d SX3vh  1 4.100000e-01    2.040000e+00
  SN6d SX3vh  1 4.100000e-01    2.040000e+00
  SN5d SX3vh  1 4.100000e-01    2.200000e+00
  SN4d SX3vh  1 4.100000e-01    2.350000e+00
  SN3d SX3vh  1 4.100000e-01    2.200000e+00
  SN2d SX3vh  1 4.100000e-01    2.200000e+00
  SN1d SX3vh  1 4.100000e-01    2.200000e+00
  SC6v SX4vh  1 4.100000e-01    2.200000e+00
  SC5v SX4vh  1 4.100000e-01    2.040000e+00
  SC4v SX4vh  1 4.100000e-01    2.040000e+00
  SC3v SX4vh  1 4.100000e-01    2.040000e+00
  SC2v SX4vh  1 4.100000e-01    1.750000e+00
  SC1v SX4vh  1 4.100000e-01    1.750000e+00
  SP6a SX4vh  1 4.100000e-01    2.200000e+00
  SP5a SX4vh  1 4.100000e-01    2.350000e+00
  SP4a SX4vh  1 4.100000e-01    2.350000e+00
  SP3a SX4vh  1 4.100000e-01    2.350000e+00
  SP2a SX4vh  1 4.100000e-01    2.350000e+00
  SP1a SX4vh  1 4.100000e-01    2.350000e+00
  SN6a SX4vh  1 4.100000e-01    2.600000e+00
  SN5a SX4vh  1 4.100000e-01    2.840000e+00
  SN4a SX4vh  1 4.100000e-01    3.070000e+00
  SN3a SX4vh  1 4.100000e-01    2.840000e+00
  SN2a SX4vh  1 4.100000e-01    2.840000e+00
  SN1a SX4vh  1 4.100000e-01    2.600000e+00
  SP6d SX4vh  1 4.100000e-01    1.910000e+00
  SP5d SX4vh  1 4.100000e-01    2.040000e+00
  SP4d SX4vh  1 4.100000e-01    2.040000e+00
  SP3d SX4vh  1 4.100000e-01    2.040000e+00
  SP2d SX4vh  1 4.100000e-01    2.040000e+00
  SP1d SX4vh  1 4.100000e-01    2.040000e+00
  SN6d SX4vh  1 4.100000e-01    2.200000e+00
  SN5d SX4vh  1 4.100000e-01    2.350000e+00
  SN4d SX4vh  1 4.100000e-01    2.600000e+00
  SN3d SX4vh  1 4.100000e-01    2.350000e+00
  SN2d SX4vh  1 4.100000e-01    2.350000e+00
  SN1d SX4vh  1 4.100000e-01    2.200000e+00
  SC6v SC1vh  1 4.100000e-01    1.750000e+00
  SC5v SC1vh  1 4.100000e-01    1.910000e+00
  SC4v SC1vh  1 4.100000e-01    1.910000e+00
  SC3v SC1vh  1 4.100000e-01    2.200000e+00
  SC2v SC1vh  1 4.100000e-01    2.350000e+00
  SP6a SC1vh  1 4.210000e-01    1.250000e+00
  SP5a SC1vh  1 4.140000e-01    1.560000e+00
  SP4a SC1vh  1 4.140000e-01    1.560000e+00
  SP3a SC1vh  1 4.140000e-01    1.560000e+00
  SP2a SC1vh  1 4.100000e-01    1.750000e+00
  SP1a SC1vh  1 4.100000e-01    1.750000e+00
  SN6a SC1vh  1 4.100000e-01    1.910000e+00
  SN5a SC1vh  1 4.100000e-01    1.910000e+00
  SN4a SC1vh  1 4.100000e-01    1.910000e+00
  SN3a SC1vh  1 4.100000e-01    2.040000e+00
  SN2a SC1vh  1 4.100000e-01    2.040000e+00
  SN1a SC1vh  1 4.100000e-01    2.040000e+00
  SP6d SC1vh  1 4.960000e-01    1.050000e+00
  SP5d SC1vh  1 4.210000e-01    1.250000e+00
  SP4d SC1vh  1 4.210000e-01    1.250000e+00
  SP3d SC1vh  1 4.210000e-01    1.250000e+00
  SP2d SC1vh  1 4.180000e-01    1.400000e+00
  SP1d SC1vh  1 4.180000e-01    1.400000e+00
  SN6d SC1vh  1 4.140000e-01    1.560000e+00
  SN5d SC1vh  1 4.140000e-01    1.560000e+00
  SN4d SC1vh  1 4.140000e-01    1.560000e+00
  SN3d SC1vh  1 4.100000e-01    1.750000e+00
  SN2d SC1vh  1 4.100000e-01    1.750000e+00
  SN1d SC1vh  1 4.100000e-01    1.750000e+00
  SC6v SC2vh  1 4.100000e-01    1.910000e+00
  SC5v SC2vh  1 4.100000e-01    1.910000e+00
  SC4v SC2vh  1 4.100000e-01    2.040000e+00
  SC3v SC2vh  1 4.100000e-01    2.200000e+00
  SP6a SC2vh  1 4.140000e-01    1.560000e+00
  SP5a SC2vh  1 4.100000e-01    1.750000e+00
  SP4a SC2vh  1 4.100000e-01    1.750000e+00
  SP3a SC2vh  1 4.100000e-01    1.750000e+00
  SP2a SC2vh  1 4.100000e-01    1.910000e+00
  SP1a SC2vh  1 4.100000e-01    1.910000e+00
  SN6a SC2vh  1 4.100000e-01    2.040000e+00
  SN5a SC2vh  1 4.100000e-01    2.040000e+00
  SN4a SC2vh  1 4.100000e-01    2.040000e+00
  SN3a SC2vh  1 4.100000e-01    2.200000e+00
  SN2a SC2vh  1 4.100000e-01    2.200000e+00
  SN1a SC2vh  1 4.100000e-01    2.200000e+00
  SP6d SC2vh  1 4.210000e-01    1.250000e+00
  SP5d SC2vh  1 4.180000e-01    1.400000e+00
  SP4d SC2vh  1 4.180000e-01    1.400000e+00
  SP3d SC2vh  1 4.180000e-01    1.400000e+00
  SP2d SC2vh  1 4.140000e-01    1.560000e+00
  SP1d SC2vh  1 4.140000e-01    1.560000e+00
  SN6d SC2vh  1 4.100000e-01    1.750000e+00
  SN5d SC2vh  1 4.100000e-01    1.750000e+00
  SN4d SC2vh  1 4.100000e-01    1.750000e+00
  SN3d SC2vh  1 4.100000e-01    1.910000e+00
  SN2d SC2vh  1 4.100000e-01    1.910000e+00
  SN1d SC2vh  1 4.100000e-01    1.910000e+00
  SC6v SC3vh  1 4.100000e-01    2.040000e+00
  SC5v SC3vh  1 4.100000e-01    2.040000e+00
  SC4v SC3vh  1 4.100000e-01    2.200000e+00
  SP6a SC3vh  1 4.140000e-01    1.560000e+00
  SP5a SC3vh  1 4.100000e-01    1.750000e+00
  SP4a SC3vh  1 4.100000e-01    1.750000e+00
  SP3a SC3vh  1 4.100000e-01    1.750000e+00
  SP2a SC3vh  1 4.100000e-01    1.910000e+00
  SP1a SC3vh  1 4.100000e-01    1.910000e+00
  SN6a SC3vh  1 4.100000e-01    2.040000e+00
  SN5a SC3vh  1 4.100000e-01    2.200000e+00
  SN4a SC3vh  1 4.100000e-01    2.200000e+00
  SN3a SC3vh  1 4.100000e-01    2.200000e+00
  SN2a SC3vh  1 4.100000e-01    2.350000e+00
  SN1a SC3vh  1 4.100000e-01    2.350000e+00
  SP6d SC3vh  1 4.210000e-01    1.250000e+00
  SP5d SC3vh  1 4.180000e-01    1.400000e+00
  SP4d SC3vh  1 4.180000e-01    1.400000e+00
  SP3d SC3vh  1 4.180000e-01    1.400000e+00
  SP2d SC3vh  1 4.140000e-01    1.560000e+00
  SP1d SC3vh  1 4.140000e-01    1.560000e+00
  SN6d SC3vh  1 4.100000e-01    1.750000e+00
  SN5d SC3vh  1 4.100000e-01    1.910000e+00
  SN4d SC3vh  1 4.100000e-01    1.910000e+00
  SN3d SC3vh  1 4.100000e-01    1.910000e+00
  SN2d SC3vh  1 4.100000e-01    2.040000e+00
  SN1d SC3vh  1 4.100000e-01    2.040000e+00
  SC6v SC4vh  1 4.100000e-01    2.200000e+00
  SC5v SC4vh  1 4.100000e-01    2.200000e+00
  SP6a SC4vh  1 4.100000e-01    1.750000e+00
  SP5a SC4vh  1 4.100000e-01    1.910000e+00
  SP4a SC4vh  1 4.100000e-01    1.910000e+00
  SP3a SC4vh  1 4.100000e-01    2.040000e+00
  SP2a SC4vh  1 4.100000e-01    2.040000e+00
  SP1a SC4vh  1 4.100000e-01    2.040000e+00
  SN6a SC4vh  1 4.100000e-01    2.200000e+00
  SN5a SC4vh  1 4.100000e-01    2.200000e+00
  SN4a SC4vh  1 4.100000e-01    2.350000e+00
  SN3a SC4vh  1 4.100000e-01    2.350000e+00
  SN2a SC4vh  1 4.100000e-01    2.350000e+00
  SN1a SC4vh  1 4.100000e-01    2.600000e+00
  SP6d SC4vh  1 4.180000e-01    1.400000e+00
  SP5d SC4vh  1 4.140000e-01    1.560000e+00
  SP4d SC4vh  1 4.140000e-01    1.560000e+00
  SP3d SC4vh  1 4.100000e-01    1.750000e+00
  SP2d SC4vh  1 4.100000e-01    1.750000e+00
  SP1d SC4vh  1 4.100000e-01    1.750000e+00
  SN6d SC4vh  1 4.100000e-01    1.910000e+00
  SN5d SC4vh  1 4.100000e-01    1.910000e+00
  SN4d SC4vh  1 4.100000e-01    2.040000e+00
  SN3d SC4vh  1 4.100000e-01    2.040000e+00
  SN2d SC4vh  1 4.100000e-01    2.040000e+00
  SN1d SC4vh  1 4.100000e-01    2.200000e+00
  SC6v SC5vh  1 4.100000e-01    2.200000e+00
  SP6a SC5vh  1 4.100000e-01    1.910000e+00
  SP5a SC5vh  1 4.100000e-01    2.040000e+00
  SP4a SC5vh  1 4.100000e-01    2.040000e+00
  SP3a SC5vh  1 4.100000e-01    2.200000e+00
  SP2a SC5vh  1 4.100000e-01    2.200000e+00
  SP1a SC5vh  1 4.100000e-01    2.200000e+00
  SN6a SC5vh  1 4.100000e-01    2.350000e+00
  SN5a SC5vh  1 4.100000e-01    2.350000e+00
  SN4a SC5vh  1 4.100000e-01    2.350000e+00
  SN3a SC5vh  1 4.100000e-01    2.350000e+00
  SN2a SC5vh  1 4.100000e-01    2.350000e+00
  SN1a SC5vh  1 4.100000e-01    2.600000e+00
  SP6d SC5vh  1 4.140000e-01    1.560000e+00
  SP5d SC5vh  1 4.100000e-01    1.750000e+00
  SP4d SC5vh  1 4.100000e-01    1.750000e+00
  SP3d SC5vh  1 4.100000e-01    1.910000e+00
  SP2d SC5vh  1 4.100000e-01    1.910000e+00
  SP1d SC5vh  1 4.100000e-01    1.910000e+00
  SN6d SC5vh  1 4.100000e-01    2.040000e+00
  SN5d SC5vh  1 4.100000e-01    2.040000e+00
  SN4d SC5vh  1 4.100000e-01    2.040000e+00
  SN3d SC5vh  1 4.100000e-01    2.040000e+00
  SN2d SC5vh  1 4.100000e-01    2.040000e+00
  SN1d SC5vh  1 4.100000e-01    2.200000e+00
  SP6a SC6vh  1 4.100000e-01    2.040000e+00
  SP5a SC6vh  1 4.100000e-01    2.040000e+00
  SP4a SC6vh  1 4.100000e-01    2.200000e+00
  SP3a SC6vh  1 4.100000e-01    2.350000e+00
  SP2a SC6vh  1 4.100000e-01    2.350000e+00
  SP1a SC6vh  1 4.100000e-01    2.350000e+00
  SN6a SC6vh  1 4.100000e-01    2.600000e+00
  SN5a SC6vh  1 4.100000e-01    2.600000e+00
  SN4a SC6vh  1 4.100000e-01    2.600000e+00
  SN3a SC6vh  1 4.100000e-01    2.600000e+00
  SN2a SC6vh  1 4.100000e-01    2.600000e+00
  SN1a SC6vh  1 4.100000e-01    2.840000e+00
  SP6d SC6vh  1 4.100000e-01    1.750000e+00
  SP5d SC6vh  1 4.100000e-01    1.750000e+00
  SP4d SC6vh  1 4.100000e-01    1.910000e+00
  SP3d SC6vh  1 4.100000e-01    2.040000e+00
  SP2d SC6vh  1 4.100000e-01    2.040000e+00
  SP1d SC6vh  1 4.100000e-01    2.040000e+00
  SN6d SC6vh  1 4.100000e-01    2.200000e+00
  SN5d SC6vh  1 4.100000e-01    2.200000e+00
  SN4d SC6vh  1 4.100000e-01    2.200000e+00
  SN3d SC6vh  1 4.100000e-01    2.200000e+00
  SN2d SC6vh  1 4.100000e-01    2.200000e+00
  SN1d SC6vh  1 4.100000e-01    2.350000e+00
  SP6a SN1ah  1 4.100000e-01    1.910000e+00
  SP5a SN1ah  1 4.100000e-01    1.910000e+00
  SP4a SN1ah  1 4.100000e-01    2.040000e+00
  SP3a SN1ah  1 4.100000e-01    2.200000e+00
  SP2a SN1ah  1 4.100000e-01    2.200000e+00
  SP1a SN1ah  1 4.100000e-01    2.200000e+00
  SN6a SN1ah  1 4.100000e-01    2.200000e+00
  SN5a SN1ah  1 4.100000e-01    2.200000e+00
  SN4a SN1ah  1 4.100000e-01    2.200000e+00
  SN3a SN1ah  1 4.100000e-01    2.200000e+00
  SN2a SN1ah  1 4.100000e-01    2.200000e+00
  SP6d SN1ah  1 4.100000e-01    1.910000e+00
  SP5d SN1ah  1 4.100000e-01    1.910000e+00
  SP4d SN1ah  1 4.100000e-01    2.040000e+00
  SP3d SN1ah  1 4.100000e-01    2.200000e+00
  SP2d SN1ah  1 4.100000e-01    2.600000e+00
  SP1d SN1ah  1 4.100000e-01    2.600000e+00
  SN6d SN1ah  1 4.100000e-01    2.600000e+00
  SN5d SN1ah  1 4.100000e-01    2.600000e+00
  SN4d SN1ah  1 4.100000e-01    2.600000e+00
  SN3d SN1ah  1 4.100000e-01    2.600000e+00
  SN2d SN1ah  1 4.100000e-01    2.600000e+00
  SN1d SN1ah  1 4.100000e-01    2.840000e+00
  SP6a SN2ah  1 4.100000e-01    2.040000e+00
  SP5a SN2ah  1 4.100000e-01    2.040000e+00
  SP4a SN2ah  1 4.100000e-01    2.200000e+00
  SP3a SN2ah  1 4.100000e-01    2.200000e+00
  SP2a SN2ah  1 4.100000e-01    2.200000e+00
  SP1a SN2ah  1 4.100000e-01    2.200000e+00
  SN6a SN2ah  1 4.100000e-01    2.200000e+00
  SN5a SN2ah  1 4.100000e-01    2.350000e+00
  SN4a SN2ah  1 4.100000e-01    2.350000e+00
  SN3a SN2ah  1 4.100000e-01    2.350000e+00
  SP6d SN2ah  1 4.100000e-01    2.040000e+00
  SP5d SN2ah  1 4.100000e-01    2.040000e+00
  SP4d SN2ah  1 4.100000e-01    2.200000e+00
  SP3d SN2ah  1 4.100000e-01    2.600000e+00
  SP2d SN2ah  1 4.100000e-01    2.600000e+00
  SP1d SN2ah  1 4.100000e-01    2.600000e+00
  SN6d SN2ah  1 4.100000e-01    2.600000e+00
  SN5d SN2ah  1 4.100000e-01    2.840000e+00
  SN4d SN2ah  1 4.100000e-01    2.840000e+00
  SN3d SN2ah  1 4.100000e-01    2.840000e+00
  SN2d SN2ah  1 4.100000e-01    2.840000e+00
  SP6a SN3ah  1 4.100000e-01    2.200000e+00
  SP5a SN3ah  1 4.100000e-01    2.200000e+00
  SP4a SN3ah  1 4.100000e-01    2.200000e+00
  SP3a SN3ah  1 4.100000e-01    2.200000e+00
  SP2a SN3ah  1 4.100000e-01    2.200000e+00
  SP1a SN3ah  1 4.100000e-01    2.200000e+00
  SN6a SN3ah  1 4.100000e-01    2.350000e+00
  SN5a SN3ah  1 4.100000e-01    2.350000e+00
  SN4a SN3ah  1 4.100000e-01    2.350000e+00
  SP6d SN3ah  1 4.100000e-01    2.200000e+00
  SP5d SN3ah  1 4.100000e-01    2.200000e+00
  SP4d SN3ah  1 4.100000e-01    2.600000e+00
  SP3d SN3ah  1 4.100000e-01    2.600000e+00
  SP2d SN3ah  1 4.100000e-01    2.600000e+00
  SP1d SN3ah  1 4.100000e-01    2.600000e+00
  SN6d SN3ah  1 4.100000e-01    2.840000e+00
  SN5d SN3ah  1 4.100000e-01    2.840000e+00
  SN4d SN3ah  1 4.100000e-01    2.840000e+00
  SN3d SN3ah  1 4.100000e-01    2.840000e+00
  SP6a SN4ah  1 4.100000e-01    2.200000e+00
  SP5a SN4ah  1 4.100000e-01    2.350000e+00
  SP4a SN4ah  1 4.100000e-01    2.350000e+00
  SP3a SN4ah  1 4.100000e-01    2.350000e+00
  SP2a SN4ah  1 4.100000e-01    2.350000e+00
  SP1a SN4ah  1 4.100000e-01    2.600000e+00
  SN6a SN4ah  1 4.100000e-01    2.840000e+00
  SN5a SN4ah  1 4.100000e-01    2.600000e+00
  SP6d SN4ah  1 4.100000e-01    2.600000e+00
  SP5d SN4ah  1 4.100000e-01    2.840000e+00
  SP4d SN4ah  1 4.100000e-01    2.840000e+00
  SP3d SN4ah  1 4.100000e-01    2.840000e+00
  SP2d SN4ah  1 4.100000e-01    2.840000e+00
  SP1d SN4ah  1 4.100000e-01    3.070000e+00
  SN6d SN4ah  1 4.100000e-01    3.310000e+00
  SN5d SN4ah  1 4.100000e-01    3.070000e+00
  SN4d SN4ah  1 4.100000e-01    3.070000e+00
  SP6a SN5ah  1 4.100000e-01    2.350000e+00
  SP5a SN5ah  1 4.100000e-01    2.350000e+00
  SP4a SN5ah  1 4.100000e-01    2.350000e+00
  SP3a SN5ah  1 4.100000e-01    2.350000e+00
  SP2a SN5ah  1 4.100000e-01    2.600000e+00
  SP1a SN5ah  1 4.100000e-01    2.600000e+00
  SN6a SN5ah  1 4.100000e-01    2.840000e+00
  SP6d SN5ah  1 4.100000e-01    2.840000e+00
  SP5d SN5ah  1 4.100000e-01    2.840000e+00
  SP4d SN5ah  1 4.100000e-01    2.840000e+00
  SP3d SN5ah  1 4.100000e-01    2.840000e+00
  SP2d SN5ah  1 4.100000e-01    3.070000e+00
  SP1d SN5ah  1 4.100000e-01    3.070000e+00
  SN6d SN5ah  1 4.100000e-01    3.310000e+00
  SN5d SN5ah  1 4.100000e-01    3.070000e+00
  SP6a SN6ah  1 4.100000e-01    2.840000e+00
  SP5a SN6ah  1 4.100000e-01    2.600000e+00
  SP4a SN6ah  1 4.100000e-01    2.600000e+00
  SP3a SN6ah  1 4.100000e-01    2.600000e+00
  SP2a SN6ah  1 4.100000e-01    2.840000e+00
  SP1a SN6ah  1 4.100000e-01    2.840000e+00
  SP6d SN6ah  1 4.100000e-01    3.310000e+00
  SP5d SN6ah  1 4.100000e-01    3.070000e+00
  SP4d SN6ah  1 4.100000e-01    3.070000e+00
  SP3d SN6ah  1 4.100000e-01    3.070000e+00
  SP2d SN6ah  1 4.100000e-01    3.310000e+00
  SP1d SN6ah  1 4.100000e-01    3.310000e+00
  SN6d SN6ah  1 4.100000e-01    3.310000e+00
  SP6a SP1ah  1 4.100000e-01    3.070000e+00
  SP5a SP1ah  1 4.100000e-01    2.840000e+00
  SP4a SP1ah  1 4.100000e-01    2.840000e+00
  SP3a SP1ah  1 4.100000e-01    2.840000e+00
  SP2a SP1ah  1 4.100000e-01    2.840000e+00
  SP6d SP1ah  1 4.100000e-01    3.550000e+00
  SP5d SP1ah  1 4.100000e-01    3.310000e+00
  SP4d SP1ah  1 4.100000e-01    3.310000e+00
  SP3d SP1ah  1 4.100000e-01    3.310000e+00
  SP2d SP1ah  1 4.100000e-01    3.310000e+00
  SP1d SP1ah  1 4.100000e-01    3.310000e+00
  SP6a SP2ah  1 4.100000e-01    3.310000e+00
  SP5a SP2ah  1 4.100000e-01    3.070000e+00
  SP4a SP2ah  1 4.100000e-01    3.070000e+00
  SP3a SP2ah  1 4.100000e-01    3.070000e+00
  SP6d SP2ah  1 4.100000e-01    3.820000e+00
  SP5d SP2ah  1 4.100000e-01    3.550000e+00
  SP4d SP2ah  1 4.100000e-01    3.550000e+00
  SP3d SP2ah  1 4.100000e-01    3.550000e+00
  SP2d SP2ah  1 4.100000e-01    3.550000e+00
  SP6a SP3ah  1 4.100000e-01    3.310000e+00
  SP5a SP3ah  1 4.100000e-01    3.070000e+00
  SP4a SP3ah  1 4.100000e-01    3.070000e+00
  SP6d SP3ah  1 4.100000e-01    3.820000e+00
  SP5d SP3ah  1 4.100000e-01    3.550000e+00
  SP4d SP3ah  1 4.100000e-01    3.550000e+00
  SP3d SP3ah  1 4.100000e-01    3.550000e+00
  SP6a SP4ah  1 4.100000e-01    3.550000e+00
  SP5a SP4ah  1 4.100000e-01    3.310000e+00
  SP6d SP4ah  1 4.100000e-01    4.040000e+00
  SP5d SP4ah  1 4.100000e-01    3.820000e+00
  SP4d SP4ah  1 4.100000e-01    3.820000e+00
  SP6a SP5ah  1 4.100000e-01    3.820000e+00
  SP6d SP5ah  1 4.100000e-01    4.290000e+00
  SP5d SP5ah  1 4.100000e-01    4.040000e+00
  SP6d SP6ah  1 4.100000e-01    4.550000e+00
  SP6d SN1dh  1 4.100000e-01    1.910000e+00
  SP5d SN1dh  1 4.100000e-01    1.910000e+00
  SP4d SN1dh  1 4.100000e-01    2.040000e+00
  SP3d SN1dh  1 4.100000e-01    2.200000e+00
  SP2d SN1dh  1 4.100000e-01    2.200000e+00
  SP1d SN1dh  1 4.100000e-01    2.200000e+00
  SN6d SN1dh  1 4.100000e-01    2.200000e+00
  SN5d SN1dh  1 4.100000e-01    2.200000e+00
  SN4d SN1dh  1 4.100000e-01    2.200000e+00
  SN3d SN1dh  1 4.100000e-01    2.200000e+00
  SN2d SN1dh  1 4.100000e-01    2.200000e+00
  SP6d SN2dh  1 4.100000e-01    2.040000e+00
  SP5d SN2dh  1 4.100000e-01    2.040000e+00
  SP4d SN2dh  1 4.100000e-01    2.200000e+00
  SP3d SN2dh  1 4.100000e-01    2.200000e+00
  SP2d SN2dh  1 4.100000e-01    2.200000e+00
  SP1d SN2dh  1 4.100000e-01    2.200000e+00
  SN6d SN2dh  1 4.100000e-01    2.200000e+00
  SN5d SN2dh  1 4.100000e-01    2.350000e+00
  SN4d SN2dh  1 4.100000e-01    2.350000e+00
  SN3d SN2dh  1 4.100000e-01    2.350000e+00
  SP6d SN3dh  1 4.100000e-01    2.200000e+00
  SP5d SN3dh  1 4.100000e-01    2.200000e+00
  SP4d SN3dh  1 4.100000e-01    2.200000e+00
  SP3d SN3dh  1 4.100000e-01    2.200000e+00
  SP2d SN3dh  1 4.100000e-01    2.200000e+00
  SP1d SN3dh  1 4.100000e-01    2.200000e+00
  SN6d SN3dh  1 4.100000e-01    2.350000e+00
  SN5d SN3dh  1 4.100000e-01    2.350000e+00
  SN4d SN3dh  1 4.100000e-01    2.350000e+00
  SP6d SN4dh  1 4.100000e-01    2.200000e+00
  SP5d SN4dh  1 4.100000e-01    2.350000e+00
  SP4d SN4dh  1 4.100000e-01    2.350000e+00
  SP3d SN4dh  1 4.100000e-01    2.350000e+00
  SP2d SN4dh  1 4.100000e-01    2.350000e+00
  SP1d SN4dh  1 4.100000e-01    2.600000e+00
  SN6d SN4dh  1 4.100000e-01    2.840000e+00
  SN5d SN4dh  1 4.100000e-01    2.600000e+00
  SP6d SN5dh  1 4.100000e-01    2.350000e+00
  SP5d SN5dh  1 4.100000e-01    2.350000e+00
  SP4d SN5dh  1 4.100000e-01    2.350000e+00
  SP3d SN5dh  1 4.100000e-01    2.350000e+00
  SP2d SN5dh  1 4.100000e-01    2.600000e+00
  SP1d SN5dh  1 4.100000e-01    2.600000e+00
  SN6d SN5dh  1 4.100000e-01    2.840000e+00
  SP6d SN6dh  1 4.100000e-01    2.840000e+00
  SP5d SN6dh  1 4.100000e-01    2.600000e+00
  SP4d SN6dh  1 4.100000e-01    2.600000e+00
  SP3d SN6dh  1 4.100000e-01    2.600000e+00
  SP2d SN6dh  1 4.100000e-01    2.840000e+00
  SP1d SN6dh  1 4.100000e-01    2.840000e+00
  SP6d SP1dh  1 4.100000e-01    3.070000e+00
  SP5d SP1dh  1 4.100000e-01    2.840000e+00
  SP4d SP1dh  1 4.100000e-01    2.840000e+00
  SP3d SP1dh  1 4.100000e-01    2.840000e+00
  SP2d SP1dh  1 4.100000e-01    2.840000e+00
  SP6d SP2dh  1 4.100000e-01    3.310000e+00
  SP5d SP2dh  1 4.100000e-01    3.070000e+00
  SP4d SP2dh  1 4.100000e-01    3.070000e+00
  SP3d SP2dh  1 4.100000e-01    3.070000e+00
  SP6d SP3dh  1 4.100000e-01    3.310000e+00
  SP5d SP3dh  1 4.100000e-01    3.070000e+00
  SP4d SP3dh  1 4.100000e-01    3.070000e+00
  SP6d SP4dh  1 4.100000e-01    3.550000e+00
  SP5d SP4dh  1 4.100000e-01    3.310000e+00
  SP6d SP5dh  1 4.100000e-01    3.820000e+00
  SP6r SX1eq  1 4.100000e-01    2.200000e+00
  SP6r SX2eq  1 4.100000e-01    2.350000e+00
  SP6r SX3eq  1 4.100000e-01    2.600000e+00
  SP6r SX4eq  1 4.100000e-01    2.600000e+00
  SP6r SC1eq  1 4.140000e-01    1.560000e+00
  SP6r SC2eq  1 4.100000e-01    1.910000e+00
  SP6r SC3eq  1 4.100000e-01    1.910000e+00
  SP6r SC4eq  1 4.100000e-01    2.040000e+00
  SP6r SC5eq  1 4.100000e-01    2.200000e+00
  SP6r SC6eq  1 4.100000e-01    2.350000e+00
  SP6r SX1vq  1 4.100000e-01    2.200000e+00
  SP6r SX2vq  1 4.100000e-01    2.350000e+00
  SP6r SX3vq  1 4.100000e-01    2.600000e+00
  SP6r SX4vq  1 4.100000e-01    2.600000e+00
  SP6r SC1vq  1 4.140000e-01    1.560000e+00
  SP6r SC2vq  1 4.100000e-01    1.910000e+00
  SP6r SC3vq  1 4.100000e-01    1.910000e+00
  SP6r SC4vq  1 4.100000e-01    2.040000e+00
  SP6r SC5vq  1 4.100000e-01    2.200000e+00
  SP6r SC6vq  1 4.100000e-01    2.350000e+00
  SP6r SN1aq  1 4.100000e-01    2.200000e+00
  SP6r SN2aq  1 4.100000e-01    2.350000e+00
  SP6r SN3aq  1 4.100000e-01    2.600000e+00
  SP6r SN4aq  1 4.100000e-01    2.840000e+00
  SP6r SN5aq  1 4.100000e-01    3.070000e+00
  SP6r SN6aq  1 4.100000e-01    3.550000e+00
  SP6r SP1aq  1 4.100000e-01    3.820000e+00
  SP6r SP2aq  1 4.100000e-01    4.040000e+00
  SP6r SP3aq  1 4.100000e-01    4.040000e+00
  SP6r SP4aq  1 4.100000e-01    4.290000e+00
  SP6r SP5aq  1 4.100000e-01    4.550000e+00
  SP6r SP6aq  1 4.100000e-01    4.840000e+00
  SP6r SN1dq  1 4.100000e-01    2.200000e+00
  SP6r SN2dq  1 4.100000e-01    2.350000e+00
  SP6r SN3dq  1 4.100000e-01    2.600000e+00
  SP6r SN4dq  1 4.100000e-01    2.840000e+00
  SP6r SN5dq  1 4.100000e-01    3.070000e+00
  SP6r SN6dq  1 4.100000e-01    3.550000e+00
  SP6r SP1dq  1 4.100000e-01    3.820000e+00
  SP6r SP2dq  1 4.100000e-01    4.040000e+00
  SP6r SP3dq  1 4.100000e-01    4.040000e+00
  SP6r SP4dq  1 4.100000e-01    4.290000e+00
  SP6r SP5dq  1 4.100000e-01    4.550000e+00
  SP6r SP6dq  1 4.100000e-01    4.840000e+00
  SP5r SX1eq  1 4.100000e-01    2.200000e+00
  SP5r SX2eq  1 4.100000e-01    2.600000e+00
  SP5r SX3eq  1 4.100000e-01    2.600000e+00
  SP5r SX4eq  1 4.100000e-01    2.840000e+00
  SP5r SC1eq  1 4.100000e-01    1.910000e+00
  SP5r SC2eq  1 4.100000e-01    2.040000e+00
  SP5r SC3eq  1 4.100000e-01    2.040000e+00
  SP5r SC4eq  1 4.100000e-01    2.200000e+00
  SP5r SC5eq  1 4.100000e-01    2.350000e+00
  SP5r SC6eq  1 4.100000e-01    2.350000e+00
  SP5r SX1vq  1 4.100000e-01    2.200000e+00
  SP5r SX2vq  1 4.100000e-01    2.600000e+00
  SP5r SX3vq  1 4.100000e-01    2.600000e+00
  SP5r SX4vq  1 4.100000e-01    2.840000e+00
  SP5r SC1vq  1 4.100000e-01    1.910000e+00
  SP5r SC2vq  1 4.100000e-01    2.040000e+00
  SP5r SC3vq  1 4.100000e-01    2.040000e+00
  SP5r SC4vq  1 4.100000e-01    2.200000e+00
  SP5r SC5vq  1 4.100000e-01    2.350000e+00
  SP5r SC6vq  1 4.100000e-01    2.350000e+00
  SP5r SN1aq  1 4.100000e-01    2.200000e+00
  SP5r SN2aq  1 4.100000e-01    2.350000e+00
  SP5r SN3aq  1 4.100000e-01    2.600000e+00
  SP5r SN4aq  1 4.100000e-01    3.070000e+00
  SP5r SN5aq  1 4.100000e-01    3.070000e+00
  SP5r SN6aq  1 4.100000e-01    3.310000e+00
  SP5r SP1aq  1 4.100000e-01    3.550000e+00
  SP5r SP2aq  1 4.100000e-01    3.820000e+00
  SP5r SP3aq  1 4.100000e-01    3.820000e+00
  SP5r SP4aq  1 4.100000e-01    4.040000e+00
  SP5r SP5aq  1 4.100000e-01    4.290000e+00
  SP5r SN1dq  1 4.100000e-01    2.200000e+00
  SP5r SN2dq  1 4.100000e-01    2.350000e+00
  SP5r SN3dq  1 4.100000e-01    2.600000e+00
  SP5r SN4dq  1 4.100000e-01    3.070000e+00
  SP5r SN5dq  1 4.100000e-01    3.070000e+00
  SP5r SN6dq  1 4.100000e-01    3.310000e+00
  SP5r SP1dq  1 4.100000e-01    3.550000e+00
  SP5r SP2dq  1 4.100000e-01    3.820000e+00
  SP5r SP3dq  1 4.100000e-01    3.820000e+00
  SP5r SP4dq  1 4.100000e-01    4.040000e+00
  SP5r SP5dq  1 4.100000e-01    4.290000e+00
  SP4r SX1eq  1 4.100000e-01    2.350000e+00
  SP4r SX2eq  1 4.100000e-01    2.600000e+00
  SP4r SX3eq  1 4.100000e-01    2.600000e+00
  SP4r SX4eq  1 4.100000e-01    2.840000e+00
  SP4r SC1eq  1 4.100000e-01    1.910000e+00
  SP4r SC2eq  1 4.100000e-01    2.040000e+00
  SP4r SC3eq  1 4.100000e-01    2.040000e+00
  SP4r SC4eq  1 4.100000e-01    2.200000e+00
  SP4r SC5eq  1 4.100000e-01    2.350000e+00
  SP4r SC6eq  1 4.100000e-01    2.600000e+00
  SP4r SX1vq  1 4.100000e-01    2.350000e+00
  SP4r SX2vq  1 4.100000e-01    2.600000e+00
  SP4r SX3vq  1 4.100000e-01    2.600000e+00
  SP4r SX4vq  1 4.100000e-01    2.840000e+00
  SP4r SC1vq  1 4.100000e-01    1.910000e+00
  SP4r SC2vq  1 4.100000e-01    2.040000e+00
  SP4r SC3vq  1 4.100000e-01    2.040000e+00
  SP4r SC4vq  1 4.100000e-01    2.200000e+00
  SP4r SC5vq  1 4.100000e-01    2.350000e+00
  SP4r SC6vq  1 4.100000e-01    2.600000e+00
  SP4r SN1aq  1 4.100000e-01    2.350000e+00
  SP4r SN2aq  1 4.100000e-01    2.600000e+00
  SP4r SN3aq  1 4.100000e-01    2.840000e+00
  SP4r SN4aq  1 4.100000e-01    3.070000e+00
  SP4r SN5aq  1 4.100000e-01    3.070000e+00
  SP4r SN6aq  1 4.100000e-01    3.310000e+00
  SP4r SP1aq  1 4.100000e-01    3.550000e+00
  SP4r SP2aq  1 4.100000e-01    3.820000e+00
  SP4r SP3aq  1 4.100000e-01    3.820000e+00
  SP4r SP4aq  1 4.100000e-01    4.040000e+00
  SP4r SN1dq  1 4.100000e-01    2.350000e+00
  SP4r SN2dq  1 4.100000e-01    2.600000e+00
  SP4r SN3dq  1 4.100000e-01    2.840000e+00
  SP4r SN4dq  1 4.100000e-01    3.070000e+00
  SP4r SN5dq  1 4.100000e-01    3.070000e+00
  SP4r SN6dq  1 4.100000e-01    3.310000e+00
  SP4r SP1dq  1 4.100000e-01    3.550000e+00
  SP4r SP2dq  1 4.100000e-01    3.820000e+00
  SP4r SP3dq  1 4.100000e-01    3.820000e+00
  SP4r SP4dq  1 4.100000e-01    4.040000e+00
  SP3r SX1eq  1 4.100000e-01    2.350000e+00
  SP3r SX2eq  1 4.100000e-01    2.600000e+00
  SP3r SX3eq  1 4.100000e-01    2.840000e+00
  SP3r SX4eq  1 4.100000e-01    2.840000e+00
  SP3r SC1eq  1 4.100000e-01    1.910000e+00
  SP3r SC2eq  1 4.100000e-01    2.040000e+00
  SP3r SC3eq  1 4.100000e-01    2.040000e+00
  SP3r SC4eq  1 4.100000e-01    2.350000e+00
  SP3r SC5eq  1 4.100000e-01    2.600000e+00
  SP3r SC6eq  1 4.100000e-01    2.840000e+00
  SP3r SX1vq  1 4.100000e-01    2.350000e+00
  SP3r SX2vq  1 4.100000e-01    2.600000e+00
  SP3r SX3vq  1 4.100000e-01    2.840000e+00
  SP3r SX4vq  1 4.100000e-01    2.840000e+00
  SP3r SC1vq  1 4.100000e-01    1.910000e+00
  SP3r SC2vq  1 4.100000e-01    2.040000e+00
  SP3r SC3vq  1 4.100000e-01    2.040000e+00
  SP3r SC4vq  1 4.100000e-01    2.350000e+00
  SP3r SC5vq  1 4.100000e-01    2.600000e+00
  SP3r SC6vq  1 4.100000e-01    2.840000e+00
  SP3r SN1aq  1 4.100000e-01    2.600000e+00
  SP3r SN2aq  1 4.100000e-01    2.840000e+00
  SP3r SN3aq  1 4.100000e-01    2.840000e+00
  SP3r SN4aq  1 4.100000e-01    3.070000e+00
  SP3r SN5aq  1 4.100000e-01    3.070000e+00
  SP3r SN6aq  1 4.100000e-01    3.310000e+00
  SP3r SP1aq  1 4.100000e-01    3.550000e+00
  SP3r SP2aq  1 4.100000e-01    3.820000e+00
  SP3r SP3aq  1 4.100000e-01    3.820000e+00
  SP3r SN1dq  1 4.100000e-01    2.600000e+00
  SP3r SN2dq  1 4.100000e-01    2.840000e+00
  SP3r SN3dq  1 4.100000e-01    2.840000e+00
  SP3r SN4dq  1 4.100000e-01    3.070000e+00
  SP3r SN5dq  1 4.100000e-01    3.070000e+00
  SP3r SN6dq  1 4.100000e-01    3.310000e+00
  SP3r SP1dq  1 4.100000e-01    3.550000e+00
  SP3r SP2dq  1 4.100000e-01    3.820000e+00
  SP3r SP3dq  1 4.100000e-01    3.820000e+00
  SP2r SX1eq  1 4.100000e-01    2.350000e+00
  SP2r SX2eq  1 4.100000e-01    2.600000e+00
  SP2r SX3eq  1 4.100000e-01    2.840000e+00
  SP2r SX4eq  1 4.100000e-01    2.840000e+00
  SP2r SC1eq  1 4.100000e-01    2.040000e+00
  SP2r SC2eq  1 4.100000e-01    2.200000e+00
  SP2r SC3eq  1 4.100000e-01    2.200000e+00
  SP2r SC4eq  1 4.100000e-01    2.350000e+00
  SP2r SC5eq  1 4.100000e-01    2.600000e+00
  SP2r SC6eq  1 4.100000e-01    2.840000e+00
  SP2r SX1vq  1 4.100000e-01    2.350000e+00
  SP2r SX2vq  1 4.100000e-01    2.600000e+00
  SP2r SX3vq  1 4.100000e-01    2.840000e+00
  SP2r SX4vq  1 4.100000e-01    2.840000e+00
  SP2r SC1vq  1 4.100000e-01    2.040000e+00
  SP2r SC2vq  1 4.100000e-01    2.200000e+00
  SP2r SC3vq  1 4.100000e-01    2.200000e+00
  SP2r SC4vq  1 4.100000e-01    2.350000e+00
  SP2r SC5vq  1 4.100000e-01    2.600000e+00
  SP2r SC6vq  1 4.100000e-01    2.840000e+00
  SP2r SN1aq  1 4.100000e-01    2.840000e+00
  SP2r SN2aq  1 4.100000e-01    2.840000e+00
  SP2r SN3aq  1 4.100000e-01    2.840000e+00
  SP2r SN4aq  1 4.100000e-01    3.070000e+00
  SP2r SN5aq  1 4.100000e-01    3.310000e+00
  SP2r SN6aq  1 4.100000e-01    3.550000e+00
  SP2r SP1aq  1 4.100000e-01    3.550000e+00
  SP2r SP2aq  1 4.100000e-01    3.820000e+00
  SP2r SN1dq  1 4.100000e-01    2.840000e+00
  SP2r SN2dq  1 4.100000e-01    2.840000e+00
  SP2r SN3dq  1 4.100000e-01    2.840000e+00
  SP2r SN4dq  1 4.100000e-01    3.070000e+00
  SP2r SN5dq  1 4.100000e-01    3.310000e+00
  SP2r SN6dq  1 4.100000e-01    3.550000e+00
  SP2r SP1dq  1 4.100000e-01    3.550000e+00
  SP2r SP2dq  1 4.100000e-01    3.820000e+00
  SP1r SX1eq  1 4.100000e-01    2.350000e+00
  SP1r SX2eq  1 4.100000e-01    2.600000e+00
  SP1r SX3eq  1 4.100000e-01    2.840000e+00
  SP1r SX4eq  1 4.100000e-01    2.840000e+00
  SP1r SC1eq  1 4.100000e-01    2.040000e+00
  SP1r SC2eq  1 4.100000e-01    2.200000e+00
  SP1r SC3eq  1 4.100000e-01    2.200000e+00
  SP1r SC4eq  1 4.100000e-01    2.350000e+00
  SP1r SC5eq  1 4.100000e-01    2.600000e+00
  SP1r SC6eq  1 4.100000e-01    2.840000e+00
  SP1r SX1vq  1 4.100000e-01    2.350000e+00
  SP1r SX2vq  1 4.100000e-01    2.600000e+00
  SP1r SX3vq  1 4.100000e-01    2.840000e+00
  SP1r SX4vq  1 4.100000e-01    2.840000e+00
  SP1r SC1vq  1 4.100000e-01    2.040000e+00
  SP1r SC2vq  1 4.100000e-01    2.200000e+00
  SP1r SC3vq  1 4.100000e-01    2.200000e+00
  SP1r SC4vq  1 4.100000e-01    2.350000e+00
  SP1r SC5vq  1 4.100000e-01    2.600000e+00
  SP1r SC6vq  1 4.100000e-01    2.840000e+00
  SP1r SN1aq  1 4.100000e-01    2.840000e+00
  SP1r SN2aq  1 4.100000e-01    2.840000e+00
  SP1r SN3aq  1 4.100000e-01    2.840000e+00
  SP1r SN4aq  1 4.100000e-01    3.310000e+00
  SP1r SN5aq  1 4.100000e-01    3.310000e+00
  SP1r SN6aq  1 4.100000e-01    3.550000e+00
  SP1r SP1aq  1 4.100000e-01    3.550000e+00
  SP1r SN1dq  1 4.100000e-01    2.840000e+00
  SP1r SN2dq  1 4.100000e-01    2.840000e+00
  SP1r SN3dq  1 4.100000e-01    2.840000e+00
  SP1r SN4dq  1 4.100000e-01    3.310000e+00
  SP1r SN5dq  1 4.100000e-01    3.310000e+00
  SP1r SN6dq  1 4.100000e-01    3.550000e+00
  SP1r SP1dq  1 4.100000e-01    3.550000e+00
  SN6r SX1eq  1 4.100000e-01    2.350000e+00
  SN6r SX2eq  1 4.100000e-01    2.600000e+00
  SN6r SX3eq  1 4.100000e-01    2.840000e+00
  SN6r SX4eq  1 4.100000e-01    3.070000e+00
  SN6r SC1eq  1 4.100000e-01    2.200000e+00
  SN6r SC2eq  1 4.100000e-01    2.350000e+00
  SN6r SC3eq  1 4.100000e-01    2.350000e+00
  SN6r SC4eq  1 4.100000e-01    2.600000e+00
  SN6r SC5eq  1 4.100000e-01    2.840000e+00
  SN6r SC6eq  1 4.100000e-01    3.070000e+00
  SN6r SX1vq  1 4.100000e-01    2.350000e+00
  SN6r SX2vq  1 4.100000e-01    2.600000e+00
  SN6r SX3vq  1 4.100000e-01    2.840000e+00
  SN6r SX4vq  1 4.100000e-01    3.070000e+00
  SN6r SC1vq  1 4.100000e-01    2.200000e+00
  SN6r SC2vq  1 4.100000e-01    2.350000e+00
  SN6r SC3vq  1 4.100000e-01    2.350000e+00
  SN6r SC4vq  1 4.100000e-01    2.600000e+00
  SN6r SC5vq  1 4.100000e-01    2.840000e+00
  SN6r SC6vq  1 4.100000e-01    3.070000e+00
  SN6r SN1aq  1 4.100000e-01    2.840000e+00
  SN6r SN2aq  1 4.100000e-01    2.840000e+00
  SN6r SN3aq  1 4.100000e-01    3.070000e+00
  SN6r SN4aq  1 4.100000e-01    3.550000e+00
  SN6r SN5aq  1 4.100000e-01    3.550000e+00
  SN6r SN6aq  1 4.100000e-01    3.550000e+00
  SN6r SN1dq  1 4.100000e-01    2.840000e+00
  SN6r SN2dq  1 4.100000e-01    2.840000e+00
  SN6r SN3dq  1 4.100000e-01    3.070000e+00
  SN6r SN4dq  1 4.100000e-01    3.550000e+00
  SN6r SN5dq  1 4.100000e-01    3.550000e+00
  SN6r SN6dq  1 4.100000e-01    3.550000e+00
  SN5r SX1eq  1 4.100000e-01    2.600000e+00
  SN5r SX2eq  1 4.100000e-01    2.840000e+00
  SN5r SX3eq  1 4.100000e-01    3.070000e+00
  SN5r SX4eq  1 4.100000e-01    3.310000e+00
  SN5r SC1eq  1 4.100000e-01    2.200000e+00
  SN5r SC2eq  1 4.100000e-01    2.350000e+00
  SN5r SC3eq  1 4.100000e-01    2.600000e+00
  SN5r SC4eq  1 4.100000e-01    2.600000e+00
  SN5r SC5eq  1 4.100000e-01    2.840000e+00
  SN5r SC6eq  1 4.100000e-01    3.070000e+00
  SN5r SX1vq  1 4.100000e-01    2.600000e+00
  SN5r SX2vq  1 4.100000e-01    2.840000e+00
  SN5r SX3vq  1 4.100000e-01    3.070000e+00
  SN5r SX4vq  1 4.100000e-01    3.310000e+00
  SN5r SC1vq  1 4.100000e-01    2.200000e+00
  SN5r SC2vq  1 4.100000e-01    2.350000e+00
  SN5r SC3vq  1 4.100000e-01    2.600000e+00
  SN5r SC4vq  1 4.100000e-01    2.600000e+00
  SN5r SC5vq  1 4.100000e-01    2.840000e+00
  SN5r SC6vq  1 4.100000e-01    3.070000e+00
  SN5r SN1aq  1 4.100000e-01    2.840000e+00
  SN5r SN2aq  1 4.100000e-01    3.070000e+00
  SN5r SN3aq  1 4.100000e-01    3.070000e+00
  SN5r SN4aq  1 4.100000e-01    3.310000e+00
  SN5r SN5aq  1 4.100000e-01    3.310000e+00
  SN5r SN1dq  1 4.100000e-01    2.840000e+00
  SN5r SN2dq  1 4.100000e-01    3.070000e+00
  SN5r SN3dq  1 4.100000e-01    3.070000e+00
  SN5r SN4dq  1 4.100000e-01    3.310000e+00
  SN5r SN5dq  1 4.100000e-01    3.310000e+00
  SN4r SX1eq  1 4.100000e-01    2.600000e+00
  SN4r SX2eq  1 4.100000e-01    2.840000e+00
  SN4r SX3eq  1 4.100000e-01    3.310000e+00
  SN4r SX4eq  1 4.100000e-01    3.550000e+00
  SN4r SC1eq  1 4.100000e-01    2.200000e+00
  SN4r SC2eq  1 4.100000e-01    2.350000e+00
  SN4r SC3eq  1 4.100000e-01    2.600000e+00
  SN4r SC4eq  1 4.100000e-01    2.840000e+00
  SN4r SC5eq  1 4.100000e-01    2.840000e+00
  SN4r SC6eq  1 4.100000e-01    3.070000e+00
  SN4r SX1vq  1 4.100000e-01    2.600000e+00
  SN4r SX2vq  1 4.100000e-01    2.840000e+00
  SN4r SX3vq  1 4.100000e-01    3.310000e+00
  SN4r SX4vq  1 4.100000e-01    3.550000e+00
  SN4r SC1vq  1 4.100000e-01    2.200000e+00
  SN4r SC2vq  1 4.100000e-01    2.350000e+00
  SN4r SC3vq  1 4.100000e-01    2.600000e+00
  SN4r SC4vq  1 4.100000e-01    2.840000e+00
  SN4r SC5vq  1 4.100000e-01    2.840000e+00
  SN4r SC6vq  1 4.100000e-01    3.070000e+00
  SN4r SN1aq  1 4.100000e-01    2.840000e+00
  SN4r SN2aq  1 4.100000e-01    3.070000e+00
  SN4r SN3aq  1 4.100000e-01    3.070000e+00
  SN4r SN4aq  1 4.100000e-01    3.310000e+00
  SN4r SN1dq  1 4.100000e-01    2.840000e+00
  SN4r SN2dq  1 4.100000e-01    3.070000e+00
  SN4r SN3dq  1 4.100000e-01    3.070000e+00
  SN4r SN4dq  1 4.100000e-01    3.310000e+00
  SN3r SX1eq  1 4.100000e-01    2.840000e+00
  SN3r SX2eq  1 4.100000e-01    2.840000e+00
  SN3r SX3eq  1 4.100000e-01    3.070000e+00
  SN3r SX4eq  1 4.100000e-01    3.310000e+00
  SN3r SC1eq  1 4.100000e-01    2.350000e+00
  SN3r SC2eq  1 4.100000e-01    2.600000e+00
  SN3r SC3eq  1 4.100000e-01    2.600000e+00
  SN3r SC4eq  1 4.100000e-01    2.840000e+00
  SN3r SC5eq  1 4.100000e-01    2.840000e+00
  SN3r SC6eq  1 4.100000e-01    3.070000e+00
  SN3r SX1vq  1 4.100000e-01    2.840000e+00
  SN3r SX2vq  1 4.100000e-01    2.840000e+00
  SN3r SX3vq  1 4.100000e-01    3.070000e+00
  SN3r SX4vq  1 4.100000e-01    3.310000e+00
  SN3r SC1vq  1 4.100000e-01    2.350000e+00
  SN3r SC2vq  1 4.100000e-01    2.600000e+00
  SN3r SC3vq  1 4.100000e-01    2.600000e+00
  SN3r SC4vq  1 4.100000e-01    2.840000e+00
  SN3r SC5vq  1 4.100000e-01    2.840000e+00
  SN3r SC6vq  1 4.100000e-01    3.070000e+00
  SN3r SN1aq  1 4.100000e-01    2.840000e+00
  SN3r SN2aq  1 4.100000e-01    3.070000e+00
  SN3r SN3aq  1 4.100000e-01    3.070000e+00
  SN3r SN1dq  1 4.100000e-01    2.840000e+00
  SN3r SN2dq  1 4.100000e-01    3.070000e+00
  SN3r SN3dq  1 4.100000e-01    3.070000e+00
  SN2r SX1eq  1 4.100000e-01    2.840000e+00
  SN2r SX2eq  1 4.100000e-01    2.840000e+00
  SN2r SX3eq  1 4.100000e-01    3.070000e+00
  SN2r SX4eq  1 4.100000e-01    3.310000e+00
  SN2r SC1eq  1 4.100000e-01    2.350000e+00
  SN2r SC2eq  1 4.100000e-01    2.600000e+00
  SN2r SC3eq  1 4.100000e-01    2.840000e+00
  SN2r SC4eq  1 4.100000e-01    2.840000e+00
  SN2r SC5eq  1 4.100000e-01    2.840000e+00
  SN2r SC6eq  1 4.100000e-01    3.070000e+00
  SN2r SX1vq  1 4.100000e-01    2.840000e+00
  SN2r SX2vq  1 4.100000e-01    2.840000e+00
  SN2r SX3vq  1 4.100000e-01    3.070000e+00
  SN2r SX4vq  1 4.100000e-01    3.310000e+00
  SN2r SC1vq  1 4.100000e-01    2.350000e+00
  SN2r SC2vq  1 4.100000e-01    2.600000e+00
  SN2r SC3vq  1 4.100000e-01    2.840000e+00
  SN2r SC4vq  1 4.100000e-01    2.840000e+00
  SN2r SC5vq  1 4.100000e-01    2.840000e+00
  SN2r SC6vq  1 4.100000e-01    3.070000e+00
  SN2r SN1aq  1 4.100000e-01    2.840000e+00
  SN2r SN2aq  1 4.100000e-01    3.070000e+00
  SN2r SN1dq  1 4.100000e-01    2.840000e+00
  SN2r SN2dq  1 4.100000e-01    3.070000e+00
  SN1r SX1eq  1 4.100000e-01    2.840000e+00
  SN1r SX2eq  1 4.100000e-01    2.840000e+00
  SN1r SX3eq  1 4.100000e-01    3.070000e+00
  SN1r SX4eq  1 4.100000e-01    3.070000e+00
  SN1r SC1eq  1 4.100000e-01    2.350000e+00
  SN1r SC2eq  1 4.100000e-01    2.600000e+00
  SN1r SC3eq  1 4.100000e-01    2.840000e+00
  SN1r SC4eq  1 4.100000e-01    3.070000e+00
  SN1r SC5eq  1 4.100000e-01    3.070000e+00
  SN1r SC6eq  1 4.100000e-01    3.310000e+00
  SN1r SX1vq  1 4.100000e-01    2.840000e+00
  SN1r SX2vq  1 4.100000e-01    2.840000e+00
  SN1r SX3vq  1 4.100000e-01    3.070000e+00
  SN1r SX4vq  1 4.100000e-01    3.070000e+00
  SN1r SC1vq  1 4.100000e-01    2.350000e+00
  SN1r SC2vq  1 4.100000e-01    2.600000e+00
  SN1r SC3vq  1 4.100000e-01    2.840000e+00
  SN1r SC4vq  1 4.100000e-01    3.070000e+00
  SN1r SC5vq  1 4.100000e-01    3.070000e+00
  SN1r SC6vq  1 4.100000e-01    3.310000e+00
  SN1r SN1aq  1 4.100000e-01    3.070000e+00
  SN1r SN1dq  1 4.100000e-01    3.070000e+00
  SC6r SX1eq  1 4.100000e-01    3.070000e+00
  SC6r SX2eq  1 4.100000e-01    3.070000e+00
  SC6r SX3eq  1 4.100000e-01    3.070000e+00
  SC6r SX4eq  1 4.100000e-01    3.070000e+00
  SC6r SC1eq  1 4.100000e-01    2.350000e+00
  SC6r SC2eq  1 4.100000e-01    2.600000e+00
  SC6r SC3eq  1 4.100000e-01    2.840000e+00
  SC6r SC4eq  1 4.100000e-01    3.070000e+00
  SC6r SC5eq  1 4.100000e-01    3.070000e+00
  SC6r SC6eq  1 4.100000e-01    3.310000e+00
  SC6r SX1vq  1 4.100000e-01    3.070000e+00
  SC6r SX2vq  1 4.100000e-01    3.070000e+00
  SC6r SX3vq  1 4.100000e-01    3.070000e+00
  SC6r SX4vq  1 4.100000e-01    3.070000e+00
  SC6r SC1vq  1 4.100000e-01    2.350000e+00
  SC6r SC2vq  1 4.100000e-01    2.600000e+00
  SC6r SC3vq  1 4.100000e-01    2.840000e+00
  SC6r SC4vq  1 4.100000e-01    3.070000e+00
  SC6r SC5vq  1 4.100000e-01    3.070000e+00
  SC6r SC6vq  1 4.100000e-01    3.310000e+00
  SC5r SX1eq  1 4.100000e-01    3.070000e+00
  SC5r SX2eq  1 4.100000e-01    2.840000e+00
  SC5r SX3eq  1 4.100000e-01    2.840000e+00
  SC5r SX4eq  1 4.100000e-01    2.840000e+00
  SC5r SC1eq  1 4.100000e-01    2.600000e+00
  SC5r SC2eq  1 4.100000e-01    2.600000e+00
  SC5r SC3eq  1 4.100000e-01    2.840000e+00
  SC5r SC4eq  1 4.100000e-01    3.070000e+00
  SC5r SC5eq  1 4.100000e-01    3.070000e+00
  SC5r SX1vq  1 4.100000e-01    3.070000e+00
  SC5r SX2vq  1 4.100000e-01    2.840000e+00
  SC5r SX3vq  1 4.100000e-01    2.840000e+00
  SC5r SX4vq  1 4.100000e-01    2.840000e+00
  SC5r SC1vq  1 4.100000e-01    2.600000e+00
  SC5r SC2vq  1 4.100000e-01    2.600000e+00
  SC5r SC3vq  1 4.100000e-01    2.840000e+00
  SC5r SC4vq  1 4.100000e-01    3.070000e+00
  SC5r SC5vq  1 4.100000e-01    3.070000e+00
  SC4r SX1eq  1 4.100000e-01    3.070000e+00
  SC4r SX2eq  1 4.100000e-01    2.840000e+00
  SC4r SX3eq  1 4.100000e-01    2.840000e+00
  SC4r SX4eq  1 4.100000e-01    2.840000e+00
  SC4r SC1eq  1 4.100000e-01    2.600000e+00
  SC4r SC2eq  1 4.100000e-01    2.840000e+00
  SC4r SC3eq  1 4.100000e-01    3.070000e+00
  SC4r SC4eq  1 4.100000e-01    3.070000e+00
  SC4r SX1vq  1 4.100000e-01    3.070000e+00
  SC4r SX2vq  1 4.100000e-01    2.840000e+00
  SC4r SX3vq  1 4.100000e-01    2.840000e+00
  SC4r SX4vq  1 4.100000e-01    2.840000e+00
  SC4r SC1vq  1 4.100000e-01    2.600000e+00
  SC4r SC2vq  1 4.100000e-01    2.840000e+00
  SC4r SC3vq  1 4.100000e-01    3.070000e+00
  SC4r SC4vq  1 4.100000e-01    3.070000e+00
  SC3r SX1eq  1 4.100000e-01    3.070000e+00
  SC3r SX2eq  1 4.100000e-01    2.840000e+00
  SC3r SX3eq  1 4.100000e-01    2.840000e+00
  SC3r SX4eq  1 4.100000e-01    2.840000e+00
  SC3r SC1eq  1 4.100000e-01    3.070000e+00
  SC3r SC2eq  1 4.100000e-01    3.070000e+00
  SC3r SC3eq  1 4.100000e-01    3.070000e+00
  SC3r SX1vq  1 4.100000e-01    3.070000e+00
  SC3r SX2vq  1 4.100000e-01    2.840000e+00
  SC3r SX3vq  1 4.100000e-01    2.840000e+00
  SC3r SX4vq  1 4.100000e-01    2.840000e+00
  SC3r SC1vq  1 4.100000e-01    3.070000e+00
  SC3r SC2vq  1 4.100000e-01    3.070000e+00
  SC3r SC3vq  1 4.100000e-01    3.070000e+00
  SC2r SX1eq  1 4.100000e-01    2.840000e+00
  SC2r SX2eq  1 4.100000e-01    2.840000e+00
  SC2r SX3eq  1 4.100000e-01    2.840000e+00
  SC2r SX4eq  1 4.100000e-01    2.350000e+00
  SC2r SC1eq  1 4.100000e-01    3.310000e+00
  SC2r SC2eq  1 4.100000e-01    3.070000e+00
  SC2r SX1vq  1 4.100000e-01    2.840000e+00
  SC2r SX2vq  1 4.100000e-01    2.840000e+00
  SC2r SX3vq  1 4.100000e-01    2.840000e+00
  SC2r SX4vq  1 4.100000e-01    2.350000e+00
  SC2r SC1vq  1 4.100000e-01    3.310000e+00
  SC2r SC2vq  1 4.100000e-01    3.070000e+00
  SC1r SX1eq  1 4.100000e-01    2.840000e+00
  SC1r SX2eq  1 4.100000e-01    2.840000e+00
  SC1r SX3eq  1 4.100000e-01    2.840000e+00
  SC1r SX4eq  1 4.100000e-01    2.350000e+00
  SC1r SC1eq  1 4.100000e-01    3.070000e+00
  SC1r SX1vq  1 4.100000e-01    2.840000e+00
  SC1r SX2vq  1 4.100000e-01    2.840000e+00
  SC1r SX3vq  1 4.100000e-01    2.840000e+00
  SC1r SX4vq  1 4.100000e-01    2.350000e+00
  SC1r SC1vq  1 4.100000e-01    3.070000e+00
  SX4r SX1eq  1 4.100000e-01    3.070000e+00
  SX4r SX2eq  1 4.100000e-01    3.070000e+00
  SX4r SX3eq  1 4.100000e-01    3.070000e+00
  SX4r SX4eq  1 4.100000e-01    3.070000e+00
  SX4r SX1vq  1 4.100000e-01    3.070000e+00
  SX4r SX2vq  1 4.100000e-01    3.070000e+00
  SX4r SX3vq  1 4.100000e-01    3.070000e+00
  SX4r SX4vq  1 4.100000e-01    3.070000e+00
  SX3r SX1eq  1 4.100000e-01    3.310000e+00
  SX3r SX2eq  1 4.100000e-01    3.310000e+00
  SX3r SX3eq  1 4.100000e-01    3.070000e+00
  SX3r SX1vq  1 4.100000e-01    3.310000e+00
  SX3r SX2vq  1 4.100000e-01    3.310000e+00
  SX3r SX3vq  1 4.100000e-01    3.070000e+00
  SX2r SX1eq  1 4.100000e-01    3.310000e+00
  SX2r SX2eq  1 4.100000e-01    3.310000e+00
  SX2r SX1vq  1 4.100000e-01    3.310000e+00
  SX2r SX2vq  1 4.100000e-01    3.310000e+00
  SX1r SX1eq  1 4.100000e-01    3.550000e+00
  SX1r SX1vq  1 4.100000e-01    3.550000e+00
  SP6d SP6dr  1 4.100000e-01    4.040000e+00
  SP6q SP6dr  1 4.100000e-01    4.840000e+00
  SP5d SP5dr  1 4.100000e-01    3.550000e+00
  SP6a SP5dr  1 4.100000e-01    4.290000e+00
  SP6q SP5dr  1 4.100000e-01    4.550000e+00
  SP5q SP5dr  1 4.100000e-01    4.290000e+00
  SP4d SP4dr  1 4.100000e-01    3.310000e+00
  SP6a SP4dr  1 4.100000e-01    4.040000e+00
  SP5a SP4dr  1 4.100000e-01    3.820000e+00
  SP6q SP4dr  1 4.100000e-01    4.290000e+00
  SP5q SP4dr  1 4.100000e-01    4.040000e+00
  SP4q SP4dr  1 4.100000e-01    4.040000e+00
  SP3d SP3dr  1 4.100000e-01    3.070000e+00
  SP6a SP3dr  1 4.100000e-01    3.820000e+00
  SP5a SP3dr  1 4.100000e-01    3.550000e+00
  SP4a SP3dr  1 4.100000e-01    3.550000e+00
  SP6q SP3dr  1 4.100000e-01    4.040000e+00
  SP5q SP3dr  1 4.100000e-01    3.820000e+00
  SP4q SP3dr  1 4.100000e-01    3.820000e+00
  SP3q SP3dr  1 4.100000e-01    3.820000e+00
  SP2d SP2dr  1 4.100000e-01    3.070000e+00
  SP6a SP2dr  1 4.100000e-01    3.820000e+00
  SP5a SP2dr  1 4.100000e-01    3.550000e+00
  SP4a SP2dr  1 4.100000e-01    3.550000e+00
  SP3a SP2dr  1 4.100000e-01    3.550000e+00
  SP6q SP2dr  1 4.100000e-01    4.040000e+00
  SP5q SP2dr  1 4.100000e-01    3.820000e+00
  SP4q SP2dr  1 4.100000e-01    3.820000e+00
  SP3q SP2dr  1 4.100000e-01    3.820000e+00
  SP2q SP2dr  1 4.100000e-01    3.820000e+00
  SP1d SP1dr  1 4.100000e-01    2.840000e+00
  SP6a SP1dr  1 4.100000e-01    3.550000e+00
  SP5a SP1dr  1 4.100000e-01    3.310000e+00
  SP4a SP1dr  1 4.100000e-01    3.310000e+00
  SP3a SP1dr  1 4.100000e-01    3.310000e+00
  SP2a SP1dr  1 4.100000e-01    3.310000e+00
  SP6q SP1dr  1 4.100000e-01    3.820000e+00
  SP5q SP1dr  1 4.100000e-01    3.550000e+00
  SP4q SP1dr  1 4.100000e-01    3.550000e+00
  SP3q SP1dr  1 4.100000e-01    3.550000e+00
  SP2q SP1dr  1 4.100000e-01    3.550000e+00
  SP1q SP1dr  1 4.100000e-01    3.550000e+00
  SN6d SN6dr  1 4.100000e-01    2.840000e+00
  SP6a SN6dr  1 4.100000e-01    3.310000e+00
  SP5a SN6dr  1 4.100000e-01    3.070000e+00
  SP4a SN6dr  1 4.100000e-01    3.070000e+00
  SP3a SN6dr  1 4.100000e-01    3.070000e+00
  SP2a SN6dr  1 4.100000e-01    3.310000e+00
  SP1a SN6dr  1 4.100000e-01    3.310000e+00
  SP6q SN6dr  1 4.100000e-01    3.550000e+00
  SP5q SN6dr  1 4.100000e-01    3.310000e+00
  SP4q SN6dr  1 4.100000e-01    3.310000e+00
  SP3q SN6dr  1 4.100000e-01    3.310000e+00
  SP2q SN6dr  1 4.100000e-01    3.550000e+00
  SP1q SN6dr  1 4.100000e-01    3.550000e+00
  SN6q SN6dr  1 4.100000e-01    3.550000e+00
  SN5d SN5dr  1 4.100000e-01    2.600000e+00
  SP6a SN5dr  1 4.100000e-01    2.840000e+00
  SP5a SN5dr  1 4.100000e-01    2.840000e+00
  SP4a SN5dr  1 4.100000e-01    2.840000e+00
  SP3a SN5dr  1 4.100000e-01    2.840000e+00
  SP2a SN5dr  1 4.100000e-01    3.070000e+00
  SP1a SN5dr  1 4.100000e-01    3.070000e+00
  SN6a SN5dr  1 4.100000e-01    3.310000e+00
  SP6q SN5dr  1 4.100000e-01    3.070000e+00
  SP5q SN5dr  1 4.100000e-01    3.070000e+00
  SP4q SN5dr  1 4.100000e-01    3.070000e+00
  SP3q SN5dr  1 4.100000e-01    3.070000e+00
  SP2q SN5dr  1 4.100000e-01    3.310000e+00
  SP1q SN5dr  1 4.100000e-01    3.310000e+00
  SN6q SN5dr  1 4.100000e-01    3.550000e+00
  SN5q SN5dr  1 4.100000e-01    3.310000e+00
  SN4d SN4dr  1 4.100000e-01    2.600000e+00
  SP6a SN4dr  1 4.100000e-01    2.600000e+00
  SP5a SN4dr  1 4.100000e-01    2.840000e+00
  SP4a SN4dr  1 4.100000e-01    2.840000e+00
  SP3a SN4dr  1 4.100000e-01    2.840000e+00
  SP2a SN4dr  1 4.100000e-01    2.840000e+00
  SP1a SN4dr  1 4.100000e-01    3.070000e+00
  SN6a SN4dr  1 4.100000e-01    3.310000e+00
  SN5a SN4dr  1 4.100000e-01    3.070000e+00
  SP6q SN4dr  1 4.100000e-01    2.840000e+00
  SP5q SN4dr  1 4.100000e-01    3.070000e+00
  SP4q SN4dr  1 4.100000e-01    3.070000e+00
  SP3q SN4dr  1 4.100000e-01    3.070000e+00
  SP2q SN4dr  1 4.100000e-01    3.070000e+00
  SP1q SN4dr  1 4.100000e-01    3.310000e+00
  SN6q SN4dr  1 4.100000e-01    3.550000e+00
  SN5q SN4dr  1 4.100000e-01    3.310000e+00
  SN4q SN4dr  1 4.100000e-01    3.310000e+00
  SN3d SN3dr  1 4.100000e-01    2.350000e+00
  SP6a SN3dr  1 4.100000e-01    2.200000e+00
  SP5a SN3dr  1 4.100000e-01    2.200000e+00
  SP4a SN3dr  1 4.100000e-01    2.600000e+00
  SP3a SN3dr  1 4.100000e-01    2.600000e+00
  SP2a SN3dr  1 4.100000e-01    2.600000e+00
  SP1a SN3dr  1 4.100000e-01    2.600000e+00
  SN6a SN3dr  1 4.100000e-01    2.840000e+00
  SN5a SN3dr  1 4.100000e-01    2.840000e+00
  SN4a SN3dr  1 4.100000e-01    2.840000e+00
  SP6q SN3dr  1 4.100000e-01    2.600000e+00
  SP5q SN3dr  1 4.100000e-01    2.600000e+00
  SP4q SN3dr  1 4.100000e-01    2.840000e+00
  SP3q SN3dr  1 4.100000e-01    2.840000e+00
  SP2q SN3dr  1 4.100000e-01    2.840000e+00
  SP1q SN3dr  1 4.100000e-01    2.840000e+00
  SN6q SN3dr  1 4.100000e-01    3.070000e+00
  SN5q SN3dr  1 4.100000e-01    3.070000e+00
  SN4q SN3dr  1 4.100000e-01    3.070000e+00
  SN3q SN3dr  1 4.100000e-01    3.070000e+00
  SN2d SN2dr  1 4.100000e-01    2.350000e+00
  SP6a SN2dr  1 4.100000e-01    2.040000e+00
  SP5a SN2dr  1 4.100000e-01    2.040000e+00
  SP4a SN2dr  1 4.100000e-01    2.200000e+00
  SP3a SN2dr  1 4.100000e-01    2.600000e+00
  SP2a SN2dr  1 4.100000e-01    2.600000e+00
  SP1a SN2dr  1 4.100000e-01    2.600000e+00
  SN6a SN2dr  1 4.100000e-01    2.600000e+00
  SN5a SN2dr  1 4.100000e-01    2.840000e+00
  SN4a SN2dr  1 4.100000e-01    2.840000e+00
  SN3a SN2dr  1 4.100000e-01    2.840000e+00
  SP6q SN2dr  1 4.100000e-01    2.350000e+00
  SP5q SN2dr  1 4.100000e-01    2.350000e+00
  SP4q SN2dr  1 4.100000e-01    2.600000e+00
  SP3q SN2dr  1 4.100000e-01    2.840000e+00
  SP2q SN2dr  1 4.100000e-01    2.840000e+00
  SP1q SN2dr  1 4.100000e-01    2.840000e+00
  SN6q SN2dr  1 4.100000e-01    2.840000e+00
  SN5q SN2dr  1 4.100000e-01    3.070000e+00
  SN4q SN2dr  1 4.100000e-01    3.070000e+00
  SN3q SN2dr  1 4.100000e-01    3.070000e+00
  SN2q SN2dr  1 4.100000e-01    3.070000e+00
  SN1d SN1dr  1 4.100000e-01    2.350000e+00
  SP6a SN1dr  1 4.100000e-01    1.910000e+00
  SP5a SN1dr  1 4.100000e-01    1.910000e+00
  SP4a SN1dr  1 4.100000e-01    2.040000e+00
  SP3a SN1dr  1 4.100000e-01    2.200000e+00
  SP2a SN1dr  1 4.100000e-01    2.600000e+00
  SP1a SN1dr  1 4.100000e-01    2.600000e+00
  SN6a SN1dr  1 4.100000e-01    2.600000e+00
  SN5a SN1dr  1 4.100000e-01    2.600000e+00
  SN4a SN1dr  1 4.100000e-01    2.600000e+00
  SN3a SN1dr  1 4.100000e-01    2.600000e+00
  SN2a SN1dr  1 4.100000e-01    2.600000e+00
  SP6q SN1dr  1 4.100000e-01    2.200000e+00
  SP5q SN1dr  1 4.100000e-01    2.200000e+00
  SP4q SN1dr  1 4.100000e-01    2.350000e+00
  SP3q SN1dr  1 4.100000e-01    2.600000e+00
  SP2q SN1dr  1 4.100000e-01    2.840000e+00
  SP1q SN1dr  1 4.100000e-01    2.840000e+00
  SN6q SN1dr  1 4.100000e-01    2.840000e+00
  SN5q SN1dr  1 4.100000e-01    2.840000e+00
  SN4q SN1dr  1 4.100000e-01    2.840000e+00
  SN3q SN1dr  1 4.100000e-01    2.840000e+00
  SN2q SN1dr  1 4.100000e-01    2.840000e+00
  SN1q SN1dr  1 4.100000e-01    3.070000e+00
  SP6a SP6ar  1 4.100000e-01    4.040000e+00
  SP6q SP6ar  1 4.100000e-01    4.840000e+00
  SP5a SP5ar  1 4.100000e-01    3.550000e+00
  SP6q SP5ar  1 4.100000e-01    4.550000e+00
  SP5q SP5ar  1 4.100000e-01    4.290000e+00
  SP4a SP4ar  1 4.100000e-01    3.310000e+00
  SP6q SP4ar  1 4.100000e-01    4.290000e+00
  SP5q SP4ar  1 4.100000e-01    4.040000e+00
  SP4q SP4ar  1 4.100000e-01    4.040000e+00
  SP3a SP3ar  1 4.100000e-01    3.070000e+00
  SP6q SP3ar  1 4.100000e-01    4.040000e+00
  SP5q SP3ar  1 4.100000e-01    3.820000e+00
  SP4q SP3ar  1 4.100000e-01    3.820000e+00
  SP3q SP3ar  1 4.100000e-01    3.820000e+00
  SP2a SP2ar  1 4.100000e-01    3.070000e+00
  SP6q SP2ar  1 4.100000e-01    4.040000e+00
  SP5q SP2ar  1 4.100000e-01    3.820000e+00
  SP4q SP2ar  1 4.100000e-01    3.820000e+00
  SP3q SP2ar  1 4.100000e-01    3.820000e+00
  SP2q SP2ar  1 4.100000e-01    3.820000e+00
  SP1a SP1ar  1 4.100000e-01    2.840000e+00
  SP6q SP1ar  1 4.100000e-01    3.820000e+00
  SP5q SP1ar  1 4.100000e-01    3.550000e+00
  SP4q SP1ar  1 4.100000e-01    3.550000e+00
  SP3q SP1ar  1 4.100000e-01    3.550000e+00
  SP2q SP1ar  1 4.100000e-01    3.550000e+00
  SP1q SP1ar  1 4.100000e-01    3.550000e+00
  SN6a SN6ar  1 4.100000e-01    2.840000e+00
  SP6q SN6ar  1 4.100000e-01    3.550000e+00
  SP5q SN6ar  1 4.100000e-01    3.310000e+00
  SP4q SN6ar  1 4.100000e-01    3.310000e+00
  SP3q SN6ar  1 4.100000e-01    3.310000e+00
  SP2q SN6ar  1 4.100000e-01    3.550000e+00
  SP1q SN6ar  1 4.100000e-01    3.550000e+00
  SN6q SN6ar  1 4.100000e-01    3.550000e+00
  SN5a SN5ar  1 4.100000e-01    2.600000e+00
  SP6q SN5ar  1 4.100000e-01    3.070000e+00
  SP5q SN5ar  1 4.100000e-01    3.070000e+00
  SP4q SN5ar  1 4.100000e-01    3.070000e+00
  SP3q SN5ar  1 4.100000e-01    3.070000e+00
  SP2q SN5ar  1 4.100000e-01    3.310000e+00
  SP1q SN5ar  1 4.100000e-01    3.310000e+00
  SN6q SN5ar  1 4.100000e-01    3.550000e+00
  SN5q SN5ar  1 4.100000e-01    3.310000e+00
  SN4a SN4ar  1 4.100000e-01    2.600000e+00
  SP6q SN4ar  1 4.100000e-01    2.840000e+00
  SP5q SN4ar  1 4.100000e-01    3.070000e+00
  SP4q SN4ar  1 4.100000e-01    3.070000e+00
  SP3q SN4ar  1 4.100000e-01    3.070000e+00
  SP2q SN4ar  1 4.100000e-01    3.070000e+00
  SP1q SN4ar  1 4.100000e-01    3.310000e+00
  SN6q SN4ar  1 4.100000e-01    3.550000e+00
  SN5q SN4ar  1 4.100000e-01    3.310000e+00
  SN4q SN4ar  1 4.100000e-01    3.310000e+00
  SN3a SN3ar  1 4.100000e-01    2.350000e+00
  SP6q SN3ar  1 4.100000e-01    2.600000e+00
  SP5q SN3ar  1 4.100000e-01    2.600000e+00
  SP4q SN3ar  1 4.100000e-01    2.840000e+00
  SP3q SN3ar  1 4.100000e-01    2.840000e+00
  SP2q SN3ar  1 4.100000e-01    2.840000e+00
  SP1q SN3ar  1 4.100000e-01    2.840000e+00
  SN6q SN3ar  1 4.100000e-01    3.070000e+00
  SN5q SN3ar  1 4.100000e-01    3.070000e+00
  SN4q SN3ar  1 4.100000e-01    3.070000e+00
  SN3q SN3ar  1 4.100000e-01    3.070000e+00
  SN2a SN2ar  1 4.100000e-01    2.350000e+00
  SP6q SN2ar  1 4.100000e-01    2.350000e+00
  SP5q SN2ar  1 4.100000e-01    2.350000e+00
  SP4q SN2ar  1 4.100000e-01    2.600000e+00
  SP3q SN2ar  1 4.100000e-01    2.840000e+00
  SP2q SN2ar  1 4.100000e-01    2.840000e+00
  SP1q SN2ar  1 4.100000e-01    2.840000e+00
  SN6q SN2ar  1 4.100000e-01    2.840000e+00
  SN5q SN2ar  1 4.100000e-01    3.070000e+00
  SN4q SN2ar  1 4.100000e-01    3.070000e+00
  SN3q SN2ar  1 4.100000e-01    3.070000e+00
  SN2q SN2ar  1 4.100000e-01    3.070000e+00
  SN1a SN1ar  1 4.100000e-01    2.350000e+00
  SP6q SN1ar  1 4.100000e-01    2.200000e+00
  SP5q SN1ar  1 4.100000e-01    2.200000e+00
  SP4q SN1ar  1 4.100000e-01    2.350000e+00
  SP3q SN1ar  1 4.100000e-01    2.600000e+00
  SP2q SN1ar  1 4.100000e-01    2.840000e+00
  SP1q SN1ar  1 4.100000e-01    2.840000e+00
  SN6q SN1ar  1 4.100000e-01    2.840000e+00
  SN5q SN1ar  1 4.100000e-01    2.840000e+00
  SN4q SN1ar  1 4.100000e-01    2.840000e+00
  SN3q SN1ar  1 4.100000e-01    2.840000e+00
  SN2q SN1ar  1 4.100000e-01    2.840000e+00
  SN1q SN1ar  1 4.100000e-01    3.070000e+00
  SC6v SC6vr  1 4.100000e-01    2.350000e+00
  SP6q SC6vr  1 4.100000e-01    2.350000e+00
  SP5q SC6vr  1 4.100000e-01    2.350000e+00
  SP4q SC6vr  1 4.100000e-01    2.600000e+00
  SP3q SC6vr  1 4.100000e-01    2.840000e+00
  SP2q SC6vr  1 4.100000e-01    2.840000e+00
  SP1q SC6vr  1 4.100000e-01    2.840000e+00
  SN6q SC6vr  1 4.100000e-01    3.070000e+00
  SN5q SC6vr  1 4.100000e-01    3.070000e+00
  SN4q SC6vr  1 4.100000e-01    3.070000e+00
  SN3q SC6vr  1 4.100000e-01    3.070000e+00
  SN2q SC6vr  1 4.100000e-01    3.070000e+00
  SN1q SC6vr  1 4.100000e-01    3.310000e+00
  SC6q SC6vr  1 4.100000e-01    3.310000e+00
  SC5v SC5vr  1 4.100000e-01    2.200000e+00
  SC6e SC5vr  1 4.100000e-01    2.840000e+00
  SP6q SC5vr  1 4.100000e-01    2.200000e+00
  SP5q SC5vr  1 4.100000e-01    2.350000e+00
  SP4q SC5vr  1 4.100000e-01    2.350000e+00
  SP3q SC5vr  1 4.100000e-01    2.600000e+00
  SP2q SC5vr  1 4.100000e-01    2.600000e+00
  SP1q SC5vr  1 4.100000e-01    2.600000e+00
  SN6q SC5vr  1 4.100000e-01    2.840000e+00
  SN5q SC5vr  1 4.100000e-01    2.840000e+00
  SN4q SC5vr  1 4.100000e-01    2.840000e+00
  SN3q SC5vr  1 4.100000e-01    2.840000e+00
  SN2q SC5vr  1 4.100000e-01    2.840000e+00
  SN1q SC5vr  1 4.100000e-01    3.070000e+00
  SC6q SC5vr  1 4.100000e-01    3.070000e+00
  SC5q SC5vr  1 4.100000e-01    3.070000e+00
  SC4v SC4vr  1 4.100000e-01    2.200000e+00
  SC6e SC4vr  1 4.100000e-01    2.840000e+00
  SC5e SC4vr  1 4.100000e-01    2.840000e+00
  SP6q SC4vr  1 4.100000e-01    2.040000e+00
  SP5q SC4vr  1 4.100000e-01    2.200000e+00
  SP4q SC4vr  1 4.100000e-01    2.200000e+00
  SP3q SC4vr  1 4.100000e-01    2.350000e+00
  SP2q SC4vr  1 4.100000e-01    2.350000e+00
  SP1q SC4vr  1 4.100000e-01    2.350000e+00
  SN6q SC4vr  1 4.100000e-01    2.600000e+00
  SN5q SC4vr  1 4.100000e-01    2.600000e+00
  SN4q SC4vr  1 4.100000e-01    2.840000e+00
  SN3q SC4vr  1 4.100000e-01    2.840000e+00
  SN2q SC4vr  1 4.100000e-01    2.840000e+00
  SN1q SC4vr  1 4.100000e-01    3.070000e+00
  SC6q SC4vr  1 4.100000e-01    3.070000e+00
  SC5q SC4vr  1 4.100000e-01    3.070000e+00
  SC4q SC4vr  1 4.100000e-01    3.070000e+00
  SC3v SC3vr  1 4.100000e-01    2.200000e+00
  SC6e SC3vr  1 4.100000e-01    2.600000e+00
  SC5e SC3vr  1 4.100000e-01    2.600000e+00
  SC4e SC3vr  1 4.100000e-01    2.840000e+00
  SP6q SC3vr  1 4.100000e-01    1.910000e+00
  SP5q SC3vr  1 4.100000e-01    2.040000e+00
  SP4q SC3vr  1 4.100000e-01    2.040000e+00
  SP3q SC3vr  1 4.100000e-01    2.040000e+00
  SP2q SC3vr  1 4.100000e-01    2.200000e+00
  SP1q SC3vr  1 4.100000e-01    2.200000e+00
  SN6q SC3vr  1 4.100000e-01    2.350000e+00
  SN5q SC3vr  1 4.100000e-01    2.600000e+00
  SN4q SC3vr  1 4.100000e-01    2.600000e+00
  SN3q SC3vr  1 4.100000e-01    2.600000e+00
  SN2q SC3vr  1 4.100000e-01    2.840000e+00
  SN1q SC3vr  1 4.100000e-01    2.840000e+00
  SC6q SC3vr  1 4.100000e-01    2.840000e+00
  SC5q SC3vr  1 4.100000e-01    2.840000e+00
  SC4q SC3vr  1 4.100000e-01    3.070000e+00
  SC3q SC3vr  1 4.100000e-01    3.070000e+00
  SC2v SC2vr  1 4.100000e-01    2.200000e+00
  SC6e SC2vr  1 4.100000e-01    2.350000e+00
  SC5e SC2vr  1 4.100000e-01    2.350000e+00
  SC4e SC2vr  1 4.100000e-01    2.600000e+00
  SC3e SC2vr  1 4.100000e-01    2.840000e+00
  SP6q SC2vr  1 4.100000e-01    1.910000e+00
  SP5q SC2vr  1 4.100000e-01    2.040000e+00
  SP4q SC2vr  1 4.100000e-01    2.040000e+00
  SP3q SC2vr  1 4.100000e-01    2.040000e+00
  SP2q SC2vr  1 4.100000e-01    2.200000e+00
  SP1q SC2vr  1 4.100000e-01    2.200000e+00
  SN6q SC2vr  1 4.100000e-01    2.350000e+00
  SN5q SC2vr  1 4.100000e-01    2.350000e+00
  SN4q SC2vr  1 4.100000e-01    2.350000e+00
  SN3q SC2vr  1 4.100000e-01    2.600000e+00
  SN2q SC2vr  1 4.100000e-01    2.600000e+00
  SN1q SC2vr  1 4.100000e-01    2.600000e+00
  SC6q SC2vr  1 4.100000e-01    2.600000e+00
  SC5q SC2vr  1 4.100000e-01    2.600000e+00
  SC4q SC2vr  1 4.100000e-01    2.840000e+00
  SC3q SC2vr  1 4.100000e-01    3.070000e+00
  SC2q SC2vr  1 4.100000e-01    3.070000e+00
  SC1v SC1vr  1 4.100000e-01    2.200000e+00
  SC6e SC1vr  1 4.100000e-01    2.200000e+00
  SC5e SC1vr  1 4.100000e-01    2.350000e+00
  SC4e SC1vr  1 4.100000e-01    2.350000e+00
  SC3e SC1vr  1 4.100000e-01    2.840000e+00
  SC2e SC1vr  1 4.100000e-01    3.070000e+00
  SP6q SC1vr  1 4.140000e-01    1.560000e+00
  SP5q SC1vr  1 4.100000e-01    1.910000e+00
  SP4q SC1vr  1 4.100000e-01    1.910000e+00
  SP3q SC1vr  1 4.100000e-01    1.910000e+00
  SP2q SC1vr  1 4.100000e-01    2.040000e+00
  SP1q SC1vr  1 4.100000e-01    2.040000e+00
  SN6q SC1vr  1 4.100000e-01    2.200000e+00
  SN5q SC1vr  1 4.100000e-01    2.200000e+00
  SN4q SC1vr  1 4.100000e-01    2.200000e+00
  SN3q SC1vr  1 4.100000e-01    2.350000e+00
  SN2q SC1vr  1 4.100000e-01    2.350000e+00
  SN1q SC1vr  1 4.100000e-01    2.350000e+00
  SC6q SC1vr  1 4.100000e-01    2.350000e+00
  SC5q SC1vr  1 4.100000e-01    2.600000e+00
  SC4q SC1vr  1 4.100000e-01    2.600000e+00
  SC3q SC1vr  1 4.100000e-01    3.070000e+00
  SC2q SC1vr  1 4.100000e-01    3.310000e+00
  SC1q SC1vr  1 4.100000e-01    3.070000e+00
  SX4v SX4vr  1 4.100000e-01    2.200000e+00
  SC6e SX4vr  1 4.100000e-01    2.840000e+00
  SC5e SX4vr  1 4.100000e-01    2.600000e+00
  SC4e SX4vr  1 4.100000e-01    2.600000e+00
  SC3e SX4vr  1 4.100000e-01    2.600000e+00
  SC2e SX4vr  1 4.100000e-01    2.200000e+00
  SC1e SX4vr  1 4.100000e-01    2.200000e+00
  SP6q SX4vr  1 4.100000e-01    2.600000e+00
  SP5q SX4vr  1 4.100000e-01    2.840000e+00
  SP4q SX4vr  1 4.100000e-01    2.840000e+00
  SP3q SX4vr  1 4.100000e-01    2.840000e+00
  SP2q SX4vr  1 4.100000e-01    2.840000e+00
  SP1q SX4vr  1 4.100000e-01    2.840000e+00
  SN6q SX4vr  1 4.100000e-01    3.070000e+00
  SN5q SX4vr  1 4.100000e-01    3.310000e+00
  SN4q SX4vr  1 4.100000e-01    3.550000e+00
  SN3q SX4vr  1 4.100000e-01    3.310000e+00
  SN2q SX4vr  1 4.100000e-01    3.310000e+00
  SN1q SX4vr  1 4.100000e-01    3.070000e+00
  SC6q SX4vr  1 4.100000e-01    3.070000e+00
  SC5q SX4vr  1 4.100000e-01    2.840000e+00
  SC4q SX4vr  1 4.100000e-01    2.840000e+00
  SC3q SX4vr  1 4.100000e-01    2.840000e+00
  SC2q SX4vr  1 4.100000e-01    2.350000e+00
  SC1q SX4vr  1 4.100000e-01    2.350000e+00
  SX4q SX4vr  1 4.100000e-01    3.070000e+00
  SX3v SX3vr  1 4.100000e-01    2.200000e+00
  SC6e SX3vr  1 4.100000e-01    2.840000e+00
  SC5e SX3vr  1 4.100000e-01    2.600000e+00
  SC4e SX3vr  1 4.100000e-01    2.600000e+00
  SC3e SX3vr  1 4.100000e-01    2.600000e+00
  SC2e SX3vr  1 4.100000e-01    2.600000e+00
  SC1e SX3vr  1 4.100000e-01    2.600000e+00
  SX4e SX3vr  1 4.100000e-01    2.840000e+00
  SP6q SX3vr  1 4.100000e-01    2.600000e+00
  SP5q SX3vr  1 4.100000e-01    2.600000e+00
  SP4q SX3vr  1 4.100000e-01    2.600000e+00
  SP3q SX3vr  1 4.100000e-01    2.840000e+00
  SP2q SX3vr  1 4.100000e-01    2.840000e+00
  SP1q SX3vr  1 4.100000e-01    2.840000e+00
  SN6q SX3vr  1 4.100000e-01    2.840000e+00
  SN5q SX3vr  1 4.100000e-01    3.070000e+00
  SN4q SX3vr  1 4.100000e-01    3.310000e+00
  SN3q SX3vr  1 4.100000e-01    3.070000e+00
  SN2q SX3vr  1 4.100000e-01    3.070000e+00
  SN1q SX3vr  1 4.100000e-01    3.070000e+00
  SC6q SX3vr  1 4.100000e-01    3.070000e+00
  SC5q SX3vr  1 4.100000e-01    2.840000e+00
  SC4q SX3vr  1 4.100000e-01    2.840000e+00
  SC3q SX3vr  1 4.100000e-01    2.840000e+00
  SC2q SX3vr  1 4.100000e-01    2.840000e+00
  SC1q SX3vr  1 4.100000e-01    2.840000e+00
  SX4q SX3vr  1 4.100000e-01    3.070000e+00
  SX3q SX3vr  1 4.100000e-01    3.070000e+00
  SX2v SX2vr  1 4.100000e-01    2.350000e+00
  SC6e SX2vr  1 4.100000e-01    2.840000e+00
  SC5e SX2vr  1 4.100000e-01    2.600000e+00
  SC4e SX2vr  1 4.100000e-01    2.600000e+00
  SC3e SX2vr  1 4.100000e-01    2.600000e+00
  SC2e SX2vr  1 4.100000e-01    2.600000e+00
  SC1e SX2vr  1 4.100000e-01    2.600000e+00
  SX4e SX2vr  1 4.100000e-01    2.840000e+00
  SX3e SX2vr  1 4.100000e-01    3.070000e+00
  SP6q SX2vr  1 4.100000e-01    2.350000e+00
  SP5q SX2vr  1 4.100000e-01    2.600000e+00
  SP4q SX2vr  1 4.100000e-01    2.600000e+00
  SP3q SX2vr  1 4.100000e-01    2.600000e+00
  SP2q SX2vr  1 4.100000e-01    2.600000e+00
  SP1q SX2vr  1 4.100000e-01    2.600000e+00
  SN6q SX2vr  1 4.100000e-01    2.600000e+00
  SN5q SX2vr  1 4.100000e-01    2.840000e+00
  SN4q SX2vr  1 4.100000e-01    2.840000e+00
  SN3q SX2vr  1 4.100000e-01    2.840000e+00
  SN2q SX2vr  1 4.100000e-01    2.840000e+00
  SN1q SX2vr  1 4.100000e-01    2.840000e+00
  SC6q SX2vr  1 4.100000e-01    3.070000e+00
  SC5q SX2vr  1 4.100000e-01    2.840000e+00
  SC4q SX2vr  1 4.100000e-01    2.840000e+00
  SC3q SX2vr  1 4.100000e-01    2.840000e+00
  SC2q SX2vr  1 4.100000e-01    2.840000e+00
  SC1q SX2vr  1 4.100000e-01    2.840000e+00
  SX4q SX2vr  1 4.100000e-01    3.070000e+00
  SX3q SX2vr  1 4.100000e-01    3.310000e+00
  SX2q SX2vr  1 4.100000e-01    3.310000e+00
  SX1v SX1vr  1 4.100000e-01    2.600000e+00
  SC6e SX1vr  1 4.100000e-01    2.840000e+00
  SC5e SX1vr  1 4.100000e-01    2.840000e+00
  SC4e SX1vr  1 4.100000e-01    2.840000e+00
  SC3e SX1vr  1 4.100000e-01    2.840000e+00
  SC2e SX1vr  1 4.100000e-01    2.600000e+00
  SC1e SX1vr  1 4.100000e-01    2.600000e+00
  SX4e SX1vr  1 4.100000e-01    2.840000e+00
  SX3e SX1vr  1 4.100000e-01    3.070000e+00
  SX2e SX1vr  1 4.100000e-01    3.070000e+00
  SP6q SX1vr  1 4.100000e-01    2.200000e+00
  SP5q SX1vr  1 4.100000e-01    2.200000e+00
  SP4q SX1vr  1 4.100000e-01    2.350000e+00
  SP3q SX1vr  1 4.100000e-01    2.350000e+00
  SP2q SX1vr  1 4.100000e-01    2.350000e+00
  SP1q SX1vr  1 4.100000e-01    2.350000e+00
  SN6q SX1vr  1 4.100000e-01    2.350000e+00
  SN5q SX1vr  1 4.100000e-01    2.600000e+00
  SN4q SX1vr  1 4.100000e-01    2.600000e+00
  SN3q SX1vr  1 4.100000e-01    2.840000e+00
  SN2q SX1vr  1 4.100000e-01    2.840000e+00
  SN1q SX1vr  1 4.100000e-01    2.840000e+00
  SC6q SX1vr  1 4.100000e-01    3.070000e+00
  SC5q SX1vr  1 4.100000e-01    3.070000e+00
  SC4q SX1vr  1 4.100000e-01    3.070000e+00
  SC3q SX1vr  1 4.100000e-01    3.070000e+00
  SC2q SX1vr  1 4.100000e-01    2.840000e+00
  SC1q SX1vr  1 4.100000e-01    2.840000e+00
  SX4q SX1vr  1 4.100000e-01    3.070000e+00
  SX3q SX1vr  1 4.100000e-01    3.310000e+00
  SX2q SX1vr  1 4.100000e-01    3.310000e+00
  SX1q SX1vr  1 4.100000e-01    3.550000e+00
  SC6e SC6er  1 4.100000e-01    2.350000e+00
  SP6q SC6er  1 4.100000e-01    2.350000e+00
  SP5q SC6er  1 4.100000e-01    2.350000e+00
  SP4q SC6er  1 4.100000e-01    2.600000e+00
  SP3q SC6er  1 4.100000e-01    2.840000e+00
  SP2q SC6er  1 4.100000e-01    2.840000e+00
  SP1q SC6er  1 4.100000e-01    2.840000e+00
  SN6q SC6er  1 4.100000e-01    3.070000e+00
  SN5q SC6er  1 4.100000e-01    3.070000e+00
  SN4q SC6er  1 4.100000e-01    3.070000e+00
  SN3q SC6er  1 4.100000e-01    3.070000e+00
  SN2q SC6er  1 4.100000e-01    3.070000e+00
  SN1q SC6er  1 4.100000e-01    3.310000e+00
  SC6q SC6er  1 4.100000e-01    3.310000e+00
  SC5e SC5er  1 4.100000e-01    2.200000e+00
  SP6q SC5er  1 4.100000e-01    2.200000e+00
  SP5q SC5er  1 4.100000e-01    2.350000e+00
  SP4q SC5er  1 4.100000e-01    2.350000e+00
  SP3q SC5er  1 4.100000e-01    2.600000e+00
  SP2q SC5er  1 4.100000e-01    2.600000e+00
  SP1q SC5er  1 4.100000e-01    2.600000e+00
  SN6q SC5er  1 4.100000e-01    2.840000e+00
  SN5q SC5er  1 4.100000e-01    2.840000e+00
  SN4q SC5er  1 4.100000e-01    2.840000e+00
  SN3q SC5er  1 4.100000e-01    2.840000e+00
  SN2q SC5er  1 4.100000e-01    2.840000e+00
  SN1q SC5er  1 4.100000e-01    3.070000e+00
  SC6q SC5er  1 4.100000e-01    3.070000e+00
  SC5q SC5er  1 4.100000e-01    3.070000e+00
  SC4e SC4er  1 4.100000e-01    2.200000e+00
  SP6q SC4er  1 4.100000e-01    2.040000e+00
  SP5q SC4er  1 4.100000e-01    2.200000e+00
  SP4q SC4er  1 4.100000e-01    2.200000e+00
  SP3q SC4er  1 4.100000e-01    2.350000e+00
  SP2q SC4er  1 4.100000e-01    2.350000e+00
  SP1q SC4er  1 4.100000e-01    2.350000e+00
  SN6q SC4er  1 4.100000e-01    2.600000e+00
  SN5q SC4er  1 4.100000e-01    2.600000e+00
  SN4q SC4er  1 4.100000e-01    2.840000e+00
  SN3q SC4er  1 4.100000e-01    2.840000e+00
  SN2q SC4er  1 4.100000e-01    2.840000e+00
  SN1q SC4er  1 4.100000e-01    3.070000e+00
  SC6q SC4er  1 4.100000e-01    3.070000e+00
  SC5q SC4er  1 4.100000e-01    3.070000e+00
  SC4q SC4er  1 4.100000e-01    3.070000e+00
  SC3e SC3er  1 4.100000e-01    2.200000e+00
  SP6q SC3er  1 4.100000e-01    1.910000e+00
  SP5q SC3er  1 4.100000e-01    2.040000e+00
  SP4q SC3er  1 4.100000e-01    2.040000e+00
  SP3q SC3er  1 4.100000e-01    2.040000e+00
  SP2q SC3er  1 4.100000e-01    2.200000e+00
  SP1q SC3er  1 4.100000e-01    2.200000e+00
  SN6q SC3er  1 4.100000e-01    2.350000e+00
  SN5q SC3er  1 4.100000e-01    2.600000e+00
  SN4q SC3er  1 4.100000e-01    2.600000e+00
  SN3q SC3er  1 4.100000e-01    2.600000e+00
  SN2q SC3er  1 4.100000e-01    2.840000e+00
  SN1q SC3er  1 4.100000e-01    2.840000e+00
  SC6q SC3er  1 4.100000e-01    2.840000e+00
  SC5q SC3er  1 4.100000e-01    2.840000e+00
  SC4q SC3er  1 4.100000e-01    3.070000e+00
  SC3q SC3er  1 4.100000e-01    3.070000e+00
  SC2e SC2er  1 4.100000e-01    2.200000e+00
  SP6q SC2er  1 4.100000e-01    1.910000e+00
  SP5q SC2er  1 4.100000e-01    2.040000e+00
  SP4q SC2er  1 4.100000e-01    2.040000e+00
  SP3q SC2er  1 4.100000e-01    2.040000e+00
  SP2q SC2er  1 4.100000e-01    2.200000e+00
  SP1q SC2er  1 4.100000e-01    2.200000e+00
  SN6q SC2er  1 4.100000e-01    2.350000e+00
  SN5q SC2er  1 4.100000e-01    2.350000e+00
  SN4q SC2er  1 4.100000e-01    2.350000e+00
  SN3q SC2er  1 4.100000e-01    2.600000e+00
  SN2q SC2er  1 4.100000e-01    2.600000e+00
  SN1q SC2er  1 4.100000e-01    2.600000e+00
  SC6q SC2er  1 4.100000e-01    2.600000e+00
  SC5q SC2er  1 4.100000e-01    2.600000e+00
  SC4q SC2er  1 4.100000e-01    2.840000e+00
  SC3q SC2er  1 4.100000e-01    3.070000e+00
  SC2q SC2er  1 4.100000e-01    3.070000e+00
  SC1e SC1er  1 4.100000e-01    2.200000e+00
  SP6q SC1er  1 4.140000e-01    1.560000e+00
  SP5q SC1er  1 4.100000e-01    1.910000e+00
  SP4q SC1er  1 4.100000e-01    1.910000e+00
  SP3q SC1er  1 4.100000e-01    1.910000e+00
  SP2q SC1er  1 4.100000e-01    2.040000e+00
  SP1q SC1er  1 4.100000e-01    2.040000e+00
  SN6q SC1er  1 4.100000e-01    2.200000e+00
  SN5q SC1er  1 4.100000e-01    2.200000e+00
  SN4q SC1er  1 4.100000e-01    2.200000e+00
  SN3q SC1er  1 4.100000e-01    2.350000e+00
  SN2q SC1er  1 4.100000e-01    2.350000e+00
  SN1q SC1er  1 4.100000e-01    2.350000e+00
  SC6q SC1er  1 4.100000e-01    2.350000e+00
  SC5q SC1er  1 4.100000e-01    2.600000e+00
  SC4q SC1er  1 4.100000e-01    2.600000e+00
  SC3q SC1er  1 4.100000e-01    3.070000e+00
  SC2q SC1er  1 4.100000e-01    3.310000e+00
  SC1q SC1er  1 4.100000e-01    3.070000e+00
  SX4e SX4er  1 4.100000e-01    2.200000e+00
  SP6q SX4er  1 4.100000e-01    2.600000e+00
  SP5q SX4er  1 4.100000e-01    2.840000e+00
  SP4q SX4er  1 4.100000e-01    2.840000e+00
  SP3q SX4er  1 4.100000e-01    2.840000e+00
  SP2q SX4er  1 4.100000e-01    2.840000e+00
  SP1q SX4er  1 4.100000e-01    2.840000e+00
  SN6q SX4er  1 4.100000e-01    3.070000e+00
  SN5q SX4er  1 4.100000e-01    3.310000e+00
  SN4q SX4er  1 4.100000e-01    3.550000e+00
  SN3q SX4er  1 4.100000e-01    3.310000e+00
  SN2q SX4er  1 4.100000e-01    3.310000e+00
  SN1q SX4er  1 4.100000e-01    3.070000e+00
  SC6q SX4er  1 4.100000e-01    3.070000e+00
  SC5q SX4er  1 4.100000e-01    2.840000e+00
  SC4q SX4er  1 4.100000e-01    2.840000e+00
  SC3q SX4er  1 4.100000e-01    2.840000e+00
  SC2q SX4er  1 4.100000e-01    2.350000e+00
  SC1q SX4er  1 4.100000e-01    2.350000e+00
  SX4q SX4er  1 4.100000e-01    3.070000e+00
  SX3e SX3er  1 4.100000e-01    2.200000e+00
  SP6q SX3er  1 4.100000e-01    2.600000e+00
  SP5q SX3er  1 4.100000e-01    2.600000e+00
  SP4q SX3er  1 4.100000e-01    2.600000e+00
  SP3q SX3er  1 4.100000e-01    2.840000e+00
  SP2q SX3er  1 4.100000e-01    2.840000e+00
  SP1q SX3er  1 4.100000e-01    2.840000e+00
  SN6q SX3er  1 4.100000e-01    2.840000e+00
  SN5q SX3er  1 4.100000e-01    3.070000e+00
  SN4q SX3er  1 4.100000e-01    3.310000e+00
  SN3q SX3er  1 4.100000e-01    3.070000e+00
  SN2q SX3er  1 4.100000e-01    3.070000e+00
  SN1q SX3er  1 4.100000e-01    3.070000e+00
  SC6q SX3er  1 4.100000e-01    3.070000e+00
  SC5q SX3er  1 4.100000e-01    2.840000e+00
  SC4q SX3er  1 4.100000e-01    2.840000e+00
  SC3q SX3er  1 4.100000e-01    2.840000e+00
  SC2q SX3er  1 4.100000e-01    2.840000e+00
  SC1q SX3er  1 4.100000e-01    2.840000e+00
  SX4q SX3er  1 4.100000e-01    3.070000e+00
  SX3q SX3er  1 4.100000e-01    3.070000e+00
  SX2e SX2er  1 4.100000e-01    2.350000e+00
  SP6q SX2er  1 4.100000e-01    2.350000e+00
  SP5q SX2er  1 4.100000e-01    2.600000e+00
  SP4q SX2er  1 4.100000e-01    2.600000e+00
  SP3q SX2er  1 4.100000e-01    2.600000e+00
  SP2q SX2er  1 4.100000e-01    2.600000e+00
  SP1q SX2er  1 4.100000e-01    2.600000e+00
  SN6q SX2er  1 4.100000e-01    2.600000e+00
  SN5q SX2er  1 4.100000e-01    2.840000e+00
  SN4q SX2er  1 4.100000e-01    2.840000e+00
  SN3q SX2er  1 4.100000e-01    2.840000e+00
  SN2q SX2er  1 4.100000e-01    2.840000e+00
  SN1q SX2er  1 4.100000e-01    2.840000e+00
  SC6q SX2er  1 4.100000e-01    3.070000e+00
  SC5q SX2er  1 4.100000e-01    2.840000e+00
  SC4q SX2er  1 4.100000e-01    2.840000e+00
  SC3q SX2er  1 4.100000e-01    2.840000e+00
  SC2q SX2er  1 4.100000e-01    2.840000e+00
  SC1q SX2er  1 4.100000e-01    2.840000e+00
  SX4q SX2er  1 4.100000e-01    3.070000e+00
  SX3q SX2er  1 4.100000e-01    3.310000e+00
  SX2q SX2er  1 4.100000e-01    3.310000e+00
  SX1e SX1er  1 4.100000e-01    2.600000e+00
  SP6q SX1er  1 4.100000e-01    2.200000e+00
  SP5q SX1er  1 4.100000e-01    2.200000e+00
  SP4q SX1er  1 4.100000e-01    2.350000e+00
  SP3q SX1er  1 4.100000e-01    2.350000e+00
  SP2q SX1er  1 4.100000e-01    2.350000e+00
  SP1q SX1er  1 4.100000e-01    2.350000e+00
  SN6q SX1er  1 4.100000e-01    2.350000e+00
  SN5q SX1er  1 4.100000e-01    2.600000e+00
  SN4q SX1er  1 4.100000e-01    2.600000e+00
  SN3q SX1er  1 4.100000e-01    2.840000e+00
  SN2q SX1er  1 4.100000e-01    2.840000e+00
  SN1q SX1er  1 4.100000e-01    2.840000e+00
  SC6q SX1er  1 4.100000e-01    3.070000e+00
  SC5q SX1er  1 4.100000e-01    3.070000e+00
  SC4q SX1er  1 4.100000e-01    3.070000e+00
  SC3q SX1er  1 4.100000e-01    3.070000e+00
  SC2q SX1er  1 4.100000e-01    2.840000e+00
  SC1q SX1er  1 4.100000e-01    2.840000e+00
  SX4q SX1er  1 4.100000e-01    3.070000e+00
  SX3q SX1er  1 4.100000e-01    3.310000e+00
  SX2q SX1er  1 4.100000e-01    3.310000e+00
  SX1q SX1er  1 4.100000e-01    3.550000e+00
  SC6e SX1er  1 4.100000e-01    2.200000e+00
  SC5e SX1er  1 4.100000e-01    2.200000e+00
  SC4e SX1er  1 4.100000e-01    2.200000e+00
  SC3e SX1er  1 4.100000e-01    2.200000e+00
  SC2e SX1er  1 4.100000e-01    2.040000e+00
  SC1e SX1er  1 4.100000e-01    2.040000e+00
  SX4e SX1er  1 4.100000e-01    2.200000e+00
  SX3e SX1er  1 4.100000e-01    2.350000e+00
  SX2e SX1er  1 4.100000e-01    2.350000e+00
  SC6v SX1er  1 4.100000e-01    2.840000e+00
  SC5v SX1er  1 4.100000e-01    2.840000e+00
  SC4v SX1er  1 4.100000e-01    2.840000e+00
  SC3v SX1er  1 4.100000e-01    2.840000e+00
  SC2v SX1er  1 4.100000e-01    2.600000e+00
  SC1v SX1er  1 4.100000e-01    2.600000e+00
  SX4v SX1er  1 4.100000e-01    2.840000e+00
  SX3v SX1er  1 4.100000e-01    3.070000e+00
  SX2v SX1er  1 4.100000e-01    3.070000e+00
  SX1v SX1er  1 4.100000e-01    3.310000e+00
  SP6d SX1er  1 4.100000e-01    1.910000e+00
  SP5d SX1er  1 4.100000e-01    1.910000e+00
  SP4d SX1er  1 4.100000e-01    2.040000e+00
  SP3d SX1er  1 4.100000e-01    2.040000e+00
  SP2d SX1er  1 4.100000e-01    2.040000e+00
  SP1d SX1er  1 4.100000e-01    2.040000e+00
  SN6d SX1er  1 4.100000e-01    2.040000e+00
  SN5d SX1er  1 4.100000e-01    2.200000e+00
  SN4d SX1er  1 4.100000e-01    2.200000e+00
  SN3d SX1er  1 4.100000e-01    2.350000e+00
  SN2d SX1er  1 4.100000e-01    2.350000e+00
  SN1d SX1er  1 4.100000e-01    2.350000e+00
  SP6a SX1er  1 4.140000e-01    1.560000e+00
  SP5a SX1er  1 4.140000e-01    1.560000e+00
  SP4a SX1er  1 4.100000e-01    1.750000e+00
  SP3a SX1er  1 4.100000e-01    1.750000e+00
  SP2a SX1er  1 4.100000e-01    1.750000e+00
  SP1a SX1er  1 4.100000e-01    1.750000e+00
  SN6a SX1er  1 4.100000e-01    1.750000e+00
  SN5a SX1er  1 4.100000e-01    1.910000e+00
  SN4a SX1er  1 4.100000e-01    1.910000e+00
  SN3a SX1er  1 4.100000e-01    2.040000e+00
  SN2a SX1er  1 4.100000e-01    2.040000e+00
  SN1a SX1er  1 4.100000e-01    2.040000e+00
  SC6e SX2er  1 4.100000e-01    2.200000e+00
  SC5e SX2er  1 4.100000e-01    2.040000e+00
  SC4e SX2er  1 4.100000e-01    2.040000e+00
  SC3e SX2er  1 4.100000e-01    2.040000e+00
  SC2e SX2er  1 4.100000e-01    2.040000e+00
  SC1e SX2er  1 4.100000e-01    2.040000e+00
  SX4e SX2er  1 4.100000e-01    2.200000e+00
  SX3e SX2er  1 4.100000e-01    2.350000e+00
  SC6v SX2er  1 4.100000e-01    2.840000e+00
  SC5v SX2er  1 4.100000e-01    2.600000e+00
  SC4v SX2er  1 4.100000e-01    2.600000e+00
  SC3v SX2er  1 4.100000e-01    2.600000e+00
  SC2v SX2er  1 4.100000e-01    2.600000e+00
  SC1v SX2er  1 4.100000e-01    2.600000e+00
  SX4v SX2er  1 4.100000e-01    2.840000e+00
  SX3v SX2er  1 4.100000e-01    3.070000e+00
  SX2v SX2er  1 4.100000e-01    3.070000e+00
  SP6d SX2er  1 4.100000e-01    2.040000e+00
  SP5d SX2er  1 4.100000e-01    2.200000e+00
  SP4d SX2er  1 4.100000e-01    2.200000e+00
  SP3d SX2er  1 4.100000e-01    2.200000e+00
  SP2d SX2er  1 4.100000e-01    2.200000e+00
  SP1d SX2er  1 4.100000e-01    2.200000e+00
  SN6d SX2er  1 4.100000e-01    2.200000e+00
  SN5d SX2er  1 4.100000e-01    2.350000e+00
  SN4d SX2er  1 4.100000e-01    2.350000e+00
  SN3d SX2er  1 4.100000e-01    2.350000e+00
  SN2d SX2er  1 4.100000e-01    2.350000e+00
  SN1d SX2er  1 4.100000e-01    2.350000e+00
  SP6a SX2er  1 4.100000e-01    1.750000e+00
  SP5a SX2er  1 4.100000e-01    1.910000e+00
  SP4a SX2er  1 4.100000e-01    1.910000e+00
  SP3a SX2er  1 4.100000e-01    1.910000e+00
  SP2a SX2er  1 4.100000e-01    1.910000e+00
  SP1a SX2er  1 4.100000e-01    1.910000e+00
  SN6a SX2er  1 4.100000e-01    1.910000e+00
  SN5a SX2er  1 4.100000e-01    2.040000e+00
  SN4a SX2er  1 4.100000e-01    2.040000e+00
  SN3a SX2er  1 4.100000e-01    2.040000e+00
  SN2a SX2er  1 4.100000e-01    2.040000e+00
  SN1a SX2er  1 4.100000e-01    2.040000e+00
  SC6e SX3er  1 4.100000e-01    2.200000e+00
  SC5e SX3er  1 4.100000e-01    2.040000e+00
  SC4e SX3er  1 4.100000e-01    2.040000e+00
  SC3e SX3er  1 4.100000e-01    2.040000e+00
  SC2e SX3er  1 4.100000e-01    2.040000e+00
  SC1e SX3er  1 4.100000e-01    2.040000e+00
  SX4e SX3er  1 4.100000e-01    2.200000e+00
  SC6v SX3er  1 4.100000e-01    2.840000e+00
  SC5v SX3er  1 4.100000e-01    2.600000e+00
  SC4v SX3er  1 4.100000e-01    2.600000e+00
  SC3v SX3er  1 4.100000e-01    2.600000e+00
  SC2v SX3er  1 4.100000e-01    2.600000e+00
  SC1v SX3er  1 4.100000e-01    2.600000e+00
  SX4v SX3er  1 4.100000e-01    2.840000e+00
  SX3v SX3er  1 4.100000e-01    2.840000e+00
  SP6d SX3er  1 4.100000e-01    2.200000e+00
  SP5d SX3er  1 4.100000e-01    2.200000e+00
  SP4d SX3er  1 4.100000e-01    2.200000e+00
  SP3d SX3er  1 4.100000e-01    2.350000e+00
  SP2d SX3er  1 4.100000e-01    2.350000e+00
  SP1d SX3er  1 4.100000e-01    2.350000e+00
  SN6d SX3er  1 4.100000e-01    2.350000e+00
  SN5d SX3er  1 4.100000e-01    2.600000e+00
  SN4d SX3er  1 4.100000e-01    2.840000e+00
  SN3d SX3er  1 4.100000e-01    2.600000e+00
  SN2d SX3er  1 4.100000e-01    2.600000e+00
  SN1d SX3er  1 4.100000e-01    2.600000e+00
  SP6a SX3er  1 4.100000e-01    1.910000e+00
  SP5a SX3er  1 4.100000e-01    1.910000e+00
  SP4a SX3er  1 4.100000e-01    1.910000e+00
  SP3a SX3er  1 4.100000e-01    2.040000e+00
  SP2a SX3er  1 4.100000e-01    2.040000e+00
  SP1a SX3er  1 4.100000e-01    2.040000e+00
  SN6a SX3er  1 4.100000e-01    2.040000e+00
  SN5a SX3er  1 4.100000e-01    2.200000e+00
  SN4a SX3er  1 4.100000e-01    2.350000e+00
  SN3a SX3er  1 4.100000e-01    2.200000e+00
  SN2a SX3er  1 4.100000e-01    2.200000e+00
  SN1a SX3er  1 4.100000e-01    2.200000e+00
  SC6e SX4er  1 4.100000e-01    2.200000e+00
  SC5e SX4er  1 4.100000e-01    2.040000e+00
  SC4e SX4er  1 4.100000e-01    2.040000e+00
  SC3e SX4er  1 4.100000e-01    2.040000e+00
  SC2e SX4er  1 4.100000e-01    1.750000e+00
  SC1e SX4er  1 4.100000e-01    1.750000e+00
  SC6v SX4er  1 4.100000e-01    2.840000e+00
  SC5v SX4er  1 4.100000e-01    2.600000e+00
  SC4v SX4er  1 4.100000e-01    2.600000e+00
  SC3v SX4er  1 4.100000e-01    2.600000e+00
  SC2v SX4er  1 4.100000e-01    2.200000e+00
  SC1v SX4er  1 4.100000e-01    2.200000e+00
  SX4v SX4er  1 4.100000e-01    2.840000e+00
  SP6d SX4er  1 4.100000e-01    2.200000e+00
  SP5d SX4er  1 4.100000e-01    2.350000e+00
  SP4d SX4er  1 4.100000e-01    2.350000e+00
  SP3d SX4er  1 4.100000e-01    2.350000e+00
  SP2d SX4er  1 4.100000e-01    2.350000e+00
  SP1d SX4er  1 4.100000e-01    2.350000e+00
  SN6d SX4er  1 4.100000e-01    2.600000e+00
  SN5d SX4er  1 4.100000e-01    2.840000e+00
  SN4d SX4er  1 4.100000e-01    3.070000e+00
  SN3d SX4er  1 4.100000e-01    2.840000e+00
  SN2d SX4er  1 4.100000e-01    2.840000e+00
  SN1d SX4er  1 4.100000e-01    2.600000e+00
  SP6a SX4er  1 4.100000e-01    1.910000e+00
  SP5a SX4er  1 4.100000e-01    2.040000e+00
  SP4a SX4er  1 4.100000e-01    2.040000e+00
  SP3a SX4er  1 4.100000e-01    2.040000e+00
  SP2a SX4er  1 4.100000e-01    2.040000e+00
  SP1a SX4er  1 4.100000e-01    2.040000e+00
  SN6a SX4er  1 4.100000e-01    2.200000e+00
  SN5a SX4er  1 4.100000e-01    2.350000e+00
  SN4a SX4er  1 4.100000e-01    2.600000e+00
  SN3a SX4er  1 4.100000e-01    2.350000e+00
  SN2a SX4er  1 4.100000e-01    2.350000e+00
  SN1a SX4er  1 4.100000e-01    2.200000e+00
  SC6e SC1er  1 4.100000e-01    1.750000e+00
  SC5e SC1er  1 4.100000e-01    1.910000e+00
  SC4e SC1er  1 4.100000e-01    1.910000e+00
  SC3e SC1er  1 4.100000e-01    2.200000e+00
  SC2e SC1er  1 4.100000e-01    2.350000e+00
  SC6v SC1er  1 4.100000e-01    2.200000e+00
  SC5v SC1er  1 4.100000e-01    2.350000e+00
  SC4v SC1er  1 4.100000e-01    2.350000e+00
  SC3v SC1er  1 4.100000e-01    2.840000e+00
  SC2v SC1er  1 4.100000e-01    3.070000e+00
  SC1v SC1er  1 4.100000e-01    2.840000e+00
  SP6d SC1er  1 4.210000e-01    1.250000e+00
  SP5d SC1er  1 4.140000e-01    1.560000e+00
  SP4d SC1er  1 4.140000e-01    1.560000e+00
  SP3d SC1er  1 4.140000e-01    1.560000e+00
  SP2d SC1er  1 4.100000e-01    1.750000e+00
  SP1d SC1er  1 4.100000e-01    1.750000e+00
  SN6d SC1er  1 4.100000e-01    1.910000e+00
  SN5d SC1er  1 4.100000e-01    1.910000e+00
  SN4d SC1er  1 4.100000e-01    1.910000e+00
  SN3d SC1er  1 4.100000e-01    2.040000e+00
  SN2d SC1er  1 4.100000e-01    2.040000e+00
  SN1d SC1er  1 4.100000e-01    2.040000e+00
  SP6a SC1er  1 4.960000e-01    1.050000e+00
  SP5a SC1er  1 4.210000e-01    1.250000e+00
  SP4a SC1er  1 4.210000e-01    1.250000e+00
  SP3a SC1er  1 4.210000e-01    1.250000e+00
  SP2a SC1er  1 4.180000e-01    1.400000e+00
  SP1a SC1er  1 4.180000e-01    1.400000e+00
  SN6a SC1er  1 4.140000e-01    1.560000e+00
  SN5a SC1er  1 4.140000e-01    1.560000e+00
  SN4a SC1er  1 4.140000e-01    1.560000e+00
  SN3a SC1er  1 4.100000e-01    1.750000e+00
  SN2a SC1er  1 4.100000e-01    1.750000e+00
  SN1a SC1er  1 4.100000e-01    1.750000e+00
  SC6e SC2er  1 4.100000e-01    1.910000e+00
  SC5e SC2er  1 4.100000e-01    1.910000e+00
  SC4e SC2er  1 4.100000e-01    2.040000e+00
  SC3e SC2er  1 4.100000e-01    2.200000e+00
  SC6v SC2er  1 4.100000e-01    2.350000e+00
  SC5v SC2er  1 4.100000e-01    2.350000e+00
  SC4v SC2er  1 4.100000e-01    2.600000e+00
  SC3v SC2er  1 4.100000e-01    2.840000e+00
  SC2v SC2er  1 4.100000e-01    2.840000e+00
  SP6d SC2er  1 4.140000e-01    1.560000e+00
  SP5d SC2er  1 4.100000e-01    1.750000e+00
  SP4d SC2er  1 4.100000e-01    1.750000e+00
  SP3d SC2er  1 4.100000e-01    1.750000e+00
  SP2d SC2er  1 4.100000e-01    1.910000e+00
  SP1d SC2er  1 4.100000e-01    1.910000e+00
  SN6d SC2er  1 4.100000e-01    2.040000e+00
  SN5d SC2er  1 4.100000e-01    2.040000e+00
  SN4d SC2er  1 4.100000e-01    2.040000e+00
  SN3d SC2er  1 4.100000e-01    2.200000e+00
  SN2d SC2er  1 4.100000e-01    2.200000e+00
  SN1d SC2er  1 4.100000e-01    2.200000e+00
  SP6a SC2er  1 4.210000e-01    1.250000e+00
  SP5a SC2er  1 4.180000e-01    1.400000e+00
  SP4a SC2er  1 4.180000e-01    1.400000e+00
  SP3a SC2er  1 4.180000e-01    1.400000e+00
  SP2a SC2er  1 4.140000e-01    1.560000e+00
  SP1a SC2er  1 4.140000e-01    1.560000e+00
  SN6a SC2er  1 4.100000e-01    1.750000e+00
  SN5a SC2er  1 4.100000e-01    1.750000e+00
  SN4a SC2er  1 4.100000e-01    1.750000e+00
  SN3a SC2er  1 4.100000e-01    1.910000e+00
  SN2a SC2er  1 4.100000e-01    1.910000e+00
  SN1a SC2er  1 4.100000e-01    1.910000e+00
  SC6e SC3er  1 4.100000e-01    2.040000e+00
  SC5e SC3er  1 4.100000e-01    2.040000e+00
  SC4e SC3er  1 4.100000e-01    2.200000e+00
  SC6v SC3er  1 4.100000e-01    2.600000e+00
  SC5v SC3er  1 4.100000e-01    2.600000e+00
  SC4v SC3er  1 4.100000e-01    2.840000e+00
  SC3v SC3er  1 4.100000e-01    2.840000e+00
  SP6d SC3er  1 4.140000e-01    1.560000e+00
  SP5d SC3er  1 4.100000e-01    1.750000e+00
  SP4d SC3er  1 4.100000e-01    1.750000e+00
  SP3d SC3er  1 4.100000e-01    1.750000e+00
  SP2d SC3er  1 4.100000e-01    1.910000e+00
  SP1d SC3er  1 4.100000e-01    1.910000e+00
  SN6d SC3er  1 4.100000e-01    2.040000e+00
  SN5d SC3er  1 4.100000e-01    2.200000e+00
  SN4d SC3er  1 4.100000e-01    2.200000e+00
  SN3d SC3er  1 4.100000e-01    2.200000e+00
  SN2d SC3er  1 4.100000e-01    2.350000e+00
  SN1d SC3er  1 4.100000e-01    2.350000e+00
  SP6a SC3er  1 4.210000e-01    1.250000e+00
  SP5a SC3er  1 4.180000e-01    1.400000e+00
  SP4a SC3er  1 4.180000e-01    1.400000e+00
  SP3a SC3er  1 4.180000e-01    1.400000e+00
  SP2a SC3er  1 4.140000e-01    1.560000e+00
  SP1a SC3er  1 4.140000e-01    1.560000e+00
  SN6a SC3er  1 4.100000e-01    1.750000e+00
  SN5a SC3er  1 4.100000e-01    1.910000e+00
  SN4a SC3er  1 4.100000e-01    1.910000e+00
  SN3a SC3er  1 4.100000e-01    1.910000e+00
  SN2a SC3er  1 4.100000e-01    2.040000e+00
  SN1a SC3er  1 4.100000e-01    2.040000e+00
  SC6e SC4er  1 4.100000e-01    2.200000e+00
  SC5e SC4er  1 4.100000e-01    2.200000e+00
  SC6v SC4er  1 4.100000e-01    2.840000e+00
  SC5v SC4er  1 4.100000e-01    2.840000e+00
  SC4v SC4er  1 4.100000e-01    2.840000e+00
  SP6d SC4er  1 4.100000e-01    1.750000e+00
  SP5d SC4er  1 4.100000e-01    1.910000e+00
  SP4d SC4er  1 4.100000e-01    1.910000e+00
  SP3d SC4er  1 4.100000e-01    2.040000e+00
  SP2d SC4er  1 4.100000e-01    2.040000e+00
  SP1d SC4er  1 4.100000e-01    2.040000e+00
  SN6d SC4er  1 4.100000e-01    2.200000e+00
  SN5d SC4er  1 4.100000e-01    2.200000e+00
  SN4d SC4er  1 4.100000e-01    2.350000e+00
  SN3d SC4er  1 4.100000e-01    2.350000e+00
  SN2d SC4er  1 4.100000e-01    2.350000e+00
  SN1d SC4er  1 4.100000e-01    2.600000e+00
  SP6a SC4er  1 4.180000e-01    1.400000e+00
  SP5a SC4er  1 4.140000e-01    1.560000e+00
  SP4a SC4er  1 4.140000e-01    1.560000e+00
  SP3a SC4er  1 4.100000e-01    1.750000e+00
  SP2a SC4er  1 4.100000e-01    1.750000e+00
  SP1a SC4er  1 4.100000e-01    1.750000e+00
  SN6a SC4er  1 4.100000e-01    1.910000e+00
  SN5a SC4er  1 4.100000e-01    1.910000e+00
  SN4a SC4er  1 4.100000e-01    2.040000e+00
  SN3a SC4er  1 4.100000e-01    2.040000e+00
  SN2a SC4er  1 4.100000e-01    2.040000e+00
  SN1a SC4er  1 4.100000e-01    2.200000e+00
  SC6e SC5er  1 4.100000e-01    2.200000e+00
  SC6v SC5er  1 4.100000e-01    2.840000e+00
  SC5v SC5er  1 4.100000e-01    2.840000e+00
  SP6d SC5er  1 4.100000e-01    1.910000e+00
  SP5d SC5er  1 4.100000e-01    2.040000e+00
  SP4d SC5er  1 4.100000e-01    2.040000e+00
  SP3d SC5er  1 4.100000e-01    2.200000e+00
  SP2d SC5er  1 4.100000e-01    2.200000e+00
  SP1d SC5er  1 4.100000e-01    2.200000e+00
  SN6d SC5er  1 4.100000e-01    2.350000e+00
  SN5d SC5er  1 4.100000e-01    2.350000e+00
  SN4d SC5er  1 4.100000e-01    2.350000e+00
  SN3d SC5er  1 4.100000e-01    2.350000e+00
  SN2d SC5er  1 4.100000e-01    2.350000e+00
  SN1d SC5er  1 4.100000e-01    2.600000e+00
  SP6a SC5er  1 4.140000e-01    1.560000e+00
  SP5a SC5er  1 4.100000e-01    1.750000e+00
  SP4a SC5er  1 4.100000e-01    1.750000e+00
  SP3a SC5er  1 4.100000e-01    1.910000e+00
  SP2a SC5er  1 4.100000e-01    1.910000e+00
  SP1a SC5er  1 4.100000e-01    1.910000e+00
  SN6a SC5er  1 4.100000e-01    2.040000e+00
  SN5a SC5er  1 4.100000e-01    2.040000e+00
  SN4a SC5er  1 4.100000e-01    2.040000e+00
  SN3a SC5er  1 4.100000e-01    2.040000e+00
  SN2a SC5er  1 4.100000e-01    2.040000e+00
  SN1a SC5er  1 4.100000e-01    2.200000e+00
  SC6v SC6er  1 4.100000e-01    3.070000e+00
  SP6d SC6er  1 4.100000e-01    2.040000e+00
  SP5d SC6er  1 4.100000e-01    2.040000e+00
  SP4d SC6er  1 4.100000e-01    2.200000e+00
  SP3d SC6er  1 4.100000e-01    2.350000e+00
  SP2d SC6er  1 4.100000e-01    2.350000e+00
  SP1d SC6er  1 4.100000e-01    2.350000e+00
  SN6d SC6er  1 4.100000e-01    2.600000e+00
  SN5d SC6er  1 4.100000e-01    2.600000e+00
  SN4d SC6er  1 4.100000e-01    2.600000e+00
  SN3d SC6er  1 4.100000e-01    2.600000e+00
  SN2d SC6er  1 4.100000e-01    2.600000e+00
  SN1d SC6er  1 4.100000e-01    2.840000e+00
  SP6a SC6er  1 4.100000e-01    1.750000e+00
  SP5a SC6er  1 4.100000e-01    1.750000e+00
  SP4a SC6er  1 4.100000e-01    1.910000e+00
  SP3a SC6er  1 4.100000e-01    2.040000e+00
  SP2a SC6er  1 4.100000e-01    2.040000e+00
  SP1a SC6er  1 4.100000e-01    2.040000e+00
  SN6a SC6er  1 4.100000e-01    2.200000e+00
  SN5a SC6er  1 4.100000e-01    2.200000e+00
  SN4a SC6er  1 4.100000e-01    2.200000e+00
  SN3a SC6er  1 4.100000e-01    2.200000e+00
  SN2a SC6er  1 4.100000e-01    2.200000e+00
  SN1a SC6er  1 4.100000e-01    2.350000e+00
  SC6v SX1vr  1 4.100000e-01    2.200000e+00
  SC5v SX1vr  1 4.100000e-01    2.200000e+00
  SC4v SX1vr  1 4.100000e-01    2.200000e+00
  SC3v SX1vr  1 4.100000e-01    2.200000e+00
  SC2v SX1vr  1 4.100000e-01    2.040000e+00
  SC1v SX1vr  1 4.100000e-01    2.040000e+00
  SX4v SX1vr  1 4.100000e-01    2.200000e+00
  SX3v SX1vr  1 4.100000e-01    2.350000e+00
  SX2v SX1vr  1 4.100000e-01    2.350000e+00
  SP6a SX1vr  1 4.100000e-01    1.910000e+00
  SP5a SX1vr  1 4.100000e-01    1.910000e+00
  SP4a SX1vr  1 4.100000e-01    2.040000e+00
  SP3a SX1vr  1 4.100000e-01    2.040000e+00
  SP2a SX1vr  1 4.100000e-01    2.040000e+00
  SP1a SX1vr  1 4.100000e-01    2.040000e+00
  SN6a SX1vr  1 4.100000e-01    2.040000e+00
  SN5a SX1vr  1 4.100000e-01    2.200000e+00
  SN4a SX1vr  1 4.100000e-01    2.200000e+00
  SN3a SX1vr  1 4.100000e-01    2.350000e+00
  SN2a SX1vr  1 4.100000e-01    2.350000e+00
  SN1a SX1vr  1 4.100000e-01    2.350000e+00
  SP6d SX1vr  1 4.140000e-01    1.560000e+00
  SP5d SX1vr  1 4.140000e-01    1.560000e+00
  SP4d SX1vr  1 4.100000e-01    1.750000e+00
  SP3d SX1vr  1 4.100000e-01    1.750000e+00
  SP2d SX1vr  1 4.100000e-01    1.750000e+00
  SP1d SX1vr  1 4.100000e-01    1.750000e+00
  SN6d SX1vr  1 4.100000e-01    1.750000e+00
  SN5d SX1vr  1 4.100000e-01    1.910000e+00
  SN4d SX1vr  1 4.100000e-01    1.910000e+00
  SN3d SX1vr  1 4.100000e-01    2.040000e+00
  SN2d SX1vr  1 4.100000e-01    2.040000e+00
  SN1d SX1vr  1 4.100000e-01    2.040000e+00
  SC6v SX2vr  1 4.100000e-01    2.200000e+00
  SC5v SX2vr  1 4.100000e-01    2.040000e+00
  SC4v SX2vr  1 4.100000e-01    2.040000e+00
  SC3v SX2vr  1 4.100000e-01    2.040000e+00
  SC2v SX2vr  1 4.100000e-01    2.040000e+00
  SC1v SX2vr  1 4.100000e-01    2.040000e+00
  SX4v SX2vr  1 4.100000e-01    2.200000e+00
  SX3v SX2vr  1 4.100000e-01    2.350000e+00
  SP6a SX2vr  1 4.100000e-01    2.040000e+00
  SP5a SX2vr  1 4.100000e-01    2.200000e+00
  SP4a SX2vr  1 4.100000e-01    2.200000e+00
  SP3a SX2vr  1 4.100000e-01    2.200000e+00
  SP2a SX2vr  1 4.100000e-01    2.200000e+00
  SP1a SX2vr  1 4.100000e-01    2.200000e+00
  SN6a SX2vr  1 4.100000e-01    2.200000e+00
  SN5a SX2vr  1 4.100000e-01    2.350000e+00
  SN4a SX2vr  1 4.100000e-01    2.350000e+00
  SN3a SX2vr  1 4.100000e-01    2.350000e+00
  SN2a SX2vr  1 4.100000e-01    2.350000e+00
  SN1a SX2vr  1 4.100000e-01    2.350000e+00
  SP6d SX2vr  1 4.100000e-01    1.750000e+00
  SP5d SX2vr  1 4.100000e-01    1.910000e+00
  SP4d SX2vr  1 4.100000e-01    1.910000e+00
  SP3d SX2vr  1 4.100000e-01    1.910000e+00
  SP2d SX2vr  1 4.100000e-01    1.910000e+00
  SP1d SX2vr  1 4.100000e-01    1.910000e+00
  SN6d SX2vr  1 4.100000e-01    1.910000e+00
  SN5d SX2vr  1 4.100000e-01    2.040000e+00
  SN4d SX2vr  1 4.100000e-01    2.040000e+00
  SN3d SX2vr  1 4.100000e-01    2.040000e+00
  SN2d SX2vr  1 4.100000e-01    2.040000e+00
  SN1d SX2vr  1 4.100000e-01    2.040000e+00
  SC6v SX3vr  1 4.100000e-01    2.200000e+00
  SC5v SX3vr  1 4.100000e-01    2.040000e+00
  SC4v SX3vr  1 4.100000e-01    2.040000e+00
  SC3v SX3vr  1 4.100000e-01    2.040000e+00
  SC2v SX3vr  1 4.100000e-01    2.040000e+00
  SC1v SX3vr  1 4.100000e-01    2.040000e+00
  SX4v SX3vr  1 4.100000e-01    2.200000e+00
  SP6a SX3vr  1 4.100000e-01    2.200000e+00
  SP5a SX3vr  1 4.100000e-01    2.200000e+00
  SP4a SX3vr  1 4.100000e-01    2.200000e+00
  SP3a SX3vr  1 4.100000e-01    2.350000e+00
  SP2a SX3vr  1 4.100000e-01    2.350000e+00
  SP1a SX3vr  1 4.100000e-01    2.350000e+00
  SN6a SX3vr  1 4.100000e-01    2.350000e+00
  SN5a SX3vr  1 4.100000e-01    2.600000e+00
  SN4a SX3vr  1 4.100000e-01    2.840000e+00
  SN3a SX3vr  1 4.100000e-01    2.600000e+00
  SN2a SX3vr  1 4.100000e-01    2.600000e+00
  SN1a SX3vr  1 4.100000e-01    2.600000e+00
  SP6d SX3vr  1 4.100000e-01    1.910000e+00
  SP5d SX3vr  1 4.100000e-01    1.910000e+00
  SP4d SX3vr  1 4.100000e-01    1.910000e+00
  SP3d SX3vr  1 4.100000e-01    2.040000e+00
  SP2d SX3vr  1 4.100000e-01    2.040000e+00
  SP1d SX3vr  1 4.100000e-01    2.040000e+00
  SN6d SX3vr  1 4.100000e-01    2.040000e+00
  SN5d SX3vr  1 4.100000e-01    2.200000e+00
  SN4d SX3vr  1 4.100000e-01    2.350000e+00
  SN3d SX3vr  1 4.100000e-01    2.200000e+00
  SN2d SX3vr  1 4.100000e-01    2.200000e+00
  SN1d SX3vr  1 4.100000e-01    2.200000e+00
  SC6v SX4vr  1 4.100000e-01    2.200000e+00
  SC5v SX4vr  1 4.100000e-01    2.040000e+00
  SC4v SX4vr  1 4.100000e-01    2.040000e+00
  SC3v SX4vr  1 4.100000e-01    2.040000e+00
  SC2v SX4vr  1 4.100000e-01    1.750000e+00
  SC1v SX4vr  1 4.100000e-01    1.750000e+00
  SP6a SX4vr  1 4.100000e-01    2.200000e+00
  SP5a SX4vr  1 4.100000e-01    2.350000e+00
  SP4a SX4vr  1 4.100000e-01    2.350000e+00
  SP3a SX4vr  1 4.100000e-01    2.350000e+00
  SP2a SX4vr  1 4.100000e-01    2.350000e+00
  SP1a SX4vr  1 4.100000e-01    2.350000e+00
  SN6a SX4vr  1 4.100000e-01    2.600000e+00
  SN5a SX4vr  1 4.100000e-01    2.840000e+00
  SN4a SX4vr  1 4.100000e-01    3.070000e+00
  SN3a SX4vr  1 4.100000e-01    2.840000e+00
  SN2a SX4vr  1 4.100000e-01    2.840000e+00
  SN1a SX4vr  1 4.100000e-01    2.600000e+00
  SP6d SX4vr  1 4.100000e-01    1.910000e+00
  SP5d SX4vr  1 4.100000e-01    2.040000e+00
  SP4d SX4vr  1 4.100000e-01    2.040000e+00
  SP3d SX4vr  1 4.100000e-01    2.040000e+00
  SP2d SX4vr  1 4.100000e-01    2.040000e+00
  SP1d SX4vr  1 4.100000e-01    2.040000e+00
  SN6d SX4vr  1 4.100000e-01    2.200000e+00
  SN5d SX4vr  1 4.100000e-01    2.350000e+00
  SN4d SX4vr  1 4.100000e-01    2.600000e+00
  SN3d SX4vr  1 4.100000e-01    2.350000e+00
  SN2d SX4vr  1 4.100000e-01    2.350000e+00
  SN1d SX4vr  1 4.100000e-01    2.200000e+00
  SC6v SC1vr  1 4.100000e-01    1.750000e+00
  SC5v SC1vr  1 4.100000e-01    1.910000e+00
  SC4v SC1vr  1 4.100000e-01    1.910000e+00
  SC3v SC1vr  1 4.100000e-01    2.200000e+00
  SC2v SC1vr  1 4.100000e-01    2.350000e+00
  SP6a SC1vr  1 4.210000e-01    1.250000e+00
  SP5a SC1vr  1 4.140000e-01    1.560000e+00
  SP4a SC1vr  1 4.140000e-01    1.560000e+00
  SP3a SC1vr  1 4.140000e-01    1.560000e+00
  SP2a SC1vr  1 4.100000e-01    1.750000e+00
  SP1a SC1vr  1 4.100000e-01    1.750000e+00
  SN6a SC1vr  1 4.100000e-01    1.910000e+00
  SN5a SC1vr  1 4.100000e-01    1.910000e+00
  SN4a SC1vr  1 4.100000e-01    1.910000e+00
  SN3a SC1vr  1 4.100000e-01    2.040000e+00
  SN2a SC1vr  1 4.100000e-01    2.040000e+00
  SN1a SC1vr  1 4.100000e-01    2.040000e+00
  SP6d SC1vr  1 4.960000e-01    1.050000e+00
  SP5d SC1vr  1 4.210000e-01    1.250000e+00
  SP4d SC1vr  1 4.210000e-01    1.250000e+00
  SP3d SC1vr  1 4.210000e-01    1.250000e+00
  SP2d SC1vr  1 4.180000e-01    1.400000e+00
  SP1d SC1vr  1 4.180000e-01    1.400000e+00
  SN6d SC1vr  1 4.140000e-01    1.560000e+00
  SN5d SC1vr  1 4.140000e-01    1.560000e+00
  SN4d SC1vr  1 4.140000e-01    1.560000e+00
  SN3d SC1vr  1 4.100000e-01    1.750000e+00
  SN2d SC1vr  1 4.100000e-01    1.750000e+00
  SN1d SC1vr  1 4.100000e-01    1.750000e+00
  SC6v SC2vr  1 4.100000e-01    1.910000e+00
  SC5v SC2vr  1 4.100000e-01    1.910000e+00
  SC4v SC2vr  1 4.100000e-01    2.040000e+00
  SC3v SC2vr  1 4.100000e-01    2.200000e+00
  SP6a SC2vr  1 4.140000e-01    1.560000e+00
  SP5a SC2vr  1 4.100000e-01    1.750000e+00
  SP4a SC2vr  1 4.100000e-01    1.750000e+00
  SP3a SC2vr  1 4.100000e-01    1.750000e+00
  SP2a SC2vr  1 4.100000e-01    1.910000e+00
  SP1a SC2vr  1 4.100000e-01    1.910000e+00
  SN6a SC2vr  1 4.100000e-01    2.040000e+00
  SN5a SC2vr  1 4.100000e-01    2.040000e+00
  SN4a SC2vr  1 4.100000e-01    2.040000e+00
  SN3a SC2vr  1 4.100000e-01    2.200000e+00
  SN2a SC2vr  1 4.100000e-01    2.200000e+00
  SN1a SC2vr  1 4.100000e-01    2.200000e+00
  SP6d SC2vr  1 4.210000e-01    1.250000e+00
  SP5d SC2vr  1 4.180000e-01    1.400000e+00
  SP4d SC2vr  1 4.180000e-01    1.400000e+00
  SP3d SC2vr  1 4.180000e-01    1.400000e+00
  SP2d SC2vr  1 4.140000e-01    1.560000e+00
  SP1d SC2vr  1 4.140000e-01    1.560000e+00
  SN6d SC2vr  1 4.100000e-01    1.750000e+00
  SN5d SC2vr  1 4.100000e-01    1.750000e+00
  SN4d SC2vr  1 4.100000e-01    1.750000e+00
  SN3d SC2vr  1 4.100000e-01    1.910000e+00
  SN2d SC2vr  1 4.100000e-01    1.910000e+00
  SN1d SC2vr  1 4.100000e-01    1.910000e+00
  SC6v SC3vr  1 4.100000e-01    2.040000e+00
  SC5v SC3vr  1 4.100000e-01    2.040000e+00
  SC4v SC3vr  1 4.100000e-01    2.200000e+00
  SP6a SC3vr  1 4.140000e-01    1.560000e+00
  SP5a SC3vr  1 4.100000e-01    1.750000e+00
  SP4a SC3vr  1 4.100000e-01    1.750000e+00
  SP3a SC3vr  1 4.100000e-01    1.750000e+00
  SP2a SC3vr  1 4.100000e-01    1.910000e+00
  SP1a SC3vr  1 4.100000e-01    1.910000e+00
  SN6a SC3vr  1 4.100000e-01    2.040000e+00
  SN5a SC3vr  1 4.100000e-01    2.200000e+00
  SN4a SC3vr  1 4.100000e-01    2.200000e+00
  SN3a SC3vr  1 4.100000e-01    2.200000e+00
  SN2a SC3vr  1 4.100000e-01    2.350000e+00
  SN1a SC3vr  1 4.100000e-01    2.350000e+00
  SP6d SC3vr  1 4.210000e-01    1.250000e+00
  SP5d SC3vr  1 4.180000e-01    1.400000e+00
  SP4d SC3vr  1 4.180000e-01    1.400000e+00
  SP3d SC3vr  1 4.180000e-01    1.400000e+00
  SP2d SC3vr  1 4.140000e-01    1.560000e+00
  SP1d SC3vr  1 4.140000e-01    1.560000e+00
  SN6d SC3vr  1 4.100000e-01    1.750000e+00
  SN5d SC3vr  1 4.100000e-01    1.910000e+00
  SN4d SC3vr  1 4.100000e-01    1.910000e+00
  SN3d SC3vr  1 4.100000e-01    1.910000e+00
  SN2d SC3vr  1 4.100000e-01    2.040000e+00
  SN1d SC3vr  1 4.100000e-01    2.040000e+00
  SC6v SC4vr  1 4.100000e-01    2.200000e+00
  SC5v SC4vr  1 4.100000e-01    2.200000e+00
  SP6a SC4vr  1 4.100000e-01    1.750000e+00
  SP5a SC4vr  1 4.100000e-01    1.910000e+00
  SP4a SC4vr  1 4.100000e-01    1.910000e+00
  SP3a SC4vr  1 4.100000e-01    2.040000e+00
  SP2a SC4vr  1 4.100000e-01    2.040000e+00
  SP1a SC4vr  1 4.100000e-01    2.040000e+00
  SN6a SC4vr  1 4.100000e-01    2.200000e+00
  SN5a SC4vr  1 4.100000e-01    2.200000e+00
  SN4a SC4vr  1 4.100000e-01    2.350000e+00
  SN3a SC4vr  1 4.100000e-01    2.350000e+00
  SN2a SC4vr  1 4.100000e-01    2.350000e+00
  SN1a SC4vr  1 4.100000e-01    2.600000e+00
  SP6d SC4vr  1 4.180000e-01    1.400000e+00
  SP5d SC4vr  1 4.140000e-01    1.560000e+00
  SP4d SC4vr  1 4.140000e-01    1.560000e+00
  SP3d SC4vr  1 4.100000e-01    1.750000e+00
  SP2d SC4vr  1 4.100000e-01    1.750000e+00
  SP1d SC4vr  1 4.100000e-01    1.750000e+00
  SN6d SC4vr  1 4.100000e-01    1.910000e+00
  SN5d SC4vr  1 4.100000e-01    1.910000e+00
  SN4d SC4vr  1 4.100000e-01    2.040000e+00
  SN3d SC4vr  1 4.100000e-01    2.040000e+00
  SN2d SC4vr  1 4.100000e-01    2.040000e+00
  SN1d SC4vr  1 4.100000e-01    2.200000e+00
  SC6v SC5vr  1 4.100000e-01    2.200000e+00
  SP6a SC5vr  1 4.100000e-01    1.910000e+00
  SP5a SC5vr  1 4.100000e-01    2.040000e+00
  SP4a SC5vr  1 4.100000e-01    2.040000e+00
  SP3a SC5vr  1 4.100000e-01    2.200000e+00
  SP2a SC5vr  1 4.100000e-01    2.200000e+00
  SP1a SC5vr  1 4.100000e-01    2.200000e+00
  SN6a SC5vr  1 4.100000e-01    2.350000e+00
  SN5a SC5vr  1 4.100000e-01    2.350000e+00
  SN4a SC5vr  1 4.100000e-01    2.350000e+00
  SN3a SC5vr  1 4.100000e-01    2.350000e+00
  SN2a SC5vr  1 4.100000e-01    2.350000e+00
  SN1a SC5vr  1 4.100000e-01    2.600000e+00
  SP6d SC5vr  1 4.140000e-01    1.560000e+00
  SP5d SC5vr  1 4.100000e-01    1.750000e+00
  SP4d SC5vr  1 4.100000e-01    1.750000e+00
  SP3d SC5vr  1 4.100000e-01    1.910000e+00
  SP2d SC5vr  1 4.100000e-01    1.910000e+00
  SP1d SC5vr  1 4.100000e-01    1.910000e+00
  SN6d SC5vr  1 4.100000e-01    2.040000e+00
  SN5d SC5vr  1 4.100000e-01    2.040000e+00
  SN4d SC5vr  1 4.100000e-01    2.040000e+00
  SN3d SC5vr  1 4.100000e-01    2.040000e+00
  SN2d SC5vr  1 4.100000e-01    2.040000e+00
  SN1d SC5vr  1 4.100000e-01    2.200000e+00
  SP6a SC6vr  1 4.100000e-01    2.040000e+00
  SP5a SC6vr  1 4.100000e-01    2.040000e+00
  SP4a SC6vr  1 4.100000e-01    2.200000e+00
  SP3a SC6vr  1 4.100000e-01    2.350000e+00
  SP2a SC6vr  1 4.100000e-01    2.350000e+00
  SP1a SC6vr  1 4.100000e-01    2.350000e+00
  SN6a SC6vr  1 4.100000e-01    2.600000e+00
  SN5a SC6vr  1 4.100000e-01    2.600000e+00
  SN4a SC6vr  1 4.100000e-01    2.600000e+00
  SN3a SC6vr  1 4.100000e-01    2.600000e+00
  SN2a SC6vr  1 4.100000e-01    2.600000e+00
  SN1a SC6vr  1 4.100000e-01    2.840000e+00
  SP6d SC6vr  1 4.100000e-01    1.750000e+00
  SP5d SC6vr  1 4.100000e-01    1.750000e+00
  SP4d SC6vr  1 4.100000e-01    1.910000e+00
  SP3d SC6vr  1 4.100000e-01    2.040000e+00
  SP2d SC6vr  1 4.100000e-01    2.040000e+00
  SP1d SC6vr  1 4.100000e-01    2.040000e+00
  SN6d SC6vr  1 4.100000e-01    2.200000e+00
  SN5d SC6vr  1 4.100000e-01    2.200000e+00
  SN4d SC6vr  1 4.100000e-01    2.200000e+00
  SN3d SC6vr  1 4.100000e-01    2.200000e+00
  SN2d SC6vr  1 4.100000e-01    2.200000e+00
  SN1d SC6vr  1 4.100000e-01    2.350000e+00
  SP6a SN1ar  1 4.100000e-01    1.910000e+00
  SP5a SN1ar  1 4.100000e-01    1.910000e+00
  SP4a SN1ar  1 4.100000e-01    2.040000e+00
  SP3a SN1ar  1 4.100000e-01    2.200000e+00
  SP2a SN1ar  1 4.100000e-01    2.200000e+00
  SP1a SN1ar  1 4.100000e-01    2.200000e+00
  SN6a SN1ar  1 4.100000e-01    2.200000e+00
  SN5a SN1ar  1 4.100000e-01    2.200000e+00
  SN4a SN1ar  1 4.100000e-01    2.200000e+00
  SN3a SN1ar  1 4.100000e-01    2.200000e+00
  SN2a SN1ar  1 4.100000e-01    2.200000e+00
  SP6d SN1ar  1 4.100000e-01    1.910000e+00
  SP5d SN1ar  1 4.100000e-01    1.910000e+00
  SP4d SN1ar  1 4.100000e-01    2.040000e+00
  SP3d SN1ar  1 4.100000e-01    2.200000e+00
  SP2d SN1ar  1 4.100000e-01    2.600000e+00
  SP1d SN1ar  1 4.100000e-01    2.600000e+00
  SN6d SN1ar  1 4.100000e-01    2.600000e+00
  SN5d SN1ar  1 4.100000e-01    2.600000e+00
  SN4d SN1ar  1 4.100000e-01    2.600000e+00
  SN3d SN1ar  1 4.100000e-01    2.600000e+00
  SN2d SN1ar  1 4.100000e-01    2.600000e+00
  SN1d SN1ar  1 4.100000e-01    2.840000e+00
  SP6a SN2ar  1 4.100000e-01    2.040000e+00
  SP5a SN2ar  1 4.100000e-01    2.040000e+00
  SP4a SN2ar  1 4.100000e-01    2.200000e+00
  SP3a SN2ar  1 4.100000e-01    2.200000e+00
  SP2a SN2ar  1 4.100000e-01    2.200000e+00
  SP1a SN2ar  1 4.100000e-01    2.200000e+00
  SN6a SN2ar  1 4.100000e-01    2.200000e+00
  SN5a SN2ar  1 4.100000e-01    2.350000e+00
  SN4a SN2ar  1 4.100000e-01    2.350000e+00
  SN3a SN2ar  1 4.100000e-01    2.350000e+00
  SP6d SN2ar  1 4.100000e-01    2.040000e+00
  SP5d SN2ar  1 4.100000e-01    2.040000e+00
  SP4d SN2ar  1 4.100000e-01    2.200000e+00
  SP3d SN2ar  1 4.100000e-01    2.600000e+00
  SP2d SN2ar  1 4.100000e-01    2.600000e+00
  SP1d SN2ar  1 4.100000e-01    2.600000e+00
  SN6d SN2ar  1 4.100000e-01    2.600000e+00
  SN5d SN2ar  1 4.100000e-01    2.840000e+00
  SN4d SN2ar  1 4.100000e-01    2.840000e+00
  SN3d SN2ar  1 4.100000e-01    2.840000e+00
  SN2d SN2ar  1 4.100000e-01    2.840000e+00
  SP6a SN3ar  1 4.100000e-01    2.200000e+00
  SP5a SN3ar  1 4.100000e-01    2.200000e+00
  SP4a SN3ar  1 4.100000e-01    2.200000e+00
  SP3a SN3ar  1 4.100000e-01    2.200000e+00
  SP2a SN3ar  1 4.100000e-01    2.200000e+00
  SP1a SN3ar  1 4.100000e-01    2.200000e+00
  SN6a SN3ar  1 4.100000e-01    2.350000e+00
  SN5a SN3ar  1 4.100000e-01    2.350000e+00
  SN4a SN3ar  1 4.100000e-01    2.350000e+00
  SP6d SN3ar  1 4.100000e-01    2.200000e+00
  SP5d SN3ar  1 4.100000e-01    2.200000e+00
  SP4d SN3ar  1 4.100000e-01    2.600000e+00
  SP3d SN3ar  1 4.100000e-01    2.600000e+00
  SP2d SN3ar  1 4.100000e-01    2.600000e+00
  SP1d SN3ar  1 4.100000e-01    2.600000e+00
  SN6d SN3ar  1 4.100000e-01    2.840000e+00
  SN5d SN3ar  1 4.100000e-01    2.840000e+00
  SN4d SN3ar  1 4.100000e-01    2.840000e+00
  SN3d SN3ar  1 4.100000e-01    2.840000e+00
  SP6a SN4ar  1 4.100000e-01    2.200000e+00
  SP5a SN4ar  1 4.100000e-01    2.350000e+00
  SP4a SN4ar  1 4.100000e-01    2.350000e+00
  SP3a SN4ar  1 4.100000e-01    2.350000e+00
  SP2a SN4ar  1 4.100000e-01    2.350000e+00
  SP1a SN4ar  1 4.100000e-01    2.600000e+00
  SN6a SN4ar  1 4.100000e-01    2.840000e+00
  SN5a SN4ar  1 4.100000e-01    2.600000e+00
  SP6d SN4ar  1 4.100000e-01    2.600000e+00
  SP5d SN4ar  1 4.100000e-01    2.840000e+00
  SP4d SN4ar  1 4.100000e-01    2.840000e+00
  SP3d SN4ar  1 4.100000e-01    2.840000e+00
  SP2d SN4ar  1 4.100000e-01    2.840000e+00
  SP1d SN4ar  1 4.100000e-01    3.070000e+00
  SN6d SN4ar  1 4.100000e-01    3.310000e+00
  SN5d SN4ar  1 4.100000e-01    3.070000e+00
  SN4d SN4ar  1 4.100000e-01    3.070000e+00
  SP6a SN5ar  1 4.100000e-01    2.350000e+00
  SP5a SN5ar  1 4.100000e-01    2.350000e+00
  SP4a SN5ar  1 4.100000e-01    2.350000e+00
  SP3a SN5ar  1 4.100000e-01    2.350000e+00
  SP2a SN5ar  1 4.100000e-01    2.600000e+00
  SP1a SN5ar  1 4.100000e-01    2.600000e+00
  SN6a SN5ar  1 4.100000e-01    2.840000e+00
  SP6d SN5ar  1 4.100000e-01    2.840000e+00
  SP5d SN5ar  1 4.100000e-01    2.840000e+00
  SP4d SN5ar  1 4.100000e-01    2.840000e+00
  SP3d SN5ar  1 4.100000e-01    2.840000e+00
  SP2d SN5ar  1 4.100000e-01    3.070000e+00
  SP1d SN5ar  1 4.100000e-01    3.070000e+00
  SN6d SN5ar  1 4.100000e-01    3.310000e+00
  SN5d SN5ar  1 4.100000e-01    3.070000e+00
  SP6a SN6ar  1 4.100000e-01    2.840000e+00
  SP5a SN6ar  1 4.100000e-01    2.600000e+00
  SP4a SN6ar  1 4.100000e-01    2.600000e+00
  SP3a SN6ar  1 4.100000e-01    2.600000e+00
  SP2a SN6ar  1 4.100000e-01    2.840000e+00
  SP1a SN6ar  1 4.100000e-01    2.840000e+00
  SP6d SN6ar  1 4.100000e-01    3.310000e+00
  SP5d SN6ar  1 4.100000e-01    3.070000e+00
  SP4d SN6ar  1 4.100000e-01    3.070000e+00
  SP3d SN6ar  1 4.100000e-01    3.070000e+00
  SP2d SN6ar  1 4.100000e-01    3.310000e+00
  SP1d SN6ar  1 4.100000e-01    3.310000e+00
  SN6d SN6ar  1 4.100000e-01    3.310000e+00
  SP6a SP1ar  1 4.100000e-01    3.070000e+00
  SP5a SP1ar  1 4.100000e-01    2.840000e+00
  SP4a SP1ar  1 4.100000e-01    2.840000e+00
  SP3a SP1ar  1 4.100000e-01    2.840000e+00
  SP2a SP1ar  1 4.100000e-01    2.840000e+00
  SP6d SP1ar  1 4.100000e-01    3.550000e+00
  SP5d SP1ar  1 4.100000e-01    3.310000e+00
  SP4d SP1ar  1 4.100000e-01    3.310000e+00
  SP3d SP1ar  1 4.100000e-01    3.310000e+00
  SP2d SP1ar  1 4.100000e-01    3.310000e+00
  SP1d SP1ar  1 4.100000e-01    3.310000e+00
  SP6a SP2ar  1 4.100000e-01    3.310000e+00
  SP5a SP2ar  1 4.100000e-01    3.070000e+00
  SP4a SP2ar  1 4.100000e-01    3.070000e+00
  SP3a SP2ar  1 4.100000e-01    3.070000e+00
  SP6d SP2ar  1 4.100000e-01    3.820000e+00
  SP5d SP2ar  1 4.100000e-01    3.550000e+00
  SP4d SP2ar  1 4.100000e-01    3.550000e+00
  SP3d SP2ar  1 4.100000e-01    3.550000e+00
  SP2d SP2ar  1 4.100000e-01    3.550000e+00
  SP6a SP3ar  1 4.100000e-01    3.310000e+00
  SP5a SP3ar  1 4.100000e-01    3.070000e+00
  SP4a SP3ar  1 4.100000e-01    3.070000e+00
  SP6d SP3ar  1 4.100000e-01    3.820000e+00
  SP5d SP3ar  1 4.100000e-01    3.550000e+00
  SP4d SP3ar  1 4.100000e-01    3.550000e+00
  SP3d SP3ar  1 4.100000e-01    3.550000e+00
  SP6a SP4ar  1 4.100000e-01    3.550000e+00
  SP5a SP4ar  1 4.100000e-01    3.310000e+00
  SP6d SP4ar  1 4.100000e-01    4.040000e+00
  SP5d SP4ar  1 4.100000e-01    3.820000e+00
  SP4d SP4ar  1 4.100000e-01    3.820000e+00
  SP6a SP5ar  1 4.100000e-01    3.820000e+00
  SP6d SP5ar  1 4.100000e-01    4.290000e+00
  SP5d SP5ar  1 4.100000e-01    4.040000e+00
  SP6d SP6ar  1 4.100000e-01    4.550000e+00
  SP6d SN1dr  1 4.100000e-01    1.910000e+00
  SP5d SN1dr  1 4.100000e-01    1.910000e+00
  SP4d SN1dr  1 4.100000e-01    2.040000e+00
  SP3d SN1dr  1 4.100000e-01    2.200000e+00
  SP2d SN1dr  1 4.100000e-01    2.200000e+00
  SP1d SN1dr  1 4.100000e-01    2.200000e+00
  SN6d SN1dr  1 4.100000e-01    2.200000e+00
  SN5d SN1dr  1 4.100000e-01    2.200000e+00
  SN4d SN1dr  1 4.100000e-01    2.200000e+00
  SN3d SN1dr  1 4.100000e-01    2.200000e+00
  SN2d SN1dr  1 4.100000e-01    2.200000e+00
  SP6d SN2dr  1 4.100000e-01    2.040000e+00
  SP5d SN2dr  1 4.100000e-01    2.040000e+00
  SP4d SN2dr  1 4.100000e-01    2.200000e+00
  SP3d SN2dr  1 4.100000e-01    2.200000e+00
  SP2d SN2dr  1 4.100000e-01    2.200000e+00
  SP1d SN2dr  1 4.100000e-01    2.200000e+00
  SN6d SN2dr  1 4.100000e-01    2.200000e+00
  SN5d SN2dr  1 4.100000e-01    2.350000e+00
  SN4d SN2dr  1 4.100000e-01    2.350000e+00
  SN3d SN2dr  1 4.100000e-01    2.350000e+00
  SP6d SN3dr  1 4.100000e-01    2.200000e+00
  SP5d SN3dr  1 4.100000e-01    2.200000e+00
  SP4d SN3dr  1 4.100000e-01    2.200000e+00
  SP3d SN3dr  1 4.100000e-01    2.200000e+00
  SP2d SN3dr  1 4.100000e-01    2.200000e+00
  SP1d SN3dr  1 4.100000e-01    2.200000e+00
  SN6d SN3dr  1 4.100000e-01    2.350000e+00
  SN5d SN3dr  1 4.100000e-01    2.350000e+00
  SN4d SN3dr  1 4.100000e-01    2.350000e+00
  SP6d SN4dr  1 4.100000e-01    2.200000e+00
  SP5d SN4dr  1 4.100000e-01    2.350000e+00
  SP4d SN4dr  1 4.100000e-01    2.350000e+00
  SP3d SN4dr  1 4.100000e-01    2.350000e+00
  SP2d SN4dr  1 4.100000e-01    2.350000e+00
  SP1d SN4dr  1 4.100000e-01    2.600000e+00
  SN6d SN4dr  1 4.100000e-01    2.840000e+00
  SN5d SN4dr  1 4.100000e-01    2.600000e+00
  SP6d SN5dr  1 4.100000e-01    2.350000e+00
  SP5d SN5dr  1 4.100000e-01    2.350000e+00
  SP4d SN5dr  1 4.100000e-01    2.350000e+00
  SP3d SN5dr  1 4.100000e-01    2.350000e+00
  SP2d SN5dr  1 4.100000e-01    2.600000e+00
  SP1d SN5dr  1 4.100000e-01    2.600000e+00
  SN6d SN5dr  1 4.100000e-01    2.840000e+00
  SP6d SN6dr  1 4.100000e-01    2.840000e+00
  SP5d SN6dr  1 4.100000e-01    2.600000e+00
  SP4d SN6dr  1 4.100000e-01    2.600000e+00
  SP3d SN6dr  1 4.100000e-01    2.600000e+00
  SP2d SN6dr  1 4.100000e-01    2.840000e+00
  SP1d SN6dr  1 4.100000e-01    2.840000e+00
  SP6d SP1dr  1 4.100000e-01    3.070000e+00
  SP5d SP1dr  1 4.100000e-01    2.840000e+00
  SP4d SP1dr  1 4.100000e-01    2.840000e+00
  SP3d SP1dr  1 4.100000e-01    2.840000e+00
  SP2d SP1dr  1 4.100000e-01    2.840000e+00
  SP6d SP2dr  1 4.100000e-01    3.310000e+00
  SP5d SP2dr  1 4.100000e-01    3.070000e+00
  SP4d SP2dr  1 4.100000e-01    3.070000e+00
  SP3d SP2dr  1 4.100000e-01    3.070000e+00
  SP6d SP3dr  1 4.100000e-01    3.310000e+00
  SP5d SP3dr  1 4.100000e-01    3.070000e+00
  SP4d SP3dr  1 4.100000e-01    3.070000e+00
  SP6d SP4dr  1 4.100000e-01    3.550000e+00
  SP5d SP4dr  1 4.100000e-01    3.310000e+00
  SP6d SP5dr  1 4.100000e-01    3.820000e+00
  SP6r SP6dr  1 4.100000e-01    4.040000e+00
  SP6r SP5dr  1 4.100000e-01    3.820000e+00
  SP6r SP4dr  1 4.100000e-01    3.550000e+00
  SP6r SP3dr  1 4.100000e-01    3.310000e+00
  SP6r SP2dr  1 4.100000e-01    3.310000e+00
  SP6r SP1dr  1 4.100000e-01    3.070000e+00
  SP6r SN6dr  1 4.100000e-01    2.840000e+00
  SP6r SN5dr  1 4.100000e-01    2.350000e+00
  SP6r SN4dr  1 4.100000e-01    2.200000e+00
  SP6r SN3dr  1 4.100000e-01    2.040000e+00
  SP6r SN2dr  1 4.100000e-01    1.910000e+00
  SP6r SN1dr  1 4.100000e-01    1.750000e+00
  SP6r SP6ar  1 4.100000e-01    4.040000e+00
  SP6r SP5ar  1 4.100000e-01    3.820000e+00
  SP6r SP4ar  1 4.100000e-01    3.550000e+00
  SP6r SP3ar  1 4.100000e-01    3.310000e+00
  SP6r SP2ar  1 4.100000e-01    3.310000e+00
  SP6r SP1ar  1 4.100000e-01    3.070000e+00
  SP6r SN6ar  1 4.100000e-01    2.840000e+00
  SP6r SN5ar  1 4.100000e-01    2.350000e+00
  SP6r SN4ar  1 4.100000e-01    2.200000e+00
  SP6r SN3ar  1 4.100000e-01    2.040000e+00
  SP6r SN2ar  1 4.100000e-01    1.910000e+00
  SP6r SN1ar  1 4.100000e-01    1.750000e+00
  SP5r SP5dr  1 4.100000e-01    3.550000e+00
  SP5r SP4dr  1 4.100000e-01    3.310000e+00
  SP5r SP3dr  1 4.100000e-01    3.070000e+00
  SP5r SP2dr  1 4.100000e-01    3.070000e+00
  SP5r SP1dr  1 4.100000e-01    2.840000e+00
  SP5r SN6dr  1 4.100000e-01    2.600000e+00
  SP5r SN5dr  1 4.100000e-01    2.350000e+00
  SP5r SN4dr  1 4.100000e-01    2.350000e+00
  SP5r SN3dr  1 4.100000e-01    2.040000e+00
  SP5r SN2dr  1 4.100000e-01    1.910000e+00
  SP5r SN1dr  1 4.100000e-01    1.750000e+00
  SP5r SP5ar  1 4.100000e-01    3.550000e+00
  SP5r SP4ar  1 4.100000e-01    3.310000e+00
  SP5r SP3ar  1 4.100000e-01    3.070000e+00
  SP5r SP2ar  1 4.100000e-01    3.070000e+00
  SP5r SP1ar  1 4.100000e-01    2.840000e+00
  SP5r SN6ar  1 4.100000e-01    2.600000e+00
  SP5r SN5ar  1 4.100000e-01    2.350000e+00
  SP5r SN4ar  1 4.100000e-01    2.350000e+00
  SP5r SN3ar  1 4.100000e-01    2.040000e+00
  SP5r SN2ar  1 4.100000e-01    1.910000e+00
  SP5r SN1ar  1 4.100000e-01    1.750000e+00
  SP4r SP4dr  1 4.100000e-01    3.310000e+00
  SP4r SP3dr  1 4.100000e-01    3.070000e+00
  SP4r SP2dr  1 4.100000e-01    3.070000e+00
  SP4r SP1dr  1 4.100000e-01    2.840000e+00
  SP4r SN6dr  1 4.100000e-01    2.600000e+00
  SP4r SN5dr  1 4.100000e-01    2.350000e+00
  SP4r SN4dr  1 4.100000e-01    2.350000e+00
  SP4r SN3dr  1 4.100000e-01    2.200000e+00
  SP4r SN2dr  1 4.100000e-01    2.040000e+00
  SP4r SN1dr  1 4.100000e-01    1.910000e+00
  SP4r SP4ar  1 4.100000e-01    3.310000e+00
  SP4r SP3ar  1 4.100000e-01    3.070000e+00
  SP4r SP2ar  1 4.100000e-01    3.070000e+00
  SP4r SP1ar  1 4.100000e-01    2.840000e+00
  SP4r SN6ar  1 4.100000e-01    2.600000e+00
  SP4r SN5ar  1 4.100000e-01    2.350000e+00
  SP4r SN4ar  1 4.100000e-01    2.350000e+00
  SP4r SN3ar  1 4.100000e-01    2.200000e+00
  SP4r SN2ar  1 4.100000e-01    2.040000e+00
  SP4r SN1ar  1 4.100000e-01    1.910000e+00
  SP3r SP3dr  1 4.100000e-01    3.070000e+00
  SP3r SP2dr  1 4.100000e-01    3.070000e+00
  SP3r SP1dr  1 4.100000e-01    2.840000e+00
  SP3r SN6dr  1 4.100000e-01    2.600000e+00
  SP3r SN5dr  1 4.100000e-01    2.350000e+00
  SP3r SN4dr  1 4.100000e-01    2.350000e+00
  SP3r SN3dr  1 4.100000e-01    2.200000e+00
  SP3r SN2dr  1 4.100000e-01    2.200000e+00
  SP3r SN1dr  1 4.100000e-01    2.040000e+00
  SP3r SP3ar  1 4.100000e-01    3.070000e+00
  SP3r SP2ar  1 4.100000e-01    3.070000e+00
  SP3r SP1ar  1 4.100000e-01    2.840000e+00
  SP3r SN6ar  1 4.100000e-01    2.600000e+00
  SP3r SN5ar  1 4.100000e-01    2.350000e+00
  SP3r SN4ar  1 4.100000e-01    2.350000e+00
  SP3r SN3ar  1 4.100000e-01    2.200000e+00
  SP3r SN2ar  1 4.100000e-01    2.200000e+00
  SP3r SN1ar  1 4.100000e-01    2.040000e+00
  SP2r SP2dr  1 4.100000e-01    3.070000e+00
  SP2r SP1dr  1 4.100000e-01    2.840000e+00
  SP2r SN6dr  1 4.100000e-01    2.840000e+00
  SP2r SN5dr  1 4.100000e-01    2.600000e+00
  SP2r SN4dr  1 4.100000e-01    2.350000e+00
  SP2r SN3dr  1 4.100000e-01    2.200000e+00
  SP2r SN2dr  1 4.100000e-01    2.200000e+00
  SP2r SN1dr  1 4.100000e-01    2.200000e+00
  SP2r SP2ar  1 4.100000e-01    3.070000e+00
  SP2r SP1ar  1 4.100000e-01    2.840000e+00
  SP2r SN6ar  1 4.100000e-01    2.840000e+00
  SP2r SN5ar  1 4.100000e-01    2.600000e+00
  SP2r SN4ar  1 4.100000e-01    2.350000e+00
  SP2r SN3ar  1 4.100000e-01    2.200000e+00
  SP2r SN2ar  1 4.100000e-01    2.200000e+00
  SP2r SN1ar  1 4.100000e-01    2.200000e+00
  SP1r SP1dr  1 4.100000e-01    2.840000e+00
  SP1r SN6dr  1 4.100000e-01    2.840000e+00
  SP1r SN5dr  1 4.100000e-01    2.600000e+00
  SP1r SN4dr  1 4.100000e-01    2.600000e+00
  SP1r SN3dr  1 4.100000e-01    2.200000e+00
  SP1r SN2dr  1 4.100000e-01    2.200000e+00
  SP1r SN1dr  1 4.100000e-01    2.200000e+00
  SP1r SP1ar  1 4.100000e-01    2.840000e+00
  SP1r SN6ar  1 4.100000e-01    2.840000e+00
  SP1r SN5ar  1 4.100000e-01    2.600000e+00
  SP1r SN4ar  1 4.100000e-01    2.600000e+00
  SP1r SN3ar  1 4.100000e-01    2.200000e+00
  SP1r SN2ar  1 4.100000e-01    2.200000e+00
  SP1r SN1ar  1 4.100000e-01    2.200000e+00
  SN6r SN6dr  1 4.100000e-01    2.840000e+00
  SN6r SN5dr  1 4.100000e-01    2.840000e+00
  SN6r SN4dr  1 4.100000e-01    2.840000e+00
  SN6r SN3dr  1 4.100000e-01    2.350000e+00
  SN6r SN2dr  1 4.100000e-01    2.200000e+00
  SN6r SN1dr  1 4.100000e-01    2.200000e+00
  SN6r SN6ar  1 4.100000e-01    2.840000e+00
  SN6r SN5ar  1 4.100000e-01    2.840000e+00
  SN6r SN4ar  1 4.100000e-01    2.840000e+00
  SN6r SN3ar  1 4.100000e-01    2.350000e+00
  SN6r SN2ar  1 4.100000e-01    2.200000e+00
  SN6r SN1ar  1 4.100000e-01    2.200000e+00
  SN5r SN5dr  1 4.100000e-01    2.600000e+00
  SN5r SN4dr  1 4.100000e-01    2.600000e+00
  SN5r SN3dr  1 4.100000e-01    2.350000e+00
  SN5r SN2dr  1 4.100000e-01    2.350000e+00
  SN5r SN1dr  1 4.100000e-01    2.200000e+00
  SN5r SN5ar  1 4.100000e-01    2.600000e+00
  SN5r SN4ar  1 4.100000e-01    2.600000e+00
  SN5r SN3ar  1 4.100000e-01    2.350000e+00
  SN5r SN2ar  1 4.100000e-01    2.350000e+00
  SN5r SN1ar  1 4.100000e-01    2.200000e+00
  SN4r SN4dr  1 4.100000e-01    2.600000e+00
  SN4r SN3dr  1 4.100000e-01    2.350000e+00
  SN4r SN2dr  1 4.100000e-01    2.350000e+00
  SN4r SN1dr  1 4.100000e-01    2.200000e+00
  SN4r SN4ar  1 4.100000e-01    2.600000e+00
  SN4r SN3ar  1 4.100000e-01    2.350000e+00
  SN4r SN2ar  1 4.100000e-01    2.350000e+00
  SN4r SN1ar  1 4.100000e-01    2.200000e+00
  SN3r SN3dr  1 4.100000e-01    2.350000e+00
  SN3r SN2dr  1 4.100000e-01    2.350000e+00
  SN3r SN1dr  1 4.100000e-01    2.200000e+00
  SN3r SN3ar  1 4.100000e-01    2.350000e+00
  SN3r SN2ar  1 4.100000e-01    2.350000e+00
  SN3r SN1ar  1 4.100000e-01    2.200000e+00
  SN2r SN2dr  1 4.100000e-01    2.350000e+00
  SN2r SN1dr  1 4.100000e-01    2.200000e+00
  SN2r SN2ar  1 4.100000e-01    2.350000e+00
  SN2r SN1ar  1 4.100000e-01    2.200000e+00
  SN1r SN1dr  1 4.100000e-01    2.350000e+00
  SN1r SN1ar  1 4.100000e-01    2.350000e+00
  SC6r SC6vr  1 4.100000e-01    2.600000e+00
  SC6r SC5vr  1 4.100000e-01    2.350000e+00
  SC6r SC4vr  1 4.100000e-01    2.350000e+00
  SC6r SC3vr  1 4.100000e-01    2.200000e+00
  SC6r SC2vr  1 4.100000e-01    2.040000e+00
  SC6r SC1vr  1 4.100000e-01    1.910000e+00
  SC6r SX4vr  1 4.100000e-01    2.350000e+00
  SC6r SX3vr  1 4.100000e-01    2.350000e+00
  SC6r SX2vr  1 4.100000e-01    2.350000e+00
  SC6r SX1vr  1 4.100000e-01    2.350000e+00
  SC6r SC6er  1 4.100000e-01    2.600000e+00
  SC6r SC5er  1 4.100000e-01    2.350000e+00
  SC6r SC4er  1 4.100000e-01    2.350000e+00
  SC6r SC3er  1 4.100000e-01    2.200000e+00
  SC6r SC2er  1 4.100000e-01    2.040000e+00
  SC6r SC1er  1 4.100000e-01    1.910000e+00
  SC6r SX4er  1 4.100000e-01    2.350000e+00
  SC6r SX3er  1 4.100000e-01    2.350000e+00
  SC6r SX2er  1 4.100000e-01    2.350000e+00
  SC6r SX1er  1 4.100000e-01    2.350000e+00
  SC5r SC5vr  1 4.100000e-01    2.350000e+00
  SC5r SC4vr  1 4.100000e-01    2.350000e+00
  SC5r SC3vr  1 4.100000e-01    2.200000e+00
  SC5r SC2vr  1 4.100000e-01    2.040000e+00
  SC5r SC1vr  1 4.100000e-01    2.040000e+00
  SC5r SX4vr  1 4.100000e-01    2.200000e+00
  SC5r SX3vr  1 4.100000e-01    2.200000e+00
  SC5r SX2vr  1 4.100000e-01    2.200000e+00
  SC5r SX1vr  1 4.100000e-01    2.350000e+00
  SC5r SC5er  1 4.100000e-01    2.350000e+00
  SC5r SC4er  1 4.100000e-01    2.350000e+00
  SC5r SC3er  1 4.100000e-01    2.200000e+00
  SC5r SC2er  1 4.100000e-01    2.040000e+00
  SC5r SC1er  1 4.100000e-01    2.040000e+00
  SC5r SX4er  1 4.100000e-01    2.200000e+00
  SC5r SX3er  1 4.100000e-01    2.200000e+00
  SC5r SX2er  1 4.100000e-01    2.200000e+00
  SC5r SX1er  1 4.100000e-01    2.350000e+00
  SC4r SC4vr  1 4.100000e-01    2.350000e+00
  SC4r SC3vr  1 4.100000e-01    2.350000e+00
  SC4r SC2vr  1 4.100000e-01    2.200000e+00
  SC4r SC1vr  1 4.100000e-01    2.040000e+00
  SC4r SX4vr  1 4.100000e-01    2.200000e+00
  SC4r SX3vr  1 4.100000e-01    2.200000e+00
  SC4r SX2vr  1 4.100000e-01    2.200000e+00
  SC4r SX1vr  1 4.100000e-01    2.350000e+00
  SC4r SC4er  1 4.100000e-01    2.350000e+00
  SC4r SC3er  1 4.100000e-01    2.350000e+00
  SC4r SC2er  1 4.100000e-01    2.200000e+00
  SC4r SC1er  1 4.100000e-01    2.040000e+00
  SC4r SX4er  1 4.100000e-01    2.200000e+00
  SC4r SX3er  1 4.100000e-01    2.200000e+00
  SC4r SX2er  1 4.100000e-01    2.200000e+00
  SC4r SX1er  1 4.100000e-01    2.350000e+00
  SC3r SC3vr  1 4.100000e-01    2.350000e+00
  SC3r SC2vr  1 4.100000e-01    2.350000e+00
  SC3r SC1vr  1 4.100000e-01    2.350000e+00
  SC3r SX4vr  1 4.100000e-01    2.200000e+00
  SC3r SX3vr  1 4.100000e-01    2.200000e+00
  SC3r SX2vr  1 4.100000e-01    2.200000e+00
  SC3r SX1vr  1 4.100000e-01    2.350000e+00
  SC3r SC3er  1 4.100000e-01    2.350000e+00
  SC3r SC2er  1 4.100000e-01    2.350000e+00
  SC3r SC1er  1 4.100000e-01    2.350000e+00
  SC3r SX4er  1 4.100000e-01    2.200000e+00
  SC3r SX3er  1 4.100000e-01    2.200000e+00
  SC3r SX2er  1 4.100000e-01    2.200000e+00
  SC3r SX1er  1 4.100000e-01    2.350000e+00
  SC2r SC2vr  1 4.100000e-01    2.350000e+00
  SC2r SC1vr  1 4.100000e-01    2.600000e+00
  SC2r SX4vr  1 4.100000e-01    1.910000e+00
  SC2r SX3vr  1 4.100000e-01    2.200000e+00
  SC2r SX2vr  1 4.100000e-01    2.200000e+00
  SC2r SX1vr  1 4.100000e-01    2.200000e+00
  SC2r SC2er  1 4.100000e-01    2.350000e+00
  SC2r SC1er  1 4.100000e-01    2.600000e+00
  SC2r SX4er  1 4.100000e-01    1.910000e+00
  SC2r SX3er  1 4.100000e-01    2.200000e+00
  SC2r SX2er  1 4.100000e-01    2.200000e+00
  SC2r SX1er  1 4.100000e-01    2.200000e+00
  SC1r SC1vr  1 4.100000e-01    2.350000e+00
  SC1r SX4vr  1 4.100000e-01    1.910000e+00
  SC1r SX3vr  1 4.100000e-01    2.200000e+00
  SC1r SX2vr  1 4.100000e-01    2.200000e+00
  SC1r SX1vr  1 4.100000e-01    2.200000e+00
  SC1r SC1er  1 4.100000e-01    2.350000e+00
  SC1r SX4er  1 4.100000e-01    1.910000e+00
  SC1r SX3er  1 4.100000e-01    2.200000e+00
  SC1r SX2er  1 4.100000e-01    2.200000e+00
  SC1r SX1er  1 4.100000e-01    2.200000e+00
  SX4r SX4vr  1 4.100000e-01    2.350000e+00
  SX4r SX3vr  1 4.100000e-01    2.350000e+00
  SX4r SX2vr  1 4.100000e-01    2.350000e+00
  SX4r SX1vr  1 4.100000e-01    2.350000e+00
  SX4r SX4er  1 4.100000e-01    2.350000e+00
  SX4r SX3er  1 4.100000e-01    2.350000e+00
  SX4r SX2er  1 4.100000e-01    2.350000e+00
  SX4r SX1er  1 4.100000e-01    2.350000e+00
  SX3r SX3vr  1 4.100000e-01    2.350000e+00
  SX3r SX2vr  1 4.100000e-01    2.600000e+00
  SX3r SX1vr  1 4.100000e-01    2.600000e+00
  SX3r SX3er  1 4.100000e-01    2.350000e+00
  SX3r SX2er  1 4.100000e-01    2.600000e+00
  SX3r SX1er  1 4.100000e-01    2.600000e+00
  SX2r SX2vr  1 4.100000e-01    2.600000e+00
  SX2r SX1vr  1 4.100000e-01    2.600000e+00
  SX2r SX2er  1 4.100000e-01    2.600000e+00
  SX2r SX1er  1 4.100000e-01    2.600000e+00
  SX1r SX1vr  1 4.100000e-01    2.840000e+00
  SX1r SX1er  1 4.100000e-01    2.840000e+00
  SP6r SC6vr  1 4.100000e-01    2.040000e+00
  SP6r SC5vr  1 4.100000e-01    1.910000e+00
  SP6r SC4vr  1 4.100000e-01    1.750000e+00
  SP6r SC3vr  1 4.140000e-01    1.560000e+00
  SP6r SC2vr  1 4.140000e-01    1.560000e+00
  SP6r SC1vr  1 4.210000e-01    1.250000e+00
  SP6r SX4vr  1 4.100000e-01    2.200000e+00
  SP6r SX3vr  1 4.100000e-01    2.200000e+00
  SP6r SX2vr  1 4.100000e-01    2.040000e+00
  SP6r SX1vr  1 4.100000e-01    1.910000e+00
  SP6r SC6er  1 4.100000e-01    2.040000e+00
  SP6r SC5er  1 4.100000e-01    1.910000e+00
  SP6r SC4er  1 4.100000e-01    1.750000e+00
  SP6r SC3er  1 4.140000e-01    1.560000e+00
  SP6r SC2er  1 4.140000e-01    1.560000e+00
  SP6r SC1er  1 4.210000e-01    1.250000e+00
  SP6r SX4er  1 4.100000e-01    2.200000e+00
  SP6r SX3er  1 4.100000e-01    2.200000e+00
  SP6r SX2er  1 4.100000e-01    2.040000e+00
  SP6r SX1er  1 4.100000e-01    1.910000e+00
  SP5r SC6vr  1 4.100000e-01    2.040000e+00
  SP5r SC5vr  1 4.100000e-01    2.040000e+00
  SP5r SC4vr  1 4.100000e-01    1.910000e+00
  SP5r SC3vr  1 4.100000e-01    1.750000e+00
  SP5r SC2vr  1 4.100000e-01    1.750000e+00
  SP5r SC1vr  1 4.140000e-01    1.560000e+00
  SP5r SX4vr  1 4.100000e-01    2.350000e+00
  SP5r SX3vr  1 4.100000e-01    2.200000e+00
  SP5r SX2vr  1 4.100000e-01    2.200000e+00
  SP5r SX1vr  1 4.100000e-01    1.910000e+00
  SP5r SC6er  1 4.100000e-01    2.040000e+00
  SP5r SC5er  1 4.100000e-01    2.040000e+00
  SP5r SC4er  1 4.100000e-01    1.910000e+00
  SP5r SC3er  1 4.100000e-01    1.750000e+00
  SP5r SC2er  1 4.100000e-01    1.750000e+00
  SP5r SC1er  1 4.140000e-01    1.560000e+00
  SP5r SX4er  1 4.100000e-01    2.350000e+00
  SP5r SX3er  1 4.100000e-01    2.200000e+00
  SP5r SX2er  1 4.100000e-01    2.200000e+00
  SP5r SX1er  1 4.100000e-01    1.910000e+00
  SP4r SC6vr  1 4.100000e-01    2.200000e+00
  SP4r SC5vr  1 4.100000e-01    2.040000e+00
  SP4r SC4vr  1 4.100000e-01    1.910000e+00
  SP4r SC3vr  1 4.100000e-01    1.750000e+00
  SP4r SC2vr  1 4.100000e-01    1.750000e+00
  SP4r SC1vr  1 4.140000e-01    1.560000e+00
  SP4r SX4vr  1 4.100000e-01    2.350000e+00
  SP4r SX3vr  1 4.100000e-01    2.200000e+00
  SP4r SX2vr  1 4.100000e-01    2.200000e+00
  SP4r SX1vr  1 4.100000e-01    2.040000e+00
  SP4r SC6er  1 4.100000e-01    2.200000e+00
  SP4r SC5er  1 4.100000e-01    2.040000e+00
  SP4r SC4er  1 4.100000e-01    1.910000e+00
  SP4r SC3er  1 4.100000e-01    1.750000e+00
  SP4r SC2er  1 4.100000e-01    1.750000e+00
  SP4r SC1er  1 4.140000e-01    1.560000e+00
  SP4r SX4er  1 4.100000e-01    2.350000e+00
  SP4r SX3er  1 4.100000e-01    2.200000e+00
  SP4r SX2er  1 4.100000e-01    2.200000e+00
  SP4r SX1er  1 4.100000e-01    2.040000e+00
  SP3r SC6vr  1 4.100000e-01    2.350000e+00
  SP3r SC5vr  1 4.100000e-01    2.200000e+00
  SP3r SC4vr  1 4.100000e-01    2.040000e+00
  SP3r SC3vr  1 4.100000e-01    1.750000e+00
  SP3r SC2vr  1 4.100000e-01    1.750000e+00
  SP3r SC1vr  1 4.140000e-01    1.560000e+00
  SP3r SX4vr  1 4.100000e-01    2.350000e+00
  SP3r SX3vr  1 4.100000e-01    2.350000e+00
  SP3r SX2vr  1 4.100000e-01    2.200000e+00
  SP3r SX1vr  1 4.100000e-01    2.040000e+00
  SP3r SC6er  1 4.100000e-01    2.350000e+00
  SP3r SC5er  1 4.100000e-01    2.200000e+00
  SP3r SC4er  1 4.100000e-01    2.040000e+00
  SP3r SC3er  1 4.100000e-01    1.750000e+00
  SP3r SC2er  1 4.100000e-01    1.750000e+00
  SP3r SC1er  1 4.140000e-01    1.560000e+00
  SP3r SX4er  1 4.100000e-01    2.350000e+00
  SP3r SX3er  1 4.100000e-01    2.350000e+00
  SP3r SX2er  1 4.100000e-01    2.200000e+00
  SP3r SX1er  1 4.100000e-01    2.040000e+00
  SP2r SC6vr  1 4.100000e-01    2.350000e+00
  SP2r SC5vr  1 4.100000e-01    2.200000e+00
  SP2r SC4vr  1 4.100000e-01    2.040000e+00
  SP2r SC3vr  1 4.100000e-01    1.910000e+00
  SP2r SC2vr  1 4.100000e-01    1.910000e+00
  SP2r SC1vr  1 4.100000e-01    1.750000e+00
  SP2r SX4vr  1 4.100000e-01    2.350000e+00
  SP2r SX3vr  1 4.100000e-01    2.350000e+00
  SP2r SX2vr  1 4.100000e-01    2.200000e+00
  SP2r SX1vr  1 4.100000e-01    2.040000e+00
  SP2r SC6er  1 4.100000e-01    2.350000e+00
  SP2r SC5er  1 4.100000e-01    2.200000e+00
  SP2r SC4er  1 4.100000e-01    2.040000e+00
  SP2r SC3er  1 4.100000e-01    1.910000e+00
  SP2r SC2er  1 4.100000e-01    1.910000e+00
  SP2r SC1er  1 4.100000e-01    1.750000e+00
  SP2r SX4er  1 4.100000e-01    2.350000e+00
  SP2r SX3er  1 4.100000e-01    2.350000e+00
  SP2r SX2er  1 4.100000e-01    2.200000e+00
  SP2r SX1er  1 4.100000e-01    2.040000e+00
  SP1r SC6vr  1 4.100000e-01    2.350000e+00
  SP1r SC5vr  1 4.100000e-01    2.200000e+00
  SP1r SC4vr  1 4.100000e-01    2.040000e+00
  SP1r SC3vr  1 4.100000e-01    1.910000e+00
  SP1r SC2vr  1 4.100000e-01    1.910000e+00
  SP1r SC1vr  1 4.100000e-01    1.750000e+00
  SP1r SX4vr  1 4.100000e-01    2.350000e+00
  SP1r SX3vr  1 4.100000e-01    2.350000e+00
  SP1r SX2vr  1 4.100000e-01    2.200000e+00
  SP1r SX1vr  1 4.100000e-01    2.040000e+00
  SP1r SC6er  1 4.100000e-01    2.350000e+00
  SP1r SC5er  1 4.100000e-01    2.200000e+00
  SP1r SC4er  1 4.100000e-01    2.040000e+00
  SP1r SC3er  1 4.100000e-01    1.910000e+00
  SP1r SC2er  1 4.100000e-01    1.910000e+00
  SP1r SC1er  1 4.100000e-01    1.750000e+00
  SP1r SX4er  1 4.100000e-01    2.350000e+00
  SP1r SX3er  1 4.100000e-01    2.350000e+00
  SP1r SX2er  1 4.100000e-01    2.200000e+00
  SP1r SX1er  1 4.100000e-01    2.040000e+00
  SN6r SC6vr  1 4.100000e-01    2.600000e+00
  SN6r SC5vr  1 4.100000e-01    2.350000e+00
  SN6r SC4vr  1 4.100000e-01    2.200000e+00
  SN6r SC3vr  1 4.100000e-01    2.040000e+00
  SN6r SC2vr  1 4.100000e-01    2.040000e+00
  SN6r SC1vr  1 4.100000e-01    1.910000e+00
  SN6r SX4vr  1 4.100000e-01    2.600000e+00
  SN6r SX3vr  1 4.100000e-01    2.350000e+00
  SN6r SX2vr  1 4.100000e-01    2.200000e+00
  SN6r SX1vr  1 4.100000e-01    2.040000e+00
  SN6r SC6er  1 4.100000e-01    2.600000e+00
  SN6r SC5er  1 4.100000e-01    2.350000e+00
  SN6r SC4er  1 4.100000e-01    2.200000e+00
  SN6r SC3er  1 4.100000e-01    2.040000e+00
  SN6r SC2er  1 4.100000e-01    2.040000e+00
  SN6r SC1er  1 4.100000e-01    1.910000e+00
  SN6r SX4er  1 4.100000e-01    2.600000e+00
  SN6r SX3er  1 4.100000e-01    2.350000e+00
  SN6r SX2er  1 4.100000e-01    2.200000e+00
  SN6r SX1er  1 4.100000e-01    2.040000e+00
  SN5r SC6vr  1 4.100000e-01    2.600000e+00
  SN5r SC5vr  1 4.100000e-01    2.350000e+00
  SN5r SC4vr  1 4.100000e-01    2.200000e+00
  SN5r SC3vr  1 4.100000e-01    2.200000e+00
  SN5r SC2vr  1 4.100000e-01    2.040000e+00
  SN5r SC1vr  1 4.100000e-01    1.910000e+00
  SN5r SX4vr  1 4.100000e-01    2.840000e+00
  SN5r SX3vr  1 4.100000e-01    2.600000e+00
  SN5r SX2vr  1 4.100000e-01    2.350000e+00
  SN5r SX1vr  1 4.100000e-01    2.200000e+00
  SN5r SC6er  1 4.100000e-01    2.600000e+00
  SN5r SC5er  1 4.100000e-01    2.350000e+00
  SN5r SC4er  1 4.100000e-01    2.200000e+00
  SN5r SC3er  1 4.100000e-01    2.200000e+00
  SN5r SC2er  1 4.100000e-01    2.040000e+00
  SN5r SC1er  1 4.100000e-01    1.910000e+00
  SN5r SX4er  1 4.100000e-01    2.840000e+00
  SN5r SX3er  1 4.100000e-01    2.600000e+00
  SN5r SX2er  1 4.100000e-01    2.350000e+00
  SN5r SX1er  1 4.100000e-01    2.200000e+00
  SN4r SC6vr  1 4.100000e-01    2.600000e+00
  SN4r SC5vr  1 4.100000e-01    2.350000e+00
  SN4r SC4vr  1 4.100000e-01    2.350000e+00
  SN4r SC3vr  1 4.100000e-01    2.200000e+00
  SN4r SC2vr  1 4.100000e-01    2.040000e+00
  SN4r SC1vr  1 4.100000e-01    1.910000e+00
  SN4r SX4vr  1 4.100000e-01    3.070000e+00
  SN4r SX3vr  1 4.100000e-01    2.840000e+00
  SN4r SX2vr  1 4.100000e-01    2.350000e+00
  SN4r SX1vr  1 4.100000e-01    2.200000e+00
  SN4r SC6er  1 4.100000e-01    2.600000e+00
  SN4r SC5er  1 4.100000e-01    2.350000e+00
  SN4r SC4er  1 4.100000e-01    2.350000e+00
  SN4r SC3er  1 4.100000e-01    2.200000e+00
  SN4r SC2er  1 4.100000e-01    2.040000e+00
  SN4r SC1er  1 4.100000e-01    1.910000e+00
  SN4r SX4er  1 4.100000e-01    3.070000e+00
  SN4r SX3er  1 4.100000e-01    2.840000e+00
  SN4r SX2er  1 4.100000e-01    2.350000e+00
  SN4r SX1er  1 4.100000e-01    2.200000e+00
  SN3r SC6vr  1 4.100000e-01    2.600000e+00
  SN3r SC5vr  1 4.100000e-01    2.350000e+00
  SN3r SC4vr  1 4.100000e-01    2.350000e+00
  SN3r SC3vr  1 4.100000e-01    2.200000e+00
  SN3r SC2vr  1 4.100000e-01    2.200000e+00
  SN3r SC1vr  1 4.100000e-01    2.040000e+00
  SN3r SX4vr  1 4.100000e-01    2.840000e+00
  SN3r SX3vr  1 4.100000e-01    2.600000e+00
  SN3r SX2vr  1 4.100000e-01    2.350000e+00
  SN3r SX1vr  1 4.100000e-01    2.350000e+00
  SN3r SC6er  1 4.100000e-01    2.600000e+00
  SN3r SC5er  1 4.100000e-01    2.350000e+00
  SN3r SC4er  1 4.100000e-01    2.350000e+00
  SN3r SC3er  1 4.100000e-01    2.200000e+00
  SN3r SC2er  1 4.100000e-01    2.200000e+00
  SN3r SC1er  1 4.100000e-01    2.040000e+00
  SN3r SX4er  1 4.100000e-01    2.840000e+00
  SN3r SX3er  1 4.100000e-01    2.600000e+00
  SN3r SX2er  1 4.100000e-01    2.350000e+00
  SN3r SX1er  1 4.100000e-01    2.350000e+00
  SN2r SC6vr  1 4.100000e-01    2.600000e+00
  SN2r SC5vr  1 4.100000e-01    2.350000e+00
  SN2r SC4vr  1 4.100000e-01    2.350000e+00
  SN2r SC3vr  1 4.100000e-01    2.350000e+00
  SN2r SC2vr  1 4.100000e-01    2.200000e+00
  SN2r SC1vr  1 4.100000e-01    2.040000e+00
  SN2r SX4vr  1 4.100000e-01    2.840000e+00
  SN2r SX3vr  1 4.100000e-01    2.600000e+00
  SN2r SX2vr  1 4.100000e-01    2.350000e+00
  SN2r SX1vr  1 4.100000e-01    2.350000e+00
  SN2r SC6er  1 4.100000e-01    2.600000e+00
  SN2r SC5er  1 4.100000e-01    2.350000e+00
  SN2r SC4er  1 4.100000e-01    2.350000e+00
  SN2r SC3er  1 4.100000e-01    2.350000e+00
  SN2r SC2er  1 4.100000e-01    2.200000e+00
  SN2r SC1er  1 4.100000e-01    2.040000e+00
  SN2r SX4er  1 4.100000e-01    2.840000e+00
  SN2r SX3er  1 4.100000e-01    2.600000e+00
  SN2r SX2er  1 4.100000e-01    2.350000e+00
  SN2r SX1er  1 4.100000e-01    2.350000e+00
  SN1r SC6vr  1 4.100000e-01    2.840000e+00
  SN1r SC5vr  1 4.100000e-01    2.600000e+00
  SN1r SC4vr  1 4.100000e-01    2.600000e+00
  SN1r SC3vr  1 4.100000e-01    2.350000e+00
  SN1r SC2vr  1 4.100000e-01    2.200000e+00
  SN1r SC1vr  1 4.100000e-01    2.040000e+00
  SN1r SX4vr  1 4.100000e-01    2.600000e+00
  SN1r SX3vr  1 4.100000e-01    2.600000e+00
  SN1r SX2vr  1 4.100000e-01    2.350000e+00
  SN1r SX1vr  1 4.100000e-01    2.350000e+00
  SN1r SC6er  1 4.100000e-01    2.840000e+00
  SN1r SC5er  1 4.100000e-01    2.600000e+00
  SN1r SC4er  1 4.100000e-01    2.600000e+00
  SN1r SC3er  1 4.100000e-01    2.350000e+00
  SN1r SC2er  1 4.100000e-01    2.200000e+00
  SN1r SC1er  1 4.100000e-01    2.040000e+00
  SN1r SX4er  1 4.100000e-01    2.600000e+00
  SN1r SX3er  1 4.100000e-01    2.600000e+00
  SN1r SX2er  1 4.100000e-01    2.350000e+00
  SN1r SX1er  1 4.100000e-01    2.350000e+00
  SP6h SP6dh  1 4.100000e-01    4.550000e+00
  SP6h SP5dh  1 4.100000e-01    4.290000e+00
  SP6h SP4dh  1 4.100000e-01    4.040000e+00
  SP6h SP3dh  1 4.100000e-01    3.820000e+00
  SP6h SP2dh  1 4.100000e-01    3.820000e+00
  SP6h SP1dh  1 4.100000e-01    3.550000e+00
  SP6h SN6dh  1 4.100000e-01    3.310000e+00
  SP6h SN5dh  1 4.100000e-01    2.840000e+00
  SP6h SN4dh  1 4.100000e-01    2.600000e+00
  SP6h SN3dh  1 4.100000e-01    2.350000e+00
  SP6h SN2dh  1 4.100000e-01    2.200000e+00
  SP6h SN1dh  1 4.100000e-01    2.040000e+00
  SP6h SP6ah  1 4.100000e-01    4.550000e+00
  SP6h SP5ah  1 4.100000e-01    4.290000e+00
  SP6h SP4ah  1 4.100000e-01    4.040000e+00
  SP6h SP3ah  1 4.100000e-01    3.820000e+00
  SP6h SP2ah  1 4.100000e-01    3.820000e+00
  SP6h SP1ah  1 4.100000e-01    3.550000e+00
  SP6h SN6ah  1 4.100000e-01    3.310000e+00
  SP6h SN5ah  1 4.100000e-01    2.840000e+00
  SP6h SN4ah  1 4.100000e-01    2.600000e+00
  SP6h SN3ah  1 4.100000e-01    2.350000e+00
  SP6h SN2ah  1 4.100000e-01    2.200000e+00
  SP6h SN1ah  1 4.100000e-01    2.040000e+00
  SP5h SP5dh  1 4.100000e-01    4.040000e+00
  SP5h SP4dh  1 4.100000e-01    3.820000e+00
  SP5h SP3dh  1 4.100000e-01    3.550000e+00
  SP5h SP2dh  1 4.100000e-01    3.550000e+00
  SP5h SP1dh  1 4.100000e-01    3.310000e+00
  SP5h SN6dh  1 4.100000e-01    3.070000e+00
  SP5h SN5dh  1 4.100000e-01    2.840000e+00
  SP5h SN4dh  1 4.100000e-01    2.840000e+00
  SP5h SN3dh  1 4.100000e-01    2.350000e+00
  SP5h SN2dh  1 4.100000e-01    2.200000e+00
  SP5h SN1dh  1 4.100000e-01    2.040000e+00
  SP5h SP5ah  1 4.100000e-01    4.040000e+00
  SP5h SP4ah  1 4.100000e-01    3.820000e+00
  SP5h SP3ah  1 4.100000e-01    3.550000e+00
  SP5h SP2ah  1 4.100000e-01    3.550000e+00
  SP5h SP1ah  1 4.100000e-01    3.310000e+00
  SP5h SN6ah  1 4.100000e-01    3.070000e+00
  SP5h SN5ah  1 4.100000e-01    2.840000e+00
  SP5h SN4ah  1 4.100000e-01    2.840000e+00
  SP5h SN3ah  1 4.100000e-01    2.350000e+00
  SP5h SN2ah  1 4.100000e-01    2.200000e+00
  SP5h SN1ah  1 4.100000e-01    2.040000e+00
  SP4h SP4dh  1 4.100000e-01    3.820000e+00
  SP4h SP3dh  1 4.100000e-01    3.550000e+00
  SP4h SP2dh  1 4.100000e-01    3.550000e+00
  SP4h SP1dh  1 4.100000e-01    3.310000e+00
  SP4h SN6dh  1 4.100000e-01    3.070000e+00
  SP4h SN5dh  1 4.100000e-01    2.840000e+00
  SP4h SN4dh  1 4.100000e-01    2.840000e+00
  SP4h SN3dh  1 4.100000e-01    2.600000e+00
  SP4h SN2dh  1 4.100000e-01    2.350000e+00
  SP4h SN1dh  1 4.100000e-01    2.200000e+00
  SP4h SP4ah  1 4.100000e-01    3.820000e+00
  SP4h SP3ah  1 4.100000e-01    3.550000e+00
  SP4h SP2ah  1 4.100000e-01    3.550000e+00
  SP4h SP1ah  1 4.100000e-01    3.310000e+00
  SP4h SN6ah  1 4.100000e-01    3.070000e+00
  SP4h SN5ah  1 4.100000e-01    2.840000e+00
  SP4h SN4ah  1 4.100000e-01    2.840000e+00
  SP4h SN3ah  1 4.100000e-01    2.600000e+00
  SP4h SN2ah  1 4.100000e-01    2.350000e+00
  SP4h SN1ah  1 4.100000e-01    2.200000e+00
  SP3h SP3dh  1 4.100000e-01    3.550000e+00
  SP3h SP2dh  1 4.100000e-01    3.550000e+00
  SP3h SP1dh  1 4.100000e-01    3.310000e+00
  SP3h SN6dh  1 4.100000e-01    3.070000e+00
  SP3h SN5dh  1 4.100000e-01    2.840000e+00
  SP3h SN4dh  1 4.100000e-01    2.840000e+00
  SP3h SN3dh  1 4.100000e-01    2.600000e+00
  SP3h SN2dh  1 4.100000e-01    2.600000e+00
  SP3h SN1dh  1 4.100000e-01    2.350000e+00
  SP3h SP3ah  1 4.100000e-01    3.550000e+00
  SP3h SP2ah  1 4.100000e-01    3.550000e+00
  SP3h SP1ah  1 4.100000e-01    3.310000e+00
  SP3h SN6ah  1 4.100000e-01    3.070000e+00
  SP3h SN5ah  1 4.100000e-01    2.840000e+00
  SP3h SN4ah  1 4.100000e-01    2.840000e+00
  SP3h SN3ah  1 4.100000e-01    2.600000e+00
  SP3h SN2ah  1 4.100000e-01    2.600000e+00
  SP3h SN1ah  1 4.100000e-01    2.350000e+00
  SP2h SP2dh  1 4.100000e-01    3.550000e+00
  SP2h SP1dh  1 4.100000e-01    3.310000e+00
  SP2h SN6dh  1 4.100000e-01    3.310000e+00
  SP2h SN5dh  1 4.100000e-01    3.070000e+00
  SP2h SN4dh  1 4.100000e-01    2.840000e+00
  SP2h SN3dh  1 4.100000e-01    2.600000e+00
  SP2h SN2dh  1 4.100000e-01    2.600000e+00
  SP2h SN1dh  1 4.100000e-01    2.600000e+00
  SP2h SP2ah  1 4.100000e-01    3.550000e+00
  SP2h SP1ah  1 4.100000e-01    3.310000e+00
  SP2h SN6ah  1 4.100000e-01    3.310000e+00
  SP2h SN5ah  1 4.100000e-01    3.070000e+00
  SP2h SN4ah  1 4.100000e-01    2.840000e+00
  SP2h SN3ah  1 4.100000e-01    2.600000e+00
  SP2h SN2ah  1 4.100000e-01    2.600000e+00
  SP2h SN1ah  1 4.100000e-01    2.600000e+00
  SP1h SP1dh  1 4.100000e-01    3.310000e+00
  SP1h SN6dh  1 4.100000e-01    3.310000e+00
  SP1h SN5dh  1 4.100000e-01    3.070000e+00
  SP1h SN4dh  1 4.100000e-01    3.070000e+00
  SP1h SN3dh  1 4.100000e-01    2.600000e+00
  SP1h SN2dh  1 4.100000e-01    2.600000e+00
  SP1h SN1dh  1 4.100000e-01    2.600000e+00
  SP1h SP1ah  1 4.100000e-01    3.310000e+00
  SP1h SN6ah  1 4.100000e-01    3.310000e+00
  SP1h SN5ah  1 4.100000e-01    3.070000e+00
  SP1h SN4ah  1 4.100000e-01    3.070000e+00
  SP1h SN3ah  1 4.100000e-01    2.600000e+00
  SP1h SN2ah  1 4.100000e-01    2.600000e+00
  SP1h SN1ah  1 4.100000e-01    2.600000e+00
  SN6h SN6dh  1 4.100000e-01    3.310000e+00
  SN6h SN5dh  1 4.100000e-01    3.310000e+00
  SN6h SN4dh  1 4.100000e-01    3.310000e+00
  SN6h SN3dh  1 4.100000e-01    2.840000e+00
  SN6h SN2dh  1 4.100000e-01    2.600000e+00
  SN6h SN1dh  1 4.100000e-01    2.600000e+00
  SN6h SN6ah  1 4.100000e-01    3.310000e+00
  SN6h SN5ah  1 4.100000e-01    3.310000e+00
  SN6h SN4ah  1 4.100000e-01    3.310000e+00
  SN6h SN3ah  1 4.100000e-01    2.840000e+00
  SN6h SN2ah  1 4.100000e-01    2.600000e+00
  SN6h SN1ah  1 4.100000e-01    2.600000e+00
  SN5h SN5dh  1 4.100000e-01    3.070000e+00
  SN5h SN4dh  1 4.100000e-01    3.070000e+00
  SN5h SN3dh  1 4.100000e-01    2.840000e+00
  SN5h SN2dh  1 4.100000e-01    2.840000e+00
  SN5h SN1dh  1 4.100000e-01    2.600000e+00
  SN5h SN5ah  1 4.100000e-01    3.070000e+00
  SN5h SN4ah  1 4.100000e-01    3.070000e+00
  SN5h SN3ah  1 4.100000e-01    2.840000e+00
  SN5h SN2ah  1 4.100000e-01    2.840000e+00
  SN5h SN1ah  1 4.100000e-01    2.600000e+00
  SN4h SN4dh  1 4.100000e-01    3.070000e+00
  SN4h SN3dh  1 4.100000e-01    2.840000e+00
  SN4h SN2dh  1 4.100000e-01    2.840000e+00
  SN4h SN1dh  1 4.100000e-01    2.600000e+00
  SN4h SN4ah  1 4.100000e-01    3.070000e+00
  SN4h SN3ah  1 4.100000e-01    2.840000e+00
  SN4h SN2ah  1 4.100000e-01    2.840000e+00
  SN4h SN1ah  1 4.100000e-01    2.600000e+00
  SN3h SN3dh  1 4.100000e-01    2.840000e+00
  SN3h SN2dh  1 4.100000e-01    2.840000e+00
  SN3h SN1dh  1 4.100000e-01    2.600000e+00
  SN3h SN3ah  1 4.100000e-01    2.840000e+00
  SN3h SN2ah  1 4.100000e-01    2.840000e+00
  SN3h SN1ah  1 4.100000e-01    2.600000e+00
  SN2h SN2dh  1 4.100000e-01    2.840000e+00
  SN2h SN1dh  1 4.100000e-01    2.600000e+00
  SN2h SN2ah  1 4.100000e-01    2.840000e+00
  SN2h SN1ah  1 4.100000e-01    2.600000e+00
  SN1h SN1dh  1 4.100000e-01    2.840000e+00
  SN1h SN1ah  1 4.100000e-01    2.840000e+00
  SC6h SC6vh  1 4.100000e-01    3.070000e+00
  SC6h SC5vh  1 4.100000e-01    2.840000e+00
  SC6h SC4vh  1 4.100000e-01    2.840000e+00
  SC6h SC3vh  1 4.100000e-01    2.600000e+00
  SC6h SC2vh  1 4.100000e-01    2.350000e+00
  SC6h SC1vh  1 4.100000e-01    2.200000e+00
  SC6h SX4vh  1 4.100000e-01    2.840000e+00
  SC6h SX3vh  1 4.100000e-01    2.840000e+00
  SC6h SX2vh  1 4.100000e-01    2.840000e+00
  SC6h SX1vh  1 4.100000e-01    2.840000e+00
  SC6h SC6eh  1 4.100000e-01    3.070000e+00
  SC6h SC5eh  1 4.100000e-01    2.840000e+00
  SC6h SC4eh  1 4.100000e-01    2.840000e+00
  SC6h SC3eh  1 4.100000e-01    2.600000e+00
  SC6h SC2eh  1 4.100000e-01    2.350000e+00
  SC6h SC1eh  1 4.100000e-01    2.200000e+00
  SC6h SX4eh  1 4.100000e-01    2.840000e+00
  SC6h SX3eh  1 4.100000e-01    2.840000e+00
  SC6h SX2eh  1 4.100000e-01    2.840000e+00
  SC6h SX1eh  1 4.100000e-01    2.840000e+00
  SC5h SC5vh  1 4.100000e-01    2.840000e+00
  SC5h SC4vh  1 4.100000e-01    2.840000e+00
  SC5h SC3vh  1 4.100000e-01    2.600000e+00
  SC5h SC2vh  1 4.100000e-01    2.350000e+00
  SC5h SC1vh  1 4.100000e-01    2.350000e+00
  SC5h SX4vh  1 4.100000e-01    2.600000e+00
  SC5h SX3vh  1 4.100000e-01    2.600000e+00
  SC5h SX2vh  1 4.100000e-01    2.600000e+00
  SC5h SX1vh  1 4.100000e-01    2.840000e+00
  SC5h SC5eh  1 4.100000e-01    2.840000e+00
  SC5h SC4eh  1 4.100000e-01    2.840000e+00
  SC5h SC3eh  1 4.100000e-01    2.600000e+00
  SC5h SC2eh  1 4.100000e-01    2.350000e+00
  SC5h SC1eh  1 4.100000e-01    2.350000e+00
  SC5h SX4eh  1 4.100000e-01    2.600000e+00
  SC5h SX3eh  1 4.100000e-01    2.600000e+00
  SC5h SX2eh  1 4.100000e-01    2.600000e+00
  SC5h SX1eh  1 4.100000e-01    2.840000e+00
  SC4h SC4vh  1 4.100000e-01    2.840000e+00
  SC4h SC3vh  1 4.100000e-01    2.840000e+00
  SC4h SC2vh  1 4.100000e-01    2.600000e+00
  SC4h SC1vh  1 4.100000e-01    2.350000e+00
  SC4h SX4vh  1 4.100000e-01    2.600000e+00
  SC4h SX3vh  1 4.100000e-01    2.600000e+00
  SC4h SX2vh  1 4.100000e-01    2.600000e+00
  SC4h SX1vh  1 4.100000e-01    2.840000e+00
  SC4h SC4eh  1 4.100000e-01    2.840000e+00
  SC4h SC3eh  1 4.100000e-01    2.840000e+00
  SC4h SC2eh  1 4.100000e-01    2.600000e+00
  SC4h SC1eh  1 4.100000e-01    2.350000e+00
  SC4h SX4eh  1 4.100000e-01    2.600000e+00
  SC4h SX3eh  1 4.100000e-01    2.600000e+00
  SC4h SX2eh  1 4.100000e-01    2.600000e+00
  SC4h SX1eh  1 4.100000e-01    2.840000e+00
  SC3h SC3vh  1 4.100000e-01    2.840000e+00
  SC3h SC2vh  1 4.100000e-01    2.840000e+00
  SC3h SC1vh  1 4.100000e-01    2.840000e+00
  SC3h SX4vh  1 4.100000e-01    2.600000e+00
  SC3h SX3vh  1 4.100000e-01    2.600000e+00
  SC3h SX2vh  1 4.100000e-01    2.600000e+00
  SC3h SX1vh  1 4.100000e-01    2.840000e+00
  SC3h SC3eh  1 4.100000e-01    2.840000e+00
  SC3h SC2eh  1 4.100000e-01    2.840000e+00
  SC3h SC1eh  1 4.100000e-01    2.840000e+00
  SC3h SX4eh  1 4.100000e-01    2.600000e+00
  SC3h SX3eh  1 4.100000e-01    2.600000e+00
  SC3h SX2eh  1 4.100000e-01    2.600000e+00
  SC3h SX1eh  1 4.100000e-01    2.840000e+00
  SC2h SC2vh  1 4.100000e-01    2.840000e+00
  SC2h SC1vh  1 4.100000e-01    3.070000e+00
  SC2h SX4vh  1 4.100000e-01    2.200000e+00
  SC2h SX3vh  1 4.100000e-01    2.600000e+00
  SC2h SX2vh  1 4.100000e-01    2.600000e+00
  SC2h SX1vh  1 4.100000e-01    2.600000e+00
  SC2h SC2eh  1 4.100000e-01    2.840000e+00
  SC2h SC1eh  1 4.100000e-01    3.070000e+00
  SC2h SX4eh  1 4.100000e-01    2.200000e+00
  SC2h SX3eh  1 4.100000e-01    2.600000e+00
  SC2h SX2eh  1 4.100000e-01    2.600000e+00
  SC2h SX1eh  1 4.100000e-01    2.600000e+00
  SC1h SC1vh  1 4.100000e-01    2.840000e+00
  SC1h SX4vh  1 4.100000e-01    2.200000e+00
  SC1h SX3vh  1 4.100000e-01    2.600000e+00
  SC1h SX2vh  1 4.100000e-01    2.600000e+00
  SC1h SX1vh  1 4.100000e-01    2.600000e+00
  SC1h SC1eh  1 4.100000e-01    2.840000e+00
  SC1h SX4eh  1 4.100000e-01    2.200000e+00
  SC1h SX3eh  1 4.100000e-01    2.600000e+00
  SC1h SX2eh  1 4.100000e-01    2.600000e+00
  SC1h SX1eh  1 4.100000e-01    2.600000e+00
  SX4h SX4vh  1 4.100000e-01    2.840000e+00
  SX4h SX3vh  1 4.100000e-01    2.840000e+00
  SX4h SX2vh  1 4.100000e-01    2.840000e+00
  SX4h SX1vh  1 4.100000e-01    2.840000e+00
  SX4h SX4eh  1 4.100000e-01    2.840000e+00
  SX4h SX3eh  1 4.100000e-01    2.840000e+00
  SX4h SX2eh  1 4.100000e-01    2.840000e+00
  SX4h SX1eh  1 4.100000e-01    2.840000e+00
  SX3h SX3vh  1 4.100000e-01    2.840000e+00
  SX3h SX2vh  1 4.100000e-01    3.070000e+00
  SX3h SX1vh  1 4.100000e-01    3.070000e+00
  SX3h SX3eh  1 4.100000e-01    2.840000e+00
  SX3h SX2eh  1 4.100000e-01    3.070000e+00
  SX3h SX1eh  1 4.100000e-01    3.070000e+00
  SX2h SX2vh  1 4.100000e-01    3.070000e+00
  SX2h SX1vh  1 4.100000e-01    3.070000e+00
  SX2h SX2eh  1 4.100000e-01    3.070000e+00
  SX2h SX1eh  1 4.100000e-01    3.070000e+00
  SX1h SX1vh  1 4.100000e-01    3.310000e+00
  SX1h SX1eh  1 4.100000e-01    3.310000e+00
  SP6h SC6vh  1 4.100000e-01    2.040000e+00
  SP6h SC5vh  1 4.100000e-01    1.910000e+00
  SP6h SC4vh  1 4.100000e-01    1.750000e+00
  SP6h SC3vh  1 4.140000e-01    1.560000e+00
  SP6h SC2vh  1 4.140000e-01    1.560000e+00
  SP6h SC1vh  1 4.210000e-01    1.250000e+00
  SP6h SX4vh  1 4.100000e-01    2.200000e+00
  SP6h SX3vh  1 4.100000e-01    2.200000e+00
  SP6h SX2vh  1 4.100000e-01    2.040000e+00
  SP6h SX1vh  1 4.100000e-01    1.910000e+00
  SP6h SC6eh  1 4.100000e-01    2.040000e+00
  SP6h SC5eh  1 4.100000e-01    1.910000e+00
  SP6h SC4eh  1 4.100000e-01    1.750000e+00
  SP6h SC3eh  1 4.140000e-01    1.560000e+00
  SP6h SC2eh  1 4.140000e-01    1.560000e+00
  SP6h SC1eh  1 4.210000e-01    1.250000e+00
  SP6h SX4eh  1 4.100000e-01    2.200000e+00
  SP6h SX3eh  1 4.100000e-01    2.200000e+00
  SP6h SX2eh  1 4.100000e-01    2.040000e+00
  SP6h SX1eh  1 4.100000e-01    1.910000e+00
  SP5h SC6vh  1 4.100000e-01    2.040000e+00
  SP5h SC5vh  1 4.100000e-01    2.040000e+00
  SP5h SC4vh  1 4.100000e-01    1.910000e+00
  SP5h SC3vh  1 4.100000e-01    1.750000e+00
  SP5h SC2vh  1 4.100000e-01    1.750000e+00
  SP5h SC1vh  1 4.140000e-01    1.560000e+00
  SP5h SX4vh  1 4.100000e-01    2.350000e+00
  SP5h SX3vh  1 4.100000e-01    2.200000e+00
  SP5h SX2vh  1 4.100000e-01    2.200000e+00
  SP5h SX1vh  1 4.100000e-01    1.910000e+00
  SP5h SC6eh  1 4.100000e-01    2.040000e+00
  SP5h SC5eh  1 4.100000e-01    2.040000e+00
  SP5h SC4eh  1 4.100000e-01    1.910000e+00
  SP5h SC3eh  1 4.100000e-01    1.750000e+00
  SP5h SC2eh  1 4.100000e-01    1.750000e+00
  SP5h SC1eh  1 4.140000e-01    1.560000e+00
  SP5h SX4eh  1 4.100000e-01    2.350000e+00
  SP5h SX3eh  1 4.100000e-01    2.200000e+00
  SP5h SX2eh  1 4.100000e-01    2.200000e+00
  SP5h SX1eh  1 4.100000e-01    1.910000e+00
  SP4h SC6vh  1 4.100000e-01    2.200000e+00
  SP4h SC5vh  1 4.100000e-01    2.040000e+00
  SP4h SC4vh  1 4.100000e-01    1.910000e+00
  SP4h SC3vh  1 4.100000e-01    1.750000e+00
  SP4h SC2vh  1 4.100000e-01    1.750000e+00
  SP4h SC1vh  1 4.140000e-01    1.560000e+00
  SP4h SX4vh  1 4.100000e-01    2.350000e+00
  SP4h SX3vh  1 4.100000e-01    2.200000e+00
  SP4h SX2vh  1 4.100000e-01    2.200000e+00
  SP4h SX1vh  1 4.100000e-01    2.040000e+00
  SP4h SC6eh  1 4.100000e-01    2.200000e+00
  SP4h SC5eh  1 4.100000e-01    2.040000e+00
  SP4h SC4eh  1 4.100000e-01    1.910000e+00
  SP4h SC3eh  1 4.100000e-01    1.750000e+00
  SP4h SC2eh  1 4.100000e-01    1.750000e+00
  SP4h SC1eh  1 4.140000e-01    1.560000e+00
  SP4h SX4eh  1 4.100000e-01    2.350000e+00
  SP4h SX3eh  1 4.100000e-01    2.200000e+00
  SP4h SX2eh  1 4.100000e-01    2.200000e+00
  SP4h SX1eh  1 4.100000e-01    2.040000e+00
  SP3h SC6vh  1 4.100000e-01    2.350000e+00
  SP3h SC5vh  1 4.100000e-01    2.200000e+00
  SP3h SC4vh  1 4.100000e-01    2.040000e+00
  SP3h SC3vh  1 4.100000e-01    1.750000e+00
  SP3h SC2vh  1 4.100000e-01    1.750000e+00
  SP3h SC1vh  1 4.140000e-01    1.560000e+00
  SP3h SX4vh  1 4.100000e-01    2.350000e+00
  SP3h SX3vh  1 4.100000e-01    2.350000e+00
  SP3h SX2vh  1 4.100000e-01    2.200000e+00
  SP3h SX1vh  1 4.100000e-01    2.040000e+00
  SP3h SC6eh  1 4.100000e-01    2.350000e+00
  SP3h SC5eh  1 4.100000e-01    2.200000e+00
  SP3h SC4eh  1 4.100000e-01    2.040000e+00
  SP3h SC3eh  1 4.100000e-01    1.750000e+00
  SP3h SC2eh  1 4.100000e-01    1.750000e+00
  SP3h SC1eh  1 4.140000e-01    1.560000e+00
  SP3h SX4eh  1 4.100000e-01    2.350000e+00
  SP3h SX3eh  1 4.100000e-01    2.350000e+00
  SP3h SX2eh  1 4.100000e-01    2.200000e+00
  SP3h SX1eh  1 4.100000e-01    2.040000e+00
  SP2h SC6vh  1 4.100000e-01    2.350000e+00
  SP2h SC5vh  1 4.100000e-01    2.200000e+00
  SP2h SC4vh  1 4.100000e-01    2.040000e+00
  SP2h SC3vh  1 4.100000e-01    1.910000e+00
  SP2h SC2vh  1 4.100000e-01    1.910000e+00
  SP2h SC1vh  1 4.100000e-01    1.750000e+00
  SP2h SX4vh  1 4.100000e-01    2.350000e+00
  SP2h SX3vh  1 4.100000e-01    2.350000e+00
  SP2h SX2vh  1 4.100000e-01    2.200000e+00
  SP2h SX1vh  1 4.100000e-01    2.040000e+00
  SP2h SC6eh  1 4.100000e-01    2.350000e+00
  SP2h SC5eh  1 4.100000e-01    2.200000e+00
  SP2h SC4eh  1 4.100000e-01    2.040000e+00
  SP2h SC3eh  1 4.100000e-01    1.910000e+00
  SP2h SC2eh  1 4.100000e-01    1.910000e+00
  SP2h SC1eh  1 4.100000e-01    1.750000e+00
  SP2h SX4eh  1 4.100000e-01    2.350000e+00
  SP2h SX3eh  1 4.100000e-01    2.350000e+00
  SP2h SX2eh  1 4.100000e-01    2.200000e+00
  SP2h SX1eh  1 4.100000e-01    2.040000e+00
  SP1h SC6vh  1 4.100000e-01    2.350000e+00
  SP1h SC5vh  1 4.100000e-01    2.200000e+00
  SP1h SC4vh  1 4.100000e-01    2.040000e+00
  SP1h SC3vh  1 4.100000e-01    1.910000e+00
  SP1h SC2vh  1 4.100000e-01    1.910000e+00
  SP1h SC1vh  1 4.100000e-01    1.750000e+00
  SP1h SX4vh  1 4.100000e-01    2.350000e+00
  SP1h SX3vh  1 4.100000e-01    2.350000e+00
  SP1h SX2vh  1 4.100000e-01    2.200000e+00
  SP1h SX1vh  1 4.100000e-01    2.040000e+00
  SP1h SC6eh  1 4.100000e-01    2.350000e+00
  SP1h SC5eh  1 4.100000e-01    2.200000e+00
  SP1h SC4eh  1 4.100000e-01    2.040000e+00
  SP1h SC3eh  1 4.100000e-01    1.910000e+00
  SP1h SC2eh  1 4.100000e-01    1.910000e+00
  SP1h SC1eh  1 4.100000e-01    1.750000e+00
  SP1h SX4eh  1 4.100000e-01    2.350000e+00
  SP1h SX3eh  1 4.100000e-01    2.350000e+00
  SP1h SX2eh  1 4.100000e-01    2.200000e+00
  SP1h SX1eh  1 4.100000e-01    2.040000e+00
  SN6h SC6vh  1 4.100000e-01    2.600000e+00
  SN6h SC5vh  1 4.100000e-01    2.350000e+00
  SN6h SC4vh  1 4.100000e-01    2.200000e+00
  SN6h SC3vh  1 4.100000e-01    2.040000e+00
  SN6h SC2vh  1 4.100000e-01    2.040000e+00
  SN6h SC1vh  1 4.100000e-01    1.910000e+00
  SN6h SX4vh  1 4.100000e-01    2.600000e+00
  SN6h SX3vh  1 4.100000e-01    2.350000e+00
  SN6h SX2vh  1 4.100000e-01    2.200000e+00
  SN6h SX1vh  1 4.100000e-01    2.040000e+00
  SN6h SC6eh  1 4.100000e-01    2.600000e+00
  SN6h SC5eh  1 4.100000e-01    2.350000e+00
  SN6h SC4eh  1 4.100000e-01    2.200000e+00
  SN6h SC3eh  1 4.100000e-01    2.040000e+00
  SN6h SC2eh  1 4.100000e-01    2.040000e+00
  SN6h SC1eh  1 4.100000e-01    1.910000e+00
  SN6h SX4eh  1 4.100000e-01    2.600000e+00
  SN6h SX3eh  1 4.100000e-01    2.350000e+00
  SN6h SX2eh  1 4.100000e-01    2.200000e+00
  SN6h SX1eh  1 4.100000e-01    2.040000e+00
  SN5h SC6vh  1 4.100000e-01    2.600000e+00
  SN5h SC5vh  1 4.100000e-01    2.350000e+00
  SN5h SC4vh  1 4.100000e-01    2.200000e+00
  SN5h SC3vh  1 4.100000e-01    2.200000e+00
  SN5h SC2vh  1 4.100000e-01    2.040000e+00
  SN5h SC1vh  1 4.100000e-01    1.910000e+00
  SN5h SX4vh  1 4.100000e-01    2.840000e+00
  SN5h SX3vh  1 4.100000e-01    2.600000e+00
  SN5h SX2vh  1 4.100000e-01    2.350000e+00
  SN5h SX1vh  1 4.100000e-01    2.200000e+00
  SN5h SC6eh  1 4.100000e-01    2.600000e+00
  SN5h SC5eh  1 4.100000e-01    2.350000e+00
  SN5h SC4eh  1 4.100000e-01    2.200000e+00
  SN5h SC3eh  1 4.100000e-01    2.200000e+00
  SN5h SC2eh  1 4.100000e-01    2.040000e+00
  SN5h SC1eh  1 4.100000e-01    1.910000e+00
  SN5h SX4eh  1 4.100000e-01    2.840000e+00
  SN5h SX3eh  1 4.100000e-01    2.600000e+00
  SN5h SX2eh  1 4.100000e-01    2.350000e+00
  SN5h SX1eh  1 4.100000e-01    2.200000e+00
  SN4h SC6vh  1 4.100000e-01    2.600000e+00
  SN4h SC5vh  1 4.100000e-01    2.350000e+00
  SN4h SC4vh  1 4.100000e-01    2.350000e+00
  SN4h SC3vh  1 4.100000e-01    2.200000e+00
  SN4h SC2vh  1 4.100000e-01    2.040000e+00
  SN4h SC1vh  1 4.100000e-01    1.910000e+00
  SN4h SX4vh  1 4.100000e-01    3.070000e+00
  SN4h SX3vh  1 4.100000e-01    2.840000e+00
  SN4h SX2vh  1 4.100000e-01    2.350000e+00
  SN4h SX1vh  1 4.100000e-01    2.200000e+00
  SN4h SC6eh  1 4.100000e-01    2.600000e+00
  SN4h SC5eh  1 4.100000e-01    2.350000e+00
  SN4h SC4eh  1 4.100000e-01    2.350000e+00
  SN4h SC3eh  1 4.100000e-01    2.200000e+00
  SN4h SC2eh  1 4.100000e-01    2.040000e+00
  SN4h SC1eh  1 4.100000e-01    1.910000e+00
  SN4h SX4eh  1 4.100000e-01    3.070000e+00
  SN4h SX3eh  1 4.100000e-01    2.840000e+00
  SN4h SX2eh  1 4.100000e-01    2.350000e+00
  SN4h SX1eh  1 4.100000e-01    2.200000e+00
  SN3h SC6vh  1 4.100000e-01    2.600000e+00
  SN3h SC5vh  1 4.100000e-01    2.350000e+00
  SN3h SC4vh  1 4.100000e-01    2.350000e+00
  SN3h SC3vh  1 4.100000e-01    2.200000e+00
  SN3h SC2vh  1 4.100000e-01    2.200000e+00
  SN3h SC1vh  1 4.100000e-01    2.040000e+00
  SN3h SX4vh  1 4.100000e-01    2.840000e+00
  SN3h SX3vh  1 4.100000e-01    2.600000e+00
  SN3h SX2vh  1 4.100000e-01    2.350000e+00
  SN3h SX1vh  1 4.100000e-01    2.350000e+00
  SN3h SC6eh  1 4.100000e-01    2.600000e+00
  SN3h SC5eh  1 4.100000e-01    2.350000e+00
  SN3h SC4eh  1 4.100000e-01    2.350000e+00
  SN3h SC3eh  1 4.100000e-01    2.200000e+00
  SN3h SC2eh  1 4.100000e-01    2.200000e+00
  SN3h SC1eh  1 4.100000e-01    2.040000e+00
  SN3h SX4eh  1 4.100000e-01    2.840000e+00
  SN3h SX3eh  1 4.100000e-01    2.600000e+00
  SN3h SX2eh  1 4.100000e-01    2.350000e+00
  SN3h SX1eh  1 4.100000e-01    2.350000e+00
  SN2h SC6vh  1 4.100000e-01    2.600000e+00
  SN2h SC5vh  1 4.100000e-01    2.350000e+00
  SN2h SC4vh  1 4.100000e-01    2.350000e+00
  SN2h SC3vh  1 4.100000e-01    2.350000e+00
  SN2h SC2vh  1 4.100000e-01    2.200000e+00
  SN2h SC1vh  1 4.100000e-01    2.040000e+00
  SN2h SX4vh  1 4.100000e-01    2.840000e+00
  SN2h SX3vh  1 4.100000e-01    2.600000e+00
  SN2h SX2vh  1 4.100000e-01    2.350000e+00
  SN2h SX1vh  1 4.100000e-01    2.350000e+00
  SN2h SC6eh  1 4.100000e-01    2.600000e+00
  SN2h SC5eh  1 4.100000e-01    2.350000e+00
  SN2h SC4eh  1 4.100000e-01    2.350000e+00
  SN2h SC3eh  1 4.100000e-01    2.350000e+00
  SN2h SC2eh  1 4.100000e-01    2.200000e+00
  SN2h SC1eh  1 4.100000e-01    2.040000e+00
  SN2h SX4eh  1 4.100000e-01    2.840000e+00
  SN2h SX3eh  1 4.100000e-01    2.600000e+00
  SN2h SX2eh  1 4.100000e-01    2.350000e+00
  SN2h SX1eh  1 4.100000e-01    2.350000e+00
  SN1h SC6vh  1 4.100000e-01    2.840000e+00
  SN1h SC5vh  1 4.100000e-01    2.600000e+00
  SN1h SC4vh  1 4.100000e-01    2.600000e+00
  SN1h SC3vh  1 4.100000e-01    2.350000e+00
  SN1h SC2vh  1 4.100000e-01    2.200000e+00
  SN1h SC1vh  1 4.100000e-01    2.040000e+00
  SN1h SX4vh  1 4.100000e-01    2.600000e+00
  SN1h SX3vh  1 4.100000e-01    2.600000e+00
  SN1h SX2vh  1 4.100000e-01    2.350000e+00
  SN1h SX1vh  1 4.100000e-01    2.350000e+00
  SN1h SC6eh  1 4.100000e-01    2.840000e+00
  SN1h SC5eh  1 4.100000e-01    2.600000e+00
  SN1h SC4eh  1 4.100000e-01    2.600000e+00
  SN1h SC3eh  1 4.100000e-01    2.350000e+00
  SN1h SC2eh  1 4.100000e-01    2.200000e+00
  SN1h SC1eh  1 4.100000e-01    2.040000e+00
  SN1h SX4eh  1 4.100000e-01    2.600000e+00
  SN1h SX3eh  1 4.100000e-01    2.600000e+00
  SN1h SX2eh  1 4.100000e-01    2.350000e+00
  SN1h SX1eh  1 4.100000e-01    2.350000e+00
  SP6h SP6dr  1 4.100000e-01    4.290000e+00
  SP6r SP6dh  1 4.100000e-01    4.290000e+00
  SP6h SP5dr  1 4.100000e-01    4.040000e+00
  SP6r SP5dh  1 4.100000e-01    4.040000e+00
  SP6h SP4dr  1 4.100000e-01    3.820000e+00
  SP6r SP4dh  1 4.100000e-01    3.820000e+00
  SP6h SP3dr  1 4.100000e-01    3.550000e+00
  SP6r SP3dh  1 4.100000e-01    3.550000e+00
  SP6h SP2dr  1 4.100000e-01    3.550000e+00
  SP6r SP2dh  1 4.100000e-01    3.550000e+00
  SP6h SP1dr  1 4.100000e-01    3.310000e+00
  SP6r SP1dh  1 4.100000e-01    3.310000e+00
  SP6h SN6dr  1 4.100000e-01    3.070000e+00
  SP6r SN6dh  1 4.100000e-01    3.070000e+00
  SP6h SN5dr  1 4.100000e-01    2.600000e+00
  SP6r SN5dh  1 4.100000e-01    2.600000e+00
  SP6h SN4dr  1 4.100000e-01    2.350000e+00
  SP6r SN4dh  1 4.100000e-01    2.350000e+00
  SP6h SN3dr  1 4.100000e-01    2.200000e+00
  SP6r SN3dh  1 4.100000e-01    2.200000e+00
  SP6h SN2dr  1 4.100000e-01    2.040000e+00
  SP6r SN2dh  1 4.100000e-01    2.040000e+00
  SP6h SN1dr  1 4.100000e-01    1.910000e+00
  SP6r SN1dh  1 4.100000e-01    1.910000e+00
  SP6h SP6ar  1 4.100000e-01    4.290000e+00
  SP6r SP6ah  1 4.100000e-01    4.290000e+00
  SP6h SP5ar  1 4.100000e-01    4.040000e+00
  SP6r SP5ah  1 4.100000e-01    4.040000e+00
  SP6h SP4ar  1 4.100000e-01    3.820000e+00
  SP6r SP4ah  1 4.100000e-01    3.820000e+00
  SP6h SP3ar  1 4.100000e-01    3.550000e+00
  SP6r SP3ah  1 4.100000e-01    3.550000e+00
  SP6h SP2ar  1 4.100000e-01    3.550000e+00
  SP6r SP2ah  1 4.100000e-01    3.550000e+00
  SP6h SP1ar  1 4.100000e-01    3.310000e+00
  SP6r SP1ah  1 4.100000e-01    3.310000e+00
  SP6h SN6ar  1 4.100000e-01    3.070000e+00
  SP6r SN6ah  1 4.100000e-01    3.070000e+00
  SP6h SN5ar  1 4.100000e-01    2.600000e+00
  SP6r SN5ah  1 4.100000e-01    2.600000e+00
  SP6h SN4ar  1 4.100000e-01    2.350000e+00
  SP6r SN4ah  1 4.100000e-01    2.350000e+00
  SP6h SN3ar  1 4.100000e-01    2.200000e+00
  SP6r SN3ah  1 4.100000e-01    2.200000e+00
  SP6h SN2ar  1 4.100000e-01    2.040000e+00
  SP6r SN2ah  1 4.100000e-01    2.040000e+00
  SP6h SN1ar  1 4.100000e-01    1.910000e+00
  SP6r SN1ah  1 4.100000e-01    1.910000e+00
  SP5h SP5dr  1 4.100000e-01    3.820000e+00
  SP5r SP5dh  1 4.100000e-01    3.820000e+00
  SP5h SP4dr  1 4.100000e-01    3.550000e+00
  SP5r SP4dh  1 4.100000e-01    3.550000e+00
  SP5h SP3dr  1 4.100000e-01    3.310000e+00
  SP5r SP3dh  1 4.100000e-01    3.310000e+00
  SP5h SP2dr  1 4.100000e-01    3.310000e+00
  SP5r SP2dh  1 4.100000e-01    3.310000e+00
  SP5h SP1dr  1 4.100000e-01    3.070000e+00
  SP5r SP1dh  1 4.100000e-01    3.070000e+00
  SP5h SN6dr  1 4.100000e-01    2.840000e+00
  SP5r SN6dh  1 4.100000e-01    2.840000e+00
  SP5h SN5dr  1 4.100000e-01    2.600000e+00
  SP5r SN5dh  1 4.100000e-01    2.600000e+00
  SP5h SN4dr  1 4.100000e-01    2.600000e+00
  SP5r SN4dh  1 4.100000e-01    2.600000e+00
  SP5h SN3dr  1 4.100000e-01    2.200000e+00
  SP5r SN3dh  1 4.100000e-01    2.200000e+00
  SP5h SN2dr  1 4.100000e-01    2.040000e+00
  SP5r SN2dh  1 4.100000e-01    2.040000e+00
  SP5h SN1dr  1 4.100000e-01    1.910000e+00
  SP5r SN1dh  1 4.100000e-01    1.910000e+00
  SP5h SP5ar  1 4.100000e-01    3.820000e+00
  SP5r SP5ah  1 4.100000e-01    3.820000e+00
  SP5h SP4ar  1 4.100000e-01    3.550000e+00
  SP5r SP4ah  1 4.100000e-01    3.550000e+00
  SP5h SP3ar  1 4.100000e-01    3.310000e+00
  SP5r SP3ah  1 4.100000e-01    3.310000e+00
  SP5h SP2ar  1 4.100000e-01    3.310000e+00
  SP5r SP2ah  1 4.100000e-01    3.310000e+00
  SP5h SP1ar  1 4.100000e-01    3.070000e+00
  SP5r SP1ah  1 4.100000e-01    3.070000e+00
  SP5h SN6ar  1 4.100000e-01    2.840000e+00
  SP5r SN6ah  1 4.100000e-01    2.840000e+00
  SP5h SN5ar  1 4.100000e-01    2.600000e+00
  SP5r SN5ah  1 4.100000e-01    2.600000e+00
  SP5h SN4ar  1 4.100000e-01    2.600000e+00
  SP5r SN4ah  1 4.100000e-01    2.600000e+00
  SP5h SN3ar  1 4.100000e-01    2.200000e+00
  SP5r SN3ah  1 4.100000e-01    2.200000e+00
  SP5h SN2ar  1 4.100000e-01    2.040000e+00
  SP5r SN2ah  1 4.100000e-01    2.040000e+00
  SP5h SN1ar  1 4.100000e-01    1.910000e+00
  SP5r SN1ah  1 4.100000e-01    1.910000e+00
  SP4h SP4dr  1 4.100000e-01    3.550000e+00
  SP4r SP4dh  1 4.100000e-01    3.550000e+00
  SP4h SP3dr  1 4.100000e-01    3.310000e+00
  SP4r SP3dh  1 4.100000e-01    3.310000e+00
  SP4h SP2dr  1 4.100000e-01    3.310000e+00
  SP4r SP2dh  1 4.100000e-01    3.310000e+00
  SP4h SP1dr  1 4.100000e-01    3.070000e+00
  SP4r SP1dh  1 4.100000e-01    3.070000e+00
  SP4h SN6dr  1 4.100000e-01    2.840000e+00
  SP4r SN6dh  1 4.100000e-01    2.840000e+00
  SP4h SN5dr  1 4.100000e-01    2.600000e+00
  SP4r SN5dh  1 4.100000e-01    2.600000e+00
  SP4h SN4dr  1 4.100000e-01    2.600000e+00
  SP4r SN4dh  1 4.100000e-01    2.600000e+00
  SP4h SN3dr  1 4.100000e-01    2.350000e+00
  SP4r SN3dh  1 4.100000e-01    2.350000e+00
  SP4h SN2dr  1 4.100000e-01    2.200000e+00
  SP4r SN2dh  1 4.100000e-01    2.200000e+00
  SP4h SN1dr  1 4.100000e-01    2.040000e+00
  SP4r SN1dh  1 4.100000e-01    2.040000e+00
  SP4h SP4ar  1 4.100000e-01    3.550000e+00
  SP4r SP4ah  1 4.100000e-01    3.550000e+00
  SP4h SP3ar  1 4.100000e-01    3.310000e+00
  SP4r SP3ah  1 4.100000e-01    3.310000e+00
  SP4h SP2ar  1 4.100000e-01    3.310000e+00
  SP4r SP2ah  1 4.100000e-01    3.310000e+00
  SP4h SP1ar  1 4.100000e-01    3.070000e+00
  SP4r SP1ah  1 4.100000e-01    3.070000e+00
  SP4h SN6ar  1 4.100000e-01    2.840000e+00
  SP4r SN6ah  1 4.100000e-01    2.840000e+00
  SP4h SN5ar  1 4.100000e-01    2.600000e+00
  SP4r SN5ah  1 4.100000e-01    2.600000e+00
  SP4h SN4ar  1 4.100000e-01    2.600000e+00
  SP4r SN4ah  1 4.100000e-01    2.600000e+00
  SP4h SN3ar  1 4.100000e-01    2.350000e+00
  SP4r SN3ah  1 4.100000e-01    2.350000e+00
  SP4h SN2ar  1 4.100000e-01    2.200000e+00
  SP4r SN2ah  1 4.100000e-01    2.200000e+00
  SP4h SN1ar  1 4.100000e-01    2.040000e+00
  SP4r SN1ah  1 4.100000e-01    2.040000e+00
  SP3h SP3dr  1 4.100000e-01    3.310000e+00
  SP3r SP3dh  1 4.100000e-01    3.310000e+00
  SP3h SP2dr  1 4.100000e-01    3.310000e+00
  SP3r SP2dh  1 4.100000e-01    3.310000e+00
  SP3h SP1dr  1 4.100000e-01    3.070000e+00
  SP3r SP1dh  1 4.100000e-01    3.070000e+00
  SP3h SN6dr  1 4.100000e-01    2.840000e+00
  SP3r SN6dh  1 4.100000e-01    2.840000e+00
  SP3h SN5dr  1 4.100000e-01    2.600000e+00
  SP3r SN5dh  1 4.100000e-01    2.600000e+00
  SP3h SN4dr  1 4.100000e-01    2.600000e+00
  SP3r SN4dh  1 4.100000e-01    2.600000e+00
  SP3h SN3dr  1 4.100000e-01    2.350000e+00
  SP3r SN3dh  1 4.100000e-01    2.350000e+00
  SP3h SN2dr  1 4.100000e-01    2.350000e+00
  SP3r SN2dh  1 4.100000e-01    2.350000e+00
  SP3h SN1dr  1 4.100000e-01    2.200000e+00
  SP3r SN1dh  1 4.100000e-01    2.200000e+00
  SP3h SP3ar  1 4.100000e-01    3.310000e+00
  SP3r SP3ah  1 4.100000e-01    3.310000e+00
  SP3h SP2ar  1 4.100000e-01    3.310000e+00
  SP3r SP2ah  1 4.100000e-01    3.310000e+00
  SP3h SP1ar  1 4.100000e-01    3.070000e+00
  SP3r SP1ah  1 4.100000e-01    3.070000e+00
  SP3h SN6ar  1 4.100000e-01    2.840000e+00
  SP3r SN6ah  1 4.100000e-01    2.840000e+00
  SP3h SN5ar  1 4.100000e-01    2.600000e+00
  SP3r SN5ah  1 4.100000e-01    2.600000e+00
  SP3h SN4ar  1 4.100000e-01    2.600000e+00
  SP3r SN4ah  1 4.100000e-01    2.600000e+00
  SP3h SN3ar  1 4.100000e-01    2.350000e+00
  SP3r SN3ah  1 4.100000e-01    2.350000e+00
  SP3h SN2ar  1 4.100000e-01    2.350000e+00
  SP3r SN2ah  1 4.100000e-01    2.350000e+00
  SP3h SN1ar  1 4.100000e-01    2.200000e+00
  SP3r SN1ah  1 4.100000e-01    2.200000e+00
  SP2h SP2dr  1 4.100000e-01    3.310000e+00
  SP2r SP2dh  1 4.100000e-01    3.310000e+00
  SP2h SP1dr  1 4.100000e-01    3.070000e+00
  SP2r SP1dh  1 4.100000e-01    3.070000e+00
  SP2h SN6dr  1 4.100000e-01    3.070000e+00
  SP2r SN6dh  1 4.100000e-01    3.070000e+00
  SP2h SN5dr  1 4.100000e-01    2.840000e+00
  SP2r SN5dh  1 4.100000e-01    2.840000e+00
  SP2h SN4dr  1 4.100000e-01    2.600000e+00
  SP2r SN4dh  1 4.100000e-01    2.600000e+00
  SP2h SN3dr  1 4.100000e-01    2.350000e+00
  SP2r SN3dh  1 4.100000e-01    2.350000e+00
  SP2h SN2dr  1 4.100000e-01    2.350000e+00
  SP2r SN2dh  1 4.100000e-01    2.350000e+00
  SP2h SN1dr  1 4.100000e-01    2.350000e+00
  SP2r SN1dh  1 4.100000e-01    2.350000e+00
  SP2h SP2ar  1 4.100000e-01    3.310000e+00
  SP2r SP2ah  1 4.100000e-01    3.310000e+00
  SP2h SP1ar  1 4.100000e-01    3.070000e+00
  SP2r SP1ah  1 4.100000e-01    3.070000e+00
  SP2h SN6ar  1 4.100000e-01    3.070000e+00
  SP2r SN6ah  1 4.100000e-01    3.070000e+00
  SP2h SN5ar  1 4.100000e-01    2.840000e+00
  SP2r SN5ah  1 4.100000e-01    2.840000e+00
  SP2h SN4ar  1 4.100000e-01    2.600000e+00
  SP2r SN4ah  1 4.100000e-01    2.600000e+00
  SP2h SN3ar  1 4.100000e-01    2.350000e+00
  SP2r SN3ah  1 4.100000e-01    2.350000e+00
  SP2h SN2ar  1 4.100000e-01    2.350000e+00
  SP2r SN2ah  1 4.100000e-01    2.350000e+00
  SP2h SN1ar  1 4.100000e-01    2.350000e+00
  SP2r SN1ah  1 4.100000e-01    2.350000e+00
  SP1h SP1dr  1 4.100000e-01    3.070000e+00
  SP1r SP1dh  1 4.100000e-01    3.070000e+00
  SP1h SN6dr  1 4.100000e-01    3.070000e+00
  SP1r SN6dh  1 4.100000e-01    3.070000e+00
  SP1h SN5dr  1 4.100000e-01    2.840000e+00
  SP1r SN5dh  1 4.100000e-01    2.840000e+00
  SP1h SN4dr  1 4.100000e-01    2.840000e+00
  SP1r SN4dh  1 4.100000e-01    2.840000e+00
  SP1h SN3dr  1 4.100000e-01    2.350000e+00
  SP1r SN3dh  1 4.100000e-01    2.350000e+00
  SP1h SN2dr  1 4.100000e-01    2.350000e+00
  SP1r SN2dh  1 4.100000e-01    2.350000e+00
  SP1h SN1dr  1 4.100000e-01    2.350000e+00
  SP1r SN1dh  1 4.100000e-01    2.350000e+00
  SP1h SP1ar  1 4.100000e-01    3.070000e+00
  SP1r SP1ah  1 4.100000e-01    3.070000e+00
  SP1h SN6ar  1 4.100000e-01    3.070000e+00
  SP1r SN6ah  1 4.100000e-01    3.070000e+00
  SP1h SN5ar  1 4.100000e-01    2.840000e+00
  SP1r SN5ah  1 4.100000e-01    2.840000e+00
  SP1h SN4ar  1 4.100000e-01    2.840000e+00
  SP1r SN4ah  1 4.100000e-01    2.840000e+00
  SP1h SN3ar  1 4.100000e-01    2.350000e+00
  SP1r SN3ah  1 4.100000e-01    2.350000e+00
  SP1h SN2ar  1 4.100000e-01    2.350000e+00
  SP1r SN2ah  1 4.100000e-01    2.350000e+00
  SP1h SN1ar  1 4.100000e-01    2.350000e+00
  SP1r SN1ah  1 4.100000e-01    2.350000e+00
  SN6h SN6dr  1 4.100000e-01    3.070000e+00
  SN6r SN6dh  1 4.100000e-01    3.070000e+00
  SN6h SN5dr  1 4.100000e-01    3.070000e+00
  SN6r SN5dh  1 4.100000e-01    3.070000e+00
  SN6h SN4dr  1 4.100000e-01    3.070000e+00
  SN6r SN4dh  1 4.100000e-01    3.070000e+00
  SN6h SN3dr  1 4.100000e-01    2.600000e+00
  SN6r SN3dh  1 4.100000e-01    2.600000e+00
  SN6h SN2dr  1 4.100000e-01    2.350000e+00
  SN6r SN2dh  1 4.100000e-01    2.350000e+00
  SN6h SN1dr  1 4.100000e-01    2.350000e+00
  SN6r SN1dh  1 4.100000e-01    2.350000e+00
  SN6h SN6ar  1 4.100000e-01    3.070000e+00
  SN6r SN6ah  1 4.100000e-01    3.070000e+00
  SN6h SN5ar  1 4.100000e-01    3.070000e+00
  SN6r SN5ah  1 4.100000e-01    3.070000e+00
  SN6h SN4ar  1 4.100000e-01    3.070000e+00
  SN6r SN4ah  1 4.100000e-01    3.070000e+00
  SN6h SN3ar  1 4.100000e-01    2.600000e+00
  SN6r SN3ah  1 4.100000e-01    2.600000e+00
  SN6h SN2ar  1 4.100000e-01    2.350000e+00
  SN6r SN2ah  1 4.100000e-01    2.350000e+00
  SN6h SN1ar  1 4.100000e-01    2.350000e+00
  SN6r SN1ah  1 4.100000e-01    2.350000e+00
  SN5h SN5dr  1 4.100000e-01    2.840000e+00
  SN5r SN5dh  1 4.100000e-01    2.840000e+00
  SN5h SN4dr  1 4.100000e-01    2.840000e+00
  SN5r SN4dh  1 4.100000e-01    2.840000e+00
  SN5h SN3dr  1 4.100000e-01    2.600000e+00
  SN5r SN3dh  1 4.100000e-01    2.600000e+00
  SN5h SN2dr  1 4.100000e-01    2.600000e+00
  SN5r SN2dh  1 4.100000e-01    2.600000e+00
  SN5h SN1dr  1 4.100000e-01    2.350000e+00
  SN5r SN1dh  1 4.100000e-01    2.350000e+00
  SN5h SN5ar  1 4.100000e-01    2.840000e+00
  SN5r SN5ah  1 4.100000e-01    2.840000e+00
  SN5h SN4ar  1 4.100000e-01    2.840000e+00
  SN5r SN4ah  1 4.100000e-01    2.840000e+00
  SN5h SN3ar  1 4.100000e-01    2.600000e+00
  SN5r SN3ah  1 4.100000e-01    2.600000e+00
  SN5h SN2ar  1 4.100000e-01    2.600000e+00
  SN5r SN2ah  1 4.100000e-01    2.600000e+00
  SN5h SN1ar  1 4.100000e-01    2.350000e+00
  SN5r SN1ah  1 4.100000e-01    2.350000e+00
  SN4h SN4dr  1 4.100000e-01    2.840000e+00
  SN4r SN4dh  1 4.100000e-01    2.840000e+00
  SN4h SN3dr  1 4.100000e-01    2.600000e+00
  SN4r SN3dh  1 4.100000e-01    2.600000e+00
  SN4h SN2dr  1 4.100000e-01    2.600000e+00
  SN4r SN2dh  1 4.100000e-01    2.600000e+00
  SN4h SN1dr  1 4.100000e-01    2.350000e+00
  SN4r SN1dh  1 4.100000e-01    2.350000e+00
  SN4h SN4ar  1 4.100000e-01    2.840000e+00
  SN4r SN4ah  1 4.100000e-01    2.840000e+00
  SN4h SN3ar  1 4.100000e-01    2.600000e+00
  SN4r SN3ah  1 4.100000e-01    2.600000e+00
  SN4h SN2ar  1 4.100000e-01    2.600000e+00
  SN4r SN2ah  1 4.100000e-01    2.600000e+00
  SN4h SN1ar  1 4.100000e-01    2.350000e+00
  SN4r SN1ah  1 4.100000e-01    2.350000e+00
  SN3h SN3dr  1 4.100000e-01    2.600000e+00
  SN3r SN3dh  1 4.100000e-01    2.600000e+00
  SN3h SN2dr  1 4.100000e-01    2.600000e+00
  SN3r SN2dh  1 4.100000e-01    2.600000e+00
  SN3h SN1dr  1 4.100000e-01    2.350000e+00
  SN3r SN1dh  1 4.100000e-01    2.350000e+00
  SN3h SN3ar  1 4.100000e-01    2.600000e+00
  SN3r SN3ah  1 4.100000e-01    2.600000e+00
  SN3h SN2ar  1 4.100000e-01    2.600000e+00
  SN3r SN2ah  1 4.100000e-01    2.600000e+00
  SN3h SN1ar  1 4.100000e-01    2.350000e+00
  SN3r SN1ah  1 4.100000e-01    2.350000e+00
  SN2h SN2dr  1 4.100000e-01    2.600000e+00
  SN2r SN2dh  1 4.100000e-01    2.600000e+00
  SN2h SN1dr  1 4.100000e-01    2.350000e+00
  SN2r SN1dh  1 4.100000e-01    2.350000e+00
  SN2h SN2ar  1 4.100000e-01    2.600000e+00
  SN2r SN2ah  1 4.100000e-01    2.600000e+00
  SN2h SN1ar  1 4.100000e-01    2.350000e+00
  SN2r SN1ah  1 4.100000e-01    2.350000e+00
  SN1h SN1dr  1 4.100000e-01    2.600000e+00
  SN1r SN1dh  1 4.100000e-01    2.600000e+00
  SN1h SN1ar  1 4.100000e-01    2.600000e+00
  SN1r SN1ah  1 4.100000e-01    2.600000e+00
  SC6h SC6vr  1 4.100000e-01    2.840000e+00
  SC6r SC6vh  1 4.100000e-01    2.840000e+00
  SC6h SC5vr  1 4.100000e-01    2.600000e+00
  SC6r SC5vh  1 4.100000e-01    2.600000e+00
  SC6h SC4vr  1 4.100000e-01    2.600000e+00
  SC6r SC4vh  1 4.100000e-01    2.600000e+00
  SC6h SC3vr  1 4.100000e-01    2.350000e+00
  SC6r SC3vh  1 4.100000e-01    2.350000e+00
  SC6h SC2vr  1 4.100000e-01    2.200000e+00
  SC6r SC2vh  1 4.100000e-01    2.200000e+00
  SC6h SC1vr  1 4.100000e-01    2.040000e+00
  SC6r SC1vh  1 4.100000e-01    2.040000e+00
  SC6h SX4vr  1 4.100000e-01    2.600000e+00
  SC6r SX4vh  1 4.100000e-01    2.600000e+00
  SC6h SX3vr  1 4.100000e-01    2.600000e+00
  SC6r SX3vh  1 4.100000e-01    2.600000e+00
  SC6h SX2vr  1 4.100000e-01    2.600000e+00
  SC6r SX2vh  1 4.100000e-01    2.600000e+00
  SC6h SX1vr  1 4.100000e-01    2.600000e+00
  SC6r SX1vh  1 4.100000e-01    2.600000e+00
  SC6h SC6er  1 4.100000e-01    2.840000e+00
  SC6r SC6eh  1 4.100000e-01    2.840000e+00
  SC6h SC5er  1 4.100000e-01    2.600000e+00
  SC6r SC5eh  1 4.100000e-01    2.600000e+00
  SC6h SC4er  1 4.100000e-01    2.600000e+00
  SC6r SC4eh  1 4.100000e-01    2.600000e+00
  SC6h SC3er  1 4.100000e-01    2.350000e+00
  SC6r SC3eh  1 4.100000e-01    2.350000e+00
  SC6h SC2er  1 4.100000e-01    2.200000e+00
  SC6r SC2eh  1 4.100000e-01    2.200000e+00
  SC6h SC1er  1 4.100000e-01    2.040000e+00
  SC6r SC1eh  1 4.100000e-01    2.040000e+00
  SC6h SX4er  1 4.100000e-01    2.600000e+00
  SC6r SX4eh  1 4.100000e-01    2.600000e+00
  SC6h SX3er  1 4.100000e-01    2.600000e+00
  SC6r SX3eh  1 4.100000e-01    2.600000e+00
  SC6h SX2er  1 4.100000e-01    2.600000e+00
  SC6r SX2eh  1 4.100000e-01    2.600000e+00
  SC6h SX1er  1 4.100000e-01    2.600000e+00
  SC6r SX1eh  1 4.100000e-01    2.600000e+00
  SC5h SC5vr  1 4.100000e-01    2.600000e+00
  SC5r SC5vh  1 4.100000e-01    2.600000e+00
  SC5h SC4vr  1 4.100000e-01    2.600000e+00
  SC5r SC4vh  1 4.100000e-01    2.600000e+00
  SC5h SC3vr  1 4.100000e-01    2.350000e+00
  SC5r SC3vh  1 4.100000e-01    2.350000e+00
  SC5h SC2vr  1 4.100000e-01    2.200000e+00
  SC5r SC2vh  1 4.100000e-01    2.200000e+00
  SC5h SC1vr  1 4.100000e-01    2.200000e+00
  SC5r SC1vh  1 4.100000e-01    2.200000e+00
  SC5h SX4vr  1 4.100000e-01    2.350000e+00
  SC5r SX4vh  1 4.100000e-01    2.350000e+00
  SC5h SX3vr  1 4.100000e-01    2.350000e+00
  SC5r SX3vh  1 4.100000e-01    2.350000e+00
  SC5h SX2vr  1 4.100000e-01    2.350000e+00
  SC5r SX2vh  1 4.100000e-01    2.350000e+00
  SC5h SX1vr  1 4.100000e-01    2.600000e+00
  SC5r SX1vh  1 4.100000e-01    2.600000e+00
  SC5h SC5er  1 4.100000e-01    2.600000e+00
  SC5r SC5eh  1 4.100000e-01    2.600000e+00
  SC5h SC4er  1 4.100000e-01    2.600000e+00
  SC5r SC4eh  1 4.100000e-01    2.600000e+00
  SC5h SC3er  1 4.100000e-01    2.350000e+00
  SC5r SC3eh  1 4.100000e-01    2.350000e+00
  SC5h SC2er  1 4.100000e-01    2.200000e+00
  SC5r SC2eh  1 4.100000e-01    2.200000e+00
  SC5h SC1er  1 4.100000e-01    2.200000e+00
  SC5r SC1eh  1 4.100000e-01    2.200000e+00
  SC5h SX4er  1 4.100000e-01    2.350000e+00
  SC5r SX4eh  1 4.100000e-01    2.350000e+00
  SC5h SX3er  1 4.100000e-01    2.350000e+00
  SC5r SX3eh  1 4.100000e-01    2.350000e+00
  SC5h SX2er  1 4.100000e-01    2.350000e+00
  SC5r SX2eh  1 4.100000e-01    2.350000e+00
  SC5h SX1er  1 4.100000e-01    2.600000e+00
  SC5r SX1eh  1 4.100000e-01    2.600000e+00
  SC4h SC4vr  1 4.100000e-01    2.600000e+00
  SC4r SC4vh  1 4.100000e-01    2.600000e+00
  SC4h SC3vr  1 4.100000e-01    2.600000e+00
  SC4r SC3vh  1 4.100000e-01    2.600000e+00
  SC4h SC2vr  1 4.100000e-01    2.350000e+00
  SC4r SC2vh  1 4.100000e-01    2.350000e+00
  SC4h SC1vr  1 4.100000e-01    2.200000e+00
  SC4r SC1vh  1 4.100000e-01    2.200000e+00
  SC4h SX4vr  1 4.100000e-01    2.350000e+00
  SC4r SX4vh  1 4.100000e-01    2.350000e+00
  SC4h SX3vr  1 4.100000e-01    2.350000e+00
  SC4r SX3vh  1 4.100000e-01    2.350000e+00
  SC4h SX2vr  1 4.100000e-01    2.350000e+00
  SC4r SX2vh  1 4.100000e-01    2.350000e+00
  SC4h SX1vr  1 4.100000e-01    2.600000e+00
  SC4r SX1vh  1 4.100000e-01    2.600000e+00
  SC4h SC4er  1 4.100000e-01    2.600000e+00
  SC4r SC4eh  1 4.100000e-01    2.600000e+00
  SC4h SC3er  1 4.100000e-01    2.600000e+00
  SC4r SC3eh  1 4.100000e-01    2.600000e+00
  SC4h SC2er  1 4.100000e-01    2.350000e+00
  SC4r SC2eh  1 4.100000e-01    2.350000e+00
  SC4h SC1er  1 4.100000e-01    2.200000e+00
  SC4r SC1eh  1 4.100000e-01    2.200000e+00
  SC4h SX4er  1 4.100000e-01    2.350000e+00
  SC4r SX4eh  1 4.100000e-01    2.350000e+00
  SC4h SX3er  1 4.100000e-01    2.350000e+00
  SC4r SX3eh  1 4.100000e-01    2.350000e+00
  SC4h SX2er  1 4.100000e-01    2.350000e+00
  SC4r SX2eh  1 4.100000e-01    2.350000e+00
  SC4h SX1er  1 4.100000e-01    2.600000e+00
  SC4r SX1eh  1 4.100000e-01    2.600000e+00
  SC3h SC3vr  1 4.100000e-01    2.600000e+00
  SC3r SC3vh  1 4.100000e-01    2.600000e+00
  SC3h SC2vr  1 4.100000e-01    2.600000e+00
  SC3r SC2vh  1 4.100000e-01    2.600000e+00
  SC3h SC1vr  1 4.100000e-01    2.600000e+00
  SC3r SC1vh  1 4.100000e-01    2.600000e+00
  SC3h SX4vr  1 4.100000e-01    2.350000e+00
  SC3r SX4vh  1 4.100000e-01    2.350000e+00
  SC3h SX3vr  1 4.100000e-01    2.350000e+00
  SC3r SX3vh  1 4.100000e-01    2.350000e+00
  SC3h SX2vr  1 4.100000e-01    2.350000e+00
  SC3r SX2vh  1 4.100000e-01    2.350000e+00
  SC3h SX1vr  1 4.100000e-01    2.600000e+00
  SC3r SX1vh  1 4.100000e-01    2.600000e+00
  SC3h SC3er  1 4.100000e-01    2.600000e+00
  SC3r SC3eh  1 4.100000e-01    2.600000e+00
  SC3h SC2er  1 4.100000e-01    2.600000e+00
  SC3r SC2eh  1 4.100000e-01    2.600000e+00
  SC3h SC1er  1 4.100000e-01    2.600000e+00
  SC3r SC1eh  1 4.100000e-01    2.600000e+00
  SC3h SX4er  1 4.100000e-01    2.350000e+00
  SC3r SX4eh  1 4.100000e-01    2.350000e+00
  SC3h SX3er  1 4.100000e-01    2.350000e+00
  SC3r SX3eh  1 4.100000e-01    2.350000e+00
  SC3h SX2er  1 4.100000e-01    2.350000e+00
  SC3r SX2eh  1 4.100000e-01    2.350000e+00
  SC3h SX1er  1 4.100000e-01    2.600000e+00
  SC3r SX1eh  1 4.100000e-01    2.600000e+00
  SC2h SC2vr  1 4.100000e-01    2.600000e+00
  SC2r SC2vh  1 4.100000e-01    2.600000e+00
  SC2h SC1vr  1 4.100000e-01    2.840000e+00
  SC2r SC1vh  1 4.100000e-01    2.840000e+00
  SC2h SX4vr  1 4.100000e-01    2.040000e+00
  SC2r SX4vh  1 4.100000e-01    2.040000e+00
  SC2h SX3vr  1 4.100000e-01    2.350000e+00
  SC2r SX3vh  1 4.100000e-01    2.350000e+00
  SC2h SX2vr  1 4.100000e-01    2.350000e+00
  SC2r SX2vh  1 4.100000e-01    2.350000e+00
  SC2h SX1vr  1 4.100000e-01    2.350000e+00
  SC2r SX1vh  1 4.100000e-01    2.350000e+00
  SC2h SC2er  1 4.100000e-01    2.600000e+00
  SC2r SC2eh  1 4.100000e-01    2.600000e+00
  SC2h SC1er  1 4.100000e-01    2.840000e+00
  SC2r SC1eh  1 4.100000e-01    2.840000e+00
  SC2h SX4er  1 4.100000e-01    2.040000e+00
  SC2r SX4eh  1 4.100000e-01    2.040000e+00
  SC2h SX3er  1 4.100000e-01    2.350000e+00
  SC2r SX3eh  1 4.100000e-01    2.350000e+00
  SC2h SX2er  1 4.100000e-01    2.350000e+00
  SC2r SX2eh  1 4.100000e-01    2.350000e+00
  SC2h SX1er  1 4.100000e-01    2.350000e+00
  SC2r SX1eh  1 4.100000e-01    2.350000e+00
  SC1h SC1vr  1 4.100000e-01    2.600000e+00
  SC1r SC1vh  1 4.100000e-01    2.600000e+00
  SC1h SX4vr  1 4.100000e-01    2.040000e+00
  SC1r SX4vh  1 4.100000e-01    2.040000e+00
  SC1h SX3vr  1 4.100000e-01    2.350000e+00
  SC1r SX3vh  1 4.100000e-01    2.350000e+00
  SC1h SX2vr  1 4.100000e-01    2.350000e+00
  SC1r SX2vh  1 4.100000e-01    2.350000e+00
  SC1h SX1vr  1 4.100000e-01    2.350000e+00
  SC1r SX1vh  1 4.100000e-01    2.350000e+00
  SC1h SC1er  1 4.100000e-01    2.600000e+00
  SC1r SC1eh  1 4.100000e-01    2.600000e+00
  SC1h SX4er  1 4.100000e-01    2.040000e+00
  SC1r SX4eh  1 4.100000e-01    2.040000e+00
  SC1h SX3er  1 4.100000e-01    2.350000e+00
  SC1r SX3eh  1 4.100000e-01    2.350000e+00
  SC1h SX2er  1 4.100000e-01    2.350000e+00
  SC1r SX2eh  1 4.100000e-01    2.350000e+00
  SC1h SX1er  1 4.100000e-01    2.350000e+00
  SC1r SX1eh  1 4.100000e-01    2.350000e+00
  SX4h SX4vr  1 4.100000e-01    2.600000e+00
  SX4r SX4vh  1 4.100000e-01    2.600000e+00
  SX4h SX3vr  1 4.100000e-01    2.600000e+00
  SX4r SX3vh  1 4.100000e-01    2.600000e+00
  SX4h SX2vr  1 4.100000e-01    2.600000e+00
  SX4r SX2vh  1 4.100000e-01    2.600000e+00
  SX4h SX1vr  1 4.100000e-01    2.600000e+00
  SX4r SX1vh  1 4.100000e-01    2.600000e+00
  SX4h SX4er  1 4.100000e-01    2.600000e+00
  SX4r SX4eh  1 4.100000e-01    2.600000e+00
  SX4h SX3er  1 4.100000e-01    2.600000e+00
  SX4r SX3eh  1 4.100000e-01    2.600000e+00
  SX4h SX2er  1 4.100000e-01    2.600000e+00
  SX4r SX2eh  1 4.100000e-01    2.600000e+00
  SX4h SX1er  1 4.100000e-01    2.600000e+00
  SX4r SX1eh  1 4.100000e-01    2.600000e+00
  SX3h SX3vr  1 4.100000e-01    2.600000e+00
  SX3r SX3vh  1 4.100000e-01    2.600000e+00
  SX3h SX2vr  1 4.100000e-01    2.840000e+00
  SX3r SX2vh  1 4.100000e-01    2.840000e+00
  SX3h SX1vr  1 4.100000e-01    2.840000e+00
  SX3r SX1vh  1 4.100000e-01    2.840000e+00
  SX3h SX3er  1 4.100000e-01    2.600000e+00
  SX3r SX3eh  1 4.100000e-01    2.600000e+00
  SX3h SX2er  1 4.100000e-01    2.840000e+00
  SX3r SX2eh  1 4.100000e-01    2.840000e+00
  SX3h SX1er  1 4.100000e-01    2.840000e+00
  SX3r SX1eh  1 4.100000e-01    2.840000e+00
  SX2h SX2vr  1 4.100000e-01    2.840000e+00
  SX2r SX2vh  1 4.100000e-01    2.840000e+00
  SX2h SX1vr  1 4.100000e-01    2.840000e+00
  SX2r SX1vh  1 4.100000e-01    2.840000e+00
  SX2h SX2er  1 4.100000e-01    2.840000e+00
  SX2r SX2eh  1 4.100000e-01    2.840000e+00
  SX2h SX1er  1 4.100000e-01    2.840000e+00
  SX2r SX1eh  1 4.100000e-01    2.840000e+00
  SX1h SX1vr  1 4.100000e-01    3.070000e+00
  SX1r SX1vh  1 4.100000e-01    3.070000e+00
  SX1h SX1er  1 4.100000e-01    3.070000e+00
  SX1r SX1eh  1 4.100000e-01    3.070000e+00
  SP6h SC6vr  1 4.100000e-01    2.040000e+00
  SP6r SC6vh  1 4.100000e-01    2.040000e+00
  SP6h SC5vr  1 4.100000e-01    1.910000e+00
  SP6r SC5vh  1 4.100000e-01    1.910000e+00
  SP6h SC4vr  1 4.100000e-01    1.750000e+00
  SP6r SC4vh  1 4.100000e-01    1.750000e+00
  SP6h SC3vr  1 4.140000e-01    1.560000e+00
  SP6r SC3vh  1 4.140000e-01    1.560000e+00
  SP6h SC2vr  1 4.140000e-01    1.560000e+00
  SP6r SC2vh  1 4.140000e-01    1.560000e+00
  SP6h SC1vr  1 4.210000e-01    1.250000e+00
  SP6r SC1vh  1 4.210000e-01    1.250000e+00
  SP6h SX4vr  1 4.100000e-01    2.200000e+00
  SP6r SX4vh  1 4.100000e-01    2.200000e+00
  SP6h SX3vr  1 4.100000e-01    2.200000e+00
  SP6r SX3vh  1 4.100000e-01    2.200000e+00
  SP6h SX2vr  1 4.100000e-01    2.040000e+00
  SP6r SX2vh  1 4.100000e-01    2.040000e+00
  SP6h SX1vr  1 4.100000e-01    1.910000e+00
  SP6r SX1vh  1 4.100000e-01    1.910000e+00
  SP6h SC6er  1 4.100000e-01    2.040000e+00
  SP6r SC6eh  1 4.100000e-01    2.040000e+00
  SP6h SC5er  1 4.100000e-01    1.910000e+00
  SP6r SC5eh  1 4.100000e-01    1.910000e+00
  SP6h SC4er  1 4.100000e-01    1.750000e+00
  SP6r SC4eh  1 4.100000e-01    1.750000e+00
  SP6h SC3er  1 4.140000e-01    1.560000e+00
  SP6r SC3eh  1 4.140000e-01    1.560000e+00
  SP6h SC2er  1 4.140000e-01    1.560000e+00
  SP6r SC2eh  1 4.140000e-01    1.560000e+00
  SP6h SC1er  1 4.210000e-01    1.250000e+00
  SP6r SC1eh  1 4.210000e-01    1.250000e+00
  SP6h SX4er  1 4.100000e-01    2.200000e+00
  SP6r SX4eh  1 4.100000e-01    2.200000e+00
  SP6h SX3er  1 4.100000e-01    2.200000e+00
  SP6r SX3eh  1 4.100000e-01    2.200000e+00
  SP6h SX2er  1 4.100000e-01    2.040000e+00
  SP6r SX2eh  1 4.100000e-01    2.040000e+00
  SP6h SX1er  1 4.100000e-01    1.910000e+00
  SP6r SX1eh  1 4.100000e-01    1.910000e+00
  SP5h SC6vr  1 4.100000e-01    2.040000e+00
  SP5r SC6vh  1 4.100000e-01    2.040000e+00
  SP5h SC5vr  1 4.100000e-01    2.040000e+00
  SP5r SC5vh  1 4.100000e-01    2.040000e+00
  SP5h SC4vr  1 4.100000e-01    1.910000e+00
  SP5r SC4vh  1 4.100000e-01    1.910000e+00
  SP5h SC3vr  1 4.100000e-01    1.750000e+00
  SP5r SC3vh  1 4.100000e-01    1.750000e+00
  SP5h SC2vr  1 4.100000e-01    1.750000e+00
  SP5r SC2vh  1 4.100000e-01    1.750000e+00
  SP5h SC1vr  1 4.140000e-01    1.560000e+00
  SP5r SC1vh  1 4.140000e-01    1.560000e+00
  SP5h SX4vr  1 4.100000e-01    2.350000e+00
  SP5r SX4vh  1 4.100000e-01    2.350000e+00
  SP5h SX3vr  1 4.100000e-01    2.200000e+00
  SP5r SX3vh  1 4.100000e-01    2.200000e+00
  SP5h SX2vr  1 4.100000e-01    2.200000e+00
  SP5r SX2vh  1 4.100000e-01    2.200000e+00
  SP5h SX1vr  1 4.100000e-01    1.910000e+00
  SP5r SX1vh  1 4.100000e-01    1.910000e+00
  SP5h SC6er  1 4.100000e-01    2.040000e+00
  SP5r SC6eh  1 4.100000e-01    2.040000e+00
  SP5h SC5er  1 4.100000e-01    2.040000e+00
  SP5r SC5eh  1 4.100000e-01    2.040000e+00
  SP5h SC4er  1 4.100000e-01    1.910000e+00
  SP5r SC4eh  1 4.100000e-01    1.910000e+00
  SP5h SC3er  1 4.100000e-01    1.750000e+00
  SP5r SC3eh  1 4.100000e-01    1.750000e+00
  SP5h SC2er  1 4.100000e-01    1.750000e+00
  SP5r SC2eh  1 4.100000e-01    1.750000e+00
  SP5h SC1er  1 4.140000e-01    1.560000e+00
  SP5r SC1eh  1 4.140000e-01    1.560000e+00
  SP5h SX4er  1 4.100000e-01    2.350000e+00
  SP5r SX4eh  1 4.100000e-01    2.350000e+00
  SP5h SX3er  1 4.100000e-01    2.200000e+00
  SP5r SX3eh  1 4.100000e-01    2.200000e+00
  SP5h SX2er  1 4.100000e-01    2.200000e+00
  SP5r SX2eh  1 4.100000e-01    2.200000e+00
  SP5h SX1er  1 4.100000e-01    1.910000e+00
  SP5r SX1eh  1 4.100000e-01    1.910000e+00
  SP4h SC6vr  1 4.100000e-01    2.200000e+00
  SP4r SC6vh  1 4.100000e-01    2.200000e+00
  SP4h SC5vr  1 4.100000e-01    2.040000e+00
  SP4r SC5vh  1 4.100000e-01    2.040000e+00
  SP4h SC4vr  1 4.100000e-01    1.910000e+00
  SP4r SC4vh  1 4.100000e-01    1.910000e+00
  SP4h SC3vr  1 4.100000e-01    1.750000e+00
  SP4r SC3vh  1 4.100000e-01    1.750000e+00
  SP4h SC2vr  1 4.100000e-01    1.750000e+00
  SP4r SC2vh  1 4.100000e-01    1.750000e+00
  SP4h SC1vr  1 4.140000e-01    1.560000e+00
  SP4r SC1vh  1 4.140000e-01    1.560000e+00
  SP4h SX4vr  1 4.100000e-01    2.350000e+00
  SP4r SX4vh  1 4.100000e-01    2.350000e+00
  SP4h SX3vr  1 4.100000e-01    2.200000e+00
  SP4r SX3vh  1 4.100000e-01    2.200000e+00
  SP4h SX2vr  1 4.100000e-01    2.200000e+00
  SP4r SX2vh  1 4.100000e-01    2.200000e+00
  SP4h SX1vr  1 4.100000e-01    2.040000e+00
  SP4r SX1vh  1 4.100000e-01    2.040000e+00
  SP4h SC6er  1 4.100000e-01    2.200000e+00
  SP4r SC6eh  1 4.100000e-01    2.200000e+00
  SP4h SC5er  1 4.100000e-01    2.040000e+00
  SP4r SC5eh  1 4.100000e-01    2.040000e+00
  SP4h SC4er  1 4.100000e-01    1.910000e+00
  SP4r SC4eh  1 4.100000e-01    1.910000e+00
  SP4h SC3er  1 4.100000e-01    1.750000e+00
  SP4r SC3eh  1 4.100000e-01    1.750000e+00
  SP4h SC2er  1 4.100000e-01    1.750000e+00
  SP4r SC2eh  1 4.100000e-01    1.750000e+00
  SP4h SC1er  1 4.140000e-01    1.560000e+00
  SP4r SC1eh  1 4.140000e-01    1.560000e+00
  SP4h SX4er  1 4.100000e-01    2.350000e+00
  SP4r SX4eh  1 4.100000e-01    2.350000e+00
  SP4h SX3er  1 4.100000e-01    2.200000e+00
  SP4r SX3eh  1 4.100000e-01    2.200000e+00
  SP4h SX2er  1 4.100000e-01    2.200000e+00
  SP4r SX2eh  1 4.100000e-01    2.200000e+00
  SP4h SX1er  1 4.100000e-01    2.040000e+00
  SP4r SX1eh  1 4.100000e-01    2.040000e+00
  SP3h SC6vr  1 4.100000e-01    2.350000e+00
  SP3r SC6vh  1 4.100000e-01    2.350000e+00
  SP3h SC5vr  1 4.100000e-01    2.200000e+00
  SP3r SC5vh  1 4.100000e-01    2.200000e+00
  SP3h SC4vr  1 4.100000e-01    2.040000e+00
  SP3r SC4vh  1 4.100000e-01    2.040000e+00
  SP3h SC3vr  1 4.100000e-01    1.750000e+00
  SP3r SC3vh  1 4.100000e-01    1.750000e+00
  SP3h SC2vr  1 4.100000e-01    1.750000e+00
  SP3r SC2vh  1 4.100000e-01    1.750000e+00
  SP3h SC1vr  1 4.140000e-01    1.560000e+00
  SP3r SC1vh  1 4.140000e-01    1.560000e+00
  SP3h SX4vr  1 4.100000e-01    2.350000e+00
  SP3r SX4vh  1 4.100000e-01    2.350000e+00
  SP3h SX3vr  1 4.100000e-01    2.350000e+00
  SP3r SX3vh  1 4.100000e-01    2.350000e+00
  SP3h SX2vr  1 4.100000e-01    2.200000e+00
  SP3r SX2vh  1 4.100000e-01    2.200000e+00
  SP3h SX1vr  1 4.100000e-01    2.040000e+00
  SP3r SX1vh  1 4.100000e-01    2.040000e+00
  SP3h SC6er  1 4.100000e-01    2.350000e+00
  SP3r SC6eh  1 4.100000e-01    2.350000e+00
  SP3h SC5er  1 4.100000e-01    2.200000e+00
  SP3r SC5eh  1 4.100000e-01    2.200000e+00
  SP3h SC4er  1 4.100000e-01    2.040000e+00
  SP3r SC4eh  1 4.100000e-01    2.040000e+00
  SP3h SC3er  1 4.100000e-01    1.750000e+00
  SP3r SC3eh  1 4.100000e-01    1.750000e+00
  SP3h SC2er  1 4.100000e-01    1.750000e+00
  SP3r SC2eh  1 4.100000e-01    1.750000e+00
  SP3h SC1er  1 4.140000e-01    1.560000e+00
  SP3r SC1eh  1 4.140000e-01    1.560000e+00
  SP3h SX4er  1 4.100000e-01    2.350000e+00
  SP3r SX4eh  1 4.100000e-01    2.350000e+00
  SP3h SX3er  1 4.100000e-01    2.350000e+00
  SP3r SX3eh  1 4.100000e-01    2.350000e+00
  SP3h SX2er  1 4.100000e-01    2.200000e+00
  SP3r SX2eh  1 4.100000e-01    2.200000e+00
  SP3h SX1er  1 4.100000e-01    2.040000e+00
  SP3r SX1eh  1 4.100000e-01    2.040000e+00
  SP2h SC6vr  1 4.100000e-01    2.350000e+00
  SP2r SC6vh  1 4.100000e-01    2.350000e+00
  SP2h SC5vr  1 4.100000e-01    2.200000e+00
  SP2r SC5vh  1 4.100000e-01    2.200000e+00
  SP2h SC4vr  1 4.100000e-01    2.040000e+00
  SP2r SC4vh  1 4.100000e-01    2.040000e+00
  SP2h SC3vr  1 4.100000e-01    1.910000e+00
  SP2r SC3vh  1 4.100000e-01    1.910000e+00
  SP2h SC2vr  1 4.100000e-01    1.910000e+00
  SP2r SC2vh  1 4.100000e-01    1.910000e+00
  SP2h SC1vr  1 4.100000e-01    1.750000e+00
  SP2r SC1vh  1 4.100000e-01    1.750000e+00
  SP2h SX4vr  1 4.100000e-01    2.350000e+00
  SP2r SX4vh  1 4.100000e-01    2.350000e+00
  SP2h SX3vr  1 4.100000e-01    2.350000e+00
  SP2r SX3vh  1 4.100000e-01    2.350000e+00
  SP2h SX2vr  1 4.100000e-01    2.200000e+00
  SP2r SX2vh  1 4.100000e-01    2.200000e+00
  SP2h SX1vr  1 4.100000e-01    2.040000e+00
  SP2r SX1vh  1 4.100000e-01    2.040000e+00
  SP2h SC6er  1 4.100000e-01    2.350000e+00
  SP2r SC6eh  1 4.100000e-01    2.350000e+00
  SP2h SC5er  1 4.100000e-01    2.200000e+00
  SP2r SC5eh  1 4.100000e-01    2.200000e+00
  SP2h SC4er  1 4.100000e-01    2.040000e+00
  SP2r SC4eh  1 4.100000e-01    2.040000e+00
  SP2h SC3er  1 4.100000e-01    1.910000e+00
  SP2r SC3eh  1 4.100000e-01    1.910000e+00
  SP2h SC2er  1 4.100000e-01    1.910000e+00
  SP2r SC2eh  1 4.100000e-01    1.910000e+00
  SP2h SC1er  1 4.100000e-01    1.750000e+00
  SP2r SC1eh  1 4.100000e-01    1.750000e+00
  SP2h SX4er  1 4.100000e-01    2.350000e+00
  SP2r SX4eh  1 4.100000e-01    2.350000e+00
  SP2h SX3er  1 4.100000e-01    2.350000e+00
  SP2r SX3eh  1 4.100000e-01    2.350000e+00
  SP2h SX2er  1 4.100000e-01    2.200000e+00
  SP2r SX2eh  1 4.100000e-01    2.200000e+00
  SP2h SX1er  1 4.100000e-01    2.040000e+00
  SP2r SX1eh  1 4.100000e-01    2.040000e+00
  SP1h SC6vr  1 4.100000e-01    2.350000e+00
  SP1r SC6vh  1 4.100000e-01    2.350000e+00
  SP1h SC5vr  1 4.100000e-01    2.200000e+00
  SP1r SC5vh  1 4.100000e-01    2.200000e+00
  SP1h SC4vr  1 4.100000e-01    2.040000e+00
  SP1r SC4vh  1 4.100000e-01    2.040000e+00
  SP1h SC3vr  1 4.100000e-01    1.910000e+00
  SP1r SC3vh  1 4.100000e-01    1.910000e+00
  SP1h SC2vr  1 4.100000e-01    1.910000e+00
  SP1r SC2vh  1 4.100000e-01    1.910000e+00
  SP1h SC1vr  1 4.100000e-01    1.750000e+00
  SP1r SC1vh  1 4.100000e-01    1.750000e+00
  SP1h SX4vr  1 4.100000e-01    2.350000e+00
  SP1r SX4vh  1 4.100000e-01    2.350000e+00
  SP1h SX3vr  1 4.100000e-01    2.350000e+00
  SP1r SX3vh  1 4.100000e-01    2.350000e+00
  SP1h SX2vr  1 4.100000e-01    2.200000e+00
  SP1r SX2vh  1 4.100000e-01    2.200000e+00
  SP1h SX1vr  1 4.100000e-01    2.040000e+00
  SP1r SX1vh  1 4.100000e-01    2.040000e+00
  SP1h SC6er  1 4.100000e-01    2.350000e+00
  SP1r SC6eh  1 4.100000e-01    2.350000e+00
  SP1h SC5er  1 4.100000e-01    2.200000e+00
  SP1r SC5eh  1 4.100000e-01    2.200000e+00
  SP1h SC4er  1 4.100000e-01    2.040000e+00
  SP1r SC4eh  1 4.100000e-01    2.040000e+00
  SP1h SC3er  1 4.100000e-01    1.910000e+00
  SP1r SC3eh  1 4.100000e-01    1.910000e+00
  SP1h SC2er  1 4.100000e-01    1.910000e+00
  SP1r SC2eh  1 4.100000e-01    1.910000e+00
  SP1h SC1er  1 4.100000e-01    1.750000e+00
  SP1r SC1eh  1 4.100000e-01    1.750000e+00
  SP1h SX4er  1 4.100000e-01    2.350000e+00
  SP1r SX4eh  1 4.100000e-01    2.350000e+00
  SP1h SX3er  1 4.100000e-01    2.350000e+00
  SP1r SX3eh  1 4.100000e-01    2.350000e+00
  SP1h SX2er  1 4.100000e-01    2.200000e+00
  SP1r SX2eh  1 4.100000e-01    2.200000e+00
  SP1h SX1er  1 4.100000e-01    2.040000e+00
  SP1r SX1eh  1 4.100000e-01    2.040000e+00
  SN6h SC6vr  1 4.100000e-01    2.600000e+00
  SN6r SC6vh  1 4.100000e-01    2.600000e+00
  SN6h SC5vr  1 4.100000e-01    2.350000e+00
  SN6r SC5vh  1 4.100000e-01    2.350000e+00
  SN6h SC4vr  1 4.100000e-01    2.200000e+00
  SN6r SC4vh  1 4.100000e-01    2.200000e+00
  SN6h SC3vr  1 4.100000e-01    2.040000e+00
  SN6r SC3vh  1 4.100000e-01    2.040000e+00
  SN6h SC2vr  1 4.100000e-01    2.040000e+00
  SN6r SC2vh  1 4.100000e-01    2.040000e+00
  SN6h SC1vr  1 4.100000e-01    1.910000e+00
  SN6r SC1vh  1 4.100000e-01    1.910000e+00
  SN6h SX4vr  1 4.100000e-01    2.600000e+00
  SN6r SX4vh  1 4.100000e-01    2.600000e+00
  SN6h SX3vr  1 4.100000e-01    2.350000e+00
  SN6r SX3vh  1 4.100000e-01    2.350000e+00
  SN6h SX2vr  1 4.100000e-01    2.200000e+00
  SN6r SX2vh  1 4.100000e-01    2.200000e+00
  SN6h SX1vr  1 4.100000e-01    2.040000e+00
  SN6r SX1vh  1 4.100000e-01    2.040000e+00
  SN6h SC6er  1 4.100000e-01    2.600000e+00
  SN6r SC6eh  1 4.100000e-01    2.600000e+00
  SN6h SC5er  1 4.100000e-01    2.350000e+00
  SN6r SC5eh  1 4.100000e-01    2.350000e+00
  SN6h SC4er  1 4.100000e-01    2.200000e+00
  SN6r SC4eh  1 4.100000e-01    2.200000e+00
  SN6h SC3er  1 4.100000e-01    2.040000e+00
  SN6r SC3eh  1 4.100000e-01    2.040000e+00
  SN6h SC2er  1 4.100000e-01    2.040000e+00
  SN6r SC2eh  1 4.100000e-01    2.040000e+00
  SN6h SC1er  1 4.100000e-01    1.910000e+00
  SN6r SC1eh  1 4.100000e-01    1.910000e+00
  SN6h SX4er  1 4.100000e-01    2.600000e+00
  SN6r SX4eh  1 4.100000e-01    2.600000e+00
  SN6h SX3er  1 4.100000e-01    2.350000e+00
  SN6r SX3eh  1 4.100000e-01    2.350000e+00
  SN6h SX2er  1 4.100000e-01    2.200000e+00
  SN6r SX2eh  1 4.100000e-01    2.200000e+00
  SN6h SX1er  1 4.100000e-01    2.040000e+00
  SN6r SX1eh  1 4.100000e-01    2.040000e+00
  SN5h SC6vr  1 4.100000e-01    2.600000e+00
  SN5r SC6vh  1 4.100000e-01    2.600000e+00
  SN5h SC5vr  1 4.100000e-01    2.350000e+00
  SN5r SC5vh  1 4.100000e-01    2.350000e+00
  SN5h SC4vr  1 4.100000e-01    2.200000e+00
  SN5r SC4vh  1 4.100000e-01    2.200000e+00
  SN5h SC3vr  1 4.100000e-01    2.200000e+00
  SN5r SC3vh  1 4.100000e-01    2.200000e+00
  SN5h SC2vr  1 4.100000e-01    2.040000e+00
  SN5r SC2vh  1 4.100000e-01    2.040000e+00
  SN5h SC1vr  1 4.100000e-01    1.910000e+00
  SN5r SC1vh  1 4.100000e-01    1.910000e+00
  SN5h SX4vr  1 4.100000e-01    2.840000e+00
  SN5r SX4vh  1 4.100000e-01    2.840000e+00
  SN5h SX3vr  1 4.100000e-01    2.600000e+00
  SN5r SX3vh  1 4.100000e-01    2.600000e+00
  SN5h SX2vr  1 4.100000e-01    2.350000e+00
  SN5r SX2vh  1 4.100000e-01    2.350000e+00
  SN5h SX1vr  1 4.100000e-01    2.200000e+00
  SN5r SX1vh  1 4.100000e-01    2.200000e+00
  SN5h SC6er  1 4.100000e-01    2.600000e+00
  SN5r SC6eh  1 4.100000e-01    2.600000e+00
  SN5h SC5er  1 4.100000e-01    2.350000e+00
  SN5r SC5eh  1 4.100000e-01    2.350000e+00
  SN5h SC4er  1 4.100000e-01    2.200000e+00
  SN5r SC4eh  1 4.100000e-01    2.200000e+00
  SN5h SC3er  1 4.100000e-01    2.200000e+00
  SN5r SC3eh  1 4.100000e-01    2.200000e+00
  SN5h SC2er  1 4.100000e-01    2.040000e+00
  SN5r SC2eh  1 4.100000e-01    2.040000e+00
  SN5h SC1er  1 4.100000e-01    1.910000e+00
  SN5r SC1eh  1 4.100000e-01    1.910000e+00
  SN5h SX4er  1 4.100000e-01    2.840000e+00
  SN5r SX4eh  1 4.100000e-01    2.840000e+00
  SN5h SX3er  1 4.100000e-01    2.600000e+00
  SN5r SX3eh  1 4.100000e-01    2.600000e+00
  SN5h SX2er  1 4.100000e-01    2.350000e+00
  SN5r SX2eh  1 4.100000e-01    2.350000e+00
  SN5h SX1er  1 4.100000e-01    2.200000e+00
  SN5r SX1eh  1 4.100000e-01    2.200000e+00
  SN4h SC6vr  1 4.100000e-01    2.600000e+00
  SN4r SC6vh  1 4.100000e-01    2.600000e+00
  SN4h SC5vr  1 4.100000e-01    2.350000e+00
  SN4r SC5vh  1 4.100000e-01    2.350000e+00
  SN4h SC4vr  1 4.100000e-01    2.350000e+00
  SN4r SC4vh  1 4.100000e-01    2.350000e+00
  SN4h SC3vr  1 4.100000e-01    2.200000e+00
  SN4r SC3vh  1 4.100000e-01    2.200000e+00
  SN4h SC2vr  1 4.100000e-01    2.040000e+00
  SN4r SC2vh  1 4.100000e-01    2.040000e+00
  SN4h SC1vr  1 4.100000e-01    1.910000e+00
  SN4r SC1vh  1 4.100000e-01    1.910000e+00
  SN4h SX4vr  1 4.100000e-01    3.070000e+00
  SN4r SX4vh  1 4.100000e-01    3.070000e+00
  SN4h SX3vr  1 4.100000e-01    2.840000e+00
  SN4r SX3vh  1 4.100000e-01    2.840000e+00
  SN4h SX2vr  1 4.100000e-01    2.350000e+00
  SN4r SX2vh  1 4.100000e-01    2.350000e+00
  SN4h SX1vr  1 4.100000e-01    2.200000e+00
  SN4r SX1vh  1 4.100000e-01    2.200000e+00
  SN4h SC6er  1 4.100000e-01    2.600000e+00
  SN4r SC6eh  1 4.100000e-01    2.600000e+00
  SN4h SC5er  1 4.100000e-01    2.350000e+00
  SN4r SC5eh  1 4.100000e-01    2.350000e+00
  SN4h SC4er  1 4.100000e-01    2.350000e+00
  SN4r SC4eh  1 4.100000e-01    2.350000e+00
  SN4h SC3er  1 4.100000e-01    2.200000e+00
  SN4r SC3eh  1 4.100000e-01    2.200000e+00
  SN4h SC2er  1 4.100000e-01    2.040000e+00
  SN4r SC2eh  1 4.100000e-01    2.040000e+00
  SN4h SC1er  1 4.100000e-01    1.910000e+00
  SN4r SC1eh  1 4.100000e-01    1.910000e+00
  SN4h SX4er  1 4.100000e-01    3.070000e+00
  SN4r SX4eh  1 4.100000e-01    3.070000e+00
  SN4h SX3er  1 4.100000e-01    2.840000e+00
  SN4r SX3eh  1 4.100000e-01    2.840000e+00
  SN4h SX2er  1 4.100000e-01    2.350000e+00
  SN4r SX2eh  1 4.100000e-01    2.350000e+00
  SN4h SX1er  1 4.100000e-01    2.200000e+00
  SN4r SX1eh  1 4.100000e-01    2.200000e+00
  SN3h SC6vr  1 4.100000e-01    2.600000e+00
  SN3r SC6vh  1 4.100000e-01    2.600000e+00
  SN3h SC5vr  1 4.100000e-01    2.350000e+00
  SN3r SC5vh  1 4.100000e-01    2.350000e+00
  SN3h SC4vr  1 4.100000e-01    2.350000e+00
  SN3r SC4vh  1 4.100000e-01    2.350000e+00
  SN3h SC3vr  1 4.100000e-01    2.200000e+00
  SN3r SC3vh  1 4.100000e-01    2.200000e+00
  SN3h SC2vr  1 4.100000e-01    2.200000e+00
  SN3r SC2vh  1 4.100000e-01    2.200000e+00
  SN3h SC1vr  1 4.100000e-01    2.040000e+00
  SN3r SC1vh  1 4.100000e-01    2.040000e+00
  SN3h SX4vr  1 4.100000e-01    2.840000e+00
  SN3r SX4vh  1 4.100000e-01    2.840000e+00
  SN3h SX3vr  1 4.100000e-01    2.600000e+00
  SN3r SX3vh  1 4.100000e-01    2.600000e+00
  SN3h SX2vr  1 4.100000e-01    2.350000e+00
  SN3r SX2vh  1 4.100000e-01    2.350000e+00
  SN3h SX1vr  1 4.100000e-01    2.350000e+00
  SN3r SX1vh  1 4.100000e-01    2.350000e+00
  SN3h SC6er  1 4.100000e-01    2.600000e+00
  SN3r SC6eh  1 4.100000e-01    2.600000e+00
  SN3h SC5er  1 4.100000e-01    2.350000e+00
  SN3r SC5eh  1 4.100000e-01    2.350000e+00
  SN3h SC4er  1 4.100000e-01    2.350000e+00
  SN3r SC4eh  1 4.100000e-01    2.350000e+00
  SN3h SC3er  1 4.100000e-01    2.200000e+00
  SN3r SC3eh  1 4.100000e-01    2.200000e+00
  SN3h SC2er  1 4.100000e-01    2.200000e+00
  SN3r SC2eh  1 4.100000e-01    2.200000e+00
  SN3h SC1er  1 4.100000e-01    2.040000e+00
  SN3r SC1eh  1 4.100000e-01    2.040000e+00
  SN3h SX4er  1 4.100000e-01    2.840000e+00
  SN3r SX4eh  1 4.100000e-01    2.840000e+00
  SN3h SX3er  1 4.100000e-01    2.600000e+00
  SN3r SX3eh  1 4.100000e-01    2.600000e+00
  SN3h SX2er  1 4.100000e-01    2.350000e+00
  SN3r SX2eh  1 4.100000e-01    2.350000e+00
  SN3h SX1er  1 4.100000e-01    2.350000e+00
  SN3r SX1eh  1 4.100000e-01    2.350000e+00
  SN2h SC6vr  1 4.100000e-01    2.600000e+00
  SN2r SC6vh  1 4.100000e-01    2.600000e+00
  SN2h SC5vr  1 4.100000e-01    2.350000e+00
  SN2r SC5vh  1 4.100000e-01    2.350000e+00
  SN2h SC4vr  1 4.100000e-01    2.350000e+00
  SN2r SC4vh  1 4.100000e-01    2.350000e+00
  SN2h SC3vr  1 4.100000e-01    2.350000e+00
  SN2r SC3vh  1 4.100000e-01    2.350000e+00
  SN2h SC2vr  1 4.100000e-01    2.200000e+00
  SN2r SC2vh  1 4.100000e-01    2.200000e+00
  SN2h SC1vr  1 4.100000e-01    2.040000e+00
  SN2r SC1vh  1 4.100000e-01    2.040000e+00
  SN2h SX4vr  1 4.100000e-01    2.840000e+00
  SN2r SX4vh  1 4.100000e-01    2.840000e+00
  SN2h SX3vr  1 4.100000e-01    2.600000e+00
  SN2r SX3vh  1 4.100000e-01    2.600000e+00
  SN2h SX2vr  1 4.100000e-01    2.350000e+00
  SN2r SX2vh  1 4.100000e-01    2.350000e+00
  SN2h SX1vr  1 4.100000e-01    2.350000e+00
  SN2r SX1vh  1 4.100000e-01    2.350000e+00
  SN2h SC6er  1 4.100000e-01    2.600000e+00
  SN2r SC6eh  1 4.100000e-01    2.600000e+00
  SN2h SC5er  1 4.100000e-01    2.350000e+00
  SN2r SC5eh  1 4.100000e-01    2.350000e+00
  SN2h SC4er  1 4.100000e-01    2.350000e+00
  SN2r SC4eh  1 4.100000e-01    2.350000e+00
  SN2h SC3er  1 4.100000e-01    2.350000e+00
  SN2r SC3eh  1 4.100000e-01    2.350000e+00
  SN2h SC2er  1 4.100000e-01    2.200000e+00
  SN2r SC2eh  1 4.100000e-01    2.200000e+00
  SN2h SC1er  1 4.100000e-01    2.040000e+00
  SN2r SC1eh  1 4.100000e-01    2.040000e+00
  SN2h SX4er  1 4.100000e-01    2.840000e+00
  SN2r SX4eh  1 4.100000e-01    2.840000e+00
  SN2h SX3er  1 4.100000e-01    2.600000e+00
  SN2r SX3eh  1 4.100000e-01    2.600000e+00
  SN2h SX2er  1 4.100000e-01    2.350000e+00
  SN2r SX2eh  1 4.100000e-01    2.350000e+00
  SN2h SX1er  1 4.100000e-01    2.350000e+00
  SN2r SX1eh  1 4.100000e-01    2.350000e+00
  SN1h SC6vr  1 4.100000e-01    2.840000e+00
  SN1r SC6vh  1 4.100000e-01    2.840000e+00
  SN1h SC5vr  1 4.100000e-01    2.600000e+00
  SN1r SC5vh  1 4.100000e-01    2.600000e+00
  SN1h SC4vr  1 4.100000e-01    2.600000e+00
  SN1r SC4vh  1 4.100000e-01    2.600000e+00
  SN1h SC3vr  1 4.100000e-01    2.350000e+00
  SN1r SC3vh  1 4.100000e-01    2.350000e+00
  SN1h SC2vr  1 4.100000e-01    2.200000e+00
  SN1r SC2vh  1 4.100000e-01    2.200000e+00
  SN1h SC1vr  1 4.100000e-01    2.040000e+00
  SN1r SC1vh  1 4.100000e-01    2.040000e+00
  SN1h SX4vr  1 4.100000e-01    2.600000e+00
  SN1r SX4vh  1 4.100000e-01    2.600000e+00
  SN1h SX3vr  1 4.100000e-01    2.600000e+00
  SN1r SX3vh  1 4.100000e-01    2.600000e+00
  SN1h SX2vr  1 4.100000e-01    2.350000e+00
  SN1r SX2vh  1 4.100000e-01    2.350000e+00
  SN1h SX1vr  1 4.100000e-01    2.350000e+00
  SN1r SX1vh  1 4.100000e-01    2.350000e+00
  SN1h SC6er  1 4.100000e-01    2.840000e+00
  SN1r SC6eh  1 4.100000e-01    2.840000e+00
  SN1h SC5er  1 4.100000e-01    2.600000e+00
  SN1r SC5eh  1 4.100000e-01    2.600000e+00
  SN1h SC4er  1 4.100000e-01    2.600000e+00
  SN1r SC4eh  1 4.100000e-01    2.600000e+00
  SN1h SC3er  1 4.100000e-01    2.350000e+00
  SN1r SC3eh  1 4.100000e-01    2.350000e+00
  SN1h SC2er  1 4.100000e-01    2.200000e+00
  SN1r SC2eh  1 4.100000e-01    2.200000e+00
  SN1h SC1er  1 4.100000e-01    2.040000e+00
  SN1r SC1eh  1 4.100000e-01    2.040000e+00
  SN1h SX4er  1 4.100000e-01    2.600000e+00
  SN1r SX4eh  1 4.100000e-01    2.600000e+00
  SN1h SX3er  1 4.100000e-01    2.600000e+00
  SN1r SX3eh  1 4.100000e-01    2.600000e+00
  SN1h SX2er  1 4.100000e-01    2.350000e+00
  SN1r SX2eh  1 4.100000e-01    2.350000e+00
  SN1h SX1er  1 4.100000e-01    2.350000e+00
  SN1r SX1eh  1 4.100000e-01    2.350000e+00
  SP6a  SP6a  1 4.100000e-01    4.040000e+00
  SP6a  SP5a  1 4.100000e-01    3.820000e+00
  SP6a  SP4a  1 4.100000e-01    3.550000e+00
  SP6a  SP3a  1 4.100000e-01    3.310000e+00
  SP6a  SP2a  1 4.100000e-01    3.310000e+00
  SP6a  SP1a  1 4.100000e-01    3.070000e+00
  SP6a  SN6a  1 4.100000e-01    2.840000e+00
  SP6a  SN5a  1 4.100000e-01    2.350000e+00
  SP6a  SN4a  1 4.100000e-01    2.200000e+00
  SP6a  SN3a  1 4.100000e-01    2.200000e+00
  SP6a  SN2a  1 4.100000e-01    2.040000e+00
  SP6a  SN1a  1 4.100000e-01    1.910000e+00
  SP5a  SP5a  1 4.100000e-01    3.550000e+00
  SP5a  SP4a  1 4.100000e-01    3.310000e+00
  SP5a  SP3a  1 4.100000e-01    3.070000e+00
  SP5a  SP2a  1 4.100000e-01    3.070000e+00
  SP5a  SP1a  1 4.100000e-01    2.840000e+00
  SP5a  SN6a  1 4.100000e-01    2.600000e+00
  SP5a  SN5a  1 4.100000e-01    2.350000e+00
  SP5a  SN4a  1 4.100000e-01    2.350000e+00
  SP5a  SN3a  1 4.100000e-01    2.200000e+00
  SP5a  SN2a  1 4.100000e-01    2.040000e+00
  SP5a  SN1a  1 4.100000e-01    1.910000e+00
  SP4a  SP4a  1 4.100000e-01    3.310000e+00
  SP4a  SP3a  1 4.100000e-01    3.070000e+00
  SP4a  SP2a  1 4.100000e-01    3.070000e+00
  SP4a  SP1a  1 4.100000e-01    2.840000e+00
  SP4a  SN6a  1 4.100000e-01    2.600000e+00
  SP4a  SN5a  1 4.100000e-01    2.350000e+00
  SP4a  SN4a  1 4.100000e-01    2.350000e+00
  SP4a  SN3a  1 4.100000e-01    2.200000e+00
  SP4a  SN2a  1 4.100000e-01    2.200000e+00
  SP4a  SN1a  1 4.100000e-01    2.040000e+00
  SP3a  SP3a  1 4.100000e-01    3.070000e+00
  SP3a  SP2a  1 4.100000e-01    3.070000e+00
  SP3a  SP1a  1 4.100000e-01    2.840000e+00
  SP3a  SN6a  1 4.100000e-01    2.600000e+00
  SP3a  SN5a  1 4.100000e-01    2.350000e+00
  SP3a  SN4a  1 4.100000e-01    2.350000e+00
  SP3a  SN3a  1 4.100000e-01    2.200000e+00
  SP3a  SN2a  1 4.100000e-01    2.200000e+00
  SP3a  SN1a  1 4.100000e-01    2.200000e+00
  SP2a  SP2a  1 4.100000e-01    3.070000e+00
  SP2a  SP1a  1 4.100000e-01    2.840000e+00
  SP2a  SN6a  1 4.100000e-01    2.840000e+00
  SP2a  SN5a  1 4.100000e-01    2.600000e+00
  SP2a  SN4a  1 4.100000e-01    2.350000e+00
  SP2a  SN3a  1 4.100000e-01    2.200000e+00
  SP2a  SN2a  1 4.100000e-01    2.200000e+00
  SP2a  SN1a  1 4.100000e-01    2.200000e+00
  SP1a  SP1a  1 4.100000e-01    2.840000e+00
  SP1a  SN6a  1 4.100000e-01    2.840000e+00
  SP1a  SN5a  1 4.100000e-01    2.600000e+00
  SP1a  SN4a  1 4.100000e-01    2.600000e+00
  SP1a  SN3a  1 4.100000e-01    2.200000e+00
  SP1a  SN2a  1 4.100000e-01    2.200000e+00
  SP1a  SN1a  1 4.100000e-01    2.200000e+00
  SN6a  SN6a  1 4.100000e-01    2.840000e+00
  SN6a  SN5a  1 4.100000e-01    2.840000e+00
  SN6a  SN4a  1 4.100000e-01    2.840000e+00
  SN6a  SN3a  1 4.100000e-01    2.350000e+00
  SN6a  SN2a  1 4.100000e-01    2.200000e+00
  SN6a  SN1a  1 4.100000e-01    2.200000e+00
  SN5a  SN5a  1 4.100000e-01    2.600000e+00
  SN5a  SN4a  1 4.100000e-01    2.600000e+00
  SN5a  SN3a  1 4.100000e-01    2.350000e+00
  SN5a  SN2a  1 4.100000e-01    2.350000e+00
  SN5a  SN1a  1 4.100000e-01    2.200000e+00
  SN4a  SN4a  1 4.100000e-01    2.600000e+00
  SN4a  SN3a  1 4.100000e-01    2.350000e+00
  SN4a  SN2a  1 4.100000e-01    2.350000e+00
  SN4a  SN1a  1 4.100000e-01    2.200000e+00
  SN3a  SN3a  1 4.100000e-01    2.350000e+00
  SN3a  SN2a  1 4.100000e-01    2.350000e+00
  SN3a  SN1a  1 4.100000e-01    2.200000e+00
  SN2a  SN2a  1 4.100000e-01    2.350000e+00
  SN2a  SN1a  1 4.100000e-01    2.200000e+00
  SN1a  SN1a  1 4.100000e-01    2.350000e+00
  SP6d  SP6d  1 4.100000e-01    4.040000e+00
  SP6d  SP5d  1 4.100000e-01    3.820000e+00
  SP6d  SP4d  1 4.100000e-01    3.550000e+00
  SP6d  SP3d  1 4.100000e-01    3.310000e+00
  SP6d  SP2d  1 4.100000e-01    3.310000e+00
  SP6d  SP1d  1 4.100000e-01    3.070000e+00
  SP6d  SN6d  1 4.100000e-01    2.840000e+00
  SP6d  SN5d  1 4.100000e-01    2.350000e+00
  SP6d  SN4d  1 4.100000e-01    2.200000e+00
  SP6d  SN3d  1 4.100000e-01    2.200000e+00
  SP6d  SN2d  1 4.100000e-01    2.040000e+00
  SP6d  SN1d  1 4.100000e-01    1.910000e+00
  SP5d  SP5d  1 4.100000e-01    3.550000e+00
  SP5d  SP4d  1 4.100000e-01    3.310000e+00
  SP5d  SP3d  1 4.100000e-01    3.070000e+00
  SP5d  SP2d  1 4.100000e-01    3.070000e+00
  SP5d  SP1d  1 4.100000e-01    2.840000e+00
  SP5d  SN6d  1 4.100000e-01    2.600000e+00
  SP5d  SN5d  1 4.100000e-01    2.350000e+00
  SP5d  SN4d  1 4.100000e-01    2.350000e+00
  SP5d  SN3d  1 4.100000e-01    2.200000e+00
  SP5d  SN2d  1 4.100000e-01    2.040000e+00
  SP5d  SN1d  1 4.100000e-01    1.910000e+00
  SP4d  SP4d  1 4.100000e-01    3.310000e+00
  SP4d  SP3d  1 4.100000e-01    3.070000e+00
  SP4d  SP2d  1 4.100000e-01    3.070000e+00
  SP4d  SP1d  1 4.100000e-01    2.840000e+00
  SP4d  SN6d  1 4.100000e-01    2.600000e+00
  SP4d  SN5d  1 4.100000e-01    2.350000e+00
  SP4d  SN4d  1 4.100000e-01    2.350000e+00
  SP4d  SN3d  1 4.100000e-01    2.200000e+00
  SP4d  SN2d  1 4.100000e-01    2.200000e+00
  SP4d  SN1d  1 4.100000e-01    2.040000e+00
  SP3d  SP3d  1 4.100000e-01    3.070000e+00
  SP3d  SP2d  1 4.100000e-01    3.070000e+00
  SP3d  SP1d  1 4.100000e-01    2.840000e+00
  SP3d  SN6d  1 4.100000e-01    2.600000e+00
  SP3d  SN5d  1 4.100000e-01    2.350000e+00
  SP3d  SN4d  1 4.100000e-01    2.350000e+00
  SP3d  SN3d  1 4.100000e-01    2.200000e+00
  SP3d  SN2d  1 4.100000e-01    2.200000e+00
  SP3d  SN1d  1 4.100000e-01    2.200000e+00
  SP2d  SP2d  1 4.100000e-01    3.070000e+00
  SP2d  SP1d  1 4.100000e-01    2.840000e+00
  SP2d  SN6d  1 4.100000e-01    2.840000e+00
  SP2d  SN5d  1 4.100000e-01    2.600000e+00
  SP2d  SN4d  1 4.100000e-01    2.350000e+00
  SP2d  SN3d  1 4.100000e-01    2.200000e+00
  SP2d  SN2d  1 4.100000e-01    2.200000e+00
  SP2d  SN1d  1 4.100000e-01    2.200000e+00
  SP1d  SP1d  1 4.100000e-01    2.840000e+00
  SP1d  SN6d  1 4.100000e-01    2.840000e+00
  SP1d  SN5d  1 4.100000e-01    2.600000e+00
  SP1d  SN4d  1 4.100000e-01    2.600000e+00
  SP1d  SN3d  1 4.100000e-01    2.200000e+00
  SP1d  SN2d  1 4.100000e-01    2.200000e+00
  SP1d  SN1d  1 4.100000e-01    2.200000e+00
  SN6d  SN6d  1 4.100000e-01    2.840000e+00
  SN6d  SN5d  1 4.100000e-01    2.840000e+00
  SN6d  SN4d  1 4.100000e-01    2.840000e+00
  SN6d  SN3d  1 4.100000e-01    2.350000e+00
  SN6d  SN2d  1 4.100000e-01    2.200000e+00
  SN6d  SN1d  1 4.100000e-01    2.200000e+00
  SN5d  SN5d  1 4.100000e-01    2.600000e+00
  SN5d  SN4d  1 4.100000e-01    2.600000e+00
  SN5d  SN3d  1 4.100000e-01    2.350000e+00
  SN5d  SN2d  1 4.100000e-01    2.350000e+00
  SN5d  SN1d  1 4.100000e-01    2.200000e+00
  SN4d  SN4d  1 4.100000e-01    2.600000e+00
  SN4d  SN3d  1 4.100000e-01    2.350000e+00
  SN4d  SN2d  1 4.100000e-01    2.350000e+00
  SN4d  SN1d  1 4.100000e-01    2.200000e+00
  SN3d  SN3d  1 4.100000e-01    2.350000e+00
  SN3d  SN2d  1 4.100000e-01    2.350000e+00
  SN3d  SN1d  1 4.100000e-01    2.200000e+00
  SN2d  SN2d  1 4.100000e-01    2.350000e+00
  SN2d  SN1d  1 4.100000e-01    2.200000e+00
  SN1d  SN1d  1 4.100000e-01    2.350000e+00
  SP6d  SP6a  1 4.100000e-01    4.550000e+00
  SP6d  SP5a  1 4.100000e-01    4.290000e+00
  SP6a  SP5d  1 4.100000e-01    4.290000e+00
  SP6d  SP4a  1 4.100000e-01    4.040000e+00
  SP6a  SP4d  1 4.100000e-01    4.040000e+00
  SP6d  SP3a  1 4.100000e-01    3.820000e+00
  SP6a  SP3d  1 4.100000e-01    3.820000e+00
  SP6d  SP2a  1 4.100000e-01    3.820000e+00
  SP6a  SP2d  1 4.100000e-01    3.820000e+00
  SP6d  SP1a  1 4.100000e-01    3.550000e+00
  SP6a  SP1d  1 4.100000e-01    3.550000e+00
  SP6d  SN6a  1 4.100000e-01    3.310000e+00
  SP6a  SN6d  1 4.100000e-01    3.310000e+00
  SP6d  SN5a  1 4.100000e-01    2.840000e+00
  SP6a  SN5d  1 4.100000e-01    2.840000e+00
  SP6d  SN4a  1 4.100000e-01    2.600000e+00
  SP6a  SN4d  1 4.100000e-01    2.600000e+00
  SP6d  SN3a  1 4.100000e-01    2.200000e+00
  SP6a  SN3d  1 4.100000e-01    2.200000e+00
  SP6d  SN2a  1 4.100000e-01    2.040000e+00
  SP6a  SN2d  1 4.100000e-01    2.040000e+00
  SP6d  SN1a  1 4.100000e-01    1.910000e+00
  SP6a  SN1d  1 4.100000e-01    1.910000e+00
  SP5d  SP5a  1 4.100000e-01    4.040000e+00
  SP5d  SP4a  1 4.100000e-01    3.820000e+00
  SP5a  SP4d  1 4.100000e-01    3.820000e+00
  SP5d  SP3a  1 4.100000e-01    3.550000e+00
  SP5a  SP3d  1 4.100000e-01    3.550000e+00
  SP5d  SP2a  1 4.100000e-01    3.550000e+00
  SP5a  SP2d  1 4.100000e-01    3.550000e+00
  SP5d  SP1a  1 4.100000e-01    3.310000e+00
  SP5a  SP1d  1 4.100000e-01    3.310000e+00
  SP5d  SN6a  1 4.100000e-01    3.070000e+00
  SP5a  SN6d  1 4.100000e-01    3.070000e+00
  SP5d  SN5a  1 4.100000e-01    2.840000e+00
  SP5a  SN5d  1 4.100000e-01    2.840000e+00
  SP5d  SN4a  1 4.100000e-01    2.840000e+00
  SP5a  SN4d  1 4.100000e-01    2.840000e+00
  SP5d  SN3a  1 4.100000e-01    2.200000e+00
  SP5a  SN3d  1 4.100000e-01    2.200000e+00
  SP5d  SN2a  1 4.100000e-01    2.040000e+00
  SP5a  SN2d  1 4.100000e-01    2.040000e+00
  SP5d  SN1a  1 4.100000e-01    1.910000e+00
  SP5a  SN1d  1 4.100000e-01    1.910000e+00
  SP4d  SP4a  1 4.100000e-01    3.820000e+00
  SP4d  SP3a  1 4.100000e-01    3.550000e+00
  SP4a  SP3d  1 4.100000e-01    3.550000e+00
  SP4d  SP2a  1 4.100000e-01    3.550000e+00
  SP4a  SP2d  1 4.100000e-01    3.550000e+00
  SP4d  SP1a  1 4.100000e-01    3.310000e+00
  SP4a  SP1d  1 4.100000e-01    3.310000e+00
  SP4d  SN6a  1 4.100000e-01    3.070000e+00
  SP4a  SN6d  1 4.100000e-01    3.070000e+00
  SP4d  SN5a  1 4.100000e-01    2.840000e+00
  SP4a  SN5d  1 4.100000e-01    2.840000e+00
  SP4d  SN4a  1 4.100000e-01    2.840000e+00
  SP4a  SN4d  1 4.100000e-01    2.840000e+00
  SP4d  SN3a  1 4.100000e-01    2.600000e+00
  SP4a  SN3d  1 4.100000e-01    2.600000e+00
  SP4d  SN2a  1 4.100000e-01    2.200000e+00
  SP4a  SN2d  1 4.100000e-01    2.200000e+00
  SP4d  SN1a  1 4.100000e-01    2.040000e+00
  SP4a  SN1d  1 4.100000e-01    2.040000e+00
  SP3d  SP3a  1 4.100000e-01    3.550000e+00
  SP3d  SP2a  1 4.100000e-01    3.550000e+00
  SP3a  SP2d  1 4.100000e-01    3.550000e+00
  SP3d  SP1a  1 4.100000e-01    3.310000e+00
  SP3a  SP1d  1 4.100000e-01    3.310000e+00
  SP3d  SN6a  1 4.100000e-01    3.070000e+00
  SP3a  SN6d  1 4.100000e-01    3.070000e+00
  SP3d  SN5a  1 4.100000e-01    2.840000e+00
  SP3a  SN5d  1 4.100000e-01    2.840000e+00
  SP3d  SN4a  1 4.100000e-01    2.840000e+00
  SP3a  SN4d  1 4.100000e-01    2.840000e+00
  SP3d  SN3a  1 4.100000e-01    2.600000e+00
  SP3a  SN3d  1 4.100000e-01    2.600000e+00
  SP3d  SN2a  1 4.100000e-01    2.600000e+00
  SP3a  SN2d  1 4.100000e-01    2.600000e+00
  SP3d  SN1a  1 4.100000e-01    2.200000e+00
  SP3a  SN1d  1 4.100000e-01    2.200000e+00
  SP2d  SP2a  1 4.100000e-01    3.550000e+00
  SP2d  SP1a  1 4.100000e-01    3.310000e+00
  SP2a  SP1d  1 4.100000e-01    3.310000e+00
  SP2d  SN6a  1 4.100000e-01    3.310000e+00
  SP2a  SN6d  1 4.100000e-01    3.310000e+00
  SP2d  SN5a  1 4.100000e-01    3.070000e+00
  SP2a  SN5d  1 4.100000e-01    3.070000e+00
  SP2d  SN4a  1 4.100000e-01    2.840000e+00
  SP2a  SN4d  1 4.100000e-01    2.840000e+00
  SP2d  SN3a  1 4.100000e-01    2.600000e+00
  SP2a  SN3d  1 4.100000e-01    2.600000e+00
  SP2d  SN2a  1 4.100000e-01    2.600000e+00
  SP2a  SN2d  1 4.100000e-01    2.600000e+00
  SP2d  SN1a  1 4.100000e-01    2.600000e+00
  SP2a  SN1d  1 4.100000e-01    2.600000e+00
  SP1d  SP1a  1 4.100000e-01    3.310000e+00
  SP1d  SN6a  1 4.100000e-01    3.310000e+00
  SP1a  SN6d  1 4.100000e-01    3.310000e+00
  SP1d  SN5a  1 4.100000e-01    3.070000e+00
  SP1a  SN5d  1 4.100000e-01    3.070000e+00
  SP1d  SN4a  1 4.100000e-01    3.070000e+00
  SP1a  SN4d  1 4.100000e-01    3.070000e+00
  SP1d  SN3a  1 4.100000e-01    2.600000e+00
  SP1a  SN3d  1 4.100000e-01    2.600000e+00
  SP1d  SN2a  1 4.100000e-01    2.600000e+00
  SP1a  SN2d  1 4.100000e-01    2.600000e+00
  SP1d  SN1a  1 4.100000e-01    2.600000e+00
  SP1a  SN1d  1 4.100000e-01    2.600000e+00
  SN6d  SN6a  1 4.100000e-01    3.310000e+00
  SN6d  SN5a  1 4.100000e-01    3.310000e+00
  SN6a  SN5d  1 4.100000e-01    3.310000e+00
  SN6d  SN4a  1 4.100000e-01    3.310000e+00
  SN6a  SN4d  1 4.100000e-01    3.310000e+00
  SN6d  SN3a  1 4.100000e-01    2.840000e+00
  SN6a  SN3d  1 4.100000e-01    2.840000e+00
  SN6d  SN2a  1 4.100000e-01    2.600000e+00
  SN6a  SN2d  1 4.100000e-01    2.600000e+00
  SN6d  SN1a  1 4.100000e-01    2.600000e+00
  SN6a  SN1d  1 4.100000e-01    2.600000e+00
  SN5d  SN5a  1 4.100000e-01    3.070000e+00
  SN5d  SN4a  1 4.100000e-01    3.070000e+00
  SN5a  SN4d  1 4.100000e-01    3.070000e+00
  SN5d  SN3a  1 4.100000e-01    2.840000e+00
  SN5a  SN3d  1 4.100000e-01    2.840000e+00
  SN5d  SN2a  1 4.100000e-01    2.840000e+00
  SN5a  SN2d  1 4.100000e-01    2.840000e+00
  SN5d  SN1a  1 4.100000e-01    2.600000e+00
  SN5a  SN1d  1 4.100000e-01    2.600000e+00
  SN4d  SN4a  1 4.100000e-01    3.070000e+00
  SN4d  SN3a  1 4.100000e-01    2.840000e+00
  SN4a  SN3d  1 4.100000e-01    2.840000e+00
  SN4d  SN2a  1 4.100000e-01    2.840000e+00
  SN4a  SN2d  1 4.100000e-01    2.840000e+00
  SN4d  SN1a  1 4.100000e-01    2.600000e+00
  SN4a  SN1d  1 4.100000e-01    2.600000e+00
  SN3d  SN3a  1 4.100000e-01    2.840000e+00
  SN3d  SN2a  1 4.100000e-01    2.840000e+00
  SN3a  SN2d  1 4.100000e-01    2.840000e+00
  SN3d  SN1a  1 4.100000e-01    2.600000e+00
  SN3a  SN1d  1 4.100000e-01    2.600000e+00
  SN2d  SN2a  1 4.100000e-01    2.840000e+00
  SN2d  SN1a  1 4.100000e-01    2.600000e+00
  SN2a  SN1d  1 4.100000e-01    2.600000e+00
  SN1d  SN1a  1 4.100000e-01    2.840000e+00
  SC6v  SC6v  1 4.100000e-01    2.350000e+00
  SC6v  SC5v  1 4.100000e-01    2.200000e+00
  SC6v  SC4v  1 4.100000e-01    2.200000e+00
  SC6v  SC3v  1 4.100000e-01    2.040000e+00
  SC6v  SC2v  1 4.100000e-01    1.910000e+00
  SC6v  SC1v  1 4.100000e-01    1.750000e+00
  SC6v  SX4v  1 4.100000e-01    2.200000e+00
  SC6v  SX3v  1 4.100000e-01    2.200000e+00
  SC6v  SX2v  1 4.100000e-01    2.200000e+00
  SC6v  SX1v  1 4.100000e-01    2.200000e+00
  SC5v  SC5v  1 4.100000e-01    2.200000e+00
  SC5v  SC4v  1 4.100000e-01    2.200000e+00
  SC5v  SC3v  1 4.100000e-01    2.040000e+00
  SC5v  SC2v  1 4.100000e-01    1.910000e+00
  SC5v  SC1v  1 4.100000e-01    1.910000e+00
  SC5v  SX4v  1 4.100000e-01    2.040000e+00
  SC5v  SX3v  1 4.100000e-01    2.040000e+00
  SC5v  SX2v  1 4.100000e-01    2.040000e+00
  SC5v  SX1v  1 4.100000e-01    2.200000e+00
  SC4v  SC4v  1 4.100000e-01    2.200000e+00
  SC4v  SC3v  1 4.100000e-01    2.200000e+00
  SC4v  SC2v  1 4.100000e-01    2.040000e+00
  SC4v  SC1v  1 4.100000e-01    1.910000e+00
  SC4v  SX4v  1 4.100000e-01    2.040000e+00
  SC4v  SX3v  1 4.100000e-01    2.040000e+00
  SC4v  SX2v  1 4.100000e-01    2.040000e+00
  SC4v  SX1v  1 4.100000e-01    2.200000e+00
  SC3v  SC3v  1 4.100000e-01    2.200000e+00
  SC3v  SC2v  1 4.100000e-01    2.200000e+00
  SC3v  SC1v  1 4.100000e-01    2.200000e+00
  SC3v  SX4v  1 4.100000e-01    2.040000e+00
  SC3v  SX3v  1 4.100000e-01    2.040000e+00
  SC3v  SX2v  1 4.100000e-01    2.040000e+00
  SC3v  SX1v  1 4.100000e-01    2.200000e+00
  SC2v  SC2v  1 4.100000e-01    2.200000e+00
  SC2v  SC1v  1 4.100000e-01    2.350000e+00
  SC2v  SX4v  1 4.100000e-01    1.750000e+00
  SC2v  SX3v  1 4.100000e-01    2.040000e+00
  SC2v  SX2v  1 4.100000e-01    2.040000e+00
  SC2v  SX1v  1 4.100000e-01    2.040000e+00
  SC1v  SC1v  1 4.100000e-01    2.200000e+00
  SC1v  SX4v  1 4.100000e-01    1.750000e+00
  SC1v  SX3v  1 4.100000e-01    2.040000e+00
  SC1v  SX2v  1 4.100000e-01    2.040000e+00
  SC1v  SX1v  1 4.100000e-01    2.040000e+00
  SX4v  SX4v  1 4.100000e-01    2.200000e+00
  SX4v  SX3v  1 4.100000e-01    2.200000e+00
  SX4v  SX2v  1 4.100000e-01    2.200000e+00
  SX4v  SX1v  1 4.100000e-01    2.200000e+00
  SX3v  SX3v  1 4.100000e-01    2.200000e+00
  SX3v  SX2v  1 4.100000e-01    2.350000e+00
  SX3v  SX1v  1 4.100000e-01    2.350000e+00
  SX2v  SX2v  1 4.100000e-01    2.350000e+00
  SX2v  SX1v  1 4.100000e-01    2.350000e+00
  SX1v  SX1v  1 4.100000e-01    2.600000e+00
  SC6e  SC6e  1 4.100000e-01    2.350000e+00
  SC6e  SC5e  1 4.100000e-01    2.200000e+00
  SC6e  SC4e  1 4.100000e-01    2.200000e+00
  SC6e  SC3e  1 4.100000e-01    2.040000e+00
  SC6e  SC2e  1 4.100000e-01    1.910000e+00
  SC6e  SC1e  1 4.100000e-01    1.750000e+00
  SC6e  SX4e  1 4.100000e-01    2.200000e+00
  SC6e  SX3e  1 4.100000e-01    2.200000e+00
  SC6e  SX2e  1 4.100000e-01    2.200000e+00
  SC6e  SX1e  1 4.100000e-01    2.200000e+00
  SC5e  SC5e  1 4.100000e-01    2.200000e+00
  SC5e  SC4e  1 4.100000e-01    2.200000e+00
  SC5e  SC3e  1 4.100000e-01    2.040000e+00
  SC5e  SC2e  1 4.100000e-01    1.910000e+00
  SC5e  SC1e  1 4.100000e-01    1.910000e+00
  SC5e  SX4e  1 4.100000e-01    2.040000e+00
  SC5e  SX3e  1 4.100000e-01    2.040000e+00
  SC5e  SX2e  1 4.100000e-01    2.040000e+00
  SC5e  SX1e  1 4.100000e-01    2.200000e+00
  SC4e  SC4e  1 4.100000e-01    2.200000e+00
  SC4e  SC3e  1 4.100000e-01    2.200000e+00
  SC4e  SC2e  1 4.100000e-01    2.040000e+00
  SC4e  SC1e  1 4.100000e-01    1.910000e+00
  SC4e  SX4e  1 4.100000e-01    2.040000e+00
  SC4e  SX3e  1 4.100000e-01    2.040000e+00
  SC4e  SX2e  1 4.100000e-01    2.040000e+00
  SC4e  SX1e  1 4.100000e-01    2.200000e+00
  SC3e  SC3e  1 4.100000e-01    2.200000e+00
  SC3e  SC2e  1 4.100000e-01    2.200000e+00
  SC3e  SC1e  1 4.100000e-01    2.200000e+00
  SC3e  SX4e  1 4.100000e-01    2.040000e+00
  SC3e  SX3e  1 4.100000e-01    2.040000e+00
  SC3e  SX2e  1 4.100000e-01    2.040000e+00
  SC3e  SX1e  1 4.100000e-01    2.200000e+00
  SC2e  SC2e  1 4.100000e-01    2.200000e+00
  SC2e  SC1e  1 4.100000e-01    2.350000e+00
  SC2e  SX4e  1 4.100000e-01    1.750000e+00
  SC2e  SX3e  1 4.100000e-01    2.040000e+00
  SC2e  SX2e  1 4.100000e-01    2.040000e+00
  SC2e  SX1e  1 4.100000e-01    2.040000e+00
  SC1e  SC1e  1 4.100000e-01    2.200000e+00
  SC1e  SX4e  1 4.100000e-01    1.750000e+00
  SC1e  SX3e  1 4.100000e-01    2.040000e+00
  SC1e  SX2e  1 4.100000e-01    2.040000e+00
  SC1e  SX1e  1 4.100000e-01    2.040000e+00
  SX4e  SX4e  1 4.100000e-01    2.200000e+00
  SX4e  SX3e  1 4.100000e-01    2.200000e+00
  SX4e  SX2e  1 4.100000e-01    2.200000e+00
  SX4e  SX1e  1 4.100000e-01    2.200000e+00
  SX3e  SX3e  1 4.100000e-01    2.200000e+00
  SX3e  SX2e  1 4.100000e-01    2.350000e+00
  SX3e  SX1e  1 4.100000e-01    2.350000e+00
  SX2e  SX2e  1 4.100000e-01    2.350000e+00
  SX2e  SX1e  1 4.100000e-01    2.350000e+00
  SX1e  SX1e  1 4.100000e-01    2.600000e+00
  SC6v  SC6e  1 4.100000e-01    3.070000e+00
  SC6v  SC5e  1 4.100000e-01    2.840000e+00
  SC6e  SC5v  1 4.100000e-01    2.840000e+00
  SC6v  SC4e  1 4.100000e-01    2.840000e+00
  SC6e  SC4v  1 4.100000e-01    2.840000e+00
  SC6v  SC3e  1 4.100000e-01    2.600000e+00
  SC6e  SC3v  1 4.100000e-01    2.600000e+00
  SC6v  SC2e  1 4.100000e-01    2.350000e+00
  SC6e  SC2v  1 4.100000e-01    2.350000e+00
  SC6v  SC1e  1 4.100000e-01    2.200000e+00
  SC6e  SC1v  1 4.100000e-01    2.200000e+00
  SC6v  SX4e  1 4.100000e-01    2.840000e+00
  SC6e  SX4v  1 4.100000e-01    2.840000e+00
  SC6v  SX3e  1 4.100000e-01    2.840000e+00
  SC6e  SX3v  1 4.100000e-01    2.840000e+00
  SC6v  SX2e  1 4.100000e-01    2.840000e+00
  SC6e  SX2v  1 4.100000e-01    2.840000e+00
  SC6v  SX1e  1 4.100000e-01    2.840000e+00
  SC6e  SX1v  1 4.100000e-01    2.840000e+00
  SC5v  SC5e  1 4.100000e-01    2.840000e+00
  SC5v  SC4e  1 4.100000e-01    2.840000e+00
  SC5e  SC4v  1 4.100000e-01    2.840000e+00
  SC5v  SC3e  1 4.100000e-01    2.600000e+00
  SC5e  SC3v  1 4.100000e-01    2.600000e+00
  SC5v  SC2e  1 4.100000e-01    2.350000e+00
  SC5e  SC2v  1 4.100000e-01    2.350000e+00
  SC5v  SC1e  1 4.100000e-01    2.350000e+00
  SC5e  SC1v  1 4.100000e-01    2.350000e+00
  SC5v  SX4e  1 4.100000e-01    2.600000e+00
  SC5e  SX4v  1 4.100000e-01    2.600000e+00
  SC5v  SX3e  1 4.100000e-01    2.600000e+00
  SC5e  SX3v  1 4.100000e-01    2.600000e+00
  SC5v  SX2e  1 4.100000e-01    2.600000e+00
  SC5e  SX2v  1 4.100000e-01    2.600000e+00
  SC5v  SX1e  1 4.100000e-01    2.840000e+00
  SC5e  SX1v  1 4.100000e-01    2.840000e+00
  SC4v  SC4e  1 4.100000e-01    2.840000e+00
  SC4v  SC3e  1 4.100000e-01    2.840000e+00
  SC4e  SC3v  1 4.100000e-01    2.840000e+00
  SC4v  SC2e  1 4.100000e-01    2.600000e+00
  SC4e  SC2v  1 4.100000e-01    2.600000e+00
  SC4v  SC1e  1 4.100000e-01    2.350000e+00
  SC4e  SC1v  1 4.100000e-01    2.350000e+00
  SC4v  SX4e  1 4.100000e-01    2.600000e+00
  SC4e  SX4v  1 4.100000e-01    2.600000e+00
  SC4v  SX3e  1 4.100000e-01    2.600000e+00
  SC4e  SX3v  1 4.100000e-01    2.600000e+00
  SC4v  SX2e  1 4.100000e-01    2.600000e+00
  SC4e  SX2v  1 4.100000e-01    2.600000e+00
  SC4v  SX1e  1 4.100000e-01    2.840000e+00
  SC4e  SX1v  1 4.100000e-01    2.840000e+00
  SC3v  SC3e  1 4.100000e-01    2.840000e+00
  SC3v  SC2e  1 4.100000e-01    2.840000e+00
  SC3e  SC2v  1 4.100000e-01    2.840000e+00
  SC3v  SC1e  1 4.100000e-01    2.840000e+00
  SC3e  SC1v  1 4.100000e-01    2.840000e+00
  SC3v  SX4e  1 4.100000e-01    2.600000e+00
  SC3e  SX4v  1 4.100000e-01    2.600000e+00
  SC3v  SX3e  1 4.100000e-01    2.600000e+00
  SC3e  SX3v  1 4.100000e-01    2.600000e+00
  SC3v  SX2e  1 4.100000e-01    2.600000e+00
  SC3e  SX2v  1 4.100000e-01    2.600000e+00
  SC3v  SX1e  1 4.100000e-01    2.840000e+00
  SC3e  SX1v  1 4.100000e-01    2.840000e+00
  SC2v  SC2e  1 4.100000e-01    2.840000e+00
  SC2v  SC1e  1 4.100000e-01    3.070000e+00
  SC2e  SC1v  1 4.100000e-01    3.070000e+00
  SC2v  SX4e  1 4.100000e-01    2.200000e+00
  SC2e  SX4v  1 4.100000e-01    2.200000e+00
  SC2v  SX3e  1 4.100000e-01    2.600000e+00
  SC2e  SX3v  1 4.100000e-01    2.600000e+00
  SC2v  SX2e  1 4.100000e-01    2.600000e+00
  SC2e  SX2v  1 4.100000e-01    2.600000e+00
  SC2v  SX1e  1 4.100000e-01    2.600000e+00
  SC2e  SX1v  1 4.100000e-01    2.600000e+00
  SC1v  SC1e  1 4.100000e-01    2.840000e+00
  SC1v  SX4e  1 4.100000e-01    2.200000e+00
  SC1e  SX4v  1 4.100000e-01    2.200000e+00
  SC1v  SX3e  1 4.100000e-01    2.600000e+00
  SC1e  SX3v  1 4.100000e-01    2.600000e+00
  SC1v  SX2e  1 4.100000e-01    2.600000e+00
  SC1e  SX2v  1 4.100000e-01    2.600000e+00
  SC1v  SX1e  1 4.100000e-01    2.600000e+00
  SC1e  SX1v  1 4.100000e-01    2.600000e+00
  SX4v  SX4e  1 4.100000e-01    2.840000e+00
  SX4v  SX3e  1 4.100000e-01    2.840000e+00
  SX4e  SX3v  1 4.100000e-01    2.840000e+00
  SX4v  SX2e  1 4.100000e-01    2.840000e+00
  SX4e  SX2v  1 4.100000e-01    2.840000e+00
  SX4v  SX1e  1 4.100000e-01    2.840000e+00
  SX4e  SX1v  1 4.100000e-01    2.840000e+00
  SX3v  SX3e  1 4.100000e-01    2.840000e+00
  SX3v  SX2e  1 4.100000e-01    3.070000e+00
  SX3e  SX2v  1 4.100000e-01    3.070000e+00
  SX3v  SX1e  1 4.100000e-01    3.070000e+00
  SX3e  SX1v  1 4.100000e-01    3.070000e+00
  SX2v  SX2e  1 4.100000e-01    3.070000e+00
  SX2v  SX1e  1 4.100000e-01    3.070000e+00
  SX2e  SX1v  1 4.100000e-01    3.070000e+00
  SX1v  SX1e  1 4.100000e-01    3.310000e+00
  SP6d  SC6e  1 4.100000e-01    2.040000e+00
  SP6d  SC5e  1 4.100000e-01    1.910000e+00
  SP6d  SC4e  1 4.100000e-01    1.750000e+00
  SP6d  SC3e  1 4.140000e-01    1.560000e+00
  SP6d  SC2e  1 4.140000e-01    1.560000e+00
  SP6d  SC1e  1 4.210000e-01    1.250000e+00
  SP6d  SX4e  1 4.100000e-01    2.200000e+00
  SP6d  SX3e  1 4.100000e-01    2.200000e+00
  SP6d  SX2e  1 4.100000e-01    2.040000e+00
  SP6d  SX1e  1 4.100000e-01    1.910000e+00
  SP5d  SC6e  1 4.100000e-01    2.040000e+00
  SP5d  SC5e  1 4.100000e-01    2.040000e+00
  SP5d  SC4e  1 4.100000e-01    1.910000e+00
  SP5d  SC3e  1 4.100000e-01    1.750000e+00
  SP5d  SC2e  1 4.100000e-01    1.750000e+00
  SP5d  SC1e  1 4.140000e-01    1.560000e+00
  SP5d  SX4e  1 4.100000e-01    2.350000e+00
  SP5d  SX3e  1 4.100000e-01    2.200000e+00
  SP5d  SX2e  1 4.100000e-01    2.200000e+00
  SP5d  SX1e  1 4.100000e-01    1.910000e+00
  SP4d  SC6e  1 4.100000e-01    2.200000e+00
  SP4d  SC5e  1 4.100000e-01    2.040000e+00
  SP4d  SC4e  1 4.100000e-01    1.910000e+00
  SP4d  SC3e  1 4.100000e-01    1.750000e+00
  SP4d  SC2e  1 4.100000e-01    1.750000e+00
  SP4d  SC1e  1 4.140000e-01    1.560000e+00
  SP4d  SX4e  1 4.100000e-01    2.350000e+00
  SP4d  SX3e  1 4.100000e-01    2.200000e+00
  SP4d  SX2e  1 4.100000e-01    2.200000e+00
  SP4d  SX1e  1 4.100000e-01    2.040000e+00
  SP3d  SC6e  1 4.100000e-01    2.350000e+00
  SP3d  SC5e  1 4.100000e-01    2.200000e+00
  SP3d  SC4e  1 4.100000e-01    2.040000e+00
  SP3d  SC3e  1 4.100000e-01    1.750000e+00
  SP3d  SC2e  1 4.100000e-01    1.750000e+00
  SP3d  SC1e  1 4.140000e-01    1.560000e+00
  SP3d  SX4e  1 4.100000e-01    2.350000e+00
  SP3d  SX3e  1 4.100000e-01    2.350000e+00
  SP3d  SX2e  1 4.100000e-01    2.200000e+00
  SP3d  SX1e  1 4.100000e-01    2.040000e+00
  SP2d  SC6e  1 4.100000e-01    2.350000e+00
  SP2d  SC5e  1 4.100000e-01    2.200000e+00
  SP2d  SC4e  1 4.100000e-01    2.040000e+00
  SP2d  SC3e  1 4.100000e-01    1.910000e+00
  SP2d  SC2e  1 4.100000e-01    1.910000e+00
  SP2d  SC1e  1 4.100000e-01    1.750000e+00
  SP2d  SX4e  1 4.100000e-01    2.350000e+00
  SP2d  SX3e  1 4.100000e-01    2.350000e+00
  SP2d  SX2e  1 4.100000e-01    2.200000e+00
  SP2d  SX1e  1 4.100000e-01    2.040000e+00
  SP1d  SC6e  1 4.100000e-01    2.350000e+00
  SP1d  SC5e  1 4.100000e-01    2.200000e+00
  SP1d  SC4e  1 4.100000e-01    2.040000e+00
  SP1d  SC3e  1 4.100000e-01    1.910000e+00
  SP1d  SC2e  1 4.100000e-01    1.910000e+00
  SP1d  SC1e  1 4.100000e-01    1.750000e+00
  SP1d  SX4e  1 4.100000e-01    2.350000e+00
  SP1d  SX3e  1 4.100000e-01    2.350000e+00
  SP1d  SX2e  1 4.100000e-01    2.200000e+00
  SP1d  SX1e  1 4.100000e-01    2.040000e+00
  SN6d  SC6e  1 4.100000e-01    2.600000e+00
  SN6d  SC5e  1 4.100000e-01    2.350000e+00
  SN6d  SC4e  1 4.100000e-01    2.200000e+00
  SN6d  SC3e  1 4.100000e-01    2.040000e+00
  SN6d  SC2e  1 4.100000e-01    2.040000e+00
  SN6d  SC1e  1 4.100000e-01    1.910000e+00
  SN6d  SX4e  1 4.100000e-01    2.600000e+00
  SN6d  SX3e  1 4.100000e-01    2.350000e+00
  SN6d  SX2e  1 4.100000e-01    2.200000e+00
  SN6d  SX1e  1 4.100000e-01    2.040000e+00
  SN5d  SC6e  1 4.100000e-01    2.600000e+00
  SN5d  SC5e  1 4.100000e-01    2.350000e+00
  SN5d  SC4e  1 4.100000e-01    2.200000e+00
  SN5d  SC3e  1 4.100000e-01    2.200000e+00
  SN5d  SC2e  1 4.100000e-01    2.040000e+00
  SN5d  SC1e  1 4.100000e-01    1.910000e+00
  SN5d  SX4e  1 4.100000e-01    2.840000e+00
  SN5d  SX3e  1 4.100000e-01    2.600000e+00
  SN5d  SX2e  1 4.100000e-01    2.350000e+00
  SN5d  SX1e  1 4.100000e-01    2.200000e+00
  SN4d  SC6e  1 4.100000e-01    2.600000e+00
  SN4d  SC5e  1 4.100000e-01    2.350000e+00
  SN4d  SC4e  1 4.100000e-01    2.350000e+00
  SN4d  SC3e  1 4.100000e-01    2.200000e+00
  SN4d  SC2e  1 4.100000e-01    2.040000e+00
  SN4d  SC1e  1 4.100000e-01    1.910000e+00
  SN4d  SX4e  1 4.100000e-01    3.070000e+00
  SN4d  SX3e  1 4.100000e-01    2.840000e+00
  SN4d  SX2e  1 4.100000e-01    2.350000e+00
  SN4d  SX1e  1 4.100000e-01    2.200000e+00
  SN3d  SC6e  1 4.100000e-01    2.600000e+00
  SN3d  SC5e  1 4.100000e-01    2.350000e+00
  SN3d  SC4e  1 4.100000e-01    2.350000e+00
  SN3d  SC3e  1 4.100000e-01    2.200000e+00
  SN3d  SC2e  1 4.100000e-01    2.200000e+00
  SN3d  SC1e  1 4.100000e-01    2.040000e+00
  SN3d  SX4e  1 4.100000e-01    2.840000e+00
  SN3d  SX3e  1 4.100000e-01    2.600000e+00
  SN3d  SX2e  1 4.100000e-01    2.350000e+00
  SN3d  SX1e  1 4.100000e-01    2.350000e+00
  SN2d  SC6e  1 4.100000e-01    2.600000e+00
  SN2d  SC5e  1 4.100000e-01    2.350000e+00
  SN2d  SC4e  1 4.100000e-01    2.350000e+00
  SN2d  SC3e  1 4.100000e-01    2.350000e+00
  SN2d  SC2e  1 4.100000e-01    2.200000e+00
  SN2d  SC1e  1 4.100000e-01    2.040000e+00
  SN2d  SX4e  1 4.100000e-01    2.840000e+00
  SN2d  SX3e  1 4.100000e-01    2.600000e+00
  SN2d  SX2e  1 4.100000e-01    2.350000e+00
  SN2d  SX1e  1 4.100000e-01    2.350000e+00
  SN1d  SC6e  1 4.100000e-01    2.840000e+00
  SN1d  SC5e  1 4.100000e-01    2.600000e+00
  SN1d  SC4e  1 4.100000e-01    2.600000e+00
  SN1d  SC3e  1 4.100000e-01    2.350000e+00
  SN1d  SC2e  1 4.100000e-01    2.200000e+00
  SN1d  SC1e  1 4.100000e-01    2.040000e+00
  SN1d  SX4e  1 4.100000e-01    2.600000e+00
  SN1d  SX3e  1 4.100000e-01    2.600000e+00
  SN1d  SX2e  1 4.100000e-01    2.350000e+00
  SN1d  SX1e  1 4.100000e-01    2.350000e+00
  SP6a  SC6v  1 4.100000e-01    2.040000e+00
  SP6a  SC5v  1 4.100000e-01    1.910000e+00
  SP6a  SC4v  1 4.100000e-01    1.750000e+00
  SP6a  SC3v  1 4.140000e-01    1.560000e+00
  SP6a  SC2v  1 4.140000e-01    1.560000e+00
  SP6a  SC1v  1 4.210000e-01    1.250000e+00
  SP6a  SX4v  1 4.100000e-01    2.200000e+00
  SP6a  SX3v  1 4.100000e-01    2.200000e+00
  SP6a  SX2v  1 4.100000e-01    2.040000e+00
  SP6a  SX1v  1 4.100000e-01    1.910000e+00
  SP5a  SC6v  1 4.100000e-01    2.040000e+00
  SP5a  SC5v  1 4.100000e-01    2.040000e+00
  SP5a  SC4v  1 4.100000e-01    1.910000e+00
  SP5a  SC3v  1 4.100000e-01    1.750000e+00
  SP5a  SC2v  1 4.100000e-01    1.750000e+00
  SP5a  SC1v  1 4.140000e-01    1.560000e+00
  SP5a  SX4v  1 4.100000e-01    2.350000e+00
  SP5a  SX3v  1 4.100000e-01    2.200000e+00
  SP5a  SX2v  1 4.100000e-01    2.200000e+00
  SP5a  SX1v  1 4.100000e-01    1.910000e+00
  SP4a  SC6v  1 4.100000e-01    2.200000e+00
  SP4a  SC5v  1 4.100000e-01    2.040000e+00
  SP4a  SC4v  1 4.100000e-01    1.910000e+00
  SP4a  SC3v  1 4.100000e-01    1.750000e+00
  SP4a  SC2v  1 4.100000e-01    1.750000e+00
  SP4a  SC1v  1 4.140000e-01    1.560000e+00
  SP4a  SX4v  1 4.100000e-01    2.350000e+00
  SP4a  SX3v  1 4.100000e-01    2.200000e+00
  SP4a  SX2v  1 4.100000e-01    2.200000e+00
  SP4a  SX1v  1 4.100000e-01    2.040000e+00
  SP3a  SC6v  1 4.100000e-01    2.350000e+00
  SP3a  SC5v  1 4.100000e-01    2.200000e+00
  SP3a  SC4v  1 4.100000e-01    2.040000e+00
  SP3a  SC3v  1 4.100000e-01    1.750000e+00
  SP3a  SC2v  1 4.100000e-01    1.750000e+00
  SP3a  SC1v  1 4.140000e-01    1.560000e+00
  SP3a  SX4v  1 4.100000e-01    2.350000e+00
  SP3a  SX3v  1 4.100000e-01    2.350000e+00
  SP3a  SX2v  1 4.100000e-01    2.200000e+00
  SP3a  SX1v  1 4.100000e-01    2.040000e+00
  SP2a  SC6v  1 4.100000e-01    2.350000e+00
  SP2a  SC5v  1 4.100000e-01    2.200000e+00
  SP2a  SC4v  1 4.100000e-01    2.040000e+00
  SP2a  SC3v  1 4.100000e-01    1.910000e+00
  SP2a  SC2v  1 4.100000e-01    1.910000e+00
  SP2a  SC1v  1 4.100000e-01    1.750000e+00
  SP2a  SX4v  1 4.100000e-01    2.350000e+00
  SP2a  SX3v  1 4.100000e-01    2.350000e+00
  SP2a  SX2v  1 4.100000e-01    2.200000e+00
  SP2a  SX1v  1 4.100000e-01    2.040000e+00
  SP1a  SC6v  1 4.100000e-01    2.350000e+00
  SP1a  SC5v  1 4.100000e-01    2.200000e+00
  SP1a  SC4v  1 4.100000e-01    2.040000e+00
  SP1a  SC3v  1 4.100000e-01    1.910000e+00
  SP1a  SC2v  1 4.100000e-01    1.910000e+00
  SP1a  SC1v  1 4.100000e-01    1.750000e+00
  SP1a  SX4v  1 4.100000e-01    2.350000e+00
  SP1a  SX3v  1 4.100000e-01    2.350000e+00
  SP1a  SX2v  1 4.100000e-01    2.200000e+00
  SP1a  SX1v  1 4.100000e-01    2.040000e+00
  SN6a  SC6v  1 4.100000e-01    2.600000e+00
  SN6a  SC5v  1 4.100000e-01    2.350000e+00
  SN6a  SC4v  1 4.100000e-01    2.200000e+00
  SN6a  SC3v  1 4.100000e-01    2.040000e+00
  SN6a  SC2v  1 4.100000e-01    2.040000e+00
  SN6a  SC1v  1 4.100000e-01    1.910000e+00
  SN6a  SX4v  1 4.100000e-01    2.600000e+00
  SN6a  SX3v  1 4.100000e-01    2.350000e+00
  SN6a  SX2v  1 4.100000e-01    2.200000e+00
  SN6a  SX1v  1 4.100000e-01    2.040000e+00
  SN5a  SC6v  1 4.100000e-01    2.600000e+00
  SN5a  SC5v  1 4.100000e-01    2.350000e+00
  SN5a  SC4v  1 4.100000e-01    2.200000e+00
  SN5a  SC3v  1 4.100000e-01    2.200000e+00
  SN5a  SC2v  1 4.100000e-01    2.040000e+00
  SN5a  SC1v  1 4.100000e-01    1.910000e+00
  SN5a  SX4v  1 4.100000e-01    2.840000e+00
  SN5a  SX3v  1 4.100000e-01    2.600000e+00
  SN5a  SX2v  1 4.100000e-01    2.350000e+00
  SN5a  SX1v  1 4.100000e-01    2.200000e+00
  SN4a  SC6v  1 4.100000e-01    2.600000e+00
  SN4a  SC5v  1 4.100000e-01    2.350000e+00
  SN4a  SC4v  1 4.100000e-01    2.350000e+00
  SN4a  SC3v  1 4.100000e-01    2.200000e+00
  SN4a  SC2v  1 4.100000e-01    2.040000e+00
  SN4a  SC1v  1 4.100000e-01    1.910000e+00
  SN4a  SX4v  1 4.100000e-01    3.070000e+00
  SN4a  SX3v  1 4.100000e-01    2.840000e+00
  SN4a  SX2v  1 4.100000e-01    2.350000e+00
  SN4a  SX1v  1 4.100000e-01    2.200000e+00
  SN3a  SC6v  1 4.100000e-01    2.600000e+00
  SN3a  SC5v  1 4.100000e-01    2.350000e+00
  SN3a  SC4v  1 4.100000e-01    2.350000e+00
  SN3a  SC3v  1 4.100000e-01    2.200000e+00
  SN3a  SC2v  1 4.100000e-01    2.200000e+00
  SN3a  SC1v  1 4.100000e-01    2.040000e+00
  SN3a  SX4v  1 4.100000e-01    2.840000e+00
  SN3a  SX3v  1 4.100000e-01    2.600000e+00
  SN3a  SX2v  1 4.100000e-01    2.350000e+00
  SN3a  SX1v  1 4.100000e-01    2.350000e+00
  SN2a  SC6v  1 4.100000e-01    2.600000e+00
  SN2a  SC5v  1 4.100000e-01    2.350000e+00
  SN2a  SC4v  1 4.100000e-01    2.350000e+00
  SN2a  SC3v  1 4.100000e-01    2.350000e+00
  SN2a  SC2v  1 4.100000e-01    2.200000e+00
  SN2a  SC1v  1 4.100000e-01    2.040000e+00
  SN2a  SX4v  1 4.100000e-01    2.840000e+00
  SN2a  SX3v  1 4.100000e-01    2.600000e+00
  SN2a  SX2v  1 4.100000e-01    2.350000e+00
  SN2a  SX1v  1 4.100000e-01    2.350000e+00
  SN1a  SC6v  1 4.100000e-01    2.840000e+00
  SN1a  SC5v  1 4.100000e-01    2.600000e+00
  SN1a  SC4v  1 4.100000e-01    2.600000e+00
  SN1a  SC3v  1 4.100000e-01    2.350000e+00
  SN1a  SC2v  1 4.100000e-01    2.200000e+00
  SN1a  SC1v  1 4.100000e-01    2.040000e+00
  SN1a  SX4v  1 4.100000e-01    2.600000e+00
  SN1a  SX3v  1 4.100000e-01    2.600000e+00
  SN1a  SX2v  1 4.100000e-01    2.350000e+00
  SN1a  SX1v  1 4.100000e-01    2.350000e+00
  SP6d  SC6v  1 4.100000e-01    1.750000e+00
  SP6d  SC5v  1 4.140000e-01    1.560000e+00
  SP6d  SC4v  1 4.180000e-01    1.400000e+00
  SP6d  SC3v  1 4.210000e-01    1.250000e+00
  SP6d  SC2v  1 4.210000e-01    1.250000e+00
  SP6d  SC1v  1 4.960000e-01    1.050000e+00
  SP6d  SX4v  1 4.100000e-01    1.910000e+00
  SP6d  SX3v  1 4.100000e-01    1.910000e+00
  SP6d  SX2v  1 4.100000e-01    1.750000e+00
  SP6d  SX1v  1 4.140000e-01    1.560000e+00
  SP5d  SC6v  1 4.100000e-01    1.750000e+00
  SP5d  SC5v  1 4.100000e-01    1.750000e+00
  SP5d  SC4v  1 4.140000e-01    1.560000e+00
  SP5d  SC3v  1 4.180000e-01    1.400000e+00
  SP5d  SC2v  1 4.180000e-01    1.400000e+00
  SP5d  SC1v  1 4.210000e-01    1.250000e+00
  SP5d  SX4v  1 4.100000e-01    2.040000e+00
  SP5d  SX3v  1 4.100000e-01    1.910000e+00
  SP5d  SX2v  1 4.100000e-01    1.910000e+00
  SP5d  SX1v  1 4.140000e-01    1.560000e+00
  SP4d  SC6v  1 4.100000e-01    1.910000e+00
  SP4d  SC5v  1 4.100000e-01    1.750000e+00
  SP4d  SC4v  1 4.140000e-01    1.560000e+00
  SP4d  SC3v  1 4.180000e-01    1.400000e+00
  SP4d  SC2v  1 4.180000e-01    1.400000e+00
  SP4d  SC1v  1 4.210000e-01    1.250000e+00
  SP4d  SX4v  1 4.100000e-01    2.040000e+00
  SP4d  SX3v  1 4.100000e-01    1.910000e+00
  SP4d  SX2v  1 4.100000e-01    1.910000e+00
  SP4d  SX1v  1 4.100000e-01    1.750000e+00
  SP3d  SC6v  1 4.100000e-01    2.040000e+00
  SP3d  SC5v  1 4.100000e-01    1.910000e+00
  SP3d  SC4v  1 4.100000e-01    1.750000e+00
  SP3d  SC3v  1 4.180000e-01    1.400000e+00
  SP3d  SC2v  1 4.180000e-01    1.400000e+00
  SP3d  SC1v  1 4.210000e-01    1.250000e+00
  SP3d  SX4v  1 4.100000e-01    2.040000e+00
  SP3d  SX3v  1 4.100000e-01    2.040000e+00
  SP3d  SX2v  1 4.100000e-01    1.910000e+00
  SP3d  SX1v  1 4.100000e-01    1.750000e+00
  SP2d  SC6v  1 4.100000e-01    2.040000e+00
  SP2d  SC5v  1 4.100000e-01    1.910000e+00
  SP2d  SC4v  1 4.100000e-01    1.750000e+00
  SP2d  SC3v  1 4.140000e-01    1.560000e+00
  SP2d  SC2v  1 4.140000e-01    1.560000e+00
  SP2d  SC1v  1 4.180000e-01    1.400000e+00
  SP2d  SX4v  1 4.100000e-01    2.040000e+00
  SP2d  SX3v  1 4.100000e-01    2.040000e+00
  SP2d  SX2v  1 4.100000e-01    1.910000e+00
  SP2d  SX1v  1 4.100000e-01    1.750000e+00
  SP1d  SC6v  1 4.100000e-01    2.040000e+00
  SP1d  SC5v  1 4.100000e-01    1.910000e+00
  SP1d  SC4v  1 4.100000e-01    1.750000e+00
  SP1d  SC3v  1 4.140000e-01    1.560000e+00
  SP1d  SC2v  1 4.140000e-01    1.560000e+00
  SP1d  SC1v  1 4.180000e-01    1.400000e+00
  SP1d  SX4v  1 4.100000e-01    2.040000e+00
  SP1d  SX3v  1 4.100000e-01    2.040000e+00
  SP1d  SX2v  1 4.100000e-01    1.910000e+00
  SP1d  SX1v  1 4.100000e-01    1.750000e+00
  SN6d  SC6v  1 4.100000e-01    2.200000e+00
  SN6d  SC5v  1 4.100000e-01    2.040000e+00
  SN6d  SC4v  1 4.100000e-01    1.910000e+00
  SN6d  SC3v  1 4.100000e-01    1.750000e+00
  SN6d  SC2v  1 4.100000e-01    1.750000e+00
  SN6d  SC1v  1 4.140000e-01    1.560000e+00
  SN6d  SX4v  1 4.100000e-01    2.200000e+00
  SN6d  SX3v  1 4.100000e-01    2.040000e+00
  SN6d  SX2v  1 4.100000e-01    1.910000e+00
  SN6d  SX1v  1 4.100000e-01    1.750000e+00
  SN5d  SC6v  1 4.100000e-01    2.200000e+00
  SN5d  SC5v  1 4.100000e-01    2.040000e+00
  SN5d  SC4v  1 4.100000e-01    1.910000e+00
  SN5d  SC3v  1 4.100000e-01    1.910000e+00
  SN5d  SC2v  1 4.100000e-01    1.750000e+00
  SN5d  SC1v  1 4.140000e-01    1.560000e+00
  SN5d  SX4v  1 4.100000e-01    2.350000e+00
  SN5d  SX3v  1 4.100000e-01    2.200000e+00
  SN5d  SX2v  1 4.100000e-01    2.040000e+00
  SN5d  SX1v  1 4.100000e-01    1.910000e+00
  SN4d  SC6v  1 4.100000e-01    2.200000e+00
  SN4d  SC5v  1 4.100000e-01    2.040000e+00
  SN4d  SC4v  1 4.100000e-01    2.040000e+00
  SN4d  SC3v  1 4.100000e-01    1.910000e+00
  SN4d  SC2v  1 4.100000e-01    1.750000e+00
  SN4d  SC1v  1 4.140000e-01    1.560000e+00
  SN4d  SX4v  1 4.100000e-01    2.600000e+00
  SN4d  SX3v  1 4.100000e-01    2.350000e+00
  SN4d  SX2v  1 4.100000e-01    2.040000e+00
  SN4d  SX1v  1 4.100000e-01    1.910000e+00
  SN3d  SC6v  1 4.100000e-01    2.200000e+00
  SN3d  SC5v  1 4.100000e-01    2.040000e+00
  SN3d  SC4v  1 4.100000e-01    2.040000e+00
  SN3d  SC3v  1 4.100000e-01    1.910000e+00
  SN3d  SC2v  1 4.100000e-01    1.910000e+00
  SN3d  SC1v  1 4.100000e-01    1.750000e+00
  SN3d  SX4v  1 4.100000e-01    2.350000e+00
  SN3d  SX3v  1 4.100000e-01    2.200000e+00
  SN3d  SX2v  1 4.100000e-01    2.040000e+00
  SN3d  SX1v  1 4.100000e-01    2.040000e+00
  SN2d  SC6v  1 4.100000e-01    2.200000e+00
  SN2d  SC5v  1 4.100000e-01    2.040000e+00
  SN2d  SC4v  1 4.100000e-01    2.040000e+00
  SN2d  SC3v  1 4.100000e-01    2.040000e+00
  SN2d  SC2v  1 4.100000e-01    1.910000e+00
  SN2d  SC1v  1 4.100000e-01    1.750000e+00
  SN2d  SX4v  1 4.100000e-01    2.350000e+00
  SN2d  SX3v  1 4.100000e-01    2.200000e+00
  SN2d  SX2v  1 4.100000e-01    2.040000e+00
  SN2d  SX1v  1 4.100000e-01    2.040000e+00
  SN1d  SC6v  1 4.100000e-01    2.350000e+00
  SN1d  SC5v  1 4.100000e-01    2.200000e+00
  SN1d  SC4v  1 4.100000e-01    2.200000e+00
  SN1d  SC3v  1 4.100000e-01    2.040000e+00
  SN1d  SC2v  1 4.100000e-01    1.910000e+00
  SN1d  SC1v  1 4.100000e-01    1.750000e+00
  SN1d  SX4v  1 4.100000e-01    2.200000e+00
  SN1d  SX3v  1 4.100000e-01    2.200000e+00
  SN1d  SX2v  1 4.100000e-01    2.040000e+00
  SN1d  SX1v  1 4.100000e-01    2.040000e+00
  SP6a  SC6e  1 4.100000e-01    1.750000e+00
  SP6a  SC5e  1 4.140000e-01    1.560000e+00
  SP6a  SC4e  1 4.180000e-01    1.400000e+00
  SP6a  SC3e  1 4.210000e-01    1.250000e+00
  SP6a  SC2e  1 4.210000e-01    1.250000e+00
  SP6a  SC1e  1 4.960000e-01    1.050000e+00
  SP6a  SX4e  1 4.100000e-01    1.910000e+00
  SP6a  SX3e  1 4.100000e-01    1.910000e+00
  SP6a  SX2e  1 4.100000e-01    1.750000e+00
  SP6a  SX1e  1 4.140000e-01    1.560000e+00
  SP5a  SC6e  1 4.100000e-01    1.750000e+00
  SP5a  SC5e  1 4.100000e-01    1.750000e+00
  SP5a  SC4e  1 4.140000e-01    1.560000e+00
  SP5a  SC3e  1 4.180000e-01    1.400000e+00
  SP5a  SC2e  1 4.180000e-01    1.400000e+00
  SP5a  SC1e  1 4.210000e-01    1.250000e+00
  SP5a  SX4e  1 4.100000e-01    2.040000e+00
  SP5a  SX3e  1 4.100000e-01    1.910000e+00
  SP5a  SX2e  1 4.100000e-01    1.910000e+00
  SP5a  SX1e  1 4.140000e-01    1.560000e+00
  SP4a  SC6e  1 4.100000e-01    1.910000e+00
  SP4a  SC5e  1 4.100000e-01    1.750000e+00
  SP4a  SC4e  1 4.140000e-01    1.560000e+00
  SP4a  SC3e  1 4.180000e-01    1.400000e+00
  SP4a  SC2e  1 4.180000e-01    1.400000e+00
  SP4a  SC1e  1 4.210000e-01    1.250000e+00
  SP4a  SX4e  1 4.100000e-01    2.040000e+00
  SP4a  SX3e  1 4.100000e-01    1.910000e+00
  SP4a  SX2e  1 4.100000e-01    1.910000e+00
  SP4a  SX1e  1 4.100000e-01    1.750000e+00
  SP3a  SC6e  1 4.100000e-01    2.040000e+00
  SP3a  SC5e  1 4.100000e-01    1.910000e+00
  SP3a  SC4e  1 4.100000e-01    1.750000e+00
  SP3a  SC3e  1 4.180000e-01    1.400000e+00
  SP3a  SC2e  1 4.180000e-01    1.400000e+00
  SP3a  SC1e  1 4.210000e-01    1.250000e+00
  SP3a  SX4e  1 4.100000e-01    2.040000e+00
  SP3a  SX3e  1 4.100000e-01    2.040000e+00
  SP3a  SX2e  1 4.100000e-01    1.910000e+00
  SP3a  SX1e  1 4.100000e-01    1.750000e+00
  SP2a  SC6e  1 4.100000e-01    2.040000e+00
  SP2a  SC5e  1 4.100000e-01    1.910000e+00
  SP2a  SC4e  1 4.100000e-01    1.750000e+00
  SP2a  SC3e  1 4.140000e-01    1.560000e+00
  SP2a  SC2e  1 4.140000e-01    1.560000e+00
  SP2a  SC1e  1 4.180000e-01    1.400000e+00
  SP2a  SX4e  1 4.100000e-01    2.040000e+00
  SP2a  SX3e  1 4.100000e-01    2.040000e+00
  SP2a  SX2e  1 4.100000e-01    1.910000e+00
  SP2a  SX1e  1 4.100000e-01    1.750000e+00
  SP1a  SC6e  1 4.100000e-01    2.040000e+00
  SP1a  SC5e  1 4.100000e-01    1.910000e+00
  SP1a  SC4e  1 4.100000e-01    1.750000e+00
  SP1a  SC3e  1 4.140000e-01    1.560000e+00
  SP1a  SC2e  1 4.140000e-01    1.560000e+00
  SP1a  SC1e  1 4.180000e-01    1.400000e+00
  SP1a  SX4e  1 4.100000e-01    2.040000e+00
  SP1a  SX3e  1 4.100000e-01    2.040000e+00
  SP1a  SX2e  1 4.100000e-01    1.910000e+00
  SP1a  SX1e  1 4.100000e-01    1.750000e+00
  SN6a  SC6e  1 4.100000e-01    2.200000e+00
  SN6a  SC5e  1 4.100000e-01    2.040000e+00
  SN6a  SC4e  1 4.100000e-01    1.910000e+00
  SN6a  SC3e  1 4.100000e-01    1.750000e+00
  SN6a  SC2e  1 4.100000e-01    1.750000e+00
  SN6a  SC1e  1 4.140000e-01    1.560000e+00
  SN6a  SX4e  1 4.100000e-01    2.200000e+00
  SN6a  SX3e  1 4.100000e-01    2.040000e+00
  SN6a  SX2e  1 4.100000e-01    1.910000e+00
  SN6a  SX1e  1 4.100000e-01    1.750000e+00
  SN5a  SC6e  1 4.100000e-01    2.200000e+00
  SN5a  SC5e  1 4.100000e-01    2.040000e+00
  SN5a  SC4e  1 4.100000e-01    1.910000e+00
  SN5a  SC3e  1 4.100000e-01    1.910000e+00
  SN5a  SC2e  1 4.100000e-01    1.750000e+00
  SN5a  SC1e  1 4.140000e-01    1.560000e+00
  SN5a  SX4e  1 4.100000e-01    2.350000e+00
  SN5a  SX3e  1 4.100000e-01    2.200000e+00
  SN5a  SX2e  1 4.100000e-01    2.040000e+00
  SN5a  SX1e  1 4.100000e-01    1.910000e+00
  SN4a  SC6e  1 4.100000e-01    2.200000e+00
  SN4a  SC5e  1 4.100000e-01    2.040000e+00
  SN4a  SC4e  1 4.100000e-01    2.040000e+00
  SN4a  SC3e  1 4.100000e-01    1.910000e+00
  SN4a  SC2e  1 4.100000e-01    1.750000e+00
  SN4a  SC1e  1 4.140000e-01    1.560000e+00
  SN4a  SX4e  1 4.100000e-01    2.600000e+00
  SN4a  SX3e  1 4.100000e-01    2.350000e+00
  SN4a  SX2e  1 4.100000e-01    2.040000e+00
  SN4a  SX1e  1 4.100000e-01    1.910000e+00
  SN3a  SC6e  1 4.100000e-01    2.200000e+00
  SN3a  SC5e  1 4.100000e-01    2.040000e+00
  SN3a  SC4e  1 4.100000e-01    2.040000e+00
  SN3a  SC3e  1 4.100000e-01    1.910000e+00
  SN3a  SC2e  1 4.100000e-01    1.910000e+00
  SN3a  SC1e  1 4.100000e-01    1.750000e+00
  SN3a  SX4e  1 4.100000e-01    2.350000e+00
  SN3a  SX3e  1 4.100000e-01    2.200000e+00
  SN3a  SX2e  1 4.100000e-01    2.040000e+00
  SN3a  SX1e  1 4.100000e-01    2.040000e+00
  SN2a  SC6e  1 4.100000e-01    2.200000e+00
  SN2a  SC5e  1 4.100000e-01    2.040000e+00
  SN2a  SC4e  1 4.100000e-01    2.040000e+00
  SN2a  SC3e  1 4.100000e-01    2.040000e+00
  SN2a  SC2e  1 4.100000e-01    1.910000e+00
  SN2a  SC1e  1 4.100000e-01    1.750000e+00
  SN2a  SX4e  1 4.100000e-01    2.350000e+00
  SN2a  SX3e  1 4.100000e-01    2.200000e+00
  SN2a  SX2e  1 4.100000e-01    2.040000e+00
  SN2a  SX1e  1 4.100000e-01    2.040000e+00
  SN1a  SC6e  1 4.100000e-01    2.350000e+00
  SN1a  SC5e  1 4.100000e-01    2.200000e+00
  SN1a  SC4e  1 4.100000e-01    2.200000e+00
  SN1a  SC3e  1 4.100000e-01    2.040000e+00
  SN1a  SC2e  1 4.100000e-01    1.910000e+00
  SN1a  SC1e  1 4.100000e-01    1.750000e+00
  SN1a  SX4e  1 4.100000e-01    2.200000e+00
  SN1a  SX3e  1 4.100000e-01    2.200000e+00
  SN1a  SX2e  1 4.100000e-01    2.040000e+00
  SN1a  SX1e  1 4.100000e-01    2.040000e+00
  SP6q  SP6d  1 4.100000e-01    4.840000e+00
  SP6q  SN1d  1 4.100000e-01    2.200000e+00
  SP6q  SN2d  1 4.100000e-01    2.350000e+00
  SP6q  SN3d  1 4.100000e-01    2.600000e+00
  SP6q  SN4d  1 4.100000e-01    2.840000e+00
  SP6q  SN5d  1 4.100000e-01    3.070000e+00
  SP6q  SN6d  1 4.100000e-01    3.550000e+00
  SP6q  SP1d  1 4.100000e-01    3.820000e+00
  SP6q  SP2d  1 4.100000e-01    4.040000e+00
  SP6q  SP3d  1 4.100000e-01    4.040000e+00
  SP6q  SP4d  1 4.100000e-01    4.290000e+00
  SP6q  SP5d  1 4.100000e-01    4.550000e+00
  SP6q  SP6a  1 4.100000e-01    4.840000e+00
  SP6q  SN1a  1 4.100000e-01    2.200000e+00
  SP6q  SN2a  1 4.100000e-01    2.350000e+00
  SP6q  SN3a  1 4.100000e-01    2.600000e+00
  SP6q  SN4a  1 4.100000e-01    2.840000e+00
  SP6q  SN5a  1 4.100000e-01    3.070000e+00
  SP6q  SN6a  1 4.100000e-01    3.550000e+00
  SP6q  SP1a  1 4.100000e-01    3.820000e+00
  SP6q  SP2a  1 4.100000e-01    4.040000e+00
  SP6q  SP3a  1 4.100000e-01    4.040000e+00
  SP6q  SP4a  1 4.100000e-01    4.290000e+00
  SP6q  SP5a  1 4.100000e-01    4.550000e+00
  SP6q  SC6v  1 4.100000e-01    2.350000e+00
  SP6q  SC5v  1 4.100000e-01    2.200000e+00
  SP6q  SC4v  1 4.100000e-01    2.040000e+00
  SP6q  SC3v  1 4.100000e-01    1.910000e+00
  SP6q  SC2v  1 4.100000e-01    1.910000e+00
  SP6q  SC1v  1 4.140000e-01    1.560000e+00
  SP6q  SX4v  1 4.100000e-01    2.600000e+00
  SP6q  SX3v  1 4.100000e-01    2.600000e+00
  SP6q  SX2v  1 4.100000e-01    2.350000e+00
  SP6q  SX1v  1 4.100000e-01    2.200000e+00
  SP6q  SC6e  1 4.100000e-01    2.350000e+00
  SP6q  SC5e  1 4.100000e-01    2.200000e+00
  SP6q  SC4e  1 4.100000e-01    2.040000e+00
  SP6q  SC3e  1 4.100000e-01    1.910000e+00
  SP6q  SC2e  1 4.100000e-01    1.910000e+00
  SP6q  SC1e  1 4.140000e-01    1.560000e+00
  SP6q  SX4e  1 4.100000e-01    2.600000e+00
  SP6q  SX3e  1 4.100000e-01    2.600000e+00
  SP6q  SX2e  1 4.100000e-01    2.350000e+00
  SP6q  SX1e  1 4.100000e-01    2.200000e+00
  SP6d  SP5q  1 4.100000e-01    4.550000e+00
  SP5q  SP5d  1 4.100000e-01    4.290000e+00
  SP5q  SN1d  1 4.100000e-01    2.200000e+00
  SP5q  SN2d  1 4.100000e-01    2.350000e+00
  SP5q  SN3d  1 4.100000e-01    2.600000e+00
  SP5q  SN4d  1 4.100000e-01    3.070000e+00
  SP5q  SN5d  1 4.100000e-01    3.070000e+00
  SP5q  SN6d  1 4.100000e-01    3.310000e+00
  SP5q  SP1d  1 4.100000e-01    3.550000e+00
  SP5q  SP2d  1 4.100000e-01    3.820000e+00
  SP5q  SP3d  1 4.100000e-01    3.820000e+00
  SP5q  SP4d  1 4.100000e-01    4.040000e+00
  SP6a  SP5q  1 4.100000e-01    4.550000e+00
  SP5q  SP5a  1 4.100000e-01    4.290000e+00
  SP5q  SN1a  1 4.100000e-01    2.200000e+00
  SP5q  SN2a  1 4.100000e-01    2.350000e+00
  SP5q  SN3a  1 4.100000e-01    2.600000e+00
  SP5q  SN4a  1 4.100000e-01    3.070000e+00
  SP5q  SN5a  1 4.100000e-01    3.070000e+00
  SP5q  SN6a  1 4.100000e-01    3.310000e+00
  SP5q  SP1a  1 4.100000e-01    3.550000e+00
  SP5q  SP2a  1 4.100000e-01    3.820000e+00
  SP5q  SP3a  1 4.100000e-01    3.820000e+00
  SP5q  SP4a  1 4.100000e-01    4.040000e+00
  SP5q  SC6v  1 4.100000e-01    2.350000e+00
  SP5q  SC5v  1 4.100000e-01    2.350000e+00
  SP5q  SC4v  1 4.100000e-01    2.200000e+00
  SP5q  SC3v  1 4.100000e-01    2.040000e+00
  SP5q  SC2v  1 4.100000e-01    2.040000e+00
  SP5q  SC1v  1 4.100000e-01    1.910000e+00
  SP5q  SX4v  1 4.100000e-01    2.840000e+00
  SP5q  SX3v  1 4.100000e-01    2.600000e+00
  SP5q  SX2v  1 4.100000e-01    2.600000e+00
  SP5q  SX1v  1 4.100000e-01    2.200000e+00
  SP5q  SC6e  1 4.100000e-01    2.350000e+00
  SP5q  SC5e  1 4.100000e-01    2.350000e+00
  SP5q  SC4e  1 4.100000e-01    2.200000e+00
  SP5q  SC3e  1 4.100000e-01    2.040000e+00
  SP5q  SC2e  1 4.100000e-01    2.040000e+00
  SP5q  SC1e  1 4.100000e-01    1.910000e+00
  SP5q  SX4e  1 4.100000e-01    2.840000e+00
  SP5q  SX3e  1 4.100000e-01    2.600000e+00
  SP5q  SX2e  1 4.100000e-01    2.600000e+00
  SP5q  SX1e  1 4.100000e-01    2.200000e+00
  SP6d  SP4q  1 4.100000e-01    4.290000e+00
  SP5d  SP4q  1 4.100000e-01    4.040000e+00
  SP4q  SP4d  1 4.100000e-01    4.040000e+00
  SP4q  SN1d  1 4.100000e-01    2.350000e+00
  SP4q  SN2d  1 4.100000e-01    2.600000e+00
  SP4q  SN3d  1 4.100000e-01    2.840000e+00
  SP4q  SN4d  1 4.100000e-01    3.070000e+00
  SP4q  SN5d  1 4.100000e-01    3.070000e+00
  SP4q  SN6d  1 4.100000e-01    3.310000e+00
  SP4q  SP1d  1 4.100000e-01    3.550000e+00
  SP4q  SP2d  1 4.100000e-01    3.820000e+00
  SP4q  SP3d  1 4.100000e-01    3.820000e+00
  SP6a  SP4q  1 4.100000e-01    4.290000e+00
  SP5a  SP4q  1 4.100000e-01    4.040000e+00
  SP4q  SP4a  1 4.100000e-01    4.040000e+00
  SP4q  SN1a  1 4.100000e-01    2.350000e+00
  SP4q  SN2a  1 4.100000e-01    2.600000e+00
  SP4q  SN3a  1 4.100000e-01    2.840000e+00
  SP4q  SN4a  1 4.100000e-01    3.070000e+00
  SP4q  SN5a  1 4.100000e-01    3.070000e+00
  SP4q  SN6a  1 4.100000e-01    3.310000e+00
  SP4q  SP1a  1 4.100000e-01    3.550000e+00
  SP4q  SP2a  1 4.100000e-01    3.820000e+00
  SP4q  SP3a  1 4.100000e-01    3.820000e+00
  SP4q  SC6v  1 4.100000e-01    2.600000e+00
  SP4q  SC5v  1 4.100000e-01    2.350000e+00
  SP4q  SC4v  1 4.100000e-01    2.200000e+00
  SP4q  SC3v  1 4.100000e-01    2.040000e+00
  SP4q  SC2v  1 4.100000e-01    2.040000e+00
  SP4q  SC1v  1 4.100000e-01    1.910000e+00
  SP4q  SX4v  1 4.100000e-01    2.840000e+00
  SP4q  SX3v  1 4.100000e-01    2.600000e+00
  SP4q  SX2v  1 4.100000e-01    2.600000e+00
  SP4q  SX1v  1 4.100000e-01    2.350000e+00
  SP4q  SC6e  1 4.100000e-01    2.600000e+00
  SP4q  SC5e  1 4.100000e-01    2.350000e+00
  SP4q  SC4e  1 4.100000e-01    2.200000e+00
  SP4q  SC3e  1 4.100000e-01    2.040000e+00
  SP4q  SC2e  1 4.100000e-01    2.040000e+00
  SP4q  SC1e  1 4.100000e-01    1.910000e+00
  SP4q  SX4e  1 4.100000e-01    2.840000e+00
  SP4q  SX3e  1 4.100000e-01    2.600000e+00
  SP4q  SX2e  1 4.100000e-01    2.600000e+00
  SP4q  SX1e  1 4.100000e-01    2.350000e+00
  SP6d  SP3q  1 4.100000e-01    4.040000e+00
  SP5d  SP3q  1 4.100000e-01    3.820000e+00
  SP4d  SP3q  1 4.100000e-01    3.820000e+00
  SP3q  SP3d  1 4.100000e-01    3.820000e+00
  SP3q  SN1d  1 4.100000e-01    2.600000e+00
  SP3q  SN2d  1 4.100000e-01    2.840000e+00
  SP3q  SN3d  1 4.100000e-01    2.840000e+00
  SP3q  SN4d  1 4.100000e-01    3.070000e+00
  SP3q  SN5d  1 4.100000e-01    3.070000e+00
  SP3q  SN6d  1 4.100000e-01    3.310000e+00
  SP3q  SP1d  1 4.100000e-01    3.550000e+00
  SP3q  SP2d  1 4.100000e-01    3.820000e+00
  SP6a  SP3q  1 4.100000e-01    4.040000e+00
  SP5a  SP3q  1 4.100000e-01    3.820000e+00
  SP4a  SP3q  1 4.100000e-01    3.820000e+00
  SP3q  SP3a  1 4.100000e-01    3.820000e+00
  SP3q  SN1a  1 4.100000e-01    2.600000e+00
  SP3q  SN2a  1 4.100000e-01    2.840000e+00
  SP3q  SN3a  1 4.100000e-01    2.840000e+00
  SP3q  SN4a  1 4.100000e-01    3.070000e+00
  SP3q  SN5a  1 4.100000e-01    3.070000e+00
  SP3q  SN6a  1 4.100000e-01    3.310000e+00
  SP3q  SP1a  1 4.100000e-01    3.550000e+00
  SP3q  SP2a  1 4.100000e-01    3.820000e+00
  SP3q  SC6v  1 4.100000e-01    2.840000e+00
  SP3q  SC5v  1 4.100000e-01    2.600000e+00
  SP3q  SC4v  1 4.100000e-01    2.350000e+00
  SP3q  SC3v  1 4.100000e-01    2.040000e+00
  SP3q  SC2v  1 4.100000e-01    2.040000e+00
  SP3q  SC1v  1 4.100000e-01    1.910000e+00
  SP3q  SX4v  1 4.100000e-01    2.840000e+00
  SP3q  SX3v  1 4.100000e-01    2.840000e+00
  SP3q  SX2v  1 4.100000e-01    2.600000e+00
  SP3q  SX1v  1 4.100000e-01    2.350000e+00
  SP3q  SC6e  1 4.100000e-01    2.840000e+00
  SP3q  SC5e  1 4.100000e-01    2.600000e+00
  SP3q  SC4e  1 4.100000e-01    2.350000e+00
  SP3q  SC3e  1 4.100000e-01    2.040000e+00
  SP3q  SC2e  1 4.100000e-01    2.040000e+00
  SP3q  SC1e  1 4.100000e-01    1.910000e+00
  SP3q  SX4e  1 4.100000e-01    2.840000e+00
  SP3q  SX3e  1 4.100000e-01    2.840000e+00
  SP3q  SX2e  1 4.100000e-01    2.600000e+00
  SP3q  SX1e  1 4.100000e-01    2.350000e+00
  SP6d  SP2q  1 4.100000e-01    4.040000e+00
  SP5d  SP2q  1 4.100000e-01    3.820000e+00
  SP4d  SP2q  1 4.100000e-01    3.820000e+00
  SP3d  SP2q  1 4.100000e-01    3.820000e+00
  SP2q  SP2d  1 4.100000e-01    3.820000e+00
  SP2q  SN1d  1 4.100000e-01    2.840000e+00
  SP2q  SN2d  1 4.100000e-01    2.840000e+00
  SP2q  SN3d  1 4.100000e-01    2.840000e+00
  SP2q  SN4d  1 4.100000e-01    3.070000e+00
  SP2q  SN5d  1 4.100000e-01    3.310000e+00
  SP2q  SN6d  1 4.100000e-01    3.550000e+00
  SP2q  SP1d  1 4.100000e-01    3.550000e+00
  SP6a  SP2q  1 4.100000e-01    4.040000e+00
  SP5a  SP2q  1 4.100000e-01    3.820000e+00
  SP4a  SP2q  1 4.100000e-01    3.820000e+00
  SP3a  SP2q  1 4.100000e-01    3.820000e+00
  SP2q  SP2a  1 4.100000e-01    3.820000e+00
  SP2q  SN1a  1 4.100000e-01    2.840000e+00
  SP2q  SN2a  1 4.100000e-01    2.840000e+00
  SP2q  SN3a  1 4.100000e-01    2.840000e+00
  SP2q  SN4a  1 4.100000e-01    3.070000e+00
  SP2q  SN5a  1 4.100000e-01    3.310000e+00
  SP2q  SN6a  1 4.100000e-01    3.550000e+00
  SP2q  SP1a  1 4.100000e-01    3.550000e+00
  SP2q  SC6v  1 4.100000e-01    2.840000e+00
  SP2q  SC5v  1 4.100000e-01    2.600000e+00
  SP2q  SC4v  1 4.100000e-01    2.350000e+00
  SP2q  SC3v  1 4.100000e-01    2.200000e+00
  SP2q  SC2v  1 4.100000e-01    2.200000e+00
  SP2q  SC1v  1 4.100000e-01    2.040000e+00
  SP2q  SX4v  1 4.100000e-01    2.840000e+00
  SP2q  SX3v  1 4.100000e-01    2.840000e+00
  SP2q  SX2v  1 4.100000e-01    2.600000e+00
  SP2q  SX1v  1 4.100000e-01    2.350000e+00
  SP2q  SC6e  1 4.100000e-01    2.840000e+00
  SP2q  SC5e  1 4.100000e-01    2.600000e+00
  SP2q  SC4e  1 4.100000e-01    2.350000e+00
  SP2q  SC3e  1 4.100000e-01    2.200000e+00
  SP2q  SC2e  1 4.100000e-01    2.200000e+00
  SP2q  SC1e  1 4.100000e-01    2.040000e+00
  SP2q  SX4e  1 4.100000e-01    2.840000e+00
  SP2q  SX3e  1 4.100000e-01    2.840000e+00
  SP2q  SX2e  1 4.100000e-01    2.600000e+00
  SP2q  SX1e  1 4.100000e-01    2.350000e+00
  SP6d  SP1q  1 4.100000e-01    3.820000e+00
  SP5d  SP1q  1 4.100000e-01    3.550000e+00
  SP4d  SP1q  1 4.100000e-01    3.550000e+00
  SP3d  SP1q  1 4.100000e-01    3.550000e+00
  SP2d  SP1q  1 4.100000e-01    3.550000e+00
  SP1q  SP1d  1 4.100000e-01    3.550000e+00
  SP1q  SN1d  1 4.100000e-01    2.840000e+00
  SP1q  SN2d  1 4.100000e-01    2.840000e+00
  SP1q  SN3d  1 4.100000e-01    2.840000e+00
  SP1q  SN4d  1 4.100000e-01    3.310000e+00
  SP1q  SN5d  1 4.100000e-01    3.310000e+00
  SP1q  SN6d  1 4.100000e-01    3.550000e+00
  SP6a  SP1q  1 4.100000e-01    3.820000e+00
  SP5a  SP1q  1 4.100000e-01    3.550000e+00
  SP4a  SP1q  1 4.100000e-01    3.550000e+00
  SP3a  SP1q  1 4.100000e-01    3.550000e+00
  SP2a  SP1q  1 4.100000e-01    3.550000e+00
  SP1q  SP1a  1 4.100000e-01    3.550000e+00
  SP1q  SN1a  1 4.100000e-01    2.840000e+00
  SP1q  SN2a  1 4.100000e-01    2.840000e+00
  SP1q  SN3a  1 4.100000e-01    2.840000e+00
  SP1q  SN4a  1 4.100000e-01    3.310000e+00
  SP1q  SN5a  1 4.100000e-01    3.310000e+00
  SP1q  SN6a  1 4.100000e-01    3.550000e+00
  SP1q  SC6v  1 4.100000e-01    2.840000e+00
  SP1q  SC5v  1 4.100000e-01    2.600000e+00
  SP1q  SC4v  1 4.100000e-01    2.350000e+00
  SP1q  SC3v  1 4.100000e-01    2.200000e+00
  SP1q  SC2v  1 4.100000e-01    2.200000e+00
  SP1q  SC1v  1 4.100000e-01    2.040000e+00
  SP1q  SX4v  1 4.100000e-01    2.840000e+00
  SP1q  SX3v  1 4.100000e-01    2.840000e+00
  SP1q  SX2v  1 4.100000e-01    2.600000e+00
  SP1q  SX1v  1 4.100000e-01    2.350000e+00
  SP1q  SC6e  1 4.100000e-01    2.840000e+00
  SP1q  SC5e  1 4.100000e-01    2.600000e+00
  SP1q  SC4e  1 4.100000e-01    2.350000e+00
  SP1q  SC3e  1 4.100000e-01    2.200000e+00
  SP1q  SC2e  1 4.100000e-01    2.200000e+00
  SP1q  SC1e  1 4.100000e-01    2.040000e+00
  SP1q  SX4e  1 4.100000e-01    2.840000e+00
  SP1q  SX3e  1 4.100000e-01    2.840000e+00
  SP1q  SX2e  1 4.100000e-01    2.600000e+00
  SP1q  SX1e  1 4.100000e-01    2.350000e+00
  SP6d  SN6q  1 4.100000e-01    3.550000e+00
  SP5d  SN6q  1 4.100000e-01    3.310000e+00
  SP4d  SN6q  1 4.100000e-01    3.310000e+00
  SP3d  SN6q  1 4.100000e-01    3.310000e+00
  SP2d  SN6q  1 4.100000e-01    3.550000e+00
  SP1d  SN6q  1 4.100000e-01    3.550000e+00
  SN6q  SN6d  1 4.100000e-01    3.550000e+00
  SN6q  SN1d  1 4.100000e-01    2.840000e+00
  SN6q  SN2d  1 4.100000e-01    2.840000e+00
  SN6q  SN3d  1 4.100000e-01    3.070000e+00
  SN6q  SN4d  1 4.100000e-01    3.550000e+00
  SN6q  SN5d  1 4.100000e-01    3.550000e+00
  SP6a  SN6q  1 4.100000e-01    3.550000e+00
  SP5a  SN6q  1 4.100000e-01    3.310000e+00
  SP4a  SN6q  1 4.100000e-01    3.310000e+00
  SP3a  SN6q  1 4.100000e-01    3.310000e+00
  SP2a  SN6q  1 4.100000e-01    3.550000e+00
  SP1a  SN6q  1 4.100000e-01    3.550000e+00
  SN6q  SN6a  1 4.100000e-01    3.550000e+00
  SN6q  SN1a  1 4.100000e-01    2.840000e+00
  SN6q  SN2a  1 4.100000e-01    2.840000e+00
  SN6q  SN3a  1 4.100000e-01    3.070000e+00
  SN6q  SN4a  1 4.100000e-01    3.550000e+00
  SN6q  SN5a  1 4.100000e-01    3.550000e+00
  SN6q  SC6v  1 4.100000e-01    3.070000e+00
  SN6q  SC5v  1 4.100000e-01    2.840000e+00
  SN6q  SC4v  1 4.100000e-01    2.600000e+00
  SN6q  SC3v  1 4.100000e-01    2.350000e+00
  SN6q  SC2v  1 4.100000e-01    2.350000e+00
  SN6q  SC1v  1 4.100000e-01    2.200000e+00
  SN6q  SX4v  1 4.100000e-01    3.070000e+00
  SN6q  SX3v  1 4.100000e-01    2.840000e+00
  SN6q  SX2v  1 4.100000e-01    2.600000e+00
  SN6q  SX1v  1 4.100000e-01    2.350000e+00
  SN6q  SC6e  1 4.100000e-01    3.070000e+00
  SN6q  SC5e  1 4.100000e-01    2.840000e+00
  SN6q  SC4e  1 4.100000e-01    2.600000e+00
  SN6q  SC3e  1 4.100000e-01    2.350000e+00
  SN6q  SC2e  1 4.100000e-01    2.350000e+00
  SN6q  SC1e  1 4.100000e-01    2.200000e+00
  SN6q  SX4e  1 4.100000e-01    3.070000e+00
  SN6q  SX3e  1 4.100000e-01    2.840000e+00
  SN6q  SX2e  1 4.100000e-01    2.600000e+00
  SN6q  SX1e  1 4.100000e-01    2.350000e+00
  SP6d  SN5q  1 4.100000e-01    3.070000e+00
  SP5d  SN5q  1 4.100000e-01    3.070000e+00
  SP4d  SN5q  1 4.100000e-01    3.070000e+00
  SP3d  SN5q  1 4.100000e-01    3.070000e+00
  SP2d  SN5q  1 4.100000e-01    3.310000e+00
  SP1d  SN5q  1 4.100000e-01    3.310000e+00
  SN6d  SN5q  1 4.100000e-01    3.550000e+00
  SN5q  SN5d  1 4.100000e-01    3.310000e+00
  SN5q  SN1d  1 4.100000e-01    2.840000e+00
  SN5q  SN2d  1 4.100000e-01    3.070000e+00
  SN5q  SN3d  1 4.100000e-01    3.070000e+00
  SN5q  SN4d  1 4.100000e-01    3.310000e+00
  SP6a  SN5q  1 4.100000e-01    3.070000e+00
  SP5a  SN5q  1 4.100000e-01    3.070000e+00
  SP4a  SN5q  1 4.100000e-01    3.070000e+00
  SP3a  SN5q  1 4.100000e-01    3.070000e+00
  SP2a  SN5q  1 4.100000e-01    3.310000e+00
  SP1a  SN5q  1 4.100000e-01    3.310000e+00
  SN6a  SN5q  1 4.100000e-01    3.550000e+00
  SN5q  SN5a  1 4.100000e-01    3.310000e+00
  SN5q  SN1a  1 4.100000e-01    2.840000e+00
  SN5q  SN2a  1 4.100000e-01    3.070000e+00
  SN5q  SN3a  1 4.100000e-01    3.070000e+00
  SN5q  SN4a  1 4.100000e-01    3.310000e+00
  SN5q  SC6v  1 4.100000e-01    3.070000e+00
  SN5q  SC5v  1 4.100000e-01    2.840000e+00
  SN5q  SC4v  1 4.100000e-01    2.600000e+00
  SN5q  SC3v  1 4.100000e-01    2.600000e+00
  SN5q  SC2v  1 4.100000e-01    2.350000e+00
  SN5q  SC1v  1 4.100000e-01    2.200000e+00
  SN5q  SX4v  1 4.100000e-01    3.310000e+00
  SN5q  SX3v  1 4.100000e-01    3.070000e+00
  SN5q  SX2v  1 4.100000e-01    2.840000e+00
  SN5q  SX1v  1 4.100000e-01    2.600000e+00
  SN5q  SC6e  1 4.100000e-01    3.070000e+00
  SN5q  SC5e  1 4.100000e-01    2.840000e+00
  SN5q  SC4e  1 4.100000e-01    2.600000e+00
  SN5q  SC3e  1 4.100000e-01    2.600000e+00
  SN5q  SC2e  1 4.100000e-01    2.350000e+00
  SN5q  SC1e  1 4.100000e-01    2.200000e+00
  SN5q  SX4e  1 4.100000e-01    3.310000e+00
  SN5q  SX3e  1 4.100000e-01    3.070000e+00
  SN5q  SX2e  1 4.100000e-01    2.840000e+00
  SN5q  SX1e  1 4.100000e-01    2.600000e+00
  SP6d  SN4q  1 4.100000e-01    2.840000e+00
  SP5d  SN4q  1 4.100000e-01    3.070000e+00
  SP4d  SN4q  1 4.100000e-01    3.070000e+00
  SP3d  SN4q  1 4.100000e-01    3.070000e+00
  SP2d  SN4q  1 4.100000e-01    3.070000e+00
  SP1d  SN4q  1 4.100000e-01    3.310000e+00
  SN6d  SN4q  1 4.100000e-01    3.550000e+00
  SN5d  SN4q  1 4.100000e-01    3.310000e+00
  SN4q  SN4d  1 4.100000e-01    3.310000e+00
  SN4q  SN1d  1 4.100000e-01    2.840000e+00
  SN4q  SN2d  1 4.100000e-01    3.070000e+00
  SN4q  SN3d  1 4.100000e-01    3.070000e+00
  SP6a  SN4q  1 4.100000e-01    2.840000e+00
  SP5a  SN4q  1 4.100000e-01    3.070000e+00
  SP4a  SN4q  1 4.100000e-01    3.070000e+00
  SP3a  SN4q  1 4.100000e-01    3.070000e+00
  SP2a  SN4q  1 4.100000e-01    3.070000e+00
  SP1a  SN4q  1 4.100000e-01    3.310000e+00
  SN6a  SN4q  1 4.100000e-01    3.550000e+00
  SN5a  SN4q  1 4.100000e-01    3.310000e+00
  SN4q  SN4a  1 4.100000e-01    3.310000e+00
  SN4q  SN1a  1 4.100000e-01    2.840000e+00
  SN4q  SN2a  1 4.100000e-01    3.070000e+00
  SN4q  SN3a  1 4.100000e-01    3.070000e+00
  SN4q  SC6v  1 4.100000e-01    3.070000e+00
  SN4q  SC5v  1 4.100000e-01    2.840000e+00
  SN4q  SC4v  1 4.100000e-01    2.840000e+00
  SN4q  SC3v  1 4.100000e-01    2.600000e+00
  SN4q  SC2v  1 4.100000e-01    2.350000e+00
  SN4q  SC1v  1 4.100000e-01    2.200000e+00
  SN4q  SX4v  1 4.100000e-01    3.550000e+00
  SN4q  SX3v  1 4.100000e-01    3.310000e+00
  SN4q  SX2v  1 4.100000e-01    2.840000e+00
  SN4q  SX1v  1 4.100000e-01    2.600000e+00
  SN4q  SC6e  1 4.100000e-01    3.070000e+00
  SN4q  SC5e  1 4.100000e-01    2.840000e+00
  SN4q  SC4e  1 4.100000e-01    2.840000e+00
  SN4q  SC3e  1 4.100000e-01    2.600000e+00
  SN4q  SC2e  1 4.100000e-01    2.350000e+00
  SN4q  SC1e  1 4.100000e-01    2.200000e+00
  SN4q  SX4e  1 4.100000e-01    3.550000e+00
  SN4q  SX3e  1 4.100000e-01    3.310000e+00
  SN4q  SX2e  1 4.100000e-01    2.840000e+00
  SN4q  SX1e  1 4.100000e-01    2.600000e+00
  SP6d  SN3q  1 4.100000e-01    2.600000e+00
  SP5d  SN3q  1 4.100000e-01    2.600000e+00
  SP4d  SN3q  1 4.100000e-01    2.840000e+00
  SP3d  SN3q  1 4.100000e-01    2.840000e+00
  SP2d  SN3q  1 4.100000e-01    2.840000e+00
  SP1d  SN3q  1 4.100000e-01    2.840000e+00
  SN6d  SN3q  1 4.100000e-01    3.070000e+00
  SN5d  SN3q  1 4.100000e-01    3.070000e+00
  SN4d  SN3q  1 4.100000e-01    3.070000e+00
  SN3q  SN3d  1 4.100000e-01    3.070000e+00
  SN3q  SN1d  1 4.100000e-01    2.840000e+00
  SN3q  SN2d  1 4.100000e-01    3.070000e+00
  SP6a  SN3q  1 4.100000e-01    2.600000e+00
  SP5a  SN3q  1 4.100000e-01    2.600000e+00
  SP4a  SN3q  1 4.100000e-01    2.840000e+00
  SP3a  SN3q  1 4.100000e-01    2.840000e+00
  SP2a  SN3q  1 4.100000e-01    2.840000e+00
  SP1a  SN3q  1 4.100000e-01    2.840000e+00
  SN6a  SN3q  1 4.100000e-01    3.070000e+00
  SN5a  SN3q  1 4.100000e-01    3.070000e+00
  SN4a  SN3q  1 4.100000e-01    3.070000e+00
  SN3q  SN3a  1 4.100000e-01    3.070000e+00
  SN3q  SN1a  1 4.100000e-01    2.840000e+00
  SN3q  SN2a  1 4.100000e-01    3.070000e+00
  SN3q  SC6v  1 4.100000e-01    3.070000e+00
  SN3q  SC5v  1 4.100000e-01    2.840000e+00
  SN3q  SC4v  1 4.100000e-01    2.840000e+00
  SN3q  SC3v  1 4.100000e-01    2.600000e+00
  SN3q  SC2v  1 4.100000e-01    2.600000e+00
  SN3q  SC1v  1 4.100000e-01    2.350000e+00
  SN3q  SX4v  1 4.100000e-01    3.310000e+00
  SN3q  SX3v  1 4.100000e-01    3.070000e+00
  SN3q  SX2v  1 4.100000e-01    2.840000e+00
  SN3q  SX1v  1 4.100000e-01    2.840000e+00
  SN3q  SC6e  1 4.100000e-01    3.070000e+00
  SN3q  SC5e  1 4.100000e-01    2.840000e+00
  SN3q  SC4e  1 4.100000e-01    2.840000e+00
  SN3q  SC3e  1 4.100000e-01    2.600000e+00
  SN3q  SC2e  1 4.100000e-01    2.600000e+00
  SN3q  SC1e  1 4.100000e-01    2.350000e+00
  SN3q  SX4e  1 4.100000e-01    3.310000e+00
  SN3q  SX3e  1 4.100000e-01    3.070000e+00
  SN3q  SX2e  1 4.100000e-01    2.840000e+00
  SN3q  SX1e  1 4.100000e-01    2.840000e+00
  SP6d  SN2q  1 4.100000e-01    2.350000e+00
  SP5d  SN2q  1 4.100000e-01    2.350000e+00
  SP4d  SN2q  1 4.100000e-01    2.600000e+00
  SP3d  SN2q  1 4.100000e-01    2.840000e+00
  SP2d  SN2q  1 4.100000e-01    2.840000e+00
  SP1d  SN2q  1 4.100000e-01    2.840000e+00
  SN6d  SN2q  1 4.100000e-01    2.840000e+00
  SN5d  SN2q  1 4.100000e-01    3.070000e+00
  SN4d  SN2q  1 4.100000e-01    3.070000e+00
  SN3d  SN2q  1 4.100000e-01    3.070000e+00
  SN2q  SN2d  1 4.100000e-01    3.070000e+00
  SN2q  SN1d  1 4.100000e-01    2.840000e+00
  SP6a  SN2q  1 4.100000e-01    2.350000e+00
  SP5a  SN2q  1 4.100000e-01    2.350000e+00
  SP4a  SN2q  1 4.100000e-01    2.600000e+00
  SP3a  SN2q  1 4.100000e-01    2.840000e+00
  SP2a  SN2q  1 4.100000e-01    2.840000e+00
  SP1a  SN2q  1 4.100000e-01    2.840000e+00
  SN6a  SN2q  1 4.100000e-01    2.840000e+00
  SN5a  SN2q  1 4.100000e-01    3.070000e+00
  SN4a  SN2q  1 4.100000e-01    3.070000e+00
  SN3a  SN2q  1 4.100000e-01    3.070000e+00
  SN2q  SN2a  1 4.100000e-01    3.070000e+00
  SN2q  SN1a  1 4.100000e-01    2.840000e+00
  SN2q  SC6v  1 4.100000e-01    3.070000e+00
  SN2q  SC5v  1 4.100000e-01    2.840000e+00
  SN2q  SC4v  1 4.100000e-01    2.840000e+00
  SN2q  SC3v  1 4.100000e-01    2.840000e+00
  SN2q  SC2v  1 4.100000e-01    2.600000e+00
  SN2q  SC1v  1 4.100000e-01    2.350000e+00
  SN2q  SX4v  1 4.100000e-01    3.310000e+00
  SN2q  SX3v  1 4.100000e-01    3.070000e+00
  SN2q  SX2v  1 4.100000e-01    2.840000e+00
  SN2q  SX1v  1 4.100000e-01    2.840000e+00
  SN2q  SC6e  1 4.100000e-01    3.070000e+00
  SN2q  SC5e  1 4.100000e-01    2.840000e+00
  SN2q  SC4e  1 4.100000e-01    2.840000e+00
  SN2q  SC3e  1 4.100000e-01    2.840000e+00
  SN2q  SC2e  1 4.100000e-01    2.600000e+00
  SN2q  SC1e  1 4.100000e-01    2.350000e+00
  SN2q  SX4e  1 4.100000e-01    3.310000e+00
  SN2q  SX3e  1 4.100000e-01    3.070000e+00
  SN2q  SX2e  1 4.100000e-01    2.840000e+00
  SN2q  SX1e  1 4.100000e-01    2.840000e+00
  SP6d  SN1q  1 4.100000e-01    2.200000e+00
  SP5d  SN1q  1 4.100000e-01    2.200000e+00
  SP4d  SN1q  1 4.100000e-01    2.350000e+00
  SP3d  SN1q  1 4.100000e-01    2.600000e+00
  SP2d  SN1q  1 4.100000e-01    2.840000e+00
  SP1d  SN1q  1 4.100000e-01    2.840000e+00
  SN6d  SN1q  1 4.100000e-01    2.840000e+00
  SN5d  SN1q  1 4.100000e-01    2.840000e+00
  SN4d  SN1q  1 4.100000e-01    2.840000e+00
  SN3d  SN1q  1 4.100000e-01    2.840000e+00
  SN2d  SN1q  1 4.100000e-01    2.840000e+00
  SN1q  SN1d  1 4.100000e-01    3.070000e+00
  SP6a  SN1q  1 4.100000e-01    2.200000e+00
  SP5a  SN1q  1 4.100000e-01    2.200000e+00
  SP4a  SN1q  1 4.100000e-01    2.350000e+00
  SP3a  SN1q  1 4.100000e-01    2.600000e+00
  SP2a  SN1q  1 4.100000e-01    2.840000e+00
  SP1a  SN1q  1 4.100000e-01    2.840000e+00
  SN6a  SN1q  1 4.100000e-01    2.840000e+00
  SN5a  SN1q  1 4.100000e-01    2.840000e+00
  SN4a  SN1q  1 4.100000e-01    2.840000e+00
  SN3a  SN1q  1 4.100000e-01    2.840000e+00
  SN2a  SN1q  1 4.100000e-01    2.840000e+00
  SN1q  SN1a  1 4.100000e-01    3.070000e+00
  SN1q  SC6v  1 4.100000e-01    3.310000e+00
  SN1q  SC5v  1 4.100000e-01    3.070000e+00
  SN1q  SC4v  1 4.100000e-01    3.070000e+00
  SN1q  SC3v  1 4.100000e-01    2.840000e+00
  SN1q  SC2v  1 4.100000e-01    2.600000e+00
  SN1q  SC1v  1 4.100000e-01    2.350000e+00
  SN1q  SX4v  1 4.100000e-01    3.070000e+00
  SN1q  SX3v  1 4.100000e-01    3.070000e+00
  SN1q  SX2v  1 4.100000e-01    2.840000e+00
  SN1q  SX1v  1 4.100000e-01    2.840000e+00
  SN1q  SC6e  1 4.100000e-01    3.310000e+00
  SN1q  SC5e  1 4.100000e-01    3.070000e+00
  SN1q  SC4e  1 4.100000e-01    3.070000e+00
  SN1q  SC3e  1 4.100000e-01    2.840000e+00
  SN1q  SC2e  1 4.100000e-01    2.600000e+00
  SN1q  SC1e  1 4.100000e-01    2.350000e+00
  SN1q  SX4e  1 4.100000e-01    3.070000e+00
  SN1q  SX3e  1 4.100000e-01    3.070000e+00
  SN1q  SX2e  1 4.100000e-01    2.840000e+00
  SN1q  SX1e  1 4.100000e-01    2.840000e+00
  SP6d  SC6q  1 4.100000e-01    2.200000e+00
  SP5d  SC6q  1 4.100000e-01    2.200000e+00
  SP4d  SC6q  1 4.100000e-01    2.350000e+00
  SP3d  SC6q  1 4.100000e-01    2.600000e+00
  SP2d  SC6q  1 4.100000e-01    2.600000e+00
  SP1d  SC6q  1 4.100000e-01    2.600000e+00
  SN6d  SC6q  1 4.100000e-01    2.840000e+00
  SN5d  SC6q  1 4.100000e-01    2.840000e+00
  SN4d  SC6q  1 4.100000e-01    2.840000e+00
  SN3d  SC6q  1 4.100000e-01    2.840000e+00
  SN2d  SC6q  1 4.100000e-01    2.840000e+00
  SN1d  SC6q  1 4.100000e-01    3.070000e+00
  SP6a  SC6q  1 4.100000e-01    2.200000e+00
  SP5a  SC6q  1 4.100000e-01    2.200000e+00
  SP4a  SC6q  1 4.100000e-01    2.350000e+00
  SP3a  SC6q  1 4.100000e-01    2.600000e+00
  SP2a  SC6q  1 4.100000e-01    2.600000e+00
  SP1a  SC6q  1 4.100000e-01    2.600000e+00
  SN6a  SC6q  1 4.100000e-01    2.840000e+00
  SN5a  SC6q  1 4.100000e-01    2.840000e+00
  SN4a  SC6q  1 4.100000e-01    2.840000e+00
  SN3a  SC6q  1 4.100000e-01    2.840000e+00
  SN2a  SC6q  1 4.100000e-01    2.840000e+00
  SN1a  SC6q  1 4.100000e-01    3.070000e+00
  SC6q  SC6v  1 4.100000e-01    3.310000e+00
  SC6q  SX1v  1 4.100000e-01    3.070000e+00
  SC6q  SX2v  1 4.100000e-01    3.070000e+00
  SC6q  SX3v  1 4.100000e-01    3.070000e+00
  SC6q  SX4v  1 4.100000e-01    3.070000e+00
  SC6q  SC1v  1 4.100000e-01    2.350000e+00
  SC6q  SC2v  1 4.100000e-01    2.600000e+00
  SC6q  SC3v  1 4.100000e-01    2.840000e+00
  SC6q  SC4v  1 4.100000e-01    3.070000e+00
  SC6q  SC5v  1 4.100000e-01    3.070000e+00
  SC6q  SC6e  1 4.100000e-01    3.310000e+00
  SC6q  SX1e  1 4.100000e-01    3.070000e+00
  SC6q  SX2e  1 4.100000e-01    3.070000e+00
  SC6q  SX3e  1 4.100000e-01    3.070000e+00
  SC6q  SX4e  1 4.100000e-01    3.070000e+00
  SC6q  SC1e  1 4.100000e-01    2.350000e+00
  SC6q  SC2e  1 4.100000e-01    2.600000e+00
  SC6q  SC3e  1 4.100000e-01    2.840000e+00
  SC6q  SC4e  1 4.100000e-01    3.070000e+00
  SC6q  SC5e  1 4.100000e-01    3.070000e+00
  SP6d  SC5q  1 4.100000e-01    2.040000e+00
  SP5d  SC5q  1 4.100000e-01    2.200000e+00
  SP4d  SC5q  1 4.100000e-01    2.200000e+00
  SP3d  SC5q  1 4.100000e-01    2.350000e+00
  SP2d  SC5q  1 4.100000e-01    2.350000e+00
  SP1d  SC5q  1 4.100000e-01    2.350000e+00
  SN6d  SC5q  1 4.100000e-01    2.600000e+00
  SN5d  SC5q  1 4.100000e-01    2.600000e+00
  SN4d  SC5q  1 4.100000e-01    2.600000e+00
  SN3d  SC5q  1 4.100000e-01    2.600000e+00
  SN2d  SC5q  1 4.100000e-01    2.600000e+00
  SN1d  SC5q  1 4.100000e-01    2.840000e+00
  SP6a  SC5q  1 4.100000e-01    2.040000e+00
  SP5a  SC5q  1 4.100000e-01    2.200000e+00
  SP4a  SC5q  1 4.100000e-01    2.200000e+00
  SP3a  SC5q  1 4.100000e-01    2.350000e+00
  SP2a  SC5q  1 4.100000e-01    2.350000e+00
  SP1a  SC5q  1 4.100000e-01    2.350000e+00
  SN6a  SC5q  1 4.100000e-01    2.600000e+00
  SN5a  SC5q  1 4.100000e-01    2.600000e+00
  SN4a  SC5q  1 4.100000e-01    2.600000e+00
  SN3a  SC5q  1 4.100000e-01    2.600000e+00
  SN2a  SC5q  1 4.100000e-01    2.600000e+00
  SN1a  SC5q  1 4.100000e-01    2.840000e+00
  SC6v  SC5q  1 4.100000e-01    3.070000e+00
  SC5q  SC5v  1 4.100000e-01    3.070000e+00
  SC5q  SX1v  1 4.100000e-01    3.070000e+00
  SC5q  SX2v  1 4.100000e-01    2.840000e+00
  SC5q  SX3v  1 4.100000e-01    2.840000e+00
  SC5q  SX4v  1 4.100000e-01    2.840000e+00
  SC5q  SC1v  1 4.100000e-01    2.600000e+00
  SC5q  SC2v  1 4.100000e-01    2.600000e+00
  SC5q  SC3v  1 4.100000e-01    2.840000e+00
  SC5q  SC4v  1 4.100000e-01    3.070000e+00
  SC6e  SC5q  1 4.100000e-01    3.070000e+00
  SC5q  SC5e  1 4.100000e-01    3.070000e+00
  SC5q  SX1e  1 4.100000e-01    3.070000e+00
  SC5q  SX2e  1 4.100000e-01    2.840000e+00
  SC5q  SX3e  1 4.100000e-01    2.840000e+00
  SC5q  SX4e  1 4.100000e-01    2.840000e+00
  SC5q  SC1e  1 4.100000e-01    2.600000e+00
  SC5q  SC2e  1 4.100000e-01    2.600000e+00
  SC5q  SC3e  1 4.100000e-01    2.840000e+00
  SC5q  SC4e  1 4.100000e-01    3.070000e+00
  SP6d  SC4q  1 4.100000e-01    1.910000e+00
  SP5d  SC4q  1 4.100000e-01    2.040000e+00
  SP4d  SC4q  1 4.100000e-01    2.040000e+00
  SP3d  SC4q  1 4.100000e-01    2.200000e+00
  SP2d  SC4q  1 4.100000e-01    2.200000e+00
  SP1d  SC4q  1 4.100000e-01    2.200000e+00
  SN6d  SC4q  1 4.100000e-01    2.350000e+00
  SN5d  SC4q  1 4.100000e-01    2.350000e+00
  SN4d  SC4q  1 4.100000e-01    2.600000e+00
  SN3d  SC4q  1 4.100000e-01    2.600000e+00
  SN2d  SC4q  1 4.100000e-01    2.600000e+00
  SN1d  SC4q  1 4.100000e-01    2.840000e+00
  SP6a  SC4q  1 4.100000e-01    1.910000e+00
  SP5a  SC4q  1 4.100000e-01    2.040000e+00
  SP4a  SC4q  1 4.100000e-01    2.040000e+00
  SP3a  SC4q  1 4.100000e-01    2.200000e+00
  SP2a  SC4q  1 4.100000e-01    2.200000e+00
  SP1a  SC4q  1 4.100000e-01    2.200000e+00
  SN6a  SC4q  1 4.100000e-01    2.350000e+00
  SN5a  SC4q  1 4.100000e-01    2.350000e+00
  SN4a  SC4q  1 4.100000e-01    2.600000e+00
  SN3a  SC4q  1 4.100000e-01    2.600000e+00
  SN2a  SC4q  1 4.100000e-01    2.600000e+00
  SN1a  SC4q  1 4.100000e-01    2.840000e+00
  SC6v  SC4q  1 4.100000e-01    3.070000e+00
  SC5v  SC4q  1 4.100000e-01    3.070000e+00
  SC4q  SC4v  1 4.100000e-01    3.070000e+00
  SC4q  SX1v  1 4.100000e-01    3.070000e+00
  SC4q  SX2v  1 4.100000e-01    2.840000e+00
  SC4q  SX3v  1 4.100000e-01    2.840000e+00
  SC4q  SX4v  1 4.100000e-01    2.840000e+00
  SC4q  SC1v  1 4.100000e-01    2.600000e+00
  SC4q  SC2v  1 4.100000e-01    2.840000e+00
  SC4q  SC3v  1 4.100000e-01    3.070000e+00
  SC6e  SC4q  1 4.100000e-01    3.070000e+00
  SC5e  SC4q  1 4.100000e-01    3.070000e+00
  SC4q  SC4e  1 4.100000e-01    3.070000e+00
  SC4q  SX1e  1 4.100000e-01    3.070000e+00
  SC4q  SX2e  1 4.100000e-01    2.840000e+00
  SC4q  SX3e  1 4.100000e-01    2.840000e+00
  SC4q  SX4e  1 4.100000e-01    2.840000e+00
  SC4q  SC1e  1 4.100000e-01    2.600000e+00
  SC4q  SC2e  1 4.100000e-01    2.840000e+00
  SC4q  SC3e  1 4.100000e-01    3.070000e+00
  SP6d  SC3q  1 4.100000e-01    1.750000e+00
  SP5d  SC3q  1 4.100000e-01    1.910000e+00
  SP4d  SC3q  1 4.100000e-01    1.910000e+00
  SP3d  SC3q  1 4.100000e-01    1.910000e+00
  SP2d  SC3q  1 4.100000e-01    2.040000e+00
  SP1d  SC3q  1 4.100000e-01    2.040000e+00
  SN6d  SC3q  1 4.100000e-01    2.200000e+00
  SN5d  SC3q  1 4.100000e-01    2.350000e+00
  SN4d  SC3q  1 4.100000e-01    2.350000e+00
  SN3d  SC3q  1 4.100000e-01    2.350000e+00
  SN2d  SC3q  1 4.100000e-01    2.600000e+00
  SN1d  SC3q  1 4.100000e-01    2.600000e+00
  SP6a  SC3q  1 4.100000e-01    1.750000e+00
  SP5a  SC3q  1 4.100000e-01    1.910000e+00
  SP4a  SC3q  1 4.100000e-01    1.910000e+00
  SP3a  SC3q  1 4.100000e-01    1.910000e+00
  SP2a  SC3q  1 4.100000e-01    2.040000e+00
  SP1a  SC3q  1 4.100000e-01    2.040000e+00
  SN6a  SC3q  1 4.100000e-01    2.200000e+00
  SN5a  SC3q  1 4.100000e-01    2.350000e+00
  SN4a  SC3q  1 4.100000e-01    2.350000e+00
  SN3a  SC3q  1 4.100000e-01    2.350000e+00
  SN2a  SC3q  1 4.100000e-01    2.600000e+00
  SN1a  SC3q  1 4.100000e-01    2.600000e+00
  SC6v  SC3q  1 4.100000e-01    2.840000e+00
  SC5v  SC3q  1 4.100000e-01    2.840000e+00
  SC4v  SC3q  1 4.100000e-01    3.070000e+00
  SC3q  SC3v  1 4.100000e-01    3.070000e+00
  SC3q  SX1v  1 4.100000e-01    3.070000e+00
  SC3q  SX2v  1 4.100000e-01    2.840000e+00
  SC3q  SX3v  1 4.100000e-01    2.840000e+00
  SC3q  SX4v  1 4.100000e-01    2.840000e+00
  SC3q  SC1v  1 4.100000e-01    3.070000e+00
  SC3q  SC2v  1 4.100000e-01    3.070000e+00
  SC6e  SC3q  1 4.100000e-01    2.840000e+00
  SC5e  SC3q  1 4.100000e-01    2.840000e+00
  SC4e  SC3q  1 4.100000e-01    3.070000e+00
  SC3q  SC3e  1 4.100000e-01    3.070000e+00
  SC3q  SX1e  1 4.100000e-01    3.070000e+00
  SC3q  SX2e  1 4.100000e-01    2.840000e+00
  SC3q  SX3e  1 4.100000e-01    2.840000e+00
  SC3q  SX4e  1 4.100000e-01    2.840000e+00
  SC3q  SC1e  1 4.100000e-01    3.070000e+00
  SC3q  SC2e  1 4.100000e-01    3.070000e+00
  SP6d  SC2q  1 4.100000e-01    1.750000e+00
  SP5d  SC2q  1 4.100000e-01    1.910000e+00
  SP4d  SC2q  1 4.100000e-01    1.910000e+00
  SP3d  SC2q  1 4.100000e-01    1.910000e+00
  SP2d  SC2q  1 4.100000e-01    2.040000e+00
  SP1d  SC2q  1 4.100000e-01    2.040000e+00
  SN6d  SC2q  1 4.100000e-01    2.200000e+00
  SN5d  SC2q  1 4.100000e-01    2.200000e+00
  SN4d  SC2q  1 4.100000e-01    2.200000e+00
  SN3d  SC2q  1 4.100000e-01    2.350000e+00
  SN2d  SC2q  1 4.100000e-01    2.350000e+00
  SN1d  SC2q  1 4.100000e-01    2.350000e+00
  SP6a  SC2q  1 4.100000e-01    1.750000e+00
  SP5a  SC2q  1 4.100000e-01    1.910000e+00
  SP4a  SC2q  1 4.100000e-01    1.910000e+00
  SP3a  SC2q  1 4.100000e-01    1.910000e+00
  SP2a  SC2q  1 4.100000e-01    2.040000e+00
  SP1a  SC2q  1 4.100000e-01    2.040000e+00
  SN6a  SC2q  1 4.100000e-01    2.200000e+00
  SN5a  SC2q  1 4.100000e-01    2.200000e+00
  SN4a  SC2q  1 4.100000e-01    2.200000e+00
  SN3a  SC2q  1 4.100000e-01    2.350000e+00
  SN2a  SC2q  1 4.100000e-01    2.350000e+00
  SN1a  SC2q  1 4.100000e-01    2.350000e+00
  SC6v  SC2q  1 4.100000e-01    2.600000e+00
  SC5v  SC2q  1 4.100000e-01    2.600000e+00
  SC4v  SC2q  1 4.100000e-01    2.840000e+00
  SC3v  SC2q  1 4.100000e-01    3.070000e+00
  SC2q  SC2v  1 4.100000e-01    3.070000e+00
  SC2q  SX1v  1 4.100000e-01    2.840000e+00
  SC2q  SX2v  1 4.100000e-01    2.840000e+00
  SC2q  SX3v  1 4.100000e-01    2.840000e+00
  SC2q  SX4v  1 4.100000e-01    2.350000e+00
  SC2q  SC1v  1 4.100000e-01    3.310000e+00
  SC6e  SC2q  1 4.100000e-01    2.600000e+00
  SC5e  SC2q  1 4.100000e-01    2.600000e+00
  SC4e  SC2q  1 4.100000e-01    2.840000e+00
  SC3e  SC2q  1 4.100000e-01    3.070000e+00
  SC2q  SC2e  1 4.100000e-01    3.070000e+00
  SC2q  SX1e  1 4.100000e-01    2.840000e+00
  SC2q  SX2e  1 4.100000e-01    2.840000e+00
  SC2q  SX3e  1 4.100000e-01    2.840000e+00
  SC2q  SX4e  1 4.100000e-01    2.350000e+00
  SC2q  SC1e  1 4.100000e-01    3.310000e+00
  SP6d  SC1q  1 4.180000e-01    1.400000e+00
  SP5d  SC1q  1 4.100000e-01    1.750000e+00
  SP4d  SC1q  1 4.100000e-01    1.750000e+00
  SP3d  SC1q  1 4.100000e-01    1.750000e+00
  SP2d  SC1q  1 4.100000e-01    1.910000e+00
  SP1d  SC1q  1 4.100000e-01    1.910000e+00
  SN6d  SC1q  1 4.100000e-01    2.040000e+00
  SN5d  SC1q  1 4.100000e-01    2.040000e+00
  SN4d  SC1q  1 4.100000e-01    2.040000e+00
  SN3d  SC1q  1 4.100000e-01    2.200000e+00
  SN2d  SC1q  1 4.100000e-01    2.200000e+00
  SN1d  SC1q  1 4.100000e-01    2.200000e+00
  SP6a  SC1q  1 4.180000e-01    1.400000e+00
  SP5a  SC1q  1 4.100000e-01    1.750000e+00
  SP4a  SC1q  1 4.100000e-01    1.750000e+00
  SP3a  SC1q  1 4.100000e-01    1.750000e+00
  SP2a  SC1q  1 4.100000e-01    1.910000e+00
  SP1a  SC1q  1 4.100000e-01    1.910000e+00
  SN6a  SC1q  1 4.100000e-01    2.040000e+00
  SN5a  SC1q  1 4.100000e-01    2.040000e+00
  SN4a  SC1q  1 4.100000e-01    2.040000e+00
  SN3a  SC1q  1 4.100000e-01    2.200000e+00
  SN2a  SC1q  1 4.100000e-01    2.200000e+00
  SN1a  SC1q  1 4.100000e-01    2.200000e+00
  SC6v  SC1q  1 4.100000e-01    2.350000e+00
  SC5v  SC1q  1 4.100000e-01    2.600000e+00
  SC4v  SC1q  1 4.100000e-01    2.600000e+00
  SC3v  SC1q  1 4.100000e-01    3.070000e+00
  SC2v  SC1q  1 4.100000e-01    3.310000e+00
  SC1q  SC1v  1 4.100000e-01    3.070000e+00
  SC1q  SX1v  1 4.100000e-01    2.840000e+00
  SC1q  SX2v  1 4.100000e-01    2.840000e+00
  SC1q  SX3v  1 4.100000e-01    2.840000e+00
  SC1q  SX4v  1 4.100000e-01    2.350000e+00
  SC6e  SC1q  1 4.100000e-01    2.350000e+00
  SC5e  SC1q  1 4.100000e-01    2.600000e+00
  SC4e  SC1q  1 4.100000e-01    2.600000e+00
  SC3e  SC1q  1 4.100000e-01    3.070000e+00
  SC2e  SC1q  1 4.100000e-01    3.310000e+00
  SC1q  SC1e  1 4.100000e-01    3.070000e+00
  SC1q  SX1e  1 4.100000e-01    2.840000e+00
  SC1q  SX2e  1 4.100000e-01    2.840000e+00
  SC1q  SX3e  1 4.100000e-01    2.840000e+00
  SC1q  SX4e  1 4.100000e-01    2.350000e+00
  SP6d  SX4q  1 4.100000e-01    2.350000e+00
  SP5d  SX4q  1 4.100000e-01    2.600000e+00
  SP4d  SX4q  1 4.100000e-01    2.600000e+00
  SP3d  SX4q  1 4.100000e-01    2.600000e+00
  SP2d  SX4q  1 4.100000e-01    2.600000e+00
  SP1d  SX4q  1 4.100000e-01    2.600000e+00
  SN6d  SX4q  1 4.100000e-01    2.840000e+00
  SN5d  SX4q  1 4.100000e-01    3.070000e+00
  SN4d  SX4q  1 4.100000e-01    3.310000e+00
  SN3d  SX4q  1 4.100000e-01    3.070000e+00
  SN2d  SX4q  1 4.100000e-01    3.070000e+00
  SN1d  SX4q  1 4.100000e-01    2.840000e+00
  SP6a  SX4q  1 4.100000e-01    2.350000e+00
  SP5a  SX4q  1 4.100000e-01    2.600000e+00
  SP4a  SX4q  1 4.100000e-01    2.600000e+00
  SP3a  SX4q  1 4.100000e-01    2.600000e+00
  SP2a  SX4q  1 4.100000e-01    2.600000e+00
  SP1a  SX4q  1 4.100000e-01    2.600000e+00
  SN6a  SX4q  1 4.100000e-01    2.840000e+00
  SN5a  SX4q  1 4.100000e-01    3.070000e+00
  SN4a  SX4q  1 4.100000e-01    3.310000e+00
  SN3a  SX4q  1 4.100000e-01    3.070000e+00
  SN2a  SX4q  1 4.100000e-01    3.070000e+00
  SN1a  SX4q  1 4.100000e-01    2.840000e+00
  SC6v  SX4q  1 4.100000e-01    3.070000e+00
  SC5v  SX4q  1 4.100000e-01    2.840000e+00
  SC4v  SX4q  1 4.100000e-01    2.840000e+00
  SC3v  SX4q  1 4.100000e-01    2.840000e+00
  SC2v  SX4q  1 4.100000e-01    2.350000e+00
  SC1v  SX4q  1 4.100000e-01    2.350000e+00
  SX4q  SX4v  1 4.100000e-01    3.070000e+00
  SX4q  SX1v  1 4.100000e-01    3.070000e+00
  SX4q  SX2v  1 4.100000e-01    3.070000e+00
  SX4q  SX3v  1 4.100000e-01    3.070000e+00
  SC6e  SX4q  1 4.100000e-01    3.070000e+00
  SC5e  SX4q  1 4.100000e-01    2.840000e+00
  SC4e  SX4q  1 4.100000e-01    2.840000e+00
  SC3e  SX4q  1 4.100000e-01    2.840000e+00
  SC2e  SX4q  1 4.100000e-01    2.350000e+00
  SC1e  SX4q  1 4.100000e-01    2.350000e+00
  SX4q  SX4e  1 4.100000e-01    3.070000e+00
  SX4q  SX1e  1 4.100000e-01    3.070000e+00
  SX4q  SX2e  1 4.100000e-01    3.070000e+00
  SX4q  SX3e  1 4.100000e-01    3.070000e+00
  SP6d  SX3q  1 4.100000e-01    2.350000e+00
  SP5d  SX3q  1 4.100000e-01    2.350000e+00
  SP4d  SX3q  1 4.100000e-01    2.350000e+00
  SP3d  SX3q  1 4.100000e-01    2.600000e+00
  SP2d  SX3q  1 4.100000e-01    2.600000e+00
  SP1d  SX3q  1 4.100000e-01    2.600000e+00
  SN6d  SX3q  1 4.100000e-01    2.600000e+00
  SN5d  SX3q  1 4.100000e-01    2.840000e+00
  SN4d  SX3q  1 4.100000e-01    3.070000e+00
  SN3d  SX3q  1 4.100000e-01    2.840000e+00
  SN2d  SX3q  1 4.100000e-01    2.840000e+00
  SN1d  SX3q  1 4.100000e-01    2.840000e+00
  SP6a  SX3q  1 4.100000e-01    2.350000e+00
  SP5a  SX3q  1 4.100000e-01    2.350000e+00
  SP4a  SX3q  1 4.100000e-01    2.350000e+00
  SP3a  SX3q  1 4.100000e-01    2.600000e+00
  SP2a  SX3q  1 4.100000e-01    2.600000e+00
  SP1a  SX3q  1 4.100000e-01    2.600000e+00
  SN6a  SX3q  1 4.100000e-01    2.600000e+00
  SN5a  SX3q  1 4.100000e-01    2.840000e+00
  SN4a  SX3q  1 4.100000e-01    3.070000e+00
  SN3a  SX3q  1 4.100000e-01    2.840000e+00
  SN2a  SX3q  1 4.100000e-01    2.840000e+00
  SN1a  SX3q  1 4.100000e-01    2.840000e+00
  SC6v  SX3q  1 4.100000e-01    3.070000e+00
  SC5v  SX3q  1 4.100000e-01    2.840000e+00
  SC4v  SX3q  1 4.100000e-01    2.840000e+00
  SC3v  SX3q  1 4.100000e-01    2.840000e+00
  SC2v  SX3q  1 4.100000e-01    2.840000e+00
  SC1v  SX3q  1 4.100000e-01    2.840000e+00
  SX4v  SX3q  1 4.100000e-01    3.070000e+00
  SX3q  SX3v  1 4.100000e-01    3.070000e+00
  SX3q  SX1v  1 4.100000e-01    3.310000e+00
  SX3q  SX2v  1 4.100000e-01    3.310000e+00
  SC6e  SX3q  1 4.100000e-01    3.070000e+00
  SC5e  SX3q  1 4.100000e-01    2.840000e+00
  SC4e  SX3q  1 4.100000e-01    2.840000e+00
  SC3e  SX3q  1 4.100000e-01    2.840000e+00
  SC2e  SX3q  1 4.100000e-01    2.840000e+00
  SC1e  SX3q  1 4.100000e-01    2.840000e+00
  SX4e  SX3q  1 4.100000e-01    3.070000e+00
  SX3q  SX3e  1 4.100000e-01    3.070000e+00
  SX3q  SX1e  1 4.100000e-01    3.310000e+00
  SX3q  SX2e  1 4.100000e-01    3.310000e+00
  SP6d  SX2q  1 4.100000e-01    2.200000e+00
  SP5d  SX2q  1 4.100000e-01    2.350000e+00
  SP4d  SX2q  1 4.100000e-01    2.350000e+00
  SP3d  SX2q  1 4.100000e-01    2.350000e+00
  SP2d  SX2q  1 4.100000e-01    2.350000e+00
  SP1d  SX2q  1 4.100000e-01    2.350000e+00
  SN6d  SX2q  1 4.100000e-01    2.350000e+00
  SN5d  SX2q  1 4.100000e-01    2.600000e+00
  SN4d  SX2q  1 4.100000e-01    2.600000e+00
  SN3d  SX2q  1 4.100000e-01    2.600000e+00
  SN2d  SX2q  1 4.100000e-01    2.600000e+00
  SN1d  SX2q  1 4.100000e-01    2.600000e+00
  SP6a  SX2q  1 4.100000e-01    2.200000e+00
  SP5a  SX2q  1 4.100000e-01    2.350000e+00
  SP4a  SX2q  1 4.100000e-01    2.350000e+00
  SP3a  SX2q  1 4.100000e-01    2.350000e+00
  SP2a  SX2q  1 4.100000e-01    2.350000e+00
  SP1a  SX2q  1 4.100000e-01    2.350000e+00
  SN6a  SX2q  1 4.100000e-01    2.350000e+00
  SN5a  SX2q  1 4.100000e-01    2.600000e+00
  SN4a  SX2q  1 4.100000e-01    2.600000e+00
  SN3a  SX2q  1 4.100000e-01    2.600000e+00
  SN2a  SX2q  1 4.100000e-01    2.600000e+00
  SN1a  SX2q  1 4.100000e-01    2.600000e+00
  SC6v  SX2q  1 4.100000e-01    3.070000e+00
  SC5v  SX2q  1 4.100000e-01    2.840000e+00
  SC4v  SX2q  1 4.100000e-01    2.840000e+00
  SC3v  SX2q  1 4.100000e-01    2.840000e+00
  SC2v  SX2q  1 4.100000e-01    2.840000e+00
  SC1v  SX2q  1 4.100000e-01    2.840000e+00
  SX4v  SX2q  1 4.100000e-01    3.070000e+00
  SX3v  SX2q  1 4.100000e-01    3.310000e+00
  SX2q  SX2v  1 4.100000e-01    3.310000e+00
  SX2q  SX1v  1 4.100000e-01    3.310000e+00
  SC6e  SX2q  1 4.100000e-01    3.070000e+00
  SC5e  SX2q  1 4.100000e-01    2.840000e+00
  SC4e  SX2q  1 4.100000e-01    2.840000e+00
  SC3e  SX2q  1 4.100000e-01    2.840000e+00
  SC2e  SX2q  1 4.100000e-01    2.840000e+00
  SC1e  SX2q  1 4.100000e-01    2.840000e+00
  SX4e  SX2q  1 4.100000e-01    3.070000e+00
  SX3e  SX2q  1 4.100000e-01    3.310000e+00
  SX2q  SX2e  1 4.100000e-01    3.310000e+00
  SX2q  SX1e  1 4.100000e-01    3.310000e+00
  SP6d  SX1q  1 4.100000e-01    2.040000e+00
  SP5d  SX1q  1 4.100000e-01    2.040000e+00
  SP4d  SX1q  1 4.100000e-01    2.200000e+00
  SP3d  SX1q  1 4.100000e-01    2.200000e+00
  SP2d  SX1q  1 4.100000e-01    2.200000e+00
  SP1d  SX1q  1 4.100000e-01    2.200000e+00
  SN6d  SX1q  1 4.100000e-01    2.200000e+00
  SN5d  SX1q  1 4.100000e-01    2.350000e+00
  SN4d  SX1q  1 4.100000e-01    2.350000e+00
  SN3d  SX1q  1 4.100000e-01    2.600000e+00
  SN2d  SX1q  1 4.100000e-01    2.600000e+00
  SN1d  SX1q  1 4.100000e-01    2.600000e+00
  SP6a  SX1q  1 4.100000e-01    2.040000e+00
  SP5a  SX1q  1 4.100000e-01    2.040000e+00
  SP4a  SX1q  1 4.100000e-01    2.200000e+00
  SP3a  SX1q  1 4.100000e-01    2.200000e+00
  SP2a  SX1q  1 4.100000e-01    2.200000e+00
  SP1a  SX1q  1 4.100000e-01    2.200000e+00
  SN6a  SX1q  1 4.100000e-01    2.200000e+00
  SN5a  SX1q  1 4.100000e-01    2.350000e+00
  SN4a  SX1q  1 4.100000e-01    2.350000e+00
  SN3a  SX1q  1 4.100000e-01    2.600000e+00
  SN2a  SX1q  1 4.100000e-01    2.600000e+00
  SN1a  SX1q  1 4.100000e-01    2.600000e+00
  SC6v  SX1q  1 4.100000e-01    3.070000e+00
  SC5v  SX1q  1 4.100000e-01    3.070000e+00
  SC4v  SX1q  1 4.100000e-01    3.070000e+00
  SC3v  SX1q  1 4.100000e-01    3.070000e+00
  SC2v  SX1q  1 4.100000e-01    2.840000e+00
  SC1v  SX1q  1 4.100000e-01    2.840000e+00
  SX4v  SX1q  1 4.100000e-01    3.070000e+00
  SX3v  SX1q  1 4.100000e-01    3.310000e+00
  SX2v  SX1q  1 4.100000e-01    3.310000e+00
  SX1q  SX1v  1 4.100000e-01    3.550000e+00
  SC6e  SX1q  1 4.100000e-01    3.070000e+00
  SC5e  SX1q  1 4.100000e-01    3.070000e+00
  SC4e  SX1q  1 4.100000e-01    3.070000e+00
  SC3e  SX1q  1 4.100000e-01    3.070000e+00
  SC2e  SX1q  1 4.100000e-01    2.840000e+00
  SC1e  SX1q  1 4.100000e-01    2.840000e+00
  SX4e  SX1q  1 4.100000e-01    3.070000e+00
  SX3e  SX1q  1 4.100000e-01    3.310000e+00
  SX2e  SX1q  1 4.100000e-01    3.310000e+00
  SX1q  SX1e  1 4.100000e-01    3.550000e+00
  SP6q  SP6q  1 4.100000e-01    4.840000e+00
  SP6q  SP5q  1 4.100000e-01    4.550000e+00
  SP6q  SP4q  1 4.100000e-01    4.290000e+00
  SP6q  SP3q  1 4.100000e-01    4.040000e+00
  SP6q  SP2q  1 4.100000e-01    4.040000e+00
  SP6q  SP1q  1 4.100000e-01    3.820000e+00
  SP6q  SN6q  1 4.100000e-01    3.550000e+00
  SP6q  SN5q  1 4.100000e-01    3.070000e+00
  SP6q  SN4q  1 4.100000e-01    2.840000e+00
  SP6q  SN3q  1 4.100000e-01    2.600000e+00
  SP6q  SN2q  1 4.100000e-01    2.350000e+00
  SP6q  SN1q  1 4.100000e-01    2.200000e+00
  SP6q  SC6q  1 4.100000e-01    2.200000e+00
  SP6q  SC5q  1 4.100000e-01    2.040000e+00
  SP6q  SC4q  1 4.100000e-01    1.910000e+00
  SP6q  SC3q  1 4.100000e-01    1.750000e+00
  SP6q  SC2q  1 4.100000e-01    1.750000e+00
  SP6q  SC1q  1 4.180000e-01    1.400000e+00
  SP6q  SX4q  1 4.100000e-01    2.350000e+00
  SP6q  SX3q  1 4.100000e-01    2.350000e+00
  SP6q  SX2q  1 4.100000e-01    2.200000e+00
  SP6q  SX1q  1 4.100000e-01    2.040000e+00
  SP5q  SP5q  1 4.100000e-01    4.290000e+00
  SP5q  SP4q  1 4.100000e-01    4.040000e+00
  SP5q  SP3q  1 4.100000e-01    3.820000e+00
  SP5q  SP2q  1 4.100000e-01    3.820000e+00
  SP5q  SP1q  1 4.100000e-01    3.550000e+00
  SP5q  SN6q  1 4.100000e-01    3.310000e+00
  SP5q  SN5q  1 4.100000e-01    3.070000e+00
  SP5q  SN4q  1 4.100000e-01    3.070000e+00
  SP5q  SN3q  1 4.100000e-01    2.600000e+00
  SP5q  SN2q  1 4.100000e-01    2.350000e+00
  SP5q  SN1q  1 4.100000e-01    2.200000e+00
  SP5q  SC6q  1 4.100000e-01    2.200000e+00
  SP5q  SC5q  1 4.100000e-01    2.200000e+00
  SP5q  SC4q  1 4.100000e-01    2.040000e+00
  SP5q  SC3q  1 4.100000e-01    1.910000e+00
  SP5q  SC2q  1 4.100000e-01    1.910000e+00
  SP5q  SC1q  1 4.100000e-01    1.750000e+00
  SP5q  SX4q  1 4.100000e-01    2.600000e+00
  SP5q  SX3q  1 4.100000e-01    2.350000e+00
  SP5q  SX2q  1 4.100000e-01    2.350000e+00
  SP5q  SX1q  1 4.100000e-01    2.040000e+00
  SP4q  SP4q  1 4.100000e-01    4.040000e+00
  SP4q  SP3q  1 4.100000e-01    3.820000e+00
  SP4q  SP2q  1 4.100000e-01    3.820000e+00
  SP4q  SP1q  1 4.100000e-01    3.550000e+00
  SP4q  SN6q  1 4.100000e-01    3.310000e+00
  SP4q  SN5q  1 4.100000e-01    3.070000e+00
  SP4q  SN4q  1 4.100000e-01    3.070000e+00
  SP4q  SN3q  1 4.100000e-01    2.840000e+00
  SP4q  SN2q  1 4.100000e-01    2.600000e+00
  SP4q  SN1q  1 4.100000e-01    2.350000e+00
  SP4q  SC6q  1 4.100000e-01    2.350000e+00
  SP4q  SC5q  1 4.100000e-01    2.200000e+00
  SP4q  SC4q  1 4.100000e-01    2.040000e+00
  SP4q  SC3q  1 4.100000e-01    1.910000e+00
  SP4q  SC2q  1 4.100000e-01    1.910000e+00
  SP4q  SC1q  1 4.100000e-01    1.750000e+00
  SP4q  SX4q  1 4.100000e-01    2.600000e+00
  SP4q  SX3q  1 4.100000e-01    2.350000e+00
  SP4q  SX2q  1 4.100000e-01    2.350000e+00
  SP4q  SX1q  1 4.100000e-01    2.200000e+00
  SP3q  SP3q  1 4.100000e-01    3.820000e+00
  SP3q  SP2q  1 4.100000e-01    3.820000e+00
  SP3q  SP1q  1 4.100000e-01    3.550000e+00
  SP3q  SN6q  1 4.100000e-01    3.310000e+00
  SP3q  SN5q  1 4.100000e-01    3.070000e+00
  SP3q  SN4q  1 4.100000e-01    3.070000e+00
  SP3q  SN3q  1 4.100000e-01    2.840000e+00
  SP3q  SN2q  1 4.100000e-01    2.840000e+00
  SP3q  SN1q  1 4.100000e-01    2.600000e+00
  SP3q  SC6q  1 4.100000e-01    2.600000e+00
  SP3q  SC5q  1 4.100000e-01    2.350000e+00
  SP3q  SC4q  1 4.100000e-01    2.200000e+00
  SP3q  SC3q  1 4.100000e-01    1.910000e+00
  SP3q  SC2q  1 4.100000e-01    1.910000e+00
  SP3q  SC1q  1 4.100000e-01    1.750000e+00
  SP3q  SX4q  1 4.100000e-01    2.600000e+00
  SP3q  SX3q  1 4.100000e-01    2.600000e+00
  SP3q  SX2q  1 4.100000e-01    2.350000e+00
  SP3q  SX1q  1 4.100000e-01    2.200000e+00
  SP2q  SP2q  1 4.100000e-01    3.820000e+00
  SP2q  SP1q  1 4.100000e-01    3.550000e+00
  SP2q  SN6q  1 4.100000e-01    3.550000e+00
  SP2q  SN5q  1 4.100000e-01    3.310000e+00
  SP2q  SN4q  1 4.100000e-01    3.070000e+00
  SP2q  SN3q  1 4.100000e-01    2.840000e+00
  SP2q  SN2q  1 4.100000e-01    2.840000e+00
  SP2q  SN1q  1 4.100000e-01    2.840000e+00
  SP2q  SC6q  1 4.100000e-01    2.600000e+00
  SP2q  SC5q  1 4.100000e-01    2.350000e+00
  SP2q  SC4q  1 4.100000e-01    2.200000e+00
  SP2q  SC3q  1 4.100000e-01    2.040000e+00
  SP2q  SC2q  1 4.100000e-01    2.040000e+00
  SP2q  SC1q  1 4.100000e-01    1.910000e+00
  SP2q  SX4q  1 4.100000e-01    2.600000e+00
  SP2q  SX3q  1 4.100000e-01    2.600000e+00
  SP2q  SX2q  1 4.100000e-01    2.350000e+00
  SP2q  SX1q  1 4.100000e-01    2.200000e+00
  SP1q  SP1q  1 4.100000e-01    3.550000e+00
  SP1q  SN6q  1 4.100000e-01    3.550000e+00
  SP1q  SN5q  1 4.100000e-01    3.310000e+00
  SP1q  SN4q  1 4.100000e-01    3.310000e+00
  SP1q  SN3q  1 4.100000e-01    2.840000e+00
  SP1q  SN2q  1 4.100000e-01    2.840000e+00
  SP1q  SN1q  1 4.100000e-01    2.840000e+00
  SP1q  SC6q  1 4.100000e-01    2.600000e+00
  SP1q  SC5q  1 4.100000e-01    2.350000e+00
  SP1q  SC4q  1 4.100000e-01    2.200000e+00
  SP1q  SC3q  1 4.100000e-01    2.040000e+00
  SP1q  SC2q  1 4.100000e-01    2.040000e+00
  SP1q  SC1q  1 4.100000e-01    1.910000e+00
  SP1q  SX4q  1 4.100000e-01    2.600000e+00
  SP1q  SX3q  1 4.100000e-01    2.600000e+00
  SP1q  SX2q  1 4.100000e-01    2.350000e+00
  SP1q  SX1q  1 4.100000e-01    2.200000e+00
  SN6q  SN6q  1 4.100000e-01    3.550000e+00
  SN6q  SN5q  1 4.100000e-01    3.550000e+00
  SN6q  SN4q  1 4.100000e-01    3.550000e+00
  SN6q  SN3q  1 4.100000e-01    3.070000e+00
  SN6q  SN2q  1 4.100000e-01    2.840000e+00
  SN6q  SN1q  1 4.100000e-01    2.840000e+00
  SN6q  SC6q  1 4.100000e-01    2.840000e+00
  SN6q  SC5q  1 4.100000e-01    2.600000e+00
  SN6q  SC4q  1 4.100000e-01    2.350000e+00
  SN6q  SC3q  1 4.100000e-01    2.200000e+00
  SN6q  SC2q  1 4.100000e-01    2.200000e+00
  SN6q  SC1q  1 4.100000e-01    2.040000e+00
  SN6q  SX4q  1 4.100000e-01    2.840000e+00
  SN6q  SX3q  1 4.100000e-01    2.600000e+00
  SN6q  SX2q  1 4.100000e-01    2.350000e+00
  SN6q  SX1q  1 4.100000e-01    2.200000e+00
  SN5q  SN5q  1 4.100000e-01    3.310000e+00
  SN5q  SN4q  1 4.100000e-01    3.310000e+00
  SN5q  SN3q  1 4.100000e-01    3.070000e+00
  SN5q  SN2q  1 4.100000e-01    3.070000e+00
  SN5q  SN1q  1 4.100000e-01    2.840000e+00
  SN5q  SC6q  1 4.100000e-01    2.840000e+00
  SN5q  SC5q  1 4.100000e-01    2.600000e+00
  SN5q  SC4q  1 4.100000e-01    2.350000e+00
  SN5q  SC3q  1 4.100000e-01    2.350000e+00
  SN5q  SC2q  1 4.100000e-01    2.200000e+00
  SN5q  SC1q  1 4.100000e-01    2.040000e+00
  SN5q  SX4q  1 4.100000e-01    3.070000e+00
  SN5q  SX3q  1 4.100000e-01    2.840000e+00
  SN5q  SX2q  1 4.100000e-01    2.600000e+00
  SN5q  SX1q  1 4.100000e-01    2.350000e+00
  SN4q  SN4q  1 4.100000e-01    3.310000e+00
  SN4q  SN3q  1 4.100000e-01    3.070000e+00
  SN4q  SN2q  1 4.100000e-01    3.070000e+00
  SN4q  SN1q  1 4.100000e-01    2.840000e+00
  SN4q  SC6q  1 4.100000e-01    2.840000e+00
  SN4q  SC5q  1 4.100000e-01    2.600000e+00
  SN4q  SC4q  1 4.100000e-01    2.600000e+00
  SN4q  SC3q  1 4.100000e-01    2.350000e+00
  SN4q  SC2q  1 4.100000e-01    2.200000e+00
  SN4q  SC1q  1 4.100000e-01    2.040000e+00
  SN4q  SX4q  1 4.100000e-01    3.310000e+00
  SN4q  SX3q  1 4.100000e-01    3.070000e+00
  SN4q  SX2q  1 4.100000e-01    2.600000e+00
  SN4q  SX1q  1 4.100000e-01    2.350000e+00
  SN3q  SN3q  1 4.100000e-01    3.070000e+00
  SN3q  SN2q  1 4.100000e-01    3.070000e+00
  SN3q  SN1q  1 4.100000e-01    2.840000e+00
  SN3q  SC6q  1 4.100000e-01    2.840000e+00
  SN3q  SC5q  1 4.100000e-01    2.600000e+00
  SN3q  SC4q  1 4.100000e-01    2.600000e+00
  SN3q  SC3q  1 4.100000e-01    2.350000e+00
  SN3q  SC2q  1 4.100000e-01    2.350000e+00
  SN3q  SC1q  1 4.100000e-01    2.200000e+00
  SN3q  SX4q  1 4.100000e-01    3.070000e+00
  SN3q  SX3q  1 4.100000e-01    2.840000e+00
  SN3q  SX2q  1 4.100000e-01    2.600000e+00
  SN3q  SX1q  1 4.100000e-01    2.600000e+00
  SN2q  SN2q  1 4.100000e-01    3.070000e+00
  SN2q  SN1q  1 4.100000e-01    2.840000e+00
  SN2q  SC6q  1 4.100000e-01    2.840000e+00
  SN2q  SC5q  1 4.100000e-01    2.600000e+00
  SN2q  SC4q  1 4.100000e-01    2.600000e+00
  SN2q  SC3q  1 4.100000e-01    2.600000e+00
  SN2q  SC2q  1 4.100000e-01    2.350000e+00
  SN2q  SC1q  1 4.100000e-01    2.200000e+00
  SN2q  SX4q  1 4.100000e-01    3.070000e+00
  SN2q  SX3q  1 4.100000e-01    2.840000e+00
  SN2q  SX2q  1 4.100000e-01    2.600000e+00
  SN2q  SX1q  1 4.100000e-01    2.600000e+00
  SN1q  SN1q  1 4.100000e-01    3.070000e+00
  SN1q  SC6q  1 4.100000e-01    3.070000e+00
  SN1q  SC5q  1 4.100000e-01    2.840000e+00
  SN1q  SC4q  1 4.100000e-01    2.840000e+00
  SN1q  SC3q  1 4.100000e-01    2.600000e+00
  SN1q  SC2q  1 4.100000e-01    2.350000e+00
  SN1q  SC1q  1 4.100000e-01    2.200000e+00
  SN1q  SX4q  1 4.100000e-01    2.840000e+00
  SN1q  SX3q  1 4.100000e-01    2.840000e+00
  SN1q  SX2q  1 4.100000e-01    2.600000e+00
  SN1q  SX1q  1 4.100000e-01    2.600000e+00
  SC6q  SC6q  1 4.100000e-01    3.070000e+00
  SC6q  SC5q  1 4.100000e-01    2.840000e+00
  SC6q  SC4q  1 4.100000e-01    2.840000e+00
  SC6q  SC3q  1 4.100000e-01    2.600000e+00
  SC6q  SC2q  1 4.100000e-01    2.350000e+00
  SC6q  SC1q  1 4.100000e-01    2.200000e+00
  SC6q  SX4q  1 4.100000e-01    2.840000e+00
  SC6q  SX3q  1 4.100000e-01    2.840000e+00
  SC6q  SX2q  1 4.100000e-01    2.840000e+00
  SC6q  SX1q  1 4.100000e-01    2.840000e+00
  SC5q  SC5q  1 4.100000e-01    2.840000e+00
  SC5q  SC4q  1 4.100000e-01    2.840000e+00
  SC5q  SC3q  1 4.100000e-01    2.600000e+00
  SC5q  SC2q  1 4.100000e-01    2.350000e+00
  SC5q  SC1q  1 4.100000e-01    2.350000e+00
  SC5q  SX4q  1 4.100000e-01    2.600000e+00
  SC5q  SX3q  1 4.100000e-01    2.600000e+00
  SC5q  SX2q  1 4.100000e-01    2.600000e+00
  SC5q  SX1q  1 4.100000e-01    2.840000e+00
  SC4q  SC4q  1 4.100000e-01    2.840000e+00
  SC4q  SC3q  1 4.100000e-01    2.840000e+00
  SC4q  SC2q  1 4.100000e-01    2.600000e+00
  SC4q  SC1q  1 4.100000e-01    2.350000e+00
  SC4q  SX4q  1 4.100000e-01    2.600000e+00
  SC4q  SX3q  1 4.100000e-01    2.600000e+00
  SC4q  SX2q  1 4.100000e-01    2.600000e+00
  SC4q  SX1q  1 4.100000e-01    2.840000e+00
  SC3q  SC3q  1 4.100000e-01    2.840000e+00
  SC3q  SC2q  1 4.100000e-01    2.840000e+00
  SC3q  SC1q  1 4.100000e-01    2.840000e+00
  SC3q  SX4q  1 4.100000e-01    2.600000e+00
  SC3q  SX3q  1 4.100000e-01    2.600000e+00
  SC3q  SX2q  1 4.100000e-01    2.600000e+00
  SC3q  SX1q  1 4.100000e-01    2.840000e+00
  SC2q  SC2q  1 4.100000e-01    2.840000e+00
  SC2q  SC1q  1 4.100000e-01    3.070000e+00
  SC2q  SX4q  1 4.100000e-01    2.200000e+00
  SC2q  SX3q  1 4.100000e-01    2.600000e+00
  SC2q  SX2q  1 4.100000e-01    2.600000e+00
  SC2q  SX1q  1 4.100000e-01    2.600000e+00
  SC1q  SC1q  1 4.100000e-01    2.840000e+00
  SC1q  SX4q  1 4.100000e-01    2.200000e+00
  SC1q  SX3q  1 4.100000e-01    2.600000e+00
  SC1q  SX2q  1 4.100000e-01    2.600000e+00
  SC1q  SX1q  1 4.100000e-01    2.600000e+00
  SX4q  SX4q  1 4.100000e-01    2.840000e+00
  SX4q  SX3q  1 4.100000e-01    2.840000e+00
  SX4q  SX2q  1 4.100000e-01    2.840000e+00
  SX4q  SX1q  1 4.100000e-01    2.840000e+00
  SX3q  SX3q  1 4.100000e-01    2.840000e+00
  SX3q  SX2q  1 4.100000e-01    3.070000e+00
  SX3q  SX1q  1 4.100000e-01    3.070000e+00
  SX2q  SX2q  1 4.100000e-01    3.070000e+00
  SX2q  SX1q  1 4.100000e-01    3.070000e+00
  SX1q  SX1q  1 4.100000e-01    3.310000e+00
 SP6dq SP6dq  1 4.100000e-01    4.550000e+00
 SP6dq SP5dq  1 4.100000e-01    4.290000e+00
 SP6dq SP4dq  1 4.100000e-01    4.040000e+00
 SP6dq SP3dq  1 4.100000e-01    3.820000e+00
 SP6dq SP2dq  1 4.100000e-01    3.820000e+00
 SP6dq SP1dq  1 4.100000e-01    3.550000e+00
 SP6dq SN6dq  1 4.100000e-01    3.310000e+00
 SP6dq SN5dq  1 4.100000e-01    2.840000e+00
 SP6dq SN4dq  1 4.100000e-01    2.600000e+00
 SP6dq SN3dq  1 4.100000e-01    2.600000e+00
 SP6dq SN2dq  1 4.100000e-01    2.350000e+00
 SP6dq SN1dq  1 4.100000e-01    2.200000e+00
 SP6dq SP6aq  1 4.100000e-01    5.130000e+00
 SP6dq SP5aq  1 4.100000e-01    4.840000e+00
 SP6dq SP4aq  1 4.100000e-01    4.550000e+00
 SP6dq SP3aq  1 4.100000e-01    4.290000e+00
 SP6dq SP2aq  1 4.100000e-01    4.290000e+00
 SP6dq SP1aq  1 4.100000e-01    4.040000e+00
 SP6dq SN6aq  1 4.100000e-01    3.820000e+00
 SP6dq SN5aq  1 4.100000e-01    3.310000e+00
 SP6dq SN4aq  1 4.100000e-01    3.070000e+00
 SP6dq SN3aq  1 4.100000e-01    2.600000e+00
 SP6dq SN2aq  1 4.100000e-01    2.350000e+00
 SP6dq SN1aq  1 4.100000e-01    2.200000e+00
 SP6dq SC6vq  1 4.100000e-01    2.040000e+00
 SP6dq SC5vq  1 4.100000e-01    1.910000e+00
 SP6dq SC4vq  1 4.100000e-01    1.750000e+00
 SP6dq SC3vq  1 4.140000e-01    1.560000e+00
 SP6dq SC2vq  1 4.140000e-01    1.560000e+00
 SP6dq SC1vq  1 4.210000e-01    1.250000e+00
 SP6dq SX4vq  1 4.100000e-01    2.200000e+00
 SP6dq SX3vq  1 4.100000e-01    2.200000e+00
 SP6dq SX2vq  1 4.100000e-01    2.040000e+00
 SP6dq SX1vq  1 4.100000e-01    1.910000e+00
 SP6dq SC6eq  1 4.100000e-01    2.350000e+00
 SP6dq SC5eq  1 4.100000e-01    2.200000e+00
 SP6dq SC4eq  1 4.100000e-01    2.040000e+00
 SP6dq SC3eq  1 4.100000e-01    1.910000e+00
 SP6dq SC2eq  1 4.100000e-01    1.910000e+00
 SP6dq SC1eq  1 4.140000e-01    1.560000e+00
 SP6dq SX4eq  1 4.100000e-01    2.600000e+00
 SP6dq SX3eq  1 4.100000e-01    2.600000e+00
 SP6dq SX2eq  1 4.100000e-01    2.350000e+00
 SP6dq SX1eq  1 4.100000e-01    2.200000e+00
 SP5dq SP5dq  1 4.100000e-01    4.040000e+00
 SP5dq SP4dq  1 4.100000e-01    3.820000e+00
 SP5dq SP3dq  1 4.100000e-01    3.550000e+00
 SP5dq SP2dq  1 4.100000e-01    3.550000e+00
 SP5dq SP1dq  1 4.100000e-01    3.310000e+00
 SP5dq SN6dq  1 4.100000e-01    3.070000e+00
 SP5dq SN5dq  1 4.100000e-01    2.840000e+00
 SP5dq SN4dq  1 4.100000e-01    2.840000e+00
 SP5dq SN3dq  1 4.100000e-01    2.600000e+00
 SP5dq SN2dq  1 4.100000e-01    2.350000e+00
 SP5dq SN1dq  1 4.100000e-01    2.200000e+00
 SP5dq SP5aq  1 4.100000e-01    4.550000e+00
 SP5dq SP4aq  1 4.100000e-01    4.290000e+00
 SP5dq SP3aq  1 4.100000e-01    4.040000e+00
 SP5dq SP2aq  1 4.100000e-01    4.040000e+00
 SP5dq SP1aq  1 4.100000e-01    3.820000e+00
 SP5dq SN6aq  1 4.100000e-01    3.550000e+00
 SP5dq SN5aq  1 4.100000e-01    3.310000e+00
 SP5dq SN4aq  1 4.100000e-01    3.310000e+00
 SP5dq SN3aq  1 4.100000e-01    2.600000e+00
 SP5dq SN2aq  1 4.100000e-01    2.350000e+00
 SP5dq SN1aq  1 4.100000e-01    2.200000e+00
 SP5dq SC6vq  1 4.100000e-01    2.040000e+00
 SP5dq SC5vq  1 4.100000e-01    2.040000e+00
 SP5dq SC4vq  1 4.100000e-01    1.910000e+00
 SP5dq SC3vq  1 4.100000e-01    1.750000e+00
 SP5dq SC2vq  1 4.100000e-01    1.750000e+00
 SP5dq SC1vq  1 4.140000e-01    1.560000e+00
 SP5dq SX4vq  1 4.100000e-01    2.350000e+00
 SP5dq SX3vq  1 4.100000e-01    2.200000e+00
 SP5dq SX2vq  1 4.100000e-01    2.200000e+00
 SP5dq SX1vq  1 4.100000e-01    1.910000e+00
 SP5dq SC6eq  1 4.100000e-01    2.350000e+00
 SP5dq SC5eq  1 4.100000e-01    2.350000e+00
 SP5dq SC4eq  1 4.100000e-01    2.200000e+00
 SP5dq SC3eq  1 4.100000e-01    2.040000e+00
 SP5dq SC2eq  1 4.100000e-01    2.040000e+00
 SP5dq SC1eq  1 4.100000e-01    1.910000e+00
 SP5dq SX4eq  1 4.100000e-01    2.840000e+00
 SP5dq SX3eq  1 4.100000e-01    2.600000e+00
 SP5dq SX2eq  1 4.100000e-01    2.600000e+00
 SP5dq SX1eq  1 4.100000e-01    2.200000e+00
 SP4dq SP4dq  1 4.100000e-01    3.820000e+00
 SP4dq SP3dq  1 4.100000e-01    3.550000e+00
 SP4dq SP2dq  1 4.100000e-01    3.550000e+00
 SP4dq SP1dq  1 4.100000e-01    3.310000e+00
 SP4dq SN6dq  1 4.100000e-01    3.070000e+00
 SP4dq SN5dq  1 4.100000e-01    2.840000e+00
 SP4dq SN4dq  1 4.100000e-01    2.840000e+00
 SP4dq SN3dq  1 4.100000e-01    2.600000e+00
 SP4dq SN2dq  1 4.100000e-01    2.600000e+00
 SP4dq SN1dq  1 4.100000e-01    2.350000e+00
 SP4dq SP4aq  1 4.100000e-01    4.290000e+00
 SP4dq SP3aq  1 4.100000e-01    4.040000e+00
 SP4dq SP2aq  1 4.100000e-01    4.040000e+00
 SP4dq SP1aq  1 4.100000e-01    3.820000e+00
 SP4dq SN6aq  1 4.100000e-01    3.550000e+00
 SP4dq SN5aq  1 4.100000e-01    3.310000e+00
 SP4dq SN4aq  1 4.100000e-01    3.310000e+00
 SP4dq SN3aq  1 4.100000e-01    3.070000e+00
 SP4dq SN2aq  1 4.100000e-01    2.600000e+00
 SP4dq SN1aq  1 4.100000e-01    2.350000e+00
 SP4dq SC6vq  1 4.100000e-01    2.200000e+00
 SP4dq SC5vq  1 4.100000e-01    2.040000e+00
 SP4dq SC4vq  1 4.100000e-01    1.910000e+00
 SP4dq SC3vq  1 4.100000e-01    1.750000e+00
 SP4dq SC2vq  1 4.100000e-01    1.750000e+00
 SP4dq SC1vq  1 4.140000e-01    1.560000e+00
 SP4dq SX4vq  1 4.100000e-01    2.350000e+00
 SP4dq SX3vq  1 4.100000e-01    2.200000e+00
 SP4dq SX2vq  1 4.100000e-01    2.200000e+00
 SP4dq SX1vq  1 4.100000e-01    2.040000e+00
 SP4dq SC6eq  1 4.100000e-01    2.600000e+00
 SP4dq SC5eq  1 4.100000e-01    2.350000e+00
 SP4dq SC4eq  1 4.100000e-01    2.200000e+00
 SP4dq SC3eq  1 4.100000e-01    2.040000e+00
 SP4dq SC2eq  1 4.100000e-01    2.040000e+00
 SP4dq SC1eq  1 4.100000e-01    1.910000e+00
 SP4dq SX4eq  1 4.100000e-01    2.840000e+00
 SP4dq SX3eq  1 4.100000e-01    2.600000e+00
 SP4dq SX2eq  1 4.100000e-01    2.600000e+00
 SP4dq SX1eq  1 4.100000e-01    2.350000e+00
 SP3dq SP3dq  1 4.100000e-01    3.550000e+00
 SP3dq SP2dq  1 4.100000e-01    3.550000e+00
 SP3dq SP1dq  1 4.100000e-01    3.310000e+00
 SP3dq SN6dq  1 4.100000e-01    3.070000e+00
 SP3dq SN5dq  1 4.100000e-01    2.840000e+00
 SP3dq SN4dq  1 4.100000e-01    2.840000e+00
 SP3dq SN3dq  1 4.100000e-01    2.600000e+00
 SP3dq SN2dq  1 4.100000e-01    2.600000e+00
 SP3dq SN1dq  1 4.100000e-01    2.600000e+00
 SP3dq SP3aq  1 4.100000e-01    4.040000e+00
 SP3dq SP2aq  1 4.100000e-01    4.040000e+00
 SP3dq SP1aq  1 4.100000e-01    3.820000e+00
 SP3dq SN6aq  1 4.100000e-01    3.550000e+00
 SP3dq SN5aq  1 4.100000e-01    3.310000e+00
 SP3dq SN4aq  1 4.100000e-01    3.310000e+00
 SP3dq SN3aq  1 4.100000e-01    3.070000e+00
 SP3dq SN2aq  1 4.100000e-01    3.070000e+00
 SP3dq SN1aq  1 4.100000e-01    2.600000e+00
 SP3dq SC6vq  1 4.100000e-01    2.350000e+00
 SP3dq SC5vq  1 4.100000e-01    2.200000e+00
 SP3dq SC4vq  1 4.100000e-01    2.040000e+00
 SP3dq SC3vq  1 4.100000e-01    1.750000e+00
 SP3dq SC2vq  1 4.100000e-01    1.750000e+00
 SP3dq SC1vq  1 4.140000e-01    1.560000e+00
 SP3dq SX4vq  1 4.100000e-01    2.350000e+00
 SP3dq SX3vq  1 4.100000e-01    2.350000e+00
 SP3dq SX2vq  1 4.100000e-01    2.200000e+00
 SP3dq SX1vq  1 4.100000e-01    2.040000e+00
 SP3dq SC6eq  1 4.100000e-01    2.840000e+00
 SP3dq SC5eq  1 4.100000e-01    2.600000e+00
 SP3dq SC4eq  1 4.100000e-01    2.350000e+00
 SP3dq SC3eq  1 4.100000e-01    2.040000e+00
 SP3dq SC2eq  1 4.100000e-01    2.040000e+00
 SP3dq SC1eq  1 4.100000e-01    1.910000e+00
 SP3dq SX4eq  1 4.100000e-01    2.840000e+00
 SP3dq SX3eq  1 4.100000e-01    2.840000e+00
 SP3dq SX2eq  1 4.100000e-01    2.600000e+00
 SP3dq SX1eq  1 4.100000e-01    2.350000e+00
 SP2dq SP2dq  1 4.100000e-01    3.550000e+00
 SP2dq SP1dq  1 4.100000e-01    3.310000e+00
 SP2dq SN6dq  1 4.100000e-01    3.310000e+00
 SP2dq SN5dq  1 4.100000e-01    3.070000e+00
 SP2dq SN4dq  1 4.100000e-01    2.840000e+00
 SP2dq SN3dq  1 4.100000e-01    2.600000e+00
 SP2dq SN2dq  1 4.100000e-01    2.600000e+00
 SP2dq SN1dq  1 4.100000e-01    2.600000e+00
 SP2dq SP2aq  1 4.100000e-01    4.040000e+00
 SP2dq SP1aq  1 4.100000e-01    3.820000e+00
 SP2dq SN6aq  1 4.100000e-01    3.820000e+00
 SP2dq SN5aq  1 4.100000e-01    3.550000e+00
 SP2dq SN4aq  1 4.100000e-01    3.310000e+00
 SP2dq SN3aq  1 4.100000e-01    3.070000e+00
 SP2dq SN2aq  1 4.100000e-01    3.070000e+00
 SP2dq SN1aq  1 4.100000e-01    3.070000e+00
 SP2dq SC6vq  1 4.100000e-01    2.350000e+00
 SP2dq SC5vq  1 4.100000e-01    2.200000e+00
 SP2dq SC4vq  1 4.100000e-01    2.040000e+00
 SP2dq SC3vq  1 4.100000e-01    1.910000e+00
 SP2dq SC2vq  1 4.100000e-01    1.910000e+00
 SP2dq SC1vq  1 4.100000e-01    1.750000e+00
 SP2dq SX4vq  1 4.100000e-01    2.350000e+00
 SP2dq SX3vq  1 4.100000e-01    2.350000e+00
 SP2dq SX2vq  1 4.100000e-01    2.200000e+00
 SP2dq SX1vq  1 4.100000e-01    2.040000e+00
 SP2dq SC6eq  1 4.100000e-01    2.840000e+00
 SP2dq SC5eq  1 4.100000e-01    2.600000e+00
 SP2dq SC4eq  1 4.100000e-01    2.350000e+00
 SP2dq SC3eq  1 4.100000e-01    2.200000e+00
 SP2dq SC2eq  1 4.100000e-01    2.200000e+00
 SP2dq SC1eq  1 4.100000e-01    2.040000e+00
 SP2dq SX4eq  1 4.100000e-01    2.840000e+00
 SP2dq SX3eq  1 4.100000e-01    2.840000e+00
 SP2dq SX2eq  1 4.100000e-01    2.600000e+00
 SP2dq SX1eq  1 4.100000e-01    2.350000e+00
 SP1dq SP1dq  1 4.100000e-01    3.310000e+00
 SP1dq SN6dq  1 4.100000e-01    3.310000e+00
 SP1dq SN5dq  1 4.100000e-01    3.070000e+00
 SP1dq SN4dq  1 4.100000e-01    3.070000e+00
 SP1dq SN3dq  1 4.100000e-01    2.600000e+00
 SP1dq SN2dq  1 4.100000e-01    2.600000e+00
 SP1dq SN1dq  1 4.100000e-01    2.600000e+00
 SP1dq SP1aq  1 4.100000e-01    3.820000e+00
 SP1dq SN6aq  1 4.100000e-01    3.820000e+00
 SP1dq SN5aq  1 4.100000e-01    3.550000e+00
 SP1dq SN4aq  1 4.100000e-01    3.550000e+00
 SP1dq SN3aq  1 4.100000e-01    3.070000e+00
 SP1dq SN2aq  1 4.100000e-01    3.070000e+00
 SP1dq SN1aq  1 4.100000e-01    3.070000e+00
 SP1dq SC6vq  1 4.100000e-01    2.350000e+00
 SP1dq SC5vq  1 4.100000e-01    2.200000e+00
 SP1dq SC4vq  1 4.100000e-01    2.040000e+00
 SP1dq SC3vq  1 4.100000e-01    1.910000e+00
 SP1dq SC2vq  1 4.100000e-01    1.910000e+00
 SP1dq SC1vq  1 4.100000e-01    1.750000e+00
 SP1dq SX4vq  1 4.100000e-01    2.350000e+00
 SP1dq SX3vq  1 4.100000e-01    2.350000e+00
 SP1dq SX2vq  1 4.100000e-01    2.200000e+00
 SP1dq SX1vq  1 4.100000e-01    2.040000e+00
 SP1dq SC6eq  1 4.100000e-01    2.840000e+00
 SP1dq SC5eq  1 4.100000e-01    2.600000e+00
 SP1dq SC4eq  1 4.100000e-01    2.350000e+00
 SP1dq SC3eq  1 4.100000e-01    2.200000e+00
 SP1dq SC2eq  1 4.100000e-01    2.200000e+00
 SP1dq SC1eq  1 4.100000e-01    2.040000e+00
 SP1dq SX4eq  1 4.100000e-01    2.840000e+00
 SP1dq SX3eq  1 4.100000e-01    2.840000e+00
 SP1dq SX2eq  1 4.100000e-01    2.600000e+00
 SP1dq SX1eq  1 4.100000e-01    2.350000e+00
 SN6dq SN6dq  1 4.100000e-01    3.310000e+00
 SN6dq SN5dq  1 4.100000e-01    3.310000e+00
 SN6dq SN4dq  1 4.100000e-01    3.310000e+00
 SN6dq SN3dq  1 4.100000e-01    2.840000e+00
 SN6dq SN2dq  1 4.100000e-01    2.600000e+00
 SN6dq SN1dq  1 4.100000e-01    2.600000e+00
 SN6dq SN6aq  1 4.100000e-01    3.820000e+00
 SN6dq SN5aq  1 4.100000e-01    3.820000e+00
 SN6dq SN4aq  1 4.100000e-01    3.820000e+00
 SN6dq SN3aq  1 4.100000e-01    3.310000e+00
 SN6dq SN2aq  1 4.100000e-01    3.070000e+00
 SN6dq SN1aq  1 4.100000e-01    3.070000e+00
 SN6dq SC6vq  1 4.100000e-01    2.600000e+00
 SN6dq SC5vq  1 4.100000e-01    2.350000e+00
 SN6dq SC4vq  1 4.100000e-01    2.200000e+00
 SN6dq SC3vq  1 4.100000e-01    2.040000e+00
 SN6dq SC2vq  1 4.100000e-01    2.040000e+00
 SN6dq SC1vq  1 4.100000e-01    1.910000e+00
 SN6dq SX4vq  1 4.100000e-01    2.600000e+00
 SN6dq SX3vq  1 4.100000e-01    2.350000e+00
 SN6dq SX2vq  1 4.100000e-01    2.200000e+00
 SN6dq SX1vq  1 4.100000e-01    2.040000e+00
 SN6dq SC6eq  1 4.100000e-01    3.070000e+00
 SN6dq SC5eq  1 4.100000e-01    2.840000e+00
 SN6dq SC4eq  1 4.100000e-01    2.600000e+00
 SN6dq SC3eq  1 4.100000e-01    2.350000e+00
 SN6dq SC2eq  1 4.100000e-01    2.350000e+00
 SN6dq SC1eq  1 4.100000e-01    2.200000e+00
 SN6dq SX4eq  1 4.100000e-01    3.070000e+00
 SN6dq SX3eq  1 4.100000e-01    2.840000e+00
 SN6dq SX2eq  1 4.100000e-01    2.600000e+00
 SN6dq SX1eq  1 4.100000e-01    2.350000e+00
 SN5dq SN5dq  1 4.100000e-01    3.070000e+00
 SN5dq SN4dq  1 4.100000e-01    3.070000e+00
 SN5dq SN3dq  1 4.100000e-01    2.840000e+00
 SN5dq SN2dq  1 4.100000e-01    2.840000e+00
 SN5dq SN1dq  1 4.100000e-01    2.600000e+00
 SN5dq SN5aq  1 4.100000e-01    3.550000e+00
 SN5dq SN4aq  1 4.100000e-01    3.550000e+00
 SN5dq SN3aq  1 4.100000e-01    3.310000e+00
 SN5dq SN2aq  1 4.100000e-01    3.310000e+00
 SN5dq SN1aq  1 4.100000e-01    3.070000e+00
 SN5dq SC6vq  1 4.100000e-01    2.600000e+00
 SN5dq SC5vq  1 4.100000e-01    2.350000e+00
 SN5dq SC4vq  1 4.100000e-01    2.200000e+00
 SN5dq SC3vq  1 4.100000e-01    2.200000e+00
 SN5dq SC2vq  1 4.100000e-01    2.040000e+00
 SN5dq SC1vq  1 4.100000e-01    1.910000e+00
 SN5dq SX4vq  1 4.100000e-01    2.840000e+00
 SN5dq SX3vq  1 4.100000e-01    2.600000e+00
 SN5dq SX2vq  1 4.100000e-01    2.350000e+00
 SN5dq SX1vq  1 4.100000e-01    2.200000e+00
 SN5dq SC6eq  1 4.100000e-01    3.070000e+00
 SN5dq SC5eq  1 4.100000e-01    2.840000e+00
 SN5dq SC4eq  1 4.100000e-01    2.600000e+00
 SN5dq SC3eq  1 4.100000e-01    2.600000e+00
 SN5dq SC2eq  1 4.100000e-01    2.350000e+00
 SN5dq SC1eq  1 4.100000e-01    2.200000e+00
 SN5dq SX4eq  1 4.100000e-01    3.310000e+00
 SN5dq SX3eq  1 4.100000e-01    3.070000e+00
 SN5dq SX2eq  1 4.100000e-01    2.840000e+00
 SN5dq SX1eq  1 4.100000e-01    2.600000e+00
 SN4dq SN4dq  1 4.100000e-01    3.070000e+00
 SN4dq SN3dq  1 4.100000e-01    2.840000e+00
 SN4dq SN2dq  1 4.100000e-01    2.840000e+00
 SN4dq SN1dq  1 4.100000e-01    2.600000e+00
 SN4dq SN4aq  1 4.100000e-01    3.550000e+00
 SN4dq SN3aq  1 4.100000e-01    3.310000e+00
 SN4dq SN2aq  1 4.100000e-01    3.310000e+00
 SN4dq SN1aq  1 4.100000e-01    3.070000e+00
 SN4dq SC6vq  1 4.100000e-01    2.600000e+00
 SN4dq SC5vq  1 4.100000e-01    2.350000e+00
 SN4dq SC4vq  1 4.100000e-01    2.350000e+00
 SN4dq SC3vq  1 4.100000e-01    2.200000e+00
 SN4dq SC2vq  1 4.100000e-01    2.040000e+00
 SN4dq SC1vq  1 4.100000e-01    1.910000e+00
 SN4dq SX4vq  1 4.100000e-01    3.070000e+00
 SN4dq SX3vq  1 4.100000e-01    2.840000e+00
 SN4dq SX2vq  1 4.100000e-01    2.350000e+00
 SN4dq SX1vq  1 4.100000e-01    2.200000e+00
 SN4dq SC6eq  1 4.100000e-01    3.070000e+00
 SN4dq SC5eq  1 4.100000e-01    2.840000e+00
 SN4dq SC4eq  1 4.100000e-01    2.840000e+00
 SN4dq SC3eq  1 4.100000e-01    2.600000e+00
 SN4dq SC2eq  1 4.100000e-01    2.350000e+00
 SN4dq SC1eq  1 4.100000e-01    2.200000e+00
 SN4dq SX4eq  1 4.100000e-01    3.550000e+00
 SN4dq SX3eq  1 4.100000e-01    3.310000e+00
 SN4dq SX2eq  1 4.100000e-01    2.840000e+00
 SN4dq SX1eq  1 4.100000e-01    2.600000e+00
 SN3dq SN3dq  1 4.100000e-01    2.840000e+00
 SN3dq SN2dq  1 4.100000e-01    2.840000e+00
 SN3dq SN1dq  1 4.100000e-01    2.600000e+00
 SN3dq SN3aq  1 4.100000e-01    3.310000e+00
 SN3dq SN2aq  1 4.100000e-01    3.310000e+00
 SN3dq SN1aq  1 4.100000e-01    3.070000e+00
 SN3dq SC6vq  1 4.100000e-01    2.600000e+00
 SN3dq SC5vq  1 4.100000e-01    2.350000e+00
 SN3dq SC4vq  1 4.100000e-01    2.350000e+00
 SN3dq SC3vq  1 4.100000e-01    2.200000e+00
 SN3dq SC2vq  1 4.100000e-01    2.200000e+00
 SN3dq SC1vq  1 4.100000e-01    2.040000e+00
 SN3dq SX4vq  1 4.100000e-01    2.840000e+00
 SN3dq SX3vq  1 4.100000e-01    2.600000e+00
 SN3dq SX2vq  1 4.100000e-01    2.350000e+00
 SN3dq SX1vq  1 4.100000e-01    2.350000e+00
 SN3dq SC6eq  1 4.100000e-01    3.070000e+00
 SN3dq SC5eq  1 4.100000e-01    2.840000e+00
 SN3dq SC4eq  1 4.100000e-01    2.840000e+00
 SN3dq SC3eq  1 4.100000e-01    2.600000e+00
 SN3dq SC2eq  1 4.100000e-01    2.600000e+00
 SN3dq SC1eq  1 4.100000e-01    2.350000e+00
 SN3dq SX4eq  1 4.100000e-01    3.310000e+00
 SN3dq SX3eq  1 4.100000e-01    3.070000e+00
 SN3dq SX2eq  1 4.100000e-01    2.840000e+00
 SN3dq SX1eq  1 4.100000e-01    2.840000e+00
 SN2dq SN2dq  1 4.100000e-01    2.840000e+00
 SN2dq SN1dq  1 4.100000e-01    2.600000e+00
 SN2dq SN2aq  1 4.100000e-01    3.310000e+00
 SN2dq SN1aq  1 4.100000e-01    3.070000e+00
 SN2dq SC6vq  1 4.100000e-01    2.600000e+00
 SN2dq SC5vq  1 4.100000e-01    2.350000e+00
 SN2dq SC4vq  1 4.100000e-01    2.350000e+00
 SN2dq SC3vq  1 4.100000e-01    2.350000e+00
 SN2dq SC2vq  1 4.100000e-01    2.200000e+00
 SN2dq SC1vq  1 4.100000e-01    2.040000e+00
 SN2dq SX4vq  1 4.100000e-01    2.840000e+00
 SN2dq SX3vq  1 4.100000e-01    2.600000e+00
 SN2dq SX2vq  1 4.100000e-01    2.350000e+00
 SN2dq SX1vq  1 4.100000e-01    2.350000e+00
 SN2dq SC6eq  1 4.100000e-01    3.070000e+00
 SN2dq SC5eq  1 4.100000e-01    2.840000e+00
 SN2dq SC4eq  1 4.100000e-01    2.840000e+00
 SN2dq SC3eq  1 4.100000e-01    2.840000e+00
 SN2dq SC2eq  1 4.100000e-01    2.600000e+00
 SN2dq SC1eq  1 4.100000e-01    2.350000e+00
 SN2dq SX4eq  1 4.100000e-01    3.310000e+00
 SN2dq SX3eq  1 4.100000e-01    3.070000e+00
 SN2dq SX2eq  1 4.100000e-01    2.840000e+00
 SN2dq SX1eq  1 4.100000e-01    2.840000e+00
 SN1dq SN1dq  1 4.100000e-01    2.840000e+00
 SN1dq SN1aq  1 4.100000e-01    3.310000e+00
 SN1dq SC6vq  1 4.100000e-01    2.840000e+00
 SN1dq SC5vq  1 4.100000e-01    2.600000e+00
 SN1dq SC4vq  1 4.100000e-01    2.600000e+00
 SN1dq SC3vq  1 4.100000e-01    2.350000e+00
 SN1dq SC2vq  1 4.100000e-01    2.200000e+00
 SN1dq SC1vq  1 4.100000e-01    2.040000e+00
 SN1dq SX4vq  1 4.100000e-01    2.600000e+00
 SN1dq SX3vq  1 4.100000e-01    2.600000e+00
 SN1dq SX2vq  1 4.100000e-01    2.350000e+00
 SN1dq SX1vq  1 4.100000e-01    2.350000e+00
 SN1dq SC6eq  1 4.100000e-01    3.310000e+00
 SN1dq SC5eq  1 4.100000e-01    3.070000e+00
 SN1dq SC4eq  1 4.100000e-01    3.070000e+00
 SN1dq SC3eq  1 4.100000e-01    2.840000e+00
 SN1dq SC2eq  1 4.100000e-01    2.600000e+00
 SN1dq SC1eq  1 4.100000e-01    2.350000e+00
 SN1dq SX4eq  1 4.100000e-01    3.070000e+00
 SN1dq SX3eq  1 4.100000e-01    3.070000e+00
 SN1dq SX2eq  1 4.100000e-01    2.840000e+00
 SN1dq SX1eq  1 4.100000e-01    2.840000e+00
 SP6aq SP6aq  1 4.100000e-01    4.550000e+00
 SP6aq SP5dq  1 4.100000e-01    4.840000e+00
 SP6aq SP4dq  1 4.100000e-01    4.550000e+00
 SP6aq SP3dq  1 4.100000e-01    4.290000e+00
 SP6aq SP2dq  1 4.100000e-01    4.290000e+00
 SP6aq SP1dq  1 4.100000e-01    4.040000e+00
 SP6aq SN6dq  1 4.100000e-01    3.820000e+00
 SP6aq SN5dq  1 4.100000e-01    3.310000e+00
 SP6aq SN4dq  1 4.100000e-01    3.070000e+00
 SP6aq SN3dq  1 4.100000e-01    2.600000e+00
 SP6aq SN2dq  1 4.100000e-01    2.350000e+00
 SP6aq SN1dq  1 4.100000e-01    2.200000e+00
 SP6aq SP5aq  1 4.100000e-01    4.290000e+00
 SP6aq SP4aq  1 4.100000e-01    4.040000e+00
 SP6aq SP3aq  1 4.100000e-01    3.820000e+00
 SP6aq SP2aq  1 4.100000e-01    3.820000e+00
 SP6aq SP1aq  1 4.100000e-01    3.550000e+00
 SP6aq SN6aq  1 4.100000e-01    3.310000e+00
 SP6aq SN5aq  1 4.100000e-01    2.840000e+00
 SP6aq SN4aq  1 4.100000e-01    2.600000e+00
 SP6aq SN3aq  1 4.100000e-01    2.600000e+00
 SP6aq SN2aq  1 4.100000e-01    2.350000e+00
 SP6aq SN1aq  1 4.100000e-01    2.200000e+00
 SP6aq SC6vq  1 4.100000e-01    2.350000e+00
 SP6aq SC5vq  1 4.100000e-01    2.200000e+00
 SP6aq SC4vq  1 4.100000e-01    2.040000e+00
 SP6aq SC3vq  1 4.100000e-01    1.910000e+00
 SP6aq SC2vq  1 4.100000e-01    1.910000e+00
 SP6aq SC1vq  1 4.140000e-01    1.560000e+00
 SP6aq SX4vq  1 4.100000e-01    2.600000e+00
 SP6aq SX3vq  1 4.100000e-01    2.600000e+00
 SP6aq SX2vq  1 4.100000e-01    2.350000e+00
 SP6aq SX1vq  1 4.100000e-01    2.200000e+00
 SP6aq SC6eq  1 4.100000e-01    2.040000e+00
 SP6aq SC5eq  1 4.100000e-01    1.910000e+00
 SP6aq SC4eq  1 4.100000e-01    1.750000e+00
 SP6aq SC3eq  1 4.140000e-01    1.560000e+00
 SP6aq SC2eq  1 4.140000e-01    1.560000e+00
 SP6aq SC1eq  1 4.210000e-01    1.250000e+00
 SP6aq SX4eq  1 4.100000e-01    2.200000e+00
 SP6aq SX3eq  1 4.100000e-01    2.200000e+00
 SP6aq SX2eq  1 4.100000e-01    2.040000e+00
 SP6aq SX1eq  1 4.100000e-01    1.910000e+00
 SP5aq SP5aq  1 4.100000e-01    4.040000e+00
 SP5aq SP4dq  1 4.100000e-01    4.290000e+00
 SP5aq SP3dq  1 4.100000e-01    4.040000e+00
 SP5aq SP2dq  1 4.100000e-01    4.040000e+00
 SP5aq SP1dq  1 4.100000e-01    3.820000e+00
 SP5aq SN6dq  1 4.100000e-01    3.550000e+00
 SP5aq SN5dq  1 4.100000e-01    3.310000e+00
 SP5aq SN4dq  1 4.100000e-01    3.310000e+00
 SP5aq SN3dq  1 4.100000e-01    2.600000e+00
 SP5aq SN2dq  1 4.100000e-01    2.350000e+00
 SP5aq SN1dq  1 4.100000e-01    2.200000e+00
 SP5aq SP4aq  1 4.100000e-01    3.820000e+00
 SP5aq SP3aq  1 4.100000e-01    3.550000e+00
 SP5aq SP2aq  1 4.100000e-01    3.550000e+00
 SP5aq SP1aq  1 4.100000e-01    3.310000e+00
 SP5aq SN6aq  1 4.100000e-01    3.070000e+00
 SP5aq SN5aq  1 4.100000e-01    2.840000e+00
 SP5aq SN4aq  1 4.100000e-01    2.840000e+00
 SP5aq SN3aq  1 4.100000e-01    2.600000e+00
 SP5aq SN2aq  1 4.100000e-01    2.350000e+00
 SP5aq SN1aq  1 4.100000e-01    2.200000e+00
 SP5aq SC6vq  1 4.100000e-01    2.350000e+00
 SP5aq SC5vq  1 4.100000e-01    2.350000e+00
 SP5aq SC4vq  1 4.100000e-01    2.200000e+00
 SP5aq SC3vq  1 4.100000e-01    2.040000e+00
 SP5aq SC2vq  1 4.100000e-01    2.040000e+00
 SP5aq SC1vq  1 4.100000e-01    1.910000e+00
 SP5aq SX4vq  1 4.100000e-01    2.840000e+00
 SP5aq SX3vq  1 4.100000e-01    2.600000e+00
 SP5aq SX2vq  1 4.100000e-01    2.600000e+00
 SP5aq SX1vq  1 4.100000e-01    2.200000e+00
 SP5aq SC6eq  1 4.100000e-01    2.040000e+00
 SP5aq SC5eq  1 4.100000e-01    2.040000e+00
 SP5aq SC4eq  1 4.100000e-01    1.910000e+00
 SP5aq SC3eq  1 4.100000e-01    1.750000e+00
 SP5aq SC2eq  1 4.100000e-01    1.750000e+00
 SP5aq SC1eq  1 4.140000e-01    1.560000e+00
 SP5aq SX4eq  1 4.100000e-01    2.350000e+00
 SP5aq SX3eq  1 4.100000e-01    2.200000e+00
 SP5aq SX2eq  1 4.100000e-01    2.200000e+00
 SP5aq SX1eq  1 4.100000e-01    1.910000e+00
 SP4aq SP4aq  1 4.100000e-01    3.820000e+00
 SP4aq SP3dq  1 4.100000e-01    4.040000e+00
 SP4aq SP2dq  1 4.100000e-01    4.040000e+00
 SP4aq SP1dq  1 4.100000e-01    3.820000e+00
 SP4aq SN6dq  1 4.100000e-01    3.550000e+00
 SP4aq SN5dq  1 4.100000e-01    3.310000e+00
 SP4aq SN4dq  1 4.100000e-01    3.310000e+00
 SP4aq SN3dq  1 4.100000e-01    3.070000e+00
 SP4aq SN2dq  1 4.100000e-01    2.600000e+00
 SP4aq SN1dq  1 4.100000e-01    2.350000e+00
 SP4aq SP3aq  1 4.100000e-01    3.550000e+00
 SP4aq SP2aq  1 4.100000e-01    3.550000e+00
 SP4aq SP1aq  1 4.100000e-01    3.310000e+00
 SP4aq SN6aq  1 4.100000e-01    3.070000e+00
 SP4aq SN5aq  1 4.100000e-01    2.840000e+00
 SP4aq SN4aq  1 4.100000e-01    2.840000e+00
 SP4aq SN3aq  1 4.100000e-01    2.600000e+00
 SP4aq SN2aq  1 4.100000e-01    2.600000e+00
 SP4aq SN1aq  1 4.100000e-01    2.350000e+00
 SP4aq SC6vq  1 4.100000e-01    2.600000e+00
 SP4aq SC5vq  1 4.100000e-01    2.350000e+00
 SP4aq SC4vq  1 4.100000e-01    2.200000e+00
 SP4aq SC3vq  1 4.100000e-01    2.040000e+00
 SP4aq SC2vq  1 4.100000e-01    2.040000e+00
 SP4aq SC1vq  1 4.100000e-01    1.910000e+00
 SP4aq SX4vq  1 4.100000e-01    2.840000e+00
 SP4aq SX3vq  1 4.100000e-01    2.600000e+00
 SP4aq SX2vq  1 4.100000e-01    2.600000e+00
 SP4aq SX1vq  1 4.100000e-01    2.350000e+00
 SP4aq SC6eq  1 4.100000e-01    2.200000e+00
 SP4aq SC5eq  1 4.100000e-01    2.040000e+00
 SP4aq SC4eq  1 4.100000e-01    1.910000e+00
 SP4aq SC3eq  1 4.100000e-01    1.750000e+00
 SP4aq SC2eq  1 4.100000e-01    1.750000e+00
 SP4aq SC1eq  1 4.140000e-01    1.560000e+00
 SP4aq SX4eq  1 4.100000e-01    2.350000e+00
 SP4aq SX3eq  1 4.100000e-01    2.200000e+00
 SP4aq SX2eq  1 4.100000e-01    2.200000e+00
 SP4aq SX1eq  1 4.100000e-01    2.040000e+00
 SP3aq SP3aq  1 4.100000e-01    3.550000e+00
 SP3aq SP2dq  1 4.100000e-01    4.040000e+00
 SP3aq SP1dq  1 4.100000e-01    3.820000e+00
 SP3aq SN6dq  1 4.100000e-01    3.550000e+00
 SP3aq SN5dq  1 4.100000e-01    3.310000e+00
 SP3aq SN4dq  1 4.100000e-01    3.310000e+00
 SP3aq SN3dq  1 4.100000e-01    3.070000e+00
 SP3aq SN2dq  1 4.100000e-01    3.070000e+00
 SP3aq SN1dq  1 4.100000e-01    2.600000e+00
 SP3aq SP2aq  1 4.100000e-01    3.550000e+00
 SP3aq SP1aq  1 4.100000e-01    3.310000e+00
 SP3aq SN6aq  1 4.100000e-01    3.070000e+00
 SP3aq SN5aq  1 4.100000e-01    2.840000e+00
 SP3aq SN4aq  1 4.100000e-01    2.840000e+00
 SP3aq SN3aq  1 4.100000e-01    2.600000e+00
 SP3aq SN2aq  1 4.100000e-01    2.600000e+00
 SP3aq SN1aq  1 4.100000e-01    2.600000e+00
 SP3aq SC6vq  1 4.100000e-01    2.840000e+00
 SP3aq SC5vq  1 4.100000e-01    2.600000e+00
 SP3aq SC4vq  1 4.100000e-01    2.350000e+00
 SP3aq SC3vq  1 4.100000e-01    2.040000e+00
 SP3aq SC2vq  1 4.100000e-01    2.040000e+00
 SP3aq SC1vq  1 4.100000e-01    1.910000e+00
 SP3aq SX4vq  1 4.100000e-01    2.840000e+00
 SP3aq SX3vq  1 4.100000e-01    2.840000e+00
 SP3aq SX2vq  1 4.100000e-01    2.600000e+00
 SP3aq SX1vq  1 4.100000e-01    2.350000e+00
 SP3aq SC6eq  1 4.100000e-01    2.350000e+00
 SP3aq SC5eq  1 4.100000e-01    2.200000e+00
 SP3aq SC4eq  1 4.100000e-01    2.040000e+00
 SP3aq SC3eq  1 4.100000e-01    1.750000e+00
 SP3aq SC2eq  1 4.100000e-01    1.750000e+00
 SP3aq SC1eq  1 4.140000e-01    1.560000e+00
 SP3aq SX4eq  1 4.100000e-01    2.350000e+00
 SP3aq SX3eq  1 4.100000e-01    2.350000e+00
 SP3aq SX2eq  1 4.100000e-01    2.200000e+00
 SP3aq SX1eq  1 4.100000e-01    2.040000e+00
 SP2aq SP2aq  1 4.100000e-01    3.550000e+00
 SP2aq SP1dq  1 4.100000e-01    3.820000e+00
 SP2aq SN6dq  1 4.100000e-01    3.820000e+00
 SP2aq SN5dq  1 4.100000e-01    3.550000e+00
 SP2aq SN4dq  1 4.100000e-01    3.310000e+00
 SP2aq SN3dq  1 4.100000e-01    3.070000e+00
 SP2aq SN2dq  1 4.100000e-01    3.070000e+00
 SP2aq SN1dq  1 4.100000e-01    3.070000e+00
 SP2aq SP1aq  1 4.100000e-01    3.310000e+00
 SP2aq SN6aq  1 4.100000e-01    3.310000e+00
 SP2aq SN5aq  1 4.100000e-01    3.070000e+00
 SP2aq SN4aq  1 4.100000e-01    2.840000e+00
 SP2aq SN3aq  1 4.100000e-01    2.600000e+00
 SP2aq SN2aq  1 4.100000e-01    2.600000e+00
 SP2aq SN1aq  1 4.100000e-01    2.600000e+00
 SP2aq SC6vq  1 4.100000e-01    2.840000e+00
 SP2aq SC5vq  1 4.100000e-01    2.600000e+00
 SP2aq SC4vq  1 4.100000e-01    2.350000e+00
 SP2aq SC3vq  1 4.100000e-01    2.200000e+00
 SP2aq SC2vq  1 4.100000e-01    2.200000e+00
 SP2aq SC1vq  1 4.100000e-01    2.040000e+00
 SP2aq SX4vq  1 4.100000e-01    2.840000e+00
 SP2aq SX3vq  1 4.100000e-01    2.840000e+00
 SP2aq SX2vq  1 4.100000e-01    2.600000e+00
 SP2aq SX1vq  1 4.100000e-01    2.350000e+00
 SP2aq SC6eq  1 4.100000e-01    2.350000e+00
 SP2aq SC5eq  1 4.100000e-01    2.200000e+00
 SP2aq SC4eq  1 4.100000e-01    2.040000e+00
 SP2aq SC3eq  1 4.100000e-01    1.910000e+00
 SP2aq SC2eq  1 4.100000e-01    1.910000e+00
 SP2aq SC1eq  1 4.100000e-01    1.750000e+00
 SP2aq SX4eq  1 4.100000e-01    2.350000e+00
 SP2aq SX3eq  1 4.100000e-01    2.350000e+00
 SP2aq SX2eq  1 4.100000e-01    2.200000e+00
 SP2aq SX1eq  1 4.100000e-01    2.040000e+00
 SP1aq SP1aq  1 4.100000e-01    3.310000e+00
 SP1aq SN6dq  1 4.100000e-01    3.820000e+00
 SP1aq SN5dq  1 4.100000e-01    3.550000e+00
 SP1aq SN4dq  1 4.100000e-01    3.550000e+00
 SP1aq SN3dq  1 4.100000e-01    3.070000e+00
 SP1aq SN2dq  1 4.100000e-01    3.070000e+00
 SP1aq SN1dq  1 4.100000e-01    3.070000e+00
 SP1aq SN6aq  1 4.100000e-01    3.310000e+00
 SP1aq SN5aq  1 4.100000e-01    3.070000e+00
 SP1aq SN4aq  1 4.100000e-01    3.070000e+00
 SP1aq SN3aq  1 4.100000e-01    2.600000e+00
 SP1aq SN2aq  1 4.100000e-01    2.600000e+00
 SP1aq SN1aq  1 4.100000e-01    2.600000e+00
 SP1aq SC6vq  1 4.100000e-01    2.840000e+00
 SP1aq SC5vq  1 4.100000e-01    2.600000e+00
 SP1aq SC4vq  1 4.100000e-01    2.350000e+00
 SP1aq SC3vq  1 4.100000e-01    2.200000e+00
 SP1aq SC2vq  1 4.100000e-01    2.200000e+00
 SP1aq SC1vq  1 4.100000e-01    2.040000e+00
 SP1aq SX4vq  1 4.100000e-01    2.840000e+00
 SP1aq SX3vq  1 4.100000e-01    2.840000e+00
 SP1aq SX2vq  1 4.100000e-01    2.600000e+00
 SP1aq SX1vq  1 4.100000e-01    2.350000e+00
 SP1aq SC6eq  1 4.100000e-01    2.350000e+00
 SP1aq SC5eq  1 4.100000e-01    2.200000e+00
 SP1aq SC4eq  1 4.100000e-01    2.040000e+00
 SP1aq SC3eq  1 4.100000e-01    1.910000e+00
 SP1aq SC2eq  1 4.100000e-01    1.910000e+00
 SP1aq SC1eq  1 4.100000e-01    1.750000e+00
 SP1aq SX4eq  1 4.100000e-01    2.350000e+00
 SP1aq SX3eq  1 4.100000e-01    2.350000e+00
 SP1aq SX2eq  1 4.100000e-01    2.200000e+00
 SP1aq SX1eq  1 4.100000e-01    2.040000e+00
 SN6aq SN6aq  1 4.100000e-01    3.310000e+00
 SN6aq SN5dq  1 4.100000e-01    3.820000e+00
 SN6aq SN4dq  1 4.100000e-01    3.820000e+00
 SN6aq SN3dq  1 4.100000e-01    3.310000e+00
 SN6aq SN2dq  1 4.100000e-01    3.070000e+00
 SN6aq SN1dq  1 4.100000e-01    3.070000e+00
 SN6aq SN5aq  1 4.100000e-01    3.310000e+00
 SN6aq SN4aq  1 4.100000e-01    3.310000e+00
 SN6aq SN3aq  1 4.100000e-01    2.840000e+00
 SN6aq SN2aq  1 4.100000e-01    2.600000e+00
 SN6aq SN1aq  1 4.100000e-01    2.600000e+00
 SN6aq SC6vq  1 4.100000e-01    3.070000e+00
 SN6aq SC5vq  1 4.100000e-01    2.840000e+00
 SN6aq SC4vq  1 4.100000e-01    2.600000e+00
 SN6aq SC3vq  1 4.100000e-01    2.350000e+00
 SN6aq SC2vq  1 4.100000e-01    2.350000e+00
 SN6aq SC1vq  1 4.100000e-01    2.200000e+00
 SN6aq SX4vq  1 4.100000e-01    3.070000e+00
 SN6aq SX3vq  1 4.100000e-01    2.840000e+00
 SN6aq SX2vq  1 4.100000e-01    2.600000e+00
 SN6aq SX1vq  1 4.100000e-01    2.350000e+00
 SN6aq SC6eq  1 4.100000e-01    2.600000e+00
 SN6aq SC5eq  1 4.100000e-01    2.350000e+00
 SN6aq SC4eq  1 4.100000e-01    2.200000e+00
 SN6aq SC3eq  1 4.100000e-01    2.040000e+00
 SN6aq SC2eq  1 4.100000e-01    2.040000e+00
 SN6aq SC1eq  1 4.100000e-01    1.910000e+00
 SN6aq SX4eq  1 4.100000e-01    2.600000e+00
 SN6aq SX3eq  1 4.100000e-01    2.350000e+00
 SN6aq SX2eq  1 4.100000e-01    2.200000e+00
 SN6aq SX1eq  1 4.100000e-01    2.040000e+00
 SN5aq SN5aq  1 4.100000e-01    3.070000e+00
 SN5aq SN4dq  1 4.100000e-01    3.550000e+00
 SN5aq SN3dq  1 4.100000e-01    3.310000e+00
 SN5aq SN2dq  1 4.100000e-01    3.310000e+00
 SN5aq SN1dq  1 4.100000e-01    3.070000e+00
 SN5aq SN4aq  1 4.100000e-01    3.070000e+00
 SN5aq SN3aq  1 4.100000e-01    2.840000e+00
 SN5aq SN2aq  1 4.100000e-01    2.840000e+00
 SN5aq SN1aq  1 4.100000e-01    2.600000e+00
 SN5aq SC6vq  1 4.100000e-01    3.070000e+00
 SN5aq SC5vq  1 4.100000e-01    2.840000e+00
 SN5aq SC4vq  1 4.100000e-01    2.600000e+00
 SN5aq SC3vq  1 4.100000e-01    2.600000e+00
 SN5aq SC2vq  1 4.100000e-01    2.350000e+00
 SN5aq SC1vq  1 4.100000e-01    2.200000e+00
 SN5aq SX4vq  1 4.100000e-01    3.310000e+00
 SN5aq SX3vq  1 4.100000e-01    3.070000e+00
 SN5aq SX2vq  1 4.100000e-01    2.840000e+00
 SN5aq SX1vq  1 4.100000e-01    2.600000e+00
 SN5aq SC6eq  1 4.100000e-01    2.600000e+00
 SN5aq SC5eq  1 4.100000e-01    2.350000e+00
 SN5aq SC4eq  1 4.100000e-01    2.200000e+00
 SN5aq SC3eq  1 4.100000e-01    2.200000e+00
 SN5aq SC2eq  1 4.100000e-01    2.040000e+00
 SN5aq SC1eq  1 4.100000e-01    1.910000e+00
 SN5aq SX4eq  1 4.100000e-01    2.840000e+00
 SN5aq SX3eq  1 4.100000e-01    2.600000e+00
 SN5aq SX2eq  1 4.100000e-01    2.350000e+00
 SN5aq SX1eq  1 4.100000e-01    2.200000e+00
 SN4aq SN4aq  1 4.100000e-01    3.070000e+00
 SN4aq SN3dq  1 4.100000e-01    3.310000e+00
 SN4aq SN2dq  1 4.100000e-01    3.310000e+00
 SN4aq SN1dq  1 4.100000e-01    3.070000e+00
 SN4aq SN3aq  1 4.100000e-01    2.840000e+00
 SN4aq SN2aq  1 4.100000e-01    2.840000e+00
 SN4aq SN1aq  1 4.100000e-01    2.600000e+00
 SN4aq SC6vq  1 4.100000e-01    3.070000e+00
 SN4aq SC5vq  1 4.100000e-01    2.840000e+00
 SN4aq SC4vq  1 4.100000e-01    2.840000e+00
 SN4aq SC3vq  1 4.100000e-01    2.600000e+00
 SN4aq SC2vq  1 4.100000e-01    2.350000e+00
 SN4aq SC1vq  1 4.100000e-01    2.200000e+00
 SN4aq SX4vq  1 4.100000e-01    3.550000e+00
 SN4aq SX3vq  1 4.100000e-01    3.310000e+00
 SN4aq SX2vq  1 4.100000e-01    2.840000e+00
 SN4aq SX1vq  1 4.100000e-01    2.600000e+00
 SN4aq SC6eq  1 4.100000e-01    2.600000e+00
 SN4aq SC5eq  1 4.100000e-01    2.350000e+00
 SN4aq SC4eq  1 4.100000e-01    2.350000e+00
 SN4aq SC3eq  1 4.100000e-01    2.200000e+00
 SN4aq SC2eq  1 4.100000e-01    2.040000e+00
 SN4aq SC1eq  1 4.100000e-01    1.910000e+00
 SN4aq SX4eq  1 4.100000e-01    3.070000e+00
 SN4aq SX3eq  1 4.100000e-01    2.840000e+00
 SN4aq SX2eq  1 4.100000e-01    2.350000e+00
 SN4aq SX1eq  1 4.100000e-01    2.200000e+00
 SN3aq SN3aq  1 4.100000e-01    2.840000e+00
 SN3aq SN2dq  1 4.100000e-01    3.310000e+00
 SN3aq SN1dq  1 4.100000e-01    3.070000e+00
 SN3aq SN2aq  1 4.100000e-01    2.840000e+00
 SN3aq SN1aq  1 4.100000e-01    2.600000e+00
 SN3aq SC6vq  1 4.100000e-01    3.070000e+00
 SN3aq SC5vq  1 4.100000e-01    2.840000e+00
 SN3aq SC4vq  1 4.100000e-01    2.840000e+00
 SN3aq SC3vq  1 4.100000e-01    2.600000e+00
 SN3aq SC2vq  1 4.100000e-01    2.600000e+00
 SN3aq SC1vq  1 4.100000e-01    2.350000e+00
 SN3aq SX4vq  1 4.100000e-01    3.310000e+00
 SN3aq SX3vq  1 4.100000e-01    3.070000e+00
 SN3aq SX2vq  1 4.100000e-01    2.840000e+00
 SN3aq SX1vq  1 4.100000e-01    2.840000e+00
 SN3aq SC6eq  1 4.100000e-01    2.600000e+00
 SN3aq SC5eq  1 4.100000e-01    2.350000e+00
 SN3aq SC4eq  1 4.100000e-01    2.350000e+00
 SN3aq SC3eq  1 4.100000e-01    2.200000e+00
 SN3aq SC2eq  1 4.100000e-01    2.200000e+00
 SN3aq SC1eq  1 4.100000e-01    2.040000e+00
 SN3aq SX4eq  1 4.100000e-01    2.840000e+00
 SN3aq SX3eq  1 4.100000e-01    2.600000e+00
 SN3aq SX2eq  1 4.100000e-01    2.350000e+00
 SN3aq SX1eq  1 4.100000e-01    2.350000e+00
 SN2aq SN2aq  1 4.100000e-01    2.840000e+00
 SN2aq SN1dq  1 4.100000e-01    3.070000e+00
 SN2aq SN1aq  1 4.100000e-01    2.600000e+00
 SN2aq SC6vq  1 4.100000e-01    3.070000e+00
 SN2aq SC5vq  1 4.100000e-01    2.840000e+00
 SN2aq SC4vq  1 4.100000e-01    2.840000e+00
 SN2aq SC3vq  1 4.100000e-01    2.840000e+00
 SN2aq SC2vq  1 4.100000e-01    2.600000e+00
 SN2aq SC1vq  1 4.100000e-01    2.350000e+00
 SN2aq SX4vq  1 4.100000e-01    3.310000e+00
 SN2aq SX3vq  1 4.100000e-01    3.070000e+00
 SN2aq SX2vq  1 4.100000e-01    2.840000e+00
 SN2aq SX1vq  1 4.100000e-01    2.840000e+00
 SN2aq SC6eq  1 4.100000e-01    2.600000e+00
 SN2aq SC5eq  1 4.100000e-01    2.350000e+00
 SN2aq SC4eq  1 4.100000e-01    2.350000e+00
 SN2aq SC3eq  1 4.100000e-01    2.350000e+00
 SN2aq SC2eq  1 4.100000e-01    2.200000e+00
 SN2aq SC1eq  1 4.100000e-01    2.040000e+00
 SN2aq SX4eq  1 4.100000e-01    2.840000e+00
 SN2aq SX3eq  1 4.100000e-01    2.600000e+00
 SN2aq SX2eq  1 4.100000e-01    2.350000e+00
 SN2aq SX1eq  1 4.100000e-01    2.350000e+00
 SN1aq SN1aq  1 4.100000e-01    2.840000e+00
 SN1aq SC6vq  1 4.100000e-01    3.310000e+00
 SN1aq SC5vq  1 4.100000e-01    3.070000e+00
 SN1aq SC4vq  1 4.100000e-01    3.070000e+00
 SN1aq SC3vq  1 4.100000e-01    2.840000e+00
 SN1aq SC2vq  1 4.100000e-01    2.600000e+00
 SN1aq SC1vq  1 4.100000e-01    2.350000e+00
 SN1aq SX4vq  1 4.100000e-01    3.070000e+00
 SN1aq SX3vq  1 4.100000e-01    3.070000e+00
 SN1aq SX2vq  1 4.100000e-01    2.840000e+00
 SN1aq SX1vq  1 4.100000e-01    2.840000e+00
 SN1aq SC6eq  1 4.100000e-01    2.840000e+00
 SN1aq SC5eq  1 4.100000e-01    2.600000e+00
 SN1aq SC4eq  1 4.100000e-01    2.600000e+00
 SN1aq SC3eq  1 4.100000e-01    2.350000e+00
 SN1aq SC2eq  1 4.100000e-01    2.200000e+00
 SN1aq SC1eq  1 4.100000e-01    2.040000e+00
 SN1aq SX4eq  1 4.100000e-01    2.600000e+00
 SN1aq SX3eq  1 4.100000e-01    2.600000e+00
 SN1aq SX2eq  1 4.100000e-01    2.350000e+00
 SN1aq SX1eq  1 4.100000e-01    2.350000e+00
 SC6vq SC6vq  1 4.100000e-01    2.840000e+00
 SC6vq SC5vq  1 4.100000e-01    2.600000e+00
 SC6vq SC4vq  1 4.100000e-01    2.600000e+00
 SC6vq SC3vq  1 4.100000e-01    2.350000e+00
 SC6vq SC2vq  1 4.100000e-01    2.200000e+00
 SC6vq SC1vq  1 4.100000e-01    2.040000e+00
 SC6vq SX4vq  1 4.100000e-01    2.600000e+00
 SC6vq SX3vq  1 4.100000e-01    2.600000e+00
 SC6vq SX2vq  1 4.100000e-01    2.600000e+00
 SC6vq SX1vq  1 4.100000e-01    2.600000e+00
 SC6vq SC6eq  1 4.100000e-01    3.550000e+00
 SC6vq SC5eq  1 4.100000e-01    3.310000e+00
 SC6vq SC4eq  1 4.100000e-01    3.310000e+00
 SC6vq SC3eq  1 4.100000e-01    3.070000e+00
 SC6vq SC2eq  1 4.100000e-01    2.840000e+00
 SC6vq SC1eq  1 4.100000e-01    2.600000e+00
 SC6vq SX4eq  1 4.100000e-01    3.310000e+00
 SC6vq SX3eq  1 4.100000e-01    3.310000e+00
 SC6vq SX2eq  1 4.100000e-01    3.310000e+00
 SC6vq SX1eq  1 4.100000e-01    3.310000e+00
 SC5vq SC5vq  1 4.100000e-01    2.600000e+00
 SC5vq SC4vq  1 4.100000e-01    2.600000e+00
 SC5vq SC3vq  1 4.100000e-01    2.350000e+00
 SC5vq SC2vq  1 4.100000e-01    2.200000e+00
 SC5vq SC1vq  1 4.100000e-01    2.200000e+00
 SC5vq SX4vq  1 4.100000e-01    2.350000e+00
 SC5vq SX3vq  1 4.100000e-01    2.350000e+00
 SC5vq SX2vq  1 4.100000e-01    2.350000e+00
 SC5vq SX1vq  1 4.100000e-01    2.600000e+00
 SC5vq SC5eq  1 4.100000e-01    3.310000e+00
 SC5vq SC4eq  1 4.100000e-01    3.310000e+00
 SC5vq SC3eq  1 4.100000e-01    3.070000e+00
 SC5vq SC2eq  1 4.100000e-01    2.840000e+00
 SC5vq SC1eq  1 4.100000e-01    2.840000e+00
 SC5vq SX4eq  1 4.100000e-01    3.070000e+00
 SC5vq SX3eq  1 4.100000e-01    3.070000e+00
 SC5vq SX2eq  1 4.100000e-01    3.070000e+00
 SC5vq SX1eq  1 4.100000e-01    3.310000e+00
 SC4vq SC4vq  1 4.100000e-01    2.600000e+00
 SC4vq SC3vq  1 4.100000e-01    2.600000e+00
 SC4vq SC2vq  1 4.100000e-01    2.350000e+00
 SC4vq SC1vq  1 4.100000e-01    2.200000e+00
 SC4vq SX4vq  1 4.100000e-01    2.350000e+00
 SC4vq SX3vq  1 4.100000e-01    2.350000e+00
 SC4vq SX2vq  1 4.100000e-01    2.350000e+00
 SC4vq SX1vq  1 4.100000e-01    2.600000e+00
 SC4vq SC4eq  1 4.100000e-01    3.310000e+00
 SC4vq SC3eq  1 4.100000e-01    3.310000e+00
 SC4vq SC2eq  1 4.100000e-01    3.070000e+00
 SC4vq SC1eq  1 4.100000e-01    2.840000e+00
 SC4vq SX4eq  1 4.100000e-01    3.070000e+00
 SC4vq SX3eq  1 4.100000e-01    3.070000e+00
 SC4vq SX2eq  1 4.100000e-01    3.070000e+00
 SC4vq SX1eq  1 4.100000e-01    3.310000e+00
 SC3vq SC3vq  1 4.100000e-01    2.600000e+00
 SC3vq SC2vq  1 4.100000e-01    2.600000e+00
 SC3vq SC1vq  1 4.100000e-01    2.600000e+00
 SC3vq SX4vq  1 4.100000e-01    2.350000e+00
 SC3vq SX3vq  1 4.100000e-01    2.350000e+00
 SC3vq SX2vq  1 4.100000e-01    2.350000e+00
 SC3vq SX1vq  1 4.100000e-01    2.600000e+00
 SC3vq SC3eq  1 4.100000e-01    3.310000e+00
 SC3vq SC2eq  1 4.100000e-01    3.310000e+00
 SC3vq SC1eq  1 4.100000e-01    3.310000e+00
 SC3vq SX4eq  1 4.100000e-01    3.070000e+00
 SC3vq SX3eq  1 4.100000e-01    3.070000e+00
 SC3vq SX2eq  1 4.100000e-01    3.070000e+00
 SC3vq SX1eq  1 4.100000e-01    3.310000e+00
 SC2vq SC2vq  1 4.100000e-01    2.600000e+00
 SC2vq SC1vq  1 4.100000e-01    2.840000e+00
 SC2vq SX4vq  1 4.100000e-01    2.040000e+00
 SC2vq SX3vq  1 4.100000e-01    2.350000e+00
 SC2vq SX2vq  1 4.100000e-01    2.350000e+00
 SC2vq SX1vq  1 4.100000e-01    2.350000e+00
 SC2vq SC2eq  1 4.100000e-01    3.310000e+00
 SC2vq SC1eq  1 4.100000e-01    3.550000e+00
 SC2vq SX4eq  1 4.100000e-01    2.600000e+00
 SC2vq SX3eq  1 4.100000e-01    3.070000e+00
 SC2vq SX2eq  1 4.100000e-01    3.070000e+00
 SC2vq SX1eq  1 4.100000e-01    3.070000e+00
 SC1vq SC1vq  1 4.100000e-01    2.600000e+00
 SC1vq SX4vq  1 4.100000e-01    2.040000e+00
 SC1vq SX3vq  1 4.100000e-01    2.350000e+00
 SC1vq SX2vq  1 4.100000e-01    2.350000e+00
 SC1vq SX1vq  1 4.100000e-01    2.350000e+00
 SC1vq SC1eq  1 4.100000e-01    3.310000e+00
 SC1vq SX4eq  1 4.100000e-01    2.600000e+00
 SC1vq SX3eq  1 4.100000e-01    3.070000e+00
 SC1vq SX2eq  1 4.100000e-01    3.070000e+00
 SC1vq SX1eq  1 4.100000e-01    3.070000e+00
 SX4vq SX4vq  1 4.100000e-01    2.600000e+00
 SX4vq SX3vq  1 4.100000e-01    2.600000e+00
 SX4vq SX2vq  1 4.100000e-01    2.600000e+00
 SX4vq SX1vq  1 4.100000e-01    2.600000e+00
 SX4vq SX4eq  1 4.100000e-01    3.310000e+00
 SX4vq SX3eq  1 4.100000e-01    3.310000e+00
 SX4vq SX2eq  1 4.100000e-01    3.310000e+00
 SX4vq SX1eq  1 4.100000e-01    3.310000e+00
 SX3vq SX3vq  1 4.100000e-01    2.600000e+00
 SX3vq SX2vq  1 4.100000e-01    2.840000e+00
 SX3vq SX1vq  1 4.100000e-01    2.840000e+00
 SX3vq SX3eq  1 4.100000e-01    3.310000e+00
 SX3vq SX2eq  1 4.100000e-01    3.550000e+00
 SX3vq SX1eq  1 4.100000e-01    3.550000e+00
 SX2vq SX2vq  1 4.100000e-01    2.840000e+00
 SX2vq SX1vq  1 4.100000e-01    2.840000e+00
 SX2vq SX2eq  1 4.100000e-01    3.550000e+00
 SX2vq SX1eq  1 4.100000e-01    3.550000e+00
 SX1vq SX1vq  1 4.100000e-01    3.070000e+00
 SX1vq SX1eq  1 4.100000e-01    3.820000e+00
 SC6eq SC6eq  1 4.100000e-01    2.840000e+00
 SC6eq SC5vq  1 4.100000e-01    3.310000e+00
 SC6eq SC4vq  1 4.100000e-01    3.310000e+00
 SC6eq SC3vq  1 4.100000e-01    3.070000e+00
 SC6eq SC2vq  1 4.100000e-01    2.840000e+00
 SC6eq SC1vq  1 4.100000e-01    2.600000e+00
 SC6eq SX4vq  1 4.100000e-01    3.310000e+00
 SC6eq SX3vq  1 4.100000e-01    3.310000e+00
 SC6eq SX2vq  1 4.100000e-01    3.310000e+00
 SC6eq SX1vq  1 4.100000e-01    3.310000e+00
 SC6eq SC5eq  1 4.100000e-01    2.600000e+00
 SC6eq SC4eq  1 4.100000e-01    2.600000e+00
 SC6eq SC3eq  1 4.100000e-01    2.350000e+00
 SC6eq SC2eq  1 4.100000e-01    2.200000e+00
 SC6eq SC1eq  1 4.100000e-01    2.040000e+00
 SC6eq SX4eq  1 4.100000e-01    2.600000e+00
 SC6eq SX3eq  1 4.100000e-01    2.600000e+00
 SC6eq SX2eq  1 4.100000e-01    2.600000e+00
 SC6eq SX1eq  1 4.100000e-01    2.600000e+00
 SC5eq SC5eq  1 4.100000e-01    2.600000e+00
 SC5eq SC4vq  1 4.100000e-01    3.310000e+00
 SC5eq SC3vq  1 4.100000e-01    3.070000e+00
 SC5eq SC2vq  1 4.100000e-01    2.840000e+00
 SC5eq SC1vq  1 4.100000e-01    2.840000e+00
 SC5eq SX4vq  1 4.100000e-01    3.070000e+00
 SC5eq SX3vq  1 4.100000e-01    3.070000e+00
 SC5eq SX2vq  1 4.100000e-01    3.070000e+00
 SC5eq SX1vq  1 4.100000e-01    3.310000e+00
 SC5eq SC4eq  1 4.100000e-01    2.600000e+00
 SC5eq SC3eq  1 4.100000e-01    2.350000e+00
 SC5eq SC2eq  1 4.100000e-01    2.200000e+00
 SC5eq SC1eq  1 4.100000e-01    2.200000e+00
 SC5eq SX4eq  1 4.100000e-01    2.350000e+00
 SC5eq SX3eq  1 4.100000e-01    2.350000e+00
 SC5eq SX2eq  1 4.100000e-01    2.350000e+00
 SC5eq SX1eq  1 4.100000e-01    2.600000e+00
 SC4eq SC4eq  1 4.100000e-01    2.600000e+00
 SC4eq SC3vq  1 4.100000e-01    3.310000e+00
 SC4eq SC2vq  1 4.100000e-01    3.070000e+00
 SC4eq SC1vq  1 4.100000e-01    2.840000e+00
 SC4eq SX4vq  1 4.100000e-01    3.070000e+00
 SC4eq SX3vq  1 4.100000e-01    3.070000e+00
 SC4eq SX2vq  1 4.100000e-01    3.070000e+00
 SC4eq SX1vq  1 4.100000e-01    3.310000e+00
 SC4eq SC3eq  1 4.100000e-01    2.600000e+00
 SC4eq SC2eq  1 4.100000e-01    2.350000e+00
 SC4eq SC1eq  1 4.100000e-01    2.200000e+00
 SC4eq SX4eq  1 4.100000e-01    2.350000e+00
 SC4eq SX3eq  1 4.100000e-01    2.350000e+00
 SC4eq SX2eq  1 4.100000e-01    2.350000e+00
 SC4eq SX1eq  1 4.100000e-01    2.600000e+00
 SC3eq SC3eq  1 4.100000e-01    2.600000e+00
 SC3eq SC2vq  1 4.100000e-01    3.310000e+00
 SC3eq SC1vq  1 4.100000e-01    3.310000e+00
 SC3eq SX4vq  1 4.100000e-01    3.070000e+00
 SC3eq SX3vq  1 4.100000e-01    3.070000e+00
 SC3eq SX2vq  1 4.100000e-01    3.070000e+00
 SC3eq SX1vq  1 4.100000e-01    3.310000e+00
 SC3eq SC2eq  1 4.100000e-01    2.600000e+00
 SC3eq SC1eq  1 4.100000e-01    2.600000e+00
 SC3eq SX4eq  1 4.100000e-01    2.350000e+00
 SC3eq SX3eq  1 4.100000e-01    2.350000e+00
 SC3eq SX2eq  1 4.100000e-01    2.350000e+00
 SC3eq SX1eq  1 4.100000e-01    2.600000e+00
 SC2eq SC2eq  1 4.100000e-01    2.600000e+00
 SC2eq SC1vq  1 4.100000e-01    3.550000e+00
 SC2eq SX4vq  1 4.100000e-01    2.600000e+00
 SC2eq SX3vq  1 4.100000e-01    3.070000e+00
 SC2eq SX2vq  1 4.100000e-01    3.070000e+00
 SC2eq SX1vq  1 4.100000e-01    3.070000e+00
 SC2eq SC1eq  1 4.100000e-01    2.840000e+00
 SC2eq SX4eq  1 4.100000e-01    2.040000e+00
 SC2eq SX3eq  1 4.100000e-01    2.350000e+00
 SC2eq SX2eq  1 4.100000e-01    2.350000e+00
 SC2eq SX1eq  1 4.100000e-01    2.350000e+00
 SC1eq SC1eq  1 4.100000e-01    2.600000e+00
 SC1eq SX4vq  1 4.100000e-01    2.600000e+00
 SC1eq SX3vq  1 4.100000e-01    3.070000e+00
 SC1eq SX2vq  1 4.100000e-01    3.070000e+00
 SC1eq SX1vq  1 4.100000e-01    3.070000e+00
 SC1eq SX4eq  1 4.100000e-01    2.040000e+00
 SC1eq SX3eq  1 4.100000e-01    2.350000e+00
 SC1eq SX2eq  1 4.100000e-01    2.350000e+00
 SC1eq SX1eq  1 4.100000e-01    2.350000e+00
 SX4eq SX4eq  1 4.100000e-01    2.600000e+00
 SX4eq SX3vq  1 4.100000e-01    3.310000e+00
 SX4eq SX2vq  1 4.100000e-01    3.310000e+00
 SX4eq SX1vq  1 4.100000e-01    3.310000e+00
 SX4eq SX3eq  1 4.100000e-01    2.600000e+00
 SX4eq SX2eq  1 4.100000e-01    2.600000e+00
 SX4eq SX1eq  1 4.100000e-01    2.600000e+00
 SX3eq SX3eq  1 4.100000e-01    2.600000e+00
 SX3eq SX2vq  1 4.100000e-01    3.550000e+00
 SX3eq SX1vq  1 4.100000e-01    3.550000e+00
 SX3eq SX2eq  1 4.100000e-01    2.840000e+00
 SX3eq SX1eq  1 4.100000e-01    2.840000e+00
 SX2eq SX2eq  1 4.100000e-01    2.840000e+00
 SX2eq SX1vq  1 4.100000e-01    3.550000e+00
 SX2eq SX1eq  1 4.100000e-01    2.840000e+00
 SX1eq SX1eq  1 4.100000e-01    3.070000e+00
  SP6h  SP6d  1 4.100000e-01    4.290000e+00
  SP6h  SN1d  1 4.100000e-01    1.910000e+00
  SP6h  SN2d  1 4.100000e-01    2.040000e+00
  SP6h  SN3d  1 4.100000e-01    2.200000e+00
  SP6h  SN4d  1 4.100000e-01    2.350000e+00
  SP6h  SN5d  1 4.100000e-01    2.600000e+00
  SP6h  SN6d  1 4.100000e-01    3.070000e+00
  SP6h  SP1d  1 4.100000e-01    3.310000e+00
  SP6h  SP2d  1 4.100000e-01    3.550000e+00
  SP6h  SP3d  1 4.100000e-01    3.550000e+00
  SP6h  SP4d  1 4.100000e-01    3.820000e+00
  SP6h  SP5d  1 4.100000e-01    4.040000e+00
  SP6h  SP6a  1 4.100000e-01    4.290000e+00
  SP6h  SN1a  1 4.100000e-01    1.910000e+00
  SP6h  SN2a  1 4.100000e-01    2.040000e+00
  SP6h  SN3a  1 4.100000e-01    2.200000e+00
  SP6h  SN4a  1 4.100000e-01    2.350000e+00
  SP6h  SN5a  1 4.100000e-01    2.600000e+00
  SP6h  SN6a  1 4.100000e-01    3.070000e+00
  SP6h  SP1a  1 4.100000e-01    3.310000e+00
  SP6h  SP2a  1 4.100000e-01    3.550000e+00
  SP6h  SP3a  1 4.100000e-01    3.550000e+00
  SP6h  SP4a  1 4.100000e-01    3.820000e+00
  SP6h  SP5a  1 4.100000e-01    4.040000e+00
  SP6h  SC6v  1 4.100000e-01    2.040000e+00
  SP6h  SC5v  1 4.100000e-01    1.910000e+00
  SP6h  SC4v  1 4.100000e-01    1.750000e+00
  SP6h  SC3v  1 4.140000e-01    1.560000e+00
  SP6h  SC2v  1 4.140000e-01    1.560000e+00
  SP6h  SC1v  1 4.210000e-01    1.250000e+00
  SP6h  SX4v  1 4.100000e-01    2.200000e+00
  SP6h  SX3v  1 4.100000e-01    2.200000e+00
  SP6h  SX2v  1 4.100000e-01    2.040000e+00
  SP6h  SX1v  1 4.100000e-01    1.910000e+00
  SP6h  SC6e  1 4.100000e-01    2.040000e+00
  SP6h  SC5e  1 4.100000e-01    1.910000e+00
  SP6h  SC4e  1 4.100000e-01    1.750000e+00
  SP6h  SC3e  1 4.140000e-01    1.560000e+00
  SP6h  SC2e  1 4.140000e-01    1.560000e+00
  SP6h  SC1e  1 4.210000e-01    1.250000e+00
  SP6h  SX4e  1 4.100000e-01    2.200000e+00
  SP6h  SX3e  1 4.100000e-01    2.200000e+00
  SP6h  SX2e  1 4.100000e-01    2.040000e+00
  SP6h  SX1e  1 4.100000e-01    1.910000e+00
  SP6h  SP6q  1 4.100000e-01    4.840000e+00
  SP6h  SX1q  1 4.100000e-01    2.040000e+00
  SP6h  SX2q  1 4.100000e-01    2.200000e+00
  SP6h  SX3q  1 4.100000e-01    2.350000e+00
  SP6h  SX4q  1 4.100000e-01    2.350000e+00
  SP6h  SC1q  1 4.180000e-01    1.400000e+00
  SP6h  SC2q  1 4.100000e-01    1.750000e+00
  SP6h  SC3q  1 4.100000e-01    1.750000e+00
  SP6h  SC4q  1 4.100000e-01    1.910000e+00
  SP6h  SC5q  1 4.100000e-01    2.040000e+00
  SP6h  SC6q  1 4.100000e-01    2.200000e+00
  SP6h  SN1q  1 4.100000e-01    2.200000e+00
  SP6h  SN2q  1 4.100000e-01    2.350000e+00
  SP6h  SN3q  1 4.100000e-01    2.600000e+00
  SP6h  SN4q  1 4.100000e-01    2.840000e+00
  SP6h  SN5q  1 4.100000e-01    3.070000e+00
  SP6h  SN6q  1 4.100000e-01    3.550000e+00
  SP6h  SP1q  1 4.100000e-01    3.820000e+00
  SP6h  SP2q  1 4.100000e-01    4.040000e+00
  SP6h  SP3q  1 4.100000e-01    4.040000e+00
  SP6h  SP4q  1 4.100000e-01    4.290000e+00
  SP6h  SP5q  1 4.100000e-01    4.550000e+00
  SP6d  SP5h  1 4.100000e-01    4.040000e+00
  SP5h  SP5d  1 4.100000e-01    3.820000e+00
  SP5h  SN1d  1 4.100000e-01    1.910000e+00
  SP5h  SN2d  1 4.100000e-01    2.040000e+00
  SP5h  SN3d  1 4.100000e-01    2.200000e+00
  SP5h  SN4d  1 4.100000e-01    2.600000e+00
  SP5h  SN5d  1 4.100000e-01    2.600000e+00
  SP5h  SN6d  1 4.100000e-01    2.840000e+00
  SP5h  SP1d  1 4.100000e-01    3.070000e+00
  SP5h  SP2d  1 4.100000e-01    3.310000e+00
  SP5h  SP3d  1 4.100000e-01    3.310000e+00
  SP5h  SP4d  1 4.100000e-01    3.550000e+00
  SP6a  SP5h  1 4.100000e-01    4.040000e+00
  SP5h  SP5a  1 4.100000e-01    3.820000e+00
  SP5h  SN1a  1 4.100000e-01    1.910000e+00
  SP5h  SN2a  1 4.100000e-01    2.040000e+00
  SP5h  SN3a  1 4.100000e-01    2.200000e+00
  SP5h  SN4a  1 4.100000e-01    2.600000e+00
  SP5h  SN5a  1 4.100000e-01    2.600000e+00
  SP5h  SN6a  1 4.100000e-01    2.840000e+00
  SP5h  SP1a  1 4.100000e-01    3.070000e+00
  SP5h  SP2a  1 4.100000e-01    3.310000e+00
  SP5h  SP3a  1 4.100000e-01    3.310000e+00
  SP5h  SP4a  1 4.100000e-01    3.550000e+00
  SP5h  SC6v  1 4.100000e-01    2.040000e+00
  SP5h  SC5v  1 4.100000e-01    2.040000e+00
  SP5h  SC4v  1 4.100000e-01    1.910000e+00
  SP5h  SC3v  1 4.100000e-01    1.750000e+00
  SP5h  SC2v  1 4.100000e-01    1.750000e+00
  SP5h  SC1v  1 4.140000e-01    1.560000e+00
  SP5h  SX4v  1 4.100000e-01    2.350000e+00
  SP5h  SX3v  1 4.100000e-01    2.200000e+00
  SP5h  SX2v  1 4.100000e-01    2.200000e+00
  SP5h  SX1v  1 4.100000e-01    1.910000e+00
  SP5h  SC6e  1 4.100000e-01    2.040000e+00
  SP5h  SC5e  1 4.100000e-01    2.040000e+00
  SP5h  SC4e  1 4.100000e-01    1.910000e+00
  SP5h  SC3e  1 4.100000e-01    1.750000e+00
  SP5h  SC2e  1 4.100000e-01    1.750000e+00
  SP5h  SC1e  1 4.140000e-01    1.560000e+00
  SP5h  SX4e  1 4.100000e-01    2.350000e+00
  SP5h  SX3e  1 4.100000e-01    2.200000e+00
  SP5h  SX2e  1 4.100000e-01    2.200000e+00
  SP5h  SX1e  1 4.100000e-01    1.910000e+00
  SP6q  SP5h  1 4.100000e-01    4.550000e+00
  SP5h  SP5q  1 4.100000e-01    4.290000e+00
  SP5h  SX1q  1 4.100000e-01    2.040000e+00
  SP5h  SX2q  1 4.100000e-01    2.350000e+00
  SP5h  SX3q  1 4.100000e-01    2.350000e+00
  SP5h  SX4q  1 4.100000e-01    2.600000e+00
  SP5h  SC1q  1 4.100000e-01    1.750000e+00
  SP5h  SC2q  1 4.100000e-01    1.910000e+00
  SP5h  SC3q  1 4.100000e-01    1.910000e+00
  SP5h  SC4q  1 4.100000e-01    2.040000e+00
  SP5h  SC5q  1 4.100000e-01    2.200000e+00
  SP5h  SC6q  1 4.100000e-01    2.200000e+00
  SP5h  SN1q  1 4.100000e-01    2.200000e+00
  SP5h  SN2q  1 4.100000e-01    2.350000e+00
  SP5h  SN3q  1 4.100000e-01    2.600000e+00
  SP5h  SN4q  1 4.100000e-01    3.070000e+00
  SP5h  SN5q  1 4.100000e-01    3.070000e+00
  SP5h  SN6q  1 4.100000e-01    3.310000e+00
  SP5h  SP1q  1 4.100000e-01    3.550000e+00
  SP5h  SP2q  1 4.100000e-01    3.820000e+00
  SP5h  SP3q  1 4.100000e-01    3.820000e+00
  SP5h  SP4q  1 4.100000e-01    4.040000e+00
  SP6d  SP4h  1 4.100000e-01    3.820000e+00
  SP5d  SP4h  1 4.100000e-01    3.550000e+00
  SP4h  SP4d  1 4.100000e-01    3.550000e+00
  SP4h  SN1d  1 4.100000e-01    2.040000e+00
  SP4h  SN2d  1 4.100000e-01    2.200000e+00
  SP4h  SN3d  1 4.100000e-01    2.350000e+00
  SP4h  SN4d  1 4.100000e-01    2.600000e+00
  SP4h  SN5d  1 4.100000e-01    2.600000e+00
  SP4h  SN6d  1 4.100000e-01    2.840000e+00
  SP4h  SP1d  1 4.100000e-01    3.070000e+00
  SP4h  SP2d  1 4.100000e-01    3.310000e+00
  SP4h  SP3d  1 4.100000e-01    3.310000e+00
  SP6a  SP4h  1 4.100000e-01    3.820000e+00
  SP5a  SP4h  1 4.100000e-01    3.550000e+00
  SP4h  SP4a  1 4.100000e-01    3.550000e+00
  SP4h  SN1a  1 4.100000e-01    2.040000e+00
  SP4h  SN2a  1 4.100000e-01    2.200000e+00
  SP4h  SN3a  1 4.100000e-01    2.350000e+00
  SP4h  SN4a  1 4.100000e-01    2.600000e+00
  SP4h  SN5a  1 4.100000e-01    2.600000e+00
  SP4h  SN6a  1 4.100000e-01    2.840000e+00
  SP4h  SP1a  1 4.100000e-01    3.070000e+00
  SP4h  SP2a  1 4.100000e-01    3.310000e+00
  SP4h  SP3a  1 4.100000e-01    3.310000e+00
  SP4h  SC6v  1 4.100000e-01    2.200000e+00
  SP4h  SC5v  1 4.100000e-01    2.040000e+00
  SP4h  SC4v  1 4.100000e-01    1.910000e+00
  SP4h  SC3v  1 4.100000e-01    1.750000e+00
  SP4h  SC2v  1 4.100000e-01    1.750000e+00
  SP4h  SC1v  1 4.140000e-01    1.560000e+00
  SP4h  SX4v  1 4.100000e-01    2.350000e+00
  SP4h  SX3v  1 4.100000e-01    2.200000e+00
  SP4h  SX2v  1 4.100000e-01    2.200000e+00
  SP4h  SX1v  1 4.100000e-01    2.040000e+00
  SP4h  SC6e  1 4.100000e-01    2.200000e+00
  SP4h  SC5e  1 4.100000e-01    2.040000e+00
  SP4h  SC4e  1 4.100000e-01    1.910000e+00
  SP4h  SC3e  1 4.100000e-01    1.750000e+00
  SP4h  SC2e  1 4.100000e-01    1.750000e+00
  SP4h  SC1e  1 4.140000e-01    1.560000e+00
  SP4h  SX4e  1 4.100000e-01    2.350000e+00
  SP4h  SX3e  1 4.100000e-01    2.200000e+00
  SP4h  SX2e  1 4.100000e-01    2.200000e+00
  SP4h  SX1e  1 4.100000e-01    2.040000e+00
  SP6q  SP4h  1 4.100000e-01    4.290000e+00
  SP5q  SP4h  1 4.100000e-01    4.040000e+00
  SP4h  SP4q  1 4.100000e-01    4.040000e+00
  SP4h  SX1q  1 4.100000e-01    2.200000e+00
  SP4h  SX2q  1 4.100000e-01    2.350000e+00
  SP4h  SX3q  1 4.100000e-01    2.350000e+00
  SP4h  SX4q  1 4.100000e-01    2.600000e+00
  SP4h  SC1q  1 4.100000e-01    1.750000e+00
  SP4h  SC2q  1 4.100000e-01    1.910000e+00
  SP4h  SC3q  1 4.100000e-01    1.910000e+00
  SP4h  SC4q  1 4.100000e-01    2.040000e+00
  SP4h  SC5q  1 4.100000e-01    2.200000e+00
  SP4h  SC6q  1 4.100000e-01    2.350000e+00
  SP4h  SN1q  1 4.100000e-01    2.350000e+00
  SP4h  SN2q  1 4.100000e-01    2.600000e+00
  SP4h  SN3q  1 4.100000e-01    2.840000e+00
  SP4h  SN4q  1 4.100000e-01    3.070000e+00
  SP4h  SN5q  1 4.100000e-01    3.070000e+00
  SP4h  SN6q  1 4.100000e-01    3.310000e+00
  SP4h  SP1q  1 4.100000e-01    3.550000e+00
  SP4h  SP2q  1 4.100000e-01    3.820000e+00
  SP4h  SP3q  1 4.100000e-01    3.820000e+00
  SP6d  SP3h  1 4.100000e-01    3.550000e+00
  SP5d  SP3h  1 4.100000e-01    3.310000e+00
  SP4d  SP3h  1 4.100000e-01    3.310000e+00
  SP3h  SP3d  1 4.100000e-01    3.310000e+00
  SP3h  SN1d  1 4.100000e-01    2.200000e+00
  SP3h  SN2d  1 4.100000e-01    2.350000e+00
  SP3h  SN3d  1 4.100000e-01    2.350000e+00
  SP3h  SN4d  1 4.100000e-01    2.600000e+00
  SP3h  SN5d  1 4.100000e-01    2.600000e+00
  SP3h  SN6d  1 4.100000e-01    2.840000e+00
  SP3h  SP1d  1 4.100000e-01    3.070000e+00
  SP3h  SP2d  1 4.100000e-01    3.310000e+00
  SP6a  SP3h  1 4.100000e-01    3.550000e+00
  SP5a  SP3h  1 4.100000e-01    3.310000e+00
  SP4a  SP3h  1 4.100000e-01    3.310000e+00
  SP3h  SP3a  1 4.100000e-01    3.310000e+00
  SP3h  SN1a  1 4.100000e-01    2.200000e+00
  SP3h  SN2a  1 4.100000e-01    2.350000e+00
  SP3h  SN3a  1 4.100000e-01    2.350000e+00
  SP3h  SN4a  1 4.100000e-01    2.600000e+00
  SP3h  SN5a  1 4.100000e-01    2.600000e+00
  SP3h  SN6a  1 4.100000e-01    2.840000e+00
  SP3h  SP1a  1 4.100000e-01    3.070000e+00
  SP3h  SP2a  1 4.100000e-01    3.310000e+00
  SP3h  SC6v  1 4.100000e-01    2.350000e+00
  SP3h  SC5v  1 4.100000e-01    2.200000e+00
  SP3h  SC4v  1 4.100000e-01    2.040000e+00
  SP3h  SC3v  1 4.100000e-01    1.750000e+00
  SP3h  SC2v  1 4.100000e-01    1.750000e+00
  SP3h  SC1v  1 4.140000e-01    1.560000e+00
  SP3h  SX4v  1 4.100000e-01    2.350000e+00
  SP3h  SX3v  1 4.100000e-01    2.350000e+00
  SP3h  SX2v  1 4.100000e-01    2.200000e+00
  SP3h  SX1v  1 4.100000e-01    2.040000e+00
  SP3h  SC6e  1 4.100000e-01    2.350000e+00
  SP3h  SC5e  1 4.100000e-01    2.200000e+00
  SP3h  SC4e  1 4.100000e-01    2.040000e+00
  SP3h  SC3e  1 4.100000e-01    1.750000e+00
  SP3h  SC2e  1 4.100000e-01    1.750000e+00
  SP3h  SC1e  1 4.140000e-01    1.560000e+00
  SP3h  SX4e  1 4.100000e-01    2.350000e+00
  SP3h  SX3e  1 4.100000e-01    2.350000e+00
  SP3h  SX2e  1 4.100000e-01    2.200000e+00
  SP3h  SX1e  1 4.100000e-01    2.040000e+00
  SP6q  SP3h  1 4.100000e-01    4.040000e+00
  SP5q  SP3h  1 4.100000e-01    3.820000e+00
  SP4q  SP3h  1 4.100000e-01    3.820000e+00
  SP3h  SP3q  1 4.100000e-01    3.820000e+00
  SP3h  SX1q  1 4.100000e-01    2.200000e+00
  SP3h  SX2q  1 4.100000e-01    2.350000e+00
  SP3h  SX3q  1 4.100000e-01    2.600000e+00
  SP3h  SX4q  1 4.100000e-01    2.600000e+00
  SP3h  SC1q  1 4.100000e-01    1.750000e+00
  SP3h  SC2q  1 4.100000e-01    1.910000e+00
  SP3h  SC3q  1 4.100000e-01    1.910000e+00
  SP3h  SC4q  1 4.100000e-01    2.200000e+00
  SP3h  SC5q  1 4.100000e-01    2.350000e+00
  SP3h  SC6q  1 4.100000e-01    2.600000e+00
  SP3h  SN1q  1 4.100000e-01    2.600000e+00
  SP3h  SN2q  1 4.100000e-01    2.840000e+00
  SP3h  SN3q  1 4.100000e-01    2.840000e+00
  SP3h  SN4q  1 4.100000e-01    3.070000e+00
  SP3h  SN5q  1 4.100000e-01    3.070000e+00
  SP3h  SN6q  1 4.100000e-01    3.310000e+00
  SP3h  SP1q  1 4.100000e-01    3.550000e+00
  SP3h  SP2q  1 4.100000e-01    3.820000e+00
  SP6d  SP2h  1 4.100000e-01    3.550000e+00
  SP5d  SP2h  1 4.100000e-01    3.310000e+00
  SP4d  SP2h  1 4.100000e-01    3.310000e+00
  SP3d  SP2h  1 4.100000e-01    3.310000e+00
  SP2h  SP2d  1 4.100000e-01    3.310000e+00
  SP2h  SN1d  1 4.100000e-01    2.350000e+00
  SP2h  SN2d  1 4.100000e-01    2.350000e+00
  SP2h  SN3d  1 4.100000e-01    2.350000e+00
  SP2h  SN4d  1 4.100000e-01    2.600000e+00
  SP2h  SN5d  1 4.100000e-01    2.840000e+00
  SP2h  SN6d  1 4.100000e-01    3.070000e+00
  SP2h  SP1d  1 4.100000e-01    3.070000e+00
  SP6a  SP2h  1 4.100000e-01    3.550000e+00
  SP5a  SP2h  1 4.100000e-01    3.310000e+00
  SP4a  SP2h  1 4.100000e-01    3.310000e+00
  SP3a  SP2h  1 4.100000e-01    3.310000e+00
  SP2h  SP2a  1 4.100000e-01    3.310000e+00
  SP2h  SN1a  1 4.100000e-01    2.350000e+00
  SP2h  SN2a  1 4.100000e-01    2.350000e+00
  SP2h  SN3a  1 4.100000e-01    2.350000e+00
  SP2h  SN4a  1 4.100000e-01    2.600000e+00
  SP2h  SN5a  1 4.100000e-01    2.840000e+00
  SP2h  SN6a  1 4.100000e-01    3.070000e+00
  SP2h  SP1a  1 4.100000e-01    3.070000e+00
  SP2h  SC6v  1 4.100000e-01    2.350000e+00
  SP2h  SC5v  1 4.100000e-01    2.200000e+00
  SP2h  SC4v  1 4.100000e-01    2.040000e+00
  SP2h  SC3v  1 4.100000e-01    1.910000e+00
  SP2h  SC2v  1 4.100000e-01    1.910000e+00
  SP2h  SC1v  1 4.100000e-01    1.750000e+00
  SP2h  SX4v  1 4.100000e-01    2.350000e+00
  SP2h  SX3v  1 4.100000e-01    2.350000e+00
  SP2h  SX2v  1 4.100000e-01    2.200000e+00
  SP2h  SX1v  1 4.100000e-01    2.040000e+00
  SP2h  SC6e  1 4.100000e-01    2.350000e+00
  SP2h  SC5e  1 4.100000e-01    2.200000e+00
  SP2h  SC4e  1 4.100000e-01    2.040000e+00
  SP2h  SC3e  1 4.100000e-01    1.910000e+00
  SP2h  SC2e  1 4.100000e-01    1.910000e+00
  SP2h  SC1e  1 4.100000e-01    1.750000e+00
  SP2h  SX4e  1 4.100000e-01    2.350000e+00
  SP2h  SX3e  1 4.100000e-01    2.350000e+00
  SP2h  SX2e  1 4.100000e-01    2.200000e+00
  SP2h  SX1e  1 4.100000e-01    2.040000e+00
  SP6q  SP2h  1 4.100000e-01    4.040000e+00
  SP5q  SP2h  1 4.100000e-01    3.820000e+00
  SP4q  SP2h  1 4.100000e-01    3.820000e+00
  SP3q  SP2h  1 4.100000e-01    3.820000e+00
  SP2h  SP2q  1 4.100000e-01    3.820000e+00
  SP2h  SX1q  1 4.100000e-01    2.200000e+00
  SP2h  SX2q  1 4.100000e-01    2.350000e+00
  SP2h  SX3q  1 4.100000e-01    2.600000e+00
  SP2h  SX4q  1 4.100000e-01    2.600000e+00
  SP2h  SC1q  1 4.100000e-01    1.910000e+00
  SP2h  SC2q  1 4.100000e-01    2.040000e+00
  SP2h  SC3q  1 4.100000e-01    2.040000e+00
  SP2h  SC4q  1 4.100000e-01    2.200000e+00
  SP2h  SC5q  1 4.100000e-01    2.350000e+00
  SP2h  SC6q  1 4.100000e-01    2.600000e+00
  SP2h  SN1q  1 4.100000e-01    2.840000e+00
  SP2h  SN2q  1 4.100000e-01    2.840000e+00
  SP2h  SN3q  1 4.100000e-01    2.840000e+00
  SP2h  SN4q  1 4.100000e-01    3.070000e+00
  SP2h  SN5q  1 4.100000e-01    3.310000e+00
  SP2h  SN6q  1 4.100000e-01    3.550000e+00
  SP2h  SP1q  1 4.100000e-01    3.550000e+00
  SP6d  SP1h  1 4.100000e-01    3.310000e+00
  SP5d  SP1h  1 4.100000e-01    3.070000e+00
  SP4d  SP1h  1 4.100000e-01    3.070000e+00
  SP3d  SP1h  1 4.100000e-01    3.070000e+00
  SP2d  SP1h  1 4.100000e-01    3.070000e+00
  SP1h  SP1d  1 4.100000e-01    3.070000e+00
  SP1h  SN1d  1 4.100000e-01    2.350000e+00
  SP1h  SN2d  1 4.100000e-01    2.350000e+00
  SP1h  SN3d  1 4.100000e-01    2.350000e+00
  SP1h  SN4d  1 4.100000e-01    2.840000e+00
  SP1h  SN5d  1 4.100000e-01    2.840000e+00
  SP1h  SN6d  1 4.100000e-01    3.070000e+00
  SP6a  SP1h  1 4.100000e-01    3.310000e+00
  SP5a  SP1h  1 4.100000e-01    3.070000e+00
  SP4a  SP1h  1 4.100000e-01    3.070000e+00
  SP3a  SP1h  1 4.100000e-01    3.070000e+00
  SP2a  SP1h  1 4.100000e-01    3.070000e+00
  SP1h  SP1a  1 4.100000e-01    3.070000e+00
  SP1h  SN1a  1 4.100000e-01    2.350000e+00
  SP1h  SN2a  1 4.100000e-01    2.350000e+00
  SP1h  SN3a  1 4.100000e-01    2.350000e+00
  SP1h  SN4a  1 4.100000e-01    2.840000e+00
  SP1h  SN5a  1 4.100000e-01    2.840000e+00
  SP1h  SN6a  1 4.100000e-01    3.070000e+00
  SP1h  SC6v  1 4.100000e-01    2.350000e+00
  SP1h  SC5v  1 4.100000e-01    2.200000e+00
  SP1h  SC4v  1 4.100000e-01    2.040000e+00
  SP1h  SC3v  1 4.100000e-01    1.910000e+00
  SP1h  SC2v  1 4.100000e-01    1.910000e+00
  SP1h  SC1v  1 4.100000e-01    1.750000e+00
  SP1h  SX4v  1 4.100000e-01    2.350000e+00
  SP1h  SX3v  1 4.100000e-01    2.350000e+00
  SP1h  SX2v  1 4.100000e-01    2.200000e+00
  SP1h  SX1v  1 4.100000e-01    2.040000e+00
  SP1h  SC6e  1 4.100000e-01    2.350000e+00
  SP1h  SC5e  1 4.100000e-01    2.200000e+00
  SP1h  SC4e  1 4.100000e-01    2.040000e+00
  SP1h  SC3e  1 4.100000e-01    1.910000e+00
  SP1h  SC2e  1 4.100000e-01    1.910000e+00
  SP1h  SC1e  1 4.100000e-01    1.750000e+00
  SP1h  SX4e  1 4.100000e-01    2.350000e+00
  SP1h  SX3e  1 4.100000e-01    2.350000e+00
  SP1h  SX2e  1 4.100000e-01    2.200000e+00
  SP1h  SX1e  1 4.100000e-01    2.040000e+00
  SP6q  SP1h  1 4.100000e-01    3.820000e+00
  SP5q  SP1h  1 4.100000e-01    3.550000e+00
  SP4q  SP1h  1 4.100000e-01    3.550000e+00
  SP3q  SP1h  1 4.100000e-01    3.550000e+00
  SP2q  SP1h  1 4.100000e-01    3.550000e+00
  SP1h  SP1q  1 4.100000e-01    3.550000e+00
  SP1h  SX1q  1 4.100000e-01    2.200000e+00
  SP1h  SX2q  1 4.100000e-01    2.350000e+00
  SP1h  SX3q  1 4.100000e-01    2.600000e+00
  SP1h  SX4q  1 4.100000e-01    2.600000e+00
  SP1h  SC1q  1 4.100000e-01    1.910000e+00
  SP1h  SC2q  1 4.100000e-01    2.040000e+00
  SP1h  SC3q  1 4.100000e-01    2.040000e+00
  SP1h  SC4q  1 4.100000e-01    2.200000e+00
  SP1h  SC5q  1 4.100000e-01    2.350000e+00
  SP1h  SC6q  1 4.100000e-01    2.600000e+00
  SP1h  SN1q  1 4.100000e-01    2.840000e+00
  SP1h  SN2q  1 4.100000e-01    2.840000e+00
  SP1h  SN3q  1 4.100000e-01    2.840000e+00
  SP1h  SN4q  1 4.100000e-01    3.310000e+00
  SP1h  SN5q  1 4.100000e-01    3.310000e+00
  SP1h  SN6q  1 4.100000e-01    3.550000e+00
  SP6d  SN6h  1 4.100000e-01    3.070000e+00
  SP5d  SN6h  1 4.100000e-01    2.840000e+00
  SP4d  SN6h  1 4.100000e-01    2.840000e+00
  SP3d  SN6h  1 4.100000e-01    2.840000e+00
  SP2d  SN6h  1 4.100000e-01    3.070000e+00
  SP1d  SN6h  1 4.100000e-01    3.070000e+00
  SN6h  SN6d  1 4.100000e-01    3.070000e+00
  SN6h  SN1d  1 4.100000e-01    2.350000e+00
  SN6h  SN2d  1 4.100000e-01    2.350000e+00
  SN6h  SN3d  1 4.100000e-01    2.600000e+00
  SN6h  SN4d  1 4.100000e-01    3.070000e+00
  SN6h  SN5d  1 4.100000e-01    3.070000e+00
  SP6a  SN6h  1 4.100000e-01    3.070000e+00
  SP5a  SN6h  1 4.100000e-01    2.840000e+00
  SP4a  SN6h  1 4.100000e-01    2.840000e+00
  SP3a  SN6h  1 4.100000e-01    2.840000e+00
  SP2a  SN6h  1 4.100000e-01    3.070000e+00
  SP1a  SN6h  1 4.100000e-01    3.070000e+00
  SN6h  SN6a  1 4.100000e-01    3.070000e+00
  SN6h  SN1a  1 4.100000e-01    2.350000e+00
  SN6h  SN2a  1 4.100000e-01    2.350000e+00
  SN6h  SN3a  1 4.100000e-01    2.600000e+00
  SN6h  SN4a  1 4.100000e-01    3.070000e+00
  SN6h  SN5a  1 4.100000e-01    3.070000e+00
  SN6h  SC6v  1 4.100000e-01    2.600000e+00
  SN6h  SC5v  1 4.100000e-01    2.350000e+00
  SN6h  SC4v  1 4.100000e-01    2.200000e+00
  SN6h  SC3v  1 4.100000e-01    2.040000e+00
  SN6h  SC2v  1 4.100000e-01    2.040000e+00
  SN6h  SC1v  1 4.100000e-01    1.910000e+00
  SN6h  SX4v  1 4.100000e-01    2.600000e+00
  SN6h  SX3v  1 4.100000e-01    2.350000e+00
  SN6h  SX2v  1 4.100000e-01    2.200000e+00
  SN6h  SX1v  1 4.100000e-01    2.040000e+00
  SN6h  SC6e  1 4.100000e-01    2.600000e+00
  SN6h  SC5e  1 4.100000e-01    2.350000e+00
  SN6h  SC4e  1 4.100000e-01    2.200000e+00
  SN6h  SC3e  1 4.100000e-01    2.040000e+00
  SN6h  SC2e  1 4.100000e-01    2.040000e+00
  SN6h  SC1e  1 4.100000e-01    1.910000e+00
  SN6h  SX4e  1 4.100000e-01    2.600000e+00
  SN6h  SX3e  1 4.100000e-01    2.350000e+00
  SN6h  SX2e  1 4.100000e-01    2.200000e+00
  SN6h  SX1e  1 4.100000e-01    2.040000e+00
  SP6q  SN6h  1 4.100000e-01    3.550000e+00
  SP5q  SN6h  1 4.100000e-01    3.310000e+00
  SP4q  SN6h  1 4.100000e-01    3.310000e+00
  SP3q  SN6h  1 4.100000e-01    3.310000e+00
  SP2q  SN6h  1 4.100000e-01    3.550000e+00
  SP1q  SN6h  1 4.100000e-01    3.550000e+00
  SN6h  SN6q  1 4.100000e-01    3.550000e+00
  SN6h  SX1q  1 4.100000e-01    2.200000e+00
  SN6h  SX2q  1 4.100000e-01    2.350000e+00
  SN6h  SX3q  1 4.100000e-01    2.600000e+00
  SN6h  SX4q  1 4.100000e-01    2.840000e+00
  SN6h  SC1q  1 4.100000e-01    2.040000e+00
  SN6h  SC2q  1 4.100000e-01    2.200000e+00
  SN6h  SC3q  1 4.100000e-01    2.200000e+00
  SN6h  SC4q  1 4.100000e-01    2.350000e+00
  SN6h  SC5q  1 4.100000e-01    2.600000e+00
  SN6h  SC6q  1 4.100000e-01    2.840000e+00
  SN6h  SN1q  1 4.100000e-01    2.840000e+00
  SN6h  SN2q  1 4.100000e-01    2.840000e+00
  SN6h  SN3q  1 4.100000e-01    3.070000e+00
  SN6h  SN4q  1 4.100000e-01    3.550000e+00
  SN6h  SN5q  1 4.100000e-01    3.550000e+00
  SP6d  SN5h  1 4.100000e-01    2.600000e+00
  SP5d  SN5h  1 4.100000e-01    2.600000e+00
  SP4d  SN5h  1 4.100000e-01    2.600000e+00
  SP3d  SN5h  1 4.100000e-01    2.600000e+00
  SP2d  SN5h  1 4.100000e-01    2.840000e+00
  SP1d  SN5h  1 4.100000e-01    2.840000e+00
  SN6d  SN5h  1 4.100000e-01    3.070000e+00
  SN5h  SN5d  1 4.100000e-01    2.840000e+00
  SN5h  SN1d  1 4.100000e-01    2.350000e+00
  SN5h  SN2d  1 4.100000e-01    2.600000e+00
  SN5h  SN3d  1 4.100000e-01    2.600000e+00
  SN5h  SN4d  1 4.100000e-01    2.840000e+00
  SP6a  SN5h  1 4.100000e-01    2.600000e+00
  SP5a  SN5h  1 4.100000e-01    2.600000e+00
  SP4a  SN5h  1 4.100000e-01    2.600000e+00
  SP3a  SN5h  1 4.100000e-01    2.600000e+00
  SP2a  SN5h  1 4.100000e-01    2.840000e+00
  SP1a  SN5h  1 4.100000e-01    2.840000e+00
  SN6a  SN5h  1 4.100000e-01    3.070000e+00
  SN5h  SN5a  1 4.100000e-01    2.840000e+00
  SN5h  SN1a  1 4.100000e-01    2.350000e+00
  SN5h  SN2a  1 4.100000e-01    2.600000e+00
  SN5h  SN3a  1 4.100000e-01    2.600000e+00
  SN5h  SN4a  1 4.100000e-01    2.840000e+00
  SN5h  SC6v  1 4.100000e-01    2.600000e+00
  SN5h  SC5v  1 4.100000e-01    2.350000e+00
  SN5h  SC4v  1 4.100000e-01    2.200000e+00
  SN5h  SC3v  1 4.100000e-01    2.200000e+00
  SN5h  SC2v  1 4.100000e-01    2.040000e+00
  SN5h  SC1v  1 4.100000e-01    1.910000e+00
  SN5h  SX4v  1 4.100000e-01    2.840000e+00
  SN5h  SX3v  1 4.100000e-01    2.600000e+00
  SN5h  SX2v  1 4.100000e-01    2.350000e+00
  SN5h  SX1v  1 4.100000e-01    2.200000e+00
  SN5h  SC6e  1 4.100000e-01    2.600000e+00
  SN5h  SC5e  1 4.100000e-01    2.350000e+00
  SN5h  SC4e  1 4.100000e-01    2.200000e+00
  SN5h  SC3e  1 4.100000e-01    2.200000e+00
  SN5h  SC2e  1 4.100000e-01    2.040000e+00
  SN5h  SC1e  1 4.100000e-01    1.910000e+00
  SN5h  SX4e  1 4.100000e-01    2.840000e+00
  SN5h  SX3e  1 4.100000e-01    2.600000e+00
  SN5h  SX2e  1 4.100000e-01    2.350000e+00
  SN5h  SX1e  1 4.100000e-01    2.200000e+00
  SP6q  SN5h  1 4.100000e-01    3.070000e+00
  SP5q  SN5h  1 4.100000e-01    3.070000e+00
  SP4q  SN5h  1 4.100000e-01    3.070000e+00
  SP3q  SN5h  1 4.100000e-01    3.070000e+00
  SP2q  SN5h  1 4.100000e-01    3.310000e+00
  SP1q  SN5h  1 4.100000e-01    3.310000e+00
  SN6q  SN5h  1 4.100000e-01    3.550000e+00
  SN5h  SN5q  1 4.100000e-01    3.310000e+00
  SN5h  SX1q  1 4.100000e-01    2.350000e+00
  SN5h  SX2q  1 4.100000e-01    2.600000e+00
  SN5h  SX3q  1 4.100000e-01    2.840000e+00
  SN5h  SX4q  1 4.100000e-01    3.070000e+00
  SN5h  SC1q  1 4.100000e-01    2.040000e+00
  SN5h  SC2q  1 4.100000e-01    2.200000e+00
  SN5h  SC3q  1 4.100000e-01    2.350000e+00
  SN5h  SC4q  1 4.100000e-01    2.350000e+00
  SN5h  SC5q  1 4.100000e-01    2.600000e+00
  SN5h  SC6q  1 4.100000e-01    2.840000e+00
  SN5h  SN1q  1 4.100000e-01    2.840000e+00
  SN5h  SN2q  1 4.100000e-01    3.070000e+00
  SN5h  SN3q  1 4.100000e-01    3.070000e+00
  SN5h  SN4q  1 4.100000e-01    3.310000e+00
  SP6d  SN4h  1 4.100000e-01    2.350000e+00
  SP5d  SN4h  1 4.100000e-01    2.600000e+00
  SP4d  SN4h  1 4.100000e-01    2.600000e+00
  SP3d  SN4h  1 4.100000e-01    2.600000e+00
  SP2d  SN4h  1 4.100000e-01    2.600000e+00
  SP1d  SN4h  1 4.100000e-01    2.840000e+00
  SN6d  SN4h  1 4.100000e-01    3.070000e+00
  SN5d  SN4h  1 4.100000e-01    2.840000e+00
  SN4h  SN4d  1 4.100000e-01    2.840000e+00
  SN4h  SN1d  1 4.100000e-01    2.350000e+00
  SN4h  SN2d  1 4.100000e-01    2.600000e+00
  SN4h  SN3d  1 4.100000e-01    2.600000e+00
  SP6a  SN4h  1 4.100000e-01    2.350000e+00
  SP5a  SN4h  1 4.100000e-01    2.600000e+00
  SP4a  SN4h  1 4.100000e-01    2.600000e+00
  SP3a  SN4h  1 4.100000e-01    2.600000e+00
  SP2a  SN4h  1 4.100000e-01    2.600000e+00
  SP1a  SN4h  1 4.100000e-01    2.840000e+00
  SN6a  SN4h  1 4.100000e-01    3.070000e+00
  SN5a  SN4h  1 4.100000e-01    2.840000e+00
  SN4h  SN4a  1 4.100000e-01    2.840000e+00
  SN4h  SN1a  1 4.100000e-01    2.350000e+00
  SN4h  SN2a  1 4.100000e-01    2.600000e+00
  SN4h  SN3a  1 4.100000e-01    2.600000e+00
  SN4h  SC6v  1 4.100000e-01    2.600000e+00
  SN4h  SC5v  1 4.100000e-01    2.350000e+00
  SN4h  SC4v  1 4.100000e-01    2.350000e+00
  SN4h  SC3v  1 4.100000e-01    2.200000e+00
  SN4h  SC2v  1 4.100000e-01    2.040000e+00
  SN4h  SC1v  1 4.100000e-01    1.910000e+00
  SN4h  SX4v  1 4.100000e-01    3.070000e+00
  SN4h  SX3v  1 4.100000e-01    2.840000e+00
  SN4h  SX2v  1 4.100000e-01    2.350000e+00
  SN4h  SX1v  1 4.100000e-01    2.200000e+00
  SN4h  SC6e  1 4.100000e-01    2.600000e+00
  SN4h  SC5e  1 4.100000e-01    2.350000e+00
  SN4h  SC4e  1 4.100000e-01    2.350000e+00
  SN4h  SC3e  1 4.100000e-01    2.200000e+00
  SN4h  SC2e  1 4.100000e-01    2.040000e+00
  SN4h  SC1e  1 4.100000e-01    1.910000e+00
  SN4h  SX4e  1 4.100000e-01    3.070000e+00
  SN4h  SX3e  1 4.100000e-01    2.840000e+00
  SN4h  SX2e  1 4.100000e-01    2.350000e+00
  SN4h  SX1e  1 4.100000e-01    2.200000e+00
  SP6q  SN4h  1 4.100000e-01    2.840000e+00
  SP5q  SN4h  1 4.100000e-01    3.070000e+00
  SP4q  SN4h  1 4.100000e-01    3.070000e+00
  SP3q  SN4h  1 4.100000e-01    3.070000e+00
  SP2q  SN4h  1 4.100000e-01    3.070000e+00
  SP1q  SN4h  1 4.100000e-01    3.310000e+00
  SN6q  SN4h  1 4.100000e-01    3.550000e+00
  SN5q  SN4h  1 4.100000e-01    3.310000e+00
  SN4h  SN4q  1 4.100000e-01    3.310000e+00
  SN4h  SX1q  1 4.100000e-01    2.350000e+00
  SN4h  SX2q  1 4.100000e-01    2.600000e+00
  SN4h  SX3q  1 4.100000e-01    3.070000e+00
  SN4h  SX4q  1 4.100000e-01    3.310000e+00
  SN4h  SC1q  1 4.100000e-01    2.040000e+00
  SN4h  SC2q  1 4.100000e-01    2.200000e+00
  SN4h  SC3q  1 4.100000e-01    2.350000e+00
  SN4h  SC4q  1 4.100000e-01    2.600000e+00
  SN4h  SC5q  1 4.100000e-01    2.600000e+00
  SN4h  SC6q  1 4.100000e-01    2.840000e+00
  SN4h  SN1q  1 4.100000e-01    2.840000e+00
  SN4h  SN2q  1 4.100000e-01    3.070000e+00
  SN4h  SN3q  1 4.100000e-01    3.070000e+00
  SP6d  SN3h  1 4.100000e-01    2.200000e+00
  SP5d  SN3h  1 4.100000e-01    2.200000e+00
  SP4d  SN3h  1 4.100000e-01    2.350000e+00
  SP3d  SN3h  1 4.100000e-01    2.350000e+00
  SP2d  SN3h  1 4.100000e-01    2.350000e+00
  SP1d  SN3h  1 4.100000e-01    2.350000e+00
  SN6d  SN3h  1 4.100000e-01    2.600000e+00
  SN5d  SN3h  1 4.100000e-01    2.600000e+00
  SN4d  SN3h  1 4.100000e-01    2.600000e+00
  SN3h  SN3d  1 4.100000e-01    2.600000e+00
  SN3h  SN1d  1 4.100000e-01    2.350000e+00
  SN3h  SN2d  1 4.100000e-01    2.600000e+00
  SP6a  SN3h  1 4.100000e-01    2.200000e+00
  SP5a  SN3h  1 4.100000e-01    2.200000e+00
  SP4a  SN3h  1 4.100000e-01    2.350000e+00
  SP3a  SN3h  1 4.100000e-01    2.350000e+00
  SP2a  SN3h  1 4.100000e-01    2.350000e+00
  SP1a  SN3h  1 4.100000e-01    2.350000e+00
  SN6a  SN3h  1 4.100000e-01    2.600000e+00
  SN5a  SN3h  1 4.100000e-01    2.600000e+00
  SN4a  SN3h  1 4.100000e-01    2.600000e+00
  SN3h  SN3a  1 4.100000e-01    2.600000e+00
  SN3h  SN1a  1 4.100000e-01    2.350000e+00
  SN3h  SN2a  1 4.100000e-01    2.600000e+00
  SN3h  SC6v  1 4.100000e-01    2.600000e+00
  SN3h  SC5v  1 4.100000e-01    2.350000e+00
  SN3h  SC4v  1 4.100000e-01    2.350000e+00
  SN3h  SC3v  1 4.100000e-01    2.200000e+00
  SN3h  SC2v  1 4.100000e-01    2.200000e+00
  SN3h  SC1v  1 4.100000e-01    2.040000e+00
  SN3h  SX4v  1 4.100000e-01    2.840000e+00
  SN3h  SX3v  1 4.100000e-01    2.600000e+00
  SN3h  SX2v  1 4.100000e-01    2.350000e+00
  SN3h  SX1v  1 4.100000e-01    2.350000e+00
  SN3h  SC6e  1 4.100000e-01    2.600000e+00
  SN3h  SC5e  1 4.100000e-01    2.350000e+00
  SN3h  SC4e  1 4.100000e-01    2.350000e+00
  SN3h  SC3e  1 4.100000e-01    2.200000e+00
  SN3h  SC2e  1 4.100000e-01    2.200000e+00
  SN3h  SC1e  1 4.100000e-01    2.040000e+00
  SN3h  SX4e  1 4.100000e-01    2.840000e+00
  SN3h  SX3e  1 4.100000e-01    2.600000e+00
  SN3h  SX2e  1 4.100000e-01    2.350000e+00
  SN3h  SX1e  1 4.100000e-01    2.350000e+00
  SP6q  SN3h  1 4.100000e-01    2.600000e+00
  SP5q  SN3h  1 4.100000e-01    2.600000e+00
  SP4q  SN3h  1 4.100000e-01    2.840000e+00
  SP3q  SN3h  1 4.100000e-01    2.840000e+00
  SP2q  SN3h  1 4.100000e-01    2.840000e+00
  SP1q  SN3h  1 4.100000e-01    2.840000e+00
  SN6q  SN3h  1 4.100000e-01    3.070000e+00
  SN5q  SN3h  1 4.100000e-01    3.070000e+00
  SN4q  SN3h  1 4.100000e-01    3.070000e+00
  SN3h  SN3q  1 4.100000e-01    3.070000e+00
  SN3h  SX1q  1 4.100000e-01    2.600000e+00
  SN3h  SX2q  1 4.100000e-01    2.600000e+00
  SN3h  SX3q  1 4.100000e-01    2.840000e+00
  SN3h  SX4q  1 4.100000e-01    3.070000e+00
  SN3h  SC1q  1 4.100000e-01    2.200000e+00
  SN3h  SC2q  1 4.100000e-01    2.350000e+00
  SN3h  SC3q  1 4.100000e-01    2.350000e+00
  SN3h  SC4q  1 4.100000e-01    2.600000e+00
  SN3h  SC5q  1 4.100000e-01    2.600000e+00
  SN3h  SC6q  1 4.100000e-01    2.840000e+00
  SN3h  SN1q  1 4.100000e-01    2.840000e+00
  SN3h  SN2q  1 4.100000e-01    3.070000e+00
  SP6d  SN2h  1 4.100000e-01    2.040000e+00
  SP5d  SN2h  1 4.100000e-01    2.040000e+00
  SP4d  SN2h  1 4.100000e-01    2.200000e+00
  SP3d  SN2h  1 4.100000e-01    2.350000e+00
  SP2d  SN2h  1 4.100000e-01    2.350000e+00
  SP1d  SN2h  1 4.100000e-01    2.350000e+00
  SN6d  SN2h  1 4.100000e-01    2.350000e+00
  SN5d  SN2h  1 4.100000e-01    2.600000e+00
  SN4d  SN2h  1 4.100000e-01    2.600000e+00
  SN3d  SN2h  1 4.100000e-01    2.600000e+00
  SN2h  SN2d  1 4.100000e-01    2.600000e+00
  SN2h  SN1d  1 4.100000e-01    2.350000e+00
  SP6a  SN2h  1 4.100000e-01    2.040000e+00
  SP5a  SN2h  1 4.100000e-01    2.040000e+00
  SP4a  SN2h  1 4.100000e-01    2.200000e+00
  SP3a  SN2h  1 4.100000e-01    2.350000e+00
  SP2a  SN2h  1 4.100000e-01    2.350000e+00
  SP1a  SN2h  1 4.100000e-01    2.350000e+00
  SN6a  SN2h  1 4.100000e-01    2.350000e+00
  SN5a  SN2h  1 4.100000e-01    2.600000e+00
  SN4a  SN2h  1 4.100000e-01    2.600000e+00
  SN3a  SN2h  1 4.100000e-01    2.600000e+00
  SN2h  SN2a  1 4.100000e-01    2.600000e+00
  SN2h  SN1a  1 4.100000e-01    2.350000e+00
  SN2h  SC6v  1 4.100000e-01    2.600000e+00
  SN2h  SC5v  1 4.100000e-01    2.350000e+00
  SN2h  SC4v  1 4.100000e-01    2.350000e+00
  SN2h  SC3v  1 4.100000e-01    2.350000e+00
  SN2h  SC2v  1 4.100000e-01    2.200000e+00
  SN2h  SC1v  1 4.100000e-01    2.040000e+00
  SN2h  SX4v  1 4.100000e-01    2.840000e+00
  SN2h  SX3v  1 4.100000e-01    2.600000e+00
  SN2h  SX2v  1 4.100000e-01    2.350000e+00
  SN2h  SX1v  1 4.100000e-01    2.350000e+00
  SN2h  SC6e  1 4.100000e-01    2.600000e+00
  SN2h  SC5e  1 4.100000e-01    2.350000e+00
  SN2h  SC4e  1 4.100000e-01    2.350000e+00
  SN2h  SC3e  1 4.100000e-01    2.350000e+00
  SN2h  SC2e  1 4.100000e-01    2.200000e+00
  SN2h  SC1e  1 4.100000e-01    2.040000e+00
  SN2h  SX4e  1 4.100000e-01    2.840000e+00
  SN2h  SX3e  1 4.100000e-01    2.600000e+00
  SN2h  SX2e  1 4.100000e-01    2.350000e+00
  SN2h  SX1e  1 4.100000e-01    2.350000e+00
  SP6q  SN2h  1 4.100000e-01    2.350000e+00
  SP5q  SN2h  1 4.100000e-01    2.350000e+00
  SP4q  SN2h  1 4.100000e-01    2.600000e+00
  SP3q  SN2h  1 4.100000e-01    2.840000e+00
  SP2q  SN2h  1 4.100000e-01    2.840000e+00
  SP1q  SN2h  1 4.100000e-01    2.840000e+00
  SN6q  SN2h  1 4.100000e-01    2.840000e+00
  SN5q  SN2h  1 4.100000e-01    3.070000e+00
  SN4q  SN2h  1 4.100000e-01    3.070000e+00
  SN3q  SN2h  1 4.100000e-01    3.070000e+00
  SN2h  SN2q  1 4.100000e-01    3.070000e+00
  SN2h  SX1q  1 4.100000e-01    2.600000e+00
  SN2h  SX2q  1 4.100000e-01    2.600000e+00
  SN2h  SX3q  1 4.100000e-01    2.840000e+00
  SN2h  SX4q  1 4.100000e-01    3.070000e+00
  SN2h  SC1q  1 4.100000e-01    2.200000e+00
  SN2h  SC2q  1 4.100000e-01    2.350000e+00
  SN2h  SC3q  1 4.100000e-01    2.600000e+00
  SN2h  SC4q  1 4.100000e-01    2.600000e+00
  SN2h  SC5q  1 4.100000e-01    2.600000e+00
  SN2h  SC6q  1 4.100000e-01    2.840000e+00
  SN2h  SN1q  1 4.100000e-01    2.840000e+00
  SP6d  SN1h  1 4.100000e-01    1.910000e+00
  SP5d  SN1h  1 4.100000e-01    1.910000e+00
  SP4d  SN1h  1 4.100000e-01    2.040000e+00
  SP3d  SN1h  1 4.100000e-01    2.200000e+00
  SP2d  SN1h  1 4.100000e-01    2.350000e+00
  SP1d  SN1h  1 4.100000e-01    2.350000e+00
  SN6d  SN1h  1 4.100000e-01    2.350000e+00
  SN5d  SN1h  1 4.100000e-01    2.350000e+00
  SN4d  SN1h  1 4.100000e-01    2.350000e+00
  SN3d  SN1h  1 4.100000e-01    2.350000e+00
  SN2d  SN1h  1 4.100000e-01    2.350000e+00
  SN1h  SN1d  1 4.100000e-01    2.600000e+00
  SP6a  SN1h  1 4.100000e-01    1.910000e+00
  SP5a  SN1h  1 4.100000e-01    1.910000e+00
  SP4a  SN1h  1 4.100000e-01    2.040000e+00
  SP3a  SN1h  1 4.100000e-01    2.200000e+00
  SP2a  SN1h  1 4.100000e-01    2.350000e+00
  SP1a  SN1h  1 4.100000e-01    2.350000e+00
  SN6a  SN1h  1 4.100000e-01    2.350000e+00
  SN5a  SN1h  1 4.100000e-01    2.350000e+00
  SN4a  SN1h  1 4.100000e-01    2.350000e+00
  SN3a  SN1h  1 4.100000e-01    2.350000e+00
  SN2a  SN1h  1 4.100000e-01    2.350000e+00
  SN1h  SN1a  1 4.100000e-01    2.600000e+00
  SN1h  SC6v  1 4.100000e-01    2.840000e+00
  SN1h  SC5v  1 4.100000e-01    2.600000e+00
  SN1h  SC4v  1 4.100000e-01    2.600000e+00
  SN1h  SC3v  1 4.100000e-01    2.350000e+00
  SN1h  SC2v  1 4.100000e-01    2.200000e+00
  SN1h  SC1v  1 4.100000e-01    2.040000e+00
  SN1h  SX4v  1 4.100000e-01    2.600000e+00
  SN1h  SX3v  1 4.100000e-01    2.600000e+00
  SN1h  SX2v  1 4.100000e-01    2.350000e+00
  SN1h  SX1v  1 4.100000e-01    2.350000e+00
  SN1h  SC6e  1 4.100000e-01    2.840000e+00
  SN1h  SC5e  1 4.100000e-01    2.600000e+00
  SN1h  SC4e  1 4.100000e-01    2.600000e+00
  SN1h  SC3e  1 4.100000e-01    2.350000e+00
  SN1h  SC2e  1 4.100000e-01    2.200000e+00
  SN1h  SC1e  1 4.100000e-01    2.040000e+00
  SN1h  SX4e  1 4.100000e-01    2.600000e+00
  SN1h  SX3e  1 4.100000e-01    2.600000e+00
  SN1h  SX2e  1 4.100000e-01    2.350000e+00
  SN1h  SX1e  1 4.100000e-01    2.350000e+00
  SP6q  SN1h  1 4.100000e-01    2.200000e+00
  SP5q  SN1h  1 4.100000e-01    2.200000e+00
  SP4q  SN1h  1 4.100000e-01    2.350000e+00
  SP3q  SN1h  1 4.100000e-01    2.600000e+00
  SP2q  SN1h  1 4.100000e-01    2.840000e+00
  SP1q  SN1h  1 4.100000e-01    2.840000e+00
  SN6q  SN1h  1 4.100000e-01    2.840000e+00
  SN5q  SN1h  1 4.100000e-01    2.840000e+00
  SN4q  SN1h  1 4.100000e-01    2.840000e+00
  SN3q  SN1h  1 4.100000e-01    2.840000e+00
  SN2q  SN1h  1 4.100000e-01    2.840000e+00
  SN1h  SN1q  1 4.100000e-01    3.070000e+00
  SN1h  SX1q  1 4.100000e-01    2.600000e+00
  SN1h  SX2q  1 4.100000e-01    2.600000e+00
  SN1h  SX3q  1 4.100000e-01    2.840000e+00
  SN1h  SX4q  1 4.100000e-01    2.840000e+00
  SN1h  SC1q  1 4.100000e-01    2.200000e+00
  SN1h  SC2q  1 4.100000e-01    2.350000e+00
  SN1h  SC3q  1 4.100000e-01    2.600000e+00
  SN1h  SC4q  1 4.100000e-01    2.840000e+00
  SN1h  SC5q  1 4.100000e-01    2.840000e+00
  SN1h  SC6q  1 4.100000e-01    3.070000e+00
  SP6d  SC6h  1 4.100000e-01    1.910000e+00
  SP5d  SC6h  1 4.100000e-01    1.910000e+00
  SP4d  SC6h  1 4.100000e-01    2.040000e+00
  SP3d  SC6h  1 4.100000e-01    2.200000e+00
  SP2d  SC6h  1 4.100000e-01    2.200000e+00
  SP1d  SC6h  1 4.100000e-01    2.200000e+00
  SN6d  SC6h  1 4.100000e-01    2.350000e+00
  SN5d  SC6h  1 4.100000e-01    2.350000e+00
  SN4d  SC6h  1 4.100000e-01    2.350000e+00
  SN3d  SC6h  1 4.100000e-01    2.350000e+00
  SN2d  SC6h  1 4.100000e-01    2.350000e+00
  SN1d  SC6h  1 4.100000e-01    2.600000e+00
  SP6a  SC6h  1 4.100000e-01    1.910000e+00
  SP5a  SC6h  1 4.100000e-01    1.910000e+00
  SP4a  SC6h  1 4.100000e-01    2.040000e+00
  SP3a  SC6h  1 4.100000e-01    2.200000e+00
  SP2a  SC6h  1 4.100000e-01    2.200000e+00
  SP1a  SC6h  1 4.100000e-01    2.200000e+00
  SN6a  SC6h  1 4.100000e-01    2.350000e+00
  SN5a  SC6h  1 4.100000e-01    2.350000e+00
  SN4a  SC6h  1 4.100000e-01    2.350000e+00
  SN3a  SC6h  1 4.100000e-01    2.350000e+00
  SN2a  SC6h  1 4.100000e-01    2.350000e+00
  SN1a  SC6h  1 4.100000e-01    2.600000e+00
  SC6h  SC6v  1 4.100000e-01    2.840000e+00
  SC6h  SX1v  1 4.100000e-01    2.600000e+00
  SC6h  SX2v  1 4.100000e-01    2.600000e+00
  SC6h  SX3v  1 4.100000e-01    2.600000e+00
  SC6h  SX4v  1 4.100000e-01    2.600000e+00
  SC6h  SC1v  1 4.100000e-01    2.040000e+00
  SC6h  SC2v  1 4.100000e-01    2.200000e+00
  SC6h  SC3v  1 4.100000e-01    2.350000e+00
  SC6h  SC4v  1 4.100000e-01    2.600000e+00
  SC6h  SC5v  1 4.100000e-01    2.600000e+00
  SC6h  SC6e  1 4.100000e-01    2.840000e+00
  SC6h  SX1e  1 4.100000e-01    2.600000e+00
  SC6h  SX2e  1 4.100000e-01    2.600000e+00
  SC6h  SX3e  1 4.100000e-01    2.600000e+00
  SC6h  SX4e  1 4.100000e-01    2.600000e+00
  SC6h  SC1e  1 4.100000e-01    2.040000e+00
  SC6h  SC2e  1 4.100000e-01    2.200000e+00
  SC6h  SC3e  1 4.100000e-01    2.350000e+00
  SC6h  SC4e  1 4.100000e-01    2.600000e+00
  SC6h  SC5e  1 4.100000e-01    2.600000e+00
  SP6q  SC6h  1 4.100000e-01    2.200000e+00
  SP5q  SC6h  1 4.100000e-01    2.200000e+00
  SP4q  SC6h  1 4.100000e-01    2.350000e+00
  SP3q  SC6h  1 4.100000e-01    2.600000e+00
  SP2q  SC6h  1 4.100000e-01    2.600000e+00
  SP1q  SC6h  1 4.100000e-01    2.600000e+00
  SN6q  SC6h  1 4.100000e-01    2.840000e+00
  SN5q  SC6h  1 4.100000e-01    2.840000e+00
  SN4q  SC6h  1 4.100000e-01    2.840000e+00
  SN3q  SC6h  1 4.100000e-01    2.840000e+00
  SN2q  SC6h  1 4.100000e-01    2.840000e+00
  SN1q  SC6h  1 4.100000e-01    3.070000e+00
  SC6h  SC6q  1 4.100000e-01    3.070000e+00
  SC6h  SX1q  1 4.100000e-01    2.840000e+00
  SC6h  SX2q  1 4.100000e-01    2.840000e+00
  SC6h  SX3q  1 4.100000e-01    2.840000e+00
  SC6h  SX4q  1 4.100000e-01    2.840000e+00
  SC6h  SC1q  1 4.100000e-01    2.200000e+00
  SC6h  SC2q  1 4.100000e-01    2.350000e+00
  SC6h  SC3q  1 4.100000e-01    2.600000e+00
  SC6h  SC4q  1 4.100000e-01    2.840000e+00
  SC6h  SC5q  1 4.100000e-01    2.840000e+00
  SP6d  SC5h  1 4.100000e-01    1.750000e+00
  SP5d  SC5h  1 4.100000e-01    1.910000e+00
  SP4d  SC5h  1 4.100000e-01    1.910000e+00
  SP3d  SC5h  1 4.100000e-01    2.040000e+00
  SP2d  SC5h  1 4.100000e-01    2.040000e+00
  SP1d  SC5h  1 4.100000e-01    2.040000e+00
  SN6d  SC5h  1 4.100000e-01    2.200000e+00
  SN5d  SC5h  1 4.100000e-01    2.200000e+00
  SN4d  SC5h  1 4.100000e-01    2.200000e+00
  SN3d  SC5h  1 4.100000e-01    2.200000e+00
  SN2d  SC5h  1 4.100000e-01    2.200000e+00
  SN1d  SC5h  1 4.100000e-01    2.350000e+00
  SP6a  SC5h  1 4.100000e-01    1.750000e+00
  SP5a  SC5h  1 4.100000e-01    1.910000e+00
  SP4a  SC5h  1 4.100000e-01    1.910000e+00
  SP3a  SC5h  1 4.100000e-01    2.040000e+00
  SP2a  SC5h  1 4.100000e-01    2.040000e+00
  SP1a  SC5h  1 4.100000e-01    2.040000e+00
  SN6a  SC5h  1 4.100000e-01    2.200000e+00
  SN5a  SC5h  1 4.100000e-01    2.200000e+00
  SN4a  SC5h  1 4.100000e-01    2.200000e+00
  SN3a  SC5h  1 4.100000e-01    2.200000e+00
  SN2a  SC5h  1 4.100000e-01    2.200000e+00
  SN1a  SC5h  1 4.100000e-01    2.350000e+00
  SC6v  SC5h  1 4.100000e-01    2.600000e+00
  SC5h  SC5v  1 4.100000e-01    2.600000e+00
  SC5h  SX1v  1 4.100000e-01    2.600000e+00
  SC5h  SX2v  1 4.100000e-01    2.350000e+00
  SC5h  SX3v  1 4.100000e-01    2.350000e+00
  SC5h  SX4v  1 4.100000e-01    2.350000e+00
  SC5h  SC1v  1 4.100000e-01    2.200000e+00
  SC5h  SC2v  1 4.100000e-01    2.200000e+00
  SC5h  SC3v  1 4.100000e-01    2.350000e+00
  SC5h  SC4v  1 4.100000e-01    2.600000e+00
  SC6e  SC5h  1 4.100000e-01    2.600000e+00
  SC5h  SC5e  1 4.100000e-01    2.600000e+00
  SC5h  SX1e  1 4.100000e-01    2.600000e+00
  SC5h  SX2e  1 4.100000e-01    2.350000e+00
  SC5h  SX3e  1 4.100000e-01    2.350000e+00
  SC5h  SX4e  1 4.100000e-01    2.350000e+00
  SC5h  SC1e  1 4.100000e-01    2.200000e+00
  SC5h  SC2e  1 4.100000e-01    2.200000e+00
  SC5h  SC3e  1 4.100000e-01    2.350000e+00
  SC5h  SC4e  1 4.100000e-01    2.600000e+00
  SP6q  SC5h  1 4.100000e-01    2.040000e+00
  SP5q  SC5h  1 4.100000e-01    2.200000e+00
  SP4q  SC5h  1 4.100000e-01    2.200000e+00
  SP3q  SC5h  1 4.100000e-01    2.350000e+00
  SP2q  SC5h  1 4.100000e-01    2.350000e+00
  SP1q  SC5h  1 4.100000e-01    2.350000e+00
  SN6q  SC5h  1 4.100000e-01    2.600000e+00
  SN5q  SC5h  1 4.100000e-01    2.600000e+00
  SN4q  SC5h  1 4.100000e-01    2.600000e+00
  SN3q  SC5h  1 4.100000e-01    2.600000e+00
  SN2q  SC5h  1 4.100000e-01    2.600000e+00
  SN1q  SC5h  1 4.100000e-01    2.840000e+00
  SC6q  SC5h  1 4.100000e-01    2.840000e+00
  SC5h  SC5q  1 4.100000e-01    2.840000e+00
  SC5h  SX1q  1 4.100000e-01    2.840000e+00
  SC5h  SX2q  1 4.100000e-01    2.600000e+00
  SC5h  SX3q  1 4.100000e-01    2.600000e+00
  SC5h  SX4q  1 4.100000e-01    2.600000e+00
  SC5h  SC1q  1 4.100000e-01    2.350000e+00
  SC5h  SC2q  1 4.100000e-01    2.350000e+00
  SC5h  SC3q  1 4.100000e-01    2.600000e+00
  SC5h  SC4q  1 4.100000e-01    2.840000e+00
  SP6d  SC4h  1 4.140000e-01    1.560000e+00
  SP5d  SC4h  1 4.100000e-01    1.750000e+00
  SP4d  SC4h  1 4.100000e-01    1.750000e+00
  SP3d  SC4h  1 4.100000e-01    1.910000e+00
  SP2d  SC4h  1 4.100000e-01    1.910000e+00
  SP1d  SC4h  1 4.100000e-01    1.910000e+00
  SN6d  SC4h  1 4.100000e-01    2.040000e+00
  SN5d  SC4h  1 4.100000e-01    2.040000e+00
  SN4d  SC4h  1 4.100000e-01    2.200000e+00
  SN3d  SC4h  1 4.100000e-01    2.200000e+00
  SN2d  SC4h  1 4.100000e-01    2.200000e+00
  SN1d  SC4h  1 4.100000e-01    2.350000e+00
  SP6a  SC4h  1 4.140000e-01    1.560000e+00
  SP5a  SC4h  1 4.100000e-01    1.750000e+00
  SP4a  SC4h  1 4.100000e-01    1.750000e+00
  SP3a  SC4h  1 4.100000e-01    1.910000e+00
  SP2a  SC4h  1 4.100000e-01    1.910000e+00
  SP1a  SC4h  1 4.100000e-01    1.910000e+00
  SN6a  SC4h  1 4.100000e-01    2.040000e+00
  SN5a  SC4h  1 4.100000e-01    2.040000e+00
  SN4a  SC4h  1 4.100000e-01    2.200000e+00
  SN3a  SC4h  1 4.100000e-01    2.200000e+00
  SN2a  SC4h  1 4.100000e-01    2.200000e+00
  SN1a  SC4h  1 4.100000e-01    2.350000e+00
  SC6v  SC4h  1 4.100000e-01    2.600000e+00
  SC5v  SC4h  1 4.100000e-01    2.600000e+00
  SC4h  SC4v  1 4.100000e-01    2.600000e+00
  SC4h  SX1v  1 4.100000e-01    2.600000e+00
  SC4h  SX2v  1 4.100000e-01    2.350000e+00
  SC4h  SX3v  1 4.100000e-01    2.350000e+00
  SC4h  SX4v  1 4.100000e-01    2.350000e+00
  SC4h  SC1v  1 4.100000e-01    2.200000e+00
  SC4h  SC2v  1 4.100000e-01    2.350000e+00
  SC4h  SC3v  1 4.100000e-01    2.600000e+00
  SC6e  SC4h  1 4.100000e-01    2.600000e+00
  SC5e  SC4h  1 4.100000e-01    2.600000e+00
  SC4h  SC4e  1 4.100000e-01    2.600000e+00
  SC4h  SX1e  1 4.100000e-01    2.600000e+00
  SC4h  SX2e  1 4.100000e-01    2.350000e+00
  SC4h  SX3e  1 4.100000e-01    2.350000e+00
  SC4h  SX4e  1 4.100000e-01    2.350000e+00
  SC4h  SC1e  1 4.100000e-01    2.200000e+00
  SC4h  SC2e  1 4.100000e-01    2.350000e+00
  SC4h  SC3e  1 4.100000e-01    2.600000e+00
  SP6q  SC4h  1 4.100000e-01    1.910000e+00
  SP5q  SC4h  1 4.100000e-01    2.040000e+00
  SP4q  SC4h  1 4.100000e-01    2.040000e+00
  SP3q  SC4h  1 4.100000e-01    2.200000e+00
  SP2q  SC4h  1 4.100000e-01    2.200000e+00
  SP1q  SC4h  1 4.100000e-01    2.200000e+00
  SN6q  SC4h  1 4.100000e-01    2.350000e+00
  SN5q  SC4h  1 4.100000e-01    2.350000e+00
  SN4q  SC4h  1 4.100000e-01    2.600000e+00
  SN3q  SC4h  1 4.100000e-01    2.600000e+00
  SN2q  SC4h  1 4.100000e-01    2.600000e+00
  SN1q  SC4h  1 4.100000e-01    2.840000e+00
  SC6q  SC4h  1 4.100000e-01    2.840000e+00
  SC5q  SC4h  1 4.100000e-01    2.840000e+00
  SC4h  SC4q  1 4.100000e-01    2.840000e+00
  SC4h  SX1q  1 4.100000e-01    2.840000e+00
  SC4h  SX2q  1 4.100000e-01    2.600000e+00
  SC4h  SX3q  1 4.100000e-01    2.600000e+00
  SC4h  SX4q  1 4.100000e-01    2.600000e+00
  SC4h  SC1q  1 4.100000e-01    2.350000e+00
  SC4h  SC2q  1 4.100000e-01    2.600000e+00
  SC4h  SC3q  1 4.100000e-01    2.840000e+00
  SP6d  SC3h  1 4.180000e-01    1.400000e+00
  SP5d  SC3h  1 4.140000e-01    1.560000e+00
  SP4d  SC3h  1 4.140000e-01    1.560000e+00
  SP3d  SC3h  1 4.140000e-01    1.560000e+00
  SP2d  SC3h  1 4.100000e-01    1.750000e+00
  SP1d  SC3h  1 4.100000e-01    1.750000e+00
  SN6d  SC3h  1 4.100000e-01    1.910000e+00
  SN5d  SC3h  1 4.100000e-01    2.040000e+00
  SN4d  SC3h  1 4.100000e-01    2.040000e+00
  SN3d  SC3h  1 4.100000e-01    2.040000e+00
  SN2d  SC3h  1 4.100000e-01    2.200000e+00
  SN1d  SC3h  1 4.100000e-01    2.200000e+00
  SP6a  SC3h  1 4.180000e-01    1.400000e+00
  SP5a  SC3h  1 4.140000e-01    1.560000e+00
  SP4a  SC3h  1 4.140000e-01    1.560000e+00
  SP3a  SC3h  1 4.140000e-01    1.560000e+00
  SP2a  SC3h  1 4.100000e-01    1.750000e+00
  SP1a  SC3h  1 4.100000e-01    1.750000e+00
  SN6a  SC3h  1 4.100000e-01    1.910000e+00
  SN5a  SC3h  1 4.100000e-01    2.040000e+00
  SN4a  SC3h  1 4.100000e-01    2.040000e+00
  SN3a  SC3h  1 4.100000e-01    2.040000e+00
  SN2a  SC3h  1 4.100000e-01    2.200000e+00
  SN1a  SC3h  1 4.100000e-01    2.200000e+00
  SC6v  SC3h  1 4.100000e-01    2.350000e+00
  SC5v  SC3h  1 4.100000e-01    2.350000e+00
  SC4v  SC3h  1 4.100000e-01    2.600000e+00
  SC3h  SC3v  1 4.100000e-01    2.600000e+00
  SC3h  SX1v  1 4.100000e-01    2.600000e+00
  SC3h  SX2v  1 4.100000e-01    2.350000e+00
  SC3h  SX3v  1 4.100000e-01    2.350000e+00
  SC3h  SX4v  1 4.100000e-01    2.350000e+00
  SC3h  SC1v  1 4.100000e-01    2.600000e+00
  SC3h  SC2v  1 4.100000e-01    2.600000e+00
  SC6e  SC3h  1 4.100000e-01    2.350000e+00
  SC5e  SC3h  1 4.100000e-01    2.350000e+00
  SC4e  SC3h  1 4.100000e-01    2.600000e+00
  SC3h  SC3e  1 4.100000e-01    2.600000e+00
  SC3h  SX1e  1 4.100000e-01    2.600000e+00
  SC3h  SX2e  1 4.100000e-01    2.350000e+00
  SC3h  SX3e  1 4.100000e-01    2.350000e+00
  SC3h  SX4e  1 4.100000e-01    2.350000e+00
  SC3h  SC1e  1 4.100000e-01    2.600000e+00
  SC3h  SC2e  1 4.100000e-01    2.600000e+00
  SP6q  SC3h  1 4.100000e-01    1.750000e+00
  SP5q  SC3h  1 4.100000e-01    1.910000e+00
  SP4q  SC3h  1 4.100000e-01    1.910000e+00
  SP3q  SC3h  1 4.100000e-01    1.910000e+00
  SP2q  SC3h  1 4.100000e-01    2.040000e+00
  SP1q  SC3h  1 4.100000e-01    2.040000e+00
  SN6q  SC3h  1 4.100000e-01    2.200000e+00
  SN5q  SC3h  1 4.100000e-01    2.350000e+00
  SN4q  SC3h  1 4.100000e-01    2.350000e+00
  SN3q  SC3h  1 4.100000e-01    2.350000e+00
  SN2q  SC3h  1 4.100000e-01    2.600000e+00
  SN1q  SC3h  1 4.100000e-01    2.600000e+00
  SC6q  SC3h  1 4.100000e-01    2.600000e+00
  SC5q  SC3h  1 4.100000e-01    2.600000e+00
  SC4q  SC3h  1 4.100000e-01    2.840000e+00
  SC3h  SC3q  1 4.100000e-01    2.840000e+00
  SC3h  SX1q  1 4.100000e-01    2.840000e+00
  SC3h  SX2q  1 4.100000e-01    2.600000e+00
  SC3h  SX3q  1 4.100000e-01    2.600000e+00
  SC3h  SX4q  1 4.100000e-01    2.600000e+00
  SC3h  SC1q  1 4.100000e-01    2.840000e+00
  SC3h  SC2q  1 4.100000e-01    2.840000e+00
  SP6d  SC2h  1 4.180000e-01    1.400000e+00
  SP5d  SC2h  1 4.140000e-01    1.560000e+00
  SP4d  SC2h  1 4.140000e-01    1.560000e+00
  SP3d  SC2h  1 4.140000e-01    1.560000e+00
  SP2d  SC2h  1 4.100000e-01    1.750000e+00
  SP1d  SC2h  1 4.100000e-01    1.750000e+00
  SN6d  SC2h  1 4.100000e-01    1.910000e+00
  SN5d  SC2h  1 4.100000e-01    1.910000e+00
  SN4d  SC2h  1 4.100000e-01    1.910000e+00
  SN3d  SC2h  1 4.100000e-01    2.040000e+00
  SN2d  SC2h  1 4.100000e-01    2.040000e+00
  SN1d  SC2h  1 4.100000e-01    2.040000e+00
  SP6a  SC2h  1 4.180000e-01    1.400000e+00
  SP5a  SC2h  1 4.140000e-01    1.560000e+00
  SP4a  SC2h  1 4.140000e-01    1.560000e+00
  SP3a  SC2h  1 4.140000e-01    1.560000e+00
  SP2a  SC2h  1 4.100000e-01    1.750000e+00
  SP1a  SC2h  1 4.100000e-01    1.750000e+00
  SN6a  SC2h  1 4.100000e-01    1.910000e+00
  SN5a  SC2h  1 4.100000e-01    1.910000e+00
  SN4a  SC2h  1 4.100000e-01    1.910000e+00
  SN3a  SC2h  1 4.100000e-01    2.040000e+00
  SN2a  SC2h  1 4.100000e-01    2.040000e+00
  SN1a  SC2h  1 4.100000e-01    2.040000e+00
  SC6v  SC2h  1 4.100000e-01    2.200000e+00
  SC5v  SC2h  1 4.100000e-01    2.200000e+00
  SC4v  SC2h  1 4.100000e-01    2.350000e+00
  SC3v  SC2h  1 4.100000e-01    2.600000e+00
  SC2h  SC2v  1 4.100000e-01    2.600000e+00
  SC2h  SX1v  1 4.100000e-01    2.350000e+00
  SC2h  SX2v  1 4.100000e-01    2.350000e+00
  SC2h  SX3v  1 4.100000e-01    2.350000e+00
  SC2h  SX4v  1 4.100000e-01    2.040000e+00
  SC2h  SC1v  1 4.100000e-01    2.840000e+00
  SC6e  SC2h  1 4.100000e-01    2.200000e+00
  SC5e  SC2h  1 4.100000e-01    2.200000e+00
  SC4e  SC2h  1 4.100000e-01    2.350000e+00
  SC3e  SC2h  1 4.100000e-01    2.600000e+00
  SC2h  SC2e  1 4.100000e-01    2.600000e+00
  SC2h  SX1e  1 4.100000e-01    2.350000e+00
  SC2h  SX2e  1 4.100000e-01    2.350000e+00
  SC2h  SX3e  1 4.100000e-01    2.350000e+00
  SC2h  SX4e  1 4.100000e-01    2.040000e+00
  SC2h  SC1e  1 4.100000e-01    2.840000e+00
  SP6q  SC2h  1 4.100000e-01    1.750000e+00
  SP5q  SC2h  1 4.100000e-01    1.910000e+00
  SP4q  SC2h  1 4.100000e-01    1.910000e+00
  SP3q  SC2h  1 4.100000e-01    1.910000e+00
  SP2q  SC2h  1 4.100000e-01    2.040000e+00
  SP1q  SC2h  1 4.100000e-01    2.040000e+00
  SN6q  SC2h  1 4.100000e-01    2.200000e+00
  SN5q  SC2h  1 4.100000e-01    2.200000e+00
  SN4q  SC2h  1 4.100000e-01    2.200000e+00
  SN3q  SC2h  1 4.100000e-01    2.350000e+00
  SN2q  SC2h  1 4.100000e-01    2.350000e+00
  SN1q  SC2h  1 4.100000e-01    2.350000e+00
  SC6q  SC2h  1 4.100000e-01    2.350000e+00
  SC5q  SC2h  1 4.100000e-01    2.350000e+00
  SC4q  SC2h  1 4.100000e-01    2.600000e+00
  SC3q  SC2h  1 4.100000e-01    2.840000e+00
  SC2h  SC2q  1 4.100000e-01    2.840000e+00
  SC2h  SX1q  1 4.100000e-01    2.600000e+00
  SC2h  SX2q  1 4.100000e-01    2.600000e+00
  SC2h  SX3q  1 4.100000e-01    2.600000e+00
  SC2h  SX4q  1 4.100000e-01    2.200000e+00
  SC2h  SC1q  1 4.100000e-01    3.070000e+00
  SP6d  SC1h  1 4.530000e-01    1.150000e+00
  SP5d  SC1h  1 4.180000e-01    1.400000e+00
  SP4d  SC1h  1 4.180000e-01    1.400000e+00
  SP3d  SC1h  1 4.180000e-01    1.400000e+00
  SP2d  SC1h  1 4.140000e-01    1.560000e+00
  SP1d  SC1h  1 4.140000e-01    1.560000e+00
  SN6d  SC1h  1 4.100000e-01    1.750000e+00
  SN5d  SC1h  1 4.100000e-01    1.750000e+00
  SN4d  SC1h  1 4.100000e-01    1.750000e+00
  SN3d  SC1h  1 4.100000e-01    1.910000e+00
  SN2d  SC1h  1 4.100000e-01    1.910000e+00
  SN1d  SC1h  1 4.100000e-01    1.910000e+00
  SP6a  SC1h  1 4.530000e-01    1.150000e+00
  SP5a  SC1h  1 4.180000e-01    1.400000e+00
  SP4a  SC1h  1 4.180000e-01    1.400000e+00
  SP3a  SC1h  1 4.180000e-01    1.400000e+00
  SP2a  SC1h  1 4.140000e-01    1.560000e+00
  SP1a  SC1h  1 4.140000e-01    1.560000e+00
  SN6a  SC1h  1 4.100000e-01    1.750000e+00
  SN5a  SC1h  1 4.100000e-01    1.750000e+00
  SN4a  SC1h  1 4.100000e-01    1.750000e+00
  SN3a  SC1h  1 4.100000e-01    1.910000e+00
  SN2a  SC1h  1 4.100000e-01    1.910000e+00
  SN1a  SC1h  1 4.100000e-01    1.910000e+00
  SC6v  SC1h  1 4.100000e-01    2.040000e+00
  SC5v  SC1h  1 4.100000e-01    2.200000e+00
  SC4v  SC1h  1 4.100000e-01    2.200000e+00
  SC3v  SC1h  1 4.100000e-01    2.600000e+00
  SC2v  SC1h  1 4.100000e-01    2.840000e+00
  SC1h  SC1v  1 4.100000e-01    2.600000e+00
  SC1h  SX1v  1 4.100000e-01    2.350000e+00
  SC1h  SX2v  1 4.100000e-01    2.350000e+00
  SC1h  SX3v  1 4.100000e-01    2.350000e+00
  SC1h  SX4v  1 4.100000e-01    2.040000e+00
  SC6e  SC1h  1 4.100000e-01    2.040000e+00
  SC5e  SC1h  1 4.100000e-01    2.200000e+00
  SC4e  SC1h  1 4.100000e-01    2.200000e+00
  SC3e  SC1h  1 4.100000e-01    2.600000e+00
  SC2e  SC1h  1 4.100000e-01    2.840000e+00
  SC1h  SC1e  1 4.100000e-01    2.600000e+00
  SC1h  SX1e  1 4.100000e-01    2.350000e+00
  SC1h  SX2e  1 4.100000e-01    2.350000e+00
  SC1h  SX3e  1 4.100000e-01    2.350000e+00
  SC1h  SX4e  1 4.100000e-01    2.040000e+00
  SP6q  SC1h  1 4.180000e-01    1.400000e+00
  SP5q  SC1h  1 4.100000e-01    1.750000e+00
  SP4q  SC1h  1 4.100000e-01    1.750000e+00
  SP3q  SC1h  1 4.100000e-01    1.750000e+00
  SP2q  SC1h  1 4.100000e-01    1.910000e+00
  SP1q  SC1h  1 4.100000e-01    1.910000e+00
  SN6q  SC1h  1 4.100000e-01    2.040000e+00
  SN5q  SC1h  1 4.100000e-01    2.040000e+00
  SN4q  SC1h  1 4.100000e-01    2.040000e+00
  SN3q  SC1h  1 4.100000e-01    2.200000e+00
  SN2q  SC1h  1 4.100000e-01    2.200000e+00
  SN1q  SC1h  1 4.100000e-01    2.200000e+00
  SC6q  SC1h  1 4.100000e-01    2.200000e+00
  SC5q  SC1h  1 4.100000e-01    2.350000e+00
  SC4q  SC1h  1 4.100000e-01    2.350000e+00
  SC3q  SC1h  1 4.100000e-01    2.840000e+00
  SC2q  SC1h  1 4.100000e-01    3.070000e+00
  SC1h  SC1q  1 4.100000e-01    2.840000e+00
  SC1h  SX1q  1 4.100000e-01    2.600000e+00
  SC1h  SX2q  1 4.100000e-01    2.600000e+00
  SC1h  SX3q  1 4.100000e-01    2.600000e+00
  SC1h  SX4q  1 4.100000e-01    2.200000e+00
  SP6d  SX4h  1 4.100000e-01    2.040000e+00
  SP5d  SX4h  1 4.100000e-01    2.200000e+00
  SP4d  SX4h  1 4.100000e-01    2.200000e+00
  SP3d  SX4h  1 4.100000e-01    2.200000e+00
  SP2d  SX4h  1 4.100000e-01    2.200000e+00
  SP1d  SX4h  1 4.100000e-01    2.200000e+00
  SN6d  SX4h  1 4.100000e-01    2.350000e+00
  SN5d  SX4h  1 4.100000e-01    2.600000e+00
  SN4d  SX4h  1 4.100000e-01    2.840000e+00
  SN3d  SX4h  1 4.100000e-01    2.600000e+00
  SN2d  SX4h  1 4.100000e-01    2.600000e+00
  SN1d  SX4h  1 4.100000e-01    2.350000e+00
  SP6a  SX4h  1 4.100000e-01    2.040000e+00
  SP5a  SX4h  1 4.100000e-01    2.200000e+00
  SP4a  SX4h  1 4.100000e-01    2.200000e+00
  SP3a  SX4h  1 4.100000e-01    2.200000e+00
  SP2a  SX4h  1 4.100000e-01    2.200000e+00
  SP1a  SX4h  1 4.100000e-01    2.200000e+00
  SN6a  SX4h  1 4.100000e-01    2.350000e+00
  SN5a  SX4h  1 4.100000e-01    2.600000e+00
  SN4a  SX4h  1 4.100000e-01    2.840000e+00
  SN3a  SX4h  1 4.100000e-01    2.600000e+00
  SN2a  SX4h  1 4.100000e-01    2.600000e+00
  SN1a  SX4h  1 4.100000e-01    2.350000e+00
  SC6v  SX4h  1 4.100000e-01    2.600000e+00
  SC5v  SX4h  1 4.100000e-01    2.350000e+00
  SC4v  SX4h  1 4.100000e-01    2.350000e+00
  SC3v  SX4h  1 4.100000e-01    2.350000e+00
  SC2v  SX4h  1 4.100000e-01    2.040000e+00
  SC1v  SX4h  1 4.100000e-01    2.040000e+00
  SX4h  SX4v  1 4.100000e-01    2.600000e+00
  SX4h  SX1v  1 4.100000e-01    2.600000e+00
  SX4h  SX2v  1 4.100000e-01    2.600000e+00
  SX4h  SX3v  1 4.100000e-01    2.600000e+00
  SC6e  SX4h  1 4.100000e-01    2.600000e+00
  SC5e  SX4h  1 4.100000e-01    2.350000e+00
  SC4e  SX4h  1 4.100000e-01    2.350000e+00
  SC3e  SX4h  1 4.100000e-01    2.350000e+00
  SC2e  SX4h  1 4.100000e-01    2.040000e+00
  SC1e  SX4h  1 4.100000e-01    2.040000e+00
  SX4h  SX4e  1 4.100000e-01    2.600000e+00
  SX4h  SX1e  1 4.100000e-01    2.600000e+00
  SX4h  SX2e  1 4.100000e-01    2.600000e+00
  SX4h  SX3e  1 4.100000e-01    2.600000e+00
  SP6q  SX4h  1 4.100000e-01    2.350000e+00
  SP5q  SX4h  1 4.100000e-01    2.600000e+00
  SP4q  SX4h  1 4.100000e-01    2.600000e+00
  SP3q  SX4h  1 4.100000e-01    2.600000e+00
  SP2q  SX4h  1 4.100000e-01    2.600000e+00
  SP1q  SX4h  1 4.100000e-01    2.600000e+00
  SN6q  SX4h  1 4.100000e-01    2.840000e+00
  SN5q  SX4h  1 4.100000e-01    3.070000e+00
  SN4q  SX4h  1 4.100000e-01    3.310000e+00
  SN3q  SX4h  1 4.100000e-01    3.070000e+00
  SN2q  SX4h  1 4.100000e-01    3.070000e+00
  SN1q  SX4h  1 4.100000e-01    2.840000e+00
  SC6q  SX4h  1 4.100000e-01    2.840000e+00
  SC5q  SX4h  1 4.100000e-01    2.600000e+00
  SC4q  SX4h  1 4.100000e-01    2.600000e+00
  SC3q  SX4h  1 4.100000e-01    2.600000e+00
  SC2q  SX4h  1 4.100000e-01    2.200000e+00
  SC1q  SX4h  1 4.100000e-01    2.200000e+00
  SX4h  SX4q  1 4.100000e-01    2.840000e+00
  SX4h  SX1q  1 4.100000e-01    2.840000e+00
  SX4h  SX2q  1 4.100000e-01    2.840000e+00
  SX4h  SX3q  1 4.100000e-01    2.840000e+00
  SP6d  SX3h  1 4.100000e-01    2.040000e+00
  SP5d  SX3h  1 4.100000e-01    2.040000e+00
  SP4d  SX3h  1 4.100000e-01    2.040000e+00
  SP3d  SX3h  1 4.100000e-01    2.200000e+00
  SP2d  SX3h  1 4.100000e-01    2.200000e+00
  SP1d  SX3h  1 4.100000e-01    2.200000e+00
  SN6d  SX3h  1 4.100000e-01    2.200000e+00
  SN5d  SX3h  1 4.100000e-01    2.350000e+00
  SN4d  SX3h  1 4.100000e-01    2.600000e+00
  SN3d  SX3h  1 4.100000e-01    2.350000e+00
  SN2d  SX3h  1 4.100000e-01    2.350000e+00
  SN1d  SX3h  1 4.100000e-01    2.350000e+00
  SP6a  SX3h  1 4.100000e-01    2.040000e+00
  SP5a  SX3h  1 4.100000e-01    2.040000e+00
  SP4a  SX3h  1 4.100000e-01    2.040000e+00
  SP3a  SX3h  1 4.100000e-01    2.200000e+00
  SP2a  SX3h  1 4.100000e-01    2.200000e+00
  SP1a  SX3h  1 4.100000e-01    2.200000e+00
  SN6a  SX3h  1 4.100000e-01    2.200000e+00
  SN5a  SX3h  1 4.100000e-01    2.350000e+00
  SN4a  SX3h  1 4.100000e-01    2.600000e+00
  SN3a  SX3h  1 4.100000e-01    2.350000e+00
  SN2a  SX3h  1 4.100000e-01    2.350000e+00
  SN1a  SX3h  1 4.100000e-01    2.350000e+00
  SC6v  SX3h  1 4.100000e-01    2.600000e+00
  SC5v  SX3h  1 4.100000e-01    2.350000e+00
  SC4v  SX3h  1 4.100000e-01    2.350000e+00
  SC3v  SX3h  1 4.100000e-01    2.350000e+00
  SC2v  SX3h  1 4.100000e-01    2.350000e+00
  SC1v  SX3h  1 4.100000e-01    2.350000e+00
  SX4v  SX3h  1 4.100000e-01    2.600000e+00
  SX3h  SX3v  1 4.100000e-01    2.600000e+00
  SX3h  SX1v  1 4.100000e-01    2.840000e+00
  SX3h  SX2v  1 4.100000e-01    2.840000e+00
  SC6e  SX3h  1 4.100000e-01    2.600000e+00
  SC5e  SX3h  1 4.100000e-01    2.350000e+00
  SC4e  SX3h  1 4.100000e-01    2.350000e+00
  SC3e  SX3h  1 4.100000e-01    2.350000e+00
  SC2e  SX3h  1 4.100000e-01    2.350000e+00
  SC1e  SX3h  1 4.100000e-01    2.350000e+00
  SX4e  SX3h  1 4.100000e-01    2.600000e+00
  SX3h  SX3e  1 4.100000e-01    2.600000e+00
  SX3h  SX1e  1 4.100000e-01    2.840000e+00
  SX3h  SX2e  1 4.100000e-01    2.840000e+00
  SP6q  SX3h  1 4.100000e-01    2.350000e+00
  SP5q  SX3h  1 4.100000e-01    2.350000e+00
  SP4q  SX3h  1 4.100000e-01    2.350000e+00
  SP3q  SX3h  1 4.100000e-01    2.600000e+00
  SP2q  SX3h  1 4.100000e-01    2.600000e+00
  SP1q  SX3h  1 4.100000e-01    2.600000e+00
  SN6q  SX3h  1 4.100000e-01    2.600000e+00
  SN5q  SX3h  1 4.100000e-01    2.840000e+00
  SN4q  SX3h  1 4.100000e-01    3.070000e+00
  SN3q  SX3h  1 4.100000e-01    2.840000e+00
  SN2q  SX3h  1 4.100000e-01    2.840000e+00
  SN1q  SX3h  1 4.100000e-01    2.840000e+00
  SC6q  SX3h  1 4.100000e-01    2.840000e+00
  SC5q  SX3h  1 4.100000e-01    2.600000e+00
  SC4q  SX3h  1 4.100000e-01    2.600000e+00
  SC3q  SX3h  1 4.100000e-01    2.600000e+00
  SC2q  SX3h  1 4.100000e-01    2.600000e+00
  SC1q  SX3h  1 4.100000e-01    2.600000e+00
  SX4q  SX3h  1 4.100000e-01    2.840000e+00
  SX3h  SX3q  1 4.100000e-01    2.840000e+00
  SX3h  SX1q  1 4.100000e-01    3.070000e+00
  SX3h  SX2q  1 4.100000e-01    3.070000e+00
  SP6d  SX2h  1 4.100000e-01    1.910000e+00
  SP5d  SX2h  1 4.100000e-01    2.040000e+00
  SP4d  SX2h  1 4.100000e-01    2.040000e+00
  SP3d  SX2h  1 4.100000e-01    2.040000e+00
  SP2d  SX2h  1 4.100000e-01    2.040000e+00
  SP1d  SX2h  1 4.100000e-01    2.040000e+00
  SN6d  SX2h  1 4.100000e-01    2.040000e+00
  SN5d  SX2h  1 4.100000e-01    2.200000e+00
  SN4d  SX2h  1 4.100000e-01    2.200000e+00
  SN3d  SX2h  1 4.100000e-01    2.200000e+00
  SN2d  SX2h  1 4.100000e-01    2.200000e+00
  SN1d  SX2h  1 4.100000e-01    2.200000e+00
  SP6a  SX2h  1 4.100000e-01    1.910000e+00
  SP5a  SX2h  1 4.100000e-01    2.040000e+00
  SP4a  SX2h  1 4.100000e-01    2.040000e+00
  SP3a  SX2h  1 4.100000e-01    2.040000e+00
  SP2a  SX2h  1 4.100000e-01    2.040000e+00
  SP1a  SX2h  1 4.100000e-01    2.040000e+00
  SN6a  SX2h  1 4.100000e-01    2.040000e+00
  SN5a  SX2h  1 4.100000e-01    2.200000e+00
  SN4a  SX2h  1 4.100000e-01    2.200000e+00
  SN3a  SX2h  1 4.100000e-01    2.200000e+00
  SN2a  SX2h  1 4.100000e-01    2.200000e+00
  SN1a  SX2h  1 4.100000e-01    2.200000e+00
  SC6v  SX2h  1 4.100000e-01    2.600000e+00
  SC5v  SX2h  1 4.100000e-01    2.350000e+00
  SC4v  SX2h  1 4.100000e-01    2.350000e+00
  SC3v  SX2h  1 4.100000e-01    2.350000e+00
  SC2v  SX2h  1 4.100000e-01    2.350000e+00
  SC1v  SX2h  1 4.100000e-01    2.350000e+00
  SX4v  SX2h  1 4.100000e-01    2.600000e+00
  SX3v  SX2h  1 4.100000e-01    2.840000e+00
  SX2h  SX2v  1 4.100000e-01    2.840000e+00
  SX2h  SX1v  1 4.100000e-01    2.840000e+00
  SC6e  SX2h  1 4.100000e-01    2.600000e+00
  SC5e  SX2h  1 4.100000e-01    2.350000e+00
  SC4e  SX2h  1 4.100000e-01    2.350000e+00
  SC3e  SX2h  1 4.100000e-01    2.350000e+00
  SC2e  SX2h  1 4.100000e-01    2.350000e+00
  SC1e  SX2h  1 4.100000e-01    2.350000e+00
  SX4e  SX2h  1 4.100000e-01    2.600000e+00
  SX3e  SX2h  1 4.100000e-01    2.840000e+00
  SX2h  SX2e  1 4.100000e-01    2.840000e+00
  SX2h  SX1e  1 4.100000e-01    2.840000e+00
  SP6q  SX2h  1 4.100000e-01    2.200000e+00
  SP5q  SX2h  1 4.100000e-01    2.350000e+00
  SP4q  SX2h  1 4.100000e-01    2.350000e+00
  SP3q  SX2h  1 4.100000e-01    2.350000e+00
  SP2q  SX2h  1 4.100000e-01    2.350000e+00
  SP1q  SX2h  1 4.100000e-01    2.350000e+00
  SN6q  SX2h  1 4.100000e-01    2.350000e+00
  SN5q  SX2h  1 4.100000e-01    2.600000e+00
  SN4q  SX2h  1 4.100000e-01    2.600000e+00
  SN3q  SX2h  1 4.100000e-01    2.600000e+00
  SN2q  SX2h  1 4.100000e-01    2.600000e+00
  SN1q  SX2h  1 4.100000e-01    2.600000e+00
  SC6q  SX2h  1 4.100000e-01    2.840000e+00
  SC5q  SX2h  1 4.100000e-01    2.600000e+00
  SC4q  SX2h  1 4.100000e-01    2.600000e+00
  SC3q  SX2h  1 4.100000e-01    2.600000e+00
  SC2q  SX2h  1 4.100000e-01    2.600000e+00
  SC1q  SX2h  1 4.100000e-01    2.600000e+00
  SX4q  SX2h  1 4.100000e-01    2.840000e+00
  SX3q  SX2h  1 4.100000e-01    3.070000e+00
  SX2h  SX2q  1 4.100000e-01    3.070000e+00
  SX2h  SX1q  1 4.100000e-01    3.070000e+00
  SP6d  SX1h  1 4.100000e-01    1.750000e+00
  SP5d  SX1h  1 4.100000e-01    1.750000e+00
  SP4d  SX1h  1 4.100000e-01    1.910000e+00
  SP3d  SX1h  1 4.100000e-01    1.910000e+00
  SP2d  SX1h  1 4.100000e-01    1.910000e+00
  SP1d  SX1h  1 4.100000e-01    1.910000e+00
  SN6d  SX1h  1 4.100000e-01    1.910000e+00
  SN5d  SX1h  1 4.100000e-01    2.040000e+00
  SN4d  SX1h  1 4.100000e-01    2.040000e+00
  SN3d  SX1h  1 4.100000e-01    2.200000e+00
  SN2d  SX1h  1 4.100000e-01    2.200000e+00
  SN1d  SX1h  1 4.100000e-01    2.200000e+00
  SP6a  SX1h  1 4.100000e-01    1.750000e+00
  SP5a  SX1h  1 4.100000e-01    1.750000e+00
  SP4a  SX1h  1 4.100000e-01    1.910000e+00
  SP3a  SX1h  1 4.100000e-01    1.910000e+00
  SP2a  SX1h  1 4.100000e-01    1.910000e+00
  SP1a  SX1h  1 4.100000e-01    1.910000e+00
  SN6a  SX1h  1 4.100000e-01    1.910000e+00
  SN5a  SX1h  1 4.100000e-01    2.040000e+00
  SN4a  SX1h  1 4.100000e-01    2.040000e+00
  SN3a  SX1h  1 4.100000e-01    2.200000e+00
  SN2a  SX1h  1 4.100000e-01    2.200000e+00
  SN1a  SX1h  1 4.100000e-01    2.200000e+00
  SC6v  SX1h  1 4.100000e-01    2.600000e+00
  SC5v  SX1h  1 4.100000e-01    2.600000e+00
  SC4v  SX1h  1 4.100000e-01    2.600000e+00
  SC3v  SX1h  1 4.100000e-01    2.600000e+00
  SC2v  SX1h  1 4.100000e-01    2.350000e+00
  SC1v  SX1h  1 4.100000e-01    2.350000e+00
  SX4v  SX1h  1 4.100000e-01    2.600000e+00
  SX3v  SX1h  1 4.100000e-01    2.840000e+00
  SX2v  SX1h  1 4.100000e-01    2.840000e+00
  SX1h  SX1v  1 4.100000e-01    3.070000e+00
  SC6e  SX1h  1 4.100000e-01    2.600000e+00
  SC5e  SX1h  1 4.100000e-01    2.600000e+00
  SC4e  SX1h  1 4.100000e-01    2.600000e+00
  SC3e  SX1h  1 4.100000e-01    2.600000e+00
  SC2e  SX1h  1 4.100000e-01    2.350000e+00
  SC1e  SX1h  1 4.100000e-01    2.350000e+00
  SX4e  SX1h  1 4.100000e-01    2.600000e+00
  SX3e  SX1h  1 4.100000e-01    2.840000e+00
  SX2e  SX1h  1 4.100000e-01    2.840000e+00
  SX1h  SX1e  1 4.100000e-01    3.070000e+00
  SP6q  SX1h  1 4.100000e-01    2.040000e+00
  SP5q  SX1h  1 4.100000e-01    2.040000e+00
  SP4q  SX1h  1 4.100000e-01    2.200000e+00
  SP3q  SX1h  1 4.100000e-01    2.200000e+00
  SP2q  SX1h  1 4.100000e-01    2.200000e+00
  SP1q  SX1h  1 4.100000e-01    2.200000e+00
  SN6q  SX1h  1 4.100000e-01    2.200000e+00
  SN5q  SX1h  1 4.100000e-01    2.350000e+00
  SN4q  SX1h  1 4.100000e-01    2.350000e+00
  SN3q  SX1h  1 4.100000e-01    2.600000e+00
  SN2q  SX1h  1 4.100000e-01    2.600000e+00
  SN1q  SX1h  1 4.100000e-01    2.600000e+00
  SC6q  SX1h  1 4.100000e-01    2.840000e+00
  SC5q  SX1h  1 4.100000e-01    2.840000e+00
  SC4q  SX1h  1 4.100000e-01    2.840000e+00
  SC3q  SX1h  1 4.100000e-01    2.840000e+00
  SC2q  SX1h  1 4.100000e-01    2.600000e+00
  SC1q  SX1h  1 4.100000e-01    2.600000e+00
  SX4q  SX1h  1 4.100000e-01    2.840000e+00
  SX3q  SX1h  1 4.100000e-01    3.070000e+00
  SX2q  SX1h  1 4.100000e-01    3.070000e+00
  SX1h  SX1q  1 4.100000e-01    3.310000e+00
 SP6dh SP6dq  1 4.100000e-01    4.550000e+00
 SP6dh SX1eq  1 4.100000e-01    2.200000e+00
 SP6dh SX2eq  1 4.100000e-01    2.350000e+00
 SP6dh SX3eq  1 4.100000e-01    2.600000e+00
 SP6dh SX4eq  1 4.100000e-01    2.600000e+00
 SP6dh SC1eq  1 4.140000e-01    1.560000e+00
 SP6dh SC2eq  1 4.100000e-01    1.910000e+00
 SP6dh SC3eq  1 4.100000e-01    1.910000e+00
 SP6dh SC4eq  1 4.100000e-01    2.040000e+00
 SP6dh SC5eq  1 4.100000e-01    2.200000e+00
 SP6dh SC6eq  1 4.100000e-01    2.350000e+00
 SP6dh SX1vq  1 4.100000e-01    1.910000e+00
 SP6dh SX2vq  1 4.100000e-01    2.040000e+00
 SP6dh SX3vq  1 4.100000e-01    2.200000e+00
 SP6dh SX4vq  1 4.100000e-01    2.200000e+00
 SP6dh SC1vq  1 4.210000e-01    1.250000e+00
 SP6dh SC2vq  1 4.140000e-01    1.560000e+00
 SP6dh SC3vq  1 4.140000e-01    1.560000e+00
 SP6dh SC4vq  1 4.100000e-01    1.750000e+00
 SP6dh SC5vq  1 4.100000e-01    1.910000e+00
 SP6dh SC6vq  1 4.100000e-01    2.040000e+00
 SP6dh SN1aq  1 4.100000e-01    2.200000e+00
 SP6dh SN2aq  1 4.100000e-01    2.350000e+00
 SP6dh SN3aq  1 4.100000e-01    2.600000e+00
 SP6dh SN4aq  1 4.100000e-01    3.070000e+00
 SP6dh SN5aq  1 4.100000e-01    3.310000e+00
 SP6dh SN6aq  1 4.100000e-01    3.820000e+00
 SP6dh SP1aq  1 4.100000e-01    4.040000e+00
 SP6dh SP2aq  1 4.100000e-01    4.290000e+00
 SP6dh SP3aq  1 4.100000e-01    4.290000e+00
 SP6dh SP4aq  1 4.100000e-01    4.550000e+00
 SP6dh SP5aq  1 4.100000e-01    4.840000e+00
 SP6dh SP6aq  1 4.100000e-01    5.130000e+00
 SP6dh SN1dq  1 4.100000e-01    2.200000e+00
 SP6dh SN2dq  1 4.100000e-01    2.350000e+00
 SP6dh SN3dq  1 4.100000e-01    2.600000e+00
 SP6dh SN4dq  1 4.100000e-01    2.600000e+00
 SP6dh SN5dq  1 4.100000e-01    2.840000e+00
 SP6dh SN6dq  1 4.100000e-01    3.310000e+00
 SP6dh SP1dq  1 4.100000e-01    3.550000e+00
 SP6dh SP2dq  1 4.100000e-01    3.820000e+00
 SP6dh SP3dq  1 4.100000e-01    3.820000e+00
 SP6dh SP4dq  1 4.100000e-01    4.040000e+00
 SP6dh SP5dq  1 4.100000e-01    4.290000e+00
 SP6dq SP5dh  1 4.100000e-01    4.290000e+00
 SP5dh SP5dq  1 4.100000e-01    4.040000e+00
 SP5dh SX1eq  1 4.100000e-01    2.200000e+00
 SP5dh SX2eq  1 4.100000e-01    2.600000e+00
 SP5dh SX3eq  1 4.100000e-01    2.600000e+00
 SP5dh SX4eq  1 4.100000e-01    2.840000e+00
 SP5dh SC1eq  1 4.100000e-01    1.910000e+00
 SP5dh SC2eq  1 4.100000e-01    2.040000e+00
 SP5dh SC3eq  1 4.100000e-01    2.040000e+00
 SP5dh SC4eq  1 4.100000e-01    2.200000e+00
 SP5dh SC5eq  1 4.100000e-01    2.350000e+00
 SP5dh SC6eq  1 4.100000e-01    2.350000e+00
 SP5dh SX1vq  1 4.100000e-01    1.910000e+00
 SP5dh SX2vq  1 4.100000e-01    2.200000e+00
 SP5dh SX3vq  1 4.100000e-01    2.200000e+00
 SP5dh SX4vq  1 4.100000e-01    2.350000e+00
 SP5dh SC1vq  1 4.140000e-01    1.560000e+00
 SP5dh SC2vq  1 4.100000e-01    1.750000e+00
 SP5dh SC3vq  1 4.100000e-01    1.750000e+00
 SP5dh SC4vq  1 4.100000e-01    1.910000e+00
 SP5dh SC5vq  1 4.100000e-01    2.040000e+00
 SP5dh SC6vq  1 4.100000e-01    2.040000e+00
 SP5dh SN1aq  1 4.100000e-01    2.200000e+00
 SP5dh SN2aq  1 4.100000e-01    2.350000e+00
 SP5dh SN3aq  1 4.100000e-01    2.600000e+00
 SP5dh SN4aq  1 4.100000e-01    3.310000e+00
 SP5dh SN5aq  1 4.100000e-01    3.310000e+00
 SP5dh SN6aq  1 4.100000e-01    3.550000e+00
 SP5dh SP1aq  1 4.100000e-01    3.820000e+00
 SP5dh SP2aq  1 4.100000e-01    4.040000e+00
 SP5dh SP3aq  1 4.100000e-01    4.040000e+00
 SP5dh SP4aq  1 4.100000e-01    4.290000e+00
 SP5dh SP5aq  1 4.100000e-01    4.550000e+00
 SP6aq SP5dh  1 4.100000e-01    4.840000e+00
 SP5dh SN1dq  1 4.100000e-01    2.200000e+00
 SP5dh SN2dq  1 4.100000e-01    2.350000e+00
 SP5dh SN3dq  1 4.100000e-01    2.600000e+00
 SP5dh SN4dq  1 4.100000e-01    2.840000e+00
 SP5dh SN5dq  1 4.100000e-01    2.840000e+00
 SP5dh SN6dq  1 4.100000e-01    3.070000e+00
 SP5dh SP1dq  1 4.100000e-01    3.310000e+00
 SP5dh SP2dq  1 4.100000e-01    3.550000e+00
 SP5dh SP3dq  1 4.100000e-01    3.550000e+00
 SP5dh SP4dq  1 4.100000e-01    3.820000e+00
 SP6dq SP4dh  1 4.100000e-01    4.040000e+00
 SP5dq SP4dh  1 4.100000e-01    3.820000e+00
 SP4dh SP4dq  1 4.100000e-01    3.820000e+00
 SP4dh SX1eq  1 4.100000e-01    2.350000e+00
 SP4dh SX2eq  1 4.100000e-01    2.600000e+00
 SP4dh SX3eq  1 4.100000e-01    2.600000e+00
 SP4dh SX4eq  1 4.100000e-01    2.840000e+00
 SP4dh SC1eq  1 4.100000e-01    1.910000e+00
 SP4dh SC2eq  1 4.100000e-01    2.040000e+00
 SP4dh SC3eq  1 4.100000e-01    2.040000e+00
 SP4dh SC4eq  1 4.100000e-01    2.200000e+00
 SP4dh SC5eq  1 4.100000e-01    2.350000e+00
 SP4dh SC6eq  1 4.100000e-01    2.600000e+00
 SP4dh SX1vq  1 4.100000e-01    2.040000e+00
 SP4dh SX2vq  1 4.100000e-01    2.200000e+00
 SP4dh SX3vq  1 4.100000e-01    2.200000e+00
 SP4dh SX4vq  1 4.100000e-01    2.350000e+00
 SP4dh SC1vq  1 4.140000e-01    1.560000e+00
 SP4dh SC2vq  1 4.100000e-01    1.750000e+00
 SP4dh SC3vq  1 4.100000e-01    1.750000e+00
 SP4dh SC4vq  1 4.100000e-01    1.910000e+00
 SP4dh SC5vq  1 4.100000e-01    2.040000e+00
 SP4dh SC6vq  1 4.100000e-01    2.200000e+00
 SP4dh SN1aq  1 4.100000e-01    2.350000e+00
 SP4dh SN2aq  1 4.100000e-01    2.600000e+00
 SP4dh SN3aq  1 4.100000e-01    3.070000e+00
 SP4dh SN4aq  1 4.100000e-01    3.310000e+00
 SP4dh SN5aq  1 4.100000e-01    3.310000e+00
 SP4dh SN6aq  1 4.100000e-01    3.550000e+00
 SP4dh SP1aq  1 4.100000e-01    3.820000e+00
 SP4dh SP2aq  1 4.100000e-01    4.040000e+00
 SP4dh SP3aq  1 4.100000e-01    4.040000e+00
 SP4dh SP4aq  1 4.100000e-01    4.290000e+00
 SP5aq SP4dh  1 4.100000e-01    4.290000e+00
 SP6aq SP4dh  1 4.100000e-01    4.550000e+00
 SP4dh SN1dq  1 4.100000e-01    2.350000e+00
 SP4dh SN2dq  1 4.100000e-01    2.600000e+00
 SP4dh SN3dq  1 4.100000e-01    2.600000e+00
 SP4dh SN4dq  1 4.100000e-01    2.840000e+00
 SP4dh SN5dq  1 4.100000e-01    2.840000e+00
 SP4dh SN6dq  1 4.100000e-01    3.070000e+00
 SP4dh SP1dq  1 4.100000e-01    3.310000e+00
 SP4dh SP2dq  1 4.100000e-01    3.550000e+00
 SP4dh SP3dq  1 4.100000e-01    3.550000e+00
 SP6dq SP3dh  1 4.100000e-01    3.820000e+00
 SP5dq SP3dh  1 4.100000e-01    3.550000e+00
 SP4dq SP3dh  1 4.100000e-01    3.550000e+00
 SP3dh SP3dq  1 4.100000e-01    3.550000e+00
 SP3dh SX1eq  1 4.100000e-01    2.350000e+00
 SP3dh SX2eq  1 4.100000e-01    2.600000e+00
 SP3dh SX3eq  1 4.100000e-01    2.840000e+00
 SP3dh SX4eq  1 4.100000e-01    2.840000e+00
 SP3dh SC1eq  1 4.100000e-01    1.910000e+00
 SP3dh SC2eq  1 4.100000e-01    2.040000e+00
 SP3dh SC3eq  1 4.100000e-01    2.040000e+00
 SP3dh SC4eq  1 4.100000e-01    2.350000e+00
 SP3dh SC5eq  1 4.100000e-01    2.600000e+00
 SP3dh SC6eq  1 4.100000e-01    2.840000e+00
 SP3dh SX1vq  1 4.100000e-01    2.040000e+00
 SP3dh SX2vq  1 4.100000e-01    2.200000e+00
 SP3dh SX3vq  1 4.100000e-01    2.350000e+00
 SP3dh SX4vq  1 4.100000e-01    2.350000e+00
 SP3dh SC1vq  1 4.140000e-01    1.560000e+00
 SP3dh SC2vq  1 4.100000e-01    1.750000e+00
 SP3dh SC3vq  1 4.100000e-01    1.750000e+00
 SP3dh SC4vq  1 4.100000e-01    2.040000e+00
 SP3dh SC5vq  1 4.100000e-01    2.200000e+00
 SP3dh SC6vq  1 4.100000e-01    2.350000e+00
 SP3dh SN1aq  1 4.100000e-01    2.600000e+00
 SP3dh SN2aq  1 4.100000e-01    3.070000e+00
 SP3dh SN3aq  1 4.100000e-01    3.070000e+00
 SP3dh SN4aq  1 4.100000e-01    3.310000e+00
 SP3dh SN5aq  1 4.100000e-01    3.310000e+00
 SP3dh SN6aq  1 4.100000e-01    3.550000e+00
 SP3dh SP1aq  1 4.100000e-01    3.820000e+00
 SP3dh SP2aq  1 4.100000e-01    4.040000e+00
 SP3dh SP3aq  1 4.100000e-01    4.040000e+00
 SP4aq SP3dh  1 4.100000e-01    4.040000e+00
 SP5aq SP3dh  1 4.100000e-01    4.040000e+00
 SP6aq SP3dh  1 4.100000e-01    4.290000e+00
 SP3dh SN1dq  1 4.100000e-01    2.600000e+00
 SP3dh SN2dq  1 4.100000e-01    2.600000e+00
 SP3dh SN3dq  1 4.100000e-01    2.600000e+00
 SP3dh SN4dq  1 4.100000e-01    2.840000e+00
 SP3dh SN5dq  1 4.100000e-01    2.840000e+00
 SP3dh SN6dq  1 4.100000e-01    3.070000e+00
 SP3dh SP1dq  1 4.100000e-01    3.310000e+00
 SP3dh SP2dq  1 4.100000e-01    3.550000e+00
 SP6dq SP2dh  1 4.100000e-01    3.820000e+00
 SP5dq SP2dh  1 4.100000e-01    3.550000e+00
 SP4dq SP2dh  1 4.100000e-01    3.550000e+00
 SP3dq SP2dh  1 4.100000e-01    3.550000e+00
 SP2dh SP2dq  1 4.100000e-01    3.550000e+00
 SP2dh SX1eq  1 4.100000e-01    2.350000e+00
 SP2dh SX2eq  1 4.100000e-01    2.600000e+00
 SP2dh SX3eq  1 4.100000e-01    2.840000e+00
 SP2dh SX4eq  1 4.100000e-01    2.840000e+00
 SP2dh SC1eq  1 4.100000e-01    2.040000e+00
 SP2dh SC2eq  1 4.100000e-01    2.200000e+00
 SP2dh SC3eq  1 4.100000e-01    2.200000e+00
 SP2dh SC4eq  1 4.100000e-01    2.350000e+00
 SP2dh SC5eq  1 4.100000e-01    2.600000e+00
 SP2dh SC6eq  1 4.100000e-01    2.840000e+00
 SP2dh SX1vq  1 4.100000e-01    2.040000e+00
 SP2dh SX2vq  1 4.100000e-01    2.200000e+00
 SP2dh SX3vq  1 4.100000e-01    2.350000e+00
 SP2dh SX4vq  1 4.100000e-01    2.350000e+00
 SP2dh SC1vq  1 4.100000e-01    1.750000e+00
 SP2dh SC2vq  1 4.100000e-01    1.910000e+00
 SP2dh SC3vq  1 4.100000e-01    1.910000e+00
 SP2dh SC4vq  1 4.100000e-01    2.040000e+00
 SP2dh SC5vq  1 4.100000e-01    2.200000e+00
 SP2dh SC6vq  1 4.100000e-01    2.350000e+00
 SP2dh SN1aq  1 4.100000e-01    3.070000e+00
 SP2dh SN2aq  1 4.100000e-01    3.070000e+00
 SP2dh SN3aq  1 4.100000e-01    3.070000e+00
 SP2dh SN4aq  1 4.100000e-01    3.310000e+00
 SP2dh SN5aq  1 4.100000e-01    3.550000e+00
 SP2dh SN6aq  1 4.100000e-01    3.820000e+00
 SP2dh SP1aq  1 4.100000e-01    3.820000e+00
 SP2dh SP2aq  1 4.100000e-01    4.040000e+00
 SP3aq SP2dh  1 4.100000e-01    4.040000e+00
 SP4aq SP2dh  1 4.100000e-01    4.040000e+00
 SP5aq SP2dh  1 4.100000e-01    4.040000e+00
 SP6aq SP2dh  1 4.100000e-01    4.290000e+00
 SP2dh SN1dq  1 4.100000e-01    2.600000e+00
 SP2dh SN2dq  1 4.100000e-01    2.600000e+00
 SP2dh SN3dq  1 4.100000e-01    2.600000e+00
 SP2dh SN4dq  1 4.100000e-01    2.840000e+00
 SP2dh SN5dq  1 4.100000e-01    3.070000e+00
 SP2dh SN6dq  1 4.100000e-01    3.310000e+00
 SP2dh SP1dq  1 4.100000e-01    3.310000e+00
 SP6dq SP1dh  1 4.100000e-01    3.550000e+00
 SP5dq SP1dh  1 4.100000e-01    3.310000e+00
 SP4dq SP1dh  1 4.100000e-01    3.310000e+00
 SP3dq SP1dh  1 4.100000e-01    3.310000e+00
 SP2dq SP1dh  1 4.100000e-01    3.310000e+00
 SP1dh SP1dq  1 4.100000e-01    3.310000e+00
 SP1dh SX1eq  1 4.100000e-01    2.350000e+00
 SP1dh SX2eq  1 4.100000e-01    2.600000e+00
 SP1dh SX3eq  1 4.100000e-01    2.840000e+00
 SP1dh SX4eq  1 4.100000e-01    2.840000e+00
 SP1dh SC1eq  1 4.100000e-01    2.040000e+00
 SP1dh SC2eq  1 4.100000e-01    2.200000e+00
 SP1dh SC3eq  1 4.100000e-01    2.200000e+00
 SP1dh SC4eq  1 4.100000e-01    2.350000e+00
 SP1dh SC5eq  1 4.100000e-01    2.600000e+00
 SP1dh SC6eq  1 4.100000e-01    2.840000e+00
 SP1dh SX1vq  1 4.100000e-01    2.040000e+00
 SP1dh SX2vq  1 4.100000e-01    2.200000e+00
 SP1dh SX3vq  1 4.100000e-01    2.350000e+00
 SP1dh SX4vq  1 4.100000e-01    2.350000e+00
 SP1dh SC1vq  1 4.100000e-01    1.750000e+00
 SP1dh SC2vq  1 4.100000e-01    1.910000e+00
 SP1dh SC3vq  1 4.100000e-01    1.910000e+00
 SP1dh SC4vq  1 4.100000e-01    2.040000e+00
 SP1dh SC5vq  1 4.100000e-01    2.200000e+00
 SP1dh SC6vq  1 4.100000e-01    2.350000e+00
 SP1dh SN1aq  1 4.100000e-01    3.070000e+00
 SP1dh SN2aq  1 4.100000e-01    3.070000e+00
 SP1dh SN3aq  1 4.100000e-01    3.070000e+00
 SP1dh SN4aq  1 4.100000e-01    3.550000e+00
 SP1dh SN5aq  1 4.100000e-01    3.550000e+00
 SP1dh SN6aq  1 4.100000e-01    3.820000e+00
 SP1dh SP1aq  1 4.100000e-01    3.820000e+00
 SP2aq SP1dh  1 4.100000e-01    3.820000e+00
 SP3aq SP1dh  1 4.100000e-01    3.820000e+00
 SP4aq SP1dh  1 4.100000e-01    3.820000e+00
 SP5aq SP1dh  1 4.100000e-01    3.820000e+00
 SP6aq SP1dh  1 4.100000e-01    4.040000e+00
 SP1dh SN1dq  1 4.100000e-01    2.600000e+00
 SP1dh SN2dq  1 4.100000e-01    2.600000e+00
 SP1dh SN3dq  1 4.100000e-01    2.600000e+00
 SP1dh SN4dq  1 4.100000e-01    3.070000e+00
 SP1dh SN5dq  1 4.100000e-01    3.070000e+00
 SP1dh SN6dq  1 4.100000e-01    3.310000e+00
 SP6dq SN6dh  1 4.100000e-01    3.310000e+00
 SP5dq SN6dh  1 4.100000e-01    3.070000e+00
 SP4dq SN6dh  1 4.100000e-01    3.070000e+00
 SP3dq SN6dh  1 4.100000e-01    3.070000e+00
 SP2dq SN6dh  1 4.100000e-01    3.310000e+00
 SP1dq SN6dh  1 4.100000e-01    3.310000e+00
 SN6dh SN6dq  1 4.100000e-01    3.310000e+00
 SN6dh SX1eq  1 4.100000e-01    2.350000e+00
 SN6dh SX2eq  1 4.100000e-01    2.600000e+00
 SN6dh SX3eq  1 4.100000e-01    2.840000e+00
 SN6dh SX4eq  1 4.100000e-01    3.070000e+00
 SN6dh SC1eq  1 4.100000e-01    2.200000e+00
 SN6dh SC2eq  1 4.100000e-01    2.350000e+00
 SN6dh SC3eq  1 4.100000e-01    2.350000e+00
 SN6dh SC4eq  1 4.100000e-01    2.600000e+00
 SN6dh SC5eq  1 4.100000e-01    2.840000e+00
 SN6dh SC6eq  1 4.100000e-01    3.070000e+00
 SN6dh SX1vq  1 4.100000e-01    2.040000e+00
 SN6dh SX2vq  1 4.100000e-01    2.200000e+00
 SN6dh SX3vq  1 4.100000e-01    2.350000e+00
 SN6dh SX4vq  1 4.100000e-01    2.600000e+00
 SN6dh SC1vq  1 4.100000e-01    1.910000e+00
 SN6dh SC2vq  1 4.100000e-01    2.040000e+00
 SN6dh SC3vq  1 4.100000e-01    2.040000e+00
 SN6dh SC4vq  1 4.100000e-01    2.200000e+00
 SN6dh SC5vq  1 4.100000e-01    2.350000e+00
 SN6dh SC6vq  1 4.100000e-01    2.600000e+00
 SN6dh SN1aq  1 4.100000e-01    3.070000e+00
 SN6dh SN2aq  1 4.100000e-01    3.070000e+00
 SN6dh SN3aq  1 4.100000e-01    3.310000e+00
 SN6dh SN4aq  1 4.100000e-01    3.820000e+00
 SN6dh SN5aq  1 4.100000e-01    3.820000e+00
 SN6dh SN6aq  1 4.100000e-01    3.820000e+00
 SP1aq SN6dh  1 4.100000e-01    3.820000e+00
 SP2aq SN6dh  1 4.100000e-01    3.820000e+00
 SP3aq SN6dh  1 4.100000e-01    3.550000e+00
 SP4aq SN6dh  1 4.100000e-01    3.550000e+00
 SP5aq SN6dh  1 4.100000e-01    3.550000e+00
 SP6aq SN6dh  1 4.100000e-01    3.820000e+00
 SN6dh SN1dq  1 4.100000e-01    2.600000e+00
 SN6dh SN2dq  1 4.100000e-01    2.600000e+00
 SN6dh SN3dq  1 4.100000e-01    2.840000e+00
 SN6dh SN4dq  1 4.100000e-01    3.310000e+00
 SN6dh SN5dq  1 4.100000e-01    3.310000e+00
 SP6dq SN5dh  1 4.100000e-01    2.840000e+00
 SP5dq SN5dh  1 4.100000e-01    2.840000e+00
 SP4dq SN5dh  1 4.100000e-01    2.840000e+00
 SP3dq SN5dh  1 4.100000e-01    2.840000e+00
 SP2dq SN5dh  1 4.100000e-01    3.070000e+00
 SP1dq SN5dh  1 4.100000e-01    3.070000e+00
 SN6dq SN5dh  1 4.100000e-01    3.310000e+00
 SN5dh SN5dq  1 4.100000e-01    3.070000e+00
 SN5dh SX1eq  1 4.100000e-01    2.600000e+00
 SN5dh SX2eq  1 4.100000e-01    2.840000e+00
 SN5dh SX3eq  1 4.100000e-01    3.070000e+00
 SN5dh SX4eq  1 4.100000e-01    3.310000e+00
 SN5dh SC1eq  1 4.100000e-01    2.200000e+00
 SN5dh SC2eq  1 4.100000e-01    2.350000e+00
 SN5dh SC3eq  1 4.100000e-01    2.600000e+00
 SN5dh SC4eq  1 4.100000e-01    2.600000e+00
 SN5dh SC5eq  1 4.100000e-01    2.840000e+00
 SN5dh SC6eq  1 4.100000e-01    3.070000e+00
 SN5dh SX1vq  1 4.100000e-01    2.200000e+00
 SN5dh SX2vq  1 4.100000e-01    2.350000e+00
 SN5dh SX3vq  1 4.100000e-01    2.600000e+00
 SN5dh SX4vq  1 4.100000e-01    2.840000e+00
 SN5dh SC1vq  1 4.100000e-01    1.910000e+00
 SN5dh SC2vq  1 4.100000e-01    2.040000e+00
 SN5dh SC3vq  1 4.100000e-01    2.200000e+00
 SN5dh SC4vq  1 4.100000e-01    2.200000e+00
 SN5dh SC5vq  1 4.100000e-01    2.350000e+00
 SN5dh SC6vq  1 4.100000e-01    2.600000e+00
 SN5dh SN1aq  1 4.100000e-01    3.070000e+00
 SN5dh SN2aq  1 4.100000e-01    3.310000e+00
 SN5dh SN3aq  1 4.100000e-01    3.310000e+00
 SN5dh SN4aq  1 4.100000e-01    3.550000e+00
 SN5dh SN5aq  1 4.100000e-01    3.550000e+00
 SN6aq SN5dh  1 4.100000e-01    3.820000e+00
 SP1aq SN5dh  1 4.100000e-01    3.550000e+00
 SP2aq SN5dh  1 4.100000e-01    3.550000e+00
 SP3aq SN5dh  1 4.100000e-01    3.310000e+00
 SP4aq SN5dh  1 4.100000e-01    3.310000e+00
 SP5aq SN5dh  1 4.100000e-01    3.310000e+00
 SP6aq SN5dh  1 4.100000e-01    3.310000e+00
 SN5dh SN1dq  1 4.100000e-01    2.600000e+00
 SN5dh SN2dq  1 4.100000e-01    2.840000e+00
 SN5dh SN3dq  1 4.100000e-01    2.840000e+00
 SN5dh SN4dq  1 4.100000e-01    3.070000e+00
 SP6dq SN4dh  1 4.100000e-01    2.600000e+00
 SP5dq SN4dh  1 4.100000e-01    2.840000e+00
 SP4dq SN4dh  1 4.100000e-01    2.840000e+00
 SP3dq SN4dh  1 4.100000e-01    2.840000e+00
 SP2dq SN4dh  1 4.100000e-01    2.840000e+00
 SP1dq SN4dh  1 4.100000e-01    3.070000e+00
 SN6dq SN4dh  1 4.100000e-01    3.310000e+00
 SN5dq SN4dh  1 4.100000e-01    3.070000e+00
 SN4dh SN4dq  1 4.100000e-01    3.070000e+00
 SN4dh SX1eq  1 4.100000e-01    2.600000e+00
 SN4dh SX2eq  1 4.100000e-01    2.840000e+00
 SN4dh SX3eq  1 4.100000e-01    3.310000e+00
 SN4dh SX4eq  1 4.100000e-01    3.550000e+00
 SN4dh SC1eq  1 4.100000e-01    2.200000e+00
 SN4dh SC2eq  1 4.100000e-01    2.350000e+00
 SN4dh SC3eq  1 4.100000e-01    2.600000e+00
 SN4dh SC4eq  1 4.100000e-01    2.840000e+00
 SN4dh SC5eq  1 4.100000e-01    2.840000e+00
 SN4dh SC6eq  1 4.100000e-01    3.070000e+00
 SN4dh SX1vq  1 4.100000e-01    2.200000e+00
 SN4dh SX2vq  1 4.100000e-01    2.350000e+00
 SN4dh SX3vq  1 4.100000e-01    2.840000e+00
 SN4dh SX4vq  1 4.100000e-01    3.070000e+00
 SN4dh SC1vq  1 4.100000e-01    1.910000e+00
 SN4dh SC2vq  1 4.100000e-01    2.040000e+00
 SN4dh SC3vq  1 4.100000e-01    2.200000e+00
 SN4dh SC4vq  1 4.100000e-01    2.350000e+00
 SN4dh SC5vq  1 4.100000e-01    2.350000e+00
 SN4dh SC6vq  1 4.100000e-01    2.600000e+00
 SN4dh SN1aq  1 4.100000e-01    3.070000e+00
 SN4dh SN2aq  1 4.100000e-01    3.310000e+00
 SN4dh SN3aq  1 4.100000e-01    3.310000e+00
 SN4dh SN4aq  1 4.100000e-01    3.550000e+00
 SN5aq SN4dh  1 4.100000e-01    3.550000e+00
 SN6aq SN4dh  1 4.100000e-01    3.820000e+00
 SP1aq SN4dh  1 4.100000e-01    3.550000e+00
 SP2aq SN4dh  1 4.100000e-01    3.310000e+00
 SP3aq SN4dh  1 4.100000e-01    3.310000e+00
 SP4aq SN4dh  1 4.100000e-01    3.310000e+00
 SP5aq SN4dh  1 4.100000e-01    3.310000e+00
 SP6aq SN4dh  1 4.100000e-01    3.070000e+00
 SN4dh SN1dq  1 4.100000e-01    2.600000e+00
 SN4dh SN2dq  1 4.100000e-01    2.840000e+00
 SN4dh SN3dq  1 4.100000e-01    2.840000e+00
 SP6dq SN3dh  1 4.100000e-01    2.600000e+00
 SP5dq SN3dh  1 4.100000e-01    2.600000e+00
 SP4dq SN3dh  1 4.100000e-01    2.600000e+00
 SP3dq SN3dh  1 4.100000e-01    2.600000e+00
 SP2dq SN3dh  1 4.100000e-01    2.600000e+00
 SP1dq SN3dh  1 4.100000e-01    2.600000e+00
 SN6dq SN3dh  1 4.100000e-01    2.840000e+00
 SN5dq SN3dh  1 4.100000e-01    2.840000e+00
 SN4dq SN3dh  1 4.100000e-01    2.840000e+00
 SN3dh SN3dq  1 4.100000e-01    2.840000e+00
 SN3dh SX1eq  1 4.100000e-01    2.840000e+00
 SN3dh SX2eq  1 4.100000e-01    2.840000e+00
 SN3dh SX3eq  1 4.100000e-01    3.070000e+00
 SN3dh SX4eq  1 4.100000e-01    3.310000e+00
 SN3dh SC1eq  1 4.100000e-01    2.350000e+00
 SN3dh SC2eq  1 4.100000e-01    2.600000e+00
 SN3dh SC3eq  1 4.100000e-01    2.600000e+00
 SN3dh SC4eq  1 4.100000e-01    2.840000e+00
 SN3dh SC5eq  1 4.100000e-01    2.840000e+00
 SN3dh SC6eq  1 4.100000e-01    3.070000e+00
 SN3dh SX1vq  1 4.100000e-01    2.350000e+00
 SN3dh SX2vq  1 4.100000e-01    2.350000e+00
 SN3dh SX3vq  1 4.100000e-01    2.600000e+00
 SN3dh SX4vq  1 4.100000e-01    2.840000e+00
 SN3dh SC1vq  1 4.100000e-01    2.040000e+00
 SN3dh SC2vq  1 4.100000e-01    2.200000e+00
 SN3dh SC3vq  1 4.100000e-01    2.200000e+00
 SN3dh SC4vq  1 4.100000e-01    2.350000e+00
 SN3dh SC5vq  1 4.100000e-01    2.350000e+00
 SN3dh SC6vq  1 4.100000e-01    2.600000e+00
 SN3dh SN1aq  1 4.100000e-01    3.070000e+00
 SN3dh SN2aq  1 4.100000e-01    3.310000e+00
 SN3dh SN3aq  1 4.100000e-01    3.310000e+00
 SN4aq SN3dh  1 4.100000e-01    3.310000e+00
 SN5aq SN3dh  1 4.100000e-01    3.310000e+00
 SN6aq SN3dh  1 4.100000e-01    3.310000e+00
 SP1aq SN3dh  1 4.100000e-01    3.070000e+00
 SP2aq SN3dh  1 4.100000e-01    3.070000e+00
 SP3aq SN3dh  1 4.100000e-01    3.070000e+00
 SP4aq SN3dh  1 4.100000e-01    3.070000e+00
 SP5aq SN3dh  1 4.100000e-01    2.600000e+00
 SP6aq SN3dh  1 4.100000e-01    2.600000e+00
 SN3dh SN1dq  1 4.100000e-01    2.600000e+00
 SN3dh SN2dq  1 4.100000e-01    2.840000e+00
 SP6dq SN2dh  1 4.100000e-01    2.350000e+00
 SP5dq SN2dh  1 4.100000e-01    2.350000e+00
 SP4dq SN2dh  1 4.100000e-01    2.600000e+00
 SP3dq SN2dh  1 4.100000e-01    2.600000e+00
 SP2dq SN2dh  1 4.100000e-01    2.600000e+00
 SP1dq SN2dh  1 4.100000e-01    2.600000e+00
 SN6dq SN2dh  1 4.100000e-01    2.600000e+00
 SN5dq SN2dh  1 4.100000e-01    2.840000e+00
 SN4dq SN2dh  1 4.100000e-01    2.840000e+00
 SN3dq SN2dh  1 4.100000e-01    2.840000e+00
 SN2dh SN2dq  1 4.100000e-01    2.840000e+00
 SN2dh SX1eq  1 4.100000e-01    2.840000e+00
 SN2dh SX2eq  1 4.100000e-01    2.840000e+00
 SN2dh SX3eq  1 4.100000e-01    3.070000e+00
 SN2dh SX4eq  1 4.100000e-01    3.310000e+00
 SN2dh SC1eq  1 4.100000e-01    2.350000e+00
 SN2dh SC2eq  1 4.100000e-01    2.600000e+00
 SN2dh SC3eq  1 4.100000e-01    2.840000e+00
 SN2dh SC4eq  1 4.100000e-01    2.840000e+00
 SN2dh SC5eq  1 4.100000e-01    2.840000e+00
 SN2dh SC6eq  1 4.100000e-01    3.070000e+00
 SN2dh SX1vq  1 4.100000e-01    2.350000e+00
 SN2dh SX2vq  1 4.100000e-01    2.350000e+00
 SN2dh SX3vq  1 4.100000e-01    2.600000e+00
 SN2dh SX4vq  1 4.100000e-01    2.840000e+00
 SN2dh SC1vq  1 4.100000e-01    2.040000e+00
 SN2dh SC2vq  1 4.100000e-01    2.200000e+00
 SN2dh SC3vq  1 4.100000e-01    2.350000e+00
 SN2dh SC4vq  1 4.100000e-01    2.350000e+00
 SN2dh SC5vq  1 4.100000e-01    2.350000e+00
 SN2dh SC6vq  1 4.100000e-01    2.600000e+00
 SN2dh SN1aq  1 4.100000e-01    3.070000e+00
 SN2dh SN2aq  1 4.100000e-01    3.310000e+00
 SN3aq SN2dh  1 4.100000e-01    3.310000e+00
 SN4aq SN2dh  1 4.100000e-01    3.310000e+00
 SN5aq SN2dh  1 4.100000e-01    3.310000e+00
 SN6aq SN2dh  1 4.100000e-01    3.070000e+00
 SP1aq SN2dh  1 4.100000e-01    3.070000e+00
 SP2aq SN2dh  1 4.100000e-01    3.070000e+00
 SP3aq SN2dh  1 4.100000e-01    3.070000e+00
 SP4aq SN2dh  1 4.100000e-01    2.600000e+00
 SP5aq SN2dh  1 4.100000e-01    2.350000e+00
 SP6aq SN2dh  1 4.100000e-01    2.350000e+00
 SN2dh SN1dq  1 4.100000e-01    2.600000e+00
 SP6dq SN1dh  1 4.100000e-01    2.200000e+00
 SP5dq SN1dh  1 4.100000e-01    2.200000e+00
 SP4dq SN1dh  1 4.100000e-01    2.350000e+00
 SP3dq SN1dh  1 4.100000e-01    2.600000e+00
 SP2dq SN1dh  1 4.100000e-01    2.600000e+00
 SP1dq SN1dh  1 4.100000e-01    2.600000e+00
 SN6dq SN1dh  1 4.100000e-01    2.600000e+00
 SN5dq SN1dh  1 4.100000e-01    2.600000e+00
 SN4dq SN1dh  1 4.100000e-01    2.600000e+00
 SN3dq SN1dh  1 4.100000e-01    2.600000e+00
 SN2dq SN1dh  1 4.100000e-01    2.600000e+00
 SN1dh SN1dq  1 4.100000e-01    2.840000e+00
 SN1dh SX1eq  1 4.100000e-01    2.840000e+00
 SN1dh SX2eq  1 4.100000e-01    2.840000e+00
 SN1dh SX3eq  1 4.100000e-01    3.070000e+00
 SN1dh SX4eq  1 4.100000e-01    3.070000e+00
 SN1dh SC1eq  1 4.100000e-01    2.350000e+00
 SN1dh SC2eq  1 4.100000e-01    2.600000e+00
 SN1dh SC3eq  1 4.100000e-01    2.840000e+00
 SN1dh SC4eq  1 4.100000e-01    3.070000e+00
 SN1dh SC5eq  1 4.100000e-01    3.070000e+00
 SN1dh SC6eq  1 4.100000e-01    3.310000e+00
 SN1dh SX1vq  1 4.100000e-01    2.350000e+00
 SN1dh SX2vq  1 4.100000e-01    2.350000e+00
 SN1dh SX3vq  1 4.100000e-01    2.600000e+00
 SN1dh SX4vq  1 4.100000e-01    2.600000e+00
 SN1dh SC1vq  1 4.100000e-01    2.040000e+00
 SN1dh SC2vq  1 4.100000e-01    2.200000e+00
 SN1dh SC3vq  1 4.100000e-01    2.350000e+00
 SN1dh SC4vq  1 4.100000e-01    2.600000e+00
 SN1dh SC5vq  1 4.100000e-01    2.600000e+00
 SN1dh SC6vq  1 4.100000e-01    2.840000e+00
 SN1dh SN1aq  1 4.100000e-01    3.310000e+00
 SN2aq SN1dh  1 4.100000e-01    3.070000e+00
 SN3aq SN1dh  1 4.100000e-01    3.070000e+00
 SN4aq SN1dh  1 4.100000e-01    3.070000e+00
 SN5aq SN1dh  1 4.100000e-01    3.070000e+00
 SN6aq SN1dh  1 4.100000e-01    3.070000e+00
 SP1aq SN1dh  1 4.100000e-01    3.070000e+00
 SP2aq SN1dh  1 4.100000e-01    3.070000e+00
 SP3aq SN1dh  1 4.100000e-01    2.600000e+00
 SP4aq SN1dh  1 4.100000e-01    2.350000e+00
 SP5aq SN1dh  1 4.100000e-01    2.200000e+00
 SP6aq SN1dh  1 4.100000e-01    2.200000e+00
 SP6dq SP6ah  1 4.100000e-01    5.130000e+00
 SP6ah SP5dq  1 4.100000e-01    4.840000e+00
 SP6ah SP4dq  1 4.100000e-01    4.550000e+00
 SP6ah SP3dq  1 4.100000e-01    4.290000e+00
 SP6ah SP2dq  1 4.100000e-01    4.290000e+00
 SP6ah SP1dq  1 4.100000e-01    4.040000e+00
 SP6ah SN6dq  1 4.100000e-01    3.820000e+00
 SP6ah SN5dq  1 4.100000e-01    3.310000e+00
 SP6ah SN4dq  1 4.100000e-01    3.070000e+00
 SP6ah SN3dq  1 4.100000e-01    2.600000e+00
 SP6ah SN2dq  1 4.100000e-01    2.350000e+00
 SP6ah SN1dq  1 4.100000e-01    2.200000e+00
 SP6ah SP6aq  1 4.100000e-01    4.550000e+00
 SP6ah SX1eq  1 4.100000e-01    1.910000e+00
 SP6ah SX2eq  1 4.100000e-01    2.040000e+00
 SP6ah SX3eq  1 4.100000e-01    2.200000e+00
 SP6ah SX4eq  1 4.100000e-01    2.200000e+00
 SP6ah SC1eq  1 4.210000e-01    1.250000e+00
 SP6ah SC2eq  1 4.140000e-01    1.560000e+00
 SP6ah SC3eq  1 4.140000e-01    1.560000e+00
 SP6ah SC4eq  1 4.100000e-01    1.750000e+00
 SP6ah SC5eq  1 4.100000e-01    1.910000e+00
 SP6ah SC6eq  1 4.100000e-01    2.040000e+00
 SP6ah SX1vq  1 4.100000e-01    2.200000e+00
 SP6ah SX2vq  1 4.100000e-01    2.350000e+00
 SP6ah SX3vq  1 4.100000e-01    2.600000e+00
 SP6ah SX4vq  1 4.100000e-01    2.600000e+00
 SP6ah SC1vq  1 4.140000e-01    1.560000e+00
 SP6ah SC2vq  1 4.100000e-01    1.910000e+00
 SP6ah SC3vq  1 4.100000e-01    1.910000e+00
 SP6ah SC4vq  1 4.100000e-01    2.040000e+00
 SP6ah SC5vq  1 4.100000e-01    2.200000e+00
 SP6ah SC6vq  1 4.100000e-01    2.350000e+00
 SP6ah SN1aq  1 4.100000e-01    2.200000e+00
 SP6ah SN2aq  1 4.100000e-01    2.350000e+00
 SP6ah SN3aq  1 4.100000e-01    2.600000e+00
 SP6ah SN4aq  1 4.100000e-01    2.600000e+00
 SP6ah SN5aq  1 4.100000e-01    2.840000e+00
 SP6ah SN6aq  1 4.100000e-01    3.310000e+00
 SP6ah SP1aq  1 4.100000e-01    3.550000e+00
 SP6ah SP2aq  1 4.100000e-01    3.820000e+00
 SP6ah SP3aq  1 4.100000e-01    3.820000e+00
 SP6ah SP4aq  1 4.100000e-01    4.040000e+00
 SP6ah SP5aq  1 4.100000e-01    4.290000e+00
 SP6dq SP5ah  1 4.100000e-01    4.840000e+00
 SP5dq SP5ah  1 4.100000e-01    4.550000e+00
 SP5ah SP4dq  1 4.100000e-01    4.290000e+00
 SP5ah SP3dq  1 4.100000e-01    4.040000e+00
 SP5ah SP2dq  1 4.100000e-01    4.040000e+00
 SP5ah SP1dq  1 4.100000e-01    3.820000e+00
 SP5ah SN6dq  1 4.100000e-01    3.550000e+00
 SP5ah SN5dq  1 4.100000e-01    3.310000e+00
 SP5ah SN4dq  1 4.100000e-01    3.310000e+00
 SP5ah SN3dq  1 4.100000e-01    2.600000e+00
 SP5ah SN2dq  1 4.100000e-01    2.350000e+00
 SP5ah SN1dq  1 4.100000e-01    2.200000e+00
 SP6aq SP5ah  1 4.100000e-01    4.290000e+00
 SP5ah SP5aq  1 4.100000e-01    4.040000e+00
 SP5ah SX1eq  1 4.100000e-01    1.910000e+00
 SP5ah SX2eq  1 4.100000e-01    2.200000e+00
 SP5ah SX3eq  1 4.100000e-01    2.200000e+00
 SP5ah SX4eq  1 4.100000e-01    2.350000e+00
 SP5ah SC1eq  1 4.140000e-01    1.560000e+00
 SP5ah SC2eq  1 4.100000e-01    1.750000e+00
 SP5ah SC3eq  1 4.100000e-01    1.750000e+00
 SP5ah SC4eq  1 4.100000e-01    1.910000e+00
 SP5ah SC5eq  1 4.100000e-01    2.040000e+00
 SP5ah SC6eq  1 4.100000e-01    2.040000e+00
 SP5ah SX1vq  1 4.100000e-01    2.200000e+00
 SP5ah SX2vq  1 4.100000e-01    2.600000e+00
 SP5ah SX3vq  1 4.100000e-01    2.600000e+00
 SP5ah SX4vq  1 4.100000e-01    2.840000e+00
 SP5ah SC1vq  1 4.100000e-01    1.910000e+00
 SP5ah SC2vq  1 4.100000e-01    2.040000e+00
 SP5ah SC3vq  1 4.100000e-01    2.040000e+00
 SP5ah SC4vq  1 4.100000e-01    2.200000e+00
 SP5ah SC5vq  1 4.100000e-01    2.350000e+00
 SP5ah SC6vq  1 4.100000e-01    2.350000e+00
 SP5ah SN1aq  1 4.100000e-01    2.200000e+00
 SP5ah SN2aq  1 4.100000e-01    2.350000e+00
 SP5ah SN3aq  1 4.100000e-01    2.600000e+00
 SP5ah SN4aq  1 4.100000e-01    2.840000e+00
 SP5ah SN5aq  1 4.100000e-01    2.840000e+00
 SP5ah SN6aq  1 4.100000e-01    3.070000e+00
 SP5ah SP1aq  1 4.100000e-01    3.310000e+00
 SP5ah SP2aq  1 4.100000e-01    3.550000e+00
 SP5ah SP3aq  1 4.100000e-01    3.550000e+00
 SP5ah SP4aq  1 4.100000e-01    3.820000e+00
 SP6dq SP4ah  1 4.100000e-01    4.550000e+00
 SP5dq SP4ah  1 4.100000e-01    4.290000e+00
 SP4dq SP4ah  1 4.100000e-01    4.290000e+00
 SP4ah SP3dq  1 4.100000e-01    4.040000e+00
 SP4ah SP2dq  1 4.100000e-01    4.040000e+00
 SP4ah SP1dq  1 4.100000e-01    3.820000e+00
 SP4ah SN6dq  1 4.100000e-01    3.550000e+00
 SP4ah SN5dq  1 4.100000e-01    3.310000e+00
 SP4ah SN4dq  1 4.100000e-01    3.310000e+00
 SP4ah SN3dq  1 4.100000e-01    3.070000e+00
 SP4ah SN2dq  1 4.100000e-01    2.600000e+00
 SP4ah SN1dq  1 4.100000e-01    2.350000e+00
 SP6aq SP4ah  1 4.100000e-01    4.040000e+00
 SP5aq SP4ah  1 4.100000e-01    3.820000e+00
 SP4ah SP4aq  1 4.100000e-01    3.820000e+00
 SP4ah SX1eq  1 4.100000e-01    2.040000e+00
 SP4ah SX2eq  1 4.100000e-01    2.200000e+00
 SP4ah SX3eq  1 4.100000e-01    2.200000e+00
 SP4ah SX4eq  1 4.100000e-01    2.350000e+00
 SP4ah SC1eq  1 4.140000e-01    1.560000e+00
 SP4ah SC2eq  1 4.100000e-01    1.750000e+00
 SP4ah SC3eq  1 4.100000e-01    1.750000e+00
 SP4ah SC4eq  1 4.100000e-01    1.910000e+00
 SP4ah SC5eq  1 4.100000e-01    2.040000e+00
 SP4ah SC6eq  1 4.100000e-01    2.200000e+00
 SP4ah SX1vq  1 4.100000e-01    2.350000e+00
 SP4ah SX2vq  1 4.100000e-01    2.600000e+00
 SP4ah SX3vq  1 4.100000e-01    2.600000e+00
 SP4ah SX4vq  1 4.100000e-01    2.840000e+00
 SP4ah SC1vq  1 4.100000e-01    1.910000e+00
 SP4ah SC2vq  1 4.100000e-01    2.040000e+00
 SP4ah SC3vq  1 4.100000e-01    2.040000e+00
 SP4ah SC4vq  1 4.100000e-01    2.200000e+00
 SP4ah SC5vq  1 4.100000e-01    2.350000e+00
 SP4ah SC6vq  1 4.100000e-01    2.600000e+00
 SP4ah SN1aq  1 4.100000e-01    2.350000e+00
 SP4ah SN2aq  1 4.100000e-01    2.600000e+00
 SP4ah SN3aq  1 4.100000e-01    2.600000e+00
 SP4ah SN4aq  1 4.100000e-01    2.840000e+00
 SP4ah SN5aq  1 4.100000e-01    2.840000e+00
 SP4ah SN6aq  1 4.100000e-01    3.070000e+00
 SP4ah SP1aq  1 4.100000e-01    3.310000e+00
 SP4ah SP2aq  1 4.100000e-01    3.550000e+00
 SP4ah SP3aq  1 4.100000e-01    3.550000e+00
 SP6dq SP3ah  1 4.100000e-01    4.290000e+00
 SP5dq SP3ah  1 4.100000e-01    4.040000e+00
 SP4dq SP3ah  1 4.100000e-01    4.040000e+00
 SP3dq SP3ah  1 4.100000e-01    4.040000e+00
 SP3ah SP2dq  1 4.100000e-01    4.040000e+00
 SP3ah SP1dq  1 4.100000e-01    3.820000e+00
 SP3ah SN6dq  1 4.100000e-01    3.550000e+00
 SP3ah SN5dq  1 4.100000e-01    3.310000e+00
 SP3ah SN4dq  1 4.100000e-01    3.310000e+00
 SP3ah SN3dq  1 4.100000e-01    3.070000e+00
 SP3ah SN2dq  1 4.100000e-01    3.070000e+00
 SP3ah SN1dq  1 4.100000e-01    2.600000e+00
 SP6aq SP3ah  1 4.100000e-01    3.820000e+00
 SP5aq SP3ah  1 4.100000e-01    3.550000e+00
 SP4aq SP3ah  1 4.100000e-01    3.550000e+00
 SP3ah SP3aq  1 4.100000e-01    3.550000e+00
 SP3ah SX1eq  1 4.100000e-01    2.040000e+00
 SP3ah SX2eq  1 4.100000e-01    2.200000e+00
 SP3ah SX3eq  1 4.100000e-01    2.350000e+00
 SP3ah SX4eq  1 4.100000e-01    2.350000e+00
 SP3ah SC1eq  1 4.140000e-01    1.560000e+00
 SP3ah SC2eq  1 4.100000e-01    1.750000e+00
 SP3ah SC3eq  1 4.100000e-01    1.750000e+00
 SP3ah SC4eq  1 4.100000e-01    2.040000e+00
 SP3ah SC5eq  1 4.100000e-01    2.200000e+00
 SP3ah SC6eq  1 4.100000e-01    2.350000e+00
 SP3ah SX1vq  1 4.100000e-01    2.350000e+00
 SP3ah SX2vq  1 4.100000e-01    2.600000e+00
 SP3ah SX3vq  1 4.100000e-01    2.840000e+00
 SP3ah SX4vq  1 4.100000e-01    2.840000e+00
 SP3ah SC1vq  1 4.100000e-01    1.910000e+00
 SP3ah SC2vq  1 4.100000e-01    2.040000e+00
 SP3ah SC3vq  1 4.100000e-01    2.040000e+00
 SP3ah SC4vq  1 4.100000e-01    2.350000e+00
 SP3ah SC5vq  1 4.100000e-01    2.600000e+00
 SP3ah SC6vq  1 4.100000e-01    2.840000e+00
 SP3ah SN1aq  1 4.100000e-01    2.600000e+00
 SP3ah SN2aq  1 4.100000e-01    2.600000e+00
 SP3ah SN3aq  1 4.100000e-01    2.600000e+00
 SP3ah SN4aq  1 4.100000e-01    2.840000e+00
 SP3ah SN5aq  1 4.100000e-01    2.840000e+00
 SP3ah SN6aq  1 4.100000e-01    3.070000e+00
 SP3ah SP1aq  1 4.100000e-01    3.310000e+00
 SP3ah SP2aq  1 4.100000e-01    3.550000e+00
 SP6dq SP2ah  1 4.100000e-01    4.290000e+00
 SP5dq SP2ah  1 4.100000e-01    4.040000e+00
 SP4dq SP2ah  1 4.100000e-01    4.040000e+00
 SP3dq SP2ah  1 4.100000e-01    4.040000e+00
 SP2dq SP2ah  1 4.100000e-01    4.040000e+00
 SP2ah SP1dq  1 4.100000e-01    3.820000e+00
 SP2ah SN6dq  1 4.100000e-01    3.820000e+00
 SP2ah SN5dq  1 4.100000e-01    3.550000e+00
 SP2ah SN4dq  1 4.100000e-01    3.310000e+00
 SP2ah SN3dq  1 4.100000e-01    3.070000e+00
 SP2ah SN2dq  1 4.100000e-01    3.070000e+00
 SP2ah SN1dq  1 4.100000e-01    3.070000e+00
 SP6aq SP2ah  1 4.100000e-01    3.820000e+00
 SP5aq SP2ah  1 4.100000e-01    3.550000e+00
 SP4aq SP2ah  1 4.100000e-01    3.550000e+00
 SP3aq SP2ah  1 4.100000e-01    3.550000e+00
 SP2ah SP2aq  1 4.100000e-01    3.550000e+00
 SP2ah SX1eq  1 4.100000e-01    2.040000e+00
 SP2ah SX2eq  1 4.100000e-01    2.200000e+00
 SP2ah SX3eq  1 4.100000e-01    2.350000e+00
 SP2ah SX4eq  1 4.100000e-01    2.350000e+00
 SP2ah SC1eq  1 4.100000e-01    1.750000e+00
 SP2ah SC2eq  1 4.100000e-01    1.910000e+00
 SP2ah SC3eq  1 4.100000e-01    1.910000e+00
 SP2ah SC4eq  1 4.100000e-01    2.040000e+00
 SP2ah SC5eq  1 4.100000e-01    2.200000e+00
 SP2ah SC6eq  1 4.100000e-01    2.350000e+00
 SP2ah SX1vq  1 4.100000e-01    2.350000e+00
 SP2ah SX2vq  1 4.100000e-01    2.600000e+00
 SP2ah SX3vq  1 4.100000e-01    2.840000e+00
 SP2ah SX4vq  1 4.100000e-01    2.840000e+00
 SP2ah SC1vq  1 4.100000e-01    2.040000e+00
 SP2ah SC2vq  1 4.100000e-01    2.200000e+00
 SP2ah SC3vq  1 4.100000e-01    2.200000e+00
 SP2ah SC4vq  1 4.100000e-01    2.350000e+00
 SP2ah SC5vq  1 4.100000e-01    2.600000e+00
 SP2ah SC6vq  1 4.100000e-01    2.840000e+00
 SP2ah SN1aq  1 4.100000e-01    2.600000e+00
 SP2ah SN2aq  1 4.100000e-01    2.600000e+00
 SP2ah SN3aq  1 4.100000e-01    2.600000e+00
 SP2ah SN4aq  1 4.100000e-01    2.840000e+00
 SP2ah SN5aq  1 4.100000e-01    3.070000e+00
 SP2ah SN6aq  1 4.100000e-01    3.310000e+00
 SP2ah SP1aq  1 4.100000e-01    3.310000e+00
 SP6dq SP1ah  1 4.100000e-01    4.040000e+00
 SP5dq SP1ah  1 4.100000e-01    3.820000e+00
 SP4dq SP1ah  1 4.100000e-01    3.820000e+00
 SP3dq SP1ah  1 4.100000e-01    3.820000e+00
 SP2dq SP1ah  1 4.100000e-01    3.820000e+00
 SP1dq SP1ah  1 4.100000e-01    3.820000e+00
 SP1ah SN6dq  1 4.100000e-01    3.820000e+00
 SP1ah SN5dq  1 4.100000e-01    3.550000e+00
 SP1ah SN4dq  1 4.100000e-01    3.550000e+00
 SP1ah SN3dq  1 4.100000e-01    3.070000e+00
 SP1ah SN2dq  1 4.100000e-01    3.070000e+00
 SP1ah SN1dq  1 4.100000e-01    3.070000e+00
 SP6aq SP1ah  1 4.100000e-01    3.550000e+00
 SP5aq SP1ah  1 4.100000e-01    3.310000e+00
 SP4aq SP1ah  1 4.100000e-01    3.310000e+00
 SP3aq SP1ah  1 4.100000e-01    3.310000e+00
 SP2aq SP1ah  1 4.100000e-01    3.310000e+00
 SP1ah SP1aq  1 4.100000e-01    3.310000e+00
 SP1ah SX1eq  1 4.100000e-01    2.040000e+00
 SP1ah SX2eq  1 4.100000e-01    2.200000e+00
 SP1ah SX3eq  1 4.100000e-01    2.350000e+00
 SP1ah SX4eq  1 4.100000e-01    2.350000e+00
 SP1ah SC1eq  1 4.100000e-01    1.750000e+00
 SP1ah SC2eq  1 4.100000e-01    1.910000e+00
 SP1ah SC3eq  1 4.100000e-01    1.910000e+00
 SP1ah SC4eq  1 4.100000e-01    2.040000e+00
 SP1ah SC5eq  1 4.100000e-01    2.200000e+00
 SP1ah SC6eq  1 4.100000e-01    2.350000e+00
 SP1ah SX1vq  1 4.100000e-01    2.350000e+00
 SP1ah SX2vq  1 4.100000e-01    2.600000e+00
 SP1ah SX3vq  1 4.100000e-01    2.840000e+00
 SP1ah SX4vq  1 4.100000e-01    2.840000e+00
 SP1ah SC1vq  1 4.100000e-01    2.040000e+00
 SP1ah SC2vq  1 4.100000e-01    2.200000e+00
 SP1ah SC3vq  1 4.100000e-01    2.200000e+00
 SP1ah SC4vq  1 4.100000e-01    2.350000e+00
 SP1ah SC5vq  1 4.100000e-01    2.600000e+00
 SP1ah SC6vq  1 4.100000e-01    2.840000e+00
 SP1ah SN1aq  1 4.100000e-01    2.600000e+00
 SP1ah SN2aq  1 4.100000e-01    2.600000e+00
 SP1ah SN3aq  1 4.100000e-01    2.600000e+00
 SP1ah SN4aq  1 4.100000e-01    3.070000e+00
 SP1ah SN5aq  1 4.100000e-01    3.070000e+00
 SP1ah SN6aq  1 4.100000e-01    3.310000e+00
 SP6dq SN6ah  1 4.100000e-01    3.820000e+00
 SP5dq SN6ah  1 4.100000e-01    3.550000e+00
 SP4dq SN6ah  1 4.100000e-01    3.550000e+00
 SP3dq SN6ah  1 4.100000e-01    3.550000e+00
 SP2dq SN6ah  1 4.100000e-01    3.820000e+00
 SP1dq SN6ah  1 4.100000e-01    3.820000e+00
 SN6dq SN6ah  1 4.100000e-01    3.820000e+00
 SN6ah SN5dq  1 4.100000e-01    3.820000e+00
 SN6ah SN4dq  1 4.100000e-01    3.820000e+00
 SN6ah SN3dq  1 4.100000e-01    3.310000e+00
 SN6ah SN2dq  1 4.100000e-01    3.070000e+00
 SN6ah SN1dq  1 4.100000e-01    3.070000e+00
 SP6aq SN6ah  1 4.100000e-01    3.310000e+00
 SP5aq SN6ah  1 4.100000e-01    3.070000e+00
 SP4aq SN6ah  1 4.100000e-01    3.070000e+00
 SP3aq SN6ah  1 4.100000e-01    3.070000e+00
 SP2aq SN6ah  1 4.100000e-01    3.310000e+00
 SP1aq SN6ah  1 4.100000e-01    3.310000e+00
 SN6ah SN6aq  1 4.100000e-01    3.310000e+00
 SN6ah SX1eq  1 4.100000e-01    2.040000e+00
 SN6ah SX2eq  1 4.100000e-01    2.200000e+00
 SN6ah SX3eq  1 4.100000e-01    2.350000e+00
 SN6ah SX4eq  1 4.100000e-01    2.600000e+00
 SN6ah SC1eq  1 4.100000e-01    1.910000e+00
 SN6ah SC2eq  1 4.100000e-01    2.040000e+00
 SN6ah SC3eq  1 4.100000e-01    2.040000e+00
 SN6ah SC4eq  1 4.100000e-01    2.200000e+00
 SN6ah SC5eq  1 4.100000e-01    2.350000e+00
 SN6ah SC6eq  1 4.100000e-01    2.600000e+00
 SN6ah SX1vq  1 4.100000e-01    2.350000e+00
 SN6ah SX2vq  1 4.100000e-01    2.600000e+00
 SN6ah SX3vq  1 4.100000e-01    2.840000e+00
 SN6ah SX4vq  1 4.100000e-01    3.070000e+00
 SN6ah SC1vq  1 4.100000e-01    2.200000e+00
 SN6ah SC2vq  1 4.100000e-01    2.350000e+00
 SN6ah SC3vq  1 4.100000e-01    2.350000e+00
 SN6ah SC4vq  1 4.100000e-01    2.600000e+00
 SN6ah SC5vq  1 4.100000e-01    2.840000e+00
 SN6ah SC6vq  1 4.100000e-01    3.070000e+00
 SN6ah SN1aq  1 4.100000e-01    2.600000e+00
 SN6ah SN2aq  1 4.100000e-01    2.600000e+00
 SN6ah SN3aq  1 4.100000e-01    2.840000e+00
 SN6ah SN4aq  1 4.100000e-01    3.310000e+00
 SN6ah SN5aq  1 4.100000e-01    3.310000e+00
 SP6dq SN5ah  1 4.100000e-01    3.310000e+00
 SP5dq SN5ah  1 4.100000e-01    3.310000e+00
 SP4dq SN5ah  1 4.100000e-01    3.310000e+00
 SP3dq SN5ah  1 4.100000e-01    3.310000e+00
 SP2dq SN5ah  1 4.100000e-01    3.550000e+00
 SP1dq SN5ah  1 4.100000e-01    3.550000e+00
 SN6dq SN5ah  1 4.100000e-01    3.820000e+00
 SN5dq SN5ah  1 4.100000e-01    3.550000e+00
 SN5ah SN4dq  1 4.100000e-01    3.550000e+00
 SN5ah SN3dq  1 4.100000e-01    3.310000e+00
 SN5ah SN2dq  1 4.100000e-01    3.310000e+00
 SN5ah SN1dq  1 4.100000e-01    3.070000e+00
 SP6aq SN5ah  1 4.100000e-01    2.840000e+00
 SP5aq SN5ah  1 4.100000e-01    2.840000e+00
 SP4aq SN5ah  1 4.100000e-01    2.840000e+00
 SP3aq SN5ah  1 4.100000e-01    2.840000e+00
 SP2aq SN5ah  1 4.100000e-01    3.070000e+00
 SP1aq SN5ah  1 4.100000e-01    3.070000e+00
 SN6aq SN5ah  1 4.100000e-01    3.310000e+00
 SN5ah SN5aq  1 4.100000e-01    3.070000e+00
 SN5ah SX1eq  1 4.100000e-01    2.200000e+00
 SN5ah SX2eq  1 4.100000e-01    2.350000e+00
 SN5ah SX3eq  1 4.100000e-01    2.600000e+00
 SN5ah SX4eq  1 4.100000e-01    2.840000e+00
 SN5ah SC1eq  1 4.100000e-01    1.910000e+00
 SN5ah SC2eq  1 4.100000e-01    2.040000e+00
 SN5ah SC3eq  1 4.100000e-01    2.200000e+00
 SN5ah SC4eq  1 4.100000e-01    2.200000e+00
 SN5ah SC5eq  1 4.100000e-01    2.350000e+00
 SN5ah SC6eq  1 4.100000e-01    2.600000e+00
 SN5ah SX1vq  1 4.100000e-01    2.600000e+00
 SN5ah SX2vq  1 4.100000e-01    2.840000e+00
 SN5ah SX3vq  1 4.100000e-01    3.070000e+00
 SN5ah SX4vq  1 4.100000e-01    3.310000e+00
 SN5ah SC1vq  1 4.100000e-01    2.200000e+00
 SN5ah SC2vq  1 4.100000e-01    2.350000e+00
 SN5ah SC3vq  1 4.100000e-01    2.600000e+00
 SN5ah SC4vq  1 4.100000e-01    2.600000e+00
 SN5ah SC5vq  1 4.100000e-01    2.840000e+00
 SN5ah SC6vq  1 4.100000e-01    3.070000e+00
 SN5ah SN1aq  1 4.100000e-01    2.600000e+00
 SN5ah SN2aq  1 4.100000e-01    2.840000e+00
 SN5ah SN3aq  1 4.100000e-01    2.840000e+00
 SN5ah SN4aq  1 4.100000e-01    3.070000e+00
 SP6dq SN4ah  1 4.100000e-01    3.070000e+00
 SP5dq SN4ah  1 4.100000e-01    3.310000e+00
 SP4dq SN4ah  1 4.100000e-01    3.310000e+00
 SP3dq SN4ah  1 4.100000e-01    3.310000e+00
 SP2dq SN4ah  1 4.100000e-01    3.310000e+00
 SP1dq SN4ah  1 4.100000e-01    3.550000e+00
 SN6dq SN4ah  1 4.100000e-01    3.820000e+00
 SN5dq SN4ah  1 4.100000e-01    3.550000e+00
 SN4dq SN4ah  1 4.100000e-01    3.550000e+00
 SN4ah SN3dq  1 4.100000e-01    3.310000e+00
 SN4ah SN2dq  1 4.100000e-01    3.310000e+00
 SN4ah SN1dq  1 4.100000e-01    3.070000e+00
 SP6aq SN4ah  1 4.100000e-01    2.600000e+00
 SP5aq SN4ah  1 4.100000e-01    2.840000e+00
 SP4aq SN4ah  1 4.100000e-01    2.840000e+00
 SP3aq SN4ah  1 4.100000e-01    2.840000e+00
 SP2aq SN4ah  1 4.100000e-01    2.840000e+00
 SP1aq SN4ah  1 4.100000e-01    3.070000e+00
 SN6aq SN4ah  1 4.100000e-01    3.310000e+00
 SN5aq SN4ah  1 4.100000e-01    3.070000e+00
 SN4ah SN4aq  1 4.100000e-01    3.070000e+00
 SN4ah SX1eq  1 4.100000e-01    2.200000e+00
 SN4ah SX2eq  1 4.100000e-01    2.350000e+00
 SN4ah SX3eq  1 4.100000e-01    2.840000e+00
 SN4ah SX4eq  1 4.100000e-01    3.070000e+00
 SN4ah SC1eq  1 4.100000e-01    1.910000e+00
 SN4ah SC2eq  1 4.100000e-01    2.040000e+00
 SN4ah SC3eq  1 4.100000e-01    2.200000e+00
 SN4ah SC4eq  1 4.100000e-01    2.350000e+00
 SN4ah SC5eq  1 4.100000e-01    2.350000e+00
 SN4ah SC6eq  1 4.100000e-01    2.600000e+00
 SN4ah SX1vq  1 4.100000e-01    2.600000e+00
 SN4ah SX2vq  1 4.100000e-01    2.840000e+00
 SN4ah SX3vq  1 4.100000e-01    3.310000e+00
 SN4ah SX4vq  1 4.100000e-01    3.550000e+00
 SN4ah SC1vq  1 4.100000e-01    2.200000e+00
 SN4ah SC2vq  1 4.100000e-01    2.350000e+00
 SN4ah SC3vq  1 4.100000e-01    2.600000e+00
 SN4ah SC4vq  1 4.100000e-01    2.840000e+00
 SN4ah SC5vq  1 4.100000e-01    2.840000e+00
 SN4ah SC6vq  1 4.100000e-01    3.070000e+00
 SN4ah SN1aq  1 4.100000e-01    2.600000e+00
 SN4ah SN2aq  1 4.100000e-01    2.840000e+00
 SN4ah SN3aq  1 4.100000e-01    2.840000e+00
 SP6dq SN3ah  1 4.100000e-01    2.600000e+00
 SP5dq SN3ah  1 4.100000e-01    2.600000e+00
 SP4dq SN3ah  1 4.100000e-01    3.070000e+00
 SP3dq SN3ah  1 4.100000e-01    3.070000e+00
 SP2dq SN3ah  1 4.100000e-01    3.070000e+00
 SP1dq SN3ah  1 4.100000e-01    3.070000e+00
 SN6dq SN3ah  1 4.100000e-01    3.310000e+00
 SN5dq SN3ah  1 4.100000e-01    3.310000e+00
 SN4dq SN3ah  1 4.100000e-01    3.310000e+00
 SN3dq SN3ah  1 4.100000e-01    3.310000e+00
 SN3ah SN2dq  1 4.100000e-01    3.310000e+00
 SN3ah SN1dq  1 4.100000e-01    3.070000e+00
 SP6aq SN3ah  1 4.100000e-01    2.600000e+00
 SP5aq SN3ah  1 4.100000e-01    2.600000e+00
 SP4aq SN3ah  1 4.100000e-01    2.600000e+00
 SP3aq SN3ah  1 4.100000e-01    2.600000e+00
 SP2aq SN3ah  1 4.100000e-01    2.600000e+00
 SP1aq SN3ah  1 4.100000e-01    2.600000e+00
 SN6aq SN3ah  1 4.100000e-01    2.840000e+00
 SN5aq SN3ah  1 4.100000e-01    2.840000e+00
 SN4aq SN3ah  1 4.100000e-01    2.840000e+00
 SN3ah SN3aq  1 4.100000e-01    2.840000e+00
 SN3ah SX1eq  1 4.100000e-01    2.350000e+00
 SN3ah SX2eq  1 4.100000e-01    2.350000e+00
 SN3ah SX3eq  1 4.100000e-01    2.600000e+00
 SN3ah SX4eq  1 4.100000e-01    2.840000e+00
 SN3ah SC1eq  1 4.100000e-01    2.040000e+00
 SN3ah SC2eq  1 4.100000e-01    2.200000e+00
 SN3ah SC3eq  1 4.100000e-01    2.200000e+00
 SN3ah SC4eq  1 4.100000e-01    2.350000e+00
 SN3ah SC5eq  1 4.100000e-01    2.350000e+00
 SN3ah SC6eq  1 4.100000e-01    2.600000e+00
 SN3ah SX1vq  1 4.100000e-01    2.840000e+00
 SN3ah SX2vq  1 4.100000e-01    2.840000e+00
 SN3ah SX3vq  1 4.100000e-01    3.070000e+00
 SN3ah SX4vq  1 4.100000e-01    3.310000e+00
 SN3ah SC1vq  1 4.100000e-01    2.350000e+00
 SN3ah SC2vq  1 4.100000e-01    2.600000e+00
 SN3ah SC3vq  1 4.100000e-01    2.600000e+00
 SN3ah SC4vq  1 4.100000e-01    2.840000e+00
 SN3ah SC5vq  1 4.100000e-01    2.840000e+00
 SN3ah SC6vq  1 4.100000e-01    3.070000e+00
 SN3ah SN1aq  1 4.100000e-01    2.600000e+00
 SN3ah SN2aq  1 4.100000e-01    2.840000e+00
 SP6dq SN2ah  1 4.100000e-01    2.350000e+00
 SP5dq SN2ah  1 4.100000e-01    2.350000e+00
 SP4dq SN2ah  1 4.100000e-01    2.600000e+00
 SP3dq SN2ah  1 4.100000e-01    3.070000e+00
 SP2dq SN2ah  1 4.100000e-01    3.070000e+00
 SP1dq SN2ah  1 4.100000e-01    3.070000e+00
 SN6dq SN2ah  1 4.100000e-01    3.070000e+00
 SN5dq SN2ah  1 4.100000e-01    3.310000e+00
 SN4dq SN2ah  1 4.100000e-01    3.310000e+00
 SN3dq SN2ah  1 4.100000e-01    3.310000e+00
 SN2dq SN2ah  1 4.100000e-01    3.310000e+00
 SN2ah SN1dq  1 4.100000e-01    3.070000e+00
 SP6aq SN2ah  1 4.100000e-01    2.350000e+00
 SP5aq SN2ah  1 4.100000e-01    2.350000e+00
 SP4aq SN2ah  1 4.100000e-01    2.600000e+00
 SP3aq SN2ah  1 4.100000e-01    2.600000e+00
 SP2aq SN2ah  1 4.100000e-01    2.600000e+00
 SP1aq SN2ah  1 4.100000e-01    2.600000e+00
 SN6aq SN2ah  1 4.100000e-01    2.600000e+00
 SN5aq SN2ah  1 4.100000e-01    2.840000e+00
 SN4aq SN2ah  1 4.100000e-01    2.840000e+00
 SN3aq SN2ah  1 4.100000e-01    2.840000e+00
 SN2ah SN2aq  1 4.100000e-01    2.840000e+00
 SN2ah SX1eq  1 4.100000e-01    2.350000e+00
 SN2ah SX2eq  1 4.100000e-01    2.350000e+00
 SN2ah SX3eq  1 4.100000e-01    2.600000e+00
 SN2ah SX4eq  1 4.100000e-01    2.840000e+00
 SN2ah SC1eq  1 4.100000e-01    2.040000e+00
 SN2ah SC2eq  1 4.100000e-01    2.200000e+00
 SN2ah SC3eq  1 4.100000e-01    2.350000e+00
 SN2ah SC4eq  1 4.100000e-01    2.350000e+00
 SN2ah SC5eq  1 4.100000e-01    2.350000e+00
 SN2ah SC6eq  1 4.100000e-01    2.600000e+00
 SN2ah SX1vq  1 4.100000e-01    2.840000e+00
 SN2ah SX2vq  1 4.100000e-01    2.840000e+00
 SN2ah SX3vq  1 4.100000e-01    3.070000e+00
 SN2ah SX4vq  1 4.100000e-01    3.310000e+00
 SN2ah SC1vq  1 4.100000e-01    2.350000e+00
 SN2ah SC2vq  1 4.100000e-01    2.600000e+00
 SN2ah SC3vq  1 4.100000e-01    2.840000e+00
 SN2ah SC4vq  1 4.100000e-01    2.840000e+00
 SN2ah SC5vq  1 4.100000e-01    2.840000e+00
 SN2ah SC6vq  1 4.100000e-01    3.070000e+00
 SN2ah SN1aq  1 4.100000e-01    2.600000e+00
 SP6dq SN1ah  1 4.100000e-01    2.200000e+00
 SP5dq SN1ah  1 4.100000e-01    2.200000e+00
 SP4dq SN1ah  1 4.100000e-01    2.350000e+00
 SP3dq SN1ah  1 4.100000e-01    2.600000e+00
 SP2dq SN1ah  1 4.100000e-01    3.070000e+00
 SP1dq SN1ah  1 4.100000e-01    3.070000e+00
 SN6dq SN1ah  1 4.100000e-01    3.070000e+00
 SN5dq SN1ah  1 4.100000e-01    3.070000e+00
 SN4dq SN1ah  1 4.100000e-01    3.070000e+00
 SN3dq SN1ah  1 4.100000e-01    3.070000e+00
 SN2dq SN1ah  1 4.100000e-01    3.070000e+00
 SN1dq SN1ah  1 4.100000e-01    3.310000e+00
 SP6aq SN1ah  1 4.100000e-01    2.200000e+00
 SP5aq SN1ah  1 4.100000e-01    2.200000e+00
 SP4aq SN1ah  1 4.100000e-01    2.350000e+00
 SP3aq SN1ah  1 4.100000e-01    2.600000e+00
 SP2aq SN1ah  1 4.100000e-01    2.600000e+00
 SP1aq SN1ah  1 4.100000e-01    2.600000e+00
 SN6aq SN1ah  1 4.100000e-01    2.600000e+00
 SN5aq SN1ah  1 4.100000e-01    2.600000e+00
 SN4aq SN1ah  1 4.100000e-01    2.600000e+00
 SN3aq SN1ah  1 4.100000e-01    2.600000e+00
 SN2aq SN1ah  1 4.100000e-01    2.600000e+00
 SN1ah SN1aq  1 4.100000e-01    2.840000e+00
 SN1ah SX1eq  1 4.100000e-01    2.350000e+00
 SN1ah SX2eq  1 4.100000e-01    2.350000e+00
 SN1ah SX3eq  1 4.100000e-01    2.600000e+00
 SN1ah SX4eq  1 4.100000e-01    2.600000e+00
 SN1ah SC1eq  1 4.100000e-01    2.040000e+00
 SN1ah SC2eq  1 4.100000e-01    2.200000e+00
 SN1ah SC3eq  1 4.100000e-01    2.350000e+00
 SN1ah SC4eq  1 4.100000e-01    2.600000e+00
 SN1ah SC5eq  1 4.100000e-01    2.600000e+00
 SN1ah SC6eq  1 4.100000e-01    2.840000e+00
 SN1ah SX1vq  1 4.100000e-01    2.840000e+00
 SN1ah SX2vq  1 4.100000e-01    2.840000e+00
 SN1ah SX3vq  1 4.100000e-01    3.070000e+00
 SN1ah SX4vq  1 4.100000e-01    3.070000e+00
 SN1ah SC1vq  1 4.100000e-01    2.350000e+00
 SN1ah SC2vq  1 4.100000e-01    2.600000e+00
 SN1ah SC3vq  1 4.100000e-01    2.840000e+00
 SN1ah SC4vq  1 4.100000e-01    3.070000e+00
 SN1ah SC5vq  1 4.100000e-01    3.070000e+00
 SN1ah SC6vq  1 4.100000e-01    3.310000e+00
 SP6dq SC6vh  1 4.100000e-01    2.040000e+00
 SP5dq SC6vh  1 4.100000e-01    2.040000e+00
 SP4dq SC6vh  1 4.100000e-01    2.200000e+00
 SP3dq SC6vh  1 4.100000e-01    2.350000e+00
 SP2dq SC6vh  1 4.100000e-01    2.350000e+00
 SP1dq SC6vh  1 4.100000e-01    2.350000e+00
 SN6dq SC6vh  1 4.100000e-01    2.600000e+00
 SN5dq SC6vh  1 4.100000e-01    2.600000e+00
 SN4dq SC6vh  1 4.100000e-01    2.600000e+00
 SN3dq SC6vh  1 4.100000e-01    2.600000e+00
 SN2dq SC6vh  1 4.100000e-01    2.600000e+00
 SN1dq SC6vh  1 4.100000e-01    2.840000e+00
 SP6aq SC6vh  1 4.100000e-01    2.350000e+00
 SP5aq SC6vh  1 4.100000e-01    2.350000e+00
 SP4aq SC6vh  1 4.100000e-01    2.600000e+00
 SP3aq SC6vh  1 4.100000e-01    2.840000e+00
 SP2aq SC6vh  1 4.100000e-01    2.840000e+00
 SP1aq SC6vh  1 4.100000e-01    2.840000e+00
 SN6aq SC6vh  1 4.100000e-01    3.070000e+00
 SN5aq SC6vh  1 4.100000e-01    3.070000e+00
 SN4aq SC6vh  1 4.100000e-01    3.070000e+00
 SN3aq SC6vh  1 4.100000e-01    3.070000e+00
 SN2aq SC6vh  1 4.100000e-01    3.070000e+00
 SN1aq SC6vh  1 4.100000e-01    3.310000e+00
 SC6vh SC6vq  1 4.100000e-01    2.840000e+00
 SC6vh SX1eq  1 4.100000e-01    3.310000e+00
 SC6vh SX2eq  1 4.100000e-01    3.310000e+00
 SC6vh SX3eq  1 4.100000e-01    3.310000e+00
 SC6vh SX4eq  1 4.100000e-01    3.310000e+00
 SC6vh SC1eq  1 4.100000e-01    2.600000e+00
 SC6vh SC2eq  1 4.100000e-01    2.840000e+00
 SC6vh SC3eq  1 4.100000e-01    3.070000e+00
 SC6vh SC4eq  1 4.100000e-01    3.310000e+00
 SC6vh SC5eq  1 4.100000e-01    3.310000e+00
 SC6vh SC6eq  1 4.100000e-01    3.550000e+00
 SC6vh SX1vq  1 4.100000e-01    2.600000e+00
 SC6vh SX2vq  1 4.100000e-01    2.600000e+00
 SC6vh SX3vq  1 4.100000e-01    2.600000e+00
 SC6vh SX4vq  1 4.100000e-01    2.600000e+00
 SC6vh SC1vq  1 4.100000e-01    2.040000e+00
 SC6vh SC2vq  1 4.100000e-01    2.200000e+00
 SC6vh SC3vq  1 4.100000e-01    2.350000e+00
 SC6vh SC4vq  1 4.100000e-01    2.600000e+00
 SC6vh SC5vq  1 4.100000e-01    2.600000e+00
 SP6dq SC5vh  1 4.100000e-01    1.910000e+00
 SP5dq SC5vh  1 4.100000e-01    2.040000e+00
 SP4dq SC5vh  1 4.100000e-01    2.040000e+00
 SP3dq SC5vh  1 4.100000e-01    2.200000e+00
 SP2dq SC5vh  1 4.100000e-01    2.200000e+00
 SP1dq SC5vh  1 4.100000e-01    2.200000e+00
 SN6dq SC5vh  1 4.100000e-01    2.350000e+00
 SN5dq SC5vh  1 4.100000e-01    2.350000e+00
 SN4dq SC5vh  1 4.100000e-01    2.350000e+00
 SN3dq SC5vh  1 4.100000e-01    2.350000e+00
 SN2dq SC5vh  1 4.100000e-01    2.350000e+00
 SN1dq SC5vh  1 4.100000e-01    2.600000e+00
 SP6aq SC5vh  1 4.100000e-01    2.200000e+00
 SP5aq SC5vh  1 4.100000e-01    2.350000e+00
 SP4aq SC5vh  1 4.100000e-01    2.350000e+00
 SP3aq SC5vh  1 4.100000e-01    2.600000e+00
 SP2aq SC5vh  1 4.100000e-01    2.600000e+00
 SP1aq SC5vh  1 4.100000e-01    2.600000e+00
 SN6aq SC5vh  1 4.100000e-01    2.840000e+00
 SN5aq SC5vh  1 4.100000e-01    2.840000e+00
 SN4aq SC5vh  1 4.100000e-01    2.840000e+00
 SN3aq SC5vh  1 4.100000e-01    2.840000e+00
 SN2aq SC5vh  1 4.100000e-01    2.840000e+00
 SN1aq SC5vh  1 4.100000e-01    3.070000e+00
 SC6vq SC5vh  1 4.100000e-01    2.600000e+00
 SC5vh SC5vq  1 4.100000e-01    2.600000e+00
 SC5vh SX1eq  1 4.100000e-01    3.310000e+00
 SC5vh SX2eq  1 4.100000e-01    3.070000e+00
 SC5vh SX3eq  1 4.100000e-01    3.070000e+00
 SC5vh SX4eq  1 4.100000e-01    3.070000e+00
 SC5vh SC1eq  1 4.100000e-01    2.840000e+00
 SC5vh SC2eq  1 4.100000e-01    2.840000e+00
 SC5vh SC3eq  1 4.100000e-01    3.070000e+00
 SC5vh SC4eq  1 4.100000e-01    3.310000e+00
 SC5vh SC5eq  1 4.100000e-01    3.310000e+00
 SC6eq SC5vh  1 4.100000e-01    3.310000e+00
 SC5vh SX1vq  1 4.100000e-01    2.600000e+00
 SC5vh SX2vq  1 4.100000e-01    2.350000e+00
 SC5vh SX3vq  1 4.100000e-01    2.350000e+00
 SC5vh SX4vq  1 4.100000e-01    2.350000e+00
 SC5vh SC1vq  1 4.100000e-01    2.200000e+00
 SC5vh SC2vq  1 4.100000e-01    2.200000e+00
 SC5vh SC3vq  1 4.100000e-01    2.350000e+00
 SC5vh SC4vq  1 4.100000e-01    2.600000e+00
 SP6dq SC4vh  1 4.100000e-01    1.750000e+00
 SP5dq SC4vh  1 4.100000e-01    1.910000e+00
 SP4dq SC4vh  1 4.100000e-01    1.910000e+00
 SP3dq SC4vh  1 4.100000e-01    2.040000e+00
 SP2dq SC4vh  1 4.100000e-01    2.040000e+00
 SP1dq SC4vh  1 4.100000e-01    2.040000e+00
 SN6dq SC4vh  1 4.100000e-01    2.200000e+00
 SN5dq SC4vh  1 4.100000e-01    2.200000e+00
 SN4dq SC4vh  1 4.100000e-01    2.350000e+00
 SN3dq SC4vh  1 4.100000e-01    2.350000e+00
 SN2dq SC4vh  1 4.100000e-01    2.350000e+00
 SN1dq SC4vh  1 4.100000e-01    2.600000e+00
 SP6aq SC4vh  1 4.100000e-01    2.040000e+00
 SP5aq SC4vh  1 4.100000e-01    2.200000e+00
 SP4aq SC4vh  1 4.100000e-01    2.200000e+00
 SP3aq SC4vh  1 4.100000e-01    2.350000e+00
 SP2aq SC4vh  1 4.100000e-01    2.350000e+00
 SP1aq SC4vh  1 4.100000e-01    2.350000e+00
 SN6aq SC4vh  1 4.100000e-01    2.600000e+00
 SN5aq SC4vh  1 4.100000e-01    2.600000e+00
 SN4aq SC4vh  1 4.100000e-01    2.840000e+00
 SN3aq SC4vh  1 4.100000e-01    2.840000e+00
 SN2aq SC4vh  1 4.100000e-01    2.840000e+00
 SN1aq SC4vh  1 4.100000e-01    3.070000e+00
 SC6vq SC4vh  1 4.100000e-01    2.600000e+00
 SC5vq SC4vh  1 4.100000e-01    2.600000e+00
 SC4vh SC4vq  1 4.100000e-01    2.600000e+00
 SC4vh SX1eq  1 4.100000e-01    3.310000e+00
 SC4vh SX2eq  1 4.100000e-01    3.070000e+00
 SC4vh SX3eq  1 4.100000e-01    3.070000e+00
 SC4vh SX4eq  1 4.100000e-01    3.070000e+00
 SC4vh SC1eq  1 4.100000e-01    2.840000e+00
 SC4vh SC2eq  1 4.100000e-01    3.070000e+00
 SC4vh SC3eq  1 4.100000e-01    3.310000e+00
 SC4vh SC4eq  1 4.100000e-01    3.310000e+00
 SC5eq SC4vh  1 4.100000e-01    3.310000e+00
 SC6eq SC4vh  1 4.100000e-01    3.310000e+00
 SC4vh SX1vq  1 4.100000e-01    2.600000e+00
 SC4vh SX2vq  1 4.100000e-01    2.350000e+00
 SC4vh SX3vq  1 4.100000e-01    2.350000e+00
 SC4vh SX4vq  1 4.100000e-01    2.350000e+00
 SC4vh SC1vq  1 4.100000e-01    2.200000e+00
 SC4vh SC2vq  1 4.100000e-01    2.350000e+00
 SC4vh SC3vq  1 4.100000e-01    2.600000e+00
 SP6dq SC3vh  1 4.140000e-01    1.560000e+00
 SP5dq SC3vh  1 4.100000e-01    1.750000e+00
 SP4dq SC3vh  1 4.100000e-01    1.750000e+00
 SP3dq SC3vh  1 4.100000e-01    1.750000e+00
 SP2dq SC3vh  1 4.100000e-01    1.910000e+00
 SP1dq SC3vh  1 4.100000e-01    1.910000e+00
 SN6dq SC3vh  1 4.100000e-01    2.040000e+00
 SN5dq SC3vh  1 4.100000e-01    2.200000e+00
 SN4dq SC3vh  1 4.100000e-01    2.200000e+00
 SN3dq SC3vh  1 4.100000e-01    2.200000e+00
 SN2dq SC3vh  1 4.100000e-01    2.350000e+00
 SN1dq SC3vh  1 4.100000e-01    2.350000e+00
 SP6aq SC3vh  1 4.100000e-01    1.910000e+00
 SP5aq SC3vh  1 4.100000e-01    2.040000e+00
 SP4aq SC3vh  1 4.100000e-01    2.040000e+00
 SP3aq SC3vh  1 4.100000e-01    2.040000e+00
 SP2aq SC3vh  1 4.100000e-01    2.200000e+00
 SP1aq SC3vh  1 4.100000e-01    2.200000e+00
 SN6aq SC3vh  1 4.100000e-01    2.350000e+00
 SN5aq SC3vh  1 4.100000e-01    2.600000e+00
 SN4aq SC3vh  1 4.100000e-01    2.600000e+00
 SN3aq SC3vh  1 4.100000e-01    2.600000e+00
 SN2aq SC3vh  1 4.100000e-01    2.840000e+00
 SN1aq SC3vh  1 4.100000e-01    2.840000e+00
 SC6vq SC3vh  1 4.100000e-01    2.350000e+00
 SC5vq SC3vh  1 4.100000e-01    2.350000e+00
 SC4vq SC3vh  1 4.100000e-01    2.600000e+00
 SC3vh SC3vq  1 4.100000e-01    2.600000e+00
 SC3vh SX1eq  1 4.100000e-01    3.310000e+00
 SC3vh SX2eq  1 4.100000e-01    3.070000e+00
 SC3vh SX3eq  1 4.100000e-01    3.070000e+00
 SC3vh SX4eq  1 4.100000e-01    3.070000e+00
 SC3vh SC1eq  1 4.100000e-01    3.310000e+00
 SC3vh SC2eq  1 4.100000e-01    3.310000e+00
 SC3vh SC3eq  1 4.100000e-01    3.310000e+00
 SC4eq SC3vh  1 4.100000e-01    3.310000e+00
 SC5eq SC3vh  1 4.100000e-01    3.070000e+00
 SC6eq SC3vh  1 4.100000e-01    3.070000e+00
 SC3vh SX1vq  1 4.100000e-01    2.600000e+00
 SC3vh SX2vq  1 4.100000e-01    2.350000e+00
 SC3vh SX3vq  1 4.100000e-01    2.350000e+00
 SC3vh SX4vq  1 4.100000e-01    2.350000e+00
 SC3vh SC1vq  1 4.100000e-01    2.600000e+00
 SC3vh SC2vq  1 4.100000e-01    2.600000e+00
 SP6dq SC2vh  1 4.140000e-01    1.560000e+00
 SP5dq SC2vh  1 4.100000e-01    1.750000e+00
 SP4dq SC2vh  1 4.100000e-01    1.750000e+00
 SP3dq SC2vh  1 4.100000e-01    1.750000e+00
 SP2dq SC2vh  1 4.100000e-01    1.910000e+00
 SP1dq SC2vh  1 4.100000e-01    1.910000e+00
 SN6dq SC2vh  1 4.100000e-01    2.040000e+00
 SN5dq SC2vh  1 4.100000e-01    2.040000e+00
 SN4dq SC2vh  1 4.100000e-01    2.040000e+00
 SN3dq SC2vh  1 4.100000e-01    2.200000e+00
 SN2dq SC2vh  1 4.100000e-01    2.200000e+00
 SN1dq SC2vh  1 4.100000e-01    2.200000e+00
 SP6aq SC2vh  1 4.100000e-01    1.910000e+00
 SP5aq SC2vh  1 4.100000e-01    2.040000e+00
 SP4aq SC2vh  1 4.100000e-01    2.040000e+00
 SP3aq SC2vh  1 4.100000e-01    2.040000e+00
 SP2aq SC2vh  1 4.100000e-01    2.200000e+00
 SP1aq SC2vh  1 4.100000e-01    2.200000e+00
 SN6aq SC2vh  1 4.100000e-01    2.350000e+00
 SN5aq SC2vh  1 4.100000e-01    2.350000e+00
 SN4aq SC2vh  1 4.100000e-01    2.350000e+00
 SN3aq SC2vh  1 4.100000e-01    2.600000e+00
 SN2aq SC2vh  1 4.100000e-01    2.600000e+00
 SN1aq SC2vh  1 4.100000e-01    2.600000e+00
 SC6vq SC2vh  1 4.100000e-01    2.200000e+00
 SC5vq SC2vh  1 4.100000e-01    2.200000e+00
 SC4vq SC2vh  1 4.100000e-01    2.350000e+00
 SC3vq SC2vh  1 4.100000e-01    2.600000e+00
 SC2vh SC2vq  1 4.100000e-01    2.600000e+00
 SC2vh SX1eq  1 4.100000e-01    3.070000e+00
 SC2vh SX2eq  1 4.100000e-01    3.070000e+00
 SC2vh SX3eq  1 4.100000e-01    3.070000e+00
 SC2vh SX4eq  1 4.100000e-01    2.600000e+00
 SC2vh SC1eq  1 4.100000e-01    3.550000e+00
 SC2vh SC2eq  1 4.100000e-01    3.310000e+00
 SC3eq SC2vh  1 4.100000e-01    3.310000e+00
 SC4eq SC2vh  1 4.100000e-01    3.070000e+00
 SC5eq SC2vh  1 4.100000e-01    2.840000e+00
 SC6eq SC2vh  1 4.100000e-01    2.840000e+00
 SC2vh SX1vq  1 4.100000e-01    2.350000e+00
 SC2vh SX2vq  1 4.100000e-01    2.350000e+00
 SC2vh SX3vq  1 4.100000e-01    2.350000e+00
 SC2vh SX4vq  1 4.100000e-01    2.040000e+00
 SC2vh SC1vq  1 4.100000e-01    2.840000e+00
 SP6dq SC1vh  1 4.210000e-01    1.250000e+00
 SP5dq SC1vh  1 4.140000e-01    1.560000e+00
 SP4dq SC1vh  1 4.140000e-01    1.560000e+00
 SP3dq SC1vh  1 4.140000e-01    1.560000e+00
 SP2dq SC1vh  1 4.100000e-01    1.750000e+00
 SP1dq SC1vh  1 4.100000e-01    1.750000e+00
 SN6dq SC1vh  1 4.100000e-01    1.910000e+00
 SN5dq SC1vh  1 4.100000e-01    1.910000e+00
 SN4dq SC1vh  1 4.100000e-01    1.910000e+00
 SN3dq SC1vh  1 4.100000e-01    2.040000e+00
 SN2dq SC1vh  1 4.100000e-01    2.040000e+00
 SN1dq SC1vh  1 4.100000e-01    2.040000e+00
 SP6aq SC1vh  1 4.140000e-01    1.560000e+00
 SP5aq SC1vh  1 4.100000e-01    1.910000e+00
 SP4aq SC1vh  1 4.100000e-01    1.910000e+00
 SP3aq SC1vh  1 4.100000e-01    1.910000e+00
 SP2aq SC1vh  1 4.100000e-01    2.040000e+00
 SP1aq SC1vh  1 4.100000e-01    2.040000e+00
 SN6aq SC1vh  1 4.100000e-01    2.200000e+00
 SN5aq SC1vh  1 4.100000e-01    2.200000e+00
 SN4aq SC1vh  1 4.100000e-01    2.200000e+00
 SN3aq SC1vh  1 4.100000e-01    2.350000e+00
 SN2aq SC1vh  1 4.100000e-01    2.350000e+00
 SN1aq SC1vh  1 4.100000e-01    2.350000e+00
 SC6vq SC1vh  1 4.100000e-01    2.040000e+00
 SC5vq SC1vh  1 4.100000e-01    2.200000e+00
 SC4vq SC1vh  1 4.100000e-01    2.200000e+00
 SC3vq SC1vh  1 4.100000e-01    2.600000e+00
 SC2vq SC1vh  1 4.100000e-01    2.840000e+00
 SC1vh SC1vq  1 4.100000e-01    2.600000e+00
 SC1vh SX1eq  1 4.100000e-01    3.070000e+00
 SC1vh SX2eq  1 4.100000e-01    3.070000e+00
 SC1vh SX3eq  1 4.100000e-01    3.070000e+00
 SC1vh SX4eq  1 4.100000e-01    2.600000e+00
 SC1vh SC1eq  1 4.100000e-01    3.310000e+00
 SC2eq SC1vh  1 4.100000e-01    3.550000e+00
 SC3eq SC1vh  1 4.100000e-01    3.310000e+00
 SC4eq SC1vh  1 4.100000e-01    2.840000e+00
 SC5eq SC1vh  1 4.100000e-01    2.840000e+00
 SC6eq SC1vh  1 4.100000e-01    2.600000e+00
 SC1vh SX1vq  1 4.100000e-01    2.350000e+00
 SC1vh SX2vq  1 4.100000e-01    2.350000e+00
 SC1vh SX3vq  1 4.100000e-01    2.350000e+00
 SC1vh SX4vq  1 4.100000e-01    2.040000e+00
 SP6dq SX4vh  1 4.100000e-01    2.200000e+00
 SP5dq SX4vh  1 4.100000e-01    2.350000e+00
 SP4dq SX4vh  1 4.100000e-01    2.350000e+00
 SP3dq SX4vh  1 4.100000e-01    2.350000e+00
 SP2dq SX4vh  1 4.100000e-01    2.350000e+00
 SP1dq SX4vh  1 4.100000e-01    2.350000e+00
 SN6dq SX4vh  1 4.100000e-01    2.600000e+00
 SN5dq SX4vh  1 4.100000e-01    2.840000e+00
 SN4dq SX4vh  1 4.100000e-01    3.070000e+00
 SN3dq SX4vh  1 4.100000e-01    2.840000e+00
 SN2dq SX4vh  1 4.100000e-01    2.840000e+00
 SN1dq SX4vh  1 4.100000e-01    2.600000e+00
 SP6aq SX4vh  1 4.100000e-01    2.600000e+00
 SP5aq SX4vh  1 4.100000e-01    2.840000e+00
 SP4aq SX4vh  1 4.100000e-01    2.840000e+00
 SP3aq SX4vh  1 4.100000e-01    2.840000e+00
 SP2aq SX4vh  1 4.100000e-01    2.840000e+00
 SP1aq SX4vh  1 4.100000e-01    2.840000e+00
 SN6aq SX4vh  1 4.100000e-01    3.070000e+00
 SN5aq SX4vh  1 4.100000e-01    3.310000e+00
 SN4aq SX4vh  1 4.100000e-01    3.550000e+00
 SN3aq SX4vh  1 4.100000e-01    3.310000e+00
 SN2aq SX4vh  1 4.100000e-01    3.310000e+00
 SN1aq SX4vh  1 4.100000e-01    3.070000e+00
 SC6vq SX4vh  1 4.100000e-01    2.600000e+00
 SC5vq SX4vh  1 4.100000e-01    2.350000e+00
 SC4vq SX4vh  1 4.100000e-01    2.350000e+00
 SC3vq SX4vh  1 4.100000e-01    2.350000e+00
 SC2vq SX4vh  1 4.100000e-01    2.040000e+00
 SC1vq SX4vh  1 4.100000e-01    2.040000e+00
 SX4vh SX4vq  1 4.100000e-01    2.600000e+00
 SX4vh SX1eq  1 4.100000e-01    3.310000e+00
 SX4vh SX2eq  1 4.100000e-01    3.310000e+00
 SX4vh SX3eq  1 4.100000e-01    3.310000e+00
 SX4vh SX4eq  1 4.100000e-01    3.310000e+00
 SC1eq SX4vh  1 4.100000e-01    2.600000e+00
 SC2eq SX4vh  1 4.100000e-01    2.600000e+00
 SC3eq SX4vh  1 4.100000e-01    3.070000e+00
 SC4eq SX4vh  1 4.100000e-01    3.070000e+00
 SC5eq SX4vh  1 4.100000e-01    3.070000e+00
 SC6eq SX4vh  1 4.100000e-01    3.310000e+00
 SX4vh SX1vq  1 4.100000e-01    2.600000e+00
 SX4vh SX2vq  1 4.100000e-01    2.600000e+00
 SX4vh SX3vq  1 4.100000e-01    2.600000e+00
 SP6dq SX3vh  1 4.100000e-01    2.200000e+00
 SP5dq SX3vh  1 4.100000e-01    2.200000e+00
 SP4dq SX3vh  1 4.100000e-01    2.200000e+00
 SP3dq SX3vh  1 4.100000e-01    2.350000e+00
 SP2dq SX3vh  1 4.100000e-01    2.350000e+00
 SP1dq SX3vh  1 4.100000e-01    2.350000e+00
 SN6dq SX3vh  1 4.100000e-01    2.350000e+00
 SN5dq SX3vh  1 4.100000e-01    2.600000e+00
 SN4dq SX3vh  1 4.100000e-01    2.840000e+00
 SN3dq SX3vh  1 4.100000e-01    2.600000e+00
 SN2dq SX3vh  1 4.100000e-01    2.600000e+00
 SN1dq SX3vh  1 4.100000e-01    2.600000e+00
 SP6aq SX3vh  1 4.100000e-01    2.600000e+00
 SP5aq SX3vh  1 4.100000e-01    2.600000e+00
 SP4aq SX3vh  1 4.100000e-01    2.600000e+00
 SP3aq SX3vh  1 4.100000e-01    2.840000e+00
 SP2aq SX3vh  1 4.100000e-01    2.840000e+00
 SP1aq SX3vh  1 4.100000e-01    2.840000e+00
 SN6aq SX3vh  1 4.100000e-01    2.840000e+00
 SN5aq SX3vh  1 4.100000e-01    3.070000e+00
 SN4aq SX3vh  1 4.100000e-01    3.310000e+00
 SN3aq SX3vh  1 4.100000e-01    3.070000e+00
 SN2aq SX3vh  1 4.100000e-01    3.070000e+00
 SN1aq SX3vh  1 4.100000e-01    3.070000e+00
 SC6vq SX3vh  1 4.100000e-01    2.600000e+00
 SC5vq SX3vh  1 4.100000e-01    2.350000e+00
 SC4vq SX3vh  1 4.100000e-01    2.350000e+00
 SC3vq SX3vh  1 4.100000e-01    2.350000e+00
 SC2vq SX3vh  1 4.100000e-01    2.350000e+00
 SC1vq SX3vh  1 4.100000e-01    2.350000e+00
 SX4vq SX3vh  1 4.100000e-01    2.600000e+00
 SX3vh SX3vq  1 4.100000e-01    2.600000e+00
 SX3vh SX1eq  1 4.100000e-01    3.550000e+00
 SX3vh SX2eq  1 4.100000e-01    3.550000e+00
 SX3vh SX3eq  1 4.100000e-01    3.310000e+00
 SX4eq SX3vh  1 4.100000e-01    3.310000e+00
 SC1eq SX3vh  1 4.100000e-01    3.070000e+00
 SC2eq SX3vh  1 4.100000e-01    3.070000e+00
 SC3eq SX3vh  1 4.100000e-01    3.070000e+00
 SC4eq SX3vh  1 4.100000e-01    3.070000e+00
 SC5eq SX3vh  1 4.100000e-01    3.070000e+00
 SC6eq SX3vh  1 4.100000e-01    3.310000e+00
 SX3vh SX1vq  1 4.100000e-01    2.840000e+00
 SX3vh SX2vq  1 4.100000e-01    2.840000e+00
 SP6dq SX2vh  1 4.100000e-01    2.040000e+00
 SP5dq SX2vh  1 4.100000e-01    2.200000e+00
 SP4dq SX2vh  1 4.100000e-01    2.200000e+00
 SP3dq SX2vh  1 4.100000e-01    2.200000e+00
 SP2dq SX2vh  1 4.100000e-01    2.200000e+00
 SP1dq SX2vh  1 4.100000e-01    2.200000e+00
 SN6dq SX2vh  1 4.100000e-01    2.200000e+00
 SN5dq SX2vh  1 4.100000e-01    2.350000e+00
 SN4dq SX2vh  1 4.100000e-01    2.350000e+00
 SN3dq SX2vh  1 4.100000e-01    2.350000e+00
 SN2dq SX2vh  1 4.100000e-01    2.350000e+00
 SN1dq SX2vh  1 4.100000e-01    2.350000e+00
 SP6aq SX2vh  1 4.100000e-01    2.350000e+00
 SP5aq SX2vh  1 4.100000e-01    2.600000e+00
 SP4aq SX2vh  1 4.100000e-01    2.600000e+00
 SP3aq SX2vh  1 4.100000e-01    2.600000e+00
 SP2aq SX2vh  1 4.100000e-01    2.600000e+00
 SP1aq SX2vh  1 4.100000e-01    2.600000e+00
 SN6aq SX2vh  1 4.100000e-01    2.600000e+00
 SN5aq SX2vh  1 4.100000e-01    2.840000e+00
 SN4aq SX2vh  1 4.100000e-01    2.840000e+00
 SN3aq SX2vh  1 4.100000e-01    2.840000e+00
 SN2aq SX2vh  1 4.100000e-01    2.840000e+00
 SN1aq SX2vh  1 4.100000e-01    2.840000e+00
 SC6vq SX2vh  1 4.100000e-01    2.600000e+00
 SC5vq SX2vh  1 4.100000e-01    2.350000e+00
 SC4vq SX2vh  1 4.100000e-01    2.350000e+00
 SC3vq SX2vh  1 4.100000e-01    2.350000e+00
 SC2vq SX2vh  1 4.100000e-01    2.350000e+00
 SC1vq SX2vh  1 4.100000e-01    2.350000e+00
 SX4vq SX2vh  1 4.100000e-01    2.600000e+00
 SX3vq SX2vh  1 4.100000e-01    2.840000e+00
 SX2vh SX2vq  1 4.100000e-01    2.840000e+00
 SX2vh SX1eq  1 4.100000e-01    3.550000e+00
 SX2vh SX2eq  1 4.100000e-01    3.550000e+00
 SX3eq SX2vh  1 4.100000e-01    3.550000e+00
 SX4eq SX2vh  1 4.100000e-01    3.310000e+00
 SC1eq SX2vh  1 4.100000e-01    3.070000e+00
 SC2eq SX2vh  1 4.100000e-01    3.070000e+00
 SC3eq SX2vh  1 4.100000e-01    3.070000e+00
 SC4eq SX2vh  1 4.100000e-01    3.070000e+00
 SC5eq SX2vh  1 4.100000e-01    3.070000e+00
 SC6eq SX2vh  1 4.100000e-01    3.310000e+00
 SX2vh SX1vq  1 4.100000e-01    2.840000e+00
 SP6dq SX1vh  1 4.100000e-01    1.910000e+00
 SP5dq SX1vh  1 4.100000e-01    1.910000e+00
 SP4dq SX1vh  1 4.100000e-01    2.040000e+00
 SP3dq SX1vh  1 4.100000e-01    2.040000e+00
 SP2dq SX1vh  1 4.100000e-01    2.040000e+00
 SP1dq SX1vh  1 4.100000e-01    2.040000e+00
 SN6dq SX1vh  1 4.100000e-01    2.040000e+00
 SN5dq SX1vh  1 4.100000e-01    2.200000e+00
 SN4dq SX1vh  1 4.100000e-01    2.200000e+00
 SN3dq SX1vh  1 4.100000e-01    2.350000e+00
 SN2dq SX1vh  1 4.100000e-01    2.350000e+00
 SN1dq SX1vh  1 4.100000e-01    2.350000e+00
 SP6aq SX1vh  1 4.100000e-01    2.200000e+00
 SP5aq SX1vh  1 4.100000e-01    2.200000e+00
 SP4aq SX1vh  1 4.100000e-01    2.350000e+00
 SP3aq SX1vh  1 4.100000e-01    2.350000e+00
 SP2aq SX1vh  1 4.100000e-01    2.350000e+00
 SP1aq SX1vh  1 4.100000e-01    2.350000e+00
 SN6aq SX1vh  1 4.100000e-01    2.350000e+00
 SN5aq SX1vh  1 4.100000e-01    2.600000e+00
 SN4aq SX1vh  1 4.100000e-01    2.600000e+00
 SN3aq SX1vh  1 4.100000e-01    2.840000e+00
 SN2aq SX1vh  1 4.100000e-01    2.840000e+00
 SN1aq SX1vh  1 4.100000e-01    2.840000e+00
 SC6vq SX1vh  1 4.100000e-01    2.600000e+00
 SC5vq SX1vh  1 4.100000e-01    2.600000e+00
 SC4vq SX1vh  1 4.100000e-01    2.600000e+00
 SC3vq SX1vh  1 4.100000e-01    2.600000e+00
 SC2vq SX1vh  1 4.100000e-01    2.350000e+00
 SC1vq SX1vh  1 4.100000e-01    2.350000e+00
 SX4vq SX1vh  1 4.100000e-01    2.600000e+00
 SX3vq SX1vh  1 4.100000e-01    2.840000e+00
 SX2vq SX1vh  1 4.100000e-01    2.840000e+00
 SX1vh SX1vq  1 4.100000e-01    3.070000e+00
 SX1vh SX1eq  1 4.100000e-01    3.820000e+00
 SX2eq SX1vh  1 4.100000e-01    3.550000e+00
 SX3eq SX1vh  1 4.100000e-01    3.550000e+00
 SX4eq SX1vh  1 4.100000e-01    3.310000e+00
 SC1eq SX1vh  1 4.100000e-01    3.070000e+00
 SC2eq SX1vh  1 4.100000e-01    3.070000e+00
 SC3eq SX1vh  1 4.100000e-01    3.310000e+00
 SC4eq SX1vh  1 4.100000e-01    3.310000e+00
 SC5eq SX1vh  1 4.100000e-01    3.310000e+00
 SC6eq SX1vh  1 4.100000e-01    3.310000e+00
 SP6dq SC6eh  1 4.100000e-01    2.350000e+00
 SP5dq SC6eh  1 4.100000e-01    2.350000e+00
 SP4dq SC6eh  1 4.100000e-01    2.600000e+00
 SP3dq SC6eh  1 4.100000e-01    2.840000e+00
 SP2dq SC6eh  1 4.100000e-01    2.840000e+00
 SP1dq SC6eh  1 4.100000e-01    2.840000e+00
 SN6dq SC6eh  1 4.100000e-01    3.070000e+00
 SN5dq SC6eh  1 4.100000e-01    3.070000e+00
 SN4dq SC6eh  1 4.100000e-01    3.070000e+00
 SN3dq SC6eh  1 4.100000e-01    3.070000e+00
 SN2dq SC6eh  1 4.100000e-01    3.070000e+00
 SN1dq SC6eh  1 4.100000e-01    3.310000e+00
 SP6aq SC6eh  1 4.100000e-01    2.040000e+00
 SP5aq SC6eh  1 4.100000e-01    2.040000e+00
 SP4aq SC6eh  1 4.100000e-01    2.200000e+00
 SP3aq SC6eh  1 4.100000e-01    2.350000e+00
 SP2aq SC6eh  1 4.100000e-01    2.350000e+00
 SP1aq SC6eh  1 4.100000e-01    2.350000e+00
 SN6aq SC6eh  1 4.100000e-01    2.600000e+00
 SN5aq SC6eh  1 4.100000e-01    2.600000e+00
 SN4aq SC6eh  1 4.100000e-01    2.600000e+00
 SN3aq SC6eh  1 4.100000e-01    2.600000e+00
 SN2aq SC6eh  1 4.100000e-01    2.600000e+00
 SN1aq SC6eh  1 4.100000e-01    2.840000e+00
 SC6vq SC6eh  1 4.100000e-01    3.550000e+00
 SC6eh SC5vq  1 4.100000e-01    3.310000e+00
 SC6eh SC4vq  1 4.100000e-01    3.310000e+00
 SC6eh SC3vq  1 4.100000e-01    3.070000e+00
 SC6eh SC2vq  1 4.100000e-01    2.840000e+00
 SC6eh SC1vq  1 4.100000e-01    2.600000e+00
 SC6eh SX4vq  1 4.100000e-01    3.310000e+00
 SC6eh SX3vq  1 4.100000e-01    3.310000e+00
 SC6eh SX2vq  1 4.100000e-01    3.310000e+00
 SC6eh SX1vq  1 4.100000e-01    3.310000e+00
 SC6eh SC6eq  1 4.100000e-01    2.840000e+00
 SC6eh SX1eq  1 4.100000e-01    2.600000e+00
 SC6eh SX2eq  1 4.100000e-01    2.600000e+00
 SC6eh SX3eq  1 4.100000e-01    2.600000e+00
 SC6eh SX4eq  1 4.100000e-01    2.600000e+00
 SC6eh SC1eq  1 4.100000e-01    2.040000e+00
 SC6eh SC2eq  1 4.100000e-01    2.200000e+00
 SC6eh SC3eq  1 4.100000e-01    2.350000e+00
 SC6eh SC4eq  1 4.100000e-01    2.600000e+00
 SC6eh SC5eq  1 4.100000e-01    2.600000e+00
 SP6dq SC5eh  1 4.100000e-01    2.200000e+00
 SP5dq SC5eh  1 4.100000e-01    2.350000e+00
 SP4dq SC5eh  1 4.100000e-01    2.350000e+00
 SP3dq SC5eh  1 4.100000e-01    2.600000e+00
 SP2dq SC5eh  1 4.100000e-01    2.600000e+00
 SP1dq SC5eh  1 4.100000e-01    2.600000e+00
 SN6dq SC5eh  1 4.100000e-01    2.840000e+00
 SN5dq SC5eh  1 4.100000e-01    2.840000e+00
 SN4dq SC5eh  1 4.100000e-01    2.840000e+00
 SN3dq SC5eh  1 4.100000e-01    2.840000e+00
 SN2dq SC5eh  1 4.100000e-01    2.840000e+00
 SN1dq SC5eh  1 4.100000e-01    3.070000e+00
 SP6aq SC5eh  1 4.100000e-01    1.910000e+00
 SP5aq SC5eh  1 4.100000e-01    2.040000e+00
 SP4aq SC5eh  1 4.100000e-01    2.040000e+00
 SP3aq SC5eh  1 4.100000e-01    2.200000e+00
 SP2aq SC5eh  1 4.100000e-01    2.200000e+00
 SP1aq SC5eh  1 4.100000e-01    2.200000e+00
 SN6aq SC5eh  1 4.100000e-01    2.350000e+00
 SN5aq SC5eh  1 4.100000e-01    2.350000e+00
 SN4aq SC5eh  1 4.100000e-01    2.350000e+00
 SN3aq SC5eh  1 4.100000e-01    2.350000e+00
 SN2aq SC5eh  1 4.100000e-01    2.350000e+00
 SN1aq SC5eh  1 4.100000e-01    2.600000e+00
 SC6vq SC5eh  1 4.100000e-01    3.310000e+00
 SC5vq SC5eh  1 4.100000e-01    3.310000e+00
 SC5eh SC4vq  1 4.100000e-01    3.310000e+00
 SC5eh SC3vq  1 4.100000e-01    3.070000e+00
 SC5eh SC2vq  1 4.100000e-01    2.840000e+00
 SC5eh SC1vq  1 4.100000e-01    2.840000e+00
 SC5eh SX4vq  1 4.100000e-01    3.070000e+00
 SC5eh SX3vq  1 4.100000e-01    3.070000e+00
 SC5eh SX2vq  1 4.100000e-01    3.070000e+00
 SC5eh SX1vq  1 4.100000e-01    3.310000e+00
 SC6eq SC5eh  1 4.100000e-01    2.600000e+00
 SC5eh SC5eq  1 4.100000e-01    2.600000e+00
 SC5eh SX1eq  1 4.100000e-01    2.600000e+00
 SC5eh SX2eq  1 4.100000e-01    2.350000e+00
 SC5eh SX3eq  1 4.100000e-01    2.350000e+00
 SC5eh SX4eq  1 4.100000e-01    2.350000e+00
 SC5eh SC1eq  1 4.100000e-01    2.200000e+00
 SC5eh SC2eq  1 4.100000e-01    2.200000e+00
 SC5eh SC3eq  1 4.100000e-01    2.350000e+00
 SC5eh SC4eq  1 4.100000e-01    2.600000e+00
 SP6dq SC4eh  1 4.100000e-01    2.040000e+00
 SP5dq SC4eh  1 4.100000e-01    2.200000e+00
 SP4dq SC4eh  1 4.100000e-01    2.200000e+00
 SP3dq SC4eh  1 4.100000e-01    2.350000e+00
 SP2dq SC4eh  1 4.100000e-01    2.350000e+00
 SP1dq SC4eh  1 4.100000e-01    2.350000e+00
 SN6dq SC4eh  1 4.100000e-01    2.600000e+00
 SN5dq SC4eh  1 4.100000e-01    2.600000e+00
 SN4dq SC4eh  1 4.100000e-01    2.840000e+00
 SN3dq SC4eh  1 4.100000e-01    2.840000e+00
 SN2dq SC4eh  1 4.100000e-01    2.840000e+00
 SN1dq SC4eh  1 4.100000e-01    3.070000e+00
 SP6aq SC4eh  1 4.100000e-01    1.750000e+00
 SP5aq SC4eh  1 4.100000e-01    1.910000e+00
 SP4aq SC4eh  1 4.100000e-01    1.910000e+00
 SP3aq SC4eh  1 4.100000e-01    2.040000e+00
 SP2aq SC4eh  1 4.100000e-01    2.040000e+00
 SP1aq SC4eh  1 4.100000e-01    2.040000e+00
 SN6aq SC4eh  1 4.100000e-01    2.200000e+00
 SN5aq SC4eh  1 4.100000e-01    2.200000e+00
 SN4aq SC4eh  1 4.100000e-01    2.350000e+00
 SN3aq SC4eh  1 4.100000e-01    2.350000e+00
 SN2aq SC4eh  1 4.100000e-01    2.350000e+00
 SN1aq SC4eh  1 4.100000e-01    2.600000e+00
 SC6vq SC4eh  1 4.100000e-01    3.310000e+00
 SC5vq SC4eh  1 4.100000e-01    3.310000e+00
 SC4vq SC4eh  1 4.100000e-01    3.310000e+00
 SC4eh SC3vq  1 4.100000e-01    3.310000e+00
 SC4eh SC2vq  1 4.100000e-01    3.070000e+00
 SC4eh SC1vq  1 4.100000e-01    2.840000e+00
 SC4eh SX4vq  1 4.100000e-01    3.070000e+00
 SC4eh SX3vq  1 4.100000e-01    3.070000e+00
 SC4eh SX2vq  1 4.100000e-01    3.070000e+00
 SC4eh SX1vq  1 4.100000e-01    3.310000e+00
 SC6eq SC4eh  1 4.100000e-01    2.600000e+00
 SC5eq SC4eh  1 4.100000e-01    2.600000e+00
 SC4eh SC4eq  1 4.100000e-01    2.600000e+00
 SC4eh SX1eq  1 4.100000e-01    2.600000e+00
 SC4eh SX2eq  1 4.100000e-01    2.350000e+00
 SC4eh SX3eq  1 4.100000e-01    2.350000e+00
 SC4eh SX4eq  1 4.100000e-01    2.350000e+00
 SC4eh SC1eq  1 4.100000e-01    2.200000e+00
 SC4eh SC2eq  1 4.100000e-01    2.350000e+00
 SC4eh SC3eq  1 4.100000e-01    2.600000e+00
 SP6dq SC3eh  1 4.100000e-01    1.910000e+00
 SP5dq SC3eh  1 4.100000e-01    2.040000e+00
 SP4dq SC3eh  1 4.100000e-01    2.040000e+00
 SP3dq SC3eh  1 4.100000e-01    2.040000e+00
 SP2dq SC3eh  1 4.100000e-01    2.200000e+00
 SP1dq SC3eh  1 4.100000e-01    2.200000e+00
 SN6dq SC3eh  1 4.100000e-01    2.350000e+00
 SN5dq SC3eh  1 4.100000e-01    2.600000e+00
 SN4dq SC3eh  1 4.100000e-01    2.600000e+00
 SN3dq SC3eh  1 4.100000e-01    2.600000e+00
 SN2dq SC3eh  1 4.100000e-01    2.840000e+00
 SN1dq SC3eh  1 4.100000e-01    2.840000e+00
 SP6aq SC3eh  1 4.140000e-01    1.560000e+00
 SP5aq SC3eh  1 4.100000e-01    1.750000e+00
 SP4aq SC3eh  1 4.100000e-01    1.750000e+00
 SP3aq SC3eh  1 4.100000e-01    1.750000e+00
 SP2aq SC3eh  1 4.100000e-01    1.910000e+00
 SP1aq SC3eh  1 4.100000e-01    1.910000e+00
 SN6aq SC3eh  1 4.100000e-01    2.040000e+00
 SN5aq SC3eh  1 4.100000e-01    2.200000e+00
 SN4aq SC3eh  1 4.100000e-01    2.200000e+00
 SN3aq SC3eh  1 4.100000e-01    2.200000e+00
 SN2aq SC3eh  1 4.100000e-01    2.350000e+00
 SN1aq SC3eh  1 4.100000e-01    2.350000e+00
 SC6vq SC3eh  1 4.100000e-01    3.070000e+00
 SC5vq SC3eh  1 4.100000e-01    3.070000e+00
 SC4vq SC3eh  1 4.100000e-01    3.310000e+00
 SC3vq SC3eh  1 4.100000e-01    3.310000e+00
 SC3eh SC2vq  1 4.100000e-01    3.310000e+00
 SC3eh SC1vq  1 4.100000e-01    3.310000e+00
 SC3eh SX4vq  1 4.100000e-01    3.070000e+00
 SC3eh SX3vq  1 4.100000e-01    3.070000e+00
 SC3eh SX2vq  1 4.100000e-01    3.070000e+00
 SC3eh SX1vq  1 4.100000e-01    3.310000e+00
 SC6eq SC3eh  1 4.100000e-01    2.350000e+00
 SC5eq SC3eh  1 4.100000e-01    2.350000e+00
 SC4eq SC3eh  1 4.100000e-01    2.600000e+00
 SC3eh SC3eq  1 4.100000e-01    2.600000e+00
 SC3eh SX1eq  1 4.100000e-01    2.600000e+00
 SC3eh SX2eq  1 4.100000e-01    2.350000e+00
 SC3eh SX3eq  1 4.100000e-01    2.350000e+00
 SC3eh SX4eq  1 4.100000e-01    2.350000e+00
 SC3eh SC1eq  1 4.100000e-01    2.600000e+00
 SC3eh SC2eq  1 4.100000e-01    2.600000e+00
 SP6dq SC2eh  1 4.100000e-01    1.910000e+00
 SP5dq SC2eh  1 4.100000e-01    2.040000e+00
 SP4dq SC2eh  1 4.100000e-01    2.040000e+00
 SP3dq SC2eh  1 4.100000e-01    2.040000e+00
 SP2dq SC2eh  1 4.100000e-01    2.200000e+00
 SP1dq SC2eh  1 4.100000e-01    2.200000e+00
 SN6dq SC2eh  1 4.100000e-01    2.350000e+00
 SN5dq SC2eh  1 4.100000e-01    2.350000e+00
 SN4dq SC2eh  1 4.100000e-01    2.350000e+00
 SN3dq SC2eh  1 4.100000e-01    2.600000e+00
 SN2dq SC2eh  1 4.100000e-01    2.600000e+00
 SN1dq SC2eh  1 4.100000e-01    2.600000e+00
 SP6aq SC2eh  1 4.140000e-01    1.560000e+00
 SP5aq SC2eh  1 4.100000e-01    1.750000e+00
 SP4aq SC2eh  1 4.100000e-01    1.750000e+00
 SP3aq SC2eh  1 4.100000e-01    1.750000e+00
 SP2aq SC2eh  1 4.100000e-01    1.910000e+00
 SP1aq SC2eh  1 4.100000e-01    1.910000e+00
 SN6aq SC2eh  1 4.100000e-01    2.040000e+00
 SN5aq SC2eh  1 4.100000e-01    2.040000e+00
 SN4aq SC2eh  1 4.100000e-01    2.040000e+00
 SN3aq SC2eh  1 4.100000e-01    2.200000e+00
 SN2aq SC2eh  1 4.100000e-01    2.200000e+00
 SN1aq SC2eh  1 4.100000e-01    2.200000e+00
 SC6vq SC2eh  1 4.100000e-01    2.840000e+00
 SC5vq SC2eh  1 4.100000e-01    2.840000e+00
 SC4vq SC2eh  1 4.100000e-01    3.070000e+00
 SC3vq SC2eh  1 4.100000e-01    3.310000e+00
 SC2vq SC2eh  1 4.100000e-01    3.310000e+00
 SC2eh SC1vq  1 4.100000e-01    3.550000e+00
 SC2eh SX4vq  1 4.100000e-01    2.600000e+00
 SC2eh SX3vq  1 4.100000e-01    3.070000e+00
 SC2eh SX2vq  1 4.100000e-01    3.070000e+00
 SC2eh SX1vq  1 4.100000e-01    3.070000e+00
 SC6eq SC2eh  1 4.100000e-01    2.200000e+00
 SC5eq SC2eh  1 4.100000e-01    2.200000e+00
 SC4eq SC2eh  1 4.100000e-01    2.350000e+00
 SC3eq SC2eh  1 4.100000e-01    2.600000e+00
 SC2eh SC2eq  1 4.100000e-01    2.600000e+00
 SC2eh SX1eq  1 4.100000e-01    2.350000e+00
 SC2eh SX2eq  1 4.100000e-01    2.350000e+00
 SC2eh SX3eq  1 4.100000e-01    2.350000e+00
 SC2eh SX4eq  1 4.100000e-01    2.040000e+00
 SC2eh SC1eq  1 4.100000e-01    2.840000e+00
 SP6dq SC1eh  1 4.140000e-01    1.560000e+00
 SP5dq SC1eh  1 4.100000e-01    1.910000e+00
 SP4dq SC1eh  1 4.100000e-01    1.910000e+00
 SP3dq SC1eh  1 4.100000e-01    1.910000e+00
 SP2dq SC1eh  1 4.100000e-01    2.040000e+00
 SP1dq SC1eh  1 4.100000e-01    2.040000e+00
 SN6dq SC1eh  1 4.100000e-01    2.200000e+00
 SN5dq SC1eh  1 4.100000e-01    2.200000e+00
 SN4dq SC1eh  1 4.100000e-01    2.200000e+00
 SN3dq SC1eh  1 4.100000e-01    2.350000e+00
 SN2dq SC1eh  1 4.100000e-01    2.350000e+00
 SN1dq SC1eh  1 4.100000e-01    2.350000e+00
 SP6aq SC1eh  1 4.210000e-01    1.250000e+00
 SP5aq SC1eh  1 4.140000e-01    1.560000e+00
 SP4aq SC1eh  1 4.140000e-01    1.560000e+00
 SP3aq SC1eh  1 4.140000e-01    1.560000e+00
 SP2aq SC1eh  1 4.100000e-01    1.750000e+00
 SP1aq SC1eh  1 4.100000e-01    1.750000e+00
 SN6aq SC1eh  1 4.100000e-01    1.910000e+00
 SN5aq SC1eh  1 4.100000e-01    1.910000e+00
 SN4aq SC1eh  1 4.100000e-01    1.910000e+00
 SN3aq SC1eh  1 4.100000e-01    2.040000e+00
 SN2aq SC1eh  1 4.100000e-01    2.040000e+00
 SN1aq SC1eh  1 4.100000e-01    2.040000e+00
 SC6vq SC1eh  1 4.100000e-01    2.600000e+00
 SC5vq SC1eh  1 4.100000e-01    2.840000e+00
 SC4vq SC1eh  1 4.100000e-01    2.840000e+00
 SC3vq SC1eh  1 4.100000e-01    3.310000e+00
 SC2vq SC1eh  1 4.100000e-01    3.550000e+00
 SC1vq SC1eh  1 4.100000e-01    3.310000e+00
 SC1eh SX4vq  1 4.100000e-01    2.600000e+00
 SC1eh SX3vq  1 4.100000e-01    3.070000e+00
 SC1eh SX2vq  1 4.100000e-01    3.070000e+00
 SC1eh SX1vq  1 4.100000e-01    3.070000e+00
 SC6eq SC1eh  1 4.100000e-01    2.040000e+00
 SC5eq SC1eh  1 4.100000e-01    2.200000e+00
 SC4eq SC1eh  1 4.100000e-01    2.200000e+00
 SC3eq SC1eh  1 4.100000e-01    2.600000e+00
 SC2eq SC1eh  1 4.100000e-01    2.840000e+00
 SC1eh SC1eq  1 4.100000e-01    2.600000e+00
 SC1eh SX1eq  1 4.100000e-01    2.350000e+00
 SC1eh SX2eq  1 4.100000e-01    2.350000e+00
 SC1eh SX3eq  1 4.100000e-01    2.350000e+00
 SC1eh SX4eq  1 4.100000e-01    2.040000e+00
 SP6dq SX4eh  1 4.100000e-01    2.600000e+00
 SP5dq SX4eh  1 4.100000e-01    2.840000e+00
 SP4dq SX4eh  1 4.100000e-01    2.840000e+00
 SP3dq SX4eh  1 4.100000e-01    2.840000e+00
 SP2dq SX4eh  1 4.100000e-01    2.840000e+00
 SP1dq SX4eh  1 4.100000e-01    2.840000e+00
 SN6dq SX4eh  1 4.100000e-01    3.070000e+00
 SN5dq SX4eh  1 4.100000e-01    3.310000e+00
 SN4dq SX4eh  1 4.100000e-01    3.550000e+00
 SN3dq SX4eh  1 4.100000e-01    3.310000e+00
 SN2dq SX4eh  1 4.100000e-01    3.310000e+00
 SN1dq SX4eh  1 4.100000e-01    3.070000e+00
 SP6aq SX4eh  1 4.100000e-01    2.200000e+00
 SP5aq SX4eh  1 4.100000e-01    2.350000e+00
 SP4aq SX4eh  1 4.100000e-01    2.350000e+00
 SP3aq SX4eh  1 4.100000e-01    2.350000e+00
 SP2aq SX4eh  1 4.100000e-01    2.350000e+00
 SP1aq SX4eh  1 4.100000e-01    2.350000e+00
 SN6aq SX4eh  1 4.100000e-01    2.600000e+00
 SN5aq SX4eh  1 4.100000e-01    2.840000e+00
 SN4aq SX4eh  1 4.100000e-01    3.070000e+00
 SN3aq SX4eh  1 4.100000e-01    2.840000e+00
 SN2aq SX4eh  1 4.100000e-01    2.840000e+00
 SN1aq SX4eh  1 4.100000e-01    2.600000e+00
 SC6vq SX4eh  1 4.100000e-01    3.310000e+00
 SC5vq SX4eh  1 4.100000e-01    3.070000e+00
 SC4vq SX4eh  1 4.100000e-01    3.070000e+00
 SC3vq SX4eh  1 4.100000e-01    3.070000e+00
 SC2vq SX4eh  1 4.100000e-01    2.600000e+00
 SC1vq SX4eh  1 4.100000e-01    2.600000e+00
 SX4vq SX4eh  1 4.100000e-01    3.310000e+00
 SX4eh SX3vq  1 4.100000e-01    3.310000e+00
 SX4eh SX2vq  1 4.100000e-01    3.310000e+00
 SX4eh SX1vq  1 4.100000e-01    3.310000e+00
 SC6eq SX4eh  1 4.100000e-01    2.600000e+00
 SC5eq SX4eh  1 4.100000e-01    2.350000e+00
 SC4eq SX4eh  1 4.100000e-01    2.350000e+00
 SC3eq SX4eh  1 4.100000e-01    2.350000e+00
 SC2eq SX4eh  1 4.100000e-01    2.040000e+00
 SC1eq SX4eh  1 4.100000e-01    2.040000e+00
 SX4eh SX4eq  1 4.100000e-01    2.600000e+00
 SX4eh SX1eq  1 4.100000e-01    2.600000e+00
 SX4eh SX2eq  1 4.100000e-01    2.600000e+00
 SX4eh SX3eq  1 4.100000e-01    2.600000e+00
 SP6dq SX3eh  1 4.100000e-01    2.600000e+00
 SP5dq SX3eh  1 4.100000e-01    2.600000e+00
 SP4dq SX3eh  1 4.100000e-01    2.600000e+00
 SP3dq SX3eh  1 4.100000e-01    2.840000e+00
 SP2dq SX3eh  1 4.100000e-01    2.840000e+00
 SP1dq SX3eh  1 4.100000e-01    2.840000e+00
 SN6dq SX3eh  1 4.100000e-01    2.840000e+00
 SN5dq SX3eh  1 4.100000e-01    3.070000e+00
 SN4dq SX3eh  1 4.100000e-01    3.310000e+00
 SN3dq SX3eh  1 4.100000e-01    3.070000e+00
 SN2dq SX3eh  1 4.100000e-01    3.070000e+00
 SN1dq SX3eh  1 4.100000e-01    3.070000e+00
 SP6aq SX3eh  1 4.100000e-01    2.200000e+00
 SP5aq SX3eh  1 4.100000e-01    2.200000e+00
 SP4aq SX3eh  1 4.100000e-01    2.200000e+00
 SP3aq SX3eh  1 4.100000e-01    2.350000e+00
 SP2aq SX3eh  1 4.100000e-01    2.350000e+00
 SP1aq SX3eh  1 4.100000e-01    2.350000e+00
 SN6aq SX3eh  1 4.100000e-01    2.350000e+00
 SN5aq SX3eh  1 4.100000e-01    2.600000e+00
 SN4aq SX3eh  1 4.100000e-01    2.840000e+00
 SN3aq SX3eh  1 4.100000e-01    2.600000e+00
 SN2aq SX3eh  1 4.100000e-01    2.600000e+00
 SN1aq SX3eh  1 4.100000e-01    2.600000e+00
 SC6vq SX3eh  1 4.100000e-01    3.310000e+00
 SC5vq SX3eh  1 4.100000e-01    3.070000e+00
 SC4vq SX3eh  1 4.100000e-01    3.070000e+00
 SC3vq SX3eh  1 4.100000e-01    3.070000e+00
 SC2vq SX3eh  1 4.100000e-01    3.070000e+00
 SC1vq SX3eh  1 4.100000e-01    3.070000e+00
 SX4vq SX3eh  1 4.100000e-01    3.310000e+00
 SX3vq SX3eh  1 4.100000e-01    3.310000e+00
 SX3eh SX2vq  1 4.100000e-01    3.550000e+00
 SX3eh SX1vq  1 4.100000e-01    3.550000e+00
 SC6eq SX3eh  1 4.100000e-01    2.600000e+00
 SC5eq SX3eh  1 4.100000e-01    2.350000e+00
 SC4eq SX3eh  1 4.100000e-01    2.350000e+00
 SC3eq SX3eh  1 4.100000e-01    2.350000e+00
 SC2eq SX3eh  1 4.100000e-01    2.350000e+00
 SC1eq SX3eh  1 4.100000e-01    2.350000e+00
 SX4eq SX3eh  1 4.100000e-01    2.600000e+00
 SX3eh SX3eq  1 4.100000e-01    2.600000e+00
 SX3eh SX1eq  1 4.100000e-01    2.840000e+00
 SX3eh SX2eq  1 4.100000e-01    2.840000e+00
 SP6dq SX2eh  1 4.100000e-01    2.350000e+00
 SP5dq SX2eh  1 4.100000e-01    2.600000e+00
 SP4dq SX2eh  1 4.100000e-01    2.600000e+00
 SP3dq SX2eh  1 4.100000e-01    2.600000e+00
 SP2dq SX2eh  1 4.100000e-01    2.600000e+00
 SP1dq SX2eh  1 4.100000e-01    2.600000e+00
 SN6dq SX2eh  1 4.100000e-01    2.600000e+00
 SN5dq SX2eh  1 4.100000e-01    2.840000e+00
 SN4dq SX2eh  1 4.100000e-01    2.840000e+00
 SN3dq SX2eh  1 4.100000e-01    2.840000e+00
 SN2dq SX2eh  1 4.100000e-01    2.840000e+00
 SN1dq SX2eh  1 4.100000e-01    2.840000e+00
 SP6aq SX2eh  1 4.100000e-01    2.040000e+00
 SP5aq SX2eh  1 4.100000e-01    2.200000e+00
 SP4aq SX2eh  1 4.100000e-01    2.200000e+00
 SP3aq SX2eh  1 4.100000e-01    2.200000e+00
 SP2aq SX2eh  1 4.100000e-01    2.200000e+00
 SP1aq SX2eh  1 4.100000e-01    2.200000e+00
 SN6aq SX2eh  1 4.100000e-01    2.200000e+00
 SN5aq SX2eh  1 4.100000e-01    2.350000e+00
 SN4aq SX2eh  1 4.100000e-01    2.350000e+00
 SN3aq SX2eh  1 4.100000e-01    2.350000e+00
 SN2aq SX2eh  1 4.100000e-01    2.350000e+00
 SN1aq SX2eh  1 4.100000e-01    2.350000e+00
 SC6vq SX2eh  1 4.100000e-01    3.310000e+00
 SC5vq SX2eh  1 4.100000e-01    3.070000e+00
 SC4vq SX2eh  1 4.100000e-01    3.070000e+00
 SC3vq SX2eh  1 4.100000e-01    3.070000e+00
 SC2vq SX2eh  1 4.100000e-01    3.070000e+00
 SC1vq SX2eh  1 4.100000e-01    3.070000e+00
 SX4vq SX2eh  1 4.100000e-01    3.310000e+00
 SX3vq SX2eh  1 4.100000e-01    3.550000e+00
 SX2vq SX2eh  1 4.100000e-01    3.550000e+00
 SX2eh SX1vq  1 4.100000e-01    3.550000e+00
 SC6eq SX2eh  1 4.100000e-01    2.600000e+00
 SC5eq SX2eh  1 4.100000e-01    2.350000e+00
 SC4eq SX2eh  1 4.100000e-01    2.350000e+00
 SC3eq SX2eh  1 4.100000e-01    2.350000e+00
 SC2eq SX2eh  1 4.100000e-01    2.350000e+00
 SC1eq SX2eh  1 4.100000e-01    2.350000e+00
 SX4eq SX2eh  1 4.100000e-01    2.600000e+00
 SX3eq SX2eh  1 4.100000e-01    2.840000e+00
 SX2eh SX2eq  1 4.100000e-01    2.840000e+00
 SX2eh SX1eq  1 4.100000e-01    2.840000e+00
 SP6dq SX1eh  1 4.100000e-01    2.200000e+00
 SP5dq SX1eh  1 4.100000e-01    2.200000e+00
 SP4dq SX1eh  1 4.100000e-01    2.350000e+00
 SP3dq SX1eh  1 4.100000e-01    2.350000e+00
 SP2dq SX1eh  1 4.100000e-01    2.350000e+00
 SP1dq SX1eh  1 4.100000e-01    2.350000e+00
 SN6dq SX1eh  1 4.100000e-01    2.350000e+00
 SN5dq SX1eh  1 4.100000e-01    2.600000e+00
 SN4dq SX1eh  1 4.100000e-01    2.600000e+00
 SN3dq SX1eh  1 4.100000e-01    2.840000e+00
 SN2dq SX1eh  1 4.100000e-01    2.840000e+00
 SN1dq SX1eh  1 4.100000e-01    2.840000e+00
 SP6aq SX1eh  1 4.100000e-01    1.910000e+00
 SP5aq SX1eh  1 4.100000e-01    1.910000e+00
 SP4aq SX1eh  1 4.100000e-01    2.040000e+00
 SP3aq SX1eh  1 4.100000e-01    2.040000e+00
 SP2aq SX1eh  1 4.100000e-01    2.040000e+00
 SP1aq SX1eh  1 4.100000e-01    2.040000e+00
 SN6aq SX1eh  1 4.100000e-01    2.040000e+00
 SN5aq SX1eh  1 4.100000e-01    2.200000e+00
 SN4aq SX1eh  1 4.100000e-01    2.200000e+00
 SN3aq SX1eh  1 4.100000e-01    2.350000e+00
 SN2aq SX1eh  1 4.100000e-01    2.350000e+00
 SN1aq SX1eh  1 4.100000e-01    2.350000e+00
 SC6vq SX1eh  1 4.100000e-01    3.310000e+00
 SC5vq SX1eh  1 4.100000e-01    3.310000e+00
 SC4vq SX1eh  1 4.100000e-01    3.310000e+00
 SC3vq SX1eh  1 4.100000e-01    3.310000e+00
 SC2vq SX1eh  1 4.100000e-01    3.070000e+00
 SC1vq SX1eh  1 4.100000e-01    3.070000e+00
 SX4vq SX1eh  1 4.100000e-01    3.310000e+00
 SX3vq SX1eh  1 4.100000e-01    3.550000e+00
 SX2vq SX1eh  1 4.100000e-01    3.550000e+00
 SX1vq SX1eh  1 4.100000e-01    3.820000e+00
 SC6eq SX1eh  1 4.100000e-01    2.600000e+00
 SC5eq SX1eh  1 4.100000e-01    2.600000e+00
 SC4eq SX1eh  1 4.100000e-01    2.600000e+00
 SC3eq SX1eh  1 4.100000e-01    2.600000e+00
 SC2eq SX1eh  1 4.100000e-01    2.350000e+00
 SC1eq SX1eh  1 4.100000e-01    2.350000e+00
 SX4eq SX1eh  1 4.100000e-01    2.600000e+00
 SX3eq SX1eh  1 4.100000e-01    2.840000e+00
 SX2eq SX1eh  1 4.100000e-01    2.840000e+00
 SX1eh SX1eq  1 4.100000e-01    3.070000e+00
  SP6r  SP6d  1 4.100000e-01    4.290000e+00
  SP6r  SN1d  1 4.100000e-01    1.910000e+00
  SP6r  SN2d  1 4.100000e-01    2.040000e+00
  SP6r  SN3d  1 4.100000e-01    2.200000e+00
  SP6r  SN4d  1 4.100000e-01    2.350000e+00
  SP6r  SN5d  1 4.100000e-01    2.600000e+00
  SP6r  SN6d  1 4.100000e-01    3.070000e+00
  SP6r  SP1d  1 4.100000e-01    3.310000e+00
  SP6r  SP2d  1 4.100000e-01    3.550000e+00
  SP6r  SP3d  1 4.100000e-01    3.550000e+00
  SP6r  SP4d  1 4.100000e-01    3.820000e+00
  SP6r  SP5d  1 4.100000e-01    4.040000e+00
  SP6r  SP6a  1 4.100000e-01    4.290000e+00
  SP6r  SN1a  1 4.100000e-01    1.910000e+00
  SP6r  SN2a  1 4.100000e-01    2.040000e+00
  SP6r  SN3a  1 4.100000e-01    2.200000e+00
  SP6r  SN4a  1 4.100000e-01    2.350000e+00
  SP6r  SN5a  1 4.100000e-01    2.600000e+00
  SP6r  SN6a  1 4.100000e-01    3.070000e+00
  SP6r  SP1a  1 4.100000e-01    3.310000e+00
  SP6r  SP2a  1 4.100000e-01    3.550000e+00
  SP6r  SP3a  1 4.100000e-01    3.550000e+00
  SP6r  SP4a  1 4.100000e-01    3.820000e+00
  SP6r  SP5a  1 4.100000e-01    4.040000e+00
  SP6r  SC6v  1 4.100000e-01    2.040000e+00
  SP6r  SC5v  1 4.100000e-01    1.910000e+00
  SP6r  SC4v  1 4.100000e-01    1.750000e+00
  SP6r  SC3v  1 4.140000e-01    1.560000e+00
  SP6r  SC2v  1 4.140000e-01    1.560000e+00
  SP6r  SC1v  1 4.210000e-01    1.250000e+00
  SP6r  SX4v  1 4.100000e-01    2.200000e+00
  SP6r  SX3v  1 4.100000e-01    2.200000e+00
  SP6r  SX2v  1 4.100000e-01    2.040000e+00
  SP6r  SX1v  1 4.100000e-01    1.910000e+00
  SP6r  SC6e  1 4.100000e-01    2.040000e+00
  SP6r  SC5e  1 4.100000e-01    1.910000e+00
  SP6r  SC4e  1 4.100000e-01    1.750000e+00
  SP6r  SC3e  1 4.140000e-01    1.560000e+00
  SP6r  SC2e  1 4.140000e-01    1.560000e+00
  SP6r  SC1e  1 4.210000e-01    1.250000e+00
  SP6r  SX4e  1 4.100000e-01    2.200000e+00
  SP6r  SX3e  1 4.100000e-01    2.200000e+00
  SP6r  SX2e  1 4.100000e-01    2.040000e+00
  SP6r  SX1e  1 4.100000e-01    1.910000e+00
  SP6r  SP6q  1 4.100000e-01    4.840000e+00
  SP6r  SX1q  1 4.100000e-01    2.040000e+00
  SP6r  SX2q  1 4.100000e-01    2.200000e+00
  SP6r  SX3q  1 4.100000e-01    2.350000e+00
  SP6r  SX4q  1 4.100000e-01    2.350000e+00
  SP6r  SC1q  1 4.180000e-01    1.400000e+00
  SP6r  SC2q  1 4.100000e-01    1.750000e+00
  SP6r  SC3q  1 4.100000e-01    1.750000e+00
  SP6r  SC4q  1 4.100000e-01    1.910000e+00
  SP6r  SC5q  1 4.100000e-01    2.040000e+00
  SP6r  SC6q  1 4.100000e-01    2.200000e+00
  SP6r  SN1q  1 4.100000e-01    2.200000e+00
  SP6r  SN2q  1 4.100000e-01    2.350000e+00
  SP6r  SN3q  1 4.100000e-01    2.600000e+00
  SP6r  SN4q  1 4.100000e-01    2.840000e+00
  SP6r  SN5q  1 4.100000e-01    3.070000e+00
  SP6r  SN6q  1 4.100000e-01    3.550000e+00
  SP6r  SP1q  1 4.100000e-01    3.820000e+00
  SP6r  SP2q  1 4.100000e-01    4.040000e+00
  SP6r  SP3q  1 4.100000e-01    4.040000e+00
  SP6r  SP4q  1 4.100000e-01    4.290000e+00
  SP6r  SP5q  1 4.100000e-01    4.550000e+00
  SP6d  SP5r  1 4.100000e-01    4.040000e+00
  SP5r  SP5d  1 4.100000e-01    3.820000e+00
  SP5r  SN1d  1 4.100000e-01    1.910000e+00
  SP5r  SN2d  1 4.100000e-01    2.040000e+00
  SP5r  SN3d  1 4.100000e-01    2.200000e+00
  SP5r  SN4d  1 4.100000e-01    2.600000e+00
  SP5r  SN5d  1 4.100000e-01    2.600000e+00
  SP5r  SN6d  1 4.100000e-01    2.840000e+00
  SP5r  SP1d  1 4.100000e-01    3.070000e+00
  SP5r  SP2d  1 4.100000e-01    3.310000e+00
  SP5r  SP3d  1 4.100000e-01    3.310000e+00
  SP5r  SP4d  1 4.100000e-01    3.550000e+00
  SP6a  SP5r  1 4.100000e-01    4.040000e+00
  SP5r  SP5a  1 4.100000e-01    3.820000e+00
  SP5r  SN1a  1 4.100000e-01    1.910000e+00
  SP5r  SN2a  1 4.100000e-01    2.040000e+00
  SP5r  SN3a  1 4.100000e-01    2.200000e+00
  SP5r  SN4a  1 4.100000e-01    2.600000e+00
  SP5r  SN5a  1 4.100000e-01    2.600000e+00
  SP5r  SN6a  1 4.100000e-01    2.840000e+00
  SP5r  SP1a  1 4.100000e-01    3.070000e+00
  SP5r  SP2a  1 4.100000e-01    3.310000e+00
  SP5r  SP3a  1 4.100000e-01    3.310000e+00
  SP5r  SP4a  1 4.100000e-01    3.550000e+00
  SP5r  SC6v  1 4.100000e-01    2.040000e+00
  SP5r  SC5v  1 4.100000e-01    2.040000e+00
  SP5r  SC4v  1 4.100000e-01    1.910000e+00
  SP5r  SC3v  1 4.100000e-01    1.750000e+00
  SP5r  SC2v  1 4.100000e-01    1.750000e+00
  SP5r  SC1v  1 4.140000e-01    1.560000e+00
  SP5r  SX4v  1 4.100000e-01    2.350000e+00
  SP5r  SX3v  1 4.100000e-01    2.200000e+00
  SP5r  SX2v  1 4.100000e-01    2.200000e+00
  SP5r  SX1v  1 4.100000e-01    1.910000e+00
  SP5r  SC6e  1 4.100000e-01    2.040000e+00
  SP5r  SC5e  1 4.100000e-01    2.040000e+00
  SP5r  SC4e  1 4.100000e-01    1.910000e+00
  SP5r  SC3e  1 4.100000e-01    1.750000e+00
  SP5r  SC2e  1 4.100000e-01    1.750000e+00
  SP5r  SC1e  1 4.140000e-01    1.560000e+00
  SP5r  SX4e  1 4.100000e-01    2.350000e+00
  SP5r  SX3e  1 4.100000e-01    2.200000e+00
  SP5r  SX2e  1 4.100000e-01    2.200000e+00
  SP5r  SX1e  1 4.100000e-01    1.910000e+00
  SP6q  SP5r  1 4.100000e-01    4.550000e+00
  SP5r  SP5q  1 4.100000e-01    4.290000e+00
  SP5r  SX1q  1 4.100000e-01    2.040000e+00
  SP5r  SX2q  1 4.100000e-01    2.350000e+00
  SP5r  SX3q  1 4.100000e-01    2.350000e+00
  SP5r  SX4q  1 4.100000e-01    2.600000e+00
  SP5r  SC1q  1 4.100000e-01    1.750000e+00
  SP5r  SC2q  1 4.100000e-01    1.910000e+00
  SP5r  SC3q  1 4.100000e-01    1.910000e+00
  SP5r  SC4q  1 4.100000e-01    2.040000e+00
  SP5r  SC5q  1 4.100000e-01    2.200000e+00
  SP5r  SC6q  1 4.100000e-01    2.200000e+00
  SP5r  SN1q  1 4.100000e-01    2.200000e+00
  SP5r  SN2q  1 4.100000e-01    2.350000e+00
  SP5r  SN3q  1 4.100000e-01    2.600000e+00
  SP5r  SN4q  1 4.100000e-01    3.070000e+00
  SP5r  SN5q  1 4.100000e-01    3.070000e+00
  SP5r  SN6q  1 4.100000e-01    3.310000e+00
  SP5r  SP1q  1 4.100000e-01    3.550000e+00
  SP5r  SP2q  1 4.100000e-01    3.820000e+00
  SP5r  SP3q  1 4.100000e-01    3.820000e+00
  SP5r  SP4q  1 4.100000e-01    4.040000e+00
  SP6d  SP4r  1 4.100000e-01    3.820000e+00
  SP5d  SP4r  1 4.100000e-01    3.550000e+00
  SP4r  SP4d  1 4.100000e-01    3.550000e+00
  SP4r  SN1d  1 4.100000e-01    2.040000e+00
  SP4r  SN2d  1 4.100000e-01    2.200000e+00
  SP4r  SN3d  1 4.100000e-01    2.350000e+00
  SP4r  SN4d  1 4.100000e-01    2.600000e+00
  SP4r  SN5d  1 4.100000e-01    2.600000e+00
  SP4r  SN6d  1 4.100000e-01    2.840000e+00
  SP4r  SP1d  1 4.100000e-01    3.070000e+00
  SP4r  SP2d  1 4.100000e-01    3.310000e+00
  SP4r  SP3d  1 4.100000e-01    3.310000e+00
  SP6a  SP4r  1 4.100000e-01    3.820000e+00
  SP5a  SP4r  1 4.100000e-01    3.550000e+00
  SP4r  SP4a  1 4.100000e-01    3.550000e+00
  SP4r  SN1a  1 4.100000e-01    2.040000e+00
  SP4r  SN2a  1 4.100000e-01    2.200000e+00
  SP4r  SN3a  1 4.100000e-01    2.350000e+00
  SP4r  SN4a  1 4.100000e-01    2.600000e+00
  SP4r  SN5a  1 4.100000e-01    2.600000e+00
  SP4r  SN6a  1 4.100000e-01    2.840000e+00
  SP4r  SP1a  1 4.100000e-01    3.070000e+00
  SP4r  SP2a  1 4.100000e-01    3.310000e+00
  SP4r  SP3a  1 4.100000e-01    3.310000e+00
  SP4r  SC6v  1 4.100000e-01    2.200000e+00
  SP4r  SC5v  1 4.100000e-01    2.040000e+00
  SP4r  SC4v  1 4.100000e-01    1.910000e+00
  SP4r  SC3v  1 4.100000e-01    1.750000e+00
  SP4r  SC2v  1 4.100000e-01    1.750000e+00
  SP4r  SC1v  1 4.140000e-01    1.560000e+00
  SP4r  SX4v  1 4.100000e-01    2.350000e+00
  SP4r  SX3v  1 4.100000e-01    2.200000e+00
  SP4r  SX2v  1 4.100000e-01    2.200000e+00
  SP4r  SX1v  1 4.100000e-01    2.040000e+00
  SP4r  SC6e  1 4.100000e-01    2.200000e+00
  SP4r  SC5e  1 4.100000e-01    2.040000e+00
  SP4r  SC4e  1 4.100000e-01    1.910000e+00
  SP4r  SC3e  1 4.100000e-01    1.750000e+00
  SP4r  SC2e  1 4.100000e-01    1.750000e+00
  SP4r  SC1e  1 4.140000e-01    1.560000e+00
  SP4r  SX4e  1 4.100000e-01    2.350000e+00
  SP4r  SX3e  1 4.100000e-01    2.200000e+00
  SP4r  SX2e  1 4.100000e-01    2.200000e+00
  SP4r  SX1e  1 4.100000e-01    2.040000e+00
  SP6q  SP4r  1 4.100000e-01    4.290000e+00
  SP5q  SP4r  1 4.100000e-01    4.040000e+00
  SP4r  SP4q  1 4.100000e-01    4.040000e+00
  SP4r  SX1q  1 4.100000e-01    2.200000e+00
  SP4r  SX2q  1 4.100000e-01    2.350000e+00
  SP4r  SX3q  1 4.100000e-01    2.350000e+00
  SP4r  SX4q  1 4.100000e-01    2.600000e+00
  SP4r  SC1q  1 4.100000e-01    1.750000e+00
  SP4r  SC2q  1 4.100000e-01    1.910000e+00
  SP4r  SC3q  1 4.100000e-01    1.910000e+00
  SP4r  SC4q  1 4.100000e-01    2.040000e+00
  SP4r  SC5q  1 4.100000e-01    2.200000e+00
  SP4r  SC6q  1 4.100000e-01    2.350000e+00
  SP4r  SN1q  1 4.100000e-01    2.350000e+00
  SP4r  SN2q  1 4.100000e-01    2.600000e+00
  SP4r  SN3q  1 4.100000e-01    2.840000e+00
  SP4r  SN4q  1 4.100000e-01    3.070000e+00
  SP4r  SN5q  1 4.100000e-01    3.070000e+00
  SP4r  SN6q  1 4.100000e-01    3.310000e+00
  SP4r  SP1q  1 4.100000e-01    3.550000e+00
  SP4r  SP2q  1 4.100000e-01    3.820000e+00
  SP4r  SP3q  1 4.100000e-01    3.820000e+00
  SP6d  SP3r  1 4.100000e-01    3.550000e+00
  SP5d  SP3r  1 4.100000e-01    3.310000e+00
  SP4d  SP3r  1 4.100000e-01    3.310000e+00
  SP3r  SP3d  1 4.100000e-01    3.310000e+00
  SP3r  SN1d  1 4.100000e-01    2.200000e+00
  SP3r  SN2d  1 4.100000e-01    2.350000e+00
  SP3r  SN3d  1 4.100000e-01    2.350000e+00
  SP3r  SN4d  1 4.100000e-01    2.600000e+00
  SP3r  SN5d  1 4.100000e-01    2.600000e+00
  SP3r  SN6d  1 4.100000e-01    2.840000e+00
  SP3r  SP1d  1 4.100000e-01    3.070000e+00
  SP3r  SP2d  1 4.100000e-01    3.310000e+00
  SP6a  SP3r  1 4.100000e-01    3.550000e+00
  SP5a  SP3r  1 4.100000e-01    3.310000e+00
  SP4a  SP3r  1 4.100000e-01    3.310000e+00
  SP3r  SP3a  1 4.100000e-01    3.310000e+00
  SP3r  SN1a  1 4.100000e-01    2.200000e+00
  SP3r  SN2a  1 4.100000e-01    2.350000e+00
  SP3r  SN3a  1 4.100000e-01    2.350000e+00
  SP3r  SN4a  1 4.100000e-01    2.600000e+00
  SP3r  SN5a  1 4.100000e-01    2.600000e+00
  SP3r  SN6a  1 4.100000e-01    2.840000e+00
  SP3r  SP1a  1 4.100000e-01    3.070000e+00
  SP3r  SP2a  1 4.100000e-01    3.310000e+00
  SP3r  SC6v  1 4.100000e-01    2.350000e+00
  SP3r  SC5v  1 4.100000e-01    2.200000e+00
  SP3r  SC4v  1 4.100000e-01    2.040000e+00
  SP3r  SC3v  1 4.100000e-01    1.750000e+00
  SP3r  SC2v  1 4.100000e-01    1.750000e+00
  SP3r  SC1v  1 4.140000e-01    1.560000e+00
  SP3r  SX4v  1 4.100000e-01    2.350000e+00
  SP3r  SX3v  1 4.100000e-01    2.350000e+00
  SP3r  SX2v  1 4.100000e-01    2.200000e+00
  SP3r  SX1v  1 4.100000e-01    2.040000e+00
  SP3r  SC6e  1 4.100000e-01    2.350000e+00
  SP3r  SC5e  1 4.100000e-01    2.200000e+00
  SP3r  SC4e  1 4.100000e-01    2.040000e+00
  SP3r  SC3e  1 4.100000e-01    1.750000e+00
  SP3r  SC2e  1 4.100000e-01    1.750000e+00
  SP3r  SC1e  1 4.140000e-01    1.560000e+00
  SP3r  SX4e  1 4.100000e-01    2.350000e+00
  SP3r  SX3e  1 4.100000e-01    2.350000e+00
  SP3r  SX2e  1 4.100000e-01    2.200000e+00
  SP3r  SX1e  1 4.100000e-01    2.040000e+00
  SP6q  SP3r  1 4.100000e-01    4.040000e+00
  SP5q  SP3r  1 4.100000e-01    3.820000e+00
  SP4q  SP3r  1 4.100000e-01    3.820000e+00
  SP3r  SP3q  1 4.100000e-01    3.820000e+00
  SP3r  SX1q  1 4.100000e-01    2.200000e+00
  SP3r  SX2q  1 4.100000e-01    2.350000e+00
  SP3r  SX3q  1 4.100000e-01    2.600000e+00
  SP3r  SX4q  1 4.100000e-01    2.600000e+00
  SP3r  SC1q  1 4.100000e-01    1.750000e+00
  SP3r  SC2q  1 4.100000e-01    1.910000e+00
  SP3r  SC3q  1 4.100000e-01    1.910000e+00
  SP3r  SC4q  1 4.100000e-01    2.200000e+00
  SP3r  SC5q  1 4.100000e-01    2.350000e+00
  SP3r  SC6q  1 4.100000e-01    2.600000e+00
  SP3r  SN1q  1 4.100000e-01    2.600000e+00
  SP3r  SN2q  1 4.100000e-01    2.840000e+00
  SP3r  SN3q  1 4.100000e-01    2.840000e+00
  SP3r  SN4q  1 4.100000e-01    3.070000e+00
  SP3r  SN5q  1 4.100000e-01    3.070000e+00
  SP3r  SN6q  1 4.100000e-01    3.310000e+00
  SP3r  SP1q  1 4.100000e-01    3.550000e+00
  SP3r  SP2q  1 4.100000e-01    3.820000e+00
  SP6d  SP2r  1 4.100000e-01    3.550000e+00
  SP5d  SP2r  1 4.100000e-01    3.310000e+00
  SP4d  SP2r  1 4.100000e-01    3.310000e+00
  SP3d  SP2r  1 4.100000e-01    3.310000e+00
  SP2r  SP2d  1 4.100000e-01    3.310000e+00
  SP2r  SN1d  1 4.100000e-01    2.350000e+00
  SP2r  SN2d  1 4.100000e-01    2.350000e+00
  SP2r  SN3d  1 4.100000e-01    2.350000e+00
  SP2r  SN4d  1 4.100000e-01    2.600000e+00
  SP2r  SN5d  1 4.100000e-01    2.840000e+00
  SP2r  SN6d  1 4.100000e-01    3.070000e+00
  SP2r  SP1d  1 4.100000e-01    3.070000e+00
  SP6a  SP2r  1 4.100000e-01    3.550000e+00
  SP5a  SP2r  1 4.100000e-01    3.310000e+00
  SP4a  SP2r  1 4.100000e-01    3.310000e+00
  SP3a  SP2r  1 4.100000e-01    3.310000e+00
  SP2r  SP2a  1 4.100000e-01    3.310000e+00
  SP2r  SN1a  1 4.100000e-01    2.350000e+00
  SP2r  SN2a  1 4.100000e-01    2.350000e+00
  SP2r  SN3a  1 4.100000e-01    2.350000e+00
  SP2r  SN4a  1 4.100000e-01    2.600000e+00
  SP2r  SN5a  1 4.100000e-01    2.840000e+00
  SP2r  SN6a  1 4.100000e-01    3.070000e+00
  SP2r  SP1a  1 4.100000e-01    3.070000e+00
  SP2r  SC6v  1 4.100000e-01    2.350000e+00
  SP2r  SC5v  1 4.100000e-01    2.200000e+00
  SP2r  SC4v  1 4.100000e-01    2.040000e+00
  SP2r  SC3v  1 4.100000e-01    1.910000e+00
  SP2r  SC2v  1 4.100000e-01    1.910000e+00
  SP2r  SC1v  1 4.100000e-01    1.750000e+00
  SP2r  SX4v  1 4.100000e-01    2.350000e+00
  SP2r  SX3v  1 4.100000e-01    2.350000e+00
  SP2r  SX2v  1 4.100000e-01    2.200000e+00
  SP2r  SX1v  1 4.100000e-01    2.040000e+00
  SP2r  SC6e  1 4.100000e-01    2.350000e+00
  SP2r  SC5e  1 4.100000e-01    2.200000e+00
  SP2r  SC4e  1 4.100000e-01    2.040000e+00
  SP2r  SC3e  1 4.100000e-01    1.910000e+00
  SP2r  SC2e  1 4.100000e-01    1.910000e+00
  SP2r  SC1e  1 4.100000e-01    1.750000e+00
  SP2r  SX4e  1 4.100000e-01    2.350000e+00
  SP2r  SX3e  1 4.100000e-01    2.350000e+00
  SP2r  SX2e  1 4.100000e-01    2.200000e+00
  SP2r  SX1e  1 4.100000e-01    2.040000e+00
  SP6q  SP2r  1 4.100000e-01    4.040000e+00
  SP5q  SP2r  1 4.100000e-01    3.820000e+00
  SP4q  SP2r  1 4.100000e-01    3.820000e+00
  SP3q  SP2r  1 4.100000e-01    3.820000e+00
  SP2r  SP2q  1 4.100000e-01    3.820000e+00
  SP2r  SX1q  1 4.100000e-01    2.200000e+00
  SP2r  SX2q  1 4.100000e-01    2.350000e+00
  SP2r  SX3q  1 4.100000e-01    2.600000e+00
  SP2r  SX4q  1 4.100000e-01    2.600000e+00
  SP2r  SC1q  1 4.100000e-01    1.910000e+00
  SP2r  SC2q  1 4.100000e-01    2.040000e+00
  SP2r  SC3q  1 4.100000e-01    2.040000e+00
  SP2r  SC4q  1 4.100000e-01    2.200000e+00
  SP2r  SC5q  1 4.100000e-01    2.350000e+00
  SP2r  SC6q  1 4.100000e-01    2.600000e+00
  SP2r  SN1q  1 4.100000e-01    2.840000e+00
  SP2r  SN2q  1 4.100000e-01    2.840000e+00
  SP2r  SN3q  1 4.100000e-01    2.840000e+00
  SP2r  SN4q  1 4.100000e-01    3.070000e+00
  SP2r  SN5q  1 4.100000e-01    3.310000e+00
  SP2r  SN6q  1 4.100000e-01    3.550000e+00
  SP2r  SP1q  1 4.100000e-01    3.550000e+00
  SP6d  SP1r  1 4.100000e-01    3.310000e+00
  SP5d  SP1r  1 4.100000e-01    3.070000e+00
  SP4d  SP1r  1 4.100000e-01    3.070000e+00
  SP3d  SP1r  1 4.100000e-01    3.070000e+00
  SP2d  SP1r  1 4.100000e-01    3.070000e+00
  SP1r  SP1d  1 4.100000e-01    3.070000e+00
  SP1r  SN1d  1 4.100000e-01    2.350000e+00
  SP1r  SN2d  1 4.100000e-01    2.350000e+00
  SP1r  SN3d  1 4.100000e-01    2.350000e+00
  SP1r  SN4d  1 4.100000e-01    2.840000e+00
  SP1r  SN5d  1 4.100000e-01    2.840000e+00
  SP1r  SN6d  1 4.100000e-01    3.070000e+00
  SP6a  SP1r  1 4.100000e-01    3.310000e+00
  SP5a  SP1r  1 4.100000e-01    3.070000e+00
  SP4a  SP1r  1 4.100000e-01    3.070000e+00
  SP3a  SP1r  1 4.100000e-01    3.070000e+00
  SP2a  SP1r  1 4.100000e-01    3.070000e+00
  SP1r  SP1a  1 4.100000e-01    3.070000e+00
  SP1r  SN1a  1 4.100000e-01    2.350000e+00
  SP1r  SN2a  1 4.100000e-01    2.350000e+00
  SP1r  SN3a  1 4.100000e-01    2.350000e+00
  SP1r  SN4a  1 4.100000e-01    2.840000e+00
  SP1r  SN5a  1 4.100000e-01    2.840000e+00
  SP1r  SN6a  1 4.100000e-01    3.070000e+00
  SP1r  SC6v  1 4.100000e-01    2.350000e+00
  SP1r  SC5v  1 4.100000e-01    2.200000e+00
  SP1r  SC4v  1 4.100000e-01    2.040000e+00
  SP1r  SC3v  1 4.100000e-01    1.910000e+00
  SP1r  SC2v  1 4.100000e-01    1.910000e+00
  SP1r  SC1v  1 4.100000e-01    1.750000e+00
  SP1r  SX4v  1 4.100000e-01    2.350000e+00
  SP1r  SX3v  1 4.100000e-01    2.350000e+00
  SP1r  SX2v  1 4.100000e-01    2.200000e+00
  SP1r  SX1v  1 4.100000e-01    2.040000e+00
  SP1r  SC6e  1 4.100000e-01    2.350000e+00
  SP1r  SC5e  1 4.100000e-01    2.200000e+00
  SP1r  SC4e  1 4.100000e-01    2.040000e+00
  SP1r  SC3e  1 4.100000e-01    1.910000e+00
  SP1r  SC2e  1 4.100000e-01    1.910000e+00
  SP1r  SC1e  1 4.100000e-01    1.750000e+00
  SP1r  SX4e  1 4.100000e-01    2.350000e+00
  SP1r  SX3e  1 4.100000e-01    2.350000e+00
  SP1r  SX2e  1 4.100000e-01    2.200000e+00
  SP1r  SX1e  1 4.100000e-01    2.040000e+00
  SP6q  SP1r  1 4.100000e-01    3.820000e+00
  SP5q  SP1r  1 4.100000e-01    3.550000e+00
  SP4q  SP1r  1 4.100000e-01    3.550000e+00
  SP3q  SP1r  1 4.100000e-01    3.550000e+00
  SP2q  SP1r  1 4.100000e-01    3.550000e+00
  SP1r  SP1q  1 4.100000e-01    3.550000e+00
  SP1r  SX1q  1 4.100000e-01    2.200000e+00
  SP1r  SX2q  1 4.100000e-01    2.350000e+00
  SP1r  SX3q  1 4.100000e-01    2.600000e+00
  SP1r  SX4q  1 4.100000e-01    2.600000e+00
  SP1r  SC1q  1 4.100000e-01    1.910000e+00
  SP1r  SC2q  1 4.100000e-01    2.040000e+00
  SP1r  SC3q  1 4.100000e-01    2.040000e+00
  SP1r  SC4q  1 4.100000e-01    2.200000e+00
  SP1r  SC5q  1 4.100000e-01    2.350000e+00
  SP1r  SC6q  1 4.100000e-01    2.600000e+00
  SP1r  SN1q  1 4.100000e-01    2.840000e+00
  SP1r  SN2q  1 4.100000e-01    2.840000e+00
  SP1r  SN3q  1 4.100000e-01    2.840000e+00
  SP1r  SN4q  1 4.100000e-01    3.310000e+00
  SP1r  SN5q  1 4.100000e-01    3.310000e+00
  SP1r  SN6q  1 4.100000e-01    3.550000e+00
  SP6d  SN6r  1 4.100000e-01    3.070000e+00
  SP5d  SN6r  1 4.100000e-01    2.840000e+00
  SP4d  SN6r  1 4.100000e-01    2.840000e+00
  SP3d  SN6r  1 4.100000e-01    2.840000e+00
  SP2d  SN6r  1 4.100000e-01    3.070000e+00
  SP1d  SN6r  1 4.100000e-01    3.070000e+00
  SN6r  SN6d  1 4.100000e-01    3.070000e+00
  SN6r  SN1d  1 4.100000e-01    2.350000e+00
  SN6r  SN2d  1 4.100000e-01    2.350000e+00
  SN6r  SN3d  1 4.100000e-01    2.600000e+00
  SN6r  SN4d  1 4.100000e-01    3.070000e+00
  SN6r  SN5d  1 4.100000e-01    3.070000e+00
  SP6a  SN6r  1 4.100000e-01    3.070000e+00
  SP5a  SN6r  1 4.100000e-01    2.840000e+00
  SP4a  SN6r  1 4.100000e-01    2.840000e+00
  SP3a  SN6r  1 4.100000e-01    2.840000e+00
  SP2a  SN6r  1 4.100000e-01    3.070000e+00
  SP1a  SN6r  1 4.100000e-01    3.070000e+00
  SN6r  SN6a  1 4.100000e-01    3.070000e+00
  SN6r  SN1a  1 4.100000e-01    2.350000e+00
  SN6r  SN2a  1 4.100000e-01    2.350000e+00
  SN6r  SN3a  1 4.100000e-01    2.600000e+00
  SN6r  SN4a  1 4.100000e-01    3.070000e+00
  SN6r  SN5a  1 4.100000e-01    3.070000e+00
  SN6r  SC6v  1 4.100000e-01    2.600000e+00
  SN6r  SC5v  1 4.100000e-01    2.350000e+00
  SN6r  SC4v  1 4.100000e-01    2.200000e+00
  SN6r  SC3v  1 4.100000e-01    2.040000e+00
  SN6r  SC2v  1 4.100000e-01    2.040000e+00
  SN6r  SC1v  1 4.100000e-01    1.910000e+00
  SN6r  SX4v  1 4.100000e-01    2.600000e+00
  SN6r  SX3v  1 4.100000e-01    2.350000e+00
  SN6r  SX2v  1 4.100000e-01    2.200000e+00
  SN6r  SX1v  1 4.100000e-01    2.040000e+00
  SN6r  SC6e  1 4.100000e-01    2.600000e+00
  SN6r  SC5e  1 4.100000e-01    2.350000e+00
  SN6r  SC4e  1 4.100000e-01    2.200000e+00
  SN6r  SC3e  1 4.100000e-01    2.040000e+00
  SN6r  SC2e  1 4.100000e-01    2.040000e+00
  SN6r  SC1e  1 4.100000e-01    1.910000e+00
  SN6r  SX4e  1 4.100000e-01    2.600000e+00
  SN6r  SX3e  1 4.100000e-01    2.350000e+00
  SN6r  SX2e  1 4.100000e-01    2.200000e+00
  SN6r  SX1e  1 4.100000e-01    2.040000e+00
  SP6q  SN6r  1 4.100000e-01    3.550000e+00
  SP5q  SN6r  1 4.100000e-01    3.310000e+00
  SP4q  SN6r  1 4.100000e-01    3.310000e+00
  SP3q  SN6r  1 4.100000e-01    3.310000e+00
  SP2q  SN6r  1 4.100000e-01    3.550000e+00
  SP1q  SN6r  1 4.100000e-01    3.550000e+00
  SN6r  SN6q  1 4.100000e-01    3.550000e+00
  SN6r  SX1q  1 4.100000e-01    2.200000e+00
  SN6r  SX2q  1 4.100000e-01    2.350000e+00
  SN6r  SX3q  1 4.100000e-01    2.600000e+00
  SN6r  SX4q  1 4.100000e-01    2.840000e+00
  SN6r  SC1q  1 4.100000e-01    2.040000e+00
  SN6r  SC2q  1 4.100000e-01    2.200000e+00
  SN6r  SC3q  1 4.100000e-01    2.200000e+00
  SN6r  SC4q  1 4.100000e-01    2.350000e+00
  SN6r  SC5q  1 4.100000e-01    2.600000e+00
  SN6r  SC6q  1 4.100000e-01    2.840000e+00
  SN6r  SN1q  1 4.100000e-01    2.840000e+00
  SN6r  SN2q  1 4.100000e-01    2.840000e+00
  SN6r  SN3q  1 4.100000e-01    3.070000e+00
  SN6r  SN4q  1 4.100000e-01    3.550000e+00
  SN6r  SN5q  1 4.100000e-01    3.550000e+00
  SP6d  SN5r  1 4.100000e-01    2.600000e+00
  SP5d  SN5r  1 4.100000e-01    2.600000e+00
  SP4d  SN5r  1 4.100000e-01    2.600000e+00
  SP3d  SN5r  1 4.100000e-01    2.600000e+00
  SP2d  SN5r  1 4.100000e-01    2.840000e+00
  SP1d  SN5r  1 4.100000e-01    2.840000e+00
  SN6d  SN5r  1 4.100000e-01    3.070000e+00
  SN5r  SN5d  1 4.100000e-01    2.840000e+00
  SN5r  SN1d  1 4.100000e-01    2.350000e+00
  SN5r  SN2d  1 4.100000e-01    2.600000e+00
  SN5r  SN3d  1 4.100000e-01    2.600000e+00
  SN5r  SN4d  1 4.100000e-01    2.840000e+00
  SP6a  SN5r  1 4.100000e-01    2.600000e+00
  SP5a  SN5r  1 4.100000e-01    2.600000e+00
  SP4a  SN5r  1 4.100000e-01    2.600000e+00
  SP3a  SN5r  1 4.100000e-01    2.600000e+00
  SP2a  SN5r  1 4.100000e-01    2.840000e+00
  SP1a  SN5r  1 4.100000e-01    2.840000e+00
  SN6a  SN5r  1 4.100000e-01    3.070000e+00
  SN5r  SN5a  1 4.100000e-01    2.840000e+00
  SN5r  SN1a  1 4.100000e-01    2.350000e+00
  SN5r  SN2a  1 4.100000e-01    2.600000e+00
  SN5r  SN3a  1 4.100000e-01    2.600000e+00
  SN5r  SN4a  1 4.100000e-01    2.840000e+00
  SN5r  SC6v  1 4.100000e-01    2.600000e+00
  SN5r  SC5v  1 4.100000e-01    2.350000e+00
  SN5r  SC4v  1 4.100000e-01    2.200000e+00
  SN5r  SC3v  1 4.100000e-01    2.200000e+00
  SN5r  SC2v  1 4.100000e-01    2.040000e+00
  SN5r  SC1v  1 4.100000e-01    1.910000e+00
  SN5r  SX4v  1 4.100000e-01    2.840000e+00
  SN5r  SX3v  1 4.100000e-01    2.600000e+00
  SN5r  SX2v  1 4.100000e-01    2.350000e+00
  SN5r  SX1v  1 4.100000e-01    2.200000e+00
  SN5r  SC6e  1 4.100000e-01    2.600000e+00
  SN5r  SC5e  1 4.100000e-01    2.350000e+00
  SN5r  SC4e  1 4.100000e-01    2.200000e+00
  SN5r  SC3e  1 4.100000e-01    2.200000e+00
  SN5r  SC2e  1 4.100000e-01    2.040000e+00
  SN5r  SC1e  1 4.100000e-01    1.910000e+00
  SN5r  SX4e  1 4.100000e-01    2.840000e+00
  SN5r  SX3e  1 4.100000e-01    2.600000e+00
  SN5r  SX2e  1 4.100000e-01    2.350000e+00
  SN5r  SX1e  1 4.100000e-01    2.200000e+00
  SP6q  SN5r  1 4.100000e-01    3.070000e+00
  SP5q  SN5r  1 4.100000e-01    3.070000e+00
  SP4q  SN5r  1 4.100000e-01    3.070000e+00
  SP3q  SN5r  1 4.100000e-01    3.070000e+00
  SP2q  SN5r  1 4.100000e-01    3.310000e+00
  SP1q  SN5r  1 4.100000e-01    3.310000e+00
  SN6q  SN5r  1 4.100000e-01    3.550000e+00
  SN5r  SN5q  1 4.100000e-01    3.310000e+00
  SN5r  SX1q  1 4.100000e-01    2.350000e+00
  SN5r  SX2q  1 4.100000e-01    2.600000e+00
  SN5r  SX3q  1 4.100000e-01    2.840000e+00
  SN5r  SX4q  1 4.100000e-01    3.070000e+00
  SN5r  SC1q  1 4.100000e-01    2.040000e+00
  SN5r  SC2q  1 4.100000e-01    2.200000e+00
  SN5r  SC3q  1 4.100000e-01    2.350000e+00
  SN5r  SC4q  1 4.100000e-01    2.350000e+00
  SN5r  SC5q  1 4.100000e-01    2.600000e+00
  SN5r  SC6q  1 4.100000e-01    2.840000e+00
  SN5r  SN1q  1 4.100000e-01    2.840000e+00
  SN5r  SN2q  1 4.100000e-01    3.070000e+00
  SN5r  SN3q  1 4.100000e-01    3.070000e+00
  SN5r  SN4q  1 4.100000e-01    3.310000e+00
  SP6d  SN4r  1 4.100000e-01    2.350000e+00
  SP5d  SN4r  1 4.100000e-01    2.600000e+00
  SP4d  SN4r  1 4.100000e-01    2.600000e+00
  SP3d  SN4r  1 4.100000e-01    2.600000e+00
  SP2d  SN4r  1 4.100000e-01    2.600000e+00
  SP1d  SN4r  1 4.100000e-01    2.840000e+00
  SN6d  SN4r  1 4.100000e-01    3.070000e+00
  SN5d  SN4r  1 4.100000e-01    2.840000e+00
  SN4r  SN4d  1 4.100000e-01    2.840000e+00
  SN4r  SN1d  1 4.100000e-01    2.350000e+00
  SN4r  SN2d  1 4.100000e-01    2.600000e+00
  SN4r  SN3d  1 4.100000e-01    2.600000e+00
  SP6a  SN4r  1 4.100000e-01    2.350000e+00
  SP5a  SN4r  1 4.100000e-01    2.600000e+00
  SP4a  SN4r  1 4.100000e-01    2.600000e+00
  SP3a  SN4r  1 4.100000e-01    2.600000e+00
  SP2a  SN4r  1 4.100000e-01    2.600000e+00
  SP1a  SN4r  1 4.100000e-01    2.840000e+00
  SN6a  SN4r  1 4.100000e-01    3.070000e+00
  SN5a  SN4r  1 4.100000e-01    2.840000e+00
  SN4r  SN4a  1 4.100000e-01    2.840000e+00
  SN4r  SN1a  1 4.100000e-01    2.350000e+00
  SN4r  SN2a  1 4.100000e-01    2.600000e+00
  SN4r  SN3a  1 4.100000e-01    2.600000e+00
  SN4r  SC6v  1 4.100000e-01    2.600000e+00
  SN4r  SC5v  1 4.100000e-01    2.350000e+00
  SN4r  SC4v  1 4.100000e-01    2.350000e+00
  SN4r  SC3v  1 4.100000e-01    2.200000e+00
  SN4r  SC2v  1 4.100000e-01    2.040000e+00
  SN4r  SC1v  1 4.100000e-01    1.910000e+00
  SN4r  SX4v  1 4.100000e-01    3.070000e+00
  SN4r  SX3v  1 4.100000e-01    2.840000e+00
  SN4r  SX2v  1 4.100000e-01    2.350000e+00
  SN4r  SX1v  1 4.100000e-01    2.200000e+00
  SN4r  SC6e  1 4.100000e-01    2.600000e+00
  SN4r  SC5e  1 4.100000e-01    2.350000e+00
  SN4r  SC4e  1 4.100000e-01    2.350000e+00
  SN4r  SC3e  1 4.100000e-01    2.200000e+00
  SN4r  SC2e  1 4.100000e-01    2.040000e+00
  SN4r  SC1e  1 4.100000e-01    1.910000e+00
  SN4r  SX4e  1 4.100000e-01    3.070000e+00
  SN4r  SX3e  1 4.100000e-01    2.840000e+00
  SN4r  SX2e  1 4.100000e-01    2.350000e+00
  SN4r  SX1e  1 4.100000e-01    2.200000e+00
  SP6q  SN4r  1 4.100000e-01    2.840000e+00
  SP5q  SN4r  1 4.100000e-01    3.070000e+00
  SP4q  SN4r  1 4.100000e-01    3.070000e+00
  SP3q  SN4r  1 4.100000e-01    3.070000e+00
  SP2q  SN4r  1 4.100000e-01    3.070000e+00
  SP1q  SN4r  1 4.100000e-01    3.310000e+00
  SN6q  SN4r  1 4.100000e-01    3.550000e+00
  SN5q  SN4r  1 4.100000e-01    3.310000e+00
  SN4r  SN4q  1 4.100000e-01    3.310000e+00
  SN4r  SX1q  1 4.100000e-01    2.350000e+00
  SN4r  SX2q  1 4.100000e-01    2.600000e+00
  SN4r  SX3q  1 4.100000e-01    3.070000e+00
  SN4r  SX4q  1 4.100000e-01    3.310000e+00
  SN4r  SC1q  1 4.100000e-01    2.040000e+00
  SN4r  SC2q  1 4.100000e-01    2.200000e+00
  SN4r  SC3q  1 4.100000e-01    2.350000e+00
  SN4r  SC4q  1 4.100000e-01    2.600000e+00
  SN4r  SC5q  1 4.100000e-01    2.600000e+00
  SN4r  SC6q  1 4.100000e-01    2.840000e+00
  SN4r  SN1q  1 4.100000e-01    2.840000e+00
  SN4r  SN2q  1 4.100000e-01    3.070000e+00
  SN4r  SN3q  1 4.100000e-01    3.070000e+00
  SP6d  SN3r  1 4.100000e-01    2.200000e+00
  SP5d  SN3r  1 4.100000e-01    2.200000e+00
  SP4d  SN3r  1 4.100000e-01    2.350000e+00
  SP3d  SN3r  1 4.100000e-01    2.350000e+00
  SP2d  SN3r  1 4.100000e-01    2.350000e+00
  SP1d  SN3r  1 4.100000e-01    2.350000e+00
  SN6d  SN3r  1 4.100000e-01    2.600000e+00
  SN5d  SN3r  1 4.100000e-01    2.600000e+00
  SN4d  SN3r  1 4.100000e-01    2.600000e+00
  SN3r  SN3d  1 4.100000e-01    2.600000e+00
  SN3r  SN1d  1 4.100000e-01    2.350000e+00
  SN3r  SN2d  1 4.100000e-01    2.600000e+00
  SP6a  SN3r  1 4.100000e-01    2.200000e+00
  SP5a  SN3r  1 4.100000e-01    2.200000e+00
  SP4a  SN3r  1 4.100000e-01    2.350000e+00
  SP3a  SN3r  1 4.100000e-01    2.350000e+00
  SP2a  SN3r  1 4.100000e-01    2.350000e+00
  SP1a  SN3r  1 4.100000e-01    2.350000e+00
  SN6a  SN3r  1 4.100000e-01    2.600000e+00
  SN5a  SN3r  1 4.100000e-01    2.600000e+00
  SN4a  SN3r  1 4.100000e-01    2.600000e+00
  SN3r  SN3a  1 4.100000e-01    2.600000e+00
  SN3r  SN1a  1 4.100000e-01    2.350000e+00
  SN3r  SN2a  1 4.100000e-01    2.600000e+00
  SN3r  SC6v  1 4.100000e-01    2.600000e+00
  SN3r  SC5v  1 4.100000e-01    2.350000e+00
  SN3r  SC4v  1 4.100000e-01    2.350000e+00
  SN3r  SC3v  1 4.100000e-01    2.200000e+00
  SN3r  SC2v  1 4.100000e-01    2.200000e+00
  SN3r  SC1v  1 4.100000e-01    2.040000e+00
  SN3r  SX4v  1 4.100000e-01    2.840000e+00
  SN3r  SX3v  1 4.100000e-01    2.600000e+00
  SN3r  SX2v  1 4.100000e-01    2.350000e+00
  SN3r  SX1v  1 4.100000e-01    2.350000e+00
  SN3r  SC6e  1 4.100000e-01    2.600000e+00
  SN3r  SC5e  1 4.100000e-01    2.350000e+00
  SN3r  SC4e  1 4.100000e-01    2.350000e+00
  SN3r  SC3e  1 4.100000e-01    2.200000e+00
  SN3r  SC2e  1 4.100000e-01    2.200000e+00
  SN3r  SC1e  1 4.100000e-01    2.040000e+00
  SN3r  SX4e  1 4.100000e-01    2.840000e+00
  SN3r  SX3e  1 4.100000e-01    2.600000e+00
  SN3r  SX2e  1 4.100000e-01    2.350000e+00
  SN3r  SX1e  1 4.100000e-01    2.350000e+00
  SP6q  SN3r  1 4.100000e-01    2.600000e+00
  SP5q  SN3r  1 4.100000e-01    2.600000e+00
  SP4q  SN3r  1 4.100000e-01    2.840000e+00
  SP3q  SN3r  1 4.100000e-01    2.840000e+00
  SP2q  SN3r  1 4.100000e-01    2.840000e+00
  SP1q  SN3r  1 4.100000e-01    2.840000e+00
  SN6q  SN3r  1 4.100000e-01    3.070000e+00
  SN5q  SN3r  1 4.100000e-01    3.070000e+00
  SN4q  SN3r  1 4.100000e-01    3.070000e+00
  SN3r  SN3q  1 4.100000e-01    3.070000e+00
  SN3r  SX1q  1 4.100000e-01    2.600000e+00
  SN3r  SX2q  1 4.100000e-01    2.600000e+00
  SN3r  SX3q  1 4.100000e-01    2.840000e+00
  SN3r  SX4q  1 4.100000e-01    3.070000e+00
  SN3r  SC1q  1 4.100000e-01    2.200000e+00
  SN3r  SC2q  1 4.100000e-01    2.350000e+00
  SN3r  SC3q  1 4.100000e-01    2.350000e+00
  SN3r  SC4q  1 4.100000e-01    2.600000e+00
  SN3r  SC5q  1 4.100000e-01    2.600000e+00
  SN3r  SC6q  1 4.100000e-01    2.840000e+00
  SN3r  SN1q  1 4.100000e-01    2.840000e+00
  SN3r  SN2q  1 4.100000e-01    3.070000e+00
  SP6d  SN2r  1 4.100000e-01    2.040000e+00
  SP5d  SN2r  1 4.100000e-01    2.040000e+00
  SP4d  SN2r  1 4.100000e-01    2.200000e+00
  SP3d  SN2r  1 4.100000e-01    2.350000e+00
  SP2d  SN2r  1 4.100000e-01    2.350000e+00
  SP1d  SN2r  1 4.100000e-01    2.350000e+00
  SN6d  SN2r  1 4.100000e-01    2.350000e+00
  SN5d  SN2r  1 4.100000e-01    2.600000e+00
  SN4d  SN2r  1 4.100000e-01    2.600000e+00
  SN3d  SN2r  1 4.100000e-01    2.600000e+00
  SN2r  SN2d  1 4.100000e-01    2.600000e+00
  SN2r  SN1d  1 4.100000e-01    2.350000e+00
  SP6a  SN2r  1 4.100000e-01    2.040000e+00
  SP5a  SN2r  1 4.100000e-01    2.040000e+00
  SP4a  SN2r  1 4.100000e-01    2.200000e+00
  SP3a  SN2r  1 4.100000e-01    2.350000e+00
  SP2a  SN2r  1 4.100000e-01    2.350000e+00
  SP1a  SN2r  1 4.100000e-01    2.350000e+00
  SN6a  SN2r  1 4.100000e-01    2.350000e+00
  SN5a  SN2r  1 4.100000e-01    2.600000e+00
  SN4a  SN2r  1 4.100000e-01    2.600000e+00
  SN3a  SN2r  1 4.100000e-01    2.600000e+00
  SN2r  SN2a  1 4.100000e-01    2.600000e+00
  SN2r  SN1a  1 4.100000e-01    2.350000e+00
  SN2r  SC6v  1 4.100000e-01    2.600000e+00
  SN2r  SC5v  1 4.100000e-01    2.350000e+00
  SN2r  SC4v  1 4.100000e-01    2.350000e+00
  SN2r  SC3v  1 4.100000e-01    2.350000e+00
  SN2r  SC2v  1 4.100000e-01    2.200000e+00
  SN2r  SC1v  1 4.100000e-01    2.040000e+00
  SN2r  SX4v  1 4.100000e-01    2.840000e+00
  SN2r  SX3v  1 4.100000e-01    2.600000e+00
  SN2r  SX2v  1 4.100000e-01    2.350000e+00
  SN2r  SX1v  1 4.100000e-01    2.350000e+00
  SN2r  SC6e  1 4.100000e-01    2.600000e+00
  SN2r  SC5e  1 4.100000e-01    2.350000e+00
  SN2r  SC4e  1 4.100000e-01    2.350000e+00
  SN2r  SC3e  1 4.100000e-01    2.350000e+00
  SN2r  SC2e  1 4.100000e-01    2.200000e+00
  SN2r  SC1e  1 4.100000e-01    2.040000e+00
  SN2r  SX4e  1 4.100000e-01    2.840000e+00
  SN2r  SX3e  1 4.100000e-01    2.600000e+00
  SN2r  SX2e  1 4.100000e-01    2.350000e+00
  SN2r  SX1e  1 4.100000e-01    2.350000e+00
  SP6q  SN2r  1 4.100000e-01    2.350000e+00
  SP5q  SN2r  1 4.100000e-01    2.350000e+00
  SP4q  SN2r  1 4.100000e-01    2.600000e+00
  SP3q  SN2r  1 4.100000e-01    2.840000e+00
  SP2q  SN2r  1 4.100000e-01    2.840000e+00
  SP1q  SN2r  1 4.100000e-01    2.840000e+00
  SN6q  SN2r  1 4.100000e-01    2.840000e+00
  SN5q  SN2r  1 4.100000e-01    3.070000e+00
  SN4q  SN2r  1 4.100000e-01    3.070000e+00
  SN3q  SN2r  1 4.100000e-01    3.070000e+00
  SN2r  SN2q  1 4.100000e-01    3.070000e+00
  SN2r  SX1q  1 4.100000e-01    2.600000e+00
  SN2r  SX2q  1 4.100000e-01    2.600000e+00
  SN2r  SX3q  1 4.100000e-01    2.840000e+00
  SN2r  SX4q  1 4.100000e-01    3.070000e+00
  SN2r  SC1q  1 4.100000e-01    2.200000e+00
  SN2r  SC2q  1 4.100000e-01    2.350000e+00
  SN2r  SC3q  1 4.100000e-01    2.600000e+00
  SN2r  SC4q  1 4.100000e-01    2.600000e+00
  SN2r  SC5q  1 4.100000e-01    2.600000e+00
  SN2r  SC6q  1 4.100000e-01    2.840000e+00
  SN2r  SN1q  1 4.100000e-01    2.840000e+00
  SP6d  SN1r  1 4.100000e-01    1.910000e+00
  SP5d  SN1r  1 4.100000e-01    1.910000e+00
  SP4d  SN1r  1 4.100000e-01    2.040000e+00
  SP3d  SN1r  1 4.100000e-01    2.200000e+00
  SP2d  SN1r  1 4.100000e-01    2.350000e+00
  SP1d  SN1r  1 4.100000e-01    2.350000e+00
  SN6d  SN1r  1 4.100000e-01    2.350000e+00
  SN5d  SN1r  1 4.100000e-01    2.350000e+00
  SN4d  SN1r  1 4.100000e-01    2.350000e+00
  SN3d  SN1r  1 4.100000e-01    2.350000e+00
  SN2d  SN1r  1 4.100000e-01    2.350000e+00
  SN1r  SN1d  1 4.100000e-01    2.600000e+00
  SP6a  SN1r  1 4.100000e-01    1.910000e+00
  SP5a  SN1r  1 4.100000e-01    1.910000e+00
  SP4a  SN1r  1 4.100000e-01    2.040000e+00
  SP3a  SN1r  1 4.100000e-01    2.200000e+00
  SP2a  SN1r  1 4.100000e-01    2.350000e+00
  SP1a  SN1r  1 4.100000e-01    2.350000e+00
  SN6a  SN1r  1 4.100000e-01    2.350000e+00
  SN5a  SN1r  1 4.100000e-01    2.350000e+00
  SN4a  SN1r  1 4.100000e-01    2.350000e+00
  SN3a  SN1r  1 4.100000e-01    2.350000e+00
  SN2a  SN1r  1 4.100000e-01    2.350000e+00
  SN1r  SN1a  1 4.100000e-01    2.600000e+00
  SN1r  SC6v  1 4.100000e-01    2.840000e+00
  SN1r  SC5v  1 4.100000e-01    2.600000e+00
  SN1r  SC4v  1 4.100000e-01    2.600000e+00
  SN1r  SC3v  1 4.100000e-01    2.350000e+00
  SN1r  SC2v  1 4.100000e-01    2.200000e+00
  SN1r  SC1v  1 4.100000e-01    2.040000e+00
  SN1r  SX4v  1 4.100000e-01    2.600000e+00
  SN1r  SX3v  1 4.100000e-01    2.600000e+00
  SN1r  SX2v  1 4.100000e-01    2.350000e+00
  SN1r  SX1v  1 4.100000e-01    2.350000e+00
  SN1r  SC6e  1 4.100000e-01    2.840000e+00
  SN1r  SC5e  1 4.100000e-01    2.600000e+00
  SN1r  SC4e  1 4.100000e-01    2.600000e+00
  SN1r  SC3e  1 4.100000e-01    2.350000e+00
  SN1r  SC2e  1 4.100000e-01    2.200000e+00
  SN1r  SC1e  1 4.100000e-01    2.040000e+00
  SN1r  SX4e  1 4.100000e-01    2.600000e+00
  SN1r  SX3e  1 4.100000e-01    2.600000e+00
  SN1r  SX2e  1 4.100000e-01    2.350000e+00
  SN1r  SX1e  1 4.100000e-01    2.350000e+00
  SP6q  SN1r  1 4.100000e-01    2.200000e+00
  SP5q  SN1r  1 4.100000e-01    2.200000e+00
  SP4q  SN1r  1 4.100000e-01    2.350000e+00
  SP3q  SN1r  1 4.100000e-01    2.600000e+00
  SP2q  SN1r  1 4.100000e-01    2.840000e+00
  SP1q  SN1r  1 4.100000e-01    2.840000e+00
  SN6q  SN1r  1 4.100000e-01    2.840000e+00
  SN5q  SN1r  1 4.100000e-01    2.840000e+00
  SN4q  SN1r  1 4.100000e-01    2.840000e+00
  SN3q  SN1r  1 4.100000e-01    2.840000e+00
  SN2q  SN1r  1 4.100000e-01    2.840000e+00
  SN1r  SN1q  1 4.100000e-01    3.070000e+00
  SN1r  SX1q  1 4.100000e-01    2.600000e+00
  SN1r  SX2q  1 4.100000e-01    2.600000e+00
  SN1r  SX3q  1 4.100000e-01    2.840000e+00
  SN1r  SX4q  1 4.100000e-01    2.840000e+00
  SN1r  SC1q  1 4.100000e-01    2.200000e+00
  SN1r  SC2q  1 4.100000e-01    2.350000e+00
  SN1r  SC3q  1 4.100000e-01    2.600000e+00
  SN1r  SC4q  1 4.100000e-01    2.840000e+00
  SN1r  SC5q  1 4.100000e-01    2.840000e+00
  SN1r  SC6q  1 4.100000e-01    3.070000e+00
  SP6d  SC6r  1 4.100000e-01    1.910000e+00
  SP5d  SC6r  1 4.100000e-01    1.910000e+00
  SP4d  SC6r  1 4.100000e-01    2.040000e+00
  SP3d  SC6r  1 4.100000e-01    2.200000e+00
  SP2d  SC6r  1 4.100000e-01    2.200000e+00
  SP1d  SC6r  1 4.100000e-01    2.200000e+00
  SN6d  SC6r  1 4.100000e-01    2.350000e+00
  SN5d  SC6r  1 4.100000e-01    2.350000e+00
  SN4d  SC6r  1 4.100000e-01    2.350000e+00
  SN3d  SC6r  1 4.100000e-01    2.350000e+00
  SN2d  SC6r  1 4.100000e-01    2.350000e+00
  SN1d  SC6r  1 4.100000e-01    2.600000e+00
  SP6a  SC6r  1 4.100000e-01    1.910000e+00
  SP5a  SC6r  1 4.100000e-01    1.910000e+00
  SP4a  SC6r  1 4.100000e-01    2.040000e+00
  SP3a  SC6r  1 4.100000e-01    2.200000e+00
  SP2a  SC6r  1 4.100000e-01    2.200000e+00
  SP1a  SC6r  1 4.100000e-01    2.200000e+00
  SN6a  SC6r  1 4.100000e-01    2.350000e+00
  SN5a  SC6r  1 4.100000e-01    2.350000e+00
  SN4a  SC6r  1 4.100000e-01    2.350000e+00
  SN3a  SC6r  1 4.100000e-01    2.350000e+00
  SN2a  SC6r  1 4.100000e-01    2.350000e+00
  SN1a  SC6r  1 4.100000e-01    2.600000e+00
  SC6r  SC6v  1 4.100000e-01    2.840000e+00
  SC6r  SX1v  1 4.100000e-01    2.600000e+00
  SC6r  SX2v  1 4.100000e-01    2.600000e+00
  SC6r  SX3v  1 4.100000e-01    2.600000e+00
  SC6r  SX4v  1 4.100000e-01    2.600000e+00
  SC6r  SC1v  1 4.100000e-01    2.040000e+00
  SC6r  SC2v  1 4.100000e-01    2.200000e+00
  SC6r  SC3v  1 4.100000e-01    2.350000e+00
  SC6r  SC4v  1 4.100000e-01    2.600000e+00
  SC6r  SC5v  1 4.100000e-01    2.600000e+00
  SC6r  SC6e  1 4.100000e-01    2.840000e+00
  SC6r  SX1e  1 4.100000e-01    2.600000e+00
  SC6r  SX2e  1 4.100000e-01    2.600000e+00
  SC6r  SX3e  1 4.100000e-01    2.600000e+00
  SC6r  SX4e  1 4.100000e-01    2.600000e+00
  SC6r  SC1e  1 4.100000e-01    2.040000e+00
  SC6r  SC2e  1 4.100000e-01    2.200000e+00
  SC6r  SC3e  1 4.100000e-01    2.350000e+00
  SC6r  SC4e  1 4.100000e-01    2.600000e+00
  SC6r  SC5e  1 4.100000e-01    2.600000e+00
  SP6q  SC6r  1 4.100000e-01    2.200000e+00
  SP5q  SC6r  1 4.100000e-01    2.200000e+00
  SP4q  SC6r  1 4.100000e-01    2.350000e+00
  SP3q  SC6r  1 4.100000e-01    2.600000e+00
  SP2q  SC6r  1 4.100000e-01    2.600000e+00
  SP1q  SC6r  1 4.100000e-01    2.600000e+00
  SN6q  SC6r  1 4.100000e-01    2.840000e+00
  SN5q  SC6r  1 4.100000e-01    2.840000e+00
  SN4q  SC6r  1 4.100000e-01    2.840000e+00
  SN3q  SC6r  1 4.100000e-01    2.840000e+00
  SN2q  SC6r  1 4.100000e-01    2.840000e+00
  SN1q  SC6r  1 4.100000e-01    3.070000e+00
  SC6r  SC6q  1 4.100000e-01    3.070000e+00
  SC6r  SX1q  1 4.100000e-01    2.840000e+00
  SC6r  SX2q  1 4.100000e-01    2.840000e+00
  SC6r  SX3q  1 4.100000e-01    2.840000e+00
  SC6r  SX4q  1 4.100000e-01    2.840000e+00
  SC6r  SC1q  1 4.100000e-01    2.200000e+00
  SC6r  SC2q  1 4.100000e-01    2.350000e+00
  SC6r  SC3q  1 4.100000e-01    2.600000e+00
  SC6r  SC4q  1 4.100000e-01    2.840000e+00
  SC6r  SC5q  1 4.100000e-01    2.840000e+00
  SP6d  SC5r  1 4.100000e-01    1.750000e+00
  SP5d  SC5r  1 4.100000e-01    1.910000e+00
  SP4d  SC5r  1 4.100000e-01    1.910000e+00
  SP3d  SC5r  1 4.100000e-01    2.040000e+00
  SP2d  SC5r  1 4.100000e-01    2.040000e+00
  SP1d  SC5r  1 4.100000e-01    2.040000e+00
  SN6d  SC5r  1 4.100000e-01    2.200000e+00
  SN5d  SC5r  1 4.100000e-01    2.200000e+00
  SN4d  SC5r  1 4.100000e-01    2.200000e+00
  SN3d  SC5r  1 4.100000e-01    2.200000e+00
  SN2d  SC5r  1 4.100000e-01    2.200000e+00
  SN1d  SC5r  1 4.100000e-01    2.350000e+00
  SP6a  SC5r  1 4.100000e-01    1.750000e+00
  SP5a  SC5r  1 4.100000e-01    1.910000e+00
  SP4a  SC5r  1 4.100000e-01    1.910000e+00
  SP3a  SC5r  1 4.100000e-01    2.040000e+00
  SP2a  SC5r  1 4.100000e-01    2.040000e+00
  SP1a  SC5r  1 4.100000e-01    2.040000e+00
  SN6a  SC5r  1 4.100000e-01    2.200000e+00
  SN5a  SC5r  1 4.100000e-01    2.200000e+00
  SN4a  SC5r  1 4.100000e-01    2.200000e+00
  SN3a  SC5r  1 4.100000e-01    2.200000e+00
  SN2a  SC5r  1 4.100000e-01    2.200000e+00
  SN1a  SC5r  1 4.100000e-01    2.350000e+00
  SC6v  SC5r  1 4.100000e-01    2.600000e+00
  SC5r  SC5v  1 4.100000e-01    2.600000e+00
  SC5r  SX1v  1 4.100000e-01    2.600000e+00
  SC5r  SX2v  1 4.100000e-01    2.350000e+00
  SC5r  SX3v  1 4.100000e-01    2.350000e+00
  SC5r  SX4v  1 4.100000e-01    2.350000e+00
  SC5r  SC1v  1 4.100000e-01    2.200000e+00
  SC5r  SC2v  1 4.100000e-01    2.200000e+00
  SC5r  SC3v  1 4.100000e-01    2.350000e+00
  SC5r  SC4v  1 4.100000e-01    2.600000e+00
  SC6e  SC5r  1 4.100000e-01    2.600000e+00
  SC5r  SC5e  1 4.100000e-01    2.600000e+00
  SC5r  SX1e  1 4.100000e-01    2.600000e+00
  SC5r  SX2e  1 4.100000e-01    2.350000e+00
  SC5r  SX3e  1 4.100000e-01    2.350000e+00
  SC5r  SX4e  1 4.100000e-01    2.350000e+00
  SC5r  SC1e  1 4.100000e-01    2.200000e+00
  SC5r  SC2e  1 4.100000e-01    2.200000e+00
  SC5r  SC3e  1 4.100000e-01    2.350000e+00
  SC5r  SC4e  1 4.100000e-01    2.600000e+00
  SP6q  SC5r  1 4.100000e-01    2.040000e+00
  SP5q  SC5r  1 4.100000e-01    2.200000e+00
  SP4q  SC5r  1 4.100000e-01    2.200000e+00
  SP3q  SC5r  1 4.100000e-01    2.350000e+00
  SP2q  SC5r  1 4.100000e-01    2.350000e+00
  SP1q  SC5r  1 4.100000e-01    2.350000e+00
  SN6q  SC5r  1 4.100000e-01    2.600000e+00
  SN5q  SC5r  1 4.100000e-01    2.600000e+00
  SN4q  SC5r  1 4.100000e-01    2.600000e+00
  SN3q  SC5r  1 4.100000e-01    2.600000e+00
  SN2q  SC5r  1 4.100000e-01    2.600000e+00
  SN1q  SC5r  1 4.100000e-01    2.840000e+00
  SC6q  SC5r  1 4.100000e-01    2.840000e+00
  SC5r  SC5q  1 4.100000e-01    2.840000e+00
  SC5r  SX1q  1 4.100000e-01    2.840000e+00
  SC5r  SX2q  1 4.100000e-01    2.600000e+00
  SC5r  SX3q  1 4.100000e-01    2.600000e+00
  SC5r  SX4q  1 4.100000e-01    2.600000e+00
  SC5r  SC1q  1 4.100000e-01    2.350000e+00
  SC5r  SC2q  1 4.100000e-01    2.350000e+00
  SC5r  SC3q  1 4.100000e-01    2.600000e+00
  SC5r  SC4q  1 4.100000e-01    2.840000e+00
  SP6d  SC4r  1 4.140000e-01    1.560000e+00
  SP5d  SC4r  1 4.100000e-01    1.750000e+00
  SP4d  SC4r  1 4.100000e-01    1.750000e+00
  SP3d  SC4r  1 4.100000e-01    1.910000e+00
  SP2d  SC4r  1 4.100000e-01    1.910000e+00
  SP1d  SC4r  1 4.100000e-01    1.910000e+00
  SN6d  SC4r  1 4.100000e-01    2.040000e+00
  SN5d  SC4r  1 4.100000e-01    2.040000e+00
  SN4d  SC4r  1 4.100000e-01    2.200000e+00
  SN3d  SC4r  1 4.100000e-01    2.200000e+00
  SN2d  SC4r  1 4.100000e-01    2.200000e+00
  SN1d  SC4r  1 4.100000e-01    2.350000e+00
  SP6a  SC4r  1 4.140000e-01    1.560000e+00
  SP5a  SC4r  1 4.100000e-01    1.750000e+00
  SP4a  SC4r  1 4.100000e-01    1.750000e+00
  SP3a  SC4r  1 4.100000e-01    1.910000e+00
  SP2a  SC4r  1 4.100000e-01    1.910000e+00
  SP1a  SC4r  1 4.100000e-01    1.910000e+00
  SN6a  SC4r  1 4.100000e-01    2.040000e+00
  SN5a  SC4r  1 4.100000e-01    2.040000e+00
  SN4a  SC4r  1 4.100000e-01    2.200000e+00
  SN3a  SC4r  1 4.100000e-01    2.200000e+00
  SN2a  SC4r  1 4.100000e-01    2.200000e+00
  SN1a  SC4r  1 4.100000e-01    2.350000e+00
  SC6v  SC4r  1 4.100000e-01    2.600000e+00
  SC5v  SC4r  1 4.100000e-01    2.600000e+00
  SC4r  SC4v  1 4.100000e-01    2.600000e+00
  SC4r  SX1v  1 4.100000e-01    2.600000e+00
  SC4r  SX2v  1 4.100000e-01    2.350000e+00
  SC4r  SX3v  1 4.100000e-01    2.350000e+00
  SC4r  SX4v  1 4.100000e-01    2.350000e+00
  SC4r  SC1v  1 4.100000e-01    2.200000e+00
  SC4r  SC2v  1 4.100000e-01    2.350000e+00
  SC4r  SC3v  1 4.100000e-01    2.600000e+00
  SC6e  SC4r  1 4.100000e-01    2.600000e+00
  SC5e  SC4r  1 4.100000e-01    2.600000e+00
  SC4r  SC4e  1 4.100000e-01    2.600000e+00
  SC4r  SX1e  1 4.100000e-01    2.600000e+00
  SC4r  SX2e  1 4.100000e-01    2.350000e+00
  SC4r  SX3e  1 4.100000e-01    2.350000e+00
  SC4r  SX4e  1 4.100000e-01    2.350000e+00
  SC4r  SC1e  1 4.100000e-01    2.200000e+00
  SC4r  SC2e  1 4.100000e-01    2.350000e+00
  SC4r  SC3e  1 4.100000e-01    2.600000e+00
  SP6q  SC4r  1 4.100000e-01    1.910000e+00
  SP5q  SC4r  1 4.100000e-01    2.040000e+00
  SP4q  SC4r  1 4.100000e-01    2.040000e+00
  SP3q  SC4r  1 4.100000e-01    2.200000e+00
  SP2q  SC4r  1 4.100000e-01    2.200000e+00
  SP1q  SC4r  1 4.100000e-01    2.200000e+00
  SN6q  SC4r  1 4.100000e-01    2.350000e+00
  SN5q  SC4r  1 4.100000e-01    2.350000e+00
  SN4q  SC4r  1 4.100000e-01    2.600000e+00
  SN3q  SC4r  1 4.100000e-01    2.600000e+00
  SN2q  SC4r  1 4.100000e-01    2.600000e+00
  SN1q  SC4r  1 4.100000e-01    2.840000e+00
  SC6q  SC4r  1 4.100000e-01    2.840000e+00
  SC5q  SC4r  1 4.100000e-01    2.840000e+00
  SC4r  SC4q  1 4.100000e-01    2.840000e+00
  SC4r  SX1q  1 4.100000e-01    2.840000e+00
  SC4r  SX2q  1 4.100000e-01    2.600000e+00
  SC4r  SX3q  1 4.100000e-01    2.600000e+00
  SC4r  SX4q  1 4.100000e-01    2.600000e+00
  SC4r  SC1q  1 4.100000e-01    2.350000e+00
  SC4r  SC2q  1 4.100000e-01    2.600000e+00
  SC4r  SC3q  1 4.100000e-01    2.840000e+00
  SP6d  SC3r  1 4.180000e-01    1.400000e+00
  SP5d  SC3r  1 4.140000e-01    1.560000e+00
  SP4d  SC3r  1 4.140000e-01    1.560000e+00
  SP3d  SC3r  1 4.140000e-01    1.560000e+00
  SP2d  SC3r  1 4.100000e-01    1.750000e+00
  SP1d  SC3r  1 4.100000e-01    1.750000e+00
  SN6d  SC3r  1 4.100000e-01    1.910000e+00
  SN5d  SC3r  1 4.100000e-01    2.040000e+00
  SN4d  SC3r  1 4.100000e-01    2.040000e+00
  SN3d  SC3r  1 4.100000e-01    2.040000e+00
  SN2d  SC3r  1 4.100000e-01    2.200000e+00
  SN1d  SC3r  1 4.100000e-01    2.200000e+00
  SP6a  SC3r  1 4.180000e-01    1.400000e+00
  SP5a  SC3r  1 4.140000e-01    1.560000e+00
  SP4a  SC3r  1 4.140000e-01    1.560000e+00
  SP3a  SC3r  1 4.140000e-01    1.560000e+00
  SP2a  SC3r  1 4.100000e-01    1.750000e+00
  SP1a  SC3r  1 4.100000e-01    1.750000e+00
  SN6a  SC3r  1 4.100000e-01    1.910000e+00
  SN5a  SC3r  1 4.100000e-01    2.040000e+00
  SN4a  SC3r  1 4.100000e-01    2.040000e+00
  SN3a  SC3r  1 4.100000e-01    2.040000e+00
  SN2a  SC3r  1 4.100000e-01    2.200000e+00
  SN1a  SC3r  1 4.100000e-01    2.200000e+00
  SC6v  SC3r  1 4.100000e-01    2.350000e+00
  SC5v  SC3r  1 4.100000e-01    2.350000e+00
  SC4v  SC3r  1 4.100000e-01    2.600000e+00
  SC3r  SC3v  1 4.100000e-01    2.600000e+00
  SC3r  SX1v  1 4.100000e-01    2.600000e+00
  SC3r  SX2v  1 4.100000e-01    2.350000e+00
  SC3r  SX3v  1 4.100000e-01    2.350000e+00
  SC3r  SX4v  1 4.100000e-01    2.350000e+00
  SC3r  SC1v  1 4.100000e-01    2.600000e+00
  SC3r  SC2v  1 4.100000e-01    2.600000e+00
  SC6e  SC3r  1 4.100000e-01    2.350000e+00
  SC5e  SC3r  1 4.100000e-01    2.350000e+00
  SC4e  SC3r  1 4.100000e-01    2.600000e+00
  SC3r  SC3e  1 4.100000e-01    2.600000e+00
  SC3r  SX1e  1 4.100000e-01    2.600000e+00
  SC3r  SX2e  1 4.100000e-01    2.350000e+00
  SC3r  SX3e  1 4.100000e-01    2.350000e+00
  SC3r  SX4e  1 4.100000e-01    2.350000e+00
  SC3r  SC1e  1 4.100000e-01    2.600000e+00
  SC3r  SC2e  1 4.100000e-01    2.600000e+00
  SP6q  SC3r  1 4.100000e-01    1.750000e+00
  SP5q  SC3r  1 4.100000e-01    1.910000e+00
  SP4q  SC3r  1 4.100000e-01    1.910000e+00
  SP3q  SC3r  1 4.100000e-01    1.910000e+00
  SP2q  SC3r  1 4.100000e-01    2.040000e+00
  SP1q  SC3r  1 4.100000e-01    2.040000e+00
  SN6q  SC3r  1 4.100000e-01    2.200000e+00
  SN5q  SC3r  1 4.100000e-01    2.350000e+00
  SN4q  SC3r  1 4.100000e-01    2.350000e+00
  SN3q  SC3r  1 4.100000e-01    2.350000e+00
  SN2q  SC3r  1 4.100000e-01    2.600000e+00
  SN1q  SC3r  1 4.100000e-01    2.600000e+00
  SC6q  SC3r  1 4.100000e-01    2.600000e+00
  SC5q  SC3r  1 4.100000e-01    2.600000e+00
  SC4q  SC3r  1 4.100000e-01    2.840000e+00
  SC3r  SC3q  1 4.100000e-01    2.840000e+00
  SC3r  SX1q  1 4.100000e-01    2.840000e+00
  SC3r  SX2q  1 4.100000e-01    2.600000e+00
  SC3r  SX3q  1 4.100000e-01    2.600000e+00
  SC3r  SX4q  1 4.100000e-01    2.600000e+00
  SC3r  SC1q  1 4.100000e-01    2.840000e+00
  SC3r  SC2q  1 4.100000e-01    2.840000e+00
  SP6d  SC2r  1 4.180000e-01    1.400000e+00
  SP5d  SC2r  1 4.140000e-01    1.560000e+00
  SP4d  SC2r  1 4.140000e-01    1.560000e+00
  SP3d  SC2r  1 4.140000e-01    1.560000e+00
  SP2d  SC2r  1 4.100000e-01    1.750000e+00
  SP1d  SC2r  1 4.100000e-01    1.750000e+00
  SN6d  SC2r  1 4.100000e-01    1.910000e+00
  SN5d  SC2r  1 4.100000e-01    1.910000e+00
  SN4d  SC2r  1 4.100000e-01    1.910000e+00
  SN3d  SC2r  1 4.100000e-01    2.040000e+00
  SN2d  SC2r  1 4.100000e-01    2.040000e+00
  SN1d  SC2r  1 4.100000e-01    2.040000e+00
  SP6a  SC2r  1 4.180000e-01    1.400000e+00
  SP5a  SC2r  1 4.140000e-01    1.560000e+00
  SP4a  SC2r  1 4.140000e-01    1.560000e+00
  SP3a  SC2r  1 4.140000e-01    1.560000e+00
  SP2a  SC2r  1 4.100000e-01    1.750000e+00
  SP1a  SC2r  1 4.100000e-01    1.750000e+00
  SN6a  SC2r  1 4.100000e-01    1.910000e+00
  SN5a  SC2r  1 4.100000e-01    1.910000e+00
  SN4a  SC2r  1 4.100000e-01    1.910000e+00
  SN3a  SC2r  1 4.100000e-01    2.040000e+00
  SN2a  SC2r  1 4.100000e-01    2.040000e+00
  SN1a  SC2r  1 4.100000e-01    2.040000e+00
  SC6v  SC2r  1 4.100000e-01    2.200000e+00
  SC5v  SC2r  1 4.100000e-01    2.200000e+00
  SC4v  SC2r  1 4.100000e-01    2.350000e+00
  SC3v  SC2r  1 4.100000e-01    2.600000e+00
  SC2r  SC2v  1 4.100000e-01    2.600000e+00
  SC2r  SX1v  1 4.100000e-01    2.350000e+00
  SC2r  SX2v  1 4.100000e-01    2.350000e+00
  SC2r  SX3v  1 4.100000e-01    2.350000e+00
  SC2r  SX4v  1 4.100000e-01    2.040000e+00
  SC2r  SC1v  1 4.100000e-01    2.840000e+00
  SC6e  SC2r  1 4.100000e-01    2.200000e+00
  SC5e  SC2r  1 4.100000e-01    2.200000e+00
  SC4e  SC2r  1 4.100000e-01    2.350000e+00
  SC3e  SC2r  1 4.100000e-01    2.600000e+00
  SC2r  SC2e  1 4.100000e-01    2.600000e+00
  SC2r  SX1e  1 4.100000e-01    2.350000e+00
  SC2r  SX2e  1 4.100000e-01    2.350000e+00
  SC2r  SX3e  1 4.100000e-01    2.350000e+00
  SC2r  SX4e  1 4.100000e-01    2.040000e+00
  SC2r  SC1e  1 4.100000e-01    2.840000e+00
  SP6q  SC2r  1 4.100000e-01    1.750000e+00
  SP5q  SC2r  1 4.100000e-01    1.910000e+00
  SP4q  SC2r  1 4.100000e-01    1.910000e+00
  SP3q  SC2r  1 4.100000e-01    1.910000e+00
  SP2q  SC2r  1 4.100000e-01    2.040000e+00
  SP1q  SC2r  1 4.100000e-01    2.040000e+00
  SN6q  SC2r  1 4.100000e-01    2.200000e+00
  SN5q  SC2r  1 4.100000e-01    2.200000e+00
  SN4q  SC2r  1 4.100000e-01    2.200000e+00
  SN3q  SC2r  1 4.100000e-01    2.350000e+00
  SN2q  SC2r  1 4.100000e-01    2.350000e+00
  SN1q  SC2r  1 4.100000e-01    2.350000e+00
  SC6q  SC2r  1 4.100000e-01    2.350000e+00
  SC5q  SC2r  1 4.100000e-01    2.350000e+00
  SC4q  SC2r  1 4.100000e-01    2.600000e+00
  SC3q  SC2r  1 4.100000e-01    2.840000e+00
  SC2r  SC2q  1 4.100000e-01    2.840000e+00
  SC2r  SX1q  1 4.100000e-01    2.600000e+00
  SC2r  SX2q  1 4.100000e-01    2.600000e+00
  SC2r  SX3q  1 4.100000e-01    2.600000e+00
  SC2r  SX4q  1 4.100000e-01    2.200000e+00
  SC2r  SC1q  1 4.100000e-01    3.070000e+00
  SP6d  SC1r  1 4.530000e-01    1.150000e+00
  SP5d  SC1r  1 4.180000e-01    1.400000e+00
  SP4d  SC1r  1 4.180000e-01    1.400000e+00
  SP3d  SC1r  1 4.180000e-01    1.400000e+00
  SP2d  SC1r  1 4.140000e-01    1.560000e+00
  SP1d  SC1r  1 4.140000e-01    1.560000e+00
  SN6d  SC1r  1 4.100000e-01    1.750000e+00
  SN5d  SC1r  1 4.100000e-01    1.750000e+00
  SN4d  SC1r  1 4.100000e-01    1.750000e+00
  SN3d  SC1r  1 4.100000e-01    1.910000e+00
  SN2d  SC1r  1 4.100000e-01    1.910000e+00
  SN1d  SC1r  1 4.100000e-01    1.910000e+00
  SP6a  SC1r  1 4.530000e-01    1.150000e+00
  SP5a  SC1r  1 4.180000e-01    1.400000e+00
  SP4a  SC1r  1 4.180000e-01    1.400000e+00
  SP3a  SC1r  1 4.180000e-01    1.400000e+00
  SP2a  SC1r  1 4.140000e-01    1.560000e+00
  SP1a  SC1r  1 4.140000e-01    1.560000e+00
  SN6a  SC1r  1 4.100000e-01    1.750000e+00
  SN5a  SC1r  1 4.100000e-01    1.750000e+00
  SN4a  SC1r  1 4.100000e-01    1.750000e+00
  SN3a  SC1r  1 4.100000e-01    1.910000e+00
  SN2a  SC1r  1 4.100000e-01    1.910000e+00
  SN1a  SC1r  1 4.100000e-01    1.910000e+00
  SC6v  SC1r  1 4.100000e-01    2.040000e+00
  SC5v  SC1r  1 4.100000e-01    2.200000e+00
  SC4v  SC1r  1 4.100000e-01    2.200000e+00
  SC3v  SC1r  1 4.100000e-01    2.600000e+00
  SC2v  SC1r  1 4.100000e-01    2.840000e+00
  SC1r  SC1v  1 4.100000e-01    2.600000e+00
  SC1r  SX1v  1 4.100000e-01    2.350000e+00
  SC1r  SX2v  1 4.100000e-01    2.350000e+00
  SC1r  SX3v  1 4.100000e-01    2.350000e+00
  SC1r  SX4v  1 4.100000e-01    2.040000e+00
  SC6e  SC1r  1 4.100000e-01    2.040000e+00
  SC5e  SC1r  1 4.100000e-01    2.200000e+00
  SC4e  SC1r  1 4.100000e-01    2.200000e+00
  SC3e  SC1r  1 4.100000e-01    2.600000e+00
  SC2e  SC1r  1 4.100000e-01    2.840000e+00
  SC1r  SC1e  1 4.100000e-01    2.600000e+00
  SC1r  SX1e  1 4.100000e-01    2.350000e+00
  SC1r  SX2e  1 4.100000e-01    2.350000e+00
  SC1r  SX3e  1 4.100000e-01    2.350000e+00
  SC1r  SX4e  1 4.100000e-01    2.040000e+00
  SP6q  SC1r  1 4.180000e-01    1.400000e+00
  SP5q  SC1r  1 4.100000e-01    1.750000e+00
  SP4q  SC1r  1 4.100000e-01    1.750000e+00
  SP3q  SC1r  1 4.100000e-01    1.750000e+00
  SP2q  SC1r  1 4.100000e-01    1.910000e+00
  SP1q  SC1r  1 4.100000e-01    1.910000e+00
  SN6q  SC1r  1 4.100000e-01    2.040000e+00
  SN5q  SC1r  1 4.100000e-01    2.040000e+00
  SN4q  SC1r  1 4.100000e-01    2.040000e+00
  SN3q  SC1r  1 4.100000e-01    2.200000e+00
  SN2q  SC1r  1 4.100000e-01    2.200000e+00
  SN1q  SC1r  1 4.100000e-01    2.200000e+00
  SC6q  SC1r  1 4.100000e-01    2.200000e+00
  SC5q  SC1r  1 4.100000e-01    2.350000e+00
  SC4q  SC1r  1 4.100000e-01    2.350000e+00
  SC3q  SC1r  1 4.100000e-01    2.840000e+00
  SC2q  SC1r  1 4.100000e-01    3.070000e+00
  SC1r  SC1q  1 4.100000e-01    2.840000e+00
  SC1r  SX1q  1 4.100000e-01    2.600000e+00
  SC1r  SX2q  1 4.100000e-01    2.600000e+00
  SC1r  SX3q  1 4.100000e-01    2.600000e+00
  SC1r  SX4q  1 4.100000e-01    2.200000e+00
  SP6d  SX4r  1 4.100000e-01    2.040000e+00
  SP5d  SX4r  1 4.100000e-01    2.200000e+00
  SP4d  SX4r  1 4.100000e-01    2.200000e+00
  SP3d  SX4r  1 4.100000e-01    2.200000e+00
  SP2d  SX4r  1 4.100000e-01    2.200000e+00
  SP1d  SX4r  1 4.100000e-01    2.200000e+00
  SN6d  SX4r  1 4.100000e-01    2.350000e+00
  SN5d  SX4r  1 4.100000e-01    2.600000e+00
  SN4d  SX4r  1 4.100000e-01    2.840000e+00
  SN3d  SX4r  1 4.100000e-01    2.600000e+00
  SN2d  SX4r  1 4.100000e-01    2.600000e+00
  SN1d  SX4r  1 4.100000e-01    2.350000e+00
  SP6a  SX4r  1 4.100000e-01    2.040000e+00
  SP5a  SX4r  1 4.100000e-01    2.200000e+00
  SP4a  SX4r  1 4.100000e-01    2.200000e+00
  SP3a  SX4r  1 4.100000e-01    2.200000e+00
  SP2a  SX4r  1 4.100000e-01    2.200000e+00
  SP1a  SX4r  1 4.100000e-01    2.200000e+00
  SN6a  SX4r  1 4.100000e-01    2.350000e+00
  SN5a  SX4r  1 4.100000e-01    2.600000e+00
  SN4a  SX4r  1 4.100000e-01    2.840000e+00
  SN3a  SX4r  1 4.100000e-01    2.600000e+00
  SN2a  SX4r  1 4.100000e-01    2.600000e+00
  SN1a  SX4r  1 4.100000e-01    2.350000e+00
  SC6v  SX4r  1 4.100000e-01    2.600000e+00
  SC5v  SX4r  1 4.100000e-01    2.350000e+00
  SC4v  SX4r  1 4.100000e-01    2.350000e+00
  SC3v  SX4r  1 4.100000e-01    2.350000e+00
  SC2v  SX4r  1 4.100000e-01    2.040000e+00
  SC1v  SX4r  1 4.100000e-01    2.040000e+00
  SX4r  SX4v  1 4.100000e-01    2.600000e+00
  SX4r  SX1v  1 4.100000e-01    2.600000e+00
  SX4r  SX2v  1 4.100000e-01    2.600000e+00
  SX4r  SX3v  1 4.100000e-01    2.600000e+00
  SC6e  SX4r  1 4.100000e-01    2.600000e+00
  SC5e  SX4r  1 4.100000e-01    2.350000e+00
  SC4e  SX4r  1 4.100000e-01    2.350000e+00
  SC3e  SX4r  1 4.100000e-01    2.350000e+00
  SC2e  SX4r  1 4.100000e-01    2.040000e+00
  SC1e  SX4r  1 4.100000e-01    2.040000e+00
  SX4r  SX4e  1 4.100000e-01    2.600000e+00
  SX4r  SX1e  1 4.100000e-01    2.600000e+00
  SX4r  SX2e  1 4.100000e-01    2.600000e+00
  SX4r  SX3e  1 4.100000e-01    2.600000e+00
  SP6q  SX4r  1 4.100000e-01    2.350000e+00
  SP5q  SX4r  1 4.100000e-01    2.600000e+00
  SP4q  SX4r  1 4.100000e-01    2.600000e+00
  SP3q  SX4r  1 4.100000e-01    2.600000e+00
  SP2q  SX4r  1 4.100000e-01    2.600000e+00
  SP1q  SX4r  1 4.100000e-01    2.600000e+00
  SN6q  SX4r  1 4.100000e-01    2.840000e+00
  SN5q  SX4r  1 4.100000e-01    3.070000e+00
  SN4q  SX4r  1 4.100000e-01    3.310000e+00
  SN3q  SX4r  1 4.100000e-01    3.070000e+00
  SN2q  SX4r  1 4.100000e-01    3.070000e+00
  SN1q  SX4r  1 4.100000e-01    2.840000e+00
  SC6q  SX4r  1 4.100000e-01    2.840000e+00
  SC5q  SX4r  1 4.100000e-01    2.600000e+00
  SC4q  SX4r  1 4.100000e-01    2.600000e+00
  SC3q  SX4r  1 4.100000e-01    2.600000e+00
  SC2q  SX4r  1 4.100000e-01    2.200000e+00
  SC1q  SX4r  1 4.100000e-01    2.200000e+00
  SX4r  SX4q  1 4.100000e-01    2.840000e+00
  SX4r  SX1q  1 4.100000e-01    2.840000e+00
  SX4r  SX2q  1 4.100000e-01    2.840000e+00
  SX4r  SX3q  1 4.100000e-01    2.840000e+00
  SP6d  SX3r  1 4.100000e-01    2.040000e+00
  SP5d  SX3r  1 4.100000e-01    2.040000e+00
  SP4d  SX3r  1 4.100000e-01    2.040000e+00
  SP3d  SX3r  1 4.100000e-01    2.200000e+00
  SP2d  SX3r  1 4.100000e-01    2.200000e+00
  SP1d  SX3r  1 4.100000e-01    2.200000e+00
  SN6d  SX3r  1 4.100000e-01    2.200000e+00
  SN5d  SX3r  1 4.100000e-01    2.350000e+00
  SN4d  SX3r  1 4.100000e-01    2.600000e+00
  SN3d  SX3r  1 4.100000e-01    2.350000e+00
  SN2d  SX3r  1 4.100000e-01    2.350000e+00
  SN1d  SX3r  1 4.100000e-01    2.350000e+00
  SP6a  SX3r  1 4.100000e-01    2.040000e+00
  SP5a  SX3r  1 4.100000e-01    2.040000e+00
  SP4a  SX3r  1 4.100000e-01    2.040000e+00
  SP3a  SX3r  1 4.100000e-01    2.200000e+00
  SP2a  SX3r  1 4.100000e-01    2.200000e+00
  SP1a  SX3r  1 4.100000e-01    2.200000e+00
  SN6a  SX3r  1 4.100000e-01    2.200000e+00
  SN5a  SX3r  1 4.100000e-01    2.350000e+00
  SN4a  SX3r  1 4.100000e-01    2.600000e+00
  SN3a  SX3r  1 4.100000e-01    2.350000e+00
  SN2a  SX3r  1 4.100000e-01    2.350000e+00
  SN1a  SX3r  1 4.100000e-01    2.350000e+00
  SC6v  SX3r  1 4.100000e-01    2.600000e+00
  SC5v  SX3r  1 4.100000e-01    2.350000e+00
  SC4v  SX3r  1 4.100000e-01    2.350000e+00
  SC3v  SX3r  1 4.100000e-01    2.350000e+00
  SC2v  SX3r  1 4.100000e-01    2.350000e+00
  SC1v  SX3r  1 4.100000e-01    2.350000e+00
  SX4v  SX3r  1 4.100000e-01    2.600000e+00
  SX3r  SX3v  1 4.100000e-01    2.600000e+00
  SX3r  SX1v  1 4.100000e-01    2.840000e+00
  SX3r  SX2v  1 4.100000e-01    2.840000e+00
  SC6e  SX3r  1 4.100000e-01    2.600000e+00
  SC5e  SX3r  1 4.100000e-01    2.350000e+00
  SC4e  SX3r  1 4.100000e-01    2.350000e+00
  SC3e  SX3r  1 4.100000e-01    2.350000e+00
  SC2e  SX3r  1 4.100000e-01    2.350000e+00
  SC1e  SX3r  1 4.100000e-01    2.350000e+00
  SX4e  SX3r  1 4.100000e-01    2.600000e+00
  SX3r  SX3e  1 4.100000e-01    2.600000e+00
  SX3r  SX1e  1 4.100000e-01    2.840000e+00
  SX3r  SX2e  1 4.100000e-01    2.840000e+00
  SP6q  SX3r  1 4.100000e-01    2.350000e+00
  SP5q  SX3r  1 4.100000e-01    2.350000e+00
  SP4q  SX3r  1 4.100000e-01    2.350000e+00
  SP3q  SX3r  1 4.100000e-01    2.600000e+00
  SP2q  SX3r  1 4.100000e-01    2.600000e+00
  SP1q  SX3r  1 4.100000e-01    2.600000e+00
  SN6q  SX3r  1 4.100000e-01    2.600000e+00
  SN5q  SX3r  1 4.100000e-01    2.840000e+00
  SN4q  SX3r  1 4.100000e-01    3.070000e+00
  SN3q  SX3r  1 4.100000e-01    2.840000e+00
  SN2q  SX3r  1 4.100000e-01    2.840000e+00
  SN1q  SX3r  1 4.100000e-01    2.840000e+00
  SC6q  SX3r  1 4.100000e-01    2.840000e+00
  SC5q  SX3r  1 4.100000e-01    2.600000e+00
  SC4q  SX3r  1 4.100000e-01    2.600000e+00
  SC3q  SX3r  1 4.100000e-01    2.600000e+00
  SC2q  SX3r  1 4.100000e-01    2.600000e+00
  SC1q  SX3r  1 4.100000e-01    2.600000e+00
  SX4q  SX3r  1 4.100000e-01    2.840000e+00
  SX3r  SX3q  1 4.100000e-01    2.840000e+00
  SX3r  SX1q  1 4.100000e-01    3.070000e+00
  SX3r  SX2q  1 4.100000e-01    3.070000e+00
  SP6d  SX2r  1 4.100000e-01    1.910000e+00
  SP5d  SX2r  1 4.100000e-01    2.040000e+00
  SP4d  SX2r  1 4.100000e-01    2.040000e+00
  SP3d  SX2r  1 4.100000e-01    2.040000e+00
  SP2d  SX2r  1 4.100000e-01    2.040000e+00
  SP1d  SX2r  1 4.100000e-01    2.040000e+00
  SN6d  SX2r  1 4.100000e-01    2.040000e+00
  SN5d  SX2r  1 4.100000e-01    2.200000e+00
  SN4d  SX2r  1 4.100000e-01    2.200000e+00
  SN3d  SX2r  1 4.100000e-01    2.200000e+00
  SN2d  SX2r  1 4.100000e-01    2.200000e+00
  SN1d  SX2r  1 4.100000e-01    2.200000e+00
  SP6a  SX2r  1 4.100000e-01    1.910000e+00
  SP5a  SX2r  1 4.100000e-01    2.040000e+00
  SP4a  SX2r  1 4.100000e-01    2.040000e+00
  SP3a  SX2r  1 4.100000e-01    2.040000e+00
  SP2a  SX2r  1 4.100000e-01    2.040000e+00
  SP1a  SX2r  1 4.100000e-01    2.040000e+00
  SN6a  SX2r  1 4.100000e-01    2.040000e+00
  SN5a  SX2r  1 4.100000e-01    2.200000e+00
  SN4a  SX2r  1 4.100000e-01    2.200000e+00
  SN3a  SX2r  1 4.100000e-01    2.200000e+00
  SN2a  SX2r  1 4.100000e-01    2.200000e+00
  SN1a  SX2r  1 4.100000e-01    2.200000e+00
  SC6v  SX2r  1 4.100000e-01    2.600000e+00
  SC5v  SX2r  1 4.100000e-01    2.350000e+00
  SC4v  SX2r  1 4.100000e-01    2.350000e+00
  SC3v  SX2r  1 4.100000e-01    2.350000e+00
  SC2v  SX2r  1 4.100000e-01    2.350000e+00
  SC1v  SX2r  1 4.100000e-01    2.350000e+00
  SX4v  SX2r  1 4.100000e-01    2.600000e+00
  SX3v  SX2r  1 4.100000e-01    2.840000e+00
  SX2r  SX2v  1 4.100000e-01    2.840000e+00
  SX2r  SX1v  1 4.100000e-01    2.840000e+00
  SC6e  SX2r  1 4.100000e-01    2.600000e+00
  SC5e  SX2r  1 4.100000e-01    2.350000e+00
  SC4e  SX2r  1 4.100000e-01    2.350000e+00
  SC3e  SX2r  1 4.100000e-01    2.350000e+00
  SC2e  SX2r  1 4.100000e-01    2.350000e+00
  SC1e  SX2r  1 4.100000e-01    2.350000e+00
  SX4e  SX2r  1 4.100000e-01    2.600000e+00
  SX3e  SX2r  1 4.100000e-01    2.840000e+00
  SX2r  SX2e  1 4.100000e-01    2.840000e+00
  SX2r  SX1e  1 4.100000e-01    2.840000e+00
  SP6q  SX2r  1 4.100000e-01    2.200000e+00
  SP5q  SX2r  1 4.100000e-01    2.350000e+00
  SP4q  SX2r  1 4.100000e-01    2.350000e+00
  SP3q  SX2r  1 4.100000e-01    2.350000e+00
  SP2q  SX2r  1 4.100000e-01    2.350000e+00
  SP1q  SX2r  1 4.100000e-01    2.350000e+00
  SN6q  SX2r  1 4.100000e-01    2.350000e+00
  SN5q  SX2r  1 4.100000e-01    2.600000e+00
  SN4q  SX2r  1 4.100000e-01    2.600000e+00
  SN3q  SX2r  1 4.100000e-01    2.600000e+00
  SN2q  SX2r  1 4.100000e-01    2.600000e+00
  SN1q  SX2r  1 4.100000e-01    2.600000e+00
  SC6q  SX2r  1 4.100000e-01    2.840000e+00
  SC5q  SX2r  1 4.100000e-01    2.600000e+00
  SC4q  SX2r  1 4.100000e-01    2.600000e+00
  SC3q  SX2r  1 4.100000e-01    2.600000e+00
  SC2q  SX2r  1 4.100000e-01    2.600000e+00
  SC1q  SX2r  1 4.100000e-01    2.600000e+00
  SX4q  SX2r  1 4.100000e-01    2.840000e+00
  SX3q  SX2r  1 4.100000e-01    3.070000e+00
  SX2r  SX2q  1 4.100000e-01    3.070000e+00
  SX2r  SX1q  1 4.100000e-01    3.070000e+00
  SP6d  SX1r  1 4.100000e-01    1.750000e+00
  SP5d  SX1r  1 4.100000e-01    1.750000e+00
  SP4d  SX1r  1 4.100000e-01    1.910000e+00
  SP3d  SX1r  1 4.100000e-01    1.910000e+00
  SP2d  SX1r  1 4.100000e-01    1.910000e+00
  SP1d  SX1r  1 4.100000e-01    1.910000e+00
  SN6d  SX1r  1 4.100000e-01    1.910000e+00
  SN5d  SX1r  1 4.100000e-01    2.040000e+00
  SN4d  SX1r  1 4.100000e-01    2.040000e+00
  SN3d  SX1r  1 4.100000e-01    2.200000e+00
  SN2d  SX1r  1 4.100000e-01    2.200000e+00
  SN1d  SX1r  1 4.100000e-01    2.200000e+00
  SP6a  SX1r  1 4.100000e-01    1.750000e+00
  SP5a  SX1r  1 4.100000e-01    1.750000e+00
  SP4a  SX1r  1 4.100000e-01    1.910000e+00
  SP3a  SX1r  1 4.100000e-01    1.910000e+00
  SP2a  SX1r  1 4.100000e-01    1.910000e+00
  SP1a  SX1r  1 4.100000e-01    1.910000e+00
  SN6a  SX1r  1 4.100000e-01    1.910000e+00
  SN5a  SX1r  1 4.100000e-01    2.040000e+00
  SN4a  SX1r  1 4.100000e-01    2.040000e+00
  SN3a  SX1r  1 4.100000e-01    2.200000e+00
  SN2a  SX1r  1 4.100000e-01    2.200000e+00
  SN1a  SX1r  1 4.100000e-01    2.200000e+00
  SC6v  SX1r  1 4.100000e-01    2.600000e+00
  SC5v  SX1r  1 4.100000e-01    2.600000e+00
  SC4v  SX1r  1 4.100000e-01    2.600000e+00
  SC3v  SX1r  1 4.100000e-01    2.600000e+00
  SC2v  SX1r  1 4.100000e-01    2.350000e+00
  SC1v  SX1r  1 4.100000e-01    2.350000e+00
  SX4v  SX1r  1 4.100000e-01    2.600000e+00
  SX3v  SX1r  1 4.100000e-01    2.840000e+00
  SX2v  SX1r  1 4.100000e-01    2.840000e+00
  SX1r  SX1v  1 4.100000e-01    3.070000e+00
  SC6e  SX1r  1 4.100000e-01    2.600000e+00
  SC5e  SX1r  1 4.100000e-01    2.600000e+00
  SC4e  SX1r  1 4.100000e-01    2.600000e+00
  SC3e  SX1r  1 4.100000e-01    2.600000e+00
  SC2e  SX1r  1 4.100000e-01    2.350000e+00
  SC1e  SX1r  1 4.100000e-01    2.350000e+00
  SX4e  SX1r  1 4.100000e-01    2.600000e+00
  SX3e  SX1r  1 4.100000e-01    2.840000e+00
  SX2e  SX1r  1 4.100000e-01    2.840000e+00
  SX1r  SX1e  1 4.100000e-01    3.070000e+00
  SP6q  SX1r  1 4.100000e-01    2.040000e+00
  SP5q  SX1r  1 4.100000e-01    2.040000e+00
  SP4q  SX1r  1 4.100000e-01    2.200000e+00
  SP3q  SX1r  1 4.100000e-01    2.200000e+00
  SP2q  SX1r  1 4.100000e-01    2.200000e+00
  SP1q  SX1r  1 4.100000e-01    2.200000e+00
  SN6q  SX1r  1 4.100000e-01    2.200000e+00
  SN5q  SX1r  1 4.100000e-01    2.350000e+00
  SN4q  SX1r  1 4.100000e-01    2.350000e+00
  SN3q  SX1r  1 4.100000e-01    2.600000e+00
  SN2q  SX1r  1 4.100000e-01    2.600000e+00
  SN1q  SX1r  1 4.100000e-01    2.600000e+00
  SC6q  SX1r  1 4.100000e-01    2.840000e+00
  SC5q  SX1r  1 4.100000e-01    2.840000e+00
  SC4q  SX1r  1 4.100000e-01    2.840000e+00
  SC3q  SX1r  1 4.100000e-01    2.840000e+00
  SC2q  SX1r  1 4.100000e-01    2.600000e+00
  SC1q  SX1r  1 4.100000e-01    2.600000e+00
  SX4q  SX1r  1 4.100000e-01    2.840000e+00
  SX3q  SX1r  1 4.100000e-01    3.070000e+00
  SX2q  SX1r  1 4.100000e-01    3.070000e+00
  SX1r  SX1q  1 4.100000e-01    3.310000e+00
 SP6dr SP6dq  1 4.100000e-01    4.550000e+00
 SP6dr SX1eq  1 4.100000e-01    2.200000e+00
 SP6dr SX2eq  1 4.100000e-01    2.350000e+00
 SP6dr SX3eq  1 4.100000e-01    2.600000e+00
 SP6dr SX4eq  1 4.100000e-01    2.600000e+00
 SP6dr SC1eq  1 4.140000e-01    1.560000e+00
 SP6dr SC2eq  1 4.100000e-01    1.910000e+00
 SP6dr SC3eq  1 4.100000e-01    1.910000e+00
 SP6dr SC4eq  1 4.100000e-01    2.040000e+00
 SP6dr SC5eq  1 4.100000e-01    2.200000e+00
 SP6dr SC6eq  1 4.100000e-01    2.350000e+00
 SP6dr SX1vq  1 4.100000e-01    1.910000e+00
 SP6dr SX2vq  1 4.100000e-01    2.040000e+00
 SP6dr SX3vq  1 4.100000e-01    2.200000e+00
 SP6dr SX4vq  1 4.100000e-01    2.200000e+00
 SP6dr SC1vq  1 4.210000e-01    1.250000e+00
 SP6dr SC2vq  1 4.140000e-01    1.560000e+00
 SP6dr SC3vq  1 4.140000e-01    1.560000e+00
 SP6dr SC4vq  1 4.100000e-01    1.750000e+00
 SP6dr SC5vq  1 4.100000e-01    1.910000e+00
 SP6dr SC6vq  1 4.100000e-01    2.040000e+00
 SP6dr SN1aq  1 4.100000e-01    2.200000e+00
 SP6dr SN2aq  1 4.100000e-01    2.350000e+00
 SP6dr SN3aq  1 4.100000e-01    2.600000e+00
 SP6dr SN4aq  1 4.100000e-01    3.070000e+00
 SP6dr SN5aq  1 4.100000e-01    3.310000e+00
 SP6dr SN6aq  1 4.100000e-01    3.820000e+00
 SP6dr SP1aq  1 4.100000e-01    4.040000e+00
 SP6dr SP2aq  1 4.100000e-01    4.290000e+00
 SP6dr SP3aq  1 4.100000e-01    4.290000e+00
 SP6dr SP4aq  1 4.100000e-01    4.550000e+00
 SP6dr SP5aq  1 4.100000e-01    4.840000e+00
 SP6dr SP6aq  1 4.100000e-01    5.130000e+00
 SP6dr SN1dq  1 4.100000e-01    2.200000e+00
 SP6dr SN2dq  1 4.100000e-01    2.350000e+00
 SP6dr SN3dq  1 4.100000e-01    2.600000e+00
 SP6dr SN4dq  1 4.100000e-01    2.600000e+00
 SP6dr SN5dq  1 4.100000e-01    2.840000e+00
 SP6dr SN6dq  1 4.100000e-01    3.310000e+00
 SP6dr SP1dq  1 4.100000e-01    3.550000e+00
 SP6dr SP2dq  1 4.100000e-01    3.820000e+00
 SP6dr SP3dq  1 4.100000e-01    3.820000e+00
 SP6dr SP4dq  1 4.100000e-01    4.040000e+00
 SP6dr SP5dq  1 4.100000e-01    4.290000e+00
 SP6dq SP5dr  1 4.100000e-01    4.290000e+00
 SP5dr SP5dq  1 4.100000e-01    4.040000e+00
 SP5dr SX1eq  1 4.100000e-01    2.200000e+00
 SP5dr SX2eq  1 4.100000e-01    2.600000e+00
 SP5dr SX3eq  1 4.100000e-01    2.600000e+00
 SP5dr SX4eq  1 4.100000e-01    2.840000e+00
 SP5dr SC1eq  1 4.100000e-01    1.910000e+00
 SP5dr SC2eq  1 4.100000e-01    2.040000e+00
 SP5dr SC3eq  1 4.100000e-01    2.040000e+00
 SP5dr SC4eq  1 4.100000e-01    2.200000e+00
 SP5dr SC5eq  1 4.100000e-01    2.350000e+00
 SP5dr SC6eq  1 4.100000e-01    2.350000e+00
 SP5dr SX1vq  1 4.100000e-01    1.910000e+00
 SP5dr SX2vq  1 4.100000e-01    2.200000e+00
 SP5dr SX3vq  1 4.100000e-01    2.200000e+00
 SP5dr SX4vq  1 4.100000e-01    2.350000e+00
 SP5dr SC1vq  1 4.140000e-01    1.560000e+00
 SP5dr SC2vq  1 4.100000e-01    1.750000e+00
 SP5dr SC3vq  1 4.100000e-01    1.750000e+00
 SP5dr SC4vq  1 4.100000e-01    1.910000e+00
 SP5dr SC5vq  1 4.100000e-01    2.040000e+00
 SP5dr SC6vq  1 4.100000e-01    2.040000e+00
 SP5dr SN1aq  1 4.100000e-01    2.200000e+00
 SP5dr SN2aq  1 4.100000e-01    2.350000e+00
 SP5dr SN3aq  1 4.100000e-01    2.600000e+00
 SP5dr SN4aq  1 4.100000e-01    3.310000e+00
 SP5dr SN5aq  1 4.100000e-01    3.310000e+00
 SP5dr SN6aq  1 4.100000e-01    3.550000e+00
 SP5dr SP1aq  1 4.100000e-01    3.820000e+00
 SP5dr SP2aq  1 4.100000e-01    4.040000e+00
 SP5dr SP3aq  1 4.100000e-01    4.040000e+00
 SP5dr SP4aq  1 4.100000e-01    4.290000e+00
 SP5dr SP5aq  1 4.100000e-01    4.550000e+00
 SP6aq SP5dr  1 4.100000e-01    4.840000e+00
 SP5dr SN1dq  1 4.100000e-01    2.200000e+00
 SP5dr SN2dq  1 4.100000e-01    2.350000e+00
 SP5dr SN3dq  1 4.100000e-01    2.600000e+00
 SP5dr SN4dq  1 4.100000e-01    2.840000e+00
 SP5dr SN5dq  1 4.100000e-01    2.840000e+00
 SP5dr SN6dq  1 4.100000e-01    3.070000e+00
 SP5dr SP1dq  1 4.100000e-01    3.310000e+00
 SP5dr SP2dq  1 4.100000e-01    3.550000e+00
 SP5dr SP3dq  1 4.100000e-01    3.550000e+00
 SP5dr SP4dq  1 4.100000e-01    3.820000e+00
 SP6dq SP4dr  1 4.100000e-01    4.040000e+00
 SP5dq SP4dr  1 4.100000e-01    3.820000e+00
 SP4dr SP4dq  1 4.100000e-01    3.820000e+00
 SP4dr SX1eq  1 4.100000e-01    2.350000e+00
 SP4dr SX2eq  1 4.100000e-01    2.600000e+00
 SP4dr SX3eq  1 4.100000e-01    2.600000e+00
 SP4dr SX4eq  1 4.100000e-01    2.840000e+00
 SP4dr SC1eq  1 4.100000e-01    1.910000e+00
 SP4dr SC2eq  1 4.100000e-01    2.040000e+00
 SP4dr SC3eq  1 4.100000e-01    2.040000e+00
 SP4dr SC4eq  1 4.100000e-01    2.200000e+00
 SP4dr SC5eq  1 4.100000e-01    2.350000e+00
 SP4dr SC6eq  1 4.100000e-01    2.600000e+00
 SP4dr SX1vq  1 4.100000e-01    2.040000e+00
 SP4dr SX2vq  1 4.100000e-01    2.200000e+00
 SP4dr SX3vq  1 4.100000e-01    2.200000e+00
 SP4dr SX4vq  1 4.100000e-01    2.350000e+00
 SP4dr SC1vq  1 4.140000e-01    1.560000e+00
 SP4dr SC2vq  1 4.100000e-01    1.750000e+00
 SP4dr SC3vq  1 4.100000e-01    1.750000e+00
 SP4dr SC4vq  1 4.100000e-01    1.910000e+00
 SP4dr SC5vq  1 4.100000e-01    2.040000e+00
 SP4dr SC6vq  1 4.100000e-01    2.200000e+00
 SP4dr SN1aq  1 4.100000e-01    2.350000e+00
 SP4dr SN2aq  1 4.100000e-01    2.600000e+00
 SP4dr SN3aq  1 4.100000e-01    3.070000e+00
 SP4dr SN4aq  1 4.100000e-01    3.310000e+00
 SP4dr SN5aq  1 4.100000e-01    3.310000e+00
 SP4dr SN6aq  1 4.100000e-01    3.550000e+00
 SP4dr SP1aq  1 4.100000e-01    3.820000e+00
 SP4dr SP2aq  1 4.100000e-01    4.040000e+00
 SP4dr SP3aq  1 4.100000e-01    4.040000e+00
 SP4dr SP4aq  1 4.100000e-01    4.290000e+00
 SP5aq SP4dr  1 4.100000e-01    4.290000e+00
 SP6aq SP4dr  1 4.100000e-01    4.550000e+00
 SP4dr SN1dq  1 4.100000e-01    2.350000e+00
 SP4dr SN2dq  1 4.100000e-01    2.600000e+00
 SP4dr SN3dq  1 4.100000e-01    2.600000e+00
 SP4dr SN4dq  1 4.100000e-01    2.840000e+00
 SP4dr SN5dq  1 4.100000e-01    2.840000e+00
 SP4dr SN6dq  1 4.100000e-01    3.070000e+00
 SP4dr SP1dq  1 4.100000e-01    3.310000e+00
 SP4dr SP2dq  1 4.100000e-01    3.550000e+00
 SP4dr SP3dq  1 4.100000e-01    3.550000e+00
 SP6dq SP3dr  1 4.100000e-01    3.820000e+00
 SP5dq SP3dr  1 4.100000e-01    3.550000e+00
 SP4dq SP3dr  1 4.100000e-01    3.550000e+00
 SP3dr SP3dq  1 4.100000e-01    3.550000e+00
 SP3dr SX1eq  1 4.100000e-01    2.350000e+00
 SP3dr SX2eq  1 4.100000e-01    2.600000e+00
 SP3dr SX3eq  1 4.100000e-01    2.840000e+00
 SP3dr SX4eq  1 4.100000e-01    2.840000e+00
 SP3dr SC1eq  1 4.100000e-01    1.910000e+00
 SP3dr SC2eq  1 4.100000e-01    2.040000e+00
 SP3dr SC3eq  1 4.100000e-01    2.040000e+00
 SP3dr SC4eq  1 4.100000e-01    2.350000e+00
 SP3dr SC5eq  1 4.100000e-01    2.600000e+00
 SP3dr SC6eq  1 4.100000e-01    2.840000e+00
 SP3dr SX1vq  1 4.100000e-01    2.040000e+00
 SP3dr SX2vq  1 4.100000e-01    2.200000e+00
 SP3dr SX3vq  1 4.100000e-01    2.350000e+00
 SP3dr SX4vq  1 4.100000e-01    2.350000e+00
 SP3dr SC1vq  1 4.140000e-01    1.560000e+00
 SP3dr SC2vq  1 4.100000e-01    1.750000e+00
 SP3dr SC3vq  1 4.100000e-01    1.750000e+00
 SP3dr SC4vq  1 4.100000e-01    2.040000e+00
 SP3dr SC5vq  1 4.100000e-01    2.200000e+00
 SP3dr SC6vq  1 4.100000e-01    2.350000e+00
 SP3dr SN1aq  1 4.100000e-01    2.600000e+00
 SP3dr SN2aq  1 4.100000e-01    3.070000e+00
 SP3dr SN3aq  1 4.100000e-01    3.070000e+00
 SP3dr SN4aq  1 4.100000e-01    3.310000e+00
 SP3dr SN5aq  1 4.100000e-01    3.310000e+00
 SP3dr SN6aq  1 4.100000e-01    3.550000e+00
 SP3dr SP1aq  1 4.100000e-01    3.820000e+00
 SP3dr SP2aq  1 4.100000e-01    4.040000e+00
 SP3dr SP3aq  1 4.100000e-01    4.040000e+00
 SP4aq SP3dr  1 4.100000e-01    4.040000e+00
 SP5aq SP3dr  1 4.100000e-01    4.040000e+00
 SP6aq SP3dr  1 4.100000e-01    4.290000e+00
 SP3dr SN1dq  1 4.100000e-01    2.600000e+00
 SP3dr SN2dq  1 4.100000e-01    2.600000e+00
 SP3dr SN3dq  1 4.100000e-01    2.600000e+00
 SP3dr SN4dq  1 4.100000e-01    2.840000e+00
 SP3dr SN5dq  1 4.100000e-01    2.840000e+00
 SP3dr SN6dq  1 4.100000e-01    3.070000e+00
 SP3dr SP1dq  1 4.100000e-01    3.310000e+00
 SP3dr SP2dq  1 4.100000e-01    3.550000e+00
 SP6dq SP2dr  1 4.100000e-01    3.820000e+00
 SP5dq SP2dr  1 4.100000e-01    3.550000e+00
 SP4dq SP2dr  1 4.100000e-01    3.550000e+00
 SP3dq SP2dr  1 4.100000e-01    3.550000e+00
 SP2dr SP2dq  1 4.100000e-01    3.550000e+00
 SP2dr SX1eq  1 4.100000e-01    2.350000e+00
 SP2dr SX2eq  1 4.100000e-01    2.600000e+00
 SP2dr SX3eq  1 4.100000e-01    2.840000e+00
 SP2dr SX4eq  1 4.100000e-01    2.840000e+00
 SP2dr SC1eq  1 4.100000e-01    2.040000e+00
 SP2dr SC2eq  1 4.100000e-01    2.200000e+00
 SP2dr SC3eq  1 4.100000e-01    2.200000e+00
 SP2dr SC4eq  1 4.100000e-01    2.350000e+00
 SP2dr SC5eq  1 4.100000e-01    2.600000e+00
 SP2dr SC6eq  1 4.100000e-01    2.840000e+00
 SP2dr SX1vq  1 4.100000e-01    2.040000e+00
 SP2dr SX2vq  1 4.100000e-01    2.200000e+00
 SP2dr SX3vq  1 4.100000e-01    2.350000e+00
 SP2dr SX4vq  1 4.100000e-01    2.350000e+00
 SP2dr SC1vq  1 4.100000e-01    1.750000e+00
 SP2dr SC2vq  1 4.100000e-01    1.910000e+00
 SP2dr SC3vq  1 4.100000e-01    1.910000e+00
 SP2dr SC4vq  1 4.100000e-01    2.040000e+00
 SP2dr SC5vq  1 4.100000e-01    2.200000e+00
 SP2dr SC6vq  1 4.100000e-01    2.350000e+00
 SP2dr SN1aq  1 4.100000e-01    3.070000e+00
 SP2dr SN2aq  1 4.100000e-01    3.070000e+00
 SP2dr SN3aq  1 4.100000e-01    3.070000e+00
 SP2dr SN4aq  1 4.100000e-01    3.310000e+00
 SP2dr SN5aq  1 4.100000e-01    3.550000e+00
 SP2dr SN6aq  1 4.100000e-01    3.820000e+00
 SP2dr SP1aq  1 4.100000e-01    3.820000e+00
 SP2dr SP2aq  1 4.100000e-01    4.040000e+00
 SP3aq SP2dr  1 4.100000e-01    4.040000e+00
 SP4aq SP2dr  1 4.100000e-01    4.040000e+00
 SP5aq SP2dr  1 4.100000e-01    4.040000e+00
 SP6aq SP2dr  1 4.100000e-01    4.290000e+00
 SP2dr SN1dq  1 4.100000e-01    2.600000e+00
 SP2dr SN2dq  1 4.100000e-01    2.600000e+00
 SP2dr SN3dq  1 4.100000e-01    2.600000e+00
 SP2dr SN4dq  1 4.100000e-01    2.840000e+00
 SP2dr SN5dq  1 4.100000e-01    3.070000e+00
 SP2dr SN6dq  1 4.100000e-01    3.310000e+00
 SP2dr SP1dq  1 4.100000e-01    3.310000e+00
 SP6dq SP1dr  1 4.100000e-01    3.550000e+00
 SP5dq SP1dr  1 4.100000e-01    3.310000e+00
 SP4dq SP1dr  1 4.100000e-01    3.310000e+00
 SP3dq SP1dr  1 4.100000e-01    3.310000e+00
 SP2dq SP1dr  1 4.100000e-01    3.310000e+00
 SP1dr SP1dq  1 4.100000e-01    3.310000e+00
 SP1dr SX1eq  1 4.100000e-01    2.350000e+00
 SP1dr SX2eq  1 4.100000e-01    2.600000e+00
 SP1dr SX3eq  1 4.100000e-01    2.840000e+00
 SP1dr SX4eq  1 4.100000e-01    2.840000e+00
 SP1dr SC1eq  1 4.100000e-01    2.040000e+00
 SP1dr SC2eq  1 4.100000e-01    2.200000e+00
 SP1dr SC3eq  1 4.100000e-01    2.200000e+00
 SP1dr SC4eq  1 4.100000e-01    2.350000e+00
 SP1dr SC5eq  1 4.100000e-01    2.600000e+00
 SP1dr SC6eq  1 4.100000e-01    2.840000e+00
 SP1dr SX1vq  1 4.100000e-01    2.040000e+00
 SP1dr SX2vq  1 4.100000e-01    2.200000e+00
 SP1dr SX3vq  1 4.100000e-01    2.350000e+00
 SP1dr SX4vq  1 4.100000e-01    2.350000e+00
 SP1dr SC1vq  1 4.100000e-01    1.750000e+00
 SP1dr SC2vq  1 4.100000e-01    1.910000e+00
 SP1dr SC3vq  1 4.100000e-01    1.910000e+00
 SP1dr SC4vq  1 4.100000e-01    2.040000e+00
 SP1dr SC5vq  1 4.100000e-01    2.200000e+00
 SP1dr SC6vq  1 4.100000e-01    2.350000e+00
 SP1dr SN1aq  1 4.100000e-01    3.070000e+00
 SP1dr SN2aq  1 4.100000e-01    3.070000e+00
 SP1dr SN3aq  1 4.100000e-01    3.070000e+00
 SP1dr SN4aq  1 4.100000e-01    3.550000e+00
 SP1dr SN5aq  1 4.100000e-01    3.550000e+00
 SP1dr SN6aq  1 4.100000e-01    3.820000e+00
 SP1dr SP1aq  1 4.100000e-01    3.820000e+00
 SP2aq SP1dr  1 4.100000e-01    3.820000e+00
 SP3aq SP1dr  1 4.100000e-01    3.820000e+00
 SP4aq SP1dr  1 4.100000e-01    3.820000e+00
 SP5aq SP1dr  1 4.100000e-01    3.820000e+00
 SP6aq SP1dr  1 4.100000e-01    4.040000e+00
 SP1dr SN1dq  1 4.100000e-01    2.600000e+00
 SP1dr SN2dq  1 4.100000e-01    2.600000e+00
 SP1dr SN3dq  1 4.100000e-01    2.600000e+00
 SP1dr SN4dq  1 4.100000e-01    3.070000e+00
 SP1dr SN5dq  1 4.100000e-01    3.070000e+00
 SP1dr SN6dq  1 4.100000e-01    3.310000e+00
 SP6dq SN6dr  1 4.100000e-01    3.310000e+00
 SP5dq SN6dr  1 4.100000e-01    3.070000e+00
 SP4dq SN6dr  1 4.100000e-01    3.070000e+00
 SP3dq SN6dr  1 4.100000e-01    3.070000e+00
 SP2dq SN6dr  1 4.100000e-01    3.310000e+00
 SP1dq SN6dr  1 4.100000e-01    3.310000e+00
 SN6dr SN6dq  1 4.100000e-01    3.310000e+00
 SN6dr SX1eq  1 4.100000e-01    2.350000e+00
 SN6dr SX2eq  1 4.100000e-01    2.600000e+00
 SN6dr SX3eq  1 4.100000e-01    2.840000e+00
 SN6dr SX4eq  1 4.100000e-01    3.070000e+00
 SN6dr SC1eq  1 4.100000e-01    2.200000e+00
 SN6dr SC2eq  1 4.100000e-01    2.350000e+00
 SN6dr SC3eq  1 4.100000e-01    2.350000e+00
 SN6dr SC4eq  1 4.100000e-01    2.600000e+00
 SN6dr SC5eq  1 4.100000e-01    2.840000e+00
 SN6dr SC6eq  1 4.100000e-01    3.070000e+00
 SN6dr SX1vq  1 4.100000e-01    2.040000e+00
 SN6dr SX2vq  1 4.100000e-01    2.200000e+00
 SN6dr SX3vq  1 4.100000e-01    2.350000e+00
 SN6dr SX4vq  1 4.100000e-01    2.600000e+00
 SN6dr SC1vq  1 4.100000e-01    1.910000e+00
 SN6dr SC2vq  1 4.100000e-01    2.040000e+00
 SN6dr SC3vq  1 4.100000e-01    2.040000e+00
 SN6dr SC4vq  1 4.100000e-01    2.200000e+00
 SN6dr SC5vq  1 4.100000e-01    2.350000e+00
 SN6dr SC6vq  1 4.100000e-01    2.600000e+00
 SN6dr SN1aq  1 4.100000e-01    3.070000e+00
 SN6dr SN2aq  1 4.100000e-01    3.070000e+00
 SN6dr SN3aq  1 4.100000e-01    3.310000e+00
 SN6dr SN4aq  1 4.100000e-01    3.820000e+00
 SN6dr SN5aq  1 4.100000e-01    3.820000e+00
 SN6dr SN6aq  1 4.100000e-01    3.820000e+00
 SP1aq SN6dr  1 4.100000e-01    3.820000e+00
 SP2aq SN6dr  1 4.100000e-01    3.820000e+00
 SP3aq SN6dr  1 4.100000e-01    3.550000e+00
 SP4aq SN6dr  1 4.100000e-01    3.550000e+00
 SP5aq SN6dr  1 4.100000e-01    3.550000e+00
 SP6aq SN6dr  1 4.100000e-01    3.820000e+00
 SN6dr SN1dq  1 4.100000e-01    2.600000e+00
 SN6dr SN2dq  1 4.100000e-01    2.600000e+00
 SN6dr SN3dq  1 4.100000e-01    2.840000e+00
 SN6dr SN4dq  1 4.100000e-01    3.310000e+00
 SN6dr SN5dq  1 4.100000e-01    3.310000e+00
 SP6dq SN5dr  1 4.100000e-01    2.840000e+00
 SP5dq SN5dr  1 4.100000e-01    2.840000e+00
 SP4dq SN5dr  1 4.100000e-01    2.840000e+00
 SP3dq SN5dr  1 4.100000e-01    2.840000e+00
 SP2dq SN5dr  1 4.100000e-01    3.070000e+00
 SP1dq SN5dr  1 4.100000e-01    3.070000e+00
 SN6dq SN5dr  1 4.100000e-01    3.310000e+00
 SN5dr SN5dq  1 4.100000e-01    3.070000e+00
 SN5dr SX1eq  1 4.100000e-01    2.600000e+00
 SN5dr SX2eq  1 4.100000e-01    2.840000e+00
 SN5dr SX3eq  1 4.100000e-01    3.070000e+00
 SN5dr SX4eq  1 4.100000e-01    3.310000e+00
 SN5dr SC1eq  1 4.100000e-01    2.200000e+00
 SN5dr SC2eq  1 4.100000e-01    2.350000e+00
 SN5dr SC3eq  1 4.100000e-01    2.600000e+00
 SN5dr SC4eq  1 4.100000e-01    2.600000e+00
 SN5dr SC5eq  1 4.100000e-01    2.840000e+00
 SN5dr SC6eq  1 4.100000e-01    3.070000e+00
 SN5dr SX1vq  1 4.100000e-01    2.200000e+00
 SN5dr SX2vq  1 4.100000e-01    2.350000e+00
 SN5dr SX3vq  1 4.100000e-01    2.600000e+00
 SN5dr SX4vq  1 4.100000e-01    2.840000e+00
 SN5dr SC1vq  1 4.100000e-01    1.910000e+00
 SN5dr SC2vq  1 4.100000e-01    2.040000e+00
 SN5dr SC3vq  1 4.100000e-01    2.200000e+00
 SN5dr SC4vq  1 4.100000e-01    2.200000e+00
 SN5dr SC5vq  1 4.100000e-01    2.350000e+00
 SN5dr SC6vq  1 4.100000e-01    2.600000e+00
 SN5dr SN1aq  1 4.100000e-01    3.070000e+00
 SN5dr SN2aq  1 4.100000e-01    3.310000e+00
 SN5dr SN3aq  1 4.100000e-01    3.310000e+00
 SN5dr SN4aq  1 4.100000e-01    3.550000e+00
 SN5dr SN5aq  1 4.100000e-01    3.550000e+00
 SN6aq SN5dr  1 4.100000e-01    3.820000e+00
 SP1aq SN5dr  1 4.100000e-01    3.550000e+00
 SP2aq SN5dr  1 4.100000e-01    3.550000e+00
 SP3aq SN5dr  1 4.100000e-01    3.310000e+00
 SP4aq SN5dr  1 4.100000e-01    3.310000e+00
 SP5aq SN5dr  1 4.100000e-01    3.310000e+00
 SP6aq SN5dr  1 4.100000e-01    3.310000e+00
 SN5dr SN1dq  1 4.100000e-01    2.600000e+00
 SN5dr SN2dq  1 4.100000e-01    2.840000e+00
 SN5dr SN3dq  1 4.100000e-01    2.840000e+00
 SN5dr SN4dq  1 4.100000e-01    3.070000e+00
 SP6dq SN4dr  1 4.100000e-01    2.600000e+00
 SP5dq SN4dr  1 4.100000e-01    2.840000e+00
 SP4dq SN4dr  1 4.100000e-01    2.840000e+00
 SP3dq SN4dr  1 4.100000e-01    2.840000e+00
 SP2dq SN4dr  1 4.100000e-01    2.840000e+00
 SP1dq SN4dr  1 4.100000e-01    3.070000e+00
 SN6dq SN4dr  1 4.100000e-01    3.310000e+00
 SN5dq SN4dr  1 4.100000e-01    3.070000e+00
 SN4dr SN4dq  1 4.100000e-01    3.070000e+00
 SN4dr SX1eq  1 4.100000e-01    2.600000e+00
 SN4dr SX2eq  1 4.100000e-01    2.840000e+00
 SN4dr SX3eq  1 4.100000e-01    3.310000e+00
 SN4dr SX4eq  1 4.100000e-01    3.550000e+00
 SN4dr SC1eq  1 4.100000e-01    2.200000e+00
 SN4dr SC2eq  1 4.100000e-01    2.350000e+00
 SN4dr SC3eq  1 4.100000e-01    2.600000e+00
 SN4dr SC4eq  1 4.100000e-01    2.840000e+00
 SN4dr SC5eq  1 4.100000e-01    2.840000e+00
 SN4dr SC6eq  1 4.100000e-01    3.070000e+00
 SN4dr SX1vq  1 4.100000e-01    2.200000e+00
 SN4dr SX2vq  1 4.100000e-01    2.350000e+00
 SN4dr SX3vq  1 4.100000e-01    2.840000e+00
 SN4dr SX4vq  1 4.100000e-01    3.070000e+00
 SN4dr SC1vq  1 4.100000e-01    1.910000e+00
 SN4dr SC2vq  1 4.100000e-01    2.040000e+00
 SN4dr SC3vq  1 4.100000e-01    2.200000e+00
 SN4dr SC4vq  1 4.100000e-01    2.350000e+00
 SN4dr SC5vq  1 4.100000e-01    2.350000e+00
 SN4dr SC6vq  1 4.100000e-01    2.600000e+00
 SN4dr SN1aq  1 4.100000e-01    3.070000e+00
 SN4dr SN2aq  1 4.100000e-01    3.310000e+00
 SN4dr SN3aq  1 4.100000e-01    3.310000e+00
 SN4dr SN4aq  1 4.100000e-01    3.550000e+00
 SN5aq SN4dr  1 4.100000e-01    3.550000e+00
 SN6aq SN4dr  1 4.100000e-01    3.820000e+00
 SP1aq SN4dr  1 4.100000e-01    3.550000e+00
 SP2aq SN4dr  1 4.100000e-01    3.310000e+00
 SP3aq SN4dr  1 4.100000e-01    3.310000e+00
 SP4aq SN4dr  1 4.100000e-01    3.310000e+00
 SP5aq SN4dr  1 4.100000e-01    3.310000e+00
 SP6aq SN4dr  1 4.100000e-01    3.070000e+00
 SN4dr SN1dq  1 4.100000e-01    2.600000e+00
 SN4dr SN2dq  1 4.100000e-01    2.840000e+00
 SN4dr SN3dq  1 4.100000e-01    2.840000e+00
 SP6dq SN3dr  1 4.100000e-01    2.600000e+00
 SP5dq SN3dr  1 4.100000e-01    2.600000e+00
 SP4dq SN3dr  1 4.100000e-01    2.600000e+00
 SP3dq SN3dr  1 4.100000e-01    2.600000e+00
 SP2dq SN3dr  1 4.100000e-01    2.600000e+00
 SP1dq SN3dr  1 4.100000e-01    2.600000e+00
 SN6dq SN3dr  1 4.100000e-01    2.840000e+00
 SN5dq SN3dr  1 4.100000e-01    2.840000e+00
 SN4dq SN3dr  1 4.100000e-01    2.840000e+00
 SN3dr SN3dq  1 4.100000e-01    2.840000e+00
 SN3dr SX1eq  1 4.100000e-01    2.840000e+00
 SN3dr SX2eq  1 4.100000e-01    2.840000e+00
 SN3dr SX3eq  1 4.100000e-01    3.070000e+00
 SN3dr SX4eq  1 4.100000e-01    3.310000e+00
 SN3dr SC1eq  1 4.100000e-01    2.350000e+00
 SN3dr SC2eq  1 4.100000e-01    2.600000e+00
 SN3dr SC3eq  1 4.100000e-01    2.600000e+00
 SN3dr SC4eq  1 4.100000e-01    2.840000e+00
 SN3dr SC5eq  1 4.100000e-01    2.840000e+00
 SN3dr SC6eq  1 4.100000e-01    3.070000e+00
 SN3dr SX1vq  1 4.100000e-01    2.350000e+00
 SN3dr SX2vq  1 4.100000e-01    2.350000e+00
 SN3dr SX3vq  1 4.100000e-01    2.600000e+00
 SN3dr SX4vq  1 4.100000e-01    2.840000e+00
 SN3dr SC1vq  1 4.100000e-01    2.040000e+00
 SN3dr SC2vq  1 4.100000e-01    2.200000e+00
 SN3dr SC3vq  1 4.100000e-01    2.200000e+00
 SN3dr SC4vq  1 4.100000e-01    2.350000e+00
 SN3dr SC5vq  1 4.100000e-01    2.350000e+00
 SN3dr SC6vq  1 4.100000e-01    2.600000e+00
 SN3dr SN1aq  1 4.100000e-01    3.070000e+00
 SN3dr SN2aq  1 4.100000e-01    3.310000e+00
 SN3dr SN3aq  1 4.100000e-01    3.310000e+00
 SN4aq SN3dr  1 4.100000e-01    3.310000e+00
 SN5aq SN3dr  1 4.100000e-01    3.310000e+00
 SN6aq SN3dr  1 4.100000e-01    3.310000e+00
 SP1aq SN3dr  1 4.100000e-01    3.070000e+00
 SP2aq SN3dr  1 4.100000e-01    3.070000e+00
 SP3aq SN3dr  1 4.100000e-01    3.070000e+00
 SP4aq SN3dr  1 4.100000e-01    3.070000e+00
 SP5aq SN3dr  1 4.100000e-01    2.600000e+00
 SP6aq SN3dr  1 4.100000e-01    2.600000e+00
 SN3dr SN1dq  1 4.100000e-01    2.600000e+00
 SN3dr SN2dq  1 4.100000e-01    2.840000e+00
 SP6dq SN2dr  1 4.100000e-01    2.350000e+00
 SP5dq SN2dr  1 4.100000e-01    2.350000e+00
 SP4dq SN2dr  1 4.100000e-01    2.600000e+00
 SP3dq SN2dr  1 4.100000e-01    2.600000e+00
 SP2dq SN2dr  1 4.100000e-01    2.600000e+00
 SP1dq SN2dr  1 4.100000e-01    2.600000e+00
 SN6dq SN2dr  1 4.100000e-01    2.600000e+00
 SN5dq SN2dr  1 4.100000e-01    2.840000e+00
 SN4dq SN2dr  1 4.100000e-01    2.840000e+00
 SN3dq SN2dr  1 4.100000e-01    2.840000e+00
 SN2dr SN2dq  1 4.100000e-01    2.840000e+00
 SN2dr SX1eq  1 4.100000e-01    2.840000e+00
 SN2dr SX2eq  1 4.100000e-01    2.840000e+00
 SN2dr SX3eq  1 4.100000e-01    3.070000e+00
 SN2dr SX4eq  1 4.100000e-01    3.310000e+00
 SN2dr SC1eq  1 4.100000e-01    2.350000e+00
 SN2dr SC2eq  1 4.100000e-01    2.600000e+00
 SN2dr SC3eq  1 4.100000e-01    2.840000e+00
 SN2dr SC4eq  1 4.100000e-01    2.840000e+00
 SN2dr SC5eq  1 4.100000e-01    2.840000e+00
 SN2dr SC6eq  1 4.100000e-01    3.070000e+00
 SN2dr SX1vq  1 4.100000e-01    2.350000e+00
 SN2dr SX2vq  1 4.100000e-01    2.350000e+00
 SN2dr SX3vq  1 4.100000e-01    2.600000e+00
 SN2dr SX4vq  1 4.100000e-01    2.840000e+00
 SN2dr SC1vq  1 4.100000e-01    2.040000e+00
 SN2dr SC2vq  1 4.100000e-01    2.200000e+00
 SN2dr SC3vq  1 4.100000e-01    2.350000e+00
 SN2dr SC4vq  1 4.100000e-01    2.350000e+00
 SN2dr SC5vq  1 4.100000e-01    2.350000e+00
 SN2dr SC6vq  1 4.100000e-01    2.600000e+00
 SN2dr SN1aq  1 4.100000e-01    3.070000e+00
 SN2dr SN2aq  1 4.100000e-01    3.310000e+00
 SN3aq SN2dr  1 4.100000e-01    3.310000e+00
 SN4aq SN2dr  1 4.100000e-01    3.310000e+00
 SN5aq SN2dr  1 4.100000e-01    3.310000e+00
 SN6aq SN2dr  1 4.100000e-01    3.070000e+00
 SP1aq SN2dr  1 4.100000e-01    3.070000e+00
 SP2aq SN2dr  1 4.100000e-01    3.070000e+00
 SP3aq SN2dr  1 4.100000e-01    3.070000e+00
 SP4aq SN2dr  1 4.100000e-01    2.600000e+00
 SP5aq SN2dr  1 4.100000e-01    2.350000e+00
 SP6aq SN2dr  1 4.100000e-01    2.350000e+00
 SN2dr SN1dq  1 4.100000e-01    2.600000e+00
 SP6dq SN1dr  1 4.100000e-01    2.200000e+00
 SP5dq SN1dr  1 4.100000e-01    2.200000e+00
 SP4dq SN1dr  1 4.100000e-01    2.350000e+00
 SP3dq SN1dr  1 4.100000e-01    2.600000e+00
 SP2dq SN1dr  1 4.100000e-01    2.600000e+00
 SP1dq SN1dr  1 4.100000e-01    2.600000e+00
 SN6dq SN1dr  1 4.100000e-01    2.600000e+00
 SN5dq SN1dr  1 4.100000e-01    2.600000e+00
 SN4dq SN1dr  1 4.100000e-01    2.600000e+00
 SN3dq SN1dr  1 4.100000e-01    2.600000e+00
 SN2dq SN1dr  1 4.100000e-01    2.600000e+00
 SN1dr SN1dq  1 4.100000e-01    2.840000e+00
 SN1dr SX1eq  1 4.100000e-01    2.840000e+00
 SN1dr SX2eq  1 4.100000e-01    2.840000e+00
 SN1dr SX3eq  1 4.100000e-01    3.070000e+00
 SN1dr SX4eq  1 4.100000e-01    3.070000e+00
 SN1dr SC1eq  1 4.100000e-01    2.350000e+00
 SN1dr SC2eq  1 4.100000e-01    2.600000e+00
 SN1dr SC3eq  1 4.100000e-01    2.840000e+00
 SN1dr SC4eq  1 4.100000e-01    3.070000e+00
 SN1dr SC5eq  1 4.100000e-01    3.070000e+00
 SN1dr SC6eq  1 4.100000e-01    3.310000e+00
 SN1dr SX1vq  1 4.100000e-01    2.350000e+00
 SN1dr SX2vq  1 4.100000e-01    2.350000e+00
 SN1dr SX3vq  1 4.100000e-01    2.600000e+00
 SN1dr SX4vq  1 4.100000e-01    2.600000e+00
 SN1dr SC1vq  1 4.100000e-01    2.040000e+00
 SN1dr SC2vq  1 4.100000e-01    2.200000e+00
 SN1dr SC3vq  1 4.100000e-01    2.350000e+00
 SN1dr SC4vq  1 4.100000e-01    2.600000e+00
 SN1dr SC5vq  1 4.100000e-01    2.600000e+00
 SN1dr SC6vq  1 4.100000e-01    2.840000e+00
 SN1dr SN1aq  1 4.100000e-01    3.310000e+00
 SN2aq SN1dr  1 4.100000e-01    3.070000e+00
 SN3aq SN1dr  1 4.100000e-01    3.070000e+00
 SN4aq SN1dr  1 4.100000e-01    3.070000e+00
 SN5aq SN1dr  1 4.100000e-01    3.070000e+00
 SN6aq SN1dr  1 4.100000e-01    3.070000e+00
 SP1aq SN1dr  1 4.100000e-01    3.070000e+00
 SP2aq SN1dr  1 4.100000e-01    3.070000e+00
 SP3aq SN1dr  1 4.100000e-01    2.600000e+00
 SP4aq SN1dr  1 4.100000e-01    2.350000e+00
 SP5aq SN1dr  1 4.100000e-01    2.200000e+00
 SP6aq SN1dr  1 4.100000e-01    2.200000e+00
 SP6dq SP6ar  1 4.100000e-01    5.130000e+00
 SP6ar SP5dq  1 4.100000e-01    4.840000e+00
 SP6ar SP4dq  1 4.100000e-01    4.550000e+00
 SP6ar SP3dq  1 4.100000e-01    4.290000e+00
 SP6ar SP2dq  1 4.100000e-01    4.290000e+00
 SP6ar SP1dq  1 4.100000e-01    4.040000e+00
 SP6ar SN6dq  1 4.100000e-01    3.820000e+00
 SP6ar SN5dq  1 4.100000e-01    3.310000e+00
 SP6ar SN4dq  1 4.100000e-01    3.070000e+00
 SP6ar SN3dq  1 4.100000e-01    2.600000e+00
 SP6ar SN2dq  1 4.100000e-01    2.350000e+00
 SP6ar SN1dq  1 4.100000e-01    2.200000e+00
 SP6ar SP6aq  1 4.100000e-01    4.550000e+00
 SP6ar SX1eq  1 4.100000e-01    1.910000e+00
 SP6ar SX2eq  1 4.100000e-01    2.040000e+00
 SP6ar SX3eq  1 4.100000e-01    2.200000e+00
 SP6ar SX4eq  1 4.100000e-01    2.200000e+00
 SP6ar SC1eq  1 4.210000e-01    1.250000e+00
 SP6ar SC2eq  1 4.140000e-01    1.560000e+00
 SP6ar SC3eq  1 4.140000e-01    1.560000e+00
 SP6ar SC4eq  1 4.100000e-01    1.750000e+00
 SP6ar SC5eq  1 4.100000e-01    1.910000e+00
 SP6ar SC6eq  1 4.100000e-01    2.040000e+00
 SP6ar SX1vq  1 4.100000e-01    2.200000e+00
 SP6ar SX2vq  1 4.100000e-01    2.350000e+00
 SP6ar SX3vq  1 4.100000e-01    2.600000e+00
 SP6ar SX4vq  1 4.100000e-01    2.600000e+00
 SP6ar SC1vq  1 4.140000e-01    1.560000e+00
 SP6ar SC2vq  1 4.100000e-01    1.910000e+00
 SP6ar SC3vq  1 4.100000e-01    1.910000e+00
 SP6ar SC4vq  1 4.100000e-01    2.040000e+00
 SP6ar SC5vq  1 4.100000e-01    2.200000e+00
 SP6ar SC6vq  1 4.100000e-01    2.350000e+00
 SP6ar SN1aq  1 4.100000e-01    2.200000e+00
 SP6ar SN2aq  1 4.100000e-01    2.350000e+00
 SP6ar SN3aq  1 4.100000e-01    2.600000e+00
 SP6ar SN4aq  1 4.100000e-01    2.600000e+00
 SP6ar SN5aq  1 4.100000e-01    2.840000e+00
 SP6ar SN6aq  1 4.100000e-01    3.310000e+00
 SP6ar SP1aq  1 4.100000e-01    3.550000e+00
 SP6ar SP2aq  1 4.100000e-01    3.820000e+00
 SP6ar SP3aq  1 4.100000e-01    3.820000e+00
 SP6ar SP4aq  1 4.100000e-01    4.040000e+00
 SP6ar SP5aq  1 4.100000e-01    4.290000e+00
 SP6dq SP5ar  1 4.100000e-01    4.840000e+00
 SP5dq SP5ar  1 4.100000e-01    4.550000e+00
 SP5ar SP4dq  1 4.100000e-01    4.290000e+00
 SP5ar SP3dq  1 4.100000e-01    4.040000e+00
 SP5ar SP2dq  1 4.100000e-01    4.040000e+00
 SP5ar SP1dq  1 4.100000e-01    3.820000e+00
 SP5ar SN6dq  1 4.100000e-01    3.550000e+00
 SP5ar SN5dq  1 4.100000e-01    3.310000e+00
 SP5ar SN4dq  1 4.100000e-01    3.310000e+00
 SP5ar SN3dq  1 4.100000e-01    2.600000e+00
 SP5ar SN2dq  1 4.100000e-01    2.350000e+00
 SP5ar SN1dq  1 4.100000e-01    2.200000e+00
 SP6aq SP5ar  1 4.100000e-01    4.290000e+00
 SP5ar SP5aq  1 4.100000e-01    4.040000e+00
 SP5ar SX1eq  1 4.100000e-01    1.910000e+00
 SP5ar SX2eq  1 4.100000e-01    2.200000e+00
 SP5ar SX3eq  1 4.100000e-01    2.200000e+00
 SP5ar SX4eq  1 4.100000e-01    2.350000e+00
 SP5ar SC1eq  1 4.140000e-01    1.560000e+00
 SP5ar SC2eq  1 4.100000e-01    1.750000e+00
 SP5ar SC3eq  1 4.100000e-01    1.750000e+00
 SP5ar SC4eq  1 4.100000e-01    1.910000e+00
 SP5ar SC5eq  1 4.100000e-01    2.040000e+00
 SP5ar SC6eq  1 4.100000e-01    2.040000e+00
 SP5ar SX1vq  1 4.100000e-01    2.200000e+00
 SP5ar SX2vq  1 4.100000e-01    2.600000e+00
 SP5ar SX3vq  1 4.100000e-01    2.600000e+00
 SP5ar SX4vq  1 4.100000e-01    2.840000e+00
 SP5ar SC1vq  1 4.100000e-01    1.910000e+00
 SP5ar SC2vq  1 4.100000e-01    2.040000e+00
 SP5ar SC3vq  1 4.100000e-01    2.040000e+00
 SP5ar SC4vq  1 4.100000e-01    2.200000e+00
 SP5ar SC5vq  1 4.100000e-01    2.350000e+00
 SP5ar SC6vq  1 4.100000e-01    2.350000e+00
 SP5ar SN1aq  1 4.100000e-01    2.200000e+00
 SP5ar SN2aq  1 4.100000e-01    2.350000e+00
 SP5ar SN3aq  1 4.100000e-01    2.600000e+00
 SP5ar SN4aq  1 4.100000e-01    2.840000e+00
 SP5ar SN5aq  1 4.100000e-01    2.840000e+00
 SP5ar SN6aq  1 4.100000e-01    3.070000e+00
 SP5ar SP1aq  1 4.100000e-01    3.310000e+00
 SP5ar SP2aq  1 4.100000e-01    3.550000e+00
 SP5ar SP3aq  1 4.100000e-01    3.550000e+00
 SP5ar SP4aq  1 4.100000e-01    3.820000e+00
 SP6dq SP4ar  1 4.100000e-01    4.550000e+00
 SP5dq SP4ar  1 4.100000e-01    4.290000e+00
 SP4dq SP4ar  1 4.100000e-01    4.290000e+00
 SP4ar SP3dq  1 4.100000e-01    4.040000e+00
 SP4ar SP2dq  1 4.100000e-01    4.040000e+00
 SP4ar SP1dq  1 4.100000e-01    3.820000e+00
 SP4ar SN6dq  1 4.100000e-01    3.550000e+00
 SP4ar SN5dq  1 4.100000e-01    3.310000e+00
 SP4ar SN4dq  1 4.100000e-01    3.310000e+00
 SP4ar SN3dq  1 4.100000e-01    3.070000e+00
 SP4ar SN2dq  1 4.100000e-01    2.600000e+00
 SP4ar SN1dq  1 4.100000e-01    2.350000e+00
 SP6aq SP4ar  1 4.100000e-01    4.040000e+00
 SP5aq SP4ar  1 4.100000e-01    3.820000e+00
 SP4ar SP4aq  1 4.100000e-01    3.820000e+00
 SP4ar SX1eq  1 4.100000e-01    2.040000e+00
 SP4ar SX2eq  1 4.100000e-01    2.200000e+00
 SP4ar SX3eq  1 4.100000e-01    2.200000e+00
 SP4ar SX4eq  1 4.100000e-01    2.350000e+00
 SP4ar SC1eq  1 4.140000e-01    1.560000e+00
 SP4ar SC2eq  1 4.100000e-01    1.750000e+00
 SP4ar SC3eq  1 4.100000e-01    1.750000e+00
 SP4ar SC4eq  1 4.100000e-01    1.910000e+00
 SP4ar SC5eq  1 4.100000e-01    2.040000e+00
 SP4ar SC6eq  1 4.100000e-01    2.200000e+00
 SP4ar SX1vq  1 4.100000e-01    2.350000e+00
 SP4ar SX2vq  1 4.100000e-01    2.600000e+00
 SP4ar SX3vq  1 4.100000e-01    2.600000e+00
 SP4ar SX4vq  1 4.100000e-01    2.840000e+00
 SP4ar SC1vq  1 4.100000e-01    1.910000e+00
 SP4ar SC2vq  1 4.100000e-01    2.040000e+00
 SP4ar SC3vq  1 4.100000e-01    2.040000e+00
 SP4ar SC4vq  1 4.100000e-01    2.200000e+00
 SP4ar SC5vq  1 4.100000e-01    2.350000e+00
 SP4ar SC6vq  1 4.100000e-01    2.600000e+00
 SP4ar SN1aq  1 4.100000e-01    2.350000e+00
 SP4ar SN2aq  1 4.100000e-01    2.600000e+00
 SP4ar SN3aq  1 4.100000e-01    2.600000e+00
 SP4ar SN4aq  1 4.100000e-01    2.840000e+00
 SP4ar SN5aq  1 4.100000e-01    2.840000e+00
 SP4ar SN6aq  1 4.100000e-01    3.070000e+00
 SP4ar SP1aq  1 4.100000e-01    3.310000e+00
 SP4ar SP2aq  1 4.100000e-01    3.550000e+00
 SP4ar SP3aq  1 4.100000e-01    3.550000e+00
 SP6dq SP3ar  1 4.100000e-01    4.290000e+00
 SP5dq SP3ar  1 4.100000e-01    4.040000e+00
 SP4dq SP3ar  1 4.100000e-01    4.040000e+00
 SP3dq SP3ar  1 4.100000e-01    4.040000e+00
 SP3ar SP2dq  1 4.100000e-01    4.040000e+00
 SP3ar SP1dq  1 4.100000e-01    3.820000e+00
 SP3ar SN6dq  1 4.100000e-01    3.550000e+00
 SP3ar SN5dq  1 4.100000e-01    3.310000e+00
 SP3ar SN4dq  1 4.100000e-01    3.310000e+00
 SP3ar SN3dq  1 4.100000e-01    3.070000e+00
 SP3ar SN2dq  1 4.100000e-01    3.070000e+00
 SP3ar SN1dq  1 4.100000e-01    2.600000e+00
 SP6aq SP3ar  1 4.100000e-01    3.820000e+00
 SP5aq SP3ar  1 4.100000e-01    3.550000e+00
 SP4aq SP3ar  1 4.100000e-01    3.550000e+00
 SP3ar SP3aq  1 4.100000e-01    3.550000e+00
 SP3ar SX1eq  1 4.100000e-01    2.040000e+00
 SP3ar SX2eq  1 4.100000e-01    2.200000e+00
 SP3ar SX3eq  1 4.100000e-01    2.350000e+00
 SP3ar SX4eq  1 4.100000e-01    2.350000e+00
 SP3ar SC1eq  1 4.140000e-01    1.560000e+00
 SP3ar SC2eq  1 4.100000e-01    1.750000e+00
 SP3ar SC3eq  1 4.100000e-01    1.750000e+00
 SP3ar SC4eq  1 4.100000e-01    2.040000e+00
 SP3ar SC5eq  1 4.100000e-01    2.200000e+00
 SP3ar SC6eq  1 4.100000e-01    2.350000e+00
 SP3ar SX1vq  1 4.100000e-01    2.350000e+00
 SP3ar SX2vq  1 4.100000e-01    2.600000e+00
 SP3ar SX3vq  1 4.100000e-01    2.840000e+00
 SP3ar SX4vq  1 4.100000e-01    2.840000e+00
 SP3ar SC1vq  1 4.100000e-01    1.910000e+00
 SP3ar SC2vq  1 4.100000e-01    2.040000e+00
 SP3ar SC3vq  1 4.100000e-01    2.040000e+00
 SP3ar SC4vq  1 4.100000e-01    2.350000e+00
 SP3ar SC5vq  1 4.100000e-01    2.600000e+00
 SP3ar SC6vq  1 4.100000e-01    2.840000e+00
 SP3ar SN1aq  1 4.100000e-01    2.600000e+00
 SP3ar SN2aq  1 4.100000e-01    2.600000e+00
 SP3ar SN3aq  1 4.100000e-01    2.600000e+00
 SP3ar SN4aq  1 4.100000e-01    2.840000e+00
 SP3ar SN5aq  1 4.100000e-01    2.840000e+00
 SP3ar SN6aq  1 4.100000e-01    3.070000e+00
 SP3ar SP1aq  1 4.100000e-01    3.310000e+00
 SP3ar SP2aq  1 4.100000e-01    3.550000e+00
 SP6dq SP2ar  1 4.100000e-01    4.290000e+00
 SP5dq SP2ar  1 4.100000e-01    4.040000e+00
 SP4dq SP2ar  1 4.100000e-01    4.040000e+00
 SP3dq SP2ar  1 4.100000e-01    4.040000e+00
 SP2dq SP2ar  1 4.100000e-01    4.040000e+00
 SP2ar SP1dq  1 4.100000e-01    3.820000e+00
 SP2ar SN6dq  1 4.100000e-01    3.820000e+00
 SP2ar SN5dq  1 4.100000e-01    3.550000e+00
 SP2ar SN4dq  1 4.100000e-01    3.310000e+00
 SP2ar SN3dq  1 4.100000e-01    3.070000e+00
 SP2ar SN2dq  1 4.100000e-01    3.070000e+00
 SP2ar SN1dq  1 4.100000e-01    3.070000e+00
 SP6aq SP2ar  1 4.100000e-01    3.820000e+00
 SP5aq SP2ar  1 4.100000e-01    3.550000e+00
 SP4aq SP2ar  1 4.100000e-01    3.550000e+00
 SP3aq SP2ar  1 4.100000e-01    3.550000e+00
 SP2ar SP2aq  1 4.100000e-01    3.550000e+00
 SP2ar SX1eq  1 4.100000e-01    2.040000e+00
 SP2ar SX2eq  1 4.100000e-01    2.200000e+00
 SP2ar SX3eq  1 4.100000e-01    2.350000e+00
 SP2ar SX4eq  1 4.100000e-01    2.350000e+00
 SP2ar SC1eq  1 4.100000e-01    1.750000e+00
 SP2ar SC2eq  1 4.100000e-01    1.910000e+00
 SP2ar SC3eq  1 4.100000e-01    1.910000e+00
 SP2ar SC4eq  1 4.100000e-01    2.040000e+00
 SP2ar SC5eq  1 4.100000e-01    2.200000e+00
 SP2ar SC6eq  1 4.100000e-01    2.350000e+00
 SP2ar SX1vq  1 4.100000e-01    2.350000e+00
 SP2ar SX2vq  1 4.100000e-01    2.600000e+00
 SP2ar SX3vq  1 4.100000e-01    2.840000e+00
 SP2ar SX4vq  1 4.100000e-01    2.840000e+00
 SP2ar SC1vq  1 4.100000e-01    2.040000e+00
 SP2ar SC2vq  1 4.100000e-01    2.200000e+00
 SP2ar SC3vq  1 4.100000e-01    2.200000e+00
 SP2ar SC4vq  1 4.100000e-01    2.350000e+00
 SP2ar SC5vq  1 4.100000e-01    2.600000e+00
 SP2ar SC6vq  1 4.100000e-01    2.840000e+00
 SP2ar SN1aq  1 4.100000e-01    2.600000e+00
 SP2ar SN2aq  1 4.100000e-01    2.600000e+00
 SP2ar SN3aq  1 4.100000e-01    2.600000e+00
 SP2ar SN4aq  1 4.100000e-01    2.840000e+00
 SP2ar SN5aq  1 4.100000e-01    3.070000e+00
 SP2ar SN6aq  1 4.100000e-01    3.310000e+00
 SP2ar SP1aq  1 4.100000e-01    3.310000e+00
 SP6dq SP1ar  1 4.100000e-01    4.040000e+00
 SP5dq SP1ar  1 4.100000e-01    3.820000e+00
 SP4dq SP1ar  1 4.100000e-01    3.820000e+00
 SP3dq SP1ar  1 4.100000e-01    3.820000e+00
 SP2dq SP1ar  1 4.100000e-01    3.820000e+00
 SP1dq SP1ar  1 4.100000e-01    3.820000e+00
 SP1ar SN6dq  1 4.100000e-01    3.820000e+00
 SP1ar SN5dq  1 4.100000e-01    3.550000e+00
 SP1ar SN4dq  1 4.100000e-01    3.550000e+00
 SP1ar SN3dq  1 4.100000e-01    3.070000e+00
 SP1ar SN2dq  1 4.100000e-01    3.070000e+00
 SP1ar SN1dq  1 4.100000e-01    3.070000e+00
 SP6aq SP1ar  1 4.100000e-01    3.550000e+00
 SP5aq SP1ar  1 4.100000e-01    3.310000e+00
 SP4aq SP1ar  1 4.100000e-01    3.310000e+00
 SP3aq SP1ar  1 4.100000e-01    3.310000e+00
 SP2aq SP1ar  1 4.100000e-01    3.310000e+00
 SP1ar SP1aq  1 4.100000e-01    3.310000e+00
 SP1ar SX1eq  1 4.100000e-01    2.040000e+00
 SP1ar SX2eq  1 4.100000e-01    2.200000e+00
 SP1ar SX3eq  1 4.100000e-01    2.350000e+00
 SP1ar SX4eq  1 4.100000e-01    2.350000e+00
 SP1ar SC1eq  1 4.100000e-01    1.750000e+00
 SP1ar SC2eq  1 4.100000e-01    1.910000e+00
 SP1ar SC3eq  1 4.100000e-01    1.910000e+00
 SP1ar SC4eq  1 4.100000e-01    2.040000e+00
 SP1ar SC5eq  1 4.100000e-01    2.200000e+00
 SP1ar SC6eq  1 4.100000e-01    2.350000e+00
 SP1ar SX1vq  1 4.100000e-01    2.350000e+00
 SP1ar SX2vq  1 4.100000e-01    2.600000e+00
 SP1ar SX3vq  1 4.100000e-01    2.840000e+00
 SP1ar SX4vq  1 4.100000e-01    2.840000e+00
 SP1ar SC1vq  1 4.100000e-01    2.040000e+00
 SP1ar SC2vq  1 4.100000e-01    2.200000e+00
 SP1ar SC3vq  1 4.100000e-01    2.200000e+00
 SP1ar SC4vq  1 4.100000e-01    2.350000e+00
 SP1ar SC5vq  1 4.100000e-01    2.600000e+00
 SP1ar SC6vq  1 4.100000e-01    2.840000e+00
 SP1ar SN1aq  1 4.100000e-01    2.600000e+00
 SP1ar SN2aq  1 4.100000e-01    2.600000e+00
 SP1ar SN3aq  1 4.100000e-01    2.600000e+00
 SP1ar SN4aq  1 4.100000e-01    3.070000e+00
 SP1ar SN5aq  1 4.100000e-01    3.070000e+00
 SP1ar SN6aq  1 4.100000e-01    3.310000e+00
 SP6dq SN6ar  1 4.100000e-01    3.820000e+00
 SP5dq SN6ar  1 4.100000e-01    3.550000e+00
 SP4dq SN6ar  1 4.100000e-01    3.550000e+00
 SP3dq SN6ar  1 4.100000e-01    3.550000e+00
 SP2dq SN6ar  1 4.100000e-01    3.820000e+00
 SP1dq SN6ar  1 4.100000e-01    3.820000e+00
 SN6dq SN6ar  1 4.100000e-01    3.820000e+00
 SN6ar SN5dq  1 4.100000e-01    3.820000e+00
 SN6ar SN4dq  1 4.100000e-01    3.820000e+00
 SN6ar SN3dq  1 4.100000e-01    3.310000e+00
 SN6ar SN2dq  1 4.100000e-01    3.070000e+00
 SN6ar SN1dq  1 4.100000e-01    3.070000e+00
 SP6aq SN6ar  1 4.100000e-01    3.310000e+00
 SP5aq SN6ar  1 4.100000e-01    3.070000e+00
 SP4aq SN6ar  1 4.100000e-01    3.070000e+00
 SP3aq SN6ar  1 4.100000e-01    3.070000e+00
 SP2aq SN6ar  1 4.100000e-01    3.310000e+00
 SP1aq SN6ar  1 4.100000e-01    3.310000e+00
 SN6ar SN6aq  1 4.100000e-01    3.310000e+00
 SN6ar SX1eq  1 4.100000e-01    2.040000e+00
 SN6ar SX2eq  1 4.100000e-01    2.200000e+00
 SN6ar SX3eq  1 4.100000e-01    2.350000e+00
 SN6ar SX4eq  1 4.100000e-01    2.600000e+00
 SN6ar SC1eq  1 4.100000e-01    1.910000e+00
 SN6ar SC2eq  1 4.100000e-01    2.040000e+00
 SN6ar SC3eq  1 4.100000e-01    2.040000e+00
 SN6ar SC4eq  1 4.100000e-01    2.200000e+00
 SN6ar SC5eq  1 4.100000e-01    2.350000e+00
 SN6ar SC6eq  1 4.100000e-01    2.600000e+00
 SN6ar SX1vq  1 4.100000e-01    2.350000e+00
 SN6ar SX2vq  1 4.100000e-01    2.600000e+00
 SN6ar SX3vq  1 4.100000e-01    2.840000e+00
 SN6ar SX4vq  1 4.100000e-01    3.070000e+00
 SN6ar SC1vq  1 4.100000e-01    2.200000e+00
 SN6ar SC2vq  1 4.100000e-01    2.350000e+00
 SN6ar SC3vq  1 4.100000e-01    2.350000e+00
 SN6ar SC4vq  1 4.100000e-01    2.600000e+00
 SN6ar SC5vq  1 4.100000e-01    2.840000e+00
 SN6ar SC6vq  1 4.100000e-01    3.070000e+00
 SN6ar SN1aq  1 4.100000e-01    2.600000e+00
 SN6ar SN2aq  1 4.100000e-01    2.600000e+00
 SN6ar SN3aq  1 4.100000e-01    2.840000e+00
 SN6ar SN4aq  1 4.100000e-01    3.310000e+00
 SN6ar SN5aq  1 4.100000e-01    3.310000e+00
 SP6dq SN5ar  1 4.100000e-01    3.310000e+00
 SP5dq SN5ar  1 4.100000e-01    3.310000e+00
 SP4dq SN5ar  1 4.100000e-01    3.310000e+00
 SP3dq SN5ar  1 4.100000e-01    3.310000e+00
 SP2dq SN5ar  1 4.100000e-01    3.550000e+00
 SP1dq SN5ar  1 4.100000e-01    3.550000e+00
 SN6dq SN5ar  1 4.100000e-01    3.820000e+00
 SN5dq SN5ar  1 4.100000e-01    3.550000e+00
 SN5ar SN4dq  1 4.100000e-01    3.550000e+00
 SN5ar SN3dq  1 4.100000e-01    3.310000e+00
 SN5ar SN2dq  1 4.100000e-01    3.310000e+00
 SN5ar SN1dq  1 4.100000e-01    3.070000e+00
 SP6aq SN5ar  1 4.100000e-01    2.840000e+00
 SP5aq SN5ar  1 4.100000e-01    2.840000e+00
 SP4aq SN5ar  1 4.100000e-01    2.840000e+00
 SP3aq SN5ar  1 4.100000e-01    2.840000e+00
 SP2aq SN5ar  1 4.100000e-01    3.070000e+00
 SP1aq SN5ar  1 4.100000e-01    3.070000e+00
 SN6aq SN5ar  1 4.100000e-01    3.310000e+00
 SN5ar SN5aq  1 4.100000e-01    3.070000e+00
 SN5ar SX1eq  1 4.100000e-01    2.200000e+00
 SN5ar SX2eq  1 4.100000e-01    2.350000e+00
 SN5ar SX3eq  1 4.100000e-01    2.600000e+00
 SN5ar SX4eq  1 4.100000e-01    2.840000e+00
 SN5ar SC1eq  1 4.100000e-01    1.910000e+00
 SN5ar SC2eq  1 4.100000e-01    2.040000e+00
 SN5ar SC3eq  1 4.100000e-01    2.200000e+00
 SN5ar SC4eq  1 4.100000e-01    2.200000e+00
 SN5ar SC5eq  1 4.100000e-01    2.350000e+00
 SN5ar SC6eq  1 4.100000e-01    2.600000e+00
 SN5ar SX1vq  1 4.100000e-01    2.600000e+00
 SN5ar SX2vq  1 4.100000e-01    2.840000e+00
 SN5ar SX3vq  1 4.100000e-01    3.070000e+00
 SN5ar SX4vq  1 4.100000e-01    3.310000e+00
 SN5ar SC1vq  1 4.100000e-01    2.200000e+00
 SN5ar SC2vq  1 4.100000e-01    2.350000e+00
 SN5ar SC3vq  1 4.100000e-01    2.600000e+00
 SN5ar SC4vq  1 4.100000e-01    2.600000e+00
 SN5ar SC5vq  1 4.100000e-01    2.840000e+00
 SN5ar SC6vq  1 4.100000e-01    3.070000e+00
 SN5ar SN1aq  1 4.100000e-01    2.600000e+00
 SN5ar SN2aq  1 4.100000e-01    2.840000e+00
 SN5ar SN3aq  1 4.100000e-01    2.840000e+00
 SN5ar SN4aq  1 4.100000e-01    3.070000e+00
 SP6dq SN4ar  1 4.100000e-01    3.070000e+00
 SP5dq SN4ar  1 4.100000e-01    3.310000e+00
 SP4dq SN4ar  1 4.100000e-01    3.310000e+00
 SP3dq SN4ar  1 4.100000e-01    3.310000e+00
 SP2dq SN4ar  1 4.100000e-01    3.310000e+00
 SP1dq SN4ar  1 4.100000e-01    3.550000e+00
 SN6dq SN4ar  1 4.100000e-01    3.820000e+00
 SN5dq SN4ar  1 4.100000e-01    3.550000e+00
 SN4dq SN4ar  1 4.100000e-01    3.550000e+00
 SN4ar SN3dq  1 4.100000e-01    3.310000e+00
 SN4ar SN2dq  1 4.100000e-01    3.310000e+00
 SN4ar SN1dq  1 4.100000e-01    3.070000e+00
 SP6aq SN4ar  1 4.100000e-01    2.600000e+00
 SP5aq SN4ar  1 4.100000e-01    2.840000e+00
 SP4aq SN4ar  1 4.100000e-01    2.840000e+00
 SP3aq SN4ar  1 4.100000e-01    2.840000e+00
 SP2aq SN4ar  1 4.100000e-01    2.840000e+00
 SP1aq SN4ar  1 4.100000e-01    3.070000e+00
 SN6aq SN4ar  1 4.100000e-01    3.310000e+00
 SN5aq SN4ar  1 4.100000e-01    3.070000e+00
 SN4ar SN4aq  1 4.100000e-01    3.070000e+00
 SN4ar SX1eq  1 4.100000e-01    2.200000e+00
 SN4ar SX2eq  1 4.100000e-01    2.350000e+00
 SN4ar SX3eq  1 4.100000e-01    2.840000e+00
 SN4ar SX4eq  1 4.100000e-01    3.070000e+00
 SN4ar SC1eq  1 4.100000e-01    1.910000e+00
 SN4ar SC2eq  1 4.100000e-01    2.040000e+00
 SN4ar SC3eq  1 4.100000e-01    2.200000e+00
 SN4ar SC4eq  1 4.100000e-01    2.350000e+00
 SN4ar SC5eq  1 4.100000e-01    2.350000e+00
 SN4ar SC6eq  1 4.100000e-01    2.600000e+00
 SN4ar SX1vq  1 4.100000e-01    2.600000e+00
 SN4ar SX2vq  1 4.100000e-01    2.840000e+00
 SN4ar SX3vq  1 4.100000e-01    3.310000e+00
 SN4ar SX4vq  1 4.100000e-01    3.550000e+00
 SN4ar SC1vq  1 4.100000e-01    2.200000e+00
 SN4ar SC2vq  1 4.100000e-01    2.350000e+00
 SN4ar SC3vq  1 4.100000e-01    2.600000e+00
 SN4ar SC4vq  1 4.100000e-01    2.840000e+00
 SN4ar SC5vq  1 4.100000e-01    2.840000e+00
 SN4ar SC6vq  1 4.100000e-01    3.070000e+00
 SN4ar SN1aq  1 4.100000e-01    2.600000e+00
 SN4ar SN2aq  1 4.100000e-01    2.840000e+00
 SN4ar SN3aq  1 4.100000e-01    2.840000e+00
 SP6dq SN3ar  1 4.100000e-01    2.600000e+00
 SP5dq SN3ar  1 4.100000e-01    2.600000e+00
 SP4dq SN3ar  1 4.100000e-01    3.070000e+00
 SP3dq SN3ar  1 4.100000e-01    3.070000e+00
 SP2dq SN3ar  1 4.100000e-01    3.070000e+00
 SP1dq SN3ar  1 4.100000e-01    3.070000e+00
 SN6dq SN3ar  1 4.100000e-01    3.310000e+00
 SN5dq SN3ar  1 4.100000e-01    3.310000e+00
 SN4dq SN3ar  1 4.100000e-01    3.310000e+00
 SN3dq SN3ar  1 4.100000e-01    3.310000e+00
 SN3ar SN2dq  1 4.100000e-01    3.310000e+00
 SN3ar SN1dq  1 4.100000e-01    3.070000e+00
 SP6aq SN3ar  1 4.100000e-01    2.600000e+00
 SP5aq SN3ar  1 4.100000e-01    2.600000e+00
 SP4aq SN3ar  1 4.100000e-01    2.600000e+00
 SP3aq SN3ar  1 4.100000e-01    2.600000e+00
 SP2aq SN3ar  1 4.100000e-01    2.600000e+00
 SP1aq SN3ar  1 4.100000e-01    2.600000e+00
 SN6aq SN3ar  1 4.100000e-01    2.840000e+00
 SN5aq SN3ar  1 4.100000e-01    2.840000e+00
 SN4aq SN3ar  1 4.100000e-01    2.840000e+00
 SN3ar SN3aq  1 4.100000e-01    2.840000e+00
 SN3ar SX1eq  1 4.100000e-01    2.350000e+00
 SN3ar SX2eq  1 4.100000e-01    2.350000e+00
 SN3ar SX3eq  1 4.100000e-01    2.600000e+00
 SN3ar SX4eq  1 4.100000e-01    2.840000e+00
 SN3ar SC1eq  1 4.100000e-01    2.040000e+00
 SN3ar SC2eq  1 4.100000e-01    2.200000e+00
 SN3ar SC3eq  1 4.100000e-01    2.200000e+00
 SN3ar SC4eq  1 4.100000e-01    2.350000e+00
 SN3ar SC5eq  1 4.100000e-01    2.350000e+00
 SN3ar SC6eq  1 4.100000e-01    2.600000e+00
 SN3ar SX1vq  1 4.100000e-01    2.840000e+00
 SN3ar SX2vq  1 4.100000e-01    2.840000e+00
 SN3ar SX3vq  1 4.100000e-01    3.070000e+00
 SN3ar SX4vq  1 4.100000e-01    3.310000e+00
 SN3ar SC1vq  1 4.100000e-01    2.350000e+00
 SN3ar SC2vq  1 4.100000e-01    2.600000e+00
 SN3ar SC3vq  1 4.100000e-01    2.600000e+00
 SN3ar SC4vq  1 4.100000e-01    2.840000e+00
 SN3ar SC5vq  1 4.100000e-01    2.840000e+00
 SN3ar SC6vq  1 4.100000e-01    3.070000e+00
 SN3ar SN1aq  1 4.100000e-01    2.600000e+00
 SN3ar SN2aq  1 4.100000e-01    2.840000e+00
 SP6dq SN2ar  1 4.100000e-01    2.350000e+00
 SP5dq SN2ar  1 4.100000e-01    2.350000e+00
 SP4dq SN2ar  1 4.100000e-01    2.600000e+00
 SP3dq SN2ar  1 4.100000e-01    3.070000e+00
 SP2dq SN2ar  1 4.100000e-01    3.070000e+00
 SP1dq SN2ar  1 4.100000e-01    3.070000e+00
 SN6dq SN2ar  1 4.100000e-01    3.070000e+00
 SN5dq SN2ar  1 4.100000e-01    3.310000e+00
 SN4dq SN2ar  1 4.100000e-01    3.310000e+00
 SN3dq SN2ar  1 4.100000e-01    3.310000e+00
 SN2dq SN2ar  1 4.100000e-01    3.310000e+00
 SN2ar SN1dq  1 4.100000e-01    3.070000e+00
 SP6aq SN2ar  1 4.100000e-01    2.350000e+00
 SP5aq SN2ar  1 4.100000e-01    2.350000e+00
 SP4aq SN2ar  1 4.100000e-01    2.600000e+00
 SP3aq SN2ar  1 4.100000e-01    2.600000e+00
 SP2aq SN2ar  1 4.100000e-01    2.600000e+00
 SP1aq SN2ar  1 4.100000e-01    2.600000e+00
 SN6aq SN2ar  1 4.100000e-01    2.600000e+00
 SN5aq SN2ar  1 4.100000e-01    2.840000e+00
 SN4aq SN2ar  1 4.100000e-01    2.840000e+00
 SN3aq SN2ar  1 4.100000e-01    2.840000e+00
 SN2ar SN2aq  1 4.100000e-01    2.840000e+00
 SN2ar SX1eq  1 4.100000e-01    2.350000e+00
 SN2ar SX2eq  1 4.100000e-01    2.350000e+00
 SN2ar SX3eq  1 4.100000e-01    2.600000e+00
 SN2ar SX4eq  1 4.100000e-01    2.840000e+00
 SN2ar SC1eq  1 4.100000e-01    2.040000e+00
 SN2ar SC2eq  1 4.100000e-01    2.200000e+00
 SN2ar SC3eq  1 4.100000e-01    2.350000e+00
 SN2ar SC4eq  1 4.100000e-01    2.350000e+00
 SN2ar SC5eq  1 4.100000e-01    2.350000e+00
 SN2ar SC6eq  1 4.100000e-01    2.600000e+00
 SN2ar SX1vq  1 4.100000e-01    2.840000e+00
 SN2ar SX2vq  1 4.100000e-01    2.840000e+00
 SN2ar SX3vq  1 4.100000e-01    3.070000e+00
 SN2ar SX4vq  1 4.100000e-01    3.310000e+00
 SN2ar SC1vq  1 4.100000e-01    2.350000e+00
 SN2ar SC2vq  1 4.100000e-01    2.600000e+00
 SN2ar SC3vq  1 4.100000e-01    2.840000e+00
 SN2ar SC4vq  1 4.100000e-01    2.840000e+00
 SN2ar SC5vq  1 4.100000e-01    2.840000e+00
 SN2ar SC6vq  1 4.100000e-01    3.070000e+00
 SN2ar SN1aq  1 4.100000e-01    2.600000e+00
 SP6dq SN1ar  1 4.100000e-01    2.200000e+00
 SP5dq SN1ar  1 4.100000e-01    2.200000e+00
 SP4dq SN1ar  1 4.100000e-01    2.350000e+00
 SP3dq SN1ar  1 4.100000e-01    2.600000e+00
 SP2dq SN1ar  1 4.100000e-01    3.070000e+00
 SP1dq SN1ar  1 4.100000e-01    3.070000e+00
 SN6dq SN1ar  1 4.100000e-01    3.070000e+00
 SN5dq SN1ar  1 4.100000e-01    3.070000e+00
 SN4dq SN1ar  1 4.100000e-01    3.070000e+00
 SN3dq SN1ar  1 4.100000e-01    3.070000e+00
 SN2dq SN1ar  1 4.100000e-01    3.070000e+00
 SN1dq SN1ar  1 4.100000e-01    3.310000e+00
 SP6aq SN1ar  1 4.100000e-01    2.200000e+00
 SP5aq SN1ar  1 4.100000e-01    2.200000e+00
 SP4aq SN1ar  1 4.100000e-01    2.350000e+00
 SP3aq SN1ar  1 4.100000e-01    2.600000e+00
 SP2aq SN1ar  1 4.100000e-01    2.600000e+00
 SP1aq SN1ar  1 4.100000e-01    2.600000e+00
 SN6aq SN1ar  1 4.100000e-01    2.600000e+00
 SN5aq SN1ar  1 4.100000e-01    2.600000e+00
 SN4aq SN1ar  1 4.100000e-01    2.600000e+00
 SN3aq SN1ar  1 4.100000e-01    2.600000e+00
 SN2aq SN1ar  1 4.100000e-01    2.600000e+00
 SN1ar SN1aq  1 4.100000e-01    2.840000e+00
 SN1ar SX1eq  1 4.100000e-01    2.350000e+00
 SN1ar SX2eq  1 4.100000e-01    2.350000e+00
 SN1ar SX3eq  1 4.100000e-01    2.600000e+00
 SN1ar SX4eq  1 4.100000e-01    2.600000e+00
 SN1ar SC1eq  1 4.100000e-01    2.040000e+00
 SN1ar SC2eq  1 4.100000e-01    2.200000e+00
 SN1ar SC3eq  1 4.100000e-01    2.350000e+00
 SN1ar SC4eq  1 4.100000e-01    2.600000e+00
 SN1ar SC5eq  1 4.100000e-01    2.600000e+00
 SN1ar SC6eq  1 4.100000e-01    2.840000e+00
 SN1ar SX1vq  1 4.100000e-01    2.840000e+00
 SN1ar SX2vq  1 4.100000e-01    2.840000e+00
 SN1ar SX3vq  1 4.100000e-01    3.070000e+00
 SN1ar SX4vq  1 4.100000e-01    3.070000e+00
 SN1ar SC1vq  1 4.100000e-01    2.350000e+00
 SN1ar SC2vq  1 4.100000e-01    2.600000e+00
 SN1ar SC3vq  1 4.100000e-01    2.840000e+00
 SN1ar SC4vq  1 4.100000e-01    3.070000e+00
 SN1ar SC5vq  1 4.100000e-01    3.070000e+00
 SN1ar SC6vq  1 4.100000e-01    3.310000e+00
 SP6dq SC6vr  1 4.100000e-01    2.040000e+00
 SP5dq SC6vr  1 4.100000e-01    2.040000e+00
 SP4dq SC6vr  1 4.100000e-01    2.200000e+00
 SP3dq SC6vr  1 4.100000e-01    2.350000e+00
 SP2dq SC6vr  1 4.100000e-01    2.350000e+00
 SP1dq SC6vr  1 4.100000e-01    2.350000e+00
 SN6dq SC6vr  1 4.100000e-01    2.600000e+00
 SN5dq SC6vr  1 4.100000e-01    2.600000e+00
 SN4dq SC6vr  1 4.100000e-01    2.600000e+00
 SN3dq SC6vr  1 4.100000e-01    2.600000e+00
 SN2dq SC6vr  1 4.100000e-01    2.600000e+00
 SN1dq SC6vr  1 4.100000e-01    2.840000e+00
 SP6aq SC6vr  1 4.100000e-01    2.350000e+00
 SP5aq SC6vr  1 4.100000e-01    2.350000e+00
 SP4aq SC6vr  1 4.100000e-01    2.600000e+00
 SP3aq SC6vr  1 4.100000e-01    2.840000e+00
 SP2aq SC6vr  1 4.100000e-01    2.840000e+00
 SP1aq SC6vr  1 4.100000e-01    2.840000e+00
 SN6aq SC6vr  1 4.100000e-01    3.070000e+00
 SN5aq SC6vr  1 4.100000e-01    3.070000e+00
 SN4aq SC6vr  1 4.100000e-01    3.070000e+00
 SN3aq SC6vr  1 4.100000e-01    3.070000e+00
 SN2aq SC6vr  1 4.100000e-01    3.070000e+00
 SN1aq SC6vr  1 4.100000e-01    3.310000e+00
 SC6vr SC6vq  1 4.100000e-01    2.840000e+00
 SC6vr SX1eq  1 4.100000e-01    3.310000e+00
 SC6vr SX2eq  1 4.100000e-01    3.310000e+00
 SC6vr SX3eq  1 4.100000e-01    3.310000e+00
 SC6vr SX4eq  1 4.100000e-01    3.310000e+00
 SC6vr SC1eq  1 4.100000e-01    2.600000e+00
 SC6vr SC2eq  1 4.100000e-01    2.840000e+00
 SC6vr SC3eq  1 4.100000e-01    3.070000e+00
 SC6vr SC4eq  1 4.100000e-01    3.310000e+00
 SC6vr SC5eq  1 4.100000e-01    3.310000e+00
 SC6vr SC6eq  1 4.100000e-01    3.550000e+00
 SC6vr SX1vq  1 4.100000e-01    2.600000e+00
 SC6vr SX2vq  1 4.100000e-01    2.600000e+00
 SC6vr SX3vq  1 4.100000e-01    2.600000e+00
 SC6vr SX4vq  1 4.100000e-01    2.600000e+00
 SC6vr SC1vq  1 4.100000e-01    2.040000e+00
 SC6vr SC2vq  1 4.100000e-01    2.200000e+00
 SC6vr SC3vq  1 4.100000e-01    2.350000e+00
 SC6vr SC4vq  1 4.100000e-01    2.600000e+00
 SC6vr SC5vq  1 4.100000e-01    2.600000e+00
 SP6dq SC5vr  1 4.100000e-01    1.910000e+00
 SP5dq SC5vr  1 4.100000e-01    2.040000e+00
 SP4dq SC5vr  1 4.100000e-01    2.040000e+00
 SP3dq SC5vr  1 4.100000e-01    2.200000e+00
 SP2dq SC5vr  1 4.100000e-01    2.200000e+00
 SP1dq SC5vr  1 4.100000e-01    2.200000e+00
 SN6dq SC5vr  1 4.100000e-01    2.350000e+00
 SN5dq SC5vr  1 4.100000e-01    2.350000e+00
 SN4dq SC5vr  1 4.100000e-01    2.350000e+00
 SN3dq SC5vr  1 4.100000e-01    2.350000e+00
 SN2dq SC5vr  1 4.100000e-01    2.350000e+00
 SN1dq SC5vr  1 4.100000e-01    2.600000e+00
 SP6aq SC5vr  1 4.100000e-01    2.200000e+00
 SP5aq SC5vr  1 4.100000e-01    2.350000e+00
 SP4aq SC5vr  1 4.100000e-01    2.350000e+00
 SP3aq SC5vr  1 4.100000e-01    2.600000e+00
 SP2aq SC5vr  1 4.100000e-01    2.600000e+00
 SP1aq SC5vr  1 4.100000e-01    2.600000e+00
 SN6aq SC5vr  1 4.100000e-01    2.840000e+00
 SN5aq SC5vr  1 4.100000e-01    2.840000e+00
 SN4aq SC5vr  1 4.100000e-01    2.840000e+00
 SN3aq SC5vr  1 4.100000e-01    2.840000e+00
 SN2aq SC5vr  1 4.100000e-01    2.840000e+00
 SN1aq SC5vr  1 4.100000e-01    3.070000e+00
 SC6vq SC5vr  1 4.100000e-01    2.600000e+00
 SC5vr SC5vq  1 4.100000e-01    2.600000e+00
 SC5vr SX1eq  1 4.100000e-01    3.310000e+00
 SC5vr SX2eq  1 4.100000e-01    3.070000e+00
 SC5vr SX3eq  1 4.100000e-01    3.070000e+00
 SC5vr SX4eq  1 4.100000e-01    3.070000e+00
 SC5vr SC1eq  1 4.100000e-01    2.840000e+00
 SC5vr SC2eq  1 4.100000e-01    2.840000e+00
 SC5vr SC3eq  1 4.100000e-01    3.070000e+00
 SC5vr SC4eq  1 4.100000e-01    3.310000e+00
 SC5vr SC5eq  1 4.100000e-01    3.310000e+00
 SC6eq SC5vr  1 4.100000e-01    3.310000e+00
 SC5vr SX1vq  1 4.100000e-01    2.600000e+00
 SC5vr SX2vq  1 4.100000e-01    2.350000e+00
 SC5vr SX3vq  1 4.100000e-01    2.350000e+00
 SC5vr SX4vq  1 4.100000e-01    2.350000e+00
 SC5vr SC1vq  1 4.100000e-01    2.200000e+00
 SC5vr SC2vq  1 4.100000e-01    2.200000e+00
 SC5vr SC3vq  1 4.100000e-01    2.350000e+00
 SC5vr SC4vq  1 4.100000e-01    2.600000e+00
 SP6dq SC4vr  1 4.100000e-01    1.750000e+00
 SP5dq SC4vr  1 4.100000e-01    1.910000e+00
 SP4dq SC4vr  1 4.100000e-01    1.910000e+00
 SP3dq SC4vr  1 4.100000e-01    2.040000e+00
 SP2dq SC4vr  1 4.100000e-01    2.040000e+00
 SP1dq SC4vr  1 4.100000e-01    2.040000e+00
 SN6dq SC4vr  1 4.100000e-01    2.200000e+00
 SN5dq SC4vr  1 4.100000e-01    2.200000e+00
 SN4dq SC4vr  1 4.100000e-01    2.350000e+00
 SN3dq SC4vr  1 4.100000e-01    2.350000e+00
 SN2dq SC4vr  1 4.100000e-01    2.350000e+00
 SN1dq SC4vr  1 4.100000e-01    2.600000e+00
 SP6aq SC4vr  1 4.100000e-01    2.040000e+00
 SP5aq SC4vr  1 4.100000e-01    2.200000e+00
 SP4aq SC4vr  1 4.100000e-01    2.200000e+00
 SP3aq SC4vr  1 4.100000e-01    2.350000e+00
 SP2aq SC4vr  1 4.100000e-01    2.350000e+00
 SP1aq SC4vr  1 4.100000e-01    2.350000e+00
 SN6aq SC4vr  1 4.100000e-01    2.600000e+00
 SN5aq SC4vr  1 4.100000e-01    2.600000e+00
 SN4aq SC4vr  1 4.100000e-01    2.840000e+00
 SN3aq SC4vr  1 4.100000e-01    2.840000e+00
 SN2aq SC4vr  1 4.100000e-01    2.840000e+00
 SN1aq SC4vr  1 4.100000e-01    3.070000e+00
 SC6vq SC4vr  1 4.100000e-01    2.600000e+00
 SC5vq SC4vr  1 4.100000e-01    2.600000e+00
 SC4vr SC4vq  1 4.100000e-01    2.600000e+00
 SC4vr SX1eq  1 4.100000e-01    3.310000e+00
 SC4vr SX2eq  1 4.100000e-01    3.070000e+00
 SC4vr SX3eq  1 4.100000e-01    3.070000e+00
 SC4vr SX4eq  1 4.100000e-01    3.070000e+00
 SC4vr SC1eq  1 4.100000e-01    2.840000e+00
 SC4vr SC2eq  1 4.100000e-01    3.070000e+00
 SC4vr SC3eq  1 4.100000e-01    3.310000e+00
 SC4vr SC4eq  1 4.100000e-01    3.310000e+00
 SC5eq SC4vr  1 4.100000e-01    3.310000e+00
 SC6eq SC4vr  1 4.100000e-01    3.310000e+00
 SC4vr SX1vq  1 4.100000e-01    2.600000e+00
 SC4vr SX2vq  1 4.100000e-01    2.350000e+00
 SC4vr SX3vq  1 4.100000e-01    2.350000e+00
 SC4vr SX4vq  1 4.100000e-01    2.350000e+00
 SC4vr SC1vq  1 4.100000e-01    2.200000e+00
 SC4vr SC2vq  1 4.100000e-01    2.350000e+00
 SC4vr SC3vq  1 4.100000e-01    2.600000e+00
 SP6dq SC3vr  1 4.140000e-01    1.560000e+00
 SP5dq SC3vr  1 4.100000e-01    1.750000e+00
 SP4dq SC3vr  1 4.100000e-01    1.750000e+00
 SP3dq SC3vr  1 4.100000e-01    1.750000e+00
 SP2dq SC3vr  1 4.100000e-01    1.910000e+00
 SP1dq SC3vr  1 4.100000e-01    1.910000e+00
 SN6dq SC3vr  1 4.100000e-01    2.040000e+00
 SN5dq SC3vr  1 4.100000e-01    2.200000e+00
 SN4dq SC3vr  1 4.100000e-01    2.200000e+00
 SN3dq SC3vr  1 4.100000e-01    2.200000e+00
 SN2dq SC3vr  1 4.100000e-01    2.350000e+00
 SN1dq SC3vr  1 4.100000e-01    2.350000e+00
 SP6aq SC3vr  1 4.100000e-01    1.910000e+00
 SP5aq SC3vr  1 4.100000e-01    2.040000e+00
 SP4aq SC3vr  1 4.100000e-01    2.040000e+00
 SP3aq SC3vr  1 4.100000e-01    2.040000e+00
 SP2aq SC3vr  1 4.100000e-01    2.200000e+00
 SP1aq SC3vr  1 4.100000e-01    2.200000e+00
 SN6aq SC3vr  1 4.100000e-01    2.350000e+00
 SN5aq SC3vr  1 4.100000e-01    2.600000e+00
 SN4aq SC3vr  1 4.100000e-01    2.600000e+00
 SN3aq SC3vr  1 4.100000e-01    2.600000e+00
 SN2aq SC3vr  1 4.100000e-01    2.840000e+00
 SN1aq SC3vr  1 4.100000e-01    2.840000e+00
 SC6vq SC3vr  1 4.100000e-01    2.350000e+00
 SC5vq SC3vr  1 4.100000e-01    2.350000e+00
 SC4vq SC3vr  1 4.100000e-01    2.600000e+00
 SC3vr SC3vq  1 4.100000e-01    2.600000e+00
 SC3vr SX1eq  1 4.100000e-01    3.310000e+00
 SC3vr SX2eq  1 4.100000e-01    3.070000e+00
 SC3vr SX3eq  1 4.100000e-01    3.070000e+00
 SC3vr SX4eq  1 4.100000e-01    3.070000e+00
 SC3vr SC1eq  1 4.100000e-01    3.310000e+00
 SC3vr SC2eq  1 4.100000e-01    3.310000e+00
 SC3vr SC3eq  1 4.100000e-01    3.310000e+00
 SC4eq SC3vr  1 4.100000e-01    3.310000e+00
 SC5eq SC3vr  1 4.100000e-01    3.070000e+00
 SC6eq SC3vr  1 4.100000e-01    3.070000e+00
 SC3vr SX1vq  1 4.100000e-01    2.600000e+00
 SC3vr SX2vq  1 4.100000e-01    2.350000e+00
 SC3vr SX3vq  1 4.100000e-01    2.350000e+00
 SC3vr SX4vq  1 4.100000e-01    2.350000e+00
 SC3vr SC1vq  1 4.100000e-01    2.600000e+00
 SC3vr SC2vq  1 4.100000e-01    2.600000e+00
 SP6dq SC2vr  1 4.140000e-01    1.560000e+00
 SP5dq SC2vr  1 4.100000e-01    1.750000e+00
 SP4dq SC2vr  1 4.100000e-01    1.750000e+00
 SP3dq SC2vr  1 4.100000e-01    1.750000e+00
 SP2dq SC2vr  1 4.100000e-01    1.910000e+00
 SP1dq SC2vr  1 4.100000e-01    1.910000e+00
 SN6dq SC2vr  1 4.100000e-01    2.040000e+00
 SN5dq SC2vr  1 4.100000e-01    2.040000e+00
 SN4dq SC2vr  1 4.100000e-01    2.040000e+00
 SN3dq SC2vr  1 4.100000e-01    2.200000e+00
 SN2dq SC2vr  1 4.100000e-01    2.200000e+00
 SN1dq SC2vr  1 4.100000e-01    2.200000e+00
 SP6aq SC2vr  1 4.100000e-01    1.910000e+00
 SP5aq SC2vr  1 4.100000e-01    2.040000e+00
 SP4aq SC2vr  1 4.100000e-01    2.040000e+00
 SP3aq SC2vr  1 4.100000e-01    2.040000e+00
 SP2aq SC2vr  1 4.100000e-01    2.200000e+00
 SP1aq SC2vr  1 4.100000e-01    2.200000e+00
 SN6aq SC2vr  1 4.100000e-01    2.350000e+00
 SN5aq SC2vr  1 4.100000e-01    2.350000e+00
 SN4aq SC2vr  1 4.100000e-01    2.350000e+00
 SN3aq SC2vr  1 4.100000e-01    2.600000e+00
 SN2aq SC2vr  1 4.100000e-01    2.600000e+00
 SN1aq SC2vr  1 4.100000e-01    2.600000e+00
 SC6vq SC2vr  1 4.100000e-01    2.200000e+00
 SC5vq SC2vr  1 4.100000e-01    2.200000e+00
 SC4vq SC2vr  1 4.100000e-01    2.350000e+00
 SC3vq SC2vr  1 4.100000e-01    2.600000e+00
 SC2vr SC2vq  1 4.100000e-01    2.600000e+00
 SC2vr SX1eq  1 4.100000e-01    3.070000e+00
 SC2vr SX2eq  1 4.100000e-01    3.070000e+00
 SC2vr SX3eq  1 4.100000e-01    3.070000e+00
 SC2vr SX4eq  1 4.100000e-01    2.600000e+00
 SC2vr SC1eq  1 4.100000e-01    3.550000e+00
 SC2vr SC2eq  1 4.100000e-01    3.310000e+00
 SC3eq SC2vr  1 4.100000e-01    3.310000e+00
 SC4eq SC2vr  1 4.100000e-01    3.070000e+00
 SC5eq SC2vr  1 4.100000e-01    2.840000e+00
 SC6eq SC2vr  1 4.100000e-01    2.840000e+00
 SC2vr SX1vq  1 4.100000e-01    2.350000e+00
 SC2vr SX2vq  1 4.100000e-01    2.350000e+00
 SC2vr SX3vq  1 4.100000e-01    2.350000e+00
 SC2vr SX4vq  1 4.100000e-01    2.040000e+00
 SC2vr SC1vq  1 4.100000e-01    2.840000e+00
 SP6dq SC1vr  1 4.210000e-01    1.250000e+00
 SP5dq SC1vr  1 4.140000e-01    1.560000e+00
 SP4dq SC1vr  1 4.140000e-01    1.560000e+00
 SP3dq SC1vr  1 4.140000e-01    1.560000e+00
 SP2dq SC1vr  1 4.100000e-01    1.750000e+00
 SP1dq SC1vr  1 4.100000e-01    1.750000e+00
 SN6dq SC1vr  1 4.100000e-01    1.910000e+00
 SN5dq SC1vr  1 4.100000e-01    1.910000e+00
 SN4dq SC1vr  1 4.100000e-01    1.910000e+00
 SN3dq SC1vr  1 4.100000e-01    2.040000e+00
 SN2dq SC1vr  1 4.100000e-01    2.040000e+00
 SN1dq SC1vr  1 4.100000e-01    2.040000e+00
 SP6aq SC1vr  1 4.140000e-01    1.560000e+00
 SP5aq SC1vr  1 4.100000e-01    1.910000e+00
 SP4aq SC1vr  1 4.100000e-01    1.910000e+00
 SP3aq SC1vr  1 4.100000e-01    1.910000e+00
 SP2aq SC1vr  1 4.100000e-01    2.040000e+00
 SP1aq SC1vr  1 4.100000e-01    2.040000e+00
 SN6aq SC1vr  1 4.100000e-01    2.200000e+00
 SN5aq SC1vr  1 4.100000e-01    2.200000e+00
 SN4aq SC1vr  1 4.100000e-01    2.200000e+00
 SN3aq SC1vr  1 4.100000e-01    2.350000e+00
 SN2aq SC1vr  1 4.100000e-01    2.350000e+00
 SN1aq SC1vr  1 4.100000e-01    2.350000e+00
 SC6vq SC1vr  1 4.100000e-01    2.040000e+00
 SC5vq SC1vr  1 4.100000e-01    2.200000e+00
 SC4vq SC1vr  1 4.100000e-01    2.200000e+00
 SC3vq SC1vr  1 4.100000e-01    2.600000e+00
 SC2vq SC1vr  1 4.100000e-01    2.840000e+00
 SC1vr SC1vq  1 4.100000e-01    2.600000e+00
 SC1vr SX1eq  1 4.100000e-01    3.070000e+00
 SC1vr SX2eq  1 4.100000e-01    3.070000e+00
 SC1vr SX3eq  1 4.100000e-01    3.070000e+00
 SC1vr SX4eq  1 4.100000e-01    2.600000e+00
 SC1vr SC1eq  1 4.100000e-01    3.310000e+00
 SC2eq SC1vr  1 4.100000e-01    3.550000e+00
 SC3eq SC1vr  1 4.100000e-01    3.310000e+00
 SC4eq SC1vr  1 4.100000e-01    2.840000e+00
 SC5eq SC1vr  1 4.100000e-01    2.840000e+00
 SC6eq SC1vr  1 4.100000e-01    2.600000e+00
 SC1vr SX1vq  1 4.100000e-01    2.350000e+00
 SC1vr SX2vq  1 4.100000e-01    2.350000e+00
 SC1vr SX3vq  1 4.100000e-01    2.350000e+00
 SC1vr SX4vq  1 4.100000e-01    2.040000e+00
 SP6dq SX4vr  1 4.100000e-01    2.200000e+00
 SP5dq SX4vr  1 4.100000e-01    2.350000e+00
 SP4dq SX4vr  1 4.100000e-01    2.350000e+00
 SP3dq SX4vr  1 4.100000e-01    2.350000e+00
 SP2dq SX4vr  1 4.100000e-01    2.350000e+00
 SP1dq SX4vr  1 4.100000e-01    2.350000e+00
 SN6dq SX4vr  1 4.100000e-01    2.600000e+00
 SN5dq SX4vr  1 4.100000e-01    2.840000e+00
 SN4dq SX4vr  1 4.100000e-01    3.070000e+00
 SN3dq SX4vr  1 4.100000e-01    2.840000e+00
 SN2dq SX4vr  1 4.100000e-01    2.840000e+00
 SN1dq SX4vr  1 4.100000e-01    2.600000e+00
 SP6aq SX4vr  1 4.100000e-01    2.600000e+00
 SP5aq SX4vr  1 4.100000e-01    2.840000e+00
 SP4aq SX4vr  1 4.100000e-01    2.840000e+00
 SP3aq SX4vr  1 4.100000e-01    2.840000e+00
 SP2aq SX4vr  1 4.100000e-01    2.840000e+00
 SP1aq SX4vr  1 4.100000e-01    2.840000e+00
 SN6aq SX4vr  1 4.100000e-01    3.070000e+00
 SN5aq SX4vr  1 4.100000e-01    3.310000e+00
 SN4aq SX4vr  1 4.100000e-01    3.550000e+00
 SN3aq SX4vr  1 4.100000e-01    3.310000e+00
 SN2aq SX4vr  1 4.100000e-01    3.310000e+00
 SN1aq SX4vr  1 4.100000e-01    3.070000e+00
 SC6vq SX4vr  1 4.100000e-01    2.600000e+00
 SC5vq SX4vr  1 4.100000e-01    2.350000e+00
 SC4vq SX4vr  1 4.100000e-01    2.350000e+00
 SC3vq SX4vr  1 4.100000e-01    2.350000e+00
 SC2vq SX4vr  1 4.100000e-01    2.040000e+00
 SC1vq SX4vr  1 4.100000e-01    2.040000e+00
 SX4vr SX4vq  1 4.100000e-01    2.600000e+00
 SX4vr SX1eq  1 4.100000e-01    3.310000e+00
 SX4vr SX2eq  1 4.100000e-01    3.310000e+00
 SX4vr SX3eq  1 4.100000e-01    3.310000e+00
 SX4vr SX4eq  1 4.100000e-01    3.310000e+00
 SC1eq SX4vr  1 4.100000e-01    2.600000e+00
 SC2eq SX4vr  1 4.100000e-01    2.600000e+00
 SC3eq SX4vr  1 4.100000e-01    3.070000e+00
 SC4eq SX4vr  1 4.100000e-01    3.070000e+00
 SC5eq SX4vr  1 4.100000e-01    3.070000e+00
 SC6eq SX4vr  1 4.100000e-01    3.310000e+00
 SX4vr SX1vq  1 4.100000e-01    2.600000e+00
 SX4vr SX2vq  1 4.100000e-01    2.600000e+00
 SX4vr SX3vq  1 4.100000e-01    2.600000e+00
 SP6dq SX3vr  1 4.100000e-01    2.200000e+00
 SP5dq SX3vr  1 4.100000e-01    2.200000e+00
 SP4dq SX3vr  1 4.100000e-01    2.200000e+00
 SP3dq SX3vr  1 4.100000e-01    2.350000e+00
 SP2dq SX3vr  1 4.100000e-01    2.350000e+00
 SP1dq SX3vr  1 4.100000e-01    2.350000e+00
 SN6dq SX3vr  1 4.100000e-01    2.350000e+00
 SN5dq SX3vr  1 4.100000e-01    2.600000e+00
 SN4dq SX3vr  1 4.100000e-01    2.840000e+00
 SN3dq SX3vr  1 4.100000e-01    2.600000e+00
 SN2dq SX3vr  1 4.100000e-01    2.600000e+00
 SN1dq SX3vr  1 4.100000e-01    2.600000e+00
 SP6aq SX3vr  1 4.100000e-01    2.600000e+00
 SP5aq SX3vr  1 4.100000e-01    2.600000e+00
 SP4aq SX3vr  1 4.100000e-01    2.600000e+00
 SP3aq SX3vr  1 4.100000e-01    2.840000e+00
 SP2aq SX3vr  1 4.100000e-01    2.840000e+00
 SP1aq SX3vr  1 4.100000e-01    2.840000e+00
 SN6aq SX3vr  1 4.100000e-01    2.840000e+00
 SN5aq SX3vr  1 4.100000e-01    3.070000e+00
 SN4aq SX3vr  1 4.100000e-01    3.310000e+00
 SN3aq SX3vr  1 4.100000e-01    3.070000e+00
 SN2aq SX3vr  1 4.100000e-01    3.070000e+00
 SN1aq SX3vr  1 4.100000e-01    3.070000e+00
 SC6vq SX3vr  1 4.100000e-01    2.600000e+00
 SC5vq SX3vr  1 4.100000e-01    2.350000e+00
 SC4vq SX3vr  1 4.100000e-01    2.350000e+00
 SC3vq SX3vr  1 4.100000e-01    2.350000e+00
 SC2vq SX3vr  1 4.100000e-01    2.350000e+00
 SC1vq SX3vr  1 4.100000e-01    2.350000e+00
 SX4vq SX3vr  1 4.100000e-01    2.600000e+00
 SX3vr SX3vq  1 4.100000e-01    2.600000e+00
 SX3vr SX1eq  1 4.100000e-01    3.550000e+00
 SX3vr SX2eq  1 4.100000e-01    3.550000e+00
 SX3vr SX3eq  1 4.100000e-01    3.310000e+00
 SX4eq SX3vr  1 4.100000e-01    3.310000e+00
 SC1eq SX3vr  1 4.100000e-01    3.070000e+00
 SC2eq SX3vr  1 4.100000e-01    3.070000e+00
 SC3eq SX3vr  1 4.100000e-01    3.070000e+00
 SC4eq SX3vr  1 4.100000e-01    3.070000e+00
 SC5eq SX3vr  1 4.100000e-01    3.070000e+00
 SC6eq SX3vr  1 4.100000e-01    3.310000e+00
 SX3vr SX1vq  1 4.100000e-01    2.840000e+00
 SX3vr SX2vq  1 4.100000e-01    2.840000e+00
 SP6dq SX2vr  1 4.100000e-01    2.040000e+00
 SP5dq SX2vr  1 4.100000e-01    2.200000e+00
 SP4dq SX2vr  1 4.100000e-01    2.200000e+00
 SP3dq SX2vr  1 4.100000e-01    2.200000e+00
 SP2dq SX2vr  1 4.100000e-01    2.200000e+00
 SP1dq SX2vr  1 4.100000e-01    2.200000e+00
 SN6dq SX2vr  1 4.100000e-01    2.200000e+00
 SN5dq SX2vr  1 4.100000e-01    2.350000e+00
 SN4dq SX2vr  1 4.100000e-01    2.350000e+00
 SN3dq SX2vr  1 4.100000e-01    2.350000e+00
 SN2dq SX2vr  1 4.100000e-01    2.350000e+00
 SN1dq SX2vr  1 4.100000e-01    2.350000e+00
 SP6aq SX2vr  1 4.100000e-01    2.350000e+00
 SP5aq SX2vr  1 4.100000e-01    2.600000e+00
 SP4aq SX2vr  1 4.100000e-01    2.600000e+00
 SP3aq SX2vr  1 4.100000e-01    2.600000e+00
 SP2aq SX2vr  1 4.100000e-01    2.600000e+00
 SP1aq SX2vr  1 4.100000e-01    2.600000e+00
 SN6aq SX2vr  1 4.100000e-01    2.600000e+00
 SN5aq SX2vr  1 4.100000e-01    2.840000e+00
 SN4aq SX2vr  1 4.100000e-01    2.840000e+00
 SN3aq SX2vr  1 4.100000e-01    2.840000e+00
 SN2aq SX2vr  1 4.100000e-01    2.840000e+00
 SN1aq SX2vr  1 4.100000e-01    2.840000e+00
 SC6vq SX2vr  1 4.100000e-01    2.600000e+00
 SC5vq SX2vr  1 4.100000e-01    2.350000e+00
 SC4vq SX2vr  1 4.100000e-01    2.350000e+00
 SC3vq SX2vr  1 4.100000e-01    2.350000e+00
 SC2vq SX2vr  1 4.100000e-01    2.350000e+00
 SC1vq SX2vr  1 4.100000e-01    2.350000e+00
 SX4vq SX2vr  1 4.100000e-01    2.600000e+00
 SX3vq SX2vr  1 4.100000e-01    2.840000e+00
 SX2vr SX2vq  1 4.100000e-01    2.840000e+00
 SX2vr SX1eq  1 4.100000e-01    3.550000e+00
 SX2vr SX2eq  1 4.100000e-01    3.550000e+00
 SX3eq SX2vr  1 4.100000e-01    3.550000e+00
 SX4eq SX2vr  1 4.100000e-01    3.310000e+00
 SC1eq SX2vr  1 4.100000e-01    3.070000e+00
 SC2eq SX2vr  1 4.100000e-01    3.070000e+00
 SC3eq SX2vr  1 4.100000e-01    3.070000e+00
 SC4eq SX2vr  1 4.100000e-01    3.070000e+00
 SC5eq SX2vr  1 4.100000e-01    3.070000e+00
 SC6eq SX2vr  1 4.100000e-01    3.310000e+00
 SX2vr SX1vq  1 4.100000e-01    2.840000e+00
 SP6dq SX1vr  1 4.100000e-01    1.910000e+00
 SP5dq SX1vr  1 4.100000e-01    1.910000e+00
 SP4dq SX1vr  1 4.100000e-01    2.040000e+00
 SP3dq SX1vr  1 4.100000e-01    2.040000e+00
 SP2dq SX1vr  1 4.100000e-01    2.040000e+00
 SP1dq SX1vr  1 4.100000e-01    2.040000e+00
 SN6dq SX1vr  1 4.100000e-01    2.040000e+00
 SN5dq SX1vr  1 4.100000e-01    2.200000e+00
 SN4dq SX1vr  1 4.100000e-01    2.200000e+00
 SN3dq SX1vr  1 4.100000e-01    2.350000e+00
 SN2dq SX1vr  1 4.100000e-01    2.350000e+00
 SN1dq SX1vr  1 4.100000e-01    2.350000e+00
 SP6aq SX1vr  1 4.100000e-01    2.200000e+00
 SP5aq SX1vr  1 4.100000e-01    2.200000e+00
 SP4aq SX1vr  1 4.100000e-01    2.350000e+00
 SP3aq SX1vr  1 4.100000e-01    2.350000e+00
 SP2aq SX1vr  1 4.100000e-01    2.350000e+00
 SP1aq SX1vr  1 4.100000e-01    2.350000e+00
 SN6aq SX1vr  1 4.100000e-01    2.350000e+00
 SN5aq SX1vr  1 4.100000e-01    2.600000e+00
 SN4aq SX1vr  1 4.100000e-01    2.600000e+00
 SN3aq SX1vr  1 4.100000e-01    2.840000e+00
 SN2aq SX1vr  1 4.100000e-01    2.840000e+00
 SN1aq SX1vr  1 4.100000e-01    2.840000e+00
 SC6vq SX1vr  1 4.100000e-01    2.600000e+00
 SC5vq SX1vr  1 4.100000e-01    2.600000e+00
 SC4vq SX1vr  1 4.100000e-01    2.600000e+00
 SC3vq SX1vr  1 4.100000e-01    2.600000e+00
 SC2vq SX1vr  1 4.100000e-01    2.350000e+00
 SC1vq SX1vr  1 4.100000e-01    2.350000e+00
 SX4vq SX1vr  1 4.100000e-01    2.600000e+00
 SX3vq SX1vr  1 4.100000e-01    2.840000e+00
 SX2vq SX1vr  1 4.100000e-01    2.840000e+00
 SX1vr SX1vq  1 4.100000e-01    3.070000e+00
 SX1vr SX1eq  1 4.100000e-01    3.820000e+00
 SX2eq SX1vr  1 4.100000e-01    3.550000e+00
 SX3eq SX1vr  1 4.100000e-01    3.550000e+00
 SX4eq SX1vr  1 4.100000e-01    3.310000e+00
 SC1eq SX1vr  1 4.100000e-01    3.070000e+00
 SC2eq SX1vr  1 4.100000e-01    3.070000e+00
 SC3eq SX1vr  1 4.100000e-01    3.310000e+00
 SC4eq SX1vr  1 4.100000e-01    3.310000e+00
 SC5eq SX1vr  1 4.100000e-01    3.310000e+00
 SC6eq SX1vr  1 4.100000e-01    3.310000e+00
 SP6dq SC6er  1 4.100000e-01    2.350000e+00
 SP5dq SC6er  1 4.100000e-01    2.350000e+00
 SP4dq SC6er  1 4.100000e-01    2.600000e+00
 SP3dq SC6er  1 4.100000e-01    2.840000e+00
 SP2dq SC6er  1 4.100000e-01    2.840000e+00
 SP1dq SC6er  1 4.100000e-01    2.840000e+00
 SN6dq SC6er  1 4.100000e-01    3.070000e+00
 SN5dq SC6er  1 4.100000e-01    3.070000e+00
 SN4dq SC6er  1 4.100000e-01    3.070000e+00
 SN3dq SC6er  1 4.100000e-01    3.070000e+00
 SN2dq SC6er  1 4.100000e-01    3.070000e+00
 SN1dq SC6er  1 4.100000e-01    3.310000e+00
 SP6aq SC6er  1 4.100000e-01    2.040000e+00
 SP5aq SC6er  1 4.100000e-01    2.040000e+00
 SP4aq SC6er  1 4.100000e-01    2.200000e+00
 SP3aq SC6er  1 4.100000e-01    2.350000e+00
 SP2aq SC6er  1 4.100000e-01    2.350000e+00
 SP1aq SC6er  1 4.100000e-01    2.350000e+00
 SN6aq SC6er  1 4.100000e-01    2.600000e+00
 SN5aq SC6er  1 4.100000e-01    2.600000e+00
 SN4aq SC6er  1 4.100000e-01    2.600000e+00
 SN3aq SC6er  1 4.100000e-01    2.600000e+00
 SN2aq SC6er  1 4.100000e-01    2.600000e+00
 SN1aq SC6er  1 4.100000e-01    2.840000e+00
 SC6vq SC6er  1 4.100000e-01    3.550000e+00
 SC6er SC5vq  1 4.100000e-01    3.310000e+00
 SC6er SC4vq  1 4.100000e-01    3.310000e+00
 SC6er SC3vq  1 4.100000e-01    3.070000e+00
 SC6er SC2vq  1 4.100000e-01    2.840000e+00
 SC6er SC1vq  1 4.100000e-01    2.600000e+00
 SC6er SX4vq  1 4.100000e-01    3.310000e+00
 SC6er SX3vq  1 4.100000e-01    3.310000e+00
 SC6er SX2vq  1 4.100000e-01    3.310000e+00
 SC6er SX1vq  1 4.100000e-01    3.310000e+00
 SC6er SC6eq  1 4.100000e-01    2.840000e+00
 SC6er SX1eq  1 4.100000e-01    2.600000e+00
 SC6er SX2eq  1 4.100000e-01    2.600000e+00
 SC6er SX3eq  1 4.100000e-01    2.600000e+00
 SC6er SX4eq  1 4.100000e-01    2.600000e+00
 SC6er SC1eq  1 4.100000e-01    2.040000e+00
 SC6er SC2eq  1 4.100000e-01    2.200000e+00
 SC6er SC3eq  1 4.100000e-01    2.350000e+00
 SC6er SC4eq  1 4.100000e-01    2.600000e+00
 SC6er SC5eq  1 4.100000e-01    2.600000e+00
 SP6dq SC5er  1 4.100000e-01    2.200000e+00
 SP5dq SC5er  1 4.100000e-01    2.350000e+00
 SP4dq SC5er  1 4.100000e-01    2.350000e+00
 SP3dq SC5er  1 4.100000e-01    2.600000e+00
 SP2dq SC5er  1 4.100000e-01    2.600000e+00
 SP1dq SC5er  1 4.100000e-01    2.600000e+00
 SN6dq SC5er  1 4.100000e-01    2.840000e+00
 SN5dq SC5er  1 4.100000e-01    2.840000e+00
 SN4dq SC5er  1 4.100000e-01    2.840000e+00
 SN3dq SC5er  1 4.100000e-01    2.840000e+00
 SN2dq SC5er  1 4.100000e-01    2.840000e+00
 SN1dq SC5er  1 4.100000e-01    3.070000e+00
 SP6aq SC5er  1 4.100000e-01    1.910000e+00
 SP5aq SC5er  1 4.100000e-01    2.040000e+00
 SP4aq SC5er  1 4.100000e-01    2.040000e+00
 SP3aq SC5er  1 4.100000e-01    2.200000e+00
 SP2aq SC5er  1 4.100000e-01    2.200000e+00
 SP1aq SC5er  1 4.100000e-01    2.200000e+00
 SN6aq SC5er  1 4.100000e-01    2.350000e+00
 SN5aq SC5er  1 4.100000e-01    2.350000e+00
 SN4aq SC5er  1 4.100000e-01    2.350000e+00
 SN3aq SC5er  1 4.100000e-01    2.350000e+00
 SN2aq SC5er  1 4.100000e-01    2.350000e+00
 SN1aq SC5er  1 4.100000e-01    2.600000e+00
 SC6vq SC5er  1 4.100000e-01    3.310000e+00
 SC5vq SC5er  1 4.100000e-01    3.310000e+00
 SC5er SC4vq  1 4.100000e-01    3.310000e+00
 SC5er SC3vq  1 4.100000e-01    3.070000e+00
 SC5er SC2vq  1 4.100000e-01    2.840000e+00
 SC5er SC1vq  1 4.100000e-01    2.840000e+00
 SC5er SX4vq  1 4.100000e-01    3.070000e+00
 SC5er SX3vq  1 4.100000e-01    3.070000e+00
 SC5er SX2vq  1 4.100000e-01    3.070000e+00
 SC5er SX1vq  1 4.100000e-01    3.310000e+00
 SC6eq SC5er  1 4.100000e-01    2.600000e+00
 SC5er SC5eq  1 4.100000e-01    2.600000e+00
 SC5er SX1eq  1 4.100000e-01    2.600000e+00
 SC5er SX2eq  1 4.100000e-01    2.350000e+00
 SC5er SX3eq  1 4.100000e-01    2.350000e+00
 SC5er SX4eq  1 4.100000e-01    2.350000e+00
 SC5er SC1eq  1 4.100000e-01    2.200000e+00
 SC5er SC2eq  1 4.100000e-01    2.200000e+00
 SC5er SC3eq  1 4.100000e-01    2.350000e+00
 SC5er SC4eq  1 4.100000e-01    2.600000e+00
 SP6dq SC4er  1 4.100000e-01    2.040000e+00
 SP5dq SC4er  1 4.100000e-01    2.200000e+00
 SP4dq SC4er  1 4.100000e-01    2.200000e+00
 SP3dq SC4er  1 4.100000e-01    2.350000e+00
 SP2dq SC4er  1 4.100000e-01    2.350000e+00
 SP1dq SC4er  1 4.100000e-01    2.350000e+00
 SN6dq SC4er  1 4.100000e-01    2.600000e+00
 SN5dq SC4er  1 4.100000e-01    2.600000e+00
 SN4dq SC4er  1 4.100000e-01    2.840000e+00
 SN3dq SC4er  1 4.100000e-01    2.840000e+00
 SN2dq SC4er  1 4.100000e-01    2.840000e+00
 SN1dq SC4er  1 4.100000e-01    3.070000e+00
 SP6aq SC4er  1 4.100000e-01    1.750000e+00
 SP5aq SC4er  1 4.100000e-01    1.910000e+00
 SP4aq SC4er  1 4.100000e-01    1.910000e+00
 SP3aq SC4er  1 4.100000e-01    2.040000e+00
 SP2aq SC4er  1 4.100000e-01    2.040000e+00
 SP1aq SC4er  1 4.100000e-01    2.040000e+00
 SN6aq SC4er  1 4.100000e-01    2.200000e+00
 SN5aq SC4er  1 4.100000e-01    2.200000e+00
 SN4aq SC4er  1 4.100000e-01    2.350000e+00
 SN3aq SC4er  1 4.100000e-01    2.350000e+00
 SN2aq SC4er  1 4.100000e-01    2.350000e+00
 SN1aq SC4er  1 4.100000e-01    2.600000e+00
 SC6vq SC4er  1 4.100000e-01    3.310000e+00
 SC5vq SC4er  1 4.100000e-01    3.310000e+00
 SC4vq SC4er  1 4.100000e-01    3.310000e+00
 SC4er SC3vq  1 4.100000e-01    3.310000e+00
 SC4er SC2vq  1 4.100000e-01    3.070000e+00
 SC4er SC1vq  1 4.100000e-01    2.840000e+00
 SC4er SX4vq  1 4.100000e-01    3.070000e+00
 SC4er SX3vq  1 4.100000e-01    3.070000e+00
 SC4er SX2vq  1 4.100000e-01    3.070000e+00
 SC4er SX1vq  1 4.100000e-01    3.310000e+00
 SC6eq SC4er  1 4.100000e-01    2.600000e+00
 SC5eq SC4er  1 4.100000e-01    2.600000e+00
 SC4er SC4eq  1 4.100000e-01    2.600000e+00
 SC4er SX1eq  1 4.100000e-01    2.600000e+00
 SC4er SX2eq  1 4.100000e-01    2.350000e+00
 SC4er SX3eq  1 4.100000e-01    2.350000e+00
 SC4er SX4eq  1 4.100000e-01    2.350000e+00
 SC4er SC1eq  1 4.100000e-01    2.200000e+00
 SC4er SC2eq  1 4.100000e-01    2.350000e+00
 SC4er SC3eq  1 4.100000e-01    2.600000e+00
 SP6dq SC3er  1 4.100000e-01    1.910000e+00
 SP5dq SC3er  1 4.100000e-01    2.040000e+00
 SP4dq SC3er  1 4.100000e-01    2.040000e+00
 SP3dq SC3er  1 4.100000e-01    2.040000e+00
 SP2dq SC3er  1 4.100000e-01    2.200000e+00
 SP1dq SC3er  1 4.100000e-01    2.200000e+00
 SN6dq SC3er  1 4.100000e-01    2.350000e+00
 SN5dq SC3er  1 4.100000e-01    2.600000e+00
 SN4dq SC3er  1 4.100000e-01    2.600000e+00
 SN3dq SC3er  1 4.100000e-01    2.600000e+00
 SN2dq SC3er  1 4.100000e-01    2.840000e+00
 SN1dq SC3er  1 4.100000e-01    2.840000e+00
 SP6aq SC3er  1 4.140000e-01    1.560000e+00
 SP5aq SC3er  1 4.100000e-01    1.750000e+00
 SP4aq SC3er  1 4.100000e-01    1.750000e+00
 SP3aq SC3er  1 4.100000e-01    1.750000e+00
 SP2aq SC3er  1 4.100000e-01    1.910000e+00
 SP1aq SC3er  1 4.100000e-01    1.910000e+00
 SN6aq SC3er  1 4.100000e-01    2.040000e+00
 SN5aq SC3er  1 4.100000e-01    2.200000e+00
 SN4aq SC3er  1 4.100000e-01    2.200000e+00
 SN3aq SC3er  1 4.100000e-01    2.200000e+00
 SN2aq SC3er  1 4.100000e-01    2.350000e+00
 SN1aq SC3er  1 4.100000e-01    2.350000e+00
 SC6vq SC3er  1 4.100000e-01    3.070000e+00
 SC5vq SC3er  1 4.100000e-01    3.070000e+00
 SC4vq SC3er  1 4.100000e-01    3.310000e+00
 SC3vq SC3er  1 4.100000e-01    3.310000e+00
 SC3er SC2vq  1 4.100000e-01    3.310000e+00
 SC3er SC1vq  1 4.100000e-01    3.310000e+00
 SC3er SX4vq  1 4.100000e-01    3.070000e+00
 SC3er SX3vq  1 4.100000e-01    3.070000e+00
 SC3er SX2vq  1 4.100000e-01    3.070000e+00
 SC3er SX1vq  1 4.100000e-01    3.310000e+00
 SC6eq SC3er  1 4.100000e-01    2.350000e+00
 SC5eq SC3er  1 4.100000e-01    2.350000e+00
 SC4eq SC3er  1 4.100000e-01    2.600000e+00
 SC3er SC3eq  1 4.100000e-01    2.600000e+00
 SC3er SX1eq  1 4.100000e-01    2.600000e+00
 SC3er SX2eq  1 4.100000e-01    2.350000e+00
 SC3er SX3eq  1 4.100000e-01    2.350000e+00
 SC3er SX4eq  1 4.100000e-01    2.350000e+00
 SC3er SC1eq  1 4.100000e-01    2.600000e+00
 SC3er SC2eq  1 4.100000e-01    2.600000e+00
 SP6dq SC2er  1 4.100000e-01    1.910000e+00
 SP5dq SC2er  1 4.100000e-01    2.040000e+00
 SP4dq SC2er  1 4.100000e-01    2.040000e+00
 SP3dq SC2er  1 4.100000e-01    2.040000e+00
 SP2dq SC2er  1 4.100000e-01    2.200000e+00
 SP1dq SC2er  1 4.100000e-01    2.200000e+00
 SN6dq SC2er  1 4.100000e-01    2.350000e+00
 SN5dq SC2er  1 4.100000e-01    2.350000e+00
 SN4dq SC2er  1 4.100000e-01    2.350000e+00
 SN3dq SC2er  1 4.100000e-01    2.600000e+00
 SN2dq SC2er  1 4.100000e-01    2.600000e+00
 SN1dq SC2er  1 4.100000e-01    2.600000e+00
 SP6aq SC2er  1 4.140000e-01    1.560000e+00
 SP5aq SC2er  1 4.100000e-01    1.750000e+00
 SP4aq SC2er  1 4.100000e-01    1.750000e+00
 SP3aq SC2er  1 4.100000e-01    1.750000e+00
 SP2aq SC2er  1 4.100000e-01    1.910000e+00
 SP1aq SC2er  1 4.100000e-01    1.910000e+00
 SN6aq SC2er  1 4.100000e-01    2.040000e+00
 SN5aq SC2er  1 4.100000e-01    2.040000e+00
 SN4aq SC2er  1 4.100000e-01    2.040000e+00
 SN3aq SC2er  1 4.100000e-01    2.200000e+00
 SN2aq SC2er  1 4.100000e-01    2.200000e+00
 SN1aq SC2er  1 4.100000e-01    2.200000e+00
 SC6vq SC2er  1 4.100000e-01    2.840000e+00
 SC5vq SC2er  1 4.100000e-01    2.840000e+00
 SC4vq SC2er  1 4.100000e-01    3.070000e+00
 SC3vq SC2er  1 4.100000e-01    3.310000e+00
 SC2vq SC2er  1 4.100000e-01    3.310000e+00
 SC2er SC1vq  1 4.100000e-01    3.550000e+00
 SC2er SX4vq  1 4.100000e-01    2.600000e+00
 SC2er SX3vq  1 4.100000e-01    3.070000e+00
 SC2er SX2vq  1 4.100000e-01    3.070000e+00
 SC2er SX1vq  1 4.100000e-01    3.070000e+00
 SC6eq SC2er  1 4.100000e-01    2.200000e+00
 SC5eq SC2er  1 4.100000e-01    2.200000e+00
 SC4eq SC2er  1 4.100000e-01    2.350000e+00
 SC3eq SC2er  1 4.100000e-01    2.600000e+00
 SC2er SC2eq  1 4.100000e-01    2.600000e+00
 SC2er SX1eq  1 4.100000e-01    2.350000e+00
 SC2er SX2eq  1 4.100000e-01    2.350000e+00
 SC2er SX3eq  1 4.100000e-01    2.350000e+00
 SC2er SX4eq  1 4.100000e-01    2.040000e+00
 SC2er SC1eq  1 4.100000e-01    2.840000e+00
 SP6dq SC1er  1 4.140000e-01    1.560000e+00
 SP5dq SC1er  1 4.100000e-01    1.910000e+00
 SP4dq SC1er  1 4.100000e-01    1.910000e+00
 SP3dq SC1er  1 4.100000e-01    1.910000e+00
 SP2dq SC1er  1 4.100000e-01    2.040000e+00
 SP1dq SC1er  1 4.100000e-01    2.040000e+00
 SN6dq SC1er  1 4.100000e-01    2.200000e+00
 SN5dq SC1er  1 4.100000e-01    2.200000e+00
 SN4dq SC1er  1 4.100000e-01    2.200000e+00
 SN3dq SC1er  1 4.100000e-01    2.350000e+00
 SN2dq SC1er  1 4.100000e-01    2.350000e+00
 SN1dq SC1er  1 4.100000e-01    2.350000e+00
 SP6aq SC1er  1 4.210000e-01    1.250000e+00
 SP5aq SC1er  1 4.140000e-01    1.560000e+00
 SP4aq SC1er  1 4.140000e-01    1.560000e+00
 SP3aq SC1er  1 4.140000e-01    1.560000e+00
 SP2aq SC1er  1 4.100000e-01    1.750000e+00
 SP1aq SC1er  1 4.100000e-01    1.750000e+00
 SN6aq SC1er  1 4.100000e-01    1.910000e+00
 SN5aq SC1er  1 4.100000e-01    1.910000e+00
 SN4aq SC1er  1 4.100000e-01    1.910000e+00
 SN3aq SC1er  1 4.100000e-01    2.040000e+00
 SN2aq SC1er  1 4.100000e-01    2.040000e+00
 SN1aq SC1er  1 4.100000e-01    2.040000e+00
 SC6vq SC1er  1 4.100000e-01    2.600000e+00
 SC5vq SC1er  1 4.100000e-01    2.840000e+00
 SC4vq SC1er  1 4.100000e-01    2.840000e+00
 SC3vq SC1er  1 4.100000e-01    3.310000e+00
 SC2vq SC1er  1 4.100000e-01    3.550000e+00
 SC1vq SC1er  1 4.100000e-01    3.310000e+00
 SC1er SX4vq  1 4.100000e-01    2.600000e+00
 SC1er SX3vq  1 4.100000e-01    3.070000e+00
 SC1er SX2vq  1 4.100000e-01    3.070000e+00
 SC1er SX1vq  1 4.100000e-01    3.070000e+00
 SC6eq SC1er  1 4.100000e-01    2.040000e+00
 SC5eq SC1er  1 4.100000e-01    2.200000e+00
 SC4eq SC1er  1 4.100000e-01    2.200000e+00
 SC3eq SC1er  1 4.100000e-01    2.600000e+00
 SC2eq SC1er  1 4.100000e-01    2.840000e+00
 SC1er SC1eq  1 4.100000e-01    2.600000e+00
 SC1er SX1eq  1 4.100000e-01    2.350000e+00
 SC1er SX2eq  1 4.100000e-01    2.350000e+00
 SC1er SX3eq  1 4.100000e-01    2.350000e+00
 SC1er SX4eq  1 4.100000e-01    2.040000e+00
 SP6dq SX4er  1 4.100000e-01    2.600000e+00
 SP5dq SX4er  1 4.100000e-01    2.840000e+00
 SP4dq SX4er  1 4.100000e-01    2.840000e+00
 SP3dq SX4er  1 4.100000e-01    2.840000e+00
 SP2dq SX4er  1 4.100000e-01    2.840000e+00
 SP1dq SX4er  1 4.100000e-01    2.840000e+00
 SN6dq SX4er  1 4.100000e-01    3.070000e+00
 SN5dq SX4er  1 4.100000e-01    3.310000e+00
 SN4dq SX4er  1 4.100000e-01    3.550000e+00
 SN3dq SX4er  1 4.100000e-01    3.310000e+00
 SN2dq SX4er  1 4.100000e-01    3.310000e+00
 SN1dq SX4er  1 4.100000e-01    3.070000e+00
 SP6aq SX4er  1 4.100000e-01    2.200000e+00
 SP5aq SX4er  1 4.100000e-01    2.350000e+00
 SP4aq SX4er  1 4.100000e-01    2.350000e+00
 SP3aq SX4er  1 4.100000e-01    2.350000e+00
 SP2aq SX4er  1 4.100000e-01    2.350000e+00
 SP1aq SX4er  1 4.100000e-01    2.350000e+00
 SN6aq SX4er  1 4.100000e-01    2.600000e+00
 SN5aq SX4er  1 4.100000e-01    2.840000e+00
 SN4aq SX4er  1 4.100000e-01    3.070000e+00
 SN3aq SX4er  1 4.100000e-01    2.840000e+00
 SN2aq SX4er  1 4.100000e-01    2.840000e+00
 SN1aq SX4er  1 4.100000e-01    2.600000e+00
 SC6vq SX4er  1 4.100000e-01    3.310000e+00
 SC5vq SX4er  1 4.100000e-01    3.070000e+00
 SC4vq SX4er  1 4.100000e-01    3.070000e+00
 SC3vq SX4er  1 4.100000e-01    3.070000e+00
 SC2vq SX4er  1 4.100000e-01    2.600000e+00
 SC1vq SX4er  1 4.100000e-01    2.600000e+00
 SX4vq SX4er  1 4.100000e-01    3.310000e+00
 SX4er SX3vq  1 4.100000e-01    3.310000e+00
 SX4er SX2vq  1 4.100000e-01    3.310000e+00
 SX4er SX1vq  1 4.100000e-01    3.310000e+00
 SC6eq SX4er  1 4.100000e-01    2.600000e+00
 SC5eq SX4er  1 4.100000e-01    2.350000e+00
 SC4eq SX4er  1 4.100000e-01    2.350000e+00
 SC3eq SX4er  1 4.100000e-01    2.350000e+00
 SC2eq SX4er  1 4.100000e-01    2.040000e+00
 SC1eq SX4er  1 4.100000e-01    2.040000e+00
 SX4er SX4eq  1 4.100000e-01    2.600000e+00
 SX4er SX1eq  1 4.100000e-01    2.600000e+00
 SX4er SX2eq  1 4.100000e-01    2.600000e+00
 SX4er SX3eq  1 4.100000e-01    2.600000e+00
 SP6dq SX3er  1 4.100000e-01    2.600000e+00
 SP5dq SX3er  1 4.100000e-01    2.600000e+00
 SP4dq SX3er  1 4.100000e-01    2.600000e+00
 SP3dq SX3er  1 4.100000e-01    2.840000e+00
 SP2dq SX3er  1 4.100000e-01    2.840000e+00
 SP1dq SX3er  1 4.100000e-01    2.840000e+00
 SN6dq SX3er  1 4.100000e-01    2.840000e+00
 SN5dq SX3er  1 4.100000e-01    3.070000e+00
 SN4dq SX3er  1 4.100000e-01    3.310000e+00
 SN3dq SX3er  1 4.100000e-01    3.070000e+00
 SN2dq SX3er  1 4.100000e-01    3.070000e+00
 SN1dq SX3er  1 4.100000e-01    3.070000e+00
 SP6aq SX3er  1 4.100000e-01    2.200000e+00
 SP5aq SX3er  1 4.100000e-01    2.200000e+00
 SP4aq SX3er  1 4.100000e-01    2.200000e+00
 SP3aq SX3er  1 4.100000e-01    2.350000e+00
 SP2aq SX3er  1 4.100000e-01    2.350000e+00
 SP1aq SX3er  1 4.100000e-01    2.350000e+00
 SN6aq SX3er  1 4.100000e-01    2.350000e+00
 SN5aq SX3er  1 4.100000e-01    2.600000e+00
 SN4aq SX3er  1 4.100000e-01    2.840000e+00
 SN3aq SX3er  1 4.100000e-01    2.600000e+00
 SN2aq SX3er  1 4.100000e-01    2.600000e+00
 SN1aq SX3er  1 4.100000e-01    2.600000e+00
 SC6vq SX3er  1 4.100000e-01    3.310000e+00
 SC5vq SX3er  1 4.100000e-01    3.070000e+00
 SC4vq SX3er  1 4.100000e-01    3.070000e+00
 SC3vq SX3er  1 4.100000e-01    3.070000e+00
 SC2vq SX3er  1 4.100000e-01    3.070000e+00
 SC1vq SX3er  1 4.100000e-01    3.070000e+00
 SX4vq SX3er  1 4.100000e-01    3.310000e+00
 SX3vq SX3er  1 4.100000e-01    3.310000e+00
 SX3er SX2vq  1 4.100000e-01    3.550000e+00
 SX3er SX1vq  1 4.100000e-01    3.550000e+00
 SC6eq SX3er  1 4.100000e-01    2.600000e+00
 SC5eq SX3er  1 4.100000e-01    2.350000e+00
 SC4eq SX3er  1 4.100000e-01    2.350000e+00
 SC3eq SX3er  1 4.100000e-01    2.350000e+00
 SC2eq SX3er  1 4.100000e-01    2.350000e+00
 SC1eq SX3er  1 4.100000e-01    2.350000e+00
 SX4eq SX3er  1 4.100000e-01    2.600000e+00
 SX3er SX3eq  1 4.100000e-01    2.600000e+00
 SX3er SX1eq  1 4.100000e-01    2.840000e+00
 SX3er SX2eq  1 4.100000e-01    2.840000e+00
 SP6dq SX2er  1 4.100000e-01    2.350000e+00
 SP5dq SX2er  1 4.100000e-01    2.600000e+00
 SP4dq SX2er  1 4.100000e-01    2.600000e+00
 SP3dq SX2er  1 4.100000e-01    2.600000e+00
 SP2dq SX2er  1 4.100000e-01    2.600000e+00
 SP1dq SX2er  1 4.100000e-01    2.600000e+00
 SN6dq SX2er  1 4.100000e-01    2.600000e+00
 SN5dq SX2er  1 4.100000e-01    2.840000e+00
 SN4dq SX2er  1 4.100000e-01    2.840000e+00
 SN3dq SX2er  1 4.100000e-01    2.840000e+00
 SN2dq SX2er  1 4.100000e-01    2.840000e+00
 SN1dq SX2er  1 4.100000e-01    2.840000e+00
 SP6aq SX2er  1 4.100000e-01    2.040000e+00
 SP5aq SX2er  1 4.100000e-01    2.200000e+00
 SP4aq SX2er  1 4.100000e-01    2.200000e+00
 SP3aq SX2er  1 4.100000e-01    2.200000e+00
 SP2aq SX2er  1 4.100000e-01    2.200000e+00
 SP1aq SX2er  1 4.100000e-01    2.200000e+00
 SN6aq SX2er  1 4.100000e-01    2.200000e+00
 SN5aq SX2er  1 4.100000e-01    2.350000e+00
 SN4aq SX2er  1 4.100000e-01    2.350000e+00
 SN3aq SX2er  1 4.100000e-01    2.350000e+00
 SN2aq SX2er  1 4.100000e-01    2.350000e+00
 SN1aq SX2er  1 4.100000e-01    2.350000e+00
 SC6vq SX2er  1 4.100000e-01    3.310000e+00
 SC5vq SX2er  1 4.100000e-01    3.070000e+00
 SC4vq SX2er  1 4.100000e-01    3.070000e+00
 SC3vq SX2er  1 4.100000e-01    3.070000e+00
 SC2vq SX2er  1 4.100000e-01    3.070000e+00
 SC1vq SX2er  1 4.100000e-01    3.070000e+00
 SX4vq SX2er  1 4.100000e-01    3.310000e+00
 SX3vq SX2er  1 4.100000e-01    3.550000e+00
 SX2vq SX2er  1 4.100000e-01    3.550000e+00
 SX2er SX1vq  1 4.100000e-01    3.550000e+00
 SC6eq SX2er  1 4.100000e-01    2.600000e+00
 SC5eq SX2er  1 4.100000e-01    2.350000e+00
 SC4eq SX2er  1 4.100000e-01    2.350000e+00
 SC3eq SX2er  1 4.100000e-01    2.350000e+00
 SC2eq SX2er  1 4.100000e-01    2.350000e+00
 SC1eq SX2er  1 4.100000e-01    2.350000e+00
 SX4eq SX2er  1 4.100000e-01    2.600000e+00
 SX3eq SX2er  1 4.100000e-01    2.840000e+00
 SX2er SX2eq  1 4.100000e-01    2.840000e+00
 SX2er SX1eq  1 4.100000e-01    2.840000e+00
 SP6dq SX1er  1 4.100000e-01    2.200000e+00
 SP5dq SX1er  1 4.100000e-01    2.200000e+00
 SP4dq SX1er  1 4.100000e-01    2.350000e+00
 SP3dq SX1er  1 4.100000e-01    2.350000e+00
 SP2dq SX1er  1 4.100000e-01    2.350000e+00
 SP1dq SX1er  1 4.100000e-01    2.350000e+00
 SN6dq SX1er  1 4.100000e-01    2.350000e+00
 SN5dq SX1er  1 4.100000e-01    2.600000e+00
 SN4dq SX1er  1 4.100000e-01    2.600000e+00
 SN3dq SX1er  1 4.100000e-01    2.840000e+00
 SN2dq SX1er  1 4.100000e-01    2.840000e+00
 SN1dq SX1er  1 4.100000e-01    2.840000e+00
 SP6aq SX1er  1 4.100000e-01    1.910000e+00
 SP5aq SX1er  1 4.100000e-01    1.910000e+00
 SP4aq SX1er  1 4.100000e-01    2.040000e+00
 SP3aq SX1er  1 4.100000e-01    2.040000e+00
 SP2aq SX1er  1 4.100000e-01    2.040000e+00
 SP1aq SX1er  1 4.100000e-01    2.040000e+00
 SN6aq SX1er  1 4.100000e-01    2.040000e+00
 SN5aq SX1er  1 4.100000e-01    2.200000e+00
 SN4aq SX1er  1 4.100000e-01    2.200000e+00
 SN3aq SX1er  1 4.100000e-01    2.350000e+00
 SN2aq SX1er  1 4.100000e-01    2.350000e+00
 SN1aq SX1er  1 4.100000e-01    2.350000e+00
 SC6vq SX1er  1 4.100000e-01    3.310000e+00
 SC5vq SX1er  1 4.100000e-01    3.310000e+00
 SC4vq SX1er  1 4.100000e-01    3.310000e+00
 SC3vq SX1er  1 4.100000e-01    3.310000e+00
 SC2vq SX1er  1 4.100000e-01    3.070000e+00
 SC1vq SX1er  1 4.100000e-01    3.070000e+00
 SX4vq SX1er  1 4.100000e-01    3.310000e+00
 SX3vq SX1er  1 4.100000e-01    3.550000e+00
 SX2vq SX1er  1 4.100000e-01    3.550000e+00
 SX1vq SX1er  1 4.100000e-01    3.820000e+00
 SC6eq SX1er  1 4.100000e-01    2.600000e+00
 SC5eq SX1er  1 4.100000e-01    2.600000e+00
 SC4eq SX1er  1 4.100000e-01    2.600000e+00
 SC3eq SX1er  1 4.100000e-01    2.600000e+00
 SC2eq SX1er  1 4.100000e-01    2.350000e+00
 SC1eq SX1er  1 4.100000e-01    2.350000e+00
 SX4eq SX1er  1 4.100000e-01    2.600000e+00
 SX3eq SX1er  1 4.100000e-01    2.840000e+00
 SX2eq SX1er  1 4.100000e-01    2.840000e+00
 SX1er SX1eq  1 4.100000e-01    3.070000e+00
  SP6r  SP6r  1 4.100000e-01    4.040000e+00
  SP5r  SP5r  1 4.100000e-01    3.550000e+00
  SP4r  SP4r  1 4.100000e-01    3.310000e+00
  SP3r  SP3r  1 4.100000e-01    3.070000e+00
  SP2r  SP2r  1 4.100000e-01    3.070000e+00
  SP1r  SP1r  1 4.100000e-01    2.840000e+00
  SN6r  SN6r  1 4.100000e-01    2.840000e+00
  SN5r  SN5r  1 4.100000e-01    2.600000e+00
  SN4r  SN4r  1 4.100000e-01    2.600000e+00
  SN3r  SN3r  1 4.100000e-01    2.350000e+00
  SN2r  SN2r  1 4.100000e-01    2.350000e+00
  SN1r  SN1r  1 4.100000e-01    2.350000e+00
 SP6dr SP6dr  1 4.100000e-01    3.820000e+00
 SP5dr SP5dr  1 4.100000e-01    3.310000e+00
 SP4dr SP4dr  1 4.100000e-01    3.070000e+00
 SP3dr SP3dr  1 4.100000e-01    2.840000e+00
 SP2dr SP2dr  1 4.100000e-01    2.840000e+00
 SP1dr SP1dr  1 4.100000e-01    2.600000e+00
 SN6dr SN6dr  1 4.100000e-01    2.600000e+00
 SN5dr SN5dr  1 4.100000e-01    2.350000e+00
 SN4dr SN4dr  1 4.100000e-01    2.350000e+00
 SN3dr SN3dr  1 4.100000e-01    2.200000e+00
 SN2dr SN2dr  1 4.100000e-01    2.200000e+00
 SN1dr SN1dr  1 4.100000e-01    2.200000e+00
 SP6ar SP6ar  1 4.100000e-01    3.820000e+00
 SP5ar SP5ar  1 4.100000e-01    3.310000e+00
 SP4ar SP4ar  1 4.100000e-01    3.070000e+00
 SP3ar SP3ar  1 4.100000e-01    2.840000e+00
 SP2ar SP2ar  1 4.100000e-01    2.840000e+00
 SP1ar SP1ar  1 4.100000e-01    2.600000e+00
 SN6ar SN6ar  1 4.100000e-01    2.600000e+00
 SN5ar SN5ar  1 4.100000e-01    2.350000e+00
 SN4ar SN4ar  1 4.100000e-01    2.350000e+00
 SN3ar SN3ar  1 4.100000e-01    2.200000e+00
 SN2ar SN2ar  1 4.100000e-01    2.200000e+00
 SN1ar SN1ar  1 4.100000e-01    2.200000e+00
  SP6r  SP5r  1 4.100000e-01    3.820000e+00
  SP6r  SP4r  1 4.100000e-01    3.550000e+00
  SP6r  SP3r  1 4.100000e-01    3.310000e+00
  SP6r  SP2r  1 4.100000e-01    3.310000e+00
  SP6r  SP1r  1 4.100000e-01    3.070000e+00
  SP6r  SN6r  1 4.100000e-01    2.840000e+00
  SP6r  SN5r  1 4.100000e-01    2.350000e+00
  SP6r  SN4r  1 4.100000e-01    2.200000e+00
  SP6r  SN3r  1 4.100000e-01    2.040000e+00
  SP6r  SN2r  1 4.100000e-01    1.910000e+00
  SP6r  SN1r  1 4.100000e-01    1.750000e+00
  SP5r  SP4r  1 4.100000e-01    3.310000e+00
  SP5r  SP3r  1 4.100000e-01    3.070000e+00
  SP5r  SP2r  1 4.100000e-01    3.070000e+00
  SP5r  SP1r  1 4.100000e-01    2.840000e+00
  SP5r  SN6r  1 4.100000e-01    2.600000e+00
  SP5r  SN5r  1 4.100000e-01    2.350000e+00
  SP5r  SN4r  1 4.100000e-01    2.350000e+00
  SP5r  SN3r  1 4.100000e-01    2.040000e+00
  SP5r  SN2r  1 4.100000e-01    1.910000e+00
  SP5r  SN1r  1 4.100000e-01    1.750000e+00
  SP4r  SP3r  1 4.100000e-01    3.070000e+00
  SP4r  SP2r  1 4.100000e-01    3.070000e+00
  SP4r  SP1r  1 4.100000e-01    2.840000e+00
  SP4r  SN6r  1 4.100000e-01    2.600000e+00
  SP4r  SN5r  1 4.100000e-01    2.350000e+00
  SP4r  SN4r  1 4.100000e-01    2.350000e+00
  SP4r  SN3r  1 4.100000e-01    2.200000e+00
  SP4r  SN2r  1 4.100000e-01    2.040000e+00
  SP4r  SN1r  1 4.100000e-01    1.910000e+00
  SP3r  SP2r  1 4.100000e-01    3.070000e+00
  SP3r  SP1r  1 4.100000e-01    2.840000e+00
  SP3r  SN6r  1 4.100000e-01    2.600000e+00
  SP3r  SN5r  1 4.100000e-01    2.350000e+00
  SP3r  SN4r  1 4.100000e-01    2.350000e+00
  SP3r  SN3r  1 4.100000e-01    2.200000e+00
  SP3r  SN2r  1 4.100000e-01    2.200000e+00
  SP3r  SN1r  1 4.100000e-01    2.040000e+00
  SP2r  SP1r  1 4.100000e-01    2.840000e+00
  SP2r  SN6r  1 4.100000e-01    2.840000e+00
  SP2r  SN5r  1 4.100000e-01    2.600000e+00
  SP2r  SN4r  1 4.100000e-01    2.350000e+00
  SP2r  SN3r  1 4.100000e-01    2.200000e+00
  SP2r  SN2r  1 4.100000e-01    2.200000e+00
  SP2r  SN1r  1 4.100000e-01    2.200000e+00
  SP1r  SN6r  1 4.100000e-01    2.840000e+00
  SP1r  SN5r  1 4.100000e-01    2.600000e+00
  SP1r  SN4r  1 4.100000e-01    2.600000e+00
  SP1r  SN3r  1 4.100000e-01    2.200000e+00
  SP1r  SN2r  1 4.100000e-01    2.200000e+00
  SP1r  SN1r  1 4.100000e-01    2.200000e+00
  SN6r  SN5r  1 4.100000e-01    2.840000e+00
  SN6r  SN4r  1 4.100000e-01    2.840000e+00
  SN6r  SN3r  1 4.100000e-01    2.350000e+00
  SN6r  SN2r  1 4.100000e-01    2.200000e+00
  SN6r  SN1r  1 4.100000e-01    2.200000e+00
  SN5r  SN4r  1 4.100000e-01    2.600000e+00
  SN5r  SN3r  1 4.100000e-01    2.350000e+00
  SN5r  SN2r  1 4.100000e-01    2.350000e+00
  SN5r  SN1r  1 4.100000e-01    2.200000e+00
  SN4r  SN3r  1 4.100000e-01    2.350000e+00
  SN4r  SN2r  1 4.100000e-01    2.350000e+00
  SN4r  SN1r  1 4.100000e-01    2.200000e+00
  SN3r  SN2r  1 4.100000e-01    2.350000e+00
  SN3r  SN1r  1 4.100000e-01    2.200000e+00
  SN2r  SN1r  1 4.100000e-01    2.200000e+00
 SP6dr SP5dr  1 4.100000e-01    3.550000e+00
 SP6dr SP4dr  1 4.100000e-01    3.310000e+00
 SP6dr SP3dr  1 4.100000e-01    3.070000e+00
 SP6dr SP2dr  1 4.100000e-01    3.070000e+00
 SP6dr SP1dr  1 4.100000e-01    2.840000e+00
 SP6dr SN6dr  1 4.100000e-01    2.600000e+00
 SP6dr SN5dr  1 4.100000e-01    2.200000e+00
 SP6dr SN4dr  1 4.100000e-01    2.040000e+00
 SP6dr SN3dr  1 4.100000e-01    2.040000e+00
 SP6dr SN2dr  1 4.100000e-01    1.910000e+00
 SP6dr SN1dr  1 4.100000e-01    1.750000e+00
 SP6dr SP6ar  1 4.100000e-01    4.290000e+00
 SP6dr SP5ar  1 4.100000e-01    4.040000e+00
 SP6dr SP4ar  1 4.100000e-01    3.820000e+00
 SP6dr SP3ar  1 4.100000e-01    3.550000e+00
 SP6dr SP2ar  1 4.100000e-01    3.550000e+00
 SP6dr SP1ar  1 4.100000e-01    3.310000e+00
 SP6dr SN6ar  1 4.100000e-01    3.070000e+00
 SP6dr SN5ar  1 4.100000e-01    2.600000e+00
 SP6dr SN4ar  1 4.100000e-01    2.350000e+00
 SP6dr SN3ar  1 4.100000e-01    2.040000e+00
 SP6dr SN2ar  1 4.100000e-01    1.910000e+00
 SP6dr SN1ar  1 4.100000e-01    1.750000e+00
 SP5dr SP4dr  1 4.100000e-01    3.070000e+00
 SP5dr SP3dr  1 4.100000e-01    2.840000e+00
 SP5dr SP2dr  1 4.100000e-01    2.840000e+00
 SP5dr SP1dr  1 4.100000e-01    2.600000e+00
 SP5dr SN6dr  1 4.100000e-01    2.350000e+00
 SP5dr SN5dr  1 4.100000e-01    2.200000e+00
 SP5dr SN4dr  1 4.100000e-01    2.200000e+00
 SP5dr SN3dr  1 4.100000e-01    2.040000e+00
 SP5dr SN2dr  1 4.100000e-01    1.910000e+00
 SP5dr SN1dr  1 4.100000e-01    1.750000e+00
 SP5dr SP5ar  1 4.100000e-01    3.820000e+00
 SP5dr SP4ar  1 4.100000e-01    3.550000e+00
 SP5dr SP3ar  1 4.100000e-01    3.310000e+00
 SP5dr SP2ar  1 4.100000e-01    3.310000e+00
 SP5dr SP1ar  1 4.100000e-01    3.070000e+00
 SP5dr SN6ar  1 4.100000e-01    2.840000e+00
 SP5dr SN5ar  1 4.100000e-01    2.600000e+00
 SP5dr SN4ar  1 4.100000e-01    2.600000e+00
 SP5dr SN3ar  1 4.100000e-01    2.040000e+00
 SP5dr SN2ar  1 4.100000e-01    1.910000e+00
 SP5dr SN1ar  1 4.100000e-01    1.750000e+00
 SP4dr SP3dr  1 4.100000e-01    2.840000e+00
 SP4dr SP2dr  1 4.100000e-01    2.840000e+00
 SP4dr SP1dr  1 4.100000e-01    2.600000e+00
 SP4dr SN6dr  1 4.100000e-01    2.350000e+00
 SP4dr SN5dr  1 4.100000e-01    2.200000e+00
 SP4dr SN4dr  1 4.100000e-01    2.200000e+00
 SP4dr SN3dr  1 4.100000e-01    2.040000e+00
 SP4dr SN2dr  1 4.100000e-01    2.040000e+00
 SP4dr SN1dr  1 4.100000e-01    1.910000e+00
 SP4dr SP4ar  1 4.100000e-01    3.550000e+00
 SP4dr SP3ar  1 4.100000e-01    3.310000e+00
 SP4dr SP2ar  1 4.100000e-01    3.310000e+00
 SP4dr SP1ar  1 4.100000e-01    3.070000e+00
 SP4dr SN6ar  1 4.100000e-01    2.840000e+00
 SP4dr SN5ar  1 4.100000e-01    2.600000e+00
 SP4dr SN4ar  1 4.100000e-01    2.600000e+00
 SP4dr SN3ar  1 4.100000e-01    2.350000e+00
 SP4dr SN2ar  1 4.100000e-01    2.040000e+00
 SP4dr SN1ar  1 4.100000e-01    1.910000e+00
 SP3dr SP2dr  1 4.100000e-01    2.840000e+00
 SP3dr SP1dr  1 4.100000e-01    2.600000e+00
 SP3dr SN6dr  1 4.100000e-01    2.350000e+00
 SP3dr SN5dr  1 4.100000e-01    2.200000e+00
 SP3dr SN4dr  1 4.100000e-01    2.200000e+00
 SP3dr SN3dr  1 4.100000e-01    2.040000e+00
 SP3dr SN2dr  1 4.100000e-01    2.040000e+00
 SP3dr SN1dr  1 4.100000e-01    2.040000e+00
 SP3dr SP3ar  1 4.100000e-01    3.310000e+00
 SP3dr SP2ar  1 4.100000e-01    3.310000e+00
 SP3dr SP1ar  1 4.100000e-01    3.070000e+00
 SP3dr SN6ar  1 4.100000e-01    2.840000e+00
 SP3dr SN5ar  1 4.100000e-01    2.600000e+00
 SP3dr SN4ar  1 4.100000e-01    2.600000e+00
 SP3dr SN3ar  1 4.100000e-01    2.350000e+00
 SP3dr SN2ar  1 4.100000e-01    2.350000e+00
 SP3dr SN1ar  1 4.100000e-01    2.040000e+00
 SP2dr SP1dr  1 4.100000e-01    2.600000e+00
 SP2dr SN6dr  1 4.100000e-01    2.600000e+00
 SP2dr SN5dr  1 4.100000e-01    2.350000e+00
 SP2dr SN4dr  1 4.100000e-01    2.200000e+00
 SP2dr SN3dr  1 4.100000e-01    2.040000e+00
 SP2dr SN2dr  1 4.100000e-01    2.040000e+00
 SP2dr SN1dr  1 4.100000e-01    2.040000e+00
 SP2dr SP2ar  1 4.100000e-01    3.310000e+00
 SP2dr SP1ar  1 4.100000e-01    3.070000e+00
 SP2dr SN6ar  1 4.100000e-01    3.070000e+00
 SP2dr SN5ar  1 4.100000e-01    2.840000e+00
 SP2dr SN4ar  1 4.100000e-01    2.600000e+00
 SP2dr SN3ar  1 4.100000e-01    2.350000e+00
 SP2dr SN2ar  1 4.100000e-01    2.350000e+00
 SP2dr SN1ar  1 4.100000e-01    2.350000e+00
 SP1dr SN6dr  1 4.100000e-01    2.600000e+00
 SP1dr SN5dr  1 4.100000e-01    2.350000e+00
 SP1dr SN4dr  1 4.100000e-01    2.350000e+00
 SP1dr SN3dr  1 4.100000e-01    2.040000e+00
 SP1dr SN2dr  1 4.100000e-01    2.040000e+00
 SP1dr SN1dr  1 4.100000e-01    2.040000e+00
 SP1dr SP1ar  1 4.100000e-01    3.070000e+00
 SP1dr SN6ar  1 4.100000e-01    3.070000e+00
 SP1dr SN5ar  1 4.100000e-01    2.840000e+00
 SP1dr SN4ar  1 4.100000e-01    2.840000e+00
 SP1dr SN3ar  1 4.100000e-01    2.350000e+00
 SP1dr SN2ar  1 4.100000e-01    2.350000e+00
 SP1dr SN1ar  1 4.100000e-01    2.350000e+00
 SN6dr SN5dr  1 4.100000e-01    2.600000e+00
 SN6dr SN4dr  1 4.100000e-01    2.600000e+00
 SN6dr SN3dr  1 4.100000e-01    2.200000e+00
 SN6dr SN2dr  1 4.100000e-01    2.040000e+00
 SN6dr SN1dr  1 4.100000e-01    2.040000e+00
 SN6dr SN6ar  1 4.100000e-01    3.070000e+00
 SN6dr SN5ar  1 4.100000e-01    3.070000e+00
 SN6dr SN4ar  1 4.100000e-01    3.070000e+00
 SN6dr SN3ar  1 4.100000e-01    2.600000e+00
 SN6dr SN2ar  1 4.100000e-01    2.350000e+00
 SN6dr SN1ar  1 4.100000e-01    2.350000e+00
 SN5dr SN4dr  1 4.100000e-01    2.350000e+00
 SN5dr SN3dr  1 4.100000e-01    2.200000e+00
 SN5dr SN2dr  1 4.100000e-01    2.200000e+00
 SN5dr SN1dr  1 4.100000e-01    2.040000e+00
 SN5dr SN5ar  1 4.100000e-01    2.840000e+00
 SN5dr SN4ar  1 4.100000e-01    2.840000e+00
 SN5dr SN3ar  1 4.100000e-01    2.600000e+00
 SN5dr SN2ar  1 4.100000e-01    2.600000e+00
 SN5dr SN1ar  1 4.100000e-01    2.350000e+00
 SN4dr SN3dr  1 4.100000e-01    2.200000e+00
 SN4dr SN2dr  1 4.100000e-01    2.200000e+00
 SN4dr SN1dr  1 4.100000e-01    2.040000e+00
 SN4dr SN4ar  1 4.100000e-01    2.840000e+00
 SN4dr SN3ar  1 4.100000e-01    2.600000e+00
 SN4dr SN2ar  1 4.100000e-01    2.600000e+00
 SN4dr SN1ar  1 4.100000e-01    2.350000e+00
 SN3dr SN2dr  1 4.100000e-01    2.200000e+00
 SN3dr SN1dr  1 4.100000e-01    2.040000e+00
 SN3dr SN3ar  1 4.100000e-01    2.600000e+00
 SN3dr SN2ar  1 4.100000e-01    2.600000e+00
 SN3dr SN1ar  1 4.100000e-01    2.350000e+00
 SN2dr SN1dr  1 4.100000e-01    2.040000e+00
 SN2dr SN2ar  1 4.100000e-01    2.600000e+00
 SN2dr SN1ar  1 4.100000e-01    2.350000e+00
 SN1dr SN1ar  1 4.100000e-01    2.600000e+00
 SP6ar SP5dr  1 4.100000e-01    4.040000e+00
 SP6ar SP4dr  1 4.100000e-01    3.820000e+00
 SP6ar SP3dr  1 4.100000e-01    3.550000e+00
 SP6ar SP2dr  1 4.100000e-01    3.550000e+00
 SP6ar SP1dr  1 4.100000e-01    3.310000e+00
 SP6ar SN6dr  1 4.100000e-01    3.070000e+00
 SP6ar SN5dr  1 4.100000e-01    2.600000e+00
 SP6ar SN4dr  1 4.100000e-01    2.350000e+00
 SP6ar SN3dr  1 4.100000e-01    2.040000e+00
 SP6ar SN2dr  1 4.100000e-01    1.910000e+00
 SP6ar SN1dr  1 4.100000e-01    1.750000e+00
 SP6ar SP5ar  1 4.100000e-01    3.550000e+00
 SP6ar SP4ar  1 4.100000e-01    3.310000e+00
 SP6ar SP3ar  1 4.100000e-01    3.070000e+00
 SP6ar SP2ar  1 4.100000e-01    3.070000e+00
 SP6ar SP1ar  1 4.100000e-01    2.840000e+00
 SP6ar SN6ar  1 4.100000e-01    2.600000e+00
 SP6ar SN5ar  1 4.100000e-01    2.200000e+00
 SP6ar SN4ar  1 4.100000e-01    2.040000e+00
 SP6ar SN3ar  1 4.100000e-01    2.040000e+00
 SP6ar SN2ar  1 4.100000e-01    1.910000e+00
 SP6ar SN1ar  1 4.100000e-01    1.750000e+00
 SP5ar SP4dr  1 4.100000e-01    3.550000e+00
 SP5ar SP3dr  1 4.100000e-01    3.310000e+00
 SP5ar SP2dr  1 4.100000e-01    3.310000e+00
 SP5ar SP1dr  1 4.100000e-01    3.070000e+00
 SP5ar SN6dr  1 4.100000e-01    2.840000e+00
 SP5ar SN5dr  1 4.100000e-01    2.600000e+00
 SP5ar SN4dr  1 4.100000e-01    2.600000e+00
 SP5ar SN3dr  1 4.100000e-01    2.040000e+00
 SP5ar SN2dr  1 4.100000e-01    1.910000e+00
 SP5ar SN1dr  1 4.100000e-01    1.750000e+00
 SP5ar SP4ar  1 4.100000e-01    3.070000e+00
 SP5ar SP3ar  1 4.100000e-01    2.840000e+00
 SP5ar SP2ar  1 4.100000e-01    2.840000e+00
 SP5ar SP1ar  1 4.100000e-01    2.600000e+00
 SP5ar SN6ar  1 4.100000e-01    2.350000e+00
 SP5ar SN5ar  1 4.100000e-01    2.200000e+00
 SP5ar SN4ar  1 4.100000e-01    2.200000e+00
 SP5ar SN3ar  1 4.100000e-01    2.040000e+00
 SP5ar SN2ar  1 4.100000e-01    1.910000e+00
 SP5ar SN1ar  1 4.100000e-01    1.750000e+00
 SP4ar SP3dr  1 4.100000e-01    3.310000e+00
 SP4ar SP2dr  1 4.100000e-01    3.310000e+00
 SP4ar SP1dr  1 4.100000e-01    3.070000e+00
 SP4ar SN6dr  1 4.100000e-01    2.840000e+00
 SP4ar SN5dr  1 4.100000e-01    2.600000e+00
 SP4ar SN4dr  1 4.100000e-01    2.600000e+00
 SP4ar SN3dr  1 4.100000e-01    2.350000e+00
 SP4ar SN2dr  1 4.100000e-01    2.040000e+00
 SP4ar SN1dr  1 4.100000e-01    1.910000e+00
 SP4ar SP3ar  1 4.100000e-01    2.840000e+00
 SP4ar SP2ar  1 4.100000e-01    2.840000e+00
 SP4ar SP1ar  1 4.100000e-01    2.600000e+00
 SP4ar SN6ar  1 4.100000e-01    2.350000e+00
 SP4ar SN5ar  1 4.100000e-01    2.200000e+00
 SP4ar SN4ar  1 4.100000e-01    2.200000e+00
 SP4ar SN3ar  1 4.100000e-01    2.040000e+00
 SP4ar SN2ar  1 4.100000e-01    2.040000e+00
 SP4ar SN1ar  1 4.100000e-01    1.910000e+00
 SP3ar SP2dr  1 4.100000e-01    3.310000e+00
 SP3ar SP1dr  1 4.100000e-01    3.070000e+00
 SP3ar SN6dr  1 4.100000e-01    2.840000e+00
 SP3ar SN5dr  1 4.100000e-01    2.600000e+00
 SP3ar SN4dr  1 4.100000e-01    2.600000e+00
 SP3ar SN3dr  1 4.100000e-01    2.350000e+00
 SP3ar SN2dr  1 4.100000e-01    2.350000e+00
 SP3ar SN1dr  1 4.100000e-01    2.040000e+00
 SP3ar SP2ar  1 4.100000e-01    2.840000e+00
 SP3ar SP1ar  1 4.100000e-01    2.600000e+00
 SP3ar SN6ar  1 4.100000e-01    2.350000e+00
 SP3ar SN5ar  1 4.100000e-01    2.200000e+00
 SP3ar SN4ar  1 4.100000e-01    2.200000e+00
 SP3ar SN3ar  1 4.100000e-01    2.040000e+00
 SP3ar SN2ar  1 4.100000e-01    2.040000e+00
 SP3ar SN1ar  1 4.100000e-01    2.040000e+00
 SP2ar SP1dr  1 4.100000e-01    3.070000e+00
 SP2ar SN6dr  1 4.100000e-01    3.070000e+00
 SP2ar SN5dr  1 4.100000e-01    2.840000e+00
 SP2ar SN4dr  1 4.100000e-01    2.600000e+00
 SP2ar SN3dr  1 4.100000e-01    2.350000e+00
 SP2ar SN2dr  1 4.100000e-01    2.350000e+00
 SP2ar SN1dr  1 4.100000e-01    2.350000e+00
 SP2ar SP1ar  1 4.100000e-01    2.600000e+00
 SP2ar SN6ar  1 4.100000e-01    2.600000e+00
 SP2ar SN5ar  1 4.100000e-01    2.350000e+00
 SP2ar SN4ar  1 4.100000e-01    2.200000e+00
 SP2ar SN3ar  1 4.100000e-01    2.040000e+00
 SP2ar SN2ar  1 4.100000e-01    2.040000e+00
 SP2ar SN1ar  1 4.100000e-01    2.040000e+00
 SP1ar SN6dr  1 4.100000e-01    3.070000e+00
 SP1ar SN5dr  1 4.100000e-01    2.840000e+00
 SP1ar SN4dr  1 4.100000e-01    2.840000e+00
 SP1ar SN3dr  1 4.100000e-01    2.350000e+00
 SP1ar SN2dr  1 4.100000e-01    2.350000e+00
 SP1ar SN1dr  1 4.100000e-01    2.350000e+00
 SP1ar SN6ar  1 4.100000e-01    2.600000e+00
 SP1ar SN5ar  1 4.100000e-01    2.350000e+00
 SP1ar SN4ar  1 4.100000e-01    2.350000e+00
 SP1ar SN3ar  1 4.100000e-01    2.040000e+00
 SP1ar SN2ar  1 4.100000e-01    2.040000e+00
 SP1ar SN1ar  1 4.100000e-01    2.040000e+00
 SN6ar SN5dr  1 4.100000e-01    3.070000e+00
 SN6ar SN4dr  1 4.100000e-01    3.070000e+00
 SN6ar SN3dr  1 4.100000e-01    2.600000e+00
 SN6ar SN2dr  1 4.100000e-01    2.350000e+00
 SN6ar SN1dr  1 4.100000e-01    2.350000e+00
 SN6ar SN5ar  1 4.100000e-01    2.600000e+00
 SN6ar SN4ar  1 4.100000e-01    2.600000e+00
 SN6ar SN3ar  1 4.100000e-01    2.200000e+00
 SN6ar SN2ar  1 4.100000e-01    2.040000e+00
 SN6ar SN1ar  1 4.100000e-01    2.040000e+00
 SN5ar SN4dr  1 4.100000e-01    2.840000e+00
 SN5ar SN3dr  1 4.100000e-01    2.600000e+00
 SN5ar SN2dr  1 4.100000e-01    2.600000e+00
 SN5ar SN1dr  1 4.100000e-01    2.350000e+00
 SN5ar SN4ar  1 4.100000e-01    2.350000e+00
 SN5ar SN3ar  1 4.100000e-01    2.200000e+00
 SN5ar SN2ar  1 4.100000e-01    2.200000e+00
 SN5ar SN1ar  1 4.100000e-01    2.040000e+00
 SN4ar SN3dr  1 4.100000e-01    2.600000e+00
 SN4ar SN2dr  1 4.100000e-01    2.600000e+00
 SN4ar SN1dr  1 4.100000e-01    2.350000e+00
 SN4ar SN3ar  1 4.100000e-01    2.200000e+00
 SN4ar SN2ar  1 4.100000e-01    2.200000e+00
 SN4ar SN1ar  1 4.100000e-01    2.040000e+00
 SN3ar SN2dr  1 4.100000e-01    2.600000e+00
 SN3ar SN1dr  1 4.100000e-01    2.350000e+00
 SN3ar SN2ar  1 4.100000e-01    2.200000e+00
 SN3ar SN1ar  1 4.100000e-01    2.040000e+00
 SN2ar SN1dr  1 4.100000e-01    2.350000e+00
 SN2ar SN1ar  1 4.100000e-01    2.040000e+00
  SC6r  SC6r  1 4.100000e-01    2.350000e+00
  SC5r  SC5r  1 4.100000e-01    2.200000e+00
  SC4r  SC4r  1 4.100000e-01    2.200000e+00
  SC3r  SC3r  1 4.100000e-01    2.200000e+00
  SC2r  SC2r  1 4.100000e-01    2.200000e+00
  SC1r  SC1r  1 4.100000e-01    2.200000e+00
  SX4r  SX4r  1 4.100000e-01    2.200000e+00
  SX3r  SX3r  1 4.100000e-01    2.200000e+00
  SX2r  SX2r  1 4.100000e-01    2.350000e+00
  SX1r  SX1r  1 4.100000e-01    2.600000e+00
 SC6vr SC6vr  1 4.100000e-01    2.200000e+00
 SC5vr SC5vr  1 4.100000e-01    2.040000e+00
 SC4vr SC4vr  1 4.100000e-01    2.040000e+00
 SC3vr SC3vr  1 4.100000e-01    2.040000e+00
 SC2vr SC2vr  1 4.100000e-01    2.040000e+00
 SC1vr SC1vr  1 4.100000e-01    2.040000e+00
 SX4vr SX4vr  1 4.100000e-01    2.040000e+00
 SX3vr SX3vr  1 4.100000e-01    2.040000e+00
 SX2vr SX2vr  1 4.100000e-01    2.200000e+00
 SX1vr SX1vr  1 4.100000e-01    2.350000e+00
 SC6er SC6er  1 4.100000e-01    2.200000e+00
 SC5er SC5er  1 4.100000e-01    2.040000e+00
 SC4er SC4er  1 4.100000e-01    2.040000e+00
 SC3er SC3er  1 4.100000e-01    2.040000e+00
 SC2er SC2er  1 4.100000e-01    2.040000e+00
 SC1er SC1er  1 4.100000e-01    2.040000e+00
 SX4er SX4er  1 4.100000e-01    2.040000e+00
 SX3er SX3er  1 4.100000e-01    2.040000e+00
 SX2er SX2er  1 4.100000e-01    2.200000e+00
 SX1er SX1er  1 4.100000e-01    2.350000e+00
  SC6r  SC5r  1 4.100000e-01    2.200000e+00
  SC6r  SC4r  1 4.100000e-01    2.200000e+00
  SC6r  SC3r  1 4.100000e-01    2.040000e+00
  SC6r  SC2r  1 4.100000e-01    1.910000e+00
  SC6r  SC1r  1 4.100000e-01    1.750000e+00
  SC6r  SX4r  1 4.100000e-01    2.200000e+00
  SC6r  SX3r  1 4.100000e-01    2.200000e+00
  SC6r  SX2r  1 4.100000e-01    2.200000e+00
  SC6r  SX1r  1 4.100000e-01    2.200000e+00
  SC5r  SC4r  1 4.100000e-01    2.200000e+00
  SC5r  SC3r  1 4.100000e-01    2.040000e+00
  SC5r  SC2r  1 4.100000e-01    1.910000e+00
  SC5r  SC1r  1 4.100000e-01    1.910000e+00
  SC5r  SX4r  1 4.100000e-01    2.040000e+00
  SC5r  SX3r  1 4.100000e-01    2.040000e+00
  SC5r  SX2r  1 4.100000e-01    2.040000e+00
  SC5r  SX1r  1 4.100000e-01    2.200000e+00
  SC4r  SC3r  1 4.100000e-01    2.200000e+00
  SC4r  SC2r  1 4.100000e-01    2.040000e+00
  SC4r  SC1r  1 4.100000e-01    1.910000e+00
  SC4r  SX4r  1 4.100000e-01    2.040000e+00
  SC4r  SX3r  1 4.100000e-01    2.040000e+00
  SC4r  SX2r  1 4.100000e-01    2.040000e+00
  SC4r  SX1r  1 4.100000e-01    2.200000e+00
  SC3r  SC2r  1 4.100000e-01    2.200000e+00
  SC3r  SC1r  1 4.100000e-01    2.200000e+00
  SC3r  SX4r  1 4.100000e-01    2.040000e+00
  SC3r  SX3r  1 4.100000e-01    2.040000e+00
  SC3r  SX2r  1 4.100000e-01    2.040000e+00
  SC3r  SX1r  1 4.100000e-01    2.200000e+00
  SC2r  SC1r  1 4.100000e-01    2.350000e+00
  SC2r  SX4r  1 4.100000e-01    1.750000e+00
  SC2r  SX3r  1 4.100000e-01    2.040000e+00
  SC2r  SX2r  1 4.100000e-01    2.040000e+00
  SC2r  SX1r  1 4.100000e-01    2.040000e+00
  SC1r  SX4r  1 4.100000e-01    1.750000e+00
  SC1r  SX3r  1 4.100000e-01    2.040000e+00
  SC1r  SX2r  1 4.100000e-01    2.040000e+00
  SC1r  SX1r  1 4.100000e-01    2.040000e+00
  SX4r  SX3r  1 4.100000e-01    2.200000e+00
  SX4r  SX2r  1 4.100000e-01    2.200000e+00
  SX4r  SX1r  1 4.100000e-01    2.200000e+00
  SX3r  SX2r  1 4.100000e-01    2.350000e+00
  SX3r  SX1r  1 4.100000e-01    2.350000e+00
  SX2r  SX1r  1 4.100000e-01    2.350000e+00
 SC6vr SC5vr  1 4.100000e-01    2.040000e+00
 SC6vr SC4vr  1 4.100000e-01    2.040000e+00
 SC6vr SC3vr  1 4.100000e-01    1.910000e+00
 SC6vr SC2vr  1 4.100000e-01    1.750000e+00
 SC6vr SC1vr  1 4.140000e-01    1.560000e+00
 SC6vr SX4vr  1 4.100000e-01    2.040000e+00
 SC6vr SX3vr  1 4.100000e-01    2.040000e+00
 SC6vr SX2vr  1 4.100000e-01    2.040000e+00
 SC6vr SX1vr  1 4.100000e-01    2.040000e+00
 SC6vr SC6er  1 4.100000e-01    2.840000e+00
 SC6vr SC5er  1 4.100000e-01    2.600000e+00
 SC6vr SC4er  1 4.100000e-01    2.600000e+00
 SC6vr SC3er  1 4.100000e-01    2.350000e+00
 SC6vr SC2er  1 4.100000e-01    2.200000e+00
 SC6vr SC1er  1 4.100000e-01    2.040000e+00
 SC6vr SX4er  1 4.100000e-01    2.600000e+00
 SC6vr SX3er  1 4.100000e-01    2.600000e+00
 SC6vr SX2er  1 4.100000e-01    2.600000e+00
 SC6vr SX1er  1 4.100000e-01    2.600000e+00
 SC5vr SC4vr  1 4.100000e-01    2.040000e+00
 SC5vr SC3vr  1 4.100000e-01    1.910000e+00
 SC5vr SC2vr  1 4.100000e-01    1.750000e+00
 SC5vr SC1vr  1 4.100000e-01    1.750000e+00
 SC5vr SX4vr  1 4.100000e-01    1.910000e+00
 SC5vr SX3vr  1 4.100000e-01    1.910000e+00
 SC5vr SX2vr  1 4.100000e-01    1.910000e+00
 SC5vr SX1vr  1 4.100000e-01    2.040000e+00
 SC5vr SC5er  1 4.100000e-01    2.600000e+00
 SC5vr SC4er  1 4.100000e-01    2.600000e+00
 SC5vr SC3er  1 4.100000e-01    2.350000e+00
 SC5vr SC2er  1 4.100000e-01    2.200000e+00
 SC5vr SC1er  1 4.100000e-01    2.200000e+00
 SC5vr SX4er  1 4.100000e-01    2.350000e+00
 SC5vr SX3er  1 4.100000e-01    2.350000e+00
 SC5vr SX2er  1 4.100000e-01    2.350000e+00
 SC5vr SX1er  1 4.100000e-01    2.600000e+00
 SC4vr SC3vr  1 4.100000e-01    2.040000e+00
 SC4vr SC2vr  1 4.100000e-01    1.910000e+00
 SC4vr SC1vr  1 4.100000e-01    1.750000e+00
 SC4vr SX4vr  1 4.100000e-01    1.910000e+00
 SC4vr SX3vr  1 4.100000e-01    1.910000e+00
 SC4vr SX2vr  1 4.100000e-01    1.910000e+00
 SC4vr SX1vr  1 4.100000e-01    2.040000e+00
 SC4vr SC4er  1 4.100000e-01    2.600000e+00
 SC4vr SC3er  1 4.100000e-01    2.600000e+00
 SC4vr SC2er  1 4.100000e-01    2.350000e+00
 SC4vr SC1er  1 4.100000e-01    2.200000e+00
 SC4vr SX4er  1 4.100000e-01    2.350000e+00
 SC4vr SX3er  1 4.100000e-01    2.350000e+00
 SC4vr SX2er  1 4.100000e-01    2.350000e+00
 SC4vr SX1er  1 4.100000e-01    2.600000e+00
 SC3vr SC2vr  1 4.100000e-01    2.040000e+00
 SC3vr SC1vr  1 4.100000e-01    2.040000e+00
 SC3vr SX4vr  1 4.100000e-01    1.910000e+00
 SC3vr SX3vr  1 4.100000e-01    1.910000e+00
 SC3vr SX2vr  1 4.100000e-01    1.910000e+00
 SC3vr SX1vr  1 4.100000e-01    2.040000e+00
 SC3vr SC3er  1 4.100000e-01    2.600000e+00
 SC3vr SC2er  1 4.100000e-01    2.600000e+00
 SC3vr SC1er  1 4.100000e-01    2.600000e+00
 SC3vr SX4er  1 4.100000e-01    2.350000e+00
 SC3vr SX3er  1 4.100000e-01    2.350000e+00
 SC3vr SX2er  1 4.100000e-01    2.350000e+00
 SC3vr SX1er  1 4.100000e-01    2.600000e+00
 SC2vr SC1vr  1 4.100000e-01    2.200000e+00
 SC2vr SX4vr  1 4.140000e-01    1.560000e+00
 SC2vr SX3vr  1 4.100000e-01    1.910000e+00
 SC2vr SX2vr  1 4.100000e-01    1.910000e+00
 SC2vr SX1vr  1 4.100000e-01    1.910000e+00
 SC2vr SC2er  1 4.100000e-01    2.600000e+00
 SC2vr SC1er  1 4.100000e-01    2.840000e+00
 SC2vr SX4er  1 4.100000e-01    2.040000e+00
 SC2vr SX3er  1 4.100000e-01    2.350000e+00
 SC2vr SX2er  1 4.100000e-01    2.350000e+00
 SC2vr SX1er  1 4.100000e-01    2.350000e+00
 SC1vr SX4vr  1 4.140000e-01    1.560000e+00
 SC1vr SX3vr  1 4.100000e-01    1.910000e+00
 SC1vr SX2vr  1 4.100000e-01    1.910000e+00
 SC1vr SX1vr  1 4.100000e-01    1.910000e+00
 SC1vr SC1er  1 4.100000e-01    2.600000e+00
 SC1vr SX4er  1 4.100000e-01    2.040000e+00
 SC1vr SX3er  1 4.100000e-01    2.350000e+00
 SC1vr SX2er  1 4.100000e-01    2.350000e+00
 SC1vr SX1er  1 4.100000e-01    2.350000e+00
 SX4vr SX3vr  1 4.100000e-01    2.040000e+00
 SX4vr SX2vr  1 4.100000e-01    2.040000e+00
 SX4vr SX1vr  1 4.100000e-01    2.040000e+00
 SX4vr SX4er  1 4.100000e-01    2.600000e+00
 SX4vr SX3er  1 4.100000e-01    2.600000e+00
 SX4vr SX2er  1 4.100000e-01    2.600000e+00
 SX4vr SX1er  1 4.100000e-01    2.600000e+00
 SX3vr SX2vr  1 4.100000e-01    2.200000e+00
 SX3vr SX1vr  1 4.100000e-01    2.200000e+00
 SX3vr SX3er  1 4.100000e-01    2.600000e+00
 SX3vr SX2er  1 4.100000e-01    2.840000e+00
 SX3vr SX1er  1 4.100000e-01    2.840000e+00
 SX2vr SX1vr  1 4.100000e-01    2.200000e+00
 SX2vr SX2er  1 4.100000e-01    2.840000e+00
 SX2vr SX1er  1 4.100000e-01    2.840000e+00
 SX1vr SX1er  1 4.100000e-01    3.070000e+00
 SC6er SC5vr  1 4.100000e-01    2.600000e+00
 SC6er SC4vr  1 4.100000e-01    2.600000e+00
 SC6er SC3vr  1 4.100000e-01    2.350000e+00
 SC6er SC2vr  1 4.100000e-01    2.200000e+00
 SC6er SC1vr  1 4.100000e-01    2.040000e+00
 SC6er SX4vr  1 4.100000e-01    2.600000e+00
 SC6er SX3vr  1 4.100000e-01    2.600000e+00
 SC6er SX2vr  1 4.100000e-01    2.600000e+00
 SC6er SX1vr  1 4.100000e-01    2.600000e+00
 SC6er SC5er  1 4.100000e-01    2.040000e+00
 SC6er SC4er  1 4.100000e-01    2.040000e+00
 SC6er SC3er  1 4.100000e-01    1.910000e+00
 SC6er SC2er  1 4.100000e-01    1.750000e+00
 SC6er SC1er  1 4.140000e-01    1.560000e+00
 SC6er SX4er  1 4.100000e-01    2.040000e+00
 SC6er SX3er  1 4.100000e-01    2.040000e+00
 SC6er SX2er  1 4.100000e-01    2.040000e+00
 SC6er SX1er  1 4.100000e-01    2.040000e+00
 SC5er SC4vr  1 4.100000e-01    2.600000e+00
 SC5er SC3vr  1 4.100000e-01    2.350000e+00
 SC5er SC2vr  1 4.100000e-01    2.200000e+00
 SC5er SC1vr  1 4.100000e-01    2.200000e+00
 SC5er SX4vr  1 4.100000e-01    2.350000e+00
 SC5er SX3vr  1 4.100000e-01    2.350000e+00
 SC5er SX2vr  1 4.100000e-01    2.350000e+00
 SC5er SX1vr  1 4.100000e-01    2.600000e+00
 SC5er SC4er  1 4.100000e-01    2.040000e+00
 SC5er SC3er  1 4.100000e-01    1.910000e+00
 SC5er SC2er  1 4.100000e-01    1.750000e+00
 SC5er SC1er  1 4.100000e-01    1.750000e+00
 SC5er SX4er  1 4.100000e-01    1.910000e+00
 SC5er SX3er  1 4.100000e-01    1.910000e+00
 SC5er SX2er  1 4.100000e-01    1.910000e+00
 SC5er SX1er  1 4.100000e-01    2.040000e+00
 SC4er SC3vr  1 4.100000e-01    2.600000e+00
 SC4er SC2vr  1 4.100000e-01    2.350000e+00
 SC4er SC1vr  1 4.100000e-01    2.200000e+00
 SC4er SX4vr  1 4.100000e-01    2.350000e+00
 SC4er SX3vr  1 4.100000e-01    2.350000e+00
 SC4er SX2vr  1 4.100000e-01    2.350000e+00
 SC4er SX1vr  1 4.100000e-01    2.600000e+00
 SC4er SC3er  1 4.100000e-01    2.040000e+00
 SC4er SC2er  1 4.100000e-01    1.910000e+00
 SC4er SC1er  1 4.100000e-01    1.750000e+00
 SC4er SX4er  1 4.100000e-01    1.910000e+00
 SC4er SX3er  1 4.100000e-01    1.910000e+00
 SC4er SX2er  1 4.100000e-01    1.910000e+00
 SC4er SX1er  1 4.100000e-01    2.040000e+00
 SC3er SC2vr  1 4.100000e-01    2.600000e+00
 SC3er SC1vr  1 4.100000e-01    2.600000e+00
 SC3er SX4vr  1 4.100000e-01    2.350000e+00
 SC3er SX3vr  1 4.100000e-01    2.350000e+00
 SC3er SX2vr  1 4.100000e-01    2.350000e+00
 SC3er SX1vr  1 4.100000e-01    2.600000e+00
 SC3er SC2er  1 4.100000e-01    2.040000e+00
 SC3er SC1er  1 4.100000e-01    2.040000e+00
 SC3er SX4er  1 4.100000e-01    1.910000e+00
 SC3er SX3er  1 4.100000e-01    1.910000e+00
 SC3er SX2er  1 4.100000e-01    1.910000e+00
 SC3er SX1er  1 4.100000e-01    2.040000e+00
 SC2er SC1vr  1 4.100000e-01    2.840000e+00
 SC2er SX4vr  1 4.100000e-01    2.040000e+00
 SC2er SX3vr  1 4.100000e-01    2.350000e+00
 SC2er SX2vr  1 4.100000e-01    2.350000e+00
 SC2er SX1vr  1 4.100000e-01    2.350000e+00
 SC2er SC1er  1 4.100000e-01    2.200000e+00
 SC2er SX4er  1 4.140000e-01    1.560000e+00
 SC2er SX3er  1 4.100000e-01    1.910000e+00
 SC2er SX2er  1 4.100000e-01    1.910000e+00
 SC2er SX1er  1 4.100000e-01    1.910000e+00
 SC1er SX4vr  1 4.100000e-01    2.040000e+00
 SC1er SX3vr  1 4.100000e-01    2.350000e+00
 SC1er SX2vr  1 4.100000e-01    2.350000e+00
 SC1er SX1vr  1 4.100000e-01    2.350000e+00
 SC1er SX4er  1 4.140000e-01    1.560000e+00
 SC1er SX3er  1 4.100000e-01    1.910000e+00
 SC1er SX2er  1 4.100000e-01    1.910000e+00
 SC1er SX1er  1 4.100000e-01    1.910000e+00
 SX4er SX3vr  1 4.100000e-01    2.600000e+00
 SX4er SX2vr  1 4.100000e-01    2.600000e+00
 SX4er SX1vr  1 4.100000e-01    2.600000e+00
 SX4er SX3er  1 4.100000e-01    2.040000e+00
 SX4er SX2er  1 4.100000e-01    2.040000e+00
 SX4er SX1er  1 4.100000e-01    2.040000e+00
 SX3er SX2vr  1 4.100000e-01    2.840000e+00
 SX3er SX1vr  1 4.100000e-01    2.840000e+00
 SX3er SX2er  1 4.100000e-01    2.200000e+00
 SX3er SX1er  1 4.100000e-01    2.200000e+00
 SX2er SX1vr  1 4.100000e-01    2.840000e+00
 SX2er SX1er  1 4.100000e-01    2.200000e+00
  SP6r  SC6r  1 4.100000e-01    1.910000e+00
  SP6r  SC5r  1 4.100000e-01    1.750000e+00
  SP6r  SC4r  1 4.140000e-01    1.560000e+00
  SP6r  SC3r  1 4.180000e-01    1.400000e+00
  SP6r  SC2r  1 4.180000e-01    1.400000e+00
  SP6r  SC1r  1 4.530000e-01    1.150000e+00
  SP6r  SX4r  1 4.100000e-01    2.040000e+00
  SP6r  SX3r  1 4.100000e-01    2.040000e+00
  SP6r  SX2r  1 4.100000e-01    1.910000e+00
  SP6r  SX1r  1 4.100000e-01    1.750000e+00
  SP5r  SC6r  1 4.100000e-01    1.910000e+00
  SP5r  SC5r  1 4.100000e-01    1.910000e+00
  SP5r  SC4r  1 4.100000e-01    1.750000e+00
  SP5r  SC3r  1 4.140000e-01    1.560000e+00
  SP5r  SC2r  1 4.140000e-01    1.560000e+00
  SP5r  SC1r  1 4.180000e-01    1.400000e+00
  SP5r  SX4r  1 4.100000e-01    2.200000e+00
  SP5r  SX3r  1 4.100000e-01    2.040000e+00
  SP5r  SX2r  1 4.100000e-01    2.040000e+00
  SP5r  SX1r  1 4.100000e-01    1.750000e+00
  SP4r  SC6r  1 4.100000e-01    2.040000e+00
  SP4r  SC5r  1 4.100000e-01    1.910000e+00
  SP4r  SC4r  1 4.100000e-01    1.750000e+00
  SP4r  SC3r  1 4.140000e-01    1.560000e+00
  SP4r  SC2r  1 4.140000e-01    1.560000e+00
  SP4r  SC1r  1 4.180000e-01    1.400000e+00
  SP4r  SX4r  1 4.100000e-01    2.200000e+00
  SP4r  SX3r  1 4.100000e-01    2.040000e+00
  SP4r  SX2r  1 4.100000e-01    2.040000e+00
  SP4r  SX1r  1 4.100000e-01    1.910000e+00
  SP3r  SC6r  1 4.100000e-01    2.200000e+00
  SP3r  SC5r  1 4.100000e-01    2.040000e+00
  SP3r  SC4r  1 4.100000e-01    1.910000e+00
  SP3r  SC3r  1 4.140000e-01    1.560000e+00
  SP3r  SC2r  1 4.140000e-01    1.560000e+00
  SP3r  SC1r  1 4.180000e-01    1.400000e+00
  SP3r  SX4r  1 4.100000e-01    2.200000e+00
  SP3r  SX3r  1 4.100000e-01    2.200000e+00
  SP3r  SX2r  1 4.100000e-01    2.040000e+00
  SP3r  SX1r  1 4.100000e-01    1.910000e+00
  SP2r  SC6r  1 4.100000e-01    2.200000e+00
  SP2r  SC5r  1 4.100000e-01    2.040000e+00
  SP2r  SC4r  1 4.100000e-01    1.910000e+00
  SP2r  SC3r  1 4.100000e-01    1.750000e+00
  SP2r  SC2r  1 4.100000e-01    1.750000e+00
  SP2r  SC1r  1 4.140000e-01    1.560000e+00
  SP2r  SX4r  1 4.100000e-01    2.200000e+00
  SP2r  SX3r  1 4.100000e-01    2.200000e+00
  SP2r  SX2r  1 4.100000e-01    2.040000e+00
  SP2r  SX1r  1 4.100000e-01    1.910000e+00
  SP1r  SC6r  1 4.100000e-01    2.200000e+00
  SP1r  SC5r  1 4.100000e-01    2.040000e+00
  SP1r  SC4r  1 4.100000e-01    1.910000e+00
  SP1r  SC3r  1 4.100000e-01    1.750000e+00
  SP1r  SC2r  1 4.100000e-01    1.750000e+00
  SP1r  SC1r  1 4.140000e-01    1.560000e+00
  SP1r  SX4r  1 4.100000e-01    2.200000e+00
  SP1r  SX3r  1 4.100000e-01    2.200000e+00
  SP1r  SX2r  1 4.100000e-01    2.040000e+00
  SP1r  SX1r  1 4.100000e-01    1.910000e+00
  SN6r  SC6r  1 4.100000e-01    2.350000e+00
  SN6r  SC5r  1 4.100000e-01    2.200000e+00
  SN6r  SC4r  1 4.100000e-01    2.040000e+00
  SN6r  SC3r  1 4.100000e-01    1.910000e+00
  SN6r  SC2r  1 4.100000e-01    1.910000e+00
  SN6r  SC1r  1 4.100000e-01    1.750000e+00
  SN6r  SX4r  1 4.100000e-01    2.350000e+00
  SN6r  SX3r  1 4.100000e-01    2.200000e+00
  SN6r  SX2r  1 4.100000e-01    2.040000e+00
  SN6r  SX1r  1 4.100000e-01    1.910000e+00
  SN5r  SC6r  1 4.100000e-01    2.350000e+00
  SN5r  SC5r  1 4.100000e-01    2.200000e+00
  SN5r  SC4r  1 4.100000e-01    2.040000e+00
  SN5r  SC3r  1 4.100000e-01    2.040000e+00
  SN5r  SC2r  1 4.100000e-01    1.910000e+00
  SN5r  SC1r  1 4.100000e-01    1.750000e+00
  SN5r  SX4r  1 4.100000e-01    2.600000e+00
  SN5r  SX3r  1 4.100000e-01    2.350000e+00
  SN5r  SX2r  1 4.100000e-01    2.200000e+00
  SN5r  SX1r  1 4.100000e-01    2.040000e+00
  SN4r  SC6r  1 4.100000e-01    2.350000e+00
  SN4r  SC5r  1 4.100000e-01    2.200000e+00
  SN4r  SC4r  1 4.100000e-01    2.200000e+00
  SN4r  SC3r  1 4.100000e-01    2.040000e+00
  SN4r  SC2r  1 4.100000e-01    1.910000e+00
  SN4r  SC1r  1 4.100000e-01    1.750000e+00
  SN4r  SX4r  1 4.100000e-01    2.840000e+00
  SN4r  SX3r  1 4.100000e-01    2.600000e+00
  SN4r  SX2r  1 4.100000e-01    2.200000e+00
  SN4r  SX1r  1 4.100000e-01    2.040000e+00
  SN3r  SC6r  1 4.100000e-01    2.350000e+00
  SN3r  SC5r  1 4.100000e-01    2.200000e+00
  SN3r  SC4r  1 4.100000e-01    2.200000e+00
  SN3r  SC3r  1 4.100000e-01    2.040000e+00
  SN3r  SC2r  1 4.100000e-01    2.040000e+00
  SN3r  SC1r  1 4.100000e-01    1.910000e+00
  SN3r  SX4r  1 4.100000e-01    2.600000e+00
  SN3r  SX3r  1 4.100000e-01    2.350000e+00
  SN3r  SX2r  1 4.100000e-01    2.200000e+00
  SN3r  SX1r  1 4.100000e-01    2.200000e+00
  SN2r  SC6r  1 4.100000e-01    2.350000e+00
  SN2r  SC5r  1 4.100000e-01    2.200000e+00
  SN2r  SC4r  1 4.100000e-01    2.200000e+00
  SN2r  SC3r  1 4.100000e-01    2.200000e+00
  SN2r  SC2r  1 4.100000e-01    2.040000e+00
  SN2r  SC1r  1 4.100000e-01    1.910000e+00
  SN2r  SX4r  1 4.100000e-01    2.600000e+00
  SN2r  SX3r  1 4.100000e-01    2.350000e+00
  SN2r  SX2r  1 4.100000e-01    2.200000e+00
  SN2r  SX1r  1 4.100000e-01    2.200000e+00
  SN1r  SC6r  1 4.100000e-01    2.600000e+00
  SN1r  SC5r  1 4.100000e-01    2.350000e+00
  SN1r  SC4r  1 4.100000e-01    2.350000e+00
  SN1r  SC3r  1 4.100000e-01    2.200000e+00
  SN1r  SC2r  1 4.100000e-01    2.040000e+00
  SN1r  SC1r  1 4.100000e-01    1.910000e+00
  SN1r  SX4r  1 4.100000e-01    2.350000e+00
  SN1r  SX3r  1 4.100000e-01    2.350000e+00
  SN1r  SX2r  1 4.100000e-01    2.200000e+00
  SN1r  SX1r  1 4.100000e-01    2.200000e+00
 SP6dr SC6vr  1 4.100000e-01    1.750000e+00
 SP6dr SC5vr  1 4.140000e-01    1.560000e+00
 SP6dr SC4vr  1 4.180000e-01    1.400000e+00
 SP6dr SC3vr  1 4.210000e-01    1.250000e+00
 SP6dr SC2vr  1 4.210000e-01    1.250000e+00
 SP6dr SC1vr  1 4.960000e-01    1.050000e+00
 SP6dr SX4vr  1 4.100000e-01    1.910000e+00
 SP6dr SX3vr  1 4.100000e-01    1.910000e+00
 SP6dr SX2vr  1 4.100000e-01    1.750000e+00
 SP6dr SX1vr  1 4.140000e-01    1.560000e+00
 SP6dr SC6er  1 4.100000e-01    2.040000e+00
 SP6dr SC5er  1 4.100000e-01    1.910000e+00
 SP6dr SC4er  1 4.100000e-01    1.750000e+00
 SP6dr SC3er  1 4.140000e-01    1.560000e+00
 SP6dr SC2er  1 4.140000e-01    1.560000e+00
 SP6dr SC1er  1 4.210000e-01    1.250000e+00
 SP6dr SX4er  1 4.100000e-01    2.200000e+00
 SP6dr SX3er  1 4.100000e-01    2.200000e+00
 SP6dr SX2er  1 4.100000e-01    2.040000e+00
 SP6dr SX1er  1 4.100000e-01    1.910000e+00
 SP5dr SC6vr  1 4.100000e-01    1.750000e+00
 SP5dr SC5vr  1 4.100000e-01    1.750000e+00
 SP5dr SC4vr  1 4.140000e-01    1.560000e+00
 SP5dr SC3vr  1 4.180000e-01    1.400000e+00
 SP5dr SC2vr  1 4.180000e-01    1.400000e+00
 SP5dr SC1vr  1 4.210000e-01    1.250000e+00
 SP5dr SX4vr  1 4.100000e-01    2.040000e+00
 SP5dr SX3vr  1 4.100000e-01    1.910000e+00
 SP5dr SX2vr  1 4.100000e-01    1.910000e+00
 SP5dr SX1vr  1 4.140000e-01    1.560000e+00
 SP5dr SC6er  1 4.100000e-01    2.040000e+00
 SP5dr SC5er  1 4.100000e-01    2.040000e+00
 SP5dr SC4er  1 4.100000e-01    1.910000e+00
 SP5dr SC3er  1 4.100000e-01    1.750000e+00
 SP5dr SC2er  1 4.100000e-01    1.750000e+00
 SP5dr SC1er  1 4.140000e-01    1.560000e+00
 SP5dr SX4er  1 4.100000e-01    2.350000e+00
 SP5dr SX3er  1 4.100000e-01    2.200000e+00
 SP5dr SX2er  1 4.100000e-01    2.200000e+00
 SP5dr SX1er  1 4.100000e-01    1.910000e+00
 SP4dr SC6vr  1 4.100000e-01    1.910000e+00
 SP4dr SC5vr  1 4.100000e-01    1.750000e+00
 SP4dr SC4vr  1 4.140000e-01    1.560000e+00
 SP4dr SC3vr  1 4.180000e-01    1.400000e+00
 SP4dr SC2vr  1 4.180000e-01    1.400000e+00
 SP4dr SC1vr  1 4.210000e-01    1.250000e+00
 SP4dr SX4vr  1 4.100000e-01    2.040000e+00
 SP4dr SX3vr  1 4.100000e-01    1.910000e+00
 SP4dr SX2vr  1 4.100000e-01    1.910000e+00
 SP4dr SX1vr  1 4.100000e-01    1.750000e+00
 SP4dr SC6er  1 4.100000e-01    2.200000e+00
 SP4dr SC5er  1 4.100000e-01    2.040000e+00
 SP4dr SC4er  1 4.100000e-01    1.910000e+00
 SP4dr SC3er  1 4.100000e-01    1.750000e+00
 SP4dr SC2er  1 4.100000e-01    1.750000e+00
 SP4dr SC1er  1 4.140000e-01    1.560000e+00
 SP4dr SX4er  1 4.100000e-01    2.350000e+00
 SP4dr SX3er  1 4.100000e-01    2.200000e+00
 SP4dr SX2er  1 4.100000e-01    2.200000e+00
 SP4dr SX1er  1 4.100000e-01    2.040000e+00
 SP3dr SC6vr  1 4.100000e-01    2.040000e+00
 SP3dr SC5vr  1 4.100000e-01    1.910000e+00
 SP3dr SC4vr  1 4.100000e-01    1.750000e+00
 SP3dr SC3vr  1 4.180000e-01    1.400000e+00
 SP3dr SC2vr  1 4.180000e-01    1.400000e+00
 SP3dr SC1vr  1 4.210000e-01    1.250000e+00
 SP3dr SX4vr  1 4.100000e-01    2.040000e+00
 SP3dr SX3vr  1 4.100000e-01    2.040000e+00
 SP3dr SX2vr  1 4.100000e-01    1.910000e+00
 SP3dr SX1vr  1 4.100000e-01    1.750000e+00
 SP3dr SC6er  1 4.100000e-01    2.350000e+00
 SP3dr SC5er  1 4.100000e-01    2.200000e+00
 SP3dr SC4er  1 4.100000e-01    2.040000e+00
 SP3dr SC3er  1 4.100000e-01    1.750000e+00
 SP3dr SC2er  1 4.100000e-01    1.750000e+00
 SP3dr SC1er  1 4.140000e-01    1.560000e+00
 SP3dr SX4er  1 4.100000e-01    2.350000e+00
 SP3dr SX3er  1 4.100000e-01    2.350000e+00
 SP3dr SX2er  1 4.100000e-01    2.200000e+00
 SP3dr SX1er  1 4.100000e-01    2.040000e+00
 SP2dr SC6vr  1 4.100000e-01    2.040000e+00
 SP2dr SC5vr  1 4.100000e-01    1.910000e+00
 SP2dr SC4vr  1 4.100000e-01    1.750000e+00
 SP2dr SC3vr  1 4.140000e-01    1.560000e+00
 SP2dr SC2vr  1 4.140000e-01    1.560000e+00
 SP2dr SC1vr  1 4.180000e-01    1.400000e+00
 SP2dr SX4vr  1 4.100000e-01    2.040000e+00
 SP2dr SX3vr  1 4.100000e-01    2.040000e+00
 SP2dr SX2vr  1 4.100000e-01    1.910000e+00
 SP2dr SX1vr  1 4.100000e-01    1.750000e+00
 SP2dr SC6er  1 4.100000e-01    2.350000e+00
 SP2dr SC5er  1 4.100000e-01    2.200000e+00
 SP2dr SC4er  1 4.100000e-01    2.040000e+00
 SP2dr SC3er  1 4.100000e-01    1.910000e+00
 SP2dr SC2er  1 4.100000e-01    1.910000e+00
 SP2dr SC1er  1 4.100000e-01    1.750000e+00
 SP2dr SX4er  1 4.100000e-01    2.350000e+00
 SP2dr SX3er  1 4.100000e-01    2.350000e+00
 SP2dr SX2er  1 4.100000e-01    2.200000e+00
 SP2dr SX1er  1 4.100000e-01    2.040000e+00
 SP1dr SC6vr  1 4.100000e-01    2.040000e+00
 SP1dr SC5vr  1 4.100000e-01    1.910000e+00
 SP1dr SC4vr  1 4.100000e-01    1.750000e+00
 SP1dr SC3vr  1 4.140000e-01    1.560000e+00
 SP1dr SC2vr  1 4.140000e-01    1.560000e+00
 SP1dr SC1vr  1 4.180000e-01    1.400000e+00
 SP1dr SX4vr  1 4.100000e-01    2.040000e+00
 SP1dr SX3vr  1 4.100000e-01    2.040000e+00
 SP1dr SX2vr  1 4.100000e-01    1.910000e+00
 SP1dr SX1vr  1 4.100000e-01    1.750000e+00
 SP1dr SC6er  1 4.100000e-01    2.350000e+00
 SP1dr SC5er  1 4.100000e-01    2.200000e+00
 SP1dr SC4er  1 4.100000e-01    2.040000e+00
 SP1dr SC3er  1 4.100000e-01    1.910000e+00
 SP1dr SC2er  1 4.100000e-01    1.910000e+00
 SP1dr SC1er  1 4.100000e-01    1.750000e+00
 SP1dr SX4er  1 4.100000e-01    2.350000e+00
 SP1dr SX3er  1 4.100000e-01    2.350000e+00
 SP1dr SX2er  1 4.100000e-01    2.200000e+00
 SP1dr SX1er  1 4.100000e-01    2.040000e+00
 SN6dr SC6vr  1 4.100000e-01    2.200000e+00
 SN6dr SC5vr  1 4.100000e-01    2.040000e+00
 SN6dr SC4vr  1 4.100000e-01    1.910000e+00
 SN6dr SC3vr  1 4.100000e-01    1.750000e+00
 SN6dr SC2vr  1 4.100000e-01    1.750000e+00
 SN6dr SC1vr  1 4.140000e-01    1.560000e+00
 SN6dr SX4vr  1 4.100000e-01    2.200000e+00
 SN6dr SX3vr  1 4.100000e-01    2.040000e+00
 SN6dr SX2vr  1 4.100000e-01    1.910000e+00
 SN6dr SX1vr  1 4.100000e-01    1.750000e+00
 SN6dr SC6er  1 4.100000e-01    2.600000e+00
 SN6dr SC5er  1 4.100000e-01    2.350000e+00
 SN6dr SC4er  1 4.100000e-01    2.200000e+00
 SN6dr SC3er  1 4.100000e-01    2.040000e+00
 SN6dr SC2er  1 4.100000e-01    2.040000e+00
 SN6dr SC1er  1 4.100000e-01    1.910000e+00
 SN6dr SX4er  1 4.100000e-01    2.600000e+00
 SN6dr SX3er  1 4.100000e-01    2.350000e+00
 SN6dr SX2er  1 4.100000e-01    2.200000e+00
 SN6dr SX1er  1 4.100000e-01    2.040000e+00
 SN5dr SC6vr  1 4.100000e-01    2.200000e+00
 SN5dr SC5vr  1 4.100000e-01    2.040000e+00
 SN5dr SC4vr  1 4.100000e-01    1.910000e+00
 SN5dr SC3vr  1 4.100000e-01    1.910000e+00
 SN5dr SC2vr  1 4.100000e-01    1.750000e+00
 SN5dr SC1vr  1 4.140000e-01    1.560000e+00
 SN5dr SX4vr  1 4.100000e-01    2.350000e+00
 SN5dr SX3vr  1 4.100000e-01    2.200000e+00
 SN5dr SX2vr  1 4.100000e-01    2.040000e+00
 SN5dr SX1vr  1 4.100000e-01    1.910000e+00
 SN5dr SC6er  1 4.100000e-01    2.600000e+00
 SN5dr SC5er  1 4.100000e-01    2.350000e+00
 SN5dr SC4er  1 4.100000e-01    2.200000e+00
 SN5dr SC3er  1 4.100000e-01    2.200000e+00
 SN5dr SC2er  1 4.100000e-01    2.040000e+00
 SN5dr SC1er  1 4.100000e-01    1.910000e+00
 SN5dr SX4er  1 4.100000e-01    2.840000e+00
 SN5dr SX3er  1 4.100000e-01    2.600000e+00
 SN5dr SX2er  1 4.100000e-01    2.350000e+00
 SN5dr SX1er  1 4.100000e-01    2.200000e+00
 SN4dr SC6vr  1 4.100000e-01    2.200000e+00
 SN4dr SC5vr  1 4.100000e-01    2.040000e+00
 SN4dr SC4vr  1 4.100000e-01    2.040000e+00
 SN4dr SC3vr  1 4.100000e-01    1.910000e+00
 SN4dr SC2vr  1 4.100000e-01    1.750000e+00
 SN4dr SC1vr  1 4.140000e-01    1.560000e+00
 SN4dr SX4vr  1 4.100000e-01    2.600000e+00
 SN4dr SX3vr  1 4.100000e-01    2.350000e+00
 SN4dr SX2vr  1 4.100000e-01    2.040000e+00
 SN4dr SX1vr  1 4.100000e-01    1.910000e+00
 SN4dr SC6er  1 4.100000e-01    2.600000e+00
 SN4dr SC5er  1 4.100000e-01    2.350000e+00
 SN4dr SC4er  1 4.100000e-01    2.350000e+00
 SN4dr SC3er  1 4.100000e-01    2.200000e+00
 SN4dr SC2er  1 4.100000e-01    2.040000e+00
 SN4dr SC1er  1 4.100000e-01    1.910000e+00
 SN4dr SX4er  1 4.100000e-01    3.070000e+00
 SN4dr SX3er  1 4.100000e-01    2.840000e+00
 SN4dr SX2er  1 4.100000e-01    2.350000e+00
 SN4dr SX1er  1 4.100000e-01    2.200000e+00
 SN3dr SC6vr  1 4.100000e-01    2.200000e+00
 SN3dr SC5vr  1 4.100000e-01    2.040000e+00
 SN3dr SC4vr  1 4.100000e-01    2.040000e+00
 SN3dr SC3vr  1 4.100000e-01    1.910000e+00
 SN3dr SC2vr  1 4.100000e-01    1.910000e+00
 SN3dr SC1vr  1 4.100000e-01    1.750000e+00
 SN3dr SX4vr  1 4.100000e-01    2.350000e+00
 SN3dr SX3vr  1 4.100000e-01    2.200000e+00
 SN3dr SX2vr  1 4.100000e-01    2.040000e+00
 SN3dr SX1vr  1 4.100000e-01    2.040000e+00
 SN3dr SC6er  1 4.100000e-01    2.600000e+00
 SN3dr SC5er  1 4.100000e-01    2.350000e+00
 SN3dr SC4er  1 4.100000e-01    2.350000e+00
 SN3dr SC3er  1 4.100000e-01    2.200000e+00
 SN3dr SC2er  1 4.100000e-01    2.200000e+00
 SN3dr SC1er  1 4.100000e-01    2.040000e+00
 SN3dr SX4er  1 4.100000e-01    2.840000e+00
 SN3dr SX3er  1 4.100000e-01    2.600000e+00
 SN3dr SX2er  1 4.100000e-01    2.350000e+00
 SN3dr SX1er  1 4.100000e-01    2.350000e+00
 SN2dr SC6vr  1 4.100000e-01    2.200000e+00
 SN2dr SC5vr  1 4.100000e-01    2.040000e+00
 SN2dr SC4vr  1 4.100000e-01    2.040000e+00
 SN2dr SC3vr  1 4.100000e-01    2.040000e+00
 SN2dr SC2vr  1 4.100000e-01    1.910000e+00
 SN2dr SC1vr  1 4.100000e-01    1.750000e+00
 SN2dr SX4vr  1 4.100000e-01    2.350000e+00
 SN2dr SX3vr  1 4.100000e-01    2.200000e+00
 SN2dr SX2vr  1 4.100000e-01    2.040000e+00
 SN2dr SX1vr  1 4.100000e-01    2.040000e+00
 SN2dr SC6er  1 4.100000e-01    2.600000e+00
 SN2dr SC5er  1 4.100000e-01    2.350000e+00
 SN2dr SC4er  1 4.100000e-01    2.350000e+00
 SN2dr SC3er  1 4.100000e-01    2.350000e+00
 SN2dr SC2er  1 4.100000e-01    2.200000e+00
 SN2dr SC1er  1 4.100000e-01    2.040000e+00
 SN2dr SX4er  1 4.100000e-01    2.840000e+00
 SN2dr SX3er  1 4.100000e-01    2.600000e+00
 SN2dr SX2er  1 4.100000e-01    2.350000e+00
 SN2dr SX1er  1 4.100000e-01    2.350000e+00
 SN1dr SC6vr  1 4.100000e-01    2.350000e+00
 SN1dr SC5vr  1 4.100000e-01    2.200000e+00
 SN1dr SC4vr  1 4.100000e-01    2.200000e+00
 SN1dr SC3vr  1 4.100000e-01    2.040000e+00
 SN1dr SC2vr  1 4.100000e-01    1.910000e+00
 SN1dr SC1vr  1 4.100000e-01    1.750000e+00
 SN1dr SX4vr  1 4.100000e-01    2.200000e+00
 SN1dr SX3vr  1 4.100000e-01    2.200000e+00
 SN1dr SX2vr  1 4.100000e-01    2.040000e+00
 SN1dr SX1vr  1 4.100000e-01    2.040000e+00
 SN1dr SC6er  1 4.100000e-01    2.840000e+00
 SN1dr SC5er  1 4.100000e-01    2.600000e+00
 SN1dr SC4er  1 4.100000e-01    2.600000e+00
 SN1dr SC3er  1 4.100000e-01    2.350000e+00
 SN1dr SC2er  1 4.100000e-01    2.200000e+00
 SN1dr SC1er  1 4.100000e-01    2.040000e+00
 SN1dr SX4er  1 4.100000e-01    2.600000e+00
 SN1dr SX3er  1 4.100000e-01    2.600000e+00
 SN1dr SX2er  1 4.100000e-01    2.350000e+00
 SN1dr SX1er  1 4.100000e-01    2.350000e+00
 SP6ar SC6vr  1 4.100000e-01    2.040000e+00
 SP6ar SC5vr  1 4.100000e-01    1.910000e+00
 SP6ar SC4vr  1 4.100000e-01    1.750000e+00
 SP6ar SC3vr  1 4.140000e-01    1.560000e+00
 SP6ar SC2vr  1 4.140000e-01    1.560000e+00
 SP6ar SC1vr  1 4.210000e-01    1.250000e+00
 SP6ar SX4vr  1 4.100000e-01    2.200000e+00
 SP6ar SX3vr  1 4.100000e-01    2.200000e+00
 SP6ar SX2vr  1 4.100000e-01    2.040000e+00
 SP6ar SX1vr  1 4.100000e-01    1.910000e+00
 SP6ar SC6er  1 4.100000e-01    1.750000e+00
 SP6ar SC5er  1 4.140000e-01    1.560000e+00
 SP6ar SC4er  1 4.180000e-01    1.400000e+00
 SP6ar SC3er  1 4.210000e-01    1.250000e+00
 SP6ar SC2er  1 4.210000e-01    1.250000e+00
 SP6ar SC1er  1 4.960000e-01    1.050000e+00
 SP6ar SX4er  1 4.100000e-01    1.910000e+00
 SP6ar SX3er  1 4.100000e-01    1.910000e+00
 SP6ar SX2er  1 4.100000e-01    1.750000e+00
 SP6ar SX1er  1 4.140000e-01    1.560000e+00
 SP5ar SC6vr  1 4.100000e-01    2.040000e+00
 SP5ar SC5vr  1 4.100000e-01    2.040000e+00
 SP5ar SC4vr  1 4.100000e-01    1.910000e+00
 SP5ar SC3vr  1 4.100000e-01    1.750000e+00
 SP5ar SC2vr  1 4.100000e-01    1.750000e+00
 SP5ar SC1vr  1 4.140000e-01    1.560000e+00
 SP5ar SX4vr  1 4.100000e-01    2.350000e+00
 SP5ar SX3vr  1 4.100000e-01    2.200000e+00
 SP5ar SX2vr  1 4.100000e-01    2.200000e+00
 SP5ar SX1vr  1 4.100000e-01    1.910000e+00
 SP5ar SC6er  1 4.100000e-01    1.750000e+00
 SP5ar SC5er  1 4.100000e-01    1.750000e+00
 SP5ar SC4er  1 4.140000e-01    1.560000e+00
 SP5ar SC3er  1 4.180000e-01    1.400000e+00
 SP5ar SC2er  1 4.180000e-01    1.400000e+00
 SP5ar SC1er  1 4.210000e-01    1.250000e+00
 SP5ar SX4er  1 4.100000e-01    2.040000e+00
 SP5ar SX3er  1 4.100000e-01    1.910000e+00
 SP5ar SX2er  1 4.100000e-01    1.910000e+00
 SP5ar SX1er  1 4.140000e-01    1.560000e+00
 SP4ar SC6vr  1 4.100000e-01    2.200000e+00
 SP4ar SC5vr  1 4.100000e-01    2.040000e+00
 SP4ar SC4vr  1 4.100000e-01    1.910000e+00
 SP4ar SC3vr  1 4.100000e-01    1.750000e+00
 SP4ar SC2vr  1 4.100000e-01    1.750000e+00
 SP4ar SC1vr  1 4.140000e-01    1.560000e+00
 SP4ar SX4vr  1 4.100000e-01    2.350000e+00
 SP4ar SX3vr  1 4.100000e-01    2.200000e+00
 SP4ar SX2vr  1 4.100000e-01    2.200000e+00
 SP4ar SX1vr  1 4.100000e-01    2.040000e+00
 SP4ar SC6er  1 4.100000e-01    1.910000e+00
 SP4ar SC5er  1 4.100000e-01    1.750000e+00
 SP4ar SC4er  1 4.140000e-01    1.560000e+00
 SP4ar SC3er  1 4.180000e-01    1.400000e+00
 SP4ar SC2er  1 4.180000e-01    1.400000e+00
 SP4ar SC1er  1 4.210000e-01    1.250000e+00
 SP4ar SX4er  1 4.100000e-01    2.040000e+00
 SP4ar SX3er  1 4.100000e-01    1.910000e+00
 SP4ar SX2er  1 4.100000e-01    1.910000e+00
 SP4ar SX1er  1 4.100000e-01    1.750000e+00
 SP3ar SC6vr  1 4.100000e-01    2.350000e+00
 SP3ar SC5vr  1 4.100000e-01    2.200000e+00
 SP3ar SC4vr  1 4.100000e-01    2.040000e+00
 SP3ar SC3vr  1 4.100000e-01    1.750000e+00
 SP3ar SC2vr  1 4.100000e-01    1.750000e+00
 SP3ar SC1vr  1 4.140000e-01    1.560000e+00
 SP3ar SX4vr  1 4.100000e-01    2.350000e+00
 SP3ar SX3vr  1 4.100000e-01    2.350000e+00
 SP3ar SX2vr  1 4.100000e-01    2.200000e+00
 SP3ar SX1vr  1 4.100000e-01    2.040000e+00
 SP3ar SC6er  1 4.100000e-01    2.040000e+00
 SP3ar SC5er  1 4.100000e-01    1.910000e+00
 SP3ar SC4er  1 4.100000e-01    1.750000e+00
 SP3ar SC3er  1 4.180000e-01    1.400000e+00
 SP3ar SC2er  1 4.180000e-01    1.400000e+00
 SP3ar SC1er  1 4.210000e-01    1.250000e+00
 SP3ar SX4er  1 4.100000e-01    2.040000e+00
 SP3ar SX3er  1 4.100000e-01    2.040000e+00
 SP3ar SX2er  1 4.100000e-01    1.910000e+00
 SP3ar SX1er  1 4.100000e-01    1.750000e+00
 SP2ar SC6vr  1 4.100000e-01    2.350000e+00
 SP2ar SC5vr  1 4.100000e-01    2.200000e+00
 SP2ar SC4vr  1 4.100000e-01    2.040000e+00
 SP2ar SC3vr  1 4.100000e-01    1.910000e+00
 SP2ar SC2vr  1 4.100000e-01    1.910000e+00
 SP2ar SC1vr  1 4.100000e-01    1.750000e+00
 SP2ar SX4vr  1 4.100000e-01    2.350000e+00
 SP2ar SX3vr  1 4.100000e-01    2.350000e+00
 SP2ar SX2vr  1 4.100000e-01    2.200000e+00
 SP2ar SX1vr  1 4.100000e-01    2.040000e+00
 SP2ar SC6er  1 4.100000e-01    2.040000e+00
 SP2ar SC5er  1 4.100000e-01    1.910000e+00
 SP2ar SC4er  1 4.100000e-01    1.750000e+00
 SP2ar SC3er  1 4.140000e-01    1.560000e+00
 SP2ar SC2er  1 4.140000e-01    1.560000e+00
 SP2ar SC1er  1 4.180000e-01    1.400000e+00
 SP2ar SX4er  1 4.100000e-01    2.040000e+00
 SP2ar SX3er  1 4.100000e-01    2.040000e+00
 SP2ar SX2er  1 4.100000e-01    1.910000e+00
 SP2ar SX1er  1 4.100000e-01    1.750000e+00
 SP1ar SC6vr  1 4.100000e-01    2.350000e+00
 SP1ar SC5vr  1 4.100000e-01    2.200000e+00
 SP1ar SC4vr  1 4.100000e-01    2.040000e+00
 SP1ar SC3vr  1 4.100000e-01    1.910000e+00
 SP1ar SC2vr  1 4.100000e-01    1.910000e+00
 SP1ar SC1vr  1 4.100000e-01    1.750000e+00
 SP1ar SX4vr  1 4.100000e-01    2.350000e+00
 SP1ar SX3vr  1 4.100000e-01    2.350000e+00
 SP1ar SX2vr  1 4.100000e-01    2.200000e+00
 SP1ar SX1vr  1 4.100000e-01    2.040000e+00
 SP1ar SC6er  1 4.100000e-01    2.040000e+00
 SP1ar SC5er  1 4.100000e-01    1.910000e+00
 SP1ar SC4er  1 4.100000e-01    1.750000e+00
 SP1ar SC3er  1 4.140000e-01    1.560000e+00
 SP1ar SC2er  1 4.140000e-01    1.560000e+00
 SP1ar SC1er  1 4.180000e-01    1.400000e+00
 SP1ar SX4er  1 4.100000e-01    2.040000e+00
 SP1ar SX3er  1 4.100000e-01    2.040000e+00
 SP1ar SX2er  1 4.100000e-01    1.910000e+00
 SP1ar SX1er  1 4.100000e-01    1.750000e+00
 SN6ar SC6vr  1 4.100000e-01    2.600000e+00
 SN6ar SC5vr  1 4.100000e-01    2.350000e+00
 SN6ar SC4vr  1 4.100000e-01    2.200000e+00
 SN6ar SC3vr  1 4.100000e-01    2.040000e+00
 SN6ar SC2vr  1 4.100000e-01    2.040000e+00
 SN6ar SC1vr  1 4.100000e-01    1.910000e+00
 SN6ar SX4vr  1 4.100000e-01    2.600000e+00
 SN6ar SX3vr  1 4.100000e-01    2.350000e+00
 SN6ar SX2vr  1 4.100000e-01    2.200000e+00
 SN6ar SX1vr  1 4.100000e-01    2.040000e+00
 SN6ar SC6er  1 4.100000e-01    2.200000e+00
 SN6ar SC5er  1 4.100000e-01    2.040000e+00
 SN6ar SC4er  1 4.100000e-01    1.910000e+00
 SN6ar SC3er  1 4.100000e-01    1.750000e+00
 SN6ar SC2er  1 4.100000e-01    1.750000e+00
 SN6ar SC1er  1 4.140000e-01    1.560000e+00
 SN6ar SX4er  1 4.100000e-01    2.200000e+00
 SN6ar SX3er  1 4.100000e-01    2.040000e+00
 SN6ar SX2er  1 4.100000e-01    1.910000e+00
 SN6ar SX1er  1 4.100000e-01    1.750000e+00
 SN5ar SC6vr  1 4.100000e-01    2.600000e+00
 SN5ar SC5vr  1 4.100000e-01    2.350000e+00
 SN5ar SC4vr  1 4.100000e-01    2.200000e+00
 SN5ar SC3vr  1 4.100000e-01    2.200000e+00
 SN5ar SC2vr  1 4.100000e-01    2.040000e+00
 SN5ar SC1vr  1 4.100000e-01    1.910000e+00
 SN5ar SX4vr  1 4.100000e-01    2.840000e+00
 SN5ar SX3vr  1 4.100000e-01    2.600000e+00
 SN5ar SX2vr  1 4.100000e-01    2.350000e+00
 SN5ar SX1vr  1 4.100000e-01    2.200000e+00
 SN5ar SC6er  1 4.100000e-01    2.200000e+00
 SN5ar SC5er  1 4.100000e-01    2.040000e+00
 SN5ar SC4er  1 4.100000e-01    1.910000e+00
 SN5ar SC3er  1 4.100000e-01    1.910000e+00
 SN5ar SC2er  1 4.100000e-01    1.750000e+00
 SN5ar SC1er  1 4.140000e-01    1.560000e+00
 SN5ar SX4er  1 4.100000e-01    2.350000e+00
 SN5ar SX3er  1 4.100000e-01    2.200000e+00
 SN5ar SX2er  1 4.100000e-01    2.040000e+00
 SN5ar SX1er  1 4.100000e-01    1.910000e+00
 SN4ar SC6vr  1 4.100000e-01    2.600000e+00
 SN4ar SC5vr  1 4.100000e-01    2.350000e+00
 SN4ar SC4vr  1 4.100000e-01    2.350000e+00
 SN4ar SC3vr  1 4.100000e-01    2.200000e+00
 SN4ar SC2vr  1 4.100000e-01    2.040000e+00
 SN4ar SC1vr  1 4.100000e-01    1.910000e+00
 SN4ar SX4vr  1 4.100000e-01    3.070000e+00
 SN4ar SX3vr  1 4.100000e-01    2.840000e+00
 SN4ar SX2vr  1 4.100000e-01    2.350000e+00
 SN4ar SX1vr  1 4.100000e-01    2.200000e+00
 SN4ar SC6er  1 4.100000e-01    2.200000e+00
 SN4ar SC5er  1 4.100000e-01    2.040000e+00
 SN4ar SC4er  1 4.100000e-01    2.040000e+00
 SN4ar SC3er  1 4.100000e-01    1.910000e+00
 SN4ar SC2er  1 4.100000e-01    1.750000e+00
 SN4ar SC1er  1 4.140000e-01    1.560000e+00
 SN4ar SX4er  1 4.100000e-01    2.600000e+00
 SN4ar SX3er  1 4.100000e-01    2.350000e+00
 SN4ar SX2er  1 4.100000e-01    2.040000e+00
 SN4ar SX1er  1 4.100000e-01    1.910000e+00
 SN3ar SC6vr  1 4.100000e-01    2.600000e+00
 SN3ar SC5vr  1 4.100000e-01    2.350000e+00
 SN3ar SC4vr  1 4.100000e-01    2.350000e+00
 SN3ar SC3vr  1 4.100000e-01    2.200000e+00
 SN3ar SC2vr  1 4.100000e-01    2.200000e+00
 SN3ar SC1vr  1 4.100000e-01    2.040000e+00
 SN3ar SX4vr  1 4.100000e-01    2.840000e+00
 SN3ar SX3vr  1 4.100000e-01    2.600000e+00
 SN3ar SX2vr  1 4.100000e-01    2.350000e+00
 SN3ar SX1vr  1 4.100000e-01    2.350000e+00
 SN3ar SC6er  1 4.100000e-01    2.200000e+00
 SN3ar SC5er  1 4.100000e-01    2.040000e+00
 SN3ar SC4er  1 4.100000e-01    2.040000e+00
 SN3ar SC3er  1 4.100000e-01    1.910000e+00
 SN3ar SC2er  1 4.100000e-01    1.910000e+00
 SN3ar SC1er  1 4.100000e-01    1.750000e+00
 SN3ar SX4er  1 4.100000e-01    2.350000e+00
 SN3ar SX3er  1 4.100000e-01    2.200000e+00
 SN3ar SX2er  1 4.100000e-01    2.040000e+00
 SN3ar SX1er  1 4.100000e-01    2.040000e+00
 SN2ar SC6vr  1 4.100000e-01    2.600000e+00
 SN2ar SC5vr  1 4.100000e-01    2.350000e+00
 SN2ar SC4vr  1 4.100000e-01    2.350000e+00
 SN2ar SC3vr  1 4.100000e-01    2.350000e+00
 SN2ar SC2vr  1 4.100000e-01    2.200000e+00
 SN2ar SC1vr  1 4.100000e-01    2.040000e+00
 SN2ar SX4vr  1 4.100000e-01    2.840000e+00
 SN2ar SX3vr  1 4.100000e-01    2.600000e+00
 SN2ar SX2vr  1 4.100000e-01    2.350000e+00
 SN2ar SX1vr  1 4.100000e-01    2.350000e+00
 SN2ar SC6er  1 4.100000e-01    2.200000e+00
 SN2ar SC5er  1 4.100000e-01    2.040000e+00
 SN2ar SC4er  1 4.100000e-01    2.040000e+00
 SN2ar SC3er  1 4.100000e-01    2.040000e+00
 SN2ar SC2er  1 4.100000e-01    1.910000e+00
 SN2ar SC1er  1 4.100000e-01    1.750000e+00
 SN2ar SX4er  1 4.100000e-01    2.350000e+00
 SN2ar SX3er  1 4.100000e-01    2.200000e+00
 SN2ar SX2er  1 4.100000e-01    2.040000e+00
 SN2ar SX1er  1 4.100000e-01    2.040000e+00
 SN1ar SC6vr  1 4.100000e-01    2.840000e+00
 SN1ar SC5vr  1 4.100000e-01    2.600000e+00
 SN1ar SC4vr  1 4.100000e-01    2.600000e+00
 SN1ar SC3vr  1 4.100000e-01    2.350000e+00
 SN1ar SC2vr  1 4.100000e-01    2.200000e+00
 SN1ar SC1vr  1 4.100000e-01    2.040000e+00
 SN1ar SX4vr  1 4.100000e-01    2.600000e+00
 SN1ar SX3vr  1 4.100000e-01    2.600000e+00
 SN1ar SX2vr  1 4.100000e-01    2.350000e+00
 SN1ar SX1vr  1 4.100000e-01    2.350000e+00
 SN1ar SC6er  1 4.100000e-01    2.350000e+00
 SN1ar SC5er  1 4.100000e-01    2.200000e+00
 SN1ar SC4er  1 4.100000e-01    2.200000e+00
 SN1ar SC3er  1 4.100000e-01    2.040000e+00
 SN1ar SC2er  1 4.100000e-01    1.910000e+00
 SN1ar SC1er  1 4.100000e-01    1.750000e+00
 SN1ar SX4er  1 4.100000e-01    2.200000e+00
 SN1ar SX3er  1 4.100000e-01    2.200000e+00
 SN1ar SX2er  1 4.100000e-01    2.040000e+00
 SN1ar SX1er  1 4.100000e-01    2.040000e+00
  SP6h  SP6h  1 4.100000e-01    4.550000e+00
  SP5h  SP5h  1 4.100000e-01    4.040000e+00
  SP4h  SP4h  1 4.100000e-01    3.820000e+00
  SP3h  SP3h  1 4.100000e-01    3.550000e+00
  SP2h  SP2h  1 4.100000e-01    3.550000e+00
  SP1h  SP1h  1 4.100000e-01    3.310000e+00
  SN6h  SN6h  1 4.100000e-01    3.310000e+00
  SN5h  SN5h  1 4.100000e-01    3.070000e+00
  SN4h  SN4h  1 4.100000e-01    3.070000e+00
  SN3h  SN3h  1 4.100000e-01    2.840000e+00
  SN2h  SN2h  1 4.100000e-01    2.840000e+00
  SN1h  SN1h  1 4.100000e-01    2.840000e+00
 SP6dh SP6dh  1 4.100000e-01    4.290000e+00
 SP5dh SP5dh  1 4.100000e-01    3.820000e+00
 SP4dh SP4dh  1 4.100000e-01    3.550000e+00
 SP3dh SP3dh  1 4.100000e-01    3.310000e+00
 SP2dh SP2dh  1 4.100000e-01    3.310000e+00
 SP1dh SP1dh  1 4.100000e-01    3.070000e+00
 SN6dh SN6dh  1 4.100000e-01    3.070000e+00
 SN5dh SN5dh  1 4.100000e-01    2.840000e+00
 SN4dh SN4dh  1 4.100000e-01    2.840000e+00
 SN3dh SN3dh  1 4.100000e-01    2.600000e+00
 SN2dh SN2dh  1 4.100000e-01    2.600000e+00
 SN1dh SN1dh  1 4.100000e-01    2.600000e+00
 SP6ah SP6ah  1 4.100000e-01    4.290000e+00
 SP5ah SP5ah  1 4.100000e-01    3.820000e+00
 SP4ah SP4ah  1 4.100000e-01    3.550000e+00
 SP3ah SP3ah  1 4.100000e-01    3.310000e+00
 SP2ah SP2ah  1 4.100000e-01    3.310000e+00
 SP1ah SP1ah  1 4.100000e-01    3.070000e+00
 SN6ah SN6ah  1 4.100000e-01    3.070000e+00
 SN5ah SN5ah  1 4.100000e-01    2.840000e+00
 SN4ah SN4ah  1 4.100000e-01    2.840000e+00
 SN3ah SN3ah  1 4.100000e-01    2.600000e+00
 SN2ah SN2ah  1 4.100000e-01    2.600000e+00
 SN1ah SN1ah  1 4.100000e-01    2.600000e+00
  SP6h  SP5h  1 4.100000e-01    4.290000e+00
  SP6h  SP4h  1 4.100000e-01    4.040000e+00
  SP6h  SP3h  1 4.100000e-01    3.820000e+00
  SP6h  SP2h  1 4.100000e-01    3.820000e+00
  SP6h  SP1h  1 4.100000e-01    3.550000e+00
  SP6h  SN6h  1 4.100000e-01    3.310000e+00
  SP6h  SN5h  1 4.100000e-01    2.840000e+00
  SP6h  SN4h  1 4.100000e-01    2.600000e+00
  SP6h  SN3h  1 4.100000e-01    2.350000e+00
  SP6h  SN2h  1 4.100000e-01    2.200000e+00
  SP6h  SN1h  1 4.100000e-01    2.040000e+00
  SP5h  SP4h  1 4.100000e-01    3.820000e+00
  SP5h  SP3h  1 4.100000e-01    3.550000e+00
  SP5h  SP2h  1 4.100000e-01    3.550000e+00
  SP5h  SP1h  1 4.100000e-01    3.310000e+00
  SP5h  SN6h  1 4.100000e-01    3.070000e+00
  SP5h  SN5h  1 4.100000e-01    2.840000e+00
  SP5h  SN4h  1 4.100000e-01    2.840000e+00
  SP5h  SN3h  1 4.100000e-01    2.350000e+00
  SP5h  SN2h  1 4.100000e-01    2.200000e+00
  SP5h  SN1h  1 4.100000e-01    2.040000e+00
  SP4h  SP3h  1 4.100000e-01    3.550000e+00
  SP4h  SP2h  1 4.100000e-01    3.550000e+00
  SP4h  SP1h  1 4.100000e-01    3.310000e+00
  SP4h  SN6h  1 4.100000e-01    3.070000e+00
  SP4h  SN5h  1 4.100000e-01    2.840000e+00
  SP4h  SN4h  1 4.100000e-01    2.840000e+00
  SP4h  SN3h  1 4.100000e-01    2.600000e+00
  SP4h  SN2h  1 4.100000e-01    2.350000e+00
  SP4h  SN1h  1 4.100000e-01    2.200000e+00
  SP3h  SP2h  1 4.100000e-01    3.550000e+00
  SP3h  SP1h  1 4.100000e-01    3.310000e+00
  SP3h  SN6h  1 4.100000e-01    3.070000e+00
  SP3h  SN5h  1 4.100000e-01    2.840000e+00
  SP3h  SN4h  1 4.100000e-01    2.840000e+00
  SP3h  SN3h  1 4.100000e-01    2.600000e+00
  SP3h  SN2h  1 4.100000e-01    2.600000e+00
  SP3h  SN1h  1 4.100000e-01    2.350000e+00
  SP2h  SP1h  1 4.100000e-01    3.310000e+00
  SP2h  SN6h  1 4.100000e-01    3.310000e+00
  SP2h  SN5h  1 4.100000e-01    3.070000e+00
  SP2h  SN4h  1 4.100000e-01    2.840000e+00
  SP2h  SN3h  1 4.100000e-01    2.600000e+00
  SP2h  SN2h  1 4.100000e-01    2.600000e+00
  SP2h  SN1h  1 4.100000e-01    2.600000e+00
  SP1h  SN6h  1 4.100000e-01    3.310000e+00
  SP1h  SN5h  1 4.100000e-01    3.070000e+00
  SP1h  SN4h  1 4.100000e-01    3.070000e+00
  SP1h  SN3h  1 4.100000e-01    2.600000e+00
  SP1h  SN2h  1 4.100000e-01    2.600000e+00
  SP1h  SN1h  1 4.100000e-01    2.600000e+00
  SN6h  SN5h  1 4.100000e-01    3.310000e+00
  SN6h  SN4h  1 4.100000e-01    3.310000e+00
  SN6h  SN3h  1 4.100000e-01    2.840000e+00
  SN6h  SN2h  1 4.100000e-01    2.600000e+00
  SN6h  SN1h  1 4.100000e-01    2.600000e+00
  SN5h  SN4h  1 4.100000e-01    3.070000e+00
  SN5h  SN3h  1 4.100000e-01    2.840000e+00
  SN5h  SN2h  1 4.100000e-01    2.840000e+00
  SN5h  SN1h  1 4.100000e-01    2.600000e+00
  SN4h  SN3h  1 4.100000e-01    2.840000e+00
  SN4h  SN2h  1 4.100000e-01    2.840000e+00
  SN4h  SN1h  1 4.100000e-01    2.600000e+00
  SN3h  SN2h  1 4.100000e-01    2.840000e+00
  SN3h  SN1h  1 4.100000e-01    2.600000e+00
  SN2h  SN1h  1 4.100000e-01    2.600000e+00
 SP6dh SP5dh  1 4.100000e-01    4.040000e+00
 SP6dh SP4dh  1 4.100000e-01    3.820000e+00
 SP6dh SP3dh  1 4.100000e-01    3.550000e+00
 SP6dh SP2dh  1 4.100000e-01    3.550000e+00
 SP6dh SP1dh  1 4.100000e-01    3.310000e+00
 SP6dh SN6dh  1 4.100000e-01    3.070000e+00
 SP6dh SN5dh  1 4.100000e-01    2.600000e+00
 SP6dh SN4dh  1 4.100000e-01    2.350000e+00
 SP6dh SN3dh  1 4.100000e-01    2.350000e+00
 SP6dh SN2dh  1 4.100000e-01    2.200000e+00
 SP6dh SN1dh  1 4.100000e-01    2.040000e+00
 SP6dh SP6ah  1 4.100000e-01    4.840000e+00
 SP6dh SP5ah  1 4.100000e-01    4.550000e+00
 SP6dh SP4ah  1 4.100000e-01    4.290000e+00
 SP6dh SP3ah  1 4.100000e-01    4.040000e+00
 SP6dh SP2ah  1 4.100000e-01    4.040000e+00
 SP6dh SP1ah  1 4.100000e-01    3.820000e+00
 SP6dh SN6ah  1 4.100000e-01    3.550000e+00
 SP6dh SN5ah  1 4.100000e-01    3.070000e+00
 SP6dh SN4ah  1 4.100000e-01    2.840000e+00
 SP6dh SN3ah  1 4.100000e-01    2.350000e+00
 SP6dh SN2ah  1 4.100000e-01    2.200000e+00
 SP6dh SN1ah  1 4.100000e-01    2.040000e+00
 SP5dh SP4dh  1 4.100000e-01    3.550000e+00
 SP5dh SP3dh  1 4.100000e-01    3.310000e+00
 SP5dh SP2dh  1 4.100000e-01    3.310000e+00
 SP5dh SP1dh  1 4.100000e-01    3.070000e+00
 SP5dh SN6dh  1 4.100000e-01    2.840000e+00
 SP5dh SN5dh  1 4.100000e-01    2.600000e+00
 SP5dh SN4dh  1 4.100000e-01    2.600000e+00
 SP5dh SN3dh  1 4.100000e-01    2.350000e+00
 SP5dh SN2dh  1 4.100000e-01    2.200000e+00
 SP5dh SN1dh  1 4.100000e-01    2.040000e+00
 SP5dh SP5ah  1 4.100000e-01    4.290000e+00
 SP5dh SP4ah  1 4.100000e-01    4.040000e+00
 SP5dh SP3ah  1 4.100000e-01    3.820000e+00
 SP5dh SP2ah  1 4.100000e-01    3.820000e+00
 SP5dh SP1ah  1 4.100000e-01    3.550000e+00
 SP5dh SN6ah  1 4.100000e-01    3.310000e+00
 SP5dh SN5ah  1 4.100000e-01    3.070000e+00
 SP5dh SN4ah  1 4.100000e-01    3.070000e+00
 SP5dh SN3ah  1 4.100000e-01    2.350000e+00
 SP5dh SN2ah  1 4.100000e-01    2.200000e+00
 SP5dh SN1ah  1 4.100000e-01    2.040000e+00
 SP4dh SP3dh  1 4.100000e-01    3.310000e+00
 SP4dh SP2dh  1 4.100000e-01    3.310000e+00
 SP4dh SP1dh  1 4.100000e-01    3.070000e+00
 SP4dh SN6dh  1 4.100000e-01    2.840000e+00
 SP4dh SN5dh  1 4.100000e-01    2.600000e+00
 SP4dh SN4dh  1 4.100000e-01    2.600000e+00
 SP4dh SN3dh  1 4.100000e-01    2.350000e+00
 SP4dh SN2dh  1 4.100000e-01    2.350000e+00
 SP4dh SN1dh  1 4.100000e-01    2.200000e+00
 SP4dh SP4ah  1 4.100000e-01    4.040000e+00
 SP4dh SP3ah  1 4.100000e-01    3.820000e+00
 SP4dh SP2ah  1 4.100000e-01    3.820000e+00
 SP4dh SP1ah  1 4.100000e-01    3.550000e+00
 SP4dh SN6ah  1 4.100000e-01    3.310000e+00
 SP4dh SN5ah  1 4.100000e-01    3.070000e+00
 SP4dh SN4ah  1 4.100000e-01    3.070000e+00
 SP4dh SN3ah  1 4.100000e-01    2.840000e+00
 SP4dh SN2ah  1 4.100000e-01    2.350000e+00
 SP4dh SN1ah  1 4.100000e-01    2.200000e+00
 SP3dh SP2dh  1 4.100000e-01    3.310000e+00
 SP3dh SP1dh  1 4.100000e-01    3.070000e+00
 SP3dh SN6dh  1 4.100000e-01    2.840000e+00
 SP3dh SN5dh  1 4.100000e-01    2.600000e+00
 SP3dh SN4dh  1 4.100000e-01    2.600000e+00
 SP3dh SN3dh  1 4.100000e-01    2.350000e+00
 SP3dh SN2dh  1 4.100000e-01    2.350000e+00
 SP3dh SN1dh  1 4.100000e-01    2.350000e+00
 SP3dh SP3ah  1 4.100000e-01    3.820000e+00
 SP3dh SP2ah  1 4.100000e-01    3.820000e+00
 SP3dh SP1ah  1 4.100000e-01    3.550000e+00
 SP3dh SN6ah  1 4.100000e-01    3.310000e+00
 SP3dh SN5ah  1 4.100000e-01    3.070000e+00
 SP3dh SN4ah  1 4.100000e-01    3.070000e+00
 SP3dh SN3ah  1 4.100000e-01    2.840000e+00
 SP3dh SN2ah  1 4.100000e-01    2.840000e+00
 SP3dh SN1ah  1 4.100000e-01    2.350000e+00
 SP2dh SP1dh  1 4.100000e-01    3.070000e+00
 SP2dh SN6dh  1 4.100000e-01    3.070000e+00
 SP2dh SN5dh  1 4.100000e-01    2.840000e+00
 SP2dh SN4dh  1 4.100000e-01    2.600000e+00
 SP2dh SN3dh  1 4.100000e-01    2.350000e+00
 SP2dh SN2dh  1 4.100000e-01    2.350000e+00
 SP2dh SN1dh  1 4.100000e-01    2.350000e+00
 SP2dh SP2ah  1 4.100000e-01    3.820000e+00
 SP2dh SP1ah  1 4.100000e-01    3.550000e+00
 SP2dh SN6ah  1 4.100000e-01    3.550000e+00
 SP2dh SN5ah  1 4.100000e-01    3.310000e+00
 SP2dh SN4ah  1 4.100000e-01    3.070000e+00
 SP2dh SN3ah  1 4.100000e-01    2.840000e+00
 SP2dh SN2ah  1 4.100000e-01    2.840000e+00
 SP2dh SN1ah  1 4.100000e-01    2.840000e+00
 SP1dh SN6dh  1 4.100000e-01    3.070000e+00
 SP1dh SN5dh  1 4.100000e-01    2.840000e+00
 SP1dh SN4dh  1 4.100000e-01    2.840000e+00
 SP1dh SN3dh  1 4.100000e-01    2.350000e+00
 SP1dh SN2dh  1 4.100000e-01    2.350000e+00
 SP1dh SN1dh  1 4.100000e-01    2.350000e+00
 SP1dh SP1ah  1 4.100000e-01    3.550000e+00
 SP1dh SN6ah  1 4.100000e-01    3.550000e+00
 SP1dh SN5ah  1 4.100000e-01    3.310000e+00
 SP1dh SN4ah  1 4.100000e-01    3.310000e+00
 SP1dh SN3ah  1 4.100000e-01    2.840000e+00
 SP1dh SN2ah  1 4.100000e-01    2.840000e+00
 SP1dh SN1ah  1 4.100000e-01    2.840000e+00
 SN6dh SN5dh  1 4.100000e-01    3.070000e+00
 SN6dh SN4dh  1 4.100000e-01    3.070000e+00
 SN6dh SN3dh  1 4.100000e-01    2.600000e+00
 SN6dh SN2dh  1 4.100000e-01    2.350000e+00
 SN6dh SN1dh  1 4.100000e-01    2.350000e+00
 SN6dh SN6ah  1 4.100000e-01    3.550000e+00
 SN6dh SN5ah  1 4.100000e-01    3.550000e+00
 SN6dh SN4ah  1 4.100000e-01    3.550000e+00
 SN6dh SN3ah  1 4.100000e-01    3.070000e+00
 SN6dh SN2ah  1 4.100000e-01    2.840000e+00
 SN6dh SN1ah  1 4.100000e-01    2.840000e+00
 SN5dh SN4dh  1 4.100000e-01    2.840000e+00
 SN5dh SN3dh  1 4.100000e-01    2.600000e+00
 SN5dh SN2dh  1 4.100000e-01    2.600000e+00
 SN5dh SN1dh  1 4.100000e-01    2.350000e+00
 SN5dh SN5ah  1 4.100000e-01    3.310000e+00
 SN5dh SN4ah  1 4.100000e-01    3.310000e+00
 SN5dh SN3ah  1 4.100000e-01    3.070000e+00
 SN5dh SN2ah  1 4.100000e-01    3.070000e+00
 SN5dh SN1ah  1 4.100000e-01    2.840000e+00
 SN4dh SN3dh  1 4.100000e-01    2.600000e+00
 SN4dh SN2dh  1 4.100000e-01    2.600000e+00
 SN4dh SN1dh  1 4.100000e-01    2.350000e+00
 SN4dh SN4ah  1 4.100000e-01    3.310000e+00
 SN4dh SN3ah  1 4.100000e-01    3.070000e+00
 SN4dh SN2ah  1 4.100000e-01    3.070000e+00
 SN4dh SN1ah  1 4.100000e-01    2.840000e+00
 SN3dh SN2dh  1 4.100000e-01    2.600000e+00
 SN3dh SN1dh  1 4.100000e-01    2.350000e+00
 SN3dh SN3ah  1 4.100000e-01    3.070000e+00
 SN3dh SN2ah  1 4.100000e-01    3.070000e+00
 SN3dh SN1ah  1 4.100000e-01    2.840000e+00
 SN2dh SN1dh  1 4.100000e-01    2.350000e+00
 SN2dh SN2ah  1 4.100000e-01    3.070000e+00
 SN2dh SN1ah  1 4.100000e-01    2.840000e+00
 SN1dh SN1ah  1 4.100000e-01    3.070000e+00
 SP6ah SP5dh  1 4.100000e-01    4.550000e+00
 SP6ah SP4dh  1 4.100000e-01    4.290000e+00
 SP6ah SP3dh  1 4.100000e-01    4.040000e+00
 SP6ah SP2dh  1 4.100000e-01    4.040000e+00
 SP6ah SP1dh  1 4.100000e-01    3.820000e+00
 SP6ah SN6dh  1 4.100000e-01    3.550000e+00
 SP6ah SN5dh  1 4.100000e-01    3.070000e+00
 SP6ah SN4dh  1 4.100000e-01    2.840000e+00
 SP6ah SN3dh  1 4.100000e-01    2.350000e+00
 SP6ah SN2dh  1 4.100000e-01    2.200000e+00
 SP6ah SN1dh  1 4.100000e-01    2.040000e+00
 SP6ah SP5ah  1 4.100000e-01    4.040000e+00
 SP6ah SP4ah  1 4.100000e-01    3.820000e+00
 SP6ah SP3ah  1 4.100000e-01    3.550000e+00
 SP6ah SP2ah  1 4.100000e-01    3.550000e+00
 SP6ah SP1ah  1 4.100000e-01    3.310000e+00
 SP6ah SN6ah  1 4.100000e-01    3.070000e+00
 SP6ah SN5ah  1 4.100000e-01    2.600000e+00
 SP6ah SN4ah  1 4.100000e-01    2.350000e+00
 SP6ah SN3ah  1 4.100000e-01    2.350000e+00
 SP6ah SN2ah  1 4.100000e-01    2.200000e+00
 SP6ah SN1ah  1 4.100000e-01    2.040000e+00
 SP5ah SP4dh  1 4.100000e-01    4.040000e+00
 SP5ah SP3dh  1 4.100000e-01    3.820000e+00
 SP5ah SP2dh  1 4.100000e-01    3.820000e+00
 SP5ah SP1dh  1 4.100000e-01    3.550000e+00
 SP5ah SN6dh  1 4.100000e-01    3.310000e+00
 SP5ah SN5dh  1 4.100000e-01    3.070000e+00
 SP5ah SN4dh  1 4.100000e-01    3.070000e+00
 SP5ah SN3dh  1 4.100000e-01    2.350000e+00
 SP5ah SN2dh  1 4.100000e-01    2.200000e+00
 SP5ah SN1dh  1 4.100000e-01    2.040000e+00
 SP5ah SP4ah  1 4.100000e-01    3.550000e+00
 SP5ah SP3ah  1 4.100000e-01    3.310000e+00
 SP5ah SP2ah  1 4.100000e-01    3.310000e+00
 SP5ah SP1ah  1 4.100000e-01    3.070000e+00
 SP5ah SN6ah  1 4.100000e-01    2.840000e+00
 SP5ah SN5ah  1 4.100000e-01    2.600000e+00
 SP5ah SN4ah  1 4.100000e-01    2.600000e+00
 SP5ah SN3ah  1 4.100000e-01    2.350000e+00
 SP5ah SN2ah  1 4.100000e-01    2.200000e+00
 SP5ah SN1ah  1 4.100000e-01    2.040000e+00
 SP4ah SP3dh  1 4.100000e-01    3.820000e+00
 SP4ah SP2dh  1 4.100000e-01    3.820000e+00
 SP4ah SP1dh  1 4.100000e-01    3.550000e+00
 SP4ah SN6dh  1 4.100000e-01    3.310000e+00
 SP4ah SN5dh  1 4.100000e-01    3.070000e+00
 SP4ah SN4dh  1 4.100000e-01    3.070000e+00
 SP4ah SN3dh  1 4.100000e-01    2.840000e+00
 SP4ah SN2dh  1 4.100000e-01    2.350000e+00
 SP4ah SN1dh  1 4.100000e-01    2.200000e+00
 SP4ah SP3ah  1 4.100000e-01    3.310000e+00
 SP4ah SP2ah  1 4.100000e-01    3.310000e+00
 SP4ah SP1ah  1 4.100000e-01    3.070000e+00
 SP4ah SN6ah  1 4.100000e-01    2.840000e+00
 SP4ah SN5ah  1 4.100000e-01    2.600000e+00
 SP4ah SN4ah  1 4.100000e-01    2.600000e+00
 SP4ah SN3ah  1 4.100000e-01    2.350000e+00
 SP4ah SN2ah  1 4.100000e-01    2.350000e+00
 SP4ah SN1ah  1 4.100000e-01    2.200000e+00
 SP3ah SP2dh  1 4.100000e-01    3.820000e+00
 SP3ah SP1dh  1 4.100000e-01    3.550000e+00
 SP3ah SN6dh  1 4.100000e-01    3.310000e+00
 SP3ah SN5dh  1 4.100000e-01    3.070000e+00
 SP3ah SN4dh  1 4.100000e-01    3.070000e+00
 SP3ah SN3dh  1 4.100000e-01    2.840000e+00
 SP3ah SN2dh  1 4.100000e-01    2.840000e+00
 SP3ah SN1dh  1 4.100000e-01    2.350000e+00
 SP3ah SP2ah  1 4.100000e-01    3.310000e+00
 SP3ah SP1ah  1 4.100000e-01    3.070000e+00
 SP3ah SN6ah  1 4.100000e-01    2.840000e+00
 SP3ah SN5ah  1 4.100000e-01    2.600000e+00
 SP3ah SN4ah  1 4.100000e-01    2.600000e+00
 SP3ah SN3ah  1 4.100000e-01    2.350000e+00
 SP3ah SN2ah  1 4.100000e-01    2.350000e+00
 SP3ah SN1ah  1 4.100000e-01    2.350000e+00
 SP2ah SP1dh  1 4.100000e-01    3.550000e+00
 SP2ah SN6dh  1 4.100000e-01    3.550000e+00
 SP2ah SN5dh  1 4.100000e-01    3.310000e+00
 SP2ah SN4dh  1 4.100000e-01    3.070000e+00
 SP2ah SN3dh  1 4.100000e-01    2.840000e+00
 SP2ah SN2dh  1 4.100000e-01    2.840000e+00
 SP2ah SN1dh  1 4.100000e-01    2.840000e+00
 SP2ah SP1ah  1 4.100000e-01    3.070000e+00
 SP2ah SN6ah  1 4.100000e-01    3.070000e+00
 SP2ah SN5ah  1 4.100000e-01    2.840000e+00
 SP2ah SN4ah  1 4.100000e-01    2.600000e+00
 SP2ah SN3ah  1 4.100000e-01    2.350000e+00
 SP2ah SN2ah  1 4.100000e-01    2.350000e+00
 SP2ah SN1ah  1 4.100000e-01    2.350000e+00
 SP1ah SN6dh  1 4.100000e-01    3.550000e+00
 SP1ah SN5dh  1 4.100000e-01    3.310000e+00
 SP1ah SN4dh  1 4.100000e-01    3.310000e+00
 SP1ah SN3dh  1 4.100000e-01    2.840000e+00
 SP1ah SN2dh  1 4.100000e-01    2.840000e+00
 SP1ah SN1dh  1 4.100000e-01    2.840000e+00
 SP1ah SN6ah  1 4.100000e-01    3.070000e+00
 SP1ah SN5ah  1 4.100000e-01    2.840000e+00
 SP1ah SN4ah  1 4.100000e-01    2.840000e+00
 SP1ah SN3ah  1 4.100000e-01    2.350000e+00
 SP1ah SN2ah  1 4.100000e-01    2.350000e+00
 SP1ah SN1ah  1 4.100000e-01    2.350000e+00
 SN6ah SN5dh  1 4.100000e-01    3.550000e+00
 SN6ah SN4dh  1 4.100000e-01    3.550000e+00
 SN6ah SN3dh  1 4.100000e-01    3.070000e+00
 SN6ah SN2dh  1 4.100000e-01    2.840000e+00
 SN6ah SN1dh  1 4.100000e-01    2.840000e+00
 SN6ah SN5ah  1 4.100000e-01    3.070000e+00
 SN6ah SN4ah  1 4.100000e-01    3.070000e+00
 SN6ah SN3ah  1 4.100000e-01    2.600000e+00
 SN6ah SN2ah  1 4.100000e-01    2.350000e+00
 SN6ah SN1ah  1 4.100000e-01    2.350000e+00
 SN5ah SN4dh  1 4.100000e-01    3.310000e+00
 SN5ah SN3dh  1 4.100000e-01    3.070000e+00
 SN5ah SN2dh  1 4.100000e-01    3.070000e+00
 SN5ah SN1dh  1 4.100000e-01    2.840000e+00
 SN5ah SN4ah  1 4.100000e-01    2.840000e+00
 SN5ah SN3ah  1 4.100000e-01    2.600000e+00
 SN5ah SN2ah  1 4.100000e-01    2.600000e+00
 SN5ah SN1ah  1 4.100000e-01    2.350000e+00
 SN4ah SN3dh  1 4.100000e-01    3.070000e+00
 SN4ah SN2dh  1 4.100000e-01    3.070000e+00
 SN4ah SN1dh  1 4.100000e-01    2.840000e+00
 SN4ah SN3ah  1 4.100000e-01    2.600000e+00
 SN4ah SN2ah  1 4.100000e-01    2.600000e+00
 SN4ah SN1ah  1 4.100000e-01    2.350000e+00
 SN3ah SN2dh  1 4.100000e-01    3.070000e+00
 SN3ah SN1dh  1 4.100000e-01    2.840000e+00
 SN3ah SN2ah  1 4.100000e-01    2.600000e+00
 SN3ah SN1ah  1 4.100000e-01    2.350000e+00
 SN2ah SN1dh  1 4.100000e-01    2.840000e+00
 SN2ah SN1ah  1 4.100000e-01    2.350000e+00
  SC6h  SC6h  1 4.100000e-01    2.840000e+00
  SC5h  SC5h  1 4.100000e-01    2.600000e+00
  SC4h  SC4h  1 4.100000e-01    2.600000e+00
  SC3h  SC3h  1 4.100000e-01    2.600000e+00
  SC2h  SC2h  1 4.100000e-01    2.600000e+00
  SC1h  SC1h  1 4.100000e-01    2.600000e+00
  SX4h  SX4h  1 4.100000e-01    2.600000e+00
  SX3h  SX3h  1 4.100000e-01    2.600000e+00
  SX2h  SX2h  1 4.100000e-01    2.840000e+00
  SX1h  SX1h  1 4.100000e-01    3.070000e+00
 SC6vh SC6vh  1 4.100000e-01    2.600000e+00
 SC5vh SC5vh  1 4.100000e-01    2.350000e+00
 SC4vh SC4vh  1 4.100000e-01    2.350000e+00
 SC3vh SC3vh  1 4.100000e-01    2.350000e+00
 SC2vh SC2vh  1 4.100000e-01    2.350000e+00
 SC1vh SC1vh  1 4.100000e-01    2.350000e+00
 SX4vh SX4vh  1 4.100000e-01    2.350000e+00
 SX3vh SX3vh  1 4.100000e-01    2.350000e+00
 SX2vh SX2vh  1 4.100000e-01    2.600000e+00
 SX1vh SX1vh  1 4.100000e-01    2.840000e+00
 SC6eh SC6eh  1 4.100000e-01    2.600000e+00
 SC5eh SC5eh  1 4.100000e-01    2.350000e+00
 SC4eh SC4eh  1 4.100000e-01    2.350000e+00
 SC3eh SC3eh  1 4.100000e-01    2.350000e+00
 SC2eh SC2eh  1 4.100000e-01    2.350000e+00
 SC1eh SC1eh  1 4.100000e-01    2.350000e+00
 SX4eh SX4eh  1 4.100000e-01    2.350000e+00
 SX3eh SX3eh  1 4.100000e-01    2.350000e+00
 SX2eh SX2eh  1 4.100000e-01    2.600000e+00
 SX1eh SX1eh  1 4.100000e-01    2.840000e+00
  SC6h  SC5h  1 4.100000e-01    2.600000e+00
  SC6h  SC4h  1 4.100000e-01    2.600000e+00
  SC6h  SC3h  1 4.100000e-01    2.350000e+00
  SC6h  SC2h  1 4.100000e-01    2.200000e+00
  SC6h  SC1h  1 4.100000e-01    2.040000e+00
  SC6h  SX4h  1 4.100000e-01    2.600000e+00
  SC6h  SX3h  1 4.100000e-01    2.600000e+00
  SC6h  SX2h  1 4.100000e-01    2.600000e+00
  SC6h  SX1h  1 4.100000e-01    2.600000e+00
  SC5h  SC4h  1 4.100000e-01    2.600000e+00
  SC5h  SC3h  1 4.100000e-01    2.350000e+00
  SC5h  SC2h  1 4.100000e-01    2.200000e+00
  SC5h  SC1h  1 4.100000e-01    2.200000e+00
  SC5h  SX4h  1 4.100000e-01    2.350000e+00
  SC5h  SX3h  1 4.100000e-01    2.350000e+00
  SC5h  SX2h  1 4.100000e-01    2.350000e+00
  SC5h  SX1h  1 4.100000e-01    2.600000e+00
  SC4h  SC3h  1 4.100000e-01    2.600000e+00
  SC4h  SC2h  1 4.100000e-01    2.350000e+00
  SC4h  SC1h  1 4.100000e-01    2.200000e+00
  SC4h  SX4h  1 4.100000e-01    2.350000e+00
  SC4h  SX3h  1 4.100000e-01    2.350000e+00
  SC4h  SX2h  1 4.100000e-01    2.350000e+00
  SC4h  SX1h  1 4.100000e-01    2.600000e+00
  SC3h  SC2h  1 4.100000e-01    2.600000e+00
  SC3h  SC1h  1 4.100000e-01    2.600000e+00
  SC3h  SX4h  1 4.100000e-01    2.350000e+00
  SC3h  SX3h  1 4.100000e-01    2.350000e+00
  SC3h  SX2h  1 4.100000e-01    2.350000e+00
  SC3h  SX1h  1 4.100000e-01    2.600000e+00
  SC2h  SC1h  1 4.100000e-01    2.840000e+00
  SC2h  SX4h  1 4.100000e-01    2.040000e+00
  SC2h  SX3h  1 4.100000e-01    2.350000e+00
  SC2h  SX2h  1 4.100000e-01    2.350000e+00
  SC2h  SX1h  1 4.100000e-01    2.350000e+00
  SC1h  SX4h  1 4.100000e-01    2.040000e+00
  SC1h  SX3h  1 4.100000e-01    2.350000e+00
  SC1h  SX2h  1 4.100000e-01    2.350000e+00
  SC1h  SX1h  1 4.100000e-01    2.350000e+00
  SX4h  SX3h  1 4.100000e-01    2.600000e+00
  SX4h  SX2h  1 4.100000e-01    2.600000e+00
  SX4h  SX1h  1 4.100000e-01    2.600000e+00
  SX3h  SX2h  1 4.100000e-01    2.840000e+00
  SX3h  SX1h  1 4.100000e-01    2.840000e+00
  SX2h  SX1h  1 4.100000e-01    2.840000e+00
 SC6vh SC5vh  1 4.100000e-01    2.350000e+00
 SC6vh SC4vh  1 4.100000e-01    2.350000e+00
 SC6vh SC3vh  1 4.100000e-01    2.200000e+00
 SC6vh SC2vh  1 4.100000e-01    2.040000e+00
 SC6vh SC1vh  1 4.100000e-01    1.910000e+00
 SC6vh SX4vh  1 4.100000e-01    2.350000e+00
 SC6vh SX3vh  1 4.100000e-01    2.350000e+00
 SC6vh SX2vh  1 4.100000e-01    2.350000e+00
 SC6vh SX1vh  1 4.100000e-01    2.350000e+00
 SC6vh SC6eh  1 4.100000e-01    3.310000e+00
 SC6vh SC5eh  1 4.100000e-01    3.070000e+00
 SC6vh SC4eh  1 4.100000e-01    3.070000e+00
 SC6vh SC3eh  1 4.100000e-01    2.840000e+00
 SC6vh SC2eh  1 4.100000e-01    2.600000e+00
 SC6vh SC1eh  1 4.100000e-01    2.350000e+00
 SC6vh SX4eh  1 4.100000e-01    3.070000e+00
 SC6vh SX3eh  1 4.100000e-01    3.070000e+00
 SC6vh SX2eh  1 4.100000e-01    3.070000e+00
 SC6vh SX1eh  1 4.100000e-01    3.070000e+00
 SC5vh SC4vh  1 4.100000e-01    2.350000e+00
 SC5vh SC3vh  1 4.100000e-01    2.200000e+00
 SC5vh SC2vh  1 4.100000e-01    2.040000e+00
 SC5vh SC1vh  1 4.100000e-01    2.040000e+00
 SC5vh SX4vh  1 4.100000e-01    2.200000e+00
 SC5vh SX3vh  1 4.100000e-01    2.200000e+00
 SC5vh SX2vh  1 4.100000e-01    2.200000e+00
 SC5vh SX1vh  1 4.100000e-01    2.350000e+00
 SC5vh SC5eh  1 4.100000e-01    3.070000e+00
 SC5vh SC4eh  1 4.100000e-01    3.070000e+00
 SC5vh SC3eh  1 4.100000e-01    2.840000e+00
 SC5vh SC2eh  1 4.100000e-01    2.600000e+00
 SC5vh SC1eh  1 4.100000e-01    2.600000e+00
 SC5vh SX4eh  1 4.100000e-01    2.840000e+00
 SC5vh SX3eh  1 4.100000e-01    2.840000e+00
 SC5vh SX2eh  1 4.100000e-01    2.840000e+00
 SC5vh SX1eh  1 4.100000e-01    3.070000e+00
 SC4vh SC3vh  1 4.100000e-01    2.350000e+00
 SC4vh SC2vh  1 4.100000e-01    2.200000e+00
 SC4vh SC1vh  1 4.100000e-01    2.040000e+00
 SC4vh SX4vh  1 4.100000e-01    2.200000e+00
 SC4vh SX3vh  1 4.100000e-01    2.200000e+00
 SC4vh SX2vh  1 4.100000e-01    2.200000e+00
 SC4vh SX1vh  1 4.100000e-01    2.350000e+00
 SC4vh SC4eh  1 4.100000e-01    3.070000e+00
 SC4vh SC3eh  1 4.100000e-01    3.070000e+00
 SC4vh SC2eh  1 4.100000e-01    2.840000e+00
 SC4vh SC1eh  1 4.100000e-01    2.600000e+00
 SC4vh SX4eh  1 4.100000e-01    2.840000e+00
 SC4vh SX3eh  1 4.100000e-01    2.840000e+00
 SC4vh SX2eh  1 4.100000e-01    2.840000e+00
 SC4vh SX1eh  1 4.100000e-01    3.070000e+00
 SC3vh SC2vh  1 4.100000e-01    2.350000e+00
 SC3vh SC1vh  1 4.100000e-01    2.350000e+00
 SC3vh SX4vh  1 4.100000e-01    2.200000e+00
 SC3vh SX3vh  1 4.100000e-01    2.200000e+00
 SC3vh SX2vh  1 4.100000e-01    2.200000e+00
 SC3vh SX1vh  1 4.100000e-01    2.350000e+00
 SC3vh SC3eh  1 4.100000e-01    3.070000e+00
 SC3vh SC2eh  1 4.100000e-01    3.070000e+00
 SC3vh SC1eh  1 4.100000e-01    3.070000e+00
 SC3vh SX4eh  1 4.100000e-01    2.840000e+00
 SC3vh SX3eh  1 4.100000e-01    2.840000e+00
 SC3vh SX2eh  1 4.100000e-01    2.840000e+00
 SC3vh SX1eh  1 4.100000e-01    3.070000e+00
 SC2vh SC1vh  1 4.100000e-01    2.600000e+00
 SC2vh SX4vh  1 4.100000e-01    1.910000e+00
 SC2vh SX3vh  1 4.100000e-01    2.200000e+00
 SC2vh SX2vh  1 4.100000e-01    2.200000e+00
 SC2vh SX1vh  1 4.100000e-01    2.200000e+00
 SC2vh SC2eh  1 4.100000e-01    3.070000e+00
 SC2vh SC1eh  1 4.100000e-01    3.310000e+00
 SC2vh SX4eh  1 4.100000e-01    2.350000e+00
 SC2vh SX3eh  1 4.100000e-01    2.840000e+00
 SC2vh SX2eh  1 4.100000e-01    2.840000e+00
 SC2vh SX1eh  1 4.100000e-01    2.840000e+00
 SC1vh SX4vh  1 4.100000e-01    1.910000e+00
 SC1vh SX3vh  1 4.100000e-01    2.200000e+00
 SC1vh SX2vh  1 4.100000e-01    2.200000e+00
 SC1vh SX1vh  1 4.100000e-01    2.200000e+00
 SC1vh SC1eh  1 4.100000e-01    3.070000e+00
 SC1vh SX4eh  1 4.100000e-01    2.350000e+00
 SC1vh SX3eh  1 4.100000e-01    2.840000e+00
 SC1vh SX2eh  1 4.100000e-01    2.840000e+00
 SC1vh SX1eh  1 4.100000e-01    2.840000e+00
 SX4vh SX3vh  1 4.100000e-01    2.350000e+00
 SX4vh SX2vh  1 4.100000e-01    2.350000e+00
 SX4vh SX1vh  1 4.100000e-01    2.350000e+00
 SX4vh SX4eh  1 4.100000e-01    3.070000e+00
 SX4vh SX3eh  1 4.100000e-01    3.070000e+00
 SX4vh SX2eh  1 4.100000e-01    3.070000e+00
 SX4vh SX1eh  1 4.100000e-01    3.070000e+00
 SX3vh SX2vh  1 4.100000e-01    2.600000e+00
 SX3vh SX1vh  1 4.100000e-01    2.600000e+00
 SX3vh SX3eh  1 4.100000e-01    3.070000e+00
 SX3vh SX2eh  1 4.100000e-01    3.310000e+00
 SX3vh SX1eh  1 4.100000e-01    3.310000e+00
 SX2vh SX1vh  1 4.100000e-01    2.600000e+00
 SX2vh SX2eh  1 4.100000e-01    3.310000e+00
 SX2vh SX1eh  1 4.100000e-01    3.310000e+00
 SX1vh SX1eh  1 4.100000e-01    3.550000e+00
 SC6eh SC5vh  1 4.100000e-01    3.070000e+00
 SC6eh SC4vh  1 4.100000e-01    3.070000e+00
 SC6eh SC3vh  1 4.100000e-01    2.840000e+00
 SC6eh SC2vh  1 4.100000e-01    2.600000e+00
 SC6eh SC1vh  1 4.100000e-01    2.350000e+00
 SC6eh SX4vh  1 4.100000e-01    3.070000e+00
 SC6eh SX3vh  1 4.100000e-01    3.070000e+00
 SC6eh SX2vh  1 4.100000e-01    3.070000e+00
 SC6eh SX1vh  1 4.100000e-01    3.070000e+00
 SC6eh SC5eh  1 4.100000e-01    2.350000e+00
 SC6eh SC4eh  1 4.100000e-01    2.350000e+00
 SC6eh SC3eh  1 4.100000e-01    2.200000e+00
 SC6eh SC2eh  1 4.100000e-01    2.040000e+00
 SC6eh SC1eh  1 4.100000e-01    1.910000e+00
 SC6eh SX4eh  1 4.100000e-01    2.350000e+00
 SC6eh SX3eh  1 4.100000e-01    2.350000e+00
 SC6eh SX2eh  1 4.100000e-01    2.350000e+00
 SC6eh SX1eh  1 4.100000e-01    2.350000e+00
 SC5eh SC4vh  1 4.100000e-01    3.070000e+00
 SC5eh SC3vh  1 4.100000e-01    2.840000e+00
 SC5eh SC2vh  1 4.100000e-01    2.600000e+00
 SC5eh SC1vh  1 4.100000e-01    2.600000e+00
 SC5eh SX4vh  1 4.100000e-01    2.840000e+00
 SC5eh SX3vh  1 4.100000e-01    2.840000e+00
 SC5eh SX2vh  1 4.100000e-01    2.840000e+00
 SC5eh SX1vh  1 4.100000e-01    3.070000e+00
 SC5eh SC4eh  1 4.100000e-01    2.350000e+00
 SC5eh SC3eh  1 4.100000e-01    2.200000e+00
 SC5eh SC2eh  1 4.100000e-01    2.040000e+00
 SC5eh SC1eh  1 4.100000e-01    2.040000e+00
 SC5eh SX4eh  1 4.100000e-01    2.200000e+00
 SC5eh SX3eh  1 4.100000e-01    2.200000e+00
 SC5eh SX2eh  1 4.100000e-01    2.200000e+00
 SC5eh SX1eh  1 4.100000e-01    2.350000e+00
 SC4eh SC3vh  1 4.100000e-01    3.070000e+00
 SC4eh SC2vh  1 4.100000e-01    2.840000e+00
 SC4eh SC1vh  1 4.100000e-01    2.600000e+00
 SC4eh SX4vh  1 4.100000e-01    2.840000e+00
 SC4eh SX3vh  1 4.100000e-01    2.840000e+00
 SC4eh SX2vh  1 4.100000e-01    2.840000e+00
 SC4eh SX1vh  1 4.100000e-01    3.070000e+00
 SC4eh SC3eh  1 4.100000e-01    2.350000e+00
 SC4eh SC2eh  1 4.100000e-01    2.200000e+00
 SC4eh SC1eh  1 4.100000e-01    2.040000e+00
 SC4eh SX4eh  1 4.100000e-01    2.200000e+00
 SC4eh SX3eh  1 4.100000e-01    2.200000e+00
 SC4eh SX2eh  1 4.100000e-01    2.200000e+00
 SC4eh SX1eh  1 4.100000e-01    2.350000e+00
 SC3eh SC2vh  1 4.100000e-01    3.070000e+00
 SC3eh SC1vh  1 4.100000e-01    3.070000e+00
 SC3eh SX4vh  1 4.100000e-01    2.840000e+00
 SC3eh SX3vh  1 4.100000e-01    2.840000e+00
 SC3eh SX2vh  1 4.100000e-01    2.840000e+00
 SC3eh SX1vh  1 4.100000e-01    3.070000e+00
 SC3eh SC2eh  1 4.100000e-01    2.350000e+00
 SC3eh SC1eh  1 4.100000e-01    2.350000e+00
 SC3eh SX4eh  1 4.100000e-01    2.200000e+00
 SC3eh SX3eh  1 4.100000e-01    2.200000e+00
 SC3eh SX2eh  1 4.100000e-01    2.200000e+00
 SC3eh SX1eh  1 4.100000e-01    2.350000e+00
 SC2eh SC1vh  1 4.100000e-01    3.310000e+00
 SC2eh SX4vh  1 4.100000e-01    2.350000e+00
 SC2eh SX3vh  1 4.100000e-01    2.840000e+00
 SC2eh SX2vh  1 4.100000e-01    2.840000e+00
 SC2eh SX1vh  1 4.100000e-01    2.840000e+00
 SC2eh SC1eh  1 4.100000e-01    2.600000e+00
 SC2eh SX4eh  1 4.100000e-01    1.910000e+00
 SC2eh SX3eh  1 4.100000e-01    2.200000e+00
 SC2eh SX2eh  1 4.100000e-01    2.200000e+00
 SC2eh SX1eh  1 4.100000e-01    2.200000e+00
 SC1eh SX4vh  1 4.100000e-01    2.350000e+00
 SC1eh SX3vh  1 4.100000e-01    2.840000e+00
 SC1eh SX2vh  1 4.100000e-01    2.840000e+00
 SC1eh SX1vh  1 4.100000e-01    2.840000e+00
 SC1eh SX4eh  1 4.100000e-01    1.910000e+00
 SC1eh SX3eh  1 4.100000e-01    2.200000e+00
 SC1eh SX2eh  1 4.100000e-01    2.200000e+00
 SC1eh SX1eh  1 4.100000e-01    2.200000e+00
 SX4eh SX3vh  1 4.100000e-01    3.070000e+00
 SX4eh SX2vh  1 4.100000e-01    3.070000e+00
 SX4eh SX1vh  1 4.100000e-01    3.070000e+00
 SX4eh SX3eh  1 4.100000e-01    2.350000e+00
 SX4eh SX2eh  1 4.100000e-01    2.350000e+00
 SX4eh SX1eh  1 4.100000e-01    2.350000e+00
 SX3eh SX2vh  1 4.100000e-01    3.310000e+00
 SX3eh SX1vh  1 4.100000e-01    3.310000e+00
 SX3eh SX2eh  1 4.100000e-01    2.600000e+00
 SX3eh SX1eh  1 4.100000e-01    2.600000e+00
 SX2eh SX1vh  1 4.100000e-01    3.310000e+00
 SX2eh SX1eh  1 4.100000e-01    2.600000e+00
  SP6h  SC6h  1 4.100000e-01    1.910000e+00
  SP6h  SC5h  1 4.100000e-01    1.750000e+00
  SP6h  SC4h  1 4.140000e-01    1.560000e+00
  SP6h  SC3h  1 4.180000e-01    1.400000e+00
  SP6h  SC2h  1 4.180000e-01    1.400000e+00
  SP6h  SC1h  1 4.530000e-01    1.150000e+00
  SP6h  SX4h  1 4.100000e-01    2.040000e+00
  SP6h  SX3h  1 4.100000e-01    2.040000e+00
  SP6h  SX2h  1 4.100000e-01    1.910000e+00
  SP6h  SX1h  1 4.100000e-01    1.750000e+00
  SP5h  SC6h  1 4.100000e-01    1.910000e+00
  SP5h  SC5h  1 4.100000e-01    1.910000e+00
  SP5h  SC4h  1 4.100000e-01    1.750000e+00
  SP5h  SC3h  1 4.140000e-01    1.560000e+00
  SP5h  SC2h  1 4.140000e-01    1.560000e+00
  SP5h  SC1h  1 4.180000e-01    1.400000e+00
  SP5h  SX4h  1 4.100000e-01    2.200000e+00
  SP5h  SX3h  1 4.100000e-01    2.040000e+00
  SP5h  SX2h  1 4.100000e-01    2.040000e+00
  SP5h  SX1h  1 4.100000e-01    1.750000e+00
  SP4h  SC6h  1 4.100000e-01    2.040000e+00
  SP4h  SC5h  1 4.100000e-01    1.910000e+00
  SP4h  SC4h  1 4.100000e-01    1.750000e+00
  SP4h  SC3h  1 4.140000e-01    1.560000e+00
  SP4h  SC2h  1 4.140000e-01    1.560000e+00
  SP4h  SC1h  1 4.180000e-01    1.400000e+00
  SP4h  SX4h  1 4.100000e-01    2.200000e+00
  SP4h  SX3h  1 4.100000e-01    2.040000e+00
  SP4h  SX2h  1 4.100000e-01    2.040000e+00
  SP4h  SX1h  1 4.100000e-01    1.910000e+00
  SP3h  SC6h  1 4.100000e-01    2.200000e+00
  SP3h  SC5h  1 4.100000e-01    2.040000e+00
  SP3h  SC4h  1 4.100000e-01    1.910000e+00
  SP3h  SC3h  1 4.140000e-01    1.560000e+00
  SP3h  SC2h  1 4.140000e-01    1.560000e+00
  SP3h  SC1h  1 4.180000e-01    1.400000e+00
  SP3h  SX4h  1 4.100000e-01    2.200000e+00
  SP3h  SX3h  1 4.100000e-01    2.200000e+00
  SP3h  SX2h  1 4.100000e-01    2.040000e+00
  SP3h  SX1h  1 4.100000e-01    1.910000e+00
  SP2h  SC6h  1 4.100000e-01    2.200000e+00
  SP2h  SC5h  1 4.100000e-01    2.040000e+00
  SP2h  SC4h  1 4.100000e-01    1.910000e+00
  SP2h  SC3h  1 4.100000e-01    1.750000e+00
  SP2h  SC2h  1 4.100000e-01    1.750000e+00
  SP2h  SC1h  1 4.140000e-01    1.560000e+00
  SP2h  SX4h  1 4.100000e-01    2.200000e+00
  SP2h  SX3h  1 4.100000e-01    2.200000e+00
  SP2h  SX2h  1 4.100000e-01    2.040000e+00
  SP2h  SX1h  1 4.100000e-01    1.910000e+00
  SP1h  SC6h  1 4.100000e-01    2.200000e+00
  SP1h  SC5h  1 4.100000e-01    2.040000e+00
  SP1h  SC4h  1 4.100000e-01    1.910000e+00
  SP1h  SC3h  1 4.100000e-01    1.750000e+00
  SP1h  SC2h  1 4.100000e-01    1.750000e+00
  SP1h  SC1h  1 4.140000e-01    1.560000e+00
  SP1h  SX4h  1 4.100000e-01    2.200000e+00
  SP1h  SX3h  1 4.100000e-01    2.200000e+00
  SP1h  SX2h  1 4.100000e-01    2.040000e+00
  SP1h  SX1h  1 4.100000e-01    1.910000e+00
  SN6h  SC6h  1 4.100000e-01    2.350000e+00
  SN6h  SC5h  1 4.100000e-01    2.200000e+00
  SN6h  SC4h  1 4.100000e-01    2.040000e+00
  SN6h  SC3h  1 4.100000e-01    1.910000e+00
  SN6h  SC2h  1 4.100000e-01    1.910000e+00
  SN6h  SC1h  1 4.100000e-01    1.750000e+00
  SN6h  SX4h  1 4.100000e-01    2.350000e+00
  SN6h  SX3h  1 4.100000e-01    2.200000e+00
  SN6h  SX2h  1 4.100000e-01    2.040000e+00
  SN6h  SX1h  1 4.100000e-01    1.910000e+00
  SN5h  SC6h  1 4.100000e-01    2.350000e+00
  SN5h  SC5h  1 4.100000e-01    2.200000e+00
  SN5h  SC4h  1 4.100000e-01    2.040000e+00
  SN5h  SC3h  1 4.100000e-01    2.040000e+00
  SN5h  SC2h  1 4.100000e-01    1.910000e+00
  SN5h  SC1h  1 4.100000e-01    1.750000e+00
  SN5h  SX4h  1 4.100000e-01    2.600000e+00
  SN5h  SX3h  1 4.100000e-01    2.350000e+00
  SN5h  SX2h  1 4.100000e-01    2.200000e+00
  SN5h  SX1h  1 4.100000e-01    2.040000e+00
  SN4h  SC6h  1 4.100000e-01    2.350000e+00
  SN4h  SC5h  1 4.100000e-01    2.200000e+00
  SN4h  SC4h  1 4.100000e-01    2.200000e+00
  SN4h  SC3h  1 4.100000e-01    2.040000e+00
  SN4h  SC2h  1 4.100000e-01    1.910000e+00
  SN4h  SC1h  1 4.100000e-01    1.750000e+00
  SN4h  SX4h  1 4.100000e-01    2.840000e+00
  SN4h  SX3h  1 4.100000e-01    2.600000e+00
  SN4h  SX2h  1 4.100000e-01    2.200000e+00
  SN4h  SX1h  1 4.100000e-01    2.040000e+00
  SN3h  SC6h  1 4.100000e-01    2.350000e+00
  SN3h  SC5h  1 4.100000e-01    2.200000e+00
  SN3h  SC4h  1 4.100000e-01    2.200000e+00
  SN3h  SC3h  1 4.100000e-01    2.040000e+00
  SN3h  SC2h  1 4.100000e-01    2.040000e+00
  SN3h  SC1h  1 4.100000e-01    1.910000e+00
  SN3h  SX4h  1 4.100000e-01    2.600000e+00
  SN3h  SX3h  1 4.100000e-01    2.350000e+00
  SN3h  SX2h  1 4.100000e-01    2.200000e+00
  SN3h  SX1h  1 4.100000e-01    2.200000e+00
  SN2h  SC6h  1 4.100000e-01    2.350000e+00
  SN2h  SC5h  1 4.100000e-01    2.200000e+00
  SN2h  SC4h  1 4.100000e-01    2.200000e+00
  SN2h  SC3h  1 4.100000e-01    2.200000e+00
  SN2h  SC2h  1 4.100000e-01    2.040000e+00
  SN2h  SC1h  1 4.100000e-01    1.910000e+00
  SN2h  SX4h  1 4.100000e-01    2.600000e+00
  SN2h  SX3h  1 4.100000e-01    2.350000e+00
  SN2h  SX2h  1 4.100000e-01    2.200000e+00
  SN2h  SX1h  1 4.100000e-01    2.200000e+00
  SN1h  SC6h  1 4.100000e-01    2.600000e+00
  SN1h  SC5h  1 4.100000e-01    2.350000e+00
  SN1h  SC4h  1 4.100000e-01    2.350000e+00
  SN1h  SC3h  1 4.100000e-01    2.200000e+00
  SN1h  SC2h  1 4.100000e-01    2.040000e+00
  SN1h  SC1h  1 4.100000e-01    1.910000e+00
  SN1h  SX4h  1 4.100000e-01    2.350000e+00
  SN1h  SX3h  1 4.100000e-01    2.350000e+00
  SN1h  SX2h  1 4.100000e-01    2.200000e+00
  SN1h  SX1h  1 4.100000e-01    2.200000e+00
 SP6dh SC6vh  1 4.100000e-01    1.750000e+00
 SP6dh SC5vh  1 4.140000e-01    1.560000e+00
 SP6dh SC4vh  1 4.180000e-01    1.400000e+00
 SP6dh SC3vh  1 4.210000e-01    1.250000e+00
 SP6dh SC2vh  1 4.210000e-01    1.250000e+00
 SP6dh SC1vh  1 4.960000e-01    1.050000e+00
 SP6dh SX4vh  1 4.100000e-01    1.910000e+00
 SP6dh SX3vh  1 4.100000e-01    1.910000e+00
 SP6dh SX2vh  1 4.100000e-01    1.750000e+00
 SP6dh SX1vh  1 4.140000e-01    1.560000e+00
 SP6dh SC6eh  1 4.100000e-01    2.040000e+00
 SP6dh SC5eh  1 4.100000e-01    1.910000e+00
 SP6dh SC4eh  1 4.100000e-01    1.750000e+00
 SP6dh SC3eh  1 4.140000e-01    1.560000e+00
 SP6dh SC2eh  1 4.140000e-01    1.560000e+00
 SP6dh SC1eh  1 4.210000e-01    1.250000e+00
 SP6dh SX4eh  1 4.100000e-01    2.200000e+00
 SP6dh SX3eh  1 4.100000e-01    2.200000e+00
 SP6dh SX2eh  1 4.100000e-01    2.040000e+00
 SP6dh SX1eh  1 4.100000e-01    1.910000e+00
 SP5dh SC6vh  1 4.100000e-01    1.750000e+00
 SP5dh SC5vh  1 4.100000e-01    1.750000e+00
 SP5dh SC4vh  1 4.140000e-01    1.560000e+00
 SP5dh SC3vh  1 4.180000e-01    1.400000e+00
 SP5dh SC2vh  1 4.180000e-01    1.400000e+00
 SP5dh SC1vh  1 4.210000e-01    1.250000e+00
 SP5dh SX4vh  1 4.100000e-01    2.040000e+00
 SP5dh SX3vh  1 4.100000e-01    1.910000e+00
 SP5dh SX2vh  1 4.100000e-01    1.910000e+00
 SP5dh SX1vh  1 4.140000e-01    1.560000e+00
 SP5dh SC6eh  1 4.100000e-01    2.040000e+00
 SP5dh SC5eh  1 4.100000e-01    2.040000e+00
 SP5dh SC4eh  1 4.100000e-01    1.910000e+00
 SP5dh SC3eh  1 4.100000e-01    1.750000e+00
 SP5dh SC2eh  1 4.100000e-01    1.750000e+00
 SP5dh SC1eh  1 4.140000e-01    1.560000e+00
 SP5dh SX4eh  1 4.100000e-01    2.350000e+00
 SP5dh SX3eh  1 4.100000e-01    2.200000e+00
 SP5dh SX2eh  1 4.100000e-01    2.200000e+00
 SP5dh SX1eh  1 4.100000e-01    1.910000e+00
 SP4dh SC6vh  1 4.100000e-01    1.910000e+00
 SP4dh SC5vh  1 4.100000e-01    1.750000e+00
 SP4dh SC4vh  1 4.140000e-01    1.560000e+00
 SP4dh SC3vh  1 4.180000e-01    1.400000e+00
 SP4dh SC2vh  1 4.180000e-01    1.400000e+00
 SP4dh SC1vh  1 4.210000e-01    1.250000e+00
 SP4dh SX4vh  1 4.100000e-01    2.040000e+00
 SP4dh SX3vh  1 4.100000e-01    1.910000e+00
 SP4dh SX2vh  1 4.100000e-01    1.910000e+00
 SP4dh SX1vh  1 4.100000e-01    1.750000e+00
 SP4dh SC6eh  1 4.100000e-01    2.200000e+00
 SP4dh SC5eh  1 4.100000e-01    2.040000e+00
 SP4dh SC4eh  1 4.100000e-01    1.910000e+00
 SP4dh SC3eh  1 4.100000e-01    1.750000e+00
 SP4dh SC2eh  1 4.100000e-01    1.750000e+00
 SP4dh SC1eh  1 4.140000e-01    1.560000e+00
 SP4dh SX4eh  1 4.100000e-01    2.350000e+00
 SP4dh SX3eh  1 4.100000e-01    2.200000e+00
 SP4dh SX2eh  1 4.100000e-01    2.200000e+00
 SP4dh SX1eh  1 4.100000e-01    2.040000e+00
 SP3dh SC6vh  1 4.100000e-01    2.040000e+00
 SP3dh SC5vh  1 4.100000e-01    1.910000e+00
 SP3dh SC4vh  1 4.100000e-01    1.750000e+00
 SP3dh SC3vh  1 4.180000e-01    1.400000e+00
 SP3dh SC2vh  1 4.180000e-01    1.400000e+00
 SP3dh SC1vh  1 4.210000e-01    1.250000e+00
 SP3dh SX4vh  1 4.100000e-01    2.040000e+00
 SP3dh SX3vh  1 4.100000e-01    2.040000e+00
 SP3dh SX2vh  1 4.100000e-01    1.910000e+00
 SP3dh SX1vh  1 4.100000e-01    1.750000e+00
 SP3dh SC6eh  1 4.100000e-01    2.350000e+00
 SP3dh SC5eh  1 4.100000e-01    2.200000e+00
 SP3dh SC4eh  1 4.100000e-01    2.040000e+00
 SP3dh SC3eh  1 4.100000e-01    1.750000e+00
 SP3dh SC2eh  1 4.100000e-01    1.750000e+00
 SP3dh SC1eh  1 4.140000e-01    1.560000e+00
 SP3dh SX4eh  1 4.100000e-01    2.350000e+00
 SP3dh SX3eh  1 4.100000e-01    2.350000e+00
 SP3dh SX2eh  1 4.100000e-01    2.200000e+00
 SP3dh SX1eh  1 4.100000e-01    2.040000e+00
 SP2dh SC6vh  1 4.100000e-01    2.040000e+00
 SP2dh SC5vh  1 4.100000e-01    1.910000e+00
 SP2dh SC4vh  1 4.100000e-01    1.750000e+00
 SP2dh SC3vh  1 4.140000e-01    1.560000e+00
 SP2dh SC2vh  1 4.140000e-01    1.560000e+00
 SP2dh SC1vh  1 4.180000e-01    1.400000e+00
 SP2dh SX4vh  1 4.100000e-01    2.040000e+00
 SP2dh SX3vh  1 4.100000e-01    2.040000e+00
 SP2dh SX2vh  1 4.100000e-01    1.910000e+00
 SP2dh SX1vh  1 4.100000e-01    1.750000e+00
 SP2dh SC6eh  1 4.100000e-01    2.350000e+00
 SP2dh SC5eh  1 4.100000e-01    2.200000e+00
 SP2dh SC4eh  1 4.100000e-01    2.040000e+00
 SP2dh SC3eh  1 4.100000e-01    1.910000e+00
 SP2dh SC2eh  1 4.100000e-01    1.910000e+00
 SP2dh SC1eh  1 4.100000e-01    1.750000e+00
 SP2dh SX4eh  1 4.100000e-01    2.350000e+00
 SP2dh SX3eh  1 4.100000e-01    2.350000e+00
 SP2dh SX2eh  1 4.100000e-01    2.200000e+00
 SP2dh SX1eh  1 4.100000e-01    2.040000e+00
 SP1dh SC6vh  1 4.100000e-01    2.040000e+00
 SP1dh SC5vh  1 4.100000e-01    1.910000e+00
 SP1dh SC4vh  1 4.100000e-01    1.750000e+00
 SP1dh SC3vh  1 4.140000e-01    1.560000e+00
 SP1dh SC2vh  1 4.140000e-01    1.560000e+00
 SP1dh SC1vh  1 4.180000e-01    1.400000e+00
 SP1dh SX4vh  1 4.100000e-01    2.040000e+00
 SP1dh SX3vh  1 4.100000e-01    2.040000e+00
 SP1dh SX2vh  1 4.100000e-01    1.910000e+00
 SP1dh SX1vh  1 4.100000e-01    1.750000e+00
 SP1dh SC6eh  1 4.100000e-01    2.350000e+00
 SP1dh SC5eh  1 4.100000e-01    2.200000e+00
 SP1dh SC4eh  1 4.100000e-01    2.040000e+00
 SP1dh SC3eh  1 4.100000e-01    1.910000e+00
 SP1dh SC2eh  1 4.100000e-01    1.910000e+00
 SP1dh SC1eh  1 4.100000e-01    1.750000e+00
 SP1dh SX4eh  1 4.100000e-01    2.350000e+00
 SP1dh SX3eh  1 4.100000e-01    2.350000e+00
 SP1dh SX2eh  1 4.100000e-01    2.200000e+00
 SP1dh SX1eh  1 4.100000e-01    2.040000e+00
 SN6dh SC6vh  1 4.100000e-01    2.200000e+00
 SN6dh SC5vh  1 4.100000e-01    2.040000e+00
 SN6dh SC4vh  1 4.100000e-01    1.910000e+00
 SN6dh SC3vh  1 4.100000e-01    1.750000e+00
 SN6dh SC2vh  1 4.100000e-01    1.750000e+00
 SN6dh SC1vh  1 4.140000e-01    1.560000e+00
 SN6dh SX4vh  1 4.100000e-01    2.200000e+00
 SN6dh SX3vh  1 4.100000e-01    2.040000e+00
 SN6dh SX2vh  1 4.100000e-01    1.910000e+00
 SN6dh SX1vh  1 4.100000e-01    1.750000e+00
 SN6dh SC6eh  1 4.100000e-01    2.600000e+00
 SN6dh SC5eh  1 4.100000e-01    2.350000e+00
 SN6dh SC4eh  1 4.100000e-01    2.200000e+00
 SN6dh SC3eh  1 4.100000e-01    2.040000e+00
 SN6dh SC2eh  1 4.100000e-01    2.040000e+00
 SN6dh SC1eh  1 4.100000e-01    1.910000e+00
 SN6dh SX4eh  1 4.100000e-01    2.600000e+00
 SN6dh SX3eh  1 4.100000e-01    2.350000e+00
 SN6dh SX2eh  1 4.100000e-01    2.200000e+00
 SN6dh SX1eh  1 4.100000e-01    2.040000e+00
 SN5dh SC6vh  1 4.100000e-01    2.200000e+00
 SN5dh SC5vh  1 4.100000e-01    2.040000e+00
 SN5dh SC4vh  1 4.100000e-01    1.910000e+00
 SN5dh SC3vh  1 4.100000e-01    1.910000e+00
 SN5dh SC2vh  1 4.100000e-01    1.750000e+00
 SN5dh SC1vh  1 4.140000e-01    1.560000e+00
 SN5dh SX4vh  1 4.100000e-01    2.350000e+00
 SN5dh SX3vh  1 4.100000e-01    2.200000e+00
 SN5dh SX2vh  1 4.100000e-01    2.040000e+00
 SN5dh SX1vh  1 4.100000e-01    1.910000e+00
 SN5dh SC6eh  1 4.100000e-01    2.600000e+00
 SN5dh SC5eh  1 4.100000e-01    2.350000e+00
 SN5dh SC4eh  1 4.100000e-01    2.200000e+00
 SN5dh SC3eh  1 4.100000e-01    2.200000e+00
 SN5dh SC2eh  1 4.100000e-01    2.040000e+00
 SN5dh SC1eh  1 4.100000e-01    1.910000e+00
 SN5dh SX4eh  1 4.100000e-01    2.840000e+00
 SN5dh SX3eh  1 4.100000e-01    2.600000e+00
 SN5dh SX2eh  1 4.100000e-01    2.350000e+00
 SN5dh SX1eh  1 4.100000e-01    2.200000e+00
 SN4dh SC6vh  1 4.100000e-01    2.200000e+00
 SN4dh SC5vh  1 4.100000e-01    2.040000e+00
 SN4dh SC4vh  1 4.100000e-01    2.040000e+00
 SN4dh SC3vh  1 4.100000e-01    1.910000e+00
 SN4dh SC2vh  1 4.100000e-01    1.750000e+00
 SN4dh SC1vh  1 4.140000e-01    1.560000e+00
 SN4dh SX4vh  1 4.100000e-01    2.600000e+00
 SN4dh SX3vh  1 4.100000e-01    2.350000e+00
 SN4dh SX2vh  1 4.100000e-01    2.040000e+00
 SN4dh SX1vh  1 4.100000e-01    1.910000e+00
 SN4dh SC6eh  1 4.100000e-01    2.600000e+00
 SN4dh SC5eh  1 4.100000e-01    2.350000e+00
 SN4dh SC4eh  1 4.100000e-01    2.350000e+00
 SN4dh SC3eh  1 4.100000e-01    2.200000e+00
 SN4dh SC2eh  1 4.100000e-01    2.040000e+00
 SN4dh SC1eh  1 4.100000e-01    1.910000e+00
 SN4dh SX4eh  1 4.100000e-01    3.070000e+00
 SN4dh SX3eh  1 4.100000e-01    2.840000e+00
 SN4dh SX2eh  1 4.100000e-01    2.350000e+00
 SN4dh SX1eh  1 4.100000e-01    2.200000e+00
 SN3dh SC6vh  1 4.100000e-01    2.200000e+00
 SN3dh SC5vh  1 4.100000e-01    2.040000e+00
 SN3dh SC4vh  1 4.100000e-01    2.040000e+00
 SN3dh SC3vh  1 4.100000e-01    1.910000e+00
 SN3dh SC2vh  1 4.100000e-01    1.910000e+00
 SN3dh SC1vh  1 4.100000e-01    1.750000e+00
 SN3dh SX4vh  1 4.100000e-01    2.350000e+00
 SN3dh SX3vh  1 4.100000e-01    2.200000e+00
 SN3dh SX2vh  1 4.100000e-01    2.040000e+00
 SN3dh SX1vh  1 4.100000e-01    2.040000e+00
 SN3dh SC6eh  1 4.100000e-01    2.600000e+00
 SN3dh SC5eh  1 4.100000e-01    2.350000e+00
 SN3dh SC4eh  1 4.100000e-01    2.350000e+00
 SN3dh SC3eh  1 4.100000e-01    2.200000e+00
 SN3dh SC2eh  1 4.100000e-01    2.200000e+00
 SN3dh SC1eh  1 4.100000e-01    2.040000e+00
 SN3dh SX4eh  1 4.100000e-01    2.840000e+00
 SN3dh SX3eh  1 4.100000e-01    2.600000e+00
 SN3dh SX2eh  1 4.100000e-01    2.350000e+00
 SN3dh SX1eh  1 4.100000e-01    2.350000e+00
 SN2dh SC6vh  1 4.100000e-01    2.200000e+00
 SN2dh SC5vh  1 4.100000e-01    2.040000e+00
 SN2dh SC4vh  1 4.100000e-01    2.040000e+00
 SN2dh SC3vh  1 4.100000e-01    2.040000e+00
 SN2dh SC2vh  1 4.100000e-01    1.910000e+00
 SN2dh SC1vh  1 4.100000e-01    1.750000e+00
 SN2dh SX4vh  1 4.100000e-01    2.350000e+00
 SN2dh SX3vh  1 4.100000e-01    2.200000e+00
 SN2dh SX2vh  1 4.100000e-01    2.040000e+00
 SN2dh SX1vh  1 4.100000e-01    2.040000e+00
 SN2dh SC6eh  1 4.100000e-01    2.600000e+00
 SN2dh SC5eh  1 4.100000e-01    2.350000e+00
 SN2dh SC4eh  1 4.100000e-01    2.350000e+00
 SN2dh SC3eh  1 4.100000e-01    2.350000e+00
 SN2dh SC2eh  1 4.100000e-01    2.200000e+00
 SN2dh SC1eh  1 4.100000e-01    2.040000e+00
 SN2dh SX4eh  1 4.100000e-01    2.840000e+00
 SN2dh SX3eh  1 4.100000e-01    2.600000e+00
 SN2dh SX2eh  1 4.100000e-01    2.350000e+00
 SN2dh SX1eh  1 4.100000e-01    2.350000e+00
 SN1dh SC6vh  1 4.100000e-01    2.350000e+00
 SN1dh SC5vh  1 4.100000e-01    2.200000e+00
 SN1dh SC4vh  1 4.100000e-01    2.200000e+00
 SN1dh SC3vh  1 4.100000e-01    2.040000e+00
 SN1dh SC2vh  1 4.100000e-01    1.910000e+00
 SN1dh SC1vh  1 4.100000e-01    1.750000e+00
 SN1dh SX4vh  1 4.100000e-01    2.200000e+00
 SN1dh SX3vh  1 4.100000e-01    2.200000e+00
 SN1dh SX2vh  1 4.100000e-01    2.040000e+00
 SN1dh SX1vh  1 4.100000e-01    2.040000e+00
 SN1dh SC6eh  1 4.100000e-01    2.840000e+00
 SN1dh SC5eh  1 4.100000e-01    2.600000e+00
 SN1dh SC4eh  1 4.100000e-01    2.600000e+00
 SN1dh SC3eh  1 4.100000e-01    2.350000e+00
 SN1dh SC2eh  1 4.100000e-01    2.200000e+00
 SN1dh SC1eh  1 4.100000e-01    2.040000e+00
 SN1dh SX4eh  1 4.100000e-01    2.600000e+00
 SN1dh SX3eh  1 4.100000e-01    2.600000e+00
 SN1dh SX2eh  1 4.100000e-01    2.350000e+00
 SN1dh SX1eh  1 4.100000e-01    2.350000e+00
 SP6ah SC6vh  1 4.100000e-01    2.040000e+00
 SP6ah SC5vh  1 4.100000e-01    1.910000e+00
 SP6ah SC4vh  1 4.100000e-01    1.750000e+00
 SP6ah SC3vh  1 4.140000e-01    1.560000e+00
 SP6ah SC2vh  1 4.140000e-01    1.560000e+00
 SP6ah SC1vh  1 4.210000e-01    1.250000e+00
 SP6ah SX4vh  1 4.100000e-01    2.200000e+00
 SP6ah SX3vh  1 4.100000e-01    2.200000e+00
 SP6ah SX2vh  1 4.100000e-01    2.040000e+00
 SP6ah SX1vh  1 4.100000e-01    1.910000e+00
 SP6ah SC6eh  1 4.100000e-01    1.750000e+00
 SP6ah SC5eh  1 4.140000e-01    1.560000e+00
 SP6ah SC4eh  1 4.180000e-01    1.400000e+00
 SP6ah SC3eh  1 4.210000e-01    1.250000e+00
 SP6ah SC2eh  1 4.210000e-01    1.250000e+00
 SP6ah SC1eh  1 4.960000e-01    1.050000e+00
 SP6ah SX4eh  1 4.100000e-01    1.910000e+00
 SP6ah SX3eh  1 4.100000e-01    1.910000e+00
 SP6ah SX2eh  1 4.100000e-01    1.750000e+00
 SP6ah SX1eh  1 4.140000e-01    1.560000e+00
 SP5ah SC6vh  1 4.100000e-01    2.040000e+00
 SP5ah SC5vh  1 4.100000e-01    2.040000e+00
 SP5ah SC4vh  1 4.100000e-01    1.910000e+00
 SP5ah SC3vh  1 4.100000e-01    1.750000e+00
 SP5ah SC2vh  1 4.100000e-01    1.750000e+00
 SP5ah SC1vh  1 4.140000e-01    1.560000e+00
 SP5ah SX4vh  1 4.100000e-01    2.350000e+00
 SP5ah SX3vh  1 4.100000e-01    2.200000e+00
 SP5ah SX2vh  1 4.100000e-01    2.200000e+00
 SP5ah SX1vh  1 4.100000e-01    1.910000e+00
 SP5ah SC6eh  1 4.100000e-01    1.750000e+00
 SP5ah SC5eh  1 4.100000e-01    1.750000e+00
 SP5ah SC4eh  1 4.140000e-01    1.560000e+00
 SP5ah SC3eh  1 4.180000e-01    1.400000e+00
 SP5ah SC2eh  1 4.180000e-01    1.400000e+00
 SP5ah SC1eh  1 4.210000e-01    1.250000e+00
 SP5ah SX4eh  1 4.100000e-01    2.040000e+00
 SP5ah SX3eh  1 4.100000e-01    1.910000e+00
 SP5ah SX2eh  1 4.100000e-01    1.910000e+00
 SP5ah SX1eh  1 4.140000e-01    1.560000e+00
 SP4ah SC6vh  1 4.100000e-01    2.200000e+00
 SP4ah SC5vh  1 4.100000e-01    2.040000e+00
 SP4ah SC4vh  1 4.100000e-01    1.910000e+00
 SP4ah SC3vh  1 4.100000e-01    1.750000e+00
 SP4ah SC2vh  1 4.100000e-01    1.750000e+00
 SP4ah SC1vh  1 4.140000e-01    1.560000e+00
 SP4ah SX4vh  1 4.100000e-01    2.350000e+00
 SP4ah SX3vh  1 4.100000e-01    2.200000e+00
 SP4ah SX2vh  1 4.100000e-01    2.200000e+00
 SP4ah SX1vh  1 4.100000e-01    2.040000e+00
 SP4ah SC6eh  1 4.100000e-01    1.910000e+00
 SP4ah SC5eh  1 4.100000e-01    1.750000e+00
 SP4ah SC4eh  1 4.140000e-01    1.560000e+00
 SP4ah SC3eh  1 4.180000e-01    1.400000e+00
 SP4ah SC2eh  1 4.180000e-01    1.400000e+00
 SP4ah SC1eh  1 4.210000e-01    1.250000e+00
 SP4ah SX4eh  1 4.100000e-01    2.040000e+00
 SP4ah SX3eh  1 4.100000e-01    1.910000e+00
 SP4ah SX2eh  1 4.100000e-01    1.910000e+00
 SP4ah SX1eh  1 4.100000e-01    1.750000e+00
 SP3ah SC6vh  1 4.100000e-01    2.350000e+00
 SP3ah SC5vh  1 4.100000e-01    2.200000e+00
 SP3ah SC4vh  1 4.100000e-01    2.040000e+00
 SP3ah SC3vh  1 4.100000e-01    1.750000e+00
 SP3ah SC2vh  1 4.100000e-01    1.750000e+00
 SP3ah SC1vh  1 4.140000e-01    1.560000e+00
 SP3ah SX4vh  1 4.100000e-01    2.350000e+00
 SP3ah SX3vh  1 4.100000e-01    2.350000e+00
 SP3ah SX2vh  1 4.100000e-01    2.200000e+00
 SP3ah SX1vh  1 4.100000e-01    2.040000e+00
 SP3ah SC6eh  1 4.100000e-01    2.040000e+00
 SP3ah SC5eh  1 4.100000e-01    1.910000e+00
 SP3ah SC4eh  1 4.100000e-01    1.750000e+00
 SP3ah SC3eh  1 4.180000e-01    1.400000e+00
 SP3ah SC2eh  1 4.180000e-01    1.400000e+00
 SP3ah SC1eh  1 4.210000e-01    1.250000e+00
 SP3ah SX4eh  1 4.100000e-01    2.040000e+00
 SP3ah SX3eh  1 4.100000e-01    2.040000e+00
 SP3ah SX2eh  1 4.100000e-01    1.910000e+00
 SP3ah SX1eh  1 4.100000e-01    1.750000e+00
 SP2ah SC6vh  1 4.100000e-01    2.350000e+00
 SP2ah SC5vh  1 4.100000e-01    2.200000e+00
 SP2ah SC4vh  1 4.100000e-01    2.040000e+00
 SP2ah SC3vh  1 4.100000e-01    1.910000e+00
 SP2ah SC2vh  1 4.100000e-01    1.910000e+00
 SP2ah SC1vh  1 4.100000e-01    1.750000e+00
 SP2ah SX4vh  1 4.100000e-01    2.350000e+00
 SP2ah SX3vh  1 4.100000e-01    2.350000e+00
 SP2ah SX2vh  1 4.100000e-01    2.200000e+00
 SP2ah SX1vh  1 4.100000e-01    2.040000e+00
 SP2ah SC6eh  1 4.100000e-01    2.040000e+00
 SP2ah SC5eh  1 4.100000e-01    1.910000e+00
 SP2ah SC4eh  1 4.100000e-01    1.750000e+00
 SP2ah SC3eh  1 4.140000e-01    1.560000e+00
 SP2ah SC2eh  1 4.140000e-01    1.560000e+00
 SP2ah SC1eh  1 4.180000e-01    1.400000e+00
 SP2ah SX4eh  1 4.100000e-01    2.040000e+00
 SP2ah SX3eh  1 4.100000e-01    2.040000e+00
 SP2ah SX2eh  1 4.100000e-01    1.910000e+00
 SP2ah SX1eh  1 4.100000e-01    1.750000e+00
 SP1ah SC6vh  1 4.100000e-01    2.350000e+00
 SP1ah SC5vh  1 4.100000e-01    2.200000e+00
 SP1ah SC4vh  1 4.100000e-01    2.040000e+00
 SP1ah SC3vh  1 4.100000e-01    1.910000e+00
 SP1ah SC2vh  1 4.100000e-01    1.910000e+00
 SP1ah SC1vh  1 4.100000e-01    1.750000e+00
 SP1ah SX4vh  1 4.100000e-01    2.350000e+00
 SP1ah SX3vh  1 4.100000e-01    2.350000e+00
 SP1ah SX2vh  1 4.100000e-01    2.200000e+00
 SP1ah SX1vh  1 4.100000e-01    2.040000e+00
 SP1ah SC6eh  1 4.100000e-01    2.040000e+00
 SP1ah SC5eh  1 4.100000e-01    1.910000e+00
 SP1ah SC4eh  1 4.100000e-01    1.750000e+00
 SP1ah SC3eh  1 4.140000e-01    1.560000e+00
 SP1ah SC2eh  1 4.140000e-01    1.560000e+00
 SP1ah SC1eh  1 4.180000e-01    1.400000e+00
 SP1ah SX4eh  1 4.100000e-01    2.040000e+00
 SP1ah SX3eh  1 4.100000e-01    2.040000e+00
 SP1ah SX2eh  1 4.100000e-01    1.910000e+00
 SP1ah SX1eh  1 4.100000e-01    1.750000e+00
 SN6ah SC6vh  1 4.100000e-01    2.600000e+00
 SN6ah SC5vh  1 4.100000e-01    2.350000e+00
 SN6ah SC4vh  1 4.100000e-01    2.200000e+00
 SN6ah SC3vh  1 4.100000e-01    2.040000e+00
 SN6ah SC2vh  1 4.100000e-01    2.040000e+00
 SN6ah SC1vh  1 4.100000e-01    1.910000e+00
 SN6ah SX4vh  1 4.100000e-01    2.600000e+00
 SN6ah SX3vh  1 4.100000e-01    2.350000e+00
 SN6ah SX2vh  1 4.100000e-01    2.200000e+00
 SN6ah SX1vh  1 4.100000e-01    2.040000e+00
 SN6ah SC6eh  1 4.100000e-01    2.200000e+00
 SN6ah SC5eh  1 4.100000e-01    2.040000e+00
 SN6ah SC4eh  1 4.100000e-01    1.910000e+00
 SN6ah SC3eh  1 4.100000e-01    1.750000e+00
 SN6ah SC2eh  1 4.100000e-01    1.750000e+00
 SN6ah SC1eh  1 4.140000e-01    1.560000e+00
 SN6ah SX4eh  1 4.100000e-01    2.200000e+00
 SN6ah SX3eh  1 4.100000e-01    2.040000e+00
 SN6ah SX2eh  1 4.100000e-01    1.910000e+00
 SN6ah SX1eh  1 4.100000e-01    1.750000e+00
 SN5ah SC6vh  1 4.100000e-01    2.600000e+00
 SN5ah SC5vh  1 4.100000e-01    2.350000e+00
 SN5ah SC4vh  1 4.100000e-01    2.200000e+00
 SN5ah SC3vh  1 4.100000e-01    2.200000e+00
 SN5ah SC2vh  1 4.100000e-01    2.040000e+00
 SN5ah SC1vh  1 4.100000e-01    1.910000e+00
 SN5ah SX4vh  1 4.100000e-01    2.840000e+00
 SN5ah SX3vh  1 4.100000e-01    2.600000e+00
 SN5ah SX2vh  1 4.100000e-01    2.350000e+00
 SN5ah SX1vh  1 4.100000e-01    2.200000e+00
 SN5ah SC6eh  1 4.100000e-01    2.200000e+00
 SN5ah SC5eh  1 4.100000e-01    2.040000e+00
 SN5ah SC4eh  1 4.100000e-01    1.910000e+00
 SN5ah SC3eh  1 4.100000e-01    1.910000e+00
 SN5ah SC2eh  1 4.100000e-01    1.750000e+00
 SN5ah SC1eh  1 4.140000e-01    1.560000e+00
 SN5ah SX4eh  1 4.100000e-01    2.350000e+00
 SN5ah SX3eh  1 4.100000e-01    2.200000e+00
 SN5ah SX2eh  1 4.100000e-01    2.040000e+00
 SN5ah SX1eh  1 4.100000e-01    1.910000e+00
 SN4ah SC6vh  1 4.100000e-01    2.600000e+00
 SN4ah SC5vh  1 4.100000e-01    2.350000e+00
 SN4ah SC4vh  1 4.100000e-01    2.350000e+00
 SN4ah SC3vh  1 4.100000e-01    2.200000e+00
 SN4ah SC2vh  1 4.100000e-01    2.040000e+00
 SN4ah SC1vh  1 4.100000e-01    1.910000e+00
 SN4ah SX4vh  1 4.100000e-01    3.070000e+00
 SN4ah SX3vh  1 4.100000e-01    2.840000e+00
 SN4ah SX2vh  1 4.100000e-01    2.350000e+00
 SN4ah SX1vh  1 4.100000e-01    2.200000e+00
 SN4ah SC6eh  1 4.100000e-01    2.200000e+00
 SN4ah SC5eh  1 4.100000e-01    2.040000e+00
 SN4ah SC4eh  1 4.100000e-01    2.040000e+00
 SN4ah SC3eh  1 4.100000e-01    1.910000e+00
 SN4ah SC2eh  1 4.100000e-01    1.750000e+00
 SN4ah SC1eh  1 4.140000e-01    1.560000e+00
 SN4ah SX4eh  1 4.100000e-01    2.600000e+00
 SN4ah SX3eh  1 4.100000e-01    2.350000e+00
 SN4ah SX2eh  1 4.100000e-01    2.040000e+00
 SN4ah SX1eh  1 4.100000e-01    1.910000e+00
 SN3ah SC6vh  1 4.100000e-01    2.600000e+00
 SN3ah SC5vh  1 4.100000e-01    2.350000e+00
 SN3ah SC4vh  1 4.100000e-01    2.350000e+00
 SN3ah SC3vh  1 4.100000e-01    2.200000e+00
 SN3ah SC2vh  1 4.100000e-01    2.200000e+00
 SN3ah SC1vh  1 4.100000e-01    2.040000e+00
 SN3ah SX4vh  1 4.100000e-01    2.840000e+00
 SN3ah SX3vh  1 4.100000e-01    2.600000e+00
 SN3ah SX2vh  1 4.100000e-01    2.350000e+00
 SN3ah SX1vh  1 4.100000e-01    2.350000e+00
 SN3ah SC6eh  1 4.100000e-01    2.200000e+00
 SN3ah SC5eh  1 4.100000e-01    2.040000e+00
 SN3ah SC4eh  1 4.100000e-01    2.040000e+00
 SN3ah SC3eh  1 4.100000e-01    1.910000e+00
 SN3ah SC2eh  1 4.100000e-01    1.910000e+00
 SN3ah SC1eh  1 4.100000e-01    1.750000e+00
 SN3ah SX4eh  1 4.100000e-01    2.350000e+00
 SN3ah SX3eh  1 4.100000e-01    2.200000e+00
 SN3ah SX2eh  1 4.100000e-01    2.040000e+00
 SN3ah SX1eh  1 4.100000e-01    2.040000e+00
 SN2ah SC6vh  1 4.100000e-01    2.600000e+00
 SN2ah SC5vh  1 4.100000e-01    2.350000e+00
 SN2ah SC4vh  1 4.100000e-01    2.350000e+00
 SN2ah SC3vh  1 4.100000e-01    2.350000e+00
 SN2ah SC2vh  1 4.100000e-01    2.200000e+00
 SN2ah SC1vh  1 4.100000e-01    2.040000e+00
 SN2ah SX4vh  1 4.100000e-01    2.840000e+00
 SN2ah SX3vh  1 4.100000e-01    2.600000e+00
 SN2ah SX2vh  1 4.100000e-01    2.350000e+00
 SN2ah SX1vh  1 4.100000e-01    2.350000e+00
 SN2ah SC6eh  1 4.100000e-01    2.200000e+00
 SN2ah SC5eh  1 4.100000e-01    2.040000e+00
 SN2ah SC4eh  1 4.100000e-01    2.040000e+00
 SN2ah SC3eh  1 4.100000e-01    2.040000e+00
 SN2ah SC2eh  1 4.100000e-01    1.910000e+00
 SN2ah SC1eh  1 4.100000e-01    1.750000e+00
 SN2ah SX4eh  1 4.100000e-01    2.350000e+00
 SN2ah SX3eh  1 4.100000e-01    2.200000e+00
 SN2ah SX2eh  1 4.100000e-01    2.040000e+00
 SN2ah SX1eh  1 4.100000e-01    2.040000e+00
 SN1ah SC6vh  1 4.100000e-01    2.840000e+00
 SN1ah SC5vh  1 4.100000e-01    2.600000e+00
 SN1ah SC4vh  1 4.100000e-01    2.600000e+00
 SN1ah SC3vh  1 4.100000e-01    2.350000e+00
 SN1ah SC2vh  1 4.100000e-01    2.200000e+00
 SN1ah SC1vh  1 4.100000e-01    2.040000e+00
 SN1ah SX4vh  1 4.100000e-01    2.600000e+00
 SN1ah SX3vh  1 4.100000e-01    2.600000e+00
 SN1ah SX2vh  1 4.100000e-01    2.350000e+00
 SN1ah SX1vh  1 4.100000e-01    2.350000e+00
 SN1ah SC6eh  1 4.100000e-01    2.350000e+00
 SN1ah SC5eh  1 4.100000e-01    2.200000e+00
 SN1ah SC4eh  1 4.100000e-01    2.200000e+00
 SN1ah SC3eh  1 4.100000e-01    2.040000e+00
 SN1ah SC2eh  1 4.100000e-01    1.910000e+00
 SN1ah SC1eh  1 4.100000e-01    1.750000e+00
 SN1ah SX4eh  1 4.100000e-01    2.200000e+00
 SN1ah SX3eh  1 4.100000e-01    2.200000e+00
 SN1ah SX2eh  1 4.100000e-01    2.040000e+00
 SN1ah SX1eh  1 4.100000e-01    2.040000e+00
  SP6h  SP6r  1 4.100000e-01    4.290000e+00
  SP6h  SP5r  1 4.100000e-01    4.040000e+00
  SP6r  SP5h  1 4.100000e-01    4.040000e+00
  SP6h  SP4r  1 4.100000e-01    3.820000e+00
  SP6r  SP4h  1 4.100000e-01    3.820000e+00
  SP6h  SP3r  1 4.100000e-01    3.550000e+00
  SP6r  SP3h  1 4.100000e-01    3.550000e+00
  SP6h  SP2r  1 4.100000e-01    3.550000e+00
  SP6r  SP2h  1 4.100000e-01    3.550000e+00
  SP6h  SP1r  1 4.100000e-01    3.310000e+00
  SP6r  SP1h  1 4.100000e-01    3.310000e+00
  SP6h  SN6r  1 4.100000e-01    3.070000e+00
  SP6r  SN6h  1 4.100000e-01    3.070000e+00
  SP6h  SN5r  1 4.100000e-01    2.600000e+00
  SP6r  SN5h  1 4.100000e-01    2.600000e+00
  SP6h  SN4r  1 4.100000e-01    2.350000e+00
  SP6r  SN4h  1 4.100000e-01    2.350000e+00
  SP6h  SN3r  1 4.100000e-01    2.200000e+00
  SP6r  SN3h  1 4.100000e-01    2.200000e+00
  SP6h  SN2r  1 4.100000e-01    2.040000e+00
  SP6r  SN2h  1 4.100000e-01    2.040000e+00
  SP6h  SN1r  1 4.100000e-01    1.910000e+00
  SP6r  SN1h  1 4.100000e-01    1.910000e+00
  SP5h  SP5r  1 4.100000e-01    3.820000e+00
  SP5h  SP4r  1 4.100000e-01    3.550000e+00
  SP5r  SP4h  1 4.100000e-01    3.550000e+00
  SP5h  SP3r  1 4.100000e-01    3.310000e+00
  SP5r  SP3h  1 4.100000e-01    3.310000e+00
  SP5h  SP2r  1 4.100000e-01    3.310000e+00
  SP5r  SP2h  1 4.100000e-01    3.310000e+00
  SP5h  SP1r  1 4.100000e-01    3.070000e+00
  SP5r  SP1h  1 4.100000e-01    3.070000e+00
  SP5h  SN6r  1 4.100000e-01    2.840000e+00
  SP5r  SN6h  1 4.100000e-01    2.840000e+00
  SP5h  SN5r  1 4.100000e-01    2.600000e+00
  SP5r  SN5h  1 4.100000e-01    2.600000e+00
  SP5h  SN4r  1 4.100000e-01    2.600000e+00
  SP5r  SN4h  1 4.100000e-01    2.600000e+00
  SP5h  SN3r  1 4.100000e-01    2.200000e+00
  SP5r  SN3h  1 4.100000e-01    2.200000e+00
  SP5h  SN2r  1 4.100000e-01    2.040000e+00
  SP5r  SN2h  1 4.100000e-01    2.040000e+00
  SP5h  SN1r  1 4.100000e-01    1.910000e+00
  SP5r  SN1h  1 4.100000e-01    1.910000e+00
  SP4h  SP4r  1 4.100000e-01    3.550000e+00
  SP4h  SP3r  1 4.100000e-01    3.310000e+00
  SP4r  SP3h  1 4.100000e-01    3.310000e+00
  SP4h  SP2r  1 4.100000e-01    3.310000e+00
  SP4r  SP2h  1 4.100000e-01    3.310000e+00
  SP4h  SP1r  1 4.100000e-01    3.070000e+00
  SP4r  SP1h  1 4.100000e-01    3.070000e+00
  SP4h  SN6r  1 4.100000e-01    2.840000e+00
  SP4r  SN6h  1 4.100000e-01    2.840000e+00
  SP4h  SN5r  1 4.100000e-01    2.600000e+00
  SP4r  SN5h  1 4.100000e-01    2.600000e+00
  SP4h  SN4r  1 4.100000e-01    2.600000e+00
  SP4r  SN4h  1 4.100000e-01    2.600000e+00
  SP4h  SN3r  1 4.100000e-01    2.350000e+00
  SP4r  SN3h  1 4.100000e-01    2.350000e+00
  SP4h  SN2r  1 4.100000e-01    2.200000e+00
  SP4r  SN2h  1 4.100000e-01    2.200000e+00
  SP4h  SN1r  1 4.100000e-01    2.040000e+00
  SP4r  SN1h  1 4.100000e-01    2.040000e+00
  SP3h  SP3r  1 4.100000e-01    3.310000e+00
  SP3h  SP2r  1 4.100000e-01    3.310000e+00
  SP3r  SP2h  1 4.100000e-01    3.310000e+00
  SP3h  SP1r  1 4.100000e-01    3.070000e+00
  SP3r  SP1h  1 4.100000e-01    3.070000e+00
  SP3h  SN6r  1 4.100000e-01    2.840000e+00
  SP3r  SN6h  1 4.100000e-01    2.840000e+00
  SP3h  SN5r  1 4.100000e-01    2.600000e+00
  SP3r  SN5h  1 4.100000e-01    2.600000e+00
  SP3h  SN4r  1 4.100000e-01    2.600000e+00
  SP3r  SN4h  1 4.100000e-01    2.600000e+00
  SP3h  SN3r  1 4.100000e-01    2.350000e+00
  SP3r  SN3h  1 4.100000e-01    2.350000e+00
  SP3h  SN2r  1 4.100000e-01    2.350000e+00
  SP3r  SN2h  1 4.100000e-01    2.350000e+00
  SP3h  SN1r  1 4.100000e-01    2.200000e+00
  SP3r  SN1h  1 4.100000e-01    2.200000e+00
  SP2h  SP2r  1 4.100000e-01    3.310000e+00
  SP2h  SP1r  1 4.100000e-01    3.070000e+00
  SP2r  SP1h  1 4.100000e-01    3.070000e+00
  SP2h  SN6r  1 4.100000e-01    3.070000e+00
  SP2r  SN6h  1 4.100000e-01    3.070000e+00
  SP2h  SN5r  1 4.100000e-01    2.840000e+00
  SP2r  SN5h  1 4.100000e-01    2.840000e+00
  SP2h  SN4r  1 4.100000e-01    2.600000e+00
  SP2r  SN4h  1 4.100000e-01    2.600000e+00
  SP2h  SN3r  1 4.100000e-01    2.350000e+00
  SP2r  SN3h  1 4.100000e-01    2.350000e+00
  SP2h  SN2r  1 4.100000e-01    2.350000e+00
  SP2r  SN2h  1 4.100000e-01    2.350000e+00
  SP2h  SN1r  1 4.100000e-01    2.350000e+00
  SP2r  SN1h  1 4.100000e-01    2.350000e+00
  SP1h  SP1r  1 4.100000e-01    3.070000e+00
  SP1h  SN6r  1 4.100000e-01    3.070000e+00
  SP1r  SN6h  1 4.100000e-01    3.070000e+00
  SP1h  SN5r  1 4.100000e-01    2.840000e+00
  SP1r  SN5h  1 4.100000e-01    2.840000e+00
  SP1h  SN4r  1 4.100000e-01    2.840000e+00
  SP1r  SN4h  1 4.100000e-01    2.840000e+00
  SP1h  SN3r  1 4.100000e-01    2.350000e+00
  SP1r  SN3h  1 4.100000e-01    2.350000e+00
  SP1h  SN2r  1 4.100000e-01    2.350000e+00
  SP1r  SN2h  1 4.100000e-01    2.350000e+00
  SP1h  SN1r  1 4.100000e-01    2.350000e+00
  SP1r  SN1h  1 4.100000e-01    2.350000e+00
  SN6h  SN6r  1 4.100000e-01    3.070000e+00
  SN6h  SN5r  1 4.100000e-01    3.070000e+00
  SN6r  SN5h  1 4.100000e-01    3.070000e+00
  SN6h  SN4r  1 4.100000e-01    3.070000e+00
  SN6r  SN4h  1 4.100000e-01    3.070000e+00
  SN6h  SN3r  1 4.100000e-01    2.600000e+00
  SN6r  SN3h  1 4.100000e-01    2.600000e+00
  SN6h  SN2r  1 4.100000e-01    2.350000e+00
  SN6r  SN2h  1 4.100000e-01    2.350000e+00
  SN6h  SN1r  1 4.100000e-01    2.350000e+00
  SN6r  SN1h  1 4.100000e-01    2.350000e+00
  SN5h  SN5r  1 4.100000e-01    2.840000e+00
  SN5h  SN4r  1 4.100000e-01    2.840000e+00
  SN5r  SN4h  1 4.100000e-01    2.840000e+00
  SN5h  SN3r  1 4.100000e-01    2.600000e+00
  SN5r  SN3h  1 4.100000e-01    2.600000e+00
  SN5h  SN2r  1 4.100000e-01    2.600000e+00
  SN5r  SN2h  1 4.100000e-01    2.600000e+00
  SN5h  SN1r  1 4.100000e-01    2.350000e+00
  SN5r  SN1h  1 4.100000e-01    2.350000e+00
  SN4h  SN4r  1 4.100000e-01    2.840000e+00
  SN4h  SN3r  1 4.100000e-01    2.600000e+00
  SN4r  SN3h  1 4.100000e-01    2.600000e+00
  SN4h  SN2r  1 4.100000e-01    2.600000e+00
  SN4r  SN2h  1 4.100000e-01    2.600000e+00
  SN4h  SN1r  1 4.100000e-01    2.350000e+00
  SN4r  SN1h  1 4.100000e-01    2.350000e+00
  SN3h  SN3r  1 4.100000e-01    2.600000e+00
  SN3h  SN2r  1 4.100000e-01    2.600000e+00
  SN3r  SN2h  1 4.100000e-01    2.600000e+00
  SN3h  SN1r  1 4.100000e-01    2.350000e+00
  SN3r  SN1h  1 4.100000e-01    2.350000e+00
  SN2h  SN2r  1 4.100000e-01    2.600000e+00
  SN2h  SN1r  1 4.100000e-01    2.350000e+00
  SN2r  SN1h  1 4.100000e-01    2.350000e+00
  SN1h  SN1r  1 4.100000e-01    2.600000e+00
 SP6dh SP6dr  1 4.100000e-01    4.040000e+00
 SP6dh SP5dr  1 4.100000e-01    3.820000e+00
 SP6dr SP5dh  1 4.100000e-01    3.820000e+00
 SP6dh SP4dr  1 4.100000e-01    3.550000e+00
 SP6dr SP4dh  1 4.100000e-01    3.550000e+00
 SP6dh SP3dr  1 4.100000e-01    3.310000e+00
 SP6dr SP3dh  1 4.100000e-01    3.310000e+00
 SP6dh SP2dr  1 4.100000e-01    3.310000e+00
 SP6dr SP2dh  1 4.100000e-01    3.310000e+00
 SP6dh SP1dr  1 4.100000e-01    3.070000e+00
 SP6dr SP1dh  1 4.100000e-01    3.070000e+00
 SP6dh SN6dr  1 4.100000e-01    2.840000e+00
 SP6dr SN6dh  1 4.100000e-01    2.840000e+00
 SP6dh SN5dr  1 4.100000e-01    2.350000e+00
 SP6dr SN5dh  1 4.100000e-01    2.350000e+00
 SP6dh SN4dr  1 4.100000e-01    2.200000e+00
 SP6dr SN4dh  1 4.100000e-01    2.200000e+00
 SP6dh SN3dr  1 4.100000e-01    2.200000e+00
 SP6dr SN3dh  1 4.100000e-01    2.200000e+00
 SP6dh SN2dr  1 4.100000e-01    2.040000e+00
 SP6dr SN2dh  1 4.100000e-01    2.040000e+00
 SP6dh SN1dr  1 4.100000e-01    1.910000e+00
 SP6dr SN1dh  1 4.100000e-01    1.910000e+00
 SP6dh SP6ar  1 4.100000e-01    4.550000e+00
 SP6dr SP6ah  1 4.100000e-01    4.550000e+00
 SP6dh SP5ar  1 4.100000e-01    4.290000e+00
 SP6dr SP5ah  1 4.100000e-01    4.290000e+00
 SP6dh SP4ar  1 4.100000e-01    4.040000e+00
 SP6dr SP4ah  1 4.100000e-01    4.040000e+00
 SP6dh SP3ar  1 4.100000e-01    3.820000e+00
 SP6dr SP3ah  1 4.100000e-01    3.820000e+00
 SP6dh SP2ar  1 4.100000e-01    3.820000e+00
 SP6dr SP2ah  1 4.100000e-01    3.820000e+00
 SP6dh SP1ar  1 4.100000e-01    3.550000e+00
 SP6dr SP1ah  1 4.100000e-01    3.550000e+00
 SP6dh SN6ar  1 4.100000e-01    3.310000e+00
 SP6dr SN6ah  1 4.100000e-01    3.310000e+00
 SP6dh SN5ar  1 4.100000e-01    2.840000e+00
 SP6dr SN5ah  1 4.100000e-01    2.840000e+00
 SP6dh SN4ar  1 4.100000e-01    2.600000e+00
 SP6dr SN4ah  1 4.100000e-01    2.600000e+00
 SP6dh SN3ar  1 4.100000e-01    2.200000e+00
 SP6dr SN3ah  1 4.100000e-01    2.200000e+00
 SP6dh SN2ar  1 4.100000e-01    2.040000e+00
 SP6dr SN2ah  1 4.100000e-01    2.040000e+00
 SP6dh SN1ar  1 4.100000e-01    1.910000e+00
 SP6dr SN1ah  1 4.100000e-01    1.910000e+00
 SP5dh SP5dr  1 4.100000e-01    3.550000e+00
 SP5dh SP4dr  1 4.100000e-01    3.310000e+00
 SP5dr SP4dh  1 4.100000e-01    3.310000e+00
 SP5dh SP3dr  1 4.100000e-01    3.070000e+00
 SP5dr SP3dh  1 4.100000e-01    3.070000e+00
 SP5dh SP2dr  1 4.100000e-01    3.070000e+00
 SP5dr SP2dh  1 4.100000e-01    3.070000e+00
 SP5dh SP1dr  1 4.100000e-01    2.840000e+00
 SP5dr SP1dh  1 4.100000e-01    2.840000e+00
 SP5dh SN6dr  1 4.100000e-01    2.600000e+00
 SP5dr SN6dh  1 4.100000e-01    2.600000e+00
 SP5dh SN5dr  1 4.100000e-01    2.350000e+00
 SP5dr SN5dh  1 4.100000e-01    2.350000e+00
 SP5dh SN4dr  1 4.100000e-01    2.350000e+00
 SP5dr SN4dh  1 4.100000e-01    2.350000e+00
 SP5dh SN3dr  1 4.100000e-01    2.200000e+00
 SP5dr SN3dh  1 4.100000e-01    2.200000e+00
 SP5dh SN2dr  1 4.100000e-01    2.040000e+00
 SP5dr SN2dh  1 4.100000e-01    2.040000e+00
 SP5dh SN1dr  1 4.100000e-01    1.910000e+00
 SP5dr SN1dh  1 4.100000e-01    1.910000e+00
 SP5dh SP5ar  1 4.100000e-01    4.040000e+00
 SP5dr SP5ah  1 4.100000e-01    4.040000e+00
 SP5dh SP4ar  1 4.100000e-01    3.820000e+00
 SP5dr SP4ah  1 4.100000e-01    3.820000e+00
 SP5dh SP3ar  1 4.100000e-01    3.550000e+00
 SP5dr SP3ah  1 4.100000e-01    3.550000e+00
 SP5dh SP2ar  1 4.100000e-01    3.550000e+00
 SP5dr SP2ah  1 4.100000e-01    3.550000e+00
 SP5dh SP1ar  1 4.100000e-01    3.310000e+00
 SP5dr SP1ah  1 4.100000e-01    3.310000e+00
 SP5dh SN6ar  1 4.100000e-01    3.070000e+00
 SP5dr SN6ah  1 4.100000e-01    3.070000e+00
 SP5dh SN5ar  1 4.100000e-01    2.840000e+00
 SP5dr SN5ah  1 4.100000e-01    2.840000e+00
 SP5dh SN4ar  1 4.100000e-01    2.840000e+00
 SP5dr SN4ah  1 4.100000e-01    2.840000e+00
 SP5dh SN3ar  1 4.100000e-01    2.200000e+00
 SP5dr SN3ah  1 4.100000e-01    2.200000e+00
 SP5dh SN2ar  1 4.100000e-01    2.040000e+00
 SP5dr SN2ah  1 4.100000e-01    2.040000e+00
 SP5dh SN1ar  1 4.100000e-01    1.910000e+00
 SP5dr SN1ah  1 4.100000e-01    1.910000e+00
 SP4dh SP4dr  1 4.100000e-01    3.310000e+00
 SP4dh SP3dr  1 4.100000e-01    3.070000e+00
 SP4dr SP3dh  1 4.100000e-01    3.070000e+00
 SP4dh SP2dr  1 4.100000e-01    3.070000e+00
 SP4dr SP2dh  1 4.100000e-01    3.070000e+00
 SP4dh SP1dr  1 4.100000e-01    2.840000e+00
 SP4dr SP1dh  1 4.100000e-01    2.840000e+00
 SP4dh SN6dr  1 4.100000e-01    2.600000e+00
 SP4dr SN6dh  1 4.100000e-01    2.600000e+00
 SP4dh SN5dr  1 4.100000e-01    2.350000e+00
 SP4dr SN5dh  1 4.100000e-01    2.350000e+00
 SP4dh SN4dr  1 4.100000e-01    2.350000e+00
 SP4dr SN4dh  1 4.100000e-01    2.350000e+00
 SP4dh SN3dr  1 4.100000e-01    2.200000e+00
 SP4dr SN3dh  1 4.100000e-01    2.200000e+00
 SP4dh SN2dr  1 4.100000e-01    2.200000e+00
 SP4dr SN2dh  1 4.100000e-01    2.200000e+00
 SP4dh SN1dr  1 4.100000e-01    2.040000e+00
 SP4dr SN1dh  1 4.100000e-01    2.040000e+00
 SP4dh SP4ar  1 4.100000e-01    3.820000e+00
 SP4dr SP4ah  1 4.100000e-01    3.820000e+00
 SP4dh SP3ar  1 4.100000e-01    3.550000e+00
 SP4dr SP3ah  1 4.100000e-01    3.550000e+00
 SP4dh SP2ar  1 4.100000e-01    3.550000e+00
 SP4dr SP2ah  1 4.100000e-01    3.550000e+00
 SP4dh SP1ar  1 4.100000e-01    3.310000e+00
 SP4dr SP1ah  1 4.100000e-01    3.310000e+00
 SP4dh SN6ar  1 4.100000e-01    3.070000e+00
 SP4dr SN6ah  1 4.100000e-01    3.070000e+00
 SP4dh SN5ar  1 4.100000e-01    2.840000e+00
 SP4dr SN5ah  1 4.100000e-01    2.840000e+00
 SP4dh SN4ar  1 4.100000e-01    2.840000e+00
 SP4dr SN4ah  1 4.100000e-01    2.840000e+00
 SP4dh SN3ar  1 4.100000e-01    2.600000e+00
 SP4dr SN3ah  1 4.100000e-01    2.600000e+00
 SP4dh SN2ar  1 4.100000e-01    2.200000e+00
 SP4dr SN2ah  1 4.100000e-01    2.200000e+00
 SP4dh SN1ar  1 4.100000e-01    2.040000e+00
 SP4dr SN1ah  1 4.100000e-01    2.040000e+00
 SP3dh SP3dr  1 4.100000e-01    3.070000e+00
 SP3dh SP2dr  1 4.100000e-01    3.070000e+00
 SP3dr SP2dh  1 4.100000e-01    3.070000e+00
 SP3dh SP1dr  1 4.100000e-01    2.840000e+00
 SP3dr SP1dh  1 4.100000e-01    2.840000e+00
 SP3dh SN6dr  1 4.100000e-01    2.600000e+00
 SP3dr SN6dh  1 4.100000e-01    2.600000e+00
 SP3dh SN5dr  1 4.100000e-01    2.350000e+00
 SP3dr SN5dh  1 4.100000e-01    2.350000e+00
 SP3dh SN4dr  1 4.100000e-01    2.350000e+00
 SP3dr SN4dh  1 4.100000e-01    2.350000e+00
 SP3dh SN3dr  1 4.100000e-01    2.200000e+00
 SP3dr SN3dh  1 4.100000e-01    2.200000e+00
 SP3dh SN2dr  1 4.100000e-01    2.200000e+00
 SP3dr SN2dh  1 4.100000e-01    2.200000e+00
 SP3dh SN1dr  1 4.100000e-01    2.200000e+00
 SP3dr SN1dh  1 4.100000e-01    2.200000e+00
 SP3dh SP3ar  1 4.100000e-01    3.550000e+00
 SP3dr SP3ah  1 4.100000e-01    3.550000e+00
 SP3dh SP2ar  1 4.100000e-01    3.550000e+00
 SP3dr SP2ah  1 4.100000e-01    3.550000e+00
 SP3dh SP1ar  1 4.100000e-01    3.310000e+00
 SP3dr SP1ah  1 4.100000e-01    3.310000e+00
 SP3dh SN6ar  1 4.100000e-01    3.070000e+00
 SP3dr SN6ah  1 4.100000e-01    3.070000e+00
 SP3dh SN5ar  1 4.100000e-01    2.840000e+00
 SP3dr SN5ah  1 4.100000e-01    2.840000e+00
 SP3dh SN4ar  1 4.100000e-01    2.840000e+00
 SP3dr SN4ah  1 4.100000e-01    2.840000e+00
 SP3dh SN3ar  1 4.100000e-01    2.600000e+00
 SP3dr SN3ah  1 4.100000e-01    2.600000e+00
 SP3dh SN2ar  1 4.100000e-01    2.600000e+00
 SP3dr SN2ah  1 4.100000e-01    2.600000e+00
 SP3dh SN1ar  1 4.100000e-01    2.200000e+00
 SP3dr SN1ah  1 4.100000e-01    2.200000e+00
 SP2dh SP2dr  1 4.100000e-01    3.070000e+00
 SP2dh SP1dr  1 4.100000e-01    2.840000e+00
 SP2dr SP1dh  1 4.100000e-01    2.840000e+00
 SP2dh SN6dr  1 4.100000e-01    2.840000e+00
 SP2dr SN6dh  1 4.100000e-01    2.840000e+00
 SP2dh SN5dr  1 4.100000e-01    2.600000e+00
 SP2dr SN5dh  1 4.100000e-01    2.600000e+00
 SP2dh SN4dr  1 4.100000e-01    2.350000e+00
 SP2dr SN4dh  1 4.100000e-01    2.350000e+00
 SP2dh SN3dr  1 4.100000e-01    2.200000e+00
 SP2dr SN3dh  1 4.100000e-01    2.200000e+00
 SP2dh SN2dr  1 4.100000e-01    2.200000e+00
 SP2dr SN2dh  1 4.100000e-01    2.200000e+00
 SP2dh SN1dr  1 4.100000e-01    2.200000e+00
 SP2dr SN1dh  1 4.100000e-01    2.200000e+00
 SP2dh SP2ar  1 4.100000e-01    3.550000e+00
 SP2dr SP2ah  1 4.100000e-01    3.550000e+00
 SP2dh SP1ar  1 4.100000e-01    3.310000e+00
 SP2dr SP1ah  1 4.100000e-01    3.310000e+00
 SP2dh SN6ar  1 4.100000e-01    3.310000e+00
 SP2dr SN6ah  1 4.100000e-01    3.310000e+00
 SP2dh SN5ar  1 4.100000e-01    3.070000e+00
 SP2dr SN5ah  1 4.100000e-01    3.070000e+00
 SP2dh SN4ar  1 4.100000e-01    2.840000e+00
 SP2dr SN4ah  1 4.100000e-01    2.840000e+00
 SP2dh SN3ar  1 4.100000e-01    2.600000e+00
 SP2dr SN3ah  1 4.100000e-01    2.600000e+00
 SP2dh SN2ar  1 4.100000e-01    2.600000e+00
 SP2dr SN2ah  1 4.100000e-01    2.600000e+00
 SP2dh SN1ar  1 4.100000e-01    2.600000e+00
 SP2dr SN1ah  1 4.100000e-01    2.600000e+00
 SP1dh SP1dr  1 4.100000e-01    2.840000e+00
 SP1dh SN6dr  1 4.100000e-01    2.840000e+00
 SP1dr SN6dh  1 4.100000e-01    2.840000e+00
 SP1dh SN5dr  1 4.100000e-01    2.600000e+00
 SP1dr SN5dh  1 4.100000e-01    2.600000e+00
 SP1dh SN4dr  1 4.100000e-01    2.600000e+00
 SP1dr SN4dh  1 4.100000e-01    2.600000e+00
 SP1dh SN3dr  1 4.100000e-01    2.200000e+00
 SP1dr SN3dh  1 4.100000e-01    2.200000e+00
 SP1dh SN2dr  1 4.100000e-01    2.200000e+00
 SP1dr SN2dh  1 4.100000e-01    2.200000e+00
 SP1dh SN1dr  1 4.100000e-01    2.200000e+00
 SP1dr SN1dh  1 4.100000e-01    2.200000e+00
 SP1dh SP1ar  1 4.100000e-01    3.310000e+00
 SP1dr SP1ah  1 4.100000e-01    3.310000e+00
 SP1dh SN6ar  1 4.100000e-01    3.310000e+00
 SP1dr SN6ah  1 4.100000e-01    3.310000e+00
 SP1dh SN5ar  1 4.100000e-01    3.070000e+00
 SP1dr SN5ah  1 4.100000e-01    3.070000e+00
 SP1dh SN4ar  1 4.100000e-01    3.070000e+00
 SP1dr SN4ah  1 4.100000e-01    3.070000e+00
 SP1dh SN3ar  1 4.100000e-01    2.600000e+00
 SP1dr SN3ah  1 4.100000e-01    2.600000e+00
 SP1dh SN2ar  1 4.100000e-01    2.600000e+00
 SP1dr SN2ah  1 4.100000e-01    2.600000e+00
 SP1dh SN1ar  1 4.100000e-01    2.600000e+00
 SP1dr SN1ah  1 4.100000e-01    2.600000e+00
 SN6dh SN6dr  1 4.100000e-01    2.840000e+00
 SN6dh SN5dr  1 4.100000e-01    2.840000e+00
 SN6dr SN5dh  1 4.100000e-01    2.840000e+00
 SN6dh SN4dr  1 4.100000e-01    2.840000e+00
 SN6dr SN4dh  1 4.100000e-01    2.840000e+00
 SN6dh SN3dr  1 4.100000e-01    2.350000e+00
 SN6dr SN3dh  1 4.100000e-01    2.350000e+00
 SN6dh SN2dr  1 4.100000e-01    2.200000e+00
 SN6dr SN2dh  1 4.100000e-01    2.200000e+00
 SN6dh SN1dr  1 4.100000e-01    2.200000e+00
 SN6dr SN1dh  1 4.100000e-01    2.200000e+00
 SN6dh SN6ar  1 4.100000e-01    3.310000e+00
 SN6dr SN6ah  1 4.100000e-01    3.310000e+00
 SN6dh SN5ar  1 4.100000e-01    3.310000e+00
 SN6dr SN5ah  1 4.100000e-01    3.310000e+00
 SN6dh SN4ar  1 4.100000e-01    3.310000e+00
 SN6dr SN4ah  1 4.100000e-01    3.310000e+00
 SN6dh SN3ar  1 4.100000e-01    2.840000e+00
 SN6dr SN3ah  1 4.100000e-01    2.840000e+00
 SN6dh SN2ar  1 4.100000e-01    2.600000e+00
 SN6dr SN2ah  1 4.100000e-01    2.600000e+00
 SN6dh SN1ar  1 4.100000e-01    2.600000e+00
 SN6dr SN1ah  1 4.100000e-01    2.600000e+00
 SN5dh SN5dr  1 4.100000e-01    2.600000e+00
 SN5dh SN4dr  1 4.100000e-01    2.600000e+00
 SN5dr SN4dh  1 4.100000e-01    2.600000e+00
 SN5dh SN3dr  1 4.100000e-01    2.350000e+00
 SN5dr SN3dh  1 4.100000e-01    2.350000e+00
 SN5dh SN2dr  1 4.100000e-01    2.350000e+00
 SN5dr SN2dh  1 4.100000e-01    2.350000e+00
 SN5dh SN1dr  1 4.100000e-01    2.200000e+00
 SN5dr SN1dh  1 4.100000e-01    2.200000e+00
 SN5dh SN5ar  1 4.100000e-01    3.070000e+00
 SN5dr SN5ah  1 4.100000e-01    3.070000e+00
 SN5dh SN4ar  1 4.100000e-01    3.070000e+00
 SN5dr SN4ah  1 4.100000e-01    3.070000e+00
 SN5dh SN3ar  1 4.100000e-01    2.840000e+00
 SN5dr SN3ah  1 4.100000e-01    2.840000e+00
 SN5dh SN2ar  1 4.100000e-01    2.840000e+00
 SN5dr SN2ah  1 4.100000e-01    2.840000e+00
 SN5dh SN1ar  1 4.100000e-01    2.600000e+00
 SN5dr SN1ah  1 4.100000e-01    2.600000e+00
 SN4dh SN4dr  1 4.100000e-01    2.600000e+00
 SN4dh SN3dr  1 4.100000e-01    2.350000e+00
 SN4dr SN3dh  1 4.100000e-01    2.350000e+00
 SN4dh SN2dr  1 4.100000e-01    2.350000e+00
 SN4dr SN2dh  1 4.100000e-01    2.350000e+00
 SN4dh SN1dr  1 4.100000e-01    2.200000e+00
 SN4dr SN1dh  1 4.100000e-01    2.200000e+00
 SN4dh SN4ar  1 4.100000e-01    3.070000e+00
 SN4dr SN4ah  1 4.100000e-01    3.070000e+00
 SN4dh SN3ar  1 4.100000e-01    2.840000e+00
 SN4dr SN3ah  1 4.100000e-01    2.840000e+00
 SN4dh SN2ar  1 4.100000e-01    2.840000e+00
 SN4dr SN2ah  1 4.100000e-01    2.840000e+00
 SN4dh SN1ar  1 4.100000e-01    2.600000e+00
 SN4dr SN1ah  1 4.100000e-01    2.600000e+00
 SN3dh SN3dr  1 4.100000e-01    2.350000e+00
 SN3dh SN2dr  1 4.100000e-01    2.350000e+00
 SN3dr SN2dh  1 4.100000e-01    2.350000e+00
 SN3dh SN1dr  1 4.100000e-01    2.200000e+00
 SN3dr SN1dh  1 4.100000e-01    2.200000e+00
 SN3dh SN3ar  1 4.100000e-01    2.840000e+00
 SN3dr SN3ah  1 4.100000e-01    2.840000e+00
 SN3dh SN2ar  1 4.100000e-01    2.840000e+00
 SN3dr SN2ah  1 4.100000e-01    2.840000e+00
 SN3dh SN1ar  1 4.100000e-01    2.600000e+00
 SN3dr SN1ah  1 4.100000e-01    2.600000e+00
 SN2dh SN2dr  1 4.100000e-01    2.350000e+00
 SN2dh SN1dr  1 4.100000e-01    2.200000e+00
 SN2dr SN1dh  1 4.100000e-01    2.200000e+00
 SN2dh SN2ar  1 4.100000e-01    2.840000e+00
 SN2dr SN2ah  1 4.100000e-01    2.840000e+00
 SN2dh SN1ar  1 4.100000e-01    2.600000e+00
 SN2dr SN1ah  1 4.100000e-01    2.600000e+00
 SN1dh SN1dr  1 4.100000e-01    2.350000e+00
 SN1dh SN1ar  1 4.100000e-01    2.840000e+00
 SN1dr SN1ah  1 4.100000e-01    2.840000e+00
 SP6ah SP6ar  1 4.100000e-01    4.040000e+00
 SP6ah SP5dr  1 4.100000e-01    4.290000e+00
 SP6ar SP5dh  1 4.100000e-01    4.290000e+00
 SP6ah SP4dr  1 4.100000e-01    4.040000e+00
 SP6ar SP4dh  1 4.100000e-01    4.040000e+00
 SP6ah SP3dr  1 4.100000e-01    3.820000e+00
 SP6ar SP3dh  1 4.100000e-01    3.820000e+00
 SP6ah SP2dr  1 4.100000e-01    3.820000e+00
 SP6ar SP2dh  1 4.100000e-01    3.820000e+00
 SP6ah SP1dr  1 4.100000e-01    3.550000e+00
 SP6ar SP1dh  1 4.100000e-01    3.550000e+00
 SP6ah SN6dr  1 4.100000e-01    3.310000e+00
 SP6ar SN6dh  1 4.100000e-01    3.310000e+00
 SP6ah SN5dr  1 4.100000e-01    2.840000e+00
 SP6ar SN5dh  1 4.100000e-01    2.840000e+00
 SP6ah SN4dr  1 4.100000e-01    2.600000e+00
 SP6ar SN4dh  1 4.100000e-01    2.600000e+00
 SP6ah SN3dr  1 4.100000e-01    2.200000e+00
 SP6ar SN3dh  1 4.100000e-01    2.200000e+00
 SP6ah SN2dr  1 4.100000e-01    2.040000e+00
 SP6ar SN2dh  1 4.100000e-01    2.040000e+00
 SP6ah SN1dr  1 4.100000e-01    1.910000e+00
 SP6ar SN1dh  1 4.100000e-01    1.910000e+00
 SP6ah SP5ar  1 4.100000e-01    3.820000e+00
 SP6ar SP5ah  1 4.100000e-01    3.820000e+00
 SP6ah SP4ar  1 4.100000e-01    3.550000e+00
 SP6ar SP4ah  1 4.100000e-01    3.550000e+00
 SP6ah SP3ar  1 4.100000e-01    3.310000e+00
 SP6ar SP3ah  1 4.100000e-01    3.310000e+00
 SP6ah SP2ar  1 4.100000e-01    3.310000e+00
 SP6ar SP2ah  1 4.100000e-01    3.310000e+00
 SP6ah SP1ar  1 4.100000e-01    3.070000e+00
 SP6ar SP1ah  1 4.100000e-01    3.070000e+00
 SP6ah SN6ar  1 4.100000e-01    2.840000e+00
 SP6ar SN6ah  1 4.100000e-01    2.840000e+00
 SP6ah SN5ar  1 4.100000e-01    2.350000e+00
 SP6ar SN5ah  1 4.100000e-01    2.350000e+00
 SP6ah SN4ar  1 4.100000e-01    2.200000e+00
 SP6ar SN4ah  1 4.100000e-01    2.200000e+00
 SP6ah SN3ar  1 4.100000e-01    2.200000e+00
 SP6ar SN3ah  1 4.100000e-01    2.200000e+00
 SP6ah SN2ar  1 4.100000e-01    2.040000e+00
 SP6ar SN2ah  1 4.100000e-01    2.040000e+00
 SP6ah SN1ar  1 4.100000e-01    1.910000e+00
 SP6ar SN1ah  1 4.100000e-01    1.910000e+00
 SP5ah SP5ar  1 4.100000e-01    3.550000e+00
 SP5ah SP4dr  1 4.100000e-01    3.820000e+00
 SP5ar SP4dh  1 4.100000e-01    3.820000e+00
 SP5ah SP3dr  1 4.100000e-01    3.550000e+00
 SP5ar SP3dh  1 4.100000e-01    3.550000e+00
 SP5ah SP2dr  1 4.100000e-01    3.550000e+00
 SP5ar SP2dh  1 4.100000e-01    3.550000e+00
 SP5ah SP1dr  1 4.100000e-01    3.310000e+00
 SP5ar SP1dh  1 4.100000e-01    3.310000e+00
 SP5ah SN6dr  1 4.100000e-01    3.070000e+00
 SP5ar SN6dh  1 4.100000e-01    3.070000e+00
 SP5ah SN5dr  1 4.100000e-01    2.840000e+00
 SP5ar SN5dh  1 4.100000e-01    2.840000e+00
 SP5ah SN4dr  1 4.100000e-01    2.840000e+00
 SP5ar SN4dh  1 4.100000e-01    2.840000e+00
 SP5ah SN3dr  1 4.100000e-01    2.200000e+00
 SP5ar SN3dh  1 4.100000e-01    2.200000e+00
 SP5ah SN2dr  1 4.100000e-01    2.040000e+00
 SP5ar SN2dh  1 4.100000e-01    2.040000e+00
 SP5ah SN1dr  1 4.100000e-01    1.910000e+00
 SP5ar SN1dh  1 4.100000e-01    1.910000e+00
 SP5ah SP4ar  1 4.100000e-01    3.310000e+00
 SP5ar SP4ah  1 4.100000e-01    3.310000e+00
 SP5ah SP3ar  1 4.100000e-01    3.070000e+00
 SP5ar SP3ah  1 4.100000e-01    3.070000e+00
 SP5ah SP2ar  1 4.100000e-01    3.070000e+00
 SP5ar SP2ah  1 4.100000e-01    3.070000e+00
 SP5ah SP1ar  1 4.100000e-01    2.840000e+00
 SP5ar SP1ah  1 4.100000e-01    2.840000e+00
 SP5ah SN6ar  1 4.100000e-01    2.600000e+00
 SP5ar SN6ah  1 4.100000e-01    2.600000e+00
 SP5ah SN5ar  1 4.100000e-01    2.350000e+00
 SP5ar SN5ah  1 4.100000e-01    2.350000e+00
 SP5ah SN4ar  1 4.100000e-01    2.350000e+00
 SP5ar SN4ah  1 4.100000e-01    2.350000e+00
 SP5ah SN3ar  1 4.100000e-01    2.200000e+00
 SP5ar SN3ah  1 4.100000e-01    2.200000e+00
 SP5ah SN2ar  1 4.100000e-01    2.040000e+00
 SP5ar SN2ah  1 4.100000e-01    2.040000e+00
 SP5ah SN1ar  1 4.100000e-01    1.910000e+00
 SP5ar SN1ah  1 4.100000e-01    1.910000e+00
 SP4ah SP4ar  1 4.100000e-01    3.310000e+00
 SP4ah SP3dr  1 4.100000e-01    3.550000e+00
 SP4ar SP3dh  1 4.100000e-01    3.550000e+00
 SP4ah SP2dr  1 4.100000e-01    3.550000e+00
 SP4ar SP2dh  1 4.100000e-01    3.550000e+00
 SP4ah SP1dr  1 4.100000e-01    3.310000e+00
 SP4ar SP1dh  1 4.100000e-01    3.310000e+00
 SP4ah SN6dr  1 4.100000e-01    3.070000e+00
 SP4ar SN6dh  1 4.100000e-01    3.070000e+00
 SP4ah SN5dr  1 4.100000e-01    2.840000e+00
 SP4ar SN5dh  1 4.100000e-01    2.840000e+00
 SP4ah SN4dr  1 4.100000e-01    2.840000e+00
 SP4ar SN4dh  1 4.100000e-01    2.840000e+00
 SP4ah SN3dr  1 4.100000e-01    2.600000e+00
 SP4ar SN3dh  1 4.100000e-01    2.600000e+00
 SP4ah SN2dr  1 4.100000e-01    2.200000e+00
 SP4ar SN2dh  1 4.100000e-01    2.200000e+00
 SP4ah SN1dr  1 4.100000e-01    2.040000e+00
 SP4ar SN1dh  1 4.100000e-01    2.040000e+00
 SP4ah SP3ar  1 4.100000e-01    3.070000e+00
 SP4ar SP3ah  1 4.100000e-01    3.070000e+00
 SP4ah SP2ar  1 4.100000e-01    3.070000e+00
 SP4ar SP2ah  1 4.100000e-01    3.070000e+00
 SP4ah SP1ar  1 4.100000e-01    2.840000e+00
 SP4ar SP1ah  1 4.100000e-01    2.840000e+00
 SP4ah SN6ar  1 4.100000e-01    2.600000e+00
 SP4ar SN6ah  1 4.100000e-01    2.600000e+00
 SP4ah SN5ar  1 4.100000e-01    2.350000e+00
 SP4ar SN5ah  1 4.100000e-01    2.350000e+00
 SP4ah SN4ar  1 4.100000e-01    2.350000e+00
 SP4ar SN4ah  1 4.100000e-01    2.350000e+00
 SP4ah SN3ar  1 4.100000e-01    2.200000e+00
 SP4ar SN3ah  1 4.100000e-01    2.200000e+00
 SP4ah SN2ar  1 4.100000e-01    2.200000e+00
 SP4ar SN2ah  1 4.100000e-01    2.200000e+00
 SP4ah SN1ar  1 4.100000e-01    2.040000e+00
 SP4ar SN1ah  1 4.100000e-01    2.040000e+00
 SP3ah SP3ar  1 4.100000e-01    3.070000e+00
 SP3ah SP2dr  1 4.100000e-01    3.550000e+00
 SP3ar SP2dh  1 4.100000e-01    3.550000e+00
 SP3ah SP1dr  1 4.100000e-01    3.310000e+00
 SP3ar SP1dh  1 4.100000e-01    3.310000e+00
 SP3ah SN6dr  1 4.100000e-01    3.070000e+00
 SP3ar SN6dh  1 4.100000e-01    3.070000e+00
 SP3ah SN5dr  1 4.100000e-01    2.840000e+00
 SP3ar SN5dh  1 4.100000e-01    2.840000e+00
 SP3ah SN4dr  1 4.100000e-01    2.840000e+00
 SP3ar SN4dh  1 4.100000e-01    2.840000e+00
 SP3ah SN3dr  1 4.100000e-01    2.600000e+00
 SP3ar SN3dh  1 4.100000e-01    2.600000e+00
 SP3ah SN2dr  1 4.100000e-01    2.600000e+00
 SP3ar SN2dh  1 4.100000e-01    2.600000e+00
 SP3ah SN1dr  1 4.100000e-01    2.200000e+00
 SP3ar SN1dh  1 4.100000e-01    2.200000e+00
 SP3ah SP2ar  1 4.100000e-01    3.070000e+00
 SP3ar SP2ah  1 4.100000e-01    3.070000e+00
 SP3ah SP1ar  1 4.100000e-01    2.840000e+00
 SP3ar SP1ah  1 4.100000e-01    2.840000e+00
 SP3ah SN6ar  1 4.100000e-01    2.600000e+00
 SP3ar SN6ah  1 4.100000e-01    2.600000e+00
 SP3ah SN5ar  1 4.100000e-01    2.350000e+00
 SP3ar SN5ah  1 4.100000e-01    2.350000e+00
 SP3ah SN4ar  1 4.100000e-01    2.350000e+00
 SP3ar SN4ah  1 4.100000e-01    2.350000e+00
 SP3ah SN3ar  1 4.100000e-01    2.200000e+00
 SP3ar SN3ah  1 4.100000e-01    2.200000e+00
 SP3ah SN2ar  1 4.100000e-01    2.200000e+00
 SP3ar SN2ah  1 4.100000e-01    2.200000e+00
 SP3ah SN1ar  1 4.100000e-01    2.200000e+00
 SP3ar SN1ah  1 4.100000e-01    2.200000e+00
 SP2ah SP2ar  1 4.100000e-01    3.070000e+00
 SP2ah SP1dr  1 4.100000e-01    3.310000e+00
 SP2ar SP1dh  1 4.100000e-01    3.310000e+00
 SP2ah SN6dr  1 4.100000e-01    3.310000e+00
 SP2ar SN6dh  1 4.100000e-01    3.310000e+00
 SP2ah SN5dr  1 4.100000e-01    3.070000e+00
 SP2ar SN5dh  1 4.100000e-01    3.070000e+00
 SP2ah SN4dr  1 4.100000e-01    2.840000e+00
 SP2ar SN4dh  1 4.100000e-01    2.840000e+00
 SP2ah SN3dr  1 4.100000e-01    2.600000e+00
 SP2ar SN3dh  1 4.100000e-01    2.600000e+00
 SP2ah SN2dr  1 4.100000e-01    2.600000e+00
 SP2ar SN2dh  1 4.100000e-01    2.600000e+00
 SP2ah SN1dr  1 4.100000e-01    2.600000e+00
 SP2ar SN1dh  1 4.100000e-01    2.600000e+00
 SP2ah SP1ar  1 4.100000e-01    2.840000e+00
 SP2ar SP1ah  1 4.100000e-01    2.840000e+00
 SP2ah SN6ar  1 4.100000e-01    2.840000e+00
 SP2ar SN6ah  1 4.100000e-01    2.840000e+00
 SP2ah SN5ar  1 4.100000e-01    2.600000e+00
 SP2ar SN5ah  1 4.100000e-01    2.600000e+00
 SP2ah SN4ar  1 4.100000e-01    2.350000e+00
 SP2ar SN4ah  1 4.100000e-01    2.350000e+00
 SP2ah SN3ar  1 4.100000e-01    2.200000e+00
 SP2ar SN3ah  1 4.100000e-01    2.200000e+00
 SP2ah SN2ar  1 4.100000e-01    2.200000e+00
 SP2ar SN2ah  1 4.100000e-01    2.200000e+00
 SP2ah SN1ar  1 4.100000e-01    2.200000e+00
 SP2ar SN1ah  1 4.100000e-01    2.200000e+00
 SP1ah SP1ar  1 4.100000e-01    2.840000e+00
 SP1ah SN6dr  1 4.100000e-01    3.310000e+00
 SP1ar SN6dh  1 4.100000e-01    3.310000e+00
 SP1ah SN5dr  1 4.100000e-01    3.070000e+00
 SP1ar SN5dh  1 4.100000e-01    3.070000e+00
 SP1ah SN4dr  1 4.100000e-01    3.070000e+00
 SP1ar SN4dh  1 4.100000e-01    3.070000e+00
 SP1ah SN3dr  1 4.100000e-01    2.600000e+00
 SP1ar SN3dh  1 4.100000e-01    2.600000e+00
 SP1ah SN2dr  1 4.100000e-01    2.600000e+00
 SP1ar SN2dh  1 4.100000e-01    2.600000e+00
 SP1ah SN1dr  1 4.100000e-01    2.600000e+00
 SP1ar SN1dh  1 4.100000e-01    2.600000e+00
 SP1ah SN6ar  1 4.100000e-01    2.840000e+00
 SP1ar SN6ah  1 4.100000e-01    2.840000e+00
 SP1ah SN5ar  1 4.100000e-01    2.600000e+00
 SP1ar SN5ah  1 4.100000e-01    2.600000e+00
 SP1ah SN4ar  1 4.100000e-01    2.600000e+00
 SP1ar SN4ah  1 4.100000e-01    2.600000e+00
 SP1ah SN3ar  1 4.100000e-01    2.200000e+00
 SP1ar SN3ah  1 4.100000e-01    2.200000e+00
 SP1ah SN2ar  1 4.100000e-01    2.200000e+00
 SP1ar SN2ah  1 4.100000e-01    2.200000e+00
 SP1ah SN1ar  1 4.100000e-01    2.200000e+00
 SP1ar SN1ah  1 4.100000e-01    2.200000e+00
 SN6ah SN6ar  1 4.100000e-01    2.840000e+00
 SN6ah SN5dr  1 4.100000e-01    3.310000e+00
 SN6ar SN5dh  1 4.100000e-01    3.310000e+00
 SN6ah SN4dr  1 4.100000e-01    3.310000e+00
 SN6ar SN4dh  1 4.100000e-01    3.310000e+00
 SN6ah SN3dr  1 4.100000e-01    2.840000e+00
 SN6ar SN3dh  1 4.100000e-01    2.840000e+00
 SN6ah SN2dr  1 4.100000e-01    2.600000e+00
 SN6ar SN2dh  1 4.100000e-01    2.600000e+00
 SN6ah SN1dr  1 4.100000e-01    2.600000e+00
 SN6ar SN1dh  1 4.100000e-01    2.600000e+00
 SN6ah SN5ar  1 4.100000e-01    2.840000e+00
 SN6ar SN5ah  1 4.100000e-01    2.840000e+00
 SN6ah SN4ar  1 4.100000e-01    2.840000e+00
 SN6ar SN4ah  1 4.100000e-01    2.840000e+00
 SN6ah SN3ar  1 4.100000e-01    2.350000e+00
 SN6ar SN3ah  1 4.100000e-01    2.350000e+00
 SN6ah SN2ar  1 4.100000e-01    2.200000e+00
 SN6ar SN2ah  1 4.100000e-01    2.200000e+00
 SN6ah SN1ar  1 4.100000e-01    2.200000e+00
 SN6ar SN1ah  1 4.100000e-01    2.200000e+00
 SN5ah SN5ar  1 4.100000e-01    2.600000e+00
 SN5ah SN4dr  1 4.100000e-01    3.070000e+00
 SN5ar SN4dh  1 4.100000e-01    3.070000e+00
 SN5ah SN3dr  1 4.100000e-01    2.840000e+00
 SN5ar SN3dh  1 4.100000e-01    2.840000e+00
 SN5ah SN2dr  1 4.100000e-01    2.840000e+00
 SN5ar SN2dh  1 4.100000e-01    2.840000e+00
 SN5ah SN1dr  1 4.100000e-01    2.600000e+00
 SN5ar SN1dh  1 4.100000e-01    2.600000e+00
 SN5ah SN4ar  1 4.100000e-01    2.600000e+00
 SN5ar SN4ah  1 4.100000e-01    2.600000e+00
 SN5ah SN3ar  1 4.100000e-01    2.350000e+00
 SN5ar SN3ah  1 4.100000e-01    2.350000e+00
 SN5ah SN2ar  1 4.100000e-01    2.350000e+00
 SN5ar SN2ah  1 4.100000e-01    2.350000e+00
 SN5ah SN1ar  1 4.100000e-01    2.200000e+00
 SN5ar SN1ah  1 4.100000e-01    2.200000e+00
 SN4ah SN4ar  1 4.100000e-01    2.600000e+00
 SN4ah SN3dr  1 4.100000e-01    2.840000e+00
 SN4ar SN3dh  1 4.100000e-01    2.840000e+00
 SN4ah SN2dr  1 4.100000e-01    2.840000e+00
 SN4ar SN2dh  1 4.100000e-01    2.840000e+00
 SN4ah SN1dr  1 4.100000e-01    2.600000e+00
 SN4ar SN1dh  1 4.100000e-01    2.600000e+00
 SN4ah SN3ar  1 4.100000e-01    2.350000e+00
 SN4ar SN3ah  1 4.100000e-01    2.350000e+00
 SN4ah SN2ar  1 4.100000e-01    2.350000e+00
 SN4ar SN2ah  1 4.100000e-01    2.350000e+00
 SN4ah SN1ar  1 4.100000e-01    2.200000e+00
 SN4ar SN1ah  1 4.100000e-01    2.200000e+00
 SN3ah SN3ar  1 4.100000e-01    2.350000e+00
 SN3ah SN2dr  1 4.100000e-01    2.840000e+00
 SN3ar SN2dh  1 4.100000e-01    2.840000e+00
 SN3ah SN1dr  1 4.100000e-01    2.600000e+00
 SN3ar SN1dh  1 4.100000e-01    2.600000e+00
 SN3ah SN2ar  1 4.100000e-01    2.350000e+00
 SN3ar SN2ah  1 4.100000e-01    2.350000e+00
 SN3ah SN1ar  1 4.100000e-01    2.200000e+00
 SN3ar SN1ah  1 4.100000e-01    2.200000e+00
 SN2ah SN2ar  1 4.100000e-01    2.350000e+00
 SN2ah SN1dr  1 4.100000e-01    2.600000e+00
 SN2ar SN1dh  1 4.100000e-01    2.600000e+00
 SN2ah SN1ar  1 4.100000e-01    2.200000e+00
 SN2ar SN1ah  1 4.100000e-01    2.200000e+00
 SN1ah SN1ar  1 4.100000e-01    2.350000e+00
  SC6h  SC6r  1 4.100000e-01    2.600000e+00
  SC6h  SC5r  1 4.100000e-01    2.350000e+00
  SC6r  SC5h  1 4.100000e-01    2.350000e+00
  SC6h  SC4r  1 4.100000e-01    2.350000e+00
  SC6r  SC4h  1 4.100000e-01    2.350000e+00
  SC6h  SC3r  1 4.100000e-01    2.200000e+00
  SC6r  SC3h  1 4.100000e-01    2.200000e+00
  SC6h  SC2r  1 4.100000e-01    2.040000e+00
  SC6r  SC2h  1 4.100000e-01    2.040000e+00
  SC6h  SC1r  1 4.100000e-01    1.910000e+00
  SC6r  SC1h  1 4.100000e-01    1.910000e+00
  SC6h  SX4r  1 4.100000e-01    2.350000e+00
  SC6r  SX4h  1 4.100000e-01    2.350000e+00
  SC6h  SX3r  1 4.100000e-01    2.350000e+00
  SC6r  SX3h  1 4.100000e-01    2.350000e+00
  SC6h  SX2r  1 4.100000e-01    2.350000e+00
  SC6r  SX2h  1 4.100000e-01    2.350000e+00
  SC6h  SX1r  1 4.100000e-01    2.350000e+00
  SC6r  SX1h  1 4.100000e-01    2.350000e+00
  SC5h  SC5r  1 4.100000e-01    2.350000e+00
  SC5h  SC4r  1 4.100000e-01    2.350000e+00
  SC5r  SC4h  1 4.100000e-01    2.350000e+00
  SC5h  SC3r  1 4.100000e-01    2.200000e+00
  SC5r  SC3h  1 4.100000e-01    2.200000e+00
  SC5h  SC2r  1 4.100000e-01    2.040000e+00
  SC5r  SC2h  1 4.100000e-01    2.040000e+00
  SC5h  SC1r  1 4.100000e-01    2.040000e+00
  SC5r  SC1h  1 4.100000e-01    2.040000e+00
  SC5h  SX4r  1 4.100000e-01    2.200000e+00
  SC5r  SX4h  1 4.100000e-01    2.200000e+00
  SC5h  SX3r  1 4.100000e-01    2.200000e+00
  SC5r  SX3h  1 4.100000e-01    2.200000e+00
  SC5h  SX2r  1 4.100000e-01    2.200000e+00
  SC5r  SX2h  1 4.100000e-01    2.200000e+00
  SC5h  SX1r  1 4.100000e-01    2.350000e+00
  SC5r  SX1h  1 4.100000e-01    2.350000e+00
  SC4h  SC4r  1 4.100000e-01    2.350000e+00
  SC4h  SC3r  1 4.100000e-01    2.350000e+00
  SC4r  SC3h  1 4.100000e-01    2.350000e+00
  SC4h  SC2r  1 4.100000e-01    2.200000e+00
  SC4r  SC2h  1 4.100000e-01    2.200000e+00
  SC4h  SC1r  1 4.100000e-01    2.040000e+00
  SC4r  SC1h  1 4.100000e-01    2.040000e+00
  SC4h  SX4r  1 4.100000e-01    2.200000e+00
  SC4r  SX4h  1 4.100000e-01    2.200000e+00
  SC4h  SX3r  1 4.100000e-01    2.200000e+00
  SC4r  SX3h  1 4.100000e-01    2.200000e+00
  SC4h  SX2r  1 4.100000e-01    2.200000e+00
  SC4r  SX2h  1 4.100000e-01    2.200000e+00
  SC4h  SX1r  1 4.100000e-01    2.350000e+00
  SC4r  SX1h  1 4.100000e-01    2.350000e+00
  SC3h  SC3r  1 4.100000e-01    2.350000e+00
  SC3h  SC2r  1 4.100000e-01    2.350000e+00
  SC3r  SC2h  1 4.100000e-01    2.350000e+00
  SC3h  SC1r  1 4.100000e-01    2.350000e+00
  SC3r  SC1h  1 4.100000e-01    2.350000e+00
  SC3h  SX4r  1 4.100000e-01    2.200000e+00
  SC3r  SX4h  1 4.100000e-01    2.200000e+00
  SC3h  SX3r  1 4.100000e-01    2.200000e+00
  SC3r  SX3h  1 4.100000e-01    2.200000e+00
  SC3h  SX2r  1 4.100000e-01    2.200000e+00
  SC3r  SX2h  1 4.100000e-01    2.200000e+00
  SC3h  SX1r  1 4.100000e-01    2.350000e+00
  SC3r  SX1h  1 4.100000e-01    2.350000e+00
  SC2h  SC2r  1 4.100000e-01    2.350000e+00
  SC2h  SC1r  1 4.100000e-01    2.600000e+00
  SC2r  SC1h  1 4.100000e-01    2.600000e+00
  SC2h  SX4r  1 4.100000e-01    1.910000e+00
  SC2r  SX4h  1 4.100000e-01    1.910000e+00
  SC2h  SX3r  1 4.100000e-01    2.200000e+00
  SC2r  SX3h  1 4.100000e-01    2.200000e+00
  SC2h  SX2r  1 4.100000e-01    2.200000e+00
  SC2r  SX2h  1 4.100000e-01    2.200000e+00
  SC2h  SX1r  1 4.100000e-01    2.200000e+00
  SC2r  SX1h  1 4.100000e-01    2.200000e+00
  SC1h  SC1r  1 4.100000e-01    2.350000e+00
  SC1h  SX4r  1 4.100000e-01    1.910000e+00
  SC1r  SX4h  1 4.100000e-01    1.910000e+00
  SC1h  SX3r  1 4.100000e-01    2.200000e+00
  SC1r  SX3h  1 4.100000e-01    2.200000e+00
  SC1h  SX2r  1 4.100000e-01    2.200000e+00
  SC1r  SX2h  1 4.100000e-01    2.200000e+00
  SC1h  SX1r  1 4.100000e-01    2.200000e+00
  SC1r  SX1h  1 4.100000e-01    2.200000e+00
  SX4h  SX4r  1 4.100000e-01    2.350000e+00
  SX4h  SX3r  1 4.100000e-01    2.350000e+00
  SX4r  SX3h  1 4.100000e-01    2.350000e+00
  SX4h  SX2r  1 4.100000e-01    2.350000e+00
  SX4r  SX2h  1 4.100000e-01    2.350000e+00
  SX4h  SX1r  1 4.100000e-01    2.350000e+00
  SX4r  SX1h  1 4.100000e-01    2.350000e+00
  SX3h  SX3r  1 4.100000e-01    2.350000e+00
  SX3h  SX2r  1 4.100000e-01    2.600000e+00
  SX3r  SX2h  1 4.100000e-01    2.600000e+00
  SX3h  SX1r  1 4.100000e-01    2.600000e+00
  SX3r  SX1h  1 4.100000e-01    2.600000e+00
  SX2h  SX2r  1 4.100000e-01    2.600000e+00
  SX2h  SX1r  1 4.100000e-01    2.600000e+00
  SX2r  SX1h  1 4.100000e-01    2.600000e+00
  SX1h  SX1r  1 4.100000e-01    2.840000e+00
 SC6vh SC6vr  1 4.100000e-01    2.350000e+00
 SC6vh SC5vr  1 4.100000e-01    2.200000e+00
 SC6vr SC5vh  1 4.100000e-01    2.200000e+00
 SC6vh SC4vr  1 4.100000e-01    2.200000e+00
 SC6vr SC4vh  1 4.100000e-01    2.200000e+00
 SC6vh SC3vr  1 4.100000e-01    2.040000e+00
 SC6vr SC3vh  1 4.100000e-01    2.040000e+00
 SC6vh SC2vr  1 4.100000e-01    1.910000e+00
 SC6vr SC2vh  1 4.100000e-01    1.910000e+00
 SC6vh SC1vr  1 4.100000e-01    1.750000e+00
 SC6vr SC1vh  1 4.100000e-01    1.750000e+00
 SC6vh SX4vr  1 4.100000e-01    2.200000e+00
 SC6vr SX4vh  1 4.100000e-01    2.200000e+00
 SC6vh SX3vr  1 4.100000e-01    2.200000e+00
 SC6vr SX3vh  1 4.100000e-01    2.200000e+00
 SC6vh SX2vr  1 4.100000e-01    2.200000e+00
 SC6vr SX2vh  1 4.100000e-01    2.200000e+00
 SC6vh SX1vr  1 4.100000e-01    2.200000e+00
 SC6vr SX1vh  1 4.100000e-01    2.200000e+00
 SC6vh SC6er  1 4.100000e-01    3.070000e+00
 SC6vr SC6eh  1 4.100000e-01    3.070000e+00
 SC6vh SC5er  1 4.100000e-01    2.840000e+00
 SC6vr SC5eh  1 4.100000e-01    2.840000e+00
 SC6vh SC4er  1 4.100000e-01    2.840000e+00
 SC6vr SC4eh  1 4.100000e-01    2.840000e+00
 SC6vh SC3er  1 4.100000e-01    2.600000e+00
 SC6vr SC3eh  1 4.100000e-01    2.600000e+00
 SC6vh SC2er  1 4.100000e-01    2.350000e+00
 SC6vr SC2eh  1 4.100000e-01    2.350000e+00
 SC6vh SC1er  1 4.100000e-01    2.200000e+00
 SC6vr SC1eh  1 4.100000e-01    2.200000e+00
 SC6vh SX4er  1 4.100000e-01    2.840000e+00
 SC6vr SX4eh  1 4.100000e-01    2.840000e+00
 SC6vh SX3er  1 4.100000e-01    2.840000e+00
 SC6vr SX3eh  1 4.100000e-01    2.840000e+00
 SC6vh SX2er  1 4.100000e-01    2.840000e+00
 SC6vr SX2eh  1 4.100000e-01    2.840000e+00
 SC6vh SX1er  1 4.100000e-01    2.840000e+00
 SC6vr SX1eh  1 4.100000e-01    2.840000e+00
 SC5vh SC5vr  1 4.100000e-01    2.200000e+00
 SC5vh SC4vr  1 4.100000e-01    2.200000e+00
 SC5vr SC4vh  1 4.100000e-01    2.200000e+00
 SC5vh SC3vr  1 4.100000e-01    2.040000e+00
 SC5vr SC3vh  1 4.100000e-01    2.040000e+00
 SC5vh SC2vr  1 4.100000e-01    1.910000e+00
 SC5vr SC2vh  1 4.100000e-01    1.910000e+00
 SC5vh SC1vr  1 4.100000e-01    1.910000e+00
 SC5vr SC1vh  1 4.100000e-01    1.910000e+00
 SC5vh SX4vr  1 4.100000e-01    2.040000e+00
 SC5vr SX4vh  1 4.100000e-01    2.040000e+00
 SC5vh SX3vr  1 4.100000e-01    2.040000e+00
 SC5vr SX3vh  1 4.100000e-01    2.040000e+00
 SC5vh SX2vr  1 4.100000e-01    2.040000e+00
 SC5vr SX2vh  1 4.100000e-01    2.040000e+00
 SC5vh SX1vr  1 4.100000e-01    2.200000e+00
 SC5vr SX1vh  1 4.100000e-01    2.200000e+00
 SC5vh SC5er  1 4.100000e-01    2.840000e+00
 SC5vr SC5eh  1 4.100000e-01    2.840000e+00
 SC5vh SC4er  1 4.100000e-01    2.840000e+00
 SC5vr SC4eh  1 4.100000e-01    2.840000e+00
 SC5vh SC3er  1 4.100000e-01    2.600000e+00
 SC5vr SC3eh  1 4.100000e-01    2.600000e+00
 SC5vh SC2er  1 4.100000e-01    2.350000e+00
 SC5vr SC2eh  1 4.100000e-01    2.350000e+00
 SC5vh SC1er  1 4.100000e-01    2.350000e+00
 SC5vr SC1eh  1 4.100000e-01    2.350000e+00
 SC5vh SX4er  1 4.100000e-01    2.600000e+00
 SC5vr SX4eh  1 4.100000e-01    2.600000e+00
 SC5vh SX3er  1 4.100000e-01    2.600000e+00
 SC5vr SX3eh  1 4.100000e-01    2.600000e+00
 SC5vh SX2er  1 4.100000e-01    2.600000e+00
 SC5vr SX2eh  1 4.100000e-01    2.600000e+00
 SC5vh SX1er  1 4.100000e-01    2.840000e+00
 SC5vr SX1eh  1 4.100000e-01    2.840000e+00
 SC4vh SC4vr  1 4.100000e-01    2.200000e+00
 SC4vh SC3vr  1 4.100000e-01    2.200000e+00
 SC4vr SC3vh  1 4.100000e-01    2.200000e+00
 SC4vh SC2vr  1 4.100000e-01    2.040000e+00
 SC4vr SC2vh  1 4.100000e-01    2.040000e+00
 SC4vh SC1vr  1 4.100000e-01    1.910000e+00
 SC4vr SC1vh  1 4.100000e-01    1.910000e+00
 SC4vh SX4vr  1 4.100000e-01    2.040000e+00
 SC4vr SX4vh  1 4.100000e-01    2.040000e+00
 SC4vh SX3vr  1 4.100000e-01    2.040000e+00
 SC4vr SX3vh  1 4.100000e-01    2.040000e+00
 SC4vh SX2vr  1 4.100000e-01    2.040000e+00
 SC4vr SX2vh  1 4.100000e-01    2.040000e+00
 SC4vh SX1vr  1 4.100000e-01    2.200000e+00
 SC4vr SX1vh  1 4.100000e-01    2.200000e+00
 SC4vh SC4er  1 4.100000e-01    2.840000e+00
 SC4vr SC4eh  1 4.100000e-01    2.840000e+00
 SC4vh SC3er  1 4.100000e-01    2.840000e+00
 SC4vr SC3eh  1 4.100000e-01    2.840000e+00
 SC4vh SC2er  1 4.100000e-01    2.600000e+00
 SC4vr SC2eh  1 4.100000e-01    2.600000e+00
 SC4vh SC1er  1 4.100000e-01    2.350000e+00
 SC4vr SC1eh  1 4.100000e-01    2.350000e+00
 SC4vh SX4er  1 4.100000e-01    2.600000e+00
 SC4vr SX4eh  1 4.100000e-01    2.600000e+00
 SC4vh SX3er  1 4.100000e-01    2.600000e+00
 SC4vr SX3eh  1 4.100000e-01    2.600000e+00
 SC4vh SX2er  1 4.100000e-01    2.600000e+00
 SC4vr SX2eh  1 4.100000e-01    2.600000e+00
 SC4vh SX1er  1 4.100000e-01    2.840000e+00
 SC4vr SX1eh  1 4.100000e-01    2.840000e+00
 SC3vh SC3vr  1 4.100000e-01    2.200000e+00
 SC3vh SC2vr  1 4.100000e-01    2.200000e+00
 SC3vr SC2vh  1 4.100000e-01    2.200000e+00
 SC3vh SC1vr  1 4.100000e-01    2.200000e+00
 SC3vr SC1vh  1 4.100000e-01    2.200000e+00
 SC3vh SX4vr  1 4.100000e-01    2.040000e+00
 SC3vr SX4vh  1 4.100000e-01    2.040000e+00
 SC3vh SX3vr  1 4.100000e-01    2.040000e+00
 SC3vr SX3vh  1 4.100000e-01    2.040000e+00
 SC3vh SX2vr  1 4.100000e-01    2.040000e+00
 SC3vr SX2vh  1 4.100000e-01    2.040000e+00
 SC3vh SX1vr  1 4.100000e-01    2.200000e+00
 SC3vr SX1vh  1 4.100000e-01    2.200000e+00
 SC3vh SC3er  1 4.100000e-01    2.840000e+00
 SC3vr SC3eh  1 4.100000e-01    2.840000e+00
 SC3vh SC2er  1 4.100000e-01    2.840000e+00
 SC3vr SC2eh  1 4.100000e-01    2.840000e+00
 SC3vh SC1er  1 4.100000e-01    2.840000e+00
 SC3vr SC1eh  1 4.100000e-01    2.840000e+00
 SC3vh SX4er  1 4.100000e-01    2.600000e+00
 SC3vr SX4eh  1 4.100000e-01    2.600000e+00
 SC3vh SX3er  1 4.100000e-01    2.600000e+00
 SC3vr SX3eh  1 4.100000e-01    2.600000e+00
 SC3vh SX2er  1 4.100000e-01    2.600000e+00
 SC3vr SX2eh  1 4.100000e-01    2.600000e+00
 SC3vh SX1er  1 4.100000e-01    2.840000e+00
 SC3vr SX1eh  1 4.100000e-01    2.840000e+00
 SC2vh SC2vr  1 4.100000e-01    2.200000e+00
 SC2vh SC1vr  1 4.100000e-01    2.350000e+00
 SC2vr SC1vh  1 4.100000e-01    2.350000e+00
 SC2vh SX4vr  1 4.100000e-01    1.750000e+00
 SC2vr SX4vh  1 4.100000e-01    1.750000e+00
 SC2vh SX3vr  1 4.100000e-01    2.040000e+00
 SC2vr SX3vh  1 4.100000e-01    2.040000e+00
 SC2vh SX2vr  1 4.100000e-01    2.040000e+00
 SC2vr SX2vh  1 4.100000e-01    2.040000e+00
 SC2vh SX1vr  1 4.100000e-01    2.040000e+00
 SC2vr SX1vh  1 4.100000e-01    2.040000e+00
 SC2vh SC2er  1 4.100000e-01    2.840000e+00
 SC2vr SC2eh  1 4.100000e-01    2.840000e+00
 SC2vh SC1er  1 4.100000e-01    3.070000e+00
 SC2vr SC1eh  1 4.100000e-01    3.070000e+00
 SC2vh SX4er  1 4.100000e-01    2.200000e+00
 SC2vr SX4eh  1 4.100000e-01    2.200000e+00
 SC2vh SX3er  1 4.100000e-01    2.600000e+00
 SC2vr SX3eh  1 4.100000e-01    2.600000e+00
 SC2vh SX2er  1 4.100000e-01    2.600000e+00
 SC2vr SX2eh  1 4.100000e-01    2.600000e+00
 SC2vh SX1er  1 4.100000e-01    2.600000e+00
 SC2vr SX1eh  1 4.100000e-01    2.600000e+00
 SC1vh SC1vr  1 4.100000e-01    2.200000e+00
 SC1vh SX4vr  1 4.100000e-01    1.750000e+00
 SC1vr SX4vh  1 4.100000e-01    1.750000e+00
 SC1vh SX3vr  1 4.100000e-01    2.040000e+00
 SC1vr SX3vh  1 4.100000e-01    2.040000e+00
 SC1vh SX2vr  1 4.100000e-01    2.040000e+00
 SC1vr SX2vh  1 4.100000e-01    2.040000e+00
 SC1vh SX1vr  1 4.100000e-01    2.040000e+00
 SC1vr SX1vh  1 4.100000e-01    2.040000e+00
 SC1vh SC1er  1 4.100000e-01    2.840000e+00
 SC1vr SC1eh  1 4.100000e-01    2.840000e+00
 SC1vh SX4er  1 4.100000e-01    2.200000e+00
 SC1vr SX4eh  1 4.100000e-01    2.200000e+00
 SC1vh SX3er  1 4.100000e-01    2.600000e+00
 SC1vr SX3eh  1 4.100000e-01    2.600000e+00
 SC1vh SX2er  1 4.100000e-01    2.600000e+00
 SC1vr SX2eh  1 4.100000e-01    2.600000e+00
 SC1vh SX1er  1 4.100000e-01    2.600000e+00
 SC1vr SX1eh  1 4.100000e-01    2.600000e+00
 SX4vh SX4vr  1 4.100000e-01    2.200000e+00
 SX4vh SX3vr  1 4.100000e-01    2.200000e+00
 SX4vr SX3vh  1 4.100000e-01    2.200000e+00
 SX4vh SX2vr  1 4.100000e-01    2.200000e+00
 SX4vr SX2vh  1 4.100000e-01    2.200000e+00
 SX4vh SX1vr  1 4.100000e-01    2.200000e+00
 SX4vr SX1vh  1 4.100000e-01    2.200000e+00
 SX4vh SX4er  1 4.100000e-01    2.840000e+00
 SX4vr SX4eh  1 4.100000e-01    2.840000e+00
 SX4vh SX3er  1 4.100000e-01    2.840000e+00
 SX4vr SX3eh  1 4.100000e-01    2.840000e+00
 SX4vh SX2er  1 4.100000e-01    2.840000e+00
 SX4vr SX2eh  1 4.100000e-01    2.840000e+00
 SX4vh SX1er  1 4.100000e-01    2.840000e+00
 SX4vr SX1eh  1 4.100000e-01    2.840000e+00
 SX3vh SX3vr  1 4.100000e-01    2.200000e+00
 SX3vh SX2vr  1 4.100000e-01    2.350000e+00
 SX3vr SX2vh  1 4.100000e-01    2.350000e+00
 SX3vh SX1vr  1 4.100000e-01    2.350000e+00
 SX3vr SX1vh  1 4.100000e-01    2.350000e+00
 SX3vh SX3er  1 4.100000e-01    2.840000e+00
 SX3vr SX3eh  1 4.100000e-01    2.840000e+00
 SX3vh SX2er  1 4.100000e-01    3.070000e+00
 SX3vr SX2eh  1 4.100000e-01    3.070000e+00
 SX3vh SX1er  1 4.100000e-01    3.070000e+00
 SX3vr SX1eh  1 4.100000e-01    3.070000e+00
 SX2vh SX2vr  1 4.100000e-01    2.350000e+00
 SX2vh SX1vr  1 4.100000e-01    2.350000e+00
 SX2vr SX1vh  1 4.100000e-01    2.350000e+00
 SX2vh SX2er  1 4.100000e-01    3.070000e+00
 SX2vr SX2eh  1 4.100000e-01    3.070000e+00
 SX2vh SX1er  1 4.100000e-01    3.070000e+00
 SX2vr SX1eh  1 4.100000e-01    3.070000e+00
 SX1vh SX1vr  1 4.100000e-01    2.600000e+00
 SX1vh SX1er  1 4.100000e-01    3.310000e+00
 SX1vr SX1eh  1 4.100000e-01    3.310000e+00
 SC6eh SC6er  1 4.100000e-01    2.350000e+00
 SC6eh SC5vr  1 4.100000e-01    2.840000e+00
 SC6er SC5vh  1 4.100000e-01    2.840000e+00
 SC6eh SC4vr  1 4.100000e-01    2.840000e+00
 SC6er SC4vh  1 4.100000e-01    2.840000e+00
 SC6eh SC3vr  1 4.100000e-01    2.600000e+00
 SC6er SC3vh  1 4.100000e-01    2.600000e+00
 SC6eh SC2vr  1 4.100000e-01    2.350000e+00
 SC6er SC2vh  1 4.100000e-01    2.350000e+00
 SC6eh SC1vr  1 4.100000e-01    2.200000e+00
 SC6er SC1vh  1 4.100000e-01    2.200000e+00
 SC6eh SX4vr  1 4.100000e-01    2.840000e+00
 SC6er SX4vh  1 4.100000e-01    2.840000e+00
 SC6eh SX3vr  1 4.100000e-01    2.840000e+00
 SC6er SX3vh  1 4.100000e-01    2.840000e+00
 SC6eh SX2vr  1 4.100000e-01    2.840000e+00
 SC6er SX2vh  1 4.100000e-01    2.840000e+00
 SC6eh SX1vr  1 4.100000e-01    2.840000e+00
 SC6er SX1vh  1 4.100000e-01    2.840000e+00
 SC6eh SC5er  1 4.100000e-01    2.200000e+00
 SC6er SC5eh  1 4.100000e-01    2.200000e+00
 SC6eh SC4er  1 4.100000e-01    2.200000e+00
 SC6er SC4eh  1 4.100000e-01    2.200000e+00
 SC6eh SC3er  1 4.100000e-01    2.040000e+00
 SC6er SC3eh  1 4.100000e-01    2.040000e+00
 SC6eh SC2er  1 4.100000e-01    1.910000e+00
 SC6er SC2eh  1 4.100000e-01    1.910000e+00
 SC6eh SC1er  1 4.100000e-01    1.750000e+00
 SC6er SC1eh  1 4.100000e-01    1.750000e+00
 SC6eh SX4er  1 4.100000e-01    2.200000e+00
 SC6er SX4eh  1 4.100000e-01    2.200000e+00
 SC6eh SX3er  1 4.100000e-01    2.200000e+00
 SC6er SX3eh  1 4.100000e-01    2.200000e+00
 SC6eh SX2er  1 4.100000e-01    2.200000e+00
 SC6er SX2eh  1 4.100000e-01    2.200000e+00
 SC6eh SX1er  1 4.100000e-01    2.200000e+00
 SC6er SX1eh  1 4.100000e-01    2.200000e+00
 SC5eh SC5er  1 4.100000e-01    2.200000e+00
 SC5eh SC4vr  1 4.100000e-01    2.840000e+00
 SC5er SC4vh  1 4.100000e-01    2.840000e+00
 SC5eh SC3vr  1 4.100000e-01    2.600000e+00
 SC5er SC3vh  1 4.100000e-01    2.600000e+00
 SC5eh SC2vr  1 4.100000e-01    2.350000e+00
 SC5er SC2vh  1 4.100000e-01    2.350000e+00
 SC5eh SC1vr  1 4.100000e-01    2.350000e+00
 SC5er SC1vh  1 4.100000e-01    2.350000e+00
 SC5eh SX4vr  1 4.100000e-01    2.600000e+00
 SC5er SX4vh  1 4.100000e-01    2.600000e+00
 SC5eh SX3vr  1 4.100000e-01    2.600000e+00
 SC5er SX3vh  1 4.100000e-01    2.600000e+00
 SC5eh SX2vr  1 4.100000e-01    2.600000e+00
 SC5er SX2vh  1 4.100000e-01    2.600000e+00
 SC5eh SX1vr  1 4.100000e-01    2.840000e+00
 SC5er SX1vh  1 4.100000e-01    2.840000e+00
 SC5eh SC4er  1 4.100000e-01    2.200000e+00
 SC5er SC4eh  1 4.100000e-01    2.200000e+00
 SC5eh SC3er  1 4.100000e-01    2.040000e+00
 SC5er SC3eh  1 4.100000e-01    2.040000e+00
 SC5eh SC2er  1 4.100000e-01    1.910000e+00
 SC5er SC2eh  1 4.100000e-01    1.910000e+00
 SC5eh SC1er  1 4.100000e-01    1.910000e+00
 SC5er SC1eh  1 4.100000e-01    1.910000e+00
 SC5eh SX4er  1 4.100000e-01    2.040000e+00
 SC5er SX4eh  1 4.100000e-01    2.040000e+00
 SC5eh SX3er  1 4.100000e-01    2.040000e+00
 SC5er SX3eh  1 4.100000e-01    2.040000e+00
 SC5eh SX2er  1 4.100000e-01    2.040000e+00
 SC5er SX2eh  1 4.100000e-01    2.040000e+00
 SC5eh SX1er  1 4.100000e-01    2.200000e+00
 SC5er SX1eh  1 4.100000e-01    2.200000e+00
 SC4eh SC4er  1 4.100000e-01    2.200000e+00
 SC4eh SC3vr  1 4.100000e-01    2.840000e+00
 SC4er SC3vh  1 4.100000e-01    2.840000e+00
 SC4eh SC2vr  1 4.100000e-01    2.600000e+00
 SC4er SC2vh  1 4.100000e-01    2.600000e+00
 SC4eh SC1vr  1 4.100000e-01    2.350000e+00
 SC4er SC1vh  1 4.100000e-01    2.350000e+00
 SC4eh SX4vr  1 4.100000e-01    2.600000e+00
 SC4er SX4vh  1 4.100000e-01    2.600000e+00
 SC4eh SX3vr  1 4.100000e-01    2.600000e+00
 SC4er SX3vh  1 4.100000e-01    2.600000e+00
 SC4eh SX2vr  1 4.100000e-01    2.600000e+00
 SC4er SX2vh  1 4.100000e-01    2.600000e+00
 SC4eh SX1vr  1 4.100000e-01    2.840000e+00
 SC4er SX1vh  1 4.100000e-01    2.840000e+00
 SC4eh SC3er  1 4.100000e-01    2.200000e+00
 SC4er SC3eh  1 4.100000e-01    2.200000e+00
 SC4eh SC2er  1 4.100000e-01    2.040000e+00
 SC4er SC2eh  1 4.100000e-01    2.040000e+00
 SC4eh SC1er  1 4.100000e-01    1.910000e+00
 SC4er SC1eh  1 4.100000e-01    1.910000e+00
 SC4eh SX4er  1 4.100000e-01    2.040000e+00
 SC4er SX4eh  1 4.100000e-01    2.040000e+00
 SC4eh SX3er  1 4.100000e-01    2.040000e+00
 SC4er SX3eh  1 4.100000e-01    2.040000e+00
 SC4eh SX2er  1 4.100000e-01    2.040000e+00
 SC4er SX2eh  1 4.100000e-01    2.040000e+00
 SC4eh SX1er  1 4.100000e-01    2.200000e+00
 SC4er SX1eh  1 4.100000e-01    2.200000e+00
 SC3eh SC3er  1 4.100000e-01    2.200000e+00
 SC3eh SC2vr  1 4.100000e-01    2.840000e+00
 SC3er SC2vh  1 4.100000e-01    2.840000e+00
 SC3eh SC1vr  1 4.100000e-01    2.840000e+00
 SC3er SC1vh  1 4.100000e-01    2.840000e+00
 SC3eh SX4vr  1 4.100000e-01    2.600000e+00
 SC3er SX4vh  1 4.100000e-01    2.600000e+00
 SC3eh SX3vr  1 4.100000e-01    2.600000e+00
 SC3er SX3vh  1 4.100000e-01    2.600000e+00
 SC3eh SX2vr  1 4.100000e-01    2.600000e+00
 SC3er SX2vh  1 4.100000e-01    2.600000e+00
 SC3eh SX1vr  1 4.100000e-01    2.840000e+00
 SC3er SX1vh  1 4.100000e-01    2.840000e+00
 SC3eh SC2er  1 4.100000e-01    2.200000e+00
 SC3er SC2eh  1 4.100000e-01    2.200000e+00
 SC3eh SC1er  1 4.100000e-01    2.200000e+00
 SC3er SC1eh  1 4.100000e-01    2.200000e+00
 SC3eh SX4er  1 4.100000e-01    2.040000e+00
 SC3er SX4eh  1 4.100000e-01    2.040000e+00
 SC3eh SX3er  1 4.100000e-01    2.040000e+00
 SC3er SX3eh  1 4.100000e-01    2.040000e+00
 SC3eh SX2er  1 4.100000e-01    2.040000e+00
 SC3er SX2eh  1 4.100000e-01    2.040000e+00
 SC3eh SX1er  1 4.100000e-01    2.200000e+00
 SC3er SX1eh  1 4.100000e-01    2.200000e+00
 SC2eh SC2er  1 4.100000e-01    2.200000e+00
 SC2eh SC1vr  1 4.100000e-01    3.070000e+00
 SC2er SC1vh  1 4.100000e-01    3.070000e+00
 SC2eh SX4vr  1 4.100000e-01    2.200000e+00
 SC2er SX4vh  1 4.100000e-01    2.200000e+00
 SC2eh SX3vr  1 4.100000e-01    2.600000e+00
 SC2er SX3vh  1 4.100000e-01    2.600000e+00
 SC2eh SX2vr  1 4.100000e-01    2.600000e+00
 SC2er SX2vh  1 4.100000e-01    2.600000e+00
 SC2eh SX1vr  1 4.100000e-01    2.600000e+00
 SC2er SX1vh  1 4.100000e-01    2.600000e+00
 SC2eh SC1er  1 4.100000e-01    2.350000e+00
 SC2er SC1eh  1 4.100000e-01    2.350000e+00
 SC2eh SX4er  1 4.100000e-01    1.750000e+00
 SC2er SX4eh  1 4.100000e-01    1.750000e+00
 SC2eh SX3er  1 4.100000e-01    2.040000e+00
 SC2er SX3eh  1 4.100000e-01    2.040000e+00
 SC2eh SX2er  1 4.100000e-01    2.040000e+00
 SC2er SX2eh  1 4.100000e-01    2.040000e+00
 SC2eh SX1er  1 4.100000e-01    2.040000e+00
 SC2er SX1eh  1 4.100000e-01    2.040000e+00
 SC1eh SC1er  1 4.100000e-01    2.200000e+00
 SC1eh SX4vr  1 4.100000e-01    2.200000e+00
 SC1er SX4vh  1 4.100000e-01    2.200000e+00
 SC1eh SX3vr  1 4.100000e-01    2.600000e+00
 SC1er SX3vh  1 4.100000e-01    2.600000e+00
 SC1eh SX2vr  1 4.100000e-01    2.600000e+00
 SC1er SX2vh  1 4.100000e-01    2.600000e+00
 SC1eh SX1vr  1 4.100000e-01    2.600000e+00
 SC1er SX1vh  1 4.100000e-01    2.600000e+00
 SC1eh SX4er  1 4.100000e-01    1.750000e+00
 SC1er SX4eh  1 4.100000e-01    1.750000e+00
 SC1eh SX3er  1 4.100000e-01    2.040000e+00
 SC1er SX3eh  1 4.100000e-01    2.040000e+00
 SC1eh SX2er  1 4.100000e-01    2.040000e+00
 SC1er SX2eh  1 4.100000e-01    2.040000e+00
 SC1eh SX1er  1 4.100000e-01    2.040000e+00
 SC1er SX1eh  1 4.100000e-01    2.040000e+00
 SX4eh SX4er  1 4.100000e-01    2.200000e+00
 SX4eh SX3vr  1 4.100000e-01    2.840000e+00
 SX4er SX3vh  1 4.100000e-01    2.840000e+00
 SX4eh SX2vr  1 4.100000e-01    2.840000e+00
 SX4er SX2vh  1 4.100000e-01    2.840000e+00
 SX4eh SX1vr  1 4.100000e-01    2.840000e+00
 SX4er SX1vh  1 4.100000e-01    2.840000e+00
 SX4eh SX3er  1 4.100000e-01    2.200000e+00
 SX4er SX3eh  1 4.100000e-01    2.200000e+00
 SX4eh SX2er  1 4.100000e-01    2.200000e+00
 SX4er SX2eh  1 4.100000e-01    2.200000e+00
 SX4eh SX1er  1 4.100000e-01    2.200000e+00
 SX4er SX1eh  1 4.100000e-01    2.200000e+00
 SX3eh SX3er  1 4.100000e-01    2.200000e+00
 SX3eh SX2vr  1 4.100000e-01    3.070000e+00
 SX3er SX2vh  1 4.100000e-01    3.070000e+00
 SX3eh SX1vr  1 4.100000e-01    3.070000e+00
 SX3er SX1vh  1 4.100000e-01    3.070000e+00
 SX3eh SX2er  1 4.100000e-01    2.350000e+00
 SX3er SX2eh  1 4.100000e-01    2.350000e+00
 SX3eh SX1er  1 4.100000e-01    2.350000e+00
 SX3er SX1eh  1 4.100000e-01    2.350000e+00
 SX2eh SX2er  1 4.100000e-01    2.350000e+00
 SX2eh SX1vr  1 4.100000e-01    3.070000e+00
 SX2er SX1vh  1 4.100000e-01    3.070000e+00
 SX2eh SX1er  1 4.100000e-01    2.350000e+00
 SX2er SX1eh  1 4.100000e-01    2.350000e+00
 SX1eh SX1er  1 4.100000e-01    2.600000e+00
  SP6h  SC6r  1 4.100000e-01    1.910000e+00
  SP6r  SC6h  1 4.100000e-01    1.910000e+00
  SP6h  SC5r  1 4.100000e-01    1.750000e+00
  SP6r  SC5h  1 4.100000e-01    1.750000e+00
  SP6h  SC4r  1 4.140000e-01    1.560000e+00
  SP6r  SC4h  1 4.140000e-01    1.560000e+00
  SP6h  SC3r  1 4.180000e-01    1.400000e+00
  SP6r  SC3h  1 4.180000e-01    1.400000e+00
  SP6h  SC2r  1 4.180000e-01    1.400000e+00
  SP6r  SC2h  1 4.180000e-01    1.400000e+00
  SP6h  SC1r  1 4.530000e-01    1.150000e+00
  SP6r  SC1h  1 4.530000e-01    1.150000e+00
  SP6h  SX4r  1 4.100000e-01    2.040000e+00
  SP6r  SX4h  1 4.100000e-01    2.040000e+00
  SP6h  SX3r  1 4.100000e-01    2.040000e+00
  SP6r  SX3h  1 4.100000e-01    2.040000e+00
  SP6h  SX2r  1 4.100000e-01    1.910000e+00
  SP6r  SX2h  1 4.100000e-01    1.910000e+00
  SP6h  SX1r  1 4.100000e-01    1.750000e+00
  SP6r  SX1h  1 4.100000e-01    1.750000e+00
  SP5h  SC6r  1 4.100000e-01    1.910000e+00
  SP5r  SC6h  1 4.100000e-01    1.910000e+00
  SP5h  SC5r  1 4.100000e-01    1.910000e+00
  SP5r  SC5h  1 4.100000e-01    1.910000e+00
  SP5h  SC4r  1 4.100000e-01    1.750000e+00
  SP5r  SC4h  1 4.100000e-01    1.750000e+00
  SP5h  SC3r  1 4.140000e-01    1.560000e+00
  SP5r  SC3h  1 4.140000e-01    1.560000e+00
  SP5h  SC2r  1 4.140000e-01    1.560000e+00
  SP5r  SC2h  1 4.140000e-01    1.560000e+00
  SP5h  SC1r  1 4.180000e-01    1.400000e+00
  SP5r  SC1h  1 4.180000e-01    1.400000e+00
  SP5h  SX4r  1 4.100000e-01    2.200000e+00
  SP5r  SX4h  1 4.100000e-01    2.200000e+00
  SP5h  SX3r  1 4.100000e-01    2.040000e+00
  SP5r  SX3h  1 4.100000e-01    2.040000e+00
  SP5h  SX2r  1 4.100000e-01    2.040000e+00
  SP5r  SX2h  1 4.100000e-01    2.040000e+00
  SP5h  SX1r  1 4.100000e-01    1.750000e+00
  SP5r  SX1h  1 4.100000e-01    1.750000e+00
  SP4h  SC6r  1 4.100000e-01    2.040000e+00
  SP4r  SC6h  1 4.100000e-01    2.040000e+00
  SP4h  SC5r  1 4.100000e-01    1.910000e+00
  SP4r  SC5h  1 4.100000e-01    1.910000e+00
  SP4h  SC4r  1 4.100000e-01    1.750000e+00
  SP4r  SC4h  1 4.100000e-01    1.750000e+00
  SP4h  SC3r  1 4.140000e-01    1.560000e+00
  SP4r  SC3h  1 4.140000e-01    1.560000e+00
  SP4h  SC2r  1 4.140000e-01    1.560000e+00
  SP4r  SC2h  1 4.140000e-01    1.560000e+00
  SP4h  SC1r  1 4.180000e-01    1.400000e+00
  SP4r  SC1h  1 4.180000e-01    1.400000e+00
  SP4h  SX4r  1 4.100000e-01    2.200000e+00
  SP4r  SX4h  1 4.100000e-01    2.200000e+00
  SP4h  SX3r  1 4.100000e-01    2.040000e+00
  SP4r  SX3h  1 4.100000e-01    2.040000e+00
  SP4h  SX2r  1 4.100000e-01    2.040000e+00
  SP4r  SX2h  1 4.100000e-01    2.040000e+00
  SP4h  SX1r  1 4.100000e-01    1.910000e+00
  SP4r  SX1h  1 4.100000e-01    1.910000e+00
  SP3h  SC6r  1 4.100000e-01    2.200000e+00
  SP3r  SC6h  1 4.100000e-01    2.200000e+00
  SP3h  SC5r  1 4.100000e-01    2.040000e+00
  SP3r  SC5h  1 4.100000e-01    2.040000e+00
  SP3h  SC4r  1 4.100000e-01    1.910000e+00
  SP3r  SC4h  1 4.100000e-01    1.910000e+00
  SP3h  SC3r  1 4.140000e-01    1.560000e+00
  SP3r  SC3h  1 4.140000e-01    1.560000e+00
  SP3h  SC2r  1 4.140000e-01    1.560000e+00
  SP3r  SC2h  1 4.140000e-01    1.560000e+00
  SP3h  SC1r  1 4.180000e-01    1.400000e+00
  SP3r  SC1h  1 4.180000e-01    1.400000e+00
  SP3h  SX4r  1 4.100000e-01    2.200000e+00
  SP3r  SX4h  1 4.100000e-01    2.200000e+00
  SP3h  SX3r  1 4.100000e-01    2.200000e+00
  SP3r  SX3h  1 4.100000e-01    2.200000e+00
  SP3h  SX2r  1 4.100000e-01    2.040000e+00
  SP3r  SX2h  1 4.100000e-01    2.040000e+00
  SP3h  SX1r  1 4.100000e-01    1.910000e+00
  SP3r  SX1h  1 4.100000e-01    1.910000e+00
  SP2h  SC6r  1 4.100000e-01    2.200000e+00
  SP2r  SC6h  1 4.100000e-01    2.200000e+00
  SP2h  SC5r  1 4.100000e-01    2.040000e+00
  SP2r  SC5h  1 4.100000e-01    2.040000e+00
  SP2h  SC4r  1 4.100000e-01    1.910000e+00
  SP2r  SC4h  1 4.100000e-01    1.910000e+00
  SP2h  SC3r  1 4.100000e-01    1.750000e+00
  SP2r  SC3h  1 4.100000e-01    1.750000e+00
  SP2h  SC2r  1 4.100000e-01    1.750000e+00
  SP2r  SC2h  1 4.100000e-01    1.750000e+00
  SP2h  SC1r  1 4.140000e-01    1.560000e+00
  SP2r  SC1h  1 4.140000e-01    1.560000e+00
  SP2h  SX4r  1 4.100000e-01    2.200000e+00
  SP2r  SX4h  1 4.100000e-01    2.200000e+00
  SP2h  SX3r  1 4.100000e-01    2.200000e+00
  SP2r  SX3h  1 4.100000e-01    2.200000e+00
  SP2h  SX2r  1 4.100000e-01    2.040000e+00
  SP2r  SX2h  1 4.100000e-01    2.040000e+00
  SP2h  SX1r  1 4.100000e-01    1.910000e+00
  SP2r  SX1h  1 4.100000e-01    1.910000e+00
  SP1h  SC6r  1 4.100000e-01    2.200000e+00
  SP1r  SC6h  1 4.100000e-01    2.200000e+00
  SP1h  SC5r  1 4.100000e-01    2.040000e+00
  SP1r  SC5h  1 4.100000e-01    2.040000e+00
  SP1h  SC4r  1 4.100000e-01    1.910000e+00
  SP1r  SC4h  1 4.100000e-01    1.910000e+00
  SP1h  SC3r  1 4.100000e-01    1.750000e+00
  SP1r  SC3h  1 4.100000e-01    1.750000e+00
  SP1h  SC2r  1 4.100000e-01    1.750000e+00
  SP1r  SC2h  1 4.100000e-01    1.750000e+00
  SP1h  SC1r  1 4.140000e-01    1.560000e+00
  SP1r  SC1h  1 4.140000e-01    1.560000e+00
  SP1h  SX4r  1 4.100000e-01    2.200000e+00
  SP1r  SX4h  1 4.100000e-01    2.200000e+00
  SP1h  SX3r  1 4.100000e-01    2.200000e+00
  SP1r  SX3h  1 4.100000e-01    2.200000e+00
  SP1h  SX2r  1 4.100000e-01    2.040000e+00
  SP1r  SX2h  1 4.100000e-01    2.040000e+00
  SP1h  SX1r  1 4.100000e-01    1.910000e+00
  SP1r  SX1h  1 4.100000e-01    1.910000e+00
  SN6h  SC6r  1 4.100000e-01    2.350000e+00
  SN6r  SC6h  1 4.100000e-01    2.350000e+00
  SN6h  SC5r  1 4.100000e-01    2.200000e+00
  SN6r  SC5h  1 4.100000e-01    2.200000e+00
  SN6h  SC4r  1 4.100000e-01    2.040000e+00
  SN6r  SC4h  1 4.100000e-01    2.040000e+00
  SN6h  SC3r  1 4.100000e-01    1.910000e+00
  SN6r  SC3h  1 4.100000e-01    1.910000e+00
  SN6h  SC2r  1 4.100000e-01    1.910000e+00
  SN6r  SC2h  1 4.100000e-01    1.910000e+00
  SN6h  SC1r  1 4.100000e-01    1.750000e+00
  SN6r  SC1h  1 4.100000e-01    1.750000e+00
  SN6h  SX4r  1 4.100000e-01    2.350000e+00
  SN6r  SX4h  1 4.100000e-01    2.350000e+00
  SN6h  SX3r  1 4.100000e-01    2.200000e+00
  SN6r  SX3h  1 4.100000e-01    2.200000e+00
  SN6h  SX2r  1 4.100000e-01    2.040000e+00
  SN6r  SX2h  1 4.100000e-01    2.040000e+00
  SN6h  SX1r  1 4.100000e-01    1.910000e+00
  SN6r  SX1h  1 4.100000e-01    1.910000e+00
  SN5h  SC6r  1 4.100000e-01    2.350000e+00
  SN5r  SC6h  1 4.100000e-01    2.350000e+00
  SN5h  SC5r  1 4.100000e-01    2.200000e+00
  SN5r  SC5h  1 4.100000e-01    2.200000e+00
  SN5h  SC4r  1 4.100000e-01    2.040000e+00
  SN5r  SC4h  1 4.100000e-01    2.040000e+00
  SN5h  SC3r  1 4.100000e-01    2.040000e+00
  SN5r  SC3h  1 4.100000e-01    2.040000e+00
  SN5h  SC2r  1 4.100000e-01    1.910000e+00
  SN5r  SC2h  1 4.100000e-01    1.910000e+00
  SN5h  SC1r  1 4.100000e-01    1.750000e+00
  SN5r  SC1h  1 4.100000e-01    1.750000e+00
  SN5h  SX4r  1 4.100000e-01    2.600000e+00
  SN5r  SX4h  1 4.100000e-01    2.600000e+00
  SN5h  SX3r  1 4.100000e-01    2.350000e+00
  SN5r  SX3h  1 4.100000e-01    2.350000e+00
  SN5h  SX2r  1 4.100000e-01    2.200000e+00
  SN5r  SX2h  1 4.100000e-01    2.200000e+00
  SN5h  SX1r  1 4.100000e-01    2.040000e+00
  SN5r  SX1h  1 4.100000e-01    2.040000e+00
  SN4h  SC6r  1 4.100000e-01    2.350000e+00
  SN4r  SC6h  1 4.100000e-01    2.350000e+00
  SN4h  SC5r  1 4.100000e-01    2.200000e+00
  SN4r  SC5h  1 4.100000e-01    2.200000e+00
  SN4h  SC4r  1 4.100000e-01    2.200000e+00
  SN4r  SC4h  1 4.100000e-01    2.200000e+00
  SN4h  SC3r  1 4.100000e-01    2.040000e+00
  SN4r  SC3h  1 4.100000e-01    2.040000e+00
  SN4h  SC2r  1 4.100000e-01    1.910000e+00
  SN4r  SC2h  1 4.100000e-01    1.910000e+00
  SN4h  SC1r  1 4.100000e-01    1.750000e+00
  SN4r  SC1h  1 4.100000e-01    1.750000e+00
  SN4h  SX4r  1 4.100000e-01    2.840000e+00
  SN4r  SX4h  1 4.100000e-01    2.840000e+00
  SN4h  SX3r  1 4.100000e-01    2.600000e+00
  SN4r  SX3h  1 4.100000e-01    2.600000e+00
  SN4h  SX2r  1 4.100000e-01    2.200000e+00
  SN4r  SX2h  1 4.100000e-01    2.200000e+00
  SN4h  SX1r  1 4.100000e-01    2.040000e+00
  SN4r  SX1h  1 4.100000e-01    2.040000e+00
  SN3h  SC6r  1 4.100000e-01    2.350000e+00
  SN3r  SC6h  1 4.100000e-01    2.350000e+00
  SN3h  SC5r  1 4.100000e-01    2.200000e+00
  SN3r  SC5h  1 4.100000e-01    2.200000e+00
  SN3h  SC4r  1 4.100000e-01    2.200000e+00
  SN3r  SC4h  1 4.100000e-01    2.200000e+00
  SN3h  SC3r  1 4.100000e-01    2.040000e+00
  SN3r  SC3h  1 4.100000e-01    2.040000e+00
  SN3h  SC2r  1 4.100000e-01    2.040000e+00
  SN3r  SC2h  1 4.100000e-01    2.040000e+00
  SN3h  SC1r  1 4.100000e-01    1.910000e+00
  SN3r  SC1h  1 4.100000e-01    1.910000e+00
  SN3h  SX4r  1 4.100000e-01    2.600000e+00
  SN3r  SX4h  1 4.100000e-01    2.600000e+00
  SN3h  SX3r  1 4.100000e-01    2.350000e+00
  SN3r  SX3h  1 4.100000e-01    2.350000e+00
  SN3h  SX2r  1 4.100000e-01    2.200000e+00
  SN3r  SX2h  1 4.100000e-01    2.200000e+00
  SN3h  SX1r  1 4.100000e-01    2.200000e+00
  SN3r  SX1h  1 4.100000e-01    2.200000e+00
  SN2h  SC6r  1 4.100000e-01    2.350000e+00
  SN2r  SC6h  1 4.100000e-01    2.350000e+00
  SN2h  SC5r  1 4.100000e-01    2.200000e+00
  SN2r  SC5h  1 4.100000e-01    2.200000e+00
  SN2h  SC4r  1 4.100000e-01    2.200000e+00
  SN2r  SC4h  1 4.100000e-01    2.200000e+00
  SN2h  SC3r  1 4.100000e-01    2.200000e+00
  SN2r  SC3h  1 4.100000e-01    2.200000e+00
  SN2h  SC2r  1 4.100000e-01    2.040000e+00
  SN2r  SC2h  1 4.100000e-01    2.040000e+00
  SN2h  SC1r  1 4.100000e-01    1.910000e+00
  SN2r  SC1h  1 4.100000e-01    1.910000e+00
  SN2h  SX4r  1 4.100000e-01    2.600000e+00
  SN2r  SX4h  1 4.100000e-01    2.600000e+00
  SN2h  SX3r  1 4.100000e-01    2.350000e+00
  SN2r  SX3h  1 4.100000e-01    2.350000e+00
  SN2h  SX2r  1 4.100000e-01    2.200000e+00
  SN2r  SX2h  1 4.100000e-01    2.200000e+00
  SN2h  SX1r  1 4.100000e-01    2.200000e+00
  SN2r  SX1h  1 4.100000e-01    2.200000e+00
  SN1h  SC6r  1 4.100000e-01    2.600000e+00
  SN1r  SC6h  1 4.100000e-01    2.600000e+00
  SN1h  SC5r  1 4.100000e-01    2.350000e+00
  SN1r  SC5h  1 4.100000e-01    2.350000e+00
  SN1h  SC4r  1 4.100000e-01    2.350000e+00
  SN1r  SC4h  1 4.100000e-01    2.350000e+00
  SN1h  SC3r  1 4.100000e-01    2.200000e+00
  SN1r  SC3h  1 4.100000e-01    2.200000e+00
  SN1h  SC2r  1 4.100000e-01    2.040000e+00
  SN1r  SC2h  1 4.100000e-01    2.040000e+00
  SN1h  SC1r  1 4.100000e-01    1.910000e+00
  SN1r  SC1h  1 4.100000e-01    1.910000e+00
  SN1h  SX4r  1 4.100000e-01    2.350000e+00
  SN1r  SX4h  1 4.100000e-01    2.350000e+00
  SN1h  SX3r  1 4.100000e-01    2.350000e+00
  SN1r  SX3h  1 4.100000e-01    2.350000e+00
  SN1h  SX2r  1 4.100000e-01    2.200000e+00
  SN1r  SX2h  1 4.100000e-01    2.200000e+00
  SN1h  SX1r  1 4.100000e-01    2.200000e+00
  SN1r  SX1h  1 4.100000e-01    2.200000e+00
 SP6dh SC6vr  1 4.100000e-01    1.750000e+00
 SP6dr SC6vh  1 4.100000e-01    1.750000e+00
 SP6dh SC5vr  1 4.140000e-01    1.560000e+00
 SP6dr SC5vh  1 4.140000e-01    1.560000e+00
 SP6dh SC4vr  1 4.180000e-01    1.400000e+00
 SP6dr SC4vh  1 4.180000e-01    1.400000e+00
 SP6dh SC3vr  1 4.210000e-01    1.250000e+00
 SP6dr SC3vh  1 4.210000e-01    1.250000e+00
 SP6dh SC2vr  1 4.210000e-01    1.250000e+00
 SP6dr SC2vh  1 4.210000e-01    1.250000e+00
 SP6dh SC1vr  1 4.960000e-01    1.050000e+00
 SP6dr SC1vh  1 4.960000e-01    1.050000e+00
 SP6dh SX4vr  1 4.100000e-01    1.910000e+00
 SP6dr SX4vh  1 4.100000e-01    1.910000e+00
 SP6dh SX3vr  1 4.100000e-01    1.910000e+00
 SP6dr SX3vh  1 4.100000e-01    1.910000e+00
 SP6dh SX2vr  1 4.100000e-01    1.750000e+00
 SP6dr SX2vh  1 4.100000e-01    1.750000e+00
 SP6dh SX1vr  1 4.140000e-01    1.560000e+00
 SP6dr SX1vh  1 4.140000e-01    1.560000e+00
 SP6dh SC6er  1 4.100000e-01    2.040000e+00
 SP6dr SC6eh  1 4.100000e-01    2.040000e+00
 SP6dh SC5er  1 4.100000e-01    1.910000e+00
 SP6dr SC5eh  1 4.100000e-01    1.910000e+00
 SP6dh SC4er  1 4.100000e-01    1.750000e+00
 SP6dr SC4eh  1 4.100000e-01    1.750000e+00
 SP6dh SC3er  1 4.140000e-01    1.560000e+00
 SP6dr SC3eh  1 4.140000e-01    1.560000e+00
 SP6dh SC2er  1 4.140000e-01    1.560000e+00
 SP6dr SC2eh  1 4.140000e-01    1.560000e+00
 SP6dh SC1er  1 4.210000e-01    1.250000e+00
 SP6dr SC1eh  1 4.210000e-01    1.250000e+00
 SP6dh SX4er  1 4.100000e-01    2.200000e+00
 SP6dr SX4eh  1 4.100000e-01    2.200000e+00
 SP6dh SX3er  1 4.100000e-01    2.200000e+00
 SP6dr SX3eh  1 4.100000e-01    2.200000e+00
 SP6dh SX2er  1 4.100000e-01    2.040000e+00
 SP6dr SX2eh  1 4.100000e-01    2.040000e+00
 SP6dh SX1er  1 4.100000e-01    1.910000e+00
 SP6dr SX1eh  1 4.100000e-01    1.910000e+00
 SP5dh SC6vr  1 4.100000e-01    1.750000e+00
 SP5dr SC6vh  1 4.100000e-01    1.750000e+00
 SP5dh SC5vr  1 4.100000e-01    1.750000e+00
 SP5dr SC5vh  1 4.100000e-01    1.750000e+00
 SP5dh SC4vr  1 4.140000e-01    1.560000e+00
 SP5dr SC4vh  1 4.140000e-01    1.560000e+00
 SP5dh SC3vr  1 4.180000e-01    1.400000e+00
 SP5dr SC3vh  1 4.180000e-01    1.400000e+00
 SP5dh SC2vr  1 4.180000e-01    1.400000e+00
 SP5dr SC2vh  1 4.180000e-01    1.400000e+00
 SP5dh SC1vr  1 4.210000e-01    1.250000e+00
 SP5dr SC1vh  1 4.210000e-01    1.250000e+00
 SP5dh SX4vr  1 4.100000e-01    2.040000e+00
 SP5dr SX4vh  1 4.100000e-01    2.040000e+00
 SP5dh SX3vr  1 4.100000e-01    1.910000e+00
 SP5dr SX3vh  1 4.100000e-01    1.910000e+00
 SP5dh SX2vr  1 4.100000e-01    1.910000e+00
 SP5dr SX2vh  1 4.100000e-01    1.910000e+00
 SP5dh SX1vr  1 4.140000e-01    1.560000e+00
 SP5dr SX1vh  1 4.140000e-01    1.560000e+00
 SP5dh SC6er  1 4.100000e-01    2.040000e+00
 SP5dr SC6eh  1 4.100000e-01    2.040000e+00
 SP5dh SC5er  1 4.100000e-01    2.040000e+00
 SP5dr SC5eh  1 4.100000e-01    2.040000e+00
 SP5dh SC4er  1 4.100000e-01    1.910000e+00
 SP5dr SC4eh  1 4.100000e-01    1.910000e+00
 SP5dh SC3er  1 4.100000e-01    1.750000e+00
 SP5dr SC3eh  1 4.100000e-01    1.750000e+00
 SP5dh SC2er  1 4.100000e-01    1.750000e+00
 SP5dr SC2eh  1 4.100000e-01    1.750000e+00
 SP5dh SC1er  1 4.140000e-01    1.560000e+00
 SP5dr SC1eh  1 4.140000e-01    1.560000e+00
 SP5dh SX4er  1 4.100000e-01    2.350000e+00
 SP5dr SX4eh  1 4.100000e-01    2.350000e+00
 SP5dh SX3er  1 4.100000e-01    2.200000e+00
 SP5dr SX3eh  1 4.100000e-01    2.200000e+00
 SP5dh SX2er  1 4.100000e-01    2.200000e+00
 SP5dr SX2eh  1 4.100000e-01    2.200000e+00
 SP5dh SX1er  1 4.100000e-01    1.910000e+00
 SP5dr SX1eh  1 4.100000e-01    1.910000e+00
 SP4dh SC6vr  1 4.100000e-01    1.910000e+00
 SP4dr SC6vh  1 4.100000e-01    1.910000e+00
 SP4dh SC5vr  1 4.100000e-01    1.750000e+00
 SP4dr SC5vh  1 4.100000e-01    1.750000e+00
 SP4dh SC4vr  1 4.140000e-01    1.560000e+00
 SP4dr SC4vh  1 4.140000e-01    1.560000e+00
 SP4dh SC3vr  1 4.180000e-01    1.400000e+00
 SP4dr SC3vh  1 4.180000e-01    1.400000e+00
 SP4dh SC2vr  1 4.180000e-01    1.400000e+00
 SP4dr SC2vh  1 4.180000e-01    1.400000e+00
 SP4dh SC1vr  1 4.210000e-01    1.250000e+00
 SP4dr SC1vh  1 4.210000e-01    1.250000e+00
 SP4dh SX4vr  1 4.100000e-01    2.040000e+00
 SP4dr SX4vh  1 4.100000e-01    2.040000e+00
 SP4dh SX3vr  1 4.100000e-01    1.910000e+00
 SP4dr SX3vh  1 4.100000e-01    1.910000e+00
 SP4dh SX2vr  1 4.100000e-01    1.910000e+00
 SP4dr SX2vh  1 4.100000e-01    1.910000e+00
 SP4dh SX1vr  1 4.100000e-01    1.750000e+00
 SP4dr SX1vh  1 4.100000e-01    1.750000e+00
 SP4dh SC6er  1 4.100000e-01    2.200000e+00
 SP4dr SC6eh  1 4.100000e-01    2.200000e+00
 SP4dh SC5er  1 4.100000e-01    2.040000e+00
 SP4dr SC5eh  1 4.100000e-01    2.040000e+00
 SP4dh SC4er  1 4.100000e-01    1.910000e+00
 SP4dr SC4eh  1 4.100000e-01    1.910000e+00
 SP4dh SC3er  1 4.100000e-01    1.750000e+00
 SP4dr SC3eh  1 4.100000e-01    1.750000e+00
 SP4dh SC2er  1 4.100000e-01    1.750000e+00
 SP4dr SC2eh  1 4.100000e-01    1.750000e+00
 SP4dh SC1er  1 4.140000e-01    1.560000e+00
 SP4dr SC1eh  1 4.140000e-01    1.560000e+00
 SP4dh SX4er  1 4.100000e-01    2.350000e+00
 SP4dr SX4eh  1 4.100000e-01    2.350000e+00
 SP4dh SX3er  1 4.100000e-01    2.200000e+00
 SP4dr SX3eh  1 4.100000e-01    2.200000e+00
 SP4dh SX2er  1 4.100000e-01    2.200000e+00
 SP4dr SX2eh  1 4.100000e-01    2.200000e+00
 SP4dh SX1er  1 4.100000e-01    2.040000e+00
 SP4dr SX1eh  1 4.100000e-01    2.040000e+00
 SP3dh SC6vr  1 4.100000e-01    2.040000e+00
 SP3dr SC6vh  1 4.100000e-01    2.040000e+00
 SP3dh SC5vr  1 4.100000e-01    1.910000e+00
 SP3dr SC5vh  1 4.100000e-01    1.910000e+00
 SP3dh SC4vr  1 4.100000e-01    1.750000e+00
 SP3dr SC4vh  1 4.100000e-01    1.750000e+00
 SP3dh SC3vr  1 4.180000e-01    1.400000e+00
 SP3dr SC3vh  1 4.180000e-01    1.400000e+00
 SP3dh SC2vr  1 4.180000e-01    1.400000e+00
 SP3dr SC2vh  1 4.180000e-01    1.400000e+00
 SP3dh SC1vr  1 4.210000e-01    1.250000e+00
 SP3dr SC1vh  1 4.210000e-01    1.250000e+00
 SP3dh SX4vr  1 4.100000e-01    2.040000e+00
 SP3dr SX4vh  1 4.100000e-01    2.040000e+00
 SP3dh SX3vr  1 4.100000e-01    2.040000e+00
 SP3dr SX3vh  1 4.100000e-01    2.040000e+00
 SP3dh SX2vr  1 4.100000e-01    1.910000e+00
 SP3dr SX2vh  1 4.100000e-01    1.910000e+00
 SP3dh SX1vr  1 4.100000e-01    1.750000e+00
 SP3dr SX1vh  1 4.100000e-01    1.750000e+00
 SP3dh SC6er  1 4.100000e-01    2.350000e+00
 SP3dr SC6eh  1 4.100000e-01    2.350000e+00
 SP3dh SC5er  1 4.100000e-01    2.200000e+00
 SP3dr SC5eh  1 4.100000e-01    2.200000e+00
 SP3dh SC4er  1 4.100000e-01    2.040000e+00
 SP3dr SC4eh  1 4.100000e-01    2.040000e+00
 SP3dh SC3er  1 4.100000e-01    1.750000e+00
 SP3dr SC3eh  1 4.100000e-01    1.750000e+00
 SP3dh SC2er  1 4.100000e-01    1.750000e+00
 SP3dr SC2eh  1 4.100000e-01    1.750000e+00
 SP3dh SC1er  1 4.140000e-01    1.560000e+00
 SP3dr SC1eh  1 4.140000e-01    1.560000e+00
 SP3dh SX4er  1 4.100000e-01    2.350000e+00
 SP3dr SX4eh  1 4.100000e-01    2.350000e+00
 SP3dh SX3er  1 4.100000e-01    2.350000e+00
 SP3dr SX3eh  1 4.100000e-01    2.350000e+00
 SP3dh SX2er  1 4.100000e-01    2.200000e+00
 SP3dr SX2eh  1 4.100000e-01    2.200000e+00
 SP3dh SX1er  1 4.100000e-01    2.040000e+00
 SP3dr SX1eh  1 4.100000e-01    2.040000e+00
 SP2dh SC6vr  1 4.100000e-01    2.040000e+00
 SP2dr SC6vh  1 4.100000e-01    2.040000e+00
 SP2dh SC5vr  1 4.100000e-01    1.910000e+00
 SP2dr SC5vh  1 4.100000e-01    1.910000e+00
 SP2dh SC4vr  1 4.100000e-01    1.750000e+00
 SP2dr SC4vh  1 4.100000e-01    1.750000e+00
 SP2dh SC3vr  1 4.140000e-01    1.560000e+00
 SP2dr SC3vh  1 4.140000e-01    1.560000e+00
 SP2dh SC2vr  1 4.140000e-01    1.560000e+00
 SP2dr SC2vh  1 4.140000e-01    1.560000e+00
 SP2dh SC1vr  1 4.180000e-01    1.400000e+00
 SP2dr SC1vh  1 4.180000e-01    1.400000e+00
 SP2dh SX4vr  1 4.100000e-01    2.040000e+00
 SP2dr SX4vh  1 4.100000e-01    2.040000e+00
 SP2dh SX3vr  1 4.100000e-01    2.040000e+00
 SP2dr SX3vh  1 4.100000e-01    2.040000e+00
 SP2dh SX2vr  1 4.100000e-01    1.910000e+00
 SP2dr SX2vh  1 4.100000e-01    1.910000e+00
 SP2dh SX1vr  1 4.100000e-01    1.750000e+00
 SP2dr SX1vh  1 4.100000e-01    1.750000e+00
 SP2dh SC6er  1 4.100000e-01    2.350000e+00
 SP2dr SC6eh  1 4.100000e-01    2.350000e+00
 SP2dh SC5er  1 4.100000e-01    2.200000e+00
 SP2dr SC5eh  1 4.100000e-01    2.200000e+00
 SP2dh SC4er  1 4.100000e-01    2.040000e+00
 SP2dr SC4eh  1 4.100000e-01    2.040000e+00
 SP2dh SC3er  1 4.100000e-01    1.910000e+00
 SP2dr SC3eh  1 4.100000e-01    1.910000e+00
 SP2dh SC2er  1 4.100000e-01    1.910000e+00
 SP2dr SC2eh  1 4.100000e-01    1.910000e+00
 SP2dh SC1er  1 4.100000e-01    1.750000e+00
 SP2dr SC1eh  1 4.100000e-01    1.750000e+00
 SP2dh SX4er  1 4.100000e-01    2.350000e+00
 SP2dr SX4eh  1 4.100000e-01    2.350000e+00
 SP2dh SX3er  1 4.100000e-01    2.350000e+00
 SP2dr SX3eh  1 4.100000e-01    2.350000e+00
 SP2dh SX2er  1 4.100000e-01    2.200000e+00
 SP2dr SX2eh  1 4.100000e-01    2.200000e+00
 SP2dh SX1er  1 4.100000e-01    2.040000e+00
 SP2dr SX1eh  1 4.100000e-01    2.040000e+00
 SP1dh SC6vr  1 4.100000e-01    2.040000e+00
 SP1dr SC6vh  1 4.100000e-01    2.040000e+00
 SP1dh SC5vr  1 4.100000e-01    1.910000e+00
 SP1dr SC5vh  1 4.100000e-01    1.910000e+00
 SP1dh SC4vr  1 4.100000e-01    1.750000e+00
 SP1dr SC4vh  1 4.100000e-01    1.750000e+00
 SP1dh SC3vr  1 4.140000e-01    1.560000e+00
 SP1dr SC3vh  1 4.140000e-01    1.560000e+00
 SP1dh SC2vr  1 4.140000e-01    1.560000e+00
 SP1dr SC2vh  1 4.140000e-01    1.560000e+00
 SP1dh SC1vr  1 4.180000e-01    1.400000e+00
 SP1dr SC1vh  1 4.180000e-01    1.400000e+00
 SP1dh SX4vr  1 4.100000e-01    2.040000e+00
 SP1dr SX4vh  1 4.100000e-01    2.040000e+00
 SP1dh SX3vr  1 4.100000e-01    2.040000e+00
 SP1dr SX3vh  1 4.100000e-01    2.040000e+00
 SP1dh SX2vr  1 4.100000e-01    1.910000e+00
 SP1dr SX2vh  1 4.100000e-01    1.910000e+00
 SP1dh SX1vr  1 4.100000e-01    1.750000e+00
 SP1dr SX1vh  1 4.100000e-01    1.750000e+00
 SP1dh SC6er  1 4.100000e-01    2.350000e+00
 SP1dr SC6eh  1 4.100000e-01    2.350000e+00
 SP1dh SC5er  1 4.100000e-01    2.200000e+00
 SP1dr SC5eh  1 4.100000e-01    2.200000e+00
 SP1dh SC4er  1 4.100000e-01    2.040000e+00
 SP1dr SC4eh  1 4.100000e-01    2.040000e+00
 SP1dh SC3er  1 4.100000e-01    1.910000e+00
 SP1dr SC3eh  1 4.100000e-01    1.910000e+00
 SP1dh SC2er  1 4.100000e-01    1.910000e+00
 SP1dr SC2eh  1 4.100000e-01    1.910000e+00
 SP1dh SC1er  1 4.100000e-01    1.750000e+00
 SP1dr SC1eh  1 4.100000e-01    1.750000e+00
 SP1dh SX4er  1 4.100000e-01    2.350000e+00
 SP1dr SX4eh  1 4.100000e-01    2.350000e+00
 SP1dh SX3er  1 4.100000e-01    2.350000e+00
 SP1dr SX3eh  1 4.100000e-01    2.350000e+00
 SP1dh SX2er  1 4.100000e-01    2.200000e+00
 SP1dr SX2eh  1 4.100000e-01    2.200000e+00
 SP1dh SX1er  1 4.100000e-01    2.040000e+00
 SP1dr SX1eh  1 4.100000e-01    2.040000e+00
 SN6dh SC6vr  1 4.100000e-01    2.200000e+00
 SN6dr SC6vh  1 4.100000e-01    2.200000e+00
 SN6dh SC5vr  1 4.100000e-01    2.040000e+00
 SN6dr SC5vh  1 4.100000e-01    2.040000e+00
 SN6dh SC4vr  1 4.100000e-01    1.910000e+00
 SN6dr SC4vh  1 4.100000e-01    1.910000e+00
 SN6dh SC3vr  1 4.100000e-01    1.750000e+00
 SN6dr SC3vh  1 4.100000e-01    1.750000e+00
 SN6dh SC2vr  1 4.100000e-01    1.750000e+00
 SN6dr SC2vh  1 4.100000e-01    1.750000e+00
 SN6dh SC1vr  1 4.140000e-01    1.560000e+00
 SN6dr SC1vh  1 4.140000e-01    1.560000e+00
 SN6dh SX4vr  1 4.100000e-01    2.200000e+00
 SN6dr SX4vh  1 4.100000e-01    2.200000e+00
 SN6dh SX3vr  1 4.100000e-01    2.040000e+00
 SN6dr SX3vh  1 4.100000e-01    2.040000e+00
 SN6dh SX2vr  1 4.100000e-01    1.910000e+00
 SN6dr SX2vh  1 4.100000e-01    1.910000e+00
 SN6dh SX1vr  1 4.100000e-01    1.750000e+00
 SN6dr SX1vh  1 4.100000e-01    1.750000e+00
 SN6dh SC6er  1 4.100000e-01    2.600000e+00
 SN6dr SC6eh  1 4.100000e-01    2.600000e+00
 SN6dh SC5er  1 4.100000e-01    2.350000e+00
 SN6dr SC5eh  1 4.100000e-01    2.350000e+00
 SN6dh SC4er  1 4.100000e-01    2.200000e+00
 SN6dr SC4eh  1 4.100000e-01    2.200000e+00
 SN6dh SC3er  1 4.100000e-01    2.040000e+00
 SN6dr SC3eh  1 4.100000e-01    2.040000e+00
 SN6dh SC2er  1 4.100000e-01    2.040000e+00
 SN6dr SC2eh  1 4.100000e-01    2.040000e+00
 SN6dh SC1er  1 4.100000e-01    1.910000e+00
 SN6dr SC1eh  1 4.100000e-01    1.910000e+00
 SN6dh SX4er  1 4.100000e-01    2.600000e+00
 SN6dr SX4eh  1 4.100000e-01    2.600000e+00
 SN6dh SX3er  1 4.100000e-01    2.350000e+00
 SN6dr SX3eh  1 4.100000e-01    2.350000e+00
 SN6dh SX2er  1 4.100000e-01    2.200000e+00
 SN6dr SX2eh  1 4.100000e-01    2.200000e+00
 SN6dh SX1er  1 4.100000e-01    2.040000e+00
 SN6dr SX1eh  1 4.100000e-01    2.040000e+00
 SN5dh SC6vr  1 4.100000e-01    2.200000e+00
 SN5dr SC6vh  1 4.100000e-01    2.200000e+00
 SN5dh SC5vr  1 4.100000e-01    2.040000e+00
 SN5dr SC5vh  1 4.100000e-01    2.040000e+00
 SN5dh SC4vr  1 4.100000e-01    1.910000e+00
 SN5dr SC4vh  1 4.100000e-01    1.910000e+00
 SN5dh SC3vr  1 4.100000e-01    1.910000e+00
 SN5dr SC3vh  1 4.100000e-01    1.910000e+00
 SN5dh SC2vr  1 4.100000e-01    1.750000e+00
 SN5dr SC2vh  1 4.100000e-01    1.750000e+00
 SN5dh SC1vr  1 4.140000e-01    1.560000e+00
 SN5dr SC1vh  1 4.140000e-01    1.560000e+00
 SN5dh SX4vr  1 4.100000e-01    2.350000e+00
 SN5dr SX4vh  1 4.100000e-01    2.350000e+00
 SN5dh SX3vr  1 4.100000e-01    2.200000e+00
 SN5dr SX3vh  1 4.100000e-01    2.200000e+00
 SN5dh SX2vr  1 4.100000e-01    2.040000e+00
 SN5dr SX2vh  1 4.100000e-01    2.040000e+00
 SN5dh SX1vr  1 4.100000e-01    1.910000e+00
 SN5dr SX1vh  1 4.100000e-01    1.910000e+00
 SN5dh SC6er  1 4.100000e-01    2.600000e+00
 SN5dr SC6eh  1 4.100000e-01    2.600000e+00
 SN5dh SC5er  1 4.100000e-01    2.350000e+00
 SN5dr SC5eh  1 4.100000e-01    2.350000e+00
 SN5dh SC4er  1 4.100000e-01    2.200000e+00
 SN5dr SC4eh  1 4.100000e-01    2.200000e+00
 SN5dh SC3er  1 4.100000e-01    2.200000e+00
 SN5dr SC3eh  1 4.100000e-01    2.200000e+00
 SN5dh SC2er  1 4.100000e-01    2.040000e+00
 SN5dr SC2eh  1 4.100000e-01    2.040000e+00
 SN5dh SC1er  1 4.100000e-01    1.910000e+00
 SN5dr SC1eh  1 4.100000e-01    1.910000e+00
 SN5dh SX4er  1 4.100000e-01    2.840000e+00
 SN5dr SX4eh  1 4.100000e-01    2.840000e+00
 SN5dh SX3er  1 4.100000e-01    2.600000e+00
 SN5dr SX3eh  1 4.100000e-01    2.600000e+00
 SN5dh SX2er  1 4.100000e-01    2.350000e+00
 SN5dr SX2eh  1 4.100000e-01    2.350000e+00
 SN5dh SX1er  1 4.100000e-01    2.200000e+00
 SN5dr SX1eh  1 4.100000e-01    2.200000e+00
 SN4dh SC6vr  1 4.100000e-01    2.200000e+00
 SN4dr SC6vh  1 4.100000e-01    2.200000e+00
 SN4dh SC5vr  1 4.100000e-01    2.040000e+00
 SN4dr SC5vh  1 4.100000e-01    2.040000e+00
 SN4dh SC4vr  1 4.100000e-01    2.040000e+00
 SN4dr SC4vh  1 4.100000e-01    2.040000e+00
 SN4dh SC3vr  1 4.100000e-01    1.910000e+00
 SN4dr SC3vh  1 4.100000e-01    1.910000e+00
 SN4dh SC2vr  1 4.100000e-01    1.750000e+00
 SN4dr SC2vh  1 4.100000e-01    1.750000e+00
 SN4dh SC1vr  1 4.140000e-01    1.560000e+00
 SN4dr SC1vh  1 4.140000e-01    1.560000e+00
 SN4dh SX4vr  1 4.100000e-01    2.600000e+00
 SN4dr SX4vh  1 4.100000e-01    2.600000e+00
 SN4dh SX3vr  1 4.100000e-01    2.350000e+00
 SN4dr SX3vh  1 4.100000e-01    2.350000e+00
 SN4dh SX2vr  1 4.100000e-01    2.040000e+00
 SN4dr SX2vh  1 4.100000e-01    2.040000e+00
 SN4dh SX1vr  1 4.100000e-01    1.910000e+00
 SN4dr SX1vh  1 4.100000e-01    1.910000e+00
 SN4dh SC6er  1 4.100000e-01    2.600000e+00
 SN4dr SC6eh  1 4.100000e-01    2.600000e+00
 SN4dh SC5er  1 4.100000e-01    2.350000e+00
 SN4dr SC5eh  1 4.100000e-01    2.350000e+00
 SN4dh SC4er  1 4.100000e-01    2.350000e+00
 SN4dr SC4eh  1 4.100000e-01    2.350000e+00
 SN4dh SC3er  1 4.100000e-01    2.200000e+00
 SN4dr SC3eh  1 4.100000e-01    2.200000e+00
 SN4dh SC2er  1 4.100000e-01    2.040000e+00
 SN4dr SC2eh  1 4.100000e-01    2.040000e+00
 SN4dh SC1er  1 4.100000e-01    1.910000e+00
 SN4dr SC1eh  1 4.100000e-01    1.910000e+00
 SN4dh SX4er  1 4.100000e-01    3.070000e+00
 SN4dr SX4eh  1 4.100000e-01    3.070000e+00
 SN4dh SX3er  1 4.100000e-01    2.840000e+00
 SN4dr SX3eh  1 4.100000e-01    2.840000e+00
 SN4dh SX2er  1 4.100000e-01    2.350000e+00
 SN4dr SX2eh  1 4.100000e-01    2.350000e+00
 SN4dh SX1er  1 4.100000e-01    2.200000e+00
 SN4dr SX1eh  1 4.100000e-01    2.200000e+00
 SN3dh SC6vr  1 4.100000e-01    2.200000e+00
 SN3dr SC6vh  1 4.100000e-01    2.200000e+00
 SN3dh SC5vr  1 4.100000e-01    2.040000e+00
 SN3dr SC5vh  1 4.100000e-01    2.040000e+00
 SN3dh SC4vr  1 4.100000e-01    2.040000e+00
 SN3dr SC4vh  1 4.100000e-01    2.040000e+00
 SN3dh SC3vr  1 4.100000e-01    1.910000e+00
 SN3dr SC3vh  1 4.100000e-01    1.910000e+00
 SN3dh SC2vr  1 4.100000e-01    1.910000e+00
 SN3dr SC2vh  1 4.100000e-01    1.910000e+00
 SN3dh SC1vr  1 4.100000e-01    1.750000e+00
 SN3dr SC1vh  1 4.100000e-01    1.750000e+00
 SN3dh SX4vr  1 4.100000e-01    2.350000e+00
 SN3dr SX4vh  1 4.100000e-01    2.350000e+00
 SN3dh SX3vr  1 4.100000e-01    2.200000e+00
 SN3dr SX3vh  1 4.100000e-01    2.200000e+00
 SN3dh SX2vr  1 4.100000e-01    2.040000e+00
 SN3dr SX2vh  1 4.100000e-01    2.040000e+00
 SN3dh SX1vr  1 4.100000e-01    2.040000e+00
 SN3dr SX1vh  1 4.100000e-01    2.040000e+00
 SN3dh SC6er  1 4.100000e-01    2.600000e+00
 SN3dr SC6eh  1 4.100000e-01    2.600000e+00
 SN3dh SC5er  1 4.100000e-01    2.350000e+00
 SN3dr SC5eh  1 4.100000e-01    2.350000e+00
 SN3dh SC4er  1 4.100000e-01    2.350000e+00
 SN3dr SC4eh  1 4.100000e-01    2.350000e+00
 SN3dh SC3er  1 4.100000e-01    2.200000e+00
 SN3dr SC3eh  1 4.100000e-01    2.200000e+00
 SN3dh SC2er  1 4.100000e-01    2.200000e+00
 SN3dr SC2eh  1 4.100000e-01    2.200000e+00
 SN3dh SC1er  1 4.100000e-01    2.040000e+00
 SN3dr SC1eh  1 4.100000e-01    2.040000e+00
 SN3dh SX4er  1 4.100000e-01    2.840000e+00
 SN3dr SX4eh  1 4.100000e-01    2.840000e+00
 SN3dh SX3er  1 4.100000e-01    2.600000e+00
 SN3dr SX3eh  1 4.100000e-01    2.600000e+00
 SN3dh SX2er  1 4.100000e-01    2.350000e+00
 SN3dr SX2eh  1 4.100000e-01    2.350000e+00
 SN3dh SX1er  1 4.100000e-01    2.350000e+00
 SN3dr SX1eh  1 4.100000e-01    2.350000e+00
 SN2dh SC6vr  1 4.100000e-01    2.200000e+00
 SN2dr SC6vh  1 4.100000e-01    2.200000e+00
 SN2dh SC5vr  1 4.100000e-01    2.040000e+00
 SN2dr SC5vh  1 4.100000e-01    2.040000e+00
 SN2dh SC4vr  1 4.100000e-01    2.040000e+00
 SN2dr SC4vh  1 4.100000e-01    2.040000e+00
 SN2dh SC3vr  1 4.100000e-01    2.040000e+00
 SN2dr SC3vh  1 4.100000e-01    2.040000e+00
 SN2dh SC2vr  1 4.100000e-01    1.910000e+00
 SN2dr SC2vh  1 4.100000e-01    1.910000e+00
 SN2dh SC1vr  1 4.100000e-01    1.750000e+00
 SN2dr SC1vh  1 4.100000e-01    1.750000e+00
 SN2dh SX4vr  1 4.100000e-01    2.350000e+00
 SN2dr SX4vh  1 4.100000e-01    2.350000e+00
 SN2dh SX3vr  1 4.100000e-01    2.200000e+00
 SN2dr SX3vh  1 4.100000e-01    2.200000e+00
 SN2dh SX2vr  1 4.100000e-01    2.040000e+00
 SN2dr SX2vh  1 4.100000e-01    2.040000e+00
 SN2dh SX1vr  1 4.100000e-01    2.040000e+00
 SN2dr SX1vh  1 4.100000e-01    2.040000e+00
 SN2dh SC6er  1 4.100000e-01    2.600000e+00
 SN2dr SC6eh  1 4.100000e-01    2.600000e+00
 SN2dh SC5er  1 4.100000e-01    2.350000e+00
 SN2dr SC5eh  1 4.100000e-01    2.350000e+00
 SN2dh SC4er  1 4.100000e-01    2.350000e+00
 SN2dr SC4eh  1 4.100000e-01    2.350000e+00
 SN2dh SC3er  1 4.100000e-01    2.350000e+00
 SN2dr SC3eh  1 4.100000e-01    2.350000e+00
 SN2dh SC2er  1 4.100000e-01    2.200000e+00
 SN2dr SC2eh  1 4.100000e-01    2.200000e+00
 SN2dh SC1er  1 4.100000e-01    2.040000e+00
 SN2dr SC1eh  1 4.100000e-01    2.040000e+00
 SN2dh SX4er  1 4.100000e-01    2.840000e+00
 SN2dr SX4eh  1 4.100000e-01    2.840000e+00
 SN2dh SX3er  1 4.100000e-01    2.600000e+00
 SN2dr SX3eh  1 4.100000e-01    2.600000e+00
 SN2dh SX2er  1 4.100000e-01    2.350000e+00
 SN2dr SX2eh  1 4.100000e-01    2.350000e+00
 SN2dh SX1er  1 4.100000e-01    2.350000e+00
 SN2dr SX1eh  1 4.100000e-01    2.350000e+00
 SN1dh SC6vr  1 4.100000e-01    2.350000e+00
 SN1dr SC6vh  1 4.100000e-01    2.350000e+00
 SN1dh SC5vr  1 4.100000e-01    2.200000e+00
 SN1dr SC5vh  1 4.100000e-01    2.200000e+00
 SN1dh SC4vr  1 4.100000e-01    2.200000e+00
 SN1dr SC4vh  1 4.100000e-01    2.200000e+00
 SN1dh SC3vr  1 4.100000e-01    2.040000e+00
 SN1dr SC3vh  1 4.100000e-01    2.040000e+00
 SN1dh SC2vr  1 4.100000e-01    1.910000e+00
 SN1dr SC2vh  1 4.100000e-01    1.910000e+00
 SN1dh SC1vr  1 4.100000e-01    1.750000e+00
 SN1dr SC1vh  1 4.100000e-01    1.750000e+00
 SN1dh SX4vr  1 4.100000e-01    2.200000e+00
 SN1dr SX4vh  1 4.100000e-01    2.200000e+00
 SN1dh SX3vr  1 4.100000e-01    2.200000e+00
 SN1dr SX3vh  1 4.100000e-01    2.200000e+00
 SN1dh SX2vr  1 4.100000e-01    2.040000e+00
 SN1dr SX2vh  1 4.100000e-01    2.040000e+00
 SN1dh SX1vr  1 4.100000e-01    2.040000e+00
 SN1dr SX1vh  1 4.100000e-01    2.040000e+00
 SN1dh SC6er  1 4.100000e-01    2.840000e+00
 SN1dr SC6eh  1 4.100000e-01    2.840000e+00
 SN1dh SC5er  1 4.100000e-01    2.600000e+00
 SN1dr SC5eh  1 4.100000e-01    2.600000e+00
 SN1dh SC4er  1 4.100000e-01    2.600000e+00
 SN1dr SC4eh  1 4.100000e-01    2.600000e+00
 SN1dh SC3er  1 4.100000e-01    2.350000e+00
 SN1dr SC3eh  1 4.100000e-01    2.350000e+00
 SN1dh SC2er  1 4.100000e-01    2.200000e+00
 SN1dr SC2eh  1 4.100000e-01    2.200000e+00
 SN1dh SC1er  1 4.100000e-01    2.040000e+00
 SN1dr SC1eh  1 4.100000e-01    2.040000e+00
 SN1dh SX4er  1 4.100000e-01    2.600000e+00
 SN1dr SX4eh  1 4.100000e-01    2.600000e+00
 SN1dh SX3er  1 4.100000e-01    2.600000e+00
 SN1dr SX3eh  1 4.100000e-01    2.600000e+00
 SN1dh SX2er  1 4.100000e-01    2.350000e+00
 SN1dr SX2eh  1 4.100000e-01    2.350000e+00
 SN1dh SX1er  1 4.100000e-01    2.350000e+00
 SN1dr SX1eh  1 4.100000e-01    2.350000e+00
 SP6ah SC6vr  1 4.100000e-01    2.040000e+00
 SP6ar SC6vh  1 4.100000e-01    2.040000e+00
 SP6ah SC5vr  1 4.100000e-01    1.910000e+00
 SP6ar SC5vh  1 4.100000e-01    1.910000e+00
 SP6ah SC4vr  1 4.100000e-01    1.750000e+00
 SP6ar SC4vh  1 4.100000e-01    1.750000e+00
 SP6ah SC3vr  1 4.140000e-01    1.560000e+00
 SP6ar SC3vh  1 4.140000e-01    1.560000e+00
 SP6ah SC2vr  1 4.140000e-01    1.560000e+00
 SP6ar SC2vh  1 4.140000e-01    1.560000e+00
 SP6ah SC1vr  1 4.210000e-01    1.250000e+00
 SP6ar SC1vh  1 4.210000e-01    1.250000e+00
 SP6ah SX4vr  1 4.100000e-01    2.200000e+00
 SP6ar SX4vh  1 4.100000e-01    2.200000e+00
 SP6ah SX3vr  1 4.100000e-01    2.200000e+00
 SP6ar SX3vh  1 4.100000e-01    2.200000e+00
 SP6ah SX2vr  1 4.100000e-01    2.040000e+00
 SP6ar SX2vh  1 4.100000e-01    2.040000e+00
 SP6ah SX1vr  1 4.100000e-01    1.910000e+00
 SP6ar SX1vh  1 4.100000e-01    1.910000e+00
 SP6ah SC6er  1 4.100000e-01    1.750000e+00
 SP6ar SC6eh  1 4.100000e-01    1.750000e+00
 SP6ah SC5er  1 4.140000e-01    1.560000e+00
 SP6ar SC5eh  1 4.140000e-01    1.560000e+00
 SP6ah SC4er  1 4.180000e-01    1.400000e+00
 SP6ar SC4eh  1 4.180000e-01    1.400000e+00
 SP6ah SC3er  1 4.210000e-01    1.250000e+00
 SP6ar SC3eh  1 4.210000e-01    1.250000e+00
 SP6ah SC2er  1 4.210000e-01    1.250000e+00
 SP6ar SC2eh  1 4.210000e-01    1.250000e+00
 SP6ah SC1er  1 4.960000e-01    1.050000e+00
 SP6ar SC1eh  1 4.960000e-01    1.050000e+00
 SP6ah SX4er  1 4.100000e-01    1.910000e+00
 SP6ar SX4eh  1 4.100000e-01    1.910000e+00
 SP6ah SX3er  1 4.100000e-01    1.910000e+00
 SP6ar SX3eh  1 4.100000e-01    1.910000e+00
 SP6ah SX2er  1 4.100000e-01    1.750000e+00
 SP6ar SX2eh  1 4.100000e-01    1.750000e+00
 SP6ah SX1er  1 4.140000e-01    1.560000e+00
 SP6ar SX1eh  1 4.140000e-01    1.560000e+00
 SP5ah SC6vr  1 4.100000e-01    2.040000e+00
 SP5ar SC6vh  1 4.100000e-01    2.040000e+00
 SP5ah SC5vr  1 4.100000e-01    2.040000e+00
 SP5ar SC5vh  1 4.100000e-01    2.040000e+00
 SP5ah SC4vr  1 4.100000e-01    1.910000e+00
 SP5ar SC4vh  1 4.100000e-01    1.910000e+00
 SP5ah SC3vr  1 4.100000e-01    1.750000e+00
 SP5ar SC3vh  1 4.100000e-01    1.750000e+00
 SP5ah SC2vr  1 4.100000e-01    1.750000e+00
 SP5ar SC2vh  1 4.100000e-01    1.750000e+00
 SP5ah SC1vr  1 4.140000e-01    1.560000e+00
 SP5ar SC1vh  1 4.140000e-01    1.560000e+00
 SP5ah SX4vr  1 4.100000e-01    2.350000e+00
 SP5ar SX4vh  1 4.100000e-01    2.350000e+00
 SP5ah SX3vr  1 4.100000e-01    2.200000e+00
 SP5ar SX3vh  1 4.100000e-01    2.200000e+00
 SP5ah SX2vr  1 4.100000e-01    2.200000e+00
 SP5ar SX2vh  1 4.100000e-01    2.200000e+00
 SP5ah SX1vr  1 4.100000e-01    1.910000e+00
 SP5ar SX1vh  1 4.100000e-01    1.910000e+00
 SP5ah SC6er  1 4.100000e-01    1.750000e+00
 SP5ar SC6eh  1 4.100000e-01    1.750000e+00
 SP5ah SC5er  1 4.100000e-01    1.750000e+00
 SP5ar SC5eh  1 4.100000e-01    1.750000e+00
 SP5ah SC4er  1 4.140000e-01    1.560000e+00
 SP5ar SC4eh  1 4.140000e-01    1.560000e+00
 SP5ah SC3er  1 4.180000e-01    1.400000e+00
 SP5ar SC3eh  1 4.180000e-01    1.400000e+00
 SP5ah SC2er  1 4.180000e-01    1.400000e+00
 SP5ar SC2eh  1 4.180000e-01    1.400000e+00
 SP5ah SC1er  1 4.210000e-01    1.250000e+00
 SP5ar SC1eh  1 4.210000e-01    1.250000e+00
 SP5ah SX4er  1 4.100000e-01    2.040000e+00
 SP5ar SX4eh  1 4.100000e-01    2.040000e+00
 SP5ah SX3er  1 4.100000e-01    1.910000e+00
 SP5ar SX3eh  1 4.100000e-01    1.910000e+00
 SP5ah SX2er  1 4.100000e-01    1.910000e+00
 SP5ar SX2eh  1 4.100000e-01    1.910000e+00
 SP5ah SX1er  1 4.140000e-01    1.560000e+00
 SP5ar SX1eh  1 4.140000e-01    1.560000e+00
 SP4ah SC6vr  1 4.100000e-01    2.200000e+00
 SP4ar SC6vh  1 4.100000e-01    2.200000e+00
 SP4ah SC5vr  1 4.100000e-01    2.040000e+00
 SP4ar SC5vh  1 4.100000e-01    2.040000e+00
 SP4ah SC4vr  1 4.100000e-01    1.910000e+00
 SP4ar SC4vh  1 4.100000e-01    1.910000e+00
 SP4ah SC3vr  1 4.100000e-01    1.750000e+00
 SP4ar SC3vh  1 4.100000e-01    1.750000e+00
 SP4ah SC2vr  1 4.100000e-01    1.750000e+00
 SP4ar SC2vh  1 4.100000e-01    1.750000e+00
 SP4ah SC1vr  1 4.140000e-01    1.560000e+00
 SP4ar SC1vh  1 4.140000e-01    1.560000e+00
 SP4ah SX4vr  1 4.100000e-01    2.350000e+00
 SP4ar SX4vh  1 4.100000e-01    2.350000e+00
 SP4ah SX3vr  1 4.100000e-01    2.200000e+00
 SP4ar SX3vh  1 4.100000e-01    2.200000e+00
 SP4ah SX2vr  1 4.100000e-01    2.200000e+00
 SP4ar SX2vh  1 4.100000e-01    2.200000e+00
 SP4ah SX1vr  1 4.100000e-01    2.040000e+00
 SP4ar SX1vh  1 4.100000e-01    2.040000e+00
 SP4ah SC6er  1 4.100000e-01    1.910000e+00
 SP4ar SC6eh  1 4.100000e-01    1.910000e+00
 SP4ah SC5er  1 4.100000e-01    1.750000e+00
 SP4ar SC5eh  1 4.100000e-01    1.750000e+00
 SP4ah SC4er  1 4.140000e-01    1.560000e+00
 SP4ar SC4eh  1 4.140000e-01    1.560000e+00
 SP4ah SC3er  1 4.180000e-01    1.400000e+00
 SP4ar SC3eh  1 4.180000e-01    1.400000e+00
 SP4ah SC2er  1 4.180000e-01    1.400000e+00
 SP4ar SC2eh  1 4.180000e-01    1.400000e+00
 SP4ah SC1er  1 4.210000e-01    1.250000e+00
 SP4ar SC1eh  1 4.210000e-01    1.250000e+00
 SP4ah SX4er  1 4.100000e-01    2.040000e+00
 SP4ar SX4eh  1 4.100000e-01    2.040000e+00
 SP4ah SX3er  1 4.100000e-01    1.910000e+00
 SP4ar SX3eh  1 4.100000e-01    1.910000e+00
 SP4ah SX2er  1 4.100000e-01    1.910000e+00
 SP4ar SX2eh  1 4.100000e-01    1.910000e+00
 SP4ah SX1er  1 4.100000e-01    1.750000e+00
 SP4ar SX1eh  1 4.100000e-01    1.750000e+00
 SP3ah SC6vr  1 4.100000e-01    2.350000e+00
 SP3ar SC6vh  1 4.100000e-01    2.350000e+00
 SP3ah SC5vr  1 4.100000e-01    2.200000e+00
 SP3ar SC5vh  1 4.100000e-01    2.200000e+00
 SP3ah SC4vr  1 4.100000e-01    2.040000e+00
 SP3ar SC4vh  1 4.100000e-01    2.040000e+00
 SP3ah SC3vr  1 4.100000e-01    1.750000e+00
 SP3ar SC3vh  1 4.100000e-01    1.750000e+00
 SP3ah SC2vr  1 4.100000e-01    1.750000e+00
 SP3ar SC2vh  1 4.100000e-01    1.750000e+00
 SP3ah SC1vr  1 4.140000e-01    1.560000e+00
 SP3ar SC1vh  1 4.140000e-01    1.560000e+00
 SP3ah SX4vr  1 4.100000e-01    2.350000e+00
 SP3ar SX4vh  1 4.100000e-01    2.350000e+00
 SP3ah SX3vr  1 4.100000e-01    2.350000e+00
 SP3ar SX3vh  1 4.100000e-01    2.350000e+00
 SP3ah SX2vr  1 4.100000e-01    2.200000e+00
 SP3ar SX2vh  1 4.100000e-01    2.200000e+00
 SP3ah SX1vr  1 4.100000e-01    2.040000e+00
 SP3ar SX1vh  1 4.100000e-01    2.040000e+00
 SP3ah SC6er  1 4.100000e-01    2.040000e+00
 SP3ar SC6eh  1 4.100000e-01    2.040000e+00
 SP3ah SC5er  1 4.100000e-01    1.910000e+00
 SP3ar SC5eh  1 4.100000e-01    1.910000e+00
 SP3ah SC4er  1 4.100000e-01    1.750000e+00
 SP3ar SC4eh  1 4.100000e-01    1.750000e+00
 SP3ah SC3er  1 4.180000e-01    1.400000e+00
 SP3ar SC3eh  1 4.180000e-01    1.400000e+00
 SP3ah SC2er  1 4.180000e-01    1.400000e+00
 SP3ar SC2eh  1 4.180000e-01    1.400000e+00
 SP3ah SC1er  1 4.210000e-01    1.250000e+00
 SP3ar SC1eh  1 4.210000e-01    1.250000e+00
 SP3ah SX4er  1 4.100000e-01    2.040000e+00
 SP3ar SX4eh  1 4.100000e-01    2.040000e+00
 SP3ah SX3er  1 4.100000e-01    2.040000e+00
 SP3ar SX3eh  1 4.100000e-01    2.040000e+00
 SP3ah SX2er  1 4.100000e-01    1.910000e+00
 SP3ar SX2eh  1 4.100000e-01    1.910000e+00
 SP3ah SX1er  1 4.100000e-01    1.750000e+00
 SP3ar SX1eh  1 4.100000e-01    1.750000e+00
 SP2ah SC6vr  1 4.100000e-01    2.350000e+00
 SP2ar SC6vh  1 4.100000e-01    2.350000e+00
 SP2ah SC5vr  1 4.100000e-01    2.200000e+00
 SP2ar SC5vh  1 4.100000e-01    2.200000e+00
 SP2ah SC4vr  1 4.100000e-01    2.040000e+00
 SP2ar SC4vh  1 4.100000e-01    2.040000e+00
 SP2ah SC3vr  1 4.100000e-01    1.910000e+00
 SP2ar SC3vh  1 4.100000e-01    1.910000e+00
 SP2ah SC2vr  1 4.100000e-01    1.910000e+00
 SP2ar SC2vh  1 4.100000e-01    1.910000e+00
 SP2ah SC1vr  1 4.100000e-01    1.750000e+00
 SP2ar SC1vh  1 4.100000e-01    1.750000e+00
 SP2ah SX4vr  1 4.100000e-01    2.350000e+00
 SP2ar SX4vh  1 4.100000e-01    2.350000e+00
 SP2ah SX3vr  1 4.100000e-01    2.350000e+00
 SP2ar SX3vh  1 4.100000e-01    2.350000e+00
 SP2ah SX2vr  1 4.100000e-01    2.200000e+00
 SP2ar SX2vh  1 4.100000e-01    2.200000e+00
 SP2ah SX1vr  1 4.100000e-01    2.040000e+00
 SP2ar SX1vh  1 4.100000e-01    2.040000e+00
 SP2ah SC6er  1 4.100000e-01    2.040000e+00
 SP2ar SC6eh  1 4.100000e-01    2.040000e+00
 SP2ah SC5er  1 4.100000e-01    1.910000e+00
 SP2ar SC5eh  1 4.100000e-01    1.910000e+00
 SP2ah SC4er  1 4.100000e-01    1.750000e+00
 SP2ar SC4eh  1 4.100000e-01    1.750000e+00
 SP2ah SC3er  1 4.140000e-01    1.560000e+00
 SP2ar SC3eh  1 4.140000e-01    1.560000e+00
 SP2ah SC2er  1 4.140000e-01    1.560000e+00
 SP2ar SC2eh  1 4.140000e-01    1.560000e+00
 SP2ah SC1er  1 4.180000e-01    1.400000e+00
 SP2ar SC1eh  1 4.180000e-01    1.400000e+00
 SP2ah SX4er  1 4.100000e-01    2.040000e+00
 SP2ar SX4eh  1 4.100000e-01    2.040000e+00
 SP2ah SX3er  1 4.100000e-01    2.040000e+00
 SP2ar SX3eh  1 4.100000e-01    2.040000e+00
 SP2ah SX2er  1 4.100000e-01    1.910000e+00
 SP2ar SX2eh  1 4.100000e-01    1.910000e+00
 SP2ah SX1er  1 4.100000e-01    1.750000e+00
 SP2ar SX1eh  1 4.100000e-01    1.750000e+00
 SP1ah SC6vr  1 4.100000e-01    2.350000e+00
 SP1ar SC6vh  1 4.100000e-01    2.350000e+00
 SP1ah SC5vr  1 4.100000e-01    2.200000e+00
 SP1ar SC5vh  1 4.100000e-01    2.200000e+00
 SP1ah SC4vr  1 4.100000e-01    2.040000e+00
 SP1ar SC4vh  1 4.100000e-01    2.040000e+00
 SP1ah SC3vr  1 4.100000e-01    1.910000e+00
 SP1ar SC3vh  1 4.100000e-01    1.910000e+00
 SP1ah SC2vr  1 4.100000e-01    1.910000e+00
 SP1ar SC2vh  1 4.100000e-01    1.910000e+00
 SP1ah SC1vr  1 4.100000e-01    1.750000e+00
 SP1ar SC1vh  1 4.100000e-01    1.750000e+00
 SP1ah SX4vr  1 4.100000e-01    2.350000e+00
 SP1ar SX4vh  1 4.100000e-01    2.350000e+00
 SP1ah SX3vr  1 4.100000e-01    2.350000e+00
 SP1ar SX3vh  1 4.100000e-01    2.350000e+00
 SP1ah SX2vr  1 4.100000e-01    2.200000e+00
 SP1ar SX2vh  1 4.100000e-01    2.200000e+00
 SP1ah SX1vr  1 4.100000e-01    2.040000e+00
 SP1ar SX1vh  1 4.100000e-01    2.040000e+00
 SP1ah SC6er  1 4.100000e-01    2.040000e+00
 SP1ar SC6eh  1 4.100000e-01    2.040000e+00
 SP1ah SC5er  1 4.100000e-01    1.910000e+00
 SP1ar SC5eh  1 4.100000e-01    1.910000e+00
 SP1ah SC4er  1 4.100000e-01    1.750000e+00
 SP1ar SC4eh  1 4.100000e-01    1.750000e+00
 SP1ah SC3er  1 4.140000e-01    1.560000e+00
 SP1ar SC3eh  1 4.140000e-01    1.560000e+00
 SP1ah SC2er  1 4.140000e-01    1.560000e+00
 SP1ar SC2eh  1 4.140000e-01    1.560000e+00
 SP1ah SC1er  1 4.180000e-01    1.400000e+00
 SP1ar SC1eh  1 4.180000e-01    1.400000e+00
 SP1ah SX4er  1 4.100000e-01    2.040000e+00
 SP1ar SX4eh  1 4.100000e-01    2.040000e+00
 SP1ah SX3er  1 4.100000e-01    2.040000e+00
 SP1ar SX3eh  1 4.100000e-01    2.040000e+00
 SP1ah SX2er  1 4.100000e-01    1.910000e+00
 SP1ar SX2eh  1 4.100000e-01    1.910000e+00
 SP1ah SX1er  1 4.100000e-01    1.750000e+00
 SP1ar SX1eh  1 4.100000e-01    1.750000e+00
 SN6ah SC6vr  1 4.100000e-01    2.600000e+00
 SN6ar SC6vh  1 4.100000e-01    2.600000e+00
 SN6ah SC5vr  1 4.100000e-01    2.350000e+00
 SN6ar SC5vh  1 4.100000e-01    2.350000e+00
 SN6ah SC4vr  1 4.100000e-01    2.200000e+00
 SN6ar SC4vh  1 4.100000e-01    2.200000e+00
 SN6ah SC3vr  1 4.100000e-01    2.040000e+00
 SN6ar SC3vh  1 4.100000e-01    2.040000e+00
 SN6ah SC2vr  1 4.100000e-01    2.040000e+00
 SN6ar SC2vh  1 4.100000e-01    2.040000e+00
 SN6ah SC1vr  1 4.100000e-01    1.910000e+00
 SN6ar SC1vh  1 4.100000e-01    1.910000e+00
 SN6ah SX4vr  1 4.100000e-01    2.600000e+00
 SN6ar SX4vh  1 4.100000e-01    2.600000e+00
 SN6ah SX3vr  1 4.100000e-01    2.350000e+00
 SN6ar SX3vh  1 4.100000e-01    2.350000e+00
 SN6ah SX2vr  1 4.100000e-01    2.200000e+00
 SN6ar SX2vh  1 4.100000e-01    2.200000e+00
 SN6ah SX1vr  1 4.100000e-01    2.040000e+00
 SN6ar SX1vh  1 4.100000e-01    2.040000e+00
 SN6ah SC6er  1 4.100000e-01    2.200000e+00
 SN6ar SC6eh  1 4.100000e-01    2.200000e+00
 SN6ah SC5er  1 4.100000e-01    2.040000e+00
 SN6ar SC5eh  1 4.100000e-01    2.040000e+00
 SN6ah SC4er  1 4.100000e-01    1.910000e+00
 SN6ar SC4eh  1 4.100000e-01    1.910000e+00
 SN6ah SC3er  1 4.100000e-01    1.750000e+00
 SN6ar SC3eh  1 4.100000e-01    1.750000e+00
 SN6ah SC2er  1 4.100000e-01    1.750000e+00
 SN6ar SC2eh  1 4.100000e-01    1.750000e+00
 SN6ah SC1er  1 4.140000e-01    1.560000e+00
 SN6ar SC1eh  1 4.140000e-01    1.560000e+00
 SN6ah SX4er  1 4.100000e-01    2.200000e+00
 SN6ar SX4eh  1 4.100000e-01    2.200000e+00
 SN6ah SX3er  1 4.100000e-01    2.040000e+00
 SN6ar SX3eh  1 4.100000e-01    2.040000e+00
 SN6ah SX2er  1 4.100000e-01    1.910000e+00
 SN6ar SX2eh  1 4.100000e-01    1.910000e+00
 SN6ah SX1er  1 4.100000e-01    1.750000e+00
 SN6ar SX1eh  1 4.100000e-01    1.750000e+00
 SN5ah SC6vr  1 4.100000e-01    2.600000e+00
 SN5ar SC6vh  1 4.100000e-01    2.600000e+00
 SN5ah SC5vr  1 4.100000e-01    2.350000e+00
 SN5ar SC5vh  1 4.100000e-01    2.350000e+00
 SN5ah SC4vr  1 4.100000e-01    2.200000e+00
 SN5ar SC4vh  1 4.100000e-01    2.200000e+00
 SN5ah SC3vr  1 4.100000e-01    2.200000e+00
 SN5ar SC3vh  1 4.100000e-01    2.200000e+00
 SN5ah SC2vr  1 4.100000e-01    2.040000e+00
 SN5ar SC2vh  1 4.100000e-01    2.040000e+00
 SN5ah SC1vr  1 4.100000e-01    1.910000e+00
 SN5ar SC1vh  1 4.100000e-01    1.910000e+00
 SN5ah SX4vr  1 4.100000e-01    2.840000e+00
 SN5ar SX4vh  1 4.100000e-01    2.840000e+00
 SN5ah SX3vr  1 4.100000e-01    2.600000e+00
 SN5ar SX3vh  1 4.100000e-01    2.600000e+00
 SN5ah SX2vr  1 4.100000e-01    2.350000e+00
 SN5ar SX2vh  1 4.100000e-01    2.350000e+00
 SN5ah SX1vr  1 4.100000e-01    2.200000e+00
 SN5ar SX1vh  1 4.100000e-01    2.200000e+00
 SN5ah SC6er  1 4.100000e-01    2.200000e+00
 SN5ar SC6eh  1 4.100000e-01    2.200000e+00
 SN5ah SC5er  1 4.100000e-01    2.040000e+00
 SN5ar SC5eh  1 4.100000e-01    2.040000e+00
 SN5ah SC4er  1 4.100000e-01    1.910000e+00
 SN5ar SC4eh  1 4.100000e-01    1.910000e+00
 SN5ah SC3er  1 4.100000e-01    1.910000e+00
 SN5ar SC3eh  1 4.100000e-01    1.910000e+00
 SN5ah SC2er  1 4.100000e-01    1.750000e+00
 SN5ar SC2eh  1 4.100000e-01    1.750000e+00
 SN5ah SC1er  1 4.140000e-01    1.560000e+00
 SN5ar SC1eh  1 4.140000e-01    1.560000e+00
 SN5ah SX4er  1 4.100000e-01    2.350000e+00
 SN5ar SX4eh  1 4.100000e-01    2.350000e+00
 SN5ah SX3er  1 4.100000e-01    2.200000e+00
 SN5ar SX3eh  1 4.100000e-01    2.200000e+00
 SN5ah SX2er  1 4.100000e-01    2.040000e+00
 SN5ar SX2eh  1 4.100000e-01    2.040000e+00
 SN5ah SX1er  1 4.100000e-01    1.910000e+00
 SN5ar SX1eh  1 4.100000e-01    1.910000e+00
 SN4ah SC6vr  1 4.100000e-01    2.600000e+00
 SN4ar SC6vh  1 4.100000e-01    2.600000e+00
 SN4ah SC5vr  1 4.100000e-01    2.350000e+00
 SN4ar SC5vh  1 4.100000e-01    2.350000e+00
 SN4ah SC4vr  1 4.100000e-01    2.350000e+00
 SN4ar SC4vh  1 4.100000e-01    2.350000e+00
 SN4ah SC3vr  1 4.100000e-01    2.200000e+00
 SN4ar SC3vh  1 4.100000e-01    2.200000e+00
 SN4ah SC2vr  1 4.100000e-01    2.040000e+00
 SN4ar SC2vh  1 4.100000e-01    2.040000e+00
 SN4ah SC1vr  1 4.100000e-01    1.910000e+00
 SN4ar SC1vh  1 4.100000e-01    1.910000e+00
 SN4ah SX4vr  1 4.100000e-01    3.070000e+00
 SN4ar SX4vh  1 4.100000e-01    3.070000e+00
 SN4ah SX3vr  1 4.100000e-01    2.840000e+00
 SN4ar SX3vh  1 4.100000e-01    2.840000e+00
 SN4ah SX2vr  1 4.100000e-01    2.350000e+00
 SN4ar SX2vh  1 4.100000e-01    2.350000e+00
 SN4ah SX1vr  1 4.100000e-01    2.200000e+00
 SN4ar SX1vh  1 4.100000e-01    2.200000e+00
 SN4ah SC6er  1 4.100000e-01    2.200000e+00
 SN4ar SC6eh  1 4.100000e-01    2.200000e+00
 SN4ah SC5er  1 4.100000e-01    2.040000e+00
 SN4ar SC5eh  1 4.100000e-01    2.040000e+00
 SN4ah SC4er  1 4.100000e-01    2.040000e+00
 SN4ar SC4eh  1 4.100000e-01    2.040000e+00
 SN4ah SC3er  1 4.100000e-01    1.910000e+00
 SN4ar SC3eh  1 4.100000e-01    1.910000e+00
 SN4ah SC2er  1 4.100000e-01    1.750000e+00
 SN4ar SC2eh  1 4.100000e-01    1.750000e+00
 SN4ah SC1er  1 4.140000e-01    1.560000e+00
 SN4ar SC1eh  1 4.140000e-01    1.560000e+00
 SN4ah SX4er  1 4.100000e-01    2.600000e+00
 SN4ar SX4eh  1 4.100000e-01    2.600000e+00
 SN4ah SX3er  1 4.100000e-01    2.350000e+00
 SN4ar SX3eh  1 4.100000e-01    2.350000e+00
 SN4ah SX2er  1 4.100000e-01    2.040000e+00
 SN4ar SX2eh  1 4.100000e-01    2.040000e+00
 SN4ah SX1er  1 4.100000e-01    1.910000e+00
 SN4ar SX1eh  1 4.100000e-01    1.910000e+00
 SN3ah SC6vr  1 4.100000e-01    2.600000e+00
 SN3ar SC6vh  1 4.100000e-01    2.600000e+00
 SN3ah SC5vr  1 4.100000e-01    2.350000e+00
 SN3ar SC5vh  1 4.100000e-01    2.350000e+00
 SN3ah SC4vr  1 4.100000e-01    2.350000e+00
 SN3ar SC4vh  1 4.100000e-01    2.350000e+00
 SN3ah SC3vr  1 4.100000e-01    2.200000e+00
 SN3ar SC3vh  1 4.100000e-01    2.200000e+00
 SN3ah SC2vr  1 4.100000e-01    2.200000e+00
 SN3ar SC2vh  1 4.100000e-01    2.200000e+00
 SN3ah SC1vr  1 4.100000e-01    2.040000e+00
 SN3ar SC1vh  1 4.100000e-01    2.040000e+00
 SN3ah SX4vr  1 4.100000e-01    2.840000e+00
 SN3ar SX4vh  1 4.100000e-01    2.840000e+00
 SN3ah SX3vr  1 4.100000e-01    2.600000e+00
 SN3ar SX3vh  1 4.100000e-01    2.600000e+00
 SN3ah SX2vr  1 4.100000e-01    2.350000e+00
 SN3ar SX2vh  1 4.100000e-01    2.350000e+00
 SN3ah SX1vr  1 4.100000e-01    2.350000e+00
 SN3ar SX1vh  1 4.100000e-01    2.350000e+00
 SN3ah SC6er  1 4.100000e-01    2.200000e+00
 SN3ar SC6eh  1 4.100000e-01    2.200000e+00
 SN3ah SC5er  1 4.100000e-01    2.040000e+00
 SN3ar SC5eh  1 4.100000e-01    2.040000e+00
 SN3ah SC4er  1 4.100000e-01    2.040000e+00
 SN3ar SC4eh  1 4.100000e-01    2.040000e+00
 SN3ah SC3er  1 4.100000e-01    1.910000e+00
 SN3ar SC3eh  1 4.100000e-01    1.910000e+00
 SN3ah SC2er  1 4.100000e-01    1.910000e+00
 SN3ar SC2eh  1 4.100000e-01    1.910000e+00
 SN3ah SC1er  1 4.100000e-01    1.750000e+00
 SN3ar SC1eh  1 4.100000e-01    1.750000e+00
 SN3ah SX4er  1 4.100000e-01    2.350000e+00
 SN3ar SX4eh  1 4.100000e-01    2.350000e+00
 SN3ah SX3er  1 4.100000e-01    2.200000e+00
 SN3ar SX3eh  1 4.100000e-01    2.200000e+00
 SN3ah SX2er  1 4.100000e-01    2.040000e+00
 SN3ar SX2eh  1 4.100000e-01    2.040000e+00
 SN3ah SX1er  1 4.100000e-01    2.040000e+00
 SN3ar SX1eh  1 4.100000e-01    2.040000e+00
 SN2ah SC6vr  1 4.100000e-01    2.600000e+00
 SN2ar SC6vh  1 4.100000e-01    2.600000e+00
 SN2ah SC5vr  1 4.100000e-01    2.350000e+00
 SN2ar SC5vh  1 4.100000e-01    2.350000e+00
 SN2ah SC4vr  1 4.100000e-01    2.350000e+00
 SN2ar SC4vh  1 4.100000e-01    2.350000e+00
 SN2ah SC3vr  1 4.100000e-01    2.350000e+00
 SN2ar SC3vh  1 4.100000e-01    2.350000e+00
 SN2ah SC2vr  1 4.100000e-01    2.200000e+00
 SN2ar SC2vh  1 4.100000e-01    2.200000e+00
 SN2ah SC1vr  1 4.100000e-01    2.040000e+00
 SN2ar SC1vh  1 4.100000e-01    2.040000e+00
 SN2ah SX4vr  1 4.100000e-01    2.840000e+00
 SN2ar SX4vh  1 4.100000e-01    2.840000e+00
 SN2ah SX3vr  1 4.100000e-01    2.600000e+00
 SN2ar SX3vh  1 4.100000e-01    2.600000e+00
 SN2ah SX2vr  1 4.100000e-01    2.350000e+00
 SN2ar SX2vh  1 4.100000e-01    2.350000e+00
 SN2ah SX1vr  1 4.100000e-01    2.350000e+00
 SN2ar SX1vh  1 4.100000e-01    2.350000e+00
 SN2ah SC6er  1 4.100000e-01    2.200000e+00
 SN2ar SC6eh  1 4.100000e-01    2.200000e+00
 SN2ah SC5er  1 4.100000e-01    2.040000e+00
 SN2ar SC5eh  1 4.100000e-01    2.040000e+00
 SN2ah SC4er  1 4.100000e-01    2.040000e+00
 SN2ar SC4eh  1 4.100000e-01    2.040000e+00
 SN2ah SC3er  1 4.100000e-01    2.040000e+00
 SN2ar SC3eh  1 4.100000e-01    2.040000e+00
 SN2ah SC2er  1 4.100000e-01    1.910000e+00
 SN2ar SC2eh  1 4.100000e-01    1.910000e+00
 SN2ah SC1er  1 4.100000e-01    1.750000e+00
 SN2ar SC1eh  1 4.100000e-01    1.750000e+00
 SN2ah SX4er  1 4.100000e-01    2.350000e+00
 SN2ar SX4eh  1 4.100000e-01    2.350000e+00
 SN2ah SX3er  1 4.100000e-01    2.200000e+00
 SN2ar SX3eh  1 4.100000e-01    2.200000e+00
 SN2ah SX2er  1 4.100000e-01    2.040000e+00
 SN2ar SX2eh  1 4.100000e-01    2.040000e+00
 SN2ah SX1er  1 4.100000e-01    2.040000e+00
 SN2ar SX1eh  1 4.100000e-01    2.040000e+00
 SN1ah SC6vr  1 4.100000e-01    2.840000e+00
 SN1ar SC6vh  1 4.100000e-01    2.840000e+00
 SN1ah SC5vr  1 4.100000e-01    2.600000e+00
 SN1ar SC5vh  1 4.100000e-01    2.600000e+00
 SN1ah SC4vr  1 4.100000e-01    2.600000e+00
 SN1ar SC4vh  1 4.100000e-01    2.600000e+00
 SN1ah SC3vr  1 4.100000e-01    2.350000e+00
 SN1ar SC3vh  1 4.100000e-01    2.350000e+00
 SN1ah SC2vr  1 4.100000e-01    2.200000e+00
 SN1ar SC2vh  1 4.100000e-01    2.200000e+00
 SN1ah SC1vr  1 4.100000e-01    2.040000e+00
 SN1ar SC1vh  1 4.100000e-01    2.040000e+00
 SN1ah SX4vr  1 4.100000e-01    2.600000e+00
 SN1ar SX4vh  1 4.100000e-01    2.600000e+00
 SN1ah SX3vr  1 4.100000e-01    2.600000e+00
 SN1ar SX3vh  1 4.100000e-01    2.600000e+00
 SN1ah SX2vr  1 4.100000e-01    2.350000e+00
 SN1ar SX2vh  1 4.100000e-01    2.350000e+00
 SN1ah SX1vr  1 4.100000e-01    2.350000e+00
 SN1ar SX1vh  1 4.100000e-01    2.350000e+00
 SN1ah SC6er  1 4.100000e-01    2.350000e+00
 SN1ar SC6eh  1 4.100000e-01    2.350000e+00
 SN1ah SC5er  1 4.100000e-01    2.200000e+00
 SN1ar SC5eh  1 4.100000e-01    2.200000e+00
 SN1ah SC4er  1 4.100000e-01    2.200000e+00
 SN1ar SC4eh  1 4.100000e-01    2.200000e+00
 SN1ah SC3er  1 4.100000e-01    2.040000e+00
 SN1ar SC3eh  1 4.100000e-01    2.040000e+00
 SN1ah SC2er  1 4.100000e-01    1.910000e+00
 SN1ar SC2eh  1 4.100000e-01    1.910000e+00
 SN1ah SC1er  1 4.100000e-01    1.750000e+00
 SN1ar SC1eh  1 4.100000e-01    1.750000e+00
 SN1ah SX4er  1 4.100000e-01    2.200000e+00
 SN1ar SX4eh  1 4.100000e-01    2.200000e+00
 SN1ah SX3er  1 4.100000e-01    2.200000e+00
 SN1ar SX3eh  1 4.100000e-01    2.200000e+00
 SN1ah SX2er  1 4.100000e-01    2.040000e+00
 SN1ar SX2eh  1 4.100000e-01    2.040000e+00
 SN1ah SX1er  1 4.100000e-01    2.040000e+00
 SN1ar SX1eh  1 4.100000e-01    2.040000e+00
 SP6dq  SP5d  1 4.100000e-01    4.290000e+00
 SP6dq  SP4d  1 4.100000e-01    4.040000e+00
 SP6dq  SP3d  1 4.100000e-01    3.820000e+00
 SP6dq  SP2d  1 4.100000e-01    3.820000e+00
 SP6dq  SP1d  1 4.100000e-01    3.550000e+00
 SP6dq  SN6d  1 4.100000e-01    3.310000e+00
 SP6dq  SN5d  1 4.100000e-01    2.840000e+00
 SP6dq  SN4d  1 4.100000e-01    2.600000e+00
 SP6dq  SN3d  1 4.100000e-01    2.600000e+00
 SP6dq  SN2d  1 4.100000e-01    2.350000e+00
 SP6dq  SN1d  1 4.100000e-01    2.200000e+00
 SP6dq  SP6a  1 4.100000e-01    5.130000e+00
 SP6dq  SP5a  1 4.100000e-01    4.840000e+00
 SP6dq  SP4a  1 4.100000e-01    4.550000e+00
 SP6dq  SP3a  1 4.100000e-01    4.290000e+00
 SP6dq  SP2a  1 4.100000e-01    4.290000e+00
 SP6dq  SP1a  1 4.100000e-01    4.040000e+00
 SP6dq  SN6a  1 4.100000e-01    3.820000e+00
 SP6dq  SN5a  1 4.100000e-01    3.310000e+00
 SP6dq  SN4a  1 4.100000e-01    3.070000e+00
 SP6dq  SN3a  1 4.100000e-01    2.600000e+00
 SP6dq  SN2a  1 4.100000e-01    2.350000e+00
 SP6dq  SN1a  1 4.100000e-01    2.200000e+00
 SP6dq  SC6e  1 4.100000e-01    2.350000e+00
 SP6dq  SC5e  1 4.100000e-01    2.200000e+00
 SP6dq  SC4e  1 4.100000e-01    2.040000e+00
 SP6dq  SC3e  1 4.100000e-01    1.910000e+00
 SP6dq  SC2e  1 4.100000e-01    1.910000e+00
 SP6dq  SC1e  1 4.140000e-01    1.560000e+00
 SP6dq  SX4e  1 4.100000e-01    2.600000e+00
 SP6dq  SX3e  1 4.100000e-01    2.600000e+00
 SP6dq  SX2e  1 4.100000e-01    2.350000e+00
 SP6dq  SX1e  1 4.100000e-01    2.200000e+00
 SP6dq  SC6v  1 4.100000e-01    2.040000e+00
 SP6dq  SC5v  1 4.100000e-01    1.910000e+00
 SP6dq  SC4v  1 4.100000e-01    1.750000e+00
 SP6dq  SC3v  1 4.140000e-01    1.560000e+00
 SP6dq  SC2v  1 4.140000e-01    1.560000e+00
 SP6dq  SC1v  1 4.210000e-01    1.250000e+00
 SP6dq  SX4v  1 4.100000e-01    2.200000e+00
 SP6dq  SX3v  1 4.100000e-01    2.200000e+00
 SP6dq  SX2v  1 4.100000e-01    2.040000e+00
 SP6dq  SX1v  1 4.100000e-01    1.910000e+00
 SP5dq  SP4d  1 4.100000e-01    3.820000e+00
 SP5dq  SP3d  1 4.100000e-01    3.550000e+00
 SP5dq  SP2d  1 4.100000e-01    3.550000e+00
 SP5dq  SP1d  1 4.100000e-01    3.310000e+00
 SP5dq  SN6d  1 4.100000e-01    3.070000e+00
 SP5dq  SN5d  1 4.100000e-01    2.840000e+00
 SP5dq  SN4d  1 4.100000e-01    2.840000e+00
 SP5dq  SN3d  1 4.100000e-01    2.600000e+00
 SP5dq  SN2d  1 4.100000e-01    2.350000e+00
 SP5dq  SN1d  1 4.100000e-01    2.200000e+00
 SP5dq  SP5a  1 4.100000e-01    4.550000e+00
 SP5dq  SP4a  1 4.100000e-01    4.290000e+00
 SP5dq  SP3a  1 4.100000e-01    4.040000e+00
 SP5dq  SP2a  1 4.100000e-01    4.040000e+00
 SP5dq  SP1a  1 4.100000e-01    3.820000e+00
 SP5dq  SN6a  1 4.100000e-01    3.550000e+00
 SP5dq  SN5a  1 4.100000e-01    3.310000e+00
 SP5dq  SN4a  1 4.100000e-01    3.310000e+00
 SP5dq  SN3a  1 4.100000e-01    2.600000e+00
 SP5dq  SN2a  1 4.100000e-01    2.350000e+00
 SP5dq  SN1a  1 4.100000e-01    2.200000e+00
 SP5dq  SC6e  1 4.100000e-01    2.350000e+00
 SP5dq  SC5e  1 4.100000e-01    2.350000e+00
 SP5dq  SC4e  1 4.100000e-01    2.200000e+00
 SP5dq  SC3e  1 4.100000e-01    2.040000e+00
 SP5dq  SC2e  1 4.100000e-01    2.040000e+00
 SP5dq  SC1e  1 4.100000e-01    1.910000e+00
 SP5dq  SX4e  1 4.100000e-01    2.840000e+00
 SP5dq  SX3e  1 4.100000e-01    2.600000e+00
 SP5dq  SX2e  1 4.100000e-01    2.600000e+00
 SP5dq  SX1e  1 4.100000e-01    2.200000e+00
 SP5dq  SC6v  1 4.100000e-01    2.040000e+00
 SP5dq  SC5v  1 4.100000e-01    2.040000e+00
 SP5dq  SC4v  1 4.100000e-01    1.910000e+00
 SP5dq  SC3v  1 4.100000e-01    1.750000e+00
 SP5dq  SC2v  1 4.100000e-01    1.750000e+00
 SP5dq  SC1v  1 4.140000e-01    1.560000e+00
 SP5dq  SX4v  1 4.100000e-01    2.350000e+00
 SP5dq  SX3v  1 4.100000e-01    2.200000e+00
 SP5dq  SX2v  1 4.100000e-01    2.200000e+00
 SP5dq  SX1v  1 4.100000e-01    1.910000e+00
 SP4dq  SP3d  1 4.100000e-01    3.550000e+00
 SP4dq  SP2d  1 4.100000e-01    3.550000e+00
 SP4dq  SP1d  1 4.100000e-01    3.310000e+00
 SP4dq  SN6d  1 4.100000e-01    3.070000e+00
 SP4dq  SN5d  1 4.100000e-01    2.840000e+00
 SP4dq  SN4d  1 4.100000e-01    2.840000e+00
 SP4dq  SN3d  1 4.100000e-01    2.600000e+00
 SP4dq  SN2d  1 4.100000e-01    2.600000e+00
 SP4dq  SN1d  1 4.100000e-01    2.350000e+00
 SP4dq  SP4a  1 4.100000e-01    4.290000e+00
 SP4dq  SP3a  1 4.100000e-01    4.040000e+00
 SP4dq  SP2a  1 4.100000e-01    4.040000e+00
 SP4dq  SP1a  1 4.100000e-01    3.820000e+00
 SP4dq  SN6a  1 4.100000e-01    3.550000e+00
 SP4dq  SN5a  1 4.100000e-01    3.310000e+00
 SP4dq  SN4a  1 4.100000e-01    3.310000e+00
 SP4dq  SN3a  1 4.100000e-01    3.070000e+00
 SP4dq  SN2a  1 4.100000e-01    2.600000e+00
 SP4dq  SN1a  1 4.100000e-01    2.350000e+00
 SP4dq  SC6e  1 4.100000e-01    2.600000e+00
 SP4dq  SC5e  1 4.100000e-01    2.350000e+00
 SP4dq  SC4e  1 4.100000e-01    2.200000e+00
 SP4dq  SC3e  1 4.100000e-01    2.040000e+00
 SP4dq  SC2e  1 4.100000e-01    2.040000e+00
 SP4dq  SC1e  1 4.100000e-01    1.910000e+00
 SP4dq  SX4e  1 4.100000e-01    2.840000e+00
 SP4dq  SX3e  1 4.100000e-01    2.600000e+00
 SP4dq  SX2e  1 4.100000e-01    2.600000e+00
 SP4dq  SX1e  1 4.100000e-01    2.350000e+00
 SP4dq  SC6v  1 4.100000e-01    2.200000e+00
 SP4dq  SC5v  1 4.100000e-01    2.040000e+00
 SP4dq  SC4v  1 4.100000e-01    1.910000e+00
 SP4dq  SC3v  1 4.100000e-01    1.750000e+00
 SP4dq  SC2v  1 4.100000e-01    1.750000e+00
 SP4dq  SC1v  1 4.140000e-01    1.560000e+00
 SP4dq  SX4v  1 4.100000e-01    2.350000e+00
 SP4dq  SX3v  1 4.100000e-01    2.200000e+00
 SP4dq  SX2v  1 4.100000e-01    2.200000e+00
 SP4dq  SX1v  1 4.100000e-01    2.040000e+00
 SP3dq  SP2d  1 4.100000e-01    3.550000e+00
 SP3dq  SP1d  1 4.100000e-01    3.310000e+00
 SP3dq  SN6d  1 4.100000e-01    3.070000e+00
 SP3dq  SN5d  1 4.100000e-01    2.840000e+00
 SP3dq  SN4d  1 4.100000e-01    2.840000e+00
 SP3dq  SN3d  1 4.100000e-01    2.600000e+00
 SP3dq  SN2d  1 4.100000e-01    2.600000e+00
 SP3dq  SN1d  1 4.100000e-01    2.600000e+00
 SP3dq  SP3a  1 4.100000e-01    4.040000e+00
 SP3dq  SP2a  1 4.100000e-01    4.040000e+00
 SP3dq  SP1a  1 4.100000e-01    3.820000e+00
 SP3dq  SN6a  1 4.100000e-01    3.550000e+00
 SP3dq  SN5a  1 4.100000e-01    3.310000e+00
 SP3dq  SN4a  1 4.100000e-01    3.310000e+00
 SP3dq  SN3a  1 4.100000e-01    3.070000e+00
 SP3dq  SN2a  1 4.100000e-01    3.070000e+00
 SP3dq  SN1a  1 4.100000e-01    2.600000e+00
 SP3dq  SC6e  1 4.100000e-01    2.840000e+00
 SP3dq  SC5e  1 4.100000e-01    2.600000e+00
 SP3dq  SC4e  1 4.100000e-01    2.350000e+00
 SP3dq  SC3e  1 4.100000e-01    2.040000e+00
 SP3dq  SC2e  1 4.100000e-01    2.040000e+00
 SP3dq  SC1e  1 4.100000e-01    1.910000e+00
 SP3dq  SX4e  1 4.100000e-01    2.840000e+00
 SP3dq  SX3e  1 4.100000e-01    2.840000e+00
 SP3dq  SX2e  1 4.100000e-01    2.600000e+00
 SP3dq  SX1e  1 4.100000e-01    2.350000e+00
 SP3dq  SC6v  1 4.100000e-01    2.350000e+00
 SP3dq  SC5v  1 4.100000e-01    2.200000e+00
 SP3dq  SC4v  1 4.100000e-01    2.040000e+00
 SP3dq  SC3v  1 4.100000e-01    1.750000e+00
 SP3dq  SC2v  1 4.100000e-01    1.750000e+00
 SP3dq  SC1v  1 4.140000e-01    1.560000e+00
 SP3dq  SX4v  1 4.100000e-01    2.350000e+00
 SP3dq  SX3v  1 4.100000e-01    2.350000e+00
 SP3dq  SX2v  1 4.100000e-01    2.200000e+00
 SP3dq  SX1v  1 4.100000e-01    2.040000e+00
 SP2dq  SP1d  1 4.100000e-01    3.310000e+00
 SP2dq  SN6d  1 4.100000e-01    3.310000e+00
 SP2dq  SN5d  1 4.100000e-01    3.070000e+00
 SP2dq  SN4d  1 4.100000e-01    2.840000e+00
 SP2dq  SN3d  1 4.100000e-01    2.600000e+00
 SP2dq  SN2d  1 4.100000e-01    2.600000e+00
 SP2dq  SN1d  1 4.100000e-01    2.600000e+00
 SP2dq  SP2a  1 4.100000e-01    4.040000e+00
 SP2dq  SP1a  1 4.100000e-01    3.820000e+00
 SP2dq  SN6a  1 4.100000e-01    3.820000e+00
 SP2dq  SN5a  1 4.100000e-01    3.550000e+00
 SP2dq  SN4a  1 4.100000e-01    3.310000e+00
 SP2dq  SN3a  1 4.100000e-01    3.070000e+00
 SP2dq  SN2a  1 4.100000e-01    3.070000e+00
 SP2dq  SN1a  1 4.100000e-01    3.070000e+00
 SP2dq  SC6e  1 4.100000e-01    2.840000e+00
 SP2dq  SC5e  1 4.100000e-01    2.600000e+00
 SP2dq  SC4e  1 4.100000e-01    2.350000e+00
 SP2dq  SC3e  1 4.100000e-01    2.200000e+00
 SP2dq  SC2e  1 4.100000e-01    2.200000e+00
 SP2dq  SC1e  1 4.100000e-01    2.040000e+00
 SP2dq  SX4e  1 4.100000e-01    2.840000e+00
 SP2dq  SX3e  1 4.100000e-01    2.840000e+00
 SP2dq  SX2e  1 4.100000e-01    2.600000e+00
 SP2dq  SX1e  1 4.100000e-01    2.350000e+00
 SP2dq  SC6v  1 4.100000e-01    2.350000e+00
 SP2dq  SC5v  1 4.100000e-01    2.200000e+00
 SP2dq  SC4v  1 4.100000e-01    2.040000e+00
 SP2dq  SC3v  1 4.100000e-01    1.910000e+00
 SP2dq  SC2v  1 4.100000e-01    1.910000e+00
 SP2dq  SC1v  1 4.100000e-01    1.750000e+00
 SP2dq  SX4v  1 4.100000e-01    2.350000e+00
 SP2dq  SX3v  1 4.100000e-01    2.350000e+00
 SP2dq  SX2v  1 4.100000e-01    2.200000e+00
 SP2dq  SX1v  1 4.100000e-01    2.040000e+00
 SP1dq  SN6d  1 4.100000e-01    3.310000e+00
 SP1dq  SN5d  1 4.100000e-01    3.070000e+00
 SP1dq  SN4d  1 4.100000e-01    3.070000e+00
 SP1dq  SN3d  1 4.100000e-01    2.600000e+00
 SP1dq  SN2d  1 4.100000e-01    2.600000e+00
 SP1dq  SN1d  1 4.100000e-01    2.600000e+00
 SP1dq  SP1a  1 4.100000e-01    3.820000e+00
 SP1dq  SN6a  1 4.100000e-01    3.820000e+00
 SP1dq  SN5a  1 4.100000e-01    3.550000e+00
 SP1dq  SN4a  1 4.100000e-01    3.550000e+00
 SP1dq  SN3a  1 4.100000e-01    3.070000e+00
 SP1dq  SN2a  1 4.100000e-01    3.070000e+00
 SP1dq  SN1a  1 4.100000e-01    3.070000e+00
 SP1dq  SC6e  1 4.100000e-01    2.840000e+00
 SP1dq  SC5e  1 4.100000e-01    2.600000e+00
 SP1dq  SC4e  1 4.100000e-01    2.350000e+00
 SP1dq  SC3e  1 4.100000e-01    2.200000e+00
 SP1dq  SC2e  1 4.100000e-01    2.200000e+00
 SP1dq  SC1e  1 4.100000e-01    2.040000e+00
 SP1dq  SX4e  1 4.100000e-01    2.840000e+00
 SP1dq  SX3e  1 4.100000e-01    2.840000e+00
 SP1dq  SX2e  1 4.100000e-01    2.600000e+00
 SP1dq  SX1e  1 4.100000e-01    2.350000e+00
 SP1dq  SC6v  1 4.100000e-01    2.350000e+00
 SP1dq  SC5v  1 4.100000e-01    2.200000e+00
 SP1dq  SC4v  1 4.100000e-01    2.040000e+00
 SP1dq  SC3v  1 4.100000e-01    1.910000e+00
 SP1dq  SC2v  1 4.100000e-01    1.910000e+00
 SP1dq  SC1v  1 4.100000e-01    1.750000e+00
 SP1dq  SX4v  1 4.100000e-01    2.350000e+00
 SP1dq  SX3v  1 4.100000e-01    2.350000e+00
 SP1dq  SX2v  1 4.100000e-01    2.200000e+00
 SP1dq  SX1v  1 4.100000e-01    2.040000e+00
 SN6dq  SN5d  1 4.100000e-01    3.310000e+00
 SN6dq  SN4d  1 4.100000e-01    3.310000e+00
 SN6dq  SN3d  1 4.100000e-01    2.840000e+00
 SN6dq  SN2d  1 4.100000e-01    2.600000e+00
 SN6dq  SN1d  1 4.100000e-01    2.600000e+00
 SN6dq  SN6a  1 4.100000e-01    3.820000e+00
 SN6dq  SN5a  1 4.100000e-01    3.820000e+00
 SN6dq  SN4a  1 4.100000e-01    3.820000e+00
 SN6dq  SN3a  1 4.100000e-01    3.310000e+00
 SN6dq  SN2a  1 4.100000e-01    3.070000e+00
 SN6dq  SN1a  1 4.100000e-01    3.070000e+00
 SN6dq  SC6e  1 4.100000e-01    3.070000e+00
 SN6dq  SC5e  1 4.100000e-01    2.840000e+00
 SN6dq  SC4e  1 4.100000e-01    2.600000e+00
 SN6dq  SC3e  1 4.100000e-01    2.350000e+00
 SN6dq  SC2e  1 4.100000e-01    2.350000e+00
 SN6dq  SC1e  1 4.100000e-01    2.200000e+00
 SN6dq  SX4e  1 4.100000e-01    3.070000e+00
 SN6dq  SX3e  1 4.100000e-01    2.840000e+00
 SN6dq  SX2e  1 4.100000e-01    2.600000e+00
 SN6dq  SX1e  1 4.100000e-01    2.350000e+00
 SN6dq  SC6v  1 4.100000e-01    2.600000e+00
 SN6dq  SC5v  1 4.100000e-01    2.350000e+00
 SN6dq  SC4v  1 4.100000e-01    2.200000e+00
 SN6dq  SC3v  1 4.100000e-01    2.040000e+00
 SN6dq  SC2v  1 4.100000e-01    2.040000e+00
 SN6dq  SC1v  1 4.100000e-01    1.910000e+00
 SN6dq  SX4v  1 4.100000e-01    2.600000e+00
 SN6dq  SX3v  1 4.100000e-01    2.350000e+00
 SN6dq  SX2v  1 4.100000e-01    2.200000e+00
 SN6dq  SX1v  1 4.100000e-01    2.040000e+00
 SN5dq  SN4d  1 4.100000e-01    3.070000e+00
 SN5dq  SN3d  1 4.100000e-01    2.840000e+00
 SN5dq  SN2d  1 4.100000e-01    2.840000e+00
 SN5dq  SN1d  1 4.100000e-01    2.600000e+00
 SN5dq  SN5a  1 4.100000e-01    3.550000e+00
 SN5dq  SN4a  1 4.100000e-01    3.550000e+00
 SN5dq  SN3a  1 4.100000e-01    3.310000e+00
 SN5dq  SN2a  1 4.100000e-01    3.310000e+00
 SN5dq  SN1a  1 4.100000e-01    3.070000e+00
 SN5dq  SC6e  1 4.100000e-01    3.070000e+00
 SN5dq  SC5e  1 4.100000e-01    2.840000e+00
 SN5dq  SC4e  1 4.100000e-01    2.600000e+00
 SN5dq  SC3e  1 4.100000e-01    2.600000e+00
 SN5dq  SC2e  1 4.100000e-01    2.350000e+00
 SN5dq  SC1e  1 4.100000e-01    2.200000e+00
 SN5dq  SX4e  1 4.100000e-01    3.310000e+00
 SN5dq  SX3e  1 4.100000e-01    3.070000e+00
 SN5dq  SX2e  1 4.100000e-01    2.840000e+00
 SN5dq  SX1e  1 4.100000e-01    2.600000e+00
 SN5dq  SC6v  1 4.100000e-01    2.600000e+00
 SN5dq  SC5v  1 4.100000e-01    2.350000e+00
 SN5dq  SC4v  1 4.100000e-01    2.200000e+00
 SN5dq  SC3v  1 4.100000e-01    2.200000e+00
 SN5dq  SC2v  1 4.100000e-01    2.040000e+00
 SN5dq  SC1v  1 4.100000e-01    1.910000e+00
 SN5dq  SX4v  1 4.100000e-01    2.840000e+00
 SN5dq  SX3v  1 4.100000e-01    2.600000e+00
 SN5dq  SX2v  1 4.100000e-01    2.350000e+00
 SN5dq  SX1v  1 4.100000e-01    2.200000e+00
 SN4dq  SN3d  1 4.100000e-01    2.840000e+00
 SN4dq  SN2d  1 4.100000e-01    2.840000e+00
 SN4dq  SN1d  1 4.100000e-01    2.600000e+00
 SN4dq  SN4a  1 4.100000e-01    3.550000e+00
 SN4dq  SN3a  1 4.100000e-01    3.310000e+00
 SN4dq  SN2a  1 4.100000e-01    3.310000e+00
 SN4dq  SN1a  1 4.100000e-01    3.070000e+00
 SN4dq  SC6e  1 4.100000e-01    3.070000e+00
 SN4dq  SC5e  1 4.100000e-01    2.840000e+00
 SN4dq  SC4e  1 4.100000e-01    2.840000e+00
 SN4dq  SC3e  1 4.100000e-01    2.600000e+00
 SN4dq  SC2e  1 4.100000e-01    2.350000e+00
 SN4dq  SC1e  1 4.100000e-01    2.200000e+00
 SN4dq  SX4e  1 4.100000e-01    3.550000e+00
 SN4dq  SX3e  1 4.100000e-01    3.310000e+00
 SN4dq  SX2e  1 4.100000e-01    2.840000e+00
 SN4dq  SX1e  1 4.100000e-01    2.600000e+00
 SN4dq  SC6v  1 4.100000e-01    2.600000e+00
 SN4dq  SC5v  1 4.100000e-01    2.350000e+00
 SN4dq  SC4v  1 4.100000e-01    2.350000e+00
 SN4dq  SC3v  1 4.100000e-01    2.200000e+00
 SN4dq  SC2v  1 4.100000e-01    2.040000e+00
 SN4dq  SC1v  1 4.100000e-01    1.910000e+00
 SN4dq  SX4v  1 4.100000e-01    3.070000e+00
 SN4dq  SX3v  1 4.100000e-01    2.840000e+00
 SN4dq  SX2v  1 4.100000e-01    2.350000e+00
 SN4dq  SX1v  1 4.100000e-01    2.200000e+00
 SN3dq  SN2d  1 4.100000e-01    2.840000e+00
 SN3dq  SN1d  1 4.100000e-01    2.600000e+00
 SN3dq  SN3a  1 4.100000e-01    3.310000e+00
 SN3dq  SN2a  1 4.100000e-01    3.310000e+00
 SN3dq  SN1a  1 4.100000e-01    3.070000e+00
 SN3dq  SC6e  1 4.100000e-01    3.070000e+00
 SN3dq  SC5e  1 4.100000e-01    2.840000e+00
 SN3dq  SC4e  1 4.100000e-01    2.840000e+00
 SN3dq  SC3e  1 4.100000e-01    2.600000e+00
 SN3dq  SC2e  1 4.100000e-01    2.600000e+00
 SN3dq  SC1e  1 4.100000e-01    2.350000e+00
 SN3dq  SX4e  1 4.100000e-01    3.310000e+00
 SN3dq  SX3e  1 4.100000e-01    3.070000e+00
 SN3dq  SX2e  1 4.100000e-01    2.840000e+00
 SN3dq  SX1e  1 4.100000e-01    2.840000e+00
 SN3dq  SC6v  1 4.100000e-01    2.600000e+00
 SN3dq  SC5v  1 4.100000e-01    2.350000e+00
 SN3dq  SC4v  1 4.100000e-01    2.350000e+00
 SN3dq  SC3v  1 4.100000e-01    2.200000e+00
 SN3dq  SC2v  1 4.100000e-01    2.200000e+00
 SN3dq  SC1v  1 4.100000e-01    2.040000e+00
 SN3dq  SX4v  1 4.100000e-01    2.840000e+00
 SN3dq  SX3v  1 4.100000e-01    2.600000e+00
 SN3dq  SX2v  1 4.100000e-01    2.350000e+00
 SN3dq  SX1v  1 4.100000e-01    2.350000e+00
 SN2dq  SN1d  1 4.100000e-01    2.600000e+00
 SN2dq  SN2a  1 4.100000e-01    3.310000e+00
 SN2dq  SN1a  1 4.100000e-01    3.070000e+00
 SN2dq  SC6e  1 4.100000e-01    3.070000e+00
 SN2dq  SC5e  1 4.100000e-01    2.840000e+00
 SN2dq  SC4e  1 4.100000e-01    2.840000e+00
 SN2dq  SC3e  1 4.100000e-01    2.840000e+00
 SN2dq  SC2e  1 4.100000e-01    2.600000e+00
 SN2dq  SC1e  1 4.100000e-01    2.350000e+00
 SN2dq  SX4e  1 4.100000e-01    3.310000e+00
 SN2dq  SX3e  1 4.100000e-01    3.070000e+00
 SN2dq  SX2e  1 4.100000e-01    2.840000e+00
 SN2dq  SX1e  1 4.100000e-01    2.840000e+00
 SN2dq  SC6v  1 4.100000e-01    2.600000e+00
 SN2dq  SC5v  1 4.100000e-01    2.350000e+00
 SN2dq  SC4v  1 4.100000e-01    2.350000e+00
 SN2dq  SC3v  1 4.100000e-01    2.350000e+00
 SN2dq  SC2v  1 4.100000e-01    2.200000e+00
 SN2dq  SC1v  1 4.100000e-01    2.040000e+00
 SN2dq  SX4v  1 4.100000e-01    2.840000e+00
 SN2dq  SX3v  1 4.100000e-01    2.600000e+00
 SN2dq  SX2v  1 4.100000e-01    2.350000e+00
 SN2dq  SX1v  1 4.100000e-01    2.350000e+00
 SN1dq  SN1a  1 4.100000e-01    3.310000e+00
 SN1dq  SC6e  1 4.100000e-01    3.310000e+00
 SN1dq  SC5e  1 4.100000e-01    3.070000e+00
 SN1dq  SC4e  1 4.100000e-01    3.070000e+00
 SN1dq  SC3e  1 4.100000e-01    2.840000e+00
 SN1dq  SC2e  1 4.100000e-01    2.600000e+00
 SN1dq  SC1e  1 4.100000e-01    2.350000e+00
 SN1dq  SX4e  1 4.100000e-01    3.070000e+00
 SN1dq  SX3e  1 4.100000e-01    3.070000e+00
 SN1dq  SX2e  1 4.100000e-01    2.840000e+00
 SN1dq  SX1e  1 4.100000e-01    2.840000e+00
 SN1dq  SC6v  1 4.100000e-01    2.840000e+00
 SN1dq  SC5v  1 4.100000e-01    2.600000e+00
 SN1dq  SC4v  1 4.100000e-01    2.600000e+00
 SN1dq  SC3v  1 4.100000e-01    2.350000e+00
 SN1dq  SC2v  1 4.100000e-01    2.200000e+00
 SN1dq  SC1v  1 4.100000e-01    2.040000e+00
 SN1dq  SX4v  1 4.100000e-01    2.600000e+00
 SN1dq  SX3v  1 4.100000e-01    2.600000e+00
 SN1dq  SX2v  1 4.100000e-01    2.350000e+00
 SN1dq  SX1v  1 4.100000e-01    2.350000e+00
 SP6aq  SP5a  1 4.100000e-01    4.290000e+00
 SP6aq  SP4a  1 4.100000e-01    4.040000e+00
 SP6aq  SP3a  1 4.100000e-01    3.820000e+00
 SP6aq  SP2a  1 4.100000e-01    3.820000e+00
 SP6aq  SP1a  1 4.100000e-01    3.550000e+00
 SP6aq  SN6a  1 4.100000e-01    3.310000e+00
 SP6aq  SN5a  1 4.100000e-01    2.840000e+00
 SP6aq  SN4a  1 4.100000e-01    2.600000e+00
 SP6aq  SN3a  1 4.100000e-01    2.600000e+00
 SP6aq  SN2a  1 4.100000e-01    2.350000e+00
 SP6aq  SN1a  1 4.100000e-01    2.200000e+00
 SP6aq  SC6v  1 4.100000e-01    2.350000e+00
 SP6aq  SC5v  1 4.100000e-01    2.200000e+00
 SP6aq  SC4v  1 4.100000e-01    2.040000e+00
 SP6aq  SC3v  1 4.100000e-01    1.910000e+00
 SP6aq  SC2v  1 4.100000e-01    1.910000e+00
 SP6aq  SC1v  1 4.140000e-01    1.560000e+00
 SP6aq  SX4v  1 4.100000e-01    2.600000e+00
 SP6aq  SX3v  1 4.100000e-01    2.600000e+00
 SP6aq  SX2v  1 4.100000e-01    2.350000e+00
 SP6aq  SX1v  1 4.100000e-01    2.200000e+00
 SP6aq  SC6e  1 4.100000e-01    2.040000e+00
 SP6aq  SC5e  1 4.100000e-01    1.910000e+00
 SP6aq  SC4e  1 4.100000e-01    1.750000e+00
 SP6aq  SC3e  1 4.140000e-01    1.560000e+00
 SP6aq  SC2e  1 4.140000e-01    1.560000e+00
 SP6aq  SC1e  1 4.210000e-01    1.250000e+00
 SP6aq  SX4e  1 4.100000e-01    2.200000e+00
 SP6aq  SX3e  1 4.100000e-01    2.200000e+00
 SP6aq  SX2e  1 4.100000e-01    2.040000e+00
 SP6aq  SX1e  1 4.100000e-01    1.910000e+00
 SP5aq  SP4a  1 4.100000e-01    3.820000e+00
 SP5aq  SP3a  1 4.100000e-01    3.550000e+00
 SP5aq  SP2a  1 4.100000e-01    3.550000e+00
 SP5aq  SP1a  1 4.100000e-01    3.310000e+00
 SP5aq  SN6a  1 4.100000e-01    3.070000e+00
 SP5aq  SN5a  1 4.100000e-01    2.840000e+00
 SP5aq  SN4a  1 4.100000e-01    2.840000e+00
 SP5aq  SN3a  1 4.100000e-01    2.600000e+00
 SP5aq  SN2a  1 4.100000e-01    2.350000e+00
 SP5aq  SN1a  1 4.100000e-01    2.200000e+00
 SP5aq  SC6v  1 4.100000e-01    2.350000e+00
 SP5aq  SC5v  1 4.100000e-01    2.350000e+00
 SP5aq  SC4v  1 4.100000e-01    2.200000e+00
 SP5aq  SC3v  1 4.100000e-01    2.040000e+00
 SP5aq  SC2v  1 4.100000e-01    2.040000e+00
 SP5aq  SC1v  1 4.100000e-01    1.910000e+00
 SP5aq  SX4v  1 4.100000e-01    2.840000e+00
 SP5aq  SX3v  1 4.100000e-01    2.600000e+00
 SP5aq  SX2v  1 4.100000e-01    2.600000e+00
 SP5aq  SX1v  1 4.100000e-01    2.200000e+00
 SP5aq  SC6e  1 4.100000e-01    2.040000e+00
 SP5aq  SC5e  1 4.100000e-01    2.040000e+00
 SP5aq  SC4e  1 4.100000e-01    1.910000e+00
 SP5aq  SC3e  1 4.100000e-01    1.750000e+00
 SP5aq  SC2e  1 4.100000e-01    1.750000e+00
 SP5aq  SC1e  1 4.140000e-01    1.560000e+00
 SP5aq  SX4e  1 4.100000e-01    2.350000e+00
 SP5aq  SX3e  1 4.100000e-01    2.200000e+00
 SP5aq  SX2e  1 4.100000e-01    2.200000e+00
 SP5aq  SX1e  1 4.100000e-01    1.910000e+00
 SP4aq  SP3a  1 4.100000e-01    3.550000e+00
 SP4aq  SP2a  1 4.100000e-01    3.550000e+00
 SP4aq  SP1a  1 4.100000e-01    3.310000e+00
 SP4aq  SN6a  1 4.100000e-01    3.070000e+00
 SP4aq  SN5a  1 4.100000e-01    2.840000e+00
 SP4aq  SN4a  1 4.100000e-01    2.840000e+00
 SP4aq  SN3a  1 4.100000e-01    2.600000e+00
 SP4aq  SN2a  1 4.100000e-01    2.600000e+00
 SP4aq  SN1a  1 4.100000e-01    2.350000e+00
 SP4aq  SC6v  1 4.100000e-01    2.600000e+00
 SP4aq  SC5v  1 4.100000e-01    2.350000e+00
 SP4aq  SC4v  1 4.100000e-01    2.200000e+00
 SP4aq  SC3v  1 4.100000e-01    2.040000e+00
 SP4aq  SC2v  1 4.100000e-01    2.040000e+00
 SP4aq  SC1v  1 4.100000e-01    1.910000e+00
 SP4aq  SX4v  1 4.100000e-01    2.840000e+00
 SP4aq  SX3v  1 4.100000e-01    2.600000e+00
 SP4aq  SX2v  1 4.100000e-01    2.600000e+00
 SP4aq  SX1v  1 4.100000e-01    2.350000e+00
 SP4aq  SC6e  1 4.100000e-01    2.200000e+00
 SP4aq  SC5e  1 4.100000e-01    2.040000e+00
 SP4aq  SC4e  1 4.100000e-01    1.910000e+00
 SP4aq  SC3e  1 4.100000e-01    1.750000e+00
 SP4aq  SC2e  1 4.100000e-01    1.750000e+00
 SP4aq  SC1e  1 4.140000e-01    1.560000e+00
 SP4aq  SX4e  1 4.100000e-01    2.350000e+00
 SP4aq  SX3e  1 4.100000e-01    2.200000e+00
 SP4aq  SX2e  1 4.100000e-01    2.200000e+00
 SP4aq  SX1e  1 4.100000e-01    2.040000e+00
 SP3aq  SP2a  1 4.100000e-01    3.550000e+00
 SP3aq  SP1a  1 4.100000e-01    3.310000e+00
 SP3aq  SN6a  1 4.100000e-01    3.070000e+00
 SP3aq  SN5a  1 4.100000e-01    2.840000e+00
 SP3aq  SN4a  1 4.100000e-01    2.840000e+00
 SP3aq  SN3a  1 4.100000e-01    2.600000e+00
 SP3aq  SN2a  1 4.100000e-01    2.600000e+00
 SP3aq  SN1a  1 4.100000e-01    2.600000e+00
 SP3aq  SC6v  1 4.100000e-01    2.840000e+00
 SP3aq  SC5v  1 4.100000e-01    2.600000e+00
 SP3aq  SC4v  1 4.100000e-01    2.350000e+00
 SP3aq  SC3v  1 4.100000e-01    2.040000e+00
 SP3aq  SC2v  1 4.100000e-01    2.040000e+00
 SP3aq  SC1v  1 4.100000e-01    1.910000e+00
 SP3aq  SX4v  1 4.100000e-01    2.840000e+00
 SP3aq  SX3v  1 4.100000e-01    2.840000e+00
 SP3aq  SX2v  1 4.100000e-01    2.600000e+00
 SP3aq  SX1v  1 4.100000e-01    2.350000e+00
 SP3aq  SC6e  1 4.100000e-01    2.350000e+00
 SP3aq  SC5e  1 4.100000e-01    2.200000e+00
 SP3aq  SC4e  1 4.100000e-01    2.040000e+00
 SP3aq  SC3e  1 4.100000e-01    1.750000e+00
 SP3aq  SC2e  1 4.100000e-01    1.750000e+00
 SP3aq  SC1e  1 4.140000e-01    1.560000e+00
 SP3aq  SX4e  1 4.100000e-01    2.350000e+00
 SP3aq  SX3e  1 4.100000e-01    2.350000e+00
 SP3aq  SX2e  1 4.100000e-01    2.200000e+00
 SP3aq  SX1e  1 4.100000e-01    2.040000e+00
 SP2aq  SP1a  1 4.100000e-01    3.310000e+00
 SP2aq  SN6a  1 4.100000e-01    3.310000e+00
 SP2aq  SN5a  1 4.100000e-01    3.070000e+00
 SP2aq  SN4a  1 4.100000e-01    2.840000e+00
 SP2aq  SN3a  1 4.100000e-01    2.600000e+00
 SP2aq  SN2a  1 4.100000e-01    2.600000e+00
 SP2aq  SN1a  1 4.100000e-01    2.600000e+00
 SP2aq  SC6v  1 4.100000e-01    2.840000e+00
 SP2aq  SC5v  1 4.100000e-01    2.600000e+00
 SP2aq  SC4v  1 4.100000e-01    2.350000e+00
 SP2aq  SC3v  1 4.100000e-01    2.200000e+00
 SP2aq  SC2v  1 4.100000e-01    2.200000e+00
 SP2aq  SC1v  1 4.100000e-01    2.040000e+00
 SP2aq  SX4v  1 4.100000e-01    2.840000e+00
 SP2aq  SX3v  1 4.100000e-01    2.840000e+00
 SP2aq  SX2v  1 4.100000e-01    2.600000e+00
 SP2aq  SX1v  1 4.100000e-01    2.350000e+00
 SP2aq  SC6e  1 4.100000e-01    2.350000e+00
 SP2aq  SC5e  1 4.100000e-01    2.200000e+00
 SP2aq  SC4e  1 4.100000e-01    2.040000e+00
 SP2aq  SC3e  1 4.100000e-01    1.910000e+00
 SP2aq  SC2e  1 4.100000e-01    1.910000e+00
 SP2aq  SC1e  1 4.100000e-01    1.750000e+00
 SP2aq  SX4e  1 4.100000e-01    2.350000e+00
 SP2aq  SX3e  1 4.100000e-01    2.350000e+00
 SP2aq  SX2e  1 4.100000e-01    2.200000e+00
 SP2aq  SX1e  1 4.100000e-01    2.040000e+00
 SP1aq  SN6a  1 4.100000e-01    3.310000e+00
 SP1aq  SN5a  1 4.100000e-01    3.070000e+00
 SP1aq  SN4a  1 4.100000e-01    3.070000e+00
 SP1aq  SN3a  1 4.100000e-01    2.600000e+00
 SP1aq  SN2a  1 4.100000e-01    2.600000e+00
 SP1aq  SN1a  1 4.100000e-01    2.600000e+00
 SP1aq  SC6v  1 4.100000e-01    2.840000e+00
 SP1aq  SC5v  1 4.100000e-01    2.600000e+00
 SP1aq  SC4v  1 4.100000e-01    2.350000e+00
 SP1aq  SC3v  1 4.100000e-01    2.200000e+00
 SP1aq  SC2v  1 4.100000e-01    2.200000e+00
 SP1aq  SC1v  1 4.100000e-01    2.040000e+00
 SP1aq  SX4v  1 4.100000e-01    2.840000e+00
 SP1aq  SX3v  1 4.100000e-01    2.840000e+00
 SP1aq  SX2v  1 4.100000e-01    2.600000e+00
 SP1aq  SX1v  1 4.100000e-01    2.350000e+00
 SP1aq  SC6e  1 4.100000e-01    2.350000e+00
 SP1aq  SC5e  1 4.100000e-01    2.200000e+00
 SP1aq  SC4e  1 4.100000e-01    2.040000e+00
 SP1aq  SC3e  1 4.100000e-01    1.910000e+00
 SP1aq  SC2e  1 4.100000e-01    1.910000e+00
 SP1aq  SC1e  1 4.100000e-01    1.750000e+00
 SP1aq  SX4e  1 4.100000e-01    2.350000e+00
 SP1aq  SX3e  1 4.100000e-01    2.350000e+00
 SP1aq  SX2e  1 4.100000e-01    2.200000e+00
 SP1aq  SX1e  1 4.100000e-01    2.040000e+00
 SN6aq  SN5a  1 4.100000e-01    3.310000e+00
 SN6aq  SN4a  1 4.100000e-01    3.310000e+00
 SN6aq  SN3a  1 4.100000e-01    2.840000e+00
 SN6aq  SN2a  1 4.100000e-01    2.600000e+00
 SN6aq  SN1a  1 4.100000e-01    2.600000e+00
 SN6aq  SC6v  1 4.100000e-01    3.070000e+00
 SN6aq  SC5v  1 4.100000e-01    2.840000e+00
 SN6aq  SC4v  1 4.100000e-01    2.600000e+00
 SN6aq  SC3v  1 4.100000e-01    2.350000e+00
 SN6aq  SC2v  1 4.100000e-01    2.350000e+00
 SN6aq  SC1v  1 4.100000e-01    2.200000e+00
 SN6aq  SX4v  1 4.100000e-01    3.070000e+00
 SN6aq  SX3v  1 4.100000e-01    2.840000e+00
 SN6aq  SX2v  1 4.100000e-01    2.600000e+00
 SN6aq  SX1v  1 4.100000e-01    2.350000e+00
 SN6aq  SC6e  1 4.100000e-01    2.600000e+00
 SN6aq  SC5e  1 4.100000e-01    2.350000e+00
 SN6aq  SC4e  1 4.100000e-01    2.200000e+00
 SN6aq  SC3e  1 4.100000e-01    2.040000e+00
 SN6aq  SC2e  1 4.100000e-01    2.040000e+00
 SN6aq  SC1e  1 4.100000e-01    1.910000e+00
 SN6aq  SX4e  1 4.100000e-01    2.600000e+00
 SN6aq  SX3e  1 4.100000e-01    2.350000e+00
 SN6aq  SX2e  1 4.100000e-01    2.200000e+00
 SN6aq  SX1e  1 4.100000e-01    2.040000e+00
 SN5aq  SN4a  1 4.100000e-01    3.070000e+00
 SN5aq  SN3a  1 4.100000e-01    2.840000e+00
 SN5aq  SN2a  1 4.100000e-01    2.840000e+00
 SN5aq  SN1a  1 4.100000e-01    2.600000e+00
 SN5aq  SC6v  1 4.100000e-01    3.070000e+00
 SN5aq  SC5v  1 4.100000e-01    2.840000e+00
 SN5aq  SC4v  1 4.100000e-01    2.600000e+00
 SN5aq  SC3v  1 4.100000e-01    2.600000e+00
 SN5aq  SC2v  1 4.100000e-01    2.350000e+00
 SN5aq  SC1v  1 4.100000e-01    2.200000e+00
 SN5aq  SX4v  1 4.100000e-01    3.310000e+00
 SN5aq  SX3v  1 4.100000e-01    3.070000e+00
 SN5aq  SX2v  1 4.100000e-01    2.840000e+00
 SN5aq  SX1v  1 4.100000e-01    2.600000e+00
 SN5aq  SC6e  1 4.100000e-01    2.600000e+00
 SN5aq  SC5e  1 4.100000e-01    2.350000e+00
 SN5aq  SC4e  1 4.100000e-01    2.200000e+00
 SN5aq  SC3e  1 4.100000e-01    2.200000e+00
 SN5aq  SC2e  1 4.100000e-01    2.040000e+00
 SN5aq  SC1e  1 4.100000e-01    1.910000e+00
 SN5aq  SX4e  1 4.100000e-01    2.840000e+00
 SN5aq  SX3e  1 4.100000e-01    2.600000e+00
 SN5aq  SX2e  1 4.100000e-01    2.350000e+00
 SN5aq  SX1e  1 4.100000e-01    2.200000e+00
 SN4aq  SN3a  1 4.100000e-01    2.840000e+00
 SN4aq  SN2a  1 4.100000e-01    2.840000e+00
 SN4aq  SN1a  1 4.100000e-01    2.600000e+00
 SN4aq  SC6v  1 4.100000e-01    3.070000e+00
 SN4aq  SC5v  1 4.100000e-01    2.840000e+00
 SN4aq  SC4v  1 4.100000e-01    2.840000e+00
 SN4aq  SC3v  1 4.100000e-01    2.600000e+00
 SN4aq  SC2v  1 4.100000e-01    2.350000e+00
 SN4aq  SC1v  1 4.100000e-01    2.200000e+00
 SN4aq  SX4v  1 4.100000e-01    3.550000e+00
 SN4aq  SX3v  1 4.100000e-01    3.310000e+00
 SN4aq  SX2v  1 4.100000e-01    2.840000e+00
 SN4aq  SX1v  1 4.100000e-01    2.600000e+00
 SN4aq  SC6e  1 4.100000e-01    2.600000e+00
 SN4aq  SC5e  1 4.100000e-01    2.350000e+00
 SN4aq  SC4e  1 4.100000e-01    2.350000e+00
 SN4aq  SC3e  1 4.100000e-01    2.200000e+00
 SN4aq  SC2e  1 4.100000e-01    2.040000e+00
 SN4aq  SC1e  1 4.100000e-01    1.910000e+00
 SN4aq  SX4e  1 4.100000e-01    3.070000e+00
 SN4aq  SX3e  1 4.100000e-01    2.840000e+00
 SN4aq  SX2e  1 4.100000e-01    2.350000e+00
 SN4aq  SX1e  1 4.100000e-01    2.200000e+00
 SN3aq  SN2a  1 4.100000e-01    2.840000e+00
 SN3aq  SN1a  1 4.100000e-01    2.600000e+00
 SN3aq  SC6v  1 4.100000e-01    3.070000e+00
 SN3aq  SC5v  1 4.100000e-01    2.840000e+00
 SN3aq  SC4v  1 4.100000e-01    2.840000e+00
 SN3aq  SC3v  1 4.100000e-01    2.600000e+00
 SN3aq  SC2v  1 4.100000e-01    2.600000e+00
 SN3aq  SC1v  1 4.100000e-01    2.350000e+00
 SN3aq  SX4v  1 4.100000e-01    3.310000e+00
 SN3aq  SX3v  1 4.100000e-01    3.070000e+00
 SN3aq  SX2v  1 4.100000e-01    2.840000e+00
 SN3aq  SX1v  1 4.100000e-01    2.840000e+00
 SN3aq  SC6e  1 4.100000e-01    2.600000e+00
 SN3aq  SC5e  1 4.100000e-01    2.350000e+00
 SN3aq  SC4e  1 4.100000e-01    2.350000e+00
 SN3aq  SC3e  1 4.100000e-01    2.200000e+00
 SN3aq  SC2e  1 4.100000e-01    2.200000e+00
 SN3aq  SC1e  1 4.100000e-01    2.040000e+00
 SN3aq  SX4e  1 4.100000e-01    2.840000e+00
 SN3aq  SX3e  1 4.100000e-01    2.600000e+00
 SN3aq  SX2e  1 4.100000e-01    2.350000e+00
 SN3aq  SX1e  1 4.100000e-01    2.350000e+00
 SN2aq  SN1a  1 4.100000e-01    2.600000e+00
 SN2aq  SC6v  1 4.100000e-01    3.070000e+00
 SN2aq  SC5v  1 4.100000e-01    2.840000e+00
 SN2aq  SC4v  1 4.100000e-01    2.840000e+00
 SN2aq  SC3v  1 4.100000e-01    2.840000e+00
 SN2aq  SC2v  1 4.100000e-01    2.600000e+00
 SN2aq  SC1v  1 4.100000e-01    2.350000e+00
 SN2aq  SX4v  1 4.100000e-01    3.310000e+00
 SN2aq  SX3v  1 4.100000e-01    3.070000e+00
 SN2aq  SX2v  1 4.100000e-01    2.840000e+00
 SN2aq  SX1v  1 4.100000e-01    2.840000e+00
 SN2aq  SC6e  1 4.100000e-01    2.600000e+00
 SN2aq  SC5e  1 4.100000e-01    2.350000e+00
 SN2aq  SC4e  1 4.100000e-01    2.350000e+00
 SN2aq  SC3e  1 4.100000e-01    2.350000e+00
 SN2aq  SC2e  1 4.100000e-01    2.200000e+00
 SN2aq  SC1e  1 4.100000e-01    2.040000e+00
 SN2aq  SX4e  1 4.100000e-01    2.840000e+00
 SN2aq  SX3e  1 4.100000e-01    2.600000e+00
 SN2aq  SX2e  1 4.100000e-01    2.350000e+00
 SN2aq  SX1e  1 4.100000e-01    2.350000e+00
 SN1aq  SC6v  1 4.100000e-01    3.310000e+00
 SN1aq  SC5v  1 4.100000e-01    3.070000e+00
 SN1aq  SC4v  1 4.100000e-01    3.070000e+00
 SN1aq  SC3v  1 4.100000e-01    2.840000e+00
 SN1aq  SC2v  1 4.100000e-01    2.600000e+00
 SN1aq  SC1v  1 4.100000e-01    2.350000e+00
 SN1aq  SX4v  1 4.100000e-01    3.070000e+00
 SN1aq  SX3v  1 4.100000e-01    3.070000e+00
 SN1aq  SX2v  1 4.100000e-01    2.840000e+00
 SN1aq  SX1v  1 4.100000e-01    2.840000e+00
 SN1aq  SC6e  1 4.100000e-01    2.840000e+00
 SN1aq  SC5e  1 4.100000e-01    2.600000e+00
 SN1aq  SC4e  1 4.100000e-01    2.600000e+00
 SN1aq  SC3e  1 4.100000e-01    2.350000e+00
 SN1aq  SC2e  1 4.100000e-01    2.200000e+00
 SN1aq  SC1e  1 4.100000e-01    2.040000e+00
 SN1aq  SX4e  1 4.100000e-01    2.600000e+00
 SN1aq  SX3e  1 4.100000e-01    2.600000e+00
 SN1aq  SX2e  1 4.100000e-01    2.350000e+00
 SN1aq  SX1e  1 4.100000e-01    2.350000e+00
 SC6vq  SC5v  1 4.100000e-01    2.600000e+00
 SC6vq  SC4v  1 4.100000e-01    2.600000e+00
 SC6vq  SC3v  1 4.100000e-01    2.350000e+00
 SC6vq  SC2v  1 4.100000e-01    2.200000e+00
 SC6vq  SC1v  1 4.100000e-01    2.040000e+00
 SC6vq  SX4v  1 4.100000e-01    2.600000e+00
 SC6vq  SX3v  1 4.100000e-01    2.600000e+00
 SC6vq  SX2v  1 4.100000e-01    2.600000e+00
 SC6vq  SX1v  1 4.100000e-01    2.600000e+00
 SC6vq  SC6e  1 4.100000e-01    3.550000e+00
 SC6vq  SC5e  1 4.100000e-01    3.310000e+00
 SC6vq  SC4e  1 4.100000e-01    3.310000e+00
 SC6vq  SC3e  1 4.100000e-01    3.070000e+00
 SC6vq  SC2e  1 4.100000e-01    2.840000e+00
 SC6vq  SC1e  1 4.100000e-01    2.600000e+00
 SC6vq  SX4e  1 4.100000e-01    3.310000e+00
 SC6vq  SX3e  1 4.100000e-01    3.310000e+00
 SC6vq  SX2e  1 4.100000e-01    3.310000e+00
 SC6vq  SX1e  1 4.100000e-01    3.310000e+00
 SC5vq  SC4v  1 4.100000e-01    2.600000e+00
 SC5vq  SC3v  1 4.100000e-01    2.350000e+00
 SC5vq  SC2v  1 4.100000e-01    2.200000e+00
 SC5vq  SC1v  1 4.100000e-01    2.200000e+00
 SC5vq  SX4v  1 4.100000e-01    2.350000e+00
 SC5vq  SX3v  1 4.100000e-01    2.350000e+00
 SC5vq  SX2v  1 4.100000e-01    2.350000e+00
 SC5vq  SX1v  1 4.100000e-01    2.600000e+00
 SC5vq  SC5e  1 4.100000e-01    3.310000e+00
 SC5vq  SC4e  1 4.100000e-01    3.310000e+00
 SC5vq  SC3e  1 4.100000e-01    3.070000e+00
 SC5vq  SC2e  1 4.100000e-01    2.840000e+00
 SC5vq  SC1e  1 4.100000e-01    2.840000e+00
 SC5vq  SX4e  1 4.100000e-01    3.070000e+00
 SC5vq  SX3e  1 4.100000e-01    3.070000e+00
 SC5vq  SX2e  1 4.100000e-01    3.070000e+00
 SC5vq  SX1e  1 4.100000e-01    3.310000e+00
 SC4vq  SC3v  1 4.100000e-01    2.600000e+00
 SC4vq  SC2v  1 4.100000e-01    2.350000e+00
 SC4vq  SC1v  1 4.100000e-01    2.200000e+00
 SC4vq  SX4v  1 4.100000e-01    2.350000e+00
 SC4vq  SX3v  1 4.100000e-01    2.350000e+00
 SC4vq  SX2v  1 4.100000e-01    2.350000e+00
 SC4vq  SX1v  1 4.100000e-01    2.600000e+00
 SC4vq  SC4e  1 4.100000e-01    3.310000e+00
 SC4vq  SC3e  1 4.100000e-01    3.310000e+00
 SC4vq  SC2e  1 4.100000e-01    3.070000e+00
 SC4vq  SC1e  1 4.100000e-01    2.840000e+00
 SC4vq  SX4e  1 4.100000e-01    3.070000e+00
 SC4vq  SX3e  1 4.100000e-01    3.070000e+00
 SC4vq  SX2e  1 4.100000e-01    3.070000e+00
 SC4vq  SX1e  1 4.100000e-01    3.310000e+00
 SC3vq  SC2v  1 4.100000e-01    2.600000e+00
 SC3vq  SC1v  1 4.100000e-01    2.600000e+00
 SC3vq  SX4v  1 4.100000e-01    2.350000e+00
 SC3vq  SX3v  1 4.100000e-01    2.350000e+00
 SC3vq  SX2v  1 4.100000e-01    2.350000e+00
 SC3vq  SX1v  1 4.100000e-01    2.600000e+00
 SC3vq  SC3e  1 4.100000e-01    3.310000e+00
 SC3vq  SC2e  1 4.100000e-01    3.310000e+00
 SC3vq  SC1e  1 4.100000e-01    3.310000e+00
 SC3vq  SX4e  1 4.100000e-01    3.070000e+00
 SC3vq  SX3e  1 4.100000e-01    3.070000e+00
 SC3vq  SX2e  1 4.100000e-01    3.070000e+00
 SC3vq  SX1e  1 4.100000e-01    3.310000e+00
 SC2vq  SC1v  1 4.100000e-01    2.840000e+00
 SC2vq  SX4v  1 4.100000e-01    2.040000e+00
 SC2vq  SX3v  1 4.100000e-01    2.350000e+00
 SC2vq  SX2v  1 4.100000e-01    2.350000e+00
 SC2vq  SX1v  1 4.100000e-01    2.350000e+00
 SC2vq  SC2e  1 4.100000e-01    3.310000e+00
 SC2vq  SC1e  1 4.100000e-01    3.550000e+00
 SC2vq  SX4e  1 4.100000e-01    2.600000e+00
 SC2vq  SX3e  1 4.100000e-01    3.070000e+00
 SC2vq  SX2e  1 4.100000e-01    3.070000e+00
 SC2vq  SX1e  1 4.100000e-01    3.070000e+00
 SC1vq  SX4v  1 4.100000e-01    2.040000e+00
 SC1vq  SX3v  1 4.100000e-01    2.350000e+00
 SC1vq  SX2v  1 4.100000e-01    2.350000e+00
 SC1vq  SX1v  1 4.100000e-01    2.350000e+00
 SC1vq  SC1e  1 4.100000e-01    3.310000e+00
 SC1vq  SX4e  1 4.100000e-01    2.600000e+00
 SC1vq  SX3e  1 4.100000e-01    3.070000e+00
 SC1vq  SX2e  1 4.100000e-01    3.070000e+00
 SC1vq  SX1e  1 4.100000e-01    3.070000e+00
 SX4vq  SX3v  1 4.100000e-01    2.600000e+00
 SX4vq  SX2v  1 4.100000e-01    2.600000e+00
 SX4vq  SX1v  1 4.100000e-01    2.600000e+00
 SX4vq  SX4e  1 4.100000e-01    3.310000e+00
 SX4vq  SX3e  1 4.100000e-01    3.310000e+00
 SX4vq  SX2e  1 4.100000e-01    3.310000e+00
 SX4vq  SX1e  1 4.100000e-01    3.310000e+00
 SX3vq  SX2v  1 4.100000e-01    2.840000e+00
 SX3vq  SX1v  1 4.100000e-01    2.840000e+00
 SX3vq  SX3e  1 4.100000e-01    3.310000e+00
 SX3vq  SX2e  1 4.100000e-01    3.550000e+00
 SX3vq  SX1e  1 4.100000e-01    3.550000e+00
 SX2vq  SX1v  1 4.100000e-01    2.840000e+00
 SX2vq  SX2e  1 4.100000e-01    3.550000e+00
 SX2vq  SX1e  1 4.100000e-01    3.550000e+00
 SX1vq  SX1e  1 4.100000e-01    3.820000e+00
 SC6eq  SC5e  1 4.100000e-01    2.600000e+00
 SC6eq  SC4e  1 4.100000e-01    2.600000e+00
 SC6eq  SC3e  1 4.100000e-01    2.350000e+00
 SC6eq  SC2e  1 4.100000e-01    2.200000e+00
 SC6eq  SC1e  1 4.100000e-01    2.040000e+00
 SC6eq  SX4e  1 4.100000e-01    2.600000e+00
 SC6eq  SX3e  1 4.100000e-01    2.600000e+00
 SC6eq  SX2e  1 4.100000e-01    2.600000e+00
 SC6eq  SX1e  1 4.100000e-01    2.600000e+00
 SC5eq  SC4e  1 4.100000e-01    2.600000e+00
 SC5eq  SC3e  1 4.100000e-01    2.350000e+00
 SC5eq  SC2e  1 4.100000e-01    2.200000e+00
 SC5eq  SC1e  1 4.100000e-01    2.200000e+00
 SC5eq  SX4e  1 4.100000e-01    2.350000e+00
 SC5eq  SX3e  1 4.100000e-01    2.350000e+00
 SC5eq  SX2e  1 4.100000e-01    2.350000e+00
 SC5eq  SX1e  1 4.100000e-01    2.600000e+00
 SC4eq  SC3e  1 4.100000e-01    2.600000e+00
 SC4eq  SC2e  1 4.100000e-01    2.350000e+00
 SC4eq  SC1e  1 4.100000e-01    2.200000e+00
 SC4eq  SX4e  1 4.100000e-01    2.350000e+00
 SC4eq  SX3e  1 4.100000e-01    2.350000e+00
 SC4eq  SX2e  1 4.100000e-01    2.350000e+00
 SC4eq  SX1e  1 4.100000e-01    2.600000e+00
 SC3eq  SC2e  1 4.100000e-01    2.600000e+00
 SC3eq  SC1e  1 4.100000e-01    2.600000e+00
 SC3eq  SX4e  1 4.100000e-01    2.350000e+00
 SC3eq  SX3e  1 4.100000e-01    2.350000e+00
 SC3eq  SX2e  1 4.100000e-01    2.350000e+00
 SC3eq  SX1e  1 4.100000e-01    2.600000e+00
 SC2eq  SC1e  1 4.100000e-01    2.840000e+00
 SC2eq  SX4e  1 4.100000e-01    2.040000e+00
 SC2eq  SX3e  1 4.100000e-01    2.350000e+00
 SC2eq  SX2e  1 4.100000e-01    2.350000e+00
 SC2eq  SX1e  1 4.100000e-01    2.350000e+00
 SC1eq  SX4e  1 4.100000e-01    2.040000e+00
 SC1eq  SX3e  1 4.100000e-01    2.350000e+00
 SC1eq  SX2e  1 4.100000e-01    2.350000e+00
 SC1eq  SX1e  1 4.100000e-01    2.350000e+00
 SX4eq  SX3e  1 4.100000e-01    2.600000e+00
 SX4eq  SX2e  1 4.100000e-01    2.600000e+00
 SX4eq  SX1e  1 4.100000e-01    2.600000e+00
 SX3eq  SX2e  1 4.100000e-01    2.840000e+00
 SX3eq  SX1e  1 4.100000e-01    2.840000e+00
 SX2eq  SX1e  1 4.100000e-01    2.840000e+00
 SX2eq  SX1v  1 4.100000e-01    3.550000e+00
 SX3eq  SX2v  1 4.100000e-01    3.550000e+00
 SX3eq  SX1v  1 4.100000e-01    3.550000e+00
 SX4eq  SX3v  1 4.100000e-01    3.310000e+00
 SX4eq  SX2v  1 4.100000e-01    3.310000e+00
 SX4eq  SX1v  1 4.100000e-01    3.310000e+00
 SC1eq  SX4v  1 4.100000e-01    2.600000e+00
 SC1eq  SX3v  1 4.100000e-01    3.070000e+00
 SC1eq  SX2v  1 4.100000e-01    3.070000e+00
 SC1eq  SX1v  1 4.100000e-01    3.070000e+00
 SC2eq  SC1v  1 4.100000e-01    3.550000e+00
 SC2eq  SX4v  1 4.100000e-01    2.600000e+00
 SC2eq  SX3v  1 4.100000e-01    3.070000e+00
 SC2eq  SX2v  1 4.100000e-01    3.070000e+00
 SC2eq  SX1v  1 4.100000e-01    3.070000e+00
 SC3eq  SC2v  1 4.100000e-01    3.310000e+00
 SC3eq  SC1v  1 4.100000e-01    3.310000e+00
 SC3eq  SX4v  1 4.100000e-01    3.070000e+00
 SC3eq  SX3v  1 4.100000e-01    3.070000e+00
 SC3eq  SX2v  1 4.100000e-01    3.070000e+00
 SC3eq  SX1v  1 4.100000e-01    3.310000e+00
 SC4eq  SC3v  1 4.100000e-01    3.310000e+00
 SC4eq  SC2v  1 4.100000e-01    3.070000e+00
 SC4eq  SC1v  1 4.100000e-01    2.840000e+00
 SC4eq  SX4v  1 4.100000e-01    3.070000e+00
 SC4eq  SX3v  1 4.100000e-01    3.070000e+00
 SC4eq  SX2v  1 4.100000e-01    3.070000e+00
 SC4eq  SX1v  1 4.100000e-01    3.310000e+00
 SC5eq  SC4v  1 4.100000e-01    3.310000e+00
 SC5eq  SC3v  1 4.100000e-01    3.070000e+00
 SC5eq  SC2v  1 4.100000e-01    2.840000e+00
 SC5eq  SC1v  1 4.100000e-01    2.840000e+00
 SC5eq  SX4v  1 4.100000e-01    3.070000e+00
 SC5eq  SX3v  1 4.100000e-01    3.070000e+00
 SC5eq  SX2v  1 4.100000e-01    3.070000e+00
 SC5eq  SX1v  1 4.100000e-01    3.310000e+00
 SC6eq  SC5v  1 4.100000e-01    3.310000e+00
 SC6eq  SC4v  1 4.100000e-01    3.310000e+00
 SC6eq  SC3v  1 4.100000e-01    3.070000e+00
 SC6eq  SC2v  1 4.100000e-01    2.840000e+00
 SC6eq  SC1v  1 4.100000e-01    2.600000e+00
 SC6eq  SX4v  1 4.100000e-01    3.310000e+00
 SC6eq  SX3v  1 4.100000e-01    3.310000e+00
 SC6eq  SX2v  1 4.100000e-01    3.310000e+00
 SC6eq  SX1v  1 4.100000e-01    3.310000e+00
 SN2aq  SN1d  1 4.100000e-01    3.070000e+00
 SN3aq  SN2d  1 4.100000e-01    3.310000e+00
 SN3aq  SN1d  1 4.100000e-01    3.070000e+00
 SN4aq  SN3d  1 4.100000e-01    3.310000e+00
 SN4aq  SN2d  1 4.100000e-01    3.310000e+00
 SN4aq  SN1d  1 4.100000e-01    3.070000e+00
 SN5aq  SN4d  1 4.100000e-01    3.550000e+00
 SN5aq  SN3d  1 4.100000e-01    3.310000e+00
 SN5aq  SN2d  1 4.100000e-01    3.310000e+00
 SN5aq  SN1d  1 4.100000e-01    3.070000e+00
 SN6aq  SN5d  1 4.100000e-01    3.820000e+00
 SN6aq  SN4d  1 4.100000e-01    3.820000e+00
 SN6aq  SN3d  1 4.100000e-01    3.310000e+00
 SN6aq  SN2d  1 4.100000e-01    3.070000e+00
 SN6aq  SN1d  1 4.100000e-01    3.070000e+00
 SP1aq  SN6d  1 4.100000e-01    3.820000e+00
 SP1aq  SN5d  1 4.100000e-01    3.550000e+00
 SP1aq  SN4d  1 4.100000e-01    3.550000e+00
 SP1aq  SN3d  1 4.100000e-01    3.070000e+00
 SP1aq  SN2d  1 4.100000e-01    3.070000e+00
 SP1aq  SN1d  1 4.100000e-01    3.070000e+00
 SP2aq  SP1d  1 4.100000e-01    3.820000e+00
 SP2aq  SN6d  1 4.100000e-01    3.820000e+00
 SP2aq  SN5d  1 4.100000e-01    3.550000e+00
 SP2aq  SN4d  1 4.100000e-01    3.310000e+00
 SP2aq  SN3d  1 4.100000e-01    3.070000e+00
 SP2aq  SN2d  1 4.100000e-01    3.070000e+00
 SP2aq  SN1d  1 4.100000e-01    3.070000e+00
 SP3aq  SP2d  1 4.100000e-01    4.040000e+00
 SP3aq  SP1d  1 4.100000e-01    3.820000e+00
 SP3aq  SN6d  1 4.100000e-01    3.550000e+00
 SP3aq  SN5d  1 4.100000e-01    3.310000e+00
 SP3aq  SN4d  1 4.100000e-01    3.310000e+00
 SP3aq  SN3d  1 4.100000e-01    3.070000e+00
 SP3aq  SN2d  1 4.100000e-01    3.070000e+00
 SP3aq  SN1d  1 4.100000e-01    2.600000e+00
 SP4aq  SP3d  1 4.100000e-01    4.040000e+00
 SP4aq  SP2d  1 4.100000e-01    4.040000e+00
 SP4aq  SP1d  1 4.100000e-01    3.820000e+00
 SP4aq  SN6d  1 4.100000e-01    3.550000e+00
 SP4aq  SN5d  1 4.100000e-01    3.310000e+00
 SP4aq  SN4d  1 4.100000e-01    3.310000e+00
 SP4aq  SN3d  1 4.100000e-01    3.070000e+00
 SP4aq  SN2d  1 4.100000e-01    2.600000e+00
 SP4aq  SN1d  1 4.100000e-01    2.350000e+00
 SP5aq  SP4d  1 4.100000e-01    4.290000e+00
 SP5aq  SP3d  1 4.100000e-01    4.040000e+00
 SP5aq  SP2d  1 4.100000e-01    4.040000e+00
 SP5aq  SP1d  1 4.100000e-01    3.820000e+00
 SP5aq  SN6d  1 4.100000e-01    3.550000e+00
 SP5aq  SN5d  1 4.100000e-01    3.310000e+00
 SP5aq  SN4d  1 4.100000e-01    3.310000e+00
 SP5aq  SN3d  1 4.100000e-01    2.600000e+00
 SP5aq  SN2d  1 4.100000e-01    2.350000e+00
 SP5aq  SN1d  1 4.100000e-01    2.200000e+00
 SP6aq  SP5d  1 4.100000e-01    4.840000e+00
 SP6aq  SP4d  1 4.100000e-01    4.550000e+00
 SP6aq  SP3d  1 4.100000e-01    4.290000e+00
 SP6aq  SP2d  1 4.100000e-01    4.290000e+00
 SP6aq  SP1d  1 4.100000e-01    4.040000e+00
 SP6aq  SN6d  1 4.100000e-01    3.820000e+00
 SP6aq  SN5d  1 4.100000e-01    3.310000e+00
 SP6aq  SN4d  1 4.100000e-01    3.070000e+00
 SP6aq  SN3d  1 4.100000e-01    2.600000e+00
 SP6aq  SN2d  1 4.100000e-01    2.350000e+00
 SP6aq  SN1d  1 4.100000e-01    2.200000e+00
 SP6dq  SP5q  1 4.100000e-01    4.550000e+00
 SP6dq  SP4q  1 4.100000e-01    4.290000e+00
 SP6dq  SP3q  1 4.100000e-01    4.040000e+00
 SP6dq  SP2q  1 4.100000e-01    4.040000e+00
 SP6dq  SP1q  1 4.100000e-01    3.820000e+00
 SP6dq  SN6q  1 4.100000e-01    3.550000e+00
 SP6dq  SN5q  1 4.100000e-01    3.070000e+00
 SP6dq  SN4q  1 4.100000e-01    2.840000e+00
 SP6dq  SN3q  1 4.100000e-01    2.600000e+00
 SP6dq  SN2q  1 4.100000e-01    2.350000e+00
 SP6dq  SN1q  1 4.100000e-01    2.200000e+00
 SP6dq  SC6q  1 4.100000e-01    2.200000e+00
 SP6dq  SC5q  1 4.100000e-01    2.040000e+00
 SP6dq  SC4q  1 4.100000e-01    1.910000e+00
 SP6dq  SC3q  1 4.100000e-01    1.750000e+00
 SP6dq  SC2q  1 4.100000e-01    1.750000e+00
 SP6dq  SC1q  1 4.180000e-01    1.400000e+00
 SP6dq  SX4q  1 4.100000e-01    2.350000e+00
 SP6dq  SX3q  1 4.100000e-01    2.350000e+00
 SP6dq  SX2q  1 4.100000e-01    2.200000e+00
 SP6dq  SX1q  1 4.100000e-01    2.040000e+00
 SP5dq  SP4q  1 4.100000e-01    4.040000e+00
 SP5dq  SP3q  1 4.100000e-01    3.820000e+00
 SP5dq  SP2q  1 4.100000e-01    3.820000e+00
 SP5dq  SP1q  1 4.100000e-01    3.550000e+00
 SP5dq  SN6q  1 4.100000e-01    3.310000e+00
 SP5dq  SN5q  1 4.100000e-01    3.070000e+00
 SP5dq  SN4q  1 4.100000e-01    3.070000e+00
 SP5dq  SN3q  1 4.100000e-01    2.600000e+00
 SP5dq  SN2q  1 4.100000e-01    2.350000e+00
 SP5dq  SN1q  1 4.100000e-01    2.200000e+00
 SP5dq  SC6q  1 4.100000e-01    2.200000e+00
 SP5dq  SC5q  1 4.100000e-01    2.200000e+00
 SP5dq  SC4q  1 4.100000e-01    2.040000e+00
 SP5dq  SC3q  1 4.100000e-01    1.910000e+00
 SP5dq  SC2q  1 4.100000e-01    1.910000e+00
 SP5dq  SC1q  1 4.100000e-01    1.750000e+00
 SP5dq  SX4q  1 4.100000e-01    2.600000e+00
 SP5dq  SX3q  1 4.100000e-01    2.350000e+00
 SP5dq  SX2q  1 4.100000e-01    2.350000e+00
 SP5dq  SX1q  1 4.100000e-01    2.040000e+00
 SP4dq  SP3q  1 4.100000e-01    3.820000e+00
 SP4dq  SP2q  1 4.100000e-01    3.820000e+00
 SP4dq  SP1q  1 4.100000e-01    3.550000e+00
 SP4dq  SN6q  1 4.100000e-01    3.310000e+00
 SP4dq  SN5q  1 4.100000e-01    3.070000e+00
 SP4dq  SN4q  1 4.100000e-01    3.070000e+00
 SP4dq  SN3q  1 4.100000e-01    2.840000e+00
 SP4dq  SN2q  1 4.100000e-01    2.600000e+00
 SP4dq  SN1q  1 4.100000e-01    2.350000e+00
 SP4dq  SC6q  1 4.100000e-01    2.350000e+00
 SP4dq  SC5q  1 4.100000e-01    2.200000e+00
 SP4dq  SC4q  1 4.100000e-01    2.040000e+00
 SP4dq  SC3q  1 4.100000e-01    1.910000e+00
 SP4dq  SC2q  1 4.100000e-01    1.910000e+00
 SP4dq  SC1q  1 4.100000e-01    1.750000e+00
 SP4dq  SX4q  1 4.100000e-01    2.600000e+00
 SP4dq  SX3q  1 4.100000e-01    2.350000e+00
 SP4dq  SX2q  1 4.100000e-01    2.350000e+00
 SP4dq  SX1q  1 4.100000e-01    2.200000e+00
 SP3dq  SP2q  1 4.100000e-01    3.820000e+00
 SP3dq  SP1q  1 4.100000e-01    3.550000e+00
 SP3dq  SN6q  1 4.100000e-01    3.310000e+00
 SP3dq  SN5q  1 4.100000e-01    3.070000e+00
 SP3dq  SN4q  1 4.100000e-01    3.070000e+00
 SP3dq  SN3q  1 4.100000e-01    2.840000e+00
 SP3dq  SN2q  1 4.100000e-01    2.840000e+00
 SP3dq  SN1q  1 4.100000e-01    2.600000e+00
 SP3dq  SC6q  1 4.100000e-01    2.600000e+00
 SP3dq  SC5q  1 4.100000e-01    2.350000e+00
 SP3dq  SC4q  1 4.100000e-01    2.200000e+00
 SP3dq  SC3q  1 4.100000e-01    1.910000e+00
 SP3dq  SC2q  1 4.100000e-01    1.910000e+00
 SP3dq  SC1q  1 4.100000e-01    1.750000e+00
 SP3dq  SX4q  1 4.100000e-01    2.600000e+00
 SP3dq  SX3q  1 4.100000e-01    2.600000e+00
 SP3dq  SX2q  1 4.100000e-01    2.350000e+00
 SP3dq  SX1q  1 4.100000e-01    2.200000e+00
 SP2dq  SP1q  1 4.100000e-01    3.550000e+00
 SP2dq  SN6q  1 4.100000e-01    3.550000e+00
 SP2dq  SN5q  1 4.100000e-01    3.310000e+00
 SP2dq  SN4q  1 4.100000e-01    3.070000e+00
 SP2dq  SN3q  1 4.100000e-01    2.840000e+00
 SP2dq  SN2q  1 4.100000e-01    2.840000e+00
 SP2dq  SN1q  1 4.100000e-01    2.840000e+00
 SP2dq  SC6q  1 4.100000e-01    2.600000e+00
 SP2dq  SC5q  1 4.100000e-01    2.350000e+00
 SP2dq  SC4q  1 4.100000e-01    2.200000e+00
 SP2dq  SC3q  1 4.100000e-01    2.040000e+00
 SP2dq  SC2q  1 4.100000e-01    2.040000e+00
 SP2dq  SC1q  1 4.100000e-01    1.910000e+00
 SP2dq  SX4q  1 4.100000e-01    2.600000e+00
 SP2dq  SX3q  1 4.100000e-01    2.600000e+00
 SP2dq  SX2q  1 4.100000e-01    2.350000e+00
 SP2dq  SX1q  1 4.100000e-01    2.200000e+00
 SP1dq  SN6q  1 4.100000e-01    3.550000e+00
 SP1dq  SN5q  1 4.100000e-01    3.310000e+00
 SP1dq  SN4q  1 4.100000e-01    3.310000e+00
 SP1dq  SN3q  1 4.100000e-01    2.840000e+00
 SP1dq  SN2q  1 4.100000e-01    2.840000e+00
 SP1dq  SN1q  1 4.100000e-01    2.840000e+00
 SP1dq  SC6q  1 4.100000e-01    2.600000e+00
 SP1dq  SC5q  1 4.100000e-01    2.350000e+00
 SP1dq  SC4q  1 4.100000e-01    2.200000e+00
 SP1dq  SC3q  1 4.100000e-01    2.040000e+00
 SP1dq  SC2q  1 4.100000e-01    2.040000e+00
 SP1dq  SC1q  1 4.100000e-01    1.910000e+00
 SP1dq  SX4q  1 4.100000e-01    2.600000e+00
 SP1dq  SX3q  1 4.100000e-01    2.600000e+00
 SP1dq  SX2q  1 4.100000e-01    2.350000e+00
 SP1dq  SX1q  1 4.100000e-01    2.200000e+00
 SN6dq  SN5q  1 4.100000e-01    3.550000e+00
 SN6dq  SN4q  1 4.100000e-01    3.550000e+00
 SN6dq  SN3q  1 4.100000e-01    3.070000e+00
 SN6dq  SN2q  1 4.100000e-01    2.840000e+00
 SN6dq  SN1q  1 4.100000e-01    2.840000e+00
 SN6dq  SC6q  1 4.100000e-01    2.840000e+00
 SN6dq  SC5q  1 4.100000e-01    2.600000e+00
 SN6dq  SC4q  1 4.100000e-01    2.350000e+00
 SN6dq  SC3q  1 4.100000e-01    2.200000e+00
 SN6dq  SC2q  1 4.100000e-01    2.200000e+00
 SN6dq  SC1q  1 4.100000e-01    2.040000e+00
 SN6dq  SX4q  1 4.100000e-01    2.840000e+00
 SN6dq  SX3q  1 4.100000e-01    2.600000e+00
 SN6dq  SX2q  1 4.100000e-01    2.350000e+00
 SN6dq  SX1q  1 4.100000e-01    2.200000e+00
 SN5dq  SN4q  1 4.100000e-01    3.310000e+00
 SN5dq  SN3q  1 4.100000e-01    3.070000e+00
 SN5dq  SN2q  1 4.100000e-01    3.070000e+00
 SN5dq  SN1q  1 4.100000e-01    2.840000e+00
 SN5dq  SC6q  1 4.100000e-01    2.840000e+00
 SN5dq  SC5q  1 4.100000e-01    2.600000e+00
 SN5dq  SC4q  1 4.100000e-01    2.350000e+00
 SN5dq  SC3q  1 4.100000e-01    2.350000e+00
 SN5dq  SC2q  1 4.100000e-01    2.200000e+00
 SN5dq  SC1q  1 4.100000e-01    2.040000e+00
 SN5dq  SX4q  1 4.100000e-01    3.070000e+00
 SN5dq  SX3q  1 4.100000e-01    2.840000e+00
 SN5dq  SX2q  1 4.100000e-01    2.600000e+00
 SN5dq  SX1q  1 4.100000e-01    2.350000e+00
 SN4dq  SN3q  1 4.100000e-01    3.070000e+00
 SN4dq  SN2q  1 4.100000e-01    3.070000e+00
 SN4dq  SN1q  1 4.100000e-01    2.840000e+00
 SN4dq  SC6q  1 4.100000e-01    2.840000e+00
 SN4dq  SC5q  1 4.100000e-01    2.600000e+00
 SN4dq  SC4q  1 4.100000e-01    2.600000e+00
 SN4dq  SC3q  1 4.100000e-01    2.350000e+00
 SN4dq  SC2q  1 4.100000e-01    2.200000e+00
 SN4dq  SC1q  1 4.100000e-01    2.040000e+00
 SN4dq  SX4q  1 4.100000e-01    3.310000e+00
 SN4dq  SX3q  1 4.100000e-01    3.070000e+00
 SN4dq  SX2q  1 4.100000e-01    2.600000e+00
 SN4dq  SX1q  1 4.100000e-01    2.350000e+00
 SN3dq  SN2q  1 4.100000e-01    3.070000e+00
 SN3dq  SN1q  1 4.100000e-01    2.840000e+00
 SN3dq  SC6q  1 4.100000e-01    2.840000e+00
 SN3dq  SC5q  1 4.100000e-01    2.600000e+00
 SN3dq  SC4q  1 4.100000e-01    2.600000e+00
 SN3dq  SC3q  1 4.100000e-01    2.350000e+00
 SN3dq  SC2q  1 4.100000e-01    2.350000e+00
 SN3dq  SC1q  1 4.100000e-01    2.200000e+00
 SN3dq  SX4q  1 4.100000e-01    3.070000e+00
 SN3dq  SX3q  1 4.100000e-01    2.840000e+00
 SN3dq  SX2q  1 4.100000e-01    2.600000e+00
 SN3dq  SX1q  1 4.100000e-01    2.600000e+00
 SN2dq  SN1q  1 4.100000e-01    2.840000e+00
 SN2dq  SC6q  1 4.100000e-01    2.840000e+00
 SN2dq  SC5q  1 4.100000e-01    2.600000e+00
 SN2dq  SC4q  1 4.100000e-01    2.600000e+00
 SN2dq  SC3q  1 4.100000e-01    2.600000e+00
 SN2dq  SC2q  1 4.100000e-01    2.350000e+00
 SN2dq  SC1q  1 4.100000e-01    2.200000e+00
 SN2dq  SX4q  1 4.100000e-01    3.070000e+00
 SN2dq  SX3q  1 4.100000e-01    2.840000e+00
 SN2dq  SX2q  1 4.100000e-01    2.600000e+00
 SN2dq  SX1q  1 4.100000e-01    2.600000e+00
 SN1dq  SC6q  1 4.100000e-01    3.070000e+00
 SN1dq  SC5q  1 4.100000e-01    2.840000e+00
 SN1dq  SC4q  1 4.100000e-01    2.840000e+00
 SN1dq  SC3q  1 4.100000e-01    2.600000e+00
 SN1dq  SC2q  1 4.100000e-01    2.350000e+00
 SN1dq  SC1q  1 4.100000e-01    2.200000e+00
 SN1dq  SX4q  1 4.100000e-01    2.840000e+00
 SN1dq  SX3q  1 4.100000e-01    2.840000e+00
 SN1dq  SX2q  1 4.100000e-01    2.600000e+00
 SN1dq  SX1q  1 4.100000e-01    2.600000e+00
 SP6aq  SP5q  1 4.100000e-01    4.550000e+00
 SP6aq  SP4q  1 4.100000e-01    4.290000e+00
 SP6aq  SP3q  1 4.100000e-01    4.040000e+00
 SP6aq  SP2q  1 4.100000e-01    4.040000e+00
 SP6aq  SP1q  1 4.100000e-01    3.820000e+00
 SP6aq  SN6q  1 4.100000e-01    3.550000e+00
 SP6aq  SN5q  1 4.100000e-01    3.070000e+00
 SP6aq  SN4q  1 4.100000e-01    2.840000e+00
 SP6aq  SN3q  1 4.100000e-01    2.600000e+00
 SP6aq  SN2q  1 4.100000e-01    2.350000e+00
 SP6aq  SN1q  1 4.100000e-01    2.200000e+00
 SP6aq  SC6q  1 4.100000e-01    2.200000e+00
 SP6aq  SC5q  1 4.100000e-01    2.040000e+00
 SP6aq  SC4q  1 4.100000e-01    1.910000e+00
 SP6aq  SC3q  1 4.100000e-01    1.750000e+00
 SP6aq  SC2q  1 4.100000e-01    1.750000e+00
 SP6aq  SC1q  1 4.180000e-01    1.400000e+00
 SP6aq  SX4q  1 4.100000e-01    2.350000e+00
 SP6aq  SX3q  1 4.100000e-01    2.350000e+00
 SP6aq  SX2q  1 4.100000e-01    2.200000e+00
 SP6aq  SX1q  1 4.100000e-01    2.040000e+00
 SP5aq  SP4q  1 4.100000e-01    4.040000e+00
 SP5aq  SP3q  1 4.100000e-01    3.820000e+00
 SP5aq  SP2q  1 4.100000e-01    3.820000e+00
 SP5aq  SP1q  1 4.100000e-01    3.550000e+00
 SP5aq  SN6q  1 4.100000e-01    3.310000e+00
 SP5aq  SN5q  1 4.100000e-01    3.070000e+00
 SP5aq  SN4q  1 4.100000e-01    3.070000e+00
 SP5aq  SN3q  1 4.100000e-01    2.600000e+00
 SP5aq  SN2q  1 4.100000e-01    2.350000e+00
 SP5aq  SN1q  1 4.100000e-01    2.200000e+00
 SP5aq  SC6q  1 4.100000e-01    2.200000e+00
 SP5aq  SC5q  1 4.100000e-01    2.200000e+00
 SP5aq  SC4q  1 4.100000e-01    2.040000e+00
 SP5aq  SC3q  1 4.100000e-01    1.910000e+00
 SP5aq  SC2q  1 4.100000e-01    1.910000e+00
 SP5aq  SC1q  1 4.100000e-01    1.750000e+00
 SP5aq  SX4q  1 4.100000e-01    2.600000e+00
 SP5aq  SX3q  1 4.100000e-01    2.350000e+00
 SP5aq  SX2q  1 4.100000e-01    2.350000e+00
 SP5aq  SX1q  1 4.100000e-01    2.040000e+00
 SP4aq  SP3q  1 4.100000e-01    3.820000e+00
 SP4aq  SP2q  1 4.100000e-01    3.820000e+00
 SP4aq  SP1q  1 4.100000e-01    3.550000e+00
 SP4aq  SN6q  1 4.100000e-01    3.310000e+00
 SP4aq  SN5q  1 4.100000e-01    3.070000e+00
 SP4aq  SN4q  1 4.100000e-01    3.070000e+00
 SP4aq  SN3q  1 4.100000e-01    2.840000e+00
 SP4aq  SN2q  1 4.100000e-01    2.600000e+00
 SP4aq  SN1q  1 4.100000e-01    2.350000e+00
 SP4aq  SC6q  1 4.100000e-01    2.350000e+00
 SP4aq  SC5q  1 4.100000e-01    2.200000e+00
 SP4aq  SC4q  1 4.100000e-01    2.040000e+00
 SP4aq  SC3q  1 4.100000e-01    1.910000e+00
 SP4aq  SC2q  1 4.100000e-01    1.910000e+00
 SP4aq  SC1q  1 4.100000e-01    1.750000e+00
 SP4aq  SX4q  1 4.100000e-01    2.600000e+00
 SP4aq  SX3q  1 4.100000e-01    2.350000e+00
 SP4aq  SX2q  1 4.100000e-01    2.350000e+00
 SP4aq  SX1q  1 4.100000e-01    2.200000e+00
 SP3aq  SP2q  1 4.100000e-01    3.820000e+00
 SP3aq  SP1q  1 4.100000e-01    3.550000e+00
 SP3aq  SN6q  1 4.100000e-01    3.310000e+00
 SP3aq  SN5q  1 4.100000e-01    3.070000e+00
 SP3aq  SN4q  1 4.100000e-01    3.070000e+00
 SP3aq  SN3q  1 4.100000e-01    2.840000e+00
 SP3aq  SN2q  1 4.100000e-01    2.840000e+00
 SP3aq  SN1q  1 4.100000e-01    2.600000e+00
 SP3aq  SC6q  1 4.100000e-01    2.600000e+00
 SP3aq  SC5q  1 4.100000e-01    2.350000e+00
 SP3aq  SC4q  1 4.100000e-01    2.200000e+00
 SP3aq  SC3q  1 4.100000e-01    1.910000e+00
 SP3aq  SC2q  1 4.100000e-01    1.910000e+00
 SP3aq  SC1q  1 4.100000e-01    1.750000e+00
 SP3aq  SX4q  1 4.100000e-01    2.600000e+00
 SP3aq  SX3q  1 4.100000e-01    2.600000e+00
 SP3aq  SX2q  1 4.100000e-01    2.350000e+00
 SP3aq  SX1q  1 4.100000e-01    2.200000e+00
 SP2aq  SP1q  1 4.100000e-01    3.550000e+00
 SP2aq  SN6q  1 4.100000e-01    3.550000e+00
 SP2aq  SN5q  1 4.100000e-01    3.310000e+00
 SP2aq  SN4q  1 4.100000e-01    3.070000e+00
 SP2aq  SN3q  1 4.100000e-01    2.840000e+00
 SP2aq  SN2q  1 4.100000e-01    2.840000e+00
 SP2aq  SN1q  1 4.100000e-01    2.840000e+00
 SP2aq  SC6q  1 4.100000e-01    2.600000e+00
 SP2aq  SC5q  1 4.100000e-01    2.350000e+00
 SP2aq  SC4q  1 4.100000e-01    2.200000e+00
 SP2aq  SC3q  1 4.100000e-01    2.040000e+00
 SP2aq  SC2q  1 4.100000e-01    2.040000e+00
 SP2aq  SC1q  1 4.100000e-01    1.910000e+00
 SP2aq  SX4q  1 4.100000e-01    2.600000e+00
 SP2aq  SX3q  1 4.100000e-01    2.600000e+00
 SP2aq  SX2q  1 4.100000e-01    2.350000e+00
 SP2aq  SX1q  1 4.100000e-01    2.200000e+00
 SP1aq  SN6q  1 4.100000e-01    3.550000e+00
 SP1aq  SN5q  1 4.100000e-01    3.310000e+00
 SP1aq  SN4q  1 4.100000e-01    3.310000e+00
 SP1aq  SN3q  1 4.100000e-01    2.840000e+00
 SP1aq  SN2q  1 4.100000e-01    2.840000e+00
 SP1aq  SN1q  1 4.100000e-01    2.840000e+00
 SP1aq  SC6q  1 4.100000e-01    2.600000e+00
 SP1aq  SC5q  1 4.100000e-01    2.350000e+00
 SP1aq  SC4q  1 4.100000e-01    2.200000e+00
 SP1aq  SC3q  1 4.100000e-01    2.040000e+00
 SP1aq  SC2q  1 4.100000e-01    2.040000e+00
 SP1aq  SC1q  1 4.100000e-01    1.910000e+00
 SP1aq  SX4q  1 4.100000e-01    2.600000e+00
 SP1aq  SX3q  1 4.100000e-01    2.600000e+00
 SP1aq  SX2q  1 4.100000e-01    2.350000e+00
 SP1aq  SX1q  1 4.100000e-01    2.200000e+00
 SN6aq  SN5q  1 4.100000e-01    3.550000e+00
 SN6aq  SN4q  1 4.100000e-01    3.550000e+00
 SN6aq  SN3q  1 4.100000e-01    3.070000e+00
 SN6aq  SN2q  1 4.100000e-01    2.840000e+00
 SN6aq  SN1q  1 4.100000e-01    2.840000e+00
 SN6aq  SC6q  1 4.100000e-01    2.840000e+00
 SN6aq  SC5q  1 4.100000e-01    2.600000e+00
 SN6aq  SC4q  1 4.100000e-01    2.350000e+00
 SN6aq  SC3q  1 4.100000e-01    2.200000e+00
 SN6aq  SC2q  1 4.100000e-01    2.200000e+00
 SN6aq  SC1q  1 4.100000e-01    2.040000e+00
 SN6aq  SX4q  1 4.100000e-01    2.840000e+00
 SN6aq  SX3q  1 4.100000e-01    2.600000e+00
 SN6aq  SX2q  1 4.100000e-01    2.350000e+00
 SN6aq  SX1q  1 4.100000e-01    2.200000e+00
 SN5aq  SN4q  1 4.100000e-01    3.310000e+00
 SN5aq  SN3q  1 4.100000e-01    3.070000e+00
 SN5aq  SN2q  1 4.100000e-01    3.070000e+00
 SN5aq  SN1q  1 4.100000e-01    2.840000e+00
 SN5aq  SC6q  1 4.100000e-01    2.840000e+00
 SN5aq  SC5q  1 4.100000e-01    2.600000e+00
 SN5aq  SC4q  1 4.100000e-01    2.350000e+00
 SN5aq  SC3q  1 4.100000e-01    2.350000e+00
 SN5aq  SC2q  1 4.100000e-01    2.200000e+00
 SN5aq  SC1q  1 4.100000e-01    2.040000e+00
 SN5aq  SX4q  1 4.100000e-01    3.070000e+00
 SN5aq  SX3q  1 4.100000e-01    2.840000e+00
 SN5aq  SX2q  1 4.100000e-01    2.600000e+00
 SN5aq  SX1q  1 4.100000e-01    2.350000e+00
 SN4aq  SN3q  1 4.100000e-01    3.070000e+00
 SN4aq  SN2q  1 4.100000e-01    3.070000e+00
 SN4aq  SN1q  1 4.100000e-01    2.840000e+00
 SN4aq  SC6q  1 4.100000e-01    2.840000e+00
 SN4aq  SC5q  1 4.100000e-01    2.600000e+00
 SN4aq  SC4q  1 4.100000e-01    2.600000e+00
 SN4aq  SC3q  1 4.100000e-01    2.350000e+00
 SN4aq  SC2q  1 4.100000e-01    2.200000e+00
 SN4aq  SC1q  1 4.100000e-01    2.040000e+00
 SN4aq  SX4q  1 4.100000e-01    3.310000e+00
 SN4aq  SX3q  1 4.100000e-01    3.070000e+00
 SN4aq  SX2q  1 4.100000e-01    2.600000e+00
 SN4aq  SX1q  1 4.100000e-01    2.350000e+00
 SN3aq  SN2q  1 4.100000e-01    3.070000e+00
 SN3aq  SN1q  1 4.100000e-01    2.840000e+00
 SN3aq  SC6q  1 4.100000e-01    2.840000e+00
 SN3aq  SC5q  1 4.100000e-01    2.600000e+00
 SN3aq  SC4q  1 4.100000e-01    2.600000e+00
 SN3aq  SC3q  1 4.100000e-01    2.350000e+00
 SN3aq  SC2q  1 4.100000e-01    2.350000e+00
 SN3aq  SC1q  1 4.100000e-01    2.200000e+00
 SN3aq  SX4q  1 4.100000e-01    3.070000e+00
 SN3aq  SX3q  1 4.100000e-01    2.840000e+00
 SN3aq  SX2q  1 4.100000e-01    2.600000e+00
 SN3aq  SX1q  1 4.100000e-01    2.600000e+00
 SN2aq  SN1q  1 4.100000e-01    2.840000e+00
 SN2aq  SC6q  1 4.100000e-01    2.840000e+00
 SN2aq  SC5q  1 4.100000e-01    2.600000e+00
 SN2aq  SC4q  1 4.100000e-01    2.600000e+00
 SN2aq  SC3q  1 4.100000e-01    2.600000e+00
 SN2aq  SC2q  1 4.100000e-01    2.350000e+00
 SN2aq  SC1q  1 4.100000e-01    2.200000e+00
 SN2aq  SX4q  1 4.100000e-01    3.070000e+00
 SN2aq  SX3q  1 4.100000e-01    2.840000e+00
 SN2aq  SX2q  1 4.100000e-01    2.600000e+00
 SN2aq  SX1q  1 4.100000e-01    2.600000e+00
 SN1aq  SC6q  1 4.100000e-01    3.070000e+00
 SN1aq  SC5q  1 4.100000e-01    2.840000e+00
 SN1aq  SC4q  1 4.100000e-01    2.840000e+00
 SN1aq  SC3q  1 4.100000e-01    2.600000e+00
 SN1aq  SC2q  1 4.100000e-01    2.350000e+00
 SN1aq  SC1q  1 4.100000e-01    2.200000e+00
 SN1aq  SX4q  1 4.100000e-01    2.840000e+00
 SN1aq  SX3q  1 4.100000e-01    2.840000e+00
 SN1aq  SX2q  1 4.100000e-01    2.600000e+00
 SN1aq  SX1q  1 4.100000e-01    2.600000e+00
 SC6vq  SC5q  1 4.100000e-01    3.070000e+00
 SC6vq  SC4q  1 4.100000e-01    3.070000e+00
 SC6vq  SC3q  1 4.100000e-01    2.840000e+00
 SC6vq  SC2q  1 4.100000e-01    2.600000e+00
 SC6vq  SC1q  1 4.100000e-01    2.350000e+00
 SC6vq  SX4q  1 4.100000e-01    3.070000e+00
 SC6vq  SX3q  1 4.100000e-01    3.070000e+00
 SC6vq  SX2q  1 4.100000e-01    3.070000e+00
 SC6vq  SX1q  1 4.100000e-01    3.070000e+00
 SC5vq  SC4q  1 4.100000e-01    3.070000e+00
 SC5vq  SC3q  1 4.100000e-01    2.840000e+00
 SC5vq  SC2q  1 4.100000e-01    2.600000e+00
 SC5vq  SC1q  1 4.100000e-01    2.600000e+00
 SC5vq  SX4q  1 4.100000e-01    2.840000e+00
 SC5vq  SX3q  1 4.100000e-01    2.840000e+00
 SC5vq  SX2q  1 4.100000e-01    2.840000e+00
 SC5vq  SX1q  1 4.100000e-01    3.070000e+00
 SC4vq  SC3q  1 4.100000e-01    3.070000e+00
 SC4vq  SC2q  1 4.100000e-01    2.840000e+00
 SC4vq  SC1q  1 4.100000e-01    2.600000e+00
 SC4vq  SX4q  1 4.100000e-01    2.840000e+00
 SC4vq  SX3q  1 4.100000e-01    2.840000e+00
 SC4vq  SX2q  1 4.100000e-01    2.840000e+00
 SC4vq  SX1q  1 4.100000e-01    3.070000e+00
 SC3vq  SC2q  1 4.100000e-01    3.070000e+00
 SC3vq  SC1q  1 4.100000e-01    3.070000e+00
 SC3vq  SX4q  1 4.100000e-01    2.840000e+00
 SC3vq  SX3q  1 4.100000e-01    2.840000e+00
 SC3vq  SX2q  1 4.100000e-01    2.840000e+00
 SC3vq  SX1q  1 4.100000e-01    3.070000e+00
 SC2vq  SC1q  1 4.100000e-01    3.310000e+00
 SC2vq  SX4q  1 4.100000e-01    2.350000e+00
 SC2vq  SX3q  1 4.100000e-01    2.840000e+00
 SC2vq  SX2q  1 4.100000e-01    2.840000e+00
 SC2vq  SX1q  1 4.100000e-01    2.840000e+00
 SC1vq  SX4q  1 4.100000e-01    2.350000e+00
 SC1vq  SX3q  1 4.100000e-01    2.840000e+00
 SC1vq  SX2q  1 4.100000e-01    2.840000e+00
 SC1vq  SX1q  1 4.100000e-01    2.840000e+00
 SX4vq  SX3q  1 4.100000e-01    3.070000e+00
 SX4vq  SX2q  1 4.100000e-01    3.070000e+00
 SX4vq  SX1q  1 4.100000e-01    3.070000e+00
 SX3vq  SX2q  1 4.100000e-01    3.310000e+00
 SX3vq  SX1q  1 4.100000e-01    3.310000e+00
 SX2vq  SX1q  1 4.100000e-01    3.310000e+00
 SC6eq  SC5q  1 4.100000e-01    3.070000e+00
 SC6eq  SC4q  1 4.100000e-01    3.070000e+00
 SC6eq  SC3q  1 4.100000e-01    2.840000e+00
 SC6eq  SC2q  1 4.100000e-01    2.600000e+00
 SC6eq  SC1q  1 4.100000e-01    2.350000e+00
 SC6eq  SX4q  1 4.100000e-01    3.070000e+00
 SC6eq  SX3q  1 4.100000e-01    3.070000e+00
 SC6eq  SX2q  1 4.100000e-01    3.070000e+00
 SC6eq  SX1q  1 4.100000e-01    3.070000e+00
 SC5eq  SC4q  1 4.100000e-01    3.070000e+00
 SC5eq  SC3q  1 4.100000e-01    2.840000e+00
 SC5eq  SC2q  1 4.100000e-01    2.600000e+00
 SC5eq  SC1q  1 4.100000e-01    2.600000e+00
 SC5eq  SX4q  1 4.100000e-01    2.840000e+00
 SC5eq  SX3q  1 4.100000e-01    2.840000e+00
 SC5eq  SX2q  1 4.100000e-01    2.840000e+00
 SC5eq  SX1q  1 4.100000e-01    3.070000e+00
 SC4eq  SC3q  1 4.100000e-01    3.070000e+00
 SC4eq  SC2q  1 4.100000e-01    2.840000e+00
 SC4eq  SC1q  1 4.100000e-01    2.600000e+00
 SC4eq  SX4q  1 4.100000e-01    2.840000e+00
 SC4eq  SX3q  1 4.100000e-01    2.840000e+00
 SC4eq  SX2q  1 4.100000e-01    2.840000e+00
 SC4eq  SX1q  1 4.100000e-01    3.070000e+00
 SC3eq  SC2q  1 4.100000e-01    3.070000e+00
 SC3eq  SC1q  1 4.100000e-01    3.070000e+00
 SC3eq  SX4q  1 4.100000e-01    2.840000e+00
 SC3eq  SX3q  1 4.100000e-01    2.840000e+00
 SC3eq  SX2q  1 4.100000e-01    2.840000e+00
 SC3eq  SX1q  1 4.100000e-01    3.070000e+00
 SC2eq  SC1q  1 4.100000e-01    3.310000e+00
 SC2eq  SX4q  1 4.100000e-01    2.350000e+00
 SC2eq  SX3q  1 4.100000e-01    2.840000e+00
 SC2eq  SX2q  1 4.100000e-01    2.840000e+00
 SC2eq  SX1q  1 4.100000e-01    2.840000e+00
 SC1eq  SX4q  1 4.100000e-01    2.350000e+00
 SC1eq  SX3q  1 4.100000e-01    2.840000e+00
 SC1eq  SX2q  1 4.100000e-01    2.840000e+00
 SC1eq  SX1q  1 4.100000e-01    2.840000e+00
 SX4eq  SX3q  1 4.100000e-01    3.070000e+00
 SX4eq  SX2q  1 4.100000e-01    3.070000e+00
 SX4eq  SX1q  1 4.100000e-01    3.070000e+00
 SX3eq  SX2q  1 4.100000e-01    3.310000e+00
 SX3eq  SX1q  1 4.100000e-01    3.310000e+00
 SX2eq  SX1q  1 4.100000e-01    3.310000e+00
 SP6aq  SP5h  1 4.100000e-01    4.550000e+00
 SP6dq  SP5h  1 4.100000e-01    4.550000e+00
 SP5aq  SP4h  1 4.100000e-01    4.040000e+00
 SP6aq  SP4h  1 4.100000e-01    4.290000e+00
 SP5dq  SP4h  1 4.100000e-01    4.040000e+00
 SP6dq  SP4h  1 4.100000e-01    4.290000e+00
 SP4aq  SP3h  1 4.100000e-01    3.820000e+00
 SP5aq  SP3h  1 4.100000e-01    3.820000e+00
 SP6aq  SP3h  1 4.100000e-01    4.040000e+00
 SP4dq  SP3h  1 4.100000e-01    3.820000e+00
 SP5dq  SP3h  1 4.100000e-01    3.820000e+00
 SP6dq  SP3h  1 4.100000e-01    4.040000e+00
 SP3aq  SP2h  1 4.100000e-01    3.820000e+00
 SP4aq  SP2h  1 4.100000e-01    3.820000e+00
 SP5aq  SP2h  1 4.100000e-01    3.820000e+00
 SP6aq  SP2h  1 4.100000e-01    4.040000e+00
 SP3dq  SP2h  1 4.100000e-01    3.820000e+00
 SP4dq  SP2h  1 4.100000e-01    3.820000e+00
 SP5dq  SP2h  1 4.100000e-01    3.820000e+00
 SP6dq  SP2h  1 4.100000e-01    4.040000e+00
 SP2aq  SP1h  1 4.100000e-01    3.550000e+00
 SP3aq  SP1h  1 4.100000e-01    3.550000e+00
 SP4aq  SP1h  1 4.100000e-01    3.550000e+00
 SP5aq  SP1h  1 4.100000e-01    3.550000e+00
 SP6aq  SP1h  1 4.100000e-01    3.820000e+00
 SP2dq  SP1h  1 4.100000e-01    3.550000e+00
 SP3dq  SP1h  1 4.100000e-01    3.550000e+00
 SP4dq  SP1h  1 4.100000e-01    3.550000e+00
 SP5dq  SP1h  1 4.100000e-01    3.550000e+00
 SP6dq  SP1h  1 4.100000e-01    3.820000e+00
 SP1aq  SN6h  1 4.100000e-01    3.550000e+00
 SP2aq  SN6h  1 4.100000e-01    3.550000e+00
 SP3aq  SN6h  1 4.100000e-01    3.310000e+00
 SP4aq  SN6h  1 4.100000e-01    3.310000e+00
 SP5aq  SN6h  1 4.100000e-01    3.310000e+00
 SP6aq  SN6h  1 4.100000e-01    3.550000e+00
 SP1dq  SN6h  1 4.100000e-01    3.550000e+00
 SP2dq  SN6h  1 4.100000e-01    3.550000e+00
 SP3dq  SN6h  1 4.100000e-01    3.310000e+00
 SP4dq  SN6h  1 4.100000e-01    3.310000e+00
 SP5dq  SN6h  1 4.100000e-01    3.310000e+00
 SP6dq  SN6h  1 4.100000e-01    3.550000e+00
 SN6aq  SN5h  1 4.100000e-01    3.550000e+00
 SP1aq  SN5h  1 4.100000e-01    3.310000e+00
 SP2aq  SN5h  1 4.100000e-01    3.310000e+00
 SP3aq  SN5h  1 4.100000e-01    3.070000e+00
 SP4aq  SN5h  1 4.100000e-01    3.070000e+00
 SP5aq  SN5h  1 4.100000e-01    3.070000e+00
 SP6aq  SN5h  1 4.100000e-01    3.070000e+00
 SN6dq  SN5h  1 4.100000e-01    3.550000e+00
 SP1dq  SN5h  1 4.100000e-01    3.310000e+00
 SP2dq  SN5h  1 4.100000e-01    3.310000e+00
 SP3dq  SN5h  1 4.100000e-01    3.070000e+00
 SP4dq  SN5h  1 4.100000e-01    3.070000e+00
 SP5dq  SN5h  1 4.100000e-01    3.070000e+00
 SP6dq  SN5h  1 4.100000e-01    3.070000e+00
 SN5aq  SN4h  1 4.100000e-01    3.310000e+00
 SN6aq  SN4h  1 4.100000e-01    3.550000e+00
 SP1aq  SN4h  1 4.100000e-01    3.310000e+00
 SP2aq  SN4h  1 4.100000e-01    3.070000e+00
 SP3aq  SN4h  1 4.100000e-01    3.070000e+00
 SP4aq  SN4h  1 4.100000e-01    3.070000e+00
 SP5aq  SN4h  1 4.100000e-01    3.070000e+00
 SP6aq  SN4h  1 4.100000e-01    2.840000e+00
 SN5dq  SN4h  1 4.100000e-01    3.310000e+00
 SN6dq  SN4h  1 4.100000e-01    3.550000e+00
 SP1dq  SN4h  1 4.100000e-01    3.310000e+00
 SP2dq  SN4h  1 4.100000e-01    3.070000e+00
 SP3dq  SN4h  1 4.100000e-01    3.070000e+00
 SP4dq  SN4h  1 4.100000e-01    3.070000e+00
 SP5dq  SN4h  1 4.100000e-01    3.070000e+00
 SP6dq  SN4h  1 4.100000e-01    2.840000e+00
 SN4aq  SN3h  1 4.100000e-01    3.070000e+00
 SN5aq  SN3h  1 4.100000e-01    3.070000e+00
 SN6aq  SN3h  1 4.100000e-01    3.070000e+00
 SP1aq  SN3h  1 4.100000e-01    2.840000e+00
 SP2aq  SN3h  1 4.100000e-01    2.840000e+00
 SP3aq  SN3h  1 4.100000e-01    2.840000e+00
 SP4aq  SN3h  1 4.100000e-01    2.840000e+00
 SP5aq  SN3h  1 4.100000e-01    2.600000e+00
 SP6aq  SN3h  1 4.100000e-01    2.600000e+00
 SN4dq  SN3h  1 4.100000e-01    3.070000e+00
 SN5dq  SN3h  1 4.100000e-01    3.070000e+00
 SN6dq  SN3h  1 4.100000e-01    3.070000e+00
 SP1dq  SN3h  1 4.100000e-01    2.840000e+00
 SP2dq  SN3h  1 4.100000e-01    2.840000e+00
 SP3dq  SN3h  1 4.100000e-01    2.840000e+00
 SP4dq  SN3h  1 4.100000e-01    2.840000e+00
 SP5dq  SN3h  1 4.100000e-01    2.600000e+00
 SP6dq  SN3h  1 4.100000e-01    2.600000e+00
 SN3aq  SN2h  1 4.100000e-01    3.070000e+00
 SN4aq  SN2h  1 4.100000e-01    3.070000e+00
 SN5aq  SN2h  1 4.100000e-01    3.070000e+00
 SN6aq  SN2h  1 4.100000e-01    2.840000e+00
 SP1aq  SN2h  1 4.100000e-01    2.840000e+00
 SP2aq  SN2h  1 4.100000e-01    2.840000e+00
 SP3aq  SN2h  1 4.100000e-01    2.840000e+00
 SP4aq  SN2h  1 4.100000e-01    2.600000e+00
 SP5aq  SN2h  1 4.100000e-01    2.350000e+00
 SP6aq  SN2h  1 4.100000e-01    2.350000e+00
 SN3dq  SN2h  1 4.100000e-01    3.070000e+00
 SN4dq  SN2h  1 4.100000e-01    3.070000e+00
 SN5dq  SN2h  1 4.100000e-01    3.070000e+00
 SN6dq  SN2h  1 4.100000e-01    2.840000e+00
 SP1dq  SN2h  1 4.100000e-01    2.840000e+00
 SP2dq  SN2h  1 4.100000e-01    2.840000e+00
 SP3dq  SN2h  1 4.100000e-01    2.840000e+00
 SP4dq  SN2h  1 4.100000e-01    2.600000e+00
 SP5dq  SN2h  1 4.100000e-01    2.350000e+00
 SP6dq  SN2h  1 4.100000e-01    2.350000e+00
 SN2aq  SN1h  1 4.100000e-01    2.840000e+00
 SN3aq  SN1h  1 4.100000e-01    2.840000e+00
 SN4aq  SN1h  1 4.100000e-01    2.840000e+00
 SN5aq  SN1h  1 4.100000e-01    2.840000e+00
 SN6aq  SN1h  1 4.100000e-01    2.840000e+00
 SP1aq  SN1h  1 4.100000e-01    2.840000e+00
 SP2aq  SN1h  1 4.100000e-01    2.840000e+00
 SP3aq  SN1h  1 4.100000e-01    2.600000e+00
 SP4aq  SN1h  1 4.100000e-01    2.350000e+00
 SP5aq  SN1h  1 4.100000e-01    2.200000e+00
 SP6aq  SN1h  1 4.100000e-01    2.200000e+00
 SN2dq  SN1h  1 4.100000e-01    2.840000e+00
 SN3dq  SN1h  1 4.100000e-01    2.840000e+00
 SN4dq  SN1h  1 4.100000e-01    2.840000e+00
 SN5dq  SN1h  1 4.100000e-01    2.840000e+00
 SN6dq  SN1h  1 4.100000e-01    2.840000e+00
 SP1dq  SN1h  1 4.100000e-01    2.840000e+00
 SP2dq  SN1h  1 4.100000e-01    2.840000e+00
 SP3dq  SN1h  1 4.100000e-01    2.600000e+00
 SP4dq  SN1h  1 4.100000e-01    2.350000e+00
 SP5dq  SN1h  1 4.100000e-01    2.200000e+00
 SP6dq  SN1h  1 4.100000e-01    2.200000e+00
 SN1aq  SC6h  1 4.100000e-01    3.070000e+00
 SN2aq  SC6h  1 4.100000e-01    2.840000e+00
 SN3aq  SC6h  1 4.100000e-01    2.840000e+00
 SN4aq  SC6h  1 4.100000e-01    2.840000e+00
 SN5aq  SC6h  1 4.100000e-01    2.840000e+00
 SN6aq  SC6h  1 4.100000e-01    2.840000e+00
 SP1aq  SC6h  1 4.100000e-01    2.600000e+00
 SP2aq  SC6h  1 4.100000e-01    2.600000e+00
 SP3aq  SC6h  1 4.100000e-01    2.600000e+00
 SP4aq  SC6h  1 4.100000e-01    2.350000e+00
 SP5aq  SC6h  1 4.100000e-01    2.200000e+00
 SP6aq  SC6h  1 4.100000e-01    2.200000e+00
 SN1dq  SC6h  1 4.100000e-01    3.070000e+00
 SN2dq  SC6h  1 4.100000e-01    2.840000e+00
 SN3dq  SC6h  1 4.100000e-01    2.840000e+00
 SN4dq  SC6h  1 4.100000e-01    2.840000e+00
 SN5dq  SC6h  1 4.100000e-01    2.840000e+00
 SN6dq  SC6h  1 4.100000e-01    2.840000e+00
 SP1dq  SC6h  1 4.100000e-01    2.600000e+00
 SP2dq  SC6h  1 4.100000e-01    2.600000e+00
 SP3dq  SC6h  1 4.100000e-01    2.600000e+00
 SP4dq  SC6h  1 4.100000e-01    2.350000e+00
 SP5dq  SC6h  1 4.100000e-01    2.200000e+00
 SP6dq  SC6h  1 4.100000e-01    2.200000e+00
 SC6eq  SC5h  1 4.100000e-01    3.070000e+00
 SC6vq  SC5h  1 4.100000e-01    3.070000e+00
 SN1aq  SC5h  1 4.100000e-01    2.840000e+00
 SN2aq  SC5h  1 4.100000e-01    2.600000e+00
 SN3aq  SC5h  1 4.100000e-01    2.600000e+00
 SN4aq  SC5h  1 4.100000e-01    2.600000e+00
 SN5aq  SC5h  1 4.100000e-01    2.600000e+00
 SN6aq  SC5h  1 4.100000e-01    2.600000e+00
 SP1aq  SC5h  1 4.100000e-01    2.350000e+00
 SP2aq  SC5h  1 4.100000e-01    2.350000e+00
 SP3aq  SC5h  1 4.100000e-01    2.350000e+00
 SP4aq  SC5h  1 4.100000e-01    2.200000e+00
 SP5aq  SC5h  1 4.100000e-01    2.200000e+00
 SP6aq  SC5h  1 4.100000e-01    2.040000e+00
 SN1dq  SC5h  1 4.100000e-01    2.840000e+00
 SN2dq  SC5h  1 4.100000e-01    2.600000e+00
 SN3dq  SC5h  1 4.100000e-01    2.600000e+00
 SN4dq  SC5h  1 4.100000e-01    2.600000e+00
 SN5dq  SC5h  1 4.100000e-01    2.600000e+00
 SN6dq  SC5h  1 4.100000e-01    2.600000e+00
 SP1dq  SC5h  1 4.100000e-01    2.350000e+00
 SP2dq  SC5h  1 4.100000e-01    2.350000e+00
 SP3dq  SC5h  1 4.100000e-01    2.350000e+00
 SP4dq  SC5h  1 4.100000e-01    2.200000e+00
 SP5dq  SC5h  1 4.100000e-01    2.200000e+00
 SP6dq  SC5h  1 4.100000e-01    2.040000e+00
 SC5eq  SC4h  1 4.100000e-01    3.070000e+00
 SC6eq  SC4h  1 4.100000e-01    3.070000e+00
 SC5vq  SC4h  1 4.100000e-01    3.070000e+00
 SC6vq  SC4h  1 4.100000e-01    3.070000e+00
 SN1aq  SC4h  1 4.100000e-01    2.840000e+00
 SN2aq  SC4h  1 4.100000e-01    2.600000e+00
 SN3aq  SC4h  1 4.100000e-01    2.600000e+00
 SN4aq  SC4h  1 4.100000e-01    2.600000e+00
 SN5aq  SC4h  1 4.100000e-01    2.350000e+00
 SN6aq  SC4h  1 4.100000e-01    2.350000e+00
 SP1aq  SC4h  1 4.100000e-01    2.200000e+00
 SP2aq  SC4h  1 4.100000e-01    2.200000e+00
 SP3aq  SC4h  1 4.100000e-01    2.200000e+00
 SP4aq  SC4h  1 4.100000e-01    2.040000e+00
 SP5aq  SC4h  1 4.100000e-01    2.040000e+00
 SP6aq  SC4h  1 4.100000e-01    1.910000e+00
 SN1dq  SC4h  1 4.100000e-01    2.840000e+00
 SN2dq  SC4h  1 4.100000e-01    2.600000e+00
 SN3dq  SC4h  1 4.100000e-01    2.600000e+00
 SN4dq  SC4h  1 4.100000e-01    2.600000e+00
 SN5dq  SC4h  1 4.100000e-01    2.350000e+00
 SN6dq  SC4h  1 4.100000e-01    2.350000e+00
 SP1dq  SC4h  1 4.100000e-01    2.200000e+00
 SP2dq  SC4h  1 4.100000e-01    2.200000e+00
 SP3dq  SC4h  1 4.100000e-01    2.200000e+00
 SP4dq  SC4h  1 4.100000e-01    2.040000e+00
 SP5dq  SC4h  1 4.100000e-01    2.040000e+00
 SP6dq  SC4h  1 4.100000e-01    1.910000e+00
 SC4eq  SC3h  1 4.100000e-01    3.070000e+00
 SC5eq  SC3h  1 4.100000e-01    2.840000e+00
 SC6eq  SC3h  1 4.100000e-01    2.840000e+00
 SC4vq  SC3h  1 4.100000e-01    3.070000e+00
 SC5vq  SC3h  1 4.100000e-01    2.840000e+00
 SC6vq  SC3h  1 4.100000e-01    2.840000e+00
 SN1aq  SC3h  1 4.100000e-01    2.600000e+00
 SN2aq  SC3h  1 4.100000e-01    2.600000e+00
 SN3aq  SC3h  1 4.100000e-01    2.350000e+00
 SN4aq  SC3h  1 4.100000e-01    2.350000e+00
 SN5aq  SC3h  1 4.100000e-01    2.350000e+00
 SN6aq  SC3h  1 4.100000e-01    2.200000e+00
 SP1aq  SC3h  1 4.100000e-01    2.040000e+00
 SP2aq  SC3h  1 4.100000e-01    2.040000e+00
 SP3aq  SC3h  1 4.100000e-01    1.910000e+00
 SP4aq  SC3h  1 4.100000e-01    1.910000e+00
 SP5aq  SC3h  1 4.100000e-01    1.910000e+00
 SP6aq  SC3h  1 4.100000e-01    1.750000e+00
 SN1dq  SC3h  1 4.100000e-01    2.600000e+00
 SN2dq  SC3h  1 4.100000e-01    2.600000e+00
 SN3dq  SC3h  1 4.100000e-01    2.350000e+00
 SN4dq  SC3h  1 4.100000e-01    2.350000e+00
 SN5dq  SC3h  1 4.100000e-01    2.350000e+00
 SN6dq  SC3h  1 4.100000e-01    2.200000e+00
 SP1dq  SC3h  1 4.100000e-01    2.040000e+00
 SP2dq  SC3h  1 4.100000e-01    2.040000e+00
 SP3dq  SC3h  1 4.100000e-01    1.910000e+00
 SP4dq  SC3h  1 4.100000e-01    1.910000e+00
 SP5dq  SC3h  1 4.100000e-01    1.910000e+00
 SP6dq  SC3h  1 4.100000e-01    1.750000e+00
 SC3eq  SC2h  1 4.100000e-01    3.070000e+00
 SC4eq  SC2h  1 4.100000e-01    2.840000e+00
 SC5eq  SC2h  1 4.100000e-01    2.600000e+00
 SC6eq  SC2h  1 4.100000e-01    2.600000e+00
 SC3vq  SC2h  1 4.100000e-01    3.070000e+00
 SC4vq  SC2h  1 4.100000e-01    2.840000e+00
 SC5vq  SC2h  1 4.100000e-01    2.600000e+00
 SC6vq  SC2h  1 4.100000e-01    2.600000e+00
 SN1aq  SC2h  1 4.100000e-01    2.350000e+00
 SN2aq  SC2h  1 4.100000e-01    2.350000e+00
 SN3aq  SC2h  1 4.100000e-01    2.350000e+00
 SN4aq  SC2h  1 4.100000e-01    2.200000e+00
 SN5aq  SC2h  1 4.100000e-01    2.200000e+00
 SN6aq  SC2h  1 4.100000e-01    2.200000e+00
 SP1aq  SC2h  1 4.100000e-01    2.040000e+00
 SP2aq  SC2h  1 4.100000e-01    2.040000e+00
 SP3aq  SC2h  1 4.100000e-01    1.910000e+00
 SP4aq  SC2h  1 4.100000e-01    1.910000e+00
 SP5aq  SC2h  1 4.100000e-01    1.910000e+00
 SP6aq  SC2h  1 4.100000e-01    1.750000e+00
 SN1dq  SC2h  1 4.100000e-01    2.350000e+00
 SN2dq  SC2h  1 4.100000e-01    2.350000e+00
 SN3dq  SC2h  1 4.100000e-01    2.350000e+00
 SN4dq  SC2h  1 4.100000e-01    2.200000e+00
 SN5dq  SC2h  1 4.100000e-01    2.200000e+00
 SN6dq  SC2h  1 4.100000e-01    2.200000e+00
 SP1dq  SC2h  1 4.100000e-01    2.040000e+00
 SP2dq  SC2h  1 4.100000e-01    2.040000e+00
 SP3dq  SC2h  1 4.100000e-01    1.910000e+00
 SP4dq  SC2h  1 4.100000e-01    1.910000e+00
 SP5dq  SC2h  1 4.100000e-01    1.910000e+00
 SP6dq  SC2h  1 4.100000e-01    1.750000e+00
 SC2eq  SC1h  1 4.100000e-01    3.310000e+00
 SC3eq  SC1h  1 4.100000e-01    3.070000e+00
 SC4eq  SC1h  1 4.100000e-01    2.600000e+00
 SC5eq  SC1h  1 4.100000e-01    2.600000e+00
 SC6eq  SC1h  1 4.100000e-01    2.350000e+00
 SC2vq  SC1h  1 4.100000e-01    3.310000e+00
 SC3vq  SC1h  1 4.100000e-01    3.070000e+00
 SC4vq  SC1h  1 4.100000e-01    2.600000e+00
 SC5vq  SC1h  1 4.100000e-01    2.600000e+00
 SC6vq  SC1h  1 4.100000e-01    2.350000e+00
 SN1aq  SC1h  1 4.100000e-01    2.200000e+00
 SN2aq  SC1h  1 4.100000e-01    2.200000e+00
 SN3aq  SC1h  1 4.100000e-01    2.200000e+00
 SN4aq  SC1h  1 4.100000e-01    2.040000e+00
 SN5aq  SC1h  1 4.100000e-01    2.040000e+00
 SN6aq  SC1h  1 4.100000e-01    2.040000e+00
 SP1aq  SC1h  1 4.100000e-01    1.910000e+00
 SP2aq  SC1h  1 4.100000e-01    1.910000e+00
 SP3aq  SC1h  1 4.100000e-01    1.750000e+00
 SP4aq  SC1h  1 4.100000e-01    1.750000e+00
 SP5aq  SC1h  1 4.100000e-01    1.750000e+00
 SP6aq  SC1h  1 4.180000e-01    1.400000e+00
 SN1dq  SC1h  1 4.100000e-01    2.200000e+00
 SN2dq  SC1h  1 4.100000e-01    2.200000e+00
 SN3dq  SC1h  1 4.100000e-01    2.200000e+00
 SN4dq  SC1h  1 4.100000e-01    2.040000e+00
 SN5dq  SC1h  1 4.100000e-01    2.040000e+00
 SN6dq  SC1h  1 4.100000e-01    2.040000e+00
 SP1dq  SC1h  1 4.100000e-01    1.910000e+00
 SP2dq  SC1h  1 4.100000e-01    1.910000e+00
 SP3dq  SC1h  1 4.100000e-01    1.750000e+00
 SP4dq  SC1h  1 4.100000e-01    1.750000e+00
 SP5dq  SC1h  1 4.100000e-01    1.750000e+00
 SP6dq  SC1h  1 4.180000e-01    1.400000e+00
 SC1eq  SX4h  1 4.100000e-01    2.350000e+00
 SC2eq  SX4h  1 4.100000e-01    2.350000e+00
 SC3eq  SX4h  1 4.100000e-01    2.840000e+00
 SC4eq  SX4h  1 4.100000e-01    2.840000e+00
 SC5eq  SX4h  1 4.100000e-01    2.840000e+00
 SC6eq  SX4h  1 4.100000e-01    3.070000e+00
 SC1vq  SX4h  1 4.100000e-01    2.350000e+00
 SC2vq  SX4h  1 4.100000e-01    2.350000e+00
 SC3vq  SX4h  1 4.100000e-01    2.840000e+00
 SC4vq  SX4h  1 4.100000e-01    2.840000e+00
 SC5vq  SX4h  1 4.100000e-01    2.840000e+00
 SC6vq  SX4h  1 4.100000e-01    3.070000e+00
 SN1aq  SX4h  1 4.100000e-01    2.840000e+00
 SN2aq  SX4h  1 4.100000e-01    3.070000e+00
 SN3aq  SX4h  1 4.100000e-01    3.070000e+00
 SN4aq  SX4h  1 4.100000e-01    3.310000e+00
 SN5aq  SX4h  1 4.100000e-01    3.070000e+00
 SN6aq  SX4h  1 4.100000e-01    2.840000e+00
 SP1aq  SX4h  1 4.100000e-01    2.600000e+00
 SP2aq  SX4h  1 4.100000e-01    2.600000e+00
 SP3aq  SX4h  1 4.100000e-01    2.600000e+00
 SP4aq  SX4h  1 4.100000e-01    2.600000e+00
 SP5aq  SX4h  1 4.100000e-01    2.600000e+00
 SP6aq  SX4h  1 4.100000e-01    2.350000e+00
 SN1dq  SX4h  1 4.100000e-01    2.840000e+00
 SN2dq  SX4h  1 4.100000e-01    3.070000e+00
 SN3dq  SX4h  1 4.100000e-01    3.070000e+00
 SN4dq  SX4h  1 4.100000e-01    3.310000e+00
 SN5dq  SX4h  1 4.100000e-01    3.070000e+00
 SN6dq  SX4h  1 4.100000e-01    2.840000e+00
 SP1dq  SX4h  1 4.100000e-01    2.600000e+00
 SP2dq  SX4h  1 4.100000e-01    2.600000e+00
 SP3dq  SX4h  1 4.100000e-01    2.600000e+00
 SP4dq  SX4h  1 4.100000e-01    2.600000e+00
 SP5dq  SX4h  1 4.100000e-01    2.600000e+00
 SP6dq  SX4h  1 4.100000e-01    2.350000e+00
 SX4eq  SX3h  1 4.100000e-01    3.070000e+00
 SC1eq  SX3h  1 4.100000e-01    2.840000e+00
 SC2eq  SX3h  1 4.100000e-01    2.840000e+00
 SC3eq  SX3h  1 4.100000e-01    2.840000e+00
 SC4eq  SX3h  1 4.100000e-01    2.840000e+00
 SC5eq  SX3h  1 4.100000e-01    2.840000e+00
 SC6eq  SX3h  1 4.100000e-01    3.070000e+00
 SX4vq  SX3h  1 4.100000e-01    3.070000e+00
 SC1vq  SX3h  1 4.100000e-01    2.840000e+00
 SC2vq  SX3h  1 4.100000e-01    2.840000e+00
 SC3vq  SX3h  1 4.100000e-01    2.840000e+00
 SC4vq  SX3h  1 4.100000e-01    2.840000e+00
 SC5vq  SX3h  1 4.100000e-01    2.840000e+00
 SC6vq  SX3h  1 4.100000e-01    3.070000e+00
 SN1aq  SX3h  1 4.100000e-01    2.840000e+00
 SN2aq  SX3h  1 4.100000e-01    2.840000e+00
 SN3aq  SX3h  1 4.100000e-01    2.840000e+00
 SN4aq  SX3h  1 4.100000e-01    3.070000e+00
 SN5aq  SX3h  1 4.100000e-01    2.840000e+00
 SN6aq  SX3h  1 4.100000e-01    2.600000e+00
 SP1aq  SX3h  1 4.100000e-01    2.600000e+00
 SP2aq  SX3h  1 4.100000e-01    2.600000e+00
 SP3aq  SX3h  1 4.100000e-01    2.600000e+00
 SP4aq  SX3h  1 4.100000e-01    2.350000e+00
 SP5aq  SX3h  1 4.100000e-01    2.350000e+00
 SP6aq  SX3h  1 4.100000e-01    2.350000e+00
 SN1dq  SX3h  1 4.100000e-01    2.840000e+00
 SN2dq  SX3h  1 4.100000e-01    2.840000e+00
 SN3dq  SX3h  1 4.100000e-01    2.840000e+00
 SN4dq  SX3h  1 4.100000e-01    3.070000e+00
 SN5dq  SX3h  1 4.100000e-01    2.840000e+00
 SN6dq  SX3h  1 4.100000e-01    2.600000e+00
 SP1dq  SX3h  1 4.100000e-01    2.600000e+00
 SP2dq  SX3h  1 4.100000e-01    2.600000e+00
 SP3dq  SX3h  1 4.100000e-01    2.600000e+00
 SP4dq  SX3h  1 4.100000e-01    2.350000e+00
 SP5dq  SX3h  1 4.100000e-01    2.350000e+00
 SP6dq  SX3h  1 4.100000e-01    2.350000e+00
 SX3eq  SX2h  1 4.100000e-01    3.310000e+00
 SX4eq  SX2h  1 4.100000e-01    3.070000e+00
 SC1eq  SX2h  1 4.100000e-01    2.840000e+00
 SC2eq  SX2h  1 4.100000e-01    2.840000e+00
 SC3eq  SX2h  1 4.100000e-01    2.840000e+00
 SC4eq  SX2h  1 4.100000e-01    2.840000e+00
 SC5eq  SX2h  1 4.100000e-01    2.840000e+00
 SC6eq  SX2h  1 4.100000e-01    3.070000e+00
 SX3vq  SX2h  1 4.100000e-01    3.310000e+00
 SX4vq  SX2h  1 4.100000e-01    3.070000e+00
 SC1vq  SX2h  1 4.100000e-01    2.840000e+00
 SC2vq  SX2h  1 4.100000e-01    2.840000e+00
 SC3vq  SX2h  1 4.100000e-01    2.840000e+00
 SC4vq  SX2h  1 4.100000e-01    2.840000e+00
 SC5vq  SX2h  1 4.100000e-01    2.840000e+00
 SC6vq  SX2h  1 4.100000e-01    3.070000e+00
 SN1aq  SX2h  1 4.100000e-01    2.600000e+00
 SN2aq  SX2h  1 4.100000e-01    2.600000e+00
 SN3aq  SX2h  1 4.100000e-01    2.600000e+00
 SN4aq  SX2h  1 4.100000e-01    2.600000e+00
 SN5aq  SX2h  1 4.100000e-01    2.600000e+00
 SN6aq  SX2h  1 4.100000e-01    2.350000e+00
 SP1aq  SX2h  1 4.100000e-01    2.350000e+00
 SP2aq  SX2h  1 4.100000e-01    2.350000e+00
 SP3aq  SX2h  1 4.100000e-01    2.350000e+00
 SP4aq  SX2h  1 4.100000e-01    2.350000e+00
 SP5aq  SX2h  1 4.100000e-01    2.350000e+00
 SP6aq  SX2h  1 4.100000e-01    2.200000e+00
 SN1dq  SX2h  1 4.100000e-01    2.600000e+00
 SN2dq  SX2h  1 4.100000e-01    2.600000e+00
 SN3dq  SX2h  1 4.100000e-01    2.600000e+00
 SN4dq  SX2h  1 4.100000e-01    2.600000e+00
 SN5dq  SX2h  1 4.100000e-01    2.600000e+00
 SN6dq  SX2h  1 4.100000e-01    2.350000e+00
 SP1dq  SX2h  1 4.100000e-01    2.350000e+00
 SP2dq  SX2h  1 4.100000e-01    2.350000e+00
 SP3dq  SX2h  1 4.100000e-01    2.350000e+00
 SP4dq  SX2h  1 4.100000e-01    2.350000e+00
 SP5dq  SX2h  1 4.100000e-01    2.350000e+00
 SP6dq  SX2h  1 4.100000e-01    2.200000e+00
 SX2eq  SX1h  1 4.100000e-01    3.310000e+00
 SX3eq  SX1h  1 4.100000e-01    3.310000e+00
 SX4eq  SX1h  1 4.100000e-01    3.070000e+00
 SC1eq  SX1h  1 4.100000e-01    2.840000e+00
 SC2eq  SX1h  1 4.100000e-01    2.840000e+00
 SC3eq  SX1h  1 4.100000e-01    3.070000e+00
 SC4eq  SX1h  1 4.100000e-01    3.070000e+00
 SC5eq  SX1h  1 4.100000e-01    3.070000e+00
 SC6eq  SX1h  1 4.100000e-01    3.070000e+00
 SX2vq  SX1h  1 4.100000e-01    3.310000e+00
 SX3vq  SX1h  1 4.100000e-01    3.310000e+00
 SX4vq  SX1h  1 4.100000e-01    3.070000e+00
 SC1vq  SX1h  1 4.100000e-01    2.840000e+00
 SC2vq  SX1h  1 4.100000e-01    2.840000e+00
 SC3vq  SX1h  1 4.100000e-01    3.070000e+00
 SC4vq  SX1h  1 4.100000e-01    3.070000e+00
 SC5vq  SX1h  1 4.100000e-01    3.070000e+00
 SC6vq  SX1h  1 4.100000e-01    3.070000e+00
 SN1aq  SX1h  1 4.100000e-01    2.600000e+00
 SN2aq  SX1h  1 4.100000e-01    2.600000e+00
 SN3aq  SX1h  1 4.100000e-01    2.600000e+00
 SN4aq  SX1h  1 4.100000e-01    2.350000e+00
 SN5aq  SX1h  1 4.100000e-01    2.350000e+00
 SN6aq  SX1h  1 4.100000e-01    2.200000e+00
 SP1aq  SX1h  1 4.100000e-01    2.200000e+00
 SP2aq  SX1h  1 4.100000e-01    2.200000e+00
 SP3aq  SX1h  1 4.100000e-01    2.200000e+00
 SP4aq  SX1h  1 4.100000e-01    2.200000e+00
 SP5aq  SX1h  1 4.100000e-01    2.040000e+00
 SP6aq  SX1h  1 4.100000e-01    2.040000e+00
 SN1dq  SX1h  1 4.100000e-01    2.600000e+00
 SN2dq  SX1h  1 4.100000e-01    2.600000e+00
 SN3dq  SX1h  1 4.100000e-01    2.600000e+00
 SN4dq  SX1h  1 4.100000e-01    2.350000e+00
 SN5dq  SX1h  1 4.100000e-01    2.350000e+00
 SN6dq  SX1h  1 4.100000e-01    2.200000e+00
 SP1dq  SX1h  1 4.100000e-01    2.200000e+00
 SP2dq  SX1h  1 4.100000e-01    2.200000e+00
 SP3dq  SX1h  1 4.100000e-01    2.200000e+00
 SP4dq  SX1h  1 4.100000e-01    2.200000e+00
 SP5dq  SX1h  1 4.100000e-01    2.040000e+00
 SP6dq  SX1h  1 4.100000e-01    2.040000e+00
 SP6dh  SP5d  1 4.100000e-01    3.820000e+00
 SP6dh  SP4d  1 4.100000e-01    3.550000e+00
 SP6dh  SP3d  1 4.100000e-01    3.310000e+00
 SP6dh  SP2d  1 4.100000e-01    3.310000e+00
 SP6dh  SP1d  1 4.100000e-01    3.070000e+00
 SP6dh  SN6d  1 4.100000e-01    2.840000e+00
 SP6dh  SN5d  1 4.100000e-01    2.350000e+00
 SP6dh  SN4d  1 4.100000e-01    2.200000e+00
 SP6dh  SN3d  1 4.100000e-01    2.200000e+00
 SP6dh  SN2d  1 4.100000e-01    2.040000e+00
 SP6dh  SN1d  1 4.100000e-01    1.910000e+00
 SP6dh  SP6a  1 4.100000e-01    4.550000e+00
 SP6dh  SP5a  1 4.100000e-01    4.290000e+00
 SP6dh  SP4a  1 4.100000e-01    4.040000e+00
 SP6dh  SP3a  1 4.100000e-01    3.820000e+00
 SP6dh  SP2a  1 4.100000e-01    3.820000e+00
 SP6dh  SP1a  1 4.100000e-01    3.550000e+00
 SP6dh  SN6a  1 4.100000e-01    3.310000e+00
 SP6dh  SN5a  1 4.100000e-01    2.840000e+00
 SP6dh  SN4a  1 4.100000e-01    2.600000e+00
 SP6dh  SN3a  1 4.100000e-01    2.200000e+00
 SP6dh  SN2a  1 4.100000e-01    2.040000e+00
 SP6dh  SN1a  1 4.100000e-01    1.910000e+00
 SP6dh  SC6e  1 4.100000e-01    2.040000e+00
 SP6dh  SC5e  1 4.100000e-01    1.910000e+00
 SP6dh  SC4e  1 4.100000e-01    1.750000e+00
 SP6dh  SC3e  1 4.140000e-01    1.560000e+00
 SP6dh  SC2e  1 4.140000e-01    1.560000e+00
 SP6dh  SC1e  1 4.210000e-01    1.250000e+00
 SP6dh  SX4e  1 4.100000e-01    2.200000e+00
 SP6dh  SX3e  1 4.100000e-01    2.200000e+00
 SP6dh  SX2e  1 4.100000e-01    2.040000e+00
 SP6dh  SX1e  1 4.100000e-01    1.910000e+00
 SP6dh  SC6v  1 4.100000e-01    1.750000e+00
 SP6dh  SC5v  1 4.140000e-01    1.560000e+00
 SP6dh  SC4v  1 4.180000e-01    1.400000e+00
 SP6dh  SC3v  1 4.210000e-01    1.250000e+00
 SP6dh  SC2v  1 4.210000e-01    1.250000e+00
 SP6dh  SC1v  1 4.960000e-01    1.050000e+00
 SP6dh  SX4v  1 4.100000e-01    1.910000e+00
 SP6dh  SX3v  1 4.100000e-01    1.910000e+00
 SP6dh  SX2v  1 4.100000e-01    1.750000e+00
 SP6dh  SX1v  1 4.140000e-01    1.560000e+00
 SP6dh  SP5q  1 4.100000e-01    4.550000e+00
 SP6dh  SP4q  1 4.100000e-01    4.290000e+00
 SP6dh  SP3q  1 4.100000e-01    4.040000e+00
 SP6dh  SP2q  1 4.100000e-01    4.040000e+00
 SP6dh  SP1q  1 4.100000e-01    3.820000e+00
 SP6dh  SN6q  1 4.100000e-01    3.550000e+00
 SP6dh  SN5q  1 4.100000e-01    3.070000e+00
 SP6dh  SN4q  1 4.100000e-01    2.840000e+00
 SP6dh  SN3q  1 4.100000e-01    2.600000e+00
 SP6dh  SN2q  1 4.100000e-01    2.350000e+00
 SP6dh  SN1q  1 4.100000e-01    2.200000e+00
 SP6dh  SC6q  1 4.100000e-01    2.200000e+00
 SP6dh  SC5q  1 4.100000e-01    2.040000e+00
 SP6dh  SC4q  1 4.100000e-01    1.910000e+00
 SP6dh  SC3q  1 4.100000e-01    1.750000e+00
 SP6dh  SC2q  1 4.100000e-01    1.750000e+00
 SP6dh  SC1q  1 4.180000e-01    1.400000e+00
 SP6dh  SX4q  1 4.100000e-01    2.350000e+00
 SP6dh  SX3q  1 4.100000e-01    2.350000e+00
 SP6dh  SX2q  1 4.100000e-01    2.200000e+00
 SP6dh  SX1q  1 4.100000e-01    2.040000e+00
 SP5dh  SP4d  1 4.100000e-01    3.310000e+00
 SP5dh  SP3d  1 4.100000e-01    3.070000e+00
 SP5dh  SP2d  1 4.100000e-01    3.070000e+00
 SP5dh  SP1d  1 4.100000e-01    2.840000e+00
 SP5dh  SN6d  1 4.100000e-01    2.600000e+00
 SP5dh  SN5d  1 4.100000e-01    2.350000e+00
 SP5dh  SN4d  1 4.100000e-01    2.350000e+00
 SP5dh  SN3d  1 4.100000e-01    2.200000e+00
 SP5dh  SN2d  1 4.100000e-01    2.040000e+00
 SP5dh  SN1d  1 4.100000e-01    1.910000e+00
 SP5dh  SP5a  1 4.100000e-01    4.040000e+00
 SP5dh  SP4a  1 4.100000e-01    3.820000e+00
 SP5dh  SP3a  1 4.100000e-01    3.550000e+00
 SP5dh  SP2a  1 4.100000e-01    3.550000e+00
 SP5dh  SP1a  1 4.100000e-01    3.310000e+00
 SP5dh  SN6a  1 4.100000e-01    3.070000e+00
 SP5dh  SN5a  1 4.100000e-01    2.840000e+00
 SP5dh  SN4a  1 4.100000e-01    2.840000e+00
 SP5dh  SN3a  1 4.100000e-01    2.200000e+00
 SP5dh  SN2a  1 4.100000e-01    2.040000e+00
 SP5dh  SN1a  1 4.100000e-01    1.910000e+00
 SP5dh  SC6e  1 4.100000e-01    2.040000e+00
 SP5dh  SC5e  1 4.100000e-01    2.040000e+00
 SP5dh  SC4e  1 4.100000e-01    1.910000e+00
 SP5dh  SC3e  1 4.100000e-01    1.750000e+00
 SP5dh  SC2e  1 4.100000e-01    1.750000e+00
 SP5dh  SC1e  1 4.140000e-01    1.560000e+00
 SP5dh  SX4e  1 4.100000e-01    2.350000e+00
 SP5dh  SX3e  1 4.100000e-01    2.200000e+00
 SP5dh  SX2e  1 4.100000e-01    2.200000e+00
 SP5dh  SX1e  1 4.100000e-01    1.910000e+00
 SP5dh  SC6v  1 4.100000e-01    1.750000e+00
 SP5dh  SC5v  1 4.100000e-01    1.750000e+00
 SP5dh  SC4v  1 4.140000e-01    1.560000e+00
 SP5dh  SC3v  1 4.180000e-01    1.400000e+00
 SP5dh  SC2v  1 4.180000e-01    1.400000e+00
 SP5dh  SC1v  1 4.210000e-01    1.250000e+00
 SP5dh  SX4v  1 4.100000e-01    2.040000e+00
 SP5dh  SX3v  1 4.100000e-01    1.910000e+00
 SP5dh  SX2v  1 4.100000e-01    1.910000e+00
 SP5dh  SX1v  1 4.140000e-01    1.560000e+00
 SP5dh  SP4q  1 4.100000e-01    4.040000e+00
 SP5dh  SP3q  1 4.100000e-01    3.820000e+00
 SP5dh  SP2q  1 4.100000e-01    3.820000e+00
 SP5dh  SP1q  1 4.100000e-01    3.550000e+00
 SP5dh  SN6q  1 4.100000e-01    3.310000e+00
 SP5dh  SN5q  1 4.100000e-01    3.070000e+00
 SP5dh  SN4q  1 4.100000e-01    3.070000e+00
 SP5dh  SN3q  1 4.100000e-01    2.600000e+00
 SP5dh  SN2q  1 4.100000e-01    2.350000e+00
 SP5dh  SN1q  1 4.100000e-01    2.200000e+00
 SP5dh  SC6q  1 4.100000e-01    2.200000e+00
 SP5dh  SC5q  1 4.100000e-01    2.200000e+00
 SP5dh  SC4q  1 4.100000e-01    2.040000e+00
 SP5dh  SC3q  1 4.100000e-01    1.910000e+00
 SP5dh  SC2q  1 4.100000e-01    1.910000e+00
 SP5dh  SC1q  1 4.100000e-01    1.750000e+00
 SP5dh  SX4q  1 4.100000e-01    2.600000e+00
 SP5dh  SX3q  1 4.100000e-01    2.350000e+00
 SP5dh  SX2q  1 4.100000e-01    2.350000e+00
 SP5dh  SX1q  1 4.100000e-01    2.040000e+00
 SP4dh  SP3d  1 4.100000e-01    3.070000e+00
 SP4dh  SP2d  1 4.100000e-01    3.070000e+00
 SP4dh  SP1d  1 4.100000e-01    2.840000e+00
 SP4dh  SN6d  1 4.100000e-01    2.600000e+00
 SP4dh  SN5d  1 4.100000e-01    2.350000e+00
 SP4dh  SN4d  1 4.100000e-01    2.350000e+00
 SP4dh  SN3d  1 4.100000e-01    2.200000e+00
 SP4dh  SN2d  1 4.100000e-01    2.200000e+00
 SP4dh  SN1d  1 4.100000e-01    2.040000e+00
 SP4dh  SP4a  1 4.100000e-01    3.820000e+00
 SP4dh  SP3a  1 4.100000e-01    3.550000e+00
 SP4dh  SP2a  1 4.100000e-01    3.550000e+00
 SP4dh  SP1a  1 4.100000e-01    3.310000e+00
 SP4dh  SN6a  1 4.100000e-01    3.070000e+00
 SP4dh  SN5a  1 4.100000e-01    2.840000e+00
 SP4dh  SN4a  1 4.100000e-01    2.840000e+00
 SP4dh  SN3a  1 4.100000e-01    2.600000e+00
 SP4dh  SN2a  1 4.100000e-01    2.200000e+00
 SP4dh  SN1a  1 4.100000e-01    2.040000e+00
 SP4dh  SC6e  1 4.100000e-01    2.200000e+00
 SP4dh  SC5e  1 4.100000e-01    2.040000e+00
 SP4dh  SC4e  1 4.100000e-01    1.910000e+00
 SP4dh  SC3e  1 4.100000e-01    1.750000e+00
 SP4dh  SC2e  1 4.100000e-01    1.750000e+00
 SP4dh  SC1e  1 4.140000e-01    1.560000e+00
 SP4dh  SX4e  1 4.100000e-01    2.350000e+00
 SP4dh  SX3e  1 4.100000e-01    2.200000e+00
 SP4dh  SX2e  1 4.100000e-01    2.200000e+00
 SP4dh  SX1e  1 4.100000e-01    2.040000e+00
 SP4dh  SC6v  1 4.100000e-01    1.910000e+00
 SP4dh  SC5v  1 4.100000e-01    1.750000e+00
 SP4dh  SC4v  1 4.140000e-01    1.560000e+00
 SP4dh  SC3v  1 4.180000e-01    1.400000e+00
 SP4dh  SC2v  1 4.180000e-01    1.400000e+00
 SP4dh  SC1v  1 4.210000e-01    1.250000e+00
 SP4dh  SX4v  1 4.100000e-01    2.040000e+00
 SP4dh  SX3v  1 4.100000e-01    1.910000e+00
 SP4dh  SX2v  1 4.100000e-01    1.910000e+00
 SP4dh  SX1v  1 4.100000e-01    1.750000e+00
 SP4dh  SP3q  1 4.100000e-01    3.820000e+00
 SP4dh  SP2q  1 4.100000e-01    3.820000e+00
 SP4dh  SP1q  1 4.100000e-01    3.550000e+00
 SP4dh  SN6q  1 4.100000e-01    3.310000e+00
 SP4dh  SN5q  1 4.100000e-01    3.070000e+00
 SP4dh  SN4q  1 4.100000e-01    3.070000e+00
 SP4dh  SN3q  1 4.100000e-01    2.840000e+00
 SP4dh  SN2q  1 4.100000e-01    2.600000e+00
 SP4dh  SN1q  1 4.100000e-01    2.350000e+00
 SP4dh  SC6q  1 4.100000e-01    2.350000e+00
 SP4dh  SC5q  1 4.100000e-01    2.200000e+00
 SP4dh  SC4q  1 4.100000e-01    2.040000e+00
 SP4dh  SC3q  1 4.100000e-01    1.910000e+00
 SP4dh  SC2q  1 4.100000e-01    1.910000e+00
 SP4dh  SC1q  1 4.100000e-01    1.750000e+00
 SP4dh  SX4q  1 4.100000e-01    2.600000e+00
 SP4dh  SX3q  1 4.100000e-01    2.350000e+00
 SP4dh  SX2q  1 4.100000e-01    2.350000e+00
 SP4dh  SX1q  1 4.100000e-01    2.200000e+00
 SP3dh  SP2d  1 4.100000e-01    3.070000e+00
 SP3dh  SP1d  1 4.100000e-01    2.840000e+00
 SP3dh  SN6d  1 4.100000e-01    2.600000e+00
 SP3dh  SN5d  1 4.100000e-01    2.350000e+00
 SP3dh  SN4d  1 4.100000e-01    2.350000e+00
 SP3dh  SN3d  1 4.100000e-01    2.200000e+00
 SP3dh  SN2d  1 4.100000e-01    2.200000e+00
 SP3dh  SN1d  1 4.100000e-01    2.200000e+00
 SP3dh  SP3a  1 4.100000e-01    3.550000e+00
 SP3dh  SP2a  1 4.100000e-01    3.550000e+00
 SP3dh  SP1a  1 4.100000e-01    3.310000e+00
 SP3dh  SN6a  1 4.100000e-01    3.070000e+00
 SP3dh  SN5a  1 4.100000e-01    2.840000e+00
 SP3dh  SN4a  1 4.100000e-01    2.840000e+00
 SP3dh  SN3a  1 4.100000e-01    2.600000e+00
 SP3dh  SN2a  1 4.100000e-01    2.600000e+00
 SP3dh  SN1a  1 4.100000e-01    2.200000e+00
 SP3dh  SC6e  1 4.100000e-01    2.350000e+00
 SP3dh  SC5e  1 4.100000e-01    2.200000e+00
 SP3dh  SC4e  1 4.100000e-01    2.040000e+00
 SP3dh  SC3e  1 4.100000e-01    1.750000e+00
 SP3dh  SC2e  1 4.100000e-01    1.750000e+00
 SP3dh  SC1e  1 4.140000e-01    1.560000e+00
 SP3dh  SX4e  1 4.100000e-01    2.350000e+00
 SP3dh  SX3e  1 4.100000e-01    2.350000e+00
 SP3dh  SX2e  1 4.100000e-01    2.200000e+00
 SP3dh  SX1e  1 4.100000e-01    2.040000e+00
 SP3dh  SC6v  1 4.100000e-01    2.040000e+00
 SP3dh  SC5v  1 4.100000e-01    1.910000e+00
 SP3dh  SC4v  1 4.100000e-01    1.750000e+00
 SP3dh  SC3v  1 4.180000e-01    1.400000e+00
 SP3dh  SC2v  1 4.180000e-01    1.400000e+00
 SP3dh  SC1v  1 4.210000e-01    1.250000e+00
 SP3dh  SX4v  1 4.100000e-01    2.040000e+00
 SP3dh  SX3v  1 4.100000e-01    2.040000e+00
 SP3dh  SX2v  1 4.100000e-01    1.910000e+00
 SP3dh  SX1v  1 4.100000e-01    1.750000e+00
 SP3dh  SP2q  1 4.100000e-01    3.820000e+00
 SP3dh  SP1q  1 4.100000e-01    3.550000e+00
 SP3dh  SN6q  1 4.100000e-01    3.310000e+00
 SP3dh  SN5q  1 4.100000e-01    3.070000e+00
 SP3dh  SN4q  1 4.100000e-01    3.070000e+00
 SP3dh  SN3q  1 4.100000e-01    2.840000e+00
 SP3dh  SN2q  1 4.100000e-01    2.840000e+00
 SP3dh  SN1q  1 4.100000e-01    2.600000e+00
 SP3dh  SC6q  1 4.100000e-01    2.600000e+00
 SP3dh  SC5q  1 4.100000e-01    2.350000e+00
 SP3dh  SC4q  1 4.100000e-01    2.200000e+00
 SP3dh  SC3q  1 4.100000e-01    1.910000e+00
 SP3dh  SC2q  1 4.100000e-01    1.910000e+00
 SP3dh  SC1q  1 4.100000e-01    1.750000e+00
 SP3dh  SX4q  1 4.100000e-01    2.600000e+00
 SP3dh  SX3q  1 4.100000e-01    2.600000e+00
 SP3dh  SX2q  1 4.100000e-01    2.350000e+00
 SP3dh  SX1q  1 4.100000e-01    2.200000e+00
 SP2dh  SP1d  1 4.100000e-01    2.840000e+00
 SP2dh  SN6d  1 4.100000e-01    2.840000e+00
 SP2dh  SN5d  1 4.100000e-01    2.600000e+00
 SP2dh  SN4d  1 4.100000e-01    2.350000e+00
 SP2dh  SN3d  1 4.100000e-01    2.200000e+00
 SP2dh  SN2d  1 4.100000e-01    2.200000e+00
 SP2dh  SN1d  1 4.100000e-01    2.200000e+00
 SP2dh  SP2a  1 4.100000e-01    3.550000e+00
 SP2dh  SP1a  1 4.100000e-01    3.310000e+00
 SP2dh  SN6a  1 4.100000e-01    3.310000e+00
 SP2dh  SN5a  1 4.100000e-01    3.070000e+00
 SP2dh  SN4a  1 4.100000e-01    2.840000e+00
 SP2dh  SN3a  1 4.100000e-01    2.600000e+00
 SP2dh  SN2a  1 4.100000e-01    2.600000e+00
 SP2dh  SN1a  1 4.100000e-01    2.600000e+00
 SP2dh  SC6e  1 4.100000e-01    2.350000e+00
 SP2dh  SC5e  1 4.100000e-01    2.200000e+00
 SP2dh  SC4e  1 4.100000e-01    2.040000e+00
 SP2dh  SC3e  1 4.100000e-01    1.910000e+00
 SP2dh  SC2e  1 4.100000e-01    1.910000e+00
 SP2dh  SC1e  1 4.100000e-01    1.750000e+00
 SP2dh  SX4e  1 4.100000e-01    2.350000e+00
 SP2dh  SX3e  1 4.100000e-01    2.350000e+00
 SP2dh  SX2e  1 4.100000e-01    2.200000e+00
 SP2dh  SX1e  1 4.100000e-01    2.040000e+00
 SP2dh  SC6v  1 4.100000e-01    2.040000e+00
 SP2dh  SC5v  1 4.100000e-01    1.910000e+00
 SP2dh  SC4v  1 4.100000e-01    1.750000e+00
 SP2dh  SC3v  1 4.140000e-01    1.560000e+00
 SP2dh  SC2v  1 4.140000e-01    1.560000e+00
 SP2dh  SC1v  1 4.180000e-01    1.400000e+00
 SP2dh  SX4v  1 4.100000e-01    2.040000e+00
 SP2dh  SX3v  1 4.100000e-01    2.040000e+00
 SP2dh  SX2v  1 4.100000e-01    1.910000e+00
 SP2dh  SX1v  1 4.100000e-01    1.750000e+00
 SP2dh  SP1q  1 4.100000e-01    3.550000e+00
 SP2dh  SN6q  1 4.100000e-01    3.550000e+00
 SP2dh  SN5q  1 4.100000e-01    3.310000e+00
 SP2dh  SN4q  1 4.100000e-01    3.070000e+00
 SP2dh  SN3q  1 4.100000e-01    2.840000e+00
 SP2dh  SN2q  1 4.100000e-01    2.840000e+00
 SP2dh  SN1q  1 4.100000e-01    2.840000e+00
 SP2dh  SC6q  1 4.100000e-01    2.600000e+00
 SP2dh  SC5q  1 4.100000e-01    2.350000e+00
 SP2dh  SC4q  1 4.100000e-01    2.200000e+00
 SP2dh  SC3q  1 4.100000e-01    2.040000e+00
 SP2dh  SC2q  1 4.100000e-01    2.040000e+00
 SP2dh  SC1q  1 4.100000e-01    1.910000e+00
 SP2dh  SX4q  1 4.100000e-01    2.600000e+00
 SP2dh  SX3q  1 4.100000e-01    2.600000e+00
 SP2dh  SX2q  1 4.100000e-01    2.350000e+00
 SP2dh  SX1q  1 4.100000e-01    2.200000e+00
 SP1dh  SN6d  1 4.100000e-01    2.840000e+00
 SP1dh  SN5d  1 4.100000e-01    2.600000e+00
 SP1dh  SN4d  1 4.100000e-01    2.600000e+00
 SP1dh  SN3d  1 4.100000e-01    2.200000e+00
 SP1dh  SN2d  1 4.100000e-01    2.200000e+00
 SP1dh  SN1d  1 4.100000e-01    2.200000e+00
 SP1dh  SP1a  1 4.100000e-01    3.310000e+00
 SP1dh  SN6a  1 4.100000e-01    3.310000e+00
 SP1dh  SN5a  1 4.100000e-01    3.070000e+00
 SP1dh  SN4a  1 4.100000e-01    3.070000e+00
 SP1dh  SN3a  1 4.100000e-01    2.600000e+00
 SP1dh  SN2a  1 4.100000e-01    2.600000e+00
 SP1dh  SN1a  1 4.100000e-01    2.600000e+00
 SP1dh  SC6e  1 4.100000e-01    2.350000e+00
 SP1dh  SC5e  1 4.100000e-01    2.200000e+00
 SP1dh  SC4e  1 4.100000e-01    2.040000e+00
 SP1dh  SC3e  1 4.100000e-01    1.910000e+00
 SP1dh  SC2e  1 4.100000e-01    1.910000e+00
 SP1dh  SC1e  1 4.100000e-01    1.750000e+00
 SP1dh  SX4e  1 4.100000e-01    2.350000e+00
 SP1dh  SX3e  1 4.100000e-01    2.350000e+00
 SP1dh  SX2e  1 4.100000e-01    2.200000e+00
 SP1dh  SX1e  1 4.100000e-01    2.040000e+00
 SP1dh  SC6v  1 4.100000e-01    2.040000e+00
 SP1dh  SC5v  1 4.100000e-01    1.910000e+00
 SP1dh  SC4v  1 4.100000e-01    1.750000e+00
 SP1dh  SC3v  1 4.140000e-01    1.560000e+00
 SP1dh  SC2v  1 4.140000e-01    1.560000e+00
 SP1dh  SC1v  1 4.180000e-01    1.400000e+00
 SP1dh  SX4v  1 4.100000e-01    2.040000e+00
 SP1dh  SX3v  1 4.100000e-01    2.040000e+00
 SP1dh  SX2v  1 4.100000e-01    1.910000e+00
 SP1dh  SX1v  1 4.100000e-01    1.750000e+00
 SP1dh  SN6q  1 4.100000e-01    3.550000e+00
 SP1dh  SN5q  1 4.100000e-01    3.310000e+00
 SP1dh  SN4q  1 4.100000e-01    3.310000e+00
 SP1dh  SN3q  1 4.100000e-01    2.840000e+00
 SP1dh  SN2q  1 4.100000e-01    2.840000e+00
 SP1dh  SN1q  1 4.100000e-01    2.840000e+00
 SP1dh  SC6q  1 4.100000e-01    2.600000e+00
 SP1dh  SC5q  1 4.100000e-01    2.350000e+00
 SP1dh  SC4q  1 4.100000e-01    2.200000e+00
 SP1dh  SC3q  1 4.100000e-01    2.040000e+00
 SP1dh  SC2q  1 4.100000e-01    2.040000e+00
 SP1dh  SC1q  1 4.100000e-01    1.910000e+00
 SP1dh  SX4q  1 4.100000e-01    2.600000e+00
 SP1dh  SX3q  1 4.100000e-01    2.600000e+00
 SP1dh  SX2q  1 4.100000e-01    2.350000e+00
 SP1dh  SX1q  1 4.100000e-01    2.200000e+00
 SN6dh  SN5d  1 4.100000e-01    2.840000e+00
 SN6dh  SN4d  1 4.100000e-01    2.840000e+00
 SN6dh  SN3d  1 4.100000e-01    2.350000e+00
 SN6dh  SN2d  1 4.100000e-01    2.200000e+00
 SN6dh  SN1d  1 4.100000e-01    2.200000e+00
 SN6dh  SN6a  1 4.100000e-01    3.310000e+00
 SN6dh  SN5a  1 4.100000e-01    3.310000e+00
 SN6dh  SN4a  1 4.100000e-01    3.310000e+00
 SN6dh  SN3a  1 4.100000e-01    2.840000e+00
 SN6dh  SN2a  1 4.100000e-01    2.600000e+00
 SN6dh  SN1a  1 4.100000e-01    2.600000e+00
 SN6dh  SC6e  1 4.100000e-01    2.600000e+00
 SN6dh  SC5e  1 4.100000e-01    2.350000e+00
 SN6dh  SC4e  1 4.100000e-01    2.200000e+00
 SN6dh  SC3e  1 4.100000e-01    2.040000e+00
 SN6dh  SC2e  1 4.100000e-01    2.040000e+00
 SN6dh  SC1e  1 4.100000e-01    1.910000e+00
 SN6dh  SX4e  1 4.100000e-01    2.600000e+00
 SN6dh  SX3e  1 4.100000e-01    2.350000e+00
 SN6dh  SX2e  1 4.100000e-01    2.200000e+00
 SN6dh  SX1e  1 4.100000e-01    2.040000e+00
 SN6dh  SC6v  1 4.100000e-01    2.200000e+00
 SN6dh  SC5v  1 4.100000e-01    2.040000e+00
 SN6dh  SC4v  1 4.100000e-01    1.910000e+00
 SN6dh  SC3v  1 4.100000e-01    1.750000e+00
 SN6dh  SC2v  1 4.100000e-01    1.750000e+00
 SN6dh  SC1v  1 4.140000e-01    1.560000e+00
 SN6dh  SX4v  1 4.100000e-01    2.200000e+00
 SN6dh  SX3v  1 4.100000e-01    2.040000e+00
 SN6dh  SX2v  1 4.100000e-01    1.910000e+00
 SN6dh  SX1v  1 4.100000e-01    1.750000e+00
 SN6dh  SN5q  1 4.100000e-01    3.550000e+00
 SN6dh  SN4q  1 4.100000e-01    3.550000e+00
 SN6dh  SN3q  1 4.100000e-01    3.070000e+00
 SN6dh  SN2q  1 4.100000e-01    2.840000e+00
 SN6dh  SN1q  1 4.100000e-01    2.840000e+00
 SN6dh  SC6q  1 4.100000e-01    2.840000e+00
 SN6dh  SC5q  1 4.100000e-01    2.600000e+00
 SN6dh  SC4q  1 4.100000e-01    2.350000e+00
 SN6dh  SC3q  1 4.100000e-01    2.200000e+00
 SN6dh  SC2q  1 4.100000e-01    2.200000e+00
 SN6dh  SC1q  1 4.100000e-01    2.040000e+00
 SN6dh  SX4q  1 4.100000e-01    2.840000e+00
 SN6dh  SX3q  1 4.100000e-01    2.600000e+00
 SN6dh  SX2q  1 4.100000e-01    2.350000e+00
 SN6dh  SX1q  1 4.100000e-01    2.200000e+00
 SN5dh  SN4d  1 4.100000e-01    2.600000e+00
 SN5dh  SN3d  1 4.100000e-01    2.350000e+00
 SN5dh  SN2d  1 4.100000e-01    2.350000e+00
 SN5dh  SN1d  1 4.100000e-01    2.200000e+00
 SN5dh  SN5a  1 4.100000e-01    3.070000e+00
 SN5dh  SN4a  1 4.100000e-01    3.070000e+00
 SN5dh  SN3a  1 4.100000e-01    2.840000e+00
 SN5dh  SN2a  1 4.100000e-01    2.840000e+00
 SN5dh  SN1a  1 4.100000e-01    2.600000e+00
 SN5dh  SC6e  1 4.100000e-01    2.600000e+00
 SN5dh  SC5e  1 4.100000e-01    2.350000e+00
 SN5dh  SC4e  1 4.100000e-01    2.200000e+00
 SN5dh  SC3e  1 4.100000e-01    2.200000e+00
 SN5dh  SC2e  1 4.100000e-01    2.040000e+00
 SN5dh  SC1e  1 4.100000e-01    1.910000e+00
 SN5dh  SX4e  1 4.100000e-01    2.840000e+00
 SN5dh  SX3e  1 4.100000e-01    2.600000e+00
 SN5dh  SX2e  1 4.100000e-01    2.350000e+00
 SN5dh  SX1e  1 4.100000e-01    2.200000e+00
 SN5dh  SC6v  1 4.100000e-01    2.200000e+00
 SN5dh  SC5v  1 4.100000e-01    2.040000e+00
 SN5dh  SC4v  1 4.100000e-01    1.910000e+00
 SN5dh  SC3v  1 4.100000e-01    1.910000e+00
 SN5dh  SC2v  1 4.100000e-01    1.750000e+00
 SN5dh  SC1v  1 4.140000e-01    1.560000e+00
 SN5dh  SX4v  1 4.100000e-01    2.350000e+00
 SN5dh  SX3v  1 4.100000e-01    2.200000e+00
 SN5dh  SX2v  1 4.100000e-01    2.040000e+00
 SN5dh  SX1v  1 4.100000e-01    1.910000e+00
 SN5dh  SN4q  1 4.100000e-01    3.310000e+00
 SN5dh  SN3q  1 4.100000e-01    3.070000e+00
 SN5dh  SN2q  1 4.100000e-01    3.070000e+00
 SN5dh  SN1q  1 4.100000e-01    2.840000e+00
 SN5dh  SC6q  1 4.100000e-01    2.840000e+00
 SN5dh  SC5q  1 4.100000e-01    2.600000e+00
 SN5dh  SC4q  1 4.100000e-01    2.350000e+00
 SN5dh  SC3q  1 4.100000e-01    2.350000e+00
 SN5dh  SC2q  1 4.100000e-01    2.200000e+00
 SN5dh  SC1q  1 4.100000e-01    2.040000e+00
 SN5dh  SX4q  1 4.100000e-01    3.070000e+00
 SN5dh  SX3q  1 4.100000e-01    2.840000e+00
 SN5dh  SX2q  1 4.100000e-01    2.600000e+00
 SN5dh  SX1q  1 4.100000e-01    2.350000e+00
 SN4dh  SN3d  1 4.100000e-01    2.350000e+00
 SN4dh  SN2d  1 4.100000e-01    2.350000e+00
 SN4dh  SN1d  1 4.100000e-01    2.200000e+00
 SN4dh  SN4a  1 4.100000e-01    3.070000e+00
 SN4dh  SN3a  1 4.100000e-01    2.840000e+00
 SN4dh  SN2a  1 4.100000e-01    2.840000e+00
 SN4dh  SN1a  1 4.100000e-01    2.600000e+00
 SN4dh  SC6e  1 4.100000e-01    2.600000e+00
 SN4dh  SC5e  1 4.100000e-01    2.350000e+00
 SN4dh  SC4e  1 4.100000e-01    2.350000e+00
 SN4dh  SC3e  1 4.100000e-01    2.200000e+00
 SN4dh  SC2e  1 4.100000e-01    2.040000e+00
 SN4dh  SC1e  1 4.100000e-01    1.910000e+00
 SN4dh  SX4e  1 4.100000e-01    3.070000e+00
 SN4dh  SX3e  1 4.100000e-01    2.840000e+00
 SN4dh  SX2e  1 4.100000e-01    2.350000e+00
 SN4dh  SX1e  1 4.100000e-01    2.200000e+00
 SN4dh  SC6v  1 4.100000e-01    2.200000e+00
 SN4dh  SC5v  1 4.100000e-01    2.040000e+00
 SN4dh  SC4v  1 4.100000e-01    2.040000e+00
 SN4dh  SC3v  1 4.100000e-01    1.910000e+00
 SN4dh  SC2v  1 4.100000e-01    1.750000e+00
 SN4dh  SC1v  1 4.140000e-01    1.560000e+00
 SN4dh  SX4v  1 4.100000e-01    2.600000e+00
 SN4dh  SX3v  1 4.100000e-01    2.350000e+00
 SN4dh  SX2v  1 4.100000e-01    2.040000e+00
 SN4dh  SX1v  1 4.100000e-01    1.910000e+00
 SN4dh  SN3q  1 4.100000e-01    3.070000e+00
 SN4dh  SN2q  1 4.100000e-01    3.070000e+00
 SN4dh  SN1q  1 4.100000e-01    2.840000e+00
 SN4dh  SC6q  1 4.100000e-01    2.840000e+00
 SN4dh  SC5q  1 4.100000e-01    2.600000e+00
 SN4dh  SC4q  1 4.100000e-01    2.600000e+00
 SN4dh  SC3q  1 4.100000e-01    2.350000e+00
 SN4dh  SC2q  1 4.100000e-01    2.200000e+00
 SN4dh  SC1q  1 4.100000e-01    2.040000e+00
 SN4dh  SX4q  1 4.100000e-01    3.310000e+00
 SN4dh  SX3q  1 4.100000e-01    3.070000e+00
 SN4dh  SX2q  1 4.100000e-01    2.600000e+00
 SN4dh  SX1q  1 4.100000e-01    2.350000e+00
 SN3dh  SN2d  1 4.100000e-01    2.350000e+00
 SN3dh  SN1d  1 4.100000e-01    2.200000e+00
 SN3dh  SN3a  1 4.100000e-01    2.840000e+00
 SN3dh  SN2a  1 4.100000e-01    2.840000e+00
 SN3dh  SN1a  1 4.100000e-01    2.600000e+00
 SN3dh  SC6e  1 4.100000e-01    2.600000e+00
 SN3dh  SC5e  1 4.100000e-01    2.350000e+00
 SN3dh  SC4e  1 4.100000e-01    2.350000e+00
 SN3dh  SC3e  1 4.100000e-01    2.200000e+00
 SN3dh  SC2e  1 4.100000e-01    2.200000e+00
 SN3dh  SC1e  1 4.100000e-01    2.040000e+00
 SN3dh  SX4e  1 4.100000e-01    2.840000e+00
 SN3dh  SX3e  1 4.100000e-01    2.600000e+00
 SN3dh  SX2e  1 4.100000e-01    2.350000e+00
 SN3dh  SX1e  1 4.100000e-01    2.350000e+00
 SN3dh  SC6v  1 4.100000e-01    2.200000e+00
 SN3dh  SC5v  1 4.100000e-01    2.040000e+00
 SN3dh  SC4v  1 4.100000e-01    2.040000e+00
 SN3dh  SC3v  1 4.100000e-01    1.910000e+00
 SN3dh  SC2v  1 4.100000e-01    1.910000e+00
 SN3dh  SC1v  1 4.100000e-01    1.750000e+00
 SN3dh  SX4v  1 4.100000e-01    2.350000e+00
 SN3dh  SX3v  1 4.100000e-01    2.200000e+00
 SN3dh  SX2v  1 4.100000e-01    2.040000e+00
 SN3dh  SX1v  1 4.100000e-01    2.040000e+00
 SN3dh  SN2q  1 4.100000e-01    3.070000e+00
 SN3dh  SN1q  1 4.100000e-01    2.840000e+00
 SN3dh  SC6q  1 4.100000e-01    2.840000e+00
 SN3dh  SC5q  1 4.100000e-01    2.600000e+00
 SN3dh  SC4q  1 4.100000e-01    2.600000e+00
 SN3dh  SC3q  1 4.100000e-01    2.350000e+00
 SN3dh  SC2q  1 4.100000e-01    2.350000e+00
 SN3dh  SC1q  1 4.100000e-01    2.200000e+00
 SN3dh  SX4q  1 4.100000e-01    3.070000e+00
 SN3dh  SX3q  1 4.100000e-01    2.840000e+00
 SN3dh  SX2q  1 4.100000e-01    2.600000e+00
 SN3dh  SX1q  1 4.100000e-01    2.600000e+00
 SN2dh  SN1d  1 4.100000e-01    2.200000e+00
 SN2dh  SN2a  1 4.100000e-01    2.840000e+00
 SN2dh  SN1a  1 4.100000e-01    2.600000e+00
 SN2dh  SC6e  1 4.100000e-01    2.600000e+00
 SN2dh  SC5e  1 4.100000e-01    2.350000e+00
 SN2dh  SC4e  1 4.100000e-01    2.350000e+00
 SN2dh  SC3e  1 4.100000e-01    2.350000e+00
 SN2dh  SC2e  1 4.100000e-01    2.200000e+00
 SN2dh  SC1e  1 4.100000e-01    2.040000e+00
 SN2dh  SX4e  1 4.100000e-01    2.840000e+00
 SN2dh  SX3e  1 4.100000e-01    2.600000e+00
 SN2dh  SX2e  1 4.100000e-01    2.350000e+00
 SN2dh  SX1e  1 4.100000e-01    2.350000e+00
 SN2dh  SC6v  1 4.100000e-01    2.200000e+00
 SN2dh  SC5v  1 4.100000e-01    2.040000e+00
 SN2dh  SC4v  1 4.100000e-01    2.040000e+00
 SN2dh  SC3v  1 4.100000e-01    2.040000e+00
 SN2dh  SC2v  1 4.100000e-01    1.910000e+00
 SN2dh  SC1v  1 4.100000e-01    1.750000e+00
 SN2dh  SX4v  1 4.100000e-01    2.350000e+00
 SN2dh  SX3v  1 4.100000e-01    2.200000e+00
 SN2dh  SX2v  1 4.100000e-01    2.040000e+00
 SN2dh  SX1v  1 4.100000e-01    2.040000e+00
 SN2dh  SN1q  1 4.100000e-01    2.840000e+00
 SN2dh  SC6q  1 4.100000e-01    2.840000e+00
 SN2dh  SC5q  1 4.100000e-01    2.600000e+00
 SN2dh  SC4q  1 4.100000e-01    2.600000e+00
 SN2dh  SC3q  1 4.100000e-01    2.600000e+00
 SN2dh  SC2q  1 4.100000e-01    2.350000e+00
 SN2dh  SC1q  1 4.100000e-01    2.200000e+00
 SN2dh  SX4q  1 4.100000e-01    3.070000e+00
 SN2dh  SX3q  1 4.100000e-01    2.840000e+00
 SN2dh  SX2q  1 4.100000e-01    2.600000e+00
 SN2dh  SX1q  1 4.100000e-01    2.600000e+00
 SN1dh  SN1a  1 4.100000e-01    2.840000e+00
 SN1dh  SC6e  1 4.100000e-01    2.840000e+00
 SN1dh  SC5e  1 4.100000e-01    2.600000e+00
 SN1dh  SC4e  1 4.100000e-01    2.600000e+00
 SN1dh  SC3e  1 4.100000e-01    2.350000e+00
 SN1dh  SC2e  1 4.100000e-01    2.200000e+00
 SN1dh  SC1e  1 4.100000e-01    2.040000e+00
 SN1dh  SX4e  1 4.100000e-01    2.600000e+00
 SN1dh  SX3e  1 4.100000e-01    2.600000e+00
 SN1dh  SX2e  1 4.100000e-01    2.350000e+00
 SN1dh  SX1e  1 4.100000e-01    2.350000e+00
 SN1dh  SC6v  1 4.100000e-01    2.350000e+00
 SN1dh  SC5v  1 4.100000e-01    2.200000e+00
 SN1dh  SC4v  1 4.100000e-01    2.200000e+00
 SN1dh  SC3v  1 4.100000e-01    2.040000e+00
 SN1dh  SC2v  1 4.100000e-01    1.910000e+00
 SN1dh  SC1v  1 4.100000e-01    1.750000e+00
 SN1dh  SX4v  1 4.100000e-01    2.200000e+00
 SN1dh  SX3v  1 4.100000e-01    2.200000e+00
 SN1dh  SX2v  1 4.100000e-01    2.040000e+00
 SN1dh  SX1v  1 4.100000e-01    2.040000e+00
 SN1dh  SC6q  1 4.100000e-01    3.070000e+00
 SN1dh  SC5q  1 4.100000e-01    2.840000e+00
 SN1dh  SC4q  1 4.100000e-01    2.840000e+00
 SN1dh  SC3q  1 4.100000e-01    2.600000e+00
 SN1dh  SC2q  1 4.100000e-01    2.350000e+00
 SN1dh  SC1q  1 4.100000e-01    2.200000e+00
 SN1dh  SX4q  1 4.100000e-01    2.840000e+00
 SN1dh  SX3q  1 4.100000e-01    2.840000e+00
 SN1dh  SX2q  1 4.100000e-01    2.600000e+00
 SN1dh  SX1q  1 4.100000e-01    2.600000e+00
 SP6ah  SP5a  1 4.100000e-01    3.820000e+00
 SP6ah  SP4a  1 4.100000e-01    3.550000e+00
 SP6ah  SP3a  1 4.100000e-01    3.310000e+00
 SP6ah  SP2a  1 4.100000e-01    3.310000e+00
 SP6ah  SP1a  1 4.100000e-01    3.070000e+00
 SP6ah  SN6a  1 4.100000e-01    2.840000e+00
 SP6ah  SN5a  1 4.100000e-01    2.350000e+00
 SP6ah  SN4a  1 4.100000e-01    2.200000e+00
 SP6ah  SN3a  1 4.100000e-01    2.200000e+00
 SP6ah  SN2a  1 4.100000e-01    2.040000e+00
 SP6ah  SN1a  1 4.100000e-01    1.910000e+00
 SP6ah  SC6v  1 4.100000e-01    2.040000e+00
 SP6ah  SC5v  1 4.100000e-01    1.910000e+00
 SP6ah  SC4v  1 4.100000e-01    1.750000e+00
 SP6ah  SC3v  1 4.140000e-01    1.560000e+00
 SP6ah  SC2v  1 4.140000e-01    1.560000e+00
 SP6ah  SC1v  1 4.210000e-01    1.250000e+00
 SP6ah  SX4v  1 4.100000e-01    2.200000e+00
 SP6ah  SX3v  1 4.100000e-01    2.200000e+00
 SP6ah  SX2v  1 4.100000e-01    2.040000e+00
 SP6ah  SX1v  1 4.100000e-01    1.910000e+00
 SP6ah  SC6e  1 4.100000e-01    1.750000e+00
 SP6ah  SC5e  1 4.140000e-01    1.560000e+00
 SP6ah  SC4e  1 4.180000e-01    1.400000e+00
 SP6ah  SC3e  1 4.210000e-01    1.250000e+00
 SP6ah  SC2e  1 4.210000e-01    1.250000e+00
 SP6ah  SC1e  1 4.960000e-01    1.050000e+00
 SP6ah  SX4e  1 4.100000e-01    1.910000e+00
 SP6ah  SX3e  1 4.100000e-01    1.910000e+00
 SP6ah  SX2e  1 4.100000e-01    1.750000e+00
 SP6ah  SX1e  1 4.140000e-01    1.560000e+00
 SP6ah  SP5q  1 4.100000e-01    4.550000e+00
 SP6ah  SP4q  1 4.100000e-01    4.290000e+00
 SP6ah  SP3q  1 4.100000e-01    4.040000e+00
 SP6ah  SP2q  1 4.100000e-01    4.040000e+00
 SP6ah  SP1q  1 4.100000e-01    3.820000e+00
 SP6ah  SN6q  1 4.100000e-01    3.550000e+00
 SP6ah  SN5q  1 4.100000e-01    3.070000e+00
 SP6ah  SN4q  1 4.100000e-01    2.840000e+00
 SP6ah  SN3q  1 4.100000e-01    2.600000e+00
 SP6ah  SN2q  1 4.100000e-01    2.350000e+00
 SP6ah  SN1q  1 4.100000e-01    2.200000e+00
 SP6ah  SC6q  1 4.100000e-01    2.200000e+00
 SP6ah  SC5q  1 4.100000e-01    2.040000e+00
 SP6ah  SC4q  1 4.100000e-01    1.910000e+00
 SP6ah  SC3q  1 4.100000e-01    1.750000e+00
 SP6ah  SC2q  1 4.100000e-01    1.750000e+00
 SP6ah  SC1q  1 4.180000e-01    1.400000e+00
 SP6ah  SX4q  1 4.100000e-01    2.350000e+00
 SP6ah  SX3q  1 4.100000e-01    2.350000e+00
 SP6ah  SX2q  1 4.100000e-01    2.200000e+00
 SP6ah  SX1q  1 4.100000e-01    2.040000e+00
 SP5ah  SP4a  1 4.100000e-01    3.310000e+00
 SP5ah  SP3a  1 4.100000e-01    3.070000e+00
 SP5ah  SP2a  1 4.100000e-01    3.070000e+00
 SP5ah  SP1a  1 4.100000e-01    2.840000e+00
 SP5ah  SN6a  1 4.100000e-01    2.600000e+00
 SP5ah  SN5a  1 4.100000e-01    2.350000e+00
 SP5ah  SN4a  1 4.100000e-01    2.350000e+00
 SP5ah  SN3a  1 4.100000e-01    2.200000e+00
 SP5ah  SN2a  1 4.100000e-01    2.040000e+00
 SP5ah  SN1a  1 4.100000e-01    1.910000e+00
 SP5ah  SC6v  1 4.100000e-01    2.040000e+00
 SP5ah  SC5v  1 4.100000e-01    2.040000e+00
 SP5ah  SC4v  1 4.100000e-01    1.910000e+00
 SP5ah  SC3v  1 4.100000e-01    1.750000e+00
 SP5ah  SC2v  1 4.100000e-01    1.750000e+00
 SP5ah  SC1v  1 4.140000e-01    1.560000e+00
 SP5ah  SX4v  1 4.100000e-01    2.350000e+00
 SP5ah  SX3v  1 4.100000e-01    2.200000e+00
 SP5ah  SX2v  1 4.100000e-01    2.200000e+00
 SP5ah  SX1v  1 4.100000e-01    1.910000e+00
 SP5ah  SC6e  1 4.100000e-01    1.750000e+00
 SP5ah  SC5e  1 4.100000e-01    1.750000e+00
 SP5ah  SC4e  1 4.140000e-01    1.560000e+00
 SP5ah  SC3e  1 4.180000e-01    1.400000e+00
 SP5ah  SC2e  1 4.180000e-01    1.400000e+00
 SP5ah  SC1e  1 4.210000e-01    1.250000e+00
 SP5ah  SX4e  1 4.100000e-01    2.040000e+00
 SP5ah  SX3e  1 4.100000e-01    1.910000e+00
 SP5ah  SX2e  1 4.100000e-01    1.910000e+00
 SP5ah  SX1e  1 4.140000e-01    1.560000e+00
 SP5ah  SP4q  1 4.100000e-01    4.040000e+00
 SP5ah  SP3q  1 4.100000e-01    3.820000e+00
 SP5ah  SP2q  1 4.100000e-01    3.820000e+00
 SP5ah  SP1q  1 4.100000e-01    3.550000e+00
 SP5ah  SN6q  1 4.100000e-01    3.310000e+00
 SP5ah  SN5q  1 4.100000e-01    3.070000e+00
 SP5ah  SN4q  1 4.100000e-01    3.070000e+00
 SP5ah  SN3q  1 4.100000e-01    2.600000e+00
 SP5ah  SN2q  1 4.100000e-01    2.350000e+00
 SP5ah  SN1q  1 4.100000e-01    2.200000e+00
 SP5ah  SC6q  1 4.100000e-01    2.200000e+00
 SP5ah  SC5q  1 4.100000e-01    2.200000e+00
 SP5ah  SC4q  1 4.100000e-01    2.040000e+00
 SP5ah  SC3q  1 4.100000e-01    1.910000e+00
 SP5ah  SC2q  1 4.100000e-01    1.910000e+00
 SP5ah  SC1q  1 4.100000e-01    1.750000e+00
 SP5ah  SX4q  1 4.100000e-01    2.600000e+00
 SP5ah  SX3q  1 4.100000e-01    2.350000e+00
 SP5ah  SX2q  1 4.100000e-01    2.350000e+00
 SP5ah  SX1q  1 4.100000e-01    2.040000e+00
 SP4ah  SP3a  1 4.100000e-01    3.070000e+00
 SP4ah  SP2a  1 4.100000e-01    3.070000e+00
 SP4ah  SP1a  1 4.100000e-01    2.840000e+00
 SP4ah  SN6a  1 4.100000e-01    2.600000e+00
 SP4ah  SN5a  1 4.100000e-01    2.350000e+00
 SP4ah  SN4a  1 4.100000e-01    2.350000e+00
 SP4ah  SN3a  1 4.100000e-01    2.200000e+00
 SP4ah  SN2a  1 4.100000e-01    2.200000e+00
 SP4ah  SN1a  1 4.100000e-01    2.040000e+00
 SP4ah  SC6v  1 4.100000e-01    2.200000e+00
 SP4ah  SC5v  1 4.100000e-01    2.040000e+00
 SP4ah  SC4v  1 4.100000e-01    1.910000e+00
 SP4ah  SC3v  1 4.100000e-01    1.750000e+00
 SP4ah  SC2v  1 4.100000e-01    1.750000e+00
 SP4ah  SC1v  1 4.140000e-01    1.560000e+00
 SP4ah  SX4v  1 4.100000e-01    2.350000e+00
 SP4ah  SX3v  1 4.100000e-01    2.200000e+00
 SP4ah  SX2v  1 4.100000e-01    2.200000e+00
 SP4ah  SX1v  1 4.100000e-01    2.040000e+00
 SP4ah  SC6e  1 4.100000e-01    1.910000e+00
 SP4ah  SC5e  1 4.100000e-01    1.750000e+00
 SP4ah  SC4e  1 4.140000e-01    1.560000e+00
 SP4ah  SC3e  1 4.180000e-01    1.400000e+00
 SP4ah  SC2e  1 4.180000e-01    1.400000e+00
 SP4ah  SC1e  1 4.210000e-01    1.250000e+00
 SP4ah  SX4e  1 4.100000e-01    2.040000e+00
 SP4ah  SX3e  1 4.100000e-01    1.910000e+00
 SP4ah  SX2e  1 4.100000e-01    1.910000e+00
 SP4ah  SX1e  1 4.100000e-01    1.750000e+00
 SP4ah  SP3q  1 4.100000e-01    3.820000e+00
 SP4ah  SP2q  1 4.100000e-01    3.820000e+00
 SP4ah  SP1q  1 4.100000e-01    3.550000e+00
 SP4ah  SN6q  1 4.100000e-01    3.310000e+00
 SP4ah  SN5q  1 4.100000e-01    3.070000e+00
 SP4ah  SN4q  1 4.100000e-01    3.070000e+00
 SP4ah  SN3q  1 4.100000e-01    2.840000e+00
 SP4ah  SN2q  1 4.100000e-01    2.600000e+00
 SP4ah  SN1q  1 4.100000e-01    2.350000e+00
 SP4ah  SC6q  1 4.100000e-01    2.350000e+00
 SP4ah  SC5q  1 4.100000e-01    2.200000e+00
 SP4ah  SC4q  1 4.100000e-01    2.040000e+00
 SP4ah  SC3q  1 4.100000e-01    1.910000e+00
 SP4ah  SC2q  1 4.100000e-01    1.910000e+00
 SP4ah  SC1q  1 4.100000e-01    1.750000e+00
 SP4ah  SX4q  1 4.100000e-01    2.600000e+00
 SP4ah  SX3q  1 4.100000e-01    2.350000e+00
 SP4ah  SX2q  1 4.100000e-01    2.350000e+00
 SP4ah  SX1q  1 4.100000e-01    2.200000e+00
 SP3ah  SP2a  1 4.100000e-01    3.070000e+00
 SP3ah  SP1a  1 4.100000e-01    2.840000e+00
 SP3ah  SN6a  1 4.100000e-01    2.600000e+00
 SP3ah  SN5a  1 4.100000e-01    2.350000e+00
 SP3ah  SN4a  1 4.100000e-01    2.350000e+00
 SP3ah  SN3a  1 4.100000e-01    2.200000e+00
 SP3ah  SN2a  1 4.100000e-01    2.200000e+00
 SP3ah  SN1a  1 4.100000e-01    2.200000e+00
 SP3ah  SC6v  1 4.100000e-01    2.350000e+00
 SP3ah  SC5v  1 4.100000e-01    2.200000e+00
 SP3ah  SC4v  1 4.100000e-01    2.040000e+00
 SP3ah  SC3v  1 4.100000e-01    1.750000e+00
 SP3ah  SC2v  1 4.100000e-01    1.750000e+00
 SP3ah  SC1v  1 4.140000e-01    1.560000e+00
 SP3ah  SX4v  1 4.100000e-01    2.350000e+00
 SP3ah  SX3v  1 4.100000e-01    2.350000e+00
 SP3ah  SX2v  1 4.100000e-01    2.200000e+00
 SP3ah  SX1v  1 4.100000e-01    2.040000e+00
 SP3ah  SC6e  1 4.100000e-01    2.040000e+00
 SP3ah  SC5e  1 4.100000e-01    1.910000e+00
 SP3ah  SC4e  1 4.100000e-01    1.750000e+00
 SP3ah  SC3e  1 4.180000e-01    1.400000e+00
 SP3ah  SC2e  1 4.180000e-01    1.400000e+00
 SP3ah  SC1e  1 4.210000e-01    1.250000e+00
 SP3ah  SX4e  1 4.100000e-01    2.040000e+00
 SP3ah  SX3e  1 4.100000e-01    2.040000e+00
 SP3ah  SX2e  1 4.100000e-01    1.910000e+00
 SP3ah  SX1e  1 4.100000e-01    1.750000e+00
 SP3ah  SP2q  1 4.100000e-01    3.820000e+00
 SP3ah  SP1q  1 4.100000e-01    3.550000e+00
 SP3ah  SN6q  1 4.100000e-01    3.310000e+00
 SP3ah  SN5q  1 4.100000e-01    3.070000e+00
 SP3ah  SN4q  1 4.100000e-01    3.070000e+00
 SP3ah  SN3q  1 4.100000e-01    2.840000e+00
 SP3ah  SN2q  1 4.100000e-01    2.840000e+00
 SP3ah  SN1q  1 4.100000e-01    2.600000e+00
 SP3ah  SC6q  1 4.100000e-01    2.600000e+00
 SP3ah  SC5q  1 4.100000e-01    2.350000e+00
 SP3ah  SC4q  1 4.100000e-01    2.200000e+00
 SP3ah  SC3q  1 4.100000e-01    1.910000e+00
 SP3ah  SC2q  1 4.100000e-01    1.910000e+00
 SP3ah  SC1q  1 4.100000e-01    1.750000e+00
 SP3ah  SX4q  1 4.100000e-01    2.600000e+00
 SP3ah  SX3q  1 4.100000e-01    2.600000e+00
 SP3ah  SX2q  1 4.100000e-01    2.350000e+00
 SP3ah  SX1q  1 4.100000e-01    2.200000e+00
 SP2ah  SP1a  1 4.100000e-01    2.840000e+00
 SP2ah  SN6a  1 4.100000e-01    2.840000e+00
 SP2ah  SN5a  1 4.100000e-01    2.600000e+00
 SP2ah  SN4a  1 4.100000e-01    2.350000e+00
 SP2ah  SN3a  1 4.100000e-01    2.200000e+00
 SP2ah  SN2a  1 4.100000e-01    2.200000e+00
 SP2ah  SN1a  1 4.100000e-01    2.200000e+00
 SP2ah  SC6v  1 4.100000e-01    2.350000e+00
 SP2ah  SC5v  1 4.100000e-01    2.200000e+00
 SP2ah  SC4v  1 4.100000e-01    2.040000e+00
 SP2ah  SC3v  1 4.100000e-01    1.910000e+00
 SP2ah  SC2v  1 4.100000e-01    1.910000e+00
 SP2ah  SC1v  1 4.100000e-01    1.750000e+00
 SP2ah  SX4v  1 4.100000e-01    2.350000e+00
 SP2ah  SX3v  1 4.100000e-01    2.350000e+00
 SP2ah  SX2v  1 4.100000e-01    2.200000e+00
 SP2ah  SX1v  1 4.100000e-01    2.040000e+00
 SP2ah  SC6e  1 4.100000e-01    2.040000e+00
 SP2ah  SC5e  1 4.100000e-01    1.910000e+00
 SP2ah  SC4e  1 4.100000e-01    1.750000e+00
 SP2ah  SC3e  1 4.140000e-01    1.560000e+00
 SP2ah  SC2e  1 4.140000e-01    1.560000e+00
 SP2ah  SC1e  1 4.180000e-01    1.400000e+00
 SP2ah  SX4e  1 4.100000e-01    2.040000e+00
 SP2ah  SX3e  1 4.100000e-01    2.040000e+00
 SP2ah  SX2e  1 4.100000e-01    1.910000e+00
 SP2ah  SX1e  1 4.100000e-01    1.750000e+00
 SP2ah  SP1q  1 4.100000e-01    3.550000e+00
 SP2ah  SN6q  1 4.100000e-01    3.550000e+00
 SP2ah  SN5q  1 4.100000e-01    3.310000e+00
 SP2ah  SN4q  1 4.100000e-01    3.070000e+00
 SP2ah  SN3q  1 4.100000e-01    2.840000e+00
 SP2ah  SN2q  1 4.100000e-01    2.840000e+00
 SP2ah  SN1q  1 4.100000e-01    2.840000e+00
 SP2ah  SC6q  1 4.100000e-01    2.600000e+00
 SP2ah  SC5q  1 4.100000e-01    2.350000e+00
 SP2ah  SC4q  1 4.100000e-01    2.200000e+00
 SP2ah  SC3q  1 4.100000e-01    2.040000e+00
 SP2ah  SC2q  1 4.100000e-01    2.040000e+00
 SP2ah  SC1q  1 4.100000e-01    1.910000e+00
 SP2ah  SX4q  1 4.100000e-01    2.600000e+00
 SP2ah  SX3q  1 4.100000e-01    2.600000e+00
 SP2ah  SX2q  1 4.100000e-01    2.350000e+00
 SP2ah  SX1q  1 4.100000e-01    2.200000e+00
 SP1ah  SN6a  1 4.100000e-01    2.840000e+00
 SP1ah  SN5a  1 4.100000e-01    2.600000e+00
 SP1ah  SN4a  1 4.100000e-01    2.600000e+00
 SP1ah  SN3a  1 4.100000e-01    2.200000e+00
 SP1ah  SN2a  1 4.100000e-01    2.200000e+00
 SP1ah  SN1a  1 4.100000e-01    2.200000e+00
 SP1ah  SC6v  1 4.100000e-01    2.350000e+00
 SP1ah  SC5v  1 4.100000e-01    2.200000e+00
 SP1ah  SC4v  1 4.100000e-01    2.040000e+00
 SP1ah  SC3v  1 4.100000e-01    1.910000e+00
 SP1ah  SC2v  1 4.100000e-01    1.910000e+00
 SP1ah  SC1v  1 4.100000e-01    1.750000e+00
 SP1ah  SX4v  1 4.100000e-01    2.350000e+00
 SP1ah  SX3v  1 4.100000e-01    2.350000e+00
 SP1ah  SX2v  1 4.100000e-01    2.200000e+00
 SP1ah  SX1v  1 4.100000e-01    2.040000e+00
 SP1ah  SC6e  1 4.100000e-01    2.040000e+00
 SP1ah  SC5e  1 4.100000e-01    1.910000e+00
 SP1ah  SC4e  1 4.100000e-01    1.750000e+00
 SP1ah  SC3e  1 4.140000e-01    1.560000e+00
 SP1ah  SC2e  1 4.140000e-01    1.560000e+00
 SP1ah  SC1e  1 4.180000e-01    1.400000e+00
 SP1ah  SX4e  1 4.100000e-01    2.040000e+00
 SP1ah  SX3e  1 4.100000e-01    2.040000e+00
 SP1ah  SX2e  1 4.100000e-01    1.910000e+00
 SP1ah  SX1e  1 4.100000e-01    1.750000e+00
 SP1ah  SN6q  1 4.100000e-01    3.550000e+00
 SP1ah  SN5q  1 4.100000e-01    3.310000e+00
 SP1ah  SN4q  1 4.100000e-01    3.310000e+00
 SP1ah  SN3q  1 4.100000e-01    2.840000e+00
 SP1ah  SN2q  1 4.100000e-01    2.840000e+00
 SP1ah  SN1q  1 4.100000e-01    2.840000e+00
 SP1ah  SC6q  1 4.100000e-01    2.600000e+00
 SP1ah  SC5q  1 4.100000e-01    2.350000e+00
 SP1ah  SC4q  1 4.100000e-01    2.200000e+00
 SP1ah  SC3q  1 4.100000e-01    2.040000e+00
 SP1ah  SC2q  1 4.100000e-01    2.040000e+00
 SP1ah  SC1q  1 4.100000e-01    1.910000e+00
 SP1ah  SX4q  1 4.100000e-01    2.600000e+00
 SP1ah  SX3q  1 4.100000e-01    2.600000e+00
 SP1ah  SX2q  1 4.100000e-01    2.350000e+00
 SP1ah  SX1q  1 4.100000e-01    2.200000e+00
 SN6ah  SN5a  1 4.100000e-01    2.840000e+00
 SN6ah  SN4a  1 4.100000e-01    2.840000e+00
 SN6ah  SN3a  1 4.100000e-01    2.350000e+00
 SN6ah  SN2a  1 4.100000e-01    2.200000e+00
 SN6ah  SN1a  1 4.100000e-01    2.200000e+00
 SN6ah  SC6v  1 4.100000e-01    2.600000e+00
 SN6ah  SC5v  1 4.100000e-01    2.350000e+00
 SN6ah  SC4v  1 4.100000e-01    2.200000e+00
 SN6ah  SC3v  1 4.100000e-01    2.040000e+00
 SN6ah  SC2v  1 4.100000e-01    2.040000e+00
 SN6ah  SC1v  1 4.100000e-01    1.910000e+00
 SN6ah  SX4v  1 4.100000e-01    2.600000e+00
 SN6ah  SX3v  1 4.100000e-01    2.350000e+00
 SN6ah  SX2v  1 4.100000e-01    2.200000e+00
 SN6ah  SX1v  1 4.100000e-01    2.040000e+00
 SN6ah  SC6e  1 4.100000e-01    2.200000e+00
 SN6ah  SC5e  1 4.100000e-01    2.040000e+00
 SN6ah  SC4e  1 4.100000e-01    1.910000e+00
 SN6ah  SC3e  1 4.100000e-01    1.750000e+00
 SN6ah  SC2e  1 4.100000e-01    1.750000e+00
 SN6ah  SC1e  1 4.140000e-01    1.560000e+00
 SN6ah  SX4e  1 4.100000e-01    2.200000e+00
 SN6ah  SX3e  1 4.100000e-01    2.040000e+00
 SN6ah  SX2e  1 4.100000e-01    1.910000e+00
 SN6ah  SX1e  1 4.100000e-01    1.750000e+00
 SN6ah  SN5q  1 4.100000e-01    3.550000e+00
 SN6ah  SN4q  1 4.100000e-01    3.550000e+00
 SN6ah  SN3q  1 4.100000e-01    3.070000e+00
 SN6ah  SN2q  1 4.100000e-01    2.840000e+00
 SN6ah  SN1q  1 4.100000e-01    2.840000e+00
 SN6ah  SC6q  1 4.100000e-01    2.840000e+00
 SN6ah  SC5q  1 4.100000e-01    2.600000e+00
 SN6ah  SC4q  1 4.100000e-01    2.350000e+00
 SN6ah  SC3q  1 4.100000e-01    2.200000e+00
 SN6ah  SC2q  1 4.100000e-01    2.200000e+00
 SN6ah  SC1q  1 4.100000e-01    2.040000e+00
 SN6ah  SX4q  1 4.100000e-01    2.840000e+00
 SN6ah  SX3q  1 4.100000e-01    2.600000e+00
 SN6ah  SX2q  1 4.100000e-01    2.350000e+00
 SN6ah  SX1q  1 4.100000e-01    2.200000e+00
 SN5ah  SN4a  1 4.100000e-01    2.600000e+00
 SN5ah  SN3a  1 4.100000e-01    2.350000e+00
 SN5ah  SN2a  1 4.100000e-01    2.350000e+00
 SN5ah  SN1a  1 4.100000e-01    2.200000e+00
 SN5ah  SC6v  1 4.100000e-01    2.600000e+00
 SN5ah  SC5v  1 4.100000e-01    2.350000e+00
 SN5ah  SC4v  1 4.100000e-01    2.200000e+00
 SN5ah  SC3v  1 4.100000e-01    2.200000e+00
 SN5ah  SC2v  1 4.100000e-01    2.040000e+00
 SN5ah  SC1v  1 4.100000e-01    1.910000e+00
 SN5ah  SX4v  1 4.100000e-01    2.840000e+00
 SN5ah  SX3v  1 4.100000e-01    2.600000e+00
 SN5ah  SX2v  1 4.100000e-01    2.350000e+00
 SN5ah  SX1v  1 4.100000e-01    2.200000e+00
 SN5ah  SC6e  1 4.100000e-01    2.200000e+00
 SN5ah  SC5e  1 4.100000e-01    2.040000e+00
 SN5ah  SC4e  1 4.100000e-01    1.910000e+00
 SN5ah  SC3e  1 4.100000e-01    1.910000e+00
 SN5ah  SC2e  1 4.100000e-01    1.750000e+00
 SN5ah  SC1e  1 4.140000e-01    1.560000e+00
 SN5ah  SX4e  1 4.100000e-01    2.350000e+00
 SN5ah  SX3e  1 4.100000e-01    2.200000e+00
 SN5ah  SX2e  1 4.100000e-01    2.040000e+00
 SN5ah  SX1e  1 4.100000e-01    1.910000e+00
 SN5ah  SN4q  1 4.100000e-01    3.310000e+00
 SN5ah  SN3q  1 4.100000e-01    3.070000e+00
 SN5ah  SN2q  1 4.100000e-01    3.070000e+00
 SN5ah  SN1q  1 4.100000e-01    2.840000e+00
 SN5ah  SC6q  1 4.100000e-01    2.840000e+00
 SN5ah  SC5q  1 4.100000e-01    2.600000e+00
 SN5ah  SC4q  1 4.100000e-01    2.350000e+00
 SN5ah  SC3q  1 4.100000e-01    2.350000e+00
 SN5ah  SC2q  1 4.100000e-01    2.200000e+00
 SN5ah  SC1q  1 4.100000e-01    2.040000e+00
 SN5ah  SX4q  1 4.100000e-01    3.070000e+00
 SN5ah  SX3q  1 4.100000e-01    2.840000e+00
 SN5ah  SX2q  1 4.100000e-01    2.600000e+00
 SN5ah  SX1q  1 4.100000e-01    2.350000e+00
 SN4ah  SN3a  1 4.100000e-01    2.350000e+00
 SN4ah  SN2a  1 4.100000e-01    2.350000e+00
 SN4ah  SN1a  1 4.100000e-01    2.200000e+00
 SN4ah  SC6v  1 4.100000e-01    2.600000e+00
 SN4ah  SC5v  1 4.100000e-01    2.350000e+00
 SN4ah  SC4v  1 4.100000e-01    2.350000e+00
 SN4ah  SC3v  1 4.100000e-01    2.200000e+00
 SN4ah  SC2v  1 4.100000e-01    2.040000e+00
 SN4ah  SC1v  1 4.100000e-01    1.910000e+00
 SN4ah  SX4v  1 4.100000e-01    3.070000e+00
 SN4ah  SX3v  1 4.100000e-01    2.840000e+00
 SN4ah  SX2v  1 4.100000e-01    2.350000e+00
 SN4ah  SX1v  1 4.100000e-01    2.200000e+00
 SN4ah  SC6e  1 4.100000e-01    2.200000e+00
 SN4ah  SC5e  1 4.100000e-01    2.040000e+00
 SN4ah  SC4e  1 4.100000e-01    2.040000e+00
 SN4ah  SC3e  1 4.100000e-01    1.910000e+00
 SN4ah  SC2e  1 4.100000e-01    1.750000e+00
 SN4ah  SC1e  1 4.140000e-01    1.560000e+00
 SN4ah  SX4e  1 4.100000e-01    2.600000e+00
 SN4ah  SX3e  1 4.100000e-01    2.350000e+00
 SN4ah  SX2e  1 4.100000e-01    2.040000e+00
 SN4ah  SX1e  1 4.100000e-01    1.910000e+00
 SN4ah  SN3q  1 4.100000e-01    3.070000e+00
 SN4ah  SN2q  1 4.100000e-01    3.070000e+00
 SN4ah  SN1q  1 4.100000e-01    2.840000e+00
 SN4ah  SC6q  1 4.100000e-01    2.840000e+00
 SN4ah  SC5q  1 4.100000e-01    2.600000e+00
 SN4ah  SC4q  1 4.100000e-01    2.600000e+00
 SN4ah  SC3q  1 4.100000e-01    2.350000e+00
 SN4ah  SC2q  1 4.100000e-01    2.200000e+00
 SN4ah  SC1q  1 4.100000e-01    2.040000e+00
 SN4ah  SX4q  1 4.100000e-01    3.310000e+00
 SN4ah  SX3q  1 4.100000e-01    3.070000e+00
 SN4ah  SX2q  1 4.100000e-01    2.600000e+00
 SN4ah  SX1q  1 4.100000e-01    2.350000e+00
 SN3ah  SN2a  1 4.100000e-01    2.350000e+00
 SN3ah  SN1a  1 4.100000e-01    2.200000e+00
 SN3ah  SC6v  1 4.100000e-01    2.600000e+00
 SN3ah  SC5v  1 4.100000e-01    2.350000e+00
 SN3ah  SC4v  1 4.100000e-01    2.350000e+00
 SN3ah  SC3v  1 4.100000e-01    2.200000e+00
 SN3ah  SC2v  1 4.100000e-01    2.200000e+00
 SN3ah  SC1v  1 4.100000e-01    2.040000e+00
 SN3ah  SX4v  1 4.100000e-01    2.840000e+00
 SN3ah  SX3v  1 4.100000e-01    2.600000e+00
 SN3ah  SX2v  1 4.100000e-01    2.350000e+00
 SN3ah  SX1v  1 4.100000e-01    2.350000e+00
 SN3ah  SC6e  1 4.100000e-01    2.200000e+00
 SN3ah  SC5e  1 4.100000e-01    2.040000e+00
 SN3ah  SC4e  1 4.100000e-01    2.040000e+00
 SN3ah  SC3e  1 4.100000e-01    1.910000e+00
 SN3ah  SC2e  1 4.100000e-01    1.910000e+00
 SN3ah  SC1e  1 4.100000e-01    1.750000e+00
 SN3ah  SX4e  1 4.100000e-01    2.350000e+00
 SN3ah  SX3e  1 4.100000e-01    2.200000e+00
 SN3ah  SX2e  1 4.100000e-01    2.040000e+00
 SN3ah  SX1e  1 4.100000e-01    2.040000e+00
 SN3ah  SN2q  1 4.100000e-01    3.070000e+00
 SN3ah  SN1q  1 4.100000e-01    2.840000e+00
 SN3ah  SC6q  1 4.100000e-01    2.840000e+00
 SN3ah  SC5q  1 4.100000e-01    2.600000e+00
 SN3ah  SC4q  1 4.100000e-01    2.600000e+00
 SN3ah  SC3q  1 4.100000e-01    2.350000e+00
 SN3ah  SC2q  1 4.100000e-01    2.350000e+00
 SN3ah  SC1q  1 4.100000e-01    2.200000e+00
 SN3ah  SX4q  1 4.100000e-01    3.070000e+00
 SN3ah  SX3q  1 4.100000e-01    2.840000e+00
 SN3ah  SX2q  1 4.100000e-01    2.600000e+00
 SN3ah  SX1q  1 4.100000e-01    2.600000e+00
 SN2ah  SN1a  1 4.100000e-01    2.200000e+00
 SN2ah  SC6v  1 4.100000e-01    2.600000e+00
 SN2ah  SC5v  1 4.100000e-01    2.350000e+00
 SN2ah  SC4v  1 4.100000e-01    2.350000e+00
 SN2ah  SC3v  1 4.100000e-01    2.350000e+00
 SN2ah  SC2v  1 4.100000e-01    2.200000e+00
 SN2ah  SC1v  1 4.100000e-01    2.040000e+00
 SN2ah  SX4v  1 4.100000e-01    2.840000e+00
 SN2ah  SX3v  1 4.100000e-01    2.600000e+00
 SN2ah  SX2v  1 4.100000e-01    2.350000e+00
 SN2ah  SX1v  1 4.100000e-01    2.350000e+00
 SN2ah  SC6e  1 4.100000e-01    2.200000e+00
 SN2ah  SC5e  1 4.100000e-01    2.040000e+00
 SN2ah  SC4e  1 4.100000e-01    2.040000e+00
 SN2ah  SC3e  1 4.100000e-01    2.040000e+00
 SN2ah  SC2e  1 4.100000e-01    1.910000e+00
 SN2ah  SC1e  1 4.100000e-01    1.750000e+00
 SN2ah  SX4e  1 4.100000e-01    2.350000e+00
 SN2ah  SX3e  1 4.100000e-01    2.200000e+00
 SN2ah  SX2e  1 4.100000e-01    2.040000e+00
 SN2ah  SX1e  1 4.100000e-01    2.040000e+00
 SN2ah  SN1q  1 4.100000e-01    2.840000e+00
 SN2ah  SC6q  1 4.100000e-01    2.840000e+00
 SN2ah  SC5q  1 4.100000e-01    2.600000e+00
 SN2ah  SC4q  1 4.100000e-01    2.600000e+00
 SN2ah  SC3q  1 4.100000e-01    2.600000e+00
 SN2ah  SC2q  1 4.100000e-01    2.350000e+00
 SN2ah  SC1q  1 4.100000e-01    2.200000e+00
 SN2ah  SX4q  1 4.100000e-01    3.070000e+00
 SN2ah  SX3q  1 4.100000e-01    2.840000e+00
 SN2ah  SX2q  1 4.100000e-01    2.600000e+00
 SN2ah  SX1q  1 4.100000e-01    2.600000e+00
 SN1ah  SC6v  1 4.100000e-01    2.840000e+00
 SN1ah  SC5v  1 4.100000e-01    2.600000e+00
 SN1ah  SC4v  1 4.100000e-01    2.600000e+00
 SN1ah  SC3v  1 4.100000e-01    2.350000e+00
 SN1ah  SC2v  1 4.100000e-01    2.200000e+00
 SN1ah  SC1v  1 4.100000e-01    2.040000e+00
 SN1ah  SX4v  1 4.100000e-01    2.600000e+00
 SN1ah  SX3v  1 4.100000e-01    2.600000e+00
 SN1ah  SX2v  1 4.100000e-01    2.350000e+00
 SN1ah  SX1v  1 4.100000e-01    2.350000e+00
 SN1ah  SC6e  1 4.100000e-01    2.350000e+00
 SN1ah  SC5e  1 4.100000e-01    2.200000e+00
 SN1ah  SC4e  1 4.100000e-01    2.200000e+00
 SN1ah  SC3e  1 4.100000e-01    2.040000e+00
 SN1ah  SC2e  1 4.100000e-01    1.910000e+00
 SN1ah  SC1e  1 4.100000e-01    1.750000e+00
 SN1ah  SX4e  1 4.100000e-01    2.200000e+00
 SN1ah  SX3e  1 4.100000e-01    2.200000e+00
 SN1ah  SX2e  1 4.100000e-01    2.040000e+00
 SN1ah  SX1e  1 4.100000e-01    2.040000e+00
 SN1ah  SC6q  1 4.100000e-01    3.070000e+00
 SN1ah  SC5q  1 4.100000e-01    2.840000e+00
 SN1ah  SC4q  1 4.100000e-01    2.840000e+00
 SN1ah  SC3q  1 4.100000e-01    2.600000e+00
 SN1ah  SC2q  1 4.100000e-01    2.350000e+00
 SN1ah  SC1q  1 4.100000e-01    2.200000e+00
 SN1ah  SX4q  1 4.100000e-01    2.840000e+00
 SN1ah  SX3q  1 4.100000e-01    2.840000e+00
 SN1ah  SX2q  1 4.100000e-01    2.600000e+00
 SN1ah  SX1q  1 4.100000e-01    2.600000e+00
 SC6vh  SC5v  1 4.100000e-01    2.200000e+00
 SC6vh  SC4v  1 4.100000e-01    2.200000e+00
 SC6vh  SC3v  1 4.100000e-01    2.040000e+00
 SC6vh  SC2v  1 4.100000e-01    1.910000e+00
 SC6vh  SC1v  1 4.100000e-01    1.750000e+00
 SC6vh  SX4v  1 4.100000e-01    2.200000e+00
 SC6vh  SX3v  1 4.100000e-01    2.200000e+00
 SC6vh  SX2v  1 4.100000e-01    2.200000e+00
 SC6vh  SX1v  1 4.100000e-01    2.200000e+00
 SC6vh  SC6e  1 4.100000e-01    3.070000e+00
 SC6vh  SC5e  1 4.100000e-01    2.840000e+00
 SC6vh  SC4e  1 4.100000e-01    2.840000e+00
 SC6vh  SC3e  1 4.100000e-01    2.600000e+00
 SC6vh  SC2e  1 4.100000e-01    2.350000e+00
 SC6vh  SC1e  1 4.100000e-01    2.200000e+00
 SC6vh  SX4e  1 4.100000e-01    2.840000e+00
 SC6vh  SX3e  1 4.100000e-01    2.840000e+00
 SC6vh  SX2e  1 4.100000e-01    2.840000e+00
 SC6vh  SX1e  1 4.100000e-01    2.840000e+00
 SC6vh  SC5q  1 4.100000e-01    3.070000e+00
 SC6vh  SC4q  1 4.100000e-01    3.070000e+00
 SC6vh  SC3q  1 4.100000e-01    2.840000e+00
 SC6vh  SC2q  1 4.100000e-01    2.600000e+00
 SC6vh  SC1q  1 4.100000e-01    2.350000e+00
 SC6vh  SX4q  1 4.100000e-01    3.070000e+00
 SC6vh  SX3q  1 4.100000e-01    3.070000e+00
 SC6vh  SX2q  1 4.100000e-01    3.070000e+00
 SC6vh  SX1q  1 4.100000e-01    3.070000e+00
 SC5vh  SC4v  1 4.100000e-01    2.200000e+00
 SC5vh  SC3v  1 4.100000e-01    2.040000e+00
 SC5vh  SC2v  1 4.100000e-01    1.910000e+00
 SC5vh  SC1v  1 4.100000e-01    1.910000e+00
 SC5vh  SX4v  1 4.100000e-01    2.040000e+00
 SC5vh  SX3v  1 4.100000e-01    2.040000e+00
 SC5vh  SX2v  1 4.100000e-01    2.040000e+00
 SC5vh  SX1v  1 4.100000e-01    2.200000e+00
 SC5vh  SC5e  1 4.100000e-01    2.840000e+00
 SC5vh  SC4e  1 4.100000e-01    2.840000e+00
 SC5vh  SC3e  1 4.100000e-01    2.600000e+00
 SC5vh  SC2e  1 4.100000e-01    2.350000e+00
 SC5vh  SC1e  1 4.100000e-01    2.350000e+00
 SC5vh  SX4e  1 4.100000e-01    2.600000e+00
 SC5vh  SX3e  1 4.100000e-01    2.600000e+00
 SC5vh  SX2e  1 4.100000e-01    2.600000e+00
 SC5vh  SX1e  1 4.100000e-01    2.840000e+00
 SC5vh  SC4q  1 4.100000e-01    3.070000e+00
 SC5vh  SC3q  1 4.100000e-01    2.840000e+00
 SC5vh  SC2q  1 4.100000e-01    2.600000e+00
 SC5vh  SC1q  1 4.100000e-01    2.600000e+00
 SC5vh  SX4q  1 4.100000e-01    2.840000e+00
 SC5vh  SX3q  1 4.100000e-01    2.840000e+00
 SC5vh  SX2q  1 4.100000e-01    2.840000e+00
 SC5vh  SX1q  1 4.100000e-01    3.070000e+00
 SC4vh  SC3v  1 4.100000e-01    2.200000e+00
 SC4vh  SC2v  1 4.100000e-01    2.040000e+00
 SC4vh  SC1v  1 4.100000e-01    1.910000e+00
 SC4vh  SX4v  1 4.100000e-01    2.040000e+00
 SC4vh  SX3v  1 4.100000e-01    2.040000e+00
 SC4vh  SX2v  1 4.100000e-01    2.040000e+00
 SC4vh  SX1v  1 4.100000e-01    2.200000e+00
 SC4vh  SC4e  1 4.100000e-01    2.840000e+00
 SC4vh  SC3e  1 4.100000e-01    2.840000e+00
 SC4vh  SC2e  1 4.100000e-01    2.600000e+00
 SC4vh  SC1e  1 4.100000e-01    2.350000e+00
 SC4vh  SX4e  1 4.100000e-01    2.600000e+00
 SC4vh  SX3e  1 4.100000e-01    2.600000e+00
 SC4vh  SX2e  1 4.100000e-01    2.600000e+00
 SC4vh  SX1e  1 4.100000e-01    2.840000e+00
 SC4vh  SC3q  1 4.100000e-01    3.070000e+00
 SC4vh  SC2q  1 4.100000e-01    2.840000e+00
 SC4vh  SC1q  1 4.100000e-01    2.600000e+00
 SC4vh  SX4q  1 4.100000e-01    2.840000e+00
 SC4vh  SX3q  1 4.100000e-01    2.840000e+00
 SC4vh  SX2q  1 4.100000e-01    2.840000e+00
 SC4vh  SX1q  1 4.100000e-01    3.070000e+00
 SC3vh  SC2v  1 4.100000e-01    2.200000e+00
 SC3vh  SC1v  1 4.100000e-01    2.200000e+00
 SC3vh  SX4v  1 4.100000e-01    2.040000e+00
 SC3vh  SX3v  1 4.100000e-01    2.040000e+00
 SC3vh  SX2v  1 4.100000e-01    2.040000e+00
 SC3vh  SX1v  1 4.100000e-01    2.200000e+00
 SC3vh  SC3e  1 4.100000e-01    2.840000e+00
 SC3vh  SC2e  1 4.100000e-01    2.840000e+00
 SC3vh  SC1e  1 4.100000e-01    2.840000e+00
 SC3vh  SX4e  1 4.100000e-01    2.600000e+00
 SC3vh  SX3e  1 4.100000e-01    2.600000e+00
 SC3vh  SX2e  1 4.100000e-01    2.600000e+00
 SC3vh  SX1e  1 4.100000e-01    2.840000e+00
 SC3vh  SC2q  1 4.100000e-01    3.070000e+00
 SC3vh  SC1q  1 4.100000e-01    3.070000e+00
 SC3vh  SX4q  1 4.100000e-01    2.840000e+00
 SC3vh  SX3q  1 4.100000e-01    2.840000e+00
 SC3vh  SX2q  1 4.100000e-01    2.840000e+00
 SC3vh  SX1q  1 4.100000e-01    3.070000e+00
 SC2vh  SC1v  1 4.100000e-01    2.350000e+00
 SC2vh  SX4v  1 4.100000e-01    1.750000e+00
 SC2vh  SX3v  1 4.100000e-01    2.040000e+00
 SC2vh  SX2v  1 4.100000e-01    2.040000e+00
 SC2vh  SX1v  1 4.100000e-01    2.040000e+00
 SC2vh  SC2e  1 4.100000e-01    2.840000e+00
 SC2vh  SC1e  1 4.100000e-01    3.070000e+00
 SC2vh  SX4e  1 4.100000e-01    2.200000e+00
 SC2vh  SX3e  1 4.100000e-01    2.600000e+00
 SC2vh  SX2e  1 4.100000e-01    2.600000e+00
 SC2vh  SX1e  1 4.100000e-01    2.600000e+00
 SC2vh  SC1q  1 4.100000e-01    3.310000e+00
 SC2vh  SX4q  1 4.100000e-01    2.350000e+00
 SC2vh  SX3q  1 4.100000e-01    2.840000e+00
 SC2vh  SX2q  1 4.100000e-01    2.840000e+00
 SC2vh  SX1q  1 4.100000e-01    2.840000e+00
 SC1vh  SX4v  1 4.100000e-01    1.750000e+00
 SC1vh  SX3v  1 4.100000e-01    2.040000e+00
 SC1vh  SX2v  1 4.100000e-01    2.040000e+00
 SC1vh  SX1v  1 4.100000e-01    2.040000e+00
 SC1vh  SC1e  1 4.100000e-01    2.840000e+00
 SC1vh  SX4e  1 4.100000e-01    2.200000e+00
 SC1vh  SX3e  1 4.100000e-01    2.600000e+00
 SC1vh  SX2e  1 4.100000e-01    2.600000e+00
 SC1vh  SX1e  1 4.100000e-01    2.600000e+00
 SC1vh  SX4q  1 4.100000e-01    2.350000e+00
 SC1vh  SX3q  1 4.100000e-01    2.840000e+00
 SC1vh  SX2q  1 4.100000e-01    2.840000e+00
 SC1vh  SX1q  1 4.100000e-01    2.840000e+00
 SX4vh  SX3v  1 4.100000e-01    2.200000e+00
 SX4vh  SX2v  1 4.100000e-01    2.200000e+00
 SX4vh  SX1v  1 4.100000e-01    2.200000e+00
 SX4vh  SX4e  1 4.100000e-01    2.840000e+00
 SX4vh  SX3e  1 4.100000e-01    2.840000e+00
 SX4vh  SX2e  1 4.100000e-01    2.840000e+00
 SX4vh  SX1e  1 4.100000e-01    2.840000e+00
 SX4vh  SX3q  1 4.100000e-01    3.070000e+00
 SX4vh  SX2q  1 4.100000e-01    3.070000e+00
 SX4vh  SX1q  1 4.100000e-01    3.070000e+00
 SX3vh  SX2v  1 4.100000e-01    2.350000e+00
 SX3vh  SX1v  1 4.100000e-01    2.350000e+00
 SX3vh  SX3e  1 4.100000e-01    2.840000e+00
 SX3vh  SX2e  1 4.100000e-01    3.070000e+00
 SX3vh  SX1e  1 4.100000e-01    3.070000e+00
 SX3vh  SX2q  1 4.100000e-01    3.310000e+00
 SX3vh  SX1q  1 4.100000e-01    3.310000e+00
 SX2vh  SX1v  1 4.100000e-01    2.350000e+00
 SX2vh  SX2e  1 4.100000e-01    3.070000e+00
 SX2vh  SX1e  1 4.100000e-01    3.070000e+00
 SX2vh  SX1q  1 4.100000e-01    3.310000e+00
 SX1vh  SX1e  1 4.100000e-01    3.310000e+00
 SC6eh  SC5e  1 4.100000e-01    2.200000e+00
 SC6eh  SC4e  1 4.100000e-01    2.200000e+00
 SC6eh  SC3e  1 4.100000e-01    2.040000e+00
 SC6eh  SC2e  1 4.100000e-01    1.910000e+00
 SC6eh  SC1e  1 4.100000e-01    1.750000e+00
 SC6eh  SX4e  1 4.100000e-01    2.200000e+00
 SC6eh  SX3e  1 4.100000e-01    2.200000e+00
 SC6eh  SX2e  1 4.100000e-01    2.200000e+00
 SC6eh  SX1e  1 4.100000e-01    2.200000e+00
 SC6eh  SC5q  1 4.100000e-01    3.070000e+00
 SC6eh  SC4q  1 4.100000e-01    3.070000e+00
 SC6eh  SC3q  1 4.100000e-01    2.840000e+00
 SC6eh  SC2q  1 4.100000e-01    2.600000e+00
 SC6eh  SC1q  1 4.100000e-01    2.350000e+00
 SC6eh  SX4q  1 4.100000e-01    3.070000e+00
 SC6eh  SX3q  1 4.100000e-01    3.070000e+00
 SC6eh  SX2q  1 4.100000e-01    3.070000e+00
 SC6eh  SX1q  1 4.100000e-01    3.070000e+00
 SC5eh  SC4e  1 4.100000e-01    2.200000e+00
 SC5eh  SC3e  1 4.100000e-01    2.040000e+00
 SC5eh  SC2e  1 4.100000e-01    1.910000e+00
 SC5eh  SC1e  1 4.100000e-01    1.910000e+00
 SC5eh  SX4e  1 4.100000e-01    2.040000e+00
 SC5eh  SX3e  1 4.100000e-01    2.040000e+00
 SC5eh  SX2e  1 4.100000e-01    2.040000e+00
 SC5eh  SX1e  1 4.100000e-01    2.200000e+00
 SC5eh  SC4q  1 4.100000e-01    3.070000e+00
 SC5eh  SC3q  1 4.100000e-01    2.840000e+00
 SC5eh  SC2q  1 4.100000e-01    2.600000e+00
 SC5eh  SC1q  1 4.100000e-01    2.600000e+00
 SC5eh  SX4q  1 4.100000e-01    2.840000e+00
 SC5eh  SX3q  1 4.100000e-01    2.840000e+00
 SC5eh  SX2q  1 4.100000e-01    2.840000e+00
 SC5eh  SX1q  1 4.100000e-01    3.070000e+00
 SC4eh  SC3e  1 4.100000e-01    2.200000e+00
 SC4eh  SC2e  1 4.100000e-01    2.040000e+00
 SC4eh  SC1e  1 4.100000e-01    1.910000e+00
 SC4eh  SX4e  1 4.100000e-01    2.040000e+00
 SC4eh  SX3e  1 4.100000e-01    2.040000e+00
 SC4eh  SX2e  1 4.100000e-01    2.040000e+00
 SC4eh  SX1e  1 4.100000e-01    2.200000e+00
 SC4eh  SC3q  1 4.100000e-01    3.070000e+00
 SC4eh  SC2q  1 4.100000e-01    2.840000e+00
 SC4eh  SC1q  1 4.100000e-01    2.600000e+00
 SC4eh  SX4q  1 4.100000e-01    2.840000e+00
 SC4eh  SX3q  1 4.100000e-01    2.840000e+00
 SC4eh  SX2q  1 4.100000e-01    2.840000e+00
 SC4eh  SX1q  1 4.100000e-01    3.070000e+00
 SC3eh  SC2e  1 4.100000e-01    2.200000e+00
 SC3eh  SC1e  1 4.100000e-01    2.200000e+00
 SC3eh  SX4e  1 4.100000e-01    2.040000e+00
 SC3eh  SX3e  1 4.100000e-01    2.040000e+00
 SC3eh  SX2e  1 4.100000e-01    2.040000e+00
 SC3eh  SX1e  1 4.100000e-01    2.200000e+00
 SC3eh  SC2q  1 4.100000e-01    3.070000e+00
 SC3eh  SC1q  1 4.100000e-01    3.070000e+00
 SC3eh  SX4q  1 4.100000e-01    2.840000e+00
 SC3eh  SX3q  1 4.100000e-01    2.840000e+00
 SC3eh  SX2q  1 4.100000e-01    2.840000e+00
 SC3eh  SX1q  1 4.100000e-01    3.070000e+00
 SC2eh  SC1e  1 4.100000e-01    2.350000e+00
 SC2eh  SX4e  1 4.100000e-01    1.750000e+00
 SC2eh  SX3e  1 4.100000e-01    2.040000e+00
 SC2eh  SX2e  1 4.100000e-01    2.040000e+00
 SC2eh  SX1e  1 4.100000e-01    2.040000e+00
 SC2eh  SC1q  1 4.100000e-01    3.310000e+00
 SC2eh  SX4q  1 4.100000e-01    2.350000e+00
 SC2eh  SX3q  1 4.100000e-01    2.840000e+00
 SC2eh  SX2q  1 4.100000e-01    2.840000e+00
 SC2eh  SX1q  1 4.100000e-01    2.840000e+00
 SC1eh  SX4e  1 4.100000e-01    1.750000e+00
 SC1eh  SX3e  1 4.100000e-01    2.040000e+00
 SC1eh  SX2e  1 4.100000e-01    2.040000e+00
 SC1eh  SX1e  1 4.100000e-01    2.040000e+00
 SC1eh  SX4q  1 4.100000e-01    2.350000e+00
 SC1eh  SX3q  1 4.100000e-01    2.840000e+00
 SC1eh  SX2q  1 4.100000e-01    2.840000e+00
 SC1eh  SX1q  1 4.100000e-01    2.840000e+00
 SX4eh  SX3e  1 4.100000e-01    2.200000e+00
 SX4eh  SX2e  1 4.100000e-01    2.200000e+00
 SX4eh  SX1e  1 4.100000e-01    2.200000e+00
 SX4eh  SX3q  1 4.100000e-01    3.070000e+00
 SX4eh  SX2q  1 4.100000e-01    3.070000e+00
 SX4eh  SX1q  1 4.100000e-01    3.070000e+00
 SX3eh  SX2e  1 4.100000e-01    2.350000e+00
 SX3eh  SX1e  1 4.100000e-01    2.350000e+00
 SX3eh  SX2q  1 4.100000e-01    3.310000e+00
 SX3eh  SX1q  1 4.100000e-01    3.310000e+00
 SX2eh  SX1e  1 4.100000e-01    2.350000e+00
 SX2eh  SX1q  1 4.100000e-01    3.310000e+00
 SX2eh  SX1v  1 4.100000e-01    3.070000e+00
 SX3eh  SX2v  1 4.100000e-01    3.070000e+00
 SX3eh  SX1v  1 4.100000e-01    3.070000e+00
 SX4eh  SX3v  1 4.100000e-01    2.840000e+00
 SX4eh  SX2v  1 4.100000e-01    2.840000e+00
 SX4eh  SX1v  1 4.100000e-01    2.840000e+00
 SC1eh  SX4v  1 4.100000e-01    2.200000e+00
 SC1eh  SX3v  1 4.100000e-01    2.600000e+00
 SC1eh  SX2v  1 4.100000e-01    2.600000e+00
 SC1eh  SX1v  1 4.100000e-01    2.600000e+00
 SC2eh  SC1v  1 4.100000e-01    3.070000e+00
 SC2eh  SX4v  1 4.100000e-01    2.200000e+00
 SC2eh  SX3v  1 4.100000e-01    2.600000e+00
 SC2eh  SX2v  1 4.100000e-01    2.600000e+00
 SC2eh  SX1v  1 4.100000e-01    2.600000e+00
 SC3eh  SC2v  1 4.100000e-01    2.840000e+00
 SC3eh  SC1v  1 4.100000e-01    2.840000e+00
 SC3eh  SX4v  1 4.100000e-01    2.600000e+00
 SC3eh  SX3v  1 4.100000e-01    2.600000e+00
 SC3eh  SX2v  1 4.100000e-01    2.600000e+00
 SC3eh  SX1v  1 4.100000e-01    2.840000e+00
 SC4eh  SC3v  1 4.100000e-01    2.840000e+00
 SC4eh  SC2v  1 4.100000e-01    2.600000e+00
 SC4eh  SC1v  1 4.100000e-01    2.350000e+00
 SC4eh  SX4v  1 4.100000e-01    2.600000e+00
 SC4eh  SX3v  1 4.100000e-01    2.600000e+00
 SC4eh  SX2v  1 4.100000e-01    2.600000e+00
 SC4eh  SX1v  1 4.100000e-01    2.840000e+00
 SC5eh  SC4v  1 4.100000e-01    2.840000e+00
 SC5eh  SC3v  1 4.100000e-01    2.600000e+00
 SC5eh  SC2v  1 4.100000e-01    2.350000e+00
 SC5eh  SC1v  1 4.100000e-01    2.350000e+00
 SC5eh  SX4v  1 4.100000e-01    2.600000e+00
 SC5eh  SX3v  1 4.100000e-01    2.600000e+00
 SC5eh  SX2v  1 4.100000e-01    2.600000e+00
 SC5eh  SX1v  1 4.100000e-01    2.840000e+00
 SC6eh  SC5v  1 4.100000e-01    2.840000e+00
 SC6eh  SC4v  1 4.100000e-01    2.840000e+00
 SC6eh  SC3v  1 4.100000e-01    2.600000e+00
 SC6eh  SC2v  1 4.100000e-01    2.350000e+00
 SC6eh  SC1v  1 4.100000e-01    2.200000e+00
 SC6eh  SX4v  1 4.100000e-01    2.840000e+00
 SC6eh  SX3v  1 4.100000e-01    2.840000e+00
 SC6eh  SX2v  1 4.100000e-01    2.840000e+00
 SC6eh  SX1v  1 4.100000e-01    2.840000e+00
 SN2ah  SN1d  1 4.100000e-01    2.600000e+00
 SN3ah  SN2d  1 4.100000e-01    2.840000e+00
 SN3ah  SN1d  1 4.100000e-01    2.600000e+00
 SN4ah  SN3d  1 4.100000e-01    2.840000e+00
 SN4ah  SN2d  1 4.100000e-01    2.840000e+00
 SN4ah  SN1d  1 4.100000e-01    2.600000e+00
 SN5ah  SN4d  1 4.100000e-01    3.070000e+00
 SN5ah  SN3d  1 4.100000e-01    2.840000e+00
 SN5ah  SN2d  1 4.100000e-01    2.840000e+00
 SN5ah  SN1d  1 4.100000e-01    2.600000e+00
 SN6ah  SN5d  1 4.100000e-01    3.310000e+00
 SN6ah  SN4d  1 4.100000e-01    3.310000e+00
 SN6ah  SN3d  1 4.100000e-01    2.840000e+00
 SN6ah  SN2d  1 4.100000e-01    2.600000e+00
 SN6ah  SN1d  1 4.100000e-01    2.600000e+00
 SP1ah  SN6d  1 4.100000e-01    3.310000e+00
 SP1ah  SN5d  1 4.100000e-01    3.070000e+00
 SP1ah  SN4d  1 4.100000e-01    3.070000e+00
 SP1ah  SN3d  1 4.100000e-01    2.600000e+00
 SP1ah  SN2d  1 4.100000e-01    2.600000e+00
 SP1ah  SN1d  1 4.100000e-01    2.600000e+00
 SP2ah  SP1d  1 4.100000e-01    3.310000e+00
 SP2ah  SN6d  1 4.100000e-01    3.310000e+00
 SP2ah  SN5d  1 4.100000e-01    3.070000e+00
 SP2ah  SN4d  1 4.100000e-01    2.840000e+00
 SP2ah  SN3d  1 4.100000e-01    2.600000e+00
 SP2ah  SN2d  1 4.100000e-01    2.600000e+00
 SP2ah  SN1d  1 4.100000e-01    2.600000e+00
 SP3ah  SP2d  1 4.100000e-01    3.550000e+00
 SP3ah  SP1d  1 4.100000e-01    3.310000e+00
 SP3ah  SN6d  1 4.100000e-01    3.070000e+00
 SP3ah  SN5d  1 4.100000e-01    2.840000e+00
 SP3ah  SN4d  1 4.100000e-01    2.840000e+00
 SP3ah  SN3d  1 4.100000e-01    2.600000e+00
 SP3ah  SN2d  1 4.100000e-01    2.600000e+00
 SP3ah  SN1d  1 4.100000e-01    2.200000e+00
 SP4ah  SP3d  1 4.100000e-01    3.550000e+00
 SP4ah  SP2d  1 4.100000e-01    3.550000e+00
 SP4ah  SP1d  1 4.100000e-01    3.310000e+00
 SP4ah  SN6d  1 4.100000e-01    3.070000e+00
 SP4ah  SN5d  1 4.100000e-01    2.840000e+00
 SP4ah  SN4d  1 4.100000e-01    2.840000e+00
 SP4ah  SN3d  1 4.100000e-01    2.600000e+00
 SP4ah  SN2d  1 4.100000e-01    2.200000e+00
 SP4ah  SN1d  1 4.100000e-01    2.040000e+00
 SP5ah  SP4d  1 4.100000e-01    3.820000e+00
 SP5ah  SP3d  1 4.100000e-01    3.550000e+00
 SP5ah  SP2d  1 4.100000e-01    3.550000e+00
 SP5ah  SP1d  1 4.100000e-01    3.310000e+00
 SP5ah  SN6d  1 4.100000e-01    3.070000e+00
 SP5ah  SN5d  1 4.100000e-01    2.840000e+00
 SP5ah  SN4d  1 4.100000e-01    2.840000e+00
 SP5ah  SN3d  1 4.100000e-01    2.200000e+00
 SP5ah  SN2d  1 4.100000e-01    2.040000e+00
 SP5ah  SN1d  1 4.100000e-01    1.910000e+00
 SP6ah  SP5d  1 4.100000e-01    4.290000e+00
 SP6ah  SP4d  1 4.100000e-01    4.040000e+00
 SP6ah  SP3d  1 4.100000e-01    3.820000e+00
 SP6ah  SP2d  1 4.100000e-01    3.820000e+00
 SP6ah  SP1d  1 4.100000e-01    3.550000e+00
 SP6ah  SN6d  1 4.100000e-01    3.310000e+00
 SP6ah  SN5d  1 4.100000e-01    2.840000e+00
 SP6ah  SN4d  1 4.100000e-01    2.600000e+00
 SP6ah  SN3d  1 4.100000e-01    2.200000e+00
 SP6ah  SN2d  1 4.100000e-01    2.040000e+00
 SP6ah  SN1d  1 4.100000e-01    1.910000e+00
 SP6aq  SP5r  1 4.100000e-01    4.550000e+00
 SP6dq  SP5r  1 4.100000e-01    4.550000e+00
 SP5aq  SP4r  1 4.100000e-01    4.040000e+00
 SP6aq  SP4r  1 4.100000e-01    4.290000e+00
 SP5dq  SP4r  1 4.100000e-01    4.040000e+00
 SP6dq  SP4r  1 4.100000e-01    4.290000e+00
 SP4aq  SP3r  1 4.100000e-01    3.820000e+00
 SP5aq  SP3r  1 4.100000e-01    3.820000e+00
 SP6aq  SP3r  1 4.100000e-01    4.040000e+00
 SP4dq  SP3r  1 4.100000e-01    3.820000e+00
 SP5dq  SP3r  1 4.100000e-01    3.820000e+00
 SP6dq  SP3r  1 4.100000e-01    4.040000e+00
 SP3aq  SP2r  1 4.100000e-01    3.820000e+00
 SP4aq  SP2r  1 4.100000e-01    3.820000e+00
 SP5aq  SP2r  1 4.100000e-01    3.820000e+00
 SP6aq  SP2r  1 4.100000e-01    4.040000e+00
 SP3dq  SP2r  1 4.100000e-01    3.820000e+00
 SP4dq  SP2r  1 4.100000e-01    3.820000e+00
 SP5dq  SP2r  1 4.100000e-01    3.820000e+00
 SP6dq  SP2r  1 4.100000e-01    4.040000e+00
 SP2aq  SP1r  1 4.100000e-01    3.550000e+00
 SP3aq  SP1r  1 4.100000e-01    3.550000e+00
 SP4aq  SP1r  1 4.100000e-01    3.550000e+00
 SP5aq  SP1r  1 4.100000e-01    3.550000e+00
 SP6aq  SP1r  1 4.100000e-01    3.820000e+00
 SP2dq  SP1r  1 4.100000e-01    3.550000e+00
 SP3dq  SP1r  1 4.100000e-01    3.550000e+00
 SP4dq  SP1r  1 4.100000e-01    3.550000e+00
 SP5dq  SP1r  1 4.100000e-01    3.550000e+00
 SP6dq  SP1r  1 4.100000e-01    3.820000e+00
 SP1aq  SN6r  1 4.100000e-01    3.550000e+00
 SP2aq  SN6r  1 4.100000e-01    3.550000e+00
 SP3aq  SN6r  1 4.100000e-01    3.310000e+00
 SP4aq  SN6r  1 4.100000e-01    3.310000e+00
 SP5aq  SN6r  1 4.100000e-01    3.310000e+00
 SP6aq  SN6r  1 4.100000e-01    3.550000e+00
 SP1dq  SN6r  1 4.100000e-01    3.550000e+00
 SP2dq  SN6r  1 4.100000e-01    3.550000e+00
 SP3dq  SN6r  1 4.100000e-01    3.310000e+00
 SP4dq  SN6r  1 4.100000e-01    3.310000e+00
 SP5dq  SN6r  1 4.100000e-01    3.310000e+00
 SP6dq  SN6r  1 4.100000e-01    3.550000e+00
 SN6aq  SN5r  1 4.100000e-01    3.550000e+00
 SP1aq  SN5r  1 4.100000e-01    3.310000e+00
 SP2aq  SN5r  1 4.100000e-01    3.310000e+00
 SP3aq  SN5r  1 4.100000e-01    3.070000e+00
 SP4aq  SN5r  1 4.100000e-01    3.070000e+00
 SP5aq  SN5r  1 4.100000e-01    3.070000e+00
 SP6aq  SN5r  1 4.100000e-01    3.070000e+00
 SN6dq  SN5r  1 4.100000e-01    3.550000e+00
 SP1dq  SN5r  1 4.100000e-01    3.310000e+00
 SP2dq  SN5r  1 4.100000e-01    3.310000e+00
 SP3dq  SN5r  1 4.100000e-01    3.070000e+00
 SP4dq  SN5r  1 4.100000e-01    3.070000e+00
 SP5dq  SN5r  1 4.100000e-01    3.070000e+00
 SP6dq  SN5r  1 4.100000e-01    3.070000e+00
 SN5aq  SN4r  1 4.100000e-01    3.310000e+00
 SN6aq  SN4r  1 4.100000e-01    3.550000e+00
 SP1aq  SN4r  1 4.100000e-01    3.310000e+00
 SP2aq  SN4r  1 4.100000e-01    3.070000e+00
 SP3aq  SN4r  1 4.100000e-01    3.070000e+00
 SP4aq  SN4r  1 4.100000e-01    3.070000e+00
 SP5aq  SN4r  1 4.100000e-01    3.070000e+00
 SP6aq  SN4r  1 4.100000e-01    2.840000e+00
 SN5dq  SN4r  1 4.100000e-01    3.310000e+00
 SN6dq  SN4r  1 4.100000e-01    3.550000e+00
 SP1dq  SN4r  1 4.100000e-01    3.310000e+00
 SP2dq  SN4r  1 4.100000e-01    3.070000e+00
 SP3dq  SN4r  1 4.100000e-01    3.070000e+00
 SP4dq  SN4r  1 4.100000e-01    3.070000e+00
 SP5dq  SN4r  1 4.100000e-01    3.070000e+00
 SP6dq  SN4r  1 4.100000e-01    2.840000e+00
 SN4aq  SN3r  1 4.100000e-01    3.070000e+00
 SN5aq  SN3r  1 4.100000e-01    3.070000e+00
 SN6aq  SN3r  1 4.100000e-01    3.070000e+00
 SP1aq  SN3r  1 4.100000e-01    2.840000e+00
 SP2aq  SN3r  1 4.100000e-01    2.840000e+00
 SP3aq  SN3r  1 4.100000e-01    2.840000e+00
 SP4aq  SN3r  1 4.100000e-01    2.840000e+00
 SP5aq  SN3r  1 4.100000e-01    2.600000e+00
 SP6aq  SN3r  1 4.100000e-01    2.600000e+00
 SN4dq  SN3r  1 4.100000e-01    3.070000e+00
 SN5dq  SN3r  1 4.100000e-01    3.070000e+00
 SN6dq  SN3r  1 4.100000e-01    3.070000e+00
 SP1dq  SN3r  1 4.100000e-01    2.840000e+00
 SP2dq  SN3r  1 4.100000e-01    2.840000e+00
 SP3dq  SN3r  1 4.100000e-01    2.840000e+00
 SP4dq  SN3r  1 4.100000e-01    2.840000e+00
 SP5dq  SN3r  1 4.100000e-01    2.600000e+00
 SP6dq  SN3r  1 4.100000e-01    2.600000e+00
 SN3aq  SN2r  1 4.100000e-01    3.070000e+00
 SN4aq  SN2r  1 4.100000e-01    3.070000e+00
 SN5aq  SN2r  1 4.100000e-01    3.070000e+00
 SN6aq  SN2r  1 4.100000e-01    2.840000e+00
 SP1aq  SN2r  1 4.100000e-01    2.840000e+00
 SP2aq  SN2r  1 4.100000e-01    2.840000e+00
 SP3aq  SN2r  1 4.100000e-01    2.840000e+00
 SP4aq  SN2r  1 4.100000e-01    2.600000e+00
 SP5aq  SN2r  1 4.100000e-01    2.350000e+00
 SP6aq  SN2r  1 4.100000e-01    2.350000e+00
 SN3dq  SN2r  1 4.100000e-01    3.070000e+00
 SN4dq  SN2r  1 4.100000e-01    3.070000e+00
 SN5dq  SN2r  1 4.100000e-01    3.070000e+00
 SN6dq  SN2r  1 4.100000e-01    2.840000e+00
 SP1dq  SN2r  1 4.100000e-01    2.840000e+00
 SP2dq  SN2r  1 4.100000e-01    2.840000e+00
 SP3dq  SN2r  1 4.100000e-01    2.840000e+00
 SP4dq  SN2r  1 4.100000e-01    2.600000e+00
 SP5dq  SN2r  1 4.100000e-01    2.350000e+00
 SP6dq  SN2r  1 4.100000e-01    2.350000e+00
 SN2aq  SN1r  1 4.100000e-01    2.840000e+00
 SN3aq  SN1r  1 4.100000e-01    2.840000e+00
 SN4aq  SN1r  1 4.100000e-01    2.840000e+00
 SN5aq  SN1r  1 4.100000e-01    2.840000e+00
 SN6aq  SN1r  1 4.100000e-01    2.840000e+00
 SP1aq  SN1r  1 4.100000e-01    2.840000e+00
 SP2aq  SN1r  1 4.100000e-01    2.840000e+00
 SP3aq  SN1r  1 4.100000e-01    2.600000e+00
 SP4aq  SN1r  1 4.100000e-01    2.350000e+00
 SP5aq  SN1r  1 4.100000e-01    2.200000e+00
 SP6aq  SN1r  1 4.100000e-01    2.200000e+00
 SN2dq  SN1r  1 4.100000e-01    2.840000e+00
 SN3dq  SN1r  1 4.100000e-01    2.840000e+00
 SN4dq  SN1r  1 4.100000e-01    2.840000e+00
 SN5dq  SN1r  1 4.100000e-01    2.840000e+00
 SN6dq  SN1r  1 4.100000e-01    2.840000e+00
 SP1dq  SN1r  1 4.100000e-01    2.840000e+00
 SP2dq  SN1r  1 4.100000e-01    2.840000e+00
 SP3dq  SN1r  1 4.100000e-01    2.600000e+00
 SP4dq  SN1r  1 4.100000e-01    2.350000e+00
 SP5dq  SN1r  1 4.100000e-01    2.200000e+00
 SP6dq  SN1r  1 4.100000e-01    2.200000e+00
 SN1aq  SC6r  1 4.100000e-01    3.070000e+00
 SN2aq  SC6r  1 4.100000e-01    2.840000e+00
 SN3aq  SC6r  1 4.100000e-01    2.840000e+00
 SN4aq  SC6r  1 4.100000e-01    2.840000e+00
 SN5aq  SC6r  1 4.100000e-01    2.840000e+00
 SN6aq  SC6r  1 4.100000e-01    2.840000e+00
 SP1aq  SC6r  1 4.100000e-01    2.600000e+00
 SP2aq  SC6r  1 4.100000e-01    2.600000e+00
 SP3aq  SC6r  1 4.100000e-01    2.600000e+00
 SP4aq  SC6r  1 4.100000e-01    2.350000e+00
 SP5aq  SC6r  1 4.100000e-01    2.200000e+00
 SP6aq  SC6r  1 4.100000e-01    2.200000e+00
 SN1dq  SC6r  1 4.100000e-01    3.070000e+00
 SN2dq  SC6r  1 4.100000e-01    2.840000e+00
 SN3dq  SC6r  1 4.100000e-01    2.840000e+00
 SN4dq  SC6r  1 4.100000e-01    2.840000e+00
 SN5dq  SC6r  1 4.100000e-01    2.840000e+00
 SN6dq  SC6r  1 4.100000e-01    2.840000e+00
 SP1dq  SC6r  1 4.100000e-01    2.600000e+00
 SP2dq  SC6r  1 4.100000e-01    2.600000e+00
 SP3dq  SC6r  1 4.100000e-01    2.600000e+00
 SP4dq  SC6r  1 4.100000e-01    2.350000e+00
 SP5dq  SC6r  1 4.100000e-01    2.200000e+00
 SP6dq  SC6r  1 4.100000e-01    2.200000e+00
 SC6eq  SC5r  1 4.100000e-01    3.070000e+00
 SC6vq  SC5r  1 4.100000e-01    3.070000e+00
 SN1aq  SC5r  1 4.100000e-01    2.840000e+00
 SN2aq  SC5r  1 4.100000e-01    2.600000e+00
 SN3aq  SC5r  1 4.100000e-01    2.600000e+00
 SN4aq  SC5r  1 4.100000e-01    2.600000e+00
 SN5aq  SC5r  1 4.100000e-01    2.600000e+00
 SN6aq  SC5r  1 4.100000e-01    2.600000e+00
 SP1aq  SC5r  1 4.100000e-01    2.350000e+00
 SP2aq  SC5r  1 4.100000e-01    2.350000e+00
 SP3aq  SC5r  1 4.100000e-01    2.350000e+00
 SP4aq  SC5r  1 4.100000e-01    2.200000e+00
 SP5aq  SC5r  1 4.100000e-01    2.200000e+00
 SP6aq  SC5r  1 4.100000e-01    2.040000e+00
 SN1dq  SC5r  1 4.100000e-01    2.840000e+00
 SN2dq  SC5r  1 4.100000e-01    2.600000e+00
 SN3dq  SC5r  1 4.100000e-01    2.600000e+00
 SN4dq  SC5r  1 4.100000e-01    2.600000e+00
 SN5dq  SC5r  1 4.100000e-01    2.600000e+00
 SN6dq  SC5r  1 4.100000e-01    2.600000e+00
 SP1dq  SC5r  1 4.100000e-01    2.350000e+00
 SP2dq  SC5r  1 4.100000e-01    2.350000e+00
 SP3dq  SC5r  1 4.100000e-01    2.350000e+00
 SP4dq  SC5r  1 4.100000e-01    2.200000e+00
 SP5dq  SC5r  1 4.100000e-01    2.200000e+00
 SP6dq  SC5r  1 4.100000e-01    2.040000e+00
 SC5eq  SC4r  1 4.100000e-01    3.070000e+00
 SC6eq  SC4r  1 4.100000e-01    3.070000e+00
 SC5vq  SC4r  1 4.100000e-01    3.070000e+00
 SC6vq  SC4r  1 4.100000e-01    3.070000e+00
 SN1aq  SC4r  1 4.100000e-01    2.840000e+00
 SN2aq  SC4r  1 4.100000e-01    2.600000e+00
 SN3aq  SC4r  1 4.100000e-01    2.600000e+00
 SN4aq  SC4r  1 4.100000e-01    2.600000e+00
 SN5aq  SC4r  1 4.100000e-01    2.350000e+00
 SN6aq  SC4r  1 4.100000e-01    2.350000e+00
 SP1aq  SC4r  1 4.100000e-01    2.200000e+00
 SP2aq  SC4r  1 4.100000e-01    2.200000e+00
 SP3aq  SC4r  1 4.100000e-01    2.200000e+00
 SP4aq  SC4r  1 4.100000e-01    2.040000e+00
 SP5aq  SC4r  1 4.100000e-01    2.040000e+00
 SP6aq  SC4r  1 4.100000e-01    1.910000e+00
 SN1dq  SC4r  1 4.100000e-01    2.840000e+00
 SN2dq  SC4r  1 4.100000e-01    2.600000e+00
 SN3dq  SC4r  1 4.100000e-01    2.600000e+00
 SN4dq  SC4r  1 4.100000e-01    2.600000e+00
 SN5dq  SC4r  1 4.100000e-01    2.350000e+00
 SN6dq  SC4r  1 4.100000e-01    2.350000e+00
 SP1dq  SC4r  1 4.100000e-01    2.200000e+00
 SP2dq  SC4r  1 4.100000e-01    2.200000e+00
 SP3dq  SC4r  1 4.100000e-01    2.200000e+00
 SP4dq  SC4r  1 4.100000e-01    2.040000e+00
 SP5dq  SC4r  1 4.100000e-01    2.040000e+00
 SP6dq  SC4r  1 4.100000e-01    1.910000e+00
 SC4eq  SC3r  1 4.100000e-01    3.070000e+00
 SC5eq  SC3r  1 4.100000e-01    2.840000e+00
 SC6eq  SC3r  1 4.100000e-01    2.840000e+00
 SC4vq  SC3r  1 4.100000e-01    3.070000e+00
 SC5vq  SC3r  1 4.100000e-01    2.840000e+00
 SC6vq  SC3r  1 4.100000e-01    2.840000e+00
 SN1aq  SC3r  1 4.100000e-01    2.600000e+00
 SN2aq  SC3r  1 4.100000e-01    2.600000e+00
 SN3aq  SC3r  1 4.100000e-01    2.350000e+00
 SN4aq  SC3r  1 4.100000e-01    2.350000e+00
 SN5aq  SC3r  1 4.100000e-01    2.350000e+00
 SN6aq  SC3r  1 4.100000e-01    2.200000e+00
 SP1aq  SC3r  1 4.100000e-01    2.040000e+00
 SP2aq  SC3r  1 4.100000e-01    2.040000e+00
 SP3aq  SC3r  1 4.100000e-01    1.910000e+00
 SP4aq  SC3r  1 4.100000e-01    1.910000e+00
 SP5aq  SC3r  1 4.100000e-01    1.910000e+00
 SP6aq  SC3r  1 4.100000e-01    1.750000e+00
 SN1dq  SC3r  1 4.100000e-01    2.600000e+00
 SN2dq  SC3r  1 4.100000e-01    2.600000e+00
 SN3dq  SC3r  1 4.100000e-01    2.350000e+00
 SN4dq  SC3r  1 4.100000e-01    2.350000e+00
 SN5dq  SC3r  1 4.100000e-01    2.350000e+00
 SN6dq  SC3r  1 4.100000e-01    2.200000e+00
 SP1dq  SC3r  1 4.100000e-01    2.040000e+00
 SP2dq  SC3r  1 4.100000e-01    2.040000e+00
 SP3dq  SC3r  1 4.100000e-01    1.910000e+00
 SP4dq  SC3r  1 4.100000e-01    1.910000e+00
 SP5dq  SC3r  1 4.100000e-01    1.910000e+00
 SP6dq  SC3r  1 4.100000e-01    1.750000e+00
 SC3eq  SC2r  1 4.100000e-01    3.070000e+00
 SC4eq  SC2r  1 4.100000e-01    2.840000e+00
 SC5eq  SC2r  1 4.100000e-01    2.600000e+00
 SC6eq  SC2r  1 4.100000e-01    2.600000e+00
 SC3vq  SC2r  1 4.100000e-01    3.070000e+00
 SC4vq  SC2r  1 4.100000e-01    2.840000e+00
 SC5vq  SC2r  1 4.100000e-01    2.600000e+00
 SC6vq  SC2r  1 4.100000e-01    2.600000e+00
 SN1aq  SC2r  1 4.100000e-01    2.350000e+00
 SN2aq  SC2r  1 4.100000e-01    2.350000e+00
 SN3aq  SC2r  1 4.100000e-01    2.350000e+00
 SN4aq  SC2r  1 4.100000e-01    2.200000e+00
 SN5aq  SC2r  1 4.100000e-01    2.200000e+00
 SN6aq  SC2r  1 4.100000e-01    2.200000e+00
 SP1aq  SC2r  1 4.100000e-01    2.040000e+00
 SP2aq  SC2r  1 4.100000e-01    2.040000e+00
 SP3aq  SC2r  1 4.100000e-01    1.910000e+00
 SP4aq  SC2r  1 4.100000e-01    1.910000e+00
 SP5aq  SC2r  1 4.100000e-01    1.910000e+00
 SP6aq  SC2r  1 4.100000e-01    1.750000e+00
 SN1dq  SC2r  1 4.100000e-01    2.350000e+00
 SN2dq  SC2r  1 4.100000e-01    2.350000e+00
 SN3dq  SC2r  1 4.100000e-01    2.350000e+00
 SN4dq  SC2r  1 4.100000e-01    2.200000e+00
 SN5dq  SC2r  1 4.100000e-01    2.200000e+00
 SN6dq  SC2r  1 4.100000e-01    2.200000e+00
 SP1dq  SC2r  1 4.100000e-01    2.040000e+00
 SP2dq  SC2r  1 4.100000e-01    2.040000e+00
 SP3dq  SC2r  1 4.100000e-01    1.910000e+00
 SP4dq  SC2r  1 4.100000e-01    1.910000e+00
 SP5dq  SC2r  1 4.100000e-01    1.910000e+00
 SP6dq  SC2r  1 4.100000e-01    1.750000e+00
 SC2eq  SC1r  1 4.100000e-01    3.310000e+00
 SC3eq  SC1r  1 4.100000e-01    3.070000e+00
 SC4eq  SC1r  1 4.100000e-01    2.600000e+00
 SC5eq  SC1r  1 4.100000e-01    2.600000e+00
 SC6eq  SC1r  1 4.100000e-01    2.350000e+00
 SC2vq  SC1r  1 4.100000e-01    3.310000e+00
 SC3vq  SC1r  1 4.100000e-01    3.070000e+00
 SC4vq  SC1r  1 4.100000e-01    2.600000e+00
 SC5vq  SC1r  1 4.100000e-01    2.600000e+00
 SC6vq  SC1r  1 4.100000e-01    2.350000e+00
 SN1aq  SC1r  1 4.100000e-01    2.200000e+00
 SN2aq  SC1r  1 4.100000e-01    2.200000e+00
 SN3aq  SC1r  1 4.100000e-01    2.200000e+00
 SN4aq  SC1r  1 4.100000e-01    2.040000e+00
 SN5aq  SC1r  1 4.100000e-01    2.040000e+00
 SN6aq  SC1r  1 4.100000e-01    2.040000e+00
 SP1aq  SC1r  1 4.100000e-01    1.910000e+00
 SP2aq  SC1r  1 4.100000e-01    1.910000e+00
 SP3aq  SC1r  1 4.100000e-01    1.750000e+00
 SP4aq  SC1r  1 4.100000e-01    1.750000e+00
 SP5aq  SC1r  1 4.100000e-01    1.750000e+00
 SP6aq  SC1r  1 4.180000e-01    1.400000e+00
 SN1dq  SC1r  1 4.100000e-01    2.200000e+00
 SN2dq  SC1r  1 4.100000e-01    2.200000e+00
 SN3dq  SC1r  1 4.100000e-01    2.200000e+00
 SN4dq  SC1r  1 4.100000e-01    2.040000e+00
 SN5dq  SC1r  1 4.100000e-01    2.040000e+00
 SN6dq  SC1r  1 4.100000e-01    2.040000e+00
 SP1dq  SC1r  1 4.100000e-01    1.910000e+00
 SP2dq  SC1r  1 4.100000e-01    1.910000e+00
 SP3dq  SC1r  1 4.100000e-01    1.750000e+00
 SP4dq  SC1r  1 4.100000e-01    1.750000e+00
 SP5dq  SC1r  1 4.100000e-01    1.750000e+00
 SP6dq  SC1r  1 4.180000e-01    1.400000e+00
 SC1eq  SX4r  1 4.100000e-01    2.350000e+00
 SC2eq  SX4r  1 4.100000e-01    2.350000e+00
 SC3eq  SX4r  1 4.100000e-01    2.840000e+00
 SC4eq  SX4r  1 4.100000e-01    2.840000e+00
 SC5eq  SX4r  1 4.100000e-01    2.840000e+00
 SC6eq  SX4r  1 4.100000e-01    3.070000e+00
 SC1vq  SX4r  1 4.100000e-01    2.350000e+00
 SC2vq  SX4r  1 4.100000e-01    2.350000e+00
 SC3vq  SX4r  1 4.100000e-01    2.840000e+00
 SC4vq  SX4r  1 4.100000e-01    2.840000e+00
 SC5vq  SX4r  1 4.100000e-01    2.840000e+00
 SC6vq  SX4r  1 4.100000e-01    3.070000e+00
 SN1aq  SX4r  1 4.100000e-01    2.840000e+00
 SN2aq  SX4r  1 4.100000e-01    3.070000e+00
 SN3aq  SX4r  1 4.100000e-01    3.070000e+00
 SN4aq  SX4r  1 4.100000e-01    3.310000e+00
 SN5aq  SX4r  1 4.100000e-01    3.070000e+00
 SN6aq  SX4r  1 4.100000e-01    2.840000e+00
 SP1aq  SX4r  1 4.100000e-01    2.600000e+00
 SP2aq  SX4r  1 4.100000e-01    2.600000e+00
 SP3aq  SX4r  1 4.100000e-01    2.600000e+00
 SP4aq  SX4r  1 4.100000e-01    2.600000e+00
 SP5aq  SX4r  1 4.100000e-01    2.600000e+00
 SP6aq  SX4r  1 4.100000e-01    2.350000e+00
 SN1dq  SX4r  1 4.100000e-01    2.840000e+00
 SN2dq  SX4r  1 4.100000e-01    3.070000e+00
 SN3dq  SX4r  1 4.100000e-01    3.070000e+00
 SN4dq  SX4r  1 4.100000e-01    3.310000e+00
 SN5dq  SX4r  1 4.100000e-01    3.070000e+00
 SN6dq  SX4r  1 4.100000e-01    2.840000e+00
 SP1dq  SX4r  1 4.100000e-01    2.600000e+00
 SP2dq  SX4r  1 4.100000e-01    2.600000e+00
 SP3dq  SX4r  1 4.100000e-01    2.600000e+00
 SP4dq  SX4r  1 4.100000e-01    2.600000e+00
 SP5dq  SX4r  1 4.100000e-01    2.600000e+00
 SP6dq  SX4r  1 4.100000e-01    2.350000e+00
 SX4eq  SX3r  1 4.100000e-01    3.070000e+00
 SC1eq  SX3r  1 4.100000e-01    2.840000e+00
 SC2eq  SX3r  1 4.100000e-01    2.840000e+00
 SC3eq  SX3r  1 4.100000e-01    2.840000e+00
 SC4eq  SX3r  1 4.100000e-01    2.840000e+00
 SC5eq  SX3r  1 4.100000e-01    2.840000e+00
 SC6eq  SX3r  1 4.100000e-01    3.070000e+00
 SX4vq  SX3r  1 4.100000e-01    3.070000e+00
 SC1vq  SX3r  1 4.100000e-01    2.840000e+00
 SC2vq  SX3r  1 4.100000e-01    2.840000e+00
 SC3vq  SX3r  1 4.100000e-01    2.840000e+00
 SC4vq  SX3r  1 4.100000e-01    2.840000e+00
 SC5vq  SX3r  1 4.100000e-01    2.840000e+00
 SC6vq  SX3r  1 4.100000e-01    3.070000e+00
 SN1aq  SX3r  1 4.100000e-01    2.840000e+00
 SN2aq  SX3r  1 4.100000e-01    2.840000e+00
 SN3aq  SX3r  1 4.100000e-01    2.840000e+00
 SN4aq  SX3r  1 4.100000e-01    3.070000e+00
 SN5aq  SX3r  1 4.100000e-01    2.840000e+00
 SN6aq  SX3r  1 4.100000e-01    2.600000e+00
 SP1aq  SX3r  1 4.100000e-01    2.600000e+00
 SP2aq  SX3r  1 4.100000e-01    2.600000e+00
 SP3aq  SX3r  1 4.100000e-01    2.600000e+00
 SP4aq  SX3r  1 4.100000e-01    2.350000e+00
 SP5aq  SX3r  1 4.100000e-01    2.350000e+00
 SP6aq  SX3r  1 4.100000e-01    2.350000e+00
 SN1dq  SX3r  1 4.100000e-01    2.840000e+00
 SN2dq  SX3r  1 4.100000e-01    2.840000e+00
 SN3dq  SX3r  1 4.100000e-01    2.840000e+00
 SN4dq  SX3r  1 4.100000e-01    3.070000e+00
 SN5dq  SX3r  1 4.100000e-01    2.840000e+00
 SN6dq  SX3r  1 4.100000e-01    2.600000e+00
 SP1dq  SX3r  1 4.100000e-01    2.600000e+00
 SP2dq  SX3r  1 4.100000e-01    2.600000e+00
 SP3dq  SX3r  1 4.100000e-01    2.600000e+00
 SP4dq  SX3r  1 4.100000e-01    2.350000e+00
 SP5dq  SX3r  1 4.100000e-01    2.350000e+00
 SP6dq  SX3r  1 4.100000e-01    2.350000e+00
 SX3eq  SX2r  1 4.100000e-01    3.310000e+00
 SX4eq  SX2r  1 4.100000e-01    3.070000e+00
 SC1eq  SX2r  1 4.100000e-01    2.840000e+00
 SC2eq  SX2r  1 4.100000e-01    2.840000e+00
 SC3eq  SX2r  1 4.100000e-01    2.840000e+00
 SC4eq  SX2r  1 4.100000e-01    2.840000e+00
 SC5eq  SX2r  1 4.100000e-01    2.840000e+00
 SC6eq  SX2r  1 4.100000e-01    3.070000e+00
 SX3vq  SX2r  1 4.100000e-01    3.310000e+00
 SX4vq  SX2r  1 4.100000e-01    3.070000e+00
 SC1vq  SX2r  1 4.100000e-01    2.840000e+00
 SC2vq  SX2r  1 4.100000e-01    2.840000e+00
 SC3vq  SX2r  1 4.100000e-01    2.840000e+00
 SC4vq  SX2r  1 4.100000e-01    2.840000e+00
 SC5vq  SX2r  1 4.100000e-01    2.840000e+00
 SC6vq  SX2r  1 4.100000e-01    3.070000e+00
 SN1aq  SX2r  1 4.100000e-01    2.600000e+00
 SN2aq  SX2r  1 4.100000e-01    2.600000e+00
 SN3aq  SX2r  1 4.100000e-01    2.600000e+00
 SN4aq  SX2r  1 4.100000e-01    2.600000e+00
 SN5aq  SX2r  1 4.100000e-01    2.600000e+00
 SN6aq  SX2r  1 4.100000e-01    2.350000e+00
 SP1aq  SX2r  1 4.100000e-01    2.350000e+00
 SP2aq  SX2r  1 4.100000e-01    2.350000e+00
 SP3aq  SX2r  1 4.100000e-01    2.350000e+00
 SP4aq  SX2r  1 4.100000e-01    2.350000e+00
 SP5aq  SX2r  1 4.100000e-01    2.350000e+00
 SP6aq  SX2r  1 4.100000e-01    2.200000e+00
 SN1dq  SX2r  1 4.100000e-01    2.600000e+00
 SN2dq  SX2r  1 4.100000e-01    2.600000e+00
 SN3dq  SX2r  1 4.100000e-01    2.600000e+00
 SN4dq  SX2r  1 4.100000e-01    2.600000e+00
 SN5dq  SX2r  1 4.100000e-01    2.600000e+00
 SN6dq  SX2r  1 4.100000e-01    2.350000e+00
 SP1dq  SX2r  1 4.100000e-01    2.350000e+00
 SP2dq  SX2r  1 4.100000e-01    2.350000e+00
 SP3dq  SX2r  1 4.100000e-01    2.350000e+00
 SP4dq  SX2r  1 4.100000e-01    2.350000e+00
 SP5dq  SX2r  1 4.100000e-01    2.350000e+00
 SP6dq  SX2r  1 4.100000e-01    2.200000e+00
 SX2eq  SX1r  1 4.100000e-01    3.310000e+00
 SX3eq  SX1r  1 4.100000e-01    3.310000e+00
 SX4eq  SX1r  1 4.100000e-01    3.070000e+00
 SC1eq  SX1r  1 4.100000e-01    2.840000e+00
 SC2eq  SX1r  1 4.100000e-01    2.840000e+00
 SC3eq  SX1r  1 4.100000e-01    3.070000e+00
 SC4eq  SX1r  1 4.100000e-01    3.070000e+00
 SC5eq  SX1r  1 4.100000e-01    3.070000e+00
 SC6eq  SX1r  1 4.100000e-01    3.070000e+00
 SX2vq  SX1r  1 4.100000e-01    3.310000e+00
 SX3vq  SX1r  1 4.100000e-01    3.310000e+00
 SX4vq  SX1r  1 4.100000e-01    3.070000e+00
 SC1vq  SX1r  1 4.100000e-01    2.840000e+00
 SC2vq  SX1r  1 4.100000e-01    2.840000e+00
 SC3vq  SX1r  1 4.100000e-01    3.070000e+00
 SC4vq  SX1r  1 4.100000e-01    3.070000e+00
 SC5vq  SX1r  1 4.100000e-01    3.070000e+00
 SC6vq  SX1r  1 4.100000e-01    3.070000e+00
 SN1aq  SX1r  1 4.100000e-01    2.600000e+00
 SN2aq  SX1r  1 4.100000e-01    2.600000e+00
 SN3aq  SX1r  1 4.100000e-01    2.600000e+00
 SN4aq  SX1r  1 4.100000e-01    2.350000e+00
 SN5aq  SX1r  1 4.100000e-01    2.350000e+00
 SN6aq  SX1r  1 4.100000e-01    2.200000e+00
 SP1aq  SX1r  1 4.100000e-01    2.200000e+00
 SP2aq  SX1r  1 4.100000e-01    2.200000e+00
 SP3aq  SX1r  1 4.100000e-01    2.200000e+00
 SP4aq  SX1r  1 4.100000e-01    2.200000e+00
 SP5aq  SX1r  1 4.100000e-01    2.040000e+00
 SP6aq  SX1r  1 4.100000e-01    2.040000e+00
 SN1dq  SX1r  1 4.100000e-01    2.600000e+00
 SN2dq  SX1r  1 4.100000e-01    2.600000e+00
 SN3dq  SX1r  1 4.100000e-01    2.600000e+00
 SN4dq  SX1r  1 4.100000e-01    2.350000e+00
 SN5dq  SX1r  1 4.100000e-01    2.350000e+00
 SN6dq  SX1r  1 4.100000e-01    2.200000e+00
 SP1dq  SX1r  1 4.100000e-01    2.200000e+00
 SP2dq  SX1r  1 4.100000e-01    2.200000e+00
 SP3dq  SX1r  1 4.100000e-01    2.200000e+00
 SP4dq  SX1r  1 4.100000e-01    2.200000e+00
 SP5dq  SX1r  1 4.100000e-01    2.040000e+00
 SP6dq  SX1r  1 4.100000e-01    2.040000e+00
 SP6dr  SP5d  1 4.100000e-01    3.820000e+00
 SP6dr  SP4d  1 4.100000e-01    3.550000e+00
 SP6dr  SP3d  1 4.100000e-01    3.310000e+00
 SP6dr  SP2d  1 4.100000e-01    3.310000e+00
 SP6dr  SP1d  1 4.100000e-01    3.070000e+00
 SP6dr  SN6d  1 4.100000e-01    2.840000e+00
 SP6dr  SN5d  1 4.100000e-01    2.350000e+00
 SP6dr  SN4d  1 4.100000e-01    2.200000e+00
 SP6dr  SN3d  1 4.100000e-01    2.200000e+00
 SP6dr  SN2d  1 4.100000e-01    2.040000e+00
 SP6dr  SN1d  1 4.100000e-01    1.910000e+00
 SP6dr  SP6a  1 4.100000e-01    4.550000e+00
 SP6dr  SP5a  1 4.100000e-01    4.290000e+00
 SP6dr  SP4a  1 4.100000e-01    4.040000e+00
 SP6dr  SP3a  1 4.100000e-01    3.820000e+00
 SP6dr  SP2a  1 4.100000e-01    3.820000e+00
 SP6dr  SP1a  1 4.100000e-01    3.550000e+00
 SP6dr  SN6a  1 4.100000e-01    3.310000e+00
 SP6dr  SN5a  1 4.100000e-01    2.840000e+00
 SP6dr  SN4a  1 4.100000e-01    2.600000e+00
 SP6dr  SN3a  1 4.100000e-01    2.200000e+00
 SP6dr  SN2a  1 4.100000e-01    2.040000e+00
 SP6dr  SN1a  1 4.100000e-01    1.910000e+00
 SP6dr  SC6e  1 4.100000e-01    2.040000e+00
 SP6dr  SC5e  1 4.100000e-01    1.910000e+00
 SP6dr  SC4e  1 4.100000e-01    1.750000e+00
 SP6dr  SC3e  1 4.140000e-01    1.560000e+00
 SP6dr  SC2e  1 4.140000e-01    1.560000e+00
 SP6dr  SC1e  1 4.210000e-01    1.250000e+00
 SP6dr  SX4e  1 4.100000e-01    2.200000e+00
 SP6dr  SX3e  1 4.100000e-01    2.200000e+00
 SP6dr  SX2e  1 4.100000e-01    2.040000e+00
 SP6dr  SX1e  1 4.100000e-01    1.910000e+00
 SP6dr  SC6v  1 4.100000e-01    1.750000e+00
 SP6dr  SC5v  1 4.140000e-01    1.560000e+00
 SP6dr  SC4v  1 4.180000e-01    1.400000e+00
 SP6dr  SC3v  1 4.210000e-01    1.250000e+00
 SP6dr  SC2v  1 4.210000e-01    1.250000e+00
 SP6dr  SC1v  1 4.960000e-01    1.050000e+00
 SP6dr  SX4v  1 4.100000e-01    1.910000e+00
 SP6dr  SX3v  1 4.100000e-01    1.910000e+00
 SP6dr  SX2v  1 4.100000e-01    1.750000e+00
 SP6dr  SX1v  1 4.140000e-01    1.560000e+00
 SP6dr  SP5q  1 4.100000e-01    4.550000e+00
 SP6dr  SP4q  1 4.100000e-01    4.290000e+00
 SP6dr  SP3q  1 4.100000e-01    4.040000e+00
 SP6dr  SP2q  1 4.100000e-01    4.040000e+00
 SP6dr  SP1q  1 4.100000e-01    3.820000e+00
 SP6dr  SN6q  1 4.100000e-01    3.550000e+00
 SP6dr  SN5q  1 4.100000e-01    3.070000e+00
 SP6dr  SN4q  1 4.100000e-01    2.840000e+00
 SP6dr  SN3q  1 4.100000e-01    2.600000e+00
 SP6dr  SN2q  1 4.100000e-01    2.350000e+00
 SP6dr  SN1q  1 4.100000e-01    2.200000e+00
 SP6dr  SC6q  1 4.100000e-01    2.200000e+00
 SP6dr  SC5q  1 4.100000e-01    2.040000e+00
 SP6dr  SC4q  1 4.100000e-01    1.910000e+00
 SP6dr  SC3q  1 4.100000e-01    1.750000e+00
 SP6dr  SC2q  1 4.100000e-01    1.750000e+00
 SP6dr  SC1q  1 4.180000e-01    1.400000e+00
 SP6dr  SX4q  1 4.100000e-01    2.350000e+00
 SP6dr  SX3q  1 4.100000e-01    2.350000e+00
 SP6dr  SX2q  1 4.100000e-01    2.200000e+00
 SP6dr  SX1q  1 4.100000e-01    2.040000e+00
 SP5dr  SP4d  1 4.100000e-01    3.310000e+00
 SP5dr  SP3d  1 4.100000e-01    3.070000e+00
 SP5dr  SP2d  1 4.100000e-01    3.070000e+00
 SP5dr  SP1d  1 4.100000e-01    2.840000e+00
 SP5dr  SN6d  1 4.100000e-01    2.600000e+00
 SP5dr  SN5d  1 4.100000e-01    2.350000e+00
 SP5dr  SN4d  1 4.100000e-01    2.350000e+00
 SP5dr  SN3d  1 4.100000e-01    2.200000e+00
 SP5dr  SN2d  1 4.100000e-01    2.040000e+00
 SP5dr  SN1d  1 4.100000e-01    1.910000e+00
 SP5dr  SP5a  1 4.100000e-01    4.040000e+00
 SP5dr  SP4a  1 4.100000e-01    3.820000e+00
 SP5dr  SP3a  1 4.100000e-01    3.550000e+00
 SP5dr  SP2a  1 4.100000e-01    3.550000e+00
 SP5dr  SP1a  1 4.100000e-01    3.310000e+00
 SP5dr  SN6a  1 4.100000e-01    3.070000e+00
 SP5dr  SN5a  1 4.100000e-01    2.840000e+00
 SP5dr  SN4a  1 4.100000e-01    2.840000e+00
 SP5dr  SN3a  1 4.100000e-01    2.200000e+00
 SP5dr  SN2a  1 4.100000e-01    2.040000e+00
 SP5dr  SN1a  1 4.100000e-01    1.910000e+00
 SP5dr  SC6e  1 4.100000e-01    2.040000e+00
 SP5dr  SC5e  1 4.100000e-01    2.040000e+00
 SP5dr  SC4e  1 4.100000e-01    1.910000e+00
 SP5dr  SC3e  1 4.100000e-01    1.750000e+00
 SP5dr  SC2e  1 4.100000e-01    1.750000e+00
 SP5dr  SC1e  1 4.140000e-01    1.560000e+00
 SP5dr  SX4e  1 4.100000e-01    2.350000e+00
 SP5dr  SX3e  1 4.100000e-01    2.200000e+00
 SP5dr  SX2e  1 4.100000e-01    2.200000e+00
 SP5dr  SX1e  1 4.100000e-01    1.910000e+00
 SP5dr  SC6v  1 4.100000e-01    1.750000e+00
 SP5dr  SC5v  1 4.100000e-01    1.750000e+00
 SP5dr  SC4v  1 4.140000e-01    1.560000e+00
 SP5dr  SC3v  1 4.180000e-01    1.400000e+00
 SP5dr  SC2v  1 4.180000e-01    1.400000e+00
 SP5dr  SC1v  1 4.210000e-01    1.250000e+00
 SP5dr  SX4v  1 4.100000e-01    2.040000e+00
 SP5dr  SX3v  1 4.100000e-01    1.910000e+00
 SP5dr  SX2v  1 4.100000e-01    1.910000e+00
 SP5dr  SX1v  1 4.140000e-01    1.560000e+00
 SP5dr  SP4q  1 4.100000e-01    4.040000e+00
 SP5dr  SP3q  1 4.100000e-01    3.820000e+00
 SP5dr  SP2q  1 4.100000e-01    3.820000e+00
 SP5dr  SP1q  1 4.100000e-01    3.550000e+00
 SP5dr  SN6q  1 4.100000e-01    3.310000e+00
 SP5dr  SN5q  1 4.100000e-01    3.070000e+00
 SP5dr  SN4q  1 4.100000e-01    3.070000e+00
 SP5dr  SN3q  1 4.100000e-01    2.600000e+00
 SP5dr  SN2q  1 4.100000e-01    2.350000e+00
 SP5dr  SN1q  1 4.100000e-01    2.200000e+00
 SP5dr  SC6q  1 4.100000e-01    2.200000e+00
 SP5dr  SC5q  1 4.100000e-01    2.200000e+00
 SP5dr  SC4q  1 4.100000e-01    2.040000e+00
 SP5dr  SC3q  1 4.100000e-01    1.910000e+00
 SP5dr  SC2q  1 4.100000e-01    1.910000e+00
 SP5dr  SC1q  1 4.100000e-01    1.750000e+00
 SP5dr  SX4q  1 4.100000e-01    2.600000e+00
 SP5dr  SX3q  1 4.100000e-01    2.350000e+00
 SP5dr  SX2q  1 4.100000e-01    2.350000e+00
 SP5dr  SX1q  1 4.100000e-01    2.040000e+00
 SP4dr  SP3d  1 4.100000e-01    3.070000e+00
 SP4dr  SP2d  1 4.100000e-01    3.070000e+00
 SP4dr  SP1d  1 4.100000e-01    2.840000e+00
 SP4dr  SN6d  1 4.100000e-01    2.600000e+00
 SP4dr  SN5d  1 4.100000e-01    2.350000e+00
 SP4dr  SN4d  1 4.100000e-01    2.350000e+00
 SP4dr  SN3d  1 4.100000e-01    2.200000e+00
 SP4dr  SN2d  1 4.100000e-01    2.200000e+00
 SP4dr  SN1d  1 4.100000e-01    2.040000e+00
 SP4dr  SP4a  1 4.100000e-01    3.820000e+00
 SP4dr  SP3a  1 4.100000e-01    3.550000e+00
 SP4dr  SP2a  1 4.100000e-01    3.550000e+00
 SP4dr  SP1a  1 4.100000e-01    3.310000e+00
 SP4dr  SN6a  1 4.100000e-01    3.070000e+00
 SP4dr  SN5a  1 4.100000e-01    2.840000e+00
 SP4dr  SN4a  1 4.100000e-01    2.840000e+00
 SP4dr  SN3a  1 4.100000e-01    2.600000e+00
 SP4dr  SN2a  1 4.100000e-01    2.200000e+00
 SP4dr  SN1a  1 4.100000e-01    2.040000e+00
 SP4dr  SC6e  1 4.100000e-01    2.200000e+00
 SP4dr  SC5e  1 4.100000e-01    2.040000e+00
 SP4dr  SC4e  1 4.100000e-01    1.910000e+00
 SP4dr  SC3e  1 4.100000e-01    1.750000e+00
 SP4dr  SC2e  1 4.100000e-01    1.750000e+00
 SP4dr  SC1e  1 4.140000e-01    1.560000e+00
 SP4dr  SX4e  1 4.100000e-01    2.350000e+00
 SP4dr  SX3e  1 4.100000e-01    2.200000e+00
 SP4dr  SX2e  1 4.100000e-01    2.200000e+00
 SP4dr  SX1e  1 4.100000e-01    2.040000e+00
 SP4dr  SC6v  1 4.100000e-01    1.910000e+00
 SP4dr  SC5v  1 4.100000e-01    1.750000e+00
 SP4dr  SC4v  1 4.140000e-01    1.560000e+00
 SP4dr  SC3v  1 4.180000e-01    1.400000e+00
 SP4dr  SC2v  1 4.180000e-01    1.400000e+00
 SP4dr  SC1v  1 4.210000e-01    1.250000e+00
 SP4dr  SX4v  1 4.100000e-01    2.040000e+00
 SP4dr  SX3v  1 4.100000e-01    1.910000e+00
 SP4dr  SX2v  1 4.100000e-01    1.910000e+00
 SP4dr  SX1v  1 4.100000e-01    1.750000e+00
 SP4dr  SP3q  1 4.100000e-01    3.820000e+00
 SP4dr  SP2q  1 4.100000e-01    3.820000e+00
 SP4dr  SP1q  1 4.100000e-01    3.550000e+00
 SP4dr  SN6q  1 4.100000e-01    3.310000e+00
 SP4dr  SN5q  1 4.100000e-01    3.070000e+00
 SP4dr  SN4q  1 4.100000e-01    3.070000e+00
 SP4dr  SN3q  1 4.100000e-01    2.840000e+00
 SP4dr  SN2q  1 4.100000e-01    2.600000e+00
 SP4dr  SN1q  1 4.100000e-01    2.350000e+00
 SP4dr  SC6q  1 4.100000e-01    2.350000e+00
 SP4dr  SC5q  1 4.100000e-01    2.200000e+00
 SP4dr  SC4q  1 4.100000e-01    2.040000e+00
 SP4dr  SC3q  1 4.100000e-01    1.910000e+00
 SP4dr  SC2q  1 4.100000e-01    1.910000e+00
 SP4dr  SC1q  1 4.100000e-01    1.750000e+00
 SP4dr  SX4q  1 4.100000e-01    2.600000e+00
 SP4dr  SX3q  1 4.100000e-01    2.350000e+00
 SP4dr  SX2q  1 4.100000e-01    2.350000e+00
 SP4dr  SX1q  1 4.100000e-01    2.200000e+00
 SP3dr  SP2d  1 4.100000e-01    3.070000e+00
 SP3dr  SP1d  1 4.100000e-01    2.840000e+00
 SP3dr  SN6d  1 4.100000e-01    2.600000e+00
 SP3dr  SN5d  1 4.100000e-01    2.350000e+00
 SP3dr  SN4d  1 4.100000e-01    2.350000e+00
 SP3dr  SN3d  1 4.100000e-01    2.200000e+00
 SP3dr  SN2d  1 4.100000e-01    2.200000e+00
 SP3dr  SN1d  1 4.100000e-01    2.200000e+00
 SP3dr  SP3a  1 4.100000e-01    3.550000e+00
 SP3dr  SP2a  1 4.100000e-01    3.550000e+00
 SP3dr  SP1a  1 4.100000e-01    3.310000e+00
 SP3dr  SN6a  1 4.100000e-01    3.070000e+00
 SP3dr  SN5a  1 4.100000e-01    2.840000e+00
 SP3dr  SN4a  1 4.100000e-01    2.840000e+00
 SP3dr  SN3a  1 4.100000e-01    2.600000e+00
 SP3dr  SN2a  1 4.100000e-01    2.600000e+00
 SP3dr  SN1a  1 4.100000e-01    2.200000e+00
 SP3dr  SC6e  1 4.100000e-01    2.350000e+00
 SP3dr  SC5e  1 4.100000e-01    2.200000e+00
 SP3dr  SC4e  1 4.100000e-01    2.040000e+00
 SP3dr  SC3e  1 4.100000e-01    1.750000e+00
 SP3dr  SC2e  1 4.100000e-01    1.750000e+00
 SP3dr  SC1e  1 4.140000e-01    1.560000e+00
 SP3dr  SX4e  1 4.100000e-01    2.350000e+00
 SP3dr  SX3e  1 4.100000e-01    2.350000e+00
 SP3dr  SX2e  1 4.100000e-01    2.200000e+00
 SP3dr  SX1e  1 4.100000e-01    2.040000e+00
 SP3dr  SC6v  1 4.100000e-01    2.040000e+00
 SP3dr  SC5v  1 4.100000e-01    1.910000e+00
 SP3dr  SC4v  1 4.100000e-01    1.750000e+00
 SP3dr  SC3v  1 4.180000e-01    1.400000e+00
 SP3dr  SC2v  1 4.180000e-01    1.400000e+00
 SP3dr  SC1v  1 4.210000e-01    1.250000e+00
 SP3dr  SX4v  1 4.100000e-01    2.040000e+00
 SP3dr  SX3v  1 4.100000e-01    2.040000e+00
 SP3dr  SX2v  1 4.100000e-01    1.910000e+00
 SP3dr  SX1v  1 4.100000e-01    1.750000e+00
 SP3dr  SP2q  1 4.100000e-01    3.820000e+00
 SP3dr  SP1q  1 4.100000e-01    3.550000e+00
 SP3dr  SN6q  1 4.100000e-01    3.310000e+00
 SP3dr  SN5q  1 4.100000e-01    3.070000e+00
 SP3dr  SN4q  1 4.100000e-01    3.070000e+00
 SP3dr  SN3q  1 4.100000e-01    2.840000e+00
 SP3dr  SN2q  1 4.100000e-01    2.840000e+00
 SP3dr  SN1q  1 4.100000e-01    2.600000e+00
 SP3dr  SC6q  1 4.100000e-01    2.600000e+00
 SP3dr  SC5q  1 4.100000e-01    2.350000e+00
 SP3dr  SC4q  1 4.100000e-01    2.200000e+00
 SP3dr  SC3q  1 4.100000e-01    1.910000e+00
 SP3dr  SC2q  1 4.100000e-01    1.910000e+00
 SP3dr  SC1q  1 4.100000e-01    1.750000e+00
 SP3dr  SX4q  1 4.100000e-01    2.600000e+00
 SP3dr  SX3q  1 4.100000e-01    2.600000e+00
 SP3dr  SX2q  1 4.100000e-01    2.350000e+00
 SP3dr  SX1q  1 4.100000e-01    2.200000e+00
 SP2dr  SP1d  1 4.100000e-01    2.840000e+00
 SP2dr  SN6d  1 4.100000e-01    2.840000e+00
 SP2dr  SN5d  1 4.100000e-01    2.600000e+00
 SP2dr  SN4d  1 4.100000e-01    2.350000e+00
 SP2dr  SN3d  1 4.100000e-01    2.200000e+00
 SP2dr  SN2d  1 4.100000e-01    2.200000e+00
 SP2dr  SN1d  1 4.100000e-01    2.200000e+00
 SP2dr  SP2a  1 4.100000e-01    3.550000e+00
 SP2dr  SP1a  1 4.100000e-01    3.310000e+00
 SP2dr  SN6a  1 4.100000e-01    3.310000e+00
 SP2dr  SN5a  1 4.100000e-01    3.070000e+00
 SP2dr  SN4a  1 4.100000e-01    2.840000e+00
 SP2dr  SN3a  1 4.100000e-01    2.600000e+00
 SP2dr  SN2a  1 4.100000e-01    2.600000e+00
 SP2dr  SN1a  1 4.100000e-01    2.600000e+00
 SP2dr  SC6e  1 4.100000e-01    2.350000e+00
 SP2dr  SC5e  1 4.100000e-01    2.200000e+00
 SP2dr  SC4e  1 4.100000e-01    2.040000e+00
 SP2dr  SC3e  1 4.100000e-01    1.910000e+00
 SP2dr  SC2e  1 4.100000e-01    1.910000e+00
 SP2dr  SC1e  1 4.100000e-01    1.750000e+00
 SP2dr  SX4e  1 4.100000e-01    2.350000e+00
 SP2dr  SX3e  1 4.100000e-01    2.350000e+00
 SP2dr  SX2e  1 4.100000e-01    2.200000e+00
 SP2dr  SX1e  1 4.100000e-01    2.040000e+00
 SP2dr  SC6v  1 4.100000e-01    2.040000e+00
 SP2dr  SC5v  1 4.100000e-01    1.910000e+00
 SP2dr  SC4v  1 4.100000e-01    1.750000e+00
 SP2dr  SC3v  1 4.140000e-01    1.560000e+00
 SP2dr  SC2v  1 4.140000e-01    1.560000e+00
 SP2dr  SC1v  1 4.180000e-01    1.400000e+00
 SP2dr  SX4v  1 4.100000e-01    2.040000e+00
 SP2dr  SX3v  1 4.100000e-01    2.040000e+00
 SP2dr  SX2v  1 4.100000e-01    1.910000e+00
 SP2dr  SX1v  1 4.100000e-01    1.750000e+00
 SP2dr  SP1q  1 4.100000e-01    3.550000e+00
 SP2dr  SN6q  1 4.100000e-01    3.550000e+00
 SP2dr  SN5q  1 4.100000e-01    3.310000e+00
 SP2dr  SN4q  1 4.100000e-01    3.070000e+00
 SP2dr  SN3q  1 4.100000e-01    2.840000e+00
 SP2dr  SN2q  1 4.100000e-01    2.840000e+00
 SP2dr  SN1q  1 4.100000e-01    2.840000e+00
 SP2dr  SC6q  1 4.100000e-01    2.600000e+00
 SP2dr  SC5q  1 4.100000e-01    2.350000e+00
 SP2dr  SC4q  1 4.100000e-01    2.200000e+00
 SP2dr  SC3q  1 4.100000e-01    2.040000e+00
 SP2dr  SC2q  1 4.100000e-01    2.040000e+00
 SP2dr  SC1q  1 4.100000e-01    1.910000e+00
 SP2dr  SX4q  1 4.100000e-01    2.600000e+00
 SP2dr  SX3q  1 4.100000e-01    2.600000e+00
 SP2dr  SX2q  1 4.100000e-01    2.350000e+00
 SP2dr  SX1q  1 4.100000e-01    2.200000e+00
 SP1dr  SN6d  1 4.100000e-01    2.840000e+00
 SP1dr  SN5d  1 4.100000e-01    2.600000e+00
 SP1dr  SN4d  1 4.100000e-01    2.600000e+00
 SP1dr  SN3d  1 4.100000e-01    2.200000e+00
 SP1dr  SN2d  1 4.100000e-01    2.200000e+00
 SP1dr  SN1d  1 4.100000e-01    2.200000e+00
 SP1dr  SP1a  1 4.100000e-01    3.310000e+00
 SP1dr  SN6a  1 4.100000e-01    3.310000e+00
 SP1dr  SN5a  1 4.100000e-01    3.070000e+00
 SP1dr  SN4a  1 4.100000e-01    3.070000e+00
 SP1dr  SN3a  1 4.100000e-01    2.600000e+00
 SP1dr  SN2a  1 4.100000e-01    2.600000e+00
 SP1dr  SN1a  1 4.100000e-01    2.600000e+00
 SP1dr  SC6e  1 4.100000e-01    2.350000e+00
 SP1dr  SC5e  1 4.100000e-01    2.200000e+00
 SP1dr  SC4e  1 4.100000e-01    2.040000e+00
 SP1dr  SC3e  1 4.100000e-01    1.910000e+00
 SP1dr  SC2e  1 4.100000e-01    1.910000e+00
 SP1dr  SC1e  1 4.100000e-01    1.750000e+00
 SP1dr  SX4e  1 4.100000e-01    2.350000e+00
 SP1dr  SX3e  1 4.100000e-01    2.350000e+00
 SP1dr  SX2e  1 4.100000e-01    2.200000e+00
 SP1dr  SX1e  1 4.100000e-01    2.040000e+00
 SP1dr  SC6v  1 4.100000e-01    2.040000e+00
 SP1dr  SC5v  1 4.100000e-01    1.910000e+00
 SP1dr  SC4v  1 4.100000e-01    1.750000e+00
 SP1dr  SC3v  1 4.140000e-01    1.560000e+00
 SP1dr  SC2v  1 4.140000e-01    1.560000e+00
 SP1dr  SC1v  1 4.180000e-01    1.400000e+00
 SP1dr  SX4v  1 4.100000e-01    2.040000e+00
 SP1dr  SX3v  1 4.100000e-01    2.040000e+00
 SP1dr  SX2v  1 4.100000e-01    1.910000e+00
 SP1dr  SX1v  1 4.100000e-01    1.750000e+00
 SP1dr  SN6q  1 4.100000e-01    3.550000e+00
 SP1dr  SN5q  1 4.100000e-01    3.310000e+00
 SP1dr  SN4q  1 4.100000e-01    3.310000e+00
 SP1dr  SN3q  1 4.100000e-01    2.840000e+00
 SP1dr  SN2q  1 4.100000e-01    2.840000e+00
 SP1dr  SN1q  1 4.100000e-01    2.840000e+00
 SP1dr  SC6q  1 4.100000e-01    2.600000e+00
 SP1dr  SC5q  1 4.100000e-01    2.350000e+00
 SP1dr  SC4q  1 4.100000e-01    2.200000e+00
 SP1dr  SC3q  1 4.100000e-01    2.040000e+00
 SP1dr  SC2q  1 4.100000e-01    2.040000e+00
 SP1dr  SC1q  1 4.100000e-01    1.910000e+00
 SP1dr  SX4q  1 4.100000e-01    2.600000e+00
 SP1dr  SX3q  1 4.100000e-01    2.600000e+00
 SP1dr  SX2q  1 4.100000e-01    2.350000e+00
 SP1dr  SX1q  1 4.100000e-01    2.200000e+00
 SN6dr  SN5d  1 4.100000e-01    2.840000e+00
 SN6dr  SN4d  1 4.100000e-01    2.840000e+00
 SN6dr  SN3d  1 4.100000e-01    2.350000e+00
 SN6dr  SN2d  1 4.100000e-01    2.200000e+00
 SN6dr  SN1d  1 4.100000e-01    2.200000e+00
 SN6dr  SN6a  1 4.100000e-01    3.310000e+00
 SN6dr  SN5a  1 4.100000e-01    3.310000e+00
 SN6dr  SN4a  1 4.100000e-01    3.310000e+00
 SN6dr  SN3a  1 4.100000e-01    2.840000e+00
 SN6dr  SN2a  1 4.100000e-01    2.600000e+00
 SN6dr  SN1a  1 4.100000e-01    2.600000e+00
 SN6dr  SC6e  1 4.100000e-01    2.600000e+00
 SN6dr  SC5e  1 4.100000e-01    2.350000e+00
 SN6dr  SC4e  1 4.100000e-01    2.200000e+00
 SN6dr  SC3e  1 4.100000e-01    2.040000e+00
 SN6dr  SC2e  1 4.100000e-01    2.040000e+00
 SN6dr  SC1e  1 4.100000e-01    1.910000e+00
 SN6dr  SX4e  1 4.100000e-01    2.600000e+00
 SN6dr  SX3e  1 4.100000e-01    2.350000e+00
 SN6dr  SX2e  1 4.100000e-01    2.200000e+00
 SN6dr  SX1e  1 4.100000e-01    2.040000e+00
 SN6dr  SC6v  1 4.100000e-01    2.200000e+00
 SN6dr  SC5v  1 4.100000e-01    2.040000e+00
 SN6dr  SC4v  1 4.100000e-01    1.910000e+00
 SN6dr  SC3v  1 4.100000e-01    1.750000e+00
 SN6dr  SC2v  1 4.100000e-01    1.750000e+00
 SN6dr  SC1v  1 4.140000e-01    1.560000e+00
 SN6dr  SX4v  1 4.100000e-01    2.200000e+00
 SN6dr  SX3v  1 4.100000e-01    2.040000e+00
 SN6dr  SX2v  1 4.100000e-01    1.910000e+00
 SN6dr  SX1v  1 4.100000e-01    1.750000e+00
 SN6dr  SN5q  1 4.100000e-01    3.550000e+00
 SN6dr  SN4q  1 4.100000e-01    3.550000e+00
 SN6dr  SN3q  1 4.100000e-01    3.070000e+00
 SN6dr  SN2q  1 4.100000e-01    2.840000e+00
 SN6dr  SN1q  1 4.100000e-01    2.840000e+00
 SN6dr  SC6q  1 4.100000e-01    2.840000e+00
 SN6dr  SC5q  1 4.100000e-01    2.600000e+00
 SN6dr  SC4q  1 4.100000e-01    2.350000e+00
 SN6dr  SC3q  1 4.100000e-01    2.200000e+00
 SN6dr  SC2q  1 4.100000e-01    2.200000e+00
 SN6dr  SC1q  1 4.100000e-01    2.040000e+00
 SN6dr  SX4q  1 4.100000e-01    2.840000e+00
 SN6dr  SX3q  1 4.100000e-01    2.600000e+00
 SN6dr  SX2q  1 4.100000e-01    2.350000e+00
 SN6dr  SX1q  1 4.100000e-01    2.200000e+00
 SN5dr  SN4d  1 4.100000e-01    2.600000e+00
 SN5dr  SN3d  1 4.100000e-01    2.350000e+00
 SN5dr  SN2d  1 4.100000e-01    2.350000e+00
 SN5dr  SN1d  1 4.100000e-01    2.200000e+00
 SN5dr  SN5a  1 4.100000e-01    3.070000e+00
 SN5dr  SN4a  1 4.100000e-01    3.070000e+00
 SN5dr  SN3a  1 4.100000e-01    2.840000e+00
 SN5dr  SN2a  1 4.100000e-01    2.840000e+00
 SN5dr  SN1a  1 4.100000e-01    2.600000e+00
 SN5dr  SC6e  1 4.100000e-01    2.600000e+00
 SN5dr  SC5e  1 4.100000e-01    2.350000e+00
 SN5dr  SC4e  1 4.100000e-01    2.200000e+00
 SN5dr  SC3e  1 4.100000e-01    2.200000e+00
 SN5dr  SC2e  1 4.100000e-01    2.040000e+00
 SN5dr  SC1e  1 4.100000e-01    1.910000e+00
 SN5dr  SX4e  1 4.100000e-01    2.840000e+00
 SN5dr  SX3e  1 4.100000e-01    2.600000e+00
 SN5dr  SX2e  1 4.100000e-01    2.350000e+00
 SN5dr  SX1e  1 4.100000e-01    2.200000e+00
 SN5dr  SC6v  1 4.100000e-01    2.200000e+00
 SN5dr  SC5v  1 4.100000e-01    2.040000e+00
 SN5dr  SC4v  1 4.100000e-01    1.910000e+00
 SN5dr  SC3v  1 4.100000e-01    1.910000e+00
 SN5dr  SC2v  1 4.100000e-01    1.750000e+00
 SN5dr  SC1v  1 4.140000e-01    1.560000e+00
 SN5dr  SX4v  1 4.100000e-01    2.350000e+00
 SN5dr  SX3v  1 4.100000e-01    2.200000e+00
 SN5dr  SX2v  1 4.100000e-01    2.040000e+00
 SN5dr  SX1v  1 4.100000e-01    1.910000e+00
 SN5dr  SN4q  1 4.100000e-01    3.310000e+00
 SN5dr  SN3q  1 4.100000e-01    3.070000e+00
 SN5dr  SN2q  1 4.100000e-01    3.070000e+00
 SN5dr  SN1q  1 4.100000e-01    2.840000e+00
 SN5dr  SC6q  1 4.100000e-01    2.840000e+00
 SN5dr  SC5q  1 4.100000e-01    2.600000e+00
 SN5dr  SC4q  1 4.100000e-01    2.350000e+00
 SN5dr  SC3q  1 4.100000e-01    2.350000e+00
 SN5dr  SC2q  1 4.100000e-01    2.200000e+00
 SN5dr  SC1q  1 4.100000e-01    2.040000e+00
 SN5dr  SX4q  1 4.100000e-01    3.070000e+00
 SN5dr  SX3q  1 4.100000e-01    2.840000e+00
 SN5dr  SX2q  1 4.100000e-01    2.600000e+00
 SN5dr  SX1q  1 4.100000e-01    2.350000e+00
 SN4dr  SN3d  1 4.100000e-01    2.350000e+00
 SN4dr  SN2d  1 4.100000e-01    2.350000e+00
 SN4dr  SN1d  1 4.100000e-01    2.200000e+00
 SN4dr  SN4a  1 4.100000e-01    3.070000e+00
 SN4dr  SN3a  1 4.100000e-01    2.840000e+00
 SN4dr  SN2a  1 4.100000e-01    2.840000e+00
 SN4dr  SN1a  1 4.100000e-01    2.600000e+00
 SN4dr  SC6e  1 4.100000e-01    2.600000e+00
 SN4dr  SC5e  1 4.100000e-01    2.350000e+00
 SN4dr  SC4e  1 4.100000e-01    2.350000e+00
 SN4dr  SC3e  1 4.100000e-01    2.200000e+00
 SN4dr  SC2e  1 4.100000e-01    2.040000e+00
 SN4dr  SC1e  1 4.100000e-01    1.910000e+00
 SN4dr  SX4e  1 4.100000e-01    3.070000e+00
 SN4dr  SX3e  1 4.100000e-01    2.840000e+00
 SN4dr  SX2e  1 4.100000e-01    2.350000e+00
 SN4dr  SX1e  1 4.100000e-01    2.200000e+00
 SN4dr  SC6v  1 4.100000e-01    2.200000e+00
 SN4dr  SC5v  1 4.100000e-01    2.040000e+00
 SN4dr  SC4v  1 4.100000e-01    2.040000e+00
 SN4dr  SC3v  1 4.100000e-01    1.910000e+00
 SN4dr  SC2v  1 4.100000e-01    1.750000e+00
 SN4dr  SC1v  1 4.140000e-01    1.560000e+00
 SN4dr  SX4v  1 4.100000e-01    2.600000e+00
 SN4dr  SX3v  1 4.100000e-01    2.350000e+00
 SN4dr  SX2v  1 4.100000e-01    2.040000e+00
 SN4dr  SX1v  1 4.100000e-01    1.910000e+00
 SN4dr  SN3q  1 4.100000e-01    3.070000e+00
 SN4dr  SN2q  1 4.100000e-01    3.070000e+00
 SN4dr  SN1q  1 4.100000e-01    2.840000e+00
 SN4dr  SC6q  1 4.100000e-01    2.840000e+00
 SN4dr  SC5q  1 4.100000e-01    2.600000e+00
 SN4dr  SC4q  1 4.100000e-01    2.600000e+00
 SN4dr  SC3q  1 4.100000e-01    2.350000e+00
 SN4dr  SC2q  1 4.100000e-01    2.200000e+00
 SN4dr  SC1q  1 4.100000e-01    2.040000e+00
 SN4dr  SX4q  1 4.100000e-01    3.310000e+00
 SN4dr  SX3q  1 4.100000e-01    3.070000e+00
 SN4dr  SX2q  1 4.100000e-01    2.600000e+00
 SN4dr  SX1q  1 4.100000e-01    2.350000e+00
 SN3dr  SN2d  1 4.100000e-01    2.350000e+00
 SN3dr  SN1d  1 4.100000e-01    2.200000e+00
 SN3dr  SN3a  1 4.100000e-01    2.840000e+00
 SN3dr  SN2a  1 4.100000e-01    2.840000e+00
 SN3dr  SN1a  1 4.100000e-01    2.600000e+00
 SN3dr  SC6e  1 4.100000e-01    2.600000e+00
 SN3dr  SC5e  1 4.100000e-01    2.350000e+00
 SN3dr  SC4e  1 4.100000e-01    2.350000e+00
 SN3dr  SC3e  1 4.100000e-01    2.200000e+00
 SN3dr  SC2e  1 4.100000e-01    2.200000e+00
 SN3dr  SC1e  1 4.100000e-01    2.040000e+00
 SN3dr  SX4e  1 4.100000e-01    2.840000e+00
 SN3dr  SX3e  1 4.100000e-01    2.600000e+00
 SN3dr  SX2e  1 4.100000e-01    2.350000e+00
 SN3dr  SX1e  1 4.100000e-01    2.350000e+00
 SN3dr  SC6v  1 4.100000e-01    2.200000e+00
 SN3dr  SC5v  1 4.100000e-01    2.040000e+00
 SN3dr  SC4v  1 4.100000e-01    2.040000e+00
 SN3dr  SC3v  1 4.100000e-01    1.910000e+00
 SN3dr  SC2v  1 4.100000e-01    1.910000e+00
 SN3dr  SC1v  1 4.100000e-01    1.750000e+00
 SN3dr  SX4v  1 4.100000e-01    2.350000e+00
 SN3dr  SX3v  1 4.100000e-01    2.200000e+00
 SN3dr  SX2v  1 4.100000e-01    2.040000e+00
 SN3dr  SX1v  1 4.100000e-01    2.040000e+00
 SN3dr  SN2q  1 4.100000e-01    3.070000e+00
 SN3dr  SN1q  1 4.100000e-01    2.840000e+00
 SN3dr  SC6q  1 4.100000e-01    2.840000e+00
 SN3dr  SC5q  1 4.100000e-01    2.600000e+00
 SN3dr  SC4q  1 4.100000e-01    2.600000e+00
 SN3dr  SC3q  1 4.100000e-01    2.350000e+00
 SN3dr  SC2q  1 4.100000e-01    2.350000e+00
 SN3dr  SC1q  1 4.100000e-01    2.200000e+00
 SN3dr  SX4q  1 4.100000e-01    3.070000e+00
 SN3dr  SX3q  1 4.100000e-01    2.840000e+00
 SN3dr  SX2q  1 4.100000e-01    2.600000e+00
 SN3dr  SX1q  1 4.100000e-01    2.600000e+00
 SN2dr  SN1d  1 4.100000e-01    2.200000e+00
 SN2dr  SN2a  1 4.100000e-01    2.840000e+00
 SN2dr  SN1a  1 4.100000e-01    2.600000e+00
 SN2dr  SC6e  1 4.100000e-01    2.600000e+00
 SN2dr  SC5e  1 4.100000e-01    2.350000e+00
 SN2dr  SC4e  1 4.100000e-01    2.350000e+00
 SN2dr  SC3e  1 4.100000e-01    2.350000e+00
 SN2dr  SC2e  1 4.100000e-01    2.200000e+00
 SN2dr  SC1e  1 4.100000e-01    2.040000e+00
 SN2dr  SX4e  1 4.100000e-01    2.840000e+00
 SN2dr  SX3e  1 4.100000e-01    2.600000e+00
 SN2dr  SX2e  1 4.100000e-01    2.350000e+00
 SN2dr  SX1e  1 4.100000e-01    2.350000e+00
 SN2dr  SC6v  1 4.100000e-01    2.200000e+00
 SN2dr  SC5v  1 4.100000e-01    2.040000e+00
 SN2dr  SC4v  1 4.100000e-01    2.040000e+00
 SN2dr  SC3v  1 4.100000e-01    2.040000e+00
 SN2dr  SC2v  1 4.100000e-01    1.910000e+00
 SN2dr  SC1v  1 4.100000e-01    1.750000e+00
 SN2dr  SX4v  1 4.100000e-01    2.350000e+00
 SN2dr  SX3v  1 4.100000e-01    2.200000e+00
 SN2dr  SX2v  1 4.100000e-01    2.040000e+00
 SN2dr  SX1v  1 4.100000e-01    2.040000e+00
 SN2dr  SN1q  1 4.100000e-01    2.840000e+00
 SN2dr  SC6q  1 4.100000e-01    2.840000e+00
 SN2dr  SC5q  1 4.100000e-01    2.600000e+00
 SN2dr  SC4q  1 4.100000e-01    2.600000e+00
 SN2dr  SC3q  1 4.100000e-01    2.600000e+00
 SN2dr  SC2q  1 4.100000e-01    2.350000e+00
 SN2dr  SC1q  1 4.100000e-01    2.200000e+00
 SN2dr  SX4q  1 4.100000e-01    3.070000e+00
 SN2dr  SX3q  1 4.100000e-01    2.840000e+00
 SN2dr  SX2q  1 4.100000e-01    2.600000e+00
 SN2dr  SX1q  1 4.100000e-01    2.600000e+00
 SN1dr  SN1a  1 4.100000e-01    2.840000e+00
 SN1dr  SC6e  1 4.100000e-01    2.840000e+00
 SN1dr  SC5e  1 4.100000e-01    2.600000e+00
 SN1dr  SC4e  1 4.100000e-01    2.600000e+00
 SN1dr  SC3e  1 4.100000e-01    2.350000e+00
 SN1dr  SC2e  1 4.100000e-01    2.200000e+00
 SN1dr  SC1e  1 4.100000e-01    2.040000e+00
 SN1dr  SX4e  1 4.100000e-01    2.600000e+00
 SN1dr  SX3e  1 4.100000e-01    2.600000e+00
 SN1dr  SX2e  1 4.100000e-01    2.350000e+00
 SN1dr  SX1e  1 4.100000e-01    2.350000e+00
 SN1dr  SC6v  1 4.100000e-01    2.350000e+00
 SN1dr  SC5v  1 4.100000e-01    2.200000e+00
 SN1dr  SC4v  1 4.100000e-01    2.200000e+00
 SN1dr  SC3v  1 4.100000e-01    2.040000e+00
 SN1dr  SC2v  1 4.100000e-01    1.910000e+00
 SN1dr  SC1v  1 4.100000e-01    1.750000e+00
 SN1dr  SX4v  1 4.100000e-01    2.200000e+00
 SN1dr  SX3v  1 4.100000e-01    2.200000e+00
 SN1dr  SX2v  1 4.100000e-01    2.040000e+00
 SN1dr  SX1v  1 4.100000e-01    2.040000e+00
 SN1dr  SC6q  1 4.100000e-01    3.070000e+00
 SN1dr  SC5q  1 4.100000e-01    2.840000e+00
 SN1dr  SC4q  1 4.100000e-01    2.840000e+00
 SN1dr  SC3q  1 4.100000e-01    2.600000e+00
 SN1dr  SC2q  1 4.100000e-01    2.350000e+00
 SN1dr  SC1q  1 4.100000e-01    2.200000e+00
 SN1dr  SX4q  1 4.100000e-01    2.840000e+00
 SN1dr  SX3q  1 4.100000e-01    2.840000e+00
 SN1dr  SX2q  1 4.100000e-01    2.600000e+00
 SN1dr  SX1q  1 4.100000e-01    2.600000e+00
 SP6ar  SP5a  1 4.100000e-01    3.820000e+00
 SP6ar  SP4a  1 4.100000e-01    3.550000e+00
 SP6ar  SP3a  1 4.100000e-01    3.310000e+00
 SP6ar  SP2a  1 4.100000e-01    3.310000e+00
 SP6ar  SP1a  1 4.100000e-01    3.070000e+00
 SP6ar  SN6a  1 4.100000e-01    2.840000e+00
 SP6ar  SN5a  1 4.100000e-01    2.350000e+00
 SP6ar  SN4a  1 4.100000e-01    2.200000e+00
 SP6ar  SN3a  1 4.100000e-01    2.200000e+00
 SP6ar  SN2a  1 4.100000e-01    2.040000e+00
 SP6ar  SN1a  1 4.100000e-01    1.910000e+00
 SP6ar  SC6v  1 4.100000e-01    2.040000e+00
 SP6ar  SC5v  1 4.100000e-01    1.910000e+00
 SP6ar  SC4v  1 4.100000e-01    1.750000e+00
 SP6ar  SC3v  1 4.140000e-01    1.560000e+00
 SP6ar  SC2v  1 4.140000e-01    1.560000e+00
 SP6ar  SC1v  1 4.210000e-01    1.250000e+00
 SP6ar  SX4v  1 4.100000e-01    2.200000e+00
 SP6ar  SX3v  1 4.100000e-01    2.200000e+00
 SP6ar  SX2v  1 4.100000e-01    2.040000e+00
 SP6ar  SX1v  1 4.100000e-01    1.910000e+00
 SP6ar  SC6e  1 4.100000e-01    1.750000e+00
 SP6ar  SC5e  1 4.140000e-01    1.560000e+00
 SP6ar  SC4e  1 4.180000e-01    1.400000e+00
 SP6ar  SC3e  1 4.210000e-01    1.250000e+00
 SP6ar  SC2e  1 4.210000e-01    1.250000e+00
 SP6ar  SC1e  1 4.960000e-01    1.050000e+00
 SP6ar  SX4e  1 4.100000e-01    1.910000e+00
 SP6ar  SX3e  1 4.100000e-01    1.910000e+00
 SP6ar  SX2e  1 4.100000e-01    1.750000e+00
 SP6ar  SX1e  1 4.140000e-01    1.560000e+00
 SP6ar  SP5q  1 4.100000e-01    4.550000e+00
 SP6ar  SP4q  1 4.100000e-01    4.290000e+00
 SP6ar  SP3q  1 4.100000e-01    4.040000e+00
 SP6ar  SP2q  1 4.100000e-01    4.040000e+00
 SP6ar  SP1q  1 4.100000e-01    3.820000e+00
 SP6ar  SN6q  1 4.100000e-01    3.550000e+00
 SP6ar  SN5q  1 4.100000e-01    3.070000e+00
 SP6ar  SN4q  1 4.100000e-01    2.840000e+00
 SP6ar  SN3q  1 4.100000e-01    2.600000e+00
 SP6ar  SN2q  1 4.100000e-01    2.350000e+00
 SP6ar  SN1q  1 4.100000e-01    2.200000e+00
 SP6ar  SC6q  1 4.100000e-01    2.200000e+00
 SP6ar  SC5q  1 4.100000e-01    2.040000e+00
 SP6ar  SC4q  1 4.100000e-01    1.910000e+00
 SP6ar  SC3q  1 4.100000e-01    1.750000e+00
 SP6ar  SC2q  1 4.100000e-01    1.750000e+00
 SP6ar  SC1q  1 4.180000e-01    1.400000e+00
 SP6ar  SX4q  1 4.100000e-01    2.350000e+00
 SP6ar  SX3q  1 4.100000e-01    2.350000e+00
 SP6ar  SX2q  1 4.100000e-01    2.200000e+00
 SP6ar  SX1q  1 4.100000e-01    2.040000e+00
 SP5ar  SP4a  1 4.100000e-01    3.310000e+00
 SP5ar  SP3a  1 4.100000e-01    3.070000e+00
 SP5ar  SP2a  1 4.100000e-01    3.070000e+00
 SP5ar  SP1a  1 4.100000e-01    2.840000e+00
 SP5ar  SN6a  1 4.100000e-01    2.600000e+00
 SP5ar  SN5a  1 4.100000e-01    2.350000e+00
 SP5ar  SN4a  1 4.100000e-01    2.350000e+00
 SP5ar  SN3a  1 4.100000e-01    2.200000e+00
 SP5ar  SN2a  1 4.100000e-01    2.040000e+00
 SP5ar  SN1a  1 4.100000e-01    1.910000e+00
 SP5ar  SC6v  1 4.100000e-01    2.040000e+00
 SP5ar  SC5v  1 4.100000e-01    2.040000e+00
 SP5ar  SC4v  1 4.100000e-01    1.910000e+00
 SP5ar  SC3v  1 4.100000e-01    1.750000e+00
 SP5ar  SC2v  1 4.100000e-01    1.750000e+00
 SP5ar  SC1v  1 4.140000e-01    1.560000e+00
 SP5ar  SX4v  1 4.100000e-01    2.350000e+00
 SP5ar  SX3v  1 4.100000e-01    2.200000e+00
 SP5ar  SX2v  1 4.100000e-01    2.200000e+00
 SP5ar  SX1v  1 4.100000e-01    1.910000e+00
 SP5ar  SC6e  1 4.100000e-01    1.750000e+00
 SP5ar  SC5e  1 4.100000e-01    1.750000e+00
 SP5ar  SC4e  1 4.140000e-01    1.560000e+00
 SP5ar  SC3e  1 4.180000e-01    1.400000e+00
 SP5ar  SC2e  1 4.180000e-01    1.400000e+00
 SP5ar  SC1e  1 4.210000e-01    1.250000e+00
 SP5ar  SX4e  1 4.100000e-01    2.040000e+00
 SP5ar  SX3e  1 4.100000e-01    1.910000e+00
 SP5ar  SX2e  1 4.100000e-01    1.910000e+00
 SP5ar  SX1e  1 4.140000e-01    1.560000e+00
 SP5ar  SP4q  1 4.100000e-01    4.040000e+00
 SP5ar  SP3q  1 4.100000e-01    3.820000e+00
 SP5ar  SP2q  1 4.100000e-01    3.820000e+00
 SP5ar  SP1q  1 4.100000e-01    3.550000e+00
 SP5ar  SN6q  1 4.100000e-01    3.310000e+00
 SP5ar  SN5q  1 4.100000e-01    3.070000e+00
 SP5ar  SN4q  1 4.100000e-01    3.070000e+00
 SP5ar  SN3q  1 4.100000e-01    2.600000e+00
 SP5ar  SN2q  1 4.100000e-01    2.350000e+00
 SP5ar  SN1q  1 4.100000e-01    2.200000e+00
 SP5ar  SC6q  1 4.100000e-01    2.200000e+00
 SP5ar  SC5q  1 4.100000e-01    2.200000e+00
 SP5ar  SC4q  1 4.100000e-01    2.040000e+00
 SP5ar  SC3q  1 4.100000e-01    1.910000e+00
 SP5ar  SC2q  1 4.100000e-01    1.910000e+00
 SP5ar  SC1q  1 4.100000e-01    1.750000e+00
 SP5ar  SX4q  1 4.100000e-01    2.600000e+00
 SP5ar  SX3q  1 4.100000e-01    2.350000e+00
 SP5ar  SX2q  1 4.100000e-01    2.350000e+00
 SP5ar  SX1q  1 4.100000e-01    2.040000e+00
 SP4ar  SP3a  1 4.100000e-01    3.070000e+00
 SP4ar  SP2a  1 4.100000e-01    3.070000e+00
 SP4ar  SP1a  1 4.100000e-01    2.840000e+00
 SP4ar  SN6a  1 4.100000e-01    2.600000e+00
 SP4ar  SN5a  1 4.100000e-01    2.350000e+00
 SP4ar  SN4a  1 4.100000e-01    2.350000e+00
 SP4ar  SN3a  1 4.100000e-01    2.200000e+00
 SP4ar  SN2a  1 4.100000e-01    2.200000e+00
 SP4ar  SN1a  1 4.100000e-01    2.040000e+00
 SP4ar  SC6v  1 4.100000e-01    2.200000e+00
 SP4ar  SC5v  1 4.100000e-01    2.040000e+00
 SP4ar  SC4v  1 4.100000e-01    1.910000e+00
 SP4ar  SC3v  1 4.100000e-01    1.750000e+00
 SP4ar  SC2v  1 4.100000e-01    1.750000e+00
 SP4ar  SC1v  1 4.140000e-01    1.560000e+00
 SP4ar  SX4v  1 4.100000e-01    2.350000e+00
 SP4ar  SX3v  1 4.100000e-01    2.200000e+00
 SP4ar  SX2v  1 4.100000e-01    2.200000e+00
 SP4ar  SX1v  1 4.100000e-01    2.040000e+00
 SP4ar  SC6e  1 4.100000e-01    1.910000e+00
 SP4ar  SC5e  1 4.100000e-01    1.750000e+00
 SP4ar  SC4e  1 4.140000e-01    1.560000e+00
 SP4ar  SC3e  1 4.180000e-01    1.400000e+00
 SP4ar  SC2e  1 4.180000e-01    1.400000e+00
 SP4ar  SC1e  1 4.210000e-01    1.250000e+00
 SP4ar  SX4e  1 4.100000e-01    2.040000e+00
 SP4ar  SX3e  1 4.100000e-01    1.910000e+00
 SP4ar  SX2e  1 4.100000e-01    1.910000e+00
 SP4ar  SX1e  1 4.100000e-01    1.750000e+00
 SP4ar  SP3q  1 4.100000e-01    3.820000e+00
 SP4ar  SP2q  1 4.100000e-01    3.820000e+00
 SP4ar  SP1q  1 4.100000e-01    3.550000e+00
 SP4ar  SN6q  1 4.100000e-01    3.310000e+00
 SP4ar  SN5q  1 4.100000e-01    3.070000e+00
 SP4ar  SN4q  1 4.100000e-01    3.070000e+00
 SP4ar  SN3q  1 4.100000e-01    2.840000e+00
 SP4ar  SN2q  1 4.100000e-01    2.600000e+00
 SP4ar  SN1q  1 4.100000e-01    2.350000e+00
 SP4ar  SC6q  1 4.100000e-01    2.350000e+00
 SP4ar  SC5q  1 4.100000e-01    2.200000e+00
 SP4ar  SC4q  1 4.100000e-01    2.040000e+00
 SP4ar  SC3q  1 4.100000e-01    1.910000e+00
 SP4ar  SC2q  1 4.100000e-01    1.910000e+00
 SP4ar  SC1q  1 4.100000e-01    1.750000e+00
 SP4ar  SX4q  1 4.100000e-01    2.600000e+00
 SP4ar  SX3q  1 4.100000e-01    2.350000e+00
 SP4ar  SX2q  1 4.100000e-01    2.350000e+00
 SP4ar  SX1q  1 4.100000e-01    2.200000e+00
 SP3ar  SP2a  1 4.100000e-01    3.070000e+00
 SP3ar  SP1a  1 4.100000e-01    2.840000e+00
 SP3ar  SN6a  1 4.100000e-01    2.600000e+00
 SP3ar  SN5a  1 4.100000e-01    2.350000e+00
 SP3ar  SN4a  1 4.100000e-01    2.350000e+00
 SP3ar  SN3a  1 4.100000e-01    2.200000e+00
 SP3ar  SN2a  1 4.100000e-01    2.200000e+00
 SP3ar  SN1a  1 4.100000e-01    2.200000e+00
 SP3ar  SC6v  1 4.100000e-01    2.350000e+00
 SP3ar  SC5v  1 4.100000e-01    2.200000e+00
 SP3ar  SC4v  1 4.100000e-01    2.040000e+00
 SP3ar  SC3v  1 4.100000e-01    1.750000e+00
 SP3ar  SC2v  1 4.100000e-01    1.750000e+00
 SP3ar  SC1v  1 4.140000e-01    1.560000e+00
 SP3ar  SX4v  1 4.100000e-01    2.350000e+00
 SP3ar  SX3v  1 4.100000e-01    2.350000e+00
 SP3ar  SX2v  1 4.100000e-01    2.200000e+00
 SP3ar  SX1v  1 4.100000e-01    2.040000e+00
 SP3ar  SC6e  1 4.100000e-01    2.040000e+00
 SP3ar  SC5e  1 4.100000e-01    1.910000e+00
 SP3ar  SC4e  1 4.100000e-01    1.750000e+00
 SP3ar  SC3e  1 4.180000e-01    1.400000e+00
 SP3ar  SC2e  1 4.180000e-01    1.400000e+00
 SP3ar  SC1e  1 4.210000e-01    1.250000e+00
 SP3ar  SX4e  1 4.100000e-01    2.040000e+00
 SP3ar  SX3e  1 4.100000e-01    2.040000e+00
 SP3ar  SX2e  1 4.100000e-01    1.910000e+00
 SP3ar  SX1e  1 4.100000e-01    1.750000e+00
 SP3ar  SP2q  1 4.100000e-01    3.820000e+00
 SP3ar  SP1q  1 4.100000e-01    3.550000e+00
 SP3ar  SN6q  1 4.100000e-01    3.310000e+00
 SP3ar  SN5q  1 4.100000e-01    3.070000e+00
 SP3ar  SN4q  1 4.100000e-01    3.070000e+00
 SP3ar  SN3q  1 4.100000e-01    2.840000e+00
 SP3ar  SN2q  1 4.100000e-01    2.840000e+00
 SP3ar  SN1q  1 4.100000e-01    2.600000e+00
 SP3ar  SC6q  1 4.100000e-01    2.600000e+00
 SP3ar  SC5q  1 4.100000e-01    2.350000e+00
 SP3ar  SC4q  1 4.100000e-01    2.200000e+00
 SP3ar  SC3q  1 4.100000e-01    1.910000e+00
 SP3ar  SC2q  1 4.100000e-01    1.910000e+00
 SP3ar  SC1q  1 4.100000e-01    1.750000e+00
 SP3ar  SX4q  1 4.100000e-01    2.600000e+00
 SP3ar  SX3q  1 4.100000e-01    2.600000e+00
 SP3ar  SX2q  1 4.100000e-01    2.350000e+00
 SP3ar  SX1q  1 4.100000e-01    2.200000e+00
 SP2ar  SP1a  1 4.100000e-01    2.840000e+00
 SP2ar  SN6a  1 4.100000e-01    2.840000e+00
 SP2ar  SN5a  1 4.100000e-01    2.600000e+00
 SP2ar  SN4a  1 4.100000e-01    2.350000e+00
 SP2ar  SN3a  1 4.100000e-01    2.200000e+00
 SP2ar  SN2a  1 4.100000e-01    2.200000e+00
 SP2ar  SN1a  1 4.100000e-01    2.200000e+00
 SP2ar  SC6v  1 4.100000e-01    2.350000e+00
 SP2ar  SC5v  1 4.100000e-01    2.200000e+00
 SP2ar  SC4v  1 4.100000e-01    2.040000e+00
 SP2ar  SC3v  1 4.100000e-01    1.910000e+00
 SP2ar  SC2v  1 4.100000e-01    1.910000e+00
 SP2ar  SC1v  1 4.100000e-01    1.750000e+00
 SP2ar  SX4v  1 4.100000e-01    2.350000e+00
 SP2ar  SX3v  1 4.100000e-01    2.350000e+00
 SP2ar  SX2v  1 4.100000e-01    2.200000e+00
 SP2ar  SX1v  1 4.100000e-01    2.040000e+00
 SP2ar  SC6e  1 4.100000e-01    2.040000e+00
 SP2ar  SC5e  1 4.100000e-01    1.910000e+00
 SP2ar  SC4e  1 4.100000e-01    1.750000e+00
 SP2ar  SC3e  1 4.140000e-01    1.560000e+00
 SP2ar  SC2e  1 4.140000e-01    1.560000e+00
 SP2ar  SC1e  1 4.180000e-01    1.400000e+00
 SP2ar  SX4e  1 4.100000e-01    2.040000e+00
 SP2ar  SX3e  1 4.100000e-01    2.040000e+00
 SP2ar  SX2e  1 4.100000e-01    1.910000e+00
 SP2ar  SX1e  1 4.100000e-01    1.750000e+00
 SP2ar  SP1q  1 4.100000e-01    3.550000e+00
 SP2ar  SN6q  1 4.100000e-01    3.550000e+00
 SP2ar  SN5q  1 4.100000e-01    3.310000e+00
 SP2ar  SN4q  1 4.100000e-01    3.070000e+00
 SP2ar  SN3q  1 4.100000e-01    2.840000e+00
 SP2ar  SN2q  1 4.100000e-01    2.840000e+00
 SP2ar  SN1q  1 4.100000e-01    2.840000e+00
 SP2ar  SC6q  1 4.100000e-01    2.600000e+00
 SP2ar  SC5q  1 4.100000e-01    2.350000e+00
 SP2ar  SC4q  1 4.100000e-01    2.200000e+00
 SP2ar  SC3q  1 4.100000e-01    2.040000e+00
 SP2ar  SC2q  1 4.100000e-01    2.040000e+00
 SP2ar  SC1q  1 4.100000e-01    1.910000e+00
 SP2ar  SX4q  1 4.100000e-01    2.600000e+00
 SP2ar  SX3q  1 4.100000e-01    2.600000e+00
 SP2ar  SX2q  1 4.100000e-01    2.350000e+00
 SP2ar  SX1q  1 4.100000e-01    2.200000e+00
 SP1ar  SN6a  1 4.100000e-01    2.840000e+00
 SP1ar  SN5a  1 4.100000e-01    2.600000e+00
 SP1ar  SN4a  1 4.100000e-01    2.600000e+00
 SP1ar  SN3a  1 4.100000e-01    2.200000e+00
 SP1ar  SN2a  1 4.100000e-01    2.200000e+00
 SP1ar  SN1a  1 4.100000e-01    2.200000e+00
 SP1ar  SC6v  1 4.100000e-01    2.350000e+00
 SP1ar  SC5v  1 4.100000e-01    2.200000e+00
 SP1ar  SC4v  1 4.100000e-01    2.040000e+00
 SP1ar  SC3v  1 4.100000e-01    1.910000e+00
 SP1ar  SC2v  1 4.100000e-01    1.910000e+00
 SP1ar  SC1v  1 4.100000e-01    1.750000e+00
 SP1ar  SX4v  1 4.100000e-01    2.350000e+00
 SP1ar  SX3v  1 4.100000e-01    2.350000e+00
 SP1ar  SX2v  1 4.100000e-01    2.200000e+00
 SP1ar  SX1v  1 4.100000e-01    2.040000e+00
 SP1ar  SC6e  1 4.100000e-01    2.040000e+00
 SP1ar  SC5e  1 4.100000e-01    1.910000e+00
 SP1ar  SC4e  1 4.100000e-01    1.750000e+00
 SP1ar  SC3e  1 4.140000e-01    1.560000e+00
 SP1ar  SC2e  1 4.140000e-01    1.560000e+00
 SP1ar  SC1e  1 4.180000e-01    1.400000e+00
 SP1ar  SX4e  1 4.100000e-01    2.040000e+00
 SP1ar  SX3e  1 4.100000e-01    2.040000e+00
 SP1ar  SX2e  1 4.100000e-01    1.910000e+00
 SP1ar  SX1e  1 4.100000e-01    1.750000e+00
 SP1ar  SN6q  1 4.100000e-01    3.550000e+00
 SP1ar  SN5q  1 4.100000e-01    3.310000e+00
 SP1ar  SN4q  1 4.100000e-01    3.310000e+00
 SP1ar  SN3q  1 4.100000e-01    2.840000e+00
 SP1ar  SN2q  1 4.100000e-01    2.840000e+00
 SP1ar  SN1q  1 4.100000e-01    2.840000e+00
 SP1ar  SC6q  1 4.100000e-01    2.600000e+00
 SP1ar  SC5q  1 4.100000e-01    2.350000e+00
 SP1ar  SC4q  1 4.100000e-01    2.200000e+00
 SP1ar  SC3q  1 4.100000e-01    2.040000e+00
 SP1ar  SC2q  1 4.100000e-01    2.040000e+00
 SP1ar  SC1q  1 4.100000e-01    1.910000e+00
 SP1ar  SX4q  1 4.100000e-01    2.600000e+00
 SP1ar  SX3q  1 4.100000e-01    2.600000e+00
 SP1ar  SX2q  1 4.100000e-01    2.350000e+00
 SP1ar  SX1q  1 4.100000e-01    2.200000e+00
 SN6ar  SN5a  1 4.100000e-01    2.840000e+00
 SN6ar  SN4a  1 4.100000e-01    2.840000e+00
 SN6ar  SN3a  1 4.100000e-01    2.350000e+00
 SN6ar  SN2a  1 4.100000e-01    2.200000e+00
 SN6ar  SN1a  1 4.100000e-01    2.200000e+00
 SN6ar  SC6v  1 4.100000e-01    2.600000e+00
 SN6ar  SC5v  1 4.100000e-01    2.350000e+00
 SN6ar  SC4v  1 4.100000e-01    2.200000e+00
 SN6ar  SC3v  1 4.100000e-01    2.040000e+00
 SN6ar  SC2v  1 4.100000e-01    2.040000e+00
 SN6ar  SC1v  1 4.100000e-01    1.910000e+00
 SN6ar  SX4v  1 4.100000e-01    2.600000e+00
 SN6ar  SX3v  1 4.100000e-01    2.350000e+00
 SN6ar  SX2v  1 4.100000e-01    2.200000e+00
 SN6ar  SX1v  1 4.100000e-01    2.040000e+00
 SN6ar  SC6e  1 4.100000e-01    2.200000e+00
 SN6ar  SC5e  1 4.100000e-01    2.040000e+00
 SN6ar  SC4e  1 4.100000e-01    1.910000e+00
 SN6ar  SC3e  1 4.100000e-01    1.750000e+00
 SN6ar  SC2e  1 4.100000e-01    1.750000e+00
 SN6ar  SC1e  1 4.140000e-01    1.560000e+00
 SN6ar  SX4e  1 4.100000e-01    2.200000e+00
 SN6ar  SX3e  1 4.100000e-01    2.040000e+00
 SN6ar  SX2e  1 4.100000e-01    1.910000e+00
 SN6ar  SX1e  1 4.100000e-01    1.750000e+00
 SN6ar  SN5q  1 4.100000e-01    3.550000e+00
 SN6ar  SN4q  1 4.100000e-01    3.550000e+00
 SN6ar  SN3q  1 4.100000e-01    3.070000e+00
 SN6ar  SN2q  1 4.100000e-01    2.840000e+00
 SN6ar  SN1q  1 4.100000e-01    2.840000e+00
 SN6ar  SC6q  1 4.100000e-01    2.840000e+00
 SN6ar  SC5q  1 4.100000e-01    2.600000e+00
 SN6ar  SC4q  1 4.100000e-01    2.350000e+00
 SN6ar  SC3q  1 4.100000e-01    2.200000e+00
 SN6ar  SC2q  1 4.100000e-01    2.200000e+00
 SN6ar  SC1q  1 4.100000e-01    2.040000e+00
 SN6ar  SX4q  1 4.100000e-01    2.840000e+00
 SN6ar  SX3q  1 4.100000e-01    2.600000e+00
 SN6ar  SX2q  1 4.100000e-01    2.350000e+00
 SN6ar  SX1q  1 4.100000e-01    2.200000e+00
 SN5ar  SN4a  1 4.100000e-01    2.600000e+00
 SN5ar  SN3a  1 4.100000e-01    2.350000e+00
 SN5ar  SN2a  1 4.100000e-01    2.350000e+00
 SN5ar  SN1a  1 4.100000e-01    2.200000e+00
 SN5ar  SC6v  1 4.100000e-01    2.600000e+00
 SN5ar  SC5v  1 4.100000e-01    2.350000e+00
 SN5ar  SC4v  1 4.100000e-01    2.200000e+00
 SN5ar  SC3v  1 4.100000e-01    2.200000e+00
 SN5ar  SC2v  1 4.100000e-01    2.040000e+00
 SN5ar  SC1v  1 4.100000e-01    1.910000e+00
 SN5ar  SX4v  1 4.100000e-01    2.840000e+00
 SN5ar  SX3v  1 4.100000e-01    2.600000e+00
 SN5ar  SX2v  1 4.100000e-01    2.350000e+00
 SN5ar  SX1v  1 4.100000e-01    2.200000e+00
 SN5ar  SC6e  1 4.100000e-01    2.200000e+00
 SN5ar  SC5e  1 4.100000e-01    2.040000e+00
 SN5ar  SC4e  1 4.100000e-01    1.910000e+00
 SN5ar  SC3e  1 4.100000e-01    1.910000e+00
 SN5ar  SC2e  1 4.100000e-01    1.750000e+00
 SN5ar  SC1e  1 4.140000e-01    1.560000e+00
 SN5ar  SX4e  1 4.100000e-01    2.350000e+00
 SN5ar  SX3e  1 4.100000e-01    2.200000e+00
 SN5ar  SX2e  1 4.100000e-01    2.040000e+00
 SN5ar  SX1e  1 4.100000e-01    1.910000e+00
 SN5ar  SN4q  1 4.100000e-01    3.310000e+00
 SN5ar  SN3q  1 4.100000e-01    3.070000e+00
 SN5ar  SN2q  1 4.100000e-01    3.070000e+00
 SN5ar  SN1q  1 4.100000e-01    2.840000e+00
 SN5ar  SC6q  1 4.100000e-01    2.840000e+00
 SN5ar  SC5q  1 4.100000e-01    2.600000e+00
 SN5ar  SC4q  1 4.100000e-01    2.350000e+00
 SN5ar  SC3q  1 4.100000e-01    2.350000e+00
 SN5ar  SC2q  1 4.100000e-01    2.200000e+00
 SN5ar  SC1q  1 4.100000e-01    2.040000e+00
 SN5ar  SX4q  1 4.100000e-01    3.070000e+00
 SN5ar  SX3q  1 4.100000e-01    2.840000e+00
 SN5ar  SX2q  1 4.100000e-01    2.600000e+00
 SN5ar  SX1q  1 4.100000e-01    2.350000e+00
 SN4ar  SN3a  1 4.100000e-01    2.350000e+00
 SN4ar  SN2a  1 4.100000e-01    2.350000e+00
 SN4ar  SN1a  1 4.100000e-01    2.200000e+00
 SN4ar  SC6v  1 4.100000e-01    2.600000e+00
 SN4ar  SC5v  1 4.100000e-01    2.350000e+00
 SN4ar  SC4v  1 4.100000e-01    2.350000e+00
 SN4ar  SC3v  1 4.100000e-01    2.200000e+00
 SN4ar  SC2v  1 4.100000e-01    2.040000e+00
 SN4ar  SC1v  1 4.100000e-01    1.910000e+00
 SN4ar  SX4v  1 4.100000e-01    3.070000e+00
 SN4ar  SX3v  1 4.100000e-01    2.840000e+00
 SN4ar  SX2v  1 4.100000e-01    2.350000e+00
 SN4ar  SX1v  1 4.100000e-01    2.200000e+00
 SN4ar  SC6e  1 4.100000e-01    2.200000e+00
 SN4ar  SC5e  1 4.100000e-01    2.040000e+00
 SN4ar  SC4e  1 4.100000e-01    2.040000e+00
 SN4ar  SC3e  1 4.100000e-01    1.910000e+00
 SN4ar  SC2e  1 4.100000e-01    1.750000e+00
 SN4ar  SC1e  1 4.140000e-01    1.560000e+00
 SN4ar  SX4e  1 4.100000e-01    2.600000e+00
 SN4ar  SX3e  1 4.100000e-01    2.350000e+00
 SN4ar  SX2e  1 4.100000e-01    2.040000e+00
 SN4ar  SX1e  1 4.100000e-01    1.910000e+00
 SN4ar  SN3q  1 4.100000e-01    3.070000e+00
 SN4ar  SN2q  1 4.100000e-01    3.070000e+00
 SN4ar  SN1q  1 4.100000e-01    2.840000e+00
 SN4ar  SC6q  1 4.100000e-01    2.840000e+00
 SN4ar  SC5q  1 4.100000e-01    2.600000e+00
 SN4ar  SC4q  1 4.100000e-01    2.600000e+00
 SN4ar  SC3q  1 4.100000e-01    2.350000e+00
 SN4ar  SC2q  1 4.100000e-01    2.200000e+00
 SN4ar  SC1q  1 4.100000e-01    2.040000e+00
 SN4ar  SX4q  1 4.100000e-01    3.310000e+00
 SN4ar  SX3q  1 4.100000e-01    3.070000e+00
 SN4ar  SX2q  1 4.100000e-01    2.600000e+00
 SN4ar  SX1q  1 4.100000e-01    2.350000e+00
 SN3ar  SN2a  1 4.100000e-01    2.350000e+00
 SN3ar  SN1a  1 4.100000e-01    2.200000e+00
 SN3ar  SC6v  1 4.100000e-01    2.600000e+00
 SN3ar  SC5v  1 4.100000e-01    2.350000e+00
 SN3ar  SC4v  1 4.100000e-01    2.350000e+00
 SN3ar  SC3v  1 4.100000e-01    2.200000e+00
 SN3ar  SC2v  1 4.100000e-01    2.200000e+00
 SN3ar  SC1v  1 4.100000e-01    2.040000e+00
 SN3ar  SX4v  1 4.100000e-01    2.840000e+00
 SN3ar  SX3v  1 4.100000e-01    2.600000e+00
 SN3ar  SX2v  1 4.100000e-01    2.350000e+00
 SN3ar  SX1v  1 4.100000e-01    2.350000e+00
 SN3ar  SC6e  1 4.100000e-01    2.200000e+00
 SN3ar  SC5e  1 4.100000e-01    2.040000e+00
 SN3ar  SC4e  1 4.100000e-01    2.040000e+00
 SN3ar  SC3e  1 4.100000e-01    1.910000e+00
 SN3ar  SC2e  1 4.100000e-01    1.910000e+00
 SN3ar  SC1e  1 4.100000e-01    1.750000e+00
 SN3ar  SX4e  1 4.100000e-01    2.350000e+00
 SN3ar  SX3e  1 4.100000e-01    2.200000e+00
 SN3ar  SX2e  1 4.100000e-01    2.040000e+00
 SN3ar  SX1e  1 4.100000e-01    2.040000e+00
 SN3ar  SN2q  1 4.100000e-01    3.070000e+00
 SN3ar  SN1q  1 4.100000e-01    2.840000e+00
 SN3ar  SC6q  1 4.100000e-01    2.840000e+00
 SN3ar  SC5q  1 4.100000e-01    2.600000e+00
 SN3ar  SC4q  1 4.100000e-01    2.600000e+00
 SN3ar  SC3q  1 4.100000e-01    2.350000e+00
 SN3ar  SC2q  1 4.100000e-01    2.350000e+00
 SN3ar  SC1q  1 4.100000e-01    2.200000e+00
 SN3ar  SX4q  1 4.100000e-01    3.070000e+00
 SN3ar  SX3q  1 4.100000e-01    2.840000e+00
 SN3ar  SX2q  1 4.100000e-01    2.600000e+00
 SN3ar  SX1q  1 4.100000e-01    2.600000e+00
 SN2ar  SN1a  1 4.100000e-01    2.200000e+00
 SN2ar  SC6v  1 4.100000e-01    2.600000e+00
 SN2ar  SC5v  1 4.100000e-01    2.350000e+00
 SN2ar  SC4v  1 4.100000e-01    2.350000e+00
 SN2ar  SC3v  1 4.100000e-01    2.350000e+00
 SN2ar  SC2v  1 4.100000e-01    2.200000e+00
 SN2ar  SC1v  1 4.100000e-01    2.040000e+00
 SN2ar  SX4v  1 4.100000e-01    2.840000e+00
 SN2ar  SX3v  1 4.100000e-01    2.600000e+00
 SN2ar  SX2v  1 4.100000e-01    2.350000e+00
 SN2ar  SX1v  1 4.100000e-01    2.350000e+00
 SN2ar  SC6e  1 4.100000e-01    2.200000e+00
 SN2ar  SC5e  1 4.100000e-01    2.040000e+00
 SN2ar  SC4e  1 4.100000e-01    2.040000e+00
 SN2ar  SC3e  1 4.100000e-01    2.040000e+00
 SN2ar  SC2e  1 4.100000e-01    1.910000e+00
 SN2ar  SC1e  1 4.100000e-01    1.750000e+00
 SN2ar  SX4e  1 4.100000e-01    2.350000e+00
 SN2ar  SX3e  1 4.100000e-01    2.200000e+00
 SN2ar  SX2e  1 4.100000e-01    2.040000e+00
 SN2ar  SX1e  1 4.100000e-01    2.040000e+00
 SN2ar  SN1q  1 4.100000e-01    2.840000e+00
 SN2ar  SC6q  1 4.100000e-01    2.840000e+00
 SN2ar  SC5q  1 4.100000e-01    2.600000e+00
 SN2ar  SC4q  1 4.100000e-01    2.600000e+00
 SN2ar  SC3q  1 4.100000e-01    2.600000e+00
 SN2ar  SC2q  1 4.100000e-01    2.350000e+00
 SN2ar  SC1q  1 4.100000e-01    2.200000e+00
 SN2ar  SX4q  1 4.100000e-01    3.070000e+00
 SN2ar  SX3q  1 4.100000e-01    2.840000e+00
 SN2ar  SX2q  1 4.100000e-01    2.600000e+00
 SN2ar  SX1q  1 4.100000e-01    2.600000e+00
 SN1ar  SC6v  1 4.100000e-01    2.840000e+00
 SN1ar  SC5v  1 4.100000e-01    2.600000e+00
 SN1ar  SC4v  1 4.100000e-01    2.600000e+00
 SN1ar  SC3v  1 4.100000e-01    2.350000e+00
 SN1ar  SC2v  1 4.100000e-01    2.200000e+00
 SN1ar  SC1v  1 4.100000e-01    2.040000e+00
 SN1ar  SX4v  1 4.100000e-01    2.600000e+00
 SN1ar  SX3v  1 4.100000e-01    2.600000e+00
 SN1ar  SX2v  1 4.100000e-01    2.350000e+00
 SN1ar  SX1v  1 4.100000e-01    2.350000e+00
 SN1ar  SC6e  1 4.100000e-01    2.350000e+00
 SN1ar  SC5e  1 4.100000e-01    2.200000e+00
 SN1ar  SC4e  1 4.100000e-01    2.200000e+00
 SN1ar  SC3e  1 4.100000e-01    2.040000e+00
 SN1ar  SC2e  1 4.100000e-01    1.910000e+00
 SN1ar  SC1e  1 4.100000e-01    1.750000e+00
 SN1ar  SX4e  1 4.100000e-01    2.200000e+00
 SN1ar  SX3e  1 4.100000e-01    2.200000e+00
 SN1ar  SX2e  1 4.100000e-01    2.040000e+00
 SN1ar  SX1e  1 4.100000e-01    2.040000e+00
 SN1ar  SC6q  1 4.100000e-01    3.070000e+00
 SN1ar  SC5q  1 4.100000e-01    2.840000e+00
 SN1ar  SC4q  1 4.100000e-01    2.840000e+00
 SN1ar  SC3q  1 4.100000e-01    2.600000e+00
 SN1ar  SC2q  1 4.100000e-01    2.350000e+00
 SN1ar  SC1q  1 4.100000e-01    2.200000e+00
 SN1ar  SX4q  1 4.100000e-01    2.840000e+00
 SN1ar  SX3q  1 4.100000e-01    2.840000e+00
 SN1ar  SX2q  1 4.100000e-01    2.600000e+00
 SN1ar  SX1q  1 4.100000e-01    2.600000e+00
 SC6vr  SC5v  1 4.100000e-01    2.200000e+00
 SC6vr  SC4v  1 4.100000e-01    2.200000e+00
 SC6vr  SC3v  1 4.100000e-01    2.040000e+00
 SC6vr  SC2v  1 4.100000e-01    1.910000e+00
 SC6vr  SC1v  1 4.100000e-01    1.750000e+00
 SC6vr  SX4v  1 4.100000e-01    2.200000e+00
 SC6vr  SX3v  1 4.100000e-01    2.200000e+00
 SC6vr  SX2v  1 4.100000e-01    2.200000e+00
 SC6vr  SX1v  1 4.100000e-01    2.200000e+00
 SC6vr  SC6e  1 4.100000e-01    3.070000e+00
 SC6vr  SC5e  1 4.100000e-01    2.840000e+00
 SC6vr  SC4e  1 4.100000e-01    2.840000e+00
 SC6vr  SC3e  1 4.100000e-01    2.600000e+00
 SC6vr  SC2e  1 4.100000e-01    2.350000e+00
 SC6vr  SC1e  1 4.100000e-01    2.200000e+00
 SC6vr  SX4e  1 4.100000e-01    2.840000e+00
 SC6vr  SX3e  1 4.100000e-01    2.840000e+00
 SC6vr  SX2e  1 4.100000e-01    2.840000e+00
 SC6vr  SX1e  1 4.100000e-01    2.840000e+00
 SC6vr  SC5q  1 4.100000e-01    3.070000e+00
 SC6vr  SC4q  1 4.100000e-01    3.070000e+00
 SC6vr  SC3q  1 4.100000e-01    2.840000e+00
 SC6vr  SC2q  1 4.100000e-01    2.600000e+00
 SC6vr  SC1q  1 4.100000e-01    2.350000e+00
 SC6vr  SX4q  1 4.100000e-01    3.070000e+00
 SC6vr  SX3q  1 4.100000e-01    3.070000e+00
 SC6vr  SX2q  1 4.100000e-01    3.070000e+00
 SC6vr  SX1q  1 4.100000e-01    3.070000e+00
 SC5vr  SC4v  1 4.100000e-01    2.200000e+00
 SC5vr  SC3v  1 4.100000e-01    2.040000e+00
 SC5vr  SC2v  1 4.100000e-01    1.910000e+00
 SC5vr  SC1v  1 4.100000e-01    1.910000e+00
 SC5vr  SX4v  1 4.100000e-01    2.040000e+00
 SC5vr  SX3v  1 4.100000e-01    2.040000e+00
 SC5vr  SX2v  1 4.100000e-01    2.040000e+00
 SC5vr  SX1v  1 4.100000e-01    2.200000e+00
 SC5vr  SC5e  1 4.100000e-01    2.840000e+00
 SC5vr  SC4e  1 4.100000e-01    2.840000e+00
 SC5vr  SC3e  1 4.100000e-01    2.600000e+00
 SC5vr  SC2e  1 4.100000e-01    2.350000e+00
 SC5vr  SC1e  1 4.100000e-01    2.350000e+00
 SC5vr  SX4e  1 4.100000e-01    2.600000e+00
 SC5vr  SX3e  1 4.100000e-01    2.600000e+00
 SC5vr  SX2e  1 4.100000e-01    2.600000e+00
 SC5vr  SX1e  1 4.100000e-01    2.840000e+00
 SC5vr  SC4q  1 4.100000e-01    3.070000e+00
 SC5vr  SC3q  1 4.100000e-01    2.840000e+00
 SC5vr  SC2q  1 4.100000e-01    2.600000e+00
 SC5vr  SC1q  1 4.100000e-01    2.600000e+00
 SC5vr  SX4q  1 4.100000e-01    2.840000e+00
 SC5vr  SX3q  1 4.100000e-01    2.840000e+00
 SC5vr  SX2q  1 4.100000e-01    2.840000e+00
 SC5vr  SX1q  1 4.100000e-01    3.070000e+00
 SC4vr  SC3v  1 4.100000e-01    2.200000e+00
 SC4vr  SC2v  1 4.100000e-01    2.040000e+00
 SC4vr  SC1v  1 4.100000e-01    1.910000e+00
 SC4vr  SX4v  1 4.100000e-01    2.040000e+00
 SC4vr  SX3v  1 4.100000e-01    2.040000e+00
 SC4vr  SX2v  1 4.100000e-01    2.040000e+00
 SC4vr  SX1v  1 4.100000e-01    2.200000e+00
 SC4vr  SC4e  1 4.100000e-01    2.840000e+00
 SC4vr  SC3e  1 4.100000e-01    2.840000e+00
 SC4vr  SC2e  1 4.100000e-01    2.600000e+00
 SC4vr  SC1e  1 4.100000e-01    2.350000e+00
 SC4vr  SX4e  1 4.100000e-01    2.600000e+00
 SC4vr  SX3e  1 4.100000e-01    2.600000e+00
 SC4vr  SX2e  1 4.100000e-01    2.600000e+00
 SC4vr  SX1e  1 4.100000e-01    2.840000e+00
 SC4vr  SC3q  1 4.100000e-01    3.070000e+00
 SC4vr  SC2q  1 4.100000e-01    2.840000e+00
 SC4vr  SC1q  1 4.100000e-01    2.600000e+00
 SC4vr  SX4q  1 4.100000e-01    2.840000e+00
 SC4vr  SX3q  1 4.100000e-01    2.840000e+00
 SC4vr  SX2q  1 4.100000e-01    2.840000e+00
 SC4vr  SX1q  1 4.100000e-01    3.070000e+00
 SC3vr  SC2v  1 4.100000e-01    2.200000e+00
 SC3vr  SC1v  1 4.100000e-01    2.200000e+00
 SC3vr  SX4v  1 4.100000e-01    2.040000e+00
 SC3vr  SX3v  1 4.100000e-01    2.040000e+00
 SC3vr  SX2v  1 4.100000e-01    2.040000e+00
 SC3vr  SX1v  1 4.100000e-01    2.200000e+00
 SC3vr  SC3e  1 4.100000e-01    2.840000e+00
 SC3vr  SC2e  1 4.100000e-01    2.840000e+00
 SC3vr  SC1e  1 4.100000e-01    2.840000e+00
 SC3vr  SX4e  1 4.100000e-01    2.600000e+00
 SC3vr  SX3e  1 4.100000e-01    2.600000e+00
 SC3vr  SX2e  1 4.100000e-01    2.600000e+00
 SC3vr  SX1e  1 4.100000e-01    2.840000e+00
 SC3vr  SC2q  1 4.100000e-01    3.070000e+00
 SC3vr  SC1q  1 4.100000e-01    3.070000e+00
 SC3vr  SX4q  1 4.100000e-01    2.840000e+00
 SC3vr  SX3q  1 4.100000e-01    2.840000e+00
 SC3vr  SX2q  1 4.100000e-01    2.840000e+00
 SC3vr  SX1q  1 4.100000e-01    3.070000e+00
 SC2vr  SC1v  1 4.100000e-01    2.350000e+00
 SC2vr  SX4v  1 4.100000e-01    1.750000e+00
 SC2vr  SX3v  1 4.100000e-01    2.040000e+00
 SC2vr  SX2v  1 4.100000e-01    2.040000e+00
 SC2vr  SX1v  1 4.100000e-01    2.040000e+00
 SC2vr  SC2e  1 4.100000e-01    2.840000e+00
 SC2vr  SC1e  1 4.100000e-01    3.070000e+00
 SC2vr  SX4e  1 4.100000e-01    2.200000e+00
 SC2vr  SX3e  1 4.100000e-01    2.600000e+00
 SC2vr  SX2e  1 4.100000e-01    2.600000e+00
 SC2vr  SX1e  1 4.100000e-01    2.600000e+00
 SC2vr  SC1q  1 4.100000e-01    3.310000e+00
 SC2vr  SX4q  1 4.100000e-01    2.350000e+00
 SC2vr  SX3q  1 4.100000e-01    2.840000e+00
 SC2vr  SX2q  1 4.100000e-01    2.840000e+00
 SC2vr  SX1q  1 4.100000e-01    2.840000e+00
 SC1vr  SX4v  1 4.100000e-01    1.750000e+00
 SC1vr  SX3v  1 4.100000e-01    2.040000e+00
 SC1vr  SX2v  1 4.100000e-01    2.040000e+00
 SC1vr  SX1v  1 4.100000e-01    2.040000e+00
 SC1vr  SC1e  1 4.100000e-01    2.840000e+00
 SC1vr  SX4e  1 4.100000e-01    2.200000e+00
 SC1vr  SX3e  1 4.100000e-01    2.600000e+00
 SC1vr  SX2e  1 4.100000e-01    2.600000e+00
 SC1vr  SX1e  1 4.100000e-01    2.600000e+00
 SC1vr  SX4q  1 4.100000e-01    2.350000e+00
 SC1vr  SX3q  1 4.100000e-01    2.840000e+00
 SC1vr  SX2q  1 4.100000e-01    2.840000e+00
 SC1vr  SX1q  1 4.100000e-01    2.840000e+00
 SX4vr  SX3v  1 4.100000e-01    2.200000e+00
 SX4vr  SX2v  1 4.100000e-01    2.200000e+00
 SX4vr  SX1v  1 4.100000e-01    2.200000e+00
 SX4vr  SX4e  1 4.100000e-01    2.840000e+00
 SX4vr  SX3e  1 4.100000e-01    2.840000e+00
 SX4vr  SX2e  1 4.100000e-01    2.840000e+00
 SX4vr  SX1e  1 4.100000e-01    2.840000e+00
 SX4vr  SX3q  1 4.100000e-01    3.070000e+00
 SX4vr  SX2q  1 4.100000e-01    3.070000e+00
 SX4vr  SX1q  1 4.100000e-01    3.070000e+00
 SX3vr  SX2v  1 4.100000e-01    2.350000e+00
 SX3vr  SX1v  1 4.100000e-01    2.350000e+00
 SX3vr  SX3e  1 4.100000e-01    2.840000e+00
 SX3vr  SX2e  1 4.100000e-01    3.070000e+00
 SX3vr  SX1e  1 4.100000e-01    3.070000e+00
 SX3vr  SX2q  1 4.100000e-01    3.310000e+00
 SX3vr  SX1q  1 4.100000e-01    3.310000e+00
 SX2vr  SX1v  1 4.100000e-01    2.350000e+00
 SX2vr  SX2e  1 4.100000e-01    3.070000e+00
 SX2vr  SX1e  1 4.100000e-01    3.070000e+00
 SX2vr  SX1q  1 4.100000e-01    3.310000e+00
 SX1vr  SX1e  1 4.100000e-01    3.310000e+00
 SC6er  SC5e  1 4.100000e-01    2.200000e+00
 SC6er  SC4e  1 4.100000e-01    2.200000e+00
 SC6er  SC3e  1 4.100000e-01    2.040000e+00
 SC6er  SC2e  1 4.100000e-01    1.910000e+00
 SC6er  SC1e  1 4.100000e-01    1.750000e+00
 SC6er  SX4e  1 4.100000e-01    2.200000e+00
 SC6er  SX3e  1 4.100000e-01    2.200000e+00
 SC6er  SX2e  1 4.100000e-01    2.200000e+00
 SC6er  SX1e  1 4.100000e-01    2.200000e+00
 SC6er  SC5q  1 4.100000e-01    3.070000e+00
 SC6er  SC4q  1 4.100000e-01    3.070000e+00
 SC6er  SC3q  1 4.100000e-01    2.840000e+00
 SC6er  SC2q  1 4.100000e-01    2.600000e+00
 SC6er  SC1q  1 4.100000e-01    2.350000e+00
 SC6er  SX4q  1 4.100000e-01    3.070000e+00
 SC6er  SX3q  1 4.100000e-01    3.070000e+00
 SC6er  SX2q  1 4.100000e-01    3.070000e+00
 SC6er  SX1q  1 4.100000e-01    3.070000e+00
 SC5er  SC4e  1 4.100000e-01    2.200000e+00
 SC5er  SC3e  1 4.100000e-01    2.040000e+00
 SC5er  SC2e  1 4.100000e-01    1.910000e+00
 SC5er  SC1e  1 4.100000e-01    1.910000e+00
 SC5er  SX4e  1 4.100000e-01    2.040000e+00
 SC5er  SX3e  1 4.100000e-01    2.040000e+00
 SC5er  SX2e  1 4.100000e-01    2.040000e+00
 SC5er  SX1e  1 4.100000e-01    2.200000e+00
 SC5er  SC4q  1 4.100000e-01    3.070000e+00
 SC5er  SC3q  1 4.100000e-01    2.840000e+00
 SC5er  SC2q  1 4.100000e-01    2.600000e+00
 SC5er  SC1q  1 4.100000e-01    2.600000e+00
 SC5er  SX4q  1 4.100000e-01    2.840000e+00
 SC5er  SX3q  1 4.100000e-01    2.840000e+00
 SC5er  SX2q  1 4.100000e-01    2.840000e+00
 SC5er  SX1q  1 4.100000e-01    3.070000e+00
 SC4er  SC3e  1 4.100000e-01    2.200000e+00
 SC4er  SC2e  1 4.100000e-01    2.040000e+00
 SC4er  SC1e  1 4.100000e-01    1.910000e+00
 SC4er  SX4e  1 4.100000e-01    2.040000e+00
 SC4er  SX3e  1 4.100000e-01    2.040000e+00
 SC4er  SX2e  1 4.100000e-01    2.040000e+00
 SC4er  SX1e  1 4.100000e-01    2.200000e+00
 SC4er  SC3q  1 4.100000e-01    3.070000e+00
 SC4er  SC2q  1 4.100000e-01    2.840000e+00
 SC4er  SC1q  1 4.100000e-01    2.600000e+00
 SC4er  SX4q  1 4.100000e-01    2.840000e+00
 SC4er  SX3q  1 4.100000e-01    2.840000e+00
 SC4er  SX2q  1 4.100000e-01    2.840000e+00
 SC4er  SX1q  1 4.100000e-01    3.070000e+00
 SC3er  SC2e  1 4.100000e-01    2.200000e+00
 SC3er  SC1e  1 4.100000e-01    2.200000e+00
 SC3er  SX4e  1 4.100000e-01    2.040000e+00
 SC3er  SX3e  1 4.100000e-01    2.040000e+00
 SC3er  SX2e  1 4.100000e-01    2.040000e+00
 SC3er  SX1e  1 4.100000e-01    2.200000e+00
 SC3er  SC2q  1 4.100000e-01    3.070000e+00
 SC3er  SC1q  1 4.100000e-01    3.070000e+00
 SC3er  SX4q  1 4.100000e-01    2.840000e+00
 SC3er  SX3q  1 4.100000e-01    2.840000e+00
 SC3er  SX2q  1 4.100000e-01    2.840000e+00
 SC3er  SX1q  1 4.100000e-01    3.070000e+00
 SC2er  SC1e  1 4.100000e-01    2.350000e+00
 SC2er  SX4e  1 4.100000e-01    1.750000e+00
 SC2er  SX3e  1 4.100000e-01    2.040000e+00
 SC2er  SX2e  1 4.100000e-01    2.040000e+00
 SC2er  SX1e  1 4.100000e-01    2.040000e+00
 SC2er  SC1q  1 4.100000e-01    3.310000e+00
 SC2er  SX4q  1 4.100000e-01    2.350000e+00
 SC2er  SX3q  1 4.100000e-01    2.840000e+00
 SC2er  SX2q  1 4.100000e-01    2.840000e+00
 SC2er  SX1q  1 4.100000e-01    2.840000e+00
 SC1er  SX4e  1 4.100000e-01    1.750000e+00
 SC1er  SX3e  1 4.100000e-01    2.040000e+00
 SC1er  SX2e  1 4.100000e-01    2.040000e+00
 SC1er  SX1e  1 4.100000e-01    2.040000e+00
 SC1er  SX4q  1 4.100000e-01    2.350000e+00
 SC1er  SX3q  1 4.100000e-01    2.840000e+00
 SC1er  SX2q  1 4.100000e-01    2.840000e+00
 SC1er  SX1q  1 4.100000e-01    2.840000e+00
 SX4er  SX3e  1 4.100000e-01    2.200000e+00
 SX4er  SX2e  1 4.100000e-01    2.200000e+00
 SX4er  SX1e  1 4.100000e-01    2.200000e+00
 SX4er  SX3q  1 4.100000e-01    3.070000e+00
 SX4er  SX2q  1 4.100000e-01    3.070000e+00
 SX4er  SX1q  1 4.100000e-01    3.070000e+00
 SX3er  SX2e  1 4.100000e-01    2.350000e+00
 SX3er  SX1e  1 4.100000e-01    2.350000e+00
 SX3er  SX2q  1 4.100000e-01    3.310000e+00
 SX3er  SX1q  1 4.100000e-01    3.310000e+00
 SX2er  SX1e  1 4.100000e-01    2.350000e+00
 SX2er  SX1q  1 4.100000e-01    3.310000e+00
 SX2er  SX1v  1 4.100000e-01    3.070000e+00
 SX3er  SX2v  1 4.100000e-01    3.070000e+00
 SX3er  SX1v  1 4.100000e-01    3.070000e+00
 SX4er  SX3v  1 4.100000e-01    2.840000e+00
 SX4er  SX2v  1 4.100000e-01    2.840000e+00
 SX4er  SX1v  1 4.100000e-01    2.840000e+00
 SC1er  SX4v  1 4.100000e-01    2.200000e+00
 SC1er  SX3v  1 4.100000e-01    2.600000e+00
 SC1er  SX2v  1 4.100000e-01    2.600000e+00
 SC1er  SX1v  1 4.100000e-01    2.600000e+00
 SC2er  SC1v  1 4.100000e-01    3.070000e+00
 SC2er  SX4v  1 4.100000e-01    2.200000e+00
 SC2er  SX3v  1 4.100000e-01    2.600000e+00
 SC2er  SX2v  1 4.100000e-01    2.600000e+00
 SC2er  SX1v  1 4.100000e-01    2.600000e+00
 SC3er  SC2v  1 4.100000e-01    2.840000e+00
 SC3er  SC1v  1 4.100000e-01    2.840000e+00
 SC3er  SX4v  1 4.100000e-01    2.600000e+00
 SC3er  SX3v  1 4.100000e-01    2.600000e+00
 SC3er  SX2v  1 4.100000e-01    2.600000e+00
 SC3er  SX1v  1 4.100000e-01    2.840000e+00
 SC4er  SC3v  1 4.100000e-01    2.840000e+00
 SC4er  SC2v  1 4.100000e-01    2.600000e+00
 SC4er  SC1v  1 4.100000e-01    2.350000e+00
 SC4er  SX4v  1 4.100000e-01    2.600000e+00
 SC4er  SX3v  1 4.100000e-01    2.600000e+00
 SC4er  SX2v  1 4.100000e-01    2.600000e+00
 SC4er  SX1v  1 4.100000e-01    2.840000e+00
 SC5er  SC4v  1 4.100000e-01    2.840000e+00
 SC5er  SC3v  1 4.100000e-01    2.600000e+00
 SC5er  SC2v  1 4.100000e-01    2.350000e+00
 SC5er  SC1v  1 4.100000e-01    2.350000e+00
 SC5er  SX4v  1 4.100000e-01    2.600000e+00
 SC5er  SX3v  1 4.100000e-01    2.600000e+00
 SC5er  SX2v  1 4.100000e-01    2.600000e+00
 SC5er  SX1v  1 4.100000e-01    2.840000e+00
 SC6er  SC5v  1 4.100000e-01    2.840000e+00
 SC6er  SC4v  1 4.100000e-01    2.840000e+00
 SC6er  SC3v  1 4.100000e-01    2.600000e+00
 SC6er  SC2v  1 4.100000e-01    2.350000e+00
 SC6er  SC1v  1 4.100000e-01    2.200000e+00
 SC6er  SX4v  1 4.100000e-01    2.840000e+00
 SC6er  SX3v  1 4.100000e-01    2.840000e+00
 SC6er  SX2v  1 4.100000e-01    2.840000e+00
 SC6er  SX1v  1 4.100000e-01    2.840000e+00
 SN2ar  SN1d  1 4.100000e-01    2.600000e+00
 SN3ar  SN2d  1 4.100000e-01    2.840000e+00
 SN3ar  SN1d  1 4.100000e-01    2.600000e+00
 SN4ar  SN3d  1 4.100000e-01    2.840000e+00
 SN4ar  SN2d  1 4.100000e-01    2.840000e+00
 SN4ar  SN1d  1 4.100000e-01    2.600000e+00
 SN5ar  SN4d  1 4.100000e-01    3.070000e+00
 SN5ar  SN3d  1 4.100000e-01    2.840000e+00
 SN5ar  SN2d  1 4.100000e-01    2.840000e+00
 SN5ar  SN1d  1 4.100000e-01    2.600000e+00
 SN6ar  SN5d  1 4.100000e-01    3.310000e+00
 SN6ar  SN4d  1 4.100000e-01    3.310000e+00
 SN6ar  SN3d  1 4.100000e-01    2.840000e+00
 SN6ar  SN2d  1 4.100000e-01    2.600000e+00
 SN6ar  SN1d  1 4.100000e-01    2.600000e+00
 SP1ar  SN6d  1 4.100000e-01    3.310000e+00
 SP1ar  SN5d  1 4.100000e-01    3.070000e+00
 SP1ar  SN4d  1 4.100000e-01    3.070000e+00
 SP1ar  SN3d  1 4.100000e-01    2.600000e+00
 SP1ar  SN2d  1 4.100000e-01    2.600000e+00
 SP1ar  SN1d  1 4.100000e-01    2.600000e+00
 SP2ar  SP1d  1 4.100000e-01    3.310000e+00
 SP2ar  SN6d  1 4.100000e-01    3.310000e+00
 SP2ar  SN5d  1 4.100000e-01    3.070000e+00
 SP2ar  SN4d  1 4.100000e-01    2.840000e+00
 SP2ar  SN3d  1 4.100000e-01    2.600000e+00
 SP2ar  SN2d  1 4.100000e-01    2.600000e+00
 SP2ar  SN1d  1 4.100000e-01    2.600000e+00
 SP3ar  SP2d  1 4.100000e-01    3.550000e+00
 SP3ar  SP1d  1 4.100000e-01    3.310000e+00
 SP3ar  SN6d  1 4.100000e-01    3.070000e+00
 SP3ar  SN5d  1 4.100000e-01    2.840000e+00
 SP3ar  SN4d  1 4.100000e-01    2.840000e+00
 SP3ar  SN3d  1 4.100000e-01    2.600000e+00
 SP3ar  SN2d  1 4.100000e-01    2.600000e+00
 SP3ar  SN1d  1 4.100000e-01    2.200000e+00
 SP4ar  SP3d  1 4.100000e-01    3.550000e+00
 SP4ar  SP2d  1 4.100000e-01    3.550000e+00
 SP4ar  SP1d  1 4.100000e-01    3.310000e+00
 SP4ar  SN6d  1 4.100000e-01    3.070000e+00
 SP4ar  SN5d  1 4.100000e-01    2.840000e+00
 SP4ar  SN4d  1 4.100000e-01    2.840000e+00
 SP4ar  SN3d  1 4.100000e-01    2.600000e+00
 SP4ar  SN2d  1 4.100000e-01    2.200000e+00
 SP4ar  SN1d  1 4.100000e-01    2.040000e+00
 SP5ar  SP4d  1 4.100000e-01    3.820000e+00
 SP5ar  SP3d  1 4.100000e-01    3.550000e+00
 SP5ar  SP2d  1 4.100000e-01    3.550000e+00
 SP5ar  SP1d  1 4.100000e-01    3.310000e+00
 SP5ar  SN6d  1 4.100000e-01    3.070000e+00
 SP5ar  SN5d  1 4.100000e-01    2.840000e+00
 SP5ar  SN4d  1 4.100000e-01    2.840000e+00
 SP5ar  SN3d  1 4.100000e-01    2.200000e+00
 SP5ar  SN2d  1 4.100000e-01    2.040000e+00
 SP5ar  SN1d  1 4.100000e-01    1.910000e+00
 SP6ar  SP5d  1 4.100000e-01    4.290000e+00
 SP6ar  SP4d  1 4.100000e-01    4.040000e+00
 SP6ar  SP3d  1 4.100000e-01    3.820000e+00
 SP6ar  SP2d  1 4.100000e-01    3.820000e+00
 SP6ar  SP1d  1 4.100000e-01    3.550000e+00
 SP6ar  SN6d  1 4.100000e-01    3.310000e+00
 SP6ar  SN5d  1 4.100000e-01    2.840000e+00
 SP6ar  SN4d  1 4.100000e-01    2.600000e+00
 SP6ar  SN3d  1 4.100000e-01    2.200000e+00
 SP6ar  SN2d  1 4.100000e-01    2.040000e+00
 SP6ar  SN1d  1 4.100000e-01    1.910000e+00
 SP6dr  SP5r  1 4.100000e-01    3.820000e+00
 SP6dr  SP4r  1 4.100000e-01    3.550000e+00
 SP6dr  SP3r  1 4.100000e-01    3.310000e+00
 SP6dr  SP2r  1 4.100000e-01    3.310000e+00
 SP6dr  SP1r  1 4.100000e-01    3.070000e+00
 SP6dr  SN6r  1 4.100000e-01    2.840000e+00
 SP6dr  SN5r  1 4.100000e-01    2.350000e+00
 SP6dr  SN4r  1 4.100000e-01    2.200000e+00
 SP6dr  SN3r  1 4.100000e-01    2.040000e+00
 SP6dr  SN2r  1 4.100000e-01    1.910000e+00
 SP6dr  SN1r  1 4.100000e-01    1.750000e+00
 SP5dr  SP4r  1 4.100000e-01    3.310000e+00
 SP5dr  SP3r  1 4.100000e-01    3.070000e+00
 SP5dr  SP2r  1 4.100000e-01    3.070000e+00
 SP5dr  SP1r  1 4.100000e-01    2.840000e+00
 SP5dr  SN6r  1 4.100000e-01    2.600000e+00
 SP5dr  SN5r  1 4.100000e-01    2.350000e+00
 SP5dr  SN4r  1 4.100000e-01    2.350000e+00
 SP5dr  SN3r  1 4.100000e-01    2.040000e+00
 SP5dr  SN2r  1 4.100000e-01    1.910000e+00
 SP5dr  SN1r  1 4.100000e-01    1.750000e+00
 SP4dr  SP3r  1 4.100000e-01    3.070000e+00
 SP4dr  SP2r  1 4.100000e-01    3.070000e+00
 SP4dr  SP1r  1 4.100000e-01    2.840000e+00
 SP4dr  SN6r  1 4.100000e-01    2.600000e+00
 SP4dr  SN5r  1 4.100000e-01    2.350000e+00
 SP4dr  SN4r  1 4.100000e-01    2.350000e+00
 SP4dr  SN3r  1 4.100000e-01    2.200000e+00
 SP4dr  SN2r  1 4.100000e-01    2.040000e+00
 SP4dr  SN1r  1 4.100000e-01    1.910000e+00
 SP3dr  SP2r  1 4.100000e-01    3.070000e+00
 SP3dr  SP1r  1 4.100000e-01    2.840000e+00
 SP3dr  SN6r  1 4.100000e-01    2.600000e+00
 SP3dr  SN5r  1 4.100000e-01    2.350000e+00
 SP3dr  SN4r  1 4.100000e-01    2.350000e+00
 SP3dr  SN3r  1 4.100000e-01    2.200000e+00
 SP3dr  SN2r  1 4.100000e-01    2.200000e+00
 SP3dr  SN1r  1 4.100000e-01    2.040000e+00
 SP2dr  SP1r  1 4.100000e-01    2.840000e+00
 SP2dr  SN6r  1 4.100000e-01    2.840000e+00
 SP2dr  SN5r  1 4.100000e-01    2.600000e+00
 SP2dr  SN4r  1 4.100000e-01    2.350000e+00
 SP2dr  SN3r  1 4.100000e-01    2.200000e+00
 SP2dr  SN2r  1 4.100000e-01    2.200000e+00
 SP2dr  SN1r  1 4.100000e-01    2.200000e+00
 SP1dr  SN6r  1 4.100000e-01    2.840000e+00
 SP1dr  SN5r  1 4.100000e-01    2.600000e+00
 SP1dr  SN4r  1 4.100000e-01    2.600000e+00
 SP1dr  SN3r  1 4.100000e-01    2.200000e+00
 SP1dr  SN2r  1 4.100000e-01    2.200000e+00
 SP1dr  SN1r  1 4.100000e-01    2.200000e+00
 SN6dr  SN5r  1 4.100000e-01    2.840000e+00
 SN6dr  SN4r  1 4.100000e-01    2.840000e+00
 SN6dr  SN3r  1 4.100000e-01    2.350000e+00
 SN6dr  SN2r  1 4.100000e-01    2.200000e+00
 SN6dr  SN1r  1 4.100000e-01    2.200000e+00
 SN5dr  SN4r  1 4.100000e-01    2.600000e+00
 SN5dr  SN3r  1 4.100000e-01    2.350000e+00
 SN5dr  SN2r  1 4.100000e-01    2.350000e+00
 SN5dr  SN1r  1 4.100000e-01    2.200000e+00
 SN4dr  SN3r  1 4.100000e-01    2.350000e+00
 SN4dr  SN2r  1 4.100000e-01    2.350000e+00
 SN4dr  SN1r  1 4.100000e-01    2.200000e+00
 SN3dr  SN2r  1 4.100000e-01    2.350000e+00
 SN3dr  SN1r  1 4.100000e-01    2.200000e+00
 SN2dr  SN1r  1 4.100000e-01    2.200000e+00
 SP6ar  SP5r  1 4.100000e-01    3.820000e+00
 SP6ar  SP4r  1 4.100000e-01    3.550000e+00
 SP6ar  SP3r  1 4.100000e-01    3.310000e+00
 SP6ar  SP2r  1 4.100000e-01    3.310000e+00
 SP6ar  SP1r  1 4.100000e-01    3.070000e+00
 SP6ar  SN6r  1 4.100000e-01    2.840000e+00
 SP6ar  SN5r  1 4.100000e-01    2.350000e+00
 SP6ar  SN4r  1 4.100000e-01    2.200000e+00
 SP6ar  SN3r  1 4.100000e-01    2.040000e+00
 SP6ar  SN2r  1 4.100000e-01    1.910000e+00
 SP6ar  SN1r  1 4.100000e-01    1.750000e+00
 SP5ar  SP4r  1 4.100000e-01    3.310000e+00
 SP5ar  SP3r  1 4.100000e-01    3.070000e+00
 SP5ar  SP2r  1 4.100000e-01    3.070000e+00
 SP5ar  SP1r  1 4.100000e-01    2.840000e+00
 SP5ar  SN6r  1 4.100000e-01    2.600000e+00
 SP5ar  SN5r  1 4.100000e-01    2.350000e+00
 SP5ar  SN4r  1 4.100000e-01    2.350000e+00
 SP5ar  SN3r  1 4.100000e-01    2.040000e+00
 SP5ar  SN2r  1 4.100000e-01    1.910000e+00
 SP5ar  SN1r  1 4.100000e-01    1.750000e+00
 SP4ar  SP3r  1 4.100000e-01    3.070000e+00
 SP4ar  SP2r  1 4.100000e-01    3.070000e+00
 SP4ar  SP1r  1 4.100000e-01    2.840000e+00
 SP4ar  SN6r  1 4.100000e-01    2.600000e+00
 SP4ar  SN5r  1 4.100000e-01    2.350000e+00
 SP4ar  SN4r  1 4.100000e-01    2.350000e+00
 SP4ar  SN3r  1 4.100000e-01    2.200000e+00
 SP4ar  SN2r  1 4.100000e-01    2.040000e+00
 SP4ar  SN1r  1 4.100000e-01    1.910000e+00
 SP3ar  SP2r  1 4.100000e-01    3.070000e+00
 SP3ar  SP1r  1 4.100000e-01    2.840000e+00
 SP3ar  SN6r  1 4.100000e-01    2.600000e+00
 SP3ar  SN5r  1 4.100000e-01    2.350000e+00
 SP3ar  SN4r  1 4.100000e-01    2.350000e+00
 SP3ar  SN3r  1 4.100000e-01    2.200000e+00
 SP3ar  SN2r  1 4.100000e-01    2.200000e+00
 SP3ar  SN1r  1 4.100000e-01    2.040000e+00
 SP2ar  SP1r  1 4.100000e-01    2.840000e+00
 SP2ar  SN6r  1 4.100000e-01    2.840000e+00
 SP2ar  SN5r  1 4.100000e-01    2.600000e+00
 SP2ar  SN4r  1 4.100000e-01    2.350000e+00
 SP2ar  SN3r  1 4.100000e-01    2.200000e+00
 SP2ar  SN2r  1 4.100000e-01    2.200000e+00
 SP2ar  SN1r  1 4.100000e-01    2.200000e+00
 SP1ar  SN6r  1 4.100000e-01    2.840000e+00
 SP1ar  SN5r  1 4.100000e-01    2.600000e+00
 SP1ar  SN4r  1 4.100000e-01    2.600000e+00
 SP1ar  SN3r  1 4.100000e-01    2.200000e+00
 SP1ar  SN2r  1 4.100000e-01    2.200000e+00
 SP1ar  SN1r  1 4.100000e-01    2.200000e+00
 SN6ar  SN5r  1 4.100000e-01    2.840000e+00
 SN6ar  SN4r  1 4.100000e-01    2.840000e+00
 SN6ar  SN3r  1 4.100000e-01    2.350000e+00
 SN6ar  SN2r  1 4.100000e-01    2.200000e+00
 SN6ar  SN1r  1 4.100000e-01    2.200000e+00
 SN5ar  SN4r  1 4.100000e-01    2.600000e+00
 SN5ar  SN3r  1 4.100000e-01    2.350000e+00
 SN5ar  SN2r  1 4.100000e-01    2.350000e+00
 SN5ar  SN1r  1 4.100000e-01    2.200000e+00
 SN4ar  SN3r  1 4.100000e-01    2.350000e+00
 SN4ar  SN2r  1 4.100000e-01    2.350000e+00
 SN4ar  SN1r  1 4.100000e-01    2.200000e+00
 SN3ar  SN2r  1 4.100000e-01    2.350000e+00
 SN3ar  SN1r  1 4.100000e-01    2.200000e+00
 SN2ar  SN1r  1 4.100000e-01    2.200000e+00
 SC6vr  SC5r  1 4.100000e-01    2.350000e+00
 SC6vr  SC4r  1 4.100000e-01    2.350000e+00
 SC6vr  SC3r  1 4.100000e-01    2.200000e+00
 SC6vr  SC2r  1 4.100000e-01    2.040000e+00
 SC6vr  SC1r  1 4.100000e-01    1.910000e+00
 SC6vr  SX4r  1 4.100000e-01    2.350000e+00
 SC6vr  SX3r  1 4.100000e-01    2.350000e+00
 SC6vr  SX2r  1 4.100000e-01    2.350000e+00
 SC6vr  SX1r  1 4.100000e-01    2.350000e+00
 SC5vr  SC4r  1 4.100000e-01    2.350000e+00
 SC5vr  SC3r  1 4.100000e-01    2.200000e+00
 SC5vr  SC2r  1 4.100000e-01    2.040000e+00
 SC5vr  SC1r  1 4.100000e-01    2.040000e+00
 SC5vr  SX4r  1 4.100000e-01    2.200000e+00
 SC5vr  SX3r  1 4.100000e-01    2.200000e+00
 SC5vr  SX2r  1 4.100000e-01    2.200000e+00
 SC5vr  SX1r  1 4.100000e-01    2.350000e+00
 SC4vr  SC3r  1 4.100000e-01    2.350000e+00
 SC4vr  SC2r  1 4.100000e-01    2.200000e+00
 SC4vr  SC1r  1 4.100000e-01    2.040000e+00
 SC4vr  SX4r  1 4.100000e-01    2.200000e+00
 SC4vr  SX3r  1 4.100000e-01    2.200000e+00
 SC4vr  SX2r  1 4.100000e-01    2.200000e+00
 SC4vr  SX1r  1 4.100000e-01    2.350000e+00
 SC3vr  SC2r  1 4.100000e-01    2.350000e+00
 SC3vr  SC1r  1 4.100000e-01    2.350000e+00
 SC3vr  SX4r  1 4.100000e-01    2.200000e+00
 SC3vr  SX3r  1 4.100000e-01    2.200000e+00
 SC3vr  SX2r  1 4.100000e-01    2.200000e+00
 SC3vr  SX1r  1 4.100000e-01    2.350000e+00
 SC2vr  SC1r  1 4.100000e-01    2.600000e+00
 SC2vr  SX4r  1 4.100000e-01    1.910000e+00
 SC2vr  SX3r  1 4.100000e-01    2.200000e+00
 SC2vr  SX2r  1 4.100000e-01    2.200000e+00
 SC2vr  SX1r  1 4.100000e-01    2.200000e+00
 SC1vr  SX4r  1 4.100000e-01    1.910000e+00
 SC1vr  SX3r  1 4.100000e-01    2.200000e+00
 SC1vr  SX2r  1 4.100000e-01    2.200000e+00
 SC1vr  SX1r  1 4.100000e-01    2.200000e+00
 SX4vr  SX3r  1 4.100000e-01    2.350000e+00
 SX4vr  SX2r  1 4.100000e-01    2.350000e+00
 SX4vr  SX1r  1 4.100000e-01    2.350000e+00
 SX3vr  SX2r  1 4.100000e-01    2.600000e+00
 SX3vr  SX1r  1 4.100000e-01    2.600000e+00
 SX2vr  SX1r  1 4.100000e-01    2.600000e+00
 SC6er  SC5r  1 4.100000e-01    2.350000e+00
 SC6er  SC4r  1 4.100000e-01    2.350000e+00
 SC6er  SC3r  1 4.100000e-01    2.200000e+00
 SC6er  SC2r  1 4.100000e-01    2.040000e+00
 SC6er  SC1r  1 4.100000e-01    1.910000e+00
 SC6er  SX4r  1 4.100000e-01    2.350000e+00
 SC6er  SX3r  1 4.100000e-01    2.350000e+00
 SC6er  SX2r  1 4.100000e-01    2.350000e+00
 SC6er  SX1r  1 4.100000e-01    2.350000e+00
 SC5er  SC4r  1 4.100000e-01    2.350000e+00
 SC5er  SC3r  1 4.100000e-01    2.200000e+00
 SC5er  SC2r  1 4.100000e-01    2.040000e+00
 SC5er  SC1r  1 4.100000e-01    2.040000e+00
 SC5er  SX4r  1 4.100000e-01    2.200000e+00
 SC5er  SX3r  1 4.100000e-01    2.200000e+00
 SC5er  SX2r  1 4.100000e-01    2.200000e+00
 SC5er  SX1r  1 4.100000e-01    2.350000e+00
 SC4er  SC3r  1 4.100000e-01    2.350000e+00
 SC4er  SC2r  1 4.100000e-01    2.200000e+00
 SC4er  SC1r  1 4.100000e-01    2.040000e+00
 SC4er  SX4r  1 4.100000e-01    2.200000e+00
 SC4er  SX3r  1 4.100000e-01    2.200000e+00
 SC4er  SX2r  1 4.100000e-01    2.200000e+00
 SC4er  SX1r  1 4.100000e-01    2.350000e+00
 SC3er  SC2r  1 4.100000e-01    2.350000e+00
 SC3er  SC1r  1 4.100000e-01    2.350000e+00
 SC3er  SX4r  1 4.100000e-01    2.200000e+00
 SC3er  SX3r  1 4.100000e-01    2.200000e+00
 SC3er  SX2r  1 4.100000e-01    2.200000e+00
 SC3er  SX1r  1 4.100000e-01    2.350000e+00
 SC2er  SC1r  1 4.100000e-01    2.600000e+00
 SC2er  SX4r  1 4.100000e-01    1.910000e+00
 SC2er  SX3r  1 4.100000e-01    2.200000e+00
 SC2er  SX2r  1 4.100000e-01    2.200000e+00
 SC2er  SX1r  1 4.100000e-01    2.200000e+00
 SC1er  SX4r  1 4.100000e-01    1.910000e+00
 SC1er  SX3r  1 4.100000e-01    2.200000e+00
 SC1er  SX2r  1 4.100000e-01    2.200000e+00
 SC1er  SX1r  1 4.100000e-01    2.200000e+00
 SX4er  SX3r  1 4.100000e-01    2.350000e+00
 SX4er  SX2r  1 4.100000e-01    2.350000e+00
 SX4er  SX1r  1 4.100000e-01    2.350000e+00
 SX3er  SX2r  1 4.100000e-01    2.600000e+00
 SX3er  SX1r  1 4.100000e-01    2.600000e+00
 SX2er  SX1r  1 4.100000e-01    2.600000e+00
 SP6dr  SC6r  1 4.100000e-01    1.910000e+00
 SP6dr  SC5r  1 4.100000e-01    1.750000e+00
 SP6dr  SC4r  1 4.140000e-01    1.560000e+00
 SP6dr  SC3r  1 4.180000e-01    1.400000e+00
 SP6dr  SC2r  1 4.180000e-01    1.400000e+00
 SP6dr  SC1r  1 4.530000e-01    1.150000e+00
 SP6dr  SX4r  1 4.100000e-01    2.040000e+00
 SP6dr  SX3r  1 4.100000e-01    2.040000e+00
 SP6dr  SX2r  1 4.100000e-01    1.910000e+00
 SP6dr  SX1r  1 4.100000e-01    1.750000e+00
 SP5dr  SC6r  1 4.100000e-01    1.910000e+00
 SP5dr  SC5r  1 4.100000e-01    1.910000e+00
 SP5dr  SC4r  1 4.100000e-01    1.750000e+00
 SP5dr  SC3r  1 4.140000e-01    1.560000e+00
 SP5dr  SC2r  1 4.140000e-01    1.560000e+00
 SP5dr  SC1r  1 4.180000e-01    1.400000e+00
 SP5dr  SX4r  1 4.100000e-01    2.200000e+00
 SP5dr  SX3r  1 4.100000e-01    2.040000e+00
 SP5dr  SX2r  1 4.100000e-01    2.040000e+00
 SP5dr  SX1r  1 4.100000e-01    1.750000e+00
 SP4dr  SC6r  1 4.100000e-01    2.040000e+00
 SP4dr  SC5r  1 4.100000e-01    1.910000e+00
 SP4dr  SC4r  1 4.100000e-01    1.750000e+00
 SP4dr  SC3r  1 4.140000e-01    1.560000e+00
 SP4dr  SC2r  1 4.140000e-01    1.560000e+00
 SP4dr  SC1r  1 4.180000e-01    1.400000e+00
 SP4dr  SX4r  1 4.100000e-01    2.200000e+00
 SP4dr  SX3r  1 4.100000e-01    2.040000e+00
 SP4dr  SX2r  1 4.100000e-01    2.040000e+00
 SP4dr  SX1r  1 4.100000e-01    1.910000e+00
 SP3dr  SC6r  1 4.100000e-01    2.200000e+00
 SP3dr  SC5r  1 4.100000e-01    2.040000e+00
 SP3dr  SC4r  1 4.100000e-01    1.910000e+00
 SP3dr  SC3r  1 4.140000e-01    1.560000e+00
 SP3dr  SC2r  1 4.140000e-01    1.560000e+00
 SP3dr  SC1r  1 4.180000e-01    1.400000e+00
 SP3dr  SX4r  1 4.100000e-01    2.200000e+00
 SP3dr  SX3r  1 4.100000e-01    2.200000e+00
 SP3dr  SX2r  1 4.100000e-01    2.040000e+00
 SP3dr  SX1r  1 4.100000e-01    1.910000e+00
 SP2dr  SC6r  1 4.100000e-01    2.200000e+00
 SP2dr  SC5r  1 4.100000e-01    2.040000e+00
 SP2dr  SC4r  1 4.100000e-01    1.910000e+00
 SP2dr  SC3r  1 4.100000e-01    1.750000e+00
 SP2dr  SC2r  1 4.100000e-01    1.750000e+00
 SP2dr  SC1r  1 4.140000e-01    1.560000e+00
 SP2dr  SX4r  1 4.100000e-01    2.200000e+00
 SP2dr  SX3r  1 4.100000e-01    2.200000e+00
 SP2dr  SX2r  1 4.100000e-01    2.040000e+00
 SP2dr  SX1r  1 4.100000e-01    1.910000e+00
 SP1dr  SC6r  1 4.100000e-01    2.200000e+00
 SP1dr  SC5r  1 4.100000e-01    2.040000e+00
 SP1dr  SC4r  1 4.100000e-01    1.910000e+00
 SP1dr  SC3r  1 4.100000e-01    1.750000e+00
 SP1dr  SC2r  1 4.100000e-01    1.750000e+00
 SP1dr  SC1r  1 4.140000e-01    1.560000e+00
 SP1dr  SX4r  1 4.100000e-01    2.200000e+00
 SP1dr  SX3r  1 4.100000e-01    2.200000e+00
 SP1dr  SX2r  1 4.100000e-01    2.040000e+00
 SP1dr  SX1r  1 4.100000e-01    1.910000e+00
 SN6dr  SC6r  1 4.100000e-01    2.350000e+00
 SN6dr  SC5r  1 4.100000e-01    2.200000e+00
 SN6dr  SC4r  1 4.100000e-01    2.040000e+00
 SN6dr  SC3r  1 4.100000e-01    1.910000e+00
 SN6dr  SC2r  1 4.100000e-01    1.910000e+00
 SN6dr  SC1r  1 4.100000e-01    1.750000e+00
 SN6dr  SX4r  1 4.100000e-01    2.350000e+00
 SN6dr  SX3r  1 4.100000e-01    2.200000e+00
 SN6dr  SX2r  1 4.100000e-01    2.040000e+00
 SN6dr  SX1r  1 4.100000e-01    1.910000e+00
 SN5dr  SC6r  1 4.100000e-01    2.350000e+00
 SN5dr  SC5r  1 4.100000e-01    2.200000e+00
 SN5dr  SC4r  1 4.100000e-01    2.040000e+00
 SN5dr  SC3r  1 4.100000e-01    2.040000e+00
 SN5dr  SC2r  1 4.100000e-01    1.910000e+00
 SN5dr  SC1r  1 4.100000e-01    1.750000e+00
 SN5dr  SX4r  1 4.100000e-01    2.600000e+00
 SN5dr  SX3r  1 4.100000e-01    2.350000e+00
 SN5dr  SX2r  1 4.100000e-01    2.200000e+00
 SN5dr  SX1r  1 4.100000e-01    2.040000e+00
 SN4dr  SC6r  1 4.100000e-01    2.350000e+00
 SN4dr  SC5r  1 4.100000e-01    2.200000e+00
 SN4dr  SC4r  1 4.100000e-01    2.200000e+00
 SN4dr  SC3r  1 4.100000e-01    2.040000e+00
 SN4dr  SC2r  1 4.100000e-01    1.910000e+00
 SN4dr  SC1r  1 4.100000e-01    1.750000e+00
 SN4dr  SX4r  1 4.100000e-01    2.840000e+00
 SN4dr  SX3r  1 4.100000e-01    2.600000e+00
 SN4dr  SX2r  1 4.100000e-01    2.200000e+00
 SN4dr  SX1r  1 4.100000e-01    2.040000e+00
 SN3dr  SC6r  1 4.100000e-01    2.350000e+00
 SN3dr  SC5r  1 4.100000e-01    2.200000e+00
 SN3dr  SC4r  1 4.100000e-01    2.200000e+00
 SN3dr  SC3r  1 4.100000e-01    2.040000e+00
 SN3dr  SC2r  1 4.100000e-01    2.040000e+00
 SN3dr  SC1r  1 4.100000e-01    1.910000e+00
 SN3dr  SX4r  1 4.100000e-01    2.600000e+00
 SN3dr  SX3r  1 4.100000e-01    2.350000e+00
 SN3dr  SX2r  1 4.100000e-01    2.200000e+00
 SN3dr  SX1r  1 4.100000e-01    2.200000e+00
 SN2dr  SC6r  1 4.100000e-01    2.350000e+00
 SN2dr  SC5r  1 4.100000e-01    2.200000e+00
 SN2dr  SC4r  1 4.100000e-01    2.200000e+00
 SN2dr  SC3r  1 4.100000e-01    2.200000e+00
 SN2dr  SC2r  1 4.100000e-01    2.040000e+00
 SN2dr  SC1r  1 4.100000e-01    1.910000e+00
 SN2dr  SX4r  1 4.100000e-01    2.600000e+00
 SN2dr  SX3r  1 4.100000e-01    2.350000e+00
 SN2dr  SX2r  1 4.100000e-01    2.200000e+00
 SN2dr  SX1r  1 4.100000e-01    2.200000e+00
 SN1dr  SC6r  1 4.100000e-01    2.600000e+00
 SN1dr  SC5r  1 4.100000e-01    2.350000e+00
 SN1dr  SC4r  1 4.100000e-01    2.350000e+00
 SN1dr  SC3r  1 4.100000e-01    2.200000e+00
 SN1dr  SC2r  1 4.100000e-01    2.040000e+00
 SN1dr  SC1r  1 4.100000e-01    1.910000e+00
 SN1dr  SX4r  1 4.100000e-01    2.350000e+00
 SN1dr  SX3r  1 4.100000e-01    2.350000e+00
 SN1dr  SX2r  1 4.100000e-01    2.200000e+00
 SN1dr  SX1r  1 4.100000e-01    2.200000e+00
 SP6ar  SC6r  1 4.100000e-01    1.910000e+00
 SP6ar  SC5r  1 4.100000e-01    1.750000e+00
 SP6ar  SC4r  1 4.140000e-01    1.560000e+00
 SP6ar  SC3r  1 4.180000e-01    1.400000e+00
 SP6ar  SC2r  1 4.180000e-01    1.400000e+00
 SP6ar  SC1r  1 4.530000e-01    1.150000e+00
 SP6ar  SX4r  1 4.100000e-01    2.040000e+00
 SP6ar  SX3r  1 4.100000e-01    2.040000e+00
 SP6ar  SX2r  1 4.100000e-01    1.910000e+00
 SP6ar  SX1r  1 4.100000e-01    1.750000e+00
 SP5ar  SC6r  1 4.100000e-01    1.910000e+00
 SP5ar  SC5r  1 4.100000e-01    1.910000e+00
 SP5ar  SC4r  1 4.100000e-01    1.750000e+00
 SP5ar  SC3r  1 4.140000e-01    1.560000e+00
 SP5ar  SC2r  1 4.140000e-01    1.560000e+00
 SP5ar  SC1r  1 4.180000e-01    1.400000e+00
 SP5ar  SX4r  1 4.100000e-01    2.200000e+00
 SP5ar  SX3r  1 4.100000e-01    2.040000e+00
 SP5ar  SX2r  1 4.100000e-01    2.040000e+00
 SP5ar  SX1r  1 4.100000e-01    1.750000e+00
 SP4ar  SC6r  1 4.100000e-01    2.040000e+00
 SP4ar  SC5r  1 4.100000e-01    1.910000e+00
 SP4ar  SC4r  1 4.100000e-01    1.750000e+00
 SP4ar  SC3r  1 4.140000e-01    1.560000e+00
 SP4ar  SC2r  1 4.140000e-01    1.560000e+00
 SP4ar  SC1r  1 4.180000e-01    1.400000e+00
 SP4ar  SX4r  1 4.100000e-01    2.200000e+00
 SP4ar  SX3r  1 4.100000e-01    2.040000e+00
 SP4ar  SX2r  1 4.100000e-01    2.040000e+00
 SP4ar  SX1r  1 4.100000e-01    1.910000e+00
 SP3ar  SC6r  1 4.100000e-01    2.200000e+00
 SP3ar  SC5r  1 4.100000e-01    2.040000e+00
 SP3ar  SC4r  1 4.100000e-01    1.910000e+00
 SP3ar  SC3r  1 4.140000e-01    1.560000e+00
 SP3ar  SC2r  1 4.140000e-01    1.560000e+00
 SP3ar  SC1r  1 4.180000e-01    1.400000e+00
 SP3ar  SX4r  1 4.100000e-01    2.200000e+00
 SP3ar  SX3r  1 4.100000e-01    2.200000e+00
 SP3ar  SX2r  1 4.100000e-01    2.040000e+00
 SP3ar  SX1r  1 4.100000e-01    1.910000e+00
 SP2ar  SC6r  1 4.100000e-01    2.200000e+00
 SP2ar  SC5r  1 4.100000e-01    2.040000e+00
 SP2ar  SC4r  1 4.100000e-01    1.910000e+00
 SP2ar  SC3r  1 4.100000e-01    1.750000e+00
 SP2ar  SC2r  1 4.100000e-01    1.750000e+00
 SP2ar  SC1r  1 4.140000e-01    1.560000e+00
 SP2ar  SX4r  1 4.100000e-01    2.200000e+00
 SP2ar  SX3r  1 4.100000e-01    2.200000e+00
 SP2ar  SX2r  1 4.100000e-01    2.040000e+00
 SP2ar  SX1r  1 4.100000e-01    1.910000e+00
 SP1ar  SC6r  1 4.100000e-01    2.200000e+00
 SP1ar  SC5r  1 4.100000e-01    2.040000e+00
 SP1ar  SC4r  1 4.100000e-01    1.910000e+00
 SP1ar  SC3r  1 4.100000e-01    1.750000e+00
 SP1ar  SC2r  1 4.100000e-01    1.750000e+00
 SP1ar  SC1r  1 4.140000e-01    1.560000e+00
 SP1ar  SX4r  1 4.100000e-01    2.200000e+00
 SP1ar  SX3r  1 4.100000e-01    2.200000e+00
 SP1ar  SX2r  1 4.100000e-01    2.040000e+00
 SP1ar  SX1r  1 4.100000e-01    1.910000e+00
 SN6ar  SC6r  1 4.100000e-01    2.350000e+00
 SN6ar  SC5r  1 4.100000e-01    2.200000e+00
 SN6ar  SC4r  1 4.100000e-01    2.040000e+00
 SN6ar  SC3r  1 4.100000e-01    1.910000e+00
 SN6ar  SC2r  1 4.100000e-01    1.910000e+00
 SN6ar  SC1r  1 4.100000e-01    1.750000e+00
 SN6ar  SX4r  1 4.100000e-01    2.350000e+00
 SN6ar  SX3r  1 4.100000e-01    2.200000e+00
 SN6ar  SX2r  1 4.100000e-01    2.040000e+00
 SN6ar  SX1r  1 4.100000e-01    1.910000e+00
 SN5ar  SC6r  1 4.100000e-01    2.350000e+00
 SN5ar  SC5r  1 4.100000e-01    2.200000e+00
 SN5ar  SC4r  1 4.100000e-01    2.040000e+00
 SN5ar  SC3r  1 4.100000e-01    2.040000e+00
 SN5ar  SC2r  1 4.100000e-01    1.910000e+00
 SN5ar  SC1r  1 4.100000e-01    1.750000e+00
 SN5ar  SX4r  1 4.100000e-01    2.600000e+00
 SN5ar  SX3r  1 4.100000e-01    2.350000e+00
 SN5ar  SX2r  1 4.100000e-01    2.200000e+00
 SN5ar  SX1r  1 4.100000e-01    2.040000e+00
 SN4ar  SC6r  1 4.100000e-01    2.350000e+00
 SN4ar  SC5r  1 4.100000e-01    2.200000e+00
 SN4ar  SC4r  1 4.100000e-01    2.200000e+00
 SN4ar  SC3r  1 4.100000e-01    2.040000e+00
 SN4ar  SC2r  1 4.100000e-01    1.910000e+00
 SN4ar  SC1r  1 4.100000e-01    1.750000e+00
 SN4ar  SX4r  1 4.100000e-01    2.840000e+00
 SN4ar  SX3r  1 4.100000e-01    2.600000e+00
 SN4ar  SX2r  1 4.100000e-01    2.200000e+00
 SN4ar  SX1r  1 4.100000e-01    2.040000e+00
 SN3ar  SC6r  1 4.100000e-01    2.350000e+00
 SN3ar  SC5r  1 4.100000e-01    2.200000e+00
 SN3ar  SC4r  1 4.100000e-01    2.200000e+00
 SN3ar  SC3r  1 4.100000e-01    2.040000e+00
 SN3ar  SC2r  1 4.100000e-01    2.040000e+00
 SN3ar  SC1r  1 4.100000e-01    1.910000e+00
 SN3ar  SX4r  1 4.100000e-01    2.600000e+00
 SN3ar  SX3r  1 4.100000e-01    2.350000e+00
 SN3ar  SX2r  1 4.100000e-01    2.200000e+00
 SN3ar  SX1r  1 4.100000e-01    2.200000e+00
 SN2ar  SC6r  1 4.100000e-01    2.350000e+00
 SN2ar  SC5r  1 4.100000e-01    2.200000e+00
 SN2ar  SC4r  1 4.100000e-01    2.200000e+00
 SN2ar  SC3r  1 4.100000e-01    2.200000e+00
 SN2ar  SC2r  1 4.100000e-01    2.040000e+00
 SN2ar  SC1r  1 4.100000e-01    1.910000e+00
 SN2ar  SX4r  1 4.100000e-01    2.600000e+00
 SN2ar  SX3r  1 4.100000e-01    2.350000e+00
 SN2ar  SX2r  1 4.100000e-01    2.200000e+00
 SN2ar  SX1r  1 4.100000e-01    2.200000e+00
 SN1ar  SC6r  1 4.100000e-01    2.600000e+00
 SN1ar  SC5r  1 4.100000e-01    2.350000e+00
 SN1ar  SC4r  1 4.100000e-01    2.350000e+00
 SN1ar  SC3r  1 4.100000e-01    2.200000e+00
 SN1ar  SC2r  1 4.100000e-01    2.040000e+00
 SN1ar  SC1r  1 4.100000e-01    1.910000e+00
 SN1ar  SX4r  1 4.100000e-01    2.350000e+00
 SN1ar  SX3r  1 4.100000e-01    2.350000e+00
 SN1ar  SX2r  1 4.100000e-01    2.200000e+00
 SN1ar  SX1r  1 4.100000e-01    2.200000e+00
 SP6dh  SP5h  1 4.100000e-01    4.290000e+00
 SP6dh  SP4h  1 4.100000e-01    4.040000e+00
 SP6dh  SP3h  1 4.100000e-01    3.820000e+00
 SP6dh  SP2h  1 4.100000e-01    3.820000e+00
 SP6dh  SP1h  1 4.100000e-01    3.550000e+00
 SP6dh  SN6h  1 4.100000e-01    3.310000e+00
 SP6dh  SN5h  1 4.100000e-01    2.840000e+00
 SP6dh  SN4h  1 4.100000e-01    2.600000e+00
 SP6dh  SN3h  1 4.100000e-01    2.350000e+00
 SP6dh  SN2h  1 4.100000e-01    2.200000e+00
 SP6dh  SN1h  1 4.100000e-01    2.040000e+00
 SP5dh  SP4h  1 4.100000e-01    3.820000e+00
 SP5dh  SP3h  1 4.100000e-01    3.550000e+00
 SP5dh  SP2h  1 4.100000e-01    3.550000e+00
 SP5dh  SP1h  1 4.100000e-01    3.310000e+00
 SP5dh  SN6h  1 4.100000e-01    3.070000e+00
 SP5dh  SN5h  1 4.100000e-01    2.840000e+00
 SP5dh  SN4h  1 4.100000e-01    2.840000e+00
 SP5dh  SN3h  1 4.100000e-01    2.350000e+00
 SP5dh  SN2h  1 4.100000e-01    2.200000e+00
 SP5dh  SN1h  1 4.100000e-01    2.040000e+00
 SP4dh  SP3h  1 4.100000e-01    3.550000e+00
 SP4dh  SP2h  1 4.100000e-01    3.550000e+00
 SP4dh  SP1h  1 4.100000e-01    3.310000e+00
 SP4dh  SN6h  1 4.100000e-01    3.070000e+00
 SP4dh  SN5h  1 4.100000e-01    2.840000e+00
 SP4dh  SN4h  1 4.100000e-01    2.840000e+00
 SP4dh  SN3h  1 4.100000e-01    2.600000e+00
 SP4dh  SN2h  1 4.100000e-01    2.350000e+00
 SP4dh  SN1h  1 4.100000e-01    2.200000e+00
 SP3dh  SP2h  1 4.100000e-01    3.550000e+00
 SP3dh  SP1h  1 4.100000e-01    3.310000e+00
 SP3dh  SN6h  1 4.100000e-01    3.070000e+00
 SP3dh  SN5h  1 4.100000e-01    2.840000e+00
 SP3dh  SN4h  1 4.100000e-01    2.840000e+00
 SP3dh  SN3h  1 4.100000e-01    2.600000e+00
 SP3dh  SN2h  1 4.100000e-01    2.600000e+00
 SP3dh  SN1h  1 4.100000e-01    2.350000e+00
 SP2dh  SP1h  1 4.100000e-01    3.310000e+00
 SP2dh  SN6h  1 4.100000e-01    3.310000e+00
 SP2dh  SN5h  1 4.100000e-01    3.070000e+00
 SP2dh  SN4h  1 4.100000e-01    2.840000e+00
 SP2dh  SN3h  1 4.100000e-01    2.600000e+00
 SP2dh  SN2h  1 4.100000e-01    2.600000e+00
 SP2dh  SN1h  1 4.100000e-01    2.600000e+00
 SP1dh  SN6h  1 4.100000e-01    3.310000e+00
 SP1dh  SN5h  1 4.100000e-01    3.070000e+00
 SP1dh  SN4h  1 4.100000e-01    3.070000e+00
 SP1dh  SN3h  1 4.100000e-01    2.600000e+00
 SP1dh  SN2h  1 4.100000e-01    2.600000e+00
 SP1dh  SN1h  1 4.100000e-01    2.600000e+00
 SN6dh  SN5h  1 4.100000e-01    3.310000e+00
 SN6dh  SN4h  1 4.100000e-01    3.310000e+00
 SN6dh  SN3h  1 4.100000e-01    2.840000e+00
 SN6dh  SN2h  1 4.100000e-01    2.600000e+00
 SN6dh  SN1h  1 4.100000e-01    2.600000e+00
 SN5dh  SN4h  1 4.100000e-01    3.070000e+00
 SN5dh  SN3h  1 4.100000e-01    2.840000e+00
 SN5dh  SN2h  1 4.100000e-01    2.840000e+00
 SN5dh  SN1h  1 4.100000e-01    2.600000e+00
 SN4dh  SN3h  1 4.100000e-01    2.840000e+00
 SN4dh  SN2h  1 4.100000e-01    2.840000e+00
 SN4dh  SN1h  1 4.100000e-01    2.600000e+00
 SN3dh  SN2h  1 4.100000e-01    2.840000e+00
 SN3dh  SN1h  1 4.100000e-01    2.600000e+00
 SN2dh  SN1h  1 4.100000e-01    2.600000e+00
 SP6ah  SP5h  1 4.100000e-01    4.290000e+00
 SP6ah  SP4h  1 4.100000e-01    4.040000e+00
 SP6ah  SP3h  1 4.100000e-01    3.820000e+00
 SP6ah  SP2h  1 4.100000e-01    3.820000e+00
 SP6ah  SP1h  1 4.100000e-01    3.550000e+00
 SP6ah  SN6h  1 4.100000e-01    3.310000e+00
 SP6ah  SN5h  1 4.100000e-01    2.840000e+00
 SP6ah  SN4h  1 4.100000e-01    2.600000e+00
 SP6ah  SN3h  1 4.100000e-01    2.350000e+00
 SP6ah  SN2h  1 4.100000e-01    2.200000e+00
 SP6ah  SN1h  1 4.100000e-01    2.040000e+00
 SP5ah  SP4h  1 4.100000e-01    3.820000e+00
 SP5ah  SP3h  1 4.100000e-01    3.550000e+00
 SP5ah  SP2h  1 4.100000e-01    3.550000e+00
 SP5ah  SP1h  1 4.100000e-01    3.310000e+00
 SP5ah  SN6h  1 4.100000e-01    3.070000e+00
 SP5ah  SN5h  1 4.100000e-01    2.840000e+00
 SP5ah  SN4h  1 4.100000e-01    2.840000e+00
 SP5ah  SN3h  1 4.100000e-01    2.350000e+00
 SP5ah  SN2h  1 4.100000e-01    2.200000e+00
 SP5ah  SN1h  1 4.100000e-01    2.040000e+00
 SP4ah  SP3h  1 4.100000e-01    3.550000e+00
 SP4ah  SP2h  1 4.100000e-01    3.550000e+00
 SP4ah  SP1h  1 4.100000e-01    3.310000e+00
 SP4ah  SN6h  1 4.100000e-01    3.070000e+00
 SP4ah  SN5h  1 4.100000e-01    2.840000e+00
 SP4ah  SN4h  1 4.100000e-01    2.840000e+00
 SP4ah  SN3h  1 4.100000e-01    2.600000e+00
 SP4ah  SN2h  1 4.100000e-01    2.350000e+00
 SP4ah  SN1h  1 4.100000e-01    2.200000e+00
 SP3ah  SP2h  1 4.100000e-01    3.550000e+00
 SP3ah  SP1h  1 4.100000e-01    3.310000e+00
 SP3ah  SN6h  1 4.100000e-01    3.070000e+00
 SP3ah  SN5h  1 4.100000e-01    2.840000e+00
 SP3ah  SN4h  1 4.100000e-01    2.840000e+00
 SP3ah  SN3h  1 4.100000e-01    2.600000e+00
 SP3ah  SN2h  1 4.100000e-01    2.600000e+00
 SP3ah  SN1h  1 4.100000e-01    2.350000e+00
 SP2ah  SP1h  1 4.100000e-01    3.310000e+00
 SP2ah  SN6h  1 4.100000e-01    3.310000e+00
 SP2ah  SN5h  1 4.100000e-01    3.070000e+00
 SP2ah  SN4h  1 4.100000e-01    2.840000e+00
 SP2ah  SN3h  1 4.100000e-01    2.600000e+00
 SP2ah  SN2h  1 4.100000e-01    2.600000e+00
 SP2ah  SN1h  1 4.100000e-01    2.600000e+00
 SP1ah  SN6h  1 4.100000e-01    3.310000e+00
 SP1ah  SN5h  1 4.100000e-01    3.070000e+00
 SP1ah  SN4h  1 4.100000e-01    3.070000e+00
 SP1ah  SN3h  1 4.100000e-01    2.600000e+00
 SP1ah  SN2h  1 4.100000e-01    2.600000e+00
 SP1ah  SN1h  1 4.100000e-01    2.600000e+00
 SN6ah  SN5h  1 4.100000e-01    3.310000e+00
 SN6ah  SN4h  1 4.100000e-01    3.310000e+00
 SN6ah  SN3h  1 4.100000e-01    2.840000e+00
 SN6ah  SN2h  1 4.100000e-01    2.600000e+00
 SN6ah  SN1h  1 4.100000e-01    2.600000e+00
 SN5ah  SN4h  1 4.100000e-01    3.070000e+00
 SN5ah  SN3h  1 4.100000e-01    2.840000e+00
 SN5ah  SN2h  1 4.100000e-01    2.840000e+00
 SN5ah  SN1h  1 4.100000e-01    2.600000e+00
 SN4ah  SN3h  1 4.100000e-01    2.840000e+00
 SN4ah  SN2h  1 4.100000e-01    2.840000e+00
 SN4ah  SN1h  1 4.100000e-01    2.600000e+00
 SN3ah  SN2h  1 4.100000e-01    2.840000e+00
 SN3ah  SN1h  1 4.100000e-01    2.600000e+00
 SN2ah  SN1h  1 4.100000e-01    2.600000e+00
 SC6vh  SC5h  1 4.100000e-01    2.840000e+00
 SC6vh  SC4h  1 4.100000e-01    2.840000e+00
 SC6vh  SC3h  1 4.100000e-01    2.600000e+00
 SC6vh  SC2h  1 4.100000e-01    2.350000e+00
 SC6vh  SC1h  1 4.100000e-01    2.200000e+00
 SC6vh  SX4h  1 4.100000e-01    2.840000e+00
 SC6vh  SX3h  1 4.100000e-01    2.840000e+00
 SC6vh  SX2h  1 4.100000e-01    2.840000e+00
 SC6vh  SX1h  1 4.100000e-01    2.840000e+00
 SC5vh  SC4h  1 4.100000e-01    2.840000e+00
 SC5vh  SC3h  1 4.100000e-01    2.600000e+00
 SC5vh  SC2h  1 4.100000e-01    2.350000e+00
 SC5vh  SC1h  1 4.100000e-01    2.350000e+00
 SC5vh  SX4h  1 4.100000e-01    2.600000e+00
 SC5vh  SX3h  1 4.100000e-01    2.600000e+00
 SC5vh  SX2h  1 4.100000e-01    2.600000e+00
 SC5vh  SX1h  1 4.100000e-01    2.840000e+00
 SC4vh  SC3h  1 4.100000e-01    2.840000e+00
 SC4vh  SC2h  1 4.100000e-01    2.600000e+00
 SC4vh  SC1h  1 4.100000e-01    2.350000e+00
 SC4vh  SX4h  1 4.100000e-01    2.600000e+00
 SC4vh  SX3h  1 4.100000e-01    2.600000e+00
 SC4vh  SX2h  1 4.100000e-01    2.600000e+00
 SC4vh  SX1h  1 4.100000e-01    2.840000e+00
 SC3vh  SC2h  1 4.100000e-01    2.840000e+00
 SC3vh  SC1h  1 4.100000e-01    2.840000e+00
 SC3vh  SX4h  1 4.100000e-01    2.600000e+00
 SC3vh  SX3h  1 4.100000e-01    2.600000e+00
 SC3vh  SX2h  1 4.100000e-01    2.600000e+00
 SC3vh  SX1h  1 4.100000e-01    2.840000e+00
 SC2vh  SC1h  1 4.100000e-01    3.070000e+00
 SC2vh  SX4h  1 4.100000e-01    2.200000e+00
 SC2vh  SX3h  1 4.100000e-01    2.600000e+00
 SC2vh  SX2h  1 4.100000e-01    2.600000e+00
 SC2vh  SX1h  1 4.100000e-01    2.600000e+00
 SC1vh  SX4h  1 4.100000e-01    2.200000e+00
 SC1vh  SX3h  1 4.100000e-01    2.600000e+00
 SC1vh  SX2h  1 4.100000e-01    2.600000e+00
 SC1vh  SX1h  1 4.100000e-01    2.600000e+00
 SX4vh  SX3h  1 4.100000e-01    2.840000e+00
 SX4vh  SX2h  1 4.100000e-01    2.840000e+00
 SX4vh  SX1h  1 4.100000e-01    2.840000e+00
 SX3vh  SX2h  1 4.100000e-01    3.070000e+00
 SX3vh  SX1h  1 4.100000e-01    3.070000e+00
 SX2vh  SX1h  1 4.100000e-01    3.070000e+00
 SC6eh  SC5h  1 4.100000e-01    2.840000e+00
 SC6eh  SC4h  1 4.100000e-01    2.840000e+00
 SC6eh  SC3h  1 4.100000e-01    2.600000e+00
 SC6eh  SC2h  1 4.100000e-01    2.350000e+00
 SC6eh  SC1h  1 4.100000e-01    2.200000e+00
 SC6eh  SX4h  1 4.100000e-01    2.840000e+00
 SC6eh  SX3h  1 4.100000e-01    2.840000e+00
 SC6eh  SX2h  1 4.100000e-01    2.840000e+00
 SC6eh  SX1h  1 4.100000e-01    2.840000e+00
 SC5eh  SC4h  1 4.100000e-01    2.840000e+00
 SC5eh  SC3h  1 4.100000e-01    2.600000e+00
 SC5eh  SC2h  1 4.100000e-01    2.350000e+00
 SC5eh  SC1h  1 4.100000e-01    2.350000e+00
 SC5eh  SX4h  1 4.100000e-01    2.600000e+00
 SC5eh  SX3h  1 4.100000e-01    2.600000e+00
 SC5eh  SX2h  1 4.100000e-01    2.600000e+00
 SC5eh  SX1h  1 4.100000e-01    2.840000e+00
 SC4eh  SC3h  1 4.100000e-01    2.840000e+00
 SC4eh  SC2h  1 4.100000e-01    2.600000e+00
 SC4eh  SC1h  1 4.100000e-01    2.350000e+00
 SC4eh  SX4h  1 4.100000e-01    2.600000e+00
 SC4eh  SX3h  1 4.100000e-01    2.600000e+00
 SC4eh  SX2h  1 4.100000e-01    2.600000e+00
 SC4eh  SX1h  1 4.100000e-01    2.840000e+00
 SC3eh  SC2h  1 4.100000e-01    2.840000e+00
 SC3eh  SC1h  1 4.100000e-01    2.840000e+00
 SC3eh  SX4h  1 4.100000e-01    2.600000e+00
 SC3eh  SX3h  1 4.100000e-01    2.600000e+00
 SC3eh  SX2h  1 4.100000e-01    2.600000e+00
 SC3eh  SX1h  1 4.100000e-01    2.840000e+00
 SC2eh  SC1h  1 4.100000e-01    3.070000e+00
 SC2eh  SX4h  1 4.100000e-01    2.200000e+00
 SC2eh  SX3h  1 4.100000e-01    2.600000e+00
 SC2eh  SX2h  1 4.100000e-01    2.600000e+00
 SC2eh  SX1h  1 4.100000e-01    2.600000e+00
 SC1eh  SX4h  1 4.100000e-01    2.200000e+00
 SC1eh  SX3h  1 4.100000e-01    2.600000e+00
 SC1eh  SX2h  1 4.100000e-01    2.600000e+00
 SC1eh  SX1h  1 4.100000e-01    2.600000e+00
 SX4eh  SX3h  1 4.100000e-01    2.840000e+00
 SX4eh  SX2h  1 4.100000e-01    2.840000e+00
 SX4eh  SX1h  1 4.100000e-01    2.840000e+00
 SX3eh  SX2h  1 4.100000e-01    3.070000e+00
 SX3eh  SX1h  1 4.100000e-01    3.070000e+00
 SX2eh  SX1h  1 4.100000e-01    3.070000e+00
 SP6dh  SC6h  1 4.100000e-01    1.910000e+00
 SP6dh  SC5h  1 4.100000e-01    1.750000e+00
 SP6dh  SC4h  1 4.140000e-01    1.560000e+00
 SP6dh  SC3h  1 4.180000e-01    1.400000e+00
 SP6dh  SC2h  1 4.180000e-01    1.400000e+00
 SP6dh  SC1h  1 4.530000e-01    1.150000e+00
 SP6dh  SX4h  1 4.100000e-01    2.040000e+00
 SP6dh  SX3h  1 4.100000e-01    2.040000e+00
 SP6dh  SX2h  1 4.100000e-01    1.910000e+00
 SP6dh  SX1h  1 4.100000e-01    1.750000e+00
 SP5dh  SC6h  1 4.100000e-01    1.910000e+00
 SP5dh  SC5h  1 4.100000e-01    1.910000e+00
 SP5dh  SC4h  1 4.100000e-01    1.750000e+00
 SP5dh  SC3h  1 4.140000e-01    1.560000e+00
 SP5dh  SC2h  1 4.140000e-01    1.560000e+00
 SP5dh  SC1h  1 4.180000e-01    1.400000e+00
 SP5dh  SX4h  1 4.100000e-01    2.200000e+00
 SP5dh  SX3h  1 4.100000e-01    2.040000e+00
 SP5dh  SX2h  1 4.100000e-01    2.040000e+00
 SP5dh  SX1h  1 4.100000e-01    1.750000e+00
 SP4dh  SC6h  1 4.100000e-01    2.040000e+00
 SP4dh  SC5h  1 4.100000e-01    1.910000e+00
 SP4dh  SC4h  1 4.100000e-01    1.750000e+00
 SP4dh  SC3h  1 4.140000e-01    1.560000e+00
 SP4dh  SC2h  1 4.140000e-01    1.560000e+00
 SP4dh  SC1h  1 4.180000e-01    1.400000e+00
 SP4dh  SX4h  1 4.100000e-01    2.200000e+00
 SP4dh  SX3h  1 4.100000e-01    2.040000e+00
 SP4dh  SX2h  1 4.100000e-01    2.040000e+00
 SP4dh  SX1h  1 4.100000e-01    1.910000e+00
 SP3dh  SC6h  1 4.100000e-01    2.200000e+00
 SP3dh  SC5h  1 4.100000e-01    2.040000e+00
 SP3dh  SC4h  1 4.100000e-01    1.910000e+00
 SP3dh  SC3h  1 4.140000e-01    1.560000e+00
 SP3dh  SC2h  1 4.140000e-01    1.560000e+00
 SP3dh  SC1h  1 4.180000e-01    1.400000e+00
 SP3dh  SX4h  1 4.100000e-01    2.200000e+00
 SP3dh  SX3h  1 4.100000e-01    2.200000e+00
 SP3dh  SX2h  1 4.100000e-01    2.040000e+00
 SP3dh  SX1h  1 4.100000e-01    1.910000e+00
 SP2dh  SC6h  1 4.100000e-01    2.200000e+00
 SP2dh  SC5h  1 4.100000e-01    2.040000e+00
 SP2dh  SC4h  1 4.100000e-01    1.910000e+00
 SP2dh  SC3h  1 4.100000e-01    1.750000e+00
 SP2dh  SC2h  1 4.100000e-01    1.750000e+00
 SP2dh  SC1h  1 4.140000e-01    1.560000e+00
 SP2dh  SX4h  1 4.100000e-01    2.200000e+00
 SP2dh  SX3h  1 4.100000e-01    2.200000e+00
 SP2dh  SX2h  1 4.100000e-01    2.040000e+00
 SP2dh  SX1h  1 4.100000e-01    1.910000e+00
 SP1dh  SC6h  1 4.100000e-01    2.200000e+00
 SP1dh  SC5h  1 4.100000e-01    2.040000e+00
 SP1dh  SC4h  1 4.100000e-01    1.910000e+00
 SP1dh  SC3h  1 4.100000e-01    1.750000e+00
 SP1dh  SC2h  1 4.100000e-01    1.750000e+00
 SP1dh  SC1h  1 4.140000e-01    1.560000e+00
 SP1dh  SX4h  1 4.100000e-01    2.200000e+00
 SP1dh  SX3h  1 4.100000e-01    2.200000e+00
 SP1dh  SX2h  1 4.100000e-01    2.040000e+00
 SP1dh  SX1h  1 4.100000e-01    1.910000e+00
 SN6dh  SC6h  1 4.100000e-01    2.350000e+00
 SN6dh  SC5h  1 4.100000e-01    2.200000e+00
 SN6dh  SC4h  1 4.100000e-01    2.040000e+00
 SN6dh  SC3h  1 4.100000e-01    1.910000e+00
 SN6dh  SC2h  1 4.100000e-01    1.910000e+00
 SN6dh  SC1h  1 4.100000e-01    1.750000e+00
 SN6dh  SX4h  1 4.100000e-01    2.350000e+00
 SN6dh  SX3h  1 4.100000e-01    2.200000e+00
 SN6dh  SX2h  1 4.100000e-01    2.040000e+00
 SN6dh  SX1h  1 4.100000e-01    1.910000e+00
 SN5dh  SC6h  1 4.100000e-01    2.350000e+00
 SN5dh  SC5h  1 4.100000e-01    2.200000e+00
 SN5dh  SC4h  1 4.100000e-01    2.040000e+00
 SN5dh  SC3h  1 4.100000e-01    2.040000e+00
 SN5dh  SC2h  1 4.100000e-01    1.910000e+00
 SN5dh  SC1h  1 4.100000e-01    1.750000e+00
 SN5dh  SX4h  1 4.100000e-01    2.600000e+00
 SN5dh  SX3h  1 4.100000e-01    2.350000e+00
 SN5dh  SX2h  1 4.100000e-01    2.200000e+00
 SN5dh  SX1h  1 4.100000e-01    2.040000e+00
 SN4dh  SC6h  1 4.100000e-01    2.350000e+00
 SN4dh  SC5h  1 4.100000e-01    2.200000e+00
 SN4dh  SC4h  1 4.100000e-01    2.200000e+00
 SN4dh  SC3h  1 4.100000e-01    2.040000e+00
 SN4dh  SC2h  1 4.100000e-01    1.910000e+00
 SN4dh  SC1h  1 4.100000e-01    1.750000e+00
 SN4dh  SX4h  1 4.100000e-01    2.840000e+00
 SN4dh  SX3h  1 4.100000e-01    2.600000e+00
 SN4dh  SX2h  1 4.100000e-01    2.200000e+00
 SN4dh  SX1h  1 4.100000e-01    2.040000e+00
 SN3dh  SC6h  1 4.100000e-01    2.350000e+00
 SN3dh  SC5h  1 4.100000e-01    2.200000e+00
 SN3dh  SC4h  1 4.100000e-01    2.200000e+00
 SN3dh  SC3h  1 4.100000e-01    2.040000e+00
 SN3dh  SC2h  1 4.100000e-01    2.040000e+00
 SN3dh  SC1h  1 4.100000e-01    1.910000e+00
 SN3dh  SX4h  1 4.100000e-01    2.600000e+00
 SN3dh  SX3h  1 4.100000e-01    2.350000e+00
 SN3dh  SX2h  1 4.100000e-01    2.200000e+00
 SN3dh  SX1h  1 4.100000e-01    2.200000e+00
 SN2dh  SC6h  1 4.100000e-01    2.350000e+00
 SN2dh  SC5h  1 4.100000e-01    2.200000e+00
 SN2dh  SC4h  1 4.100000e-01    2.200000e+00
 SN2dh  SC3h  1 4.100000e-01    2.200000e+00
 SN2dh  SC2h  1 4.100000e-01    2.040000e+00
 SN2dh  SC1h  1 4.100000e-01    1.910000e+00
 SN2dh  SX4h  1 4.100000e-01    2.600000e+00
 SN2dh  SX3h  1 4.100000e-01    2.350000e+00
 SN2dh  SX2h  1 4.100000e-01    2.200000e+00
 SN2dh  SX1h  1 4.100000e-01    2.200000e+00
 SN1dh  SC6h  1 4.100000e-01    2.600000e+00
 SN1dh  SC5h  1 4.100000e-01    2.350000e+00
 SN1dh  SC4h  1 4.100000e-01    2.350000e+00
 SN1dh  SC3h  1 4.100000e-01    2.200000e+00
 SN1dh  SC2h  1 4.100000e-01    2.040000e+00
 SN1dh  SC1h  1 4.100000e-01    1.910000e+00
 SN1dh  SX4h  1 4.100000e-01    2.350000e+00
 SN1dh  SX3h  1 4.100000e-01    2.350000e+00
 SN1dh  SX2h  1 4.100000e-01    2.200000e+00
 SN1dh  SX1h  1 4.100000e-01    2.200000e+00
 SP6ah  SC6h  1 4.100000e-01    1.910000e+00
 SP6ah  SC5h  1 4.100000e-01    1.750000e+00
 SP6ah  SC4h  1 4.140000e-01    1.560000e+00
 SP6ah  SC3h  1 4.180000e-01    1.400000e+00
 SP6ah  SC2h  1 4.180000e-01    1.400000e+00
 SP6ah  SC1h  1 4.530000e-01    1.150000e+00
 SP6ah  SX4h  1 4.100000e-01    2.040000e+00
 SP6ah  SX3h  1 4.100000e-01    2.040000e+00
 SP6ah  SX2h  1 4.100000e-01    1.910000e+00
 SP6ah  SX1h  1 4.100000e-01    1.750000e+00
 SP5ah  SC6h  1 4.100000e-01    1.910000e+00
 SP5ah  SC5h  1 4.100000e-01    1.910000e+00
 SP5ah  SC4h  1 4.100000e-01    1.750000e+00
 SP5ah  SC3h  1 4.140000e-01    1.560000e+00
 SP5ah  SC2h  1 4.140000e-01    1.560000e+00
 SP5ah  SC1h  1 4.180000e-01    1.400000e+00
 SP5ah  SX4h  1 4.100000e-01    2.200000e+00
 SP5ah  SX3h  1 4.100000e-01    2.040000e+00
 SP5ah  SX2h  1 4.100000e-01    2.040000e+00
 SP5ah  SX1h  1 4.100000e-01    1.750000e+00
 SP4ah  SC6h  1 4.100000e-01    2.040000e+00
 SP4ah  SC5h  1 4.100000e-01    1.910000e+00
 SP4ah  SC4h  1 4.100000e-01    1.750000e+00
 SP4ah  SC3h  1 4.140000e-01    1.560000e+00
 SP4ah  SC2h  1 4.140000e-01    1.560000e+00
 SP4ah  SC1h  1 4.180000e-01    1.400000e+00
 SP4ah  SX4h  1 4.100000e-01    2.200000e+00
 SP4ah  SX3h  1 4.100000e-01    2.040000e+00
 SP4ah  SX2h  1 4.100000e-01    2.040000e+00
 SP4ah  SX1h  1 4.100000e-01    1.910000e+00
 SP3ah  SC6h  1 4.100000e-01    2.200000e+00
 SP3ah  SC5h  1 4.100000e-01    2.040000e+00
 SP3ah  SC4h  1 4.100000e-01    1.910000e+00
 SP3ah  SC3h  1 4.140000e-01    1.560000e+00
 SP3ah  SC2h  1 4.140000e-01    1.560000e+00
 SP3ah  SC1h  1 4.180000e-01    1.400000e+00
 SP3ah  SX4h  1 4.100000e-01    2.200000e+00
 SP3ah  SX3h  1 4.100000e-01    2.200000e+00
 SP3ah  SX2h  1 4.100000e-01    2.040000e+00
 SP3ah  SX1h  1 4.100000e-01    1.910000e+00
 SP2ah  SC6h  1 4.100000e-01    2.200000e+00
 SP2ah  SC5h  1 4.100000e-01    2.040000e+00
 SP2ah  SC4h  1 4.100000e-01    1.910000e+00
 SP2ah  SC3h  1 4.100000e-01    1.750000e+00
 SP2ah  SC2h  1 4.100000e-01    1.750000e+00
 SP2ah  SC1h  1 4.140000e-01    1.560000e+00
 SP2ah  SX4h  1 4.100000e-01    2.200000e+00
 SP2ah  SX3h  1 4.100000e-01    2.200000e+00
 SP2ah  SX2h  1 4.100000e-01    2.040000e+00
 SP2ah  SX1h  1 4.100000e-01    1.910000e+00
 SP1ah  SC6h  1 4.100000e-01    2.200000e+00
 SP1ah  SC5h  1 4.100000e-01    2.040000e+00
 SP1ah  SC4h  1 4.100000e-01    1.910000e+00
 SP1ah  SC3h  1 4.100000e-01    1.750000e+00
 SP1ah  SC2h  1 4.100000e-01    1.750000e+00
 SP1ah  SC1h  1 4.140000e-01    1.560000e+00
 SP1ah  SX4h  1 4.100000e-01    2.200000e+00
 SP1ah  SX3h  1 4.100000e-01    2.200000e+00
 SP1ah  SX2h  1 4.100000e-01    2.040000e+00
 SP1ah  SX1h  1 4.100000e-01    1.910000e+00
 SN6ah  SC6h  1 4.100000e-01    2.350000e+00
 SN6ah  SC5h  1 4.100000e-01    2.200000e+00
 SN6ah  SC4h  1 4.100000e-01    2.040000e+00
 SN6ah  SC3h  1 4.100000e-01    1.910000e+00
 SN6ah  SC2h  1 4.100000e-01    1.910000e+00
 SN6ah  SC1h  1 4.100000e-01    1.750000e+00
 SN6ah  SX4h  1 4.100000e-01    2.350000e+00
 SN6ah  SX3h  1 4.100000e-01    2.200000e+00
 SN6ah  SX2h  1 4.100000e-01    2.040000e+00
 SN6ah  SX1h  1 4.100000e-01    1.910000e+00
 SN5ah  SC6h  1 4.100000e-01    2.350000e+00
 SN5ah  SC5h  1 4.100000e-01    2.200000e+00
 SN5ah  SC4h  1 4.100000e-01    2.040000e+00
 SN5ah  SC3h  1 4.100000e-01    2.040000e+00
 SN5ah  SC2h  1 4.100000e-01    1.910000e+00
 SN5ah  SC1h  1 4.100000e-01    1.750000e+00
 SN5ah  SX4h  1 4.100000e-01    2.600000e+00
 SN5ah  SX3h  1 4.100000e-01    2.350000e+00
 SN5ah  SX2h  1 4.100000e-01    2.200000e+00
 SN5ah  SX1h  1 4.100000e-01    2.040000e+00
 SN4ah  SC6h  1 4.100000e-01    2.350000e+00
 SN4ah  SC5h  1 4.100000e-01    2.200000e+00
 SN4ah  SC4h  1 4.100000e-01    2.200000e+00
 SN4ah  SC3h  1 4.100000e-01    2.040000e+00
 SN4ah  SC2h  1 4.100000e-01    1.910000e+00
 SN4ah  SC1h  1 4.100000e-01    1.750000e+00
 SN4ah  SX4h  1 4.100000e-01    2.840000e+00
 SN4ah  SX3h  1 4.100000e-01    2.600000e+00
 SN4ah  SX2h  1 4.100000e-01    2.200000e+00
 SN4ah  SX1h  1 4.100000e-01    2.040000e+00
 SN3ah  SC6h  1 4.100000e-01    2.350000e+00
 SN3ah  SC5h  1 4.100000e-01    2.200000e+00
 SN3ah  SC4h  1 4.100000e-01    2.200000e+00
 SN3ah  SC3h  1 4.100000e-01    2.040000e+00
 SN3ah  SC2h  1 4.100000e-01    2.040000e+00
 SN3ah  SC1h  1 4.100000e-01    1.910000e+00
 SN3ah  SX4h  1 4.100000e-01    2.600000e+00
 SN3ah  SX3h  1 4.100000e-01    2.350000e+00
 SN3ah  SX2h  1 4.100000e-01    2.200000e+00
 SN3ah  SX1h  1 4.100000e-01    2.200000e+00
 SN2ah  SC6h  1 4.100000e-01    2.350000e+00
 SN2ah  SC5h  1 4.100000e-01    2.200000e+00
 SN2ah  SC4h  1 4.100000e-01    2.200000e+00
 SN2ah  SC3h  1 4.100000e-01    2.200000e+00
 SN2ah  SC2h  1 4.100000e-01    2.040000e+00
 SN2ah  SC1h  1 4.100000e-01    1.910000e+00
 SN2ah  SX4h  1 4.100000e-01    2.600000e+00
 SN2ah  SX3h  1 4.100000e-01    2.350000e+00
 SN2ah  SX2h  1 4.100000e-01    2.200000e+00
 SN2ah  SX1h  1 4.100000e-01    2.200000e+00
 SN1ah  SC6h  1 4.100000e-01    2.600000e+00
 SN1ah  SC5h  1 4.100000e-01    2.350000e+00
 SN1ah  SC4h  1 4.100000e-01    2.350000e+00
 SN1ah  SC3h  1 4.100000e-01    2.200000e+00
 SN1ah  SC2h  1 4.100000e-01    2.040000e+00
 SN1ah  SC1h  1 4.100000e-01    1.910000e+00
 SN1ah  SX4h  1 4.100000e-01    2.350000e+00
 SN1ah  SX3h  1 4.100000e-01    2.350000e+00
 SN1ah  SX2h  1 4.100000e-01    2.200000e+00
 SN1ah  SX1h  1 4.100000e-01    2.200000e+00
 SP6dh  SP5r  1 4.100000e-01    4.040000e+00
 SP6dr  SP5h  1 4.100000e-01    4.040000e+00
 SP6dh  SP4r  1 4.100000e-01    3.820000e+00
 SP6dr  SP4h  1 4.100000e-01    3.820000e+00
 SP6dh  SP3r  1 4.100000e-01    3.550000e+00
 SP6dr  SP3h  1 4.100000e-01    3.550000e+00
 SP6dh  SP2r  1 4.100000e-01    3.550000e+00
 SP6dr  SP2h  1 4.100000e-01    3.550000e+00
 SP6dh  SP1r  1 4.100000e-01    3.310000e+00
 SP6dr  SP1h  1 4.100000e-01    3.310000e+00
 SP6dh  SN6r  1 4.100000e-01    3.070000e+00
 SP6dr  SN6h  1 4.100000e-01    3.070000e+00
 SP6dh  SN5r  1 4.100000e-01    2.600000e+00
 SP6dr  SN5h  1 4.100000e-01    2.600000e+00
 SP6dh  SN4r  1 4.100000e-01    2.350000e+00
 SP6dr  SN4h  1 4.100000e-01    2.350000e+00
 SP6dh  SN3r  1 4.100000e-01    2.200000e+00
 SP6dr  SN3h  1 4.100000e-01    2.200000e+00
 SP6dh  SN2r  1 4.100000e-01    2.040000e+00
 SP6dr  SN2h  1 4.100000e-01    2.040000e+00
 SP6dh  SN1r  1 4.100000e-01    1.910000e+00
 SP6dr  SN1h  1 4.100000e-01    1.910000e+00
 SP5dh  SP4r  1 4.100000e-01    3.550000e+00
 SP5dr  SP4h  1 4.100000e-01    3.550000e+00
 SP5dh  SP3r  1 4.100000e-01    3.310000e+00
 SP5dr  SP3h  1 4.100000e-01    3.310000e+00
 SP5dh  SP2r  1 4.100000e-01    3.310000e+00
 SP5dr  SP2h  1 4.100000e-01    3.310000e+00
 SP5dh  SP1r  1 4.100000e-01    3.070000e+00
 SP5dr  SP1h  1 4.100000e-01    3.070000e+00
 SP5dh  SN6r  1 4.100000e-01    2.840000e+00
 SP5dr  SN6h  1 4.100000e-01    2.840000e+00
 SP5dh  SN5r  1 4.100000e-01    2.600000e+00
 SP5dr  SN5h  1 4.100000e-01    2.600000e+00
 SP5dh  SN4r  1 4.100000e-01    2.600000e+00
 SP5dr  SN4h  1 4.100000e-01    2.600000e+00
 SP5dh  SN3r  1 4.100000e-01    2.200000e+00
 SP5dr  SN3h  1 4.100000e-01    2.200000e+00
 SP5dh  SN2r  1 4.100000e-01    2.040000e+00
 SP5dr  SN2h  1 4.100000e-01    2.040000e+00
 SP5dh  SN1r  1 4.100000e-01    1.910000e+00
 SP5dr  SN1h  1 4.100000e-01    1.910000e+00
 SP4dh  SP3r  1 4.100000e-01    3.310000e+00
 SP4dr  SP3h  1 4.100000e-01    3.310000e+00
 SP4dh  SP2r  1 4.100000e-01    3.310000e+00
 SP4dr  SP2h  1 4.100000e-01    3.310000e+00
 SP4dh  SP1r  1 4.100000e-01    3.070000e+00
 SP4dr  SP1h  1 4.100000e-01    3.070000e+00
 SP4dh  SN6r  1 4.100000e-01    2.840000e+00
 SP4dr  SN6h  1 4.100000e-01    2.840000e+00
 SP4dh  SN5r  1 4.100000e-01    2.600000e+00
 SP4dr  SN5h  1 4.100000e-01    2.600000e+00
 SP4dh  SN4r  1 4.100000e-01    2.600000e+00
 SP4dr  SN4h  1 4.100000e-01    2.600000e+00
 SP4dh  SN3r  1 4.100000e-01    2.350000e+00
 SP4dr  SN3h  1 4.100000e-01    2.350000e+00
 SP4dh  SN2r  1 4.100000e-01    2.200000e+00
 SP4dr  SN2h  1 4.100000e-01    2.200000e+00
 SP4dh  SN1r  1 4.100000e-01    2.040000e+00
 SP4dr  SN1h  1 4.100000e-01    2.040000e+00
 SP3dh  SP2r  1 4.100000e-01    3.310000e+00
 SP3dr  SP2h  1 4.100000e-01    3.310000e+00
 SP3dh  SP1r  1 4.100000e-01    3.070000e+00
 SP3dr  SP1h  1 4.100000e-01    3.070000e+00
 SP3dh  SN6r  1 4.100000e-01    2.840000e+00
 SP3dr  SN6h  1 4.100000e-01    2.840000e+00
 SP3dh  SN5r  1 4.100000e-01    2.600000e+00
 SP3dr  SN5h  1 4.100000e-01    2.600000e+00
 SP3dh  SN4r  1 4.100000e-01    2.600000e+00
 SP3dr  SN4h  1 4.100000e-01    2.600000e+00
 SP3dh  SN3r  1 4.100000e-01    2.350000e+00
 SP3dr  SN3h  1 4.100000e-01    2.350000e+00
 SP3dh  SN2r  1 4.100000e-01    2.350000e+00
 SP3dr  SN2h  1 4.100000e-01    2.350000e+00
 SP3dh  SN1r  1 4.100000e-01    2.200000e+00
 SP3dr  SN1h  1 4.100000e-01    2.200000e+00
 SP2dh  SP1r  1 4.100000e-01    3.070000e+00
 SP2dr  SP1h  1 4.100000e-01    3.070000e+00
 SP2dh  SN6r  1 4.100000e-01    3.070000e+00
 SP2dr  SN6h  1 4.100000e-01    3.070000e+00
 SP2dh  SN5r  1 4.100000e-01    2.840000e+00
 SP2dr  SN5h  1 4.100000e-01    2.840000e+00
 SP2dh  SN4r  1 4.100000e-01    2.600000e+00
 SP2dr  SN4h  1 4.100000e-01    2.600000e+00
 SP2dh  SN3r  1 4.100000e-01    2.350000e+00
 SP2dr  SN3h  1 4.100000e-01    2.350000e+00
 SP2dh  SN2r  1 4.100000e-01    2.350000e+00
 SP2dr  SN2h  1 4.100000e-01    2.350000e+00
 SP2dh  SN1r  1 4.100000e-01    2.350000e+00
 SP2dr  SN1h  1 4.100000e-01    2.350000e+00
 SP1dh  SN6r  1 4.100000e-01    3.070000e+00
 SP1dr  SN6h  1 4.100000e-01    3.070000e+00
 SP1dh  SN5r  1 4.100000e-01    2.840000e+00
 SP1dr  SN5h  1 4.100000e-01    2.840000e+00
 SP1dh  SN4r  1 4.100000e-01    2.840000e+00
 SP1dr  SN4h  1 4.100000e-01    2.840000e+00
 SP1dh  SN3r  1 4.100000e-01    2.350000e+00
 SP1dr  SN3h  1 4.100000e-01    2.350000e+00
 SP1dh  SN2r  1 4.100000e-01    2.350000e+00
 SP1dr  SN2h  1 4.100000e-01    2.350000e+00
 SP1dh  SN1r  1 4.100000e-01    2.350000e+00
 SP1dr  SN1h  1 4.100000e-01    2.350000e+00
 SN6dh  SN5r  1 4.100000e-01    3.070000e+00
 SN6dr  SN5h  1 4.100000e-01    3.070000e+00
 SN6dh  SN4r  1 4.100000e-01    3.070000e+00
 SN6dr  SN4h  1 4.100000e-01    3.070000e+00
 SN6dh  SN3r  1 4.100000e-01    2.600000e+00
 SN6dr  SN3h  1 4.100000e-01    2.600000e+00
 SN6dh  SN2r  1 4.100000e-01    2.350000e+00
 SN6dr  SN2h  1 4.100000e-01    2.350000e+00
 SN6dh  SN1r  1 4.100000e-01    2.350000e+00
 SN6dr  SN1h  1 4.100000e-01    2.350000e+00
 SN5dh  SN4r  1 4.100000e-01    2.840000e+00
 SN5dr  SN4h  1 4.100000e-01    2.840000e+00
 SN5dh  SN3r  1 4.100000e-01    2.600000e+00
 SN5dr  SN3h  1 4.100000e-01    2.600000e+00
 SN5dh  SN2r  1 4.100000e-01    2.600000e+00
 SN5dr  SN2h  1 4.100000e-01    2.600000e+00
 SN5dh  SN1r  1 4.100000e-01    2.350000e+00
 SN5dr  SN1h  1 4.100000e-01    2.350000e+00
 SN4dh  SN3r  1 4.100000e-01    2.600000e+00
 SN4dr  SN3h  1 4.100000e-01    2.600000e+00
 SN4dh  SN2r  1 4.100000e-01    2.600000e+00
 SN4dr  SN2h  1 4.100000e-01    2.600000e+00
 SN4dh  SN1r  1 4.100000e-01    2.350000e+00
 SN4dr  SN1h  1 4.100000e-01    2.350000e+00
 SN3dh  SN2r  1 4.100000e-01    2.600000e+00
 SN3dr  SN2h  1 4.100000e-01    2.600000e+00
 SN3dh  SN1r  1 4.100000e-01    2.350000e+00
 SN3dr  SN1h  1 4.100000e-01    2.350000e+00
 SN2dh  SN1r  1 4.100000e-01    2.350000e+00
 SN2dr  SN1h  1 4.100000e-01    2.350000e+00
 SP6ah  SP5r  1 4.100000e-01    4.040000e+00
 SP6ar  SP5h  1 4.100000e-01    4.040000e+00
 SP6ah  SP4r  1 4.100000e-01    3.820000e+00
 SP6ar  SP4h  1 4.100000e-01    3.820000e+00
 SP6ah  SP3r  1 4.100000e-01    3.550000e+00
 SP6ar  SP3h  1 4.100000e-01    3.550000e+00
 SP6ah  SP2r  1 4.100000e-01    3.550000e+00
 SP6ar  SP2h  1 4.100000e-01    3.550000e+00
 SP6ah  SP1r  1 4.100000e-01    3.310000e+00
 SP6ar  SP1h  1 4.100000e-01    3.310000e+00
 SP6ah  SN6r  1 4.100000e-01    3.070000e+00
 SP6ar  SN6h  1 4.100000e-01    3.070000e+00
 SP6ah  SN5r  1 4.100000e-01    2.600000e+00
 SP6ar  SN5h  1 4.100000e-01    2.600000e+00
 SP6ah  SN4r  1 4.100000e-01    2.350000e+00
 SP6ar  SN4h  1 4.100000e-01    2.350000e+00
 SP6ah  SN3r  1 4.100000e-01    2.200000e+00
 SP6ar  SN3h  1 4.100000e-01    2.200000e+00
 SP6ah  SN2r  1 4.100000e-01    2.040000e+00
 SP6ar  SN2h  1 4.100000e-01    2.040000e+00
 SP6ah  SN1r  1 4.100000e-01    1.910000e+00
 SP6ar  SN1h  1 4.100000e-01    1.910000e+00
 SP5ah  SP4r  1 4.100000e-01    3.550000e+00
 SP5ar  SP4h  1 4.100000e-01    3.550000e+00
 SP5ah  SP3r  1 4.100000e-01    3.310000e+00
 SP5ar  SP3h  1 4.100000e-01    3.310000e+00
 SP5ah  SP2r  1 4.100000e-01    3.310000e+00
 SP5ar  SP2h  1 4.100000e-01    3.310000e+00
 SP5ah  SP1r  1 4.100000e-01    3.070000e+00
 SP5ar  SP1h  1 4.100000e-01    3.070000e+00
 SP5ah  SN6r  1 4.100000e-01    2.840000e+00
 SP5ar  SN6h  1 4.100000e-01    2.840000e+00
 SP5ah  SN5r  1 4.100000e-01    2.600000e+00
 SP5ar  SN5h  1 4.100000e-01    2.600000e+00
 SP5ah  SN4r  1 4.100000e-01    2.600000e+00
 SP5ar  SN4h  1 4.100000e-01    2.600000e+00
 SP5ah  SN3r  1 4.100000e-01    2.200000e+00
 SP5ar  SN3h  1 4.100000e-01    2.200000e+00
 SP5ah  SN2r  1 4.100000e-01    2.040000e+00
 SP5ar  SN2h  1 4.100000e-01    2.040000e+00
 SP5ah  SN1r  1 4.100000e-01    1.910000e+00
 SP5ar  SN1h  1 4.100000e-01    1.910000e+00
 SP4ah  SP3r  1 4.100000e-01    3.310000e+00
 SP4ar  SP3h  1 4.100000e-01    3.310000e+00
 SP4ah  SP2r  1 4.100000e-01    3.310000e+00
 SP4ar  SP2h  1 4.100000e-01    3.310000e+00
 SP4ah  SP1r  1 4.100000e-01    3.070000e+00
 SP4ar  SP1h  1 4.100000e-01    3.070000e+00
 SP4ah  SN6r  1 4.100000e-01    2.840000e+00
 SP4ar  SN6h  1 4.100000e-01    2.840000e+00
 SP4ah  SN5r  1 4.100000e-01    2.600000e+00
 SP4ar  SN5h  1 4.100000e-01    2.600000e+00
 SP4ah  SN4r  1 4.100000e-01    2.600000e+00
 SP4ar  SN4h  1 4.100000e-01    2.600000e+00
 SP4ah  SN3r  1 4.100000e-01    2.350000e+00
 SP4ar  SN3h  1 4.100000e-01    2.350000e+00
 SP4ah  SN2r  1 4.100000e-01    2.200000e+00
 SP4ar  SN2h  1 4.100000e-01    2.200000e+00
 SP4ah  SN1r  1 4.100000e-01    2.040000e+00
 SP4ar  SN1h  1 4.100000e-01    2.040000e+00
 SP3ah  SP2r  1 4.100000e-01    3.310000e+00
 SP3ar  SP2h  1 4.100000e-01    3.310000e+00
 SP3ah  SP1r  1 4.100000e-01    3.070000e+00
 SP3ar  SP1h  1 4.100000e-01    3.070000e+00
 SP3ah  SN6r  1 4.100000e-01    2.840000e+00
 SP3ar  SN6h  1 4.100000e-01    2.840000e+00
 SP3ah  SN5r  1 4.100000e-01    2.600000e+00
 SP3ar  SN5h  1 4.100000e-01    2.600000e+00
 SP3ah  SN4r  1 4.100000e-01    2.600000e+00
 SP3ar  SN4h  1 4.100000e-01    2.600000e+00
 SP3ah  SN3r  1 4.100000e-01    2.350000e+00
 SP3ar  SN3h  1 4.100000e-01    2.350000e+00
 SP3ah  SN2r  1 4.100000e-01    2.350000e+00
 SP3ar  SN2h  1 4.100000e-01    2.350000e+00
 SP3ah  SN1r  1 4.100000e-01    2.200000e+00
 SP3ar  SN1h  1 4.100000e-01    2.200000e+00
 SP2ah  SP1r  1 4.100000e-01    3.070000e+00
 SP2ar  SP1h  1 4.100000e-01    3.070000e+00
 SP2ah  SN6r  1 4.100000e-01    3.070000e+00
 SP2ar  SN6h  1 4.100000e-01    3.070000e+00
 SP2ah  SN5r  1 4.100000e-01    2.840000e+00
 SP2ar  SN5h  1 4.100000e-01    2.840000e+00
 SP2ah  SN4r  1 4.100000e-01    2.600000e+00
 SP2ar  SN4h  1 4.100000e-01    2.600000e+00
 SP2ah  SN3r  1 4.100000e-01    2.350000e+00
 SP2ar  SN3h  1 4.100000e-01    2.350000e+00
 SP2ah  SN2r  1 4.100000e-01    2.350000e+00
 SP2ar  SN2h  1 4.100000e-01    2.350000e+00
 SP2ah  SN1r  1 4.100000e-01    2.350000e+00
 SP2ar  SN1h  1 4.100000e-01    2.350000e+00
 SP1ah  SN6r  1 4.100000e-01    3.070000e+00
 SP1ar  SN6h  1 4.100000e-01    3.070000e+00
 SP1ah  SN5r  1 4.100000e-01    2.840000e+00
 SP1ar  SN5h  1 4.100000e-01    2.840000e+00
 SP1ah  SN4r  1 4.100000e-01    2.840000e+00
 SP1ar  SN4h  1 4.100000e-01    2.840000e+00
 SP1ah  SN3r  1 4.100000e-01    2.350000e+00
 SP1ar  SN3h  1 4.100000e-01    2.350000e+00
 SP1ah  SN2r  1 4.100000e-01    2.350000e+00
 SP1ar  SN2h  1 4.100000e-01    2.350000e+00
 SP1ah  SN1r  1 4.100000e-01    2.350000e+00
 SP1ar  SN1h  1 4.100000e-01    2.350000e+00
 SN6ah  SN5r  1 4.100000e-01    3.070000e+00
 SN6ar  SN5h  1 4.100000e-01    3.070000e+00
 SN6ah  SN4r  1 4.100000e-01    3.070000e+00
 SN6ar  SN4h  1 4.100000e-01    3.070000e+00
 SN6ah  SN3r  1 4.100000e-01    2.600000e+00
 SN6ar  SN3h  1 4.100000e-01    2.600000e+00
 SN6ah  SN2r  1 4.100000e-01    2.350000e+00
 SN6ar  SN2h  1 4.100000e-01    2.350000e+00
 SN6ah  SN1r  1 4.100000e-01    2.350000e+00
 SN6ar  SN1h  1 4.100000e-01    2.350000e+00
 SN5ah  SN4r  1 4.100000e-01    2.840000e+00
 SN5ar  SN4h  1 4.100000e-01    2.840000e+00
 SN5ah  SN3r  1 4.100000e-01    2.600000e+00
 SN5ar  SN3h  1 4.100000e-01    2.600000e+00
 SN5ah  SN2r  1 4.100000e-01    2.600000e+00
 SN5ar  SN2h  1 4.100000e-01    2.600000e+00
 SN5ah  SN1r  1 4.100000e-01    2.350000e+00
 SN5ar  SN1h  1 4.100000e-01    2.350000e+00
 SN4ah  SN3r  1 4.100000e-01    2.600000e+00
 SN4ar  SN3h  1 4.100000e-01    2.600000e+00
 SN4ah  SN2r  1 4.100000e-01    2.600000e+00
 SN4ar  SN2h  1 4.100000e-01    2.600000e+00
 SN4ah  SN1r  1 4.100000e-01    2.350000e+00
 SN4ar  SN1h  1 4.100000e-01    2.350000e+00
 SN3ah  SN2r  1 4.100000e-01    2.600000e+00
 SN3ar  SN2h  1 4.100000e-01    2.600000e+00
 SN3ah  SN1r  1 4.100000e-01    2.350000e+00
 SN3ar  SN1h  1 4.100000e-01    2.350000e+00
 SN2ah  SN1r  1 4.100000e-01    2.350000e+00
 SN2ar  SN1h  1 4.100000e-01    2.350000e+00
 SC6vh  SC5r  1 4.100000e-01    2.600000e+00
 SC6vr  SC5h  1 4.100000e-01    2.600000e+00
 SC6vh  SC4r  1 4.100000e-01    2.600000e+00
 SC6vr  SC4h  1 4.100000e-01    2.600000e+00
 SC6vh  SC3r  1 4.100000e-01    2.350000e+00
 SC6vr  SC3h  1 4.100000e-01    2.350000e+00
 SC6vh  SC2r  1 4.100000e-01    2.200000e+00
 SC6vr  SC2h  1 4.100000e-01    2.200000e+00
 SC6vh  SC1r  1 4.100000e-01    2.040000e+00
 SC6vr  SC1h  1 4.100000e-01    2.040000e+00
 SC6vh  SX4r  1 4.100000e-01    2.600000e+00
 SC6vr  SX4h  1 4.100000e-01    2.600000e+00
 SC6vh  SX3r  1 4.100000e-01    2.600000e+00
 SC6vr  SX3h  1 4.100000e-01    2.600000e+00
 SC6vh  SX2r  1 4.100000e-01    2.600000e+00
 SC6vr  SX2h  1 4.100000e-01    2.600000e+00
 SC6vh  SX1r  1 4.100000e-01    2.600000e+00
 SC6vr  SX1h  1 4.100000e-01    2.600000e+00
 SC5vh  SC4r  1 4.100000e-01    2.600000e+00
 SC5vr  SC4h  1 4.100000e-01    2.600000e+00
 SC5vh  SC3r  1 4.100000e-01    2.350000e+00
 SC5vr  SC3h  1 4.100000e-01    2.350000e+00
 SC5vh  SC2r  1 4.100000e-01    2.200000e+00
 SC5vr  SC2h  1 4.100000e-01    2.200000e+00
 SC5vh  SC1r  1 4.100000e-01    2.200000e+00
 SC5vr  SC1h  1 4.100000e-01    2.200000e+00
 SC5vh  SX4r  1 4.100000e-01    2.350000e+00
 SC5vr  SX4h  1 4.100000e-01    2.350000e+00
 SC5vh  SX3r  1 4.100000e-01    2.350000e+00
 SC5vr  SX3h  1 4.100000e-01    2.350000e+00
 SC5vh  SX2r  1 4.100000e-01    2.350000e+00
 SC5vr  SX2h  1 4.100000e-01    2.350000e+00
 SC5vh  SX1r  1 4.100000e-01    2.600000e+00
 SC5vr  SX1h  1 4.100000e-01    2.600000e+00
 SC4vh  SC3r  1 4.100000e-01    2.600000e+00
 SC4vr  SC3h  1 4.100000e-01    2.600000e+00
 SC4vh  SC2r  1 4.100000e-01    2.350000e+00
 SC4vr  SC2h  1 4.100000e-01    2.350000e+00
 SC4vh  SC1r  1 4.100000e-01    2.200000e+00
 SC4vr  SC1h  1 4.100000e-01    2.200000e+00
 SC4vh  SX4r  1 4.100000e-01    2.350000e+00
 SC4vr  SX4h  1 4.100000e-01    2.350000e+00
 SC4vh  SX3r  1 4.100000e-01    2.350000e+00
 SC4vr  SX3h  1 4.100000e-01    2.350000e+00
 SC4vh  SX2r  1 4.100000e-01    2.350000e+00
 SC4vr  SX2h  1 4.100000e-01    2.350000e+00
 SC4vh  SX1r  1 4.100000e-01    2.600000e+00
 SC4vr  SX1h  1 4.100000e-01    2.600000e+00
 SC3vh  SC2r  1 4.100000e-01    2.600000e+00
 SC3vr  SC2h  1 4.100000e-01    2.600000e+00
 SC3vh  SC1r  1 4.100000e-01    2.600000e+00
 SC3vr  SC1h  1 4.100000e-01    2.600000e+00
 SC3vh  SX4r  1 4.100000e-01    2.350000e+00
 SC3vr  SX4h  1 4.100000e-01    2.350000e+00
 SC3vh  SX3r  1 4.100000e-01    2.350000e+00
 SC3vr  SX3h  1 4.100000e-01    2.350000e+00
 SC3vh  SX2r  1 4.100000e-01    2.350000e+00
 SC3vr  SX2h  1 4.100000e-01    2.350000e+00
 SC3vh  SX1r  1 4.100000e-01    2.600000e+00
 SC3vr  SX1h  1 4.100000e-01    2.600000e+00
 SC2vh  SC1r  1 4.100000e-01    2.840000e+00
 SC2vr  SC1h  1 4.100000e-01    2.840000e+00
 SC2vh  SX4r  1 4.100000e-01    2.040000e+00
 SC2vr  SX4h  1 4.100000e-01    2.040000e+00
 SC2vh  SX3r  1 4.100000e-01    2.350000e+00
 SC2vr  SX3h  1 4.100000e-01    2.350000e+00
 SC2vh  SX2r  1 4.100000e-01    2.350000e+00
 SC2vr  SX2h  1 4.100000e-01    2.350000e+00
 SC2vh  SX1r  1 4.100000e-01    2.350000e+00
 SC2vr  SX1h  1 4.100000e-01    2.350000e+00
 SC1vh  SX4r  1 4.100000e-01    2.040000e+00
 SC1vr  SX4h  1 4.100000e-01    2.040000e+00
 SC1vh  SX3r  1 4.100000e-01    2.350000e+00
 SC1vr  SX3h  1 4.100000e-01    2.350000e+00
 SC1vh  SX2r  1 4.100000e-01    2.350000e+00
 SC1vr  SX2h  1 4.100000e-01    2.350000e+00
 SC1vh  SX1r  1 4.100000e-01    2.350000e+00
 SC1vr  SX1h  1 4.100000e-01    2.350000e+00
 SX4vh  SX3r  1 4.100000e-01    2.600000e+00
 SX4vr  SX3h  1 4.100000e-01    2.600000e+00
 SX4vh  SX2r  1 4.100000e-01    2.600000e+00
 SX4vr  SX2h  1 4.100000e-01    2.600000e+00
 SX4vh  SX1r  1 4.100000e-01    2.600000e+00
 SX4vr  SX1h  1 4.100000e-01    2.600000e+00
 SX3vh  SX2r  1 4.100000e-01    2.840000e+00
 SX3vr  SX2h  1 4.100000e-01    2.840000e+00
 SX3vh  SX1r  1 4.100000e-01    2.840000e+00
 SX3vr  SX1h  1 4.100000e-01    2.840000e+00
 SX2vh  SX1r  1 4.100000e-01    2.840000e+00
 SX2vr  SX1h  1 4.100000e-01    2.840000e+00
 SC6eh  SC5r  1 4.100000e-01    2.600000e+00
 SC6er  SC5h  1 4.100000e-01    2.600000e+00
 SC6eh  SC4r  1 4.100000e-01    2.600000e+00
 SC6er  SC4h  1 4.100000e-01    2.600000e+00
 SC6eh  SC3r  1 4.100000e-01    2.350000e+00
 SC6er  SC3h  1 4.100000e-01    2.350000e+00
 SC6eh  SC2r  1 4.100000e-01    2.200000e+00
 SC6er  SC2h  1 4.100000e-01    2.200000e+00
 SC6eh  SC1r  1 4.100000e-01    2.040000e+00
 SC6er  SC1h  1 4.100000e-01    2.040000e+00
 SC6eh  SX4r  1 4.100000e-01    2.600000e+00
 SC6er  SX4h  1 4.100000e-01    2.600000e+00
 SC6eh  SX3r  1 4.100000e-01    2.600000e+00
 SC6er  SX3h  1 4.100000e-01    2.600000e+00
 SC6eh  SX2r  1 4.100000e-01    2.600000e+00
 SC6er  SX2h  1 4.100000e-01    2.600000e+00
 SC6eh  SX1r  1 4.100000e-01    2.600000e+00
 SC6er  SX1h  1 4.100000e-01    2.600000e+00
 SC5eh  SC4r  1 4.100000e-01    2.600000e+00
 SC5er  SC4h  1 4.100000e-01    2.600000e+00
 SC5eh  SC3r  1 4.100000e-01    2.350000e+00
 SC5er  SC3h  1 4.100000e-01    2.350000e+00
 SC5eh  SC2r  1 4.100000e-01    2.200000e+00
 SC5er  SC2h  1 4.100000e-01    2.200000e+00
 SC5eh  SC1r  1 4.100000e-01    2.200000e+00
 SC5er  SC1h  1 4.100000e-01    2.200000e+00
 SC5eh  SX4r  1 4.100000e-01    2.350000e+00
 SC5er  SX4h  1 4.100000e-01    2.350000e+00
 SC5eh  SX3r  1 4.100000e-01    2.350000e+00
 SC5er  SX3h  1 4.100000e-01    2.350000e+00
 SC5eh  SX2r  1 4.100000e-01    2.350000e+00
 SC5er  SX2h  1 4.100000e-01    2.350000e+00
 SC5eh  SX1r  1 4.100000e-01    2.600000e+00
 SC5er  SX1h  1 4.100000e-01    2.600000e+00
 SC4eh  SC3r  1 4.100000e-01    2.600000e+00
 SC4er  SC3h  1 4.100000e-01    2.600000e+00
 SC4eh  SC2r  1 4.100000e-01    2.350000e+00
 SC4er  SC2h  1 4.100000e-01    2.350000e+00
 SC4eh  SC1r  1 4.100000e-01    2.200000e+00
 SC4er  SC1h  1 4.100000e-01    2.200000e+00
 SC4eh  SX4r  1 4.100000e-01    2.350000e+00
 SC4er  SX4h  1 4.100000e-01    2.350000e+00
 SC4eh  SX3r  1 4.100000e-01    2.350000e+00
 SC4er  SX3h  1 4.100000e-01    2.350000e+00
 SC4eh  SX2r  1 4.100000e-01    2.350000e+00
 SC4er  SX2h  1 4.100000e-01    2.350000e+00
 SC4eh  SX1r  1 4.100000e-01    2.600000e+00
 SC4er  SX1h  1 4.100000e-01    2.600000e+00
 SC3eh  SC2r  1 4.100000e-01    2.600000e+00
 SC3er  SC2h  1 4.100000e-01    2.600000e+00
 SC3eh  SC1r  1 4.100000e-01    2.600000e+00
 SC3er  SC1h  1 4.100000e-01    2.600000e+00
 SC3eh  SX4r  1 4.100000e-01    2.350000e+00
 SC3er  SX4h  1 4.100000e-01    2.350000e+00
 SC3eh  SX3r  1 4.100000e-01    2.350000e+00
 SC3er  SX3h  1 4.100000e-01    2.350000e+00
 SC3eh  SX2r  1 4.100000e-01    2.350000e+00
 SC3er  SX2h  1 4.100000e-01    2.350000e+00
 SC3eh  SX1r  1 4.100000e-01    2.600000e+00
 SC3er  SX1h  1 4.100000e-01    2.600000e+00
 SC2eh  SC1r  1 4.100000e-01    2.840000e+00
 SC2er  SC1h  1 4.100000e-01    2.840000e+00
 SC2eh  SX4r  1 4.100000e-01    2.040000e+00
 SC2er  SX4h  1 4.100000e-01    2.040000e+00
 SC2eh  SX3r  1 4.100000e-01    2.350000e+00
 SC2er  SX3h  1 4.100000e-01    2.350000e+00
 SC2eh  SX2r  1 4.100000e-01    2.350000e+00
 SC2er  SX2h  1 4.100000e-01    2.350000e+00
 SC2eh  SX1r  1 4.100000e-01    2.350000e+00
 SC2er  SX1h  1 4.100000e-01    2.350000e+00
 SC1eh  SX4r  1 4.100000e-01    2.040000e+00
 SC1er  SX4h  1 4.100000e-01    2.040000e+00
 SC1eh  SX3r  1 4.100000e-01    2.350000e+00
 SC1er  SX3h  1 4.100000e-01    2.350000e+00
 SC1eh  SX2r  1 4.100000e-01    2.350000e+00
 SC1er  SX2h  1 4.100000e-01    2.350000e+00
 SC1eh  SX1r  1 4.100000e-01    2.350000e+00
 SC1er  SX1h  1 4.100000e-01    2.350000e+00
 SX4eh  SX3r  1 4.100000e-01    2.600000e+00
 SX4er  SX3h  1 4.100000e-01    2.600000e+00
 SX4eh  SX2r  1 4.100000e-01    2.600000e+00
 SX4er  SX2h  1 4.100000e-01    2.600000e+00
 SX4eh  SX1r  1 4.100000e-01    2.600000e+00
 SX4er  SX1h  1 4.100000e-01    2.600000e+00
 SX3eh  SX2r  1 4.100000e-01    2.840000e+00
 SX3er  SX2h  1 4.100000e-01    2.840000e+00
 SX3eh  SX1r  1 4.100000e-01    2.840000e+00
 SX3er  SX1h  1 4.100000e-01    2.840000e+00
 SX2eh  SX1r  1 4.100000e-01    2.840000e+00
 SX2er  SX1h  1 4.100000e-01    2.840000e+00
 SP6dh  SC6r  1 4.100000e-01    1.910000e+00
 SP6dr  SC6h  1 4.100000e-01    1.910000e+00
 SP6dh  SC5r  1 4.100000e-01    1.750000e+00
 SP6dr  SC5h  1 4.100000e-01    1.750000e+00
 SP6dh  SC4r  1 4.140000e-01    1.560000e+00
 SP6dr  SC4h  1 4.140000e-01    1.560000e+00
 SP6dh  SC3r  1 4.180000e-01    1.400000e+00
 SP6dr  SC3h  1 4.180000e-01    1.400000e+00
 SP6dh  SC2r  1 4.180000e-01    1.400000e+00
 SP6dr  SC2h  1 4.180000e-01    1.400000e+00
 SP6dh  SC1r  1 4.530000e-01    1.150000e+00
 SP6dr  SC1h  1 4.530000e-01    1.150000e+00
 SP6dh  SX4r  1 4.100000e-01    2.040000e+00
 SP6dr  SX4h  1 4.100000e-01    2.040000e+00
 SP6dh  SX3r  1 4.100000e-01    2.040000e+00
 SP6dr  SX3h  1 4.100000e-01    2.040000e+00
 SP6dh  SX2r  1 4.100000e-01    1.910000e+00
 SP6dr  SX2h  1 4.100000e-01    1.910000e+00
 SP6dh  SX1r  1 4.100000e-01    1.750000e+00
 SP6dr  SX1h  1 4.100000e-01    1.750000e+00
 SP5dh  SC6r  1 4.100000e-01    1.910000e+00
 SP5dr  SC6h  1 4.100000e-01    1.910000e+00
 SP5dh  SC5r  1 4.100000e-01    1.910000e+00
 SP5dr  SC5h  1 4.100000e-01    1.910000e+00
 SP5dh  SC4r  1 4.100000e-01    1.750000e+00
 SP5dr  SC4h  1 4.100000e-01    1.750000e+00
 SP5dh  SC3r  1 4.140000e-01    1.560000e+00
 SP5dr  SC3h  1 4.140000e-01    1.560000e+00
 SP5dh  SC2r  1 4.140000e-01    1.560000e+00
 SP5dr  SC2h  1 4.140000e-01    1.560000e+00
 SP5dh  SC1r  1 4.180000e-01    1.400000e+00
 SP5dr  SC1h  1 4.180000e-01    1.400000e+00
 SP5dh  SX4r  1 4.100000e-01    2.200000e+00
 SP5dr  SX4h  1 4.100000e-01    2.200000e+00
 SP5dh  SX3r  1 4.100000e-01    2.040000e+00
 SP5dr  SX3h  1 4.100000e-01    2.040000e+00
 SP5dh  SX2r  1 4.100000e-01    2.040000e+00
 SP5dr  SX2h  1 4.100000e-01    2.040000e+00
 SP5dh  SX1r  1 4.100000e-01    1.750000e+00
 SP5dr  SX1h  1 4.100000e-01    1.750000e+00
 SP4dh  SC6r  1 4.100000e-01    2.040000e+00
 SP4dr  SC6h  1 4.100000e-01    2.040000e+00
 SP4dh  SC5r  1 4.100000e-01    1.910000e+00
 SP4dr  SC5h  1 4.100000e-01    1.910000e+00
 SP4dh  SC4r  1 4.100000e-01    1.750000e+00
 SP4dr  SC4h  1 4.100000e-01    1.750000e+00
 SP4dh  SC3r  1 4.140000e-01    1.560000e+00
 SP4dr  SC3h  1 4.140000e-01    1.560000e+00
 SP4dh  SC2r  1 4.140000e-01    1.560000e+00
 SP4dr  SC2h  1 4.140000e-01    1.560000e+00
 SP4dh  SC1r  1 4.180000e-01    1.400000e+00
 SP4dr  SC1h  1 4.180000e-01    1.400000e+00
 SP4dh  SX4r  1 4.100000e-01    2.200000e+00
 SP4dr  SX4h  1 4.100000e-01    2.200000e+00
 SP4dh  SX3r  1 4.100000e-01    2.040000e+00
 SP4dr  SX3h  1 4.100000e-01    2.040000e+00
 SP4dh  SX2r  1 4.100000e-01    2.040000e+00
 SP4dr  SX2h  1 4.100000e-01    2.040000e+00
 SP4dh  SX1r  1 4.100000e-01    1.910000e+00
 SP4dr  SX1h  1 4.100000e-01    1.910000e+00
 SP3dh  SC6r  1 4.100000e-01    2.200000e+00
 SP3dr  SC6h  1 4.100000e-01    2.200000e+00
 SP3dh  SC5r  1 4.100000e-01    2.040000e+00
 SP3dr  SC5h  1 4.100000e-01    2.040000e+00
 SP3dh  SC4r  1 4.100000e-01    1.910000e+00
 SP3dr  SC4h  1 4.100000e-01    1.910000e+00
 SP3dh  SC3r  1 4.140000e-01    1.560000e+00
 SP3dr  SC3h  1 4.140000e-01    1.560000e+00
 SP3dh  SC2r  1 4.140000e-01    1.560000e+00
 SP3dr  SC2h  1 4.140000e-01    1.560000e+00
 SP3dh  SC1r  1 4.180000e-01    1.400000e+00
 SP3dr  SC1h  1 4.180000e-01    1.400000e+00
 SP3dh  SX4r  1 4.100000e-01    2.200000e+00
 SP3dr  SX4h  1 4.100000e-01    2.200000e+00
 SP3dh  SX3r  1 4.100000e-01    2.200000e+00
 SP3dr  SX3h  1 4.100000e-01    2.200000e+00
 SP3dh  SX2r  1 4.100000e-01    2.040000e+00
 SP3dr  SX2h  1 4.100000e-01    2.040000e+00
 SP3dh  SX1r  1 4.100000e-01    1.910000e+00
 SP3dr  SX1h  1 4.100000e-01    1.910000e+00
 SP2dh  SC6r  1 4.100000e-01    2.200000e+00
 SP2dr  SC6h  1 4.100000e-01    2.200000e+00
 SP2dh  SC5r  1 4.100000e-01    2.040000e+00
 SP2dr  SC5h  1 4.100000e-01    2.040000e+00
 SP2dh  SC4r  1 4.100000e-01    1.910000e+00
 SP2dr  SC4h  1 4.100000e-01    1.910000e+00
 SP2dh  SC3r  1 4.100000e-01    1.750000e+00
 SP2dr  SC3h  1 4.100000e-01    1.750000e+00
 SP2dh  SC2r  1 4.100000e-01    1.750000e+00
 SP2dr  SC2h  1 4.100000e-01    1.750000e+00
 SP2dh  SC1r  1 4.140000e-01    1.560000e+00
 SP2dr  SC1h  1 4.140000e-01    1.560000e+00
 SP2dh  SX4r  1 4.100000e-01    2.200000e+00
 SP2dr  SX4h  1 4.100000e-01    2.200000e+00
 SP2dh  SX3r  1 4.100000e-01    2.200000e+00
 SP2dr  SX3h  1 4.100000e-01    2.200000e+00
 SP2dh  SX2r  1 4.100000e-01    2.040000e+00
 SP2dr  SX2h  1 4.100000e-01    2.040000e+00
 SP2dh  SX1r  1 4.100000e-01    1.910000e+00
 SP2dr  SX1h  1 4.100000e-01    1.910000e+00
 SP1dh  SC6r  1 4.100000e-01    2.200000e+00
 SP1dr  SC6h  1 4.100000e-01    2.200000e+00
 SP1dh  SC5r  1 4.100000e-01    2.040000e+00
 SP1dr  SC5h  1 4.100000e-01    2.040000e+00
 SP1dh  SC4r  1 4.100000e-01    1.910000e+00
 SP1dr  SC4h  1 4.100000e-01    1.910000e+00
 SP1dh  SC3r  1 4.100000e-01    1.750000e+00
 SP1dr  SC3h  1 4.100000e-01    1.750000e+00
 SP1dh  SC2r  1 4.100000e-01    1.750000e+00
 SP1dr  SC2h  1 4.100000e-01    1.750000e+00
 SP1dh  SC1r  1 4.140000e-01    1.560000e+00
 SP1dr  SC1h  1 4.140000e-01    1.560000e+00
 SP1dh  SX4r  1 4.100000e-01    2.200000e+00
 SP1dr  SX4h  1 4.100000e-01    2.200000e+00
 SP1dh  SX3r  1 4.100000e-01    2.200000e+00
 SP1dr  SX3h  1 4.100000e-01    2.200000e+00
 SP1dh  SX2r  1 4.100000e-01    2.040000e+00
 SP1dr  SX2h  1 4.100000e-01    2.040000e+00
 SP1dh  SX1r  1 4.100000e-01    1.910000e+00
 SP1dr  SX1h  1 4.100000e-01    1.910000e+00
 SN6dh  SC6r  1 4.100000e-01    2.350000e+00
 SN6dr  SC6h  1 4.100000e-01    2.350000e+00
 SN6dh  SC5r  1 4.100000e-01    2.200000e+00
 SN6dr  SC5h  1 4.100000e-01    2.200000e+00
 SN6dh  SC4r  1 4.100000e-01    2.040000e+00
 SN6dr  SC4h  1 4.100000e-01    2.040000e+00
 SN6dh  SC3r  1 4.100000e-01    1.910000e+00
 SN6dr  SC3h  1 4.100000e-01    1.910000e+00
 SN6dh  SC2r  1 4.100000e-01    1.910000e+00
 SN6dr  SC2h  1 4.100000e-01    1.910000e+00
 SN6dh  SC1r  1 4.100000e-01    1.750000e+00
 SN6dr  SC1h  1 4.100000e-01    1.750000e+00
 SN6dh  SX4r  1 4.100000e-01    2.350000e+00
 SN6dr  SX4h  1 4.100000e-01    2.350000e+00
 SN6dh  SX3r  1 4.100000e-01    2.200000e+00
 SN6dr  SX3h  1 4.100000e-01    2.200000e+00
 SN6dh  SX2r  1 4.100000e-01    2.040000e+00
 SN6dr  SX2h  1 4.100000e-01    2.040000e+00
 SN6dh  SX1r  1 4.100000e-01    1.910000e+00
 SN6dr  SX1h  1 4.100000e-01    1.910000e+00
 SN5dh  SC6r  1 4.100000e-01    2.350000e+00
 SN5dr  SC6h  1 4.100000e-01    2.350000e+00
 SN5dh  SC5r  1 4.100000e-01    2.200000e+00
 SN5dr  SC5h  1 4.100000e-01    2.200000e+00
 SN5dh  SC4r  1 4.100000e-01    2.040000e+00
 SN5dr  SC4h  1 4.100000e-01    2.040000e+00
 SN5dh  SC3r  1 4.100000e-01    2.040000e+00
 SN5dr  SC3h  1 4.100000e-01    2.040000e+00
 SN5dh  SC2r  1 4.100000e-01    1.910000e+00
 SN5dr  SC2h  1 4.100000e-01    1.910000e+00
 SN5dh  SC1r  1 4.100000e-01    1.750000e+00
 SN5dr  SC1h  1 4.100000e-01    1.750000e+00
 SN5dh  SX4r  1 4.100000e-01    2.600000e+00
 SN5dr  SX4h  1 4.100000e-01    2.600000e+00
 SN5dh  SX3r  1 4.100000e-01    2.350000e+00
 SN5dr  SX3h  1 4.100000e-01    2.350000e+00
 SN5dh  SX2r  1 4.100000e-01    2.200000e+00
 SN5dr  SX2h  1 4.100000e-01    2.200000e+00
 SN5dh  SX1r  1 4.100000e-01    2.040000e+00
 SN5dr  SX1h  1 4.100000e-01    2.040000e+00
 SN4dh  SC6r  1 4.100000e-01    2.350000e+00
 SN4dr  SC6h  1 4.100000e-01    2.350000e+00
 SN4dh  SC5r  1 4.100000e-01    2.200000e+00
 SN4dr  SC5h  1 4.100000e-01    2.200000e+00
 SN4dh  SC4r  1 4.100000e-01    2.200000e+00
 SN4dr  SC4h  1 4.100000e-01    2.200000e+00
 SN4dh  SC3r  1 4.100000e-01    2.040000e+00
 SN4dr  SC3h  1 4.100000e-01    2.040000e+00
 SN4dh  SC2r  1 4.100000e-01    1.910000e+00
 SN4dr  SC2h  1 4.100000e-01    1.910000e+00
 SN4dh  SC1r  1 4.100000e-01    1.750000e+00
 SN4dr  SC1h  1 4.100000e-01    1.750000e+00
 SN4dh  SX4r  1 4.100000e-01    2.840000e+00
 SN4dr  SX4h  1 4.100000e-01    2.840000e+00
 SN4dh  SX3r  1 4.100000e-01    2.600000e+00
 SN4dr  SX3h  1 4.100000e-01    2.600000e+00
 SN4dh  SX2r  1 4.100000e-01    2.200000e+00
 SN4dr  SX2h  1 4.100000e-01    2.200000e+00
 SN4dh  SX1r  1 4.100000e-01    2.040000e+00
 SN4dr  SX1h  1 4.100000e-01    2.040000e+00
 SN3dh  SC6r  1 4.100000e-01    2.350000e+00
 SN3dr  SC6h  1 4.100000e-01    2.350000e+00
 SN3dh  SC5r  1 4.100000e-01    2.200000e+00
 SN3dr  SC5h  1 4.100000e-01    2.200000e+00
 SN3dh  SC4r  1 4.100000e-01    2.200000e+00
 SN3dr  SC4h  1 4.100000e-01    2.200000e+00
 SN3dh  SC3r  1 4.100000e-01    2.040000e+00
 SN3dr  SC3h  1 4.100000e-01    2.040000e+00
 SN3dh  SC2r  1 4.100000e-01    2.040000e+00
 SN3dr  SC2h  1 4.100000e-01    2.040000e+00
 SN3dh  SC1r  1 4.100000e-01    1.910000e+00
 SN3dr  SC1h  1 4.100000e-01    1.910000e+00
 SN3dh  SX4r  1 4.100000e-01    2.600000e+00
 SN3dr  SX4h  1 4.100000e-01    2.600000e+00
 SN3dh  SX3r  1 4.100000e-01    2.350000e+00
 SN3dr  SX3h  1 4.100000e-01    2.350000e+00
 SN3dh  SX2r  1 4.100000e-01    2.200000e+00
 SN3dr  SX2h  1 4.100000e-01    2.200000e+00
 SN3dh  SX1r  1 4.100000e-01    2.200000e+00
 SN3dr  SX1h  1 4.100000e-01    2.200000e+00
 SN2dh  SC6r  1 4.100000e-01    2.350000e+00
 SN2dr  SC6h  1 4.100000e-01    2.350000e+00
 SN2dh  SC5r  1 4.100000e-01    2.200000e+00
 SN2dr  SC5h  1 4.100000e-01    2.200000e+00
 SN2dh  SC4r  1 4.100000e-01    2.200000e+00
 SN2dr  SC4h  1 4.100000e-01    2.200000e+00
 SN2dh  SC3r  1 4.100000e-01    2.200000e+00
 SN2dr  SC3h  1 4.100000e-01    2.200000e+00
 SN2dh  SC2r  1 4.100000e-01    2.040000e+00
 SN2dr  SC2h  1 4.100000e-01    2.040000e+00
 SN2dh  SC1r  1 4.100000e-01    1.910000e+00
 SN2dr  SC1h  1 4.100000e-01    1.910000e+00
 SN2dh  SX4r  1 4.100000e-01    2.600000e+00
 SN2dr  SX4h  1 4.100000e-01    2.600000e+00
 SN2dh  SX3r  1 4.100000e-01    2.350000e+00
 SN2dr  SX3h  1 4.100000e-01    2.350000e+00
 SN2dh  SX2r  1 4.100000e-01    2.200000e+00
 SN2dr  SX2h  1 4.100000e-01    2.200000e+00
 SN2dh  SX1r  1 4.100000e-01    2.200000e+00
 SN2dr  SX1h  1 4.100000e-01    2.200000e+00
 SN1dh  SC6r  1 4.100000e-01    2.600000e+00
 SN1dr  SC6h  1 4.100000e-01    2.600000e+00
 SN1dh  SC5r  1 4.100000e-01    2.350000e+00
 SN1dr  SC5h  1 4.100000e-01    2.350000e+00
 SN1dh  SC4r  1 4.100000e-01    2.350000e+00
 SN1dr  SC4h  1 4.100000e-01    2.350000e+00
 SN1dh  SC3r  1 4.100000e-01    2.200000e+00
 SN1dr  SC3h  1 4.100000e-01    2.200000e+00
 SN1dh  SC2r  1 4.100000e-01    2.040000e+00
 SN1dr  SC2h  1 4.100000e-01    2.040000e+00
 SN1dh  SC1r  1 4.100000e-01    1.910000e+00
 SN1dr  SC1h  1 4.100000e-01    1.910000e+00
 SN1dh  SX4r  1 4.100000e-01    2.350000e+00
 SN1dr  SX4h  1 4.100000e-01    2.350000e+00
 SN1dh  SX3r  1 4.100000e-01    2.350000e+00
 SN1dr  SX3h  1 4.100000e-01    2.350000e+00
 SN1dh  SX2r  1 4.100000e-01    2.200000e+00
 SN1dr  SX2h  1 4.100000e-01    2.200000e+00
 SN1dh  SX1r  1 4.100000e-01    2.200000e+00
 SN1dr  SX1h  1 4.100000e-01    2.200000e+00
 SP6ah  SC6r  1 4.100000e-01    1.910000e+00
 SP6ar  SC6h  1 4.100000e-01    1.910000e+00
 SP6ah  SC5r  1 4.100000e-01    1.750000e+00
 SP6ar  SC5h  1 4.100000e-01    1.750000e+00
 SP6ah  SC4r  1 4.140000e-01    1.560000e+00
 SP6ar  SC4h  1 4.140000e-01    1.560000e+00
 SP6ah  SC3r  1 4.180000e-01    1.400000e+00
 SP6ar  SC3h  1 4.180000e-01    1.400000e+00
 SP6ah  SC2r  1 4.180000e-01    1.400000e+00
 SP6ar  SC2h  1 4.180000e-01    1.400000e+00
 SP6ah  SC1r  1 4.530000e-01    1.150000e+00
 SP6ar  SC1h  1 4.530000e-01    1.150000e+00
 SP6ah  SX4r  1 4.100000e-01    2.040000e+00
 SP6ar  SX4h  1 4.100000e-01    2.040000e+00
 SP6ah  SX3r  1 4.100000e-01    2.040000e+00
 SP6ar  SX3h  1 4.100000e-01    2.040000e+00
 SP6ah  SX2r  1 4.100000e-01    1.910000e+00
 SP6ar  SX2h  1 4.100000e-01    1.910000e+00
 SP6ah  SX1r  1 4.100000e-01    1.750000e+00
 SP6ar  SX1h  1 4.100000e-01    1.750000e+00
 SP5ah  SC6r  1 4.100000e-01    1.910000e+00
 SP5ar  SC6h  1 4.100000e-01    1.910000e+00
 SP5ah  SC5r  1 4.100000e-01    1.910000e+00
 SP5ar  SC5h  1 4.100000e-01    1.910000e+00
 SP5ah  SC4r  1 4.100000e-01    1.750000e+00
 SP5ar  SC4h  1 4.100000e-01    1.750000e+00
 SP5ah  SC3r  1 4.140000e-01    1.560000e+00
 SP5ar  SC3h  1 4.140000e-01    1.560000e+00
 SP5ah  SC2r  1 4.140000e-01    1.560000e+00
 SP5ar  SC2h  1 4.140000e-01    1.560000e+00
 SP5ah  SC1r  1 4.180000e-01    1.400000e+00
 SP5ar  SC1h  1 4.180000e-01    1.400000e+00
 SP5ah  SX4r  1 4.100000e-01    2.200000e+00
 SP5ar  SX4h  1 4.100000e-01    2.200000e+00
 SP5ah  SX3r  1 4.100000e-01    2.040000e+00
 SP5ar  SX3h  1 4.100000e-01    2.040000e+00
 SP5ah  SX2r  1 4.100000e-01    2.040000e+00
 SP5ar  SX2h  1 4.100000e-01    2.040000e+00
 SP5ah  SX1r  1 4.100000e-01    1.750000e+00
 SP5ar  SX1h  1 4.100000e-01    1.750000e+00
 SP4ah  SC6r  1 4.100000e-01    2.040000e+00
 SP4ar  SC6h  1 4.100000e-01    2.040000e+00
 SP4ah  SC5r  1 4.100000e-01    1.910000e+00
 SP4ar  SC5h  1 4.100000e-01    1.910000e+00
 SP4ah  SC4r  1 4.100000e-01    1.750000e+00
 SP4ar  SC4h  1 4.100000e-01    1.750000e+00
 SP4ah  SC3r  1 4.140000e-01    1.560000e+00
 SP4ar  SC3h  1 4.140000e-01    1.560000e+00
 SP4ah  SC2r  1 4.140000e-01    1.560000e+00
 SP4ar  SC2h  1 4.140000e-01    1.560000e+00
 SP4ah  SC1r  1 4.180000e-01    1.400000e+00
 SP4ar  SC1h  1 4.180000e-01    1.400000e+00
 SP4ah  SX4r  1 4.100000e-01    2.200000e+00
 SP4ar  SX4h  1 4.100000e-01    2.200000e+00
 SP4ah  SX3r  1 4.100000e-01    2.040000e+00
 SP4ar  SX3h  1 4.100000e-01    2.040000e+00
 SP4ah  SX2r  1 4.100000e-01    2.040000e+00
 SP4ar  SX2h  1 4.100000e-01    2.040000e+00
 SP4ah  SX1r  1 4.100000e-01    1.910000e+00
 SP4ar  SX1h  1 4.100000e-01    1.910000e+00
 SP3ah  SC6r  1 4.100000e-01    2.200000e+00
 SP3ar  SC6h  1 4.100000e-01    2.200000e+00
 SP3ah  SC5r  1 4.100000e-01    2.040000e+00
 SP3ar  SC5h  1 4.100000e-01    2.040000e+00
 SP3ah  SC4r  1 4.100000e-01    1.910000e+00
 SP3ar  SC4h  1 4.100000e-01    1.910000e+00
 SP3ah  SC3r  1 4.140000e-01    1.560000e+00
 SP3ar  SC3h  1 4.140000e-01    1.560000e+00
 SP3ah  SC2r  1 4.140000e-01    1.560000e+00
 SP3ar  SC2h  1 4.140000e-01    1.560000e+00
 SP3ah  SC1r  1 4.180000e-01    1.400000e+00
 SP3ar  SC1h  1 4.180000e-01    1.400000e+00
 SP3ah  SX4r  1 4.100000e-01    2.200000e+00
 SP3ar  SX4h  1 4.100000e-01    2.200000e+00
 SP3ah  SX3r  1 4.100000e-01    2.200000e+00
 SP3ar  SX3h  1 4.100000e-01    2.200000e+00
 SP3ah  SX2r  1 4.100000e-01    2.040000e+00
 SP3ar  SX2h  1 4.100000e-01    2.040000e+00
 SP3ah  SX1r  1 4.100000e-01    1.910000e+00
 SP3ar  SX1h  1 4.100000e-01    1.910000e+00
 SP2ah  SC6r  1 4.100000e-01    2.200000e+00
 SP2ar  SC6h  1 4.100000e-01    2.200000e+00
 SP2ah  SC5r  1 4.100000e-01    2.040000e+00
 SP2ar  SC5h  1 4.100000e-01    2.040000e+00
 SP2ah  SC4r  1 4.100000e-01    1.910000e+00
 SP2ar  SC4h  1 4.100000e-01    1.910000e+00
 SP2ah  SC3r  1 4.100000e-01    1.750000e+00
 SP2ar  SC3h  1 4.100000e-01    1.750000e+00
 SP2ah  SC2r  1 4.100000e-01    1.750000e+00
 SP2ar  SC2h  1 4.100000e-01    1.750000e+00
 SP2ah  SC1r  1 4.140000e-01    1.560000e+00
 SP2ar  SC1h  1 4.140000e-01    1.560000e+00
 SP2ah  SX4r  1 4.100000e-01    2.200000e+00
 SP2ar  SX4h  1 4.100000e-01    2.200000e+00
 SP2ah  SX3r  1 4.100000e-01    2.200000e+00
 SP2ar  SX3h  1 4.100000e-01    2.200000e+00
 SP2ah  SX2r  1 4.100000e-01    2.040000e+00
 SP2ar  SX2h  1 4.100000e-01    2.040000e+00
 SP2ah  SX1r  1 4.100000e-01    1.910000e+00
 SP2ar  SX1h  1 4.100000e-01    1.910000e+00
 SP1ah  SC6r  1 4.100000e-01    2.200000e+00
 SP1ar  SC6h  1 4.100000e-01    2.200000e+00
 SP1ah  SC5r  1 4.100000e-01    2.040000e+00
 SP1ar  SC5h  1 4.100000e-01    2.040000e+00
 SP1ah  SC4r  1 4.100000e-01    1.910000e+00
 SP1ar  SC4h  1 4.100000e-01    1.910000e+00
 SP1ah  SC3r  1 4.100000e-01    1.750000e+00
 SP1ar  SC3h  1 4.100000e-01    1.750000e+00
 SP1ah  SC2r  1 4.100000e-01    1.750000e+00
 SP1ar  SC2h  1 4.100000e-01    1.750000e+00
 SP1ah  SC1r  1 4.140000e-01    1.560000e+00
 SP1ar  SC1h  1 4.140000e-01    1.560000e+00
 SP1ah  SX4r  1 4.100000e-01    2.200000e+00
 SP1ar  SX4h  1 4.100000e-01    2.200000e+00
 SP1ah  SX3r  1 4.100000e-01    2.200000e+00
 SP1ar  SX3h  1 4.100000e-01    2.200000e+00
 SP1ah  SX2r  1 4.100000e-01    2.040000e+00
 SP1ar  SX2h  1 4.100000e-01    2.040000e+00
 SP1ah  SX1r  1 4.100000e-01    1.910000e+00
 SP1ar  SX1h  1 4.100000e-01    1.910000e+00
 SN6ah  SC6r  1 4.100000e-01    2.350000e+00
 SN6ar  SC6h  1 4.100000e-01    2.350000e+00
 SN6ah  SC5r  1 4.100000e-01    2.200000e+00
 SN6ar  SC5h  1 4.100000e-01    2.200000e+00
 SN6ah  SC4r  1 4.100000e-01    2.040000e+00
 SN6ar  SC4h  1 4.100000e-01    2.040000e+00
 SN6ah  SC3r  1 4.100000e-01    1.910000e+00
 SN6ar  SC3h  1 4.100000e-01    1.910000e+00
 SN6ah  SC2r  1 4.100000e-01    1.910000e+00
 SN6ar  SC2h  1 4.100000e-01    1.910000e+00
 SN6ah  SC1r  1 4.100000e-01    1.750000e+00
 SN6ar  SC1h  1 4.100000e-01    1.750000e+00
 SN6ah  SX4r  1 4.100000e-01    2.350000e+00
 SN6ar  SX4h  1 4.100000e-01    2.350000e+00
 SN6ah  SX3r  1 4.100000e-01    2.200000e+00
 SN6ar  SX3h  1 4.100000e-01    2.200000e+00
 SN6ah  SX2r  1 4.100000e-01    2.040000e+00
 SN6ar  SX2h  1 4.100000e-01    2.040000e+00
 SN6ah  SX1r  1 4.100000e-01    1.910000e+00
 SN6ar  SX1h  1 4.100000e-01    1.910000e+00
 SN5ah  SC6r  1 4.100000e-01    2.350000e+00
 SN5ar  SC6h  1 4.100000e-01    2.350000e+00
 SN5ah  SC5r  1 4.100000e-01    2.200000e+00
 SN5ar  SC5h  1 4.100000e-01    2.200000e+00
 SN5ah  SC4r  1 4.100000e-01    2.040000e+00
 SN5ar  SC4h  1 4.100000e-01    2.040000e+00
 SN5ah  SC3r  1 4.100000e-01    2.040000e+00
 SN5ar  SC3h  1 4.100000e-01    2.040000e+00
 SN5ah  SC2r  1 4.100000e-01    1.910000e+00
 SN5ar  SC2h  1 4.100000e-01    1.910000e+00
 SN5ah  SC1r  1 4.100000e-01    1.750000e+00
 SN5ar  SC1h  1 4.100000e-01    1.750000e+00
 SN5ah  SX4r  1 4.100000e-01    2.600000e+00
 SN5ar  SX4h  1 4.100000e-01    2.600000e+00
 SN5ah  SX3r  1 4.100000e-01    2.350000e+00
 SN5ar  SX3h  1 4.100000e-01    2.350000e+00
 SN5ah  SX2r  1 4.100000e-01    2.200000e+00
 SN5ar  SX2h  1 4.100000e-01    2.200000e+00
 SN5ah  SX1r  1 4.100000e-01    2.040000e+00
 SN5ar  SX1h  1 4.100000e-01    2.040000e+00
 SN4ah  SC6r  1 4.100000e-01    2.350000e+00
 SN4ar  SC6h  1 4.100000e-01    2.350000e+00
 SN4ah  SC5r  1 4.100000e-01    2.200000e+00
 SN4ar  SC5h  1 4.100000e-01    2.200000e+00
 SN4ah  SC4r  1 4.100000e-01    2.200000e+00
 SN4ar  SC4h  1 4.100000e-01    2.200000e+00
 SN4ah  SC3r  1 4.100000e-01    2.040000e+00
 SN4ar  SC3h  1 4.100000e-01    2.040000e+00
 SN4ah  SC2r  1 4.100000e-01    1.910000e+00
 SN4ar  SC2h  1 4.100000e-01    1.910000e+00
 SN4ah  SC1r  1 4.100000e-01    1.750000e+00
 SN4ar  SC1h  1 4.100000e-01    1.750000e+00
 SN4ah  SX4r  1 4.100000e-01    2.840000e+00
 SN4ar  SX4h  1 4.100000e-01    2.840000e+00
 SN4ah  SX3r  1 4.100000e-01    2.600000e+00
 SN4ar  SX3h  1 4.100000e-01    2.600000e+00
 SN4ah  SX2r  1 4.100000e-01    2.200000e+00
 SN4ar  SX2h  1 4.100000e-01    2.200000e+00
 SN4ah  SX1r  1 4.100000e-01    2.040000e+00
 SN4ar  SX1h  1 4.100000e-01    2.040000e+00
 SN3ah  SC6r  1 4.100000e-01    2.350000e+00
 SN3ar  SC6h  1 4.100000e-01    2.350000e+00
 SN3ah  SC5r  1 4.100000e-01    2.200000e+00
 SN3ar  SC5h  1 4.100000e-01    2.200000e+00
 SN3ah  SC4r  1 4.100000e-01    2.200000e+00
 SN3ar  SC4h  1 4.100000e-01    2.200000e+00
 SN3ah  SC3r  1 4.100000e-01    2.040000e+00
 SN3ar  SC3h  1 4.100000e-01    2.040000e+00
 SN3ah  SC2r  1 4.100000e-01    2.040000e+00
 SN3ar  SC2h  1 4.100000e-01    2.040000e+00
 SN3ah  SC1r  1 4.100000e-01    1.910000e+00
 SN3ar  SC1h  1 4.100000e-01    1.910000e+00
 SN3ah  SX4r  1 4.100000e-01    2.600000e+00
 SN3ar  SX4h  1 4.100000e-01    2.600000e+00
 SN3ah  SX3r  1 4.100000e-01    2.350000e+00
 SN3ar  SX3h  1 4.100000e-01    2.350000e+00
 SN3ah  SX2r  1 4.100000e-01    2.200000e+00
 SN3ar  SX2h  1 4.100000e-01    2.200000e+00
 SN3ah  SX1r  1 4.100000e-01    2.200000e+00
 SN3ar  SX1h  1 4.100000e-01    2.200000e+00
 SN2ah  SC6r  1 4.100000e-01    2.350000e+00
 SN2ar  SC6h  1 4.100000e-01    2.350000e+00
 SN2ah  SC5r  1 4.100000e-01    2.200000e+00
 SN2ar  SC5h  1 4.100000e-01    2.200000e+00
 SN2ah  SC4r  1 4.100000e-01    2.200000e+00
 SN2ar  SC4h  1 4.100000e-01    2.200000e+00
 SN2ah  SC3r  1 4.100000e-01    2.200000e+00
 SN2ar  SC3h  1 4.100000e-01    2.200000e+00
 SN2ah  SC2r  1 4.100000e-01    2.040000e+00
 SN2ar  SC2h  1 4.100000e-01    2.040000e+00
 SN2ah  SC1r  1 4.100000e-01    1.910000e+00
 SN2ar  SC1h  1 4.100000e-01    1.910000e+00
 SN2ah  SX4r  1 4.100000e-01    2.600000e+00
 SN2ar  SX4h  1 4.100000e-01    2.600000e+00
 SN2ah  SX3r  1 4.100000e-01    2.350000e+00
 SN2ar  SX3h  1 4.100000e-01    2.350000e+00
 SN2ah  SX2r  1 4.100000e-01    2.200000e+00
 SN2ar  SX2h  1 4.100000e-01    2.200000e+00
 SN2ah  SX1r  1 4.100000e-01    2.200000e+00
 SN2ar  SX1h  1 4.100000e-01    2.200000e+00
 SN1ah  SC6r  1 4.100000e-01    2.600000e+00
 SN1ar  SC6h  1 4.100000e-01    2.600000e+00
 SN1ah  SC5r  1 4.100000e-01    2.350000e+00
 SN1ar  SC5h  1 4.100000e-01    2.350000e+00
 SN1ah  SC4r  1 4.100000e-01    2.350000e+00
 SN1ar  SC4h  1 4.100000e-01    2.350000e+00
 SN1ah  SC3r  1 4.100000e-01    2.200000e+00
 SN1ar  SC3h  1 4.100000e-01    2.200000e+00
 SN1ah  SC2r  1 4.100000e-01    2.040000e+00
 SN1ar  SC2h  1 4.100000e-01    2.040000e+00
 SN1ah  SC1r  1 4.100000e-01    1.910000e+00
 SN1ar  SC1h  1 4.100000e-01    1.910000e+00
 SN1ah  SX4r  1 4.100000e-01    2.350000e+00
 SN1ar  SX4h  1 4.100000e-01    2.350000e+00
 SN1ah  SX3r  1 4.100000e-01    2.350000e+00
 SN1ar  SX3h  1 4.100000e-01    2.350000e+00
 SN1ah  SX2r  1 4.100000e-01    2.200000e+00
 SN1ar  SX2h  1 4.100000e-01    2.200000e+00
 SN1ah  SX1r  1 4.100000e-01    2.200000e+00
 SN1ar  SX1h  1 4.100000e-01    2.200000e+00
  SP6d TP6dq  1 3.650000e-01    4.220000e+00
  SP5d TP5dq  1 3.650000e-01    3.640000e+00
  SP6a TP5dq  1 3.650000e-01    4.510000e+00
  SP4d TP4dq  1 3.650000e-01    3.370000e+00
  SP6a TP4dq  1 3.650000e-01    4.220000e+00
  SP5a TP4dq  1 3.650000e-01    3.930000e+00
  SP3d TP3dq  1 3.650000e-01    3.100000e+00
  SP6a TP3dq  1 3.650000e-01    3.930000e+00
  SP5a TP3dq  1 3.650000e-01    3.640000e+00
  SP4a TP3dq  1 3.650000e-01    3.640000e+00
  SP2d TP2dq  1 3.650000e-01    3.100000e+00
  SP6a TP2dq  1 3.650000e-01    3.930000e+00
  SP5a TP2dq  1 3.650000e-01    3.640000e+00
  SP4a TP2dq  1 3.650000e-01    3.640000e+00
  SP3a TP2dq  1 3.650000e-01    3.640000e+00
  SP1d TP1dq  1 3.650000e-01    2.830000e+00
  SP6a TP1dq  1 3.650000e-01    3.640000e+00
  SP5a TP1dq  1 3.650000e-01    3.370000e+00
  SP4a TP1dq  1 3.650000e-01    3.370000e+00
  SP3a TP1dq  1 3.650000e-01    3.370000e+00
  SP2a TP1dq  1 3.650000e-01    3.370000e+00
  SN6d TN6dq  1 3.650000e-01    2.830000e+00
  SP6a TN6dq  1 3.650000e-01    3.370000e+00
  SP5a TN6dq  1 3.650000e-01    3.100000e+00
  SP4a TN6dq  1 3.650000e-01    3.100000e+00
  SP3a TN6dq  1 3.650000e-01    3.100000e+00
  SP2a TN6dq  1 3.650000e-01    3.370000e+00
  SP1a TN6dq  1 3.650000e-01    3.370000e+00
  SN5d TN5dq  1 3.650000e-01    2.570000e+00
  SP6a TN5dq  1 3.650000e-01    2.830000e+00
  SP5a TN5dq  1 3.650000e-01    2.830000e+00
  SP4a TN5dq  1 3.650000e-01    2.830000e+00
  SP3a TN5dq  1 3.650000e-01    2.830000e+00
  SP2a TN5dq  1 3.650000e-01    3.100000e+00
  SP1a TN5dq  1 3.650000e-01    3.100000e+00
  SN6a TN5dq  1 3.650000e-01    3.370000e+00
  SN4d TN4dq  1 3.650000e-01    2.570000e+00
  SP6a TN4dq  1 3.650000e-01    2.570000e+00
  SP5a TN4dq  1 3.650000e-01    2.830000e+00
  SP4a TN4dq  1 3.650000e-01    2.830000e+00
  SP3a TN4dq  1 3.650000e-01    2.830000e+00
  SP2a TN4dq  1 3.650000e-01    2.830000e+00
  SP1a TN4dq  1 3.650000e-01    3.100000e+00
  SN6a TN4dq  1 3.650000e-01    3.370000e+00
  SN5a TN4dq  1 3.650000e-01    3.100000e+00
  SN3d TN3dq  1 3.650000e-01    2.340000e+00
  SP6a TN3dq  1 3.650000e-01    2.110000e+00
  SP5a TN3dq  1 3.650000e-01    2.110000e+00
  SP4a TN3dq  1 3.650000e-01    2.570000e+00
  SP3a TN3dq  1 3.650000e-01    2.570000e+00
  SP2a TN3dq  1 3.650000e-01    2.570000e+00
  SP1a TN3dq  1 3.650000e-01    2.570000e+00
  SN6a TN3dq  1 3.650000e-01    2.830000e+00
  SN5a TN3dq  1 3.650000e-01    2.830000e+00
  SN4a TN3dq  1 3.650000e-01    2.830000e+00
  SN2d TN2dq  1 3.650000e-01    2.340000e+00
  SP6a TN2dq  1 3.650000e-01    1.910000e+00
  SP5a TN2dq  1 3.650000e-01    1.910000e+00
  SP4a TN2dq  1 3.650000e-01    2.110000e+00
  SP3a TN2dq  1 3.650000e-01    2.570000e+00
  SP2a TN2dq  1 3.650000e-01    2.570000e+00
  SP1a TN2dq  1 3.650000e-01    2.570000e+00
  SN6a TN2dq  1 3.650000e-01    2.570000e+00
  SN5a TN2dq  1 3.650000e-01    2.830000e+00
  SN4a TN2dq  1 3.650000e-01    2.830000e+00
  SN3a TN2dq  1 3.650000e-01    2.830000e+00
  SN1d TN1dq  1 3.650000e-01    2.340000e+00
  SP6a TN1dq  1 3.650000e-01    1.750000e+00
  SP5a TN1dq  1 3.650000e-01    1.750000e+00
  SP4a TN1dq  1 3.650000e-01    1.910000e+00
  SP3a TN1dq  1 3.650000e-01    2.110000e+00
  SP2a TN1dq  1 3.650000e-01    2.570000e+00
  SP1a TN1dq  1 3.650000e-01    2.570000e+00
  SN6a TN1dq  1 3.650000e-01    2.570000e+00
  SN5a TN1dq  1 3.650000e-01    2.570000e+00
  SN4a TN1dq  1 3.650000e-01    2.570000e+00
  SN3a TN1dq  1 3.650000e-01    2.570000e+00
  SN2a TN1dq  1 3.650000e-01    2.570000e+00
  SP6a TP6aq  1 3.650000e-01    4.220000e+00
  SP5a TP5aq  1 3.650000e-01    3.640000e+00
  SP4a TP4aq  1 3.650000e-01    3.370000e+00
  SP3a TP3aq  1 3.650000e-01    3.100000e+00
  SP2a TP2aq  1 3.650000e-01    3.100000e+00
  SP1a TP1aq  1 3.650000e-01    2.830000e+00
  SN6a TN6aq  1 3.650000e-01    2.830000e+00
  SN5a TN5aq  1 3.650000e-01    2.570000e+00
  SN4a TN4aq  1 3.650000e-01    2.570000e+00
  SN3a TN3aq  1 3.650000e-01    2.340000e+00
  SN2a TN2aq  1 3.650000e-01    2.340000e+00
  SN1a TN1aq  1 3.650000e-01    2.340000e+00
  SC6v TC6vq  1 3.650000e-01    2.340000e+00
  SC5v TC5vq  1 3.650000e-01    2.110000e+00
  SC6e TC5vq  1 3.650000e-01    2.830000e+00
  SC4v TC4vq  1 3.650000e-01    2.110000e+00
  SC6e TC4vq  1 3.650000e-01    2.830000e+00
  SC5e TC4vq  1 3.650000e-01    2.830000e+00
  SC3v TC3vq  1 3.650000e-01    2.110000e+00
  SC6e TC3vq  1 3.650000e-01    2.570000e+00
  SC5e TC3vq  1 3.650000e-01    2.570000e+00
  SC4e TC3vq  1 3.650000e-01    2.830000e+00
  SC2v TC2vq  1 3.650000e-01    2.110000e+00
  SC6e TC2vq  1 3.650000e-01    2.340000e+00
  SC5e TC2vq  1 3.650000e-01    2.340000e+00
  SC4e TC2vq  1 3.650000e-01    2.570000e+00
  SC3e TC2vq  1 3.650000e-01    2.830000e+00
  SC1v TC1vq  1 3.650000e-01    2.110000e+00
  SC6e TC1vq  1 3.650000e-01    2.110000e+00
  SC5e TC1vq  1 3.650000e-01    2.340000e+00
  SC4e TC1vq  1 3.650000e-01    2.340000e+00
  SC3e TC1vq  1 3.650000e-01    2.830000e+00
  SC2e TC1vq  1 3.650000e-01    3.100000e+00
  SX4v TX4vq  1 3.650000e-01    2.110000e+00
  SC6e TX4vq  1 3.650000e-01    2.830000e+00
  SC5e TX4vq  1 3.650000e-01    2.570000e+00
  SC4e TX4vq  1 3.650000e-01    2.570000e+00
  SC3e TX4vq  1 3.650000e-01    2.570000e+00
  SC2e TX4vq  1 3.650000e-01    2.110000e+00
  SC1e TX4vq  1 3.650000e-01    2.110000e+00
  SX3v TX3vq  1 3.650000e-01    2.110000e+00
  SC6e TX3vq  1 3.650000e-01    2.830000e+00
  SC5e TX3vq  1 3.650000e-01    2.570000e+00
  SC4e TX3vq  1 3.650000e-01    2.570000e+00
  SC3e TX3vq  1 3.650000e-01    2.570000e+00
  SC2e TX3vq  1 3.650000e-01    2.570000e+00
  SC1e TX3vq  1 3.650000e-01    2.570000e+00
  SX4e TX3vq  1 3.650000e-01    2.830000e+00
  SX2v TX2vq  1 3.650000e-01    2.340000e+00
  SC6e TX2vq  1 3.650000e-01    2.830000e+00
  SC5e TX2vq  1 3.650000e-01    2.570000e+00
  SC4e TX2vq  1 3.650000e-01    2.570000e+00
  SC3e TX2vq  1 3.650000e-01    2.570000e+00
  SC2e TX2vq  1 3.650000e-01    2.570000e+00
  SC1e TX2vq  1 3.650000e-01    2.570000e+00
  SX4e TX2vq  1 3.650000e-01    2.830000e+00
  SX3e TX2vq  1 3.650000e-01    3.100000e+00
  SX1v TX1vq  1 3.650000e-01    2.570000e+00
  SC6e TX1vq  1 3.650000e-01    2.830000e+00
  SC5e TX1vq  1 3.650000e-01    2.830000e+00
  SC4e TX1vq  1 3.650000e-01    2.830000e+00
  SC3e TX1vq  1 3.650000e-01    2.830000e+00
  SC2e TX1vq  1 3.650000e-01    2.570000e+00
  SC1e TX1vq  1 3.650000e-01    2.570000e+00
  SX4e TX1vq  1 3.650000e-01    2.830000e+00
  SX3e TX1vq  1 3.650000e-01    3.100000e+00
  SX2e TX1vq  1 3.650000e-01    3.100000e+00
  SC6e TC6eq  1 3.650000e-01    2.340000e+00
  SC5e TC5eq  1 3.650000e-01    2.110000e+00
  SC4e TC4eq  1 3.650000e-01    2.110000e+00
  SC3e TC3eq  1 3.650000e-01    2.110000e+00
  SC2e TC2eq  1 3.650000e-01    2.110000e+00
  SC1e TC1eq  1 3.650000e-01    2.110000e+00
  SX4e TX4eq  1 3.650000e-01    2.110000e+00
  SX3e TX3eq  1 3.650000e-01    2.110000e+00
  SX2e TX2eq  1 3.650000e-01    2.340000e+00
  SX1e TX1eq  1 3.650000e-01    2.570000e+00
  SC6e TX1eq  1 3.650000e-01    2.110000e+00
  SC5e TX1eq  1 3.650000e-01    2.110000e+00
  SC4e TX1eq  1 3.650000e-01    2.110000e+00
  SC3e TX1eq  1 3.650000e-01    2.110000e+00
  SC2e TX1eq  1 3.650000e-01    1.910000e+00
  SC1e TX1eq  1 3.650000e-01    1.910000e+00
  SX4e TX1eq  1 3.650000e-01    2.110000e+00
  SX3e TX1eq  1 3.650000e-01    2.340000e+00
  SX2e TX1eq  1 3.650000e-01    2.340000e+00
  SC6v TX1eq  1 3.650000e-01    2.830000e+00
  SC5v TX1eq  1 3.650000e-01    2.830000e+00
  SC4v TX1eq  1 3.650000e-01    2.830000e+00
  SC3v TX1eq  1 3.650000e-01    2.830000e+00
  SC2v TX1eq  1 3.650000e-01    2.570000e+00
  SC1v TX1eq  1 3.650000e-01    2.570000e+00
  SX4v TX1eq  1 3.650000e-01    2.830000e+00
  SX3v TX1eq  1 3.650000e-01    3.100000e+00
  SX2v TX1eq  1 3.650000e-01    3.100000e+00
  SX1v TX1eq  1 3.650000e-01    3.370000e+00
  SP6d TX1eq  1 3.650000e-01    1.750000e+00
  SP5d TX1eq  1 3.650000e-01    1.750000e+00
  SP4d TX1eq  1 3.650000e-01    1.910000e+00
  SP3d TX1eq  1 3.650000e-01    1.910000e+00
  SP2d TX1eq  1 3.650000e-01    1.910000e+00
  SP1d TX1eq  1 3.650000e-01    1.910000e+00
  SN6d TX1eq  1 3.650000e-01    1.910000e+00
  SN5d TX1eq  1 3.650000e-01    2.110000e+00
  SN4d TX1eq  1 3.650000e-01    2.110000e+00
  SN3d TX1eq  1 3.650000e-01    2.340000e+00
  SN2d TX1eq  1 3.650000e-01    2.340000e+00
  SN1d TX1eq  1 3.650000e-01    2.340000e+00
  SP6a TX1eq  1 3.780000e-01    1.450000e+00
  SP5a TX1eq  1 3.780000e-01    1.450000e+00
  SP4a TX1eq  1 3.660000e-01    1.600000e+00
  SP3a TX1eq  1 3.660000e-01    1.600000e+00
  SP2a TX1eq  1 3.660000e-01    1.600000e+00
  SP1a TX1eq  1 3.660000e-01    1.600000e+00
  SN6a TX1eq  1 3.660000e-01    1.600000e+00
  SN5a TX1eq  1 3.650000e-01    1.750000e+00
  SN4a TX1eq  1 3.650000e-01    1.750000e+00
  SN3a TX1eq  1 3.650000e-01    1.910000e+00
  SN2a TX1eq  1 3.650000e-01    1.910000e+00
  SN1a TX1eq  1 3.650000e-01    1.910000e+00
  SC6e TX2eq  1 3.650000e-01    2.110000e+00
  SC5e TX2eq  1 3.650000e-01    1.910000e+00
  SC4e TX2eq  1 3.650000e-01    1.910000e+00
  SC3e TX2eq  1 3.650000e-01    1.910000e+00
  SC2e TX2eq  1 3.650000e-01    1.910000e+00
  SC1e TX2eq  1 3.650000e-01    1.910000e+00
  SX4e TX2eq  1 3.650000e-01    2.110000e+00
  SX3e TX2eq  1 3.650000e-01    2.340000e+00
  SC6v TX2eq  1 3.650000e-01    2.830000e+00
  SC5v TX2eq  1 3.650000e-01    2.570000e+00
  SC4v TX2eq  1 3.650000e-01    2.570000e+00
  SC3v TX2eq  1 3.650000e-01    2.570000e+00
  SC2v TX2eq  1 3.650000e-01    2.570000e+00
  SC1v TX2eq  1 3.650000e-01    2.570000e+00
  SX4v TX2eq  1 3.650000e-01    2.830000e+00
  SX3v TX2eq  1 3.650000e-01    3.100000e+00
  SX2v TX2eq  1 3.650000e-01    3.100000e+00
  SP6d TX2eq  1 3.650000e-01    1.910000e+00
  SP5d TX2eq  1 3.650000e-01    2.110000e+00
  SP4d TX2eq  1 3.650000e-01    2.110000e+00
  SP3d TX2eq  1 3.650000e-01    2.110000e+00
  SP2d TX2eq  1 3.650000e-01    2.110000e+00
  SP1d TX2eq  1 3.650000e-01    2.110000e+00
  SN6d TX2eq  1 3.650000e-01    2.110000e+00
  SN5d TX2eq  1 3.650000e-01    2.340000e+00
  SN4d TX2eq  1 3.650000e-01    2.340000e+00
  SN3d TX2eq  1 3.650000e-01    2.340000e+00
  SN2d TX2eq  1 3.650000e-01    2.340000e+00
  SN1d TX2eq  1 3.650000e-01    2.340000e+00
  SP6a TX2eq  1 3.660000e-01    1.600000e+00
  SP5a TX2eq  1 3.650000e-01    1.750000e+00
  SP4a TX2eq  1 3.650000e-01    1.750000e+00
  SP3a TX2eq  1 3.650000e-01    1.750000e+00
  SP2a TX2eq  1 3.650000e-01    1.750000e+00
  SP1a TX2eq  1 3.650000e-01    1.750000e+00
  SN6a TX2eq  1 3.650000e-01    1.750000e+00
  SN5a TX2eq  1 3.650000e-01    1.910000e+00
  SN4a TX2eq  1 3.650000e-01    1.910000e+00
  SN3a TX2eq  1 3.650000e-01    1.910000e+00
  SN2a TX2eq  1 3.650000e-01    1.910000e+00
  SN1a TX2eq  1 3.650000e-01    1.910000e+00
  SC6e TX3eq  1 3.650000e-01    2.110000e+00
  SC5e TX3eq  1 3.650000e-01    1.910000e+00
  SC4e TX3eq  1 3.650000e-01    1.910000e+00
  SC3e TX3eq  1 3.650000e-01    1.910000e+00
  SC2e TX3eq  1 3.650000e-01    1.910000e+00
  SC1e TX3eq  1 3.650000e-01    1.910000e+00
  SX4e TX3eq  1 3.650000e-01    2.110000e+00
  SC6v TX3eq  1 3.650000e-01    2.830000e+00
  SC5v TX3eq  1 3.650000e-01    2.570000e+00
  SC4v TX3eq  1 3.650000e-01    2.570000e+00
  SC3v TX3eq  1 3.650000e-01    2.570000e+00
  SC2v TX3eq  1 3.650000e-01    2.570000e+00
  SC1v TX3eq  1 3.650000e-01    2.570000e+00
  SX4v TX3eq  1 3.650000e-01    2.830000e+00
  SX3v TX3eq  1 3.650000e-01    2.830000e+00
  SP6d TX3eq  1 3.650000e-01    2.110000e+00
  SP5d TX3eq  1 3.650000e-01    2.110000e+00
  SP4d TX3eq  1 3.650000e-01    2.110000e+00
  SP3d TX3eq  1 3.650000e-01    2.340000e+00
  SP2d TX3eq  1 3.650000e-01    2.340000e+00
  SP1d TX3eq  1 3.650000e-01    2.340000e+00
  SN6d TX3eq  1 3.650000e-01    2.340000e+00
  SN5d TX3eq  1 3.650000e-01    2.570000e+00
  SN4d TX3eq  1 3.650000e-01    2.830000e+00
  SN3d TX3eq  1 3.650000e-01    2.570000e+00
  SN2d TX3eq  1 3.650000e-01    2.570000e+00
  SN1d TX3eq  1 3.650000e-01    2.570000e+00
  SP6a TX3eq  1 3.650000e-01    1.750000e+00
  SP5a TX3eq  1 3.650000e-01    1.750000e+00
  SP4a TX3eq  1 3.650000e-01    1.750000e+00
  SP3a TX3eq  1 3.650000e-01    1.910000e+00
  SP2a TX3eq  1 3.650000e-01    1.910000e+00
  SP1a TX3eq  1 3.650000e-01    1.910000e+00
  SN6a TX3eq  1 3.650000e-01    1.910000e+00
  SN5a TX3eq  1 3.650000e-01    2.110000e+00
  SN4a TX3eq  1 3.650000e-01    2.340000e+00
  SN3a TX3eq  1 3.650000e-01    2.110000e+00
  SN2a TX3eq  1 3.650000e-01    2.110000e+00
  SN1a TX3eq  1 3.650000e-01    2.110000e+00
  SC6e TX4eq  1 3.650000e-01    2.110000e+00
  SC5e TX4eq  1 3.650000e-01    1.910000e+00
  SC4e TX4eq  1 3.650000e-01    1.910000e+00
  SC3e TX4eq  1 3.650000e-01    1.910000e+00
  SC2e TX4eq  1 3.660000e-01    1.600000e+00
  SC1e TX4eq  1 3.660000e-01    1.600000e+00
  SC6v TX4eq  1 3.650000e-01    2.830000e+00
  SC5v TX4eq  1 3.650000e-01    2.570000e+00
  SC4v TX4eq  1 3.650000e-01    2.570000e+00
  SC3v TX4eq  1 3.650000e-01    2.570000e+00
  SC2v TX4eq  1 3.650000e-01    2.110000e+00
  SC1v TX4eq  1 3.650000e-01    2.110000e+00
  SX4v TX4eq  1 3.650000e-01    2.830000e+00
  SP6d TX4eq  1 3.650000e-01    2.110000e+00
  SP5d TX4eq  1 3.650000e-01    2.340000e+00
  SP4d TX4eq  1 3.650000e-01    2.340000e+00
  SP3d TX4eq  1 3.650000e-01    2.340000e+00
  SP2d TX4eq  1 3.650000e-01    2.340000e+00
  SP1d TX4eq  1 3.650000e-01    2.340000e+00
  SN6d TX4eq  1 3.650000e-01    2.570000e+00
  SN5d TX4eq  1 3.650000e-01    2.830000e+00
  SN4d TX4eq  1 3.650000e-01    3.100000e+00
  SN3d TX4eq  1 3.650000e-01    2.830000e+00
  SN2d TX4eq  1 3.650000e-01    2.830000e+00
  SN1d TX4eq  1 3.650000e-01    2.570000e+00
  SP6a TX4eq  1 3.650000e-01    1.750000e+00
  SP5a TX4eq  1 3.650000e-01    1.910000e+00
  SP4a TX4eq  1 3.650000e-01    1.910000e+00
  SP3a TX4eq  1 3.650000e-01    1.910000e+00
  SP2a TX4eq  1 3.650000e-01    1.910000e+00
  SP1a TX4eq  1 3.650000e-01    1.910000e+00
  SN6a TX4eq  1 3.650000e-01    2.110000e+00
  SN5a TX4eq  1 3.650000e-01    2.340000e+00
  SN4a TX4eq  1 3.650000e-01    2.570000e+00
  SN3a TX4eq  1 3.650000e-01    2.340000e+00
  SN2a TX4eq  1 3.650000e-01    2.340000e+00
  SN1a TX4eq  1 3.650000e-01    2.110000e+00
  SC6e TC1eq  1 3.660000e-01    1.600000e+00
  SC5e TC1eq  1 3.650000e-01    1.750000e+00
  SC4e TC1eq  1 3.650000e-01    1.750000e+00
  SC3e TC1eq  1 3.650000e-01    2.110000e+00
  SC2e TC1eq  1 3.650000e-01    2.340000e+00
  SC6v TC1eq  1 3.650000e-01    2.110000e+00
  SC5v TC1eq  1 3.650000e-01    2.340000e+00
  SC4v TC1eq  1 3.650000e-01    2.340000e+00
  SC3v TC1eq  1 3.650000e-01    2.830000e+00
  SC2v TC1eq  1 3.650000e-01    3.100000e+00
  SC1v TC1eq  1 3.650000e-01    2.830000e+00
  SP6d TC1eq  1 4.040000e-01    1.130000e+00
  SP5d TC1eq  1 3.780000e-01    1.450000e+00
  SP4d TC1eq  1 3.780000e-01    1.450000e+00
  SP3d TC1eq  1 3.780000e-01    1.450000e+00
  SP2d TC1eq  1 3.660000e-01    1.600000e+00
  SP1d TC1eq  1 3.660000e-01    1.600000e+00
  SN6d TC1eq  1 3.650000e-01    1.750000e+00
  SN5d TC1eq  1 3.650000e-01    1.750000e+00
  SN4d TC1eq  1 3.650000e-01    1.750000e+00
  SN3d TC1eq  1 3.650000e-01    1.910000e+00
  SN2d TC1eq  1 3.650000e-01    1.910000e+00
  SN1d TC1eq  1 3.650000e-01    1.910000e+00
  SP6a TC1eq  1 4.230000e-01    9.810000e-01
  SP5a TC1eq  1 4.040000e-01    1.130000e+00
  SP4a TC1eq  1 4.040000e-01    1.130000e+00
  SP3a TC1eq  1 4.040000e-01    1.130000e+00
  SP2a TC1eq  1 3.940000e-01    1.290000e+00
  SP1a TC1eq  1 3.940000e-01    1.290000e+00
  SN6a TC1eq  1 3.780000e-01    1.450000e+00
  SN5a TC1eq  1 3.780000e-01    1.450000e+00
  SN4a TC1eq  1 3.780000e-01    1.450000e+00
  SN3a TC1eq  1 3.660000e-01    1.600000e+00
  SN2a TC1eq  1 3.660000e-01    1.600000e+00
  SN1a TC1eq  1 3.660000e-01    1.600000e+00
  SC6e TC2eq  1 3.650000e-01    1.750000e+00
  SC5e TC2eq  1 3.650000e-01    1.750000e+00
  SC4e TC2eq  1 3.650000e-01    1.910000e+00
  SC3e TC2eq  1 3.650000e-01    2.110000e+00
  SC6v TC2eq  1 3.650000e-01    2.340000e+00
  SC5v TC2eq  1 3.650000e-01    2.340000e+00
  SC4v TC2eq  1 3.650000e-01    2.570000e+00
  SC3v TC2eq  1 3.650000e-01    2.830000e+00
  SC2v TC2eq  1 3.650000e-01    2.830000e+00
  SP6d TC2eq  1 3.780000e-01    1.450000e+00
  SP5d TC2eq  1 3.660000e-01    1.600000e+00
  SP4d TC2eq  1 3.660000e-01    1.600000e+00
  SP3d TC2eq  1 3.660000e-01    1.600000e+00
  SP2d TC2eq  1 3.650000e-01    1.750000e+00
  SP1d TC2eq  1 3.650000e-01    1.750000e+00
  SN6d TC2eq  1 3.650000e-01    1.910000e+00
  SN5d TC2eq  1 3.650000e-01    1.910000e+00
  SN4d TC2eq  1 3.650000e-01    1.910000e+00
  SN3d TC2eq  1 3.650000e-01    2.110000e+00
  SN2d TC2eq  1 3.650000e-01    2.110000e+00
  SN1d TC2eq  1 3.650000e-01    2.110000e+00
  SP6a TC2eq  1 4.040000e-01    1.130000e+00
  SP5a TC2eq  1 3.940000e-01    1.290000e+00
  SP4a TC2eq  1 3.940000e-01    1.290000e+00
  SP3a TC2eq  1 3.940000e-01    1.290000e+00
  SP2a TC2eq  1 3.780000e-01    1.450000e+00
  SP1a TC2eq  1 3.780000e-01    1.450000e+00
  SN6a TC2eq  1 3.660000e-01    1.600000e+00
  SN5a TC2eq  1 3.660000e-01    1.600000e+00
  SN4a TC2eq  1 3.660000e-01    1.600000e+00
  SN3a TC2eq  1 3.650000e-01    1.750000e+00
  SN2a TC2eq  1 3.650000e-01    1.750000e+00
  SN1a TC2eq  1 3.650000e-01    1.750000e+00
  SC6e TC3eq  1 3.650000e-01    1.910000e+00
  SC5e TC3eq  1 3.650000e-01    1.910000e+00
  SC4e TC3eq  1 3.650000e-01    2.110000e+00
  SC6v TC3eq  1 3.650000e-01    2.570000e+00
  SC5v TC3eq  1 3.650000e-01    2.570000e+00
  SC4v TC3eq  1 3.650000e-01    2.830000e+00
  SC3v TC3eq  1 3.650000e-01    2.830000e+00
  SP6d TC3eq  1 3.780000e-01    1.450000e+00
  SP5d TC3eq  1 3.660000e-01    1.600000e+00
  SP4d TC3eq  1 3.660000e-01    1.600000e+00
  SP3d TC3eq  1 3.660000e-01    1.600000e+00
  SP2d TC3eq  1 3.650000e-01    1.750000e+00
  SP1d TC3eq  1 3.650000e-01    1.750000e+00
  SN6d TC3eq  1 3.650000e-01    1.910000e+00
  SN5d TC3eq  1 3.650000e-01    2.110000e+00
  SN4d TC3eq  1 3.650000e-01    2.110000e+00
  SN3d TC3eq  1 3.650000e-01    2.110000e+00
  SN2d TC3eq  1 3.650000e-01    2.340000e+00
  SN1d TC3eq  1 3.650000e-01    2.340000e+00
  SP6a TC3eq  1 4.040000e-01    1.130000e+00
  SP5a TC3eq  1 3.940000e-01    1.290000e+00
  SP4a TC3eq  1 3.940000e-01    1.290000e+00
  SP3a TC3eq  1 3.940000e-01    1.290000e+00
  SP2a TC3eq  1 3.780000e-01    1.450000e+00
  SP1a TC3eq  1 3.780000e-01    1.450000e+00
  SN6a TC3eq  1 3.660000e-01    1.600000e+00
  SN5a TC3eq  1 3.650000e-01    1.750000e+00
  SN4a TC3eq  1 3.650000e-01    1.750000e+00
  SN3a TC3eq  1 3.650000e-01    1.750000e+00
  SN2a TC3eq  1 3.650000e-01    1.910000e+00
  SN1a TC3eq  1 3.650000e-01    1.910000e+00
  SC6e TC4eq  1 3.650000e-01    2.110000e+00
  SC5e TC4eq  1 3.650000e-01    2.110000e+00
  SC6v TC4eq  1 3.650000e-01    2.830000e+00
  SC5v TC4eq  1 3.650000e-01    2.830000e+00
  SC4v TC4eq  1 3.650000e-01    2.830000e+00
  SP6d TC4eq  1 3.660000e-01    1.600000e+00
  SP5d TC4eq  1 3.650000e-01    1.750000e+00
  SP4d TC4eq  1 3.650000e-01    1.750000e+00
  SP3d TC4eq  1 3.650000e-01    1.910000e+00
  SP2d TC4eq  1 3.650000e-01    1.910000e+00
  SP1d TC4eq  1 3.650000e-01    1.910000e+00
  SN6d TC4eq  1 3.650000e-01    2.110000e+00
  SN5d TC4eq  1 3.650000e-01    2.110000e+00
  SN4d TC4eq  1 3.650000e-01    2.340000e+00
  SN3d TC4eq  1 3.650000e-01    2.340000e+00
  SN2d TC4eq  1 3.650000e-01    2.340000e+00
  SN1d TC4eq  1 3.650000e-01    2.570000e+00
  SP6a TC4eq  1 3.940000e-01    1.290000e+00
  SP5a TC4eq  1 3.780000e-01    1.450000e+00
  SP4a TC4eq  1 3.780000e-01    1.450000e+00
  SP3a TC4eq  1 3.660000e-01    1.600000e+00
  SP2a TC4eq  1 3.660000e-01    1.600000e+00
  SP1a TC4eq  1 3.660000e-01    1.600000e+00
  SN6a TC4eq  1 3.650000e-01    1.750000e+00
  SN5a TC4eq  1 3.650000e-01    1.750000e+00
  SN4a TC4eq  1 3.650000e-01    1.910000e+00
  SN3a TC4eq  1 3.650000e-01    1.910000e+00
  SN2a TC4eq  1 3.650000e-01    1.910000e+00
  SN1a TC4eq  1 3.650000e-01    2.110000e+00
  SC6e TC5eq  1 3.650000e-01    2.110000e+00
  SC6v TC5eq  1 3.650000e-01    2.830000e+00
  SC5v TC5eq  1 3.650000e-01    2.830000e+00
  SP6d TC5eq  1 3.650000e-01    1.750000e+00
  SP5d TC5eq  1 3.650000e-01    1.910000e+00
  SP4d TC5eq  1 3.650000e-01    1.910000e+00
  SP3d TC5eq  1 3.650000e-01    2.110000e+00
  SP2d TC5eq  1 3.650000e-01    2.110000e+00
  SP1d TC5eq  1 3.650000e-01    2.110000e+00
  SN6d TC5eq  1 3.650000e-01    2.340000e+00
  SN5d TC5eq  1 3.650000e-01    2.340000e+00
  SN4d TC5eq  1 3.650000e-01    2.340000e+00
  SN3d TC5eq  1 3.650000e-01    2.340000e+00
  SN2d TC5eq  1 3.650000e-01    2.340000e+00
  SN1d TC5eq  1 3.650000e-01    2.570000e+00
  SP6a TC5eq  1 3.780000e-01    1.450000e+00
  SP5a TC5eq  1 3.660000e-01    1.600000e+00
  SP4a TC5eq  1 3.660000e-01    1.600000e+00
  SP3a TC5eq  1 3.650000e-01    1.750000e+00
  SP2a TC5eq  1 3.650000e-01    1.750000e+00
  SP1a TC5eq  1 3.650000e-01    1.750000e+00
  SN6a TC5eq  1 3.650000e-01    1.910000e+00
  SN5a TC5eq  1 3.650000e-01    1.910000e+00
  SN4a TC5eq  1 3.650000e-01    1.910000e+00
  SN3a TC5eq  1 3.650000e-01    1.910000e+00
  SN2a TC5eq  1 3.650000e-01    1.910000e+00
  SN1a TC5eq  1 3.650000e-01    2.110000e+00
  SC6v TC6eq  1 3.650000e-01    3.100000e+00
  SP6d TC6eq  1 3.650000e-01    1.910000e+00
  SP5d TC6eq  1 3.650000e-01    1.910000e+00
  SP4d TC6eq  1 3.650000e-01    2.110000e+00
  SP3d TC6eq  1 3.650000e-01    2.340000e+00
  SP2d TC6eq  1 3.650000e-01    2.340000e+00
  SP1d TC6eq  1 3.650000e-01    2.340000e+00
  SN6d TC6eq  1 3.650000e-01    2.570000e+00
  SN5d TC6eq  1 3.650000e-01    2.570000e+00
  SN4d TC6eq  1 3.650000e-01    2.570000e+00
  SN3d TC6eq  1 3.650000e-01    2.570000e+00
  SN2d TC6eq  1 3.650000e-01    2.570000e+00
  SN1d TC6eq  1 3.650000e-01    2.830000e+00
  SP6a TC6eq  1 3.660000e-01    1.600000e+00
  SP5a TC6eq  1 3.660000e-01    1.600000e+00
  SP4a TC6eq  1 3.650000e-01    1.750000e+00
  SP3a TC6eq  1 3.650000e-01    1.910000e+00
  SP2a TC6eq  1 3.650000e-01    1.910000e+00
  SP1a TC6eq  1 3.650000e-01    1.910000e+00
  SN6a TC6eq  1 3.650000e-01    2.110000e+00
  SN5a TC6eq  1 3.650000e-01    2.110000e+00
  SN4a TC6eq  1 3.650000e-01    2.110000e+00
  SN3a TC6eq  1 3.650000e-01    2.110000e+00
  SN2a TC6eq  1 3.650000e-01    2.110000e+00
  SN1a TC6eq  1 3.650000e-01    2.340000e+00
  SC6v TX1vq  1 3.650000e-01    2.110000e+00
  SC5v TX1vq  1 3.650000e-01    2.110000e+00
  SC4v TX1vq  1 3.650000e-01    2.110000e+00
  SC3v TX1vq  1 3.650000e-01    2.110000e+00
  SC2v TX1vq  1 3.650000e-01    1.910000e+00
  SC1v TX1vq  1 3.650000e-01    1.910000e+00
  SX4v TX1vq  1 3.650000e-01    2.110000e+00
  SX3v TX1vq  1 3.650000e-01    2.340000e+00
  SX2v TX1vq  1 3.650000e-01    2.340000e+00
  SP6a TX1vq  1 3.650000e-01    1.750000e+00
  SP5a TX1vq  1 3.650000e-01    1.750000e+00
  SP4a TX1vq  1 3.650000e-01    1.910000e+00
  SP3a TX1vq  1 3.650000e-01    1.910000e+00
  SP2a TX1vq  1 3.650000e-01    1.910000e+00
  SP1a TX1vq  1 3.650000e-01    1.910000e+00
  SN6a TX1vq  1 3.650000e-01    1.910000e+00
  SN5a TX1vq  1 3.650000e-01    2.110000e+00
  SN4a TX1vq  1 3.650000e-01    2.110000e+00
  SN3a TX1vq  1 3.650000e-01    2.340000e+00
  SN2a TX1vq  1 3.650000e-01    2.340000e+00
  SN1a TX1vq  1 3.650000e-01    2.340000e+00
  SP6d TX1vq  1 3.780000e-01    1.450000e+00
  SP5d TX1vq  1 3.780000e-01    1.450000e+00
  SP4d TX1vq  1 3.660000e-01    1.600000e+00
  SP3d TX1vq  1 3.660000e-01    1.600000e+00
  SP2d TX1vq  1 3.660000e-01    1.600000e+00
  SP1d TX1vq  1 3.660000e-01    1.600000e+00
  SN6d TX1vq  1 3.660000e-01    1.600000e+00
  SN5d TX1vq  1 3.650000e-01    1.750000e+00
  SN4d TX1vq  1 3.650000e-01    1.750000e+00
  SN3d TX1vq  1 3.650000e-01    1.910000e+00
  SN2d TX1vq  1 3.650000e-01    1.910000e+00
  SN1d TX1vq  1 3.650000e-01    1.910000e+00
  SC6v TX2vq  1 3.650000e-01    2.110000e+00
  SC5v TX2vq  1 3.650000e-01    1.910000e+00
  SC4v TX2vq  1 3.650000e-01    1.910000e+00
  SC3v TX2vq  1 3.650000e-01    1.910000e+00
  SC2v TX2vq  1 3.650000e-01    1.910000e+00
  SC1v TX2vq  1 3.650000e-01    1.910000e+00
  SX4v TX2vq  1 3.650000e-01    2.110000e+00
  SX3v TX2vq  1 3.650000e-01    2.340000e+00
  SP6a TX2vq  1 3.650000e-01    1.910000e+00
  SP5a TX2vq  1 3.650000e-01    2.110000e+00
  SP4a TX2vq  1 3.650000e-01    2.110000e+00
  SP3a TX2vq  1 3.650000e-01    2.110000e+00
  SP2a TX2vq  1 3.650000e-01    2.110000e+00
  SP1a TX2vq  1 3.650000e-01    2.110000e+00
  SN6a TX2vq  1 3.650000e-01    2.110000e+00
  SN5a TX2vq  1 3.650000e-01    2.340000e+00
  SN4a TX2vq  1 3.650000e-01    2.340000e+00
  SN3a TX2vq  1 3.650000e-01    2.340000e+00
  SN2a TX2vq  1 3.650000e-01    2.340000e+00
  SN1a TX2vq  1 3.650000e-01    2.340000e+00
  SP6d TX2vq  1 3.660000e-01    1.600000e+00
  SP5d TX2vq  1 3.650000e-01    1.750000e+00
  SP4d TX2vq  1 3.650000e-01    1.750000e+00
  SP3d TX2vq  1 3.650000e-01    1.750000e+00
  SP2d TX2vq  1 3.650000e-01    1.750000e+00
  SP1d TX2vq  1 3.650000e-01    1.750000e+00
  SN6d TX2vq  1 3.650000e-01    1.750000e+00
  SN5d TX2vq  1 3.650000e-01    1.910000e+00
  SN4d TX2vq  1 3.650000e-01    1.910000e+00
  SN3d TX2vq  1 3.650000e-01    1.910000e+00
  SN2d TX2vq  1 3.650000e-01    1.910000e+00
  SN1d TX2vq  1 3.650000e-01    1.910000e+00
  SC6v TX3vq  1 3.650000e-01    2.110000e+00
  SC5v TX3vq  1 3.650000e-01    1.910000e+00
  SC4v TX3vq  1 3.650000e-01    1.910000e+00
  SC3v TX3vq  1 3.650000e-01    1.910000e+00
  SC2v TX3vq  1 3.650000e-01    1.910000e+00
  SC1v TX3vq  1 3.650000e-01    1.910000e+00
  SX4v TX3vq  1 3.650000e-01    2.110000e+00
  SP6a TX3vq  1 3.650000e-01    2.110000e+00
  SP5a TX3vq  1 3.650000e-01    2.110000e+00
  SP4a TX3vq  1 3.650000e-01    2.110000e+00
  SP3a TX3vq  1 3.650000e-01    2.340000e+00
  SP2a TX3vq  1 3.650000e-01    2.340000e+00
  SP1a TX3vq  1 3.650000e-01    2.340000e+00
  SN6a TX3vq  1 3.650000e-01    2.340000e+00
  SN5a TX3vq  1 3.650000e-01    2.570000e+00
  SN4a TX3vq  1 3.650000e-01    2.830000e+00
  SN3a TX3vq  1 3.650000e-01    2.570000e+00
  SN2a TX3vq  1 3.650000e-01    2.570000e+00
  SN1a TX3vq  1 3.650000e-01    2.570000e+00
  SP6d TX3vq  1 3.650000e-01    1.750000e+00
  SP5d TX3vq  1 3.650000e-01    1.750000e+00
  SP4d TX3vq  1 3.650000e-01    1.750000e+00
  SP3d TX3vq  1 3.650000e-01    1.910000e+00
  SP2d TX3vq  1 3.650000e-01    1.910000e+00
  SP1d TX3vq  1 3.650000e-01    1.910000e+00
  SN6d TX3vq  1 3.650000e-01    1.910000e+00
  SN5d TX3vq  1 3.650000e-01    2.110000e+00
  SN4d TX3vq  1 3.650000e-01    2.340000e+00
  SN3d TX3vq  1 3.650000e-01    2.110000e+00
  SN2d TX3vq  1 3.650000e-01    2.110000e+00
  SN1d TX3vq  1 3.650000e-01    2.110000e+00
  SC6v TX4vq  1 3.650000e-01    2.110000e+00
  SC5v TX4vq  1 3.650000e-01    1.910000e+00
  SC4v TX4vq  1 3.650000e-01    1.910000e+00
  SC3v TX4vq  1 3.650000e-01    1.910000e+00
  SC2v TX4vq  1 3.660000e-01    1.600000e+00
  SC1v TX4vq  1 3.660000e-01    1.600000e+00
  SP6a TX4vq  1 3.650000e-01    2.110000e+00
  SP5a TX4vq  1 3.650000e-01    2.340000e+00
  SP4a TX4vq  1 3.650000e-01    2.340000e+00
  SP3a TX4vq  1 3.650000e-01    2.340000e+00
  SP2a TX4vq  1 3.650000e-01    2.340000e+00
  SP1a TX4vq  1 3.650000e-01    2.340000e+00
  SN6a TX4vq  1 3.650000e-01    2.570000e+00
  SN5a TX4vq  1 3.650000e-01    2.830000e+00
  SN4a TX4vq  1 3.650000e-01    3.100000e+00
  SN3a TX4vq  1 3.650000e-01    2.830000e+00
  SN2a TX4vq  1 3.650000e-01    2.830000e+00
  SN1a TX4vq  1 3.650000e-01    2.570000e+00
  SP6d TX4vq  1 3.650000e-01    1.750000e+00
  SP5d TX4vq  1 3.650000e-01    1.910000e+00
  SP4d TX4vq  1 3.650000e-01    1.910000e+00
  SP3d TX4vq  1 3.650000e-01    1.910000e+00
  SP2d TX4vq  1 3.650000e-01    1.910000e+00
  SP1d TX4vq  1 3.650000e-01    1.910000e+00
  SN6d TX4vq  1 3.650000e-01    2.110000e+00
  SN5d TX4vq  1 3.650000e-01    2.340000e+00
  SN4d TX4vq  1 3.650000e-01    2.570000e+00
  SN3d TX4vq  1 3.650000e-01    2.340000e+00
  SN2d TX4vq  1 3.650000e-01    2.340000e+00
  SN1d TX4vq  1 3.650000e-01    2.110000e+00
  SC6v TC1vq  1 3.660000e-01    1.600000e+00
  SC5v TC1vq  1 3.650000e-01    1.750000e+00
  SC4v TC1vq  1 3.650000e-01    1.750000e+00
  SC3v TC1vq  1 3.650000e-01    2.110000e+00
  SC2v TC1vq  1 3.650000e-01    2.340000e+00
  SP6a TC1vq  1 4.040000e-01    1.130000e+00
  SP5a TC1vq  1 3.780000e-01    1.450000e+00
  SP4a TC1vq  1 3.780000e-01    1.450000e+00
  SP3a TC1vq  1 3.780000e-01    1.450000e+00
  SP2a TC1vq  1 3.660000e-01    1.600000e+00
  SP1a TC1vq  1 3.660000e-01    1.600000e+00
  SN6a TC1vq  1 3.650000e-01    1.750000e+00
  SN5a TC1vq  1 3.650000e-01    1.750000e+00
  SN4a TC1vq  1 3.650000e-01    1.750000e+00
  SN3a TC1vq  1 3.650000e-01    1.910000e+00
  SN2a TC1vq  1 3.650000e-01    1.910000e+00
  SN1a TC1vq  1 3.650000e-01    1.910000e+00
  SP6d TC1vq  1 4.230000e-01    9.810000e-01
  SP5d TC1vq  1 4.040000e-01    1.130000e+00
  SP4d TC1vq  1 4.040000e-01    1.130000e+00
  SP3d TC1vq  1 4.040000e-01    1.130000e+00
  SP2d TC1vq  1 3.940000e-01    1.290000e+00
  SP1d TC1vq  1 3.940000e-01    1.290000e+00
  SN6d TC1vq  1 3.780000e-01    1.450000e+00
  SN5d TC1vq  1 3.780000e-01    1.450000e+00
  SN4d TC1vq  1 3.780000e-01    1.450000e+00
  SN3d TC1vq  1 3.660000e-01    1.600000e+00
  SN2d TC1vq  1 3.660000e-01    1.600000e+00
  SN1d TC1vq  1 3.660000e-01    1.600000e+00
  SC6v TC2vq  1 3.650000e-01    1.750000e+00
  SC5v TC2vq  1 3.650000e-01    1.750000e+00
  SC4v TC2vq  1 3.650000e-01    1.910000e+00
  SC3v TC2vq  1 3.650000e-01    2.110000e+00
  SP6a TC2vq  1 3.780000e-01    1.450000e+00
  SP5a TC2vq  1 3.660000e-01    1.600000e+00
  SP4a TC2vq  1 3.660000e-01    1.600000e+00
  SP3a TC2vq  1 3.660000e-01    1.600000e+00
  SP2a TC2vq  1 3.650000e-01    1.750000e+00
  SP1a TC2vq  1 3.650000e-01    1.750000e+00
  SN6a TC2vq  1 3.650000e-01    1.910000e+00
  SN5a TC2vq  1 3.650000e-01    1.910000e+00
  SN4a TC2vq  1 3.650000e-01    1.910000e+00
  SN3a TC2vq  1 3.650000e-01    2.110000e+00
  SN2a TC2vq  1 3.650000e-01    2.110000e+00
  SN1a TC2vq  1 3.650000e-01    2.110000e+00
  SP6d TC2vq  1 4.040000e-01    1.130000e+00
  SP5d TC2vq  1 3.940000e-01    1.290000e+00
  SP4d TC2vq  1 3.940000e-01    1.290000e+00
  SP3d TC2vq  1 3.940000e-01    1.290000e+00
  SP2d TC2vq  1 3.780000e-01    1.450000e+00
  SP1d TC2vq  1 3.780000e-01    1.450000e+00
  SN6d TC2vq  1 3.660000e-01    1.600000e+00
  SN5d TC2vq  1 3.660000e-01    1.600000e+00
  SN4d TC2vq  1 3.660000e-01    1.600000e+00
  SN3d TC2vq  1 3.650000e-01    1.750000e+00
  SN2d TC2vq  1 3.650000e-01    1.750000e+00
  SN1d TC2vq  1 3.650000e-01    1.750000e+00
  SC6v TC3vq  1 3.650000e-01    1.910000e+00
  SC5v TC3vq  1 3.650000e-01    1.910000e+00
  SC4v TC3vq  1 3.650000e-01    2.110000e+00
  SP6a TC3vq  1 3.780000e-01    1.450000e+00
  SP5a TC3vq  1 3.660000e-01    1.600000e+00
  SP4a TC3vq  1 3.660000e-01    1.600000e+00
  SP3a TC3vq  1 3.660000e-01    1.600000e+00
  SP2a TC3vq  1 3.650000e-01    1.750000e+00
  SP1a TC3vq  1 3.650000e-01    1.750000e+00
  SN6a TC3vq  1 3.650000e-01    1.910000e+00
  SN5a TC3vq  1 3.650000e-01    2.110000e+00
  SN4a TC3vq  1 3.650000e-01    2.110000e+00
  SN3a TC3vq  1 3.650000e-01    2.110000e+00
  SN2a TC3vq  1 3.650000e-01    2.340000e+00
  SN1a TC3vq  1 3.650000e-01    2.340000e+00
  SP6d TC3vq  1 4.040000e-01    1.130000e+00
  SP5d TC3vq  1 3.940000e-01    1.290000e+00
  SP4d TC3vq  1 3.940000e-01    1.290000e+00
  SP3d TC3vq  1 3.940000e-01    1.290000e+00
  SP2d TC3vq  1 3.780000e-01    1.450000e+00
  SP1d TC3vq  1 3.780000e-01    1.450000e+00
  SN6d TC3vq  1 3.660000e-01    1.600000e+00
  SN5d TC3vq  1 3.650000e-01    1.750000e+00
  SN4d TC3vq  1 3.650000e-01    1.750000e+00
  SN3d TC3vq  1 3.650000e-01    1.750000e+00
  SN2d TC3vq  1 3.650000e-01    1.910000e+00
  SN1d TC3vq  1 3.650000e-01    1.910000e+00
  SC6v TC4vq  1 3.650000e-01    2.110000e+00
  SC5v TC4vq  1 3.650000e-01    2.110000e+00
  SP6a TC4vq  1 3.660000e-01    1.600000e+00
  SP5a TC4vq  1 3.650000e-01    1.750000e+00
  SP4a TC4vq  1 3.650000e-01    1.750000e+00
  SP3a TC4vq  1 3.650000e-01    1.910000e+00
  SP2a TC4vq  1 3.650000e-01    1.910000e+00
  SP1a TC4vq  1 3.650000e-01    1.910000e+00
  SN6a TC4vq  1 3.650000e-01    2.110000e+00
  SN5a TC4vq  1 3.650000e-01    2.110000e+00
  SN4a TC4vq  1 3.650000e-01    2.340000e+00
  SN3a TC4vq  1 3.650000e-01    2.340000e+00
  SN2a TC4vq  1 3.650000e-01    2.340000e+00
  SN1a TC4vq  1 3.650000e-01    2.570000e+00
  SP6d TC4vq  1 3.940000e-01    1.290000e+00
  SP5d TC4vq  1 3.780000e-01    1.450000e+00
  SP4d TC4vq  1 3.780000e-01    1.450000e+00
  SP3d TC4vq  1 3.660000e-01    1.600000e+00
  SP2d TC4vq  1 3.660000e-01    1.600000e+00
  SP1d TC4vq  1 3.660000e-01    1.600000e+00
  SN6d TC4vq  1 3.650000e-01    1.750000e+00
  SN5d TC4vq  1 3.650000e-01    1.750000e+00
  SN4d TC4vq  1 3.650000e-01    1.910000e+00
  SN3d TC4vq  1 3.650000e-01    1.910000e+00
  SN2d TC4vq  1 3.650000e-01    1.910000e+00
  SN1d TC4vq  1 3.650000e-01    2.110000e+00
  SC6v TC5vq  1 3.650000e-01    2.110000e+00
  SP6a TC5vq  1 3.650000e-01    1.750000e+00
  SP5a TC5vq  1 3.650000e-01    1.910000e+00
  SP4a TC5vq  1 3.650000e-01    1.910000e+00
  SP3a TC5vq  1 3.650000e-01    2.110000e+00
  SP2a TC5vq  1 3.650000e-01    2.110000e+00
  SP1a TC5vq  1 3.650000e-01    2.110000e+00
  SN6a TC5vq  1 3.650000e-01    2.340000e+00
  SN5a TC5vq  1 3.650000e-01    2.340000e+00
  SN4a TC5vq  1 3.650000e-01    2.340000e+00
  SN3a TC5vq  1 3.650000e-01    2.340000e+00
  SN2a TC5vq  1 3.650000e-01    2.340000e+00
  SN1a TC5vq  1 3.650000e-01    2.570000e+00
  SP6d TC5vq  1 3.780000e-01    1.450000e+00
  SP5d TC5vq  1 3.660000e-01    1.600000e+00
  SP4d TC5vq  1 3.660000e-01    1.600000e+00
  SP3d TC5vq  1 3.650000e-01    1.750000e+00
  SP2d TC5vq  1 3.650000e-01    1.750000e+00
  SP1d TC5vq  1 3.650000e-01    1.750000e+00
  SN6d TC5vq  1 3.650000e-01    1.910000e+00
  SN5d TC5vq  1 3.650000e-01    1.910000e+00
  SN4d TC5vq  1 3.650000e-01    1.910000e+00
  SN3d TC5vq  1 3.650000e-01    1.910000e+00
  SN2d TC5vq  1 3.650000e-01    1.910000e+00
  SN1d TC5vq  1 3.650000e-01    2.110000e+00
  SP6a TC6vq  1 3.650000e-01    1.910000e+00
  SP5a TC6vq  1 3.650000e-01    1.910000e+00
  SP4a TC6vq  1 3.650000e-01    2.110000e+00
  SP3a TC6vq  1 3.650000e-01    2.340000e+00
  SP2a TC6vq  1 3.650000e-01    2.340000e+00
  SP1a TC6vq  1 3.650000e-01    2.340000e+00
  SN6a TC6vq  1 3.650000e-01    2.570000e+00
  SN5a TC6vq  1 3.650000e-01    2.570000e+00
  SN4a TC6vq  1 3.650000e-01    2.570000e+00
  SN3a TC6vq  1 3.650000e-01    2.570000e+00
  SN2a TC6vq  1 3.650000e-01    2.570000e+00
  SN1a TC6vq  1 3.650000e-01    2.830000e+00
  SP6d TC6vq  1 3.660000e-01    1.600000e+00
  SP5d TC6vq  1 3.660000e-01    1.600000e+00
  SP4d TC6vq  1 3.650000e-01    1.750000e+00
  SP3d TC6vq  1 3.650000e-01    1.910000e+00
  SP2d TC6vq  1 3.650000e-01    1.910000e+00
  SP1d TC6vq  1 3.650000e-01    1.910000e+00
  SN6d TC6vq  1 3.650000e-01    2.110000e+00
  SN5d TC6vq  1 3.650000e-01    2.110000e+00
  SN4d TC6vq  1 3.650000e-01    2.110000e+00
  SN3d TC6vq  1 3.650000e-01    2.110000e+00
  SN2d TC6vq  1 3.650000e-01    2.110000e+00
  SN1d TC6vq  1 3.650000e-01    2.340000e+00
  SP6a TN1aq  1 3.650000e-01    1.750000e+00
  SP5a TN1aq  1 3.650000e-01    1.750000e+00
  SP4a TN1aq  1 3.650000e-01    1.910000e+00
  SP3a TN1aq  1 3.650000e-01    2.110000e+00
  SP2a TN1aq  1 3.650000e-01    2.110000e+00
  SP1a TN1aq  1 3.650000e-01    2.110000e+00
  SN6a TN1aq  1 3.650000e-01    2.110000e+00
  SN5a TN1aq  1 3.650000e-01    2.110000e+00
  SN4a TN1aq  1 3.650000e-01    2.110000e+00
  SN3a TN1aq  1 3.650000e-01    2.110000e+00
  SN2a TN1aq  1 3.650000e-01    2.110000e+00
  SP6d TN1aq  1 3.650000e-01    1.750000e+00
  SP5d TN1aq  1 3.650000e-01    1.750000e+00
  SP4d TN1aq  1 3.650000e-01    1.910000e+00
  SP3d TN1aq  1 3.650000e-01    2.110000e+00
  SP2d TN1aq  1 3.650000e-01    2.570000e+00
  SP1d TN1aq  1 3.650000e-01    2.570000e+00
  SN6d TN1aq  1 3.650000e-01    2.570000e+00
  SN5d TN1aq  1 3.650000e-01    2.570000e+00
  SN4d TN1aq  1 3.650000e-01    2.570000e+00
  SN3d TN1aq  1 3.650000e-01    2.570000e+00
  SN2d TN1aq  1 3.650000e-01    2.570000e+00
  SN1d TN1aq  1 3.650000e-01    2.830000e+00
  SP6a TN2aq  1 3.650000e-01    1.910000e+00
  SP5a TN2aq  1 3.650000e-01    1.910000e+00
  SP4a TN2aq  1 3.650000e-01    2.110000e+00
  SP3a TN2aq  1 3.650000e-01    2.110000e+00
  SP2a TN2aq  1 3.650000e-01    2.110000e+00
  SP1a TN2aq  1 3.650000e-01    2.110000e+00
  SN6a TN2aq  1 3.650000e-01    2.110000e+00
  SN5a TN2aq  1 3.650000e-01    2.340000e+00
  SN4a TN2aq  1 3.650000e-01    2.340000e+00
  SN3a TN2aq  1 3.650000e-01    2.340000e+00
  SP6d TN2aq  1 3.650000e-01    1.910000e+00
  SP5d TN2aq  1 3.650000e-01    1.910000e+00
  SP4d TN2aq  1 3.650000e-01    2.110000e+00
  SP3d TN2aq  1 3.650000e-01    2.570000e+00
  SP2d TN2aq  1 3.650000e-01    2.570000e+00
  SP1d TN2aq  1 3.650000e-01    2.570000e+00
  SN6d TN2aq  1 3.650000e-01    2.570000e+00
  SN5d TN2aq  1 3.650000e-01    2.830000e+00
  SN4d TN2aq  1 3.650000e-01    2.830000e+00
  SN3d TN2aq  1 3.650000e-01    2.830000e+00
  SN2d TN2aq  1 3.650000e-01    2.830000e+00
  SP6a TN3aq  1 3.650000e-01    2.110000e+00
  SP5a TN3aq  1 3.650000e-01    2.110000e+00
  SP4a TN3aq  1 3.650000e-01    2.110000e+00
  SP3a TN3aq  1 3.650000e-01    2.110000e+00
  SP2a TN3aq  1 3.650000e-01    2.110000e+00
  SP1a TN3aq  1 3.650000e-01    2.110000e+00
  SN6a TN3aq  1 3.650000e-01    2.340000e+00
  SN5a TN3aq  1 3.650000e-01    2.340000e+00
  SN4a TN3aq  1 3.650000e-01    2.340000e+00
  SP6d TN3aq  1 3.650000e-01    2.110000e+00
  SP5d TN3aq  1 3.650000e-01    2.110000e+00
  SP4d TN3aq  1 3.650000e-01    2.570000e+00
  SP3d TN3aq  1 3.650000e-01    2.570000e+00
  SP2d TN3aq  1 3.650000e-01    2.570000e+00
  SP1d TN3aq  1 3.650000e-01    2.570000e+00
  SN6d TN3aq  1 3.650000e-01    2.830000e+00
  SN5d TN3aq  1 3.650000e-01    2.830000e+00
  SN4d TN3aq  1 3.650000e-01    2.830000e+00
  SN3d TN3aq  1 3.650000e-01    2.830000e+00
  SP6a TN4aq  1 3.650000e-01    2.110000e+00
  SP5a TN4aq  1 3.650000e-01    2.340000e+00
  SP4a TN4aq  1 3.650000e-01    2.340000e+00
  SP3a TN4aq  1 3.650000e-01    2.340000e+00
  SP2a TN4aq  1 3.650000e-01    2.340000e+00
  SP1a TN4aq  1 3.650000e-01    2.570000e+00
  SN6a TN4aq  1 3.650000e-01    2.830000e+00
  SN5a TN4aq  1 3.650000e-01    2.570000e+00
  SP6d TN4aq  1 3.650000e-01    2.570000e+00
  SP5d TN4aq  1 3.650000e-01    2.830000e+00
  SP4d TN4aq  1 3.650000e-01    2.830000e+00
  SP3d TN4aq  1 3.650000e-01    2.830000e+00
  SP2d TN4aq  1 3.650000e-01    2.830000e+00
  SP1d TN4aq  1 3.650000e-01    3.100000e+00
  SN6d TN4aq  1 3.650000e-01    3.370000e+00
  SN5d TN4aq  1 3.650000e-01    3.100000e+00
  SN4d TN4aq  1 3.650000e-01    3.100000e+00
  SP6a TN5aq  1 3.650000e-01    2.340000e+00
  SP5a TN5aq  1 3.650000e-01    2.340000e+00
  SP4a TN5aq  1 3.650000e-01    2.340000e+00
  SP3a TN5aq  1 3.650000e-01    2.340000e+00
  SP2a TN5aq  1 3.650000e-01    2.570000e+00
  SP1a TN5aq  1 3.650000e-01    2.570000e+00
  SN6a TN5aq  1 3.650000e-01    2.830000e+00
  SP6d TN5aq  1 3.650000e-01    2.830000e+00
  SP5d TN5aq  1 3.650000e-01    2.830000e+00
  SP4d TN5aq  1 3.650000e-01    2.830000e+00
  SP3d TN5aq  1 3.650000e-01    2.830000e+00
  SP2d TN5aq  1 3.650000e-01    3.100000e+00
  SP1d TN5aq  1 3.650000e-01    3.100000e+00
  SN6d TN5aq  1 3.650000e-01    3.370000e+00
  SN5d TN5aq  1 3.650000e-01    3.100000e+00
  SP6a TN6aq  1 3.650000e-01    2.830000e+00
  SP5a TN6aq  1 3.650000e-01    2.570000e+00
  SP4a TN6aq  1 3.650000e-01    2.570000e+00
  SP3a TN6aq  1 3.650000e-01    2.570000e+00
  SP2a TN6aq  1 3.650000e-01    2.830000e+00
  SP1a TN6aq  1 3.650000e-01    2.830000e+00
  SP6d TN6aq  1 3.650000e-01    3.370000e+00
  SP5d TN6aq  1 3.650000e-01    3.100000e+00
  SP4d TN6aq  1 3.650000e-01    3.100000e+00
  SP3d TN6aq  1 3.650000e-01    3.100000e+00
  SP2d TN6aq  1 3.650000e-01    3.370000e+00
  SP1d TN6aq  1 3.650000e-01    3.370000e+00
  SN6d TN6aq  1 3.650000e-01    3.370000e+00
  SP6a TP1aq  1 3.650000e-01    3.100000e+00
  SP5a TP1aq  1 3.650000e-01    2.830000e+00
  SP4a TP1aq  1 3.650000e-01    2.830000e+00
  SP3a TP1aq  1 3.650000e-01    2.830000e+00
  SP2a TP1aq  1 3.650000e-01    2.830000e+00
  SP6d TP1aq  1 3.650000e-01    3.640000e+00
  SP5d TP1aq  1 3.650000e-01    3.370000e+00
  SP4d TP1aq  1 3.650000e-01    3.370000e+00
  SP3d TP1aq  1 3.650000e-01    3.370000e+00
  SP2d TP1aq  1 3.650000e-01    3.370000e+00
  SP1d TP1aq  1 3.650000e-01    3.370000e+00
  SP6a TP2aq  1 3.650000e-01    3.370000e+00
  SP5a TP2aq  1 3.650000e-01    3.100000e+00
  SP4a TP2aq  1 3.650000e-01    3.100000e+00
  SP3a TP2aq  1 3.650000e-01    3.100000e+00
  SP6d TP2aq  1 3.650000e-01    3.930000e+00
  SP5d TP2aq  1 3.650000e-01    3.640000e+00
  SP4d TP2aq  1 3.650000e-01    3.640000e+00
  SP3d TP2aq  1 3.650000e-01    3.640000e+00
  SP2d TP2aq  1 3.650000e-01    3.640000e+00
  SP6a TP3aq  1 3.650000e-01    3.370000e+00
  SP5a TP3aq  1 3.650000e-01    3.100000e+00
  SP4a TP3aq  1 3.650000e-01    3.100000e+00
  SP6d TP3aq  1 3.650000e-01    3.930000e+00
  SP5d TP3aq  1 3.650000e-01    3.640000e+00
  SP4d TP3aq  1 3.650000e-01    3.640000e+00
  SP3d TP3aq  1 3.650000e-01    3.640000e+00
  SP6a TP4aq  1 3.650000e-01    3.640000e+00
  SP5a TP4aq  1 3.650000e-01    3.370000e+00
  SP6d TP4aq  1 3.650000e-01    4.220000e+00
  SP5d TP4aq  1 3.650000e-01    3.930000e+00
  SP4d TP4aq  1 3.650000e-01    3.930000e+00
  SP6a TP5aq  1 3.650000e-01    3.930000e+00
  SP6d TP5aq  1 3.650000e-01    4.510000e+00
  SP5d TP5aq  1 3.650000e-01    4.220000e+00
  SP6d TP6aq  1 3.650000e-01    4.860000e+00
  SP6d TN1dq  1 3.650000e-01    1.750000e+00
  SP5d TN1dq  1 3.650000e-01    1.750000e+00
  SP4d TN1dq  1 3.650000e-01    1.910000e+00
  SP3d TN1dq  1 3.650000e-01    2.110000e+00
  SP2d TN1dq  1 3.650000e-01    2.110000e+00
  SP1d TN1dq  1 3.650000e-01    2.110000e+00
  SN6d TN1dq  1 3.650000e-01    2.110000e+00
  SN5d TN1dq  1 3.650000e-01    2.110000e+00
  SN4d TN1dq  1 3.650000e-01    2.110000e+00
  SN3d TN1dq  1 3.650000e-01    2.110000e+00
  SN2d TN1dq  1 3.650000e-01    2.110000e+00
  SP6d TN2dq  1 3.650000e-01    1.910000e+00
  SP5d TN2dq  1 3.650000e-01    1.910000e+00
  SP4d TN2dq  1 3.650000e-01    2.110000e+00
  SP3d TN2dq  1 3.650000e-01    2.110000e+00
  SP2d TN2dq  1 3.650000e-01    2.110000e+00
  SP1d TN2dq  1 3.650000e-01    2.110000e+00
  SN6d TN2dq  1 3.650000e-01    2.110000e+00
  SN5d TN2dq  1 3.650000e-01    2.340000e+00
  SN4d TN2dq  1 3.650000e-01    2.340000e+00
  SN3d TN2dq  1 3.650000e-01    2.340000e+00
  SP6d TN3dq  1 3.650000e-01    2.110000e+00
  SP5d TN3dq  1 3.650000e-01    2.110000e+00
  SP4d TN3dq  1 3.650000e-01    2.110000e+00
  SP3d TN3dq  1 3.650000e-01    2.110000e+00
  SP2d TN3dq  1 3.650000e-01    2.110000e+00
  SP1d TN3dq  1 3.650000e-01    2.110000e+00
  SN6d TN3dq  1 3.650000e-01    2.340000e+00
  SN5d TN3dq  1 3.650000e-01    2.340000e+00
  SN4d TN3dq  1 3.650000e-01    2.340000e+00
  SP6d TN4dq  1 3.650000e-01    2.110000e+00
  SP5d TN4dq  1 3.650000e-01    2.340000e+00
  SP4d TN4dq  1 3.650000e-01    2.340000e+00
  SP3d TN4dq  1 3.650000e-01    2.340000e+00
  SP2d TN4dq  1 3.650000e-01    2.340000e+00
  SP1d TN4dq  1 3.650000e-01    2.570000e+00
  SN6d TN4dq  1 3.650000e-01    2.830000e+00
  SN5d TN4dq  1 3.650000e-01    2.570000e+00
  SP6d TN5dq  1 3.650000e-01    2.340000e+00
  SP5d TN5dq  1 3.650000e-01    2.340000e+00
  SP4d TN5dq  1 3.650000e-01    2.340000e+00
  SP3d TN5dq  1 3.650000e-01    2.340000e+00
  SP2d TN5dq  1 3.650000e-01    2.570000e+00
  SP1d TN5dq  1 3.650000e-01    2.570000e+00
  SN6d TN5dq  1 3.650000e-01    2.830000e+00
  SP6d TN6dq  1 3.650000e-01    2.830000e+00
  SP5d TN6dq  1 3.650000e-01    2.570000e+00
  SP4d TN6dq  1 3.650000e-01    2.570000e+00
  SP3d TN6dq  1 3.650000e-01    2.570000e+00
  SP2d TN6dq  1 3.650000e-01    2.830000e+00
  SP1d TN6dq  1 3.650000e-01    2.830000e+00
  SP6d TP1dq  1 3.650000e-01    3.100000e+00
  SP5d TP1dq  1 3.650000e-01    2.830000e+00
  SP4d TP1dq  1 3.650000e-01    2.830000e+00
  SP3d TP1dq  1 3.650000e-01    2.830000e+00
  SP2d TP1dq  1 3.650000e-01    2.830000e+00
  SP6d TP2dq  1 3.650000e-01    3.370000e+00
  SP5d TP2dq  1 3.650000e-01    3.100000e+00
  SP4d TP2dq  1 3.650000e-01    3.100000e+00
  SP3d TP2dq  1 3.650000e-01    3.100000e+00
  SP6d TP3dq  1 3.650000e-01    3.370000e+00
  SP5d TP3dq  1 3.650000e-01    3.100000e+00
  SP4d TP3dq  1 3.650000e-01    3.100000e+00
  SP6d TP4dq  1 3.650000e-01    3.640000e+00
  SP5d TP4dq  1 3.650000e-01    3.370000e+00
  SP6d TP5dq  1 3.650000e-01    3.930000e+00
  SP6q TP6dq  1 3.650000e-01    4.510000e+00
  SP6q TP5dq  1 3.650000e-01    4.220000e+00
  SP6q TP4dq  1 3.650000e-01    3.930000e+00
  SP6q TP3dq  1 3.650000e-01    3.640000e+00
  SP6q TP2dq  1 3.650000e-01    3.640000e+00
  SP6q TP1dq  1 3.650000e-01    3.370000e+00
  SP6q TN6dq  1 3.650000e-01    3.100000e+00
  SP6q TN5dq  1 3.650000e-01    2.570000e+00
  SP6q TN4dq  1 3.650000e-01    2.340000e+00
  SP6q TN3dq  1 3.650000e-01    2.110000e+00
  SP6q TN2dq  1 3.650000e-01    1.910000e+00
  SP6q TN1dq  1 3.650000e-01    1.750000e+00
  SP6q TP6aq  1 3.650000e-01    4.510000e+00
  SP6q TP5aq  1 3.650000e-01    4.220000e+00
  SP6q TP4aq  1 3.650000e-01    3.930000e+00
  SP6q TP3aq  1 3.650000e-01    3.640000e+00
  SP6q TP2aq  1 3.650000e-01    3.640000e+00
  SP6q TP1aq  1 3.650000e-01    3.370000e+00
  SP6q TN6aq  1 3.650000e-01    3.100000e+00
  SP6q TN5aq  1 3.650000e-01    2.570000e+00
  SP6q TN4aq  1 3.650000e-01    2.340000e+00
  SP6q TN3aq  1 3.650000e-01    2.110000e+00
  SP6q TN2aq  1 3.650000e-01    1.910000e+00
  SP6q TN1aq  1 3.650000e-01    1.750000e+00
  SP6q TC6vq  1 3.650000e-01    1.910000e+00
  SP6q TC5vq  1 3.650000e-01    1.750000e+00
  SP6q TC4vq  1 3.660000e-01    1.600000e+00
  SP6q TC3vq  1 3.780000e-01    1.450000e+00
  SP6q TC2vq  1 3.780000e-01    1.450000e+00
  SP6q TC1vq  1 4.040000e-01    1.130000e+00
  SP6q TX4vq  1 3.650000e-01    2.110000e+00
  SP6q TX3vq  1 3.650000e-01    2.110000e+00
  SP6q TX2vq  1 3.650000e-01    1.910000e+00
  SP6q TX1vq  1 3.650000e-01    1.750000e+00
  SP6q TC6eq  1 3.650000e-01    1.910000e+00
  SP6q TC5eq  1 3.650000e-01    1.750000e+00
  SP6q TC4eq  1 3.660000e-01    1.600000e+00
  SP6q TC3eq  1 3.780000e-01    1.450000e+00
  SP6q TC2eq  1 3.780000e-01    1.450000e+00
  SP6q TC1eq  1 4.040000e-01    1.130000e+00
  SP6q TX4eq  1 3.650000e-01    2.110000e+00
  SP6q TX3eq  1 3.650000e-01    2.110000e+00
  SP6q TX2eq  1 3.650000e-01    1.910000e+00
  SP6q TX1eq  1 3.650000e-01    1.750000e+00
  SP5q TP5dq  1 3.650000e-01    3.930000e+00
  SP5q TP4dq  1 3.650000e-01    3.640000e+00
  SP5q TP3dq  1 3.650000e-01    3.370000e+00
  SP5q TP2dq  1 3.650000e-01    3.370000e+00
  SP5q TP1dq  1 3.650000e-01    3.100000e+00
  SP5q TN6dq  1 3.650000e-01    2.830000e+00
  SP5q TN5dq  1 3.650000e-01    2.570000e+00
  SP5q TN4dq  1 3.650000e-01    2.570000e+00
  SP5q TN3dq  1 3.650000e-01    2.110000e+00
  SP5q TN2dq  1 3.650000e-01    1.910000e+00
  SP5q TN1dq  1 3.650000e-01    1.750000e+00
  SP5q TP5aq  1 3.650000e-01    3.930000e+00
  SP5q TP4aq  1 3.650000e-01    3.640000e+00
  SP5q TP3aq  1 3.650000e-01    3.370000e+00
  SP5q TP2aq  1 3.650000e-01    3.370000e+00
  SP5q TP1aq  1 3.650000e-01    3.100000e+00
  SP5q TN6aq  1 3.650000e-01    2.830000e+00
  SP5q TN5aq  1 3.650000e-01    2.570000e+00
  SP5q TN4aq  1 3.650000e-01    2.570000e+00
  SP5q TN3aq  1 3.650000e-01    2.110000e+00
  SP5q TN2aq  1 3.650000e-01    1.910000e+00
  SP5q TN1aq  1 3.650000e-01    1.750000e+00
  SP5q TC6vq  1 3.650000e-01    1.910000e+00
  SP5q TC5vq  1 3.650000e-01    1.910000e+00
  SP5q TC4vq  1 3.650000e-01    1.750000e+00
  SP5q TC3vq  1 3.660000e-01    1.600000e+00
  SP5q TC2vq  1 3.660000e-01    1.600000e+00
  SP5q TC1vq  1 3.780000e-01    1.450000e+00
  SP5q TX4vq  1 3.650000e-01    2.340000e+00
  SP5q TX3vq  1 3.650000e-01    2.110000e+00
  SP5q TX2vq  1 3.650000e-01    2.110000e+00
  SP5q TX1vq  1 3.650000e-01    1.750000e+00
  SP5q TC6eq  1 3.650000e-01    1.910000e+00
  SP5q TC5eq  1 3.650000e-01    1.910000e+00
  SP5q TC4eq  1 3.650000e-01    1.750000e+00
  SP5q TC3eq  1 3.660000e-01    1.600000e+00
  SP5q TC2eq  1 3.660000e-01    1.600000e+00
  SP5q TC1eq  1 3.780000e-01    1.450000e+00
  SP5q TX4eq  1 3.650000e-01    2.340000e+00
  SP5q TX3eq  1 3.650000e-01    2.110000e+00
  SP5q TX2eq  1 3.650000e-01    2.110000e+00
  SP5q TX1eq  1 3.650000e-01    1.750000e+00
  SP4q TP4dq  1 3.650000e-01    3.640000e+00
  SP4q TP3dq  1 3.650000e-01    3.370000e+00
  SP4q TP2dq  1 3.650000e-01    3.370000e+00
  SP4q TP1dq  1 3.650000e-01    3.100000e+00
  SP4q TN6dq  1 3.650000e-01    2.830000e+00
  SP4q TN5dq  1 3.650000e-01    2.570000e+00
  SP4q TN4dq  1 3.650000e-01    2.570000e+00
  SP4q TN3dq  1 3.650000e-01    2.340000e+00
  SP4q TN2dq  1 3.650000e-01    2.110000e+00
  SP4q TN1dq  1 3.650000e-01    1.910000e+00
  SP4q TP4aq  1 3.650000e-01    3.640000e+00
  SP4q TP3aq  1 3.650000e-01    3.370000e+00
  SP4q TP2aq  1 3.650000e-01    3.370000e+00
  SP4q TP1aq  1 3.650000e-01    3.100000e+00
  SP4q TN6aq  1 3.650000e-01    2.830000e+00
  SP4q TN5aq  1 3.650000e-01    2.570000e+00
  SP4q TN4aq  1 3.650000e-01    2.570000e+00
  SP4q TN3aq  1 3.650000e-01    2.340000e+00
  SP4q TN2aq  1 3.650000e-01    2.110000e+00
  SP4q TN1aq  1 3.650000e-01    1.910000e+00
  SP4q TC6vq  1 3.650000e-01    2.110000e+00
  SP4q TC5vq  1 3.650000e-01    1.910000e+00
  SP4q TC4vq  1 3.650000e-01    1.750000e+00
  SP4q TC3vq  1 3.660000e-01    1.600000e+00
  SP4q TC2vq  1 3.660000e-01    1.600000e+00
  SP4q TC1vq  1 3.780000e-01    1.450000e+00
  SP4q TX4vq  1 3.650000e-01    2.340000e+00
  SP4q TX3vq  1 3.650000e-01    2.110000e+00
  SP4q TX2vq  1 3.650000e-01    2.110000e+00
  SP4q TX1vq  1 3.650000e-01    1.910000e+00
  SP4q TC6eq  1 3.650000e-01    2.110000e+00
  SP4q TC5eq  1 3.650000e-01    1.910000e+00
  SP4q TC4eq  1 3.650000e-01    1.750000e+00
  SP4q TC3eq  1 3.660000e-01    1.600000e+00
  SP4q TC2eq  1 3.660000e-01    1.600000e+00
  SP4q TC1eq  1 3.780000e-01    1.450000e+00
  SP4q TX4eq  1 3.650000e-01    2.340000e+00
  SP4q TX3eq  1 3.650000e-01    2.110000e+00
  SP4q TX2eq  1 3.650000e-01    2.110000e+00
  SP4q TX1eq  1 3.650000e-01    1.910000e+00
  SP3q TP3dq  1 3.650000e-01    3.370000e+00
  SP3q TP2dq  1 3.650000e-01    3.370000e+00
  SP3q TP1dq  1 3.650000e-01    3.100000e+00
  SP3q TN6dq  1 3.650000e-01    2.830000e+00
  SP3q TN5dq  1 3.650000e-01    2.570000e+00
  SP3q TN4dq  1 3.650000e-01    2.570000e+00
  SP3q TN3dq  1 3.650000e-01    2.340000e+00
  SP3q TN2dq  1 3.650000e-01    2.340000e+00
  SP3q TN1dq  1 3.650000e-01    2.110000e+00
  SP3q TP3aq  1 3.650000e-01    3.370000e+00
  SP3q TP2aq  1 3.650000e-01    3.370000e+00
  SP3q TP1aq  1 3.650000e-01    3.100000e+00
  SP3q TN6aq  1 3.650000e-01    2.830000e+00
  SP3q TN5aq  1 3.650000e-01    2.570000e+00
  SP3q TN4aq  1 3.650000e-01    2.570000e+00
  SP3q TN3aq  1 3.650000e-01    2.340000e+00
  SP3q TN2aq  1 3.650000e-01    2.340000e+00
  SP3q TN1aq  1 3.650000e-01    2.110000e+00
  SP3q TC6vq  1 3.650000e-01    2.340000e+00
  SP3q TC5vq  1 3.650000e-01    2.110000e+00
  SP3q TC4vq  1 3.650000e-01    1.910000e+00
  SP3q TC3vq  1 3.660000e-01    1.600000e+00
  SP3q TC2vq  1 3.660000e-01    1.600000e+00
  SP3q TC1vq  1 3.780000e-01    1.450000e+00
  SP3q TX4vq  1 3.650000e-01    2.340000e+00
  SP3q TX3vq  1 3.650000e-01    2.340000e+00
  SP3q TX2vq  1 3.650000e-01    2.110000e+00
  SP3q TX1vq  1 3.650000e-01    1.910000e+00
  SP3q TC6eq  1 3.650000e-01    2.340000e+00
  SP3q TC5eq  1 3.650000e-01    2.110000e+00
  SP3q TC4eq  1 3.650000e-01    1.910000e+00
  SP3q TC3eq  1 3.660000e-01    1.600000e+00
  SP3q TC2eq  1 3.660000e-01    1.600000e+00
  SP3q TC1eq  1 3.780000e-01    1.450000e+00
  SP3q TX4eq  1 3.650000e-01    2.340000e+00
  SP3q TX3eq  1 3.650000e-01    2.340000e+00
  SP3q TX2eq  1 3.650000e-01    2.110000e+00
  SP3q TX1eq  1 3.650000e-01    1.910000e+00
  SP2q TP2dq  1 3.650000e-01    3.370000e+00
  SP2q TP1dq  1 3.650000e-01    3.100000e+00
  SP2q TN6dq  1 3.650000e-01    3.100000e+00
  SP2q TN5dq  1 3.650000e-01    2.830000e+00
  SP2q TN4dq  1 3.650000e-01    2.570000e+00
  SP2q TN3dq  1 3.650000e-01    2.340000e+00
  SP2q TN2dq  1 3.650000e-01    2.340000e+00
  SP2q TN1dq  1 3.650000e-01    2.340000e+00
  SP2q TP2aq  1 3.650000e-01    3.370000e+00
  SP2q TP1aq  1 3.650000e-01    3.100000e+00
  SP2q TN6aq  1 3.650000e-01    3.100000e+00
  SP2q TN5aq  1 3.650000e-01    2.830000e+00
  SP2q TN4aq  1 3.650000e-01    2.570000e+00
  SP2q TN3aq  1 3.650000e-01    2.340000e+00
  SP2q TN2aq  1 3.650000e-01    2.340000e+00
  SP2q TN1aq  1 3.650000e-01    2.340000e+00
  SP2q TC6vq  1 3.650000e-01    2.340000e+00
  SP2q TC5vq  1 3.650000e-01    2.110000e+00
  SP2q TC4vq  1 3.650000e-01    1.910000e+00
  SP2q TC3vq  1 3.650000e-01    1.750000e+00
  SP2q TC2vq  1 3.650000e-01    1.750000e+00
  SP2q TC1vq  1 3.660000e-01    1.600000e+00
  SP2q TX4vq  1 3.650000e-01    2.340000e+00
  SP2q TX3vq  1 3.650000e-01    2.340000e+00
  SP2q TX2vq  1 3.650000e-01    2.110000e+00
  SP2q TX1vq  1 3.650000e-01    1.910000e+00
  SP2q TC6eq  1 3.650000e-01    2.340000e+00
  SP2q TC5eq  1 3.650000e-01    2.110000e+00
  SP2q TC4eq  1 3.650000e-01    1.910000e+00
  SP2q TC3eq  1 3.650000e-01    1.750000e+00
  SP2q TC2eq  1 3.650000e-01    1.750000e+00
  SP2q TC1eq  1 3.660000e-01    1.600000e+00
  SP2q TX4eq  1 3.650000e-01    2.340000e+00
  SP2q TX3eq  1 3.650000e-01    2.340000e+00
  SP2q TX2eq  1 3.650000e-01    2.110000e+00
  SP2q TX1eq  1 3.650000e-01    1.910000e+00
  SP1q TP1dq  1 3.650000e-01    3.100000e+00
  SP1q TN6dq  1 3.650000e-01    3.100000e+00
  SP1q TN5dq  1 3.650000e-01    2.830000e+00
  SP1q TN4dq  1 3.650000e-01    2.830000e+00
  SP1q TN3dq  1 3.650000e-01    2.340000e+00
  SP1q TN2dq  1 3.650000e-01    2.340000e+00
  SP1q TN1dq  1 3.650000e-01    2.340000e+00
  SP1q TP1aq  1 3.650000e-01    3.100000e+00
  SP1q TN6aq  1 3.650000e-01    3.100000e+00
  SP1q TN5aq  1 3.650000e-01    2.830000e+00
  SP1q TN4aq  1 3.650000e-01    2.830000e+00
  SP1q TN3aq  1 3.650000e-01    2.340000e+00
  SP1q TN2aq  1 3.650000e-01    2.340000e+00
  SP1q TN1aq  1 3.650000e-01    2.340000e+00
  SP1q TC6vq  1 3.650000e-01    2.340000e+00
  SP1q TC5vq  1 3.650000e-01    2.110000e+00
  SP1q TC4vq  1 3.650000e-01    1.910000e+00
  SP1q TC3vq  1 3.650000e-01    1.750000e+00
  SP1q TC2vq  1 3.650000e-01    1.750000e+00
  SP1q TC1vq  1 3.660000e-01    1.600000e+00
  SP1q TX4vq  1 3.650000e-01    2.340000e+00
  SP1q TX3vq  1 3.650000e-01    2.340000e+00
  SP1q TX2vq  1 3.650000e-01    2.110000e+00
  SP1q TX1vq  1 3.650000e-01    1.910000e+00
  SP1q TC6eq  1 3.650000e-01    2.340000e+00
  SP1q TC5eq  1 3.650000e-01    2.110000e+00
  SP1q TC4eq  1 3.650000e-01    1.910000e+00
  SP1q TC3eq  1 3.650000e-01    1.750000e+00
  SP1q TC2eq  1 3.650000e-01    1.750000e+00
  SP1q TC1eq  1 3.660000e-01    1.600000e+00
  SP1q TX4eq  1 3.650000e-01    2.340000e+00
  SP1q TX3eq  1 3.650000e-01    2.340000e+00
  SP1q TX2eq  1 3.650000e-01    2.110000e+00
  SP1q TX1eq  1 3.650000e-01    1.910000e+00
  SN6q TN6dq  1 3.650000e-01    3.100000e+00
  SN6q TN5dq  1 3.650000e-01    3.100000e+00
  SN6q TN4dq  1 3.650000e-01    3.100000e+00
  SN6q TN3dq  1 3.650000e-01    2.570000e+00
  SN6q TN2dq  1 3.650000e-01    2.340000e+00
  SN6q TN1dq  1 3.650000e-01    2.340000e+00
  SN6q TN6aq  1 3.650000e-01    3.100000e+00
  SN6q TN5aq  1 3.650000e-01    3.100000e+00
  SN6q TN4aq  1 3.650000e-01    3.100000e+00
  SN6q TN3aq  1 3.650000e-01    2.570000e+00
  SN6q TN2aq  1 3.650000e-01    2.340000e+00
  SN6q TN1aq  1 3.650000e-01    2.340000e+00
  SN6q TC6vq  1 3.650000e-01    2.570000e+00
  SN6q TC5vq  1 3.650000e-01    2.340000e+00
  SN6q TC4vq  1 3.650000e-01    2.110000e+00
  SN6q TC3vq  1 3.650000e-01    1.910000e+00
  SN6q TC2vq  1 3.650000e-01    1.910000e+00
  SN6q TC1vq  1 3.650000e-01    1.750000e+00
  SN6q TX4vq  1 3.650000e-01    2.570000e+00
  SN6q TX3vq  1 3.650000e-01    2.340000e+00
  SN6q TX2vq  1 3.650000e-01    2.110000e+00
  SN6q TX1vq  1 3.650000e-01    1.910000e+00
  SN6q TC6eq  1 3.650000e-01    2.570000e+00
  SN6q TC5eq  1 3.650000e-01    2.340000e+00
  SN6q TC4eq  1 3.650000e-01    2.110000e+00
  SN6q TC3eq  1 3.650000e-01    1.910000e+00
  SN6q TC2eq  1 3.650000e-01    1.910000e+00
  SN6q TC1eq  1 3.650000e-01    1.750000e+00
  SN6q TX4eq  1 3.650000e-01    2.570000e+00
  SN6q TX3eq  1 3.650000e-01    2.340000e+00
  SN6q TX2eq  1 3.650000e-01    2.110000e+00
  SN6q TX1eq  1 3.650000e-01    1.910000e+00
  SN5q TN5dq  1 3.650000e-01    2.830000e+00
  SN5q TN4dq  1 3.650000e-01    2.830000e+00
  SN5q TN3dq  1 3.650000e-01    2.570000e+00
  SN5q TN2dq  1 3.650000e-01    2.570000e+00
  SN5q TN1dq  1 3.650000e-01    2.340000e+00
  SN5q TN5aq  1 3.650000e-01    2.830000e+00
  SN5q TN4aq  1 3.650000e-01    2.830000e+00
  SN5q TN3aq  1 3.650000e-01    2.570000e+00
  SN5q TN2aq  1 3.650000e-01    2.570000e+00
  SN5q TN1aq  1 3.650000e-01    2.340000e+00
  SN5q TC6vq  1 3.650000e-01    2.570000e+00
  SN5q TC5vq  1 3.650000e-01    2.340000e+00
  SN5q TC4vq  1 3.650000e-01    2.110000e+00
  SN5q TC3vq  1 3.650000e-01    2.110000e+00
  SN5q TC2vq  1 3.650000e-01    1.910000e+00
  SN5q TC1vq  1 3.650000e-01    1.750000e+00
  SN5q TX4vq  1 3.650000e-01    2.830000e+00
  SN5q TX3vq  1 3.650000e-01    2.570000e+00
  SN5q TX2vq  1 3.650000e-01    2.340000e+00
  SN5q TX1vq  1 3.650000e-01    2.110000e+00
  SN5q TC6eq  1 3.650000e-01    2.570000e+00
  SN5q TC5eq  1 3.650000e-01    2.340000e+00
  SN5q TC4eq  1 3.650000e-01    2.110000e+00
  SN5q TC3eq  1 3.650000e-01    2.110000e+00
  SN5q TC2eq  1 3.650000e-01    1.910000e+00
  SN5q TC1eq  1 3.650000e-01    1.750000e+00
  SN5q TX4eq  1 3.650000e-01    2.830000e+00
  SN5q TX3eq  1 3.650000e-01    2.570000e+00
  SN5q TX2eq  1 3.650000e-01    2.340000e+00
  SN5q TX1eq  1 3.650000e-01    2.110000e+00
  SN4q TN4dq  1 3.650000e-01    2.830000e+00
  SN4q TN3dq  1 3.650000e-01    2.570000e+00
  SN4q TN2dq  1 3.650000e-01    2.570000e+00
  SN4q TN1dq  1 3.650000e-01    2.340000e+00
  SN4q TN4aq  1 3.650000e-01    2.830000e+00
  SN4q TN3aq  1 3.650000e-01    2.570000e+00
  SN4q TN2aq  1 3.650000e-01    2.570000e+00
  SN4q TN1aq  1 3.650000e-01    2.340000e+00
  SN4q TC6vq  1 3.650000e-01    2.570000e+00
  SN4q TC5vq  1 3.650000e-01    2.340000e+00
  SN4q TC4vq  1 3.650000e-01    2.340000e+00
  SN4q TC3vq  1 3.650000e-01    2.110000e+00
  SN4q TC2vq  1 3.650000e-01    1.910000e+00
  SN4q TC1vq  1 3.650000e-01    1.750000e+00
  SN4q TX4vq  1 3.650000e-01    3.100000e+00
  SN4q TX3vq  1 3.650000e-01    2.830000e+00
  SN4q TX2vq  1 3.650000e-01    2.340000e+00
  SN4q TX1vq  1 3.650000e-01    2.110000e+00
  SN4q TC6eq  1 3.650000e-01    2.570000e+00
  SN4q TC5eq  1 3.650000e-01    2.340000e+00
  SN4q TC4eq  1 3.650000e-01    2.340000e+00
  SN4q TC3eq  1 3.650000e-01    2.110000e+00
  SN4q TC2eq  1 3.650000e-01    1.910000e+00
  SN4q TC1eq  1 3.650000e-01    1.750000e+00
  SN4q TX4eq  1 3.650000e-01    3.100000e+00
  SN4q TX3eq  1 3.650000e-01    2.830000e+00
  SN4q TX2eq  1 3.650000e-01    2.340000e+00
  SN4q TX1eq  1 3.650000e-01    2.110000e+00
  SN3q TN3dq  1 3.650000e-01    2.570000e+00
  SN3q TN2dq  1 3.650000e-01    2.570000e+00
  SN3q TN1dq  1 3.650000e-01    2.340000e+00
  SN3q TN3aq  1 3.650000e-01    2.570000e+00
  SN3q TN2aq  1 3.650000e-01    2.570000e+00
  SN3q TN1aq  1 3.650000e-01    2.340000e+00
  SN3q TC6vq  1 3.650000e-01    2.570000e+00
  SN3q TC5vq  1 3.650000e-01    2.340000e+00
  SN3q TC4vq  1 3.650000e-01    2.340000e+00
  SN3q TC3vq  1 3.650000e-01    2.110000e+00
  SN3q TC2vq  1 3.650000e-01    2.110000e+00
  SN3q TC1vq  1 3.650000e-01    1.910000e+00
  SN3q TX4vq  1 3.650000e-01    2.830000e+00
  SN3q TX3vq  1 3.650000e-01    2.570000e+00
  SN3q TX2vq  1 3.650000e-01    2.340000e+00
  SN3q TX1vq  1 3.650000e-01    2.340000e+00
  SN3q TC6eq  1 3.650000e-01    2.570000e+00
  SN3q TC5eq  1 3.650000e-01    2.340000e+00
  SN3q TC4eq  1 3.650000e-01    2.340000e+00
  SN3q TC3eq  1 3.650000e-01    2.110000e+00
  SN3q TC2eq  1 3.650000e-01    2.110000e+00
  SN3q TC1eq  1 3.650000e-01    1.910000e+00
  SN3q TX4eq  1 3.650000e-01    2.830000e+00
  SN3q TX3eq  1 3.650000e-01    2.570000e+00
  SN3q TX2eq  1 3.650000e-01    2.340000e+00
  SN3q TX1eq  1 3.650000e-01    2.340000e+00
  SN2q TN2dq  1 3.650000e-01    2.570000e+00
  SN2q TN1dq  1 3.650000e-01    2.340000e+00
  SN2q TN2aq  1 3.650000e-01    2.570000e+00
  SN2q TN1aq  1 3.650000e-01    2.340000e+00
  SN2q TC6vq  1 3.650000e-01    2.570000e+00
  SN2q TC5vq  1 3.650000e-01    2.340000e+00
  SN2q TC4vq  1 3.650000e-01    2.340000e+00
  SN2q TC3vq  1 3.650000e-01    2.340000e+00
  SN2q TC2vq  1 3.650000e-01    2.110000e+00
  SN2q TC1vq  1 3.650000e-01    1.910000e+00
  SN2q TX4vq  1 3.650000e-01    2.830000e+00
  SN2q TX3vq  1 3.650000e-01    2.570000e+00
  SN2q TX2vq  1 3.650000e-01    2.340000e+00
  SN2q TX1vq  1 3.650000e-01    2.340000e+00
  SN2q TC6eq  1 3.650000e-01    2.570000e+00
  SN2q TC5eq  1 3.650000e-01    2.340000e+00
  SN2q TC4eq  1 3.650000e-01    2.340000e+00
  SN2q TC3eq  1 3.650000e-01    2.340000e+00
  SN2q TC2eq  1 3.650000e-01    2.110000e+00
  SN2q TC1eq  1 3.650000e-01    1.910000e+00
  SN2q TX4eq  1 3.650000e-01    2.830000e+00
  SN2q TX3eq  1 3.650000e-01    2.570000e+00
  SN2q TX2eq  1 3.650000e-01    2.340000e+00
  SN2q TX1eq  1 3.650000e-01    2.340000e+00
  SN1q TN1dq  1 3.650000e-01    2.570000e+00
  SN1q TN1aq  1 3.650000e-01    2.570000e+00
  SN1q TC6vq  1 3.650000e-01    2.830000e+00
  SN1q TC5vq  1 3.650000e-01    2.570000e+00
  SN1q TC4vq  1 3.650000e-01    2.570000e+00
  SN1q TC3vq  1 3.650000e-01    2.340000e+00
  SN1q TC2vq  1 3.650000e-01    2.110000e+00
  SN1q TC1vq  1 3.650000e-01    1.910000e+00
  SN1q TX4vq  1 3.650000e-01    2.570000e+00
  SN1q TX3vq  1 3.650000e-01    2.570000e+00
  SN1q TX2vq  1 3.650000e-01    2.340000e+00
  SN1q TX1vq  1 3.650000e-01    2.340000e+00
  SN1q TC6eq  1 3.650000e-01    2.830000e+00
  SN1q TC5eq  1 3.650000e-01    2.570000e+00
  SN1q TC4eq  1 3.650000e-01    2.570000e+00
  SN1q TC3eq  1 3.650000e-01    2.340000e+00
  SN1q TC2eq  1 3.650000e-01    2.110000e+00
  SN1q TC1eq  1 3.650000e-01    1.910000e+00
  SN1q TX4eq  1 3.650000e-01    2.570000e+00
  SN1q TX3eq  1 3.650000e-01    2.570000e+00
  SN1q TX2eq  1 3.650000e-01    2.340000e+00
  SN1q TX1eq  1 3.650000e-01    2.340000e+00
  SC6q TC6vq  1 3.650000e-01    2.830000e+00
  SC6q TC5vq  1 3.650000e-01    2.570000e+00
  SC6q TC4vq  1 3.650000e-01    2.570000e+00
  SC6q TC3vq  1 3.650000e-01    2.340000e+00
  SC6q TC2vq  1 3.650000e-01    2.110000e+00
  SC6q TC1vq  1 3.650000e-01    1.910000e+00
  SC6q TX4vq  1 3.650000e-01    2.570000e+00
  SC6q TX3vq  1 3.650000e-01    2.570000e+00
  SC6q TX2vq  1 3.650000e-01    2.570000e+00
  SC6q TX1vq  1 3.650000e-01    2.570000e+00
  SC6q TC6eq  1 3.650000e-01    2.830000e+00
  SC6q TC5eq  1 3.650000e-01    2.570000e+00
  SC6q TC4eq  1 3.650000e-01    2.570000e+00
  SC6q TC3eq  1 3.650000e-01    2.340000e+00
  SC6q TC2eq  1 3.650000e-01    2.110000e+00
  SC6q TC1eq  1 3.650000e-01    1.910000e+00
  SC6q TX4eq  1 3.650000e-01    2.570000e+00
  SC6q TX3eq  1 3.650000e-01    2.570000e+00
  SC6q TX2eq  1 3.650000e-01    2.570000e+00
  SC6q TX1eq  1 3.650000e-01    2.570000e+00
  SC5q TC5vq  1 3.650000e-01    2.570000e+00
  SC5q TC4vq  1 3.650000e-01    2.570000e+00
  SC5q TC3vq  1 3.650000e-01    2.340000e+00
  SC5q TC2vq  1 3.650000e-01    2.110000e+00
  SC5q TC1vq  1 3.650000e-01    2.110000e+00
  SC5q TX4vq  1 3.650000e-01    2.340000e+00
  SC5q TX3vq  1 3.650000e-01    2.340000e+00
  SC5q TX2vq  1 3.650000e-01    2.340000e+00
  SC5q TX1vq  1 3.650000e-01    2.570000e+00
  SC5q TC5eq  1 3.650000e-01    2.570000e+00
  SC5q TC4eq  1 3.650000e-01    2.570000e+00
  SC5q TC3eq  1 3.650000e-01    2.340000e+00
  SC5q TC2eq  1 3.650000e-01    2.110000e+00
  SC5q TC1eq  1 3.650000e-01    2.110000e+00
  SC5q TX4eq  1 3.650000e-01    2.340000e+00
  SC5q TX3eq  1 3.650000e-01    2.340000e+00
  SC5q TX2eq  1 3.650000e-01    2.340000e+00
  SC5q TX1eq  1 3.650000e-01    2.570000e+00
  SC4q TC4vq  1 3.650000e-01    2.570000e+00
  SC4q TC3vq  1 3.650000e-01    2.570000e+00
  SC4q TC2vq  1 3.650000e-01    2.340000e+00
  SC4q TC1vq  1 3.650000e-01    2.110000e+00
  SC4q TX4vq  1 3.650000e-01    2.340000e+00
  SC4q TX3vq  1 3.650000e-01    2.340000e+00
  SC4q TX2vq  1 3.650000e-01    2.340000e+00
  SC4q TX1vq  1 3.650000e-01    2.570000e+00
  SC4q TC4eq  1 3.650000e-01    2.570000e+00
  SC4q TC3eq  1 3.650000e-01    2.570000e+00
  SC4q TC2eq  1 3.650000e-01    2.340000e+00
  SC4q TC1eq  1 3.650000e-01    2.110000e+00
  SC4q TX4eq  1 3.650000e-01    2.340000e+00
  SC4q TX3eq  1 3.650000e-01    2.340000e+00
  SC4q TX2eq  1 3.650000e-01    2.340000e+00
  SC4q TX1eq  1 3.650000e-01    2.570000e+00
  SC3q TC3vq  1 3.650000e-01    2.570000e+00
  SC3q TC2vq  1 3.650000e-01    2.570000e+00
  SC3q TC1vq  1 3.650000e-01    2.570000e+00
  SC3q TX4vq  1 3.650000e-01    2.340000e+00
  SC3q TX3vq  1 3.650000e-01    2.340000e+00
  SC3q TX2vq  1 3.650000e-01    2.340000e+00
  SC3q TX1vq  1 3.650000e-01    2.570000e+00
  SC3q TC3eq  1 3.650000e-01    2.570000e+00
  SC3q TC2eq  1 3.650000e-01    2.570000e+00
  SC3q TC1eq  1 3.650000e-01    2.570000e+00
  SC3q TX4eq  1 3.650000e-01    2.340000e+00
  SC3q TX3eq  1 3.650000e-01    2.340000e+00
  SC3q TX2eq  1 3.650000e-01    2.340000e+00
  SC3q TX1eq  1 3.650000e-01    2.570000e+00
  SC2q TC2vq  1 3.650000e-01    2.570000e+00
  SC2q TC1vq  1 3.650000e-01    2.830000e+00
  SC2q TX4vq  1 3.650000e-01    1.910000e+00
  SC2q TX3vq  1 3.650000e-01    2.340000e+00
  SC2q TX2vq  1 3.650000e-01    2.340000e+00
  SC2q TX1vq  1 3.650000e-01    2.340000e+00
  SC2q TC2eq  1 3.650000e-01    2.570000e+00
  SC2q TC1eq  1 3.650000e-01    2.830000e+00
  SC2q TX4eq  1 3.650000e-01    1.910000e+00
  SC2q TX3eq  1 3.650000e-01    2.340000e+00
  SC2q TX2eq  1 3.650000e-01    2.340000e+00
  SC2q TX1eq  1 3.650000e-01    2.340000e+00
  SC1q TC1vq  1 3.650000e-01    2.570000e+00
  SC1q TX4vq  1 3.650000e-01    1.910000e+00
  SC1q TX3vq  1 3.650000e-01    2.340000e+00
  SC1q TX2vq  1 3.650000e-01    2.340000e+00
  SC1q TX1vq  1 3.650000e-01    2.340000e+00
  SC1q TC1eq  1 3.650000e-01    2.570000e+00
  SC1q TX4eq  1 3.650000e-01    1.910000e+00
  SC1q TX3eq  1 3.650000e-01    2.340000e+00
  SC1q TX2eq  1 3.650000e-01    2.340000e+00
  SC1q TX1eq  1 3.650000e-01    2.340000e+00
  SX4q TX4vq  1 3.650000e-01    2.570000e+00
  SX4q TX3vq  1 3.650000e-01    2.570000e+00
  SX4q TX2vq  1 3.650000e-01    2.570000e+00
  SX4q TX1vq  1 3.650000e-01    2.570000e+00
  SX4q TX4eq  1 3.650000e-01    2.570000e+00
  SX4q TX3eq  1 3.650000e-01    2.570000e+00
  SX4q TX2eq  1 3.650000e-01    2.570000e+00
  SX4q TX1eq  1 3.650000e-01    2.570000e+00
  SX3q TX3vq  1 3.650000e-01    2.570000e+00
  SX3q TX2vq  1 3.650000e-01    2.830000e+00
  SX3q TX1vq  1 3.650000e-01    2.830000e+00
  SX3q TX3eq  1 3.650000e-01    2.570000e+00
  SX3q TX2eq  1 3.650000e-01    2.830000e+00
  SX3q TX1eq  1 3.650000e-01    2.830000e+00
  SX2q TX2vq  1 3.650000e-01    2.830000e+00
  SX2q TX1vq  1 3.650000e-01    2.830000e+00
  SX2q TX2eq  1 3.650000e-01    2.830000e+00
  SX2q TX1eq  1 3.650000e-01    2.830000e+00
  SX1q TX1vq  1 3.650000e-01    3.100000e+00
  SX1q TX1eq  1 3.650000e-01    3.100000e+00
  SP6h TX1eq  1 3.650000e-01    1.750000e+00
  SP6h TX2eq  1 3.650000e-01    1.910000e+00
  SP6h TX3eq  1 3.650000e-01    2.110000e+00
  SP6h TX4eq  1 3.650000e-01    2.110000e+00
  SP6h TC1eq  1 4.040000e-01    1.130000e+00
  SP6h TC2eq  1 3.780000e-01    1.450000e+00
  SP6h TC3eq  1 3.780000e-01    1.450000e+00
  SP6h TC4eq  1 3.660000e-01    1.600000e+00
  SP6h TC5eq  1 3.650000e-01    1.750000e+00
  SP6h TC6eq  1 3.650000e-01    1.910000e+00
  SP6h TX1vq  1 3.650000e-01    1.750000e+00
  SP6h TX2vq  1 3.650000e-01    1.910000e+00
  SP6h TX3vq  1 3.650000e-01    2.110000e+00
  SP6h TX4vq  1 3.650000e-01    2.110000e+00
  SP6h TC1vq  1 4.040000e-01    1.130000e+00
  SP6h TC2vq  1 3.780000e-01    1.450000e+00
  SP6h TC3vq  1 3.780000e-01    1.450000e+00
  SP6h TC4vq  1 3.660000e-01    1.600000e+00
  SP6h TC5vq  1 3.650000e-01    1.750000e+00
  SP6h TC6vq  1 3.650000e-01    1.910000e+00
  SP6h TN1aq  1 3.650000e-01    1.750000e+00
  SP6h TN2aq  1 3.650000e-01    1.910000e+00
  SP6h TN3aq  1 3.650000e-01    2.110000e+00
  SP6h TN4aq  1 3.650000e-01    2.340000e+00
  SP6h TN5aq  1 3.650000e-01    2.570000e+00
  SP6h TN6aq  1 3.650000e-01    3.100000e+00
  SP6h TP1aq  1 3.650000e-01    3.370000e+00
  SP6h TP2aq  1 3.650000e-01    3.640000e+00
  SP6h TP3aq  1 3.650000e-01    3.640000e+00
  SP6h TP4aq  1 3.650000e-01    3.930000e+00
  SP6h TP5aq  1 3.650000e-01    4.220000e+00
  SP6h TP6aq  1 3.650000e-01    4.510000e+00
  SP6h TN1dq  1 3.650000e-01    1.750000e+00
  SP6h TN2dq  1 3.650000e-01    1.910000e+00
  SP6h TN3dq  1 3.650000e-01    2.110000e+00
  SP6h TN4dq  1 3.650000e-01    2.340000e+00
  SP6h TN5dq  1 3.650000e-01    2.570000e+00
  SP6h TN6dq  1 3.650000e-01    3.100000e+00
  SP6h TP1dq  1 3.650000e-01    3.370000e+00
  SP6h TP2dq  1 3.650000e-01    3.640000e+00
  SP6h TP3dq  1 3.650000e-01    3.640000e+00
  SP6h TP4dq  1 3.650000e-01    3.930000e+00
  SP6h TP5dq  1 3.650000e-01    4.220000e+00
  SP6h TP6dq  1 3.650000e-01    4.510000e+00
  SP5h TX1eq  1 3.650000e-01    1.750000e+00
  SP5h TX2eq  1 3.650000e-01    2.110000e+00
  SP5h TX3eq  1 3.650000e-01    2.110000e+00
  SP5h TX4eq  1 3.650000e-01    2.340000e+00
  SP5h TC1eq  1 3.780000e-01    1.450000e+00
  SP5h TC2eq  1 3.660000e-01    1.600000e+00
  SP5h TC3eq  1 3.660000e-01    1.600000e+00
  SP5h TC4eq  1 3.650000e-01    1.750000e+00
  SP5h TC5eq  1 3.650000e-01    1.910000e+00
  SP5h TC6eq  1 3.650000e-01    1.910000e+00
  SP5h TX1vq  1 3.650000e-01    1.750000e+00
  SP5h TX2vq  1 3.650000e-01    2.110000e+00
  SP5h TX3vq  1 3.650000e-01    2.110000e+00
  SP5h TX4vq  1 3.650000e-01    2.340000e+00
  SP5h TC1vq  1 3.780000e-01    1.450000e+00
  SP5h TC2vq  1 3.660000e-01    1.600000e+00
  SP5h TC3vq  1 3.660000e-01    1.600000e+00
  SP5h TC4vq  1 3.650000e-01    1.750000e+00
  SP5h TC5vq  1 3.650000e-01    1.910000e+00
  SP5h TC6vq  1 3.650000e-01    1.910000e+00
  SP5h TN1aq  1 3.650000e-01    1.750000e+00
  SP5h TN2aq  1 3.650000e-01    1.910000e+00
  SP5h TN3aq  1 3.650000e-01    2.110000e+00
  SP5h TN4aq  1 3.650000e-01    2.570000e+00
  SP5h TN5aq  1 3.650000e-01    2.570000e+00
  SP5h TN6aq  1 3.650000e-01    2.830000e+00
  SP5h TP1aq  1 3.650000e-01    3.100000e+00
  SP5h TP2aq  1 3.650000e-01    3.370000e+00
  SP5h TP3aq  1 3.650000e-01    3.370000e+00
  SP5h TP4aq  1 3.650000e-01    3.640000e+00
  SP5h TP5aq  1 3.650000e-01    3.930000e+00
  SP5h TN1dq  1 3.650000e-01    1.750000e+00
  SP5h TN2dq  1 3.650000e-01    1.910000e+00
  SP5h TN3dq  1 3.650000e-01    2.110000e+00
  SP5h TN4dq  1 3.650000e-01    2.570000e+00
  SP5h TN5dq  1 3.650000e-01    2.570000e+00
  SP5h TN6dq  1 3.650000e-01    2.830000e+00
  SP5h TP1dq  1 3.650000e-01    3.100000e+00
  SP5h TP2dq  1 3.650000e-01    3.370000e+00
  SP5h TP3dq  1 3.650000e-01    3.370000e+00
  SP5h TP4dq  1 3.650000e-01    3.640000e+00
  SP5h TP5dq  1 3.650000e-01    3.930000e+00
  SP4h TX1eq  1 3.650000e-01    1.910000e+00
  SP4h TX2eq  1 3.650000e-01    2.110000e+00
  SP4h TX3eq  1 3.650000e-01    2.110000e+00
  SP4h TX4eq  1 3.650000e-01    2.340000e+00
  SP4h TC1eq  1 3.780000e-01    1.450000e+00
  SP4h TC2eq  1 3.660000e-01    1.600000e+00
  SP4h TC3eq  1 3.660000e-01    1.600000e+00
  SP4h TC4eq  1 3.650000e-01    1.750000e+00
  SP4h TC5eq  1 3.650000e-01    1.910000e+00
  SP4h TC6eq  1 3.650000e-01    2.110000e+00
  SP4h TX1vq  1 3.650000e-01    1.910000e+00
  SP4h TX2vq  1 3.650000e-01    2.110000e+00
  SP4h TX3vq  1 3.650000e-01    2.110000e+00
  SP4h TX4vq  1 3.650000e-01    2.340000e+00
  SP4h TC1vq  1 3.780000e-01    1.450000e+00
  SP4h TC2vq  1 3.660000e-01    1.600000e+00
  SP4h TC3vq  1 3.660000e-01    1.600000e+00
  SP4h TC4vq  1 3.650000e-01    1.750000e+00
  SP4h TC5vq  1 3.650000e-01    1.910000e+00
  SP4h TC6vq  1 3.650000e-01    2.110000e+00
  SP4h TN1aq  1 3.650000e-01    1.910000e+00
  SP4h TN2aq  1 3.650000e-01    2.110000e+00
  SP4h TN3aq  1 3.650000e-01    2.340000e+00
  SP4h TN4aq  1 3.650000e-01    2.570000e+00
  SP4h TN5aq  1 3.650000e-01    2.570000e+00
  SP4h TN6aq  1 3.650000e-01    2.830000e+00
  SP4h TP1aq  1 3.650000e-01    3.100000e+00
  SP4h TP2aq  1 3.650000e-01    3.370000e+00
  SP4h TP3aq  1 3.650000e-01    3.370000e+00
  SP4h TP4aq  1 3.650000e-01    3.640000e+00
  SP4h TN1dq  1 3.650000e-01    1.910000e+00
  SP4h TN2dq  1 3.650000e-01    2.110000e+00
  SP4h TN3dq  1 3.650000e-01    2.340000e+00
  SP4h TN4dq  1 3.650000e-01    2.570000e+00
  SP4h TN5dq  1 3.650000e-01    2.570000e+00
  SP4h TN6dq  1 3.650000e-01    2.830000e+00
  SP4h TP1dq  1 3.650000e-01    3.100000e+00
  SP4h TP2dq  1 3.650000e-01    3.370000e+00
  SP4h TP3dq  1 3.650000e-01    3.370000e+00
  SP4h TP4dq  1 3.650000e-01    3.640000e+00
  SP3h TX1eq  1 3.650000e-01    1.910000e+00
  SP3h TX2eq  1 3.650000e-01    2.110000e+00
  SP3h TX3eq  1 3.650000e-01    2.340000e+00
  SP3h TX4eq  1 3.650000e-01    2.340000e+00
  SP3h TC1eq  1 3.780000e-01    1.450000e+00
  SP3h TC2eq  1 3.660000e-01    1.600000e+00
  SP3h TC3eq  1 3.660000e-01    1.600000e+00
  SP3h TC4eq  1 3.650000e-01    1.910000e+00
  SP3h TC5eq  1 3.650000e-01    2.110000e+00
  SP3h TC6eq  1 3.650000e-01    2.340000e+00
  SP3h TX1vq  1 3.650000e-01    1.910000e+00
  SP3h TX2vq  1 3.650000e-01    2.110000e+00
  SP3h TX3vq  1 3.650000e-01    2.340000e+00
  SP3h TX4vq  1 3.650000e-01    2.340000e+00
  SP3h TC1vq  1 3.780000e-01    1.450000e+00
  SP3h TC2vq  1 3.660000e-01    1.600000e+00
  SP3h TC3vq  1 3.660000e-01    1.600000e+00
  SP3h TC4vq  1 3.650000e-01    1.910000e+00
  SP3h TC5vq  1 3.650000e-01    2.110000e+00
  SP3h TC6vq  1 3.650000e-01    2.340000e+00
  SP3h TN1aq  1 3.650000e-01    2.110000e+00
  SP3h TN2aq  1 3.650000e-01    2.340000e+00
  SP3h TN3aq  1 3.650000e-01    2.340000e+00
  SP3h TN4aq  1 3.650000e-01    2.570000e+00
  SP3h TN5aq  1 3.650000e-01    2.570000e+00
  SP3h TN6aq  1 3.650000e-01    2.830000e+00
  SP3h TP1aq  1 3.650000e-01    3.100000e+00
  SP3h TP2aq  1 3.650000e-01    3.370000e+00
  SP3h TP3aq  1 3.650000e-01    3.370000e+00
  SP3h TN1dq  1 3.650000e-01    2.110000e+00
  SP3h TN2dq  1 3.650000e-01    2.340000e+00
  SP3h TN3dq  1 3.650000e-01    2.340000e+00
  SP3h TN4dq  1 3.650000e-01    2.570000e+00
  SP3h TN5dq  1 3.650000e-01    2.570000e+00
  SP3h TN6dq  1 3.650000e-01    2.830000e+00
  SP3h TP1dq  1 3.650000e-01    3.100000e+00
  SP3h TP2dq  1 3.650000e-01    3.370000e+00
  SP3h TP3dq  1 3.650000e-01    3.370000e+00
  SP2h TX1eq  1 3.650000e-01    1.910000e+00
  SP2h TX2eq  1 3.650000e-01    2.110000e+00
  SP2h TX3eq  1 3.650000e-01    2.340000e+00
  SP2h TX4eq  1 3.650000e-01    2.340000e+00
  SP2h TC1eq  1 3.660000e-01    1.600000e+00
  SP2h TC2eq  1 3.650000e-01    1.750000e+00
  SP2h TC3eq  1 3.650000e-01    1.750000e+00
  SP2h TC4eq  1 3.650000e-01    1.910000e+00
  SP2h TC5eq  1 3.650000e-01    2.110000e+00
  SP2h TC6eq  1 3.650000e-01    2.340000e+00
  SP2h TX1vq  1 3.650000e-01    1.910000e+00
  SP2h TX2vq  1 3.650000e-01    2.110000e+00
  SP2h TX3vq  1 3.650000e-01    2.340000e+00
  SP2h TX4vq  1 3.650000e-01    2.340000e+00
  SP2h TC1vq  1 3.660000e-01    1.600000e+00
  SP2h TC2vq  1 3.650000e-01    1.750000e+00
  SP2h TC3vq  1 3.650000e-01    1.750000e+00
  SP2h TC4vq  1 3.650000e-01    1.910000e+00
  SP2h TC5vq  1 3.650000e-01    2.110000e+00
  SP2h TC6vq  1 3.650000e-01    2.340000e+00
  SP2h TN1aq  1 3.650000e-01    2.340000e+00
  SP2h TN2aq  1 3.650000e-01    2.340000e+00
  SP2h TN3aq  1 3.650000e-01    2.340000e+00
  SP2h TN4aq  1 3.650000e-01    2.570000e+00
  SP2h TN5aq  1 3.650000e-01    2.830000e+00
  SP2h TN6aq  1 3.650000e-01    3.100000e+00
  SP2h TP1aq  1 3.650000e-01    3.100000e+00
  SP2h TP2aq  1 3.650000e-01    3.370000e+00
  SP2h TN1dq  1 3.650000e-01    2.340000e+00
  SP2h TN2dq  1 3.650000e-01    2.340000e+00
  SP2h TN3dq  1 3.650000e-01    2.340000e+00
  SP2h TN4dq  1 3.650000e-01    2.570000e+00
  SP2h TN5dq  1 3.650000e-01    2.830000e+00
  SP2h TN6dq  1 3.650000e-01    3.100000e+00
  SP2h TP1dq  1 3.650000e-01    3.100000e+00
  SP2h TP2dq  1 3.650000e-01    3.370000e+00
  SP1h TX1eq  1 3.650000e-01    1.910000e+00
  SP1h TX2eq  1 3.650000e-01    2.110000e+00
  SP1h TX3eq  1 3.650000e-01    2.340000e+00
  SP1h TX4eq  1 3.650000e-01    2.340000e+00
  SP1h TC1eq  1 3.660000e-01    1.600000e+00
  SP1h TC2eq  1 3.650000e-01    1.750000e+00
  SP1h TC3eq  1 3.650000e-01    1.750000e+00
  SP1h TC4eq  1 3.650000e-01    1.910000e+00
  SP1h TC5eq  1 3.650000e-01    2.110000e+00
  SP1h TC6eq  1 3.650000e-01    2.340000e+00
  SP1h TX1vq  1 3.650000e-01    1.910000e+00
  SP1h TX2vq  1 3.650000e-01    2.110000e+00
  SP1h TX3vq  1 3.650000e-01    2.340000e+00
  SP1h TX4vq  1 3.650000e-01    2.340000e+00
  SP1h TC1vq  1 3.660000e-01    1.600000e+00
  SP1h TC2vq  1 3.650000e-01    1.750000e+00
  SP1h TC3vq  1 3.650000e-01    1.750000e+00
  SP1h TC4vq  1 3.650000e-01    1.910000e+00
  SP1h TC5vq  1 3.650000e-01    2.110000e+00
  SP1h TC6vq  1 3.650000e-01    2.340000e+00
  SP1h TN1aq  1 3.650000e-01    2.340000e+00
  SP1h TN2aq  1 3.650000e-01    2.340000e+00
  SP1h TN3aq  1 3.650000e-01    2.340000e+00
  SP1h TN4aq  1 3.650000e-01    2.830000e+00
  SP1h TN5aq  1 3.650000e-01    2.830000e+00
  SP1h TN6aq  1 3.650000e-01    3.100000e+00
  SP1h TP1aq  1 3.650000e-01    3.100000e+00
  SP1h TN1dq  1 3.650000e-01    2.340000e+00
  SP1h TN2dq  1 3.650000e-01    2.340000e+00
  SP1h TN3dq  1 3.650000e-01    2.340000e+00
  SP1h TN4dq  1 3.650000e-01    2.830000e+00
  SP1h TN5dq  1 3.650000e-01    2.830000e+00
  SP1h TN6dq  1 3.650000e-01    3.100000e+00
  SP1h TP1dq  1 3.650000e-01    3.100000e+00
  SN6h TX1eq  1 3.650000e-01    1.910000e+00
  SN6h TX2eq  1 3.650000e-01    2.110000e+00
  SN6h TX3eq  1 3.650000e-01    2.340000e+00
  SN6h TX4eq  1 3.650000e-01    2.570000e+00
  SN6h TC1eq  1 3.650000e-01    1.750000e+00
  SN6h TC2eq  1 3.650000e-01    1.910000e+00
  SN6h TC3eq  1 3.650000e-01    1.910000e+00
  SN6h TC4eq  1 3.650000e-01    2.110000e+00
  SN6h TC5eq  1 3.650000e-01    2.340000e+00
  SN6h TC6eq  1 3.650000e-01    2.570000e+00
  SN6h TX1vq  1 3.650000e-01    1.910000e+00
  SN6h TX2vq  1 3.650000e-01    2.110000e+00
  SN6h TX3vq  1 3.650000e-01    2.340000e+00
  SN6h TX4vq  1 3.650000e-01    2.570000e+00
  SN6h TC1vq  1 3.650000e-01    1.750000e+00
  SN6h TC2vq  1 3.650000e-01    1.910000e+00
  SN6h TC3vq  1 3.650000e-01    1.910000e+00
  SN6h TC4vq  1 3.650000e-01    2.110000e+00
  SN6h TC5vq  1 3.650000e-01    2.340000e+00
  SN6h TC6vq  1 3.650000e-01    2.570000e+00
  SN6h TN1aq  1 3.650000e-01    2.340000e+00
  SN6h TN2aq  1 3.650000e-01    2.340000e+00
  SN6h TN3aq  1 3.650000e-01    2.570000e+00
  SN6h TN4aq  1 3.650000e-01    3.100000e+00
  SN6h TN5aq  1 3.650000e-01    3.100000e+00
  SN6h TN6aq  1 3.650000e-01    3.100000e+00
  SN6h TN1dq  1 3.650000e-01    2.340000e+00
  SN6h TN2dq  1 3.650000e-01    2.340000e+00
  SN6h TN3dq  1 3.650000e-01    2.570000e+00
  SN6h TN4dq  1 3.650000e-01    3.100000e+00
  SN6h TN5dq  1 3.650000e-01    3.100000e+00
  SN6h TN6dq  1 3.650000e-01    3.100000e+00
  SN5h TX1eq  1 3.650000e-01    2.110000e+00
  SN5h TX2eq  1 3.650000e-01    2.340000e+00
  SN5h TX3eq  1 3.650000e-01    2.570000e+00
  SN5h TX4eq  1 3.650000e-01    2.830000e+00
  SN5h TC1eq  1 3.650000e-01    1.750000e+00
  SN5h TC2eq  1 3.650000e-01    1.910000e+00
  SN5h TC3eq  1 3.650000e-01    2.110000e+00
  SN5h TC4eq  1 3.650000e-01    2.110000e+00
  SN5h TC5eq  1 3.650000e-01    2.340000e+00
  SN5h TC6eq  1 3.650000e-01    2.570000e+00
  SN5h TX1vq  1 3.650000e-01    2.110000e+00
  SN5h TX2vq  1 3.650000e-01    2.340000e+00
  SN5h TX3vq  1 3.650000e-01    2.570000e+00
  SN5h TX4vq  1 3.650000e-01    2.830000e+00
  SN5h TC1vq  1 3.650000e-01    1.750000e+00
  SN5h TC2vq  1 3.650000e-01    1.910000e+00
  SN5h TC3vq  1 3.650000e-01    2.110000e+00
  SN5h TC4vq  1 3.650000e-01    2.110000e+00
  SN5h TC5vq  1 3.650000e-01    2.340000e+00
  SN5h TC6vq  1 3.650000e-01    2.570000e+00
  SN5h TN1aq  1 3.650000e-01    2.340000e+00
  SN5h TN2aq  1 3.650000e-01    2.570000e+00
  SN5h TN3aq  1 3.650000e-01    2.570000e+00
  SN5h TN4aq  1 3.650000e-01    2.830000e+00
  SN5h TN5aq  1 3.650000e-01    2.830000e+00
  SN5h TN1dq  1 3.650000e-01    2.340000e+00
  SN5h TN2dq  1 3.650000e-01    2.570000e+00
  SN5h TN3dq  1 3.650000e-01    2.570000e+00
  SN5h TN4dq  1 3.650000e-01    2.830000e+00
  SN5h TN5dq  1 3.650000e-01    2.830000e+00
  SN4h TX1eq  1 3.650000e-01    2.110000e+00
  SN4h TX2eq  1 3.650000e-01    2.340000e+00
  SN4h TX3eq  1 3.650000e-01    2.830000e+00
  SN4h TX4eq  1 3.650000e-01    3.100000e+00
  SN4h TC1eq  1 3.650000e-01    1.750000e+00
  SN4h TC2eq  1 3.650000e-01    1.910000e+00
  SN4h TC3eq  1 3.650000e-01    2.110000e+00
  SN4h TC4eq  1 3.650000e-01    2.340000e+00
  SN4h TC5eq  1 3.650000e-01    2.340000e+00
  SN4h TC6eq  1 3.650000e-01    2.570000e+00
  SN4h TX1vq  1 3.650000e-01    2.110000e+00
  SN4h TX2vq  1 3.650000e-01    2.340000e+00
  SN4h TX3vq  1 3.650000e-01    2.830000e+00
  SN4h TX4vq  1 3.650000e-01    3.100000e+00
  SN4h TC1vq  1 3.650000e-01    1.750000e+00
  SN4h TC2vq  1 3.650000e-01    1.910000e+00
  SN4h TC3vq  1 3.650000e-01    2.110000e+00
  SN4h TC4vq  1 3.650000e-01    2.340000e+00
  SN4h TC5vq  1 3.650000e-01    2.340000e+00
  SN4h TC6vq  1 3.650000e-01    2.570000e+00
  SN4h TN1aq  1 3.650000e-01    2.340000e+00
  SN4h TN2aq  1 3.650000e-01    2.570000e+00
  SN4h TN3aq  1 3.650000e-01    2.570000e+00
  SN4h TN4aq  1 3.650000e-01    2.830000e+00
  SN4h TN1dq  1 3.650000e-01    2.340000e+00
  SN4h TN2dq  1 3.650000e-01    2.570000e+00
  SN4h TN3dq  1 3.650000e-01    2.570000e+00
  SN4h TN4dq  1 3.650000e-01    2.830000e+00
  SN3h TX1eq  1 3.650000e-01    2.340000e+00
  SN3h TX2eq  1 3.650000e-01    2.340000e+00
  SN3h TX3eq  1 3.650000e-01    2.570000e+00
  SN3h TX4eq  1 3.650000e-01    2.830000e+00
  SN3h TC1eq  1 3.650000e-01    1.910000e+00
  SN3h TC2eq  1 3.650000e-01    2.110000e+00
  SN3h TC3eq  1 3.650000e-01    2.110000e+00
  SN3h TC4eq  1 3.650000e-01    2.340000e+00
  SN3h TC5eq  1 3.650000e-01    2.340000e+00
  SN3h TC6eq  1 3.650000e-01    2.570000e+00
  SN3h TX1vq  1 3.650000e-01    2.340000e+00
  SN3h TX2vq  1 3.650000e-01    2.340000e+00
  SN3h TX3vq  1 3.650000e-01    2.570000e+00
  SN3h TX4vq  1 3.650000e-01    2.830000e+00
  SN3h TC1vq  1 3.650000e-01    1.910000e+00
  SN3h TC2vq  1 3.650000e-01    2.110000e+00
  SN3h TC3vq  1 3.650000e-01    2.110000e+00
  SN3h TC4vq  1 3.650000e-01    2.340000e+00
  SN3h TC5vq  1 3.650000e-01    2.340000e+00
  SN3h TC6vq  1 3.650000e-01    2.570000e+00
  SN3h TN1aq  1 3.650000e-01    2.340000e+00
  SN3h TN2aq  1 3.650000e-01    2.570000e+00
  SN3h TN3aq  1 3.650000e-01    2.570000e+00
  SN3h TN1dq  1 3.650000e-01    2.340000e+00
  SN3h TN2dq  1 3.650000e-01    2.570000e+00
  SN3h TN3dq  1 3.650000e-01    2.570000e+00
  SN2h TX1eq  1 3.650000e-01    2.340000e+00
  SN2h TX2eq  1 3.650000e-01    2.340000e+00
  SN2h TX3eq  1 3.650000e-01    2.570000e+00
  SN2h TX4eq  1 3.650000e-01    2.830000e+00
  SN2h TC1eq  1 3.650000e-01    1.910000e+00
  SN2h TC2eq  1 3.650000e-01    2.110000e+00
  SN2h TC3eq  1 3.650000e-01    2.340000e+00
  SN2h TC4eq  1 3.650000e-01    2.340000e+00
  SN2h TC5eq  1 3.650000e-01    2.340000e+00
  SN2h TC6eq  1 3.650000e-01    2.570000e+00
  SN2h TX1vq  1 3.650000e-01    2.340000e+00
  SN2h TX2vq  1 3.650000e-01    2.340000e+00
  SN2h TX3vq  1 3.650000e-01    2.570000e+00
  SN2h TX4vq  1 3.650000e-01    2.830000e+00
  SN2h TC1vq  1 3.650000e-01    1.910000e+00
  SN2h TC2vq  1 3.650000e-01    2.110000e+00
  SN2h TC3vq  1 3.650000e-01    2.340000e+00
  SN2h TC4vq  1 3.650000e-01    2.340000e+00
  SN2h TC5vq  1 3.650000e-01    2.340000e+00
  SN2h TC6vq  1 3.650000e-01    2.570000e+00
  SN2h TN1aq  1 3.650000e-01    2.340000e+00
  SN2h TN2aq  1 3.650000e-01    2.570000e+00
  SN2h TN1dq  1 3.650000e-01    2.340000e+00
  SN2h TN2dq  1 3.650000e-01    2.570000e+00
  SN1h TX1eq  1 3.650000e-01    2.340000e+00
  SN1h TX2eq  1 3.650000e-01    2.340000e+00
  SN1h TX3eq  1 3.650000e-01    2.570000e+00
  SN1h TX4eq  1 3.650000e-01    2.570000e+00
  SN1h TC1eq  1 3.650000e-01    1.910000e+00
  SN1h TC2eq  1 3.650000e-01    2.110000e+00
  SN1h TC3eq  1 3.650000e-01    2.340000e+00
  SN1h TC4eq  1 3.650000e-01    2.570000e+00
  SN1h TC5eq  1 3.650000e-01    2.570000e+00
  SN1h TC6eq  1 3.650000e-01    2.830000e+00
  SN1h TX1vq  1 3.650000e-01    2.340000e+00
  SN1h TX2vq  1 3.650000e-01    2.340000e+00
  SN1h TX3vq  1 3.650000e-01    2.570000e+00
  SN1h TX4vq  1 3.650000e-01    2.570000e+00
  SN1h TC1vq  1 3.650000e-01    1.910000e+00
  SN1h TC2vq  1 3.650000e-01    2.110000e+00
  SN1h TC3vq  1 3.650000e-01    2.340000e+00
  SN1h TC4vq  1 3.650000e-01    2.570000e+00
  SN1h TC5vq  1 3.650000e-01    2.570000e+00
  SN1h TC6vq  1 3.650000e-01    2.830000e+00
  SN1h TN1aq  1 3.650000e-01    2.570000e+00
  SN1h TN1dq  1 3.650000e-01    2.570000e+00
  SC6h TX1eq  1 3.650000e-01    2.570000e+00
  SC6h TX2eq  1 3.650000e-01    2.570000e+00
  SC6h TX3eq  1 3.650000e-01    2.570000e+00
  SC6h TX4eq  1 3.650000e-01    2.570000e+00
  SC6h TC1eq  1 3.650000e-01    1.910000e+00
  SC6h TC2eq  1 3.650000e-01    2.110000e+00
  SC6h TC3eq  1 3.650000e-01    2.340000e+00
  SC6h TC4eq  1 3.650000e-01    2.570000e+00
  SC6h TC5eq  1 3.650000e-01    2.570000e+00
  SC6h TC6eq  1 3.650000e-01    2.830000e+00
  SC6h TX1vq  1 3.650000e-01    2.570000e+00
  SC6h TX2vq  1 3.650000e-01    2.570000e+00
  SC6h TX3vq  1 3.650000e-01    2.570000e+00
  SC6h TX4vq  1 3.650000e-01    2.570000e+00
  SC6h TC1vq  1 3.650000e-01    1.910000e+00
  SC6h TC2vq  1 3.650000e-01    2.110000e+00
  SC6h TC3vq  1 3.650000e-01    2.340000e+00
  SC6h TC4vq  1 3.650000e-01    2.570000e+00
  SC6h TC5vq  1 3.650000e-01    2.570000e+00
  SC6h TC6vq  1 3.650000e-01    2.830000e+00
  SC5h TX1eq  1 3.650000e-01    2.570000e+00
  SC5h TX2eq  1 3.650000e-01    2.340000e+00
  SC5h TX3eq  1 3.650000e-01    2.340000e+00
  SC5h TX4eq  1 3.650000e-01    2.340000e+00
  SC5h TC1eq  1 3.650000e-01    2.110000e+00
  SC5h TC2eq  1 3.650000e-01    2.110000e+00
  SC5h TC3eq  1 3.650000e-01    2.340000e+00
  SC5h TC4eq  1 3.650000e-01    2.570000e+00
  SC5h TC5eq  1 3.650000e-01    2.570000e+00
  SC5h TX1vq  1 3.650000e-01    2.570000e+00
  SC5h TX2vq  1 3.650000e-01    2.340000e+00
  SC5h TX3vq  1 3.650000e-01    2.340000e+00
  SC5h TX4vq  1 3.650000e-01    2.340000e+00
  SC5h TC1vq  1 3.650000e-01    2.110000e+00
  SC5h TC2vq  1 3.650000e-01    2.110000e+00
  SC5h TC3vq  1 3.650000e-01    2.340000e+00
  SC5h TC4vq  1 3.650000e-01    2.570000e+00
  SC5h TC5vq  1 3.650000e-01    2.570000e+00
  SC4h TX1eq  1 3.650000e-01    2.570000e+00
  SC4h TX2eq  1 3.650000e-01    2.340000e+00
  SC4h TX3eq  1 3.650000e-01    2.340000e+00
  SC4h TX4eq  1 3.650000e-01    2.340000e+00
  SC4h TC1eq  1 3.650000e-01    2.110000e+00
  SC4h TC2eq  1 3.650000e-01    2.340000e+00
  SC4h TC3eq  1 3.650000e-01    2.570000e+00
  SC4h TC4eq  1 3.650000e-01    2.570000e+00
  SC4h TX1vq  1 3.650000e-01    2.570000e+00
  SC4h TX2vq  1 3.650000e-01    2.340000e+00
  SC4h TX3vq  1 3.650000e-01    2.340000e+00
  SC4h TX4vq  1 3.650000e-01    2.340000e+00
  SC4h TC1vq  1 3.650000e-01    2.110000e+00
  SC4h TC2vq  1 3.650000e-01    2.340000e+00
  SC4h TC3vq  1 3.650000e-01    2.570000e+00
  SC4h TC4vq  1 3.650000e-01    2.570000e+00
  SC3h TX1eq  1 3.650000e-01    2.570000e+00
  SC3h TX2eq  1 3.650000e-01    2.340000e+00
  SC3h TX3eq  1 3.650000e-01    2.340000e+00
  SC3h TX4eq  1 3.650000e-01    2.340000e+00
  SC3h TC1eq  1 3.650000e-01    2.570000e+00
  SC3h TC2eq  1 3.650000e-01    2.570000e+00
  SC3h TC3eq  1 3.650000e-01    2.570000e+00
  SC3h TX1vq  1 3.650000e-01    2.570000e+00
  SC3h TX2vq  1 3.650000e-01    2.340000e+00
  SC3h TX3vq  1 3.650000e-01    2.340000e+00
  SC3h TX4vq  1 3.650000e-01    2.340000e+00
  SC3h TC1vq  1 3.650000e-01    2.570000e+00
  SC3h TC2vq  1 3.650000e-01    2.570000e+00
  SC3h TC3vq  1 3.650000e-01    2.570000e+00
  SC2h TX1eq  1 3.650000e-01    2.340000e+00
  SC2h TX2eq  1 3.650000e-01    2.340000e+00
  SC2h TX3eq  1 3.650000e-01    2.340000e+00
  SC2h TX4eq  1 3.650000e-01    1.910000e+00
  SC2h TC1eq  1 3.650000e-01    2.830000e+00
  SC2h TC2eq  1 3.650000e-01    2.570000e+00
  SC2h TX1vq  1 3.650000e-01    2.340000e+00
  SC2h TX2vq  1 3.650000e-01    2.340000e+00
  SC2h TX3vq  1 3.650000e-01    2.340000e+00
  SC2h TX4vq  1 3.650000e-01    1.910000e+00
  SC2h TC1vq  1 3.650000e-01    2.830000e+00
  SC2h TC2vq  1 3.650000e-01    2.570000e+00
  SC1h TX1eq  1 3.650000e-01    2.340000e+00
  SC1h TX2eq  1 3.650000e-01    2.340000e+00
  SC1h TX3eq  1 3.650000e-01    2.340000e+00
  SC1h TX4eq  1 3.650000e-01    1.910000e+00
  SC1h TC1eq  1 3.650000e-01    2.570000e+00
  SC1h TX1vq  1 3.650000e-01    2.340000e+00
  SC1h TX2vq  1 3.650000e-01    2.340000e+00
  SC1h TX3vq  1 3.650000e-01    2.340000e+00
  SC1h TX4vq  1 3.650000e-01    1.910000e+00
  SC1h TC1vq  1 3.650000e-01    2.570000e+00
  SX4h TX1eq  1 3.650000e-01    2.570000e+00
  SX4h TX2eq  1 3.650000e-01    2.570000e+00
  SX4h TX3eq  1 3.650000e-01    2.570000e+00
  SX4h TX4eq  1 3.650000e-01    2.570000e+00
  SX4h TX1vq  1 3.650000e-01    2.570000e+00
  SX4h TX2vq  1 3.650000e-01    2.570000e+00
  SX4h TX3vq  1 3.650000e-01    2.570000e+00
  SX4h TX4vq  1 3.650000e-01    2.570000e+00
  SX3h TX1eq  1 3.650000e-01    2.830000e+00
  SX3h TX2eq  1 3.650000e-01    2.830000e+00
  SX3h TX3eq  1 3.650000e-01    2.570000e+00
  SX3h TX1vq  1 3.650000e-01    2.830000e+00
  SX3h TX2vq  1 3.650000e-01    2.830000e+00
  SX3h TX3vq  1 3.650000e-01    2.570000e+00
  SX2h TX1eq  1 3.650000e-01    2.830000e+00
  SX2h TX2eq  1 3.650000e-01    2.830000e+00
  SX2h TX1vq  1 3.650000e-01    2.830000e+00
  SX2h TX2vq  1 3.650000e-01    2.830000e+00
  SX1h TX1eq  1 3.650000e-01    3.100000e+00
  SX1h TX1vq  1 3.650000e-01    3.100000e+00
  SP6d TP6dh  1 3.650000e-01    3.640000e+00
  SP6q TP6dh  1 3.650000e-01    4.510000e+00
  SP5d TP5dh  1 3.650000e-01    3.100000e+00
  SP6a TP5dh  1 3.650000e-01    3.930000e+00
  SP6q TP5dh  1 3.650000e-01    4.220000e+00
  SP5q TP5dh  1 3.650000e-01    3.930000e+00
  SP4d TP4dh  1 3.650000e-01    2.830000e+00
  SP6a TP4dh  1 3.650000e-01    3.640000e+00
  SP5a TP4dh  1 3.650000e-01    3.370000e+00
  SP6q TP4dh  1 3.650000e-01    3.930000e+00
  SP5q TP4dh  1 3.650000e-01    3.640000e+00
  SP4q TP4dh  1 3.650000e-01    3.640000e+00
  SP3d TP3dh  1 3.650000e-01    2.570000e+00
  SP6a TP3dh  1 3.650000e-01    3.370000e+00
  SP5a TP3dh  1 3.650000e-01    3.100000e+00
  SP4a TP3dh  1 3.650000e-01    3.100000e+00
  SP6q TP3dh  1 3.650000e-01    3.640000e+00
  SP5q TP3dh  1 3.650000e-01    3.370000e+00
  SP4q TP3dh  1 3.650000e-01    3.370000e+00
  SP3q TP3dh  1 3.650000e-01    3.370000e+00
  SP2d TP2dh  1 3.650000e-01    2.570000e+00
  SP6a TP2dh  1 3.650000e-01    3.370000e+00
  SP5a TP2dh  1 3.650000e-01    3.100000e+00
  SP4a TP2dh  1 3.650000e-01    3.100000e+00
  SP3a TP2dh  1 3.650000e-01    3.100000e+00
  SP6q TP2dh  1 3.650000e-01    3.640000e+00
  SP5q TP2dh  1 3.650000e-01    3.370000e+00
  SP4q TP2dh  1 3.650000e-01    3.370000e+00
  SP3q TP2dh  1 3.650000e-01    3.370000e+00
  SP2q TP2dh  1 3.650000e-01    3.370000e+00
  SP1d TP1dh  1 3.650000e-01    2.340000e+00
  SP6a TP1dh  1 3.650000e-01    3.100000e+00
  SP5a TP1dh  1 3.650000e-01    2.830000e+00
  SP4a TP1dh  1 3.650000e-01    2.830000e+00
  SP3a TP1dh  1 3.650000e-01    2.830000e+00
  SP2a TP1dh  1 3.650000e-01    2.830000e+00
  SP6q TP1dh  1 3.650000e-01    3.370000e+00
  SP5q TP1dh  1 3.650000e-01    3.100000e+00
  SP4q TP1dh  1 3.650000e-01    3.100000e+00
  SP3q TP1dh  1 3.650000e-01    3.100000e+00
  SP2q TP1dh  1 3.650000e-01    3.100000e+00
  SP1q TP1dh  1 3.650000e-01    3.100000e+00
  SN6d TN6dh  1 3.650000e-01    2.340000e+00
  SP6a TN6dh  1 3.650000e-01    2.830000e+00
  SP5a TN6dh  1 3.650000e-01    2.570000e+00
  SP4a TN6dh  1 3.650000e-01    2.570000e+00
  SP3a TN6dh  1 3.650000e-01    2.570000e+00
  SP2a TN6dh  1 3.650000e-01    2.830000e+00
  SP1a TN6dh  1 3.650000e-01    2.830000e+00
  SP6q TN6dh  1 3.650000e-01    3.100000e+00
  SP5q TN6dh  1 3.650000e-01    2.830000e+00
  SP4q TN6dh  1 3.650000e-01    2.830000e+00
  SP3q TN6dh  1 3.650000e-01    2.830000e+00
  SP2q TN6dh  1 3.650000e-01    3.100000e+00
  SP1q TN6dh  1 3.650000e-01    3.100000e+00
  SN6q TN6dh  1 3.650000e-01    3.100000e+00
  SN5d TN5dh  1 3.650000e-01    2.110000e+00
  SP6a TN5dh  1 3.650000e-01    2.340000e+00
  SP5a TN5dh  1 3.650000e-01    2.340000e+00
  SP4a TN5dh  1 3.650000e-01    2.340000e+00
  SP3a TN5dh  1 3.650000e-01    2.340000e+00
  SP2a TN5dh  1 3.650000e-01    2.570000e+00
  SP1a TN5dh  1 3.650000e-01    2.570000e+00
  SN6a TN5dh  1 3.650000e-01    2.830000e+00
  SP6q TN5dh  1 3.650000e-01    2.570000e+00
  SP5q TN5dh  1 3.650000e-01    2.570000e+00
  SP4q TN5dh  1 3.650000e-01    2.570000e+00
  SP3q TN5dh  1 3.650000e-01    2.570000e+00
  SP2q TN5dh  1 3.650000e-01    2.830000e+00
  SP1q TN5dh  1 3.650000e-01    2.830000e+00
  SN6q TN5dh  1 3.650000e-01    3.100000e+00
  SN5q TN5dh  1 3.650000e-01    2.830000e+00
  SN4d TN4dh  1 3.650000e-01    2.110000e+00
  SP6a TN4dh  1 3.650000e-01    2.110000e+00
  SP5a TN4dh  1 3.650000e-01    2.340000e+00
  SP4a TN4dh  1 3.650000e-01    2.340000e+00
  SP3a TN4dh  1 3.650000e-01    2.340000e+00
  SP2a TN4dh  1 3.650000e-01    2.340000e+00
  SP1a TN4dh  1 3.650000e-01    2.570000e+00
  SN6a TN4dh  1 3.650000e-01    2.830000e+00
  SN5a TN4dh  1 3.650000e-01    2.570000e+00
  SP6q TN4dh  1 3.650000e-01    2.340000e+00
  SP5q TN4dh  1 3.650000e-01    2.570000e+00
  SP4q TN4dh  1 3.650000e-01    2.570000e+00
  SP3q TN4dh  1 3.650000e-01    2.570000e+00
  SP2q TN4dh  1 3.650000e-01    2.570000e+00
  SP1q TN4dh  1 3.650000e-01    2.830000e+00
  SN6q TN4dh  1 3.650000e-01    3.100000e+00
  SN5q TN4dh  1 3.650000e-01    2.830000e+00
  SN4q TN4dh  1 3.650000e-01    2.830000e+00
  SN3d TN3dh  1 3.650000e-01    1.910000e+00
  SP6a TN3dh  1 3.650000e-01    1.750000e+00
  SP5a TN3dh  1 3.650000e-01    1.750000e+00
  SP4a TN3dh  1 3.650000e-01    2.110000e+00
  SP3a TN3dh  1 3.650000e-01    2.110000e+00
  SP2a TN3dh  1 3.650000e-01    2.110000e+00
  SP1a TN3dh  1 3.650000e-01    2.110000e+00
  SN6a TN3dh  1 3.650000e-01    2.340000e+00
  SN5a TN3dh  1 3.650000e-01    2.340000e+00
  SN4a TN3dh  1 3.650000e-01    2.340000e+00
  SP6q TN3dh  1 3.650000e-01    2.110000e+00
  SP5q TN3dh  1 3.650000e-01    2.110000e+00
  SP4q TN3dh  1 3.650000e-01    2.340000e+00
  SP3q TN3dh  1 3.650000e-01    2.340000e+00
  SP2q TN3dh  1 3.650000e-01    2.340000e+00
  SP1q TN3dh  1 3.650000e-01    2.340000e+00
  SN6q TN3dh  1 3.650000e-01    2.570000e+00
  SN5q TN3dh  1 3.650000e-01    2.570000e+00
  SN4q TN3dh  1 3.650000e-01    2.570000e+00
  SN3q TN3dh  1 3.650000e-01    2.570000e+00
  SN2d TN2dh  1 3.650000e-01    1.910000e+00
  SP6a TN2dh  1 3.660000e-01    1.600000e+00
  SP5a TN2dh  1 3.660000e-01    1.600000e+00
  SP4a TN2dh  1 3.650000e-01    1.750000e+00
  SP3a TN2dh  1 3.650000e-01    2.110000e+00
  SP2a TN2dh  1 3.650000e-01    2.110000e+00
  SP1a TN2dh  1 3.650000e-01    2.110000e+00
  SN6a TN2dh  1 3.650000e-01    2.110000e+00
  SN5a TN2dh  1 3.650000e-01    2.340000e+00
  SN4a TN2dh  1 3.650000e-01    2.340000e+00
  SN3a TN2dh  1 3.650000e-01    2.340000e+00
  SP6q TN2dh  1 3.650000e-01    1.910000e+00
  SP5q TN2dh  1 3.650000e-01    1.910000e+00
  SP4q TN2dh  1 3.650000e-01    2.110000e+00
  SP3q TN2dh  1 3.650000e-01    2.340000e+00
  SP2q TN2dh  1 3.650000e-01    2.340000e+00
  SP1q TN2dh  1 3.650000e-01    2.340000e+00
  SN6q TN2dh  1 3.650000e-01    2.340000e+00
  SN5q TN2dh  1 3.650000e-01    2.570000e+00
  SN4q TN2dh  1 3.650000e-01    2.570000e+00
  SN3q TN2dh  1 3.650000e-01    2.570000e+00
  SN2q TN2dh  1 3.650000e-01    2.570000e+00
  SN1d TN1dh  1 3.650000e-01    1.910000e+00
  SP6a TN1dh  1 3.780000e-01    1.450000e+00
  SP5a TN1dh  1 3.780000e-01    1.450000e+00
  SP4a TN1dh  1 3.660000e-01    1.600000e+00
  SP3a TN1dh  1 3.650000e-01    1.750000e+00
  SP2a TN1dh  1 3.650000e-01    2.110000e+00
  SP1a TN1dh  1 3.650000e-01    2.110000e+00
  SN6a TN1dh  1 3.650000e-01    2.110000e+00
  SN5a TN1dh  1 3.650000e-01    2.110000e+00
  SN4a TN1dh  1 3.650000e-01    2.110000e+00
  SN3a TN1dh  1 3.650000e-01    2.110000e+00
  SN2a TN1dh  1 3.650000e-01    2.110000e+00
  SP6q TN1dh  1 3.650000e-01    1.750000e+00
  SP5q TN1dh  1 3.650000e-01    1.750000e+00
  SP4q TN1dh  1 3.650000e-01    1.910000e+00
  SP3q TN1dh  1 3.650000e-01    2.110000e+00
  SP2q TN1dh  1 3.650000e-01    2.340000e+00
  SP1q TN1dh  1 3.650000e-01    2.340000e+00
  SN6q TN1dh  1 3.650000e-01    2.340000e+00
  SN5q TN1dh  1 3.650000e-01    2.340000e+00
  SN4q TN1dh  1 3.650000e-01    2.340000e+00
  SN3q TN1dh  1 3.650000e-01    2.340000e+00
  SN2q TN1dh  1 3.650000e-01    2.340000e+00
  SN1q TN1dh  1 3.650000e-01    2.570000e+00
  SP6a TP6ah  1 3.650000e-01    3.640000e+00
  SP6q TP6ah  1 3.650000e-01    4.510000e+00
  SP5a TP5ah  1 3.650000e-01    3.100000e+00
  SP6q TP5ah  1 3.650000e-01    4.220000e+00
  SP5q TP5ah  1 3.650000e-01    3.930000e+00
  SP4a TP4ah  1 3.650000e-01    2.830000e+00
  SP6q TP4ah  1 3.650000e-01    3.930000e+00
  SP5q TP4ah  1 3.650000e-01    3.640000e+00
  SP4q TP4ah  1 3.650000e-01    3.640000e+00
  SP3a TP3ah  1 3.650000e-01    2.570000e+00
  SP6q TP3ah  1 3.650000e-01    3.640000e+00
  SP5q TP3ah  1 3.650000e-01    3.370000e+00
  SP4q TP3ah  1 3.650000e-01    3.370000e+00
  SP3q TP3ah  1 3.650000e-01    3.370000e+00
  SP2a TP2ah  1 3.650000e-01    2.570000e+00
  SP6q TP2ah  1 3.650000e-01    3.640000e+00
  SP5q TP2ah  1 3.650000e-01    3.370000e+00
  SP4q TP2ah  1 3.650000e-01    3.370000e+00
  SP3q TP2ah  1 3.650000e-01    3.370000e+00
  SP2q TP2ah  1 3.650000e-01    3.370000e+00
  SP1a TP1ah  1 3.650000e-01    2.340000e+00
  SP6q TP1ah  1 3.650000e-01    3.370000e+00
  SP5q TP1ah  1 3.650000e-01    3.100000e+00
  SP4q TP1ah  1 3.650000e-01    3.100000e+00
  SP3q TP1ah  1 3.650000e-01    3.100000e+00
  SP2q TP1ah  1 3.650000e-01    3.100000e+00
  SP1q TP1ah  1 3.650000e-01    3.100000e+00
  SN6a TN6ah  1 3.650000e-01    2.340000e+00
  SP6q TN6ah  1 3.650000e-01    3.100000e+00
  SP5q TN6ah  1 3.650000e-01    2.830000e+00
  SP4q TN6ah  1 3.650000e-01    2.830000e+00
  SP3q TN6ah  1 3.650000e-01    2.830000e+00
  SP2q TN6ah  1 3.650000e-01    3.100000e+00
  SP1q TN6ah  1 3.650000e-01    3.100000e+00
  SN6q TN6ah  1 3.650000e-01    3.100000e+00
  SN5a TN5ah  1 3.650000e-01    2.110000e+00
  SP6q TN5ah  1 3.650000e-01    2.570000e+00
  SP5q TN5ah  1 3.650000e-01    2.570000e+00
  SP4q TN5ah  1 3.650000e-01    2.570000e+00
  SP3q TN5ah  1 3.650000e-01    2.570000e+00
  SP2q TN5ah  1 3.650000e-01    2.830000e+00
  SP1q TN5ah  1 3.650000e-01    2.830000e+00
  SN6q TN5ah  1 3.650000e-01    3.100000e+00
  SN5q TN5ah  1 3.650000e-01    2.830000e+00
  SN4a TN4ah  1 3.650000e-01    2.110000e+00
  SP6q TN4ah  1 3.650000e-01    2.340000e+00
  SP5q TN4ah  1 3.650000e-01    2.570000e+00
  SP4q TN4ah  1 3.650000e-01    2.570000e+00
  SP3q TN4ah  1 3.650000e-01    2.570000e+00
  SP2q TN4ah  1 3.650000e-01    2.570000e+00
  SP1q TN4ah  1 3.650000e-01    2.830000e+00
  SN6q TN4ah  1 3.650000e-01    3.100000e+00
  SN5q TN4ah  1 3.650000e-01    2.830000e+00
  SN4q TN4ah  1 3.650000e-01    2.830000e+00
  SN3a TN3ah  1 3.650000e-01    1.910000e+00
  SP6q TN3ah  1 3.650000e-01    2.110000e+00
  SP5q TN3ah  1 3.650000e-01    2.110000e+00
  SP4q TN3ah  1 3.650000e-01    2.340000e+00
  SP3q TN3ah  1 3.650000e-01    2.340000e+00
  SP2q TN3ah  1 3.650000e-01    2.340000e+00
  SP1q TN3ah  1 3.650000e-01    2.340000e+00
  SN6q TN3ah  1 3.650000e-01    2.570000e+00
  SN5q TN3ah  1 3.650000e-01    2.570000e+00
  SN4q TN3ah  1 3.650000e-01    2.570000e+00
  SN3q TN3ah  1 3.650000e-01    2.570000e+00
  SN2a TN2ah  1 3.650000e-01    1.910000e+00
  SP6q TN2ah  1 3.650000e-01    1.910000e+00
  SP5q TN2ah  1 3.650000e-01    1.910000e+00
  SP4q TN2ah  1 3.650000e-01    2.110000e+00
  SP3q TN2ah  1 3.650000e-01    2.340000e+00
  SP2q TN2ah  1 3.650000e-01    2.340000e+00
  SP1q TN2ah  1 3.650000e-01    2.340000e+00
  SN6q TN2ah  1 3.650000e-01    2.340000e+00
  SN5q TN2ah  1 3.650000e-01    2.570000e+00
  SN4q TN2ah  1 3.650000e-01    2.570000e+00
  SN3q TN2ah  1 3.650000e-01    2.570000e+00
  SN2q TN2ah  1 3.650000e-01    2.570000e+00
  SN1a TN1ah  1 3.650000e-01    1.910000e+00
  SP6q TN1ah  1 3.650000e-01    1.750000e+00
  SP5q TN1ah  1 3.650000e-01    1.750000e+00
  SP4q TN1ah  1 3.650000e-01    1.910000e+00
  SP3q TN1ah  1 3.650000e-01    2.110000e+00
  SP2q TN1ah  1 3.650000e-01    2.340000e+00
  SP1q TN1ah  1 3.650000e-01    2.340000e+00
  SN6q TN1ah  1 3.650000e-01    2.340000e+00
  SN5q TN1ah  1 3.650000e-01    2.340000e+00
  SN4q TN1ah  1 3.650000e-01    2.340000e+00
  SN3q TN1ah  1 3.650000e-01    2.340000e+00
  SN2q TN1ah  1 3.650000e-01    2.340000e+00
  SN1q TN1ah  1 3.650000e-01    2.570000e+00
  SC6v TC6vh  1 3.650000e-01    1.910000e+00
  SP6q TC6vh  1 3.650000e-01    1.910000e+00
  SP5q TC6vh  1 3.650000e-01    1.910000e+00
  SP4q TC6vh  1 3.650000e-01    2.110000e+00
  SP3q TC6vh  1 3.650000e-01    2.340000e+00
  SP2q TC6vh  1 3.650000e-01    2.340000e+00
  SP1q TC6vh  1 3.650000e-01    2.340000e+00
  SN6q TC6vh  1 3.650000e-01    2.570000e+00
  SN5q TC6vh  1 3.650000e-01    2.570000e+00
  SN4q TC6vh  1 3.650000e-01    2.570000e+00
  SN3q TC6vh  1 3.650000e-01    2.570000e+00
  SN2q TC6vh  1 3.650000e-01    2.570000e+00
  SN1q TC6vh  1 3.650000e-01    2.830000e+00
  SC6q TC6vh  1 3.650000e-01    2.830000e+00
  SC5v TC5vh  1 3.650000e-01    1.750000e+00
  SC6e TC5vh  1 3.650000e-01    2.340000e+00
  SP6q TC5vh  1 3.650000e-01    1.750000e+00
  SP5q TC5vh  1 3.650000e-01    1.910000e+00
  SP4q TC5vh  1 3.650000e-01    1.910000e+00
  SP3q TC5vh  1 3.650000e-01    2.110000e+00
  SP2q TC5vh  1 3.650000e-01    2.110000e+00
  SP1q TC5vh  1 3.650000e-01    2.110000e+00
  SN6q TC5vh  1 3.650000e-01    2.340000e+00
  SN5q TC5vh  1 3.650000e-01    2.340000e+00
  SN4q TC5vh  1 3.650000e-01    2.340000e+00
  SN3q TC5vh  1 3.650000e-01    2.340000e+00
  SN2q TC5vh  1 3.650000e-01    2.340000e+00
  SN1q TC5vh  1 3.650000e-01    2.570000e+00
  SC6q TC5vh  1 3.650000e-01    2.570000e+00
  SC5q TC5vh  1 3.650000e-01    2.570000e+00
  SC4v TC4vh  1 3.650000e-01    1.750000e+00
  SC6e TC4vh  1 3.650000e-01    2.340000e+00
  SC5e TC4vh  1 3.650000e-01    2.340000e+00
  SP6q TC4vh  1 3.660000e-01    1.600000e+00
  SP5q TC4vh  1 3.650000e-01    1.750000e+00
  SP4q TC4vh  1 3.650000e-01    1.750000e+00
  SP3q TC4vh  1 3.650000e-01    1.910000e+00
  SP2q TC4vh  1 3.650000e-01    1.910000e+00
  SP1q TC4vh  1 3.650000e-01    1.910000e+00
  SN6q TC4vh  1 3.650000e-01    2.110000e+00
  SN5q TC4vh  1 3.650000e-01    2.110000e+00
  SN4q TC4vh  1 3.650000e-01    2.340000e+00
  SN3q TC4vh  1 3.650000e-01    2.340000e+00
  SN2q TC4vh  1 3.650000e-01    2.340000e+00
  SN1q TC4vh  1 3.650000e-01    2.570000e+00
  SC6q TC4vh  1 3.650000e-01    2.570000e+00
  SC5q TC4vh  1 3.650000e-01    2.570000e+00
  SC4q TC4vh  1 3.650000e-01    2.570000e+00
  SC3v TC3vh  1 3.650000e-01    1.750000e+00
  SC6e TC3vh  1 3.650000e-01    2.110000e+00
  SC5e TC3vh  1 3.650000e-01    2.110000e+00
  SC4e TC3vh  1 3.650000e-01    2.340000e+00
  SP6q TC3vh  1 3.780000e-01    1.450000e+00
  SP5q TC3vh  1 3.660000e-01    1.600000e+00
  SP4q TC3vh  1 3.660000e-01    1.600000e+00
  SP3q TC3vh  1 3.660000e-01    1.600000e+00
  SP2q TC3vh  1 3.650000e-01    1.750000e+00
  SP1q TC3vh  1 3.650000e-01    1.750000e+00
  SN6q TC3vh  1 3.650000e-01    1.910000e+00
  SN5q TC3vh  1 3.650000e-01    2.110000e+00
  SN4q TC3vh  1 3.650000e-01    2.110000e+00
  SN3q TC3vh  1 3.650000e-01    2.110000e+00
  SN2q TC3vh  1 3.650000e-01    2.340000e+00
  SN1q TC3vh  1 3.650000e-01    2.340000e+00
  SC6q TC3vh  1 3.650000e-01    2.340000e+00
  SC5q TC3vh  1 3.650000e-01    2.340000e+00
  SC4q TC3vh  1 3.650000e-01    2.570000e+00
  SC3q TC3vh  1 3.650000e-01    2.570000e+00
  SC2v TC2vh  1 3.650000e-01    1.750000e+00
  SC6e TC2vh  1 3.650000e-01    1.910000e+00
  SC5e TC2vh  1 3.650000e-01    1.910000e+00
  SC4e TC2vh  1 3.650000e-01    2.110000e+00
  SC3e TC2vh  1 3.650000e-01    2.340000e+00
  SP6q TC2vh  1 3.780000e-01    1.450000e+00
  SP5q TC2vh  1 3.660000e-01    1.600000e+00
  SP4q TC2vh  1 3.660000e-01    1.600000e+00
  SP3q TC2vh  1 3.660000e-01    1.600000e+00
  SP2q TC2vh  1 3.650000e-01    1.750000e+00
  SP1q TC2vh  1 3.650000e-01    1.750000e+00
  SN6q TC2vh  1 3.650000e-01    1.910000e+00
  SN5q TC2vh  1 3.650000e-01    1.910000e+00
  SN4q TC2vh  1 3.650000e-01    1.910000e+00
  SN3q TC2vh  1 3.650000e-01    2.110000e+00
  SN2q TC2vh  1 3.650000e-01    2.110000e+00
  SN1q TC2vh  1 3.650000e-01    2.110000e+00
  SC6q TC2vh  1 3.650000e-01    2.110000e+00
  SC5q TC2vh  1 3.650000e-01    2.110000e+00
  SC4q TC2vh  1 3.650000e-01    2.340000e+00
  SC3q TC2vh  1 3.650000e-01    2.570000e+00
  SC2q TC2vh  1 3.650000e-01    2.570000e+00
  SC1v TC1vh  1 3.650000e-01    1.750000e+00
  SC6e TC1vh  1 3.650000e-01    1.750000e+00
  SC5e TC1vh  1 3.650000e-01    1.910000e+00
  SC4e TC1vh  1 3.650000e-01    1.910000e+00
  SC3e TC1vh  1 3.650000e-01    2.340000e+00
  SC2e TC1vh  1 3.650000e-01    2.570000e+00
  SP6q TC1vh  1 4.040000e-01    1.130000e+00
  SP5q TC1vh  1 3.780000e-01    1.450000e+00
  SP4q TC1vh  1 3.780000e-01    1.450000e+00
  SP3q TC1vh  1 3.780000e-01    1.450000e+00
  SP2q TC1vh  1 3.660000e-01    1.600000e+00
  SP1q TC1vh  1 3.660000e-01    1.600000e+00
  SN6q TC1vh  1 3.650000e-01    1.750000e+00
  SN5q TC1vh  1 3.650000e-01    1.750000e+00
  SN4q TC1vh  1 3.650000e-01    1.750000e+00
  SN3q TC1vh  1 3.650000e-01    1.910000e+00
  SN2q TC1vh  1 3.650000e-01    1.910000e+00
  SN1q TC1vh  1 3.650000e-01    1.910000e+00
  SC6q TC1vh  1 3.650000e-01    1.910000e+00
  SC5q TC1vh  1 3.650000e-01    2.110000e+00
  SC4q TC1vh  1 3.650000e-01    2.110000e+00
  SC3q TC1vh  1 3.650000e-01    2.570000e+00
  SC2q TC1vh  1 3.650000e-01    2.830000e+00
  SC1q TC1vh  1 3.650000e-01    2.570000e+00
  SX4v TX4vh  1 3.650000e-01    1.750000e+00
  SC6e TX4vh  1 3.650000e-01    2.340000e+00
  SC5e TX4vh  1 3.650000e-01    2.110000e+00
  SC4e TX4vh  1 3.650000e-01    2.110000e+00
  SC3e TX4vh  1 3.650000e-01    2.110000e+00
  SC2e TX4vh  1 3.650000e-01    1.750000e+00
  SC1e TX4vh  1 3.650000e-01    1.750000e+00
  SP6q TX4vh  1 3.650000e-01    2.110000e+00
  SP5q TX4vh  1 3.650000e-01    2.340000e+00
  SP4q TX4vh  1 3.650000e-01    2.340000e+00
  SP3q TX4vh  1 3.650000e-01    2.340000e+00
  SP2q TX4vh  1 3.650000e-01    2.340000e+00
  SP1q TX4vh  1 3.650000e-01    2.340000e+00
  SN6q TX4vh  1 3.650000e-01    2.570000e+00
  SN5q TX4vh  1 3.650000e-01    2.830000e+00
  SN4q TX4vh  1 3.650000e-01    3.100000e+00
  SN3q TX4vh  1 3.650000e-01    2.830000e+00
  SN2q TX4vh  1 3.650000e-01    2.830000e+00
  SN1q TX4vh  1 3.650000e-01    2.570000e+00
  SC6q TX4vh  1 3.650000e-01    2.570000e+00
  SC5q TX4vh  1 3.650000e-01    2.340000e+00
  SC4q TX4vh  1 3.650000e-01    2.340000e+00
  SC3q TX4vh  1 3.650000e-01    2.340000e+00
  SC2q TX4vh  1 3.650000e-01    1.910000e+00
  SC1q TX4vh  1 3.650000e-01    1.910000e+00
  SX4q TX4vh  1 3.650000e-01    2.570000e+00
  SX3v TX3vh  1 3.650000e-01    1.750000e+00
  SC6e TX3vh  1 3.650000e-01    2.340000e+00
  SC5e TX3vh  1 3.650000e-01    2.110000e+00
  SC4e TX3vh  1 3.650000e-01    2.110000e+00
  SC3e TX3vh  1 3.650000e-01    2.110000e+00
  SC2e TX3vh  1 3.650000e-01    2.110000e+00
  SC1e TX3vh  1 3.650000e-01    2.110000e+00
  SX4e TX3vh  1 3.650000e-01    2.340000e+00
  SP6q TX3vh  1 3.650000e-01    2.110000e+00
  SP5q TX3vh  1 3.650000e-01    2.110000e+00
  SP4q TX3vh  1 3.650000e-01    2.110000e+00
  SP3q TX3vh  1 3.650000e-01    2.340000e+00
  SP2q TX3vh  1 3.650000e-01    2.340000e+00
  SP1q TX3vh  1 3.650000e-01    2.340000e+00
  SN6q TX3vh  1 3.650000e-01    2.340000e+00
  SN5q TX3vh  1 3.650000e-01    2.570000e+00
  SN4q TX3vh  1 3.650000e-01    2.830000e+00
  SN3q TX3vh  1 3.650000e-01    2.570000e+00
  SN2q TX3vh  1 3.650000e-01    2.570000e+00
  SN1q TX3vh  1 3.650000e-01    2.570000e+00
  SC6q TX3vh  1 3.650000e-01    2.570000e+00
  SC5q TX3vh  1 3.650000e-01    2.340000e+00
  SC4q TX3vh  1 3.650000e-01    2.340000e+00
  SC3q TX3vh  1 3.650000e-01    2.340000e+00
  SC2q TX3vh  1 3.650000e-01    2.340000e+00
  SC1q TX3vh  1 3.650000e-01    2.340000e+00
  SX4q TX3vh  1 3.650000e-01    2.570000e+00
  SX3q TX3vh  1 3.650000e-01    2.570000e+00
  SX2v TX2vh  1 3.650000e-01    1.910000e+00
  SC6e TX2vh  1 3.650000e-01    2.340000e+00
  SC5e TX2vh  1 3.650000e-01    2.110000e+00
  SC4e TX2vh  1 3.650000e-01    2.110000e+00
  SC3e TX2vh  1 3.650000e-01    2.110000e+00
  SC2e TX2vh  1 3.650000e-01    2.110000e+00
  SC1e TX2vh  1 3.650000e-01    2.110000e+00
  SX4e TX2vh  1 3.650000e-01    2.340000e+00
  SX3e TX2vh  1 3.650000e-01    2.570000e+00
  SP6q TX2vh  1 3.650000e-01    1.910000e+00
  SP5q TX2vh  1 3.650000e-01    2.110000e+00
  SP4q TX2vh  1 3.650000e-01    2.110000e+00
  SP3q TX2vh  1 3.650000e-01    2.110000e+00
  SP2q TX2vh  1 3.650000e-01    2.110000e+00
  SP1q TX2vh  1 3.650000e-01    2.110000e+00
  SN6q TX2vh  1 3.650000e-01    2.110000e+00
  SN5q TX2vh  1 3.650000e-01    2.340000e+00
  SN4q TX2vh  1 3.650000e-01    2.340000e+00
  SN3q TX2vh  1 3.650000e-01    2.340000e+00
  SN2q TX2vh  1 3.650000e-01    2.340000e+00
  SN1q TX2vh  1 3.650000e-01    2.340000e+00
  SC6q TX2vh  1 3.650000e-01    2.570000e+00
  SC5q TX2vh  1 3.650000e-01    2.340000e+00
  SC4q TX2vh  1 3.650000e-01    2.340000e+00
  SC3q TX2vh  1 3.650000e-01    2.340000e+00
  SC2q TX2vh  1 3.650000e-01    2.340000e+00
  SC1q TX2vh  1 3.650000e-01    2.340000e+00
  SX4q TX2vh  1 3.650000e-01    2.570000e+00
  SX3q TX2vh  1 3.650000e-01    2.830000e+00
  SX2q TX2vh  1 3.650000e-01    2.830000e+00
  SX1v TX1vh  1 3.650000e-01    2.110000e+00
  SC6e TX1vh  1 3.650000e-01    2.340000e+00
  SC5e TX1vh  1 3.650000e-01    2.340000e+00
  SC4e TX1vh  1 3.650000e-01    2.340000e+00
  SC3e TX1vh  1 3.650000e-01    2.340000e+00
  SC2e TX1vh  1 3.650000e-01    2.110000e+00
  SC1e TX1vh  1 3.650000e-01    2.110000e+00
  SX4e TX1vh  1 3.650000e-01    2.340000e+00
  SX3e TX1vh  1 3.650000e-01    2.570000e+00
  SX2e TX1vh  1 3.650000e-01    2.570000e+00
  SP6q TX1vh  1 3.650000e-01    1.750000e+00
  SP5q TX1vh  1 3.650000e-01    1.750000e+00
  SP4q TX1vh  1 3.650000e-01    1.910000e+00
  SP3q TX1vh  1 3.650000e-01    1.910000e+00
  SP2q TX1vh  1 3.650000e-01    1.910000e+00
  SP1q TX1vh  1 3.650000e-01    1.910000e+00
  SN6q TX1vh  1 3.650000e-01    1.910000e+00
  SN5q TX1vh  1 3.650000e-01    2.110000e+00
  SN4q TX1vh  1 3.650000e-01    2.110000e+00
  SN3q TX1vh  1 3.650000e-01    2.340000e+00
  SN2q TX1vh  1 3.650000e-01    2.340000e+00
  SN1q TX1vh  1 3.650000e-01    2.340000e+00
  SC6q TX1vh  1 3.650000e-01    2.570000e+00
  SC5q TX1vh  1 3.650000e-01    2.570000e+00
  SC4q TX1vh  1 3.650000e-01    2.570000e+00
  SC3q TX1vh  1 3.650000e-01    2.570000e+00
  SC2q TX1vh  1 3.650000e-01    2.340000e+00
  SC1q TX1vh  1 3.650000e-01    2.340000e+00
  SX4q TX1vh  1 3.650000e-01    2.570000e+00
  SX3q TX1vh  1 3.650000e-01    2.830000e+00
  SX2q TX1vh  1 3.650000e-01    2.830000e+00
  SX1q TX1vh  1 3.650000e-01    3.100000e+00
  SC6e TC6eh  1 3.650000e-01    1.910000e+00
  SP6q TC6eh  1 3.650000e-01    1.910000e+00
  SP5q TC6eh  1 3.650000e-01    1.910000e+00
  SP4q TC6eh  1 3.650000e-01    2.110000e+00
  SP3q TC6eh  1 3.650000e-01    2.340000e+00
  SP2q TC6eh  1 3.650000e-01    2.340000e+00
  SP1q TC6eh  1 3.650000e-01    2.340000e+00
  SN6q TC6eh  1 3.650000e-01    2.570000e+00
  SN5q TC6eh  1 3.650000e-01    2.570000e+00
  SN4q TC6eh  1 3.650000e-01    2.570000e+00
  SN3q TC6eh  1 3.650000e-01    2.570000e+00
  SN2q TC6eh  1 3.650000e-01    2.570000e+00
  SN1q TC6eh  1 3.650000e-01    2.830000e+00
  SC6q TC6eh  1 3.650000e-01    2.830000e+00
  SC5e TC5eh  1 3.650000e-01    1.750000e+00
  SP6q TC5eh  1 3.650000e-01    1.750000e+00
  SP5q TC5eh  1 3.650000e-01    1.910000e+00
  SP4q TC5eh  1 3.650000e-01    1.910000e+00
  SP3q TC5eh  1 3.650000e-01    2.110000e+00
  SP2q TC5eh  1 3.650000e-01    2.110000e+00
  SP1q TC5eh  1 3.650000e-01    2.110000e+00
  SN6q TC5eh  1 3.650000e-01    2.340000e+00
  SN5q TC5eh  1 3.650000e-01    2.340000e+00
  SN4q TC5eh  1 3.650000e-01    2.340000e+00
  SN3q TC5eh  1 3.650000e-01    2.340000e+00
  SN2q TC5eh  1 3.650000e-01    2.340000e+00
  SN1q TC5eh  1 3.650000e-01    2.570000e+00
  SC6q TC5eh  1 3.650000e-01    2.570000e+00
  SC5q TC5eh  1 3.650000e-01    2.570000e+00
  SC4e TC4eh  1 3.650000e-01    1.750000e+00
  SP6q TC4eh  1 3.660000e-01    1.600000e+00
  SP5q TC4eh  1 3.650000e-01    1.750000e+00
  SP4q TC4eh  1 3.650000e-01    1.750000e+00
  SP3q TC4eh  1 3.650000e-01    1.910000e+00
  SP2q TC4eh  1 3.650000e-01    1.910000e+00
  SP1q TC4eh  1 3.650000e-01    1.910000e+00
  SN6q TC4eh  1 3.650000e-01    2.110000e+00
  SN5q TC4eh  1 3.650000e-01    2.110000e+00
  SN4q TC4eh  1 3.650000e-01    2.340000e+00
  SN3q TC4eh  1 3.650000e-01    2.340000e+00
  SN2q TC4eh  1 3.650000e-01    2.340000e+00
  SN1q TC4eh  1 3.650000e-01    2.570000e+00
  SC6q TC4eh  1 3.650000e-01    2.570000e+00
  SC5q TC4eh  1 3.650000e-01    2.570000e+00
  SC4q TC4eh  1 3.650000e-01    2.570000e+00
  SC3e TC3eh  1 3.650000e-01    1.750000e+00
  SP6q TC3eh  1 3.780000e-01    1.450000e+00
  SP5q TC3eh  1 3.660000e-01    1.600000e+00
  SP4q TC3eh  1 3.660000e-01    1.600000e+00
  SP3q TC3eh  1 3.660000e-01    1.600000e+00
  SP2q TC3eh  1 3.650000e-01    1.750000e+00
  SP1q TC3eh  1 3.650000e-01    1.750000e+00
  SN6q TC3eh  1 3.650000e-01    1.910000e+00
  SN5q TC3eh  1 3.650000e-01    2.110000e+00
  SN4q TC3eh  1 3.650000e-01    2.110000e+00
  SN3q TC3eh  1 3.650000e-01    2.110000e+00
  SN2q TC3eh  1 3.650000e-01    2.340000e+00
  SN1q TC3eh  1 3.650000e-01    2.340000e+00
  SC6q TC3eh  1 3.650000e-01    2.340000e+00
  SC5q TC3eh  1 3.650000e-01    2.340000e+00
  SC4q TC3eh  1 3.650000e-01    2.570000e+00
  SC3q TC3eh  1 3.650000e-01    2.570000e+00
  SC2e TC2eh  1 3.650000e-01    1.750000e+00
  SP6q TC2eh  1 3.780000e-01    1.450000e+00
  SP5q TC2eh  1 3.660000e-01    1.600000e+00
  SP4q TC2eh  1 3.660000e-01    1.600000e+00
  SP3q TC2eh  1 3.660000e-01    1.600000e+00
  SP2q TC2eh  1 3.650000e-01    1.750000e+00
  SP1q TC2eh  1 3.650000e-01    1.750000e+00
  SN6q TC2eh  1 3.650000e-01    1.910000e+00
  SN5q TC2eh  1 3.650000e-01    1.910000e+00
  SN4q TC2eh  1 3.650000e-01    1.910000e+00
  SN3q TC2eh  1 3.650000e-01    2.110000e+00
  SN2q TC2eh  1 3.650000e-01    2.110000e+00
  SN1q TC2eh  1 3.650000e-01    2.110000e+00
  SC6q TC2eh  1 3.650000e-01    2.110000e+00
  SC5q TC2eh  1 3.650000e-01    2.110000e+00
  SC4q TC2eh  1 3.650000e-01    2.340000e+00
  SC3q TC2eh  1 3.650000e-01    2.570000e+00
  SC2q TC2eh  1 3.650000e-01    2.570000e+00
  SC1e TC1eh  1 3.650000e-01    1.750000e+00
  SP6q TC1eh  1 4.040000e-01    1.130000e+00
  SP5q TC1eh  1 3.780000e-01    1.450000e+00
  SP4q TC1eh  1 3.780000e-01    1.450000e+00
  SP3q TC1eh  1 3.780000e-01    1.450000e+00
  SP2q TC1eh  1 3.660000e-01    1.600000e+00
  SP1q TC1eh  1 3.660000e-01    1.600000e+00
  SN6q TC1eh  1 3.650000e-01    1.750000e+00
  SN5q TC1eh  1 3.650000e-01    1.750000e+00
  SN4q TC1eh  1 3.650000e-01    1.750000e+00
  SN3q TC1eh  1 3.650000e-01    1.910000e+00
  SN2q TC1eh  1 3.650000e-01    1.910000e+00
  SN1q TC1eh  1 3.650000e-01    1.910000e+00
  SC6q TC1eh  1 3.650000e-01    1.910000e+00
  SC5q TC1eh  1 3.650000e-01    2.110000e+00
  SC4q TC1eh  1 3.650000e-01    2.110000e+00
  SC3q TC1eh  1 3.650000e-01    2.570000e+00
  SC2q TC1eh  1 3.650000e-01    2.830000e+00
  SC1q TC1eh  1 3.650000e-01    2.570000e+00
  SX4e TX4eh  1 3.650000e-01    1.750000e+00
  SP6q TX4eh  1 3.650000e-01    2.110000e+00
  SP5q TX4eh  1 3.650000e-01    2.340000e+00
  SP4q TX4eh  1 3.650000e-01    2.340000e+00
  SP3q TX4eh  1 3.650000e-01    2.340000e+00
  SP2q TX4eh  1 3.650000e-01    2.340000e+00
  SP1q TX4eh  1 3.650000e-01    2.340000e+00
  SN6q TX4eh  1 3.650000e-01    2.570000e+00
  SN5q TX4eh  1 3.650000e-01    2.830000e+00
  SN4q TX4eh  1 3.650000e-01    3.100000e+00
  SN3q TX4eh  1 3.650000e-01    2.830000e+00
  SN2q TX4eh  1 3.650000e-01    2.830000e+00
  SN1q TX4eh  1 3.650000e-01    2.570000e+00
  SC6q TX4eh  1 3.650000e-01    2.570000e+00
  SC5q TX4eh  1 3.650000e-01    2.340000e+00
  SC4q TX4eh  1 3.650000e-01    2.340000e+00
  SC3q TX4eh  1 3.650000e-01    2.340000e+00
  SC2q TX4eh  1 3.650000e-01    1.910000e+00
  SC1q TX4eh  1 3.650000e-01    1.910000e+00
  SX4q TX4eh  1 3.650000e-01    2.570000e+00
  SX3e TX3eh  1 3.650000e-01    1.750000e+00
  SP6q TX3eh  1 3.650000e-01    2.110000e+00
  SP5q TX3eh  1 3.650000e-01    2.110000e+00
  SP4q TX3eh  1 3.650000e-01    2.110000e+00
  SP3q TX3eh  1 3.650000e-01    2.340000e+00
  SP2q TX3eh  1 3.650000e-01    2.340000e+00
  SP1q TX3eh  1 3.650000e-01    2.340000e+00
  SN6q TX3eh  1 3.650000e-01    2.340000e+00
  SN5q TX3eh  1 3.650000e-01    2.570000e+00
  SN4q TX3eh  1 3.650000e-01    2.830000e+00
  SN3q TX3eh  1 3.650000e-01    2.570000e+00
  SN2q TX3eh  1 3.650000e-01    2.570000e+00
  SN1q TX3eh  1 3.650000e-01    2.570000e+00
  SC6q TX3eh  1 3.650000e-01    2.570000e+00
  SC5q TX3eh  1 3.650000e-01    2.340000e+00
  SC4q TX3eh  1 3.650000e-01    2.340000e+00
  SC3q TX3eh  1 3.650000e-01    2.340000e+00
  SC2q TX3eh  1 3.650000e-01    2.340000e+00
  SC1q TX3eh  1 3.650000e-01    2.340000e+00
  SX4q TX3eh  1 3.650000e-01    2.570000e+00
  SX3q TX3eh  1 3.650000e-01    2.570000e+00
  SX2e TX2eh  1 3.650000e-01    1.910000e+00
  SP6q TX2eh  1 3.650000e-01    1.910000e+00
  SP5q TX2eh  1 3.650000e-01    2.110000e+00
  SP4q TX2eh  1 3.650000e-01    2.110000e+00
  SP3q TX2eh  1 3.650000e-01    2.110000e+00
  SP2q TX2eh  1 3.650000e-01    2.110000e+00
  SP1q TX2eh  1 3.650000e-01    2.110000e+00
  SN6q TX2eh  1 3.650000e-01    2.110000e+00
  SN5q TX2eh  1 3.650000e-01    2.340000e+00
  SN4q TX2eh  1 3.650000e-01    2.340000e+00
  SN3q TX2eh  1 3.650000e-01    2.340000e+00
  SN2q TX2eh  1 3.650000e-01    2.340000e+00
  SN1q TX2eh  1 3.650000e-01    2.340000e+00
  SC6q TX2eh  1 3.650000e-01    2.570000e+00
  SC5q TX2eh  1 3.650000e-01    2.340000e+00
  SC4q TX2eh  1 3.650000e-01    2.340000e+00
  SC3q TX2eh  1 3.650000e-01    2.340000e+00
  SC2q TX2eh  1 3.650000e-01    2.340000e+00
  SC1q TX2eh  1 3.650000e-01    2.340000e+00
  SX4q TX2eh  1 3.650000e-01    2.570000e+00
  SX3q TX2eh  1 3.650000e-01    2.830000e+00
  SX2q TX2eh  1 3.650000e-01    2.830000e+00
  SX1e TX1eh  1 3.650000e-01    2.110000e+00
  SP6q TX1eh  1 3.650000e-01    1.750000e+00
  SP5q TX1eh  1 3.650000e-01    1.750000e+00
  SP4q TX1eh  1 3.650000e-01    1.910000e+00
  SP3q TX1eh  1 3.650000e-01    1.910000e+00
  SP2q TX1eh  1 3.650000e-01    1.910000e+00
  SP1q TX1eh  1 3.650000e-01    1.910000e+00
  SN6q TX1eh  1 3.650000e-01    1.910000e+00
  SN5q TX1eh  1 3.650000e-01    2.110000e+00
  SN4q TX1eh  1 3.650000e-01    2.110000e+00
  SN3q TX1eh  1 3.650000e-01    2.340000e+00
  SN2q TX1eh  1 3.650000e-01    2.340000e+00
  SN1q TX1eh  1 3.650000e-01    2.340000e+00
  SC6q TX1eh  1 3.650000e-01    2.570000e+00
  SC5q TX1eh  1 3.650000e-01    2.570000e+00
  SC4q TX1eh  1 3.650000e-01    2.570000e+00
  SC3q TX1eh  1 3.650000e-01    2.570000e+00
  SC2q TX1eh  1 3.650000e-01    2.340000e+00
  SC1q TX1eh  1 3.650000e-01    2.340000e+00
  SX4q TX1eh  1 3.650000e-01    2.570000e+00
  SX3q TX1eh  1 3.650000e-01    2.830000e+00
  SX2q TX1eh  1 3.650000e-01    2.830000e+00
  SX1q TX1eh  1 3.650000e-01    3.100000e+00
  SC6e TX1eh  1 3.650000e-01    1.750000e+00
  SC5e TX1eh  1 3.650000e-01    1.750000e+00
  SC4e TX1eh  1 3.650000e-01    1.750000e+00
  SC3e TX1eh  1 3.650000e-01    1.750000e+00
  SC2e TX1eh  1 3.660000e-01    1.600000e+00
  SC1e TX1eh  1 3.660000e-01    1.600000e+00
  SX4e TX1eh  1 3.650000e-01    1.750000e+00
  SX3e TX1eh  1 3.650000e-01    1.910000e+00
  SX2e TX1eh  1 3.650000e-01    1.910000e+00
  SC6v TX1eh  1 3.650000e-01    2.340000e+00
  SC5v TX1eh  1 3.650000e-01    2.340000e+00
  SC4v TX1eh  1 3.650000e-01    2.340000e+00
  SC3v TX1eh  1 3.650000e-01    2.340000e+00
  SC2v TX1eh  1 3.650000e-01    2.110000e+00
  SC1v TX1eh  1 3.650000e-01    2.110000e+00
  SX4v TX1eh  1 3.650000e-01    2.340000e+00
  SX3v TX1eh  1 3.650000e-01    2.570000e+00
  SX2v TX1eh  1 3.650000e-01    2.570000e+00
  SX1v TX1eh  1 3.650000e-01    2.830000e+00
  SP6d TX1eh  1 3.780000e-01    1.450000e+00
  SP5d TX1eh  1 3.780000e-01    1.450000e+00
  SP4d TX1eh  1 3.660000e-01    1.600000e+00
  SP3d TX1eh  1 3.660000e-01    1.600000e+00
  SP2d TX1eh  1 3.660000e-01    1.600000e+00
  SP1d TX1eh  1 3.660000e-01    1.600000e+00
  SN6d TX1eh  1 3.660000e-01    1.600000e+00
  SN5d TX1eh  1 3.650000e-01    1.750000e+00
  SN4d TX1eh  1 3.650000e-01    1.750000e+00
  SN3d TX1eh  1 3.650000e-01    1.910000e+00
  SN2d TX1eh  1 3.650000e-01    1.910000e+00
  SN1d TX1eh  1 3.650000e-01    1.910000e+00
  SP6a TX1eh  1 4.040000e-01    1.130000e+00
  SP5a TX1eh  1 4.040000e-01    1.130000e+00
  SP4a TX1eh  1 3.940000e-01    1.290000e+00
  SP3a TX1eh  1 3.940000e-01    1.290000e+00
  SP2a TX1eh  1 3.940000e-01    1.290000e+00
  SP1a TX1eh  1 3.940000e-01    1.290000e+00
  SN6a TX1eh  1 3.940000e-01    1.290000e+00
  SN5a TX1eh  1 3.780000e-01    1.450000e+00
  SN4a TX1eh  1 3.780000e-01    1.450000e+00
  SN3a TX1eh  1 3.660000e-01    1.600000e+00
  SN2a TX1eh  1 3.660000e-01    1.600000e+00
  SN1a TX1eh  1 3.660000e-01    1.600000e+00
  SC6e TX2eh  1 3.650000e-01    1.750000e+00
  SC5e TX2eh  1 3.660000e-01    1.600000e+00
  SC4e TX2eh  1 3.660000e-01    1.600000e+00
  SC3e TX2eh  1 3.660000e-01    1.600000e+00
  SC2e TX2eh  1 3.660000e-01    1.600000e+00
  SC1e TX2eh  1 3.660000e-01    1.600000e+00
  SX4e TX2eh  1 3.650000e-01    1.750000e+00
  SX3e TX2eh  1 3.650000e-01    1.910000e+00
  SC6v TX2eh  1 3.650000e-01    2.340000e+00
  SC5v TX2eh  1 3.650000e-01    2.110000e+00
  SC4v TX2eh  1 3.650000e-01    2.110000e+00
  SC3v TX2eh  1 3.650000e-01    2.110000e+00
  SC2v TX2eh  1 3.650000e-01    2.110000e+00
  SC1v TX2eh  1 3.650000e-01    2.110000e+00
  SX4v TX2eh  1 3.650000e-01    2.340000e+00
  SX3v TX2eh  1 3.650000e-01    2.570000e+00
  SX2v TX2eh  1 3.650000e-01    2.570000e+00
  SP6d TX2eh  1 3.660000e-01    1.600000e+00
  SP5d TX2eh  1 3.650000e-01    1.750000e+00
  SP4d TX2eh  1 3.650000e-01    1.750000e+00
  SP3d TX2eh  1 3.650000e-01    1.750000e+00
  SP2d TX2eh  1 3.650000e-01    1.750000e+00
  SP1d TX2eh  1 3.650000e-01    1.750000e+00
  SN6d TX2eh  1 3.650000e-01    1.750000e+00
  SN5d TX2eh  1 3.650000e-01    1.910000e+00
  SN4d TX2eh  1 3.650000e-01    1.910000e+00
  SN3d TX2eh  1 3.650000e-01    1.910000e+00
  SN2d TX2eh  1 3.650000e-01    1.910000e+00
  SN1d TX2eh  1 3.650000e-01    1.910000e+00
  SP6a TX2eh  1 3.940000e-01    1.290000e+00
  SP5a TX2eh  1 3.780000e-01    1.450000e+00
  SP4a TX2eh  1 3.780000e-01    1.450000e+00
  SP3a TX2eh  1 3.780000e-01    1.450000e+00
  SP2a TX2eh  1 3.780000e-01    1.450000e+00
  SP1a TX2eh  1 3.780000e-01    1.450000e+00
  SN6a TX2eh  1 3.780000e-01    1.450000e+00
  SN5a TX2eh  1 3.660000e-01    1.600000e+00
  SN4a TX2eh  1 3.660000e-01    1.600000e+00
  SN3a TX2eh  1 3.660000e-01    1.600000e+00
  SN2a TX2eh  1 3.660000e-01    1.600000e+00
  SN1a TX2eh  1 3.660000e-01    1.600000e+00
  SC6e TX3eh  1 3.650000e-01    1.750000e+00
  SC5e TX3eh  1 3.660000e-01    1.600000e+00
  SC4e TX3eh  1 3.660000e-01    1.600000e+00
  SC3e TX3eh  1 3.660000e-01    1.600000e+00
  SC2e TX3eh  1 3.660000e-01    1.600000e+00
  SC1e TX3eh  1 3.660000e-01    1.600000e+00
  SX4e TX3eh  1 3.650000e-01    1.750000e+00
  SC6v TX3eh  1 3.650000e-01    2.340000e+00
  SC5v TX3eh  1 3.650000e-01    2.110000e+00
  SC4v TX3eh  1 3.650000e-01    2.110000e+00
  SC3v TX3eh  1 3.650000e-01    2.110000e+00
  SC2v TX3eh  1 3.650000e-01    2.110000e+00
  SC1v TX3eh  1 3.650000e-01    2.110000e+00
  SX4v TX3eh  1 3.650000e-01    2.340000e+00
  SX3v TX3eh  1 3.650000e-01    2.340000e+00
  SP6d TX3eh  1 3.650000e-01    1.750000e+00
  SP5d TX3eh  1 3.650000e-01    1.750000e+00
  SP4d TX3eh  1 3.650000e-01    1.750000e+00
  SP3d TX3eh  1 3.650000e-01    1.910000e+00
  SP2d TX3eh  1 3.650000e-01    1.910000e+00
  SP1d TX3eh  1 3.650000e-01    1.910000e+00
  SN6d TX3eh  1 3.650000e-01    1.910000e+00
  SN5d TX3eh  1 3.650000e-01    2.110000e+00
  SN4d TX3eh  1 3.650000e-01    2.340000e+00
  SN3d TX3eh  1 3.650000e-01    2.110000e+00
  SN2d TX3eh  1 3.650000e-01    2.110000e+00
  SN1d TX3eh  1 3.650000e-01    2.110000e+00
  SP6a TX3eh  1 3.780000e-01    1.450000e+00
  SP5a TX3eh  1 3.780000e-01    1.450000e+00
  SP4a TX3eh  1 3.780000e-01    1.450000e+00
  SP3a TX3eh  1 3.660000e-01    1.600000e+00
  SP2a TX3eh  1 3.660000e-01    1.600000e+00
  SP1a TX3eh  1 3.660000e-01    1.600000e+00
  SN6a TX3eh  1 3.660000e-01    1.600000e+00
  SN5a TX3eh  1 3.650000e-01    1.750000e+00
  SN4a TX3eh  1 3.650000e-01    1.910000e+00
  SN3a TX3eh  1 3.650000e-01    1.750000e+00
  SN2a TX3eh  1 3.650000e-01    1.750000e+00
  SN1a TX3eh  1 3.650000e-01    1.750000e+00
  SC6e TX4eh  1 3.650000e-01    1.750000e+00
  SC5e TX4eh  1 3.660000e-01    1.600000e+00
  SC4e TX4eh  1 3.660000e-01    1.600000e+00
  SC3e TX4eh  1 3.660000e-01    1.600000e+00
  SC2e TX4eh  1 3.940000e-01    1.290000e+00
  SC1e TX4eh  1 3.940000e-01    1.290000e+00
  SC6v TX4eh  1 3.650000e-01    2.340000e+00
  SC5v TX4eh  1 3.650000e-01    2.110000e+00
  SC4v TX4eh  1 3.650000e-01    2.110000e+00
  SC3v TX4eh  1 3.650000e-01    2.110000e+00
  SC2v TX4eh  1 3.650000e-01    1.750000e+00
  SC1v TX4eh  1 3.650000e-01    1.750000e+00
  SX4v TX4eh  1 3.650000e-01    2.340000e+00
  SP6d TX4eh  1 3.650000e-01    1.750000e+00
  SP5d TX4eh  1 3.650000e-01    1.910000e+00
  SP4d TX4eh  1 3.650000e-01    1.910000e+00
  SP3d TX4eh  1 3.650000e-01    1.910000e+00
  SP2d TX4eh  1 3.650000e-01    1.910000e+00
  SP1d TX4eh  1 3.650000e-01    1.910000e+00
  SN6d TX4eh  1 3.650000e-01    2.110000e+00
  SN5d TX4eh  1 3.650000e-01    2.340000e+00
  SN4d TX4eh  1 3.650000e-01    2.570000e+00
  SN3d TX4eh  1 3.650000e-01    2.340000e+00
  SN2d TX4eh  1 3.650000e-01    2.340000e+00
  SN1d TX4eh  1 3.650000e-01    2.110000e+00
  SP6a TX4eh  1 3.780000e-01    1.450000e+00
  SP5a TX4eh  1 3.660000e-01    1.600000e+00
  SP4a TX4eh  1 3.660000e-01    1.600000e+00
  SP3a TX4eh  1 3.660000e-01    1.600000e+00
  SP2a TX4eh  1 3.660000e-01    1.600000e+00
  SP1a TX4eh  1 3.660000e-01    1.600000e+00
  SN6a TX4eh  1 3.650000e-01    1.750000e+00
  SN5a TX4eh  1 3.650000e-01    1.910000e+00
  SN4a TX4eh  1 3.650000e-01    2.110000e+00
  SN3a TX4eh  1 3.650000e-01    1.910000e+00
  SN2a TX4eh  1 3.650000e-01    1.910000e+00
  SN1a TX4eh  1 3.650000e-01    1.750000e+00
  SC6e TC1eh  1 3.940000e-01    1.290000e+00
  SC5e TC1eh  1 3.780000e-01    1.450000e+00
  SC4e TC1eh  1 3.780000e-01    1.450000e+00
  SC3e TC1eh  1 3.650000e-01    1.750000e+00
  SC2e TC1eh  1 3.650000e-01    1.910000e+00
  SC6v TC1eh  1 3.650000e-01    1.750000e+00
  SC5v TC1eh  1 3.650000e-01    1.910000e+00
  SC4v TC1eh  1 3.650000e-01    1.910000e+00
  SC3v TC1eh  1 3.650000e-01    2.340000e+00
  SC2v TC1eh  1 3.650000e-01    2.570000e+00
  SC1v TC1eh  1 3.650000e-01    2.340000e+00
  SP6d TC1eh  1 4.230000e-01    9.810000e-01
  SP5d TC1eh  1 4.040000e-01    1.130000e+00
  SP4d TC1eh  1 4.040000e-01    1.130000e+00
  SP3d TC1eh  1 4.040000e-01    1.130000e+00
  SP2d TC1eh  1 3.940000e-01    1.290000e+00
  SP1d TC1eh  1 3.940000e-01    1.290000e+00
  SN6d TC1eh  1 3.780000e-01    1.450000e+00
  SN5d TC1eh  1 3.780000e-01    1.450000e+00
  SN4d TC1eh  1 3.780000e-01    1.450000e+00
  SN3d TC1eh  1 3.660000e-01    1.600000e+00
  SN2d TC1eh  1 3.660000e-01    1.600000e+00
  SN1d TC1eh  1 3.660000e-01    1.600000e+00
  SP6a TC1eh  1 5.370000e-01    8.080000e-01
  SP5a TC1eh  1 4.230000e-01    9.810000e-01
  SP4a TC1eh  1 4.230000e-01    9.810000e-01
  SP3a TC1eh  1 4.230000e-01    9.810000e-01
  SP2a TC1eh  1 4.090000e-01    1.080000e+00
  SP1a TC1eh  1 4.090000e-01    1.080000e+00
  SN6a TC1eh  1 4.040000e-01    1.130000e+00
  SN5a TC1eh  1 4.040000e-01    1.130000e+00
  SN4a TC1eh  1 4.040000e-01    1.130000e+00
  SN3a TC1eh  1 3.940000e-01    1.290000e+00
  SN2a TC1eh  1 3.940000e-01    1.290000e+00
  SN1a TC1eh  1 3.940000e-01    1.290000e+00
  SC6e TC2eh  1 3.780000e-01    1.450000e+00
  SC5e TC2eh  1 3.780000e-01    1.450000e+00
  SC4e TC2eh  1 3.660000e-01    1.600000e+00
  SC3e TC2eh  1 3.650000e-01    1.750000e+00
  SC6v TC2eh  1 3.650000e-01    1.910000e+00
  SC5v TC2eh  1 3.650000e-01    1.910000e+00
  SC4v TC2eh  1 3.650000e-01    2.110000e+00
  SC3v TC2eh  1 3.650000e-01    2.340000e+00
  SC2v TC2eh  1 3.650000e-01    2.340000e+00
  SP6d TC2eh  1 4.040000e-01    1.130000e+00
  SP5d TC2eh  1 3.940000e-01    1.290000e+00
  SP4d TC2eh  1 3.940000e-01    1.290000e+00
  SP3d TC2eh  1 3.940000e-01    1.290000e+00
  SP2d TC2eh  1 3.780000e-01    1.450000e+00
  SP1d TC2eh  1 3.780000e-01    1.450000e+00
  SN6d TC2eh  1 3.660000e-01    1.600000e+00
  SN5d TC2eh  1 3.660000e-01    1.600000e+00
  SN4d TC2eh  1 3.660000e-01    1.600000e+00
  SN3d TC2eh  1 3.650000e-01    1.750000e+00
  SN2d TC2eh  1 3.650000e-01    1.750000e+00
  SN1d TC2eh  1 3.650000e-01    1.750000e+00
  SP6a TC2eh  1 4.230000e-01    9.810000e-01
  SP5a TC2eh  1 4.090000e-01    1.080000e+00
  SP4a TC2eh  1 4.090000e-01    1.080000e+00
  SP3a TC2eh  1 4.090000e-01    1.080000e+00
  SP2a TC2eh  1 4.040000e-01    1.130000e+00
  SP1a TC2eh  1 4.040000e-01    1.130000e+00
  SN6a TC2eh  1 3.940000e-01    1.290000e+00
  SN5a TC2eh  1 3.940000e-01    1.290000e+00
  SN4a TC2eh  1 3.940000e-01    1.290000e+00
  SN3a TC2eh  1 3.780000e-01    1.450000e+00
  SN2a TC2eh  1 3.780000e-01    1.450000e+00
  SN1a TC2eh  1 3.780000e-01    1.450000e+00
  SC6e TC3eh  1 3.660000e-01    1.600000e+00
  SC5e TC3eh  1 3.660000e-01    1.600000e+00
  SC4e TC3eh  1 3.650000e-01    1.750000e+00
  SC6v TC3eh  1 3.650000e-01    2.110000e+00
  SC5v TC3eh  1 3.650000e-01    2.110000e+00
  SC4v TC3eh  1 3.650000e-01    2.340000e+00
  SC3v TC3eh  1 3.650000e-01    2.340000e+00
  SP6d TC3eh  1 4.040000e-01    1.130000e+00
  SP5d TC3eh  1 3.940000e-01    1.290000e+00
  SP4d TC3eh  1 3.940000e-01    1.290000e+00
  SP3d TC3eh  1 3.940000e-01    1.290000e+00
  SP2d TC3eh  1 3.780000e-01    1.450000e+00
  SP1d TC3eh  1 3.780000e-01    1.450000e+00
  SN6d TC3eh  1 3.660000e-01    1.600000e+00
  SN5d TC3eh  1 3.650000e-01    1.750000e+00
  SN4d TC3eh  1 3.650000e-01    1.750000e+00
  SN3d TC3eh  1 3.650000e-01    1.750000e+00
  SN2d TC3eh  1 3.650000e-01    1.910000e+00
  SN1d TC3eh  1 3.650000e-01    1.910000e+00
  SP6a TC3eh  1 4.230000e-01    9.810000e-01
  SP5a TC3eh  1 4.090000e-01    1.080000e+00
  SP4a TC3eh  1 4.090000e-01    1.080000e+00
  SP3a TC3eh  1 4.090000e-01    1.080000e+00
  SP2a TC3eh  1 4.040000e-01    1.130000e+00
  SP1a TC3eh  1 4.040000e-01    1.130000e+00
  SN6a TC3eh  1 3.940000e-01    1.290000e+00
  SN5a TC3eh  1 3.780000e-01    1.450000e+00
  SN4a TC3eh  1 3.780000e-01    1.450000e+00
  SN3a TC3eh  1 3.780000e-01    1.450000e+00
  SN2a TC3eh  1 3.660000e-01    1.600000e+00
  SN1a TC3eh  1 3.660000e-01    1.600000e+00
  SC6e TC4eh  1 3.650000e-01    1.750000e+00
  SC5e TC4eh  1 3.650000e-01    1.750000e+00
  SC6v TC4eh  1 3.650000e-01    2.340000e+00
  SC5v TC4eh  1 3.650000e-01    2.340000e+00
  SC4v TC4eh  1 3.650000e-01    2.340000e+00
  SP6d TC4eh  1 3.940000e-01    1.290000e+00
  SP5d TC4eh  1 3.780000e-01    1.450000e+00
  SP4d TC4eh  1 3.780000e-01    1.450000e+00
  SP3d TC4eh  1 3.660000e-01    1.600000e+00
  SP2d TC4eh  1 3.660000e-01    1.600000e+00
  SP1d TC4eh  1 3.660000e-01    1.600000e+00
  SN6d TC4eh  1 3.650000e-01    1.750000e+00
  SN5d TC4eh  1 3.650000e-01    1.750000e+00
  SN4d TC4eh  1 3.650000e-01    1.910000e+00
  SN3d TC4eh  1 3.650000e-01    1.910000e+00
  SN2d TC4eh  1 3.650000e-01    1.910000e+00
  SN1d TC4eh  1 3.650000e-01    2.110000e+00
  SP6a TC4eh  1 4.090000e-01    1.080000e+00
  SP5a TC4eh  1 4.040000e-01    1.130000e+00
  SP4a TC4eh  1 4.040000e-01    1.130000e+00
  SP3a TC4eh  1 3.940000e-01    1.290000e+00
  SP2a TC4eh  1 3.940000e-01    1.290000e+00
  SP1a TC4eh  1 3.940000e-01    1.290000e+00
  SN6a TC4eh  1 3.780000e-01    1.450000e+00
  SN5a TC4eh  1 3.780000e-01    1.450000e+00
  SN4a TC4eh  1 3.660000e-01    1.600000e+00
  SN3a TC4eh  1 3.660000e-01    1.600000e+00
  SN2a TC4eh  1 3.660000e-01    1.600000e+00
  SN1a TC4eh  1 3.650000e-01    1.750000e+00
  SC6e TC5eh  1 3.650000e-01    1.750000e+00
  SC6v TC5eh  1 3.650000e-01    2.340000e+00
  SC5v TC5eh  1 3.650000e-01    2.340000e+00
  SP6d TC5eh  1 3.780000e-01    1.450000e+00
  SP5d TC5eh  1 3.660000e-01    1.600000e+00
  SP4d TC5eh  1 3.660000e-01    1.600000e+00
  SP3d TC5eh  1 3.650000e-01    1.750000e+00
  SP2d TC5eh  1 3.650000e-01    1.750000e+00
  SP1d TC5eh  1 3.650000e-01    1.750000e+00
  SN6d TC5eh  1 3.650000e-01    1.910000e+00
  SN5d TC5eh  1 3.650000e-01    1.910000e+00
  SN4d TC5eh  1 3.650000e-01    1.910000e+00
  SN3d TC5eh  1 3.650000e-01    1.910000e+00
  SN2d TC5eh  1 3.650000e-01    1.910000e+00
  SN1d TC5eh  1 3.650000e-01    2.110000e+00
  SP6a TC5eh  1 4.040000e-01    1.130000e+00
  SP5a TC5eh  1 3.940000e-01    1.290000e+00
  SP4a TC5eh  1 3.940000e-01    1.290000e+00
  SP3a TC5eh  1 3.780000e-01    1.450000e+00
  SP2a TC5eh  1 3.780000e-01    1.450000e+00
  SP1a TC5eh  1 3.780000e-01    1.450000e+00
  SN6a TC5eh  1 3.660000e-01    1.600000e+00
  SN5a TC5eh  1 3.660000e-01    1.600000e+00
  SN4a TC5eh  1 3.660000e-01    1.600000e+00
  SN3a TC5eh  1 3.660000e-01    1.600000e+00
  SN2a TC5eh  1 3.660000e-01    1.600000e+00
  SN1a TC5eh  1 3.650000e-01    1.750000e+00
  SC6v TC6eh  1 3.650000e-01    2.570000e+00
  SP6d TC6eh  1 3.660000e-01    1.600000e+00
  SP5d TC6eh  1 3.660000e-01    1.600000e+00
  SP4d TC6eh  1 3.650000e-01    1.750000e+00
  SP3d TC6eh  1 3.650000e-01    1.910000e+00
  SP2d TC6eh  1 3.650000e-01    1.910000e+00
  SP1d TC6eh  1 3.650000e-01    1.910000e+00
  SN6d TC6eh  1 3.650000e-01    2.110000e+00
  SN5d TC6eh  1 3.650000e-01    2.110000e+00
  SN4d TC6eh  1 3.650000e-01    2.110000e+00
  SN3d TC6eh  1 3.650000e-01    2.110000e+00
  SN2d TC6eh  1 3.650000e-01    2.110000e+00
  SN1d TC6eh  1 3.650000e-01    2.340000e+00
  SP6a TC6eh  1 3.940000e-01    1.290000e+00
  SP5a TC6eh  1 3.940000e-01    1.290000e+00
  SP4a TC6eh  1 3.780000e-01    1.450000e+00
  SP3a TC6eh  1 3.660000e-01    1.600000e+00
  SP2a TC6eh  1 3.660000e-01    1.600000e+00
  SP1a TC6eh  1 3.660000e-01    1.600000e+00
  SN6a TC6eh  1 3.650000e-01    1.750000e+00
  SN5a TC6eh  1 3.650000e-01    1.750000e+00
  SN4a TC6eh  1 3.650000e-01    1.750000e+00
  SN3a TC6eh  1 3.650000e-01    1.750000e+00
  SN2a TC6eh  1 3.650000e-01    1.750000e+00
  SN1a TC6eh  1 3.650000e-01    1.910000e+00
  SC6v TX1vh  1 3.650000e-01    1.750000e+00
  SC5v TX1vh  1 3.650000e-01    1.750000e+00
  SC4v TX1vh  1 3.650000e-01    1.750000e+00
  SC3v TX1vh  1 3.650000e-01    1.750000e+00
  SC2v TX1vh  1 3.660000e-01    1.600000e+00
  SC1v TX1vh  1 3.660000e-01    1.600000e+00
  SX4v TX1vh  1 3.650000e-01    1.750000e+00
  SX3v TX1vh  1 3.650000e-01    1.910000e+00
  SX2v TX1vh  1 3.650000e-01    1.910000e+00
  SP6a TX1vh  1 3.780000e-01    1.450000e+00
  SP5a TX1vh  1 3.780000e-01    1.450000e+00
  SP4a TX1vh  1 3.660000e-01    1.600000e+00
  SP3a TX1vh  1 3.660000e-01    1.600000e+00
  SP2a TX1vh  1 3.660000e-01    1.600000e+00
  SP1a TX1vh  1 3.660000e-01    1.600000e+00
  SN6a TX1vh  1 3.660000e-01    1.600000e+00
  SN5a TX1vh  1 3.650000e-01    1.750000e+00
  SN4a TX1vh  1 3.650000e-01    1.750000e+00
  SN3a TX1vh  1 3.650000e-01    1.910000e+00
  SN2a TX1vh  1 3.650000e-01    1.910000e+00
  SN1a TX1vh  1 3.650000e-01    1.910000e+00
  SP6d TX1vh  1 4.040000e-01    1.130000e+00
  SP5d TX1vh  1 4.040000e-01    1.130000e+00
  SP4d TX1vh  1 3.940000e-01    1.290000e+00
  SP3d TX1vh  1 3.940000e-01    1.290000e+00
  SP2d TX1vh  1 3.940000e-01    1.290000e+00
  SP1d TX1vh  1 3.940000e-01    1.290000e+00
  SN6d TX1vh  1 3.940000e-01    1.290000e+00
  SN5d TX1vh  1 3.780000e-01    1.450000e+00
  SN4d TX1vh  1 3.780000e-01    1.450000e+00
  SN3d TX1vh  1 3.660000e-01    1.600000e+00
  SN2d TX1vh  1 3.660000e-01    1.600000e+00
  SN1d TX1vh  1 3.660000e-01    1.600000e+00
  SC6v TX2vh  1 3.650000e-01    1.750000e+00
  SC5v TX2vh  1 3.660000e-01    1.600000e+00
  SC4v TX2vh  1 3.660000e-01    1.600000e+00
  SC3v TX2vh  1 3.660000e-01    1.600000e+00
  SC2v TX2vh  1 3.660000e-01    1.600000e+00
  SC1v TX2vh  1 3.660000e-01    1.600000e+00
  SX4v TX2vh  1 3.650000e-01    1.750000e+00
  SX3v TX2vh  1 3.650000e-01    1.910000e+00
  SP6a TX2vh  1 3.660000e-01    1.600000e+00
  SP5a TX2vh  1 3.650000e-01    1.750000e+00
  SP4a TX2vh  1 3.650000e-01    1.750000e+00
  SP3a TX2vh  1 3.650000e-01    1.750000e+00
  SP2a TX2vh  1 3.650000e-01    1.750000e+00
  SP1a TX2vh  1 3.650000e-01    1.750000e+00
  SN6a TX2vh  1 3.650000e-01    1.750000e+00
  SN5a TX2vh  1 3.650000e-01    1.910000e+00
  SN4a TX2vh  1 3.650000e-01    1.910000e+00
  SN3a TX2vh  1 3.650000e-01    1.910000e+00
  SN2a TX2vh  1 3.650000e-01    1.910000e+00
  SN1a TX2vh  1 3.650000e-01    1.910000e+00
  SP6d TX2vh  1 3.940000e-01    1.290000e+00
  SP5d TX2vh  1 3.780000e-01    1.450000e+00
  SP4d TX2vh  1 3.780000e-01    1.450000e+00
  SP3d TX2vh  1 3.780000e-01    1.450000e+00
  SP2d TX2vh  1 3.780000e-01    1.450000e+00
  SP1d TX2vh  1 3.780000e-01    1.450000e+00
  SN6d TX2vh  1 3.780000e-01    1.450000e+00
  SN5d TX2vh  1 3.660000e-01    1.600000e+00
  SN4d TX2vh  1 3.660000e-01    1.600000e+00
  SN3d TX2vh  1 3.660000e-01    1.600000e+00
  SN2d TX2vh  1 3.660000e-01    1.600000e+00
  SN1d TX2vh  1 3.660000e-01    1.600000e+00
  SC6v TX3vh  1 3.650000e-01    1.750000e+00
  SC5v TX3vh  1 3.660000e-01    1.600000e+00
  SC4v TX3vh  1 3.660000e-01    1.600000e+00
  SC3v TX3vh  1 3.660000e-01    1.600000e+00
  SC2v TX3vh  1 3.660000e-01    1.600000e+00
  SC1v TX3vh  1 3.660000e-01    1.600000e+00
  SX4v TX3vh  1 3.650000e-01    1.750000e+00
  SP6a TX3vh  1 3.650000e-01    1.750000e+00
  SP5a TX3vh  1 3.650000e-01    1.750000e+00
  SP4a TX3vh  1 3.650000e-01    1.750000e+00
  SP3a TX3vh  1 3.650000e-01    1.910000e+00
  SP2a TX3vh  1 3.650000e-01    1.910000e+00
  SP1a TX3vh  1 3.650000e-01    1.910000e+00
  SN6a TX3vh  1 3.650000e-01    1.910000e+00
  SN5a TX3vh  1 3.650000e-01    2.110000e+00
  SN4a TX3vh  1 3.650000e-01    2.340000e+00
  SN3a TX3vh  1 3.650000e-01    2.110000e+00
  SN2a TX3vh  1 3.650000e-01    2.110000e+00
  SN1a TX3vh  1 3.650000e-01    2.110000e+00
  SP6d TX3vh  1 3.780000e-01    1.450000e+00
  SP5d TX3vh  1 3.780000e-01    1.450000e+00
  SP4d TX3vh  1 3.780000e-01    1.450000e+00
  SP3d TX3vh  1 3.660000e-01    1.600000e+00
  SP2d TX3vh  1 3.660000e-01    1.600000e+00
  SP1d TX3vh  1 3.660000e-01    1.600000e+00
  SN6d TX3vh  1 3.660000e-01    1.600000e+00
  SN5d TX3vh  1 3.650000e-01    1.750000e+00
  SN4d TX3vh  1 3.650000e-01    1.910000e+00
  SN3d TX3vh  1 3.650000e-01    1.750000e+00
  SN2d TX3vh  1 3.650000e-01    1.750000e+00
  SN1d TX3vh  1 3.650000e-01    1.750000e+00
  SC6v TX4vh  1 3.650000e-01    1.750000e+00
  SC5v TX4vh  1 3.660000e-01    1.600000e+00
  SC4v TX4vh  1 3.660000e-01    1.600000e+00
  SC3v TX4vh  1 3.660000e-01    1.600000e+00
  SC2v TX4vh  1 3.940000e-01    1.290000e+00
  SC1v TX4vh  1 3.940000e-01    1.290000e+00
  SP6a TX4vh  1 3.650000e-01    1.750000e+00
  SP5a TX4vh  1 3.650000e-01    1.910000e+00
  SP4a TX4vh  1 3.650000e-01    1.910000e+00
  SP3a TX4vh  1 3.650000e-01    1.910000e+00
  SP2a TX4vh  1 3.650000e-01    1.910000e+00
  SP1a TX4vh  1 3.650000e-01    1.910000e+00
  SN6a TX4vh  1 3.650000e-01    2.110000e+00
  SN5a TX4vh  1 3.650000e-01    2.340000e+00
  SN4a TX4vh  1 3.650000e-01    2.570000e+00
  SN3a TX4vh  1 3.650000e-01    2.340000e+00
  SN2a TX4vh  1 3.650000e-01    2.340000e+00
  SN1a TX4vh  1 3.650000e-01    2.110000e+00
  SP6d TX4vh  1 3.780000e-01    1.450000e+00
  SP5d TX4vh  1 3.660000e-01    1.600000e+00
  SP4d TX4vh  1 3.660000e-01    1.600000e+00
  SP3d TX4vh  1 3.660000e-01    1.600000e+00
  SP2d TX4vh  1 3.660000e-01    1.600000e+00
  SP1d TX4vh  1 3.660000e-01    1.600000e+00
  SN6d TX4vh  1 3.650000e-01    1.750000e+00
  SN5d TX4vh  1 3.650000e-01    1.910000e+00
  SN4d TX4vh  1 3.650000e-01    2.110000e+00
  SN3d TX4vh  1 3.650000e-01    1.910000e+00
  SN2d TX4vh  1 3.650000e-01    1.910000e+00
  SN1d TX4vh  1 3.650000e-01    1.750000e+00
  SC6v TC1vh  1 3.940000e-01    1.290000e+00
  SC5v TC1vh  1 3.780000e-01    1.450000e+00
  SC4v TC1vh  1 3.780000e-01    1.450000e+00
  SC3v TC1vh  1 3.650000e-01    1.750000e+00
  SC2v TC1vh  1 3.650000e-01    1.910000e+00
  SP6a TC1vh  1 4.230000e-01    9.810000e-01
  SP5a TC1vh  1 4.040000e-01    1.130000e+00
  SP4a TC1vh  1 4.040000e-01    1.130000e+00
  SP3a TC1vh  1 4.040000e-01    1.130000e+00
  SP2a TC1vh  1 3.940000e-01    1.290000e+00
  SP1a TC1vh  1 3.940000e-01    1.290000e+00
  SN6a TC1vh  1 3.780000e-01    1.450000e+00
  SN5a TC1vh  1 3.780000e-01    1.450000e+00
  SN4a TC1vh  1 3.780000e-01    1.450000e+00
  SN3a TC1vh  1 3.660000e-01    1.600000e+00
  SN2a TC1vh  1 3.660000e-01    1.600000e+00
  SN1a TC1vh  1 3.660000e-01    1.600000e+00
  SP6d TC1vh  1 5.370000e-01    8.080000e-01
  SP5d TC1vh  1 4.230000e-01    9.810000e-01
  SP4d TC1vh  1 4.230000e-01    9.810000e-01
  SP3d TC1vh  1 4.230000e-01    9.810000e-01
  SP2d TC1vh  1 4.090000e-01    1.080000e+00
  SP1d TC1vh  1 4.090000e-01    1.080000e+00
  SN6d TC1vh  1 4.040000e-01    1.130000e+00
  SN5d TC1vh  1 4.040000e-01    1.130000e+00
  SN4d TC1vh  1 4.040000e-01    1.130000e+00
  SN3d TC1vh  1 3.940000e-01    1.290000e+00
  SN2d TC1vh  1 3.940000e-01    1.290000e+00
  SN1d TC1vh  1 3.940000e-01    1.290000e+00
  SC6v TC2vh  1 3.780000e-01    1.450000e+00
  SC5v TC2vh  1 3.780000e-01    1.450000e+00
  SC4v TC2vh  1 3.660000e-01    1.600000e+00
  SC3v TC2vh  1 3.650000e-01    1.750000e+00
  SP6a TC2vh  1 4.040000e-01    1.130000e+00
  SP5a TC2vh  1 3.940000e-01    1.290000e+00
  SP4a TC2vh  1 3.940000e-01    1.290000e+00
  SP3a TC2vh  1 3.940000e-01    1.290000e+00
  SP2a TC2vh  1 3.780000e-01    1.450000e+00
  SP1a TC2vh  1 3.780000e-01    1.450000e+00
  SN6a TC2vh  1 3.660000e-01    1.600000e+00
  SN5a TC2vh  1 3.660000e-01    1.600000e+00
  SN4a TC2vh  1 3.660000e-01    1.600000e+00
  SN3a TC2vh  1 3.650000e-01    1.750000e+00
  SN2a TC2vh  1 3.650000e-01    1.750000e+00
  SN1a TC2vh  1 3.650000e-01    1.750000e+00
  SP6d TC2vh  1 4.230000e-01    9.810000e-01
  SP5d TC2vh  1 4.090000e-01    1.080000e+00
  SP4d TC2vh  1 4.090000e-01    1.080000e+00
  SP3d TC2vh  1 4.090000e-01    1.080000e+00
  SP2d TC2vh  1 4.040000e-01    1.130000e+00
  SP1d TC2vh  1 4.040000e-01    1.130000e+00
  SN6d TC2vh  1 3.940000e-01    1.290000e+00
  SN5d TC2vh  1 3.940000e-01    1.290000e+00
  SN4d TC2vh  1 3.940000e-01    1.290000e+00
  SN3d TC2vh  1 3.780000e-01    1.450000e+00
  SN2d TC2vh  1 3.780000e-01    1.450000e+00
  SN1d TC2vh  1 3.780000e-01    1.450000e+00
  SC6v TC3vh  1 3.660000e-01    1.600000e+00
  SC5v TC3vh  1 3.660000e-01    1.600000e+00
  SC4v TC3vh  1 3.650000e-01    1.750000e+00
  SP6a TC3vh  1 4.040000e-01    1.130000e+00
  SP5a TC3vh  1 3.940000e-01    1.290000e+00
  SP4a TC3vh  1 3.940000e-01    1.290000e+00
  SP3a TC3vh  1 3.940000e-01    1.290000e+00
  SP2a TC3vh  1 3.780000e-01    1.450000e+00
  SP1a TC3vh  1 3.780000e-01    1.450000e+00
  SN6a TC3vh  1 3.660000e-01    1.600000e+00
  SN5a TC3vh  1 3.650000e-01    1.750000e+00
  SN4a TC3vh  1 3.650000e-01    1.750000e+00
  SN3a TC3vh  1 3.650000e-01    1.750000e+00
  SN2a TC3vh  1 3.650000e-01    1.910000e+00
  SN1a TC3vh  1 3.650000e-01    1.910000e+00
  SP6d TC3vh  1 4.230000e-01    9.810000e-01
  SP5d TC3vh  1 4.090000e-01    1.080000e+00
  SP4d TC3vh  1 4.090000e-01    1.080000e+00
  SP3d TC3vh  1 4.090000e-01    1.080000e+00
  SP2d TC3vh  1 4.040000e-01    1.130000e+00
  SP1d TC3vh  1 4.040000e-01    1.130000e+00
  SN6d TC3vh  1 3.940000e-01    1.290000e+00
  SN5d TC3vh  1 3.780000e-01    1.450000e+00
  SN4d TC3vh  1 3.780000e-01    1.450000e+00
  SN3d TC3vh  1 3.780000e-01    1.450000e+00
  SN2d TC3vh  1 3.660000e-01    1.600000e+00
  SN1d TC3vh  1 3.660000e-01    1.600000e+00
  SC6v TC4vh  1 3.650000e-01    1.750000e+00
  SC5v TC4vh  1 3.650000e-01    1.750000e+00
  SP6a TC4vh  1 3.940000e-01    1.290000e+00
  SP5a TC4vh  1 3.780000e-01    1.450000e+00
  SP4a TC4vh  1 3.780000e-01    1.450000e+00
  SP3a TC4vh  1 3.660000e-01    1.600000e+00
  SP2a TC4vh  1 3.660000e-01    1.600000e+00
  SP1a TC4vh  1 3.660000e-01    1.600000e+00
  SN6a TC4vh  1 3.650000e-01    1.750000e+00
  SN5a TC4vh  1 3.650000e-01    1.750000e+00
  SN4a TC4vh  1 3.650000e-01    1.910000e+00
  SN3a TC4vh  1 3.650000e-01    1.910000e+00
  SN2a TC4vh  1 3.650000e-01    1.910000e+00
  SN1a TC4vh  1 3.650000e-01    2.110000e+00
  SP6d TC4vh  1 4.090000e-01    1.080000e+00
  SP5d TC4vh  1 4.040000e-01    1.130000e+00
  SP4d TC4vh  1 4.040000e-01    1.130000e+00
  SP3d TC4vh  1 3.940000e-01    1.290000e+00
  SP2d TC4vh  1 3.940000e-01    1.290000e+00
  SP1d TC4vh  1 3.940000e-01    1.290000e+00
  SN6d TC4vh  1 3.780000e-01    1.450000e+00
  SN5d TC4vh  1 3.780000e-01    1.450000e+00
  SN4d TC4vh  1 3.660000e-01    1.600000e+00
  SN3d TC4vh  1 3.660000e-01    1.600000e+00
  SN2d TC4vh  1 3.660000e-01    1.600000e+00
  SN1d TC4vh  1 3.650000e-01    1.750000e+00
  SC6v TC5vh  1 3.650000e-01    1.750000e+00
  SP6a TC5vh  1 3.780000e-01    1.450000e+00
  SP5a TC5vh  1 3.660000e-01    1.600000e+00
  SP4a TC5vh  1 3.660000e-01    1.600000e+00
  SP3a TC5vh  1 3.650000e-01    1.750000e+00
  SP2a TC5vh  1 3.650000e-01    1.750000e+00
  SP1a TC5vh  1 3.650000e-01    1.750000e+00
  SN6a TC5vh  1 3.650000e-01    1.910000e+00
  SN5a TC5vh  1 3.650000e-01    1.910000e+00
  SN4a TC5vh  1 3.650000e-01    1.910000e+00
  SN3a TC5vh  1 3.650000e-01    1.910000e+00
  SN2a TC5vh  1 3.650000e-01    1.910000e+00
  SN1a TC5vh  1 3.650000e-01    2.110000e+00
  SP6d TC5vh  1 4.040000e-01    1.130000e+00
  SP5d TC5vh  1 3.940000e-01    1.290000e+00
  SP4d TC5vh  1 3.940000e-01    1.290000e+00
  SP3d TC5vh  1 3.780000e-01    1.450000e+00
  SP2d TC5vh  1 3.780000e-01    1.450000e+00
  SP1d TC5vh  1 3.780000e-01    1.450000e+00
  SN6d TC5vh  1 3.660000e-01    1.600000e+00
  SN5d TC5vh  1 3.660000e-01    1.600000e+00
  SN4d TC5vh  1 3.660000e-01    1.600000e+00
  SN3d TC5vh  1 3.660000e-01    1.600000e+00
  SN2d TC5vh  1 3.660000e-01    1.600000e+00
  SN1d TC5vh  1 3.650000e-01    1.750000e+00
  SP6a TC6vh  1 3.660000e-01    1.600000e+00
  SP5a TC6vh  1 3.660000e-01    1.600000e+00
  SP4a TC6vh  1 3.650000e-01    1.750000e+00
  SP3a TC6vh  1 3.650000e-01    1.910000e+00
  SP2a TC6vh  1 3.650000e-01    1.910000e+00
  SP1a TC6vh  1 3.650000e-01    1.910000e+00
  SN6a TC6vh  1 3.650000e-01    2.110000e+00
  SN5a TC6vh  1 3.650000e-01    2.110000e+00
  SN4a TC6vh  1 3.650000e-01    2.110000e+00
  SN3a TC6vh  1 3.650000e-01    2.110000e+00
  SN2a TC6vh  1 3.650000e-01    2.110000e+00
  SN1a TC6vh  1 3.650000e-01    2.340000e+00
  SP6d TC6vh  1 3.940000e-01    1.290000e+00
  SP5d TC6vh  1 3.940000e-01    1.290000e+00
  SP4d TC6vh  1 3.780000e-01    1.450000e+00
  SP3d TC6vh  1 3.660000e-01    1.600000e+00
  SP2d TC6vh  1 3.660000e-01    1.600000e+00
  SP1d TC6vh  1 3.660000e-01    1.600000e+00
  SN6d TC6vh  1 3.650000e-01    1.750000e+00
  SN5d TC6vh  1 3.650000e-01    1.750000e+00
  SN4d TC6vh  1 3.650000e-01    1.750000e+00
  SN3d TC6vh  1 3.650000e-01    1.750000e+00
  SN2d TC6vh  1 3.650000e-01    1.750000e+00
  SN1d TC6vh  1 3.650000e-01    1.910000e+00
  SP6a TN1ah  1 3.780000e-01    1.450000e+00
  SP5a TN1ah  1 3.780000e-01    1.450000e+00
  SP4a TN1ah  1 3.660000e-01    1.600000e+00
  SP3a TN1ah  1 3.650000e-01    1.750000e+00
  SP2a TN1ah  1 3.650000e-01    1.750000e+00
  SP1a TN1ah  1 3.650000e-01    1.750000e+00
  SN6a TN1ah  1 3.650000e-01    1.750000e+00
  SN5a TN1ah  1 3.650000e-01    1.750000e+00
  SN4a TN1ah  1 3.650000e-01    1.750000e+00
  SN3a TN1ah  1 3.650000e-01    1.750000e+00
  SN2a TN1ah  1 3.650000e-01    1.750000e+00
  SP6d TN1ah  1 3.780000e-01    1.450000e+00
  SP5d TN1ah  1 3.780000e-01    1.450000e+00
  SP4d TN1ah  1 3.660000e-01    1.600000e+00
  SP3d TN1ah  1 3.650000e-01    1.750000e+00
  SP2d TN1ah  1 3.650000e-01    2.110000e+00
  SP1d TN1ah  1 3.650000e-01    2.110000e+00
  SN6d TN1ah  1 3.650000e-01    2.110000e+00
  SN5d TN1ah  1 3.650000e-01    2.110000e+00
  SN4d TN1ah  1 3.650000e-01    2.110000e+00
  SN3d TN1ah  1 3.650000e-01    2.110000e+00
  SN2d TN1ah  1 3.650000e-01    2.110000e+00
  SN1d TN1ah  1 3.650000e-01    2.340000e+00
  SP6a TN2ah  1 3.660000e-01    1.600000e+00
  SP5a TN2ah  1 3.660000e-01    1.600000e+00
  SP4a TN2ah  1 3.650000e-01    1.750000e+00
  SP3a TN2ah  1 3.650000e-01    1.750000e+00
  SP2a TN2ah  1 3.650000e-01    1.750000e+00
  SP1a TN2ah  1 3.650000e-01    1.750000e+00
  SN6a TN2ah  1 3.650000e-01    1.750000e+00
  SN5a TN2ah  1 3.650000e-01    1.910000e+00
  SN4a TN2ah  1 3.650000e-01    1.910000e+00
  SN3a TN2ah  1 3.650000e-01    1.910000e+00
  SP6d TN2ah  1 3.660000e-01    1.600000e+00
  SP5d TN2ah  1 3.660000e-01    1.600000e+00
  SP4d TN2ah  1 3.650000e-01    1.750000e+00
  SP3d TN2ah  1 3.650000e-01    2.110000e+00
  SP2d TN2ah  1 3.650000e-01    2.110000e+00
  SP1d TN2ah  1 3.650000e-01    2.110000e+00
  SN6d TN2ah  1 3.650000e-01    2.110000e+00
  SN5d TN2ah  1 3.650000e-01    2.340000e+00
  SN4d TN2ah  1 3.650000e-01    2.340000e+00
  SN3d TN2ah  1 3.650000e-01    2.340000e+00
  SN2d TN2ah  1 3.650000e-01    2.340000e+00
  SP6a TN3ah  1 3.650000e-01    1.750000e+00
  SP5a TN3ah  1 3.650000e-01    1.750000e+00
  SP4a TN3ah  1 3.650000e-01    1.750000e+00
  SP3a TN3ah  1 3.650000e-01    1.750000e+00
  SP2a TN3ah  1 3.650000e-01    1.750000e+00
  SP1a TN3ah  1 3.650000e-01    1.750000e+00
  SN6a TN3ah  1 3.650000e-01    1.910000e+00
  SN5a TN3ah  1 3.650000e-01    1.910000e+00
  SN4a TN3ah  1 3.650000e-01    1.910000e+00
  SP6d TN3ah  1 3.650000e-01    1.750000e+00
  SP5d TN3ah  1 3.650000e-01    1.750000e+00
  SP4d TN3ah  1 3.650000e-01    2.110000e+00
  SP3d TN3ah  1 3.650000e-01    2.110000e+00
  SP2d TN3ah  1 3.650000e-01    2.110000e+00
  SP1d TN3ah  1 3.650000e-01    2.110000e+00
  SN6d TN3ah  1 3.650000e-01    2.340000e+00
  SN5d TN3ah  1 3.650000e-01    2.340000e+00
  SN4d TN3ah  1 3.650000e-01    2.340000e+00
  SN3d TN3ah  1 3.650000e-01    2.340000e+00
  SP6a TN4ah  1 3.650000e-01    1.750000e+00
  SP5a TN4ah  1 3.650000e-01    1.910000e+00
  SP4a TN4ah  1 3.650000e-01    1.910000e+00
  SP3a TN4ah  1 3.650000e-01    1.910000e+00
  SP2a TN4ah  1 3.650000e-01    1.910000e+00
  SP1a TN4ah  1 3.650000e-01    2.110000e+00
  SN6a TN4ah  1 3.650000e-01    2.340000e+00
  SN5a TN4ah  1 3.650000e-01    2.110000e+00
  SP6d TN4ah  1 3.650000e-01    2.110000e+00
  SP5d TN4ah  1 3.650000e-01    2.340000e+00
  SP4d TN4ah  1 3.650000e-01    2.340000e+00
  SP3d TN4ah  1 3.650000e-01    2.340000e+00
  SP2d TN4ah  1 3.650000e-01    2.340000e+00
  SP1d TN4ah  1 3.650000e-01    2.570000e+00
  SN6d TN4ah  1 3.650000e-01    2.830000e+00
  SN5d TN4ah  1 3.650000e-01    2.570000e+00
  SN4d TN4ah  1 3.650000e-01    2.570000e+00
  SP6a TN5ah  1 3.650000e-01    1.910000e+00
  SP5a TN5ah  1 3.650000e-01    1.910000e+00
  SP4a TN5ah  1 3.650000e-01    1.910000e+00
  SP3a TN5ah  1 3.650000e-01    1.910000e+00
  SP2a TN5ah  1 3.650000e-01    2.110000e+00
  SP1a TN5ah  1 3.650000e-01    2.110000e+00
  SN6a TN5ah  1 3.650000e-01    2.340000e+00
  SP6d TN5ah  1 3.650000e-01    2.340000e+00
  SP5d TN5ah  1 3.650000e-01    2.340000e+00
  SP4d TN5ah  1 3.650000e-01    2.340000e+00
  SP3d TN5ah  1 3.650000e-01    2.340000e+00
  SP2d TN5ah  1 3.650000e-01    2.570000e+00
  SP1d TN5ah  1 3.650000e-01    2.570000e+00
  SN6d TN5ah  1 3.650000e-01    2.830000e+00
  SN5d TN5ah  1 3.650000e-01    2.570000e+00
  SP6a TN6ah  1 3.650000e-01    2.340000e+00
  SP5a TN6ah  1 3.650000e-01    2.110000e+00
  SP4a TN6ah  1 3.650000e-01    2.110000e+00
  SP3a TN6ah  1 3.650000e-01    2.110000e+00
  SP2a TN6ah  1 3.650000e-01    2.340000e+00
  SP1a TN6ah  1 3.650000e-01    2.340000e+00
  SP6d TN6ah  1 3.650000e-01    2.830000e+00
  SP5d TN6ah  1 3.650000e-01    2.570000e+00
  SP4d TN6ah  1 3.650000e-01    2.570000e+00
  SP3d TN6ah  1 3.650000e-01    2.570000e+00
  SP2d TN6ah  1 3.650000e-01    2.830000e+00
  SP1d TN6ah  1 3.650000e-01    2.830000e+00
  SN6d TN6ah  1 3.650000e-01    2.830000e+00
  SP6a TP1ah  1 3.650000e-01    2.570000e+00
  SP5a TP1ah  1 3.650000e-01    2.340000e+00
  SP4a TP1ah  1 3.650000e-01    2.340000e+00
  SP3a TP1ah  1 3.650000e-01    2.340000e+00
  SP2a TP1ah  1 3.650000e-01    2.340000e+00
  SP6d TP1ah  1 3.650000e-01    3.100000e+00
  SP5d TP1ah  1 3.650000e-01    2.830000e+00
  SP4d TP1ah  1 3.650000e-01    2.830000e+00
  SP3d TP1ah  1 3.650000e-01    2.830000e+00
  SP2d TP1ah  1 3.650000e-01    2.830000e+00
  SP1d TP1ah  1 3.650000e-01    2.830000e+00
  SP6a TP2ah  1 3.650000e-01    2.830000e+00
  SP5a TP2ah  1 3.650000e-01    2.570000e+00
  SP4a TP2ah  1 3.650000e-01    2.570000e+00
  SP3a TP2ah  1 3.650000e-01    2.570000e+00
  SP6d TP2ah  1 3.650000e-01    3.370000e+00
  SP5d TP2ah  1 3.650000e-01    3.100000e+00
  SP4d TP2ah  1 3.650000e-01    3.100000e+00
  SP3d TP2ah  1 3.650000e-01    3.100000e+00
  SP2d TP2ah  1 3.650000e-01    3.100000e+00
  SP6a TP3ah  1 3.650000e-01    2.830000e+00
  SP5a TP3ah  1 3.650000e-01    2.570000e+00
  SP4a TP3ah  1 3.650000e-01    2.570000e+00
  SP6d TP3ah  1 3.650000e-01    3.370000e+00
  SP5d TP3ah  1 3.650000e-01    3.100000e+00
  SP4d TP3ah  1 3.650000e-01    3.100000e+00
  SP3d TP3ah  1 3.650000e-01    3.100000e+00
  SP6a TP4ah  1 3.650000e-01    3.100000e+00
  SP5a TP4ah  1 3.650000e-01    2.830000e+00
  SP6d TP4ah  1 3.650000e-01    3.640000e+00
  SP5d TP4ah  1 3.650000e-01    3.370000e+00
  SP4d TP4ah  1 3.650000e-01    3.370000e+00
  SP6a TP5ah  1 3.650000e-01    3.370000e+00
  SP6d TP5ah  1 3.650000e-01    3.930000e+00
  SP5d TP5ah  1 3.650000e-01    3.640000e+00
  SP6d TP6ah  1 3.650000e-01    4.220000e+00
  SP6d TN1dh  1 3.780000e-01    1.450000e+00
  SP5d TN1dh  1 3.780000e-01    1.450000e+00
  SP4d TN1dh  1 3.660000e-01    1.600000e+00
  SP3d TN1dh  1 3.650000e-01    1.750000e+00
  SP2d TN1dh  1 3.650000e-01    1.750000e+00
  SP1d TN1dh  1 3.650000e-01    1.750000e+00
  SN6d TN1dh  1 3.650000e-01    1.750000e+00
  SN5d TN1dh  1 3.650000e-01    1.750000e+00
  SN4d TN1dh  1 3.650000e-01    1.750000e+00
  SN3d TN1dh  1 3.650000e-01    1.750000e+00
  SN2d TN1dh  1 3.650000e-01    1.750000e+00
  SP6d TN2dh  1 3.660000e-01    1.600000e+00
  SP5d TN2dh  1 3.660000e-01    1.600000e+00
  SP4d TN2dh  1 3.650000e-01    1.750000e+00
  SP3d TN2dh  1 3.650000e-01    1.750000e+00
  SP2d TN2dh  1 3.650000e-01    1.750000e+00
  SP1d TN2dh  1 3.650000e-01    1.750000e+00
  SN6d TN2dh  1 3.650000e-01    1.750000e+00
  SN5d TN2dh  1 3.650000e-01    1.910000e+00
  SN4d TN2dh  1 3.650000e-01    1.910000e+00
  SN3d TN2dh  1 3.650000e-01    1.910000e+00
  SP6d TN3dh  1 3.650000e-01    1.750000e+00
  SP5d TN3dh  1 3.650000e-01    1.750000e+00
  SP4d TN3dh  1 3.650000e-01    1.750000e+00
  SP3d TN3dh  1 3.650000e-01    1.750000e+00
  SP2d TN3dh  1 3.650000e-01    1.750000e+00
  SP1d TN3dh  1 3.650000e-01    1.750000e+00
  SN6d TN3dh  1 3.650000e-01    1.910000e+00
  SN5d TN3dh  1 3.650000e-01    1.910000e+00
  SN4d TN3dh  1 3.650000e-01    1.910000e+00
  SP6d TN4dh  1 3.650000e-01    1.750000e+00
  SP5d TN4dh  1 3.650000e-01    1.910000e+00
  SP4d TN4dh  1 3.650000e-01    1.910000e+00
  SP3d TN4dh  1 3.650000e-01    1.910000e+00
  SP2d TN4dh  1 3.650000e-01    1.910000e+00
  SP1d TN4dh  1 3.650000e-01    2.110000e+00
  SN6d TN4dh  1 3.650000e-01    2.340000e+00
  SN5d TN4dh  1 3.650000e-01    2.110000e+00
  SP6d TN5dh  1 3.650000e-01    1.910000e+00
  SP5d TN5dh  1 3.650000e-01    1.910000e+00
  SP4d TN5dh  1 3.650000e-01    1.910000e+00
  SP3d TN5dh  1 3.650000e-01    1.910000e+00
  SP2d TN5dh  1 3.650000e-01    2.110000e+00
  SP1d TN5dh  1 3.650000e-01    2.110000e+00
  SN6d TN5dh  1 3.650000e-01    2.340000e+00
  SP6d TN6dh  1 3.650000e-01    2.340000e+00
  SP5d TN6dh  1 3.650000e-01    2.110000e+00
  SP4d TN6dh  1 3.650000e-01    2.110000e+00
  SP3d TN6dh  1 3.650000e-01    2.110000e+00
  SP2d TN6dh  1 3.650000e-01    2.340000e+00
  SP1d TN6dh  1 3.650000e-01    2.340000e+00
  SP6d TP1dh  1 3.650000e-01    2.570000e+00
  SP5d TP1dh  1 3.650000e-01    2.340000e+00
  SP4d TP1dh  1 3.650000e-01    2.340000e+00
  SP3d TP1dh  1 3.650000e-01    2.340000e+00
  SP2d TP1dh  1 3.650000e-01    2.340000e+00
  SP6d TP2dh  1 3.650000e-01    2.830000e+00
  SP5d TP2dh  1 3.650000e-01    2.570000e+00
  SP4d TP2dh  1 3.650000e-01    2.570000e+00
  SP3d TP2dh  1 3.650000e-01    2.570000e+00
  SP6d TP3dh  1 3.650000e-01    2.830000e+00
  SP5d TP3dh  1 3.650000e-01    2.570000e+00
  SP4d TP3dh  1 3.650000e-01    2.570000e+00
  SP6d TP4dh  1 3.650000e-01    3.100000e+00
  SP5d TP4dh  1 3.650000e-01    2.830000e+00
  SP6d TP5dh  1 3.650000e-01    3.370000e+00
  SP6r TX1eq  1 3.650000e-01    1.750000e+00
  SP6r TX2eq  1 3.650000e-01    1.910000e+00
  SP6r TX3eq  1 3.650000e-01    2.110000e+00
  SP6r TX4eq  1 3.650000e-01    2.110000e+00
  SP6r TC1eq  1 4.040000e-01    1.130000e+00
  SP6r TC2eq  1 3.780000e-01    1.450000e+00
  SP6r TC3eq  1 3.780000e-01    1.450000e+00
  SP6r TC4eq  1 3.660000e-01    1.600000e+00
  SP6r TC5eq  1 3.650000e-01    1.750000e+00
  SP6r TC6eq  1 3.650000e-01    1.910000e+00
  SP6r TX1vq  1 3.650000e-01    1.750000e+00
  SP6r TX2vq  1 3.650000e-01    1.910000e+00
  SP6r TX3vq  1 3.650000e-01    2.110000e+00
  SP6r TX4vq  1 3.650000e-01    2.110000e+00
  SP6r TC1vq  1 4.040000e-01    1.130000e+00
  SP6r TC2vq  1 3.780000e-01    1.450000e+00
  SP6r TC3vq  1 3.780000e-01    1.450000e+00
  SP6r TC4vq  1 3.660000e-01    1.600000e+00
  SP6r TC5vq  1 3.650000e-01    1.750000e+00
  SP6r TC6vq  1 3.650000e-01    1.910000e+00
  SP6r TN1aq  1 3.650000e-01    1.750000e+00
  SP6r TN2aq  1 3.650000e-01    1.910000e+00
  SP6r TN3aq  1 3.650000e-01    2.110000e+00
  SP6r TN4aq  1 3.650000e-01    2.340000e+00
  SP6r TN5aq  1 3.650000e-01    2.570000e+00
  SP6r TN6aq  1 3.650000e-01    3.100000e+00
  SP6r TP1aq  1 3.650000e-01    3.370000e+00
  SP6r TP2aq  1 3.650000e-01    3.640000e+00
  SP6r TP3aq  1 3.650000e-01    3.640000e+00
  SP6r TP4aq  1 3.650000e-01    3.930000e+00
  SP6r TP5aq  1 3.650000e-01    4.220000e+00
  SP6r TP6aq  1 3.650000e-01    4.510000e+00
  SP6r TN1dq  1 3.650000e-01    1.750000e+00
  SP6r TN2dq  1 3.650000e-01    1.910000e+00
  SP6r TN3dq  1 3.650000e-01    2.110000e+00
  SP6r TN4dq  1 3.650000e-01    2.340000e+00
  SP6r TN5dq  1 3.650000e-01    2.570000e+00
  SP6r TN6dq  1 3.650000e-01    3.100000e+00
  SP6r TP1dq  1 3.650000e-01    3.370000e+00
  SP6r TP2dq  1 3.650000e-01    3.640000e+00
  SP6r TP3dq  1 3.650000e-01    3.640000e+00
  SP6r TP4dq  1 3.650000e-01    3.930000e+00
  SP6r TP5dq  1 3.650000e-01    4.220000e+00
  SP6r TP6dq  1 3.650000e-01    4.510000e+00
  SP5r TX1eq  1 3.650000e-01    1.750000e+00
  SP5r TX2eq  1 3.650000e-01    2.110000e+00
  SP5r TX3eq  1 3.650000e-01    2.110000e+00
  SP5r TX4eq  1 3.650000e-01    2.340000e+00
  SP5r TC1eq  1 3.780000e-01    1.450000e+00
  SP5r TC2eq  1 3.660000e-01    1.600000e+00
  SP5r TC3eq  1 3.660000e-01    1.600000e+00
  SP5r TC4eq  1 3.650000e-01    1.750000e+00
  SP5r TC5eq  1 3.650000e-01    1.910000e+00
  SP5r TC6eq  1 3.650000e-01    1.910000e+00
  SP5r TX1vq  1 3.650000e-01    1.750000e+00
  SP5r TX2vq  1 3.650000e-01    2.110000e+00
  SP5r TX3vq  1 3.650000e-01    2.110000e+00
  SP5r TX4vq  1 3.650000e-01    2.340000e+00
  SP5r TC1vq  1 3.780000e-01    1.450000e+00
  SP5r TC2vq  1 3.660000e-01    1.600000e+00
  SP5r TC3vq  1 3.660000e-01    1.600000e+00
  SP5r TC4vq  1 3.650000e-01    1.750000e+00
  SP5r TC5vq  1 3.650000e-01    1.910000e+00
  SP5r TC6vq  1 3.650000e-01    1.910000e+00
  SP5r TN1aq  1 3.650000e-01    1.750000e+00
  SP5r TN2aq  1 3.650000e-01    1.910000e+00
  SP5r TN3aq  1 3.650000e-01    2.110000e+00
  SP5r TN4aq  1 3.650000e-01    2.570000e+00
  SP5r TN5aq  1 3.650000e-01    2.570000e+00
  SP5r TN6aq  1 3.650000e-01    2.830000e+00
  SP5r TP1aq  1 3.650000e-01    3.100000e+00
  SP5r TP2aq  1 3.650000e-01    3.370000e+00
  SP5r TP3aq  1 3.650000e-01    3.370000e+00
  SP5r TP4aq  1 3.650000e-01    3.640000e+00
  SP5r TP5aq  1 3.650000e-01    3.930000e+00
  SP5r TN1dq  1 3.650000e-01    1.750000e+00
  SP5r TN2dq  1 3.650000e-01    1.910000e+00
  SP5r TN3dq  1 3.650000e-01    2.110000e+00
  SP5r TN4dq  1 3.650000e-01    2.570000e+00
  SP5r TN5dq  1 3.650000e-01    2.570000e+00
  SP5r TN6dq  1 3.650000e-01    2.830000e+00
  SP5r TP1dq  1 3.650000e-01    3.100000e+00
  SP5r TP2dq  1 3.650000e-01    3.370000e+00
  SP5r TP3dq  1 3.650000e-01    3.370000e+00
  SP5r TP4dq  1 3.650000e-01    3.640000e+00
  SP5r TP5dq  1 3.650000e-01    3.930000e+00
  SP4r TX1eq  1 3.650000e-01    1.910000e+00
  SP4r TX2eq  1 3.650000e-01    2.110000e+00
  SP4r TX3eq  1 3.650000e-01    2.110000e+00
  SP4r TX4eq  1 3.650000e-01    2.340000e+00
  SP4r TC1eq  1 3.780000e-01    1.450000e+00
  SP4r TC2eq  1 3.660000e-01    1.600000e+00
  SP4r TC3eq  1 3.660000e-01    1.600000e+00
  SP4r TC4eq  1 3.650000e-01    1.750000e+00
  SP4r TC5eq  1 3.650000e-01    1.910000e+00
  SP4r TC6eq  1 3.650000e-01    2.110000e+00
  SP4r TX1vq  1 3.650000e-01    1.910000e+00
  SP4r TX2vq  1 3.650000e-01    2.110000e+00
  SP4r TX3vq  1 3.650000e-01    2.110000e+00
  SP4r TX4vq  1 3.650000e-01    2.340000e+00
  SP4r TC1vq  1 3.780000e-01    1.450000e+00
  SP4r TC2vq  1 3.660000e-01    1.600000e+00
  SP4r TC3vq  1 3.660000e-01    1.600000e+00
  SP4r TC4vq  1 3.650000e-01    1.750000e+00
  SP4r TC5vq  1 3.650000e-01    1.910000e+00
  SP4r TC6vq  1 3.650000e-01    2.110000e+00
  SP4r TN1aq  1 3.650000e-01    1.910000e+00
  SP4r TN2aq  1 3.650000e-01    2.110000e+00
  SP4r TN3aq  1 3.650000e-01    2.340000e+00
  SP4r TN4aq  1 3.650000e-01    2.570000e+00
  SP4r TN5aq  1 3.650000e-01    2.570000e+00
  SP4r TN6aq  1 3.650000e-01    2.830000e+00
  SP4r TP1aq  1 3.650000e-01    3.100000e+00
  SP4r TP2aq  1 3.650000e-01    3.370000e+00
  SP4r TP3aq  1 3.650000e-01    3.370000e+00
  SP4r TP4aq  1 3.650000e-01    3.640000e+00
  SP4r TN1dq  1 3.650000e-01    1.910000e+00
  SP4r TN2dq  1 3.650000e-01    2.110000e+00
  SP4r TN3dq  1 3.650000e-01    2.340000e+00
  SP4r TN4dq  1 3.650000e-01    2.570000e+00
  SP4r TN5dq  1 3.650000e-01    2.570000e+00
  SP4r TN6dq  1 3.650000e-01    2.830000e+00
  SP4r TP1dq  1 3.650000e-01    3.100000e+00
  SP4r TP2dq  1 3.650000e-01    3.370000e+00
  SP4r TP3dq  1 3.650000e-01    3.370000e+00
  SP4r TP4dq  1 3.650000e-01    3.640000e+00
  SP3r TX1eq  1 3.650000e-01    1.910000e+00
  SP3r TX2eq  1 3.650000e-01    2.110000e+00
  SP3r TX3eq  1 3.650000e-01    2.340000e+00
  SP3r TX4eq  1 3.650000e-01    2.340000e+00
  SP3r TC1eq  1 3.780000e-01    1.450000e+00
  SP3r TC2eq  1 3.660000e-01    1.600000e+00
  SP3r TC3eq  1 3.660000e-01    1.600000e+00
  SP3r TC4eq  1 3.650000e-01    1.910000e+00
  SP3r TC5eq  1 3.650000e-01    2.110000e+00
  SP3r TC6eq  1 3.650000e-01    2.340000e+00
  SP3r TX1vq  1 3.650000e-01    1.910000e+00
  SP3r TX2vq  1 3.650000e-01    2.110000e+00
  SP3r TX3vq  1 3.650000e-01    2.340000e+00
  SP3r TX4vq  1 3.650000e-01    2.340000e+00
  SP3r TC1vq  1 3.780000e-01    1.450000e+00
  SP3r TC2vq  1 3.660000e-01    1.600000e+00
  SP3r TC3vq  1 3.660000e-01    1.600000e+00
  SP3r TC4vq  1 3.650000e-01    1.910000e+00
  SP3r TC5vq  1 3.650000e-01    2.110000e+00
  SP3r TC6vq  1 3.650000e-01    2.340000e+00
  SP3r TN1aq  1 3.650000e-01    2.110000e+00
  SP3r TN2aq  1 3.650000e-01    2.340000e+00
  SP3r TN3aq  1 3.650000e-01    2.340000e+00
  SP3r TN4aq  1 3.650000e-01    2.570000e+00
  SP3r TN5aq  1 3.650000e-01    2.570000e+00
  SP3r TN6aq  1 3.650000e-01    2.830000e+00
  SP3r TP1aq  1 3.650000e-01    3.100000e+00
  SP3r TP2aq  1 3.650000e-01    3.370000e+00
  SP3r TP3aq  1 3.650000e-01    3.370000e+00
  SP3r TN1dq  1 3.650000e-01    2.110000e+00
  SP3r TN2dq  1 3.650000e-01    2.340000e+00
  SP3r TN3dq  1 3.650000e-01    2.340000e+00
  SP3r TN4dq  1 3.650000e-01    2.570000e+00
  SP3r TN5dq  1 3.650000e-01    2.570000e+00
  SP3r TN6dq  1 3.650000e-01    2.830000e+00
  SP3r TP1dq  1 3.650000e-01    3.100000e+00
  SP3r TP2dq  1 3.650000e-01    3.370000e+00
  SP3r TP3dq  1 3.650000e-01    3.370000e+00
  SP2r TX1eq  1 3.650000e-01    1.910000e+00
  SP2r TX2eq  1 3.650000e-01    2.110000e+00
  SP2r TX3eq  1 3.650000e-01    2.340000e+00
  SP2r TX4eq  1 3.650000e-01    2.340000e+00
  SP2r TC1eq  1 3.660000e-01    1.600000e+00
  SP2r TC2eq  1 3.650000e-01    1.750000e+00
  SP2r TC3eq  1 3.650000e-01    1.750000e+00
  SP2r TC4eq  1 3.650000e-01    1.910000e+00
  SP2r TC5eq  1 3.650000e-01    2.110000e+00
  SP2r TC6eq  1 3.650000e-01    2.340000e+00
  SP2r TX1vq  1 3.650000e-01    1.910000e+00
  SP2r TX2vq  1 3.650000e-01    2.110000e+00
  SP2r TX3vq  1 3.650000e-01    2.340000e+00
  SP2r TX4vq  1 3.650000e-01    2.340000e+00
  SP2r TC1vq  1 3.660000e-01    1.600000e+00
  SP2r TC2vq  1 3.650000e-01    1.750000e+00
  SP2r TC3vq  1 3.650000e-01    1.750000e+00
  SP2r TC4vq  1 3.650000e-01    1.910000e+00
  SP2r TC5vq  1 3.650000e-01    2.110000e+00
  SP2r TC6vq  1 3.650000e-01    2.340000e+00
  SP2r TN1aq  1 3.650000e-01    2.340000e+00
  SP2r TN2aq  1 3.650000e-01    2.340000e+00
  SP2r TN3aq  1 3.650000e-01    2.340000e+00
  SP2r TN4aq  1 3.650000e-01    2.570000e+00
  SP2r TN5aq  1 3.650000e-01    2.830000e+00
  SP2r TN6aq  1 3.650000e-01    3.100000e+00
  SP2r TP1aq  1 3.650000e-01    3.100000e+00
  SP2r TP2aq  1 3.650000e-01    3.370000e+00
  SP2r TN1dq  1 3.650000e-01    2.340000e+00
  SP2r TN2dq  1 3.650000e-01    2.340000e+00
  SP2r TN3dq  1 3.650000e-01    2.340000e+00
  SP2r TN4dq  1 3.650000e-01    2.570000e+00
  SP2r TN5dq  1 3.650000e-01    2.830000e+00
  SP2r TN6dq  1 3.650000e-01    3.100000e+00
  SP2r TP1dq  1 3.650000e-01    3.100000e+00
  SP2r TP2dq  1 3.650000e-01    3.370000e+00
  SP1r TX1eq  1 3.650000e-01    1.910000e+00
  SP1r TX2eq  1 3.650000e-01    2.110000e+00
  SP1r TX3eq  1 3.650000e-01    2.340000e+00
  SP1r TX4eq  1 3.650000e-01    2.340000e+00
  SP1r TC1eq  1 3.660000e-01    1.600000e+00
  SP1r TC2eq  1 3.650000e-01    1.750000e+00
  SP1r TC3eq  1 3.650000e-01    1.750000e+00
  SP1r TC4eq  1 3.650000e-01    1.910000e+00
  SP1r TC5eq  1 3.650000e-01    2.110000e+00
  SP1r TC6eq  1 3.650000e-01    2.340000e+00
  SP1r TX1vq  1 3.650000e-01    1.910000e+00
  SP1r TX2vq  1 3.650000e-01    2.110000e+00
  SP1r TX3vq  1 3.650000e-01    2.340000e+00
  SP1r TX4vq  1 3.650000e-01    2.340000e+00
  SP1r TC1vq  1 3.660000e-01    1.600000e+00
  SP1r TC2vq  1 3.650000e-01    1.750000e+00
  SP1r TC3vq  1 3.650000e-01    1.750000e+00
  SP1r TC4vq  1 3.650000e-01    1.910000e+00
  SP1r TC5vq  1 3.650000e-01    2.110000e+00
  SP1r TC6vq  1 3.650000e-01    2.340000e+00
  SP1r TN1aq  1 3.650000e-01    2.340000e+00
  SP1r TN2aq  1 3.650000e-01    2.340000e+00
  SP1r TN3aq  1 3.650000e-01    2.340000e+00
  SP1r TN4aq  1 3.650000e-01    2.830000e+00
  SP1r TN5aq  1 3.650000e-01    2.830000e+00
  SP1r TN6aq  1 3.650000e-01    3.100000e+00
  SP1r TP1aq  1 3.650000e-01    3.100000e+00
  SP1r TN1dq  1 3.650000e-01    2.340000e+00
  SP1r TN2dq  1 3.650000e-01    2.340000e+00
  SP1r TN3dq  1 3.650000e-01    2.340000e+00
  SP1r TN4dq  1 3.650000e-01    2.830000e+00
  SP1r TN5dq  1 3.650000e-01    2.830000e+00
  SP1r TN6dq  1 3.650000e-01    3.100000e+00
  SP1r TP1dq  1 3.650000e-01    3.100000e+00
  SN6r TX1eq  1 3.650000e-01    1.910000e+00
  SN6r TX2eq  1 3.650000e-01    2.110000e+00
  SN6r TX3eq  1 3.650000e-01    2.340000e+00
  SN6r TX4eq  1 3.650000e-01    2.570000e+00
  SN6r TC1eq  1 3.650000e-01    1.750000e+00
  SN6r TC2eq  1 3.650000e-01    1.910000e+00
  SN6r TC3eq  1 3.650000e-01    1.910000e+00
  SN6r TC4eq  1 3.650000e-01    2.110000e+00
  SN6r TC5eq  1 3.650000e-01    2.340000e+00
  SN6r TC6eq  1 3.650000e-01    2.570000e+00
  SN6r TX1vq  1 3.650000e-01    1.910000e+00
  SN6r TX2vq  1 3.650000e-01    2.110000e+00
  SN6r TX3vq  1 3.650000e-01    2.340000e+00
  SN6r TX4vq  1 3.650000e-01    2.570000e+00
  SN6r TC1vq  1 3.650000e-01    1.750000e+00
  SN6r TC2vq  1 3.650000e-01    1.910000e+00
  SN6r TC3vq  1 3.650000e-01    1.910000e+00
  SN6r TC4vq  1 3.650000e-01    2.110000e+00
  SN6r TC5vq  1 3.650000e-01    2.340000e+00
  SN6r TC6vq  1 3.650000e-01    2.570000e+00
  SN6r TN1aq  1 3.650000e-01    2.340000e+00
  SN6r TN2aq  1 3.650000e-01    2.340000e+00
  SN6r TN3aq  1 3.650000e-01    2.570000e+00
  SN6r TN4aq  1 3.650000e-01    3.100000e+00
  SN6r TN5aq  1 3.650000e-01    3.100000e+00
  SN6r TN6aq  1 3.650000e-01    3.100000e+00
  SN6r TN1dq  1 3.650000e-01    2.340000e+00
  SN6r TN2dq  1 3.650000e-01    2.340000e+00
  SN6r TN3dq  1 3.650000e-01    2.570000e+00
  SN6r TN4dq  1 3.650000e-01    3.100000e+00
  SN6r TN5dq  1 3.650000e-01    3.100000e+00
  SN6r TN6dq  1 3.650000e-01    3.100000e+00
  SN5r TX1eq  1 3.650000e-01    2.110000e+00
  SN5r TX2eq  1 3.650000e-01    2.340000e+00
  SN5r TX3eq  1 3.650000e-01    2.570000e+00
  SN5r TX4eq  1 3.650000e-01    2.830000e+00
  SN5r TC1eq  1 3.650000e-01    1.750000e+00
  SN5r TC2eq  1 3.650000e-01    1.910000e+00
  SN5r TC3eq  1 3.650000e-01    2.110000e+00
  SN5r TC4eq  1 3.650000e-01    2.110000e+00
  SN5r TC5eq  1 3.650000e-01    2.340000e+00
  SN5r TC6eq  1 3.650000e-01    2.570000e+00
  SN5r TX1vq  1 3.650000e-01    2.110000e+00
  SN5r TX2vq  1 3.650000e-01    2.340000e+00
  SN5r TX3vq  1 3.650000e-01    2.570000e+00
  SN5r TX4vq  1 3.650000e-01    2.830000e+00
  SN5r TC1vq  1 3.650000e-01    1.750000e+00
  SN5r TC2vq  1 3.650000e-01    1.910000e+00
  SN5r TC3vq  1 3.650000e-01    2.110000e+00
  SN5r TC4vq  1 3.650000e-01    2.110000e+00
  SN5r TC5vq  1 3.650000e-01    2.340000e+00
  SN5r TC6vq  1 3.650000e-01    2.570000e+00
  SN5r TN1aq  1 3.650000e-01    2.340000e+00
  SN5r TN2aq  1 3.650000e-01    2.570000e+00
  SN5r TN3aq  1 3.650000e-01    2.570000e+00
  SN5r TN4aq  1 3.650000e-01    2.830000e+00
  SN5r TN5aq  1 3.650000e-01    2.830000e+00
  SN5r TN1dq  1 3.650000e-01    2.340000e+00
  SN5r TN2dq  1 3.650000e-01    2.570000e+00
  SN5r TN3dq  1 3.650000e-01    2.570000e+00
  SN5r TN4dq  1 3.650000e-01    2.830000e+00
  SN5r TN5dq  1 3.650000e-01    2.830000e+00
  SN4r TX1eq  1 3.650000e-01    2.110000e+00
  SN4r TX2eq  1 3.650000e-01    2.340000e+00
  SN4r TX3eq  1 3.650000e-01    2.830000e+00
  SN4r TX4eq  1 3.650000e-01    3.100000e+00
  SN4r TC1eq  1 3.650000e-01    1.750000e+00
  SN4r TC2eq  1 3.650000e-01    1.910000e+00
  SN4r TC3eq  1 3.650000e-01    2.110000e+00
  SN4r TC4eq  1 3.650000e-01    2.340000e+00
  SN4r TC5eq  1 3.650000e-01    2.340000e+00
  SN4r TC6eq  1 3.650000e-01    2.570000e+00
  SN4r TX1vq  1 3.650000e-01    2.110000e+00
  SN4r TX2vq  1 3.650000e-01    2.340000e+00
  SN4r TX3vq  1 3.650000e-01    2.830000e+00
  SN4r TX4vq  1 3.650000e-01    3.100000e+00
  SN4r TC1vq  1 3.650000e-01    1.750000e+00
  SN4r TC2vq  1 3.650000e-01    1.910000e+00
  SN4r TC3vq  1 3.650000e-01    2.110000e+00
  SN4r TC4vq  1 3.650000e-01    2.340000e+00
  SN4r TC5vq  1 3.650000e-01    2.340000e+00
  SN4r TC6vq  1 3.650000e-01    2.570000e+00
  SN4r TN1aq  1 3.650000e-01    2.340000e+00
  SN4r TN2aq  1 3.650000e-01    2.570000e+00
  SN4r TN3aq  1 3.650000e-01    2.570000e+00
  SN4r TN4aq  1 3.650000e-01    2.830000e+00
  SN4r TN1dq  1 3.650000e-01    2.340000e+00
  SN4r TN2dq  1 3.650000e-01    2.570000e+00
  SN4r TN3dq  1 3.650000e-01    2.570000e+00
  SN4r TN4dq  1 3.650000e-01    2.830000e+00
  SN3r TX1eq  1 3.650000e-01    2.340000e+00
  SN3r TX2eq  1 3.650000e-01    2.340000e+00
  SN3r TX3eq  1 3.650000e-01    2.570000e+00
  SN3r TX4eq  1 3.650000e-01    2.830000e+00
  SN3r TC1eq  1 3.650000e-01    1.910000e+00
  SN3r TC2eq  1 3.650000e-01    2.110000e+00
  SN3r TC3eq  1 3.650000e-01    2.110000e+00
  SN3r TC4eq  1 3.650000e-01    2.340000e+00
  SN3r TC5eq  1 3.650000e-01    2.340000e+00
  SN3r TC6eq  1 3.650000e-01    2.570000e+00
  SN3r TX1vq  1 3.650000e-01    2.340000e+00
  SN3r TX2vq  1 3.650000e-01    2.340000e+00
  SN3r TX3vq  1 3.650000e-01    2.570000e+00
  SN3r TX4vq  1 3.650000e-01    2.830000e+00
  SN3r TC1vq  1 3.650000e-01    1.910000e+00
  SN3r TC2vq  1 3.650000e-01    2.110000e+00
  SN3r TC3vq  1 3.650000e-01    2.110000e+00
  SN3r TC4vq  1 3.650000e-01    2.340000e+00
  SN3r TC5vq  1 3.650000e-01    2.340000e+00
  SN3r TC6vq  1 3.650000e-01    2.570000e+00
  SN3r TN1aq  1 3.650000e-01    2.340000e+00
  SN3r TN2aq  1 3.650000e-01    2.570000e+00
  SN3r TN3aq  1 3.650000e-01    2.570000e+00
  SN3r TN1dq  1 3.650000e-01    2.340000e+00
  SN3r TN2dq  1 3.650000e-01    2.570000e+00
  SN3r TN3dq  1 3.650000e-01    2.570000e+00
  SN2r TX1eq  1 3.650000e-01    2.340000e+00
  SN2r TX2eq  1 3.650000e-01    2.340000e+00
  SN2r TX3eq  1 3.650000e-01    2.570000e+00
  SN2r TX4eq  1 3.650000e-01    2.830000e+00
  SN2r TC1eq  1 3.650000e-01    1.910000e+00
  SN2r TC2eq  1 3.650000e-01    2.110000e+00
  SN2r TC3eq  1 3.650000e-01    2.340000e+00
  SN2r TC4eq  1 3.650000e-01    2.340000e+00
  SN2r TC5eq  1 3.650000e-01    2.340000e+00
  SN2r TC6eq  1 3.650000e-01    2.570000e+00
  SN2r TX1vq  1 3.650000e-01    2.340000e+00
  SN2r TX2vq  1 3.650000e-01    2.340000e+00
  SN2r TX3vq  1 3.650000e-01    2.570000e+00
  SN2r TX4vq  1 3.650000e-01    2.830000e+00
  SN2r TC1vq  1 3.650000e-01    1.910000e+00
  SN2r TC2vq  1 3.650000e-01    2.110000e+00
  SN2r TC3vq  1 3.650000e-01    2.340000e+00
  SN2r TC4vq  1 3.650000e-01    2.340000e+00
  SN2r TC5vq  1 3.650000e-01    2.340000e+00
  SN2r TC6vq  1 3.650000e-01    2.570000e+00
  SN2r TN1aq  1 3.650000e-01    2.340000e+00
  SN2r TN2aq  1 3.650000e-01    2.570000e+00
  SN2r TN1dq  1 3.650000e-01    2.340000e+00
  SN2r TN2dq  1 3.650000e-01    2.570000e+00
  SN1r TX1eq  1 3.650000e-01    2.340000e+00
  SN1r TX2eq  1 3.650000e-01    2.340000e+00
  SN1r TX3eq  1 3.650000e-01    2.570000e+00
  SN1r TX4eq  1 3.650000e-01    2.570000e+00
  SN1r TC1eq  1 3.650000e-01    1.910000e+00
  SN1r TC2eq  1 3.650000e-01    2.110000e+00
  SN1r TC3eq  1 3.650000e-01    2.340000e+00
  SN1r TC4eq  1 3.650000e-01    2.570000e+00
  SN1r TC5eq  1 3.650000e-01    2.570000e+00
  SN1r TC6eq  1 3.650000e-01    2.830000e+00
  SN1r TX1vq  1 3.650000e-01    2.340000e+00
  SN1r TX2vq  1 3.650000e-01    2.340000e+00
  SN1r TX3vq  1 3.650000e-01    2.570000e+00
  SN1r TX4vq  1 3.650000e-01    2.570000e+00
  SN1r TC1vq  1 3.650000e-01    1.910000e+00
  SN1r TC2vq  1 3.650000e-01    2.110000e+00
  SN1r TC3vq  1 3.650000e-01    2.340000e+00
  SN1r TC4vq  1 3.650000e-01    2.570000e+00
  SN1r TC5vq  1 3.650000e-01    2.570000e+00
  SN1r TC6vq  1 3.650000e-01    2.830000e+00
  SN1r TN1aq  1 3.650000e-01    2.570000e+00
  SN1r TN1dq  1 3.650000e-01    2.570000e+00
  SC6r TX1eq  1 3.650000e-01    2.570000e+00
  SC6r TX2eq  1 3.650000e-01    2.570000e+00
  SC6r TX3eq  1 3.650000e-01    2.570000e+00
  SC6r TX4eq  1 3.650000e-01    2.570000e+00
  SC6r TC1eq  1 3.650000e-01    1.910000e+00
  SC6r TC2eq  1 3.650000e-01    2.110000e+00
  SC6r TC3eq  1 3.650000e-01    2.340000e+00
  SC6r TC4eq  1 3.650000e-01    2.570000e+00
  SC6r TC5eq  1 3.650000e-01    2.570000e+00
  SC6r TC6eq  1 3.650000e-01    2.830000e+00
  SC6r TX1vq  1 3.650000e-01    2.570000e+00
  SC6r TX2vq  1 3.650000e-01    2.570000e+00
  SC6r TX3vq  1 3.650000e-01    2.570000e+00
  SC6r TX4vq  1 3.650000e-01    2.570000e+00
  SC6r TC1vq  1 3.650000e-01    1.910000e+00
  SC6r TC2vq  1 3.650000e-01    2.110000e+00
  SC6r TC3vq  1 3.650000e-01    2.340000e+00
  SC6r TC4vq  1 3.650000e-01    2.570000e+00
  SC6r TC5vq  1 3.650000e-01    2.570000e+00
  SC6r TC6vq  1 3.650000e-01    2.830000e+00
  SC5r TX1eq  1 3.650000e-01    2.570000e+00
  SC5r TX2eq  1 3.650000e-01    2.340000e+00
  SC5r TX3eq  1 3.650000e-01    2.340000e+00
  SC5r TX4eq  1 3.650000e-01    2.340000e+00
  SC5r TC1eq  1 3.650000e-01    2.110000e+00
  SC5r TC2eq  1 3.650000e-01    2.110000e+00
  SC5r TC3eq  1 3.650000e-01    2.340000e+00
  SC5r TC4eq  1 3.650000e-01    2.570000e+00
  SC5r TC5eq  1 3.650000e-01    2.570000e+00
  SC5r TX1vq  1 3.650000e-01    2.570000e+00
  SC5r TX2vq  1 3.650000e-01    2.340000e+00
  SC5r TX3vq  1 3.650000e-01    2.340000e+00
  SC5r TX4vq  1 3.650000e-01    2.340000e+00
  SC5r TC1vq  1 3.650000e-01    2.110000e+00
  SC5r TC2vq  1 3.650000e-01    2.110000e+00
  SC5r TC3vq  1 3.650000e-01    2.340000e+00
  SC5r TC4vq  1 3.650000e-01    2.570000e+00
  SC5r TC5vq  1 3.650000e-01    2.570000e+00
  SC4r TX1eq  1 3.650000e-01    2.570000e+00
  SC4r TX2eq  1 3.650000e-01    2.340000e+00
  SC4r TX3eq  1 3.650000e-01    2.340000e+00
  SC4r TX4eq  1 3.650000e-01    2.340000e+00
  SC4r TC1eq  1 3.650000e-01    2.110000e+00
  SC4r TC2eq  1 3.650000e-01    2.340000e+00
  SC4r TC3eq  1 3.650000e-01    2.570000e+00
  SC4r TC4eq  1 3.650000e-01    2.570000e+00
  SC4r TX1vq  1 3.650000e-01    2.570000e+00
  SC4r TX2vq  1 3.650000e-01    2.340000e+00
  SC4r TX3vq  1 3.650000e-01    2.340000e+00
  SC4r TX4vq  1 3.650000e-01    2.340000e+00
  SC4r TC1vq  1 3.650000e-01    2.110000e+00
  SC4r TC2vq  1 3.650000e-01    2.340000e+00
  SC4r TC3vq  1 3.650000e-01    2.570000e+00
  SC4r TC4vq  1 3.650000e-01    2.570000e+00
  SC3r TX1eq  1 3.650000e-01    2.570000e+00
  SC3r TX2eq  1 3.650000e-01    2.340000e+00
  SC3r TX3eq  1 3.650000e-01    2.340000e+00
  SC3r TX4eq  1 3.650000e-01    2.340000e+00
  SC3r TC1eq  1 3.650000e-01    2.570000e+00
  SC3r TC2eq  1 3.650000e-01    2.570000e+00
  SC3r TC3eq  1 3.650000e-01    2.570000e+00
  SC3r TX1vq  1 3.650000e-01    2.570000e+00
  SC3r TX2vq  1 3.650000e-01    2.340000e+00
  SC3r TX3vq  1 3.650000e-01    2.340000e+00
  SC3r TX4vq  1 3.650000e-01    2.340000e+00
  SC3r TC1vq  1 3.650000e-01    2.570000e+00
  SC3r TC2vq  1 3.650000e-01    2.570000e+00
  SC3r TC3vq  1 3.650000e-01    2.570000e+00
  SC2r TX1eq  1 3.650000e-01    2.340000e+00
  SC2r TX2eq  1 3.650000e-01    2.340000e+00
  SC2r TX3eq  1 3.650000e-01    2.340000e+00
  SC2r TX4eq  1 3.650000e-01    1.910000e+00
  SC2r TC1eq  1 3.650000e-01    2.830000e+00
  SC2r TC2eq  1 3.650000e-01    2.570000e+00
  SC2r TX1vq  1 3.650000e-01    2.340000e+00
  SC2r TX2vq  1 3.650000e-01    2.340000e+00
  SC2r TX3vq  1 3.650000e-01    2.340000e+00
  SC2r TX4vq  1 3.650000e-01    1.910000e+00
  SC2r TC1vq  1 3.650000e-01    2.830000e+00
  SC2r TC2vq  1 3.650000e-01    2.570000e+00
  SC1r TX1eq  1 3.650000e-01    2.340000e+00
  SC1r TX2eq  1 3.650000e-01    2.340000e+00
  SC1r TX3eq  1 3.650000e-01    2.340000e+00
  SC1r TX4eq  1 3.650000e-01    1.910000e+00
  SC1r TC1eq  1 3.650000e-01    2.570000e+00
  SC1r TX1vq  1 3.650000e-01    2.340000e+00
  SC1r TX2vq  1 3.650000e-01    2.340000e+00
  SC1r TX3vq  1 3.650000e-01    2.340000e+00
  SC1r TX4vq  1 3.650000e-01    1.910000e+00
  SC1r TC1vq  1 3.650000e-01    2.570000e+00
  SX4r TX1eq  1 3.650000e-01    2.570000e+00
  SX4r TX2eq  1 3.650000e-01    2.570000e+00
  SX4r TX3eq  1 3.650000e-01    2.570000e+00
  SX4r TX4eq  1 3.650000e-01    2.570000e+00
  SX4r TX1vq  1 3.650000e-01    2.570000e+00
  SX4r TX2vq  1 3.650000e-01    2.570000e+00
  SX4r TX3vq  1 3.650000e-01    2.570000e+00
  SX4r TX4vq  1 3.650000e-01    2.570000e+00
  SX3r TX1eq  1 3.650000e-01    2.830000e+00
  SX3r TX2eq  1 3.650000e-01    2.830000e+00
  SX3r TX3eq  1 3.650000e-01    2.570000e+00
  SX3r TX1vq  1 3.650000e-01    2.830000e+00
  SX3r TX2vq  1 3.650000e-01    2.830000e+00
  SX3r TX3vq  1 3.650000e-01    2.570000e+00
  SX2r TX1eq  1 3.650000e-01    2.830000e+00
  SX2r TX2eq  1 3.650000e-01    2.830000e+00
  SX2r TX1vq  1 3.650000e-01    2.830000e+00
  SX2r TX2vq  1 3.650000e-01    2.830000e+00
  SX1r TX1eq  1 3.650000e-01    3.100000e+00
  SX1r TX1vq  1 3.650000e-01    3.100000e+00
  SP6d TP6dr  1 3.650000e-01    3.640000e+00
  SP6q TP6dr  1 3.650000e-01    4.510000e+00
  SP5d TP5dr  1 3.650000e-01    3.100000e+00
  SP6a TP5dr  1 3.650000e-01    3.930000e+00
  SP6q TP5dr  1 3.650000e-01    4.220000e+00
  SP5q TP5dr  1 3.650000e-01    3.930000e+00
  SP4d TP4dr  1 3.650000e-01    2.830000e+00
  SP6a TP4dr  1 3.650000e-01    3.640000e+00
  SP5a TP4dr  1 3.650000e-01    3.370000e+00
  SP6q TP4dr  1 3.650000e-01    3.930000e+00
  SP5q TP4dr  1 3.650000e-01    3.640000e+00
  SP4q TP4dr  1 3.650000e-01    3.640000e+00
  SP3d TP3dr  1 3.650000e-01    2.570000e+00
  SP6a TP3dr  1 3.650000e-01    3.370000e+00
  SP5a TP3dr  1 3.650000e-01    3.100000e+00
  SP4a TP3dr  1 3.650000e-01    3.100000e+00
  SP6q TP3dr  1 3.650000e-01    3.640000e+00
  SP5q TP3dr  1 3.650000e-01    3.370000e+00
  SP4q TP3dr  1 3.650000e-01    3.370000e+00
  SP3q TP3dr  1 3.650000e-01    3.370000e+00
  SP2d TP2dr  1 3.650000e-01    2.570000e+00
  SP6a TP2dr  1 3.650000e-01    3.370000e+00
  SP5a TP2dr  1 3.650000e-01    3.100000e+00
  SP4a TP2dr  1 3.650000e-01    3.100000e+00
  SP3a TP2dr  1 3.650000e-01    3.100000e+00
  SP6q TP2dr  1 3.650000e-01    3.640000e+00
  SP5q TP2dr  1 3.650000e-01    3.370000e+00
  SP4q TP2dr  1 3.650000e-01    3.370000e+00
  SP3q TP2dr  1 3.650000e-01    3.370000e+00
  SP2q TP2dr  1 3.650000e-01    3.370000e+00
  SP1d TP1dr  1 3.650000e-01    2.340000e+00
  SP6a TP1dr  1 3.650000e-01    3.100000e+00
  SP5a TP1dr  1 3.650000e-01    2.830000e+00
  SP4a TP1dr  1 3.650000e-01    2.830000e+00
  SP3a TP1dr  1 3.650000e-01    2.830000e+00
  SP2a TP1dr  1 3.650000e-01    2.830000e+00
  SP6q TP1dr  1 3.650000e-01    3.370000e+00
  SP5q TP1dr  1 3.650000e-01    3.100000e+00
  SP4q TP1dr  1 3.650000e-01    3.100000e+00
  SP3q TP1dr  1 3.650000e-01    3.100000e+00
  SP2q TP1dr  1 3.650000e-01    3.100000e+00
  SP1q TP1dr  1 3.650000e-01    3.100000e+00
  SN6d TN6dr  1 3.650000e-01    2.340000e+00
  SP6a TN6dr  1 3.650000e-01    2.830000e+00
  SP5a TN6dr  1 3.650000e-01    2.570000e+00
  SP4a TN6dr  1 3.650000e-01    2.570000e+00
  SP3a TN6dr  1 3.650000e-01    2.570000e+00
  SP2a TN6dr  1 3.650000e-01    2.830000e+00
  SP1a TN6dr  1 3.650000e-01    2.830000e+00
  SP6q TN6dr  1 3.650000e-01    3.100000e+00
  SP5q TN6dr  1 3.650000e-01    2.830000e+00
  SP4q TN6dr  1 3.650000e-01    2.830000e+00
  SP3q TN6dr  1 3.650000e-01    2.830000e+00
  SP2q TN6dr  1 3.650000e-01    3.100000e+00
  SP1q TN6dr  1 3.650000e-01    3.100000e+00
  SN6q TN6dr  1 3.650000e-01    3.100000e+00
  SN5d TN5dr  1 3.650000e-01    2.110000e+00
  SP6a TN5dr  1 3.650000e-01    2.340000e+00
  SP5a TN5dr  1 3.650000e-01    2.340000e+00
  SP4a TN5dr  1 3.650000e-01    2.340000e+00
  SP3a TN5dr  1 3.650000e-01    2.340000e+00
  SP2a TN5dr  1 3.650000e-01    2.570000e+00
  SP1a TN5dr  1 3.650000e-01    2.570000e+00
  SN6a TN5dr  1 3.650000e-01    2.830000e+00
  SP6q TN5dr  1 3.650000e-01    2.570000e+00
  SP5q TN5dr  1 3.650000e-01    2.570000e+00
  SP4q TN5dr  1 3.650000e-01    2.570000e+00
  SP3q TN5dr  1 3.650000e-01    2.570000e+00
  SP2q TN5dr  1 3.650000e-01    2.830000e+00
  SP1q TN5dr  1 3.650000e-01    2.830000e+00
  SN6q TN5dr  1 3.650000e-01    3.100000e+00
  SN5q TN5dr  1 3.650000e-01    2.830000e+00
  SN4d TN4dr  1 3.650000e-01    2.110000e+00
  SP6a TN4dr  1 3.650000e-01    2.110000e+00
  SP5a TN4dr  1 3.650000e-01    2.340000e+00
  SP4a TN4dr  1 3.650000e-01    2.340000e+00
  SP3a TN4dr  1 3.650000e-01    2.340000e+00
  SP2a TN4dr  1 3.650000e-01    2.340000e+00
  SP1a TN4dr  1 3.650000e-01    2.570000e+00
  SN6a TN4dr  1 3.650000e-01    2.830000e+00
  SN5a TN4dr  1 3.650000e-01    2.570000e+00
  SP6q TN4dr  1 3.650000e-01    2.340000e+00
  SP5q TN4dr  1 3.650000e-01    2.570000e+00
  SP4q TN4dr  1 3.650000e-01    2.570000e+00
  SP3q TN4dr  1 3.650000e-01    2.570000e+00
  SP2q TN4dr  1 3.650000e-01    2.570000e+00
  SP1q TN4dr  1 3.650000e-01    2.830000e+00
  SN6q TN4dr  1 3.650000e-01    3.100000e+00
  SN5q TN4dr  1 3.650000e-01    2.830000e+00
  SN4q TN4dr  1 3.650000e-01    2.830000e+00
  SN3d TN3dr  1 3.650000e-01    1.910000e+00
  SP6a TN3dr  1 3.650000e-01    1.750000e+00
  SP5a TN3dr  1 3.650000e-01    1.750000e+00
  SP4a TN3dr  1 3.650000e-01    2.110000e+00
  SP3a TN3dr  1 3.650000e-01    2.110000e+00
  SP2a TN3dr  1 3.650000e-01    2.110000e+00
  SP1a TN3dr  1 3.650000e-01    2.110000e+00
  SN6a TN3dr  1 3.650000e-01    2.340000e+00
  SN5a TN3dr  1 3.650000e-01    2.340000e+00
  SN4a TN3dr  1 3.650000e-01    2.340000e+00
  SP6q TN3dr  1 3.650000e-01    2.110000e+00
  SP5q TN3dr  1 3.650000e-01    2.110000e+00
  SP4q TN3dr  1 3.650000e-01    2.340000e+00
  SP3q TN3dr  1 3.650000e-01    2.340000e+00
  SP2q TN3dr  1 3.650000e-01    2.340000e+00
  SP1q TN3dr  1 3.650000e-01    2.340000e+00
  SN6q TN3dr  1 3.650000e-01    2.570000e+00
  SN5q TN3dr  1 3.650000e-01    2.570000e+00
  SN4q TN3dr  1 3.650000e-01    2.570000e+00
  SN3q TN3dr  1 3.650000e-01    2.570000e+00
  SN2d TN2dr  1 3.650000e-01    1.910000e+00
  SP6a TN2dr  1 3.660000e-01    1.600000e+00
  SP5a TN2dr  1 3.660000e-01    1.600000e+00
  SP4a TN2dr  1 3.650000e-01    1.750000e+00
  SP3a TN2dr  1 3.650000e-01    2.110000e+00
  SP2a TN2dr  1 3.650000e-01    2.110000e+00
  SP1a TN2dr  1 3.650000e-01    2.110000e+00
  SN6a TN2dr  1 3.650000e-01    2.110000e+00
  SN5a TN2dr  1 3.650000e-01    2.340000e+00
  SN4a TN2dr  1 3.650000e-01    2.340000e+00
  SN3a TN2dr  1 3.650000e-01    2.340000e+00
  SP6q TN2dr  1 3.650000e-01    1.910000e+00
  SP5q TN2dr  1 3.650000e-01    1.910000e+00
  SP4q TN2dr  1 3.650000e-01    2.110000e+00
  SP3q TN2dr  1 3.650000e-01    2.340000e+00
  SP2q TN2dr  1 3.650000e-01    2.340000e+00
  SP1q TN2dr  1 3.650000e-01    2.340000e+00
  SN6q TN2dr  1 3.650000e-01    2.340000e+00
  SN5q TN2dr  1 3.650000e-01    2.570000e+00
  SN4q TN2dr  1 3.650000e-01    2.570000e+00
  SN3q TN2dr  1 3.650000e-01    2.570000e+00
  SN2q TN2dr  1 3.650000e-01    2.570000e+00
  SN1d TN1dr  1 3.650000e-01    1.910000e+00
  SP6a TN1dr  1 3.780000e-01    1.450000e+00
  SP5a TN1dr  1 3.780000e-01    1.450000e+00
  SP4a TN1dr  1 3.660000e-01    1.600000e+00
  SP3a TN1dr  1 3.650000e-01    1.750000e+00
  SP2a TN1dr  1 3.650000e-01    2.110000e+00
  SP1a TN1dr  1 3.650000e-01    2.110000e+00
  SN6a TN1dr  1 3.650000e-01    2.110000e+00
  SN5a TN1dr  1 3.650000e-01    2.110000e+00
  SN4a TN1dr  1 3.650000e-01    2.110000e+00
  SN3a TN1dr  1 3.650000e-01    2.110000e+00
  SN2a TN1dr  1 3.650000e-01    2.110000e+00
  SP6q TN1dr  1 3.650000e-01    1.750000e+00
  SP5q TN1dr  1 3.650000e-01    1.750000e+00
  SP4q TN1dr  1 3.650000e-01    1.910000e+00
  SP3q TN1dr  1 3.650000e-01    2.110000e+00
  SP2q TN1dr  1 3.650000e-01    2.340000e+00
  SP1q TN1dr  1 3.650000e-01    2.340000e+00
  SN6q TN1dr  1 3.650000e-01    2.340000e+00
  SN5q TN1dr  1 3.650000e-01    2.340000e+00
  SN4q TN1dr  1 3.650000e-01    2.340000e+00
  SN3q TN1dr  1 3.650000e-01    2.340000e+00
  SN2q TN1dr  1 3.650000e-01    2.340000e+00
  SN1q TN1dr  1 3.650000e-01    2.570000e+00
  SP6a TP6ar  1 3.650000e-01    3.640000e+00
  SP6q TP6ar  1 3.650000e-01    4.510000e+00
  SP5a TP5ar  1 3.650000e-01    3.100000e+00
  SP6q TP5ar  1 3.650000e-01    4.220000e+00
  SP5q TP5ar  1 3.650000e-01    3.930000e+00
  SP4a TP4ar  1 3.650000e-01    2.830000e+00
  SP6q TP4ar  1 3.650000e-01    3.930000e+00
  SP5q TP4ar  1 3.650000e-01    3.640000e+00
  SP4q TP4ar  1 3.650000e-01    3.640000e+00
  SP3a TP3ar  1 3.650000e-01    2.570000e+00
  SP6q TP3ar  1 3.650000e-01    3.640000e+00
  SP5q TP3ar  1 3.650000e-01    3.370000e+00
  SP4q TP3ar  1 3.650000e-01    3.370000e+00
  SP3q TP3ar  1 3.650000e-01    3.370000e+00
  SP2a TP2ar  1 3.650000e-01    2.570000e+00
  SP6q TP2ar  1 3.650000e-01    3.640000e+00
  SP5q TP2ar  1 3.650000e-01    3.370000e+00
  SP4q TP2ar  1 3.650000e-01    3.370000e+00
  SP3q TP2ar  1 3.650000e-01    3.370000e+00
  SP2q TP2ar  1 3.650000e-01    3.370000e+00
  SP1a TP1ar  1 3.650000e-01    2.340000e+00
  SP6q TP1ar  1 3.650000e-01    3.370000e+00
  SP5q TP1ar  1 3.650000e-01    3.100000e+00
  SP4q TP1ar  1 3.650000e-01    3.100000e+00
  SP3q TP1ar  1 3.650000e-01    3.100000e+00
  SP2q TP1ar  1 3.650000e-01    3.100000e+00
  SP1q TP1ar  1 3.650000e-01    3.100000e+00
  SN6a TN6ar  1 3.650000e-01    2.340000e+00
  SP6q TN6ar  1 3.650000e-01    3.100000e+00
  SP5q TN6ar  1 3.650000e-01    2.830000e+00
  SP4q TN6ar  1 3.650000e-01    2.830000e+00
  SP3q TN6ar  1 3.650000e-01    2.830000e+00
  SP2q TN6ar  1 3.650000e-01    3.100000e+00
  SP1q TN6ar  1 3.650000e-01    3.100000e+00
  SN6q TN6ar  1 3.650000e-01    3.100000e+00
  SN5a TN5ar  1 3.650000e-01    2.110000e+00
  SP6q TN5ar  1 3.650000e-01    2.570000e+00
  SP5q TN5ar  1 3.650000e-01    2.570000e+00
  SP4q TN5ar  1 3.650000e-01    2.570000e+00
  SP3q TN5ar  1 3.650000e-01    2.570000e+00
  SP2q TN5ar  1 3.650000e-01    2.830000e+00
  SP1q TN5ar  1 3.650000e-01    2.830000e+00
  SN6q TN5ar  1 3.650000e-01    3.100000e+00
  SN5q TN5ar  1 3.650000e-01    2.830000e+00
  SN4a TN4ar  1 3.650000e-01    2.110000e+00
  SP6q TN4ar  1 3.650000e-01    2.340000e+00
  SP5q TN4ar  1 3.650000e-01    2.570000e+00
  SP4q TN4ar  1 3.650000e-01    2.570000e+00
  SP3q TN4ar  1 3.650000e-01    2.570000e+00
  SP2q TN4ar  1 3.650000e-01    2.570000e+00
  SP1q TN4ar  1 3.650000e-01    2.830000e+00
  SN6q TN4ar  1 3.650000e-01    3.100000e+00
  SN5q TN4ar  1 3.650000e-01    2.830000e+00
  SN4q TN4ar  1 3.650000e-01    2.830000e+00
  SN3a TN3ar  1 3.650000e-01    1.910000e+00
  SP6q TN3ar  1 3.650000e-01    2.110000e+00
  SP5q TN3ar  1 3.650000e-01    2.110000e+00
  SP4q TN3ar  1 3.650000e-01    2.340000e+00
  SP3q TN3ar  1 3.650000e-01    2.340000e+00
  SP2q TN3ar  1 3.650000e-01    2.340000e+00
  SP1q TN3ar  1 3.650000e-01    2.340000e+00
  SN6q TN3ar  1 3.650000e-01    2.570000e+00
  SN5q TN3ar  1 3.650000e-01    2.570000e+00
  SN4q TN3ar  1 3.650000e-01    2.570000e+00
  SN3q TN3ar  1 3.650000e-01    2.570000e+00
  SN2a TN2ar  1 3.650000e-01    1.910000e+00
  SP6q TN2ar  1 3.650000e-01    1.910000e+00
  SP5q TN2ar  1 3.650000e-01    1.910000e+00
  SP4q TN2ar  1 3.650000e-01    2.110000e+00
  SP3q TN2ar  1 3.650000e-01    2.340000e+00
  SP2q TN2ar  1 3.650000e-01    2.340000e+00
  SP1q TN2ar  1 3.650000e-01    2.340000e+00
  SN6q TN2ar  1 3.650000e-01    2.340000e+00
  SN5q TN2ar  1 3.650000e-01    2.570000e+00
  SN4q TN2ar  1 3.650000e-01    2.570000e+00
  SN3q TN2ar  1 3.650000e-01    2.570000e+00
  SN2q TN2ar  1 3.650000e-01    2.570000e+00
  SN1a TN1ar  1 3.650000e-01    1.910000e+00
  SP6q TN1ar  1 3.650000e-01    1.750000e+00
  SP5q TN1ar  1 3.650000e-01    1.750000e+00
  SP4q TN1ar  1 3.650000e-01    1.910000e+00
  SP3q TN1ar  1 3.650000e-01    2.110000e+00
  SP2q TN1ar  1 3.650000e-01    2.340000e+00
  SP1q TN1ar  1 3.650000e-01    2.340000e+00
  SN6q TN1ar  1 3.650000e-01    2.340000e+00
  SN5q TN1ar  1 3.650000e-01    2.340000e+00
  SN4q TN1ar  1 3.650000e-01    2.340000e+00
  SN3q TN1ar  1 3.650000e-01    2.340000e+00
  SN2q TN1ar  1 3.650000e-01    2.340000e+00
  SN1q TN1ar  1 3.650000e-01    2.570000e+00
  SC6v TC6vr  1 3.650000e-01    1.910000e+00
  SP6q TC6vr  1 3.650000e-01    1.910000e+00
  SP5q TC6vr  1 3.650000e-01    1.910000e+00
  SP4q TC6vr  1 3.650000e-01    2.110000e+00
  SP3q TC6vr  1 3.650000e-01    2.340000e+00
  SP2q TC6vr  1 3.650000e-01    2.340000e+00
  SP1q TC6vr  1 3.650000e-01    2.340000e+00
  SN6q TC6vr  1 3.650000e-01    2.570000e+00
  SN5q TC6vr  1 3.650000e-01    2.570000e+00
  SN4q TC6vr  1 3.650000e-01    2.570000e+00
  SN3q TC6vr  1 3.650000e-01    2.570000e+00
  SN2q TC6vr  1 3.650000e-01    2.570000e+00
  SN1q TC6vr  1 3.650000e-01    2.830000e+00
  SC6q TC6vr  1 3.650000e-01    2.830000e+00
  SC5v TC5vr  1 3.650000e-01    1.750000e+00
  SC6e TC5vr  1 3.650000e-01    2.340000e+00
  SP6q TC5vr  1 3.650000e-01    1.750000e+00
  SP5q TC5vr  1 3.650000e-01    1.910000e+00
  SP4q TC5vr  1 3.650000e-01    1.910000e+00
  SP3q TC5vr  1 3.650000e-01    2.110000e+00
  SP2q TC5vr  1 3.650000e-01    2.110000e+00
  SP1q TC5vr  1 3.650000e-01    2.110000e+00
  SN6q TC5vr  1 3.650000e-01    2.340000e+00
  SN5q TC5vr  1 3.650000e-01    2.340000e+00
  SN4q TC5vr  1 3.650000e-01    2.340000e+00
  SN3q TC5vr  1 3.650000e-01    2.340000e+00
  SN2q TC5vr  1 3.650000e-01    2.340000e+00
  SN1q TC5vr  1 3.650000e-01    2.570000e+00
  SC6q TC5vr  1 3.650000e-01    2.570000e+00
  SC5q TC5vr  1 3.650000e-01    2.570000e+00
  SC4v TC4vr  1 3.650000e-01    1.750000e+00
  SC6e TC4vr  1 3.650000e-01    2.340000e+00
  SC5e TC4vr  1 3.650000e-01    2.340000e+00
  SP6q TC4vr  1 3.660000e-01    1.600000e+00
  SP5q TC4vr  1 3.650000e-01    1.750000e+00
  SP4q TC4vr  1 3.650000e-01    1.750000e+00
  SP3q TC4vr  1 3.650000e-01    1.910000e+00
  SP2q TC4vr  1 3.650000e-01    1.910000e+00
  SP1q TC4vr  1 3.650000e-01    1.910000e+00
  SN6q TC4vr  1 3.650000e-01    2.110000e+00
  SN5q TC4vr  1 3.650000e-01    2.110000e+00
  SN4q TC4vr  1 3.650000e-01    2.340000e+00
  SN3q TC4vr  1 3.650000e-01    2.340000e+00
  SN2q TC4vr  1 3.650000e-01    2.340000e+00
  SN1q TC4vr  1 3.650000e-01    2.570000e+00
  SC6q TC4vr  1 3.650000e-01    2.570000e+00
  SC5q TC4vr  1 3.650000e-01    2.570000e+00
  SC4q TC4vr  1 3.650000e-01    2.570000e+00
  SC3v TC3vr  1 3.650000e-01    1.750000e+00
  SC6e TC3vr  1 3.650000e-01    2.110000e+00
  SC5e TC3vr  1 3.650000e-01    2.110000e+00
  SC4e TC3vr  1 3.650000e-01    2.340000e+00
  SP6q TC3vr  1 3.780000e-01    1.450000e+00
  SP5q TC3vr  1 3.660000e-01    1.600000e+00
  SP4q TC3vr  1 3.660000e-01    1.600000e+00
  SP3q TC3vr  1 3.660000e-01    1.600000e+00
  SP2q TC3vr  1 3.650000e-01    1.750000e+00
  SP1q TC3vr  1 3.650000e-01    1.750000e+00
  SN6q TC3vr  1 3.650000e-01    1.910000e+00
  SN5q TC3vr  1 3.650000e-01    2.110000e+00
  SN4q TC3vr  1 3.650000e-01    2.110000e+00
  SN3q TC3vr  1 3.650000e-01    2.110000e+00
  SN2q TC3vr  1 3.650000e-01    2.340000e+00
  SN1q TC3vr  1 3.650000e-01    2.340000e+00
  SC6q TC3vr  1 3.650000e-01    2.340000e+00
  SC5q TC3vr  1 3.650000e-01    2.340000e+00
  SC4q TC3vr  1 3.650000e-01    2.570000e+00
  SC3q TC3vr  1 3.650000e-01    2.570000e+00
  SC2v TC2vr  1 3.650000e-01    1.750000e+00
  SC6e TC2vr  1 3.650000e-01    1.910000e+00
  SC5e TC2vr  1 3.650000e-01    1.910000e+00
  SC4e TC2vr  1 3.650000e-01    2.110000e+00
  SC3e TC2vr  1 3.650000e-01    2.340000e+00
  SP6q TC2vr  1 3.780000e-01    1.450000e+00
  SP5q TC2vr  1 3.660000e-01    1.600000e+00
  SP4q TC2vr  1 3.660000e-01    1.600000e+00
  SP3q TC2vr  1 3.660000e-01    1.600000e+00
  SP2q TC2vr  1 3.650000e-01    1.750000e+00
  SP1q TC2vr  1 3.650000e-01    1.750000e+00
  SN6q TC2vr  1 3.650000e-01    1.910000e+00
  SN5q TC2vr  1 3.650000e-01    1.910000e+00
  SN4q TC2vr  1 3.650000e-01    1.910000e+00
  SN3q TC2vr  1 3.650000e-01    2.110000e+00
  SN2q TC2vr  1 3.650000e-01    2.110000e+00
  SN1q TC2vr  1 3.650000e-01    2.110000e+00
  SC6q TC2vr  1 3.650000e-01    2.110000e+00
  SC5q TC2vr  1 3.650000e-01    2.110000e+00
  SC4q TC2vr  1 3.650000e-01    2.340000e+00
  SC3q TC2vr  1 3.650000e-01    2.570000e+00
  SC2q TC2vr  1 3.650000e-01    2.570000e+00
  SC1v TC1vr  1 3.650000e-01    1.750000e+00
  SC6e TC1vr  1 3.650000e-01    1.750000e+00
  SC5e TC1vr  1 3.650000e-01    1.910000e+00
  SC4e TC1vr  1 3.650000e-01    1.910000e+00
  SC3e TC1vr  1 3.650000e-01    2.340000e+00
  SC2e TC1vr  1 3.650000e-01    2.570000e+00
  SP6q TC1vr  1 4.040000e-01    1.130000e+00
  SP5q TC1vr  1 3.780000e-01    1.450000e+00
  SP4q TC1vr  1 3.780000e-01    1.450000e+00
  SP3q TC1vr  1 3.780000e-01    1.450000e+00
  SP2q TC1vr  1 3.660000e-01    1.600000e+00
  SP1q TC1vr  1 3.660000e-01    1.600000e+00
  SN6q TC1vr  1 3.650000e-01    1.750000e+00
  SN5q TC1vr  1 3.650000e-01    1.750000e+00
  SN4q TC1vr  1 3.650000e-01    1.750000e+00
  SN3q TC1vr  1 3.650000e-01    1.910000e+00
  SN2q TC1vr  1 3.650000e-01    1.910000e+00
  SN1q TC1vr  1 3.650000e-01    1.910000e+00
  SC6q TC1vr  1 3.650000e-01    1.910000e+00
  SC5q TC1vr  1 3.650000e-01    2.110000e+00
  SC4q TC1vr  1 3.650000e-01    2.110000e+00
  SC3q TC1vr  1 3.650000e-01    2.570000e+00
  SC2q TC1vr  1 3.650000e-01    2.830000e+00
  SC1q TC1vr  1 3.650000e-01    2.570000e+00
  SX4v TX4vr  1 3.650000e-01    1.750000e+00
  SC6e TX4vr  1 3.650000e-01    2.340000e+00
  SC5e TX4vr  1 3.650000e-01    2.110000e+00
  SC4e TX4vr  1 3.650000e-01    2.110000e+00
  SC3e TX4vr  1 3.650000e-01    2.110000e+00
  SC2e TX4vr  1 3.650000e-01    1.750000e+00
  SC1e TX4vr  1 3.650000e-01    1.750000e+00
  SP6q TX4vr  1 3.650000e-01    2.110000e+00
  SP5q TX4vr  1 3.650000e-01    2.340000e+00
  SP4q TX4vr  1 3.650000e-01    2.340000e+00
  SP3q TX4vr  1 3.650000e-01    2.340000e+00
  SP2q TX4vr  1 3.650000e-01    2.340000e+00
  SP1q TX4vr  1 3.650000e-01    2.340000e+00
  SN6q TX4vr  1 3.650000e-01    2.570000e+00
  SN5q TX4vr  1 3.650000e-01    2.830000e+00
  SN4q TX4vr  1 3.650000e-01    3.100000e+00
  SN3q TX4vr  1 3.650000e-01    2.830000e+00
  SN2q TX4vr  1 3.650000e-01    2.830000e+00
  SN1q TX4vr  1 3.650000e-01    2.570000e+00
  SC6q TX4vr  1 3.650000e-01    2.570000e+00
  SC5q TX4vr  1 3.650000e-01    2.340000e+00
  SC4q TX4vr  1 3.650000e-01    2.340000e+00
  SC3q TX4vr  1 3.650000e-01    2.340000e+00
  SC2q TX4vr  1 3.650000e-01    1.910000e+00
  SC1q TX4vr  1 3.650000e-01    1.910000e+00
  SX4q TX4vr  1 3.650000e-01    2.570000e+00
  SX3v TX3vr  1 3.650000e-01    1.750000e+00
  SC6e TX3vr  1 3.650000e-01    2.340000e+00
  SC5e TX3vr  1 3.650000e-01    2.110000e+00
  SC4e TX3vr  1 3.650000e-01    2.110000e+00
  SC3e TX3vr  1 3.650000e-01    2.110000e+00
  SC2e TX3vr  1 3.650000e-01    2.110000e+00
  SC1e TX3vr  1 3.650000e-01    2.110000e+00
  SX4e TX3vr  1 3.650000e-01    2.340000e+00
  SP6q TX3vr  1 3.650000e-01    2.110000e+00
  SP5q TX3vr  1 3.650000e-01    2.110000e+00
  SP4q TX3vr  1 3.650000e-01    2.110000e+00
  SP3q TX3vr  1 3.650000e-01    2.340000e+00
  SP2q TX3vr  1 3.650000e-01    2.340000e+00
  SP1q TX3vr  1 3.650000e-01    2.340000e+00
  SN6q TX3vr  1 3.650000e-01    2.340000e+00
  SN5q TX3vr  1 3.650000e-01    2.570000e+00
  SN4q TX3vr  1 3.650000e-01    2.830000e+00
  SN3q TX3vr  1 3.650000e-01    2.570000e+00
  SN2q TX3vr  1 3.650000e-01    2.570000e+00
  SN1q TX3vr  1 3.650000e-01    2.570000e+00
  SC6q TX3vr  1 3.650000e-01    2.570000e+00
  SC5q TX3vr  1 3.650000e-01    2.340000e+00
  SC4q TX3vr  1 3.650000e-01    2.340000e+00
  SC3q TX3vr  1 3.650000e-01    2.340000e+00
  SC2q TX3vr  1 3.650000e-01    2.340000e+00
  SC1q TX3vr  1 3.650000e-01    2.340000e+00
  SX4q TX3vr  1 3.650000e-01    2.570000e+00
  SX3q TX3vr  1 3.650000e-01    2.570000e+00
  SX2v TX2vr  1 3.650000e-01    1.910000e+00
  SC6e TX2vr  1 3.650000e-01    2.340000e+00
  SC5e TX2vr  1 3.650000e-01    2.110000e+00
  SC4e TX2vr  1 3.650000e-01    2.110000e+00
  SC3e TX2vr  1 3.650000e-01    2.110000e+00
  SC2e TX2vr  1 3.650000e-01    2.110000e+00
  SC1e TX2vr  1 3.650000e-01    2.110000e+00
  SX4e TX2vr  1 3.650000e-01    2.340000e+00
  SX3e TX2vr  1 3.650000e-01    2.570000e+00
  SP6q TX2vr  1 3.650000e-01    1.910000e+00
  SP5q TX2vr  1 3.650000e-01    2.110000e+00
  SP4q TX2vr  1 3.650000e-01    2.110000e+00
  SP3q TX2vr  1 3.650000e-01    2.110000e+00
  SP2q TX2vr  1 3.650000e-01    2.110000e+00
  SP1q TX2vr  1 3.650000e-01    2.110000e+00
  SN6q TX2vr  1 3.650000e-01    2.110000e+00
  SN5q TX2vr  1 3.650000e-01    2.340000e+00
  SN4q TX2vr  1 3.650000e-01    2.340000e+00
  SN3q TX2vr  1 3.650000e-01    2.340000e+00
  SN2q TX2vr  1 3.650000e-01    2.340000e+00
  SN1q TX2vr  1 3.650000e-01    2.340000e+00
  SC6q TX2vr  1 3.650000e-01    2.570000e+00
  SC5q TX2vr  1 3.650000e-01    2.340000e+00
  SC4q TX2vr  1 3.650000e-01    2.340000e+00
  SC3q TX2vr  1 3.650000e-01    2.340000e+00
  SC2q TX2vr  1 3.650000e-01    2.340000e+00
  SC1q TX2vr  1 3.650000e-01    2.340000e+00
  SX4q TX2vr  1 3.650000e-01    2.570000e+00
  SX3q TX2vr  1 3.650000e-01    2.830000e+00
  SX2q TX2vr  1 3.650000e-01    2.830000e+00
  SX1v TX1vr  1 3.650000e-01    2.110000e+00
  SC6e TX1vr  1 3.650000e-01    2.340000e+00
  SC5e TX1vr  1 3.650000e-01    2.340000e+00
  SC4e TX1vr  1 3.650000e-01    2.340000e+00
  SC3e TX1vr  1 3.650000e-01    2.340000e+00
  SC2e TX1vr  1 3.650000e-01    2.110000e+00
  SC1e TX1vr  1 3.650000e-01    2.110000e+00
  SX4e TX1vr  1 3.650000e-01    2.340000e+00
  SX3e TX1vr  1 3.650000e-01    2.570000e+00
  SX2e TX1vr  1 3.650000e-01    2.570000e+00
  SP6q TX1vr  1 3.650000e-01    1.750000e+00
  SP5q TX1vr  1 3.650000e-01    1.750000e+00
  SP4q TX1vr  1 3.650000e-01    1.910000e+00
  SP3q TX1vr  1 3.650000e-01    1.910000e+00
  SP2q TX1vr  1 3.650000e-01    1.910000e+00
  SP1q TX1vr  1 3.650000e-01    1.910000e+00
  SN6q TX1vr  1 3.650000e-01    1.910000e+00
  SN5q TX1vr  1 3.650000e-01    2.110000e+00
  SN4q TX1vr  1 3.650000e-01    2.110000e+00
  SN3q TX1vr  1 3.650000e-01    2.340000e+00
  SN2q TX1vr  1 3.650000e-01    2.340000e+00
  SN1q TX1vr  1 3.650000e-01    2.340000e+00
  SC6q TX1vr  1 3.650000e-01    2.570000e+00
  SC5q TX1vr  1 3.650000e-01    2.570000e+00
  SC4q TX1vr  1 3.650000e-01    2.570000e+00
  SC3q TX1vr  1 3.650000e-01    2.570000e+00
  SC2q TX1vr  1 3.650000e-01    2.340000e+00
  SC1q TX1vr  1 3.650000e-01    2.340000e+00
  SX4q TX1vr  1 3.650000e-01    2.570000e+00
  SX3q TX1vr  1 3.650000e-01    2.830000e+00
  SX2q TX1vr  1 3.650000e-01    2.830000e+00
  SX1q TX1vr  1 3.650000e-01    3.100000e+00
  SC6e TC6er  1 3.650000e-01    1.910000e+00
  SP6q TC6er  1 3.650000e-01    1.910000e+00
  SP5q TC6er  1 3.650000e-01    1.910000e+00
  SP4q TC6er  1 3.650000e-01    2.110000e+00
  SP3q TC6er  1 3.650000e-01    2.340000e+00
  SP2q TC6er  1 3.650000e-01    2.340000e+00
  SP1q TC6er  1 3.650000e-01    2.340000e+00
  SN6q TC6er  1 3.650000e-01    2.570000e+00
  SN5q TC6er  1 3.650000e-01    2.570000e+00
  SN4q TC6er  1 3.650000e-01    2.570000e+00
  SN3q TC6er  1 3.650000e-01    2.570000e+00
  SN2q TC6er  1 3.650000e-01    2.570000e+00
  SN1q TC6er  1 3.650000e-01    2.830000e+00
  SC6q TC6er  1 3.650000e-01    2.830000e+00
  SC5e TC5er  1 3.650000e-01    1.750000e+00
  SP6q TC5er  1 3.650000e-01    1.750000e+00
  SP5q TC5er  1 3.650000e-01    1.910000e+00
  SP4q TC5er  1 3.650000e-01    1.910000e+00
  SP3q TC5er  1 3.650000e-01    2.110000e+00
  SP2q TC5er  1 3.650000e-01    2.110000e+00
  SP1q TC5er  1 3.650000e-01    2.110000e+00
  SN6q TC5er  1 3.650000e-01    2.340000e+00
  SN5q TC5er  1 3.650000e-01    2.340000e+00
  SN4q TC5er  1 3.650000e-01    2.340000e+00
  SN3q TC5er  1 3.650000e-01    2.340000e+00
  SN2q TC5er  1 3.650000e-01    2.340000e+00
  SN1q TC5er  1 3.650000e-01    2.570000e+00
  SC6q TC5er  1 3.650000e-01    2.570000e+00
  SC5q TC5er  1 3.650000e-01    2.570000e+00
  SC4e TC4er  1 3.650000e-01    1.750000e+00
  SP6q TC4er  1 3.660000e-01    1.600000e+00
  SP5q TC4er  1 3.650000e-01    1.750000e+00
  SP4q TC4er  1 3.650000e-01    1.750000e+00
  SP3q TC4er  1 3.650000e-01    1.910000e+00
  SP2q TC4er  1 3.650000e-01    1.910000e+00
  SP1q TC4er  1 3.650000e-01    1.910000e+00
  SN6q TC4er  1 3.650000e-01    2.110000e+00
  SN5q TC4er  1 3.650000e-01    2.110000e+00
  SN4q TC4er  1 3.650000e-01    2.340000e+00
  SN3q TC4er  1 3.650000e-01    2.340000e+00
  SN2q TC4er  1 3.650000e-01    2.340000e+00
  SN1q TC4er  1 3.650000e-01    2.570000e+00
  SC6q TC4er  1 3.650000e-01    2.570000e+00
  SC5q TC4er  1 3.650000e-01    2.570000e+00
  SC4q TC4er  1 3.650000e-01    2.570000e+00
  SC3e TC3er  1 3.650000e-01    1.750000e+00
  SP6q TC3er  1 3.780000e-01    1.450000e+00
  SP5q TC3er  1 3.660000e-01    1.600000e+00
  SP4q TC3er  1 3.660000e-01    1.600000e+00
  SP3q TC3er  1 3.660000e-01    1.600000e+00
  SP2q TC3er  1 3.650000e-01    1.750000e+00
  SP1q TC3er  1 3.650000e-01    1.750000e+00
  SN6q TC3er  1 3.650000e-01    1.910000e+00
  SN5q TC3er  1 3.650000e-01    2.110000e+00
  SN4q TC3er  1 3.650000e-01    2.110000e+00
  SN3q TC3er  1 3.650000e-01    2.110000e+00
  SN2q TC3er  1 3.650000e-01    2.340000e+00
  SN1q TC3er  1 3.650000e-01    2.340000e+00
  SC6q TC3er  1 3.650000e-01    2.340000e+00
  SC5q TC3er  1 3.650000e-01    2.340000e+00
  SC4q TC3er  1 3.650000e-01    2.570000e+00
  SC3q TC3er  1 3.650000e-01    2.570000e+00
  SC2e TC2er  1 3.650000e-01    1.750000e+00
  SP6q TC2er  1 3.780000e-01    1.450000e+00
  SP5q TC2er  1 3.660000e-01    1.600000e+00
  SP4q TC2er  1 3.660000e-01    1.600000e+00
  SP3q TC2er  1 3.660000e-01    1.600000e+00
  SP2q TC2er  1 3.650000e-01    1.750000e+00
  SP1q TC2er  1 3.650000e-01    1.750000e+00
  SN6q TC2er  1 3.650000e-01    1.910000e+00
  SN5q TC2er  1 3.650000e-01    1.910000e+00
  SN4q TC2er  1 3.650000e-01    1.910000e+00
  SN3q TC2er  1 3.650000e-01    2.110000e+00
  SN2q TC2er  1 3.650000e-01    2.110000e+00
  SN1q TC2er  1 3.650000e-01    2.110000e+00
  SC6q TC2er  1 3.650000e-01    2.110000e+00
  SC5q TC2er  1 3.650000e-01    2.110000e+00
  SC4q TC2er  1 3.650000e-01    2.340000e+00
  SC3q TC2er  1 3.650000e-01    2.570000e+00
  SC2q TC2er  1 3.650000e-01    2.570000e+00
  SC1e TC1er  1 3.650000e-01    1.750000e+00
  SP6q TC1er  1 4.040000e-01    1.130000e+00
  SP5q TC1er  1 3.780000e-01    1.450000e+00
  SP4q TC1er  1 3.780000e-01    1.450000e+00
  SP3q TC1er  1 3.780000e-01    1.450000e+00
  SP2q TC1er  1 3.660000e-01    1.600000e+00
  SP1q TC1er  1 3.660000e-01    1.600000e+00
  SN6q TC1er  1 3.650000e-01    1.750000e+00
  SN5q TC1er  1 3.650000e-01    1.750000e+00
  SN4q TC1er  1 3.650000e-01    1.750000e+00
  SN3q TC1er  1 3.650000e-01    1.910000e+00
  SN2q TC1er  1 3.650000e-01    1.910000e+00
  SN1q TC1er  1 3.650000e-01    1.910000e+00
  SC6q TC1er  1 3.650000e-01    1.910000e+00
  SC5q TC1er  1 3.650000e-01    2.110000e+00
  SC4q TC1er  1 3.650000e-01    2.110000e+00
  SC3q TC1er  1 3.650000e-01    2.570000e+00
  SC2q TC1er  1 3.650000e-01    2.830000e+00
  SC1q TC1er  1 3.650000e-01    2.570000e+00
  SX4e TX4er  1 3.650000e-01    1.750000e+00
  SP6q TX4er  1 3.650000e-01    2.110000e+00
  SP5q TX4er  1 3.650000e-01    2.340000e+00
  SP4q TX4er  1 3.650000e-01    2.340000e+00
  SP3q TX4er  1 3.650000e-01    2.340000e+00
  SP2q TX4er  1 3.650000e-01    2.340000e+00
  SP1q TX4er  1 3.650000e-01    2.340000e+00
  SN6q TX4er  1 3.650000e-01    2.570000e+00
  SN5q TX4er  1 3.650000e-01    2.830000e+00
  SN4q TX4er  1 3.650000e-01    3.100000e+00
  SN3q TX4er  1 3.650000e-01    2.830000e+00
  SN2q TX4er  1 3.650000e-01    2.830000e+00
  SN1q TX4er  1 3.650000e-01    2.570000e+00
  SC6q TX4er  1 3.650000e-01    2.570000e+00
  SC5q TX4er  1 3.650000e-01    2.340000e+00
  SC4q TX4er  1 3.650000e-01    2.340000e+00
  SC3q TX4er  1 3.650000e-01    2.340000e+00
  SC2q TX4er  1 3.650000e-01    1.910000e+00
  SC1q TX4er  1 3.650000e-01    1.910000e+00
  SX4q TX4er  1 3.650000e-01    2.570000e+00
  SX3e TX3er  1 3.650000e-01    1.750000e+00
  SP6q TX3er  1 3.650000e-01    2.110000e+00
  SP5q TX3er  1 3.650000e-01    2.110000e+00
  SP4q TX3er  1 3.650000e-01    2.110000e+00
  SP3q TX3er  1 3.650000e-01    2.340000e+00
  SP2q TX3er  1 3.650000e-01    2.340000e+00
  SP1q TX3er  1 3.650000e-01    2.340000e+00
  SN6q TX3er  1 3.650000e-01    2.340000e+00
  SN5q TX3er  1 3.650000e-01    2.570000e+00
  SN4q TX3er  1 3.650000e-01    2.830000e+00
  SN3q TX3er  1 3.650000e-01    2.570000e+00
  SN2q TX3er  1 3.650000e-01    2.570000e+00
  SN1q TX3er  1 3.650000e-01    2.570000e+00
  SC6q TX3er  1 3.650000e-01    2.570000e+00
  SC5q TX3er  1 3.650000e-01    2.340000e+00
  SC4q TX3er  1 3.650000e-01    2.340000e+00
  SC3q TX3er  1 3.650000e-01    2.340000e+00
  SC2q TX3er  1 3.650000e-01    2.340000e+00
  SC1q TX3er  1 3.650000e-01    2.340000e+00
  SX4q TX3er  1 3.650000e-01    2.570000e+00
  SX3q TX3er  1 3.650000e-01    2.570000e+00
  SX2e TX2er  1 3.650000e-01    1.910000e+00
  SP6q TX2er  1 3.650000e-01    1.910000e+00
  SP5q TX2er  1 3.650000e-01    2.110000e+00
  SP4q TX2er  1 3.650000e-01    2.110000e+00
  SP3q TX2er  1 3.650000e-01    2.110000e+00
  SP2q TX2er  1 3.650000e-01    2.110000e+00
  SP1q TX2er  1 3.650000e-01    2.110000e+00
  SN6q TX2er  1 3.650000e-01    2.110000e+00
  SN5q TX2er  1 3.650000e-01    2.340000e+00
  SN4q TX2er  1 3.650000e-01    2.340000e+00
  SN3q TX2er  1 3.650000e-01    2.340000e+00
  SN2q TX2er  1 3.650000e-01    2.340000e+00
  SN1q TX2er  1 3.650000e-01    2.340000e+00
  SC6q TX2er  1 3.650000e-01    2.570000e+00
  SC5q TX2er  1 3.650000e-01    2.340000e+00
  SC4q TX2er  1 3.650000e-01    2.340000e+00
  SC3q TX2er  1 3.650000e-01    2.340000e+00
  SC2q TX2er  1 3.650000e-01    2.340000e+00
  SC1q TX2er  1 3.650000e-01    2.340000e+00
  SX4q TX2er  1 3.650000e-01    2.570000e+00
  SX3q TX2er  1 3.650000e-01    2.830000e+00
  SX2q TX2er  1 3.650000e-01    2.830000e+00
  SX1e TX1er  1 3.650000e-01    2.110000e+00
  SP6q TX1er  1 3.650000e-01    1.750000e+00
  SP5q TX1er  1 3.650000e-01    1.750000e+00
  SP4q TX1er  1 3.650000e-01    1.910000e+00
  SP3q TX1er  1 3.650000e-01    1.910000e+00
  SP2q TX1er  1 3.650000e-01    1.910000e+00
  SP1q TX1er  1 3.650000e-01    1.910000e+00
  SN6q TX1er  1 3.650000e-01    1.910000e+00
  SN5q TX1er  1 3.650000e-01    2.110000e+00
  SN4q TX1er  1 3.650000e-01    2.110000e+00
  SN3q TX1er  1 3.650000e-01    2.340000e+00
  SN2q TX1er  1 3.650000e-01    2.340000e+00
  SN1q TX1er  1 3.650000e-01    2.340000e+00
  SC6q TX1er  1 3.650000e-01    2.570000e+00
  SC5q TX1er  1 3.650000e-01    2.570000e+00
  SC4q TX1er  1 3.650000e-01    2.570000e+00
  SC3q TX1er  1 3.650000e-01    2.570000e+00
  SC2q TX1er  1 3.650000e-01    2.340000e+00
  SC1q TX1er  1 3.650000e-01    2.340000e+00
  SX4q TX1er  1 3.650000e-01    2.570000e+00
  SX3q TX1er  1 3.650000e-01    2.830000e+00
  SX2q TX1er  1 3.650000e-01    2.830000e+00
  SX1q TX1er  1 3.650000e-01    3.100000e+00
  SC6e TX1er  1 3.650000e-01    1.750000e+00
  SC5e TX1er  1 3.650000e-01    1.750000e+00
  SC4e TX1er  1 3.650000e-01    1.750000e+00
  SC3e TX1er  1 3.650000e-01    1.750000e+00
  SC2e TX1er  1 3.660000e-01    1.600000e+00
  SC1e TX1er  1 3.660000e-01    1.600000e+00
  SX4e TX1er  1 3.650000e-01    1.750000e+00
  SX3e TX1er  1 3.650000e-01    1.910000e+00
  SX2e TX1er  1 3.650000e-01    1.910000e+00
  SC6v TX1er  1 3.650000e-01    2.340000e+00
  SC5v TX1er  1 3.650000e-01    2.340000e+00
  SC4v TX1er  1 3.650000e-01    2.340000e+00
  SC3v TX1er  1 3.650000e-01    2.340000e+00
  SC2v TX1er  1 3.650000e-01    2.110000e+00
  SC1v TX1er  1 3.650000e-01    2.110000e+00
  SX4v TX1er  1 3.650000e-01    2.340000e+00
  SX3v TX1er  1 3.650000e-01    2.570000e+00
  SX2v TX1er  1 3.650000e-01    2.570000e+00
  SX1v TX1er  1 3.650000e-01    2.830000e+00
  SP6d TX1er  1 3.780000e-01    1.450000e+00
  SP5d TX1er  1 3.780000e-01    1.450000e+00
  SP4d TX1er  1 3.660000e-01    1.600000e+00
  SP3d TX1er  1 3.660000e-01    1.600000e+00
  SP2d TX1er  1 3.660000e-01    1.600000e+00
  SP1d TX1er  1 3.660000e-01    1.600000e+00
  SN6d TX1er  1 3.660000e-01    1.600000e+00
  SN5d TX1er  1 3.650000e-01    1.750000e+00
  SN4d TX1er  1 3.650000e-01    1.750000e+00
  SN3d TX1er  1 3.650000e-01    1.910000e+00
  SN2d TX1er  1 3.650000e-01    1.910000e+00
  SN1d TX1er  1 3.650000e-01    1.910000e+00
  SP6a TX1er  1 4.040000e-01    1.130000e+00
  SP5a TX1er  1 4.040000e-01    1.130000e+00
  SP4a TX1er  1 3.940000e-01    1.290000e+00
  SP3a TX1er  1 3.940000e-01    1.290000e+00
  SP2a TX1er  1 3.940000e-01    1.290000e+00
  SP1a TX1er  1 3.940000e-01    1.290000e+00
  SN6a TX1er  1 3.940000e-01    1.290000e+00
  SN5a TX1er  1 3.780000e-01    1.450000e+00
  SN4a TX1er  1 3.780000e-01    1.450000e+00
  SN3a TX1er  1 3.660000e-01    1.600000e+00
  SN2a TX1er  1 3.660000e-01    1.600000e+00
  SN1a TX1er  1 3.660000e-01    1.600000e+00
  SC6e TX2er  1 3.650000e-01    1.750000e+00
  SC5e TX2er  1 3.660000e-01    1.600000e+00
  SC4e TX2er  1 3.660000e-01    1.600000e+00
  SC3e TX2er  1 3.660000e-01    1.600000e+00
  SC2e TX2er  1 3.660000e-01    1.600000e+00
  SC1e TX2er  1 3.660000e-01    1.600000e+00
  SX4e TX2er  1 3.650000e-01    1.750000e+00
  SX3e TX2er  1 3.650000e-01    1.910000e+00
  SC6v TX2er  1 3.650000e-01    2.340000e+00
  SC5v TX2er  1 3.650000e-01    2.110000e+00
  SC4v TX2er  1 3.650000e-01    2.110000e+00
  SC3v TX2er  1 3.650000e-01    2.110000e+00
  SC2v TX2er  1 3.650000e-01    2.110000e+00
  SC1v TX2er  1 3.650000e-01    2.110000e+00
  SX4v TX2er  1 3.650000e-01    2.340000e+00
  SX3v TX2er  1 3.650000e-01    2.570000e+00
  SX2v TX2er  1 3.650000e-01    2.570000e+00
  SP6d TX2er  1 3.660000e-01    1.600000e+00
  SP5d TX2er  1 3.650000e-01    1.750000e+00
  SP4d TX2er  1 3.650000e-01    1.750000e+00
  SP3d TX2er  1 3.650000e-01    1.750000e+00
  SP2d TX2er  1 3.650000e-01    1.750000e+00
  SP1d TX2er  1 3.650000e-01    1.750000e+00
  SN6d TX2er  1 3.650000e-01    1.750000e+00
  SN5d TX2er  1 3.650000e-01    1.910000e+00
  SN4d TX2er  1 3.650000e-01    1.910000e+00
  SN3d TX2er  1 3.650000e-01    1.910000e+00
  SN2d TX2er  1 3.650000e-01    1.910000e+00
  SN1d TX2er  1 3.650000e-01    1.910000e+00
  SP6a TX2er  1 3.940000e-01    1.290000e+00
  SP5a TX2er  1 3.780000e-01    1.450000e+00
  SP4a TX2er  1 3.780000e-01    1.450000e+00
  SP3a TX2er  1 3.780000e-01    1.450000e+00
  SP2a TX2er  1 3.780000e-01    1.450000e+00
  SP1a TX2er  1 3.780000e-01    1.450000e+00
  SN6a TX2er  1 3.780000e-01    1.450000e+00
  SN5a TX2er  1 3.660000e-01    1.600000e+00
  SN4a TX2er  1 3.660000e-01    1.600000e+00
  SN3a TX2er  1 3.660000e-01    1.600000e+00
  SN2a TX2er  1 3.660000e-01    1.600000e+00
  SN1a TX2er  1 3.660000e-01    1.600000e+00
  SC6e TX3er  1 3.650000e-01    1.750000e+00
  SC5e TX3er  1 3.660000e-01    1.600000e+00
  SC4e TX3er  1 3.660000e-01    1.600000e+00
  SC3e TX3er  1 3.660000e-01    1.600000e+00
  SC2e TX3er  1 3.660000e-01    1.600000e+00
  SC1e TX3er  1 3.660000e-01    1.600000e+00
  SX4e TX3er  1 3.650000e-01    1.750000e+00
  SC6v TX3er  1 3.650000e-01    2.340000e+00
  SC5v TX3er  1 3.650000e-01    2.110000e+00
  SC4v TX3er  1 3.650000e-01    2.110000e+00
  SC3v TX3er  1 3.650000e-01    2.110000e+00
  SC2v TX3er  1 3.650000e-01    2.110000e+00
  SC1v TX3er  1 3.650000e-01    2.110000e+00
  SX4v TX3er  1 3.650000e-01    2.340000e+00
  SX3v TX3er  1 3.650000e-01    2.340000e+00
  SP6d TX3er  1 3.650000e-01    1.750000e+00
  SP5d TX3er  1 3.650000e-01    1.750000e+00
  SP4d TX3er  1 3.650000e-01    1.750000e+00
  SP3d TX3er  1 3.650000e-01    1.910000e+00
  SP2d TX3er  1 3.650000e-01    1.910000e+00
  SP1d TX3er  1 3.650000e-01    1.910000e+00
  SN6d TX3er  1 3.650000e-01    1.910000e+00
  SN5d TX3er  1 3.650000e-01    2.110000e+00
  SN4d TX3er  1 3.650000e-01    2.340000e+00
  SN3d TX3er  1 3.650000e-01    2.110000e+00
  SN2d TX3er  1 3.650000e-01    2.110000e+00
  SN1d TX3er  1 3.650000e-01    2.110000e+00
  SP6a TX3er  1 3.780000e-01    1.450000e+00
  SP5a TX3er  1 3.780000e-01    1.450000e+00
  SP4a TX3er  1 3.780000e-01    1.450000e+00
  SP3a TX3er  1 3.660000e-01    1.600000e+00
  SP2a TX3er  1 3.660000e-01    1.600000e+00
  SP1a TX3er  1 3.660000e-01    1.600000e+00
  SN6a TX3er  1 3.660000e-01    1.600000e+00
  SN5a TX3er  1 3.650000e-01    1.750000e+00
  SN4a TX3er  1 3.650000e-01    1.910000e+00
  SN3a TX3er  1 3.650000e-01    1.750000e+00
  SN2a TX3er  1 3.650000e-01    1.750000e+00
  SN1a TX3er  1 3.650000e-01    1.750000e+00
  SC6e TX4er  1 3.650000e-01    1.750000e+00
  SC5e TX4er  1 3.660000e-01    1.600000e+00
  SC4e TX4er  1 3.660000e-01    1.600000e+00
  SC3e TX4er  1 3.660000e-01    1.600000e+00
  SC2e TX4er  1 3.940000e-01    1.290000e+00
  SC1e TX4er  1 3.940000e-01    1.290000e+00
  SC6v TX4er  1 3.650000e-01    2.340000e+00
  SC5v TX4er  1 3.650000e-01    2.110000e+00
  SC4v TX4er  1 3.650000e-01    2.110000e+00
  SC3v TX4er  1 3.650000e-01    2.110000e+00
  SC2v TX4er  1 3.650000e-01    1.750000e+00
  SC1v TX4er  1 3.650000e-01    1.750000e+00
  SX4v TX4er  1 3.650000e-01    2.340000e+00
  SP6d TX4er  1 3.650000e-01    1.750000e+00
  SP5d TX4er  1 3.650000e-01    1.910000e+00
  SP4d TX4er  1 3.650000e-01    1.910000e+00
  SP3d TX4er  1 3.650000e-01    1.910000e+00
  SP2d TX4er  1 3.650000e-01    1.910000e+00
  SP1d TX4er  1 3.650000e-01    1.910000e+00
  SN6d TX4er  1 3.650000e-01    2.110000e+00
  SN5d TX4er  1 3.650000e-01    2.340000e+00
  SN4d TX4er  1 3.650000e-01    2.570000e+00
  SN3d TX4er  1 3.650000e-01    2.340000e+00
  SN2d TX4er  1 3.650000e-01    2.340000e+00
  SN1d TX4er  1 3.650000e-01    2.110000e+00
  SP6a TX4er  1 3.780000e-01    1.450000e+00
  SP5a TX4er  1 3.660000e-01    1.600000e+00
  SP4a TX4er  1 3.660000e-01    1.600000e+00
  SP3a TX4er  1 3.660000e-01    1.600000e+00
  SP2a TX4er  1 3.660000e-01    1.600000e+00
  SP1a TX4er  1 3.660000e-01    1.600000e+00
  SN6a TX4er  1 3.650000e-01    1.750000e+00
  SN5a TX4er  1 3.650000e-01    1.910000e+00
  SN4a TX4er  1 3.650000e-01    2.110000e+00
  SN3a TX4er  1 3.650000e-01    1.910000e+00
  SN2a TX4er  1 3.650000e-01    1.910000e+00
  SN1a TX4er  1 3.650000e-01    1.750000e+00
  SC6e TC1er  1 3.940000e-01    1.290000e+00
  SC5e TC1er  1 3.780000e-01    1.450000e+00
  SC4e TC1er  1 3.780000e-01    1.450000e+00
  SC3e TC1er  1 3.650000e-01    1.750000e+00
  SC2e TC1er  1 3.650000e-01    1.910000e+00
  SC6v TC1er  1 3.650000e-01    1.750000e+00
  SC5v TC1er  1 3.650000e-01    1.910000e+00
  SC4v TC1er  1 3.650000e-01    1.910000e+00
  SC3v TC1er  1 3.650000e-01    2.340000e+00
  SC2v TC1er  1 3.650000e-01    2.570000e+00
  SC1v TC1er  1 3.650000e-01    2.340000e+00
  SP6d TC1er  1 4.230000e-01    9.810000e-01
  SP5d TC1er  1 4.040000e-01    1.130000e+00
  SP4d TC1er  1 4.040000e-01    1.130000e+00
  SP3d TC1er  1 4.040000e-01    1.130000e+00
  SP2d TC1er  1 3.940000e-01    1.290000e+00
  SP1d TC1er  1 3.940000e-01    1.290000e+00
  SN6d TC1er  1 3.780000e-01    1.450000e+00
  SN5d TC1er  1 3.780000e-01    1.450000e+00
  SN4d TC1er  1 3.780000e-01    1.450000e+00
  SN3d TC1er  1 3.660000e-01    1.600000e+00
  SN2d TC1er  1 3.660000e-01    1.600000e+00
  SN1d TC1er  1 3.660000e-01    1.600000e+00
  SP6a TC1er  1 5.370000e-01    8.080000e-01
  SP5a TC1er  1 4.230000e-01    9.810000e-01
  SP4a TC1er  1 4.230000e-01    9.810000e-01
  SP3a TC1er  1 4.230000e-01    9.810000e-01
  SP2a TC1er  1 4.090000e-01    1.080000e+00
  SP1a TC1er  1 4.090000e-01    1.080000e+00
  SN6a TC1er  1 4.040000e-01    1.130000e+00
  SN5a TC1er  1 4.040000e-01    1.130000e+00
  SN4a TC1er  1 4.040000e-01    1.130000e+00
  SN3a TC1er  1 3.940000e-01    1.290000e+00
  SN2a TC1er  1 3.940000e-01    1.290000e+00
  SN1a TC1er  1 3.940000e-01    1.290000e+00
  SC6e TC2er  1 3.780000e-01    1.450000e+00
  SC5e TC2er  1 3.780000e-01    1.450000e+00
  SC4e TC2er  1 3.660000e-01    1.600000e+00
  SC3e TC2er  1 3.650000e-01    1.750000e+00
  SC6v TC2er  1 3.650000e-01    1.910000e+00
  SC5v TC2er  1 3.650000e-01    1.910000e+00
  SC4v TC2er  1 3.650000e-01    2.110000e+00
  SC3v TC2er  1 3.650000e-01    2.340000e+00
  SC2v TC2er  1 3.650000e-01    2.340000e+00
  SP6d TC2er  1 4.040000e-01    1.130000e+00
  SP5d TC2er  1 3.940000e-01    1.290000e+00
  SP4d TC2er  1 3.940000e-01    1.290000e+00
  SP3d TC2er  1 3.940000e-01    1.290000e+00
  SP2d TC2er  1 3.780000e-01    1.450000e+00
  SP1d TC2er  1 3.780000e-01    1.450000e+00
  SN6d TC2er  1 3.660000e-01    1.600000e+00
  SN5d TC2er  1 3.660000e-01    1.600000e+00
  SN4d TC2er  1 3.660000e-01    1.600000e+00
  SN3d TC2er  1 3.650000e-01    1.750000e+00
  SN2d TC2er  1 3.650000e-01    1.750000e+00
  SN1d TC2er  1 3.650000e-01    1.750000e+00
  SP6a TC2er  1 4.230000e-01    9.810000e-01
  SP5a TC2er  1 4.090000e-01    1.080000e+00
  SP4a TC2er  1 4.090000e-01    1.080000e+00
  SP3a TC2er  1 4.090000e-01    1.080000e+00
  SP2a TC2er  1 4.040000e-01    1.130000e+00
  SP1a TC2er  1 4.040000e-01    1.130000e+00
  SN6a TC2er  1 3.940000e-01    1.290000e+00
  SN5a TC2er  1 3.940000e-01    1.290000e+00
  SN4a TC2er  1 3.940000e-01    1.290000e+00
  SN3a TC2er  1 3.780000e-01    1.450000e+00
  SN2a TC2er  1 3.780000e-01    1.450000e+00
  SN1a TC2er  1 3.780000e-01    1.450000e+00
  SC6e TC3er  1 3.660000e-01    1.600000e+00
  SC5e TC3er  1 3.660000e-01    1.600000e+00
  SC4e TC3er  1 3.650000e-01    1.750000e+00
  SC6v TC3er  1 3.650000e-01    2.110000e+00
  SC5v TC3er  1 3.650000e-01    2.110000e+00
  SC4v TC3er  1 3.650000e-01    2.340000e+00
  SC3v TC3er  1 3.650000e-01    2.340000e+00
  SP6d TC3er  1 4.040000e-01    1.130000e+00
  SP5d TC3er  1 3.940000e-01    1.290000e+00
  SP4d TC3er  1 3.940000e-01    1.290000e+00
  SP3d TC3er  1 3.940000e-01    1.290000e+00
  SP2d TC3er  1 3.780000e-01    1.450000e+00
  SP1d TC3er  1 3.780000e-01    1.450000e+00
  SN6d TC3er  1 3.660000e-01    1.600000e+00
  SN5d TC3er  1 3.650000e-01    1.750000e+00
  SN4d TC3er  1 3.650000e-01    1.750000e+00
  SN3d TC3er  1 3.650000e-01    1.750000e+00
  SN2d TC3er  1 3.650000e-01    1.910000e+00
  SN1d TC3er  1 3.650000e-01    1.910000e+00
  SP6a TC3er  1 4.230000e-01    9.810000e-01
  SP5a TC3er  1 4.090000e-01    1.080000e+00
  SP4a TC3er  1 4.090000e-01    1.080000e+00
  SP3a TC3er  1 4.090000e-01    1.080000e+00
  SP2a TC3er  1 4.040000e-01    1.130000e+00
  SP1a TC3er  1 4.040000e-01    1.130000e+00
  SN6a TC3er  1 3.940000e-01    1.290000e+00
  SN5a TC3er  1 3.780000e-01    1.450000e+00
  SN4a TC3er  1 3.780000e-01    1.450000e+00
  SN3a TC3er  1 3.780000e-01    1.450000e+00
  SN2a TC3er  1 3.660000e-01    1.600000e+00
  SN1a TC3er  1 3.660000e-01    1.600000e+00
  SC6e TC4er  1 3.650000e-01    1.750000e+00
  SC5e TC4er  1 3.650000e-01    1.750000e+00
  SC6v TC4er  1 3.650000e-01    2.340000e+00
  SC5v TC4er  1 3.650000e-01    2.340000e+00
  SC4v TC4er  1 3.650000e-01    2.340000e+00
  SP6d TC4er  1 3.940000e-01    1.290000e+00
  SP5d TC4er  1 3.780000e-01    1.450000e+00
  SP4d TC4er  1 3.780000e-01    1.450000e+00
  SP3d TC4er  1 3.660000e-01    1.600000e+00
  SP2d TC4er  1 3.660000e-01    1.600000e+00
  SP1d TC4er  1 3.660000e-01    1.600000e+00
  SN6d TC4er  1 3.650000e-01    1.750000e+00
  SN5d TC4er  1 3.650000e-01    1.750000e+00
  SN4d TC4er  1 3.650000e-01    1.910000e+00
  SN3d TC4er  1 3.650000e-01    1.910000e+00
  SN2d TC4er  1 3.650000e-01    1.910000e+00
  SN1d TC4er  1 3.650000e-01    2.110000e+00
  SP6a TC4er  1 4.090000e-01    1.080000e+00
  SP5a TC4er  1 4.040000e-01    1.130000e+00
  SP4a TC4er  1 4.040000e-01    1.130000e+00
  SP3a TC4er  1 3.940000e-01    1.290000e+00
  SP2a TC4er  1 3.940000e-01    1.290000e+00
  SP1a TC4er  1 3.940000e-01    1.290000e+00
  SN6a TC4er  1 3.780000e-01    1.450000e+00
  SN5a TC4er  1 3.780000e-01    1.450000e+00
  SN4a TC4er  1 3.660000e-01    1.600000e+00
  SN3a TC4er  1 3.660000e-01    1.600000e+00
  SN2a TC4er  1 3.660000e-01    1.600000e+00
  SN1a TC4er  1 3.650000e-01    1.750000e+00
  SC6e TC5er  1 3.650000e-01    1.750000e+00
  SC6v TC5er  1 3.650000e-01    2.340000e+00
  SC5v TC5er  1 3.650000e-01    2.340000e+00
  SP6d TC5er  1 3.780000e-01    1.450000e+00
  SP5d TC5er  1 3.660000e-01    1.600000e+00
  SP4d TC5er  1 3.660000e-01    1.600000e+00
  SP3d TC5er  1 3.650000e-01    1.750000e+00
  SP2d TC5er  1 3.650000e-01    1.750000e+00
  SP1d TC5er  1 3.650000e-01    1.750000e+00
  SN6d TC5er  1 3.650000e-01    1.910000e+00
  SN5d TC5er  1 3.650000e-01    1.910000e+00
  SN4d TC5er  1 3.650000e-01    1.910000e+00
  SN3d TC5er  1 3.650000e-01    1.910000e+00
  SN2d TC5er  1 3.650000e-01    1.910000e+00
  SN1d TC5er  1 3.650000e-01    2.110000e+00
  SP6a TC5er  1 4.040000e-01    1.130000e+00
  SP5a TC5er  1 3.940000e-01    1.290000e+00
  SP4a TC5er  1 3.940000e-01    1.290000e+00
  SP3a TC5er  1 3.780000e-01    1.450000e+00
  SP2a TC5er  1 3.780000e-01    1.450000e+00
  SP1a TC5er  1 3.780000e-01    1.450000e+00
  SN6a TC5er  1 3.660000e-01    1.600000e+00
  SN5a TC5er  1 3.660000e-01    1.600000e+00
  SN4a TC5er  1 3.660000e-01    1.600000e+00
  SN3a TC5er  1 3.660000e-01    1.600000e+00
  SN2a TC5er  1 3.660000e-01    1.600000e+00
  SN1a TC5er  1 3.650000e-01    1.750000e+00
  SC6v TC6er  1 3.650000e-01    2.570000e+00
  SP6d TC6er  1 3.660000e-01    1.600000e+00
  SP5d TC6er  1 3.660000e-01    1.600000e+00
  SP4d TC6er  1 3.650000e-01    1.750000e+00
  SP3d TC6er  1 3.650000e-01    1.910000e+00
  SP2d TC6er  1 3.650000e-01    1.910000e+00
  SP1d TC6er  1 3.650000e-01    1.910000e+00
  SN6d TC6er  1 3.650000e-01    2.110000e+00
  SN5d TC6er  1 3.650000e-01    2.110000e+00
  SN4d TC6er  1 3.650000e-01    2.110000e+00
  SN3d TC6er  1 3.650000e-01    2.110000e+00
  SN2d TC6er  1 3.650000e-01    2.110000e+00
  SN1d TC6er  1 3.650000e-01    2.340000e+00
  SP6a TC6er  1 3.940000e-01    1.290000e+00
  SP5a TC6er  1 3.940000e-01    1.290000e+00
  SP4a TC6er  1 3.780000e-01    1.450000e+00
  SP3a TC6er  1 3.660000e-01    1.600000e+00
  SP2a TC6er  1 3.660000e-01    1.600000e+00
  SP1a TC6er  1 3.660000e-01    1.600000e+00
  SN6a TC6er  1 3.650000e-01    1.750000e+00
  SN5a TC6er  1 3.650000e-01    1.750000e+00
  SN4a TC6er  1 3.650000e-01    1.750000e+00
  SN3a TC6er  1 3.650000e-01    1.750000e+00
  SN2a TC6er  1 3.650000e-01    1.750000e+00
  SN1a TC6er  1 3.650000e-01    1.910000e+00
  SC6v TX1vr  1 3.650000e-01    1.750000e+00
  SC5v TX1vr  1 3.650000e-01    1.750000e+00
  SC4v TX1vr  1 3.650000e-01    1.750000e+00
  SC3v TX1vr  1 3.650000e-01    1.750000e+00
  SC2v TX1vr  1 3.660000e-01    1.600000e+00
  SC1v TX1vr  1 3.660000e-01    1.600000e+00
  SX4v TX1vr  1 3.650000e-01    1.750000e+00
  SX3v TX1vr  1 3.650000e-01    1.910000e+00
  SX2v TX1vr  1 3.650000e-01    1.910000e+00
  SP6a TX1vr  1 3.780000e-01    1.450000e+00
  SP5a TX1vr  1 3.780000e-01    1.450000e+00
  SP4a TX1vr  1 3.660000e-01    1.600000e+00
  SP3a TX1vr  1 3.660000e-01    1.600000e+00
  SP2a TX1vr  1 3.660000e-01    1.600000e+00
  SP1a TX1vr  1 3.660000e-01    1.600000e+00
  SN6a TX1vr  1 3.660000e-01    1.600000e+00
  SN5a TX1vr  1 3.650000e-01    1.750000e+00
  SN4a TX1vr  1 3.650000e-01    1.750000e+00
  SN3a TX1vr  1 3.650000e-01    1.910000e+00
  SN2a TX1vr  1 3.650000e-01    1.910000e+00
  SN1a TX1vr  1 3.650000e-01    1.910000e+00
  SP6d TX1vr  1 4.040000e-01    1.130000e+00
  SP5d TX1vr  1 4.040000e-01    1.130000e+00
  SP4d TX1vr  1 3.940000e-01    1.290000e+00
  SP3d TX1vr  1 3.940000e-01    1.290000e+00
  SP2d TX1vr  1 3.940000e-01    1.290000e+00
  SP1d TX1vr  1 3.940000e-01    1.290000e+00
  SN6d TX1vr  1 3.940000e-01    1.290000e+00
  SN5d TX1vr  1 3.780000e-01    1.450000e+00
  SN4d TX1vr  1 3.780000e-01    1.450000e+00
  SN3d TX1vr  1 3.660000e-01    1.600000e+00
  SN2d TX1vr  1 3.660000e-01    1.600000e+00
  SN1d TX1vr  1 3.660000e-01    1.600000e+00
  SC6v TX2vr  1 3.650000e-01    1.750000e+00
  SC5v TX2vr  1 3.660000e-01    1.600000e+00
  SC4v TX2vr  1 3.660000e-01    1.600000e+00
  SC3v TX2vr  1 3.660000e-01    1.600000e+00
  SC2v TX2vr  1 3.660000e-01    1.600000e+00
  SC1v TX2vr  1 3.660000e-01    1.600000e+00
  SX4v TX2vr  1 3.650000e-01    1.750000e+00
  SX3v TX2vr  1 3.650000e-01    1.910000e+00
  SP6a TX2vr  1 3.660000e-01    1.600000e+00
  SP5a TX2vr  1 3.650000e-01    1.750000e+00
  SP4a TX2vr  1 3.650000e-01    1.750000e+00
  SP3a TX2vr  1 3.650000e-01    1.750000e+00
  SP2a TX2vr  1 3.650000e-01    1.750000e+00
  SP1a TX2vr  1 3.650000e-01    1.750000e+00
  SN6a TX2vr  1 3.650000e-01    1.750000e+00
  SN5a TX2vr  1 3.650000e-01    1.910000e+00
  SN4a TX2vr  1 3.650000e-01    1.910000e+00
  SN3a TX2vr  1 3.650000e-01    1.910000e+00
  SN2a TX2vr  1 3.650000e-01    1.910000e+00
  SN1a TX2vr  1 3.650000e-01    1.910000e+00
  SP6d TX2vr  1 3.940000e-01    1.290000e+00
  SP5d TX2vr  1 3.780000e-01    1.450000e+00
  SP4d TX2vr  1 3.780000e-01    1.450000e+00
  SP3d TX2vr  1 3.780000e-01    1.450000e+00
  SP2d TX2vr  1 3.780000e-01    1.450000e+00
  SP1d TX2vr  1 3.780000e-01    1.450000e+00
  SN6d TX2vr  1 3.780000e-01    1.450000e+00
  SN5d TX2vr  1 3.660000e-01    1.600000e+00
  SN4d TX2vr  1 3.660000e-01    1.600000e+00
  SN3d TX2vr  1 3.660000e-01    1.600000e+00
  SN2d TX2vr  1 3.660000e-01    1.600000e+00
  SN1d TX2vr  1 3.660000e-01    1.600000e+00
  SC6v TX3vr  1 3.650000e-01    1.750000e+00
  SC5v TX3vr  1 3.660000e-01    1.600000e+00
  SC4v TX3vr  1 3.660000e-01    1.600000e+00
  SC3v TX3vr  1 3.660000e-01    1.600000e+00
  SC2v TX3vr  1 3.660000e-01    1.600000e+00
  SC1v TX3vr  1 3.660000e-01    1.600000e+00
  SX4v TX3vr  1 3.650000e-01    1.750000e+00
  SP6a TX3vr  1 3.650000e-01    1.750000e+00
  SP5a TX3vr  1 3.650000e-01    1.750000e+00
  SP4a TX3vr  1 3.650000e-01    1.750000e+00
  SP3a TX3vr  1 3.650000e-01    1.910000e+00
  SP2a TX3vr  1 3.650000e-01    1.910000e+00
  SP1a TX3vr  1 3.650000e-01    1.910000e+00
  SN6a TX3vr  1 3.650000e-01    1.910000e+00
  SN5a TX3vr  1 3.650000e-01    2.110000e+00
  SN4a TX3vr  1 3.650000e-01    2.340000e+00
  SN3a TX3vr  1 3.650000e-01    2.110000e+00
  SN2a TX3vr  1 3.650000e-01    2.110000e+00
  SN1a TX3vr  1 3.650000e-01    2.110000e+00
  SP6d TX3vr  1 3.780000e-01    1.450000e+00
  SP5d TX3vr  1 3.780000e-01    1.450000e+00
  SP4d TX3vr  1 3.780000e-01    1.450000e+00
  SP3d TX3vr  1 3.660000e-01    1.600000e+00
  SP2d TX3vr  1 3.660000e-01    1.600000e+00
  SP1d TX3vr  1 3.660000e-01    1.600000e+00
  SN6d TX3vr  1 3.660000e-01    1.600000e+00
  SN5d TX3vr  1 3.650000e-01    1.750000e+00
  SN4d TX3vr  1 3.650000e-01    1.910000e+00
  SN3d TX3vr  1 3.650000e-01    1.750000e+00
  SN2d TX3vr  1 3.650000e-01    1.750000e+00
  SN1d TX3vr  1 3.650000e-01    1.750000e+00
  SC6v TX4vr  1 3.650000e-01    1.750000e+00
  SC5v TX4vr  1 3.660000e-01    1.600000e+00
  SC4v TX4vr  1 3.660000e-01    1.600000e+00
  SC3v TX4vr  1 3.660000e-01    1.600000e+00
  SC2v TX4vr  1 3.940000e-01    1.290000e+00
  SC1v TX4vr  1 3.940000e-01    1.290000e+00
  SP6a TX4vr  1 3.650000e-01    1.750000e+00
  SP5a TX4vr  1 3.650000e-01    1.910000e+00
  SP4a TX4vr  1 3.650000e-01    1.910000e+00
  SP3a TX4vr  1 3.650000e-01    1.910000e+00
  SP2a TX4vr  1 3.650000e-01    1.910000e+00
  SP1a TX4vr  1 3.650000e-01    1.910000e+00
  SN6a TX4vr  1 3.650000e-01    2.110000e+00
  SN5a TX4vr  1 3.650000e-01    2.340000e+00
  SN4a TX4vr  1 3.650000e-01    2.570000e+00
  SN3a TX4vr  1 3.650000e-01    2.340000e+00
  SN2a TX4vr  1 3.650000e-01    2.340000e+00
  SN1a TX4vr  1 3.650000e-01    2.110000e+00
  SP6d TX4vr  1 3.780000e-01    1.450000e+00
  SP5d TX4vr  1 3.660000e-01    1.600000e+00
  SP4d TX4vr  1 3.660000e-01    1.600000e+00
  SP3d TX4vr  1 3.660000e-01    1.600000e+00
  SP2d TX4vr  1 3.660000e-01    1.600000e+00
  SP1d TX4vr  1 3.660000e-01    1.600000e+00
  SN6d TX4vr  1 3.650000e-01    1.750000e+00
  SN5d TX4vr  1 3.650000e-01    1.910000e+00
  SN4d TX4vr  1 3.650000e-01    2.110000e+00
  SN3d TX4vr  1 3.650000e-01    1.910000e+00
  SN2d TX4vr  1 3.650000e-01    1.910000e+00
  SN1d TX4vr  1 3.650000e-01    1.750000e+00
  SC6v TC1vr  1 3.940000e-01    1.290000e+00
  SC5v TC1vr  1 3.780000e-01    1.450000e+00
  SC4v TC1vr  1 3.780000e-01    1.450000e+00
  SC3v TC1vr  1 3.650000e-01    1.750000e+00
  SC2v TC1vr  1 3.650000e-01    1.910000e+00
  SP6a TC1vr  1 4.230000e-01    9.810000e-01
  SP5a TC1vr  1 4.040000e-01    1.130000e+00
  SP4a TC1vr  1 4.040000e-01    1.130000e+00
  SP3a TC1vr  1 4.040000e-01    1.130000e+00
  SP2a TC1vr  1 3.940000e-01    1.290000e+00
  SP1a TC1vr  1 3.940000e-01    1.290000e+00
  SN6a TC1vr  1 3.780000e-01    1.450000e+00
  SN5a TC1vr  1 3.780000e-01    1.450000e+00
  SN4a TC1vr  1 3.780000e-01    1.450000e+00
  SN3a TC1vr  1 3.660000e-01    1.600000e+00
  SN2a TC1vr  1 3.660000e-01    1.600000e+00
  SN1a TC1vr  1 3.660000e-01    1.600000e+00
  SP6d TC1vr  1 5.370000e-01    8.080000e-01
  SP5d TC1vr  1 4.230000e-01    9.810000e-01
  SP4d TC1vr  1 4.230000e-01    9.810000e-01
  SP3d TC1vr  1 4.230000e-01    9.810000e-01
  SP2d TC1vr  1 4.090000e-01    1.080000e+00
  SP1d TC1vr  1 4.090000e-01    1.080000e+00
  SN6d TC1vr  1 4.040000e-01    1.130000e+00
  SN5d TC1vr  1 4.040000e-01    1.130000e+00
  SN4d TC1vr  1 4.040000e-01    1.130000e+00
  SN3d TC1vr  1 3.940000e-01    1.290000e+00
  SN2d TC1vr  1 3.940000e-01    1.290000e+00
  SN1d TC1vr  1 3.940000e-01    1.290000e+00
  SC6v TC2vr  1 3.780000e-01    1.450000e+00
  SC5v TC2vr  1 3.780000e-01    1.450000e+00
  SC4v TC2vr  1 3.660000e-01    1.600000e+00
  SC3v TC2vr  1 3.650000e-01    1.750000e+00
  SP6a TC2vr  1 4.040000e-01    1.130000e+00
  SP5a TC2vr  1 3.940000e-01    1.290000e+00
  SP4a TC2vr  1 3.940000e-01    1.290000e+00
  SP3a TC2vr  1 3.940000e-01    1.290000e+00
  SP2a TC2vr  1 3.780000e-01    1.450000e+00
  SP1a TC2vr  1 3.780000e-01    1.450000e+00
  SN6a TC2vr  1 3.660000e-01    1.600000e+00
  SN5a TC2vr  1 3.660000e-01    1.600000e+00
  SN4a TC2vr  1 3.660000e-01    1.600000e+00
  SN3a TC2vr  1 3.650000e-01    1.750000e+00
  SN2a TC2vr  1 3.650000e-01    1.750000e+00
  SN1a TC2vr  1 3.650000e-01    1.750000e+00
  SP6d TC2vr  1 4.230000e-01    9.810000e-01
  SP5d TC2vr  1 4.090000e-01    1.080000e+00
  SP4d TC2vr  1 4.090000e-01    1.080000e+00
  SP3d TC2vr  1 4.090000e-01    1.080000e+00
  SP2d TC2vr  1 4.040000e-01    1.130000e+00
  SP1d TC2vr  1 4.040000e-01    1.130000e+00
  SN6d TC2vr  1 3.940000e-01    1.290000e+00
  SN5d TC2vr  1 3.940000e-01    1.290000e+00
  SN4d TC2vr  1 3.940000e-01    1.290000e+00
  SN3d TC2vr  1 3.780000e-01    1.450000e+00
  SN2d TC2vr  1 3.780000e-01    1.450000e+00
  SN1d TC2vr  1 3.780000e-01    1.450000e+00
  SC6v TC3vr  1 3.660000e-01    1.600000e+00
  SC5v TC3vr  1 3.660000e-01    1.600000e+00
  SC4v TC3vr  1 3.650000e-01    1.750000e+00
  SP6a TC3vr  1 4.040000e-01    1.130000e+00
  SP5a TC3vr  1 3.940000e-01    1.290000e+00
  SP4a TC3vr  1 3.940000e-01    1.290000e+00
  SP3a TC3vr  1 3.940000e-01    1.290000e+00
  SP2a TC3vr  1 3.780000e-01    1.450000e+00
  SP1a TC3vr  1 3.780000e-01    1.450000e+00
  SN6a TC3vr  1 3.660000e-01    1.600000e+00
  SN5a TC3vr  1 3.650000e-01    1.750000e+00
  SN4a TC3vr  1 3.650000e-01    1.750000e+00
  SN3a TC3vr  1 3.650000e-01    1.750000e+00
  SN2a TC3vr  1 3.650000e-01    1.910000e+00
  SN1a TC3vr  1 3.650000e-01    1.910000e+00
  SP6d TC3vr  1 4.230000e-01    9.810000e-01
  SP5d TC3vr  1 4.090000e-01    1.080000e+00
  SP4d TC3vr  1 4.090000e-01    1.080000e+00
  SP3d TC3vr  1 4.090000e-01    1.080000e+00
  SP2d TC3vr  1 4.040000e-01    1.130000e+00
  SP1d TC3vr  1 4.040000e-01    1.130000e+00
  SN6d TC3vr  1 3.940000e-01    1.290000e+00
  SN5d TC3vr  1 3.780000e-01    1.450000e+00
  SN4d TC3vr  1 3.780000e-01    1.450000e+00
  SN3d TC3vr  1 3.780000e-01    1.450000e+00
  SN2d TC3vr  1 3.660000e-01    1.600000e+00
  SN1d TC3vr  1 3.660000e-01    1.600000e+00
  SC6v TC4vr  1 3.650000e-01    1.750000e+00
  SC5v TC4vr  1 3.650000e-01    1.750000e+00
  SP6a TC4vr  1 3.940000e-01    1.290000e+00
  SP5a TC4vr  1 3.780000e-01    1.450000e+00
  SP4a TC4vr  1 3.780000e-01    1.450000e+00
  SP3a TC4vr  1 3.660000e-01    1.600000e+00
  SP2a TC4vr  1 3.660000e-01    1.600000e+00
  SP1a TC4vr  1 3.660000e-01    1.600000e+00
  SN6a TC4vr  1 3.650000e-01    1.750000e+00
  SN5a TC4vr  1 3.650000e-01    1.750000e+00
  SN4a TC4vr  1 3.650000e-01    1.910000e+00
  SN3a TC4vr  1 3.650000e-01    1.910000e+00
  SN2a TC4vr  1 3.650000e-01    1.910000e+00
  SN1a TC4vr  1 3.650000e-01    2.110000e+00
  SP6d TC4vr  1 4.090000e-01    1.080000e+00
  SP5d TC4vr  1 4.040000e-01    1.130000e+00
  SP4d TC4vr  1 4.040000e-01    1.130000e+00
  SP3d TC4vr  1 3.940000e-01    1.290000e+00
  SP2d TC4vr  1 3.940000e-01    1.290000e+00
  SP1d TC4vr  1 3.940000e-01    1.290000e+00
  SN6d TC4vr  1 3.780000e-01    1.450000e+00
  SN5d TC4vr  1 3.780000e-01    1.450000e+00
  SN4d TC4vr  1 3.660000e-01    1.600000e+00
  SN3d TC4vr  1 3.660000e-01    1.600000e+00
  SN2d TC4vr  1 3.660000e-01    1.600000e+00
  SN1d TC4vr  1 3.650000e-01    1.750000e+00
  SC6v TC5vr  1 3.650000e-01    1.750000e+00
  SP6a TC5vr  1 3.780000e-01    1.450000e+00
  SP5a TC5vr  1 3.660000e-01    1.600000e+00
  SP4a TC5vr  1 3.660000e-01    1.600000e+00
  SP3a TC5vr  1 3.650000e-01    1.750000e+00
  SP2a TC5vr  1 3.650000e-01    1.750000e+00
  SP1a TC5vr  1 3.650000e-01    1.750000e+00
  SN6a TC5vr  1 3.650000e-01    1.910000e+00
  SN5a TC5vr  1 3.650000e-01    1.910000e+00
  SN4a TC5vr  1 3.650000e-01    1.910000e+00
  SN3a TC5vr  1 3.650000e-01    1.910000e+00
  SN2a TC5vr  1 3.650000e-01    1.910000e+00
  SN1a TC5vr  1 3.650000e-01    2.110000e+00
  SP6d TC5vr  1 4.040000e-01    1.130000e+00
  SP5d TC5vr  1 3.940000e-01    1.290000e+00
  SP4d TC5vr  1 3.940000e-01    1.290000e+00
  SP3d TC5vr  1 3.780000e-01    1.450000e+00
  SP2d TC5vr  1 3.780000e-01    1.450000e+00
  SP1d TC5vr  1 3.780000e-01    1.450000e+00
  SN6d TC5vr  1 3.660000e-01    1.600000e+00
  SN5d TC5vr  1 3.660000e-01    1.600000e+00
  SN4d TC5vr  1 3.660000e-01    1.600000e+00
  SN3d TC5vr  1 3.660000e-01    1.600000e+00
  SN2d TC5vr  1 3.660000e-01    1.600000e+00
  SN1d TC5vr  1 3.650000e-01    1.750000e+00
  SP6a TC6vr  1 3.660000e-01    1.600000e+00
  SP5a TC6vr  1 3.660000e-01    1.600000e+00
  SP4a TC6vr  1 3.650000e-01    1.750000e+00
  SP3a TC6vr  1 3.650000e-01    1.910000e+00
  SP2a TC6vr  1 3.650000e-01    1.910000e+00
  SP1a TC6vr  1 3.650000e-01    1.910000e+00
  SN6a TC6vr  1 3.650000e-01    2.110000e+00
  SN5a TC6vr  1 3.650000e-01    2.110000e+00
  SN4a TC6vr  1 3.650000e-01    2.110000e+00
  SN3a TC6vr  1 3.650000e-01    2.110000e+00
  SN2a TC6vr  1 3.650000e-01    2.110000e+00
  SN1a TC6vr  1 3.650000e-01    2.340000e+00
  SP6d TC6vr  1 3.940000e-01    1.290000e+00
  SP5d TC6vr  1 3.940000e-01    1.290000e+00
  SP4d TC6vr  1 3.780000e-01    1.450000e+00
  SP3d TC6vr  1 3.660000e-01    1.600000e+00
  SP2d TC6vr  1 3.660000e-01    1.600000e+00
  SP1d TC6vr  1 3.660000e-01    1.600000e+00
  SN6d TC6vr  1 3.650000e-01    1.750000e+00
  SN5d TC6vr  1 3.650000e-01    1.750000e+00
  SN4d TC6vr  1 3.650000e-01    1.750000e+00
  SN3d TC6vr  1 3.650000e-01    1.750000e+00
  SN2d TC6vr  1 3.650000e-01    1.750000e+00
  SN1d TC6vr  1 3.650000e-01    1.910000e+00
  SP6a TN1ar  1 3.780000e-01    1.450000e+00
  SP5a TN1ar  1 3.780000e-01    1.450000e+00
  SP4a TN1ar  1 3.660000e-01    1.600000e+00
  SP3a TN1ar  1 3.650000e-01    1.750000e+00
  SP2a TN1ar  1 3.650000e-01    1.750000e+00
  SP1a TN1ar  1 3.650000e-01    1.750000e+00
  SN6a TN1ar  1 3.650000e-01    1.750000e+00
  SN5a TN1ar  1 3.650000e-01    1.750000e+00
  SN4a TN1ar  1 3.650000e-01    1.750000e+00
  SN3a TN1ar  1 3.650000e-01    1.750000e+00
  SN2a TN1ar  1 3.650000e-01    1.750000e+00
  SP6d TN1ar  1 3.780000e-01    1.450000e+00
  SP5d TN1ar  1 3.780000e-01    1.450000e+00
  SP4d TN1ar  1 3.660000e-01    1.600000e+00
  SP3d TN1ar  1 3.650000e-01    1.750000e+00
  SP2d TN1ar  1 3.650000e-01    2.110000e+00
  SP1d TN1ar  1 3.650000e-01    2.110000e+00
  SN6d TN1ar  1 3.650000e-01    2.110000e+00
  SN5d TN1ar  1 3.650000e-01    2.110000e+00
  SN4d TN1ar  1 3.650000e-01    2.110000e+00
  SN3d TN1ar  1 3.650000e-01    2.110000e+00
  SN2d TN1ar  1 3.650000e-01    2.110000e+00
  SN1d TN1ar  1 3.650000e-01    2.340000e+00
  SP6a TN2ar  1 3.660000e-01    1.600000e+00
  SP5a TN2ar  1 3.660000e-01    1.600000e+00
  SP4a TN2ar  1 3.650000e-01    1.750000e+00
  SP3a TN2ar  1 3.650000e-01    1.750000e+00
  SP2a TN2ar  1 3.650000e-01    1.750000e+00
  SP1a TN2ar  1 3.650000e-01    1.750000e+00
  SN6a TN2ar  1 3.650000e-01    1.750000e+00
  SN5a TN2ar  1 3.650000e-01    1.910000e+00
  SN4a TN2ar  1 3.650000e-01    1.910000e+00
  SN3a TN2ar  1 3.650000e-01    1.910000e+00
  SP6d TN2ar  1 3.660000e-01    1.600000e+00
  SP5d TN2ar  1 3.660000e-01    1.600000e+00
  SP4d TN2ar  1 3.650000e-01    1.750000e+00
  SP3d TN2ar  1 3.650000e-01    2.110000e+00
  SP2d TN2ar  1 3.650000e-01    2.110000e+00
  SP1d TN2ar  1 3.650000e-01    2.110000e+00
  SN6d TN2ar  1 3.650000e-01    2.110000e+00
  SN5d TN2ar  1 3.650000e-01    2.340000e+00
  SN4d TN2ar  1 3.650000e-01    2.340000e+00
  SN3d TN2ar  1 3.650000e-01    2.340000e+00
  SN2d TN2ar  1 3.650000e-01    2.340000e+00
  SP6a TN3ar  1 3.650000e-01    1.750000e+00
  SP5a TN3ar  1 3.650000e-01    1.750000e+00
  SP4a TN3ar  1 3.650000e-01    1.750000e+00
  SP3a TN3ar  1 3.650000e-01    1.750000e+00
  SP2a TN3ar  1 3.650000e-01    1.750000e+00
  SP1a TN3ar  1 3.650000e-01    1.750000e+00
  SN6a TN3ar  1 3.650000e-01    1.910000e+00
  SN5a TN3ar  1 3.650000e-01    1.910000e+00
  SN4a TN3ar  1 3.650000e-01    1.910000e+00
  SP6d TN3ar  1 3.650000e-01    1.750000e+00
  SP5d TN3ar  1 3.650000e-01    1.750000e+00
  SP4d TN3ar  1 3.650000e-01    2.110000e+00
  SP3d TN3ar  1 3.650000e-01    2.110000e+00
  SP2d TN3ar  1 3.650000e-01    2.110000e+00
  SP1d TN3ar  1 3.650000e-01    2.110000e+00
  SN6d TN3ar  1 3.650000e-01    2.340000e+00
  SN5d TN3ar  1 3.650000e-01    2.340000e+00
  SN4d TN3ar  1 3.650000e-01    2.340000e+00
  SN3d TN3ar  1 3.650000e-01    2.340000e+00
  SP6a TN4ar  1 3.650000e-01    1.750000e+00
  SP5a TN4ar  1 3.650000e-01    1.910000e+00
  SP4a TN4ar  1 3.650000e-01    1.910000e+00
  SP3a TN4ar  1 3.650000e-01    1.910000e+00
  SP2a TN4ar  1 3.650000e-01    1.910000e+00
  SP1a TN4ar  1 3.650000e-01    2.110000e+00
  SN6a TN4ar  1 3.650000e-01    2.340000e+00
  SN5a TN4ar  1 3.650000e-01    2.110000e+00
  SP6d TN4ar  1 3.650000e-01    2.110000e+00
  SP5d TN4ar  1 3.650000e-01    2.340000e+00
  SP4d TN4ar  1 3.650000e-01    2.340000e+00
  SP3d TN4ar  1 3.650000e-01    2.340000e+00
  SP2d TN4ar  1 3.650000e-01    2.340000e+00
  SP1d TN4ar  1 3.650000e-01    2.570000e+00
  SN6d TN4ar  1 3.650000e-01    2.830000e+00
  SN5d TN4ar  1 3.650000e-01    2.570000e+00
  SN4d TN4ar  1 3.650000e-01    2.570000e+00
  SP6a TN5ar  1 3.650000e-01    1.910000e+00
  SP5a TN5ar  1 3.650000e-01    1.910000e+00
  SP4a TN5ar  1 3.650000e-01    1.910000e+00
  SP3a TN5ar  1 3.650000e-01    1.910000e+00
  SP2a TN5ar  1 3.650000e-01    2.110000e+00
  SP1a TN5ar  1 3.650000e-01    2.110000e+00
  SN6a TN5ar  1 3.650000e-01    2.340000e+00
  SP6d TN5ar  1 3.650000e-01    2.340000e+00
  SP5d TN5ar  1 3.650000e-01    2.340000e+00
  SP4d TN5ar  1 3.650000e-01    2.340000e+00
  SP3d TN5ar  1 3.650000e-01    2.340000e+00
  SP2d TN5ar  1 3.650000e-01    2.570000e+00
  SP1d TN5ar  1 3.650000e-01    2.570000e+00
  SN6d TN5ar  1 3.650000e-01    2.830000e+00
  SN5d TN5ar  1 3.650000e-01    2.570000e+00
  SP6a TN6ar  1 3.650000e-01    2.340000e+00
  SP5a TN6ar  1 3.650000e-01    2.110000e+00
  SP4a TN6ar  1 3.650000e-01    2.110000e+00
  SP3a TN6ar  1 3.650000e-01    2.110000e+00
  SP2a TN6ar  1 3.650000e-01    2.340000e+00
  SP1a TN6ar  1 3.650000e-01    2.340000e+00
  SP6d TN6ar  1 3.650000e-01    2.830000e+00
  SP5d TN6ar  1 3.650000e-01    2.570000e+00
  SP4d TN6ar  1 3.650000e-01    2.570000e+00
  SP3d TN6ar  1 3.650000e-01    2.570000e+00
  SP2d TN6ar  1 3.650000e-01    2.830000e+00
  SP1d TN6ar  1 3.650000e-01    2.830000e+00
  SN6d TN6ar  1 3.650000e-01    2.830000e+00
  SP6a TP1ar  1 3.650000e-01    2.570000e+00
  SP5a TP1ar  1 3.650000e-01    2.340000e+00
  SP4a TP1ar  1 3.650000e-01    2.340000e+00
  SP3a TP1ar  1 3.650000e-01    2.340000e+00
  SP2a TP1ar  1 3.650000e-01    2.340000e+00
  SP6d TP1ar  1 3.650000e-01    3.100000e+00
  SP5d TP1ar  1 3.650000e-01    2.830000e+00
  SP4d TP1ar  1 3.650000e-01    2.830000e+00
  SP3d TP1ar  1 3.650000e-01    2.830000e+00
  SP2d TP1ar  1 3.650000e-01    2.830000e+00
  SP1d TP1ar  1 3.650000e-01    2.830000e+00
  SP6a TP2ar  1 3.650000e-01    2.830000e+00
  SP5a TP2ar  1 3.650000e-01    2.570000e+00
  SP4a TP2ar  1 3.650000e-01    2.570000e+00
  SP3a TP2ar  1 3.650000e-01    2.570000e+00
  SP6d TP2ar  1 3.650000e-01    3.370000e+00
  SP5d TP2ar  1 3.650000e-01    3.100000e+00
  SP4d TP2ar  1 3.650000e-01    3.100000e+00
  SP3d TP2ar  1 3.650000e-01    3.100000e+00
  SP2d TP2ar  1 3.650000e-01    3.100000e+00
  SP6a TP3ar  1 3.650000e-01    2.830000e+00
  SP5a TP3ar  1 3.650000e-01    2.570000e+00
  SP4a TP3ar  1 3.650000e-01    2.570000e+00
  SP6d TP3ar  1 3.650000e-01    3.370000e+00
  SP5d TP3ar  1 3.650000e-01    3.100000e+00
  SP4d TP3ar  1 3.650000e-01    3.100000e+00
  SP3d TP3ar  1 3.650000e-01    3.100000e+00
  SP6a TP4ar  1 3.650000e-01    3.100000e+00
  SP5a TP4ar  1 3.650000e-01    2.830000e+00
  SP6d TP4ar  1 3.650000e-01    3.640000e+00
  SP5d TP4ar  1 3.650000e-01    3.370000e+00
  SP4d TP4ar  1 3.650000e-01    3.370000e+00
  SP6a TP5ar  1 3.650000e-01    3.370000e+00
  SP6d TP5ar  1 3.650000e-01    3.930000e+00
  SP5d TP5ar  1 3.650000e-01    3.640000e+00
  SP6d TP6ar  1 3.650000e-01    4.220000e+00
  SP6d TN1dr  1 3.780000e-01    1.450000e+00
  SP5d TN1dr  1 3.780000e-01    1.450000e+00
  SP4d TN1dr  1 3.660000e-01    1.600000e+00
  SP3d TN1dr  1 3.650000e-01    1.750000e+00
  SP2d TN1dr  1 3.650000e-01    1.750000e+00
  SP1d TN1dr  1 3.650000e-01    1.750000e+00
  SN6d TN1dr  1 3.650000e-01    1.750000e+00
  SN5d TN1dr  1 3.650000e-01    1.750000e+00
  SN4d TN1dr  1 3.650000e-01    1.750000e+00
  SN3d TN1dr  1 3.650000e-01    1.750000e+00
  SN2d TN1dr  1 3.650000e-01    1.750000e+00
  SP6d TN2dr  1 3.660000e-01    1.600000e+00
  SP5d TN2dr  1 3.660000e-01    1.600000e+00
  SP4d TN2dr  1 3.650000e-01    1.750000e+00
  SP3d TN2dr  1 3.650000e-01    1.750000e+00
  SP2d TN2dr  1 3.650000e-01    1.750000e+00
  SP1d TN2dr  1 3.650000e-01    1.750000e+00
  SN6d TN2dr  1 3.650000e-01    1.750000e+00
  SN5d TN2dr  1 3.650000e-01    1.910000e+00
  SN4d TN2dr  1 3.650000e-01    1.910000e+00
  SN3d TN2dr  1 3.650000e-01    1.910000e+00
  SP6d TN3dr  1 3.650000e-01    1.750000e+00
  SP5d TN3dr  1 3.650000e-01    1.750000e+00
  SP4d TN3dr  1 3.650000e-01    1.750000e+00
  SP3d TN3dr  1 3.650000e-01    1.750000e+00
  SP2d TN3dr  1 3.650000e-01    1.750000e+00
  SP1d TN3dr  1 3.650000e-01    1.750000e+00
  SN6d TN3dr  1 3.650000e-01    1.910000e+00
  SN5d TN3dr  1 3.650000e-01    1.910000e+00
  SN4d TN3dr  1 3.650000e-01    1.910000e+00
  SP6d TN4dr  1 3.650000e-01    1.750000e+00
  SP5d TN4dr  1 3.650000e-01    1.910000e+00
  SP4d TN4dr  1 3.650000e-01    1.910000e+00
  SP3d TN4dr  1 3.650000e-01    1.910000e+00
  SP2d TN4dr  1 3.650000e-01    1.910000e+00
  SP1d TN4dr  1 3.650000e-01    2.110000e+00
  SN6d TN4dr  1 3.650000e-01    2.340000e+00
  SN5d TN4dr  1 3.650000e-01    2.110000e+00
  SP6d TN5dr  1 3.650000e-01    1.910000e+00
  SP5d TN5dr  1 3.650000e-01    1.910000e+00
  SP4d TN5dr  1 3.650000e-01    1.910000e+00
  SP3d TN5dr  1 3.650000e-01    1.910000e+00
  SP2d TN5dr  1 3.650000e-01    2.110000e+00
  SP1d TN5dr  1 3.650000e-01    2.110000e+00
  SN6d TN5dr  1 3.650000e-01    2.340000e+00
  SP6d TN6dr  1 3.650000e-01    2.340000e+00
  SP5d TN6dr  1 3.650000e-01    2.110000e+00
  SP4d TN6dr  1 3.650000e-01    2.110000e+00
  SP3d TN6dr  1 3.650000e-01    2.110000e+00
  SP2d TN6dr  1 3.650000e-01    2.340000e+00
  SP1d TN6dr  1 3.650000e-01    2.340000e+00
  SP6d TP1dr  1 3.650000e-01    2.570000e+00
  SP5d TP1dr  1 3.650000e-01    2.340000e+00
  SP4d TP1dr  1 3.650000e-01    2.340000e+00
  SP3d TP1dr  1 3.650000e-01    2.340000e+00
  SP2d TP1dr  1 3.650000e-01    2.340000e+00
  SP6d TP2dr  1 3.650000e-01    2.830000e+00
  SP5d TP2dr  1 3.650000e-01    2.570000e+00
  SP4d TP2dr  1 3.650000e-01    2.570000e+00
  SP3d TP2dr  1 3.650000e-01    2.570000e+00
  SP6d TP3dr  1 3.650000e-01    2.830000e+00
  SP5d TP3dr  1 3.650000e-01    2.570000e+00
  SP4d TP3dr  1 3.650000e-01    2.570000e+00
  SP6d TP4dr  1 3.650000e-01    3.100000e+00
  SP5d TP4dr  1 3.650000e-01    2.830000e+00
  SP6d TP5dr  1 3.650000e-01    3.370000e+00
  SP6r TP6dr  1 3.650000e-01    3.640000e+00
  SP6r TP5dr  1 3.650000e-01    3.370000e+00
  SP6r TP4dr  1 3.650000e-01    3.100000e+00
  SP6r TP3dr  1 3.650000e-01    2.830000e+00
  SP6r TP2dr  1 3.650000e-01    2.830000e+00
  SP6r TP1dr  1 3.650000e-01    2.570000e+00
  SP6r TN6dr  1 3.650000e-01    2.340000e+00
  SP6r TN5dr  1 3.650000e-01    1.910000e+00
  SP6r TN4dr  1 3.650000e-01    1.750000e+00
  SP6r TN3dr  1 3.660000e-01    1.600000e+00
  SP6r TN2dr  1 3.780000e-01    1.450000e+00
  SP6r TN1dr  1 3.940000e-01    1.290000e+00
  SP6r TP6ar  1 3.650000e-01    3.640000e+00
  SP6r TP5ar  1 3.650000e-01    3.370000e+00
  SP6r TP4ar  1 3.650000e-01    3.100000e+00
  SP6r TP3ar  1 3.650000e-01    2.830000e+00
  SP6r TP2ar  1 3.650000e-01    2.830000e+00
  SP6r TP1ar  1 3.650000e-01    2.570000e+00
  SP6r TN6ar  1 3.650000e-01    2.340000e+00
  SP6r TN5ar  1 3.650000e-01    1.910000e+00
  SP6r TN4ar  1 3.650000e-01    1.750000e+00
  SP6r TN3ar  1 3.660000e-01    1.600000e+00
  SP6r TN2ar  1 3.780000e-01    1.450000e+00
  SP6r TN1ar  1 3.940000e-01    1.290000e+00
  SP5r TP5dr  1 3.650000e-01    3.100000e+00
  SP5r TP4dr  1 3.650000e-01    2.830000e+00
  SP5r TP3dr  1 3.650000e-01    2.570000e+00
  SP5r TP2dr  1 3.650000e-01    2.570000e+00
  SP5r TP1dr  1 3.650000e-01    2.340000e+00
  SP5r TN6dr  1 3.650000e-01    2.110000e+00
  SP5r TN5dr  1 3.650000e-01    1.910000e+00
  SP5r TN4dr  1 3.650000e-01    1.910000e+00
  SP5r TN3dr  1 3.660000e-01    1.600000e+00
  SP5r TN2dr  1 3.780000e-01    1.450000e+00
  SP5r TN1dr  1 3.940000e-01    1.290000e+00
  SP5r TP5ar  1 3.650000e-01    3.100000e+00
  SP5r TP4ar  1 3.650000e-01    2.830000e+00
  SP5r TP3ar  1 3.650000e-01    2.570000e+00
  SP5r TP2ar  1 3.650000e-01    2.570000e+00
  SP5r TP1ar  1 3.650000e-01    2.340000e+00
  SP5r TN6ar  1 3.650000e-01    2.110000e+00
  SP5r TN5ar  1 3.650000e-01    1.910000e+00
  SP5r TN4ar  1 3.650000e-01    1.910000e+00
  SP5r TN3ar  1 3.660000e-01    1.600000e+00
  SP5r TN2ar  1 3.780000e-01    1.450000e+00
  SP5r TN1ar  1 3.940000e-01    1.290000e+00
  SP4r TP4dr  1 3.650000e-01    2.830000e+00
  SP4r TP3dr  1 3.650000e-01    2.570000e+00
  SP4r TP2dr  1 3.650000e-01    2.570000e+00
  SP4r TP1dr  1 3.650000e-01    2.340000e+00
  SP4r TN6dr  1 3.650000e-01    2.110000e+00
  SP4r TN5dr  1 3.650000e-01    1.910000e+00
  SP4r TN4dr  1 3.650000e-01    1.910000e+00
  SP4r TN3dr  1 3.650000e-01    1.750000e+00
  SP4r TN2dr  1 3.660000e-01    1.600000e+00
  SP4r TN1dr  1 3.780000e-01    1.450000e+00
  SP4r TP4ar  1 3.650000e-01    2.830000e+00
  SP4r TP3ar  1 3.650000e-01    2.570000e+00
  SP4r TP2ar  1 3.650000e-01    2.570000e+00
  SP4r TP1ar  1 3.650000e-01    2.340000e+00
  SP4r TN6ar  1 3.650000e-01    2.110000e+00
  SP4r TN5ar  1 3.650000e-01    1.910000e+00
  SP4r TN4ar  1 3.650000e-01    1.910000e+00
  SP4r TN3ar  1 3.650000e-01    1.750000e+00
  SP4r TN2ar  1 3.660000e-01    1.600000e+00
  SP4r TN1ar  1 3.780000e-01    1.450000e+00
  SP3r TP3dr  1 3.650000e-01    2.570000e+00
  SP3r TP2dr  1 3.650000e-01    2.570000e+00
  SP3r TP1dr  1 3.650000e-01    2.340000e+00
  SP3r TN6dr  1 3.650000e-01    2.110000e+00
  SP3r TN5dr  1 3.650000e-01    1.910000e+00
  SP3r TN4dr  1 3.650000e-01    1.910000e+00
  SP3r TN3dr  1 3.650000e-01    1.750000e+00
  SP3r TN2dr  1 3.650000e-01    1.750000e+00
  SP3r TN1dr  1 3.660000e-01    1.600000e+00
  SP3r TP3ar  1 3.650000e-01    2.570000e+00
  SP3r TP2ar  1 3.650000e-01    2.570000e+00
  SP3r TP1ar  1 3.650000e-01    2.340000e+00
  SP3r TN6ar  1 3.650000e-01    2.110000e+00
  SP3r TN5ar  1 3.650000e-01    1.910000e+00
  SP3r TN4ar  1 3.650000e-01    1.910000e+00
  SP3r TN3ar  1 3.650000e-01    1.750000e+00
  SP3r TN2ar  1 3.650000e-01    1.750000e+00
  SP3r TN1ar  1 3.660000e-01    1.600000e+00
  SP2r TP2dr  1 3.650000e-01    2.570000e+00
  SP2r TP1dr  1 3.650000e-01    2.340000e+00
  SP2r TN6dr  1 3.650000e-01    2.340000e+00
  SP2r TN5dr  1 3.650000e-01    2.110000e+00
  SP2r TN4dr  1 3.650000e-01    1.910000e+00
  SP2r TN3dr  1 3.650000e-01    1.750000e+00
  SP2r TN2dr  1 3.650000e-01    1.750000e+00
  SP2r TN1dr  1 3.650000e-01    1.750000e+00
  SP2r TP2ar  1 3.650000e-01    2.570000e+00
  SP2r TP1ar  1 3.650000e-01    2.340000e+00
  SP2r TN6ar  1 3.650000e-01    2.340000e+00
  SP2r TN5ar  1 3.650000e-01    2.110000e+00
  SP2r TN4ar  1 3.650000e-01    1.910000e+00
  SP2r TN3ar  1 3.650000e-01    1.750000e+00
  SP2r TN2ar  1 3.650000e-01    1.750000e+00
  SP2r TN1ar  1 3.650000e-01    1.750000e+00
  SP1r TP1dr  1 3.650000e-01    2.340000e+00
  SP1r TN6dr  1 3.650000e-01    2.340000e+00
  SP1r TN5dr  1 3.650000e-01    2.110000e+00
  SP1r TN4dr  1 3.650000e-01    2.110000e+00
  SP1r TN3dr  1 3.650000e-01    1.750000e+00
  SP1r TN2dr  1 3.650000e-01    1.750000e+00
  SP1r TN1dr  1 3.650000e-01    1.750000e+00
  SP1r TP1ar  1 3.650000e-01    2.340000e+00
  SP1r TN6ar  1 3.650000e-01    2.340000e+00
  SP1r TN5ar  1 3.650000e-01    2.110000e+00
  SP1r TN4ar  1 3.650000e-01    2.110000e+00
  SP1r TN3ar  1 3.650000e-01    1.750000e+00
  SP1r TN2ar  1 3.650000e-01    1.750000e+00
  SP1r TN1ar  1 3.650000e-01    1.750000e+00
  SN6r TN6dr  1 3.650000e-01    2.340000e+00
  SN6r TN5dr  1 3.650000e-01    2.340000e+00
  SN6r TN4dr  1 3.650000e-01    2.340000e+00
  SN6r TN3dr  1 3.650000e-01    1.910000e+00
  SN6r TN2dr  1 3.650000e-01    1.750000e+00
  SN6r TN1dr  1 3.650000e-01    1.750000e+00
  SN6r TN6ar  1 3.650000e-01    2.340000e+00
  SN6r TN5ar  1 3.650000e-01    2.340000e+00
  SN6r TN4ar  1 3.650000e-01    2.340000e+00
  SN6r TN3ar  1 3.650000e-01    1.910000e+00
  SN6r TN2ar  1 3.650000e-01    1.750000e+00
  SN6r TN1ar  1 3.650000e-01    1.750000e+00
  SN5r TN5dr  1 3.650000e-01    2.110000e+00
  SN5r TN4dr  1 3.650000e-01    2.110000e+00
  SN5r TN3dr  1 3.650000e-01    1.910000e+00
  SN5r TN2dr  1 3.650000e-01    1.910000e+00
  SN5r TN1dr  1 3.650000e-01    1.750000e+00
  SN5r TN5ar  1 3.650000e-01    2.110000e+00
  SN5r TN4ar  1 3.650000e-01    2.110000e+00
  SN5r TN3ar  1 3.650000e-01    1.910000e+00
  SN5r TN2ar  1 3.650000e-01    1.910000e+00
  SN5r TN1ar  1 3.650000e-01    1.750000e+00
  SN4r TN4dr  1 3.650000e-01    2.110000e+00
  SN4r TN3dr  1 3.650000e-01    1.910000e+00
  SN4r TN2dr  1 3.650000e-01    1.910000e+00
  SN4r TN1dr  1 3.650000e-01    1.750000e+00
  SN4r TN4ar  1 3.650000e-01    2.110000e+00
  SN4r TN3ar  1 3.650000e-01    1.910000e+00
  SN4r TN2ar  1 3.650000e-01    1.910000e+00
  SN4r TN1ar  1 3.650000e-01    1.750000e+00
  SN3r TN3dr  1 3.650000e-01    1.910000e+00
  SN3r TN2dr  1 3.650000e-01    1.910000e+00
  SN3r TN1dr  1 3.650000e-01    1.750000e+00
  SN3r TN3ar  1 3.650000e-01    1.910000e+00
  SN3r TN2ar  1 3.650000e-01    1.910000e+00
  SN3r TN1ar  1 3.650000e-01    1.750000e+00
  SN2r TN2dr  1 3.650000e-01    1.910000e+00
  SN2r TN1dr  1 3.650000e-01    1.750000e+00
  SN2r TN2ar  1 3.650000e-01    1.910000e+00
  SN2r TN1ar  1 3.650000e-01    1.750000e+00
  SN1r TN1dr  1 3.650000e-01    1.910000e+00
  SN1r TN1ar  1 3.650000e-01    1.910000e+00
  SC6r TC6vr  1 3.650000e-01    2.110000e+00
  SC6r TC5vr  1 3.650000e-01    1.910000e+00
  SC6r TC4vr  1 3.650000e-01    1.910000e+00
  SC6r TC3vr  1 3.650000e-01    1.750000e+00
  SC6r TC2vr  1 3.660000e-01    1.600000e+00
  SC6r TC1vr  1 3.780000e-01    1.450000e+00
  SC6r TX4vr  1 3.650000e-01    1.910000e+00
  SC6r TX3vr  1 3.650000e-01    1.910000e+00
  SC6r TX2vr  1 3.650000e-01    1.910000e+00
  SC6r TX1vr  1 3.650000e-01    1.910000e+00
  SC6r TC6er  1 3.650000e-01    2.110000e+00
  SC6r TC5er  1 3.650000e-01    1.910000e+00
  SC6r TC4er  1 3.650000e-01    1.910000e+00
  SC6r TC3er  1 3.650000e-01    1.750000e+00
  SC6r TC2er  1 3.660000e-01    1.600000e+00
  SC6r TC1er  1 3.780000e-01    1.450000e+00
  SC6r TX4er  1 3.650000e-01    1.910000e+00
  SC6r TX3er  1 3.650000e-01    1.910000e+00
  SC6r TX2er  1 3.650000e-01    1.910000e+00
  SC6r TX1er  1 3.650000e-01    1.910000e+00
  SC5r TC5vr  1 3.650000e-01    1.910000e+00
  SC5r TC4vr  1 3.650000e-01    1.910000e+00
  SC5r TC3vr  1 3.650000e-01    1.750000e+00
  SC5r TC2vr  1 3.660000e-01    1.600000e+00
  SC5r TC1vr  1 3.660000e-01    1.600000e+00
  SC5r TX4vr  1 3.650000e-01    1.750000e+00
  SC5r TX3vr  1 3.650000e-01    1.750000e+00
  SC5r TX2vr  1 3.650000e-01    1.750000e+00
  SC5r TX1vr  1 3.650000e-01    1.910000e+00
  SC5r TC5er  1 3.650000e-01    1.910000e+00
  SC5r TC4er  1 3.650000e-01    1.910000e+00
  SC5r TC3er  1 3.650000e-01    1.750000e+00
  SC5r TC2er  1 3.660000e-01    1.600000e+00
  SC5r TC1er  1 3.660000e-01    1.600000e+00
  SC5r TX4er  1 3.650000e-01    1.750000e+00
  SC5r TX3er  1 3.650000e-01    1.750000e+00
  SC5r TX2er  1 3.650000e-01    1.750000e+00
  SC5r TX1er  1 3.650000e-01    1.910000e+00
  SC4r TC4vr  1 3.650000e-01    1.910000e+00
  SC4r TC3vr  1 3.650000e-01    1.910000e+00
  SC4r TC2vr  1 3.650000e-01    1.750000e+00
  SC4r TC1vr  1 3.660000e-01    1.600000e+00
  SC4r TX4vr  1 3.650000e-01    1.750000e+00
  SC4r TX3vr  1 3.650000e-01    1.750000e+00
  SC4r TX2vr  1 3.650000e-01    1.750000e+00
  SC4r TX1vr  1 3.650000e-01    1.910000e+00
  SC4r TC4er  1 3.650000e-01    1.910000e+00
  SC4r TC3er  1 3.650000e-01    1.910000e+00
  SC4r TC2er  1 3.650000e-01    1.750000e+00
  SC4r TC1er  1 3.660000e-01    1.600000e+00
  SC4r TX4er  1 3.650000e-01    1.750000e+00
  SC4r TX3er  1 3.650000e-01    1.750000e+00
  SC4r TX2er  1 3.650000e-01    1.750000e+00
  SC4r TX1er  1 3.650000e-01    1.910000e+00
  SC3r TC3vr  1 3.650000e-01    1.910000e+00
  SC3r TC2vr  1 3.650000e-01    1.910000e+00
  SC3r TC1vr  1 3.650000e-01    1.910000e+00
  SC3r TX4vr  1 3.650000e-01    1.750000e+00
  SC3r TX3vr  1 3.650000e-01    1.750000e+00
  SC3r TX2vr  1 3.650000e-01    1.750000e+00
  SC3r TX1vr  1 3.650000e-01    1.910000e+00
  SC3r TC3er  1 3.650000e-01    1.910000e+00
  SC3r TC2er  1 3.650000e-01    1.910000e+00
  SC3r TC1er  1 3.650000e-01    1.910000e+00
  SC3r TX4er  1 3.650000e-01    1.750000e+00
  SC3r TX3er  1 3.650000e-01    1.750000e+00
  SC3r TX2er  1 3.650000e-01    1.750000e+00
  SC3r TX1er  1 3.650000e-01    1.910000e+00
  SC2r TC2vr  1 3.650000e-01    1.910000e+00
  SC2r TC1vr  1 3.650000e-01    2.110000e+00
  SC2r TX4vr  1 3.780000e-01    1.450000e+00
  SC2r TX3vr  1 3.650000e-01    1.750000e+00
  SC2r TX2vr  1 3.650000e-01    1.750000e+00
  SC2r TX1vr  1 3.650000e-01    1.750000e+00
  SC2r TC2er  1 3.650000e-01    1.910000e+00
  SC2r TC1er  1 3.650000e-01    2.110000e+00
  SC2r TX4er  1 3.780000e-01    1.450000e+00
  SC2r TX3er  1 3.650000e-01    1.750000e+00
  SC2r TX2er  1 3.650000e-01    1.750000e+00
  SC2r TX1er  1 3.650000e-01    1.750000e+00
  SC1r TC1vr  1 3.650000e-01    1.910000e+00
  SC1r TX4vr  1 3.780000e-01    1.450000e+00
  SC1r TX3vr  1 3.650000e-01    1.750000e+00
  SC1r TX2vr  1 3.650000e-01    1.750000e+00
  SC1r TX1vr  1 3.650000e-01    1.750000e+00
  SC1r TC1er  1 3.650000e-01    1.910000e+00
  SC1r TX4er  1 3.780000e-01    1.450000e+00
  SC1r TX3er  1 3.650000e-01    1.750000e+00
  SC1r TX2er  1 3.650000e-01    1.750000e+00
  SC1r TX1er  1 3.650000e-01    1.750000e+00
  SX4r TX4vr  1 3.650000e-01    1.910000e+00
  SX4r TX3vr  1 3.650000e-01    1.910000e+00
  SX4r TX2vr  1 3.650000e-01    1.910000e+00
  SX4r TX1vr  1 3.650000e-01    1.910000e+00
  SX4r TX4er  1 3.650000e-01    1.910000e+00
  SX4r TX3er  1 3.650000e-01    1.910000e+00
  SX4r TX2er  1 3.650000e-01    1.910000e+00
  SX4r TX1er  1 3.650000e-01    1.910000e+00
  SX3r TX3vr  1 3.650000e-01    1.910000e+00
  SX3r TX2vr  1 3.650000e-01    2.110000e+00
  SX3r TX1vr  1 3.650000e-01    2.110000e+00
  SX3r TX3er  1 3.650000e-01    1.910000e+00
  SX3r TX2er  1 3.650000e-01    2.110000e+00
  SX3r TX1er  1 3.650000e-01    2.110000e+00
  SX2r TX2vr  1 3.650000e-01    2.110000e+00
  SX2r TX1vr  1 3.650000e-01    2.110000e+00
  SX2r TX2er  1 3.650000e-01    2.110000e+00
  SX2r TX1er  1 3.650000e-01    2.110000e+00
  SX1r TX1vr  1 3.650000e-01    2.340000e+00
  SX1r TX1er  1 3.650000e-01    2.340000e+00
  SP6r TC6vr  1 3.660000e-01    1.600000e+00
  SP6r TC5vr  1 3.780000e-01    1.450000e+00
  SP6r TC4vr  1 3.940000e-01    1.290000e+00
  SP6r TC3vr  1 4.040000e-01    1.130000e+00
  SP6r TC2vr  1 4.040000e-01    1.130000e+00
  SP6r TC1vr  1 4.230000e-01    9.810000e-01
  SP6r TX4vr  1 3.650000e-01    1.750000e+00
  SP6r TX3vr  1 3.650000e-01    1.750000e+00
  SP6r TX2vr  1 3.660000e-01    1.600000e+00
  SP6r TX1vr  1 3.780000e-01    1.450000e+00
  SP6r TC6er  1 3.660000e-01    1.600000e+00
  SP6r TC5er  1 3.780000e-01    1.450000e+00
  SP6r TC4er  1 3.940000e-01    1.290000e+00
  SP6r TC3er  1 4.040000e-01    1.130000e+00
  SP6r TC2er  1 4.040000e-01    1.130000e+00
  SP6r TC1er  1 4.230000e-01    9.810000e-01
  SP6r TX4er  1 3.650000e-01    1.750000e+00
  SP6r TX3er  1 3.650000e-01    1.750000e+00
  SP6r TX2er  1 3.660000e-01    1.600000e+00
  SP6r TX1er  1 3.780000e-01    1.450000e+00
  SP5r TC6vr  1 3.660000e-01    1.600000e+00
  SP5r TC5vr  1 3.660000e-01    1.600000e+00
  SP5r TC4vr  1 3.780000e-01    1.450000e+00
  SP5r TC3vr  1 3.940000e-01    1.290000e+00
  SP5r TC2vr  1 3.940000e-01    1.290000e+00
  SP5r TC1vr  1 4.040000e-01    1.130000e+00
  SP5r TX4vr  1 3.650000e-01    1.910000e+00
  SP5r TX3vr  1 3.650000e-01    1.750000e+00
  SP5r TX2vr  1 3.650000e-01    1.750000e+00
  SP5r TX1vr  1 3.780000e-01    1.450000e+00
  SP5r TC6er  1 3.660000e-01    1.600000e+00
  SP5r TC5er  1 3.660000e-01    1.600000e+00
  SP5r TC4er  1 3.780000e-01    1.450000e+00
  SP5r TC3er  1 3.940000e-01    1.290000e+00
  SP5r TC2er  1 3.940000e-01    1.290000e+00
  SP5r TC1er  1 4.040000e-01    1.130000e+00
  SP5r TX4er  1 3.650000e-01    1.910000e+00
  SP5r TX3er  1 3.650000e-01    1.750000e+00
  SP5r TX2er  1 3.650000e-01    1.750000e+00
  SP5r TX1er  1 3.780000e-01    1.450000e+00
  SP4r TC6vr  1 3.650000e-01    1.750000e+00
  SP4r TC5vr  1 3.660000e-01    1.600000e+00
  SP4r TC4vr  1 3.780000e-01    1.450000e+00
  SP4r TC3vr  1 3.940000e-01    1.290000e+00
  SP4r TC2vr  1 3.940000e-01    1.290000e+00
  SP4r TC1vr  1 4.040000e-01    1.130000e+00
  SP4r TX4vr  1 3.650000e-01    1.910000e+00
  SP4r TX3vr  1 3.650000e-01    1.750000e+00
  SP4r TX2vr  1 3.650000e-01    1.750000e+00
  SP4r TX1vr  1 3.660000e-01    1.600000e+00
  SP4r TC6er  1 3.650000e-01    1.750000e+00
  SP4r TC5er  1 3.660000e-01    1.600000e+00
  SP4r TC4er  1 3.780000e-01    1.450000e+00
  SP4r TC3er  1 3.940000e-01    1.290000e+00
  SP4r TC2er  1 3.940000e-01    1.290000e+00
  SP4r TC1er  1 4.040000e-01    1.130000e+00
  SP4r TX4er  1 3.650000e-01    1.910000e+00
  SP4r TX3er  1 3.650000e-01    1.750000e+00
  SP4r TX2er  1 3.650000e-01    1.750000e+00
  SP4r TX1er  1 3.660000e-01    1.600000e+00
  SP3r TC6vr  1 3.650000e-01    1.910000e+00
  SP3r TC5vr  1 3.650000e-01    1.750000e+00
  SP3r TC4vr  1 3.660000e-01    1.600000e+00
  SP3r TC3vr  1 3.940000e-01    1.290000e+00
  SP3r TC2vr  1 3.940000e-01    1.290000e+00
  SP3r TC1vr  1 4.040000e-01    1.130000e+00
  SP3r TX4vr  1 3.650000e-01    1.910000e+00
  SP3r TX3vr  1 3.650000e-01    1.910000e+00
  SP3r TX2vr  1 3.650000e-01    1.750000e+00
  SP3r TX1vr  1 3.660000e-01    1.600000e+00
  SP3r TC6er  1 3.650000e-01    1.910000e+00
  SP3r TC5er  1 3.650000e-01    1.750000e+00
  SP3r TC4er  1 3.660000e-01    1.600000e+00
  SP3r TC3er  1 3.940000e-01    1.290000e+00
  SP3r TC2er  1 3.940000e-01    1.290000e+00
  SP3r TC1er  1 4.040000e-01    1.130000e+00
  SP3r TX4er  1 3.650000e-01    1.910000e+00
  SP3r TX3er  1 3.650000e-01    1.910000e+00
  SP3r TX2er  1 3.650000e-01    1.750000e+00
  SP3r TX1er  1 3.660000e-01    1.600000e+00
  SP2r TC6vr  1 3.650000e-01    1.910000e+00
  SP2r TC5vr  1 3.650000e-01    1.750000e+00
  SP2r TC4vr  1 3.660000e-01    1.600000e+00
  SP2r TC3vr  1 3.780000e-01    1.450000e+00
  SP2r TC2vr  1 3.780000e-01    1.450000e+00
  SP2r TC1vr  1 3.940000e-01    1.290000e+00
  SP2r TX4vr  1 3.650000e-01    1.910000e+00
  SP2r TX3vr  1 3.650000e-01    1.910000e+00
  SP2r TX2vr  1 3.650000e-01    1.750000e+00
  SP2r TX1vr  1 3.660000e-01    1.600000e+00
  SP2r TC6er  1 3.650000e-01    1.910000e+00
  SP2r TC5er  1 3.650000e-01    1.750000e+00
  SP2r TC4er  1 3.660000e-01    1.600000e+00
  SP2r TC3er  1 3.780000e-01    1.450000e+00
  SP2r TC2er  1 3.780000e-01    1.450000e+00
  SP2r TC1er  1 3.940000e-01    1.290000e+00
  SP2r TX4er  1 3.650000e-01    1.910000e+00
  SP2r TX3er  1 3.650000e-01    1.910000e+00
  SP2r TX2er  1 3.650000e-01    1.750000e+00
  SP2r TX1er  1 3.660000e-01    1.600000e+00
  SP1r TC6vr  1 3.650000e-01    1.910000e+00
  SP1r TC5vr  1 3.650000e-01    1.750000e+00
  SP1r TC4vr  1 3.660000e-01    1.600000e+00
  SP1r TC3vr  1 3.780000e-01    1.450000e+00
  SP1r TC2vr  1 3.780000e-01    1.450000e+00
  SP1r TC1vr  1 3.940000e-01    1.290000e+00
  SP1r TX4vr  1 3.650000e-01    1.910000e+00
  SP1r TX3vr  1 3.650000e-01    1.910000e+00
  SP1r TX2vr  1 3.650000e-01    1.750000e+00
  SP1r TX1vr  1 3.660000e-01    1.600000e+00
  SP1r TC6er  1 3.650000e-01    1.910000e+00
  SP1r TC5er  1 3.650000e-01    1.750000e+00
  SP1r TC4er  1 3.660000e-01    1.600000e+00
  SP1r TC3er  1 3.780000e-01    1.450000e+00
  SP1r TC2er  1 3.780000e-01    1.450000e+00
  SP1r TC1er  1 3.940000e-01    1.290000e+00
  SP1r TX4er  1 3.650000e-01    1.910000e+00
  SP1r TX3er  1 3.650000e-01    1.910000e+00
  SP1r TX2er  1 3.650000e-01    1.750000e+00
  SP1r TX1er  1 3.660000e-01    1.600000e+00
  SN6r TC6vr  1 3.650000e-01    2.110000e+00
  SN6r TC5vr  1 3.650000e-01    1.910000e+00
  SN6r TC4vr  1 3.650000e-01    1.750000e+00
  SN6r TC3vr  1 3.660000e-01    1.600000e+00
  SN6r TC2vr  1 3.660000e-01    1.600000e+00
  SN6r TC1vr  1 3.780000e-01    1.450000e+00
  SN6r TX4vr  1 3.650000e-01    2.110000e+00
  SN6r TX3vr  1 3.650000e-01    1.910000e+00
  SN6r TX2vr  1 3.650000e-01    1.750000e+00
  SN6r TX1vr  1 3.660000e-01    1.600000e+00
  SN6r TC6er  1 3.650000e-01    2.110000e+00
  SN6r TC5er  1 3.650000e-01    1.910000e+00
  SN6r TC4er  1 3.650000e-01    1.750000e+00
  SN6r TC3er  1 3.660000e-01    1.600000e+00
  SN6r TC2er  1 3.660000e-01    1.600000e+00
  SN6r TC1er  1 3.780000e-01    1.450000e+00
  SN6r TX4er  1 3.650000e-01    2.110000e+00
  SN6r TX3er  1 3.650000e-01    1.910000e+00
  SN6r TX2er  1 3.650000e-01    1.750000e+00
  SN6r TX1er  1 3.660000e-01    1.600000e+00
  SN5r TC6vr  1 3.650000e-01    2.110000e+00
  SN5r TC5vr  1 3.650000e-01    1.910000e+00
  SN5r TC4vr  1 3.650000e-01    1.750000e+00
  SN5r TC3vr  1 3.650000e-01    1.750000e+00
  SN5r TC2vr  1 3.660000e-01    1.600000e+00
  SN5r TC1vr  1 3.780000e-01    1.450000e+00
  SN5r TX4vr  1 3.650000e-01    2.340000e+00
  SN5r TX3vr  1 3.650000e-01    2.110000e+00
  SN5r TX2vr  1 3.650000e-01    1.910000e+00
  SN5r TX1vr  1 3.650000e-01    1.750000e+00
  SN5r TC6er  1 3.650000e-01    2.110000e+00
  SN5r TC5er  1 3.650000e-01    1.910000e+00
  SN5r TC4er  1 3.650000e-01    1.750000e+00
  SN5r TC3er  1 3.650000e-01    1.750000e+00
  SN5r TC2er  1 3.660000e-01    1.600000e+00
  SN5r TC1er  1 3.780000e-01    1.450000e+00
  SN5r TX4er  1 3.650000e-01    2.340000e+00
  SN5r TX3er  1 3.650000e-01    2.110000e+00
  SN5r TX2er  1 3.650000e-01    1.910000e+00
  SN5r TX1er  1 3.650000e-01    1.750000e+00
  SN4r TC6vr  1 3.650000e-01    2.110000e+00
  SN4r TC5vr  1 3.650000e-01    1.910000e+00
  SN4r TC4vr  1 3.650000e-01    1.910000e+00
  SN4r TC3vr  1 3.650000e-01    1.750000e+00
  SN4r TC2vr  1 3.660000e-01    1.600000e+00
  SN4r TC1vr  1 3.780000e-01    1.450000e+00
  SN4r TX4vr  1 3.650000e-01    2.570000e+00
  SN4r TX3vr  1 3.650000e-01    2.340000e+00
  SN4r TX2vr  1 3.650000e-01    1.910000e+00
  SN4r TX1vr  1 3.650000e-01    1.750000e+00
  SN4r TC6er  1 3.650000e-01    2.110000e+00
  SN4r TC5er  1 3.650000e-01    1.910000e+00
  SN4r TC4er  1 3.650000e-01    1.910000e+00
  SN4r TC3er  1 3.650000e-01    1.750000e+00
  SN4r TC2er  1 3.660000e-01    1.600000e+00
  SN4r TC1er  1 3.780000e-01    1.450000e+00
  SN4r TX4er  1 3.650000e-01    2.570000e+00
  SN4r TX3er  1 3.650000e-01    2.340000e+00
  SN4r TX2er  1 3.650000e-01    1.910000e+00
  SN4r TX1er  1 3.650000e-01    1.750000e+00
  SN3r TC6vr  1 3.650000e-01    2.110000e+00
  SN3r TC5vr  1 3.650000e-01    1.910000e+00
  SN3r TC4vr  1 3.650000e-01    1.910000e+00
  SN3r TC3vr  1 3.650000e-01    1.750000e+00
  SN3r TC2vr  1 3.650000e-01    1.750000e+00
  SN3r TC1vr  1 3.660000e-01    1.600000e+00
  SN3r TX4vr  1 3.650000e-01    2.340000e+00
  SN3r TX3vr  1 3.650000e-01    2.110000e+00
  SN3r TX2vr  1 3.650000e-01    1.910000e+00
  SN3r TX1vr  1 3.650000e-01    1.910000e+00
  SN3r TC6er  1 3.650000e-01    2.110000e+00
  SN3r TC5er  1 3.650000e-01    1.910000e+00
  SN3r TC4er  1 3.650000e-01    1.910000e+00
  SN3r TC3er  1 3.650000e-01    1.750000e+00
  SN3r TC2er  1 3.650000e-01    1.750000e+00
  SN3r TC1er  1 3.660000e-01    1.600000e+00
  SN3r TX4er  1 3.650000e-01    2.340000e+00
  SN3r TX3er  1 3.650000e-01    2.110000e+00
  SN3r TX2er  1 3.650000e-01    1.910000e+00
  SN3r TX1er  1 3.650000e-01    1.910000e+00
  SN2r TC6vr  1 3.650000e-01    2.110000e+00
  SN2r TC5vr  1 3.650000e-01    1.910000e+00
  SN2r TC4vr  1 3.650000e-01    1.910000e+00
  SN2r TC3vr  1 3.650000e-01    1.910000e+00
  SN2r TC2vr  1 3.650000e-01    1.750000e+00
  SN2r TC1vr  1 3.660000e-01    1.600000e+00
  SN2r TX4vr  1 3.650000e-01    2.340000e+00
  SN2r TX3vr  1 3.650000e-01    2.110000e+00
  SN2r TX2vr  1 3.650000e-01    1.910000e+00
  SN2r TX1vr  1 3.650000e-01    1.910000e+00
  SN2r TC6er  1 3.650000e-01    2.110000e+00
  SN2r TC5er  1 3.650000e-01    1.910000e+00
  SN2r TC4er  1 3.650000e-01    1.910000e+00
  SN2r TC3er  1 3.650000e-01    1.910000e+00
  SN2r TC2er  1 3.650000e-01    1.750000e+00
  SN2r TC1er  1 3.660000e-01    1.600000e+00
  SN2r TX4er  1 3.650000e-01    2.340000e+00
  SN2r TX3er  1 3.650000e-01    2.110000e+00
  SN2r TX2er  1 3.650000e-01    1.910000e+00
  SN2r TX1er  1 3.650000e-01    1.910000e+00
  SN1r TC6vr  1 3.650000e-01    2.340000e+00
  SN1r TC5vr  1 3.650000e-01    2.110000e+00
  SN1r TC4vr  1 3.650000e-01    2.110000e+00
  SN1r TC3vr  1 3.650000e-01    1.910000e+00
  SN1r TC2vr  1 3.650000e-01    1.750000e+00
  SN1r TC1vr  1 3.660000e-01    1.600000e+00
  SN1r TX4vr  1 3.650000e-01    2.110000e+00
  SN1r TX3vr  1 3.650000e-01    2.110000e+00
  SN1r TX2vr  1 3.650000e-01    1.910000e+00
  SN1r TX1vr  1 3.650000e-01    1.910000e+00
  SN1r TC6er  1 3.650000e-01    2.340000e+00
  SN1r TC5er  1 3.650000e-01    2.110000e+00
  SN1r TC4er  1 3.650000e-01    2.110000e+00
  SN1r TC3er  1 3.650000e-01    1.910000e+00
  SN1r TC2er  1 3.650000e-01    1.750000e+00
  SN1r TC1er  1 3.660000e-01    1.600000e+00
  SN1r TX4er  1 3.650000e-01    2.110000e+00
  SN1r TX3er  1 3.650000e-01    2.110000e+00
  SN1r TX2er  1 3.650000e-01    1.910000e+00
  SN1r TX1er  1 3.650000e-01    1.910000e+00
  SP6h TP6dh  1 3.650000e-01    4.220000e+00
  SP6h TP5dh  1 3.650000e-01    3.930000e+00
  SP6h TP4dh  1 3.650000e-01    3.640000e+00
  SP6h TP3dh  1 3.650000e-01    3.370000e+00
  SP6h TP2dh  1 3.650000e-01    3.370000e+00
  SP6h TP1dh  1 3.650000e-01    3.100000e+00
  SP6h TN6dh  1 3.650000e-01    2.830000e+00
  SP6h TN5dh  1 3.650000e-01    2.340000e+00
  SP6h TN4dh  1 3.650000e-01    2.110000e+00
  SP6h TN3dh  1 3.650000e-01    1.910000e+00
  SP6h TN2dh  1 3.650000e-01    1.750000e+00
  SP6h TN1dh  1 3.660000e-01    1.600000e+00
  SP6h TP6ah  1 3.650000e-01    4.220000e+00
  SP6h TP5ah  1 3.650000e-01    3.930000e+00
  SP6h TP4ah  1 3.650000e-01    3.640000e+00
  SP6h TP3ah  1 3.650000e-01    3.370000e+00
  SP6h TP2ah  1 3.650000e-01    3.370000e+00
  SP6h TP1ah  1 3.650000e-01    3.100000e+00
  SP6h TN6ah  1 3.650000e-01    2.830000e+00
  SP6h TN5ah  1 3.650000e-01    2.340000e+00
  SP6h TN4ah  1 3.650000e-01    2.110000e+00
  SP6h TN3ah  1 3.650000e-01    1.910000e+00
  SP6h TN2ah  1 3.650000e-01    1.750000e+00
  SP6h TN1ah  1 3.660000e-01    1.600000e+00
  SP5h TP5dh  1 3.650000e-01    3.640000e+00
  SP5h TP4dh  1 3.650000e-01    3.370000e+00
  SP5h TP3dh  1 3.650000e-01    3.100000e+00
  SP5h TP2dh  1 3.650000e-01    3.100000e+00
  SP5h TP1dh  1 3.650000e-01    2.830000e+00
  SP5h TN6dh  1 3.650000e-01    2.570000e+00
  SP5h TN5dh  1 3.650000e-01    2.340000e+00
  SP5h TN4dh  1 3.650000e-01    2.340000e+00
  SP5h TN3dh  1 3.650000e-01    1.910000e+00
  SP5h TN2dh  1 3.650000e-01    1.750000e+00
  SP5h TN1dh  1 3.660000e-01    1.600000e+00
  SP5h TP5ah  1 3.650000e-01    3.640000e+00
  SP5h TP4ah  1 3.650000e-01    3.370000e+00
  SP5h TP3ah  1 3.650000e-01    3.100000e+00
  SP5h TP2ah  1 3.650000e-01    3.100000e+00
  SP5h TP1ah  1 3.650000e-01    2.830000e+00
  SP5h TN6ah  1 3.650000e-01    2.570000e+00
  SP5h TN5ah  1 3.650000e-01    2.340000e+00
  SP5h TN4ah  1 3.650000e-01    2.340000e+00
  SP5h TN3ah  1 3.650000e-01    1.910000e+00
  SP5h TN2ah  1 3.650000e-01    1.750000e+00
  SP5h TN1ah  1 3.660000e-01    1.600000e+00
  SP4h TP4dh  1 3.650000e-01    3.370000e+00
  SP4h TP3dh  1 3.650000e-01    3.100000e+00
  SP4h TP2dh  1 3.650000e-01    3.100000e+00
  SP4h TP1dh  1 3.650000e-01    2.830000e+00
  SP4h TN6dh  1 3.650000e-01    2.570000e+00
  SP4h TN5dh  1 3.650000e-01    2.340000e+00
  SP4h TN4dh  1 3.650000e-01    2.340000e+00
  SP4h TN3dh  1 3.650000e-01    2.110000e+00
  SP4h TN2dh  1 3.650000e-01    1.910000e+00
  SP4h TN1dh  1 3.650000e-01    1.750000e+00
  SP4h TP4ah  1 3.650000e-01    3.370000e+00
  SP4h TP3ah  1 3.650000e-01    3.100000e+00
  SP4h TP2ah  1 3.650000e-01    3.100000e+00
  SP4h TP1ah  1 3.650000e-01    2.830000e+00
  SP4h TN6ah  1 3.650000e-01    2.570000e+00
  SP4h TN5ah  1 3.650000e-01    2.340000e+00
  SP4h TN4ah  1 3.650000e-01    2.340000e+00
  SP4h TN3ah  1 3.650000e-01    2.110000e+00
  SP4h TN2ah  1 3.650000e-01    1.910000e+00
  SP4h TN1ah  1 3.650000e-01    1.750000e+00
  SP3h TP3dh  1 3.650000e-01    3.100000e+00
  SP3h TP2dh  1 3.650000e-01    3.100000e+00
  SP3h TP1dh  1 3.650000e-01    2.830000e+00
  SP3h TN6dh  1 3.650000e-01    2.570000e+00
  SP3h TN5dh  1 3.650000e-01    2.340000e+00
  SP3h TN4dh  1 3.650000e-01    2.340000e+00
  SP3h TN3dh  1 3.650000e-01    2.110000e+00
  SP3h TN2dh  1 3.650000e-01    2.110000e+00
  SP3h TN1dh  1 3.650000e-01    1.910000e+00
  SP3h TP3ah  1 3.650000e-01    3.100000e+00
  SP3h TP2ah  1 3.650000e-01    3.100000e+00
  SP3h TP1ah  1 3.650000e-01    2.830000e+00
  SP3h TN6ah  1 3.650000e-01    2.570000e+00
  SP3h TN5ah  1 3.650000e-01    2.340000e+00
  SP3h TN4ah  1 3.650000e-01    2.340000e+00
  SP3h TN3ah  1 3.650000e-01    2.110000e+00
  SP3h TN2ah  1 3.650000e-01    2.110000e+00
  SP3h TN1ah  1 3.650000e-01    1.910000e+00
  SP2h TP2dh  1 3.650000e-01    3.100000e+00
  SP2h TP1dh  1 3.650000e-01    2.830000e+00
  SP2h TN6dh  1 3.650000e-01    2.830000e+00
  SP2h TN5dh  1 3.650000e-01    2.570000e+00
  SP2h TN4dh  1 3.650000e-01    2.340000e+00
  SP2h TN3dh  1 3.650000e-01    2.110000e+00
  SP2h TN2dh  1 3.650000e-01    2.110000e+00
  SP2h TN1dh  1 3.650000e-01    2.110000e+00
  SP2h TP2ah  1 3.650000e-01    3.100000e+00
  SP2h TP1ah  1 3.650000e-01    2.830000e+00
  SP2h TN6ah  1 3.650000e-01    2.830000e+00
  SP2h TN5ah  1 3.650000e-01    2.570000e+00
  SP2h TN4ah  1 3.650000e-01    2.340000e+00
  SP2h TN3ah  1 3.650000e-01    2.110000e+00
  SP2h TN2ah  1 3.650000e-01    2.110000e+00
  SP2h TN1ah  1 3.650000e-01    2.110000e+00
  SP1h TP1dh  1 3.650000e-01    2.830000e+00
  SP1h TN6dh  1 3.650000e-01    2.830000e+00
  SP1h TN5dh  1 3.650000e-01    2.570000e+00
  SP1h TN4dh  1 3.650000e-01    2.570000e+00
  SP1h TN3dh  1 3.650000e-01    2.110000e+00
  SP1h TN2dh  1 3.650000e-01    2.110000e+00
  SP1h TN1dh  1 3.650000e-01    2.110000e+00
  SP1h TP1ah  1 3.650000e-01    2.830000e+00
  SP1h TN6ah  1 3.650000e-01    2.830000e+00
  SP1h TN5ah  1 3.650000e-01    2.570000e+00
  SP1h TN4ah  1 3.650000e-01    2.570000e+00
  SP1h TN3ah  1 3.650000e-01    2.110000e+00
  SP1h TN2ah  1 3.650000e-01    2.110000e+00
  SP1h TN1ah  1 3.650000e-01    2.110000e+00
  SN6h TN6dh  1 3.650000e-01    2.830000e+00
  SN6h TN5dh  1 3.650000e-01    2.830000e+00
  SN6h TN4dh  1 3.650000e-01    2.830000e+00
  SN6h TN3dh  1 3.650000e-01    2.340000e+00
  SN6h TN2dh  1 3.650000e-01    2.110000e+00
  SN6h TN1dh  1 3.650000e-01    2.110000e+00
  SN6h TN6ah  1 3.650000e-01    2.830000e+00
  SN6h TN5ah  1 3.650000e-01    2.830000e+00
  SN6h TN4ah  1 3.650000e-01    2.830000e+00
  SN6h TN3ah  1 3.650000e-01    2.340000e+00
  SN6h TN2ah  1 3.650000e-01    2.110000e+00
  SN6h TN1ah  1 3.650000e-01    2.110000e+00
  SN5h TN5dh  1 3.650000e-01    2.570000e+00
  SN5h TN4dh  1 3.650000e-01    2.570000e+00
  SN5h TN3dh  1 3.650000e-01    2.340000e+00
  SN5h TN2dh  1 3.650000e-01    2.340000e+00
  SN5h TN1dh  1 3.650000e-01    2.110000e+00
  SN5h TN5ah  1 3.650000e-01    2.570000e+00
  SN5h TN4ah  1 3.650000e-01    2.570000e+00
  SN5h TN3ah  1 3.650000e-01    2.340000e+00
  SN5h TN2ah  1 3.650000e-01    2.340000e+00
  SN5h TN1ah  1 3.650000e-01    2.110000e+00
  SN4h TN4dh  1 3.650000e-01    2.570000e+00
  SN4h TN3dh  1 3.650000e-01    2.340000e+00
  SN4h TN2dh  1 3.650000e-01    2.340000e+00
  SN4h TN1dh  1 3.650000e-01    2.110000e+00
  SN4h TN4ah  1 3.650000e-01    2.570000e+00
  SN4h TN3ah  1 3.650000e-01    2.340000e+00
  SN4h TN2ah  1 3.650000e-01    2.340000e+00
  SN4h TN1ah  1 3.650000e-01    2.110000e+00
  SN3h TN3dh  1 3.650000e-01    2.340000e+00
  SN3h TN2dh  1 3.650000e-01    2.340000e+00
  SN3h TN1dh  1 3.650000e-01    2.110000e+00
  SN3h TN3ah  1 3.650000e-01    2.340000e+00
  SN3h TN2ah  1 3.650000e-01    2.340000e+00
  SN3h TN1ah  1 3.650000e-01    2.110000e+00
  SN2h TN2dh  1 3.650000e-01    2.340000e+00
  SN2h TN1dh  1 3.650000e-01    2.110000e+00
  SN2h TN2ah  1 3.650000e-01    2.340000e+00
  SN2h TN1ah  1 3.650000e-01    2.110000e+00
  SN1h TN1dh  1 3.650000e-01    2.340000e+00
  SN1h TN1ah  1 3.650000e-01    2.340000e+00
  SC6h TC6vh  1 3.650000e-01    2.570000e+00
  SC6h TC5vh  1 3.650000e-01    2.340000e+00
  SC6h TC4vh  1 3.650000e-01    2.340000e+00
  SC6h TC3vh  1 3.650000e-01    2.110000e+00
  SC6h TC2vh  1 3.650000e-01    1.910000e+00
  SC6h TC1vh  1 3.650000e-01    1.750000e+00
  SC6h TX4vh  1 3.650000e-01    2.340000e+00
  SC6h TX3vh  1 3.650000e-01    2.340000e+00
  SC6h TX2vh  1 3.650000e-01    2.340000e+00
  SC6h TX1vh  1 3.650000e-01    2.340000e+00
  SC6h TC6eh  1 3.650000e-01    2.570000e+00
  SC6h TC5eh  1 3.650000e-01    2.340000e+00
  SC6h TC4eh  1 3.650000e-01    2.340000e+00
  SC6h TC3eh  1 3.650000e-01    2.110000e+00
  SC6h TC2eh  1 3.650000e-01    1.910000e+00
  SC6h TC1eh  1 3.650000e-01    1.750000e+00
  SC6h TX4eh  1 3.650000e-01    2.340000e+00
  SC6h TX3eh  1 3.650000e-01    2.340000e+00
  SC6h TX2eh  1 3.650000e-01    2.340000e+00
  SC6h TX1eh  1 3.650000e-01    2.340000e+00
  SC5h TC5vh  1 3.650000e-01    2.340000e+00
  SC5h TC4vh  1 3.650000e-01    2.340000e+00
  SC5h TC3vh  1 3.650000e-01    2.110000e+00
  SC5h TC2vh  1 3.650000e-01    1.910000e+00
  SC5h TC1vh  1 3.650000e-01    1.910000e+00
  SC5h TX4vh  1 3.650000e-01    2.110000e+00
  SC5h TX3vh  1 3.650000e-01    2.110000e+00
  SC5h TX2vh  1 3.650000e-01    2.110000e+00
  SC5h TX1vh  1 3.650000e-01    2.340000e+00
  SC5h TC5eh  1 3.650000e-01    2.340000e+00
  SC5h TC4eh  1 3.650000e-01    2.340000e+00
  SC5h TC3eh  1 3.650000e-01    2.110000e+00
  SC5h TC2eh  1 3.650000e-01    1.910000e+00
  SC5h TC1eh  1 3.650000e-01    1.910000e+00
  SC5h TX4eh  1 3.650000e-01    2.110000e+00
  SC5h TX3eh  1 3.650000e-01    2.110000e+00
  SC5h TX2eh  1 3.650000e-01    2.110000e+00
  SC5h TX1eh  1 3.650000e-01    2.340000e+00
  SC4h TC4vh  1 3.650000e-01    2.340000e+00
  SC4h TC3vh  1 3.650000e-01    2.340000e+00
  SC4h TC2vh  1 3.650000e-01    2.110000e+00
  SC4h TC1vh  1 3.650000e-01    1.910000e+00
  SC4h TX4vh  1 3.650000e-01    2.110000e+00
  SC4h TX3vh  1 3.650000e-01    2.110000e+00
  SC4h TX2vh  1 3.650000e-01    2.110000e+00
  SC4h TX1vh  1 3.650000e-01    2.340000e+00
  SC4h TC4eh  1 3.650000e-01    2.340000e+00
  SC4h TC3eh  1 3.650000e-01    2.340000e+00
  SC4h TC2eh  1 3.650000e-01    2.110000e+00
  SC4h TC1eh  1 3.650000e-01    1.910000e+00
  SC4h TX4eh  1 3.650000e-01    2.110000e+00
  SC4h TX3eh  1 3.650000e-01    2.110000e+00
  SC4h TX2eh  1 3.650000e-01    2.110000e+00
  SC4h TX1eh  1 3.650000e-01    2.340000e+00
  SC3h TC3vh  1 3.650000e-01    2.340000e+00
  SC3h TC2vh  1 3.650000e-01    2.340000e+00
  SC3h TC1vh  1 3.650000e-01    2.340000e+00
  SC3h TX4vh  1 3.650000e-01    2.110000e+00
  SC3h TX3vh  1 3.650000e-01    2.110000e+00
  SC3h TX2vh  1 3.650000e-01    2.110000e+00
  SC3h TX1vh  1 3.650000e-01    2.340000e+00
  SC3h TC3eh  1 3.650000e-01    2.340000e+00
  SC3h TC2eh  1 3.650000e-01    2.340000e+00
  SC3h TC1eh  1 3.650000e-01    2.340000e+00
  SC3h TX4eh  1 3.650000e-01    2.110000e+00
  SC3h TX3eh  1 3.650000e-01    2.110000e+00
  SC3h TX2eh  1 3.650000e-01    2.110000e+00
  SC3h TX1eh  1 3.650000e-01    2.340000e+00
  SC2h TC2vh  1 3.650000e-01    2.340000e+00
  SC2h TC1vh  1 3.650000e-01    2.570000e+00
  SC2h TX4vh  1 3.650000e-01    1.750000e+00
  SC2h TX3vh  1 3.650000e-01    2.110000e+00
  SC2h TX2vh  1 3.650000e-01    2.110000e+00
  SC2h TX1vh  1 3.650000e-01    2.110000e+00
  SC2h TC2eh  1 3.650000e-01    2.340000e+00
  SC2h TC1eh  1 3.650000e-01    2.570000e+00
  SC2h TX4eh  1 3.650000e-01    1.750000e+00
  SC2h TX3eh  1 3.650000e-01    2.110000e+00
  SC2h TX2eh  1 3.650000e-01    2.110000e+00
  SC2h TX1eh  1 3.650000e-01    2.110000e+00
  SC1h TC1vh  1 3.650000e-01    2.340000e+00
  SC1h TX4vh  1 3.650000e-01    1.750000e+00
  SC1h TX3vh  1 3.650000e-01    2.110000e+00
  SC1h TX2vh  1 3.650000e-01    2.110000e+00
  SC1h TX1vh  1 3.650000e-01    2.110000e+00
  SC1h TC1eh  1 3.650000e-01    2.340000e+00
  SC1h TX4eh  1 3.650000e-01    1.750000e+00
  SC1h TX3eh  1 3.650000e-01    2.110000e+00
  SC1h TX2eh  1 3.650000e-01    2.110000e+00
  SC1h TX1eh  1 3.650000e-01    2.110000e+00
  SX4h TX4vh  1 3.650000e-01    2.340000e+00
  SX4h TX3vh  1 3.650000e-01    2.340000e+00
  SX4h TX2vh  1 3.650000e-01    2.340000e+00
  SX4h TX1vh  1 3.650000e-01    2.340000e+00
  SX4h TX4eh  1 3.650000e-01    2.340000e+00
  SX4h TX3eh  1 3.650000e-01    2.340000e+00
  SX4h TX2eh  1 3.650000e-01    2.340000e+00
  SX4h TX1eh  1 3.650000e-01    2.340000e+00
  SX3h TX3vh  1 3.650000e-01    2.340000e+00
  SX3h TX2vh  1 3.650000e-01    2.570000e+00
  SX3h TX1vh  1 3.650000e-01    2.570000e+00
  SX3h TX3eh  1 3.650000e-01    2.340000e+00
  SX3h TX2eh  1 3.650000e-01    2.570000e+00
  SX3h TX1eh  1 3.650000e-01    2.570000e+00
  SX2h TX2vh  1 3.650000e-01    2.570000e+00
  SX2h TX1vh  1 3.650000e-01    2.570000e+00
  SX2h TX2eh  1 3.650000e-01    2.570000e+00
  SX2h TX1eh  1 3.650000e-01    2.570000e+00
  SX1h TX1vh  1 3.650000e-01    2.830000e+00
  SX1h TX1eh  1 3.650000e-01    2.830000e+00
  SP6h TC6vh  1 3.660000e-01    1.600000e+00
  SP6h TC5vh  1 3.780000e-01    1.450000e+00
  SP6h TC4vh  1 3.940000e-01    1.290000e+00
  SP6h TC3vh  1 4.040000e-01    1.130000e+00
  SP6h TC2vh  1 4.040000e-01    1.130000e+00
  SP6h TC1vh  1 4.230000e-01    9.810000e-01
  SP6h TX4vh  1 3.650000e-01    1.750000e+00
  SP6h TX3vh  1 3.650000e-01    1.750000e+00
  SP6h TX2vh  1 3.660000e-01    1.600000e+00
  SP6h TX1vh  1 3.780000e-01    1.450000e+00
  SP6h TC6eh  1 3.660000e-01    1.600000e+00
  SP6h TC5eh  1 3.780000e-01    1.450000e+00
  SP6h TC4eh  1 3.940000e-01    1.290000e+00
  SP6h TC3eh  1 4.040000e-01    1.130000e+00
  SP6h TC2eh  1 4.040000e-01    1.130000e+00
  SP6h TC1eh  1 4.230000e-01    9.810000e-01
  SP6h TX4eh  1 3.650000e-01    1.750000e+00
  SP6h TX3eh  1 3.650000e-01    1.750000e+00
  SP6h TX2eh  1 3.660000e-01    1.600000e+00
  SP6h TX1eh  1 3.780000e-01    1.450000e+00
  SP5h TC6vh  1 3.660000e-01    1.600000e+00
  SP5h TC5vh  1 3.660000e-01    1.600000e+00
  SP5h TC4vh  1 3.780000e-01    1.450000e+00
  SP5h TC3vh  1 3.940000e-01    1.290000e+00
  SP5h TC2vh  1 3.940000e-01    1.290000e+00
  SP5h TC1vh  1 4.040000e-01    1.130000e+00
  SP5h TX4vh  1 3.650000e-01    1.910000e+00
  SP5h TX3vh  1 3.650000e-01    1.750000e+00
  SP5h TX2vh  1 3.650000e-01    1.750000e+00
  SP5h TX1vh  1 3.780000e-01    1.450000e+00
  SP5h TC6eh  1 3.660000e-01    1.600000e+00
  SP5h TC5eh  1 3.660000e-01    1.600000e+00
  SP5h TC4eh  1 3.780000e-01    1.450000e+00
  SP5h TC3eh  1 3.940000e-01    1.290000e+00
  SP5h TC2eh  1 3.940000e-01    1.290000e+00
  SP5h TC1eh  1 4.040000e-01    1.130000e+00
  SP5h TX4eh  1 3.650000e-01    1.910000e+00
  SP5h TX3eh  1 3.650000e-01    1.750000e+00
  SP5h TX2eh  1 3.650000e-01    1.750000e+00
  SP5h TX1eh  1 3.780000e-01    1.450000e+00
  SP4h TC6vh  1 3.650000e-01    1.750000e+00
  SP4h TC5vh  1 3.660000e-01    1.600000e+00
  SP4h TC4vh  1 3.780000e-01    1.450000e+00
  SP4h TC3vh  1 3.940000e-01    1.290000e+00
  SP4h TC2vh  1 3.940000e-01    1.290000e+00
  SP4h TC1vh  1 4.040000e-01    1.130000e+00
  SP4h TX4vh  1 3.650000e-01    1.910000e+00
  SP4h TX3vh  1 3.650000e-01    1.750000e+00
  SP4h TX2vh  1 3.650000e-01    1.750000e+00
  SP4h TX1vh  1 3.660000e-01    1.600000e+00
  SP4h TC6eh  1 3.650000e-01    1.750000e+00
  SP4h TC5eh  1 3.660000e-01    1.600000e+00
  SP4h TC4eh  1 3.780000e-01    1.450000e+00
  SP4h TC3eh  1 3.940000e-01    1.290000e+00
  SP4h TC2eh  1 3.940000e-01    1.290000e+00
  SP4h TC1eh  1 4.040000e-01    1.130000e+00
  SP4h TX4eh  1 3.650000e-01    1.910000e+00
  SP4h TX3eh  1 3.650000e-01    1.750000e+00
  SP4h TX2eh  1 3.650000e-01    1.750000e+00
  SP4h TX1eh  1 3.660000e-01    1.600000e+00
  SP3h TC6vh  1 3.650000e-01    1.910000e+00
  SP3h TC5vh  1 3.650000e-01    1.750000e+00
  SP3h TC4vh  1 3.660000e-01    1.600000e+00
  SP3h TC3vh  1 3.940000e-01    1.290000e+00
  SP3h TC2vh  1 3.940000e-01    1.290000e+00
  SP3h TC1vh  1 4.040000e-01    1.130000e+00
  SP3h TX4vh  1 3.650000e-01    1.910000e+00
  SP3h TX3vh  1 3.650000e-01    1.910000e+00
  SP3h TX2vh  1 3.650000e-01    1.750000e+00
  SP3h TX1vh  1 3.660000e-01    1.600000e+00
  SP3h TC6eh  1 3.650000e-01    1.910000e+00
  SP3h TC5eh  1 3.650000e-01    1.750000e+00
  SP3h TC4eh  1 3.660000e-01    1.600000e+00
  SP3h TC3eh  1 3.940000e-01    1.290000e+00
  SP3h TC2eh  1 3.940000e-01    1.290000e+00
  SP3h TC1eh  1 4.040000e-01    1.130000e+00
  SP3h TX4eh  1 3.650000e-01    1.910000e+00
  SP3h TX3eh  1 3.650000e-01    1.910000e+00
  SP3h TX2eh  1 3.650000e-01    1.750000e+00
  SP3h TX1eh  1 3.660000e-01    1.600000e+00
  SP2h TC6vh  1 3.650000e-01    1.910000e+00
  SP2h TC5vh  1 3.650000e-01    1.750000e+00
  SP2h TC4vh  1 3.660000e-01    1.600000e+00
  SP2h TC3vh  1 3.780000e-01    1.450000e+00
  SP2h TC2vh  1 3.780000e-01    1.450000e+00
  SP2h TC1vh  1 3.940000e-01    1.290000e+00
  SP2h TX4vh  1 3.650000e-01    1.910000e+00
  SP2h TX3vh  1 3.650000e-01    1.910000e+00
  SP2h TX2vh  1 3.650000e-01    1.750000e+00
  SP2h TX1vh  1 3.660000e-01    1.600000e+00
  SP2h TC6eh  1 3.650000e-01    1.910000e+00
  SP2h TC5eh  1 3.650000e-01    1.750000e+00
  SP2h TC4eh  1 3.660000e-01    1.600000e+00
  SP2h TC3eh  1 3.780000e-01    1.450000e+00
  SP2h TC2eh  1 3.780000e-01    1.450000e+00
  SP2h TC1eh  1 3.940000e-01    1.290000e+00
  SP2h TX4eh  1 3.650000e-01    1.910000e+00
  SP2h TX3eh  1 3.650000e-01    1.910000e+00
  SP2h TX2eh  1 3.650000e-01    1.750000e+00
  SP2h TX1eh  1 3.660000e-01    1.600000e+00
  SP1h TC6vh  1 3.650000e-01    1.910000e+00
  SP1h TC5vh  1 3.650000e-01    1.750000e+00
  SP1h TC4vh  1 3.660000e-01    1.600000e+00
  SP1h TC3vh  1 3.780000e-01    1.450000e+00
  SP1h TC2vh  1 3.780000e-01    1.450000e+00
  SP1h TC1vh  1 3.940000e-01    1.290000e+00
  SP1h TX4vh  1 3.650000e-01    1.910000e+00
  SP1h TX3vh  1 3.650000e-01    1.910000e+00
  SP1h TX2vh  1 3.650000e-01    1.750000e+00
  SP1h TX1vh  1 3.660000e-01    1.600000e+00
  SP1h TC6eh  1 3.650000e-01    1.910000e+00
  SP1h TC5eh  1 3.650000e-01    1.750000e+00
  SP1h TC4eh  1 3.660000e-01    1.600000e+00
  SP1h TC3eh  1 3.780000e-01    1.450000e+00
  SP1h TC2eh  1 3.780000e-01    1.450000e+00
  SP1h TC1eh  1 3.940000e-01    1.290000e+00
  SP1h TX4eh  1 3.650000e-01    1.910000e+00
  SP1h TX3eh  1 3.650000e-01    1.910000e+00
  SP1h TX2eh  1 3.650000e-01    1.750000e+00
  SP1h TX1eh  1 3.660000e-01    1.600000e+00
  SN6h TC6vh  1 3.650000e-01    2.110000e+00
  SN6h TC5vh  1 3.650000e-01    1.910000e+00
  SN6h TC4vh  1 3.650000e-01    1.750000e+00
  SN6h TC3vh  1 3.660000e-01    1.600000e+00
  SN6h TC2vh  1 3.660000e-01    1.600000e+00
  SN6h TC1vh  1 3.780000e-01    1.450000e+00
  SN6h TX4vh  1 3.650000e-01    2.110000e+00
  SN6h TX3vh  1 3.650000e-01    1.910000e+00
  SN6h TX2vh  1 3.650000e-01    1.750000e+00
  SN6h TX1vh  1 3.660000e-01    1.600000e+00
  SN6h TC6eh  1 3.650000e-01    2.110000e+00
  SN6h TC5eh  1 3.650000e-01    1.910000e+00
  SN6h TC4eh  1 3.650000e-01    1.750000e+00
  SN6h TC3eh  1 3.660000e-01    1.600000e+00
  SN6h TC2eh  1 3.660000e-01    1.600000e+00
  SN6h TC1eh  1 3.780000e-01    1.450000e+00
  SN6h TX4eh  1 3.650000e-01    2.110000e+00
  SN6h TX3eh  1 3.650000e-01    1.910000e+00
  SN6h TX2eh  1 3.650000e-01    1.750000e+00
  SN6h TX1eh  1 3.660000e-01    1.600000e+00
  SN5h TC6vh  1 3.650000e-01    2.110000e+00
  SN5h TC5vh  1 3.650000e-01    1.910000e+00
  SN5h TC4vh  1 3.650000e-01    1.750000e+00
  SN5h TC3vh  1 3.650000e-01    1.750000e+00
  SN5h TC2vh  1 3.660000e-01    1.600000e+00
  SN5h TC1vh  1 3.780000e-01    1.450000e+00
  SN5h TX4vh  1 3.650000e-01    2.340000e+00
  SN5h TX3vh  1 3.650000e-01    2.110000e+00
  SN5h TX2vh  1 3.650000e-01    1.910000e+00
  SN5h TX1vh  1 3.650000e-01    1.750000e+00
  SN5h TC6eh  1 3.650000e-01    2.110000e+00
  SN5h TC5eh  1 3.650000e-01    1.910000e+00
  SN5h TC4eh  1 3.650000e-01    1.750000e+00
  SN5h TC3eh  1 3.650000e-01    1.750000e+00
  SN5h TC2eh  1 3.660000e-01    1.600000e+00
  SN5h TC1eh  1 3.780000e-01    1.450000e+00
  SN5h TX4eh  1 3.650000e-01    2.340000e+00
  SN5h TX3eh  1 3.650000e-01    2.110000e+00
  SN5h TX2eh  1 3.650000e-01    1.910000e+00
  SN5h TX1eh  1 3.650000e-01    1.750000e+00
  SN4h TC6vh  1 3.650000e-01    2.110000e+00
  SN4h TC5vh  1 3.650000e-01    1.910000e+00
  SN4h TC4vh  1 3.650000e-01    1.910000e+00
  SN4h TC3vh  1 3.650000e-01    1.750000e+00
  SN4h TC2vh  1 3.660000e-01    1.600000e+00
  SN4h TC1vh  1 3.780000e-01    1.450000e+00
  SN4h TX4vh  1 3.650000e-01    2.570000e+00
  SN4h TX3vh  1 3.650000e-01    2.340000e+00
  SN4h TX2vh  1 3.650000e-01    1.910000e+00
  SN4h TX1vh  1 3.650000e-01    1.750000e+00
  SN4h TC6eh  1 3.650000e-01    2.110000e+00
  SN4h TC5eh  1 3.650000e-01    1.910000e+00
  SN4h TC4eh  1 3.650000e-01    1.910000e+00
  SN4h TC3eh  1 3.650000e-01    1.750000e+00
  SN4h TC2eh  1 3.660000e-01    1.600000e+00
  SN4h TC1eh  1 3.780000e-01    1.450000e+00
  SN4h TX4eh  1 3.650000e-01    2.570000e+00
  SN4h TX3eh  1 3.650000e-01    2.340000e+00
  SN4h TX2eh  1 3.650000e-01    1.910000e+00
  SN4h TX1eh  1 3.650000e-01    1.750000e+00
  SN3h TC6vh  1 3.650000e-01    2.110000e+00
  SN3h TC5vh  1 3.650000e-01    1.910000e+00
  SN3h TC4vh  1 3.650000e-01    1.910000e+00
  SN3h TC3vh  1 3.650000e-01    1.750000e+00
  SN3h TC2vh  1 3.650000e-01    1.750000e+00
  SN3h TC1vh  1 3.660000e-01    1.600000e+00
  SN3h TX4vh  1 3.650000e-01    2.340000e+00
  SN3h TX3vh  1 3.650000e-01    2.110000e+00
  SN3h TX2vh  1 3.650000e-01    1.910000e+00
  SN3h TX1vh  1 3.650000e-01    1.910000e+00
  SN3h TC6eh  1 3.650000e-01    2.110000e+00
  SN3h TC5eh  1 3.650000e-01    1.910000e+00
  SN3h TC4eh  1 3.650000e-01    1.910000e+00
  SN3h TC3eh  1 3.650000e-01    1.750000e+00
  SN3h TC2eh  1 3.650000e-01    1.750000e+00
  SN3h TC1eh  1 3.660000e-01    1.600000e+00
  SN3h TX4eh  1 3.650000e-01    2.340000e+00
  SN3h TX3eh  1 3.650000e-01    2.110000e+00
  SN3h TX2eh  1 3.650000e-01    1.910000e+00
  SN3h TX1eh  1 3.650000e-01    1.910000e+00
  SN2h TC6vh  1 3.650000e-01    2.110000e+00
  SN2h TC5vh  1 3.650000e-01    1.910000e+00
  SN2h TC4vh  1 3.650000e-01    1.910000e+00
  SN2h TC3vh  1 3.650000e-01    1.910000e+00
  SN2h TC2vh  1 3.650000e-01    1.750000e+00
  SN2h TC1vh  1 3.660000e-01    1.600000e+00
  SN2h TX4vh  1 3.650000e-01    2.340000e+00
  SN2h TX3vh  1 3.650000e-01    2.110000e+00
  SN2h TX2vh  1 3.650000e-01    1.910000e+00
  SN2h TX1vh  1 3.650000e-01    1.910000e+00
  SN2h TC6eh  1 3.650000e-01    2.110000e+00
  SN2h TC5eh  1 3.650000e-01    1.910000e+00
  SN2h TC4eh  1 3.650000e-01    1.910000e+00
  SN2h TC3eh  1 3.650000e-01    1.910000e+00
  SN2h TC2eh  1 3.650000e-01    1.750000e+00
  SN2h TC1eh  1 3.660000e-01    1.600000e+00
  SN2h TX4eh  1 3.650000e-01    2.340000e+00
  SN2h TX3eh  1 3.650000e-01    2.110000e+00
  SN2h TX2eh  1 3.650000e-01    1.910000e+00
  SN2h TX1eh  1 3.650000e-01    1.910000e+00
  SN1h TC6vh  1 3.650000e-01    2.340000e+00
  SN1h TC5vh  1 3.650000e-01    2.110000e+00
  SN1h TC4vh  1 3.650000e-01    2.110000e+00
  SN1h TC3vh  1 3.650000e-01    1.910000e+00
  SN1h TC2vh  1 3.650000e-01    1.750000e+00
  SN1h TC1vh  1 3.660000e-01    1.600000e+00
  SN1h TX4vh  1 3.650000e-01    2.110000e+00
  SN1h TX3vh  1 3.650000e-01    2.110000e+00
  SN1h TX2vh  1 3.650000e-01    1.910000e+00
  SN1h TX1vh  1 3.650000e-01    1.910000e+00
  SN1h TC6eh  1 3.650000e-01    2.340000e+00
  SN1h TC5eh  1 3.650000e-01    2.110000e+00
  SN1h TC4eh  1 3.650000e-01    2.110000e+00
  SN1h TC3eh  1 3.650000e-01    1.910000e+00
  SN1h TC2eh  1 3.650000e-01    1.750000e+00
  SN1h TC1eh  1 3.660000e-01    1.600000e+00
  SN1h TX4eh  1 3.650000e-01    2.110000e+00
  SN1h TX3eh  1 3.650000e-01    2.110000e+00
  SN1h TX2eh  1 3.650000e-01    1.910000e+00
  SN1h TX1eh  1 3.650000e-01    1.910000e+00
  SP6h TP6dr  1 3.650000e-01    3.930000e+00
  SP6r TP6dh  1 3.650000e-01    3.930000e+00
  SP6h TP5dr  1 3.650000e-01    3.640000e+00
  SP6r TP5dh  1 3.650000e-01    3.640000e+00
  SP6h TP4dr  1 3.650000e-01    3.370000e+00
  SP6r TP4dh  1 3.650000e-01    3.370000e+00
  SP6h TP3dr  1 3.650000e-01    3.100000e+00
  SP6r TP3dh  1 3.650000e-01    3.100000e+00
  SP6h TP2dr  1 3.650000e-01    3.100000e+00
  SP6r TP2dh  1 3.650000e-01    3.100000e+00
  SP6h TP1dr  1 3.650000e-01    2.830000e+00
  SP6r TP1dh  1 3.650000e-01    2.830000e+00
  SP6h TN6dr  1 3.650000e-01    2.570000e+00
  SP6r TN6dh  1 3.650000e-01    2.570000e+00
  SP6h TN5dr  1 3.650000e-01    2.110000e+00
  SP6r TN5dh  1 3.650000e-01    2.110000e+00
  SP6h TN4dr  1 3.650000e-01    1.910000e+00
  SP6r TN4dh  1 3.650000e-01    1.910000e+00
  SP6h TN3dr  1 3.650000e-01    1.750000e+00
  SP6r TN3dh  1 3.650000e-01    1.750000e+00
  SP6h TN2dr  1 3.660000e-01    1.600000e+00
  SP6r TN2dh  1 3.660000e-01    1.600000e+00
  SP6h TN1dr  1 3.780000e-01    1.450000e+00
  SP6r TN1dh  1 3.780000e-01    1.450000e+00
  SP6h TP6ar  1 3.650000e-01    3.930000e+00
  SP6r TP6ah  1 3.650000e-01    3.930000e+00
  SP6h TP5ar  1 3.650000e-01    3.640000e+00
  SP6r TP5ah  1 3.650000e-01    3.640000e+00
  SP6h TP4ar  1 3.650000e-01    3.370000e+00
  SP6r TP4ah  1 3.650000e-01    3.370000e+00
  SP6h TP3ar  1 3.650000e-01    3.100000e+00
  SP6r TP3ah  1 3.650000e-01    3.100000e+00
  SP6h TP2ar  1 3.650000e-01    3.100000e+00
  SP6r TP2ah  1 3.650000e-01    3.100000e+00
  SP6h TP1ar  1 3.650000e-01    2.830000e+00
  SP6r TP1ah  1 3.650000e-01    2.830000e+00
  SP6h TN6ar  1 3.650000e-01    2.570000e+00
  SP6r TN6ah  1 3.650000e-01    2.570000e+00
  SP6h TN5ar  1 3.650000e-01    2.110000e+00
  SP6r TN5ah  1 3.650000e-01    2.110000e+00
  SP6h TN4ar  1 3.650000e-01    1.910000e+00
  SP6r TN4ah  1 3.650000e-01    1.910000e+00
  SP6h TN3ar  1 3.650000e-01    1.750000e+00
  SP6r TN3ah  1 3.650000e-01    1.750000e+00
  SP6h TN2ar  1 3.660000e-01    1.600000e+00
  SP6r TN2ah  1 3.660000e-01    1.600000e+00
  SP6h TN1ar  1 3.780000e-01    1.450000e+00
  SP6r TN1ah  1 3.780000e-01    1.450000e+00
  SP5h TP5dr  1 3.650000e-01    3.370000e+00
  SP5r TP5dh  1 3.650000e-01    3.370000e+00
  SP5h TP4dr  1 3.650000e-01    3.100000e+00
  SP5r TP4dh  1 3.650000e-01    3.100000e+00
  SP5h TP3dr  1 3.650000e-01    2.830000e+00
  SP5r TP3dh  1 3.650000e-01    2.830000e+00
  SP5h TP2dr  1 3.650000e-01    2.830000e+00
  SP5r TP2dh  1 3.650000e-01    2.830000e+00
  SP5h TP1dr  1 3.650000e-01    2.570000e+00
  SP5r TP1dh  1 3.650000e-01    2.570000e+00
  SP5h TN6dr  1 3.650000e-01    2.340000e+00
  SP5r TN6dh  1 3.650000e-01    2.340000e+00
  SP5h TN5dr  1 3.650000e-01    2.110000e+00
  SP5r TN5dh  1 3.650000e-01    2.110000e+00
  SP5h TN4dr  1 3.650000e-01    2.110000e+00
  SP5r TN4dh  1 3.650000e-01    2.110000e+00
  SP5h TN3dr  1 3.650000e-01    1.750000e+00
  SP5r TN3dh  1 3.650000e-01    1.750000e+00
  SP5h TN2dr  1 3.660000e-01    1.600000e+00
  SP5r TN2dh  1 3.660000e-01    1.600000e+00
  SP5h TN1dr  1 3.780000e-01    1.450000e+00
  SP5r TN1dh  1 3.780000e-01    1.450000e+00
  SP5h TP5ar  1 3.650000e-01    3.370000e+00
  SP5r TP5ah  1 3.650000e-01    3.370000e+00
  SP5h TP4ar  1 3.650000e-01    3.100000e+00
  SP5r TP4ah  1 3.650000e-01    3.100000e+00
  SP5h TP3ar  1 3.650000e-01    2.830000e+00
  SP5r TP3ah  1 3.650000e-01    2.830000e+00
  SP5h TP2ar  1 3.650000e-01    2.830000e+00
  SP5r TP2ah  1 3.650000e-01    2.830000e+00
  SP5h TP1ar  1 3.650000e-01    2.570000e+00
  SP5r TP1ah  1 3.650000e-01    2.570000e+00
  SP5h TN6ar  1 3.650000e-01    2.340000e+00
  SP5r TN6ah  1 3.650000e-01    2.340000e+00
  SP5h TN5ar  1 3.650000e-01    2.110000e+00
  SP5r TN5ah  1 3.650000e-01    2.110000e+00
  SP5h TN4ar  1 3.650000e-01    2.110000e+00
  SP5r TN4ah  1 3.650000e-01    2.110000e+00
  SP5h TN3ar  1 3.650000e-01    1.750000e+00
  SP5r TN3ah  1 3.650000e-01    1.750000e+00
  SP5h TN2ar  1 3.660000e-01    1.600000e+00
  SP5r TN2ah  1 3.660000e-01    1.600000e+00
  SP5h TN1ar  1 3.780000e-01    1.450000e+00
  SP5r TN1ah  1 3.780000e-01    1.450000e+00
  SP4h TP4dr  1 3.650000e-01    3.100000e+00
  SP4r TP4dh  1 3.650000e-01    3.100000e+00
  SP4h TP3dr  1 3.650000e-01    2.830000e+00
  SP4r TP3dh  1 3.650000e-01    2.830000e+00
  SP4h TP2dr  1 3.650000e-01    2.830000e+00
  SP4r TP2dh  1 3.650000e-01    2.830000e+00
  SP4h TP1dr  1 3.650000e-01    2.570000e+00
  SP4r TP1dh  1 3.650000e-01    2.570000e+00
  SP4h TN6dr  1 3.650000e-01    2.340000e+00
  SP4r TN6dh  1 3.650000e-01    2.340000e+00
  SP4h TN5dr  1 3.650000e-01    2.110000e+00
  SP4r TN5dh  1 3.650000e-01    2.110000e+00
  SP4h TN4dr  1 3.650000e-01    2.110000e+00
  SP4r TN4dh  1 3.650000e-01    2.110000e+00
  SP4h TN3dr  1 3.650000e-01    1.910000e+00
  SP4r TN3dh  1 3.650000e-01    1.910000e+00
  SP4h TN2dr  1 3.650000e-01    1.750000e+00
  SP4r TN2dh  1 3.650000e-01    1.750000e+00
  SP4h TN1dr  1 3.660000e-01    1.600000e+00
  SP4r TN1dh  1 3.660000e-01    1.600000e+00
  SP4h TP4ar  1 3.650000e-01    3.100000e+00
  SP4r TP4ah  1 3.650000e-01    3.100000e+00
  SP4h TP3ar  1 3.650000e-01    2.830000e+00
  SP4r TP3ah  1 3.650000e-01    2.830000e+00
  SP4h TP2ar  1 3.650000e-01    2.830000e+00
  SP4r TP2ah  1 3.650000e-01    2.830000e+00
  SP4h TP1ar  1 3.650000e-01    2.570000e+00
  SP4r TP1ah  1 3.650000e-01    2.570000e+00
  SP4h TN6ar  1 3.650000e-01    2.340000e+00
  SP4r TN6ah  1 3.650000e-01    2.340000e+00
  SP4h TN5ar  1 3.650000e-01    2.110000e+00
  SP4r TN5ah  1 3.650000e-01    2.110000e+00
  SP4h TN4ar  1 3.650000e-01    2.110000e+00
  SP4r TN4ah  1 3.650000e-01    2.110000e+00
  SP4h TN3ar  1 3.650000e-01    1.910000e+00
  SP4r TN3ah  1 3.650000e-01    1.910000e+00
  SP4h TN2ar  1 3.650000e-01    1.750000e+00
  SP4r TN2ah  1 3.650000e-01    1.750000e+00
  SP4h TN1ar  1 3.660000e-01    1.600000e+00
  SP4r TN1ah  1 3.660000e-01    1.600000e+00
  SP3h TP3dr  1 3.650000e-01    2.830000e+00
  SP3r TP3dh  1 3.650000e-01    2.830000e+00
  SP3h TP2dr  1 3.650000e-01    2.830000e+00
  SP3r TP2dh  1 3.650000e-01    2.830000e+00
  SP3h TP1dr  1 3.650000e-01    2.570000e+00
  SP3r TP1dh  1 3.650000e-01    2.570000e+00
  SP3h TN6dr  1 3.650000e-01    2.340000e+00
  SP3r TN6dh  1 3.650000e-01    2.340000e+00
  SP3h TN5dr  1 3.650000e-01    2.110000e+00
  SP3r TN5dh  1 3.650000e-01    2.110000e+00
  SP3h TN4dr  1 3.650000e-01    2.110000e+00
  SP3r TN4dh  1 3.650000e-01    2.110000e+00
  SP3h TN3dr  1 3.650000e-01    1.910000e+00
  SP3r TN3dh  1 3.650000e-01    1.910000e+00
  SP3h TN2dr  1 3.650000e-01    1.910000e+00
  SP3r TN2dh  1 3.650000e-01    1.910000e+00
  SP3h TN1dr  1 3.650000e-01    1.750000e+00
  SP3r TN1dh  1 3.650000e-01    1.750000e+00
  SP3h TP3ar  1 3.650000e-01    2.830000e+00
  SP3r TP3ah  1 3.650000e-01    2.830000e+00
  SP3h TP2ar  1 3.650000e-01    2.830000e+00
  SP3r TP2ah  1 3.650000e-01    2.830000e+00
  SP3h TP1ar  1 3.650000e-01    2.570000e+00
  SP3r TP1ah  1 3.650000e-01    2.570000e+00
  SP3h TN6ar  1 3.650000e-01    2.340000e+00
  SP3r TN6ah  1 3.650000e-01    2.340000e+00
  SP3h TN5ar  1 3.650000e-01    2.110000e+00
  SP3r TN5ah  1 3.650000e-01    2.110000e+00
  SP3h TN4ar  1 3.650000e-01    2.110000e+00
  SP3r TN4ah  1 3.650000e-01    2.110000e+00
  SP3h TN3ar  1 3.650000e-01    1.910000e+00
  SP3r TN3ah  1 3.650000e-01    1.910000e+00
  SP3h TN2ar  1 3.650000e-01    1.910000e+00
  SP3r TN2ah  1 3.650000e-01    1.910000e+00
  SP3h TN1ar  1 3.650000e-01    1.750000e+00
  SP3r TN1ah  1 3.650000e-01    1.750000e+00
  SP2h TP2dr  1 3.650000e-01    2.830000e+00
  SP2r TP2dh  1 3.650000e-01    2.830000e+00
  SP2h TP1dr  1 3.650000e-01    2.570000e+00
  SP2r TP1dh  1 3.650000e-01    2.570000e+00
  SP2h TN6dr  1 3.650000e-01    2.570000e+00
  SP2r TN6dh  1 3.650000e-01    2.570000e+00
  SP2h TN5dr  1 3.650000e-01    2.340000e+00
  SP2r TN5dh  1 3.650000e-01    2.340000e+00
  SP2h TN4dr  1 3.650000e-01    2.110000e+00
  SP2r TN4dh  1 3.650000e-01    2.110000e+00
  SP2h TN3dr  1 3.650000e-01    1.910000e+00
  SP2r TN3dh  1 3.650000e-01    1.910000e+00
  SP2h TN2dr  1 3.650000e-01    1.910000e+00
  SP2r TN2dh  1 3.650000e-01    1.910000e+00
  SP2h TN1dr  1 3.650000e-01    1.910000e+00
  SP2r TN1dh  1 3.650000e-01    1.910000e+00
  SP2h TP2ar  1 3.650000e-01    2.830000e+00
  SP2r TP2ah  1 3.650000e-01    2.830000e+00
  SP2h TP1ar  1 3.650000e-01    2.570000e+00
  SP2r TP1ah  1 3.650000e-01    2.570000e+00
  SP2h TN6ar  1 3.650000e-01    2.570000e+00
  SP2r TN6ah  1 3.650000e-01    2.570000e+00
  SP2h TN5ar  1 3.650000e-01    2.340000e+00
  SP2r TN5ah  1 3.650000e-01    2.340000e+00
  SP2h TN4ar  1 3.650000e-01    2.110000e+00
  SP2r TN4ah  1 3.650000e-01    2.110000e+00
  SP2h TN3ar  1 3.650000e-01    1.910000e+00
  SP2r TN3ah  1 3.650000e-01    1.910000e+00
  SP2h TN2ar  1 3.650000e-01    1.910000e+00
  SP2r TN2ah  1 3.650000e-01    1.910000e+00
  SP2h TN1ar  1 3.650000e-01    1.910000e+00
  SP2r TN1ah  1 3.650000e-01    1.910000e+00
  SP1h TP1dr  1 3.650000e-01    2.570000e+00
  SP1r TP1dh  1 3.650000e-01    2.570000e+00
  SP1h TN6dr  1 3.650000e-01    2.570000e+00
  SP1r TN6dh  1 3.650000e-01    2.570000e+00
  SP1h TN5dr  1 3.650000e-01    2.340000e+00
  SP1r TN5dh  1 3.650000e-01    2.340000e+00
  SP1h TN4dr  1 3.650000e-01    2.340000e+00
  SP1r TN4dh  1 3.650000e-01    2.340000e+00
  SP1h TN3dr  1 3.650000e-01    1.910000e+00
  SP1r TN3dh  1 3.650000e-01    1.910000e+00
  SP1h TN2dr  1 3.650000e-01    1.910000e+00
  SP1r TN2dh  1 3.650000e-01    1.910000e+00
  SP1h TN1dr  1 3.650000e-01    1.910000e+00
  SP1r TN1dh  1 3.650000e-01    1.910000e+00
  SP1h TP1ar  1 3.650000e-01    2.570000e+00
  SP1r TP1ah  1 3.650000e-01    2.570000e+00
  SP1h TN6ar  1 3.650000e-01    2.570000e+00
  SP1r TN6ah  1 3.650000e-01    2.570000e+00
  SP1h TN5ar  1 3.650000e-01    2.340000e+00
  SP1r TN5ah  1 3.650000e-01    2.340000e+00
  SP1h TN4ar  1 3.650000e-01    2.340000e+00
  SP1r TN4ah  1 3.650000e-01    2.340000e+00
  SP1h TN3ar  1 3.650000e-01    1.910000e+00
  SP1r TN3ah  1 3.650000e-01    1.910000e+00
  SP1h TN2ar  1 3.650000e-01    1.910000e+00
  SP1r TN2ah  1 3.650000e-01    1.910000e+00
  SP1h TN1ar  1 3.650000e-01    1.910000e+00
  SP1r TN1ah  1 3.650000e-01    1.910000e+00
  SN6h TN6dr  1 3.650000e-01    2.570000e+00
  SN6r TN6dh  1 3.650000e-01    2.570000e+00
  SN6h TN5dr  1 3.650000e-01    2.570000e+00
  SN6r TN5dh  1 3.650000e-01    2.570000e+00
  SN6h TN4dr  1 3.650000e-01    2.570000e+00
  SN6r TN4dh  1 3.650000e-01    2.570000e+00
  SN6h TN3dr  1 3.650000e-01    2.110000e+00
  SN6r TN3dh  1 3.650000e-01    2.110000e+00
  SN6h TN2dr  1 3.650000e-01    1.910000e+00
  SN6r TN2dh  1 3.650000e-01    1.910000e+00
  SN6h TN1dr  1 3.650000e-01    1.910000e+00
  SN6r TN1dh  1 3.650000e-01    1.910000e+00
  SN6h TN6ar  1 3.650000e-01    2.570000e+00
  SN6r TN6ah  1 3.650000e-01    2.570000e+00
  SN6h TN5ar  1 3.650000e-01    2.570000e+00
  SN6r TN5ah  1 3.650000e-01    2.570000e+00
  SN6h TN4ar  1 3.650000e-01    2.570000e+00
  SN6r TN4ah  1 3.650000e-01    2.570000e+00
  SN6h TN3ar  1 3.650000e-01    2.110000e+00
  SN6r TN3ah  1 3.650000e-01    2.110000e+00
  SN6h TN2ar  1 3.650000e-01    1.910000e+00
  SN6r TN2ah  1 3.650000e-01    1.910000e+00
  SN6h TN1ar  1 3.650000e-01    1.910000e+00
  SN6r TN1ah  1 3.650000e-01    1.910000e+00
  SN5h TN5dr  1 3.650000e-01    2.340000e+00
  SN5r TN5dh  1 3.650000e-01    2.340000e+00
  SN5h TN4dr  1 3.650000e-01    2.340000e+00
  SN5r TN4dh  1 3.650000e-01    2.340000e+00
  SN5h TN3dr  1 3.650000e-01    2.110000e+00
  SN5r TN3dh  1 3.650000e-01    2.110000e+00
  SN5h TN2dr  1 3.650000e-01    2.110000e+00
  SN5r TN2dh  1 3.650000e-01    2.110000e+00
  SN5h TN1dr  1 3.650000e-01    1.910000e+00
  SN5r TN1dh  1 3.650000e-01    1.910000e+00
  SN5h TN5ar  1 3.650000e-01    2.340000e+00
  SN5r TN5ah  1 3.650000e-01    2.340000e+00
  SN5h TN4ar  1 3.650000e-01    2.340000e+00
  SN5r TN4ah  1 3.650000e-01    2.340000e+00
  SN5h TN3ar  1 3.650000e-01    2.110000e+00
  SN5r TN3ah  1 3.650000e-01    2.110000e+00
  SN5h TN2ar  1 3.650000e-01    2.110000e+00
  SN5r TN2ah  1 3.650000e-01    2.110000e+00
  SN5h TN1ar  1 3.650000e-01    1.910000e+00
  SN5r TN1ah  1 3.650000e-01    1.910000e+00
  SN4h TN4dr  1 3.650000e-01    2.340000e+00
  SN4r TN4dh  1 3.650000e-01    2.340000e+00
  SN4h TN3dr  1 3.650000e-01    2.110000e+00
  SN4r TN3dh  1 3.650000e-01    2.110000e+00
  SN4h TN2dr  1 3.650000e-01    2.110000e+00
  SN4r TN2dh  1 3.650000e-01    2.110000e+00
  SN4h TN1dr  1 3.650000e-01    1.910000e+00
  SN4r TN1dh  1 3.650000e-01    1.910000e+00
  SN4h TN4ar  1 3.650000e-01    2.340000e+00
  SN4r TN4ah  1 3.650000e-01    2.340000e+00
  SN4h TN3ar  1 3.650000e-01    2.110000e+00
  SN4r TN3ah  1 3.650000e-01    2.110000e+00
  SN4h TN2ar  1 3.650000e-01    2.110000e+00
  SN4r TN2ah  1 3.650000e-01    2.110000e+00
  SN4h TN1ar  1 3.650000e-01    1.910000e+00
  SN4r TN1ah  1 3.650000e-01    1.910000e+00
  SN3h TN3dr  1 3.650000e-01    2.110000e+00
  SN3r TN3dh  1 3.650000e-01    2.110000e+00
  SN3h TN2dr  1 3.650000e-01    2.110000e+00
  SN3r TN2dh  1 3.650000e-01    2.110000e+00
  SN3h TN1dr  1 3.650000e-01    1.910000e+00
  SN3r TN1dh  1 3.650000e-01    1.910000e+00
  SN3h TN3ar  1 3.650000e-01    2.110000e+00
  SN3r TN3ah  1 3.650000e-01    2.110000e+00
  SN3h TN2ar  1 3.650000e-01    2.110000e+00
  SN3r TN2ah  1 3.650000e-01    2.110000e+00
  SN3h TN1ar  1 3.650000e-01    1.910000e+00
  SN3r TN1ah  1 3.650000e-01    1.910000e+00
  SN2h TN2dr  1 3.650000e-01    2.110000e+00
  SN2r TN2dh  1 3.650000e-01    2.110000e+00
  SN2h TN1dr  1 3.650000e-01    1.910000e+00
  SN2r TN1dh  1 3.650000e-01    1.910000e+00
  SN2h TN2ar  1 3.650000e-01    2.110000e+00
  SN2r TN2ah  1 3.650000e-01    2.110000e+00
  SN2h TN1ar  1 3.650000e-01    1.910000e+00
  SN2r TN1ah  1 3.650000e-01    1.910000e+00
  SN1h TN1dr  1 3.650000e-01    2.110000e+00
  SN1r TN1dh  1 3.650000e-01    2.110000e+00
  SN1h TN1ar  1 3.650000e-01    2.110000e+00
  SN1r TN1ah  1 3.650000e-01    2.110000e+00
  SC6h TC6vr  1 3.650000e-01    2.340000e+00
  SC6r TC6vh  1 3.650000e-01    2.340000e+00
  SC6h TC5vr  1 3.650000e-01    2.110000e+00
  SC6r TC5vh  1 3.650000e-01    2.110000e+00
  SC6h TC4vr  1 3.650000e-01    2.110000e+00
  SC6r TC4vh  1 3.650000e-01    2.110000e+00
  SC6h TC3vr  1 3.650000e-01    1.910000e+00
  SC6r TC3vh  1 3.650000e-01    1.910000e+00
  SC6h TC2vr  1 3.650000e-01    1.750000e+00
  SC6r TC2vh  1 3.650000e-01    1.750000e+00
  SC6h TC1vr  1 3.660000e-01    1.600000e+00
  SC6r TC1vh  1 3.660000e-01    1.600000e+00
  SC6h TX4vr  1 3.650000e-01    2.110000e+00
  SC6r TX4vh  1 3.650000e-01    2.110000e+00
  SC6h TX3vr  1 3.650000e-01    2.110000e+00
  SC6r TX3vh  1 3.650000e-01    2.110000e+00
  SC6h TX2vr  1 3.650000e-01    2.110000e+00
  SC6r TX2vh  1 3.650000e-01    2.110000e+00
  SC6h TX1vr  1 3.650000e-01    2.110000e+00
  SC6r TX1vh  1 3.650000e-01    2.110000e+00
  SC6h TC6er  1 3.650000e-01    2.340000e+00
  SC6r TC6eh  1 3.650000e-01    2.340000e+00
  SC6h TC5er  1 3.650000e-01    2.110000e+00
  SC6r TC5eh  1 3.650000e-01    2.110000e+00
  SC6h TC4er  1 3.650000e-01    2.110000e+00
  SC6r TC4eh  1 3.650000e-01    2.110000e+00
  SC6h TC3er  1 3.650000e-01    1.910000e+00
  SC6r TC3eh  1 3.650000e-01    1.910000e+00
  SC6h TC2er  1 3.650000e-01    1.750000e+00
  SC6r TC2eh  1 3.650000e-01    1.750000e+00
  SC6h TC1er  1 3.660000e-01    1.600000e+00
  SC6r TC1eh  1 3.660000e-01    1.600000e+00
  SC6h TX4er  1 3.650000e-01    2.110000e+00
  SC6r TX4eh  1 3.650000e-01    2.110000e+00
  SC6h TX3er  1 3.650000e-01    2.110000e+00
  SC6r TX3eh  1 3.650000e-01    2.110000e+00
  SC6h TX2er  1 3.650000e-01    2.110000e+00
  SC6r TX2eh  1 3.650000e-01    2.110000e+00
  SC6h TX1er  1 3.650000e-01    2.110000e+00
  SC6r TX1eh  1 3.650000e-01    2.110000e+00
  SC5h TC5vr  1 3.650000e-01    2.110000e+00
  SC5r TC5vh  1 3.650000e-01    2.110000e+00
  SC5h TC4vr  1 3.650000e-01    2.110000e+00
  SC5r TC4vh  1 3.650000e-01    2.110000e+00
  SC5h TC3vr  1 3.650000e-01    1.910000e+00
  SC5r TC3vh  1 3.650000e-01    1.910000e+00
  SC5h TC2vr  1 3.650000e-01    1.750000e+00
  SC5r TC2vh  1 3.650000e-01    1.750000e+00
  SC5h TC1vr  1 3.650000e-01    1.750000e+00
  SC5r TC1vh  1 3.650000e-01    1.750000e+00
  SC5h TX4vr  1 3.650000e-01    1.910000e+00
  SC5r TX4vh  1 3.650000e-01    1.910000e+00
  SC5h TX3vr  1 3.650000e-01    1.910000e+00
  SC5r TX3vh  1 3.650000e-01    1.910000e+00
  SC5h TX2vr  1 3.650000e-01    1.910000e+00
  SC5r TX2vh  1 3.650000e-01    1.910000e+00
  SC5h TX1vr  1 3.650000e-01    2.110000e+00
  SC5r TX1vh  1 3.650000e-01    2.110000e+00
  SC5h TC5er  1 3.650000e-01    2.110000e+00
  SC5r TC5eh  1 3.650000e-01    2.110000e+00
  SC5h TC4er  1 3.650000e-01    2.110000e+00
  SC5r TC4eh  1 3.650000e-01    2.110000e+00
  SC5h TC3er  1 3.650000e-01    1.910000e+00
  SC5r TC3eh  1 3.650000e-01    1.910000e+00
  SC5h TC2er  1 3.650000e-01    1.750000e+00
  SC5r TC2eh  1 3.650000e-01    1.750000e+00
  SC5h TC1er  1 3.650000e-01    1.750000e+00
  SC5r TC1eh  1 3.650000e-01    1.750000e+00
  SC5h TX4er  1 3.650000e-01    1.910000e+00
  SC5r TX4eh  1 3.650000e-01    1.910000e+00
  SC5h TX3er  1 3.650000e-01    1.910000e+00
  SC5r TX3eh  1 3.650000e-01    1.910000e+00
  SC5h TX2er  1 3.650000e-01    1.910000e+00
  SC5r TX2eh  1 3.650000e-01    1.910000e+00
  SC5h TX1er  1 3.650000e-01    2.110000e+00
  SC5r TX1eh  1 3.650000e-01    2.110000e+00
  SC4h TC4vr  1 3.650000e-01    2.110000e+00
  SC4r TC4vh  1 3.650000e-01    2.110000e+00
  SC4h TC3vr  1 3.650000e-01    2.110000e+00
  SC4r TC3vh  1 3.650000e-01    2.110000e+00
  SC4h TC2vr  1 3.650000e-01    1.910000e+00
  SC4r TC2vh  1 3.650000e-01    1.910000e+00
  SC4h TC1vr  1 3.650000e-01    1.750000e+00
  SC4r TC1vh  1 3.650000e-01    1.750000e+00
  SC4h TX4vr  1 3.650000e-01    1.910000e+00
  SC4r TX4vh  1 3.650000e-01    1.910000e+00
  SC4h TX3vr  1 3.650000e-01    1.910000e+00
  SC4r TX3vh  1 3.650000e-01    1.910000e+00
  SC4h TX2vr  1 3.650000e-01    1.910000e+00
  SC4r TX2vh  1 3.650000e-01    1.910000e+00
  SC4h TX1vr  1 3.650000e-01    2.110000e+00
  SC4r TX1vh  1 3.650000e-01    2.110000e+00
  SC4h TC4er  1 3.650000e-01    2.110000e+00
  SC4r TC4eh  1 3.650000e-01    2.110000e+00
  SC4h TC3er  1 3.650000e-01    2.110000e+00
  SC4r TC3eh  1 3.650000e-01    2.110000e+00
  SC4h TC2er  1 3.650000e-01    1.910000e+00
  SC4r TC2eh  1 3.650000e-01    1.910000e+00
  SC4h TC1er  1 3.650000e-01    1.750000e+00
  SC4r TC1eh  1 3.650000e-01    1.750000e+00
  SC4h TX4er  1 3.650000e-01    1.910000e+00
  SC4r TX4eh  1 3.650000e-01    1.910000e+00
  SC4h TX3er  1 3.650000e-01    1.910000e+00
  SC4r TX3eh  1 3.650000e-01    1.910000e+00
  SC4h TX2er  1 3.650000e-01    1.910000e+00
  SC4r TX2eh  1 3.650000e-01    1.910000e+00
  SC4h TX1er  1 3.650000e-01    2.110000e+00
  SC4r TX1eh  1 3.650000e-01    2.110000e+00
  SC3h TC3vr  1 3.650000e-01    2.110000e+00
  SC3r TC3vh  1 3.650000e-01    2.110000e+00
  SC3h TC2vr  1 3.650000e-01    2.110000e+00
  SC3r TC2vh  1 3.650000e-01    2.110000e+00
  SC3h TC1vr  1 3.650000e-01    2.110000e+00
  SC3r TC1vh  1 3.650000e-01    2.110000e+00
  SC3h TX4vr  1 3.650000e-01    1.910000e+00
  SC3r TX4vh  1 3.650000e-01    1.910000e+00
  SC3h TX3vr  1 3.650000e-01    1.910000e+00
  SC3r TX3vh  1 3.650000e-01    1.910000e+00
  SC3h TX2vr  1 3.650000e-01    1.910000e+00
  SC3r TX2vh  1 3.650000e-01    1.910000e+00
  SC3h TX1vr  1 3.650000e-01    2.110000e+00
  SC3r TX1vh  1 3.650000e-01    2.110000e+00
  SC3h TC3er  1 3.650000e-01    2.110000e+00
  SC3r TC3eh  1 3.650000e-01    2.110000e+00
  SC3h TC2er  1 3.650000e-01    2.110000e+00
  SC3r TC2eh  1 3.650000e-01    2.110000e+00
  SC3h TC1er  1 3.650000e-01    2.110000e+00
  SC3r TC1eh  1 3.650000e-01    2.110000e+00
  SC3h TX4er  1 3.650000e-01    1.910000e+00
  SC3r TX4eh  1 3.650000e-01    1.910000e+00
  SC3h TX3er  1 3.650000e-01    1.910000e+00
  SC3r TX3eh  1 3.650000e-01    1.910000e+00
  SC3h TX2er  1 3.650000e-01    1.910000e+00
  SC3r TX2eh  1 3.650000e-01    1.910000e+00
  SC3h TX1er  1 3.650000e-01    2.110000e+00
  SC3r TX1eh  1 3.650000e-01    2.110000e+00
  SC2h TC2vr  1 3.650000e-01    2.110000e+00
  SC2r TC2vh  1 3.650000e-01    2.110000e+00
  SC2h TC1vr  1 3.650000e-01    2.340000e+00
  SC2r TC1vh  1 3.650000e-01    2.340000e+00
  SC2h TX4vr  1 3.660000e-01    1.600000e+00
  SC2r TX4vh  1 3.660000e-01    1.600000e+00
  SC2h TX3vr  1 3.650000e-01    1.910000e+00
  SC2r TX3vh  1 3.650000e-01    1.910000e+00
  SC2h TX2vr  1 3.650000e-01    1.910000e+00
  SC2r TX2vh  1 3.650000e-01    1.910000e+00
  SC2h TX1vr  1 3.650000e-01    1.910000e+00
  SC2r TX1vh  1 3.650000e-01    1.910000e+00
  SC2h TC2er  1 3.650000e-01    2.110000e+00
  SC2r TC2eh  1 3.650000e-01    2.110000e+00
  SC2h TC1er  1 3.650000e-01    2.340000e+00
  SC2r TC1eh  1 3.650000e-01    2.340000e+00
  SC2h TX4er  1 3.660000e-01    1.600000e+00
  SC2r TX4eh  1 3.660000e-01    1.600000e+00
  SC2h TX3er  1 3.650000e-01    1.910000e+00
  SC2r TX3eh  1 3.650000e-01    1.910000e+00
  SC2h TX2er  1 3.650000e-01    1.910000e+00
  SC2r TX2eh  1 3.650000e-01    1.910000e+00
  SC2h TX1er  1 3.650000e-01    1.910000e+00
  SC2r TX1eh  1 3.650000e-01    1.910000e+00
  SC1h TC1vr  1 3.650000e-01    2.110000e+00
  SC1r TC1vh  1 3.650000e-01    2.110000e+00
  SC1h TX4vr  1 3.660000e-01    1.600000e+00
  SC1r TX4vh  1 3.660000e-01    1.600000e+00
  SC1h TX3vr  1 3.650000e-01    1.910000e+00
  SC1r TX3vh  1 3.650000e-01    1.910000e+00
  SC1h TX2vr  1 3.650000e-01    1.910000e+00
  SC1r TX2vh  1 3.650000e-01    1.910000e+00
  SC1h TX1vr  1 3.650000e-01    1.910000e+00
  SC1r TX1vh  1 3.650000e-01    1.910000e+00
  SC1h TC1er  1 3.650000e-01    2.110000e+00
  SC1r TC1eh  1 3.650000e-01    2.110000e+00
  SC1h TX4er  1 3.660000e-01    1.600000e+00
  SC1r TX4eh  1 3.660000e-01    1.600000e+00
  SC1h TX3er  1 3.650000e-01    1.910000e+00
  SC1r TX3eh  1 3.650000e-01    1.910000e+00
  SC1h TX2er  1 3.650000e-01    1.910000e+00
  SC1r TX2eh  1 3.650000e-01    1.910000e+00
  SC1h TX1er  1 3.650000e-01    1.910000e+00
  SC1r TX1eh  1 3.650000e-01    1.910000e+00
  SX4h TX4vr  1 3.650000e-01    2.110000e+00
  SX4r TX4vh  1 3.650000e-01    2.110000e+00
  SX4h TX3vr  1 3.650000e-01    2.110000e+00
  SX4r TX3vh  1 3.650000e-01    2.110000e+00
  SX4h TX2vr  1 3.650000e-01    2.110000e+00
  SX4r TX2vh  1 3.650000e-01    2.110000e+00
  SX4h TX1vr  1 3.650000e-01    2.110000e+00
  SX4r TX1vh  1 3.650000e-01    2.110000e+00
  SX4h TX4er  1 3.650000e-01    2.110000e+00
  SX4r TX4eh  1 3.650000e-01    2.110000e+00
  SX4h TX3er  1 3.650000e-01    2.110000e+00
  SX4r TX3eh  1 3.650000e-01    2.110000e+00
  SX4h TX2er  1 3.650000e-01    2.110000e+00
  SX4r TX2eh  1 3.650000e-01    2.110000e+00
  SX4h TX1er  1 3.650000e-01    2.110000e+00
  SX4r TX1eh  1 3.650000e-01    2.110000e+00
  SX3h TX3vr  1 3.650000e-01    2.110000e+00
  SX3r TX3vh  1 3.650000e-01    2.110000e+00
  SX3h TX2vr  1 3.650000e-01    2.340000e+00
  SX3r TX2vh  1 3.650000e-01    2.340000e+00
  SX3h TX1vr  1 3.650000e-01    2.340000e+00
  SX3r TX1vh  1 3.650000e-01    2.340000e+00
  SX3h TX3er  1 3.650000e-01    2.110000e+00
  SX3r TX3eh  1 3.650000e-01    2.110000e+00
  SX3h TX2er  1 3.650000e-01    2.340000e+00
  SX3r TX2eh  1 3.650000e-01    2.340000e+00
  SX3h TX1er  1 3.650000e-01    2.340000e+00
  SX3r TX1eh  1 3.650000e-01    2.340000e+00
  SX2h TX2vr  1 3.650000e-01    2.340000e+00
  SX2r TX2vh  1 3.650000e-01    2.340000e+00
  SX2h TX1vr  1 3.650000e-01    2.340000e+00
  SX2r TX1vh  1 3.650000e-01    2.340000e+00
  SX2h TX2er  1 3.650000e-01    2.340000e+00
  SX2r TX2eh  1 3.650000e-01    2.340000e+00
  SX2h TX1er  1 3.650000e-01    2.340000e+00
  SX2r TX1eh  1 3.650000e-01    2.340000e+00
  SX1h TX1vr  1 3.650000e-01    2.570000e+00
  SX1r TX1vh  1 3.650000e-01    2.570000e+00
  SX1h TX1er  1 3.650000e-01    2.570000e+00
  SX1r TX1eh  1 3.650000e-01    2.570000e+00
  SP6h TC6vr  1 3.660000e-01    1.600000e+00
  SP6r TC6vh  1 3.660000e-01    1.600000e+00
  SP6h TC5vr  1 3.780000e-01    1.450000e+00
  SP6r TC5vh  1 3.780000e-01    1.450000e+00
  SP6h TC4vr  1 3.940000e-01    1.290000e+00
  SP6r TC4vh  1 3.940000e-01    1.290000e+00
  SP6h TC3vr  1 4.040000e-01    1.130000e+00
  SP6r TC3vh  1 4.040000e-01    1.130000e+00
  SP6h TC2vr  1 4.040000e-01    1.130000e+00
  SP6r TC2vh  1 4.040000e-01    1.130000e+00
  SP6h TC1vr  1 4.230000e-01    9.810000e-01
  SP6r TC1vh  1 4.230000e-01    9.810000e-01
  SP6h TX4vr  1 3.650000e-01    1.750000e+00
  SP6r TX4vh  1 3.650000e-01    1.750000e+00
  SP6h TX3vr  1 3.650000e-01    1.750000e+00
  SP6r TX3vh  1 3.650000e-01    1.750000e+00
  SP6h TX2vr  1 3.660000e-01    1.600000e+00
  SP6r TX2vh  1 3.660000e-01    1.600000e+00
  SP6h TX1vr  1 3.780000e-01    1.450000e+00
  SP6r TX1vh  1 3.780000e-01    1.450000e+00
  SP6h TC6er  1 3.660000e-01    1.600000e+00
  SP6r TC6eh  1 3.660000e-01    1.600000e+00
  SP6h TC5er  1 3.780000e-01    1.450000e+00
  SP6r TC5eh  1 3.780000e-01    1.450000e+00
  SP6h TC4er  1 3.940000e-01    1.290000e+00
  SP6r TC4eh  1 3.940000e-01    1.290000e+00
  SP6h TC3er  1 4.040000e-01    1.130000e+00
  SP6r TC3eh  1 4.040000e-01    1.130000e+00
  SP6h TC2er  1 4.040000e-01    1.130000e+00
  SP6r TC2eh  1 4.040000e-01    1.130000e+00
  SP6h TC1er  1 4.230000e-01    9.810000e-01
  SP6r TC1eh  1 4.230000e-01    9.810000e-01
  SP6h TX4er  1 3.650000e-01    1.750000e+00
  SP6r TX4eh  1 3.650000e-01    1.750000e+00
  SP6h TX3er  1 3.650000e-01    1.750000e+00
  SP6r TX3eh  1 3.650000e-01    1.750000e+00
  SP6h TX2er  1 3.660000e-01    1.600000e+00
  SP6r TX2eh  1 3.660000e-01    1.600000e+00
  SP6h TX1er  1 3.780000e-01    1.450000e+00
  SP6r TX1eh  1 3.780000e-01    1.450000e+00
  SP5h TC6vr  1 3.660000e-01    1.600000e+00
  SP5r TC6vh  1 3.660000e-01    1.600000e+00
  SP5h TC5vr  1 3.660000e-01    1.600000e+00
  SP5r TC5vh  1 3.660000e-01    1.600000e+00
  SP5h TC4vr  1 3.780000e-01    1.450000e+00
  SP5r TC4vh  1 3.780000e-01    1.450000e+00
  SP5h TC3vr  1 3.940000e-01    1.290000e+00
  SP5r TC3vh  1 3.940000e-01    1.290000e+00
  SP5h TC2vr  1 3.940000e-01    1.290000e+00
  SP5r TC2vh  1 3.940000e-01    1.290000e+00
  SP5h TC1vr  1 4.040000e-01    1.130000e+00
  SP5r TC1vh  1 4.040000e-01    1.130000e+00
  SP5h TX4vr  1 3.650000e-01    1.910000e+00
  SP5r TX4vh  1 3.650000e-01    1.910000e+00
  SP5h TX3vr  1 3.650000e-01    1.750000e+00
  SP5r TX3vh  1 3.650000e-01    1.750000e+00
  SP5h TX2vr  1 3.650000e-01    1.750000e+00
  SP5r TX2vh  1 3.650000e-01    1.750000e+00
  SP5h TX1vr  1 3.780000e-01    1.450000e+00
  SP5r TX1vh  1 3.780000e-01    1.450000e+00
  SP5h TC6er  1 3.660000e-01    1.600000e+00
  SP5r TC6eh  1 3.660000e-01    1.600000e+00
  SP5h TC5er  1 3.660000e-01    1.600000e+00
  SP5r TC5eh  1 3.660000e-01    1.600000e+00
  SP5h TC4er  1 3.780000e-01    1.450000e+00
  SP5r TC4eh  1 3.780000e-01    1.450000e+00
  SP5h TC3er  1 3.940000e-01    1.290000e+00
  SP5r TC3eh  1 3.940000e-01    1.290000e+00
  SP5h TC2er  1 3.940000e-01    1.290000e+00
  SP5r TC2eh  1 3.940000e-01    1.290000e+00
  SP5h TC1er  1 4.040000e-01    1.130000e+00
  SP5r TC1eh  1 4.040000e-01    1.130000e+00
  SP5h TX4er  1 3.650000e-01    1.910000e+00
  SP5r TX4eh  1 3.650000e-01    1.910000e+00
  SP5h TX3er  1 3.650000e-01    1.750000e+00
  SP5r TX3eh  1 3.650000e-01    1.750000e+00
  SP5h TX2er  1 3.650000e-01    1.750000e+00
  SP5r TX2eh  1 3.650000e-01    1.750000e+00
  SP5h TX1er  1 3.780000e-01    1.450000e+00
  SP5r TX1eh  1 3.780000e-01    1.450000e+00
  SP4h TC6vr  1 3.650000e-01    1.750000e+00
  SP4r TC6vh  1 3.650000e-01    1.750000e+00
  SP4h TC5vr  1 3.660000e-01    1.600000e+00
  SP4r TC5vh  1 3.660000e-01    1.600000e+00
  SP4h TC4vr  1 3.780000e-01    1.450000e+00
  SP4r TC4vh  1 3.780000e-01    1.450000e+00
  SP4h TC3vr  1 3.940000e-01    1.290000e+00
  SP4r TC3vh  1 3.940000e-01    1.290000e+00
  SP4h TC2vr  1 3.940000e-01    1.290000e+00
  SP4r TC2vh  1 3.940000e-01    1.290000e+00
  SP4h TC1vr  1 4.040000e-01    1.130000e+00
  SP4r TC1vh  1 4.040000e-01    1.130000e+00
  SP4h TX4vr  1 3.650000e-01    1.910000e+00
  SP4r TX4vh  1 3.650000e-01    1.910000e+00
  SP4h TX3vr  1 3.650000e-01    1.750000e+00
  SP4r TX3vh  1 3.650000e-01    1.750000e+00
  SP4h TX2vr  1 3.650000e-01    1.750000e+00
  SP4r TX2vh  1 3.650000e-01    1.750000e+00
  SP4h TX1vr  1 3.660000e-01    1.600000e+00
  SP4r TX1vh  1 3.660000e-01    1.600000e+00
  SP4h TC6er  1 3.650000e-01    1.750000e+00
  SP4r TC6eh  1 3.650000e-01    1.750000e+00
  SP4h TC5er  1 3.660000e-01    1.600000e+00
  SP4r TC5eh  1 3.660000e-01    1.600000e+00
  SP4h TC4er  1 3.780000e-01    1.450000e+00
  SP4r TC4eh  1 3.780000e-01    1.450000e+00
  SP4h TC3er  1 3.940000e-01    1.290000e+00
  SP4r TC3eh  1 3.940000e-01    1.290000e+00
  SP4h TC2er  1 3.940000e-01    1.290000e+00
  SP4r TC2eh  1 3.940000e-01    1.290000e+00
  SP4h TC1er  1 4.040000e-01    1.130000e+00
  SP4r TC1eh  1 4.040000e-01    1.130000e+00
  SP4h TX4er  1 3.650000e-01    1.910000e+00
  SP4r TX4eh  1 3.650000e-01    1.910000e+00
  SP4h TX3er  1 3.650000e-01    1.750000e+00
  SP4r TX3eh  1 3.650000e-01    1.750000e+00
  SP4h TX2er  1 3.650000e-01    1.750000e+00
  SP4r TX2eh  1 3.650000e-01    1.750000e+00
  SP4h TX1er  1 3.660000e-01    1.600000e+00
  SP4r TX1eh  1 3.660000e-01    1.600000e+00
  SP3h TC6vr  1 3.650000e-01    1.910000e+00
  SP3r TC6vh  1 3.650000e-01    1.910000e+00
  SP3h TC5vr  1 3.650000e-01    1.750000e+00
  SP3r TC5vh  1 3.650000e-01    1.750000e+00
  SP3h TC4vr  1 3.660000e-01    1.600000e+00
  SP3r TC4vh  1 3.660000e-01    1.600000e+00
  SP3h TC3vr  1 3.940000e-01    1.290000e+00
  SP3r TC3vh  1 3.940000e-01    1.290000e+00
  SP3h TC2vr  1 3.940000e-01    1.290000e+00
  SP3r TC2vh  1 3.940000e-01    1.290000e+00
  SP3h TC1vr  1 4.040000e-01    1.130000e+00
  SP3r TC1vh  1 4.040000e-01    1.130000e+00
  SP3h TX4vr  1 3.650000e-01    1.910000e+00
  SP3r TX4vh  1 3.650000e-01    1.910000e+00
  SP3h TX3vr  1 3.650000e-01    1.910000e+00
  SP3r TX3vh  1 3.650000e-01    1.910000e+00
  SP3h TX2vr  1 3.650000e-01    1.750000e+00
  SP3r TX2vh  1 3.650000e-01    1.750000e+00
  SP3h TX1vr  1 3.660000e-01    1.600000e+00
  SP3r TX1vh  1 3.660000e-01    1.600000e+00
  SP3h TC6er  1 3.650000e-01    1.910000e+00
  SP3r TC6eh  1 3.650000e-01    1.910000e+00
  SP3h TC5er  1 3.650000e-01    1.750000e+00
  SP3r TC5eh  1 3.650000e-01    1.750000e+00
  SP3h TC4er  1 3.660000e-01    1.600000e+00
  SP3r TC4eh  1 3.660000e-01    1.600000e+00
  SP3h TC3er  1 3.940000e-01    1.290000e+00
  SP3r TC3eh  1 3.940000e-01    1.290000e+00
  SP3h TC2er  1 3.940000e-01    1.290000e+00
  SP3r TC2eh  1 3.940000e-01    1.290000e+00
  SP3h TC1er  1 4.040000e-01    1.130000e+00
  SP3r TC1eh  1 4.040000e-01    1.130000e+00
  SP3h TX4er  1 3.650000e-01    1.910000e+00
  SP3r TX4eh  1 3.650000e-01    1.910000e+00
  SP3h TX3er  1 3.650000e-01    1.910000e+00
  SP3r TX3eh  1 3.650000e-01    1.910000e+00
  SP3h TX2er  1 3.650000e-01    1.750000e+00
  SP3r TX2eh  1 3.650000e-01    1.750000e+00
  SP3h TX1er  1 3.660000e-01    1.600000e+00
  SP3r TX1eh  1 3.660000e-01    1.600000e+00
  SP2h TC6vr  1 3.650000e-01    1.910000e+00
  SP2r TC6vh  1 3.650000e-01    1.910000e+00
  SP2h TC5vr  1 3.650000e-01    1.750000e+00
  SP2r TC5vh  1 3.650000e-01    1.750000e+00
  SP2h TC4vr  1 3.660000e-01    1.600000e+00
  SP2r TC4vh  1 3.660000e-01    1.600000e+00
  SP2h TC3vr  1 3.780000e-01    1.450000e+00
  SP2r TC3vh  1 3.780000e-01    1.450000e+00
  SP2h TC2vr  1 3.780000e-01    1.450000e+00
  SP2r TC2vh  1 3.780000e-01    1.450000e+00
  SP2h TC1vr  1 3.940000e-01    1.290000e+00
  SP2r TC1vh  1 3.940000e-01    1.290000e+00
  SP2h TX4vr  1 3.650000e-01    1.910000e+00
  SP2r TX4vh  1 3.650000e-01    1.910000e+00
  SP2h TX3vr  1 3.650000e-01    1.910000e+00
  SP2r TX3vh  1 3.650000e-01    1.910000e+00
  SP2h TX2vr  1 3.650000e-01    1.750000e+00
  SP2r TX2vh  1 3.650000e-01    1.750000e+00
  SP2h TX1vr  1 3.660000e-01    1.600000e+00
  SP2r TX1vh  1 3.660000e-01    1.600000e+00
  SP2h TC6er  1 3.650000e-01    1.910000e+00
  SP2r TC6eh  1 3.650000e-01    1.910000e+00
  SP2h TC5er  1 3.650000e-01    1.750000e+00
  SP2r TC5eh  1 3.650000e-01    1.750000e+00
  SP2h TC4er  1 3.660000e-01    1.600000e+00
  SP2r TC4eh  1 3.660000e-01    1.600000e+00
  SP2h TC3er  1 3.780000e-01    1.450000e+00
  SP2r TC3eh  1 3.780000e-01    1.450000e+00
  SP2h TC2er  1 3.780000e-01    1.450000e+00
  SP2r TC2eh  1 3.780000e-01    1.450000e+00
  SP2h TC1er  1 3.940000e-01    1.290000e+00
  SP2r TC1eh  1 3.940000e-01    1.290000e+00
  SP2h TX4er  1 3.650000e-01    1.910000e+00
  SP2r TX4eh  1 3.650000e-01    1.910000e+00
  SP2h TX3er  1 3.650000e-01    1.910000e+00
  SP2r TX3eh  1 3.650000e-01    1.910000e+00
  SP2h TX2er  1 3.650000e-01    1.750000e+00
  SP2r TX2eh  1 3.650000e-01    1.750000e+00
  SP2h TX1er  1 3.660000e-01    1.600000e+00
  SP2r TX1eh  1 3.660000e-01    1.600000e+00
  SP1h TC6vr  1 3.650000e-01    1.910000e+00
  SP1r TC6vh  1 3.650000e-01    1.910000e+00
  SP1h TC5vr  1 3.650000e-01    1.750000e+00
  SP1r TC5vh  1 3.650000e-01    1.750000e+00
  SP1h TC4vr  1 3.660000e-01    1.600000e+00
  SP1r TC4vh  1 3.660000e-01    1.600000e+00
  SP1h TC3vr  1 3.780000e-01    1.450000e+00
  SP1r TC3vh  1 3.780000e-01    1.450000e+00
  SP1h TC2vr  1 3.780000e-01    1.450000e+00
  SP1r TC2vh  1 3.780000e-01    1.450000e+00
  SP1h TC1vr  1 3.940000e-01    1.290000e+00
  SP1r TC1vh  1 3.940000e-01    1.290000e+00
  SP1h TX4vr  1 3.650000e-01    1.910000e+00
  SP1r TX4vh  1 3.650000e-01    1.910000e+00
  SP1h TX3vr  1 3.650000e-01    1.910000e+00
  SP1r TX3vh  1 3.650000e-01    1.910000e+00
  SP1h TX2vr  1 3.650000e-01    1.750000e+00
  SP1r TX2vh  1 3.650000e-01    1.750000e+00
  SP1h TX1vr  1 3.660000e-01    1.600000e+00
  SP1r TX1vh  1 3.660000e-01    1.600000e+00
  SP1h TC6er  1 3.650000e-01    1.910000e+00
  SP1r TC6eh  1 3.650000e-01    1.910000e+00
  SP1h TC5er  1 3.650000e-01    1.750000e+00
  SP1r TC5eh  1 3.650000e-01    1.750000e+00
  SP1h TC4er  1 3.660000e-01    1.600000e+00
  SP1r TC4eh  1 3.660000e-01    1.600000e+00
  SP1h TC3er  1 3.780000e-01    1.450000e+00
  SP1r TC3eh  1 3.780000e-01    1.450000e+00
  SP1h TC2er  1 3.780000e-01    1.450000e+00
  SP1r TC2eh  1 3.780000e-01    1.450000e+00
  SP1h TC1er  1 3.940000e-01    1.290000e+00
  SP1r TC1eh  1 3.940000e-01    1.290000e+00
  SP1h TX4er  1 3.650000e-01    1.910000e+00
  SP1r TX4eh  1 3.650000e-01    1.910000e+00
  SP1h TX3er  1 3.650000e-01    1.910000e+00
  SP1r TX3eh  1 3.650000e-01    1.910000e+00
  SP1h TX2er  1 3.650000e-01    1.750000e+00
  SP1r TX2eh  1 3.650000e-01    1.750000e+00
  SP1h TX1er  1 3.660000e-01    1.600000e+00
  SP1r TX1eh  1 3.660000e-01    1.600000e+00
  SN6h TC6vr  1 3.650000e-01    2.110000e+00
  SN6r TC6vh  1 3.650000e-01    2.110000e+00
  SN6h TC5vr  1 3.650000e-01    1.910000e+00
  SN6r TC5vh  1 3.650000e-01    1.910000e+00
  SN6h TC4vr  1 3.650000e-01    1.750000e+00
  SN6r TC4vh  1 3.650000e-01    1.750000e+00
  SN6h TC3vr  1 3.660000e-01    1.600000e+00
  SN6r TC3vh  1 3.660000e-01    1.600000e+00
  SN6h TC2vr  1 3.660000e-01    1.600000e+00
  SN6r TC2vh  1 3.660000e-01    1.600000e+00
  SN6h TC1vr  1 3.780000e-01    1.450000e+00
  SN6r TC1vh  1 3.780000e-01    1.450000e+00
  SN6h TX4vr  1 3.650000e-01    2.110000e+00
  SN6r TX4vh  1 3.650000e-01    2.110000e+00
  SN6h TX3vr  1 3.650000e-01    1.910000e+00
  SN6r TX3vh  1 3.650000e-01    1.910000e+00
  SN6h TX2vr  1 3.650000e-01    1.750000e+00
  SN6r TX2vh  1 3.650000e-01    1.750000e+00
  SN6h TX1vr  1 3.660000e-01    1.600000e+00
  SN6r TX1vh  1 3.660000e-01    1.600000e+00
  SN6h TC6er  1 3.650000e-01    2.110000e+00
  SN6r TC6eh  1 3.650000e-01    2.110000e+00
  SN6h TC5er  1 3.650000e-01    1.910000e+00
  SN6r TC5eh  1 3.650000e-01    1.910000e+00
  SN6h TC4er  1 3.650000e-01    1.750000e+00
  SN6r TC4eh  1 3.650000e-01    1.750000e+00
  SN6h TC3er  1 3.660000e-01    1.600000e+00
  SN6r TC3eh  1 3.660000e-01    1.600000e+00
  SN6h TC2er  1 3.660000e-01    1.600000e+00
  SN6r TC2eh  1 3.660000e-01    1.600000e+00
  SN6h TC1er  1 3.780000e-01    1.450000e+00
  SN6r TC1eh  1 3.780000e-01    1.450000e+00
  SN6h TX4er  1 3.650000e-01    2.110000e+00
  SN6r TX4eh  1 3.650000e-01    2.110000e+00
  SN6h TX3er  1 3.650000e-01    1.910000e+00
  SN6r TX3eh  1 3.650000e-01    1.910000e+00
  SN6h TX2er  1 3.650000e-01    1.750000e+00
  SN6r TX2eh  1 3.650000e-01    1.750000e+00
  SN6h TX1er  1 3.660000e-01    1.600000e+00
  SN6r TX1eh  1 3.660000e-01    1.600000e+00
  SN5h TC6vr  1 3.650000e-01    2.110000e+00
  SN5r TC6vh  1 3.650000e-01    2.110000e+00
  SN5h TC5vr  1 3.650000e-01    1.910000e+00
  SN5r TC5vh  1 3.650000e-01    1.910000e+00
  SN5h TC4vr  1 3.650000e-01    1.750000e+00
  SN5r TC4vh  1 3.650000e-01    1.750000e+00
  SN5h TC3vr  1 3.650000e-01    1.750000e+00
  SN5r TC3vh  1 3.650000e-01    1.750000e+00
  SN5h TC2vr  1 3.660000e-01    1.600000e+00
  SN5r TC2vh  1 3.660000e-01    1.600000e+00
  SN5h TC1vr  1 3.780000e-01    1.450000e+00
  SN5r TC1vh  1 3.780000e-01    1.450000e+00
  SN5h TX4vr  1 3.650000e-01    2.340000e+00
  SN5r TX4vh  1 3.650000e-01    2.340000e+00
  SN5h TX3vr  1 3.650000e-01    2.110000e+00
  SN5r TX3vh  1 3.650000e-01    2.110000e+00
  SN5h TX2vr  1 3.650000e-01    1.910000e+00
  SN5r TX2vh  1 3.650000e-01    1.910000e+00
  SN5h TX1vr  1 3.650000e-01    1.750000e+00
  SN5r TX1vh  1 3.650000e-01    1.750000e+00
  SN5h TC6er  1 3.650000e-01    2.110000e+00
  SN5r TC6eh  1 3.650000e-01    2.110000e+00
  SN5h TC5er  1 3.650000e-01    1.910000e+00
  SN5r TC5eh  1 3.650000e-01    1.910000e+00
  SN5h TC4er  1 3.650000e-01    1.750000e+00
  SN5r TC4eh  1 3.650000e-01    1.750000e+00
  SN5h TC3er  1 3.650000e-01    1.750000e+00
  SN5r TC3eh  1 3.650000e-01    1.750000e+00
  SN5h TC2er  1 3.660000e-01    1.600000e+00
  SN5r TC2eh  1 3.660000e-01    1.600000e+00
  SN5h TC1er  1 3.780000e-01    1.450000e+00
  SN5r TC1eh  1 3.780000e-01    1.450000e+00
  SN5h TX4er  1 3.650000e-01    2.340000e+00
  SN5r TX4eh  1 3.650000e-01    2.340000e+00
  SN5h TX3er  1 3.650000e-01    2.110000e+00
  SN5r TX3eh  1 3.650000e-01    2.110000e+00
  SN5h TX2er  1 3.650000e-01    1.910000e+00
  SN5r TX2eh  1 3.650000e-01    1.910000e+00
  SN5h TX1er  1 3.650000e-01    1.750000e+00
  SN5r TX1eh  1 3.650000e-01    1.750000e+00
  SN4h TC6vr  1 3.650000e-01    2.110000e+00
  SN4r TC6vh  1 3.650000e-01    2.110000e+00
  SN4h TC5vr  1 3.650000e-01    1.910000e+00
  SN4r TC5vh  1 3.650000e-01    1.910000e+00
  SN4h TC4vr  1 3.650000e-01    1.910000e+00
  SN4r TC4vh  1 3.650000e-01    1.910000e+00
  SN4h TC3vr  1 3.650000e-01    1.750000e+00
  SN4r TC3vh  1 3.650000e-01    1.750000e+00
  SN4h TC2vr  1 3.660000e-01    1.600000e+00
  SN4r TC2vh  1 3.660000e-01    1.600000e+00
  SN4h TC1vr  1 3.780000e-01    1.450000e+00
  SN4r TC1vh  1 3.780000e-01    1.450000e+00
  SN4h TX4vr  1 3.650000e-01    2.570000e+00
  SN4r TX4vh  1 3.650000e-01    2.570000e+00
  SN4h TX3vr  1 3.650000e-01    2.340000e+00
  SN4r TX3vh  1 3.650000e-01    2.340000e+00
  SN4h TX2vr  1 3.650000e-01    1.910000e+00
  SN4r TX2vh  1 3.650000e-01    1.910000e+00
  SN4h TX1vr  1 3.650000e-01    1.750000e+00
  SN4r TX1vh  1 3.650000e-01    1.750000e+00
  SN4h TC6er  1 3.650000e-01    2.110000e+00
  SN4r TC6eh  1 3.650000e-01    2.110000e+00
  SN4h TC5er  1 3.650000e-01    1.910000e+00
  SN4r TC5eh  1 3.650000e-01    1.910000e+00
  SN4h TC4er  1 3.650000e-01    1.910000e+00
  SN4r TC4eh  1 3.650000e-01    1.910000e+00
  SN4h TC3er  1 3.650000e-01    1.750000e+00
  SN4r TC3eh  1 3.650000e-01    1.750000e+00
  SN4h TC2er  1 3.660000e-01    1.600000e+00
  SN4r TC2eh  1 3.660000e-01    1.600000e+00
  SN4h TC1er  1 3.780000e-01    1.450000e+00
  SN4r TC1eh  1 3.780000e-01    1.450000e+00
  SN4h TX4er  1 3.650000e-01    2.570000e+00
  SN4r TX4eh  1 3.650000e-01    2.570000e+00
  SN4h TX3er  1 3.650000e-01    2.340000e+00
  SN4r TX3eh  1 3.650000e-01    2.340000e+00
  SN4h TX2er  1 3.650000e-01    1.910000e+00
  SN4r TX2eh  1 3.650000e-01    1.910000e+00
  SN4h TX1er  1 3.650000e-01    1.750000e+00
  SN4r TX1eh  1 3.650000e-01    1.750000e+00
  SN3h TC6vr  1 3.650000e-01    2.110000e+00
  SN3r TC6vh  1 3.650000e-01    2.110000e+00
  SN3h TC5vr  1 3.650000e-01    1.910000e+00
  SN3r TC5vh  1 3.650000e-01    1.910000e+00
  SN3h TC4vr  1 3.650000e-01    1.910000e+00
  SN3r TC4vh  1 3.650000e-01    1.910000e+00
  SN3h TC3vr  1 3.650000e-01    1.750000e+00
  SN3r TC3vh  1 3.650000e-01    1.750000e+00
  SN3h TC2vr  1 3.650000e-01    1.750000e+00
  SN3r TC2vh  1 3.650000e-01    1.750000e+00
  SN3h TC1vr  1 3.660000e-01    1.600000e+00
  SN3r TC1vh  1 3.660000e-01    1.600000e+00
  SN3h TX4vr  1 3.650000e-01    2.340000e+00
  SN3r TX4vh  1 3.650000e-01    2.340000e+00
  SN3h TX3vr  1 3.650000e-01    2.110000e+00
  SN3r TX3vh  1 3.650000e-01    2.110000e+00
  SN3h TX2vr  1 3.650000e-01    1.910000e+00
  SN3r TX2vh  1 3.650000e-01    1.910000e+00
  SN3h TX1vr  1 3.650000e-01    1.910000e+00
  SN3r TX1vh  1 3.650000e-01    1.910000e+00
  SN3h TC6er  1 3.650000e-01    2.110000e+00
  SN3r TC6eh  1 3.650000e-01    2.110000e+00
  SN3h TC5er  1 3.650000e-01    1.910000e+00
  SN3r TC5eh  1 3.650000e-01    1.910000e+00
  SN3h TC4er  1 3.650000e-01    1.910000e+00
  SN3r TC4eh  1 3.650000e-01    1.910000e+00
  SN3h TC3er  1 3.650000e-01    1.750000e+00
  SN3r TC3eh  1 3.650000e-01    1.750000e+00
  SN3h TC2er  1 3.650000e-01    1.750000e+00
  SN3r TC2eh  1 3.650000e-01    1.750000e+00
  SN3h TC1er  1 3.660000e-01    1.600000e+00
  SN3r TC1eh  1 3.660000e-01    1.600000e+00
  SN3h TX4er  1 3.650000e-01    2.340000e+00
  SN3r TX4eh  1 3.650000e-01    2.340000e+00
  SN3h TX3er  1 3.650000e-01    2.110000e+00
  SN3r TX3eh  1 3.650000e-01    2.110000e+00
  SN3h TX2er  1 3.650000e-01    1.910000e+00
  SN3r TX2eh  1 3.650000e-01    1.910000e+00
  SN3h TX1er  1 3.650000e-01    1.910000e+00
  SN3r TX1eh  1 3.650000e-01    1.910000e+00
  SN2h TC6vr  1 3.650000e-01    2.110000e+00
  SN2r TC6vh  1 3.650000e-01    2.110000e+00
  SN2h TC5vr  1 3.650000e-01    1.910000e+00
  SN2r TC5vh  1 3.650000e-01    1.910000e+00
  SN2h TC4vr  1 3.650000e-01    1.910000e+00
  SN2r TC4vh  1 3.650000e-01    1.910000e+00
  SN2h TC3vr  1 3.650000e-01    1.910000e+00
  SN2r TC3vh  1 3.650000e-01    1.910000e+00
  SN2h TC2vr  1 3.650000e-01    1.750000e+00
  SN2r TC2vh  1 3.650000e-01    1.750000e+00
  SN2h TC1vr  1 3.660000e-01    1.600000e+00
  SN2r TC1vh  1 3.660000e-01    1.600000e+00
  SN2h TX4vr  1 3.650000e-01    2.340000e+00
  SN2r TX4vh  1 3.650000e-01    2.340000e+00
  SN2h TX3vr  1 3.650000e-01    2.110000e+00
  SN2r TX3vh  1 3.650000e-01    2.110000e+00
  SN2h TX2vr  1 3.650000e-01    1.910000e+00
  SN2r TX2vh  1 3.650000e-01    1.910000e+00
  SN2h TX1vr  1 3.650000e-01    1.910000e+00
  SN2r TX1vh  1 3.650000e-01    1.910000e+00
  SN2h TC6er  1 3.650000e-01    2.110000e+00
  SN2r TC6eh  1 3.650000e-01    2.110000e+00
  SN2h TC5er  1 3.650000e-01    1.910000e+00
  SN2r TC5eh  1 3.650000e-01    1.910000e+00
  SN2h TC4er  1 3.650000e-01    1.910000e+00
  SN2r TC4eh  1 3.650000e-01    1.910000e+00
  SN2h TC3er  1 3.650000e-01    1.910000e+00
  SN2r TC3eh  1 3.650000e-01    1.910000e+00
  SN2h TC2er  1 3.650000e-01    1.750000e+00
  SN2r TC2eh  1 3.650000e-01    1.750000e+00
  SN2h TC1er  1 3.660000e-01    1.600000e+00
  SN2r TC1eh  1 3.660000e-01    1.600000e+00
  SN2h TX4er  1 3.650000e-01    2.340000e+00
  SN2r TX4eh  1 3.650000e-01    2.340000e+00
  SN2h TX3er  1 3.650000e-01    2.110000e+00
  SN2r TX3eh  1 3.650000e-01    2.110000e+00
  SN2h TX2er  1 3.650000e-01    1.910000e+00
  SN2r TX2eh  1 3.650000e-01    1.910000e+00
  SN2h TX1er  1 3.650000e-01    1.910000e+00
  SN2r TX1eh  1 3.650000e-01    1.910000e+00
  SN1h TC6vr  1 3.650000e-01    2.340000e+00
  SN1r TC6vh  1 3.650000e-01    2.340000e+00
  SN1h TC5vr  1 3.650000e-01    2.110000e+00
  SN1r TC5vh  1 3.650000e-01    2.110000e+00
  SN1h TC4vr  1 3.650000e-01    2.110000e+00
  SN1r TC4vh  1 3.650000e-01    2.110000e+00
  SN1h TC3vr  1 3.650000e-01    1.910000e+00
  SN1r TC3vh  1 3.650000e-01    1.910000e+00
  SN1h TC2vr  1 3.650000e-01    1.750000e+00
  SN1r TC2vh  1 3.650000e-01    1.750000e+00
  SN1h TC1vr  1 3.660000e-01    1.600000e+00
  SN1r TC1vh  1 3.660000e-01    1.600000e+00
  SN1h TX4vr  1 3.650000e-01    2.110000e+00
  SN1r TX4vh  1 3.650000e-01    2.110000e+00
  SN1h TX3vr  1 3.650000e-01    2.110000e+00
  SN1r TX3vh  1 3.650000e-01    2.110000e+00
  SN1h TX2vr  1 3.650000e-01    1.910000e+00
  SN1r TX2vh  1 3.650000e-01    1.910000e+00
  SN1h TX1vr  1 3.650000e-01    1.910000e+00
  SN1r TX1vh  1 3.650000e-01    1.910000e+00
  SN1h TC6er  1 3.650000e-01    2.340000e+00
  SN1r TC6eh  1 3.650000e-01    2.340000e+00
  SN1h TC5er  1 3.650000e-01    2.110000e+00
  SN1r TC5eh  1 3.650000e-01    2.110000e+00
  SN1h TC4er  1 3.650000e-01    2.110000e+00
  SN1r TC4eh  1 3.650000e-01    2.110000e+00
  SN1h TC3er  1 3.650000e-01    1.910000e+00
  SN1r TC3eh  1 3.650000e-01    1.910000e+00
  SN1h TC2er  1 3.650000e-01    1.750000e+00
  SN1r TC2eh  1 3.650000e-01    1.750000e+00
  SN1h TC1er  1 3.660000e-01    1.600000e+00
  SN1r TC1eh  1 3.660000e-01    1.600000e+00
  SN1h TX4er  1 3.650000e-01    2.110000e+00
  SN1r TX4eh  1 3.650000e-01    2.110000e+00
  SN1h TX3er  1 3.650000e-01    2.110000e+00
  SN1r TX3eh  1 3.650000e-01    2.110000e+00
  SN1h TX2er  1 3.650000e-01    1.910000e+00
  SN1r TX2eh  1 3.650000e-01    1.910000e+00
  SN1h TX1er  1 3.650000e-01    1.910000e+00
  SN1r TX1eh  1 3.650000e-01    1.910000e+00
  SP6a  TP6a  1 3.650000e-01    3.640000e+00
  SP6a  TP5a  1 3.650000e-01    3.370000e+00
  SP6a  TP4a  1 3.650000e-01    3.100000e+00
  SP6a  TP3a  1 3.650000e-01    2.830000e+00
  SP6a  TP2a  1 3.650000e-01    2.830000e+00
  SP6a  TP1a  1 3.650000e-01    2.570000e+00
  SP6a  TN6a  1 3.650000e-01    2.340000e+00
  SP6a  TN5a  1 3.650000e-01    1.910000e+00
  SP6a  TN4a  1 3.650000e-01    1.750000e+00
  SP6a  TN3a  1 3.650000e-01    1.750000e+00
  SP6a  TN2a  1 3.660000e-01    1.600000e+00
  SP6a  TN1a  1 3.780000e-01    1.450000e+00
  SP5a  TP5a  1 3.650000e-01    3.100000e+00
  SP5a  TP4a  1 3.650000e-01    2.830000e+00
  SP5a  TP3a  1 3.650000e-01    2.570000e+00
  SP5a  TP2a  1 3.650000e-01    2.570000e+00
  SP5a  TP1a  1 3.650000e-01    2.340000e+00
  SP5a  TN6a  1 3.650000e-01    2.110000e+00
  SP5a  TN5a  1 3.650000e-01    1.910000e+00
  SP5a  TN4a  1 3.650000e-01    1.910000e+00
  SP5a  TN3a  1 3.650000e-01    1.750000e+00
  SP5a  TN2a  1 3.660000e-01    1.600000e+00
  SP5a  TN1a  1 3.780000e-01    1.450000e+00
  SP4a  TP4a  1 3.650000e-01    2.830000e+00
  SP4a  TP3a  1 3.650000e-01    2.570000e+00
  SP4a  TP2a  1 3.650000e-01    2.570000e+00
  SP4a  TP1a  1 3.650000e-01    2.340000e+00
  SP4a  TN6a  1 3.650000e-01    2.110000e+00
  SP4a  TN5a  1 3.650000e-01    1.910000e+00
  SP4a  TN4a  1 3.650000e-01    1.910000e+00
  SP4a  TN3a  1 3.650000e-01    1.750000e+00
  SP4a  TN2a  1 3.650000e-01    1.750000e+00
  SP4a  TN1a  1 3.660000e-01    1.600000e+00
  SP3a  TP3a  1 3.650000e-01    2.570000e+00
  SP3a  TP2a  1 3.650000e-01    2.570000e+00
  SP3a  TP1a  1 3.650000e-01    2.340000e+00
  SP3a  TN6a  1 3.650000e-01    2.110000e+00
  SP3a  TN5a  1 3.650000e-01    1.910000e+00
  SP3a  TN4a  1 3.650000e-01    1.910000e+00
  SP3a  TN3a  1 3.650000e-01    1.750000e+00
  SP3a  TN2a  1 3.650000e-01    1.750000e+00
  SP3a  TN1a  1 3.650000e-01    1.750000e+00
  SP2a  TP2a  1 3.650000e-01    2.570000e+00
  SP2a  TP1a  1 3.650000e-01    2.340000e+00
  SP2a  TN6a  1 3.650000e-01    2.340000e+00
  SP2a  TN5a  1 3.650000e-01    2.110000e+00
  SP2a  TN4a  1 3.650000e-01    1.910000e+00
  SP2a  TN3a  1 3.650000e-01    1.750000e+00
  SP2a  TN2a  1 3.650000e-01    1.750000e+00
  SP2a  TN1a  1 3.650000e-01    1.750000e+00
  SP1a  TP1a  1 3.650000e-01    2.340000e+00
  SP1a  TN6a  1 3.650000e-01    2.340000e+00
  SP1a  TN5a  1 3.650000e-01    2.110000e+00
  SP1a  TN4a  1 3.650000e-01    2.110000e+00
  SP1a  TN3a  1 3.650000e-01    1.750000e+00
  SP1a  TN2a  1 3.650000e-01    1.750000e+00
  SP1a  TN1a  1 3.650000e-01    1.750000e+00
  SN6a  TN6a  1 3.650000e-01    2.340000e+00
  SN6a  TN5a  1 3.650000e-01    2.340000e+00
  SN6a  TN4a  1 3.650000e-01    2.340000e+00
  SN6a  TN3a  1 3.650000e-01    1.910000e+00
  SN6a  TN2a  1 3.650000e-01    1.750000e+00
  SN6a  TN1a  1 3.650000e-01    1.750000e+00
  SN5a  TN5a  1 3.650000e-01    2.110000e+00
  SN5a  TN4a  1 3.650000e-01    2.110000e+00
  SN5a  TN3a  1 3.650000e-01    1.910000e+00
  SN5a  TN2a  1 3.650000e-01    1.910000e+00
  SN5a  TN1a  1 3.650000e-01    1.750000e+00
  SN4a  TN4a  1 3.650000e-01    2.110000e+00
  SN4a  TN3a  1 3.650000e-01    1.910000e+00
  SN4a  TN2a  1 3.650000e-01    1.910000e+00
  SN4a  TN1a  1 3.650000e-01    1.750000e+00
  SN3a  TN3a  1 3.650000e-01    1.910000e+00
  SN3a  TN2a  1 3.650000e-01    1.910000e+00
  SN3a  TN1a  1 3.650000e-01    1.750000e+00
  SN2a  TN2a  1 3.650000e-01    1.910000e+00
  SN2a  TN1a  1 3.650000e-01    1.750000e+00
  SN1a  TN1a  1 3.650000e-01    1.910000e+00
  SP6d  TP6d  1 3.650000e-01    3.640000e+00
  SP6d  TP5d  1 3.650000e-01    3.370000e+00
  SP6d  TP4d  1 3.650000e-01    3.100000e+00
  SP6d  TP3d  1 3.650000e-01    2.830000e+00
  SP6d  TP2d  1 3.650000e-01    2.830000e+00
  SP6d  TP1d  1 3.650000e-01    2.570000e+00
  SP6d  TN6d  1 3.650000e-01    2.340000e+00
  SP6d  TN5d  1 3.650000e-01    1.910000e+00
  SP6d  TN4d  1 3.650000e-01    1.750000e+00
  SP6d  TN3d  1 3.650000e-01    1.750000e+00
  SP6d  TN2d  1 3.660000e-01    1.600000e+00
  SP6d  TN1d  1 3.780000e-01    1.450000e+00
  SP5d  TP5d  1 3.650000e-01    3.100000e+00
  SP5d  TP4d  1 3.650000e-01    2.830000e+00
  SP5d  TP3d  1 3.650000e-01    2.570000e+00
  SP5d  TP2d  1 3.650000e-01    2.570000e+00
  SP5d  TP1d  1 3.650000e-01    2.340000e+00
  SP5d  TN6d  1 3.650000e-01    2.110000e+00
  SP5d  TN5d  1 3.650000e-01    1.910000e+00
  SP5d  TN4d  1 3.650000e-01    1.910000e+00
  SP5d  TN3d  1 3.650000e-01    1.750000e+00
  SP5d  TN2d  1 3.660000e-01    1.600000e+00
  SP5d  TN1d  1 3.780000e-01    1.450000e+00
  SP4d  TP4d  1 3.650000e-01    2.830000e+00
  SP4d  TP3d  1 3.650000e-01    2.570000e+00
  SP4d  TP2d  1 3.650000e-01    2.570000e+00
  SP4d  TP1d  1 3.650000e-01    2.340000e+00
  SP4d  TN6d  1 3.650000e-01    2.110000e+00
  SP4d  TN5d  1 3.650000e-01    1.910000e+00
  SP4d  TN4d  1 3.650000e-01    1.910000e+00
  SP4d  TN3d  1 3.650000e-01    1.750000e+00
  SP4d  TN2d  1 3.650000e-01    1.750000e+00
  SP4d  TN1d  1 3.660000e-01    1.600000e+00
  SP3d  TP3d  1 3.650000e-01    2.570000e+00
  SP3d  TP2d  1 3.650000e-01    2.570000e+00
  SP3d  TP1d  1 3.650000e-01    2.340000e+00
  SP3d  TN6d  1 3.650000e-01    2.110000e+00
  SP3d  TN5d  1 3.650000e-01    1.910000e+00
  SP3d  TN4d  1 3.650000e-01    1.910000e+00
  SP3d  TN3d  1 3.650000e-01    1.750000e+00
  SP3d  TN2d  1 3.650000e-01    1.750000e+00
  SP3d  TN1d  1 3.650000e-01    1.750000e+00
  SP2d  TP2d  1 3.650000e-01    2.570000e+00
  SP2d  TP1d  1 3.650000e-01    2.340000e+00
  SP2d  TN6d  1 3.650000e-01    2.340000e+00
  SP2d  TN5d  1 3.650000e-01    2.110000e+00
  SP2d  TN4d  1 3.650000e-01    1.910000e+00
  SP2d  TN3d  1 3.650000e-01    1.750000e+00
  SP2d  TN2d  1 3.650000e-01    1.750000e+00
  SP2d  TN1d  1 3.650000e-01    1.750000e+00
  SP1d  TP1d  1 3.650000e-01    2.340000e+00
  SP1d  TN6d  1 3.650000e-01    2.340000e+00
  SP1d  TN5d  1 3.650000e-01    2.110000e+00
  SP1d  TN4d  1 3.650000e-01    2.110000e+00
  SP1d  TN3d  1 3.650000e-01    1.750000e+00
  SP1d  TN2d  1 3.650000e-01    1.750000e+00
  SP1d  TN1d  1 3.650000e-01    1.750000e+00
  SN6d  TN6d  1 3.650000e-01    2.340000e+00
  SN6d  TN5d  1 3.650000e-01    2.340000e+00
  SN6d  TN4d  1 3.650000e-01    2.340000e+00
  SN6d  TN3d  1 3.650000e-01    1.910000e+00
  SN6d  TN2d  1 3.650000e-01    1.750000e+00
  SN6d  TN1d  1 3.650000e-01    1.750000e+00
  SN5d  TN5d  1 3.650000e-01    2.110000e+00
  SN5d  TN4d  1 3.650000e-01    2.110000e+00
  SN5d  TN3d  1 3.650000e-01    1.910000e+00
  SN5d  TN2d  1 3.650000e-01    1.910000e+00
  SN5d  TN1d  1 3.650000e-01    1.750000e+00
  SN4d  TN4d  1 3.650000e-01    2.110000e+00
  SN4d  TN3d  1 3.650000e-01    1.910000e+00
  SN4d  TN2d  1 3.650000e-01    1.910000e+00
  SN4d  TN1d  1 3.650000e-01    1.750000e+00
  SN3d  TN3d  1 3.650000e-01    1.910000e+00
  SN3d  TN2d  1 3.650000e-01    1.910000e+00
  SN3d  TN1d  1 3.650000e-01    1.750000e+00
  SN2d  TN2d  1 3.650000e-01    1.910000e+00
  SN2d  TN1d  1 3.650000e-01    1.750000e+00
  SN1d  TN1d  1 3.650000e-01    1.910000e+00
  SP6d  TP6a  1 3.650000e-01    4.220000e+00
  SP6d  TP5a  1 3.650000e-01    3.930000e+00
  SP6a  TP5d  1 3.650000e-01    3.930000e+00
  SP6d  TP4a  1 3.650000e-01    3.640000e+00
  SP6a  TP4d  1 3.650000e-01    3.640000e+00
  SP6d  TP3a  1 3.650000e-01    3.370000e+00
  SP6a  TP3d  1 3.650000e-01    3.370000e+00
  SP6d  TP2a  1 3.650000e-01    3.370000e+00
  SP6a  TP2d  1 3.650000e-01    3.370000e+00
  SP6d  TP1a  1 3.650000e-01    3.100000e+00
  SP6a  TP1d  1 3.650000e-01    3.100000e+00
  SP6d  TN6a  1 3.650000e-01    2.830000e+00
  SP6a  TN6d  1 3.650000e-01    2.830000e+00
  SP6d  TN5a  1 3.650000e-01    2.340000e+00
  SP6a  TN5d  1 3.650000e-01    2.340000e+00
  SP6d  TN4a  1 3.650000e-01    2.110000e+00
  SP6a  TN4d  1 3.650000e-01    2.110000e+00
  SP6d  TN3a  1 3.650000e-01    1.750000e+00
  SP6a  TN3d  1 3.650000e-01    1.750000e+00
  SP6d  TN2a  1 3.660000e-01    1.600000e+00
  SP6a  TN2d  1 3.660000e-01    1.600000e+00
  SP6d  TN1a  1 3.780000e-01    1.450000e+00
  SP6a  TN1d  1 3.780000e-01    1.450000e+00
  SP5d  TP5a  1 3.650000e-01    3.640000e+00
  SP5d  TP4a  1 3.650000e-01    3.370000e+00
  SP5a  TP4d  1 3.650000e-01    3.370000e+00
  SP5d  TP3a  1 3.650000e-01    3.100000e+00
  SP5a  TP3d  1 3.650000e-01    3.100000e+00
  SP5d  TP2a  1 3.650000e-01    3.100000e+00
  SP5a  TP2d  1 3.650000e-01    3.100000e+00
  SP5d  TP1a  1 3.650000e-01    2.830000e+00
  SP5a  TP1d  1 3.650000e-01    2.830000e+00
  SP5d  TN6a  1 3.650000e-01    2.570000e+00
  SP5a  TN6d  1 3.650000e-01    2.570000e+00
  SP5d  TN5a  1 3.650000e-01    2.340000e+00
  SP5a  TN5d  1 3.650000e-01    2.340000e+00
  SP5d  TN4a  1 3.650000e-01    2.340000e+00
  SP5a  TN4d  1 3.650000e-01    2.340000e+00
  SP5d  TN3a  1 3.650000e-01    1.750000e+00
  SP5a  TN3d  1 3.650000e-01    1.750000e+00
  SP5d  TN2a  1 3.660000e-01    1.600000e+00
  SP5a  TN2d  1 3.660000e-01    1.600000e+00
  SP5d  TN1a  1 3.780000e-01    1.450000e+00
  SP5a  TN1d  1 3.780000e-01    1.450000e+00
  SP4d  TP4a  1 3.650000e-01    3.370000e+00
  SP4d  TP3a  1 3.650000e-01    3.100000e+00
  SP4a  TP3d  1 3.650000e-01    3.100000e+00
  SP4d  TP2a  1 3.650000e-01    3.100000e+00
  SP4a  TP2d  1 3.650000e-01    3.100000e+00
  SP4d  TP1a  1 3.650000e-01    2.830000e+00
  SP4a  TP1d  1 3.650000e-01    2.830000e+00
  SP4d  TN6a  1 3.650000e-01    2.570000e+00
  SP4a  TN6d  1 3.650000e-01    2.570000e+00
  SP4d  TN5a  1 3.650000e-01    2.340000e+00
  SP4a  TN5d  1 3.650000e-01    2.340000e+00
  SP4d  TN4a  1 3.650000e-01    2.340000e+00
  SP4a  TN4d  1 3.650000e-01    2.340000e+00
  SP4d  TN3a  1 3.650000e-01    2.110000e+00
  SP4a  TN3d  1 3.650000e-01    2.110000e+00
  SP4d  TN2a  1 3.650000e-01    1.750000e+00
  SP4a  TN2d  1 3.650000e-01    1.750000e+00
  SP4d  TN1a  1 3.660000e-01    1.600000e+00
  SP4a  TN1d  1 3.660000e-01    1.600000e+00
  SP3d  TP3a  1 3.650000e-01    3.100000e+00
  SP3d  TP2a  1 3.650000e-01    3.100000e+00
  SP3a  TP2d  1 3.650000e-01    3.100000e+00
  SP3d  TP1a  1 3.650000e-01    2.830000e+00
  SP3a  TP1d  1 3.650000e-01    2.830000e+00
  SP3d  TN6a  1 3.650000e-01    2.570000e+00
  SP3a  TN6d  1 3.650000e-01    2.570000e+00
  SP3d  TN5a  1 3.650000e-01    2.340000e+00
  SP3a  TN5d  1 3.650000e-01    2.340000e+00
  SP3d  TN4a  1 3.650000e-01    2.340000e+00
  SP3a  TN4d  1 3.650000e-01    2.340000e+00
  SP3d  TN3a  1 3.650000e-01    2.110000e+00
  SP3a  TN3d  1 3.650000e-01    2.110000e+00
  SP3d  TN2a  1 3.650000e-01    2.110000e+00
  SP3a  TN2d  1 3.650000e-01    2.110000e+00
  SP3d  TN1a  1 3.650000e-01    1.750000e+00
  SP3a  TN1d  1 3.650000e-01    1.750000e+00
  SP2d  TP2a  1 3.650000e-01    3.100000e+00
  SP2d  TP1a  1 3.650000e-01    2.830000e+00
  SP2a  TP1d  1 3.650000e-01    2.830000e+00
  SP2d  TN6a  1 3.650000e-01    2.830000e+00
  SP2a  TN6d  1 3.650000e-01    2.830000e+00
  SP2d  TN5a  1 3.650000e-01    2.570000e+00
  SP2a  TN5d  1 3.650000e-01    2.570000e+00
  SP2d  TN4a  1 3.650000e-01    2.340000e+00
  SP2a  TN4d  1 3.650000e-01    2.340000e+00
  SP2d  TN3a  1 3.650000e-01    2.110000e+00
  SP2a  TN3d  1 3.650000e-01    2.110000e+00
  SP2d  TN2a  1 3.650000e-01    2.110000e+00
  SP2a  TN2d  1 3.650000e-01    2.110000e+00
  SP2d  TN1a  1 3.650000e-01    2.110000e+00
  SP2a  TN1d  1 3.650000e-01    2.110000e+00
  SP1d  TP1a  1 3.650000e-01    2.830000e+00
  SP1d  TN6a  1 3.650000e-01    2.830000e+00
  SP1a  TN6d  1 3.650000e-01    2.830000e+00
  SP1d  TN5a  1 3.650000e-01    2.570000e+00
  SP1a  TN5d  1 3.650000e-01    2.570000e+00
  SP1d  TN4a  1 3.650000e-01    2.570000e+00
  SP1a  TN4d  1 3.650000e-01    2.570000e+00
  SP1d  TN3a  1 3.650000e-01    2.110000e+00
  SP1a  TN3d  1 3.650000e-01    2.110000e+00
  SP1d  TN2a  1 3.650000e-01    2.110000e+00
  SP1a  TN2d  1 3.650000e-01    2.110000e+00
  SP1d  TN1a  1 3.650000e-01    2.110000e+00
  SP1a  TN1d  1 3.650000e-01    2.110000e+00
  SN6d  TN6a  1 3.650000e-01    2.830000e+00
  SN6d  TN5a  1 3.650000e-01    2.830000e+00
  SN6a  TN5d  1 3.650000e-01    2.830000e+00
  SN6d  TN4a  1 3.650000e-01    2.830000e+00
  SN6a  TN4d  1 3.650000e-01    2.830000e+00
  SN6d  TN3a  1 3.650000e-01    2.340000e+00
  SN6a  TN3d  1 3.650000e-01    2.340000e+00
  SN6d  TN2a  1 3.650000e-01    2.110000e+00
  SN6a  TN2d  1 3.650000e-01    2.110000e+00
  SN6d  TN1a  1 3.650000e-01    2.110000e+00
  SN6a  TN1d  1 3.650000e-01    2.110000e+00
  SN5d  TN5a  1 3.650000e-01    2.570000e+00
  SN5d  TN4a  1 3.650000e-01    2.570000e+00
  SN5a  TN4d  1 3.650000e-01    2.570000e+00
  SN5d  TN3a  1 3.650000e-01    2.340000e+00
  SN5a  TN3d  1 3.650000e-01    2.340000e+00
  SN5d  TN2a  1 3.650000e-01    2.340000e+00
  SN5a  TN2d  1 3.650000e-01    2.340000e+00
  SN5d  TN1a  1 3.650000e-01    2.110000e+00
  SN5a  TN1d  1 3.650000e-01    2.110000e+00
  SN4d  TN4a  1 3.650000e-01    2.570000e+00
  SN4d  TN3a  1 3.650000e-01    2.340000e+00
  SN4a  TN3d  1 3.650000e-01    2.340000e+00
  SN4d  TN2a  1 3.650000e-01    2.340000e+00
  SN4a  TN2d  1 3.650000e-01    2.340000e+00
  SN4d  TN1a  1 3.650000e-01    2.110000e+00
  SN4a  TN1d  1 3.650000e-01    2.110000e+00
  SN3d  TN3a  1 3.650000e-01    2.340000e+00
  SN3d  TN2a  1 3.650000e-01    2.340000e+00
  SN3a  TN2d  1 3.650000e-01    2.340000e+00
  SN3d  TN1a  1 3.650000e-01    2.110000e+00
  SN3a  TN1d  1 3.650000e-01    2.110000e+00
  SN2d  TN2a  1 3.650000e-01    2.340000e+00
  SN2d  TN1a  1 3.650000e-01    2.110000e+00
  SN2a  TN1d  1 3.650000e-01    2.110000e+00
  SN1d  TN1a  1 3.650000e-01    2.340000e+00
  SC6v  TC6v  1 3.650000e-01    1.910000e+00
  SC6v  TC5v  1 3.650000e-01    1.750000e+00
  SC6v  TC4v  1 3.650000e-01    1.750000e+00
  SC6v  TC3v  1 3.660000e-01    1.600000e+00
  SC6v  TC2v  1 3.780000e-01    1.450000e+00
  SC6v  TC1v  1 3.940000e-01    1.290000e+00
  SC6v  TX4v  1 3.650000e-01    1.750000e+00
  SC6v  TX3v  1 3.650000e-01    1.750000e+00
  SC6v  TX2v  1 3.650000e-01    1.750000e+00
  SC6v  TX1v  1 3.650000e-01    1.750000e+00
  SC5v  TC5v  1 3.650000e-01    1.750000e+00
  SC5v  TC4v  1 3.650000e-01    1.750000e+00
  SC5v  TC3v  1 3.660000e-01    1.600000e+00
  SC5v  TC2v  1 3.780000e-01    1.450000e+00
  SC5v  TC1v  1 3.780000e-01    1.450000e+00
  SC5v  TX4v  1 3.660000e-01    1.600000e+00
  SC5v  TX3v  1 3.660000e-01    1.600000e+00
  SC5v  TX2v  1 3.660000e-01    1.600000e+00
  SC5v  TX1v  1 3.650000e-01    1.750000e+00
  SC4v  TC4v  1 3.650000e-01    1.750000e+00
  SC4v  TC3v  1 3.650000e-01    1.750000e+00
  SC4v  TC2v  1 3.660000e-01    1.600000e+00
  SC4v  TC1v  1 3.780000e-01    1.450000e+00
  SC4v  TX4v  1 3.660000e-01    1.600000e+00
  SC4v  TX3v  1 3.660000e-01    1.600000e+00
  SC4v  TX2v  1 3.660000e-01    1.600000e+00
  SC4v  TX1v  1 3.650000e-01    1.750000e+00
  SC3v  TC3v  1 3.650000e-01    1.750000e+00
  SC3v  TC2v  1 3.650000e-01    1.750000e+00
  SC3v  TC1v  1 3.650000e-01    1.750000e+00
  SC3v  TX4v  1 3.660000e-01    1.600000e+00
  SC3v  TX3v  1 3.660000e-01    1.600000e+00
  SC3v  TX2v  1 3.660000e-01    1.600000e+00
  SC3v  TX1v  1 3.650000e-01    1.750000e+00
  SC2v  TC2v  1 3.650000e-01    1.750000e+00
  SC2v  TC1v  1 3.650000e-01    1.910000e+00
  SC2v  TX4v  1 3.940000e-01    1.290000e+00
  SC2v  TX3v  1 3.660000e-01    1.600000e+00
  SC2v  TX2v  1 3.660000e-01    1.600000e+00
  SC2v  TX1v  1 3.660000e-01    1.600000e+00
  SC1v  TC1v  1 3.650000e-01    1.750000e+00
  SC1v  TX4v  1 3.940000e-01    1.290000e+00
  SC1v  TX3v  1 3.660000e-01    1.600000e+00
  SC1v  TX2v  1 3.660000e-01    1.600000e+00
  SC1v  TX1v  1 3.660000e-01    1.600000e+00
  SX4v  TX4v  1 3.650000e-01    1.750000e+00
  SX4v  TX3v  1 3.650000e-01    1.750000e+00
  SX4v  TX2v  1 3.650000e-01    1.750000e+00
  SX4v  TX1v  1 3.650000e-01    1.750000e+00
  SX3v  TX3v  1 3.650000e-01    1.750000e+00
  SX3v  TX2v  1 3.650000e-01    1.910000e+00
  SX3v  TX1v  1 3.650000e-01    1.910000e+00
  SX2v  TX2v  1 3.650000e-01    1.910000e+00
  SX2v  TX1v  1 3.650000e-01    1.910000e+00
  SX1v  TX1v  1 3.650000e-01    2.110000e+00
  SC6e  TC6e  1 3.650000e-01    1.910000e+00
  SC6e  TC5e  1 3.650000e-01    1.750000e+00
  SC6e  TC4e  1 3.650000e-01    1.750000e+00
  SC6e  TC3e  1 3.660000e-01    1.600000e+00
  SC6e  TC2e  1 3.780000e-01    1.450000e+00
  SC6e  TC1e  1 3.940000e-01    1.290000e+00
  SC6e  TX4e  1 3.650000e-01    1.750000e+00
  SC6e  TX3e  1 3.650000e-01    1.750000e+00
  SC6e  TX2e  1 3.650000e-01    1.750000e+00
  SC6e  TX1e  1 3.650000e-01    1.750000e+00
  SC5e  TC5e  1 3.650000e-01    1.750000e+00
  SC5e  TC4e  1 3.650000e-01    1.750000e+00
  SC5e  TC3e  1 3.660000e-01    1.600000e+00
  SC5e  TC2e  1 3.780000e-01    1.450000e+00
  SC5e  TC1e  1 3.780000e-01    1.450000e+00
  SC5e  TX4e  1 3.660000e-01    1.600000e+00
  SC5e  TX3e  1 3.660000e-01    1.600000e+00
  SC5e  TX2e  1 3.660000e-01    1.600000e+00
  SC5e  TX1e  1 3.650000e-01    1.750000e+00
  SC4e  TC4e  1 3.650000e-01    1.750000e+00
  SC4e  TC3e  1 3.650000e-01    1.750000e+00
  SC4e  TC2e  1 3.660000e-01    1.600000e+00
  SC4e  TC1e  1 3.780000e-01    1.450000e+00
  SC4e  TX4e  1 3.660000e-01    1.600000e+00
  SC4e  TX3e  1 3.660000e-01    1.600000e+00
  SC4e  TX2e  1 3.660000e-01    1.600000e+00
  SC4e  TX1e  1 3.650000e-01    1.750000e+00
  SC3e  TC3e  1 3.650000e-01    1.750000e+00
  SC3e  TC2e  1 3.650000e-01    1.750000e+00
  SC3e  TC1e  1 3.650000e-01    1.750000e+00
  SC3e  TX4e  1 3.660000e-01    1.600000e+00
  SC3e  TX3e  1 3.660000e-01    1.600000e+00
  SC3e  TX2e  1 3.660000e-01    1.600000e+00
  SC3e  TX1e  1 3.650000e-01    1.750000e+00
  SC2e  TC2e  1 3.650000e-01    1.750000e+00
  SC2e  TC1e  1 3.650000e-01    1.910000e+00
  SC2e  TX4e  1 3.940000e-01    1.290000e+00
  SC2e  TX3e  1 3.660000e-01    1.600000e+00
  SC2e  TX2e  1 3.660000e-01    1.600000e+00
  SC2e  TX1e  1 3.660000e-01    1.600000e+00
  SC1e  TC1e  1 3.650000e-01    1.750000e+00
  SC1e  TX4e  1 3.940000e-01    1.290000e+00
  SC1e  TX3e  1 3.660000e-01    1.600000e+00
  SC1e  TX2e  1 3.660000e-01    1.600000e+00
  SC1e  TX1e  1 3.660000e-01    1.600000e+00
  SX4e  TX4e  1 3.650000e-01    1.750000e+00
  SX4e  TX3e  1 3.650000e-01    1.750000e+00
  SX4e  TX2e  1 3.650000e-01    1.750000e+00
  SX4e  TX1e  1 3.650000e-01    1.750000e+00
  SX3e  TX3e  1 3.650000e-01    1.750000e+00
  SX3e  TX2e  1 3.650000e-01    1.910000e+00
  SX3e  TX1e  1 3.650000e-01    1.910000e+00
  SX2e  TX2e  1 3.650000e-01    1.910000e+00
  SX2e  TX1e  1 3.650000e-01    1.910000e+00
  SX1e  TX1e  1 3.650000e-01    2.110000e+00
  SC6v  TC6e  1 3.650000e-01    2.570000e+00
  SC6v  TC5e  1 3.650000e-01    2.340000e+00
  SC6e  TC5v  1 3.650000e-01    2.340000e+00
  SC6v  TC4e  1 3.650000e-01    2.340000e+00
  SC6e  TC4v  1 3.650000e-01    2.340000e+00
  SC6v  TC3e  1 3.650000e-01    2.110000e+00
  SC6e  TC3v  1 3.650000e-01    2.110000e+00
  SC6v  TC2e  1 3.650000e-01    1.910000e+00
  SC6e  TC2v  1 3.650000e-01    1.910000e+00
  SC6v  TC1e  1 3.650000e-01    1.750000e+00
  SC6e  TC1v  1 3.650000e-01    1.750000e+00
  SC6v  TX4e  1 3.650000e-01    2.340000e+00
  SC6e  TX4v  1 3.650000e-01    2.340000e+00
  SC6v  TX3e  1 3.650000e-01    2.340000e+00
  SC6e  TX3v  1 3.650000e-01    2.340000e+00
  SC6v  TX2e  1 3.650000e-01    2.340000e+00
  SC6e  TX2v  1 3.650000e-01    2.340000e+00
  SC6v  TX1e  1 3.650000e-01    2.340000e+00
  SC6e  TX1v  1 3.650000e-01    2.340000e+00
  SC5v  TC5e  1 3.650000e-01    2.340000e+00
  SC5v  TC4e  1 3.650000e-01    2.340000e+00
  SC5e  TC4v  1 3.650000e-01    2.340000e+00
  SC5v  TC3e  1 3.650000e-01    2.110000e+00
  SC5e  TC3v  1 3.650000e-01    2.110000e+00
  SC5v  TC2e  1 3.650000e-01    1.910000e+00
  SC5e  TC2v  1 3.650000e-01    1.910000e+00
  SC5v  TC1e  1 3.650000e-01    1.910000e+00
  SC5e  TC1v  1 3.650000e-01    1.910000e+00
  SC5v  TX4e  1 3.650000e-01    2.110000e+00
  SC5e  TX4v  1 3.650000e-01    2.110000e+00
  SC5v  TX3e  1 3.650000e-01    2.110000e+00
  SC5e  TX3v  1 3.650000e-01    2.110000e+00
  SC5v  TX2e  1 3.650000e-01    2.110000e+00
  SC5e  TX2v  1 3.650000e-01    2.110000e+00
  SC5v  TX1e  1 3.650000e-01    2.340000e+00
  SC5e  TX1v  1 3.650000e-01    2.340000e+00
  SC4v  TC4e  1 3.650000e-01    2.340000e+00
  SC4v  TC3e  1 3.650000e-01    2.340000e+00
  SC4e  TC3v  1 3.650000e-01    2.340000e+00
  SC4v  TC2e  1 3.650000e-01    2.110000e+00
  SC4e  TC2v  1 3.650000e-01    2.110000e+00
  SC4v  TC1e  1 3.650000e-01    1.910000e+00
  SC4e  TC1v  1 3.650000e-01    1.910000e+00
  SC4v  TX4e  1 3.650000e-01    2.110000e+00
  SC4e  TX4v  1 3.650000e-01    2.110000e+00
  SC4v  TX3e  1 3.650000e-01    2.110000e+00
  SC4e  TX3v  1 3.650000e-01    2.110000e+00
  SC4v  TX2e  1 3.650000e-01    2.110000e+00
  SC4e  TX2v  1 3.650000e-01    2.110000e+00
  SC4v  TX1e  1 3.650000e-01    2.340000e+00
  SC4e  TX1v  1 3.650000e-01    2.340000e+00
  SC3v  TC3e  1 3.650000e-01    2.340000e+00
  SC3v  TC2e  1 3.650000e-01    2.340000e+00
  SC3e  TC2v  1 3.650000e-01    2.340000e+00
  SC3v  TC1e  1 3.650000e-01    2.340000e+00
  SC3e  TC1v  1 3.650000e-01    2.340000e+00
  SC3v  TX4e  1 3.650000e-01    2.110000e+00
  SC3e  TX4v  1 3.650000e-01    2.110000e+00
  SC3v  TX3e  1 3.650000e-01    2.110000e+00
  SC3e  TX3v  1 3.650000e-01    2.110000e+00
  SC3v  TX2e  1 3.650000e-01    2.110000e+00
  SC3e  TX2v  1 3.650000e-01    2.110000e+00
  SC3v  TX1e  1 3.650000e-01    2.340000e+00
  SC3e  TX1v  1 3.650000e-01    2.340000e+00
  SC2v  TC2e  1 3.650000e-01    2.340000e+00
  SC2v  TC1e  1 3.650000e-01    2.570000e+00
  SC2e  TC1v  1 3.650000e-01    2.570000e+00
  SC2v  TX4e  1 3.650000e-01    1.750000e+00
  SC2e  TX4v  1 3.650000e-01    1.750000e+00
  SC2v  TX3e  1 3.650000e-01    2.110000e+00
  SC2e  TX3v  1 3.650000e-01    2.110000e+00
  SC2v  TX2e  1 3.650000e-01    2.110000e+00
  SC2e  TX2v  1 3.650000e-01    2.110000e+00
  SC2v  TX1e  1 3.650000e-01    2.110000e+00
  SC2e  TX1v  1 3.650000e-01    2.110000e+00
  SC1v  TC1e  1 3.650000e-01    2.340000e+00
  SC1v  TX4e  1 3.650000e-01    1.750000e+00
  SC1e  TX4v  1 3.650000e-01    1.750000e+00
  SC1v  TX3e  1 3.650000e-01    2.110000e+00
  SC1e  TX3v  1 3.650000e-01    2.110000e+00
  SC1v  TX2e  1 3.650000e-01    2.110000e+00
  SC1e  TX2v  1 3.650000e-01    2.110000e+00
  SC1v  TX1e  1 3.650000e-01    2.110000e+00
  SC1e  TX1v  1 3.650000e-01    2.110000e+00
  SX4v  TX4e  1 3.650000e-01    2.340000e+00
  SX4v  TX3e  1 3.650000e-01    2.340000e+00
  SX4e  TX3v  1 3.650000e-01    2.340000e+00
  SX4v  TX2e  1 3.650000e-01    2.340000e+00
  SX4e  TX2v  1 3.650000e-01    2.340000e+00
  SX4v  TX1e  1 3.650000e-01    2.340000e+00
  SX4e  TX1v  1 3.650000e-01    2.340000e+00
  SX3v  TX3e  1 3.650000e-01    2.340000e+00
  SX3v  TX2e  1 3.650000e-01    2.570000e+00
  SX3e  TX2v  1 3.650000e-01    2.570000e+00
  SX3v  TX1e  1 3.650000e-01    2.570000e+00
  SX3e  TX1v  1 3.650000e-01    2.570000e+00
  SX2v  TX2e  1 3.650000e-01    2.570000e+00
  SX2v  TX1e  1 3.650000e-01    2.570000e+00
  SX2e  TX1v  1 3.650000e-01    2.570000e+00
  SX1v  TX1e  1 3.650000e-01    2.830000e+00
  SP6d  TC6e  1 3.660000e-01    1.600000e+00
  SP6d  TC5e  1 3.780000e-01    1.450000e+00
  SP6d  TC4e  1 3.940000e-01    1.290000e+00
  SP6d  TC3e  1 4.040000e-01    1.130000e+00
  SP6d  TC2e  1 4.040000e-01    1.130000e+00
  SP6d  TC1e  1 4.230000e-01    9.810000e-01
  SP6d  TX4e  1 3.650000e-01    1.750000e+00
  SP6d  TX3e  1 3.650000e-01    1.750000e+00
  SP6d  TX2e  1 3.660000e-01    1.600000e+00
  SP6d  TX1e  1 3.780000e-01    1.450000e+00
  SP5d  TC6e  1 3.660000e-01    1.600000e+00
  SP5d  TC5e  1 3.660000e-01    1.600000e+00
  SP5d  TC4e  1 3.780000e-01    1.450000e+00
  SP5d  TC3e  1 3.940000e-01    1.290000e+00
  SP5d  TC2e  1 3.940000e-01    1.290000e+00
  SP5d  TC1e  1 4.040000e-01    1.130000e+00
  SP5d  TX4e  1 3.650000e-01    1.910000e+00
  SP5d  TX3e  1 3.650000e-01    1.750000e+00
  SP5d  TX2e  1 3.650000e-01    1.750000e+00
  SP5d  TX1e  1 3.780000e-01    1.450000e+00
  SP4d  TC6e  1 3.650000e-01    1.750000e+00
  SP4d  TC5e  1 3.660000e-01    1.600000e+00
  SP4d  TC4e  1 3.780000e-01    1.450000e+00
  SP4d  TC3e  1 3.940000e-01    1.290000e+00
  SP4d  TC2e  1 3.940000e-01    1.290000e+00
  SP4d  TC1e  1 4.040000e-01    1.130000e+00
  SP4d  TX4e  1 3.650000e-01    1.910000e+00
  SP4d  TX3e  1 3.650000e-01    1.750000e+00
  SP4d  TX2e  1 3.650000e-01    1.750000e+00
  SP4d  TX1e  1 3.660000e-01    1.600000e+00
  SP3d  TC6e  1 3.650000e-01    1.910000e+00
  SP3d  TC5e  1 3.650000e-01    1.750000e+00
  SP3d  TC4e  1 3.660000e-01    1.600000e+00
  SP3d  TC3e  1 3.940000e-01    1.290000e+00
  SP3d  TC2e  1 3.940000e-01    1.290000e+00
  SP3d  TC1e  1 4.040000e-01    1.130000e+00
  SP3d  TX4e  1 3.650000e-01    1.910000e+00
  SP3d  TX3e  1 3.650000e-01    1.910000e+00
  SP3d  TX2e  1 3.650000e-01    1.750000e+00
  SP3d  TX1e  1 3.660000e-01    1.600000e+00
  SP2d  TC6e  1 3.650000e-01    1.910000e+00
  SP2d  TC5e  1 3.650000e-01    1.750000e+00
  SP2d  TC4e  1 3.660000e-01    1.600000e+00
  SP2d  TC3e  1 3.780000e-01    1.450000e+00
  SP2d  TC2e  1 3.780000e-01    1.450000e+00
  SP2d  TC1e  1 3.940000e-01    1.290000e+00
  SP2d  TX4e  1 3.650000e-01    1.910000e+00
  SP2d  TX3e  1 3.650000e-01    1.910000e+00
  SP2d  TX2e  1 3.650000e-01    1.750000e+00
  SP2d  TX1e  1 3.660000e-01    1.600000e+00
  SP1d  TC6e  1 3.650000e-01    1.910000e+00
  SP1d  TC5e  1 3.650000e-01    1.750000e+00
  SP1d  TC4e  1 3.660000e-01    1.600000e+00
  SP1d  TC3e  1 3.780000e-01    1.450000e+00
  SP1d  TC2e  1 3.780000e-01    1.450000e+00
  SP1d  TC1e  1 3.940000e-01    1.290000e+00
  SP1d  TX4e  1 3.650000e-01    1.910000e+00
  SP1d  TX3e  1 3.650000e-01    1.910000e+00
  SP1d  TX2e  1 3.650000e-01    1.750000e+00
  SP1d  TX1e  1 3.660000e-01    1.600000e+00
  SN6d  TC6e  1 3.650000e-01    2.110000e+00
  SN6d  TC5e  1 3.650000e-01    1.910000e+00
  SN6d  TC4e  1 3.650000e-01    1.750000e+00
  SN6d  TC3e  1 3.660000e-01    1.600000e+00
  SN6d  TC2e  1 3.660000e-01    1.600000e+00
  SN6d  TC1e  1 3.780000e-01    1.450000e+00
  SN6d  TX4e  1 3.650000e-01    2.110000e+00
  SN6d  TX3e  1 3.650000e-01    1.910000e+00
  SN6d  TX2e  1 3.650000e-01    1.750000e+00
  SN6d  TX1e  1 3.660000e-01    1.600000e+00
  SN5d  TC6e  1 3.650000e-01    2.110000e+00
  SN5d  TC5e  1 3.650000e-01    1.910000e+00
  SN5d  TC4e  1 3.650000e-01    1.750000e+00
  SN5d  TC3e  1 3.650000e-01    1.750000e+00
  SN5d  TC2e  1 3.660000e-01    1.600000e+00
  SN5d  TC1e  1 3.780000e-01    1.450000e+00
  SN5d  TX4e  1 3.650000e-01    2.340000e+00
  SN5d  TX3e  1 3.650000e-01    2.110000e+00
  SN5d  TX2e  1 3.650000e-01    1.910000e+00
  SN5d  TX1e  1 3.650000e-01    1.750000e+00
  SN4d  TC6e  1 3.650000e-01    2.110000e+00
  SN4d  TC5e  1 3.650000e-01    1.910000e+00
  SN4d  TC4e  1 3.650000e-01    1.910000e+00
  SN4d  TC3e  1 3.650000e-01    1.750000e+00
  SN4d  TC2e  1 3.660000e-01    1.600000e+00
  SN4d  TC1e  1 3.780000e-01    1.450000e+00
  SN4d  TX4e  1 3.650000e-01    2.570000e+00
  SN4d  TX3e  1 3.650000e-01    2.340000e+00
  SN4d  TX2e  1 3.650000e-01    1.910000e+00
  SN4d  TX1e  1 3.650000e-01    1.750000e+00
  SN3d  TC6e  1 3.650000e-01    2.110000e+00
  SN3d  TC5e  1 3.650000e-01    1.910000e+00
  SN3d  TC4e  1 3.650000e-01    1.910000e+00
  SN3d  TC3e  1 3.650000e-01    1.750000e+00
  SN3d  TC2e  1 3.650000e-01    1.750000e+00
  SN3d  TC1e  1 3.660000e-01    1.600000e+00
  SN3d  TX4e  1 3.650000e-01    2.340000e+00
  SN3d  TX3e  1 3.650000e-01    2.110000e+00
  SN3d  TX2e  1 3.650000e-01    1.910000e+00
  SN3d  TX1e  1 3.650000e-01    1.910000e+00
  SN2d  TC6e  1 3.650000e-01    2.110000e+00
  SN2d  TC5e  1 3.650000e-01    1.910000e+00
  SN2d  TC4e  1 3.650000e-01    1.910000e+00
  SN2d  TC3e  1 3.650000e-01    1.910000e+00
  SN2d  TC2e  1 3.650000e-01    1.750000e+00
  SN2d  TC1e  1 3.660000e-01    1.600000e+00
  SN2d  TX4e  1 3.650000e-01    2.340000e+00
  SN2d  TX3e  1 3.650000e-01    2.110000e+00
  SN2d  TX2e  1 3.650000e-01    1.910000e+00
  SN2d  TX1e  1 3.650000e-01    1.910000e+00
  SN1d  TC6e  1 3.650000e-01    2.340000e+00
  SN1d  TC5e  1 3.650000e-01    2.110000e+00
  SN1d  TC4e  1 3.650000e-01    2.110000e+00
  SN1d  TC3e  1 3.650000e-01    1.910000e+00
  SN1d  TC2e  1 3.650000e-01    1.750000e+00
  SN1d  TC1e  1 3.660000e-01    1.600000e+00
  SN1d  TX4e  1 3.650000e-01    2.110000e+00
  SN1d  TX3e  1 3.650000e-01    2.110000e+00
  SN1d  TX2e  1 3.650000e-01    1.910000e+00
  SN1d  TX1e  1 3.650000e-01    1.910000e+00
  SP6a  TC6v  1 3.660000e-01    1.600000e+00
  SP6a  TC5v  1 3.780000e-01    1.450000e+00
  SP6a  TC4v  1 3.940000e-01    1.290000e+00
  SP6a  TC3v  1 4.040000e-01    1.130000e+00
  SP6a  TC2v  1 4.040000e-01    1.130000e+00
  SP6a  TC1v  1 4.230000e-01    9.810000e-01
  SP6a  TX4v  1 3.650000e-01    1.750000e+00
  SP6a  TX3v  1 3.650000e-01    1.750000e+00
  SP6a  TX2v  1 3.660000e-01    1.600000e+00
  SP6a  TX1v  1 3.780000e-01    1.450000e+00
  SP5a  TC6v  1 3.660000e-01    1.600000e+00
  SP5a  TC5v  1 3.660000e-01    1.600000e+00
  SP5a  TC4v  1 3.780000e-01    1.450000e+00
  SP5a  TC3v  1 3.940000e-01    1.290000e+00
  SP5a  TC2v  1 3.940000e-01    1.290000e+00
  SP5a  TC1v  1 4.040000e-01    1.130000e+00
  SP5a  TX4v  1 3.650000e-01    1.910000e+00
  SP5a  TX3v  1 3.650000e-01    1.750000e+00
  SP5a  TX2v  1 3.650000e-01    1.750000e+00
  SP5a  TX1v  1 3.780000e-01    1.450000e+00
  SP4a  TC6v  1 3.650000e-01    1.750000e+00
  SP4a  TC5v  1 3.660000e-01    1.600000e+00
  SP4a  TC4v  1 3.780000e-01    1.450000e+00
  SP4a  TC3v  1 3.940000e-01    1.290000e+00
  SP4a  TC2v  1 3.940000e-01    1.290000e+00
  SP4a  TC1v  1 4.040000e-01    1.130000e+00
  SP4a  TX4v  1 3.650000e-01    1.910000e+00
  SP4a  TX3v  1 3.650000e-01    1.750000e+00
  SP4a  TX2v  1 3.650000e-01    1.750000e+00
  SP4a  TX1v  1 3.660000e-01    1.600000e+00
  SP3a  TC6v  1 3.650000e-01    1.910000e+00
  SP3a  TC5v  1 3.650000e-01    1.750000e+00
  SP3a  TC4v  1 3.660000e-01    1.600000e+00
  SP3a  TC3v  1 3.940000e-01    1.290000e+00
  SP3a  TC2v  1 3.940000e-01    1.290000e+00
  SP3a  TC1v  1 4.040000e-01    1.130000e+00
  SP3a  TX4v  1 3.650000e-01    1.910000e+00
  SP3a  TX3v  1 3.650000e-01    1.910000e+00
  SP3a  TX2v  1 3.650000e-01    1.750000e+00
  SP3a  TX1v  1 3.660000e-01    1.600000e+00
  SP2a  TC6v  1 3.650000e-01    1.910000e+00
  SP2a  TC5v  1 3.650000e-01    1.750000e+00
  SP2a  TC4v  1 3.660000e-01    1.600000e+00
  SP2a  TC3v  1 3.780000e-01    1.450000e+00
  SP2a  TC2v  1 3.780000e-01    1.450000e+00
  SP2a  TC1v  1 3.940000e-01    1.290000e+00
  SP2a  TX4v  1 3.650000e-01    1.910000e+00
  SP2a  TX3v  1 3.650000e-01    1.910000e+00
  SP2a  TX2v  1 3.650000e-01    1.750000e+00
  SP2a  TX1v  1 3.660000e-01    1.600000e+00
  SP1a  TC6v  1 3.650000e-01    1.910000e+00
  SP1a  TC5v  1 3.650000e-01    1.750000e+00
  SP1a  TC4v  1 3.660000e-01    1.600000e+00
  SP1a  TC3v  1 3.780000e-01    1.450000e+00
  SP1a  TC2v  1 3.780000e-01    1.450000e+00
  SP1a  TC1v  1 3.940000e-01    1.290000e+00
  SP1a  TX4v  1 3.650000e-01    1.910000e+00
  SP1a  TX3v  1 3.650000e-01    1.910000e+00
  SP1a  TX2v  1 3.650000e-01    1.750000e+00
  SP1a  TX1v  1 3.660000e-01    1.600000e+00
  SN6a  TC6v  1 3.650000e-01    2.110000e+00
  SN6a  TC5v  1 3.650000e-01    1.910000e+00
  SN6a  TC4v  1 3.650000e-01    1.750000e+00
  SN6a  TC3v  1 3.660000e-01    1.600000e+00
  SN6a  TC2v  1 3.660000e-01    1.600000e+00
  SN6a  TC1v  1 3.780000e-01    1.450000e+00
  SN6a  TX4v  1 3.650000e-01    2.110000e+00
  SN6a  TX3v  1 3.650000e-01    1.910000e+00
  SN6a  TX2v  1 3.650000e-01    1.750000e+00
  SN6a  TX1v  1 3.660000e-01    1.600000e+00
  SN5a  TC6v  1 3.650000e-01    2.110000e+00
  SN5a  TC5v  1 3.650000e-01    1.910000e+00
  SN5a  TC4v  1 3.650000e-01    1.750000e+00
  SN5a  TC3v  1 3.650000e-01    1.750000e+00
  SN5a  TC2v  1 3.660000e-01    1.600000e+00
  SN5a  TC1v  1 3.780000e-01    1.450000e+00
  SN5a  TX4v  1 3.650000e-01    2.340000e+00
  SN5a  TX3v  1 3.650000e-01    2.110000e+00
  SN5a  TX2v  1 3.650000e-01    1.910000e+00
  SN5a  TX1v  1 3.650000e-01    1.750000e+00
  SN4a  TC6v  1 3.650000e-01    2.110000e+00
  SN4a  TC5v  1 3.650000e-01    1.910000e+00
  SN4a  TC4v  1 3.650000e-01    1.910000e+00
  SN4a  TC3v  1 3.650000e-01    1.750000e+00
  SN4a  TC2v  1 3.660000e-01    1.600000e+00
  SN4a  TC1v  1 3.780000e-01    1.450000e+00
  SN4a  TX4v  1 3.650000e-01    2.570000e+00
  SN4a  TX3v  1 3.650000e-01    2.340000e+00
  SN4a  TX2v  1 3.650000e-01    1.910000e+00
  SN4a  TX1v  1 3.650000e-01    1.750000e+00
  SN3a  TC6v  1 3.650000e-01    2.110000e+00
  SN3a  TC5v  1 3.650000e-01    1.910000e+00
  SN3a  TC4v  1 3.650000e-01    1.910000e+00
  SN3a  TC3v  1 3.650000e-01    1.750000e+00
  SN3a  TC2v  1 3.650000e-01    1.750000e+00
  SN3a  TC1v  1 3.660000e-01    1.600000e+00
  SN3a  TX4v  1 3.650000e-01    2.340000e+00
  SN3a  TX3v  1 3.650000e-01    2.110000e+00
  SN3a  TX2v  1 3.650000e-01    1.910000e+00
  SN3a  TX1v  1 3.650000e-01    1.910000e+00
  SN2a  TC6v  1 3.650000e-01    2.110000e+00
  SN2a  TC5v  1 3.650000e-01    1.910000e+00
  SN2a  TC4v  1 3.650000e-01    1.910000e+00
  SN2a  TC3v  1 3.650000e-01    1.910000e+00
  SN2a  TC2v  1 3.650000e-01    1.750000e+00
  SN2a  TC1v  1 3.660000e-01    1.600000e+00
  SN2a  TX4v  1 3.650000e-01    2.340000e+00
  SN2a  TX3v  1 3.650000e-01    2.110000e+00
  SN2a  TX2v  1 3.650000e-01    1.910000e+00
  SN2a  TX1v  1 3.650000e-01    1.910000e+00
  SN1a  TC6v  1 3.650000e-01    2.340000e+00
  SN1a  TC5v  1 3.650000e-01    2.110000e+00
  SN1a  TC4v  1 3.650000e-01    2.110000e+00
  SN1a  TC3v  1 3.650000e-01    1.910000e+00
  SN1a  TC2v  1 3.650000e-01    1.750000e+00
  SN1a  TC1v  1 3.660000e-01    1.600000e+00
  SN1a  TX4v  1 3.650000e-01    2.110000e+00
  SN1a  TX3v  1 3.650000e-01    2.110000e+00
  SN1a  TX2v  1 3.650000e-01    1.910000e+00
  SN1a  TX1v  1 3.650000e-01    1.910000e+00
  SP6d  TC6v  1 3.940000e-01    1.290000e+00
  SP6d  TC5v  1 4.040000e-01    1.130000e+00
  SP6d  TC4v  1 4.090000e-01    1.080000e+00
  SP6d  TC3v  1 4.230000e-01    9.810000e-01
  SP6d  TC2v  1 4.230000e-01    9.810000e-01
  SP6d  TC1v  1 5.370000e-01    8.080000e-01
  SP6d  TX4v  1 3.780000e-01    1.450000e+00
  SP6d  TX3v  1 3.780000e-01    1.450000e+00
  SP6d  TX2v  1 3.940000e-01    1.290000e+00
  SP6d  TX1v  1 4.040000e-01    1.130000e+00
  SP5d  TC6v  1 3.940000e-01    1.290000e+00
  SP5d  TC5v  1 3.940000e-01    1.290000e+00
  SP5d  TC4v  1 4.040000e-01    1.130000e+00
  SP5d  TC3v  1 4.090000e-01    1.080000e+00
  SP5d  TC2v  1 4.090000e-01    1.080000e+00
  SP5d  TC1v  1 4.230000e-01    9.810000e-01
  SP5d  TX4v  1 3.660000e-01    1.600000e+00
  SP5d  TX3v  1 3.780000e-01    1.450000e+00
  SP5d  TX2v  1 3.780000e-01    1.450000e+00
  SP5d  TX1v  1 4.040000e-01    1.130000e+00
  SP4d  TC6v  1 3.780000e-01    1.450000e+00
  SP4d  TC5v  1 3.940000e-01    1.290000e+00
  SP4d  TC4v  1 4.040000e-01    1.130000e+00
  SP4d  TC3v  1 4.090000e-01    1.080000e+00
  SP4d  TC2v  1 4.090000e-01    1.080000e+00
  SP4d  TC1v  1 4.230000e-01    9.810000e-01
  SP4d  TX4v  1 3.660000e-01    1.600000e+00
  SP4d  TX3v  1 3.780000e-01    1.450000e+00
  SP4d  TX2v  1 3.780000e-01    1.450000e+00
  SP4d  TX1v  1 3.940000e-01    1.290000e+00
  SP3d  TC6v  1 3.660000e-01    1.600000e+00
  SP3d  TC5v  1 3.780000e-01    1.450000e+00
  SP3d  TC4v  1 3.940000e-01    1.290000e+00
  SP3d  TC3v  1 4.090000e-01    1.080000e+00
  SP3d  TC2v  1 4.090000e-01    1.080000e+00
  SP3d  TC1v  1 4.230000e-01    9.810000e-01
  SP3d  TX4v  1 3.660000e-01    1.600000e+00
  SP3d  TX3v  1 3.660000e-01    1.600000e+00
  SP3d  TX2v  1 3.780000e-01    1.450000e+00
  SP3d  TX1v  1 3.940000e-01    1.290000e+00
  SP2d  TC6v  1 3.660000e-01    1.600000e+00
  SP2d  TC5v  1 3.780000e-01    1.450000e+00
  SP2d  TC4v  1 3.940000e-01    1.290000e+00
  SP2d  TC3v  1 4.040000e-01    1.130000e+00
  SP2d  TC2v  1 4.040000e-01    1.130000e+00
  SP2d  TC1v  1 4.090000e-01    1.080000e+00
  SP2d  TX4v  1 3.660000e-01    1.600000e+00
  SP2d  TX3v  1 3.660000e-01    1.600000e+00
  SP2d  TX2v  1 3.780000e-01    1.450000e+00
  SP2d  TX1v  1 3.940000e-01    1.290000e+00
  SP1d  TC6v  1 3.660000e-01    1.600000e+00
  SP1d  TC5v  1 3.780000e-01    1.450000e+00
  SP1d  TC4v  1 3.940000e-01    1.290000e+00
  SP1d  TC3v  1 4.040000e-01    1.130000e+00
  SP1d  TC2v  1 4.040000e-01    1.130000e+00
  SP1d  TC1v  1 4.090000e-01    1.080000e+00
  SP1d  TX4v  1 3.660000e-01    1.600000e+00
  SP1d  TX3v  1 3.660000e-01    1.600000e+00
  SP1d  TX2v  1 3.780000e-01    1.450000e+00
  SP1d  TX1v  1 3.940000e-01    1.290000e+00
  SN6d  TC6v  1 3.650000e-01    1.750000e+00
  SN6d  TC5v  1 3.660000e-01    1.600000e+00
  SN6d  TC4v  1 3.780000e-01    1.450000e+00
  SN6d  TC3v  1 3.940000e-01    1.290000e+00
  SN6d  TC2v  1 3.940000e-01    1.290000e+00
  SN6d  TC1v  1 4.040000e-01    1.130000e+00
  SN6d  TX4v  1 3.650000e-01    1.750000e+00
  SN6d  TX3v  1 3.660000e-01    1.600000e+00
  SN6d  TX2v  1 3.780000e-01    1.450000e+00
  SN6d  TX1v  1 3.940000e-01    1.290000e+00
  SN5d  TC6v  1 3.650000e-01    1.750000e+00
  SN5d  TC5v  1 3.660000e-01    1.600000e+00
  SN5d  TC4v  1 3.780000e-01    1.450000e+00
  SN5d  TC3v  1 3.780000e-01    1.450000e+00
  SN5d  TC2v  1 3.940000e-01    1.290000e+00
  SN5d  TC1v  1 4.040000e-01    1.130000e+00
  SN5d  TX4v  1 3.650000e-01    1.910000e+00
  SN5d  TX3v  1 3.650000e-01    1.750000e+00
  SN5d  TX2v  1 3.660000e-01    1.600000e+00
  SN5d  TX1v  1 3.780000e-01    1.450000e+00
  SN4d  TC6v  1 3.650000e-01    1.750000e+00
  SN4d  TC5v  1 3.660000e-01    1.600000e+00
  SN4d  TC4v  1 3.660000e-01    1.600000e+00
  SN4d  TC3v  1 3.780000e-01    1.450000e+00
  SN4d  TC2v  1 3.940000e-01    1.290000e+00
  SN4d  TC1v  1 4.040000e-01    1.130000e+00
  SN4d  TX4v  1 3.650000e-01    2.110000e+00
  SN4d  TX3v  1 3.650000e-01    1.910000e+00
  SN4d  TX2v  1 3.660000e-01    1.600000e+00
  SN4d  TX1v  1 3.780000e-01    1.450000e+00
  SN3d  TC6v  1 3.650000e-01    1.750000e+00
  SN3d  TC5v  1 3.660000e-01    1.600000e+00
  SN3d  TC4v  1 3.660000e-01    1.600000e+00
  SN3d  TC3v  1 3.780000e-01    1.450000e+00
  SN3d  TC2v  1 3.780000e-01    1.450000e+00
  SN3d  TC1v  1 3.940000e-01    1.290000e+00
  SN3d  TX4v  1 3.650000e-01    1.910000e+00
  SN3d  TX3v  1 3.650000e-01    1.750000e+00
  SN3d  TX2v  1 3.660000e-01    1.600000e+00
  SN3d  TX1v  1 3.660000e-01    1.600000e+00
  SN2d  TC6v  1 3.650000e-01    1.750000e+00
  SN2d  TC5v  1 3.660000e-01    1.600000e+00
  SN2d  TC4v  1 3.660000e-01    1.600000e+00
  SN2d  TC3v  1 3.660000e-01    1.600000e+00
  SN2d  TC2v  1 3.780000e-01    1.450000e+00
  SN2d  TC1v  1 3.940000e-01    1.290000e+00
  SN2d  TX4v  1 3.650000e-01    1.910000e+00
  SN2d  TX3v  1 3.650000e-01    1.750000e+00
  SN2d  TX2v  1 3.660000e-01    1.600000e+00
  SN2d  TX1v  1 3.660000e-01    1.600000e+00
  SN1d  TC6v  1 3.650000e-01    1.910000e+00
  SN1d  TC5v  1 3.650000e-01    1.750000e+00
  SN1d  TC4v  1 3.650000e-01    1.750000e+00
  SN1d  TC3v  1 3.660000e-01    1.600000e+00
  SN1d  TC2v  1 3.780000e-01    1.450000e+00
  SN1d  TC1v  1 3.940000e-01    1.290000e+00
  SN1d  TX4v  1 3.650000e-01    1.750000e+00
  SN1d  TX3v  1 3.650000e-01    1.750000e+00
  SN1d  TX2v  1 3.660000e-01    1.600000e+00
  SN1d  TX1v  1 3.660000e-01    1.600000e+00
  SP6a  TC6e  1 3.940000e-01    1.290000e+00
  SP6a  TC5e  1 4.040000e-01    1.130000e+00
  SP6a  TC4e  1 4.090000e-01    1.080000e+00
  SP6a  TC3e  1 4.230000e-01    9.810000e-01
  SP6a  TC2e  1 4.230000e-01    9.810000e-01
  SP6a  TC1e  1 5.370000e-01    8.080000e-01
  SP6a  TX4e  1 3.780000e-01    1.450000e+00
  SP6a  TX3e  1 3.780000e-01    1.450000e+00
  SP6a  TX2e  1 3.940000e-01    1.290000e+00
  SP6a  TX1e  1 4.040000e-01    1.130000e+00
  SP5a  TC6e  1 3.940000e-01    1.290000e+00
  SP5a  TC5e  1 3.940000e-01    1.290000e+00
  SP5a  TC4e  1 4.040000e-01    1.130000e+00
  SP5a  TC3e  1 4.090000e-01    1.080000e+00
  SP5a  TC2e  1 4.090000e-01    1.080000e+00
  SP5a  TC1e  1 4.230000e-01    9.810000e-01
  SP5a  TX4e  1 3.660000e-01    1.600000e+00
  SP5a  TX3e  1 3.780000e-01    1.450000e+00
  SP5a  TX2e  1 3.780000e-01    1.450000e+00
  SP5a  TX1e  1 4.040000e-01    1.130000e+00
  SP4a  TC6e  1 3.780000e-01    1.450000e+00
  SP4a  TC5e  1 3.940000e-01    1.290000e+00
  SP4a  TC4e  1 4.040000e-01    1.130000e+00
  SP4a  TC3e  1 4.090000e-01    1.080000e+00
  SP4a  TC2e  1 4.090000e-01    1.080000e+00
  SP4a  TC1e  1 4.230000e-01    9.810000e-01
  SP4a  TX4e  1 3.660000e-01    1.600000e+00
  SP4a  TX3e  1 3.780000e-01    1.450000e+00
  SP4a  TX2e  1 3.780000e-01    1.450000e+00
  SP4a  TX1e  1 3.940000e-01    1.290000e+00
  SP3a  TC6e  1 3.660000e-01    1.600000e+00
  SP3a  TC5e  1 3.780000e-01    1.450000e+00
  SP3a  TC4e  1 3.940000e-01    1.290000e+00
  SP3a  TC3e  1 4.090000e-01    1.080000e+00
  SP3a  TC2e  1 4.090000e-01    1.080000e+00
  SP3a  TC1e  1 4.230000e-01    9.810000e-01
  SP3a  TX4e  1 3.660000e-01    1.600000e+00
  SP3a  TX3e  1 3.660000e-01    1.600000e+00
  SP3a  TX2e  1 3.780000e-01    1.450000e+00
  SP3a  TX1e  1 3.940000e-01    1.290000e+00
  SP2a  TC6e  1 3.660000e-01    1.600000e+00
  SP2a  TC5e  1 3.780000e-01    1.450000e+00
  SP2a  TC4e  1 3.940000e-01    1.290000e+00
  SP2a  TC3e  1 4.040000e-01    1.130000e+00
  SP2a  TC2e  1 4.040000e-01    1.130000e+00
  SP2a  TC1e  1 4.090000e-01    1.080000e+00
  SP2a  TX4e  1 3.660000e-01    1.600000e+00
  SP2a  TX3e  1 3.660000e-01    1.600000e+00
  SP2a  TX2e  1 3.780000e-01    1.450000e+00
  SP2a  TX1e  1 3.940000e-01    1.290000e+00
  SP1a  TC6e  1 3.660000e-01    1.600000e+00
  SP1a  TC5e  1 3.780000e-01    1.450000e+00
  SP1a  TC4e  1 3.940000e-01    1.290000e+00
  SP1a  TC3e  1 4.040000e-01    1.130000e+00
  SP1a  TC2e  1 4.040000e-01    1.130000e+00
  SP1a  TC1e  1 4.090000e-01    1.080000e+00
  SP1a  TX4e  1 3.660000e-01    1.600000e+00
  SP1a  TX3e  1 3.660000e-01    1.600000e+00
  SP1a  TX2e  1 3.780000e-01    1.450000e+00
  SP1a  TX1e  1 3.940000e-01    1.290000e+00
  SN6a  TC6e  1 3.650000e-01    1.750000e+00
  SN6a  TC5e  1 3.660000e-01    1.600000e+00
  SN6a  TC4e  1 3.780000e-01    1.450000e+00
  SN6a  TC3e  1 3.940000e-01    1.290000e+00
  SN6a  TC2e  1 3.940000e-01    1.290000e+00
  SN6a  TC1e  1 4.040000e-01    1.130000e+00
  SN6a  TX4e  1 3.650000e-01    1.750000e+00
  SN6a  TX3e  1 3.660000e-01    1.600000e+00
  SN6a  TX2e  1 3.780000e-01    1.450000e+00
  SN6a  TX1e  1 3.940000e-01    1.290000e+00
  SN5a  TC6e  1 3.650000e-01    1.750000e+00
  SN5a  TC5e  1 3.660000e-01    1.600000e+00
  SN5a  TC4e  1 3.780000e-01    1.450000e+00
  SN5a  TC3e  1 3.780000e-01    1.450000e+00
  SN5a  TC2e  1 3.940000e-01    1.290000e+00
  SN5a  TC1e  1 4.040000e-01    1.130000e+00
  SN5a  TX4e  1 3.650000e-01    1.910000e+00
  SN5a  TX3e  1 3.650000e-01    1.750000e+00
  SN5a  TX2e  1 3.660000e-01    1.600000e+00
  SN5a  TX1e  1 3.780000e-01    1.450000e+00
  SN4a  TC6e  1 3.650000e-01    1.750000e+00
  SN4a  TC5e  1 3.660000e-01    1.600000e+00
  SN4a  TC4e  1 3.660000e-01    1.600000e+00
  SN4a  TC3e  1 3.780000e-01    1.450000e+00
  SN4a  TC2e  1 3.940000e-01    1.290000e+00
  SN4a  TC1e  1 4.040000e-01    1.130000e+00
  SN4a  TX4e  1 3.650000e-01    2.110000e+00
  SN4a  TX3e  1 3.650000e-01    1.910000e+00
  SN4a  TX2e  1 3.660000e-01    1.600000e+00
  SN4a  TX1e  1 3.780000e-01    1.450000e+00
  SN3a  TC6e  1 3.650000e-01    1.750000e+00
  SN3a  TC5e  1 3.660000e-01    1.600000e+00
  SN3a  TC4e  1 3.660000e-01    1.600000e+00
  SN3a  TC3e  1 3.780000e-01    1.450000e+00
  SN3a  TC2e  1 3.780000e-01    1.450000e+00
  SN3a  TC1e  1 3.940000e-01    1.290000e+00
  SN3a  TX4e  1 3.650000e-01    1.910000e+00
  SN3a  TX3e  1 3.650000e-01    1.750000e+00
  SN3a  TX2e  1 3.660000e-01    1.600000e+00
  SN3a  TX1e  1 3.660000e-01    1.600000e+00
  SN2a  TC6e  1 3.650000e-01    1.750000e+00
  SN2a  TC5e  1 3.660000e-01    1.600000e+00
  SN2a  TC4e  1 3.660000e-01    1.600000e+00
  SN2a  TC3e  1 3.660000e-01    1.600000e+00
  SN2a  TC2e  1 3.780000e-01    1.450000e+00
  SN2a  TC1e  1 3.940000e-01    1.290000e+00
  SN2a  TX4e  1 3.650000e-01    1.910000e+00
  SN2a  TX3e  1 3.650000e-01    1.750000e+00
  SN2a  TX2e  1 3.660000e-01    1.600000e+00
  SN2a  TX1e  1 3.660000e-01    1.600000e+00
  SN1a  TC6e  1 3.650000e-01    1.910000e+00
  SN1a  TC5e  1 3.650000e-01    1.750000e+00
  SN1a  TC4e  1 3.650000e-01    1.750000e+00
  SN1a  TC3e  1 3.660000e-01    1.600000e+00
  SN1a  TC2e  1 3.780000e-01    1.450000e+00
  SN1a  TC1e  1 3.940000e-01    1.290000e+00
  SN1a  TX4e  1 3.650000e-01    1.750000e+00
  SN1a  TX3e  1 3.650000e-01    1.750000e+00
  SN1a  TX2e  1 3.660000e-01    1.600000e+00
  SN1a  TX1e  1 3.660000e-01    1.600000e+00
  SP6q  TP6d  1 3.650000e-01    4.510000e+00
  SP6q  TN1d  1 3.650000e-01    1.750000e+00
  SP6q  TN2d  1 3.650000e-01    1.910000e+00
  SP6q  TN3d  1 3.650000e-01    2.110000e+00
  SP6q  TN4d  1 3.650000e-01    2.340000e+00
  SP6q  TN5d  1 3.650000e-01    2.570000e+00
  SP6q  TN6d  1 3.650000e-01    3.100000e+00
  SP6q  TP1d  1 3.650000e-01    3.370000e+00
  SP6q  TP2d  1 3.650000e-01    3.640000e+00
  SP6q  TP3d  1 3.650000e-01    3.640000e+00
  SP6q  TP4d  1 3.650000e-01    3.930000e+00
  SP6q  TP5d  1 3.650000e-01    4.220000e+00
  SP6q  TP6a  1 3.650000e-01    4.510000e+00
  SP6q  TN1a  1 3.650000e-01    1.750000e+00
  SP6q  TN2a  1 3.650000e-01    1.910000e+00
  SP6q  TN3a  1 3.650000e-01    2.110000e+00
  SP6q  TN4a  1 3.650000e-01    2.340000e+00
  SP6q  TN5a  1 3.650000e-01    2.570000e+00
  SP6q  TN6a  1 3.650000e-01    3.100000e+00
  SP6q  TP1a  1 3.650000e-01    3.370000e+00
  SP6q  TP2a  1 3.650000e-01    3.640000e+00
  SP6q  TP3a  1 3.650000e-01    3.640000e+00
  SP6q  TP4a  1 3.650000e-01    3.930000e+00
  SP6q  TP5a  1 3.650000e-01    4.220000e+00
  SP6q  TC6v  1 3.650000e-01    1.910000e+00
  SP6q  TC5v  1 3.650000e-01    1.750000e+00
  SP6q  TC4v  1 3.660000e-01    1.600000e+00
  SP6q  TC3v  1 3.780000e-01    1.450000e+00
  SP6q  TC2v  1 3.780000e-01    1.450000e+00
  SP6q  TC1v  1 4.040000e-01    1.130000e+00
  SP6q  TX4v  1 3.650000e-01    2.110000e+00
  SP6q  TX3v  1 3.650000e-01    2.110000e+00
  SP6q  TX2v  1 3.650000e-01    1.910000e+00
  SP6q  TX1v  1 3.650000e-01    1.750000e+00
  SP6q  TC6e  1 3.650000e-01    1.910000e+00
  SP6q  TC5e  1 3.650000e-01    1.750000e+00
  SP6q  TC4e  1 3.660000e-01    1.600000e+00
  SP6q  TC3e  1 3.780000e-01    1.450000e+00
  SP6q  TC2e  1 3.780000e-01    1.450000e+00
  SP6q  TC1e  1 4.040000e-01    1.130000e+00
  SP6q  TX4e  1 3.650000e-01    2.110000e+00
  SP6q  TX3e  1 3.650000e-01    2.110000e+00
  SP6q  TX2e  1 3.650000e-01    1.910000e+00
  SP6q  TX1e  1 3.650000e-01    1.750000e+00
  SP6d  TP5q  1 3.650000e-01    4.220000e+00
  SP5q  TP5d  1 3.650000e-01    3.930000e+00
  SP5q  TN1d  1 3.650000e-01    1.750000e+00
  SP5q  TN2d  1 3.650000e-01    1.910000e+00
  SP5q  TN3d  1 3.650000e-01    2.110000e+00
  SP5q  TN4d  1 3.650000e-01    2.570000e+00
  SP5q  TN5d  1 3.650000e-01    2.570000e+00
  SP5q  TN6d  1 3.650000e-01    2.830000e+00
  SP5q  TP1d  1 3.650000e-01    3.100000e+00
  SP5q  TP2d  1 3.650000e-01    3.370000e+00
  SP5q  TP3d  1 3.650000e-01    3.370000e+00
  SP5q  TP4d  1 3.650000e-01    3.640000e+00
  SP6a  TP5q  1 3.650000e-01    4.220000e+00
  SP5q  TP5a  1 3.650000e-01    3.930000e+00
  SP5q  TN1a  1 3.650000e-01    1.750000e+00
  SP5q  TN2a  1 3.650000e-01    1.910000e+00
  SP5q  TN3a  1 3.650000e-01    2.110000e+00
  SP5q  TN4a  1 3.650000e-01    2.570000e+00
  SP5q  TN5a  1 3.650000e-01    2.570000e+00
  SP5q  TN6a  1 3.650000e-01    2.830000e+00
  SP5q  TP1a  1 3.650000e-01    3.100000e+00
  SP5q  TP2a  1 3.650000e-01    3.370000e+00
  SP5q  TP3a  1 3.650000e-01    3.370000e+00
  SP5q  TP4a  1 3.650000e-01    3.640000e+00
  SP5q  TC6v  1 3.650000e-01    1.910000e+00
  SP5q  TC5v  1 3.650000e-01    1.910000e+00
  SP5q  TC4v  1 3.650000e-01    1.750000e+00
  SP5q  TC3v  1 3.660000e-01    1.600000e+00
  SP5q  TC2v  1 3.660000e-01    1.600000e+00
  SP5q  TC1v  1 3.780000e-01    1.450000e+00
  SP5q  TX4v  1 3.650000e-01    2.340000e+00
  SP5q  TX3v  1 3.650000e-01    2.110000e+00
  SP5q  TX2v  1 3.650000e-01    2.110000e+00
  SP5q  TX1v  1 3.650000e-01    1.750000e+00
  SP5q  TC6e  1 3.650000e-01    1.910000e+00
  SP5q  TC5e  1 3.650000e-01    1.910000e+00
  SP5q  TC4e  1 3.650000e-01    1.750000e+00
  SP5q  TC3e  1 3.660000e-01    1.600000e+00
  SP5q  TC2e  1 3.660000e-01    1.600000e+00
  SP5q  TC1e  1 3.780000e-01    1.450000e+00
  SP5q  TX4e  1 3.650000e-01    2.340000e+00
  SP5q  TX3e  1 3.650000e-01    2.110000e+00
  SP5q  TX2e  1 3.650000e-01    2.110000e+00
  SP5q  TX1e  1 3.650000e-01    1.750000e+00
  SP6d  TP4q  1 3.650000e-01    3.930000e+00
  SP5d  TP4q  1 3.650000e-01    3.640000e+00
  SP4q  TP4d  1 3.650000e-01    3.640000e+00
  SP4q  TN1d  1 3.650000e-01    1.910000e+00
  SP4q  TN2d  1 3.650000e-01    2.110000e+00
  SP4q  TN3d  1 3.650000e-01    2.340000e+00
  SP4q  TN4d  1 3.650000e-01    2.570000e+00
  SP4q  TN5d  1 3.650000e-01    2.570000e+00
  SP4q  TN6d  1 3.650000e-01    2.830000e+00
  SP4q  TP1d  1 3.650000e-01    3.100000e+00
  SP4q  TP2d  1 3.650000e-01    3.370000e+00
  SP4q  TP3d  1 3.650000e-01    3.370000e+00
  SP6a  TP4q  1 3.650000e-01    3.930000e+00
  SP5a  TP4q  1 3.650000e-01    3.640000e+00
  SP4q  TP4a  1 3.650000e-01    3.640000e+00
  SP4q  TN1a  1 3.650000e-01    1.910000e+00
  SP4q  TN2a  1 3.650000e-01    2.110000e+00
  SP4q  TN3a  1 3.650000e-01    2.340000e+00
  SP4q  TN4a  1 3.650000e-01    2.570000e+00
  SP4q  TN5a  1 3.650000e-01    2.570000e+00
  SP4q  TN6a  1 3.650000e-01    2.830000e+00
  SP4q  TP1a  1 3.650000e-01    3.100000e+00
  SP4q  TP2a  1 3.650000e-01    3.370000e+00
  SP4q  TP3a  1 3.650000e-01    3.370000e+00
  SP4q  TC6v  1 3.650000e-01    2.110000e+00
  SP4q  TC5v  1 3.650000e-01    1.910000e+00
  SP4q  TC4v  1 3.650000e-01    1.750000e+00
  SP4q  TC3v  1 3.660000e-01    1.600000e+00
  SP4q  TC2v  1 3.660000e-01    1.600000e+00
  SP4q  TC1v  1 3.780000e-01    1.450000e+00
  SP4q  TX4v  1 3.650000e-01    2.340000e+00
  SP4q  TX3v  1 3.650000e-01    2.110000e+00
  SP4q  TX2v  1 3.650000e-01    2.110000e+00
  SP4q  TX1v  1 3.650000e-01    1.910000e+00
  SP4q  TC6e  1 3.650000e-01    2.110000e+00
  SP4q  TC5e  1 3.650000e-01    1.910000e+00
  SP4q  TC4e  1 3.650000e-01    1.750000e+00
  SP4q  TC3e  1 3.660000e-01    1.600000e+00
  SP4q  TC2e  1 3.660000e-01    1.600000e+00
  SP4q  TC1e  1 3.780000e-01    1.450000e+00
  SP4q  TX4e  1 3.650000e-01    2.340000e+00
  SP4q  TX3e  1 3.650000e-01    2.110000e+00
  SP4q  TX2e  1 3.650000e-01    2.110000e+00
  SP4q  TX1e  1 3.650000e-01    1.910000e+00
  SP6d  TP3q  1 3.650000e-01    3.640000e+00
  SP5d  TP3q  1 3.650000e-01    3.370000e+00
  SP4d  TP3q  1 3.650000e-01    3.370000e+00
  SP3q  TP3d  1 3.650000e-01    3.370000e+00
  SP3q  TN1d  1 3.650000e-01    2.110000e+00
  SP3q  TN2d  1 3.650000e-01    2.340000e+00
  SP3q  TN3d  1 3.650000e-01    2.340000e+00
  SP3q  TN4d  1 3.650000e-01    2.570000e+00
  SP3q  TN5d  1 3.650000e-01    2.570000e+00
  SP3q  TN6d  1 3.650000e-01    2.830000e+00
  SP3q  TP1d  1 3.650000e-01    3.100000e+00
  SP3q  TP2d  1 3.650000e-01    3.370000e+00
  SP6a  TP3q  1 3.650000e-01    3.640000e+00
  SP5a  TP3q  1 3.650000e-01    3.370000e+00
  SP4a  TP3q  1 3.650000e-01    3.370000e+00
  SP3q  TP3a  1 3.650000e-01    3.370000e+00
  SP3q  TN1a  1 3.650000e-01    2.110000e+00
  SP3q  TN2a  1 3.650000e-01    2.340000e+00
  SP3q  TN3a  1 3.650000e-01    2.340000e+00
  SP3q  TN4a  1 3.650000e-01    2.570000e+00
  SP3q  TN5a  1 3.650000e-01    2.570000e+00
  SP3q  TN6a  1 3.650000e-01    2.830000e+00
  SP3q  TP1a  1 3.650000e-01    3.100000e+00
  SP3q  TP2a  1 3.650000e-01    3.370000e+00
  SP3q  TC6v  1 3.650000e-01    2.340000e+00
  SP3q  TC5v  1 3.650000e-01    2.110000e+00
  SP3q  TC4v  1 3.650000e-01    1.910000e+00
  SP3q  TC3v  1 3.660000e-01    1.600000e+00
  SP3q  TC2v  1 3.660000e-01    1.600000e+00
  SP3q  TC1v  1 3.780000e-01    1.450000e+00
  SP3q  TX4v  1 3.650000e-01    2.340000e+00
  SP3q  TX3v  1 3.650000e-01    2.340000e+00
  SP3q  TX2v  1 3.650000e-01    2.110000e+00
  SP3q  TX1v  1 3.650000e-01    1.910000e+00
  SP3q  TC6e  1 3.650000e-01    2.340000e+00
  SP3q  TC5e  1 3.650000e-01    2.110000e+00
  SP3q  TC4e  1 3.650000e-01    1.910000e+00
  SP3q  TC3e  1 3.660000e-01    1.600000e+00
  SP3q  TC2e  1 3.660000e-01    1.600000e+00
  SP3q  TC1e  1 3.780000e-01    1.450000e+00
  SP3q  TX4e  1 3.650000e-01    2.340000e+00
  SP3q  TX3e  1 3.650000e-01    2.340000e+00
  SP3q  TX2e  1 3.650000e-01    2.110000e+00
  SP3q  TX1e  1 3.650000e-01    1.910000e+00
  SP6d  TP2q  1 3.650000e-01    3.640000e+00
  SP5d  TP2q  1 3.650000e-01    3.370000e+00
  SP4d  TP2q  1 3.650000e-01    3.370000e+00
  SP3d  TP2q  1 3.650000e-01    3.370000e+00
  SP2q  TP2d  1 3.650000e-01    3.370000e+00
  SP2q  TN1d  1 3.650000e-01    2.340000e+00
  SP2q  TN2d  1 3.650000e-01    2.340000e+00
  SP2q  TN3d  1 3.650000e-01    2.340000e+00
  SP2q  TN4d  1 3.650000e-01    2.570000e+00
  SP2q  TN5d  1 3.650000e-01    2.830000e+00
  SP2q  TN6d  1 3.650000e-01    3.100000e+00
  SP2q  TP1d  1 3.650000e-01    3.100000e+00
  SP6a  TP2q  1 3.650000e-01    3.640000e+00
  SP5a  TP2q  1 3.650000e-01    3.370000e+00
  SP4a  TP2q  1 3.650000e-01    3.370000e+00
  SP3a  TP2q  1 3.650000e-01    3.370000e+00
  SP2q  TP2a  1 3.650000e-01    3.370000e+00
  SP2q  TN1a  1 3.650000e-01    2.340000e+00
  SP2q  TN2a  1 3.650000e-01    2.340000e+00
  SP2q  TN3a  1 3.650000e-01    2.340000e+00
  SP2q  TN4a  1 3.650000e-01    2.570000e+00
  SP2q  TN5a  1 3.650000e-01    2.830000e+00
  SP2q  TN6a  1 3.650000e-01    3.100000e+00
  SP2q  TP1a  1 3.650000e-01    3.100000e+00
  SP2q  TC6v  1 3.650000e-01    2.340000e+00
  SP2q  TC5v  1 3.650000e-01    2.110000e+00
  SP2q  TC4v  1 3.650000e-01    1.910000e+00
  SP2q  TC3v  1 3.650000e-01    1.750000e+00
  SP2q  TC2v  1 3.650000e-01    1.750000e+00
  SP2q  TC1v  1 3.660000e-01    1.600000e+00
  SP2q  TX4v  1 3.650000e-01    2.340000e+00
  SP2q  TX3v  1 3.650000e-01    2.340000e+00
  SP2q  TX2v  1 3.650000e-01    2.110000e+00
  SP2q  TX1v  1 3.650000e-01    1.910000e+00
  SP2q  TC6e  1 3.650000e-01    2.340000e+00
  SP2q  TC5e  1 3.650000e-01    2.110000e+00
  SP2q  TC4e  1 3.650000e-01    1.910000e+00
  SP2q  TC3e  1 3.650000e-01    1.750000e+00
  SP2q  TC2e  1 3.650000e-01    1.750000e+00
  SP2q  TC1e  1 3.660000e-01    1.600000e+00
  SP2q  TX4e  1 3.650000e-01    2.340000e+00
  SP2q  TX3e  1 3.650000e-01    2.340000e+00
  SP2q  TX2e  1 3.650000e-01    2.110000e+00
  SP2q  TX1e  1 3.650000e-01    1.910000e+00
  SP6d  TP1q  1 3.650000e-01    3.370000e+00
  SP5d  TP1q  1 3.650000e-01    3.100000e+00
  SP4d  TP1q  1 3.650000e-01    3.100000e+00
  SP3d  TP1q  1 3.650000e-01    3.100000e+00
  SP2d  TP1q  1 3.650000e-01    3.100000e+00
  SP1q  TP1d  1 3.650000e-01    3.100000e+00
  SP1q  TN1d  1 3.650000e-01    2.340000e+00
  SP1q  TN2d  1 3.650000e-01    2.340000e+00
  SP1q  TN3d  1 3.650000e-01    2.340000e+00
  SP1q  TN4d  1 3.650000e-01    2.830000e+00
  SP1q  TN5d  1 3.650000e-01    2.830000e+00
  SP1q  TN6d  1 3.650000e-01    3.100000e+00
  SP6a  TP1q  1 3.650000e-01    3.370000e+00
  SP5a  TP1q  1 3.650000e-01    3.100000e+00
  SP4a  TP1q  1 3.650000e-01    3.100000e+00
  SP3a  TP1q  1 3.650000e-01    3.100000e+00
  SP2a  TP1q  1 3.650000e-01    3.100000e+00
  SP1q  TP1a  1 3.650000e-01    3.100000e+00
  SP1q  TN1a  1 3.650000e-01    2.340000e+00
  SP1q  TN2a  1 3.650000e-01    2.340000e+00
  SP1q  TN3a  1 3.650000e-01    2.340000e+00
  SP1q  TN4a  1 3.650000e-01    2.830000e+00
  SP1q  TN5a  1 3.650000e-01    2.830000e+00
  SP1q  TN6a  1 3.650000e-01    3.100000e+00
  SP1q  TC6v  1 3.650000e-01    2.340000e+00
  SP1q  TC5v  1 3.650000e-01    2.110000e+00
  SP1q  TC4v  1 3.650000e-01    1.910000e+00
  SP1q  TC3v  1 3.650000e-01    1.750000e+00
  SP1q  TC2v  1 3.650000e-01    1.750000e+00
  SP1q  TC1v  1 3.660000e-01    1.600000e+00
  SP1q  TX4v  1 3.650000e-01    2.340000e+00
  SP1q  TX3v  1 3.650000e-01    2.340000e+00
  SP1q  TX2v  1 3.650000e-01    2.110000e+00
  SP1q  TX1v  1 3.650000e-01    1.910000e+00
  SP1q  TC6e  1 3.650000e-01    2.340000e+00
  SP1q  TC5e  1 3.650000e-01    2.110000e+00
  SP1q  TC4e  1 3.650000e-01    1.910000e+00
  SP1q  TC3e  1 3.650000e-01    1.750000e+00
  SP1q  TC2e  1 3.650000e-01    1.750000e+00
  SP1q  TC1e  1 3.660000e-01    1.600000e+00
  SP1q  TX4e  1 3.650000e-01    2.340000e+00
  SP1q  TX3e  1 3.650000e-01    2.340000e+00
  SP1q  TX2e  1 3.650000e-01    2.110000e+00
  SP1q  TX1e  1 3.650000e-01    1.910000e+00
  SP6d  TN6q  1 3.650000e-01    3.100000e+00
  SP5d  TN6q  1 3.650000e-01    2.830000e+00
  SP4d  TN6q  1 3.650000e-01    2.830000e+00
  SP3d  TN6q  1 3.650000e-01    2.830000e+00
  SP2d  TN6q  1 3.650000e-01    3.100000e+00
  SP1d  TN6q  1 3.650000e-01    3.100000e+00
  SN6q  TN6d  1 3.650000e-01    3.100000e+00
  SN6q  TN1d  1 3.650000e-01    2.340000e+00
  SN6q  TN2d  1 3.650000e-01    2.340000e+00
  SN6q  TN3d  1 3.650000e-01    2.570000e+00
  SN6q  TN4d  1 3.650000e-01    3.100000e+00
  SN6q  TN5d  1 3.650000e-01    3.100000e+00
  SP6a  TN6q  1 3.650000e-01    3.100000e+00
  SP5a  TN6q  1 3.650000e-01    2.830000e+00
  SP4a  TN6q  1 3.650000e-01    2.830000e+00
  SP3a  TN6q  1 3.650000e-01    2.830000e+00
  SP2a  TN6q  1 3.650000e-01    3.100000e+00
  SP1a  TN6q  1 3.650000e-01    3.100000e+00
  SN6q  TN6a  1 3.650000e-01    3.100000e+00
  SN6q  TN1a  1 3.650000e-01    2.340000e+00
  SN6q  TN2a  1 3.650000e-01    2.340000e+00
  SN6q  TN3a  1 3.650000e-01    2.570000e+00
  SN6q  TN4a  1 3.650000e-01    3.100000e+00
  SN6q  TN5a  1 3.650000e-01    3.100000e+00
  SN6q  TC6v  1 3.650000e-01    2.570000e+00
  SN6q  TC5v  1 3.650000e-01    2.340000e+00
  SN6q  TC4v  1 3.650000e-01    2.110000e+00
  SN6q  TC3v  1 3.650000e-01    1.910000e+00
  SN6q  TC2v  1 3.650000e-01    1.910000e+00
  SN6q  TC1v  1 3.650000e-01    1.750000e+00
  SN6q  TX4v  1 3.650000e-01    2.570000e+00
  SN6q  TX3v  1 3.650000e-01    2.340000e+00
  SN6q  TX2v  1 3.650000e-01    2.110000e+00
  SN6q  TX1v  1 3.650000e-01    1.910000e+00
  SN6q  TC6e  1 3.650000e-01    2.570000e+00
  SN6q  TC5e  1 3.650000e-01    2.340000e+00
  SN6q  TC4e  1 3.650000e-01    2.110000e+00
  SN6q  TC3e  1 3.650000e-01    1.910000e+00
  SN6q  TC2e  1 3.650000e-01    1.910000e+00
  SN6q  TC1e  1 3.650000e-01    1.750000e+00
  SN6q  TX4e  1 3.650000e-01    2.570000e+00
  SN6q  TX3e  1 3.650000e-01    2.340000e+00
  SN6q  TX2e  1 3.650000e-01    2.110000e+00
  SN6q  TX1e  1 3.650000e-01    1.910000e+00
  SP6d  TN5q  1 3.650000e-01    2.570000e+00
  SP5d  TN5q  1 3.650000e-01    2.570000e+00
  SP4d  TN5q  1 3.650000e-01    2.570000e+00
  SP3d  TN5q  1 3.650000e-01    2.570000e+00
  SP2d  TN5q  1 3.650000e-01    2.830000e+00
  SP1d  TN5q  1 3.650000e-01    2.830000e+00
  SN6d  TN5q  1 3.650000e-01    3.100000e+00
  SN5q  TN5d  1 3.650000e-01    2.830000e+00
  SN5q  TN1d  1 3.650000e-01    2.340000e+00
  SN5q  TN2d  1 3.650000e-01    2.570000e+00
  SN5q  TN3d  1 3.650000e-01    2.570000e+00
  SN5q  TN4d  1 3.650000e-01    2.830000e+00
  SP6a  TN5q  1 3.650000e-01    2.570000e+00
  SP5a  TN5q  1 3.650000e-01    2.570000e+00
  SP4a  TN5q  1 3.650000e-01    2.570000e+00
  SP3a  TN5q  1 3.650000e-01    2.570000e+00
  SP2a  TN5q  1 3.650000e-01    2.830000e+00
  SP1a  TN5q  1 3.650000e-01    2.830000e+00
  SN6a  TN5q  1 3.650000e-01    3.100000e+00
  SN5q  TN5a  1 3.650000e-01    2.830000e+00
  SN5q  TN1a  1 3.650000e-01    2.340000e+00
  SN5q  TN2a  1 3.650000e-01    2.570000e+00
  SN5q  TN3a  1 3.650000e-01    2.570000e+00
  SN5q  TN4a  1 3.650000e-01    2.830000e+00
  SN5q  TC6v  1 3.650000e-01    2.570000e+00
  SN5q  TC5v  1 3.650000e-01    2.340000e+00
  SN5q  TC4v  1 3.650000e-01    2.110000e+00
  SN5q  TC3v  1 3.650000e-01    2.110000e+00
  SN5q  TC2v  1 3.650000e-01    1.910000e+00
  SN5q  TC1v  1 3.650000e-01    1.750000e+00
  SN5q  TX4v  1 3.650000e-01    2.830000e+00
  SN5q  TX3v  1 3.650000e-01    2.570000e+00
  SN5q  TX2v  1 3.650000e-01    2.340000e+00
  SN5q  TX1v  1 3.650000e-01    2.110000e+00
  SN5q  TC6e  1 3.650000e-01    2.570000e+00
  SN5q  TC5e  1 3.650000e-01    2.340000e+00
  SN5q  TC4e  1 3.650000e-01    2.110000e+00
  SN5q  TC3e  1 3.650000e-01    2.110000e+00
  SN5q  TC2e  1 3.650000e-01    1.910000e+00
  SN5q  TC1e  1 3.650000e-01    1.750000e+00
  SN5q  TX4e  1 3.650000e-01    2.830000e+00
  SN5q  TX3e  1 3.650000e-01    2.570000e+00
  SN5q  TX2e  1 3.650000e-01    2.340000e+00
  SN5q  TX1e  1 3.650000e-01    2.110000e+00
  SP6d  TN4q  1 3.650000e-01    2.340000e+00
  SP5d  TN4q  1 3.650000e-01    2.570000e+00
  SP4d  TN4q  1 3.650000e-01    2.570000e+00
  SP3d  TN4q  1 3.650000e-01    2.570000e+00
  SP2d  TN4q  1 3.650000e-01    2.570000e+00
  SP1d  TN4q  1 3.650000e-01    2.830000e+00
  SN6d  TN4q  1 3.650000e-01    3.100000e+00
  SN5d  TN4q  1 3.650000e-01    2.830000e+00
  SN4q  TN4d  1 3.650000e-01    2.830000e+00
  SN4q  TN1d  1 3.650000e-01    2.340000e+00
  SN4q  TN2d  1 3.650000e-01    2.570000e+00
  SN4q  TN3d  1 3.650000e-01    2.570000e+00
  SP6a  TN4q  1 3.650000e-01    2.340000e+00
  SP5a  TN4q  1 3.650000e-01    2.570000e+00
  SP4a  TN4q  1 3.650000e-01    2.570000e+00
  SP3a  TN4q  1 3.650000e-01    2.570000e+00
  SP2a  TN4q  1 3.650000e-01    2.570000e+00
  SP1a  TN4q  1 3.650000e-01    2.830000e+00
  SN6a  TN4q  1 3.650000e-01    3.100000e+00
  SN5a  TN4q  1 3.650000e-01    2.830000e+00
  SN4q  TN4a  1 3.650000e-01    2.830000e+00
  SN4q  TN1a  1 3.650000e-01    2.340000e+00
  SN4q  TN2a  1 3.650000e-01    2.570000e+00
  SN4q  TN3a  1 3.650000e-01    2.570000e+00
  SN4q  TC6v  1 3.650000e-01    2.570000e+00
  SN4q  TC5v  1 3.650000e-01    2.340000e+00
  SN4q  TC4v  1 3.650000e-01    2.340000e+00
  SN4q  TC3v  1 3.650000e-01    2.110000e+00
  SN4q  TC2v  1 3.650000e-01    1.910000e+00
  SN4q  TC1v  1 3.650000e-01    1.750000e+00
  SN4q  TX4v  1 3.650000e-01    3.100000e+00
  SN4q  TX3v  1 3.650000e-01    2.830000e+00
  SN4q  TX2v  1 3.650000e-01    2.340000e+00
  SN4q  TX1v  1 3.650000e-01    2.110000e+00
  SN4q  TC6e  1 3.650000e-01    2.570000e+00
  SN4q  TC5e  1 3.650000e-01    2.340000e+00
  SN4q  TC4e  1 3.650000e-01    2.340000e+00
  SN4q  TC3e  1 3.650000e-01    2.110000e+00
  SN4q  TC2e  1 3.650000e-01    1.910000e+00
  SN4q  TC1e  1 3.650000e-01    1.750000e+00
  SN4q  TX4e  1 3.650000e-01    3.100000e+00
  SN4q  TX3e  1 3.650000e-01    2.830000e+00
  SN4q  TX2e  1 3.650000e-01    2.340000e+00
  SN4q  TX1e  1 3.650000e-01    2.110000e+00
  SP6d  TN3q  1 3.650000e-01    2.110000e+00
  SP5d  TN3q  1 3.650000e-01    2.110000e+00
  SP4d  TN3q  1 3.650000e-01    2.340000e+00
  SP3d  TN3q  1 3.650000e-01    2.340000e+00
  SP2d  TN3q  1 3.650000e-01    2.340000e+00
  SP1d  TN3q  1 3.650000e-01    2.340000e+00
  SN6d  TN3q  1 3.650000e-01    2.570000e+00
  SN5d  TN3q  1 3.650000e-01    2.570000e+00
  SN4d  TN3q  1 3.650000e-01    2.570000e+00
  SN3q  TN3d  1 3.650000e-01    2.570000e+00
  SN3q  TN1d  1 3.650000e-01    2.340000e+00
  SN3q  TN2d  1 3.650000e-01    2.570000e+00
  SP6a  TN3q  1 3.650000e-01    2.110000e+00
  SP5a  TN3q  1 3.650000e-01    2.110000e+00
  SP4a  TN3q  1 3.650000e-01    2.340000e+00
  SP3a  TN3q  1 3.650000e-01    2.340000e+00
  SP2a  TN3q  1 3.650000e-01    2.340000e+00
  SP1a  TN3q  1 3.650000e-01    2.340000e+00
  SN6a  TN3q  1 3.650000e-01    2.570000e+00
  SN5a  TN3q  1 3.650000e-01    2.570000e+00
  SN4a  TN3q  1 3.650000e-01    2.570000e+00
  SN3q  TN3a  1 3.650000e-01    2.570000e+00
  SN3q  TN1a  1 3.650000e-01    2.340000e+00
  SN3q  TN2a  1 3.650000e-01    2.570000e+00
  SN3q  TC6v  1 3.650000e-01    2.570000e+00
  SN3q  TC5v  1 3.650000e-01    2.340000e+00
  SN3q  TC4v  1 3.650000e-01    2.340000e+00
  SN3q  TC3v  1 3.650000e-01    2.110000e+00
  SN3q  TC2v  1 3.650000e-01    2.110000e+00
  SN3q  TC1v  1 3.650000e-01    1.910000e+00
  SN3q  TX4v  1 3.650000e-01    2.830000e+00
  SN3q  TX3v  1 3.650000e-01    2.570000e+00
  SN3q  TX2v  1 3.650000e-01    2.340000e+00
  SN3q  TX1v  1 3.650000e-01    2.340000e+00
  SN3q  TC6e  1 3.650000e-01    2.570000e+00
  SN3q  TC5e  1 3.650000e-01    2.340000e+00
  SN3q  TC4e  1 3.650000e-01    2.340000e+00
  SN3q  TC3e  1 3.650000e-01    2.110000e+00
  SN3q  TC2e  1 3.650000e-01    2.110000e+00
  SN3q  TC1e  1 3.650000e-01    1.910000e+00
  SN3q  TX4e  1 3.650000e-01    2.830000e+00
  SN3q  TX3e  1 3.650000e-01    2.570000e+00
  SN3q  TX2e  1 3.650000e-01    2.340000e+00
  SN3q  TX1e  1 3.650000e-01    2.340000e+00
  SP6d  TN2q  1 3.650000e-01    1.910000e+00
  SP5d  TN2q  1 3.650000e-01    1.910000e+00
  SP4d  TN2q  1 3.650000e-01    2.110000e+00
  SP3d  TN2q  1 3.650000e-01    2.340000e+00
  SP2d  TN2q  1 3.650000e-01    2.340000e+00
  SP1d  TN2q  1 3.650000e-01    2.340000e+00
  SN6d  TN2q  1 3.650000e-01    2.340000e+00
  SN5d  TN2q  1 3.650000e-01    2.570000e+00
  SN4d  TN2q  1 3.650000e-01    2.570000e+00
  SN3d  TN2q  1 3.650000e-01    2.570000e+00
  SN2q  TN2d  1 3.650000e-01    2.570000e+00
  SN2q  TN1d  1 3.650000e-01    2.340000e+00
  SP6a  TN2q  1 3.650000e-01    1.910000e+00
  SP5a  TN2q  1 3.650000e-01    1.910000e+00
  SP4a  TN2q  1 3.650000e-01    2.110000e+00
  SP3a  TN2q  1 3.650000e-01    2.340000e+00
  SP2a  TN2q  1 3.650000e-01    2.340000e+00
  SP1a  TN2q  1 3.650000e-01    2.340000e+00
  SN6a  TN2q  1 3.650000e-01    2.340000e+00
  SN5a  TN2q  1 3.650000e-01    2.570000e+00
  SN4a  TN2q  1 3.650000e-01    2.570000e+00
  SN3a  TN2q  1 3.650000e-01    2.570000e+00
  SN2q  TN2a  1 3.650000e-01    2.570000e+00
  SN2q  TN1a  1 3.650000e-01    2.340000e+00
  SN2q  TC6v  1 3.650000e-01    2.570000e+00
  SN2q  TC5v  1 3.650000e-01    2.340000e+00
  SN2q  TC4v  1 3.650000e-01    2.340000e+00
  SN2q  TC3v  1 3.650000e-01    2.340000e+00
  SN2q  TC2v  1 3.650000e-01    2.110000e+00
  SN2q  TC1v  1 3.650000e-01    1.910000e+00
  SN2q  TX4v  1 3.650000e-01    2.830000e+00
  SN2q  TX3v  1 3.650000e-01    2.570000e+00
  SN2q  TX2v  1 3.650000e-01    2.340000e+00
  SN2q  TX1v  1 3.650000e-01    2.340000e+00
  SN2q  TC6e  1 3.650000e-01    2.570000e+00
  SN2q  TC5e  1 3.650000e-01    2.340000e+00
  SN2q  TC4e  1 3.650000e-01    2.340000e+00
  SN2q  TC3e  1 3.650000e-01    2.340000e+00
  SN2q  TC2e  1 3.650000e-01    2.110000e+00
  SN2q  TC1e  1 3.650000e-01    1.910000e+00
  SN2q  TX4e  1 3.650000e-01    2.830000e+00
  SN2q  TX3e  1 3.650000e-01    2.570000e+00
  SN2q  TX2e  1 3.650000e-01    2.340000e+00
  SN2q  TX1e  1 3.650000e-01    2.340000e+00
  SP6d  TN1q  1 3.650000e-01    1.750000e+00
  SP5d  TN1q  1 3.650000e-01    1.750000e+00
  SP4d  TN1q  1 3.650000e-01    1.910000e+00
  SP3d  TN1q  1 3.650000e-01    2.110000e+00
  SP2d  TN1q  1 3.650000e-01    2.340000e+00
  SP1d  TN1q  1 3.650000e-01    2.340000e+00
  SN6d  TN1q  1 3.650000e-01    2.340000e+00
  SN5d  TN1q  1 3.650000e-01    2.340000e+00
  SN4d  TN1q  1 3.650000e-01    2.340000e+00
  SN3d  TN1q  1 3.650000e-01    2.340000e+00
  SN2d  TN1q  1 3.650000e-01    2.340000e+00
  SN1q  TN1d  1 3.650000e-01    2.570000e+00
  SP6a  TN1q  1 3.650000e-01    1.750000e+00
  SP5a  TN1q  1 3.650000e-01    1.750000e+00
  SP4a  TN1q  1 3.650000e-01    1.910000e+00
  SP3a  TN1q  1 3.650000e-01    2.110000e+00
  SP2a  TN1q  1 3.650000e-01    2.340000e+00
  SP1a  TN1q  1 3.650000e-01    2.340000e+00
  SN6a  TN1q  1 3.650000e-01    2.340000e+00
  SN5a  TN1q  1 3.650000e-01    2.340000e+00
  SN4a  TN1q  1 3.650000e-01    2.340000e+00
  SN3a  TN1q  1 3.650000e-01    2.340000e+00
  SN2a  TN1q  1 3.650000e-01    2.340000e+00
  SN1q  TN1a  1 3.650000e-01    2.570000e+00
  SN1q  TC6v  1 3.650000e-01    2.830000e+00
  SN1q  TC5v  1 3.650000e-01    2.570000e+00
  SN1q  TC4v  1 3.650000e-01    2.570000e+00
  SN1q  TC3v  1 3.650000e-01    2.340000e+00
  SN1q  TC2v  1 3.650000e-01    2.110000e+00
  SN1q  TC1v  1 3.650000e-01    1.910000e+00
  SN1q  TX4v  1 3.650000e-01    2.570000e+00
  SN1q  TX3v  1 3.650000e-01    2.570000e+00
  SN1q  TX2v  1 3.650000e-01    2.340000e+00
  SN1q  TX1v  1 3.650000e-01    2.340000e+00
  SN1q  TC6e  1 3.650000e-01    2.830000e+00
  SN1q  TC5e  1 3.650000e-01    2.570000e+00
  SN1q  TC4e  1 3.650000e-01    2.570000e+00
  SN1q  TC3e  1 3.650000e-01    2.340000e+00
  SN1q  TC2e  1 3.650000e-01    2.110000e+00
  SN1q  TC1e  1 3.650000e-01    1.910000e+00
  SN1q  TX4e  1 3.650000e-01    2.570000e+00
  SN1q  TX3e  1 3.650000e-01    2.570000e+00
  SN1q  TX2e  1 3.650000e-01    2.340000e+00
  SN1q  TX1e  1 3.650000e-01    2.340000e+00
  SP6d  TC6q  1 3.650000e-01    1.750000e+00
  SP5d  TC6q  1 3.650000e-01    1.750000e+00
  SP4d  TC6q  1 3.650000e-01    1.910000e+00
  SP3d  TC6q  1 3.650000e-01    2.110000e+00
  SP2d  TC6q  1 3.650000e-01    2.110000e+00
  SP1d  TC6q  1 3.650000e-01    2.110000e+00
  SN6d  TC6q  1 3.650000e-01    2.340000e+00
  SN5d  TC6q  1 3.650000e-01    2.340000e+00
  SN4d  TC6q  1 3.650000e-01    2.340000e+00
  SN3d  TC6q  1 3.650000e-01    2.340000e+00
  SN2d  TC6q  1 3.650000e-01    2.340000e+00
  SN1d  TC6q  1 3.650000e-01    2.570000e+00
  SP6a  TC6q  1 3.650000e-01    1.750000e+00
  SP5a  TC6q  1 3.650000e-01    1.750000e+00
  SP4a  TC6q  1 3.650000e-01    1.910000e+00
  SP3a  TC6q  1 3.650000e-01    2.110000e+00
  SP2a  TC6q  1 3.650000e-01    2.110000e+00
  SP1a  TC6q  1 3.650000e-01    2.110000e+00
  SN6a  TC6q  1 3.650000e-01    2.340000e+00
  SN5a  TC6q  1 3.650000e-01    2.340000e+00
  SN4a  TC6q  1 3.650000e-01    2.340000e+00
  SN3a  TC6q  1 3.650000e-01    2.340000e+00
  SN2a  TC6q  1 3.650000e-01    2.340000e+00
  SN1a  TC6q  1 3.650000e-01    2.570000e+00
  SC6q  TC6v  1 3.650000e-01    2.830000e+00
  SC6q  TX1v  1 3.650000e-01    2.570000e+00
  SC6q  TX2v  1 3.650000e-01    2.570000e+00
  SC6q  TX3v  1 3.650000e-01    2.570000e+00
  SC6q  TX4v  1 3.650000e-01    2.570000e+00
  SC6q  TC1v  1 3.650000e-01    1.910000e+00
  SC6q  TC2v  1 3.650000e-01    2.110000e+00
  SC6q  TC3v  1 3.650000e-01    2.340000e+00
  SC6q  TC4v  1 3.650000e-01    2.570000e+00
  SC6q  TC5v  1 3.650000e-01    2.570000e+00
  SC6q  TC6e  1 3.650000e-01    2.830000e+00
  SC6q  TX1e  1 3.650000e-01    2.570000e+00
  SC6q  TX2e  1 3.650000e-01    2.570000e+00
  SC6q  TX3e  1 3.650000e-01    2.570000e+00
  SC6q  TX4e  1 3.650000e-01    2.570000e+00
  SC6q  TC1e  1 3.650000e-01    1.910000e+00
  SC6q  TC2e  1 3.650000e-01    2.110000e+00
  SC6q  TC3e  1 3.650000e-01    2.340000e+00
  SC6q  TC4e  1 3.650000e-01    2.570000e+00
  SC6q  TC5e  1 3.650000e-01    2.570000e+00
  SP6d  TC5q  1 3.660000e-01    1.600000e+00
  SP5d  TC5q  1 3.650000e-01    1.750000e+00
  SP4d  TC5q  1 3.650000e-01    1.750000e+00
  SP3d  TC5q  1 3.650000e-01    1.910000e+00
  SP2d  TC5q  1 3.650000e-01    1.910000e+00
  SP1d  TC5q  1 3.650000e-01    1.910000e+00
  SN6d  TC5q  1 3.650000e-01    2.110000e+00
  SN5d  TC5q  1 3.650000e-01    2.110000e+00
  SN4d  TC5q  1 3.650000e-01    2.110000e+00
  SN3d  TC5q  1 3.650000e-01    2.110000e+00
  SN2d  TC5q  1 3.650000e-01    2.110000e+00
  SN1d  TC5q  1 3.650000e-01    2.340000e+00
  SP6a  TC5q  1 3.660000e-01    1.600000e+00
  SP5a  TC5q  1 3.650000e-01    1.750000e+00
  SP4a  TC5q  1 3.650000e-01    1.750000e+00
  SP3a  TC5q  1 3.650000e-01    1.910000e+00
  SP2a  TC5q  1 3.650000e-01    1.910000e+00
  SP1a  TC5q  1 3.650000e-01    1.910000e+00
  SN6a  TC5q  1 3.650000e-01    2.110000e+00
  SN5a  TC5q  1 3.650000e-01    2.110000e+00
  SN4a  TC5q  1 3.650000e-01    2.110000e+00
  SN3a  TC5q  1 3.650000e-01    2.110000e+00
  SN2a  TC5q  1 3.650000e-01    2.110000e+00
  SN1a  TC5q  1 3.650000e-01    2.340000e+00
  SC6v  TC5q  1 3.650000e-01    2.570000e+00
  SC5q  TC5v  1 3.650000e-01    2.570000e+00
  SC5q  TX1v  1 3.650000e-01    2.570000e+00
  SC5q  TX2v  1 3.650000e-01    2.340000e+00
  SC5q  TX3v  1 3.650000e-01    2.340000e+00
  SC5q  TX4v  1 3.650000e-01    2.340000e+00
  SC5q  TC1v  1 3.650000e-01    2.110000e+00
  SC5q  TC2v  1 3.650000e-01    2.110000e+00
  SC5q  TC3v  1 3.650000e-01    2.340000e+00
  SC5q  TC4v  1 3.650000e-01    2.570000e+00
  SC6e  TC5q  1 3.650000e-01    2.570000e+00
  SC5q  TC5e  1 3.650000e-01    2.570000e+00
  SC5q  TX1e  1 3.650000e-01    2.570000e+00
  SC5q  TX2e  1 3.650000e-01    2.340000e+00
  SC5q  TX3e  1 3.650000e-01    2.340000e+00
  SC5q  TX4e  1 3.650000e-01    2.340000e+00
  SC5q  TC1e  1 3.650000e-01    2.110000e+00
  SC5q  TC2e  1 3.650000e-01    2.110000e+00
  SC5q  TC3e  1 3.650000e-01    2.340000e+00
  SC5q  TC4e  1 3.650000e-01    2.570000e+00
  SP6d  TC4q  1 3.780000e-01    1.450000e+00
  SP5d  TC4q  1 3.660000e-01    1.600000e+00
  SP4d  TC4q  1 3.660000e-01    1.600000e+00
  SP3d  TC4q  1 3.650000e-01    1.750000e+00
  SP2d  TC4q  1 3.650000e-01    1.750000e+00
  SP1d  TC4q  1 3.650000e-01    1.750000e+00
  SN6d  TC4q  1 3.650000e-01    1.910000e+00
  SN5d  TC4q  1 3.650000e-01    1.910000e+00
  SN4d  TC4q  1 3.650000e-01    2.110000e+00
  SN3d  TC4q  1 3.650000e-01    2.110000e+00
  SN2d  TC4q  1 3.650000e-01    2.110000e+00
  SN1d  TC4q  1 3.650000e-01    2.340000e+00
  SP6a  TC4q  1 3.780000e-01    1.450000e+00
  SP5a  TC4q  1 3.660000e-01    1.600000e+00
  SP4a  TC4q  1 3.660000e-01    1.600000e+00
  SP3a  TC4q  1 3.650000e-01    1.750000e+00
  SP2a  TC4q  1 3.650000e-01    1.750000e+00
  SP1a  TC4q  1 3.650000e-01    1.750000e+00
  SN6a  TC4q  1 3.650000e-01    1.910000e+00
  SN5a  TC4q  1 3.650000e-01    1.910000e+00
  SN4a  TC4q  1 3.650000e-01    2.110000e+00
  SN3a  TC4q  1 3.650000e-01    2.110000e+00
  SN2a  TC4q  1 3.650000e-01    2.110000e+00
  SN1a  TC4q  1 3.650000e-01    2.340000e+00
  SC6v  TC4q  1 3.650000e-01    2.570000e+00
  SC5v  TC4q  1 3.650000e-01    2.570000e+00
  SC4q  TC4v  1 3.650000e-01    2.570000e+00
  SC4q  TX1v  1 3.650000e-01    2.570000e+00
  SC4q  TX2v  1 3.650000e-01    2.340000e+00
  SC4q  TX3v  1 3.650000e-01    2.340000e+00
  SC4q  TX4v  1 3.650000e-01    2.340000e+00
  SC4q  TC1v  1 3.650000e-01    2.110000e+00
  SC4q  TC2v  1 3.650000e-01    2.340000e+00
  SC4q  TC3v  1 3.650000e-01    2.570000e+00
  SC6e  TC4q  1 3.650000e-01    2.570000e+00
  SC5e  TC4q  1 3.650000e-01    2.570000e+00
  SC4q  TC4e  1 3.650000e-01    2.570000e+00
  SC4q  TX1e  1 3.650000e-01    2.570000e+00
  SC4q  TX2e  1 3.650000e-01    2.340000e+00
  SC4q  TX3e  1 3.650000e-01    2.340000e+00
  SC4q  TX4e  1 3.650000e-01    2.340000e+00
  SC4q  TC1e  1 3.650000e-01    2.110000e+00
  SC4q  TC2e  1 3.650000e-01    2.340000e+00
  SC4q  TC3e  1 3.650000e-01    2.570000e+00
  SP6d  TC3q  1 3.940000e-01    1.290000e+00
  SP5d  TC3q  1 3.780000e-01    1.450000e+00
  SP4d  TC3q  1 3.780000e-01    1.450000e+00
  SP3d  TC3q  1 3.780000e-01    1.450000e+00
  SP2d  TC3q  1 3.660000e-01    1.600000e+00
  SP1d  TC3q  1 3.660000e-01    1.600000e+00
  SN6d  TC3q  1 3.650000e-01    1.750000e+00
  SN5d  TC3q  1 3.650000e-01    1.910000e+00
  SN4d  TC3q  1 3.650000e-01    1.910000e+00
  SN3d  TC3q  1 3.650000e-01    1.910000e+00
  SN2d  TC3q  1 3.650000e-01    2.110000e+00
  SN1d  TC3q  1 3.650000e-01    2.110000e+00
  SP6a  TC3q  1 3.940000e-01    1.290000e+00
  SP5a  TC3q  1 3.780000e-01    1.450000e+00
  SP4a  TC3q  1 3.780000e-01    1.450000e+00
  SP3a  TC3q  1 3.780000e-01    1.450000e+00
  SP2a  TC3q  1 3.660000e-01    1.600000e+00
  SP1a  TC3q  1 3.660000e-01    1.600000e+00
  SN6a  TC3q  1 3.650000e-01    1.750000e+00
  SN5a  TC3q  1 3.650000e-01    1.910000e+00
  SN4a  TC3q  1 3.650000e-01    1.910000e+00
  SN3a  TC3q  1 3.650000e-01    1.910000e+00
  SN2a  TC3q  1 3.650000e-01    2.110000e+00
  SN1a  TC3q  1 3.650000e-01    2.110000e+00
  SC6v  TC3q  1 3.650000e-01    2.340000e+00
  SC5v  TC3q  1 3.650000e-01    2.340000e+00
  SC4v  TC3q  1 3.650000e-01    2.570000e+00
  SC3q  TC3v  1 3.650000e-01    2.570000e+00
  SC3q  TX1v  1 3.650000e-01    2.570000e+00
  SC3q  TX2v  1 3.650000e-01    2.340000e+00
  SC3q  TX3v  1 3.650000e-01    2.340000e+00
  SC3q  TX4v  1 3.650000e-01    2.340000e+00
  SC3q  TC1v  1 3.650000e-01    2.570000e+00
  SC3q  TC2v  1 3.650000e-01    2.570000e+00
  SC6e  TC3q  1 3.650000e-01    2.340000e+00
  SC5e  TC3q  1 3.650000e-01    2.340000e+00
  SC4e  TC3q  1 3.650000e-01    2.570000e+00
  SC3q  TC3e  1 3.650000e-01    2.570000e+00
  SC3q  TX1e  1 3.650000e-01    2.570000e+00
  SC3q  TX2e  1 3.650000e-01    2.340000e+00
  SC3q  TX3e  1 3.650000e-01    2.340000e+00
  SC3q  TX4e  1 3.650000e-01    2.340000e+00
  SC3q  TC1e  1 3.650000e-01    2.570000e+00
  SC3q  TC2e  1 3.650000e-01    2.570000e+00
  SP6d  TC2q  1 3.940000e-01    1.290000e+00
  SP5d  TC2q  1 3.780000e-01    1.450000e+00
  SP4d  TC2q  1 3.780000e-01    1.450000e+00
  SP3d  TC2q  1 3.780000e-01    1.450000e+00
  SP2d  TC2q  1 3.660000e-01    1.600000e+00
  SP1d  TC2q  1 3.660000e-01    1.600000e+00
  SN6d  TC2q  1 3.650000e-01    1.750000e+00
  SN5d  TC2q  1 3.650000e-01    1.750000e+00
  SN4d  TC2q  1 3.650000e-01    1.750000e+00
  SN3d  TC2q  1 3.650000e-01    1.910000e+00
  SN2d  TC2q  1 3.650000e-01    1.910000e+00
  SN1d  TC2q  1 3.650000e-01    1.910000e+00
  SP6a  TC2q  1 3.940000e-01    1.290000e+00
  SP5a  TC2q  1 3.780000e-01    1.450000e+00
  SP4a  TC2q  1 3.780000e-01    1.450000e+00
  SP3a  TC2q  1 3.780000e-01    1.450000e+00
  SP2a  TC2q  1 3.660000e-01    1.600000e+00
  SP1a  TC2q  1 3.660000e-01    1.600000e+00
  SN6a  TC2q  1 3.650000e-01    1.750000e+00
  SN5a  TC2q  1 3.650000e-01    1.750000e+00
  SN4a  TC2q  1 3.650000e-01    1.750000e+00
  SN3a  TC2q  1 3.650000e-01    1.910000e+00
  SN2a  TC2q  1 3.650000e-01    1.910000e+00
  SN1a  TC2q  1 3.650000e-01    1.910000e+00
  SC6v  TC2q  1 3.650000e-01    2.110000e+00
  SC5v  TC2q  1 3.650000e-01    2.110000e+00
  SC4v  TC2q  1 3.650000e-01    2.340000e+00
  SC3v  TC2q  1 3.650000e-01    2.570000e+00
  SC2q  TC2v  1 3.650000e-01    2.570000e+00
  SC2q  TX1v  1 3.650000e-01    2.340000e+00
  SC2q  TX2v  1 3.650000e-01    2.340000e+00
  SC2q  TX3v  1 3.650000e-01    2.340000e+00
  SC2q  TX4v  1 3.650000e-01    1.910000e+00
  SC2q  TC1v  1 3.650000e-01    2.830000e+00
  SC6e  TC2q  1 3.650000e-01    2.110000e+00
  SC5e  TC2q  1 3.650000e-01    2.110000e+00
  SC4e  TC2q  1 3.650000e-01    2.340000e+00
  SC3e  TC2q  1 3.650000e-01    2.570000e+00
  SC2q  TC2e  1 3.650000e-01    2.570000e+00
  SC2q  TX1e  1 3.650000e-01    2.340000e+00
  SC2q  TX2e  1 3.650000e-01    2.340000e+00
  SC2q  TX3e  1 3.650000e-01    2.340000e+00
  SC2q  TX4e  1 3.650000e-01    1.910000e+00
  SC2q  TC1e  1 3.650000e-01    2.830000e+00
  SP6d  TC1q  1 4.090000e-01    1.080000e+00
  SP5d  TC1q  1 3.940000e-01    1.290000e+00
  SP4d  TC1q  1 3.940000e-01    1.290000e+00
  SP3d  TC1q  1 3.940000e-01    1.290000e+00
  SP2d  TC1q  1 3.780000e-01    1.450000e+00
  SP1d  TC1q  1 3.780000e-01    1.450000e+00
  SN6d  TC1q  1 3.660000e-01    1.600000e+00
  SN5d  TC1q  1 3.660000e-01    1.600000e+00
  SN4d  TC1q  1 3.660000e-01    1.600000e+00
  SN3d  TC1q  1 3.650000e-01    1.750000e+00
  SN2d  TC1q  1 3.650000e-01    1.750000e+00
  SN1d  TC1q  1 3.650000e-01    1.750000e+00
  SP6a  TC1q  1 4.090000e-01    1.080000e+00
  SP5a  TC1q  1 3.940000e-01    1.290000e+00
  SP4a  TC1q  1 3.940000e-01    1.290000e+00
  SP3a  TC1q  1 3.940000e-01    1.290000e+00
  SP2a  TC1q  1 3.780000e-01    1.450000e+00
  SP1a  TC1q  1 3.780000e-01    1.450000e+00
  SN6a  TC1q  1 3.660000e-01    1.600000e+00
  SN5a  TC1q  1 3.660000e-01    1.600000e+00
  SN4a  TC1q  1 3.660000e-01    1.600000e+00
  SN3a  TC1q  1 3.650000e-01    1.750000e+00
  SN2a  TC1q  1 3.650000e-01    1.750000e+00
  SN1a  TC1q  1 3.650000e-01    1.750000e+00
  SC6v  TC1q  1 3.650000e-01    1.910000e+00
  SC5v  TC1q  1 3.650000e-01    2.110000e+00
  SC4v  TC1q  1 3.650000e-01    2.110000e+00
  SC3v  TC1q  1 3.650000e-01    2.570000e+00
  SC2v  TC1q  1 3.650000e-01    2.830000e+00
  SC1q  TC1v  1 3.650000e-01    2.570000e+00
  SC1q  TX1v  1 3.650000e-01    2.340000e+00
  SC1q  TX2v  1 3.650000e-01    2.340000e+00
  SC1q  TX3v  1 3.650000e-01    2.340000e+00
  SC1q  TX4v  1 3.650000e-01    1.910000e+00
  SC6e  TC1q  1 3.650000e-01    1.910000e+00
  SC5e  TC1q  1 3.650000e-01    2.110000e+00
  SC4e  TC1q  1 3.650000e-01    2.110000e+00
  SC3e  TC1q  1 3.650000e-01    2.570000e+00
  SC2e  TC1q  1 3.650000e-01    2.830000e+00
  SC1q  TC1e  1 3.650000e-01    2.570000e+00
  SC1q  TX1e  1 3.650000e-01    2.340000e+00
  SC1q  TX2e  1 3.650000e-01    2.340000e+00
  SC1q  TX3e  1 3.650000e-01    2.340000e+00
  SC1q  TX4e  1 3.650000e-01    1.910000e+00
  SP6d  TX4q  1 3.650000e-01    1.910000e+00
  SP5d  TX4q  1 3.650000e-01    2.110000e+00
  SP4d  TX4q  1 3.650000e-01    2.110000e+00
  SP3d  TX4q  1 3.650000e-01    2.110000e+00
  SP2d  TX4q  1 3.650000e-01    2.110000e+00
  SP1d  TX4q  1 3.650000e-01    2.110000e+00
  SN6d  TX4q  1 3.650000e-01    2.340000e+00
  SN5d  TX4q  1 3.650000e-01    2.570000e+00
  SN4d  TX4q  1 3.650000e-01    2.830000e+00
  SN3d  TX4q  1 3.650000e-01    2.570000e+00
  SN2d  TX4q  1 3.650000e-01    2.570000e+00
  SN1d  TX4q  1 3.650000e-01    2.340000e+00
  SP6a  TX4q  1 3.650000e-01    1.910000e+00
  SP5a  TX4q  1 3.650000e-01    2.110000e+00
  SP4a  TX4q  1 3.650000e-01    2.110000e+00
  SP3a  TX4q  1 3.650000e-01    2.110000e+00
  SP2a  TX4q  1 3.650000e-01    2.110000e+00
  SP1a  TX4q  1 3.650000e-01    2.110000e+00
  SN6a  TX4q  1 3.650000e-01    2.340000e+00
  SN5a  TX4q  1 3.650000e-01    2.570000e+00
  SN4a  TX4q  1 3.650000e-01    2.830000e+00
  SN3a  TX4q  1 3.650000e-01    2.570000e+00
  SN2a  TX4q  1 3.650000e-01    2.570000e+00
  SN1a  TX4q  1 3.650000e-01    2.340000e+00
  SC6v  TX4q  1 3.650000e-01    2.570000e+00
  SC5v  TX4q  1 3.650000e-01    2.340000e+00
  SC4v  TX4q  1 3.650000e-01    2.340000e+00
  SC3v  TX4q  1 3.650000e-01    2.340000e+00
  SC2v  TX4q  1 3.650000e-01    1.910000e+00
  SC1v  TX4q  1 3.650000e-01    1.910000e+00
  SX4q  TX4v  1 3.650000e-01    2.570000e+00
  SX4q  TX1v  1 3.650000e-01    2.570000e+00
  SX4q  TX2v  1 3.650000e-01    2.570000e+00
  SX4q  TX3v  1 3.650000e-01    2.570000e+00
  SC6e  TX4q  1 3.650000e-01    2.570000e+00
  SC5e  TX4q  1 3.650000e-01    2.340000e+00
  SC4e  TX4q  1 3.650000e-01    2.340000e+00
  SC3e  TX4q  1 3.650000e-01    2.340000e+00
  SC2e  TX4q  1 3.650000e-01    1.910000e+00
  SC1e  TX4q  1 3.650000e-01    1.910000e+00
  SX4q  TX4e  1 3.650000e-01    2.570000e+00
  SX4q  TX1e  1 3.650000e-01    2.570000e+00
  SX4q  TX2e  1 3.650000e-01    2.570000e+00
  SX4q  TX3e  1 3.650000e-01    2.570000e+00
  SP6d  TX3q  1 3.650000e-01    1.910000e+00
  SP5d  TX3q  1 3.650000e-01    1.910000e+00
  SP4d  TX3q  1 3.650000e-01    1.910000e+00
  SP3d  TX3q  1 3.650000e-01    2.110000e+00
  SP2d  TX3q  1 3.650000e-01    2.110000e+00
  SP1d  TX3q  1 3.650000e-01    2.110000e+00
  SN6d  TX3q  1 3.650000e-01    2.110000e+00
  SN5d  TX3q  1 3.650000e-01    2.340000e+00
  SN4d  TX3q  1 3.650000e-01    2.570000e+00
  SN3d  TX3q  1 3.650000e-01    2.340000e+00
  SN2d  TX3q  1 3.650000e-01    2.340000e+00
  SN1d  TX3q  1 3.650000e-01    2.340000e+00
  SP6a  TX3q  1 3.650000e-01    1.910000e+00
  SP5a  TX3q  1 3.650000e-01    1.910000e+00
  SP4a  TX3q  1 3.650000e-01    1.910000e+00
  SP3a  TX3q  1 3.650000e-01    2.110000e+00
  SP2a  TX3q  1 3.650000e-01    2.110000e+00
  SP1a  TX3q  1 3.650000e-01    2.110000e+00
  SN6a  TX3q  1 3.650000e-01    2.110000e+00
  SN5a  TX3q  1 3.650000e-01    2.340000e+00
  SN4a  TX3q  1 3.650000e-01    2.570000e+00
  SN3a  TX3q  1 3.650000e-01    2.340000e+00
  SN2a  TX3q  1 3.650000e-01    2.340000e+00
  SN1a  TX3q  1 3.650000e-01    2.340000e+00
  SC6v  TX3q  1 3.650000e-01    2.570000e+00
  SC5v  TX3q  1 3.650000e-01    2.340000e+00
  SC4v  TX3q  1 3.650000e-01    2.340000e+00
  SC3v  TX3q  1 3.650000e-01    2.340000e+00
  SC2v  TX3q  1 3.650000e-01    2.340000e+00
  SC1v  TX3q  1 3.650000e-01    2.340000e+00
  SX4v  TX3q  1 3.650000e-01    2.570000e+00
  SX3q  TX3v  1 3.650000e-01    2.570000e+00
  SX3q  TX1v  1 3.650000e-01    2.830000e+00
  SX3q  TX2v  1 3.650000e-01    2.830000e+00
  SC6e  TX3q  1 3.650000e-01    2.570000e+00
  SC5e  TX3q  1 3.650000e-01    2.340000e+00
  SC4e  TX3q  1 3.650000e-01    2.340000e+00
  SC3e  TX3q  1 3.650000e-01    2.340000e+00
  SC2e  TX3q  1 3.650000e-01    2.340000e+00
  SC1e  TX3q  1 3.650000e-01    2.340000e+00
  SX4e  TX3q  1 3.650000e-01    2.570000e+00
  SX3q  TX3e  1 3.650000e-01    2.570000e+00
  SX3q  TX1e  1 3.650000e-01    2.830000e+00
  SX3q  TX2e  1 3.650000e-01    2.830000e+00
  SP6d  TX2q  1 3.650000e-01    1.750000e+00
  SP5d  TX2q  1 3.650000e-01    1.910000e+00
  SP4d  TX2q  1 3.650000e-01    1.910000e+00
  SP3d  TX2q  1 3.650000e-01    1.910000e+00
  SP2d  TX2q  1 3.650000e-01    1.910000e+00
  SP1d  TX2q  1 3.650000e-01    1.910000e+00
  SN6d  TX2q  1 3.650000e-01    1.910000e+00
  SN5d  TX2q  1 3.650000e-01    2.110000e+00
  SN4d  TX2q  1 3.650000e-01    2.110000e+00
  SN3d  TX2q  1 3.650000e-01    2.110000e+00
  SN2d  TX2q  1 3.650000e-01    2.110000e+00
  SN1d  TX2q  1 3.650000e-01    2.110000e+00
  SP6a  TX2q  1 3.650000e-01    1.750000e+00
  SP5a  TX2q  1 3.650000e-01    1.910000e+00
  SP4a  TX2q  1 3.650000e-01    1.910000e+00
  SP3a  TX2q  1 3.650000e-01    1.910000e+00
  SP2a  TX2q  1 3.650000e-01    1.910000e+00
  SP1a  TX2q  1 3.650000e-01    1.910000e+00
  SN6a  TX2q  1 3.650000e-01    1.910000e+00
  SN5a  TX2q  1 3.650000e-01    2.110000e+00
  SN4a  TX2q  1 3.650000e-01    2.110000e+00
  SN3a  TX2q  1 3.650000e-01    2.110000e+00
  SN2a  TX2q  1 3.650000e-01    2.110000e+00
  SN1a  TX2q  1 3.650000e-01    2.110000e+00
  SC6v  TX2q  1 3.650000e-01    2.570000e+00
  SC5v  TX2q  1 3.650000e-01    2.340000e+00
  SC4v  TX2q  1 3.650000e-01    2.340000e+00
  SC3v  TX2q  1 3.650000e-01    2.340000e+00
  SC2v  TX2q  1 3.650000e-01    2.340000e+00
  SC1v  TX2q  1 3.650000e-01    2.340000e+00
  SX4v  TX2q  1 3.650000e-01    2.570000e+00
  SX3v  TX2q  1 3.650000e-01    2.830000e+00
  SX2q  TX2v  1 3.650000e-01    2.830000e+00
  SX2q  TX1v  1 3.650000e-01    2.830000e+00
  SC6e  TX2q  1 3.650000e-01    2.570000e+00
  SC5e  TX2q  1 3.650000e-01    2.340000e+00
  SC4e  TX2q  1 3.650000e-01    2.340000e+00
  SC3e  TX2q  1 3.650000e-01    2.340000e+00
  SC2e  TX2q  1 3.650000e-01    2.340000e+00
  SC1e  TX2q  1 3.650000e-01    2.340000e+00
  SX4e  TX2q  1 3.650000e-01    2.570000e+00
  SX3e  TX2q  1 3.650000e-01    2.830000e+00
  SX2q  TX2e  1 3.650000e-01    2.830000e+00
  SX2q  TX1e  1 3.650000e-01    2.830000e+00
  SP6d  TX1q  1 3.660000e-01    1.600000e+00
  SP5d  TX1q  1 3.660000e-01    1.600000e+00
  SP4d  TX1q  1 3.650000e-01    1.750000e+00
  SP3d  TX1q  1 3.650000e-01    1.750000e+00
  SP2d  TX1q  1 3.650000e-01    1.750000e+00
  SP1d  TX1q  1 3.650000e-01    1.750000e+00
  SN6d  TX1q  1 3.650000e-01    1.750000e+00
  SN5d  TX1q  1 3.650000e-01    1.910000e+00
  SN4d  TX1q  1 3.650000e-01    1.910000e+00
  SN3d  TX1q  1 3.650000e-01    2.110000e+00
  SN2d  TX1q  1 3.650000e-01    2.110000e+00
  SN1d  TX1q  1 3.650000e-01    2.110000e+00
  SP6a  TX1q  1 3.660000e-01    1.600000e+00
  SP5a  TX1q  1 3.660000e-01    1.600000e+00
  SP4a  TX1q  1 3.650000e-01    1.750000e+00
  SP3a  TX1q  1 3.650000e-01    1.750000e+00
  SP2a  TX1q  1 3.650000e-01    1.750000e+00
  SP1a  TX1q  1 3.650000e-01    1.750000e+00
  SN6a  TX1q  1 3.650000e-01    1.750000e+00
  SN5a  TX1q  1 3.650000e-01    1.910000e+00
  SN4a  TX1q  1 3.650000e-01    1.910000e+00
  SN3a  TX1q  1 3.650000e-01    2.110000e+00
  SN2a  TX1q  1 3.650000e-01    2.110000e+00
  SN1a  TX1q  1 3.650000e-01    2.110000e+00
  SC6v  TX1q  1 3.650000e-01    2.570000e+00
  SC5v  TX1q  1 3.650000e-01    2.570000e+00
  SC4v  TX1q  1 3.650000e-01    2.570000e+00
  SC3v  TX1q  1 3.650000e-01    2.570000e+00
  SC2v  TX1q  1 3.650000e-01    2.340000e+00
  SC1v  TX1q  1 3.650000e-01    2.340000e+00
  SX4v  TX1q  1 3.650000e-01    2.570000e+00
  SX3v  TX1q  1 3.650000e-01    2.830000e+00
  SX2v  TX1q  1 3.650000e-01    2.830000e+00
  SX1q  TX1v  1 3.650000e-01    3.100000e+00
  SC6e  TX1q  1 3.650000e-01    2.570000e+00
  SC5e  TX1q  1 3.650000e-01    2.570000e+00
  SC4e  TX1q  1 3.650000e-01    2.570000e+00
  SC3e  TX1q  1 3.650000e-01    2.570000e+00
  SC2e  TX1q  1 3.650000e-01    2.340000e+00
  SC1e  TX1q  1 3.650000e-01    2.340000e+00
  SX4e  TX1q  1 3.650000e-01    2.570000e+00
  SX3e  TX1q  1 3.650000e-01    2.830000e+00
  SX2e  TX1q  1 3.650000e-01    2.830000e+00
  SX1q  TX1e  1 3.650000e-01    3.100000e+00
  SP6q  TP6q  1 3.650000e-01    4.510000e+00
  SP6q  TP5q  1 3.650000e-01    4.220000e+00
  SP6q  TP4q  1 3.650000e-01    3.930000e+00
  SP6q  TP3q  1 3.650000e-01    3.640000e+00
  SP6q  TP2q  1 3.650000e-01    3.640000e+00
  SP6q  TP1q  1 3.650000e-01    3.370000e+00
  SP6q  TN6q  1 3.650000e-01    3.100000e+00
  SP6q  TN5q  1 3.650000e-01    2.570000e+00
  SP6q  TN4q  1 3.650000e-01    2.340000e+00
  SP6q  TN3q  1 3.650000e-01    2.110000e+00
  SP6q  TN2q  1 3.650000e-01    1.910000e+00
  SP6q  TN1q  1 3.650000e-01    1.750000e+00
  SP6q  TC6q  1 3.650000e-01    1.750000e+00
  SP6q  TC5q  1 3.660000e-01    1.600000e+00
  SP6q  TC4q  1 3.780000e-01    1.450000e+00
  SP6q  TC3q  1 3.940000e-01    1.290000e+00
  SP6q  TC2q  1 3.940000e-01    1.290000e+00
  SP6q  TC1q  1 4.090000e-01    1.080000e+00
  SP6q  TX4q  1 3.650000e-01    1.910000e+00
  SP6q  TX3q  1 3.650000e-01    1.910000e+00
  SP6q  TX2q  1 3.650000e-01    1.750000e+00
  SP6q  TX1q  1 3.660000e-01    1.600000e+00
  SP5q  TP5q  1 3.650000e-01    3.930000e+00
  SP5q  TP4q  1 3.650000e-01    3.640000e+00
  SP5q  TP3q  1 3.650000e-01    3.370000e+00
  SP5q  TP2q  1 3.650000e-01    3.370000e+00
  SP5q  TP1q  1 3.650000e-01    3.100000e+00
  SP5q  TN6q  1 3.650000e-01    2.830000e+00
  SP5q  TN5q  1 3.650000e-01    2.570000e+00
  SP5q  TN4q  1 3.650000e-01    2.570000e+00
  SP5q  TN3q  1 3.650000e-01    2.110000e+00
  SP5q  TN2q  1 3.650000e-01    1.910000e+00
  SP5q  TN1q  1 3.650000e-01    1.750000e+00
  SP5q  TC6q  1 3.650000e-01    1.750000e+00
  SP5q  TC5q  1 3.650000e-01    1.750000e+00
  SP5q  TC4q  1 3.660000e-01    1.600000e+00
  SP5q  TC3q  1 3.780000e-01    1.450000e+00
  SP5q  TC2q  1 3.780000e-01    1.450000e+00
  SP5q  TC1q  1 3.940000e-01    1.290000e+00
  SP5q  TX4q  1 3.650000e-01    2.110000e+00
  SP5q  TX3q  1 3.650000e-01    1.910000e+00
  SP5q  TX2q  1 3.650000e-01    1.910000e+00
  SP5q  TX1q  1 3.660000e-01    1.600000e+00
  SP4q  TP4q  1 3.650000e-01    3.640000e+00
  SP4q  TP3q  1 3.650000e-01    3.370000e+00
  SP4q  TP2q  1 3.650000e-01    3.370000e+00
  SP4q  TP1q  1 3.650000e-01    3.100000e+00
  SP4q  TN6q  1 3.650000e-01    2.830000e+00
  SP4q  TN5q  1 3.650000e-01    2.570000e+00
  SP4q  TN4q  1 3.650000e-01    2.570000e+00
  SP4q  TN3q  1 3.650000e-01    2.340000e+00
  SP4q  TN2q  1 3.650000e-01    2.110000e+00
  SP4q  TN1q  1 3.650000e-01    1.910000e+00
  SP4q  TC6q  1 3.650000e-01    1.910000e+00
  SP4q  TC5q  1 3.650000e-01    1.750000e+00
  SP4q  TC4q  1 3.660000e-01    1.600000e+00
  SP4q  TC3q  1 3.780000e-01    1.450000e+00
  SP4q  TC2q  1 3.780000e-01    1.450000e+00
  SP4q  TC1q  1 3.940000e-01    1.290000e+00
  SP4q  TX4q  1 3.650000e-01    2.110000e+00
  SP4q  TX3q  1 3.650000e-01    1.910000e+00
  SP4q  TX2q  1 3.650000e-01    1.910000e+00
  SP4q  TX1q  1 3.650000e-01    1.750000e+00
  SP3q  TP3q  1 3.650000e-01    3.370000e+00
  SP3q  TP2q  1 3.650000e-01    3.370000e+00
  SP3q  TP1q  1 3.650000e-01    3.100000e+00
  SP3q  TN6q  1 3.650000e-01    2.830000e+00
  SP3q  TN5q  1 3.650000e-01    2.570000e+00
  SP3q  TN4q  1 3.650000e-01    2.570000e+00
  SP3q  TN3q  1 3.650000e-01    2.340000e+00
  SP3q  TN2q  1 3.650000e-01    2.340000e+00
  SP3q  TN1q  1 3.650000e-01    2.110000e+00
  SP3q  TC6q  1 3.650000e-01    2.110000e+00
  SP3q  TC5q  1 3.650000e-01    1.910000e+00
  SP3q  TC4q  1 3.650000e-01    1.750000e+00
  SP3q  TC3q  1 3.780000e-01    1.450000e+00
  SP3q  TC2q  1 3.780000e-01    1.450000e+00
  SP3q  TC1q  1 3.940000e-01    1.290000e+00
  SP3q  TX4q  1 3.650000e-01    2.110000e+00
  SP3q  TX3q  1 3.650000e-01    2.110000e+00
  SP3q  TX2q  1 3.650000e-01    1.910000e+00
  SP3q  TX1q  1 3.650000e-01    1.750000e+00
  SP2q  TP2q  1 3.650000e-01    3.370000e+00
  SP2q  TP1q  1 3.650000e-01    3.100000e+00
  SP2q  TN6q  1 3.650000e-01    3.100000e+00
  SP2q  TN5q  1 3.650000e-01    2.830000e+00
  SP2q  TN4q  1 3.650000e-01    2.570000e+00
  SP2q  TN3q  1 3.650000e-01    2.340000e+00
  SP2q  TN2q  1 3.650000e-01    2.340000e+00
  SP2q  TN1q  1 3.650000e-01    2.340000e+00
  SP2q  TC6q  1 3.650000e-01    2.110000e+00
  SP2q  TC5q  1 3.650000e-01    1.910000e+00
  SP2q  TC4q  1 3.650000e-01    1.750000e+00
  SP2q  TC3q  1 3.660000e-01    1.600000e+00
  SP2q  TC2q  1 3.660000e-01    1.600000e+00
  SP2q  TC1q  1 3.780000e-01    1.450000e+00
  SP2q  TX4q  1 3.650000e-01    2.110000e+00
  SP2q  TX3q  1 3.650000e-01    2.110000e+00
  SP2q  TX2q  1 3.650000e-01    1.910000e+00
  SP2q  TX1q  1 3.650000e-01    1.750000e+00
  SP1q  TP1q  1 3.650000e-01    3.100000e+00
  SP1q  TN6q  1 3.650000e-01    3.100000e+00
  SP1q  TN5q  1 3.650000e-01    2.830000e+00
  SP1q  TN4q  1 3.650000e-01    2.830000e+00
  SP1q  TN3q  1 3.650000e-01    2.340000e+00
  SP1q  TN2q  1 3.650000e-01    2.340000e+00
  SP1q  TN1q  1 3.650000e-01    2.340000e+00
  SP1q  TC6q  1 3.650000e-01    2.110000e+00
  SP1q  TC5q  1 3.650000e-01    1.910000e+00
  SP1q  TC4q  1 3.650000e-01    1.750000e+00
  SP1q  TC3q  1 3.660000e-01    1.600000e+00
  SP1q  TC2q  1 3.660000e-01    1.600000e+00
  SP1q  TC1q  1 3.780000e-01    1.450000e+00
  SP1q  TX4q  1 3.650000e-01    2.110000e+00
  SP1q  TX3q  1 3.650000e-01    2.110000e+00
  SP1q  TX2q  1 3.650000e-01    1.910000e+00
  SP1q  TX1q  1 3.650000e-01    1.750000e+00
  SN6q  TN6q  1 3.650000e-01    3.100000e+00
  SN6q  TN5q  1 3.650000e-01    3.100000e+00
  SN6q  TN4q  1 3.650000e-01    3.100000e+00
  SN6q  TN3q  1 3.650000e-01    2.570000e+00
  SN6q  TN2q  1 3.650000e-01    2.340000e+00
  SN6q  TN1q  1 3.650000e-01    2.340000e+00
  SN6q  TC6q  1 3.650000e-01    2.340000e+00
  SN6q  TC5q  1 3.650000e-01    2.110000e+00
  SN6q  TC4q  1 3.650000e-01    1.910000e+00
  SN6q  TC3q  1 3.650000e-01    1.750000e+00
  SN6q  TC2q  1 3.650000e-01    1.750000e+00
  SN6q  TC1q  1 3.660000e-01    1.600000e+00
  SN6q  TX4q  1 3.650000e-01    2.340000e+00
  SN6q  TX3q  1 3.650000e-01    2.110000e+00
  SN6q  TX2q  1 3.650000e-01    1.910000e+00
  SN6q  TX1q  1 3.650000e-01    1.750000e+00
  SN5q  TN5q  1 3.650000e-01    2.830000e+00
  SN5q  TN4q  1 3.650000e-01    2.830000e+00
  SN5q  TN3q  1 3.650000e-01    2.570000e+00
  SN5q  TN2q  1 3.650000e-01    2.570000e+00
  SN5q  TN1q  1 3.650000e-01    2.340000e+00
  SN5q  TC6q  1 3.650000e-01    2.340000e+00
  SN5q  TC5q  1 3.650000e-01    2.110000e+00
  SN5q  TC4q  1 3.650000e-01    1.910000e+00
  SN5q  TC3q  1 3.650000e-01    1.910000e+00
  SN5q  TC2q  1 3.650000e-01    1.750000e+00
  SN5q  TC1q  1 3.660000e-01    1.600000e+00
  SN5q  TX4q  1 3.650000e-01    2.570000e+00
  SN5q  TX3q  1 3.650000e-01    2.340000e+00
  SN5q  TX2q  1 3.650000e-01    2.110000e+00
  SN5q  TX1q  1 3.650000e-01    1.910000e+00
  SN4q  TN4q  1 3.650000e-01    2.830000e+00
  SN4q  TN3q  1 3.650000e-01    2.570000e+00
  SN4q  TN2q  1 3.650000e-01    2.570000e+00
  SN4q  TN1q  1 3.650000e-01    2.340000e+00
  SN4q  TC6q  1 3.650000e-01    2.340000e+00
  SN4q  TC5q  1 3.650000e-01    2.110000e+00
  SN4q  TC4q  1 3.650000e-01    2.110000e+00
  SN4q  TC3q  1 3.650000e-01    1.910000e+00
  SN4q  TC2q  1 3.650000e-01    1.750000e+00
  SN4q  TC1q  1 3.660000e-01    1.600000e+00
  SN4q  TX4q  1 3.650000e-01    2.830000e+00
  SN4q  TX3q  1 3.650000e-01    2.570000e+00
  SN4q  TX2q  1 3.650000e-01    2.110000e+00
  SN4q  TX1q  1 3.650000e-01    1.910000e+00
  SN3q  TN3q  1 3.650000e-01    2.570000e+00
  SN3q  TN2q  1 3.650000e-01    2.570000e+00
  SN3q  TN1q  1 3.650000e-01    2.340000e+00
  SN3q  TC6q  1 3.650000e-01    2.340000e+00
  SN3q  TC5q  1 3.650000e-01    2.110000e+00
  SN3q  TC4q  1 3.650000e-01    2.110000e+00
  SN3q  TC3q  1 3.650000e-01    1.910000e+00
  SN3q  TC2q  1 3.650000e-01    1.910000e+00
  SN3q  TC1q  1 3.650000e-01    1.750000e+00
  SN3q  TX4q  1 3.650000e-01    2.570000e+00
  SN3q  TX3q  1 3.650000e-01    2.340000e+00
  SN3q  TX2q  1 3.650000e-01    2.110000e+00
  SN3q  TX1q  1 3.650000e-01    2.110000e+00
  SN2q  TN2q  1 3.650000e-01    2.570000e+00
  SN2q  TN1q  1 3.650000e-01    2.340000e+00
  SN2q  TC6q  1 3.650000e-01    2.340000e+00
  SN2q  TC5q  1 3.650000e-01    2.110000e+00
  SN2q  TC4q  1 3.650000e-01    2.110000e+00
  SN2q  TC3q  1 3.650000e-01    2.110000e+00
  SN2q  TC2q  1 3.650000e-01    1.910000e+00
  SN2q  TC1q  1 3.650000e-01    1.750000e+00
  SN2q  TX4q  1 3.650000e-01    2.570000e+00
  SN2q  TX3q  1 3.650000e-01    2.340000e+00
  SN2q  TX2q  1 3.650000e-01    2.110000e+00
  SN2q  TX1q  1 3.650000e-01    2.110000e+00
  SN1q  TN1q  1 3.650000e-01    2.570000e+00
  SN1q  TC6q  1 3.650000e-01    2.570000e+00
  SN1q  TC5q  1 3.650000e-01    2.340000e+00
  SN1q  TC4q  1 3.650000e-01    2.340000e+00
  SN1q  TC3q  1 3.650000e-01    2.110000e+00
  SN1q  TC2q  1 3.650000e-01    1.910000e+00
  SN1q  TC1q  1 3.650000e-01    1.750000e+00
  SN1q  TX4q  1 3.650000e-01    2.340000e+00
  SN1q  TX3q  1 3.650000e-01    2.340000e+00
  SN1q  TX2q  1 3.650000e-01    2.110000e+00
  SN1q  TX1q  1 3.650000e-01    2.110000e+00
  SC6q  TC6q  1 3.650000e-01    2.570000e+00
  SC6q  TC5q  1 3.650000e-01    2.340000e+00
  SC6q  TC4q  1 3.650000e-01    2.340000e+00
  SC6q  TC3q  1 3.650000e-01    2.110000e+00
  SC6q  TC2q  1 3.650000e-01    1.910000e+00
  SC6q  TC1q  1 3.650000e-01    1.750000e+00
  SC6q  TX4q  1 3.650000e-01    2.340000e+00
  SC6q  TX3q  1 3.650000e-01    2.340000e+00
  SC6q  TX2q  1 3.650000e-01    2.340000e+00
  SC6q  TX1q  1 3.650000e-01    2.340000e+00
  SC5q  TC5q  1 3.650000e-01    2.340000e+00
  SC5q  TC4q  1 3.650000e-01    2.340000e+00
  SC5q  TC3q  1 3.650000e-01    2.110000e+00
  SC5q  TC2q  1 3.650000e-01    1.910000e+00
  SC5q  TC1q  1 3.650000e-01    1.910000e+00
  SC5q  TX4q  1 3.650000e-01    2.110000e+00
  SC5q  TX3q  1 3.650000e-01    2.110000e+00
  SC5q  TX2q  1 3.650000e-01    2.110000e+00
  SC5q  TX1q  1 3.650000e-01    2.340000e+00
  SC4q  TC4q  1 3.650000e-01    2.340000e+00
  SC4q  TC3q  1 3.650000e-01    2.340000e+00
  SC4q  TC2q  1 3.650000e-01    2.110000e+00
  SC4q  TC1q  1 3.650000e-01    1.910000e+00
  SC4q  TX4q  1 3.650000e-01    2.110000e+00
  SC4q  TX3q  1 3.650000e-01    2.110000e+00
  SC4q  TX2q  1 3.650000e-01    2.110000e+00
  SC4q  TX1q  1 3.650000e-01    2.340000e+00
  SC3q  TC3q  1 3.650000e-01    2.340000e+00
  SC3q  TC2q  1 3.650000e-01    2.340000e+00
  SC3q  TC1q  1 3.650000e-01    2.340000e+00
  SC3q  TX4q  1 3.650000e-01    2.110000e+00
  SC3q  TX3q  1 3.650000e-01    2.110000e+00
  SC3q  TX2q  1 3.650000e-01    2.110000e+00
  SC3q  TX1q  1 3.650000e-01    2.340000e+00
  SC2q  TC2q  1 3.650000e-01    2.340000e+00
  SC2q  TC1q  1 3.650000e-01    2.570000e+00
  SC2q  TX4q  1 3.650000e-01    1.750000e+00
  SC2q  TX3q  1 3.650000e-01    2.110000e+00
  SC2q  TX2q  1 3.650000e-01    2.110000e+00
  SC2q  TX1q  1 3.650000e-01    2.110000e+00
  SC1q  TC1q  1 3.650000e-01    2.340000e+00
  SC1q  TX4q  1 3.650000e-01    1.750000e+00
  SC1q  TX3q  1 3.650000e-01    2.110000e+00
  SC1q  TX2q  1 3.650000e-01    2.110000e+00
  SC1q  TX1q  1 3.650000e-01    2.110000e+00
  SX4q  TX4q  1 3.650000e-01    2.340000e+00
  SX4q  TX3q  1 3.650000e-01    2.340000e+00
  SX4q  TX2q  1 3.650000e-01    2.340000e+00
  SX4q  TX1q  1 3.650000e-01    2.340000e+00
  SX3q  TX3q  1 3.650000e-01    2.340000e+00
  SX3q  TX2q  1 3.650000e-01    2.570000e+00
  SX3q  TX1q  1 3.650000e-01    2.570000e+00
  SX2q  TX2q  1 3.650000e-01    2.570000e+00
  SX2q  TX1q  1 3.650000e-01    2.570000e+00
  SX1q  TX1q  1 3.650000e-01    2.830000e+00
 SP6dq TP6dq  1 3.650000e-01    4.220000e+00
 SP6dq TP5dq  1 3.650000e-01    3.930000e+00
 SP6dq TP4dq  1 3.650000e-01    3.640000e+00
 SP6dq TP3dq  1 3.650000e-01    3.370000e+00
 SP6dq TP2dq  1 3.650000e-01    3.370000e+00
 SP6dq TP1dq  1 3.650000e-01    3.100000e+00
 SP6dq TN6dq  1 3.650000e-01    2.830000e+00
 SP6dq TN5dq  1 3.650000e-01    2.340000e+00
 SP6dq TN4dq  1 3.650000e-01    2.110000e+00
 SP6dq TN3dq  1 3.650000e-01    2.110000e+00
 SP6dq TN2dq  1 3.650000e-01    1.910000e+00
 SP6dq TN1dq  1 3.650000e-01    1.750000e+00
 SP6dq TP6aq  1 3.650000e-01    4.860000e+00
 SP6dq TP5aq  1 3.650000e-01    4.510000e+00
 SP6dq TP4aq  1 3.650000e-01    4.220000e+00
 SP6dq TP3aq  1 3.650000e-01    3.930000e+00
 SP6dq TP2aq  1 3.650000e-01    3.930000e+00
 SP6dq TP1aq  1 3.650000e-01    3.640000e+00
 SP6dq TN6aq  1 3.650000e-01    3.370000e+00
 SP6dq TN5aq  1 3.650000e-01    2.830000e+00
 SP6dq TN4aq  1 3.650000e-01    2.570000e+00
 SP6dq TN3aq  1 3.650000e-01    2.110000e+00
 SP6dq TN2aq  1 3.650000e-01    1.910000e+00
 SP6dq TN1aq  1 3.650000e-01    1.750000e+00
 SP6dq TC6vq  1 3.660000e-01    1.600000e+00
 SP6dq TC5vq  1 3.780000e-01    1.450000e+00
 SP6dq TC4vq  1 3.940000e-01    1.290000e+00
 SP6dq TC3vq  1 4.040000e-01    1.130000e+00
 SP6dq TC2vq  1 4.040000e-01    1.130000e+00
 SP6dq TC1vq  1 4.230000e-01    9.810000e-01
 SP6dq TX4vq  1 3.650000e-01    1.750000e+00
 SP6dq TX3vq  1 3.650000e-01    1.750000e+00
 SP6dq TX2vq  1 3.660000e-01    1.600000e+00
 SP6dq TX1vq  1 3.780000e-01    1.450000e+00
 SP6dq TC6eq  1 3.650000e-01    1.910000e+00
 SP6dq TC5eq  1 3.650000e-01    1.750000e+00
 SP6dq TC4eq  1 3.660000e-01    1.600000e+00
 SP6dq TC3eq  1 3.780000e-01    1.450000e+00
 SP6dq TC2eq  1 3.780000e-01    1.450000e+00
 SP6dq TC1eq  1 4.040000e-01    1.130000e+00
 SP6dq TX4eq  1 3.650000e-01    2.110000e+00
 SP6dq TX3eq  1 3.650000e-01    2.110000e+00
 SP6dq TX2eq  1 3.650000e-01    1.910000e+00
 SP6dq TX1eq  1 3.650000e-01    1.750000e+00
 SP5dq TP5dq  1 3.650000e-01    3.640000e+00
 SP5dq TP4dq  1 3.650000e-01    3.370000e+00
 SP5dq TP3dq  1 3.650000e-01    3.100000e+00
 SP5dq TP2dq  1 3.650000e-01    3.100000e+00
 SP5dq TP1dq  1 3.650000e-01    2.830000e+00
 SP5dq TN6dq  1 3.650000e-01    2.570000e+00
 SP5dq TN5dq  1 3.650000e-01    2.340000e+00
 SP5dq TN4dq  1 3.650000e-01    2.340000e+00
 SP5dq TN3dq  1 3.650000e-01    2.110000e+00
 SP5dq TN2dq  1 3.650000e-01    1.910000e+00
 SP5dq TN1dq  1 3.650000e-01    1.750000e+00
 SP5dq TP5aq  1 3.650000e-01    4.220000e+00
 SP5dq TP4aq  1 3.650000e-01    3.930000e+00
 SP5dq TP3aq  1 3.650000e-01    3.640000e+00
 SP5dq TP2aq  1 3.650000e-01    3.640000e+00
 SP5dq TP1aq  1 3.650000e-01    3.370000e+00
 SP5dq TN6aq  1 3.650000e-01    3.100000e+00
 SP5dq TN5aq  1 3.650000e-01    2.830000e+00
 SP5dq TN4aq  1 3.650000e-01    2.830000e+00
 SP5dq TN3aq  1 3.650000e-01    2.110000e+00
 SP5dq TN2aq  1 3.650000e-01    1.910000e+00
 SP5dq TN1aq  1 3.650000e-01    1.750000e+00
 SP5dq TC6vq  1 3.660000e-01    1.600000e+00
 SP5dq TC5vq  1 3.660000e-01    1.600000e+00
 SP5dq TC4vq  1 3.780000e-01    1.450000e+00
 SP5dq TC3vq  1 3.940000e-01    1.290000e+00
 SP5dq TC2vq  1 3.940000e-01    1.290000e+00
 SP5dq TC1vq  1 4.040000e-01    1.130000e+00
 SP5dq TX4vq  1 3.650000e-01    1.910000e+00
 SP5dq TX3vq  1 3.650000e-01    1.750000e+00
 SP5dq TX2vq  1 3.650000e-01    1.750000e+00
 SP5dq TX1vq  1 3.780000e-01    1.450000e+00
 SP5dq TC6eq  1 3.650000e-01    1.910000e+00
 SP5dq TC5eq  1 3.650000e-01    1.910000e+00
 SP5dq TC4eq  1 3.650000e-01    1.750000e+00
 SP5dq TC3eq  1 3.660000e-01    1.600000e+00
 SP5dq TC2eq  1 3.660000e-01    1.600000e+00
 SP5dq TC1eq  1 3.780000e-01    1.450000e+00
 SP5dq TX4eq  1 3.650000e-01    2.340000e+00
 SP5dq TX3eq  1 3.650000e-01    2.110000e+00
 SP5dq TX2eq  1 3.650000e-01    2.110000e+00
 SP5dq TX1eq  1 3.650000e-01    1.750000e+00
 SP4dq TP4dq  1 3.650000e-01    3.370000e+00
 SP4dq TP3dq  1 3.650000e-01    3.100000e+00
 SP4dq TP2dq  1 3.650000e-01    3.100000e+00
 SP4dq TP1dq  1 3.650000e-01    2.830000e+00
 SP4dq TN6dq  1 3.650000e-01    2.570000e+00
 SP4dq TN5dq  1 3.650000e-01    2.340000e+00
 SP4dq TN4dq  1 3.650000e-01    2.340000e+00
 SP4dq TN3dq  1 3.650000e-01    2.110000e+00
 SP4dq TN2dq  1 3.650000e-01    2.110000e+00
 SP4dq TN1dq  1 3.650000e-01    1.910000e+00
 SP4dq TP4aq  1 3.650000e-01    3.930000e+00
 SP4dq TP3aq  1 3.650000e-01    3.640000e+00
 SP4dq TP2aq  1 3.650000e-01    3.640000e+00
 SP4dq TP1aq  1 3.650000e-01    3.370000e+00
 SP4dq TN6aq  1 3.650000e-01    3.100000e+00
 SP4dq TN5aq  1 3.650000e-01    2.830000e+00
 SP4dq TN4aq  1 3.650000e-01    2.830000e+00
 SP4dq TN3aq  1 3.650000e-01    2.570000e+00
 SP4dq TN2aq  1 3.650000e-01    2.110000e+00
 SP4dq TN1aq  1 3.650000e-01    1.910000e+00
 SP4dq TC6vq  1 3.650000e-01    1.750000e+00
 SP4dq TC5vq  1 3.660000e-01    1.600000e+00
 SP4dq TC4vq  1 3.780000e-01    1.450000e+00
 SP4dq TC3vq  1 3.940000e-01    1.290000e+00
 SP4dq TC2vq  1 3.940000e-01    1.290000e+00
 SP4dq TC1vq  1 4.040000e-01    1.130000e+00
 SP4dq TX4vq  1 3.650000e-01    1.910000e+00
 SP4dq TX3vq  1 3.650000e-01    1.750000e+00
 SP4dq TX2vq  1 3.650000e-01    1.750000e+00
 SP4dq TX1vq  1 3.660000e-01    1.600000e+00
 SP4dq TC6eq  1 3.650000e-01    2.110000e+00
 SP4dq TC5eq  1 3.650000e-01    1.910000e+00
 SP4dq TC4eq  1 3.650000e-01    1.750000e+00
 SP4dq TC3eq  1 3.660000e-01    1.600000e+00
 SP4dq TC2eq  1 3.660000e-01    1.600000e+00
 SP4dq TC1eq  1 3.780000e-01    1.450000e+00
 SP4dq TX4eq  1 3.650000e-01    2.340000e+00
 SP4dq TX3eq  1 3.650000e-01    2.110000e+00
 SP4dq TX2eq  1 3.650000e-01    2.110000e+00
 SP4dq TX1eq  1 3.650000e-01    1.910000e+00
 SP3dq TP3dq  1 3.650000e-01    3.100000e+00
 SP3dq TP2dq  1 3.650000e-01    3.100000e+00
 SP3dq TP1dq  1 3.650000e-01    2.830000e+00
 SP3dq TN6dq  1 3.650000e-01    2.570000e+00
 SP3dq TN5dq  1 3.650000e-01    2.340000e+00
 SP3dq TN4dq  1 3.650000e-01    2.340000e+00
 SP3dq TN3dq  1 3.650000e-01    2.110000e+00
 SP3dq TN2dq  1 3.650000e-01    2.110000e+00
 SP3dq TN1dq  1 3.650000e-01    2.110000e+00
 SP3dq TP3aq  1 3.650000e-01    3.640000e+00
 SP3dq TP2aq  1 3.650000e-01    3.640000e+00
 SP3dq TP1aq  1 3.650000e-01    3.370000e+00
 SP3dq TN6aq  1 3.650000e-01    3.100000e+00
 SP3dq TN5aq  1 3.650000e-01    2.830000e+00
 SP3dq TN4aq  1 3.650000e-01    2.830000e+00
 SP3dq TN3aq  1 3.650000e-01    2.570000e+00
 SP3dq TN2aq  1 3.650000e-01    2.570000e+00
 SP3dq TN1aq  1 3.650000e-01    2.110000e+00
 SP3dq TC6vq  1 3.650000e-01    1.910000e+00
 SP3dq TC5vq  1 3.650000e-01    1.750000e+00
 SP3dq TC4vq  1 3.660000e-01    1.600000e+00
 SP3dq TC3vq  1 3.940000e-01    1.290000e+00
 SP3dq TC2vq  1 3.940000e-01    1.290000e+00
 SP3dq TC1vq  1 4.040000e-01    1.130000e+00
 SP3dq TX4vq  1 3.650000e-01    1.910000e+00
 SP3dq TX3vq  1 3.650000e-01    1.910000e+00
 SP3dq TX2vq  1 3.650000e-01    1.750000e+00
 SP3dq TX1vq  1 3.660000e-01    1.600000e+00
 SP3dq TC6eq  1 3.650000e-01    2.340000e+00
 SP3dq TC5eq  1 3.650000e-01    2.110000e+00
 SP3dq TC4eq  1 3.650000e-01    1.910000e+00
 SP3dq TC3eq  1 3.660000e-01    1.600000e+00
 SP3dq TC2eq  1 3.660000e-01    1.600000e+00
 SP3dq TC1eq  1 3.780000e-01    1.450000e+00
 SP3dq TX4eq  1 3.650000e-01    2.340000e+00
 SP3dq TX3eq  1 3.650000e-01    2.340000e+00
 SP3dq TX2eq  1 3.650000e-01    2.110000e+00
 SP3dq TX1eq  1 3.650000e-01    1.910000e+00
 SP2dq TP2dq  1 3.650000e-01    3.100000e+00
 SP2dq TP1dq  1 3.650000e-01    2.830000e+00
 SP2dq TN6dq  1 3.650000e-01    2.830000e+00
 SP2dq TN5dq  1 3.650000e-01    2.570000e+00
 SP2dq TN4dq  1 3.650000e-01    2.340000e+00
 SP2dq TN3dq  1 3.650000e-01    2.110000e+00
 SP2dq TN2dq  1 3.650000e-01    2.110000e+00
 SP2dq TN1dq  1 3.650000e-01    2.110000e+00
 SP2dq TP2aq  1 3.650000e-01    3.640000e+00
 SP2dq TP1aq  1 3.650000e-01    3.370000e+00
 SP2dq TN6aq  1 3.650000e-01    3.370000e+00
 SP2dq TN5aq  1 3.650000e-01    3.100000e+00
 SP2dq TN4aq  1 3.650000e-01    2.830000e+00
 SP2dq TN3aq  1 3.650000e-01    2.570000e+00
 SP2dq TN2aq  1 3.650000e-01    2.570000e+00
 SP2dq TN1aq  1 3.650000e-01    2.570000e+00
 SP2dq TC6vq  1 3.650000e-01    1.910000e+00
 SP2dq TC5vq  1 3.650000e-01    1.750000e+00
 SP2dq TC4vq  1 3.660000e-01    1.600000e+00
 SP2dq TC3vq  1 3.780000e-01    1.450000e+00
 SP2dq TC2vq  1 3.780000e-01    1.450000e+00
 SP2dq TC1vq  1 3.940000e-01    1.290000e+00
 SP2dq TX4vq  1 3.650000e-01    1.910000e+00
 SP2dq TX3vq  1 3.650000e-01    1.910000e+00
 SP2dq TX2vq  1 3.650000e-01    1.750000e+00
 SP2dq TX1vq  1 3.660000e-01    1.600000e+00
 SP2dq TC6eq  1 3.650000e-01    2.340000e+00
 SP2dq TC5eq  1 3.650000e-01    2.110000e+00
 SP2dq TC4eq  1 3.650000e-01    1.910000e+00
 SP2dq TC3eq  1 3.650000e-01    1.750000e+00
 SP2dq TC2eq  1 3.650000e-01    1.750000e+00
 SP2dq TC1eq  1 3.660000e-01    1.600000e+00
 SP2dq TX4eq  1 3.650000e-01    2.340000e+00
 SP2dq TX3eq  1 3.650000e-01    2.340000e+00
 SP2dq TX2eq  1 3.650000e-01    2.110000e+00
 SP2dq TX1eq  1 3.650000e-01    1.910000e+00
 SP1dq TP1dq  1 3.650000e-01    2.830000e+00
 SP1dq TN6dq  1 3.650000e-01    2.830000e+00
 SP1dq TN5dq  1 3.650000e-01    2.570000e+00
 SP1dq TN4dq  1 3.650000e-01    2.570000e+00
 SP1dq TN3dq  1 3.650000e-01    2.110000e+00
 SP1dq TN2dq  1 3.650000e-01    2.110000e+00
 SP1dq TN1dq  1 3.650000e-01    2.110000e+00
 SP1dq TP1aq  1 3.650000e-01    3.370000e+00
 SP1dq TN6aq  1 3.650000e-01    3.370000e+00
 SP1dq TN5aq  1 3.650000e-01    3.100000e+00
 SP1dq TN4aq  1 3.650000e-01    3.100000e+00
 SP1dq TN3aq  1 3.650000e-01    2.570000e+00
 SP1dq TN2aq  1 3.650000e-01    2.570000e+00
 SP1dq TN1aq  1 3.650000e-01    2.570000e+00
 SP1dq TC6vq  1 3.650000e-01    1.910000e+00
 SP1dq TC5vq  1 3.650000e-01    1.750000e+00
 SP1dq TC4vq  1 3.660000e-01    1.600000e+00
 SP1dq TC3vq  1 3.780000e-01    1.450000e+00
 SP1dq TC2vq  1 3.780000e-01    1.450000e+00
 SP1dq TC1vq  1 3.940000e-01    1.290000e+00
 SP1dq TX4vq  1 3.650000e-01    1.910000e+00
 SP1dq TX3vq  1 3.650000e-01    1.910000e+00
 SP1dq TX2vq  1 3.650000e-01    1.750000e+00
 SP1dq TX1vq  1 3.660000e-01    1.600000e+00
 SP1dq TC6eq  1 3.650000e-01    2.340000e+00
 SP1dq TC5eq  1 3.650000e-01    2.110000e+00
 SP1dq TC4eq  1 3.650000e-01    1.910000e+00
 SP1dq TC3eq  1 3.650000e-01    1.750000e+00
 SP1dq TC2eq  1 3.650000e-01    1.750000e+00
 SP1dq TC1eq  1 3.660000e-01    1.600000e+00
 SP1dq TX4eq  1 3.650000e-01    2.340000e+00
 SP1dq TX3eq  1 3.650000e-01    2.340000e+00
 SP1dq TX2eq  1 3.650000e-01    2.110000e+00
 SP1dq TX1eq  1 3.650000e-01    1.910000e+00
 SN6dq TN6dq  1 3.650000e-01    2.830000e+00
 SN6dq TN5dq  1 3.650000e-01    2.830000e+00
 SN6dq TN4dq  1 3.650000e-01    2.830000e+00
 SN6dq TN3dq  1 3.650000e-01    2.340000e+00
 SN6dq TN2dq  1 3.650000e-01    2.110000e+00
 SN6dq TN1dq  1 3.650000e-01    2.110000e+00
 SN6dq TN6aq  1 3.650000e-01    3.370000e+00
 SN6dq TN5aq  1 3.650000e-01    3.370000e+00
 SN6dq TN4aq  1 3.650000e-01    3.370000e+00
 SN6dq TN3aq  1 3.650000e-01    2.830000e+00
 SN6dq TN2aq  1 3.650000e-01    2.570000e+00
 SN6dq TN1aq  1 3.650000e-01    2.570000e+00
 SN6dq TC6vq  1 3.650000e-01    2.110000e+00
 SN6dq TC5vq  1 3.650000e-01    1.910000e+00
 SN6dq TC4vq  1 3.650000e-01    1.750000e+00
 SN6dq TC3vq  1 3.660000e-01    1.600000e+00
 SN6dq TC2vq  1 3.660000e-01    1.600000e+00
 SN6dq TC1vq  1 3.780000e-01    1.450000e+00
 SN6dq TX4vq  1 3.650000e-01    2.110000e+00
 SN6dq TX3vq  1 3.650000e-01    1.910000e+00
 SN6dq TX2vq  1 3.650000e-01    1.750000e+00
 SN6dq TX1vq  1 3.660000e-01    1.600000e+00
 SN6dq TC6eq  1 3.650000e-01    2.570000e+00
 SN6dq TC5eq  1 3.650000e-01    2.340000e+00
 SN6dq TC4eq  1 3.650000e-01    2.110000e+00
 SN6dq TC3eq  1 3.650000e-01    1.910000e+00
 SN6dq TC2eq  1 3.650000e-01    1.910000e+00
 SN6dq TC1eq  1 3.650000e-01    1.750000e+00
 SN6dq TX4eq  1 3.650000e-01    2.570000e+00
 SN6dq TX3eq  1 3.650000e-01    2.340000e+00
 SN6dq TX2eq  1 3.650000e-01    2.110000e+00
 SN6dq TX1eq  1 3.650000e-01    1.910000e+00
 SN5dq TN5dq  1 3.650000e-01    2.570000e+00
 SN5dq TN4dq  1 3.650000e-01    2.570000e+00
 SN5dq TN3dq  1 3.650000e-01    2.340000e+00
 SN5dq TN2dq  1 3.650000e-01    2.340000e+00
 SN5dq TN1dq  1 3.650000e-01    2.110000e+00
 SN5dq TN5aq  1 3.650000e-01    3.100000e+00
 SN5dq TN4aq  1 3.650000e-01    3.100000e+00
 SN5dq TN3aq  1 3.650000e-01    2.830000e+00
 SN5dq TN2aq  1 3.650000e-01    2.830000e+00
 SN5dq TN1aq  1 3.650000e-01    2.570000e+00
 SN5dq TC6vq  1 3.650000e-01    2.110000e+00
 SN5dq TC5vq  1 3.650000e-01    1.910000e+00
 SN5dq TC4vq  1 3.650000e-01    1.750000e+00
 SN5dq TC3vq  1 3.650000e-01    1.750000e+00
 SN5dq TC2vq  1 3.660000e-01    1.600000e+00
 SN5dq TC1vq  1 3.780000e-01    1.450000e+00
 SN5dq TX4vq  1 3.650000e-01    2.340000e+00
 SN5dq TX3vq  1 3.650000e-01    2.110000e+00
 SN5dq TX2vq  1 3.650000e-01    1.910000e+00
 SN5dq TX1vq  1 3.650000e-01    1.750000e+00
 SN5dq TC6eq  1 3.650000e-01    2.570000e+00
 SN5dq TC5eq  1 3.650000e-01    2.340000e+00
 SN5dq TC4eq  1 3.650000e-01    2.110000e+00
 SN5dq TC3eq  1 3.650000e-01    2.110000e+00
 SN5dq TC2eq  1 3.650000e-01    1.910000e+00
 SN5dq TC1eq  1 3.650000e-01    1.750000e+00
 SN5dq TX4eq  1 3.650000e-01    2.830000e+00
 SN5dq TX3eq  1 3.650000e-01    2.570000e+00
 SN5dq TX2eq  1 3.650000e-01    2.340000e+00
 SN5dq TX1eq  1 3.650000e-01    2.110000e+00
 SN4dq TN4dq  1 3.650000e-01    2.570000e+00
 SN4dq TN3dq  1 3.650000e-01    2.340000e+00
 SN4dq TN2dq  1 3.650000e-01    2.340000e+00
 SN4dq TN1dq  1 3.650000e-01    2.110000e+00
 SN4dq TN4aq  1 3.650000e-01    3.100000e+00
 SN4dq TN3aq  1 3.650000e-01    2.830000e+00
 SN4dq TN2aq  1 3.650000e-01    2.830000e+00
 SN4dq TN1aq  1 3.650000e-01    2.570000e+00
 SN4dq TC6vq  1 3.650000e-01    2.110000e+00
 SN4dq TC5vq  1 3.650000e-01    1.910000e+00
 SN4dq TC4vq  1 3.650000e-01    1.910000e+00
 SN4dq TC3vq  1 3.650000e-01    1.750000e+00
 SN4dq TC2vq  1 3.660000e-01    1.600000e+00
 SN4dq TC1vq  1 3.780000e-01    1.450000e+00
 SN4dq TX4vq  1 3.650000e-01    2.570000e+00
 SN4dq TX3vq  1 3.650000e-01    2.340000e+00
 SN4dq TX2vq  1 3.650000e-01    1.910000e+00
 SN4dq TX1vq  1 3.650000e-01    1.750000e+00
 SN4dq TC6eq  1 3.650000e-01    2.570000e+00
 SN4dq TC5eq  1 3.650000e-01    2.340000e+00
 SN4dq TC4eq  1 3.650000e-01    2.340000e+00
 SN4dq TC3eq  1 3.650000e-01    2.110000e+00
 SN4dq TC2eq  1 3.650000e-01    1.910000e+00
 SN4dq TC1eq  1 3.650000e-01    1.750000e+00
 SN4dq TX4eq  1 3.650000e-01    3.100000e+00
 SN4dq TX3eq  1 3.650000e-01    2.830000e+00
 SN4dq TX2eq  1 3.650000e-01    2.340000e+00
 SN4dq TX1eq  1 3.650000e-01    2.110000e+00
 SN3dq TN3dq  1 3.650000e-01    2.340000e+00
 SN3dq TN2dq  1 3.650000e-01    2.340000e+00
 SN3dq TN1dq  1 3.650000e-01    2.110000e+00
 SN3dq TN3aq  1 3.650000e-01    2.830000e+00
 SN3dq TN2aq  1 3.650000e-01    2.830000e+00
 SN3dq TN1aq  1 3.650000e-01    2.570000e+00
 SN3dq TC6vq  1 3.650000e-01    2.110000e+00
 SN3dq TC5vq  1 3.650000e-01    1.910000e+00
 SN3dq TC4vq  1 3.650000e-01    1.910000e+00
 SN3dq TC3vq  1 3.650000e-01    1.750000e+00
 SN3dq TC2vq  1 3.650000e-01    1.750000e+00
 SN3dq TC1vq  1 3.660000e-01    1.600000e+00
 SN3dq TX4vq  1 3.650000e-01    2.340000e+00
 SN3dq TX3vq  1 3.650000e-01    2.110000e+00
 SN3dq TX2vq  1 3.650000e-01    1.910000e+00
 SN3dq TX1vq  1 3.650000e-01    1.910000e+00
 SN3dq TC6eq  1 3.650000e-01    2.570000e+00
 SN3dq TC5eq  1 3.650000e-01    2.340000e+00
 SN3dq TC4eq  1 3.650000e-01    2.340000e+00
 SN3dq TC3eq  1 3.650000e-01    2.110000e+00
 SN3dq TC2eq  1 3.650000e-01    2.110000e+00
 SN3dq TC1eq  1 3.650000e-01    1.910000e+00
 SN3dq TX4eq  1 3.650000e-01    2.830000e+00
 SN3dq TX3eq  1 3.650000e-01    2.570000e+00
 SN3dq TX2eq  1 3.650000e-01    2.340000e+00
 SN3dq TX1eq  1 3.650000e-01    2.340000e+00
 SN2dq TN2dq  1 3.650000e-01    2.340000e+00
 SN2dq TN1dq  1 3.650000e-01    2.110000e+00
 SN2dq TN2aq  1 3.650000e-01    2.830000e+00
 SN2dq TN1aq  1 3.650000e-01    2.570000e+00
 SN2dq TC6vq  1 3.650000e-01    2.110000e+00
 SN2dq TC5vq  1 3.650000e-01    1.910000e+00
 SN2dq TC4vq  1 3.650000e-01    1.910000e+00
 SN2dq TC3vq  1 3.650000e-01    1.910000e+00
 SN2dq TC2vq  1 3.650000e-01    1.750000e+00
 SN2dq TC1vq  1 3.660000e-01    1.600000e+00
 SN2dq TX4vq  1 3.650000e-01    2.340000e+00
 SN2dq TX3vq  1 3.650000e-01    2.110000e+00
 SN2dq TX2vq  1 3.650000e-01    1.910000e+00
 SN2dq TX1vq  1 3.650000e-01    1.910000e+00
 SN2dq TC6eq  1 3.650000e-01    2.570000e+00
 SN2dq TC5eq  1 3.650000e-01    2.340000e+00
 SN2dq TC4eq  1 3.650000e-01    2.340000e+00
 SN2dq TC3eq  1 3.650000e-01    2.340000e+00
 SN2dq TC2eq  1 3.650000e-01    2.110000e+00
 SN2dq TC1eq  1 3.650000e-01    1.910000e+00
 SN2dq TX4eq  1 3.650000e-01    2.830000e+00
 SN2dq TX3eq  1 3.650000e-01    2.570000e+00
 SN2dq TX2eq  1 3.650000e-01    2.340000e+00
 SN2dq TX1eq  1 3.650000e-01    2.340000e+00
 SN1dq TN1dq  1 3.650000e-01    2.340000e+00
 SN1dq TN1aq  1 3.650000e-01    2.830000e+00
 SN1dq TC6vq  1 3.650000e-01    2.340000e+00
 SN1dq TC5vq  1 3.650000e-01    2.110000e+00
 SN1dq TC4vq  1 3.650000e-01    2.110000e+00
 SN1dq TC3vq  1 3.650000e-01    1.910000e+00
 SN1dq TC2vq  1 3.650000e-01    1.750000e+00
 SN1dq TC1vq  1 3.660000e-01    1.600000e+00
 SN1dq TX4vq  1 3.650000e-01    2.110000e+00
 SN1dq TX3vq  1 3.650000e-01    2.110000e+00
 SN1dq TX2vq  1 3.650000e-01    1.910000e+00
 SN1dq TX1vq  1 3.650000e-01    1.910000e+00
 SN1dq TC6eq  1 3.650000e-01    2.830000e+00
 SN1dq TC5eq  1 3.650000e-01    2.570000e+00
 SN1dq TC4eq  1 3.650000e-01    2.570000e+00
 SN1dq TC3eq  1 3.650000e-01    2.340000e+00
 SN1dq TC2eq  1 3.650000e-01    2.110000e+00
 SN1dq TC1eq  1 3.650000e-01    1.910000e+00
 SN1dq TX4eq  1 3.650000e-01    2.570000e+00
 SN1dq TX3eq  1 3.650000e-01    2.570000e+00
 SN1dq TX2eq  1 3.650000e-01    2.340000e+00
 SN1dq TX1eq  1 3.650000e-01    2.340000e+00
 SP6aq TP6aq  1 3.650000e-01    4.220000e+00
 SP6aq TP5dq  1 3.650000e-01    4.510000e+00
 SP6aq TP4dq  1 3.650000e-01    4.220000e+00
 SP6aq TP3dq  1 3.650000e-01    3.930000e+00
 SP6aq TP2dq  1 3.650000e-01    3.930000e+00
 SP6aq TP1dq  1 3.650000e-01    3.640000e+00
 SP6aq TN6dq  1 3.650000e-01    3.370000e+00
 SP6aq TN5dq  1 3.650000e-01    2.830000e+00
 SP6aq TN4dq  1 3.650000e-01    2.570000e+00
 SP6aq TN3dq  1 3.650000e-01    2.110000e+00
 SP6aq TN2dq  1 3.650000e-01    1.910000e+00
 SP6aq TN1dq  1 3.650000e-01    1.750000e+00
 SP6aq TP5aq  1 3.650000e-01    3.930000e+00
 SP6aq TP4aq  1 3.650000e-01    3.640000e+00
 SP6aq TP3aq  1 3.650000e-01    3.370000e+00
 SP6aq TP2aq  1 3.650000e-01    3.370000e+00
 SP6aq TP1aq  1 3.650000e-01    3.100000e+00
 SP6aq TN6aq  1 3.650000e-01    2.830000e+00
 SP6aq TN5aq  1 3.650000e-01    2.340000e+00
 SP6aq TN4aq  1 3.650000e-01    2.110000e+00
 SP6aq TN3aq  1 3.650000e-01    2.110000e+00
 SP6aq TN2aq  1 3.650000e-01    1.910000e+00
 SP6aq TN1aq  1 3.650000e-01    1.750000e+00
 SP6aq TC6vq  1 3.650000e-01    1.910000e+00
 SP6aq TC5vq  1 3.650000e-01    1.750000e+00
 SP6aq TC4vq  1 3.660000e-01    1.600000e+00
 SP6aq TC3vq  1 3.780000e-01    1.450000e+00
 SP6aq TC2vq  1 3.780000e-01    1.450000e+00
 SP6aq TC1vq  1 4.040000e-01    1.130000e+00
 SP6aq TX4vq  1 3.650000e-01    2.110000e+00
 SP6aq TX3vq  1 3.650000e-01    2.110000e+00
 SP6aq TX2vq  1 3.650000e-01    1.910000e+00
 SP6aq TX1vq  1 3.650000e-01    1.750000e+00
 SP6aq TC6eq  1 3.660000e-01    1.600000e+00
 SP6aq TC5eq  1 3.780000e-01    1.450000e+00
 SP6aq TC4eq  1 3.940000e-01    1.290000e+00
 SP6aq TC3eq  1 4.040000e-01    1.130000e+00
 SP6aq TC2eq  1 4.040000e-01    1.130000e+00
 SP6aq TC1eq  1 4.230000e-01    9.810000e-01
 SP6aq TX4eq  1 3.650000e-01    1.750000e+00
 SP6aq TX3eq  1 3.650000e-01    1.750000e+00
 SP6aq TX2eq  1 3.660000e-01    1.600000e+00
 SP6aq TX1eq  1 3.780000e-01    1.450000e+00
 SP5aq TP5aq  1 3.650000e-01    3.640000e+00
 SP5aq TP4dq  1 3.650000e-01    3.930000e+00
 SP5aq TP3dq  1 3.650000e-01    3.640000e+00
 SP5aq TP2dq  1 3.650000e-01    3.640000e+00
 SP5aq TP1dq  1 3.650000e-01    3.370000e+00
 SP5aq TN6dq  1 3.650000e-01    3.100000e+00
 SP5aq TN5dq  1 3.650000e-01    2.830000e+00
 SP5aq TN4dq  1 3.650000e-01    2.830000e+00
 SP5aq TN3dq  1 3.650000e-01    2.110000e+00
 SP5aq TN2dq  1 3.650000e-01    1.910000e+00
 SP5aq TN1dq  1 3.650000e-01    1.750000e+00
 SP5aq TP4aq  1 3.650000e-01    3.370000e+00
 SP5aq TP3aq  1 3.650000e-01    3.100000e+00
 SP5aq TP2aq  1 3.650000e-01    3.100000e+00
 SP5aq TP1aq  1 3.650000e-01    2.830000e+00
 SP5aq TN6aq  1 3.650000e-01    2.570000e+00
 SP5aq TN5aq  1 3.650000e-01    2.340000e+00
 SP5aq TN4aq  1 3.650000e-01    2.340000e+00
 SP5aq TN3aq  1 3.650000e-01    2.110000e+00
 SP5aq TN2aq  1 3.650000e-01    1.910000e+00
 SP5aq TN1aq  1 3.650000e-01    1.750000e+00
 SP5aq TC6vq  1 3.650000e-01    1.910000e+00
 SP5aq TC5vq  1 3.650000e-01    1.910000e+00
 SP5aq TC4vq  1 3.650000e-01    1.750000e+00
 SP5aq TC3vq  1 3.660000e-01    1.600000e+00
 SP5aq TC2vq  1 3.660000e-01    1.600000e+00
 SP5aq TC1vq  1 3.780000e-01    1.450000e+00
 SP5aq TX4vq  1 3.650000e-01    2.340000e+00
 SP5aq TX3vq  1 3.650000e-01    2.110000e+00
 SP5aq TX2vq  1 3.650000e-01    2.110000e+00
 SP5aq TX1vq  1 3.650000e-01    1.750000e+00
 SP5aq TC6eq  1 3.660000e-01    1.600000e+00
 SP5aq TC5eq  1 3.660000e-01    1.600000e+00
 SP5aq TC4eq  1 3.780000e-01    1.450000e+00
 SP5aq TC3eq  1 3.940000e-01    1.290000e+00
 SP5aq TC2eq  1 3.940000e-01    1.290000e+00
 SP5aq TC1eq  1 4.040000e-01    1.130000e+00
 SP5aq TX4eq  1 3.650000e-01    1.910000e+00
 SP5aq TX3eq  1 3.650000e-01    1.750000e+00
 SP5aq TX2eq  1 3.650000e-01    1.750000e+00
 SP5aq TX1eq  1 3.780000e-01    1.450000e+00
 SP4aq TP4aq  1 3.650000e-01    3.370000e+00
 SP4aq TP3dq  1 3.650000e-01    3.640000e+00
 SP4aq TP2dq  1 3.650000e-01    3.640000e+00
 SP4aq TP1dq  1 3.650000e-01    3.370000e+00
 SP4aq TN6dq  1 3.650000e-01    3.100000e+00
 SP4aq TN5dq  1 3.650000e-01    2.830000e+00
 SP4aq TN4dq  1 3.650000e-01    2.830000e+00
 SP4aq TN3dq  1 3.650000e-01    2.570000e+00
 SP4aq TN2dq  1 3.650000e-01    2.110000e+00
 SP4aq TN1dq  1 3.650000e-01    1.910000e+00
 SP4aq TP3aq  1 3.650000e-01    3.100000e+00
 SP4aq TP2aq  1 3.650000e-01    3.100000e+00
 SP4aq TP1aq  1 3.650000e-01    2.830000e+00
 SP4aq TN6aq  1 3.650000e-01    2.570000e+00
 SP4aq TN5aq  1 3.650000e-01    2.340000e+00
 SP4aq TN4aq  1 3.650000e-01    2.340000e+00
 SP4aq TN3aq  1 3.650000e-01    2.110000e+00
 SP4aq TN2aq  1 3.650000e-01    2.110000e+00
 SP4aq TN1aq  1 3.650000e-01    1.910000e+00
 SP4aq TC6vq  1 3.650000e-01    2.110000e+00
 SP4aq TC5vq  1 3.650000e-01    1.910000e+00
 SP4aq TC4vq  1 3.650000e-01    1.750000e+00
 SP4aq TC3vq  1 3.660000e-01    1.600000e+00
 SP4aq TC2vq  1 3.660000e-01    1.600000e+00
 SP4aq TC1vq  1 3.780000e-01    1.450000e+00
 SP4aq TX4vq  1 3.650000e-01    2.340000e+00
 SP4aq TX3vq  1 3.650000e-01    2.110000e+00
 SP4aq TX2vq  1 3.650000e-01    2.110000e+00
 SP4aq TX1vq  1 3.650000e-01    1.910000e+00
 SP4aq TC6eq  1 3.650000e-01    1.750000e+00
 SP4aq TC5eq  1 3.660000e-01    1.600000e+00
 SP4aq TC4eq  1 3.780000e-01    1.450000e+00
 SP4aq TC3eq  1 3.940000e-01    1.290000e+00
 SP4aq TC2eq  1 3.940000e-01    1.290000e+00
 SP4aq TC1eq  1 4.040000e-01    1.130000e+00
 SP4aq TX4eq  1 3.650000e-01    1.910000e+00
 SP4aq TX3eq  1 3.650000e-01    1.750000e+00
 SP4aq TX2eq  1 3.650000e-01    1.750000e+00
 SP4aq TX1eq  1 3.660000e-01    1.600000e+00
 SP3aq TP3aq  1 3.650000e-01    3.100000e+00
 SP3aq TP2dq  1 3.650000e-01    3.640000e+00
 SP3aq TP1dq  1 3.650000e-01    3.370000e+00
 SP3aq TN6dq  1 3.650000e-01    3.100000e+00
 SP3aq TN5dq  1 3.650000e-01    2.830000e+00
 SP3aq TN4dq  1 3.650000e-01    2.830000e+00
 SP3aq TN3dq  1 3.650000e-01    2.570000e+00
 SP3aq TN2dq  1 3.650000e-01    2.570000e+00
 SP3aq TN1dq  1 3.650000e-01    2.110000e+00
 SP3aq TP2aq  1 3.650000e-01    3.100000e+00
 SP3aq TP1aq  1 3.650000e-01    2.830000e+00
 SP3aq TN6aq  1 3.650000e-01    2.570000e+00
 SP3aq TN5aq  1 3.650000e-01    2.340000e+00
 SP3aq TN4aq  1 3.650000e-01    2.340000e+00
 SP3aq TN3aq  1 3.650000e-01    2.110000e+00
 SP3aq TN2aq  1 3.650000e-01    2.110000e+00
 SP3aq TN1aq  1 3.650000e-01    2.110000e+00
 SP3aq TC6vq  1 3.650000e-01    2.340000e+00
 SP3aq TC5vq  1 3.650000e-01    2.110000e+00
 SP3aq TC4vq  1 3.650000e-01    1.910000e+00
 SP3aq TC3vq  1 3.660000e-01    1.600000e+00
 SP3aq TC2vq  1 3.660000e-01    1.600000e+00
 SP3aq TC1vq  1 3.780000e-01    1.450000e+00
 SP3aq TX4vq  1 3.650000e-01    2.340000e+00
 SP3aq TX3vq  1 3.650000e-01    2.340000e+00
 SP3aq TX2vq  1 3.650000e-01    2.110000e+00
 SP3aq TX1vq  1 3.650000e-01    1.910000e+00
 SP3aq TC6eq  1 3.650000e-01    1.910000e+00
 SP3aq TC5eq  1 3.650000e-01    1.750000e+00
 SP3aq TC4eq  1 3.660000e-01    1.600000e+00
 SP3aq TC3eq  1 3.940000e-01    1.290000e+00
 SP3aq TC2eq  1 3.940000e-01    1.290000e+00
 SP3aq TC1eq  1 4.040000e-01    1.130000e+00
 SP3aq TX4eq  1 3.650000e-01    1.910000e+00
 SP3aq TX3eq  1 3.650000e-01    1.910000e+00
 SP3aq TX2eq  1 3.650000e-01    1.750000e+00
 SP3aq TX1eq  1 3.660000e-01    1.600000e+00
 SP2aq TP2aq  1 3.650000e-01    3.100000e+00
 SP2aq TP1dq  1 3.650000e-01    3.370000e+00
 SP2aq TN6dq  1 3.650000e-01    3.370000e+00
 SP2aq TN5dq  1 3.650000e-01    3.100000e+00
 SP2aq TN4dq  1 3.650000e-01    2.830000e+00
 SP2aq TN3dq  1 3.650000e-01    2.570000e+00
 SP2aq TN2dq  1 3.650000e-01    2.570000e+00
 SP2aq TN1dq  1 3.650000e-01    2.570000e+00
 SP2aq TP1aq  1 3.650000e-01    2.830000e+00
 SP2aq TN6aq  1 3.650000e-01    2.830000e+00
 SP2aq TN5aq  1 3.650000e-01    2.570000e+00
 SP2aq TN4aq  1 3.650000e-01    2.340000e+00
 SP2aq TN3aq  1 3.650000e-01    2.110000e+00
 SP2aq TN2aq  1 3.650000e-01    2.110000e+00
 SP2aq TN1aq  1 3.650000e-01    2.110000e+00
 SP2aq TC6vq  1 3.650000e-01    2.340000e+00
 SP2aq TC5vq  1 3.650000e-01    2.110000e+00
 SP2aq TC4vq  1 3.650000e-01    1.910000e+00
 SP2aq TC3vq  1 3.650000e-01    1.750000e+00
 SP2aq TC2vq  1 3.650000e-01    1.750000e+00
 SP2aq TC1vq  1 3.660000e-01    1.600000e+00
 SP2aq TX4vq  1 3.650000e-01    2.340000e+00
 SP2aq TX3vq  1 3.650000e-01    2.340000e+00
 SP2aq TX2vq  1 3.650000e-01    2.110000e+00
 SP2aq TX1vq  1 3.650000e-01    1.910000e+00
 SP2aq TC6eq  1 3.650000e-01    1.910000e+00
 SP2aq TC5eq  1 3.650000e-01    1.750000e+00
 SP2aq TC4eq  1 3.660000e-01    1.600000e+00
 SP2aq TC3eq  1 3.780000e-01    1.450000e+00
 SP2aq TC2eq  1 3.780000e-01    1.450000e+00
 SP2aq TC1eq  1 3.940000e-01    1.290000e+00
 SP2aq TX4eq  1 3.650000e-01    1.910000e+00
 SP2aq TX3eq  1 3.650000e-01    1.910000e+00
 SP2aq TX2eq  1 3.650000e-01    1.750000e+00
 SP2aq TX1eq  1 3.660000e-01    1.600000e+00
 SP1aq TP1aq  1 3.650000e-01    2.830000e+00
 SP1aq TN6dq  1 3.650000e-01    3.370000e+00
 SP1aq TN5dq  1 3.650000e-01    3.100000e+00
 SP1aq TN4dq  1 3.650000e-01    3.100000e+00
 SP1aq TN3dq  1 3.650000e-01    2.570000e+00
 SP1aq TN2dq  1 3.650000e-01    2.570000e+00
 SP1aq TN1dq  1 3.650000e-01    2.570000e+00
 SP1aq TN6aq  1 3.650000e-01    2.830000e+00
 SP1aq TN5aq  1 3.650000e-01    2.570000e+00
 SP1aq TN4aq  1 3.650000e-01    2.570000e+00
 SP1aq TN3aq  1 3.650000e-01    2.110000e+00
 SP1aq TN2aq  1 3.650000e-01    2.110000e+00
 SP1aq TN1aq  1 3.650000e-01    2.110000e+00
 SP1aq TC6vq  1 3.650000e-01    2.340000e+00
 SP1aq TC5vq  1 3.650000e-01    2.110000e+00
 SP1aq TC4vq  1 3.650000e-01    1.910000e+00
 SP1aq TC3vq  1 3.650000e-01    1.750000e+00
 SP1aq TC2vq  1 3.650000e-01    1.750000e+00
 SP1aq TC1vq  1 3.660000e-01    1.600000e+00
 SP1aq TX4vq  1 3.650000e-01    2.340000e+00
 SP1aq TX3vq  1 3.650000e-01    2.340000e+00
 SP1aq TX2vq  1 3.650000e-01    2.110000e+00
 SP1aq TX1vq  1 3.650000e-01    1.910000e+00
 SP1aq TC6eq  1 3.650000e-01    1.910000e+00
 SP1aq TC5eq  1 3.650000e-01    1.750000e+00
 SP1aq TC4eq  1 3.660000e-01    1.600000e+00
 SP1aq TC3eq  1 3.780000e-01    1.450000e+00
 SP1aq TC2eq  1 3.780000e-01    1.450000e+00
 SP1aq TC1eq  1 3.940000e-01    1.290000e+00
 SP1aq TX4eq  1 3.650000e-01    1.910000e+00
 SP1aq TX3eq  1 3.650000e-01    1.910000e+00
 SP1aq TX2eq  1 3.650000e-01    1.750000e+00
 SP1aq TX1eq  1 3.660000e-01    1.600000e+00
 SN6aq TN6aq  1 3.650000e-01    2.830000e+00
 SN6aq TN5dq  1 3.650000e-01    3.370000e+00
 SN6aq TN4dq  1 3.650000e-01    3.370000e+00
 SN6aq TN3dq  1 3.650000e-01    2.830000e+00
 SN6aq TN2dq  1 3.650000e-01    2.570000e+00
 SN6aq TN1dq  1 3.650000e-01    2.570000e+00
 SN6aq TN5aq  1 3.650000e-01    2.830000e+00
 SN6aq TN4aq  1 3.650000e-01    2.830000e+00
 SN6aq TN3aq  1 3.650000e-01    2.340000e+00
 SN6aq TN2aq  1 3.650000e-01    2.110000e+00
 SN6aq TN1aq  1 3.650000e-01    2.110000e+00
 SN6aq TC6vq  1 3.650000e-01    2.570000e+00
 SN6aq TC5vq  1 3.650000e-01    2.340000e+00
 SN6aq TC4vq  1 3.650000e-01    2.110000e+00
 SN6aq TC3vq  1 3.650000e-01    1.910000e+00
 SN6aq TC2vq  1 3.650000e-01    1.910000e+00
 SN6aq TC1vq  1 3.650000e-01    1.750000e+00
 SN6aq TX4vq  1 3.650000e-01    2.570000e+00
 SN6aq TX3vq  1 3.650000e-01    2.340000e+00
 SN6aq TX2vq  1 3.650000e-01    2.110000e+00
 SN6aq TX1vq  1 3.650000e-01    1.910000e+00
 SN6aq TC6eq  1 3.650000e-01    2.110000e+00
 SN6aq TC5eq  1 3.650000e-01    1.910000e+00
 SN6aq TC4eq  1 3.650000e-01    1.750000e+00
 SN6aq TC3eq  1 3.660000e-01    1.600000e+00
 SN6aq TC2eq  1 3.660000e-01    1.600000e+00
 SN6aq TC1eq  1 3.780000e-01    1.450000e+00
 SN6aq TX4eq  1 3.650000e-01    2.110000e+00
 SN6aq TX3eq  1 3.650000e-01    1.910000e+00
 SN6aq TX2eq  1 3.650000e-01    1.750000e+00
 SN6aq TX1eq  1 3.660000e-01    1.600000e+00
 SN5aq TN5aq  1 3.650000e-01    2.570000e+00
 SN5aq TN4dq  1 3.650000e-01    3.100000e+00
 SN5aq TN3dq  1 3.650000e-01    2.830000e+00
 SN5aq TN2dq  1 3.650000e-01    2.830000e+00
 SN5aq TN1dq  1 3.650000e-01    2.570000e+00
 SN5aq TN4aq  1 3.650000e-01    2.570000e+00
 SN5aq TN3aq  1 3.650000e-01    2.340000e+00
 SN5aq TN2aq  1 3.650000e-01    2.340000e+00
 SN5aq TN1aq  1 3.650000e-01    2.110000e+00
 SN5aq TC6vq  1 3.650000e-01    2.570000e+00
 SN5aq TC5vq  1 3.650000e-01    2.340000e+00
 SN5aq TC4vq  1 3.650000e-01    2.110000e+00
 SN5aq TC3vq  1 3.650000e-01    2.110000e+00
 SN5aq TC2vq  1 3.650000e-01    1.910000e+00
 SN5aq TC1vq  1 3.650000e-01    1.750000e+00
 SN5aq TX4vq  1 3.650000e-01    2.830000e+00
 SN5aq TX3vq  1 3.650000e-01    2.570000e+00
 SN5aq TX2vq  1 3.650000e-01    2.340000e+00
 SN5aq TX1vq  1 3.650000e-01    2.110000e+00
 SN5aq TC6eq  1 3.650000e-01    2.110000e+00
 SN5aq TC5eq  1 3.650000e-01    1.910000e+00
 SN5aq TC4eq  1 3.650000e-01    1.750000e+00
 SN5aq TC3eq  1 3.650000e-01    1.750000e+00
 SN5aq TC2eq  1 3.660000e-01    1.600000e+00
 SN5aq TC1eq  1 3.780000e-01    1.450000e+00
 SN5aq TX4eq  1 3.650000e-01    2.340000e+00
 SN5aq TX3eq  1 3.650000e-01    2.110000e+00
 SN5aq TX2eq  1 3.650000e-01    1.910000e+00
 SN5aq TX1eq  1 3.650000e-01    1.750000e+00
 SN4aq TN4aq  1 3.650000e-01    2.570000e+00
 SN4aq TN3dq  1 3.650000e-01    2.830000e+00
 SN4aq TN2dq  1 3.650000e-01    2.830000e+00
 SN4aq TN1dq  1 3.650000e-01    2.570000e+00
 SN4aq TN3aq  1 3.650000e-01    2.340000e+00
 SN4aq TN2aq  1 3.650000e-01    2.340000e+00
 SN4aq TN1aq  1 3.650000e-01    2.110000e+00
 SN4aq TC6vq  1 3.650000e-01    2.570000e+00
 SN4aq TC5vq  1 3.650000e-01    2.340000e+00
 SN4aq TC4vq  1 3.650000e-01    2.340000e+00
 SN4aq TC3vq  1 3.650000e-01    2.110000e+00
 SN4aq TC2vq  1 3.650000e-01    1.910000e+00
 SN4aq TC1vq  1 3.650000e-01    1.750000e+00
 SN4aq TX4vq  1 3.650000e-01    3.100000e+00
 SN4aq TX3vq  1 3.650000e-01    2.830000e+00
 SN4aq TX2vq  1 3.650000e-01    2.340000e+00
 SN4aq TX1vq  1 3.650000e-01    2.110000e+00
 SN4aq TC6eq  1 3.650000e-01    2.110000e+00
 SN4aq TC5eq  1 3.650000e-01    1.910000e+00
 SN4aq TC4eq  1 3.650000e-01    1.910000e+00
 SN4aq TC3eq  1 3.650000e-01    1.750000e+00
 SN4aq TC2eq  1 3.660000e-01    1.600000e+00
 SN4aq TC1eq  1 3.780000e-01    1.450000e+00
 SN4aq TX4eq  1 3.650000e-01    2.570000e+00
 SN4aq TX3eq  1 3.650000e-01    2.340000e+00
 SN4aq TX2eq  1 3.650000e-01    1.910000e+00
 SN4aq TX1eq  1 3.650000e-01    1.750000e+00
 SN3aq TN3aq  1 3.650000e-01    2.340000e+00
 SN3aq TN2dq  1 3.650000e-01    2.830000e+00
 SN3aq TN1dq  1 3.650000e-01    2.570000e+00
 SN3aq TN2aq  1 3.650000e-01    2.340000e+00
 SN3aq TN1aq  1 3.650000e-01    2.110000e+00
 SN3aq TC6vq  1 3.650000e-01    2.570000e+00
 SN3aq TC5vq  1 3.650000e-01    2.340000e+00
 SN3aq TC4vq  1 3.650000e-01    2.340000e+00
 SN3aq TC3vq  1 3.650000e-01    2.110000e+00
 SN3aq TC2vq  1 3.650000e-01    2.110000e+00
 SN3aq TC1vq  1 3.650000e-01    1.910000e+00
 SN3aq TX4vq  1 3.650000e-01    2.830000e+00
 SN3aq TX3vq  1 3.650000e-01    2.570000e+00
 SN3aq TX2vq  1 3.650000e-01    2.340000e+00
 SN3aq TX1vq  1 3.650000e-01    2.340000e+00
 SN3aq TC6eq  1 3.650000e-01    2.110000e+00
 SN3aq TC5eq  1 3.650000e-01    1.910000e+00
 SN3aq TC4eq  1 3.650000e-01    1.910000e+00
 SN3aq TC3eq  1 3.650000e-01    1.750000e+00
 SN3aq TC2eq  1 3.650000e-01    1.750000e+00
 SN3aq TC1eq  1 3.660000e-01    1.600000e+00
 SN3aq TX4eq  1 3.650000e-01    2.340000e+00
 SN3aq TX3eq  1 3.650000e-01    2.110000e+00
 SN3aq TX2eq  1 3.650000e-01    1.910000e+00
 SN3aq TX1eq  1 3.650000e-01    1.910000e+00
 SN2aq TN2aq  1 3.650000e-01    2.340000e+00
 SN2aq TN1dq  1 3.650000e-01    2.570000e+00
 SN2aq TN1aq  1 3.650000e-01    2.110000e+00
 SN2aq TC6vq  1 3.650000e-01    2.570000e+00
 SN2aq TC5vq  1 3.650000e-01    2.340000e+00
 SN2aq TC4vq  1 3.650000e-01    2.340000e+00
 SN2aq TC3vq  1 3.650000e-01    2.340000e+00
 SN2aq TC2vq  1 3.650000e-01    2.110000e+00
 SN2aq TC1vq  1 3.650000e-01    1.910000e+00
 SN2aq TX4vq  1 3.650000e-01    2.830000e+00
 SN2aq TX3vq  1 3.650000e-01    2.570000e+00
 SN2aq TX2vq  1 3.650000e-01    2.340000e+00
 SN2aq TX1vq  1 3.650000e-01    2.340000e+00
 SN2aq TC6eq  1 3.650000e-01    2.110000e+00
 SN2aq TC5eq  1 3.650000e-01    1.910000e+00
 SN2aq TC4eq  1 3.650000e-01    1.910000e+00
 SN2aq TC3eq  1 3.650000e-01    1.910000e+00
 SN2aq TC2eq  1 3.650000e-01    1.750000e+00
 SN2aq TC1eq  1 3.660000e-01    1.600000e+00
 SN2aq TX4eq  1 3.650000e-01    2.340000e+00
 SN2aq TX3eq  1 3.650000e-01    2.110000e+00
 SN2aq TX2eq  1 3.650000e-01    1.910000e+00
 SN2aq TX1eq  1 3.650000e-01    1.910000e+00
 SN1aq TN1aq  1 3.650000e-01    2.340000e+00
 SN1aq TC6vq  1 3.650000e-01    2.830000e+00
 SN1aq TC5vq  1 3.650000e-01    2.570000e+00
 SN1aq TC4vq  1 3.650000e-01    2.570000e+00
 SN1aq TC3vq  1 3.650000e-01    2.340000e+00
 SN1aq TC2vq  1 3.650000e-01    2.110000e+00
 SN1aq TC1vq  1 3.650000e-01    1.910000e+00
 SN1aq TX4vq  1 3.650000e-01    2.570000e+00
 SN1aq TX3vq  1 3.650000e-01    2.570000e+00
 SN1aq TX2vq  1 3.650000e-01    2.340000e+00
 SN1aq TX1vq  1 3.650000e-01    2.340000e+00
 SN1aq TC6eq  1 3.650000e-01    2.340000e+00
 SN1aq TC5eq  1 3.650000e-01    2.110000e+00
 SN1aq TC4eq  1 3.650000e-01    2.110000e+00
 SN1aq TC3eq  1 3.650000e-01    1.910000e+00
 SN1aq TC2eq  1 3.650000e-01    1.750000e+00
 SN1aq TC1eq  1 3.660000e-01    1.600000e+00
 SN1aq TX4eq  1 3.650000e-01    2.110000e+00
 SN1aq TX3eq  1 3.650000e-01    2.110000e+00
 SN1aq TX2eq  1 3.650000e-01    1.910000e+00
 SN1aq TX1eq  1 3.650000e-01    1.910000e+00
 SC6vq TC6vq  1 3.650000e-01    2.340000e+00
 SC6vq TC5vq  1 3.650000e-01    2.110000e+00
 SC6vq TC4vq  1 3.650000e-01    2.110000e+00
 SC6vq TC3vq  1 3.650000e-01    1.910000e+00
 SC6vq TC2vq  1 3.650000e-01    1.750000e+00
 SC6vq TC1vq  1 3.660000e-01    1.600000e+00
 SC6vq TX4vq  1 3.650000e-01    2.110000e+00
 SC6vq TX3vq  1 3.650000e-01    2.110000e+00
 SC6vq TX2vq  1 3.650000e-01    2.110000e+00
 SC6vq TX1vq  1 3.650000e-01    2.110000e+00
 SC6vq TC6eq  1 3.650000e-01    3.100000e+00
 SC6vq TC5eq  1 3.650000e-01    2.830000e+00
 SC6vq TC4eq  1 3.650000e-01    2.830000e+00
 SC6vq TC3eq  1 3.650000e-01    2.570000e+00
 SC6vq TC2eq  1 3.650000e-01    2.340000e+00
 SC6vq TC1eq  1 3.650000e-01    2.110000e+00
 SC6vq TX4eq  1 3.650000e-01    2.830000e+00
 SC6vq TX3eq  1 3.650000e-01    2.830000e+00
 SC6vq TX2eq  1 3.650000e-01    2.830000e+00
 SC6vq TX1eq  1 3.650000e-01    2.830000e+00
 SC5vq TC5vq  1 3.650000e-01    2.110000e+00
 SC5vq TC4vq  1 3.650000e-01    2.110000e+00
 SC5vq TC3vq  1 3.650000e-01    1.910000e+00
 SC5vq TC2vq  1 3.650000e-01    1.750000e+00
 SC5vq TC1vq  1 3.650000e-01    1.750000e+00
 SC5vq TX4vq  1 3.650000e-01    1.910000e+00
 SC5vq TX3vq  1 3.650000e-01    1.910000e+00
 SC5vq TX2vq  1 3.650000e-01    1.910000e+00
 SC5vq TX1vq  1 3.650000e-01    2.110000e+00
 SC5vq TC5eq  1 3.650000e-01    2.830000e+00
 SC5vq TC4eq  1 3.650000e-01    2.830000e+00
 SC5vq TC3eq  1 3.650000e-01    2.570000e+00
 SC5vq TC2eq  1 3.650000e-01    2.340000e+00
 SC5vq TC1eq  1 3.650000e-01    2.340000e+00
 SC5vq TX4eq  1 3.650000e-01    2.570000e+00
 SC5vq TX3eq  1 3.650000e-01    2.570000e+00
 SC5vq TX2eq  1 3.650000e-01    2.570000e+00
 SC5vq TX1eq  1 3.650000e-01    2.830000e+00
 SC4vq TC4vq  1 3.650000e-01    2.110000e+00
 SC4vq TC3vq  1 3.650000e-01    2.110000e+00
 SC4vq TC2vq  1 3.650000e-01    1.910000e+00
 SC4vq TC1vq  1 3.650000e-01    1.750000e+00
 SC4vq TX4vq  1 3.650000e-01    1.910000e+00
 SC4vq TX3vq  1 3.650000e-01    1.910000e+00
 SC4vq TX2vq  1 3.650000e-01    1.910000e+00
 SC4vq TX1vq  1 3.650000e-01    2.110000e+00
 SC4vq TC4eq  1 3.650000e-01    2.830000e+00
 SC4vq TC3eq  1 3.650000e-01    2.830000e+00
 SC4vq TC2eq  1 3.650000e-01    2.570000e+00
 SC4vq TC1eq  1 3.650000e-01    2.340000e+00
 SC4vq TX4eq  1 3.650000e-01    2.570000e+00
 SC4vq TX3eq  1 3.650000e-01    2.570000e+00
 SC4vq TX2eq  1 3.650000e-01    2.570000e+00
 SC4vq TX1eq  1 3.650000e-01    2.830000e+00
 SC3vq TC3vq  1 3.650000e-01    2.110000e+00
 SC3vq TC2vq  1 3.650000e-01    2.110000e+00
 SC3vq TC1vq  1 3.650000e-01    2.110000e+00
 SC3vq TX4vq  1 3.650000e-01    1.910000e+00
 SC3vq TX3vq  1 3.650000e-01    1.910000e+00
 SC3vq TX2vq  1 3.650000e-01    1.910000e+00
 SC3vq TX1vq  1 3.650000e-01    2.110000e+00
 SC3vq TC3eq  1 3.650000e-01    2.830000e+00
 SC3vq TC2eq  1 3.650000e-01    2.830000e+00
 SC3vq TC1eq  1 3.650000e-01    2.830000e+00
 SC3vq TX4eq  1 3.650000e-01    2.570000e+00
 SC3vq TX3eq  1 3.650000e-01    2.570000e+00
 SC3vq TX2eq  1 3.650000e-01    2.570000e+00
 SC3vq TX1eq  1 3.650000e-01    2.830000e+00
 SC2vq TC2vq  1 3.650000e-01    2.110000e+00
 SC2vq TC1vq  1 3.650000e-01    2.340000e+00
 SC2vq TX4vq  1 3.660000e-01    1.600000e+00
 SC2vq TX3vq  1 3.650000e-01    1.910000e+00
 SC2vq TX2vq  1 3.650000e-01    1.910000e+00
 SC2vq TX1vq  1 3.650000e-01    1.910000e+00
 SC2vq TC2eq  1 3.650000e-01    2.830000e+00
 SC2vq TC1eq  1 3.650000e-01    3.100000e+00
 SC2vq TX4eq  1 3.650000e-01    2.110000e+00
 SC2vq TX3eq  1 3.650000e-01    2.570000e+00
 SC2vq TX2eq  1 3.650000e-01    2.570000e+00
 SC2vq TX1eq  1 3.650000e-01    2.570000e+00
 SC1vq TC1vq  1 3.650000e-01    2.110000e+00
 SC1vq TX4vq  1 3.660000e-01    1.600000e+00
 SC1vq TX3vq  1 3.650000e-01    1.910000e+00
 SC1vq TX2vq  1 3.650000e-01    1.910000e+00
 SC1vq TX1vq  1 3.650000e-01    1.910000e+00
 SC1vq TC1eq  1 3.650000e-01    2.830000e+00
 SC1vq TX4eq  1 3.650000e-01    2.110000e+00
 SC1vq TX3eq  1 3.650000e-01    2.570000e+00
 SC1vq TX2eq  1 3.650000e-01    2.570000e+00
 SC1vq TX1eq  1 3.650000e-01    2.570000e+00
 SX4vq TX4vq  1 3.650000e-01    2.110000e+00
 SX4vq TX3vq  1 3.650000e-01    2.110000e+00
 SX4vq TX2vq  1 3.650000e-01    2.110000e+00
 SX4vq TX1vq  1 3.650000e-01    2.110000e+00
 SX4vq TX4eq  1 3.650000e-01    2.830000e+00
 SX4vq TX3eq  1 3.650000e-01    2.830000e+00
 SX4vq TX2eq  1 3.650000e-01    2.830000e+00
 SX4vq TX1eq  1 3.650000e-01    2.830000e+00
 SX3vq TX3vq  1 3.650000e-01    2.110000e+00
 SX3vq TX2vq  1 3.650000e-01    2.340000e+00
 SX3vq TX1vq  1 3.650000e-01    2.340000e+00
 SX3vq TX3eq  1 3.650000e-01    2.830000e+00
 SX3vq TX2eq  1 3.650000e-01    3.100000e+00
 SX3vq TX1eq  1 3.650000e-01    3.100000e+00
 SX2vq TX2vq  1 3.650000e-01    2.340000e+00
 SX2vq TX1vq  1 3.650000e-01    2.340000e+00
 SX2vq TX2eq  1 3.650000e-01    3.100000e+00
 SX2vq TX1eq  1 3.650000e-01    3.100000e+00
 SX1vq TX1vq  1 3.650000e-01    2.570000e+00
 SX1vq TX1eq  1 3.650000e-01    3.370000e+00
 SC6eq TC6eq  1 3.650000e-01    2.340000e+00
 SC6eq TC5vq  1 3.650000e-01    2.830000e+00
 SC6eq TC4vq  1 3.650000e-01    2.830000e+00
 SC6eq TC3vq  1 3.650000e-01    2.570000e+00
 SC6eq TC2vq  1 3.650000e-01    2.340000e+00
 SC6eq TC1vq  1 3.650000e-01    2.110000e+00
 SC6eq TX4vq  1 3.650000e-01    2.830000e+00
 SC6eq TX3vq  1 3.650000e-01    2.830000e+00
 SC6eq TX2vq  1 3.650000e-01    2.830000e+00
 SC6eq TX1vq  1 3.650000e-01    2.830000e+00
 SC6eq TC5eq  1 3.650000e-01    2.110000e+00
 SC6eq TC4eq  1 3.650000e-01    2.110000e+00
 SC6eq TC3eq  1 3.650000e-01    1.910000e+00
 SC6eq TC2eq  1 3.650000e-01    1.750000e+00
 SC6eq TC1eq  1 3.660000e-01    1.600000e+00
 SC6eq TX4eq  1 3.650000e-01    2.110000e+00
 SC6eq TX3eq  1 3.650000e-01    2.110000e+00
 SC6eq TX2eq  1 3.650000e-01    2.110000e+00
 SC6eq TX1eq  1 3.650000e-01    2.110000e+00
 SC5eq TC5eq  1 3.650000e-01    2.110000e+00
 SC5eq TC4vq  1 3.650000e-01    2.830000e+00
 SC5eq TC3vq  1 3.650000e-01    2.570000e+00
 SC5eq TC2vq  1 3.650000e-01    2.340000e+00
 SC5eq TC1vq  1 3.650000e-01    2.340000e+00
 SC5eq TX4vq  1 3.650000e-01    2.570000e+00
 SC5eq TX3vq  1 3.650000e-01    2.570000e+00
 SC5eq TX2vq  1 3.650000e-01    2.570000e+00
 SC5eq TX1vq  1 3.650000e-01    2.830000e+00
 SC5eq TC4eq  1 3.650000e-01    2.110000e+00
 SC5eq TC3eq  1 3.650000e-01    1.910000e+00
 SC5eq TC2eq  1 3.650000e-01    1.750000e+00
 SC5eq TC1eq  1 3.650000e-01    1.750000e+00
 SC5eq TX4eq  1 3.650000e-01    1.910000e+00
 SC5eq TX3eq  1 3.650000e-01    1.910000e+00
 SC5eq TX2eq  1 3.650000e-01    1.910000e+00
 SC5eq TX1eq  1 3.650000e-01    2.110000e+00
 SC4eq TC4eq  1 3.650000e-01    2.110000e+00
 SC4eq TC3vq  1 3.650000e-01    2.830000e+00
 SC4eq TC2vq  1 3.650000e-01    2.570000e+00
 SC4eq TC1vq  1 3.650000e-01    2.340000e+00
 SC4eq TX4vq  1 3.650000e-01    2.570000e+00
 SC4eq TX3vq  1 3.650000e-01    2.570000e+00
 SC4eq TX2vq  1 3.650000e-01    2.570000e+00
 SC4eq TX1vq  1 3.650000e-01    2.830000e+00
 SC4eq TC3eq  1 3.650000e-01    2.110000e+00
 SC4eq TC2eq  1 3.650000e-01    1.910000e+00
 SC4eq TC1eq  1 3.650000e-01    1.750000e+00
 SC4eq TX4eq  1 3.650000e-01    1.910000e+00
 SC4eq TX3eq  1 3.650000e-01    1.910000e+00
 SC4eq TX2eq  1 3.650000e-01    1.910000e+00
 SC4eq TX1eq  1 3.650000e-01    2.110000e+00
 SC3eq TC3eq  1 3.650000e-01    2.110000e+00
 SC3eq TC2vq  1 3.650000e-01    2.830000e+00
 SC3eq TC1vq  1 3.650000e-01    2.830000e+00
 SC3eq TX4vq  1 3.650000e-01    2.570000e+00
 SC3eq TX3vq  1 3.650000e-01    2.570000e+00
 SC3eq TX2vq  1 3.650000e-01    2.570000e+00
 SC3eq TX1vq  1 3.650000e-01    2.830000e+00
 SC3eq TC2eq  1 3.650000e-01    2.110000e+00
 SC3eq TC1eq  1 3.650000e-01    2.110000e+00
 SC3eq TX4eq  1 3.650000e-01    1.910000e+00
 SC3eq TX3eq  1 3.650000e-01    1.910000e+00
 SC3eq TX2eq  1 3.650000e-01    1.910000e+00
 SC3eq TX1eq  1 3.650000e-01    2.110000e+00
 SC2eq TC2eq  1 3.650000e-01    2.110000e+00
 SC2eq TC1vq  1 3.650000e-01    3.100000e+00
 SC2eq TX4vq  1 3.650000e-01    2.110000e+00
 SC2eq TX3vq  1 3.650000e-01    2.570000e+00
 SC2eq TX2vq  1 3.650000e-01    2.570000e+00
 SC2eq TX1vq  1 3.650000e-01    2.570000e+00
 SC2eq TC1eq  1 3.650000e-01    2.340000e+00
 SC2eq TX4eq  1 3.660000e-01    1.600000e+00
 SC2eq TX3eq  1 3.650000e-01    1.910000e+00
 SC2eq TX2eq  1 3.650000e-01    1.910000e+00
 SC2eq TX1eq  1 3.650000e-01    1.910000e+00
 SC1eq TC1eq  1 3.650000e-01    2.110000e+00
 SC1eq TX4vq  1 3.650000e-01    2.110000e+00
 SC1eq TX3vq  1 3.650000e-01    2.570000e+00
 SC1eq TX2vq  1 3.650000e-01    2.570000e+00
 SC1eq TX1vq  1 3.650000e-01    2.570000e+00
 SC1eq TX4eq  1 3.660000e-01    1.600000e+00
 SC1eq TX3eq  1 3.650000e-01    1.910000e+00
 SC1eq TX2eq  1 3.650000e-01    1.910000e+00
 SC1eq TX1eq  1 3.650000e-01    1.910000e+00
 SX4eq TX4eq  1 3.650000e-01    2.110000e+00
 SX4eq TX3vq  1 3.650000e-01    2.830000e+00
 SX4eq TX2vq  1 3.650000e-01    2.830000e+00
 SX4eq TX1vq  1 3.650000e-01    2.830000e+00
 SX4eq TX3eq  1 3.650000e-01    2.110000e+00
 SX4eq TX2eq  1 3.650000e-01    2.110000e+00
 SX4eq TX1eq  1 3.650000e-01    2.110000e+00
 SX3eq TX3eq  1 3.650000e-01    2.110000e+00
 SX3eq TX2vq  1 3.650000e-01    3.100000e+00
 SX3eq TX1vq  1 3.650000e-01    3.100000e+00
 SX3eq TX2eq  1 3.650000e-01    2.340000e+00
 SX3eq TX1eq  1 3.650000e-01    2.340000e+00
 SX2eq TX2eq  1 3.650000e-01    2.340000e+00
 SX2eq TX1vq  1 3.650000e-01    3.100000e+00
 SX2eq TX1eq  1 3.650000e-01    2.340000e+00
 SX1eq TX1eq  1 3.650000e-01    2.570000e+00
  SP6h  TP6d  1 3.650000e-01    3.930000e+00
  SP6h  TN1d  1 3.780000e-01    1.450000e+00
  SP6h  TN2d  1 3.660000e-01    1.600000e+00
  SP6h  TN3d  1 3.650000e-01    1.750000e+00
  SP6h  TN4d  1 3.650000e-01    1.910000e+00
  SP6h  TN5d  1 3.650000e-01    2.110000e+00
  SP6h  TN6d  1 3.650000e-01    2.570000e+00
  SP6h  TP1d  1 3.650000e-01    2.830000e+00
  SP6h  TP2d  1 3.650000e-01    3.100000e+00
  SP6h  TP3d  1 3.650000e-01    3.100000e+00
  SP6h  TP4d  1 3.650000e-01    3.370000e+00
  SP6h  TP5d  1 3.650000e-01    3.640000e+00
  SP6h  TP6a  1 3.650000e-01    3.930000e+00
  SP6h  TN1a  1 3.780000e-01    1.450000e+00
  SP6h  TN2a  1 3.660000e-01    1.600000e+00
  SP6h  TN3a  1 3.650000e-01    1.750000e+00
  SP6h  TN4a  1 3.650000e-01    1.910000e+00
  SP6h  TN5a  1 3.650000e-01    2.110000e+00
  SP6h  TN6a  1 3.650000e-01    2.570000e+00
  SP6h  TP1a  1 3.650000e-01    2.830000e+00
  SP6h  TP2a  1 3.650000e-01    3.100000e+00
  SP6h  TP3a  1 3.650000e-01    3.100000e+00
  SP6h  TP4a  1 3.650000e-01    3.370000e+00
  SP6h  TP5a  1 3.650000e-01    3.640000e+00
  SP6h  TC6v  1 3.660000e-01    1.600000e+00
  SP6h  TC5v  1 3.780000e-01    1.450000e+00
  SP6h  TC4v  1 3.940000e-01    1.290000e+00
  SP6h  TC3v  1 4.040000e-01    1.130000e+00
  SP6h  TC2v  1 4.040000e-01    1.130000e+00
  SP6h  TC1v  1 4.230000e-01    9.810000e-01
  SP6h  TX4v  1 3.650000e-01    1.750000e+00
  SP6h  TX3v  1 3.650000e-01    1.750000e+00
  SP6h  TX2v  1 3.660000e-01    1.600000e+00
  SP6h  TX1v  1 3.780000e-01    1.450000e+00
  SP6h  TC6e  1 3.660000e-01    1.600000e+00
  SP6h  TC5e  1 3.780000e-01    1.450000e+00
  SP6h  TC4e  1 3.940000e-01    1.290000e+00
  SP6h  TC3e  1 4.040000e-01    1.130000e+00
  SP6h  TC2e  1 4.040000e-01    1.130000e+00
  SP6h  TC1e  1 4.230000e-01    9.810000e-01
  SP6h  TX4e  1 3.650000e-01    1.750000e+00
  SP6h  TX3e  1 3.650000e-01    1.750000e+00
  SP6h  TX2e  1 3.660000e-01    1.600000e+00
  SP6h  TX1e  1 3.780000e-01    1.450000e+00
  SP6h  TP6q  1 3.650000e-01    4.510000e+00
  SP6h  TX1q  1 3.660000e-01    1.600000e+00
  SP6h  TX2q  1 3.650000e-01    1.750000e+00
  SP6h  TX3q  1 3.650000e-01    1.910000e+00
  SP6h  TX4q  1 3.650000e-01    1.910000e+00
  SP6h  TC1q  1 4.090000e-01    1.080000e+00
  SP6h  TC2q  1 3.940000e-01    1.290000e+00
  SP6h  TC3q  1 3.940000e-01    1.290000e+00
  SP6h  TC4q  1 3.780000e-01    1.450000e+00
  SP6h  TC5q  1 3.660000e-01    1.600000e+00
  SP6h  TC6q  1 3.650000e-01    1.750000e+00
  SP6h  TN1q  1 3.650000e-01    1.750000e+00
  SP6h  TN2q  1 3.650000e-01    1.910000e+00
  SP6h  TN3q  1 3.650000e-01    2.110000e+00
  SP6h  TN4q  1 3.650000e-01    2.340000e+00
  SP6h  TN5q  1 3.650000e-01    2.570000e+00
  SP6h  TN6q  1 3.650000e-01    3.100000e+00
  SP6h  TP1q  1 3.650000e-01    3.370000e+00
  SP6h  TP2q  1 3.650000e-01    3.640000e+00
  SP6h  TP3q  1 3.650000e-01    3.640000e+00
  SP6h  TP4q  1 3.650000e-01    3.930000e+00
  SP6h  TP5q  1 3.650000e-01    4.220000e+00
  SP6d  TP5h  1 3.650000e-01    3.640000e+00
  SP5h  TP5d  1 3.650000e-01    3.370000e+00
  SP5h  TN1d  1 3.780000e-01    1.450000e+00
  SP5h  TN2d  1 3.660000e-01    1.600000e+00
  SP5h  TN3d  1 3.650000e-01    1.750000e+00
  SP5h  TN4d  1 3.650000e-01    2.110000e+00
  SP5h  TN5d  1 3.650000e-01    2.110000e+00
  SP5h  TN6d  1 3.650000e-01    2.340000e+00
  SP5h  TP1d  1 3.650000e-01    2.570000e+00
  SP5h  TP2d  1 3.650000e-01    2.830000e+00
  SP5h  TP3d  1 3.650000e-01    2.830000e+00
  SP5h  TP4d  1 3.650000e-01    3.100000e+00
  SP6a  TP5h  1 3.650000e-01    3.640000e+00
  SP5h  TP5a  1 3.650000e-01    3.370000e+00
  SP5h  TN1a  1 3.780000e-01    1.450000e+00
  SP5h  TN2a  1 3.660000e-01    1.600000e+00
  SP5h  TN3a  1 3.650000e-01    1.750000e+00
  SP5h  TN4a  1 3.650000e-01    2.110000e+00
  SP5h  TN5a  1 3.650000e-01    2.110000e+00
  SP5h  TN6a  1 3.650000e-01    2.340000e+00
  SP5h  TP1a  1 3.650000e-01    2.570000e+00
  SP5h  TP2a  1 3.650000e-01    2.830000e+00
  SP5h  TP3a  1 3.650000e-01    2.830000e+00
  SP5h  TP4a  1 3.650000e-01    3.100000e+00
  SP5h  TC6v  1 3.660000e-01    1.600000e+00
  SP5h  TC5v  1 3.660000e-01    1.600000e+00
  SP5h  TC4v  1 3.780000e-01    1.450000e+00
  SP5h  TC3v  1 3.940000e-01    1.290000e+00
  SP5h  TC2v  1 3.940000e-01    1.290000e+00
  SP5h  TC1v  1 4.040000e-01    1.130000e+00
  SP5h  TX4v  1 3.650000e-01    1.910000e+00
  SP5h  TX3v  1 3.650000e-01    1.750000e+00
  SP5h  TX2v  1 3.650000e-01    1.750000e+00
  SP5h  TX1v  1 3.780000e-01    1.450000e+00
  SP5h  TC6e  1 3.660000e-01    1.600000e+00
  SP5h  TC5e  1 3.660000e-01    1.600000e+00
  SP5h  TC4e  1 3.780000e-01    1.450000e+00
  SP5h  TC3e  1 3.940000e-01    1.290000e+00
  SP5h  TC2e  1 3.940000e-01    1.290000e+00
  SP5h  TC1e  1 4.040000e-01    1.130000e+00
  SP5h  TX4e  1 3.650000e-01    1.910000e+00
  SP5h  TX3e  1 3.650000e-01    1.750000e+00
  SP5h  TX2e  1 3.650000e-01    1.750000e+00
  SP5h  TX1e  1 3.780000e-01    1.450000e+00
  SP6q  TP5h  1 3.650000e-01    4.220000e+00
  SP5h  TP5q  1 3.650000e-01    3.930000e+00
  SP5h  TX1q  1 3.660000e-01    1.600000e+00
  SP5h  TX2q  1 3.650000e-01    1.910000e+00
  SP5h  TX3q  1 3.650000e-01    1.910000e+00
  SP5h  TX4q  1 3.650000e-01    2.110000e+00
  SP5h  TC1q  1 3.940000e-01    1.290000e+00
  SP5h  TC2q  1 3.780000e-01    1.450000e+00
  SP5h  TC3q  1 3.780000e-01    1.450000e+00
  SP5h  TC4q  1 3.660000e-01    1.600000e+00
  SP5h  TC5q  1 3.650000e-01    1.750000e+00
  SP5h  TC6q  1 3.650000e-01    1.750000e+00
  SP5h  TN1q  1 3.650000e-01    1.750000e+00
  SP5h  TN2q  1 3.650000e-01    1.910000e+00
  SP5h  TN3q  1 3.650000e-01    2.110000e+00
  SP5h  TN4q  1 3.650000e-01    2.570000e+00
  SP5h  TN5q  1 3.650000e-01    2.570000e+00
  SP5h  TN6q  1 3.650000e-01    2.830000e+00
  SP5h  TP1q  1 3.650000e-01    3.100000e+00
  SP5h  TP2q  1 3.650000e-01    3.370000e+00
  SP5h  TP3q  1 3.650000e-01    3.370000e+00
  SP5h  TP4q  1 3.650000e-01    3.640000e+00
  SP6d  TP4h  1 3.650000e-01    3.370000e+00
  SP5d  TP4h  1 3.650000e-01    3.100000e+00
  SP4h  TP4d  1 3.650000e-01    3.100000e+00
  SP4h  TN1d  1 3.660000e-01    1.600000e+00
  SP4h  TN2d  1 3.650000e-01    1.750000e+00
  SP4h  TN3d  1 3.650000e-01    1.910000e+00
  SP4h  TN4d  1 3.650000e-01    2.110000e+00
  SP4h  TN5d  1 3.650000e-01    2.110000e+00
  SP4h  TN6d  1 3.650000e-01    2.340000e+00
  SP4h  TP1d  1 3.650000e-01    2.570000e+00
  SP4h  TP2d  1 3.650000e-01    2.830000e+00
  SP4h  TP3d  1 3.650000e-01    2.830000e+00
  SP6a  TP4h  1 3.650000e-01    3.370000e+00
  SP5a  TP4h  1 3.650000e-01    3.100000e+00
  SP4h  TP4a  1 3.650000e-01    3.100000e+00
  SP4h  TN1a  1 3.660000e-01    1.600000e+00
  SP4h  TN2a  1 3.650000e-01    1.750000e+00
  SP4h  TN3a  1 3.650000e-01    1.910000e+00
  SP4h  TN4a  1 3.650000e-01    2.110000e+00
  SP4h  TN5a  1 3.650000e-01    2.110000e+00
  SP4h  TN6a  1 3.650000e-01    2.340000e+00
  SP4h  TP1a  1 3.650000e-01    2.570000e+00
  SP4h  TP2a  1 3.650000e-01    2.830000e+00
  SP4h  TP3a  1 3.650000e-01    2.830000e+00
  SP4h  TC6v  1 3.650000e-01    1.750000e+00
  SP4h  TC5v  1 3.660000e-01    1.600000e+00
  SP4h  TC4v  1 3.780000e-01    1.450000e+00
  SP4h  TC3v  1 3.940000e-01    1.290000e+00
  SP4h  TC2v  1 3.940000e-01    1.290000e+00
  SP4h  TC1v  1 4.040000e-01    1.130000e+00
  SP4h  TX4v  1 3.650000e-01    1.910000e+00
  SP4h  TX3v  1 3.650000e-01    1.750000e+00
  SP4h  TX2v  1 3.650000e-01    1.750000e+00
  SP4h  TX1v  1 3.660000e-01    1.600000e+00
  SP4h  TC6e  1 3.650000e-01    1.750000e+00
  SP4h  TC5e  1 3.660000e-01    1.600000e+00
  SP4h  TC4e  1 3.780000e-01    1.450000e+00
  SP4h  TC3e  1 3.940000e-01    1.290000e+00
  SP4h  TC2e  1 3.940000e-01    1.290000e+00
  SP4h  TC1e  1 4.040000e-01    1.130000e+00
  SP4h  TX4e  1 3.650000e-01    1.910000e+00
  SP4h  TX3e  1 3.650000e-01    1.750000e+00
  SP4h  TX2e  1 3.650000e-01    1.750000e+00
  SP4h  TX1e  1 3.660000e-01    1.600000e+00
  SP6q  TP4h  1 3.650000e-01    3.930000e+00
  SP5q  TP4h  1 3.650000e-01    3.640000e+00
  SP4h  TP4q  1 3.650000e-01    3.640000e+00
  SP4h  TX1q  1 3.650000e-01    1.750000e+00
  SP4h  TX2q  1 3.650000e-01    1.910000e+00
  SP4h  TX3q  1 3.650000e-01    1.910000e+00
  SP4h  TX4q  1 3.650000e-01    2.110000e+00
  SP4h  TC1q  1 3.940000e-01    1.290000e+00
  SP4h  TC2q  1 3.780000e-01    1.450000e+00
  SP4h  TC3q  1 3.780000e-01    1.450000e+00
  SP4h  TC4q  1 3.660000e-01    1.600000e+00
  SP4h  TC5q  1 3.650000e-01    1.750000e+00
  SP4h  TC6q  1 3.650000e-01    1.910000e+00
  SP4h  TN1q  1 3.650000e-01    1.910000e+00
  SP4h  TN2q  1 3.650000e-01    2.110000e+00
  SP4h  TN3q  1 3.650000e-01    2.340000e+00
  SP4h  TN4q  1 3.650000e-01    2.570000e+00
  SP4h  TN5q  1 3.650000e-01    2.570000e+00
  SP4h  TN6q  1 3.650000e-01    2.830000e+00
  SP4h  TP1q  1 3.650000e-01    3.100000e+00
  SP4h  TP2q  1 3.650000e-01    3.370000e+00
  SP4h  TP3q  1 3.650000e-01    3.370000e+00
  SP6d  TP3h  1 3.650000e-01    3.100000e+00
  SP5d  TP3h  1 3.650000e-01    2.830000e+00
  SP4d  TP3h  1 3.650000e-01    2.830000e+00
  SP3h  TP3d  1 3.650000e-01    2.830000e+00
  SP3h  TN1d  1 3.650000e-01    1.750000e+00
  SP3h  TN2d  1 3.650000e-01    1.910000e+00
  SP3h  TN3d  1 3.650000e-01    1.910000e+00
  SP3h  TN4d  1 3.650000e-01    2.110000e+00
  SP3h  TN5d  1 3.650000e-01    2.110000e+00
  SP3h  TN6d  1 3.650000e-01    2.340000e+00
  SP3h  TP1d  1 3.650000e-01    2.570000e+00
  SP3h  TP2d  1 3.650000e-01    2.830000e+00
  SP6a  TP3h  1 3.650000e-01    3.100000e+00
  SP5a  TP3h  1 3.650000e-01    2.830000e+00
  SP4a  TP3h  1 3.650000e-01    2.830000e+00
  SP3h  TP3a  1 3.650000e-01    2.830000e+00
  SP3h  TN1a  1 3.650000e-01    1.750000e+00
  SP3h  TN2a  1 3.650000e-01    1.910000e+00
  SP3h  TN3a  1 3.650000e-01    1.910000e+00
  SP3h  TN4a  1 3.650000e-01    2.110000e+00
  SP3h  TN5a  1 3.650000e-01    2.110000e+00
  SP3h  TN6a  1 3.650000e-01    2.340000e+00
  SP3h  TP1a  1 3.650000e-01    2.570000e+00
  SP3h  TP2a  1 3.650000e-01    2.830000e+00
  SP3h  TC6v  1 3.650000e-01    1.910000e+00
  SP3h  TC5v  1 3.650000e-01    1.750000e+00
  SP3h  TC4v  1 3.660000e-01    1.600000e+00
  SP3h  TC3v  1 3.940000e-01    1.290000e+00
  SP3h  TC2v  1 3.940000e-01    1.290000e+00
  SP3h  TC1v  1 4.040000e-01    1.130000e+00
  SP3h  TX4v  1 3.650000e-01    1.910000e+00
  SP3h  TX3v  1 3.650000e-01    1.910000e+00
  SP3h  TX2v  1 3.650000e-01    1.750000e+00
  SP3h  TX1v  1 3.660000e-01    1.600000e+00
  SP3h  TC6e  1 3.650000e-01    1.910000e+00
  SP3h  TC5e  1 3.650000e-01    1.750000e+00
  SP3h  TC4e  1 3.660000e-01    1.600000e+00
  SP3h  TC3e  1 3.940000e-01    1.290000e+00
  SP3h  TC2e  1 3.940000e-01    1.290000e+00
  SP3h  TC1e  1 4.040000e-01    1.130000e+00
  SP3h  TX4e  1 3.650000e-01    1.910000e+00
  SP3h  TX3e  1 3.650000e-01    1.910000e+00
  SP3h  TX2e  1 3.650000e-01    1.750000e+00
  SP3h  TX1e  1 3.660000e-01    1.600000e+00
  SP6q  TP3h  1 3.650000e-01    3.640000e+00
  SP5q  TP3h  1 3.650000e-01    3.370000e+00
  SP4q  TP3h  1 3.650000e-01    3.370000e+00
  SP3h  TP3q  1 3.650000e-01    3.370000e+00
  SP3h  TX1q  1 3.650000e-01    1.750000e+00
  SP3h  TX2q  1 3.650000e-01    1.910000e+00
  SP3h  TX3q  1 3.650000e-01    2.110000e+00
  SP3h  TX4q  1 3.650000e-01    2.110000e+00
  SP3h  TC1q  1 3.940000e-01    1.290000e+00
  SP3h  TC2q  1 3.780000e-01    1.450000e+00
  SP3h  TC3q  1 3.780000e-01    1.450000e+00
  SP3h  TC4q  1 3.650000e-01    1.750000e+00
  SP3h  TC5q  1 3.650000e-01    1.910000e+00
  SP3h  TC6q  1 3.650000e-01    2.110000e+00
  SP3h  TN1q  1 3.650000e-01    2.110000e+00
  SP3h  TN2q  1 3.650000e-01    2.340000e+00
  SP3h  TN3q  1 3.650000e-01    2.340000e+00
  SP3h  TN4q  1 3.650000e-01    2.570000e+00
  SP3h  TN5q  1 3.650000e-01    2.570000e+00
  SP3h  TN6q  1 3.650000e-01    2.830000e+00
  SP3h  TP1q  1 3.650000e-01    3.100000e+00
  SP3h  TP2q  1 3.650000e-01    3.370000e+00
  SP6d  TP2h  1 3.650000e-01    3.100000e+00
  SP5d  TP2h  1 3.650000e-01    2.830000e+00
  SP4d  TP2h  1 3.650000e-01    2.830000e+00
  SP3d  TP2h  1 3.650000e-01    2.830000e+00
  SP2h  TP2d  1 3.650000e-01    2.830000e+00
  SP2h  TN1d  1 3.650000e-01    1.910000e+00
  SP2h  TN2d  1 3.650000e-01    1.910000e+00
  SP2h  TN3d  1 3.650000e-01    1.910000e+00
  SP2h  TN4d  1 3.650000e-01    2.110000e+00
  SP2h  TN5d  1 3.650000e-01    2.340000e+00
  SP2h  TN6d  1 3.650000e-01    2.570000e+00
  SP2h  TP1d  1 3.650000e-01    2.570000e+00
  SP6a  TP2h  1 3.650000e-01    3.100000e+00
  SP5a  TP2h  1 3.650000e-01    2.830000e+00
  SP4a  TP2h  1 3.650000e-01    2.830000e+00
  SP3a  TP2h  1 3.650000e-01    2.830000e+00
  SP2h  TP2a  1 3.650000e-01    2.830000e+00
  SP2h  TN1a  1 3.650000e-01    1.910000e+00
  SP2h  TN2a  1 3.650000e-01    1.910000e+00
  SP2h  TN3a  1 3.650000e-01    1.910000e+00
  SP2h  TN4a  1 3.650000e-01    2.110000e+00
  SP2h  TN5a  1 3.650000e-01    2.340000e+00
  SP2h  TN6a  1 3.650000e-01    2.570000e+00
  SP2h  TP1a  1 3.650000e-01    2.570000e+00
  SP2h  TC6v  1 3.650000e-01    1.910000e+00
  SP2h  TC5v  1 3.650000e-01    1.750000e+00
  SP2h  TC4v  1 3.660000e-01    1.600000e+00
  SP2h  TC3v  1 3.780000e-01    1.450000e+00
  SP2h  TC2v  1 3.780000e-01    1.450000e+00
  SP2h  TC1v  1 3.940000e-01    1.290000e+00
  SP2h  TX4v  1 3.650000e-01    1.910000e+00
  SP2h  TX3v  1 3.650000e-01    1.910000e+00
  SP2h  TX2v  1 3.650000e-01    1.750000e+00
  SP2h  TX1v  1 3.660000e-01    1.600000e+00
  SP2h  TC6e  1 3.650000e-01    1.910000e+00
  SP2h  TC5e  1 3.650000e-01    1.750000e+00
  SP2h  TC4e  1 3.660000e-01    1.600000e+00
  SP2h  TC3e  1 3.780000e-01    1.450000e+00
  SP2h  TC2e  1 3.780000e-01    1.450000e+00
  SP2h  TC1e  1 3.940000e-01    1.290000e+00
  SP2h  TX4e  1 3.650000e-01    1.910000e+00
  SP2h  TX3e  1 3.650000e-01    1.910000e+00
  SP2h  TX2e  1 3.650000e-01    1.750000e+00
  SP2h  TX1e  1 3.660000e-01    1.600000e+00
  SP6q  TP2h  1 3.650000e-01    3.640000e+00
  SP5q  TP2h  1 3.650000e-01    3.370000e+00
  SP4q  TP2h  1 3.650000e-01    3.370000e+00
  SP3q  TP2h  1 3.650000e-01    3.370000e+00
  SP2h  TP2q  1 3.650000e-01    3.370000e+00
  SP2h  TX1q  1 3.650000e-01    1.750000e+00
  SP2h  TX2q  1 3.650000e-01    1.910000e+00
  SP2h  TX3q  1 3.650000e-01    2.110000e+00
  SP2h  TX4q  1 3.650000e-01    2.110000e+00
  SP2h  TC1q  1 3.780000e-01    1.450000e+00
  SP2h  TC2q  1 3.660000e-01    1.600000e+00
  SP2h  TC3q  1 3.660000e-01    1.600000e+00
  SP2h  TC4q  1 3.650000e-01    1.750000e+00
  SP2h  TC5q  1 3.650000e-01    1.910000e+00
  SP2h  TC6q  1 3.650000e-01    2.110000e+00
  SP2h  TN1q  1 3.650000e-01    2.340000e+00
  SP2h  TN2q  1 3.650000e-01    2.340000e+00
  SP2h  TN3q  1 3.650000e-01    2.340000e+00
  SP2h  TN4q  1 3.650000e-01    2.570000e+00
  SP2h  TN5q  1 3.650000e-01    2.830000e+00
  SP2h  TN6q  1 3.650000e-01    3.100000e+00
  SP2h  TP1q  1 3.650000e-01    3.100000e+00
  SP6d  TP1h  1 3.650000e-01    2.830000e+00
  SP5d  TP1h  1 3.650000e-01    2.570000e+00
  SP4d  TP1h  1 3.650000e-01    2.570000e+00
  SP3d  TP1h  1 3.650000e-01    2.570000e+00
  SP2d  TP1h  1 3.650000e-01    2.570000e+00
  SP1h  TP1d  1 3.650000e-01    2.570000e+00
  SP1h  TN1d  1 3.650000e-01    1.910000e+00
  SP1h  TN2d  1 3.650000e-01    1.910000e+00
  SP1h  TN3d  1 3.650000e-01    1.910000e+00
  SP1h  TN4d  1 3.650000e-01    2.340000e+00
  SP1h  TN5d  1 3.650000e-01    2.340000e+00
  SP1h  TN6d  1 3.650000e-01    2.570000e+00
  SP6a  TP1h  1 3.650000e-01    2.830000e+00
  SP5a  TP1h  1 3.650000e-01    2.570000e+00
  SP4a  TP1h  1 3.650000e-01    2.570000e+00
  SP3a  TP1h  1 3.650000e-01    2.570000e+00
  SP2a  TP1h  1 3.650000e-01    2.570000e+00
  SP1h  TP1a  1 3.650000e-01    2.570000e+00
  SP1h  TN1a  1 3.650000e-01    1.910000e+00
  SP1h  TN2a  1 3.650000e-01    1.910000e+00
  SP1h  TN3a  1 3.650000e-01    1.910000e+00
  SP1h  TN4a  1 3.650000e-01    2.340000e+00
  SP1h  TN5a  1 3.650000e-01    2.340000e+00
  SP1h  TN6a  1 3.650000e-01    2.570000e+00
  SP1h  TC6v  1 3.650000e-01    1.910000e+00
  SP1h  TC5v  1 3.650000e-01    1.750000e+00
  SP1h  TC4v  1 3.660000e-01    1.600000e+00
  SP1h  TC3v  1 3.780000e-01    1.450000e+00
  SP1h  TC2v  1 3.780000e-01    1.450000e+00
  SP1h  TC1v  1 3.940000e-01    1.290000e+00
  SP1h  TX4v  1 3.650000e-01    1.910000e+00
  SP1h  TX3v  1 3.650000e-01    1.910000e+00
  SP1h  TX2v  1 3.650000e-01    1.750000e+00
  SP1h  TX1v  1 3.660000e-01    1.600000e+00
  SP1h  TC6e  1 3.650000e-01    1.910000e+00
  SP1h  TC5e  1 3.650000e-01    1.750000e+00
  SP1h  TC4e  1 3.660000e-01    1.600000e+00
  SP1h  TC3e  1 3.780000e-01    1.450000e+00
  SP1h  TC2e  1 3.780000e-01    1.450000e+00
  SP1h  TC1e  1 3.940000e-01    1.290000e+00
  SP1h  TX4e  1 3.650000e-01    1.910000e+00
  SP1h  TX3e  1 3.650000e-01    1.910000e+00
  SP1h  TX2e  1 3.650000e-01    1.750000e+00
  SP1h  TX1e  1 3.660000e-01    1.600000e+00
  SP6q  TP1h  1 3.650000e-01    3.370000e+00
  SP5q  TP1h  1 3.650000e-01    3.100000e+00
  SP4q  TP1h  1 3.650000e-01    3.100000e+00
  SP3q  TP1h  1 3.650000e-01    3.100000e+00
  SP2q  TP1h  1 3.650000e-01    3.100000e+00
  SP1h  TP1q  1 3.650000e-01    3.100000e+00
  SP1h  TX1q  1 3.650000e-01    1.750000e+00
  SP1h  TX2q  1 3.650000e-01    1.910000e+00
  SP1h  TX3q  1 3.650000e-01    2.110000e+00
  SP1h  TX4q  1 3.650000e-01    2.110000e+00
  SP1h  TC1q  1 3.780000e-01    1.450000e+00
  SP1h  TC2q  1 3.660000e-01    1.600000e+00
  SP1h  TC3q  1 3.660000e-01    1.600000e+00
  SP1h  TC4q  1 3.650000e-01    1.750000e+00
  SP1h  TC5q  1 3.650000e-01    1.910000e+00
  SP1h  TC6q  1 3.650000e-01    2.110000e+00
  SP1h  TN1q  1 3.650000e-01    2.340000e+00
  SP1h  TN2q  1 3.650000e-01    2.340000e+00
  SP1h  TN3q  1 3.650000e-01    2.340000e+00
  SP1h  TN4q  1 3.650000e-01    2.830000e+00
  SP1h  TN5q  1 3.650000e-01    2.830000e+00
  SP1h  TN6q  1 3.650000e-01    3.100000e+00
  SP6d  TN6h  1 3.650000e-01    2.570000e+00
  SP5d  TN6h  1 3.650000e-01    2.340000e+00
  SP4d  TN6h  1 3.650000e-01    2.340000e+00
  SP3d  TN6h  1 3.650000e-01    2.340000e+00
  SP2d  TN6h  1 3.650000e-01    2.570000e+00
  SP1d  TN6h  1 3.650000e-01    2.570000e+00
  SN6h  TN6d  1 3.650000e-01    2.570000e+00
  SN6h  TN1d  1 3.650000e-01    1.910000e+00
  SN6h  TN2d  1 3.650000e-01    1.910000e+00
  SN6h  TN3d  1 3.650000e-01    2.110000e+00
  SN6h  TN4d  1 3.650000e-01    2.570000e+00
  SN6h  TN5d  1 3.650000e-01    2.570000e+00
  SP6a  TN6h  1 3.650000e-01    2.570000e+00
  SP5a  TN6h  1 3.650000e-01    2.340000e+00
  SP4a  TN6h  1 3.650000e-01    2.340000e+00
  SP3a  TN6h  1 3.650000e-01    2.340000e+00
  SP2a  TN6h  1 3.650000e-01    2.570000e+00
  SP1a  TN6h  1 3.650000e-01    2.570000e+00
  SN6h  TN6a  1 3.650000e-01    2.570000e+00
  SN6h  TN1a  1 3.650000e-01    1.910000e+00
  SN6h  TN2a  1 3.650000e-01    1.910000e+00
  SN6h  TN3a  1 3.650000e-01    2.110000e+00
  SN6h  TN4a  1 3.650000e-01    2.570000e+00
  SN6h  TN5a  1 3.650000e-01    2.570000e+00
  SN6h  TC6v  1 3.650000e-01    2.110000e+00
  SN6h  TC5v  1 3.650000e-01    1.910000e+00
  SN6h  TC4v  1 3.650000e-01    1.750000e+00
  SN6h  TC3v  1 3.660000e-01    1.600000e+00
  SN6h  TC2v  1 3.660000e-01    1.600000e+00
  SN6h  TC1v  1 3.780000e-01    1.450000e+00
  SN6h  TX4v  1 3.650000e-01    2.110000e+00
  SN6h  TX3v  1 3.650000e-01    1.910000e+00
  SN6h  TX2v  1 3.650000e-01    1.750000e+00
  SN6h  TX1v  1 3.660000e-01    1.600000e+00
  SN6h  TC6e  1 3.650000e-01    2.110000e+00
  SN6h  TC5e  1 3.650000e-01    1.910000e+00
  SN6h  TC4e  1 3.650000e-01    1.750000e+00
  SN6h  TC3e  1 3.660000e-01    1.600000e+00
  SN6h  TC2e  1 3.660000e-01    1.600000e+00
  SN6h  TC1e  1 3.780000e-01    1.450000e+00
  SN6h  TX4e  1 3.650000e-01    2.110000e+00
  SN6h  TX3e  1 3.650000e-01    1.910000e+00
  SN6h  TX2e  1 3.650000e-01    1.750000e+00
  SN6h  TX1e  1 3.660000e-01    1.600000e+00
  SP6q  TN6h  1 3.650000e-01    3.100000e+00
  SP5q  TN6h  1 3.650000e-01    2.830000e+00
  SP4q  TN6h  1 3.650000e-01    2.830000e+00
  SP3q  TN6h  1 3.650000e-01    2.830000e+00
  SP2q  TN6h  1 3.650000e-01    3.100000e+00
  SP1q  TN6h  1 3.650000e-01    3.100000e+00
  SN6h  TN6q  1 3.650000e-01    3.100000e+00
  SN6h  TX1q  1 3.650000e-01    1.750000e+00
  SN6h  TX2q  1 3.650000e-01    1.910000e+00
  SN6h  TX3q  1 3.650000e-01    2.110000e+00
  SN6h  TX4q  1 3.650000e-01    2.340000e+00
  SN6h  TC1q  1 3.660000e-01    1.600000e+00
  SN6h  TC2q  1 3.650000e-01    1.750000e+00
  SN6h  TC3q  1 3.650000e-01    1.750000e+00
  SN6h  TC4q  1 3.650000e-01    1.910000e+00
  SN6h  TC5q  1 3.650000e-01    2.110000e+00
  SN6h  TC6q  1 3.650000e-01    2.340000e+00
  SN6h  TN1q  1 3.650000e-01    2.340000e+00
  SN6h  TN2q  1 3.650000e-01    2.340000e+00
  SN6h  TN3q  1 3.650000e-01    2.570000e+00
  SN6h  TN4q  1 3.650000e-01    3.100000e+00
  SN6h  TN5q  1 3.650000e-01    3.100000e+00
  SP6d  TN5h  1 3.650000e-01    2.110000e+00
  SP5d  TN5h  1 3.650000e-01    2.110000e+00
  SP4d  TN5h  1 3.650000e-01    2.110000e+00
  SP3d  TN5h  1 3.650000e-01    2.110000e+00
  SP2d  TN5h  1 3.650000e-01    2.340000e+00
  SP1d  TN5h  1 3.650000e-01    2.340000e+00
  SN6d  TN5h  1 3.650000e-01    2.570000e+00
  SN5h  TN5d  1 3.650000e-01    2.340000e+00
  SN5h  TN1d  1 3.650000e-01    1.910000e+00
  SN5h  TN2d  1 3.650000e-01    2.110000e+00
  SN5h  TN3d  1 3.650000e-01    2.110000e+00
  SN5h  TN4d  1 3.650000e-01    2.340000e+00
  SP6a  TN5h  1 3.650000e-01    2.110000e+00
  SP5a  TN5h  1 3.650000e-01    2.110000e+00
  SP4a  TN5h  1 3.650000e-01    2.110000e+00
  SP3a  TN5h  1 3.650000e-01    2.110000e+00
  SP2a  TN5h  1 3.650000e-01    2.340000e+00
  SP1a  TN5h  1 3.650000e-01    2.340000e+00
  SN6a  TN5h  1 3.650000e-01    2.570000e+00
  SN5h  TN5a  1 3.650000e-01    2.340000e+00
  SN5h  TN1a  1 3.650000e-01    1.910000e+00
  SN5h  TN2a  1 3.650000e-01    2.110000e+00
  SN5h  TN3a  1 3.650000e-01    2.110000e+00
  SN5h  TN4a  1 3.650000e-01    2.340000e+00
  SN5h  TC6v  1 3.650000e-01    2.110000e+00
  SN5h  TC5v  1 3.650000e-01    1.910000e+00
  SN5h  TC4v  1 3.650000e-01    1.750000e+00
  SN5h  TC3v  1 3.650000e-01    1.750000e+00
  SN5h  TC2v  1 3.660000e-01    1.600000e+00
  SN5h  TC1v  1 3.780000e-01    1.450000e+00
  SN5h  TX4v  1 3.650000e-01    2.340000e+00
  SN5h  TX3v  1 3.650000e-01    2.110000e+00
  SN5h  TX2v  1 3.650000e-01    1.910000e+00
  SN5h  TX1v  1 3.650000e-01    1.750000e+00
  SN5h  TC6e  1 3.650000e-01    2.110000e+00
  SN5h  TC5e  1 3.650000e-01    1.910000e+00
  SN5h  TC4e  1 3.650000e-01    1.750000e+00
  SN5h  TC3e  1 3.650000e-01    1.750000e+00
  SN5h  TC2e  1 3.660000e-01    1.600000e+00
  SN5h  TC1e  1 3.780000e-01    1.450000e+00
  SN5h  TX4e  1 3.650000e-01    2.340000e+00
  SN5h  TX3e  1 3.650000e-01    2.110000e+00
  SN5h  TX2e  1 3.650000e-01    1.910000e+00
  SN5h  TX1e  1 3.650000e-01    1.750000e+00
  SP6q  TN5h  1 3.650000e-01    2.570000e+00
  SP5q  TN5h  1 3.650000e-01    2.570000e+00
  SP4q  TN5h  1 3.650000e-01    2.570000e+00
  SP3q  TN5h  1 3.650000e-01    2.570000e+00
  SP2q  TN5h  1 3.650000e-01    2.830000e+00
  SP1q  TN5h  1 3.650000e-01    2.830000e+00
  SN6q  TN5h  1 3.650000e-01    3.100000e+00
  SN5h  TN5q  1 3.650000e-01    2.830000e+00
  SN5h  TX1q  1 3.650000e-01    1.910000e+00
  SN5h  TX2q  1 3.650000e-01    2.110000e+00
  SN5h  TX3q  1 3.650000e-01    2.340000e+00
  SN5h  TX4q  1 3.650000e-01    2.570000e+00
  SN5h  TC1q  1 3.660000e-01    1.600000e+00
  SN5h  TC2q  1 3.650000e-01    1.750000e+00
  SN5h  TC3q  1 3.650000e-01    1.910000e+00
  SN5h  TC4q  1 3.650000e-01    1.910000e+00
  SN5h  TC5q  1 3.650000e-01    2.110000e+00
  SN5h  TC6q  1 3.650000e-01    2.340000e+00
  SN5h  TN1q  1 3.650000e-01    2.340000e+00
  SN5h  TN2q  1 3.650000e-01    2.570000e+00
  SN5h  TN3q  1 3.650000e-01    2.570000e+00
  SN5h  TN4q  1 3.650000e-01    2.830000e+00
  SP6d  TN4h  1 3.650000e-01    1.910000e+00
  SP5d  TN4h  1 3.650000e-01    2.110000e+00
  SP4d  TN4h  1 3.650000e-01    2.110000e+00
  SP3d  TN4h  1 3.650000e-01    2.110000e+00
  SP2d  TN4h  1 3.650000e-01    2.110000e+00
  SP1d  TN4h  1 3.650000e-01    2.340000e+00
  SN6d  TN4h  1 3.650000e-01    2.570000e+00
  SN5d  TN4h  1 3.650000e-01    2.340000e+00
  SN4h  TN4d  1 3.650000e-01    2.340000e+00
  SN4h  TN1d  1 3.650000e-01    1.910000e+00
  SN4h  TN2d  1 3.650000e-01    2.110000e+00
  SN4h  TN3d  1 3.650000e-01    2.110000e+00
  SP6a  TN4h  1 3.650000e-01    1.910000e+00
  SP5a  TN4h  1 3.650000e-01    2.110000e+00
  SP4a  TN4h  1 3.650000e-01    2.110000e+00
  SP3a  TN4h  1 3.650000e-01    2.110000e+00
  SP2a  TN4h  1 3.650000e-01    2.110000e+00
  SP1a  TN4h  1 3.650000e-01    2.340000e+00
  SN6a  TN4h  1 3.650000e-01    2.570000e+00
  SN5a  TN4h  1 3.650000e-01    2.340000e+00
  SN4h  TN4a  1 3.650000e-01    2.340000e+00
  SN4h  TN1a  1 3.650000e-01    1.910000e+00
  SN4h  TN2a  1 3.650000e-01    2.110000e+00
  SN4h  TN3a  1 3.650000e-01    2.110000e+00
  SN4h  TC6v  1 3.650000e-01    2.110000e+00
  SN4h  TC5v  1 3.650000e-01    1.910000e+00
  SN4h  TC4v  1 3.650000e-01    1.910000e+00
  SN4h  TC3v  1 3.650000e-01    1.750000e+00
  SN4h  TC2v  1 3.660000e-01    1.600000e+00
  SN4h  TC1v  1 3.780000e-01    1.450000e+00
  SN4h  TX4v  1 3.650000e-01    2.570000e+00
  SN4h  TX3v  1 3.650000e-01    2.340000e+00
  SN4h  TX2v  1 3.650000e-01    1.910000e+00
  SN4h  TX1v  1 3.650000e-01    1.750000e+00
  SN4h  TC6e  1 3.650000e-01    2.110000e+00
  SN4h  TC5e  1 3.650000e-01    1.910000e+00
  SN4h  TC4e  1 3.650000e-01    1.910000e+00
  SN4h  TC3e  1 3.650000e-01    1.750000e+00
  SN4h  TC2e  1 3.660000e-01    1.600000e+00
  SN4h  TC1e  1 3.780000e-01    1.450000e+00
  SN4h  TX4e  1 3.650000e-01    2.570000e+00
  SN4h  TX3e  1 3.650000e-01    2.340000e+00
  SN4h  TX2e  1 3.650000e-01    1.910000e+00
  SN4h  TX1e  1 3.650000e-01    1.750000e+00
  SP6q  TN4h  1 3.650000e-01    2.340000e+00
  SP5q  TN4h  1 3.650000e-01    2.570000e+00
  SP4q  TN4h  1 3.650000e-01    2.570000e+00
  SP3q  TN4h  1 3.650000e-01    2.570000e+00
  SP2q  TN4h  1 3.650000e-01    2.570000e+00
  SP1q  TN4h  1 3.650000e-01    2.830000e+00
  SN6q  TN4h  1 3.650000e-01    3.100000e+00
  SN5q  TN4h  1 3.650000e-01    2.830000e+00
  SN4h  TN4q  1 3.650000e-01    2.830000e+00
  SN4h  TX1q  1 3.650000e-01    1.910000e+00
  SN4h  TX2q  1 3.650000e-01    2.110000e+00
  SN4h  TX3q  1 3.650000e-01    2.570000e+00
  SN4h  TX4q  1 3.650000e-01    2.830000e+00
  SN4h  TC1q  1 3.660000e-01    1.600000e+00
  SN4h  TC2q  1 3.650000e-01    1.750000e+00
  SN4h  TC3q  1 3.650000e-01    1.910000e+00
  SN4h  TC4q  1 3.650000e-01    2.110000e+00
  SN4h  TC5q  1 3.650000e-01    2.110000e+00
  SN4h  TC6q  1 3.650000e-01    2.340000e+00
  SN4h  TN1q  1 3.650000e-01    2.340000e+00
  SN4h  TN2q  1 3.650000e-01    2.570000e+00
  SN4h  TN3q  1 3.650000e-01    2.570000e+00
  SP6d  TN3h  1 3.650000e-01    1.750000e+00
  SP5d  TN3h  1 3.650000e-01    1.750000e+00
  SP4d  TN3h  1 3.650000e-01    1.910000e+00
  SP3d  TN3h  1 3.650000e-01    1.910000e+00
  SP2d  TN3h  1 3.650000e-01    1.910000e+00
  SP1d  TN3h  1 3.650000e-01    1.910000e+00
  SN6d  TN3h  1 3.650000e-01    2.110000e+00
  SN5d  TN3h  1 3.650000e-01    2.110000e+00
  SN4d  TN3h  1 3.650000e-01    2.110000e+00
  SN3h  TN3d  1 3.650000e-01    2.110000e+00
  SN3h  TN1d  1 3.650000e-01    1.910000e+00
  SN3h  TN2d  1 3.650000e-01    2.110000e+00
  SP6a  TN3h  1 3.650000e-01    1.750000e+00
  SP5a  TN3h  1 3.650000e-01    1.750000e+00
  SP4a  TN3h  1 3.650000e-01    1.910000e+00
  SP3a  TN3h  1 3.650000e-01    1.910000e+00
  SP2a  TN3h  1 3.650000e-01    1.910000e+00
  SP1a  TN3h  1 3.650000e-01    1.910000e+00
  SN6a  TN3h  1 3.650000e-01    2.110000e+00
  SN5a  TN3h  1 3.650000e-01    2.110000e+00
  SN4a  TN3h  1 3.650000e-01    2.110000e+00
  SN3h  TN3a  1 3.650000e-01    2.110000e+00
  SN3h  TN1a  1 3.650000e-01    1.910000e+00
  SN3h  TN2a  1 3.650000e-01    2.110000e+00
  SN3h  TC6v  1 3.650000e-01    2.110000e+00
  SN3h  TC5v  1 3.650000e-01    1.910000e+00
  SN3h  TC4v  1 3.650000e-01    1.910000e+00
  SN3h  TC3v  1 3.650000e-01    1.750000e+00
  SN3h  TC2v  1 3.650000e-01    1.750000e+00
  SN3h  TC1v  1 3.660000e-01    1.600000e+00
  SN3h  TX4v  1 3.650000e-01    2.340000e+00
  SN3h  TX3v  1 3.650000e-01    2.110000e+00
  SN3h  TX2v  1 3.650000e-01    1.910000e+00
  SN3h  TX1v  1 3.650000e-01    1.910000e+00
  SN3h  TC6e  1 3.650000e-01    2.110000e+00
  SN3h  TC5e  1 3.650000e-01    1.910000e+00
  SN3h  TC4e  1 3.650000e-01    1.910000e+00
  SN3h  TC3e  1 3.650000e-01    1.750000e+00
  SN3h  TC2e  1 3.650000e-01    1.750000e+00
  SN3h  TC1e  1 3.660000e-01    1.600000e+00
  SN3h  TX4e  1 3.650000e-01    2.340000e+00
  SN3h  TX3e  1 3.650000e-01    2.110000e+00
  SN3h  TX2e  1 3.650000e-01    1.910000e+00
  SN3h  TX1e  1 3.650000e-01    1.910000e+00
  SP6q  TN3h  1 3.650000e-01    2.110000e+00
  SP5q  TN3h  1 3.650000e-01    2.110000e+00
  SP4q  TN3h  1 3.650000e-01    2.340000e+00
  SP3q  TN3h  1 3.650000e-01    2.340000e+00
  SP2q  TN3h  1 3.650000e-01    2.340000e+00
  SP1q  TN3h  1 3.650000e-01    2.340000e+00
  SN6q  TN3h  1 3.650000e-01    2.570000e+00
  SN5q  TN3h  1 3.650000e-01    2.570000e+00
  SN4q  TN3h  1 3.650000e-01    2.570000e+00
  SN3h  TN3q  1 3.650000e-01    2.570000e+00
  SN3h  TX1q  1 3.650000e-01    2.110000e+00
  SN3h  TX2q  1 3.650000e-01    2.110000e+00
  SN3h  TX3q  1 3.650000e-01    2.340000e+00
  SN3h  TX4q  1 3.650000e-01    2.570000e+00
  SN3h  TC1q  1 3.650000e-01    1.750000e+00
  SN3h  TC2q  1 3.650000e-01    1.910000e+00
  SN3h  TC3q  1 3.650000e-01    1.910000e+00
  SN3h  TC4q  1 3.650000e-01    2.110000e+00
  SN3h  TC5q  1 3.650000e-01    2.110000e+00
  SN3h  TC6q  1 3.650000e-01    2.340000e+00
  SN3h  TN1q  1 3.650000e-01    2.340000e+00
  SN3h  TN2q  1 3.650000e-01    2.570000e+00
  SP6d  TN2h  1 3.660000e-01    1.600000e+00
  SP5d  TN2h  1 3.660000e-01    1.600000e+00
  SP4d  TN2h  1 3.650000e-01    1.750000e+00
  SP3d  TN2h  1 3.650000e-01    1.910000e+00
  SP2d  TN2h  1 3.650000e-01    1.910000e+00
  SP1d  TN2h  1 3.650000e-01    1.910000e+00
  SN6d  TN2h  1 3.650000e-01    1.910000e+00
  SN5d  TN2h  1 3.650000e-01    2.110000e+00
  SN4d  TN2h  1 3.650000e-01    2.110000e+00
  SN3d  TN2h  1 3.650000e-01    2.110000e+00
  SN2h  TN2d  1 3.650000e-01    2.110000e+00
  SN2h  TN1d  1 3.650000e-01    1.910000e+00
  SP6a  TN2h  1 3.660000e-01    1.600000e+00
  SP5a  TN2h  1 3.660000e-01    1.600000e+00
  SP4a  TN2h  1 3.650000e-01    1.750000e+00
  SP3a  TN2h  1 3.650000e-01    1.910000e+00
  SP2a  TN2h  1 3.650000e-01    1.910000e+00
  SP1a  TN2h  1 3.650000e-01    1.910000e+00
  SN6a  TN2h  1 3.650000e-01    1.910000e+00
  SN5a  TN2h  1 3.650000e-01    2.110000e+00
  SN4a  TN2h  1 3.650000e-01    2.110000e+00
  SN3a  TN2h  1 3.650000e-01    2.110000e+00
  SN2h  TN2a  1 3.650000e-01    2.110000e+00
  SN2h  TN1a  1 3.650000e-01    1.910000e+00
  SN2h  TC6v  1 3.650000e-01    2.110000e+00
  SN2h  TC5v  1 3.650000e-01    1.910000e+00
  SN2h  TC4v  1 3.650000e-01    1.910000e+00
  SN2h  TC3v  1 3.650000e-01    1.910000e+00
  SN2h  TC2v  1 3.650000e-01    1.750000e+00
  SN2h  TC1v  1 3.660000e-01    1.600000e+00
  SN2h  TX4v  1 3.650000e-01    2.340000e+00
  SN2h  TX3v  1 3.650000e-01    2.110000e+00
  SN2h  TX2v  1 3.650000e-01    1.910000e+00
  SN2h  TX1v  1 3.650000e-01    1.910000e+00
  SN2h  TC6e  1 3.650000e-01    2.110000e+00
  SN2h  TC5e  1 3.650000e-01    1.910000e+00
  SN2h  TC4e  1 3.650000e-01    1.910000e+00
  SN2h  TC3e  1 3.650000e-01    1.910000e+00
  SN2h  TC2e  1 3.650000e-01    1.750000e+00
  SN2h  TC1e  1 3.660000e-01    1.600000e+00
  SN2h  TX4e  1 3.650000e-01    2.340000e+00
  SN2h  TX3e  1 3.650000e-01    2.110000e+00
  SN2h  TX2e  1 3.650000e-01    1.910000e+00
  SN2h  TX1e  1 3.650000e-01    1.910000e+00
  SP6q  TN2h  1 3.650000e-01    1.910000e+00
  SP5q  TN2h  1 3.650000e-01    1.910000e+00
  SP4q  TN2h  1 3.650000e-01    2.110000e+00
  SP3q  TN2h  1 3.650000e-01    2.340000e+00
  SP2q  TN2h  1 3.650000e-01    2.340000e+00
  SP1q  TN2h  1 3.650000e-01    2.340000e+00
  SN6q  TN2h  1 3.650000e-01    2.340000e+00
  SN5q  TN2h  1 3.650000e-01    2.570000e+00
  SN4q  TN2h  1 3.650000e-01    2.570000e+00
  SN3q  TN2h  1 3.650000e-01    2.570000e+00
  SN2h  TN2q  1 3.650000e-01    2.570000e+00
  SN2h  TX1q  1 3.650000e-01    2.110000e+00
  SN2h  TX2q  1 3.650000e-01    2.110000e+00
  SN2h  TX3q  1 3.650000e-01    2.340000e+00
  SN2h  TX4q  1 3.650000e-01    2.570000e+00
  SN2h  TC1q  1 3.650000e-01    1.750000e+00
  SN2h  TC2q  1 3.650000e-01    1.910000e+00
  SN2h  TC3q  1 3.650000e-01    2.110000e+00
  SN2h  TC4q  1 3.650000e-01    2.110000e+00
  SN2h  TC5q  1 3.650000e-01    2.110000e+00
  SN2h  TC6q  1 3.650000e-01    2.340000e+00
  SN2h  TN1q  1 3.650000e-01    2.340000e+00
  SP6d  TN1h  1 3.780000e-01    1.450000e+00
  SP5d  TN1h  1 3.780000e-01    1.450000e+00
  SP4d  TN1h  1 3.660000e-01    1.600000e+00
  SP3d  TN1h  1 3.650000e-01    1.750000e+00
  SP2d  TN1h  1 3.650000e-01    1.910000e+00
  SP1d  TN1h  1 3.650000e-01    1.910000e+00
  SN6d  TN1h  1 3.650000e-01    1.910000e+00
  SN5d  TN1h  1 3.650000e-01    1.910000e+00
  SN4d  TN1h  1 3.650000e-01    1.910000e+00
  SN3d  TN1h  1 3.650000e-01    1.910000e+00
  SN2d  TN1h  1 3.650000e-01    1.910000e+00
  SN1h  TN1d  1 3.650000e-01    2.110000e+00
  SP6a  TN1h  1 3.780000e-01    1.450000e+00
  SP5a  TN1h  1 3.780000e-01    1.450000e+00
  SP4a  TN1h  1 3.660000e-01    1.600000e+00
  SP3a  TN1h  1 3.650000e-01    1.750000e+00
  SP2a  TN1h  1 3.650000e-01    1.910000e+00
  SP1a  TN1h  1 3.650000e-01    1.910000e+00
  SN6a  TN1h  1 3.650000e-01    1.910000e+00
  SN5a  TN1h  1 3.650000e-01    1.910000e+00
  SN4a  TN1h  1 3.650000e-01    1.910000e+00
  SN3a  TN1h  1 3.650000e-01    1.910000e+00
  SN2a  TN1h  1 3.650000e-01    1.910000e+00
  SN1h  TN1a  1 3.650000e-01    2.110000e+00
  SN1h  TC6v  1 3.650000e-01    2.340000e+00
  SN1h  TC5v  1 3.650000e-01    2.110000e+00
  SN1h  TC4v  1 3.650000e-01    2.110000e+00
  SN1h  TC3v  1 3.650000e-01    1.910000e+00
  SN1h  TC2v  1 3.650000e-01    1.750000e+00
  SN1h  TC1v  1 3.660000e-01    1.600000e+00
  SN1h  TX4v  1 3.650000e-01    2.110000e+00
  SN1h  TX3v  1 3.650000e-01    2.110000e+00
  SN1h  TX2v  1 3.650000e-01    1.910000e+00
  SN1h  TX1v  1 3.650000e-01    1.910000e+00
  SN1h  TC6e  1 3.650000e-01    2.340000e+00
  SN1h  TC5e  1 3.650000e-01    2.110000e+00
  SN1h  TC4e  1 3.650000e-01    2.110000e+00
  SN1h  TC3e  1 3.650000e-01    1.910000e+00
  SN1h  TC2e  1 3.650000e-01    1.750000e+00
  SN1h  TC1e  1 3.660000e-01    1.600000e+00
  SN1h  TX4e  1 3.650000e-01    2.110000e+00
  SN1h  TX3e  1 3.650000e-01    2.110000e+00
  SN1h  TX2e  1 3.650000e-01    1.910000e+00
  SN1h  TX1e  1 3.650000e-01    1.910000e+00
  SP6q  TN1h  1 3.650000e-01    1.750000e+00
  SP5q  TN1h  1 3.650000e-01    1.750000e+00
  SP4q  TN1h  1 3.650000e-01    1.910000e+00
  SP3q  TN1h  1 3.650000e-01    2.110000e+00
  SP2q  TN1h  1 3.650000e-01    2.340000e+00
  SP1q  TN1h  1 3.650000e-01    2.340000e+00
  SN6q  TN1h  1 3.650000e-01    2.340000e+00
  SN5q  TN1h  1 3.650000e-01    2.340000e+00
  SN4q  TN1h  1 3.650000e-01    2.340000e+00
  SN3q  TN1h  1 3.650000e-01    2.340000e+00
  SN2q  TN1h  1 3.650000e-01    2.340000e+00
  SN1h  TN1q  1 3.650000e-01    2.570000e+00
  SN1h  TX1q  1 3.650000e-01    2.110000e+00
  SN1h  TX2q  1 3.650000e-01    2.110000e+00
  SN1h  TX3q  1 3.650000e-01    2.340000e+00
  SN1h  TX4q  1 3.650000e-01    2.340000e+00
  SN1h  TC1q  1 3.650000e-01    1.750000e+00
  SN1h  TC2q  1 3.650000e-01    1.910000e+00
  SN1h  TC3q  1 3.650000e-01    2.110000e+00
  SN1h  TC4q  1 3.650000e-01    2.340000e+00
  SN1h  TC5q  1 3.650000e-01    2.340000e+00
  SN1h  TC6q  1 3.650000e-01    2.570000e+00
  SP6d  TC6h  1 3.780000e-01    1.450000e+00
  SP5d  TC6h  1 3.780000e-01    1.450000e+00
  SP4d  TC6h  1 3.660000e-01    1.600000e+00
  SP3d  TC6h  1 3.650000e-01    1.750000e+00
  SP2d  TC6h  1 3.650000e-01    1.750000e+00
  SP1d  TC6h  1 3.650000e-01    1.750000e+00
  SN6d  TC6h  1 3.650000e-01    1.910000e+00
  SN5d  TC6h  1 3.650000e-01    1.910000e+00
  SN4d  TC6h  1 3.650000e-01    1.910000e+00
  SN3d  TC6h  1 3.650000e-01    1.910000e+00
  SN2d  TC6h  1 3.650000e-01    1.910000e+00
  SN1d  TC6h  1 3.650000e-01    2.110000e+00
  SP6a  TC6h  1 3.780000e-01    1.450000e+00
  SP5a  TC6h  1 3.780000e-01    1.450000e+00
  SP4a  TC6h  1 3.660000e-01    1.600000e+00
  SP3a  TC6h  1 3.650000e-01    1.750000e+00
  SP2a  TC6h  1 3.650000e-01    1.750000e+00
  SP1a  TC6h  1 3.650000e-01    1.750000e+00
  SN6a  TC6h  1 3.650000e-01    1.910000e+00
  SN5a  TC6h  1 3.650000e-01    1.910000e+00
  SN4a  TC6h  1 3.650000e-01    1.910000e+00
  SN3a  TC6h  1 3.650000e-01    1.910000e+00
  SN2a  TC6h  1 3.650000e-01    1.910000e+00
  SN1a  TC6h  1 3.650000e-01    2.110000e+00
  SC6h  TC6v  1 3.650000e-01    2.340000e+00
  SC6h  TX1v  1 3.650000e-01    2.110000e+00
  SC6h  TX2v  1 3.650000e-01    2.110000e+00
  SC6h  TX3v  1 3.650000e-01    2.110000e+00
  SC6h  TX4v  1 3.650000e-01    2.110000e+00
  SC6h  TC1v  1 3.660000e-01    1.600000e+00
  SC6h  TC2v  1 3.650000e-01    1.750000e+00
  SC6h  TC3v  1 3.650000e-01    1.910000e+00
  SC6h  TC4v  1 3.650000e-01    2.110000e+00
  SC6h  TC5v  1 3.650000e-01    2.110000e+00
  SC6h  TC6e  1 3.650000e-01    2.340000e+00
  SC6h  TX1e  1 3.650000e-01    2.110000e+00
  SC6h  TX2e  1 3.650000e-01    2.110000e+00
  SC6h  TX3e  1 3.650000e-01    2.110000e+00
  SC6h  TX4e  1 3.650000e-01    2.110000e+00
  SC6h  TC1e  1 3.660000e-01    1.600000e+00
  SC6h  TC2e  1 3.650000e-01    1.750000e+00
  SC6h  TC3e  1 3.650000e-01    1.910000e+00
  SC6h  TC4e  1 3.650000e-01    2.110000e+00
  SC6h  TC5e  1 3.650000e-01    2.110000e+00
  SP6q  TC6h  1 3.650000e-01    1.750000e+00
  SP5q  TC6h  1 3.650000e-01    1.750000e+00
  SP4q  TC6h  1 3.650000e-01    1.910000e+00
  SP3q  TC6h  1 3.650000e-01    2.110000e+00
  SP2q  TC6h  1 3.650000e-01    2.110000e+00
  SP1q  TC6h  1 3.650000e-01    2.110000e+00
  SN6q  TC6h  1 3.650000e-01    2.340000e+00
  SN5q  TC6h  1 3.650000e-01    2.340000e+00
  SN4q  TC6h  1 3.650000e-01    2.340000e+00
  SN3q  TC6h  1 3.650000e-01    2.340000e+00
  SN2q  TC6h  1 3.650000e-01    2.340000e+00
  SN1q  TC6h  1 3.650000e-01    2.570000e+00
  SC6h  TC6q  1 3.650000e-01    2.570000e+00
  SC6h  TX1q  1 3.650000e-01    2.340000e+00
  SC6h  TX2q  1 3.650000e-01    2.340000e+00
  SC6h  TX3q  1 3.650000e-01    2.340000e+00
  SC6h  TX4q  1 3.650000e-01    2.340000e+00
  SC6h  TC1q  1 3.650000e-01    1.750000e+00
  SC6h  TC2q  1 3.650000e-01    1.910000e+00
  SC6h  TC3q  1 3.650000e-01    2.110000e+00
  SC6h  TC4q  1 3.650000e-01    2.340000e+00
  SC6h  TC5q  1 3.650000e-01    2.340000e+00
  SP6d  TC5h  1 3.940000e-01    1.290000e+00
  SP5d  TC5h  1 3.780000e-01    1.450000e+00
  SP4d  TC5h  1 3.780000e-01    1.450000e+00
  SP3d  TC5h  1 3.660000e-01    1.600000e+00
  SP2d  TC5h  1 3.660000e-01    1.600000e+00
  SP1d  TC5h  1 3.660000e-01    1.600000e+00
  SN6d  TC5h  1 3.650000e-01    1.750000e+00
  SN5d  TC5h  1 3.650000e-01    1.750000e+00
  SN4d  TC5h  1 3.650000e-01    1.750000e+00
  SN3d  TC5h  1 3.650000e-01    1.750000e+00
  SN2d  TC5h  1 3.650000e-01    1.750000e+00
  SN1d  TC5h  1 3.650000e-01    1.910000e+00
  SP6a  TC5h  1 3.940000e-01    1.290000e+00
  SP5a  TC5h  1 3.780000e-01    1.450000e+00
  SP4a  TC5h  1 3.780000e-01    1.450000e+00
  SP3a  TC5h  1 3.660000e-01    1.600000e+00
  SP2a  TC5h  1 3.660000e-01    1.600000e+00
  SP1a  TC5h  1 3.660000e-01    1.600000e+00
  SN6a  TC5h  1 3.650000e-01    1.750000e+00
  SN5a  TC5h  1 3.650000e-01    1.750000e+00
  SN4a  TC5h  1 3.650000e-01    1.750000e+00
  SN3a  TC5h  1 3.650000e-01    1.750000e+00
  SN2a  TC5h  1 3.650000e-01    1.750000e+00
  SN1a  TC5h  1 3.650000e-01    1.910000e+00
  SC6v  TC5h  1 3.650000e-01    2.110000e+00
  SC5h  TC5v  1 3.650000e-01    2.110000e+00
  SC5h  TX1v  1 3.650000e-01    2.110000e+00
  SC5h  TX2v  1 3.650000e-01    1.910000e+00
  SC5h  TX3v  1 3.650000e-01    1.910000e+00
  SC5h  TX4v  1 3.650000e-01    1.910000e+00
  SC5h  TC1v  1 3.650000e-01    1.750000e+00
  SC5h  TC2v  1 3.650000e-01    1.750000e+00
  SC5h  TC3v  1 3.650000e-01    1.910000e+00
  SC5h  TC4v  1 3.650000e-01    2.110000e+00
  SC6e  TC5h  1 3.650000e-01    2.110000e+00
  SC5h  TC5e  1 3.650000e-01    2.110000e+00
  SC5h  TX1e  1 3.650000e-01    2.110000e+00
  SC5h  TX2e  1 3.650000e-01    1.910000e+00
  SC5h  TX3e  1 3.650000e-01    1.910000e+00
  SC5h  TX4e  1 3.650000e-01    1.910000e+00
  SC5h  TC1e  1 3.650000e-01    1.750000e+00
  SC5h  TC2e  1 3.650000e-01    1.750000e+00
  SC5h  TC3e  1 3.650000e-01    1.910000e+00
  SC5h  TC4e  1 3.650000e-01    2.110000e+00
  SP6q  TC5h  1 3.660000e-01    1.600000e+00
  SP5q  TC5h  1 3.650000e-01    1.750000e+00
  SP4q  TC5h  1 3.650000e-01    1.750000e+00
  SP3q  TC5h  1 3.650000e-01    1.910000e+00
  SP2q  TC5h  1 3.650000e-01    1.910000e+00
  SP1q  TC5h  1 3.650000e-01    1.910000e+00
  SN6q  TC5h  1 3.650000e-01    2.110000e+00
  SN5q  TC5h  1 3.650000e-01    2.110000e+00
  SN4q  TC5h  1 3.650000e-01    2.110000e+00
  SN3q  TC5h  1 3.650000e-01    2.110000e+00
  SN2q  TC5h  1 3.650000e-01    2.110000e+00
  SN1q  TC5h  1 3.650000e-01    2.340000e+00
  SC6q  TC5h  1 3.650000e-01    2.340000e+00
  SC5h  TC5q  1 3.650000e-01    2.340000e+00
  SC5h  TX1q  1 3.650000e-01    2.340000e+00
  SC5h  TX2q  1 3.650000e-01    2.110000e+00
  SC5h  TX3q  1 3.650000e-01    2.110000e+00
  SC5h  TX4q  1 3.650000e-01    2.110000e+00
  SC5h  TC1q  1 3.650000e-01    1.910000e+00
  SC5h  TC2q  1 3.650000e-01    1.910000e+00
  SC5h  TC3q  1 3.650000e-01    2.110000e+00
  SC5h  TC4q  1 3.650000e-01    2.340000e+00
  SP6d  TC4h  1 4.040000e-01    1.130000e+00
  SP5d  TC4h  1 3.940000e-01    1.290000e+00
  SP4d  TC4h  1 3.940000e-01    1.290000e+00
  SP3d  TC4h  1 3.780000e-01    1.450000e+00
  SP2d  TC4h  1 3.780000e-01    1.450000e+00
  SP1d  TC4h  1 3.780000e-01    1.450000e+00
  SN6d  TC4h  1 3.660000e-01    1.600000e+00
  SN5d  TC4h  1 3.660000e-01    1.600000e+00
  SN4d  TC4h  1 3.650000e-01    1.750000e+00
  SN3d  TC4h  1 3.650000e-01    1.750000e+00
  SN2d  TC4h  1 3.650000e-01    1.750000e+00
  SN1d  TC4h  1 3.650000e-01    1.910000e+00
  SP6a  TC4h  1 4.040000e-01    1.130000e+00
  SP5a  TC4h  1 3.940000e-01    1.290000e+00
  SP4a  TC4h  1 3.940000e-01    1.290000e+00
  SP3a  TC4h  1 3.780000e-01    1.450000e+00
  SP2a  TC4h  1 3.780000e-01    1.450000e+00
  SP1a  TC4h  1 3.780000e-01    1.450000e+00
  SN6a  TC4h  1 3.660000e-01    1.600000e+00
  SN5a  TC4h  1 3.660000e-01    1.600000e+00
  SN4a  TC4h  1 3.650000e-01    1.750000e+00
  SN3a  TC4h  1 3.650000e-01    1.750000e+00
  SN2a  TC4h  1 3.650000e-01    1.750000e+00
  SN1a  TC4h  1 3.650000e-01    1.910000e+00
  SC6v  TC4h  1 3.650000e-01    2.110000e+00
  SC5v  TC4h  1 3.650000e-01    2.110000e+00
  SC4h  TC4v  1 3.650000e-01    2.110000e+00
  SC4h  TX1v  1 3.650000e-01    2.110000e+00
  SC4h  TX2v  1 3.650000e-01    1.910000e+00
  SC4h  TX3v  1 3.650000e-01    1.910000e+00
  SC4h  TX4v  1 3.650000e-01    1.910000e+00
  SC4h  TC1v  1 3.650000e-01    1.750000e+00
  SC4h  TC2v  1 3.650000e-01    1.910000e+00
  SC4h  TC3v  1 3.650000e-01    2.110000e+00
  SC6e  TC4h  1 3.650000e-01    2.110000e+00
  SC5e  TC4h  1 3.650000e-01    2.110000e+00
  SC4h  TC4e  1 3.650000e-01    2.110000e+00
  SC4h  TX1e  1 3.650000e-01    2.110000e+00
  SC4h  TX2e  1 3.650000e-01    1.910000e+00
  SC4h  TX3e  1 3.650000e-01    1.910000e+00
  SC4h  TX4e  1 3.650000e-01    1.910000e+00
  SC4h  TC1e  1 3.650000e-01    1.750000e+00
  SC4h  TC2e  1 3.650000e-01    1.910000e+00
  SC4h  TC3e  1 3.650000e-01    2.110000e+00
  SP6q  TC4h  1 3.780000e-01    1.450000e+00
  SP5q  TC4h  1 3.660000e-01    1.600000e+00
  SP4q  TC4h  1 3.660000e-01    1.600000e+00
  SP3q  TC4h  1 3.650000e-01    1.750000e+00
  SP2q  TC4h  1 3.650000e-01    1.750000e+00
  SP1q  TC4h  1 3.650000e-01    1.750000e+00
  SN6q  TC4h  1 3.650000e-01    1.910000e+00
  SN5q  TC4h  1 3.650000e-01    1.910000e+00
  SN4q  TC4h  1 3.650000e-01    2.110000e+00
  SN3q  TC4h  1 3.650000e-01    2.110000e+00
  SN2q  TC4h  1 3.650000e-01    2.110000e+00
  SN1q  TC4h  1 3.650000e-01    2.340000e+00
  SC6q  TC4h  1 3.650000e-01    2.340000e+00
  SC5q  TC4h  1 3.650000e-01    2.340000e+00
  SC4h  TC4q  1 3.650000e-01    2.340000e+00
  SC4h  TX1q  1 3.650000e-01    2.340000e+00
  SC4h  TX2q  1 3.650000e-01    2.110000e+00
  SC4h  TX3q  1 3.650000e-01    2.110000e+00
  SC4h  TX4q  1 3.650000e-01    2.110000e+00
  SC4h  TC1q  1 3.650000e-01    1.910000e+00
  SC4h  TC2q  1 3.650000e-01    2.110000e+00
  SC4h  TC3q  1 3.650000e-01    2.340000e+00
  SP6d  TC3h  1 4.090000e-01    1.080000e+00
  SP5d  TC3h  1 4.040000e-01    1.130000e+00
  SP4d  TC3h  1 4.040000e-01    1.130000e+00
  SP3d  TC3h  1 4.040000e-01    1.130000e+00
  SP2d  TC3h  1 3.940000e-01    1.290000e+00
  SP1d  TC3h  1 3.940000e-01    1.290000e+00
  SN6d  TC3h  1 3.780000e-01    1.450000e+00
  SN5d  TC3h  1 3.660000e-01    1.600000e+00
  SN4d  TC3h  1 3.660000e-01    1.600000e+00
  SN3d  TC3h  1 3.660000e-01    1.600000e+00
  SN2d  TC3h  1 3.650000e-01    1.750000e+00
  SN1d  TC3h  1 3.650000e-01    1.750000e+00
  SP6a  TC3h  1 4.090000e-01    1.080000e+00
  SP5a  TC3h  1 4.040000e-01    1.130000e+00
  SP4a  TC3h  1 4.040000e-01    1.130000e+00
  SP3a  TC3h  1 4.040000e-01    1.130000e+00
  SP2a  TC3h  1 3.940000e-01    1.290000e+00
  SP1a  TC3h  1 3.940000e-01    1.290000e+00
  SN6a  TC3h  1 3.780000e-01    1.450000e+00
  SN5a  TC3h  1 3.660000e-01    1.600000e+00
  SN4a  TC3h  1 3.660000e-01    1.600000e+00
  SN3a  TC3h  1 3.660000e-01    1.600000e+00
  SN2a  TC3h  1 3.650000e-01    1.750000e+00
  SN1a  TC3h  1 3.650000e-01    1.750000e+00
  SC6v  TC3h  1 3.650000e-01    1.910000e+00
  SC5v  TC3h  1 3.650000e-01    1.910000e+00
  SC4v  TC3h  1 3.650000e-01    2.110000e+00
  SC3h  TC3v  1 3.650000e-01    2.110000e+00
  SC3h  TX1v  1 3.650000e-01    2.110000e+00
  SC3h  TX2v  1 3.650000e-01    1.910000e+00
  SC3h  TX3v  1 3.650000e-01    1.910000e+00
  SC3h  TX4v  1 3.650000e-01    1.910000e+00
  SC3h  TC1v  1 3.650000e-01    2.110000e+00
  SC3h  TC2v  1 3.650000e-01    2.110000e+00
  SC6e  TC3h  1 3.650000e-01    1.910000e+00
  SC5e  TC3h  1 3.650000e-01    1.910000e+00
  SC4e  TC3h  1 3.650000e-01    2.110000e+00
  SC3h  TC3e  1 3.650000e-01    2.110000e+00
  SC3h  TX1e  1 3.650000e-01    2.110000e+00
  SC3h  TX2e  1 3.650000e-01    1.910000e+00
  SC3h  TX3e  1 3.650000e-01    1.910000e+00
  SC3h  TX4e  1 3.650000e-01    1.910000e+00
  SC3h  TC1e  1 3.650000e-01    2.110000e+00
  SC3h  TC2e  1 3.650000e-01    2.110000e+00
  SP6q  TC3h  1 3.940000e-01    1.290000e+00
  SP5q  TC3h  1 3.780000e-01    1.450000e+00
  SP4q  TC3h  1 3.780000e-01    1.450000e+00
  SP3q  TC3h  1 3.780000e-01    1.450000e+00
  SP2q  TC3h  1 3.660000e-01    1.600000e+00
  SP1q  TC3h  1 3.660000e-01    1.600000e+00
  SN6q  TC3h  1 3.650000e-01    1.750000e+00
  SN5q  TC3h  1 3.650000e-01    1.910000e+00
  SN4q  TC3h  1 3.650000e-01    1.910000e+00
  SN3q  TC3h  1 3.650000e-01    1.910000e+00
  SN2q  TC3h  1 3.650000e-01    2.110000e+00
  SN1q  TC3h  1 3.650000e-01    2.110000e+00
  SC6q  TC3h  1 3.650000e-01    2.110000e+00
  SC5q  TC3h  1 3.650000e-01    2.110000e+00
  SC4q  TC3h  1 3.650000e-01    2.340000e+00
  SC3h  TC3q  1 3.650000e-01    2.340000e+00
  SC3h  TX1q  1 3.650000e-01    2.340000e+00
  SC3h  TX2q  1 3.650000e-01    2.110000e+00
  SC3h  TX3q  1 3.650000e-01    2.110000e+00
  SC3h  TX4q  1 3.650000e-01    2.110000e+00
  SC3h  TC1q  1 3.650000e-01    2.340000e+00
  SC3h  TC2q  1 3.650000e-01    2.340000e+00
  SP6d  TC2h  1 4.090000e-01    1.080000e+00
  SP5d  TC2h  1 4.040000e-01    1.130000e+00
  SP4d  TC2h  1 4.040000e-01    1.130000e+00
  SP3d  TC2h  1 4.040000e-01    1.130000e+00
  SP2d  TC2h  1 3.940000e-01    1.290000e+00
  SP1d  TC2h  1 3.940000e-01    1.290000e+00
  SN6d  TC2h  1 3.780000e-01    1.450000e+00
  SN5d  TC2h  1 3.780000e-01    1.450000e+00
  SN4d  TC2h  1 3.780000e-01    1.450000e+00
  SN3d  TC2h  1 3.660000e-01    1.600000e+00
  SN2d  TC2h  1 3.660000e-01    1.600000e+00
  SN1d  TC2h  1 3.660000e-01    1.600000e+00
  SP6a  TC2h  1 4.090000e-01    1.080000e+00
  SP5a  TC2h  1 4.040000e-01    1.130000e+00
  SP4a  TC2h  1 4.040000e-01    1.130000e+00
  SP3a  TC2h  1 4.040000e-01    1.130000e+00
  SP2a  TC2h  1 3.940000e-01    1.290000e+00
  SP1a  TC2h  1 3.940000e-01    1.290000e+00
  SN6a  TC2h  1 3.780000e-01    1.450000e+00
  SN5a  TC2h  1 3.780000e-01    1.450000e+00
  SN4a  TC2h  1 3.780000e-01    1.450000e+00
  SN3a  TC2h  1 3.660000e-01    1.600000e+00
  SN2a  TC2h  1 3.660000e-01    1.600000e+00
  SN1a  TC2h  1 3.660000e-01    1.600000e+00
  SC6v  TC2h  1 3.650000e-01    1.750000e+00
  SC5v  TC2h  1 3.650000e-01    1.750000e+00
  SC4v  TC2h  1 3.650000e-01    1.910000e+00
  SC3v  TC2h  1 3.650000e-01    2.110000e+00
  SC2h  TC2v  1 3.650000e-01    2.110000e+00
  SC2h  TX1v  1 3.650000e-01    1.910000e+00
  SC2h  TX2v  1 3.650000e-01    1.910000e+00
  SC2h  TX3v  1 3.650000e-01    1.910000e+00
  SC2h  TX4v  1 3.660000e-01    1.600000e+00
  SC2h  TC1v  1 3.650000e-01    2.340000e+00
  SC6e  TC2h  1 3.650000e-01    1.750000e+00
  SC5e  TC2h  1 3.650000e-01    1.750000e+00
  SC4e  TC2h  1 3.650000e-01    1.910000e+00
  SC3e  TC2h  1 3.650000e-01    2.110000e+00
  SC2h  TC2e  1 3.650000e-01    2.110000e+00
  SC2h  TX1e  1 3.650000e-01    1.910000e+00
  SC2h  TX2e  1 3.650000e-01    1.910000e+00
  SC2h  TX3e  1 3.650000e-01    1.910000e+00
  SC2h  TX4e  1 3.660000e-01    1.600000e+00
  SC2h  TC1e  1 3.650000e-01    2.340000e+00
  SP6q  TC2h  1 3.940000e-01    1.290000e+00
  SP5q  TC2h  1 3.780000e-01    1.450000e+00
  SP4q  TC2h  1 3.780000e-01    1.450000e+00
  SP3q  TC2h  1 3.780000e-01    1.450000e+00
  SP2q  TC2h  1 3.660000e-01    1.600000e+00
  SP1q  TC2h  1 3.660000e-01    1.600000e+00
  SN6q  TC2h  1 3.650000e-01    1.750000e+00
  SN5q  TC2h  1 3.650000e-01    1.750000e+00
  SN4q  TC2h  1 3.650000e-01    1.750000e+00
  SN3q  TC2h  1 3.650000e-01    1.910000e+00
  SN2q  TC2h  1 3.650000e-01    1.910000e+00
  SN1q  TC2h  1 3.650000e-01    1.910000e+00
  SC6q  TC2h  1 3.650000e-01    1.910000e+00
  SC5q  TC2h  1 3.650000e-01    1.910000e+00
  SC4q  TC2h  1 3.650000e-01    2.110000e+00
  SC3q  TC2h  1 3.650000e-01    2.340000e+00
  SC2h  TC2q  1 3.650000e-01    2.340000e+00
  SC2h  TX1q  1 3.650000e-01    2.110000e+00
  SC2h  TX2q  1 3.650000e-01    2.110000e+00
  SC2h  TX3q  1 3.650000e-01    2.110000e+00
  SC2h  TX4q  1 3.650000e-01    1.750000e+00
  SC2h  TC1q  1 3.650000e-01    2.570000e+00
  SP6d  TC1h  1 4.840000e-01    8.900000e-01
  SP5d  TC1h  1 4.090000e-01    1.080000e+00
  SP4d  TC1h  1 4.090000e-01    1.080000e+00
  SP3d  TC1h  1 4.090000e-01    1.080000e+00
  SP2d  TC1h  1 4.040000e-01    1.130000e+00
  SP1d  TC1h  1 4.040000e-01    1.130000e+00
  SN6d  TC1h  1 3.940000e-01    1.290000e+00
  SN5d  TC1h  1 3.940000e-01    1.290000e+00
  SN4d  TC1h  1 3.940000e-01    1.290000e+00
  SN3d  TC1h  1 3.780000e-01    1.450000e+00
  SN2d  TC1h  1 3.780000e-01    1.450000e+00
  SN1d  TC1h  1 3.780000e-01    1.450000e+00
  SP6a  TC1h  1 4.840000e-01    8.900000e-01
  SP5a  TC1h  1 4.090000e-01    1.080000e+00
  SP4a  TC1h  1 4.090000e-01    1.080000e+00
  SP3a  TC1h  1 4.090000e-01    1.080000e+00
  SP2a  TC1h  1 4.040000e-01    1.130000e+00
  SP1a  TC1h  1 4.040000e-01    1.130000e+00
  SN6a  TC1h  1 3.940000e-01    1.290000e+00
  SN5a  TC1h  1 3.940000e-01    1.290000e+00
  SN4a  TC1h  1 3.940000e-01    1.290000e+00
  SN3a  TC1h  1 3.780000e-01    1.450000e+00
  SN2a  TC1h  1 3.780000e-01    1.450000e+00
  SN1a  TC1h  1 3.780000e-01    1.450000e+00
  SC6v  TC1h  1 3.660000e-01    1.600000e+00
  SC5v  TC1h  1 3.650000e-01    1.750000e+00
  SC4v  TC1h  1 3.650000e-01    1.750000e+00
  SC3v  TC1h  1 3.650000e-01    2.110000e+00
  SC2v  TC1h  1 3.650000e-01    2.340000e+00
  SC1h  TC1v  1 3.650000e-01    2.110000e+00
  SC1h  TX1v  1 3.650000e-01    1.910000e+00
  SC1h  TX2v  1 3.650000e-01    1.910000e+00
  SC1h  TX3v  1 3.650000e-01    1.910000e+00
  SC1h  TX4v  1 3.660000e-01    1.600000e+00
  SC6e  TC1h  1 3.660000e-01    1.600000e+00
  SC5e  TC1h  1 3.650000e-01    1.750000e+00
  SC4e  TC1h  1 3.650000e-01    1.750000e+00
  SC3e  TC1h  1 3.650000e-01    2.110000e+00
  SC2e  TC1h  1 3.650000e-01    2.340000e+00
  SC1h  TC1e  1 3.650000e-01    2.110000e+00
  SC1h  TX1e  1 3.650000e-01    1.910000e+00
  SC1h  TX2e  1 3.650000e-01    1.910000e+00
  SC1h  TX3e  1 3.650000e-01    1.910000e+00
  SC1h  TX4e  1 3.660000e-01    1.600000e+00
  SP6q  TC1h  1 4.090000e-01    1.080000e+00
  SP5q  TC1h  1 3.940000e-01    1.290000e+00
  SP4q  TC1h  1 3.940000e-01    1.290000e+00
  SP3q  TC1h  1 3.940000e-01    1.290000e+00
  SP2q  TC1h  1 3.780000e-01    1.450000e+00
  SP1q  TC1h  1 3.780000e-01    1.450000e+00
  SN6q  TC1h  1 3.660000e-01    1.600000e+00
  SN5q  TC1h  1 3.660000e-01    1.600000e+00
  SN4q  TC1h  1 3.660000e-01    1.600000e+00
  SN3q  TC1h  1 3.650000e-01    1.750000e+00
  SN2q  TC1h  1 3.650000e-01    1.750000e+00
  SN1q  TC1h  1 3.650000e-01    1.750000e+00
  SC6q  TC1h  1 3.650000e-01    1.750000e+00
  SC5q  TC1h  1 3.650000e-01    1.910000e+00
  SC4q  TC1h  1 3.650000e-01    1.910000e+00
  SC3q  TC1h  1 3.650000e-01    2.340000e+00
  SC2q  TC1h  1 3.650000e-01    2.570000e+00
  SC1h  TC1q  1 3.650000e-01    2.340000e+00
  SC1h  TX1q  1 3.650000e-01    2.110000e+00
  SC1h  TX2q  1 3.650000e-01    2.110000e+00
  SC1h  TX3q  1 3.650000e-01    2.110000e+00
  SC1h  TX4q  1 3.650000e-01    1.750000e+00
  SP6d  TX4h  1 3.660000e-01    1.600000e+00
  SP5d  TX4h  1 3.650000e-01    1.750000e+00
  SP4d  TX4h  1 3.650000e-01    1.750000e+00
  SP3d  TX4h  1 3.650000e-01    1.750000e+00
  SP2d  TX4h  1 3.650000e-01    1.750000e+00
  SP1d  TX4h  1 3.650000e-01    1.750000e+00
  SN6d  TX4h  1 3.650000e-01    1.910000e+00
  SN5d  TX4h  1 3.650000e-01    2.110000e+00
  SN4d  TX4h  1 3.650000e-01    2.340000e+00
  SN3d  TX4h  1 3.650000e-01    2.110000e+00
  SN2d  TX4h  1 3.650000e-01    2.110000e+00
  SN1d  TX4h  1 3.650000e-01    1.910000e+00
  SP6a  TX4h  1 3.660000e-01    1.600000e+00
  SP5a  TX4h  1 3.650000e-01    1.750000e+00
  SP4a  TX4h  1 3.650000e-01    1.750000e+00
  SP3a  TX4h  1 3.650000e-01    1.750000e+00
  SP2a  TX4h  1 3.650000e-01    1.750000e+00
  SP1a  TX4h  1 3.650000e-01    1.750000e+00
  SN6a  TX4h  1 3.650000e-01    1.910000e+00
  SN5a  TX4h  1 3.650000e-01    2.110000e+00
  SN4a  TX4h  1 3.650000e-01    2.340000e+00
  SN3a  TX4h  1 3.650000e-01    2.110000e+00
  SN2a  TX4h  1 3.650000e-01    2.110000e+00
  SN1a  TX4h  1 3.650000e-01    1.910000e+00
  SC6v  TX4h  1 3.650000e-01    2.110000e+00
  SC5v  TX4h  1 3.650000e-01    1.910000e+00
  SC4v  TX4h  1 3.650000e-01    1.910000e+00
  SC3v  TX4h  1 3.650000e-01    1.910000e+00
  SC2v  TX4h  1 3.660000e-01    1.600000e+00
  SC1v  TX4h  1 3.660000e-01    1.600000e+00
  SX4h  TX4v  1 3.650000e-01    2.110000e+00
  SX4h  TX1v  1 3.650000e-01    2.110000e+00
  SX4h  TX2v  1 3.650000e-01    2.110000e+00
  SX4h  TX3v  1 3.650000e-01    2.110000e+00
  SC6e  TX4h  1 3.650000e-01    2.110000e+00
  SC5e  TX4h  1 3.650000e-01    1.910000e+00
  SC4e  TX4h  1 3.650000e-01    1.910000e+00
  SC3e  TX4h  1 3.650000e-01    1.910000e+00
  SC2e  TX4h  1 3.660000e-01    1.600000e+00
  SC1e  TX4h  1 3.660000e-01    1.600000e+00
  SX4h  TX4e  1 3.650000e-01    2.110000e+00
  SX4h  TX1e  1 3.650000e-01    2.110000e+00
  SX4h  TX2e  1 3.650000e-01    2.110000e+00
  SX4h  TX3e  1 3.650000e-01    2.110000e+00
  SP6q  TX4h  1 3.650000e-01    1.910000e+00
  SP5q  TX4h  1 3.650000e-01    2.110000e+00
  SP4q  TX4h  1 3.650000e-01    2.110000e+00
  SP3q  TX4h  1 3.650000e-01    2.110000e+00
  SP2q  TX4h  1 3.650000e-01    2.110000e+00
  SP1q  TX4h  1 3.650000e-01    2.110000e+00
  SN6q  TX4h  1 3.650000e-01    2.340000e+00
  SN5q  TX4h  1 3.650000e-01    2.570000e+00
  SN4q  TX4h  1 3.650000e-01    2.830000e+00
  SN3q  TX4h  1 3.650000e-01    2.570000e+00
  SN2q  TX4h  1 3.650000e-01    2.570000e+00
  SN1q  TX4h  1 3.650000e-01    2.340000e+00
  SC6q  TX4h  1 3.650000e-01    2.340000e+00
  SC5q  TX4h  1 3.650000e-01    2.110000e+00
  SC4q  TX4h  1 3.650000e-01    2.110000e+00
  SC3q  TX4h  1 3.650000e-01    2.110000e+00
  SC2q  TX4h  1 3.650000e-01    1.750000e+00
  SC1q  TX4h  1 3.650000e-01    1.750000e+00
  SX4h  TX4q  1 3.650000e-01    2.340000e+00
  SX4h  TX1q  1 3.650000e-01    2.340000e+00
  SX4h  TX2q  1 3.650000e-01    2.340000e+00
  SX4h  TX3q  1 3.650000e-01    2.340000e+00
  SP6d  TX3h  1 3.660000e-01    1.600000e+00
  SP5d  TX3h  1 3.660000e-01    1.600000e+00
  SP4d  TX3h  1 3.660000e-01    1.600000e+00
  SP3d  TX3h  1 3.650000e-01    1.750000e+00
  SP2d  TX3h  1 3.650000e-01    1.750000e+00
  SP1d  TX3h  1 3.650000e-01    1.750000e+00
  SN6d  TX3h  1 3.650000e-01    1.750000e+00
  SN5d  TX3h  1 3.650000e-01    1.910000e+00
  SN4d  TX3h  1 3.650000e-01    2.110000e+00
  SN3d  TX3h  1 3.650000e-01    1.910000e+00
  SN2d  TX3h  1 3.650000e-01    1.910000e+00
  SN1d  TX3h  1 3.650000e-01    1.910000e+00
  SP6a  TX3h  1 3.660000e-01    1.600000e+00
  SP5a  TX3h  1 3.660000e-01    1.600000e+00
  SP4a  TX3h  1 3.660000e-01    1.600000e+00
  SP3a  TX3h  1 3.650000e-01    1.750000e+00
  SP2a  TX3h  1 3.650000e-01    1.750000e+00
  SP1a  TX3h  1 3.650000e-01    1.750000e+00
  SN6a  TX3h  1 3.650000e-01    1.750000e+00
  SN5a  TX3h  1 3.650000e-01    1.910000e+00
  SN4a  TX3h  1 3.650000e-01    2.110000e+00
  SN3a  TX3h  1 3.650000e-01    1.910000e+00
  SN2a  TX3h  1 3.650000e-01    1.910000e+00
  SN1a  TX3h  1 3.650000e-01    1.910000e+00
  SC6v  TX3h  1 3.650000e-01    2.110000e+00
  SC5v  TX3h  1 3.650000e-01    1.910000e+00
  SC4v  TX3h  1 3.650000e-01    1.910000e+00
  SC3v  TX3h  1 3.650000e-01    1.910000e+00
  SC2v  TX3h  1 3.650000e-01    1.910000e+00
  SC1v  TX3h  1 3.650000e-01    1.910000e+00
  SX4v  TX3h  1 3.650000e-01    2.110000e+00
  SX3h  TX3v  1 3.650000e-01    2.110000e+00
  SX3h  TX1v  1 3.650000e-01    2.340000e+00
  SX3h  TX2v  1 3.650000e-01    2.340000e+00
  SC6e  TX3h  1 3.650000e-01    2.110000e+00
  SC5e  TX3h  1 3.650000e-01    1.910000e+00
  SC4e  TX3h  1 3.650000e-01    1.910000e+00
  SC3e  TX3h  1 3.650000e-01    1.910000e+00
  SC2e  TX3h  1 3.650000e-01    1.910000e+00
  SC1e  TX3h  1 3.650000e-01    1.910000e+00
  SX4e  TX3h  1 3.650000e-01    2.110000e+00
  SX3h  TX3e  1 3.650000e-01    2.110000e+00
  SX3h  TX1e  1 3.650000e-01    2.340000e+00
  SX3h  TX2e  1 3.650000e-01    2.340000e+00
  SP6q  TX3h  1 3.650000e-01    1.910000e+00
  SP5q  TX3h  1 3.650000e-01    1.910000e+00
  SP4q  TX3h  1 3.650000e-01    1.910000e+00
  SP3q  TX3h  1 3.650000e-01    2.110000e+00
  SP2q  TX3h  1 3.650000e-01    2.110000e+00
  SP1q  TX3h  1 3.650000e-01    2.110000e+00
  SN6q  TX3h  1 3.650000e-01    2.110000e+00
  SN5q  TX3h  1 3.650000e-01    2.340000e+00
  SN4q  TX3h  1 3.650000e-01    2.570000e+00
  SN3q  TX3h  1 3.650000e-01    2.340000e+00
  SN2q  TX3h  1 3.650000e-01    2.340000e+00
  SN1q  TX3h  1 3.650000e-01    2.340000e+00
  SC6q  TX3h  1 3.650000e-01    2.340000e+00
  SC5q  TX3h  1 3.650000e-01    2.110000e+00
  SC4q  TX3h  1 3.650000e-01    2.110000e+00
  SC3q  TX3h  1 3.650000e-01    2.110000e+00
  SC2q  TX3h  1 3.650000e-01    2.110000e+00
  SC1q  TX3h  1 3.650000e-01    2.110000e+00
  SX4q  TX3h  1 3.650000e-01    2.340000e+00
  SX3h  TX3q  1 3.650000e-01    2.340000e+00
  SX3h  TX1q  1 3.650000e-01    2.570000e+00
  SX3h  TX2q  1 3.650000e-01    2.570000e+00
  SP6d  TX2h  1 3.780000e-01    1.450000e+00
  SP5d  TX2h  1 3.660000e-01    1.600000e+00
  SP4d  TX2h  1 3.660000e-01    1.600000e+00
  SP3d  TX2h  1 3.660000e-01    1.600000e+00
  SP2d  TX2h  1 3.660000e-01    1.600000e+00
  SP1d  TX2h  1 3.660000e-01    1.600000e+00
  SN6d  TX2h  1 3.660000e-01    1.600000e+00
  SN5d  TX2h  1 3.650000e-01    1.750000e+00
  SN4d  TX2h  1 3.650000e-01    1.750000e+00
  SN3d  TX2h  1 3.650000e-01    1.750000e+00
  SN2d  TX2h  1 3.650000e-01    1.750000e+00
  SN1d  TX2h  1 3.650000e-01    1.750000e+00
  SP6a  TX2h  1 3.780000e-01    1.450000e+00
  SP5a  TX2h  1 3.660000e-01    1.600000e+00
  SP4a  TX2h  1 3.660000e-01    1.600000e+00
  SP3a  TX2h  1 3.660000e-01    1.600000e+00
  SP2a  TX2h  1 3.660000e-01    1.600000e+00
  SP1a  TX2h  1 3.660000e-01    1.600000e+00
  SN6a  TX2h  1 3.660000e-01    1.600000e+00
  SN5a  TX2h  1 3.650000e-01    1.750000e+00
  SN4a  TX2h  1 3.650000e-01    1.750000e+00
  SN3a  TX2h  1 3.650000e-01    1.750000e+00
  SN2a  TX2h  1 3.650000e-01    1.750000e+00
  SN1a  TX2h  1 3.650000e-01    1.750000e+00
  SC6v  TX2h  1 3.650000e-01    2.110000e+00
  SC5v  TX2h  1 3.650000e-01    1.910000e+00
  SC4v  TX2h  1 3.650000e-01    1.910000e+00
  SC3v  TX2h  1 3.650000e-01    1.910000e+00
  SC2v  TX2h  1 3.650000e-01    1.910000e+00
  SC1v  TX2h  1 3.650000e-01    1.910000e+00
  SX4v  TX2h  1 3.650000e-01    2.110000e+00
  SX3v  TX2h  1 3.650000e-01    2.340000e+00
  SX2h  TX2v  1 3.650000e-01    2.340000e+00
  SX2h  TX1v  1 3.650000e-01    2.340000e+00
  SC6e  TX2h  1 3.650000e-01    2.110000e+00
  SC5e  TX2h  1 3.650000e-01    1.910000e+00
  SC4e  TX2h  1 3.650000e-01    1.910000e+00
  SC3e  TX2h  1 3.650000e-01    1.910000e+00
  SC2e  TX2h  1 3.650000e-01    1.910000e+00
  SC1e  TX2h  1 3.650000e-01    1.910000e+00
  SX4e  TX2h  1 3.650000e-01    2.110000e+00
  SX3e  TX2h  1 3.650000e-01    2.340000e+00
  SX2h  TX2e  1 3.650000e-01    2.340000e+00
  SX2h  TX1e  1 3.650000e-01    2.340000e+00
  SP6q  TX2h  1 3.650000e-01    1.750000e+00
  SP5q  TX2h  1 3.650000e-01    1.910000e+00
  SP4q  TX2h  1 3.650000e-01    1.910000e+00
  SP3q  TX2h  1 3.650000e-01    1.910000e+00
  SP2q  TX2h  1 3.650000e-01    1.910000e+00
  SP1q  TX2h  1 3.650000e-01    1.910000e+00
  SN6q  TX2h  1 3.650000e-01    1.910000e+00
  SN5q  TX2h  1 3.650000e-01    2.110000e+00
  SN4q  TX2h  1 3.650000e-01    2.110000e+00
  SN3q  TX2h  1 3.650000e-01    2.110000e+00
  SN2q  TX2h  1 3.650000e-01    2.110000e+00
  SN1q  TX2h  1 3.650000e-01    2.110000e+00
  SC6q  TX2h  1 3.650000e-01    2.340000e+00
  SC5q  TX2h  1 3.650000e-01    2.110000e+00
  SC4q  TX2h  1 3.650000e-01    2.110000e+00
  SC3q  TX2h  1 3.650000e-01    2.110000e+00
  SC2q  TX2h  1 3.650000e-01    2.110000e+00
  SC1q  TX2h  1 3.650000e-01    2.110000e+00
  SX4q  TX2h  1 3.650000e-01    2.340000e+00
  SX3q  TX2h  1 3.650000e-01    2.570000e+00
  SX2h  TX2q  1 3.650000e-01    2.570000e+00
  SX2h  TX1q  1 3.650000e-01    2.570000e+00
  SP6d  TX1h  1 3.940000e-01    1.290000e+00
  SP5d  TX1h  1 3.940000e-01    1.290000e+00
  SP4d  TX1h  1 3.780000e-01    1.450000e+00
  SP3d  TX1h  1 3.780000e-01    1.450000e+00
  SP2d  TX1h  1 3.780000e-01    1.450000e+00
  SP1d  TX1h  1 3.780000e-01    1.450000e+00
  SN6d  TX1h  1 3.780000e-01    1.450000e+00
  SN5d  TX1h  1 3.660000e-01    1.600000e+00
  SN4d  TX1h  1 3.660000e-01    1.600000e+00
  SN3d  TX1h  1 3.650000e-01    1.750000e+00
  SN2d  TX1h  1 3.650000e-01    1.750000e+00
  SN1d  TX1h  1 3.650000e-01    1.750000e+00
  SP6a  TX1h  1 3.940000e-01    1.290000e+00
  SP5a  TX1h  1 3.940000e-01    1.290000e+00
  SP4a  TX1h  1 3.780000e-01    1.450000e+00
  SP3a  TX1h  1 3.780000e-01    1.450000e+00
  SP2a  TX1h  1 3.780000e-01    1.450000e+00
  SP1a  TX1h  1 3.780000e-01    1.450000e+00
  SN6a  TX1h  1 3.780000e-01    1.450000e+00
  SN5a  TX1h  1 3.660000e-01    1.600000e+00
  SN4a  TX1h  1 3.660000e-01    1.600000e+00
  SN3a  TX1h  1 3.650000e-01    1.750000e+00
  SN2a  TX1h  1 3.650000e-01    1.750000e+00
  SN1a  TX1h  1 3.650000e-01    1.750000e+00
  SC6v  TX1h  1 3.650000e-01    2.110000e+00
  SC5v  TX1h  1 3.650000e-01    2.110000e+00
  SC4v  TX1h  1 3.650000e-01    2.110000e+00
  SC3v  TX1h  1 3.650000e-01    2.110000e+00
  SC2v  TX1h  1 3.650000e-01    1.910000e+00
  SC1v  TX1h  1 3.650000e-01    1.910000e+00
  SX4v  TX1h  1 3.650000e-01    2.110000e+00
  SX3v  TX1h  1 3.650000e-01    2.340000e+00
  SX2v  TX1h  1 3.650000e-01    2.340000e+00
  SX1h  TX1v  1 3.650000e-01    2.570000e+00
  SC6e  TX1h  1 3.650000e-01    2.110000e+00
  SC5e  TX1h  1 3.650000e-01    2.110000e+00
  SC4e  TX1h  1 3.650000e-01    2.110000e+00
  SC3e  TX1h  1 3.650000e-01    2.110000e+00
  SC2e  TX1h  1 3.650000e-01    1.910000e+00
  SC1e  TX1h  1 3.650000e-01    1.910000e+00
  SX4e  TX1h  1 3.650000e-01    2.110000e+00
  SX3e  TX1h  1 3.650000e-01    2.340000e+00
  SX2e  TX1h  1 3.650000e-01    2.340000e+00
  SX1h  TX1e  1 3.650000e-01    2.570000e+00
  SP6q  TX1h  1 3.660000e-01    1.600000e+00
  SP5q  TX1h  1 3.660000e-01    1.600000e+00
  SP4q  TX1h  1 3.650000e-01    1.750000e+00
  SP3q  TX1h  1 3.650000e-01    1.750000e+00
  SP2q  TX1h  1 3.650000e-01    1.750000e+00
  SP1q  TX1h  1 3.650000e-01    1.750000e+00
  SN6q  TX1h  1 3.650000e-01    1.750000e+00
  SN5q  TX1h  1 3.650000e-01    1.910000e+00
  SN4q  TX1h  1 3.650000e-01    1.910000e+00
  SN3q  TX1h  1 3.650000e-01    2.110000e+00
  SN2q  TX1h  1 3.650000e-01    2.110000e+00
  SN1q  TX1h  1 3.650000e-01    2.110000e+00
  SC6q  TX1h  1 3.650000e-01    2.340000e+00
  SC5q  TX1h  1 3.650000e-01    2.340000e+00
  SC4q  TX1h  1 3.650000e-01    2.340000e+00
  SC3q  TX1h  1 3.650000e-01    2.340000e+00
  SC2q  TX1h  1 3.650000e-01    2.110000e+00
  SC1q  TX1h  1 3.650000e-01    2.110000e+00
  SX4q  TX1h  1 3.650000e-01    2.340000e+00
  SX3q  TX1h  1 3.650000e-01    2.570000e+00
  SX2q  TX1h  1 3.650000e-01    2.570000e+00
  SX1h  TX1q  1 3.650000e-01    2.830000e+00
 SP6dh TP6dq  1 3.650000e-01    4.220000e+00
 SP6dh TX1eq  1 3.650000e-01    1.750000e+00
 SP6dh TX2eq  1 3.650000e-01    1.910000e+00
 SP6dh TX3eq  1 3.650000e-01    2.110000e+00
 SP6dh TX4eq  1 3.650000e-01    2.110000e+00
 SP6dh TC1eq  1 4.040000e-01    1.130000e+00
 SP6dh TC2eq  1 3.780000e-01    1.450000e+00
 SP6dh TC3eq  1 3.780000e-01    1.450000e+00
 SP6dh TC4eq  1 3.660000e-01    1.600000e+00
 SP6dh TC5eq  1 3.650000e-01    1.750000e+00
 SP6dh TC6eq  1 3.650000e-01    1.910000e+00
 SP6dh TX1vq  1 3.780000e-01    1.450000e+00
 SP6dh TX2vq  1 3.660000e-01    1.600000e+00
 SP6dh TX3vq  1 3.650000e-01    1.750000e+00
 SP6dh TX4vq  1 3.650000e-01    1.750000e+00
 SP6dh TC1vq  1 4.230000e-01    9.810000e-01
 SP6dh TC2vq  1 4.040000e-01    1.130000e+00
 SP6dh TC3vq  1 4.040000e-01    1.130000e+00
 SP6dh TC4vq  1 3.940000e-01    1.290000e+00
 SP6dh TC5vq  1 3.780000e-01    1.450000e+00
 SP6dh TC6vq  1 3.660000e-01    1.600000e+00
 SP6dh TN1aq  1 3.650000e-01    1.750000e+00
 SP6dh TN2aq  1 3.650000e-01    1.910000e+00
 SP6dh TN3aq  1 3.650000e-01    2.110000e+00
 SP6dh TN4aq  1 3.650000e-01    2.570000e+00
 SP6dh TN5aq  1 3.650000e-01    2.830000e+00
 SP6dh TN6aq  1 3.650000e-01    3.370000e+00
 SP6dh TP1aq  1 3.650000e-01    3.640000e+00
 SP6dh TP2aq  1 3.650000e-01    3.930000e+00
 SP6dh TP3aq  1 3.650000e-01    3.930000e+00
 SP6dh TP4aq  1 3.650000e-01    4.220000e+00
 SP6dh TP5aq  1 3.650000e-01    4.510000e+00
 SP6dh TP6aq  1 3.650000e-01    4.860000e+00
 SP6dh TN1dq  1 3.650000e-01    1.750000e+00
 SP6dh TN2dq  1 3.650000e-01    1.910000e+00
 SP6dh TN3dq  1 3.650000e-01    2.110000e+00
 SP6dh TN4dq  1 3.650000e-01    2.110000e+00
 SP6dh TN5dq  1 3.650000e-01    2.340000e+00
 SP6dh TN6dq  1 3.650000e-01    2.830000e+00
 SP6dh TP1dq  1 3.650000e-01    3.100000e+00
 SP6dh TP2dq  1 3.650000e-01    3.370000e+00
 SP6dh TP3dq  1 3.650000e-01    3.370000e+00
 SP6dh TP4dq  1 3.650000e-01    3.640000e+00
 SP6dh TP5dq  1 3.650000e-01    3.930000e+00
 SP6dq TP5dh  1 3.650000e-01    3.930000e+00
 SP5dh TP5dq  1 3.650000e-01    3.640000e+00
 SP5dh TX1eq  1 3.650000e-01    1.750000e+00
 SP5dh TX2eq  1 3.650000e-01    2.110000e+00
 SP5dh TX3eq  1 3.650000e-01    2.110000e+00
 SP5dh TX4eq  1 3.650000e-01    2.340000e+00
 SP5dh TC1eq  1 3.780000e-01    1.450000e+00
 SP5dh TC2eq  1 3.660000e-01    1.600000e+00
 SP5dh TC3eq  1 3.660000e-01    1.600000e+00
 SP5dh TC4eq  1 3.650000e-01    1.750000e+00
 SP5dh TC5eq  1 3.650000e-01    1.910000e+00
 SP5dh TC6eq  1 3.650000e-01    1.910000e+00
 SP5dh TX1vq  1 3.780000e-01    1.450000e+00
 SP5dh TX2vq  1 3.650000e-01    1.750000e+00
 SP5dh TX3vq  1 3.650000e-01    1.750000e+00
 SP5dh TX4vq  1 3.650000e-01    1.910000e+00
 SP5dh TC1vq  1 4.040000e-01    1.130000e+00
 SP5dh TC2vq  1 3.940000e-01    1.290000e+00
 SP5dh TC3vq  1 3.940000e-01    1.290000e+00
 SP5dh TC4vq  1 3.780000e-01    1.450000e+00
 SP5dh TC5vq  1 3.660000e-01    1.600000e+00
 SP5dh TC6vq  1 3.660000e-01    1.600000e+00
 SP5dh TN1aq  1 3.650000e-01    1.750000e+00
 SP5dh TN2aq  1 3.650000e-01    1.910000e+00
 SP5dh TN3aq  1 3.650000e-01    2.110000e+00
 SP5dh TN4aq  1 3.650000e-01    2.830000e+00
 SP5dh TN5aq  1 3.650000e-01    2.830000e+00
 SP5dh TN6aq  1 3.650000e-01    3.100000e+00
 SP5dh TP1aq  1 3.650000e-01    3.370000e+00
 SP5dh TP2aq  1 3.650000e-01    3.640000e+00
 SP5dh TP3aq  1 3.650000e-01    3.640000e+00
 SP5dh TP4aq  1 3.650000e-01    3.930000e+00
 SP5dh TP5aq  1 3.650000e-01    4.220000e+00
 SP6aq TP5dh  1 3.650000e-01    4.510000e+00
 SP5dh TN1dq  1 3.650000e-01    1.750000e+00
 SP5dh TN2dq  1 3.650000e-01    1.910000e+00
 SP5dh TN3dq  1 3.650000e-01    2.110000e+00
 SP5dh TN4dq  1 3.650000e-01    2.340000e+00
 SP5dh TN5dq  1 3.650000e-01    2.340000e+00
 SP5dh TN6dq  1 3.650000e-01    2.570000e+00
 SP5dh TP1dq  1 3.650000e-01    2.830000e+00
 SP5dh TP2dq  1 3.650000e-01    3.100000e+00
 SP5dh TP3dq  1 3.650000e-01    3.100000e+00
 SP5dh TP4dq  1 3.650000e-01    3.370000e+00
 SP6dq TP4dh  1 3.650000e-01    3.640000e+00
 SP5dq TP4dh  1 3.650000e-01    3.370000e+00
 SP4dh TP4dq  1 3.650000e-01    3.370000e+00
 SP4dh TX1eq  1 3.650000e-01    1.910000e+00
 SP4dh TX2eq  1 3.650000e-01    2.110000e+00
 SP4dh TX3eq  1 3.650000e-01    2.110000e+00
 SP4dh TX4eq  1 3.650000e-01    2.340000e+00
 SP4dh TC1eq  1 3.780000e-01    1.450000e+00
 SP4dh TC2eq  1 3.660000e-01    1.600000e+00
 SP4dh TC3eq  1 3.660000e-01    1.600000e+00
 SP4dh TC4eq  1 3.650000e-01    1.750000e+00
 SP4dh TC5eq  1 3.650000e-01    1.910000e+00
 SP4dh TC6eq  1 3.650000e-01    2.110000e+00
 SP4dh TX1vq  1 3.660000e-01    1.600000e+00
 SP4dh TX2vq  1 3.650000e-01    1.750000e+00
 SP4dh TX3vq  1 3.650000e-01    1.750000e+00
 SP4dh TX4vq  1 3.650000e-01    1.910000e+00
 SP4dh TC1vq  1 4.040000e-01    1.130000e+00
 SP4dh TC2vq  1 3.940000e-01    1.290000e+00
 SP4dh TC3vq  1 3.940000e-01    1.290000e+00
 SP4dh TC4vq  1 3.780000e-01    1.450000e+00
 SP4dh TC5vq  1 3.660000e-01    1.600000e+00
 SP4dh TC6vq  1 3.650000e-01    1.750000e+00
 SP4dh TN1aq  1 3.650000e-01    1.910000e+00
 SP4dh TN2aq  1 3.650000e-01    2.110000e+00
 SP4dh TN3aq  1 3.650000e-01    2.570000e+00
 SP4dh TN4aq  1 3.650000e-01    2.830000e+00
 SP4dh TN5aq  1 3.650000e-01    2.830000e+00
 SP4dh TN6aq  1 3.650000e-01    3.100000e+00
 SP4dh TP1aq  1 3.650000e-01    3.370000e+00
 SP4dh TP2aq  1 3.650000e-01    3.640000e+00
 SP4dh TP3aq  1 3.650000e-01    3.640000e+00
 SP4dh TP4aq  1 3.650000e-01    3.930000e+00
 SP5aq TP4dh  1 3.650000e-01    3.930000e+00
 SP6aq TP4dh  1 3.650000e-01    4.220000e+00
 SP4dh TN1dq  1 3.650000e-01    1.910000e+00
 SP4dh TN2dq  1 3.650000e-01    2.110000e+00
 SP4dh TN3dq  1 3.650000e-01    2.110000e+00
 SP4dh TN4dq  1 3.650000e-01    2.340000e+00
 SP4dh TN5dq  1 3.650000e-01    2.340000e+00
 SP4dh TN6dq  1 3.650000e-01    2.570000e+00
 SP4dh TP1dq  1 3.650000e-01    2.830000e+00
 SP4dh TP2dq  1 3.650000e-01    3.100000e+00
 SP4dh TP3dq  1 3.650000e-01    3.100000e+00
 SP6dq TP3dh  1 3.650000e-01    3.370000e+00
 SP5dq TP3dh  1 3.650000e-01    3.100000e+00
 SP4dq TP3dh  1 3.650000e-01    3.100000e+00
 SP3dh TP3dq  1 3.650000e-01    3.100000e+00
 SP3dh TX1eq  1 3.650000e-01    1.910000e+00
 SP3dh TX2eq  1 3.650000e-01    2.110000e+00
 SP3dh TX3eq  1 3.650000e-01    2.340000e+00
 SP3dh TX4eq  1 3.650000e-01    2.340000e+00
 SP3dh TC1eq  1 3.780000e-01    1.450000e+00
 SP3dh TC2eq  1 3.660000e-01    1.600000e+00
 SP3dh TC3eq  1 3.660000e-01    1.600000e+00
 SP3dh TC4eq  1 3.650000e-01    1.910000e+00
 SP3dh TC5eq  1 3.650000e-01    2.110000e+00
 SP3dh TC6eq  1 3.650000e-01    2.340000e+00
 SP3dh TX1vq  1 3.660000e-01    1.600000e+00
 SP3dh TX2vq  1 3.650000e-01    1.750000e+00
 SP3dh TX3vq  1 3.650000e-01    1.910000e+00
 SP3dh TX4vq  1 3.650000e-01    1.910000e+00
 SP3dh TC1vq  1 4.040000e-01    1.130000e+00
 SP3dh TC2vq  1 3.940000e-01    1.290000e+00
 SP3dh TC3vq  1 3.940000e-01    1.290000e+00
 SP3dh TC4vq  1 3.660000e-01    1.600000e+00
 SP3dh TC5vq  1 3.650000e-01    1.750000e+00
 SP3dh TC6vq  1 3.650000e-01    1.910000e+00
 SP3dh TN1aq  1 3.650000e-01    2.110000e+00
 SP3dh TN2aq  1 3.650000e-01    2.570000e+00
 SP3dh TN3aq  1 3.650000e-01    2.570000e+00
 SP3dh TN4aq  1 3.650000e-01    2.830000e+00
 SP3dh TN5aq  1 3.650000e-01    2.830000e+00
 SP3dh TN6aq  1 3.650000e-01    3.100000e+00
 SP3dh TP1aq  1 3.650000e-01    3.370000e+00
 SP3dh TP2aq  1 3.650000e-01    3.640000e+00
 SP3dh TP3aq  1 3.650000e-01    3.640000e+00
 SP4aq TP3dh  1 3.650000e-01    3.640000e+00
 SP5aq TP3dh  1 3.650000e-01    3.640000e+00
 SP6aq TP3dh  1 3.650000e-01    3.930000e+00
 SP3dh TN1dq  1 3.650000e-01    2.110000e+00
 SP3dh TN2dq  1 3.650000e-01    2.110000e+00
 SP3dh TN3dq  1 3.650000e-01    2.110000e+00
 SP3dh TN4dq  1 3.650000e-01    2.340000e+00
 SP3dh TN5dq  1 3.650000e-01    2.340000e+00
 SP3dh TN6dq  1 3.650000e-01    2.570000e+00
 SP3dh TP1dq  1 3.650000e-01    2.830000e+00
 SP3dh TP2dq  1 3.650000e-01    3.100000e+00
 SP6dq TP2dh  1 3.650000e-01    3.370000e+00
 SP5dq TP2dh  1 3.650000e-01    3.100000e+00
 SP4dq TP2dh  1 3.650000e-01    3.100000e+00
 SP3dq TP2dh  1 3.650000e-01    3.100000e+00
 SP2dh TP2dq  1 3.650000e-01    3.100000e+00
 SP2dh TX1eq  1 3.650000e-01    1.910000e+00
 SP2dh TX2eq  1 3.650000e-01    2.110000e+00
 SP2dh TX3eq  1 3.650000e-01    2.340000e+00
 SP2dh TX4eq  1 3.650000e-01    2.340000e+00
 SP2dh TC1eq  1 3.660000e-01    1.600000e+00
 SP2dh TC2eq  1 3.650000e-01    1.750000e+00
 SP2dh TC3eq  1 3.650000e-01    1.750000e+00
 SP2dh TC4eq  1 3.650000e-01    1.910000e+00
 SP2dh TC5eq  1 3.650000e-01    2.110000e+00
 SP2dh TC6eq  1 3.650000e-01    2.340000e+00
 SP2dh TX1vq  1 3.660000e-01    1.600000e+00
 SP2dh TX2vq  1 3.650000e-01    1.750000e+00
 SP2dh TX3vq  1 3.650000e-01    1.910000e+00
 SP2dh TX4vq  1 3.650000e-01    1.910000e+00
 SP2dh TC1vq  1 3.940000e-01    1.290000e+00
 SP2dh TC2vq  1 3.780000e-01    1.450000e+00
 SP2dh TC3vq  1 3.780000e-01    1.450000e+00
 SP2dh TC4vq  1 3.660000e-01    1.600000e+00
 SP2dh TC5vq  1 3.650000e-01    1.750000e+00
 SP2dh TC6vq  1 3.650000e-01    1.910000e+00
 SP2dh TN1aq  1 3.650000e-01    2.570000e+00
 SP2dh TN2aq  1 3.650000e-01    2.570000e+00
 SP2dh TN3aq  1 3.650000e-01    2.570000e+00
 SP2dh TN4aq  1 3.650000e-01    2.830000e+00
 SP2dh TN5aq  1 3.650000e-01    3.100000e+00
 SP2dh TN6aq  1 3.650000e-01    3.370000e+00
 SP2dh TP1aq  1 3.650000e-01    3.370000e+00
 SP2dh TP2aq  1 3.650000e-01    3.640000e+00
 SP3aq TP2dh  1 3.650000e-01    3.640000e+00
 SP4aq TP2dh  1 3.650000e-01    3.640000e+00
 SP5aq TP2dh  1 3.650000e-01    3.640000e+00
 SP6aq TP2dh  1 3.650000e-01    3.930000e+00
 SP2dh TN1dq  1 3.650000e-01    2.110000e+00
 SP2dh TN2dq  1 3.650000e-01    2.110000e+00
 SP2dh TN3dq  1 3.650000e-01    2.110000e+00
 SP2dh TN4dq  1 3.650000e-01    2.340000e+00
 SP2dh TN5dq  1 3.650000e-01    2.570000e+00
 SP2dh TN6dq  1 3.650000e-01    2.830000e+00
 SP2dh TP1dq  1 3.650000e-01    2.830000e+00
 SP6dq TP1dh  1 3.650000e-01    3.100000e+00
 SP5dq TP1dh  1 3.650000e-01    2.830000e+00
 SP4dq TP1dh  1 3.650000e-01    2.830000e+00
 SP3dq TP1dh  1 3.650000e-01    2.830000e+00
 SP2dq TP1dh  1 3.650000e-01    2.830000e+00
 SP1dh TP1dq  1 3.650000e-01    2.830000e+00
 SP1dh TX1eq  1 3.650000e-01    1.910000e+00
 SP1dh TX2eq  1 3.650000e-01    2.110000e+00
 SP1dh TX3eq  1 3.650000e-01    2.340000e+00
 SP1dh TX4eq  1 3.650000e-01    2.340000e+00
 SP1dh TC1eq  1 3.660000e-01    1.600000e+00
 SP1dh TC2eq  1 3.650000e-01    1.750000e+00
 SP1dh TC3eq  1 3.650000e-01    1.750000e+00
 SP1dh TC4eq  1 3.650000e-01    1.910000e+00
 SP1dh TC5eq  1 3.650000e-01    2.110000e+00
 SP1dh TC6eq  1 3.650000e-01    2.340000e+00
 SP1dh TX1vq  1 3.660000e-01    1.600000e+00
 SP1dh TX2vq  1 3.650000e-01    1.750000e+00
 SP1dh TX3vq  1 3.650000e-01    1.910000e+00
 SP1dh TX4vq  1 3.650000e-01    1.910000e+00
 SP1dh TC1vq  1 3.940000e-01    1.290000e+00
 SP1dh TC2vq  1 3.780000e-01    1.450000e+00
 SP1dh TC3vq  1 3.780000e-01    1.450000e+00
 SP1dh TC4vq  1 3.660000e-01    1.600000e+00
 SP1dh TC5vq  1 3.650000e-01    1.750000e+00
 SP1dh TC6vq  1 3.650000e-01    1.910000e+00
 SP1dh TN1aq  1 3.650000e-01    2.570000e+00
 SP1dh TN2aq  1 3.650000e-01    2.570000e+00
 SP1dh TN3aq  1 3.650000e-01    2.570000e+00
 SP1dh TN4aq  1 3.650000e-01    3.100000e+00
 SP1dh TN5aq  1 3.650000e-01    3.100000e+00
 SP1dh TN6aq  1 3.650000e-01    3.370000e+00
 SP1dh TP1aq  1 3.650000e-01    3.370000e+00
 SP2aq TP1dh  1 3.650000e-01    3.370000e+00
 SP3aq TP1dh  1 3.650000e-01    3.370000e+00
 SP4aq TP1dh  1 3.650000e-01    3.370000e+00
 SP5aq TP1dh  1 3.650000e-01    3.370000e+00
 SP6aq TP1dh  1 3.650000e-01    3.640000e+00
 SP1dh TN1dq  1 3.650000e-01    2.110000e+00
 SP1dh TN2dq  1 3.650000e-01    2.110000e+00
 SP1dh TN3dq  1 3.650000e-01    2.110000e+00
 SP1dh TN4dq  1 3.650000e-01    2.570000e+00
 SP1dh TN5dq  1 3.650000e-01    2.570000e+00
 SP1dh TN6dq  1 3.650000e-01    2.830000e+00
 SP6dq TN6dh  1 3.650000e-01    2.830000e+00
 SP5dq TN6dh  1 3.650000e-01    2.570000e+00
 SP4dq TN6dh  1 3.650000e-01    2.570000e+00
 SP3dq TN6dh  1 3.650000e-01    2.570000e+00
 SP2dq TN6dh  1 3.650000e-01    2.830000e+00
 SP1dq TN6dh  1 3.650000e-01    2.830000e+00
 SN6dh TN6dq  1 3.650000e-01    2.830000e+00
 SN6dh TX1eq  1 3.650000e-01    1.910000e+00
 SN6dh TX2eq  1 3.650000e-01    2.110000e+00
 SN6dh TX3eq  1 3.650000e-01    2.340000e+00
 SN6dh TX4eq  1 3.650000e-01    2.570000e+00
 SN6dh TC1eq  1 3.650000e-01    1.750000e+00
 SN6dh TC2eq  1 3.650000e-01    1.910000e+00
 SN6dh TC3eq  1 3.650000e-01    1.910000e+00
 SN6dh TC4eq  1 3.650000e-01    2.110000e+00
 SN6dh TC5eq  1 3.650000e-01    2.340000e+00
 SN6dh TC6eq  1 3.650000e-01    2.570000e+00
 SN6dh TX1vq  1 3.660000e-01    1.600000e+00
 SN6dh TX2vq  1 3.650000e-01    1.750000e+00
 SN6dh TX3vq  1 3.650000e-01    1.910000e+00
 SN6dh TX4vq  1 3.650000e-01    2.110000e+00
 SN6dh TC1vq  1 3.780000e-01    1.450000e+00
 SN6dh TC2vq  1 3.660000e-01    1.600000e+00
 SN6dh TC3vq  1 3.660000e-01    1.600000e+00
 SN6dh TC4vq  1 3.650000e-01    1.750000e+00
 SN6dh TC5vq  1 3.650000e-01    1.910000e+00
 SN6dh TC6vq  1 3.650000e-01    2.110000e+00
 SN6dh TN1aq  1 3.650000e-01    2.570000e+00
 SN6dh TN2aq  1 3.650000e-01    2.570000e+00
 SN6dh TN3aq  1 3.650000e-01    2.830000e+00
 SN6dh TN4aq  1 3.650000e-01    3.370000e+00
 SN6dh TN5aq  1 3.650000e-01    3.370000e+00
 SN6dh TN6aq  1 3.650000e-01    3.370000e+00
 SP1aq TN6dh  1 3.650000e-01    3.370000e+00
 SP2aq TN6dh  1 3.650000e-01    3.370000e+00
 SP3aq TN6dh  1 3.650000e-01    3.100000e+00
 SP4aq TN6dh  1 3.650000e-01    3.100000e+00
 SP5aq TN6dh  1 3.650000e-01    3.100000e+00
 SP6aq TN6dh  1 3.650000e-01    3.370000e+00
 SN6dh TN1dq  1 3.650000e-01    2.110000e+00
 SN6dh TN2dq  1 3.650000e-01    2.110000e+00
 SN6dh TN3dq  1 3.650000e-01    2.340000e+00
 SN6dh TN4dq  1 3.650000e-01    2.830000e+00
 SN6dh TN5dq  1 3.650000e-01    2.830000e+00
 SP6dq TN5dh  1 3.650000e-01    2.340000e+00
 SP5dq TN5dh  1 3.650000e-01    2.340000e+00
 SP4dq TN5dh  1 3.650000e-01    2.340000e+00
 SP3dq TN5dh  1 3.650000e-01    2.340000e+00
 SP2dq TN5dh  1 3.650000e-01    2.570000e+00
 SP1dq TN5dh  1 3.650000e-01    2.570000e+00
 SN6dq TN5dh  1 3.650000e-01    2.830000e+00
 SN5dh TN5dq  1 3.650000e-01    2.570000e+00
 SN5dh TX1eq  1 3.650000e-01    2.110000e+00
 SN5dh TX2eq  1 3.650000e-01    2.340000e+00
 SN5dh TX3eq  1 3.650000e-01    2.570000e+00
 SN5dh TX4eq  1 3.650000e-01    2.830000e+00
 SN5dh TC1eq  1 3.650000e-01    1.750000e+00
 SN5dh TC2eq  1 3.650000e-01    1.910000e+00
 SN5dh TC3eq  1 3.650000e-01    2.110000e+00
 SN5dh TC4eq  1 3.650000e-01    2.110000e+00
 SN5dh TC5eq  1 3.650000e-01    2.340000e+00
 SN5dh TC6eq  1 3.650000e-01    2.570000e+00
 SN5dh TX1vq  1 3.650000e-01    1.750000e+00
 SN5dh TX2vq  1 3.650000e-01    1.910000e+00
 SN5dh TX3vq  1 3.650000e-01    2.110000e+00
 SN5dh TX4vq  1 3.650000e-01    2.340000e+00
 SN5dh TC1vq  1 3.780000e-01    1.450000e+00
 SN5dh TC2vq  1 3.660000e-01    1.600000e+00
 SN5dh TC3vq  1 3.650000e-01    1.750000e+00
 SN5dh TC4vq  1 3.650000e-01    1.750000e+00
 SN5dh TC5vq  1 3.650000e-01    1.910000e+00
 SN5dh TC6vq  1 3.650000e-01    2.110000e+00
 SN5dh TN1aq  1 3.650000e-01    2.570000e+00
 SN5dh TN2aq  1 3.650000e-01    2.830000e+00
 SN5dh TN3aq  1 3.650000e-01    2.830000e+00
 SN5dh TN4aq  1 3.650000e-01    3.100000e+00
 SN5dh TN5aq  1 3.650000e-01    3.100000e+00
 SN6aq TN5dh  1 3.650000e-01    3.370000e+00
 SP1aq TN5dh  1 3.650000e-01    3.100000e+00
 SP2aq TN5dh  1 3.650000e-01    3.100000e+00
 SP3aq TN5dh  1 3.650000e-01    2.830000e+00
 SP4aq TN5dh  1 3.650000e-01    2.830000e+00
 SP5aq TN5dh  1 3.650000e-01    2.830000e+00
 SP6aq TN5dh  1 3.650000e-01    2.830000e+00
 SN5dh TN1dq  1 3.650000e-01    2.110000e+00
 SN5dh TN2dq  1 3.650000e-01    2.340000e+00
 SN5dh TN3dq  1 3.650000e-01    2.340000e+00
 SN5dh TN4dq  1 3.650000e-01    2.570000e+00
 SP6dq TN4dh  1 3.650000e-01    2.110000e+00
 SP5dq TN4dh  1 3.650000e-01    2.340000e+00
 SP4dq TN4dh  1 3.650000e-01    2.340000e+00
 SP3dq TN4dh  1 3.650000e-01    2.340000e+00
 SP2dq TN4dh  1 3.650000e-01    2.340000e+00
 SP1dq TN4dh  1 3.650000e-01    2.570000e+00
 SN6dq TN4dh  1 3.650000e-01    2.830000e+00
 SN5dq TN4dh  1 3.650000e-01    2.570000e+00
 SN4dh TN4dq  1 3.650000e-01    2.570000e+00
 SN4dh TX1eq  1 3.650000e-01    2.110000e+00
 SN4dh TX2eq  1 3.650000e-01    2.340000e+00
 SN4dh TX3eq  1 3.650000e-01    2.830000e+00
 SN4dh TX4eq  1 3.650000e-01    3.100000e+00
 SN4dh TC1eq  1 3.650000e-01    1.750000e+00
 SN4dh TC2eq  1 3.650000e-01    1.910000e+00
 SN4dh TC3eq  1 3.650000e-01    2.110000e+00
 SN4dh TC4eq  1 3.650000e-01    2.340000e+00
 SN4dh TC5eq  1 3.650000e-01    2.340000e+00
 SN4dh TC6eq  1 3.650000e-01    2.570000e+00
 SN4dh TX1vq  1 3.650000e-01    1.750000e+00
 SN4dh TX2vq  1 3.650000e-01    1.910000e+00
 SN4dh TX3vq  1 3.650000e-01    2.340000e+00
 SN4dh TX4vq  1 3.650000e-01    2.570000e+00
 SN4dh TC1vq  1 3.780000e-01    1.450000e+00
 SN4dh TC2vq  1 3.660000e-01    1.600000e+00
 SN4dh TC3vq  1 3.650000e-01    1.750000e+00
 SN4dh TC4vq  1 3.650000e-01    1.910000e+00
 SN4dh TC5vq  1 3.650000e-01    1.910000e+00
 SN4dh TC6vq  1 3.650000e-01    2.110000e+00
 SN4dh TN1aq  1 3.650000e-01    2.570000e+00
 SN4dh TN2aq  1 3.650000e-01    2.830000e+00
 SN4dh TN3aq  1 3.650000e-01    2.830000e+00
 SN4dh TN4aq  1 3.650000e-01    3.100000e+00
 SN5aq TN4dh  1 3.650000e-01    3.100000e+00
 SN6aq TN4dh  1 3.650000e-01    3.370000e+00
 SP1aq TN4dh  1 3.650000e-01    3.100000e+00
 SP2aq TN4dh  1 3.650000e-01    2.830000e+00
 SP3aq TN4dh  1 3.650000e-01    2.830000e+00
 SP4aq TN4dh  1 3.650000e-01    2.830000e+00
 SP5aq TN4dh  1 3.650000e-01    2.830000e+00
 SP6aq TN4dh  1 3.650000e-01    2.570000e+00
 SN4dh TN1dq  1 3.650000e-01    2.110000e+00
 SN4dh TN2dq  1 3.650000e-01    2.340000e+00
 SN4dh TN3dq  1 3.650000e-01    2.340000e+00
 SP6dq TN3dh  1 3.650000e-01    2.110000e+00
 SP5dq TN3dh  1 3.650000e-01    2.110000e+00
 SP4dq TN3dh  1 3.650000e-01    2.110000e+00
 SP3dq TN3dh  1 3.650000e-01    2.110000e+00
 SP2dq TN3dh  1 3.650000e-01    2.110000e+00
 SP1dq TN3dh  1 3.650000e-01    2.110000e+00
 SN6dq TN3dh  1 3.650000e-01    2.340000e+00
 SN5dq TN3dh  1 3.650000e-01    2.340000e+00
 SN4dq TN3dh  1 3.650000e-01    2.340000e+00
 SN3dh TN3dq  1 3.650000e-01    2.340000e+00
 SN3dh TX1eq  1 3.650000e-01    2.340000e+00
 SN3dh TX2eq  1 3.650000e-01    2.340000e+00
 SN3dh TX3eq  1 3.650000e-01    2.570000e+00
 SN3dh TX4eq  1 3.650000e-01    2.830000e+00
 SN3dh TC1eq  1 3.650000e-01    1.910000e+00
 SN3dh TC2eq  1 3.650000e-01    2.110000e+00
 SN3dh TC3eq  1 3.650000e-01    2.110000e+00
 SN3dh TC4eq  1 3.650000e-01    2.340000e+00
 SN3dh TC5eq  1 3.650000e-01    2.340000e+00
 SN3dh TC6eq  1 3.650000e-01    2.570000e+00
 SN3dh TX1vq  1 3.650000e-01    1.910000e+00
 SN3dh TX2vq  1 3.650000e-01    1.910000e+00
 SN3dh TX3vq  1 3.650000e-01    2.110000e+00
 SN3dh TX4vq  1 3.650000e-01    2.340000e+00
 SN3dh TC1vq  1 3.660000e-01    1.600000e+00
 SN3dh TC2vq  1 3.650000e-01    1.750000e+00
 SN3dh TC3vq  1 3.650000e-01    1.750000e+00
 SN3dh TC4vq  1 3.650000e-01    1.910000e+00
 SN3dh TC5vq  1 3.650000e-01    1.910000e+00
 SN3dh TC6vq  1 3.650000e-01    2.110000e+00
 SN3dh TN1aq  1 3.650000e-01    2.570000e+00
 SN3dh TN2aq  1 3.650000e-01    2.830000e+00
 SN3dh TN3aq  1 3.650000e-01    2.830000e+00
 SN4aq TN3dh  1 3.650000e-01    2.830000e+00
 SN5aq TN3dh  1 3.650000e-01    2.830000e+00
 SN6aq TN3dh  1 3.650000e-01    2.830000e+00
 SP1aq TN3dh  1 3.650000e-01    2.570000e+00
 SP2aq TN3dh  1 3.650000e-01    2.570000e+00
 SP3aq TN3dh  1 3.650000e-01    2.570000e+00
 SP4aq TN3dh  1 3.650000e-01    2.570000e+00
 SP5aq TN3dh  1 3.650000e-01    2.110000e+00
 SP6aq TN3dh  1 3.650000e-01    2.110000e+00
 SN3dh TN1dq  1 3.650000e-01    2.110000e+00
 SN3dh TN2dq  1 3.650000e-01    2.340000e+00
 SP6dq TN2dh  1 3.650000e-01    1.910000e+00
 SP5dq TN2dh  1 3.650000e-01    1.910000e+00
 SP4dq TN2dh  1 3.650000e-01    2.110000e+00
 SP3dq TN2dh  1 3.650000e-01    2.110000e+00
 SP2dq TN2dh  1 3.650000e-01    2.110000e+00
 SP1dq TN2dh  1 3.650000e-01    2.110000e+00
 SN6dq TN2dh  1 3.650000e-01    2.110000e+00
 SN5dq TN2dh  1 3.650000e-01    2.340000e+00
 SN4dq TN2dh  1 3.650000e-01    2.340000e+00
 SN3dq TN2dh  1 3.650000e-01    2.340000e+00
 SN2dh TN2dq  1 3.650000e-01    2.340000e+00
 SN2dh TX1eq  1 3.650000e-01    2.340000e+00
 SN2dh TX2eq  1 3.650000e-01    2.340000e+00
 SN2dh TX3eq  1 3.650000e-01    2.570000e+00
 SN2dh TX4eq  1 3.650000e-01    2.830000e+00
 SN2dh TC1eq  1 3.650000e-01    1.910000e+00
 SN2dh TC2eq  1 3.650000e-01    2.110000e+00
 SN2dh TC3eq  1 3.650000e-01    2.340000e+00
 SN2dh TC4eq  1 3.650000e-01    2.340000e+00
 SN2dh TC5eq  1 3.650000e-01    2.340000e+00
 SN2dh TC6eq  1 3.650000e-01    2.570000e+00
 SN2dh TX1vq  1 3.650000e-01    1.910000e+00
 SN2dh TX2vq  1 3.650000e-01    1.910000e+00
 SN2dh TX3vq  1 3.650000e-01    2.110000e+00
 SN2dh TX4vq  1 3.650000e-01    2.340000e+00
 SN2dh TC1vq  1 3.660000e-01    1.600000e+00
 SN2dh TC2vq  1 3.650000e-01    1.750000e+00
 SN2dh TC3vq  1 3.650000e-01    1.910000e+00
 SN2dh TC4vq  1 3.650000e-01    1.910000e+00
 SN2dh TC5vq  1 3.650000e-01    1.910000e+00
 SN2dh TC6vq  1 3.650000e-01    2.110000e+00
 SN2dh TN1aq  1 3.650000e-01    2.570000e+00
 SN2dh TN2aq  1 3.650000e-01    2.830000e+00
 SN3aq TN2dh  1 3.650000e-01    2.830000e+00
 SN4aq TN2dh  1 3.650000e-01    2.830000e+00
 SN5aq TN2dh  1 3.650000e-01    2.830000e+00
 SN6aq TN2dh  1 3.650000e-01    2.570000e+00
 SP1aq TN2dh  1 3.650000e-01    2.570000e+00
 SP2aq TN2dh  1 3.650000e-01    2.570000e+00
 SP3aq TN2dh  1 3.650000e-01    2.570000e+00
 SP4aq TN2dh  1 3.650000e-01    2.110000e+00
 SP5aq TN2dh  1 3.650000e-01    1.910000e+00
 SP6aq TN2dh  1 3.650000e-01    1.910000e+00
 SN2dh TN1dq  1 3.650000e-01    2.110000e+00
 SP6dq TN1dh  1 3.650000e-01    1.750000e+00
 SP5dq TN1dh  1 3.650000e-01    1.750000e+00
 SP4dq TN1dh  1 3.650000e-01    1.910000e+00
 SP3dq TN1dh  1 3.650000e-01    2.110000e+00
 SP2dq TN1dh  1 3.650000e-01    2.110000e+00
 SP1dq TN1dh  1 3.650000e-01    2.110000e+00
 SN6dq TN1dh  1 3.650000e-01    2.110000e+00
 SN5dq TN1dh  1 3.650000e-01    2.110000e+00
 SN4dq TN1dh  1 3.650000e-01    2.110000e+00
 SN3dq TN1dh  1 3.650000e-01    2.110000e+00
 SN2dq TN1dh  1 3.650000e-01    2.110000e+00
 SN1dh TN1dq  1 3.650000e-01    2.340000e+00
 SN1dh TX1eq  1 3.650000e-01    2.340000e+00
 SN1dh TX2eq  1 3.650000e-01    2.340000e+00
 SN1dh TX3eq  1 3.650000e-01    2.570000e+00
 SN1dh TX4eq  1 3.650000e-01    2.570000e+00
 SN1dh TC1eq  1 3.650000e-01    1.910000e+00
 SN1dh TC2eq  1 3.650000e-01    2.110000e+00
 SN1dh TC3eq  1 3.650000e-01    2.340000e+00
 SN1dh TC4eq  1 3.650000e-01    2.570000e+00
 SN1dh TC5eq  1 3.650000e-01    2.570000e+00
 SN1dh TC6eq  1 3.650000e-01    2.830000e+00
 SN1dh TX1vq  1 3.650000e-01    1.910000e+00
 SN1dh TX2vq  1 3.650000e-01    1.910000e+00
 SN1dh TX3vq  1 3.650000e-01    2.110000e+00
 SN1dh TX4vq  1 3.650000e-01    2.110000e+00
 SN1dh TC1vq  1 3.660000e-01    1.600000e+00
 SN1dh TC2vq  1 3.650000e-01    1.750000e+00
 SN1dh TC3vq  1 3.650000e-01    1.910000e+00
 SN1dh TC4vq  1 3.650000e-01    2.110000e+00
 SN1dh TC5vq  1 3.650000e-01    2.110000e+00
 SN1dh TC6vq  1 3.650000e-01    2.340000e+00
 SN1dh TN1aq  1 3.650000e-01    2.830000e+00
 SN2aq TN1dh  1 3.650000e-01    2.570000e+00
 SN3aq TN1dh  1 3.650000e-01    2.570000e+00
 SN4aq TN1dh  1 3.650000e-01    2.570000e+00
 SN5aq TN1dh  1 3.650000e-01    2.570000e+00
 SN6aq TN1dh  1 3.650000e-01    2.570000e+00
 SP1aq TN1dh  1 3.650000e-01    2.570000e+00
 SP2aq TN1dh  1 3.650000e-01    2.570000e+00
 SP3aq TN1dh  1 3.650000e-01    2.110000e+00
 SP4aq TN1dh  1 3.650000e-01    1.910000e+00
 SP5aq TN1dh  1 3.650000e-01    1.750000e+00
 SP6aq TN1dh  1 3.650000e-01    1.750000e+00
 SP6dq TP6ah  1 3.650000e-01    4.860000e+00
 SP6ah TP5dq  1 3.650000e-01    4.510000e+00
 SP6ah TP4dq  1 3.650000e-01    4.220000e+00
 SP6ah TP3dq  1 3.650000e-01    3.930000e+00
 SP6ah TP2dq  1 3.650000e-01    3.930000e+00
 SP6ah TP1dq  1 3.650000e-01    3.640000e+00
 SP6ah TN6dq  1 3.650000e-01    3.370000e+00
 SP6ah TN5dq  1 3.650000e-01    2.830000e+00
 SP6ah TN4dq  1 3.650000e-01    2.570000e+00
 SP6ah TN3dq  1 3.650000e-01    2.110000e+00
 SP6ah TN2dq  1 3.650000e-01    1.910000e+00
 SP6ah TN1dq  1 3.650000e-01    1.750000e+00
 SP6ah TP6aq  1 3.650000e-01    4.220000e+00
 SP6ah TX1eq  1 3.780000e-01    1.450000e+00
 SP6ah TX2eq  1 3.660000e-01    1.600000e+00
 SP6ah TX3eq  1 3.650000e-01    1.750000e+00
 SP6ah TX4eq  1 3.650000e-01    1.750000e+00
 SP6ah TC1eq  1 4.230000e-01    9.810000e-01
 SP6ah TC2eq  1 4.040000e-01    1.130000e+00
 SP6ah TC3eq  1 4.040000e-01    1.130000e+00
 SP6ah TC4eq  1 3.940000e-01    1.290000e+00
 SP6ah TC5eq  1 3.780000e-01    1.450000e+00
 SP6ah TC6eq  1 3.660000e-01    1.600000e+00
 SP6ah TX1vq  1 3.650000e-01    1.750000e+00
 SP6ah TX2vq  1 3.650000e-01    1.910000e+00
 SP6ah TX3vq  1 3.650000e-01    2.110000e+00
 SP6ah TX4vq  1 3.650000e-01    2.110000e+00
 SP6ah TC1vq  1 4.040000e-01    1.130000e+00
 SP6ah TC2vq  1 3.780000e-01    1.450000e+00
 SP6ah TC3vq  1 3.780000e-01    1.450000e+00
 SP6ah TC4vq  1 3.660000e-01    1.600000e+00
 SP6ah TC5vq  1 3.650000e-01    1.750000e+00
 SP6ah TC6vq  1 3.650000e-01    1.910000e+00
 SP6ah TN1aq  1 3.650000e-01    1.750000e+00
 SP6ah TN2aq  1 3.650000e-01    1.910000e+00
 SP6ah TN3aq  1 3.650000e-01    2.110000e+00
 SP6ah TN4aq  1 3.650000e-01    2.110000e+00
 SP6ah TN5aq  1 3.650000e-01    2.340000e+00
 SP6ah TN6aq  1 3.650000e-01    2.830000e+00
 SP6ah TP1aq  1 3.650000e-01    3.100000e+00
 SP6ah TP2aq  1 3.650000e-01    3.370000e+00
 SP6ah TP3aq  1 3.650000e-01    3.370000e+00
 SP6ah TP4aq  1 3.650000e-01    3.640000e+00
 SP6ah TP5aq  1 3.650000e-01    3.930000e+00
 SP6dq TP5ah  1 3.650000e-01    4.510000e+00
 SP5dq TP5ah  1 3.650000e-01    4.220000e+00
 SP5ah TP4dq  1 3.650000e-01    3.930000e+00
 SP5ah TP3dq  1 3.650000e-01    3.640000e+00
 SP5ah TP2dq  1 3.650000e-01    3.640000e+00
 SP5ah TP1dq  1 3.650000e-01    3.370000e+00
 SP5ah TN6dq  1 3.650000e-01    3.100000e+00
 SP5ah TN5dq  1 3.650000e-01    2.830000e+00
 SP5ah TN4dq  1 3.650000e-01    2.830000e+00
 SP5ah TN3dq  1 3.650000e-01    2.110000e+00
 SP5ah TN2dq  1 3.650000e-01    1.910000e+00
 SP5ah TN1dq  1 3.650000e-01    1.750000e+00
 SP6aq TP5ah  1 3.650000e-01    3.930000e+00
 SP5ah TP5aq  1 3.650000e-01    3.640000e+00
 SP5ah TX1eq  1 3.780000e-01    1.450000e+00
 SP5ah TX2eq  1 3.650000e-01    1.750000e+00
 SP5ah TX3eq  1 3.650000e-01    1.750000e+00
 SP5ah TX4eq  1 3.650000e-01    1.910000e+00
 SP5ah TC1eq  1 4.040000e-01    1.130000e+00
 SP5ah TC2eq  1 3.940000e-01    1.290000e+00
 SP5ah TC3eq  1 3.940000e-01    1.290000e+00
 SP5ah TC4eq  1 3.780000e-01    1.450000e+00
 SP5ah TC5eq  1 3.660000e-01    1.600000e+00
 SP5ah TC6eq  1 3.660000e-01    1.600000e+00
 SP5ah TX1vq  1 3.650000e-01    1.750000e+00
 SP5ah TX2vq  1 3.650000e-01    2.110000e+00
 SP5ah TX3vq  1 3.650000e-01    2.110000e+00
 SP5ah TX4vq  1 3.650000e-01    2.340000e+00
 SP5ah TC1vq  1 3.780000e-01    1.450000e+00
 SP5ah TC2vq  1 3.660000e-01    1.600000e+00
 SP5ah TC3vq  1 3.660000e-01    1.600000e+00
 SP5ah TC4vq  1 3.650000e-01    1.750000e+00
 SP5ah TC5vq  1 3.650000e-01    1.910000e+00
 SP5ah TC6vq  1 3.650000e-01    1.910000e+00
 SP5ah TN1aq  1 3.650000e-01    1.750000e+00
 SP5ah TN2aq  1 3.650000e-01    1.910000e+00
 SP5ah TN3aq  1 3.650000e-01    2.110000e+00
 SP5ah TN4aq  1 3.650000e-01    2.340000e+00
 SP5ah TN5aq  1 3.650000e-01    2.340000e+00
 SP5ah TN6aq  1 3.650000e-01    2.570000e+00
 SP5ah TP1aq  1 3.650000e-01    2.830000e+00
 SP5ah TP2aq  1 3.650000e-01    3.100000e+00
 SP5ah TP3aq  1 3.650000e-01    3.100000e+00
 SP5ah TP4aq  1 3.650000e-01    3.370000e+00
 SP6dq TP4ah  1 3.650000e-01    4.220000e+00
 SP5dq TP4ah  1 3.650000e-01    3.930000e+00
 SP4dq TP4ah  1 3.650000e-01    3.930000e+00
 SP4ah TP3dq  1 3.650000e-01    3.640000e+00
 SP4ah TP2dq  1 3.650000e-01    3.640000e+00
 SP4ah TP1dq  1 3.650000e-01    3.370000e+00
 SP4ah TN6dq  1 3.650000e-01    3.100000e+00
 SP4ah TN5dq  1 3.650000e-01    2.830000e+00
 SP4ah TN4dq  1 3.650000e-01    2.830000e+00
 SP4ah TN3dq  1 3.650000e-01    2.570000e+00
 SP4ah TN2dq  1 3.650000e-01    2.110000e+00
 SP4ah TN1dq  1 3.650000e-01    1.910000e+00
 SP6aq TP4ah  1 3.650000e-01    3.640000e+00
 SP5aq TP4ah  1 3.650000e-01    3.370000e+00
 SP4ah TP4aq  1 3.650000e-01    3.370000e+00
 SP4ah TX1eq  1 3.660000e-01    1.600000e+00
 SP4ah TX2eq  1 3.650000e-01    1.750000e+00
 SP4ah TX3eq  1 3.650000e-01    1.750000e+00
 SP4ah TX4eq  1 3.650000e-01    1.910000e+00
 SP4ah TC1eq  1 4.040000e-01    1.130000e+00
 SP4ah TC2eq  1 3.940000e-01    1.290000e+00
 SP4ah TC3eq  1 3.940000e-01    1.290000e+00
 SP4ah TC4eq  1 3.780000e-01    1.450000e+00
 SP4ah TC5eq  1 3.660000e-01    1.600000e+00
 SP4ah TC6eq  1 3.650000e-01    1.750000e+00
 SP4ah TX1vq  1 3.650000e-01    1.910000e+00
 SP4ah TX2vq  1 3.650000e-01    2.110000e+00
 SP4ah TX3vq  1 3.650000e-01    2.110000e+00
 SP4ah TX4vq  1 3.650000e-01    2.340000e+00
 SP4ah TC1vq  1 3.780000e-01    1.450000e+00
 SP4ah TC2vq  1 3.660000e-01    1.600000e+00
 SP4ah TC3vq  1 3.660000e-01    1.600000e+00
 SP4ah TC4vq  1 3.650000e-01    1.750000e+00
 SP4ah TC5vq  1 3.650000e-01    1.910000e+00
 SP4ah TC6vq  1 3.650000e-01    2.110000e+00
 SP4ah TN1aq  1 3.650000e-01    1.910000e+00
 SP4ah TN2aq  1 3.650000e-01    2.110000e+00
 SP4ah TN3aq  1 3.650000e-01    2.110000e+00
 SP4ah TN4aq  1 3.650000e-01    2.340000e+00
 SP4ah TN5aq  1 3.650000e-01    2.340000e+00
 SP4ah TN6aq  1 3.650000e-01    2.570000e+00
 SP4ah TP1aq  1 3.650000e-01    2.830000e+00
 SP4ah TP2aq  1 3.650000e-01    3.100000e+00
 SP4ah TP3aq  1 3.650000e-01    3.100000e+00
 SP6dq TP3ah  1 3.650000e-01    3.930000e+00
 SP5dq TP3ah  1 3.650000e-01    3.640000e+00
 SP4dq TP3ah  1 3.650000e-01    3.640000e+00
 SP3dq TP3ah  1 3.650000e-01    3.640000e+00
 SP3ah TP2dq  1 3.650000e-01    3.640000e+00
 SP3ah TP1dq  1 3.650000e-01    3.370000e+00
 SP3ah TN6dq  1 3.650000e-01    3.100000e+00
 SP3ah TN5dq  1 3.650000e-01    2.830000e+00
 SP3ah TN4dq  1 3.650000e-01    2.830000e+00
 SP3ah TN3dq  1 3.650000e-01    2.570000e+00
 SP3ah TN2dq  1 3.650000e-01    2.570000e+00
 SP3ah TN1dq  1 3.650000e-01    2.110000e+00
 SP6aq TP3ah  1 3.650000e-01    3.370000e+00
 SP5aq TP3ah  1 3.650000e-01    3.100000e+00
 SP4aq TP3ah  1 3.650000e-01    3.100000e+00
 SP3ah TP3aq  1 3.650000e-01    3.100000e+00
 SP3ah TX1eq  1 3.660000e-01    1.600000e+00
 SP3ah TX2eq  1 3.650000e-01    1.750000e+00
 SP3ah TX3eq  1 3.650000e-01    1.910000e+00
 SP3ah TX4eq  1 3.650000e-01    1.910000e+00
 SP3ah TC1eq  1 4.040000e-01    1.130000e+00
 SP3ah TC2eq  1 3.940000e-01    1.290000e+00
 SP3ah TC3eq  1 3.940000e-01    1.290000e+00
 SP3ah TC4eq  1 3.660000e-01    1.600000e+00
 SP3ah TC5eq  1 3.650000e-01    1.750000e+00
 SP3ah TC6eq  1 3.650000e-01    1.910000e+00
 SP3ah TX1vq  1 3.650000e-01    1.910000e+00
 SP3ah TX2vq  1 3.650000e-01    2.110000e+00
 SP3ah TX3vq  1 3.650000e-01    2.340000e+00
 SP3ah TX4vq  1 3.650000e-01    2.340000e+00
 SP3ah TC1vq  1 3.780000e-01    1.450000e+00
 SP3ah TC2vq  1 3.660000e-01    1.600000e+00
 SP3ah TC3vq  1 3.660000e-01    1.600000e+00
 SP3ah TC4vq  1 3.650000e-01    1.910000e+00
 SP3ah TC5vq  1 3.650000e-01    2.110000e+00
 SP3ah TC6vq  1 3.650000e-01    2.340000e+00
 SP3ah TN1aq  1 3.650000e-01    2.110000e+00
 SP3ah TN2aq  1 3.650000e-01    2.110000e+00
 SP3ah TN3aq  1 3.650000e-01    2.110000e+00
 SP3ah TN4aq  1 3.650000e-01    2.340000e+00
 SP3ah TN5aq  1 3.650000e-01    2.340000e+00
 SP3ah TN6aq  1 3.650000e-01    2.570000e+00
 SP3ah TP1aq  1 3.650000e-01    2.830000e+00
 SP3ah TP2aq  1 3.650000e-01    3.100000e+00
 SP6dq TP2ah  1 3.650000e-01    3.930000e+00
 SP5dq TP2ah  1 3.650000e-01    3.640000e+00
 SP4dq TP2ah  1 3.650000e-01    3.640000e+00
 SP3dq TP2ah  1 3.650000e-01    3.640000e+00
 SP2dq TP2ah  1 3.650000e-01    3.640000e+00
 SP2ah TP1dq  1 3.650000e-01    3.370000e+00
 SP2ah TN6dq  1 3.650000e-01    3.370000e+00
 SP2ah TN5dq  1 3.650000e-01    3.100000e+00
 SP2ah TN4dq  1 3.650000e-01    2.830000e+00
 SP2ah TN3dq  1 3.650000e-01    2.570000e+00
 SP2ah TN2dq  1 3.650000e-01    2.570000e+00
 SP2ah TN1dq  1 3.650000e-01    2.570000e+00
 SP6aq TP2ah  1 3.650000e-01    3.370000e+00
 SP5aq TP2ah  1 3.650000e-01    3.100000e+00
 SP4aq TP2ah  1 3.650000e-01    3.100000e+00
 SP3aq TP2ah  1 3.650000e-01    3.100000e+00
 SP2ah TP2aq  1 3.650000e-01    3.100000e+00
 SP2ah TX1eq  1 3.660000e-01    1.600000e+00
 SP2ah TX2eq  1 3.650000e-01    1.750000e+00
 SP2ah TX3eq  1 3.650000e-01    1.910000e+00
 SP2ah TX4eq  1 3.650000e-01    1.910000e+00
 SP2ah TC1eq  1 3.940000e-01    1.290000e+00
 SP2ah TC2eq  1 3.780000e-01    1.450000e+00
 SP2ah TC3eq  1 3.780000e-01    1.450000e+00
 SP2ah TC4eq  1 3.660000e-01    1.600000e+00
 SP2ah TC5eq  1 3.650000e-01    1.750000e+00
 SP2ah TC6eq  1 3.650000e-01    1.910000e+00
 SP2ah TX1vq  1 3.650000e-01    1.910000e+00
 SP2ah TX2vq  1 3.650000e-01    2.110000e+00
 SP2ah TX3vq  1 3.650000e-01    2.340000e+00
 SP2ah TX4vq  1 3.650000e-01    2.340000e+00
 SP2ah TC1vq  1 3.660000e-01    1.600000e+00
 SP2ah TC2vq  1 3.650000e-01    1.750000e+00
 SP2ah TC3vq  1 3.650000e-01    1.750000e+00
 SP2ah TC4vq  1 3.650000e-01    1.910000e+00
 SP2ah TC5vq  1 3.650000e-01    2.110000e+00
 SP2ah TC6vq  1 3.650000e-01    2.340000e+00
 SP2ah TN1aq  1 3.650000e-01    2.110000e+00
 SP2ah TN2aq  1 3.650000e-01    2.110000e+00
 SP2ah TN3aq  1 3.650000e-01    2.110000e+00
 SP2ah TN4aq  1 3.650000e-01    2.340000e+00
 SP2ah TN5aq  1 3.650000e-01    2.570000e+00
 SP2ah TN6aq  1 3.650000e-01    2.830000e+00
 SP2ah TP1aq  1 3.650000e-01    2.830000e+00
 SP6dq TP1ah  1 3.650000e-01    3.640000e+00
 SP5dq TP1ah  1 3.650000e-01    3.370000e+00
 SP4dq TP1ah  1 3.650000e-01    3.370000e+00
 SP3dq TP1ah  1 3.650000e-01    3.370000e+00
 SP2dq TP1ah  1 3.650000e-01    3.370000e+00
 SP1dq TP1ah  1 3.650000e-01    3.370000e+00
 SP1ah TN6dq  1 3.650000e-01    3.370000e+00
 SP1ah TN5dq  1 3.650000e-01    3.100000e+00
 SP1ah TN4dq  1 3.650000e-01    3.100000e+00
 SP1ah TN3dq  1 3.650000e-01    2.570000e+00
 SP1ah TN2dq  1 3.650000e-01    2.570000e+00
 SP1ah TN1dq  1 3.650000e-01    2.570000e+00
 SP6aq TP1ah  1 3.650000e-01    3.100000e+00
 SP5aq TP1ah  1 3.650000e-01    2.830000e+00
 SP4aq TP1ah  1 3.650000e-01    2.830000e+00
 SP3aq TP1ah  1 3.650000e-01    2.830000e+00
 SP2aq TP1ah  1 3.650000e-01    2.830000e+00
 SP1ah TP1aq  1 3.650000e-01    2.830000e+00
 SP1ah TX1eq  1 3.660000e-01    1.600000e+00
 SP1ah TX2eq  1 3.650000e-01    1.750000e+00
 SP1ah TX3eq  1 3.650000e-01    1.910000e+00
 SP1ah TX4eq  1 3.650000e-01    1.910000e+00
 SP1ah TC1eq  1 3.940000e-01    1.290000e+00
 SP1ah TC2eq  1 3.780000e-01    1.450000e+00
 SP1ah TC3eq  1 3.780000e-01    1.450000e+00
 SP1ah TC4eq  1 3.660000e-01    1.600000e+00
 SP1ah TC5eq  1 3.650000e-01    1.750000e+00
 SP1ah TC6eq  1 3.650000e-01    1.910000e+00
 SP1ah TX1vq  1 3.650000e-01    1.910000e+00
 SP1ah TX2vq  1 3.650000e-01    2.110000e+00
 SP1ah TX3vq  1 3.650000e-01    2.340000e+00
 SP1ah TX4vq  1 3.650000e-01    2.340000e+00
 SP1ah TC1vq  1 3.660000e-01    1.600000e+00
 SP1ah TC2vq  1 3.650000e-01    1.750000e+00
 SP1ah TC3vq  1 3.650000e-01    1.750000e+00
 SP1ah TC4vq  1 3.650000e-01    1.910000e+00
 SP1ah TC5vq  1 3.650000e-01    2.110000e+00
 SP1ah TC6vq  1 3.650000e-01    2.340000e+00
 SP1ah TN1aq  1 3.650000e-01    2.110000e+00
 SP1ah TN2aq  1 3.650000e-01    2.110000e+00
 SP1ah TN3aq  1 3.650000e-01    2.110000e+00
 SP1ah TN4aq  1 3.650000e-01    2.570000e+00
 SP1ah TN5aq  1 3.650000e-01    2.570000e+00
 SP1ah TN6aq  1 3.650000e-01    2.830000e+00
 SP6dq TN6ah  1 3.650000e-01    3.370000e+00
 SP5dq TN6ah  1 3.650000e-01    3.100000e+00
 SP4dq TN6ah  1 3.650000e-01    3.100000e+00
 SP3dq TN6ah  1 3.650000e-01    3.100000e+00
 SP2dq TN6ah  1 3.650000e-01    3.370000e+00
 SP1dq TN6ah  1 3.650000e-01    3.370000e+00
 SN6dq TN6ah  1 3.650000e-01    3.370000e+00
 SN6ah TN5dq  1 3.650000e-01    3.370000e+00
 SN6ah TN4dq  1 3.650000e-01    3.370000e+00
 SN6ah TN3dq  1 3.650000e-01    2.830000e+00
 SN6ah TN2dq  1 3.650000e-01    2.570000e+00
 SN6ah TN1dq  1 3.650000e-01    2.570000e+00
 SP6aq TN6ah  1 3.650000e-01    2.830000e+00
 SP5aq TN6ah  1 3.650000e-01    2.570000e+00
 SP4aq TN6ah  1 3.650000e-01    2.570000e+00
 SP3aq TN6ah  1 3.650000e-01    2.570000e+00
 SP2aq TN6ah  1 3.650000e-01    2.830000e+00
 SP1aq TN6ah  1 3.650000e-01    2.830000e+00
 SN6ah TN6aq  1 3.650000e-01    2.830000e+00
 SN6ah TX1eq  1 3.660000e-01    1.600000e+00
 SN6ah TX2eq  1 3.650000e-01    1.750000e+00
 SN6ah TX3eq  1 3.650000e-01    1.910000e+00
 SN6ah TX4eq  1 3.650000e-01    2.110000e+00
 SN6ah TC1eq  1 3.780000e-01    1.450000e+00
 SN6ah TC2eq  1 3.660000e-01    1.600000e+00
 SN6ah TC3eq  1 3.660000e-01    1.600000e+00
 SN6ah TC4eq  1 3.650000e-01    1.750000e+00
 SN6ah TC5eq  1 3.650000e-01    1.910000e+00
 SN6ah TC6eq  1 3.650000e-01    2.110000e+00
 SN6ah TX1vq  1 3.650000e-01    1.910000e+00
 SN6ah TX2vq  1 3.650000e-01    2.110000e+00
 SN6ah TX3vq  1 3.650000e-01    2.340000e+00
 SN6ah TX4vq  1 3.650000e-01    2.570000e+00
 SN6ah TC1vq  1 3.650000e-01    1.750000e+00
 SN6ah TC2vq  1 3.650000e-01    1.910000e+00
 SN6ah TC3vq  1 3.650000e-01    1.910000e+00
 SN6ah TC4vq  1 3.650000e-01    2.110000e+00
 SN6ah TC5vq  1 3.650000e-01    2.340000e+00
 SN6ah TC6vq  1 3.650000e-01    2.570000e+00
 SN6ah TN1aq  1 3.650000e-01    2.110000e+00
 SN6ah TN2aq  1 3.650000e-01    2.110000e+00
 SN6ah TN3aq  1 3.650000e-01    2.340000e+00
 SN6ah TN4aq  1 3.650000e-01    2.830000e+00
 SN6ah TN5aq  1 3.650000e-01    2.830000e+00
 SP6dq TN5ah  1 3.650000e-01    2.830000e+00
 SP5dq TN5ah  1 3.650000e-01    2.830000e+00
 SP4dq TN5ah  1 3.650000e-01    2.830000e+00
 SP3dq TN5ah  1 3.650000e-01    2.830000e+00
 SP2dq TN5ah  1 3.650000e-01    3.100000e+00
 SP1dq TN5ah  1 3.650000e-01    3.100000e+00
 SN6dq TN5ah  1 3.650000e-01    3.370000e+00
 SN5dq TN5ah  1 3.650000e-01    3.100000e+00
 SN5ah TN4dq  1 3.650000e-01    3.100000e+00
 SN5ah TN3dq  1 3.650000e-01    2.830000e+00
 SN5ah TN2dq  1 3.650000e-01    2.830000e+00
 SN5ah TN1dq  1 3.650000e-01    2.570000e+00
 SP6aq TN5ah  1 3.650000e-01    2.340000e+00
 SP5aq TN5ah  1 3.650000e-01    2.340000e+00
 SP4aq TN5ah  1 3.650000e-01    2.340000e+00
 SP3aq TN5ah  1 3.650000e-01    2.340000e+00
 SP2aq TN5ah  1 3.650000e-01    2.570000e+00
 SP1aq TN5ah  1 3.650000e-01    2.570000e+00
 SN6aq TN5ah  1 3.650000e-01    2.830000e+00
 SN5ah TN5aq  1 3.650000e-01    2.570000e+00
 SN5ah TX1eq  1 3.650000e-01    1.750000e+00
 SN5ah TX2eq  1 3.650000e-01    1.910000e+00
 SN5ah TX3eq  1 3.650000e-01    2.110000e+00
 SN5ah TX4eq  1 3.650000e-01    2.340000e+00
 SN5ah TC1eq  1 3.780000e-01    1.450000e+00
 SN5ah TC2eq  1 3.660000e-01    1.600000e+00
 SN5ah TC3eq  1 3.650000e-01    1.750000e+00
 SN5ah TC4eq  1 3.650000e-01    1.750000e+00
 SN5ah TC5eq  1 3.650000e-01    1.910000e+00
 SN5ah TC6eq  1 3.650000e-01    2.110000e+00
 SN5ah TX1vq  1 3.650000e-01    2.110000e+00
 SN5ah TX2vq  1 3.650000e-01    2.340000e+00
 SN5ah TX3vq  1 3.650000e-01    2.570000e+00
 SN5ah TX4vq  1 3.650000e-01    2.830000e+00
 SN5ah TC1vq  1 3.650000e-01    1.750000e+00
 SN5ah TC2vq  1 3.650000e-01    1.910000e+00
 SN5ah TC3vq  1 3.650000e-01    2.110000e+00
 SN5ah TC4vq  1 3.650000e-01    2.110000e+00
 SN5ah TC5vq  1 3.650000e-01    2.340000e+00
 SN5ah TC6vq  1 3.650000e-01    2.570000e+00
 SN5ah TN1aq  1 3.650000e-01    2.110000e+00
 SN5ah TN2aq  1 3.650000e-01    2.340000e+00
 SN5ah TN3aq  1 3.650000e-01    2.340000e+00
 SN5ah TN4aq  1 3.650000e-01    2.570000e+00
 SP6dq TN4ah  1 3.650000e-01    2.570000e+00
 SP5dq TN4ah  1 3.650000e-01    2.830000e+00
 SP4dq TN4ah  1 3.650000e-01    2.830000e+00
 SP3dq TN4ah  1 3.650000e-01    2.830000e+00
 SP2dq TN4ah  1 3.650000e-01    2.830000e+00
 SP1dq TN4ah  1 3.650000e-01    3.100000e+00
 SN6dq TN4ah  1 3.650000e-01    3.370000e+00
 SN5dq TN4ah  1 3.650000e-01    3.100000e+00
 SN4dq TN4ah  1 3.650000e-01    3.100000e+00
 SN4ah TN3dq  1 3.650000e-01    2.830000e+00
 SN4ah TN2dq  1 3.650000e-01    2.830000e+00
 SN4ah TN1dq  1 3.650000e-01    2.570000e+00
 SP6aq TN4ah  1 3.650000e-01    2.110000e+00
 SP5aq TN4ah  1 3.650000e-01    2.340000e+00
 SP4aq TN4ah  1 3.650000e-01    2.340000e+00
 SP3aq TN4ah  1 3.650000e-01    2.340000e+00
 SP2aq TN4ah  1 3.650000e-01    2.340000e+00
 SP1aq TN4ah  1 3.650000e-01    2.570000e+00
 SN6aq TN4ah  1 3.650000e-01    2.830000e+00
 SN5aq TN4ah  1 3.650000e-01    2.570000e+00
 SN4ah TN4aq  1 3.650000e-01    2.570000e+00
 SN4ah TX1eq  1 3.650000e-01    1.750000e+00
 SN4ah TX2eq  1 3.650000e-01    1.910000e+00
 SN4ah TX3eq  1 3.650000e-01    2.340000e+00
 SN4ah TX4eq  1 3.650000e-01    2.570000e+00
 SN4ah TC1eq  1 3.780000e-01    1.450000e+00
 SN4ah TC2eq  1 3.660000e-01    1.600000e+00
 SN4ah TC3eq  1 3.650000e-01    1.750000e+00
 SN4ah TC4eq  1 3.650000e-01    1.910000e+00
 SN4ah TC5eq  1 3.650000e-01    1.910000e+00
 SN4ah TC6eq  1 3.650000e-01    2.110000e+00
 SN4ah TX1vq  1 3.650000e-01    2.110000e+00
 SN4ah TX2vq  1 3.650000e-01    2.340000e+00
 SN4ah TX3vq  1 3.650000e-01    2.830000e+00
 SN4ah TX4vq  1 3.650000e-01    3.100000e+00
 SN4ah TC1vq  1 3.650000e-01    1.750000e+00
 SN4ah TC2vq  1 3.650000e-01    1.910000e+00
 SN4ah TC3vq  1 3.650000e-01    2.110000e+00
 SN4ah TC4vq  1 3.650000e-01    2.340000e+00
 SN4ah TC5vq  1 3.650000e-01    2.340000e+00
 SN4ah TC6vq  1 3.650000e-01    2.570000e+00
 SN4ah TN1aq  1 3.650000e-01    2.110000e+00
 SN4ah TN2aq  1 3.650000e-01    2.340000e+00
 SN4ah TN3aq  1 3.650000e-01    2.340000e+00
 SP6dq TN3ah  1 3.650000e-01    2.110000e+00
 SP5dq TN3ah  1 3.650000e-01    2.110000e+00
 SP4dq TN3ah  1 3.650000e-01    2.570000e+00
 SP3dq TN3ah  1 3.650000e-01    2.570000e+00
 SP2dq TN3ah  1 3.650000e-01    2.570000e+00
 SP1dq TN3ah  1 3.650000e-01    2.570000e+00
 SN6dq TN3ah  1 3.650000e-01    2.830000e+00
 SN5dq TN3ah  1 3.650000e-01    2.830000e+00
 SN4dq TN3ah  1 3.650000e-01    2.830000e+00
 SN3dq TN3ah  1 3.650000e-01    2.830000e+00
 SN3ah TN2dq  1 3.650000e-01    2.830000e+00
 SN3ah TN1dq  1 3.650000e-01    2.570000e+00
 SP6aq TN3ah  1 3.650000e-01    2.110000e+00
 SP5aq TN3ah  1 3.650000e-01    2.110000e+00
 SP4aq TN3ah  1 3.650000e-01    2.110000e+00
 SP3aq TN3ah  1 3.650000e-01    2.110000e+00
 SP2aq TN3ah  1 3.650000e-01    2.110000e+00
 SP1aq TN3ah  1 3.650000e-01    2.110000e+00
 SN6aq TN3ah  1 3.650000e-01    2.340000e+00
 SN5aq TN3ah  1 3.650000e-01    2.340000e+00
 SN4aq TN3ah  1 3.650000e-01    2.340000e+00
 SN3ah TN3aq  1 3.650000e-01    2.340000e+00
 SN3ah TX1eq  1 3.650000e-01    1.910000e+00
 SN3ah TX2eq  1 3.650000e-01    1.910000e+00
 SN3ah TX3eq  1 3.650000e-01    2.110000e+00
 SN3ah TX4eq  1 3.650000e-01    2.340000e+00
 SN3ah TC1eq  1 3.660000e-01    1.600000e+00
 SN3ah TC2eq  1 3.650000e-01    1.750000e+00
 SN3ah TC3eq  1 3.650000e-01    1.750000e+00
 SN3ah TC4eq  1 3.650000e-01    1.910000e+00
 SN3ah TC5eq  1 3.650000e-01    1.910000e+00
 SN3ah TC6eq  1 3.650000e-01    2.110000e+00
 SN3ah TX1vq  1 3.650000e-01    2.340000e+00
 SN3ah TX2vq  1 3.650000e-01    2.340000e+00
 SN3ah TX3vq  1 3.650000e-01    2.570000e+00
 SN3ah TX4vq  1 3.650000e-01    2.830000e+00
 SN3ah TC1vq  1 3.650000e-01    1.910000e+00
 SN3ah TC2vq  1 3.650000e-01    2.110000e+00
 SN3ah TC3vq  1 3.650000e-01    2.110000e+00
 SN3ah TC4vq  1 3.650000e-01    2.340000e+00
 SN3ah TC5vq  1 3.650000e-01    2.340000e+00
 SN3ah TC6vq  1 3.650000e-01    2.570000e+00
 SN3ah TN1aq  1 3.650000e-01    2.110000e+00
 SN3ah TN2aq  1 3.650000e-01    2.340000e+00
 SP6dq TN2ah  1 3.650000e-01    1.910000e+00
 SP5dq TN2ah  1 3.650000e-01    1.910000e+00
 SP4dq TN2ah  1 3.650000e-01    2.110000e+00
 SP3dq TN2ah  1 3.650000e-01    2.570000e+00
 SP2dq TN2ah  1 3.650000e-01    2.570000e+00
 SP1dq TN2ah  1 3.650000e-01    2.570000e+00
 SN6dq TN2ah  1 3.650000e-01    2.570000e+00
 SN5dq TN2ah  1 3.650000e-01    2.830000e+00
 SN4dq TN2ah  1 3.650000e-01    2.830000e+00
 SN3dq TN2ah  1 3.650000e-01    2.830000e+00
 SN2dq TN2ah  1 3.650000e-01    2.830000e+00
 SN2ah TN1dq  1 3.650000e-01    2.570000e+00
 SP6aq TN2ah  1 3.650000e-01    1.910000e+00
 SP5aq TN2ah  1 3.650000e-01    1.910000e+00
 SP4aq TN2ah  1 3.650000e-01    2.110000e+00
 SP3aq TN2ah  1 3.650000e-01    2.110000e+00
 SP2aq TN2ah  1 3.650000e-01    2.110000e+00
 SP1aq TN2ah  1 3.650000e-01    2.110000e+00
 SN6aq TN2ah  1 3.650000e-01    2.110000e+00
 SN5aq TN2ah  1 3.650000e-01    2.340000e+00
 SN4aq TN2ah  1 3.650000e-01    2.340000e+00
 SN3aq TN2ah  1 3.650000e-01    2.340000e+00
 SN2ah TN2aq  1 3.650000e-01    2.340000e+00
 SN2ah TX1eq  1 3.650000e-01    1.910000e+00
 SN2ah TX2eq  1 3.650000e-01    1.910000e+00
 SN2ah TX3eq  1 3.650000e-01    2.110000e+00
 SN2ah TX4eq  1 3.650000e-01    2.340000e+00
 SN2ah TC1eq  1 3.660000e-01    1.600000e+00
 SN2ah TC2eq  1 3.650000e-01    1.750000e+00
 SN2ah TC3eq  1 3.650000e-01    1.910000e+00
 SN2ah TC4eq  1 3.650000e-01    1.910000e+00
 SN2ah TC5eq  1 3.650000e-01    1.910000e+00
 SN2ah TC6eq  1 3.650000e-01    2.110000e+00
 SN2ah TX1vq  1 3.650000e-01    2.340000e+00
 SN2ah TX2vq  1 3.650000e-01    2.340000e+00
 SN2ah TX3vq  1 3.650000e-01    2.570000e+00
 SN2ah TX4vq  1 3.650000e-01    2.830000e+00
 SN2ah TC1vq  1 3.650000e-01    1.910000e+00
 SN2ah TC2vq  1 3.650000e-01    2.110000e+00
 SN2ah TC3vq  1 3.650000e-01    2.340000e+00
 SN2ah TC4vq  1 3.650000e-01    2.340000e+00
 SN2ah TC5vq  1 3.650000e-01    2.340000e+00
 SN2ah TC6vq  1 3.650000e-01    2.570000e+00
 SN2ah TN1aq  1 3.650000e-01    2.110000e+00
 SP6dq TN1ah  1 3.650000e-01    1.750000e+00
 SP5dq TN1ah  1 3.650000e-01    1.750000e+00
 SP4dq TN1ah  1 3.650000e-01    1.910000e+00
 SP3dq TN1ah  1 3.650000e-01    2.110000e+00
 SP2dq TN1ah  1 3.650000e-01    2.570000e+00
 SP1dq TN1ah  1 3.650000e-01    2.570000e+00
 SN6dq TN1ah  1 3.650000e-01    2.570000e+00
 SN5dq TN1ah  1 3.650000e-01    2.570000e+00
 SN4dq TN1ah  1 3.650000e-01    2.570000e+00
 SN3dq TN1ah  1 3.650000e-01    2.570000e+00
 SN2dq TN1ah  1 3.650000e-01    2.570000e+00
 SN1dq TN1ah  1 3.650000e-01    2.830000e+00
 SP6aq TN1ah  1 3.650000e-01    1.750000e+00
 SP5aq TN1ah  1 3.650000e-01    1.750000e+00
 SP4aq TN1ah  1 3.650000e-01    1.910000e+00
 SP3aq TN1ah  1 3.650000e-01    2.110000e+00
 SP2aq TN1ah  1 3.650000e-01    2.110000e+00
 SP1aq TN1ah  1 3.650000e-01    2.110000e+00
 SN6aq TN1ah  1 3.650000e-01    2.110000e+00
 SN5aq TN1ah  1 3.650000e-01    2.110000e+00
 SN4aq TN1ah  1 3.650000e-01    2.110000e+00
 SN3aq TN1ah  1 3.650000e-01    2.110000e+00
 SN2aq TN1ah  1 3.650000e-01    2.110000e+00
 SN1ah TN1aq  1 3.650000e-01    2.340000e+00
 SN1ah TX1eq  1 3.650000e-01    1.910000e+00
 SN1ah TX2eq  1 3.650000e-01    1.910000e+00
 SN1ah TX3eq  1 3.650000e-01    2.110000e+00
 SN1ah TX4eq  1 3.650000e-01    2.110000e+00
 SN1ah TC1eq  1 3.660000e-01    1.600000e+00
 SN1ah TC2eq  1 3.650000e-01    1.750000e+00
 SN1ah TC3eq  1 3.650000e-01    1.910000e+00
 SN1ah TC4eq  1 3.650000e-01    2.110000e+00
 SN1ah TC5eq  1 3.650000e-01    2.110000e+00
 SN1ah TC6eq  1 3.650000e-01    2.340000e+00
 SN1ah TX1vq  1 3.650000e-01    2.340000e+00
 SN1ah TX2vq  1 3.650000e-01    2.340000e+00
 SN1ah TX3vq  1 3.650000e-01    2.570000e+00
 SN1ah TX4vq  1 3.650000e-01    2.570000e+00
 SN1ah TC1vq  1 3.650000e-01    1.910000e+00
 SN1ah TC2vq  1 3.650000e-01    2.110000e+00
 SN1ah TC3vq  1 3.650000e-01    2.340000e+00
 SN1ah TC4vq  1 3.650000e-01    2.570000e+00
 SN1ah TC5vq  1 3.650000e-01    2.570000e+00
 SN1ah TC6vq  1 3.650000e-01    2.830000e+00
 SP6dq TC6vh  1 3.660000e-01    1.600000e+00
 SP5dq TC6vh  1 3.660000e-01    1.600000e+00
 SP4dq TC6vh  1 3.650000e-01    1.750000e+00
 SP3dq TC6vh  1 3.650000e-01    1.910000e+00
 SP2dq TC6vh  1 3.650000e-01    1.910000e+00
 SP1dq TC6vh  1 3.650000e-01    1.910000e+00
 SN6dq TC6vh  1 3.650000e-01    2.110000e+00
 SN5dq TC6vh  1 3.650000e-01    2.110000e+00
 SN4dq TC6vh  1 3.650000e-01    2.110000e+00
 SN3dq TC6vh  1 3.650000e-01    2.110000e+00
 SN2dq TC6vh  1 3.650000e-01    2.110000e+00
 SN1dq TC6vh  1 3.650000e-01    2.340000e+00
 SP6aq TC6vh  1 3.650000e-01    1.910000e+00
 SP5aq TC6vh  1 3.650000e-01    1.910000e+00
 SP4aq TC6vh  1 3.650000e-01    2.110000e+00
 SP3aq TC6vh  1 3.650000e-01    2.340000e+00
 SP2aq TC6vh  1 3.650000e-01    2.340000e+00
 SP1aq TC6vh  1 3.650000e-01    2.340000e+00
 SN6aq TC6vh  1 3.650000e-01    2.570000e+00
 SN5aq TC6vh  1 3.650000e-01    2.570000e+00
 SN4aq TC6vh  1 3.650000e-01    2.570000e+00
 SN3aq TC6vh  1 3.650000e-01    2.570000e+00
 SN2aq TC6vh  1 3.650000e-01    2.570000e+00
 SN1aq TC6vh  1 3.650000e-01    2.830000e+00
 SC6vh TC6vq  1 3.650000e-01    2.340000e+00
 SC6vh TX1eq  1 3.650000e-01    2.830000e+00
 SC6vh TX2eq  1 3.650000e-01    2.830000e+00
 SC6vh TX3eq  1 3.650000e-01    2.830000e+00
 SC6vh TX4eq  1 3.650000e-01    2.830000e+00
 SC6vh TC1eq  1 3.650000e-01    2.110000e+00
 SC6vh TC2eq  1 3.650000e-01    2.340000e+00
 SC6vh TC3eq  1 3.650000e-01    2.570000e+00
 SC6vh TC4eq  1 3.650000e-01    2.830000e+00
 SC6vh TC5eq  1 3.650000e-01    2.830000e+00
 SC6vh TC6eq  1 3.650000e-01    3.100000e+00
 SC6vh TX1vq  1 3.650000e-01    2.110000e+00
 SC6vh TX2vq  1 3.650000e-01    2.110000e+00
 SC6vh TX3vq  1 3.650000e-01    2.110000e+00
 SC6vh TX4vq  1 3.650000e-01    2.110000e+00
 SC6vh TC1vq  1 3.660000e-01    1.600000e+00
 SC6vh TC2vq  1 3.650000e-01    1.750000e+00
 SC6vh TC3vq  1 3.650000e-01    1.910000e+00
 SC6vh TC4vq  1 3.650000e-01    2.110000e+00
 SC6vh TC5vq  1 3.650000e-01    2.110000e+00
 SP6dq TC5vh  1 3.780000e-01    1.450000e+00
 SP5dq TC5vh  1 3.660000e-01    1.600000e+00
 SP4dq TC5vh  1 3.660000e-01    1.600000e+00
 SP3dq TC5vh  1 3.650000e-01    1.750000e+00
 SP2dq TC5vh  1 3.650000e-01    1.750000e+00
 SP1dq TC5vh  1 3.650000e-01    1.750000e+00
 SN6dq TC5vh  1 3.650000e-01    1.910000e+00
 SN5dq TC5vh  1 3.650000e-01    1.910000e+00
 SN4dq TC5vh  1 3.650000e-01    1.910000e+00
 SN3dq TC5vh  1 3.650000e-01    1.910000e+00
 SN2dq TC5vh  1 3.650000e-01    1.910000e+00
 SN1dq TC5vh  1 3.650000e-01    2.110000e+00
 SP6aq TC5vh  1 3.650000e-01    1.750000e+00
 SP5aq TC5vh  1 3.650000e-01    1.910000e+00
 SP4aq TC5vh  1 3.650000e-01    1.910000e+00
 SP3aq TC5vh  1 3.650000e-01    2.110000e+00
 SP2aq TC5vh  1 3.650000e-01    2.110000e+00
 SP1aq TC5vh  1 3.650000e-01    2.110000e+00
 SN6aq TC5vh  1 3.650000e-01    2.340000e+00
 SN5aq TC5vh  1 3.650000e-01    2.340000e+00
 SN4aq TC5vh  1 3.650000e-01    2.340000e+00
 SN3aq TC5vh  1 3.650000e-01    2.340000e+00
 SN2aq TC5vh  1 3.650000e-01    2.340000e+00
 SN1aq TC5vh  1 3.650000e-01    2.570000e+00
 SC6vq TC5vh  1 3.650000e-01    2.110000e+00
 SC5vh TC5vq  1 3.650000e-01    2.110000e+00
 SC5vh TX1eq  1 3.650000e-01    2.830000e+00
 SC5vh TX2eq  1 3.650000e-01    2.570000e+00
 SC5vh TX3eq  1 3.650000e-01    2.570000e+00
 SC5vh TX4eq  1 3.650000e-01    2.570000e+00
 SC5vh TC1eq  1 3.650000e-01    2.340000e+00
 SC5vh TC2eq  1 3.650000e-01    2.340000e+00
 SC5vh TC3eq  1 3.650000e-01    2.570000e+00
 SC5vh TC4eq  1 3.650000e-01    2.830000e+00
 SC5vh TC5eq  1 3.650000e-01    2.830000e+00
 SC6eq TC5vh  1 3.650000e-01    2.830000e+00
 SC5vh TX1vq  1 3.650000e-01    2.110000e+00
 SC5vh TX2vq  1 3.650000e-01    1.910000e+00
 SC5vh TX3vq  1 3.650000e-01    1.910000e+00
 SC5vh TX4vq  1 3.650000e-01    1.910000e+00
 SC5vh TC1vq  1 3.650000e-01    1.750000e+00
 SC5vh TC2vq  1 3.650000e-01    1.750000e+00
 SC5vh TC3vq  1 3.650000e-01    1.910000e+00
 SC5vh TC4vq  1 3.650000e-01    2.110000e+00
 SP6dq TC4vh  1 3.940000e-01    1.290000e+00
 SP5dq TC4vh  1 3.780000e-01    1.450000e+00
 SP4dq TC4vh  1 3.780000e-01    1.450000e+00
 SP3dq TC4vh  1 3.660000e-01    1.600000e+00
 SP2dq TC4vh  1 3.660000e-01    1.600000e+00
 SP1dq TC4vh  1 3.660000e-01    1.600000e+00
 SN6dq TC4vh  1 3.650000e-01    1.750000e+00
 SN5dq TC4vh  1 3.650000e-01    1.750000e+00
 SN4dq TC4vh  1 3.650000e-01    1.910000e+00
 SN3dq TC4vh  1 3.650000e-01    1.910000e+00
 SN2dq TC4vh  1 3.650000e-01    1.910000e+00
 SN1dq TC4vh  1 3.650000e-01    2.110000e+00
 SP6aq TC4vh  1 3.660000e-01    1.600000e+00
 SP5aq TC4vh  1 3.650000e-01    1.750000e+00
 SP4aq TC4vh  1 3.650000e-01    1.750000e+00
 SP3aq TC4vh  1 3.650000e-01    1.910000e+00
 SP2aq TC4vh  1 3.650000e-01    1.910000e+00
 SP1aq TC4vh  1 3.650000e-01    1.910000e+00
 SN6aq TC4vh  1 3.650000e-01    2.110000e+00
 SN5aq TC4vh  1 3.650000e-01    2.110000e+00
 SN4aq TC4vh  1 3.650000e-01    2.340000e+00
 SN3aq TC4vh  1 3.650000e-01    2.340000e+00
 SN2aq TC4vh  1 3.650000e-01    2.340000e+00
 SN1aq TC4vh  1 3.650000e-01    2.570000e+00
 SC6vq TC4vh  1 3.650000e-01    2.110000e+00
 SC5vq TC4vh  1 3.650000e-01    2.110000e+00
 SC4vh TC4vq  1 3.650000e-01    2.110000e+00
 SC4vh TX1eq  1 3.650000e-01    2.830000e+00
 SC4vh TX2eq  1 3.650000e-01    2.570000e+00
 SC4vh TX3eq  1 3.650000e-01    2.570000e+00
 SC4vh TX4eq  1 3.650000e-01    2.570000e+00
 SC4vh TC1eq  1 3.650000e-01    2.340000e+00
 SC4vh TC2eq  1 3.650000e-01    2.570000e+00
 SC4vh TC3eq  1 3.650000e-01    2.830000e+00
 SC4vh TC4eq  1 3.650000e-01    2.830000e+00
 SC5eq TC4vh  1 3.650000e-01    2.830000e+00
 SC6eq TC4vh  1 3.650000e-01    2.830000e+00
 SC4vh TX1vq  1 3.650000e-01    2.110000e+00
 SC4vh TX2vq  1 3.650000e-01    1.910000e+00
 SC4vh TX3vq  1 3.650000e-01    1.910000e+00
 SC4vh TX4vq  1 3.650000e-01    1.910000e+00
 SC4vh TC1vq  1 3.650000e-01    1.750000e+00
 SC4vh TC2vq  1 3.650000e-01    1.910000e+00
 SC4vh TC3vq  1 3.650000e-01    2.110000e+00
 SP6dq TC3vh  1 4.040000e-01    1.130000e+00
 SP5dq TC3vh  1 3.940000e-01    1.290000e+00
 SP4dq TC3vh  1 3.940000e-01    1.290000e+00
 SP3dq TC3vh  1 3.940000e-01    1.290000e+00
 SP2dq TC3vh  1 3.780000e-01    1.450000e+00
 SP1dq TC3vh  1 3.780000e-01    1.450000e+00
 SN6dq TC3vh  1 3.660000e-01    1.600000e+00
 SN5dq TC3vh  1 3.650000e-01    1.750000e+00
 SN4dq TC3vh  1 3.650000e-01    1.750000e+00
 SN3dq TC3vh  1 3.650000e-01    1.750000e+00
 SN2dq TC3vh  1 3.650000e-01    1.910000e+00
 SN1dq TC3vh  1 3.650000e-01    1.910000e+00
 SP6aq TC3vh  1 3.780000e-01    1.450000e+00
 SP5aq TC3vh  1 3.660000e-01    1.600000e+00
 SP4aq TC3vh  1 3.660000e-01    1.600000e+00
 SP3aq TC3vh  1 3.660000e-01    1.600000e+00
 SP2aq TC3vh  1 3.650000e-01    1.750000e+00
 SP1aq TC3vh  1 3.650000e-01    1.750000e+00
 SN6aq TC3vh  1 3.650000e-01    1.910000e+00
 SN5aq TC3vh  1 3.650000e-01    2.110000e+00
 SN4aq TC3vh  1 3.650000e-01    2.110000e+00
 SN3aq TC3vh  1 3.650000e-01    2.110000e+00
 SN2aq TC3vh  1 3.650000e-01    2.340000e+00
 SN1aq TC3vh  1 3.650000e-01    2.340000e+00
 SC6vq TC3vh  1 3.650000e-01    1.910000e+00
 SC5vq TC3vh  1 3.650000e-01    1.910000e+00
 SC4vq TC3vh  1 3.650000e-01    2.110000e+00
 SC3vh TC3vq  1 3.650000e-01    2.110000e+00
 SC3vh TX1eq  1 3.650000e-01    2.830000e+00
 SC3vh TX2eq  1 3.650000e-01    2.570000e+00
 SC3vh TX3eq  1 3.650000e-01    2.570000e+00
 SC3vh TX4eq  1 3.650000e-01    2.570000e+00
 SC3vh TC1eq  1 3.650000e-01    2.830000e+00
 SC3vh TC2eq  1 3.650000e-01    2.830000e+00
 SC3vh TC3eq  1 3.650000e-01    2.830000e+00
 SC4eq TC3vh  1 3.650000e-01    2.830000e+00
 SC5eq TC3vh  1 3.650000e-01    2.570000e+00
 SC6eq TC3vh  1 3.650000e-01    2.570000e+00
 SC3vh TX1vq  1 3.650000e-01    2.110000e+00
 SC3vh TX2vq  1 3.650000e-01    1.910000e+00
 SC3vh TX3vq  1 3.650000e-01    1.910000e+00
 SC3vh TX4vq  1 3.650000e-01    1.910000e+00
 SC3vh TC1vq  1 3.650000e-01    2.110000e+00
 SC3vh TC2vq  1 3.650000e-01    2.110000e+00
 SP6dq TC2vh  1 4.040000e-01    1.130000e+00
 SP5dq TC2vh  1 3.940000e-01    1.290000e+00
 SP4dq TC2vh  1 3.940000e-01    1.290000e+00
 SP3dq TC2vh  1 3.940000e-01    1.290000e+00
 SP2dq TC2vh  1 3.780000e-01    1.450000e+00
 SP1dq TC2vh  1 3.780000e-01    1.450000e+00
 SN6dq TC2vh  1 3.660000e-01    1.600000e+00
 SN5dq TC2vh  1 3.660000e-01    1.600000e+00
 SN4dq TC2vh  1 3.660000e-01    1.600000e+00
 SN3dq TC2vh  1 3.650000e-01    1.750000e+00
 SN2dq TC2vh  1 3.650000e-01    1.750000e+00
 SN1dq TC2vh  1 3.650000e-01    1.750000e+00
 SP6aq TC2vh  1 3.780000e-01    1.450000e+00
 SP5aq TC2vh  1 3.660000e-01    1.600000e+00
 SP4aq TC2vh  1 3.660000e-01    1.600000e+00
 SP3aq TC2vh  1 3.660000e-01    1.600000e+00
 SP2aq TC2vh  1 3.650000e-01    1.750000e+00
 SP1aq TC2vh  1 3.650000e-01    1.750000e+00
 SN6aq TC2vh  1 3.650000e-01    1.910000e+00
 SN5aq TC2vh  1 3.650000e-01    1.910000e+00
 SN4aq TC2vh  1 3.650000e-01    1.910000e+00
 SN3aq TC2vh  1 3.650000e-01    2.110000e+00
 SN2aq TC2vh  1 3.650000e-01    2.110000e+00
 SN1aq TC2vh  1 3.650000e-01    2.110000e+00
 SC6vq TC2vh  1 3.650000e-01    1.750000e+00
 SC5vq TC2vh  1 3.650000e-01    1.750000e+00
 SC4vq TC2vh  1 3.650000e-01    1.910000e+00
 SC3vq TC2vh  1 3.650000e-01    2.110000e+00
 SC2vh TC2vq  1 3.650000e-01    2.110000e+00
 SC2vh TX1eq  1 3.650000e-01    2.570000e+00
 SC2vh TX2eq  1 3.650000e-01    2.570000e+00
 SC2vh TX3eq  1 3.650000e-01    2.570000e+00
 SC2vh TX4eq  1 3.650000e-01    2.110000e+00
 SC2vh TC1eq  1 3.650000e-01    3.100000e+00
 SC2vh TC2eq  1 3.650000e-01    2.830000e+00
 SC3eq TC2vh  1 3.650000e-01    2.830000e+00
 SC4eq TC2vh  1 3.650000e-01    2.570000e+00
 SC5eq TC2vh  1 3.650000e-01    2.340000e+00
 SC6eq TC2vh  1 3.650000e-01    2.340000e+00
 SC2vh TX1vq  1 3.650000e-01    1.910000e+00
 SC2vh TX2vq  1 3.650000e-01    1.910000e+00
 SC2vh TX3vq  1 3.650000e-01    1.910000e+00
 SC2vh TX4vq  1 3.660000e-01    1.600000e+00
 SC2vh TC1vq  1 3.650000e-01    2.340000e+00
 SP6dq TC1vh  1 4.230000e-01    9.810000e-01
 SP5dq TC1vh  1 4.040000e-01    1.130000e+00
 SP4dq TC1vh  1 4.040000e-01    1.130000e+00
 SP3dq TC1vh  1 4.040000e-01    1.130000e+00
 SP2dq TC1vh  1 3.940000e-01    1.290000e+00
 SP1dq TC1vh  1 3.940000e-01    1.290000e+00
 SN6dq TC1vh  1 3.780000e-01    1.450000e+00
 SN5dq TC1vh  1 3.780000e-01    1.450000e+00
 SN4dq TC1vh  1 3.780000e-01    1.450000e+00
 SN3dq TC1vh  1 3.660000e-01    1.600000e+00
 SN2dq TC1vh  1 3.660000e-01    1.600000e+00
 SN1dq TC1vh  1 3.660000e-01    1.600000e+00
 SP6aq TC1vh  1 4.040000e-01    1.130000e+00
 SP5aq TC1vh  1 3.780000e-01    1.450000e+00
 SP4aq TC1vh  1 3.780000e-01    1.450000e+00
 SP3aq TC1vh  1 3.780000e-01    1.450000e+00
 SP2aq TC1vh  1 3.660000e-01    1.600000e+00
 SP1aq TC1vh  1 3.660000e-01    1.600000e+00
 SN6aq TC1vh  1 3.650000e-01    1.750000e+00
 SN5aq TC1vh  1 3.650000e-01    1.750000e+00
 SN4aq TC1vh  1 3.650000e-01    1.750000e+00
 SN3aq TC1vh  1 3.650000e-01    1.910000e+00
 SN2aq TC1vh  1 3.650000e-01    1.910000e+00
 SN1aq TC1vh  1 3.650000e-01    1.910000e+00
 SC6vq TC1vh  1 3.660000e-01    1.600000e+00
 SC5vq TC1vh  1 3.650000e-01    1.750000e+00
 SC4vq TC1vh  1 3.650000e-01    1.750000e+00
 SC3vq TC1vh  1 3.650000e-01    2.110000e+00
 SC2vq TC1vh  1 3.650000e-01    2.340000e+00
 SC1vh TC1vq  1 3.650000e-01    2.110000e+00
 SC1vh TX1eq  1 3.650000e-01    2.570000e+00
 SC1vh TX2eq  1 3.650000e-01    2.570000e+00
 SC1vh TX3eq  1 3.650000e-01    2.570000e+00
 SC1vh TX4eq  1 3.650000e-01    2.110000e+00
 SC1vh TC1eq  1 3.650000e-01    2.830000e+00
 SC2eq TC1vh  1 3.650000e-01    3.100000e+00
 SC3eq TC1vh  1 3.650000e-01    2.830000e+00
 SC4eq TC1vh  1 3.650000e-01    2.340000e+00
 SC5eq TC1vh  1 3.650000e-01    2.340000e+00
 SC6eq TC1vh  1 3.650000e-01    2.110000e+00
 SC1vh TX1vq  1 3.650000e-01    1.910000e+00
 SC1vh TX2vq  1 3.650000e-01    1.910000e+00
 SC1vh TX3vq  1 3.650000e-01    1.910000e+00
 SC1vh TX4vq  1 3.660000e-01    1.600000e+00
 SP6dq TX4vh  1 3.650000e-01    1.750000e+00
 SP5dq TX4vh  1 3.650000e-01    1.910000e+00
 SP4dq TX4vh  1 3.650000e-01    1.910000e+00
 SP3dq TX4vh  1 3.650000e-01    1.910000e+00
 SP2dq TX4vh  1 3.650000e-01    1.910000e+00
 SP1dq TX4vh  1 3.650000e-01    1.910000e+00
 SN6dq TX4vh  1 3.650000e-01    2.110000e+00
 SN5dq TX4vh  1 3.650000e-01    2.340000e+00
 SN4dq TX4vh  1 3.650000e-01    2.570000e+00
 SN3dq TX4vh  1 3.650000e-01    2.340000e+00
 SN2dq TX4vh  1 3.650000e-01    2.340000e+00
 SN1dq TX4vh  1 3.650000e-01    2.110000e+00
 SP6aq TX4vh  1 3.650000e-01    2.110000e+00
 SP5aq TX4vh  1 3.650000e-01    2.340000e+00
 SP4aq TX4vh  1 3.650000e-01    2.340000e+00
 SP3aq TX4vh  1 3.650000e-01    2.340000e+00
 SP2aq TX4vh  1 3.650000e-01    2.340000e+00
 SP1aq TX4vh  1 3.650000e-01    2.340000e+00
 SN6aq TX4vh  1 3.650000e-01    2.570000e+00
 SN5aq TX4vh  1 3.650000e-01    2.830000e+00
 SN4aq TX4vh  1 3.650000e-01    3.100000e+00
 SN3aq TX4vh  1 3.650000e-01    2.830000e+00
 SN2aq TX4vh  1 3.650000e-01    2.830000e+00
 SN1aq TX4vh  1 3.650000e-01    2.570000e+00
 SC6vq TX4vh  1 3.650000e-01    2.110000e+00
 SC5vq TX4vh  1 3.650000e-01    1.910000e+00
 SC4vq TX4vh  1 3.650000e-01    1.910000e+00
 SC3vq TX4vh  1 3.650000e-01    1.910000e+00
 SC2vq TX4vh  1 3.660000e-01    1.600000e+00
 SC1vq TX4vh  1 3.660000e-01    1.600000e+00
 SX4vh TX4vq  1 3.650000e-01    2.110000e+00
 SX4vh TX1eq  1 3.650000e-01    2.830000e+00
 SX4vh TX2eq  1 3.650000e-01    2.830000e+00
 SX4vh TX3eq  1 3.650000e-01    2.830000e+00
 SX4vh TX4eq  1 3.650000e-01    2.830000e+00
 SC1eq TX4vh  1 3.650000e-01    2.110000e+00
 SC2eq TX4vh  1 3.650000e-01    2.110000e+00
 SC3eq TX4vh  1 3.650000e-01    2.570000e+00
 SC4eq TX4vh  1 3.650000e-01    2.570000e+00
 SC5eq TX4vh  1 3.650000e-01    2.570000e+00
 SC6eq TX4vh  1 3.650000e-01    2.830000e+00
 SX4vh TX1vq  1 3.650000e-01    2.110000e+00
 SX4vh TX2vq  1 3.650000e-01    2.110000e+00
 SX4vh TX3vq  1 3.650000e-01    2.110000e+00
 SP6dq TX3vh  1 3.650000e-01    1.750000e+00
 SP5dq TX3vh  1 3.650000e-01    1.750000e+00
 SP4dq TX3vh  1 3.650000e-01    1.750000e+00
 SP3dq TX3vh  1 3.650000e-01    1.910000e+00
 SP2dq TX3vh  1 3.650000e-01    1.910000e+00
 SP1dq TX3vh  1 3.650000e-01    1.910000e+00
 SN6dq TX3vh  1 3.650000e-01    1.910000e+00
 SN5dq TX3vh  1 3.650000e-01    2.110000e+00
 SN4dq TX3vh  1 3.650000e-01    2.340000e+00
 SN3dq TX3vh  1 3.650000e-01    2.110000e+00
 SN2dq TX3vh  1 3.650000e-01    2.110000e+00
 SN1dq TX3vh  1 3.650000e-01    2.110000e+00
 SP6aq TX3vh  1 3.650000e-01    2.110000e+00
 SP5aq TX3vh  1 3.650000e-01    2.110000e+00
 SP4aq TX3vh  1 3.650000e-01    2.110000e+00
 SP3aq TX3vh  1 3.650000e-01    2.340000e+00
 SP2aq TX3vh  1 3.650000e-01    2.340000e+00
 SP1aq TX3vh  1 3.650000e-01    2.340000e+00
 SN6aq TX3vh  1 3.650000e-01    2.340000e+00
 SN5aq TX3vh  1 3.650000e-01    2.570000e+00
 SN4aq TX3vh  1 3.650000e-01    2.830000e+00
 SN3aq TX3vh  1 3.650000e-01    2.570000e+00
 SN2aq TX3vh  1 3.650000e-01    2.570000e+00
 SN1aq TX3vh  1 3.650000e-01    2.570000e+00
 SC6vq TX3vh  1 3.650000e-01    2.110000e+00
 SC5vq TX3vh  1 3.650000e-01    1.910000e+00
 SC4vq TX3vh  1 3.650000e-01    1.910000e+00
 SC3vq TX3vh  1 3.650000e-01    1.910000e+00
 SC2vq TX3vh  1 3.650000e-01    1.910000e+00
 SC1vq TX3vh  1 3.650000e-01    1.910000e+00
 SX4vq TX3vh  1 3.650000e-01    2.110000e+00
 SX3vh TX3vq  1 3.650000e-01    2.110000e+00
 SX3vh TX1eq  1 3.650000e-01    3.100000e+00
 SX3vh TX2eq  1 3.650000e-01    3.100000e+00
 SX3vh TX3eq  1 3.650000e-01    2.830000e+00
 SX4eq TX3vh  1 3.650000e-01    2.830000e+00
 SC1eq TX3vh  1 3.650000e-01    2.570000e+00
 SC2eq TX3vh  1 3.650000e-01    2.570000e+00
 SC3eq TX3vh  1 3.650000e-01    2.570000e+00
 SC4eq TX3vh  1 3.650000e-01    2.570000e+00
 SC5eq TX3vh  1 3.650000e-01    2.570000e+00
 SC6eq TX3vh  1 3.650000e-01    2.830000e+00
 SX3vh TX1vq  1 3.650000e-01    2.340000e+00
 SX3vh TX2vq  1 3.650000e-01    2.340000e+00
 SP6dq TX2vh  1 3.660000e-01    1.600000e+00
 SP5dq TX2vh  1 3.650000e-01    1.750000e+00
 SP4dq TX2vh  1 3.650000e-01    1.750000e+00
 SP3dq TX2vh  1 3.650000e-01    1.750000e+00
 SP2dq TX2vh  1 3.650000e-01    1.750000e+00
 SP1dq TX2vh  1 3.650000e-01    1.750000e+00
 SN6dq TX2vh  1 3.650000e-01    1.750000e+00
 SN5dq TX2vh  1 3.650000e-01    1.910000e+00
 SN4dq TX2vh  1 3.650000e-01    1.910000e+00
 SN3dq TX2vh  1 3.650000e-01    1.910000e+00
 SN2dq TX2vh  1 3.650000e-01    1.910000e+00
 SN1dq TX2vh  1 3.650000e-01    1.910000e+00
 SP6aq TX2vh  1 3.650000e-01    1.910000e+00
 SP5aq TX2vh  1 3.650000e-01    2.110000e+00
 SP4aq TX2vh  1 3.650000e-01    2.110000e+00
 SP3aq TX2vh  1 3.650000e-01    2.110000e+00
 SP2aq TX2vh  1 3.650000e-01    2.110000e+00
 SP1aq TX2vh  1 3.650000e-01    2.110000e+00
 SN6aq TX2vh  1 3.650000e-01    2.110000e+00
 SN5aq TX2vh  1 3.650000e-01    2.340000e+00
 SN4aq TX2vh  1 3.650000e-01    2.340000e+00
 SN3aq TX2vh  1 3.650000e-01    2.340000e+00
 SN2aq TX2vh  1 3.650000e-01    2.340000e+00
 SN1aq TX2vh  1 3.650000e-01    2.340000e+00
 SC6vq TX2vh  1 3.650000e-01    2.110000e+00
 SC5vq TX2vh  1 3.650000e-01    1.910000e+00
 SC4vq TX2vh  1 3.650000e-01    1.910000e+00
 SC3vq TX2vh  1 3.650000e-01    1.910000e+00
 SC2vq TX2vh  1 3.650000e-01    1.910000e+00
 SC1vq TX2vh  1 3.650000e-01    1.910000e+00
 SX4vq TX2vh  1 3.650000e-01    2.110000e+00
 SX3vq TX2vh  1 3.650000e-01    2.340000e+00
 SX2vh TX2vq  1 3.650000e-01    2.340000e+00
 SX2vh TX1eq  1 3.650000e-01    3.100000e+00
 SX2vh TX2eq  1 3.650000e-01    3.100000e+00
 SX3eq TX2vh  1 3.650000e-01    3.100000e+00
 SX4eq TX2vh  1 3.650000e-01    2.830000e+00
 SC1eq TX2vh  1 3.650000e-01    2.570000e+00
 SC2eq TX2vh  1 3.650000e-01    2.570000e+00
 SC3eq TX2vh  1 3.650000e-01    2.570000e+00
 SC4eq TX2vh  1 3.650000e-01    2.570000e+00
 SC5eq TX2vh  1 3.650000e-01    2.570000e+00
 SC6eq TX2vh  1 3.650000e-01    2.830000e+00
 SX2vh TX1vq  1 3.650000e-01    2.340000e+00
 SP6dq TX1vh  1 3.780000e-01    1.450000e+00
 SP5dq TX1vh  1 3.780000e-01    1.450000e+00
 SP4dq TX1vh  1 3.660000e-01    1.600000e+00
 SP3dq TX1vh  1 3.660000e-01    1.600000e+00
 SP2dq TX1vh  1 3.660000e-01    1.600000e+00
 SP1dq TX1vh  1 3.660000e-01    1.600000e+00
 SN6dq TX1vh  1 3.660000e-01    1.600000e+00
 SN5dq TX1vh  1 3.650000e-01    1.750000e+00
 SN4dq TX1vh  1 3.650000e-01    1.750000e+00
 SN3dq TX1vh  1 3.650000e-01    1.910000e+00
 SN2dq TX1vh  1 3.650000e-01    1.910000e+00
 SN1dq TX1vh  1 3.650000e-01    1.910000e+00
 SP6aq TX1vh  1 3.650000e-01    1.750000e+00
 SP5aq TX1vh  1 3.650000e-01    1.750000e+00
 SP4aq TX1vh  1 3.650000e-01    1.910000e+00
 SP3aq TX1vh  1 3.650000e-01    1.910000e+00
 SP2aq TX1vh  1 3.650000e-01    1.910000e+00
 SP1aq TX1vh  1 3.650000e-01    1.910000e+00
 SN6aq TX1vh  1 3.650000e-01    1.910000e+00
 SN5aq TX1vh  1 3.650000e-01    2.110000e+00
 SN4aq TX1vh  1 3.650000e-01    2.110000e+00
 SN3aq TX1vh  1 3.650000e-01    2.340000e+00
 SN2aq TX1vh  1 3.650000e-01    2.340000e+00
 SN1aq TX1vh  1 3.650000e-01    2.340000e+00
 SC6vq TX1vh  1 3.650000e-01    2.110000e+00
 SC5vq TX1vh  1 3.650000e-01    2.110000e+00
 SC4vq TX1vh  1 3.650000e-01    2.110000e+00
 SC3vq TX1vh  1 3.650000e-01    2.110000e+00
 SC2vq TX1vh  1 3.650000e-01    1.910000e+00
 SC1vq TX1vh  1 3.650000e-01    1.910000e+00
 SX4vq TX1vh  1 3.650000e-01    2.110000e+00
 SX3vq TX1vh  1 3.650000e-01    2.340000e+00
 SX2vq TX1vh  1 3.650000e-01    2.340000e+00
 SX1vh TX1vq  1 3.650000e-01    2.570000e+00
 SX1vh TX1eq  1 3.650000e-01    3.370000e+00
 SX2eq TX1vh  1 3.650000e-01    3.100000e+00
 SX3eq TX1vh  1 3.650000e-01    3.100000e+00
 SX4eq TX1vh  1 3.650000e-01    2.830000e+00
 SC1eq TX1vh  1 3.650000e-01    2.570000e+00
 SC2eq TX1vh  1 3.650000e-01    2.570000e+00
 SC3eq TX1vh  1 3.650000e-01    2.830000e+00
 SC4eq TX1vh  1 3.650000e-01    2.830000e+00
 SC5eq TX1vh  1 3.650000e-01    2.830000e+00
 SC6eq TX1vh  1 3.650000e-01    2.830000e+00
 SP6dq TC6eh  1 3.650000e-01    1.910000e+00
 SP5dq TC6eh  1 3.650000e-01    1.910000e+00
 SP4dq TC6eh  1 3.650000e-01    2.110000e+00
 SP3dq TC6eh  1 3.650000e-01    2.340000e+00
 SP2dq TC6eh  1 3.650000e-01    2.340000e+00
 SP1dq TC6eh  1 3.650000e-01    2.340000e+00
 SN6dq TC6eh  1 3.650000e-01    2.570000e+00
 SN5dq TC6eh  1 3.650000e-01    2.570000e+00
 SN4dq TC6eh  1 3.650000e-01    2.570000e+00
 SN3dq TC6eh  1 3.650000e-01    2.570000e+00
 SN2dq TC6eh  1 3.650000e-01    2.570000e+00
 SN1dq TC6eh  1 3.650000e-01    2.830000e+00
 SP6aq TC6eh  1 3.660000e-01    1.600000e+00
 SP5aq TC6eh  1 3.660000e-01    1.600000e+00
 SP4aq TC6eh  1 3.650000e-01    1.750000e+00
 SP3aq TC6eh  1 3.650000e-01    1.910000e+00
 SP2aq TC6eh  1 3.650000e-01    1.910000e+00
 SP1aq TC6eh  1 3.650000e-01    1.910000e+00
 SN6aq TC6eh  1 3.650000e-01    2.110000e+00
 SN5aq TC6eh  1 3.650000e-01    2.110000e+00
 SN4aq TC6eh  1 3.650000e-01    2.110000e+00
 SN3aq TC6eh  1 3.650000e-01    2.110000e+00
 SN2aq TC6eh  1 3.650000e-01    2.110000e+00
 SN1aq TC6eh  1 3.650000e-01    2.340000e+00
 SC6vq TC6eh  1 3.650000e-01    3.100000e+00
 SC6eh TC5vq  1 3.650000e-01    2.830000e+00
 SC6eh TC4vq  1 3.650000e-01    2.830000e+00
 SC6eh TC3vq  1 3.650000e-01    2.570000e+00
 SC6eh TC2vq  1 3.650000e-01    2.340000e+00
 SC6eh TC1vq  1 3.650000e-01    2.110000e+00
 SC6eh TX4vq  1 3.650000e-01    2.830000e+00
 SC6eh TX3vq  1 3.650000e-01    2.830000e+00
 SC6eh TX2vq  1 3.650000e-01    2.830000e+00
 SC6eh TX1vq  1 3.650000e-01    2.830000e+00
 SC6eh TC6eq  1 3.650000e-01    2.340000e+00
 SC6eh TX1eq  1 3.650000e-01    2.110000e+00
 SC6eh TX2eq  1 3.650000e-01    2.110000e+00
 SC6eh TX3eq  1 3.650000e-01    2.110000e+00
 SC6eh TX4eq  1 3.650000e-01    2.110000e+00
 SC6eh TC1eq  1 3.660000e-01    1.600000e+00
 SC6eh TC2eq  1 3.650000e-01    1.750000e+00
 SC6eh TC3eq  1 3.650000e-01    1.910000e+00
 SC6eh TC4eq  1 3.650000e-01    2.110000e+00
 SC6eh TC5eq  1 3.650000e-01    2.110000e+00
 SP6dq TC5eh  1 3.650000e-01    1.750000e+00
 SP5dq TC5eh  1 3.650000e-01    1.910000e+00
 SP4dq TC5eh  1 3.650000e-01    1.910000e+00
 SP3dq TC5eh  1 3.650000e-01    2.110000e+00
 SP2dq TC5eh  1 3.650000e-01    2.110000e+00
 SP1dq TC5eh  1 3.650000e-01    2.110000e+00
 SN6dq TC5eh  1 3.650000e-01    2.340000e+00
 SN5dq TC5eh  1 3.650000e-01    2.340000e+00
 SN4dq TC5eh  1 3.650000e-01    2.340000e+00
 SN3dq TC5eh  1 3.650000e-01    2.340000e+00
 SN2dq TC5eh  1 3.650000e-01    2.340000e+00
 SN1dq TC5eh  1 3.650000e-01    2.570000e+00
 SP6aq TC5eh  1 3.780000e-01    1.450000e+00
 SP5aq TC5eh  1 3.660000e-01    1.600000e+00
 SP4aq TC5eh  1 3.660000e-01    1.600000e+00
 SP3aq TC5eh  1 3.650000e-01    1.750000e+00
 SP2aq TC5eh  1 3.650000e-01    1.750000e+00
 SP1aq TC5eh  1 3.650000e-01    1.750000e+00
 SN6aq TC5eh  1 3.650000e-01    1.910000e+00
 SN5aq TC5eh  1 3.650000e-01    1.910000e+00
 SN4aq TC5eh  1 3.650000e-01    1.910000e+00
 SN3aq TC5eh  1 3.650000e-01    1.910000e+00
 SN2aq TC5eh  1 3.650000e-01    1.910000e+00
 SN1aq TC5eh  1 3.650000e-01    2.110000e+00
 SC6vq TC5eh  1 3.650000e-01    2.830000e+00
 SC5vq TC5eh  1 3.650000e-01    2.830000e+00
 SC5eh TC4vq  1 3.650000e-01    2.830000e+00
 SC5eh TC3vq  1 3.650000e-01    2.570000e+00
 SC5eh TC2vq  1 3.650000e-01    2.340000e+00
 SC5eh TC1vq  1 3.650000e-01    2.340000e+00
 SC5eh TX4vq  1 3.650000e-01    2.570000e+00
 SC5eh TX3vq  1 3.650000e-01    2.570000e+00
 SC5eh TX2vq  1 3.650000e-01    2.570000e+00
 SC5eh TX1vq  1 3.650000e-01    2.830000e+00
 SC6eq TC5eh  1 3.650000e-01    2.110000e+00
 SC5eh TC5eq  1 3.650000e-01    2.110000e+00
 SC5eh TX1eq  1 3.650000e-01    2.110000e+00
 SC5eh TX2eq  1 3.650000e-01    1.910000e+00
 SC5eh TX3eq  1 3.650000e-01    1.910000e+00
 SC5eh TX4eq  1 3.650000e-01    1.910000e+00
 SC5eh TC1eq  1 3.650000e-01    1.750000e+00
 SC5eh TC2eq  1 3.650000e-01    1.750000e+00
 SC5eh TC3eq  1 3.650000e-01    1.910000e+00
 SC5eh TC4eq  1 3.650000e-01    2.110000e+00
 SP6dq TC4eh  1 3.660000e-01    1.600000e+00
 SP5dq TC4eh  1 3.650000e-01    1.750000e+00
 SP4dq TC4eh  1 3.650000e-01    1.750000e+00
 SP3dq TC4eh  1 3.650000e-01    1.910000e+00
 SP2dq TC4eh  1 3.650000e-01    1.910000e+00
 SP1dq TC4eh  1 3.650000e-01    1.910000e+00
 SN6dq TC4eh  1 3.650000e-01    2.110000e+00
 SN5dq TC4eh  1 3.650000e-01    2.110000e+00
 SN4dq TC4eh  1 3.650000e-01    2.340000e+00
 SN3dq TC4eh  1 3.650000e-01    2.340000e+00
 SN2dq TC4eh  1 3.650000e-01    2.340000e+00
 SN1dq TC4eh  1 3.650000e-01    2.570000e+00
 SP6aq TC4eh  1 3.940000e-01    1.290000e+00
 SP5aq TC4eh  1 3.780000e-01    1.450000e+00
 SP4aq TC4eh  1 3.780000e-01    1.450000e+00
 SP3aq TC4eh  1 3.660000e-01    1.600000e+00
 SP2aq TC4eh  1 3.660000e-01    1.600000e+00
 SP1aq TC4eh  1 3.660000e-01    1.600000e+00
 SN6aq TC4eh  1 3.650000e-01    1.750000e+00
 SN5aq TC4eh  1 3.650000e-01    1.750000e+00
 SN4aq TC4eh  1 3.650000e-01    1.910000e+00
 SN3aq TC4eh  1 3.650000e-01    1.910000e+00
 SN2aq TC4eh  1 3.650000e-01    1.910000e+00
 SN1aq TC4eh  1 3.650000e-01    2.110000e+00
 SC6vq TC4eh  1 3.650000e-01    2.830000e+00
 SC5vq TC4eh  1 3.650000e-01    2.830000e+00
 SC4vq TC4eh  1 3.650000e-01    2.830000e+00
 SC4eh TC3vq  1 3.650000e-01    2.830000e+00
 SC4eh TC2vq  1 3.650000e-01    2.570000e+00
 SC4eh TC1vq  1 3.650000e-01    2.340000e+00
 SC4eh TX4vq  1 3.650000e-01    2.570000e+00
 SC4eh TX3vq  1 3.650000e-01    2.570000e+00
 SC4eh TX2vq  1 3.650000e-01    2.570000e+00
 SC4eh TX1vq  1 3.650000e-01    2.830000e+00
 SC6eq TC4eh  1 3.650000e-01    2.110000e+00
 SC5eq TC4eh  1 3.650000e-01    2.110000e+00
 SC4eh TC4eq  1 3.650000e-01    2.110000e+00
 SC4eh TX1eq  1 3.650000e-01    2.110000e+00
 SC4eh TX2eq  1 3.650000e-01    1.910000e+00
 SC4eh TX3eq  1 3.650000e-01    1.910000e+00
 SC4eh TX4eq  1 3.650000e-01    1.910000e+00
 SC4eh TC1eq  1 3.650000e-01    1.750000e+00
 SC4eh TC2eq  1 3.650000e-01    1.910000e+00
 SC4eh TC3eq  1 3.650000e-01    2.110000e+00
 SP6dq TC3eh  1 3.780000e-01    1.450000e+00
 SP5dq TC3eh  1 3.660000e-01    1.600000e+00
 SP4dq TC3eh  1 3.660000e-01    1.600000e+00
 SP3dq TC3eh  1 3.660000e-01    1.600000e+00
 SP2dq TC3eh  1 3.650000e-01    1.750000e+00
 SP1dq TC3eh  1 3.650000e-01    1.750000e+00
 SN6dq TC3eh  1 3.650000e-01    1.910000e+00
 SN5dq TC3eh  1 3.650000e-01    2.110000e+00
 SN4dq TC3eh  1 3.650000e-01    2.110000e+00
 SN3dq TC3eh  1 3.650000e-01    2.110000e+00
 SN2dq TC3eh  1 3.650000e-01    2.340000e+00
 SN1dq TC3eh  1 3.650000e-01    2.340000e+00
 SP6aq TC3eh  1 4.040000e-01    1.130000e+00
 SP5aq TC3eh  1 3.940000e-01    1.290000e+00
 SP4aq TC3eh  1 3.940000e-01    1.290000e+00
 SP3aq TC3eh  1 3.940000e-01    1.290000e+00
 SP2aq TC3eh  1 3.780000e-01    1.450000e+00
 SP1aq TC3eh  1 3.780000e-01    1.450000e+00
 SN6aq TC3eh  1 3.660000e-01    1.600000e+00
 SN5aq TC3eh  1 3.650000e-01    1.750000e+00
 SN4aq TC3eh  1 3.650000e-01    1.750000e+00
 SN3aq TC3eh  1 3.650000e-01    1.750000e+00
 SN2aq TC3eh  1 3.650000e-01    1.910000e+00
 SN1aq TC3eh  1 3.650000e-01    1.910000e+00
 SC6vq TC3eh  1 3.650000e-01    2.570000e+00
 SC5vq TC3eh  1 3.650000e-01    2.570000e+00
 SC4vq TC3eh  1 3.650000e-01    2.830000e+00
 SC3vq TC3eh  1 3.650000e-01    2.830000e+00
 SC3eh TC2vq  1 3.650000e-01    2.830000e+00
 SC3eh TC1vq  1 3.650000e-01    2.830000e+00
 SC3eh TX4vq  1 3.650000e-01    2.570000e+00
 SC3eh TX3vq  1 3.650000e-01    2.570000e+00
 SC3eh TX2vq  1 3.650000e-01    2.570000e+00
 SC3eh TX1vq  1 3.650000e-01    2.830000e+00
 SC6eq TC3eh  1 3.650000e-01    1.910000e+00
 SC5eq TC3eh  1 3.650000e-01    1.910000e+00
 SC4eq TC3eh  1 3.650000e-01    2.110000e+00
 SC3eh TC3eq  1 3.650000e-01    2.110000e+00
 SC3eh TX1eq  1 3.650000e-01    2.110000e+00
 SC3eh TX2eq  1 3.650000e-01    1.910000e+00
 SC3eh TX3eq  1 3.650000e-01    1.910000e+00
 SC3eh TX4eq  1 3.650000e-01    1.910000e+00
 SC3eh TC1eq  1 3.650000e-01    2.110000e+00
 SC3eh TC2eq  1 3.650000e-01    2.110000e+00
 SP6dq TC2eh  1 3.780000e-01    1.450000e+00
 SP5dq TC2eh  1 3.660000e-01    1.600000e+00
 SP4dq TC2eh  1 3.660000e-01    1.600000e+00
 SP3dq TC2eh  1 3.660000e-01    1.600000e+00
 SP2dq TC2eh  1 3.650000e-01    1.750000e+00
 SP1dq TC2eh  1 3.650000e-01    1.750000e+00
 SN6dq TC2eh  1 3.650000e-01    1.910000e+00
 SN5dq TC2eh  1 3.650000e-01    1.910000e+00
 SN4dq TC2eh  1 3.650000e-01    1.910000e+00
 SN3dq TC2eh  1 3.650000e-01    2.110000e+00
 SN2dq TC2eh  1 3.650000e-01    2.110000e+00
 SN1dq TC2eh  1 3.650000e-01    2.110000e+00
 SP6aq TC2eh  1 4.040000e-01    1.130000e+00
 SP5aq TC2eh  1 3.940000e-01    1.290000e+00
 SP4aq TC2eh  1 3.940000e-01    1.290000e+00
 SP3aq TC2eh  1 3.940000e-01    1.290000e+00
 SP2aq TC2eh  1 3.780000e-01    1.450000e+00
 SP1aq TC2eh  1 3.780000e-01    1.450000e+00
 SN6aq TC2eh  1 3.660000e-01    1.600000e+00
 SN5aq TC2eh  1 3.660000e-01    1.600000e+00
 SN4aq TC2eh  1 3.660000e-01    1.600000e+00
 SN3aq TC2eh  1 3.650000e-01    1.750000e+00
 SN2aq TC2eh  1 3.650000e-01    1.750000e+00
 SN1aq TC2eh  1 3.650000e-01    1.750000e+00
 SC6vq TC2eh  1 3.650000e-01    2.340000e+00
 SC5vq TC2eh  1 3.650000e-01    2.340000e+00
 SC4vq TC2eh  1 3.650000e-01    2.570000e+00
 SC3vq TC2eh  1 3.650000e-01    2.830000e+00
 SC2vq TC2eh  1 3.650000e-01    2.830000e+00
 SC2eh TC1vq  1 3.650000e-01    3.100000e+00
 SC2eh TX4vq  1 3.650000e-01    2.110000e+00
 SC2eh TX3vq  1 3.650000e-01    2.570000e+00
 SC2eh TX2vq  1 3.650000e-01    2.570000e+00
 SC2eh TX1vq  1 3.650000e-01    2.570000e+00
 SC6eq TC2eh  1 3.650000e-01    1.750000e+00
 SC5eq TC2eh  1 3.650000e-01    1.750000e+00
 SC4eq TC2eh  1 3.650000e-01    1.910000e+00
 SC3eq TC2eh  1 3.650000e-01    2.110000e+00
 SC2eh TC2eq  1 3.650000e-01    2.110000e+00
 SC2eh TX1eq  1 3.650000e-01    1.910000e+00
 SC2eh TX2eq  1 3.650000e-01    1.910000e+00
 SC2eh TX3eq  1 3.650000e-01    1.910000e+00
 SC2eh TX4eq  1 3.660000e-01    1.600000e+00
 SC2eh TC1eq  1 3.650000e-01    2.340000e+00
 SP6dq TC1eh  1 4.040000e-01    1.130000e+00
 SP5dq TC1eh  1 3.780000e-01    1.450000e+00
 SP4dq TC1eh  1 3.780000e-01    1.450000e+00
 SP3dq TC1eh  1 3.780000e-01    1.450000e+00
 SP2dq TC1eh  1 3.660000e-01    1.600000e+00
 SP1dq TC1eh  1 3.660000e-01    1.600000e+00
 SN6dq TC1eh  1 3.650000e-01    1.750000e+00
 SN5dq TC1eh  1 3.650000e-01    1.750000e+00
 SN4dq TC1eh  1 3.650000e-01    1.750000e+00
 SN3dq TC1eh  1 3.650000e-01    1.910000e+00
 SN2dq TC1eh  1 3.650000e-01    1.910000e+00
 SN1dq TC1eh  1 3.650000e-01    1.910000e+00
 SP6aq TC1eh  1 4.230000e-01    9.810000e-01
 SP5aq TC1eh  1 4.040000e-01    1.130000e+00
 SP4aq TC1eh  1 4.040000e-01    1.130000e+00
 SP3aq TC1eh  1 4.040000e-01    1.130000e+00
 SP2aq TC1eh  1 3.940000e-01    1.290000e+00
 SP1aq TC1eh  1 3.940000e-01    1.290000e+00
 SN6aq TC1eh  1 3.780000e-01    1.450000e+00
 SN5aq TC1eh  1 3.780000e-01    1.450000e+00
 SN4aq TC1eh  1 3.780000e-01    1.450000e+00
 SN3aq TC1eh  1 3.660000e-01    1.600000e+00
 SN2aq TC1eh  1 3.660000e-01    1.600000e+00
 SN1aq TC1eh  1 3.660000e-01    1.600000e+00
 SC6vq TC1eh  1 3.650000e-01    2.110000e+00
 SC5vq TC1eh  1 3.650000e-01    2.340000e+00
 SC4vq TC1eh  1 3.650000e-01    2.340000e+00
 SC3vq TC1eh  1 3.650000e-01    2.830000e+00
 SC2vq TC1eh  1 3.650000e-01    3.100000e+00
 SC1vq TC1eh  1 3.650000e-01    2.830000e+00
 SC1eh TX4vq  1 3.650000e-01    2.110000e+00
 SC1eh TX3vq  1 3.650000e-01    2.570000e+00
 SC1eh TX2vq  1 3.650000e-01    2.570000e+00
 SC1eh TX1vq  1 3.650000e-01    2.570000e+00
 SC6eq TC1eh  1 3.660000e-01    1.600000e+00
 SC5eq TC1eh  1 3.650000e-01    1.750000e+00
 SC4eq TC1eh  1 3.650000e-01    1.750000e+00
 SC3eq TC1eh  1 3.650000e-01    2.110000e+00
 SC2eq TC1eh  1 3.650000e-01    2.340000e+00
 SC1eh TC1eq  1 3.650000e-01    2.110000e+00
 SC1eh TX1eq  1 3.650000e-01    1.910000e+00
 SC1eh TX2eq  1 3.650000e-01    1.910000e+00
 SC1eh TX3eq  1 3.650000e-01    1.910000e+00
 SC1eh TX4eq  1 3.660000e-01    1.600000e+00
 SP6dq TX4eh  1 3.650000e-01    2.110000e+00
 SP5dq TX4eh  1 3.650000e-01    2.340000e+00
 SP4dq TX4eh  1 3.650000e-01    2.340000e+00
 SP3dq TX4eh  1 3.650000e-01    2.340000e+00
 SP2dq TX4eh  1 3.650000e-01    2.340000e+00
 SP1dq TX4eh  1 3.650000e-01    2.340000e+00
 SN6dq TX4eh  1 3.650000e-01    2.570000e+00
 SN5dq TX4eh  1 3.650000e-01    2.830000e+00
 SN4dq TX4eh  1 3.650000e-01    3.100000e+00
 SN3dq TX4eh  1 3.650000e-01    2.830000e+00
 SN2dq TX4eh  1 3.650000e-01    2.830000e+00
 SN1dq TX4eh  1 3.650000e-01    2.570000e+00
 SP6aq TX4eh  1 3.650000e-01    1.750000e+00
 SP5aq TX4eh  1 3.650000e-01    1.910000e+00
 SP4aq TX4eh  1 3.650000e-01    1.910000e+00
 SP3aq TX4eh  1 3.650000e-01    1.910000e+00
 SP2aq TX4eh  1 3.650000e-01    1.910000e+00
 SP1aq TX4eh  1 3.650000e-01    1.910000e+00
 SN6aq TX4eh  1 3.650000e-01    2.110000e+00
 SN5aq TX4eh  1 3.650000e-01    2.340000e+00
 SN4aq TX4eh  1 3.650000e-01    2.570000e+00
 SN3aq TX4eh  1 3.650000e-01    2.340000e+00
 SN2aq TX4eh  1 3.650000e-01    2.340000e+00
 SN1aq TX4eh  1 3.650000e-01    2.110000e+00
 SC6vq TX4eh  1 3.650000e-01    2.830000e+00
 SC5vq TX4eh  1 3.650000e-01    2.570000e+00
 SC4vq TX4eh  1 3.650000e-01    2.570000e+00
 SC3vq TX4eh  1 3.650000e-01    2.570000e+00
 SC2vq TX4eh  1 3.650000e-01    2.110000e+00
 SC1vq TX4eh  1 3.650000e-01    2.110000e+00
 SX4vq TX4eh  1 3.650000e-01    2.830000e+00
 SX4eh TX3vq  1 3.650000e-01    2.830000e+00
 SX4eh TX2vq  1 3.650000e-01    2.830000e+00
 SX4eh TX1vq  1 3.650000e-01    2.830000e+00
 SC6eq TX4eh  1 3.650000e-01    2.110000e+00
 SC5eq TX4eh  1 3.650000e-01    1.910000e+00
 SC4eq TX4eh  1 3.650000e-01    1.910000e+00
 SC3eq TX4eh  1 3.650000e-01    1.910000e+00
 SC2eq TX4eh  1 3.660000e-01    1.600000e+00
 SC1eq TX4eh  1 3.660000e-01    1.600000e+00
 SX4eh TX4eq  1 3.650000e-01    2.110000e+00
 SX4eh TX1eq  1 3.650000e-01    2.110000e+00
 SX4eh TX2eq  1 3.650000e-01    2.110000e+00
 SX4eh TX3eq  1 3.650000e-01    2.110000e+00
 SP6dq TX3eh  1 3.650000e-01    2.110000e+00
 SP5dq TX3eh  1 3.650000e-01    2.110000e+00
 SP4dq TX3eh  1 3.650000e-01    2.110000e+00
 SP3dq TX3eh  1 3.650000e-01    2.340000e+00
 SP2dq TX3eh  1 3.650000e-01    2.340000e+00
 SP1dq TX3eh  1 3.650000e-01    2.340000e+00
 SN6dq TX3eh  1 3.650000e-01    2.340000e+00
 SN5dq TX3eh  1 3.650000e-01    2.570000e+00
 SN4dq TX3eh  1 3.650000e-01    2.830000e+00
 SN3dq TX3eh  1 3.650000e-01    2.570000e+00
 SN2dq TX3eh  1 3.650000e-01    2.570000e+00
 SN1dq TX3eh  1 3.650000e-01    2.570000e+00
 SP6aq TX3eh  1 3.650000e-01    1.750000e+00
 SP5aq TX3eh  1 3.650000e-01    1.750000e+00
 SP4aq TX3eh  1 3.650000e-01    1.750000e+00
 SP3aq TX3eh  1 3.650000e-01    1.910000e+00
 SP2aq TX3eh  1 3.650000e-01    1.910000e+00
 SP1aq TX3eh  1 3.650000e-01    1.910000e+00
 SN6aq TX3eh  1 3.650000e-01    1.910000e+00
 SN5aq TX3eh  1 3.650000e-01    2.110000e+00
 SN4aq TX3eh  1 3.650000e-01    2.340000e+00
 SN3aq TX3eh  1 3.650000e-01    2.110000e+00
 SN2aq TX3eh  1 3.650000e-01    2.110000e+00
 SN1aq TX3eh  1 3.650000e-01    2.110000e+00
 SC6vq TX3eh  1 3.650000e-01    2.830000e+00
 SC5vq TX3eh  1 3.650000e-01    2.570000e+00
 SC4vq TX3eh  1 3.650000e-01    2.570000e+00
 SC3vq TX3eh  1 3.650000e-01    2.570000e+00
 SC2vq TX3eh  1 3.650000e-01    2.570000e+00
 SC1vq TX3eh  1 3.650000e-01    2.570000e+00
 SX4vq TX3eh  1 3.650000e-01    2.830000e+00
 SX3vq TX3eh  1 3.650000e-01    2.830000e+00
 SX3eh TX2vq  1 3.650000e-01    3.100000e+00
 SX3eh TX1vq  1 3.650000e-01    3.100000e+00
 SC6eq TX3eh  1 3.650000e-01    2.110000e+00
 SC5eq TX3eh  1 3.650000e-01    1.910000e+00
 SC4eq TX3eh  1 3.650000e-01    1.910000e+00
 SC3eq TX3eh  1 3.650000e-01    1.910000e+00
 SC2eq TX3eh  1 3.650000e-01    1.910000e+00
 SC1eq TX3eh  1 3.650000e-01    1.910000e+00
 SX4eq TX3eh  1 3.650000e-01    2.110000e+00
 SX3eh TX3eq  1 3.650000e-01    2.110000e+00
 SX3eh TX1eq  1 3.650000e-01    2.340000e+00
 SX3eh TX2eq  1 3.650000e-01    2.340000e+00
 SP6dq TX2eh  1 3.650000e-01    1.910000e+00
 SP5dq TX2eh  1 3.650000e-01    2.110000e+00
 SP4dq TX2eh  1 3.650000e-01    2.110000e+00
 SP3dq TX2eh  1 3.650000e-01    2.110000e+00
 SP2dq TX2eh  1 3.650000e-01    2.110000e+00
 SP1dq TX2eh  1 3.650000e-01    2.110000e+00
 SN6dq TX2eh  1 3.650000e-01    2.110000e+00
 SN5dq TX2eh  1 3.650000e-01    2.340000e+00
 SN4dq TX2eh  1 3.650000e-01    2.340000e+00
 SN3dq TX2eh  1 3.650000e-01    2.340000e+00
 SN2dq TX2eh  1 3.650000e-01    2.340000e+00
 SN1dq TX2eh  1 3.650000e-01    2.340000e+00
 SP6aq TX2eh  1 3.660000e-01    1.600000e+00
 SP5aq TX2eh  1 3.650000e-01    1.750000e+00
 SP4aq TX2eh  1 3.650000e-01    1.750000e+00
 SP3aq TX2eh  1 3.650000e-01    1.750000e+00
 SP2aq TX2eh  1 3.650000e-01    1.750000e+00
 SP1aq TX2eh  1 3.650000e-01    1.750000e+00
 SN6aq TX2eh  1 3.650000e-01    1.750000e+00
 SN5aq TX2eh  1 3.650000e-01    1.910000e+00
 SN4aq TX2eh  1 3.650000e-01    1.910000e+00
 SN3aq TX2eh  1 3.650000e-01    1.910000e+00
 SN2aq TX2eh  1 3.650000e-01    1.910000e+00
 SN1aq TX2eh  1 3.650000e-01    1.910000e+00
 SC6vq TX2eh  1 3.650000e-01    2.830000e+00
 SC5vq TX2eh  1 3.650000e-01    2.570000e+00
 SC4vq TX2eh  1 3.650000e-01    2.570000e+00
 SC3vq TX2eh  1 3.650000e-01    2.570000e+00
 SC2vq TX2eh  1 3.650000e-01    2.570000e+00
 SC1vq TX2eh  1 3.650000e-01    2.570000e+00
 SX4vq TX2eh  1 3.650000e-01    2.830000e+00
 SX3vq TX2eh  1 3.650000e-01    3.100000e+00
 SX2vq TX2eh  1 3.650000e-01    3.100000e+00
 SX2eh TX1vq  1 3.650000e-01    3.100000e+00
 SC6eq TX2eh  1 3.650000e-01    2.110000e+00
 SC5eq TX2eh  1 3.650000e-01    1.910000e+00
 SC4eq TX2eh  1 3.650000e-01    1.910000e+00
 SC3eq TX2eh  1 3.650000e-01    1.910000e+00
 SC2eq TX2eh  1 3.650000e-01    1.910000e+00
 SC1eq TX2eh  1 3.650000e-01    1.910000e+00
 SX4eq TX2eh  1 3.650000e-01    2.110000e+00
 SX3eq TX2eh  1 3.650000e-01    2.340000e+00
 SX2eh TX2eq  1 3.650000e-01    2.340000e+00
 SX2eh TX1eq  1 3.650000e-01    2.340000e+00
 SP6dq TX1eh  1 3.650000e-01    1.750000e+00
 SP5dq TX1eh  1 3.650000e-01    1.750000e+00
 SP4dq TX1eh  1 3.650000e-01    1.910000e+00
 SP3dq TX1eh  1 3.650000e-01    1.910000e+00
 SP2dq TX1eh  1 3.650000e-01    1.910000e+00
 SP1dq TX1eh  1 3.650000e-01    1.910000e+00
 SN6dq TX1eh  1 3.650000e-01    1.910000e+00
 SN5dq TX1eh  1 3.650000e-01    2.110000e+00
 SN4dq TX1eh  1 3.650000e-01    2.110000e+00
 SN3dq TX1eh  1 3.650000e-01    2.340000e+00
 SN2dq TX1eh  1 3.650000e-01    2.340000e+00
 SN1dq TX1eh  1 3.650000e-01    2.340000e+00
 SP6aq TX1eh  1 3.780000e-01    1.450000e+00
 SP5aq TX1eh  1 3.780000e-01    1.450000e+00
 SP4aq TX1eh  1 3.660000e-01    1.600000e+00
 SP3aq TX1eh  1 3.660000e-01    1.600000e+00
 SP2aq TX1eh  1 3.660000e-01    1.600000e+00
 SP1aq TX1eh  1 3.660000e-01    1.600000e+00
 SN6aq TX1eh  1 3.660000e-01    1.600000e+00
 SN5aq TX1eh  1 3.650000e-01    1.750000e+00
 SN4aq TX1eh  1 3.650000e-01    1.750000e+00
 SN3aq TX1eh  1 3.650000e-01    1.910000e+00
 SN2aq TX1eh  1 3.650000e-01    1.910000e+00
 SN1aq TX1eh  1 3.650000e-01    1.910000e+00
 SC6vq TX1eh  1 3.650000e-01    2.830000e+00
 SC5vq TX1eh  1 3.650000e-01    2.830000e+00
 SC4vq TX1eh  1 3.650000e-01    2.830000e+00
 SC3vq TX1eh  1 3.650000e-01    2.830000e+00
 SC2vq TX1eh  1 3.650000e-01    2.570000e+00
 SC1vq TX1eh  1 3.650000e-01    2.570000e+00
 SX4vq TX1eh  1 3.650000e-01    2.830000e+00
 SX3vq TX1eh  1 3.650000e-01    3.100000e+00
 SX2vq TX1eh  1 3.650000e-01    3.100000e+00
 SX1vq TX1eh  1 3.650000e-01    3.370000e+00
 SC6eq TX1eh  1 3.650000e-01    2.110000e+00
 SC5eq TX1eh  1 3.650000e-01    2.110000e+00
 SC4eq TX1eh  1 3.650000e-01    2.110000e+00
 SC3eq TX1eh  1 3.650000e-01    2.110000e+00
 SC2eq TX1eh  1 3.650000e-01    1.910000e+00
 SC1eq TX1eh  1 3.650000e-01    1.910000e+00
 SX4eq TX1eh  1 3.650000e-01    2.110000e+00
 SX3eq TX1eh  1 3.650000e-01    2.340000e+00
 SX2eq TX1eh  1 3.650000e-01    2.340000e+00
 SX1eh TX1eq  1 3.650000e-01    2.570000e+00
  SP6r  TP6d  1 3.650000e-01    3.930000e+00
  SP6r  TN1d  1 3.780000e-01    1.450000e+00
  SP6r  TN2d  1 3.660000e-01    1.600000e+00
  SP6r  TN3d  1 3.650000e-01    1.750000e+00
  SP6r  TN4d  1 3.650000e-01    1.910000e+00
  SP6r  TN5d  1 3.650000e-01    2.110000e+00
  SP6r  TN6d  1 3.650000e-01    2.570000e+00
  SP6r  TP1d  1 3.650000e-01    2.830000e+00
  SP6r  TP2d  1 3.650000e-01    3.100000e+00
  SP6r  TP3d  1 3.650000e-01    3.100000e+00
  SP6r  TP4d  1 3.650000e-01    3.370000e+00
  SP6r  TP5d  1 3.650000e-01    3.640000e+00
  SP6r  TP6a  1 3.650000e-01    3.930000e+00
  SP6r  TN1a  1 3.780000e-01    1.450000e+00
  SP6r  TN2a  1 3.660000e-01    1.600000e+00
  SP6r  TN3a  1 3.650000e-01    1.750000e+00
  SP6r  TN4a  1 3.650000e-01    1.910000e+00
  SP6r  TN5a  1 3.650000e-01    2.110000e+00
  SP6r  TN6a  1 3.650000e-01    2.570000e+00
  SP6r  TP1a  1 3.650000e-01    2.830000e+00
  SP6r  TP2a  1 3.650000e-01    3.100000e+00
  SP6r  TP3a  1 3.650000e-01    3.100000e+00
  SP6r  TP4a  1 3.650000e-01    3.370000e+00
  SP6r  TP5a  1 3.650000e-01    3.640000e+00
  SP6r  TC6v  1 3.660000e-01    1.600000e+00
  SP6r  TC5v  1 3.780000e-01    1.450000e+00
  SP6r  TC4v  1 3.940000e-01    1.290000e+00
  SP6r  TC3v  1 4.040000e-01    1.130000e+00
  SP6r  TC2v  1 4.040000e-01    1.130000e+00
  SP6r  TC1v  1 4.230000e-01    9.810000e-01
  SP6r  TX4v  1 3.650000e-01    1.750000e+00
  SP6r  TX3v  1 3.650000e-01    1.750000e+00
  SP6r  TX2v  1 3.660000e-01    1.600000e+00
  SP6r  TX1v  1 3.780000e-01    1.450000e+00
  SP6r  TC6e  1 3.660000e-01    1.600000e+00
  SP6r  TC5e  1 3.780000e-01    1.450000e+00
  SP6r  TC4e  1 3.940000e-01    1.290000e+00
  SP6r  TC3e  1 4.040000e-01    1.130000e+00
  SP6r  TC2e  1 4.040000e-01    1.130000e+00
  SP6r  TC1e  1 4.230000e-01    9.810000e-01
  SP6r  TX4e  1 3.650000e-01    1.750000e+00
  SP6r  TX3e  1 3.650000e-01    1.750000e+00
  SP6r  TX2e  1 3.660000e-01    1.600000e+00
  SP6r  TX1e  1 3.780000e-01    1.450000e+00
  SP6r  TP6q  1 3.650000e-01    4.510000e+00
  SP6r  TX1q  1 3.660000e-01    1.600000e+00
  SP6r  TX2q  1 3.650000e-01    1.750000e+00
  SP6r  TX3q  1 3.650000e-01    1.910000e+00
  SP6r  TX4q  1 3.650000e-01    1.910000e+00
  SP6r  TC1q  1 4.090000e-01    1.080000e+00
  SP6r  TC2q  1 3.940000e-01    1.290000e+00
  SP6r  TC3q  1 3.940000e-01    1.290000e+00
  SP6r  TC4q  1 3.780000e-01    1.450000e+00
  SP6r  TC5q  1 3.660000e-01    1.600000e+00
  SP6r  TC6q  1 3.650000e-01    1.750000e+00
  SP6r  TN1q  1 3.650000e-01    1.750000e+00
  SP6r  TN2q  1 3.650000e-01    1.910000e+00
  SP6r  TN3q  1 3.650000e-01    2.110000e+00
  SP6r  TN4q  1 3.650000e-01    2.340000e+00
  SP6r  TN5q  1 3.650000e-01    2.570000e+00
  SP6r  TN6q  1 3.650000e-01    3.100000e+00
  SP6r  TP1q  1 3.650000e-01    3.370000e+00
  SP6r  TP2q  1 3.650000e-01    3.640000e+00
  SP6r  TP3q  1 3.650000e-01    3.640000e+00
  SP6r  TP4q  1 3.650000e-01    3.930000e+00
  SP6r  TP5q  1 3.650000e-01    4.220000e+00
  SP6d  TP5r  1 3.650000e-01    3.640000e+00
  SP5r  TP5d  1 3.650000e-01    3.370000e+00
  SP5r  TN1d  1 3.780000e-01    1.450000e+00
  SP5r  TN2d  1 3.660000e-01    1.600000e+00
  SP5r  TN3d  1 3.650000e-01    1.750000e+00
  SP5r  TN4d  1 3.650000e-01    2.110000e+00
  SP5r  TN5d  1 3.650000e-01    2.110000e+00
  SP5r  TN6d  1 3.650000e-01    2.340000e+00
  SP5r  TP1d  1 3.650000e-01    2.570000e+00
  SP5r  TP2d  1 3.650000e-01    2.830000e+00
  SP5r  TP3d  1 3.650000e-01    2.830000e+00
  SP5r  TP4d  1 3.650000e-01    3.100000e+00
  SP6a  TP5r  1 3.650000e-01    3.640000e+00
  SP5r  TP5a  1 3.650000e-01    3.370000e+00
  SP5r  TN1a  1 3.780000e-01    1.450000e+00
  SP5r  TN2a  1 3.660000e-01    1.600000e+00
  SP5r  TN3a  1 3.650000e-01    1.750000e+00
  SP5r  TN4a  1 3.650000e-01    2.110000e+00
  SP5r  TN5a  1 3.650000e-01    2.110000e+00
  SP5r  TN6a  1 3.650000e-01    2.340000e+00
  SP5r  TP1a  1 3.650000e-01    2.570000e+00
  SP5r  TP2a  1 3.650000e-01    2.830000e+00
  SP5r  TP3a  1 3.650000e-01    2.830000e+00
  SP5r  TP4a  1 3.650000e-01    3.100000e+00
  SP5r  TC6v  1 3.660000e-01    1.600000e+00
  SP5r  TC5v  1 3.660000e-01    1.600000e+00
  SP5r  TC4v  1 3.780000e-01    1.450000e+00
  SP5r  TC3v  1 3.940000e-01    1.290000e+00
  SP5r  TC2v  1 3.940000e-01    1.290000e+00
  SP5r  TC1v  1 4.040000e-01    1.130000e+00
  SP5r  TX4v  1 3.650000e-01    1.910000e+00
  SP5r  TX3v  1 3.650000e-01    1.750000e+00
  SP5r  TX2v  1 3.650000e-01    1.750000e+00
  SP5r  TX1v  1 3.780000e-01    1.450000e+00
  SP5r  TC6e  1 3.660000e-01    1.600000e+00
  SP5r  TC5e  1 3.660000e-01    1.600000e+00
  SP5r  TC4e  1 3.780000e-01    1.450000e+00
  SP5r  TC3e  1 3.940000e-01    1.290000e+00
  SP5r  TC2e  1 3.940000e-01    1.290000e+00
  SP5r  TC1e  1 4.040000e-01    1.130000e+00
  SP5r  TX4e  1 3.650000e-01    1.910000e+00
  SP5r  TX3e  1 3.650000e-01    1.750000e+00
  SP5r  TX2e  1 3.650000e-01    1.750000e+00
  SP5r  TX1e  1 3.780000e-01    1.450000e+00
  SP6q  TP5r  1 3.650000e-01    4.220000e+00
  SP5r  TP5q  1 3.650000e-01    3.930000e+00
  SP5r  TX1q  1 3.660000e-01    1.600000e+00
  SP5r  TX2q  1 3.650000e-01    1.910000e+00
  SP5r  TX3q  1 3.650000e-01    1.910000e+00
  SP5r  TX4q  1 3.650000e-01    2.110000e+00
  SP5r  TC1q  1 3.940000e-01    1.290000e+00
  SP5r  TC2q  1 3.780000e-01    1.450000e+00
  SP5r  TC3q  1 3.780000e-01    1.450000e+00
  SP5r  TC4q  1 3.660000e-01    1.600000e+00
  SP5r  TC5q  1 3.650000e-01    1.750000e+00
  SP5r  TC6q  1 3.650000e-01    1.750000e+00
  SP5r  TN1q  1 3.650000e-01    1.750000e+00
  SP5r  TN2q  1 3.650000e-01    1.910000e+00
  SP5r  TN3q  1 3.650000e-01    2.110000e+00
  SP5r  TN4q  1 3.650000e-01    2.570000e+00
  SP5r  TN5q  1 3.650000e-01    2.570000e+00
  SP5r  TN6q  1 3.650000e-01    2.830000e+00
  SP5r  TP1q  1 3.650000e-01    3.100000e+00
  SP5r  TP2q  1 3.650000e-01    3.370000e+00
  SP5r  TP3q  1 3.650000e-01    3.370000e+00
  SP5r  TP4q  1 3.650000e-01    3.640000e+00
  SP6d  TP4r  1 3.650000e-01    3.370000e+00
  SP5d  TP4r  1 3.650000e-01    3.100000e+00
  SP4r  TP4d  1 3.650000e-01    3.100000e+00
  SP4r  TN1d  1 3.660000e-01    1.600000e+00
  SP4r  TN2d  1 3.650000e-01    1.750000e+00
  SP4r  TN3d  1 3.650000e-01    1.910000e+00
  SP4r  TN4d  1 3.650000e-01    2.110000e+00
  SP4r  TN5d  1 3.650000e-01    2.110000e+00
  SP4r  TN6d  1 3.650000e-01    2.340000e+00
  SP4r  TP1d  1 3.650000e-01    2.570000e+00
  SP4r  TP2d  1 3.650000e-01    2.830000e+00
  SP4r  TP3d  1 3.650000e-01    2.830000e+00
  SP6a  TP4r  1 3.650000e-01    3.370000e+00
  SP5a  TP4r  1 3.650000e-01    3.100000e+00
  SP4r  TP4a  1 3.650000e-01    3.100000e+00
  SP4r  TN1a  1 3.660000e-01    1.600000e+00
  SP4r  TN2a  1 3.650000e-01    1.750000e+00
  SP4r  TN3a  1 3.650000e-01    1.910000e+00
  SP4r  TN4a  1 3.650000e-01    2.110000e+00
  SP4r  TN5a  1 3.650000e-01    2.110000e+00
  SP4r  TN6a  1 3.650000e-01    2.340000e+00
  SP4r  TP1a  1 3.650000e-01    2.570000e+00
  SP4r  TP2a  1 3.650000e-01    2.830000e+00
  SP4r  TP3a  1 3.650000e-01    2.830000e+00
  SP4r  TC6v  1 3.650000e-01    1.750000e+00
  SP4r  TC5v  1 3.660000e-01    1.600000e+00
  SP4r  TC4v  1 3.780000e-01    1.450000e+00
  SP4r  TC3v  1 3.940000e-01    1.290000e+00
  SP4r  TC2v  1 3.940000e-01    1.290000e+00
  SP4r  TC1v  1 4.040000e-01    1.130000e+00
  SP4r  TX4v  1 3.650000e-01    1.910000e+00
  SP4r  TX3v  1 3.650000e-01    1.750000e+00
  SP4r  TX2v  1 3.650000e-01    1.750000e+00
  SP4r  TX1v  1 3.660000e-01    1.600000e+00
  SP4r  TC6e  1 3.650000e-01    1.750000e+00
  SP4r  TC5e  1 3.660000e-01    1.600000e+00
  SP4r  TC4e  1 3.780000e-01    1.450000e+00
  SP4r  TC3e  1 3.940000e-01    1.290000e+00
  SP4r  TC2e  1 3.940000e-01    1.290000e+00
  SP4r  TC1e  1 4.040000e-01    1.130000e+00
  SP4r  TX4e  1 3.650000e-01    1.910000e+00
  SP4r  TX3e  1 3.650000e-01    1.750000e+00
  SP4r  TX2e  1 3.650000e-01    1.750000e+00
  SP4r  TX1e  1 3.660000e-01    1.600000e+00
  SP6q  TP4r  1 3.650000e-01    3.930000e+00
  SP5q  TP4r  1 3.650000e-01    3.640000e+00
  SP4r  TP4q  1 3.650000e-01    3.640000e+00
  SP4r  TX1q  1 3.650000e-01    1.750000e+00
  SP4r  TX2q  1 3.650000e-01    1.910000e+00
  SP4r  TX3q  1 3.650000e-01    1.910000e+00
  SP4r  TX4q  1 3.650000e-01    2.110000e+00
  SP4r  TC1q  1 3.940000e-01    1.290000e+00
  SP4r  TC2q  1 3.780000e-01    1.450000e+00
  SP4r  TC3q  1 3.780000e-01    1.450000e+00
  SP4r  TC4q  1 3.660000e-01    1.600000e+00
  SP4r  TC5q  1 3.650000e-01    1.750000e+00
  SP4r  TC6q  1 3.650000e-01    1.910000e+00
  SP4r  TN1q  1 3.650000e-01    1.910000e+00
  SP4r  TN2q  1 3.650000e-01    2.110000e+00
  SP4r  TN3q  1 3.650000e-01    2.340000e+00
  SP4r  TN4q  1 3.650000e-01    2.570000e+00
  SP4r  TN5q  1 3.650000e-01    2.570000e+00
  SP4r  TN6q  1 3.650000e-01    2.830000e+00
  SP4r  TP1q  1 3.650000e-01    3.100000e+00
  SP4r  TP2q  1 3.650000e-01    3.370000e+00
  SP4r  TP3q  1 3.650000e-01    3.370000e+00
  SP6d  TP3r  1 3.650000e-01    3.100000e+00
  SP5d  TP3r  1 3.650000e-01    2.830000e+00
  SP4d  TP3r  1 3.650000e-01    2.830000e+00
  SP3r  TP3d  1 3.650000e-01    2.830000e+00
  SP3r  TN1d  1 3.650000e-01    1.750000e+00
  SP3r  TN2d  1 3.650000e-01    1.910000e+00
  SP3r  TN3d  1 3.650000e-01    1.910000e+00
  SP3r  TN4d  1 3.650000e-01    2.110000e+00
  SP3r  TN5d  1 3.650000e-01    2.110000e+00
  SP3r  TN6d  1 3.650000e-01    2.340000e+00
  SP3r  TP1d  1 3.650000e-01    2.570000e+00
  SP3r  TP2d  1 3.650000e-01    2.830000e+00
  SP6a  TP3r  1 3.650000e-01    3.100000e+00
  SP5a  TP3r  1 3.650000e-01    2.830000e+00
  SP4a  TP3r  1 3.650000e-01    2.830000e+00
  SP3r  TP3a  1 3.650000e-01    2.830000e+00
  SP3r  TN1a  1 3.650000e-01    1.750000e+00
  SP3r  TN2a  1 3.650000e-01    1.910000e+00
  SP3r  TN3a  1 3.650000e-01    1.910000e+00
  SP3r  TN4a  1 3.650000e-01    2.110000e+00
  SP3r  TN5a  1 3.650000e-01    2.110000e+00
  SP3r  TN6a  1 3.650000e-01    2.340000e+00
  SP3r  TP1a  1 3.650000e-01    2.570000e+00
  SP3r  TP2a  1 3.650000e-01    2.830000e+00
  SP3r  TC6v  1 3.650000e-01    1.910000e+00
  SP3r  TC5v  1 3.650000e-01    1.750000e+00
  SP3r  TC4v  1 3.660000e-01    1.600000e+00
  SP3r  TC3v  1 3.940000e-01    1.290000e+00
  SP3r  TC2v  1 3.940000e-01    1.290000e+00
  SP3r  TC1v  1 4.040000e-01    1.130000e+00
  SP3r  TX4v  1 3.650000e-01    1.910000e+00
  SP3r  TX3v  1 3.650000e-01    1.910000e+00
  SP3r  TX2v  1 3.650000e-01    1.750000e+00
  SP3r  TX1v  1 3.660000e-01    1.600000e+00
  SP3r  TC6e  1 3.650000e-01    1.910000e+00
  SP3r  TC5e  1 3.650000e-01    1.750000e+00
  SP3r  TC4e  1 3.660000e-01    1.600000e+00
  SP3r  TC3e  1 3.940000e-01    1.290000e+00
  SP3r  TC2e  1 3.940000e-01    1.290000e+00
  SP3r  TC1e  1 4.040000e-01    1.130000e+00
  SP3r  TX4e  1 3.650000e-01    1.910000e+00
  SP3r  TX3e  1 3.650000e-01    1.910000e+00
  SP3r  TX2e  1 3.650000e-01    1.750000e+00
  SP3r  TX1e  1 3.660000e-01    1.600000e+00
  SP6q  TP3r  1 3.650000e-01    3.640000e+00
  SP5q  TP3r  1 3.650000e-01    3.370000e+00
  SP4q  TP3r  1 3.650000e-01    3.370000e+00
  SP3r  TP3q  1 3.650000e-01    3.370000e+00
  SP3r  TX1q  1 3.650000e-01    1.750000e+00
  SP3r  TX2q  1 3.650000e-01    1.910000e+00
  SP3r  TX3q  1 3.650000e-01    2.110000e+00
  SP3r  TX4q  1 3.650000e-01    2.110000e+00
  SP3r  TC1q  1 3.940000e-01    1.290000e+00
  SP3r  TC2q  1 3.780000e-01    1.450000e+00
  SP3r  TC3q  1 3.780000e-01    1.450000e+00
  SP3r  TC4q  1 3.650000e-01    1.750000e+00
  SP3r  TC5q  1 3.650000e-01    1.910000e+00
  SP3r  TC6q  1 3.650000e-01    2.110000e+00
  SP3r  TN1q  1 3.650000e-01    2.110000e+00
  SP3r  TN2q  1 3.650000e-01    2.340000e+00
  SP3r  TN3q  1 3.650000e-01    2.340000e+00
  SP3r  TN4q  1 3.650000e-01    2.570000e+00
  SP3r  TN5q  1 3.650000e-01    2.570000e+00
  SP3r  TN6q  1 3.650000e-01    2.830000e+00
  SP3r  TP1q  1 3.650000e-01    3.100000e+00
  SP3r  TP2q  1 3.650000e-01    3.370000e+00
  SP6d  TP2r  1 3.650000e-01    3.100000e+00
  SP5d  TP2r  1 3.650000e-01    2.830000e+00
  SP4d  TP2r  1 3.650000e-01    2.830000e+00
  SP3d  TP2r  1 3.650000e-01    2.830000e+00
  SP2r  TP2d  1 3.650000e-01    2.830000e+00
  SP2r  TN1d  1 3.650000e-01    1.910000e+00
  SP2r  TN2d  1 3.650000e-01    1.910000e+00
  SP2r  TN3d  1 3.650000e-01    1.910000e+00
  SP2r  TN4d  1 3.650000e-01    2.110000e+00
  SP2r  TN5d  1 3.650000e-01    2.340000e+00
  SP2r  TN6d  1 3.650000e-01    2.570000e+00
  SP2r  TP1d  1 3.650000e-01    2.570000e+00
  SP6a  TP2r  1 3.650000e-01    3.100000e+00
  SP5a  TP2r  1 3.650000e-01    2.830000e+00
  SP4a  TP2r  1 3.650000e-01    2.830000e+00
  SP3a  TP2r  1 3.650000e-01    2.830000e+00
  SP2r  TP2a  1 3.650000e-01    2.830000e+00
  SP2r  TN1a  1 3.650000e-01    1.910000e+00
  SP2r  TN2a  1 3.650000e-01    1.910000e+00
  SP2r  TN3a  1 3.650000e-01    1.910000e+00
  SP2r  TN4a  1 3.650000e-01    2.110000e+00
  SP2r  TN5a  1 3.650000e-01    2.340000e+00
  SP2r  TN6a  1 3.650000e-01    2.570000e+00
  SP2r  TP1a  1 3.650000e-01    2.570000e+00
  SP2r  TC6v  1 3.650000e-01    1.910000e+00
  SP2r  TC5v  1 3.650000e-01    1.750000e+00
  SP2r  TC4v  1 3.660000e-01    1.600000e+00
  SP2r  TC3v  1 3.780000e-01    1.450000e+00
  SP2r  TC2v  1 3.780000e-01    1.450000e+00
  SP2r  TC1v  1 3.940000e-01    1.290000e+00
  SP2r  TX4v  1 3.650000e-01    1.910000e+00
  SP2r  TX3v  1 3.650000e-01    1.910000e+00
  SP2r  TX2v  1 3.650000e-01    1.750000e+00
  SP2r  TX1v  1 3.660000e-01    1.600000e+00
  SP2r  TC6e  1 3.650000e-01    1.910000e+00
  SP2r  TC5e  1 3.650000e-01    1.750000e+00
  SP2r  TC4e  1 3.660000e-01    1.600000e+00
  SP2r  TC3e  1 3.780000e-01    1.450000e+00
  SP2r  TC2e  1 3.780000e-01    1.450000e+00
  SP2r  TC1e  1 3.940000e-01    1.290000e+00
  SP2r  TX4e  1 3.650000e-01    1.910000e+00
  SP2r  TX3e  1 3.650000e-01    1.910000e+00
  SP2r  TX2e  1 3.650000e-01    1.750000e+00
  SP2r  TX1e  1 3.660000e-01    1.600000e+00
  SP6q  TP2r  1 3.650000e-01    3.640000e+00
  SP5q  TP2r  1 3.650000e-01    3.370000e+00
  SP4q  TP2r  1 3.650000e-01    3.370000e+00
  SP3q  TP2r  1 3.650000e-01    3.370000e+00
  SP2r  TP2q  1 3.650000e-01    3.370000e+00
  SP2r  TX1q  1 3.650000e-01    1.750000e+00
  SP2r  TX2q  1 3.650000e-01    1.910000e+00
  SP2r  TX3q  1 3.650000e-01    2.110000e+00
  SP2r  TX4q  1 3.650000e-01    2.110000e+00
  SP2r  TC1q  1 3.780000e-01    1.450000e+00
  SP2r  TC2q  1 3.660000e-01    1.600000e+00
  SP2r  TC3q  1 3.660000e-01    1.600000e+00
  SP2r  TC4q  1 3.650000e-01    1.750000e+00
  SP2r  TC5q  1 3.650000e-01    1.910000e+00
  SP2r  TC6q  1 3.650000e-01    2.110000e+00
  SP2r  TN1q  1 3.650000e-01    2.340000e+00
  SP2r  TN2q  1 3.650000e-01    2.340000e+00
  SP2r  TN3q  1 3.650000e-01    2.340000e+00
  SP2r  TN4q  1 3.650000e-01    2.570000e+00
  SP2r  TN5q  1 3.650000e-01    2.830000e+00
  SP2r  TN6q  1 3.650000e-01    3.100000e+00
  SP2r  TP1q  1 3.650000e-01    3.100000e+00
  SP6d  TP1r  1 3.650000e-01    2.830000e+00
  SP5d  TP1r  1 3.650000e-01    2.570000e+00
  SP4d  TP1r  1 3.650000e-01    2.570000e+00
  SP3d  TP1r  1 3.650000e-01    2.570000e+00
  SP2d  TP1r  1 3.650000e-01    2.570000e+00
  SP1r  TP1d  1 3.650000e-01    2.570000e+00
  SP1r  TN1d  1 3.650000e-01    1.910000e+00
  SP1r  TN2d  1 3.650000e-01    1.910000e+00
  SP1r  TN3d  1 3.650000e-01    1.910000e+00
  SP1r  TN4d  1 3.650000e-01    2.340000e+00
  SP1r  TN5d  1 3.650000e-01    2.340000e+00
  SP1r  TN6d  1 3.650000e-01    2.570000e+00
  SP6a  TP1r  1 3.650000e-01    2.830000e+00
  SP5a  TP1r  1 3.650000e-01    2.570000e+00
  SP4a  TP1r  1 3.650000e-01    2.570000e+00
  SP3a  TP1r  1 3.650000e-01    2.570000e+00
  SP2a  TP1r  1 3.650000e-01    2.570000e+00
  SP1r  TP1a  1 3.650000e-01    2.570000e+00
  SP1r  TN1a  1 3.650000e-01    1.910000e+00
  SP1r  TN2a  1 3.650000e-01    1.910000e+00
  SP1r  TN3a  1 3.650000e-01    1.910000e+00
  SP1r  TN4a  1 3.650000e-01    2.340000e+00
  SP1r  TN5a  1 3.650000e-01    2.340000e+00
  SP1r  TN6a  1 3.650000e-01    2.570000e+00
  SP1r  TC6v  1 3.650000e-01    1.910000e+00
  SP1r  TC5v  1 3.650000e-01    1.750000e+00
  SP1r  TC4v  1 3.660000e-01    1.600000e+00
  SP1r  TC3v  1 3.780000e-01    1.450000e+00
  SP1r  TC2v  1 3.780000e-01    1.450000e+00
  SP1r  TC1v  1 3.940000e-01    1.290000e+00
  SP1r  TX4v  1 3.650000e-01    1.910000e+00
  SP1r  TX3v  1 3.650000e-01    1.910000e+00
  SP1r  TX2v  1 3.650000e-01    1.750000e+00
  SP1r  TX1v  1 3.660000e-01    1.600000e+00
  SP1r  TC6e  1 3.650000e-01    1.910000e+00
  SP1r  TC5e  1 3.650000e-01    1.750000e+00
  SP1r  TC4e  1 3.660000e-01    1.600000e+00
  SP1r  TC3e  1 3.780000e-01    1.450000e+00
  SP1r  TC2e  1 3.780000e-01    1.450000e+00
  SP1r  TC1e  1 3.940000e-01    1.290000e+00
  SP1r  TX4e  1 3.650000e-01    1.910000e+00
  SP1r  TX3e  1 3.650000e-01    1.910000e+00
  SP1r  TX2e  1 3.650000e-01    1.750000e+00
  SP1r  TX1e  1 3.660000e-01    1.600000e+00
  SP6q  TP1r  1 3.650000e-01    3.370000e+00
  SP5q  TP1r  1 3.650000e-01    3.100000e+00
  SP4q  TP1r  1 3.650000e-01    3.100000e+00
  SP3q  TP1r  1 3.650000e-01    3.100000e+00
  SP2q  TP1r  1 3.650000e-01    3.100000e+00
  SP1r  TP1q  1 3.650000e-01    3.100000e+00
  SP1r  TX1q  1 3.650000e-01    1.750000e+00
  SP1r  TX2q  1 3.650000e-01    1.910000e+00
  SP1r  TX3q  1 3.650000e-01    2.110000e+00
  SP1r  TX4q  1 3.650000e-01    2.110000e+00
  SP1r  TC1q  1 3.780000e-01    1.450000e+00
  SP1r  TC2q  1 3.660000e-01    1.600000e+00
  SP1r  TC3q  1 3.660000e-01    1.600000e+00
  SP1r  TC4q  1 3.650000e-01    1.750000e+00
  SP1r  TC5q  1 3.650000e-01    1.910000e+00
  SP1r  TC6q  1 3.650000e-01    2.110000e+00
  SP1r  TN1q  1 3.650000e-01    2.340000e+00
  SP1r  TN2q  1 3.650000e-01    2.340000e+00
  SP1r  TN3q  1 3.650000e-01    2.340000e+00
  SP1r  TN4q  1 3.650000e-01    2.830000e+00
  SP1r  TN5q  1 3.650000e-01    2.830000e+00
  SP1r  TN6q  1 3.650000e-01    3.100000e+00
  SP6d  TN6r  1 3.650000e-01    2.570000e+00
  SP5d  TN6r  1 3.650000e-01    2.340000e+00
  SP4d  TN6r  1 3.650000e-01    2.340000e+00
  SP3d  TN6r  1 3.650000e-01    2.340000e+00
  SP2d  TN6r  1 3.650000e-01    2.570000e+00
  SP1d  TN6r  1 3.650000e-01    2.570000e+00
  SN6r  TN6d  1 3.650000e-01    2.570000e+00
  SN6r  TN1d  1 3.650000e-01    1.910000e+00
  SN6r  TN2d  1 3.650000e-01    1.910000e+00
  SN6r  TN3d  1 3.650000e-01    2.110000e+00
  SN6r  TN4d  1 3.650000e-01    2.570000e+00
  SN6r  TN5d  1 3.650000e-01    2.570000e+00
  SP6a  TN6r  1 3.650000e-01    2.570000e+00
  SP5a  TN6r  1 3.650000e-01    2.340000e+00
  SP4a  TN6r  1 3.650000e-01    2.340000e+00
  SP3a  TN6r  1 3.650000e-01    2.340000e+00
  SP2a  TN6r  1 3.650000e-01    2.570000e+00
  SP1a  TN6r  1 3.650000e-01    2.570000e+00
  SN6r  TN6a  1 3.650000e-01    2.570000e+00
  SN6r  TN1a  1 3.650000e-01    1.910000e+00
  SN6r  TN2a  1 3.650000e-01    1.910000e+00
  SN6r  TN3a  1 3.650000e-01    2.110000e+00
  SN6r  TN4a  1 3.650000e-01    2.570000e+00
  SN6r  TN5a  1 3.650000e-01    2.570000e+00
  SN6r  TC6v  1 3.650000e-01    2.110000e+00
  SN6r  TC5v  1 3.650000e-01    1.910000e+00
  SN6r  TC4v  1 3.650000e-01    1.750000e+00
  SN6r  TC3v  1 3.660000e-01    1.600000e+00
  SN6r  TC2v  1 3.660000e-01    1.600000e+00
  SN6r  TC1v  1 3.780000e-01    1.450000e+00
  SN6r  TX4v  1 3.650000e-01    2.110000e+00
  SN6r  TX3v  1 3.650000e-01    1.910000e+00
  SN6r  TX2v  1 3.650000e-01    1.750000e+00
  SN6r  TX1v  1 3.660000e-01    1.600000e+00
  SN6r  TC6e  1 3.650000e-01    2.110000e+00
  SN6r  TC5e  1 3.650000e-01    1.910000e+00
  SN6r  TC4e  1 3.650000e-01    1.750000e+00
  SN6r  TC3e  1 3.660000e-01    1.600000e+00
  SN6r  TC2e  1 3.660000e-01    1.600000e+00
  SN6r  TC1e  1 3.780000e-01    1.450000e+00
  SN6r  TX4e  1 3.650000e-01    2.110000e+00
  SN6r  TX3e  1 3.650000e-01    1.910000e+00
  SN6r  TX2e  1 3.650000e-01    1.750000e+00
  SN6r  TX1e  1 3.660000e-01    1.600000e+00
  SP6q  TN6r  1 3.650000e-01    3.100000e+00
  SP5q  TN6r  1 3.650000e-01    2.830000e+00
  SP4q  TN6r  1 3.650000e-01    2.830000e+00
  SP3q  TN6r  1 3.650000e-01    2.830000e+00
  SP2q  TN6r  1 3.650000e-01    3.100000e+00
  SP1q  TN6r  1 3.650000e-01    3.100000e+00
  SN6r  TN6q  1 3.650000e-01    3.100000e+00
  SN6r  TX1q  1 3.650000e-01    1.750000e+00
  SN6r  TX2q  1 3.650000e-01    1.910000e+00
  SN6r  TX3q  1 3.650000e-01    2.110000e+00
  SN6r  TX4q  1 3.650000e-01    2.340000e+00
  SN6r  TC1q  1 3.660000e-01    1.600000e+00
  SN6r  TC2q  1 3.650000e-01    1.750000e+00
  SN6r  TC3q  1 3.650000e-01    1.750000e+00
  SN6r  TC4q  1 3.650000e-01    1.910000e+00
  SN6r  TC5q  1 3.650000e-01    2.110000e+00
  SN6r  TC6q  1 3.650000e-01    2.340000e+00
  SN6r  TN1q  1 3.650000e-01    2.340000e+00
  SN6r  TN2q  1 3.650000e-01    2.340000e+00
  SN6r  TN3q  1 3.650000e-01    2.570000e+00
  SN6r  TN4q  1 3.650000e-01    3.100000e+00
  SN6r  TN5q  1 3.650000e-01    3.100000e+00
  SP6d  TN5r  1 3.650000e-01    2.110000e+00
  SP5d  TN5r  1 3.650000e-01    2.110000e+00
  SP4d  TN5r  1 3.650000e-01    2.110000e+00
  SP3d  TN5r  1 3.650000e-01    2.110000e+00
  SP2d  TN5r  1 3.650000e-01    2.340000e+00
  SP1d  TN5r  1 3.650000e-01    2.340000e+00
  SN6d  TN5r  1 3.650000e-01    2.570000e+00
  SN5r  TN5d  1 3.650000e-01    2.340000e+00
  SN5r  TN1d  1 3.650000e-01    1.910000e+00
  SN5r  TN2d  1 3.650000e-01    2.110000e+00
  SN5r  TN3d  1 3.650000e-01    2.110000e+00
  SN5r  TN4d  1 3.650000e-01    2.340000e+00
  SP6a  TN5r  1 3.650000e-01    2.110000e+00
  SP5a  TN5r  1 3.650000e-01    2.110000e+00
  SP4a  TN5r  1 3.650000e-01    2.110000e+00
  SP3a  TN5r  1 3.650000e-01    2.110000e+00
  SP2a  TN5r  1 3.650000e-01    2.340000e+00
  SP1a  TN5r  1 3.650000e-01    2.340000e+00
  SN6a  TN5r  1 3.650000e-01    2.570000e+00
  SN5r  TN5a  1 3.650000e-01    2.340000e+00
  SN5r  TN1a  1 3.650000e-01    1.910000e+00
  SN5r  TN2a  1 3.650000e-01    2.110000e+00
  SN5r  TN3a  1 3.650000e-01    2.110000e+00
  SN5r  TN4a  1 3.650000e-01    2.340000e+00
  SN5r  TC6v  1 3.650000e-01    2.110000e+00
  SN5r  TC5v  1 3.650000e-01    1.910000e+00
  SN5r  TC4v  1 3.650000e-01    1.750000e+00
  SN5r  TC3v  1 3.650000e-01    1.750000e+00
  SN5r  TC2v  1 3.660000e-01    1.600000e+00
  SN5r  TC1v  1 3.780000e-01    1.450000e+00
  SN5r  TX4v  1 3.650000e-01    2.340000e+00
  SN5r  TX3v  1 3.650000e-01    2.110000e+00
  SN5r  TX2v  1 3.650000e-01    1.910000e+00
  SN5r  TX1v  1 3.650000e-01    1.750000e+00
  SN5r  TC6e  1 3.650000e-01    2.110000e+00
  SN5r  TC5e  1 3.650000e-01    1.910000e+00
  SN5r  TC4e  1 3.650000e-01    1.750000e+00
  SN5r  TC3e  1 3.650000e-01    1.750000e+00
  SN5r  TC2e  1 3.660000e-01    1.600000e+00
  SN5r  TC1e  1 3.780000e-01    1.450000e+00
  SN5r  TX4e  1 3.650000e-01    2.340000e+00
  SN5r  TX3e  1 3.650000e-01    2.110000e+00
  SN5r  TX2e  1 3.650000e-01    1.910000e+00
  SN5r  TX1e  1 3.650000e-01    1.750000e+00
  SP6q  TN5r  1 3.650000e-01    2.570000e+00
  SP5q  TN5r  1 3.650000e-01    2.570000e+00
  SP4q  TN5r  1 3.650000e-01    2.570000e+00
  SP3q  TN5r  1 3.650000e-01    2.570000e+00
  SP2q  TN5r  1 3.650000e-01    2.830000e+00
  SP1q  TN5r  1 3.650000e-01    2.830000e+00
  SN6q  TN5r  1 3.650000e-01    3.100000e+00
  SN5r  TN5q  1 3.650000e-01    2.830000e+00
  SN5r  TX1q  1 3.650000e-01    1.910000e+00
  SN5r  TX2q  1 3.650000e-01    2.110000e+00
  SN5r  TX3q  1 3.650000e-01    2.340000e+00
  SN5r  TX4q  1 3.650000e-01    2.570000e+00
  SN5r  TC1q  1 3.660000e-01    1.600000e+00
  SN5r  TC2q  1 3.650000e-01    1.750000e+00
  SN5r  TC3q  1 3.650000e-01    1.910000e+00
  SN5r  TC4q  1 3.650000e-01    1.910000e+00
  SN5r  TC5q  1 3.650000e-01    2.110000e+00
  SN5r  TC6q  1 3.650000e-01    2.340000e+00
  SN5r  TN1q  1 3.650000e-01    2.340000e+00
  SN5r  TN2q  1 3.650000e-01    2.570000e+00
  SN5r  TN3q  1 3.650000e-01    2.570000e+00
  SN5r  TN4q  1 3.650000e-01    2.830000e+00
  SP6d  TN4r  1 3.650000e-01    1.910000e+00
  SP5d  TN4r  1 3.650000e-01    2.110000e+00
  SP4d  TN4r  1 3.650000e-01    2.110000e+00
  SP3d  TN4r  1 3.650000e-01    2.110000e+00
  SP2d  TN4r  1 3.650000e-01    2.110000e+00
  SP1d  TN4r  1 3.650000e-01    2.340000e+00
  SN6d  TN4r  1 3.650000e-01    2.570000e+00
  SN5d  TN4r  1 3.650000e-01    2.340000e+00
  SN4r  TN4d  1 3.650000e-01    2.340000e+00
  SN4r  TN1d  1 3.650000e-01    1.910000e+00
  SN4r  TN2d  1 3.650000e-01    2.110000e+00
  SN4r  TN3d  1 3.650000e-01    2.110000e+00
  SP6a  TN4r  1 3.650000e-01    1.910000e+00
  SP5a  TN4r  1 3.650000e-01    2.110000e+00
  SP4a  TN4r  1 3.650000e-01    2.110000e+00
  SP3a  TN4r  1 3.650000e-01    2.110000e+00
  SP2a  TN4r  1 3.650000e-01    2.110000e+00
  SP1a  TN4r  1 3.650000e-01    2.340000e+00
  SN6a  TN4r  1 3.650000e-01    2.570000e+00
  SN5a  TN4r  1 3.650000e-01    2.340000e+00
  SN4r  TN4a  1 3.650000e-01    2.340000e+00
  SN4r  TN1a  1 3.650000e-01    1.910000e+00
  SN4r  TN2a  1 3.650000e-01    2.110000e+00
  SN4r  TN3a  1 3.650000e-01    2.110000e+00
  SN4r  TC6v  1 3.650000e-01    2.110000e+00
  SN4r  TC5v  1 3.650000e-01    1.910000e+00
  SN4r  TC4v  1 3.650000e-01    1.910000e+00
  SN4r  TC3v  1 3.650000e-01    1.750000e+00
  SN4r  TC2v  1 3.660000e-01    1.600000e+00
  SN4r  TC1v  1 3.780000e-01    1.450000e+00
  SN4r  TX4v  1 3.650000e-01    2.570000e+00
  SN4r  TX3v  1 3.650000e-01    2.340000e+00
  SN4r  TX2v  1 3.650000e-01    1.910000e+00
  SN4r  TX1v  1 3.650000e-01    1.750000e+00
  SN4r  TC6e  1 3.650000e-01    2.110000e+00
  SN4r  TC5e  1 3.650000e-01    1.910000e+00
  SN4r  TC4e  1 3.650000e-01    1.910000e+00
  SN4r  TC3e  1 3.650000e-01    1.750000e+00
  SN4r  TC2e  1 3.660000e-01    1.600000e+00
  SN4r  TC1e  1 3.780000e-01    1.450000e+00
  SN4r  TX4e  1 3.650000e-01    2.570000e+00
  SN4r  TX3e  1 3.650000e-01    2.340000e+00
  SN4r  TX2e  1 3.650000e-01    1.910000e+00
  SN4r  TX1e  1 3.650000e-01    1.750000e+00
  SP6q  TN4r  1 3.650000e-01    2.340000e+00
  SP5q  TN4r  1 3.650000e-01    2.570000e+00
  SP4q  TN4r  1 3.650000e-01    2.570000e+00
  SP3q  TN4r  1 3.650000e-01    2.570000e+00
  SP2q  TN4r  1 3.650000e-01    2.570000e+00
  SP1q  TN4r  1 3.650000e-01    2.830000e+00
  SN6q  TN4r  1 3.650000e-01    3.100000e+00
  SN5q  TN4r  1 3.650000e-01    2.830000e+00
  SN4r  TN4q  1 3.650000e-01    2.830000e+00
  SN4r  TX1q  1 3.650000e-01    1.910000e+00
  SN4r  TX2q  1 3.650000e-01    2.110000e+00
  SN4r  TX3q  1 3.650000e-01    2.570000e+00
  SN4r  TX4q  1 3.650000e-01    2.830000e+00
  SN4r  TC1q  1 3.660000e-01    1.600000e+00
  SN4r  TC2q  1 3.650000e-01    1.750000e+00
  SN4r  TC3q  1 3.650000e-01    1.910000e+00
  SN4r  TC4q  1 3.650000e-01    2.110000e+00
  SN4r  TC5q  1 3.650000e-01    2.110000e+00
  SN4r  TC6q  1 3.650000e-01    2.340000e+00
  SN4r  TN1q  1 3.650000e-01    2.340000e+00
  SN4r  TN2q  1 3.650000e-01    2.570000e+00
  SN4r  TN3q  1 3.650000e-01    2.570000e+00
  SP6d  TN3r  1 3.650000e-01    1.750000e+00
  SP5d  TN3r  1 3.650000e-01    1.750000e+00
  SP4d  TN3r  1 3.650000e-01    1.910000e+00
  SP3d  TN3r  1 3.650000e-01    1.910000e+00
  SP2d  TN3r  1 3.650000e-01    1.910000e+00
  SP1d  TN3r  1 3.650000e-01    1.910000e+00
  SN6d  TN3r  1 3.650000e-01    2.110000e+00
  SN5d  TN3r  1 3.650000e-01    2.110000e+00
  SN4d  TN3r  1 3.650000e-01    2.110000e+00
  SN3r  TN3d  1 3.650000e-01    2.110000e+00
  SN3r  TN1d  1 3.650000e-01    1.910000e+00
  SN3r  TN2d  1 3.650000e-01    2.110000e+00
  SP6a  TN3r  1 3.650000e-01    1.750000e+00
  SP5a  TN3r  1 3.650000e-01    1.750000e+00
  SP4a  TN3r  1 3.650000e-01    1.910000e+00
  SP3a  TN3r  1 3.650000e-01    1.910000e+00
  SP2a  TN3r  1 3.650000e-01    1.910000e+00
  SP1a  TN3r  1 3.650000e-01    1.910000e+00
  SN6a  TN3r  1 3.650000e-01    2.110000e+00
  SN5a  TN3r  1 3.650000e-01    2.110000e+00
  SN4a  TN3r  1 3.650000e-01    2.110000e+00
  SN3r  TN3a  1 3.650000e-01    2.110000e+00
  SN3r  TN1a  1 3.650000e-01    1.910000e+00
  SN3r  TN2a  1 3.650000e-01    2.110000e+00
  SN3r  TC6v  1 3.650000e-01    2.110000e+00
  SN3r  TC5v  1 3.650000e-01    1.910000e+00
  SN3r  TC4v  1 3.650000e-01    1.910000e+00
  SN3r  TC3v  1 3.650000e-01    1.750000e+00
  SN3r  TC2v  1 3.650000e-01    1.750000e+00
  SN3r  TC1v  1 3.660000e-01    1.600000e+00
  SN3r  TX4v  1 3.650000e-01    2.340000e+00
  SN3r  TX3v  1 3.650000e-01    2.110000e+00
  SN3r  TX2v  1 3.650000e-01    1.910000e+00
  SN3r  TX1v  1 3.650000e-01    1.910000e+00
  SN3r  TC6e  1 3.650000e-01    2.110000e+00
  SN3r  TC5e  1 3.650000e-01    1.910000e+00
  SN3r  TC4e  1 3.650000e-01    1.910000e+00
  SN3r  TC3e  1 3.650000e-01    1.750000e+00
  SN3r  TC2e  1 3.650000e-01    1.750000e+00
  SN3r  TC1e  1 3.660000e-01    1.600000e+00
  SN3r  TX4e  1 3.650000e-01    2.340000e+00
  SN3r  TX3e  1 3.650000e-01    2.110000e+00
  SN3r  TX2e  1 3.650000e-01    1.910000e+00
  SN3r  TX1e  1 3.650000e-01    1.910000e+00
  SP6q  TN3r  1 3.650000e-01    2.110000e+00
  SP5q  TN3r  1 3.650000e-01    2.110000e+00
  SP4q  TN3r  1 3.650000e-01    2.340000e+00
  SP3q  TN3r  1 3.650000e-01    2.340000e+00
  SP2q  TN3r  1 3.650000e-01    2.340000e+00
  SP1q  TN3r  1 3.650000e-01    2.340000e+00
  SN6q  TN3r  1 3.650000e-01    2.570000e+00
  SN5q  TN3r  1 3.650000e-01    2.570000e+00
  SN4q  TN3r  1 3.650000e-01    2.570000e+00
  SN3r  TN3q  1 3.650000e-01    2.570000e+00
  SN3r  TX1q  1 3.650000e-01    2.110000e+00
  SN3r  TX2q  1 3.650000e-01    2.110000e+00
  SN3r  TX3q  1 3.650000e-01    2.340000e+00
  SN3r  TX4q  1 3.650000e-01    2.570000e+00
  SN3r  TC1q  1 3.650000e-01    1.750000e+00
  SN3r  TC2q  1 3.650000e-01    1.910000e+00
  SN3r  TC3q  1 3.650000e-01    1.910000e+00
  SN3r  TC4q  1 3.650000e-01    2.110000e+00
  SN3r  TC5q  1 3.650000e-01    2.110000e+00
  SN3r  TC6q  1 3.650000e-01    2.340000e+00
  SN3r  TN1q  1 3.650000e-01    2.340000e+00
  SN3r  TN2q  1 3.650000e-01    2.570000e+00
  SP6d  TN2r  1 3.660000e-01    1.600000e+00
  SP5d  TN2r  1 3.660000e-01    1.600000e+00
  SP4d  TN2r  1 3.650000e-01    1.750000e+00
  SP3d  TN2r  1 3.650000e-01    1.910000e+00
  SP2d  TN2r  1 3.650000e-01    1.910000e+00
  SP1d  TN2r  1 3.650000e-01    1.910000e+00
  SN6d  TN2r  1 3.650000e-01    1.910000e+00
  SN5d  TN2r  1 3.650000e-01    2.110000e+00
  SN4d  TN2r  1 3.650000e-01    2.110000e+00
  SN3d  TN2r  1 3.650000e-01    2.110000e+00
  SN2r  TN2d  1 3.650000e-01    2.110000e+00
  SN2r  TN1d  1 3.650000e-01    1.910000e+00
  SP6a  TN2r  1 3.660000e-01    1.600000e+00
  SP5a  TN2r  1 3.660000e-01    1.600000e+00
  SP4a  TN2r  1 3.650000e-01    1.750000e+00
  SP3a  TN2r  1 3.650000e-01    1.910000e+00
  SP2a  TN2r  1 3.650000e-01    1.910000e+00
  SP1a  TN2r  1 3.650000e-01    1.910000e+00
  SN6a  TN2r  1 3.650000e-01    1.910000e+00
  SN5a  TN2r  1 3.650000e-01    2.110000e+00
  SN4a  TN2r  1 3.650000e-01    2.110000e+00
  SN3a  TN2r  1 3.650000e-01    2.110000e+00
  SN2r  TN2a  1 3.650000e-01    2.110000e+00
  SN2r  TN1a  1 3.650000e-01    1.910000e+00
  SN2r  TC6v  1 3.650000e-01    2.110000e+00
  SN2r  TC5v  1 3.650000e-01    1.910000e+00
  SN2r  TC4v  1 3.650000e-01    1.910000e+00
  SN2r  TC3v  1 3.650000e-01    1.910000e+00
  SN2r  TC2v  1 3.650000e-01    1.750000e+00
  SN2r  TC1v  1 3.660000e-01    1.600000e+00
  SN2r  TX4v  1 3.650000e-01    2.340000e+00
  SN2r  TX3v  1 3.650000e-01    2.110000e+00
  SN2r  TX2v  1 3.650000e-01    1.910000e+00
  SN2r  TX1v  1 3.650000e-01    1.910000e+00
  SN2r  TC6e  1 3.650000e-01    2.110000e+00
  SN2r  TC5e  1 3.650000e-01    1.910000e+00
  SN2r  TC4e  1 3.650000e-01    1.910000e+00
  SN2r  TC3e  1 3.650000e-01    1.910000e+00
  SN2r  TC2e  1 3.650000e-01    1.750000e+00
  SN2r  TC1e  1 3.660000e-01    1.600000e+00
  SN2r  TX4e  1 3.650000e-01    2.340000e+00
  SN2r  TX3e  1 3.650000e-01    2.110000e+00
  SN2r  TX2e  1 3.650000e-01    1.910000e+00
  SN2r  TX1e  1 3.650000e-01    1.910000e+00
  SP6q  TN2r  1 3.650000e-01    1.910000e+00
  SP5q  TN2r  1 3.650000e-01    1.910000e+00
  SP4q  TN2r  1 3.650000e-01    2.110000e+00
  SP3q  TN2r  1 3.650000e-01    2.340000e+00
  SP2q  TN2r  1 3.650000e-01    2.340000e+00
  SP1q  TN2r  1 3.650000e-01    2.340000e+00
  SN6q  TN2r  1 3.650000e-01    2.340000e+00
  SN5q  TN2r  1 3.650000e-01    2.570000e+00
  SN4q  TN2r  1 3.650000e-01    2.570000e+00
  SN3q  TN2r  1 3.650000e-01    2.570000e+00
  SN2r  TN2q  1 3.650000e-01    2.570000e+00
  SN2r  TX1q  1 3.650000e-01    2.110000e+00
  SN2r  TX2q  1 3.650000e-01    2.110000e+00
  SN2r  TX3q  1 3.650000e-01    2.340000e+00
  SN2r  TX4q  1 3.650000e-01    2.570000e+00
  SN2r  TC1q  1 3.650000e-01    1.750000e+00
  SN2r  TC2q  1 3.650000e-01    1.910000e+00
  SN2r  TC3q  1 3.650000e-01    2.110000e+00
  SN2r  TC4q  1 3.650000e-01    2.110000e+00
  SN2r  TC5q  1 3.650000e-01    2.110000e+00
  SN2r  TC6q  1 3.650000e-01    2.340000e+00
  SN2r  TN1q  1 3.650000e-01    2.340000e+00
  SP6d  TN1r  1 3.780000e-01    1.450000e+00
  SP5d  TN1r  1 3.780000e-01    1.450000e+00
  SP4d  TN1r  1 3.660000e-01    1.600000e+00
  SP3d  TN1r  1 3.650000e-01    1.750000e+00
  SP2d  TN1r  1 3.650000e-01    1.910000e+00
  SP1d  TN1r  1 3.650000e-01    1.910000e+00
  SN6d  TN1r  1 3.650000e-01    1.910000e+00
  SN5d  TN1r  1 3.650000e-01    1.910000e+00
  SN4d  TN1r  1 3.650000e-01    1.910000e+00
  SN3d  TN1r  1 3.650000e-01    1.910000e+00
  SN2d  TN1r  1 3.650000e-01    1.910000e+00
  SN1r  TN1d  1 3.650000e-01    2.110000e+00
  SP6a  TN1r  1 3.780000e-01    1.450000e+00
  SP5a  TN1r  1 3.780000e-01    1.450000e+00
  SP4a  TN1r  1 3.660000e-01    1.600000e+00
  SP3a  TN1r  1 3.650000e-01    1.750000e+00
  SP2a  TN1r  1 3.650000e-01    1.910000e+00
  SP1a  TN1r  1 3.650000e-01    1.910000e+00
  SN6a  TN1r  1 3.650000e-01    1.910000e+00
  SN5a  TN1r  1 3.650000e-01    1.910000e+00
  SN4a  TN1r  1 3.650000e-01    1.910000e+00
  SN3a  TN1r  1 3.650000e-01    1.910000e+00
  SN2a  TN1r  1 3.650000e-01    1.910000e+00
  SN1r  TN1a  1 3.650000e-01    2.110000e+00
  SN1r  TC6v  1 3.650000e-01    2.340000e+00
  SN1r  TC5v  1 3.650000e-01    2.110000e+00
  SN1r  TC4v  1 3.650000e-01    2.110000e+00
  SN1r  TC3v  1 3.650000e-01    1.910000e+00
  SN1r  TC2v  1 3.650000e-01    1.750000e+00
  SN1r  TC1v  1 3.660000e-01    1.600000e+00
  SN1r  TX4v  1 3.650000e-01    2.110000e+00
  SN1r  TX3v  1 3.650000e-01    2.110000e+00
  SN1r  TX2v  1 3.650000e-01    1.910000e+00
  SN1r  TX1v  1 3.650000e-01    1.910000e+00
  SN1r  TC6e  1 3.650000e-01    2.340000e+00
  SN1r  TC5e  1 3.650000e-01    2.110000e+00
  SN1r  TC4e  1 3.650000e-01    2.110000e+00
  SN1r  TC3e  1 3.650000e-01    1.910000e+00
  SN1r  TC2e  1 3.650000e-01    1.750000e+00
  SN1r  TC1e  1 3.660000e-01    1.600000e+00
  SN1r  TX4e  1 3.650000e-01    2.110000e+00
  SN1r  TX3e  1 3.650000e-01    2.110000e+00
  SN1r  TX2e  1 3.650000e-01    1.910000e+00
  SN1r  TX1e  1 3.650000e-01    1.910000e+00
  SP6q  TN1r  1 3.650000e-01    1.750000e+00
  SP5q  TN1r  1 3.650000e-01    1.750000e+00
  SP4q  TN1r  1 3.650000e-01    1.910000e+00
  SP3q  TN1r  1 3.650000e-01    2.110000e+00
  SP2q  TN1r  1 3.650000e-01    2.340000e+00
  SP1q  TN1r  1 3.650000e-01    2.340000e+00
  SN6q  TN1r  1 3.650000e-01    2.340000e+00
  SN5q  TN1r  1 3.650000e-01    2.340000e+00
  SN4q  TN1r  1 3.650000e-01    2.340000e+00
  SN3q  TN1r  1 3.650000e-01    2.340000e+00
  SN2q  TN1r  1 3.650000e-01    2.340000e+00
  SN1r  TN1q  1 3.650000e-01    2.570000e+00
  SN1r  TX1q  1 3.650000e-01    2.110000e+00
  SN1r  TX2q  1 3.650000e-01    2.110000e+00
  SN1r  TX3q  1 3.650000e-01    2.340000e+00
  SN1r  TX4q  1 3.650000e-01    2.340000e+00
  SN1r  TC1q  1 3.650000e-01    1.750000e+00
  SN1r  TC2q  1 3.650000e-01    1.910000e+00
  SN1r  TC3q  1 3.650000e-01    2.110000e+00
  SN1r  TC4q  1 3.650000e-01    2.340000e+00
  SN1r  TC5q  1 3.650000e-01    2.340000e+00
  SN1r  TC6q  1 3.650000e-01    2.570000e+00
  SP6d  TC6r  1 3.780000e-01    1.450000e+00
  SP5d  TC6r  1 3.780000e-01    1.450000e+00
  SP4d  TC6r  1 3.660000e-01    1.600000e+00
  SP3d  TC6r  1 3.650000e-01    1.750000e+00
  SP2d  TC6r  1 3.650000e-01    1.750000e+00
  SP1d  TC6r  1 3.650000e-01    1.750000e+00
  SN6d  TC6r  1 3.650000e-01    1.910000e+00
  SN5d  TC6r  1 3.650000e-01    1.910000e+00
  SN4d  TC6r  1 3.650000e-01    1.910000e+00
  SN3d  TC6r  1 3.650000e-01    1.910000e+00
  SN2d  TC6r  1 3.650000e-01    1.910000e+00
  SN1d  TC6r  1 3.650000e-01    2.110000e+00
  SP6a  TC6r  1 3.780000e-01    1.450000e+00
  SP5a  TC6r  1 3.780000e-01    1.450000e+00
  SP4a  TC6r  1 3.660000e-01    1.600000e+00
  SP3a  TC6r  1 3.650000e-01    1.750000e+00
  SP2a  TC6r  1 3.650000e-01    1.750000e+00
  SP1a  TC6r  1 3.650000e-01    1.750000e+00
  SN6a  TC6r  1 3.650000e-01    1.910000e+00
  SN5a  TC6r  1 3.650000e-01    1.910000e+00
  SN4a  TC6r  1 3.650000e-01    1.910000e+00
  SN3a  TC6r  1 3.650000e-01    1.910000e+00
  SN2a  TC6r  1 3.650000e-01    1.910000e+00
  SN1a  TC6r  1 3.650000e-01    2.110000e+00
  SC6r  TC6v  1 3.650000e-01    2.340000e+00
  SC6r  TX1v  1 3.650000e-01    2.110000e+00
  SC6r  TX2v  1 3.650000e-01    2.110000e+00
  SC6r  TX3v  1 3.650000e-01    2.110000e+00
  SC6r  TX4v  1 3.650000e-01    2.110000e+00
  SC6r  TC1v  1 3.660000e-01    1.600000e+00
  SC6r  TC2v  1 3.650000e-01    1.750000e+00
  SC6r  TC3v  1 3.650000e-01    1.910000e+00
  SC6r  TC4v  1 3.650000e-01    2.110000e+00
  SC6r  TC5v  1 3.650000e-01    2.110000e+00
  SC6r  TC6e  1 3.650000e-01    2.340000e+00
  SC6r  TX1e  1 3.650000e-01    2.110000e+00
  SC6r  TX2e  1 3.650000e-01    2.110000e+00
  SC6r  TX3e  1 3.650000e-01    2.110000e+00
  SC6r  TX4e  1 3.650000e-01    2.110000e+00
  SC6r  TC1e  1 3.660000e-01    1.600000e+00
  SC6r  TC2e  1 3.650000e-01    1.750000e+00
  SC6r  TC3e  1 3.650000e-01    1.910000e+00
  SC6r  TC4e  1 3.650000e-01    2.110000e+00
  SC6r  TC5e  1 3.650000e-01    2.110000e+00
  SP6q  TC6r  1 3.650000e-01    1.750000e+00
  SP5q  TC6r  1 3.650000e-01    1.750000e+00
  SP4q  TC6r  1 3.650000e-01    1.910000e+00
  SP3q  TC6r  1 3.650000e-01    2.110000e+00
  SP2q  TC6r  1 3.650000e-01    2.110000e+00
  SP1q  TC6r  1 3.650000e-01    2.110000e+00
  SN6q  TC6r  1 3.650000e-01    2.340000e+00
  SN5q  TC6r  1 3.650000e-01    2.340000e+00
  SN4q  TC6r  1 3.650000e-01    2.340000e+00
  SN3q  TC6r  1 3.650000e-01    2.340000e+00
  SN2q  TC6r  1 3.650000e-01    2.340000e+00
  SN1q  TC6r  1 3.650000e-01    2.570000e+00
  SC6r  TC6q  1 3.650000e-01    2.570000e+00
  SC6r  TX1q  1 3.650000e-01    2.340000e+00
  SC6r  TX2q  1 3.650000e-01    2.340000e+00
  SC6r  TX3q  1 3.650000e-01    2.340000e+00
  SC6r  TX4q  1 3.650000e-01    2.340000e+00
  SC6r  TC1q  1 3.650000e-01    1.750000e+00
  SC6r  TC2q  1 3.650000e-01    1.910000e+00
  SC6r  TC3q  1 3.650000e-01    2.110000e+00
  SC6r  TC4q  1 3.650000e-01    2.340000e+00
  SC6r  TC5q  1 3.650000e-01    2.340000e+00
  SP6d  TC5r  1 3.940000e-01    1.290000e+00
  SP5d  TC5r  1 3.780000e-01    1.450000e+00
  SP4d  TC5r  1 3.780000e-01    1.450000e+00
  SP3d  TC5r  1 3.660000e-01    1.600000e+00
  SP2d  TC5r  1 3.660000e-01    1.600000e+00
  SP1d  TC5r  1 3.660000e-01    1.600000e+00
  SN6d  TC5r  1 3.650000e-01    1.750000e+00
  SN5d  TC5r  1 3.650000e-01    1.750000e+00
  SN4d  TC5r  1 3.650000e-01    1.750000e+00
  SN3d  TC5r  1 3.650000e-01    1.750000e+00
  SN2d  TC5r  1 3.650000e-01    1.750000e+00
  SN1d  TC5r  1 3.650000e-01    1.910000e+00
  SP6a  TC5r  1 3.940000e-01    1.290000e+00
  SP5a  TC5r  1 3.780000e-01    1.450000e+00
  SP4a  TC5r  1 3.780000e-01    1.450000e+00
  SP3a  TC5r  1 3.660000e-01    1.600000e+00
  SP2a  TC5r  1 3.660000e-01    1.600000e+00
  SP1a  TC5r  1 3.660000e-01    1.600000e+00
  SN6a  TC5r  1 3.650000e-01    1.750000e+00
  SN5a  TC5r  1 3.650000e-01    1.750000e+00
  SN4a  TC5r  1 3.650000e-01    1.750000e+00
  SN3a  TC5r  1 3.650000e-01    1.750000e+00
  SN2a  TC5r  1 3.650000e-01    1.750000e+00
  SN1a  TC5r  1 3.650000e-01    1.910000e+00
  SC6v  TC5r  1 3.650000e-01    2.110000e+00
  SC5r  TC5v  1 3.650000e-01    2.110000e+00
  SC5r  TX1v  1 3.650000e-01    2.110000e+00
  SC5r  TX2v  1 3.650000e-01    1.910000e+00
  SC5r  TX3v  1 3.650000e-01    1.910000e+00
  SC5r  TX4v  1 3.650000e-01    1.910000e+00
  SC5r  TC1v  1 3.650000e-01    1.750000e+00
  SC5r  TC2v  1 3.650000e-01    1.750000e+00
  SC5r  TC3v  1 3.650000e-01    1.910000e+00
  SC5r  TC4v  1 3.650000e-01    2.110000e+00
  SC6e  TC5r  1 3.650000e-01    2.110000e+00
  SC5r  TC5e  1 3.650000e-01    2.110000e+00
  SC5r  TX1e  1 3.650000e-01    2.110000e+00
  SC5r  TX2e  1 3.650000e-01    1.910000e+00
  SC5r  TX3e  1 3.650000e-01    1.910000e+00
  SC5r  TX4e  1 3.650000e-01    1.910000e+00
  SC5r  TC1e  1 3.650000e-01    1.750000e+00
  SC5r  TC2e  1 3.650000e-01    1.750000e+00
  SC5r  TC3e  1 3.650000e-01    1.910000e+00
  SC5r  TC4e  1 3.650000e-01    2.110000e+00
  SP6q  TC5r  1 3.660000e-01    1.600000e+00
  SP5q  TC5r  1 3.650000e-01    1.750000e+00
  SP4q  TC5r  1 3.650000e-01    1.750000e+00
  SP3q  TC5r  1 3.650000e-01    1.910000e+00
  SP2q  TC5r  1 3.650000e-01    1.910000e+00
  SP1q  TC5r  1 3.650000e-01    1.910000e+00
  SN6q  TC5r  1 3.650000e-01    2.110000e+00
  SN5q  TC5r  1 3.650000e-01    2.110000e+00
  SN4q  TC5r  1 3.650000e-01    2.110000e+00
  SN3q  TC5r  1 3.650000e-01    2.110000e+00
  SN2q  TC5r  1 3.650000e-01    2.110000e+00
  SN1q  TC5r  1 3.650000e-01    2.340000e+00
  SC6q  TC5r  1 3.650000e-01    2.340000e+00
  SC5r  TC5q  1 3.650000e-01    2.340000e+00
  SC5r  TX1q  1 3.650000e-01    2.340000e+00
  SC5r  TX2q  1 3.650000e-01    2.110000e+00
  SC5r  TX3q  1 3.650000e-01    2.110000e+00
  SC5r  TX4q  1 3.650000e-01    2.110000e+00
  SC5r  TC1q  1 3.650000e-01    1.910000e+00
  SC5r  TC2q  1 3.650000e-01    1.910000e+00
  SC5r  TC3q  1 3.650000e-01    2.110000e+00
  SC5r  TC4q  1 3.650000e-01    2.340000e+00
  SP6d  TC4r  1 4.040000e-01    1.130000e+00
  SP5d  TC4r  1 3.940000e-01    1.290000e+00
  SP4d  TC4r  1 3.940000e-01    1.290000e+00
  SP3d  TC4r  1 3.780000e-01    1.450000e+00
  SP2d  TC4r  1 3.780000e-01    1.450000e+00
  SP1d  TC4r  1 3.780000e-01    1.450000e+00
  SN6d  TC4r  1 3.660000e-01    1.600000e+00
  SN5d  TC4r  1 3.660000e-01    1.600000e+00
  SN4d  TC4r  1 3.650000e-01    1.750000e+00
  SN3d  TC4r  1 3.650000e-01    1.750000e+00
  SN2d  TC4r  1 3.650000e-01    1.750000e+00
  SN1d  TC4r  1 3.650000e-01    1.910000e+00
  SP6a  TC4r  1 4.040000e-01    1.130000e+00
  SP5a  TC4r  1 3.940000e-01    1.290000e+00
  SP4a  TC4r  1 3.940000e-01    1.290000e+00
  SP3a  TC4r  1 3.780000e-01    1.450000e+00
  SP2a  TC4r  1 3.780000e-01    1.450000e+00
  SP1a  TC4r  1 3.780000e-01    1.450000e+00
  SN6a  TC4r  1 3.660000e-01    1.600000e+00
  SN5a  TC4r  1 3.660000e-01    1.600000e+00
  SN4a  TC4r  1 3.650000e-01    1.750000e+00
  SN3a  TC4r  1 3.650000e-01    1.750000e+00
  SN2a  TC4r  1 3.650000e-01    1.750000e+00
  SN1a  TC4r  1 3.650000e-01    1.910000e+00
  SC6v  TC4r  1 3.650000e-01    2.110000e+00
  SC5v  TC4r  1 3.650000e-01    2.110000e+00
  SC4r  TC4v  1 3.650000e-01    2.110000e+00
  SC4r  TX1v  1 3.650000e-01    2.110000e+00
  SC4r  TX2v  1 3.650000e-01    1.910000e+00
  SC4r  TX3v  1 3.650000e-01    1.910000e+00
  SC4r  TX4v  1 3.650000e-01    1.910000e+00
  SC4r  TC1v  1 3.650000e-01    1.750000e+00
  SC4r  TC2v  1 3.650000e-01    1.910000e+00
  SC4r  TC3v  1 3.650000e-01    2.110000e+00
  SC6e  TC4r  1 3.650000e-01    2.110000e+00
  SC5e  TC4r  1 3.650000e-01    2.110000e+00
  SC4r  TC4e  1 3.650000e-01    2.110000e+00
  SC4r  TX1e  1 3.650000e-01    2.110000e+00
  SC4r  TX2e  1 3.650000e-01    1.910000e+00
  SC4r  TX3e  1 3.650000e-01    1.910000e+00
  SC4r  TX4e  1 3.650000e-01    1.910000e+00
  SC4r  TC1e  1 3.650000e-01    1.750000e+00
  SC4r  TC2e  1 3.650000e-01    1.910000e+00
  SC4r  TC3e  1 3.650000e-01    2.110000e+00
  SP6q  TC4r  1 3.780000e-01    1.450000e+00
  SP5q  TC4r  1 3.660000e-01    1.600000e+00
  SP4q  TC4r  1 3.660000e-01    1.600000e+00
  SP3q  TC4r  1 3.650000e-01    1.750000e+00
  SP2q  TC4r  1 3.650000e-01    1.750000e+00
  SP1q  TC4r  1 3.650000e-01    1.750000e+00
  SN6q  TC4r  1 3.650000e-01    1.910000e+00
  SN5q  TC4r  1 3.650000e-01    1.910000e+00
  SN4q  TC4r  1 3.650000e-01    2.110000e+00
  SN3q  TC4r  1 3.650000e-01    2.110000e+00
  SN2q  TC4r  1 3.650000e-01    2.110000e+00
  SN1q  TC4r  1 3.650000e-01    2.340000e+00
  SC6q  TC4r  1 3.650000e-01    2.340000e+00
  SC5q  TC4r  1 3.650000e-01    2.340000e+00
  SC4r  TC4q  1 3.650000e-01    2.340000e+00
  SC4r  TX1q  1 3.650000e-01    2.340000e+00
  SC4r  TX2q  1 3.650000e-01    2.110000e+00
  SC4r  TX3q  1 3.650000e-01    2.110000e+00
  SC4r  TX4q  1 3.650000e-01    2.110000e+00
  SC4r  TC1q  1 3.650000e-01    1.910000e+00
  SC4r  TC2q  1 3.650000e-01    2.110000e+00
  SC4r  TC3q  1 3.650000e-01    2.340000e+00
  SP6d  TC3r  1 4.090000e-01    1.080000e+00
  SP5d  TC3r  1 4.040000e-01    1.130000e+00
  SP4d  TC3r  1 4.040000e-01    1.130000e+00
  SP3d  TC3r  1 4.040000e-01    1.130000e+00
  SP2d  TC3r  1 3.940000e-01    1.290000e+00
  SP1d  TC3r  1 3.940000e-01    1.290000e+00
  SN6d  TC3r  1 3.780000e-01    1.450000e+00
  SN5d  TC3r  1 3.660000e-01    1.600000e+00
  SN4d  TC3r  1 3.660000e-01    1.600000e+00
  SN3d  TC3r  1 3.660000e-01    1.600000e+00
  SN2d  TC3r  1 3.650000e-01    1.750000e+00
  SN1d  TC3r  1 3.650000e-01    1.750000e+00
  SP6a  TC3r  1 4.090000e-01    1.080000e+00
  SP5a  TC3r  1 4.040000e-01    1.130000e+00
  SP4a  TC3r  1 4.040000e-01    1.130000e+00
  SP3a  TC3r  1 4.040000e-01    1.130000e+00
  SP2a  TC3r  1 3.940000e-01    1.290000e+00
  SP1a  TC3r  1 3.940000e-01    1.290000e+00
  SN6a  TC3r  1 3.780000e-01    1.450000e+00
  SN5a  TC3r  1 3.660000e-01    1.600000e+00
  SN4a  TC3r  1 3.660000e-01    1.600000e+00
  SN3a  TC3r  1 3.660000e-01    1.600000e+00
  SN2a  TC3r  1 3.650000e-01    1.750000e+00
  SN1a  TC3r  1 3.650000e-01    1.750000e+00
  SC6v  TC3r  1 3.650000e-01    1.910000e+00
  SC5v  TC3r  1 3.650000e-01    1.910000e+00
  SC4v  TC3r  1 3.650000e-01    2.110000e+00
  SC3r  TC3v  1 3.650000e-01    2.110000e+00
  SC3r  TX1v  1 3.650000e-01    2.110000e+00
  SC3r  TX2v  1 3.650000e-01    1.910000e+00
  SC3r  TX3v  1 3.650000e-01    1.910000e+00
  SC3r  TX4v  1 3.650000e-01    1.910000e+00
  SC3r  TC1v  1 3.650000e-01    2.110000e+00
  SC3r  TC2v  1 3.650000e-01    2.110000e+00
  SC6e  TC3r  1 3.650000e-01    1.910000e+00
  SC5e  TC3r  1 3.650000e-01    1.910000e+00
  SC4e  TC3r  1 3.650000e-01    2.110000e+00
  SC3r  TC3e  1 3.650000e-01    2.110000e+00
  SC3r  TX1e  1 3.650000e-01    2.110000e+00
  SC3r  TX2e  1 3.650000e-01    1.910000e+00
  SC3r  TX3e  1 3.650000e-01    1.910000e+00
  SC3r  TX4e  1 3.650000e-01    1.910000e+00
  SC3r  TC1e  1 3.650000e-01    2.110000e+00
  SC3r  TC2e  1 3.650000e-01    2.110000e+00
  SP6q  TC3r  1 3.940000e-01    1.290000e+00
  SP5q  TC3r  1 3.780000e-01    1.450000e+00
  SP4q  TC3r  1 3.780000e-01    1.450000e+00
  SP3q  TC3r  1 3.780000e-01    1.450000e+00
  SP2q  TC3r  1 3.660000e-01    1.600000e+00
  SP1q  TC3r  1 3.660000e-01    1.600000e+00
  SN6q  TC3r  1 3.650000e-01    1.750000e+00
  SN5q  TC3r  1 3.650000e-01    1.910000e+00
  SN4q  TC3r  1 3.650000e-01    1.910000e+00
  SN3q  TC3r  1 3.650000e-01    1.910000e+00
  SN2q  TC3r  1 3.650000e-01    2.110000e+00
  SN1q  TC3r  1 3.650000e-01    2.110000e+00
  SC6q  TC3r  1 3.650000e-01    2.110000e+00
  SC5q  TC3r  1 3.650000e-01    2.110000e+00
  SC4q  TC3r  1 3.650000e-01    2.340000e+00
  SC3r  TC3q  1 3.650000e-01    2.340000e+00
  SC3r  TX1q  1 3.650000e-01    2.340000e+00
  SC3r  TX2q  1 3.650000e-01    2.110000e+00
  SC3r  TX3q  1 3.650000e-01    2.110000e+00
  SC3r  TX4q  1 3.650000e-01    2.110000e+00
  SC3r  TC1q  1 3.650000e-01    2.340000e+00
  SC3r  TC2q  1 3.650000e-01    2.340000e+00
  SP6d  TC2r  1 4.090000e-01    1.080000e+00
  SP5d  TC2r  1 4.040000e-01    1.130000e+00
  SP4d  TC2r  1 4.040000e-01    1.130000e+00
  SP3d  TC2r  1 4.040000e-01    1.130000e+00
  SP2d  TC2r  1 3.940000e-01    1.290000e+00
  SP1d  TC2r  1 3.940000e-01    1.290000e+00
  SN6d  TC2r  1 3.780000e-01    1.450000e+00
  SN5d  TC2r  1 3.780000e-01    1.450000e+00
  SN4d  TC2r  1 3.780000e-01    1.450000e+00
  SN3d  TC2r  1 3.660000e-01    1.600000e+00
  SN2d  TC2r  1 3.660000e-01    1.600000e+00
  SN1d  TC2r  1 3.660000e-01    1.600000e+00
  SP6a  TC2r  1 4.090000e-01    1.080000e+00
  SP5a  TC2r  1 4.040000e-01    1.130000e+00
  SP4a  TC2r  1 4.040000e-01    1.130000e+00
  SP3a  TC2r  1 4.040000e-01    1.130000e+00
  SP2a  TC2r  1 3.940000e-01    1.290000e+00
  SP1a  TC2r  1 3.940000e-01    1.290000e+00
  SN6a  TC2r  1 3.780000e-01    1.450000e+00
  SN5a  TC2r  1 3.780000e-01    1.450000e+00
  SN4a  TC2r  1 3.780000e-01    1.450000e+00
  SN3a  TC2r  1 3.660000e-01    1.600000e+00
  SN2a  TC2r  1 3.660000e-01    1.600000e+00
  SN1a  TC2r  1 3.660000e-01    1.600000e+00
  SC6v  TC2r  1 3.650000e-01    1.750000e+00
  SC5v  TC2r  1 3.650000e-01    1.750000e+00
  SC4v  TC2r  1 3.650000e-01    1.910000e+00
  SC3v  TC2r  1 3.650000e-01    2.110000e+00
  SC2r  TC2v  1 3.650000e-01    2.110000e+00
  SC2r  TX1v  1 3.650000e-01    1.910000e+00
  SC2r  TX2v  1 3.650000e-01    1.910000e+00
  SC2r  TX3v  1 3.650000e-01    1.910000e+00
  SC2r  TX4v  1 3.660000e-01    1.600000e+00
  SC2r  TC1v  1 3.650000e-01    2.340000e+00
  SC6e  TC2r  1 3.650000e-01    1.750000e+00
  SC5e  TC2r  1 3.650000e-01    1.750000e+00
  SC4e  TC2r  1 3.650000e-01    1.910000e+00
  SC3e  TC2r  1 3.650000e-01    2.110000e+00
  SC2r  TC2e  1 3.650000e-01    2.110000e+00
  SC2r  TX1e  1 3.650000e-01    1.910000e+00
  SC2r  TX2e  1 3.650000e-01    1.910000e+00
  SC2r  TX3e  1 3.650000e-01    1.910000e+00
  SC2r  TX4e  1 3.660000e-01    1.600000e+00
  SC2r  TC1e  1 3.650000e-01    2.340000e+00
  SP6q  TC2r  1 3.940000e-01    1.290000e+00
  SP5q  TC2r  1 3.780000e-01    1.450000e+00
  SP4q  TC2r  1 3.780000e-01    1.450000e+00
  SP3q  TC2r  1 3.780000e-01    1.450000e+00
  SP2q  TC2r  1 3.660000e-01    1.600000e+00
  SP1q  TC2r  1 3.660000e-01    1.600000e+00
  SN6q  TC2r  1 3.650000e-01    1.750000e+00
  SN5q  TC2r  1 3.650000e-01    1.750000e+00
  SN4q  TC2r  1 3.650000e-01    1.750000e+00
  SN3q  TC2r  1 3.650000e-01    1.910000e+00
  SN2q  TC2r  1 3.650000e-01    1.910000e+00
  SN1q  TC2r  1 3.650000e-01    1.910000e+00
  SC6q  TC2r  1 3.650000e-01    1.910000e+00
  SC5q  TC2r  1 3.650000e-01    1.910000e+00
  SC4q  TC2r  1 3.650000e-01    2.110000e+00
  SC3q  TC2r  1 3.650000e-01    2.340000e+00
  SC2r  TC2q  1 3.650000e-01    2.340000e+00
  SC2r  TX1q  1 3.650000e-01    2.110000e+00
  SC2r  TX2q  1 3.650000e-01    2.110000e+00
  SC2r  TX3q  1 3.650000e-01    2.110000e+00
  SC2r  TX4q  1 3.650000e-01    1.750000e+00
  SC2r  TC1q  1 3.650000e-01    2.570000e+00
  SP6d  TC1r  1 4.840000e-01    8.900000e-01
  SP5d  TC1r  1 4.090000e-01    1.080000e+00
  SP4d  TC1r  1 4.090000e-01    1.080000e+00
  SP3d  TC1r  1 4.090000e-01    1.080000e+00
  SP2d  TC1r  1 4.040000e-01    1.130000e+00
  SP1d  TC1r  1 4.040000e-01    1.130000e+00
  SN6d  TC1r  1 3.940000e-01    1.290000e+00
  SN5d  TC1r  1 3.940000e-01    1.290000e+00
  SN4d  TC1r  1 3.940000e-01    1.290000e+00
  SN3d  TC1r  1 3.780000e-01    1.450000e+00
  SN2d  TC1r  1 3.780000e-01    1.450000e+00
  SN1d  TC1r  1 3.780000e-01    1.450000e+00
  SP6a  TC1r  1 4.840000e-01    8.900000e-01
  SP5a  TC1r  1 4.090000e-01    1.080000e+00
  SP4a  TC1r  1 4.090000e-01    1.080000e+00
  SP3a  TC1r  1 4.090000e-01    1.080000e+00
  SP2a  TC1r  1 4.040000e-01    1.130000e+00
  SP1a  TC1r  1 4.040000e-01    1.130000e+00
  SN6a  TC1r  1 3.940000e-01    1.290000e+00
  SN5a  TC1r  1 3.940000e-01    1.290000e+00
  SN4a  TC1r  1 3.940000e-01    1.290000e+00
  SN3a  TC1r  1 3.780000e-01    1.450000e+00
  SN2a  TC1r  1 3.780000e-01    1.450000e+00
  SN1a  TC1r  1 3.780000e-01    1.450000e+00
  SC6v  TC1r  1 3.660000e-01    1.600000e+00
  SC5v  TC1r  1 3.650000e-01    1.750000e+00
  SC4v  TC1r  1 3.650000e-01    1.750000e+00
  SC3v  TC1r  1 3.650000e-01    2.110000e+00
  SC2v  TC1r  1 3.650000e-01    2.340000e+00
  SC1r  TC1v  1 3.650000e-01    2.110000e+00
  SC1r  TX1v  1 3.650000e-01    1.910000e+00
  SC1r  TX2v  1 3.650000e-01    1.910000e+00
  SC1r  TX3v  1 3.650000e-01    1.910000e+00
  SC1r  TX4v  1 3.660000e-01    1.600000e+00
  SC6e  TC1r  1 3.660000e-01    1.600000e+00
  SC5e  TC1r  1 3.650000e-01    1.750000e+00
  SC4e  TC1r  1 3.650000e-01    1.750000e+00
  SC3e  TC1r  1 3.650000e-01    2.110000e+00
  SC2e  TC1r  1 3.650000e-01    2.340000e+00
  SC1r  TC1e  1 3.650000e-01    2.110000e+00
  SC1r  TX1e  1 3.650000e-01    1.910000e+00
  SC1r  TX2e  1 3.650000e-01    1.910000e+00
  SC1r  TX3e  1 3.650000e-01    1.910000e+00
  SC1r  TX4e  1 3.660000e-01    1.600000e+00
  SP6q  TC1r  1 4.090000e-01    1.080000e+00
  SP5q  TC1r  1 3.940000e-01    1.290000e+00
  SP4q  TC1r  1 3.940000e-01    1.290000e+00
  SP3q  TC1r  1 3.940000e-01    1.290000e+00
  SP2q  TC1r  1 3.780000e-01    1.450000e+00
  SP1q  TC1r  1 3.780000e-01    1.450000e+00
  SN6q  TC1r  1 3.660000e-01    1.600000e+00
  SN5q  TC1r  1 3.660000e-01    1.600000e+00
  SN4q  TC1r  1 3.660000e-01    1.600000e+00
  SN3q  TC1r  1 3.650000e-01    1.750000e+00
  SN2q  TC1r  1 3.650000e-01    1.750000e+00
  SN1q  TC1r  1 3.650000e-01    1.750000e+00
  SC6q  TC1r  1 3.650000e-01    1.750000e+00
  SC5q  TC1r  1 3.650000e-01    1.910000e+00
  SC4q  TC1r  1 3.650000e-01    1.910000e+00
  SC3q  TC1r  1 3.650000e-01    2.340000e+00
  SC2q  TC1r  1 3.650000e-01    2.570000e+00
  SC1r  TC1q  1 3.650000e-01    2.340000e+00
  SC1r  TX1q  1 3.650000e-01    2.110000e+00
  SC1r  TX2q  1 3.650000e-01    2.110000e+00
  SC1r  TX3q  1 3.650000e-01    2.110000e+00
  SC1r  TX4q  1 3.650000e-01    1.750000e+00
  SP6d  TX4r  1 3.660000e-01    1.600000e+00
  SP5d  TX4r  1 3.650000e-01    1.750000e+00
  SP4d  TX4r  1 3.650000e-01    1.750000e+00
  SP3d  TX4r  1 3.650000e-01    1.750000e+00
  SP2d  TX4r  1 3.650000e-01    1.750000e+00
  SP1d  TX4r  1 3.650000e-01    1.750000e+00
  SN6d  TX4r  1 3.650000e-01    1.910000e+00
  SN5d  TX4r  1 3.650000e-01    2.110000e+00
  SN4d  TX4r  1 3.650000e-01    2.340000e+00
  SN3d  TX4r  1 3.650000e-01    2.110000e+00
  SN2d  TX4r  1 3.650000e-01    2.110000e+00
  SN1d  TX4r  1 3.650000e-01    1.910000e+00
  SP6a  TX4r  1 3.660000e-01    1.600000e+00
  SP5a  TX4r  1 3.650000e-01    1.750000e+00
  SP4a  TX4r  1 3.650000e-01    1.750000e+00
  SP3a  TX4r  1 3.650000e-01    1.750000e+00
  SP2a  TX4r  1 3.650000e-01    1.750000e+00
  SP1a  TX4r  1 3.650000e-01    1.750000e+00
  SN6a  TX4r  1 3.650000e-01    1.910000e+00
  SN5a  TX4r  1 3.650000e-01    2.110000e+00
  SN4a  TX4r  1 3.650000e-01    2.340000e+00
  SN3a  TX4r  1 3.650000e-01    2.110000e+00
  SN2a  TX4r  1 3.650000e-01    2.110000e+00
  SN1a  TX4r  1 3.650000e-01    1.910000e+00
  SC6v  TX4r  1 3.650000e-01    2.110000e+00
  SC5v  TX4r  1 3.650000e-01    1.910000e+00
  SC4v  TX4r  1 3.650000e-01    1.910000e+00
  SC3v  TX4r  1 3.650000e-01    1.910000e+00
  SC2v  TX4r  1 3.660000e-01    1.600000e+00
  SC1v  TX4r  1 3.660000e-01    1.600000e+00
  SX4r  TX4v  1 3.650000e-01    2.110000e+00
  SX4r  TX1v  1 3.650000e-01    2.110000e+00
  SX4r  TX2v  1 3.650000e-01    2.110000e+00
  SX4r  TX3v  1 3.650000e-01    2.110000e+00
  SC6e  TX4r  1 3.650000e-01    2.110000e+00
  SC5e  TX4r  1 3.650000e-01    1.910000e+00
  SC4e  TX4r  1 3.650000e-01    1.910000e+00
  SC3e  TX4r  1 3.650000e-01    1.910000e+00
  SC2e  TX4r  1 3.660000e-01    1.600000e+00
  SC1e  TX4r  1 3.660000e-01    1.600000e+00
  SX4r  TX4e  1 3.650000e-01    2.110000e+00
  SX4r  TX1e  1 3.650000e-01    2.110000e+00
  SX4r  TX2e  1 3.650000e-01    2.110000e+00
  SX4r  TX3e  1 3.650000e-01    2.110000e+00
  SP6q  TX4r  1 3.650000e-01    1.910000e+00
  SP5q  TX4r  1 3.650000e-01    2.110000e+00
  SP4q  TX4r  1 3.650000e-01    2.110000e+00
  SP3q  TX4r  1 3.650000e-01    2.110000e+00
  SP2q  TX4r  1 3.650000e-01    2.110000e+00
  SP1q  TX4r  1 3.650000e-01    2.110000e+00
  SN6q  TX4r  1 3.650000e-01    2.340000e+00
  SN5q  TX4r  1 3.650000e-01    2.570000e+00
  SN4q  TX4r  1 3.650000e-01    2.830000e+00
  SN3q  TX4r  1 3.650000e-01    2.570000e+00
  SN2q  TX4r  1 3.650000e-01    2.570000e+00
  SN1q  TX4r  1 3.650000e-01    2.340000e+00
  SC6q  TX4r  1 3.650000e-01    2.340000e+00
  SC5q  TX4r  1 3.650000e-01    2.110000e+00
  SC4q  TX4r  1 3.650000e-01    2.110000e+00
  SC3q  TX4r  1 3.650000e-01    2.110000e+00
  SC2q  TX4r  1 3.650000e-01    1.750000e+00
  SC1q  TX4r  1 3.650000e-01    1.750000e+00
  SX4r  TX4q  1 3.650000e-01    2.340000e+00
  SX4r  TX1q  1 3.650000e-01    2.340000e+00
  SX4r  TX2q  1 3.650000e-01    2.340000e+00
  SX4r  TX3q  1 3.650000e-01    2.340000e+00
  SP6d  TX3r  1 3.660000e-01    1.600000e+00
  SP5d  TX3r  1 3.660000e-01    1.600000e+00
  SP4d  TX3r  1 3.660000e-01    1.600000e+00
  SP3d  TX3r  1 3.650000e-01    1.750000e+00
  SP2d  TX3r  1 3.650000e-01    1.750000e+00
  SP1d  TX3r  1 3.650000e-01    1.750000e+00
  SN6d  TX3r  1 3.650000e-01    1.750000e+00
  SN5d  TX3r  1 3.650000e-01    1.910000e+00
  SN4d  TX3r  1 3.650000e-01    2.110000e+00
  SN3d  TX3r  1 3.650000e-01    1.910000e+00
  SN2d  TX3r  1 3.650000e-01    1.910000e+00
  SN1d  TX3r  1 3.650000e-01    1.910000e+00
  SP6a  TX3r  1 3.660000e-01    1.600000e+00
  SP5a  TX3r  1 3.660000e-01    1.600000e+00
  SP4a  TX3r  1 3.660000e-01    1.600000e+00
  SP3a  TX3r  1 3.650000e-01    1.750000e+00
  SP2a  TX3r  1 3.650000e-01    1.750000e+00
  SP1a  TX3r  1 3.650000e-01    1.750000e+00
  SN6a  TX3r  1 3.650000e-01    1.750000e+00
  SN5a  TX3r  1 3.650000e-01    1.910000e+00
  SN4a  TX3r  1 3.650000e-01    2.110000e+00
  SN3a  TX3r  1 3.650000e-01    1.910000e+00
  SN2a  TX3r  1 3.650000e-01    1.910000e+00
  SN1a  TX3r  1 3.650000e-01    1.910000e+00
  SC6v  TX3r  1 3.650000e-01    2.110000e+00
  SC5v  TX3r  1 3.650000e-01    1.910000e+00
  SC4v  TX3r  1 3.650000e-01    1.910000e+00
  SC3v  TX3r  1 3.650000e-01    1.910000e+00
  SC2v  TX3r  1 3.650000e-01    1.910000e+00
  SC1v  TX3r  1 3.650000e-01    1.910000e+00
  SX4v  TX3r  1 3.650000e-01    2.110000e+00
  SX3r  TX3v  1 3.650000e-01    2.110000e+00
  SX3r  TX1v  1 3.650000e-01    2.340000e+00
  SX3r  TX2v  1 3.650000e-01    2.340000e+00
  SC6e  TX3r  1 3.650000e-01    2.110000e+00
  SC5e  TX3r  1 3.650000e-01    1.910000e+00
  SC4e  TX3r  1 3.650000e-01    1.910000e+00
  SC3e  TX3r  1 3.650000e-01    1.910000e+00
  SC2e  TX3r  1 3.650000e-01    1.910000e+00
  SC1e  TX3r  1 3.650000e-01    1.910000e+00
  SX4e  TX3r  1 3.650000e-01    2.110000e+00
  SX3r  TX3e  1 3.650000e-01    2.110000e+00
  SX3r  TX1e  1 3.650000e-01    2.340000e+00
  SX3r  TX2e  1 3.650000e-01    2.340000e+00
  SP6q  TX3r  1 3.650000e-01    1.910000e+00
  SP5q  TX3r  1 3.650000e-01    1.910000e+00
  SP4q  TX3r  1 3.650000e-01    1.910000e+00
  SP3q  TX3r  1 3.650000e-01    2.110000e+00
  SP2q  TX3r  1 3.650000e-01    2.110000e+00
  SP1q  TX3r  1 3.650000e-01    2.110000e+00
  SN6q  TX3r  1 3.650000e-01    2.110000e+00
  SN5q  TX3r  1 3.650000e-01    2.340000e+00
  SN4q  TX3r  1 3.650000e-01    2.570000e+00
  SN3q  TX3r  1 3.650000e-01    2.340000e+00
  SN2q  TX3r  1 3.650000e-01    2.340000e+00
  SN1q  TX3r  1 3.650000e-01    2.340000e+00
  SC6q  TX3r  1 3.650000e-01    2.340000e+00
  SC5q  TX3r  1 3.650000e-01    2.110000e+00
  SC4q  TX3r  1 3.650000e-01    2.110000e+00
  SC3q  TX3r  1 3.650000e-01    2.110000e+00
  SC2q  TX3r  1 3.650000e-01    2.110000e+00
  SC1q  TX3r  1 3.650000e-01    2.110000e+00
  SX4q  TX3r  1 3.650000e-01    2.340000e+00
  SX3r  TX3q  1 3.650000e-01    2.340000e+00
  SX3r  TX1q  1 3.650000e-01    2.570000e+00
  SX3r  TX2q  1 3.650000e-01    2.570000e+00
  SP6d  TX2r  1 3.780000e-01    1.450000e+00
  SP5d  TX2r  1 3.660000e-01    1.600000e+00
  SP4d  TX2r  1 3.660000e-01    1.600000e+00
  SP3d  TX2r  1 3.660000e-01    1.600000e+00
  SP2d  TX2r  1 3.660000e-01    1.600000e+00
  SP1d  TX2r  1 3.660000e-01    1.600000e+00
  SN6d  TX2r  1 3.660000e-01    1.600000e+00
  SN5d  TX2r  1 3.650000e-01    1.750000e+00
  SN4d  TX2r  1 3.650000e-01    1.750000e+00
  SN3d  TX2r  1 3.650000e-01    1.750000e+00
  SN2d  TX2r  1 3.650000e-01    1.750000e+00
  SN1d  TX2r  1 3.650000e-01    1.750000e+00
  SP6a  TX2r  1 3.780000e-01    1.450000e+00
  SP5a  TX2r  1 3.660000e-01    1.600000e+00
  SP4a  TX2r  1 3.660000e-01    1.600000e+00
  SP3a  TX2r  1 3.660000e-01    1.600000e+00
  SP2a  TX2r  1 3.660000e-01    1.600000e+00
  SP1a  TX2r  1 3.660000e-01    1.600000e+00
  SN6a  TX2r  1 3.660000e-01    1.600000e+00
  SN5a  TX2r  1 3.650000e-01    1.750000e+00
  SN4a  TX2r  1 3.650000e-01    1.750000e+00
  SN3a  TX2r  1 3.650000e-01    1.750000e+00
  SN2a  TX2r  1 3.650000e-01    1.750000e+00
  SN1a  TX2r  1 3.650000e-01    1.750000e+00
  SC6v  TX2r  1 3.650000e-01    2.110000e+00
  SC5v  TX2r  1 3.650000e-01    1.910000e+00
  SC4v  TX2r  1 3.650000e-01    1.910000e+00
  SC3v  TX2r  1 3.650000e-01    1.910000e+00
  SC2v  TX2r  1 3.650000e-01    1.910000e+00
  SC1v  TX2r  1 3.650000e-01    1.910000e+00
  SX4v  TX2r  1 3.650000e-01    2.110000e+00
  SX3v  TX2r  1 3.650000e-01    2.340000e+00
  SX2r  TX2v  1 3.650000e-01    2.340000e+00
  SX2r  TX1v  1 3.650000e-01    2.340000e+00
  SC6e  TX2r  1 3.650000e-01    2.110000e+00
  SC5e  TX2r  1 3.650000e-01    1.910000e+00
  SC4e  TX2r  1 3.650000e-01    1.910000e+00
  SC3e  TX2r  1 3.650000e-01    1.910000e+00
  SC2e  TX2r  1 3.650000e-01    1.910000e+00
  SC1e  TX2r  1 3.650000e-01    1.910000e+00
  SX4e  TX2r  1 3.650000e-01    2.110000e+00
  SX3e  TX2r  1 3.650000e-01    2.340000e+00
  SX2r  TX2e  1 3.650000e-01    2.340000e+00
  SX2r  TX1e  1 3.650000e-01    2.340000e+00
  SP6q  TX2r  1 3.650000e-01    1.750000e+00
  SP5q  TX2r  1 3.650000e-01    1.910000e+00
  SP4q  TX2r  1 3.650000e-01    1.910000e+00
  SP3q  TX2r  1 3.650000e-01    1.910000e+00
  SP2q  TX2r  1 3.650000e-01    1.910000e+00
  SP1q  TX2r  1 3.650000e-01    1.910000e+00
  SN6q  TX2r  1 3.650000e-01    1.910000e+00
  SN5q  TX2r  1 3.650000e-01    2.110000e+00
  SN4q  TX2r  1 3.650000e-01    2.110000e+00
  SN3q  TX2r  1 3.650000e-01    2.110000e+00
  SN2q  TX2r  1 3.650000e-01    2.110000e+00
  SN1q  TX2r  1 3.650000e-01    2.110000e+00
  SC6q  TX2r  1 3.650000e-01    2.340000e+00
  SC5q  TX2r  1 3.650000e-01    2.110000e+00
  SC4q  TX2r  1 3.650000e-01    2.110000e+00
  SC3q  TX2r  1 3.650000e-01    2.110000e+00
  SC2q  TX2r  1 3.650000e-01    2.110000e+00
  SC1q  TX2r  1 3.650000e-01    2.110000e+00
  SX4q  TX2r  1 3.650000e-01    2.340000e+00
  SX3q  TX2r  1 3.650000e-01    2.570000e+00
  SX2r  TX2q  1 3.650000e-01    2.570000e+00
  SX2r  TX1q  1 3.650000e-01    2.570000e+00
  SP6d  TX1r  1 3.940000e-01    1.290000e+00
  SP5d  TX1r  1 3.940000e-01    1.290000e+00
  SP4d  TX1r  1 3.780000e-01    1.450000e+00
  SP3d  TX1r  1 3.780000e-01    1.450000e+00
  SP2d  TX1r  1 3.780000e-01    1.450000e+00
  SP1d  TX1r  1 3.780000e-01    1.450000e+00
  SN6d  TX1r  1 3.780000e-01    1.450000e+00
  SN5d  TX1r  1 3.660000e-01    1.600000e+00
  SN4d  TX1r  1 3.660000e-01    1.600000e+00
  SN3d  TX1r  1 3.650000e-01    1.750000e+00
  SN2d  TX1r  1 3.650000e-01    1.750000e+00
  SN1d  TX1r  1 3.650000e-01    1.750000e+00
  SP6a  TX1r  1 3.940000e-01    1.290000e+00
  SP5a  TX1r  1 3.940000e-01    1.290000e+00
  SP4a  TX1r  1 3.780000e-01    1.450000e+00
  SP3a  TX1r  1 3.780000e-01    1.450000e+00
  SP2a  TX1r  1 3.780000e-01    1.450000e+00
  SP1a  TX1r  1 3.780000e-01    1.450000e+00
  SN6a  TX1r  1 3.780000e-01    1.450000e+00
  SN5a  TX1r  1 3.660000e-01    1.600000e+00
  SN4a  TX1r  1 3.660000e-01    1.600000e+00
  SN3a  TX1r  1 3.650000e-01    1.750000e+00
  SN2a  TX1r  1 3.650000e-01    1.750000e+00
  SN1a  TX1r  1 3.650000e-01    1.750000e+00
  SC6v  TX1r  1 3.650000e-01    2.110000e+00
  SC5v  TX1r  1 3.650000e-01    2.110000e+00
  SC4v  TX1r  1 3.650000e-01    2.110000e+00
  SC3v  TX1r  1 3.650000e-01    2.110000e+00
  SC2v  TX1r  1 3.650000e-01    1.910000e+00
  SC1v  TX1r  1 3.650000e-01    1.910000e+00
  SX4v  TX1r  1 3.650000e-01    2.110000e+00
  SX3v  TX1r  1 3.650000e-01    2.340000e+00
  SX2v  TX1r  1 3.650000e-01    2.340000e+00
  SX1r  TX1v  1 3.650000e-01    2.570000e+00
  SC6e  TX1r  1 3.650000e-01    2.110000e+00
  SC5e  TX1r  1 3.650000e-01    2.110000e+00
  SC4e  TX1r  1 3.650000e-01    2.110000e+00
  SC3e  TX1r  1 3.650000e-01    2.110000e+00
  SC2e  TX1r  1 3.650000e-01    1.910000e+00
  SC1e  TX1r  1 3.650000e-01    1.910000e+00
  SX4e  TX1r  1 3.650000e-01    2.110000e+00
  SX3e  TX1r  1 3.650000e-01    2.340000e+00
  SX2e  TX1r  1 3.650000e-01    2.340000e+00
  SX1r  TX1e  1 3.650000e-01    2.570000e+00
  SP6q  TX1r  1 3.660000e-01    1.600000e+00
  SP5q  TX1r  1 3.660000e-01    1.600000e+00
  SP4q  TX1r  1 3.650000e-01    1.750000e+00
  SP3q  TX1r  1 3.650000e-01    1.750000e+00
  SP2q  TX1r  1 3.650000e-01    1.750000e+00
  SP1q  TX1r  1 3.650000e-01    1.750000e+00
  SN6q  TX1r  1 3.650000e-01    1.750000e+00
  SN5q  TX1r  1 3.650000e-01    1.910000e+00
  SN4q  TX1r  1 3.650000e-01    1.910000e+00
  SN3q  TX1r  1 3.650000e-01    2.110000e+00
  SN2q  TX1r  1 3.650000e-01    2.110000e+00
  SN1q  TX1r  1 3.650000e-01    2.110000e+00
  SC6q  TX1r  1 3.650000e-01    2.340000e+00
  SC5q  TX1r  1 3.650000e-01    2.340000e+00
  SC4q  TX1r  1 3.650000e-01    2.340000e+00
  SC3q  TX1r  1 3.650000e-01    2.340000e+00
  SC2q  TX1r  1 3.650000e-01    2.110000e+00
  SC1q  TX1r  1 3.650000e-01    2.110000e+00
  SX4q  TX1r  1 3.650000e-01    2.340000e+00
  SX3q  TX1r  1 3.650000e-01    2.570000e+00
  SX2q  TX1r  1 3.650000e-01    2.570000e+00
  SX1r  TX1q  1 3.650000e-01    2.830000e+00
 SP6dr TP6dq  1 3.650000e-01    4.220000e+00
 SP6dr TX1eq  1 3.650000e-01    1.750000e+00
 SP6dr TX2eq  1 3.650000e-01    1.910000e+00
 SP6dr TX3eq  1 3.650000e-01    2.110000e+00
 SP6dr TX4eq  1 3.650000e-01    2.110000e+00
 SP6dr TC1eq  1 4.040000e-01    1.130000e+00
 SP6dr TC2eq  1 3.780000e-01    1.450000e+00
 SP6dr TC3eq  1 3.780000e-01    1.450000e+00
 SP6dr TC4eq  1 3.660000e-01    1.600000e+00
 SP6dr TC5eq  1 3.650000e-01    1.750000e+00
 SP6dr TC6eq  1 3.650000e-01    1.910000e+00
 SP6dr TX1vq  1 3.780000e-01    1.450000e+00
 SP6dr TX2vq  1 3.660000e-01    1.600000e+00
 SP6dr TX3vq  1 3.650000e-01    1.750000e+00
 SP6dr TX4vq  1 3.650000e-01    1.750000e+00
 SP6dr TC1vq  1 4.230000e-01    9.810000e-01
 SP6dr TC2vq  1 4.040000e-01    1.130000e+00
 SP6dr TC3vq  1 4.040000e-01    1.130000e+00
 SP6dr TC4vq  1 3.940000e-01    1.290000e+00
 SP6dr TC5vq  1 3.780000e-01    1.450000e+00
 SP6dr TC6vq  1 3.660000e-01    1.600000e+00
 SP6dr TN1aq  1 3.650000e-01    1.750000e+00
 SP6dr TN2aq  1 3.650000e-01    1.910000e+00
 SP6dr TN3aq  1 3.650000e-01    2.110000e+00
 SP6dr TN4aq  1 3.650000e-01    2.570000e+00
 SP6dr TN5aq  1 3.650000e-01    2.830000e+00
 SP6dr TN6aq  1 3.650000e-01    3.370000e+00
 SP6dr TP1aq  1 3.650000e-01    3.640000e+00
 SP6dr TP2aq  1 3.650000e-01    3.930000e+00
 SP6dr TP3aq  1 3.650000e-01    3.930000e+00
 SP6dr TP4aq  1 3.650000e-01    4.220000e+00
 SP6dr TP5aq  1 3.650000e-01    4.510000e+00
 SP6dr TP6aq  1 3.650000e-01    4.860000e+00
 SP6dr TN1dq  1 3.650000e-01    1.750000e+00
 SP6dr TN2dq  1 3.650000e-01    1.910000e+00
 SP6dr TN3dq  1 3.650000e-01    2.110000e+00
 SP6dr TN4dq  1 3.650000e-01    2.110000e+00
 SP6dr TN5dq  1 3.650000e-01    2.340000e+00
 SP6dr TN6dq  1 3.650000e-01    2.830000e+00
 SP6dr TP1dq  1 3.650000e-01    3.100000e+00
 SP6dr TP2dq  1 3.650000e-01    3.370000e+00
 SP6dr TP3dq  1 3.650000e-01    3.370000e+00
 SP6dr TP4dq  1 3.650000e-01    3.640000e+00
 SP6dr TP5dq  1 3.650000e-01    3.930000e+00
 SP6dq TP5dr  1 3.650000e-01    3.930000e+00
 SP5dr TP5dq  1 3.650000e-01    3.640000e+00
 SP5dr TX1eq  1 3.650000e-01    1.750000e+00
 SP5dr TX2eq  1 3.650000e-01    2.110000e+00
 SP5dr TX3eq  1 3.650000e-01    2.110000e+00
 SP5dr TX4eq  1 3.650000e-01    2.340000e+00
 SP5dr TC1eq  1 3.780000e-01    1.450000e+00
 SP5dr TC2eq  1 3.660000e-01    1.600000e+00
 SP5dr TC3eq  1 3.660000e-01    1.600000e+00
 SP5dr TC4eq  1 3.650000e-01    1.750000e+00
 SP5dr TC5eq  1 3.650000e-01    1.910000e+00
 SP5dr TC6eq  1 3.650000e-01    1.910000e+00
 SP5dr TX1vq  1 3.780000e-01    1.450000e+00
 SP5dr TX2vq  1 3.650000e-01    1.750000e+00
 SP5dr TX3vq  1 3.650000e-01    1.750000e+00
 SP5dr TX4vq  1 3.650000e-01    1.910000e+00
 SP5dr TC1vq  1 4.040000e-01    1.130000e+00
 SP5dr TC2vq  1 3.940000e-01    1.290000e+00
 SP5dr TC3vq  1 3.940000e-01    1.290000e+00
 SP5dr TC4vq  1 3.780000e-01    1.450000e+00
 SP5dr TC5vq  1 3.660000e-01    1.600000e+00
 SP5dr TC6vq  1 3.660000e-01    1.600000e+00
 SP5dr TN1aq  1 3.650000e-01    1.750000e+00
 SP5dr TN2aq  1 3.650000e-01    1.910000e+00
 SP5dr TN3aq  1 3.650000e-01    2.110000e+00
 SP5dr TN4aq  1 3.650000e-01    2.830000e+00
 SP5dr TN5aq  1 3.650000e-01    2.830000e+00
 SP5dr TN6aq  1 3.650000e-01    3.100000e+00
 SP5dr TP1aq  1 3.650000e-01    3.370000e+00
 SP5dr TP2aq  1 3.650000e-01    3.640000e+00
 SP5dr TP3aq  1 3.650000e-01    3.640000e+00
 SP5dr TP4aq  1 3.650000e-01    3.930000e+00
 SP5dr TP5aq  1 3.650000e-01    4.220000e+00
 SP6aq TP5dr  1 3.650000e-01    4.510000e+00
 SP5dr TN1dq  1 3.650000e-01    1.750000e+00
 SP5dr TN2dq  1 3.650000e-01    1.910000e+00
 SP5dr TN3dq  1 3.650000e-01    2.110000e+00
 SP5dr TN4dq  1 3.650000e-01    2.340000e+00
 SP5dr TN5dq  1 3.650000e-01    2.340000e+00
 SP5dr TN6dq  1 3.650000e-01    2.570000e+00
 SP5dr TP1dq  1 3.650000e-01    2.830000e+00
 SP5dr TP2dq  1 3.650000e-01    3.100000e+00
 SP5dr TP3dq  1 3.650000e-01    3.100000e+00
 SP5dr TP4dq  1 3.650000e-01    3.370000e+00
 SP6dq TP4dr  1 3.650000e-01    3.640000e+00
 SP5dq TP4dr  1 3.650000e-01    3.370000e+00
 SP4dr TP4dq  1 3.650000e-01    3.370000e+00
 SP4dr TX1eq  1 3.650000e-01    1.910000e+00
 SP4dr TX2eq  1 3.650000e-01    2.110000e+00
 SP4dr TX3eq  1 3.650000e-01    2.110000e+00
 SP4dr TX4eq  1 3.650000e-01    2.340000e+00
 SP4dr TC1eq  1 3.780000e-01    1.450000e+00
 SP4dr TC2eq  1 3.660000e-01    1.600000e+00
 SP4dr TC3eq  1 3.660000e-01    1.600000e+00
 SP4dr TC4eq  1 3.650000e-01    1.750000e+00
 SP4dr TC5eq  1 3.650000e-01    1.910000e+00
 SP4dr TC6eq  1 3.650000e-01    2.110000e+00
 SP4dr TX1vq  1 3.660000e-01    1.600000e+00
 SP4dr TX2vq  1 3.650000e-01    1.750000e+00
 SP4dr TX3vq  1 3.650000e-01    1.750000e+00
 SP4dr TX4vq  1 3.650000e-01    1.910000e+00
 SP4dr TC1vq  1 4.040000e-01    1.130000e+00
 SP4dr TC2vq  1 3.940000e-01    1.290000e+00
 SP4dr TC3vq  1 3.940000e-01    1.290000e+00
 SP4dr TC4vq  1 3.780000e-01    1.450000e+00
 SP4dr TC5vq  1 3.660000e-01    1.600000e+00
 SP4dr TC6vq  1 3.650000e-01    1.750000e+00
 SP4dr TN1aq  1 3.650000e-01    1.910000e+00
 SP4dr TN2aq  1 3.650000e-01    2.110000e+00
 SP4dr TN3aq  1 3.650000e-01    2.570000e+00
 SP4dr TN4aq  1 3.650000e-01    2.830000e+00
 SP4dr TN5aq  1 3.650000e-01    2.830000e+00
 SP4dr TN6aq  1 3.650000e-01    3.100000e+00
 SP4dr TP1aq  1 3.650000e-01    3.370000e+00
 SP4dr TP2aq  1 3.650000e-01    3.640000e+00
 SP4dr TP3aq  1 3.650000e-01    3.640000e+00
 SP4dr TP4aq  1 3.650000e-01    3.930000e+00
 SP5aq TP4dr  1 3.650000e-01    3.930000e+00
 SP6aq TP4dr  1 3.650000e-01    4.220000e+00
 SP4dr TN1dq  1 3.650000e-01    1.910000e+00
 SP4dr TN2dq  1 3.650000e-01    2.110000e+00
 SP4dr TN3dq  1 3.650000e-01    2.110000e+00
 SP4dr TN4dq  1 3.650000e-01    2.340000e+00
 SP4dr TN5dq  1 3.650000e-01    2.340000e+00
 SP4dr TN6dq  1 3.650000e-01    2.570000e+00
 SP4dr TP1dq  1 3.650000e-01    2.830000e+00
 SP4dr TP2dq  1 3.650000e-01    3.100000e+00
 SP4dr TP3dq  1 3.650000e-01    3.100000e+00
 SP6dq TP3dr  1 3.650000e-01    3.370000e+00
 SP5dq TP3dr  1 3.650000e-01    3.100000e+00
 SP4dq TP3dr  1 3.650000e-01    3.100000e+00
 SP3dr TP3dq  1 3.650000e-01    3.100000e+00
 SP3dr TX1eq  1 3.650000e-01    1.910000e+00
 SP3dr TX2eq  1 3.650000e-01    2.110000e+00
 SP3dr TX3eq  1 3.650000e-01    2.340000e+00
 SP3dr TX4eq  1 3.650000e-01    2.340000e+00
 SP3dr TC1eq  1 3.780000e-01    1.450000e+00
 SP3dr TC2eq  1 3.660000e-01    1.600000e+00
 SP3dr TC3eq  1 3.660000e-01    1.600000e+00
 SP3dr TC4eq  1 3.650000e-01    1.910000e+00
 SP3dr TC5eq  1 3.650000e-01    2.110000e+00
 SP3dr TC6eq  1 3.650000e-01    2.340000e+00
 SP3dr TX1vq  1 3.660000e-01    1.600000e+00
 SP3dr TX2vq  1 3.650000e-01    1.750000e+00
 SP3dr TX3vq  1 3.650000e-01    1.910000e+00
 SP3dr TX4vq  1 3.650000e-01    1.910000e+00
 SP3dr TC1vq  1 4.040000e-01    1.130000e+00
 SP3dr TC2vq  1 3.940000e-01    1.290000e+00
 SP3dr TC3vq  1 3.940000e-01    1.290000e+00
 SP3dr TC4vq  1 3.660000e-01    1.600000e+00
 SP3dr TC5vq  1 3.650000e-01    1.750000e+00
 SP3dr TC6vq  1 3.650000e-01    1.910000e+00
 SP3dr TN1aq  1 3.650000e-01    2.110000e+00
 SP3dr TN2aq  1 3.650000e-01    2.570000e+00
 SP3dr TN3aq  1 3.650000e-01    2.570000e+00
 SP3dr TN4aq  1 3.650000e-01    2.830000e+00
 SP3dr TN5aq  1 3.650000e-01    2.830000e+00
 SP3dr TN6aq  1 3.650000e-01    3.100000e+00
 SP3dr TP1aq  1 3.650000e-01    3.370000e+00
 SP3dr TP2aq  1 3.650000e-01    3.640000e+00
 SP3dr TP3aq  1 3.650000e-01    3.640000e+00
 SP4aq TP3dr  1 3.650000e-01    3.640000e+00
 SP5aq TP3dr  1 3.650000e-01    3.640000e+00
 SP6aq TP3dr  1 3.650000e-01    3.930000e+00
 SP3dr TN1dq  1 3.650000e-01    2.110000e+00
 SP3dr TN2dq  1 3.650000e-01    2.110000e+00
 SP3dr TN3dq  1 3.650000e-01    2.110000e+00
 SP3dr TN4dq  1 3.650000e-01    2.340000e+00
 SP3dr TN5dq  1 3.650000e-01    2.340000e+00
 SP3dr TN6dq  1 3.650000e-01    2.570000e+00
 SP3dr TP1dq  1 3.650000e-01    2.830000e+00
 SP3dr TP2dq  1 3.650000e-01    3.100000e+00
 SP6dq TP2dr  1 3.650000e-01    3.370000e+00
 SP5dq TP2dr  1 3.650000e-01    3.100000e+00
 SP4dq TP2dr  1 3.650000e-01    3.100000e+00
 SP3dq TP2dr  1 3.650000e-01    3.100000e+00
 SP2dr TP2dq  1 3.650000e-01    3.100000e+00
 SP2dr TX1eq  1 3.650000e-01    1.910000e+00
 SP2dr TX2eq  1 3.650000e-01    2.110000e+00
 SP2dr TX3eq  1 3.650000e-01    2.340000e+00
 SP2dr TX4eq  1 3.650000e-01    2.340000e+00
 SP2dr TC1eq  1 3.660000e-01    1.600000e+00
 SP2dr TC2eq  1 3.650000e-01    1.750000e+00
 SP2dr TC3eq  1 3.650000e-01    1.750000e+00
 SP2dr TC4eq  1 3.650000e-01    1.910000e+00
 SP2dr TC5eq  1 3.650000e-01    2.110000e+00
 SP2dr TC6eq  1 3.650000e-01    2.340000e+00
 SP2dr TX1vq  1 3.660000e-01    1.600000e+00
 SP2dr TX2vq  1 3.650000e-01    1.750000e+00
 SP2dr TX3vq  1 3.650000e-01    1.910000e+00
 SP2dr TX4vq  1 3.650000e-01    1.910000e+00
 SP2dr TC1vq  1 3.940000e-01    1.290000e+00
 SP2dr TC2vq  1 3.780000e-01    1.450000e+00
 SP2dr TC3vq  1 3.780000e-01    1.450000e+00
 SP2dr TC4vq  1 3.660000e-01    1.600000e+00
 SP2dr TC5vq  1 3.650000e-01    1.750000e+00
 SP2dr TC6vq  1 3.650000e-01    1.910000e+00
 SP2dr TN1aq  1 3.650000e-01    2.570000e+00
 SP2dr TN2aq  1 3.650000e-01    2.570000e+00
 SP2dr TN3aq  1 3.650000e-01    2.570000e+00
 SP2dr TN4aq  1 3.650000e-01    2.830000e+00
 SP2dr TN5aq  1 3.650000e-01    3.100000e+00
 SP2dr TN6aq  1 3.650000e-01    3.370000e+00
 SP2dr TP1aq  1 3.650000e-01    3.370000e+00
 SP2dr TP2aq  1 3.650000e-01    3.640000e+00
 SP3aq TP2dr  1 3.650000e-01    3.640000e+00
 SP4aq TP2dr  1 3.650000e-01    3.640000e+00
 SP5aq TP2dr  1 3.650000e-01    3.640000e+00
 SP6aq TP2dr  1 3.650000e-01    3.930000e+00
 SP2dr TN1dq  1 3.650000e-01    2.110000e+00
 SP2dr TN2dq  1 3.650000e-01    2.110000e+00
 SP2dr TN3dq  1 3.650000e-01    2.110000e+00
 SP2dr TN4dq  1 3.650000e-01    2.340000e+00
 SP2dr TN5dq  1 3.650000e-01    2.570000e+00
 SP2dr TN6dq  1 3.650000e-01    2.830000e+00
 SP2dr TP1dq  1 3.650000e-01    2.830000e+00
 SP6dq TP1dr  1 3.650000e-01    3.100000e+00
 SP5dq TP1dr  1 3.650000e-01    2.830000e+00
 SP4dq TP1dr  1 3.650000e-01    2.830000e+00
 SP3dq TP1dr  1 3.650000e-01    2.830000e+00
 SP2dq TP1dr  1 3.650000e-01    2.830000e+00
 SP1dr TP1dq  1 3.650000e-01    2.830000e+00
 SP1dr TX1eq  1 3.650000e-01    1.910000e+00
 SP1dr TX2eq  1 3.650000e-01    2.110000e+00
 SP1dr TX3eq  1 3.650000e-01    2.340000e+00
 SP1dr TX4eq  1 3.650000e-01    2.340000e+00
 SP1dr TC1eq  1 3.660000e-01    1.600000e+00
 SP1dr TC2eq  1 3.650000e-01    1.750000e+00
 SP1dr TC3eq  1 3.650000e-01    1.750000e+00
 SP1dr TC4eq  1 3.650000e-01    1.910000e+00
 SP1dr TC5eq  1 3.650000e-01    2.110000e+00
 SP1dr TC6eq  1 3.650000e-01    2.340000e+00
 SP1dr TX1vq  1 3.660000e-01    1.600000e+00
 SP1dr TX2vq  1 3.650000e-01    1.750000e+00
 SP1dr TX3vq  1 3.650000e-01    1.910000e+00
 SP1dr TX4vq  1 3.650000e-01    1.910000e+00
 SP1dr TC1vq  1 3.940000e-01    1.290000e+00
 SP1dr TC2vq  1 3.780000e-01    1.450000e+00
 SP1dr TC3vq  1 3.780000e-01    1.450000e+00
 SP1dr TC4vq  1 3.660000e-01    1.600000e+00
 SP1dr TC5vq  1 3.650000e-01    1.750000e+00
 SP1dr TC6vq  1 3.650000e-01    1.910000e+00
 SP1dr TN1aq  1 3.650000e-01    2.570000e+00
 SP1dr TN2aq  1 3.650000e-01    2.570000e+00
 SP1dr TN3aq  1 3.650000e-01    2.570000e+00
 SP1dr TN4aq  1 3.650000e-01    3.100000e+00
 SP1dr TN5aq  1 3.650000e-01    3.100000e+00
 SP1dr TN6aq  1 3.650000e-01    3.370000e+00
 SP1dr TP1aq  1 3.650000e-01    3.370000e+00
 SP2aq TP1dr  1 3.650000e-01    3.370000e+00
 SP3aq TP1dr  1 3.650000e-01    3.370000e+00
 SP4aq TP1dr  1 3.650000e-01    3.370000e+00
 SP5aq TP1dr  1 3.650000e-01    3.370000e+00
 SP6aq TP1dr  1 3.650000e-01    3.640000e+00
 SP1dr TN1dq  1 3.650000e-01    2.110000e+00
 SP1dr TN2dq  1 3.650000e-01    2.110000e+00
 SP1dr TN3dq  1 3.650000e-01    2.110000e+00
 SP1dr TN4dq  1 3.650000e-01    2.570000e+00
 SP1dr TN5dq  1 3.650000e-01    2.570000e+00
 SP1dr TN6dq  1 3.650000e-01    2.830000e+00
 SP6dq TN6dr  1 3.650000e-01    2.830000e+00
 SP5dq TN6dr  1 3.650000e-01    2.570000e+00
 SP4dq TN6dr  1 3.650000e-01    2.570000e+00
 SP3dq TN6dr  1 3.650000e-01    2.570000e+00
 SP2dq TN6dr  1 3.650000e-01    2.830000e+00
 SP1dq TN6dr  1 3.650000e-01    2.830000e+00
 SN6dr TN6dq  1 3.650000e-01    2.830000e+00
 SN6dr TX1eq  1 3.650000e-01    1.910000e+00
 SN6dr TX2eq  1 3.650000e-01    2.110000e+00
 SN6dr TX3eq  1 3.650000e-01    2.340000e+00
 SN6dr TX4eq  1 3.650000e-01    2.570000e+00
 SN6dr TC1eq  1 3.650000e-01    1.750000e+00
 SN6dr TC2eq  1 3.650000e-01    1.910000e+00
 SN6dr TC3eq  1 3.650000e-01    1.910000e+00
 SN6dr TC4eq  1 3.650000e-01    2.110000e+00
 SN6dr TC5eq  1 3.650000e-01    2.340000e+00
 SN6dr TC6eq  1 3.650000e-01    2.570000e+00
 SN6dr TX1vq  1 3.660000e-01    1.600000e+00
 SN6dr TX2vq  1 3.650000e-01    1.750000e+00
 SN6dr TX3vq  1 3.650000e-01    1.910000e+00
 SN6dr TX4vq  1 3.650000e-01    2.110000e+00
 SN6dr TC1vq  1 3.780000e-01    1.450000e+00
 SN6dr TC2vq  1 3.660000e-01    1.600000e+00
 SN6dr TC3vq  1 3.660000e-01    1.600000e+00
 SN6dr TC4vq  1 3.650000e-01    1.750000e+00
 SN6dr TC5vq  1 3.650000e-01    1.910000e+00
 SN6dr TC6vq  1 3.650000e-01    2.110000e+00
 SN6dr TN1aq  1 3.650000e-01    2.570000e+00
 SN6dr TN2aq  1 3.650000e-01    2.570000e+00
 SN6dr TN3aq  1 3.650000e-01    2.830000e+00
 SN6dr TN4aq  1 3.650000e-01    3.370000e+00
 SN6dr TN5aq  1 3.650000e-01    3.370000e+00
 SN6dr TN6aq  1 3.650000e-01    3.370000e+00
 SP1aq TN6dr  1 3.650000e-01    3.370000e+00
 SP2aq TN6dr  1 3.650000e-01    3.370000e+00
 SP3aq TN6dr  1 3.650000e-01    3.100000e+00
 SP4aq TN6dr  1 3.650000e-01    3.100000e+00
 SP5aq TN6dr  1 3.650000e-01    3.100000e+00
 SP6aq TN6dr  1 3.650000e-01    3.370000e+00
 SN6dr TN1dq  1 3.650000e-01    2.110000e+00
 SN6dr TN2dq  1 3.650000e-01    2.110000e+00
 SN6dr TN3dq  1 3.650000e-01    2.340000e+00
 SN6dr TN4dq  1 3.650000e-01    2.830000e+00
 SN6dr TN5dq  1 3.650000e-01    2.830000e+00
 SP6dq TN5dr  1 3.650000e-01    2.340000e+00
 SP5dq TN5dr  1 3.650000e-01    2.340000e+00
 SP4dq TN5dr  1 3.650000e-01    2.340000e+00
 SP3dq TN5dr  1 3.650000e-01    2.340000e+00
 SP2dq TN5dr  1 3.650000e-01    2.570000e+00
 SP1dq TN5dr  1 3.650000e-01    2.570000e+00
 SN6dq TN5dr  1 3.650000e-01    2.830000e+00
 SN5dr TN5dq  1 3.650000e-01    2.570000e+00
 SN5dr TX1eq  1 3.650000e-01    2.110000e+00
 SN5dr TX2eq  1 3.650000e-01    2.340000e+00
 SN5dr TX3eq  1 3.650000e-01    2.570000e+00
 SN5dr TX4eq  1 3.650000e-01    2.830000e+00
 SN5dr TC1eq  1 3.650000e-01    1.750000e+00
 SN5dr TC2eq  1 3.650000e-01    1.910000e+00
 SN5dr TC3eq  1 3.650000e-01    2.110000e+00
 SN5dr TC4eq  1 3.650000e-01    2.110000e+00
 SN5dr TC5eq  1 3.650000e-01    2.340000e+00
 SN5dr TC6eq  1 3.650000e-01    2.570000e+00
 SN5dr TX1vq  1 3.650000e-01    1.750000e+00
 SN5dr TX2vq  1 3.650000e-01    1.910000e+00
 SN5dr TX3vq  1 3.650000e-01    2.110000e+00
 SN5dr TX4vq  1 3.650000e-01    2.340000e+00
 SN5dr TC1vq  1 3.780000e-01    1.450000e+00
 SN5dr TC2vq  1 3.660000e-01    1.600000e+00
 SN5dr TC3vq  1 3.650000e-01    1.750000e+00
 SN5dr TC4vq  1 3.650000e-01    1.750000e+00
 SN5dr TC5vq  1 3.650000e-01    1.910000e+00
 SN5dr TC6vq  1 3.650000e-01    2.110000e+00
 SN5dr TN1aq  1 3.650000e-01    2.570000e+00
 SN5dr TN2aq  1 3.650000e-01    2.830000e+00
 SN5dr TN3aq  1 3.650000e-01    2.830000e+00
 SN5dr TN4aq  1 3.650000e-01    3.100000e+00
 SN5dr TN5aq  1 3.650000e-01    3.100000e+00
 SN6aq TN5dr  1 3.650000e-01    3.370000e+00
 SP1aq TN5dr  1 3.650000e-01    3.100000e+00
 SP2aq TN5dr  1 3.650000e-01    3.100000e+00
 SP3aq TN5dr  1 3.650000e-01    2.830000e+00
 SP4aq TN5dr  1 3.650000e-01    2.830000e+00
 SP5aq TN5dr  1 3.650000e-01    2.830000e+00
 SP6aq TN5dr  1 3.650000e-01    2.830000e+00
 SN5dr TN1dq  1 3.650000e-01    2.110000e+00
 SN5dr TN2dq  1 3.650000e-01    2.340000e+00
 SN5dr TN3dq  1 3.650000e-01    2.340000e+00
 SN5dr TN4dq  1 3.650000e-01    2.570000e+00
 SP6dq TN4dr  1 3.650000e-01    2.110000e+00
 SP5dq TN4dr  1 3.650000e-01    2.340000e+00
 SP4dq TN4dr  1 3.650000e-01    2.340000e+00
 SP3dq TN4dr  1 3.650000e-01    2.340000e+00
 SP2dq TN4dr  1 3.650000e-01    2.340000e+00
 SP1dq TN4dr  1 3.650000e-01    2.570000e+00
 SN6dq TN4dr  1 3.650000e-01    2.830000e+00
 SN5dq TN4dr  1 3.650000e-01    2.570000e+00
 SN4dr TN4dq  1 3.650000e-01    2.570000e+00
 SN4dr TX1eq  1 3.650000e-01    2.110000e+00
 SN4dr TX2eq  1 3.650000e-01    2.340000e+00
 SN4dr TX3eq  1 3.650000e-01    2.830000e+00
 SN4dr TX4eq  1 3.650000e-01    3.100000e+00
 SN4dr TC1eq  1 3.650000e-01    1.750000e+00
 SN4dr TC2eq  1 3.650000e-01    1.910000e+00
 SN4dr TC3eq  1 3.650000e-01    2.110000e+00
 SN4dr TC4eq  1 3.650000e-01    2.340000e+00
 SN4dr TC5eq  1 3.650000e-01    2.340000e+00
 SN4dr TC6eq  1 3.650000e-01    2.570000e+00
 SN4dr TX1vq  1 3.650000e-01    1.750000e+00
 SN4dr TX2vq  1 3.650000e-01    1.910000e+00
 SN4dr TX3vq  1 3.650000e-01    2.340000e+00
 SN4dr TX4vq  1 3.650000e-01    2.570000e+00
 SN4dr TC1vq  1 3.780000e-01    1.450000e+00
 SN4dr TC2vq  1 3.660000e-01    1.600000e+00
 SN4dr TC3vq  1 3.650000e-01    1.750000e+00
 SN4dr TC4vq  1 3.650000e-01    1.910000e+00
 SN4dr TC5vq  1 3.650000e-01    1.910000e+00
 SN4dr TC6vq  1 3.650000e-01    2.110000e+00
 SN4dr TN1aq  1 3.650000e-01    2.570000e+00
 SN4dr TN2aq  1 3.650000e-01    2.830000e+00
 SN4dr TN3aq  1 3.650000e-01    2.830000e+00
 SN4dr TN4aq  1 3.650000e-01    3.100000e+00
 SN5aq TN4dr  1 3.650000e-01    3.100000e+00
 SN6aq TN4dr  1 3.650000e-01    3.370000e+00
 SP1aq TN4dr  1 3.650000e-01    3.100000e+00
 SP2aq TN4dr  1 3.650000e-01    2.830000e+00
 SP3aq TN4dr  1 3.650000e-01    2.830000e+00
 SP4aq TN4dr  1 3.650000e-01    2.830000e+00
 SP5aq TN4dr  1 3.650000e-01    2.830000e+00
 SP6aq TN4dr  1 3.650000e-01    2.570000e+00
 SN4dr TN1dq  1 3.650000e-01    2.110000e+00
 SN4dr TN2dq  1 3.650000e-01    2.340000e+00
 SN4dr TN3dq  1 3.650000e-01    2.340000e+00
 SP6dq TN3dr  1 3.650000e-01    2.110000e+00
 SP5dq TN3dr  1 3.650000e-01    2.110000e+00
 SP4dq TN3dr  1 3.650000e-01    2.110000e+00
 SP3dq TN3dr  1 3.650000e-01    2.110000e+00
 SP2dq TN3dr  1 3.650000e-01    2.110000e+00
 SP1dq TN3dr  1 3.650000e-01    2.110000e+00
 SN6dq TN3dr  1 3.650000e-01    2.340000e+00
 SN5dq TN3dr  1 3.650000e-01    2.340000e+00
 SN4dq TN3dr  1 3.650000e-01    2.340000e+00
 SN3dr TN3dq  1 3.650000e-01    2.340000e+00
 SN3dr TX1eq  1 3.650000e-01    2.340000e+00
 SN3dr TX2eq  1 3.650000e-01    2.340000e+00
 SN3dr TX3eq  1 3.650000e-01    2.570000e+00
 SN3dr TX4eq  1 3.650000e-01    2.830000e+00
 SN3dr TC1eq  1 3.650000e-01    1.910000e+00
 SN3dr TC2eq  1 3.650000e-01    2.110000e+00
 SN3dr TC3eq  1 3.650000e-01    2.110000e+00
 SN3dr TC4eq  1 3.650000e-01    2.340000e+00
 SN3dr TC5eq  1 3.650000e-01    2.340000e+00
 SN3dr TC6eq  1 3.650000e-01    2.570000e+00
 SN3dr TX1vq  1 3.650000e-01    1.910000e+00
 SN3dr TX2vq  1 3.650000e-01    1.910000e+00
 SN3dr TX3vq  1 3.650000e-01    2.110000e+00
 SN3dr TX4vq  1 3.650000e-01    2.340000e+00
 SN3dr TC1vq  1 3.660000e-01    1.600000e+00
 SN3dr TC2vq  1 3.650000e-01    1.750000e+00
 SN3dr TC3vq  1 3.650000e-01    1.750000e+00
 SN3dr TC4vq  1 3.650000e-01    1.910000e+00
 SN3dr TC5vq  1 3.650000e-01    1.910000e+00
 SN3dr TC6vq  1 3.650000e-01    2.110000e+00
 SN3dr TN1aq  1 3.650000e-01    2.570000e+00
 SN3dr TN2aq  1 3.650000e-01    2.830000e+00
 SN3dr TN3aq  1 3.650000e-01    2.830000e+00
 SN4aq TN3dr  1 3.650000e-01    2.830000e+00
 SN5aq TN3dr  1 3.650000e-01    2.830000e+00
 SN6aq TN3dr  1 3.650000e-01    2.830000e+00
 SP1aq TN3dr  1 3.650000e-01    2.570000e+00
 SP2aq TN3dr  1 3.650000e-01    2.570000e+00
 SP3aq TN3dr  1 3.650000e-01    2.570000e+00
 SP4aq TN3dr  1 3.650000e-01    2.570000e+00
 SP5aq TN3dr  1 3.650000e-01    2.110000e+00
 SP6aq TN3dr  1 3.650000e-01    2.110000e+00
 SN3dr TN1dq  1 3.650000e-01    2.110000e+00
 SN3dr TN2dq  1 3.650000e-01    2.340000e+00
 SP6dq TN2dr  1 3.650000e-01    1.910000e+00
 SP5dq TN2dr  1 3.650000e-01    1.910000e+00
 SP4dq TN2dr  1 3.650000e-01    2.110000e+00
 SP3dq TN2dr  1 3.650000e-01    2.110000e+00
 SP2dq TN2dr  1 3.650000e-01    2.110000e+00
 SP1dq TN2dr  1 3.650000e-01    2.110000e+00
 SN6dq TN2dr  1 3.650000e-01    2.110000e+00
 SN5dq TN2dr  1 3.650000e-01    2.340000e+00
 SN4dq TN2dr  1 3.650000e-01    2.340000e+00
 SN3dq TN2dr  1 3.650000e-01    2.340000e+00
 SN2dr TN2dq  1 3.650000e-01    2.340000e+00
 SN2dr TX1eq  1 3.650000e-01    2.340000e+00
 SN2dr TX2eq  1 3.650000e-01    2.340000e+00
 SN2dr TX3eq  1 3.650000e-01    2.570000e+00
 SN2dr TX4eq  1 3.650000e-01    2.830000e+00
 SN2dr TC1eq  1 3.650000e-01    1.910000e+00
 SN2dr TC2eq  1 3.650000e-01    2.110000e+00
 SN2dr TC3eq  1 3.650000e-01    2.340000e+00
 SN2dr TC4eq  1 3.650000e-01    2.340000e+00
 SN2dr TC5eq  1 3.650000e-01    2.340000e+00
 SN2dr TC6eq  1 3.650000e-01    2.570000e+00
 SN2dr TX1vq  1 3.650000e-01    1.910000e+00
 SN2dr TX2vq  1 3.650000e-01    1.910000e+00
 SN2dr TX3vq  1 3.650000e-01    2.110000e+00
 SN2dr TX4vq  1 3.650000e-01    2.340000e+00
 SN2dr TC1vq  1 3.660000e-01    1.600000e+00
 SN2dr TC2vq  1 3.650000e-01    1.750000e+00
 SN2dr TC3vq  1 3.650000e-01    1.910000e+00
 SN2dr TC4vq  1 3.650000e-01    1.910000e+00
 SN2dr TC5vq  1 3.650000e-01    1.910000e+00
 SN2dr TC6vq  1 3.650000e-01    2.110000e+00
 SN2dr TN1aq  1 3.650000e-01    2.570000e+00
 SN2dr TN2aq  1 3.650000e-01    2.830000e+00
 SN3aq TN2dr  1 3.650000e-01    2.830000e+00
 SN4aq TN2dr  1 3.650000e-01    2.830000e+00
 SN5aq TN2dr  1 3.650000e-01    2.830000e+00
 SN6aq TN2dr  1 3.650000e-01    2.570000e+00
 SP1aq TN2dr  1 3.650000e-01    2.570000e+00
 SP2aq TN2dr  1 3.650000e-01    2.570000e+00
 SP3aq TN2dr  1 3.650000e-01    2.570000e+00
 SP4aq TN2dr  1 3.650000e-01    2.110000e+00
 SP5aq TN2dr  1 3.650000e-01    1.910000e+00
 SP6aq TN2dr  1 3.650000e-01    1.910000e+00
 SN2dr TN1dq  1 3.650000e-01    2.110000e+00
 SP6dq TN1dr  1 3.650000e-01    1.750000e+00
 SP5dq TN1dr  1 3.650000e-01    1.750000e+00
 SP4dq TN1dr  1 3.650000e-01    1.910000e+00
 SP3dq TN1dr  1 3.650000e-01    2.110000e+00
 SP2dq TN1dr  1 3.650000e-01    2.110000e+00
 SP1dq TN1dr  1 3.650000e-01    2.110000e+00
 SN6dq TN1dr  1 3.650000e-01    2.110000e+00
 SN5dq TN1dr  1 3.650000e-01    2.110000e+00
 SN4dq TN1dr  1 3.650000e-01    2.110000e+00
 SN3dq TN1dr  1 3.650000e-01    2.110000e+00
 SN2dq TN1dr  1 3.650000e-01    2.110000e+00
 SN1dr TN1dq  1 3.650000e-01    2.340000e+00
 SN1dr TX1eq  1 3.650000e-01    2.340000e+00
 SN1dr TX2eq  1 3.650000e-01    2.340000e+00
 SN1dr TX3eq  1 3.650000e-01    2.570000e+00
 SN1dr TX4eq  1 3.650000e-01    2.570000e+00
 SN1dr TC1eq  1 3.650000e-01    1.910000e+00
 SN1dr TC2eq  1 3.650000e-01    2.110000e+00
 SN1dr TC3eq  1 3.650000e-01    2.340000e+00
 SN1dr TC4eq  1 3.650000e-01    2.570000e+00
 SN1dr TC5eq  1 3.650000e-01    2.570000e+00
 SN1dr TC6eq  1 3.650000e-01    2.830000e+00
 SN1dr TX1vq  1 3.650000e-01    1.910000e+00
 SN1dr TX2vq  1 3.650000e-01    1.910000e+00
 SN1dr TX3vq  1 3.650000e-01    2.110000e+00
 SN1dr TX4vq  1 3.650000e-01    2.110000e+00
 SN1dr TC1vq  1 3.660000e-01    1.600000e+00
 SN1dr TC2vq  1 3.650000e-01    1.750000e+00
 SN1dr TC3vq  1 3.650000e-01    1.910000e+00
 SN1dr TC4vq  1 3.650000e-01    2.110000e+00
 SN1dr TC5vq  1 3.650000e-01    2.110000e+00
 SN1dr TC6vq  1 3.650000e-01    2.340000e+00
 SN1dr TN1aq  1 3.650000e-01    2.830000e+00
 SN2aq TN1dr  1 3.650000e-01    2.570000e+00
 SN3aq TN1dr  1 3.650000e-01    2.570000e+00
 SN4aq TN1dr  1 3.650000e-01    2.570000e+00
 SN5aq TN1dr  1 3.650000e-01    2.570000e+00
 SN6aq TN1dr  1 3.650000e-01    2.570000e+00
 SP1aq TN1dr  1 3.650000e-01    2.570000e+00
 SP2aq TN1dr  1 3.650000e-01    2.570000e+00
 SP3aq TN1dr  1 3.650000e-01    2.110000e+00
 SP4aq TN1dr  1 3.650000e-01    1.910000e+00
 SP5aq TN1dr  1 3.650000e-01    1.750000e+00
 SP6aq TN1dr  1 3.650000e-01    1.750000e+00
 SP6dq TP6ar  1 3.650000e-01    4.860000e+00
 SP6ar TP5dq  1 3.650000e-01    4.510000e+00
 SP6ar TP4dq  1 3.650000e-01    4.220000e+00
 SP6ar TP3dq  1 3.650000e-01    3.930000e+00
 SP6ar TP2dq  1 3.650000e-01    3.930000e+00
 SP6ar TP1dq  1 3.650000e-01    3.640000e+00
 SP6ar TN6dq  1 3.650000e-01    3.370000e+00
 SP6ar TN5dq  1 3.650000e-01    2.830000e+00
 SP6ar TN4dq  1 3.650000e-01    2.570000e+00
 SP6ar TN3dq  1 3.650000e-01    2.110000e+00
 SP6ar TN2dq  1 3.650000e-01    1.910000e+00
 SP6ar TN1dq  1 3.650000e-01    1.750000e+00
 SP6ar TP6aq  1 3.650000e-01    4.220000e+00
 SP6ar TX1eq  1 3.780000e-01    1.450000e+00
 SP6ar TX2eq  1 3.660000e-01    1.600000e+00
 SP6ar TX3eq  1 3.650000e-01    1.750000e+00
 SP6ar TX4eq  1 3.650000e-01    1.750000e+00
 SP6ar TC1eq  1 4.230000e-01    9.810000e-01
 SP6ar TC2eq  1 4.040000e-01    1.130000e+00
 SP6ar TC3eq  1 4.040000e-01    1.130000e+00
 SP6ar TC4eq  1 3.940000e-01    1.290000e+00
 SP6ar TC5eq  1 3.780000e-01    1.450000e+00
 SP6ar TC6eq  1 3.660000e-01    1.600000e+00
 SP6ar TX1vq  1 3.650000e-01    1.750000e+00
 SP6ar TX2vq  1 3.650000e-01    1.910000e+00
 SP6ar TX3vq  1 3.650000e-01    2.110000e+00
 SP6ar TX4vq  1 3.650000e-01    2.110000e+00
 SP6ar TC1vq  1 4.040000e-01    1.130000e+00
 SP6ar TC2vq  1 3.780000e-01    1.450000e+00
 SP6ar TC3vq  1 3.780000e-01    1.450000e+00
 SP6ar TC4vq  1 3.660000e-01    1.600000e+00
 SP6ar TC5vq  1 3.650000e-01    1.750000e+00
 SP6ar TC6vq  1 3.650000e-01    1.910000e+00
 SP6ar TN1aq  1 3.650000e-01    1.750000e+00
 SP6ar TN2aq  1 3.650000e-01    1.910000e+00
 SP6ar TN3aq  1 3.650000e-01    2.110000e+00
 SP6ar TN4aq  1 3.650000e-01    2.110000e+00
 SP6ar TN5aq  1 3.650000e-01    2.340000e+00
 SP6ar TN6aq  1 3.650000e-01    2.830000e+00
 SP6ar TP1aq  1 3.650000e-01    3.100000e+00
 SP6ar TP2aq  1 3.650000e-01    3.370000e+00
 SP6ar TP3aq  1 3.650000e-01    3.370000e+00
 SP6ar TP4aq  1 3.650000e-01    3.640000e+00
 SP6ar TP5aq  1 3.650000e-01    3.930000e+00
 SP6dq TP5ar  1 3.650000e-01    4.510000e+00
 SP5dq TP5ar  1 3.650000e-01    4.220000e+00
 SP5ar TP4dq  1 3.650000e-01    3.930000e+00
 SP5ar TP3dq  1 3.650000e-01    3.640000e+00
 SP5ar TP2dq  1 3.650000e-01    3.640000e+00
 SP5ar TP1dq  1 3.650000e-01    3.370000e+00
 SP5ar TN6dq  1 3.650000e-01    3.100000e+00
 SP5ar TN5dq  1 3.650000e-01    2.830000e+00
 SP5ar TN4dq  1 3.650000e-01    2.830000e+00
 SP5ar TN3dq  1 3.650000e-01    2.110000e+00
 SP5ar TN2dq  1 3.650000e-01    1.910000e+00
 SP5ar TN1dq  1 3.650000e-01    1.750000e+00
 SP6aq TP5ar  1 3.650000e-01    3.930000e+00
 SP5ar TP5aq  1 3.650000e-01    3.640000e+00
 SP5ar TX1eq  1 3.780000e-01    1.450000e+00
 SP5ar TX2eq  1 3.650000e-01    1.750000e+00
 SP5ar TX3eq  1 3.650000e-01    1.750000e+00
 SP5ar TX4eq  1 3.650000e-01    1.910000e+00
 SP5ar TC1eq  1 4.040000e-01    1.130000e+00
 SP5ar TC2eq  1 3.940000e-01    1.290000e+00
 SP5ar TC3eq  1 3.940000e-01    1.290000e+00
 SP5ar TC4eq  1 3.780000e-01    1.450000e+00
 SP5ar TC5eq  1 3.660000e-01    1.600000e+00
 SP5ar TC6eq  1 3.660000e-01    1.600000e+00
 SP5ar TX1vq  1 3.650000e-01    1.750000e+00
 SP5ar TX2vq  1 3.650000e-01    2.110000e+00
 SP5ar TX3vq  1 3.650000e-01    2.110000e+00
 SP5ar TX4vq  1 3.650000e-01    2.340000e+00
 SP5ar TC1vq  1 3.780000e-01    1.450000e+00
 SP5ar TC2vq  1 3.660000e-01    1.600000e+00
 SP5ar TC3vq  1 3.660000e-01    1.600000e+00
 SP5ar TC4vq  1 3.650000e-01    1.750000e+00
 SP5ar TC5vq  1 3.650000e-01    1.910000e+00
 SP5ar TC6vq  1 3.650000e-01    1.910000e+00
 SP5ar TN1aq  1 3.650000e-01    1.750000e+00
 SP5ar TN2aq  1 3.650000e-01    1.910000e+00
 SP5ar TN3aq  1 3.650000e-01    2.110000e+00
 SP5ar TN4aq  1 3.650000e-01    2.340000e+00
 SP5ar TN5aq  1 3.650000e-01    2.340000e+00
 SP5ar TN6aq  1 3.650000e-01    2.570000e+00
 SP5ar TP1aq  1 3.650000e-01    2.830000e+00
 SP5ar TP2aq  1 3.650000e-01    3.100000e+00
 SP5ar TP3aq  1 3.650000e-01    3.100000e+00
 SP5ar TP4aq  1 3.650000e-01    3.370000e+00
 SP6dq TP4ar  1 3.650000e-01    4.220000e+00
 SP5dq TP4ar  1 3.650000e-01    3.930000e+00
 SP4dq TP4ar  1 3.650000e-01    3.930000e+00
 SP4ar TP3dq  1 3.650000e-01    3.640000e+00
 SP4ar TP2dq  1 3.650000e-01    3.640000e+00
 SP4ar TP1dq  1 3.650000e-01    3.370000e+00
 SP4ar TN6dq  1 3.650000e-01    3.100000e+00
 SP4ar TN5dq  1 3.650000e-01    2.830000e+00
 SP4ar TN4dq  1 3.650000e-01    2.830000e+00
 SP4ar TN3dq  1 3.650000e-01    2.570000e+00
 SP4ar TN2dq  1 3.650000e-01    2.110000e+00
 SP4ar TN1dq  1 3.650000e-01    1.910000e+00
 SP6aq TP4ar  1 3.650000e-01    3.640000e+00
 SP5aq TP4ar  1 3.650000e-01    3.370000e+00
 SP4ar TP4aq  1 3.650000e-01    3.370000e+00
 SP4ar TX1eq  1 3.660000e-01    1.600000e+00
 SP4ar TX2eq  1 3.650000e-01    1.750000e+00
 SP4ar TX3eq  1 3.650000e-01    1.750000e+00
 SP4ar TX4eq  1 3.650000e-01    1.910000e+00
 SP4ar TC1eq  1 4.040000e-01    1.130000e+00
 SP4ar TC2eq  1 3.940000e-01    1.290000e+00
 SP4ar TC3eq  1 3.940000e-01    1.290000e+00
 SP4ar TC4eq  1 3.780000e-01    1.450000e+00
 SP4ar TC5eq  1 3.660000e-01    1.600000e+00
 SP4ar TC6eq  1 3.650000e-01    1.750000e+00
 SP4ar TX1vq  1 3.650000e-01    1.910000e+00
 SP4ar TX2vq  1 3.650000e-01    2.110000e+00
 SP4ar TX3vq  1 3.650000e-01    2.110000e+00
 SP4ar TX4vq  1 3.650000e-01    2.340000e+00
 SP4ar TC1vq  1 3.780000e-01    1.450000e+00
 SP4ar TC2vq  1 3.660000e-01    1.600000e+00
 SP4ar TC3vq  1 3.660000e-01    1.600000e+00
 SP4ar TC4vq  1 3.650000e-01    1.750000e+00
 SP4ar TC5vq  1 3.650000e-01    1.910000e+00
 SP4ar TC6vq  1 3.650000e-01    2.110000e+00
 SP4ar TN1aq  1 3.650000e-01    1.910000e+00
 SP4ar TN2aq  1 3.650000e-01    2.110000e+00
 SP4ar TN3aq  1 3.650000e-01    2.110000e+00
 SP4ar TN4aq  1 3.650000e-01    2.340000e+00
 SP4ar TN5aq  1 3.650000e-01    2.340000e+00
 SP4ar TN6aq  1 3.650000e-01    2.570000e+00
 SP4ar TP1aq  1 3.650000e-01    2.830000e+00
 SP4ar TP2aq  1 3.650000e-01    3.100000e+00
 SP4ar TP3aq  1 3.650000e-01    3.100000e+00
 SP6dq TP3ar  1 3.650000e-01    3.930000e+00
 SP5dq TP3ar  1 3.650000e-01    3.640000e+00
 SP4dq TP3ar  1 3.650000e-01    3.640000e+00
 SP3dq TP3ar  1 3.650000e-01    3.640000e+00
 SP3ar TP2dq  1 3.650000e-01    3.640000e+00
 SP3ar TP1dq  1 3.650000e-01    3.370000e+00
 SP3ar TN6dq  1 3.650000e-01    3.100000e+00
 SP3ar TN5dq  1 3.650000e-01    2.830000e+00
 SP3ar TN4dq  1 3.650000e-01    2.830000e+00
 SP3ar TN3dq  1 3.650000e-01    2.570000e+00
 SP3ar TN2dq  1 3.650000e-01    2.570000e+00
 SP3ar TN1dq  1 3.650000e-01    2.110000e+00
 SP6aq TP3ar  1 3.650000e-01    3.370000e+00
 SP5aq TP3ar  1 3.650000e-01    3.100000e+00
 SP4aq TP3ar  1 3.650000e-01    3.100000e+00
 SP3ar TP3aq  1 3.650000e-01    3.100000e+00
 SP3ar TX1eq  1 3.660000e-01    1.600000e+00
 SP3ar TX2eq  1 3.650000e-01    1.750000e+00
 SP3ar TX3eq  1 3.650000e-01    1.910000e+00
 SP3ar TX4eq  1 3.650000e-01    1.910000e+00
 SP3ar TC1eq  1 4.040000e-01    1.130000e+00
 SP3ar TC2eq  1 3.940000e-01    1.290000e+00
 SP3ar TC3eq  1 3.940000e-01    1.290000e+00
 SP3ar TC4eq  1 3.660000e-01    1.600000e+00
 SP3ar TC5eq  1 3.650000e-01    1.750000e+00
 SP3ar TC6eq  1 3.650000e-01    1.910000e+00
 SP3ar TX1vq  1 3.650000e-01    1.910000e+00
 SP3ar TX2vq  1 3.650000e-01    2.110000e+00
 SP3ar TX3vq  1 3.650000e-01    2.340000e+00
 SP3ar TX4vq  1 3.650000e-01    2.340000e+00
 SP3ar TC1vq  1 3.780000e-01    1.450000e+00
 SP3ar TC2vq  1 3.660000e-01    1.600000e+00
 SP3ar TC3vq  1 3.660000e-01    1.600000e+00
 SP3ar TC4vq  1 3.650000e-01    1.910000e+00
 SP3ar TC5vq  1 3.650000e-01    2.110000e+00
 SP3ar TC6vq  1 3.650000e-01    2.340000e+00
 SP3ar TN1aq  1 3.650000e-01    2.110000e+00
 SP3ar TN2aq  1 3.650000e-01    2.110000e+00
 SP3ar TN3aq  1 3.650000e-01    2.110000e+00
 SP3ar TN4aq  1 3.650000e-01    2.340000e+00
 SP3ar TN5aq  1 3.650000e-01    2.340000e+00
 SP3ar TN6aq  1 3.650000e-01    2.570000e+00
 SP3ar TP1aq  1 3.650000e-01    2.830000e+00
 SP3ar TP2aq  1 3.650000e-01    3.100000e+00
 SP6dq TP2ar  1 3.650000e-01    3.930000e+00
 SP5dq TP2ar  1 3.650000e-01    3.640000e+00
 SP4dq TP2ar  1 3.650000e-01    3.640000e+00
 SP3dq TP2ar  1 3.650000e-01    3.640000e+00
 SP2dq TP2ar  1 3.650000e-01    3.640000e+00
 SP2ar TP1dq  1 3.650000e-01    3.370000e+00
 SP2ar TN6dq  1 3.650000e-01    3.370000e+00
 SP2ar TN5dq  1 3.650000e-01    3.100000e+00
 SP2ar TN4dq  1 3.650000e-01    2.830000e+00
 SP2ar TN3dq  1 3.650000e-01    2.570000e+00
 SP2ar TN2dq  1 3.650000e-01    2.570000e+00
 SP2ar TN1dq  1 3.650000e-01    2.570000e+00
 SP6aq TP2ar  1 3.650000e-01    3.370000e+00
 SP5aq TP2ar  1 3.650000e-01    3.100000e+00
 SP4aq TP2ar  1 3.650000e-01    3.100000e+00
 SP3aq TP2ar  1 3.650000e-01    3.100000e+00
 SP2ar TP2aq  1 3.650000e-01    3.100000e+00
 SP2ar TX1eq  1 3.660000e-01    1.600000e+00
 SP2ar TX2eq  1 3.650000e-01    1.750000e+00
 SP2ar TX3eq  1 3.650000e-01    1.910000e+00
 SP2ar TX4eq  1 3.650000e-01    1.910000e+00
 SP2ar TC1eq  1 3.940000e-01    1.290000e+00
 SP2ar TC2eq  1 3.780000e-01    1.450000e+00
 SP2ar TC3eq  1 3.780000e-01    1.450000e+00
 SP2ar TC4eq  1 3.660000e-01    1.600000e+00
 SP2ar TC5eq  1 3.650000e-01    1.750000e+00
 SP2ar TC6eq  1 3.650000e-01    1.910000e+00
 SP2ar TX1vq  1 3.650000e-01    1.910000e+00
 SP2ar TX2vq  1 3.650000e-01    2.110000e+00
 SP2ar TX3vq  1 3.650000e-01    2.340000e+00
 SP2ar TX4vq  1 3.650000e-01    2.340000e+00
 SP2ar TC1vq  1 3.660000e-01    1.600000e+00
 SP2ar TC2vq  1 3.650000e-01    1.750000e+00
 SP2ar TC3vq  1 3.650000e-01    1.750000e+00
 SP2ar TC4vq  1 3.650000e-01    1.910000e+00
 SP2ar TC5vq  1 3.650000e-01    2.110000e+00
 SP2ar TC6vq  1 3.650000e-01    2.340000e+00
 SP2ar TN1aq  1 3.650000e-01    2.110000e+00
 SP2ar TN2aq  1 3.650000e-01    2.110000e+00
 SP2ar TN3aq  1 3.650000e-01    2.110000e+00
 SP2ar TN4aq  1 3.650000e-01    2.340000e+00
 SP2ar TN5aq  1 3.650000e-01    2.570000e+00
 SP2ar TN6aq  1 3.650000e-01    2.830000e+00
 SP2ar TP1aq  1 3.650000e-01    2.830000e+00
 SP6dq TP1ar  1 3.650000e-01    3.640000e+00
 SP5dq TP1ar  1 3.650000e-01    3.370000e+00
 SP4dq TP1ar  1 3.650000e-01    3.370000e+00
 SP3dq TP1ar  1 3.650000e-01    3.370000e+00
 SP2dq TP1ar  1 3.650000e-01    3.370000e+00
 SP1dq TP1ar  1 3.650000e-01    3.370000e+00
 SP1ar TN6dq  1 3.650000e-01    3.370000e+00
 SP1ar TN5dq  1 3.650000e-01    3.100000e+00
 SP1ar TN4dq  1 3.650000e-01    3.100000e+00
 SP1ar TN3dq  1 3.650000e-01    2.570000e+00
 SP1ar TN2dq  1 3.650000e-01    2.570000e+00
 SP1ar TN1dq  1 3.650000e-01    2.570000e+00
 SP6aq TP1ar  1 3.650000e-01    3.100000e+00
 SP5aq TP1ar  1 3.650000e-01    2.830000e+00
 SP4aq TP1ar  1 3.650000e-01    2.830000e+00
 SP3aq TP1ar  1 3.650000e-01    2.830000e+00
 SP2aq TP1ar  1 3.650000e-01    2.830000e+00
 SP1ar TP1aq  1 3.650000e-01    2.830000e+00
 SP1ar TX1eq  1 3.660000e-01    1.600000e+00
 SP1ar TX2eq  1 3.650000e-01    1.750000e+00
 SP1ar TX3eq  1 3.650000e-01    1.910000e+00
 SP1ar TX4eq  1 3.650000e-01    1.910000e+00
 SP1ar TC1eq  1 3.940000e-01    1.290000e+00
 SP1ar TC2eq  1 3.780000e-01    1.450000e+00
 SP1ar TC3eq  1 3.780000e-01    1.450000e+00
 SP1ar TC4eq  1 3.660000e-01    1.600000e+00
 SP1ar TC5eq  1 3.650000e-01    1.750000e+00
 SP1ar TC6eq  1 3.650000e-01    1.910000e+00
 SP1ar TX1vq  1 3.650000e-01    1.910000e+00
 SP1ar TX2vq  1 3.650000e-01    2.110000e+00
 SP1ar TX3vq  1 3.650000e-01    2.340000e+00
 SP1ar TX4vq  1 3.650000e-01    2.340000e+00
 SP1ar TC1vq  1 3.660000e-01    1.600000e+00
 SP1ar TC2vq  1 3.650000e-01    1.750000e+00
 SP1ar TC3vq  1 3.650000e-01    1.750000e+00
 SP1ar TC4vq  1 3.650000e-01    1.910000e+00
 SP1ar TC5vq  1 3.650000e-01    2.110000e+00
 SP1ar TC6vq  1 3.650000e-01    2.340000e+00
 SP1ar TN1aq  1 3.650000e-01    2.110000e+00
 SP1ar TN2aq  1 3.650000e-01    2.110000e+00
 SP1ar TN3aq  1 3.650000e-01    2.110000e+00
 SP1ar TN4aq  1 3.650000e-01    2.570000e+00
 SP1ar TN5aq  1 3.650000e-01    2.570000e+00
 SP1ar TN6aq  1 3.650000e-01    2.830000e+00
 SP6dq TN6ar  1 3.650000e-01    3.370000e+00
 SP5dq TN6ar  1 3.650000e-01    3.100000e+00
 SP4dq TN6ar  1 3.650000e-01    3.100000e+00
 SP3dq TN6ar  1 3.650000e-01    3.100000e+00
 SP2dq TN6ar  1 3.650000e-01    3.370000e+00
 SP1dq TN6ar  1 3.650000e-01    3.370000e+00
 SN6dq TN6ar  1 3.650000e-01    3.370000e+00
 SN6ar TN5dq  1 3.650000e-01    3.370000e+00
 SN6ar TN4dq  1 3.650000e-01    3.370000e+00
 SN6ar TN3dq  1 3.650000e-01    2.830000e+00
 SN6ar TN2dq  1 3.650000e-01    2.570000e+00
 SN6ar TN1dq  1 3.650000e-01    2.570000e+00
 SP6aq TN6ar  1 3.650000e-01    2.830000e+00
 SP5aq TN6ar  1 3.650000e-01    2.570000e+00
 SP4aq TN6ar  1 3.650000e-01    2.570000e+00
 SP3aq TN6ar  1 3.650000e-01    2.570000e+00
 SP2aq TN6ar  1 3.650000e-01    2.830000e+00
 SP1aq TN6ar  1 3.650000e-01    2.830000e+00
 SN6ar TN6aq  1 3.650000e-01    2.830000e+00
 SN6ar TX1eq  1 3.660000e-01    1.600000e+00
 SN6ar TX2eq  1 3.650000e-01    1.750000e+00
 SN6ar TX3eq  1 3.650000e-01    1.910000e+00
 SN6ar TX4eq  1 3.650000e-01    2.110000e+00
 SN6ar TC1eq  1 3.780000e-01    1.450000e+00
 SN6ar TC2eq  1 3.660000e-01    1.600000e+00
 SN6ar TC3eq  1 3.660000e-01    1.600000e+00
 SN6ar TC4eq  1 3.650000e-01    1.750000e+00
 SN6ar TC5eq  1 3.650000e-01    1.910000e+00
 SN6ar TC6eq  1 3.650000e-01    2.110000e+00
 SN6ar TX1vq  1 3.650000e-01    1.910000e+00
 SN6ar TX2vq  1 3.650000e-01    2.110000e+00
 SN6ar TX3vq  1 3.650000e-01    2.340000e+00
 SN6ar TX4vq  1 3.650000e-01    2.570000e+00
 SN6ar TC1vq  1 3.650000e-01    1.750000e+00
 SN6ar TC2vq  1 3.650000e-01    1.910000e+00
 SN6ar TC3vq  1 3.650000e-01    1.910000e+00
 SN6ar TC4vq  1 3.650000e-01    2.110000e+00
 SN6ar TC5vq  1 3.650000e-01    2.340000e+00
 SN6ar TC6vq  1 3.650000e-01    2.570000e+00
 SN6ar TN1aq  1 3.650000e-01    2.110000e+00
 SN6ar TN2aq  1 3.650000e-01    2.110000e+00
 SN6ar TN3aq  1 3.650000e-01    2.340000e+00
 SN6ar TN4aq  1 3.650000e-01    2.830000e+00
 SN6ar TN5aq  1 3.650000e-01    2.830000e+00
 SP6dq TN5ar  1 3.650000e-01    2.830000e+00
 SP5dq TN5ar  1 3.650000e-01    2.830000e+00
 SP4dq TN5ar  1 3.650000e-01    2.830000e+00
 SP3dq TN5ar  1 3.650000e-01    2.830000e+00
 SP2dq TN5ar  1 3.650000e-01    3.100000e+00
 SP1dq TN5ar  1 3.650000e-01    3.100000e+00
 SN6dq TN5ar  1 3.650000e-01    3.370000e+00
 SN5dq TN5ar  1 3.650000e-01    3.100000e+00
 SN5ar TN4dq  1 3.650000e-01    3.100000e+00
 SN5ar TN3dq  1 3.650000e-01    2.830000e+00
 SN5ar TN2dq  1 3.650000e-01    2.830000e+00
 SN5ar TN1dq  1 3.650000e-01    2.570000e+00
 SP6aq TN5ar  1 3.650000e-01    2.340000e+00
 SP5aq TN5ar  1 3.650000e-01    2.340000e+00
 SP4aq TN5ar  1 3.650000e-01    2.340000e+00
 SP3aq TN5ar  1 3.650000e-01    2.340000e+00
 SP2aq TN5ar  1 3.650000e-01    2.570000e+00
 SP1aq TN5ar  1 3.650000e-01    2.570000e+00
 SN6aq TN5ar  1 3.650000e-01    2.830000e+00
 SN5ar TN5aq  1 3.650000e-01    2.570000e+00
 SN5ar TX1eq  1 3.650000e-01    1.750000e+00
 SN5ar TX2eq  1 3.650000e-01    1.910000e+00
 SN5ar TX3eq  1 3.650000e-01    2.110000e+00
 SN5ar TX4eq  1 3.650000e-01    2.340000e+00
 SN5ar TC1eq  1 3.780000e-01    1.450000e+00
 SN5ar TC2eq  1 3.660000e-01    1.600000e+00
 SN5ar TC3eq  1 3.650000e-01    1.750000e+00
 SN5ar TC4eq  1 3.650000e-01    1.750000e+00
 SN5ar TC5eq  1 3.650000e-01    1.910000e+00
 SN5ar TC6eq  1 3.650000e-01    2.110000e+00
 SN5ar TX1vq  1 3.650000e-01    2.110000e+00
 SN5ar TX2vq  1 3.650000e-01    2.340000e+00
 SN5ar TX3vq  1 3.650000e-01    2.570000e+00
 SN5ar TX4vq  1 3.650000e-01    2.830000e+00
 SN5ar TC1vq  1 3.650000e-01    1.750000e+00
 SN5ar TC2vq  1 3.650000e-01    1.910000e+00
 SN5ar TC3vq  1 3.650000e-01    2.110000e+00
 SN5ar TC4vq  1 3.650000e-01    2.110000e+00
 SN5ar TC5vq  1 3.650000e-01    2.340000e+00
 SN5ar TC6vq  1 3.650000e-01    2.570000e+00
 SN5ar TN1aq  1 3.650000e-01    2.110000e+00
 SN5ar TN2aq  1 3.650000e-01    2.340000e+00
 SN5ar TN3aq  1 3.650000e-01    2.340000e+00
 SN5ar TN4aq  1 3.650000e-01    2.570000e+00
 SP6dq TN4ar  1 3.650000e-01    2.570000e+00
 SP5dq TN4ar  1 3.650000e-01    2.830000e+00
 SP4dq TN4ar  1 3.650000e-01    2.830000e+00
 SP3dq TN4ar  1 3.650000e-01    2.830000e+00
 SP2dq TN4ar  1 3.650000e-01    2.830000e+00
 SP1dq TN4ar  1 3.650000e-01    3.100000e+00
 SN6dq TN4ar  1 3.650000e-01    3.370000e+00
 SN5dq TN4ar  1 3.650000e-01    3.100000e+00
 SN4dq TN4ar  1 3.650000e-01    3.100000e+00
 SN4ar TN3dq  1 3.650000e-01    2.830000e+00
 SN4ar TN2dq  1 3.650000e-01    2.830000e+00
 SN4ar TN1dq  1 3.650000e-01    2.570000e+00
 SP6aq TN4ar  1 3.650000e-01    2.110000e+00
 SP5aq TN4ar  1 3.650000e-01    2.340000e+00
 SP4aq TN4ar  1 3.650000e-01    2.340000e+00
 SP3aq TN4ar  1 3.650000e-01    2.340000e+00
 SP2aq TN4ar  1 3.650000e-01    2.340000e+00
 SP1aq TN4ar  1 3.650000e-01    2.570000e+00
 SN6aq TN4ar  1 3.650000e-01    2.830000e+00
 SN5aq TN4ar  1 3.650000e-01    2.570000e+00
 SN4ar TN4aq  1 3.650000e-01    2.570000e+00
 SN4ar TX1eq  1 3.650000e-01    1.750000e+00
 SN4ar TX2eq  1 3.650000e-01    1.910000e+00
 SN4ar TX3eq  1 3.650000e-01    2.340000e+00
 SN4ar TX4eq  1 3.650000e-01    2.570000e+00
 SN4ar TC1eq  1 3.780000e-01    1.450000e+00
 SN4ar TC2eq  1 3.660000e-01    1.600000e+00
 SN4ar TC3eq  1 3.650000e-01    1.750000e+00
 SN4ar TC4eq  1 3.650000e-01    1.910000e+00
 SN4ar TC5eq  1 3.650000e-01    1.910000e+00
 SN4ar TC6eq  1 3.650000e-01    2.110000e+00
 SN4ar TX1vq  1 3.650000e-01    2.110000e+00
 SN4ar TX2vq  1 3.650000e-01    2.340000e+00
 SN4ar TX3vq  1 3.650000e-01    2.830000e+00
 SN4ar TX4vq  1 3.650000e-01    3.100000e+00
 SN4ar TC1vq  1 3.650000e-01    1.750000e+00
 SN4ar TC2vq  1 3.650000e-01    1.910000e+00
 SN4ar TC3vq  1 3.650000e-01    2.110000e+00
 SN4ar TC4vq  1 3.650000e-01    2.340000e+00
 SN4ar TC5vq  1 3.650000e-01    2.340000e+00
 SN4ar TC6vq  1 3.650000e-01    2.570000e+00
 SN4ar TN1aq  1 3.650000e-01    2.110000e+00
 SN4ar TN2aq  1 3.650000e-01    2.340000e+00
 SN4ar TN3aq  1 3.650000e-01    2.340000e+00
 SP6dq TN3ar  1 3.650000e-01    2.110000e+00
 SP5dq TN3ar  1 3.650000e-01    2.110000e+00
 SP4dq TN3ar  1 3.650000e-01    2.570000e+00
 SP3dq TN3ar  1 3.650000e-01    2.570000e+00
 SP2dq TN3ar  1 3.650000e-01    2.570000e+00
 SP1dq TN3ar  1 3.650000e-01    2.570000e+00
 SN6dq TN3ar  1 3.650000e-01    2.830000e+00
 SN5dq TN3ar  1 3.650000e-01    2.830000e+00
 SN4dq TN3ar  1 3.650000e-01    2.830000e+00
 SN3dq TN3ar  1 3.650000e-01    2.830000e+00
 SN3ar TN2dq  1 3.650000e-01    2.830000e+00
 SN3ar TN1dq  1 3.650000e-01    2.570000e+00
 SP6aq TN3ar  1 3.650000e-01    2.110000e+00
 SP5aq TN3ar  1 3.650000e-01    2.110000e+00
 SP4aq TN3ar  1 3.650000e-01    2.110000e+00
 SP3aq TN3ar  1 3.650000e-01    2.110000e+00
 SP2aq TN3ar  1 3.650000e-01    2.110000e+00
 SP1aq TN3ar  1 3.650000e-01    2.110000e+00
 SN6aq TN3ar  1 3.650000e-01    2.340000e+00
 SN5aq TN3ar  1 3.650000e-01    2.340000e+00
 SN4aq TN3ar  1 3.650000e-01    2.340000e+00
 SN3ar TN3aq  1 3.650000e-01    2.340000e+00
 SN3ar TX1eq  1 3.650000e-01    1.910000e+00
 SN3ar TX2eq  1 3.650000e-01    1.910000e+00
 SN3ar TX3eq  1 3.650000e-01    2.110000e+00
 SN3ar TX4eq  1 3.650000e-01    2.340000e+00
 SN3ar TC1eq  1 3.660000e-01    1.600000e+00
 SN3ar TC2eq  1 3.650000e-01    1.750000e+00
 SN3ar TC3eq  1 3.650000e-01    1.750000e+00
 SN3ar TC4eq  1 3.650000e-01    1.910000e+00
 SN3ar TC5eq  1 3.650000e-01    1.910000e+00
 SN3ar TC6eq  1 3.650000e-01    2.110000e+00
 SN3ar TX1vq  1 3.650000e-01    2.340000e+00
 SN3ar TX2vq  1 3.650000e-01    2.340000e+00
 SN3ar TX3vq  1 3.650000e-01    2.570000e+00
 SN3ar TX4vq  1 3.650000e-01    2.830000e+00
 SN3ar TC1vq  1 3.650000e-01    1.910000e+00
 SN3ar TC2vq  1 3.650000e-01    2.110000e+00
 SN3ar TC3vq  1 3.650000e-01    2.110000e+00
 SN3ar TC4vq  1 3.650000e-01    2.340000e+00
 SN3ar TC5vq  1 3.650000e-01    2.340000e+00
 SN3ar TC6vq  1 3.650000e-01    2.570000e+00
 SN3ar TN1aq  1 3.650000e-01    2.110000e+00
 SN3ar TN2aq  1 3.650000e-01    2.340000e+00
 SP6dq TN2ar  1 3.650000e-01    1.910000e+00
 SP5dq TN2ar  1 3.650000e-01    1.910000e+00
 SP4dq TN2ar  1 3.650000e-01    2.110000e+00
 SP3dq TN2ar  1 3.650000e-01    2.570000e+00
 SP2dq TN2ar  1 3.650000e-01    2.570000e+00
 SP1dq TN2ar  1 3.650000e-01    2.570000e+00
 SN6dq TN2ar  1 3.650000e-01    2.570000e+00
 SN5dq TN2ar  1 3.650000e-01    2.830000e+00
 SN4dq TN2ar  1 3.650000e-01    2.830000e+00
 SN3dq TN2ar  1 3.650000e-01    2.830000e+00
 SN2dq TN2ar  1 3.650000e-01    2.830000e+00
 SN2ar TN1dq  1 3.650000e-01    2.570000e+00
 SP6aq TN2ar  1 3.650000e-01    1.910000e+00
 SP5aq TN2ar  1 3.650000e-01    1.910000e+00
 SP4aq TN2ar  1 3.650000e-01    2.110000e+00
 SP3aq TN2ar  1 3.650000e-01    2.110000e+00
 SP2aq TN2ar  1 3.650000e-01    2.110000e+00
 SP1aq TN2ar  1 3.650000e-01    2.110000e+00
 SN6aq TN2ar  1 3.650000e-01    2.110000e+00
 SN5aq TN2ar  1 3.650000e-01    2.340000e+00
 SN4aq TN2ar  1 3.650000e-01    2.340000e+00
 SN3aq TN2ar  1 3.650000e-01    2.340000e+00
 SN2ar TN2aq  1 3.650000e-01    2.340000e+00
 SN2ar TX1eq  1 3.650000e-01    1.910000e+00
 SN2ar TX2eq  1 3.650000e-01    1.910000e+00
 SN2ar TX3eq  1 3.650000e-01    2.110000e+00
 SN2ar TX4eq  1 3.650000e-01    2.340000e+00
 SN2ar TC1eq  1 3.660000e-01    1.600000e+00
 SN2ar TC2eq  1 3.650000e-01    1.750000e+00
 SN2ar TC3eq  1 3.650000e-01    1.910000e+00
 SN2ar TC4eq  1 3.650000e-01    1.910000e+00
 SN2ar TC5eq  1 3.650000e-01    1.910000e+00
 SN2ar TC6eq  1 3.650000e-01    2.110000e+00
 SN2ar TX1vq  1 3.650000e-01    2.340000e+00
 SN2ar TX2vq  1 3.650000e-01    2.340000e+00
 SN2ar TX3vq  1 3.650000e-01    2.570000e+00
 SN2ar TX4vq  1 3.650000e-01    2.830000e+00
 SN2ar TC1vq  1 3.650000e-01    1.910000e+00
 SN2ar TC2vq  1 3.650000e-01    2.110000e+00
 SN2ar TC3vq  1 3.650000e-01    2.340000e+00
 SN2ar TC4vq  1 3.650000e-01    2.340000e+00
 SN2ar TC5vq  1 3.650000e-01    2.340000e+00
 SN2ar TC6vq  1 3.650000e-01    2.570000e+00
 SN2ar TN1aq  1 3.650000e-01    2.110000e+00
 SP6dq TN1ar  1 3.650000e-01    1.750000e+00
 SP5dq TN1ar  1 3.650000e-01    1.750000e+00
 SP4dq TN1ar  1 3.650000e-01    1.910000e+00
 SP3dq TN1ar  1 3.650000e-01    2.110000e+00
 SP2dq TN1ar  1 3.650000e-01    2.570000e+00
 SP1dq TN1ar  1 3.650000e-01    2.570000e+00
 SN6dq TN1ar  1 3.650000e-01    2.570000e+00
 SN5dq TN1ar  1 3.650000e-01    2.570000e+00
 SN4dq TN1ar  1 3.650000e-01    2.570000e+00
 SN3dq TN1ar  1 3.650000e-01    2.570000e+00
 SN2dq TN1ar  1 3.650000e-01    2.570000e+00
 SN1dq TN1ar  1 3.650000e-01    2.830000e+00
 SP6aq TN1ar  1 3.650000e-01    1.750000e+00
 SP5aq TN1ar  1 3.650000e-01    1.750000e+00
 SP4aq TN1ar  1 3.650000e-01    1.910000e+00
 SP3aq TN1ar  1 3.650000e-01    2.110000e+00
 SP2aq TN1ar  1 3.650000e-01    2.110000e+00
 SP1aq TN1ar  1 3.650000e-01    2.110000e+00
 SN6aq TN1ar  1 3.650000e-01    2.110000e+00
 SN5aq TN1ar  1 3.650000e-01    2.110000e+00
 SN4aq TN1ar  1 3.650000e-01    2.110000e+00
 SN3aq TN1ar  1 3.650000e-01    2.110000e+00
 SN2aq TN1ar  1 3.650000e-01    2.110000e+00
 SN1ar TN1aq  1 3.650000e-01    2.340000e+00
 SN1ar TX1eq  1 3.650000e-01    1.910000e+00
 SN1ar TX2eq  1 3.650000e-01    1.910000e+00
 SN1ar TX3eq  1 3.650000e-01    2.110000e+00
 SN1ar TX4eq  1 3.650000e-01    2.110000e+00
 SN1ar TC1eq  1 3.660000e-01    1.600000e+00
 SN1ar TC2eq  1 3.650000e-01    1.750000e+00
 SN1ar TC3eq  1 3.650000e-01    1.910000e+00
 SN1ar TC4eq  1 3.650000e-01    2.110000e+00
 SN1ar TC5eq  1 3.650000e-01    2.110000e+00
 SN1ar TC6eq  1 3.650000e-01    2.340000e+00
 SN1ar TX1vq  1 3.650000e-01    2.340000e+00
 SN1ar TX2vq  1 3.650000e-01    2.340000e+00
 SN1ar TX3vq  1 3.650000e-01    2.570000e+00
 SN1ar TX4vq  1 3.650000e-01    2.570000e+00
 SN1ar TC1vq  1 3.650000e-01    1.910000e+00
 SN1ar TC2vq  1 3.650000e-01    2.110000e+00
 SN1ar TC3vq  1 3.650000e-01    2.340000e+00
 SN1ar TC4vq  1 3.650000e-01    2.570000e+00
 SN1ar TC5vq  1 3.650000e-01    2.570000e+00
 SN1ar TC6vq  1 3.650000e-01    2.830000e+00
 SP6dq TC6vr  1 3.660000e-01    1.600000e+00
 SP5dq TC6vr  1 3.660000e-01    1.600000e+00
 SP4dq TC6vr  1 3.650000e-01    1.750000e+00
 SP3dq TC6vr  1 3.650000e-01    1.910000e+00
 SP2dq TC6vr  1 3.650000e-01    1.910000e+00
 SP1dq TC6vr  1 3.650000e-01    1.910000e+00
 SN6dq TC6vr  1 3.650000e-01    2.110000e+00
 SN5dq TC6vr  1 3.650000e-01    2.110000e+00
 SN4dq TC6vr  1 3.650000e-01    2.110000e+00
 SN3dq TC6vr  1 3.650000e-01    2.110000e+00
 SN2dq TC6vr  1 3.650000e-01    2.110000e+00
 SN1dq TC6vr  1 3.650000e-01    2.340000e+00
 SP6aq TC6vr  1 3.650000e-01    1.910000e+00
 SP5aq TC6vr  1 3.650000e-01    1.910000e+00
 SP4aq TC6vr  1 3.650000e-01    2.110000e+00
 SP3aq TC6vr  1 3.650000e-01    2.340000e+00
 SP2aq TC6vr  1 3.650000e-01    2.340000e+00
 SP1aq TC6vr  1 3.650000e-01    2.340000e+00
 SN6aq TC6vr  1 3.650000e-01    2.570000e+00
 SN5aq TC6vr  1 3.650000e-01    2.570000e+00
 SN4aq TC6vr  1 3.650000e-01    2.570000e+00
 SN3aq TC6vr  1 3.650000e-01    2.570000e+00
 SN2aq TC6vr  1 3.650000e-01    2.570000e+00
 SN1aq TC6vr  1 3.650000e-01    2.830000e+00
 SC6vr TC6vq  1 3.650000e-01    2.340000e+00
 SC6vr TX1eq  1 3.650000e-01    2.830000e+00
 SC6vr TX2eq  1 3.650000e-01    2.830000e+00
 SC6vr TX3eq  1 3.650000e-01    2.830000e+00
 SC6vr TX4eq  1 3.650000e-01    2.830000e+00
 SC6vr TC1eq  1 3.650000e-01    2.110000e+00
 SC6vr TC2eq  1 3.650000e-01    2.340000e+00
 SC6vr TC3eq  1 3.650000e-01    2.570000e+00
 SC6vr TC4eq  1 3.650000e-01    2.830000e+00
 SC6vr TC5eq  1 3.650000e-01    2.830000e+00
 SC6vr TC6eq  1 3.650000e-01    3.100000e+00
 SC6vr TX1vq  1 3.650000e-01    2.110000e+00
 SC6vr TX2vq  1 3.650000e-01    2.110000e+00
 SC6vr TX3vq  1 3.650000e-01    2.110000e+00
 SC6vr TX4vq  1 3.650000e-01    2.110000e+00
 SC6vr TC1vq  1 3.660000e-01    1.600000e+00
 SC6vr TC2vq  1 3.650000e-01    1.750000e+00
 SC6vr TC3vq  1 3.650000e-01    1.910000e+00
 SC6vr TC4vq  1 3.650000e-01    2.110000e+00
 SC6vr TC5vq  1 3.650000e-01    2.110000e+00
 SP6dq TC5vr  1 3.780000e-01    1.450000e+00
 SP5dq TC5vr  1 3.660000e-01    1.600000e+00
 SP4dq TC5vr  1 3.660000e-01    1.600000e+00
 SP3dq TC5vr  1 3.650000e-01    1.750000e+00
 SP2dq TC5vr  1 3.650000e-01    1.750000e+00
 SP1dq TC5vr  1 3.650000e-01    1.750000e+00
 SN6dq TC5vr  1 3.650000e-01    1.910000e+00
 SN5dq TC5vr  1 3.650000e-01    1.910000e+00
 SN4dq TC5vr  1 3.650000e-01    1.910000e+00
 SN3dq TC5vr  1 3.650000e-01    1.910000e+00
 SN2dq TC5vr  1 3.650000e-01    1.910000e+00
 SN1dq TC5vr  1 3.650000e-01    2.110000e+00
 SP6aq TC5vr  1 3.650000e-01    1.750000e+00
 SP5aq TC5vr  1 3.650000e-01    1.910000e+00
 SP4aq TC5vr  1 3.650000e-01    1.910000e+00
 SP3aq TC5vr  1 3.650000e-01    2.110000e+00
 SP2aq TC5vr  1 3.650000e-01    2.110000e+00
 SP1aq TC5vr  1 3.650000e-01    2.110000e+00
 SN6aq TC5vr  1 3.650000e-01    2.340000e+00
 SN5aq TC5vr  1 3.650000e-01    2.340000e+00
 SN4aq TC5vr  1 3.650000e-01    2.340000e+00
 SN3aq TC5vr  1 3.650000e-01    2.340000e+00
 SN2aq TC5vr  1 3.650000e-01    2.340000e+00
 SN1aq TC5vr  1 3.650000e-01    2.570000e+00
 SC6vq TC5vr  1 3.650000e-01    2.110000e+00
 SC5vr TC5vq  1 3.650000e-01    2.110000e+00
 SC5vr TX1eq  1 3.650000e-01    2.830000e+00
 SC5vr TX2eq  1 3.650000e-01    2.570000e+00
 SC5vr TX3eq  1 3.650000e-01    2.570000e+00
 SC5vr TX4eq  1 3.650000e-01    2.570000e+00
 SC5vr TC1eq  1 3.650000e-01    2.340000e+00
 SC5vr TC2eq  1 3.650000e-01    2.340000e+00
 SC5vr TC3eq  1 3.650000e-01    2.570000e+00
 SC5vr TC4eq  1 3.650000e-01    2.830000e+00
 SC5vr TC5eq  1 3.650000e-01    2.830000e+00
 SC6eq TC5vr  1 3.650000e-01    2.830000e+00
 SC5vr TX1vq  1 3.650000e-01    2.110000e+00
 SC5vr TX2vq  1 3.650000e-01    1.910000e+00
 SC5vr TX3vq  1 3.650000e-01    1.910000e+00
 SC5vr TX4vq  1 3.650000e-01    1.910000e+00
 SC5vr TC1vq  1 3.650000e-01    1.750000e+00
 SC5vr TC2vq  1 3.650000e-01    1.750000e+00
 SC5vr TC3vq  1 3.650000e-01    1.910000e+00
 SC5vr TC4vq  1 3.650000e-01    2.110000e+00
 SP6dq TC4vr  1 3.940000e-01    1.290000e+00
 SP5dq TC4vr  1 3.780000e-01    1.450000e+00
 SP4dq TC4vr  1 3.780000e-01    1.450000e+00
 SP3dq TC4vr  1 3.660000e-01    1.600000e+00
 SP2dq TC4vr  1 3.660000e-01    1.600000e+00
 SP1dq TC4vr  1 3.660000e-01    1.600000e+00
 SN6dq TC4vr  1 3.650000e-01    1.750000e+00
 SN5dq TC4vr  1 3.650000e-01    1.750000e+00
 SN4dq TC4vr  1 3.650000e-01    1.910000e+00
 SN3dq TC4vr  1 3.650000e-01    1.910000e+00
 SN2dq TC4vr  1 3.650000e-01    1.910000e+00
 SN1dq TC4vr  1 3.650000e-01    2.110000e+00
 SP6aq TC4vr  1 3.660000e-01    1.600000e+00
 SP5aq TC4vr  1 3.650000e-01    1.750000e+00
 SP4aq TC4vr  1 3.650000e-01    1.750000e+00
 SP3aq TC4vr  1 3.650000e-01    1.910000e+00
 SP2aq TC4vr  1 3.650000e-01    1.910000e+00
 SP1aq TC4vr  1 3.650000e-01    1.910000e+00
 SN6aq TC4vr  1 3.650000e-01    2.110000e+00
 SN5aq TC4vr  1 3.650000e-01    2.110000e+00
 SN4aq TC4vr  1 3.650000e-01    2.340000e+00
 SN3aq TC4vr  1 3.650000e-01    2.340000e+00
 SN2aq TC4vr  1 3.650000e-01    2.340000e+00
 SN1aq TC4vr  1 3.650000e-01    2.570000e+00
 SC6vq TC4vr  1 3.650000e-01    2.110000e+00
 SC5vq TC4vr  1 3.650000e-01    2.110000e+00
 SC4vr TC4vq  1 3.650000e-01    2.110000e+00
 SC4vr TX1eq  1 3.650000e-01    2.830000e+00
 SC4vr TX2eq  1 3.650000e-01    2.570000e+00
 SC4vr TX3eq  1 3.650000e-01    2.570000e+00
 SC4vr TX4eq  1 3.650000e-01    2.570000e+00
 SC4vr TC1eq  1 3.650000e-01    2.340000e+00
 SC4vr TC2eq  1 3.650000e-01    2.570000e+00
 SC4vr TC3eq  1 3.650000e-01    2.830000e+00
 SC4vr TC4eq  1 3.650000e-01    2.830000e+00
 SC5eq TC4vr  1 3.650000e-01    2.830000e+00
 SC6eq TC4vr  1 3.650000e-01    2.830000e+00
 SC4vr TX1vq  1 3.650000e-01    2.110000e+00
 SC4vr TX2vq  1 3.650000e-01    1.910000e+00
 SC4vr TX3vq  1 3.650000e-01    1.910000e+00
 SC4vr TX4vq  1 3.650000e-01    1.910000e+00
 SC4vr TC1vq  1 3.650000e-01    1.750000e+00
 SC4vr TC2vq  1 3.650000e-01    1.910000e+00
 SC4vr TC3vq  1 3.650000e-01    2.110000e+00
 SP6dq TC3vr  1 4.040000e-01    1.130000e+00
 SP5dq TC3vr  1 3.940000e-01    1.290000e+00
 SP4dq TC3vr  1 3.940000e-01    1.290000e+00
 SP3dq TC3vr  1 3.940000e-01    1.290000e+00
 SP2dq TC3vr  1 3.780000e-01    1.450000e+00
 SP1dq TC3vr  1 3.780000e-01    1.450000e+00
 SN6dq TC3vr  1 3.660000e-01    1.600000e+00
 SN5dq TC3vr  1 3.650000e-01    1.750000e+00
 SN4dq TC3vr  1 3.650000e-01    1.750000e+00
 SN3dq TC3vr  1 3.650000e-01    1.750000e+00
 SN2dq TC3vr  1 3.650000e-01    1.910000e+00
 SN1dq TC3vr  1 3.650000e-01    1.910000e+00
 SP6aq TC3vr  1 3.780000e-01    1.450000e+00
 SP5aq TC3vr  1 3.660000e-01    1.600000e+00
 SP4aq TC3vr  1 3.660000e-01    1.600000e+00
 SP3aq TC3vr  1 3.660000e-01    1.600000e+00
 SP2aq TC3vr  1 3.650000e-01    1.750000e+00
 SP1aq TC3vr  1 3.650000e-01    1.750000e+00
 SN6aq TC3vr  1 3.650000e-01    1.910000e+00
 SN5aq TC3vr  1 3.650000e-01    2.110000e+00
 SN4aq TC3vr  1 3.650000e-01    2.110000e+00
 SN3aq TC3vr  1 3.650000e-01    2.110000e+00
 SN2aq TC3vr  1 3.650000e-01    2.340000e+00
 SN1aq TC3vr  1 3.650000e-01    2.340000e+00
 SC6vq TC3vr  1 3.650000e-01    1.910000e+00
 SC5vq TC3vr  1 3.650000e-01    1.910000e+00
 SC4vq TC3vr  1 3.650000e-01    2.110000e+00
 SC3vr TC3vq  1 3.650000e-01    2.110000e+00
 SC3vr TX1eq  1 3.650000e-01    2.830000e+00
 SC3vr TX2eq  1 3.650000e-01    2.570000e+00
 SC3vr TX3eq  1 3.650000e-01    2.570000e+00
 SC3vr TX4eq  1 3.650000e-01    2.570000e+00
 SC3vr TC1eq  1 3.650000e-01    2.830000e+00
 SC3vr TC2eq  1 3.650000e-01    2.830000e+00
 SC3vr TC3eq  1 3.650000e-01    2.830000e+00
 SC4eq TC3vr  1 3.650000e-01    2.830000e+00
 SC5eq TC3vr  1 3.650000e-01    2.570000e+00
 SC6eq TC3vr  1 3.650000e-01    2.570000e+00
 SC3vr TX1vq  1 3.650000e-01    2.110000e+00
 SC3vr TX2vq  1 3.650000e-01    1.910000e+00
 SC3vr TX3vq  1 3.650000e-01    1.910000e+00
 SC3vr TX4vq  1 3.650000e-01    1.910000e+00
 SC3vr TC1vq  1 3.650000e-01    2.110000e+00
 SC3vr TC2vq  1 3.650000e-01    2.110000e+00
 SP6dq TC2vr  1 4.040000e-01    1.130000e+00
 SP5dq TC2vr  1 3.940000e-01    1.290000e+00
 SP4dq TC2vr  1 3.940000e-01    1.290000e+00
 SP3dq TC2vr  1 3.940000e-01    1.290000e+00
 SP2dq TC2vr  1 3.780000e-01    1.450000e+00
 SP1dq TC2vr  1 3.780000e-01    1.450000e+00
 SN6dq TC2vr  1 3.660000e-01    1.600000e+00
 SN5dq TC2vr  1 3.660000e-01    1.600000e+00
 SN4dq TC2vr  1 3.660000e-01    1.600000e+00
 SN3dq TC2vr  1 3.650000e-01    1.750000e+00
 SN2dq TC2vr  1 3.650000e-01    1.750000e+00
 SN1dq TC2vr  1 3.650000e-01    1.750000e+00
 SP6aq TC2vr  1 3.780000e-01    1.450000e+00
 SP5aq TC2vr  1 3.660000e-01    1.600000e+00
 SP4aq TC2vr  1 3.660000e-01    1.600000e+00
 SP3aq TC2vr  1 3.660000e-01    1.600000e+00
 SP2aq TC2vr  1 3.650000e-01    1.750000e+00
 SP1aq TC2vr  1 3.650000e-01    1.750000e+00
 SN6aq TC2vr  1 3.650000e-01    1.910000e+00
 SN5aq TC2vr  1 3.650000e-01    1.910000e+00
 SN4aq TC2vr  1 3.650000e-01    1.910000e+00
 SN3aq TC2vr  1 3.650000e-01    2.110000e+00
 SN2aq TC2vr  1 3.650000e-01    2.110000e+00
 SN1aq TC2vr  1 3.650000e-01    2.110000e+00
 SC6vq TC2vr  1 3.650000e-01    1.750000e+00
 SC5vq TC2vr  1 3.650000e-01    1.750000e+00
 SC4vq TC2vr  1 3.650000e-01    1.910000e+00
 SC3vq TC2vr  1 3.650000e-01    2.110000e+00
 SC2vr TC2vq  1 3.650000e-01    2.110000e+00
 SC2vr TX1eq  1 3.650000e-01    2.570000e+00
 SC2vr TX2eq  1 3.650000e-01    2.570000e+00
 SC2vr TX3eq  1 3.650000e-01    2.570000e+00
 SC2vr TX4eq  1 3.650000e-01    2.110000e+00
 SC2vr TC1eq  1 3.650000e-01    3.100000e+00
 SC2vr TC2eq  1 3.650000e-01    2.830000e+00
 SC3eq TC2vr  1 3.650000e-01    2.830000e+00
 SC4eq TC2vr  1 3.650000e-01    2.570000e+00
 SC5eq TC2vr  1 3.650000e-01    2.340000e+00
 SC6eq TC2vr  1 3.650000e-01    2.340000e+00
 SC2vr TX1vq  1 3.650000e-01    1.910000e+00
 SC2vr TX2vq  1 3.650000e-01    1.910000e+00
 SC2vr TX3vq  1 3.650000e-01    1.910000e+00
 SC2vr TX4vq  1 3.660000e-01    1.600000e+00
 SC2vr TC1vq  1 3.650000e-01    2.340000e+00
 SP6dq TC1vr  1 4.230000e-01    9.810000e-01
 SP5dq TC1vr  1 4.040000e-01    1.130000e+00
 SP4dq TC1vr  1 4.040000e-01    1.130000e+00
 SP3dq TC1vr  1 4.040000e-01    1.130000e+00
 SP2dq TC1vr  1 3.940000e-01    1.290000e+00
 SP1dq TC1vr  1 3.940000e-01    1.290000e+00
 SN6dq TC1vr  1 3.780000e-01    1.450000e+00
 SN5dq TC1vr  1 3.780000e-01    1.450000e+00
 SN4dq TC1vr  1 3.780000e-01    1.450000e+00
 SN3dq TC1vr  1 3.660000e-01    1.600000e+00
 SN2dq TC1vr  1 3.660000e-01    1.600000e+00
 SN1dq TC1vr  1 3.660000e-01    1.600000e+00
 SP6aq TC1vr  1 4.040000e-01    1.130000e+00
 SP5aq TC1vr  1 3.780000e-01    1.450000e+00
 SP4aq TC1vr  1 3.780000e-01    1.450000e+00
 SP3aq TC1vr  1 3.780000e-01    1.450000e+00
 SP2aq TC1vr  1 3.660000e-01    1.600000e+00
 SP1aq TC1vr  1 3.660000e-01    1.600000e+00
 SN6aq TC1vr  1 3.650000e-01    1.750000e+00
 SN5aq TC1vr  1 3.650000e-01    1.750000e+00
 SN4aq TC1vr  1 3.650000e-01    1.750000e+00
 SN3aq TC1vr  1 3.650000e-01    1.910000e+00
 SN2aq TC1vr  1 3.650000e-01    1.910000e+00
 SN1aq TC1vr  1 3.650000e-01    1.910000e+00
 SC6vq TC1vr  1 3.660000e-01    1.600000e+00
 SC5vq TC1vr  1 3.650000e-01    1.750000e+00
 SC4vq TC1vr  1 3.650000e-01    1.750000e+00
 SC3vq TC1vr  1 3.650000e-01    2.110000e+00
 SC2vq TC1vr  1 3.650000e-01    2.340000e+00
 SC1vr TC1vq  1 3.650000e-01    2.110000e+00
 SC1vr TX1eq  1 3.650000e-01    2.570000e+00
 SC1vr TX2eq  1 3.650000e-01    2.570000e+00
 SC1vr TX3eq  1 3.650000e-01    2.570000e+00
 SC1vr TX4eq  1 3.650000e-01    2.110000e+00
 SC1vr TC1eq  1 3.650000e-01    2.830000e+00
 SC2eq TC1vr  1 3.650000e-01    3.100000e+00
 SC3eq TC1vr  1 3.650000e-01    2.830000e+00
 SC4eq TC1vr  1 3.650000e-01    2.340000e+00
 SC5eq TC1vr  1 3.650000e-01    2.340000e+00
 SC6eq TC1vr  1 3.650000e-01    2.110000e+00
 SC1vr TX1vq  1 3.650000e-01    1.910000e+00
 SC1vr TX2vq  1 3.650000e-01    1.910000e+00
 SC1vr TX3vq  1 3.650000e-01    1.910000e+00
 SC1vr TX4vq  1 3.660000e-01    1.600000e+00
 SP6dq TX4vr  1 3.650000e-01    1.750000e+00
 SP5dq TX4vr  1 3.650000e-01    1.910000e+00
 SP4dq TX4vr  1 3.650000e-01    1.910000e+00
 SP3dq TX4vr  1 3.650000e-01    1.910000e+00
 SP2dq TX4vr  1 3.650000e-01    1.910000e+00
 SP1dq TX4vr  1 3.650000e-01    1.910000e+00
 SN6dq TX4vr  1 3.650000e-01    2.110000e+00
 SN5dq TX4vr  1 3.650000e-01    2.340000e+00
 SN4dq TX4vr  1 3.650000e-01    2.570000e+00
 SN3dq TX4vr  1 3.650000e-01    2.340000e+00
 SN2dq TX4vr  1 3.650000e-01    2.340000e+00
 SN1dq TX4vr  1 3.650000e-01    2.110000e+00
 SP6aq TX4vr  1 3.650000e-01    2.110000e+00
 SP5aq TX4vr  1 3.650000e-01    2.340000e+00
 SP4aq TX4vr  1 3.650000e-01    2.340000e+00
 SP3aq TX4vr  1 3.650000e-01    2.340000e+00
 SP2aq TX4vr  1 3.650000e-01    2.340000e+00
 SP1aq TX4vr  1 3.650000e-01    2.340000e+00
 SN6aq TX4vr  1 3.650000e-01    2.570000e+00
 SN5aq TX4vr  1 3.650000e-01    2.830000e+00
 SN4aq TX4vr  1 3.650000e-01    3.100000e+00
 SN3aq TX4vr  1 3.650000e-01    2.830000e+00
 SN2aq TX4vr  1 3.650000e-01    2.830000e+00
 SN1aq TX4vr  1 3.650000e-01    2.570000e+00
 SC6vq TX4vr  1 3.650000e-01    2.110000e+00
 SC5vq TX4vr  1 3.650000e-01    1.910000e+00
 SC4vq TX4vr  1 3.650000e-01    1.910000e+00
 SC3vq TX4vr  1 3.650000e-01    1.910000e+00
 SC2vq TX4vr  1 3.660000e-01    1.600000e+00
 SC1vq TX4vr  1 3.660000e-01    1.600000e+00
 SX4vr TX4vq  1 3.650000e-01    2.110000e+00
 SX4vr TX1eq  1 3.650000e-01    2.830000e+00
 SX4vr TX2eq  1 3.650000e-01    2.830000e+00
 SX4vr TX3eq  1 3.650000e-01    2.830000e+00
 SX4vr TX4eq  1 3.650000e-01    2.830000e+00
 SC1eq TX4vr  1 3.650000e-01    2.110000e+00
 SC2eq TX4vr  1 3.650000e-01    2.110000e+00
 SC3eq TX4vr  1 3.650000e-01    2.570000e+00
 SC4eq TX4vr  1 3.650000e-01    2.570000e+00
 SC5eq TX4vr  1 3.650000e-01    2.570000e+00
 SC6eq TX4vr  1 3.650000e-01    2.830000e+00
 SX4vr TX1vq  1 3.650000e-01    2.110000e+00
 SX4vr TX2vq  1 3.650000e-01    2.110000e+00
 SX4vr TX3vq  1 3.650000e-01    2.110000e+00
 SP6dq TX3vr  1 3.650000e-01    1.750000e+00
 SP5dq TX3vr  1 3.650000e-01    1.750000e+00
 SP4dq TX3vr  1 3.650000e-01    1.750000e+00
 SP3dq TX3vr  1 3.650000e-01    1.910000e+00
 SP2dq TX3vr  1 3.650000e-01    1.910000e+00
 SP1dq TX3vr  1 3.650000e-01    1.910000e+00
 SN6dq TX3vr  1 3.650000e-01    1.910000e+00
 SN5dq TX3vr  1 3.650000e-01    2.110000e+00
 SN4dq TX3vr  1 3.650000e-01    2.340000e+00
 SN3dq TX3vr  1 3.650000e-01    2.110000e+00
 SN2dq TX3vr  1 3.650000e-01    2.110000e+00
 SN1dq TX3vr  1 3.650000e-01    2.110000e+00
 SP6aq TX3vr  1 3.650000e-01    2.110000e+00
 SP5aq TX3vr  1 3.650000e-01    2.110000e+00
 SP4aq TX3vr  1 3.650000e-01    2.110000e+00
 SP3aq TX3vr  1 3.650000e-01    2.340000e+00
 SP2aq TX3vr  1 3.650000e-01    2.340000e+00
 SP1aq TX3vr  1 3.650000e-01    2.340000e+00
 SN6aq TX3vr  1 3.650000e-01    2.340000e+00
 SN5aq TX3vr  1 3.650000e-01    2.570000e+00
 SN4aq TX3vr  1 3.650000e-01    2.830000e+00
 SN3aq TX3vr  1 3.650000e-01    2.570000e+00
 SN2aq TX3vr  1 3.650000e-01    2.570000e+00
 SN1aq TX3vr  1 3.650000e-01    2.570000e+00
 SC6vq TX3vr  1 3.650000e-01    2.110000e+00
 SC5vq TX3vr  1 3.650000e-01    1.910000e+00
 SC4vq TX3vr  1 3.650000e-01    1.910000e+00
 SC3vq TX3vr  1 3.650000e-01    1.910000e+00
 SC2vq TX3vr  1 3.650000e-01    1.910000e+00
 SC1vq TX3vr  1 3.650000e-01    1.910000e+00
 SX4vq TX3vr  1 3.650000e-01    2.110000e+00
 SX3vr TX3vq  1 3.650000e-01    2.110000e+00
 SX3vr TX1eq  1 3.650000e-01    3.100000e+00
 SX3vr TX2eq  1 3.650000e-01    3.100000e+00
 SX3vr TX3eq  1 3.650000e-01    2.830000e+00
 SX4eq TX3vr  1 3.650000e-01    2.830000e+00
 SC1eq TX3vr  1 3.650000e-01    2.570000e+00
 SC2eq TX3vr  1 3.650000e-01    2.570000e+00
 SC3eq TX3vr  1 3.650000e-01    2.570000e+00
 SC4eq TX3vr  1 3.650000e-01    2.570000e+00
 SC5eq TX3vr  1 3.650000e-01    2.570000e+00
 SC6eq TX3vr  1 3.650000e-01    2.830000e+00
 SX3vr TX1vq  1 3.650000e-01    2.340000e+00
 SX3vr TX2vq  1 3.650000e-01    2.340000e+00
 SP6dq TX2vr  1 3.660000e-01    1.600000e+00
 SP5dq TX2vr  1 3.650000e-01    1.750000e+00
 SP4dq TX2vr  1 3.650000e-01    1.750000e+00
 SP3dq TX2vr  1 3.650000e-01    1.750000e+00
 SP2dq TX2vr  1 3.650000e-01    1.750000e+00
 SP1dq TX2vr  1 3.650000e-01    1.750000e+00
 SN6dq TX2vr  1 3.650000e-01    1.750000e+00
 SN5dq TX2vr  1 3.650000e-01    1.910000e+00
 SN4dq TX2vr  1 3.650000e-01    1.910000e+00
 SN3dq TX2vr  1 3.650000e-01    1.910000e+00
 SN2dq TX2vr  1 3.650000e-01    1.910000e+00
 SN1dq TX2vr  1 3.650000e-01    1.910000e+00
 SP6aq TX2vr  1 3.650000e-01    1.910000e+00
 SP5aq TX2vr  1 3.650000e-01    2.110000e+00
 SP4aq TX2vr  1 3.650000e-01    2.110000e+00
 SP3aq TX2vr  1 3.650000e-01    2.110000e+00
 SP2aq TX2vr  1 3.650000e-01    2.110000e+00
 SP1aq TX2vr  1 3.650000e-01    2.110000e+00
 SN6aq TX2vr  1 3.650000e-01    2.110000e+00
 SN5aq TX2vr  1 3.650000e-01    2.340000e+00
 SN4aq TX2vr  1 3.650000e-01    2.340000e+00
 SN3aq TX2vr  1 3.650000e-01    2.340000e+00
 SN2aq TX2vr  1 3.650000e-01    2.340000e+00
 SN1aq TX2vr  1 3.650000e-01    2.340000e+00
 SC6vq TX2vr  1 3.650000e-01    2.110000e+00
 SC5vq TX2vr  1 3.650000e-01    1.910000e+00
 SC4vq TX2vr  1 3.650000e-01    1.910000e+00
 SC3vq TX2vr  1 3.650000e-01    1.910000e+00
 SC2vq TX2vr  1 3.650000e-01    1.910000e+00
 SC1vq TX2vr  1 3.650000e-01    1.910000e+00
 SX4vq TX2vr  1 3.650000e-01    2.110000e+00
 SX3vq TX2vr  1 3.650000e-01    2.340000e+00
 SX2vr TX2vq  1 3.650000e-01    2.340000e+00
 SX2vr TX1eq  1 3.650000e-01    3.100000e+00
 SX2vr TX2eq  1 3.650000e-01    3.100000e+00
 SX3eq TX2vr  1 3.650000e-01    3.100000e+00
 SX4eq TX2vr  1 3.650000e-01    2.830000e+00
 SC1eq TX2vr  1 3.650000e-01    2.570000e+00
 SC2eq TX2vr  1 3.650000e-01    2.570000e+00
 SC3eq TX2vr  1 3.650000e-01    2.570000e+00
 SC4eq TX2vr  1 3.650000e-01    2.570000e+00
 SC5eq TX2vr  1 3.650000e-01    2.570000e+00
 SC6eq TX2vr  1 3.650000e-01    2.830000e+00
 SX2vr TX1vq  1 3.650000e-01    2.340000e+00
 SP6dq TX1vr  1 3.780000e-01    1.450000e+00
 SP5dq TX1vr  1 3.780000e-01    1.450000e+00
 SP4dq TX1vr  1 3.660000e-01    1.600000e+00
 SP3dq TX1vr  1 3.660000e-01    1.600000e+00
 SP2dq TX1vr  1 3.660000e-01    1.600000e+00
 SP1dq TX1vr  1 3.660000e-01    1.600000e+00
 SN6dq TX1vr  1 3.660000e-01    1.600000e+00
 SN5dq TX1vr  1 3.650000e-01    1.750000e+00
 SN4dq TX1vr  1 3.650000e-01    1.750000e+00
 SN3dq TX1vr  1 3.650000e-01    1.910000e+00
 SN2dq TX1vr  1 3.650000e-01    1.910000e+00
 SN1dq TX1vr  1 3.650000e-01    1.910000e+00
 SP6aq TX1vr  1 3.650000e-01    1.750000e+00
 SP5aq TX1vr  1 3.650000e-01    1.750000e+00
 SP4aq TX1vr  1 3.650000e-01    1.910000e+00
 SP3aq TX1vr  1 3.650000e-01    1.910000e+00
 SP2aq TX1vr  1 3.650000e-01    1.910000e+00
 SP1aq TX1vr  1 3.650000e-01    1.910000e+00
 SN6aq TX1vr  1 3.650000e-01    1.910000e+00
 SN5aq TX1vr  1 3.650000e-01    2.110000e+00
 SN4aq TX1vr  1 3.650000e-01    2.110000e+00
 SN3aq TX1vr  1 3.650000e-01    2.340000e+00
 SN2aq TX1vr  1 3.650000e-01    2.340000e+00
 SN1aq TX1vr  1 3.650000e-01    2.340000e+00
 SC6vq TX1vr  1 3.650000e-01    2.110000e+00
 SC5vq TX1vr  1 3.650000e-01    2.110000e+00
 SC4vq TX1vr  1 3.650000e-01    2.110000e+00
 SC3vq TX1vr  1 3.650000e-01    2.110000e+00
 SC2vq TX1vr  1 3.650000e-01    1.910000e+00
 SC1vq TX1vr  1 3.650000e-01    1.910000e+00
 SX4vq TX1vr  1 3.650000e-01    2.110000e+00
 SX3vq TX1vr  1 3.650000e-01    2.340000e+00
 SX2vq TX1vr  1 3.650000e-01    2.340000e+00
 SX1vr TX1vq  1 3.650000e-01    2.570000e+00
 SX1vr TX1eq  1 3.650000e-01    3.370000e+00
 SX2eq TX1vr  1 3.650000e-01    3.100000e+00
 SX3eq TX1vr  1 3.650000e-01    3.100000e+00
 SX4eq TX1vr  1 3.650000e-01    2.830000e+00
 SC1eq TX1vr  1 3.650000e-01    2.570000e+00
 SC2eq TX1vr  1 3.650000e-01    2.570000e+00
 SC3eq TX1vr  1 3.650000e-01    2.830000e+00
 SC4eq TX1vr  1 3.650000e-01    2.830000e+00
 SC5eq TX1vr  1 3.650000e-01    2.830000e+00
 SC6eq TX1vr  1 3.650000e-01    2.830000e+00
 SP6dq TC6er  1 3.650000e-01    1.910000e+00
 SP5dq TC6er  1 3.650000e-01    1.910000e+00
 SP4dq TC6er  1 3.650000e-01    2.110000e+00
 SP3dq TC6er  1 3.650000e-01    2.340000e+00
 SP2dq TC6er  1 3.650000e-01    2.340000e+00
 SP1dq TC6er  1 3.650000e-01    2.340000e+00
 SN6dq TC6er  1 3.650000e-01    2.570000e+00
 SN5dq TC6er  1 3.650000e-01    2.570000e+00
 SN4dq TC6er  1 3.650000e-01    2.570000e+00
 SN3dq TC6er  1 3.650000e-01    2.570000e+00
 SN2dq TC6er  1 3.650000e-01    2.570000e+00
 SN1dq TC6er  1 3.650000e-01    2.830000e+00
 SP6aq TC6er  1 3.660000e-01    1.600000e+00
 SP5aq TC6er  1 3.660000e-01    1.600000e+00
 SP4aq TC6er  1 3.650000e-01    1.750000e+00
 SP3aq TC6er  1 3.650000e-01    1.910000e+00
 SP2aq TC6er  1 3.650000e-01    1.910000e+00
 SP1aq TC6er  1 3.650000e-01    1.910000e+00
 SN6aq TC6er  1 3.650000e-01    2.110000e+00
 SN5aq TC6er  1 3.650000e-01    2.110000e+00
 SN4aq TC6er  1 3.650000e-01    2.110000e+00
 SN3aq TC6er  1 3.650000e-01    2.110000e+00
 SN2aq TC6er  1 3.650000e-01    2.110000e+00
 SN1aq TC6er  1 3.650000e-01    2.340000e+00
 SC6vq TC6er  1 3.650000e-01    3.100000e+00
 SC6er TC5vq  1 3.650000e-01    2.830000e+00
 SC6er TC4vq  1 3.650000e-01    2.830000e+00
 SC6er TC3vq  1 3.650000e-01    2.570000e+00
 SC6er TC2vq  1 3.650000e-01    2.340000e+00
 SC6er TC1vq  1 3.650000e-01    2.110000e+00
 SC6er TX4vq  1 3.650000e-01    2.830000e+00
 SC6er TX3vq  1 3.650000e-01    2.830000e+00
 SC6er TX2vq  1 3.650000e-01    2.830000e+00
 SC6er TX1vq  1 3.650000e-01    2.830000e+00
 SC6er TC6eq  1 3.650000e-01    2.340000e+00
 SC6er TX1eq  1 3.650000e-01    2.110000e+00
 SC6er TX2eq  1 3.650000e-01    2.110000e+00
 SC6er TX3eq  1 3.650000e-01    2.110000e+00
 SC6er TX4eq  1 3.650000e-01    2.110000e+00
 SC6er TC1eq  1 3.660000e-01    1.600000e+00
 SC6er TC2eq  1 3.650000e-01    1.750000e+00
 SC6er TC3eq  1 3.650000e-01    1.910000e+00
 SC6er TC4eq  1 3.650000e-01    2.110000e+00
 SC6er TC5eq  1 3.650000e-01    2.110000e+00
 SP6dq TC5er  1 3.650000e-01    1.750000e+00
 SP5dq TC5er  1 3.650000e-01    1.910000e+00
 SP4dq TC5er  1 3.650000e-01    1.910000e+00
 SP3dq TC5er  1 3.650000e-01    2.110000e+00
 SP2dq TC5er  1 3.650000e-01    2.110000e+00
 SP1dq TC5er  1 3.650000e-01    2.110000e+00
 SN6dq TC5er  1 3.650000e-01    2.340000e+00
 SN5dq TC5er  1 3.650000e-01    2.340000e+00
 SN4dq TC5er  1 3.650000e-01    2.340000e+00
 SN3dq TC5er  1 3.650000e-01    2.340000e+00
 SN2dq TC5er  1 3.650000e-01    2.340000e+00
 SN1dq TC5er  1 3.650000e-01    2.570000e+00
 SP6aq TC5er  1 3.780000e-01    1.450000e+00
 SP5aq TC5er  1 3.660000e-01    1.600000e+00
 SP4aq TC5er  1 3.660000e-01    1.600000e+00
 SP3aq TC5er  1 3.650000e-01    1.750000e+00
 SP2aq TC5er  1 3.650000e-01    1.750000e+00
 SP1aq TC5er  1 3.650000e-01    1.750000e+00
 SN6aq TC5er  1 3.650000e-01    1.910000e+00
 SN5aq TC5er  1 3.650000e-01    1.910000e+00
 SN4aq TC5er  1 3.650000e-01    1.910000e+00
 SN3aq TC5er  1 3.650000e-01    1.910000e+00
 SN2aq TC5er  1 3.650000e-01    1.910000e+00
 SN1aq TC5er  1 3.650000e-01    2.110000e+00
 SC6vq TC5er  1 3.650000e-01    2.830000e+00
 SC5vq TC5er  1 3.650000e-01    2.830000e+00
 SC5er TC4vq  1 3.650000e-01    2.830000e+00
 SC5er TC3vq  1 3.650000e-01    2.570000e+00
 SC5er TC2vq  1 3.650000e-01    2.340000e+00
 SC5er TC1vq  1 3.650000e-01    2.340000e+00
 SC5er TX4vq  1 3.650000e-01    2.570000e+00
 SC5er TX3vq  1 3.650000e-01    2.570000e+00
 SC5er TX2vq  1 3.650000e-01    2.570000e+00
 SC5er TX1vq  1 3.650000e-01    2.830000e+00
 SC6eq TC5er  1 3.650000e-01    2.110000e+00
 SC5er TC5eq  1 3.650000e-01    2.110000e+00
 SC5er TX1eq  1 3.650000e-01    2.110000e+00
 SC5er TX2eq  1 3.650000e-01    1.910000e+00
 SC5er TX3eq  1 3.650000e-01    1.910000e+00
 SC5er TX4eq  1 3.650000e-01    1.910000e+00
 SC5er TC1eq  1 3.650000e-01    1.750000e+00
 SC5er TC2eq  1 3.650000e-01    1.750000e+00
 SC5er TC3eq  1 3.650000e-01    1.910000e+00
 SC5er TC4eq  1 3.650000e-01    2.110000e+00
 SP6dq TC4er  1 3.660000e-01    1.600000e+00
 SP5dq TC4er  1 3.650000e-01    1.750000e+00
 SP4dq TC4er  1 3.650000e-01    1.750000e+00
 SP3dq TC4er  1 3.650000e-01    1.910000e+00
 SP2dq TC4er  1 3.650000e-01    1.910000e+00
 SP1dq TC4er  1 3.650000e-01    1.910000e+00
 SN6dq TC4er  1 3.650000e-01    2.110000e+00
 SN5dq TC4er  1 3.650000e-01    2.110000e+00
 SN4dq TC4er  1 3.650000e-01    2.340000e+00
 SN3dq TC4er  1 3.650000e-01    2.340000e+00
 SN2dq TC4er  1 3.650000e-01    2.340000e+00
 SN1dq TC4er  1 3.650000e-01    2.570000e+00
 SP6aq TC4er  1 3.940000e-01    1.290000e+00
 SP5aq TC4er  1 3.780000e-01    1.450000e+00
 SP4aq TC4er  1 3.780000e-01    1.450000e+00
 SP3aq TC4er  1 3.660000e-01    1.600000e+00
 SP2aq TC4er  1 3.660000e-01    1.600000e+00
 SP1aq TC4er  1 3.660000e-01    1.600000e+00
 SN6aq TC4er  1 3.650000e-01    1.750000e+00
 SN5aq TC4er  1 3.650000e-01    1.750000e+00
 SN4aq TC4er  1 3.650000e-01    1.910000e+00
 SN3aq TC4er  1 3.650000e-01    1.910000e+00
 SN2aq TC4er  1 3.650000e-01    1.910000e+00
 SN1aq TC4er  1 3.650000e-01    2.110000e+00
 SC6vq TC4er  1 3.650000e-01    2.830000e+00
 SC5vq TC4er  1 3.650000e-01    2.830000e+00
 SC4vq TC4er  1 3.650000e-01    2.830000e+00
 SC4er TC3vq  1 3.650000e-01    2.830000e+00
 SC4er TC2vq  1 3.650000e-01    2.570000e+00
 SC4er TC1vq  1 3.650000e-01    2.340000e+00
 SC4er TX4vq  1 3.650000e-01    2.570000e+00
 SC4er TX3vq  1 3.650000e-01    2.570000e+00
 SC4er TX2vq  1 3.650000e-01    2.570000e+00
 SC4er TX1vq  1 3.650000e-01    2.830000e+00
 SC6eq TC4er  1 3.650000e-01    2.110000e+00
 SC5eq TC4er  1 3.650000e-01    2.110000e+00
 SC4er TC4eq  1 3.650000e-01    2.110000e+00
 SC4er TX1eq  1 3.650000e-01    2.110000e+00
 SC4er TX2eq  1 3.650000e-01    1.910000e+00
 SC4er TX3eq  1 3.650000e-01    1.910000e+00
 SC4er TX4eq  1 3.650000e-01    1.910000e+00
 SC4er TC1eq  1 3.650000e-01    1.750000e+00
 SC4er TC2eq  1 3.650000e-01    1.910000e+00
 SC4er TC3eq  1 3.650000e-01    2.110000e+00
 SP6dq TC3er  1 3.780000e-01    1.450000e+00
 SP5dq TC3er  1 3.660000e-01    1.600000e+00
 SP4dq TC3er  1 3.660000e-01    1.600000e+00
 SP3dq TC3er  1 3.660000e-01    1.600000e+00
 SP2dq TC3er  1 3.650000e-01    1.750000e+00
 SP1dq TC3er  1 3.650000e-01    1.750000e+00
 SN6dq TC3er  1 3.650000e-01    1.910000e+00
 SN5dq TC3er  1 3.650000e-01    2.110000e+00
 SN4dq TC3er  1 3.650000e-01    2.110000e+00
 SN3dq TC3er  1 3.650000e-01    2.110000e+00
 SN2dq TC3er  1 3.650000e-01    2.340000e+00
 SN1dq TC3er  1 3.650000e-01    2.340000e+00
 SP6aq TC3er  1 4.040000e-01    1.130000e+00
 SP5aq TC3er  1 3.940000e-01    1.290000e+00
 SP4aq TC3er  1 3.940000e-01    1.290000e+00
 SP3aq TC3er  1 3.940000e-01    1.290000e+00
 SP2aq TC3er  1 3.780000e-01    1.450000e+00
 SP1aq TC3er  1 3.780000e-01    1.450000e+00
 SN6aq TC3er  1 3.660000e-01    1.600000e+00
 SN5aq TC3er  1 3.650000e-01    1.750000e+00
 SN4aq TC3er  1 3.650000e-01    1.750000e+00
 SN3aq TC3er  1 3.650000e-01    1.750000e+00
 SN2aq TC3er  1 3.650000e-01    1.910000e+00
 SN1aq TC3er  1 3.650000e-01    1.910000e+00
 SC6vq TC3er  1 3.650000e-01    2.570000e+00
 SC5vq TC3er  1 3.650000e-01    2.570000e+00
 SC4vq TC3er  1 3.650000e-01    2.830000e+00
 SC3vq TC3er  1 3.650000e-01    2.830000e+00
 SC3er TC2vq  1 3.650000e-01    2.830000e+00
 SC3er TC1vq  1 3.650000e-01    2.830000e+00
 SC3er TX4vq  1 3.650000e-01    2.570000e+00
 SC3er TX3vq  1 3.650000e-01    2.570000e+00
 SC3er TX2vq  1 3.650000e-01    2.570000e+00
 SC3er TX1vq  1 3.650000e-01    2.830000e+00
 SC6eq TC3er  1 3.650000e-01    1.910000e+00
 SC5eq TC3er  1 3.650000e-01    1.910000e+00
 SC4eq TC3er  1 3.650000e-01    2.110000e+00
 SC3er TC3eq  1 3.650000e-01    2.110000e+00
 SC3er TX1eq  1 3.650000e-01    2.110000e+00
 SC3er TX2eq  1 3.650000e-01    1.910000e+00
 SC3er TX3eq  1 3.650000e-01    1.910000e+00
 SC3er TX4eq  1 3.650000e-01    1.910000e+00
 SC3er TC1eq  1 3.650000e-01    2.110000e+00
 SC3er TC2eq  1 3.650000e-01    2.110000e+00
 SP6dq TC2er  1 3.780000e-01    1.450000e+00
 SP5dq TC2er  1 3.660000e-01    1.600000e+00
 SP4dq TC2er  1 3.660000e-01    1.600000e+00
 SP3dq TC2er  1 3.660000e-01    1.600000e+00
 SP2dq TC2er  1 3.650000e-01    1.750000e+00
 SP1dq TC2er  1 3.650000e-01    1.750000e+00
 SN6dq TC2er  1 3.650000e-01    1.910000e+00
 SN5dq TC2er  1 3.650000e-01    1.910000e+00
 SN4dq TC2er  1 3.650000e-01    1.910000e+00
 SN3dq TC2er  1 3.650000e-01    2.110000e+00
 SN2dq TC2er  1 3.650000e-01    2.110000e+00
 SN1dq TC2er  1 3.650000e-01    2.110000e+00
 SP6aq TC2er  1 4.040000e-01    1.130000e+00
 SP5aq TC2er  1 3.940000e-01    1.290000e+00
 SP4aq TC2er  1 3.940000e-01    1.290000e+00
 SP3aq TC2er  1 3.940000e-01    1.290000e+00
 SP2aq TC2er  1 3.780000e-01    1.450000e+00
 SP1aq TC2er  1 3.780000e-01    1.450000e+00
 SN6aq TC2er  1 3.660000e-01    1.600000e+00
 SN5aq TC2er  1 3.660000e-01    1.600000e+00
 SN4aq TC2er  1 3.660000e-01    1.600000e+00
 SN3aq TC2er  1 3.650000e-01    1.750000e+00
 SN2aq TC2er  1 3.650000e-01    1.750000e+00
 SN1aq TC2er  1 3.650000e-01    1.750000e+00
 SC6vq TC2er  1 3.650000e-01    2.340000e+00
 SC5vq TC2er  1 3.650000e-01    2.340000e+00
 SC4vq TC2er  1 3.650000e-01    2.570000e+00
 SC3vq TC2er  1 3.650000e-01    2.830000e+00
 SC2vq TC2er  1 3.650000e-01    2.830000e+00
 SC2er TC1vq  1 3.650000e-01    3.100000e+00
 SC2er TX4vq  1 3.650000e-01    2.110000e+00
 SC2er TX3vq  1 3.650000e-01    2.570000e+00
 SC2er TX2vq  1 3.650000e-01    2.570000e+00
 SC2er TX1vq  1 3.650000e-01    2.570000e+00
 SC6eq TC2er  1 3.650000e-01    1.750000e+00
 SC5eq TC2er  1 3.650000e-01    1.750000e+00
 SC4eq TC2er  1 3.650000e-01    1.910000e+00
 SC3eq TC2er  1 3.650000e-01    2.110000e+00
 SC2er TC2eq  1 3.650000e-01    2.110000e+00
 SC2er TX1eq  1 3.650000e-01    1.910000e+00
 SC2er TX2eq  1 3.650000e-01    1.910000e+00
 SC2er TX3eq  1 3.650000e-01    1.910000e+00
 SC2er TX4eq  1 3.660000e-01    1.600000e+00
 SC2er TC1eq  1 3.650000e-01    2.340000e+00
 SP6dq TC1er  1 4.040000e-01    1.130000e+00
 SP5dq TC1er  1 3.780000e-01    1.450000e+00
 SP4dq TC1er  1 3.780000e-01    1.450000e+00
 SP3dq TC1er  1 3.780000e-01    1.450000e+00
 SP2dq TC1er  1 3.660000e-01    1.600000e+00
 SP1dq TC1er  1 3.660000e-01    1.600000e+00
 SN6dq TC1er  1 3.650000e-01    1.750000e+00
 SN5dq TC1er  1 3.650000e-01    1.750000e+00
 SN4dq TC1er  1 3.650000e-01    1.750000e+00
 SN3dq TC1er  1 3.650000e-01    1.910000e+00
 SN2dq TC1er  1 3.650000e-01    1.910000e+00
 SN1dq TC1er  1 3.650000e-01    1.910000e+00
 SP6aq TC1er  1 4.230000e-01    9.810000e-01
 SP5aq TC1er  1 4.040000e-01    1.130000e+00
 SP4aq TC1er  1 4.040000e-01    1.130000e+00
 SP3aq TC1er  1 4.040000e-01    1.130000e+00
 SP2aq TC1er  1 3.940000e-01    1.290000e+00
 SP1aq TC1er  1 3.940000e-01    1.290000e+00
 SN6aq TC1er  1 3.780000e-01    1.450000e+00
 SN5aq TC1er  1 3.780000e-01    1.450000e+00
 SN4aq TC1er  1 3.780000e-01    1.450000e+00
 SN3aq TC1er  1 3.660000e-01    1.600000e+00
 SN2aq TC1er  1 3.660000e-01    1.600000e+00
 SN1aq TC1er  1 3.660000e-01    1.600000e+00
 SC6vq TC1er  1 3.650000e-01    2.110000e+00
 SC5vq TC1er  1 3.650000e-01    2.340000e+00
 SC4vq TC1er  1 3.650000e-01    2.340000e+00
 SC3vq TC1er  1 3.650000e-01    2.830000e+00
 SC2vq TC1er  1 3.650000e-01    3.100000e+00
 SC1vq TC1er  1 3.650000e-01    2.830000e+00
 SC1er TX4vq  1 3.650000e-01    2.110000e+00
 SC1er TX3vq  1 3.650000e-01    2.570000e+00
 SC1er TX2vq  1 3.650000e-01    2.570000e+00
 SC1er TX1vq  1 3.650000e-01    2.570000e+00
 SC6eq TC1er  1 3.660000e-01    1.600000e+00
 SC5eq TC1er  1 3.650000e-01    1.750000e+00
 SC4eq TC1er  1 3.650000e-01    1.750000e+00
 SC3eq TC1er  1 3.650000e-01    2.110000e+00
 SC2eq TC1er  1 3.650000e-01    2.340000e+00
 SC1er TC1eq  1 3.650000e-01    2.110000e+00
 SC1er TX1eq  1 3.650000e-01    1.910000e+00
 SC1er TX2eq  1 3.650000e-01    1.910000e+00
 SC1er TX3eq  1 3.650000e-01    1.910000e+00
 SC1er TX4eq  1 3.660000e-01    1.600000e+00
 SP6dq TX4er  1 3.650000e-01    2.110000e+00
 SP5dq TX4er  1 3.650000e-01    2.340000e+00
 SP4dq TX4er  1 3.650000e-01    2.340000e+00
 SP3dq TX4er  1 3.650000e-01    2.340000e+00
 SP2dq TX4er  1 3.650000e-01    2.340000e+00
 SP1dq TX4er  1 3.650000e-01    2.340000e+00
 SN6dq TX4er  1 3.650000e-01    2.570000e+00
 SN5dq TX4er  1 3.650000e-01    2.830000e+00
 SN4dq TX4er  1 3.650000e-01    3.100000e+00
 SN3dq TX4er  1 3.650000e-01    2.830000e+00
 SN2dq TX4er  1 3.650000e-01    2.830000e+00
 SN1dq TX4er  1 3.650000e-01    2.570000e+00
 SP6aq TX4er  1 3.650000e-01    1.750000e+00
 SP5aq TX4er  1 3.650000e-01    1.910000e+00
 SP4aq TX4er  1 3.650000e-01    1.910000e+00
 SP3aq TX4er  1 3.650000e-01    1.910000e+00
 SP2aq TX4er  1 3.650000e-01    1.910000e+00
 SP1aq TX4er  1 3.650000e-01    1.910000e+00
 SN6aq TX4er  1 3.650000e-01    2.110000e+00
 SN5aq TX4er  1 3.650000e-01    2.340000e+00
 SN4aq TX4er  1 3.650000e-01    2.570000e+00
 SN3aq TX4er  1 3.650000e-01    2.340000e+00
 SN2aq TX4er  1 3.650000e-01    2.340000e+00
 SN1aq TX4er  1 3.650000e-01    2.110000e+00
 SC6vq TX4er  1 3.650000e-01    2.830000e+00
 SC5vq TX4er  1 3.650000e-01    2.570000e+00
 SC4vq TX4er  1 3.650000e-01    2.570000e+00
 SC3vq TX4er  1 3.650000e-01    2.570000e+00
 SC2vq TX4er  1 3.650000e-01    2.110000e+00
 SC1vq TX4er  1 3.650000e-01    2.110000e+00
 SX4vq TX4er  1 3.650000e-01    2.830000e+00
 SX4er TX3vq  1 3.650000e-01    2.830000e+00
 SX4er TX2vq  1 3.650000e-01    2.830000e+00
 SX4er TX1vq  1 3.650000e-01    2.830000e+00
 SC6eq TX4er  1 3.650000e-01    2.110000e+00
 SC5eq TX4er  1 3.650000e-01    1.910000e+00
 SC4eq TX4er  1 3.650000e-01    1.910000e+00
 SC3eq TX4er  1 3.650000e-01    1.910000e+00
 SC2eq TX4er  1 3.660000e-01    1.600000e+00
 SC1eq TX4er  1 3.660000e-01    1.600000e+00
 SX4er TX4eq  1 3.650000e-01    2.110000e+00
 SX4er TX1eq  1 3.650000e-01    2.110000e+00
 SX4er TX2eq  1 3.650000e-01    2.110000e+00
 SX4er TX3eq  1 3.650000e-01    2.110000e+00
 SP6dq TX3er  1 3.650000e-01    2.110000e+00
 SP5dq TX3er  1 3.650000e-01    2.110000e+00
 SP4dq TX3er  1 3.650000e-01    2.110000e+00
 SP3dq TX3er  1 3.650000e-01    2.340000e+00
 SP2dq TX3er  1 3.650000e-01    2.340000e+00
 SP1dq TX3er  1 3.650000e-01    2.340000e+00
 SN6dq TX3er  1 3.650000e-01    2.340000e+00
 SN5dq TX3er  1 3.650000e-01    2.570000e+00
 SN4dq TX3er  1 3.650000e-01    2.830000e+00
 SN3dq TX3er  1 3.650000e-01    2.570000e+00
 SN2dq TX3er  1 3.650000e-01    2.570000e+00
 SN1dq TX3er  1 3.650000e-01    2.570000e+00
 SP6aq TX3er  1 3.650000e-01    1.750000e+00
 SP5aq TX3er  1 3.650000e-01    1.750000e+00
 SP4aq TX3er  1 3.650000e-01    1.750000e+00
 SP3aq TX3er  1 3.650000e-01    1.910000e+00
 SP2aq TX3er  1 3.650000e-01    1.910000e+00
 SP1aq TX3er  1 3.650000e-01    1.910000e+00
 SN6aq TX3er  1 3.650000e-01    1.910000e+00
 SN5aq TX3er  1 3.650000e-01    2.110000e+00
 SN4aq TX3er  1 3.650000e-01    2.340000e+00
 SN3aq TX3er  1 3.650000e-01    2.110000e+00
 SN2aq TX3er  1 3.650000e-01    2.110000e+00
 SN1aq TX3er  1 3.650000e-01    2.110000e+00
 SC6vq TX3er  1 3.650000e-01    2.830000e+00
 SC5vq TX3er  1 3.650000e-01    2.570000e+00
 SC4vq TX3er  1 3.650000e-01    2.570000e+00
 SC3vq TX3er  1 3.650000e-01    2.570000e+00
 SC2vq TX3er  1 3.650000e-01    2.570000e+00
 SC1vq TX3er  1 3.650000e-01    2.570000e+00
 SX4vq TX3er  1 3.650000e-01    2.830000e+00
 SX3vq TX3er  1 3.650000e-01    2.830000e+00
 SX3er TX2vq  1 3.650000e-01    3.100000e+00
 SX3er TX1vq  1 3.650000e-01    3.100000e+00
 SC6eq TX3er  1 3.650000e-01    2.110000e+00
 SC5eq TX3er  1 3.650000e-01    1.910000e+00
 SC4eq TX3er  1 3.650000e-01    1.910000e+00
 SC3eq TX3er  1 3.650000e-01    1.910000e+00
 SC2eq TX3er  1 3.650000e-01    1.910000e+00
 SC1eq TX3er  1 3.650000e-01    1.910000e+00
 SX4eq TX3er  1 3.650000e-01    2.110000e+00
 SX3er TX3eq  1 3.650000e-01    2.110000e+00
 SX3er TX1eq  1 3.650000e-01    2.340000e+00
 SX3er TX2eq  1 3.650000e-01    2.340000e+00
 SP6dq TX2er  1 3.650000e-01    1.910000e+00
 SP5dq TX2er  1 3.650000e-01    2.110000e+00
 SP4dq TX2er  1 3.650000e-01    2.110000e+00
 SP3dq TX2er  1 3.650000e-01    2.110000e+00
 SP2dq TX2er  1 3.650000e-01    2.110000e+00
 SP1dq TX2er  1 3.650000e-01    2.110000e+00
 SN6dq TX2er  1 3.650000e-01    2.110000e+00
 SN5dq TX2er  1 3.650000e-01    2.340000e+00
 SN4dq TX2er  1 3.650000e-01    2.340000e+00
 SN3dq TX2er  1 3.650000e-01    2.340000e+00
 SN2dq TX2er  1 3.650000e-01    2.340000e+00
 SN1dq TX2er  1 3.650000e-01    2.340000e+00
 SP6aq TX2er  1 3.660000e-01    1.600000e+00
 SP5aq TX2er  1 3.650000e-01    1.750000e+00
 SP4aq TX2er  1 3.650000e-01    1.750000e+00
 SP3aq TX2er  1 3.650000e-01    1.750000e+00
 SP2aq TX2er  1 3.650000e-01    1.750000e+00
 SP1aq TX2er  1 3.650000e-01    1.750000e+00
 SN6aq TX2er  1 3.650000e-01    1.750000e+00
 SN5aq TX2er  1 3.650000e-01    1.910000e+00
 SN4aq TX2er  1 3.650000e-01    1.910000e+00
 SN3aq TX2er  1 3.650000e-01    1.910000e+00
 SN2aq TX2er  1 3.650000e-01    1.910000e+00
 SN1aq TX2er  1 3.650000e-01    1.910000e+00
 SC6vq TX2er  1 3.650000e-01    2.830000e+00
 SC5vq TX2er  1 3.650000e-01    2.570000e+00
 SC4vq TX2er  1 3.650000e-01    2.570000e+00
 SC3vq TX2er  1 3.650000e-01    2.570000e+00
 SC2vq TX2er  1 3.650000e-01    2.570000e+00
 SC1vq TX2er  1 3.650000e-01    2.570000e+00
 SX4vq TX2er  1 3.650000e-01    2.830000e+00
 SX3vq TX2er  1 3.650000e-01    3.100000e+00
 SX2vq TX2er  1 3.650000e-01    3.100000e+00
 SX2er TX1vq  1 3.650000e-01    3.100000e+00
 SC6eq TX2er  1 3.650000e-01    2.110000e+00
 SC5eq TX2er  1 3.650000e-01    1.910000e+00
 SC4eq TX2er  1 3.650000e-01    1.910000e+00
 SC3eq TX2er  1 3.650000e-01    1.910000e+00
 SC2eq TX2er  1 3.650000e-01    1.910000e+00
 SC1eq TX2er  1 3.650000e-01    1.910000e+00
 SX4eq TX2er  1 3.650000e-01    2.110000e+00
 SX3eq TX2er  1 3.650000e-01    2.340000e+00
 SX2er TX2eq  1 3.650000e-01    2.340000e+00
 SX2er TX1eq  1 3.650000e-01    2.340000e+00
 SP6dq TX1er  1 3.650000e-01    1.750000e+00
 SP5dq TX1er  1 3.650000e-01    1.750000e+00
 SP4dq TX1er  1 3.650000e-01    1.910000e+00
 SP3dq TX1er  1 3.650000e-01    1.910000e+00
 SP2dq TX1er  1 3.650000e-01    1.910000e+00
 SP1dq TX1er  1 3.650000e-01    1.910000e+00
 SN6dq TX1er  1 3.650000e-01    1.910000e+00
 SN5dq TX1er  1 3.650000e-01    2.110000e+00
 SN4dq TX1er  1 3.650000e-01    2.110000e+00
 SN3dq TX1er  1 3.650000e-01    2.340000e+00
 SN2dq TX1er  1 3.650000e-01    2.340000e+00
 SN1dq TX1er  1 3.650000e-01    2.340000e+00
 SP6aq TX1er  1 3.780000e-01    1.450000e+00
 SP5aq TX1er  1 3.780000e-01    1.450000e+00
 SP4aq TX1er  1 3.660000e-01    1.600000e+00
 SP3aq TX1er  1 3.660000e-01    1.600000e+00
 SP2aq TX1er  1 3.660000e-01    1.600000e+00
 SP1aq TX1er  1 3.660000e-01    1.600000e+00
 SN6aq TX1er  1 3.660000e-01    1.600000e+00
 SN5aq TX1er  1 3.650000e-01    1.750000e+00
 SN4aq TX1er  1 3.650000e-01    1.750000e+00
 SN3aq TX1er  1 3.650000e-01    1.910000e+00
 SN2aq TX1er  1 3.650000e-01    1.910000e+00
 SN1aq TX1er  1 3.650000e-01    1.910000e+00
 SC6vq TX1er  1 3.650000e-01    2.830000e+00
 SC5vq TX1er  1 3.650000e-01    2.830000e+00
 SC4vq TX1er  1 3.650000e-01    2.830000e+00
 SC3vq TX1er  1 3.650000e-01    2.830000e+00
 SC2vq TX1er  1 3.650000e-01    2.570000e+00
 SC1vq TX1er  1 3.650000e-01    2.570000e+00
 SX4vq TX1er  1 3.650000e-01    2.830000e+00
 SX3vq TX1er  1 3.650000e-01    3.100000e+00
 SX2vq TX1er  1 3.650000e-01    3.100000e+00
 SX1vq TX1er  1 3.650000e-01    3.370000e+00
 SC6eq TX1er  1 3.650000e-01    2.110000e+00
 SC5eq TX1er  1 3.650000e-01    2.110000e+00
 SC4eq TX1er  1 3.650000e-01    2.110000e+00
 SC3eq TX1er  1 3.650000e-01    2.110000e+00
 SC2eq TX1er  1 3.650000e-01    1.910000e+00
 SC1eq TX1er  1 3.650000e-01    1.910000e+00
 SX4eq TX1er  1 3.650000e-01    2.110000e+00
 SX3eq TX1er  1 3.650000e-01    2.340000e+00
 SX2eq TX1er  1 3.650000e-01    2.340000e+00
 SX1er TX1eq  1 3.650000e-01    2.570000e+00
  SP6r  TP6r  1 3.650000e-01    3.640000e+00
  SP5r  TP5r  1 3.650000e-01    3.100000e+00
  SP4r  TP4r  1 3.650000e-01    2.830000e+00
  SP3r  TP3r  1 3.650000e-01    2.570000e+00
  SP2r  TP2r  1 3.650000e-01    2.570000e+00
  SP1r  TP1r  1 3.650000e-01    2.340000e+00
  SN6r  TN6r  1 3.650000e-01    2.340000e+00
  SN5r  TN5r  1 3.650000e-01    2.110000e+00
  SN4r  TN4r  1 3.650000e-01    2.110000e+00
  SN3r  TN3r  1 3.650000e-01    1.910000e+00
  SN2r  TN2r  1 3.650000e-01    1.910000e+00
  SN1r  TN1r  1 3.650000e-01    1.910000e+00
 SP6dr TP6dr  1 3.650000e-01    3.370000e+00
 SP5dr TP5dr  1 3.650000e-01    2.830000e+00
 SP4dr TP4dr  1 3.650000e-01    2.570000e+00
 SP3dr TP3dr  1 3.650000e-01    2.340000e+00
 SP2dr TP2dr  1 3.650000e-01    2.340000e+00
 SP1dr TP1dr  1 3.650000e-01    2.110000e+00
 SN6dr TN6dr  1 3.650000e-01    2.110000e+00
 SN5dr TN5dr  1 3.650000e-01    1.910000e+00
 SN4dr TN4dr  1 3.650000e-01    1.910000e+00
 SN3dr TN3dr  1 3.650000e-01    1.750000e+00
 SN2dr TN2dr  1 3.650000e-01    1.750000e+00
 SN1dr TN1dr  1 3.650000e-01    1.750000e+00
 SP6ar TP6ar  1 3.650000e-01    3.370000e+00
 SP5ar TP5ar  1 3.650000e-01    2.830000e+00
 SP4ar TP4ar  1 3.650000e-01    2.570000e+00
 SP3ar TP3ar  1 3.650000e-01    2.340000e+00
 SP2ar TP2ar  1 3.650000e-01    2.340000e+00
 SP1ar TP1ar  1 3.650000e-01    2.110000e+00
 SN6ar TN6ar  1 3.650000e-01    2.110000e+00
 SN5ar TN5ar  1 3.650000e-01    1.910000e+00
 SN4ar TN4ar  1 3.650000e-01    1.910000e+00
 SN3ar TN3ar  1 3.650000e-01    1.750000e+00
 SN2ar TN2ar  1 3.650000e-01    1.750000e+00
 SN1ar TN1ar  1 3.650000e-01    1.750000e+00
  SP6r  TP5r  1 3.650000e-01    3.370000e+00
  SP6r  TP4r  1 3.650000e-01    3.100000e+00
  SP6r  TP3r  1 3.650000e-01    2.830000e+00
  SP6r  TP2r  1 3.650000e-01    2.830000e+00
  SP6r  TP1r  1 3.650000e-01    2.570000e+00
  SP6r  TN6r  1 3.650000e-01    2.340000e+00
  SP6r  TN5r  1 3.650000e-01    1.910000e+00
  SP6r  TN4r  1 3.650000e-01    1.750000e+00
  SP6r  TN3r  1 3.660000e-01    1.600000e+00
  SP6r  TN2r  1 3.780000e-01    1.450000e+00
  SP6r  TN1r  1 3.940000e-01    1.290000e+00
  SP5r  TP4r  1 3.650000e-01    2.830000e+00
  SP5r  TP3r  1 3.650000e-01    2.570000e+00
  SP5r  TP2r  1 3.650000e-01    2.570000e+00
  SP5r  TP1r  1 3.650000e-01    2.340000e+00
  SP5r  TN6r  1 3.650000e-01    2.110000e+00
  SP5r  TN5r  1 3.650000e-01    1.910000e+00
  SP5r  TN4r  1 3.650000e-01    1.910000e+00
  SP5r  TN3r  1 3.660000e-01    1.600000e+00
  SP5r  TN2r  1 3.780000e-01    1.450000e+00
  SP5r  TN1r  1 3.940000e-01    1.290000e+00
  SP4r  TP3r  1 3.650000e-01    2.570000e+00
  SP4r  TP2r  1 3.650000e-01    2.570000e+00
  SP4r  TP1r  1 3.650000e-01    2.340000e+00
  SP4r  TN6r  1 3.650000e-01    2.110000e+00
  SP4r  TN5r  1 3.650000e-01    1.910000e+00
  SP4r  TN4r  1 3.650000e-01    1.910000e+00
  SP4r  TN3r  1 3.650000e-01    1.750000e+00
  SP4r  TN2r  1 3.660000e-01    1.600000e+00
  SP4r  TN1r  1 3.780000e-01    1.450000e+00
  SP3r  TP2r  1 3.650000e-01    2.570000e+00
  SP3r  TP1r  1 3.650000e-01    2.340000e+00
  SP3r  TN6r  1 3.650000e-01    2.110000e+00
  SP3r  TN5r  1 3.650000e-01    1.910000e+00
  SP3r  TN4r  1 3.650000e-01    1.910000e+00
  SP3r  TN3r  1 3.650000e-01    1.750000e+00
  SP3r  TN2r  1 3.650000e-01    1.750000e+00
  SP3r  TN1r  1 3.660000e-01    1.600000e+00
  SP2r  TP1r  1 3.650000e-01    2.340000e+00
  SP2r  TN6r  1 3.650000e-01    2.340000e+00
  SP2r  TN5r  1 3.650000e-01    2.110000e+00
  SP2r  TN4r  1 3.650000e-01    1.910000e+00
  SP2r  TN3r  1 3.650000e-01    1.750000e+00
  SP2r  TN2r  1 3.650000e-01    1.750000e+00
  SP2r  TN1r  1 3.650000e-01    1.750000e+00
  SP1r  TN6r  1 3.650000e-01    2.340000e+00
  SP1r  TN5r  1 3.650000e-01    2.110000e+00
  SP1r  TN4r  1 3.650000e-01    2.110000e+00
  SP1r  TN3r  1 3.650000e-01    1.750000e+00
  SP1r  TN2r  1 3.650000e-01    1.750000e+00
  SP1r  TN1r  1 3.650000e-01    1.750000e+00
  SN6r  TN5r  1 3.650000e-01    2.340000e+00
  SN6r  TN4r  1 3.650000e-01    2.340000e+00
  SN6r  TN3r  1 3.650000e-01    1.910000e+00
  SN6r  TN2r  1 3.650000e-01    1.750000e+00
  SN6r  TN1r  1 3.650000e-01    1.750000e+00
  SN5r  TN4r  1 3.650000e-01    2.110000e+00
  SN5r  TN3r  1 3.650000e-01    1.910000e+00
  SN5r  TN2r  1 3.650000e-01    1.910000e+00
  SN5r  TN1r  1 3.650000e-01    1.750000e+00
  SN4r  TN3r  1 3.650000e-01    1.910000e+00
  SN4r  TN2r  1 3.650000e-01    1.910000e+00
  SN4r  TN1r  1 3.650000e-01    1.750000e+00
  SN3r  TN2r  1 3.650000e-01    1.910000e+00
  SN3r  TN1r  1 3.650000e-01    1.750000e+00
  SN2r  TN1r  1 3.650000e-01    1.750000e+00
 SP6dr TP5dr  1 3.650000e-01    3.100000e+00
 SP6dr TP4dr  1 3.650000e-01    2.830000e+00
 SP6dr TP3dr  1 3.650000e-01    2.570000e+00
 SP6dr TP2dr  1 3.650000e-01    2.570000e+00
 SP6dr TP1dr  1 3.650000e-01    2.340000e+00
 SP6dr TN6dr  1 3.650000e-01    2.110000e+00
 SP6dr TN5dr  1 3.650000e-01    1.750000e+00
 SP6dr TN4dr  1 3.660000e-01    1.600000e+00
 SP6dr TN3dr  1 3.660000e-01    1.600000e+00
 SP6dr TN2dr  1 3.780000e-01    1.450000e+00
 SP6dr TN1dr  1 3.940000e-01    1.290000e+00
 SP6dr TP6ar  1 3.650000e-01    3.930000e+00
 SP6dr TP5ar  1 3.650000e-01    3.640000e+00
 SP6dr TP4ar  1 3.650000e-01    3.370000e+00
 SP6dr TP3ar  1 3.650000e-01    3.100000e+00
 SP6dr TP2ar  1 3.650000e-01    3.100000e+00
 SP6dr TP1ar  1 3.650000e-01    2.830000e+00
 SP6dr TN6ar  1 3.650000e-01    2.570000e+00
 SP6dr TN5ar  1 3.650000e-01    2.110000e+00
 SP6dr TN4ar  1 3.650000e-01    1.910000e+00
 SP6dr TN3ar  1 3.660000e-01    1.600000e+00
 SP6dr TN2ar  1 3.780000e-01    1.450000e+00
 SP6dr TN1ar  1 3.940000e-01    1.290000e+00
 SP5dr TP4dr  1 3.650000e-01    2.570000e+00
 SP5dr TP3dr  1 3.650000e-01    2.340000e+00
 SP5dr TP2dr  1 3.650000e-01    2.340000e+00
 SP5dr TP1dr  1 3.650000e-01    2.110000e+00
 SP5dr TN6dr  1 3.650000e-01    1.910000e+00
 SP5dr TN5dr  1 3.650000e-01    1.750000e+00
 SP5dr TN4dr  1 3.650000e-01    1.750000e+00
 SP5dr TN3dr  1 3.660000e-01    1.600000e+00
 SP5dr TN2dr  1 3.780000e-01    1.450000e+00
 SP5dr TN1dr  1 3.940000e-01    1.290000e+00
 SP5dr TP5ar  1 3.650000e-01    3.370000e+00
 SP5dr TP4ar  1 3.650000e-01    3.100000e+00
 SP5dr TP3ar  1 3.650000e-01    2.830000e+00
 SP5dr TP2ar  1 3.650000e-01    2.830000e+00
 SP5dr TP1ar  1 3.650000e-01    2.570000e+00
 SP5dr TN6ar  1 3.650000e-01    2.340000e+00
 SP5dr TN5ar  1 3.650000e-01    2.110000e+00
 SP5dr TN4ar  1 3.650000e-01    2.110000e+00
 SP5dr TN3ar  1 3.660000e-01    1.600000e+00
 SP5dr TN2ar  1 3.780000e-01    1.450000e+00
 SP5dr TN1ar  1 3.940000e-01    1.290000e+00
 SP4dr TP3dr  1 3.650000e-01    2.340000e+00
 SP4dr TP2dr  1 3.650000e-01    2.340000e+00
 SP4dr TP1dr  1 3.650000e-01    2.110000e+00
 SP4dr TN6dr  1 3.650000e-01    1.910000e+00
 SP4dr TN5dr  1 3.650000e-01    1.750000e+00
 SP4dr TN4dr  1 3.650000e-01    1.750000e+00
 SP4dr TN3dr  1 3.660000e-01    1.600000e+00
 SP4dr TN2dr  1 3.660000e-01    1.600000e+00
 SP4dr TN1dr  1 3.780000e-01    1.450000e+00
 SP4dr TP4ar  1 3.650000e-01    3.100000e+00
 SP4dr TP3ar  1 3.650000e-01    2.830000e+00
 SP4dr TP2ar  1 3.650000e-01    2.830000e+00
 SP4dr TP1ar  1 3.650000e-01    2.570000e+00
 SP4dr TN6ar  1 3.650000e-01    2.340000e+00
 SP4dr TN5ar  1 3.650000e-01    2.110000e+00
 SP4dr TN4ar  1 3.650000e-01    2.110000e+00
 SP4dr TN3ar  1 3.650000e-01    1.910000e+00
 SP4dr TN2ar  1 3.660000e-01    1.600000e+00
 SP4dr TN1ar  1 3.780000e-01    1.450000e+00
 SP3dr TP2dr  1 3.650000e-01    2.340000e+00
 SP3dr TP1dr  1 3.650000e-01    2.110000e+00
 SP3dr TN6dr  1 3.650000e-01    1.910000e+00
 SP3dr TN5dr  1 3.650000e-01    1.750000e+00
 SP3dr TN4dr  1 3.650000e-01    1.750000e+00
 SP3dr TN3dr  1 3.660000e-01    1.600000e+00
 SP3dr TN2dr  1 3.660000e-01    1.600000e+00
 SP3dr TN1dr  1 3.660000e-01    1.600000e+00
 SP3dr TP3ar  1 3.650000e-01    2.830000e+00
 SP3dr TP2ar  1 3.650000e-01    2.830000e+00
 SP3dr TP1ar  1 3.650000e-01    2.570000e+00
 SP3dr TN6ar  1 3.650000e-01    2.340000e+00
 SP3dr TN5ar  1 3.650000e-01    2.110000e+00
 SP3dr TN4ar  1 3.650000e-01    2.110000e+00
 SP3dr TN3ar  1 3.650000e-01    1.910000e+00
 SP3dr TN2ar  1 3.650000e-01    1.910000e+00
 SP3dr TN1ar  1 3.660000e-01    1.600000e+00
 SP2dr TP1dr  1 3.650000e-01    2.110000e+00
 SP2dr TN6dr  1 3.650000e-01    2.110000e+00
 SP2dr TN5dr  1 3.650000e-01    1.910000e+00
 SP2dr TN4dr  1 3.650000e-01    1.750000e+00
 SP2dr TN3dr  1 3.660000e-01    1.600000e+00
 SP2dr TN2dr  1 3.660000e-01    1.600000e+00
 SP2dr TN1dr  1 3.660000e-01    1.600000e+00
 SP2dr TP2ar  1 3.650000e-01    2.830000e+00
 SP2dr TP1ar  1 3.650000e-01    2.570000e+00
 SP2dr TN6ar  1 3.650000e-01    2.570000e+00
 SP2dr TN5ar  1 3.650000e-01    2.340000e+00
 SP2dr TN4ar  1 3.650000e-01    2.110000e+00
 SP2dr TN3ar  1 3.650000e-01    1.910000e+00
 SP2dr TN2ar  1 3.650000e-01    1.910000e+00
 SP2dr TN1ar  1 3.650000e-01    1.910000e+00
 SP1dr TN6dr  1 3.650000e-01    2.110000e+00
 SP1dr TN5dr  1 3.650000e-01    1.910000e+00
 SP1dr TN4dr  1 3.650000e-01    1.910000e+00
 SP1dr TN3dr  1 3.660000e-01    1.600000e+00
 SP1dr TN2dr  1 3.660000e-01    1.600000e+00
 SP1dr TN1dr  1 3.660000e-01    1.600000e+00
 SP1dr TP1ar  1 3.650000e-01    2.570000e+00
 SP1dr TN6ar  1 3.650000e-01    2.570000e+00
 SP1dr TN5ar  1 3.650000e-01    2.340000e+00
 SP1dr TN4ar  1 3.650000e-01    2.340000e+00
 SP1dr TN3ar  1 3.650000e-01    1.910000e+00
 SP1dr TN2ar  1 3.650000e-01    1.910000e+00
 SP1dr TN1ar  1 3.650000e-01    1.910000e+00
 SN6dr TN5dr  1 3.650000e-01    2.110000e+00
 SN6dr TN4dr  1 3.650000e-01    2.110000e+00
 SN6dr TN3dr  1 3.650000e-01    1.750000e+00
 SN6dr TN2dr  1 3.660000e-01    1.600000e+00
 SN6dr TN1dr  1 3.660000e-01    1.600000e+00
 SN6dr TN6ar  1 3.650000e-01    2.570000e+00
 SN6dr TN5ar  1 3.650000e-01    2.570000e+00
 SN6dr TN4ar  1 3.650000e-01    2.570000e+00
 SN6dr TN3ar  1 3.650000e-01    2.110000e+00
 SN6dr TN2ar  1 3.650000e-01    1.910000e+00
 SN6dr TN1ar  1 3.650000e-01    1.910000e+00
 SN5dr TN4dr  1 3.650000e-01    1.910000e+00
 SN5dr TN3dr  1 3.650000e-01    1.750000e+00
 SN5dr TN2dr  1 3.650000e-01    1.750000e+00
 SN5dr TN1dr  1 3.660000e-01    1.600000e+00
 SN5dr TN5ar  1 3.650000e-01    2.340000e+00
 SN5dr TN4ar  1 3.650000e-01    2.340000e+00
 SN5dr TN3ar  1 3.650000e-01    2.110000e+00
 SN5dr TN2ar  1 3.650000e-01    2.110000e+00
 SN5dr TN1ar  1 3.650000e-01    1.910000e+00
 SN4dr TN3dr  1 3.650000e-01    1.750000e+00
 SN4dr TN2dr  1 3.650000e-01    1.750000e+00
 SN4dr TN1dr  1 3.660000e-01    1.600000e+00
 SN4dr TN4ar  1 3.650000e-01    2.340000e+00
 SN4dr TN3ar  1 3.650000e-01    2.110000e+00
 SN4dr TN2ar  1 3.650000e-01    2.110000e+00
 SN4dr TN1ar  1 3.650000e-01    1.910000e+00
 SN3dr TN2dr  1 3.650000e-01    1.750000e+00
 SN3dr TN1dr  1 3.660000e-01    1.600000e+00
 SN3dr TN3ar  1 3.650000e-01    2.110000e+00
 SN3dr TN2ar  1 3.650000e-01    2.110000e+00
 SN3dr TN1ar  1 3.650000e-01    1.910000e+00
 SN2dr TN1dr  1 3.660000e-01    1.600000e+00
 SN2dr TN2ar  1 3.650000e-01    2.110000e+00
 SN2dr TN1ar  1 3.650000e-01    1.910000e+00
 SN1dr TN1ar  1 3.650000e-01    2.110000e+00
 SP6ar TP5dr  1 3.650000e-01    3.640000e+00
 SP6ar TP4dr  1 3.650000e-01    3.370000e+00
 SP6ar TP3dr  1 3.650000e-01    3.100000e+00
 SP6ar TP2dr  1 3.650000e-01    3.100000e+00
 SP6ar TP1dr  1 3.650000e-01    2.830000e+00
 SP6ar TN6dr  1 3.650000e-01    2.570000e+00
 SP6ar TN5dr  1 3.650000e-01    2.110000e+00
 SP6ar TN4dr  1 3.650000e-01    1.910000e+00
 SP6ar TN3dr  1 3.660000e-01    1.600000e+00
 SP6ar TN2dr  1 3.780000e-01    1.450000e+00
 SP6ar TN1dr  1 3.940000e-01    1.290000e+00
 SP6ar TP5ar  1 3.650000e-01    3.100000e+00
 SP6ar TP4ar  1 3.650000e-01    2.830000e+00
 SP6ar TP3ar  1 3.650000e-01    2.570000e+00
 SP6ar TP2ar  1 3.650000e-01    2.570000e+00
 SP6ar TP1ar  1 3.650000e-01    2.340000e+00
 SP6ar TN6ar  1 3.650000e-01    2.110000e+00
 SP6ar TN5ar  1 3.650000e-01    1.750000e+00
 SP6ar TN4ar  1 3.660000e-01    1.600000e+00
 SP6ar TN3ar  1 3.660000e-01    1.600000e+00
 SP6ar TN2ar  1 3.780000e-01    1.450000e+00
 SP6ar TN1ar  1 3.940000e-01    1.290000e+00
 SP5ar TP4dr  1 3.650000e-01    3.100000e+00
 SP5ar TP3dr  1 3.650000e-01    2.830000e+00
 SP5ar TP2dr  1 3.650000e-01    2.830000e+00
 SP5ar TP1dr  1 3.650000e-01    2.570000e+00
 SP5ar TN6dr  1 3.650000e-01    2.340000e+00
 SP5ar TN5dr  1 3.650000e-01    2.110000e+00
 SP5ar TN4dr  1 3.650000e-01    2.110000e+00
 SP5ar TN3dr  1 3.660000e-01    1.600000e+00
 SP5ar TN2dr  1 3.780000e-01    1.450000e+00
 SP5ar TN1dr  1 3.940000e-01    1.290000e+00
 SP5ar TP4ar  1 3.650000e-01    2.570000e+00
 SP5ar TP3ar  1 3.650000e-01    2.340000e+00
 SP5ar TP2ar  1 3.650000e-01    2.340000e+00
 SP5ar TP1ar  1 3.650000e-01    2.110000e+00
 SP5ar TN6ar  1 3.650000e-01    1.910000e+00
 SP5ar TN5ar  1 3.650000e-01    1.750000e+00
 SP5ar TN4ar  1 3.650000e-01    1.750000e+00
 SP5ar TN3ar  1 3.660000e-01    1.600000e+00
 SP5ar TN2ar  1 3.780000e-01    1.450000e+00
 SP5ar TN1ar  1 3.940000e-01    1.290000e+00
 SP4ar TP3dr  1 3.650000e-01    2.830000e+00
 SP4ar TP2dr  1 3.650000e-01    2.830000e+00
 SP4ar TP1dr  1 3.650000e-01    2.570000e+00
 SP4ar TN6dr  1 3.650000e-01    2.340000e+00
 SP4ar TN5dr  1 3.650000e-01    2.110000e+00
 SP4ar TN4dr  1 3.650000e-01    2.110000e+00
 SP4ar TN3dr  1 3.650000e-01    1.910000e+00
 SP4ar TN2dr  1 3.660000e-01    1.600000e+00
 SP4ar TN1dr  1 3.780000e-01    1.450000e+00
 SP4ar TP3ar  1 3.650000e-01    2.340000e+00
 SP4ar TP2ar  1 3.650000e-01    2.340000e+00
 SP4ar TP1ar  1 3.650000e-01    2.110000e+00
 SP4ar TN6ar  1 3.650000e-01    1.910000e+00
 SP4ar TN5ar  1 3.650000e-01    1.750000e+00
 SP4ar TN4ar  1 3.650000e-01    1.750000e+00
 SP4ar TN3ar  1 3.660000e-01    1.600000e+00
 SP4ar TN2ar  1 3.660000e-01    1.600000e+00
 SP4ar TN1ar  1 3.780000e-01    1.450000e+00
 SP3ar TP2dr  1 3.650000e-01    2.830000e+00
 SP3ar TP1dr  1 3.650000e-01    2.570000e+00
 SP3ar TN6dr  1 3.650000e-01    2.340000e+00
 SP3ar TN5dr  1 3.650000e-01    2.110000e+00
 SP3ar TN4dr  1 3.650000e-01    2.110000e+00
 SP3ar TN3dr  1 3.650000e-01    1.910000e+00
 SP3ar TN2dr  1 3.650000e-01    1.910000e+00
 SP3ar TN1dr  1 3.660000e-01    1.600000e+00
 SP3ar TP2ar  1 3.650000e-01    2.340000e+00
 SP3ar TP1ar  1 3.650000e-01    2.110000e+00
 SP3ar TN6ar  1 3.650000e-01    1.910000e+00
 SP3ar TN5ar  1 3.650000e-01    1.750000e+00
 SP3ar TN4ar  1 3.650000e-01    1.750000e+00
 SP3ar TN3ar  1 3.660000e-01    1.600000e+00
 SP3ar TN2ar  1 3.660000e-01    1.600000e+00
 SP3ar TN1ar  1 3.660000e-01    1.600000e+00
 SP2ar TP1dr  1 3.650000e-01    2.570000e+00
 SP2ar TN6dr  1 3.650000e-01    2.570000e+00
 SP2ar TN5dr  1 3.650000e-01    2.340000e+00
 SP2ar TN4dr  1 3.650000e-01    2.110000e+00
 SP2ar TN3dr  1 3.650000e-01    1.910000e+00
 SP2ar TN2dr  1 3.650000e-01    1.910000e+00
 SP2ar TN1dr  1 3.650000e-01    1.910000e+00
 SP2ar TP1ar  1 3.650000e-01    2.110000e+00
 SP2ar TN6ar  1 3.650000e-01    2.110000e+00
 SP2ar TN5ar  1 3.650000e-01    1.910000e+00
 SP2ar TN4ar  1 3.650000e-01    1.750000e+00
 SP2ar TN3ar  1 3.660000e-01    1.600000e+00
 SP2ar TN2ar  1 3.660000e-01    1.600000e+00
 SP2ar TN1ar  1 3.660000e-01    1.600000e+00
 SP1ar TN6dr  1 3.650000e-01    2.570000e+00
 SP1ar TN5dr  1 3.650000e-01    2.340000e+00
 SP1ar TN4dr  1 3.650000e-01    2.340000e+00
 SP1ar TN3dr  1 3.650000e-01    1.910000e+00
 SP1ar TN2dr  1 3.650000e-01    1.910000e+00
 SP1ar TN1dr  1 3.650000e-01    1.910000e+00
 SP1ar TN6ar  1 3.650000e-01    2.110000e+00
 SP1ar TN5ar  1 3.650000e-01    1.910000e+00
 SP1ar TN4ar  1 3.650000e-01    1.910000e+00
 SP1ar TN3ar  1 3.660000e-01    1.600000e+00
 SP1ar TN2ar  1 3.660000e-01    1.600000e+00
 SP1ar TN1ar  1 3.660000e-01    1.600000e+00
 SN6ar TN5dr  1 3.650000e-01    2.570000e+00
 SN6ar TN4dr  1 3.650000e-01    2.570000e+00
 SN6ar TN3dr  1 3.650000e-01    2.110000e+00
 SN6ar TN2dr  1 3.650000e-01    1.910000e+00
 SN6ar TN1dr  1 3.650000e-01    1.910000e+00
 SN6ar TN5ar  1 3.650000e-01    2.110000e+00
 SN6ar TN4ar  1 3.650000e-01    2.110000e+00
 SN6ar TN3ar  1 3.650000e-01    1.750000e+00
 SN6ar TN2ar  1 3.660000e-01    1.600000e+00
 SN6ar TN1ar  1 3.660000e-01    1.600000e+00
 SN5ar TN4dr  1 3.650000e-01    2.340000e+00
 SN5ar TN3dr  1 3.650000e-01    2.110000e+00
 SN5ar TN2dr  1 3.650000e-01    2.110000e+00
 SN5ar TN1dr  1 3.650000e-01    1.910000e+00
 SN5ar TN4ar  1 3.650000e-01    1.910000e+00
 SN5ar TN3ar  1 3.650000e-01    1.750000e+00
 SN5ar TN2ar  1 3.650000e-01    1.750000e+00
 SN5ar TN1ar  1 3.660000e-01    1.600000e+00
 SN4ar TN3dr  1 3.650000e-01    2.110000e+00
 SN4ar TN2dr  1 3.650000e-01    2.110000e+00
 SN4ar TN1dr  1 3.650000e-01    1.910000e+00
 SN4ar TN3ar  1 3.650000e-01    1.750000e+00
 SN4ar TN2ar  1 3.650000e-01    1.750000e+00
 SN4ar TN1ar  1 3.660000e-01    1.600000e+00
 SN3ar TN2dr  1 3.650000e-01    2.110000e+00
 SN3ar TN1dr  1 3.650000e-01    1.910000e+00
 SN3ar TN2ar  1 3.650000e-01    1.750000e+00
 SN3ar TN1ar  1 3.660000e-01    1.600000e+00
 SN2ar TN1dr  1 3.650000e-01    1.910000e+00
 SN2ar TN1ar  1 3.660000e-01    1.600000e+00
  SC6r  TC6r  1 3.650000e-01    1.910000e+00
  SC5r  TC5r  1 3.650000e-01    1.750000e+00
  SC4r  TC4r  1 3.650000e-01    1.750000e+00
  SC3r  TC3r  1 3.650000e-01    1.750000e+00
  SC2r  TC2r  1 3.650000e-01    1.750000e+00
  SC1r  TC1r  1 3.650000e-01    1.750000e+00
  SX4r  TX4r  1 3.650000e-01    1.750000e+00
  SX3r  TX3r  1 3.650000e-01    1.750000e+00
  SX2r  TX2r  1 3.650000e-01    1.910000e+00
  SX1r  TX1r  1 3.650000e-01    2.110000e+00
 SC6vr TC6vr  1 3.650000e-01    1.750000e+00
 SC5vr TC5vr  1 3.660000e-01    1.600000e+00
 SC4vr TC4vr  1 3.660000e-01    1.600000e+00
 SC3vr TC3vr  1 3.660000e-01    1.600000e+00
 SC2vr TC2vr  1 3.660000e-01    1.600000e+00
 SC1vr TC1vr  1 3.660000e-01    1.600000e+00
 SX4vr TX4vr  1 3.660000e-01    1.600000e+00
 SX3vr TX3vr  1 3.660000e-01    1.600000e+00
 SX2vr TX2vr  1 3.650000e-01    1.750000e+00
 SX1vr TX1vr  1 3.650000e-01    1.910000e+00
 SC6er TC6er  1 3.650000e-01    1.750000e+00
 SC5er TC5er  1 3.660000e-01    1.600000e+00
 SC4er TC4er  1 3.660000e-01    1.600000e+00
 SC3er TC3er  1 3.660000e-01    1.600000e+00
 SC2er TC2er  1 3.660000e-01    1.600000e+00
 SC1er TC1er  1 3.660000e-01    1.600000e+00
 SX4er TX4er  1 3.660000e-01    1.600000e+00
 SX3er TX3er  1 3.660000e-01    1.600000e+00
 SX2er TX2er  1 3.650000e-01    1.750000e+00
 SX1er TX1er  1 3.650000e-01    1.910000e+00
  SC6r  TC5r  1 3.650000e-01    1.750000e+00
  SC6r  TC4r  1 3.650000e-01    1.750000e+00
  SC6r  TC3r  1 3.660000e-01    1.600000e+00
  SC6r  TC2r  1 3.780000e-01    1.450000e+00
  SC6r  TC1r  1 3.940000e-01    1.290000e+00
  SC6r  TX4r  1 3.650000e-01    1.750000e+00
  SC6r  TX3r  1 3.650000e-01    1.750000e+00
  SC6r  TX2r  1 3.650000e-01    1.750000e+00
  SC6r  TX1r  1 3.650000e-01    1.750000e+00
  SC5r  TC4r  1 3.650000e-01    1.750000e+00
  SC5r  TC3r  1 3.660000e-01    1.600000e+00
  SC5r  TC2r  1 3.780000e-01    1.450000e+00
  SC5r  TC1r  1 3.780000e-01    1.450000e+00
  SC5r  TX4r  1 3.660000e-01    1.600000e+00
  SC5r  TX3r  1 3.660000e-01    1.600000e+00
  SC5r  TX2r  1 3.660000e-01    1.600000e+00
  SC5r  TX1r  1 3.650000e-01    1.750000e+00
  SC4r  TC3r  1 3.650000e-01    1.750000e+00
  SC4r  TC2r  1 3.660000e-01    1.600000e+00
  SC4r  TC1r  1 3.780000e-01    1.450000e+00
  SC4r  TX4r  1 3.660000e-01    1.600000e+00
  SC4r  TX3r  1 3.660000e-01    1.600000e+00
  SC4r  TX2r  1 3.660000e-01    1.600000e+00
  SC4r  TX1r  1 3.650000e-01    1.750000e+00
  SC3r  TC2r  1 3.650000e-01    1.750000e+00
  SC3r  TC1r  1 3.650000e-01    1.750000e+00
  SC3r  TX4r  1 3.660000e-01    1.600000e+00
  SC3r  TX3r  1 3.660000e-01    1.600000e+00
  SC3r  TX2r  1 3.660000e-01    1.600000e+00
  SC3r  TX1r  1 3.650000e-01    1.750000e+00
  SC2r  TC1r  1 3.650000e-01    1.910000e+00
  SC2r  TX4r  1 3.940000e-01    1.290000e+00
  SC2r  TX3r  1 3.660000e-01    1.600000e+00
  SC2r  TX2r  1 3.660000e-01    1.600000e+00
  SC2r  TX1r  1 3.660000e-01    1.600000e+00
  SC1r  TX4r  1 3.940000e-01    1.290000e+00
  SC1r  TX3r  1 3.660000e-01    1.600000e+00
  SC1r  TX2r  1 3.660000e-01    1.600000e+00
  SC1r  TX1r  1 3.660000e-01    1.600000e+00
  SX4r  TX3r  1 3.650000e-01    1.750000e+00
  SX4r  TX2r  1 3.650000e-01    1.750000e+00
  SX4r  TX1r  1 3.650000e-01    1.750000e+00
  SX3r  TX2r  1 3.650000e-01    1.910000e+00
  SX3r  TX1r  1 3.650000e-01    1.910000e+00
  SX2r  TX1r  1 3.650000e-01    1.910000e+00
 SC6vr TC5vr  1 3.660000e-01    1.600000e+00
 SC6vr TC4vr  1 3.660000e-01    1.600000e+00
 SC6vr TC3vr  1 3.780000e-01    1.450000e+00
 SC6vr TC2vr  1 3.940000e-01    1.290000e+00
 SC6vr TC1vr  1 4.040000e-01    1.130000e+00
 SC6vr TX4vr  1 3.660000e-01    1.600000e+00
 SC6vr TX3vr  1 3.660000e-01    1.600000e+00
 SC6vr TX2vr  1 3.660000e-01    1.600000e+00
 SC6vr TX1vr  1 3.660000e-01    1.600000e+00
 SC6vr TC6er  1 3.650000e-01    2.340000e+00
 SC6vr TC5er  1 3.650000e-01    2.110000e+00
 SC6vr TC4er  1 3.650000e-01    2.110000e+00
 SC6vr TC3er  1 3.650000e-01    1.910000e+00
 SC6vr TC2er  1 3.650000e-01    1.750000e+00
 SC6vr TC1er  1 3.660000e-01    1.600000e+00
 SC6vr TX4er  1 3.650000e-01    2.110000e+00
 SC6vr TX3er  1 3.650000e-01    2.110000e+00
 SC6vr TX2er  1 3.650000e-01    2.110000e+00
 SC6vr TX1er  1 3.650000e-01    2.110000e+00
 SC5vr TC4vr  1 3.660000e-01    1.600000e+00
 SC5vr TC3vr  1 3.780000e-01    1.450000e+00
 SC5vr TC2vr  1 3.940000e-01    1.290000e+00
 SC5vr TC1vr  1 3.940000e-01    1.290000e+00
 SC5vr TX4vr  1 3.780000e-01    1.450000e+00
 SC5vr TX3vr  1 3.780000e-01    1.450000e+00
 SC5vr TX2vr  1 3.780000e-01    1.450000e+00
 SC5vr TX1vr  1 3.660000e-01    1.600000e+00
 SC5vr TC5er  1 3.650000e-01    2.110000e+00
 SC5vr TC4er  1 3.650000e-01    2.110000e+00
 SC5vr TC3er  1 3.650000e-01    1.910000e+00
 SC5vr TC2er  1 3.650000e-01    1.750000e+00
 SC5vr TC1er  1 3.650000e-01    1.750000e+00
 SC5vr TX4er  1 3.650000e-01    1.910000e+00
 SC5vr TX3er  1 3.650000e-01    1.910000e+00
 SC5vr TX2er  1 3.650000e-01    1.910000e+00
 SC5vr TX1er  1 3.650000e-01    2.110000e+00
 SC4vr TC3vr  1 3.660000e-01    1.600000e+00
 SC4vr TC2vr  1 3.780000e-01    1.450000e+00
 SC4vr TC1vr  1 3.940000e-01    1.290000e+00
 SC4vr TX4vr  1 3.780000e-01    1.450000e+00
 SC4vr TX3vr  1 3.780000e-01    1.450000e+00
 SC4vr TX2vr  1 3.780000e-01    1.450000e+00
 SC4vr TX1vr  1 3.660000e-01    1.600000e+00
 SC4vr TC4er  1 3.650000e-01    2.110000e+00
 SC4vr TC3er  1 3.650000e-01    2.110000e+00
 SC4vr TC2er  1 3.650000e-01    1.910000e+00
 SC4vr TC1er  1 3.650000e-01    1.750000e+00
 SC4vr TX4er  1 3.650000e-01    1.910000e+00
 SC4vr TX3er  1 3.650000e-01    1.910000e+00
 SC4vr TX2er  1 3.650000e-01    1.910000e+00
 SC4vr TX1er  1 3.650000e-01    2.110000e+00
 SC3vr TC2vr  1 3.660000e-01    1.600000e+00
 SC3vr TC1vr  1 3.660000e-01    1.600000e+00
 SC3vr TX4vr  1 3.780000e-01    1.450000e+00
 SC3vr TX3vr  1 3.780000e-01    1.450000e+00
 SC3vr TX2vr  1 3.780000e-01    1.450000e+00
 SC3vr TX1vr  1 3.660000e-01    1.600000e+00
 SC3vr TC3er  1 3.650000e-01    2.110000e+00
 SC3vr TC2er  1 3.650000e-01    2.110000e+00
 SC3vr TC1er  1 3.650000e-01    2.110000e+00
 SC3vr TX4er  1 3.650000e-01    1.910000e+00
 SC3vr TX3er  1 3.650000e-01    1.910000e+00
 SC3vr TX2er  1 3.650000e-01    1.910000e+00
 SC3vr TX1er  1 3.650000e-01    2.110000e+00
 SC2vr TC1vr  1 3.650000e-01    1.750000e+00
 SC2vr TX4vr  1 4.040000e-01    1.130000e+00
 SC2vr TX3vr  1 3.780000e-01    1.450000e+00
 SC2vr TX2vr  1 3.780000e-01    1.450000e+00
 SC2vr TX1vr  1 3.780000e-01    1.450000e+00
 SC2vr TC2er  1 3.650000e-01    2.110000e+00
 SC2vr TC1er  1 3.650000e-01    2.340000e+00
 SC2vr TX4er  1 3.660000e-01    1.600000e+00
 SC2vr TX3er  1 3.650000e-01    1.910000e+00
 SC2vr TX2er  1 3.650000e-01    1.910000e+00
 SC2vr TX1er  1 3.650000e-01    1.910000e+00
 SC1vr TX4vr  1 4.040000e-01    1.130000e+00
 SC1vr TX3vr  1 3.780000e-01    1.450000e+00
 SC1vr TX2vr  1 3.780000e-01    1.450000e+00
 SC1vr TX1vr  1 3.780000e-01    1.450000e+00
 SC1vr TC1er  1 3.650000e-01    2.110000e+00
 SC1vr TX4er  1 3.660000e-01    1.600000e+00
 SC1vr TX3er  1 3.650000e-01    1.910000e+00
 SC1vr TX2er  1 3.650000e-01    1.910000e+00
 SC1vr TX1er  1 3.650000e-01    1.910000e+00
 SX4vr TX3vr  1 3.660000e-01    1.600000e+00
 SX4vr TX2vr  1 3.660000e-01    1.600000e+00
 SX4vr TX1vr  1 3.660000e-01    1.600000e+00
 SX4vr TX4er  1 3.650000e-01    2.110000e+00
 SX4vr TX3er  1 3.650000e-01    2.110000e+00
 SX4vr TX2er  1 3.650000e-01    2.110000e+00
 SX4vr TX1er  1 3.650000e-01    2.110000e+00
 SX3vr TX2vr  1 3.650000e-01    1.750000e+00
 SX3vr TX1vr  1 3.650000e-01    1.750000e+00
 SX3vr TX3er  1 3.650000e-01    2.110000e+00
 SX3vr TX2er  1 3.650000e-01    2.340000e+00
 SX3vr TX1er  1 3.650000e-01    2.340000e+00
 SX2vr TX1vr  1 3.650000e-01    1.750000e+00
 SX2vr TX2er  1 3.650000e-01    2.340000e+00
 SX2vr TX1er  1 3.650000e-01    2.340000e+00
 SX1vr TX1er  1 3.650000e-01    2.570000e+00
 SC6er TC5vr  1 3.650000e-01    2.110000e+00
 SC6er TC4vr  1 3.650000e-01    2.110000e+00
 SC6er TC3vr  1 3.650000e-01    1.910000e+00
 SC6er TC2vr  1 3.650000e-01    1.750000e+00
 SC6er TC1vr  1 3.660000e-01    1.600000e+00
 SC6er TX4vr  1 3.650000e-01    2.110000e+00
 SC6er TX3vr  1 3.650000e-01    2.110000e+00
 SC6er TX2vr  1 3.650000e-01    2.110000e+00
 SC6er TX1vr  1 3.650000e-01    2.110000e+00
 SC6er TC5er  1 3.660000e-01    1.600000e+00
 SC6er TC4er  1 3.660000e-01    1.600000e+00
 SC6er TC3er  1 3.780000e-01    1.450000e+00
 SC6er TC2er  1 3.940000e-01    1.290000e+00
 SC6er TC1er  1 4.040000e-01    1.130000e+00
 SC6er TX4er  1 3.660000e-01    1.600000e+00
 SC6er TX3er  1 3.660000e-01    1.600000e+00
 SC6er TX2er  1 3.660000e-01    1.600000e+00
 SC6er TX1er  1 3.660000e-01    1.600000e+00
 SC5er TC4vr  1 3.650000e-01    2.110000e+00
 SC5er TC3vr  1 3.650000e-01    1.910000e+00
 SC5er TC2vr  1 3.650000e-01    1.750000e+00
 SC5er TC1vr  1 3.650000e-01    1.750000e+00
 SC5er TX4vr  1 3.650000e-01    1.910000e+00
 SC5er TX3vr  1 3.650000e-01    1.910000e+00
 SC5er TX2vr  1 3.650000e-01    1.910000e+00
 SC5er TX1vr  1 3.650000e-01    2.110000e+00
 SC5er TC4er  1 3.660000e-01    1.600000e+00
 SC5er TC3er  1 3.780000e-01    1.450000e+00
 SC5er TC2er  1 3.940000e-01    1.290000e+00
 SC5er TC1er  1 3.940000e-01    1.290000e+00
 SC5er TX4er  1 3.780000e-01    1.450000e+00
 SC5er TX3er  1 3.780000e-01    1.450000e+00
 SC5er TX2er  1 3.780000e-01    1.450000e+00
 SC5er TX1er  1 3.660000e-01    1.600000e+00
 SC4er TC3vr  1 3.650000e-01    2.110000e+00
 SC4er TC2vr  1 3.650000e-01    1.910000e+00
 SC4er TC1vr  1 3.650000e-01    1.750000e+00
 SC4er TX4vr  1 3.650000e-01    1.910000e+00
 SC4er TX3vr  1 3.650000e-01    1.910000e+00
 SC4er TX2vr  1 3.650000e-01    1.910000e+00
 SC4er TX1vr  1 3.650000e-01    2.110000e+00
 SC4er TC3er  1 3.660000e-01    1.600000e+00
 SC4er TC2er  1 3.780000e-01    1.450000e+00
 SC4er TC1er  1 3.940000e-01    1.290000e+00
 SC4er TX4er  1 3.780000e-01    1.450000e+00
 SC4er TX3er  1 3.780000e-01    1.450000e+00
 SC4er TX2er  1 3.780000e-01    1.450000e+00
 SC4er TX1er  1 3.660000e-01    1.600000e+00
 SC3er TC2vr  1 3.650000e-01    2.110000e+00
 SC3er TC1vr  1 3.650000e-01    2.110000e+00
 SC3er TX4vr  1 3.650000e-01    1.910000e+00
 SC3er TX3vr  1 3.650000e-01    1.910000e+00
 SC3er TX2vr  1 3.650000e-01    1.910000e+00
 SC3er TX1vr  1 3.650000e-01    2.110000e+00
 SC3er TC2er  1 3.660000e-01    1.600000e+00
 SC3er TC1er  1 3.660000e-01    1.600000e+00
 SC3er TX4er  1 3.780000e-01    1.450000e+00
 SC3er TX3er  1 3.780000e-01    1.450000e+00
 SC3er TX2er  1 3.780000e-01    1.450000e+00
 SC3er TX1er  1 3.660000e-01    1.600000e+00
 SC2er TC1vr  1 3.650000e-01    2.340000e+00
 SC2er TX4vr  1 3.660000e-01    1.600000e+00
 SC2er TX3vr  1 3.650000e-01    1.910000e+00
 SC2er TX2vr  1 3.650000e-01    1.910000e+00
 SC2er TX1vr  1 3.650000e-01    1.910000e+00
 SC2er TC1er  1 3.650000e-01    1.750000e+00
 SC2er TX4er  1 4.040000e-01    1.130000e+00
 SC2er TX3er  1 3.780000e-01    1.450000e+00
 SC2er TX2er  1 3.780000e-01    1.450000e+00
 SC2er TX1er  1 3.780000e-01    1.450000e+00
 SC1er TX4vr  1 3.660000e-01    1.600000e+00
 SC1er TX3vr  1 3.650000e-01    1.910000e+00
 SC1er TX2vr  1 3.650000e-01    1.910000e+00
 SC1er TX1vr  1 3.650000e-01    1.910000e+00
 SC1er TX4er  1 4.040000e-01    1.130000e+00
 SC1er TX3er  1 3.780000e-01    1.450000e+00
 SC1er TX2er  1 3.780000e-01    1.450000e+00
 SC1er TX1er  1 3.780000e-01    1.450000e+00
 SX4er TX3vr  1 3.650000e-01    2.110000e+00
 SX4er TX2vr  1 3.650000e-01    2.110000e+00
 SX4er TX1vr  1 3.650000e-01    2.110000e+00
 SX4er TX3er  1 3.660000e-01    1.600000e+00
 SX4er TX2er  1 3.660000e-01    1.600000e+00
 SX4er TX1er  1 3.660000e-01    1.600000e+00
 SX3er TX2vr  1 3.650000e-01    2.340000e+00
 SX3er TX1vr  1 3.650000e-01    2.340000e+00
 SX3er TX2er  1 3.650000e-01    1.750000e+00
 SX3er TX1er  1 3.650000e-01    1.750000e+00
 SX2er TX1vr  1 3.650000e-01    2.340000e+00
 SX2er TX1er  1 3.650000e-01    1.750000e+00
  SP6r  TC6r  1 3.780000e-01    1.450000e+00
  SP6r  TC5r  1 3.940000e-01    1.290000e+00
  SP6r  TC4r  1 4.040000e-01    1.130000e+00
  SP6r  TC3r  1 4.090000e-01    1.080000e+00
  SP6r  TC2r  1 4.090000e-01    1.080000e+00
  SP6r  TC1r  1 4.840000e-01    8.900000e-01
  SP6r  TX4r  1 3.660000e-01    1.600000e+00
  SP6r  TX3r  1 3.660000e-01    1.600000e+00
  SP6r  TX2r  1 3.780000e-01    1.450000e+00
  SP6r  TX1r  1 3.940000e-01    1.290000e+00
  SP5r  TC6r  1 3.780000e-01    1.450000e+00
  SP5r  TC5r  1 3.780000e-01    1.450000e+00
  SP5r  TC4r  1 3.940000e-01    1.290000e+00
  SP5r  TC3r  1 4.040000e-01    1.130000e+00
  SP5r  TC2r  1 4.040000e-01    1.130000e+00
  SP5r  TC1r  1 4.090000e-01    1.080000e+00
  SP5r  TX4r  1 3.650000e-01    1.750000e+00
  SP5r  TX3r  1 3.660000e-01    1.600000e+00
  SP5r  TX2r  1 3.660000e-01    1.600000e+00
  SP5r  TX1r  1 3.940000e-01    1.290000e+00
  SP4r  TC6r  1 3.660000e-01    1.600000e+00
  SP4r  TC5r  1 3.780000e-01    1.450000e+00
  SP4r  TC4r  1 3.940000e-01    1.290000e+00
  SP4r  TC3r  1 4.040000e-01    1.130000e+00
  SP4r  TC2r  1 4.040000e-01    1.130000e+00
  SP4r  TC1r  1 4.090000e-01    1.080000e+00
  SP4r  TX4r  1 3.650000e-01    1.750000e+00
  SP4r  TX3r  1 3.660000e-01    1.600000e+00
  SP4r  TX2r  1 3.660000e-01    1.600000e+00
  SP4r  TX1r  1 3.780000e-01    1.450000e+00
  SP3r  TC6r  1 3.650000e-01    1.750000e+00
  SP3r  TC5r  1 3.660000e-01    1.600000e+00
  SP3r  TC4r  1 3.780000e-01    1.450000e+00
  SP3r  TC3r  1 4.040000e-01    1.130000e+00
  SP3r  TC2r  1 4.040000e-01    1.130000e+00
  SP3r  TC1r  1 4.090000e-01    1.080000e+00
  SP3r  TX4r  1 3.650000e-01    1.750000e+00
  SP3r  TX3r  1 3.650000e-01    1.750000e+00
  SP3r  TX2r  1 3.660000e-01    1.600000e+00
  SP3r  TX1r  1 3.780000e-01    1.450000e+00
  SP2r  TC6r  1 3.650000e-01    1.750000e+00
  SP2r  TC5r  1 3.660000e-01    1.600000e+00
  SP2r  TC4r  1 3.780000e-01    1.450000e+00
  SP2r  TC3r  1 3.940000e-01    1.290000e+00
  SP2r  TC2r  1 3.940000e-01    1.290000e+00
  SP2r  TC1r  1 4.040000e-01    1.130000e+00
  SP2r  TX4r  1 3.650000e-01    1.750000e+00
  SP2r  TX3r  1 3.650000e-01    1.750000e+00
  SP2r  TX2r  1 3.660000e-01    1.600000e+00
  SP2r  TX1r  1 3.780000e-01    1.450000e+00
  SP1r  TC6r  1 3.650000e-01    1.750000e+00
  SP1r  TC5r  1 3.660000e-01    1.600000e+00
  SP1r  TC4r  1 3.780000e-01    1.450000e+00
  SP1r  TC3r  1 3.940000e-01    1.290000e+00
  SP1r  TC2r  1 3.940000e-01    1.290000e+00
  SP1r  TC1r  1 4.040000e-01    1.130000e+00
  SP1r  TX4r  1 3.650000e-01    1.750000e+00
  SP1r  TX3r  1 3.650000e-01    1.750000e+00
  SP1r  TX2r  1 3.660000e-01    1.600000e+00
  SP1r  TX1r  1 3.780000e-01    1.450000e+00
  SN6r  TC6r  1 3.650000e-01    1.910000e+00
  SN6r  TC5r  1 3.650000e-01    1.750000e+00
  SN6r  TC4r  1 3.660000e-01    1.600000e+00
  SN6r  TC3r  1 3.780000e-01    1.450000e+00
  SN6r  TC2r  1 3.780000e-01    1.450000e+00
  SN6r  TC1r  1 3.940000e-01    1.290000e+00
  SN6r  TX4r  1 3.650000e-01    1.910000e+00
  SN6r  TX3r  1 3.650000e-01    1.750000e+00
  SN6r  TX2r  1 3.660000e-01    1.600000e+00
  SN6r  TX1r  1 3.780000e-01    1.450000e+00
  SN5r  TC6r  1 3.650000e-01    1.910000e+00
  SN5r  TC5r  1 3.650000e-01    1.750000e+00
  SN5r  TC4r  1 3.660000e-01    1.600000e+00
  SN5r  TC3r  1 3.660000e-01    1.600000e+00
  SN5r  TC2r  1 3.780000e-01    1.450000e+00
  SN5r  TC1r  1 3.940000e-01    1.290000e+00
  SN5r  TX4r  1 3.650000e-01    2.110000e+00
  SN5r  TX3r  1 3.650000e-01    1.910000e+00
  SN5r  TX2r  1 3.650000e-01    1.750000e+00
  SN5r  TX1r  1 3.660000e-01    1.600000e+00
  SN4r  TC6r  1 3.650000e-01    1.910000e+00
  SN4r  TC5r  1 3.650000e-01    1.750000e+00
  SN4r  TC4r  1 3.650000e-01    1.750000e+00
  SN4r  TC3r  1 3.660000e-01    1.600000e+00
  SN4r  TC2r  1 3.780000e-01    1.450000e+00
  SN4r  TC1r  1 3.940000e-01    1.290000e+00
  SN4r  TX4r  1 3.650000e-01    2.340000e+00
  SN4r  TX3r  1 3.650000e-01    2.110000e+00
  SN4r  TX2r  1 3.650000e-01    1.750000e+00
  SN4r  TX1r  1 3.660000e-01    1.600000e+00
  SN3r  TC6r  1 3.650000e-01    1.910000e+00
  SN3r  TC5r  1 3.650000e-01    1.750000e+00
  SN3r  TC4r  1 3.650000e-01    1.750000e+00
  SN3r  TC3r  1 3.660000e-01    1.600000e+00
  SN3r  TC2r  1 3.660000e-01    1.600000e+00
  SN3r  TC1r  1 3.780000e-01    1.450000e+00
  SN3r  TX4r  1 3.650000e-01    2.110000e+00
  SN3r  TX3r  1 3.650000e-01    1.910000e+00
  SN3r  TX2r  1 3.650000e-01    1.750000e+00
  SN3r  TX1r  1 3.650000e-01    1.750000e+00
  SN2r  TC6r  1 3.650000e-01    1.910000e+00
  SN2r  TC5r  1 3.650000e-01    1.750000e+00
  SN2r  TC4r  1 3.650000e-01    1.750000e+00
  SN2r  TC3r  1 3.650000e-01    1.750000e+00
  SN2r  TC2r  1 3.660000e-01    1.600000e+00
  SN2r  TC1r  1 3.780000e-01    1.450000e+00
  SN2r  TX4r  1 3.650000e-01    2.110000e+00
  SN2r  TX3r  1 3.650000e-01    1.910000e+00
  SN2r  TX2r  1 3.650000e-01    1.750000e+00
  SN2r  TX1r  1 3.650000e-01    1.750000e+00
  SN1r  TC6r  1 3.650000e-01    2.110000e+00
  SN1r  TC5r  1 3.650000e-01    1.910000e+00
  SN1r  TC4r  1 3.650000e-01    1.910000e+00
  SN1r  TC3r  1 3.650000e-01    1.750000e+00
  SN1r  TC2r  1 3.660000e-01    1.600000e+00
  SN1r  TC1r  1 3.780000e-01    1.450000e+00
  SN1r  TX4r  1 3.650000e-01    1.910000e+00
  SN1r  TX3r  1 3.650000e-01    1.910000e+00
  SN1r  TX2r  1 3.650000e-01    1.750000e+00
  SN1r  TX1r  1 3.650000e-01    1.750000e+00
 SP6dr TC6vr  1 3.940000e-01    1.290000e+00
 SP6dr TC5vr  1 4.040000e-01    1.130000e+00
 SP6dr TC4vr  1 4.090000e-01    1.080000e+00
 SP6dr TC3vr  1 4.230000e-01    9.810000e-01
 SP6dr TC2vr  1 4.230000e-01    9.810000e-01
 SP6dr TC1vr  1 5.370000e-01    8.080000e-01
 SP6dr TX4vr  1 3.780000e-01    1.450000e+00
 SP6dr TX3vr  1 3.780000e-01    1.450000e+00
 SP6dr TX2vr  1 3.940000e-01    1.290000e+00
 SP6dr TX1vr  1 4.040000e-01    1.130000e+00
 SP6dr TC6er  1 3.660000e-01    1.600000e+00
 SP6dr TC5er  1 3.780000e-01    1.450000e+00
 SP6dr TC4er  1 3.940000e-01    1.290000e+00
 SP6dr TC3er  1 4.040000e-01    1.130000e+00
 SP6dr TC2er  1 4.040000e-01    1.130000e+00
 SP6dr TC1er  1 4.230000e-01    9.810000e-01
 SP6dr TX4er  1 3.650000e-01    1.750000e+00
 SP6dr TX3er  1 3.650000e-01    1.750000e+00
 SP6dr TX2er  1 3.660000e-01    1.600000e+00
 SP6dr TX1er  1 3.780000e-01    1.450000e+00
 SP5dr TC6vr  1 3.940000e-01    1.290000e+00
 SP5dr TC5vr  1 3.940000e-01    1.290000e+00
 SP5dr TC4vr  1 4.040000e-01    1.130000e+00
 SP5dr TC3vr  1 4.090000e-01    1.080000e+00
 SP5dr TC2vr  1 4.090000e-01    1.080000e+00
 SP5dr TC1vr  1 4.230000e-01    9.810000e-01
 SP5dr TX4vr  1 3.660000e-01    1.600000e+00
 SP5dr TX3vr  1 3.780000e-01    1.450000e+00
 SP5dr TX2vr  1 3.780000e-01    1.450000e+00
 SP5dr TX1vr  1 4.040000e-01    1.130000e+00
 SP5dr TC6er  1 3.660000e-01    1.600000e+00
 SP5dr TC5er  1 3.660000e-01    1.600000e+00
 SP5dr TC4er  1 3.780000e-01    1.450000e+00
 SP5dr TC3er  1 3.940000e-01    1.290000e+00
 SP5dr TC2er  1 3.940000e-01    1.290000e+00
 SP5dr TC1er  1 4.040000e-01    1.130000e+00
 SP5dr TX4er  1 3.650000e-01    1.910000e+00
 SP5dr TX3er  1 3.650000e-01    1.750000e+00
 SP5dr TX2er  1 3.650000e-01    1.750000e+00
 SP5dr TX1er  1 3.780000e-01    1.450000e+00
 SP4dr TC6vr  1 3.780000e-01    1.450000e+00
 SP4dr TC5vr  1 3.940000e-01    1.290000e+00
 SP4dr TC4vr  1 4.040000e-01    1.130000e+00
 SP4dr TC3vr  1 4.090000e-01    1.080000e+00
 SP4dr TC2vr  1 4.090000e-01    1.080000e+00
 SP4dr TC1vr  1 4.230000e-01    9.810000e-01
 SP4dr TX4vr  1 3.660000e-01    1.600000e+00
 SP4dr TX3vr  1 3.780000e-01    1.450000e+00
 SP4dr TX2vr  1 3.780000e-01    1.450000e+00
 SP4dr TX1vr  1 3.940000e-01    1.290000e+00
 SP4dr TC6er  1 3.650000e-01    1.750000e+00
 SP4dr TC5er  1 3.660000e-01    1.600000e+00
 SP4dr TC4er  1 3.780000e-01    1.450000e+00
 SP4dr TC3er  1 3.940000e-01    1.290000e+00
 SP4dr TC2er  1 3.940000e-01    1.290000e+00
 SP4dr TC1er  1 4.040000e-01    1.130000e+00
 SP4dr TX4er  1 3.650000e-01    1.910000e+00
 SP4dr TX3er  1 3.650000e-01    1.750000e+00
 SP4dr TX2er  1 3.650000e-01    1.750000e+00
 SP4dr TX1er  1 3.660000e-01    1.600000e+00
 SP3dr TC6vr  1 3.660000e-01    1.600000e+00
 SP3dr TC5vr  1 3.780000e-01    1.450000e+00
 SP3dr TC4vr  1 3.940000e-01    1.290000e+00
 SP3dr TC3vr  1 4.090000e-01    1.080000e+00
 SP3dr TC2vr  1 4.090000e-01    1.080000e+00
 SP3dr TC1vr  1 4.230000e-01    9.810000e-01
 SP3dr TX4vr  1 3.660000e-01    1.600000e+00
 SP3dr TX3vr  1 3.660000e-01    1.600000e+00
 SP3dr TX2vr  1 3.780000e-01    1.450000e+00
 SP3dr TX1vr  1 3.940000e-01    1.290000e+00
 SP3dr TC6er  1 3.650000e-01    1.910000e+00
 SP3dr TC5er  1 3.650000e-01    1.750000e+00
 SP3dr TC4er  1 3.660000e-01    1.600000e+00
 SP3dr TC3er  1 3.940000e-01    1.290000e+00
 SP3dr TC2er  1 3.940000e-01    1.290000e+00
 SP3dr TC1er  1 4.040000e-01    1.130000e+00
 SP3dr TX4er  1 3.650000e-01    1.910000e+00
 SP3dr TX3er  1 3.650000e-01    1.910000e+00
 SP3dr TX2er  1 3.650000e-01    1.750000e+00
 SP3dr TX1er  1 3.660000e-01    1.600000e+00
 SP2dr TC6vr  1 3.660000e-01    1.600000e+00
 SP2dr TC5vr  1 3.780000e-01    1.450000e+00
 SP2dr TC4vr  1 3.940000e-01    1.290000e+00
 SP2dr TC3vr  1 4.040000e-01    1.130000e+00
 SP2dr TC2vr  1 4.040000e-01    1.130000e+00
 SP2dr TC1vr  1 4.090000e-01    1.080000e+00
 SP2dr TX4vr  1 3.660000e-01    1.600000e+00
 SP2dr TX3vr  1 3.660000e-01    1.600000e+00
 SP2dr TX2vr  1 3.780000e-01    1.450000e+00
 SP2dr TX1vr  1 3.940000e-01    1.290000e+00
 SP2dr TC6er  1 3.650000e-01    1.910000e+00
 SP2dr TC5er  1 3.650000e-01    1.750000e+00
 SP2dr TC4er  1 3.660000e-01    1.600000e+00
 SP2dr TC3er  1 3.780000e-01    1.450000e+00
 SP2dr TC2er  1 3.780000e-01    1.450000e+00
 SP2dr TC1er  1 3.940000e-01    1.290000e+00
 SP2dr TX4er  1 3.650000e-01    1.910000e+00
 SP2dr TX3er  1 3.650000e-01    1.910000e+00
 SP2dr TX2er  1 3.650000e-01    1.750000e+00
 SP2dr TX1er  1 3.660000e-01    1.600000e+00
 SP1dr TC6vr  1 3.660000e-01    1.600000e+00
 SP1dr TC5vr  1 3.780000e-01    1.450000e+00
 SP1dr TC4vr  1 3.940000e-01    1.290000e+00
 SP1dr TC3vr  1 4.040000e-01    1.130000e+00
 SP1dr TC2vr  1 4.040000e-01    1.130000e+00
 SP1dr TC1vr  1 4.090000e-01    1.080000e+00
 SP1dr TX4vr  1 3.660000e-01    1.600000e+00
 SP1dr TX3vr  1 3.660000e-01    1.600000e+00
 SP1dr TX2vr  1 3.780000e-01    1.450000e+00
 SP1dr TX1vr  1 3.940000e-01    1.290000e+00
 SP1dr TC6er  1 3.650000e-01    1.910000e+00
 SP1dr TC5er  1 3.650000e-01    1.750000e+00
 SP1dr TC4er  1 3.660000e-01    1.600000e+00
 SP1dr TC3er  1 3.780000e-01    1.450000e+00
 SP1dr TC2er  1 3.780000e-01    1.450000e+00
 SP1dr TC1er  1 3.940000e-01    1.290000e+00
 SP1dr TX4er  1 3.650000e-01    1.910000e+00
 SP1dr TX3er  1 3.650000e-01    1.910000e+00
 SP1dr TX2er  1 3.650000e-01    1.750000e+00
 SP1dr TX1er  1 3.660000e-01    1.600000e+00
 SN6dr TC6vr  1 3.650000e-01    1.750000e+00
 SN6dr TC5vr  1 3.660000e-01    1.600000e+00
 SN6dr TC4vr  1 3.780000e-01    1.450000e+00
 SN6dr TC3vr  1 3.940000e-01    1.290000e+00
 SN6dr TC2vr  1 3.940000e-01    1.290000e+00
 SN6dr TC1vr  1 4.040000e-01    1.130000e+00
 SN6dr TX4vr  1 3.650000e-01    1.750000e+00
 SN6dr TX3vr  1 3.660000e-01    1.600000e+00
 SN6dr TX2vr  1 3.780000e-01    1.450000e+00
 SN6dr TX1vr  1 3.940000e-01    1.290000e+00
 SN6dr TC6er  1 3.650000e-01    2.110000e+00
 SN6dr TC5er  1 3.650000e-01    1.910000e+00
 SN6dr TC4er  1 3.650000e-01    1.750000e+00
 SN6dr TC3er  1 3.660000e-01    1.600000e+00
 SN6dr TC2er  1 3.660000e-01    1.600000e+00
 SN6dr TC1er  1 3.780000e-01    1.450000e+00
 SN6dr TX4er  1 3.650000e-01    2.110000e+00
 SN6dr TX3er  1 3.650000e-01    1.910000e+00
 SN6dr TX2er  1 3.650000e-01    1.750000e+00
 SN6dr TX1er  1 3.660000e-01    1.600000e+00
 SN5dr TC6vr  1 3.650000e-01    1.750000e+00
 SN5dr TC5vr  1 3.660000e-01    1.600000e+00
 SN5dr TC4vr  1 3.780000e-01    1.450000e+00
 SN5dr TC3vr  1 3.780000e-01    1.450000e+00
 SN5dr TC2vr  1 3.940000e-01    1.290000e+00
 SN5dr TC1vr  1 4.040000e-01    1.130000e+00
 SN5dr TX4vr  1 3.650000e-01    1.910000e+00
 SN5dr TX3vr  1 3.650000e-01    1.750000e+00
 SN5dr TX2vr  1 3.660000e-01    1.600000e+00
 SN5dr TX1vr  1 3.780000e-01    1.450000e+00
 SN5dr TC6er  1 3.650000e-01    2.110000e+00
 SN5dr TC5er  1 3.650000e-01    1.910000e+00
 SN5dr TC4er  1 3.650000e-01    1.750000e+00
 SN5dr TC3er  1 3.650000e-01    1.750000e+00
 SN5dr TC2er  1 3.660000e-01    1.600000e+00
 SN5dr TC1er  1 3.780000e-01    1.450000e+00
 SN5dr TX4er  1 3.650000e-01    2.340000e+00
 SN5dr TX3er  1 3.650000e-01    2.110000e+00
 SN5dr TX2er  1 3.650000e-01    1.910000e+00
 SN5dr TX1er  1 3.650000e-01    1.750000e+00
 SN4dr TC6vr  1 3.650000e-01    1.750000e+00
 SN4dr TC5vr  1 3.660000e-01    1.600000e+00
 SN4dr TC4vr  1 3.660000e-01    1.600000e+00
 SN4dr TC3vr  1 3.780000e-01    1.450000e+00
 SN4dr TC2vr  1 3.940000e-01    1.290000e+00
 SN4dr TC1vr  1 4.040000e-01    1.130000e+00
 SN4dr TX4vr  1 3.650000e-01    2.110000e+00
 SN4dr TX3vr  1 3.650000e-01    1.910000e+00
 SN4dr TX2vr  1 3.660000e-01    1.600000e+00
 SN4dr TX1vr  1 3.780000e-01    1.450000e+00
 SN4dr TC6er  1 3.650000e-01    2.110000e+00
 SN4dr TC5er  1 3.650000e-01    1.910000e+00
 SN4dr TC4er  1 3.650000e-01    1.910000e+00
 SN4dr TC3er  1 3.650000e-01    1.750000e+00
 SN4dr TC2er  1 3.660000e-01    1.600000e+00
 SN4dr TC1er  1 3.780000e-01    1.450000e+00
 SN4dr TX4er  1 3.650000e-01    2.570000e+00
 SN4dr TX3er  1 3.650000e-01    2.340000e+00
 SN4dr TX2er  1 3.650000e-01    1.910000e+00
 SN4dr TX1er  1 3.650000e-01    1.750000e+00
 SN3dr TC6vr  1 3.650000e-01    1.750000e+00
 SN3dr TC5vr  1 3.660000e-01    1.600000e+00
 SN3dr TC4vr  1 3.660000e-01    1.600000e+00
 SN3dr TC3vr  1 3.780000e-01    1.450000e+00
 SN3dr TC2vr  1 3.780000e-01    1.450000e+00
 SN3dr TC1vr  1 3.940000e-01    1.290000e+00
 SN3dr TX4vr  1 3.650000e-01    1.910000e+00
 SN3dr TX3vr  1 3.650000e-01    1.750000e+00
 SN3dr TX2vr  1 3.660000e-01    1.600000e+00
 SN3dr TX1vr  1 3.660000e-01    1.600000e+00
 SN3dr TC6er  1 3.650000e-01    2.110000e+00
 SN3dr TC5er  1 3.650000e-01    1.910000e+00
 SN3dr TC4er  1 3.650000e-01    1.910000e+00
 SN3dr TC3er  1 3.650000e-01    1.750000e+00
 SN3dr TC2er  1 3.650000e-01    1.750000e+00
 SN3dr TC1er  1 3.660000e-01    1.600000e+00
 SN3dr TX4er  1 3.650000e-01    2.340000e+00
 SN3dr TX3er  1 3.650000e-01    2.110000e+00
 SN3dr TX2er  1 3.650000e-01    1.910000e+00
 SN3dr TX1er  1 3.650000e-01    1.910000e+00
 SN2dr TC6vr  1 3.650000e-01    1.750000e+00
 SN2dr TC5vr  1 3.660000e-01    1.600000e+00
 SN2dr TC4vr  1 3.660000e-01    1.600000e+00
 SN2dr TC3vr  1 3.660000e-01    1.600000e+00
 SN2dr TC2vr  1 3.780000e-01    1.450000e+00
 SN2dr TC1vr  1 3.940000e-01    1.290000e+00
 SN2dr TX4vr  1 3.650000e-01    1.910000e+00
 SN2dr TX3vr  1 3.650000e-01    1.750000e+00
 SN2dr TX2vr  1 3.660000e-01    1.600000e+00
 SN2dr TX1vr  1 3.660000e-01    1.600000e+00
 SN2dr TC6er  1 3.650000e-01    2.110000e+00
 SN2dr TC5er  1 3.650000e-01    1.910000e+00
 SN2dr TC4er  1 3.650000e-01    1.910000e+00
 SN2dr TC3er  1 3.650000e-01    1.910000e+00
 SN2dr TC2er  1 3.650000e-01    1.750000e+00
 SN2dr TC1er  1 3.660000e-01    1.600000e+00
 SN2dr TX4er  1 3.650000e-01    2.340000e+00
 SN2dr TX3er  1 3.650000e-01    2.110000e+00
 SN2dr TX2er  1 3.650000e-01    1.910000e+00
 SN2dr TX1er  1 3.650000e-01    1.910000e+00
 SN1dr TC6vr  1 3.650000e-01    1.910000e+00
 SN1dr TC5vr  1 3.650000e-01    1.750000e+00
 SN1dr TC4vr  1 3.650000e-01    1.750000e+00
 SN1dr TC3vr  1 3.660000e-01    1.600000e+00
 SN1dr TC2vr  1 3.780000e-01    1.450000e+00
 SN1dr TC1vr  1 3.940000e-01    1.290000e+00
 SN1dr TX4vr  1 3.650000e-01    1.750000e+00
 SN1dr TX3vr  1 3.650000e-01    1.750000e+00
 SN1dr TX2vr  1 3.660000e-01    1.600000e+00
 SN1dr TX1vr  1 3.660000e-01    1.600000e+00
 SN1dr TC6er  1 3.650000e-01    2.340000e+00
 SN1dr TC5er  1 3.650000e-01    2.110000e+00
 SN1dr TC4er  1 3.650000e-01    2.110000e+00
 SN1dr TC3er  1 3.650000e-01    1.910000e+00
 SN1dr TC2er  1 3.650000e-01    1.750000e+00
 SN1dr TC1er  1 3.660000e-01    1.600000e+00
 SN1dr TX4er  1 3.650000e-01    2.110000e+00
 SN1dr TX3er  1 3.650000e-01    2.110000e+00
 SN1dr TX2er  1 3.650000e-01    1.910000e+00
 SN1dr TX1er  1 3.650000e-01    1.910000e+00
 SP6ar TC6vr  1 3.660000e-01    1.600000e+00
 SP6ar TC5vr  1 3.780000e-01    1.450000e+00
 SP6ar TC4vr  1 3.940000e-01    1.290000e+00
 SP6ar TC3vr  1 4.040000e-01    1.130000e+00
 SP6ar TC2vr  1 4.040000e-01    1.130000e+00
 SP6ar TC1vr  1 4.230000e-01    9.810000e-01
 SP6ar TX4vr  1 3.650000e-01    1.750000e+00
 SP6ar TX3vr  1 3.650000e-01    1.750000e+00
 SP6ar TX2vr  1 3.660000e-01    1.600000e+00
 SP6ar TX1vr  1 3.780000e-01    1.450000e+00
 SP6ar TC6er  1 3.940000e-01    1.290000e+00
 SP6ar TC5er  1 4.040000e-01    1.130000e+00
 SP6ar TC4er  1 4.090000e-01    1.080000e+00
 SP6ar TC3er  1 4.230000e-01    9.810000e-01
 SP6ar TC2er  1 4.230000e-01    9.810000e-01
 SP6ar TC1er  1 5.370000e-01    8.080000e-01
 SP6ar TX4er  1 3.780000e-01    1.450000e+00
 SP6ar TX3er  1 3.780000e-01    1.450000e+00
 SP6ar TX2er  1 3.940000e-01    1.290000e+00
 SP6ar TX1er  1 4.040000e-01    1.130000e+00
 SP5ar TC6vr  1 3.660000e-01    1.600000e+00
 SP5ar TC5vr  1 3.660000e-01    1.600000e+00
 SP5ar TC4vr  1 3.780000e-01    1.450000e+00
 SP5ar TC3vr  1 3.940000e-01    1.290000e+00
 SP5ar TC2vr  1 3.940000e-01    1.290000e+00
 SP5ar TC1vr  1 4.040000e-01    1.130000e+00
 SP5ar TX4vr  1 3.650000e-01    1.910000e+00
 SP5ar TX3vr  1 3.650000e-01    1.750000e+00
 SP5ar TX2vr  1 3.650000e-01    1.750000e+00
 SP5ar TX1vr  1 3.780000e-01    1.450000e+00
 SP5ar TC6er  1 3.940000e-01    1.290000e+00
 SP5ar TC5er  1 3.940000e-01    1.290000e+00
 SP5ar TC4er  1 4.040000e-01    1.130000e+00
 SP5ar TC3er  1 4.090000e-01    1.080000e+00
 SP5ar TC2er  1 4.090000e-01    1.080000e+00
 SP5ar TC1er  1 4.230000e-01    9.810000e-01
 SP5ar TX4er  1 3.660000e-01    1.600000e+00
 SP5ar TX3er  1 3.780000e-01    1.450000e+00
 SP5ar TX2er  1 3.780000e-01    1.450000e+00
 SP5ar TX1er  1 4.040000e-01    1.130000e+00
 SP4ar TC6vr  1 3.650000e-01    1.750000e+00
 SP4ar TC5vr  1 3.660000e-01    1.600000e+00
 SP4ar TC4vr  1 3.780000e-01    1.450000e+00
 SP4ar TC3vr  1 3.940000e-01    1.290000e+00
 SP4ar TC2vr  1 3.940000e-01    1.290000e+00
 SP4ar TC1vr  1 4.040000e-01    1.130000e+00
 SP4ar TX4vr  1 3.650000e-01    1.910000e+00
 SP4ar TX3vr  1 3.650000e-01    1.750000e+00
 SP4ar TX2vr  1 3.650000e-01    1.750000e+00
 SP4ar TX1vr  1 3.660000e-01    1.600000e+00
 SP4ar TC6er  1 3.780000e-01    1.450000e+00
 SP4ar TC5er  1 3.940000e-01    1.290000e+00
 SP4ar TC4er  1 4.040000e-01    1.130000e+00
 SP4ar TC3er  1 4.090000e-01    1.080000e+00
 SP4ar TC2er  1 4.090000e-01    1.080000e+00
 SP4ar TC1er  1 4.230000e-01    9.810000e-01
 SP4ar TX4er  1 3.660000e-01    1.600000e+00
 SP4ar TX3er  1 3.780000e-01    1.450000e+00
 SP4ar TX2er  1 3.780000e-01    1.450000e+00
 SP4ar TX1er  1 3.940000e-01    1.290000e+00
 SP3ar TC6vr  1 3.650000e-01    1.910000e+00
 SP3ar TC5vr  1 3.650000e-01    1.750000e+00
 SP3ar TC4vr  1 3.660000e-01    1.600000e+00
 SP3ar TC3vr  1 3.940000e-01    1.290000e+00
 SP3ar TC2vr  1 3.940000e-01    1.290000e+00
 SP3ar TC1vr  1 4.040000e-01    1.130000e+00
 SP3ar TX4vr  1 3.650000e-01    1.910000e+00
 SP3ar TX3vr  1 3.650000e-01    1.910000e+00
 SP3ar TX2vr  1 3.650000e-01    1.750000e+00
 SP3ar TX1vr  1 3.660000e-01    1.600000e+00
 SP3ar TC6er  1 3.660000e-01    1.600000e+00
 SP3ar TC5er  1 3.780000e-01    1.450000e+00
 SP3ar TC4er  1 3.940000e-01    1.290000e+00
 SP3ar TC3er  1 4.090000e-01    1.080000e+00
 SP3ar TC2er  1 4.090000e-01    1.080000e+00
 SP3ar TC1er  1 4.230000e-01    9.810000e-01
 SP3ar TX4er  1 3.660000e-01    1.600000e+00
 SP3ar TX3er  1 3.660000e-01    1.600000e+00
 SP3ar TX2er  1 3.780000e-01    1.450000e+00
 SP3ar TX1er  1 3.940000e-01    1.290000e+00
 SP2ar TC6vr  1 3.650000e-01    1.910000e+00
 SP2ar TC5vr  1 3.650000e-01    1.750000e+00
 SP2ar TC4vr  1 3.660000e-01    1.600000e+00
 SP2ar TC3vr  1 3.780000e-01    1.450000e+00
 SP2ar TC2vr  1 3.780000e-01    1.450000e+00
 SP2ar TC1vr  1 3.940000e-01    1.290000e+00
 SP2ar TX4vr  1 3.650000e-01    1.910000e+00
 SP2ar TX3vr  1 3.650000e-01    1.910000e+00
 SP2ar TX2vr  1 3.650000e-01    1.750000e+00
 SP2ar TX1vr  1 3.660000e-01    1.600000e+00
 SP2ar TC6er  1 3.660000e-01    1.600000e+00
 SP2ar TC5er  1 3.780000e-01    1.450000e+00
 SP2ar TC4er  1 3.940000e-01    1.290000e+00
 SP2ar TC3er  1 4.040000e-01    1.130000e+00
 SP2ar TC2er  1 4.040000e-01    1.130000e+00
 SP2ar TC1er  1 4.090000e-01    1.080000e+00
 SP2ar TX4er  1 3.660000e-01    1.600000e+00
 SP2ar TX3er  1 3.660000e-01    1.600000e+00
 SP2ar TX2er  1 3.780000e-01    1.450000e+00
 SP2ar TX1er  1 3.940000e-01    1.290000e+00
 SP1ar TC6vr  1 3.650000e-01    1.910000e+00
 SP1ar TC5vr  1 3.650000e-01    1.750000e+00
 SP1ar TC4vr  1 3.660000e-01    1.600000e+00
 SP1ar TC3vr  1 3.780000e-01    1.450000e+00
 SP1ar TC2vr  1 3.780000e-01    1.450000e+00
 SP1ar TC1vr  1 3.940000e-01    1.290000e+00
 SP1ar TX4vr  1 3.650000e-01    1.910000e+00
 SP1ar TX3vr  1 3.650000e-01    1.910000e+00
 SP1ar TX2vr  1 3.650000e-01    1.750000e+00
 SP1ar TX1vr  1 3.660000e-01    1.600000e+00
 SP1ar TC6er  1 3.660000e-01    1.600000e+00
 SP1ar TC5er  1 3.780000e-01    1.450000e+00
 SP1ar TC4er  1 3.940000e-01    1.290000e+00
 SP1ar TC3er  1 4.040000e-01    1.130000e+00
 SP1ar TC2er  1 4.040000e-01    1.130000e+00
 SP1ar TC1er  1 4.090000e-01    1.080000e+00
 SP1ar TX4er  1 3.660000e-01    1.600000e+00
 SP1ar TX3er  1 3.660000e-01    1.600000e+00
 SP1ar TX2er  1 3.780000e-01    1.450000e+00
 SP1ar TX1er  1 3.940000e-01    1.290000e+00
 SN6ar TC6vr  1 3.650000e-01    2.110000e+00
 SN6ar TC5vr  1 3.650000e-01    1.910000e+00
 SN6ar TC4vr  1 3.650000e-01    1.750000e+00
 SN6ar TC3vr  1 3.660000e-01    1.600000e+00
 SN6ar TC2vr  1 3.660000e-01    1.600000e+00
 SN6ar TC1vr  1 3.780000e-01    1.450000e+00
 SN6ar TX4vr  1 3.650000e-01    2.110000e+00
 SN6ar TX3vr  1 3.650000e-01    1.910000e+00
 SN6ar TX2vr  1 3.650000e-01    1.750000e+00
 SN6ar TX1vr  1 3.660000e-01    1.600000e+00
 SN6ar TC6er  1 3.650000e-01    1.750000e+00
 SN6ar TC5er  1 3.660000e-01    1.600000e+00
 SN6ar TC4er  1 3.780000e-01    1.450000e+00
 SN6ar TC3er  1 3.940000e-01    1.290000e+00
 SN6ar TC2er  1 3.940000e-01    1.290000e+00
 SN6ar TC1er  1 4.040000e-01    1.130000e+00
 SN6ar TX4er  1 3.650000e-01    1.750000e+00
 SN6ar TX3er  1 3.660000e-01    1.600000e+00
 SN6ar TX2er  1 3.780000e-01    1.450000e+00
 SN6ar TX1er  1 3.940000e-01    1.290000e+00
 SN5ar TC6vr  1 3.650000e-01    2.110000e+00
 SN5ar TC5vr  1 3.650000e-01    1.910000e+00
 SN5ar TC4vr  1 3.650000e-01    1.750000e+00
 SN5ar TC3vr  1 3.650000e-01    1.750000e+00
 SN5ar TC2vr  1 3.660000e-01    1.600000e+00
 SN5ar TC1vr  1 3.780000e-01    1.450000e+00
 SN5ar TX4vr  1 3.650000e-01    2.340000e+00
 SN5ar TX3vr  1 3.650000e-01    2.110000e+00
 SN5ar TX2vr  1 3.650000e-01    1.910000e+00
 SN5ar TX1vr  1 3.650000e-01    1.750000e+00
 SN5ar TC6er  1 3.650000e-01    1.750000e+00
 SN5ar TC5er  1 3.660000e-01    1.600000e+00
 SN5ar TC4er  1 3.780000e-01    1.450000e+00
 SN5ar TC3er  1 3.780000e-01    1.450000e+00
 SN5ar TC2er  1 3.940000e-01    1.290000e+00
 SN5ar TC1er  1 4.040000e-01    1.130000e+00
 SN5ar TX4er  1 3.650000e-01    1.910000e+00
 SN5ar TX3er  1 3.650000e-01    1.750000e+00
 SN5ar TX2er  1 3.660000e-01    1.600000e+00
 SN5ar TX1er  1 3.780000e-01    1.450000e+00
 SN4ar TC6vr  1 3.650000e-01    2.110000e+00
 SN4ar TC5vr  1 3.650000e-01    1.910000e+00
 SN4ar TC4vr  1 3.650000e-01    1.910000e+00
 SN4ar TC3vr  1 3.650000e-01    1.750000e+00
 SN4ar TC2vr  1 3.660000e-01    1.600000e+00
 SN4ar TC1vr  1 3.780000e-01    1.450000e+00
 SN4ar TX4vr  1 3.650000e-01    2.570000e+00
 SN4ar TX3vr  1 3.650000e-01    2.340000e+00
 SN4ar TX2vr  1 3.650000e-01    1.910000e+00
 SN4ar TX1vr  1 3.650000e-01    1.750000e+00
 SN4ar TC6er  1 3.650000e-01    1.750000e+00
 SN4ar TC5er  1 3.660000e-01    1.600000e+00
 SN4ar TC4er  1 3.660000e-01    1.600000e+00
 SN4ar TC3er  1 3.780000e-01    1.450000e+00
 SN4ar TC2er  1 3.940000e-01    1.290000e+00
 SN4ar TC1er  1 4.040000e-01    1.130000e+00
 SN4ar TX4er  1 3.650000e-01    2.110000e+00
 SN4ar TX3er  1 3.650000e-01    1.910000e+00
 SN4ar TX2er  1 3.660000e-01    1.600000e+00
 SN4ar TX1er  1 3.780000e-01    1.450000e+00
 SN3ar TC6vr  1 3.650000e-01    2.110000e+00
 SN3ar TC5vr  1 3.650000e-01    1.910000e+00
 SN3ar TC4vr  1 3.650000e-01    1.910000e+00
 SN3ar TC3vr  1 3.650000e-01    1.750000e+00
 SN3ar TC2vr  1 3.650000e-01    1.750000e+00
 SN3ar TC1vr  1 3.660000e-01    1.600000e+00
 SN3ar TX4vr  1 3.650000e-01    2.340000e+00
 SN3ar TX3vr  1 3.650000e-01    2.110000e+00
 SN3ar TX2vr  1 3.650000e-01    1.910000e+00
 SN3ar TX1vr  1 3.650000e-01    1.910000e+00
 SN3ar TC6er  1 3.650000e-01    1.750000e+00
 SN3ar TC5er  1 3.660000e-01    1.600000e+00
 SN3ar TC4er  1 3.660000e-01    1.600000e+00
 SN3ar TC3er  1 3.780000e-01    1.450000e+00
 SN3ar TC2er  1 3.780000e-01    1.450000e+00
 SN3ar TC1er  1 3.940000e-01    1.290000e+00
 SN3ar TX4er  1 3.650000e-01    1.910000e+00
 SN3ar TX3er  1 3.650000e-01    1.750000e+00
 SN3ar TX2er  1 3.660000e-01    1.600000e+00
 SN3ar TX1er  1 3.660000e-01    1.600000e+00
 SN2ar TC6vr  1 3.650000e-01    2.110000e+00
 SN2ar TC5vr  1 3.650000e-01    1.910000e+00
 SN2ar TC4vr  1 3.650000e-01    1.910000e+00
 SN2ar TC3vr  1 3.650000e-01    1.910000e+00
 SN2ar TC2vr  1 3.650000e-01    1.750000e+00
 SN2ar TC1vr  1 3.660000e-01    1.600000e+00
 SN2ar TX4vr  1 3.650000e-01    2.340000e+00
 SN2ar TX3vr  1 3.650000e-01    2.110000e+00
 SN2ar TX2vr  1 3.650000e-01    1.910000e+00
 SN2ar TX1vr  1 3.650000e-01    1.910000e+00
 SN2ar TC6er  1 3.650000e-01    1.750000e+00
 SN2ar TC5er  1 3.660000e-01    1.600000e+00
 SN2ar TC4er  1 3.660000e-01    1.600000e+00
 SN2ar TC3er  1 3.660000e-01    1.600000e+00
 SN2ar TC2er  1 3.780000e-01    1.450000e+00
 SN2ar TC1er  1 3.940000e-01    1.290000e+00
 SN2ar TX4er  1 3.650000e-01    1.910000e+00
 SN2ar TX3er  1 3.650000e-01    1.750000e+00
 SN2ar TX2er  1 3.660000e-01    1.600000e+00
 SN2ar TX1er  1 3.660000e-01    1.600000e+00
 SN1ar TC6vr  1 3.650000e-01    2.340000e+00
 SN1ar TC5vr  1 3.650000e-01    2.110000e+00
 SN1ar TC4vr  1 3.650000e-01    2.110000e+00
 SN1ar TC3vr  1 3.650000e-01    1.910000e+00
 SN1ar TC2vr  1 3.650000e-01    1.750000e+00
 SN1ar TC1vr  1 3.660000e-01    1.600000e+00
 SN1ar TX4vr  1 3.650000e-01    2.110000e+00
 SN1ar TX3vr  1 3.650000e-01    2.110000e+00
 SN1ar TX2vr  1 3.650000e-01    1.910000e+00
 SN1ar TX1vr  1 3.650000e-01    1.910000e+00
 SN1ar TC6er  1 3.650000e-01    1.910000e+00
 SN1ar TC5er  1 3.650000e-01    1.750000e+00
 SN1ar TC4er  1 3.650000e-01    1.750000e+00
 SN1ar TC3er  1 3.660000e-01    1.600000e+00
 SN1ar TC2er  1 3.780000e-01    1.450000e+00
 SN1ar TC1er  1 3.940000e-01    1.290000e+00
 SN1ar TX4er  1 3.650000e-01    1.750000e+00
 SN1ar TX3er  1 3.650000e-01    1.750000e+00
 SN1ar TX2er  1 3.660000e-01    1.600000e+00
 SN1ar TX1er  1 3.660000e-01    1.600000e+00
  SP6h  TP6h  1 3.650000e-01    4.220000e+00
  SP5h  TP5h  1 3.650000e-01    3.640000e+00
  SP4h  TP4h  1 3.650000e-01    3.370000e+00
  SP3h  TP3h  1 3.650000e-01    3.100000e+00
  SP2h  TP2h  1 3.650000e-01    3.100000e+00
  SP1h  TP1h  1 3.650000e-01    2.830000e+00
  SN6h  TN6h  1 3.650000e-01    2.830000e+00
  SN5h  TN5h  1 3.650000e-01    2.570000e+00
  SN4h  TN4h  1 3.650000e-01    2.570000e+00
  SN3h  TN3h  1 3.650000e-01    2.340000e+00
  SN2h  TN2h  1 3.650000e-01    2.340000e+00
  SN1h  TN1h  1 3.650000e-01    2.340000e+00
 SP6dh TP6dh  1 3.650000e-01    3.930000e+00
 SP5dh TP5dh  1 3.650000e-01    3.370000e+00
 SP4dh TP4dh  1 3.650000e-01    3.100000e+00
 SP3dh TP3dh  1 3.650000e-01    2.830000e+00
 SP2dh TP2dh  1 3.650000e-01    2.830000e+00
 SP1dh TP1dh  1 3.650000e-01    2.570000e+00
 SN6dh TN6dh  1 3.650000e-01    2.570000e+00
 SN5dh TN5dh  1 3.650000e-01    2.340000e+00
 SN4dh TN4dh  1 3.650000e-01    2.340000e+00
 SN3dh TN3dh  1 3.650000e-01    2.110000e+00
 SN2dh TN2dh  1 3.650000e-01    2.110000e+00
 SN1dh TN1dh  1 3.650000e-01    2.110000e+00
 SP6ah TP6ah  1 3.650000e-01    3.930000e+00
 SP5ah TP5ah  1 3.650000e-01    3.370000e+00
 SP4ah TP4ah  1 3.650000e-01    3.100000e+00
 SP3ah TP3ah  1 3.650000e-01    2.830000e+00
 SP2ah TP2ah  1 3.650000e-01    2.830000e+00
 SP1ah TP1ah  1 3.650000e-01    2.570000e+00
 SN6ah TN6ah  1 3.650000e-01    2.570000e+00
 SN5ah TN5ah  1 3.650000e-01    2.340000e+00
 SN4ah TN4ah  1 3.650000e-01    2.340000e+00
 SN3ah TN3ah  1 3.650000e-01    2.110000e+00
 SN2ah TN2ah  1 3.650000e-01    2.110000e+00
 SN1ah TN1ah  1 3.650000e-01    2.110000e+00
  SP6h  TP5h  1 3.650000e-01    3.930000e+00
  SP6h  TP4h  1 3.650000e-01    3.640000e+00
  SP6h  TP3h  1 3.650000e-01    3.370000e+00
  SP6h  TP2h  1 3.650000e-01    3.370000e+00
  SP6h  TP1h  1 3.650000e-01    3.100000e+00
  SP6h  TN6h  1 3.650000e-01    2.830000e+00
  SP6h  TN5h  1 3.650000e-01    2.340000e+00
  SP6h  TN4h  1 3.650000e-01    2.110000e+00
  SP6h  TN3h  1 3.650000e-01    1.910000e+00
  SP6h  TN2h  1 3.650000e-01    1.750000e+00
  SP6h  TN1h  1 3.660000e-01    1.600000e+00
  SP5h  TP4h  1 3.650000e-01    3.370000e+00
  SP5h  TP3h  1 3.650000e-01    3.100000e+00
  SP5h  TP2h  1 3.650000e-01    3.100000e+00
  SP5h  TP1h  1 3.650000e-01    2.830000e+00
  SP5h  TN6h  1 3.650000e-01    2.570000e+00
  SP5h  TN5h  1 3.650000e-01    2.340000e+00
  SP5h  TN4h  1 3.650000e-01    2.340000e+00
  SP5h  TN3h  1 3.650000e-01    1.910000e+00
  SP5h  TN2h  1 3.650000e-01    1.750000e+00
  SP5h  TN1h  1 3.660000e-01    1.600000e+00
  SP4h  TP3h  1 3.650000e-01    3.100000e+00
  SP4h  TP2h  1 3.650000e-01    3.100000e+00
  SP4h  TP1h  1 3.650000e-01    2.830000e+00
  SP4h  TN6h  1 3.650000e-01    2.570000e+00
  SP4h  TN5h  1 3.650000e-01    2.340000e+00
  SP4h  TN4h  1 3.650000e-01    2.340000e+00
  SP4h  TN3h  1 3.650000e-01    2.110000e+00
  SP4h  TN2h  1 3.650000e-01    1.910000e+00
  SP4h  TN1h  1 3.650000e-01    1.750000e+00
  SP3h  TP2h  1 3.650000e-01    3.100000e+00
  SP3h  TP1h  1 3.650000e-01    2.830000e+00
  SP3h  TN6h  1 3.650000e-01    2.570000e+00
  SP3h  TN5h  1 3.650000e-01    2.340000e+00
  SP3h  TN4h  1 3.650000e-01    2.340000e+00
  SP3h  TN3h  1 3.650000e-01    2.110000e+00
  SP3h  TN2h  1 3.650000e-01    2.110000e+00
  SP3h  TN1h  1 3.650000e-01    1.910000e+00
  SP2h  TP1h  1 3.650000e-01    2.830000e+00
  SP2h  TN6h  1 3.650000e-01    2.830000e+00
  SP2h  TN5h  1 3.650000e-01    2.570000e+00
  SP2h  TN4h  1 3.650000e-01    2.340000e+00
  SP2h  TN3h  1 3.650000e-01    2.110000e+00
  SP2h  TN2h  1 3.650000e-01    2.110000e+00
  SP2h  TN1h  1 3.650000e-01    2.110000e+00
  SP1h  TN6h  1 3.650000e-01    2.830000e+00
  SP1h  TN5h  1 3.650000e-01    2.570000e+00
  SP1h  TN4h  1 3.650000e-01    2.570000e+00
  SP1h  TN3h  1 3.650000e-01    2.110000e+00
  SP1h  TN2h  1 3.650000e-01    2.110000e+00
  SP1h  TN1h  1 3.650000e-01    2.110000e+00
  SN6h  TN5h  1 3.650000e-01    2.830000e+00
  SN6h  TN4h  1 3.650000e-01    2.830000e+00
  SN6h  TN3h  1 3.650000e-01    2.340000e+00
  SN6h  TN2h  1 3.650000e-01    2.110000e+00
  SN6h  TN1h  1 3.650000e-01    2.110000e+00
  SN5h  TN4h  1 3.650000e-01    2.570000e+00
  SN5h  TN3h  1 3.650000e-01    2.340000e+00
  SN5h  TN2h  1 3.650000e-01    2.340000e+00
  SN5h  TN1h  1 3.650000e-01    2.110000e+00
  SN4h  TN3h  1 3.650000e-01    2.340000e+00
  SN4h  TN2h  1 3.650000e-01    2.340000e+00
  SN4h  TN1h  1 3.650000e-01    2.110000e+00
  SN3h  TN2h  1 3.650000e-01    2.340000e+00
  SN3h  TN1h  1 3.650000e-01    2.110000e+00
  SN2h  TN1h  1 3.650000e-01    2.110000e+00
 SP6dh TP5dh  1 3.650000e-01    3.640000e+00
 SP6dh TP4dh  1 3.650000e-01    3.370000e+00
 SP6dh TP3dh  1 3.650000e-01    3.100000e+00
 SP6dh TP2dh  1 3.650000e-01    3.100000e+00
 SP6dh TP1dh  1 3.650000e-01    2.830000e+00
 SP6dh TN6dh  1 3.650000e-01    2.570000e+00
 SP6dh TN5dh  1 3.650000e-01    2.110000e+00
 SP6dh TN4dh  1 3.650000e-01    1.910000e+00
 SP6dh TN3dh  1 3.650000e-01    1.910000e+00
 SP6dh TN2dh  1 3.650000e-01    1.750000e+00
 SP6dh TN1dh  1 3.660000e-01    1.600000e+00
 SP6dh TP6ah  1 3.650000e-01    4.510000e+00
 SP6dh TP5ah  1 3.650000e-01    4.220000e+00
 SP6dh TP4ah  1 3.650000e-01    3.930000e+00
 SP6dh TP3ah  1 3.650000e-01    3.640000e+00
 SP6dh TP2ah  1 3.650000e-01    3.640000e+00
 SP6dh TP1ah  1 3.650000e-01    3.370000e+00
 SP6dh TN6ah  1 3.650000e-01    3.100000e+00
 SP6dh TN5ah  1 3.650000e-01    2.570000e+00
 SP6dh TN4ah  1 3.650000e-01    2.340000e+00
 SP6dh TN3ah  1 3.650000e-01    1.910000e+00
 SP6dh TN2ah  1 3.650000e-01    1.750000e+00
 SP6dh TN1ah  1 3.660000e-01    1.600000e+00
 SP5dh TP4dh  1 3.650000e-01    3.100000e+00
 SP5dh TP3dh  1 3.650000e-01    2.830000e+00
 SP5dh TP2dh  1 3.650000e-01    2.830000e+00
 SP5dh TP1dh  1 3.650000e-01    2.570000e+00
 SP5dh TN6dh  1 3.650000e-01    2.340000e+00
 SP5dh TN5dh  1 3.650000e-01    2.110000e+00
 SP5dh TN4dh  1 3.650000e-01    2.110000e+00
 SP5dh TN3dh  1 3.650000e-01    1.910000e+00
 SP5dh TN2dh  1 3.650000e-01    1.750000e+00
 SP5dh TN1dh  1 3.660000e-01    1.600000e+00
 SP5dh TP5ah  1 3.650000e-01    3.930000e+00
 SP5dh TP4ah  1 3.650000e-01    3.640000e+00
 SP5dh TP3ah  1 3.650000e-01    3.370000e+00
 SP5dh TP2ah  1 3.650000e-01    3.370000e+00
 SP5dh TP1ah  1 3.650000e-01    3.100000e+00
 SP5dh TN6ah  1 3.650000e-01    2.830000e+00
 SP5dh TN5ah  1 3.650000e-01    2.570000e+00
 SP5dh TN4ah  1 3.650000e-01    2.570000e+00
 SP5dh TN3ah  1 3.650000e-01    1.910000e+00
 SP5dh TN2ah  1 3.650000e-01    1.750000e+00
 SP5dh TN1ah  1 3.660000e-01    1.600000e+00
 SP4dh TP3dh  1 3.650000e-01    2.830000e+00
 SP4dh TP2dh  1 3.650000e-01    2.830000e+00
 SP4dh TP1dh  1 3.650000e-01    2.570000e+00
 SP4dh TN6dh  1 3.650000e-01    2.340000e+00
 SP4dh TN5dh  1 3.650000e-01    2.110000e+00
 SP4dh TN4dh  1 3.650000e-01    2.110000e+00
 SP4dh TN3dh  1 3.650000e-01    1.910000e+00
 SP4dh TN2dh  1 3.650000e-01    1.910000e+00
 SP4dh TN1dh  1 3.650000e-01    1.750000e+00
 SP4dh TP4ah  1 3.650000e-01    3.640000e+00
 SP4dh TP3ah  1 3.650000e-01    3.370000e+00
 SP4dh TP2ah  1 3.650000e-01    3.370000e+00
 SP4dh TP1ah  1 3.650000e-01    3.100000e+00
 SP4dh TN6ah  1 3.650000e-01    2.830000e+00
 SP4dh TN5ah  1 3.650000e-01    2.570000e+00
 SP4dh TN4ah  1 3.650000e-01    2.570000e+00
 SP4dh TN3ah  1 3.650000e-01    2.340000e+00
 SP4dh TN2ah  1 3.650000e-01    1.910000e+00
 SP4dh TN1ah  1 3.650000e-01    1.750000e+00
 SP3dh TP2dh  1 3.650000e-01    2.830000e+00
 SP3dh TP1dh  1 3.650000e-01    2.570000e+00
 SP3dh TN6dh  1 3.650000e-01    2.340000e+00
 SP3dh TN5dh  1 3.650000e-01    2.110000e+00
 SP3dh TN4dh  1 3.650000e-01    2.110000e+00
 SP3dh TN3dh  1 3.650000e-01    1.910000e+00
 SP3dh TN2dh  1 3.650000e-01    1.910000e+00
 SP3dh TN1dh  1 3.650000e-01    1.910000e+00
 SP3dh TP3ah  1 3.650000e-01    3.370000e+00
 SP3dh TP2ah  1 3.650000e-01    3.370000e+00
 SP3dh TP1ah  1 3.650000e-01    3.100000e+00
 SP3dh TN6ah  1 3.650000e-01    2.830000e+00
 SP3dh TN5ah  1 3.650000e-01    2.570000e+00
 SP3dh TN4ah  1 3.650000e-01    2.570000e+00
 SP3dh TN3ah  1 3.650000e-01    2.340000e+00
 SP3dh TN2ah  1 3.650000e-01    2.340000e+00
 SP3dh TN1ah  1 3.650000e-01    1.910000e+00
 SP2dh TP1dh  1 3.650000e-01    2.570000e+00
 SP2dh TN6dh  1 3.650000e-01    2.570000e+00
 SP2dh TN5dh  1 3.650000e-01    2.340000e+00
 SP2dh TN4dh  1 3.650000e-01    2.110000e+00
 SP2dh TN3dh  1 3.650000e-01    1.910000e+00
 SP2dh TN2dh  1 3.650000e-01    1.910000e+00
 SP2dh TN1dh  1 3.650000e-01    1.910000e+00
 SP2dh TP2ah  1 3.650000e-01    3.370000e+00
 SP2dh TP1ah  1 3.650000e-01    3.100000e+00
 SP2dh TN6ah  1 3.650000e-01    3.100000e+00
 SP2dh TN5ah  1 3.650000e-01    2.830000e+00
 SP2dh TN4ah  1 3.650000e-01    2.570000e+00
 SP2dh TN3ah  1 3.650000e-01    2.340000e+00
 SP2dh TN2ah  1 3.650000e-01    2.340000e+00
 SP2dh TN1ah  1 3.650000e-01    2.340000e+00
 SP1dh TN6dh  1 3.650000e-01    2.570000e+00
 SP1dh TN5dh  1 3.650000e-01    2.340000e+00
 SP1dh TN4dh  1 3.650000e-01    2.340000e+00
 SP1dh TN3dh  1 3.650000e-01    1.910000e+00
 SP1dh TN2dh  1 3.650000e-01    1.910000e+00
 SP1dh TN1dh  1 3.650000e-01    1.910000e+00
 SP1dh TP1ah  1 3.650000e-01    3.100000e+00
 SP1dh TN6ah  1 3.650000e-01    3.100000e+00
 SP1dh TN5ah  1 3.650000e-01    2.830000e+00
 SP1dh TN4ah  1 3.650000e-01    2.830000e+00
 SP1dh TN3ah  1 3.650000e-01    2.340000e+00
 SP1dh TN2ah  1 3.650000e-01    2.340000e+00
 SP1dh TN1ah  1 3.650000e-01    2.340000e+00
 SN6dh TN5dh  1 3.650000e-01    2.570000e+00
 SN6dh TN4dh  1 3.650000e-01    2.570000e+00
 SN6dh TN3dh  1 3.650000e-01    2.110000e+00
 SN6dh TN2dh  1 3.650000e-01    1.910000e+00
 SN6dh TN1dh  1 3.650000e-01    1.910000e+00
 SN6dh TN6ah  1 3.650000e-01    3.100000e+00
 SN6dh TN5ah  1 3.650000e-01    3.100000e+00
 SN6dh TN4ah  1 3.650000e-01    3.100000e+00
 SN6dh TN3ah  1 3.650000e-01    2.570000e+00
 SN6dh TN2ah  1 3.650000e-01    2.340000e+00
 SN6dh TN1ah  1 3.650000e-01    2.340000e+00
 SN5dh TN4dh  1 3.650000e-01    2.340000e+00
 SN5dh TN3dh  1 3.650000e-01    2.110000e+00
 SN5dh TN2dh  1 3.650000e-01    2.110000e+00
 SN5dh TN1dh  1 3.650000e-01    1.910000e+00
 SN5dh TN5ah  1 3.650000e-01    2.830000e+00
 SN5dh TN4ah  1 3.650000e-01    2.830000e+00
 SN5dh TN3ah  1 3.650000e-01    2.570000e+00
 SN5dh TN2ah  1 3.650000e-01    2.570000e+00
 SN5dh TN1ah  1 3.650000e-01    2.340000e+00
 SN4dh TN3dh  1 3.650000e-01    2.110000e+00
 SN4dh TN2dh  1 3.650000e-01    2.110000e+00
 SN4dh TN1dh  1 3.650000e-01    1.910000e+00
 SN4dh TN4ah  1 3.650000e-01    2.830000e+00
 SN4dh TN3ah  1 3.650000e-01    2.570000e+00
 SN4dh TN2ah  1 3.650000e-01    2.570000e+00
 SN4dh TN1ah  1 3.650000e-01    2.340000e+00
 SN3dh TN2dh  1 3.650000e-01    2.110000e+00
 SN3dh TN1dh  1 3.650000e-01    1.910000e+00
 SN3dh TN3ah  1 3.650000e-01    2.570000e+00
 SN3dh TN2ah  1 3.650000e-01    2.570000e+00
 SN3dh TN1ah  1 3.650000e-01    2.340000e+00
 SN2dh TN1dh  1 3.650000e-01    1.910000e+00
 SN2dh TN2ah  1 3.650000e-01    2.570000e+00
 SN2dh TN1ah  1 3.650000e-01    2.340000e+00
 SN1dh TN1ah  1 3.650000e-01    2.570000e+00
 SP6ah TP5dh  1 3.650000e-01    4.220000e+00
 SP6ah TP4dh  1 3.650000e-01    3.930000e+00
 SP6ah TP3dh  1 3.650000e-01    3.640000e+00
 SP6ah TP2dh  1 3.650000e-01    3.640000e+00
 SP6ah TP1dh  1 3.650000e-01    3.370000e+00
 SP6ah TN6dh  1 3.650000e-01    3.100000e+00
 SP6ah TN5dh  1 3.650000e-01    2.570000e+00
 SP6ah TN4dh  1 3.650000e-01    2.340000e+00
 SP6ah TN3dh  1 3.650000e-01    1.910000e+00
 SP6ah TN2dh  1 3.650000e-01    1.750000e+00
 SP6ah TN1dh  1 3.660000e-01    1.600000e+00
 SP6ah TP5ah  1 3.650000e-01    3.640000e+00
 SP6ah TP4ah  1 3.650000e-01    3.370000e+00
 SP6ah TP3ah  1 3.650000e-01    3.100000e+00
 SP6ah TP2ah  1 3.650000e-01    3.100000e+00
 SP6ah TP1ah  1 3.650000e-01    2.830000e+00
 SP6ah TN6ah  1 3.650000e-01    2.570000e+00
 SP6ah TN5ah  1 3.650000e-01    2.110000e+00
 SP6ah TN4ah  1 3.650000e-01    1.910000e+00
 SP6ah TN3ah  1 3.650000e-01    1.910000e+00
 SP6ah TN2ah  1 3.650000e-01    1.750000e+00
 SP6ah TN1ah  1 3.660000e-01    1.600000e+00
 SP5ah TP4dh  1 3.650000e-01    3.640000e+00
 SP5ah TP3dh  1 3.650000e-01    3.370000e+00
 SP5ah TP2dh  1 3.650000e-01    3.370000e+00
 SP5ah TP1dh  1 3.650000e-01    3.100000e+00
 SP5ah TN6dh  1 3.650000e-01    2.830000e+00
 SP5ah TN5dh  1 3.650000e-01    2.570000e+00
 SP5ah TN4dh  1 3.650000e-01    2.570000e+00
 SP5ah TN3dh  1 3.650000e-01    1.910000e+00
 SP5ah TN2dh  1 3.650000e-01    1.750000e+00
 SP5ah TN1dh  1 3.660000e-01    1.600000e+00
 SP5ah TP4ah  1 3.650000e-01    3.100000e+00
 SP5ah TP3ah  1 3.650000e-01    2.830000e+00
 SP5ah TP2ah  1 3.650000e-01    2.830000e+00
 SP5ah TP1ah  1 3.650000e-01    2.570000e+00
 SP5ah TN6ah  1 3.650000e-01    2.340000e+00
 SP5ah TN5ah  1 3.650000e-01    2.110000e+00
 SP5ah TN4ah  1 3.650000e-01    2.110000e+00
 SP5ah TN3ah  1 3.650000e-01    1.910000e+00
 SP5ah TN2ah  1 3.650000e-01    1.750000e+00
 SP5ah TN1ah  1 3.660000e-01    1.600000e+00
 SP4ah TP3dh  1 3.650000e-01    3.370000e+00
 SP4ah TP2dh  1 3.650000e-01    3.370000e+00
 SP4ah TP1dh  1 3.650000e-01    3.100000e+00
 SP4ah TN6dh  1 3.650000e-01    2.830000e+00
 SP4ah TN5dh  1 3.650000e-01    2.570000e+00
 SP4ah TN4dh  1 3.650000e-01    2.570000e+00
 SP4ah TN3dh  1 3.650000e-01    2.340000e+00
 SP4ah TN2dh  1 3.650000e-01    1.910000e+00
 SP4ah TN1dh  1 3.650000e-01    1.750000e+00
 SP4ah TP3ah  1 3.650000e-01    2.830000e+00
 SP4ah TP2ah  1 3.650000e-01    2.830000e+00
 SP4ah TP1ah  1 3.650000e-01    2.570000e+00
 SP4ah TN6ah  1 3.650000e-01    2.340000e+00
 SP4ah TN5ah  1 3.650000e-01    2.110000e+00
 SP4ah TN4ah  1 3.650000e-01    2.110000e+00
 SP4ah TN3ah  1 3.650000e-01    1.910000e+00
 SP4ah TN2ah  1 3.650000e-01    1.910000e+00
 SP4ah TN1ah  1 3.650000e-01    1.750000e+00
 SP3ah TP2dh  1 3.650000e-01    3.370000e+00
 SP3ah TP1dh  1 3.650000e-01    3.100000e+00
 SP3ah TN6dh  1 3.650000e-01    2.830000e+00
 SP3ah TN5dh  1 3.650000e-01    2.570000e+00
 SP3ah TN4dh  1 3.650000e-01    2.570000e+00
 SP3ah TN3dh  1 3.650000e-01    2.340000e+00
 SP3ah TN2dh  1 3.650000e-01    2.340000e+00
 SP3ah TN1dh  1 3.650000e-01    1.910000e+00
 SP3ah TP2ah  1 3.650000e-01    2.830000e+00
 SP3ah TP1ah  1 3.650000e-01    2.570000e+00
 SP3ah TN6ah  1 3.650000e-01    2.340000e+00
 SP3ah TN5ah  1 3.650000e-01    2.110000e+00
 SP3ah TN4ah  1 3.650000e-01    2.110000e+00
 SP3ah TN3ah  1 3.650000e-01    1.910000e+00
 SP3ah TN2ah  1 3.650000e-01    1.910000e+00
 SP3ah TN1ah  1 3.650000e-01    1.910000e+00
 SP2ah TP1dh  1 3.650000e-01    3.100000e+00
 SP2ah TN6dh  1 3.650000e-01    3.100000e+00
 SP2ah TN5dh  1 3.650000e-01    2.830000e+00
 SP2ah TN4dh  1 3.650000e-01    2.570000e+00
 SP2ah TN3dh  1 3.650000e-01    2.340000e+00
 SP2ah TN2dh  1 3.650000e-01    2.340000e+00
 SP2ah TN1dh  1 3.650000e-01    2.340000e+00
 SP2ah TP1ah  1 3.650000e-01    2.570000e+00
 SP2ah TN6ah  1 3.650000e-01    2.570000e+00
 SP2ah TN5ah  1 3.650000e-01    2.340000e+00
 SP2ah TN4ah  1 3.650000e-01    2.110000e+00
 SP2ah TN3ah  1 3.650000e-01    1.910000e+00
 SP2ah TN2ah  1 3.650000e-01    1.910000e+00
 SP2ah TN1ah  1 3.650000e-01    1.910000e+00
 SP1ah TN6dh  1 3.650000e-01    3.100000e+00
 SP1ah TN5dh  1 3.650000e-01    2.830000e+00
 SP1ah TN4dh  1 3.650000e-01    2.830000e+00
 SP1ah TN3dh  1 3.650000e-01    2.340000e+00
 SP1ah TN2dh  1 3.650000e-01    2.340000e+00
 SP1ah TN1dh  1 3.650000e-01    2.340000e+00
 SP1ah TN6ah  1 3.650000e-01    2.570000e+00
 SP1ah TN5ah  1 3.650000e-01    2.340000e+00
 SP1ah TN4ah  1 3.650000e-01    2.340000e+00
 SP1ah TN3ah  1 3.650000e-01    1.910000e+00
 SP1ah TN2ah  1 3.650000e-01    1.910000e+00
 SP1ah TN1ah  1 3.650000e-01    1.910000e+00
 SN6ah TN5dh  1 3.650000e-01    3.100000e+00
 SN6ah TN4dh  1 3.650000e-01    3.100000e+00
 SN6ah TN3dh  1 3.650000e-01    2.570000e+00
 SN6ah TN2dh  1 3.650000e-01    2.340000e+00
 SN6ah TN1dh  1 3.650000e-01    2.340000e+00
 SN6ah TN5ah  1 3.650000e-01    2.570000e+00
 SN6ah TN4ah  1 3.650000e-01    2.570000e+00
 SN6ah TN3ah  1 3.650000e-01    2.110000e+00
 SN6ah TN2ah  1 3.650000e-01    1.910000e+00
 SN6ah TN1ah  1 3.650000e-01    1.910000e+00
 SN5ah TN4dh  1 3.650000e-01    2.830000e+00
 SN5ah TN3dh  1 3.650000e-01    2.570000e+00
 SN5ah TN2dh  1 3.650000e-01    2.570000e+00
 SN5ah TN1dh  1 3.650000e-01    2.340000e+00
 SN5ah TN4ah  1 3.650000e-01    2.340000e+00
 SN5ah TN3ah  1 3.650000e-01    2.110000e+00
 SN5ah TN2ah  1 3.650000e-01    2.110000e+00
 SN5ah TN1ah  1 3.650000e-01    1.910000e+00
 SN4ah TN3dh  1 3.650000e-01    2.570000e+00
 SN4ah TN2dh  1 3.650000e-01    2.570000e+00
 SN4ah TN1dh  1 3.650000e-01    2.340000e+00
 SN4ah TN3ah  1 3.650000e-01    2.110000e+00
 SN4ah TN2ah  1 3.650000e-01    2.110000e+00
 SN4ah TN1ah  1 3.650000e-01    1.910000e+00
 SN3ah TN2dh  1 3.650000e-01    2.570000e+00
 SN3ah TN1dh  1 3.650000e-01    2.340000e+00
 SN3ah TN2ah  1 3.650000e-01    2.110000e+00
 SN3ah TN1ah  1 3.650000e-01    1.910000e+00
 SN2ah TN1dh  1 3.650000e-01    2.340000e+00
 SN2ah TN1ah  1 3.650000e-01    1.910000e+00
  SC6h  TC6h  1 3.650000e-01    2.340000e+00
  SC5h  TC5h  1 3.650000e-01    2.110000e+00
  SC4h  TC4h  1 3.650000e-01    2.110000e+00
  SC3h  TC3h  1 3.650000e-01    2.110000e+00
  SC2h  TC2h  1 3.650000e-01    2.110000e+00
  SC1h  TC1h  1 3.650000e-01    2.110000e+00
  SX4h  TX4h  1 3.650000e-01    2.110000e+00
  SX3h  TX3h  1 3.650000e-01    2.110000e+00
  SX2h  TX2h  1 3.650000e-01    2.340000e+00
  SX1h  TX1h  1 3.650000e-01    2.570000e+00
 SC6vh TC6vh  1 3.650000e-01    2.110000e+00
 SC5vh TC5vh  1 3.650000e-01    1.910000e+00
 SC4vh TC4vh  1 3.650000e-01    1.910000e+00
 SC3vh TC3vh  1 3.650000e-01    1.910000e+00
 SC2vh TC2vh  1 3.650000e-01    1.910000e+00
 SC1vh TC1vh  1 3.650000e-01    1.910000e+00
 SX4vh TX4vh  1 3.650000e-01    1.910000e+00
 SX3vh TX3vh  1 3.650000e-01    1.910000e+00
 SX2vh TX2vh  1 3.650000e-01    2.110000e+00
 SX1vh TX1vh  1 3.650000e-01    2.340000e+00
 SC6eh TC6eh  1 3.650000e-01    2.110000e+00
 SC5eh TC5eh  1 3.650000e-01    1.910000e+00
 SC4eh TC4eh  1 3.650000e-01    1.910000e+00
 SC3eh TC3eh  1 3.650000e-01    1.910000e+00
 SC2eh TC2eh  1 3.650000e-01    1.910000e+00
 SC1eh TC1eh  1 3.650000e-01    1.910000e+00
 SX4eh TX4eh  1 3.650000e-01    1.910000e+00
 SX3eh TX3eh  1 3.650000e-01    1.910000e+00
 SX2eh TX2eh  1 3.650000e-01    2.110000e+00
 SX1eh TX1eh  1 3.650000e-01    2.340000e+00
  SC6h  TC5h  1 3.650000e-01    2.110000e+00
  SC6h  TC4h  1 3.650000e-01    2.110000e+00
  SC6h  TC3h  1 3.650000e-01    1.910000e+00
  SC6h  TC2h  1 3.650000e-01    1.750000e+00
  SC6h  TC1h  1 3.660000e-01    1.600000e+00
  SC6h  TX4h  1 3.650000e-01    2.110000e+00
  SC6h  TX3h  1 3.650000e-01    2.110000e+00
  SC6h  TX2h  1 3.650000e-01    2.110000e+00
  SC6h  TX1h  1 3.650000e-01    2.110000e+00
  SC5h  TC4h  1 3.650000e-01    2.110000e+00
  SC5h  TC3h  1 3.650000e-01    1.910000e+00
  SC5h  TC2h  1 3.650000e-01    1.750000e+00
  SC5h  TC1h  1 3.650000e-01    1.750000e+00
  SC5h  TX4h  1 3.650000e-01    1.910000e+00
  SC5h  TX3h  1 3.650000e-01    1.910000e+00
  SC5h  TX2h  1 3.650000e-01    1.910000e+00
  SC5h  TX1h  1 3.650000e-01    2.110000e+00
  SC4h  TC3h  1 3.650000e-01    2.110000e+00
  SC4h  TC2h  1 3.650000e-01    1.910000e+00
  SC4h  TC1h  1 3.650000e-01    1.750000e+00
  SC4h  TX4h  1 3.650000e-01    1.910000e+00
  SC4h  TX3h  1 3.650000e-01    1.910000e+00
  SC4h  TX2h  1 3.650000e-01    1.910000e+00
  SC4h  TX1h  1 3.650000e-01    2.110000e+00
  SC3h  TC2h  1 3.650000e-01    2.110000e+00
  SC3h  TC1h  1 3.650000e-01    2.110000e+00
  SC3h  TX4h  1 3.650000e-01    1.910000e+00
  SC3h  TX3h  1 3.650000e-01    1.910000e+00
  SC3h  TX2h  1 3.650000e-01    1.910000e+00
  SC3h  TX1h  1 3.650000e-01    2.110000e+00
  SC2h  TC1h  1 3.650000e-01    2.340000e+00
  SC2h  TX4h  1 3.660000e-01    1.600000e+00
  SC2h  TX3h  1 3.650000e-01    1.910000e+00
  SC2h  TX2h  1 3.650000e-01    1.910000e+00
  SC2h  TX1h  1 3.650000e-01    1.910000e+00
  SC1h  TX4h  1 3.660000e-01    1.600000e+00
  SC1h  TX3h  1 3.650000e-01    1.910000e+00
  SC1h  TX2h  1 3.650000e-01    1.910000e+00
  SC1h  TX1h  1 3.650000e-01    1.910000e+00
  SX4h  TX3h  1 3.650000e-01    2.110000e+00
  SX4h  TX2h  1 3.650000e-01    2.110000e+00
  SX4h  TX1h  1 3.650000e-01    2.110000e+00
  SX3h  TX2h  1 3.650000e-01    2.340000e+00
  SX3h  TX1h  1 3.650000e-01    2.340000e+00
  SX2h  TX1h  1 3.650000e-01    2.340000e+00
 SC6vh TC5vh  1 3.650000e-01    1.910000e+00
 SC6vh TC4vh  1 3.650000e-01    1.910000e+00
 SC6vh TC3vh  1 3.650000e-01    1.750000e+00
 SC6vh TC2vh  1 3.660000e-01    1.600000e+00
 SC6vh TC1vh  1 3.780000e-01    1.450000e+00
 SC6vh TX4vh  1 3.650000e-01    1.910000e+00
 SC6vh TX3vh  1 3.650000e-01    1.910000e+00
 SC6vh TX2vh  1 3.650000e-01    1.910000e+00
 SC6vh TX1vh  1 3.650000e-01    1.910000e+00
 SC6vh TC6eh  1 3.650000e-01    2.830000e+00
 SC6vh TC5eh  1 3.650000e-01    2.570000e+00
 SC6vh TC4eh  1 3.650000e-01    2.570000e+00
 SC6vh TC3eh  1 3.650000e-01    2.340000e+00
 SC6vh TC2eh  1 3.650000e-01    2.110000e+00
 SC6vh TC1eh  1 3.650000e-01    1.910000e+00
 SC6vh TX4eh  1 3.650000e-01    2.570000e+00
 SC6vh TX3eh  1 3.650000e-01    2.570000e+00
 SC6vh TX2eh  1 3.650000e-01    2.570000e+00
 SC6vh TX1eh  1 3.650000e-01    2.570000e+00
 SC5vh TC4vh  1 3.650000e-01    1.910000e+00
 SC5vh TC3vh  1 3.650000e-01    1.750000e+00
 SC5vh TC2vh  1 3.660000e-01    1.600000e+00
 SC5vh TC1vh  1 3.660000e-01    1.600000e+00
 SC5vh TX4vh  1 3.650000e-01    1.750000e+00
 SC5vh TX3vh  1 3.650000e-01    1.750000e+00
 SC5vh TX2vh  1 3.650000e-01    1.750000e+00
 SC5vh TX1vh  1 3.650000e-01    1.910000e+00
 SC5vh TC5eh  1 3.650000e-01    2.570000e+00
 SC5vh TC4eh  1 3.650000e-01    2.570000e+00
 SC5vh TC3eh  1 3.650000e-01    2.340000e+00
 SC5vh TC2eh  1 3.650000e-01    2.110000e+00
 SC5vh TC1eh  1 3.650000e-01    2.110000e+00
 SC5vh TX4eh  1 3.650000e-01    2.340000e+00
 SC5vh TX3eh  1 3.650000e-01    2.340000e+00
 SC5vh TX2eh  1 3.650000e-01    2.340000e+00
 SC5vh TX1eh  1 3.650000e-01    2.570000e+00
 SC4vh TC3vh  1 3.650000e-01    1.910000e+00
 SC4vh TC2vh  1 3.650000e-01    1.750000e+00
 SC4vh TC1vh  1 3.660000e-01    1.600000e+00
 SC4vh TX4vh  1 3.650000e-01    1.750000e+00
 SC4vh TX3vh  1 3.650000e-01    1.750000e+00
 SC4vh TX2vh  1 3.650000e-01    1.750000e+00
 SC4vh TX1vh  1 3.650000e-01    1.910000e+00
 SC4vh TC4eh  1 3.650000e-01    2.570000e+00
 SC4vh TC3eh  1 3.650000e-01    2.570000e+00
 SC4vh TC2eh  1 3.650000e-01    2.340000e+00
 SC4vh TC1eh  1 3.650000e-01    2.110000e+00
 SC4vh TX4eh  1 3.650000e-01    2.340000e+00
 SC4vh TX3eh  1 3.650000e-01    2.340000e+00
 SC4vh TX2eh  1 3.650000e-01    2.340000e+00
 SC4vh TX1eh  1 3.650000e-01    2.570000e+00
 SC3vh TC2vh  1 3.650000e-01    1.910000e+00
 SC3vh TC1vh  1 3.650000e-01    1.910000e+00
 SC3vh TX4vh  1 3.650000e-01    1.750000e+00
 SC3vh TX3vh  1 3.650000e-01    1.750000e+00
 SC3vh TX2vh  1 3.650000e-01    1.750000e+00
 SC3vh TX1vh  1 3.650000e-01    1.910000e+00
 SC3vh TC3eh  1 3.650000e-01    2.570000e+00
 SC3vh TC2eh  1 3.650000e-01    2.570000e+00
 SC3vh TC1eh  1 3.650000e-01    2.570000e+00
 SC3vh TX4eh  1 3.650000e-01    2.340000e+00
 SC3vh TX3eh  1 3.650000e-01    2.340000e+00
 SC3vh TX2eh  1 3.650000e-01    2.340000e+00
 SC3vh TX1eh  1 3.650000e-01    2.570000e+00
 SC2vh TC1vh  1 3.650000e-01    2.110000e+00
 SC2vh TX4vh  1 3.780000e-01    1.450000e+00
 SC2vh TX3vh  1 3.650000e-01    1.750000e+00
 SC2vh TX2vh  1 3.650000e-01    1.750000e+00
 SC2vh TX1vh  1 3.650000e-01    1.750000e+00
 SC2vh TC2eh  1 3.650000e-01    2.570000e+00
 SC2vh TC1eh  1 3.650000e-01    2.830000e+00
 SC2vh TX4eh  1 3.650000e-01    1.910000e+00
 SC2vh TX3eh  1 3.650000e-01    2.340000e+00
 SC2vh TX2eh  1 3.650000e-01    2.340000e+00
 SC2vh TX1eh  1 3.650000e-01    2.340000e+00
 SC1vh TX4vh  1 3.780000e-01    1.450000e+00
 SC1vh TX3vh  1 3.650000e-01    1.750000e+00
 SC1vh TX2vh  1 3.650000e-01    1.750000e+00
 SC1vh TX1vh  1 3.650000e-01    1.750000e+00
 SC1vh TC1eh  1 3.650000e-01    2.570000e+00
 SC1vh TX4eh  1 3.650000e-01    1.910000e+00
 SC1vh TX3eh  1 3.650000e-01    2.340000e+00
 SC1vh TX2eh  1 3.650000e-01    2.340000e+00
 SC1vh TX1eh  1 3.650000e-01    2.340000e+00
 SX4vh TX3vh  1 3.650000e-01    1.910000e+00
 SX4vh TX2vh  1 3.650000e-01    1.910000e+00
 SX4vh TX1vh  1 3.650000e-01    1.910000e+00
 SX4vh TX4eh  1 3.650000e-01    2.570000e+00
 SX4vh TX3eh  1 3.650000e-01    2.570000e+00
 SX4vh TX2eh  1 3.650000e-01    2.570000e+00
 SX4vh TX1eh  1 3.650000e-01    2.570000e+00
 SX3vh TX2vh  1 3.650000e-01    2.110000e+00
 SX3vh TX1vh  1 3.650000e-01    2.110000e+00
 SX3vh TX3eh  1 3.650000e-01    2.570000e+00
 SX3vh TX2eh  1 3.650000e-01    2.830000e+00
 SX3vh TX1eh  1 3.650000e-01    2.830000e+00
 SX2vh TX1vh  1 3.650000e-01    2.110000e+00
 SX2vh TX2eh  1 3.650000e-01    2.830000e+00
 SX2vh TX1eh  1 3.650000e-01    2.830000e+00
 SX1vh TX1eh  1 3.650000e-01    3.100000e+00
 SC6eh TC5vh  1 3.650000e-01    2.570000e+00
 SC6eh TC4vh  1 3.650000e-01    2.570000e+00
 SC6eh TC3vh  1 3.650000e-01    2.340000e+00
 SC6eh TC2vh  1 3.650000e-01    2.110000e+00
 SC6eh TC1vh  1 3.650000e-01    1.910000e+00
 SC6eh TX4vh  1 3.650000e-01    2.570000e+00
 SC6eh TX3vh  1 3.650000e-01    2.570000e+00
 SC6eh TX2vh  1 3.650000e-01    2.570000e+00
 SC6eh TX1vh  1 3.650000e-01    2.570000e+00
 SC6eh TC5eh  1 3.650000e-01    1.910000e+00
 SC6eh TC4eh  1 3.650000e-01    1.910000e+00
 SC6eh TC3eh  1 3.650000e-01    1.750000e+00
 SC6eh TC2eh  1 3.660000e-01    1.600000e+00
 SC6eh TC1eh  1 3.780000e-01    1.450000e+00
 SC6eh TX4eh  1 3.650000e-01    1.910000e+00
 SC6eh TX3eh  1 3.650000e-01    1.910000e+00
 SC6eh TX2eh  1 3.650000e-01    1.910000e+00
 SC6eh TX1eh  1 3.650000e-01    1.910000e+00
 SC5eh TC4vh  1 3.650000e-01    2.570000e+00
 SC5eh TC3vh  1 3.650000e-01    2.340000e+00
 SC5eh TC2vh  1 3.650000e-01    2.110000e+00
 SC5eh TC1vh  1 3.650000e-01    2.110000e+00
 SC5eh TX4vh  1 3.650000e-01    2.340000e+00
 SC5eh TX3vh  1 3.650000e-01    2.340000e+00
 SC5eh TX2vh  1 3.650000e-01    2.340000e+00
 SC5eh TX1vh  1 3.650000e-01    2.570000e+00
 SC5eh TC4eh  1 3.650000e-01    1.910000e+00
 SC5eh TC3eh  1 3.650000e-01    1.750000e+00
 SC5eh TC2eh  1 3.660000e-01    1.600000e+00
 SC5eh TC1eh  1 3.660000e-01    1.600000e+00
 SC5eh TX4eh  1 3.650000e-01    1.750000e+00
 SC5eh TX3eh  1 3.650000e-01    1.750000e+00
 SC5eh TX2eh  1 3.650000e-01    1.750000e+00
 SC5eh TX1eh  1 3.650000e-01    1.910000e+00
 SC4eh TC3vh  1 3.650000e-01    2.570000e+00
 SC4eh TC2vh  1 3.650000e-01    2.340000e+00
 SC4eh TC1vh  1 3.650000e-01    2.110000e+00
 SC4eh TX4vh  1 3.650000e-01    2.340000e+00
 SC4eh TX3vh  1 3.650000e-01    2.340000e+00
 SC4eh TX2vh  1 3.650000e-01    2.340000e+00
 SC4eh TX1vh  1 3.650000e-01    2.570000e+00
 SC4eh TC3eh  1 3.650000e-01    1.910000e+00
 SC4eh TC2eh  1 3.650000e-01    1.750000e+00
 SC4eh TC1eh  1 3.660000e-01    1.600000e+00
 SC4eh TX4eh  1 3.650000e-01    1.750000e+00
 SC4eh TX3eh  1 3.650000e-01    1.750000e+00
 SC4eh TX2eh  1 3.650000e-01    1.750000e+00
 SC4eh TX1eh  1 3.650000e-01    1.910000e+00
 SC3eh TC2vh  1 3.650000e-01    2.570000e+00
 SC3eh TC1vh  1 3.650000e-01    2.570000e+00
 SC3eh TX4vh  1 3.650000e-01    2.340000e+00
 SC3eh TX3vh  1 3.650000e-01    2.340000e+00
 SC3eh TX2vh  1 3.650000e-01    2.340000e+00
 SC3eh TX1vh  1 3.650000e-01    2.570000e+00
 SC3eh TC2eh  1 3.650000e-01    1.910000e+00
 SC3eh TC1eh  1 3.650000e-01    1.910000e+00
 SC3eh TX4eh  1 3.650000e-01    1.750000e+00
 SC3eh TX3eh  1 3.650000e-01    1.750000e+00
 SC3eh TX2eh  1 3.650000e-01    1.750000e+00
 SC3eh TX1eh  1 3.650000e-01    1.910000e+00
 SC2eh TC1vh  1 3.650000e-01    2.830000e+00
 SC2eh TX4vh  1 3.650000e-01    1.910000e+00
 SC2eh TX3vh  1 3.650000e-01    2.340000e+00
 SC2eh TX2vh  1 3.650000e-01    2.340000e+00
 SC2eh TX1vh  1 3.650000e-01    2.340000e+00
 SC2eh TC1eh  1 3.650000e-01    2.110000e+00
 SC2eh TX4eh  1 3.780000e-01    1.450000e+00
 SC2eh TX3eh  1 3.650000e-01    1.750000e+00
 SC2eh TX2eh  1 3.650000e-01    1.750000e+00
 SC2eh TX1eh  1 3.650000e-01    1.750000e+00
 SC1eh TX4vh  1 3.650000e-01    1.910000e+00
 SC1eh TX3vh  1 3.650000e-01    2.340000e+00
 SC1eh TX2vh  1 3.650000e-01    2.340000e+00
 SC1eh TX1vh  1 3.650000e-01    2.340000e+00
 SC1eh TX4eh  1 3.780000e-01    1.450000e+00
 SC1eh TX3eh  1 3.650000e-01    1.750000e+00
 SC1eh TX2eh  1 3.650000e-01    1.750000e+00
 SC1eh TX1eh  1 3.650000e-01    1.750000e+00
 SX4eh TX3vh  1 3.650000e-01    2.570000e+00
 SX4eh TX2vh  1 3.650000e-01    2.570000e+00
 SX4eh TX1vh  1 3.650000e-01    2.570000e+00
 SX4eh TX3eh  1 3.650000e-01    1.910000e+00
 SX4eh TX2eh  1 3.650000e-01    1.910000e+00
 SX4eh TX1eh  1 3.650000e-01    1.910000e+00
 SX3eh TX2vh  1 3.650000e-01    2.830000e+00
 SX3eh TX1vh  1 3.650000e-01    2.830000e+00
 SX3eh TX2eh  1 3.650000e-01    2.110000e+00
 SX3eh TX1eh  1 3.650000e-01    2.110000e+00
 SX2eh TX1vh  1 3.650000e-01    2.830000e+00
 SX2eh TX1eh  1 3.650000e-01    2.110000e+00
  SP6h  TC6h  1 3.780000e-01    1.450000e+00
  SP6h  TC5h  1 3.940000e-01    1.290000e+00
  SP6h  TC4h  1 4.040000e-01    1.130000e+00
  SP6h  TC3h  1 4.090000e-01    1.080000e+00
  SP6h  TC2h  1 4.090000e-01    1.080000e+00
  SP6h  TC1h  1 4.840000e-01    8.900000e-01
  SP6h  TX4h  1 3.660000e-01    1.600000e+00
  SP6h  TX3h  1 3.660000e-01    1.600000e+00
  SP6h  TX2h  1 3.780000e-01    1.450000e+00
  SP6h  TX1h  1 3.940000e-01    1.290000e+00
  SP5h  TC6h  1 3.780000e-01    1.450000e+00
  SP5h  TC5h  1 3.780000e-01    1.450000e+00
  SP5h  TC4h  1 3.940000e-01    1.290000e+00
  SP5h  TC3h  1 4.040000e-01    1.130000e+00
  SP5h  TC2h  1 4.040000e-01    1.130000e+00
  SP5h  TC1h  1 4.090000e-01    1.080000e+00
  SP5h  TX4h  1 3.650000e-01    1.750000e+00
  SP5h  TX3h  1 3.660000e-01    1.600000e+00
  SP5h  TX2h  1 3.660000e-01    1.600000e+00
  SP5h  TX1h  1 3.940000e-01    1.290000e+00
  SP4h  TC6h  1 3.660000e-01    1.600000e+00
  SP4h  TC5h  1 3.780000e-01    1.450000e+00
  SP4h  TC4h  1 3.940000e-01    1.290000e+00
  SP4h  TC3h  1 4.040000e-01    1.130000e+00
  SP4h  TC2h  1 4.040000e-01    1.130000e+00
  SP4h  TC1h  1 4.090000e-01    1.080000e+00
  SP4h  TX4h  1 3.650000e-01    1.750000e+00
  SP4h  TX3h  1 3.660000e-01    1.600000e+00
  SP4h  TX2h  1 3.660000e-01    1.600000e+00
  SP4h  TX1h  1 3.780000e-01    1.450000e+00
  SP3h  TC6h  1 3.650000e-01    1.750000e+00
  SP3h  TC5h  1 3.660000e-01    1.600000e+00
  SP3h  TC4h  1 3.780000e-01    1.450000e+00
  SP3h  TC3h  1 4.040000e-01    1.130000e+00
  SP3h  TC2h  1 4.040000e-01    1.130000e+00
  SP3h  TC1h  1 4.090000e-01    1.080000e+00
  SP3h  TX4h  1 3.650000e-01    1.750000e+00
  SP3h  TX3h  1 3.650000e-01    1.750000e+00
  SP3h  TX2h  1 3.660000e-01    1.600000e+00
  SP3h  TX1h  1 3.780000e-01    1.450000e+00
  SP2h  TC6h  1 3.650000e-01    1.750000e+00
  SP2h  TC5h  1 3.660000e-01    1.600000e+00
  SP2h  TC4h  1 3.780000e-01    1.450000e+00
  SP2h  TC3h  1 3.940000e-01    1.290000e+00
  SP2h  TC2h  1 3.940000e-01    1.290000e+00
  SP2h  TC1h  1 4.040000e-01    1.130000e+00
  SP2h  TX4h  1 3.650000e-01    1.750000e+00
  SP2h  TX3h  1 3.650000e-01    1.750000e+00
  SP2h  TX2h  1 3.660000e-01    1.600000e+00
  SP2h  TX1h  1 3.780000e-01    1.450000e+00
  SP1h  TC6h  1 3.650000e-01    1.750000e+00
  SP1h  TC5h  1 3.660000e-01    1.600000e+00
  SP1h  TC4h  1 3.780000e-01    1.450000e+00
  SP1h  TC3h  1 3.940000e-01    1.290000e+00
  SP1h  TC2h  1 3.940000e-01    1.290000e+00
  SP1h  TC1h  1 4.040000e-01    1.130000e+00
  SP1h  TX4h  1 3.650000e-01    1.750000e+00
  SP1h  TX3h  1 3.650000e-01    1.750000e+00
  SP1h  TX2h  1 3.660000e-01    1.600000e+00
  SP1h  TX1h  1 3.780000e-01    1.450000e+00
  SN6h  TC6h  1 3.650000e-01    1.910000e+00
  SN6h  TC5h  1 3.650000e-01    1.750000e+00
  SN6h  TC4h  1 3.660000e-01    1.600000e+00
  SN6h  TC3h  1 3.780000e-01    1.450000e+00
  SN6h  TC2h  1 3.780000e-01    1.450000e+00
  SN6h  TC1h  1 3.940000e-01    1.290000e+00
  SN6h  TX4h  1 3.650000e-01    1.910000e+00
  SN6h  TX3h  1 3.650000e-01    1.750000e+00
  SN6h  TX2h  1 3.660000e-01    1.600000e+00
  SN6h  TX1h  1 3.780000e-01    1.450000e+00
  SN5h  TC6h  1 3.650000e-01    1.910000e+00
  SN5h  TC5h  1 3.650000e-01    1.750000e+00
  SN5h  TC4h  1 3.660000e-01    1.600000e+00
  SN5h  TC3h  1 3.660000e-01    1.600000e+00
  SN5h  TC2h  1 3.780000e-01    1.450000e+00
  SN5h  TC1h  1 3.940000e-01    1.290000e+00
  SN5h  TX4h  1 3.650000e-01    2.110000e+00
  SN5h  TX3h  1 3.650000e-01    1.910000e+00
  SN5h  TX2h  1 3.650000e-01    1.750000e+00
  SN5h  TX1h  1 3.660000e-01    1.600000e+00
  SN4h  TC6h  1 3.650000e-01    1.910000e+00
  SN4h  TC5h  1 3.650000e-01    1.750000e+00
  SN4h  TC4h  1 3.650000e-01    1.750000e+00
  SN4h  TC3h  1 3.660000e-01    1.600000e+00
  SN4h  TC2h  1 3.780000e-01    1.450000e+00
  SN4h  TC1h  1 3.940000e-01    1.290000e+00
  SN4h  TX4h  1 3.650000e-01    2.340000e+00
  SN4h  TX3h  1 3.650000e-01    2.110000e+00
  SN4h  TX2h  1 3.650000e-01    1.750000e+00
  SN4h  TX1h  1 3.660000e-01    1.600000e+00
  SN3h  TC6h  1 3.650000e-01    1.910000e+00
  SN3h  TC5h  1 3.650000e-01    1.750000e+00
  SN3h  TC4h  1 3.650000e-01    1.750000e+00
  SN3h  TC3h  1 3.660000e-01    1.600000e+00
  SN3h  TC2h  1 3.660000e-01    1.600000e+00
  SN3h  TC1h  1 3.780000e-01    1.450000e+00
  SN3h  TX4h  1 3.650000e-01    2.110000e+00
  SN3h  TX3h  1 3.650000e-01    1.910000e+00
  SN3h  TX2h  1 3.650000e-01    1.750000e+00
  SN3h  TX1h  1 3.650000e-01    1.750000e+00
  SN2h  TC6h  1 3.650000e-01    1.910000e+00
  SN2h  TC5h  1 3.650000e-01    1.750000e+00
  SN2h  TC4h  1 3.650000e-01    1.750000e+00
  SN2h  TC3h  1 3.650000e-01    1.750000e+00
  SN2h  TC2h  1 3.660000e-01    1.600000e+00
  SN2h  TC1h  1 3.780000e-01    1.450000e+00
  SN2h  TX4h  1 3.650000e-01    2.110000e+00
  SN2h  TX3h  1 3.650000e-01    1.910000e+00
  SN2h  TX2h  1 3.650000e-01    1.750000e+00
  SN2h  TX1h  1 3.650000e-01    1.750000e+00
  SN1h  TC6h  1 3.650000e-01    2.110000e+00
  SN1h  TC5h  1 3.650000e-01    1.910000e+00
  SN1h  TC4h  1 3.650000e-01    1.910000e+00
  SN1h  TC3h  1 3.650000e-01    1.750000e+00
  SN1h  TC2h  1 3.660000e-01    1.600000e+00
  SN1h  TC1h  1 3.780000e-01    1.450000e+00
  SN1h  TX4h  1 3.650000e-01    1.910000e+00
  SN1h  TX3h  1 3.650000e-01    1.910000e+00
  SN1h  TX2h  1 3.650000e-01    1.750000e+00
  SN1h  TX1h  1 3.650000e-01    1.750000e+00
 SP6dh TC6vh  1 3.940000e-01    1.290000e+00
 SP6dh TC5vh  1 4.040000e-01    1.130000e+00
 SP6dh TC4vh  1 4.090000e-01    1.080000e+00
 SP6dh TC3vh  1 4.230000e-01    9.810000e-01
 SP6dh TC2vh  1 4.230000e-01    9.810000e-01
 SP6dh TC1vh  1 5.370000e-01    8.080000e-01
 SP6dh TX4vh  1 3.780000e-01    1.450000e+00
 SP6dh TX3vh  1 3.780000e-01    1.450000e+00
 SP6dh TX2vh  1 3.940000e-01    1.290000e+00
 SP6dh TX1vh  1 4.040000e-01    1.130000e+00
 SP6dh TC6eh  1 3.660000e-01    1.600000e+00
 SP6dh TC5eh  1 3.780000e-01    1.450000e+00
 SP6dh TC4eh  1 3.940000e-01    1.290000e+00
 SP6dh TC3eh  1 4.040000e-01    1.130000e+00
 SP6dh TC2eh  1 4.040000e-01    1.130000e+00
 SP6dh TC1eh  1 4.230000e-01    9.810000e-01
 SP6dh TX4eh  1 3.650000e-01    1.750000e+00
 SP6dh TX3eh  1 3.650000e-01    1.750000e+00
 SP6dh TX2eh  1 3.660000e-01    1.600000e+00
 SP6dh TX1eh  1 3.780000e-01    1.450000e+00
 SP5dh TC6vh  1 3.940000e-01    1.290000e+00
 SP5dh TC5vh  1 3.940000e-01    1.290000e+00
 SP5dh TC4vh  1 4.040000e-01    1.130000e+00
 SP5dh TC3vh  1 4.090000e-01    1.080000e+00
 SP5dh TC2vh  1 4.090000e-01    1.080000e+00
 SP5dh TC1vh  1 4.230000e-01    9.810000e-01
 SP5dh TX4vh  1 3.660000e-01    1.600000e+00
 SP5dh TX3vh  1 3.780000e-01    1.450000e+00
 SP5dh TX2vh  1 3.780000e-01    1.450000e+00
 SP5dh TX1vh  1 4.040000e-01    1.130000e+00
 SP5dh TC6eh  1 3.660000e-01    1.600000e+00
 SP5dh TC5eh  1 3.660000e-01    1.600000e+00
 SP5dh TC4eh  1 3.780000e-01    1.450000e+00
 SP5dh TC3eh  1 3.940000e-01    1.290000e+00
 SP5dh TC2eh  1 3.940000e-01    1.290000e+00
 SP5dh TC1eh  1 4.040000e-01    1.130000e+00
 SP5dh TX4eh  1 3.650000e-01    1.910000e+00
 SP5dh TX3eh  1 3.650000e-01    1.750000e+00
 SP5dh TX2eh  1 3.650000e-01    1.750000e+00
 SP5dh TX1eh  1 3.780000e-01    1.450000e+00
 SP4dh TC6vh  1 3.780000e-01    1.450000e+00
 SP4dh TC5vh  1 3.940000e-01    1.290000e+00
 SP4dh TC4vh  1 4.040000e-01    1.130000e+00
 SP4dh TC3vh  1 4.090000e-01    1.080000e+00
 SP4dh TC2vh  1 4.090000e-01    1.080000e+00
 SP4dh TC1vh  1 4.230000e-01    9.810000e-01
 SP4dh TX4vh  1 3.660000e-01    1.600000e+00
 SP4dh TX3vh  1 3.780000e-01    1.450000e+00
 SP4dh TX2vh  1 3.780000e-01    1.450000e+00
 SP4dh TX1vh  1 3.940000e-01    1.290000e+00
 SP4dh TC6eh  1 3.650000e-01    1.750000e+00
 SP4dh TC5eh  1 3.660000e-01    1.600000e+00
 SP4dh TC4eh  1 3.780000e-01    1.450000e+00
 SP4dh TC3eh  1 3.940000e-01    1.290000e+00
 SP4dh TC2eh  1 3.940000e-01    1.290000e+00
 SP4dh TC1eh  1 4.040000e-01    1.130000e+00
 SP4dh TX4eh  1 3.650000e-01    1.910000e+00
 SP4dh TX3eh  1 3.650000e-01    1.750000e+00
 SP4dh TX2eh  1 3.650000e-01    1.750000e+00
 SP4dh TX1eh  1 3.660000e-01    1.600000e+00
 SP3dh TC6vh  1 3.660000e-01    1.600000e+00
 SP3dh TC5vh  1 3.780000e-01    1.450000e+00
 SP3dh TC4vh  1 3.940000e-01    1.290000e+00
 SP3dh TC3vh  1 4.090000e-01    1.080000e+00
 SP3dh TC2vh  1 4.090000e-01    1.080000e+00
 SP3dh TC1vh  1 4.230000e-01    9.810000e-01
 SP3dh TX4vh  1 3.660000e-01    1.600000e+00
 SP3dh TX3vh  1 3.660000e-01    1.600000e+00
 SP3dh TX2vh  1 3.780000e-01    1.450000e+00
 SP3dh TX1vh  1 3.940000e-01    1.290000e+00
 SP3dh TC6eh  1 3.650000e-01    1.910000e+00
 SP3dh TC5eh  1 3.650000e-01    1.750000e+00
 SP3dh TC4eh  1 3.660000e-01    1.600000e+00
 SP3dh TC3eh  1 3.940000e-01    1.290000e+00
 SP3dh TC2eh  1 3.940000e-01    1.290000e+00
 SP3dh TC1eh  1 4.040000e-01    1.130000e+00
 SP3dh TX4eh  1 3.650000e-01    1.910000e+00
 SP3dh TX3eh  1 3.650000e-01    1.910000e+00
 SP3dh TX2eh  1 3.650000e-01    1.750000e+00
 SP3dh TX1eh  1 3.660000e-01    1.600000e+00
 SP2dh TC6vh  1 3.660000e-01    1.600000e+00
 SP2dh TC5vh  1 3.780000e-01    1.450000e+00
 SP2dh TC4vh  1 3.940000e-01    1.290000e+00
 SP2dh TC3vh  1 4.040000e-01    1.130000e+00
 SP2dh TC2vh  1 4.040000e-01    1.130000e+00
 SP2dh TC1vh  1 4.090000e-01    1.080000e+00
 SP2dh TX4vh  1 3.660000e-01    1.600000e+00
 SP2dh TX3vh  1 3.660000e-01    1.600000e+00
 SP2dh TX2vh  1 3.780000e-01    1.450000e+00
 SP2dh TX1vh  1 3.940000e-01    1.290000e+00
 SP2dh TC6eh  1 3.650000e-01    1.910000e+00
 SP2dh TC5eh  1 3.650000e-01    1.750000e+00
 SP2dh TC4eh  1 3.660000e-01    1.600000e+00
 SP2dh TC3eh  1 3.780000e-01    1.450000e+00
 SP2dh TC2eh  1 3.780000e-01    1.450000e+00
 SP2dh TC1eh  1 3.940000e-01    1.290000e+00
 SP2dh TX4eh  1 3.650000e-01    1.910000e+00
 SP2dh TX3eh  1 3.650000e-01    1.910000e+00
 SP2dh TX2eh  1 3.650000e-01    1.750000e+00
 SP2dh TX1eh  1 3.660000e-01    1.600000e+00
 SP1dh TC6vh  1 3.660000e-01    1.600000e+00
 SP1dh TC5vh  1 3.780000e-01    1.450000e+00
 SP1dh TC4vh  1 3.940000e-01    1.290000e+00
 SP1dh TC3vh  1 4.040000e-01    1.130000e+00
 SP1dh TC2vh  1 4.040000e-01    1.130000e+00
 SP1dh TC1vh  1 4.090000e-01    1.080000e+00
 SP1dh TX4vh  1 3.660000e-01    1.600000e+00
 SP1dh TX3vh  1 3.660000e-01    1.600000e+00
 SP1dh TX2vh  1 3.780000e-01    1.450000e+00
 SP1dh TX1vh  1 3.940000e-01    1.290000e+00
 SP1dh TC6eh  1 3.650000e-01    1.910000e+00
 SP1dh TC5eh  1 3.650000e-01    1.750000e+00
 SP1dh TC4eh  1 3.660000e-01    1.600000e+00
 SP1dh TC3eh  1 3.780000e-01    1.450000e+00
 SP1dh TC2eh  1 3.780000e-01    1.450000e+00
 SP1dh TC1eh  1 3.940000e-01    1.290000e+00
 SP1dh TX4eh  1 3.650000e-01    1.910000e+00
 SP1dh TX3eh  1 3.650000e-01    1.910000e+00
 SP1dh TX2eh  1 3.650000e-01    1.750000e+00
 SP1dh TX1eh  1 3.660000e-01    1.600000e+00
 SN6dh TC6vh  1 3.650000e-01    1.750000e+00
 SN6dh TC5vh  1 3.660000e-01    1.600000e+00
 SN6dh TC4vh  1 3.780000e-01    1.450000e+00
 SN6dh TC3vh  1 3.940000e-01    1.290000e+00
 SN6dh TC2vh  1 3.940000e-01    1.290000e+00
 SN6dh TC1vh  1 4.040000e-01    1.130000e+00
 SN6dh TX4vh  1 3.650000e-01    1.750000e+00
 SN6dh TX3vh  1 3.660000e-01    1.600000e+00
 SN6dh TX2vh  1 3.780000e-01    1.450000e+00
 SN6dh TX1vh  1 3.940000e-01    1.290000e+00
 SN6dh TC6eh  1 3.650000e-01    2.110000e+00
 SN6dh TC5eh  1 3.650000e-01    1.910000e+00
 SN6dh TC4eh  1 3.650000e-01    1.750000e+00
 SN6dh TC3eh  1 3.660000e-01    1.600000e+00
 SN6dh TC2eh  1 3.660000e-01    1.600000e+00
 SN6dh TC1eh  1 3.780000e-01    1.450000e+00
 SN6dh TX4eh  1 3.650000e-01    2.110000e+00
 SN6dh TX3eh  1 3.650000e-01    1.910000e+00
 SN6dh TX2eh  1 3.650000e-01    1.750000e+00
 SN6dh TX1eh  1 3.660000e-01    1.600000e+00
 SN5dh TC6vh  1 3.650000e-01    1.750000e+00
 SN5dh TC5vh  1 3.660000e-01    1.600000e+00
 SN5dh TC4vh  1 3.780000e-01    1.450000e+00
 SN5dh TC3vh  1 3.780000e-01    1.450000e+00
 SN5dh TC2vh  1 3.940000e-01    1.290000e+00
 SN5dh TC1vh  1 4.040000e-01    1.130000e+00
 SN5dh TX4vh  1 3.650000e-01    1.910000e+00
 SN5dh TX3vh  1 3.650000e-01    1.750000e+00
 SN5dh TX2vh  1 3.660000e-01    1.600000e+00
 SN5dh TX1vh  1 3.780000e-01    1.450000e+00
 SN5dh TC6eh  1 3.650000e-01    2.110000e+00
 SN5dh TC5eh  1 3.650000e-01    1.910000e+00
 SN5dh TC4eh  1 3.650000e-01    1.750000e+00
 SN5dh TC3eh  1 3.650000e-01    1.750000e+00
 SN5dh TC2eh  1 3.660000e-01    1.600000e+00
 SN5dh TC1eh  1 3.780000e-01    1.450000e+00
 SN5dh TX4eh  1 3.650000e-01    2.340000e+00
 SN5dh TX3eh  1 3.650000e-01    2.110000e+00
 SN5dh TX2eh  1 3.650000e-01    1.910000e+00
 SN5dh TX1eh  1 3.650000e-01    1.750000e+00
 SN4dh TC6vh  1 3.650000e-01    1.750000e+00
 SN4dh TC5vh  1 3.660000e-01    1.600000e+00
 SN4dh TC4vh  1 3.660000e-01    1.600000e+00
 SN4dh TC3vh  1 3.780000e-01    1.450000e+00
 SN4dh TC2vh  1 3.940000e-01    1.290000e+00
 SN4dh TC1vh  1 4.040000e-01    1.130000e+00
 SN4dh TX4vh  1 3.650000e-01    2.110000e+00
 SN4dh TX3vh  1 3.650000e-01    1.910000e+00
 SN4dh TX2vh  1 3.660000e-01    1.600000e+00
 SN4dh TX1vh  1 3.780000e-01    1.450000e+00
 SN4dh TC6eh  1 3.650000e-01    2.110000e+00
 SN4dh TC5eh  1 3.650000e-01    1.910000e+00
 SN4dh TC4eh  1 3.650000e-01    1.910000e+00
 SN4dh TC3eh  1 3.650000e-01    1.750000e+00
 SN4dh TC2eh  1 3.660000e-01    1.600000e+00
 SN4dh TC1eh  1 3.780000e-01    1.450000e+00
 SN4dh TX4eh  1 3.650000e-01    2.570000e+00
 SN4dh TX3eh  1 3.650000e-01    2.340000e+00
 SN4dh TX2eh  1 3.650000e-01    1.910000e+00
 SN4dh TX1eh  1 3.650000e-01    1.750000e+00
 SN3dh TC6vh  1 3.650000e-01    1.750000e+00
 SN3dh TC5vh  1 3.660000e-01    1.600000e+00
 SN3dh TC4vh  1 3.660000e-01    1.600000e+00
 SN3dh TC3vh  1 3.780000e-01    1.450000e+00
 SN3dh TC2vh  1 3.780000e-01    1.450000e+00
 SN3dh TC1vh  1 3.940000e-01    1.290000e+00
 SN3dh TX4vh  1 3.650000e-01    1.910000e+00
 SN3dh TX3vh  1 3.650000e-01    1.750000e+00
 SN3dh TX2vh  1 3.660000e-01    1.600000e+00
 SN3dh TX1vh  1 3.660000e-01    1.600000e+00
 SN3dh TC6eh  1 3.650000e-01    2.110000e+00
 SN3dh TC5eh  1 3.650000e-01    1.910000e+00
 SN3dh TC4eh  1 3.650000e-01    1.910000e+00
 SN3dh TC3eh  1 3.650000e-01    1.750000e+00
 SN3dh TC2eh  1 3.650000e-01    1.750000e+00
 SN3dh TC1eh  1 3.660000e-01    1.600000e+00
 SN3dh TX4eh  1 3.650000e-01    2.340000e+00
 SN3dh TX3eh  1 3.650000e-01    2.110000e+00
 SN3dh TX2eh  1 3.650000e-01    1.910000e+00
 SN3dh TX1eh  1 3.650000e-01    1.910000e+00
 SN2dh TC6vh  1 3.650000e-01    1.750000e+00
 SN2dh TC5vh  1 3.660000e-01    1.600000e+00
 SN2dh TC4vh  1 3.660000e-01    1.600000e+00
 SN2dh TC3vh  1 3.660000e-01    1.600000e+00
 SN2dh TC2vh  1 3.780000e-01    1.450000e+00
 SN2dh TC1vh  1 3.940000e-01    1.290000e+00
 SN2dh TX4vh  1 3.650000e-01    1.910000e+00
 SN2dh TX3vh  1 3.650000e-01    1.750000e+00
 SN2dh TX2vh  1 3.660000e-01    1.600000e+00
 SN2dh TX1vh  1 3.660000e-01    1.600000e+00
 SN2dh TC6eh  1 3.650000e-01    2.110000e+00
 SN2dh TC5eh  1 3.650000e-01    1.910000e+00
 SN2dh TC4eh  1 3.650000e-01    1.910000e+00
 SN2dh TC3eh  1 3.650000e-01    1.910000e+00
 SN2dh TC2eh  1 3.650000e-01    1.750000e+00
 SN2dh TC1eh  1 3.660000e-01    1.600000e+00
 SN2dh TX4eh  1 3.650000e-01    2.340000e+00
 SN2dh TX3eh  1 3.650000e-01    2.110000e+00
 SN2dh TX2eh  1 3.650000e-01    1.910000e+00
 SN2dh TX1eh  1 3.650000e-01    1.910000e+00
 SN1dh TC6vh  1 3.650000e-01    1.910000e+00
 SN1dh TC5vh  1 3.650000e-01    1.750000e+00
 SN1dh TC4vh  1 3.650000e-01    1.750000e+00
 SN1dh TC3vh  1 3.660000e-01    1.600000e+00
 SN1dh TC2vh  1 3.780000e-01    1.450000e+00
 SN1dh TC1vh  1 3.940000e-01    1.290000e+00
 SN1dh TX4vh  1 3.650000e-01    1.750000e+00
 SN1dh TX3vh  1 3.650000e-01    1.750000e+00
 SN1dh TX2vh  1 3.660000e-01    1.600000e+00
 SN1dh TX1vh  1 3.660000e-01    1.600000e+00
 SN1dh TC6eh  1 3.650000e-01    2.340000e+00
 SN1dh TC5eh  1 3.650000e-01    2.110000e+00
 SN1dh TC4eh  1 3.650000e-01    2.110000e+00
 SN1dh TC3eh  1 3.650000e-01    1.910000e+00
 SN1dh TC2eh  1 3.650000e-01    1.750000e+00
 SN1dh TC1eh  1 3.660000e-01    1.600000e+00
 SN1dh TX4eh  1 3.650000e-01    2.110000e+00
 SN1dh TX3eh  1 3.650000e-01    2.110000e+00
 SN1dh TX2eh  1 3.650000e-01    1.910000e+00
 SN1dh TX1eh  1 3.650000e-01    1.910000e+00
 SP6ah TC6vh  1 3.660000e-01    1.600000e+00
 SP6ah TC5vh  1 3.780000e-01    1.450000e+00
 SP6ah TC4vh  1 3.940000e-01    1.290000e+00
 SP6ah TC3vh  1 4.040000e-01    1.130000e+00
 SP6ah TC2vh  1 4.040000e-01    1.130000e+00
 SP6ah TC1vh  1 4.230000e-01    9.810000e-01
 SP6ah TX4vh  1 3.650000e-01    1.750000e+00
 SP6ah TX3vh  1 3.650000e-01    1.750000e+00
 SP6ah TX2vh  1 3.660000e-01    1.600000e+00
 SP6ah TX1vh  1 3.780000e-01    1.450000e+00
 SP6ah TC6eh  1 3.940000e-01    1.290000e+00
 SP6ah TC5eh  1 4.040000e-01    1.130000e+00
 SP6ah TC4eh  1 4.090000e-01    1.080000e+00
 SP6ah TC3eh  1 4.230000e-01    9.810000e-01
 SP6ah TC2eh  1 4.230000e-01    9.810000e-01
 SP6ah TC1eh  1 5.370000e-01    8.080000e-01
 SP6ah TX4eh  1 3.780000e-01    1.450000e+00
 SP6ah TX3eh  1 3.780000e-01    1.450000e+00
 SP6ah TX2eh  1 3.940000e-01    1.290000e+00
 SP6ah TX1eh  1 4.040000e-01    1.130000e+00
 SP5ah TC6vh  1 3.660000e-01    1.600000e+00
 SP5ah TC5vh  1 3.660000e-01    1.600000e+00
 SP5ah TC4vh  1 3.780000e-01    1.450000e+00
 SP5ah TC3vh  1 3.940000e-01    1.290000e+00
 SP5ah TC2vh  1 3.940000e-01    1.290000e+00
 SP5ah TC1vh  1 4.040000e-01    1.130000e+00
 SP5ah TX4vh  1 3.650000e-01    1.910000e+00
 SP5ah TX3vh  1 3.650000e-01    1.750000e+00
 SP5ah TX2vh  1 3.650000e-01    1.750000e+00
 SP5ah TX1vh  1 3.780000e-01    1.450000e+00
 SP5ah TC6eh  1 3.940000e-01    1.290000e+00
 SP5ah TC5eh  1 3.940000e-01    1.290000e+00
 SP5ah TC4eh  1 4.040000e-01    1.130000e+00
 SP5ah TC3eh  1 4.090000e-01    1.080000e+00
 SP5ah TC2eh  1 4.090000e-01    1.080000e+00
 SP5ah TC1eh  1 4.230000e-01    9.810000e-01
 SP5ah TX4eh  1 3.660000e-01    1.600000e+00
 SP5ah TX3eh  1 3.780000e-01    1.450000e+00
 SP5ah TX2eh  1 3.780000e-01    1.450000e+00
 SP5ah TX1eh  1 4.040000e-01    1.130000e+00
 SP4ah TC6vh  1 3.650000e-01    1.750000e+00
 SP4ah TC5vh  1 3.660000e-01    1.600000e+00
 SP4ah TC4vh  1 3.780000e-01    1.450000e+00
 SP4ah TC3vh  1 3.940000e-01    1.290000e+00
 SP4ah TC2vh  1 3.940000e-01    1.290000e+00
 SP4ah TC1vh  1 4.040000e-01    1.130000e+00
 SP4ah TX4vh  1 3.650000e-01    1.910000e+00
 SP4ah TX3vh  1 3.650000e-01    1.750000e+00
 SP4ah TX2vh  1 3.650000e-01    1.750000e+00
 SP4ah TX1vh  1 3.660000e-01    1.600000e+00
 SP4ah TC6eh  1 3.780000e-01    1.450000e+00
 SP4ah TC5eh  1 3.940000e-01    1.290000e+00
 SP4ah TC4eh  1 4.040000e-01    1.130000e+00
 SP4ah TC3eh  1 4.090000e-01    1.080000e+00
 SP4ah TC2eh  1 4.090000e-01    1.080000e+00
 SP4ah TC1eh  1 4.230000e-01    9.810000e-01
 SP4ah TX4eh  1 3.660000e-01    1.600000e+00
 SP4ah TX3eh  1 3.780000e-01    1.450000e+00
 SP4ah TX2eh  1 3.780000e-01    1.450000e+00
 SP4ah TX1eh  1 3.940000e-01    1.290000e+00
 SP3ah TC6vh  1 3.650000e-01    1.910000e+00
 SP3ah TC5vh  1 3.650000e-01    1.750000e+00
 SP3ah TC4vh  1 3.660000e-01    1.600000e+00
 SP3ah TC3vh  1 3.940000e-01    1.290000e+00
 SP3ah TC2vh  1 3.940000e-01    1.290000e+00
 SP3ah TC1vh  1 4.040000e-01    1.130000e+00
 SP3ah TX4vh  1 3.650000e-01    1.910000e+00
 SP3ah TX3vh  1 3.650000e-01    1.910000e+00
 SP3ah TX2vh  1 3.650000e-01    1.750000e+00
 SP3ah TX1vh  1 3.660000e-01    1.600000e+00
 SP3ah TC6eh  1 3.660000e-01    1.600000e+00
 SP3ah TC5eh  1 3.780000e-01    1.450000e+00
 SP3ah TC4eh  1 3.940000e-01    1.290000e+00
 SP3ah TC3eh  1 4.090000e-01    1.080000e+00
 SP3ah TC2eh  1 4.090000e-01    1.080000e+00
 SP3ah TC1eh  1 4.230000e-01    9.810000e-01
 SP3ah TX4eh  1 3.660000e-01    1.600000e+00
 SP3ah TX3eh  1 3.660000e-01    1.600000e+00
 SP3ah TX2eh  1 3.780000e-01    1.450000e+00
 SP3ah TX1eh  1 3.940000e-01    1.290000e+00
 SP2ah TC6vh  1 3.650000e-01    1.910000e+00
 SP2ah TC5vh  1 3.650000e-01    1.750000e+00
 SP2ah TC4vh  1 3.660000e-01    1.600000e+00
 SP2ah TC3vh  1 3.780000e-01    1.450000e+00
 SP2ah TC2vh  1 3.780000e-01    1.450000e+00
 SP2ah TC1vh  1 3.940000e-01    1.290000e+00
 SP2ah TX4vh  1 3.650000e-01    1.910000e+00
 SP2ah TX3vh  1 3.650000e-01    1.910000e+00
 SP2ah TX2vh  1 3.650000e-01    1.750000e+00
 SP2ah TX1vh  1 3.660000e-01    1.600000e+00
 SP2ah TC6eh  1 3.660000e-01    1.600000e+00
 SP2ah TC5eh  1 3.780000e-01    1.450000e+00
 SP2ah TC4eh  1 3.940000e-01    1.290000e+00
 SP2ah TC3eh  1 4.040000e-01    1.130000e+00
 SP2ah TC2eh  1 4.040000e-01    1.130000e+00
 SP2ah TC1eh  1 4.090000e-01    1.080000e+00
 SP2ah TX4eh  1 3.660000e-01    1.600000e+00
 SP2ah TX3eh  1 3.660000e-01    1.600000e+00
 SP2ah TX2eh  1 3.780000e-01    1.450000e+00
 SP2ah TX1eh  1 3.940000e-01    1.290000e+00
 SP1ah TC6vh  1 3.650000e-01    1.910000e+00
 SP1ah TC5vh  1 3.650000e-01    1.750000e+00
 SP1ah TC4vh  1 3.660000e-01    1.600000e+00
 SP1ah TC3vh  1 3.780000e-01    1.450000e+00
 SP1ah TC2vh  1 3.780000e-01    1.450000e+00
 SP1ah TC1vh  1 3.940000e-01    1.290000e+00
 SP1ah TX4vh  1 3.650000e-01    1.910000e+00
 SP1ah TX3vh  1 3.650000e-01    1.910000e+00
 SP1ah TX2vh  1 3.650000e-01    1.750000e+00
 SP1ah TX1vh  1 3.660000e-01    1.600000e+00
 SP1ah TC6eh  1 3.660000e-01    1.600000e+00
 SP1ah TC5eh  1 3.780000e-01    1.450000e+00
 SP1ah TC4eh  1 3.940000e-01    1.290000e+00
 SP1ah TC3eh  1 4.040000e-01    1.130000e+00
 SP1ah TC2eh  1 4.040000e-01    1.130000e+00
 SP1ah TC1eh  1 4.090000e-01    1.080000e+00
 SP1ah TX4eh  1 3.660000e-01    1.600000e+00
 SP1ah TX3eh  1 3.660000e-01    1.600000e+00
 SP1ah TX2eh  1 3.780000e-01    1.450000e+00
 SP1ah TX1eh  1 3.940000e-01    1.290000e+00
 SN6ah TC6vh  1 3.650000e-01    2.110000e+00
 SN6ah TC5vh  1 3.650000e-01    1.910000e+00
 SN6ah TC4vh  1 3.650000e-01    1.750000e+00
 SN6ah TC3vh  1 3.660000e-01    1.600000e+00
 SN6ah TC2vh  1 3.660000e-01    1.600000e+00
 SN6ah TC1vh  1 3.780000e-01    1.450000e+00
 SN6ah TX4vh  1 3.650000e-01    2.110000e+00
 SN6ah TX3vh  1 3.650000e-01    1.910000e+00
 SN6ah TX2vh  1 3.650000e-01    1.750000e+00
 SN6ah TX1vh  1 3.660000e-01    1.600000e+00
 SN6ah TC6eh  1 3.650000e-01    1.750000e+00
 SN6ah TC5eh  1 3.660000e-01    1.600000e+00
 SN6ah TC4eh  1 3.780000e-01    1.450000e+00
 SN6ah TC3eh  1 3.940000e-01    1.290000e+00
 SN6ah TC2eh  1 3.940000e-01    1.290000e+00
 SN6ah TC1eh  1 4.040000e-01    1.130000e+00
 SN6ah TX4eh  1 3.650000e-01    1.750000e+00
 SN6ah TX3eh  1 3.660000e-01    1.600000e+00
 SN6ah TX2eh  1 3.780000e-01    1.450000e+00
 SN6ah TX1eh  1 3.940000e-01    1.290000e+00
 SN5ah TC6vh  1 3.650000e-01    2.110000e+00
 SN5ah TC5vh  1 3.650000e-01    1.910000e+00
 SN5ah TC4vh  1 3.650000e-01    1.750000e+00
 SN5ah TC3vh  1 3.650000e-01    1.750000e+00
 SN5ah TC2vh  1 3.660000e-01    1.600000e+00
 SN5ah TC1vh  1 3.780000e-01    1.450000e+00
 SN5ah TX4vh  1 3.650000e-01    2.340000e+00
 SN5ah TX3vh  1 3.650000e-01    2.110000e+00
 SN5ah TX2vh  1 3.650000e-01    1.910000e+00
 SN5ah TX1vh  1 3.650000e-01    1.750000e+00
 SN5ah TC6eh  1 3.650000e-01    1.750000e+00
 SN5ah TC5eh  1 3.660000e-01    1.600000e+00
 SN5ah TC4eh  1 3.780000e-01    1.450000e+00
 SN5ah TC3eh  1 3.780000e-01    1.450000e+00
 SN5ah TC2eh  1 3.940000e-01    1.290000e+00
 SN5ah TC1eh  1 4.040000e-01    1.130000e+00
 SN5ah TX4eh  1 3.650000e-01    1.910000e+00
 SN5ah TX3eh  1 3.650000e-01    1.750000e+00
 SN5ah TX2eh  1 3.660000e-01    1.600000e+00
 SN5ah TX1eh  1 3.780000e-01    1.450000e+00
 SN4ah TC6vh  1 3.650000e-01    2.110000e+00
 SN4ah TC5vh  1 3.650000e-01    1.910000e+00
 SN4ah TC4vh  1 3.650000e-01    1.910000e+00
 SN4ah TC3vh  1 3.650000e-01    1.750000e+00
 SN4ah TC2vh  1 3.660000e-01    1.600000e+00
 SN4ah TC1vh  1 3.780000e-01    1.450000e+00
 SN4ah TX4vh  1 3.650000e-01    2.570000e+00
 SN4ah TX3vh  1 3.650000e-01    2.340000e+00
 SN4ah TX2vh  1 3.650000e-01    1.910000e+00
 SN4ah TX1vh  1 3.650000e-01    1.750000e+00
 SN4ah TC6eh  1 3.650000e-01    1.750000e+00
 SN4ah TC5eh  1 3.660000e-01    1.600000e+00
 SN4ah TC4eh  1 3.660000e-01    1.600000e+00
 SN4ah TC3eh  1 3.780000e-01    1.450000e+00
 SN4ah TC2eh  1 3.940000e-01    1.290000e+00
 SN4ah TC1eh  1 4.040000e-01    1.130000e+00
 SN4ah TX4eh  1 3.650000e-01    2.110000e+00
 SN4ah TX3eh  1 3.650000e-01    1.910000e+00
 SN4ah TX2eh  1 3.660000e-01    1.600000e+00
 SN4ah TX1eh  1 3.780000e-01    1.450000e+00
 SN3ah TC6vh  1 3.650000e-01    2.110000e+00
 SN3ah TC5vh  1 3.650000e-01    1.910000e+00
 SN3ah TC4vh  1 3.650000e-01    1.910000e+00
 SN3ah TC3vh  1 3.650000e-01    1.750000e+00
 SN3ah TC2vh  1 3.650000e-01    1.750000e+00
 SN3ah TC1vh  1 3.660000e-01    1.600000e+00
 SN3ah TX4vh  1 3.650000e-01    2.340000e+00
 SN3ah TX3vh  1 3.650000e-01    2.110000e+00
 SN3ah TX2vh  1 3.650000e-01    1.910000e+00
 SN3ah TX1vh  1 3.650000e-01    1.910000e+00
 SN3ah TC6eh  1 3.650000e-01    1.750000e+00
 SN3ah TC5eh  1 3.660000e-01    1.600000e+00
 SN3ah TC4eh  1 3.660000e-01    1.600000e+00
 SN3ah TC3eh  1 3.780000e-01    1.450000e+00
 SN3ah TC2eh  1 3.780000e-01    1.450000e+00
 SN3ah TC1eh  1 3.940000e-01    1.290000e+00
 SN3ah TX4eh  1 3.650000e-01    1.910000e+00
 SN3ah TX3eh  1 3.650000e-01    1.750000e+00
 SN3ah TX2eh  1 3.660000e-01    1.600000e+00
 SN3ah TX1eh  1 3.660000e-01    1.600000e+00
 SN2ah TC6vh  1 3.650000e-01    2.110000e+00
 SN2ah TC5vh  1 3.650000e-01    1.910000e+00
 SN2ah TC4vh  1 3.650000e-01    1.910000e+00
 SN2ah TC3vh  1 3.650000e-01    1.910000e+00
 SN2ah TC2vh  1 3.650000e-01    1.750000e+00
 SN2ah TC1vh  1 3.660000e-01    1.600000e+00
 SN2ah TX4vh  1 3.650000e-01    2.340000e+00
 SN2ah TX3vh  1 3.650000e-01    2.110000e+00
 SN2ah TX2vh  1 3.650000e-01    1.910000e+00
 SN2ah TX1vh  1 3.650000e-01    1.910000e+00
 SN2ah TC6eh  1 3.650000e-01    1.750000e+00
 SN2ah TC5eh  1 3.660000e-01    1.600000e+00
 SN2ah TC4eh  1 3.660000e-01    1.600000e+00
 SN2ah TC3eh  1 3.660000e-01    1.600000e+00
 SN2ah TC2eh  1 3.780000e-01    1.450000e+00
 SN2ah TC1eh  1 3.940000e-01    1.290000e+00
 SN2ah TX4eh  1 3.650000e-01    1.910000e+00
 SN2ah TX3eh  1 3.650000e-01    1.750000e+00
 SN2ah TX2eh  1 3.660000e-01    1.600000e+00
 SN2ah TX1eh  1 3.660000e-01    1.600000e+00
 SN1ah TC6vh  1 3.650000e-01    2.340000e+00
 SN1ah TC5vh  1 3.650000e-01    2.110000e+00
 SN1ah TC4vh  1 3.650000e-01    2.110000e+00
 SN1ah TC3vh  1 3.650000e-01    1.910000e+00
 SN1ah TC2vh  1 3.650000e-01    1.750000e+00
 SN1ah TC1vh  1 3.660000e-01    1.600000e+00
 SN1ah TX4vh  1 3.650000e-01    2.110000e+00
 SN1ah TX3vh  1 3.650000e-01    2.110000e+00
 SN1ah TX2vh  1 3.650000e-01    1.910000e+00
 SN1ah TX1vh  1 3.650000e-01    1.910000e+00
 SN1ah TC6eh  1 3.650000e-01    1.910000e+00
 SN1ah TC5eh  1 3.650000e-01    1.750000e+00
 SN1ah TC4eh  1 3.650000e-01    1.750000e+00
 SN1ah TC3eh  1 3.660000e-01    1.600000e+00
 SN1ah TC2eh  1 3.780000e-01    1.450000e+00
 SN1ah TC1eh  1 3.940000e-01    1.290000e+00
 SN1ah TX4eh  1 3.650000e-01    1.750000e+00
 SN1ah TX3eh  1 3.650000e-01    1.750000e+00
 SN1ah TX2eh  1 3.660000e-01    1.600000e+00
 SN1ah TX1eh  1 3.660000e-01    1.600000e+00
  SP6h  TP6r  1 3.650000e-01    3.930000e+00
  SP6h  TP5r  1 3.650000e-01    3.640000e+00
  SP6r  TP5h  1 3.650000e-01    3.640000e+00
  SP6h  TP4r  1 3.650000e-01    3.370000e+00
  SP6r  TP4h  1 3.650000e-01    3.370000e+00
  SP6h  TP3r  1 3.650000e-01    3.100000e+00
  SP6r  TP3h  1 3.650000e-01    3.100000e+00
  SP6h  TP2r  1 3.650000e-01    3.100000e+00
  SP6r  TP2h  1 3.650000e-01    3.100000e+00
  SP6h  TP1r  1 3.650000e-01    2.830000e+00
  SP6r  TP1h  1 3.650000e-01    2.830000e+00
  SP6h  TN6r  1 3.650000e-01    2.570000e+00
  SP6r  TN6h  1 3.650000e-01    2.570000e+00
  SP6h  TN5r  1 3.650000e-01    2.110000e+00
  SP6r  TN5h  1 3.650000e-01    2.110000e+00
  SP6h  TN4r  1 3.650000e-01    1.910000e+00
  SP6r  TN4h  1 3.650000e-01    1.910000e+00
  SP6h  TN3r  1 3.650000e-01    1.750000e+00
  SP6r  TN3h  1 3.650000e-01    1.750000e+00
  SP6h  TN2r  1 3.660000e-01    1.600000e+00
  SP6r  TN2h  1 3.660000e-01    1.600000e+00
  SP6h  TN1r  1 3.780000e-01    1.450000e+00
  SP6r  TN1h  1 3.780000e-01    1.450000e+00
  SP5h  TP5r  1 3.650000e-01    3.370000e+00
  SP5h  TP4r  1 3.650000e-01    3.100000e+00
  SP5r  TP4h  1 3.650000e-01    3.100000e+00
  SP5h  TP3r  1 3.650000e-01    2.830000e+00
  SP5r  TP3h  1 3.650000e-01    2.830000e+00
  SP5h  TP2r  1 3.650000e-01    2.830000e+00
  SP5r  TP2h  1 3.650000e-01    2.830000e+00
  SP5h  TP1r  1 3.650000e-01    2.570000e+00
  SP5r  TP1h  1 3.650000e-01    2.570000e+00
  SP5h  TN6r  1 3.650000e-01    2.340000e+00
  SP5r  TN6h  1 3.650000e-01    2.340000e+00
  SP5h  TN5r  1 3.650000e-01    2.110000e+00
  SP5r  TN5h  1 3.650000e-01    2.110000e+00
  SP5h  TN4r  1 3.650000e-01    2.110000e+00
  SP5r  TN4h  1 3.650000e-01    2.110000e+00
  SP5h  TN3r  1 3.650000e-01    1.750000e+00
  SP5r  TN3h  1 3.650000e-01    1.750000e+00
  SP5h  TN2r  1 3.660000e-01    1.600000e+00
  SP5r  TN2h  1 3.660000e-01    1.600000e+00
  SP5h  TN1r  1 3.780000e-01    1.450000e+00
  SP5r  TN1h  1 3.780000e-01    1.450000e+00
  SP4h  TP4r  1 3.650000e-01    3.100000e+00
  SP4h  TP3r  1 3.650000e-01    2.830000e+00
  SP4r  TP3h  1 3.650000e-01    2.830000e+00
  SP4h  TP2r  1 3.650000e-01    2.830000e+00
  SP4r  TP2h  1 3.650000e-01    2.830000e+00
  SP4h  TP1r  1 3.650000e-01    2.570000e+00
  SP4r  TP1h  1 3.650000e-01    2.570000e+00
  SP4h  TN6r  1 3.650000e-01    2.340000e+00
  SP4r  TN6h  1 3.650000e-01    2.340000e+00
  SP4h  TN5r  1 3.650000e-01    2.110000e+00
  SP4r  TN5h  1 3.650000e-01    2.110000e+00
  SP4h  TN4r  1 3.650000e-01    2.110000e+00
  SP4r  TN4h  1 3.650000e-01    2.110000e+00
  SP4h  TN3r  1 3.650000e-01    1.910000e+00
  SP4r  TN3h  1 3.650000e-01    1.910000e+00
  SP4h  TN2r  1 3.650000e-01    1.750000e+00
  SP4r  TN2h  1 3.650000e-01    1.750000e+00
  SP4h  TN1r  1 3.660000e-01    1.600000e+00
  SP4r  TN1h  1 3.660000e-01    1.600000e+00
  SP3h  TP3r  1 3.650000e-01    2.830000e+00
  SP3h  TP2r  1 3.650000e-01    2.830000e+00
  SP3r  TP2h  1 3.650000e-01    2.830000e+00
  SP3h  TP1r  1 3.650000e-01    2.570000e+00
  SP3r  TP1h  1 3.650000e-01    2.570000e+00
  SP3h  TN6r  1 3.650000e-01    2.340000e+00
  SP3r  TN6h  1 3.650000e-01    2.340000e+00
  SP3h  TN5r  1 3.650000e-01    2.110000e+00
  SP3r  TN5h  1 3.650000e-01    2.110000e+00
  SP3h  TN4r  1 3.650000e-01    2.110000e+00
  SP3r  TN4h  1 3.650000e-01    2.110000e+00
  SP3h  TN3r  1 3.650000e-01    1.910000e+00
  SP3r  TN3h  1 3.650000e-01    1.910000e+00
  SP3h  TN2r  1 3.650000e-01    1.910000e+00
  SP3r  TN2h  1 3.650000e-01    1.910000e+00
  SP3h  TN1r  1 3.650000e-01    1.750000e+00
  SP3r  TN1h  1 3.650000e-01    1.750000e+00
  SP2h  TP2r  1 3.650000e-01    2.830000e+00
  SP2h  TP1r  1 3.650000e-01    2.570000e+00
  SP2r  TP1h  1 3.650000e-01    2.570000e+00
  SP2h  TN6r  1 3.650000e-01    2.570000e+00
  SP2r  TN6h  1 3.650000e-01    2.570000e+00
  SP2h  TN5r  1 3.650000e-01    2.340000e+00
  SP2r  TN5h  1 3.650000e-01    2.340000e+00
  SP2h  TN4r  1 3.650000e-01    2.110000e+00
  SP2r  TN4h  1 3.650000e-01    2.110000e+00
  SP2h  TN3r  1 3.650000e-01    1.910000e+00
  SP2r  TN3h  1 3.650000e-01    1.910000e+00
  SP2h  TN2r  1 3.650000e-01    1.910000e+00
  SP2r  TN2h  1 3.650000e-01    1.910000e+00
  SP2h  TN1r  1 3.650000e-01    1.910000e+00
  SP2r  TN1h  1 3.650000e-01    1.910000e+00
  SP1h  TP1r  1 3.650000e-01    2.570000e+00
  SP1h  TN6r  1 3.650000e-01    2.570000e+00
  SP1r  TN6h  1 3.650000e-01    2.570000e+00
  SP1h  TN5r  1 3.650000e-01    2.340000e+00
  SP1r  TN5h  1 3.650000e-01    2.340000e+00
  SP1h  TN4r  1 3.650000e-01    2.340000e+00
  SP1r  TN4h  1 3.650000e-01    2.340000e+00
  SP1h  TN3r  1 3.650000e-01    1.910000e+00
  SP1r  TN3h  1 3.650000e-01    1.910000e+00
  SP1h  TN2r  1 3.650000e-01    1.910000e+00
  SP1r  TN2h  1 3.650000e-01    1.910000e+00
  SP1h  TN1r  1 3.650000e-01    1.910000e+00
  SP1r  TN1h  1 3.650000e-01    1.910000e+00
  SN6h  TN6r  1 3.650000e-01    2.570000e+00
  SN6h  TN5r  1 3.650000e-01    2.570000e+00
  SN6r  TN5h  1 3.650000e-01    2.570000e+00
  SN6h  TN4r  1 3.650000e-01    2.570000e+00
  SN6r  TN4h  1 3.650000e-01    2.570000e+00
  SN6h  TN3r  1 3.650000e-01    2.110000e+00
  SN6r  TN3h  1 3.650000e-01    2.110000e+00
  SN6h  TN2r  1 3.650000e-01    1.910000e+00
  SN6r  TN2h  1 3.650000e-01    1.910000e+00
  SN6h  TN1r  1 3.650000e-01    1.910000e+00
  SN6r  TN1h  1 3.650000e-01    1.910000e+00
  SN5h  TN5r  1 3.650000e-01    2.340000e+00
  SN5h  TN4r  1 3.650000e-01    2.340000e+00
  SN5r  TN4h  1 3.650000e-01    2.340000e+00
  SN5h  TN3r  1 3.650000e-01    2.110000e+00
  SN5r  TN3h  1 3.650000e-01    2.110000e+00
  SN5h  TN2r  1 3.650000e-01    2.110000e+00
  SN5r  TN2h  1 3.650000e-01    2.110000e+00
  SN5h  TN1r  1 3.650000e-01    1.910000e+00
  SN5r  TN1h  1 3.650000e-01    1.910000e+00
  SN4h  TN4r  1 3.650000e-01    2.340000e+00
  SN4h  TN3r  1 3.650000e-01    2.110000e+00
  SN4r  TN3h  1 3.650000e-01    2.110000e+00
  SN4h  TN2r  1 3.650000e-01    2.110000e+00
  SN4r  TN2h  1 3.650000e-01    2.110000e+00
  SN4h  TN1r  1 3.650000e-01    1.910000e+00
  SN4r  TN1h  1 3.650000e-01    1.910000e+00
  SN3h  TN3r  1 3.650000e-01    2.110000e+00
  SN3h  TN2r  1 3.650000e-01    2.110000e+00
  SN3r  TN2h  1 3.650000e-01    2.110000e+00
  SN3h  TN1r  1 3.650000e-01    1.910000e+00
  SN3r  TN1h  1 3.650000e-01    1.910000e+00
  SN2h  TN2r  1 3.650000e-01    2.110000e+00
  SN2h  TN1r  1 3.650000e-01    1.910000e+00
  SN2r  TN1h  1 3.650000e-01    1.910000e+00
  SN1h  TN1r  1 3.650000e-01    2.110000e+00
 SP6dh TP6dr  1 3.650000e-01    3.640000e+00
 SP6dh TP5dr  1 3.650000e-01    3.370000e+00
 SP6dr TP5dh  1 3.650000e-01    3.370000e+00
 SP6dh TP4dr  1 3.650000e-01    3.100000e+00
 SP6dr TP4dh  1 3.650000e-01    3.100000e+00
 SP6dh TP3dr  1 3.650000e-01    2.830000e+00
 SP6dr TP3dh  1 3.650000e-01    2.830000e+00
 SP6dh TP2dr  1 3.650000e-01    2.830000e+00
 SP6dr TP2dh  1 3.650000e-01    2.830000e+00
 SP6dh TP1dr  1 3.650000e-01    2.570000e+00
 SP6dr TP1dh  1 3.650000e-01    2.570000e+00
 SP6dh TN6dr  1 3.650000e-01    2.340000e+00
 SP6dr TN6dh  1 3.650000e-01    2.340000e+00
 SP6dh TN5dr  1 3.650000e-01    1.910000e+00
 SP6dr TN5dh  1 3.650000e-01    1.910000e+00
 SP6dh TN4dr  1 3.650000e-01    1.750000e+00
 SP6dr TN4dh  1 3.650000e-01    1.750000e+00
 SP6dh TN3dr  1 3.650000e-01    1.750000e+00
 SP6dr TN3dh  1 3.650000e-01    1.750000e+00
 SP6dh TN2dr  1 3.660000e-01    1.600000e+00
 SP6dr TN2dh  1 3.660000e-01    1.600000e+00
 SP6dh TN1dr  1 3.780000e-01    1.450000e+00
 SP6dr TN1dh  1 3.780000e-01    1.450000e+00
 SP6dh TP6ar  1 3.650000e-01    4.220000e+00
 SP6dr TP6ah  1 3.650000e-01    4.220000e+00
 SP6dh TP5ar  1 3.650000e-01    3.930000e+00
 SP6dr TP5ah  1 3.650000e-01    3.930000e+00
 SP6dh TP4ar  1 3.650000e-01    3.640000e+00
 SP6dr TP4ah  1 3.650000e-01    3.640000e+00
 SP6dh TP3ar  1 3.650000e-01    3.370000e+00
 SP6dr TP3ah  1 3.650000e-01    3.370000e+00
 SP6dh TP2ar  1 3.650000e-01    3.370000e+00
 SP6dr TP2ah  1 3.650000e-01    3.370000e+00
 SP6dh TP1ar  1 3.650000e-01    3.100000e+00
 SP6dr TP1ah  1 3.650000e-01    3.100000e+00
 SP6dh TN6ar  1 3.650000e-01    2.830000e+00
 SP6dr TN6ah  1 3.650000e-01    2.830000e+00
 SP6dh TN5ar  1 3.650000e-01    2.340000e+00
 SP6dr TN5ah  1 3.650000e-01    2.340000e+00
 SP6dh TN4ar  1 3.650000e-01    2.110000e+00
 SP6dr TN4ah  1 3.650000e-01    2.110000e+00
 SP6dh TN3ar  1 3.650000e-01    1.750000e+00
 SP6dr TN3ah  1 3.650000e-01    1.750000e+00
 SP6dh TN2ar  1 3.660000e-01    1.600000e+00
 SP6dr TN2ah  1 3.660000e-01    1.600000e+00
 SP6dh TN1ar  1 3.780000e-01    1.450000e+00
 SP6dr TN1ah  1 3.780000e-01    1.450000e+00
 SP5dh TP5dr  1 3.650000e-01    3.100000e+00
 SP5dh TP4dr  1 3.650000e-01    2.830000e+00
 SP5dr TP4dh  1 3.650000e-01    2.830000e+00
 SP5dh TP3dr  1 3.650000e-01    2.570000e+00
 SP5dr TP3dh  1 3.650000e-01    2.570000e+00
 SP5dh TP2dr  1 3.650000e-01    2.570000e+00
 SP5dr TP2dh  1 3.650000e-01    2.570000e+00
 SP5dh TP1dr  1 3.650000e-01    2.340000e+00
 SP5dr TP1dh  1 3.650000e-01    2.340000e+00
 SP5dh TN6dr  1 3.650000e-01    2.110000e+00
 SP5dr TN6dh  1 3.650000e-01    2.110000e+00
 SP5dh TN5dr  1 3.650000e-01    1.910000e+00
 SP5dr TN5dh  1 3.650000e-01    1.910000e+00
 SP5dh TN4dr  1 3.650000e-01    1.910000e+00
 SP5dr TN4dh  1 3.650000e-01    1.910000e+00
 SP5dh TN3dr  1 3.650000e-01    1.750000e+00
 SP5dr TN3dh  1 3.650000e-01    1.750000e+00
 SP5dh TN2dr  1 3.660000e-01    1.600000e+00
 SP5dr TN2dh  1 3.660000e-01    1.600000e+00
 SP5dh TN1dr  1 3.780000e-01    1.450000e+00
 SP5dr TN1dh  1 3.780000e-01    1.450000e+00
 SP5dh TP5ar  1 3.650000e-01    3.640000e+00
 SP5dr TP5ah  1 3.650000e-01    3.640000e+00
 SP5dh TP4ar  1 3.650000e-01    3.370000e+00
 SP5dr TP4ah  1 3.650000e-01    3.370000e+00
 SP5dh TP3ar  1 3.650000e-01    3.100000e+00
 SP5dr TP3ah  1 3.650000e-01    3.100000e+00
 SP5dh TP2ar  1 3.650000e-01    3.100000e+00
 SP5dr TP2ah  1 3.650000e-01    3.100000e+00
 SP5dh TP1ar  1 3.650000e-01    2.830000e+00
 SP5dr TP1ah  1 3.650000e-01    2.830000e+00
 SP5dh TN6ar  1 3.650000e-01    2.570000e+00
 SP5dr TN6ah  1 3.650000e-01    2.570000e+00
 SP5dh TN5ar  1 3.650000e-01    2.340000e+00
 SP5dr TN5ah  1 3.650000e-01    2.340000e+00
 SP5dh TN4ar  1 3.650000e-01    2.340000e+00
 SP5dr TN4ah  1 3.650000e-01    2.340000e+00
 SP5dh TN3ar  1 3.650000e-01    1.750000e+00
 SP5dr TN3ah  1 3.650000e-01    1.750000e+00
 SP5dh TN2ar  1 3.660000e-01    1.600000e+00
 SP5dr TN2ah  1 3.660000e-01    1.600000e+00
 SP5dh TN1ar  1 3.780000e-01    1.450000e+00
 SP5dr TN1ah  1 3.780000e-01    1.450000e+00
 SP4dh TP4dr  1 3.650000e-01    2.830000e+00
 SP4dh TP3dr  1 3.650000e-01    2.570000e+00
 SP4dr TP3dh  1 3.650000e-01    2.570000e+00
 SP4dh TP2dr  1 3.650000e-01    2.570000e+00
 SP4dr TP2dh  1 3.650000e-01    2.570000e+00
 SP4dh TP1dr  1 3.650000e-01    2.340000e+00
 SP4dr TP1dh  1 3.650000e-01    2.340000e+00
 SP4dh TN6dr  1 3.650000e-01    2.110000e+00
 SP4dr TN6dh  1 3.650000e-01    2.110000e+00
 SP4dh TN5dr  1 3.650000e-01    1.910000e+00
 SP4dr TN5dh  1 3.650000e-01    1.910000e+00
 SP4dh TN4dr  1 3.650000e-01    1.910000e+00
 SP4dr TN4dh  1 3.650000e-01    1.910000e+00
 SP4dh TN3dr  1 3.650000e-01    1.750000e+00
 SP4dr TN3dh  1 3.650000e-01    1.750000e+00
 SP4dh TN2dr  1 3.650000e-01    1.750000e+00
 SP4dr TN2dh  1 3.650000e-01    1.750000e+00
 SP4dh TN1dr  1 3.660000e-01    1.600000e+00
 SP4dr TN1dh  1 3.660000e-01    1.600000e+00
 SP4dh TP4ar  1 3.650000e-01    3.370000e+00
 SP4dr TP4ah  1 3.650000e-01    3.370000e+00
 SP4dh TP3ar  1 3.650000e-01    3.100000e+00
 SP4dr TP3ah  1 3.650000e-01    3.100000e+00
 SP4dh TP2ar  1 3.650000e-01    3.100000e+00
 SP4dr TP2ah  1 3.650000e-01    3.100000e+00
 SP4dh TP1ar  1 3.650000e-01    2.830000e+00
 SP4dr TP1ah  1 3.650000e-01    2.830000e+00
 SP4dh TN6ar  1 3.650000e-01    2.570000e+00
 SP4dr TN6ah  1 3.650000e-01    2.570000e+00
 SP4dh TN5ar  1 3.650000e-01    2.340000e+00
 SP4dr TN5ah  1 3.650000e-01    2.340000e+00
 SP4dh TN4ar  1 3.650000e-01    2.340000e+00
 SP4dr TN4ah  1 3.650000e-01    2.340000e+00
 SP4dh TN3ar  1 3.650000e-01    2.110000e+00
 SP4dr TN3ah  1 3.650000e-01    2.110000e+00
 SP4dh TN2ar  1 3.650000e-01    1.750000e+00
 SP4dr TN2ah  1 3.650000e-01    1.750000e+00
 SP4dh TN1ar  1 3.660000e-01    1.600000e+00
 SP4dr TN1ah  1 3.660000e-01    1.600000e+00
 SP3dh TP3dr  1 3.650000e-01    2.570000e+00
 SP3dh TP2dr  1 3.650000e-01    2.570000e+00
 SP3dr TP2dh  1 3.650000e-01    2.570000e+00
 SP3dh TP1dr  1 3.650000e-01    2.340000e+00
 SP3dr TP1dh  1 3.650000e-01    2.340000e+00
 SP3dh TN6dr  1 3.650000e-01    2.110000e+00
 SP3dr TN6dh  1 3.650000e-01    2.110000e+00
 SP3dh TN5dr  1 3.650000e-01    1.910000e+00
 SP3dr TN5dh  1 3.650000e-01    1.910000e+00
 SP3dh TN4dr  1 3.650000e-01    1.910000e+00
 SP3dr TN4dh  1 3.650000e-01    1.910000e+00
 SP3dh TN3dr  1 3.650000e-01    1.750000e+00
 SP3dr TN3dh  1 3.650000e-01    1.750000e+00
 SP3dh TN2dr  1 3.650000e-01    1.750000e+00
 SP3dr TN2dh  1 3.650000e-01    1.750000e+00
 SP3dh TN1dr  1 3.650000e-01    1.750000e+00
 SP3dr TN1dh  1 3.650000e-01    1.750000e+00
 SP3dh TP3ar  1 3.650000e-01    3.100000e+00
 SP3dr TP3ah  1 3.650000e-01    3.100000e+00
 SP3dh TP2ar  1 3.650000e-01    3.100000e+00
 SP3dr TP2ah  1 3.650000e-01    3.100000e+00
 SP3dh TP1ar  1 3.650000e-01    2.830000e+00
 SP3dr TP1ah  1 3.650000e-01    2.830000e+00
 SP3dh TN6ar  1 3.650000e-01    2.570000e+00
 SP3dr TN6ah  1 3.650000e-01    2.570000e+00
 SP3dh TN5ar  1 3.650000e-01    2.340000e+00
 SP3dr TN5ah  1 3.650000e-01    2.340000e+00
 SP3dh TN4ar  1 3.650000e-01    2.340000e+00
 SP3dr TN4ah  1 3.650000e-01    2.340000e+00
 SP3dh TN3ar  1 3.650000e-01    2.110000e+00
 SP3dr TN3ah  1 3.650000e-01    2.110000e+00
 SP3dh TN2ar  1 3.650000e-01    2.110000e+00
 SP3dr TN2ah  1 3.650000e-01    2.110000e+00
 SP3dh TN1ar  1 3.650000e-01    1.750000e+00
 SP3dr TN1ah  1 3.650000e-01    1.750000e+00
 SP2dh TP2dr  1 3.650000e-01    2.570000e+00
 SP2dh TP1dr  1 3.650000e-01    2.340000e+00
 SP2dr TP1dh  1 3.650000e-01    2.340000e+00
 SP2dh TN6dr  1 3.650000e-01    2.340000e+00
 SP2dr TN6dh  1 3.650000e-01    2.340000e+00
 SP2dh TN5dr  1 3.650000e-01    2.110000e+00
 SP2dr TN5dh  1 3.650000e-01    2.110000e+00
 SP2dh TN4dr  1 3.650000e-01    1.910000e+00
 SP2dr TN4dh  1 3.650000e-01    1.910000e+00
 SP2dh TN3dr  1 3.650000e-01    1.750000e+00
 SP2dr TN3dh  1 3.650000e-01    1.750000e+00
 SP2dh TN2dr  1 3.650000e-01    1.750000e+00
 SP2dr TN2dh  1 3.650000e-01    1.750000e+00
 SP2dh TN1dr  1 3.650000e-01    1.750000e+00
 SP2dr TN1dh  1 3.650000e-01    1.750000e+00
 SP2dh TP2ar  1 3.650000e-01    3.100000e+00
 SP2dr TP2ah  1 3.650000e-01    3.100000e+00
 SP2dh TP1ar  1 3.650000e-01    2.830000e+00
 SP2dr TP1ah  1 3.650000e-01    2.830000e+00
 SP2dh TN6ar  1 3.650000e-01    2.830000e+00
 SP2dr TN6ah  1 3.650000e-01    2.830000e+00
 SP2dh TN5ar  1 3.650000e-01    2.570000e+00
 SP2dr TN5ah  1 3.650000e-01    2.570000e+00
 SP2dh TN4ar  1 3.650000e-01    2.340000e+00
 SP2dr TN4ah  1 3.650000e-01    2.340000e+00
 SP2dh TN3ar  1 3.650000e-01    2.110000e+00
 SP2dr TN3ah  1 3.650000e-01    2.110000e+00
 SP2dh TN2ar  1 3.650000e-01    2.110000e+00
 SP2dr TN2ah  1 3.650000e-01    2.110000e+00
 SP2dh TN1ar  1 3.650000e-01    2.110000e+00
 SP2dr TN1ah  1 3.650000e-01    2.110000e+00
 SP1dh TP1dr  1 3.650000e-01    2.340000e+00
 SP1dh TN6dr  1 3.650000e-01    2.340000e+00
 SP1dr TN6dh  1 3.650000e-01    2.340000e+00
 SP1dh TN5dr  1 3.650000e-01    2.110000e+00
 SP1dr TN5dh  1 3.650000e-01    2.110000e+00
 SP1dh TN4dr  1 3.650000e-01    2.110000e+00
 SP1dr TN4dh  1 3.650000e-01    2.110000e+00
 SP1dh TN3dr  1 3.650000e-01    1.750000e+00
 SP1dr TN3dh  1 3.650000e-01    1.750000e+00
 SP1dh TN2dr  1 3.650000e-01    1.750000e+00
 SP1dr TN2dh  1 3.650000e-01    1.750000e+00
 SP1dh TN1dr  1 3.650000e-01    1.750000e+00
 SP1dr TN1dh  1 3.650000e-01    1.750000e+00
 SP1dh TP1ar  1 3.650000e-01    2.830000e+00
 SP1dr TP1ah  1 3.650000e-01    2.830000e+00
 SP1dh TN6ar  1 3.650000e-01    2.830000e+00
 SP1dr TN6ah  1 3.650000e-01    2.830000e+00
 SP1dh TN5ar  1 3.650000e-01    2.570000e+00
 SP1dr TN5ah  1 3.650000e-01    2.570000e+00
 SP1dh TN4ar  1 3.650000e-01    2.570000e+00
 SP1dr TN4ah  1 3.650000e-01    2.570000e+00
 SP1dh TN3ar  1 3.650000e-01    2.110000e+00
 SP1dr TN3ah  1 3.650000e-01    2.110000e+00
 SP1dh TN2ar  1 3.650000e-01    2.110000e+00
 SP1dr TN2ah  1 3.650000e-01    2.110000e+00
 SP1dh TN1ar  1 3.650000e-01    2.110000e+00
 SP1dr TN1ah  1 3.650000e-01    2.110000e+00
 SN6dh TN6dr  1 3.650000e-01    2.340000e+00
 SN6dh TN5dr  1 3.650000e-01    2.340000e+00
 SN6dr TN5dh  1 3.650000e-01    2.340000e+00
 SN6dh TN4dr  1 3.650000e-01    2.340000e+00
 SN6dr TN4dh  1 3.650000e-01    2.340000e+00
 SN6dh TN3dr  1 3.650000e-01    1.910000e+00
 SN6dr TN3dh  1 3.650000e-01    1.910000e+00
 SN6dh TN2dr  1 3.650000e-01    1.750000e+00
 SN6dr TN2dh  1 3.650000e-01    1.750000e+00
 SN6dh TN1dr  1 3.650000e-01    1.750000e+00
 SN6dr TN1dh  1 3.650000e-01    1.750000e+00
 SN6dh TN6ar  1 3.650000e-01    2.830000e+00
 SN6dr TN6ah  1 3.650000e-01    2.830000e+00
 SN6dh TN5ar  1 3.650000e-01    2.830000e+00
 SN6dr TN5ah  1 3.650000e-01    2.830000e+00
 SN6dh TN4ar  1 3.650000e-01    2.830000e+00
 SN6dr TN4ah  1 3.650000e-01    2.830000e+00
 SN6dh TN3ar  1 3.650000e-01    2.340000e+00
 SN6dr TN3ah  1 3.650000e-01    2.340000e+00
 SN6dh TN2ar  1 3.650000e-01    2.110000e+00
 SN6dr TN2ah  1 3.650000e-01    2.110000e+00
 SN6dh TN1ar  1 3.650000e-01    2.110000e+00
 SN6dr TN1ah  1 3.650000e-01    2.110000e+00
 SN5dh TN5dr  1 3.650000e-01    2.110000e+00
 SN5dh TN4dr  1 3.650000e-01    2.110000e+00
 SN5dr TN4dh  1 3.650000e-01    2.110000e+00
 SN5dh TN3dr  1 3.650000e-01    1.910000e+00
 SN5dr TN3dh  1 3.650000e-01    1.910000e+00
 SN5dh TN2dr  1 3.650000e-01    1.910000e+00
 SN5dr TN2dh  1 3.650000e-01    1.910000e+00
 SN5dh TN1dr  1 3.650000e-01    1.750000e+00
 SN5dr TN1dh  1 3.650000e-01    1.750000e+00
 SN5dh TN5ar  1 3.650000e-01    2.570000e+00
 SN5dr TN5ah  1 3.650000e-01    2.570000e+00
 SN5dh TN4ar  1 3.650000e-01    2.570000e+00
 SN5dr TN4ah  1 3.650000e-01    2.570000e+00
 SN5dh TN3ar  1 3.650000e-01    2.340000e+00
 SN5dr TN3ah  1 3.650000e-01    2.340000e+00
 SN5dh TN2ar  1 3.650000e-01    2.340000e+00
 SN5dr TN2ah  1 3.650000e-01    2.340000e+00
 SN5dh TN1ar  1 3.650000e-01    2.110000e+00
 SN5dr TN1ah  1 3.650000e-01    2.110000e+00
 SN4dh TN4dr  1 3.650000e-01    2.110000e+00
 SN4dh TN3dr  1 3.650000e-01    1.910000e+00
 SN4dr TN3dh  1 3.650000e-01    1.910000e+00
 SN4dh TN2dr  1 3.650000e-01    1.910000e+00
 SN4dr TN2dh  1 3.650000e-01    1.910000e+00
 SN4dh TN1dr  1 3.650000e-01    1.750000e+00
 SN4dr TN1dh  1 3.650000e-01    1.750000e+00
 SN4dh TN4ar  1 3.650000e-01    2.570000e+00
 SN4dr TN4ah  1 3.650000e-01    2.570000e+00
 SN4dh TN3ar  1 3.650000e-01    2.340000e+00
 SN4dr TN3ah  1 3.650000e-01    2.340000e+00
 SN4dh TN2ar  1 3.650000e-01    2.340000e+00
 SN4dr TN2ah  1 3.650000e-01    2.340000e+00
 SN4dh TN1ar  1 3.650000e-01    2.110000e+00
 SN4dr TN1ah  1 3.650000e-01    2.110000e+00
 SN3dh TN3dr  1 3.650000e-01    1.910000e+00
 SN3dh TN2dr  1 3.650000e-01    1.910000e+00
 SN3dr TN2dh  1 3.650000e-01    1.910000e+00
 SN3dh TN1dr  1 3.650000e-01    1.750000e+00
 SN3dr TN1dh  1 3.650000e-01    1.750000e+00
 SN3dh TN3ar  1 3.650000e-01    2.340000e+00
 SN3dr TN3ah  1 3.650000e-01    2.340000e+00
 SN3dh TN2ar  1 3.650000e-01    2.340000e+00
 SN3dr TN2ah  1 3.650000e-01    2.340000e+00
 SN3dh TN1ar  1 3.650000e-01    2.110000e+00
 SN3dr TN1ah  1 3.650000e-01    2.110000e+00
 SN2dh TN2dr  1 3.650000e-01    1.910000e+00
 SN2dh TN1dr  1 3.650000e-01    1.750000e+00
 SN2dr TN1dh  1 3.650000e-01    1.750000e+00
 SN2dh TN2ar  1 3.650000e-01    2.340000e+00
 SN2dr TN2ah  1 3.650000e-01    2.340000e+00
 SN2dh TN1ar  1 3.650000e-01    2.110000e+00
 SN2dr TN1ah  1 3.650000e-01    2.110000e+00
 SN1dh TN1dr  1 3.650000e-01    1.910000e+00
 SN1dh TN1ar  1 3.650000e-01    2.340000e+00
 SN1dr TN1ah  1 3.650000e-01    2.340000e+00
 SP6ah TP6ar  1 3.650000e-01    3.640000e+00
 SP6ah TP5dr  1 3.650000e-01    3.930000e+00
 SP6ar TP5dh  1 3.650000e-01    3.930000e+00
 SP6ah TP4dr  1 3.650000e-01    3.640000e+00
 SP6ar TP4dh  1 3.650000e-01    3.640000e+00
 SP6ah TP3dr  1 3.650000e-01    3.370000e+00
 SP6ar TP3dh  1 3.650000e-01    3.370000e+00
 SP6ah TP2dr  1 3.650000e-01    3.370000e+00
 SP6ar TP2dh  1 3.650000e-01    3.370000e+00
 SP6ah TP1dr  1 3.650000e-01    3.100000e+00
 SP6ar TP1dh  1 3.650000e-01    3.100000e+00
 SP6ah TN6dr  1 3.650000e-01    2.830000e+00
 SP6ar TN6dh  1 3.650000e-01    2.830000e+00
 SP6ah TN5dr  1 3.650000e-01    2.340000e+00
 SP6ar TN5dh  1 3.650000e-01    2.340000e+00
 SP6ah TN4dr  1 3.650000e-01    2.110000e+00
 SP6ar TN4dh  1 3.650000e-01    2.110000e+00
 SP6ah TN3dr  1 3.650000e-01    1.750000e+00
 SP6ar TN3dh  1 3.650000e-01    1.750000e+00
 SP6ah TN2dr  1 3.660000e-01    1.600000e+00
 SP6ar TN2dh  1 3.660000e-01    1.600000e+00
 SP6ah TN1dr  1 3.780000e-01    1.450000e+00
 SP6ar TN1dh  1 3.780000e-01    1.450000e+00
 SP6ah TP5ar  1 3.650000e-01    3.370000e+00
 SP6ar TP5ah  1 3.650000e-01    3.370000e+00
 SP6ah TP4ar  1 3.650000e-01    3.100000e+00
 SP6ar TP4ah  1 3.650000e-01    3.100000e+00
 SP6ah TP3ar  1 3.650000e-01    2.830000e+00
 SP6ar TP3ah  1 3.650000e-01    2.830000e+00
 SP6ah TP2ar  1 3.650000e-01    2.830000e+00
 SP6ar TP2ah  1 3.650000e-01    2.830000e+00
 SP6ah TP1ar  1 3.650000e-01    2.570000e+00
 SP6ar TP1ah  1 3.650000e-01    2.570000e+00
 SP6ah TN6ar  1 3.650000e-01    2.340000e+00
 SP6ar TN6ah  1 3.650000e-01    2.340000e+00
 SP6ah TN5ar  1 3.650000e-01    1.910000e+00
 SP6ar TN5ah  1 3.650000e-01    1.910000e+00
 SP6ah TN4ar  1 3.650000e-01    1.750000e+00
 SP6ar TN4ah  1 3.650000e-01    1.750000e+00
 SP6ah TN3ar  1 3.650000e-01    1.750000e+00
 SP6ar TN3ah  1 3.650000e-01    1.750000e+00
 SP6ah TN2ar  1 3.660000e-01    1.600000e+00
 SP6ar TN2ah  1 3.660000e-01    1.600000e+00
 SP6ah TN1ar  1 3.780000e-01    1.450000e+00
 SP6ar TN1ah  1 3.780000e-01    1.450000e+00
 SP5ah TP5ar  1 3.650000e-01    3.100000e+00
 SP5ah TP4dr  1 3.650000e-01    3.370000e+00
 SP5ar TP4dh  1 3.650000e-01    3.370000e+00
 SP5ah TP3dr  1 3.650000e-01    3.100000e+00
 SP5ar TP3dh  1 3.650000e-01    3.100000e+00
 SP5ah TP2dr  1 3.650000e-01    3.100000e+00
 SP5ar TP2dh  1 3.650000e-01    3.100000e+00
 SP5ah TP1dr  1 3.650000e-01    2.830000e+00
 SP5ar TP1dh  1 3.650000e-01    2.830000e+00
 SP5ah TN6dr  1 3.650000e-01    2.570000e+00
 SP5ar TN6dh  1 3.650000e-01    2.570000e+00
 SP5ah TN5dr  1 3.650000e-01    2.340000e+00
 SP5ar TN5dh  1 3.650000e-01    2.340000e+00
 SP5ah TN4dr  1 3.650000e-01    2.340000e+00
 SP5ar TN4dh  1 3.650000e-01    2.340000e+00
 SP5ah TN3dr  1 3.650000e-01    1.750000e+00
 SP5ar TN3dh  1 3.650000e-01    1.750000e+00
 SP5ah TN2dr  1 3.660000e-01    1.600000e+00
 SP5ar TN2dh  1 3.660000e-01    1.600000e+00
 SP5ah TN1dr  1 3.780000e-01    1.450000e+00
 SP5ar TN1dh  1 3.780000e-01    1.450000e+00
 SP5ah TP4ar  1 3.650000e-01    2.830000e+00
 SP5ar TP4ah  1 3.650000e-01    2.830000e+00
 SP5ah TP3ar  1 3.650000e-01    2.570000e+00
 SP5ar TP3ah  1 3.650000e-01    2.570000e+00
 SP5ah TP2ar  1 3.650000e-01    2.570000e+00
 SP5ar TP2ah  1 3.650000e-01    2.570000e+00
 SP5ah TP1ar  1 3.650000e-01    2.340000e+00
 SP5ar TP1ah  1 3.650000e-01    2.340000e+00
 SP5ah TN6ar  1 3.650000e-01    2.110000e+00
 SP5ar TN6ah  1 3.650000e-01    2.110000e+00
 SP5ah TN5ar  1 3.650000e-01    1.910000e+00
 SP5ar TN5ah  1 3.650000e-01    1.910000e+00
 SP5ah TN4ar  1 3.650000e-01    1.910000e+00
 SP5ar TN4ah  1 3.650000e-01    1.910000e+00
 SP5ah TN3ar  1 3.650000e-01    1.750000e+00
 SP5ar TN3ah  1 3.650000e-01    1.750000e+00
 SP5ah TN2ar  1 3.660000e-01    1.600000e+00
 SP5ar TN2ah  1 3.660000e-01    1.600000e+00
 SP5ah TN1ar  1 3.780000e-01    1.450000e+00
 SP5ar TN1ah  1 3.780000e-01    1.450000e+00
 SP4ah TP4ar  1 3.650000e-01    2.830000e+00
 SP4ah TP3dr  1 3.650000e-01    3.100000e+00
 SP4ar TP3dh  1 3.650000e-01    3.100000e+00
 SP4ah TP2dr  1 3.650000e-01    3.100000e+00
 SP4ar TP2dh  1 3.650000e-01    3.100000e+00
 SP4ah TP1dr  1 3.650000e-01    2.830000e+00
 SP4ar TP1dh  1 3.650000e-01    2.830000e+00
 SP4ah TN6dr  1 3.650000e-01    2.570000e+00
 SP4ar TN6dh  1 3.650000e-01    2.570000e+00
 SP4ah TN5dr  1 3.650000e-01    2.340000e+00
 SP4ar TN5dh  1 3.650000e-01    2.340000e+00
 SP4ah TN4dr  1 3.650000e-01    2.340000e+00
 SP4ar TN4dh  1 3.650000e-01    2.340000e+00
 SP4ah TN3dr  1 3.650000e-01    2.110000e+00
 SP4ar TN3dh  1 3.650000e-01    2.110000e+00
 SP4ah TN2dr  1 3.650000e-01    1.750000e+00
 SP4ar TN2dh  1 3.650000e-01    1.750000e+00
 SP4ah TN1dr  1 3.660000e-01    1.600000e+00
 SP4ar TN1dh  1 3.660000e-01    1.600000e+00
 SP4ah TP3ar  1 3.650000e-01    2.570000e+00
 SP4ar TP3ah  1 3.650000e-01    2.570000e+00
 SP4ah TP2ar  1 3.650000e-01    2.570000e+00
 SP4ar TP2ah  1 3.650000e-01    2.570000e+00
 SP4ah TP1ar  1 3.650000e-01    2.340000e+00
 SP4ar TP1ah  1 3.650000e-01    2.340000e+00
 SP4ah TN6ar  1 3.650000e-01    2.110000e+00
 SP4ar TN6ah  1 3.650000e-01    2.110000e+00
 SP4ah TN5ar  1 3.650000e-01    1.910000e+00
 SP4ar TN5ah  1 3.650000e-01    1.910000e+00
 SP4ah TN4ar  1 3.650000e-01    1.910000e+00
 SP4ar TN4ah  1 3.650000e-01    1.910000e+00
 SP4ah TN3ar  1 3.650000e-01    1.750000e+00
 SP4ar TN3ah  1 3.650000e-01    1.750000e+00
 SP4ah TN2ar  1 3.650000e-01    1.750000e+00
 SP4ar TN2ah  1 3.650000e-01    1.750000e+00
 SP4ah TN1ar  1 3.660000e-01    1.600000e+00
 SP4ar TN1ah  1 3.660000e-01    1.600000e+00
 SP3ah TP3ar  1 3.650000e-01    2.570000e+00
 SP3ah TP2dr  1 3.650000e-01    3.100000e+00
 SP3ar TP2dh  1 3.650000e-01    3.100000e+00
 SP3ah TP1dr  1 3.650000e-01    2.830000e+00
 SP3ar TP1dh  1 3.650000e-01    2.830000e+00
 SP3ah TN6dr  1 3.650000e-01    2.570000e+00
 SP3ar TN6dh  1 3.650000e-01    2.570000e+00
 SP3ah TN5dr  1 3.650000e-01    2.340000e+00
 SP3ar TN5dh  1 3.650000e-01    2.340000e+00
 SP3ah TN4dr  1 3.650000e-01    2.340000e+00
 SP3ar TN4dh  1 3.650000e-01    2.340000e+00
 SP3ah TN3dr  1 3.650000e-01    2.110000e+00
 SP3ar TN3dh  1 3.650000e-01    2.110000e+00
 SP3ah TN2dr  1 3.650000e-01    2.110000e+00
 SP3ar TN2dh  1 3.650000e-01    2.110000e+00
 SP3ah TN1dr  1 3.650000e-01    1.750000e+00
 SP3ar TN1dh  1 3.650000e-01    1.750000e+00
 SP3ah TP2ar  1 3.650000e-01    2.570000e+00
 SP3ar TP2ah  1 3.650000e-01    2.570000e+00
 SP3ah TP1ar  1 3.650000e-01    2.340000e+00
 SP3ar TP1ah  1 3.650000e-01    2.340000e+00
 SP3ah TN6ar  1 3.650000e-01    2.110000e+00
 SP3ar TN6ah  1 3.650000e-01    2.110000e+00
 SP3ah TN5ar  1 3.650000e-01    1.910000e+00
 SP3ar TN5ah  1 3.650000e-01    1.910000e+00
 SP3ah TN4ar  1 3.650000e-01    1.910000e+00
 SP3ar TN4ah  1 3.650000e-01    1.910000e+00
 SP3ah TN3ar  1 3.650000e-01    1.750000e+00
 SP3ar TN3ah  1 3.650000e-01    1.750000e+00
 SP3ah TN2ar  1 3.650000e-01    1.750000e+00
 SP3ar TN2ah  1 3.650000e-01    1.750000e+00
 SP3ah TN1ar  1 3.650000e-01    1.750000e+00
 SP3ar TN1ah  1 3.650000e-01    1.750000e+00
 SP2ah TP2ar  1 3.650000e-01    2.570000e+00
 SP2ah TP1dr  1 3.650000e-01    2.830000e+00
 SP2ar TP1dh  1 3.650000e-01    2.830000e+00
 SP2ah TN6dr  1 3.650000e-01    2.830000e+00
 SP2ar TN6dh  1 3.650000e-01    2.830000e+00
 SP2ah TN5dr  1 3.650000e-01    2.570000e+00
 SP2ar TN5dh  1 3.650000e-01    2.570000e+00
 SP2ah TN4dr  1 3.650000e-01    2.340000e+00
 SP2ar TN4dh  1 3.650000e-01    2.340000e+00
 SP2ah TN3dr  1 3.650000e-01    2.110000e+00
 SP2ar TN3dh  1 3.650000e-01    2.110000e+00
 SP2ah TN2dr  1 3.650000e-01    2.110000e+00
 SP2ar TN2dh  1 3.650000e-01    2.110000e+00
 SP2ah TN1dr  1 3.650000e-01    2.110000e+00
 SP2ar TN1dh  1 3.650000e-01    2.110000e+00
 SP2ah TP1ar  1 3.650000e-01    2.340000e+00
 SP2ar TP1ah  1 3.650000e-01    2.340000e+00
 SP2ah TN6ar  1 3.650000e-01    2.340000e+00
 SP2ar TN6ah  1 3.650000e-01    2.340000e+00
 SP2ah TN5ar  1 3.650000e-01    2.110000e+00
 SP2ar TN5ah  1 3.650000e-01    2.110000e+00
 SP2ah TN4ar  1 3.650000e-01    1.910000e+00
 SP2ar TN4ah  1 3.650000e-01    1.910000e+00
 SP2ah TN3ar  1 3.650000e-01    1.750000e+00
 SP2ar TN3ah  1 3.650000e-01    1.750000e+00
 SP2ah TN2ar  1 3.650000e-01    1.750000e+00
 SP2ar TN2ah  1 3.650000e-01    1.750000e+00
 SP2ah TN1ar  1 3.650000e-01    1.750000e+00
 SP2ar TN1ah  1 3.650000e-01    1.750000e+00
 SP1ah TP1ar  1 3.650000e-01    2.340000e+00
 SP1ah TN6dr  1 3.650000e-01    2.830000e+00
 SP1ar TN6dh  1 3.650000e-01    2.830000e+00
 SP1ah TN5dr  1 3.650000e-01    2.570000e+00
 SP1ar TN5dh  1 3.650000e-01    2.570000e+00
 SP1ah TN4dr  1 3.650000e-01    2.570000e+00
 SP1ar TN4dh  1 3.650000e-01    2.570000e+00
 SP1ah TN3dr  1 3.650000e-01    2.110000e+00
 SP1ar TN3dh  1 3.650000e-01    2.110000e+00
 SP1ah TN2dr  1 3.650000e-01    2.110000e+00
 SP1ar TN2dh  1 3.650000e-01    2.110000e+00
 SP1ah TN1dr  1 3.650000e-01    2.110000e+00
 SP1ar TN1dh  1 3.650000e-01    2.110000e+00
 SP1ah TN6ar  1 3.650000e-01    2.340000e+00
 SP1ar TN6ah  1 3.650000e-01    2.340000e+00
 SP1ah TN5ar  1 3.650000e-01    2.110000e+00
 SP1ar TN5ah  1 3.650000e-01    2.110000e+00
 SP1ah TN4ar  1 3.650000e-01    2.110000e+00
 SP1ar TN4ah  1 3.650000e-01    2.110000e+00
 SP1ah TN3ar  1 3.650000e-01    1.750000e+00
 SP1ar TN3ah  1 3.650000e-01    1.750000e+00
 SP1ah TN2ar  1 3.650000e-01    1.750000e+00
 SP1ar TN2ah  1 3.650000e-01    1.750000e+00
 SP1ah TN1ar  1 3.650000e-01    1.750000e+00
 SP1ar TN1ah  1 3.650000e-01    1.750000e+00
 SN6ah TN6ar  1 3.650000e-01    2.340000e+00
 SN6ah TN5dr  1 3.650000e-01    2.830000e+00
 SN6ar TN5dh  1 3.650000e-01    2.830000e+00
 SN6ah TN4dr  1 3.650000e-01    2.830000e+00
 SN6ar TN4dh  1 3.650000e-01    2.830000e+00
 SN6ah TN3dr  1 3.650000e-01    2.340000e+00
 SN6ar TN3dh  1 3.650000e-01    2.340000e+00
 SN6ah TN2dr  1 3.650000e-01    2.110000e+00
 SN6ar TN2dh  1 3.650000e-01    2.110000e+00
 SN6ah TN1dr  1 3.650000e-01    2.110000e+00
 SN6ar TN1dh  1 3.650000e-01    2.110000e+00
 SN6ah TN5ar  1 3.650000e-01    2.340000e+00
 SN6ar TN5ah  1 3.650000e-01    2.340000e+00
 SN6ah TN4ar  1 3.650000e-01    2.340000e+00
 SN6ar TN4ah  1 3.650000e-01    2.340000e+00
 SN6ah TN3ar  1 3.650000e-01    1.910000e+00
 SN6ar TN3ah  1 3.650000e-01    1.910000e+00
 SN6ah TN2ar  1 3.650000e-01    1.750000e+00
 SN6ar TN2ah  1 3.650000e-01    1.750000e+00
 SN6ah TN1ar  1 3.650000e-01    1.750000e+00
 SN6ar TN1ah  1 3.650000e-01    1.750000e+00
 SN5ah TN5ar  1 3.650000e-01    2.110000e+00
 SN5ah TN4dr  1 3.650000e-01    2.570000e+00
 SN5ar TN4dh  1 3.650000e-01    2.570000e+00
 SN5ah TN3dr  1 3.650000e-01    2.340000e+00
 SN5ar TN3dh  1 3.650000e-01    2.340000e+00
 SN5ah TN2dr  1 3.650000e-01    2.340000e+00
 SN5ar TN2dh  1 3.650000e-01    2.340000e+00
 SN5ah TN1dr  1 3.650000e-01    2.110000e+00
 SN5ar TN1dh  1 3.650000e-01    2.110000e+00
 SN5ah TN4ar  1 3.650000e-01    2.110000e+00
 SN5ar TN4ah  1 3.650000e-01    2.110000e+00
 SN5ah TN3ar  1 3.650000e-01    1.910000e+00
 SN5ar TN3ah  1 3.650000e-01    1.910000e+00
 SN5ah TN2ar  1 3.650000e-01    1.910000e+00
 SN5ar TN2ah  1 3.650000e-01    1.910000e+00
 SN5ah TN1ar  1 3.650000e-01    1.750000e+00
 SN5ar TN1ah  1 3.650000e-01    1.750000e+00
 SN4ah TN4ar  1 3.650000e-01    2.110000e+00
 SN4ah TN3dr  1 3.650000e-01    2.340000e+00
 SN4ar TN3dh  1 3.650000e-01    2.340000e+00
 SN4ah TN2dr  1 3.650000e-01    2.340000e+00
 SN4ar TN2dh  1 3.650000e-01    2.340000e+00
 SN4ah TN1dr  1 3.650000e-01    2.110000e+00
 SN4ar TN1dh  1 3.650000e-01    2.110000e+00
 SN4ah TN3ar  1 3.650000e-01    1.910000e+00
 SN4ar TN3ah  1 3.650000e-01    1.910000e+00
 SN4ah TN2ar  1 3.650000e-01    1.910000e+00
 SN4ar TN2ah  1 3.650000e-01    1.910000e+00
 SN4ah TN1ar  1 3.650000e-01    1.750000e+00
 SN4ar TN1ah  1 3.650000e-01    1.750000e+00
 SN3ah TN3ar  1 3.650000e-01    1.910000e+00
 SN3ah TN2dr  1 3.650000e-01    2.340000e+00
 SN3ar TN2dh  1 3.650000e-01    2.340000e+00
 SN3ah TN1dr  1 3.650000e-01    2.110000e+00
 SN3ar TN1dh  1 3.650000e-01    2.110000e+00
 SN3ah TN2ar  1 3.650000e-01    1.910000e+00
 SN3ar TN2ah  1 3.650000e-01    1.910000e+00
 SN3ah TN1ar  1 3.650000e-01    1.750000e+00
 SN3ar TN1ah  1 3.650000e-01    1.750000e+00
 SN2ah TN2ar  1 3.650000e-01    1.910000e+00
 SN2ah TN1dr  1 3.650000e-01    2.110000e+00
 SN2ar TN1dh  1 3.650000e-01    2.110000e+00
 SN2ah TN1ar  1 3.650000e-01    1.750000e+00
 SN2ar TN1ah  1 3.650000e-01    1.750000e+00
 SN1ah TN1ar  1 3.650000e-01    1.910000e+00
  SC6h  TC6r  1 3.650000e-01    2.110000e+00
  SC6h  TC5r  1 3.650000e-01    1.910000e+00
  SC6r  TC5h  1 3.650000e-01    1.910000e+00
  SC6h  TC4r  1 3.650000e-01    1.910000e+00
  SC6r  TC4h  1 3.650000e-01    1.910000e+00
  SC6h  TC3r  1 3.650000e-01    1.750000e+00
  SC6r  TC3h  1 3.650000e-01    1.750000e+00
  SC6h  TC2r  1 3.660000e-01    1.600000e+00
  SC6r  TC2h  1 3.660000e-01    1.600000e+00
  SC6h  TC1r  1 3.780000e-01    1.450000e+00
  SC6r  TC1h  1 3.780000e-01    1.450000e+00
  SC6h  TX4r  1 3.650000e-01    1.910000e+00
  SC6r  TX4h  1 3.650000e-01    1.910000e+00
  SC6h  TX3r  1 3.650000e-01    1.910000e+00
  SC6r  TX3h  1 3.650000e-01    1.910000e+00
  SC6h  TX2r  1 3.650000e-01    1.910000e+00
  SC6r  TX2h  1 3.650000e-01    1.910000e+00
  SC6h  TX1r  1 3.650000e-01    1.910000e+00
  SC6r  TX1h  1 3.650000e-01    1.910000e+00
  SC5h  TC5r  1 3.650000e-01    1.910000e+00
  SC5h  TC4r  1 3.650000e-01    1.910000e+00
  SC5r  TC4h  1 3.650000e-01    1.910000e+00
  SC5h  TC3r  1 3.650000e-01    1.750000e+00
  SC5r  TC3h  1 3.650000e-01    1.750000e+00
  SC5h  TC2r  1 3.660000e-01    1.600000e+00
  SC5r  TC2h  1 3.660000e-01    1.600000e+00
  SC5h  TC1r  1 3.660000e-01    1.600000e+00
  SC5r  TC1h  1 3.660000e-01    1.600000e+00
  SC5h  TX4r  1 3.650000e-01    1.750000e+00
  SC5r  TX4h  1 3.650000e-01    1.750000e+00
  SC5h  TX3r  1 3.650000e-01    1.750000e+00
  SC5r  TX3h  1 3.650000e-01    1.750000e+00
  SC5h  TX2r  1 3.650000e-01    1.750000e+00
  SC5r  TX2h  1 3.650000e-01    1.750000e+00
  SC5h  TX1r  1 3.650000e-01    1.910000e+00
  SC5r  TX1h  1 3.650000e-01    1.910000e+00
  SC4h  TC4r  1 3.650000e-01    1.910000e+00
  SC4h  TC3r  1 3.650000e-01    1.910000e+00
  SC4r  TC3h  1 3.650000e-01    1.910000e+00
  SC4h  TC2r  1 3.650000e-01    1.750000e+00
  SC4r  TC2h  1 3.650000e-01    1.750000e+00
  SC4h  TC1r  1 3.660000e-01    1.600000e+00
  SC4r  TC1h  1 3.660000e-01    1.600000e+00
  SC4h  TX4r  1 3.650000e-01    1.750000e+00
  SC4r  TX4h  1 3.650000e-01    1.750000e+00
  SC4h  TX3r  1 3.650000e-01    1.750000e+00
  SC4r  TX3h  1 3.650000e-01    1.750000e+00
  SC4h  TX2r  1 3.650000e-01    1.750000e+00
  SC4r  TX2h  1 3.650000e-01    1.750000e+00
  SC4h  TX1r  1 3.650000e-01    1.910000e+00
  SC4r  TX1h  1 3.650000e-01    1.910000e+00
  SC3h  TC3r  1 3.650000e-01    1.910000e+00
  SC3h  TC2r  1 3.650000e-01    1.910000e+00
  SC3r  TC2h  1 3.650000e-01    1.910000e+00
  SC3h  TC1r  1 3.650000e-01    1.910000e+00
  SC3r  TC1h  1 3.650000e-01    1.910000e+00
  SC3h  TX4r  1 3.650000e-01    1.750000e+00
  SC3r  TX4h  1 3.650000e-01    1.750000e+00
  SC3h  TX3r  1 3.650000e-01    1.750000e+00
  SC3r  TX3h  1 3.650000e-01    1.750000e+00
  SC3h  TX2r  1 3.650000e-01    1.750000e+00
  SC3r  TX2h  1 3.650000e-01    1.750000e+00
  SC3h  TX1r  1 3.650000e-01    1.910000e+00
  SC3r  TX1h  1 3.650000e-01    1.910000e+00
  SC2h  TC2r  1 3.650000e-01    1.910000e+00
  SC2h  TC1r  1 3.650000e-01    2.110000e+00
  SC2r  TC1h  1 3.650000e-01    2.110000e+00
  SC2h  TX4r  1 3.780000e-01    1.450000e+00
  SC2r  TX4h  1 3.780000e-01    1.450000e+00
  SC2h  TX3r  1 3.650000e-01    1.750000e+00
  SC2r  TX3h  1 3.650000e-01    1.750000e+00
  SC2h  TX2r  1 3.650000e-01    1.750000e+00
  SC2r  TX2h  1 3.650000e-01    1.750000e+00
  SC2h  TX1r  1 3.650000e-01    1.750000e+00
  SC2r  TX1h  1 3.650000e-01    1.750000e+00
  SC1h  TC1r  1 3.650000e-01    1.910000e+00
  SC1h  TX4r  1 3.780000e-01    1.450000e+00
  SC1r  TX4h  1 3.780000e-01    1.450000e+00
  SC1h  TX3r  1 3.650000e-01    1.750000e+00
  SC1r  TX3h  1 3.650000e-01    1.750000e+00
  SC1h  TX2r  1 3.650000e-01    1.750000e+00
  SC1r  TX2h  1 3.650000e-01    1.750000e+00
  SC1h  TX1r  1 3.650000e-01    1.750000e+00
  SC1r  TX1h  1 3.650000e-01    1.750000e+00
  SX4h  TX4r  1 3.650000e-01    1.910000e+00
  SX4h  TX3r  1 3.650000e-01    1.910000e+00
  SX4r  TX3h  1 3.650000e-01    1.910000e+00
  SX4h  TX2r  1 3.650000e-01    1.910000e+00
  SX4r  TX2h  1 3.650000e-01    1.910000e+00
  SX4h  TX1r  1 3.650000e-01    1.910000e+00
  SX4r  TX1h  1 3.650000e-01    1.910000e+00
  SX3h  TX3r  1 3.650000e-01    1.910000e+00
  SX3h  TX2r  1 3.650000e-01    2.110000e+00
  SX3r  TX2h  1 3.650000e-01    2.110000e+00
  SX3h  TX1r  1 3.650000e-01    2.110000e+00
  SX3r  TX1h  1 3.650000e-01    2.110000e+00
  SX2h  TX2r  1 3.650000e-01    2.110000e+00
  SX2h  TX1r  1 3.650000e-01    2.110000e+00
  SX2r  TX1h  1 3.650000e-01    2.110000e+00
  SX1h  TX1r  1 3.650000e-01    2.340000e+00
 SC6vh TC6vr  1 3.650000e-01    1.910000e+00
 SC6vh TC5vr  1 3.650000e-01    1.750000e+00
 SC6vr TC5vh  1 3.650000e-01    1.750000e+00
 SC6vh TC4vr  1 3.650000e-01    1.750000e+00
 SC6vr TC4vh  1 3.650000e-01    1.750000e+00
 SC6vh TC3vr  1 3.660000e-01    1.600000e+00
 SC6vr TC3vh  1 3.660000e-01    1.600000e+00
 SC6vh TC2vr  1 3.780000e-01    1.450000e+00
 SC6vr TC2vh  1 3.780000e-01    1.450000e+00
 SC6vh TC1vr  1 3.940000e-01    1.290000e+00
 SC6vr TC1vh  1 3.940000e-01    1.290000e+00
 SC6vh TX4vr  1 3.650000e-01    1.750000e+00
 SC6vr TX4vh  1 3.650000e-01    1.750000e+00
 SC6vh TX3vr  1 3.650000e-01    1.750000e+00
 SC6vr TX3vh  1 3.650000e-01    1.750000e+00
 SC6vh TX2vr  1 3.650000e-01    1.750000e+00
 SC6vr TX2vh  1 3.650000e-01    1.750000e+00
 SC6vh TX1vr  1 3.650000e-01    1.750000e+00
 SC6vr TX1vh  1 3.650000e-01    1.750000e+00
 SC6vh TC6er  1 3.650000e-01    2.570000e+00
 SC6vr TC6eh  1 3.650000e-01    2.570000e+00
 SC6vh TC5er  1 3.650000e-01    2.340000e+00
 SC6vr TC5eh  1 3.650000e-01    2.340000e+00
 SC6vh TC4er  1 3.650000e-01    2.340000e+00
 SC6vr TC4eh  1 3.650000e-01    2.340000e+00
 SC6vh TC3er  1 3.650000e-01    2.110000e+00
 SC6vr TC3eh  1 3.650000e-01    2.110000e+00
 SC6vh TC2er  1 3.650000e-01    1.910000e+00
 SC6vr TC2eh  1 3.650000e-01    1.910000e+00
 SC6vh TC1er  1 3.650000e-01    1.750000e+00
 SC6vr TC1eh  1 3.650000e-01    1.750000e+00
 SC6vh TX4er  1 3.650000e-01    2.340000e+00
 SC6vr TX4eh  1 3.650000e-01    2.340000e+00
 SC6vh TX3er  1 3.650000e-01    2.340000e+00
 SC6vr TX3eh  1 3.650000e-01    2.340000e+00
 SC6vh TX2er  1 3.650000e-01    2.340000e+00
 SC6vr TX2eh  1 3.650000e-01    2.340000e+00
 SC6vh TX1er  1 3.650000e-01    2.340000e+00
 SC6vr TX1eh  1 3.650000e-01    2.340000e+00
 SC5vh TC5vr  1 3.650000e-01    1.750000e+00
 SC5vh TC4vr  1 3.650000e-01    1.750000e+00
 SC5vr TC4vh  1 3.650000e-01    1.750000e+00
 SC5vh TC3vr  1 3.660000e-01    1.600000e+00
 SC5vr TC3vh  1 3.660000e-01    1.600000e+00
 SC5vh TC2vr  1 3.780000e-01    1.450000e+00
 SC5vr TC2vh  1 3.780000e-01    1.450000e+00
 SC5vh TC1vr  1 3.780000e-01    1.450000e+00
 SC5vr TC1vh  1 3.780000e-01    1.450000e+00
 SC5vh TX4vr  1 3.660000e-01    1.600000e+00
 SC5vr TX4vh  1 3.660000e-01    1.600000e+00
 SC5vh TX3vr  1 3.660000e-01    1.600000e+00
 SC5vr TX3vh  1 3.660000e-01    1.600000e+00
 SC5vh TX2vr  1 3.660000e-01    1.600000e+00
 SC5vr TX2vh  1 3.660000e-01    1.600000e+00
 SC5vh TX1vr  1 3.650000e-01    1.750000e+00
 SC5vr TX1vh  1 3.650000e-01    1.750000e+00
 SC5vh TC5er  1 3.650000e-01    2.340000e+00
 SC5vr TC5eh  1 3.650000e-01    2.340000e+00
 SC5vh TC4er  1 3.650000e-01    2.340000e+00
 SC5vr TC4eh  1 3.650000e-01    2.340000e+00
 SC5vh TC3er  1 3.650000e-01    2.110000e+00
 SC5vr TC3eh  1 3.650000e-01    2.110000e+00
 SC5vh TC2er  1 3.650000e-01    1.910000e+00
 SC5vr TC2eh  1 3.650000e-01    1.910000e+00
 SC5vh TC1er  1 3.650000e-01    1.910000e+00
 SC5vr TC1eh  1 3.650000e-01    1.910000e+00
 SC5vh TX4er  1 3.650000e-01    2.110000e+00
 SC5vr TX4eh  1 3.650000e-01    2.110000e+00
 SC5vh TX3er  1 3.650000e-01    2.110000e+00
 SC5vr TX3eh  1 3.650000e-01    2.110000e+00
 SC5vh TX2er  1 3.650000e-01    2.110000e+00
 SC5vr TX2eh  1 3.650000e-01    2.110000e+00
 SC5vh TX1er  1 3.650000e-01    2.340000e+00
 SC5vr TX1eh  1 3.650000e-01    2.340000e+00
 SC4vh TC4vr  1 3.650000e-01    1.750000e+00
 SC4vh TC3vr  1 3.650000e-01    1.750000e+00
 SC4vr TC3vh  1 3.650000e-01    1.750000e+00
 SC4vh TC2vr  1 3.660000e-01    1.600000e+00
 SC4vr TC2vh  1 3.660000e-01    1.600000e+00
 SC4vh TC1vr  1 3.780000e-01    1.450000e+00
 SC4vr TC1vh  1 3.780000e-01    1.450000e+00
 SC4vh TX4vr  1 3.660000e-01    1.600000e+00
 SC4vr TX4vh  1 3.660000e-01    1.600000e+00
 SC4vh TX3vr  1 3.660000e-01    1.600000e+00
 SC4vr TX3vh  1 3.660000e-01    1.600000e+00
 SC4vh TX2vr  1 3.660000e-01    1.600000e+00
 SC4vr TX2vh  1 3.660000e-01    1.600000e+00
 SC4vh TX1vr  1 3.650000e-01    1.750000e+00
 SC4vr TX1vh  1 3.650000e-01    1.750000e+00
 SC4vh TC4er  1 3.650000e-01    2.340000e+00
 SC4vr TC4eh  1 3.650000e-01    2.340000e+00
 SC4vh TC3er  1 3.650000e-01    2.340000e+00
 SC4vr TC3eh  1 3.650000e-01    2.340000e+00
 SC4vh TC2er  1 3.650000e-01    2.110000e+00
 SC4vr TC2eh  1 3.650000e-01    2.110000e+00
 SC4vh TC1er  1 3.650000e-01    1.910000e+00
 SC4vr TC1eh  1 3.650000e-01    1.910000e+00
 SC4vh TX4er  1 3.650000e-01    2.110000e+00
 SC4vr TX4eh  1 3.650000e-01    2.110000e+00
 SC4vh TX3er  1 3.650000e-01    2.110000e+00
 SC4vr TX3eh  1 3.650000e-01    2.110000e+00
 SC4vh TX2er  1 3.650000e-01    2.110000e+00
 SC4vr TX2eh  1 3.650000e-01    2.110000e+00
 SC4vh TX1er  1 3.650000e-01    2.340000e+00
 SC4vr TX1eh  1 3.650000e-01    2.340000e+00
 SC3vh TC3vr  1 3.650000e-01    1.750000e+00
 SC3vh TC2vr  1 3.650000e-01    1.750000e+00
 SC3vr TC2vh  1 3.650000e-01    1.750000e+00
 SC3vh TC1vr  1 3.650000e-01    1.750000e+00
 SC3vr TC1vh  1 3.650000e-01    1.750000e+00
 SC3vh TX4vr  1 3.660000e-01    1.600000e+00
 SC3vr TX4vh  1 3.660000e-01    1.600000e+00
 SC3vh TX3vr  1 3.660000e-01    1.600000e+00
 SC3vr TX3vh  1 3.660000e-01    1.600000e+00
 SC3vh TX2vr  1 3.660000e-01    1.600000e+00
 SC3vr TX2vh  1 3.660000e-01    1.600000e+00
 SC3vh TX1vr  1 3.650000e-01    1.750000e+00
 SC3vr TX1vh  1 3.650000e-01    1.750000e+00
 SC3vh TC3er  1 3.650000e-01    2.340000e+00
 SC3vr TC3eh  1 3.650000e-01    2.340000e+00
 SC3vh TC2er  1 3.650000e-01    2.340000e+00
 SC3vr TC2eh  1 3.650000e-01    2.340000e+00
 SC3vh TC1er  1 3.650000e-01    2.340000e+00
 SC3vr TC1eh  1 3.650000e-01    2.340000e+00
 SC3vh TX4er  1 3.650000e-01    2.110000e+00
 SC3vr TX4eh  1 3.650000e-01    2.110000e+00
 SC3vh TX3er  1 3.650000e-01    2.110000e+00
 SC3vr TX3eh  1 3.650000e-01    2.110000e+00
 SC3vh TX2er  1 3.650000e-01    2.110000e+00
 SC3vr TX2eh  1 3.650000e-01    2.110000e+00
 SC3vh TX1er  1 3.650000e-01    2.340000e+00
 SC3vr TX1eh  1 3.650000e-01    2.340000e+00
 SC2vh TC2vr  1 3.650000e-01    1.750000e+00
 SC2vh TC1vr  1 3.650000e-01    1.910000e+00
 SC2vr TC1vh  1 3.650000e-01    1.910000e+00
 SC2vh TX4vr  1 3.940000e-01    1.290000e+00
 SC2vr TX4vh  1 3.940000e-01    1.290000e+00
 SC2vh TX3vr  1 3.660000e-01    1.600000e+00
 SC2vr TX3vh  1 3.660000e-01    1.600000e+00
 SC2vh TX2vr  1 3.660000e-01    1.600000e+00
 SC2vr TX2vh  1 3.660000e-01    1.600000e+00
 SC2vh TX1vr  1 3.660000e-01    1.600000e+00
 SC2vr TX1vh  1 3.660000e-01    1.600000e+00
 SC2vh TC2er  1 3.650000e-01    2.340000e+00
 SC2vr TC2eh  1 3.650000e-01    2.340000e+00
 SC2vh TC1er  1 3.650000e-01    2.570000e+00
 SC2vr TC1eh  1 3.650000e-01    2.570000e+00
 SC2vh TX4er  1 3.650000e-01    1.750000e+00
 SC2vr TX4eh  1 3.650000e-01    1.750000e+00
 SC2vh TX3er  1 3.650000e-01    2.110000e+00
 SC2vr TX3eh  1 3.650000e-01    2.110000e+00
 SC2vh TX2er  1 3.650000e-01    2.110000e+00
 SC2vr TX2eh  1 3.650000e-01    2.110000e+00
 SC2vh TX1er  1 3.650000e-01    2.110000e+00
 SC2vr TX1eh  1 3.650000e-01    2.110000e+00
 SC1vh TC1vr  1 3.650000e-01    1.750000e+00
 SC1vh TX4vr  1 3.940000e-01    1.290000e+00
 SC1vr TX4vh  1 3.940000e-01    1.290000e+00
 SC1vh TX3vr  1 3.660000e-01    1.600000e+00
 SC1vr TX3vh  1 3.660000e-01    1.600000e+00
 SC1vh TX2vr  1 3.660000e-01    1.600000e+00
 SC1vr TX2vh  1 3.660000e-01    1.600000e+00
 SC1vh TX1vr  1 3.660000e-01    1.600000e+00
 SC1vr TX1vh  1 3.660000e-01    1.600000e+00
 SC1vh TC1er  1 3.650000e-01    2.340000e+00
 SC1vr TC1eh  1 3.650000e-01    2.340000e+00
 SC1vh TX4er  1 3.650000e-01    1.750000e+00
 SC1vr TX4eh  1 3.650000e-01    1.750000e+00
 SC1vh TX3er  1 3.650000e-01    2.110000e+00
 SC1vr TX3eh  1 3.650000e-01    2.110000e+00
 SC1vh TX2er  1 3.650000e-01    2.110000e+00
 SC1vr TX2eh  1 3.650000e-01    2.110000e+00
 SC1vh TX1er  1 3.650000e-01    2.110000e+00
 SC1vr TX1eh  1 3.650000e-01    2.110000e+00
 SX4vh TX4vr  1 3.650000e-01    1.750000e+00
 SX4vh TX3vr  1 3.650000e-01    1.750000e+00
 SX4vr TX3vh  1 3.650000e-01    1.750000e+00
 SX4vh TX2vr  1 3.650000e-01    1.750000e+00
 SX4vr TX2vh  1 3.650000e-01    1.750000e+00
 SX4vh TX1vr  1 3.650000e-01    1.750000e+00
 SX4vr TX1vh  1 3.650000e-01    1.750000e+00
 SX4vh TX4er  1 3.650000e-01    2.340000e+00
 SX4vr TX4eh  1 3.650000e-01    2.340000e+00
 SX4vh TX3er  1 3.650000e-01    2.340000e+00
 SX4vr TX3eh  1 3.650000e-01    2.340000e+00
 SX4vh TX2er  1 3.650000e-01    2.340000e+00
 SX4vr TX2eh  1 3.650000e-01    2.340000e+00
 SX4vh TX1er  1 3.650000e-01    2.340000e+00
 SX4vr TX1eh  1 3.650000e-01    2.340000e+00
 SX3vh TX3vr  1 3.650000e-01    1.750000e+00
 SX3vh TX2vr  1 3.650000e-01    1.910000e+00
 SX3vr TX2vh  1 3.650000e-01    1.910000e+00
 SX3vh TX1vr  1 3.650000e-01    1.910000e+00
 SX3vr TX1vh  1 3.650000e-01    1.910000e+00
 SX3vh TX3er  1 3.650000e-01    2.340000e+00
 SX3vr TX3eh  1 3.650000e-01    2.340000e+00
 SX3vh TX2er  1 3.650000e-01    2.570000e+00
 SX3vr TX2eh  1 3.650000e-01    2.570000e+00
 SX3vh TX1er  1 3.650000e-01    2.570000e+00
 SX3vr TX1eh  1 3.650000e-01    2.570000e+00
 SX2vh TX2vr  1 3.650000e-01    1.910000e+00
 SX2vh TX1vr  1 3.650000e-01    1.910000e+00
 SX2vr TX1vh  1 3.650000e-01    1.910000e+00
 SX2vh TX2er  1 3.650000e-01    2.570000e+00
 SX2vr TX2eh  1 3.650000e-01    2.570000e+00
 SX2vh TX1er  1 3.650000e-01    2.570000e+00
 SX2vr TX1eh  1 3.650000e-01    2.570000e+00
 SX1vh TX1vr  1 3.650000e-01    2.110000e+00
 SX1vh TX1er  1 3.650000e-01    2.830000e+00
 SX1vr TX1eh  1 3.650000e-01    2.830000e+00
 SC6eh TC6er  1 3.650000e-01    1.910000e+00
 SC6eh TC5vr  1 3.650000e-01    2.340000e+00
 SC6er TC5vh  1 3.650000e-01    2.340000e+00
 SC6eh TC4vr  1 3.650000e-01    2.340000e+00
 SC6er TC4vh  1 3.650000e-01    2.340000e+00
 SC6eh TC3vr  1 3.650000e-01    2.110000e+00
 SC6er TC3vh  1 3.650000e-01    2.110000e+00
 SC6eh TC2vr  1 3.650000e-01    1.910000e+00
 SC6er TC2vh  1 3.650000e-01    1.910000e+00
 SC6eh TC1vr  1 3.650000e-01    1.750000e+00
 SC6er TC1vh  1 3.650000e-01    1.750000e+00
 SC6eh TX4vr  1 3.650000e-01    2.340000e+00
 SC6er TX4vh  1 3.650000e-01    2.340000e+00
 SC6eh TX3vr  1 3.650000e-01    2.340000e+00
 SC6er TX3vh  1 3.650000e-01    2.340000e+00
 SC6eh TX2vr  1 3.650000e-01    2.340000e+00
 SC6er TX2vh  1 3.650000e-01    2.340000e+00
 SC6eh TX1vr  1 3.650000e-01    2.340000e+00
 SC6er TX1vh  1 3.650000e-01    2.340000e+00
 SC6eh TC5er  1 3.650000e-01    1.750000e+00
 SC6er TC5eh  1 3.650000e-01    1.750000e+00
 SC6eh TC4er  1 3.650000e-01    1.750000e+00
 SC6er TC4eh  1 3.650000e-01    1.750000e+00
 SC6eh TC3er  1 3.660000e-01    1.600000e+00
 SC6er TC3eh  1 3.660000e-01    1.600000e+00
 SC6eh TC2er  1 3.780000e-01    1.450000e+00
 SC6er TC2eh  1 3.780000e-01    1.450000e+00
 SC6eh TC1er  1 3.940000e-01    1.290000e+00
 SC6er TC1eh  1 3.940000e-01    1.290000e+00
 SC6eh TX4er  1 3.650000e-01    1.750000e+00
 SC6er TX4eh  1 3.650000e-01    1.750000e+00
 SC6eh TX3er  1 3.650000e-01    1.750000e+00
 SC6er TX3eh  1 3.650000e-01    1.750000e+00
 SC6eh TX2er  1 3.650000e-01    1.750000e+00
 SC6er TX2eh  1 3.650000e-01    1.750000e+00
 SC6eh TX1er  1 3.650000e-01    1.750000e+00
 SC6er TX1eh  1 3.650000e-01    1.750000e+00
 SC5eh TC5er  1 3.650000e-01    1.750000e+00
 SC5eh TC4vr  1 3.650000e-01    2.340000e+00
 SC5er TC4vh  1 3.650000e-01    2.340000e+00
 SC5eh TC3vr  1 3.650000e-01    2.110000e+00
 SC5er TC3vh  1 3.650000e-01    2.110000e+00
 SC5eh TC2vr  1 3.650000e-01    1.910000e+00
 SC5er TC2vh  1 3.650000e-01    1.910000e+00
 SC5eh TC1vr  1 3.650000e-01    1.910000e+00
 SC5er TC1vh  1 3.650000e-01    1.910000e+00
 SC5eh TX4vr  1 3.650000e-01    2.110000e+00
 SC5er TX4vh  1 3.650000e-01    2.110000e+00
 SC5eh TX3vr  1 3.650000e-01    2.110000e+00
 SC5er TX3vh  1 3.650000e-01    2.110000e+00
 SC5eh TX2vr  1 3.650000e-01    2.110000e+00
 SC5er TX2vh  1 3.650000e-01    2.110000e+00
 SC5eh TX1vr  1 3.650000e-01    2.340000e+00
 SC5er TX1vh  1 3.650000e-01    2.340000e+00
 SC5eh TC4er  1 3.650000e-01    1.750000e+00
 SC5er TC4eh  1 3.650000e-01    1.750000e+00
 SC5eh TC3er  1 3.660000e-01    1.600000e+00
 SC5er TC3eh  1 3.660000e-01    1.600000e+00
 SC5eh TC2er  1 3.780000e-01    1.450000e+00
 SC5er TC2eh  1 3.780000e-01    1.450000e+00
 SC5eh TC1er  1 3.780000e-01    1.450000e+00
 SC5er TC1eh  1 3.780000e-01    1.450000e+00
 SC5eh TX4er  1 3.660000e-01    1.600000e+00
 SC5er TX4eh  1 3.660000e-01    1.600000e+00
 SC5eh TX3er  1 3.660000e-01    1.600000e+00
 SC5er TX3eh  1 3.660000e-01    1.600000e+00
 SC5eh TX2er  1 3.660000e-01    1.600000e+00
 SC5er TX2eh  1 3.660000e-01    1.600000e+00
 SC5eh TX1er  1 3.650000e-01    1.750000e+00
 SC5er TX1eh  1 3.650000e-01    1.750000e+00
 SC4eh TC4er  1 3.650000e-01    1.750000e+00
 SC4eh TC3vr  1 3.650000e-01    2.340000e+00
 SC4er TC3vh  1 3.650000e-01    2.340000e+00
 SC4eh TC2vr  1 3.650000e-01    2.110000e+00
 SC4er TC2vh  1 3.650000e-01    2.110000e+00
 SC4eh TC1vr  1 3.650000e-01    1.910000e+00
 SC4er TC1vh  1 3.650000e-01    1.910000e+00
 SC4eh TX4vr  1 3.650000e-01    2.110000e+00
 SC4er TX4vh  1 3.650000e-01    2.110000e+00
 SC4eh TX3vr  1 3.650000e-01    2.110000e+00
 SC4er TX3vh  1 3.650000e-01    2.110000e+00
 SC4eh TX2vr  1 3.650000e-01    2.110000e+00
 SC4er TX2vh  1 3.650000e-01    2.110000e+00
 SC4eh TX1vr  1 3.650000e-01    2.340000e+00
 SC4er TX1vh  1 3.650000e-01    2.340000e+00
 SC4eh TC3er  1 3.650000e-01    1.750000e+00
 SC4er TC3eh  1 3.650000e-01    1.750000e+00
 SC4eh TC2er  1 3.660000e-01    1.600000e+00
 SC4er TC2eh  1 3.660000e-01    1.600000e+00
 SC4eh TC1er  1 3.780000e-01    1.450000e+00
 SC4er TC1eh  1 3.780000e-01    1.450000e+00
 SC4eh TX4er  1 3.660000e-01    1.600000e+00
 SC4er TX4eh  1 3.660000e-01    1.600000e+00
 SC4eh TX3er  1 3.660000e-01    1.600000e+00
 SC4er TX3eh  1 3.660000e-01    1.600000e+00
 SC4eh TX2er  1 3.660000e-01    1.600000e+00
 SC4er TX2eh  1 3.660000e-01    1.600000e+00
 SC4eh TX1er  1 3.650000e-01    1.750000e+00
 SC4er TX1eh  1 3.650000e-01    1.750000e+00
 SC3eh TC3er  1 3.650000e-01    1.750000e+00
 SC3eh TC2vr  1 3.650000e-01    2.340000e+00
 SC3er TC2vh  1 3.650000e-01    2.340000e+00
 SC3eh TC1vr  1 3.650000e-01    2.340000e+00
 SC3er TC1vh  1 3.650000e-01    2.340000e+00
 SC3eh TX4vr  1 3.650000e-01    2.110000e+00
 SC3er TX4vh  1 3.650000e-01    2.110000e+00
 SC3eh TX3vr  1 3.650000e-01    2.110000e+00
 SC3er TX3vh  1 3.650000e-01    2.110000e+00
 SC3eh TX2vr  1 3.650000e-01    2.110000e+00
 SC3er TX2vh  1 3.650000e-01    2.110000e+00
 SC3eh TX1vr  1 3.650000e-01    2.340000e+00
 SC3er TX1vh  1 3.650000e-01    2.340000e+00
 SC3eh TC2er  1 3.650000e-01    1.750000e+00
 SC3er TC2eh  1 3.650000e-01    1.750000e+00
 SC3eh TC1er  1 3.650000e-01    1.750000e+00
 SC3er TC1eh  1 3.650000e-01    1.750000e+00
 SC3eh TX4er  1 3.660000e-01    1.600000e+00
 SC3er TX4eh  1 3.660000e-01    1.600000e+00
 SC3eh TX3er  1 3.660000e-01    1.600000e+00
 SC3er TX3eh  1 3.660000e-01    1.600000e+00
 SC3eh TX2er  1 3.660000e-01    1.600000e+00
 SC3er TX2eh  1 3.660000e-01    1.600000e+00
 SC3eh TX1er  1 3.650000e-01    1.750000e+00
 SC3er TX1eh  1 3.650000e-01    1.750000e+00
 SC2eh TC2er  1 3.650000e-01    1.750000e+00
 SC2eh TC1vr  1 3.650000e-01    2.570000e+00
 SC2er TC1vh  1 3.650000e-01    2.570000e+00
 SC2eh TX4vr  1 3.650000e-01    1.750000e+00
 SC2er TX4vh  1 3.650000e-01    1.750000e+00
 SC2eh TX3vr  1 3.650000e-01    2.110000e+00
 SC2er TX3vh  1 3.650000e-01    2.110000e+00
 SC2eh TX2vr  1 3.650000e-01    2.110000e+00
 SC2er TX2vh  1 3.650000e-01    2.110000e+00
 SC2eh TX1vr  1 3.650000e-01    2.110000e+00
 SC2er TX1vh  1 3.650000e-01    2.110000e+00
 SC2eh TC1er  1 3.650000e-01    1.910000e+00
 SC2er TC1eh  1 3.650000e-01    1.910000e+00
 SC2eh TX4er  1 3.940000e-01    1.290000e+00
 SC2er TX4eh  1 3.940000e-01    1.290000e+00
 SC2eh TX3er  1 3.660000e-01    1.600000e+00
 SC2er TX3eh  1 3.660000e-01    1.600000e+00
 SC2eh TX2er  1 3.660000e-01    1.600000e+00
 SC2er TX2eh  1 3.660000e-01    1.600000e+00
 SC2eh TX1er  1 3.660000e-01    1.600000e+00
 SC2er TX1eh  1 3.660000e-01    1.600000e+00
 SC1eh TC1er  1 3.650000e-01    1.750000e+00
 SC1eh TX4vr  1 3.650000e-01    1.750000e+00
 SC1er TX4vh  1 3.650000e-01    1.750000e+00
 SC1eh TX3vr  1 3.650000e-01    2.110000e+00
 SC1er TX3vh  1 3.650000e-01    2.110000e+00
 SC1eh TX2vr  1 3.650000e-01    2.110000e+00
 SC1er TX2vh  1 3.650000e-01    2.110000e+00
 SC1eh TX1vr  1 3.650000e-01    2.110000e+00
 SC1er TX1vh  1 3.650000e-01    2.110000e+00
 SC1eh TX4er  1 3.940000e-01    1.290000e+00
 SC1er TX4eh  1 3.940000e-01    1.290000e+00
 SC1eh TX3er  1 3.660000e-01    1.600000e+00
 SC1er TX3eh  1 3.660000e-01    1.600000e+00
 SC1eh TX2er  1 3.660000e-01    1.600000e+00
 SC1er TX2eh  1 3.660000e-01    1.600000e+00
 SC1eh TX1er  1 3.660000e-01    1.600000e+00
 SC1er TX1eh  1 3.660000e-01    1.600000e+00
 SX4eh TX4er  1 3.650000e-01    1.750000e+00
 SX4eh TX3vr  1 3.650000e-01    2.340000e+00
 SX4er TX3vh  1 3.650000e-01    2.340000e+00
 SX4eh TX2vr  1 3.650000e-01    2.340000e+00
 SX4er TX2vh  1 3.650000e-01    2.340000e+00
 SX4eh TX1vr  1 3.650000e-01    2.340000e+00
 SX4er TX1vh  1 3.650000e-01    2.340000e+00
 SX4eh TX3er  1 3.650000e-01    1.750000e+00
 SX4er TX3eh  1 3.650000e-01    1.750000e+00
 SX4eh TX2er  1 3.650000e-01    1.750000e+00
 SX4er TX2eh  1 3.650000e-01    1.750000e+00
 SX4eh TX1er  1 3.650000e-01    1.750000e+00
 SX4er TX1eh  1 3.650000e-01    1.750000e+00
 SX3eh TX3er  1 3.650000e-01    1.750000e+00
 SX3eh TX2vr  1 3.650000e-01    2.570000e+00
 SX3er TX2vh  1 3.650000e-01    2.570000e+00
 SX3eh TX1vr  1 3.650000e-01    2.570000e+00
 SX3er TX1vh  1 3.650000e-01    2.570000e+00
 SX3eh TX2er  1 3.650000e-01    1.910000e+00
 SX3er TX2eh  1 3.650000e-01    1.910000e+00
 SX3eh TX1er  1 3.650000e-01    1.910000e+00
 SX3er TX1eh  1 3.650000e-01    1.910000e+00
 SX2eh TX2er  1 3.650000e-01    1.910000e+00
 SX2eh TX1vr  1 3.650000e-01    2.570000e+00
 SX2er TX1vh  1 3.650000e-01    2.570000e+00
 SX2eh TX1er  1 3.650000e-01    1.910000e+00
 SX2er TX1eh  1 3.650000e-01    1.910000e+00
 SX1eh TX1er  1 3.650000e-01    2.110000e+00
  SP6h  TC6r  1 3.780000e-01    1.450000e+00
  SP6r  TC6h  1 3.780000e-01    1.450000e+00
  SP6h  TC5r  1 3.940000e-01    1.290000e+00
  SP6r  TC5h  1 3.940000e-01    1.290000e+00
  SP6h  TC4r  1 4.040000e-01    1.130000e+00
  SP6r  TC4h  1 4.040000e-01    1.130000e+00
  SP6h  TC3r  1 4.090000e-01    1.080000e+00
  SP6r  TC3h  1 4.090000e-01    1.080000e+00
  SP6h  TC2r  1 4.090000e-01    1.080000e+00
  SP6r  TC2h  1 4.090000e-01    1.080000e+00
  SP6h  TC1r  1 4.840000e-01    8.900000e-01
  SP6r  TC1h  1 4.840000e-01    8.900000e-01
  SP6h  TX4r  1 3.660000e-01    1.600000e+00
  SP6r  TX4h  1 3.660000e-01    1.600000e+00
  SP6h  TX3r  1 3.660000e-01    1.600000e+00
  SP6r  TX3h  1 3.660000e-01    1.600000e+00
  SP6h  TX2r  1 3.780000e-01    1.450000e+00
  SP6r  TX2h  1 3.780000e-01    1.450000e+00
  SP6h  TX1r  1 3.940000e-01    1.290000e+00
  SP6r  TX1h  1 3.940000e-01    1.290000e+00
  SP5h  TC6r  1 3.780000e-01    1.450000e+00
  SP5r  TC6h  1 3.780000e-01    1.450000e+00
  SP5h  TC5r  1 3.780000e-01    1.450000e+00
  SP5r  TC5h  1 3.780000e-01    1.450000e+00
  SP5h  TC4r  1 3.940000e-01    1.290000e+00
  SP5r  TC4h  1 3.940000e-01    1.290000e+00
  SP5h  TC3r  1 4.040000e-01    1.130000e+00
  SP5r  TC3h  1 4.040000e-01    1.130000e+00
  SP5h  TC2r  1 4.040000e-01    1.130000e+00
  SP5r  TC2h  1 4.040000e-01    1.130000e+00
  SP5h  TC1r  1 4.090000e-01    1.080000e+00
  SP5r  TC1h  1 4.090000e-01    1.080000e+00
  SP5h  TX4r  1 3.650000e-01    1.750000e+00
  SP5r  TX4h  1 3.650000e-01    1.750000e+00
  SP5h  TX3r  1 3.660000e-01    1.600000e+00
  SP5r  TX3h  1 3.660000e-01    1.600000e+00
  SP5h  TX2r  1 3.660000e-01    1.600000e+00
  SP5r  TX2h  1 3.660000e-01    1.600000e+00
  SP5h  TX1r  1 3.940000e-01    1.290000e+00
  SP5r  TX1h  1 3.940000e-01    1.290000e+00
  SP4h  TC6r  1 3.660000e-01    1.600000e+00
  SP4r  TC6h  1 3.660000e-01    1.600000e+00
  SP4h  TC5r  1 3.780000e-01    1.450000e+00
  SP4r  TC5h  1 3.780000e-01    1.450000e+00
  SP4h  TC4r  1 3.940000e-01    1.290000e+00
  SP4r  TC4h  1 3.940000e-01    1.290000e+00
  SP4h  TC3r  1 4.040000e-01    1.130000e+00
  SP4r  TC3h  1 4.040000e-01    1.130000e+00
  SP4h  TC2r  1 4.040000e-01    1.130000e+00
  SP4r  TC2h  1 4.040000e-01    1.130000e+00
  SP4h  TC1r  1 4.090000e-01    1.080000e+00
  SP4r  TC1h  1 4.090000e-01    1.080000e+00
  SP4h  TX4r  1 3.650000e-01    1.750000e+00
  SP4r  TX4h  1 3.650000e-01    1.750000e+00
  SP4h  TX3r  1 3.660000e-01    1.600000e+00
  SP4r  TX3h  1 3.660000e-01    1.600000e+00
  SP4h  TX2r  1 3.660000e-01    1.600000e+00
  SP4r  TX2h  1 3.660000e-01    1.600000e+00
  SP4h  TX1r  1 3.780000e-01    1.450000e+00
  SP4r  TX1h  1 3.780000e-01    1.450000e+00
  SP3h  TC6r  1 3.650000e-01    1.750000e+00
  SP3r  TC6h  1 3.650000e-01    1.750000e+00
  SP3h  TC5r  1 3.660000e-01    1.600000e+00
  SP3r  TC5h  1 3.660000e-01    1.600000e+00
  SP3h  TC4r  1 3.780000e-01    1.450000e+00
  SP3r  TC4h  1 3.780000e-01    1.450000e+00
  SP3h  TC3r  1 4.040000e-01    1.130000e+00
  SP3r  TC3h  1 4.040000e-01    1.130000e+00
  SP3h  TC2r  1 4.040000e-01    1.130000e+00
  SP3r  TC2h  1 4.040000e-01    1.130000e+00
  SP3h  TC1r  1 4.090000e-01    1.080000e+00
  SP3r  TC1h  1 4.090000e-01    1.080000e+00
  SP3h  TX4r  1 3.650000e-01    1.750000e+00
  SP3r  TX4h  1 3.650000e-01    1.750000e+00
  SP3h  TX3r  1 3.650000e-01    1.750000e+00
  SP3r  TX3h  1 3.650000e-01    1.750000e+00
  SP3h  TX2r  1 3.660000e-01    1.600000e+00
  SP3r  TX2h  1 3.660000e-01    1.600000e+00
  SP3h  TX1r  1 3.780000e-01    1.450000e+00
  SP3r  TX1h  1 3.780000e-01    1.450000e+00
  SP2h  TC6r  1 3.650000e-01    1.750000e+00
  SP2r  TC6h  1 3.650000e-01    1.750000e+00
  SP2h  TC5r  1 3.660000e-01    1.600000e+00
  SP2r  TC5h  1 3.660000e-01    1.600000e+00
  SP2h  TC4r  1 3.780000e-01    1.450000e+00
  SP2r  TC4h  1 3.780000e-01    1.450000e+00
  SP2h  TC3r  1 3.940000e-01    1.290000e+00
  SP2r  TC3h  1 3.940000e-01    1.290000e+00
  SP2h  TC2r  1 3.940000e-01    1.290000e+00
  SP2r  TC2h  1 3.940000e-01    1.290000e+00
  SP2h  TC1r  1 4.040000e-01    1.130000e+00
  SP2r  TC1h  1 4.040000e-01    1.130000e+00
  SP2h  TX4r  1 3.650000e-01    1.750000e+00
  SP2r  TX4h  1 3.650000e-01    1.750000e+00
  SP2h  TX3r  1 3.650000e-01    1.750000e+00
  SP2r  TX3h  1 3.650000e-01    1.750000e+00
  SP2h  TX2r  1 3.660000e-01    1.600000e+00
  SP2r  TX2h  1 3.660000e-01    1.600000e+00
  SP2h  TX1r  1 3.780000e-01    1.450000e+00
  SP2r  TX1h  1 3.780000e-01    1.450000e+00
  SP1h  TC6r  1 3.650000e-01    1.750000e+00
  SP1r  TC6h  1 3.650000e-01    1.750000e+00
  SP1h  TC5r  1 3.660000e-01    1.600000e+00
  SP1r  TC5h  1 3.660000e-01    1.600000e+00
  SP1h  TC4r  1 3.780000e-01    1.450000e+00
  SP1r  TC4h  1 3.780000e-01    1.450000e+00
  SP1h  TC3r  1 3.940000e-01    1.290000e+00
  SP1r  TC3h  1 3.940000e-01    1.290000e+00
  SP1h  TC2r  1 3.940000e-01    1.290000e+00
  SP1r  TC2h  1 3.940000e-01    1.290000e+00
  SP1h  TC1r  1 4.040000e-01    1.130000e+00
  SP1r  TC1h  1 4.040000e-01    1.130000e+00
  SP1h  TX4r  1 3.650000e-01    1.750000e+00
  SP1r  TX4h  1 3.650000e-01    1.750000e+00
  SP1h  TX3r  1 3.650000e-01    1.750000e+00
  SP1r  TX3h  1 3.650000e-01    1.750000e+00
  SP1h  TX2r  1 3.660000e-01    1.600000e+00
  SP1r  TX2h  1 3.660000e-01    1.600000e+00
  SP1h  TX1r  1 3.780000e-01    1.450000e+00
  SP1r  TX1h  1 3.780000e-01    1.450000e+00
  SN6h  TC6r  1 3.650000e-01    1.910000e+00
  SN6r  TC6h  1 3.650000e-01    1.910000e+00
  SN6h  TC5r  1 3.650000e-01    1.750000e+00
  SN6r  TC5h  1 3.650000e-01    1.750000e+00
  SN6h  TC4r  1 3.660000e-01    1.600000e+00
  SN6r  TC4h  1 3.660000e-01    1.600000e+00
  SN6h  TC3r  1 3.780000e-01    1.450000e+00
  SN6r  TC3h  1 3.780000e-01    1.450000e+00
  SN6h  TC2r  1 3.780000e-01    1.450000e+00
  SN6r  TC2h  1 3.780000e-01    1.450000e+00
  SN6h  TC1r  1 3.940000e-01    1.290000e+00
  SN6r  TC1h  1 3.940000e-01    1.290000e+00
  SN6h  TX4r  1 3.650000e-01    1.910000e+00
  SN6r  TX4h  1 3.650000e-01    1.910000e+00
  SN6h  TX3r  1 3.650000e-01    1.750000e+00
  SN6r  TX3h  1 3.650000e-01    1.750000e+00
  SN6h  TX2r  1 3.660000e-01    1.600000e+00
  SN6r  TX2h  1 3.660000e-01    1.600000e+00
  SN6h  TX1r  1 3.780000e-01    1.450000e+00
  SN6r  TX1h  1 3.780000e-01    1.450000e+00
  SN5h  TC6r  1 3.650000e-01    1.910000e+00
  SN5r  TC6h  1 3.650000e-01    1.910000e+00
  SN5h  TC5r  1 3.650000e-01    1.750000e+00
  SN5r  TC5h  1 3.650000e-01    1.750000e+00
  SN5h  TC4r  1 3.660000e-01    1.600000e+00
  SN5r  TC4h  1 3.660000e-01    1.600000e+00
  SN5h  TC3r  1 3.660000e-01    1.600000e+00
  SN5r  TC3h  1 3.660000e-01    1.600000e+00
  SN5h  TC2r  1 3.780000e-01    1.450000e+00
  SN5r  TC2h  1 3.780000e-01    1.450000e+00
  SN5h  TC1r  1 3.940000e-01    1.290000e+00
  SN5r  TC1h  1 3.940000e-01    1.290000e+00
  SN5h  TX4r  1 3.650000e-01    2.110000e+00
  SN5r  TX4h  1 3.650000e-01    2.110000e+00
  SN5h  TX3r  1 3.650000e-01    1.910000e+00
  SN5r  TX3h  1 3.650000e-01    1.910000e+00
  SN5h  TX2r  1 3.650000e-01    1.750000e+00
  SN5r  TX2h  1 3.650000e-01    1.750000e+00
  SN5h  TX1r  1 3.660000e-01    1.600000e+00
  SN5r  TX1h  1 3.660000e-01    1.600000e+00
  SN4h  TC6r  1 3.650000e-01    1.910000e+00
  SN4r  TC6h  1 3.650000e-01    1.910000e+00
  SN4h  TC5r  1 3.650000e-01    1.750000e+00
  SN4r  TC5h  1 3.650000e-01    1.750000e+00
  SN4h  TC4r  1 3.650000e-01    1.750000e+00
  SN4r  TC4h  1 3.650000e-01    1.750000e+00
  SN4h  TC3r  1 3.660000e-01    1.600000e+00
  SN4r  TC3h  1 3.660000e-01    1.600000e+00
  SN4h  TC2r  1 3.780000e-01    1.450000e+00
  SN4r  TC2h  1 3.780000e-01    1.450000e+00
  SN4h  TC1r  1 3.940000e-01    1.290000e+00
  SN4r  TC1h  1 3.940000e-01    1.290000e+00
  SN4h  TX4r  1 3.650000e-01    2.340000e+00
  SN4r  TX4h  1 3.650000e-01    2.340000e+00
  SN4h  TX3r  1 3.650000e-01    2.110000e+00
  SN4r  TX3h  1 3.650000e-01    2.110000e+00
  SN4h  TX2r  1 3.650000e-01    1.750000e+00
  SN4r  TX2h  1 3.650000e-01    1.750000e+00
  SN4h  TX1r  1 3.660000e-01    1.600000e+00
  SN4r  TX1h  1 3.660000e-01    1.600000e+00
  SN3h  TC6r  1 3.650000e-01    1.910000e+00
  SN3r  TC6h  1 3.650000e-01    1.910000e+00
  SN3h  TC5r  1 3.650000e-01    1.750000e+00
  SN3r  TC5h  1 3.650000e-01    1.750000e+00
  SN3h  TC4r  1 3.650000e-01    1.750000e+00
  SN3r  TC4h  1 3.650000e-01    1.750000e+00
  SN3h  TC3r  1 3.660000e-01    1.600000e+00
  SN3r  TC3h  1 3.660000e-01    1.600000e+00
  SN3h  TC2r  1 3.660000e-01    1.600000e+00
  SN3r  TC2h  1 3.660000e-01    1.600000e+00
  SN3h  TC1r  1 3.780000e-01    1.450000e+00
  SN3r  TC1h  1 3.780000e-01    1.450000e+00
  SN3h  TX4r  1 3.650000e-01    2.110000e+00
  SN3r  TX4h  1 3.650000e-01    2.110000e+00
  SN3h  TX3r  1 3.650000e-01    1.910000e+00
  SN3r  TX3h  1 3.650000e-01    1.910000e+00
  SN3h  TX2r  1 3.650000e-01    1.750000e+00
  SN3r  TX2h  1 3.650000e-01    1.750000e+00
  SN3h  TX1r  1 3.650000e-01    1.750000e+00
  SN3r  TX1h  1 3.650000e-01    1.750000e+00
  SN2h  TC6r  1 3.650000e-01    1.910000e+00
  SN2r  TC6h  1 3.650000e-01    1.910000e+00
  SN2h  TC5r  1 3.650000e-01    1.750000e+00
  SN2r  TC5h  1 3.650000e-01    1.750000e+00
  SN2h  TC4r  1 3.650000e-01    1.750000e+00
  SN2r  TC4h  1 3.650000e-01    1.750000e+00
  SN2h  TC3r  1 3.650000e-01    1.750000e+00
  SN2r  TC3h  1 3.650000e-01    1.750000e+00
  SN2h  TC2r  1 3.660000e-01    1.600000e+00
  SN2r  TC2h  1 3.660000e-01    1.600000e+00
  SN2h  TC1r  1 3.780000e-01    1.450000e+00
  SN2r  TC1h  1 3.780000e-01    1.450000e+00
  SN2h  TX4r  1 3.650000e-01    2.110000e+00
  SN2r  TX4h  1 3.650000e-01    2.110000e+00
  SN2h  TX3r  1 3.650000e-01    1.910000e+00
  SN2r  TX3h  1 3.650000e-01    1.910000e+00
  SN2h  TX2r  1 3.650000e-01    1.750000e+00
  SN2r  TX2h  1 3.650000e-01    1.750000e+00
  SN2h  TX1r  1 3.650000e-01    1.750000e+00
  SN2r  TX1h  1 3.650000e-01    1.750000e+00
  SN1h  TC6r  1 3.650000e-01    2.110000e+00
  SN1r  TC6h  1 3.650000e-01    2.110000e+00
  SN1h  TC5r  1 3.650000e-01    1.910000e+00
  SN1r  TC5h  1 3.650000e-01    1.910000e+00
  SN1h  TC4r  1 3.650000e-01    1.910000e+00
  SN1r  TC4h  1 3.650000e-01    1.910000e+00
  SN1h  TC3r  1 3.650000e-01    1.750000e+00
  SN1r  TC3h  1 3.650000e-01    1.750000e+00
  SN1h  TC2r  1 3.660000e-01    1.600000e+00
  SN1r  TC2h  1 3.660000e-01    1.600000e+00
  SN1h  TC1r  1 3.780000e-01    1.450000e+00
  SN1r  TC1h  1 3.780000e-01    1.450000e+00
  SN1h  TX4r  1 3.650000e-01    1.910000e+00
  SN1r  TX4h  1 3.650000e-01    1.910000e+00
  SN1h  TX3r  1 3.650000e-01    1.910000e+00
  SN1r  TX3h  1 3.650000e-01    1.910000e+00
  SN1h  TX2r  1 3.650000e-01    1.750000e+00
  SN1r  TX2h  1 3.650000e-01    1.750000e+00
  SN1h  TX1r  1 3.650000e-01    1.750000e+00
  SN1r  TX1h  1 3.650000e-01    1.750000e+00
 SP6dh TC6vr  1 3.940000e-01    1.290000e+00
 SP6dr TC6vh  1 3.940000e-01    1.290000e+00
 SP6dh TC5vr  1 4.040000e-01    1.130000e+00
 SP6dr TC5vh  1 4.040000e-01    1.130000e+00
 SP6dh TC4vr  1 4.090000e-01    1.080000e+00
 SP6dr TC4vh  1 4.090000e-01    1.080000e+00
 SP6dh TC3vr  1 4.230000e-01    9.810000e-01
 SP6dr TC3vh  1 4.230000e-01    9.810000e-01
 SP6dh TC2vr  1 4.230000e-01    9.810000e-01
 SP6dr TC2vh  1 4.230000e-01    9.810000e-01
 SP6dh TC1vr  1 5.370000e-01    8.080000e-01
 SP6dr TC1vh  1 5.370000e-01    8.080000e-01
 SP6dh TX4vr  1 3.780000e-01    1.450000e+00
 SP6dr TX4vh  1 3.780000e-01    1.450000e+00
 SP6dh TX3vr  1 3.780000e-01    1.450000e+00
 SP6dr TX3vh  1 3.780000e-01    1.450000e+00
 SP6dh TX2vr  1 3.940000e-01    1.290000e+00
 SP6dr TX2vh  1 3.940000e-01    1.290000e+00
 SP6dh TX1vr  1 4.040000e-01    1.130000e+00
 SP6dr TX1vh  1 4.040000e-01    1.130000e+00
 SP6dh TC6er  1 3.660000e-01    1.600000e+00
 SP6dr TC6eh  1 3.660000e-01    1.600000e+00
 SP6dh TC5er  1 3.780000e-01    1.450000e+00
 SP6dr TC5eh  1 3.780000e-01    1.450000e+00
 SP6dh TC4er  1 3.940000e-01    1.290000e+00
 SP6dr TC4eh  1 3.940000e-01    1.290000e+00
 SP6dh TC3er  1 4.040000e-01    1.130000e+00
 SP6dr TC3eh  1 4.040000e-01    1.130000e+00
 SP6dh TC2er  1 4.040000e-01    1.130000e+00
 SP6dr TC2eh  1 4.040000e-01    1.130000e+00
 SP6dh TC1er  1 4.230000e-01    9.810000e-01
 SP6dr TC1eh  1 4.230000e-01    9.810000e-01
 SP6dh TX4er  1 3.650000e-01    1.750000e+00
 SP6dr TX4eh  1 3.650000e-01    1.750000e+00
 SP6dh TX3er  1 3.650000e-01    1.750000e+00
 SP6dr TX3eh  1 3.650000e-01    1.750000e+00
 SP6dh TX2er  1 3.660000e-01    1.600000e+00
 SP6dr TX2eh  1 3.660000e-01    1.600000e+00
 SP6dh TX1er  1 3.780000e-01    1.450000e+00
 SP6dr TX1eh  1 3.780000e-01    1.450000e+00
 SP5dh TC6vr  1 3.940000e-01    1.290000e+00
 SP5dr TC6vh  1 3.940000e-01    1.290000e+00
 SP5dh TC5vr  1 3.940000e-01    1.290000e+00
 SP5dr TC5vh  1 3.940000e-01    1.290000e+00
 SP5dh TC4vr  1 4.040000e-01    1.130000e+00
 SP5dr TC4vh  1 4.040000e-01    1.130000e+00
 SP5dh TC3vr  1 4.090000e-01    1.080000e+00
 SP5dr TC3vh  1 4.090000e-01    1.080000e+00
 SP5dh TC2vr  1 4.090000e-01    1.080000e+00
 SP5dr TC2vh  1 4.090000e-01    1.080000e+00
 SP5dh TC1vr  1 4.230000e-01    9.810000e-01
 SP5dr TC1vh  1 4.230000e-01    9.810000e-01
 SP5dh TX4vr  1 3.660000e-01    1.600000e+00
 SP5dr TX4vh  1 3.660000e-01    1.600000e+00
 SP5dh TX3vr  1 3.780000e-01    1.450000e+00
 SP5dr TX3vh  1 3.780000e-01    1.450000e+00
 SP5dh TX2vr  1 3.780000e-01    1.450000e+00
 SP5dr TX2vh  1 3.780000e-01    1.450000e+00
 SP5dh TX1vr  1 4.040000e-01    1.130000e+00
 SP5dr TX1vh  1 4.040000e-01    1.130000e+00
 SP5dh TC6er  1 3.660000e-01    1.600000e+00
 SP5dr TC6eh  1 3.660000e-01    1.600000e+00
 SP5dh TC5er  1 3.660000e-01    1.600000e+00
 SP5dr TC5eh  1 3.660000e-01    1.600000e+00
 SP5dh TC4er  1 3.780000e-01    1.450000e+00
 SP5dr TC4eh  1 3.780000e-01    1.450000e+00
 SP5dh TC3er  1 3.940000e-01    1.290000e+00
 SP5dr TC3eh  1 3.940000e-01    1.290000e+00
 SP5dh TC2er  1 3.940000e-01    1.290000e+00
 SP5dr TC2eh  1 3.940000e-01    1.290000e+00
 SP5dh TC1er  1 4.040000e-01    1.130000e+00
 SP5dr TC1eh  1 4.040000e-01    1.130000e+00
 SP5dh TX4er  1 3.650000e-01    1.910000e+00
 SP5dr TX4eh  1 3.650000e-01    1.910000e+00
 SP5dh TX3er  1 3.650000e-01    1.750000e+00
 SP5dr TX3eh  1 3.650000e-01    1.750000e+00
 SP5dh TX2er  1 3.650000e-01    1.750000e+00
 SP5dr TX2eh  1 3.650000e-01    1.750000e+00
 SP5dh TX1er  1 3.780000e-01    1.450000e+00
 SP5dr TX1eh  1 3.780000e-01    1.450000e+00
 SP4dh TC6vr  1 3.780000e-01    1.450000e+00
 SP4dr TC6vh  1 3.780000e-01    1.450000e+00
 SP4dh TC5vr  1 3.940000e-01    1.290000e+00
 SP4dr TC5vh  1 3.940000e-01    1.290000e+00
 SP4dh TC4vr  1 4.040000e-01    1.130000e+00
 SP4dr TC4vh  1 4.040000e-01    1.130000e+00
 SP4dh TC3vr  1 4.090000e-01    1.080000e+00
 SP4dr TC3vh  1 4.090000e-01    1.080000e+00
 SP4dh TC2vr  1 4.090000e-01    1.080000e+00
 SP4dr TC2vh  1 4.090000e-01    1.080000e+00
 SP4dh TC1vr  1 4.230000e-01    9.810000e-01
 SP4dr TC1vh  1 4.230000e-01    9.810000e-01
 SP4dh TX4vr  1 3.660000e-01    1.600000e+00
 SP4dr TX4vh  1 3.660000e-01    1.600000e+00
 SP4dh TX3vr  1 3.780000e-01    1.450000e+00
 SP4dr TX3vh  1 3.780000e-01    1.450000e+00
 SP4dh TX2vr  1 3.780000e-01    1.450000e+00
 SP4dr TX2vh  1 3.780000e-01    1.450000e+00
 SP4dh TX1vr  1 3.940000e-01    1.290000e+00
 SP4dr TX1vh  1 3.940000e-01    1.290000e+00
 SP4dh TC6er  1 3.650000e-01    1.750000e+00
 SP4dr TC6eh  1 3.650000e-01    1.750000e+00
 SP4dh TC5er  1 3.660000e-01    1.600000e+00
 SP4dr TC5eh  1 3.660000e-01    1.600000e+00
 SP4dh TC4er  1 3.780000e-01    1.450000e+00
 SP4dr TC4eh  1 3.780000e-01    1.450000e+00
 SP4dh TC3er  1 3.940000e-01    1.290000e+00
 SP4dr TC3eh  1 3.940000e-01    1.290000e+00
 SP4dh TC2er  1 3.940000e-01    1.290000e+00
 SP4dr TC2eh  1 3.940000e-01    1.290000e+00
 SP4dh TC1er  1 4.040000e-01    1.130000e+00
 SP4dr TC1eh  1 4.040000e-01    1.130000e+00
 SP4dh TX4er  1 3.650000e-01    1.910000e+00
 SP4dr TX4eh  1 3.650000e-01    1.910000e+00
 SP4dh TX3er  1 3.650000e-01    1.750000e+00
 SP4dr TX3eh  1 3.650000e-01    1.750000e+00
 SP4dh TX2er  1 3.650000e-01    1.750000e+00
 SP4dr TX2eh  1 3.650000e-01    1.750000e+00
 SP4dh TX1er  1 3.660000e-01    1.600000e+00
 SP4dr TX1eh  1 3.660000e-01    1.600000e+00
 SP3dh TC6vr  1 3.660000e-01    1.600000e+00
 SP3dr TC6vh  1 3.660000e-01    1.600000e+00
 SP3dh TC5vr  1 3.780000e-01    1.450000e+00
 SP3dr TC5vh  1 3.780000e-01    1.450000e+00
 SP3dh TC4vr  1 3.940000e-01    1.290000e+00
 SP3dr TC4vh  1 3.940000e-01    1.290000e+00
 SP3dh TC3vr  1 4.090000e-01    1.080000e+00
 SP3dr TC3vh  1 4.090000e-01    1.080000e+00
 SP3dh TC2vr  1 4.090000e-01    1.080000e+00
 SP3dr TC2vh  1 4.090000e-01    1.080000e+00
 SP3dh TC1vr  1 4.230000e-01    9.810000e-01
 SP3dr TC1vh  1 4.230000e-01    9.810000e-01
 SP3dh TX4vr  1 3.660000e-01    1.600000e+00
 SP3dr TX4vh  1 3.660000e-01    1.600000e+00
 SP3dh TX3vr  1 3.660000e-01    1.600000e+00
 SP3dr TX3vh  1 3.660000e-01    1.600000e+00
 SP3dh TX2vr  1 3.780000e-01    1.450000e+00
 SP3dr TX2vh  1 3.780000e-01    1.450000e+00
 SP3dh TX1vr  1 3.940000e-01    1.290000e+00
 SP3dr TX1vh  1 3.940000e-01    1.290000e+00
 SP3dh TC6er  1 3.650000e-01    1.910000e+00
 SP3dr TC6eh  1 3.650000e-01    1.910000e+00
 SP3dh TC5er  1 3.650000e-01    1.750000e+00
 SP3dr TC5eh  1 3.650000e-01    1.750000e+00
 SP3dh TC4er  1 3.660000e-01    1.600000e+00
 SP3dr TC4eh  1 3.660000e-01    1.600000e+00
 SP3dh TC3er  1 3.940000e-01    1.290000e+00
 SP3dr TC3eh  1 3.940000e-01    1.290000e+00
 SP3dh TC2er  1 3.940000e-01    1.290000e+00
 SP3dr TC2eh  1 3.940000e-01    1.290000e+00
 SP3dh TC1er  1 4.040000e-01    1.130000e+00
 SP3dr TC1eh  1 4.040000e-01    1.130000e+00
 SP3dh TX4er  1 3.650000e-01    1.910000e+00
 SP3dr TX4eh  1 3.650000e-01    1.910000e+00
 SP3dh TX3er  1 3.650000e-01    1.910000e+00
 SP3dr TX3eh  1 3.650000e-01    1.910000e+00
 SP3dh TX2er  1 3.650000e-01    1.750000e+00
 SP3dr TX2eh  1 3.650000e-01    1.750000e+00
 SP3dh TX1er  1 3.660000e-01    1.600000e+00
 SP3dr TX1eh  1 3.660000e-01    1.600000e+00
 SP2dh TC6vr  1 3.660000e-01    1.600000e+00
 SP2dr TC6vh  1 3.660000e-01    1.600000e+00
 SP2dh TC5vr  1 3.780000e-01    1.450000e+00
 SP2dr TC5vh  1 3.780000e-01    1.450000e+00
 SP2dh TC4vr  1 3.940000e-01    1.290000e+00
 SP2dr TC4vh  1 3.940000e-01    1.290000e+00
 SP2dh TC3vr  1 4.040000e-01    1.130000e+00
 SP2dr TC3vh  1 4.040000e-01    1.130000e+00
 SP2dh TC2vr  1 4.040000e-01    1.130000e+00
 SP2dr TC2vh  1 4.040000e-01    1.130000e+00
 SP2dh TC1vr  1 4.090000e-01    1.080000e+00
 SP2dr TC1vh  1 4.090000e-01    1.080000e+00
 SP2dh TX4vr  1 3.660000e-01    1.600000e+00
 SP2dr TX4vh  1 3.660000e-01    1.600000e+00
 SP2dh TX3vr  1 3.660000e-01    1.600000e+00
 SP2dr TX3vh  1 3.660000e-01    1.600000e+00
 SP2dh TX2vr  1 3.780000e-01    1.450000e+00
 SP2dr TX2vh  1 3.780000e-01    1.450000e+00
 SP2dh TX1vr  1 3.940000e-01    1.290000e+00
 SP2dr TX1vh  1 3.940000e-01    1.290000e+00
 SP2dh TC6er  1 3.650000e-01    1.910000e+00
 SP2dr TC6eh  1 3.650000e-01    1.910000e+00
 SP2dh TC5er  1 3.650000e-01    1.750000e+00
 SP2dr TC5eh  1 3.650000e-01    1.750000e+00
 SP2dh TC4er  1 3.660000e-01    1.600000e+00
 SP2dr TC4eh  1 3.660000e-01    1.600000e+00
 SP2dh TC3er  1 3.780000e-01    1.450000e+00
 SP2dr TC3eh  1 3.780000e-01    1.450000e+00
 SP2dh TC2er  1 3.780000e-01    1.450000e+00
 SP2dr TC2eh  1 3.780000e-01    1.450000e+00
 SP2dh TC1er  1 3.940000e-01    1.290000e+00
 SP2dr TC1eh  1 3.940000e-01    1.290000e+00
 SP2dh TX4er  1 3.650000e-01    1.910000e+00
 SP2dr TX4eh  1 3.650000e-01    1.910000e+00
 SP2dh TX3er  1 3.650000e-01    1.910000e+00
 SP2dr TX3eh  1 3.650000e-01    1.910000e+00
 SP2dh TX2er  1 3.650000e-01    1.750000e+00
 SP2dr TX2eh  1 3.650000e-01    1.750000e+00
 SP2dh TX1er  1 3.660000e-01    1.600000e+00
 SP2dr TX1eh  1 3.660000e-01    1.600000e+00
 SP1dh TC6vr  1 3.660000e-01    1.600000e+00
 SP1dr TC6vh  1 3.660000e-01    1.600000e+00
 SP1dh TC5vr  1 3.780000e-01    1.450000e+00
 SP1dr TC5vh  1 3.780000e-01    1.450000e+00
 SP1dh TC4vr  1 3.940000e-01    1.290000e+00
 SP1dr TC4vh  1 3.940000e-01    1.290000e+00
 SP1dh TC3vr  1 4.040000e-01    1.130000e+00
 SP1dr TC3vh  1 4.040000e-01    1.130000e+00
 SP1dh TC2vr  1 4.040000e-01    1.130000e+00
 SP1dr TC2vh  1 4.040000e-01    1.130000e+00
 SP1dh TC1vr  1 4.090000e-01    1.080000e+00
 SP1dr TC1vh  1 4.090000e-01    1.080000e+00
 SP1dh TX4vr  1 3.660000e-01    1.600000e+00
 SP1dr TX4vh  1 3.660000e-01    1.600000e+00
 SP1dh TX3vr  1 3.660000e-01    1.600000e+00
 SP1dr TX3vh  1 3.660000e-01    1.600000e+00
 SP1dh TX2vr  1 3.780000e-01    1.450000e+00
 SP1dr TX2vh  1 3.780000e-01    1.450000e+00
 SP1dh TX1vr  1 3.940000e-01    1.290000e+00
 SP1dr TX1vh  1 3.940000e-01    1.290000e+00
 SP1dh TC6er  1 3.650000e-01    1.910000e+00
 SP1dr TC6eh  1 3.650000e-01    1.910000e+00
 SP1dh TC5er  1 3.650000e-01    1.750000e+00
 SP1dr TC5eh  1 3.650000e-01    1.750000e+00
 SP1dh TC4er  1 3.660000e-01    1.600000e+00
 SP1dr TC4eh  1 3.660000e-01    1.600000e+00
 SP1dh TC3er  1 3.780000e-01    1.450000e+00
 SP1dr TC3eh  1 3.780000e-01    1.450000e+00
 SP1dh TC2er  1 3.780000e-01    1.450000e+00
 SP1dr TC2eh  1 3.780000e-01    1.450000e+00
 SP1dh TC1er  1 3.940000e-01    1.290000e+00
 SP1dr TC1eh  1 3.940000e-01    1.290000e+00
 SP1dh TX4er  1 3.650000e-01    1.910000e+00
 SP1dr TX4eh  1 3.650000e-01    1.910000e+00
 SP1dh TX3er  1 3.650000e-01    1.910000e+00
 SP1dr TX3eh  1 3.650000e-01    1.910000e+00
 SP1dh TX2er  1 3.650000e-01    1.750000e+00
 SP1dr TX2eh  1 3.650000e-01    1.750000e+00
 SP1dh TX1er  1 3.660000e-01    1.600000e+00
 SP1dr TX1eh  1 3.660000e-01    1.600000e+00
 SN6dh TC6vr  1 3.650000e-01    1.750000e+00
 SN6dr TC6vh  1 3.650000e-01    1.750000e+00
 SN6dh TC5vr  1 3.660000e-01    1.600000e+00
 SN6dr TC5vh  1 3.660000e-01    1.600000e+00
 SN6dh TC4vr  1 3.780000e-01    1.450000e+00
 SN6dr TC4vh  1 3.780000e-01    1.450000e+00
 SN6dh TC3vr  1 3.940000e-01    1.290000e+00
 SN6dr TC3vh  1 3.940000e-01    1.290000e+00
 SN6dh TC2vr  1 3.940000e-01    1.290000e+00
 SN6dr TC2vh  1 3.940000e-01    1.290000e+00
 SN6dh TC1vr  1 4.040000e-01    1.130000e+00
 SN6dr TC1vh  1 4.040000e-01    1.130000e+00
 SN6dh TX4vr  1 3.650000e-01    1.750000e+00
 SN6dr TX4vh  1 3.650000e-01    1.750000e+00
 SN6dh TX3vr  1 3.660000e-01    1.600000e+00
 SN6dr TX3vh  1 3.660000e-01    1.600000e+00
 SN6dh TX2vr  1 3.780000e-01    1.450000e+00
 SN6dr TX2vh  1 3.780000e-01    1.450000e+00
 SN6dh TX1vr  1 3.940000e-01    1.290000e+00
 SN6dr TX1vh  1 3.940000e-01    1.290000e+00
 SN6dh TC6er  1 3.650000e-01    2.110000e+00
 SN6dr TC6eh  1 3.650000e-01    2.110000e+00
 SN6dh TC5er  1 3.650000e-01    1.910000e+00
 SN6dr TC5eh  1 3.650000e-01    1.910000e+00
 SN6dh TC4er  1 3.650000e-01    1.750000e+00
 SN6dr TC4eh  1 3.650000e-01    1.750000e+00
 SN6dh TC3er  1 3.660000e-01    1.600000e+00
 SN6dr TC3eh  1 3.660000e-01    1.600000e+00
 SN6dh TC2er  1 3.660000e-01    1.600000e+00
 SN6dr TC2eh  1 3.660000e-01    1.600000e+00
 SN6dh TC1er  1 3.780000e-01    1.450000e+00
 SN6dr TC1eh  1 3.780000e-01    1.450000e+00
 SN6dh TX4er  1 3.650000e-01    2.110000e+00
 SN6dr TX4eh  1 3.650000e-01    2.110000e+00
 SN6dh TX3er  1 3.650000e-01    1.910000e+00
 SN6dr TX3eh  1 3.650000e-01    1.910000e+00
 SN6dh TX2er  1 3.650000e-01    1.750000e+00
 SN6dr TX2eh  1 3.650000e-01    1.750000e+00
 SN6dh TX1er  1 3.660000e-01    1.600000e+00
 SN6dr TX1eh  1 3.660000e-01    1.600000e+00
 SN5dh TC6vr  1 3.650000e-01    1.750000e+00
 SN5dr TC6vh  1 3.650000e-01    1.750000e+00
 SN5dh TC5vr  1 3.660000e-01    1.600000e+00
 SN5dr TC5vh  1 3.660000e-01    1.600000e+00
 SN5dh TC4vr  1 3.780000e-01    1.450000e+00
 SN5dr TC4vh  1 3.780000e-01    1.450000e+00
 SN5dh TC3vr  1 3.780000e-01    1.450000e+00
 SN5dr TC3vh  1 3.780000e-01    1.450000e+00
 SN5dh TC2vr  1 3.940000e-01    1.290000e+00
 SN5dr TC2vh  1 3.940000e-01    1.290000e+00
 SN5dh TC1vr  1 4.040000e-01    1.130000e+00
 SN5dr TC1vh  1 4.040000e-01    1.130000e+00
 SN5dh TX4vr  1 3.650000e-01    1.910000e+00
 SN5dr TX4vh  1 3.650000e-01    1.910000e+00
 SN5dh TX3vr  1 3.650000e-01    1.750000e+00
 SN5dr TX3vh  1 3.650000e-01    1.750000e+00
 SN5dh TX2vr  1 3.660000e-01    1.600000e+00
 SN5dr TX2vh  1 3.660000e-01    1.600000e+00
 SN5dh TX1vr  1 3.780000e-01    1.450000e+00
 SN5dr TX1vh  1 3.780000e-01    1.450000e+00
 SN5dh TC6er  1 3.650000e-01    2.110000e+00
 SN5dr TC6eh  1 3.650000e-01    2.110000e+00
 SN5dh TC5er  1 3.650000e-01    1.910000e+00
 SN5dr TC5eh  1 3.650000e-01    1.910000e+00
 SN5dh TC4er  1 3.650000e-01    1.750000e+00
 SN5dr TC4eh  1 3.650000e-01    1.750000e+00
 SN5dh TC3er  1 3.650000e-01    1.750000e+00
 SN5dr TC3eh  1 3.650000e-01    1.750000e+00
 SN5dh TC2er  1 3.660000e-01    1.600000e+00
 SN5dr TC2eh  1 3.660000e-01    1.600000e+00
 SN5dh TC1er  1 3.780000e-01    1.450000e+00
 SN5dr TC1eh  1 3.780000e-01    1.450000e+00
 SN5dh TX4er  1 3.650000e-01    2.340000e+00
 SN5dr TX4eh  1 3.650000e-01    2.340000e+00
 SN5dh TX3er  1 3.650000e-01    2.110000e+00
 SN5dr TX3eh  1 3.650000e-01    2.110000e+00
 SN5dh TX2er  1 3.650000e-01    1.910000e+00
 SN5dr TX2eh  1 3.650000e-01    1.910000e+00
 SN5dh TX1er  1 3.650000e-01    1.750000e+00
 SN5dr TX1eh  1 3.650000e-01    1.750000e+00
 SN4dh TC6vr  1 3.650000e-01    1.750000e+00
 SN4dr TC6vh  1 3.650000e-01    1.750000e+00
 SN4dh TC5vr  1 3.660000e-01    1.600000e+00
 SN4dr TC5vh  1 3.660000e-01    1.600000e+00
 SN4dh TC4vr  1 3.660000e-01    1.600000e+00
 SN4dr TC4vh  1 3.660000e-01    1.600000e+00
 SN4dh TC3vr  1 3.780000e-01    1.450000e+00
 SN4dr TC3vh  1 3.780000e-01    1.450000e+00
 SN4dh TC2vr  1 3.940000e-01    1.290000e+00
 SN4dr TC2vh  1 3.940000e-01    1.290000e+00
 SN4dh TC1vr  1 4.040000e-01    1.130000e+00
 SN4dr TC1vh  1 4.040000e-01    1.130000e+00
 SN4dh TX4vr  1 3.650000e-01    2.110000e+00
 SN4dr TX4vh  1 3.650000e-01    2.110000e+00
 SN4dh TX3vr  1 3.650000e-01    1.910000e+00
 SN4dr TX3vh  1 3.650000e-01    1.910000e+00
 SN4dh TX2vr  1 3.660000e-01    1.600000e+00
 SN4dr TX2vh  1 3.660000e-01    1.600000e+00
 SN4dh TX1vr  1 3.780000e-01    1.450000e+00
 SN4dr TX1vh  1 3.780000e-01    1.450000e+00
 SN4dh TC6er  1 3.650000e-01    2.110000e+00
 SN4dr TC6eh  1 3.650000e-01    2.110000e+00
 SN4dh TC5er  1 3.650000e-01    1.910000e+00
 SN4dr TC5eh  1 3.650000e-01    1.910000e+00
 SN4dh TC4er  1 3.650000e-01    1.910000e+00
 SN4dr TC4eh  1 3.650000e-01    1.910000e+00
 SN4dh TC3er  1 3.650000e-01    1.750000e+00
 SN4dr TC3eh  1 3.650000e-01    1.750000e+00
 SN4dh TC2er  1 3.660000e-01    1.600000e+00
 SN4dr TC2eh  1 3.660000e-01    1.600000e+00
 SN4dh TC1er  1 3.780000e-01    1.450000e+00
 SN4dr TC1eh  1 3.780000e-01    1.450000e+00
 SN4dh TX4er  1 3.650000e-01    2.570000e+00
 SN4dr TX4eh  1 3.650000e-01    2.570000e+00
 SN4dh TX3er  1 3.650000e-01    2.340000e+00
 SN4dr TX3eh  1 3.650000e-01    2.340000e+00
 SN4dh TX2er  1 3.650000e-01    1.910000e+00
 SN4dr TX2eh  1 3.650000e-01    1.910000e+00
 SN4dh TX1er  1 3.650000e-01    1.750000e+00
 SN4dr TX1eh  1 3.650000e-01    1.750000e+00
 SN3dh TC6vr  1 3.650000e-01    1.750000e+00
 SN3dr TC6vh  1 3.650000e-01    1.750000e+00
 SN3dh TC5vr  1 3.660000e-01    1.600000e+00
 SN3dr TC5vh  1 3.660000e-01    1.600000e+00
 SN3dh TC4vr  1 3.660000e-01    1.600000e+00
 SN3dr TC4vh  1 3.660000e-01    1.600000e+00
 SN3dh TC3vr  1 3.780000e-01    1.450000e+00
 SN3dr TC3vh  1 3.780000e-01    1.450000e+00
 SN3dh TC2vr  1 3.780000e-01    1.450000e+00
 SN3dr TC2vh  1 3.780000e-01    1.450000e+00
 SN3dh TC1vr  1 3.940000e-01    1.290000e+00
 SN3dr TC1vh  1 3.940000e-01    1.290000e+00
 SN3dh TX4vr  1 3.650000e-01    1.910000e+00
 SN3dr TX4vh  1 3.650000e-01    1.910000e+00
 SN3dh TX3vr  1 3.650000e-01    1.750000e+00
 SN3dr TX3vh  1 3.650000e-01    1.750000e+00
 SN3dh TX2vr  1 3.660000e-01    1.600000e+00
 SN3dr TX2vh  1 3.660000e-01    1.600000e+00
 SN3dh TX1vr  1 3.660000e-01    1.600000e+00
 SN3dr TX1vh  1 3.660000e-01    1.600000e+00
 SN3dh TC6er  1 3.650000e-01    2.110000e+00
 SN3dr TC6eh  1 3.650000e-01    2.110000e+00
 SN3dh TC5er  1 3.650000e-01    1.910000e+00
 SN3dr TC5eh  1 3.650000e-01    1.910000e+00
 SN3dh TC4er  1 3.650000e-01    1.910000e+00
 SN3dr TC4eh  1 3.650000e-01    1.910000e+00
 SN3dh TC3er  1 3.650000e-01    1.750000e+00
 SN3dr TC3eh  1 3.650000e-01    1.750000e+00
 SN3dh TC2er  1 3.650000e-01    1.750000e+00
 SN3dr TC2eh  1 3.650000e-01    1.750000e+00
 SN3dh TC1er  1 3.660000e-01    1.600000e+00
 SN3dr TC1eh  1 3.660000e-01    1.600000e+00
 SN3dh TX4er  1 3.650000e-01    2.340000e+00
 SN3dr TX4eh  1 3.650000e-01    2.340000e+00
 SN3dh TX3er  1 3.650000e-01    2.110000e+00
 SN3dr TX3eh  1 3.650000e-01    2.110000e+00
 SN3dh TX2er  1 3.650000e-01    1.910000e+00
 SN3dr TX2eh  1 3.650000e-01    1.910000e+00
 SN3dh TX1er  1 3.650000e-01    1.910000e+00
 SN3dr TX1eh  1 3.650000e-01    1.910000e+00
 SN2dh TC6vr  1 3.650000e-01    1.750000e+00
 SN2dr TC6vh  1 3.650000e-01    1.750000e+00
 SN2dh TC5vr  1 3.660000e-01    1.600000e+00
 SN2dr TC5vh  1 3.660000e-01    1.600000e+00
 SN2dh TC4vr  1 3.660000e-01    1.600000e+00
 SN2dr TC4vh  1 3.660000e-01    1.600000e+00
 SN2dh TC3vr  1 3.660000e-01    1.600000e+00
 SN2dr TC3vh  1 3.660000e-01    1.600000e+00
 SN2dh TC2vr  1 3.780000e-01    1.450000e+00
 SN2dr TC2vh  1 3.780000e-01    1.450000e+00
 SN2dh TC1vr  1 3.940000e-01    1.290000e+00
 SN2dr TC1vh  1 3.940000e-01    1.290000e+00
 SN2dh TX4vr  1 3.650000e-01    1.910000e+00
 SN2dr TX4vh  1 3.650000e-01    1.910000e+00
 SN2dh TX3vr  1 3.650000e-01    1.750000e+00
 SN2dr TX3vh  1 3.650000e-01    1.750000e+00
 SN2dh TX2vr  1 3.660000e-01    1.600000e+00
 SN2dr TX2vh  1 3.660000e-01    1.600000e+00
 SN2dh TX1vr  1 3.660000e-01    1.600000e+00
 SN2dr TX1vh  1 3.660000e-01    1.600000e+00
 SN2dh TC6er  1 3.650000e-01    2.110000e+00
 SN2dr TC6eh  1 3.650000e-01    2.110000e+00
 SN2dh TC5er  1 3.650000e-01    1.910000e+00
 SN2dr TC5eh  1 3.650000e-01    1.910000e+00
 SN2dh TC4er  1 3.650000e-01    1.910000e+00
 SN2dr TC4eh  1 3.650000e-01    1.910000e+00
 SN2dh TC3er  1 3.650000e-01    1.910000e+00
 SN2dr TC3eh  1 3.650000e-01    1.910000e+00
 SN2dh TC2er  1 3.650000e-01    1.750000e+00
 SN2dr TC2eh  1 3.650000e-01    1.750000e+00
 SN2dh TC1er  1 3.660000e-01    1.600000e+00
 SN2dr TC1eh  1 3.660000e-01    1.600000e+00
 SN2dh TX4er  1 3.650000e-01    2.340000e+00
 SN2dr TX4eh  1 3.650000e-01    2.340000e+00
 SN2dh TX3er  1 3.650000e-01    2.110000e+00
 SN2dr TX3eh  1 3.650000e-01    2.110000e+00
 SN2dh TX2er  1 3.650000e-01    1.910000e+00
 SN2dr TX2eh  1 3.650000e-01    1.910000e+00
 SN2dh TX1er  1 3.650000e-01    1.910000e+00
 SN2dr TX1eh  1 3.650000e-01    1.910000e+00
 SN1dh TC6vr  1 3.650000e-01    1.910000e+00
 SN1dr TC6vh  1 3.650000e-01    1.910000e+00
 SN1dh TC5vr  1 3.650000e-01    1.750000e+00
 SN1dr TC5vh  1 3.650000e-01    1.750000e+00
 SN1dh TC4vr  1 3.650000e-01    1.750000e+00
 SN1dr TC4vh  1 3.650000e-01    1.750000e+00
 SN1dh TC3vr  1 3.660000e-01    1.600000e+00
 SN1dr TC3vh  1 3.660000e-01    1.600000e+00
 SN1dh TC2vr  1 3.780000e-01    1.450000e+00
 SN1dr TC2vh  1 3.780000e-01    1.450000e+00
 SN1dh TC1vr  1 3.940000e-01    1.290000e+00
 SN1dr TC1vh  1 3.940000e-01    1.290000e+00
 SN1dh TX4vr  1 3.650000e-01    1.750000e+00
 SN1dr TX4vh  1 3.650000e-01    1.750000e+00
 SN1dh TX3vr  1 3.650000e-01    1.750000e+00
 SN1dr TX3vh  1 3.650000e-01    1.750000e+00
 SN1dh TX2vr  1 3.660000e-01    1.600000e+00
 SN1dr TX2vh  1 3.660000e-01    1.600000e+00
 SN1dh TX1vr  1 3.660000e-01    1.600000e+00
 SN1dr TX1vh  1 3.660000e-01    1.600000e+00
 SN1dh TC6er  1 3.650000e-01    2.340000e+00
 SN1dr TC6eh  1 3.650000e-01    2.340000e+00
 SN1dh TC5er  1 3.650000e-01    2.110000e+00
 SN1dr TC5eh  1 3.650000e-01    2.110000e+00
 SN1dh TC4er  1 3.650000e-01    2.110000e+00
 SN1dr TC4eh  1 3.650000e-01    2.110000e+00
 SN1dh TC3er  1 3.650000e-01    1.910000e+00
 SN1dr TC3eh  1 3.650000e-01    1.910000e+00
 SN1dh TC2er  1 3.650000e-01    1.750000e+00
 SN1dr TC2eh  1 3.650000e-01    1.750000e+00
 SN1dh TC1er  1 3.660000e-01    1.600000e+00
 SN1dr TC1eh  1 3.660000e-01    1.600000e+00
 SN1dh TX4er  1 3.650000e-01    2.110000e+00
 SN1dr TX4eh  1 3.650000e-01    2.110000e+00
 SN1dh TX3er  1 3.650000e-01    2.110000e+00
 SN1dr TX3eh  1 3.650000e-01    2.110000e+00
 SN1dh TX2er  1 3.650000e-01    1.910000e+00
 SN1dr TX2eh  1 3.650000e-01    1.910000e+00
 SN1dh TX1er  1 3.650000e-01    1.910000e+00
 SN1dr TX1eh  1 3.650000e-01    1.910000e+00
 SP6ah TC6vr  1 3.660000e-01    1.600000e+00
 SP6ar TC6vh  1 3.660000e-01    1.600000e+00
 SP6ah TC5vr  1 3.780000e-01    1.450000e+00
 SP6ar TC5vh  1 3.780000e-01    1.450000e+00
 SP6ah TC4vr  1 3.940000e-01    1.290000e+00
 SP6ar TC4vh  1 3.940000e-01    1.290000e+00
 SP6ah TC3vr  1 4.040000e-01    1.130000e+00
 SP6ar TC3vh  1 4.040000e-01    1.130000e+00
 SP6ah TC2vr  1 4.040000e-01    1.130000e+00
 SP6ar TC2vh  1 4.040000e-01    1.130000e+00
 SP6ah TC1vr  1 4.230000e-01    9.810000e-01
 SP6ar TC1vh  1 4.230000e-01    9.810000e-01
 SP6ah TX4vr  1 3.650000e-01    1.750000e+00
 SP6ar TX4vh  1 3.650000e-01    1.750000e+00
 SP6ah TX3vr  1 3.650000e-01    1.750000e+00
 SP6ar TX3vh  1 3.650000e-01    1.750000e+00
 SP6ah TX2vr  1 3.660000e-01    1.600000e+00
 SP6ar TX2vh  1 3.660000e-01    1.600000e+00
 SP6ah TX1vr  1 3.780000e-01    1.450000e+00
 SP6ar TX1vh  1 3.780000e-01    1.450000e+00
 SP6ah TC6er  1 3.940000e-01    1.290000e+00
 SP6ar TC6eh  1 3.940000e-01    1.290000e+00
 SP6ah TC5er  1 4.040000e-01    1.130000e+00
 SP6ar TC5eh  1 4.040000e-01    1.130000e+00
 SP6ah TC4er  1 4.090000e-01    1.080000e+00
 SP6ar TC4eh  1 4.090000e-01    1.080000e+00
 SP6ah TC3er  1 4.230000e-01    9.810000e-01
 SP6ar TC3eh  1 4.230000e-01    9.810000e-01
 SP6ah TC2er  1 4.230000e-01    9.810000e-01
 SP6ar TC2eh  1 4.230000e-01    9.810000e-01
 SP6ah TC1er  1 5.370000e-01    8.080000e-01
 SP6ar TC1eh  1 5.370000e-01    8.080000e-01
 SP6ah TX4er  1 3.780000e-01    1.450000e+00
 SP6ar TX4eh  1 3.780000e-01    1.450000e+00
 SP6ah TX3er  1 3.780000e-01    1.450000e+00
 SP6ar TX3eh  1 3.780000e-01    1.450000e+00
 SP6ah TX2er  1 3.940000e-01    1.290000e+00
 SP6ar TX2eh  1 3.940000e-01    1.290000e+00
 SP6ah TX1er  1 4.040000e-01    1.130000e+00
 SP6ar TX1eh  1 4.040000e-01    1.130000e+00
 SP5ah TC6vr  1 3.660000e-01    1.600000e+00
 SP5ar TC6vh  1 3.660000e-01    1.600000e+00
 SP5ah TC5vr  1 3.660000e-01    1.600000e+00
 SP5ar TC5vh  1 3.660000e-01    1.600000e+00
 SP5ah TC4vr  1 3.780000e-01    1.450000e+00
 SP5ar TC4vh  1 3.780000e-01    1.450000e+00
 SP5ah TC3vr  1 3.940000e-01    1.290000e+00
 SP5ar TC3vh  1 3.940000e-01    1.290000e+00
 SP5ah TC2vr  1 3.940000e-01    1.290000e+00
 SP5ar TC2vh  1 3.940000e-01    1.290000e+00
 SP5ah TC1vr  1 4.040000e-01    1.130000e+00
 SP5ar TC1vh  1 4.040000e-01    1.130000e+00
 SP5ah TX4vr  1 3.650000e-01    1.910000e+00
 SP5ar TX4vh  1 3.650000e-01    1.910000e+00
 SP5ah TX3vr  1 3.650000e-01    1.750000e+00
 SP5ar TX3vh  1 3.650000e-01    1.750000e+00
 SP5ah TX2vr  1 3.650000e-01    1.750000e+00
 SP5ar TX2vh  1 3.650000e-01    1.750000e+00
 SP5ah TX1vr  1 3.780000e-01    1.450000e+00
 SP5ar TX1vh  1 3.780000e-01    1.450000e+00
 SP5ah TC6er  1 3.940000e-01    1.290000e+00
 SP5ar TC6eh  1 3.940000e-01    1.290000e+00
 SP5ah TC5er  1 3.940000e-01    1.290000e+00
 SP5ar TC5eh  1 3.940000e-01    1.290000e+00
 SP5ah TC4er  1 4.040000e-01    1.130000e+00
 SP5ar TC4eh  1 4.040000e-01    1.130000e+00
 SP5ah TC3er  1 4.090000e-01    1.080000e+00
 SP5ar TC3eh  1 4.090000e-01    1.080000e+00
 SP5ah TC2er  1 4.090000e-01    1.080000e+00
 SP5ar TC2eh  1 4.090000e-01    1.080000e+00
 SP5ah TC1er  1 4.230000e-01    9.810000e-01
 SP5ar TC1eh  1 4.230000e-01    9.810000e-01
 SP5ah TX4er  1 3.660000e-01    1.600000e+00
 SP5ar TX4eh  1 3.660000e-01    1.600000e+00
 SP5ah TX3er  1 3.780000e-01    1.450000e+00
 SP5ar TX3eh  1 3.780000e-01    1.450000e+00
 SP5ah TX2er  1 3.780000e-01    1.450000e+00
 SP5ar TX2eh  1 3.780000e-01    1.450000e+00
 SP5ah TX1er  1 4.040000e-01    1.130000e+00
 SP5ar TX1eh  1 4.040000e-01    1.130000e+00
 SP4ah TC6vr  1 3.650000e-01    1.750000e+00
 SP4ar TC6vh  1 3.650000e-01    1.750000e+00
 SP4ah TC5vr  1 3.660000e-01    1.600000e+00
 SP4ar TC5vh  1 3.660000e-01    1.600000e+00
 SP4ah TC4vr  1 3.780000e-01    1.450000e+00
 SP4ar TC4vh  1 3.780000e-01    1.450000e+00
 SP4ah TC3vr  1 3.940000e-01    1.290000e+00
 SP4ar TC3vh  1 3.940000e-01    1.290000e+00
 SP4ah TC2vr  1 3.940000e-01    1.290000e+00
 SP4ar TC2vh  1 3.940000e-01    1.290000e+00
 SP4ah TC1vr  1 4.040000e-01    1.130000e+00
 SP4ar TC1vh  1 4.040000e-01    1.130000e+00
 SP4ah TX4vr  1 3.650000e-01    1.910000e+00
 SP4ar TX4vh  1 3.650000e-01    1.910000e+00
 SP4ah TX3vr  1 3.650000e-01    1.750000e+00
 SP4ar TX3vh  1 3.650000e-01    1.750000e+00
 SP4ah TX2vr  1 3.650000e-01    1.750000e+00
 SP4ar TX2vh  1 3.650000e-01    1.750000e+00
 SP4ah TX1vr  1 3.660000e-01    1.600000e+00
 SP4ar TX1vh  1 3.660000e-01    1.600000e+00
 SP4ah TC6er  1 3.780000e-01    1.450000e+00
 SP4ar TC6eh  1 3.780000e-01    1.450000e+00
 SP4ah TC5er  1 3.940000e-01    1.290000e+00
 SP4ar TC5eh  1 3.940000e-01    1.290000e+00
 SP4ah TC4er  1 4.040000e-01    1.130000e+00
 SP4ar TC4eh  1 4.040000e-01    1.130000e+00
 SP4ah TC3er  1 4.090000e-01    1.080000e+00
 SP4ar TC3eh  1 4.090000e-01    1.080000e+00
 SP4ah TC2er  1 4.090000e-01    1.080000e+00
 SP4ar TC2eh  1 4.090000e-01    1.080000e+00
 SP4ah TC1er  1 4.230000e-01    9.810000e-01
 SP4ar TC1eh  1 4.230000e-01    9.810000e-01
 SP4ah TX4er  1 3.660000e-01    1.600000e+00
 SP4ar TX4eh  1 3.660000e-01    1.600000e+00
 SP4ah TX3er  1 3.780000e-01    1.450000e+00
 SP4ar TX3eh  1 3.780000e-01    1.450000e+00
 SP4ah TX2er  1 3.780000e-01    1.450000e+00
 SP4ar TX2eh  1 3.780000e-01    1.450000e+00
 SP4ah TX1er  1 3.940000e-01    1.290000e+00
 SP4ar TX1eh  1 3.940000e-01    1.290000e+00
 SP3ah TC6vr  1 3.650000e-01    1.910000e+00
 SP3ar TC6vh  1 3.650000e-01    1.910000e+00
 SP3ah TC5vr  1 3.650000e-01    1.750000e+00
 SP3ar TC5vh  1 3.650000e-01    1.750000e+00
 SP3ah TC4vr  1 3.660000e-01    1.600000e+00
 SP3ar TC4vh  1 3.660000e-01    1.600000e+00
 SP3ah TC3vr  1 3.940000e-01    1.290000e+00
 SP3ar TC3vh  1 3.940000e-01    1.290000e+00
 SP3ah TC2vr  1 3.940000e-01    1.290000e+00
 SP3ar TC2vh  1 3.940000e-01    1.290000e+00
 SP3ah TC1vr  1 4.040000e-01    1.130000e+00
 SP3ar TC1vh  1 4.040000e-01    1.130000e+00
 SP3ah TX4vr  1 3.650000e-01    1.910000e+00
 SP3ar TX4vh  1 3.650000e-01    1.910000e+00
 SP3ah TX3vr  1 3.650000e-01    1.910000e+00
 SP3ar TX3vh  1 3.650000e-01    1.910000e+00
 SP3ah TX2vr  1 3.650000e-01    1.750000e+00
 SP3ar TX2vh  1 3.650000e-01    1.750000e+00
 SP3ah TX1vr  1 3.660000e-01    1.600000e+00
 SP3ar TX1vh  1 3.660000e-01    1.600000e+00
 SP3ah TC6er  1 3.660000e-01    1.600000e+00
 SP3ar TC6eh  1 3.660000e-01    1.600000e+00
 SP3ah TC5er  1 3.780000e-01    1.450000e+00
 SP3ar TC5eh  1 3.780000e-01    1.450000e+00
 SP3ah TC4er  1 3.940000e-01    1.290000e+00
 SP3ar TC4eh  1 3.940000e-01    1.290000e+00
 SP3ah TC3er  1 4.090000e-01    1.080000e+00
 SP3ar TC3eh  1 4.090000e-01    1.080000e+00
 SP3ah TC2er  1 4.090000e-01    1.080000e+00
 SP3ar TC2eh  1 4.090000e-01    1.080000e+00
 SP3ah TC1er  1 4.230000e-01    9.810000e-01
 SP3ar TC1eh  1 4.230000e-01    9.810000e-01
 SP3ah TX4er  1 3.660000e-01    1.600000e+00
 SP3ar TX4eh  1 3.660000e-01    1.600000e+00
 SP3ah TX3er  1 3.660000e-01    1.600000e+00
 SP3ar TX3eh  1 3.660000e-01    1.600000e+00
 SP3ah TX2er  1 3.780000e-01    1.450000e+00
 SP3ar TX2eh  1 3.780000e-01    1.450000e+00
 SP3ah TX1er  1 3.940000e-01    1.290000e+00
 SP3ar TX1eh  1 3.940000e-01    1.290000e+00
 SP2ah TC6vr  1 3.650000e-01    1.910000e+00
 SP2ar TC6vh  1 3.650000e-01    1.910000e+00
 SP2ah TC5vr  1 3.650000e-01    1.750000e+00
 SP2ar TC5vh  1 3.650000e-01    1.750000e+00
 SP2ah TC4vr  1 3.660000e-01    1.600000e+00
 SP2ar TC4vh  1 3.660000e-01    1.600000e+00
 SP2ah TC3vr  1 3.780000e-01    1.450000e+00
 SP2ar TC3vh  1 3.780000e-01    1.450000e+00
 SP2ah TC2vr  1 3.780000e-01    1.450000e+00
 SP2ar TC2vh  1 3.780000e-01    1.450000e+00
 SP2ah TC1vr  1 3.940000e-01    1.290000e+00
 SP2ar TC1vh  1 3.940000e-01    1.290000e+00
 SP2ah TX4vr  1 3.650000e-01    1.910000e+00
 SP2ar TX4vh  1 3.650000e-01    1.910000e+00
 SP2ah TX3vr  1 3.650000e-01    1.910000e+00
 SP2ar TX3vh  1 3.650000e-01    1.910000e+00
 SP2ah TX2vr  1 3.650000e-01    1.750000e+00
 SP2ar TX2vh  1 3.650000e-01    1.750000e+00
 SP2ah TX1vr  1 3.660000e-01    1.600000e+00
 SP2ar TX1vh  1 3.660000e-01    1.600000e+00
 SP2ah TC6er  1 3.660000e-01    1.600000e+00
 SP2ar TC6eh  1 3.660000e-01    1.600000e+00
 SP2ah TC5er  1 3.780000e-01    1.450000e+00
 SP2ar TC5eh  1 3.780000e-01    1.450000e+00
 SP2ah TC4er  1 3.940000e-01    1.290000e+00
 SP2ar TC4eh  1 3.940000e-01    1.290000e+00
 SP2ah TC3er  1 4.040000e-01    1.130000e+00
 SP2ar TC3eh  1 4.040000e-01    1.130000e+00
 SP2ah TC2er  1 4.040000e-01    1.130000e+00
 SP2ar TC2eh  1 4.040000e-01    1.130000e+00
 SP2ah TC1er  1 4.090000e-01    1.080000e+00
 SP2ar TC1eh  1 4.090000e-01    1.080000e+00
 SP2ah TX4er  1 3.660000e-01    1.600000e+00
 SP2ar TX4eh  1 3.660000e-01    1.600000e+00
 SP2ah TX3er  1 3.660000e-01    1.600000e+00
 SP2ar TX3eh  1 3.660000e-01    1.600000e+00
 SP2ah TX2er  1 3.780000e-01    1.450000e+00
 SP2ar TX2eh  1 3.780000e-01    1.450000e+00
 SP2ah TX1er  1 3.940000e-01    1.290000e+00
 SP2ar TX1eh  1 3.940000e-01    1.290000e+00
 SP1ah TC6vr  1 3.650000e-01    1.910000e+00
 SP1ar TC6vh  1 3.650000e-01    1.910000e+00
 SP1ah TC5vr  1 3.650000e-01    1.750000e+00
 SP1ar TC5vh  1 3.650000e-01    1.750000e+00
 SP1ah TC4vr  1 3.660000e-01    1.600000e+00
 SP1ar TC4vh  1 3.660000e-01    1.600000e+00
 SP1ah TC3vr  1 3.780000e-01    1.450000e+00
 SP1ar TC3vh  1 3.780000e-01    1.450000e+00
 SP1ah TC2vr  1 3.780000e-01    1.450000e+00
 SP1ar TC2vh  1 3.780000e-01    1.450000e+00
 SP1ah TC1vr  1 3.940000e-01    1.290000e+00
 SP1ar TC1vh  1 3.940000e-01    1.290000e+00
 SP1ah TX4vr  1 3.650000e-01    1.910000e+00
 SP1ar TX4vh  1 3.650000e-01    1.910000e+00
 SP1ah TX3vr  1 3.650000e-01    1.910000e+00
 SP1ar TX3vh  1 3.650000e-01    1.910000e+00
 SP1ah TX2vr  1 3.650000e-01    1.750000e+00
 SP1ar TX2vh  1 3.650000e-01    1.750000e+00
 SP1ah TX1vr  1 3.660000e-01    1.600000e+00
 SP1ar TX1vh  1 3.660000e-01    1.600000e+00
 SP1ah TC6er  1 3.660000e-01    1.600000e+00
 SP1ar TC6eh  1 3.660000e-01    1.600000e+00
 SP1ah TC5er  1 3.780000e-01    1.450000e+00
 SP1ar TC5eh  1 3.780000e-01    1.450000e+00
 SP1ah TC4er  1 3.940000e-01    1.290000e+00
 SP1ar TC4eh  1 3.940000e-01    1.290000e+00
 SP1ah TC3er  1 4.040000e-01    1.130000e+00
 SP1ar TC3eh  1 4.040000e-01    1.130000e+00
 SP1ah TC2er  1 4.040000e-01    1.130000e+00
 SP1ar TC2eh  1 4.040000e-01    1.130000e+00
 SP1ah TC1er  1 4.090000e-01    1.080000e+00
 SP1ar TC1eh  1 4.090000e-01    1.080000e+00
 SP1ah TX4er  1 3.660000e-01    1.600000e+00
 SP1ar TX4eh  1 3.660000e-01    1.600000e+00
 SP1ah TX3er  1 3.660000e-01    1.600000e+00
 SP1ar TX3eh  1 3.660000e-01    1.600000e+00
 SP1ah TX2er  1 3.780000e-01    1.450000e+00
 SP1ar TX2eh  1 3.780000e-01    1.450000e+00
 SP1ah TX1er  1 3.940000e-01    1.290000e+00
 SP1ar TX1eh  1 3.940000e-01    1.290000e+00
 SN6ah TC6vr  1 3.650000e-01    2.110000e+00
 SN6ar TC6vh  1 3.650000e-01    2.110000e+00
 SN6ah TC5vr  1 3.650000e-01    1.910000e+00
 SN6ar TC5vh  1 3.650000e-01    1.910000e+00
 SN6ah TC4vr  1 3.650000e-01    1.750000e+00
 SN6ar TC4vh  1 3.650000e-01    1.750000e+00
 SN6ah TC3vr  1 3.660000e-01    1.600000e+00
 SN6ar TC3vh  1 3.660000e-01    1.600000e+00
 SN6ah TC2vr  1 3.660000e-01    1.600000e+00
 SN6ar TC2vh  1 3.660000e-01    1.600000e+00
 SN6ah TC1vr  1 3.780000e-01    1.450000e+00
 SN6ar TC1vh  1 3.780000e-01    1.450000e+00
 SN6ah TX4vr  1 3.650000e-01    2.110000e+00
 SN6ar TX4vh  1 3.650000e-01    2.110000e+00
 SN6ah TX3vr  1 3.650000e-01    1.910000e+00
 SN6ar TX3vh  1 3.650000e-01    1.910000e+00
 SN6ah TX2vr  1 3.650000e-01    1.750000e+00
 SN6ar TX2vh  1 3.650000e-01    1.750000e+00
 SN6ah TX1vr  1 3.660000e-01    1.600000e+00
 SN6ar TX1vh  1 3.660000e-01    1.600000e+00
 SN6ah TC6er  1 3.650000e-01    1.750000e+00
 SN6ar TC6eh  1 3.650000e-01    1.750000e+00
 SN6ah TC5er  1 3.660000e-01    1.600000e+00
 SN6ar TC5eh  1 3.660000e-01    1.600000e+00
 SN6ah TC4er  1 3.780000e-01    1.450000e+00
 SN6ar TC4eh  1 3.780000e-01    1.450000e+00
 SN6ah TC3er  1 3.940000e-01    1.290000e+00
 SN6ar TC3eh  1 3.940000e-01    1.290000e+00
 SN6ah TC2er  1 3.940000e-01    1.290000e+00
 SN6ar TC2eh  1 3.940000e-01    1.290000e+00
 SN6ah TC1er  1 4.040000e-01    1.130000e+00
 SN6ar TC1eh  1 4.040000e-01    1.130000e+00
 SN6ah TX4er  1 3.650000e-01    1.750000e+00
 SN6ar TX4eh  1 3.650000e-01    1.750000e+00
 SN6ah TX3er  1 3.660000e-01    1.600000e+00
 SN6ar TX3eh  1 3.660000e-01    1.600000e+00
 SN6ah TX2er  1 3.780000e-01    1.450000e+00
 SN6ar TX2eh  1 3.780000e-01    1.450000e+00
 SN6ah TX1er  1 3.940000e-01    1.290000e+00
 SN6ar TX1eh  1 3.940000e-01    1.290000e+00
 SN5ah TC6vr  1 3.650000e-01    2.110000e+00
 SN5ar TC6vh  1 3.650000e-01    2.110000e+00
 SN5ah TC5vr  1 3.650000e-01    1.910000e+00
 SN5ar TC5vh  1 3.650000e-01    1.910000e+00
 SN5ah TC4vr  1 3.650000e-01    1.750000e+00
 SN5ar TC4vh  1 3.650000e-01    1.750000e+00
 SN5ah TC3vr  1 3.650000e-01    1.750000e+00
 SN5ar TC3vh  1 3.650000e-01    1.750000e+00
 SN5ah TC2vr  1 3.660000e-01    1.600000e+00
 SN5ar TC2vh  1 3.660000e-01    1.600000e+00
 SN5ah TC1vr  1 3.780000e-01    1.450000e+00
 SN5ar TC1vh  1 3.780000e-01    1.450000e+00
 SN5ah TX4vr  1 3.650000e-01    2.340000e+00
 SN5ar TX4vh  1 3.650000e-01    2.340000e+00
 SN5ah TX3vr  1 3.650000e-01    2.110000e+00
 SN5ar TX3vh  1 3.650000e-01    2.110000e+00
 SN5ah TX2vr  1 3.650000e-01    1.910000e+00
 SN5ar TX2vh  1 3.650000e-01    1.910000e+00
 SN5ah TX1vr  1 3.650000e-01    1.750000e+00
 SN5ar TX1vh  1 3.650000e-01    1.750000e+00
 SN5ah TC6er  1 3.650000e-01    1.750000e+00
 SN5ar TC6eh  1 3.650000e-01    1.750000e+00
 SN5ah TC5er  1 3.660000e-01    1.600000e+00
 SN5ar TC5eh  1 3.660000e-01    1.600000e+00
 SN5ah TC4er  1 3.780000e-01    1.450000e+00
 SN5ar TC4eh  1 3.780000e-01    1.450000e+00
 SN5ah TC3er  1 3.780000e-01    1.450000e+00
 SN5ar TC3eh  1 3.780000e-01    1.450000e+00
 SN5ah TC2er  1 3.940000e-01    1.290000e+00
 SN5ar TC2eh  1 3.940000e-01    1.290000e+00
 SN5ah TC1er  1 4.040000e-01    1.130000e+00
 SN5ar TC1eh  1 4.040000e-01    1.130000e+00
 SN5ah TX4er  1 3.650000e-01    1.910000e+00
 SN5ar TX4eh  1 3.650000e-01    1.910000e+00
 SN5ah TX3er  1 3.650000e-01    1.750000e+00
 SN5ar TX3eh  1 3.650000e-01    1.750000e+00
 SN5ah TX2er  1 3.660000e-01    1.600000e+00
 SN5ar TX2eh  1 3.660000e-01    1.600000e+00
 SN5ah TX1er  1 3.780000e-01    1.450000e+00
 SN5ar TX1eh  1 3.780000e-01    1.450000e+00
 SN4ah TC6vr  1 3.650000e-01    2.110000e+00
 SN4ar TC6vh  1 3.650000e-01    2.110000e+00
 SN4ah TC5vr  1 3.650000e-01    1.910000e+00
 SN4ar TC5vh  1 3.650000e-01    1.910000e+00
 SN4ah TC4vr  1 3.650000e-01    1.910000e+00
 SN4ar TC4vh  1 3.650000e-01    1.910000e+00
 SN4ah TC3vr  1 3.650000e-01    1.750000e+00
 SN4ar TC3vh  1 3.650000e-01    1.750000e+00
 SN4ah TC2vr  1 3.660000e-01    1.600000e+00
 SN4ar TC2vh  1 3.660000e-01    1.600000e+00
 SN4ah TC1vr  1 3.780000e-01    1.450000e+00
 SN4ar TC1vh  1 3.780000e-01    1.450000e+00
 SN4ah TX4vr  1 3.650000e-01    2.570000e+00
 SN4ar TX4vh  1 3.650000e-01    2.570000e+00
 SN4ah TX3vr  1 3.650000e-01    2.340000e+00
 SN4ar TX3vh  1 3.650000e-01    2.340000e+00
 SN4ah TX2vr  1 3.650000e-01    1.910000e+00
 SN4ar TX2vh  1 3.650000e-01    1.910000e+00
 SN4ah TX1vr  1 3.650000e-01    1.750000e+00
 SN4ar TX1vh  1 3.650000e-01    1.750000e+00
 SN4ah TC6er  1 3.650000e-01    1.750000e+00
 SN4ar TC6eh  1 3.650000e-01    1.750000e+00
 SN4ah TC5er  1 3.660000e-01    1.600000e+00
 SN4ar TC5eh  1 3.660000e-01    1.600000e+00
 SN4ah TC4er  1 3.660000e-01    1.600000e+00
 SN4ar TC4eh  1 3.660000e-01    1.600000e+00
 SN4ah TC3er  1 3.780000e-01    1.450000e+00
 SN4ar TC3eh  1 3.780000e-01    1.450000e+00
 SN4ah TC2er  1 3.940000e-01    1.290000e+00
 SN4ar TC2eh  1 3.940000e-01    1.290000e+00
 SN4ah TC1er  1 4.040000e-01    1.130000e+00
 SN4ar TC1eh  1 4.040000e-01    1.130000e+00
 SN4ah TX4er  1 3.650000e-01    2.110000e+00
 SN4ar TX4eh  1 3.650000e-01    2.110000e+00
 SN4ah TX3er  1 3.650000e-01    1.910000e+00
 SN4ar TX3eh  1 3.650000e-01    1.910000e+00
 SN4ah TX2er  1 3.660000e-01    1.600000e+00
 SN4ar TX2eh  1 3.660000e-01    1.600000e+00
 SN4ah TX1er  1 3.780000e-01    1.450000e+00
 SN4ar TX1eh  1 3.780000e-01    1.450000e+00
 SN3ah TC6vr  1 3.650000e-01    2.110000e+00
 SN3ar TC6vh  1 3.650000e-01    2.110000e+00
 SN3ah TC5vr  1 3.650000e-01    1.910000e+00
 SN3ar TC5vh  1 3.650000e-01    1.910000e+00
 SN3ah TC4vr  1 3.650000e-01    1.910000e+00
 SN3ar TC4vh  1 3.650000e-01    1.910000e+00
 SN3ah TC3vr  1 3.650000e-01    1.750000e+00
 SN3ar TC3vh  1 3.650000e-01    1.750000e+00
 SN3ah TC2vr  1 3.650000e-01    1.750000e+00
 SN3ar TC2vh  1 3.650000e-01    1.750000e+00
 SN3ah TC1vr  1 3.660000e-01    1.600000e+00
 SN3ar TC1vh  1 3.660000e-01    1.600000e+00
 SN3ah TX4vr  1 3.650000e-01    2.340000e+00
 SN3ar TX4vh  1 3.650000e-01    2.340000e+00
 SN3ah TX3vr  1 3.650000e-01    2.110000e+00
 SN3ar TX3vh  1 3.650000e-01    2.110000e+00
 SN3ah TX2vr  1 3.650000e-01    1.910000e+00
 SN3ar TX2vh  1 3.650000e-01    1.910000e+00
 SN3ah TX1vr  1 3.650000e-01    1.910000e+00
 SN3ar TX1vh  1 3.650000e-01    1.910000e+00
 SN3ah TC6er  1 3.650000e-01    1.750000e+00
 SN3ar TC6eh  1 3.650000e-01    1.750000e+00
 SN3ah TC5er  1 3.660000e-01    1.600000e+00
 SN3ar TC5eh  1 3.660000e-01    1.600000e+00
 SN3ah TC4er  1 3.660000e-01    1.600000e+00
 SN3ar TC4eh  1 3.660000e-01    1.600000e+00
 SN3ah TC3er  1 3.780000e-01    1.450000e+00
 SN3ar TC3eh  1 3.780000e-01    1.450000e+00
 SN3ah TC2er  1 3.780000e-01    1.450000e+00
 SN3ar TC2eh  1 3.780000e-01    1.450000e+00
 SN3ah TC1er  1 3.940000e-01    1.290000e+00
 SN3ar TC1eh  1 3.940000e-01    1.290000e+00
 SN3ah TX4er  1 3.650000e-01    1.910000e+00
 SN3ar TX4eh  1 3.650000e-01    1.910000e+00
 SN3ah TX3er  1 3.650000e-01    1.750000e+00
 SN3ar TX3eh  1 3.650000e-01    1.750000e+00
 SN3ah TX2er  1 3.660000e-01    1.600000e+00
 SN3ar TX2eh  1 3.660000e-01    1.600000e+00
 SN3ah TX1er  1 3.660000e-01    1.600000e+00
 SN3ar TX1eh  1 3.660000e-01    1.600000e+00
 SN2ah TC6vr  1 3.650000e-01    2.110000e+00
 SN2ar TC6vh  1 3.650000e-01    2.110000e+00
 SN2ah TC5vr  1 3.650000e-01    1.910000e+00
 SN2ar TC5vh  1 3.650000e-01    1.910000e+00
 SN2ah TC4vr  1 3.650000e-01    1.910000e+00
 SN2ar TC4vh  1 3.650000e-01    1.910000e+00
 SN2ah TC3vr  1 3.650000e-01    1.910000e+00
 SN2ar TC3vh  1 3.650000e-01    1.910000e+00
 SN2ah TC2vr  1 3.650000e-01    1.750000e+00
 SN2ar TC2vh  1 3.650000e-01    1.750000e+00
 SN2ah TC1vr  1 3.660000e-01    1.600000e+00
 SN2ar TC1vh  1 3.660000e-01    1.600000e+00
 SN2ah TX4vr  1 3.650000e-01    2.340000e+00
 SN2ar TX4vh  1 3.650000e-01    2.340000e+00
 SN2ah TX3vr  1 3.650000e-01    2.110000e+00
 SN2ar TX3vh  1 3.650000e-01    2.110000e+00
 SN2ah TX2vr  1 3.650000e-01    1.910000e+00
 SN2ar TX2vh  1 3.650000e-01    1.910000e+00
 SN2ah TX1vr  1 3.650000e-01    1.910000e+00
 SN2ar TX1vh  1 3.650000e-01    1.910000e+00
 SN2ah TC6er  1 3.650000e-01    1.750000e+00
 SN2ar TC6eh  1 3.650000e-01    1.750000e+00
 SN2ah TC5er  1 3.660000e-01    1.600000e+00
 SN2ar TC5eh  1 3.660000e-01    1.600000e+00
 SN2ah TC4er  1 3.660000e-01    1.600000e+00
 SN2ar TC4eh  1 3.660000e-01    1.600000e+00
 SN2ah TC3er  1 3.660000e-01    1.600000e+00
 SN2ar TC3eh  1 3.660000e-01    1.600000e+00
 SN2ah TC2er  1 3.780000e-01    1.450000e+00
 SN2ar TC2eh  1 3.780000e-01    1.450000e+00
 SN2ah TC1er  1 3.940000e-01    1.290000e+00
 SN2ar TC1eh  1 3.940000e-01    1.290000e+00
 SN2ah TX4er  1 3.650000e-01    1.910000e+00
 SN2ar TX4eh  1 3.650000e-01    1.910000e+00
 SN2ah TX3er  1 3.650000e-01    1.750000e+00
 SN2ar TX3eh  1 3.650000e-01    1.750000e+00
 SN2ah TX2er  1 3.660000e-01    1.600000e+00
 SN2ar TX2eh  1 3.660000e-01    1.600000e+00
 SN2ah TX1er  1 3.660000e-01    1.600000e+00
 SN2ar TX1eh  1 3.660000e-01    1.600000e+00
 SN1ah TC6vr  1 3.650000e-01    2.340000e+00
 SN1ar TC6vh  1 3.650000e-01    2.340000e+00
 SN1ah TC5vr  1 3.650000e-01    2.110000e+00
 SN1ar TC5vh  1 3.650000e-01    2.110000e+00
 SN1ah TC4vr  1 3.650000e-01    2.110000e+00
 SN1ar TC4vh  1 3.650000e-01    2.110000e+00
 SN1ah TC3vr  1 3.650000e-01    1.910000e+00
 SN1ar TC3vh  1 3.650000e-01    1.910000e+00
 SN1ah TC2vr  1 3.650000e-01    1.750000e+00
 SN1ar TC2vh  1 3.650000e-01    1.750000e+00
 SN1ah TC1vr  1 3.660000e-01    1.600000e+00
 SN1ar TC1vh  1 3.660000e-01    1.600000e+00
 SN1ah TX4vr  1 3.650000e-01    2.110000e+00
 SN1ar TX4vh  1 3.650000e-01    2.110000e+00
 SN1ah TX3vr  1 3.650000e-01    2.110000e+00
 SN1ar TX3vh  1 3.650000e-01    2.110000e+00
 SN1ah TX2vr  1 3.650000e-01    1.910000e+00
 SN1ar TX2vh  1 3.650000e-01    1.910000e+00
 SN1ah TX1vr  1 3.650000e-01    1.910000e+00
 SN1ar TX1vh  1 3.650000e-01    1.910000e+00
 SN1ah TC6er  1 3.650000e-01    1.910000e+00
 SN1ar TC6eh  1 3.650000e-01    1.910000e+00
 SN1ah TC5er  1 3.650000e-01    1.750000e+00
 SN1ar TC5eh  1 3.650000e-01    1.750000e+00
 SN1ah TC4er  1 3.650000e-01    1.750000e+00
 SN1ar TC4eh  1 3.650000e-01    1.750000e+00
 SN1ah TC3er  1 3.660000e-01    1.600000e+00
 SN1ar TC3eh  1 3.660000e-01    1.600000e+00
 SN1ah TC2er  1 3.780000e-01    1.450000e+00
 SN1ar TC2eh  1 3.780000e-01    1.450000e+00
 SN1ah TC1er  1 3.940000e-01    1.290000e+00
 SN1ar TC1eh  1 3.940000e-01    1.290000e+00
 SN1ah TX4er  1 3.650000e-01    1.750000e+00
 SN1ar TX4eh  1 3.650000e-01    1.750000e+00
 SN1ah TX3er  1 3.650000e-01    1.750000e+00
 SN1ar TX3eh  1 3.650000e-01    1.750000e+00
 SN1ah TX2er  1 3.660000e-01    1.600000e+00
 SN1ar TX2eh  1 3.660000e-01    1.600000e+00
 SN1ah TX1er  1 3.660000e-01    1.600000e+00
 SN1ar TX1eh  1 3.660000e-01    1.600000e+00
 SP6dq  TP5d  1 3.650000e-01    3.930000e+00
 SP6dq  TP4d  1 3.650000e-01    3.640000e+00
 SP6dq  TP3d  1 3.650000e-01    3.370000e+00
 SP6dq  TP2d  1 3.650000e-01    3.370000e+00
 SP6dq  TP1d  1 3.650000e-01    3.100000e+00
 SP6dq  TN6d  1 3.650000e-01    2.830000e+00
 SP6dq  TN5d  1 3.650000e-01    2.340000e+00
 SP6dq  TN4d  1 3.650000e-01    2.110000e+00
 SP6dq  TN3d  1 3.650000e-01    2.110000e+00
 SP6dq  TN2d  1 3.650000e-01    1.910000e+00
 SP6dq  TN1d  1 3.650000e-01    1.750000e+00
 SP6dq  TP6a  1 3.650000e-01    4.860000e+00
 SP6dq  TP5a  1 3.650000e-01    4.510000e+00
 SP6dq  TP4a  1 3.650000e-01    4.220000e+00
 SP6dq  TP3a  1 3.650000e-01    3.930000e+00
 SP6dq  TP2a  1 3.650000e-01    3.930000e+00
 SP6dq  TP1a  1 3.650000e-01    3.640000e+00
 SP6dq  TN6a  1 3.650000e-01    3.370000e+00
 SP6dq  TN5a  1 3.650000e-01    2.830000e+00
 SP6dq  TN4a  1 3.650000e-01    2.570000e+00
 SP6dq  TN3a  1 3.650000e-01    2.110000e+00
 SP6dq  TN2a  1 3.650000e-01    1.910000e+00
 SP6dq  TN1a  1 3.650000e-01    1.750000e+00
 SP6dq  TC6e  1 3.650000e-01    1.910000e+00
 SP6dq  TC5e  1 3.650000e-01    1.750000e+00
 SP6dq  TC4e  1 3.660000e-01    1.600000e+00
 SP6dq  TC3e  1 3.780000e-01    1.450000e+00
 SP6dq  TC2e  1 3.780000e-01    1.450000e+00
 SP6dq  TC1e  1 4.040000e-01    1.130000e+00
 SP6dq  TX4e  1 3.650000e-01    2.110000e+00
 SP6dq  TX3e  1 3.650000e-01    2.110000e+00
 SP6dq  TX2e  1 3.650000e-01    1.910000e+00
 SP6dq  TX1e  1 3.650000e-01    1.750000e+00
 SP6dq  TC6v  1 3.660000e-01    1.600000e+00
 SP6dq  TC5v  1 3.780000e-01    1.450000e+00
 SP6dq  TC4v  1 3.940000e-01    1.290000e+00
 SP6dq  TC3v  1 4.040000e-01    1.130000e+00
 SP6dq  TC2v  1 4.040000e-01    1.130000e+00
 SP6dq  TC1v  1 4.230000e-01    9.810000e-01
 SP6dq  TX4v  1 3.650000e-01    1.750000e+00
 SP6dq  TX3v  1 3.650000e-01    1.750000e+00
 SP6dq  TX2v  1 3.660000e-01    1.600000e+00
 SP6dq  TX1v  1 3.780000e-01    1.450000e+00
 SP5dq  TP4d  1 3.650000e-01    3.370000e+00
 SP5dq  TP3d  1 3.650000e-01    3.100000e+00
 SP5dq  TP2d  1 3.650000e-01    3.100000e+00
 SP5dq  TP1d  1 3.650000e-01    2.830000e+00
 SP5dq  TN6d  1 3.650000e-01    2.570000e+00
 SP5dq  TN5d  1 3.650000e-01    2.340000e+00
 SP5dq  TN4d  1 3.650000e-01    2.340000e+00
 SP5dq  TN3d  1 3.650000e-01    2.110000e+00
 SP5dq  TN2d  1 3.650000e-01    1.910000e+00
 SP5dq  TN1d  1 3.650000e-01    1.750000e+00
 SP5dq  TP5a  1 3.650000e-01    4.220000e+00
 SP5dq  TP4a  1 3.650000e-01    3.930000e+00
 SP5dq  TP3a  1 3.650000e-01    3.640000e+00
 SP5dq  TP2a  1 3.650000e-01    3.640000e+00
 SP5dq  TP1a  1 3.650000e-01    3.370000e+00
 SP5dq  TN6a  1 3.650000e-01    3.100000e+00
 SP5dq  TN5a  1 3.650000e-01    2.830000e+00
 SP5dq  TN4a  1 3.650000e-01    2.830000e+00
 SP5dq  TN3a  1 3.650000e-01    2.110000e+00
 SP5dq  TN2a  1 3.650000e-01    1.910000e+00
 SP5dq  TN1a  1 3.650000e-01    1.750000e+00
 SP5dq  TC6e  1 3.650000e-01    1.910000e+00
 SP5dq  TC5e  1 3.650000e-01    1.910000e+00
 SP5dq  TC4e  1 3.650000e-01    1.750000e+00
 SP5dq  TC3e  1 3.660000e-01    1.600000e+00
 SP5dq  TC2e  1 3.660000e-01    1.600000e+00
 SP5dq  TC1e  1 3.780000e-01    1.450000e+00
 SP5dq  TX4e  1 3.650000e-01    2.340000e+00
 SP5dq  TX3e  1 3.650000e-01    2.110000e+00
 SP5dq  TX2e  1 3.650000e-01    2.110000e+00
 SP5dq  TX1e  1 3.650000e-01    1.750000e+00
 SP5dq  TC6v  1 3.660000e-01    1.600000e+00
 SP5dq  TC5v  1 3.660000e-01    1.600000e+00
 SP5dq  TC4v  1 3.780000e-01    1.450000e+00
 SP5dq  TC3v  1 3.940000e-01    1.290000e+00
 SP5dq  TC2v  1 3.940000e-01    1.290000e+00
 SP5dq  TC1v  1 4.040000e-01    1.130000e+00
 SP5dq  TX4v  1 3.650000e-01    1.910000e+00
 SP5dq  TX3v  1 3.650000e-01    1.750000e+00
 SP5dq  TX2v  1 3.650000e-01    1.750000e+00
 SP5dq  TX1v  1 3.780000e-01    1.450000e+00
 SP4dq  TP3d  1 3.650000e-01    3.100000e+00
 SP4dq  TP2d  1 3.650000e-01    3.100000e+00
 SP4dq  TP1d  1 3.650000e-01    2.830000e+00
 SP4dq  TN6d  1 3.650000e-01    2.570000e+00
 SP4dq  TN5d  1 3.650000e-01    2.340000e+00
 SP4dq  TN4d  1 3.650000e-01    2.340000e+00
 SP4dq  TN3d  1 3.650000e-01    2.110000e+00
 SP4dq  TN2d  1 3.650000e-01    2.110000e+00
 SP4dq  TN1d  1 3.650000e-01    1.910000e+00
 SP4dq  TP4a  1 3.650000e-01    3.930000e+00
 SP4dq  TP3a  1 3.650000e-01    3.640000e+00
 SP4dq  TP2a  1 3.650000e-01    3.640000e+00
 SP4dq  TP1a  1 3.650000e-01    3.370000e+00
 SP4dq  TN6a  1 3.650000e-01    3.100000e+00
 SP4dq  TN5a  1 3.650000e-01    2.830000e+00
 SP4dq  TN4a  1 3.650000e-01    2.830000e+00
 SP4dq  TN3a  1 3.650000e-01    2.570000e+00
 SP4dq  TN2a  1 3.650000e-01    2.110000e+00
 SP4dq  TN1a  1 3.650000e-01    1.910000e+00
 SP4dq  TC6e  1 3.650000e-01    2.110000e+00
 SP4dq  TC5e  1 3.650000e-01    1.910000e+00
 SP4dq  TC4e  1 3.650000e-01    1.750000e+00
 SP4dq  TC3e  1 3.660000e-01    1.600000e+00
 SP4dq  TC2e  1 3.660000e-01    1.600000e+00
 SP4dq  TC1e  1 3.780000e-01    1.450000e+00
 SP4dq  TX4e  1 3.650000e-01    2.340000e+00
 SP4dq  TX3e  1 3.650000e-01    2.110000e+00
 SP4dq  TX2e  1 3.650000e-01    2.110000e+00
 SP4dq  TX1e  1 3.650000e-01    1.910000e+00
 SP4dq  TC6v  1 3.650000e-01    1.750000e+00
 SP4dq  TC5v  1 3.660000e-01    1.600000e+00
 SP4dq  TC4v  1 3.780000e-01    1.450000e+00
 SP4dq  TC3v  1 3.940000e-01    1.290000e+00
 SP4dq  TC2v  1 3.940000e-01    1.290000e+00
 SP4dq  TC1v  1 4.040000e-01    1.130000e+00
 SP4dq  TX4v  1 3.650000e-01    1.910000e+00
 SP4dq  TX3v  1 3.650000e-01    1.750000e+00
 SP4dq  TX2v  1 3.650000e-01    1.750000e+00
 SP4dq  TX1v  1 3.660000e-01    1.600000e+00
 SP3dq  TP2d  1 3.650000e-01    3.100000e+00
 SP3dq  TP1d  1 3.650000e-01    2.830000e+00
 SP3dq  TN6d  1 3.650000e-01    2.570000e+00
 SP3dq  TN5d  1 3.650000e-01    2.340000e+00
 SP3dq  TN4d  1 3.650000e-01    2.340000e+00
 SP3dq  TN3d  1 3.650000e-01    2.110000e+00
 SP3dq  TN2d  1 3.650000e-01    2.110000e+00
 SP3dq  TN1d  1 3.650000e-01    2.110000e+00
 SP3dq  TP3a  1 3.650000e-01    3.640000e+00
 SP3dq  TP2a  1 3.650000e-01    3.640000e+00
 SP3dq  TP1a  1 3.650000e-01    3.370000e+00
 SP3dq  TN6a  1 3.650000e-01    3.100000e+00
 SP3dq  TN5a  1 3.650000e-01    2.830000e+00
 SP3dq  TN4a  1 3.650000e-01    2.830000e+00
 SP3dq  TN3a  1 3.650000e-01    2.570000e+00
 SP3dq  TN2a  1 3.650000e-01    2.570000e+00
 SP3dq  TN1a  1 3.650000e-01    2.110000e+00
 SP3dq  TC6e  1 3.650000e-01    2.340000e+00
 SP3dq  TC5e  1 3.650000e-01    2.110000e+00
 SP3dq  TC4e  1 3.650000e-01    1.910000e+00
 SP3dq  TC3e  1 3.660000e-01    1.600000e+00
 SP3dq  TC2e  1 3.660000e-01    1.600000e+00
 SP3dq  TC1e  1 3.780000e-01    1.450000e+00
 SP3dq  TX4e  1 3.650000e-01    2.340000e+00
 SP3dq  TX3e  1 3.650000e-01    2.340000e+00
 SP3dq  TX2e  1 3.650000e-01    2.110000e+00
 SP3dq  TX1e  1 3.650000e-01    1.910000e+00
 SP3dq  TC6v  1 3.650000e-01    1.910000e+00
 SP3dq  TC5v  1 3.650000e-01    1.750000e+00
 SP3dq  TC4v  1 3.660000e-01    1.600000e+00
 SP3dq  TC3v  1 3.940000e-01    1.290000e+00
 SP3dq  TC2v  1 3.940000e-01    1.290000e+00
 SP3dq  TC1v  1 4.040000e-01    1.130000e+00
 SP3dq  TX4v  1 3.650000e-01    1.910000e+00
 SP3dq  TX3v  1 3.650000e-01    1.910000e+00
 SP3dq  TX2v  1 3.650000e-01    1.750000e+00
 SP3dq  TX1v  1 3.660000e-01    1.600000e+00
 SP2dq  TP1d  1 3.650000e-01    2.830000e+00
 SP2dq  TN6d  1 3.650000e-01    2.830000e+00
 SP2dq  TN5d  1 3.650000e-01    2.570000e+00
 SP2dq  TN4d  1 3.650000e-01    2.340000e+00
 SP2dq  TN3d  1 3.650000e-01    2.110000e+00
 SP2dq  TN2d  1 3.650000e-01    2.110000e+00
 SP2dq  TN1d  1 3.650000e-01    2.110000e+00
 SP2dq  TP2a  1 3.650000e-01    3.640000e+00
 SP2dq  TP1a  1 3.650000e-01    3.370000e+00
 SP2dq  TN6a  1 3.650000e-01    3.370000e+00
 SP2dq  TN5a  1 3.650000e-01    3.100000e+00
 SP2dq  TN4a  1 3.650000e-01    2.830000e+00
 SP2dq  TN3a  1 3.650000e-01    2.570000e+00
 SP2dq  TN2a  1 3.650000e-01    2.570000e+00
 SP2dq  TN1a  1 3.650000e-01    2.570000e+00
 SP2dq  TC6e  1 3.650000e-01    2.340000e+00
 SP2dq  TC5e  1 3.650000e-01    2.110000e+00
 SP2dq  TC4e  1 3.650000e-01    1.910000e+00
 SP2dq  TC3e  1 3.650000e-01    1.750000e+00
 SP2dq  TC2e  1 3.650000e-01    1.750000e+00
 SP2dq  TC1e  1 3.660000e-01    1.600000e+00
 SP2dq  TX4e  1 3.650000e-01    2.340000e+00
 SP2dq  TX3e  1 3.650000e-01    2.340000e+00
 SP2dq  TX2e  1 3.650000e-01    2.110000e+00
 SP2dq  TX1e  1 3.650000e-01    1.910000e+00
 SP2dq  TC6v  1 3.650000e-01    1.910000e+00
 SP2dq  TC5v  1 3.650000e-01    1.750000e+00
 SP2dq  TC4v  1 3.660000e-01    1.600000e+00
 SP2dq  TC3v  1 3.780000e-01    1.450000e+00
 SP2dq  TC2v  1 3.780000e-01    1.450000e+00
 SP2dq  TC1v  1 3.940000e-01    1.290000e+00
 SP2dq  TX4v  1 3.650000e-01    1.910000e+00
 SP2dq  TX3v  1 3.650000e-01    1.910000e+00
 SP2dq  TX2v  1 3.650000e-01    1.750000e+00
 SP2dq  TX1v  1 3.660000e-01    1.600000e+00
 SP1dq  TN6d  1 3.650000e-01    2.830000e+00
 SP1dq  TN5d  1 3.650000e-01    2.570000e+00
 SP1dq  TN4d  1 3.650000e-01    2.570000e+00
 SP1dq  TN3d  1 3.650000e-01    2.110000e+00
 SP1dq  TN2d  1 3.650000e-01    2.110000e+00
 SP1dq  TN1d  1 3.650000e-01    2.110000e+00
 SP1dq  TP1a  1 3.650000e-01    3.370000e+00
 SP1dq  TN6a  1 3.650000e-01    3.370000e+00
 SP1dq  TN5a  1 3.650000e-01    3.100000e+00
 SP1dq  TN4a  1 3.650000e-01    3.100000e+00
 SP1dq  TN3a  1 3.650000e-01    2.570000e+00
 SP1dq  TN2a  1 3.650000e-01    2.570000e+00
 SP1dq  TN1a  1 3.650000e-01    2.570000e+00
 SP1dq  TC6e  1 3.650000e-01    2.340000e+00
 SP1dq  TC5e  1 3.650000e-01    2.110000e+00
 SP1dq  TC4e  1 3.650000e-01    1.910000e+00
 SP1dq  TC3e  1 3.650000e-01    1.750000e+00
 SP1dq  TC2e  1 3.650000e-01    1.750000e+00
 SP1dq  TC1e  1 3.660000e-01    1.600000e+00
 SP1dq  TX4e  1 3.650000e-01    2.340000e+00
 SP1dq  TX3e  1 3.650000e-01    2.340000e+00
 SP1dq  TX2e  1 3.650000e-01    2.110000e+00
 SP1dq  TX1e  1 3.650000e-01    1.910000e+00
 SP1dq  TC6v  1 3.650000e-01    1.910000e+00
 SP1dq  TC5v  1 3.650000e-01    1.750000e+00
 SP1dq  TC4v  1 3.660000e-01    1.600000e+00
 SP1dq  TC3v  1 3.780000e-01    1.450000e+00
 SP1dq  TC2v  1 3.780000e-01    1.450000e+00
 SP1dq  TC1v  1 3.940000e-01    1.290000e+00
 SP1dq  TX4v  1 3.650000e-01    1.910000e+00
 SP1dq  TX3v  1 3.650000e-01    1.910000e+00
 SP1dq  TX2v  1 3.650000e-01    1.750000e+00
 SP1dq  TX1v  1 3.660000e-01    1.600000e+00
 SN6dq  TN5d  1 3.650000e-01    2.830000e+00
 SN6dq  TN4d  1 3.650000e-01    2.830000e+00
 SN6dq  TN3d  1 3.650000e-01    2.340000e+00
 SN6dq  TN2d  1 3.650000e-01    2.110000e+00
 SN6dq  TN1d  1 3.650000e-01    2.110000e+00
 SN6dq  TN6a  1 3.650000e-01    3.370000e+00
 SN6dq  TN5a  1 3.650000e-01    3.370000e+00
 SN6dq  TN4a  1 3.650000e-01    3.370000e+00
 SN6dq  TN3a  1 3.650000e-01    2.830000e+00
 SN6dq  TN2a  1 3.650000e-01    2.570000e+00
 SN6dq  TN1a  1 3.650000e-01    2.570000e+00
 SN6dq  TC6e  1 3.650000e-01    2.570000e+00
 SN6dq  TC5e  1 3.650000e-01    2.340000e+00
 SN6dq  TC4e  1 3.650000e-01    2.110000e+00
 SN6dq  TC3e  1 3.650000e-01    1.910000e+00
 SN6dq  TC2e  1 3.650000e-01    1.910000e+00
 SN6dq  TC1e  1 3.650000e-01    1.750000e+00
 SN6dq  TX4e  1 3.650000e-01    2.570000e+00
 SN6dq  TX3e  1 3.650000e-01    2.340000e+00
 SN6dq  TX2e  1 3.650000e-01    2.110000e+00
 SN6dq  TX1e  1 3.650000e-01    1.910000e+00
 SN6dq  TC6v  1 3.650000e-01    2.110000e+00
 SN6dq  TC5v  1 3.650000e-01    1.910000e+00
 SN6dq  TC4v  1 3.650000e-01    1.750000e+00
 SN6dq  TC3v  1 3.660000e-01    1.600000e+00
 SN6dq  TC2v  1 3.660000e-01    1.600000e+00
 SN6dq  TC1v  1 3.780000e-01    1.450000e+00
 SN6dq  TX4v  1 3.650000e-01    2.110000e+00
 SN6dq  TX3v  1 3.650000e-01    1.910000e+00
 SN6dq  TX2v  1 3.650000e-01    1.750000e+00
 SN6dq  TX1v  1 3.660000e-01    1.600000e+00
 SN5dq  TN4d  1 3.650000e-01    2.570000e+00
 SN5dq  TN3d  1 3.650000e-01    2.340000e+00
 SN5dq  TN2d  1 3.650000e-01    2.340000e+00
 SN5dq  TN1d  1 3.650000e-01    2.110000e+00
 SN5dq  TN5a  1 3.650000e-01    3.100000e+00
 SN5dq  TN4a  1 3.650000e-01    3.100000e+00
 SN5dq  TN3a  1 3.650000e-01    2.830000e+00
 SN5dq  TN2a  1 3.650000e-01    2.830000e+00
 SN5dq  TN1a  1 3.650000e-01    2.570000e+00
 SN5dq  TC6e  1 3.650000e-01    2.570000e+00
 SN5dq  TC5e  1 3.650000e-01    2.340000e+00
 SN5dq  TC4e  1 3.650000e-01    2.110000e+00
 SN5dq  TC3e  1 3.650000e-01    2.110000e+00
 SN5dq  TC2e  1 3.650000e-01    1.910000e+00
 SN5dq  TC1e  1 3.650000e-01    1.750000e+00
 SN5dq  TX4e  1 3.650000e-01    2.830000e+00
 SN5dq  TX3e  1 3.650000e-01    2.570000e+00
 SN5dq  TX2e  1 3.650000e-01    2.340000e+00
 SN5dq  TX1e  1 3.650000e-01    2.110000e+00
 SN5dq  TC6v  1 3.650000e-01    2.110000e+00
 SN5dq  TC5v  1 3.650000e-01    1.910000e+00
 SN5dq  TC4v  1 3.650000e-01    1.750000e+00
 SN5dq  TC3v  1 3.650000e-01    1.750000e+00
 SN5dq  TC2v  1 3.660000e-01    1.600000e+00
 SN5dq  TC1v  1 3.780000e-01    1.450000e+00
 SN5dq  TX4v  1 3.650000e-01    2.340000e+00
 SN5dq  TX3v  1 3.650000e-01    2.110000e+00
 SN5dq  TX2v  1 3.650000e-01    1.910000e+00
 SN5dq  TX1v  1 3.650000e-01    1.750000e+00
 SN4dq  TN3d  1 3.650000e-01    2.340000e+00
 SN4dq  TN2d  1 3.650000e-01    2.340000e+00
 SN4dq  TN1d  1 3.650000e-01    2.110000e+00
 SN4dq  TN4a  1 3.650000e-01    3.100000e+00
 SN4dq  TN3a  1 3.650000e-01    2.830000e+00
 SN4dq  TN2a  1 3.650000e-01    2.830000e+00
 SN4dq  TN1a  1 3.650000e-01    2.570000e+00
 SN4dq  TC6e  1 3.650000e-01    2.570000e+00
 SN4dq  TC5e  1 3.650000e-01    2.340000e+00
 SN4dq  TC4e  1 3.650000e-01    2.340000e+00
 SN4dq  TC3e  1 3.650000e-01    2.110000e+00
 SN4dq  TC2e  1 3.650000e-01    1.910000e+00
 SN4dq  TC1e  1 3.650000e-01    1.750000e+00
 SN4dq  TX4e  1 3.650000e-01    3.100000e+00
 SN4dq  TX3e  1 3.650000e-01    2.830000e+00
 SN4dq  TX2e  1 3.650000e-01    2.340000e+00
 SN4dq  TX1e  1 3.650000e-01    2.110000e+00
 SN4dq  TC6v  1 3.650000e-01    2.110000e+00
 SN4dq  TC5v  1 3.650000e-01    1.910000e+00
 SN4dq  TC4v  1 3.650000e-01    1.910000e+00
 SN4dq  TC3v  1 3.650000e-01    1.750000e+00
 SN4dq  TC2v  1 3.660000e-01    1.600000e+00
 SN4dq  TC1v  1 3.780000e-01    1.450000e+00
 SN4dq  TX4v  1 3.650000e-01    2.570000e+00
 SN4dq  TX3v  1 3.650000e-01    2.340000e+00
 SN4dq  TX2v  1 3.650000e-01    1.910000e+00
 SN4dq  TX1v  1 3.650000e-01    1.750000e+00
 SN3dq  TN2d  1 3.650000e-01    2.340000e+00
 SN3dq  TN1d  1 3.650000e-01    2.110000e+00
 SN3dq  TN3a  1 3.650000e-01    2.830000e+00
 SN3dq  TN2a  1 3.650000e-01    2.830000e+00
 SN3dq  TN1a  1 3.650000e-01    2.570000e+00
 SN3dq  TC6e  1 3.650000e-01    2.570000e+00
 SN3dq  TC5e  1 3.650000e-01    2.340000e+00
 SN3dq  TC4e  1 3.650000e-01    2.340000e+00
 SN3dq  TC3e  1 3.650000e-01    2.110000e+00
 SN3dq  TC2e  1 3.650000e-01    2.110000e+00
 SN3dq  TC1e  1 3.650000e-01    1.910000e+00
 SN3dq  TX4e  1 3.650000e-01    2.830000e+00
 SN3dq  TX3e  1 3.650000e-01    2.570000e+00
 SN3dq  TX2e  1 3.650000e-01    2.340000e+00
 SN3dq  TX1e  1 3.650000e-01    2.340000e+00
 SN3dq  TC6v  1 3.650000e-01    2.110000e+00
 SN3dq  TC5v  1 3.650000e-01    1.910000e+00
 SN3dq  TC4v  1 3.650000e-01    1.910000e+00
 SN3dq  TC3v  1 3.650000e-01    1.750000e+00
 SN3dq  TC2v  1 3.650000e-01    1.750000e+00
 SN3dq  TC1v  1 3.660000e-01    1.600000e+00
 SN3dq  TX4v  1 3.650000e-01    2.340000e+00
 SN3dq  TX3v  1 3.650000e-01    2.110000e+00
 SN3dq  TX2v  1 3.650000e-01    1.910000e+00
 SN3dq  TX1v  1 3.650000e-01    1.910000e+00
 SN2dq  TN1d  1 3.650000e-01    2.110000e+00
 SN2dq  TN2a  1 3.650000e-01    2.830000e+00
 SN2dq  TN1a  1 3.650000e-01    2.570000e+00
 SN2dq  TC6e  1 3.650000e-01    2.570000e+00
 SN2dq  TC5e  1 3.650000e-01    2.340000e+00
 SN2dq  TC4e  1 3.650000e-01    2.340000e+00
 SN2dq  TC3e  1 3.650000e-01    2.340000e+00
 SN2dq  TC2e  1 3.650000e-01    2.110000e+00
 SN2dq  TC1e  1 3.650000e-01    1.910000e+00
 SN2dq  TX4e  1 3.650000e-01    2.830000e+00
 SN2dq  TX3e  1 3.650000e-01    2.570000e+00
 SN2dq  TX2e  1 3.650000e-01    2.340000e+00
 SN2dq  TX1e  1 3.650000e-01    2.340000e+00
 SN2dq  TC6v  1 3.650000e-01    2.110000e+00
 SN2dq  TC5v  1 3.650000e-01    1.910000e+00
 SN2dq  TC4v  1 3.650000e-01    1.910000e+00
 SN2dq  TC3v  1 3.650000e-01    1.910000e+00
 SN2dq  TC2v  1 3.650000e-01    1.750000e+00
 SN2dq  TC1v  1 3.660000e-01    1.600000e+00
 SN2dq  TX4v  1 3.650000e-01    2.340000e+00
 SN2dq  TX3v  1 3.650000e-01    2.110000e+00
 SN2dq  TX2v  1 3.650000e-01    1.910000e+00
 SN2dq  TX1v  1 3.650000e-01    1.910000e+00
 SN1dq  TN1a  1 3.650000e-01    2.830000e+00
 SN1dq  TC6e  1 3.650000e-01    2.830000e+00
 SN1dq  TC5e  1 3.650000e-01    2.570000e+00
 SN1dq  TC4e  1 3.650000e-01    2.570000e+00
 SN1dq  TC3e  1 3.650000e-01    2.340000e+00
 SN1dq  TC2e  1 3.650000e-01    2.110000e+00
 SN1dq  TC1e  1 3.650000e-01    1.910000e+00
 SN1dq  TX4e  1 3.650000e-01    2.570000e+00
 SN1dq  TX3e  1 3.650000e-01    2.570000e+00
 SN1dq  TX2e  1 3.650000e-01    2.340000e+00
 SN1dq  TX1e  1 3.650000e-01    2.340000e+00
 SN1dq  TC6v  1 3.650000e-01    2.340000e+00
 SN1dq  TC5v  1 3.650000e-01    2.110000e+00
 SN1dq  TC4v  1 3.650000e-01    2.110000e+00
 SN1dq  TC3v  1 3.650000e-01    1.910000e+00
 SN1dq  TC2v  1 3.650000e-01    1.750000e+00
 SN1dq  TC1v  1 3.660000e-01    1.600000e+00
 SN1dq  TX4v  1 3.650000e-01    2.110000e+00
 SN1dq  TX3v  1 3.650000e-01    2.110000e+00
 SN1dq  TX2v  1 3.650000e-01    1.910000e+00
 SN1dq  TX1v  1 3.650000e-01    1.910000e+00
 SP6aq  TP5a  1 3.650000e-01    3.930000e+00
 SP6aq  TP4a  1 3.650000e-01    3.640000e+00
 SP6aq  TP3a  1 3.650000e-01    3.370000e+00
 SP6aq  TP2a  1 3.650000e-01    3.370000e+00
 SP6aq  TP1a  1 3.650000e-01    3.100000e+00
 SP6aq  TN6a  1 3.650000e-01    2.830000e+00
 SP6aq  TN5a  1 3.650000e-01    2.340000e+00
 SP6aq  TN4a  1 3.650000e-01    2.110000e+00
 SP6aq  TN3a  1 3.650000e-01    2.110000e+00
 SP6aq  TN2a  1 3.650000e-01    1.910000e+00
 SP6aq  TN1a  1 3.650000e-01    1.750000e+00
 SP6aq  TC6v  1 3.650000e-01    1.910000e+00
 SP6aq  TC5v  1 3.650000e-01    1.750000e+00
 SP6aq  TC4v  1 3.660000e-01    1.600000e+00
 SP6aq  TC3v  1 3.780000e-01    1.450000e+00
 SP6aq  TC2v  1 3.780000e-01    1.450000e+00
 SP6aq  TC1v  1 4.040000e-01    1.130000e+00
 SP6aq  TX4v  1 3.650000e-01    2.110000e+00
 SP6aq  TX3v  1 3.650000e-01    2.110000e+00
 SP6aq  TX2v  1 3.650000e-01    1.910000e+00
 SP6aq  TX1v  1 3.650000e-01    1.750000e+00
 SP6aq  TC6e  1 3.660000e-01    1.600000e+00
 SP6aq  TC5e  1 3.780000e-01    1.450000e+00
 SP6aq  TC4e  1 3.940000e-01    1.290000e+00
 SP6aq  TC3e  1 4.040000e-01    1.130000e+00
 SP6aq  TC2e  1 4.040000e-01    1.130000e+00
 SP6aq  TC1e  1 4.230000e-01    9.810000e-01
 SP6aq  TX4e  1 3.650000e-01    1.750000e+00
 SP6aq  TX3e  1 3.650000e-01    1.750000e+00
 SP6aq  TX2e  1 3.660000e-01    1.600000e+00
 SP6aq  TX1e  1 3.780000e-01    1.450000e+00
 SP5aq  TP4a  1 3.650000e-01    3.370000e+00
 SP5aq  TP3a  1 3.650000e-01    3.100000e+00
 SP5aq  TP2a  1 3.650000e-01    3.100000e+00
 SP5aq  TP1a  1 3.650000e-01    2.830000e+00
 SP5aq  TN6a  1 3.650000e-01    2.570000e+00
 SP5aq  TN5a  1 3.650000e-01    2.340000e+00
 SP5aq  TN4a  1 3.650000e-01    2.340000e+00
 SP5aq  TN3a  1 3.650000e-01    2.110000e+00
 SP5aq  TN2a  1 3.650000e-01    1.910000e+00
 SP5aq  TN1a  1 3.650000e-01    1.750000e+00
 SP5aq  TC6v  1 3.650000e-01    1.910000e+00
 SP5aq  TC5v  1 3.650000e-01    1.910000e+00
 SP5aq  TC4v  1 3.650000e-01    1.750000e+00
 SP5aq  TC3v  1 3.660000e-01    1.600000e+00
 SP5aq  TC2v  1 3.660000e-01    1.600000e+00
 SP5aq  TC1v  1 3.780000e-01    1.450000e+00
 SP5aq  TX4v  1 3.650000e-01    2.340000e+00
 SP5aq  TX3v  1 3.650000e-01    2.110000e+00
 SP5aq  TX2v  1 3.650000e-01    2.110000e+00
 SP5aq  TX1v  1 3.650000e-01    1.750000e+00
 SP5aq  TC6e  1 3.660000e-01    1.600000e+00
 SP5aq  TC5e  1 3.660000e-01    1.600000e+00
 SP5aq  TC4e  1 3.780000e-01    1.450000e+00
 SP5aq  TC3e  1 3.940000e-01    1.290000e+00
 SP5aq  TC2e  1 3.940000e-01    1.290000e+00
 SP5aq  TC1e  1 4.040000e-01    1.130000e+00
 SP5aq  TX4e  1 3.650000e-01    1.910000e+00
 SP5aq  TX3e  1 3.650000e-01    1.750000e+00
 SP5aq  TX2e  1 3.650000e-01    1.750000e+00
 SP5aq  TX1e  1 3.780000e-01    1.450000e+00
 SP4aq  TP3a  1 3.650000e-01    3.100000e+00
 SP4aq  TP2a  1 3.650000e-01    3.100000e+00
 SP4aq  TP1a  1 3.650000e-01    2.830000e+00
 SP4aq  TN6a  1 3.650000e-01    2.570000e+00
 SP4aq  TN5a  1 3.650000e-01    2.340000e+00
 SP4aq  TN4a  1 3.650000e-01    2.340000e+00
 SP4aq  TN3a  1 3.650000e-01    2.110000e+00
 SP4aq  TN2a  1 3.650000e-01    2.110000e+00
 SP4aq  TN1a  1 3.650000e-01    1.910000e+00
 SP4aq  TC6v  1 3.650000e-01    2.110000e+00
 SP4aq  TC5v  1 3.650000e-01    1.910000e+00
 SP4aq  TC4v  1 3.650000e-01    1.750000e+00
 SP4aq  TC3v  1 3.660000e-01    1.600000e+00
 SP4aq  TC2v  1 3.660000e-01    1.600000e+00
 SP4aq  TC1v  1 3.780000e-01    1.450000e+00
 SP4aq  TX4v  1 3.650000e-01    2.340000e+00
 SP4aq  TX3v  1 3.650000e-01    2.110000e+00
 SP4aq  TX2v  1 3.650000e-01    2.110000e+00
 SP4aq  TX1v  1 3.650000e-01    1.910000e+00
 SP4aq  TC6e  1 3.650000e-01    1.750000e+00
 SP4aq  TC5e  1 3.660000e-01    1.600000e+00
 SP4aq  TC4e  1 3.780000e-01    1.450000e+00
 SP4aq  TC3e  1 3.940000e-01    1.290000e+00
 SP4aq  TC2e  1 3.940000e-01    1.290000e+00
 SP4aq  TC1e  1 4.040000e-01    1.130000e+00
 SP4aq  TX4e  1 3.650000e-01    1.910000e+00
 SP4aq  TX3e  1 3.650000e-01    1.750000e+00
 SP4aq  TX2e  1 3.650000e-01    1.750000e+00
 SP4aq  TX1e  1 3.660000e-01    1.600000e+00
 SP3aq  TP2a  1 3.650000e-01    3.100000e+00
 SP3aq  TP1a  1 3.650000e-01    2.830000e+00
 SP3aq  TN6a  1 3.650000e-01    2.570000e+00
 SP3aq  TN5a  1 3.650000e-01    2.340000e+00
 SP3aq  TN4a  1 3.650000e-01    2.340000e+00
 SP3aq  TN3a  1 3.650000e-01    2.110000e+00
 SP3aq  TN2a  1 3.650000e-01    2.110000e+00
 SP3aq  TN1a  1 3.650000e-01    2.110000e+00
 SP3aq  TC6v  1 3.650000e-01    2.340000e+00
 SP3aq  TC5v  1 3.650000e-01    2.110000e+00
 SP3aq  TC4v  1 3.650000e-01    1.910000e+00
 SP3aq  TC3v  1 3.660000e-01    1.600000e+00
 SP3aq  TC2v  1 3.660000e-01    1.600000e+00
 SP3aq  TC1v  1 3.780000e-01    1.450000e+00
 SP3aq  TX4v  1 3.650000e-01    2.340000e+00
 SP3aq  TX3v  1 3.650000e-01    2.340000e+00
 SP3aq  TX2v  1 3.650000e-01    2.110000e+00
 SP3aq  TX1v  1 3.650000e-01    1.910000e+00
 SP3aq  TC6e  1 3.650000e-01    1.910000e+00
 SP3aq  TC5e  1 3.650000e-01    1.750000e+00
 SP3aq  TC4e  1 3.660000e-01    1.600000e+00
 SP3aq  TC3e  1 3.940000e-01    1.290000e+00
 SP3aq  TC2e  1 3.940000e-01    1.290000e+00
 SP3aq  TC1e  1 4.040000e-01    1.130000e+00
 SP3aq  TX4e  1 3.650000e-01    1.910000e+00
 SP3aq  TX3e  1 3.650000e-01    1.910000e+00
 SP3aq  TX2e  1 3.650000e-01    1.750000e+00
 SP3aq  TX1e  1 3.660000e-01    1.600000e+00
 SP2aq  TP1a  1 3.650000e-01    2.830000e+00
 SP2aq  TN6a  1 3.650000e-01    2.830000e+00
 SP2aq  TN5a  1 3.650000e-01    2.570000e+00
 SP2aq  TN4a  1 3.650000e-01    2.340000e+00
 SP2aq  TN3a  1 3.650000e-01    2.110000e+00
 SP2aq  TN2a  1 3.650000e-01    2.110000e+00
 SP2aq  TN1a  1 3.650000e-01    2.110000e+00
 SP2aq  TC6v  1 3.650000e-01    2.340000e+00
 SP2aq  TC5v  1 3.650000e-01    2.110000e+00
 SP2aq  TC4v  1 3.650000e-01    1.910000e+00
 SP2aq  TC3v  1 3.650000e-01    1.750000e+00
 SP2aq  TC2v  1 3.650000e-01    1.750000e+00
 SP2aq  TC1v  1 3.660000e-01    1.600000e+00
 SP2aq  TX4v  1 3.650000e-01    2.340000e+00
 SP2aq  TX3v  1 3.650000e-01    2.340000e+00
 SP2aq  TX2v  1 3.650000e-01    2.110000e+00
 SP2aq  TX1v  1 3.650000e-01    1.910000e+00
 SP2aq  TC6e  1 3.650000e-01    1.910000e+00
 SP2aq  TC5e  1 3.650000e-01    1.750000e+00
 SP2aq  TC4e  1 3.660000e-01    1.600000e+00
 SP2aq  TC3e  1 3.780000e-01    1.450000e+00
 SP2aq  TC2e  1 3.780000e-01    1.450000e+00
 SP2aq  TC1e  1 3.940000e-01    1.290000e+00
 SP2aq  TX4e  1 3.650000e-01    1.910000e+00
 SP2aq  TX3e  1 3.650000e-01    1.910000e+00
 SP2aq  TX2e  1 3.650000e-01    1.750000e+00
 SP2aq  TX1e  1 3.660000e-01    1.600000e+00
 SP1aq  TN6a  1 3.650000e-01    2.830000e+00
 SP1aq  TN5a  1 3.650000e-01    2.570000e+00
 SP1aq  TN4a  1 3.650000e-01    2.570000e+00
 SP1aq  TN3a  1 3.650000e-01    2.110000e+00
 SP1aq  TN2a  1 3.650000e-01    2.110000e+00
 SP1aq  TN1a  1 3.650000e-01    2.110000e+00
 SP1aq  TC6v  1 3.650000e-01    2.340000e+00
 SP1aq  TC5v  1 3.650000e-01    2.110000e+00
 SP1aq  TC4v  1 3.650000e-01    1.910000e+00
 SP1aq  TC3v  1 3.650000e-01    1.750000e+00
 SP1aq  TC2v  1 3.650000e-01    1.750000e+00
 SP1aq  TC1v  1 3.660000e-01    1.600000e+00
 SP1aq  TX4v  1 3.650000e-01    2.340000e+00
 SP1aq  TX3v  1 3.650000e-01    2.340000e+00
 SP1aq  TX2v  1 3.650000e-01    2.110000e+00
 SP1aq  TX1v  1 3.650000e-01    1.910000e+00
 SP1aq  TC6e  1 3.650000e-01    1.910000e+00
 SP1aq  TC5e  1 3.650000e-01    1.750000e+00
 SP1aq  TC4e  1 3.660000e-01    1.600000e+00
 SP1aq  TC3e  1 3.780000e-01    1.450000e+00
 SP1aq  TC2e  1 3.780000e-01    1.450000e+00
 SP1aq  TC1e  1 3.940000e-01    1.290000e+00
 SP1aq  TX4e  1 3.650000e-01    1.910000e+00
 SP1aq  TX3e  1 3.650000e-01    1.910000e+00
 SP1aq  TX2e  1 3.650000e-01    1.750000e+00
 SP1aq  TX1e  1 3.660000e-01    1.600000e+00
 SN6aq  TN5a  1 3.650000e-01    2.830000e+00
 SN6aq  TN4a  1 3.650000e-01    2.830000e+00
 SN6aq  TN3a  1 3.650000e-01    2.340000e+00
 SN6aq  TN2a  1 3.650000e-01    2.110000e+00
 SN6aq  TN1a  1 3.650000e-01    2.110000e+00
 SN6aq  TC6v  1 3.650000e-01    2.570000e+00
 SN6aq  TC5v  1 3.650000e-01    2.340000e+00
 SN6aq  TC4v  1 3.650000e-01    2.110000e+00
 SN6aq  TC3v  1 3.650000e-01    1.910000e+00
 SN6aq  TC2v  1 3.650000e-01    1.910000e+00
 SN6aq  TC1v  1 3.650000e-01    1.750000e+00
 SN6aq  TX4v  1 3.650000e-01    2.570000e+00
 SN6aq  TX3v  1 3.650000e-01    2.340000e+00
 SN6aq  TX2v  1 3.650000e-01    2.110000e+00
 SN6aq  TX1v  1 3.650000e-01    1.910000e+00
 SN6aq  TC6e  1 3.650000e-01    2.110000e+00
 SN6aq  TC5e  1 3.650000e-01    1.910000e+00
 SN6aq  TC4e  1 3.650000e-01    1.750000e+00
 SN6aq  TC3e  1 3.660000e-01    1.600000e+00
 SN6aq  TC2e  1 3.660000e-01    1.600000e+00
 SN6aq  TC1e  1 3.780000e-01    1.450000e+00
 SN6aq  TX4e  1 3.650000e-01    2.110000e+00
 SN6aq  TX3e  1 3.650000e-01    1.910000e+00
 SN6aq  TX2e  1 3.650000e-01    1.750000e+00
 SN6aq  TX1e  1 3.660000e-01    1.600000e+00
 SN5aq  TN4a  1 3.650000e-01    2.570000e+00
 SN5aq  TN3a  1 3.650000e-01    2.340000e+00
 SN5aq  TN2a  1 3.650000e-01    2.340000e+00
 SN5aq  TN1a  1 3.650000e-01    2.110000e+00
 SN5aq  TC6v  1 3.650000e-01    2.570000e+00
 SN5aq  TC5v  1 3.650000e-01    2.340000e+00
 SN5aq  TC4v  1 3.650000e-01    2.110000e+00
 SN5aq  TC3v  1 3.650000e-01    2.110000e+00
 SN5aq  TC2v  1 3.650000e-01    1.910000e+00
 SN5aq  TC1v  1 3.650000e-01    1.750000e+00
 SN5aq  TX4v  1 3.650000e-01    2.830000e+00
 SN5aq  TX3v  1 3.650000e-01    2.570000e+00
 SN5aq  TX2v  1 3.650000e-01    2.340000e+00
 SN5aq  TX1v  1 3.650000e-01    2.110000e+00
 SN5aq  TC6e  1 3.650000e-01    2.110000e+00
 SN5aq  TC5e  1 3.650000e-01    1.910000e+00
 SN5aq  TC4e  1 3.650000e-01    1.750000e+00
 SN5aq  TC3e  1 3.650000e-01    1.750000e+00
 SN5aq  TC2e  1 3.660000e-01    1.600000e+00
 SN5aq  TC1e  1 3.780000e-01    1.450000e+00
 SN5aq  TX4e  1 3.650000e-01    2.340000e+00
 SN5aq  TX3e  1 3.650000e-01    2.110000e+00
 SN5aq  TX2e  1 3.650000e-01    1.910000e+00
 SN5aq  TX1e  1 3.650000e-01    1.750000e+00
 SN4aq  TN3a  1 3.650000e-01    2.340000e+00
 SN4aq  TN2a  1 3.650000e-01    2.340000e+00
 SN4aq  TN1a  1 3.650000e-01    2.110000e+00
 SN4aq  TC6v  1 3.650000e-01    2.570000e+00
 SN4aq  TC5v  1 3.650000e-01    2.340000e+00
 SN4aq  TC4v  1 3.650000e-01    2.340000e+00
 SN4aq  TC3v  1 3.650000e-01    2.110000e+00
 SN4aq  TC2v  1 3.650000e-01    1.910000e+00
 SN4aq  TC1v  1 3.650000e-01    1.750000e+00
 SN4aq  TX4v  1 3.650000e-01    3.100000e+00
 SN4aq  TX3v  1 3.650000e-01    2.830000e+00
 SN4aq  TX2v  1 3.650000e-01    2.340000e+00
 SN4aq  TX1v  1 3.650000e-01    2.110000e+00
 SN4aq  TC6e  1 3.650000e-01    2.110000e+00
 SN4aq  TC5e  1 3.650000e-01    1.910000e+00
 SN4aq  TC4e  1 3.650000e-01    1.910000e+00
 SN4aq  TC3e  1 3.650000e-01    1.750000e+00
 SN4aq  TC2e  1 3.660000e-01    1.600000e+00
 SN4aq  TC1e  1 3.780000e-01    1.450000e+00
 SN4aq  TX4e  1 3.650000e-01    2.570000e+00
 SN4aq  TX3e  1 3.650000e-01    2.340000e+00
 SN4aq  TX2e  1 3.650000e-01    1.910000e+00
 SN4aq  TX1e  1 3.650000e-01    1.750000e+00
 SN3aq  TN2a  1 3.650000e-01    2.340000e+00
 SN3aq  TN1a  1 3.650000e-01    2.110000e+00
 SN3aq  TC6v  1 3.650000e-01    2.570000e+00
 SN3aq  TC5v  1 3.650000e-01    2.340000e+00
 SN3aq  TC4v  1 3.650000e-01    2.340000e+00
 SN3aq  TC3v  1 3.650000e-01    2.110000e+00
 SN3aq  TC2v  1 3.650000e-01    2.110000e+00
 SN3aq  TC1v  1 3.650000e-01    1.910000e+00
 SN3aq  TX4v  1 3.650000e-01    2.830000e+00
 SN3aq  TX3v  1 3.650000e-01    2.570000e+00
 SN3aq  TX2v  1 3.650000e-01    2.340000e+00
 SN3aq  TX1v  1 3.650000e-01    2.340000e+00
 SN3aq  TC6e  1 3.650000e-01    2.110000e+00
 SN3aq  TC5e  1 3.650000e-01    1.910000e+00
 SN3aq  TC4e  1 3.650000e-01    1.910000e+00
 SN3aq  TC3e  1 3.650000e-01    1.750000e+00
 SN3aq  TC2e  1 3.650000e-01    1.750000e+00
 SN3aq  TC1e  1 3.660000e-01    1.600000e+00
 SN3aq  TX4e  1 3.650000e-01    2.340000e+00
 SN3aq  TX3e  1 3.650000e-01    2.110000e+00
 SN3aq  TX2e  1 3.650000e-01    1.910000e+00
 SN3aq  TX1e  1 3.650000e-01    1.910000e+00
 SN2aq  TN1a  1 3.650000e-01    2.110000e+00
 SN2aq  TC6v  1 3.650000e-01    2.570000e+00
 SN2aq  TC5v  1 3.650000e-01    2.340000e+00
 SN2aq  TC4v  1 3.650000e-01    2.340000e+00
 SN2aq  TC3v  1 3.650000e-01    2.340000e+00
 SN2aq  TC2v  1 3.650000e-01    2.110000e+00
 SN2aq  TC1v  1 3.650000e-01    1.910000e+00
 SN2aq  TX4v  1 3.650000e-01    2.830000e+00
 SN2aq  TX3v  1 3.650000e-01    2.570000e+00
 SN2aq  TX2v  1 3.650000e-01    2.340000e+00
 SN2aq  TX1v  1 3.650000e-01    2.340000e+00
 SN2aq  TC6e  1 3.650000e-01    2.110000e+00
 SN2aq  TC5e  1 3.650000e-01    1.910000e+00
 SN2aq  TC4e  1 3.650000e-01    1.910000e+00
 SN2aq  TC3e  1 3.650000e-01    1.910000e+00
 SN2aq  TC2e  1 3.650000e-01    1.750000e+00
 SN2aq  TC1e  1 3.660000e-01    1.600000e+00
 SN2aq  TX4e  1 3.650000e-01    2.340000e+00
 SN2aq  TX3e  1 3.650000e-01    2.110000e+00
 SN2aq  TX2e  1 3.650000e-01    1.910000e+00
 SN2aq  TX1e  1 3.650000e-01    1.910000e+00
 SN1aq  TC6v  1 3.650000e-01    2.830000e+00
 SN1aq  TC5v  1 3.650000e-01    2.570000e+00
 SN1aq  TC4v  1 3.650000e-01    2.570000e+00
 SN1aq  TC3v  1 3.650000e-01    2.340000e+00
 SN1aq  TC2v  1 3.650000e-01    2.110000e+00
 SN1aq  TC1v  1 3.650000e-01    1.910000e+00
 SN1aq  TX4v  1 3.650000e-01    2.570000e+00
 SN1aq  TX3v  1 3.650000e-01    2.570000e+00
 SN1aq  TX2v  1 3.650000e-01    2.340000e+00
 SN1aq  TX1v  1 3.650000e-01    2.340000e+00
 SN1aq  TC6e  1 3.650000e-01    2.340000e+00
 SN1aq  TC5e  1 3.650000e-01    2.110000e+00
 SN1aq  TC4e  1 3.650000e-01    2.110000e+00
 SN1aq  TC3e  1 3.650000e-01    1.910000e+00
 SN1aq  TC2e  1 3.650000e-01    1.750000e+00
 SN1aq  TC1e  1 3.660000e-01    1.600000e+00
 SN1aq  TX4e  1 3.650000e-01    2.110000e+00
 SN1aq  TX3e  1 3.650000e-01    2.110000e+00
 SN1aq  TX2e  1 3.650000e-01    1.910000e+00
 SN1aq  TX1e  1 3.650000e-01    1.910000e+00
 SC6vq  TC5v  1 3.650000e-01    2.110000e+00
 SC6vq  TC4v  1 3.650000e-01    2.110000e+00
 SC6vq  TC3v  1 3.650000e-01    1.910000e+00
 SC6vq  TC2v  1 3.650000e-01    1.750000e+00
 SC6vq  TC1v  1 3.660000e-01    1.600000e+00
 SC6vq  TX4v  1 3.650000e-01    2.110000e+00
 SC6vq  TX3v  1 3.650000e-01    2.110000e+00
 SC6vq  TX2v  1 3.650000e-01    2.110000e+00
 SC6vq  TX1v  1 3.650000e-01    2.110000e+00
 SC6vq  TC6e  1 3.650000e-01    3.100000e+00
 SC6vq  TC5e  1 3.650000e-01    2.830000e+00
 SC6vq  TC4e  1 3.650000e-01    2.830000e+00
 SC6vq  TC3e  1 3.650000e-01    2.570000e+00
 SC6vq  TC2e  1 3.650000e-01    2.340000e+00
 SC6vq  TC1e  1 3.650000e-01    2.110000e+00
 SC6vq  TX4e  1 3.650000e-01    2.830000e+00
 SC6vq  TX3e  1 3.650000e-01    2.830000e+00
 SC6vq  TX2e  1 3.650000e-01    2.830000e+00
 SC6vq  TX1e  1 3.650000e-01    2.830000e+00
 SC5vq  TC4v  1 3.650000e-01    2.110000e+00
 SC5vq  TC3v  1 3.650000e-01    1.910000e+00
 SC5vq  TC2v  1 3.650000e-01    1.750000e+00
 SC5vq  TC1v  1 3.650000e-01    1.750000e+00
 SC5vq  TX4v  1 3.650000e-01    1.910000e+00
 SC5vq  TX3v  1 3.650000e-01    1.910000e+00
 SC5vq  TX2v  1 3.650000e-01    1.910000e+00
 SC5vq  TX1v  1 3.650000e-01    2.110000e+00
 SC5vq  TC5e  1 3.650000e-01    2.830000e+00
 SC5vq  TC4e  1 3.650000e-01    2.830000e+00
 SC5vq  TC3e  1 3.650000e-01    2.570000e+00
 SC5vq  TC2e  1 3.650000e-01    2.340000e+00
 SC5vq  TC1e  1 3.650000e-01    2.340000e+00
 SC5vq  TX4e  1 3.650000e-01    2.570000e+00
 SC5vq  TX3e  1 3.650000e-01    2.570000e+00
 SC5vq  TX2e  1 3.650000e-01    2.570000e+00
 SC5vq  TX1e  1 3.650000e-01    2.830000e+00
 SC4vq  TC3v  1 3.650000e-01    2.110000e+00
 SC4vq  TC2v  1 3.650000e-01    1.910000e+00
 SC4vq  TC1v  1 3.650000e-01    1.750000e+00
 SC4vq  TX4v  1 3.650000e-01    1.910000e+00
 SC4vq  TX3v  1 3.650000e-01    1.910000e+00
 SC4vq  TX2v  1 3.650000e-01    1.910000e+00
 SC4vq  TX1v  1 3.650000e-01    2.110000e+00
 SC4vq  TC4e  1 3.650000e-01    2.830000e+00
 SC4vq  TC3e  1 3.650000e-01    2.830000e+00
 SC4vq  TC2e  1 3.650000e-01    2.570000e+00
 SC4vq  TC1e  1 3.650000e-01    2.340000e+00
 SC4vq  TX4e  1 3.650000e-01    2.570000e+00
 SC4vq  TX3e  1 3.650000e-01    2.570000e+00
 SC4vq  TX2e  1 3.650000e-01    2.570000e+00
 SC4vq  TX1e  1 3.650000e-01    2.830000e+00
 SC3vq  TC2v  1 3.650000e-01    2.110000e+00
 SC3vq  TC1v  1 3.650000e-01    2.110000e+00
 SC3vq  TX4v  1 3.650000e-01    1.910000e+00
 SC3vq  TX3v  1 3.650000e-01    1.910000e+00
 SC3vq  TX2v  1 3.650000e-01    1.910000e+00
 SC3vq  TX1v  1 3.650000e-01    2.110000e+00
 SC3vq  TC3e  1 3.650000e-01    2.830000e+00
 SC3vq  TC2e  1 3.650000e-01    2.830000e+00
 SC3vq  TC1e  1 3.650000e-01    2.830000e+00
 SC3vq  TX4e  1 3.650000e-01    2.570000e+00
 SC3vq  TX3e  1 3.650000e-01    2.570000e+00
 SC3vq  TX2e  1 3.650000e-01    2.570000e+00
 SC3vq  TX1e  1 3.650000e-01    2.830000e+00
 SC2vq  TC1v  1 3.650000e-01    2.340000e+00
 SC2vq  TX4v  1 3.660000e-01    1.600000e+00
 SC2vq  TX3v  1 3.650000e-01    1.910000e+00
 SC2vq  TX2v  1 3.650000e-01    1.910000e+00
 SC2vq  TX1v  1 3.650000e-01    1.910000e+00
 SC2vq  TC2e  1 3.650000e-01    2.830000e+00
 SC2vq  TC1e  1 3.650000e-01    3.100000e+00
 SC2vq  TX4e  1 3.650000e-01    2.110000e+00
 SC2vq  TX3e  1 3.650000e-01    2.570000e+00
 SC2vq  TX2e  1 3.650000e-01    2.570000e+00
 SC2vq  TX1e  1 3.650000e-01    2.570000e+00
 SC1vq  TX4v  1 3.660000e-01    1.600000e+00
 SC1vq  TX3v  1 3.650000e-01    1.910000e+00
 SC1vq  TX2v  1 3.650000e-01    1.910000e+00
 SC1vq  TX1v  1 3.650000e-01    1.910000e+00
 SC1vq  TC1e  1 3.650000e-01    2.830000e+00
 SC1vq  TX4e  1 3.650000e-01    2.110000e+00
 SC1vq  TX3e  1 3.650000e-01    2.570000e+00
 SC1vq  TX2e  1 3.650000e-01    2.570000e+00
 SC1vq  TX1e  1 3.650000e-01    2.570000e+00
 SX4vq  TX3v  1 3.650000e-01    2.110000e+00
 SX4vq  TX2v  1 3.650000e-01    2.110000e+00
 SX4vq  TX1v  1 3.650000e-01    2.110000e+00
 SX4vq  TX4e  1 3.650000e-01    2.830000e+00
 SX4vq  TX3e  1 3.650000e-01    2.830000e+00
 SX4vq  TX2e  1 3.650000e-01    2.830000e+00
 SX4vq  TX1e  1 3.650000e-01    2.830000e+00
 SX3vq  TX2v  1 3.650000e-01    2.340000e+00
 SX3vq  TX1v  1 3.650000e-01    2.340000e+00
 SX3vq  TX3e  1 3.650000e-01    2.830000e+00
 SX3vq  TX2e  1 3.650000e-01    3.100000e+00
 SX3vq  TX1e  1 3.650000e-01    3.100000e+00
 SX2vq  TX1v  1 3.650000e-01    2.340000e+00
 SX2vq  TX2e  1 3.650000e-01    3.100000e+00
 SX2vq  TX1e  1 3.650000e-01    3.100000e+00
 SX1vq  TX1e  1 3.650000e-01    3.370000e+00
 SC6eq  TC5e  1 3.650000e-01    2.110000e+00
 SC6eq  TC4e  1 3.650000e-01    2.110000e+00
 SC6eq  TC3e  1 3.650000e-01    1.910000e+00
 SC6eq  TC2e  1 3.650000e-01    1.750000e+00
 SC6eq  TC1e  1 3.660000e-01    1.600000e+00
 SC6eq  TX4e  1 3.650000e-01    2.110000e+00
 SC6eq  TX3e  1 3.650000e-01    2.110000e+00
 SC6eq  TX2e  1 3.650000e-01    2.110000e+00
 SC6eq  TX1e  1 3.650000e-01    2.110000e+00
 SC5eq  TC4e  1 3.650000e-01    2.110000e+00
 SC5eq  TC3e  1 3.650000e-01    1.910000e+00
 SC5eq  TC2e  1 3.650000e-01    1.750000e+00
 SC5eq  TC1e  1 3.650000e-01    1.750000e+00
 SC5eq  TX4e  1 3.650000e-01    1.910000e+00
 SC5eq  TX3e  1 3.650000e-01    1.910000e+00
 SC5eq  TX2e  1 3.650000e-01    1.910000e+00
 SC5eq  TX1e  1 3.650000e-01    2.110000e+00
 SC4eq  TC3e  1 3.650000e-01    2.110000e+00
 SC4eq  TC2e  1 3.650000e-01    1.910000e+00
 SC4eq  TC1e  1 3.650000e-01    1.750000e+00
 SC4eq  TX4e  1 3.650000e-01    1.910000e+00
 SC4eq  TX3e  1 3.650000e-01    1.910000e+00
 SC4eq  TX2e  1 3.650000e-01    1.910000e+00
 SC4eq  TX1e  1 3.650000e-01    2.110000e+00
 SC3eq  TC2e  1 3.650000e-01    2.110000e+00
 SC3eq  TC1e  1 3.650000e-01    2.110000e+00
 SC3eq  TX4e  1 3.650000e-01    1.910000e+00
 SC3eq  TX3e  1 3.650000e-01    1.910000e+00
 SC3eq  TX2e  1 3.650000e-01    1.910000e+00
 SC3eq  TX1e  1 3.650000e-01    2.110000e+00
 SC2eq  TC1e  1 3.650000e-01    2.340000e+00
 SC2eq  TX4e  1 3.660000e-01    1.600000e+00
 SC2eq  TX3e  1 3.650000e-01    1.910000e+00
 SC2eq  TX2e  1 3.650000e-01    1.910000e+00
 SC2eq  TX1e  1 3.650000e-01    1.910000e+00
 SC1eq  TX4e  1 3.660000e-01    1.600000e+00
 SC1eq  TX3e  1 3.650000e-01    1.910000e+00
 SC1eq  TX2e  1 3.650000e-01    1.910000e+00
 SC1eq  TX1e  1 3.650000e-01    1.910000e+00
 SX4eq  TX3e  1 3.650000e-01    2.110000e+00
 SX4eq  TX2e  1 3.650000e-01    2.110000e+00
 SX4eq  TX1e  1 3.650000e-01    2.110000e+00
 SX3eq  TX2e  1 3.650000e-01    2.340000e+00
 SX3eq  TX1e  1 3.650000e-01    2.340000e+00
 SX2eq  TX1e  1 3.650000e-01    2.340000e+00
 SX2eq  TX1v  1 3.650000e-01    3.100000e+00
 SX3eq  TX2v  1 3.650000e-01    3.100000e+00
 SX3eq  TX1v  1 3.650000e-01    3.100000e+00
 SX4eq  TX3v  1 3.650000e-01    2.830000e+00
 SX4eq  TX2v  1 3.650000e-01    2.830000e+00
 SX4eq  TX1v  1 3.650000e-01    2.830000e+00
 SC1eq  TX4v  1 3.650000e-01    2.110000e+00
 SC1eq  TX3v  1 3.650000e-01    2.570000e+00
 SC1eq  TX2v  1 3.650000e-01    2.570000e+00
 SC1eq  TX1v  1 3.650000e-01    2.570000e+00
 SC2eq  TC1v  1 3.650000e-01    3.100000e+00
 SC2eq  TX4v  1 3.650000e-01    2.110000e+00
 SC2eq  TX3v  1 3.650000e-01    2.570000e+00
 SC2eq  TX2v  1 3.650000e-01    2.570000e+00
 SC2eq  TX1v  1 3.650000e-01    2.570000e+00
 SC3eq  TC2v  1 3.650000e-01    2.830000e+00
 SC3eq  TC1v  1 3.650000e-01    2.830000e+00
 SC3eq  TX4v  1 3.650000e-01    2.570000e+00
 SC3eq  TX3v  1 3.650000e-01    2.570000e+00
 SC3eq  TX2v  1 3.650000e-01    2.570000e+00
 SC3eq  TX1v  1 3.650000e-01    2.830000e+00
 SC4eq  TC3v  1 3.650000e-01    2.830000e+00
 SC4eq  TC2v  1 3.650000e-01    2.570000e+00
 SC4eq  TC1v  1 3.650000e-01    2.340000e+00
 SC4eq  TX4v  1 3.650000e-01    2.570000e+00
 SC4eq  TX3v  1 3.650000e-01    2.570000e+00
 SC4eq  TX2v  1 3.650000e-01    2.570000e+00
 SC4eq  TX1v  1 3.650000e-01    2.830000e+00
 SC5eq  TC4v  1 3.650000e-01    2.830000e+00
 SC5eq  TC3v  1 3.650000e-01    2.570000e+00
 SC5eq  TC2v  1 3.650000e-01    2.340000e+00
 SC5eq  TC1v  1 3.650000e-01    2.340000e+00
 SC5eq  TX4v  1 3.650000e-01    2.570000e+00
 SC5eq  TX3v  1 3.650000e-01    2.570000e+00
 SC5eq  TX2v  1 3.650000e-01    2.570000e+00
 SC5eq  TX1v  1 3.650000e-01    2.830000e+00
 SC6eq  TC5v  1 3.650000e-01    2.830000e+00
 SC6eq  TC4v  1 3.650000e-01    2.830000e+00
 SC6eq  TC3v  1 3.650000e-01    2.570000e+00
 SC6eq  TC2v  1 3.650000e-01    2.340000e+00
 SC6eq  TC1v  1 3.650000e-01    2.110000e+00
 SC6eq  TX4v  1 3.650000e-01    2.830000e+00
 SC6eq  TX3v  1 3.650000e-01    2.830000e+00
 SC6eq  TX2v  1 3.650000e-01    2.830000e+00
 SC6eq  TX1v  1 3.650000e-01    2.830000e+00
 SN2aq  TN1d  1 3.650000e-01    2.570000e+00
 SN3aq  TN2d  1 3.650000e-01    2.830000e+00
 SN3aq  TN1d  1 3.650000e-01    2.570000e+00
 SN4aq  TN3d  1 3.650000e-01    2.830000e+00
 SN4aq  TN2d  1 3.650000e-01    2.830000e+00
 SN4aq  TN1d  1 3.650000e-01    2.570000e+00
 SN5aq  TN4d  1 3.650000e-01    3.100000e+00
 SN5aq  TN3d  1 3.650000e-01    2.830000e+00
 SN5aq  TN2d  1 3.650000e-01    2.830000e+00
 SN5aq  TN1d  1 3.650000e-01    2.570000e+00
 SN6aq  TN5d  1 3.650000e-01    3.370000e+00
 SN6aq  TN4d  1 3.650000e-01    3.370000e+00
 SN6aq  TN3d  1 3.650000e-01    2.830000e+00
 SN6aq  TN2d  1 3.650000e-01    2.570000e+00
 SN6aq  TN1d  1 3.650000e-01    2.570000e+00
 SP1aq  TN6d  1 3.650000e-01    3.370000e+00
 SP1aq  TN5d  1 3.650000e-01    3.100000e+00
 SP1aq  TN4d  1 3.650000e-01    3.100000e+00
 SP1aq  TN3d  1 3.650000e-01    2.570000e+00
 SP1aq  TN2d  1 3.650000e-01    2.570000e+00
 SP1aq  TN1d  1 3.650000e-01    2.570000e+00
 SP2aq  TP1d  1 3.650000e-01    3.370000e+00
 SP2aq  TN6d  1 3.650000e-01    3.370000e+00
 SP2aq  TN5d  1 3.650000e-01    3.100000e+00
 SP2aq  TN4d  1 3.650000e-01    2.830000e+00
 SP2aq  TN3d  1 3.650000e-01    2.570000e+00
 SP2aq  TN2d  1 3.650000e-01    2.570000e+00
 SP2aq  TN1d  1 3.650000e-01    2.570000e+00
 SP3aq  TP2d  1 3.650000e-01    3.640000e+00
 SP3aq  TP1d  1 3.650000e-01    3.370000e+00
 SP3aq  TN6d  1 3.650000e-01    3.100000e+00
 SP3aq  TN5d  1 3.650000e-01    2.830000e+00
 SP3aq  TN4d  1 3.650000e-01    2.830000e+00
 SP3aq  TN3d  1 3.650000e-01    2.570000e+00
 SP3aq  TN2d  1 3.650000e-01    2.570000e+00
 SP3aq  TN1d  1 3.650000e-01    2.110000e+00
 SP4aq  TP3d  1 3.650000e-01    3.640000e+00
 SP4aq  TP2d  1 3.650000e-01    3.640000e+00
 SP4aq  TP1d  1 3.650000e-01    3.370000e+00
 SP4aq  TN6d  1 3.650000e-01    3.100000e+00
 SP4aq  TN5d  1 3.650000e-01    2.830000e+00
 SP4aq  TN4d  1 3.650000e-01    2.830000e+00
 SP4aq  TN3d  1 3.650000e-01    2.570000e+00
 SP4aq  TN2d  1 3.650000e-01    2.110000e+00
 SP4aq  TN1d  1 3.650000e-01    1.910000e+00
 SP5aq  TP4d  1 3.650000e-01    3.930000e+00
 SP5aq  TP3d  1 3.650000e-01    3.640000e+00
 SP5aq  TP2d  1 3.650000e-01    3.640000e+00
 SP5aq  TP1d  1 3.650000e-01    3.370000e+00
 SP5aq  TN6d  1 3.650000e-01    3.100000e+00
 SP5aq  TN5d  1 3.650000e-01    2.830000e+00
 SP5aq  TN4d  1 3.650000e-01    2.830000e+00
 SP5aq  TN3d  1 3.650000e-01    2.110000e+00
 SP5aq  TN2d  1 3.650000e-01    1.910000e+00
 SP5aq  TN1d  1 3.650000e-01    1.750000e+00
 SP6aq  TP5d  1 3.650000e-01    4.510000e+00
 SP6aq  TP4d  1 3.650000e-01    4.220000e+00
 SP6aq  TP3d  1 3.650000e-01    3.930000e+00
 SP6aq  TP2d  1 3.650000e-01    3.930000e+00
 SP6aq  TP1d  1 3.650000e-01    3.640000e+00
 SP6aq  TN6d  1 3.650000e-01    3.370000e+00
 SP6aq  TN5d  1 3.650000e-01    2.830000e+00
 SP6aq  TN4d  1 3.650000e-01    2.570000e+00
 SP6aq  TN3d  1 3.650000e-01    2.110000e+00
 SP6aq  TN2d  1 3.650000e-01    1.910000e+00
 SP6aq  TN1d  1 3.650000e-01    1.750000e+00
 SP6dq  TP5q  1 3.650000e-01    4.220000e+00
 SP6dq  TP4q  1 3.650000e-01    3.930000e+00
 SP6dq  TP3q  1 3.650000e-01    3.640000e+00
 SP6dq  TP2q  1 3.650000e-01    3.640000e+00
 SP6dq  TP1q  1 3.650000e-01    3.370000e+00
 SP6dq  TN6q  1 3.650000e-01    3.100000e+00
 SP6dq  TN5q  1 3.650000e-01    2.570000e+00
 SP6dq  TN4q  1 3.650000e-01    2.340000e+00
 SP6dq  TN3q  1 3.650000e-01    2.110000e+00
 SP6dq  TN2q  1 3.650000e-01    1.910000e+00
 SP6dq  TN1q  1 3.650000e-01    1.750000e+00
 SP6dq  TC6q  1 3.650000e-01    1.750000e+00
 SP6dq  TC5q  1 3.660000e-01    1.600000e+00
 SP6dq  TC4q  1 3.780000e-01    1.450000e+00
 SP6dq  TC3q  1 3.940000e-01    1.290000e+00
 SP6dq  TC2q  1 3.940000e-01    1.290000e+00
 SP6dq  TC1q  1 4.090000e-01    1.080000e+00
 SP6dq  TX4q  1 3.650000e-01    1.910000e+00
 SP6dq  TX3q  1 3.650000e-01    1.910000e+00
 SP6dq  TX2q  1 3.650000e-01    1.750000e+00
 SP6dq  TX1q  1 3.660000e-01    1.600000e+00
 SP5dq  TP4q  1 3.650000e-01    3.640000e+00
 SP5dq  TP3q  1 3.650000e-01    3.370000e+00
 SP5dq  TP2q  1 3.650000e-01    3.370000e+00
 SP5dq  TP1q  1 3.650000e-01    3.100000e+00
 SP5dq  TN6q  1 3.650000e-01    2.830000e+00
 SP5dq  TN5q  1 3.650000e-01    2.570000e+00
 SP5dq  TN4q  1 3.650000e-01    2.570000e+00
 SP5dq  TN3q  1 3.650000e-01    2.110000e+00
 SP5dq  TN2q  1 3.650000e-01    1.910000e+00
 SP5dq  TN1q  1 3.650000e-01    1.750000e+00
 SP5dq  TC6q  1 3.650000e-01    1.750000e+00
 SP5dq  TC5q  1 3.650000e-01    1.750000e+00
 SP5dq  TC4q  1 3.660000e-01    1.600000e+00
 SP5dq  TC3q  1 3.780000e-01    1.450000e+00
 SP5dq  TC2q  1 3.780000e-01    1.450000e+00
 SP5dq  TC1q  1 3.940000e-01    1.290000e+00
 SP5dq  TX4q  1 3.650000e-01    2.110000e+00
 SP5dq  TX3q  1 3.650000e-01    1.910000e+00
 SP5dq  TX2q  1 3.650000e-01    1.910000e+00
 SP5dq  TX1q  1 3.660000e-01    1.600000e+00
 SP4dq  TP3q  1 3.650000e-01    3.370000e+00
 SP4dq  TP2q  1 3.650000e-01    3.370000e+00
 SP4dq  TP1q  1 3.650000e-01    3.100000e+00
 SP4dq  TN6q  1 3.650000e-01    2.830000e+00
 SP4dq  TN5q  1 3.650000e-01    2.570000e+00
 SP4dq  TN4q  1 3.650000e-01    2.570000e+00
 SP4dq  TN3q  1 3.650000e-01    2.340000e+00
 SP4dq  TN2q  1 3.650000e-01    2.110000e+00
 SP4dq  TN1q  1 3.650000e-01    1.910000e+00
 SP4dq  TC6q  1 3.650000e-01    1.910000e+00
 SP4dq  TC5q  1 3.650000e-01    1.750000e+00
 SP4dq  TC4q  1 3.660000e-01    1.600000e+00
 SP4dq  TC3q  1 3.780000e-01    1.450000e+00
 SP4dq  TC2q  1 3.780000e-01    1.450000e+00
 SP4dq  TC1q  1 3.940000e-01    1.290000e+00
 SP4dq  TX4q  1 3.650000e-01    2.110000e+00
 SP4dq  TX3q  1 3.650000e-01    1.910000e+00
 SP4dq  TX2q  1 3.650000e-01    1.910000e+00
 SP4dq  TX1q  1 3.650000e-01    1.750000e+00
 SP3dq  TP2q  1 3.650000e-01    3.370000e+00
 SP3dq  TP1q  1 3.650000e-01    3.100000e+00
 SP3dq  TN6q  1 3.650000e-01    2.830000e+00
 SP3dq  TN5q  1 3.650000e-01    2.570000e+00
 SP3dq  TN4q  1 3.650000e-01    2.570000e+00
 SP3dq  TN3q  1 3.650000e-01    2.340000e+00
 SP3dq  TN2q  1 3.650000e-01    2.340000e+00
 SP3dq  TN1q  1 3.650000e-01    2.110000e+00
 SP3dq  TC6q  1 3.650000e-01    2.110000e+00
 SP3dq  TC5q  1 3.650000e-01    1.910000e+00
 SP3dq  TC4q  1 3.650000e-01    1.750000e+00
 SP3dq  TC3q  1 3.780000e-01    1.450000e+00
 SP3dq  TC2q  1 3.780000e-01    1.450000e+00
 SP3dq  TC1q  1 3.940000e-01    1.290000e+00
 SP3dq  TX4q  1 3.650000e-01    2.110000e+00
 SP3dq  TX3q  1 3.650000e-01    2.110000e+00
 SP3dq  TX2q  1 3.650000e-01    1.910000e+00
 SP3dq  TX1q  1 3.650000e-01    1.750000e+00
 SP2dq  TP1q  1 3.650000e-01    3.100000e+00
 SP2dq  TN6q  1 3.650000e-01    3.100000e+00
 SP2dq  TN5q  1 3.650000e-01    2.830000e+00
 SP2dq  TN4q  1 3.650000e-01    2.570000e+00
 SP2dq  TN3q  1 3.650000e-01    2.340000e+00
 SP2dq  TN2q  1 3.650000e-01    2.340000e+00
 SP2dq  TN1q  1 3.650000e-01    2.340000e+00
 SP2dq  TC6q  1 3.650000e-01    2.110000e+00
 SP2dq  TC5q  1 3.650000e-01    1.910000e+00
 SP2dq  TC4q  1 3.650000e-01    1.750000e+00
 SP2dq  TC3q  1 3.660000e-01    1.600000e+00
 SP2dq  TC2q  1 3.660000e-01    1.600000e+00
 SP2dq  TC1q  1 3.780000e-01    1.450000e+00
 SP2dq  TX4q  1 3.650000e-01    2.110000e+00
 SP2dq  TX3q  1 3.650000e-01    2.110000e+00
 SP2dq  TX2q  1 3.650000e-01    1.910000e+00
 SP2dq  TX1q  1 3.650000e-01    1.750000e+00
 SP1dq  TN6q  1 3.650000e-01    3.100000e+00
 SP1dq  TN5q  1 3.650000e-01    2.830000e+00
 SP1dq  TN4q  1 3.650000e-01    2.830000e+00
 SP1dq  TN3q  1 3.650000e-01    2.340000e+00
 SP1dq  TN2q  1 3.650000e-01    2.340000e+00
 SP1dq  TN1q  1 3.650000e-01    2.340000e+00
 SP1dq  TC6q  1 3.650000e-01    2.110000e+00
 SP1dq  TC5q  1 3.650000e-01    1.910000e+00
 SP1dq  TC4q  1 3.650000e-01    1.750000e+00
 SP1dq  TC3q  1 3.660000e-01    1.600000e+00
 SP1dq  TC2q  1 3.660000e-01    1.600000e+00
 SP1dq  TC1q  1 3.780000e-01    1.450000e+00
 SP1dq  TX4q  1 3.650000e-01    2.110000e+00
 SP1dq  TX3q  1 3.650000e-01    2.110000e+00
 SP1dq  TX2q  1 3.650000e-01    1.910000e+00
 SP1dq  TX1q  1 3.650000e-01    1.750000e+00
 SN6dq  TN5q  1 3.650000e-01    3.100000e+00
 SN6dq  TN4q  1 3.650000e-01    3.100000e+00
 SN6dq  TN3q  1 3.650000e-01    2.570000e+00
 SN6dq  TN2q  1 3.650000e-01    2.340000e+00
 SN6dq  TN1q  1 3.650000e-01    2.340000e+00
 SN6dq  TC6q  1 3.650000e-01    2.340000e+00
 SN6dq  TC5q  1 3.650000e-01    2.110000e+00
 SN6dq  TC4q  1 3.650000e-01    1.910000e+00
 SN6dq  TC3q  1 3.650000e-01    1.750000e+00
 SN6dq  TC2q  1 3.650000e-01    1.750000e+00
 SN6dq  TC1q  1 3.660000e-01    1.600000e+00
 SN6dq  TX4q  1 3.650000e-01    2.340000e+00
 SN6dq  TX3q  1 3.650000e-01    2.110000e+00
 SN6dq  TX2q  1 3.650000e-01    1.910000e+00
 SN6dq  TX1q  1 3.650000e-01    1.750000e+00
 SN5dq  TN4q  1 3.650000e-01    2.830000e+00
 SN5dq  TN3q  1 3.650000e-01    2.570000e+00
 SN5dq  TN2q  1 3.650000e-01    2.570000e+00
 SN5dq  TN1q  1 3.650000e-01    2.340000e+00
 SN5dq  TC6q  1 3.650000e-01    2.340000e+00
 SN5dq  TC5q  1 3.650000e-01    2.110000e+00
 SN5dq  TC4q  1 3.650000e-01    1.910000e+00
 SN5dq  TC3q  1 3.650000e-01    1.910000e+00
 SN5dq  TC2q  1 3.650000e-01    1.750000e+00
 SN5dq  TC1q  1 3.660000e-01    1.600000e+00
 SN5dq  TX4q  1 3.650000e-01    2.570000e+00
 SN5dq  TX3q  1 3.650000e-01    2.340000e+00
 SN5dq  TX2q  1 3.650000e-01    2.110000e+00
 SN5dq  TX1q  1 3.650000e-01    1.910000e+00
 SN4dq  TN3q  1 3.650000e-01    2.570000e+00
 SN4dq  TN2q  1 3.650000e-01    2.570000e+00
 SN4dq  TN1q  1 3.650000e-01    2.340000e+00
 SN4dq  TC6q  1 3.650000e-01    2.340000e+00
 SN4dq  TC5q  1 3.650000e-01    2.110000e+00
 SN4dq  TC4q  1 3.650000e-01    2.110000e+00
 SN4dq  TC3q  1 3.650000e-01    1.910000e+00
 SN4dq  TC2q  1 3.650000e-01    1.750000e+00
 SN4dq  TC1q  1 3.660000e-01    1.600000e+00
 SN4dq  TX4q  1 3.650000e-01    2.830000e+00
 SN4dq  TX3q  1 3.650000e-01    2.570000e+00
 SN4dq  TX2q  1 3.650000e-01    2.110000e+00
 SN4dq  TX1q  1 3.650000e-01    1.910000e+00
 SN3dq  TN2q  1 3.650000e-01    2.570000e+00
 SN3dq  TN1q  1 3.650000e-01    2.340000e+00
 SN3dq  TC6q  1 3.650000e-01    2.340000e+00
 SN3dq  TC5q  1 3.650000e-01    2.110000e+00
 SN3dq  TC4q  1 3.650000e-01    2.110000e+00
 SN3dq  TC3q  1 3.650000e-01    1.910000e+00
 SN3dq  TC2q  1 3.650000e-01    1.910000e+00
 SN3dq  TC1q  1 3.650000e-01    1.750000e+00
 SN3dq  TX4q  1 3.650000e-01    2.570000e+00
 SN3dq  TX3q  1 3.650000e-01    2.340000e+00
 SN3dq  TX2q  1 3.650000e-01    2.110000e+00
 SN3dq  TX1q  1 3.650000e-01    2.110000e+00
 SN2dq  TN1q  1 3.650000e-01    2.340000e+00
 SN2dq  TC6q  1 3.650000e-01    2.340000e+00
 SN2dq  TC5q  1 3.650000e-01    2.110000e+00
 SN2dq  TC4q  1 3.650000e-01    2.110000e+00
 SN2dq  TC3q  1 3.650000e-01    2.110000e+00
 SN2dq  TC2q  1 3.650000e-01    1.910000e+00
 SN2dq  TC1q  1 3.650000e-01    1.750000e+00
 SN2dq  TX4q  1 3.650000e-01    2.570000e+00
 SN2dq  TX3q  1 3.650000e-01    2.340000e+00
 SN2dq  TX2q  1 3.650000e-01    2.110000e+00
 SN2dq  TX1q  1 3.650000e-01    2.110000e+00
 SN1dq  TC6q  1 3.650000e-01    2.570000e+00
 SN1dq  TC5q  1 3.650000e-01    2.340000e+00
 SN1dq  TC4q  1 3.650000e-01    2.340000e+00
 SN1dq  TC3q  1 3.650000e-01    2.110000e+00
 SN1dq  TC2q  1 3.650000e-01    1.910000e+00
 SN1dq  TC1q  1 3.650000e-01    1.750000e+00
 SN1dq  TX4q  1 3.650000e-01    2.340000e+00
 SN1dq  TX3q  1 3.650000e-01    2.340000e+00
 SN1dq  TX2q  1 3.650000e-01    2.110000e+00
 SN1dq  TX1q  1 3.650000e-01    2.110000e+00
 SP6aq  TP5q  1 3.650000e-01    4.220000e+00
 SP6aq  TP4q  1 3.650000e-01    3.930000e+00
 SP6aq  TP3q  1 3.650000e-01    3.640000e+00
 SP6aq  TP2q  1 3.650000e-01    3.640000e+00
 SP6aq  TP1q  1 3.650000e-01    3.370000e+00
 SP6aq  TN6q  1 3.650000e-01    3.100000e+00
 SP6aq  TN5q  1 3.650000e-01    2.570000e+00
 SP6aq  TN4q  1 3.650000e-01    2.340000e+00
 SP6aq  TN3q  1 3.650000e-01    2.110000e+00
 SP6aq  TN2q  1 3.650000e-01    1.910000e+00
 SP6aq  TN1q  1 3.650000e-01    1.750000e+00
 SP6aq  TC6q  1 3.650000e-01    1.750000e+00
 SP6aq  TC5q  1 3.660000e-01    1.600000e+00
 SP6aq  TC4q  1 3.780000e-01    1.450000e+00
 SP6aq  TC3q  1 3.940000e-01    1.290000e+00
 SP6aq  TC2q  1 3.940000e-01    1.290000e+00
 SP6aq  TC1q  1 4.090000e-01    1.080000e+00
 SP6aq  TX4q  1 3.650000e-01    1.910000e+00
 SP6aq  TX3q  1 3.650000e-01    1.910000e+00
 SP6aq  TX2q  1 3.650000e-01    1.750000e+00
 SP6aq  TX1q  1 3.660000e-01    1.600000e+00
 SP5aq  TP4q  1 3.650000e-01    3.640000e+00
 SP5aq  TP3q  1 3.650000e-01    3.370000e+00
 SP5aq  TP2q  1 3.650000e-01    3.370000e+00
 SP5aq  TP1q  1 3.650000e-01    3.100000e+00
 SP5aq  TN6q  1 3.650000e-01    2.830000e+00
 SP5aq  TN5q  1 3.650000e-01    2.570000e+00
 SP5aq  TN4q  1 3.650000e-01    2.570000e+00
 SP5aq  TN3q  1 3.650000e-01    2.110000e+00
 SP5aq  TN2q  1 3.650000e-01    1.910000e+00
 SP5aq  TN1q  1 3.650000e-01    1.750000e+00
 SP5aq  TC6q  1 3.650000e-01    1.750000e+00
 SP5aq  TC5q  1 3.650000e-01    1.750000e+00
 SP5aq  TC4q  1 3.660000e-01    1.600000e+00
 SP5aq  TC3q  1 3.780000e-01    1.450000e+00
 SP5aq  TC2q  1 3.780000e-01    1.450000e+00
 SP5aq  TC1q  1 3.940000e-01    1.290000e+00
 SP5aq  TX4q  1 3.650000e-01    2.110000e+00
 SP5aq  TX3q  1 3.650000e-01    1.910000e+00
 SP5aq  TX2q  1 3.650000e-01    1.910000e+00
 SP5aq  TX1q  1 3.660000e-01    1.600000e+00
 SP4aq  TP3q  1 3.650000e-01    3.370000e+00
 SP4aq  TP2q  1 3.650000e-01    3.370000e+00
 SP4aq  TP1q  1 3.650000e-01    3.100000e+00
 SP4aq  TN6q  1 3.650000e-01    2.830000e+00
 SP4aq  TN5q  1 3.650000e-01    2.570000e+00
 SP4aq  TN4q  1 3.650000e-01    2.570000e+00
 SP4aq  TN3q  1 3.650000e-01    2.340000e+00
 SP4aq  TN2q  1 3.650000e-01    2.110000e+00
 SP4aq  TN1q  1 3.650000e-01    1.910000e+00
 SP4aq  TC6q  1 3.650000e-01    1.910000e+00
 SP4aq  TC5q  1 3.650000e-01    1.750000e+00
 SP4aq  TC4q  1 3.660000e-01    1.600000e+00
 SP4aq  TC3q  1 3.780000e-01    1.450000e+00
 SP4aq  TC2q  1 3.780000e-01    1.450000e+00
 SP4aq  TC1q  1 3.940000e-01    1.290000e+00
 SP4aq  TX4q  1 3.650000e-01    2.110000e+00
 SP4aq  TX3q  1 3.650000e-01    1.910000e+00
 SP4aq  TX2q  1 3.650000e-01    1.910000e+00
 SP4aq  TX1q  1 3.650000e-01    1.750000e+00
 SP3aq  TP2q  1 3.650000e-01    3.370000e+00
 SP3aq  TP1q  1 3.650000e-01    3.100000e+00
 SP3aq  TN6q  1 3.650000e-01    2.830000e+00
 SP3aq  TN5q  1 3.650000e-01    2.570000e+00
 SP3aq  TN4q  1 3.650000e-01    2.570000e+00
 SP3aq  TN3q  1 3.650000e-01    2.340000e+00
 SP3aq  TN2q  1 3.650000e-01    2.340000e+00
 SP3aq  TN1q  1 3.650000e-01    2.110000e+00
 SP3aq  TC6q  1 3.650000e-01    2.110000e+00
 SP3aq  TC5q  1 3.650000e-01    1.910000e+00
 SP3aq  TC4q  1 3.650000e-01    1.750000e+00
 SP3aq  TC3q  1 3.780000e-01    1.450000e+00
 SP3aq  TC2q  1 3.780000e-01    1.450000e+00
 SP3aq  TC1q  1 3.940000e-01    1.290000e+00
 SP3aq  TX4q  1 3.650000e-01    2.110000e+00
 SP3aq  TX3q  1 3.650000e-01    2.110000e+00
 SP3aq  TX2q  1 3.650000e-01    1.910000e+00
 SP3aq  TX1q  1 3.650000e-01    1.750000e+00
 SP2aq  TP1q  1 3.650000e-01    3.100000e+00
 SP2aq  TN6q  1 3.650000e-01    3.100000e+00
 SP2aq  TN5q  1 3.650000e-01    2.830000e+00
 SP2aq  TN4q  1 3.650000e-01    2.570000e+00
 SP2aq  TN3q  1 3.650000e-01    2.340000e+00
 SP2aq  TN2q  1 3.650000e-01    2.340000e+00
 SP2aq  TN1q  1 3.650000e-01    2.340000e+00
 SP2aq  TC6q  1 3.650000e-01    2.110000e+00
 SP2aq  TC5q  1 3.650000e-01    1.910000e+00
 SP2aq  TC4q  1 3.650000e-01    1.750000e+00
 SP2aq  TC3q  1 3.660000e-01    1.600000e+00
 SP2aq  TC2q  1 3.660000e-01    1.600000e+00
 SP2aq  TC1q  1 3.780000e-01    1.450000e+00
 SP2aq  TX4q  1 3.650000e-01    2.110000e+00
 SP2aq  TX3q  1 3.650000e-01    2.110000e+00
 SP2aq  TX2q  1 3.650000e-01    1.910000e+00
 SP2aq  TX1q  1 3.650000e-01    1.750000e+00
 SP1aq  TN6q  1 3.650000e-01    3.100000e+00
 SP1aq  TN5q  1 3.650000e-01    2.830000e+00
 SP1aq  TN4q  1 3.650000e-01    2.830000e+00
 SP1aq  TN3q  1 3.650000e-01    2.340000e+00
 SP1aq  TN2q  1 3.650000e-01    2.340000e+00
 SP1aq  TN1q  1 3.650000e-01    2.340000e+00
 SP1aq  TC6q  1 3.650000e-01    2.110000e+00
 SP1aq  TC5q  1 3.650000e-01    1.910000e+00
 SP1aq  TC4q  1 3.650000e-01    1.750000e+00
 SP1aq  TC3q  1 3.660000e-01    1.600000e+00
 SP1aq  TC2q  1 3.660000e-01    1.600000e+00
 SP1aq  TC1q  1 3.780000e-01    1.450000e+00
 SP1aq  TX4q  1 3.650000e-01    2.110000e+00
 SP1aq  TX3q  1 3.650000e-01    2.110000e+00
 SP1aq  TX2q  1 3.650000e-01    1.910000e+00
 SP1aq  TX1q  1 3.650000e-01    1.750000e+00
 SN6aq  TN5q  1 3.650000e-01    3.100000e+00
 SN6aq  TN4q  1 3.650000e-01    3.100000e+00
 SN6aq  TN3q  1 3.650000e-01    2.570000e+00
 SN6aq  TN2q  1 3.650000e-01    2.340000e+00
 SN6aq  TN1q  1 3.650000e-01    2.340000e+00
 SN6aq  TC6q  1 3.650000e-01    2.340000e+00
 SN6aq  TC5q  1 3.650000e-01    2.110000e+00
 SN6aq  TC4q  1 3.650000e-01    1.910000e+00
 SN6aq  TC3q  1 3.650000e-01    1.750000e+00
 SN6aq  TC2q  1 3.650000e-01    1.750000e+00
 SN6aq  TC1q  1 3.660000e-01    1.600000e+00
 SN6aq  TX4q  1 3.650000e-01    2.340000e+00
 SN6aq  TX3q  1 3.650000e-01    2.110000e+00
 SN6aq  TX2q  1 3.650000e-01    1.910000e+00
 SN6aq  TX1q  1 3.650000e-01    1.750000e+00
 SN5aq  TN4q  1 3.650000e-01    2.830000e+00
 SN5aq  TN3q  1 3.650000e-01    2.570000e+00
 SN5aq  TN2q  1 3.650000e-01    2.570000e+00
 SN5aq  TN1q  1 3.650000e-01    2.340000e+00
 SN5aq  TC6q  1 3.650000e-01    2.340000e+00
 SN5aq  TC5q  1 3.650000e-01    2.110000e+00
 SN5aq  TC4q  1 3.650000e-01    1.910000e+00
 SN5aq  TC3q  1 3.650000e-01    1.910000e+00
 SN5aq  TC2q  1 3.650000e-01    1.750000e+00
 SN5aq  TC1q  1 3.660000e-01    1.600000e+00
 SN5aq  TX4q  1 3.650000e-01    2.570000e+00
 SN5aq  TX3q  1 3.650000e-01    2.340000e+00
 SN5aq  TX2q  1 3.650000e-01    2.110000e+00
 SN5aq  TX1q  1 3.650000e-01    1.910000e+00
 SN4aq  TN3q  1 3.650000e-01    2.570000e+00
 SN4aq  TN2q  1 3.650000e-01    2.570000e+00
 SN4aq  TN1q  1 3.650000e-01    2.340000e+00
 SN4aq  TC6q  1 3.650000e-01    2.340000e+00
 SN4aq  TC5q  1 3.650000e-01    2.110000e+00
 SN4aq  TC4q  1 3.650000e-01    2.110000e+00
 SN4aq  TC3q  1 3.650000e-01    1.910000e+00
 SN4aq  TC2q  1 3.650000e-01    1.750000e+00
 SN4aq  TC1q  1 3.660000e-01    1.600000e+00
 SN4aq  TX4q  1 3.650000e-01    2.830000e+00
 SN4aq  TX3q  1 3.650000e-01    2.570000e+00
 SN4aq  TX2q  1 3.650000e-01    2.110000e+00
 SN4aq  TX1q  1 3.650000e-01    1.910000e+00
 SN3aq  TN2q  1 3.650000e-01    2.570000e+00
 SN3aq  TN1q  1 3.650000e-01    2.340000e+00
 SN3aq  TC6q  1 3.650000e-01    2.340000e+00
 SN3aq  TC5q  1 3.650000e-01    2.110000e+00
 SN3aq  TC4q  1 3.650000e-01    2.110000e+00
 SN3aq  TC3q  1 3.650000e-01    1.910000e+00
 SN3aq  TC2q  1 3.650000e-01    1.910000e+00
 SN3aq  TC1q  1 3.650000e-01    1.750000e+00
 SN3aq  TX4q  1 3.650000e-01    2.570000e+00
 SN3aq  TX3q  1 3.650000e-01    2.340000e+00
 SN3aq  TX2q  1 3.650000e-01    2.110000e+00
 SN3aq  TX1q  1 3.650000e-01    2.110000e+00
 SN2aq  TN1q  1 3.650000e-01    2.340000e+00
 SN2aq  TC6q  1 3.650000e-01    2.340000e+00
 SN2aq  TC5q  1 3.650000e-01    2.110000e+00
 SN2aq  TC4q  1 3.650000e-01    2.110000e+00
 SN2aq  TC3q  1 3.650000e-01    2.110000e+00
 SN2aq  TC2q  1 3.650000e-01    1.910000e+00
 SN2aq  TC1q  1 3.650000e-01    1.750000e+00
 SN2aq  TX4q  1 3.650000e-01    2.570000e+00
 SN2aq  TX3q  1 3.650000e-01    2.340000e+00
 SN2aq  TX2q  1 3.650000e-01    2.110000e+00
 SN2aq  TX1q  1 3.650000e-01    2.110000e+00
 SN1aq  TC6q  1 3.650000e-01    2.570000e+00
 SN1aq  TC5q  1 3.650000e-01    2.340000e+00
 SN1aq  TC4q  1 3.650000e-01    2.340000e+00
 SN1aq  TC3q  1 3.650000e-01    2.110000e+00
 SN1aq  TC2q  1 3.650000e-01    1.910000e+00
 SN1aq  TC1q  1 3.650000e-01    1.750000e+00
 SN1aq  TX4q  1 3.650000e-01    2.340000e+00
 SN1aq  TX3q  1 3.650000e-01    2.340000e+00
 SN1aq  TX2q  1 3.650000e-01    2.110000e+00
 SN1aq  TX1q  1 3.650000e-01    2.110000e+00
 SC6vq  TC5q  1 3.650000e-01    2.570000e+00
 SC6vq  TC4q  1 3.650000e-01    2.570000e+00
 SC6vq  TC3q  1 3.650000e-01    2.340000e+00
 SC6vq  TC2q  1 3.650000e-01    2.110000e+00
 SC6vq  TC1q  1 3.650000e-01    1.910000e+00
 SC6vq  TX4q  1 3.650000e-01    2.570000e+00
 SC6vq  TX3q  1 3.650000e-01    2.570000e+00
 SC6vq  TX2q  1 3.650000e-01    2.570000e+00
 SC6vq  TX1q  1 3.650000e-01    2.570000e+00
 SC5vq  TC4q  1 3.650000e-01    2.570000e+00
 SC5vq  TC3q  1 3.650000e-01    2.340000e+00
 SC5vq  TC2q  1 3.650000e-01    2.110000e+00
 SC5vq  TC1q  1 3.650000e-01    2.110000e+00
 SC5vq  TX4q  1 3.650000e-01    2.340000e+00
 SC5vq  TX3q  1 3.650000e-01    2.340000e+00
 SC5vq  TX2q  1 3.650000e-01    2.340000e+00
 SC5vq  TX1q  1 3.650000e-01    2.570000e+00
 SC4vq  TC3q  1 3.650000e-01    2.570000e+00
 SC4vq  TC2q  1 3.650000e-01    2.340000e+00
 SC4vq  TC1q  1 3.650000e-01    2.110000e+00
 SC4vq  TX4q  1 3.650000e-01    2.340000e+00
 SC4vq  TX3q  1 3.650000e-01    2.340000e+00
 SC4vq  TX2q  1 3.650000e-01    2.340000e+00
 SC4vq  TX1q  1 3.650000e-01    2.570000e+00
 SC3vq  TC2q  1 3.650000e-01    2.570000e+00
 SC3vq  TC1q  1 3.650000e-01    2.570000e+00
 SC3vq  TX4q  1 3.650000e-01    2.340000e+00
 SC3vq  TX3q  1 3.650000e-01    2.340000e+00
 SC3vq  TX2q  1 3.650000e-01    2.340000e+00
 SC3vq  TX1q  1 3.650000e-01    2.570000e+00
 SC2vq  TC1q  1 3.650000e-01    2.830000e+00
 SC2vq  TX4q  1 3.650000e-01    1.910000e+00
 SC2vq  TX3q  1 3.650000e-01    2.340000e+00
 SC2vq  TX2q  1 3.650000e-01    2.340000e+00
 SC2vq  TX1q  1 3.650000e-01    2.340000e+00
 SC1vq  TX4q  1 3.650000e-01    1.910000e+00
 SC1vq  TX3q  1 3.650000e-01    2.340000e+00
 SC1vq  TX2q  1 3.650000e-01    2.340000e+00
 SC1vq  TX1q  1 3.650000e-01    2.340000e+00
 SX4vq  TX3q  1 3.650000e-01    2.570000e+00
 SX4vq  TX2q  1 3.650000e-01    2.570000e+00
 SX4vq  TX1q  1 3.650000e-01    2.570000e+00
 SX3vq  TX2q  1 3.650000e-01    2.830000e+00
 SX3vq  TX1q  1 3.650000e-01    2.830000e+00
 SX2vq  TX1q  1 3.650000e-01    2.830000e+00
 SC6eq  TC5q  1 3.650000e-01    2.570000e+00
 SC6eq  TC4q  1 3.650000e-01    2.570000e+00
 SC6eq  TC3q  1 3.650000e-01    2.340000e+00
 SC6eq  TC2q  1 3.650000e-01    2.110000e+00
 SC6eq  TC1q  1 3.650000e-01    1.910000e+00
 SC6eq  TX4q  1 3.650000e-01    2.570000e+00
 SC6eq  TX3q  1 3.650000e-01    2.570000e+00
 SC6eq  TX2q  1 3.650000e-01    2.570000e+00
 SC6eq  TX1q  1 3.650000e-01    2.570000e+00
 SC5eq  TC4q  1 3.650000e-01    2.570000e+00
 SC5eq  TC3q  1 3.650000e-01    2.340000e+00
 SC5eq  TC2q  1 3.650000e-01    2.110000e+00
 SC5eq  TC1q  1 3.650000e-01    2.110000e+00
 SC5eq  TX4q  1 3.650000e-01    2.340000e+00
 SC5eq  TX3q  1 3.650000e-01    2.340000e+00
 SC5eq  TX2q  1 3.650000e-01    2.340000e+00
 SC5eq  TX1q  1 3.650000e-01    2.570000e+00
 SC4eq  TC3q  1 3.650000e-01    2.570000e+00
 SC4eq  TC2q  1 3.650000e-01    2.340000e+00
 SC4eq  TC1q  1 3.650000e-01    2.110000e+00
 SC4eq  TX4q  1 3.650000e-01    2.340000e+00
 SC4eq  TX3q  1 3.650000e-01    2.340000e+00
 SC4eq  TX2q  1 3.650000e-01    2.340000e+00
 SC4eq  TX1q  1 3.650000e-01    2.570000e+00
 SC3eq  TC2q  1 3.650000e-01    2.570000e+00
 SC3eq  TC1q  1 3.650000e-01    2.570000e+00
 SC3eq  TX4q  1 3.650000e-01    2.340000e+00
 SC3eq  TX3q  1 3.650000e-01    2.340000e+00
 SC3eq  TX2q  1 3.650000e-01    2.340000e+00
 SC3eq  TX1q  1 3.650000e-01    2.570000e+00
 SC2eq  TC1q  1 3.650000e-01    2.830000e+00
 SC2eq  TX4q  1 3.650000e-01    1.910000e+00
 SC2eq  TX3q  1 3.650000e-01    2.340000e+00
 SC2eq  TX2q  1 3.650000e-01    2.340000e+00
 SC2eq  TX1q  1 3.650000e-01    2.340000e+00
 SC1eq  TX4q  1 3.650000e-01    1.910000e+00
 SC1eq  TX3q  1 3.650000e-01    2.340000e+00
 SC1eq  TX2q  1 3.650000e-01    2.340000e+00
 SC1eq  TX1q  1 3.650000e-01    2.340000e+00
 SX4eq  TX3q  1 3.650000e-01    2.570000e+00
 SX4eq  TX2q  1 3.650000e-01    2.570000e+00
 SX4eq  TX1q  1 3.650000e-01    2.570000e+00
 SX3eq  TX2q  1 3.650000e-01    2.830000e+00
 SX3eq  TX1q  1 3.650000e-01    2.830000e+00
 SX2eq  TX1q  1 3.650000e-01    2.830000e+00
 SP6aq  TP5h  1 3.650000e-01    4.220000e+00
 SP6dq  TP5h  1 3.650000e-01    4.220000e+00
 SP5aq  TP4h  1 3.650000e-01    3.640000e+00
 SP6aq  TP4h  1 3.650000e-01    3.930000e+00
 SP5dq  TP4h  1 3.650000e-01    3.640000e+00
 SP6dq  TP4h  1 3.650000e-01    3.930000e+00
 SP4aq  TP3h  1 3.650000e-01    3.370000e+00
 SP5aq  TP3h  1 3.650000e-01    3.370000e+00
 SP6aq  TP3h  1 3.650000e-01    3.640000e+00
 SP4dq  TP3h  1 3.650000e-01    3.370000e+00
 SP5dq  TP3h  1 3.650000e-01    3.370000e+00
 SP6dq  TP3h  1 3.650000e-01    3.640000e+00
 SP3aq  TP2h  1 3.650000e-01    3.370000e+00
 SP4aq  TP2h  1 3.650000e-01    3.370000e+00
 SP5aq  TP2h  1 3.650000e-01    3.370000e+00
 SP6aq  TP2h  1 3.650000e-01    3.640000e+00
 SP3dq  TP2h  1 3.650000e-01    3.370000e+00
 SP4dq  TP2h  1 3.650000e-01    3.370000e+00
 SP5dq  TP2h  1 3.650000e-01    3.370000e+00
 SP6dq  TP2h  1 3.650000e-01    3.640000e+00
 SP2aq  TP1h  1 3.650000e-01    3.100000e+00
 SP3aq  TP1h  1 3.650000e-01    3.100000e+00
 SP4aq  TP1h  1 3.650000e-01    3.100000e+00
 SP5aq  TP1h  1 3.650000e-01    3.100000e+00
 SP6aq  TP1h  1 3.650000e-01    3.370000e+00
 SP2dq  TP1h  1 3.650000e-01    3.100000e+00
 SP3dq  TP1h  1 3.650000e-01    3.100000e+00
 SP4dq  TP1h  1 3.650000e-01    3.100000e+00
 SP5dq  TP1h  1 3.650000e-01    3.100000e+00
 SP6dq  TP1h  1 3.650000e-01    3.370000e+00
 SP1aq  TN6h  1 3.650000e-01    3.100000e+00
 SP2aq  TN6h  1 3.650000e-01    3.100000e+00
 SP3aq  TN6h  1 3.650000e-01    2.830000e+00
 SP4aq  TN6h  1 3.650000e-01    2.830000e+00
 SP5aq  TN6h  1 3.650000e-01    2.830000e+00
 SP6aq  TN6h  1 3.650000e-01    3.100000e+00
 SP1dq  TN6h  1 3.650000e-01    3.100000e+00
 SP2dq  TN6h  1 3.650000e-01    3.100000e+00
 SP3dq  TN6h  1 3.650000e-01    2.830000e+00
 SP4dq  TN6h  1 3.650000e-01    2.830000e+00
 SP5dq  TN6h  1 3.650000e-01    2.830000e+00
 SP6dq  TN6h  1 3.650000e-01    3.100000e+00
 SN6aq  TN5h  1 3.650000e-01    3.100000e+00
 SP1aq  TN5h  1 3.650000e-01    2.830000e+00
 SP2aq  TN5h  1 3.650000e-01    2.830000e+00
 SP3aq  TN5h  1 3.650000e-01    2.570000e+00
 SP4aq  TN5h  1 3.650000e-01    2.570000e+00
 SP5aq  TN5h  1 3.650000e-01    2.570000e+00
 SP6aq  TN5h  1 3.650000e-01    2.570000e+00
 SN6dq  TN5h  1 3.650000e-01    3.100000e+00
 SP1dq  TN5h  1 3.650000e-01    2.830000e+00
 SP2dq  TN5h  1 3.650000e-01    2.830000e+00
 SP3dq  TN5h  1 3.650000e-01    2.570000e+00
 SP4dq  TN5h  1 3.650000e-01    2.570000e+00
 SP5dq  TN5h  1 3.650000e-01    2.570000e+00
 SP6dq  TN5h  1 3.650000e-01    2.570000e+00
 SN5aq  TN4h  1 3.650000e-01    2.830000e+00
 SN6aq  TN4h  1 3.650000e-01    3.100000e+00
 SP1aq  TN4h  1 3.650000e-01    2.830000e+00
 SP2aq  TN4h  1 3.650000e-01    2.570000e+00
 SP3aq  TN4h  1 3.650000e-01    2.570000e+00
 SP4aq  TN4h  1 3.650000e-01    2.570000e+00
 SP5aq  TN4h  1 3.650000e-01    2.570000e+00
 SP6aq  TN4h  1 3.650000e-01    2.340000e+00
 SN5dq  TN4h  1 3.650000e-01    2.830000e+00
 SN6dq  TN4h  1 3.650000e-01    3.100000e+00
 SP1dq  TN4h  1 3.650000e-01    2.830000e+00
 SP2dq  TN4h  1 3.650000e-01    2.570000e+00
 SP3dq  TN4h  1 3.650000e-01    2.570000e+00
 SP4dq  TN4h  1 3.650000e-01    2.570000e+00
 SP5dq  TN4h  1 3.650000e-01    2.570000e+00
 SP6dq  TN4h  1 3.650000e-01    2.340000e+00
 SN4aq  TN3h  1 3.650000e-01    2.570000e+00
 SN5aq  TN3h  1 3.650000e-01    2.570000e+00
 SN6aq  TN3h  1 3.650000e-01    2.570000e+00
 SP1aq  TN3h  1 3.650000e-01    2.340000e+00
 SP2aq  TN3h  1 3.650000e-01    2.340000e+00
 SP3aq  TN3h  1 3.650000e-01    2.340000e+00
 SP4aq  TN3h  1 3.650000e-01    2.340000e+00
 SP5aq  TN3h  1 3.650000e-01    2.110000e+00
 SP6aq  TN3h  1 3.650000e-01    2.110000e+00
 SN4dq  TN3h  1 3.650000e-01    2.570000e+00
 SN5dq  TN3h  1 3.650000e-01    2.570000e+00
 SN6dq  TN3h  1 3.650000e-01    2.570000e+00
 SP1dq  TN3h  1 3.650000e-01    2.340000e+00
 SP2dq  TN3h  1 3.650000e-01    2.340000e+00
 SP3dq  TN3h  1 3.650000e-01    2.340000e+00
 SP4dq  TN3h  1 3.650000e-01    2.340000e+00
 SP5dq  TN3h  1 3.650000e-01    2.110000e+00
 SP6dq  TN3h  1 3.650000e-01    2.110000e+00
 SN3aq  TN2h  1 3.650000e-01    2.570000e+00
 SN4aq  TN2h  1 3.650000e-01    2.570000e+00
 SN5aq  TN2h  1 3.650000e-01    2.570000e+00
 SN6aq  TN2h  1 3.650000e-01    2.340000e+00
 SP1aq  TN2h  1 3.650000e-01    2.340000e+00
 SP2aq  TN2h  1 3.650000e-01    2.340000e+00
 SP3aq  TN2h  1 3.650000e-01    2.340000e+00
 SP4aq  TN2h  1 3.650000e-01    2.110000e+00
 SP5aq  TN2h  1 3.650000e-01    1.910000e+00
 SP6aq  TN2h  1 3.650000e-01    1.910000e+00
 SN3dq  TN2h  1 3.650000e-01    2.570000e+00
 SN4dq  TN2h  1 3.650000e-01    2.570000e+00
 SN5dq  TN2h  1 3.650000e-01    2.570000e+00
 SN6dq  TN2h  1 3.650000e-01    2.340000e+00
 SP1dq  TN2h  1 3.650000e-01    2.340000e+00
 SP2dq  TN2h  1 3.650000e-01    2.340000e+00
 SP3dq  TN2h  1 3.650000e-01    2.340000e+00
 SP4dq  TN2h  1 3.650000e-01    2.110000e+00
 SP5dq  TN2h  1 3.650000e-01    1.910000e+00
 SP6dq  TN2h  1 3.650000e-01    1.910000e+00
 SN2aq  TN1h  1 3.650000e-01    2.340000e+00
 SN3aq  TN1h  1 3.650000e-01    2.340000e+00
 SN4aq  TN1h  1 3.650000e-01    2.340000e+00
 SN5aq  TN1h  1 3.650000e-01    2.340000e+00
 SN6aq  TN1h  1 3.650000e-01    2.340000e+00
 SP1aq  TN1h  1 3.650000e-01    2.340000e+00
 SP2aq  TN1h  1 3.650000e-01    2.340000e+00
 SP3aq  TN1h  1 3.650000e-01    2.110000e+00
 SP4aq  TN1h  1 3.650000e-01    1.910000e+00
 SP5aq  TN1h  1 3.650000e-01    1.750000e+00
 SP6aq  TN1h  1 3.650000e-01    1.750000e+00
 SN2dq  TN1h  1 3.650000e-01    2.340000e+00
 SN3dq  TN1h  1 3.650000e-01    2.340000e+00
 SN4dq  TN1h  1 3.650000e-01    2.340000e+00
 SN5dq  TN1h  1 3.650000e-01    2.340000e+00
 SN6dq  TN1h  1 3.650000e-01    2.340000e+00
 SP1dq  TN1h  1 3.650000e-01    2.340000e+00
 SP2dq  TN1h  1 3.650000e-01    2.340000e+00
 SP3dq  TN1h  1 3.650000e-01    2.110000e+00
 SP4dq  TN1h  1 3.650000e-01    1.910000e+00
 SP5dq  TN1h  1 3.650000e-01    1.750000e+00
 SP6dq  TN1h  1 3.650000e-01    1.750000e+00
 SN1aq  TC6h  1 3.650000e-01    2.570000e+00
 SN2aq  TC6h  1 3.650000e-01    2.340000e+00
 SN3aq  TC6h  1 3.650000e-01    2.340000e+00
 SN4aq  TC6h  1 3.650000e-01    2.340000e+00
 SN5aq  TC6h  1 3.650000e-01    2.340000e+00
 SN6aq  TC6h  1 3.650000e-01    2.340000e+00
 SP1aq  TC6h  1 3.650000e-01    2.110000e+00
 SP2aq  TC6h  1 3.650000e-01    2.110000e+00
 SP3aq  TC6h  1 3.650000e-01    2.110000e+00
 SP4aq  TC6h  1 3.650000e-01    1.910000e+00
 SP5aq  TC6h  1 3.650000e-01    1.750000e+00
 SP6aq  TC6h  1 3.650000e-01    1.750000e+00
 SN1dq  TC6h  1 3.650000e-01    2.570000e+00
 SN2dq  TC6h  1 3.650000e-01    2.340000e+00
 SN3dq  TC6h  1 3.650000e-01    2.340000e+00
 SN4dq  TC6h  1 3.650000e-01    2.340000e+00
 SN5dq  TC6h  1 3.650000e-01    2.340000e+00
 SN6dq  TC6h  1 3.650000e-01    2.340000e+00
 SP1dq  TC6h  1 3.650000e-01    2.110000e+00
 SP2dq  TC6h  1 3.650000e-01    2.110000e+00
 SP3dq  TC6h  1 3.650000e-01    2.110000e+00
 SP4dq  TC6h  1 3.650000e-01    1.910000e+00
 SP5dq  TC6h  1 3.650000e-01    1.750000e+00
 SP6dq  TC6h  1 3.650000e-01    1.750000e+00
 SC6eq  TC5h  1 3.650000e-01    2.570000e+00
 SC6vq  TC5h  1 3.650000e-01    2.570000e+00
 SN1aq  TC5h  1 3.650000e-01    2.340000e+00
 SN2aq  TC5h  1 3.650000e-01    2.110000e+00
 SN3aq  TC5h  1 3.650000e-01    2.110000e+00
 SN4aq  TC5h  1 3.650000e-01    2.110000e+00
 SN5aq  TC5h  1 3.650000e-01    2.110000e+00
 SN6aq  TC5h  1 3.650000e-01    2.110000e+00
 SP1aq  TC5h  1 3.650000e-01    1.910000e+00
 SP2aq  TC5h  1 3.650000e-01    1.910000e+00
 SP3aq  TC5h  1 3.650000e-01    1.910000e+00
 SP4aq  TC5h  1 3.650000e-01    1.750000e+00
 SP5aq  TC5h  1 3.650000e-01    1.750000e+00
 SP6aq  TC5h  1 3.660000e-01    1.600000e+00
 SN1dq  TC5h  1 3.650000e-01    2.340000e+00
 SN2dq  TC5h  1 3.650000e-01    2.110000e+00
 SN3dq  TC5h  1 3.650000e-01    2.110000e+00
 SN4dq  TC5h  1 3.650000e-01    2.110000e+00
 SN5dq  TC5h  1 3.650000e-01    2.110000e+00
 SN6dq  TC5h  1 3.650000e-01    2.110000e+00
 SP1dq  TC5h  1 3.650000e-01    1.910000e+00
 SP2dq  TC5h  1 3.650000e-01    1.910000e+00
 SP3dq  TC5h  1 3.650000e-01    1.910000e+00
 SP4dq  TC5h  1 3.650000e-01    1.750000e+00
 SP5dq  TC5h  1 3.650000e-01    1.750000e+00
 SP6dq  TC5h  1 3.660000e-01    1.600000e+00
 SC5eq  TC4h  1 3.650000e-01    2.570000e+00
 SC6eq  TC4h  1 3.650000e-01    2.570000e+00
 SC5vq  TC4h  1 3.650000e-01    2.570000e+00
 SC6vq  TC4h  1 3.650000e-01    2.570000e+00
 SN1aq  TC4h  1 3.650000e-01    2.340000e+00
 SN2aq  TC4h  1 3.650000e-01    2.110000e+00
 SN3aq  TC4h  1 3.650000e-01    2.110000e+00
 SN4aq  TC4h  1 3.650000e-01    2.110000e+00
 SN5aq  TC4h  1 3.650000e-01    1.910000e+00
 SN6aq  TC4h  1 3.650000e-01    1.910000e+00
 SP1aq  TC4h  1 3.650000e-01    1.750000e+00
 SP2aq  TC4h  1 3.650000e-01    1.750000e+00
 SP3aq  TC4h  1 3.650000e-01    1.750000e+00
 SP4aq  TC4h  1 3.660000e-01    1.600000e+00
 SP5aq  TC4h  1 3.660000e-01    1.600000e+00
 SP6aq  TC4h  1 3.780000e-01    1.450000e+00
 SN1dq  TC4h  1 3.650000e-01    2.340000e+00
 SN2dq  TC4h  1 3.650000e-01    2.110000e+00
 SN3dq  TC4h  1 3.650000e-01    2.110000e+00
 SN4dq  TC4h  1 3.650000e-01    2.110000e+00
 SN5dq  TC4h  1 3.650000e-01    1.910000e+00
 SN6dq  TC4h  1 3.650000e-01    1.910000e+00
 SP1dq  TC4h  1 3.650000e-01    1.750000e+00
 SP2dq  TC4h  1 3.650000e-01    1.750000e+00
 SP3dq  TC4h  1 3.650000e-01    1.750000e+00
 SP4dq  TC4h  1 3.660000e-01    1.600000e+00
 SP5dq  TC4h  1 3.660000e-01    1.600000e+00
 SP6dq  TC4h  1 3.780000e-01    1.450000e+00
 SC4eq  TC3h  1 3.650000e-01    2.570000e+00
 SC5eq  TC3h  1 3.650000e-01    2.340000e+00
 SC6eq  TC3h  1 3.650000e-01    2.340000e+00
 SC4vq  TC3h  1 3.650000e-01    2.570000e+00
 SC5vq  TC3h  1 3.650000e-01    2.340000e+00
 SC6vq  TC3h  1 3.650000e-01    2.340000e+00
 SN1aq  TC3h  1 3.650000e-01    2.110000e+00
 SN2aq  TC3h  1 3.650000e-01    2.110000e+00
 SN3aq  TC3h  1 3.650000e-01    1.910000e+00
 SN4aq  TC3h  1 3.650000e-01    1.910000e+00
 SN5aq  TC3h  1 3.650000e-01    1.910000e+00
 SN6aq  TC3h  1 3.650000e-01    1.750000e+00
 SP1aq  TC3h  1 3.660000e-01    1.600000e+00
 SP2aq  TC3h  1 3.660000e-01    1.600000e+00
 SP3aq  TC3h  1 3.780000e-01    1.450000e+00
 SP4aq  TC3h  1 3.780000e-01    1.450000e+00
 SP5aq  TC3h  1 3.780000e-01    1.450000e+00
 SP6aq  TC3h  1 3.940000e-01    1.290000e+00
 SN1dq  TC3h  1 3.650000e-01    2.110000e+00
 SN2dq  TC3h  1 3.650000e-01    2.110000e+00
 SN3dq  TC3h  1 3.650000e-01    1.910000e+00
 SN4dq  TC3h  1 3.650000e-01    1.910000e+00
 SN5dq  TC3h  1 3.650000e-01    1.910000e+00
 SN6dq  TC3h  1 3.650000e-01    1.750000e+00
 SP1dq  TC3h  1 3.660000e-01    1.600000e+00
 SP2dq  TC3h  1 3.660000e-01    1.600000e+00
 SP3dq  TC3h  1 3.780000e-01    1.450000e+00
 SP4dq  TC3h  1 3.780000e-01    1.450000e+00
 SP5dq  TC3h  1 3.780000e-01    1.450000e+00
 SP6dq  TC3h  1 3.940000e-01    1.290000e+00
 SC3eq  TC2h  1 3.650000e-01    2.570000e+00
 SC4eq  TC2h  1 3.650000e-01    2.340000e+00
 SC5eq  TC2h  1 3.650000e-01    2.110000e+00
 SC6eq  TC2h  1 3.650000e-01    2.110000e+00
 SC3vq  TC2h  1 3.650000e-01    2.570000e+00
 SC4vq  TC2h  1 3.650000e-01    2.340000e+00
 SC5vq  TC2h  1 3.650000e-01    2.110000e+00
 SC6vq  TC2h  1 3.650000e-01    2.110000e+00
 SN1aq  TC2h  1 3.650000e-01    1.910000e+00
 SN2aq  TC2h  1 3.650000e-01    1.910000e+00
 SN3aq  TC2h  1 3.650000e-01    1.910000e+00
 SN4aq  TC2h  1 3.650000e-01    1.750000e+00
 SN5aq  TC2h  1 3.650000e-01    1.750000e+00
 SN6aq  TC2h  1 3.650000e-01    1.750000e+00
 SP1aq  TC2h  1 3.660000e-01    1.600000e+00
 SP2aq  TC2h  1 3.660000e-01    1.600000e+00
 SP3aq  TC2h  1 3.780000e-01    1.450000e+00
 SP4aq  TC2h  1 3.780000e-01    1.450000e+00
 SP5aq  TC2h  1 3.780000e-01    1.450000e+00
 SP6aq  TC2h  1 3.940000e-01    1.290000e+00
 SN1dq  TC2h  1 3.650000e-01    1.910000e+00
 SN2dq  TC2h  1 3.650000e-01    1.910000e+00
 SN3dq  TC2h  1 3.650000e-01    1.910000e+00
 SN4dq  TC2h  1 3.650000e-01    1.750000e+00
 SN5dq  TC2h  1 3.650000e-01    1.750000e+00
 SN6dq  TC2h  1 3.650000e-01    1.750000e+00
 SP1dq  TC2h  1 3.660000e-01    1.600000e+00
 SP2dq  TC2h  1 3.660000e-01    1.600000e+00
 SP3dq  TC2h  1 3.780000e-01    1.450000e+00
 SP4dq  TC2h  1 3.780000e-01    1.450000e+00
 SP5dq  TC2h  1 3.780000e-01    1.450000e+00
 SP6dq  TC2h  1 3.940000e-01    1.290000e+00
 SC2eq  TC1h  1 3.650000e-01    2.830000e+00
 SC3eq  TC1h  1 3.650000e-01    2.570000e+00
 SC4eq  TC1h  1 3.650000e-01    2.110000e+00
 SC5eq  TC1h  1 3.650000e-01    2.110000e+00
 SC6eq  TC1h  1 3.650000e-01    1.910000e+00
 SC2vq  TC1h  1 3.650000e-01    2.830000e+00
 SC3vq  TC1h  1 3.650000e-01    2.570000e+00
 SC4vq  TC1h  1 3.650000e-01    2.110000e+00
 SC5vq  TC1h  1 3.650000e-01    2.110000e+00
 SC6vq  TC1h  1 3.650000e-01    1.910000e+00
 SN1aq  TC1h  1 3.650000e-01    1.750000e+00
 SN2aq  TC1h  1 3.650000e-01    1.750000e+00
 SN3aq  TC1h  1 3.650000e-01    1.750000e+00
 SN4aq  TC1h  1 3.660000e-01    1.600000e+00
 SN5aq  TC1h  1 3.660000e-01    1.600000e+00
 SN6aq  TC1h  1 3.660000e-01    1.600000e+00
 SP1aq  TC1h  1 3.780000e-01    1.450000e+00
 SP2aq  TC1h  1 3.780000e-01    1.450000e+00
 SP3aq  TC1h  1 3.940000e-01    1.290000e+00
 SP4aq  TC1h  1 3.940000e-01    1.290000e+00
 SP5aq  TC1h  1 3.940000e-01    1.290000e+00
 SP6aq  TC1h  1 4.090000e-01    1.080000e+00
 SN1dq  TC1h  1 3.650000e-01    1.750000e+00
 SN2dq  TC1h  1 3.650000e-01    1.750000e+00
 SN3dq  TC1h  1 3.650000e-01    1.750000e+00
 SN4dq  TC1h  1 3.660000e-01    1.600000e+00
 SN5dq  TC1h  1 3.660000e-01    1.600000e+00
 SN6dq  TC1h  1 3.660000e-01    1.600000e+00
 SP1dq  TC1h  1 3.780000e-01    1.450000e+00
 SP2dq  TC1h  1 3.780000e-01    1.450000e+00
 SP3dq  TC1h  1 3.940000e-01    1.290000e+00
 SP4dq  TC1h  1 3.940000e-01    1.290000e+00
 SP5dq  TC1h  1 3.940000e-01    1.290000e+00
 SP6dq  TC1h  1 4.090000e-01    1.080000e+00
 SC1eq  TX4h  1 3.650000e-01    1.910000e+00
 SC2eq  TX4h  1 3.650000e-01    1.910000e+00
 SC3eq  TX4h  1 3.650000e-01    2.340000e+00
 SC4eq  TX4h  1 3.650000e-01    2.340000e+00
 SC5eq  TX4h  1 3.650000e-01    2.340000e+00
 SC6eq  TX4h  1 3.650000e-01    2.570000e+00
 SC1vq  TX4h  1 3.650000e-01    1.910000e+00
 SC2vq  TX4h  1 3.650000e-01    1.910000e+00
 SC3vq  TX4h  1 3.650000e-01    2.340000e+00
 SC4vq  TX4h  1 3.650000e-01    2.340000e+00
 SC5vq  TX4h  1 3.650000e-01    2.340000e+00
 SC6vq  TX4h  1 3.650000e-01    2.570000e+00
 SN1aq  TX4h  1 3.650000e-01    2.340000e+00
 SN2aq  TX4h  1 3.650000e-01    2.570000e+00
 SN3aq  TX4h  1 3.650000e-01    2.570000e+00
 SN4aq  TX4h  1 3.650000e-01    2.830000e+00
 SN5aq  TX4h  1 3.650000e-01    2.570000e+00
 SN6aq  TX4h  1 3.650000e-01    2.340000e+00
 SP1aq  TX4h  1 3.650000e-01    2.110000e+00
 SP2aq  TX4h  1 3.650000e-01    2.110000e+00
 SP3aq  TX4h  1 3.650000e-01    2.110000e+00
 SP4aq  TX4h  1 3.650000e-01    2.110000e+00
 SP5aq  TX4h  1 3.650000e-01    2.110000e+00
 SP6aq  TX4h  1 3.650000e-01    1.910000e+00
 SN1dq  TX4h  1 3.650000e-01    2.340000e+00
 SN2dq  TX4h  1 3.650000e-01    2.570000e+00
 SN3dq  TX4h  1 3.650000e-01    2.570000e+00
 SN4dq  TX4h  1 3.650000e-01    2.830000e+00
 SN5dq  TX4h  1 3.650000e-01    2.570000e+00
 SN6dq  TX4h  1 3.650000e-01    2.340000e+00
 SP1dq  TX4h  1 3.650000e-01    2.110000e+00
 SP2dq  TX4h  1 3.650000e-01    2.110000e+00
 SP3dq  TX4h  1 3.650000e-01    2.110000e+00
 SP4dq  TX4h  1 3.650000e-01    2.110000e+00
 SP5dq  TX4h  1 3.650000e-01    2.110000e+00
 SP6dq  TX4h  1 3.650000e-01    1.910000e+00
 SX4eq  TX3h  1 3.650000e-01    2.570000e+00
 SC1eq  TX3h  1 3.650000e-01    2.340000e+00
 SC2eq  TX3h  1 3.650000e-01    2.340000e+00
 SC3eq  TX3h  1 3.650000e-01    2.340000e+00
 SC4eq  TX3h  1 3.650000e-01    2.340000e+00
 SC5eq  TX3h  1 3.650000e-01    2.340000e+00
 SC6eq  TX3h  1 3.650000e-01    2.570000e+00
 SX4vq  TX3h  1 3.650000e-01    2.570000e+00
 SC1vq  TX3h  1 3.650000e-01    2.340000e+00
 SC2vq  TX3h  1 3.650000e-01    2.340000e+00
 SC3vq  TX3h  1 3.650000e-01    2.340000e+00
 SC4vq  TX3h  1 3.650000e-01    2.340000e+00
 SC5vq  TX3h  1 3.650000e-01    2.340000e+00
 SC6vq  TX3h  1 3.650000e-01    2.570000e+00
 SN1aq  TX3h  1 3.650000e-01    2.340000e+00
 SN2aq  TX3h  1 3.650000e-01    2.340000e+00
 SN3aq  TX3h  1 3.650000e-01    2.340000e+00
 SN4aq  TX3h  1 3.650000e-01    2.570000e+00
 SN5aq  TX3h  1 3.650000e-01    2.340000e+00
 SN6aq  TX3h  1 3.650000e-01    2.110000e+00
 SP1aq  TX3h  1 3.650000e-01    2.110000e+00
 SP2aq  TX3h  1 3.650000e-01    2.110000e+00
 SP3aq  TX3h  1 3.650000e-01    2.110000e+00
 SP4aq  TX3h  1 3.650000e-01    1.910000e+00
 SP5aq  TX3h  1 3.650000e-01    1.910000e+00
 SP6aq  TX3h  1 3.650000e-01    1.910000e+00
 SN1dq  TX3h  1 3.650000e-01    2.340000e+00
 SN2dq  TX3h  1 3.650000e-01    2.340000e+00
 SN3dq  TX3h  1 3.650000e-01    2.340000e+00
 SN4dq  TX3h  1 3.650000e-01    2.570000e+00
 SN5dq  TX3h  1 3.650000e-01    2.340000e+00
 SN6dq  TX3h  1 3.650000e-01    2.110000e+00
 SP1dq  TX3h  1 3.650000e-01    2.110000e+00
 SP2dq  TX3h  1 3.650000e-01    2.110000e+00
 SP3dq  TX3h  1 3.650000e-01    2.110000e+00
 SP4dq  TX3h  1 3.650000e-01    1.910000e+00
 SP5dq  TX3h  1 3.650000e-01    1.910000e+00
 SP6dq  TX3h  1 3.650000e-01    1.910000e+00
 SX3eq  TX2h  1 3.650000e-01    2.830000e+00
 SX4eq  TX2h  1 3.650000e-01    2.570000e+00
 SC1eq  TX2h  1 3.650000e-01    2.340000e+00
 SC2eq  TX2h  1 3.650000e-01    2.340000e+00
 SC3eq  TX2h  1 3.650000e-01    2.340000e+00
 SC4eq  TX2h  1 3.650000e-01    2.340000e+00
 SC5eq  TX2h  1 3.650000e-01    2.340000e+00
 SC6eq  TX2h  1 3.650000e-01    2.570000e+00
 SX3vq  TX2h  1 3.650000e-01    2.830000e+00
 SX4vq  TX2h  1 3.650000e-01    2.570000e+00
 SC1vq  TX2h  1 3.650000e-01    2.340000e+00
 SC2vq  TX2h  1 3.650000e-01    2.340000e+00
 SC3vq  TX2h  1 3.650000e-01    2.340000e+00
 SC4vq  TX2h  1 3.650000e-01    2.340000e+00
 SC5vq  TX2h  1 3.650000e-01    2.340000e+00
 SC6vq  TX2h  1 3.650000e-01    2.570000e+00
 SN1aq  TX2h  1 3.650000e-01    2.110000e+00
 SN2aq  TX2h  1 3.650000e-01    2.110000e+00
 SN3aq  TX2h  1 3.650000e-01    2.110000e+00
 SN4aq  TX2h  1 3.650000e-01    2.110000e+00
 SN5aq  TX2h  1 3.650000e-01    2.110000e+00
 SN6aq  TX2h  1 3.650000e-01    1.910000e+00
 SP1aq  TX2h  1 3.650000e-01    1.910000e+00
 SP2aq  TX2h  1 3.650000e-01    1.910000e+00
 SP3aq  TX2h  1 3.650000e-01    1.910000e+00
 SP4aq  TX2h  1 3.650000e-01    1.910000e+00
 SP5aq  TX2h  1 3.650000e-01    1.910000e+00
 SP6aq  TX2h  1 3.650000e-01    1.750000e+00
 SN1dq  TX2h  1 3.650000e-01    2.110000e+00
 SN2dq  TX2h  1 3.650000e-01    2.110000e+00
 SN3dq  TX2h  1 3.650000e-01    2.110000e+00
 SN4dq  TX2h  1 3.650000e-01    2.110000e+00
 SN5dq  TX2h  1 3.650000e-01    2.110000e+00
 SN6dq  TX2h  1 3.650000e-01    1.910000e+00
 SP1dq  TX2h  1 3.650000e-01    1.910000e+00
 SP2dq  TX2h  1 3.650000e-01    1.910000e+00
 SP3dq  TX2h  1 3.650000e-01    1.910000e+00
 SP4dq  TX2h  1 3.650000e-01    1.910000e+00
 SP5dq  TX2h  1 3.650000e-01    1.910000e+00
 SP6dq  TX2h  1 3.650000e-01    1.750000e+00
 SX2eq  TX1h  1 3.650000e-01    2.830000e+00
 SX3eq  TX1h  1 3.650000e-01    2.830000e+00
 SX4eq  TX1h  1 3.650000e-01    2.570000e+00
 SC1eq  TX1h  1 3.650000e-01    2.340000e+00
 SC2eq  TX1h  1 3.650000e-01    2.340000e+00
 SC3eq  TX1h  1 3.650000e-01    2.570000e+00
 SC4eq  TX1h  1 3.650000e-01    2.570000e+00
 SC5eq  TX1h  1 3.650000e-01    2.570000e+00
 SC6eq  TX1h  1 3.650000e-01    2.570000e+00
 SX2vq  TX1h  1 3.650000e-01    2.830000e+00
 SX3vq  TX1h  1 3.650000e-01    2.830000e+00
 SX4vq  TX1h  1 3.650000e-01    2.570000e+00
 SC1vq  TX1h  1 3.650000e-01    2.340000e+00
 SC2vq  TX1h  1 3.650000e-01    2.340000e+00
 SC3vq  TX1h  1 3.650000e-01    2.570000e+00
 SC4vq  TX1h  1 3.650000e-01    2.570000e+00
 SC5vq  TX1h  1 3.650000e-01    2.570000e+00
 SC6vq  TX1h  1 3.650000e-01    2.570000e+00
 SN1aq  TX1h  1 3.650000e-01    2.110000e+00
 SN2aq  TX1h  1 3.650000e-01    2.110000e+00
 SN3aq  TX1h  1 3.650000e-01    2.110000e+00
 SN4aq  TX1h  1 3.650000e-01    1.910000e+00
 SN5aq  TX1h  1 3.650000e-01    1.910000e+00
 SN6aq  TX1h  1 3.650000e-01    1.750000e+00
 SP1aq  TX1h  1 3.650000e-01    1.750000e+00
 SP2aq  TX1h  1 3.650000e-01    1.750000e+00
 SP3aq  TX1h  1 3.650000e-01    1.750000e+00
 SP4aq  TX1h  1 3.650000e-01    1.750000e+00
 SP5aq  TX1h  1 3.660000e-01    1.600000e+00
 SP6aq  TX1h  1 3.660000e-01    1.600000e+00
 SN1dq  TX1h  1 3.650000e-01    2.110000e+00
 SN2dq  TX1h  1 3.650000e-01    2.110000e+00
 SN3dq  TX1h  1 3.650000e-01    2.110000e+00
 SN4dq  TX1h  1 3.650000e-01    1.910000e+00
 SN5dq  TX1h  1 3.650000e-01    1.910000e+00
 SN6dq  TX1h  1 3.650000e-01    1.750000e+00
 SP1dq  TX1h  1 3.650000e-01    1.750000e+00
 SP2dq  TX1h  1 3.650000e-01    1.750000e+00
 SP3dq  TX1h  1 3.650000e-01    1.750000e+00
 SP4dq  TX1h  1 3.650000e-01    1.750000e+00
 SP5dq  TX1h  1 3.660000e-01    1.600000e+00
 SP6dq  TX1h  1 3.660000e-01    1.600000e+00
 SP6dh  TP5d  1 3.650000e-01    3.370000e+00
 SP6dh  TP4d  1 3.650000e-01    3.100000e+00
 SP6dh  TP3d  1 3.650000e-01    2.830000e+00
 SP6dh  TP2d  1 3.650000e-01    2.830000e+00
 SP6dh  TP1d  1 3.650000e-01    2.570000e+00
 SP6dh  TN6d  1 3.650000e-01    2.340000e+00
 SP6dh  TN5d  1 3.650000e-01    1.910000e+00
 SP6dh  TN4d  1 3.650000e-01    1.750000e+00
 SP6dh  TN3d  1 3.650000e-01    1.750000e+00
 SP6dh  TN2d  1 3.660000e-01    1.600000e+00
 SP6dh  TN1d  1 3.780000e-01    1.450000e+00
 SP6dh  TP6a  1 3.650000e-01    4.220000e+00
 SP6dh  TP5a  1 3.650000e-01    3.930000e+00
 SP6dh  TP4a  1 3.650000e-01    3.640000e+00
 SP6dh  TP3a  1 3.650000e-01    3.370000e+00
 SP6dh  TP2a  1 3.650000e-01    3.370000e+00
 SP6dh  TP1a  1 3.650000e-01    3.100000e+00
 SP6dh  TN6a  1 3.650000e-01    2.830000e+00
 SP6dh  TN5a  1 3.650000e-01    2.340000e+00
 SP6dh  TN4a  1 3.650000e-01    2.110000e+00
 SP6dh  TN3a  1 3.650000e-01    1.750000e+00
 SP6dh  TN2a  1 3.660000e-01    1.600000e+00
 SP6dh  TN1a  1 3.780000e-01    1.450000e+00
 SP6dh  TC6e  1 3.660000e-01    1.600000e+00
 SP6dh  TC5e  1 3.780000e-01    1.450000e+00
 SP6dh  TC4e  1 3.940000e-01    1.290000e+00
 SP6dh  TC3e  1 4.040000e-01    1.130000e+00
 SP6dh  TC2e  1 4.040000e-01    1.130000e+00
 SP6dh  TC1e  1 4.230000e-01    9.810000e-01
 SP6dh  TX4e  1 3.650000e-01    1.750000e+00
 SP6dh  TX3e  1 3.650000e-01    1.750000e+00
 SP6dh  TX2e  1 3.660000e-01    1.600000e+00
 SP6dh  TX1e  1 3.780000e-01    1.450000e+00
 SP6dh  TC6v  1 3.940000e-01    1.290000e+00
 SP6dh  TC5v  1 4.040000e-01    1.130000e+00
 SP6dh  TC4v  1 4.090000e-01    1.080000e+00
 SP6dh  TC3v  1 4.230000e-01    9.810000e-01
 SP6dh  TC2v  1 4.230000e-01    9.810000e-01
 SP6dh  TC1v  1 5.370000e-01    8.080000e-01
 SP6dh  TX4v  1 3.780000e-01    1.450000e+00
 SP6dh  TX3v  1 3.780000e-01    1.450000e+00
 SP6dh  TX2v  1 3.940000e-01    1.290000e+00
 SP6dh  TX1v  1 4.040000e-01    1.130000e+00
 SP6dh  TP5q  1 3.650000e-01    4.220000e+00
 SP6dh  TP4q  1 3.650000e-01    3.930000e+00
 SP6dh  TP3q  1 3.650000e-01    3.640000e+00
 SP6dh  TP2q  1 3.650000e-01    3.640000e+00
 SP6dh  TP1q  1 3.650000e-01    3.370000e+00
 SP6dh  TN6q  1 3.650000e-01    3.100000e+00
 SP6dh  TN5q  1 3.650000e-01    2.570000e+00
 SP6dh  TN4q  1 3.650000e-01    2.340000e+00
 SP6dh  TN3q  1 3.650000e-01    2.110000e+00
 SP6dh  TN2q  1 3.650000e-01    1.910000e+00
 SP6dh  TN1q  1 3.650000e-01    1.750000e+00
 SP6dh  TC6q  1 3.650000e-01    1.750000e+00
 SP6dh  TC5q  1 3.660000e-01    1.600000e+00
 SP6dh  TC4q  1 3.780000e-01    1.450000e+00
 SP6dh  TC3q  1 3.940000e-01    1.290000e+00
 SP6dh  TC2q  1 3.940000e-01    1.290000e+00
 SP6dh  TC1q  1 4.090000e-01    1.080000e+00
 SP6dh  TX4q  1 3.650000e-01    1.910000e+00
 SP6dh  TX3q  1 3.650000e-01    1.910000e+00
 SP6dh  TX2q  1 3.650000e-01    1.750000e+00
 SP6dh  TX1q  1 3.660000e-01    1.600000e+00
 SP5dh  TP4d  1 3.650000e-01    2.830000e+00
 SP5dh  TP3d  1 3.650000e-01    2.570000e+00
 SP5dh  TP2d  1 3.650000e-01    2.570000e+00
 SP5dh  TP1d  1 3.650000e-01    2.340000e+00
 SP5dh  TN6d  1 3.650000e-01    2.110000e+00
 SP5dh  TN5d  1 3.650000e-01    1.910000e+00
 SP5dh  TN4d  1 3.650000e-01    1.910000e+00
 SP5dh  TN3d  1 3.650000e-01    1.750000e+00
 SP5dh  TN2d  1 3.660000e-01    1.600000e+00
 SP5dh  TN1d  1 3.780000e-01    1.450000e+00
 SP5dh  TP5a  1 3.650000e-01    3.640000e+00
 SP5dh  TP4a  1 3.650000e-01    3.370000e+00
 SP5dh  TP3a  1 3.650000e-01    3.100000e+00
 SP5dh  TP2a  1 3.650000e-01    3.100000e+00
 SP5dh  TP1a  1 3.650000e-01    2.830000e+00
 SP5dh  TN6a  1 3.650000e-01    2.570000e+00
 SP5dh  TN5a  1 3.650000e-01    2.340000e+00
 SP5dh  TN4a  1 3.650000e-01    2.340000e+00
 SP5dh  TN3a  1 3.650000e-01    1.750000e+00
 SP5dh  TN2a  1 3.660000e-01    1.600000e+00
 SP5dh  TN1a  1 3.780000e-01    1.450000e+00
 SP5dh  TC6e  1 3.660000e-01    1.600000e+00
 SP5dh  TC5e  1 3.660000e-01    1.600000e+00
 SP5dh  TC4e  1 3.780000e-01    1.450000e+00
 SP5dh  TC3e  1 3.940000e-01    1.290000e+00
 SP5dh  TC2e  1 3.940000e-01    1.290000e+00
 SP5dh  TC1e  1 4.040000e-01    1.130000e+00
 SP5dh  TX4e  1 3.650000e-01    1.910000e+00
 SP5dh  TX3e  1 3.650000e-01    1.750000e+00
 SP5dh  TX2e  1 3.650000e-01    1.750000e+00
 SP5dh  TX1e  1 3.780000e-01    1.450000e+00
 SP5dh  TC6v  1 3.940000e-01    1.290000e+00
 SP5dh  TC5v  1 3.940000e-01    1.290000e+00
 SP5dh  TC4v  1 4.040000e-01    1.130000e+00
 SP5dh  TC3v  1 4.090000e-01    1.080000e+00
 SP5dh  TC2v  1 4.090000e-01    1.080000e+00
 SP5dh  TC1v  1 4.230000e-01    9.810000e-01
 SP5dh  TX4v  1 3.660000e-01    1.600000e+00
 SP5dh  TX3v  1 3.780000e-01    1.450000e+00
 SP5dh  TX2v  1 3.780000e-01    1.450000e+00
 SP5dh  TX1v  1 4.040000e-01    1.130000e+00
 SP5dh  TP4q  1 3.650000e-01    3.640000e+00
 SP5dh  TP3q  1 3.650000e-01    3.370000e+00
 SP5dh  TP2q  1 3.650000e-01    3.370000e+00
 SP5dh  TP1q  1 3.650000e-01    3.100000e+00
 SP5dh  TN6q  1 3.650000e-01    2.830000e+00
 SP5dh  TN5q  1 3.650000e-01    2.570000e+00
 SP5dh  TN4q  1 3.650000e-01    2.570000e+00
 SP5dh  TN3q  1 3.650000e-01    2.110000e+00
 SP5dh  TN2q  1 3.650000e-01    1.910000e+00
 SP5dh  TN1q  1 3.650000e-01    1.750000e+00
 SP5dh  TC6q  1 3.650000e-01    1.750000e+00
 SP5dh  TC5q  1 3.650000e-01    1.750000e+00
 SP5dh  TC4q  1 3.660000e-01    1.600000e+00
 SP5dh  TC3q  1 3.780000e-01    1.450000e+00
 SP5dh  TC2q  1 3.780000e-01    1.450000e+00
 SP5dh  TC1q  1 3.940000e-01    1.290000e+00
 SP5dh  TX4q  1 3.650000e-01    2.110000e+00
 SP5dh  TX3q  1 3.650000e-01    1.910000e+00
 SP5dh  TX2q  1 3.650000e-01    1.910000e+00
 SP5dh  TX1q  1 3.660000e-01    1.600000e+00
 SP4dh  TP3d  1 3.650000e-01    2.570000e+00
 SP4dh  TP2d  1 3.650000e-01    2.570000e+00
 SP4dh  TP1d  1 3.650000e-01    2.340000e+00
 SP4dh  TN6d  1 3.650000e-01    2.110000e+00
 SP4dh  TN5d  1 3.650000e-01    1.910000e+00
 SP4dh  TN4d  1 3.650000e-01    1.910000e+00
 SP4dh  TN3d  1 3.650000e-01    1.750000e+00
 SP4dh  TN2d  1 3.650000e-01    1.750000e+00
 SP4dh  TN1d  1 3.660000e-01    1.600000e+00
 SP4dh  TP4a  1 3.650000e-01    3.370000e+00
 SP4dh  TP3a  1 3.650000e-01    3.100000e+00
 SP4dh  TP2a  1 3.650000e-01    3.100000e+00
 SP4dh  TP1a  1 3.650000e-01    2.830000e+00
 SP4dh  TN6a  1 3.650000e-01    2.570000e+00
 SP4dh  TN5a  1 3.650000e-01    2.340000e+00
 SP4dh  TN4a  1 3.650000e-01    2.340000e+00
 SP4dh  TN3a  1 3.650000e-01    2.110000e+00
 SP4dh  TN2a  1 3.650000e-01    1.750000e+00
 SP4dh  TN1a  1 3.660000e-01    1.600000e+00
 SP4dh  TC6e  1 3.650000e-01    1.750000e+00
 SP4dh  TC5e  1 3.660000e-01    1.600000e+00
 SP4dh  TC4e  1 3.780000e-01    1.450000e+00
 SP4dh  TC3e  1 3.940000e-01    1.290000e+00
 SP4dh  TC2e  1 3.940000e-01    1.290000e+00
 SP4dh  TC1e  1 4.040000e-01    1.130000e+00
 SP4dh  TX4e  1 3.650000e-01    1.910000e+00
 SP4dh  TX3e  1 3.650000e-01    1.750000e+00
 SP4dh  TX2e  1 3.650000e-01    1.750000e+00
 SP4dh  TX1e  1 3.660000e-01    1.600000e+00
 SP4dh  TC6v  1 3.780000e-01    1.450000e+00
 SP4dh  TC5v  1 3.940000e-01    1.290000e+00
 SP4dh  TC4v  1 4.040000e-01    1.130000e+00
 SP4dh  TC3v  1 4.090000e-01    1.080000e+00
 SP4dh  TC2v  1 4.090000e-01    1.080000e+00
 SP4dh  TC1v  1 4.230000e-01    9.810000e-01
 SP4dh  TX4v  1 3.660000e-01    1.600000e+00
 SP4dh  TX3v  1 3.780000e-01    1.450000e+00
 SP4dh  TX2v  1 3.780000e-01    1.450000e+00
 SP4dh  TX1v  1 3.940000e-01    1.290000e+00
 SP4dh  TP3q  1 3.650000e-01    3.370000e+00
 SP4dh  TP2q  1 3.650000e-01    3.370000e+00
 SP4dh  TP1q  1 3.650000e-01    3.100000e+00
 SP4dh  TN6q  1 3.650000e-01    2.830000e+00
 SP4dh  TN5q  1 3.650000e-01    2.570000e+00
 SP4dh  TN4q  1 3.650000e-01    2.570000e+00
 SP4dh  TN3q  1 3.650000e-01    2.340000e+00
 SP4dh  TN2q  1 3.650000e-01    2.110000e+00
 SP4dh  TN1q  1 3.650000e-01    1.910000e+00
 SP4dh  TC6q  1 3.650000e-01    1.910000e+00
 SP4dh  TC5q  1 3.650000e-01    1.750000e+00
 SP4dh  TC4q  1 3.660000e-01    1.600000e+00
 SP4dh  TC3q  1 3.780000e-01    1.450000e+00
 SP4dh  TC2q  1 3.780000e-01    1.450000e+00
 SP4dh  TC1q  1 3.940000e-01    1.290000e+00
 SP4dh  TX4q  1 3.650000e-01    2.110000e+00
 SP4dh  TX3q  1 3.650000e-01    1.910000e+00
 SP4dh  TX2q  1 3.650000e-01    1.910000e+00
 SP4dh  TX1q  1 3.650000e-01    1.750000e+00
 SP3dh  TP2d  1 3.650000e-01    2.570000e+00
 SP3dh  TP1d  1 3.650000e-01    2.340000e+00
 SP3dh  TN6d  1 3.650000e-01    2.110000e+00
 SP3dh  TN5d  1 3.650000e-01    1.910000e+00
 SP3dh  TN4d  1 3.650000e-01    1.910000e+00
 SP3dh  TN3d  1 3.650000e-01    1.750000e+00
 SP3dh  TN2d  1 3.650000e-01    1.750000e+00
 SP3dh  TN1d  1 3.650000e-01    1.750000e+00
 SP3dh  TP3a  1 3.650000e-01    3.100000e+00
 SP3dh  TP2a  1 3.650000e-01    3.100000e+00
 SP3dh  TP1a  1 3.650000e-01    2.830000e+00
 SP3dh  TN6a  1 3.650000e-01    2.570000e+00
 SP3dh  TN5a  1 3.650000e-01    2.340000e+00
 SP3dh  TN4a  1 3.650000e-01    2.340000e+00
 SP3dh  TN3a  1 3.650000e-01    2.110000e+00
 SP3dh  TN2a  1 3.650000e-01    2.110000e+00
 SP3dh  TN1a  1 3.650000e-01    1.750000e+00
 SP3dh  TC6e  1 3.650000e-01    1.910000e+00
 SP3dh  TC5e  1 3.650000e-01    1.750000e+00
 SP3dh  TC4e  1 3.660000e-01    1.600000e+00
 SP3dh  TC3e  1 3.940000e-01    1.290000e+00
 SP3dh  TC2e  1 3.940000e-01    1.290000e+00
 SP3dh  TC1e  1 4.040000e-01    1.130000e+00
 SP3dh  TX4e  1 3.650000e-01    1.910000e+00
 SP3dh  TX3e  1 3.650000e-01    1.910000e+00
 SP3dh  TX2e  1 3.650000e-01    1.750000e+00
 SP3dh  TX1e  1 3.660000e-01    1.600000e+00
 SP3dh  TC6v  1 3.660000e-01    1.600000e+00
 SP3dh  TC5v  1 3.780000e-01    1.450000e+00
 SP3dh  TC4v  1 3.940000e-01    1.290000e+00
 SP3dh  TC3v  1 4.090000e-01    1.080000e+00
 SP3dh  TC2v  1 4.090000e-01    1.080000e+00
 SP3dh  TC1v  1 4.230000e-01    9.810000e-01
 SP3dh  TX4v  1 3.660000e-01    1.600000e+00
 SP3dh  TX3v  1 3.660000e-01    1.600000e+00
 SP3dh  TX2v  1 3.780000e-01    1.450000e+00
 SP3dh  TX1v  1 3.940000e-01    1.290000e+00
 SP3dh  TP2q  1 3.650000e-01    3.370000e+00
 SP3dh  TP1q  1 3.650000e-01    3.100000e+00
 SP3dh  TN6q  1 3.650000e-01    2.830000e+00
 SP3dh  TN5q  1 3.650000e-01    2.570000e+00
 SP3dh  TN4q  1 3.650000e-01    2.570000e+00
 SP3dh  TN3q  1 3.650000e-01    2.340000e+00
 SP3dh  TN2q  1 3.650000e-01    2.340000e+00
 SP3dh  TN1q  1 3.650000e-01    2.110000e+00
 SP3dh  TC6q  1 3.650000e-01    2.110000e+00
 SP3dh  TC5q  1 3.650000e-01    1.910000e+00
 SP3dh  TC4q  1 3.650000e-01    1.750000e+00
 SP3dh  TC3q  1 3.780000e-01    1.450000e+00
 SP3dh  TC2q  1 3.780000e-01    1.450000e+00
 SP3dh  TC1q  1 3.940000e-01    1.290000e+00
 SP3dh  TX4q  1 3.650000e-01    2.110000e+00
 SP3dh  TX3q  1 3.650000e-01    2.110000e+00
 SP3dh  TX2q  1 3.650000e-01    1.910000e+00
 SP3dh  TX1q  1 3.650000e-01    1.750000e+00
 SP2dh  TP1d  1 3.650000e-01    2.340000e+00
 SP2dh  TN6d  1 3.650000e-01    2.340000e+00
 SP2dh  TN5d  1 3.650000e-01    2.110000e+00
 SP2dh  TN4d  1 3.650000e-01    1.910000e+00
 SP2dh  TN3d  1 3.650000e-01    1.750000e+00
 SP2dh  TN2d  1 3.650000e-01    1.750000e+00
 SP2dh  TN1d  1 3.650000e-01    1.750000e+00
 SP2dh  TP2a  1 3.650000e-01    3.100000e+00
 SP2dh  TP1a  1 3.650000e-01    2.830000e+00
 SP2dh  TN6a  1 3.650000e-01    2.830000e+00
 SP2dh  TN5a  1 3.650000e-01    2.570000e+00
 SP2dh  TN4a  1 3.650000e-01    2.340000e+00
 SP2dh  TN3a  1 3.650000e-01    2.110000e+00
 SP2dh  TN2a  1 3.650000e-01    2.110000e+00
 SP2dh  TN1a  1 3.650000e-01    2.110000e+00
 SP2dh  TC6e  1 3.650000e-01    1.910000e+00
 SP2dh  TC5e  1 3.650000e-01    1.750000e+00
 SP2dh  TC4e  1 3.660000e-01    1.600000e+00
 SP2dh  TC3e  1 3.780000e-01    1.450000e+00
 SP2dh  TC2e  1 3.780000e-01    1.450000e+00
 SP2dh  TC1e  1 3.940000e-01    1.290000e+00
 SP2dh  TX4e  1 3.650000e-01    1.910000e+00
 SP2dh  TX3e  1 3.650000e-01    1.910000e+00
 SP2dh  TX2e  1 3.650000e-01    1.750000e+00
 SP2dh  TX1e  1 3.660000e-01    1.600000e+00
 SP2dh  TC6v  1 3.660000e-01    1.600000e+00
 SP2dh  TC5v  1 3.780000e-01    1.450000e+00
 SP2dh  TC4v  1 3.940000e-01    1.290000e+00
 SP2dh  TC3v  1 4.040000e-01    1.130000e+00
 SP2dh  TC2v  1 4.040000e-01    1.130000e+00
 SP2dh  TC1v  1 4.090000e-01    1.080000e+00
 SP2dh  TX4v  1 3.660000e-01    1.600000e+00
 SP2dh  TX3v  1 3.660000e-01    1.600000e+00
 SP2dh  TX2v  1 3.780000e-01    1.450000e+00
 SP2dh  TX1v  1 3.940000e-01    1.290000e+00
 SP2dh  TP1q  1 3.650000e-01    3.100000e+00
 SP2dh  TN6q  1 3.650000e-01    3.100000e+00
 SP2dh  TN5q  1 3.650000e-01    2.830000e+00
 SP2dh  TN4q  1 3.650000e-01    2.570000e+00
 SP2dh  TN3q  1 3.650000e-01    2.340000e+00
 SP2dh  TN2q  1 3.650000e-01    2.340000e+00
 SP2dh  TN1q  1 3.650000e-01    2.340000e+00
 SP2dh  TC6q  1 3.650000e-01    2.110000e+00
 SP2dh  TC5q  1 3.650000e-01    1.910000e+00
 SP2dh  TC4q  1 3.650000e-01    1.750000e+00
 SP2dh  TC3q  1 3.660000e-01    1.600000e+00
 SP2dh  TC2q  1 3.660000e-01    1.600000e+00
 SP2dh  TC1q  1 3.780000e-01    1.450000e+00
 SP2dh  TX4q  1 3.650000e-01    2.110000e+00
 SP2dh  TX3q  1 3.650000e-01    2.110000e+00
 SP2dh  TX2q  1 3.650000e-01    1.910000e+00
 SP2dh  TX1q  1 3.650000e-01    1.750000e+00
 SP1dh  TN6d  1 3.650000e-01    2.340000e+00
 SP1dh  TN5d  1 3.650000e-01    2.110000e+00
 SP1dh  TN4d  1 3.650000e-01    2.110000e+00
 SP1dh  TN3d  1 3.650000e-01    1.750000e+00
 SP1dh  TN2d  1 3.650000e-01    1.750000e+00
 SP1dh  TN1d  1 3.650000e-01    1.750000e+00
 SP1dh  TP1a  1 3.650000e-01    2.830000e+00
 SP1dh  TN6a  1 3.650000e-01    2.830000e+00
 SP1dh  TN5a  1 3.650000e-01    2.570000e+00
 SP1dh  TN4a  1 3.650000e-01    2.570000e+00
 SP1dh  TN3a  1 3.650000e-01    2.110000e+00
 SP1dh  TN2a  1 3.650000e-01    2.110000e+00
 SP1dh  TN1a  1 3.650000e-01    2.110000e+00
 SP1dh  TC6e  1 3.650000e-01    1.910000e+00
 SP1dh  TC5e  1 3.650000e-01    1.750000e+00
 SP1dh  TC4e  1 3.660000e-01    1.600000e+00
 SP1dh  TC3e  1 3.780000e-01    1.450000e+00
 SP1dh  TC2e  1 3.780000e-01    1.450000e+00
 SP1dh  TC1e  1 3.940000e-01    1.290000e+00
 SP1dh  TX4e  1 3.650000e-01    1.910000e+00
 SP1dh  TX3e  1 3.650000e-01    1.910000e+00
 SP1dh  TX2e  1 3.650000e-01    1.750000e+00
 SP1dh  TX1e  1 3.660000e-01    1.600000e+00
 SP1dh  TC6v  1 3.660000e-01    1.600000e+00
 SP1dh  TC5v  1 3.780000e-01    1.450000e+00
 SP1dh  TC4v  1 3.940000e-01    1.290000e+00
 SP1dh  TC3v  1 4.040000e-01    1.130000e+00
 SP1dh  TC2v  1 4.040000e-01    1.130000e+00
 SP1dh  TC1v  1 4.090000e-01    1.080000e+00
 SP1dh  TX4v  1 3.660000e-01    1.600000e+00
 SP1dh  TX3v  1 3.660000e-01    1.600000e+00
 SP1dh  TX2v  1 3.780000e-01    1.450000e+00
 SP1dh  TX1v  1 3.940000e-01    1.290000e+00
 SP1dh  TN6q  1 3.650000e-01    3.100000e+00
 SP1dh  TN5q  1 3.650000e-01    2.830000e+00
 SP1dh  TN4q  1 3.650000e-01    2.830000e+00
 SP1dh  TN3q  1 3.650000e-01    2.340000e+00
 SP1dh  TN2q  1 3.650000e-01    2.340000e+00
 SP1dh  TN1q  1 3.650000e-01    2.340000e+00
 SP1dh  TC6q  1 3.650000e-01    2.110000e+00
 SP1dh  TC5q  1 3.650000e-01    1.910000e+00
 SP1dh  TC4q  1 3.650000e-01    1.750000e+00
 SP1dh  TC3q  1 3.660000e-01    1.600000e+00
 SP1dh  TC2q  1 3.660000e-01    1.600000e+00
 SP1dh  TC1q  1 3.780000e-01    1.450000e+00
 SP1dh  TX4q  1 3.650000e-01    2.110000e+00
 SP1dh  TX3q  1 3.650000e-01    2.110000e+00
 SP1dh  TX2q  1 3.650000e-01    1.910000e+00
 SP1dh  TX1q  1 3.650000e-01    1.750000e+00
 SN6dh  TN5d  1 3.650000e-01    2.340000e+00
 SN6dh  TN4d  1 3.650000e-01    2.340000e+00
 SN6dh  TN3d  1 3.650000e-01    1.910000e+00
 SN6dh  TN2d  1 3.650000e-01    1.750000e+00
 SN6dh  TN1d  1 3.650000e-01    1.750000e+00
 SN6dh  TN6a  1 3.650000e-01    2.830000e+00
 SN6dh  TN5a  1 3.650000e-01    2.830000e+00
 SN6dh  TN4a  1 3.650000e-01    2.830000e+00
 SN6dh  TN3a  1 3.650000e-01    2.340000e+00
 SN6dh  TN2a  1 3.650000e-01    2.110000e+00
 SN6dh  TN1a  1 3.650000e-01    2.110000e+00
 SN6dh  TC6e  1 3.650000e-01    2.110000e+00
 SN6dh  TC5e  1 3.650000e-01    1.910000e+00
 SN6dh  TC4e  1 3.650000e-01    1.750000e+00
 SN6dh  TC3e  1 3.660000e-01    1.600000e+00
 SN6dh  TC2e  1 3.660000e-01    1.600000e+00
 SN6dh  TC1e  1 3.780000e-01    1.450000e+00
 SN6dh  TX4e  1 3.650000e-01    2.110000e+00
 SN6dh  TX3e  1 3.650000e-01    1.910000e+00
 SN6dh  TX2e  1 3.650000e-01    1.750000e+00
 SN6dh  TX1e  1 3.660000e-01    1.600000e+00
 SN6dh  TC6v  1 3.650000e-01    1.750000e+00
 SN6dh  TC5v  1 3.660000e-01    1.600000e+00
 SN6dh  TC4v  1 3.780000e-01    1.450000e+00
 SN6dh  TC3v  1 3.940000e-01    1.290000e+00
 SN6dh  TC2v  1 3.940000e-01    1.290000e+00
 SN6dh  TC1v  1 4.040000e-01    1.130000e+00
 SN6dh  TX4v  1 3.650000e-01    1.750000e+00
 SN6dh  TX3v  1 3.660000e-01    1.600000e+00
 SN6dh  TX2v  1 3.780000e-01    1.450000e+00
 SN6dh  TX1v  1 3.940000e-01    1.290000e+00
 SN6dh  TN5q  1 3.650000e-01    3.100000e+00
 SN6dh  TN4q  1 3.650000e-01    3.100000e+00
 SN6dh  TN3q  1 3.650000e-01    2.570000e+00
 SN6dh  TN2q  1 3.650000e-01    2.340000e+00
 SN6dh  TN1q  1 3.650000e-01    2.340000e+00
 SN6dh  TC6q  1 3.650000e-01    2.340000e+00
 SN6dh  TC5q  1 3.650000e-01    2.110000e+00
 SN6dh  TC4q  1 3.650000e-01    1.910000e+00
 SN6dh  TC3q  1 3.650000e-01    1.750000e+00
 SN6dh  TC2q  1 3.650000e-01    1.750000e+00
 SN6dh  TC1q  1 3.660000e-01    1.600000e+00
 SN6dh  TX4q  1 3.650000e-01    2.340000e+00
 SN6dh  TX3q  1 3.650000e-01    2.110000e+00
 SN6dh  TX2q  1 3.650000e-01    1.910000e+00
 SN6dh  TX1q  1 3.650000e-01    1.750000e+00
 SN5dh  TN4d  1 3.650000e-01    2.110000e+00
 SN5dh  TN3d  1 3.650000e-01    1.910000e+00
 SN5dh  TN2d  1 3.650000e-01    1.910000e+00
 SN5dh  TN1d  1 3.650000e-01    1.750000e+00
 SN5dh  TN5a  1 3.650000e-01    2.570000e+00
 SN5dh  TN4a  1 3.650000e-01    2.570000e+00
 SN5dh  TN3a  1 3.650000e-01    2.340000e+00
 SN5dh  TN2a  1 3.650000e-01    2.340000e+00
 SN5dh  TN1a  1 3.650000e-01    2.110000e+00
 SN5dh  TC6e  1 3.650000e-01    2.110000e+00
 SN5dh  TC5e  1 3.650000e-01    1.910000e+00
 SN5dh  TC4e  1 3.650000e-01    1.750000e+00
 SN5dh  TC3e  1 3.650000e-01    1.750000e+00
 SN5dh  TC2e  1 3.660000e-01    1.600000e+00
 SN5dh  TC1e  1 3.780000e-01    1.450000e+00
 SN5dh  TX4e  1 3.650000e-01    2.340000e+00
 SN5dh  TX3e  1 3.650000e-01    2.110000e+00
 SN5dh  TX2e  1 3.650000e-01    1.910000e+00
 SN5dh  TX1e  1 3.650000e-01    1.750000e+00
 SN5dh  TC6v  1 3.650000e-01    1.750000e+00
 SN5dh  TC5v  1 3.660000e-01    1.600000e+00
 SN5dh  TC4v  1 3.780000e-01    1.450000e+00
 SN5dh  TC3v  1 3.780000e-01    1.450000e+00
 SN5dh  TC2v  1 3.940000e-01    1.290000e+00
 SN5dh  TC1v  1 4.040000e-01    1.130000e+00
 SN5dh  TX4v  1 3.650000e-01    1.910000e+00
 SN5dh  TX3v  1 3.650000e-01    1.750000e+00
 SN5dh  TX2v  1 3.660000e-01    1.600000e+00
 SN5dh  TX1v  1 3.780000e-01    1.450000e+00
 SN5dh  TN4q  1 3.650000e-01    2.830000e+00
 SN5dh  TN3q  1 3.650000e-01    2.570000e+00
 SN5dh  TN2q  1 3.650000e-01    2.570000e+00
 SN5dh  TN1q  1 3.650000e-01    2.340000e+00
 SN5dh  TC6q  1 3.650000e-01    2.340000e+00
 SN5dh  TC5q  1 3.650000e-01    2.110000e+00
 SN5dh  TC4q  1 3.650000e-01    1.910000e+00
 SN5dh  TC3q  1 3.650000e-01    1.910000e+00
 SN5dh  TC2q  1 3.650000e-01    1.750000e+00
 SN5dh  TC1q  1 3.660000e-01    1.600000e+00
 SN5dh  TX4q  1 3.650000e-01    2.570000e+00
 SN5dh  TX3q  1 3.650000e-01    2.340000e+00
 SN5dh  TX2q  1 3.650000e-01    2.110000e+00
 SN5dh  TX1q  1 3.650000e-01    1.910000e+00
 SN4dh  TN3d  1 3.650000e-01    1.910000e+00
 SN4dh  TN2d  1 3.650000e-01    1.910000e+00
 SN4dh  TN1d  1 3.650000e-01    1.750000e+00
 SN4dh  TN4a  1 3.650000e-01    2.570000e+00
 SN4dh  TN3a  1 3.650000e-01    2.340000e+00
 SN4dh  TN2a  1 3.650000e-01    2.340000e+00
 SN4dh  TN1a  1 3.650000e-01    2.110000e+00
 SN4dh  TC6e  1 3.650000e-01    2.110000e+00
 SN4dh  TC5e  1 3.650000e-01    1.910000e+00
 SN4dh  TC4e  1 3.650000e-01    1.910000e+00
 SN4dh  TC3e  1 3.650000e-01    1.750000e+00
 SN4dh  TC2e  1 3.660000e-01    1.600000e+00
 SN4dh  TC1e  1 3.780000e-01    1.450000e+00
 SN4dh  TX4e  1 3.650000e-01    2.570000e+00
 SN4dh  TX3e  1 3.650000e-01    2.340000e+00
 SN4dh  TX2e  1 3.650000e-01    1.910000e+00
 SN4dh  TX1e  1 3.650000e-01    1.750000e+00
 SN4dh  TC6v  1 3.650000e-01    1.750000e+00
 SN4dh  TC5v  1 3.660000e-01    1.600000e+00
 SN4dh  TC4v  1 3.660000e-01    1.600000e+00
 SN4dh  TC3v  1 3.780000e-01    1.450000e+00
 SN4dh  TC2v  1 3.940000e-01    1.290000e+00
 SN4dh  TC1v  1 4.040000e-01    1.130000e+00
 SN4dh  TX4v  1 3.650000e-01    2.110000e+00
 SN4dh  TX3v  1 3.650000e-01    1.910000e+00
 SN4dh  TX2v  1 3.660000e-01    1.600000e+00
 SN4dh  TX1v  1 3.780000e-01    1.450000e+00
 SN4dh  TN3q  1 3.650000e-01    2.570000e+00
 SN4dh  TN2q  1 3.650000e-01    2.570000e+00
 SN4dh  TN1q  1 3.650000e-01    2.340000e+00
 SN4dh  TC6q  1 3.650000e-01    2.340000e+00
 SN4dh  TC5q  1 3.650000e-01    2.110000e+00
 SN4dh  TC4q  1 3.650000e-01    2.110000e+00
 SN4dh  TC3q  1 3.650000e-01    1.910000e+00
 SN4dh  TC2q  1 3.650000e-01    1.750000e+00
 SN4dh  TC1q  1 3.660000e-01    1.600000e+00
 SN4dh  TX4q  1 3.650000e-01    2.830000e+00
 SN4dh  TX3q  1 3.650000e-01    2.570000e+00
 SN4dh  TX2q  1 3.650000e-01    2.110000e+00
 SN4dh  TX1q  1 3.650000e-01    1.910000e+00
 SN3dh  TN2d  1 3.650000e-01    1.910000e+00
 SN3dh  TN1d  1 3.650000e-01    1.750000e+00
 SN3dh  TN3a  1 3.650000e-01    2.340000e+00
 SN3dh  TN2a  1 3.650000e-01    2.340000e+00
 SN3dh  TN1a  1 3.650000e-01    2.110000e+00
 SN3dh  TC6e  1 3.650000e-01    2.110000e+00
 SN3dh  TC5e  1 3.650000e-01    1.910000e+00
 SN3dh  TC4e  1 3.650000e-01    1.910000e+00
 SN3dh  TC3e  1 3.650000e-01    1.750000e+00
 SN3dh  TC2e  1 3.650000e-01    1.750000e+00
 SN3dh  TC1e  1 3.660000e-01    1.600000e+00
 SN3dh  TX4e  1 3.650000e-01    2.340000e+00
 SN3dh  TX3e  1 3.650000e-01    2.110000e+00
 SN3dh  TX2e  1 3.650000e-01    1.910000e+00
 SN3dh  TX1e  1 3.650000e-01    1.910000e+00
 SN3dh  TC6v  1 3.650000e-01    1.750000e+00
 SN3dh  TC5v  1 3.660000e-01    1.600000e+00
 SN3dh  TC4v  1 3.660000e-01    1.600000e+00
 SN3dh  TC3v  1 3.780000e-01    1.450000e+00
 SN3dh  TC2v  1 3.780000e-01    1.450000e+00
 SN3dh  TC1v  1 3.940000e-01    1.290000e+00
 SN3dh  TX4v  1 3.650000e-01    1.910000e+00
 SN3dh  TX3v  1 3.650000e-01    1.750000e+00
 SN3dh  TX2v  1 3.660000e-01    1.600000e+00
 SN3dh  TX1v  1 3.660000e-01    1.600000e+00
 SN3dh  TN2q  1 3.650000e-01    2.570000e+00
 SN3dh  TN1q  1 3.650000e-01    2.340000e+00
 SN3dh  TC6q  1 3.650000e-01    2.340000e+00
 SN3dh  TC5q  1 3.650000e-01    2.110000e+00
 SN3dh  TC4q  1 3.650000e-01    2.110000e+00
 SN3dh  TC3q  1 3.650000e-01    1.910000e+00
 SN3dh  TC2q  1 3.650000e-01    1.910000e+00
 SN3dh  TC1q  1 3.650000e-01    1.750000e+00
 SN3dh  TX4q  1 3.650000e-01    2.570000e+00
 SN3dh  TX3q  1 3.650000e-01    2.340000e+00
 SN3dh  TX2q  1 3.650000e-01    2.110000e+00
 SN3dh  TX1q  1 3.650000e-01    2.110000e+00
 SN2dh  TN1d  1 3.650000e-01    1.750000e+00
 SN2dh  TN2a  1 3.650000e-01    2.340000e+00
 SN2dh  TN1a  1 3.650000e-01    2.110000e+00
 SN2dh  TC6e  1 3.650000e-01    2.110000e+00
 SN2dh  TC5e  1 3.650000e-01    1.910000e+00
 SN2dh  TC4e  1 3.650000e-01    1.910000e+00
 SN2dh  TC3e  1 3.650000e-01    1.910000e+00
 SN2dh  TC2e  1 3.650000e-01    1.750000e+00
 SN2dh  TC1e  1 3.660000e-01    1.600000e+00
 SN2dh  TX4e  1 3.650000e-01    2.340000e+00
 SN2dh  TX3e  1 3.650000e-01    2.110000e+00
 SN2dh  TX2e  1 3.650000e-01    1.910000e+00
 SN2dh  TX1e  1 3.650000e-01    1.910000e+00
 SN2dh  TC6v  1 3.650000e-01    1.750000e+00
 SN2dh  TC5v  1 3.660000e-01    1.600000e+00
 SN2dh  TC4v  1 3.660000e-01    1.600000e+00
 SN2dh  TC3v  1 3.660000e-01    1.600000e+00
 SN2dh  TC2v  1 3.780000e-01    1.450000e+00
 SN2dh  TC1v  1 3.940000e-01    1.290000e+00
 SN2dh  TX4v  1 3.650000e-01    1.910000e+00
 SN2dh  TX3v  1 3.650000e-01    1.750000e+00
 SN2dh  TX2v  1 3.660000e-01    1.600000e+00
 SN2dh  TX1v  1 3.660000e-01    1.600000e+00
 SN2dh  TN1q  1 3.650000e-01    2.340000e+00
 SN2dh  TC6q  1 3.650000e-01    2.340000e+00
 SN2dh  TC5q  1 3.650000e-01    2.110000e+00
 SN2dh  TC4q  1 3.650000e-01    2.110000e+00
 SN2dh  TC3q  1 3.650000e-01    2.110000e+00
 SN2dh  TC2q  1 3.650000e-01    1.910000e+00
 SN2dh  TC1q  1 3.650000e-01    1.750000e+00
 SN2dh  TX4q  1 3.650000e-01    2.570000e+00
 SN2dh  TX3q  1 3.650000e-01    2.340000e+00
 SN2dh  TX2q  1 3.650000e-01    2.110000e+00
 SN2dh  TX1q  1 3.650000e-01    2.110000e+00
 SN1dh  TN1a  1 3.650000e-01    2.340000e+00
 SN1dh  TC6e  1 3.650000e-01    2.340000e+00
 SN1dh  TC5e  1 3.650000e-01    2.110000e+00
 SN1dh  TC4e  1 3.650000e-01    2.110000e+00
 SN1dh  TC3e  1 3.650000e-01    1.910000e+00
 SN1dh  TC2e  1 3.650000e-01    1.750000e+00
 SN1dh  TC1e  1 3.660000e-01    1.600000e+00
 SN1dh  TX4e  1 3.650000e-01    2.110000e+00
 SN1dh  TX3e  1 3.650000e-01    2.110000e+00
 SN1dh  TX2e  1 3.650000e-01    1.910000e+00
 SN1dh  TX1e  1 3.650000e-01    1.910000e+00
 SN1dh  TC6v  1 3.650000e-01    1.910000e+00
 SN1dh  TC5v  1 3.650000e-01    1.750000e+00
 SN1dh  TC4v  1 3.650000e-01    1.750000e+00
 SN1dh  TC3v  1 3.660000e-01    1.600000e+00
 SN1dh  TC2v  1 3.780000e-01    1.450000e+00
 SN1dh  TC1v  1 3.940000e-01    1.290000e+00
 SN1dh  TX4v  1 3.650000e-01    1.750000e+00
 SN1dh  TX3v  1 3.650000e-01    1.750000e+00
 SN1dh  TX2v  1 3.660000e-01    1.600000e+00
 SN1dh  TX1v  1 3.660000e-01    1.600000e+00
 SN1dh  TC6q  1 3.650000e-01    2.570000e+00
 SN1dh  TC5q  1 3.650000e-01    2.340000e+00
 SN1dh  TC4q  1 3.650000e-01    2.340000e+00
 SN1dh  TC3q  1 3.650000e-01    2.110000e+00
 SN1dh  TC2q  1 3.650000e-01    1.910000e+00
 SN1dh  TC1q  1 3.650000e-01    1.750000e+00
 SN1dh  TX4q  1 3.650000e-01    2.340000e+00
 SN1dh  TX3q  1 3.650000e-01    2.340000e+00
 SN1dh  TX2q  1 3.650000e-01    2.110000e+00
 SN1dh  TX1q  1 3.650000e-01    2.110000e+00
 SP6ah  TP5a  1 3.650000e-01    3.370000e+00
 SP6ah  TP4a  1 3.650000e-01    3.100000e+00
 SP6ah  TP3a  1 3.650000e-01    2.830000e+00
 SP6ah  TP2a  1 3.650000e-01    2.830000e+00
 SP6ah  TP1a  1 3.650000e-01    2.570000e+00
 SP6ah  TN6a  1 3.650000e-01    2.340000e+00
 SP6ah  TN5a  1 3.650000e-01    1.910000e+00
 SP6ah  TN4a  1 3.650000e-01    1.750000e+00
 SP6ah  TN3a  1 3.650000e-01    1.750000e+00
 SP6ah  TN2a  1 3.660000e-01    1.600000e+00
 SP6ah  TN1a  1 3.780000e-01    1.450000e+00
 SP6ah  TC6v  1 3.660000e-01    1.600000e+00
 SP6ah  TC5v  1 3.780000e-01    1.450000e+00
 SP6ah  TC4v  1 3.940000e-01    1.290000e+00
 SP6ah  TC3v  1 4.040000e-01    1.130000e+00
 SP6ah  TC2v  1 4.040000e-01    1.130000e+00
 SP6ah  TC1v  1 4.230000e-01    9.810000e-01
 SP6ah  TX4v  1 3.650000e-01    1.750000e+00
 SP6ah  TX3v  1 3.650000e-01    1.750000e+00
 SP6ah  TX2v  1 3.660000e-01    1.600000e+00
 SP6ah  TX1v  1 3.780000e-01    1.450000e+00
 SP6ah  TC6e  1 3.940000e-01    1.290000e+00
 SP6ah  TC5e  1 4.040000e-01    1.130000e+00
 SP6ah  TC4e  1 4.090000e-01    1.080000e+00
 SP6ah  TC3e  1 4.230000e-01    9.810000e-01
 SP6ah  TC2e  1 4.230000e-01    9.810000e-01
 SP6ah  TC1e  1 5.370000e-01    8.080000e-01
 SP6ah  TX4e  1 3.780000e-01    1.450000e+00
 SP6ah  TX3e  1 3.780000e-01    1.450000e+00
 SP6ah  TX2e  1 3.940000e-01    1.290000e+00
 SP6ah  TX1e  1 4.040000e-01    1.130000e+00
 SP6ah  TP5q  1 3.650000e-01    4.220000e+00
 SP6ah  TP4q  1 3.650000e-01    3.930000e+00
 SP6ah  TP3q  1 3.650000e-01    3.640000e+00
 SP6ah  TP2q  1 3.650000e-01    3.640000e+00
 SP6ah  TP1q  1 3.650000e-01    3.370000e+00
 SP6ah  TN6q  1 3.650000e-01    3.100000e+00
 SP6ah  TN5q  1 3.650000e-01    2.570000e+00
 SP6ah  TN4q  1 3.650000e-01    2.340000e+00
 SP6ah  TN3q  1 3.650000e-01    2.110000e+00
 SP6ah  TN2q  1 3.650000e-01    1.910000e+00
 SP6ah  TN1q  1 3.650000e-01    1.750000e+00
 SP6ah  TC6q  1 3.650000e-01    1.750000e+00
 SP6ah  TC5q  1 3.660000e-01    1.600000e+00
 SP6ah  TC4q  1 3.780000e-01    1.450000e+00
 SP6ah  TC3q  1 3.940000e-01    1.290000e+00
 SP6ah  TC2q  1 3.940000e-01    1.290000e+00
 SP6ah  TC1q  1 4.090000e-01    1.080000e+00
 SP6ah  TX4q  1 3.650000e-01    1.910000e+00
 SP6ah  TX3q  1 3.650000e-01    1.910000e+00
 SP6ah  TX2q  1 3.650000e-01    1.750000e+00
 SP6ah  TX1q  1 3.660000e-01    1.600000e+00
 SP5ah  TP4a  1 3.650000e-01    2.830000e+00
 SP5ah  TP3a  1 3.650000e-01    2.570000e+00
 SP5ah  TP2a  1 3.650000e-01    2.570000e+00
 SP5ah  TP1a  1 3.650000e-01    2.340000e+00
 SP5ah  TN6a  1 3.650000e-01    2.110000e+00
 SP5ah  TN5a  1 3.650000e-01    1.910000e+00
 SP5ah  TN4a  1 3.650000e-01    1.910000e+00
 SP5ah  TN3a  1 3.650000e-01    1.750000e+00
 SP5ah  TN2a  1 3.660000e-01    1.600000e+00
 SP5ah  TN1a  1 3.780000e-01    1.450000e+00
 SP5ah  TC6v  1 3.660000e-01    1.600000e+00
 SP5ah  TC5v  1 3.660000e-01    1.600000e+00
 SP5ah  TC4v  1 3.780000e-01    1.450000e+00
 SP5ah  TC3v  1 3.940000e-01    1.290000e+00
 SP5ah  TC2v  1 3.940000e-01    1.290000e+00
 SP5ah  TC1v  1 4.040000e-01    1.130000e+00
 SP5ah  TX4v  1 3.650000e-01    1.910000e+00
 SP5ah  TX3v  1 3.650000e-01    1.750000e+00
 SP5ah  TX2v  1 3.650000e-01    1.750000e+00
 SP5ah  TX1v  1 3.780000e-01    1.450000e+00
 SP5ah  TC6e  1 3.940000e-01    1.290000e+00
 SP5ah  TC5e  1 3.940000e-01    1.290000e+00
 SP5ah  TC4e  1 4.040000e-01    1.130000e+00
 SP5ah  TC3e  1 4.090000e-01    1.080000e+00
 SP5ah  TC2e  1 4.090000e-01    1.080000e+00
 SP5ah  TC1e  1 4.230000e-01    9.810000e-01
 SP5ah  TX4e  1 3.660000e-01    1.600000e+00
 SP5ah  TX3e  1 3.780000e-01    1.450000e+00
 SP5ah  TX2e  1 3.780000e-01    1.450000e+00
 SP5ah  TX1e  1 4.040000e-01    1.130000e+00
 SP5ah  TP4q  1 3.650000e-01    3.640000e+00
 SP5ah  TP3q  1 3.650000e-01    3.370000e+00
 SP5ah  TP2q  1 3.650000e-01    3.370000e+00
 SP5ah  TP1q  1 3.650000e-01    3.100000e+00
 SP5ah  TN6q  1 3.650000e-01    2.830000e+00
 SP5ah  TN5q  1 3.650000e-01    2.570000e+00
 SP5ah  TN4q  1 3.650000e-01    2.570000e+00
 SP5ah  TN3q  1 3.650000e-01    2.110000e+00
 SP5ah  TN2q  1 3.650000e-01    1.910000e+00
 SP5ah  TN1q  1 3.650000e-01    1.750000e+00
 SP5ah  TC6q  1 3.650000e-01    1.750000e+00
 SP5ah  TC5q  1 3.650000e-01    1.750000e+00
 SP5ah  TC4q  1 3.660000e-01    1.600000e+00
 SP5ah  TC3q  1 3.780000e-01    1.450000e+00
 SP5ah  TC2q  1 3.780000e-01    1.450000e+00
 SP5ah  TC1q  1 3.940000e-01    1.290000e+00
 SP5ah  TX4q  1 3.650000e-01    2.110000e+00
 SP5ah  TX3q  1 3.650000e-01    1.910000e+00
 SP5ah  TX2q  1 3.650000e-01    1.910000e+00
 SP5ah  TX1q  1 3.660000e-01    1.600000e+00
 SP4ah  TP3a  1 3.650000e-01    2.570000e+00
 SP4ah  TP2a  1 3.650000e-01    2.570000e+00
 SP4ah  TP1a  1 3.650000e-01    2.340000e+00
 SP4ah  TN6a  1 3.650000e-01    2.110000e+00
 SP4ah  TN5a  1 3.650000e-01    1.910000e+00
 SP4ah  TN4a  1 3.650000e-01    1.910000e+00
 SP4ah  TN3a  1 3.650000e-01    1.750000e+00
 SP4ah  TN2a  1 3.650000e-01    1.750000e+00
 SP4ah  TN1a  1 3.660000e-01    1.600000e+00
 SP4ah  TC6v  1 3.650000e-01    1.750000e+00
 SP4ah  TC5v  1 3.660000e-01    1.600000e+00
 SP4ah  TC4v  1 3.780000e-01    1.450000e+00
 SP4ah  TC3v  1 3.940000e-01    1.290000e+00
 SP4ah  TC2v  1 3.940000e-01    1.290000e+00
 SP4ah  TC1v  1 4.040000e-01    1.130000e+00
 SP4ah  TX4v  1 3.650000e-01    1.910000e+00
 SP4ah  TX3v  1 3.650000e-01    1.750000e+00
 SP4ah  TX2v  1 3.650000e-01    1.750000e+00
 SP4ah  TX1v  1 3.660000e-01    1.600000e+00
 SP4ah  TC6e  1 3.780000e-01    1.450000e+00
 SP4ah  TC5e  1 3.940000e-01    1.290000e+00
 SP4ah  TC4e  1 4.040000e-01    1.130000e+00
 SP4ah  TC3e  1 4.090000e-01    1.080000e+00
 SP4ah  TC2e  1 4.090000e-01    1.080000e+00
 SP4ah  TC1e  1 4.230000e-01    9.810000e-01
 SP4ah  TX4e  1 3.660000e-01    1.600000e+00
 SP4ah  TX3e  1 3.780000e-01    1.450000e+00
 SP4ah  TX2e  1 3.780000e-01    1.450000e+00
 SP4ah  TX1e  1 3.940000e-01    1.290000e+00
 SP4ah  TP3q  1 3.650000e-01    3.370000e+00
 SP4ah  TP2q  1 3.650000e-01    3.370000e+00
 SP4ah  TP1q  1 3.650000e-01    3.100000e+00
 SP4ah  TN6q  1 3.650000e-01    2.830000e+00
 SP4ah  TN5q  1 3.650000e-01    2.570000e+00
 SP4ah  TN4q  1 3.650000e-01    2.570000e+00
 SP4ah  TN3q  1 3.650000e-01    2.340000e+00
 SP4ah  TN2q  1 3.650000e-01    2.110000e+00
 SP4ah  TN1q  1 3.650000e-01    1.910000e+00
 SP4ah  TC6q  1 3.650000e-01    1.910000e+00
 SP4ah  TC5q  1 3.650000e-01    1.750000e+00
 SP4ah  TC4q  1 3.660000e-01    1.600000e+00
 SP4ah  TC3q  1 3.780000e-01    1.450000e+00
 SP4ah  TC2q  1 3.780000e-01    1.450000e+00
 SP4ah  TC1q  1 3.940000e-01    1.290000e+00
 SP4ah  TX4q  1 3.650000e-01    2.110000e+00
 SP4ah  TX3q  1 3.650000e-01    1.910000e+00
 SP4ah  TX2q  1 3.650000e-01    1.910000e+00
 SP4ah  TX1q  1 3.650000e-01    1.750000e+00
 SP3ah  TP2a  1 3.650000e-01    2.570000e+00
 SP3ah  TP1a  1 3.650000e-01    2.340000e+00
 SP3ah  TN6a  1 3.650000e-01    2.110000e+00
 SP3ah  TN5a  1 3.650000e-01    1.910000e+00
 SP3ah  TN4a  1 3.650000e-01    1.910000e+00
 SP3ah  TN3a  1 3.650000e-01    1.750000e+00
 SP3ah  TN2a  1 3.650000e-01    1.750000e+00
 SP3ah  TN1a  1 3.650000e-01    1.750000e+00
 SP3ah  TC6v  1 3.650000e-01    1.910000e+00
 SP3ah  TC5v  1 3.650000e-01    1.750000e+00
 SP3ah  TC4v  1 3.660000e-01    1.600000e+00
 SP3ah  TC3v  1 3.940000e-01    1.290000e+00
 SP3ah  TC2v  1 3.940000e-01    1.290000e+00
 SP3ah  TC1v  1 4.040000e-01    1.130000e+00
 SP3ah  TX4v  1 3.650000e-01    1.910000e+00
 SP3ah  TX3v  1 3.650000e-01    1.910000e+00
 SP3ah  TX2v  1 3.650000e-01    1.750000e+00
 SP3ah  TX1v  1 3.660000e-01    1.600000e+00
 SP3ah  TC6e  1 3.660000e-01    1.600000e+00
 SP3ah  TC5e  1 3.780000e-01    1.450000e+00
 SP3ah  TC4e  1 3.940000e-01    1.290000e+00
 SP3ah  TC3e  1 4.090000e-01    1.080000e+00
 SP3ah  TC2e  1 4.090000e-01    1.080000e+00
 SP3ah  TC1e  1 4.230000e-01    9.810000e-01
 SP3ah  TX4e  1 3.660000e-01    1.600000e+00
 SP3ah  TX3e  1 3.660000e-01    1.600000e+00
 SP3ah  TX2e  1 3.780000e-01    1.450000e+00
 SP3ah  TX1e  1 3.940000e-01    1.290000e+00
 SP3ah  TP2q  1 3.650000e-01    3.370000e+00
 SP3ah  TP1q  1 3.650000e-01    3.100000e+00
 SP3ah  TN6q  1 3.650000e-01    2.830000e+00
 SP3ah  TN5q  1 3.650000e-01    2.570000e+00
 SP3ah  TN4q  1 3.650000e-01    2.570000e+00
 SP3ah  TN3q  1 3.650000e-01    2.340000e+00
 SP3ah  TN2q  1 3.650000e-01    2.340000e+00
 SP3ah  TN1q  1 3.650000e-01    2.110000e+00
 SP3ah  TC6q  1 3.650000e-01    2.110000e+00
 SP3ah  TC5q  1 3.650000e-01    1.910000e+00
 SP3ah  TC4q  1 3.650000e-01    1.750000e+00
 SP3ah  TC3q  1 3.780000e-01    1.450000e+00
 SP3ah  TC2q  1 3.780000e-01    1.450000e+00
 SP3ah  TC1q  1 3.940000e-01    1.290000e+00
 SP3ah  TX4q  1 3.650000e-01    2.110000e+00
 SP3ah  TX3q  1 3.650000e-01    2.110000e+00
 SP3ah  TX2q  1 3.650000e-01    1.910000e+00
 SP3ah  TX1q  1 3.650000e-01    1.750000e+00
 SP2ah  TP1a  1 3.650000e-01    2.340000e+00
 SP2ah  TN6a  1 3.650000e-01    2.340000e+00
 SP2ah  TN5a  1 3.650000e-01    2.110000e+00
 SP2ah  TN4a  1 3.650000e-01    1.910000e+00
 SP2ah  TN3a  1 3.650000e-01    1.750000e+00
 SP2ah  TN2a  1 3.650000e-01    1.750000e+00
 SP2ah  TN1a  1 3.650000e-01    1.750000e+00
 SP2ah  TC6v  1 3.650000e-01    1.910000e+00
 SP2ah  TC5v  1 3.650000e-01    1.750000e+00
 SP2ah  TC4v  1 3.660000e-01    1.600000e+00
 SP2ah  TC3v  1 3.780000e-01    1.450000e+00
 SP2ah  TC2v  1 3.780000e-01    1.450000e+00
 SP2ah  TC1v  1 3.940000e-01    1.290000e+00
 SP2ah  TX4v  1 3.650000e-01    1.910000e+00
 SP2ah  TX3v  1 3.650000e-01    1.910000e+00
 SP2ah  TX2v  1 3.650000e-01    1.750000e+00
 SP2ah  TX1v  1 3.660000e-01    1.600000e+00
 SP2ah  TC6e  1 3.660000e-01    1.600000e+00
 SP2ah  TC5e  1 3.780000e-01    1.450000e+00
 SP2ah  TC4e  1 3.940000e-01    1.290000e+00
 SP2ah  TC3e  1 4.040000e-01    1.130000e+00
 SP2ah  TC2e  1 4.040000e-01    1.130000e+00
 SP2ah  TC1e  1 4.090000e-01    1.080000e+00
 SP2ah  TX4e  1 3.660000e-01    1.600000e+00
 SP2ah  TX3e  1 3.660000e-01    1.600000e+00
 SP2ah  TX2e  1 3.780000e-01    1.450000e+00
 SP2ah  TX1e  1 3.940000e-01    1.290000e+00
 SP2ah  TP1q  1 3.650000e-01    3.100000e+00
 SP2ah  TN6q  1 3.650000e-01    3.100000e+00
 SP2ah  TN5q  1 3.650000e-01    2.830000e+00
 SP2ah  TN4q  1 3.650000e-01    2.570000e+00
 SP2ah  TN3q  1 3.650000e-01    2.340000e+00
 SP2ah  TN2q  1 3.650000e-01    2.340000e+00
 SP2ah  TN1q  1 3.650000e-01    2.340000e+00
 SP2ah  TC6q  1 3.650000e-01    2.110000e+00
 SP2ah  TC5q  1 3.650000e-01    1.910000e+00
 SP2ah  TC4q  1 3.650000e-01    1.750000e+00
 SP2ah  TC3q  1 3.660000e-01    1.600000e+00
 SP2ah  TC2q  1 3.660000e-01    1.600000e+00
 SP2ah  TC1q  1 3.780000e-01    1.450000e+00
 SP2ah  TX4q  1 3.650000e-01    2.110000e+00
 SP2ah  TX3q  1 3.650000e-01    2.110000e+00
 SP2ah  TX2q  1 3.650000e-01    1.910000e+00
 SP2ah  TX1q  1 3.650000e-01    1.750000e+00
 SP1ah  TN6a  1 3.650000e-01    2.340000e+00
 SP1ah  TN5a  1 3.650000e-01    2.110000e+00
 SP1ah  TN4a  1 3.650000e-01    2.110000e+00
 SP1ah  TN3a  1 3.650000e-01    1.750000e+00
 SP1ah  TN2a  1 3.650000e-01    1.750000e+00
 SP1ah  TN1a  1 3.650000e-01    1.750000e+00
 SP1ah  TC6v  1 3.650000e-01    1.910000e+00
 SP1ah  TC5v  1 3.650000e-01    1.750000e+00
 SP1ah  TC4v  1 3.660000e-01    1.600000e+00
 SP1ah  TC3v  1 3.780000e-01    1.450000e+00
 SP1ah  TC2v  1 3.780000e-01    1.450000e+00
 SP1ah  TC1v  1 3.940000e-01    1.290000e+00
 SP1ah  TX4v  1 3.650000e-01    1.910000e+00
 SP1ah  TX3v  1 3.650000e-01    1.910000e+00
 SP1ah  TX2v  1 3.650000e-01    1.750000e+00
 SP1ah  TX1v  1 3.660000e-01    1.600000e+00
 SP1ah  TC6e  1 3.660000e-01    1.600000e+00
 SP1ah  TC5e  1 3.780000e-01    1.450000e+00
 SP1ah  TC4e  1 3.940000e-01    1.290000e+00
 SP1ah  TC3e  1 4.040000e-01    1.130000e+00
 SP1ah  TC2e  1 4.040000e-01    1.130000e+00
 SP1ah  TC1e  1 4.090000e-01    1.080000e+00
 SP1ah  TX4e  1 3.660000e-01    1.600000e+00
 SP1ah  TX3e  1 3.660000e-01    1.600000e+00
 SP1ah  TX2e  1 3.780000e-01    1.450000e+00
 SP1ah  TX1e  1 3.940000e-01    1.290000e+00
 SP1ah  TN6q  1 3.650000e-01    3.100000e+00
 SP1ah  TN5q  1 3.650000e-01    2.830000e+00
 SP1ah  TN4q  1 3.650000e-01    2.830000e+00
 SP1ah  TN3q  1 3.650000e-01    2.340000e+00
 SP1ah  TN2q  1 3.650000e-01    2.340000e+00
 SP1ah  TN1q  1 3.650000e-01    2.340000e+00
 SP1ah  TC6q  1 3.650000e-01    2.110000e+00
 SP1ah  TC5q  1 3.650000e-01    1.910000e+00
 SP1ah  TC4q  1 3.650000e-01    1.750000e+00
 SP1ah  TC3q  1 3.660000e-01    1.600000e+00
 SP1ah  TC2q  1 3.660000e-01    1.600000e+00
 SP1ah  TC1q  1 3.780000e-01    1.450000e+00
 SP1ah  TX4q  1 3.650000e-01    2.110000e+00
 SP1ah  TX3q  1 3.650000e-01    2.110000e+00
 SP1ah  TX2q  1 3.650000e-01    1.910000e+00
 SP1ah  TX1q  1 3.650000e-01    1.750000e+00
 SN6ah  TN5a  1 3.650000e-01    2.340000e+00
 SN6ah  TN4a  1 3.650000e-01    2.340000e+00
 SN6ah  TN3a  1 3.650000e-01    1.910000e+00
 SN6ah  TN2a  1 3.650000e-01    1.750000e+00
 SN6ah  TN1a  1 3.650000e-01    1.750000e+00
 SN6ah  TC6v  1 3.650000e-01    2.110000e+00
 SN6ah  TC5v  1 3.650000e-01    1.910000e+00
 SN6ah  TC4v  1 3.650000e-01    1.750000e+00
 SN6ah  TC3v  1 3.660000e-01    1.600000e+00
 SN6ah  TC2v  1 3.660000e-01    1.600000e+00
 SN6ah  TC1v  1 3.780000e-01    1.450000e+00
 SN6ah  TX4v  1 3.650000e-01    2.110000e+00
 SN6ah  TX3v  1 3.650000e-01    1.910000e+00
 SN6ah  TX2v  1 3.650000e-01    1.750000e+00
 SN6ah  TX1v  1 3.660000e-01    1.600000e+00
 SN6ah  TC6e  1 3.650000e-01    1.750000e+00
 SN6ah  TC5e  1 3.660000e-01    1.600000e+00
 SN6ah  TC4e  1 3.780000e-01    1.450000e+00
 SN6ah  TC3e  1 3.940000e-01    1.290000e+00
 SN6ah  TC2e  1 3.940000e-01    1.290000e+00
 SN6ah  TC1e  1 4.040000e-01    1.130000e+00
 SN6ah  TX4e  1 3.650000e-01    1.750000e+00
 SN6ah  TX3e  1 3.660000e-01    1.600000e+00
 SN6ah  TX2e  1 3.780000e-01    1.450000e+00
 SN6ah  TX1e  1 3.940000e-01    1.290000e+00
 SN6ah  TN5q  1 3.650000e-01    3.100000e+00
 SN6ah  TN4q  1 3.650000e-01    3.100000e+00
 SN6ah  TN3q  1 3.650000e-01    2.570000e+00
 SN6ah  TN2q  1 3.650000e-01    2.340000e+00
 SN6ah  TN1q  1 3.650000e-01    2.340000e+00
 SN6ah  TC6q  1 3.650000e-01    2.340000e+00
 SN6ah  TC5q  1 3.650000e-01    2.110000e+00
 SN6ah  TC4q  1 3.650000e-01    1.910000e+00
 SN6ah  TC3q  1 3.650000e-01    1.750000e+00
 SN6ah  TC2q  1 3.650000e-01    1.750000e+00
 SN6ah  TC1q  1 3.660000e-01    1.600000e+00
 SN6ah  TX4q  1 3.650000e-01    2.340000e+00
 SN6ah  TX3q  1 3.650000e-01    2.110000e+00
 SN6ah  TX2q  1 3.650000e-01    1.910000e+00
 SN6ah  TX1q  1 3.650000e-01    1.750000e+00
 SN5ah  TN4a  1 3.650000e-01    2.110000e+00
 SN5ah  TN3a  1 3.650000e-01    1.910000e+00
 SN5ah  TN2a  1 3.650000e-01    1.910000e+00
 SN5ah  TN1a  1 3.650000e-01    1.750000e+00
 SN5ah  TC6v  1 3.650000e-01    2.110000e+00
 SN5ah  TC5v  1 3.650000e-01    1.910000e+00
 SN5ah  TC4v  1 3.650000e-01    1.750000e+00
 SN5ah  TC3v  1 3.650000e-01    1.750000e+00
 SN5ah  TC2v  1 3.660000e-01    1.600000e+00
 SN5ah  TC1v  1 3.780000e-01    1.450000e+00
 SN5ah  TX4v  1 3.650000e-01    2.340000e+00
 SN5ah  TX3v  1 3.650000e-01    2.110000e+00
 SN5ah  TX2v  1 3.650000e-01    1.910000e+00
 SN5ah  TX1v  1 3.650000e-01    1.750000e+00
 SN5ah  TC6e  1 3.650000e-01    1.750000e+00
 SN5ah  TC5e  1 3.660000e-01    1.600000e+00
 SN5ah  TC4e  1 3.780000e-01    1.450000e+00
 SN5ah  TC3e  1 3.780000e-01    1.450000e+00
 SN5ah  TC2e  1 3.940000e-01    1.290000e+00
 SN5ah  TC1e  1 4.040000e-01    1.130000e+00
 SN5ah  TX4e  1 3.650000e-01    1.910000e+00
 SN5ah  TX3e  1 3.650000e-01    1.750000e+00
 SN5ah  TX2e  1 3.660000e-01    1.600000e+00
 SN5ah  TX1e  1 3.780000e-01    1.450000e+00
 SN5ah  TN4q  1 3.650000e-01    2.830000e+00
 SN5ah  TN3q  1 3.650000e-01    2.570000e+00
 SN5ah  TN2q  1 3.650000e-01    2.570000e+00
 SN5ah  TN1q  1 3.650000e-01    2.340000e+00
 SN5ah  TC6q  1 3.650000e-01    2.340000e+00
 SN5ah  TC5q  1 3.650000e-01    2.110000e+00
 SN5ah  TC4q  1 3.650000e-01    1.910000e+00
 SN5ah  TC3q  1 3.650000e-01    1.910000e+00
 SN5ah  TC2q  1 3.650000e-01    1.750000e+00
 SN5ah  TC1q  1 3.660000e-01    1.600000e+00
 SN5ah  TX4q  1 3.650000e-01    2.570000e+00
 SN5ah  TX3q  1 3.650000e-01    2.340000e+00
 SN5ah  TX2q  1 3.650000e-01    2.110000e+00
 SN5ah  TX1q  1 3.650000e-01    1.910000e+00
 SN4ah  TN3a  1 3.650000e-01    1.910000e+00
 SN4ah  TN2a  1 3.650000e-01    1.910000e+00
 SN4ah  TN1a  1 3.650000e-01    1.750000e+00
 SN4ah  TC6v  1 3.650000e-01    2.110000e+00
 SN4ah  TC5v  1 3.650000e-01    1.910000e+00
 SN4ah  TC4v  1 3.650000e-01    1.910000e+00
 SN4ah  TC3v  1 3.650000e-01    1.750000e+00
 SN4ah  TC2v  1 3.660000e-01    1.600000e+00
 SN4ah  TC1v  1 3.780000e-01    1.450000e+00
 SN4ah  TX4v  1 3.650000e-01    2.570000e+00
 SN4ah  TX3v  1 3.650000e-01    2.340000e+00
 SN4ah  TX2v  1 3.650000e-01    1.910000e+00
 SN4ah  TX1v  1 3.650000e-01    1.750000e+00
 SN4ah  TC6e  1 3.650000e-01    1.750000e+00
 SN4ah  TC5e  1 3.660000e-01    1.600000e+00
 SN4ah  TC4e  1 3.660000e-01    1.600000e+00
 SN4ah  TC3e  1 3.780000e-01    1.450000e+00
 SN4ah  TC2e  1 3.940000e-01    1.290000e+00
 SN4ah  TC1e  1 4.040000e-01    1.130000e+00
 SN4ah  TX4e  1 3.650000e-01    2.110000e+00
 SN4ah  TX3e  1 3.650000e-01    1.910000e+00
 SN4ah  TX2e  1 3.660000e-01    1.600000e+00
 SN4ah  TX1e  1 3.780000e-01    1.450000e+00
 SN4ah  TN3q  1 3.650000e-01    2.570000e+00
 SN4ah  TN2q  1 3.650000e-01    2.570000e+00
 SN4ah  TN1q  1 3.650000e-01    2.340000e+00
 SN4ah  TC6q  1 3.650000e-01    2.340000e+00
 SN4ah  TC5q  1 3.650000e-01    2.110000e+00
 SN4ah  TC4q  1 3.650000e-01    2.110000e+00
 SN4ah  TC3q  1 3.650000e-01    1.910000e+00
 SN4ah  TC2q  1 3.650000e-01    1.750000e+00
 SN4ah  TC1q  1 3.660000e-01    1.600000e+00
 SN4ah  TX4q  1 3.650000e-01    2.830000e+00
 SN4ah  TX3q  1 3.650000e-01    2.570000e+00
 SN4ah  TX2q  1 3.650000e-01    2.110000e+00
 SN4ah  TX1q  1 3.650000e-01    1.910000e+00
 SN3ah  TN2a  1 3.650000e-01    1.910000e+00
 SN3ah  TN1a  1 3.650000e-01    1.750000e+00
 SN3ah  TC6v  1 3.650000e-01    2.110000e+00
 SN3ah  TC5v  1 3.650000e-01    1.910000e+00
 SN3ah  TC4v  1 3.650000e-01    1.910000e+00
 SN3ah  TC3v  1 3.650000e-01    1.750000e+00
 SN3ah  TC2v  1 3.650000e-01    1.750000e+00
 SN3ah  TC1v  1 3.660000e-01    1.600000e+00
 SN3ah  TX4v  1 3.650000e-01    2.340000e+00
 SN3ah  TX3v  1 3.650000e-01    2.110000e+00
 SN3ah  TX2v  1 3.650000e-01    1.910000e+00
 SN3ah  TX1v  1 3.650000e-01    1.910000e+00
 SN3ah  TC6e  1 3.650000e-01    1.750000e+00
 SN3ah  TC5e  1 3.660000e-01    1.600000e+00
 SN3ah  TC4e  1 3.660000e-01    1.600000e+00
 SN3ah  TC3e  1 3.780000e-01    1.450000e+00
 SN3ah  TC2e  1 3.780000e-01    1.450000e+00
 SN3ah  TC1e  1 3.940000e-01    1.290000e+00
 SN3ah  TX4e  1 3.650000e-01    1.910000e+00
 SN3ah  TX3e  1 3.650000e-01    1.750000e+00
 SN3ah  TX2e  1 3.660000e-01    1.600000e+00
 SN3ah  TX1e  1 3.660000e-01    1.600000e+00
 SN3ah  TN2q  1 3.650000e-01    2.570000e+00
 SN3ah  TN1q  1 3.650000e-01    2.340000e+00
 SN3ah  TC6q  1 3.650000e-01    2.340000e+00
 SN3ah  TC5q  1 3.650000e-01    2.110000e+00
 SN3ah  TC4q  1 3.650000e-01    2.110000e+00
 SN3ah  TC3q  1 3.650000e-01    1.910000e+00
 SN3ah  TC2q  1 3.650000e-01    1.910000e+00
 SN3ah  TC1q  1 3.650000e-01    1.750000e+00
 SN3ah  TX4q  1 3.650000e-01    2.570000e+00
 SN3ah  TX3q  1 3.650000e-01    2.340000e+00
 SN3ah  TX2q  1 3.650000e-01    2.110000e+00
 SN3ah  TX1q  1 3.650000e-01    2.110000e+00
 SN2ah  TN1a  1 3.650000e-01    1.750000e+00
 SN2ah  TC6v  1 3.650000e-01    2.110000e+00
 SN2ah  TC5v  1 3.650000e-01    1.910000e+00
 SN2ah  TC4v  1 3.650000e-01    1.910000e+00
 SN2ah  TC3v  1 3.650000e-01    1.910000e+00
 SN2ah  TC2v  1 3.650000e-01    1.750000e+00
 SN2ah  TC1v  1 3.660000e-01    1.600000e+00
 SN2ah  TX4v  1 3.650000e-01    2.340000e+00
 SN2ah  TX3v  1 3.650000e-01    2.110000e+00
 SN2ah  TX2v  1 3.650000e-01    1.910000e+00
 SN2ah  TX1v  1 3.650000e-01    1.910000e+00
 SN2ah  TC6e  1 3.650000e-01    1.750000e+00
 SN2ah  TC5e  1 3.660000e-01    1.600000e+00
 SN2ah  TC4e  1 3.660000e-01    1.600000e+00
 SN2ah  TC3e  1 3.660000e-01    1.600000e+00
 SN2ah  TC2e  1 3.780000e-01    1.450000e+00
 SN2ah  TC1e  1 3.940000e-01    1.290000e+00
 SN2ah  TX4e  1 3.650000e-01    1.910000e+00
 SN2ah  TX3e  1 3.650000e-01    1.750000e+00
 SN2ah  TX2e  1 3.660000e-01    1.600000e+00
 SN2ah  TX1e  1 3.660000e-01    1.600000e+00
 SN2ah  TN1q  1 3.650000e-01    2.340000e+00
 SN2ah  TC6q  1 3.650000e-01    2.340000e+00
 SN2ah  TC5q  1 3.650000e-01    2.110000e+00
 SN2ah  TC4q  1 3.650000e-01    2.110000e+00
 SN2ah  TC3q  1 3.650000e-01    2.110000e+00
 SN2ah  TC2q  1 3.650000e-01    1.910000e+00
 SN2ah  TC1q  1 3.650000e-01    1.750000e+00
 SN2ah  TX4q  1 3.650000e-01    2.570000e+00
 SN2ah  TX3q  1 3.650000e-01    2.340000e+00
 SN2ah  TX2q  1 3.650000e-01    2.110000e+00
 SN2ah  TX1q  1 3.650000e-01    2.110000e+00
 SN1ah  TC6v  1 3.650000e-01    2.340000e+00
 SN1ah  TC5v  1 3.650000e-01    2.110000e+00
 SN1ah  TC4v  1 3.650000e-01    2.110000e+00
 SN1ah  TC3v  1 3.650000e-01    1.910000e+00
 SN1ah  TC2v  1 3.650000e-01    1.750000e+00
 SN1ah  TC1v  1 3.660000e-01    1.600000e+00
 SN1ah  TX4v  1 3.650000e-01    2.110000e+00
 SN1ah  TX3v  1 3.650000e-01    2.110000e+00
 SN1ah  TX2v  1 3.650000e-01    1.910000e+00
 SN1ah  TX1v  1 3.650000e-01    1.910000e+00
 SN1ah  TC6e  1 3.650000e-01    1.910000e+00
 SN1ah  TC5e  1 3.650000e-01    1.750000e+00
 SN1ah  TC4e  1 3.650000e-01    1.750000e+00
 SN1ah  TC3e  1 3.660000e-01    1.600000e+00
 SN1ah  TC2e  1 3.780000e-01    1.450000e+00
 SN1ah  TC1e  1 3.940000e-01    1.290000e+00
 SN1ah  TX4e  1 3.650000e-01    1.750000e+00
 SN1ah  TX3e  1 3.650000e-01    1.750000e+00
 SN1ah  TX2e  1 3.660000e-01    1.600000e+00
 SN1ah  TX1e  1 3.660000e-01    1.600000e+00
 SN1ah  TC6q  1 3.650000e-01    2.570000e+00
 SN1ah  TC5q  1 3.650000e-01    2.340000e+00
 SN1ah  TC4q  1 3.650000e-01    2.340000e+00
 SN1ah  TC3q  1 3.650000e-01    2.110000e+00
 SN1ah  TC2q  1 3.650000e-01    1.910000e+00
 SN1ah  TC1q  1 3.650000e-01    1.750000e+00
 SN1ah  TX4q  1 3.650000e-01    2.340000e+00
 SN1ah  TX3q  1 3.650000e-01    2.340000e+00
 SN1ah  TX2q  1 3.650000e-01    2.110000e+00
 SN1ah  TX1q  1 3.650000e-01    2.110000e+00
 SC6vh  TC5v  1 3.650000e-01    1.750000e+00
 SC6vh  TC4v  1 3.650000e-01    1.750000e+00
 SC6vh  TC3v  1 3.660000e-01    1.600000e+00
 SC6vh  TC2v  1 3.780000e-01    1.450000e+00
 SC6vh  TC1v  1 3.940000e-01    1.290000e+00
 SC6vh  TX4v  1 3.650000e-01    1.750000e+00
 SC6vh  TX3v  1 3.650000e-01    1.750000e+00
 SC6vh  TX2v  1 3.650000e-01    1.750000e+00
 SC6vh  TX1v  1 3.650000e-01    1.750000e+00
 SC6vh  TC6e  1 3.650000e-01    2.570000e+00
 SC6vh  TC5e  1 3.650000e-01    2.340000e+00
 SC6vh  TC4e  1 3.650000e-01    2.340000e+00
 SC6vh  TC3e  1 3.650000e-01    2.110000e+00
 SC6vh  TC2e  1 3.650000e-01    1.910000e+00
 SC6vh  TC1e  1 3.650000e-01    1.750000e+00
 SC6vh  TX4e  1 3.650000e-01    2.340000e+00
 SC6vh  TX3e  1 3.650000e-01    2.340000e+00
 SC6vh  TX2e  1 3.650000e-01    2.340000e+00
 SC6vh  TX1e  1 3.650000e-01    2.340000e+00
 SC6vh  TC5q  1 3.650000e-01    2.570000e+00
 SC6vh  TC4q  1 3.650000e-01    2.570000e+00
 SC6vh  TC3q  1 3.650000e-01    2.340000e+00
 SC6vh  TC2q  1 3.650000e-01    2.110000e+00
 SC6vh  TC1q  1 3.650000e-01    1.910000e+00
 SC6vh  TX4q  1 3.650000e-01    2.570000e+00
 SC6vh  TX3q  1 3.650000e-01    2.570000e+00
 SC6vh  TX2q  1 3.650000e-01    2.570000e+00
 SC6vh  TX1q  1 3.650000e-01    2.570000e+00
 SC5vh  TC4v  1 3.650000e-01    1.750000e+00
 SC5vh  TC3v  1 3.660000e-01    1.600000e+00
 SC5vh  TC2v  1 3.780000e-01    1.450000e+00
 SC5vh  TC1v  1 3.780000e-01    1.450000e+00
 SC5vh  TX4v  1 3.660000e-01    1.600000e+00
 SC5vh  TX3v  1 3.660000e-01    1.600000e+00
 SC5vh  TX2v  1 3.660000e-01    1.600000e+00
 SC5vh  TX1v  1 3.650000e-01    1.750000e+00
 SC5vh  TC5e  1 3.650000e-01    2.340000e+00
 SC5vh  TC4e  1 3.650000e-01    2.340000e+00
 SC5vh  TC3e  1 3.650000e-01    2.110000e+00
 SC5vh  TC2e  1 3.650000e-01    1.910000e+00
 SC5vh  TC1e  1 3.650000e-01    1.910000e+00
 SC5vh  TX4e  1 3.650000e-01    2.110000e+00
 SC5vh  TX3e  1 3.650000e-01    2.110000e+00
 SC5vh  TX2e  1 3.650000e-01    2.110000e+00
 SC5vh  TX1e  1 3.650000e-01    2.340000e+00
 SC5vh  TC4q  1 3.650000e-01    2.570000e+00
 SC5vh  TC3q  1 3.650000e-01    2.340000e+00
 SC5vh  TC2q  1 3.650000e-01    2.110000e+00
 SC5vh  TC1q  1 3.650000e-01    2.110000e+00
 SC5vh  TX4q  1 3.650000e-01    2.340000e+00
 SC5vh  TX3q  1 3.650000e-01    2.340000e+00
 SC5vh  TX2q  1 3.650000e-01    2.340000e+00
 SC5vh  TX1q  1 3.650000e-01    2.570000e+00
 SC4vh  TC3v  1 3.650000e-01    1.750000e+00
 SC4vh  TC2v  1 3.660000e-01    1.600000e+00
 SC4vh  TC1v  1 3.780000e-01    1.450000e+00
 SC4vh  TX4v  1 3.660000e-01    1.600000e+00
 SC4vh  TX3v  1 3.660000e-01    1.600000e+00
 SC4vh  TX2v  1 3.660000e-01    1.600000e+00
 SC4vh  TX1v  1 3.650000e-01    1.750000e+00
 SC4vh  TC4e  1 3.650000e-01    2.340000e+00
 SC4vh  TC3e  1 3.650000e-01    2.340000e+00
 SC4vh  TC2e  1 3.650000e-01    2.110000e+00
 SC4vh  TC1e  1 3.650000e-01    1.910000e+00
 SC4vh  TX4e  1 3.650000e-01    2.110000e+00
 SC4vh  TX3e  1 3.650000e-01    2.110000e+00
 SC4vh  TX2e  1 3.650000e-01    2.110000e+00
 SC4vh  TX1e  1 3.650000e-01    2.340000e+00
 SC4vh  TC3q  1 3.650000e-01    2.570000e+00
 SC4vh  TC2q  1 3.650000e-01    2.340000e+00
 SC4vh  TC1q  1 3.650000e-01    2.110000e+00
 SC4vh  TX4q  1 3.650000e-01    2.340000e+00
 SC4vh  TX3q  1 3.650000e-01    2.340000e+00
 SC4vh  TX2q  1 3.650000e-01    2.340000e+00
 SC4vh  TX1q  1 3.650000e-01    2.570000e+00
 SC3vh  TC2v  1 3.650000e-01    1.750000e+00
 SC3vh  TC1v  1 3.650000e-01    1.750000e+00
 SC3vh  TX4v  1 3.660000e-01    1.600000e+00
 SC3vh  TX3v  1 3.660000e-01    1.600000e+00
 SC3vh  TX2v  1 3.660000e-01    1.600000e+00
 SC3vh  TX1v  1 3.650000e-01    1.750000e+00
 SC3vh  TC3e  1 3.650000e-01    2.340000e+00
 SC3vh  TC2e  1 3.650000e-01    2.340000e+00
 SC3vh  TC1e  1 3.650000e-01    2.340000e+00
 SC3vh  TX4e  1 3.650000e-01    2.110000e+00
 SC3vh  TX3e  1 3.650000e-01    2.110000e+00
 SC3vh  TX2e  1 3.650000e-01    2.110000e+00
 SC3vh  TX1e  1 3.650000e-01    2.340000e+00
 SC3vh  TC2q  1 3.650000e-01    2.570000e+00
 SC3vh  TC1q  1 3.650000e-01    2.570000e+00
 SC3vh  TX4q  1 3.650000e-01    2.340000e+00
 SC3vh  TX3q  1 3.650000e-01    2.340000e+00
 SC3vh  TX2q  1 3.650000e-01    2.340000e+00
 SC3vh  TX1q  1 3.650000e-01    2.570000e+00
 SC2vh  TC1v  1 3.650000e-01    1.910000e+00
 SC2vh  TX4v  1 3.940000e-01    1.290000e+00
 SC2vh  TX3v  1 3.660000e-01    1.600000e+00
 SC2vh  TX2v  1 3.660000e-01    1.600000e+00
 SC2vh  TX1v  1 3.660000e-01    1.600000e+00
 SC2vh  TC2e  1 3.650000e-01    2.340000e+00
 SC2vh  TC1e  1 3.650000e-01    2.570000e+00
 SC2vh  TX4e  1 3.650000e-01    1.750000e+00
 SC2vh  TX3e  1 3.650000e-01    2.110000e+00
 SC2vh  TX2e  1 3.650000e-01    2.110000e+00
 SC2vh  TX1e  1 3.650000e-01    2.110000e+00
 SC2vh  TC1q  1 3.650000e-01    2.830000e+00
 SC2vh  TX4q  1 3.650000e-01    1.910000e+00
 SC2vh  TX3q  1 3.650000e-01    2.340000e+00
 SC2vh  TX2q  1 3.650000e-01    2.340000e+00
 SC2vh  TX1q  1 3.650000e-01    2.340000e+00
 SC1vh  TX4v  1 3.940000e-01    1.290000e+00
 SC1vh  TX3v  1 3.660000e-01    1.600000e+00
 SC1vh  TX2v  1 3.660000e-01    1.600000e+00
 SC1vh  TX1v  1 3.660000e-01    1.600000e+00
 SC1vh  TC1e  1 3.650000e-01    2.340000e+00
 SC1vh  TX4e  1 3.650000e-01    1.750000e+00
 SC1vh  TX3e  1 3.650000e-01    2.110000e+00
 SC1vh  TX2e  1 3.650000e-01    2.110000e+00
 SC1vh  TX1e  1 3.650000e-01    2.110000e+00
 SC1vh  TX4q  1 3.650000e-01    1.910000e+00
 SC1vh  TX3q  1 3.650000e-01    2.340000e+00
 SC1vh  TX2q  1 3.650000e-01    2.340000e+00
 SC1vh  TX1q  1 3.650000e-01    2.340000e+00
 SX4vh  TX3v  1 3.650000e-01    1.750000e+00
 SX4vh  TX2v  1 3.650000e-01    1.750000e+00
 SX4vh  TX1v  1 3.650000e-01    1.750000e+00
 SX4vh  TX4e  1 3.650000e-01    2.340000e+00
 SX4vh  TX3e  1 3.650000e-01    2.340000e+00
 SX4vh  TX2e  1 3.650000e-01    2.340000e+00
 SX4vh  TX1e  1 3.650000e-01    2.340000e+00
 SX4vh  TX3q  1 3.650000e-01    2.570000e+00
 SX4vh  TX2q  1 3.650000e-01    2.570000e+00
 SX4vh  TX1q  1 3.650000e-01    2.570000e+00
 SX3vh  TX2v  1 3.650000e-01    1.910000e+00
 SX3vh  TX1v  1 3.650000e-01    1.910000e+00
 SX3vh  TX3e  1 3.650000e-01    2.340000e+00
 SX3vh  TX2e  1 3.650000e-01    2.570000e+00
 SX3vh  TX1e  1 3.650000e-01    2.570000e+00
 SX3vh  TX2q  1 3.650000e-01    2.830000e+00
 SX3vh  TX1q  1 3.650000e-01    2.830000e+00
 SX2vh  TX1v  1 3.650000e-01    1.910000e+00
 SX2vh  TX2e  1 3.650000e-01    2.570000e+00
 SX2vh  TX1e  1 3.650000e-01    2.570000e+00
 SX2vh  TX1q  1 3.650000e-01    2.830000e+00
 SX1vh  TX1e  1 3.650000e-01    2.830000e+00
 SC6eh  TC5e  1 3.650000e-01    1.750000e+00
 SC6eh  TC4e  1 3.650000e-01    1.750000e+00
 SC6eh  TC3e  1 3.660000e-01    1.600000e+00
 SC6eh  TC2e  1 3.780000e-01    1.450000e+00
 SC6eh  TC1e  1 3.940000e-01    1.290000e+00
 SC6eh  TX4e  1 3.650000e-01    1.750000e+00
 SC6eh  TX3e  1 3.650000e-01    1.750000e+00
 SC6eh  TX2e  1 3.650000e-01    1.750000e+00
 SC6eh  TX1e  1 3.650000e-01    1.750000e+00
 SC6eh  TC5q  1 3.650000e-01    2.570000e+00
 SC6eh  TC4q  1 3.650000e-01    2.570000e+00
 SC6eh  TC3q  1 3.650000e-01    2.340000e+00
 SC6eh  TC2q  1 3.650000e-01    2.110000e+00
 SC6eh  TC1q  1 3.650000e-01    1.910000e+00
 SC6eh  TX4q  1 3.650000e-01    2.570000e+00
 SC6eh  TX3q  1 3.650000e-01    2.570000e+00
 SC6eh  TX2q  1 3.650000e-01    2.570000e+00
 SC6eh  TX1q  1 3.650000e-01    2.570000e+00
 SC5eh  TC4e  1 3.650000e-01    1.750000e+00
 SC5eh  TC3e  1 3.660000e-01    1.600000e+00
 SC5eh  TC2e  1 3.780000e-01    1.450000e+00
 SC5eh  TC1e  1 3.780000e-01    1.450000e+00
 SC5eh  TX4e  1 3.660000e-01    1.600000e+00
 SC5eh  TX3e  1 3.660000e-01    1.600000e+00
 SC5eh  TX2e  1 3.660000e-01    1.600000e+00
 SC5eh  TX1e  1 3.650000e-01    1.750000e+00
 SC5eh  TC4q  1 3.650000e-01    2.570000e+00
 SC5eh  TC3q  1 3.650000e-01    2.340000e+00
 SC5eh  TC2q  1 3.650000e-01    2.110000e+00
 SC5eh  TC1q  1 3.650000e-01    2.110000e+00
 SC5eh  TX4q  1 3.650000e-01    2.340000e+00
 SC5eh  TX3q  1 3.650000e-01    2.340000e+00
 SC5eh  TX2q  1 3.650000e-01    2.340000e+00
 SC5eh  TX1q  1 3.650000e-01    2.570000e+00
 SC4eh  TC3e  1 3.650000e-01    1.750000e+00
 SC4eh  TC2e  1 3.660000e-01    1.600000e+00
 SC4eh  TC1e  1 3.780000e-01    1.450000e+00
 SC4eh  TX4e  1 3.660000e-01    1.600000e+00
 SC4eh  TX3e  1 3.660000e-01    1.600000e+00
 SC4eh  TX2e  1 3.660000e-01    1.600000e+00
 SC4eh  TX1e  1 3.650000e-01    1.750000e+00
 SC4eh  TC3q  1 3.650000e-01    2.570000e+00
 SC4eh  TC2q  1 3.650000e-01    2.340000e+00
 SC4eh  TC1q  1 3.650000e-01    2.110000e+00
 SC4eh  TX4q  1 3.650000e-01    2.340000e+00
 SC4eh  TX3q  1 3.650000e-01    2.340000e+00
 SC4eh  TX2q  1 3.650000e-01    2.340000e+00
 SC4eh  TX1q  1 3.650000e-01    2.570000e+00
 SC3eh  TC2e  1 3.650000e-01    1.750000e+00
 SC3eh  TC1e  1 3.650000e-01    1.750000e+00
 SC3eh  TX4e  1 3.660000e-01    1.600000e+00
 SC3eh  TX3e  1 3.660000e-01    1.600000e+00
 SC3eh  TX2e  1 3.660000e-01    1.600000e+00
 SC3eh  TX1e  1 3.650000e-01    1.750000e+00
 SC3eh  TC2q  1 3.650000e-01    2.570000e+00
 SC3eh  TC1q  1 3.650000e-01    2.570000e+00
 SC3eh  TX4q  1 3.650000e-01    2.340000e+00
 SC3eh  TX3q  1 3.650000e-01    2.340000e+00
 SC3eh  TX2q  1 3.650000e-01    2.340000e+00
 SC3eh  TX1q  1 3.650000e-01    2.570000e+00
 SC2eh  TC1e  1 3.650000e-01    1.910000e+00
 SC2eh  TX4e  1 3.940000e-01    1.290000e+00
 SC2eh  TX3e  1 3.660000e-01    1.600000e+00
 SC2eh  TX2e  1 3.660000e-01    1.600000e+00
 SC2eh  TX1e  1 3.660000e-01    1.600000e+00
 SC2eh  TC1q  1 3.650000e-01    2.830000e+00
 SC2eh  TX4q  1 3.650000e-01    1.910000e+00
 SC2eh  TX3q  1 3.650000e-01    2.340000e+00
 SC2eh  TX2q  1 3.650000e-01    2.340000e+00
 SC2eh  TX1q  1 3.650000e-01    2.340000e+00
 SC1eh  TX4e  1 3.940000e-01    1.290000e+00
 SC1eh  TX3e  1 3.660000e-01    1.600000e+00
 SC1eh  TX2e  1 3.660000e-01    1.600000e+00
 SC1eh  TX1e  1 3.660000e-01    1.600000e+00
 SC1eh  TX4q  1 3.650000e-01    1.910000e+00
 SC1eh  TX3q  1 3.650000e-01    2.340000e+00
 SC1eh  TX2q  1 3.650000e-01    2.340000e+00
 SC1eh  TX1q  1 3.650000e-01    2.340000e+00
 SX4eh  TX3e  1 3.650000e-01    1.750000e+00
 SX4eh  TX2e  1 3.650000e-01    1.750000e+00
 SX4eh  TX1e  1 3.650000e-01    1.750000e+00
 SX4eh  TX3q  1 3.650000e-01    2.570000e+00
 SX4eh  TX2q  1 3.650000e-01    2.570000e+00
 SX4eh  TX1q  1 3.650000e-01    2.570000e+00
 SX3eh  TX2e  1 3.650000e-01    1.910000e+00
 SX3eh  TX1e  1 3.650000e-01    1.910000e+00
 SX3eh  TX2q  1 3.650000e-01    2.830000e+00
 SX3eh  TX1q  1 3.650000e-01    2.830000e+00
 SX2eh  TX1e  1 3.650000e-01    1.910000e+00
 SX2eh  TX1q  1 3.650000e-01    2.830000e+00
 SX2eh  TX1v  1 3.650000e-01    2.570000e+00
 SX3eh  TX2v  1 3.650000e-01    2.570000e+00
 SX3eh  TX1v  1 3.650000e-01    2.570000e+00
 SX4eh  TX3v  1 3.650000e-01    2.340000e+00
 SX4eh  TX2v  1 3.650000e-01    2.340000e+00
 SX4eh  TX1v  1 3.650000e-01    2.340000e+00
 SC1eh  TX4v  1 3.650000e-01    1.750000e+00
 SC1eh  TX3v  1 3.650000e-01    2.110000e+00
 SC1eh  TX2v  1 3.650000e-01    2.110000e+00
 SC1eh  TX1v  1 3.650000e-01    2.110000e+00
 SC2eh  TC1v  1 3.650000e-01    2.570000e+00
 SC2eh  TX4v  1 3.650000e-01    1.750000e+00
 SC2eh  TX3v  1 3.650000e-01    2.110000e+00
 SC2eh  TX2v  1 3.650000e-01    2.110000e+00
 SC2eh  TX1v  1 3.650000e-01    2.110000e+00
 SC3eh  TC2v  1 3.650000e-01    2.340000e+00
 SC3eh  TC1v  1 3.650000e-01    2.340000e+00
 SC3eh  TX4v  1 3.650000e-01    2.110000e+00
 SC3eh  TX3v  1 3.650000e-01    2.110000e+00
 SC3eh  TX2v  1 3.650000e-01    2.110000e+00
 SC3eh  TX1v  1 3.650000e-01    2.340000e+00
 SC4eh  TC3v  1 3.650000e-01    2.340000e+00
 SC4eh  TC2v  1 3.650000e-01    2.110000e+00
 SC4eh  TC1v  1 3.650000e-01    1.910000e+00
 SC4eh  TX4v  1 3.650000e-01    2.110000e+00
 SC4eh  TX3v  1 3.650000e-01    2.110000e+00
 SC4eh  TX2v  1 3.650000e-01    2.110000e+00
 SC4eh  TX1v  1 3.650000e-01    2.340000e+00
 SC5eh  TC4v  1 3.650000e-01    2.340000e+00
 SC5eh  TC3v  1 3.650000e-01    2.110000e+00
 SC5eh  TC2v  1 3.650000e-01    1.910000e+00
 SC5eh  TC1v  1 3.650000e-01    1.910000e+00
 SC5eh  TX4v  1 3.650000e-01    2.110000e+00
 SC5eh  TX3v  1 3.650000e-01    2.110000e+00
 SC5eh  TX2v  1 3.650000e-01    2.110000e+00
 SC5eh  TX1v  1 3.650000e-01    2.340000e+00
 SC6eh  TC5v  1 3.650000e-01    2.340000e+00
 SC6eh  TC4v  1 3.650000e-01    2.340000e+00
 SC6eh  TC3v  1 3.650000e-01    2.110000e+00
 SC6eh  TC2v  1 3.650000e-01    1.910000e+00
 SC6eh  TC1v  1 3.650000e-01    1.750000e+00
 SC6eh  TX4v  1 3.650000e-01    2.340000e+00
 SC6eh  TX3v  1 3.650000e-01    2.340000e+00
 SC6eh  TX2v  1 3.650000e-01    2.340000e+00
 SC6eh  TX1v  1 3.650000e-01    2.340000e+00
 SN2ah  TN1d  1 3.650000e-01    2.110000e+00
 SN3ah  TN2d  1 3.650000e-01    2.340000e+00
 SN3ah  TN1d  1 3.650000e-01    2.110000e+00
 SN4ah  TN3d  1 3.650000e-01    2.340000e+00
 SN4ah  TN2d  1 3.650000e-01    2.340000e+00
 SN4ah  TN1d  1 3.650000e-01    2.110000e+00
 SN5ah  TN4d  1 3.650000e-01    2.570000e+00
 SN5ah  TN3d  1 3.650000e-01    2.340000e+00
 SN5ah  TN2d  1 3.650000e-01    2.340000e+00
 SN5ah  TN1d  1 3.650000e-01    2.110000e+00
 SN6ah  TN5d  1 3.650000e-01    2.830000e+00
 SN6ah  TN4d  1 3.650000e-01    2.830000e+00
 SN6ah  TN3d  1 3.650000e-01    2.340000e+00
 SN6ah  TN2d  1 3.650000e-01    2.110000e+00
 SN6ah  TN1d  1 3.650000e-01    2.110000e+00
 SP1ah  TN6d  1 3.650000e-01    2.830000e+00
 SP1ah  TN5d  1 3.650000e-01    2.570000e+00
 SP1ah  TN4d  1 3.650000e-01    2.570000e+00
 SP1ah  TN3d  1 3.650000e-01    2.110000e+00
 SP1ah  TN2d  1 3.650000e-01    2.110000e+00
 SP1ah  TN1d  1 3.650000e-01    2.110000e+00
 SP2ah  TP1d  1 3.650000e-01    2.830000e+00
 SP2ah  TN6d  1 3.650000e-01    2.830000e+00
 SP2ah  TN5d  1 3.650000e-01    2.570000e+00
 SP2ah  TN4d  1 3.650000e-01    2.340000e+00
 SP2ah  TN3d  1 3.650000e-01    2.110000e+00
 SP2ah  TN2d  1 3.650000e-01    2.110000e+00
 SP2ah  TN1d  1 3.650000e-01    2.110000e+00
 SP3ah  TP2d  1 3.650000e-01    3.100000e+00
 SP3ah  TP1d  1 3.650000e-01    2.830000e+00
 SP3ah  TN6d  1 3.650000e-01    2.570000e+00
 SP3ah  TN5d  1 3.650000e-01    2.340000e+00
 SP3ah  TN4d  1 3.650000e-01    2.340000e+00
 SP3ah  TN3d  1 3.650000e-01    2.110000e+00
 SP3ah  TN2d  1 3.650000e-01    2.110000e+00
 SP3ah  TN1d  1 3.650000e-01    1.750000e+00
 SP4ah  TP3d  1 3.650000e-01    3.100000e+00
 SP4ah  TP2d  1 3.650000e-01    3.100000e+00
 SP4ah  TP1d  1 3.650000e-01    2.830000e+00
 SP4ah  TN6d  1 3.650000e-01    2.570000e+00
 SP4ah  TN5d  1 3.650000e-01    2.340000e+00
 SP4ah  TN4d  1 3.650000e-01    2.340000e+00
 SP4ah  TN3d  1 3.650000e-01    2.110000e+00
 SP4ah  TN2d  1 3.650000e-01    1.750000e+00
 SP4ah  TN1d  1 3.660000e-01    1.600000e+00
 SP5ah  TP4d  1 3.650000e-01    3.370000e+00
 SP5ah  TP3d  1 3.650000e-01    3.100000e+00
 SP5ah  TP2d  1 3.650000e-01    3.100000e+00
 SP5ah  TP1d  1 3.650000e-01    2.830000e+00
 SP5ah  TN6d  1 3.650000e-01    2.570000e+00
 SP5ah  TN5d  1 3.650000e-01    2.340000e+00
 SP5ah  TN4d  1 3.650000e-01    2.340000e+00
 SP5ah  TN3d  1 3.650000e-01    1.750000e+00
 SP5ah  TN2d  1 3.660000e-01    1.600000e+00
 SP5ah  TN1d  1 3.780000e-01    1.450000e+00
 SP6ah  TP5d  1 3.650000e-01    3.930000e+00
 SP6ah  TP4d  1 3.650000e-01    3.640000e+00
 SP6ah  TP3d  1 3.650000e-01    3.370000e+00
 SP6ah  TP2d  1 3.650000e-01    3.370000e+00
 SP6ah  TP1d  1 3.650000e-01    3.100000e+00
 SP6ah  TN6d  1 3.650000e-01    2.830000e+00
 SP6ah  TN5d  1 3.650000e-01    2.340000e+00
 SP6ah  TN4d  1 3.650000e-01    2.110000e+00
 SP6ah  TN3d  1 3.650000e-01    1.750000e+00
 SP6ah  TN2d  1 3.660000e-01    1.600000e+00
 SP6ah  TN1d  1 3.780000e-01    1.450000e+00
 SP6aq  TP5r  1 3.650000e-01    4.220000e+00
 SP6dq  TP5r  1 3.650000e-01    4.220000e+00
 SP5aq  TP4r  1 3.650000e-01    3.640000e+00
 SP6aq  TP4r  1 3.650000e-01    3.930000e+00
 SP5dq  TP4r  1 3.650000e-01    3.640000e+00
 SP6dq  TP4r  1 3.650000e-01    3.930000e+00
 SP4aq  TP3r  1 3.650000e-01    3.370000e+00
 SP5aq  TP3r  1 3.650000e-01    3.370000e+00
 SP6aq  TP3r  1 3.650000e-01    3.640000e+00
 SP4dq  TP3r  1 3.650000e-01    3.370000e+00
 SP5dq  TP3r  1 3.650000e-01    3.370000e+00
 SP6dq  TP3r  1 3.650000e-01    3.640000e+00
 SP3aq  TP2r  1 3.650000e-01    3.370000e+00
 SP4aq  TP2r  1 3.650000e-01    3.370000e+00
 SP5aq  TP2r  1 3.650000e-01    3.370000e+00
 SP6aq  TP2r  1 3.650000e-01    3.640000e+00
 SP3dq  TP2r  1 3.650000e-01    3.370000e+00
 SP4dq  TP2r  1 3.650000e-01    3.370000e+00
 SP5dq  TP2r  1 3.650000e-01    3.370000e+00
 SP6dq  TP2r  1 3.650000e-01    3.640000e+00
 SP2aq  TP1r  1 3.650000e-01    3.100000e+00
 SP3aq  TP1r  1 3.650000e-01    3.100000e+00
 SP4aq  TP1r  1 3.650000e-01    3.100000e+00
 SP5aq  TP1r  1 3.650000e-01    3.100000e+00
 SP6aq  TP1r  1 3.650000e-01    3.370000e+00
 SP2dq  TP1r  1 3.650000e-01    3.100000e+00
 SP3dq  TP1r  1 3.650000e-01    3.100000e+00
 SP4dq  TP1r  1 3.650000e-01    3.100000e+00
 SP5dq  TP1r  1 3.650000e-01    3.100000e+00
 SP6dq  TP1r  1 3.650000e-01    3.370000e+00
 SP1aq  TN6r  1 3.650000e-01    3.100000e+00
 SP2aq  TN6r  1 3.650000e-01    3.100000e+00
 SP3aq  TN6r  1 3.650000e-01    2.830000e+00
 SP4aq  TN6r  1 3.650000e-01    2.830000e+00
 SP5aq  TN6r  1 3.650000e-01    2.830000e+00
 SP6aq  TN6r  1 3.650000e-01    3.100000e+00
 SP1dq  TN6r  1 3.650000e-01    3.100000e+00
 SP2dq  TN6r  1 3.650000e-01    3.100000e+00
 SP3dq  TN6r  1 3.650000e-01    2.830000e+00
 SP4dq  TN6r  1 3.650000e-01    2.830000e+00
 SP5dq  TN6r  1 3.650000e-01    2.830000e+00
 SP6dq  TN6r  1 3.650000e-01    3.100000e+00
 SN6aq  TN5r  1 3.650000e-01    3.100000e+00
 SP1aq  TN5r  1 3.650000e-01    2.830000e+00
 SP2aq  TN5r  1 3.650000e-01    2.830000e+00
 SP3aq  TN5r  1 3.650000e-01    2.570000e+00
 SP4aq  TN5r  1 3.650000e-01    2.570000e+00
 SP5aq  TN5r  1 3.650000e-01    2.570000e+00
 SP6aq  TN5r  1 3.650000e-01    2.570000e+00
 SN6dq  TN5r  1 3.650000e-01    3.100000e+00
 SP1dq  TN5r  1 3.650000e-01    2.830000e+00
 SP2dq  TN5r  1 3.650000e-01    2.830000e+00
 SP3dq  TN5r  1 3.650000e-01    2.570000e+00
 SP4dq  TN5r  1 3.650000e-01    2.570000e+00
 SP5dq  TN5r  1 3.650000e-01    2.570000e+00
 SP6dq  TN5r  1 3.650000e-01    2.570000e+00
 SN5aq  TN4r  1 3.650000e-01    2.830000e+00
 SN6aq  TN4r  1 3.650000e-01    3.100000e+00
 SP1aq  TN4r  1 3.650000e-01    2.830000e+00
 SP2aq  TN4r  1 3.650000e-01    2.570000e+00
 SP3aq  TN4r  1 3.650000e-01    2.570000e+00
 SP4aq  TN4r  1 3.650000e-01    2.570000e+00
 SP5aq  TN4r  1 3.650000e-01    2.570000e+00
 SP6aq  TN4r  1 3.650000e-01    2.340000e+00
 SN5dq  TN4r  1 3.650000e-01    2.830000e+00
 SN6dq  TN4r  1 3.650000e-01    3.100000e+00
 SP1dq  TN4r  1 3.650000e-01    2.830000e+00
 SP2dq  TN4r  1 3.650000e-01    2.570000e+00
 SP3dq  TN4r  1 3.650000e-01    2.570000e+00
 SP4dq  TN4r  1 3.650000e-01    2.570000e+00
 SP5dq  TN4r  1 3.650000e-01    2.570000e+00
 SP6dq  TN4r  1 3.650000e-01    2.340000e+00
 SN4aq  TN3r  1 3.650000e-01    2.570000e+00
 SN5aq  TN3r  1 3.650000e-01    2.570000e+00
 SN6aq  TN3r  1 3.650000e-01    2.570000e+00
 SP1aq  TN3r  1 3.650000e-01    2.340000e+00
 SP2aq  TN3r  1 3.650000e-01    2.340000e+00
 SP3aq  TN3r  1 3.650000e-01    2.340000e+00
 SP4aq  TN3r  1 3.650000e-01    2.340000e+00
 SP5aq  TN3r  1 3.650000e-01    2.110000e+00
 SP6aq  TN3r  1 3.650000e-01    2.110000e+00
 SN4dq  TN3r  1 3.650000e-01    2.570000e+00
 SN5dq  TN3r  1 3.650000e-01    2.570000e+00
 SN6dq  TN3r  1 3.650000e-01    2.570000e+00
 SP1dq  TN3r  1 3.650000e-01    2.340000e+00
 SP2dq  TN3r  1 3.650000e-01    2.340000e+00
 SP3dq  TN3r  1 3.650000e-01    2.340000e+00
 SP4dq  TN3r  1 3.650000e-01    2.340000e+00
 SP5dq  TN3r  1 3.650000e-01    2.110000e+00
 SP6dq  TN3r  1 3.650000e-01    2.110000e+00
 SN3aq  TN2r  1 3.650000e-01    2.570000e+00
 SN4aq  TN2r  1 3.650000e-01    2.570000e+00
 SN5aq  TN2r  1 3.650000e-01    2.570000e+00
 SN6aq  TN2r  1 3.650000e-01    2.340000e+00
 SP1aq  TN2r  1 3.650000e-01    2.340000e+00
 SP2aq  TN2r  1 3.650000e-01    2.340000e+00
 SP3aq  TN2r  1 3.650000e-01    2.340000e+00
 SP4aq  TN2r  1 3.650000e-01    2.110000e+00
 SP5aq  TN2r  1 3.650000e-01    1.910000e+00
 SP6aq  TN2r  1 3.650000e-01    1.910000e+00
 SN3dq  TN2r  1 3.650000e-01    2.570000e+00
 SN4dq  TN2r  1 3.650000e-01    2.570000e+00
 SN5dq  TN2r  1 3.650000e-01    2.570000e+00
 SN6dq  TN2r  1 3.650000e-01    2.340000e+00
 SP1dq  TN2r  1 3.650000e-01    2.340000e+00
 SP2dq  TN2r  1 3.650000e-01    2.340000e+00
 SP3dq  TN2r  1 3.650000e-01    2.340000e+00
 SP4dq  TN2r  1 3.650000e-01    2.110000e+00
 SP5dq  TN2r  1 3.650000e-01    1.910000e+00
 SP6dq  TN2r  1 3.650000e-01    1.910000e+00
 SN2aq  TN1r  1 3.650000e-01    2.340000e+00
 SN3aq  TN1r  1 3.650000e-01    2.340000e+00
 SN4aq  TN1r  1 3.650000e-01    2.340000e+00
 SN5aq  TN1r  1 3.650000e-01    2.340000e+00
 SN6aq  TN1r  1 3.650000e-01    2.340000e+00
 SP1aq  TN1r  1 3.650000e-01    2.340000e+00
 SP2aq  TN1r  1 3.650000e-01    2.340000e+00
 SP3aq  TN1r  1 3.650000e-01    2.110000e+00
 SP4aq  TN1r  1 3.650000e-01    1.910000e+00
 SP5aq  TN1r  1 3.650000e-01    1.750000e+00
 SP6aq  TN1r  1 3.650000e-01    1.750000e+00
 SN2dq  TN1r  1 3.650000e-01    2.340000e+00
 SN3dq  TN1r  1 3.650000e-01    2.340000e+00
 SN4dq  TN1r  1 3.650000e-01    2.340000e+00
 SN5dq  TN1r  1 3.650000e-01    2.340000e+00
 SN6dq  TN1r  1 3.650000e-01    2.340000e+00
 SP1dq  TN1r  1 3.650000e-01    2.340000e+00
 SP2dq  TN1r  1 3.650000e-01    2.340000e+00
 SP3dq  TN1r  1 3.650000e-01    2.110000e+00
 SP4dq  TN1r  1 3.650000e-01    1.910000e+00
 SP5dq  TN1r  1 3.650000e-01    1.750000e+00
 SP6dq  TN1r  1 3.650000e-01    1.750000e+00
 SN1aq  TC6r  1 3.650000e-01    2.570000e+00
 SN2aq  TC6r  1 3.650000e-01    2.340000e+00
 SN3aq  TC6r  1 3.650000e-01    2.340000e+00
 SN4aq  TC6r  1 3.650000e-01    2.340000e+00
 SN5aq  TC6r  1 3.650000e-01    2.340000e+00
 SN6aq  TC6r  1 3.650000e-01    2.340000e+00
 SP1aq  TC6r  1 3.650000e-01    2.110000e+00
 SP2aq  TC6r  1 3.650000e-01    2.110000e+00
 SP3aq  TC6r  1 3.650000e-01    2.110000e+00
 SP4aq  TC6r  1 3.650000e-01    1.910000e+00
 SP5aq  TC6r  1 3.650000e-01    1.750000e+00
 SP6aq  TC6r  1 3.650000e-01    1.750000e+00
 SN1dq  TC6r  1 3.650000e-01    2.570000e+00
 SN2dq  TC6r  1 3.650000e-01    2.340000e+00
 SN3dq  TC6r  1 3.650000e-01    2.340000e+00
 SN4dq  TC6r  1 3.650000e-01    2.340000e+00
 SN5dq  TC6r  1 3.650000e-01    2.340000e+00
 SN6dq  TC6r  1 3.650000e-01    2.340000e+00
 SP1dq  TC6r  1 3.650000e-01    2.110000e+00
 SP2dq  TC6r  1 3.650000e-01    2.110000e+00
 SP3dq  TC6r  1 3.650000e-01    2.110000e+00
 SP4dq  TC6r  1 3.650000e-01    1.910000e+00
 SP5dq  TC6r  1 3.650000e-01    1.750000e+00
 SP6dq  TC6r  1 3.650000e-01    1.750000e+00
 SC6eq  TC5r  1 3.650000e-01    2.570000e+00
 SC6vq  TC5r  1 3.650000e-01    2.570000e+00
 SN1aq  TC5r  1 3.650000e-01    2.340000e+00
 SN2aq  TC5r  1 3.650000e-01    2.110000e+00
 SN3aq  TC5r  1 3.650000e-01    2.110000e+00
 SN4aq  TC5r  1 3.650000e-01    2.110000e+00
 SN5aq  TC5r  1 3.650000e-01    2.110000e+00
 SN6aq  TC5r  1 3.650000e-01    2.110000e+00
 SP1aq  TC5r  1 3.650000e-01    1.910000e+00
 SP2aq  TC5r  1 3.650000e-01    1.910000e+00
 SP3aq  TC5r  1 3.650000e-01    1.910000e+00
 SP4aq  TC5r  1 3.650000e-01    1.750000e+00
 SP5aq  TC5r  1 3.650000e-01    1.750000e+00
 SP6aq  TC5r  1 3.660000e-01    1.600000e+00
 SN1dq  TC5r  1 3.650000e-01    2.340000e+00
 SN2dq  TC5r  1 3.650000e-01    2.110000e+00
 SN3dq  TC5r  1 3.650000e-01    2.110000e+00
 SN4dq  TC5r  1 3.650000e-01    2.110000e+00
 SN5dq  TC5r  1 3.650000e-01    2.110000e+00
 SN6dq  TC5r  1 3.650000e-01    2.110000e+00
 SP1dq  TC5r  1 3.650000e-01    1.910000e+00
 SP2dq  TC5r  1 3.650000e-01    1.910000e+00
 SP3dq  TC5r  1 3.650000e-01    1.910000e+00
 SP4dq  TC5r  1 3.650000e-01    1.750000e+00
 SP5dq  TC5r  1 3.650000e-01    1.750000e+00
 SP6dq  TC5r  1 3.660000e-01    1.600000e+00
 SC5eq  TC4r  1 3.650000e-01    2.570000e+00
 SC6eq  TC4r  1 3.650000e-01    2.570000e+00
 SC5vq  TC4r  1 3.650000e-01    2.570000e+00
 SC6vq  TC4r  1 3.650000e-01    2.570000e+00
 SN1aq  TC4r  1 3.650000e-01    2.340000e+00
 SN2aq  TC4r  1 3.650000e-01    2.110000e+00
 SN3aq  TC4r  1 3.650000e-01    2.110000e+00
 SN4aq  TC4r  1 3.650000e-01    2.110000e+00
 SN5aq  TC4r  1 3.650000e-01    1.910000e+00
 SN6aq  TC4r  1 3.650000e-01    1.910000e+00
 SP1aq  TC4r  1 3.650000e-01    1.750000e+00
 SP2aq  TC4r  1 3.650000e-01    1.750000e+00
 SP3aq  TC4r  1 3.650000e-01    1.750000e+00
 SP4aq  TC4r  1 3.660000e-01    1.600000e+00
 SP5aq  TC4r  1 3.660000e-01    1.600000e+00
 SP6aq  TC4r  1 3.780000e-01    1.450000e+00
 SN1dq  TC4r  1 3.650000e-01    2.340000e+00
 SN2dq  TC4r  1 3.650000e-01    2.110000e+00
 SN3dq  TC4r  1 3.650000e-01    2.110000e+00
 SN4dq  TC4r  1 3.650000e-01    2.110000e+00
 SN5dq  TC4r  1 3.650000e-01    1.910000e+00
 SN6dq  TC4r  1 3.650000e-01    1.910000e+00
 SP1dq  TC4r  1 3.650000e-01    1.750000e+00
 SP2dq  TC4r  1 3.650000e-01    1.750000e+00
 SP3dq  TC4r  1 3.650000e-01    1.750000e+00
 SP4dq  TC4r  1 3.660000e-01    1.600000e+00
 SP5dq  TC4r  1 3.660000e-01    1.600000e+00
 SP6dq  TC4r  1 3.780000e-01    1.450000e+00
 SC4eq  TC3r  1 3.650000e-01    2.570000e+00
 SC5eq  TC3r  1 3.650000e-01    2.340000e+00
 SC6eq  TC3r  1 3.650000e-01    2.340000e+00
 SC4vq  TC3r  1 3.650000e-01    2.570000e+00
 SC5vq  TC3r  1 3.650000e-01    2.340000e+00
 SC6vq  TC3r  1 3.650000e-01    2.340000e+00
 SN1aq  TC3r  1 3.650000e-01    2.110000e+00
 SN2aq  TC3r  1 3.650000e-01    2.110000e+00
 SN3aq  TC3r  1 3.650000e-01    1.910000e+00
 SN4aq  TC3r  1 3.650000e-01    1.910000e+00
 SN5aq  TC3r  1 3.650000e-01    1.910000e+00
 SN6aq  TC3r  1 3.650000e-01    1.750000e+00
 SP1aq  TC3r  1 3.660000e-01    1.600000e+00
 SP2aq  TC3r  1 3.660000e-01    1.600000e+00
 SP3aq  TC3r  1 3.780000e-01    1.450000e+00
 SP4aq  TC3r  1 3.780000e-01    1.450000e+00
 SP5aq  TC3r  1 3.780000e-01    1.450000e+00
 SP6aq  TC3r  1 3.940000e-01    1.290000e+00
 SN1dq  TC3r  1 3.650000e-01    2.110000e+00
 SN2dq  TC3r  1 3.650000e-01    2.110000e+00
 SN3dq  TC3r  1 3.650000e-01    1.910000e+00
 SN4dq  TC3r  1 3.650000e-01    1.910000e+00
 SN5dq  TC3r  1 3.650000e-01    1.910000e+00
 SN6dq  TC3r  1 3.650000e-01    1.750000e+00
 SP1dq  TC3r  1 3.660000e-01    1.600000e+00
 SP2dq  TC3r  1 3.660000e-01    1.600000e+00
 SP3dq  TC3r  1 3.780000e-01    1.450000e+00
 SP4dq  TC3r  1 3.780000e-01    1.450000e+00
 SP5dq  TC3r  1 3.780000e-01    1.450000e+00
 SP6dq  TC3r  1 3.940000e-01    1.290000e+00
 SC3eq  TC2r  1 3.650000e-01    2.570000e+00
 SC4eq  TC2r  1 3.650000e-01    2.340000e+00
 SC5eq  TC2r  1 3.650000e-01    2.110000e+00
 SC6eq  TC2r  1 3.650000e-01    2.110000e+00
 SC3vq  TC2r  1 3.650000e-01    2.570000e+00
 SC4vq  TC2r  1 3.650000e-01    2.340000e+00
 SC5vq  TC2r  1 3.650000e-01    2.110000e+00
 SC6vq  TC2r  1 3.650000e-01    2.110000e+00
 SN1aq  TC2r  1 3.650000e-01    1.910000e+00
 SN2aq  TC2r  1 3.650000e-01    1.910000e+00
 SN3aq  TC2r  1 3.650000e-01    1.910000e+00
 SN4aq  TC2r  1 3.650000e-01    1.750000e+00
 SN5aq  TC2r  1 3.650000e-01    1.750000e+00
 SN6aq  TC2r  1 3.650000e-01    1.750000e+00
 SP1aq  TC2r  1 3.660000e-01    1.600000e+00
 SP2aq  TC2r  1 3.660000e-01    1.600000e+00
 SP3aq  TC2r  1 3.780000e-01    1.450000e+00
 SP4aq  TC2r  1 3.780000e-01    1.450000e+00
 SP5aq  TC2r  1 3.780000e-01    1.450000e+00
 SP6aq  TC2r  1 3.940000e-01    1.290000e+00
 SN1dq  TC2r  1 3.650000e-01    1.910000e+00
 SN2dq  TC2r  1 3.650000e-01    1.910000e+00
 SN3dq  TC2r  1 3.650000e-01    1.910000e+00
 SN4dq  TC2r  1 3.650000e-01    1.750000e+00
 SN5dq  TC2r  1 3.650000e-01    1.750000e+00
 SN6dq  TC2r  1 3.650000e-01    1.750000e+00
 SP1dq  TC2r  1 3.660000e-01    1.600000e+00
 SP2dq  TC2r  1 3.660000e-01    1.600000e+00
 SP3dq  TC2r  1 3.780000e-01    1.450000e+00
 SP4dq  TC2r  1 3.780000e-01    1.450000e+00
 SP5dq  TC2r  1 3.780000e-01    1.450000e+00
 SP6dq  TC2r  1 3.940000e-01    1.290000e+00
 SC2eq  TC1r  1 3.650000e-01    2.830000e+00
 SC3eq  TC1r  1 3.650000e-01    2.570000e+00
 SC4eq  TC1r  1 3.650000e-01    2.110000e+00
 SC5eq  TC1r  1 3.650000e-01    2.110000e+00
 SC6eq  TC1r  1 3.650000e-01    1.910000e+00
 SC2vq  TC1r  1 3.650000e-01    2.830000e+00
 SC3vq  TC1r  1 3.650000e-01    2.570000e+00
 SC4vq  TC1r  1 3.650000e-01    2.110000e+00
 SC5vq  TC1r  1 3.650000e-01    2.110000e+00
 SC6vq  TC1r  1 3.650000e-01    1.910000e+00
 SN1aq  TC1r  1 3.650000e-01    1.750000e+00
 SN2aq  TC1r  1 3.650000e-01    1.750000e+00
 SN3aq  TC1r  1 3.650000e-01    1.750000e+00
 SN4aq  TC1r  1 3.660000e-01    1.600000e+00
 SN5aq  TC1r  1 3.660000e-01    1.600000e+00
 SN6aq  TC1r  1 3.660000e-01    1.600000e+00
 SP1aq  TC1r  1 3.780000e-01    1.450000e+00
 SP2aq  TC1r  1 3.780000e-01    1.450000e+00
 SP3aq  TC1r  1 3.940000e-01    1.290000e+00
 SP4aq  TC1r  1 3.940000e-01    1.290000e+00
 SP5aq  TC1r  1 3.940000e-01    1.290000e+00
 SP6aq  TC1r  1 4.090000e-01    1.080000e+00
 SN1dq  TC1r  1 3.650000e-01    1.750000e+00
 SN2dq  TC1r  1 3.650000e-01    1.750000e+00
 SN3dq  TC1r  1 3.650000e-01    1.750000e+00
 SN4dq  TC1r  1 3.660000e-01    1.600000e+00
 SN5dq  TC1r  1 3.660000e-01    1.600000e+00
 SN6dq  TC1r  1 3.660000e-01    1.600000e+00
 SP1dq  TC1r  1 3.780000e-01    1.450000e+00
 SP2dq  TC1r  1 3.780000e-01    1.450000e+00
 SP3dq  TC1r  1 3.940000e-01    1.290000e+00
 SP4dq  TC1r  1 3.940000e-01    1.290000e+00
 SP5dq  TC1r  1 3.940000e-01    1.290000e+00
 SP6dq  TC1r  1 4.090000e-01    1.080000e+00
 SC1eq  TX4r  1 3.650000e-01    1.910000e+00
 SC2eq  TX4r  1 3.650000e-01    1.910000e+00
 SC3eq  TX4r  1 3.650000e-01    2.340000e+00
 SC4eq  TX4r  1 3.650000e-01    2.340000e+00
 SC5eq  TX4r  1 3.650000e-01    2.340000e+00
 SC6eq  TX4r  1 3.650000e-01    2.570000e+00
 SC1vq  TX4r  1 3.650000e-01    1.910000e+00
 SC2vq  TX4r  1 3.650000e-01    1.910000e+00
 SC3vq  TX4r  1 3.650000e-01    2.340000e+00
 SC4vq  TX4r  1 3.650000e-01    2.340000e+00
 SC5vq  TX4r  1 3.650000e-01    2.340000e+00
 SC6vq  TX4r  1 3.650000e-01    2.570000e+00
 SN1aq  TX4r  1 3.650000e-01    2.340000e+00
 SN2aq  TX4r  1 3.650000e-01    2.570000e+00
 SN3aq  TX4r  1 3.650000e-01    2.570000e+00
 SN4aq  TX4r  1 3.650000e-01    2.830000e+00
 SN5aq  TX4r  1 3.650000e-01    2.570000e+00
 SN6aq  TX4r  1 3.650000e-01    2.340000e+00
 SP1aq  TX4r  1 3.650000e-01    2.110000e+00
 SP2aq  TX4r  1 3.650000e-01    2.110000e+00
 SP3aq  TX4r  1 3.650000e-01    2.110000e+00
 SP4aq  TX4r  1 3.650000e-01    2.110000e+00
 SP5aq  TX4r  1 3.650000e-01    2.110000e+00
 SP6aq  TX4r  1 3.650000e-01    1.910000e+00
 SN1dq  TX4r  1 3.650000e-01    2.340000e+00
 SN2dq  TX4r  1 3.650000e-01    2.570000e+00
 SN3dq  TX4r  1 3.650000e-01    2.570000e+00
 SN4dq  TX4r  1 3.650000e-01    2.830000e+00
 SN5dq  TX4r  1 3.650000e-01    2.570000e+00
 SN6dq  TX4r  1 3.650000e-01    2.340000e+00
 SP1dq  TX4r  1 3.650000e-01    2.110000e+00
 SP2dq  TX4r  1 3.650000e-01    2.110000e+00
 SP3dq  TX4r  1 3.650000e-01    2.110000e+00
 SP4dq  TX4r  1 3.650000e-01    2.110000e+00
 SP5dq  TX4r  1 3.650000e-01    2.110000e+00
 SP6dq  TX4r  1 3.650000e-01    1.910000e+00
 SX4eq  TX3r  1 3.650000e-01    2.570000e+00
 SC1eq  TX3r  1 3.650000e-01    2.340000e+00
 SC2eq  TX3r  1 3.650000e-01    2.340000e+00
 SC3eq  TX3r  1 3.650000e-01    2.340000e+00
 SC4eq  TX3r  1 3.650000e-01    2.340000e+00
 SC5eq  TX3r  1 3.650000e-01    2.340000e+00
 SC6eq  TX3r  1 3.650000e-01    2.570000e+00
 SX4vq  TX3r  1 3.650000e-01    2.570000e+00
 SC1vq  TX3r  1 3.650000e-01    2.340000e+00
 SC2vq  TX3r  1 3.650000e-01    2.340000e+00
 SC3vq  TX3r  1 3.650000e-01    2.340000e+00
 SC4vq  TX3r  1 3.650000e-01    2.340000e+00
 SC5vq  TX3r  1 3.650000e-01    2.340000e+00
 SC6vq  TX3r  1 3.650000e-01    2.570000e+00
 SN1aq  TX3r  1 3.650000e-01    2.340000e+00
 SN2aq  TX3r  1 3.650000e-01    2.340000e+00
 SN3aq  TX3r  1 3.650000e-01    2.340000e+00
 SN4aq  TX3r  1 3.650000e-01    2.570000e+00
 SN5aq  TX3r  1 3.650000e-01    2.340000e+00
 SN6aq  TX3r  1 3.650000e-01    2.110000e+00
 SP1aq  TX3r  1 3.650000e-01    2.110000e+00
 SP2aq  TX3r  1 3.650000e-01    2.110000e+00
 SP3aq  TX3r  1 3.650000e-01    2.110000e+00
 SP4aq  TX3r  1 3.650000e-01    1.910000e+00
 SP5aq  TX3r  1 3.650000e-01    1.910000e+00
 SP6aq  TX3r  1 3.650000e-01    1.910000e+00
 SN1dq  TX3r  1 3.650000e-01    2.340000e+00
 SN2dq  TX3r  1 3.650000e-01    2.340000e+00
 SN3dq  TX3r  1 3.650000e-01    2.340000e+00
 SN4dq  TX3r  1 3.650000e-01    2.570000e+00
 SN5dq  TX3r  1 3.650000e-01    2.340000e+00
 SN6dq  TX3r  1 3.650000e-01    2.110000e+00
 SP1dq  TX3r  1 3.650000e-01    2.110000e+00
 SP2dq  TX3r  1 3.650000e-01    2.110000e+00
 SP3dq  TX3r  1 3.650000e-01    2.110000e+00
 SP4dq  TX3r  1 3.650000e-01    1.910000e+00
 SP5dq  TX3r  1 3.650000e-01    1.910000e+00
 SP6dq  TX3r  1 3.650000e-01    1.910000e+00
 SX3eq  TX2r  1 3.650000e-01    2.830000e+00
 SX4eq  TX2r  1 3.650000e-01    2.570000e+00
 SC1eq  TX2r  1 3.650000e-01    2.340000e+00
 SC2eq  TX2r  1 3.650000e-01    2.340000e+00
 SC3eq  TX2r  1 3.650000e-01    2.340000e+00
 SC4eq  TX2r  1 3.650000e-01    2.340000e+00
 SC5eq  TX2r  1 3.650000e-01    2.340000e+00
 SC6eq  TX2r  1 3.650000e-01    2.570000e+00
 SX3vq  TX2r  1 3.650000e-01    2.830000e+00
 SX4vq  TX2r  1 3.650000e-01    2.570000e+00
 SC1vq  TX2r  1 3.650000e-01    2.340000e+00
 SC2vq  TX2r  1 3.650000e-01    2.340000e+00
 SC3vq  TX2r  1 3.650000e-01    2.340000e+00
 SC4vq  TX2r  1 3.650000e-01    2.340000e+00
 SC5vq  TX2r  1 3.650000e-01    2.340000e+00
 SC6vq  TX2r  1 3.650000e-01    2.570000e+00
 SN1aq  TX2r  1 3.650000e-01    2.110000e+00
 SN2aq  TX2r  1 3.650000e-01    2.110000e+00
 SN3aq  TX2r  1 3.650000e-01    2.110000e+00
 SN4aq  TX2r  1 3.650000e-01    2.110000e+00
 SN5aq  TX2r  1 3.650000e-01    2.110000e+00
 SN6aq  TX2r  1 3.650000e-01    1.910000e+00
 SP1aq  TX2r  1 3.650000e-01    1.910000e+00
 SP2aq  TX2r  1 3.650000e-01    1.910000e+00
 SP3aq  TX2r  1 3.650000e-01    1.910000e+00
 SP4aq  TX2r  1 3.650000e-01    1.910000e+00
 SP5aq  TX2r  1 3.650000e-01    1.910000e+00
 SP6aq  TX2r  1 3.650000e-01    1.750000e+00
 SN1dq  TX2r  1 3.650000e-01    2.110000e+00
 SN2dq  TX2r  1 3.650000e-01    2.110000e+00
 SN3dq  TX2r  1 3.650000e-01    2.110000e+00
 SN4dq  TX2r  1 3.650000e-01    2.110000e+00
 SN5dq  TX2r  1 3.650000e-01    2.110000e+00
 SN6dq  TX2r  1 3.650000e-01    1.910000e+00
 SP1dq  TX2r  1 3.650000e-01    1.910000e+00
 SP2dq  TX2r  1 3.650000e-01    1.910000e+00
 SP3dq  TX2r  1 3.650000e-01    1.910000e+00
 SP4dq  TX2r  1 3.650000e-01    1.910000e+00
 SP5dq  TX2r  1 3.650000e-01    1.910000e+00
 SP6dq  TX2r  1 3.650000e-01    1.750000e+00
 SX2eq  TX1r  1 3.650000e-01    2.830000e+00
 SX3eq  TX1r  1 3.650000e-01    2.830000e+00
 SX4eq  TX1r  1 3.650000e-01    2.570000e+00
 SC1eq  TX1r  1 3.650000e-01    2.340000e+00
 SC2eq  TX1r  1 3.650000e-01    2.340000e+00
 SC3eq  TX1r  1 3.650000e-01    2.570000e+00
 SC4eq  TX1r  1 3.650000e-01    2.570000e+00
 SC5eq  TX1r  1 3.650000e-01    2.570000e+00
 SC6eq  TX1r  1 3.650000e-01    2.570000e+00
 SX2vq  TX1r  1 3.650000e-01    2.830000e+00
 SX3vq  TX1r  1 3.650000e-01    2.830000e+00
 SX4vq  TX1r  1 3.650000e-01    2.570000e+00
 SC1vq  TX1r  1 3.650000e-01    2.340000e+00
 SC2vq  TX1r  1 3.650000e-01    2.340000e+00
 SC3vq  TX1r  1 3.650000e-01    2.570000e+00
 SC4vq  TX1r  1 3.650000e-01    2.570000e+00
 SC5vq  TX1r  1 3.650000e-01    2.570000e+00
 SC6vq  TX1r  1 3.650000e-01    2.570000e+00
 SN1aq  TX1r  1 3.650000e-01    2.110000e+00
 SN2aq  TX1r  1 3.650000e-01    2.110000e+00
 SN3aq  TX1r  1 3.650000e-01    2.110000e+00
 SN4aq  TX1r  1 3.650000e-01    1.910000e+00
 SN5aq  TX1r  1 3.650000e-01    1.910000e+00
 SN6aq  TX1r  1 3.650000e-01    1.750000e+00
 SP1aq  TX1r  1 3.650000e-01    1.750000e+00
 SP2aq  TX1r  1 3.650000e-01    1.750000e+00
 SP3aq  TX1r  1 3.650000e-01    1.750000e+00
 SP4aq  TX1r  1 3.650000e-01    1.750000e+00
 SP5aq  TX1r  1 3.660000e-01    1.600000e+00
 SP6aq  TX1r  1 3.660000e-01    1.600000e+00
 SN1dq  TX1r  1 3.650000e-01    2.110000e+00
 SN2dq  TX1r  1 3.650000e-01    2.110000e+00
 SN3dq  TX1r  1 3.650000e-01    2.110000e+00
 SN4dq  TX1r  1 3.650000e-01    1.910000e+00
 SN5dq  TX1r  1 3.650000e-01    1.910000e+00
 SN6dq  TX1r  1 3.650000e-01    1.750000e+00
 SP1dq  TX1r  1 3.650000e-01    1.750000e+00
 SP2dq  TX1r  1 3.650000e-01    1.750000e+00
 SP3dq  TX1r  1 3.650000e-01    1.750000e+00
 SP4dq  TX1r  1 3.650000e-01    1.750000e+00
 SP5dq  TX1r  1 3.660000e-01    1.600000e+00
 SP6dq  TX1r  1 3.660000e-01    1.600000e+00
 SP6dr  TP5d  1 3.650000e-01    3.370000e+00
 SP6dr  TP4d  1 3.650000e-01    3.100000e+00
 SP6dr  TP3d  1 3.650000e-01    2.830000e+00
 SP6dr  TP2d  1 3.650000e-01    2.830000e+00
 SP6dr  TP1d  1 3.650000e-01    2.570000e+00
 SP6dr  TN6d  1 3.650000e-01    2.340000e+00
 SP6dr  TN5d  1 3.650000e-01    1.910000e+00
 SP6dr  TN4d  1 3.650000e-01    1.750000e+00
 SP6dr  TN3d  1 3.650000e-01    1.750000e+00
 SP6dr  TN2d  1 3.660000e-01    1.600000e+00
 SP6dr  TN1d  1 3.780000e-01    1.450000e+00
 SP6dr  TP6a  1 3.650000e-01    4.220000e+00
 SP6dr  TP5a  1 3.650000e-01    3.930000e+00
 SP6dr  TP4a  1 3.650000e-01    3.640000e+00
 SP6dr  TP3a  1 3.650000e-01    3.370000e+00
 SP6dr  TP2a  1 3.650000e-01    3.370000e+00
 SP6dr  TP1a  1 3.650000e-01    3.100000e+00
 SP6dr  TN6a  1 3.650000e-01    2.830000e+00
 SP6dr  TN5a  1 3.650000e-01    2.340000e+00
 SP6dr  TN4a  1 3.650000e-01    2.110000e+00
 SP6dr  TN3a  1 3.650000e-01    1.750000e+00
 SP6dr  TN2a  1 3.660000e-01    1.600000e+00
 SP6dr  TN1a  1 3.780000e-01    1.450000e+00
 SP6dr  TC6e  1 3.660000e-01    1.600000e+00
 SP6dr  TC5e  1 3.780000e-01    1.450000e+00
 SP6dr  TC4e  1 3.940000e-01    1.290000e+00
 SP6dr  TC3e  1 4.040000e-01    1.130000e+00
 SP6dr  TC2e  1 4.040000e-01    1.130000e+00
 SP6dr  TC1e  1 4.230000e-01    9.810000e-01
 SP6dr  TX4e  1 3.650000e-01    1.750000e+00
 SP6dr  TX3e  1 3.650000e-01    1.750000e+00
 SP6dr  TX2e  1 3.660000e-01    1.600000e+00
 SP6dr  TX1e  1 3.780000e-01    1.450000e+00
 SP6dr  TC6v  1 3.940000e-01    1.290000e+00
 SP6dr  TC5v  1 4.040000e-01    1.130000e+00
 SP6dr  TC4v  1 4.090000e-01    1.080000e+00
 SP6dr  TC3v  1 4.230000e-01    9.810000e-01
 SP6dr  TC2v  1 4.230000e-01    9.810000e-01
 SP6dr  TC1v  1 5.370000e-01    8.080000e-01
 SP6dr  TX4v  1 3.780000e-01    1.450000e+00
 SP6dr  TX3v  1 3.780000e-01    1.450000e+00
 SP6dr  TX2v  1 3.940000e-01    1.290000e+00
 SP6dr  TX1v  1 4.040000e-01    1.130000e+00
 SP6dr  TP5q  1 3.650000e-01    4.220000e+00
 SP6dr  TP4q  1 3.650000e-01    3.930000e+00
 SP6dr  TP3q  1 3.650000e-01    3.640000e+00
 SP6dr  TP2q  1 3.650000e-01    3.640000e+00
 SP6dr  TP1q  1 3.650000e-01    3.370000e+00
 SP6dr  TN6q  1 3.650000e-01    3.100000e+00
 SP6dr  TN5q  1 3.650000e-01    2.570000e+00
 SP6dr  TN4q  1 3.650000e-01    2.340000e+00
 SP6dr  TN3q  1 3.650000e-01    2.110000e+00
 SP6dr  TN2q  1 3.650000e-01    1.910000e+00
 SP6dr  TN1q  1 3.650000e-01    1.750000e+00
 SP6dr  TC6q  1 3.650000e-01    1.750000e+00
 SP6dr  TC5q  1 3.660000e-01    1.600000e+00
 SP6dr  TC4q  1 3.780000e-01    1.450000e+00
 SP6dr  TC3q  1 3.940000e-01    1.290000e+00
 SP6dr  TC2q  1 3.940000e-01    1.290000e+00
 SP6dr  TC1q  1 4.090000e-01    1.080000e+00
 SP6dr  TX4q  1 3.650000e-01    1.910000e+00
 SP6dr  TX3q  1 3.650000e-01    1.910000e+00
 SP6dr  TX2q  1 3.650000e-01    1.750000e+00
 SP6dr  TX1q  1 3.660000e-01    1.600000e+00
 SP5dr  TP4d  1 3.650000e-01    2.830000e+00
 SP5dr  TP3d  1 3.650000e-01    2.570000e+00
 SP5dr  TP2d  1 3.650000e-01    2.570000e+00
 SP5dr  TP1d  1 3.650000e-01    2.340000e+00
 SP5dr  TN6d  1 3.650000e-01    2.110000e+00
 SP5dr  TN5d  1 3.650000e-01    1.910000e+00
 SP5dr  TN4d  1 3.650000e-01    1.910000e+00
 SP5dr  TN3d  1 3.650000e-01    1.750000e+00
 SP5dr  TN2d  1 3.660000e-01    1.600000e+00
 SP5dr  TN1d  1 3.780000e-01    1.450000e+00
 SP5dr  TP5a  1 3.650000e-01    3.640000e+00
 SP5dr  TP4a  1 3.650000e-01    3.370000e+00
 SP5dr  TP3a  1 3.650000e-01    3.100000e+00
 SP5dr  TP2a  1 3.650000e-01    3.100000e+00
 SP5dr  TP1a  1 3.650000e-01    2.830000e+00
 SP5dr  TN6a  1 3.650000e-01    2.570000e+00
 SP5dr  TN5a  1 3.650000e-01    2.340000e+00
 SP5dr  TN4a  1 3.650000e-01    2.340000e+00
 SP5dr  TN3a  1 3.650000e-01    1.750000e+00
 SP5dr  TN2a  1 3.660000e-01    1.600000e+00
 SP5dr  TN1a  1 3.780000e-01    1.450000e+00
 SP5dr  TC6e  1 3.660000e-01    1.600000e+00
 SP5dr  TC5e  1 3.660000e-01    1.600000e+00
 SP5dr  TC4e  1 3.780000e-01    1.450000e+00
 SP5dr  TC3e  1 3.940000e-01    1.290000e+00
 SP5dr  TC2e  1 3.940000e-01    1.290000e+00
 SP5dr  TC1e  1 4.040000e-01    1.130000e+00
 SP5dr  TX4e  1 3.650000e-01    1.910000e+00
 SP5dr  TX3e  1 3.650000e-01    1.750000e+00
 SP5dr  TX2e  1 3.650000e-01    1.750000e+00
 SP5dr  TX1e  1 3.780000e-01    1.450000e+00
 SP5dr  TC6v  1 3.940000e-01    1.290000e+00
 SP5dr  TC5v  1 3.940000e-01    1.290000e+00
 SP5dr  TC4v  1 4.040000e-01    1.130000e+00
 SP5dr  TC3v  1 4.090000e-01    1.080000e+00
 SP5dr  TC2v  1 4.090000e-01    1.080000e+00
 SP5dr  TC1v  1 4.230000e-01    9.810000e-01
 SP5dr  TX4v  1 3.660000e-01    1.600000e+00
 SP5dr  TX3v  1 3.780000e-01    1.450000e+00
 SP5dr  TX2v  1 3.780000e-01    1.450000e+00
 SP5dr  TX1v  1 4.040000e-01    1.130000e+00
 SP5dr  TP4q  1 3.650000e-01    3.640000e+00
 SP5dr  TP3q  1 3.650000e-01    3.370000e+00
 SP5dr  TP2q  1 3.650000e-01    3.370000e+00
 SP5dr  TP1q  1 3.650000e-01    3.100000e+00
 SP5dr  TN6q  1 3.650000e-01    2.830000e+00
 SP5dr  TN5q  1 3.650000e-01    2.570000e+00
 SP5dr  TN4q  1 3.650000e-01    2.570000e+00
 SP5dr  TN3q  1 3.650000e-01    2.110000e+00
 SP5dr  TN2q  1 3.650000e-01    1.910000e+00
 SP5dr  TN1q  1 3.650000e-01    1.750000e+00
 SP5dr  TC6q  1 3.650000e-01    1.750000e+00
 SP5dr  TC5q  1 3.650000e-01    1.750000e+00
 SP5dr  TC4q  1 3.660000e-01    1.600000e+00
 SP5dr  TC3q  1 3.780000e-01    1.450000e+00
 SP5dr  TC2q  1 3.780000e-01    1.450000e+00
 SP5dr  TC1q  1 3.940000e-01    1.290000e+00
 SP5dr  TX4q  1 3.650000e-01    2.110000e+00
 SP5dr  TX3q  1 3.650000e-01    1.910000e+00
 SP5dr  TX2q  1 3.650000e-01    1.910000e+00
 SP5dr  TX1q  1 3.660000e-01    1.600000e+00
 SP4dr  TP3d  1 3.650000e-01    2.570000e+00
 SP4dr  TP2d  1 3.650000e-01    2.570000e+00
 SP4dr  TP1d  1 3.650000e-01    2.340000e+00
 SP4dr  TN6d  1 3.650000e-01    2.110000e+00
 SP4dr  TN5d  1 3.650000e-01    1.910000e+00
 SP4dr  TN4d  1 3.650000e-01    1.910000e+00
 SP4dr  TN3d  1 3.650000e-01    1.750000e+00
 SP4dr  TN2d  1 3.650000e-01    1.750000e+00
 SP4dr  TN1d  1 3.660000e-01    1.600000e+00
 SP4dr  TP4a  1 3.650000e-01    3.370000e+00
 SP4dr  TP3a  1 3.650000e-01    3.100000e+00
 SP4dr  TP2a  1 3.650000e-01    3.100000e+00
 SP4dr  TP1a  1 3.650000e-01    2.830000e+00
 SP4dr  TN6a  1 3.650000e-01    2.570000e+00
 SP4dr  TN5a  1 3.650000e-01    2.340000e+00
 SP4dr  TN4a  1 3.650000e-01    2.340000e+00
 SP4dr  TN3a  1 3.650000e-01    2.110000e+00
 SP4dr  TN2a  1 3.650000e-01    1.750000e+00
 SP4dr  TN1a  1 3.660000e-01    1.600000e+00
 SP4dr  TC6e  1 3.650000e-01    1.750000e+00
 SP4dr  TC5e  1 3.660000e-01    1.600000e+00
 SP4dr  TC4e  1 3.780000e-01    1.450000e+00
 SP4dr  TC3e  1 3.940000e-01    1.290000e+00
 SP4dr  TC2e  1 3.940000e-01    1.290000e+00
 SP4dr  TC1e  1 4.040000e-01    1.130000e+00
 SP4dr  TX4e  1 3.650000e-01    1.910000e+00
 SP4dr  TX3e  1 3.650000e-01    1.750000e+00
 SP4dr  TX2e  1 3.650000e-01    1.750000e+00
 SP4dr  TX1e  1 3.660000e-01    1.600000e+00
 SP4dr  TC6v  1 3.780000e-01    1.450000e+00
 SP4dr  TC5v  1 3.940000e-01    1.290000e+00
 SP4dr  TC4v  1 4.040000e-01    1.130000e+00
 SP4dr  TC3v  1 4.090000e-01    1.080000e+00
 SP4dr  TC2v  1 4.090000e-01    1.080000e+00
 SP4dr  TC1v  1 4.230000e-01    9.810000e-01
 SP4dr  TX4v  1 3.660000e-01    1.600000e+00
 SP4dr  TX3v  1 3.780000e-01    1.450000e+00
 SP4dr  TX2v  1 3.780000e-01    1.450000e+00
 SP4dr  TX1v  1 3.940000e-01    1.290000e+00
 SP4dr  TP3q  1 3.650000e-01    3.370000e+00
 SP4dr  TP2q  1 3.650000e-01    3.370000e+00
 SP4dr  TP1q  1 3.650000e-01    3.100000e+00
 SP4dr  TN6q  1 3.650000e-01    2.830000e+00
 SP4dr  TN5q  1 3.650000e-01    2.570000e+00
 SP4dr  TN4q  1 3.650000e-01    2.570000e+00
 SP4dr  TN3q  1 3.650000e-01    2.340000e+00
 SP4dr  TN2q  1 3.650000e-01    2.110000e+00
 SP4dr  TN1q  1 3.650000e-01    1.910000e+00
 SP4dr  TC6q  1 3.650000e-01    1.910000e+00
 SP4dr  TC5q  1 3.650000e-01    1.750000e+00
 SP4dr  TC4q  1 3.660000e-01    1.600000e+00
 SP4dr  TC3q  1 3.780000e-01    1.450000e+00
 SP4dr  TC2q  1 3.780000e-01    1.450000e+00
 SP4dr  TC1q  1 3.940000e-01    1.290000e+00
 SP4dr  TX4q  1 3.650000e-01    2.110000e+00
 SP4dr  TX3q  1 3.650000e-01    1.910000e+00
 SP4dr  TX2q  1 3.650000e-01    1.910000e+00
 SP4dr  TX1q  1 3.650000e-01    1.750000e+00
 SP3dr  TP2d  1 3.650000e-01    2.570000e+00
 SP3dr  TP1d  1 3.650000e-01    2.340000e+00
 SP3dr  TN6d  1 3.650000e-01    2.110000e+00
 SP3dr  TN5d  1 3.650000e-01    1.910000e+00
 SP3dr  TN4d  1 3.650000e-01    1.910000e+00
 SP3dr  TN3d  1 3.650000e-01    1.750000e+00
 SP3dr  TN2d  1 3.650000e-01    1.750000e+00
 SP3dr  TN1d  1 3.650000e-01    1.750000e+00
 SP3dr  TP3a  1 3.650000e-01    3.100000e+00
 SP3dr  TP2a  1 3.650000e-01    3.100000e+00
 SP3dr  TP1a  1 3.650000e-01    2.830000e+00
 SP3dr  TN6a  1 3.650000e-01    2.570000e+00
 SP3dr  TN5a  1 3.650000e-01    2.340000e+00
 SP3dr  TN4a  1 3.650000e-01    2.340000e+00
 SP3dr  TN3a  1 3.650000e-01    2.110000e+00
 SP3dr  TN2a  1 3.650000e-01    2.110000e+00
 SP3dr  TN1a  1 3.650000e-01    1.750000e+00
 SP3dr  TC6e  1 3.650000e-01    1.910000e+00
 SP3dr  TC5e  1 3.650000e-01    1.750000e+00
 SP3dr  TC4e  1 3.660000e-01    1.600000e+00
 SP3dr  TC3e  1 3.940000e-01    1.290000e+00
 SP3dr  TC2e  1 3.940000e-01    1.290000e+00
 SP3dr  TC1e  1 4.040000e-01    1.130000e+00
 SP3dr  TX4e  1 3.650000e-01    1.910000e+00
 SP3dr  TX3e  1 3.650000e-01    1.910000e+00
 SP3dr  TX2e  1 3.650000e-01    1.750000e+00
 SP3dr  TX1e  1 3.660000e-01    1.600000e+00
 SP3dr  TC6v  1 3.660000e-01    1.600000e+00
 SP3dr  TC5v  1 3.780000e-01    1.450000e+00
 SP3dr  TC4v  1 3.940000e-01    1.290000e+00
 SP3dr  TC3v  1 4.090000e-01    1.080000e+00
 SP3dr  TC2v  1 4.090000e-01    1.080000e+00
 SP3dr  TC1v  1 4.230000e-01    9.810000e-01
 SP3dr  TX4v  1 3.660000e-01    1.600000e+00
 SP3dr  TX3v  1 3.660000e-01    1.600000e+00
 SP3dr  TX2v  1 3.780000e-01    1.450000e+00
 SP3dr  TX1v  1 3.940000e-01    1.290000e+00
 SP3dr  TP2q  1 3.650000e-01    3.370000e+00
 SP3dr  TP1q  1 3.650000e-01    3.100000e+00
 SP3dr  TN6q  1 3.650000e-01    2.830000e+00
 SP3dr  TN5q  1 3.650000e-01    2.570000e+00
 SP3dr  TN4q  1 3.650000e-01    2.570000e+00
 SP3dr  TN3q  1 3.650000e-01    2.340000e+00
 SP3dr  TN2q  1 3.650000e-01    2.340000e+00
 SP3dr  TN1q  1 3.650000e-01    2.110000e+00
 SP3dr  TC6q  1 3.650000e-01    2.110000e+00
 SP3dr  TC5q  1 3.650000e-01    1.910000e+00
 SP3dr  TC4q  1 3.650000e-01    1.750000e+00
 SP3dr  TC3q  1 3.780000e-01    1.450000e+00
 SP3dr  TC2q  1 3.780000e-01    1.450000e+00
 SP3dr  TC1q  1 3.940000e-01    1.290000e+00
 SP3dr  TX4q  1 3.650000e-01    2.110000e+00
 SP3dr  TX3q  1 3.650000e-01    2.110000e+00
 SP3dr  TX2q  1 3.650000e-01    1.910000e+00
 SP3dr  TX1q  1 3.650000e-01    1.750000e+00
 SP2dr  TP1d  1 3.650000e-01    2.340000e+00
 SP2dr  TN6d  1 3.650000e-01    2.340000e+00
 SP2dr  TN5d  1 3.650000e-01    2.110000e+00
 SP2dr  TN4d  1 3.650000e-01    1.910000e+00
 SP2dr  TN3d  1 3.650000e-01    1.750000e+00
 SP2dr  TN2d  1 3.650000e-01    1.750000e+00
 SP2dr  TN1d  1 3.650000e-01    1.750000e+00
 SP2dr  TP2a  1 3.650000e-01    3.100000e+00
 SP2dr  TP1a  1 3.650000e-01    2.830000e+00
 SP2dr  TN6a  1 3.650000e-01    2.830000e+00
 SP2dr  TN5a  1 3.650000e-01    2.570000e+00
 SP2dr  TN4a  1 3.650000e-01    2.340000e+00
 SP2dr  TN3a  1 3.650000e-01    2.110000e+00
 SP2dr  TN2a  1 3.650000e-01    2.110000e+00
 SP2dr  TN1a  1 3.650000e-01    2.110000e+00
 SP2dr  TC6e  1 3.650000e-01    1.910000e+00
 SP2dr  TC5e  1 3.650000e-01    1.750000e+00
 SP2dr  TC4e  1 3.660000e-01    1.600000e+00
 SP2dr  TC3e  1 3.780000e-01    1.450000e+00
 SP2dr  TC2e  1 3.780000e-01    1.450000e+00
 SP2dr  TC1e  1 3.940000e-01    1.290000e+00
 SP2dr  TX4e  1 3.650000e-01    1.910000e+00
 SP2dr  TX3e  1 3.650000e-01    1.910000e+00
 SP2dr  TX2e  1 3.650000e-01    1.750000e+00
 SP2dr  TX1e  1 3.660000e-01    1.600000e+00
 SP2dr  TC6v  1 3.660000e-01    1.600000e+00
 SP2dr  TC5v  1 3.780000e-01    1.450000e+00
 SP2dr  TC4v  1 3.940000e-01    1.290000e+00
 SP2dr  TC3v  1 4.040000e-01    1.130000e+00
 SP2dr  TC2v  1 4.040000e-01    1.130000e+00
 SP2dr  TC1v  1 4.090000e-01    1.080000e+00
 SP2dr  TX4v  1 3.660000e-01    1.600000e+00
 SP2dr  TX3v  1 3.660000e-01    1.600000e+00
 SP2dr  TX2v  1 3.780000e-01    1.450000e+00
 SP2dr  TX1v  1 3.940000e-01    1.290000e+00
 SP2dr  TP1q  1 3.650000e-01    3.100000e+00
 SP2dr  TN6q  1 3.650000e-01    3.100000e+00
 SP2dr  TN5q  1 3.650000e-01    2.830000e+00
 SP2dr  TN4q  1 3.650000e-01    2.570000e+00
 SP2dr  TN3q  1 3.650000e-01    2.340000e+00
 SP2dr  TN2q  1 3.650000e-01    2.340000e+00
 SP2dr  TN1q  1 3.650000e-01    2.340000e+00
 SP2dr  TC6q  1 3.650000e-01    2.110000e+00
 SP2dr  TC5q  1 3.650000e-01    1.910000e+00
 SP2dr  TC4q  1 3.650000e-01    1.750000e+00
 SP2dr  TC3q  1 3.660000e-01    1.600000e+00
 SP2dr  TC2q  1 3.660000e-01    1.600000e+00
 SP2dr  TC1q  1 3.780000e-01    1.450000e+00
 SP2dr  TX4q  1 3.650000e-01    2.110000e+00
 SP2dr  TX3q  1 3.650000e-01    2.110000e+00
 SP2dr  TX2q  1 3.650000e-01    1.910000e+00
 SP2dr  TX1q  1 3.650000e-01    1.750000e+00
 SP1dr  TN6d  1 3.650000e-01    2.340000e+00
 SP1dr  TN5d  1 3.650000e-01    2.110000e+00
 SP1dr  TN4d  1 3.650000e-01    2.110000e+00
 SP1dr  TN3d  1 3.650000e-01    1.750000e+00
 SP1dr  TN2d  1 3.650000e-01    1.750000e+00
 SP1dr  TN1d  1 3.650000e-01    1.750000e+00
 SP1dr  TP1a  1 3.650000e-01    2.830000e+00
 SP1dr  TN6a  1 3.650000e-01    2.830000e+00
 SP1dr  TN5a  1 3.650000e-01    2.570000e+00
 SP1dr  TN4a  1 3.650000e-01    2.570000e+00
 SP1dr  TN3a  1 3.650000e-01    2.110000e+00
 SP1dr  TN2a  1 3.650000e-01    2.110000e+00
 SP1dr  TN1a  1 3.650000e-01    2.110000e+00
 SP1dr  TC6e  1 3.650000e-01    1.910000e+00
 SP1dr  TC5e  1 3.650000e-01    1.750000e+00
 SP1dr  TC4e  1 3.660000e-01    1.600000e+00
 SP1dr  TC3e  1 3.780000e-01    1.450000e+00
 SP1dr  TC2e  1 3.780000e-01    1.450000e+00
 SP1dr  TC1e  1 3.940000e-01    1.290000e+00
 SP1dr  TX4e  1 3.650000e-01    1.910000e+00
 SP1dr  TX3e  1 3.650000e-01    1.910000e+00
 SP1dr  TX2e  1 3.650000e-01    1.750000e+00
 SP1dr  TX1e  1 3.660000e-01    1.600000e+00
 SP1dr  TC6v  1 3.660000e-01    1.600000e+00
 SP1dr  TC5v  1 3.780000e-01    1.450000e+00
 SP1dr  TC4v  1 3.940000e-01    1.290000e+00
 SP1dr  TC3v  1 4.040000e-01    1.130000e+00
 SP1dr  TC2v  1 4.040000e-01    1.130000e+00
 SP1dr  TC1v  1 4.090000e-01    1.080000e+00
 SP1dr  TX4v  1 3.660000e-01    1.600000e+00
 SP1dr  TX3v  1 3.660000e-01    1.600000e+00
 SP1dr  TX2v  1 3.780000e-01    1.450000e+00
 SP1dr  TX1v  1 3.940000e-01    1.290000e+00
 SP1dr  TN6q  1 3.650000e-01    3.100000e+00
 SP1dr  TN5q  1 3.650000e-01    2.830000e+00
 SP1dr  TN4q  1 3.650000e-01    2.830000e+00
 SP1dr  TN3q  1 3.650000e-01    2.340000e+00
 SP1dr  TN2q  1 3.650000e-01    2.340000e+00
 SP1dr  TN1q  1 3.650000e-01    2.340000e+00
 SP1dr  TC6q  1 3.650000e-01    2.110000e+00
 SP1dr  TC5q  1 3.650000e-01    1.910000e+00
 SP1dr  TC4q  1 3.650000e-01    1.750000e+00
 SP1dr  TC3q  1 3.660000e-01    1.600000e+00
 SP1dr  TC2q  1 3.660000e-01    1.600000e+00
 SP1dr  TC1q  1 3.780000e-01    1.450000e+00
 SP1dr  TX4q  1 3.650000e-01    2.110000e+00
 SP1dr  TX3q  1 3.650000e-01    2.110000e+00
 SP1dr  TX2q  1 3.650000e-01    1.910000e+00
 SP1dr  TX1q  1 3.650000e-01    1.750000e+00
 SN6dr  TN5d  1 3.650000e-01    2.340000e+00
 SN6dr  TN4d  1 3.650000e-01    2.340000e+00
 SN6dr  TN3d  1 3.650000e-01    1.910000e+00
 SN6dr  TN2d  1 3.650000e-01    1.750000e+00
 SN6dr  TN1d  1 3.650000e-01    1.750000e+00
 SN6dr  TN6a  1 3.650000e-01    2.830000e+00
 SN6dr  TN5a  1 3.650000e-01    2.830000e+00
 SN6dr  TN4a  1 3.650000e-01    2.830000e+00
 SN6dr  TN3a  1 3.650000e-01    2.340000e+00
 SN6dr  TN2a  1 3.650000e-01    2.110000e+00
 SN6dr  TN1a  1 3.650000e-01    2.110000e+00
 SN6dr  TC6e  1 3.650000e-01    2.110000e+00
 SN6dr  TC5e  1 3.650000e-01    1.910000e+00
 SN6dr  TC4e  1 3.650000e-01    1.750000e+00
 SN6dr  TC3e  1 3.660000e-01    1.600000e+00
 SN6dr  TC2e  1 3.660000e-01    1.600000e+00
 SN6dr  TC1e  1 3.780000e-01    1.450000e+00
 SN6dr  TX4e  1 3.650000e-01    2.110000e+00
 SN6dr  TX3e  1 3.650000e-01    1.910000e+00
 SN6dr  TX2e  1 3.650000e-01    1.750000e+00
 SN6dr  TX1e  1 3.660000e-01    1.600000e+00
 SN6dr  TC6v  1 3.650000e-01    1.750000e+00
 SN6dr  TC5v  1 3.660000e-01    1.600000e+00
 SN6dr  TC4v  1 3.780000e-01    1.450000e+00
 SN6dr  TC3v  1 3.940000e-01    1.290000e+00
 SN6dr  TC2v  1 3.940000e-01    1.290000e+00
 SN6dr  TC1v  1 4.040000e-01    1.130000e+00
 SN6dr  TX4v  1 3.650000e-01    1.750000e+00
 SN6dr  TX3v  1 3.660000e-01    1.600000e+00
 SN6dr  TX2v  1 3.780000e-01    1.450000e+00
 SN6dr  TX1v  1 3.940000e-01    1.290000e+00
 SN6dr  TN5q  1 3.650000e-01    3.100000e+00
 SN6dr  TN4q  1 3.650000e-01    3.100000e+00
 SN6dr  TN3q  1 3.650000e-01    2.570000e+00
 SN6dr  TN2q  1 3.650000e-01    2.340000e+00
 SN6dr  TN1q  1 3.650000e-01    2.340000e+00
 SN6dr  TC6q  1 3.650000e-01    2.340000e+00
 SN6dr  TC5q  1 3.650000e-01    2.110000e+00
 SN6dr  TC4q  1 3.650000e-01    1.910000e+00
 SN6dr  TC3q  1 3.650000e-01    1.750000e+00
 SN6dr  TC2q  1 3.650000e-01    1.750000e+00
 SN6dr  TC1q  1 3.660000e-01    1.600000e+00
 SN6dr  TX4q  1 3.650000e-01    2.340000e+00
 SN6dr  TX3q  1 3.650000e-01    2.110000e+00
 SN6dr  TX2q  1 3.650000e-01    1.910000e+00
 SN6dr  TX1q  1 3.650000e-01    1.750000e+00
 SN5dr  TN4d  1 3.650000e-01    2.110000e+00
 SN5dr  TN3d  1 3.650000e-01    1.910000e+00
 SN5dr  TN2d  1 3.650000e-01    1.910000e+00
 SN5dr  TN1d  1 3.650000e-01    1.750000e+00
 SN5dr  TN5a  1 3.650000e-01    2.570000e+00
 SN5dr  TN4a  1 3.650000e-01    2.570000e+00
 SN5dr  TN3a  1 3.650000e-01    2.340000e+00
 SN5dr  TN2a  1 3.650000e-01    2.340000e+00
 SN5dr  TN1a  1 3.650000e-01    2.110000e+00
 SN5dr  TC6e  1 3.650000e-01    2.110000e+00
 SN5dr  TC5e  1 3.650000e-01    1.910000e+00
 SN5dr  TC4e  1 3.650000e-01    1.750000e+00
 SN5dr  TC3e  1 3.650000e-01    1.750000e+00
 SN5dr  TC2e  1 3.660000e-01    1.600000e+00
 SN5dr  TC1e  1 3.780000e-01    1.450000e+00
 SN5dr  TX4e  1 3.650000e-01    2.340000e+00
 SN5dr  TX3e  1 3.650000e-01    2.110000e+00
 SN5dr  TX2e  1 3.650000e-01    1.910000e+00
 SN5dr  TX1e  1 3.650000e-01    1.750000e+00
 SN5dr  TC6v  1 3.650000e-01    1.750000e+00
 SN5dr  TC5v  1 3.660000e-01    1.600000e+00
 SN5dr  TC4v  1 3.780000e-01    1.450000e+00
 SN5dr  TC3v  1 3.780000e-01    1.450000e+00
 SN5dr  TC2v  1 3.940000e-01    1.290000e+00
 SN5dr  TC1v  1 4.040000e-01    1.130000e+00
 SN5dr  TX4v  1 3.650000e-01    1.910000e+00
 SN5dr  TX3v  1 3.650000e-01    1.750000e+00
 SN5dr  TX2v  1 3.660000e-01    1.600000e+00
 SN5dr  TX1v  1 3.780000e-01    1.450000e+00
 SN5dr  TN4q  1 3.650000e-01    2.830000e+00
 SN5dr  TN3q  1 3.650000e-01    2.570000e+00
 SN5dr  TN2q  1 3.650000e-01    2.570000e+00
 SN5dr  TN1q  1 3.650000e-01    2.340000e+00
 SN5dr  TC6q  1 3.650000e-01    2.340000e+00
 SN5dr  TC5q  1 3.650000e-01    2.110000e+00
 SN5dr  TC4q  1 3.650000e-01    1.910000e+00
 SN5dr  TC3q  1 3.650000e-01    1.910000e+00
 SN5dr  TC2q  1 3.650000e-01    1.750000e+00
 SN5dr  TC1q  1 3.660000e-01    1.600000e+00
 SN5dr  TX4q  1 3.650000e-01    2.570000e+00
 SN5dr  TX3q  1 3.650000e-01    2.340000e+00
 SN5dr  TX2q  1 3.650000e-01    2.110000e+00
 SN5dr  TX1q  1 3.650000e-01    1.910000e+00
 SN4dr  TN3d  1 3.650000e-01    1.910000e+00
 SN4dr  TN2d  1 3.650000e-01    1.910000e+00
 SN4dr  TN1d  1 3.650000e-01    1.750000e+00
 SN4dr  TN4a  1 3.650000e-01    2.570000e+00
 SN4dr  TN3a  1 3.650000e-01    2.340000e+00
 SN4dr  TN2a  1 3.650000e-01    2.340000e+00
 SN4dr  TN1a  1 3.650000e-01    2.110000e+00
 SN4dr  TC6e  1 3.650000e-01    2.110000e+00
 SN4dr  TC5e  1 3.650000e-01    1.910000e+00
 SN4dr  TC4e  1 3.650000e-01    1.910000e+00
 SN4dr  TC3e  1 3.650000e-01    1.750000e+00
 SN4dr  TC2e  1 3.660000e-01    1.600000e+00
 SN4dr  TC1e  1 3.780000e-01    1.450000e+00
 SN4dr  TX4e  1 3.650000e-01    2.570000e+00
 SN4dr  TX3e  1 3.650000e-01    2.340000e+00
 SN4dr  TX2e  1 3.650000e-01    1.910000e+00
 SN4dr  TX1e  1 3.650000e-01    1.750000e+00
 SN4dr  TC6v  1 3.650000e-01    1.750000e+00
 SN4dr  TC5v  1 3.660000e-01    1.600000e+00
 SN4dr  TC4v  1 3.660000e-01    1.600000e+00
 SN4dr  TC3v  1 3.780000e-01    1.450000e+00
 SN4dr  TC2v  1 3.940000e-01    1.290000e+00
 SN4dr  TC1v  1 4.040000e-01    1.130000e+00
 SN4dr  TX4v  1 3.650000e-01    2.110000e+00
 SN4dr  TX3v  1 3.650000e-01    1.910000e+00
 SN4dr  TX2v  1 3.660000e-01    1.600000e+00
 SN4dr  TX1v  1 3.780000e-01    1.450000e+00
 SN4dr  TN3q  1 3.650000e-01    2.570000e+00
 SN4dr  TN2q  1 3.650000e-01    2.570000e+00
 SN4dr  TN1q  1 3.650000e-01    2.340000e+00
 SN4dr  TC6q  1 3.650000e-01    2.340000e+00
 SN4dr  TC5q  1 3.650000e-01    2.110000e+00
 SN4dr  TC4q  1 3.650000e-01    2.110000e+00
 SN4dr  TC3q  1 3.650000e-01    1.910000e+00
 SN4dr  TC2q  1 3.650000e-01    1.750000e+00
 SN4dr  TC1q  1 3.660000e-01    1.600000e+00
 SN4dr  TX4q  1 3.650000e-01    2.830000e+00
 SN4dr  TX3q  1 3.650000e-01    2.570000e+00
 SN4dr  TX2q  1 3.650000e-01    2.110000e+00
 SN4dr  TX1q  1 3.650000e-01    1.910000e+00
 SN3dr  TN2d  1 3.650000e-01    1.910000e+00
 SN3dr  TN1d  1 3.650000e-01    1.750000e+00
 SN3dr  TN3a  1 3.650000e-01    2.340000e+00
 SN3dr  TN2a  1 3.650000e-01    2.340000e+00
 SN3dr  TN1a  1 3.650000e-01    2.110000e+00
 SN3dr  TC6e  1 3.650000e-01    2.110000e+00
 SN3dr  TC5e  1 3.650000e-01    1.910000e+00
 SN3dr  TC4e  1 3.650000e-01    1.910000e+00
 SN3dr  TC3e  1 3.650000e-01    1.750000e+00
 SN3dr  TC2e  1 3.650000e-01    1.750000e+00
 SN3dr  TC1e  1 3.660000e-01    1.600000e+00
 SN3dr  TX4e  1 3.650000e-01    2.340000e+00
 SN3dr  TX3e  1 3.650000e-01    2.110000e+00
 SN3dr  TX2e  1 3.650000e-01    1.910000e+00
 SN3dr  TX1e  1 3.650000e-01    1.910000e+00
 SN3dr  TC6v  1 3.650000e-01    1.750000e+00
 SN3dr  TC5v  1 3.660000e-01    1.600000e+00
 SN3dr  TC4v  1 3.660000e-01    1.600000e+00
 SN3dr  TC3v  1 3.780000e-01    1.450000e+00
 SN3dr  TC2v  1 3.780000e-01    1.450000e+00
 SN3dr  TC1v  1 3.940000e-01    1.290000e+00
 SN3dr  TX4v  1 3.650000e-01    1.910000e+00
 SN3dr  TX3v  1 3.650000e-01    1.750000e+00
 SN3dr  TX2v  1 3.660000e-01    1.600000e+00
 SN3dr  TX1v  1 3.660000e-01    1.600000e+00
 SN3dr  TN2q  1 3.650000e-01    2.570000e+00
 SN3dr  TN1q  1 3.650000e-01    2.340000e+00
 SN3dr  TC6q  1 3.650000e-01    2.340000e+00
 SN3dr  TC5q  1 3.650000e-01    2.110000e+00
 SN3dr  TC4q  1 3.650000e-01    2.110000e+00
 SN3dr  TC3q  1 3.650000e-01    1.910000e+00
 SN3dr  TC2q  1 3.650000e-01    1.910000e+00
 SN3dr  TC1q  1 3.650000e-01    1.750000e+00
 SN3dr  TX4q  1 3.650000e-01    2.570000e+00
 SN3dr  TX3q  1 3.650000e-01    2.340000e+00
 SN3dr  TX2q  1 3.650000e-01    2.110000e+00
 SN3dr  TX1q  1 3.650000e-01    2.110000e+00
 SN2dr  TN1d  1 3.650000e-01    1.750000e+00
 SN2dr  TN2a  1 3.650000e-01    2.340000e+00
 SN2dr  TN1a  1 3.650000e-01    2.110000e+00
 SN2dr  TC6e  1 3.650000e-01    2.110000e+00
 SN2dr  TC5e  1 3.650000e-01    1.910000e+00
 SN2dr  TC4e  1 3.650000e-01    1.910000e+00
 SN2dr  TC3e  1 3.650000e-01    1.910000e+00
 SN2dr  TC2e  1 3.650000e-01    1.750000e+00
 SN2dr  TC1e  1 3.660000e-01    1.600000e+00
 SN2dr  TX4e  1 3.650000e-01    2.340000e+00
 SN2dr  TX3e  1 3.650000e-01    2.110000e+00
 SN2dr  TX2e  1 3.650000e-01    1.910000e+00
 SN2dr  TX1e  1 3.650000e-01    1.910000e+00
 SN2dr  TC6v  1 3.650000e-01    1.750000e+00
 SN2dr  TC5v  1 3.660000e-01    1.600000e+00
 SN2dr  TC4v  1 3.660000e-01    1.600000e+00
 SN2dr  TC3v  1 3.660000e-01    1.600000e+00
 SN2dr  TC2v  1 3.780000e-01    1.450000e+00
 SN2dr  TC1v  1 3.940000e-01    1.290000e+00
 SN2dr  TX4v  1 3.650000e-01    1.910000e+00
 SN2dr  TX3v  1 3.650000e-01    1.750000e+00
 SN2dr  TX2v  1 3.660000e-01    1.600000e+00
 SN2dr  TX1v  1 3.660000e-01    1.600000e+00
 SN2dr  TN1q  1 3.650000e-01    2.340000e+00
 SN2dr  TC6q  1 3.650000e-01    2.340000e+00
 SN2dr  TC5q  1 3.650000e-01    2.110000e+00
 SN2dr  TC4q  1 3.650000e-01    2.110000e+00
 SN2dr  TC3q  1 3.650000e-01    2.110000e+00
 SN2dr  TC2q  1 3.650000e-01    1.910000e+00
 SN2dr  TC1q  1 3.650000e-01    1.750000e+00
 SN2dr  TX4q  1 3.650000e-01    2.570000e+00
 SN2dr  TX3q  1 3.650000e-01    2.340000e+00
 SN2dr  TX2q  1 3.650000e-01    2.110000e+00
 SN2dr  TX1q  1 3.650000e-01    2.110000e+00
 SN1dr  TN1a  1 3.650000e-01    2.340000e+00
 SN1dr  TC6e  1 3.650000e-01    2.340000e+00
 SN1dr  TC5e  1 3.650000e-01    2.110000e+00
 SN1dr  TC4e  1 3.650000e-01    2.110000e+00
 SN1dr  TC3e  1 3.650000e-01    1.910000e+00
 SN1dr  TC2e  1 3.650000e-01    1.750000e+00
 SN1dr  TC1e  1 3.660000e-01    1.600000e+00
 SN1dr  TX4e  1 3.650000e-01    2.110000e+00
 SN1dr  TX3e  1 3.650000e-01    2.110000e+00
 SN1dr  TX2e  1 3.650000e-01    1.910000e+00
 SN1dr  TX1e  1 3.650000e-01    1.910000e+00
 SN1dr  TC6v  1 3.650000e-01    1.910000e+00
 SN1dr  TC5v  1 3.650000e-01    1.750000e+00
 SN1dr  TC4v  1 3.650000e-01    1.750000e+00
 SN1dr  TC3v  1 3.660000e-01    1.600000e+00
 SN1dr  TC2v  1 3.780000e-01    1.450000e+00
 SN1dr  TC1v  1 3.940000e-01    1.290000e+00
 SN1dr  TX4v  1 3.650000e-01    1.750000e+00
 SN1dr  TX3v  1 3.650000e-01    1.750000e+00
 SN1dr  TX2v  1 3.660000e-01    1.600000e+00
 SN1dr  TX1v  1 3.660000e-01    1.600000e+00
 SN1dr  TC6q  1 3.650000e-01    2.570000e+00
 SN1dr  TC5q  1 3.650000e-01    2.340000e+00
 SN1dr  TC4q  1 3.650000e-01    2.340000e+00
 SN1dr  TC3q  1 3.650000e-01    2.110000e+00
 SN1dr  TC2q  1 3.650000e-01    1.910000e+00
 SN1dr  TC1q  1 3.650000e-01    1.750000e+00
 SN1dr  TX4q  1 3.650000e-01    2.340000e+00
 SN1dr  TX3q  1 3.650000e-01    2.340000e+00
 SN1dr  TX2q  1 3.650000e-01    2.110000e+00
 SN1dr  TX1q  1 3.650000e-01    2.110000e+00
 SP6ar  TP5a  1 3.650000e-01    3.370000e+00
 SP6ar  TP4a  1 3.650000e-01    3.100000e+00
 SP6ar  TP3a  1 3.650000e-01    2.830000e+00
 SP6ar  TP2a  1 3.650000e-01    2.830000e+00
 SP6ar  TP1a  1 3.650000e-01    2.570000e+00
 SP6ar  TN6a  1 3.650000e-01    2.340000e+00
 SP6ar  TN5a  1 3.650000e-01    1.910000e+00
 SP6ar  TN4a  1 3.650000e-01    1.750000e+00
 SP6ar  TN3a  1 3.650000e-01    1.750000e+00
 SP6ar  TN2a  1 3.660000e-01    1.600000e+00
 SP6ar  TN1a  1 3.780000e-01    1.450000e+00
 SP6ar  TC6v  1 3.660000e-01    1.600000e+00
 SP6ar  TC5v  1 3.780000e-01    1.450000e+00
 SP6ar  TC4v  1 3.940000e-01    1.290000e+00
 SP6ar  TC3v  1 4.040000e-01    1.130000e+00
 SP6ar  TC2v  1 4.040000e-01    1.130000e+00
 SP6ar  TC1v  1 4.230000e-01    9.810000e-01
 SP6ar  TX4v  1 3.650000e-01    1.750000e+00
 SP6ar  TX3v  1 3.650000e-01    1.750000e+00
 SP6ar  TX2v  1 3.660000e-01    1.600000e+00
 SP6ar  TX1v  1 3.780000e-01    1.450000e+00
 SP6ar  TC6e  1 3.940000e-01    1.290000e+00
 SP6ar  TC5e  1 4.040000e-01    1.130000e+00
 SP6ar  TC4e  1 4.090000e-01    1.080000e+00
 SP6ar  TC3e  1 4.230000e-01    9.810000e-01
 SP6ar  TC2e  1 4.230000e-01    9.810000e-01
 SP6ar  TC1e  1 5.370000e-01    8.080000e-01
 SP6ar  TX4e  1 3.780000e-01    1.450000e+00
 SP6ar  TX3e  1 3.780000e-01    1.450000e+00
 SP6ar  TX2e  1 3.940000e-01    1.290000e+00
 SP6ar  TX1e  1 4.040000e-01    1.130000e+00
 SP6ar  TP5q  1 3.650000e-01    4.220000e+00
 SP6ar  TP4q  1 3.650000e-01    3.930000e+00
 SP6ar  TP3q  1 3.650000e-01    3.640000e+00
 SP6ar  TP2q  1 3.650000e-01    3.640000e+00
 SP6ar  TP1q  1 3.650000e-01    3.370000e+00
 SP6ar  TN6q  1 3.650000e-01    3.100000e+00
 SP6ar  TN5q  1 3.650000e-01    2.570000e+00
 SP6ar  TN4q  1 3.650000e-01    2.340000e+00
 SP6ar  TN3q  1 3.650000e-01    2.110000e+00
 SP6ar  TN2q  1 3.650000e-01    1.910000e+00
 SP6ar  TN1q  1 3.650000e-01    1.750000e+00
 SP6ar  TC6q  1 3.650000e-01    1.750000e+00
 SP6ar  TC5q  1 3.660000e-01    1.600000e+00
 SP6ar  TC4q  1 3.780000e-01    1.450000e+00
 SP6ar  TC3q  1 3.940000e-01    1.290000e+00
 SP6ar  TC2q  1 3.940000e-01    1.290000e+00
 SP6ar  TC1q  1 4.090000e-01    1.080000e+00
 SP6ar  TX4q  1 3.650000e-01    1.910000e+00
 SP6ar  TX3q  1 3.650000e-01    1.910000e+00
 SP6ar  TX2q  1 3.650000e-01    1.750000e+00
 SP6ar  TX1q  1 3.660000e-01    1.600000e+00
 SP5ar  TP4a  1 3.650000e-01    2.830000e+00
 SP5ar  TP3a  1 3.650000e-01    2.570000e+00
 SP5ar  TP2a  1 3.650000e-01    2.570000e+00
 SP5ar  TP1a  1 3.650000e-01    2.340000e+00
 SP5ar  TN6a  1 3.650000e-01    2.110000e+00
 SP5ar  TN5a  1 3.650000e-01    1.910000e+00
 SP5ar  TN4a  1 3.650000e-01    1.910000e+00
 SP5ar  TN3a  1 3.650000e-01    1.750000e+00
 SP5ar  TN2a  1 3.660000e-01    1.600000e+00
 SP5ar  TN1a  1 3.780000e-01    1.450000e+00
 SP5ar  TC6v  1 3.660000e-01    1.600000e+00
 SP5ar  TC5v  1 3.660000e-01    1.600000e+00
 SP5ar  TC4v  1 3.780000e-01    1.450000e+00
 SP5ar  TC3v  1 3.940000e-01    1.290000e+00
 SP5ar  TC2v  1 3.940000e-01    1.290000e+00
 SP5ar  TC1v  1 4.040000e-01    1.130000e+00
 SP5ar  TX4v  1 3.650000e-01    1.910000e+00
 SP5ar  TX3v  1 3.650000e-01    1.750000e+00
 SP5ar  TX2v  1 3.650000e-01    1.750000e+00
 SP5ar  TX1v  1 3.780000e-01    1.450000e+00
 SP5ar  TC6e  1 3.940000e-01    1.290000e+00
 SP5ar  TC5e  1 3.940000e-01    1.290000e+00
 SP5ar  TC4e  1 4.040000e-01    1.130000e+00
 SP5ar  TC3e  1 4.090000e-01    1.080000e+00
 SP5ar  TC2e  1 4.090000e-01    1.080000e+00
 SP5ar  TC1e  1 4.230000e-01    9.810000e-01
 SP5ar  TX4e  1 3.660000e-01    1.600000e+00
 SP5ar  TX3e  1 3.780000e-01    1.450000e+00
 SP5ar  TX2e  1 3.780000e-01    1.450000e+00
 SP5ar  TX1e  1 4.040000e-01    1.130000e+00
 SP5ar  TP4q  1 3.650000e-01    3.640000e+00
 SP5ar  TP3q  1 3.650000e-01    3.370000e+00
 SP5ar  TP2q  1 3.650000e-01    3.370000e+00
 SP5ar  TP1q  1 3.650000e-01    3.100000e+00
 SP5ar  TN6q  1 3.650000e-01    2.830000e+00
 SP5ar  TN5q  1 3.650000e-01    2.570000e+00
 SP5ar  TN4q  1 3.650000e-01    2.570000e+00
 SP5ar  TN3q  1 3.650000e-01    2.110000e+00
 SP5ar  TN2q  1 3.650000e-01    1.910000e+00
 SP5ar  TN1q  1 3.650000e-01    1.750000e+00
 SP5ar  TC6q  1 3.650000e-01    1.750000e+00
 SP5ar  TC5q  1 3.650000e-01    1.750000e+00
 SP5ar  TC4q  1 3.660000e-01    1.600000e+00
 SP5ar  TC3q  1 3.780000e-01    1.450000e+00
 SP5ar  TC2q  1 3.780000e-01    1.450000e+00
 SP5ar  TC1q  1 3.940000e-01    1.290000e+00
 SP5ar  TX4q  1 3.650000e-01    2.110000e+00
 SP5ar  TX3q  1 3.650000e-01    1.910000e+00
 SP5ar  TX2q  1 3.650000e-01    1.910000e+00
 SP5ar  TX1q  1 3.660000e-01    1.600000e+00
 SP4ar  TP3a  1 3.650000e-01    2.570000e+00
 SP4ar  TP2a  1 3.650000e-01    2.570000e+00
 SP4ar  TP1a  1 3.650000e-01    2.340000e+00
 SP4ar  TN6a  1 3.650000e-01    2.110000e+00
 SP4ar  TN5a  1 3.650000e-01    1.910000e+00
 SP4ar  TN4a  1 3.650000e-01    1.910000e+00
 SP4ar  TN3a  1 3.650000e-01    1.750000e+00
 SP4ar  TN2a  1 3.650000e-01    1.750000e+00
 SP4ar  TN1a  1 3.660000e-01    1.600000e+00
 SP4ar  TC6v  1 3.650000e-01    1.750000e+00
 SP4ar  TC5v  1 3.660000e-01    1.600000e+00
 SP4ar  TC4v  1 3.780000e-01    1.450000e+00
 SP4ar  TC3v  1 3.940000e-01    1.290000e+00
 SP4ar  TC2v  1 3.940000e-01    1.290000e+00
 SP4ar  TC1v  1 4.040000e-01    1.130000e+00
 SP4ar  TX4v  1 3.650000e-01    1.910000e+00
 SP4ar  TX3v  1 3.650000e-01    1.750000e+00
 SP4ar  TX2v  1 3.650000e-01    1.750000e+00
 SP4ar  TX1v  1 3.660000e-01    1.600000e+00
 SP4ar  TC6e  1 3.780000e-01    1.450000e+00
 SP4ar  TC5e  1 3.940000e-01    1.290000e+00
 SP4ar  TC4e  1 4.040000e-01    1.130000e+00
 SP4ar  TC3e  1 4.090000e-01    1.080000e+00
 SP4ar  TC2e  1 4.090000e-01    1.080000e+00
 SP4ar  TC1e  1 4.230000e-01    9.810000e-01
 SP4ar  TX4e  1 3.660000e-01    1.600000e+00
 SP4ar  TX3e  1 3.780000e-01    1.450000e+00
 SP4ar  TX2e  1 3.780000e-01    1.450000e+00
 SP4ar  TX1e  1 3.940000e-01    1.290000e+00
 SP4ar  TP3q  1 3.650000e-01    3.370000e+00
 SP4ar  TP2q  1 3.650000e-01    3.370000e+00
 SP4ar  TP1q  1 3.650000e-01    3.100000e+00
 SP4ar  TN6q  1 3.650000e-01    2.830000e+00
 SP4ar  TN5q  1 3.650000e-01    2.570000e+00
 SP4ar  TN4q  1 3.650000e-01    2.570000e+00
 SP4ar  TN3q  1 3.650000e-01    2.340000e+00
 SP4ar  TN2q  1 3.650000e-01    2.110000e+00
 SP4ar  TN1q  1 3.650000e-01    1.910000e+00
 SP4ar  TC6q  1 3.650000e-01    1.910000e+00
 SP4ar  TC5q  1 3.650000e-01    1.750000e+00
 SP4ar  TC4q  1 3.660000e-01    1.600000e+00
 SP4ar  TC3q  1 3.780000e-01    1.450000e+00
 SP4ar  TC2q  1 3.780000e-01    1.450000e+00
 SP4ar  TC1q  1 3.940000e-01    1.290000e+00
 SP4ar  TX4q  1 3.650000e-01    2.110000e+00
 SP4ar  TX3q  1 3.650000e-01    1.910000e+00
 SP4ar  TX2q  1 3.650000e-01    1.910000e+00
 SP4ar  TX1q  1 3.650000e-01    1.750000e+00
 SP3ar  TP2a  1 3.650000e-01    2.570000e+00
 SP3ar  TP1a  1 3.650000e-01    2.340000e+00
 SP3ar  TN6a  1 3.650000e-01    2.110000e+00
 SP3ar  TN5a  1 3.650000e-01    1.910000e+00
 SP3ar  TN4a  1 3.650000e-01    1.910000e+00
 SP3ar  TN3a  1 3.650000e-01    1.750000e+00
 SP3ar  TN2a  1 3.650000e-01    1.750000e+00
 SP3ar  TN1a  1 3.650000e-01    1.750000e+00
 SP3ar  TC6v  1 3.650000e-01    1.910000e+00
 SP3ar  TC5v  1 3.650000e-01    1.750000e+00
 SP3ar  TC4v  1 3.660000e-01    1.600000e+00
 SP3ar  TC3v  1 3.940000e-01    1.290000e+00
 SP3ar  TC2v  1 3.940000e-01    1.290000e+00
 SP3ar  TC1v  1 4.040000e-01    1.130000e+00
 SP3ar  TX4v  1 3.650000e-01    1.910000e+00
 SP3ar  TX3v  1 3.650000e-01    1.910000e+00
 SP3ar  TX2v  1 3.650000e-01    1.750000e+00
 SP3ar  TX1v  1 3.660000e-01    1.600000e+00
 SP3ar  TC6e  1 3.660000e-01    1.600000e+00
 SP3ar  TC5e  1 3.780000e-01    1.450000e+00
 SP3ar  TC4e  1 3.940000e-01    1.290000e+00
 SP3ar  TC3e  1 4.090000e-01    1.080000e+00
 SP3ar  TC2e  1 4.090000e-01    1.080000e+00
 SP3ar  TC1e  1 4.230000e-01    9.810000e-01
 SP3ar  TX4e  1 3.660000e-01    1.600000e+00
 SP3ar  TX3e  1 3.660000e-01    1.600000e+00
 SP3ar  TX2e  1 3.780000e-01    1.450000e+00
 SP3ar  TX1e  1 3.940000e-01    1.290000e+00
 SP3ar  TP2q  1 3.650000e-01    3.370000e+00
 SP3ar  TP1q  1 3.650000e-01    3.100000e+00
 SP3ar  TN6q  1 3.650000e-01    2.830000e+00
 SP3ar  TN5q  1 3.650000e-01    2.570000e+00
 SP3ar  TN4q  1 3.650000e-01    2.570000e+00
 SP3ar  TN3q  1 3.650000e-01    2.340000e+00
 SP3ar  TN2q  1 3.650000e-01    2.340000e+00
 SP3ar  TN1q  1 3.650000e-01    2.110000e+00
 SP3ar  TC6q  1 3.650000e-01    2.110000e+00
 SP3ar  TC5q  1 3.650000e-01    1.910000e+00
 SP3ar  TC4q  1 3.650000e-01    1.750000e+00
 SP3ar  TC3q  1 3.780000e-01    1.450000e+00
 SP3ar  TC2q  1 3.780000e-01    1.450000e+00
 SP3ar  TC1q  1 3.940000e-01    1.290000e+00
 SP3ar  TX4q  1 3.650000e-01    2.110000e+00
 SP3ar  TX3q  1 3.650000e-01    2.110000e+00
 SP3ar  TX2q  1 3.650000e-01    1.910000e+00
 SP3ar  TX1q  1 3.650000e-01    1.750000e+00
 SP2ar  TP1a  1 3.650000e-01    2.340000e+00
 SP2ar  TN6a  1 3.650000e-01    2.340000e+00
 SP2ar  TN5a  1 3.650000e-01    2.110000e+00
 SP2ar  TN4a  1 3.650000e-01    1.910000e+00
 SP2ar  TN3a  1 3.650000e-01    1.750000e+00
 SP2ar  TN2a  1 3.650000e-01    1.750000e+00
 SP2ar  TN1a  1 3.650000e-01    1.750000e+00
 SP2ar  TC6v  1 3.650000e-01    1.910000e+00
 SP2ar  TC5v  1 3.650000e-01    1.750000e+00
 SP2ar  TC4v  1 3.660000e-01    1.600000e+00
 SP2ar  TC3v  1 3.780000e-01    1.450000e+00
 SP2ar  TC2v  1 3.780000e-01    1.450000e+00
 SP2ar  TC1v  1 3.940000e-01    1.290000e+00
 SP2ar  TX4v  1 3.650000e-01    1.910000e+00
 SP2ar  TX3v  1 3.650000e-01    1.910000e+00
 SP2ar  TX2v  1 3.650000e-01    1.750000e+00
 SP2ar  TX1v  1 3.660000e-01    1.600000e+00
 SP2ar  TC6e  1 3.660000e-01    1.600000e+00
 SP2ar  TC5e  1 3.780000e-01    1.450000e+00
 SP2ar  TC4e  1 3.940000e-01    1.290000e+00
 SP2ar  TC3e  1 4.040000e-01    1.130000e+00
 SP2ar  TC2e  1 4.040000e-01    1.130000e+00
 SP2ar  TC1e  1 4.090000e-01    1.080000e+00
 SP2ar  TX4e  1 3.660000e-01    1.600000e+00
 SP2ar  TX3e  1 3.660000e-01    1.600000e+00
 SP2ar  TX2e  1 3.780000e-01    1.450000e+00
 SP2ar  TX1e  1 3.940000e-01    1.290000e+00
 SP2ar  TP1q  1 3.650000e-01    3.100000e+00
 SP2ar  TN6q  1 3.650000e-01    3.100000e+00
 SP2ar  TN5q  1 3.650000e-01    2.830000e+00
 SP2ar  TN4q  1 3.650000e-01    2.570000e+00
 SP2ar  TN3q  1 3.650000e-01    2.340000e+00
 SP2ar  TN2q  1 3.650000e-01    2.340000e+00
 SP2ar  TN1q  1 3.650000e-01    2.340000e+00
 SP2ar  TC6q  1 3.650000e-01    2.110000e+00
 SP2ar  TC5q  1 3.650000e-01    1.910000e+00
 SP2ar  TC4q  1 3.650000e-01    1.750000e+00
 SP2ar  TC3q  1 3.660000e-01    1.600000e+00
 SP2ar  TC2q  1 3.660000e-01    1.600000e+00
 SP2ar  TC1q  1 3.780000e-01    1.450000e+00
 SP2ar  TX4q  1 3.650000e-01    2.110000e+00
 SP2ar  TX3q  1 3.650000e-01    2.110000e+00
 SP2ar  TX2q  1 3.650000e-01    1.910000e+00
 SP2ar  TX1q  1 3.650000e-01    1.750000e+00
 SP1ar  TN6a  1 3.650000e-01    2.340000e+00
 SP1ar  TN5a  1 3.650000e-01    2.110000e+00
 SP1ar  TN4a  1 3.650000e-01    2.110000e+00
 SP1ar  TN3a  1 3.650000e-01    1.750000e+00
 SP1ar  TN2a  1 3.650000e-01    1.750000e+00
 SP1ar  TN1a  1 3.650000e-01    1.750000e+00
 SP1ar  TC6v  1 3.650000e-01    1.910000e+00
 SP1ar  TC5v  1 3.650000e-01    1.750000e+00
 SP1ar  TC4v  1 3.660000e-01    1.600000e+00
 SP1ar  TC3v  1 3.780000e-01    1.450000e+00
 SP1ar  TC2v  1 3.780000e-01    1.450000e+00
 SP1ar  TC1v  1 3.940000e-01    1.290000e+00
 SP1ar  TX4v  1 3.650000e-01    1.910000e+00
 SP1ar  TX3v  1 3.650000e-01    1.910000e+00
 SP1ar  TX2v  1 3.650000e-01    1.750000e+00
 SP1ar  TX1v  1 3.660000e-01    1.600000e+00
 SP1ar  TC6e  1 3.660000e-01    1.600000e+00
 SP1ar  TC5e  1 3.780000e-01    1.450000e+00
 SP1ar  TC4e  1 3.940000e-01    1.290000e+00
 SP1ar  TC3e  1 4.040000e-01    1.130000e+00
 SP1ar  TC2e  1 4.040000e-01    1.130000e+00
 SP1ar  TC1e  1 4.090000e-01    1.080000e+00
 SP1ar  TX4e  1 3.660000e-01    1.600000e+00
 SP1ar  TX3e  1 3.660000e-01    1.600000e+00
 SP1ar  TX2e  1 3.780000e-01    1.450000e+00
 SP1ar  TX1e  1 3.940000e-01    1.290000e+00
 SP1ar  TN6q  1 3.650000e-01    3.100000e+00
 SP1ar  TN5q  1 3.650000e-01    2.830000e+00
 SP1ar  TN4q  1 3.650000e-01    2.830000e+00
 SP1ar  TN3q  1 3.650000e-01    2.340000e+00
 SP1ar  TN2q  1 3.650000e-01    2.340000e+00
 SP1ar  TN1q  1 3.650000e-01    2.340000e+00
 SP1ar  TC6q  1 3.650000e-01    2.110000e+00
 SP1ar  TC5q  1 3.650000e-01    1.910000e+00
 SP1ar  TC4q  1 3.650000e-01    1.750000e+00
 SP1ar  TC3q  1 3.660000e-01    1.600000e+00
 SP1ar  TC2q  1 3.660000e-01    1.600000e+00
 SP1ar  TC1q  1 3.780000e-01    1.450000e+00
 SP1ar  TX4q  1 3.650000e-01    2.110000e+00
 SP1ar  TX3q  1 3.650000e-01    2.110000e+00
 SP1ar  TX2q  1 3.650000e-01    1.910000e+00
 SP1ar  TX1q  1 3.650000e-01    1.750000e+00
 SN6ar  TN5a  1 3.650000e-01    2.340000e+00
 SN6ar  TN4a  1 3.650000e-01    2.340000e+00
 SN6ar  TN3a  1 3.650000e-01    1.910000e+00
 SN6ar  TN2a  1 3.650000e-01    1.750000e+00
 SN6ar  TN1a  1 3.650000e-01    1.750000e+00
 SN6ar  TC6v  1 3.650000e-01    2.110000e+00
 SN6ar  TC5v  1 3.650000e-01    1.910000e+00
 SN6ar  TC4v  1 3.650000e-01    1.750000e+00
 SN6ar  TC3v  1 3.660000e-01    1.600000e+00
 SN6ar  TC2v  1 3.660000e-01    1.600000e+00
 SN6ar  TC1v  1 3.780000e-01    1.450000e+00
 SN6ar  TX4v  1 3.650000e-01    2.110000e+00
 SN6ar  TX3v  1 3.650000e-01    1.910000e+00
 SN6ar  TX2v  1 3.650000e-01    1.750000e+00
 SN6ar  TX1v  1 3.660000e-01    1.600000e+00
 SN6ar  TC6e  1 3.650000e-01    1.750000e+00
 SN6ar  TC5e  1 3.660000e-01    1.600000e+00
 SN6ar  TC4e  1 3.780000e-01    1.450000e+00
 SN6ar  TC3e  1 3.940000e-01    1.290000e+00
 SN6ar  TC2e  1 3.940000e-01    1.290000e+00
 SN6ar  TC1e  1 4.040000e-01    1.130000e+00
 SN6ar  TX4e  1 3.650000e-01    1.750000e+00
 SN6ar  TX3e  1 3.660000e-01    1.600000e+00
 SN6ar  TX2e  1 3.780000e-01    1.450000e+00
 SN6ar  TX1e  1 3.940000e-01    1.290000e+00
 SN6ar  TN5q  1 3.650000e-01    3.100000e+00
 SN6ar  TN4q  1 3.650000e-01    3.100000e+00
 SN6ar  TN3q  1 3.650000e-01    2.570000e+00
 SN6ar  TN2q  1 3.650000e-01    2.340000e+00
 SN6ar  TN1q  1 3.650000e-01    2.340000e+00
 SN6ar  TC6q  1 3.650000e-01    2.340000e+00
 SN6ar  TC5q  1 3.650000e-01    2.110000e+00
 SN6ar  TC4q  1 3.650000e-01    1.910000e+00
 SN6ar  TC3q  1 3.650000e-01    1.750000e+00
 SN6ar  TC2q  1 3.650000e-01    1.750000e+00
 SN6ar  TC1q  1 3.660000e-01    1.600000e+00
 SN6ar  TX4q  1 3.650000e-01    2.340000e+00
 SN6ar  TX3q  1 3.650000e-01    2.110000e+00
 SN6ar  TX2q  1 3.650000e-01    1.910000e+00
 SN6ar  TX1q  1 3.650000e-01    1.750000e+00
 SN5ar  TN4a  1 3.650000e-01    2.110000e+00
 SN5ar  TN3a  1 3.650000e-01    1.910000e+00
 SN5ar  TN2a  1 3.650000e-01    1.910000e+00
 SN5ar  TN1a  1 3.650000e-01    1.750000e+00
 SN5ar  TC6v  1 3.650000e-01    2.110000e+00
 SN5ar  TC5v  1 3.650000e-01    1.910000e+00
 SN5ar  TC4v  1 3.650000e-01    1.750000e+00
 SN5ar  TC3v  1 3.650000e-01    1.750000e+00
 SN5ar  TC2v  1 3.660000e-01    1.600000e+00
 SN5ar  TC1v  1 3.780000e-01    1.450000e+00
 SN5ar  TX4v  1 3.650000e-01    2.340000e+00
 SN5ar  TX3v  1 3.650000e-01    2.110000e+00
 SN5ar  TX2v  1 3.650000e-01    1.910000e+00
 SN5ar  TX1v  1 3.650000e-01    1.750000e+00
 SN5ar  TC6e  1 3.650000e-01    1.750000e+00
 SN5ar  TC5e  1 3.660000e-01    1.600000e+00
 SN5ar  TC4e  1 3.780000e-01    1.450000e+00
 SN5ar  TC3e  1 3.780000e-01    1.450000e+00
 SN5ar  TC2e  1 3.940000e-01    1.290000e+00
 SN5ar  TC1e  1 4.040000e-01    1.130000e+00
 SN5ar  TX4e  1 3.650000e-01    1.910000e+00
 SN5ar  TX3e  1 3.650000e-01    1.750000e+00
 SN5ar  TX2e  1 3.660000e-01    1.600000e+00
 SN5ar  TX1e  1 3.780000e-01    1.450000e+00
 SN5ar  TN4q  1 3.650000e-01    2.830000e+00
 SN5ar  TN3q  1 3.650000e-01    2.570000e+00
 SN5ar  TN2q  1 3.650000e-01    2.570000e+00
 SN5ar  TN1q  1 3.650000e-01    2.340000e+00
 SN5ar  TC6q  1 3.650000e-01    2.340000e+00
 SN5ar  TC5q  1 3.650000e-01    2.110000e+00
 SN5ar  TC4q  1 3.650000e-01    1.910000e+00
 SN5ar  TC3q  1 3.650000e-01    1.910000e+00
 SN5ar  TC2q  1 3.650000e-01    1.750000e+00
 SN5ar  TC1q  1 3.660000e-01    1.600000e+00
 SN5ar  TX4q  1 3.650000e-01    2.570000e+00
 SN5ar  TX3q  1 3.650000e-01    2.340000e+00
 SN5ar  TX2q  1 3.650000e-01    2.110000e+00
 SN5ar  TX1q  1 3.650000e-01    1.910000e+00
 SN4ar  TN3a  1 3.650000e-01    1.910000e+00
 SN4ar  TN2a  1 3.650000e-01    1.910000e+00
 SN4ar  TN1a  1 3.650000e-01    1.750000e+00
 SN4ar  TC6v  1 3.650000e-01    2.110000e+00
 SN4ar  TC5v  1 3.650000e-01    1.910000e+00
 SN4ar  TC4v  1 3.650000e-01    1.910000e+00
 SN4ar  TC3v  1 3.650000e-01    1.750000e+00
 SN4ar  TC2v  1 3.660000e-01    1.600000e+00
 SN4ar  TC1v  1 3.780000e-01    1.450000e+00
 SN4ar  TX4v  1 3.650000e-01    2.570000e+00
 SN4ar  TX3v  1 3.650000e-01    2.340000e+00
 SN4ar  TX2v  1 3.650000e-01    1.910000e+00
 SN4ar  TX1v  1 3.650000e-01    1.750000e+00
 SN4ar  TC6e  1 3.650000e-01    1.750000e+00
 SN4ar  TC5e  1 3.660000e-01    1.600000e+00
 SN4ar  TC4e  1 3.660000e-01    1.600000e+00
 SN4ar  TC3e  1 3.780000e-01    1.450000e+00
 SN4ar  TC2e  1 3.940000e-01    1.290000e+00
 SN4ar  TC1e  1 4.040000e-01    1.130000e+00
 SN4ar  TX4e  1 3.650000e-01    2.110000e+00
 SN4ar  TX3e  1 3.650000e-01    1.910000e+00
 SN4ar  TX2e  1 3.660000e-01    1.600000e+00
 SN4ar  TX1e  1 3.780000e-01    1.450000e+00
 SN4ar  TN3q  1 3.650000e-01    2.570000e+00
 SN4ar  TN2q  1 3.650000e-01    2.570000e+00
 SN4ar  TN1q  1 3.650000e-01    2.340000e+00
 SN4ar  TC6q  1 3.650000e-01    2.340000e+00
 SN4ar  TC5q  1 3.650000e-01    2.110000e+00
 SN4ar  TC4q  1 3.650000e-01    2.110000e+00
 SN4ar  TC3q  1 3.650000e-01    1.910000e+00
 SN4ar  TC2q  1 3.650000e-01    1.750000e+00
 SN4ar  TC1q  1 3.660000e-01    1.600000e+00
 SN4ar  TX4q  1 3.650000e-01    2.830000e+00
 SN4ar  TX3q  1 3.650000e-01    2.570000e+00
 SN4ar  TX2q  1 3.650000e-01    2.110000e+00
 SN4ar  TX1q  1 3.650000e-01    1.910000e+00
 SN3ar  TN2a  1 3.650000e-01    1.910000e+00
 SN3ar  TN1a  1 3.650000e-01    1.750000e+00
 SN3ar  TC6v  1 3.650000e-01    2.110000e+00
 SN3ar  TC5v  1 3.650000e-01    1.910000e+00
 SN3ar  TC4v  1 3.650000e-01    1.910000e+00
 SN3ar  TC3v  1 3.650000e-01    1.750000e+00
 SN3ar  TC2v  1 3.650000e-01    1.750000e+00
 SN3ar  TC1v  1 3.660000e-01    1.600000e+00
 SN3ar  TX4v  1 3.650000e-01    2.340000e+00
 SN3ar  TX3v  1 3.650000e-01    2.110000e+00
 SN3ar  TX2v  1 3.650000e-01    1.910000e+00
 SN3ar  TX1v  1 3.650000e-01    1.910000e+00
 SN3ar  TC6e  1 3.650000e-01    1.750000e+00
 SN3ar  TC5e  1 3.660000e-01    1.600000e+00
 SN3ar  TC4e  1 3.660000e-01    1.600000e+00
 SN3ar  TC3e  1 3.780000e-01    1.450000e+00
 SN3ar  TC2e  1 3.780000e-01    1.450000e+00
 SN3ar  TC1e  1 3.940000e-01    1.290000e+00
 SN3ar  TX4e  1 3.650000e-01    1.910000e+00
 SN3ar  TX3e  1 3.650000e-01    1.750000e+00
 SN3ar  TX2e  1 3.660000e-01    1.600000e+00
 SN3ar  TX1e  1 3.660000e-01    1.600000e+00
 SN3ar  TN2q  1 3.650000e-01    2.570000e+00
 SN3ar  TN1q  1 3.650000e-01    2.340000e+00
 SN3ar  TC6q  1 3.650000e-01    2.340000e+00
 SN3ar  TC5q  1 3.650000e-01    2.110000e+00
 SN3ar  TC4q  1 3.650000e-01    2.110000e+00
 SN3ar  TC3q  1 3.650000e-01    1.910000e+00
 SN3ar  TC2q  1 3.650000e-01    1.910000e+00
 SN3ar  TC1q  1 3.650000e-01    1.750000e+00
 SN3ar  TX4q  1 3.650000e-01    2.570000e+00
 SN3ar  TX3q  1 3.650000e-01    2.340000e+00
 SN3ar  TX2q  1 3.650000e-01    2.110000e+00
 SN3ar  TX1q  1 3.650000e-01    2.110000e+00
 SN2ar  TN1a  1 3.650000e-01    1.750000e+00
 SN2ar  TC6v  1 3.650000e-01    2.110000e+00
 SN2ar  TC5v  1 3.650000e-01    1.910000e+00
 SN2ar  TC4v  1 3.650000e-01    1.910000e+00
 SN2ar  TC3v  1 3.650000e-01    1.910000e+00
 SN2ar  TC2v  1 3.650000e-01    1.750000e+00
 SN2ar  TC1v  1 3.660000e-01    1.600000e+00
 SN2ar  TX4v  1 3.650000e-01    2.340000e+00
 SN2ar  TX3v  1 3.650000e-01    2.110000e+00
 SN2ar  TX2v  1 3.650000e-01    1.910000e+00
 SN2ar  TX1v  1 3.650000e-01    1.910000e+00
 SN2ar  TC6e  1 3.650000e-01    1.750000e+00
 SN2ar  TC5e  1 3.660000e-01    1.600000e+00
 SN2ar  TC4e  1 3.660000e-01    1.600000e+00
 SN2ar  TC3e  1 3.660000e-01    1.600000e+00
 SN2ar  TC2e  1 3.780000e-01    1.450000e+00
 SN2ar  TC1e  1 3.940000e-01    1.290000e+00
 SN2ar  TX4e  1 3.650000e-01    1.910000e+00
 SN2ar  TX3e  1 3.650000e-01    1.750000e+00
 SN2ar  TX2e  1 3.660000e-01    1.600000e+00
 SN2ar  TX1e  1 3.660000e-01    1.600000e+00
 SN2ar  TN1q  1 3.650000e-01    2.340000e+00
 SN2ar  TC6q  1 3.650000e-01    2.340000e+00
 SN2ar  TC5q  1 3.650000e-01    2.110000e+00
 SN2ar  TC4q  1 3.650000e-01    2.110000e+00
 SN2ar  TC3q  1 3.650000e-01    2.110000e+00
 SN2ar  TC2q  1 3.650000e-01    1.910000e+00
 SN2ar  TC1q  1 3.650000e-01    1.750000e+00
 SN2ar  TX4q  1 3.650000e-01    2.570000e+00
 SN2ar  TX3q  1 3.650000e-01    2.340000e+00
 SN2ar  TX2q  1 3.650000e-01    2.110000e+00
 SN2ar  TX1q  1 3.650000e-01    2.110000e+00
 SN1ar  TC6v  1 3.650000e-01    2.340000e+00
 SN1ar  TC5v  1 3.650000e-01    2.110000e+00
 SN1ar  TC4v  1 3.650000e-01    2.110000e+00
 SN1ar  TC3v  1 3.650000e-01    1.910000e+00
 SN1ar  TC2v  1 3.650000e-01    1.750000e+00
 SN1ar  TC1v  1 3.660000e-01    1.600000e+00
 SN1ar  TX4v  1 3.650000e-01    2.110000e+00
 SN1ar  TX3v  1 3.650000e-01    2.110000e+00
 SN1ar  TX2v  1 3.650000e-01    1.910000e+00
 SN1ar  TX1v  1 3.650000e-01    1.910000e+00
 SN1ar  TC6e  1 3.650000e-01    1.910000e+00
 SN1ar  TC5e  1 3.650000e-01    1.750000e+00
 SN1ar  TC4e  1 3.650000e-01    1.750000e+00
 SN1ar  TC3e  1 3.660000e-01    1.600000e+00
 SN1ar  TC2e  1 3.780000e-01    1.450000e+00
 SN1ar  TC1e  1 3.940000e-01    1.290000e+00
 SN1ar  TX4e  1 3.650000e-01    1.750000e+00
 SN1ar  TX3e  1 3.650000e-01    1.750000e+00
 SN1ar  TX2e  1 3.660000e-01    1.600000e+00
 SN1ar  TX1e  1 3.660000e-01    1.600000e+00
 SN1ar  TC6q  1 3.650000e-01    2.570000e+00
 SN1ar  TC5q  1 3.650000e-01    2.340000e+00
 SN1ar  TC4q  1 3.650000e-01    2.340000e+00
 SN1ar  TC3q  1 3.650000e-01    2.110000e+00
 SN1ar  TC2q  1 3.650000e-01    1.910000e+00
 SN1ar  TC1q  1 3.650000e-01    1.750000e+00
 SN1ar  TX4q  1 3.650000e-01    2.340000e+00
 SN1ar  TX3q  1 3.650000e-01    2.340000e+00
 SN1ar  TX2q  1 3.650000e-01    2.110000e+00
 SN1ar  TX1q  1 3.650000e-01    2.110000e+00
 SC6vr  TC5v  1 3.650000e-01    1.750000e+00
 SC6vr  TC4v  1 3.650000e-01    1.750000e+00
 SC6vr  TC3v  1 3.660000e-01    1.600000e+00
 SC6vr  TC2v  1 3.780000e-01    1.450000e+00
 SC6vr  TC1v  1 3.940000e-01    1.290000e+00
 SC6vr  TX4v  1 3.650000e-01    1.750000e+00
 SC6vr  TX3v  1 3.650000e-01    1.750000e+00
 SC6vr  TX2v  1 3.650000e-01    1.750000e+00
 SC6vr  TX1v  1 3.650000e-01    1.750000e+00
 SC6vr  TC6e  1 3.650000e-01    2.570000e+00
 SC6vr  TC5e  1 3.650000e-01    2.340000e+00
 SC6vr  TC4e  1 3.650000e-01    2.340000e+00
 SC6vr  TC3e  1 3.650000e-01    2.110000e+00
 SC6vr  TC2e  1 3.650000e-01    1.910000e+00
 SC6vr  TC1e  1 3.650000e-01    1.750000e+00
 SC6vr  TX4e  1 3.650000e-01    2.340000e+00
 SC6vr  TX3e  1 3.650000e-01    2.340000e+00
 SC6vr  TX2e  1 3.650000e-01    2.340000e+00
 SC6vr  TX1e  1 3.650000e-01    2.340000e+00
 SC6vr  TC5q  1 3.650000e-01    2.570000e+00
 SC6vr  TC4q  1 3.650000e-01    2.570000e+00
 SC6vr  TC3q  1 3.650000e-01    2.340000e+00
 SC6vr  TC2q  1 3.650000e-01    2.110000e+00
 SC6vr  TC1q  1 3.650000e-01    1.910000e+00
 SC6vr  TX4q  1 3.650000e-01    2.570000e+00
 SC6vr  TX3q  1 3.650000e-01    2.570000e+00
 SC6vr  TX2q  1 3.650000e-01    2.570000e+00
 SC6vr  TX1q  1 3.650000e-01    2.570000e+00
 SC5vr  TC4v  1 3.650000e-01    1.750000e+00
 SC5vr  TC3v  1 3.660000e-01    1.600000e+00
 SC5vr  TC2v  1 3.780000e-01    1.450000e+00
 SC5vr  TC1v  1 3.780000e-01    1.450000e+00
 SC5vr  TX4v  1 3.660000e-01    1.600000e+00
 SC5vr  TX3v  1 3.660000e-01    1.600000e+00
 SC5vr  TX2v  1 3.660000e-01    1.600000e+00
 SC5vr  TX1v  1 3.650000e-01    1.750000e+00
 SC5vr  TC5e  1 3.650000e-01    2.340000e+00
 SC5vr  TC4e  1 3.650000e-01    2.340000e+00
 SC5vr  TC3e  1 3.650000e-01    2.110000e+00
 SC5vr  TC2e  1 3.650000e-01    1.910000e+00
 SC5vr  TC1e  1 3.650000e-01    1.910000e+00
 SC5vr  TX4e  1 3.650000e-01    2.110000e+00
 SC5vr  TX3e  1 3.650000e-01    2.110000e+00
 SC5vr  TX2e  1 3.650000e-01    2.110000e+00
 SC5vr  TX1e  1 3.650000e-01    2.340000e+00
 SC5vr  TC4q  1 3.650000e-01    2.570000e+00
 SC5vr  TC3q  1 3.650000e-01    2.340000e+00
 SC5vr  TC2q  1 3.650000e-01    2.110000e+00
 SC5vr  TC1q  1 3.650000e-01    2.110000e+00
 SC5vr  TX4q  1 3.650000e-01    2.340000e+00
 SC5vr  TX3q  1 3.650000e-01    2.340000e+00
 SC5vr  TX2q  1 3.650000e-01    2.340000e+00
 SC5vr  TX1q  1 3.650000e-01    2.570000e+00
 SC4vr  TC3v  1 3.650000e-01    1.750000e+00
 SC4vr  TC2v  1 3.660000e-01    1.600000e+00
 SC4vr  TC1v  1 3.780000e-01    1.450000e+00
 SC4vr  TX4v  1 3.660000e-01    1.600000e+00
 SC4vr  TX3v  1 3.660000e-01    1.600000e+00
 SC4vr  TX2v  1 3.660000e-01    1.600000e+00
 SC4vr  TX1v  1 3.650000e-01    1.750000e+00
 SC4vr  TC4e  1 3.650000e-01    2.340000e+00
 SC4vr  TC3e  1 3.650000e-01    2.340000e+00
 SC4vr  TC2e  1 3.650000e-01    2.110000e+00
 SC4vr  TC1e  1 3.650000e-01    1.910000e+00
 SC4vr  TX4e  1 3.650000e-01    2.110000e+00
 SC4vr  TX3e  1 3.650000e-01    2.110000e+00
 SC4vr  TX2e  1 3.650000e-01    2.110000e+00
 SC4vr  TX1e  1 3.650000e-01    2.340000e+00
 SC4vr  TC3q  1 3.650000e-01    2.570000e+00
 SC4vr  TC2q  1 3.650000e-01    2.340000e+00
 SC4vr  TC1q  1 3.650000e-01    2.110000e+00
 SC4vr  TX4q  1 3.650000e-01    2.340000e+00
 SC4vr  TX3q  1 3.650000e-01    2.340000e+00
 SC4vr  TX2q  1 3.650000e-01    2.340000e+00
 SC4vr  TX1q  1 3.650000e-01    2.570000e+00
 SC3vr  TC2v  1 3.650000e-01    1.750000e+00
 SC3vr  TC1v  1 3.650000e-01    1.750000e+00
 SC3vr  TX4v  1 3.660000e-01    1.600000e+00
 SC3vr  TX3v  1 3.660000e-01    1.600000e+00
 SC3vr  TX2v  1 3.660000e-01    1.600000e+00
 SC3vr  TX1v  1 3.650000e-01    1.750000e+00
 SC3vr  TC3e  1 3.650000e-01    2.340000e+00
 SC3vr  TC2e  1 3.650000e-01    2.340000e+00
 SC3vr  TC1e  1 3.650000e-01    2.340000e+00
 SC3vr  TX4e  1 3.650000e-01    2.110000e+00
 SC3vr  TX3e  1 3.650000e-01    2.110000e+00
 SC3vr  TX2e  1 3.650000e-01    2.110000e+00
 SC3vr  TX1e  1 3.650000e-01    2.340000e+00
 SC3vr  TC2q  1 3.650000e-01    2.570000e+00
 SC3vr  TC1q  1 3.650000e-01    2.570000e+00
 SC3vr  TX4q  1 3.650000e-01    2.340000e+00
 SC3vr  TX3q  1 3.650000e-01    2.340000e+00
 SC3vr  TX2q  1 3.650000e-01    2.340000e+00
 SC3vr  TX1q  1 3.650000e-01    2.570000e+00
 SC2vr  TC1v  1 3.650000e-01    1.910000e+00
 SC2vr  TX4v  1 3.940000e-01    1.290000e+00
 SC2vr  TX3v  1 3.660000e-01    1.600000e+00
 SC2vr  TX2v  1 3.660000e-01    1.600000e+00
 SC2vr  TX1v  1 3.660000e-01    1.600000e+00
 SC2vr  TC2e  1 3.650000e-01    2.340000e+00
 SC2vr  TC1e  1 3.650000e-01    2.570000e+00
 SC2vr  TX4e  1 3.650000e-01    1.750000e+00
 SC2vr  TX3e  1 3.650000e-01    2.110000e+00
 SC2vr  TX2e  1 3.650000e-01    2.110000e+00
 SC2vr  TX1e  1 3.650000e-01    2.110000e+00
 SC2vr  TC1q  1 3.650000e-01    2.830000e+00
 SC2vr  TX4q  1 3.650000e-01    1.910000e+00
 SC2vr  TX3q  1 3.650000e-01    2.340000e+00
 SC2vr  TX2q  1 3.650000e-01    2.340000e+00
 SC2vr  TX1q  1 3.650000e-01    2.340000e+00
 SC1vr  TX4v  1 3.940000e-01    1.290000e+00
 SC1vr  TX3v  1 3.660000e-01    1.600000e+00
 SC1vr  TX2v  1 3.660000e-01    1.600000e+00
 SC1vr  TX1v  1 3.660000e-01    1.600000e+00
 SC1vr  TC1e  1 3.650000e-01    2.340000e+00
 SC1vr  TX4e  1 3.650000e-01    1.750000e+00
 SC1vr  TX3e  1 3.650000e-01    2.110000e+00
 SC1vr  TX2e  1 3.650000e-01    2.110000e+00
 SC1vr  TX1e  1 3.650000e-01    2.110000e+00
 SC1vr  TX4q  1 3.650000e-01    1.910000e+00
 SC1vr  TX3q  1 3.650000e-01    2.340000e+00
 SC1vr  TX2q  1 3.650000e-01    2.340000e+00
 SC1vr  TX1q  1 3.650000e-01    2.340000e+00
 SX4vr  TX3v  1 3.650000e-01    1.750000e+00
 SX4vr  TX2v  1 3.650000e-01    1.750000e+00
 SX4vr  TX1v  1 3.650000e-01    1.750000e+00
 SX4vr  TX4e  1 3.650000e-01    2.340000e+00
 SX4vr  TX3e  1 3.650000e-01    2.340000e+00
 SX4vr  TX2e  1 3.650000e-01    2.340000e+00
 SX4vr  TX1e  1 3.650000e-01    2.340000e+00
 SX4vr  TX3q  1 3.650000e-01    2.570000e+00
 SX4vr  TX2q  1 3.650000e-01    2.570000e+00
 SX4vr  TX1q  1 3.650000e-01    2.570000e+00
 SX3vr  TX2v  1 3.650000e-01    1.910000e+00
 SX3vr  TX1v  1 3.650000e-01    1.910000e+00
 SX3vr  TX3e  1 3.650000e-01    2.340000e+00
 SX3vr  TX2e  1 3.650000e-01    2.570000e+00
 SX3vr  TX1e  1 3.650000e-01    2.570000e+00
 SX3vr  TX2q  1 3.650000e-01    2.830000e+00
 SX3vr  TX1q  1 3.650000e-01    2.830000e+00
 SX2vr  TX1v  1 3.650000e-01    1.910000e+00
 SX2vr  TX2e  1 3.650000e-01    2.570000e+00
 SX2vr  TX1e  1 3.650000e-01    2.570000e+00
 SX2vr  TX1q  1 3.650000e-01    2.830000e+00
 SX1vr  TX1e  1 3.650000e-01    2.830000e+00
 SC6er  TC5e  1 3.650000e-01    1.750000e+00
 SC6er  TC4e  1 3.650000e-01    1.750000e+00
 SC6er  TC3e  1 3.660000e-01    1.600000e+00
 SC6er  TC2e  1 3.780000e-01    1.450000e+00
 SC6er  TC1e  1 3.940000e-01    1.290000e+00
 SC6er  TX4e  1 3.650000e-01    1.750000e+00
 SC6er  TX3e  1 3.650000e-01    1.750000e+00
 SC6er  TX2e  1 3.650000e-01    1.750000e+00
 SC6er  TX1e  1 3.650000e-01    1.750000e+00
 SC6er  TC5q  1 3.650000e-01    2.570000e+00
 SC6er  TC4q  1 3.650000e-01    2.570000e+00
 SC6er  TC3q  1 3.650000e-01    2.340000e+00
 SC6er  TC2q  1 3.650000e-01    2.110000e+00
 SC6er  TC1q  1 3.650000e-01    1.910000e+00
 SC6er  TX4q  1 3.650000e-01    2.570000e+00
 SC6er  TX3q  1 3.650000e-01    2.570000e+00
 SC6er  TX2q  1 3.650000e-01    2.570000e+00
 SC6er  TX1q  1 3.650000e-01    2.570000e+00
 SC5er  TC4e  1 3.650000e-01    1.750000e+00
 SC5er  TC3e  1 3.660000e-01    1.600000e+00
 SC5er  TC2e  1 3.780000e-01    1.450000e+00
 SC5er  TC1e  1 3.780000e-01    1.450000e+00
 SC5er  TX4e  1 3.660000e-01    1.600000e+00
 SC5er  TX3e  1 3.660000e-01    1.600000e+00
 SC5er  TX2e  1 3.660000e-01    1.600000e+00
 SC5er  TX1e  1 3.650000e-01    1.750000e+00
 SC5er  TC4q  1 3.650000e-01    2.570000e+00
 SC5er  TC3q  1 3.650000e-01    2.340000e+00
 SC5er  TC2q  1 3.650000e-01    2.110000e+00
 SC5er  TC1q  1 3.650000e-01    2.110000e+00
 SC5er  TX4q  1 3.650000e-01    2.340000e+00
 SC5er  TX3q  1 3.650000e-01    2.340000e+00
 SC5er  TX2q  1 3.650000e-01    2.340000e+00
 SC5er  TX1q  1 3.650000e-01    2.570000e+00
 SC4er  TC3e  1 3.650000e-01    1.750000e+00
 SC4er  TC2e  1 3.660000e-01    1.600000e+00
 SC4er  TC1e  1 3.780000e-01    1.450000e+00
 SC4er  TX4e  1 3.660000e-01    1.600000e+00
 SC4er  TX3e  1 3.660000e-01    1.600000e+00
 SC4er  TX2e  1 3.660000e-01    1.600000e+00
 SC4er  TX1e  1 3.650000e-01    1.750000e+00
 SC4er  TC3q  1 3.650000e-01    2.570000e+00
 SC4er  TC2q  1 3.650000e-01    2.340000e+00
 SC4er  TC1q  1 3.650000e-01    2.110000e+00
 SC4er  TX4q  1 3.650000e-01    2.340000e+00
 SC4er  TX3q  1 3.650000e-01    2.340000e+00
 SC4er  TX2q  1 3.650000e-01    2.340000e+00
 SC4er  TX1q  1 3.650000e-01    2.570000e+00
 SC3er  TC2e  1 3.650000e-01    1.750000e+00
 SC3er  TC1e  1 3.650000e-01    1.750000e+00
 SC3er  TX4e  1 3.660000e-01    1.600000e+00
 SC3er  TX3e  1 3.660000e-01    1.600000e+00
 SC3er  TX2e  1 3.660000e-01    1.600000e+00
 SC3er  TX1e  1 3.650000e-01    1.750000e+00
 SC3er  TC2q  1 3.650000e-01    2.570000e+00
 SC3er  TC1q  1 3.650000e-01    2.570000e+00
 SC3er  TX4q  1 3.650000e-01    2.340000e+00
 SC3er  TX3q  1 3.650000e-01    2.340000e+00
 SC3er  TX2q  1 3.650000e-01    2.340000e+00
 SC3er  TX1q  1 3.650000e-01    2.570000e+00
 SC2er  TC1e  1 3.650000e-01    1.910000e+00
 SC2er  TX4e  1 3.940000e-01    1.290000e+00
 SC2er  TX3e  1 3.660000e-01    1.600000e+00
 SC2er  TX2e  1 3.660000e-01    1.600000e+00
 SC2er  TX1e  1 3.660000e-01    1.600000e+00
 SC2er  TC1q  1 3.650000e-01    2.830000e+00
 SC2er  TX4q  1 3.650000e-01    1.910000e+00
 SC2er  TX3q  1 3.650000e-01    2.340000e+00
 SC2er  TX2q  1 3.650000e-01    2.340000e+00
 SC2er  TX1q  1 3.650000e-01    2.340000e+00
 SC1er  TX4e  1 3.940000e-01    1.290000e+00
 SC1er  TX3e  1 3.660000e-01    1.600000e+00
 SC1er  TX2e  1 3.660000e-01    1.600000e+00
 SC1er  TX1e  1 3.660000e-01    1.600000e+00
 SC1er  TX4q  1 3.650000e-01    1.910000e+00
 SC1er  TX3q  1 3.650000e-01    2.340000e+00
 SC1er  TX2q  1 3.650000e-01    2.340000e+00
 SC1er  TX1q  1 3.650000e-01    2.340000e+00
 SX4er  TX3e  1 3.650000e-01    1.750000e+00
 SX4er  TX2e  1 3.650000e-01    1.750000e+00
 SX4er  TX1e  1 3.650000e-01    1.750000e+00
 SX4er  TX3q  1 3.650000e-01    2.570000e+00
 SX4er  TX2q  1 3.650000e-01    2.570000e+00
 SX4er  TX1q  1 3.650000e-01    2.570000e+00
 SX3er  TX2e  1 3.650000e-01    1.910000e+00
 SX3er  TX1e  1 3.650000e-01    1.910000e+00
 SX3er  TX2q  1 3.650000e-01    2.830000e+00
 SX3er  TX1q  1 3.650000e-01    2.830000e+00
 SX2er  TX1e  1 3.650000e-01    1.910000e+00
 SX2er  TX1q  1 3.650000e-01    2.830000e+00
 SX2er  TX1v  1 3.650000e-01    2.570000e+00
 SX3er  TX2v  1 3.650000e-01    2.570000e+00
 SX3er  TX1v  1 3.650000e-01    2.570000e+00
 SX4er  TX3v  1 3.650000e-01    2.340000e+00
 SX4er  TX2v  1 3.650000e-01    2.340000e+00
 SX4er  TX1v  1 3.650000e-01    2.340000e+00
 SC1er  TX4v  1 3.650000e-01    1.750000e+00
 SC1er  TX3v  1 3.650000e-01    2.110000e+00
 SC1er  TX2v  1 3.650000e-01    2.110000e+00
 SC1er  TX1v  1 3.650000e-01    2.110000e+00
 SC2er  TC1v  1 3.650000e-01    2.570000e+00
 SC2er  TX4v  1 3.650000e-01    1.750000e+00
 SC2er  TX3v  1 3.650000e-01    2.110000e+00
 SC2er  TX2v  1 3.650000e-01    2.110000e+00
 SC2er  TX1v  1 3.650000e-01    2.110000e+00
 SC3er  TC2v  1 3.650000e-01    2.340000e+00
 SC3er  TC1v  1 3.650000e-01    2.340000e+00
 SC3er  TX4v  1 3.650000e-01    2.110000e+00
 SC3er  TX3v  1 3.650000e-01    2.110000e+00
 SC3er  TX2v  1 3.650000e-01    2.110000e+00
 SC3er  TX1v  1 3.650000e-01    2.340000e+00
 SC4er  TC3v  1 3.650000e-01    2.340000e+00
 SC4er  TC2v  1 3.650000e-01    2.110000e+00
 SC4er  TC1v  1 3.650000e-01    1.910000e+00
 SC4er  TX4v  1 3.650000e-01    2.110000e+00
 SC4er  TX3v  1 3.650000e-01    2.110000e+00
 SC4er  TX2v  1 3.650000e-01    2.110000e+00
 SC4er  TX1v  1 3.650000e-01    2.340000e+00
 SC5er  TC4v  1 3.650000e-01    2.340000e+00
 SC5er  TC3v  1 3.650000e-01    2.110000e+00
 SC5er  TC2v  1 3.650000e-01    1.910000e+00
 SC5er  TC1v  1 3.650000e-01    1.910000e+00
 SC5er  TX4v  1 3.650000e-01    2.110000e+00
 SC5er  TX3v  1 3.650000e-01    2.110000e+00
 SC5er  TX2v  1 3.650000e-01    2.110000e+00
 SC5er  TX1v  1 3.650000e-01    2.340000e+00
 SC6er  TC5v  1 3.650000e-01    2.340000e+00
 SC6er  TC4v  1 3.650000e-01    2.340000e+00
 SC6er  TC3v  1 3.650000e-01    2.110000e+00
 SC6er  TC2v  1 3.650000e-01    1.910000e+00
 SC6er  TC1v  1 3.650000e-01    1.750000e+00
 SC6er  TX4v  1 3.650000e-01    2.340000e+00
 SC6er  TX3v  1 3.650000e-01    2.340000e+00
 SC6er  TX2v  1 3.650000e-01    2.340000e+00
 SC6er  TX1v  1 3.650000e-01    2.340000e+00
 SN2ar  TN1d  1 3.650000e-01    2.110000e+00
 SN3ar  TN2d  1 3.650000e-01    2.340000e+00
 SN3ar  TN1d  1 3.650000e-01    2.110000e+00
 SN4ar  TN3d  1 3.650000e-01    2.340000e+00
 SN4ar  TN2d  1 3.650000e-01    2.340000e+00
 SN4ar  TN1d  1 3.650000e-01    2.110000e+00
 SN5ar  TN4d  1 3.650000e-01    2.570000e+00
 SN5ar  TN3d  1 3.650000e-01    2.340000e+00
 SN5ar  TN2d  1 3.650000e-01    2.340000e+00
 SN5ar  TN1d  1 3.650000e-01    2.110000e+00
 SN6ar  TN5d  1 3.650000e-01    2.830000e+00
 SN6ar  TN4d  1 3.650000e-01    2.830000e+00
 SN6ar  TN3d  1 3.650000e-01    2.340000e+00
 SN6ar  TN2d  1 3.650000e-01    2.110000e+00
 SN6ar  TN1d  1 3.650000e-01    2.110000e+00
 SP1ar  TN6d  1 3.650000e-01    2.830000e+00
 SP1ar  TN5d  1 3.650000e-01    2.570000e+00
 SP1ar  TN4d  1 3.650000e-01    2.570000e+00
 SP1ar  TN3d  1 3.650000e-01    2.110000e+00
 SP1ar  TN2d  1 3.650000e-01    2.110000e+00
 SP1ar  TN1d  1 3.650000e-01    2.110000e+00
 SP2ar  TP1d  1 3.650000e-01    2.830000e+00
 SP2ar  TN6d  1 3.650000e-01    2.830000e+00
 SP2ar  TN5d  1 3.650000e-01    2.570000e+00
 SP2ar  TN4d  1 3.650000e-01    2.340000e+00
 SP2ar  TN3d  1 3.650000e-01    2.110000e+00
 SP2ar  TN2d  1 3.650000e-01    2.110000e+00
 SP2ar  TN1d  1 3.650000e-01    2.110000e+00
 SP3ar  TP2d  1 3.650000e-01    3.100000e+00
 SP3ar  TP1d  1 3.650000e-01    2.830000e+00
 SP3ar  TN6d  1 3.650000e-01    2.570000e+00
 SP3ar  TN5d  1 3.650000e-01    2.340000e+00
 SP3ar  TN4d  1 3.650000e-01    2.340000e+00
 SP3ar  TN3d  1 3.650000e-01    2.110000e+00
 SP3ar  TN2d  1 3.650000e-01    2.110000e+00
 SP3ar  TN1d  1 3.650000e-01    1.750000e+00
 SP4ar  TP3d  1 3.650000e-01    3.100000e+00
 SP4ar  TP2d  1 3.650000e-01    3.100000e+00
 SP4ar  TP1d  1 3.650000e-01    2.830000e+00
 SP4ar  TN6d  1 3.650000e-01    2.570000e+00
 SP4ar  TN5d  1 3.650000e-01    2.340000e+00
 SP4ar  TN4d  1 3.650000e-01    2.340000e+00
 SP4ar  TN3d  1 3.650000e-01    2.110000e+00
 SP4ar  TN2d  1 3.650000e-01    1.750000e+00
 SP4ar  TN1d  1 3.660000e-01    1.600000e+00
 SP5ar  TP4d  1 3.650000e-01    3.370000e+00
 SP5ar  TP3d  1 3.650000e-01    3.100000e+00
 SP5ar  TP2d  1 3.650000e-01    3.100000e+00
 SP5ar  TP1d  1 3.650000e-01    2.830000e+00
 SP5ar  TN6d  1 3.650000e-01    2.570000e+00
 SP5ar  TN5d  1 3.650000e-01    2.340000e+00
 SP5ar  TN4d  1 3.650000e-01    2.340000e+00
 SP5ar  TN3d  1 3.650000e-01    1.750000e+00
 SP5ar  TN2d  1 3.660000e-01    1.600000e+00
 SP5ar  TN1d  1 3.780000e-01    1.450000e+00
 SP6ar  TP5d  1 3.650000e-01    3.930000e+00
 SP6ar  TP4d  1 3.650000e-01    3.640000e+00
 SP6ar  TP3d  1 3.650000e-01    3.370000e+00
 SP6ar  TP2d  1 3.650000e-01    3.370000e+00
 SP6ar  TP1d  1 3.650000e-01    3.100000e+00
 SP6ar  TN6d  1 3.650000e-01    2.830000e+00
 SP6ar  TN5d  1 3.650000e-01    2.340000e+00
 SP6ar  TN4d  1 3.650000e-01    2.110000e+00
 SP6ar  TN3d  1 3.650000e-01    1.750000e+00
 SP6ar  TN2d  1 3.660000e-01    1.600000e+00
 SP6ar  TN1d  1 3.780000e-01    1.450000e+00
 SP6dr  TP5r  1 3.650000e-01    3.370000e+00
 SP6dr  TP4r  1 3.650000e-01    3.100000e+00
 SP6dr  TP3r  1 3.650000e-01    2.830000e+00
 SP6dr  TP2r  1 3.650000e-01    2.830000e+00
 SP6dr  TP1r  1 3.650000e-01    2.570000e+00
 SP6dr  TN6r  1 3.650000e-01    2.340000e+00
 SP6dr  TN5r  1 3.650000e-01    1.910000e+00
 SP6dr  TN4r  1 3.650000e-01    1.750000e+00
 SP6dr  TN3r  1 3.660000e-01    1.600000e+00
 SP6dr  TN2r  1 3.780000e-01    1.450000e+00
 SP6dr  TN1r  1 3.940000e-01    1.290000e+00
 SP5dr  TP4r  1 3.650000e-01    2.830000e+00
 SP5dr  TP3r  1 3.650000e-01    2.570000e+00
 SP5dr  TP2r  1 3.650000e-01    2.570000e+00
 SP5dr  TP1r  1 3.650000e-01    2.340000e+00
 SP5dr  TN6r  1 3.650000e-01    2.110000e+00
 SP5dr  TN5r  1 3.650000e-01    1.910000e+00
 SP5dr  TN4r  1 3.650000e-01    1.910000e+00
 SP5dr  TN3r  1 3.660000e-01    1.600000e+00
 SP5dr  TN2r  1 3.780000e-01    1.450000e+00
 SP5dr  TN1r  1 3.940000e-01    1.290000e+00
 SP4dr  TP3r  1 3.650000e-01    2.570000e+00
 SP4dr  TP2r  1 3.650000e-01    2.570000e+00
 SP4dr  TP1r  1 3.650000e-01    2.340000e+00
 SP4dr  TN6r  1 3.650000e-01    2.110000e+00
 SP4dr  TN5r  1 3.650000e-01    1.910000e+00
 SP4dr  TN4r  1 3.650000e-01    1.910000e+00
 SP4dr  TN3r  1 3.650000e-01    1.750000e+00
 SP4dr  TN2r  1 3.660000e-01    1.600000e+00
 SP4dr  TN1r  1 3.780000e-01    1.450000e+00
 SP3dr  TP2r  1 3.650000e-01    2.570000e+00
 SP3dr  TP1r  1 3.650000e-01    2.340000e+00
 SP3dr  TN6r  1 3.650000e-01    2.110000e+00
 SP3dr  TN5r  1 3.650000e-01    1.910000e+00
 SP3dr  TN4r  1 3.650000e-01    1.910000e+00
 SP3dr  TN3r  1 3.650000e-01    1.750000e+00
 SP3dr  TN2r  1 3.650000e-01    1.750000e+00
 SP3dr  TN1r  1 3.660000e-01    1.600000e+00
 SP2dr  TP1r  1 3.650000e-01    2.340000e+00
 SP2dr  TN6r  1 3.650000e-01    2.340000e+00
 SP2dr  TN5r  1 3.650000e-01    2.110000e+00
 SP2dr  TN4r  1 3.650000e-01    1.910000e+00
 SP2dr  TN3r  1 3.650000e-01    1.750000e+00
 SP2dr  TN2r  1 3.650000e-01    1.750000e+00
 SP2dr  TN1r  1 3.650000e-01    1.750000e+00
 SP1dr  TN6r  1 3.650000e-01    2.340000e+00
 SP1dr  TN5r  1 3.650000e-01    2.110000e+00
 SP1dr  TN4r  1 3.650000e-01    2.110000e+00
 SP1dr  TN3r  1 3.650000e-01    1.750000e+00
 SP1dr  TN2r  1 3.650000e-01    1.750000e+00
 SP1dr  TN1r  1 3.650000e-01    1.750000e+00
 SN6dr  TN5r  1 3.650000e-01    2.340000e+00
 SN6dr  TN4r  1 3.650000e-01    2.340000e+00
 SN6dr  TN3r  1 3.650000e-01    1.910000e+00
 SN6dr  TN2r  1 3.650000e-01    1.750000e+00
 SN6dr  TN1r  1 3.650000e-01    1.750000e+00
 SN5dr  TN4r  1 3.650000e-01    2.110000e+00
 SN5dr  TN3r  1 3.650000e-01    1.910000e+00
 SN5dr  TN2r  1 3.650000e-01    1.910000e+00
 SN5dr  TN1r  1 3.650000e-01    1.750000e+00
 SN4dr  TN3r  1 3.650000e-01    1.910000e+00
 SN4dr  TN2r  1 3.650000e-01    1.910000e+00
 SN4dr  TN1r  1 3.650000e-01    1.750000e+00
 SN3dr  TN2r  1 3.650000e-01    1.910000e+00
 SN3dr  TN1r  1 3.650000e-01    1.750000e+00
 SN2dr  TN1r  1 3.650000e-01    1.750000e+00
 SP6ar  TP5r  1 3.650000e-01    3.370000e+00
 SP6ar  TP4r  1 3.650000e-01    3.100000e+00
 SP6ar  TP3r  1 3.650000e-01    2.830000e+00
 SP6ar  TP2r  1 3.650000e-01    2.830000e+00
 SP6ar  TP1r  1 3.650000e-01    2.570000e+00
 SP6ar  TN6r  1 3.650000e-01    2.340000e+00
 SP6ar  TN5r  1 3.650000e-01    1.910000e+00
 SP6ar  TN4r  1 3.650000e-01    1.750000e+00
 SP6ar  TN3r  1 3.660000e-01    1.600000e+00
 SP6ar  TN2r  1 3.780000e-01    1.450000e+00
 SP6ar  TN1r  1 3.940000e-01    1.290000e+00
 SP5ar  TP4r  1 3.650000e-01    2.830000e+00
 SP5ar  TP3r  1 3.650000e-01    2.570000e+00
 SP5ar  TP2r  1 3.650000e-01    2.570000e+00
 SP5ar  TP1r  1 3.650000e-01    2.340000e+00
 SP5ar  TN6r  1 3.650000e-01    2.110000e+00
 SP5ar  TN5r  1 3.650000e-01    1.910000e+00
 SP5ar  TN4r  1 3.650000e-01    1.910000e+00
 SP5ar  TN3r  1 3.660000e-01    1.600000e+00
 SP5ar  TN2r  1 3.780000e-01    1.450000e+00
 SP5ar  TN1r  1 3.940000e-01    1.290000e+00
 SP4ar  TP3r  1 3.650000e-01    2.570000e+00
 SP4ar  TP2r  1 3.650000e-01    2.570000e+00
 SP4ar  TP1r  1 3.650000e-01    2.340000e+00
 SP4ar  TN6r  1 3.650000e-01    2.110000e+00
 SP4ar  TN5r  1 3.650000e-01    1.910000e+00
 SP4ar  TN4r  1 3.650000e-01    1.910000e+00
 SP4ar  TN3r  1 3.650000e-01    1.750000e+00
 SP4ar  TN2r  1 3.660000e-01    1.600000e+00
 SP4ar  TN1r  1 3.780000e-01    1.450000e+00
 SP3ar  TP2r  1 3.650000e-01    2.570000e+00
 SP3ar  TP1r  1 3.650000e-01    2.340000e+00
 SP3ar  TN6r  1 3.650000e-01    2.110000e+00
 SP3ar  TN5r  1 3.650000e-01    1.910000e+00
 SP3ar  TN4r  1 3.650000e-01    1.910000e+00
 SP3ar  TN3r  1 3.650000e-01    1.750000e+00
 SP3ar  TN2r  1 3.650000e-01    1.750000e+00
 SP3ar  TN1r  1 3.660000e-01    1.600000e+00
 SP2ar  TP1r  1 3.650000e-01    2.340000e+00
 SP2ar  TN6r  1 3.650000e-01    2.340000e+00
 SP2ar  TN5r  1 3.650000e-01    2.110000e+00
 SP2ar  TN4r  1 3.650000e-01    1.910000e+00
 SP2ar  TN3r  1 3.650000e-01    1.750000e+00
 SP2ar  TN2r  1 3.650000e-01    1.750000e+00
 SP2ar  TN1r  1 3.650000e-01    1.750000e+00
 SP1ar  TN6r  1 3.650000e-01    2.340000e+00
 SP1ar  TN5r  1 3.650000e-01    2.110000e+00
 SP1ar  TN4r  1 3.650000e-01    2.110000e+00
 SP1ar  TN3r  1 3.650000e-01    1.750000e+00
 SP1ar  TN2r  1 3.650000e-01    1.750000e+00
 SP1ar  TN1r  1 3.650000e-01    1.750000e+00
 SN6ar  TN5r  1 3.650000e-01    2.340000e+00
 SN6ar  TN4r  1 3.650000e-01    2.340000e+00
 SN6ar  TN3r  1 3.650000e-01    1.910000e+00
 SN6ar  TN2r  1 3.650000e-01    1.750000e+00
 SN6ar  TN1r  1 3.650000e-01    1.750000e+00
 SN5ar  TN4r  1 3.650000e-01    2.110000e+00
 SN5ar  TN3r  1 3.650000e-01    1.910000e+00
 SN5ar  TN2r  1 3.650000e-01    1.910000e+00
 SN5ar  TN1r  1 3.650000e-01    1.750000e+00
 SN4ar  TN3r  1 3.650000e-01    1.910000e+00
 SN4ar  TN2r  1 3.650000e-01    1.910000e+00
 SN4ar  TN1r  1 3.650000e-01    1.750000e+00
 SN3ar  TN2r  1 3.650000e-01    1.910000e+00
 SN3ar  TN1r  1 3.650000e-01    1.750000e+00
 SN2ar  TN1r  1 3.650000e-01    1.750000e+00
 SC6vr  TC5r  1 3.650000e-01    1.910000e+00
 SC6vr  TC4r  1 3.650000e-01    1.910000e+00
 SC6vr  TC3r  1 3.650000e-01    1.750000e+00
 SC6vr  TC2r  1 3.660000e-01    1.600000e+00
 SC6vr  TC1r  1 3.780000e-01    1.450000e+00
 SC6vr  TX4r  1 3.650000e-01    1.910000e+00
 SC6vr  TX3r  1 3.650000e-01    1.910000e+00
 SC6vr  TX2r  1 3.650000e-01    1.910000e+00
 SC6vr  TX1r  1 3.650000e-01    1.910000e+00
 SC5vr  TC4r  1 3.650000e-01    1.910000e+00
 SC5vr  TC3r  1 3.650000e-01    1.750000e+00
 SC5vr  TC2r  1 3.660000e-01    1.600000e+00
 SC5vr  TC1r  1 3.660000e-01    1.600000e+00
 SC5vr  TX4r  1 3.650000e-01    1.750000e+00
 SC5vr  TX3r  1 3.650000e-01    1.750000e+00
 SC5vr  TX2r  1 3.650000e-01    1.750000e+00
 SC5vr  TX1r  1 3.650000e-01    1.910000e+00
 SC4vr  TC3r  1 3.650000e-01    1.910000e+00
 SC4vr  TC2r  1 3.650000e-01    1.750000e+00
 SC4vr  TC1r  1 3.660000e-01    1.600000e+00
 SC4vr  TX4r  1 3.650000e-01    1.750000e+00
 SC4vr  TX3r  1 3.650000e-01    1.750000e+00
 SC4vr  TX2r  1 3.650000e-01    1.750000e+00
 SC4vr  TX1r  1 3.650000e-01    1.910000e+00
 SC3vr  TC2r  1 3.650000e-01    1.910000e+00
 SC3vr  TC1r  1 3.650000e-01    1.910000e+00
 SC3vr  TX4r  1 3.650000e-01    1.750000e+00
 SC3vr  TX3r  1 3.650000e-01    1.750000e+00
 SC3vr  TX2r  1 3.650000e-01    1.750000e+00
 SC3vr  TX1r  1 3.650000e-01    1.910000e+00
 SC2vr  TC1r  1 3.650000e-01    2.110000e+00
 SC2vr  TX4r  1 3.780000e-01    1.450000e+00
 SC2vr  TX3r  1 3.650000e-01    1.750000e+00
 SC2vr  TX2r  1 3.650000e-01    1.750000e+00
 SC2vr  TX1r  1 3.650000e-01    1.750000e+00
 SC1vr  TX4r  1 3.780000e-01    1.450000e+00
 SC1vr  TX3r  1 3.650000e-01    1.750000e+00
 SC1vr  TX2r  1 3.650000e-01    1.750000e+00
 SC1vr  TX1r  1 3.650000e-01    1.750000e+00
 SX4vr  TX3r  1 3.650000e-01    1.910000e+00
 SX4vr  TX2r  1 3.650000e-01    1.910000e+00
 SX4vr  TX1r  1 3.650000e-01    1.910000e+00
 SX3vr  TX2r  1 3.650000e-01    2.110000e+00
 SX3vr  TX1r  1 3.650000e-01    2.110000e+00
 SX2vr  TX1r  1 3.650000e-01    2.110000e+00
 SC6er  TC5r  1 3.650000e-01    1.910000e+00
 SC6er  TC4r  1 3.650000e-01    1.910000e+00
 SC6er  TC3r  1 3.650000e-01    1.750000e+00
 SC6er  TC2r  1 3.660000e-01    1.600000e+00
 SC6er  TC1r  1 3.780000e-01    1.450000e+00
 SC6er  TX4r  1 3.650000e-01    1.910000e+00
 SC6er  TX3r  1 3.650000e-01    1.910000e+00
 SC6er  TX2r  1 3.650000e-01    1.910000e+00
 SC6er  TX1r  1 3.650000e-01    1.910000e+00
 SC5er  TC4r  1 3.650000e-01    1.910000e+00
 SC5er  TC3r  1 3.650000e-01    1.750000e+00
 SC5er  TC2r  1 3.660000e-01    1.600000e+00
 SC5er  TC1r  1 3.660000e-01    1.600000e+00
 SC5er  TX4r  1 3.650000e-01    1.750000e+00
 SC5er  TX3r  1 3.650000e-01    1.750000e+00
 SC5er  TX2r  1 3.650000e-01    1.750000e+00
 SC5er  TX1r  1 3.650000e-01    1.910000e+00
 SC4er  TC3r  1 3.650000e-01    1.910000e+00
 SC4er  TC2r  1 3.650000e-01    1.750000e+00
 SC4er  TC1r  1 3.660000e-01    1.600000e+00
 SC4er  TX4r  1 3.650000e-01    1.750000e+00
 SC4er  TX3r  1 3.650000e-01    1.750000e+00
 SC4er  TX2r  1 3.650000e-01    1.750000e+00
 SC4er  TX1r  1 3.650000e-01    1.910000e+00
 SC3er  TC2r  1 3.650000e-01    1.910000e+00
 SC3er  TC1r  1 3.650000e-01    1.910000e+00
 SC3er  TX4r  1 3.650000e-01    1.750000e+00
 SC3er  TX3r  1 3.650000e-01    1.750000e+00
 SC3er  TX2r  1 3.650000e-01    1.750000e+00
 SC3er  TX1r  1 3.650000e-01    1.910000e+00
 SC2er  TC1r  1 3.650000e-01    2.110000e+00
 SC2er  TX4r  1 3.780000e-01    1.450000e+00
 SC2er  TX3r  1 3.650000e-01    1.750000e+00
 SC2er  TX2r  1 3.650000e-01    1.750000e+00
 SC2er  TX1r  1 3.650000e-01    1.750000e+00
 SC1er  TX4r  1 3.780000e-01    1.450000e+00
 SC1er  TX3r  1 3.650000e-01    1.750000e+00
 SC1er  TX2r  1 3.650000e-01    1.750000e+00
 SC1er  TX1r  1 3.650000e-01    1.750000e+00
 SX4er  TX3r  1 3.650000e-01    1.910000e+00
 SX4er  TX2r  1 3.650000e-01    1.910000e+00
 SX4er  TX1r  1 3.650000e-01    1.910000e+00
 SX3er  TX2r  1 3.650000e-01    2.110000e+00
 SX3er  TX1r  1 3.650000e-01    2.110000e+00
 SX2er  TX1r  1 3.650000e-01    2.110000e+00
 SP6dr  TC6r  1 3.780000e-01    1.450000e+00
 SP6dr  TC5r  1 3.940000e-01    1.290000e+00
 SP6dr  TC4r  1 4.040000e-01    1.130000e+00
 SP6dr  TC3r  1 4.090000e-01    1.080000e+00
 SP6dr  TC2r  1 4.090000e-01    1.080000e+00
 SP6dr  TC1r  1 4.840000e-01    8.900000e-01
 SP6dr  TX4r  1 3.660000e-01    1.600000e+00
 SP6dr  TX3r  1 3.660000e-01    1.600000e+00
 SP6dr  TX2r  1 3.780000e-01    1.450000e+00
 SP6dr  TX1r  1 3.940000e-01    1.290000e+00
 SP5dr  TC6r  1 3.780000e-01    1.450000e+00
 SP5dr  TC5r  1 3.780000e-01    1.450000e+00
 SP5dr  TC4r  1 3.940000e-01    1.290000e+00
 SP5dr  TC3r  1 4.040000e-01    1.130000e+00
 SP5dr  TC2r  1 4.040000e-01    1.130000e+00
 SP5dr  TC1r  1 4.090000e-01    1.080000e+00
 SP5dr  TX4r  1 3.650000e-01    1.750000e+00
 SP5dr  TX3r  1 3.660000e-01    1.600000e+00
 SP5dr  TX2r  1 3.660000e-01    1.600000e+00
 SP5dr  TX1r  1 3.940000e-01    1.290000e+00
 SP4dr  TC6r  1 3.660000e-01    1.600000e+00
 SP4dr  TC5r  1 3.780000e-01    1.450000e+00
 SP4dr  TC4r  1 3.940000e-01    1.290000e+00
 SP4dr  TC3r  1 4.040000e-01    1.130000e+00
 SP4dr  TC2r  1 4.040000e-01    1.130000e+00
 SP4dr  TC1r  1 4.090000e-01    1.080000e+00
 SP4dr  TX4r  1 3.650000e-01    1.750000e+00
 SP4dr  TX3r  1 3.660000e-01    1.600000e+00
 SP4dr  TX2r  1 3.660000e-01    1.600000e+00
 SP4dr  TX1r  1 3.780000e-01    1.450000e+00
 SP3dr  TC6r  1 3.650000e-01    1.750000e+00
 SP3dr  TC5r  1 3.660000e-01    1.600000e+00
 SP3dr  TC4r  1 3.780000e-01    1.450000e+00
 SP3dr  TC3r  1 4.040000e-01    1.130000e+00
 SP3dr  TC2r  1 4.040000e-01    1.130000e+00
 SP3dr  TC1r  1 4.090000e-01    1.080000e+00
 SP3dr  TX4r  1 3.650000e-01    1.750000e+00
 SP3dr  TX3r  1 3.650000e-01    1.750000e+00
 SP3dr  TX2r  1 3.660000e-01    1.600000e+00
 SP3dr  TX1r  1 3.780000e-01    1.450000e+00
 SP2dr  TC6r  1 3.650000e-01    1.750000e+00
 SP2dr  TC5r  1 3.660000e-01    1.600000e+00
 SP2dr  TC4r  1 3.780000e-01    1.450000e+00
 SP2dr  TC3r  1 3.940000e-01    1.290000e+00
 SP2dr  TC2r  1 3.940000e-01    1.290000e+00
 SP2dr  TC1r  1 4.040000e-01    1.130000e+00
 SP2dr  TX4r  1 3.650000e-01    1.750000e+00
 SP2dr  TX3r  1 3.650000e-01    1.750000e+00
 SP2dr  TX2r  1 3.660000e-01    1.600000e+00
 SP2dr  TX1r  1 3.780000e-01    1.450000e+00
 SP1dr  TC6r  1 3.650000e-01    1.750000e+00
 SP1dr  TC5r  1 3.660000e-01    1.600000e+00
 SP1dr  TC4r  1 3.780000e-01    1.450000e+00
 SP1dr  TC3r  1 3.940000e-01    1.290000e+00
 SP1dr  TC2r  1 3.940000e-01    1.290000e+00
 SP1dr  TC1r  1 4.040000e-01    1.130000e+00
 SP1dr  TX4r  1 3.650000e-01    1.750000e+00
 SP1dr  TX3r  1 3.650000e-01    1.750000e+00
 SP1dr  TX2r  1 3.660000e-01    1.600000e+00
 SP1dr  TX1r  1 3.780000e-01    1.450000e+00
 SN6dr  TC6r  1 3.650000e-01    1.910000e+00
 SN6dr  TC5r  1 3.650000e-01    1.750000e+00
 SN6dr  TC4r  1 3.660000e-01    1.600000e+00
 SN6dr  TC3r  1 3.780000e-01    1.450000e+00
 SN6dr  TC2r  1 3.780000e-01    1.450000e+00
 SN6dr  TC1r  1 3.940000e-01    1.290000e+00
 SN6dr  TX4r  1 3.650000e-01    1.910000e+00
 SN6dr  TX3r  1 3.650000e-01    1.750000e+00
 SN6dr  TX2r  1 3.660000e-01    1.600000e+00
 SN6dr  TX1r  1 3.780000e-01    1.450000e+00
 SN5dr  TC6r  1 3.650000e-01    1.910000e+00
 SN5dr  TC5r  1 3.650000e-01    1.750000e+00
 SN5dr  TC4r  1 3.660000e-01    1.600000e+00
 SN5dr  TC3r  1 3.660000e-01    1.600000e+00
 SN5dr  TC2r  1 3.780000e-01    1.450000e+00
 SN5dr  TC1r  1 3.940000e-01    1.290000e+00
 SN5dr  TX4r  1 3.650000e-01    2.110000e+00
 SN5dr  TX3r  1 3.650000e-01    1.910000e+00
 SN5dr  TX2r  1 3.650000e-01    1.750000e+00
 SN5dr  TX1r  1 3.660000e-01    1.600000e+00
 SN4dr  TC6r  1 3.650000e-01    1.910000e+00
 SN4dr  TC5r  1 3.650000e-01    1.750000e+00
 SN4dr  TC4r  1 3.650000e-01    1.750000e+00
 SN4dr  TC3r  1 3.660000e-01    1.600000e+00
 SN4dr  TC2r  1 3.780000e-01    1.450000e+00
 SN4dr  TC1r  1 3.940000e-01    1.290000e+00
 SN4dr  TX4r  1 3.650000e-01    2.340000e+00
 SN4dr  TX3r  1 3.650000e-01    2.110000e+00
 SN4dr  TX2r  1 3.650000e-01    1.750000e+00
 SN4dr  TX1r  1 3.660000e-01    1.600000e+00
 SN3dr  TC6r  1 3.650000e-01    1.910000e+00
 SN3dr  TC5r  1 3.650000e-01    1.750000e+00
 SN3dr  TC4r  1 3.650000e-01    1.750000e+00
 SN3dr  TC3r  1 3.660000e-01    1.600000e+00
 SN3dr  TC2r  1 3.660000e-01    1.600000e+00
 SN3dr  TC1r  1 3.780000e-01    1.450000e+00
 SN3dr  TX4r  1 3.650000e-01    2.110000e+00
 SN3dr  TX3r  1 3.650000e-01    1.910000e+00
 SN3dr  TX2r  1 3.650000e-01    1.750000e+00
 SN3dr  TX1r  1 3.650000e-01    1.750000e+00
 SN2dr  TC6r  1 3.650000e-01    1.910000e+00
 SN2dr  TC5r  1 3.650000e-01    1.750000e+00
 SN2dr  TC4r  1 3.650000e-01    1.750000e+00
 SN2dr  TC3r  1 3.650000e-01    1.750000e+00
 SN2dr  TC2r  1 3.660000e-01    1.600000e+00
 SN2dr  TC1r  1 3.780000e-01    1.450000e+00
 SN2dr  TX4r  1 3.650000e-01    2.110000e+00
 SN2dr  TX3r  1 3.650000e-01    1.910000e+00
 SN2dr  TX2r  1 3.650000e-01    1.750000e+00
 SN2dr  TX1r  1 3.650000e-01    1.750000e+00
 SN1dr  TC6r  1 3.650000e-01    2.110000e+00
 SN1dr  TC5r  1 3.650000e-01    1.910000e+00
 SN1dr  TC4r  1 3.650000e-01    1.910000e+00
 SN1dr  TC3r  1 3.650000e-01    1.750000e+00
 SN1dr  TC2r  1 3.660000e-01    1.600000e+00
 SN1dr  TC1r  1 3.780000e-01    1.450000e+00
 SN1dr  TX4r  1 3.650000e-01    1.910000e+00
 SN1dr  TX3r  1 3.650000e-01    1.910000e+00
 SN1dr  TX2r  1 3.650000e-01    1.750000e+00
 SN1dr  TX1r  1 3.650000e-01    1.750000e+00
 SP6ar  TC6r  1 3.780000e-01    1.450000e+00
 SP6ar  TC5r  1 3.940000e-01    1.290000e+00
 SP6ar  TC4r  1 4.040000e-01    1.130000e+00
 SP6ar  TC3r  1 4.090000e-01    1.080000e+00
 SP6ar  TC2r  1 4.090000e-01    1.080000e+00
 SP6ar  TC1r  1 4.840000e-01    8.900000e-01
 SP6ar  TX4r  1 3.660000e-01    1.600000e+00
 SP6ar  TX3r  1 3.660000e-01    1.600000e+00
 SP6ar  TX2r  1 3.780000e-01    1.450000e+00
 SP6ar  TX1r  1 3.940000e-01    1.290000e+00
 SP5ar  TC6r  1 3.780000e-01    1.450000e+00
 SP5ar  TC5r  1 3.780000e-01    1.450000e+00
 SP5ar  TC4r  1 3.940000e-01    1.290000e+00
 SP5ar  TC3r  1 4.040000e-01    1.130000e+00
 SP5ar  TC2r  1 4.040000e-01    1.130000e+00
 SP5ar  TC1r  1 4.090000e-01    1.080000e+00
 SP5ar  TX4r  1 3.650000e-01    1.750000e+00
 SP5ar  TX3r  1 3.660000e-01    1.600000e+00
 SP5ar  TX2r  1 3.660000e-01    1.600000e+00
 SP5ar  TX1r  1 3.940000e-01    1.290000e+00
 SP4ar  TC6r  1 3.660000e-01    1.600000e+00
 SP4ar  TC5r  1 3.780000e-01    1.450000e+00
 SP4ar  TC4r  1 3.940000e-01    1.290000e+00
 SP4ar  TC3r  1 4.040000e-01    1.130000e+00
 SP4ar  TC2r  1 4.040000e-01    1.130000e+00
 SP4ar  TC1r  1 4.090000e-01    1.080000e+00
 SP4ar  TX4r  1 3.650000e-01    1.750000e+00
 SP4ar  TX3r  1 3.660000e-01    1.600000e+00
 SP4ar  TX2r  1 3.660000e-01    1.600000e+00
 SP4ar  TX1r  1 3.780000e-01    1.450000e+00
 SP3ar  TC6r  1 3.650000e-01    1.750000e+00
 SP3ar  TC5r  1 3.660000e-01    1.600000e+00
 SP3ar  TC4r  1 3.780000e-01    1.450000e+00
 SP3ar  TC3r  1 4.040000e-01    1.130000e+00
 SP3ar  TC2r  1 4.040000e-01    1.130000e+00
 SP3ar  TC1r  1 4.090000e-01    1.080000e+00
 SP3ar  TX4r  1 3.650000e-01    1.750000e+00
 SP3ar  TX3r  1 3.650000e-01    1.750000e+00
 SP3ar  TX2r  1 3.660000e-01    1.600000e+00
 SP3ar  TX1r  1 3.780000e-01    1.450000e+00
 SP2ar  TC6r  1 3.650000e-01    1.750000e+00
 SP2ar  TC5r  1 3.660000e-01    1.600000e+00
 SP2ar  TC4r  1 3.780000e-01    1.450000e+00
 SP2ar  TC3r  1 3.940000e-01    1.290000e+00
 SP2ar  TC2r  1 3.940000e-01    1.290000e+00
 SP2ar  TC1r  1 4.040000e-01    1.130000e+00
 SP2ar  TX4r  1 3.650000e-01    1.750000e+00
 SP2ar  TX3r  1 3.650000e-01    1.750000e+00
 SP2ar  TX2r  1 3.660000e-01    1.600000e+00
 SP2ar  TX1r  1 3.780000e-01    1.450000e+00
 SP1ar  TC6r  1 3.650000e-01    1.750000e+00
 SP1ar  TC5r  1 3.660000e-01    1.600000e+00
 SP1ar  TC4r  1 3.780000e-01    1.450000e+00
 SP1ar  TC3r  1 3.940000e-01    1.290000e+00
 SP1ar  TC2r  1 3.940000e-01    1.290000e+00
 SP1ar  TC1r  1 4.040000e-01    1.130000e+00
 SP1ar  TX4r  1 3.650000e-01    1.750000e+00
 SP1ar  TX3r  1 3.650000e-01    1.750000e+00
 SP1ar  TX2r  1 3.660000e-01    1.600000e+00
 SP1ar  TX1r  1 3.780000e-01    1.450000e+00
 SN6ar  TC6r  1 3.650000e-01    1.910000e+00
 SN6ar  TC5r  1 3.650000e-01    1.750000e+00
 SN6ar  TC4r  1 3.660000e-01    1.600000e+00
 SN6ar  TC3r  1 3.780000e-01    1.450000e+00
 SN6ar  TC2r  1 3.780000e-01    1.450000e+00
 SN6ar  TC1r  1 3.940000e-01    1.290000e+00
 SN6ar  TX4r  1 3.650000e-01    1.910000e+00
 SN6ar  TX3r  1 3.650000e-01    1.750000e+00
 SN6ar  TX2r  1 3.660000e-01    1.600000e+00
 SN6ar  TX1r  1 3.780000e-01    1.450000e+00
 SN5ar  TC6r  1 3.650000e-01    1.910000e+00
 SN5ar  TC5r  1 3.650000e-01    1.750000e+00
 SN5ar  TC4r  1 3.660000e-01    1.600000e+00
 SN5ar  TC3r  1 3.660000e-01    1.600000e+00
 SN5ar  TC2r  1 3.780000e-01    1.450000e+00
 SN5ar  TC1r  1 3.940000e-01    1.290000e+00
 SN5ar  TX4r  1 3.650000e-01    2.110000e+00
 SN5ar  TX3r  1 3.650000e-01    1.910000e+00
 SN5ar  TX2r  1 3.650000e-01    1.750000e+00
 SN5ar  TX1r  1 3.660000e-01    1.600000e+00
 SN4ar  TC6r  1 3.650000e-01    1.910000e+00
 SN4ar  TC5r  1 3.650000e-01    1.750000e+00
 SN4ar  TC4r  1 3.650000e-01    1.750000e+00
 SN4ar  TC3r  1 3.660000e-01    1.600000e+00
 SN4ar  TC2r  1 3.780000e-01    1.450000e+00
 SN4ar  TC1r  1 3.940000e-01    1.290000e+00
 SN4ar  TX4r  1 3.650000e-01    2.340000e+00
 SN4ar  TX3r  1 3.650000e-01    2.110000e+00
 SN4ar  TX2r  1 3.650000e-01    1.750000e+00
 SN4ar  TX1r  1 3.660000e-01    1.600000e+00
 SN3ar  TC6r  1 3.650000e-01    1.910000e+00
 SN3ar  TC5r  1 3.650000e-01    1.750000e+00
 SN3ar  TC4r  1 3.650000e-01    1.750000e+00
 SN3ar  TC3r  1 3.660000e-01    1.600000e+00
 SN3ar  TC2r  1 3.660000e-01    1.600000e+00
 SN3ar  TC1r  1 3.780000e-01    1.450000e+00
 SN3ar  TX4r  1 3.650000e-01    2.110000e+00
 SN3ar  TX3r  1 3.650000e-01    1.910000e+00
 SN3ar  TX2r  1 3.650000e-01    1.750000e+00
 SN3ar  TX1r  1 3.650000e-01    1.750000e+00
 SN2ar  TC6r  1 3.650000e-01    1.910000e+00
 SN2ar  TC5r  1 3.650000e-01    1.750000e+00
 SN2ar  TC4r  1 3.650000e-01    1.750000e+00
 SN2ar  TC3r  1 3.650000e-01    1.750000e+00
 SN2ar  TC2r  1 3.660000e-01    1.600000e+00
 SN2ar  TC1r  1 3.780000e-01    1.450000e+00
 SN2ar  TX4r  1 3.650000e-01    2.110000e+00
 SN2ar  TX3r  1 3.650000e-01    1.910000e+00
 SN2ar  TX2r  1 3.650000e-01    1.750000e+00
 SN2ar  TX1r  1 3.650000e-01    1.750000e+00
 SN1ar  TC6r  1 3.650000e-01    2.110000e+00
 SN1ar  TC5r  1 3.650000e-01    1.910000e+00
 SN1ar  TC4r  1 3.650000e-01    1.910000e+00
 SN1ar  TC3r  1 3.650000e-01    1.750000e+00
 SN1ar  TC2r  1 3.660000e-01    1.600000e+00
 SN1ar  TC1r  1 3.780000e-01    1.450000e+00
 SN1ar  TX4r  1 3.650000e-01    1.910000e+00
 SN1ar  TX3r  1 3.650000e-01    1.910000e+00
 SN1ar  TX2r  1 3.650000e-01    1.750000e+00
 SN1ar  TX1r  1 3.650000e-01    1.750000e+00
 SP6dh  TP5h  1 3.650000e-01    3.930000e+00
 SP6dh  TP4h  1 3.650000e-01    3.640000e+00
 SP6dh  TP3h  1 3.650000e-01    3.370000e+00
 SP6dh  TP2h  1 3.650000e-01    3.370000e+00
 SP6dh  TP1h  1 3.650000e-01    3.100000e+00
 SP6dh  TN6h  1 3.650000e-01    2.830000e+00
 SP6dh  TN5h  1 3.650000e-01    2.340000e+00
 SP6dh  TN4h  1 3.650000e-01    2.110000e+00
 SP6dh  TN3h  1 3.650000e-01    1.910000e+00
 SP6dh  TN2h  1 3.650000e-01    1.750000e+00
 SP6dh  TN1h  1 3.660000e-01    1.600000e+00
 SP5dh  TP4h  1 3.650000e-01    3.370000e+00
 SP5dh  TP3h  1 3.650000e-01    3.100000e+00
 SP5dh  TP2h  1 3.650000e-01    3.100000e+00
 SP5dh  TP1h  1 3.650000e-01    2.830000e+00
 SP5dh  TN6h  1 3.650000e-01    2.570000e+00
 SP5dh  TN5h  1 3.650000e-01    2.340000e+00
 SP5dh  TN4h  1 3.650000e-01    2.340000e+00
 SP5dh  TN3h  1 3.650000e-01    1.910000e+00
 SP5dh  TN2h  1 3.650000e-01    1.750000e+00
 SP5dh  TN1h  1 3.660000e-01    1.600000e+00
 SP4dh  TP3h  1 3.650000e-01    3.100000e+00
 SP4dh  TP2h  1 3.650000e-01    3.100000e+00
 SP4dh  TP1h  1 3.650000e-01    2.830000e+00
 SP4dh  TN6h  1 3.650000e-01    2.570000e+00
 SP4dh  TN5h  1 3.650000e-01    2.340000e+00
 SP4dh  TN4h  1 3.650000e-01    2.340000e+00
 SP4dh  TN3h  1 3.650000e-01    2.110000e+00
 SP4dh  TN2h  1 3.650000e-01    1.910000e+00
 SP4dh  TN1h  1 3.650000e-01    1.750000e+00
 SP3dh  TP2h  1 3.650000e-01    3.100000e+00
 SP3dh  TP1h  1 3.650000e-01    2.830000e+00
 SP3dh  TN6h  1 3.650000e-01    2.570000e+00
 SP3dh  TN5h  1 3.650000e-01    2.340000e+00
 SP3dh  TN4h  1 3.650000e-01    2.340000e+00
 SP3dh  TN3h  1 3.650000e-01    2.110000e+00
 SP3dh  TN2h  1 3.650000e-01    2.110000e+00
 SP3dh  TN1h  1 3.650000e-01    1.910000e+00
 SP2dh  TP1h  1 3.650000e-01    2.830000e+00
 SP2dh  TN6h  1 3.650000e-01    2.830000e+00
 SP2dh  TN5h  1 3.650000e-01    2.570000e+00
 SP2dh  TN4h  1 3.650000e-01    2.340000e+00
 SP2dh  TN3h  1 3.650000e-01    2.110000e+00
 SP2dh  TN2h  1 3.650000e-01    2.110000e+00
 SP2dh  TN1h  1 3.650000e-01    2.110000e+00
 SP1dh  TN6h  1 3.650000e-01    2.830000e+00
 SP1dh  TN5h  1 3.650000e-01    2.570000e+00
 SP1dh  TN4h  1 3.650000e-01    2.570000e+00
 SP1dh  TN3h  1 3.650000e-01    2.110000e+00
 SP1dh  TN2h  1 3.650000e-01    2.110000e+00
 SP1dh  TN1h  1 3.650000e-01    2.110000e+00
 SN6dh  TN5h  1 3.650000e-01    2.830000e+00
 SN6dh  TN4h  1 3.650000e-01    2.830000e+00
 SN6dh  TN3h  1 3.650000e-01    2.340000e+00
 SN6dh  TN2h  1 3.650000e-01    2.110000e+00
 SN6dh  TN1h  1 3.650000e-01    2.110000e+00
 SN5dh  TN4h  1 3.650000e-01    2.570000e+00
 SN5dh  TN3h  1 3.650000e-01    2.340000e+00
 SN5dh  TN2h  1 3.650000e-01    2.340000e+00
 SN5dh  TN1h  1 3.650000e-01    2.110000e+00
 SN4dh  TN3h  1 3.650000e-01    2.340000e+00
 SN4dh  TN2h  1 3.650000e-01    2.340000e+00
 SN4dh  TN1h  1 3.650000e-01    2.110000e+00
 SN3dh  TN2h  1 3.650000e-01    2.340000e+00
 SN3dh  TN1h  1 3.650000e-01    2.110000e+00
 SN2dh  TN1h  1 3.650000e-01    2.110000e+00
 SP6ah  TP5h  1 3.650000e-01    3.930000e+00
 SP6ah  TP4h  1 3.650000e-01    3.640000e+00
 SP6ah  TP3h  1 3.650000e-01    3.370000e+00
 SP6ah  TP2h  1 3.650000e-01    3.370000e+00
 SP6ah  TP1h  1 3.650000e-01    3.100000e+00
 SP6ah  TN6h  1 3.650000e-01    2.830000e+00
 SP6ah  TN5h  1 3.650000e-01    2.340000e+00
 SP6ah  TN4h  1 3.650000e-01    2.110000e+00
 SP6ah  TN3h  1 3.650000e-01    1.910000e+00
 SP6ah  TN2h  1 3.650000e-01    1.750000e+00
 SP6ah  TN1h  1 3.660000e-01    1.600000e+00
 SP5ah  TP4h  1 3.650000e-01    3.370000e+00
 SP5ah  TP3h  1 3.650000e-01    3.100000e+00
 SP5ah  TP2h  1 3.650000e-01    3.100000e+00
 SP5ah  TP1h  1 3.650000e-01    2.830000e+00
 SP5ah  TN6h  1 3.650000e-01    2.570000e+00
 SP5ah  TN5h  1 3.650000e-01    2.340000e+00
 SP5ah  TN4h  1 3.650000e-01    2.340000e+00
 SP5ah  TN3h  1 3.650000e-01    1.910000e+00
 SP5ah  TN2h  1 3.650000e-01    1.750000e+00
 SP5ah  TN1h  1 3.660000e-01    1.600000e+00
 SP4ah  TP3h  1 3.650000e-01    3.100000e+00
 SP4ah  TP2h  1 3.650000e-01    3.100000e+00
 SP4ah  TP1h  1 3.650000e-01    2.830000e+00
 SP4ah  TN6h  1 3.650000e-01    2.570000e+00
 SP4ah  TN5h  1 3.650000e-01    2.340000e+00
 SP4ah  TN4h  1 3.650000e-01    2.340000e+00
 SP4ah  TN3h  1 3.650000e-01    2.110000e+00
 SP4ah  TN2h  1 3.650000e-01    1.910000e+00
 SP4ah  TN1h  1 3.650000e-01    1.750000e+00
 SP3ah  TP2h  1 3.650000e-01    3.100000e+00
 SP3ah  TP1h  1 3.650000e-01    2.830000e+00
 SP3ah  TN6h  1 3.650000e-01    2.570000e+00
 SP3ah  TN5h  1 3.650000e-01    2.340000e+00
 SP3ah  TN4h  1 3.650000e-01    2.340000e+00
 SP3ah  TN3h  1 3.650000e-01    2.110000e+00
 SP3ah  TN2h  1 3.650000e-01    2.110000e+00
 SP3ah  TN1h  1 3.650000e-01    1.910000e+00
 SP2ah  TP1h  1 3.650000e-01    2.830000e+00
 SP2ah  TN6h  1 3.650000e-01    2.830000e+00
 SP2ah  TN5h  1 3.650000e-01    2.570000e+00
 SP2ah  TN4h  1 3.650000e-01    2.340000e+00
 SP2ah  TN3h  1 3.650000e-01    2.110000e+00
 SP2ah  TN2h  1 3.650000e-01    2.110000e+00
 SP2ah  TN1h  1 3.650000e-01    2.110000e+00
 SP1ah  TN6h  1 3.650000e-01    2.830000e+00
 SP1ah  TN5h  1 3.650000e-01    2.570000e+00
 SP1ah  TN4h  1 3.650000e-01    2.570000e+00
 SP1ah  TN3h  1 3.650000e-01    2.110000e+00
 SP1ah  TN2h  1 3.650000e-01    2.110000e+00
 SP1ah  TN1h  1 3.650000e-01    2.110000e+00
 SN6ah  TN5h  1 3.650000e-01    2.830000e+00
 SN6ah  TN4h  1 3.650000e-01    2.830000e+00
 SN6ah  TN3h  1 3.650000e-01    2.340000e+00
 SN6ah  TN2h  1 3.650000e-01    2.110000e+00
 SN6ah  TN1h  1 3.650000e-01    2.110000e+00
 SN5ah  TN4h  1 3.650000e-01    2.570000e+00
 SN5ah  TN3h  1 3.650000e-01    2.340000e+00
 SN5ah  TN2h  1 3.650000e-01    2.340000e+00
 SN5ah  TN1h  1 3.650000e-01    2.110000e+00
 SN4ah  TN3h  1 3.650000e-01    2.340000e+00
 SN4ah  TN2h  1 3.650000e-01    2.340000e+00
 SN4ah  TN1h  1 3.650000e-01    2.110000e+00
 SN3ah  TN2h  1 3.650000e-01    2.340000e+00
 SN3ah  TN1h  1 3.650000e-01    2.110000e+00
 SN2ah  TN1h  1 3.650000e-01    2.110000e+00
 SC6vh  TC5h  1 3.650000e-01    2.340000e+00
 SC6vh  TC4h  1 3.650000e-01    2.340000e+00
 SC6vh  TC3h  1 3.650000e-01    2.110000e+00
 SC6vh  TC2h  1 3.650000e-01    1.910000e+00
 SC6vh  TC1h  1 3.650000e-01    1.750000e+00
 SC6vh  TX4h  1 3.650000e-01    2.340000e+00
 SC6vh  TX3h  1 3.650000e-01    2.340000e+00
 SC6vh  TX2h  1 3.650000e-01    2.340000e+00
 SC6vh  TX1h  1 3.650000e-01    2.340000e+00
 SC5vh  TC4h  1 3.650000e-01    2.340000e+00
 SC5vh  TC3h  1 3.650000e-01    2.110000e+00
 SC5vh  TC2h  1 3.650000e-01    1.910000e+00
 SC5vh  TC1h  1 3.650000e-01    1.910000e+00
 SC5vh  TX4h  1 3.650000e-01    2.110000e+00
 SC5vh  TX3h  1 3.650000e-01    2.110000e+00
 SC5vh  TX2h  1 3.650000e-01    2.110000e+00
 SC5vh  TX1h  1 3.650000e-01    2.340000e+00
 SC4vh  TC3h  1 3.650000e-01    2.340000e+00
 SC4vh  TC2h  1 3.650000e-01    2.110000e+00
 SC4vh  TC1h  1 3.650000e-01    1.910000e+00
 SC4vh  TX4h  1 3.650000e-01    2.110000e+00
 SC4vh  TX3h  1 3.650000e-01    2.110000e+00
 SC4vh  TX2h  1 3.650000e-01    2.110000e+00
 SC4vh  TX1h  1 3.650000e-01    2.340000e+00
 SC3vh  TC2h  1 3.650000e-01    2.340000e+00
 SC3vh  TC1h  1 3.650000e-01    2.340000e+00
 SC3vh  TX4h  1 3.650000e-01    2.110000e+00
 SC3vh  TX3h  1 3.650000e-01    2.110000e+00
 SC3vh  TX2h  1 3.650000e-01    2.110000e+00
 SC3vh  TX1h  1 3.650000e-01    2.340000e+00
 SC2vh  TC1h  1 3.650000e-01    2.570000e+00
 SC2vh  TX4h  1 3.650000e-01    1.750000e+00
 SC2vh  TX3h  1 3.650000e-01    2.110000e+00
 SC2vh  TX2h  1 3.650000e-01    2.110000e+00
 SC2vh  TX1h  1 3.650000e-01    2.110000e+00
 SC1vh  TX4h  1 3.650000e-01    1.750000e+00
 SC1vh  TX3h  1 3.650000e-01    2.110000e+00
 SC1vh  TX2h  1 3.650000e-01    2.110000e+00
 SC1vh  TX1h  1 3.650000e-01    2.110000e+00
 SX4vh  TX3h  1 3.650000e-01    2.340000e+00
 SX4vh  TX2h  1 3.650000e-01    2.340000e+00
 SX4vh  TX1h  1 3.650000e-01    2.340000e+00
 SX3vh  TX2h  1 3.650000e-01    2.570000e+00
 SX3vh  TX1h  1 3.650000e-01    2.570000e+00
 SX2vh  TX1h  1 3.650000e-01    2.570000e+00
 SC6eh  TC5h  1 3.650000e-01    2.340000e+00
 SC6eh  TC4h  1 3.650000e-01    2.340000e+00
 SC6eh  TC3h  1 3.650000e-01    2.110000e+00
 SC6eh  TC2h  1 3.650000e-01    1.910000e+00
 SC6eh  TC1h  1 3.650000e-01    1.750000e+00
 SC6eh  TX4h  1 3.650000e-01    2.340000e+00
 SC6eh  TX3h  1 3.650000e-01    2.340000e+00
 SC6eh  TX2h  1 3.650000e-01    2.340000e+00
 SC6eh  TX1h  1 3.650000e-01    2.340000e+00
 SC5eh  TC4h  1 3.650000e-01    2.340000e+00
 SC5eh  TC3h  1 3.650000e-01    2.110000e+00
 SC5eh  TC2h  1 3.650000e-01    1.910000e+00
 SC5eh  TC1h  1 3.650000e-01    1.910000e+00
 SC5eh  TX4h  1 3.650000e-01    2.110000e+00
 SC5eh  TX3h  1 3.650000e-01    2.110000e+00
 SC5eh  TX2h  1 3.650000e-01    2.110000e+00
 SC5eh  TX1h  1 3.650000e-01    2.340000e+00
 SC4eh  TC3h  1 3.650000e-01    2.340000e+00
 SC4eh  TC2h  1 3.650000e-01    2.110000e+00
 SC4eh  TC1h  1 3.650000e-01    1.910000e+00
 SC4eh  TX4h  1 3.650000e-01    2.110000e+00
 SC4eh  TX3h  1 3.650000e-01    2.110000e+00
 SC4eh  TX2h  1 3.650000e-01    2.110000e+00
 SC4eh  TX1h  1 3.650000e-01    2.340000e+00
 SC3eh  TC2h  1 3.650000e-01    2.340000e+00
 SC3eh  TC1h  1 3.650000e-01    2.340000e+00
 SC3eh  TX4h  1 3.650000e-01    2.110000e+00
 SC3eh  TX3h  1 3.650000e-01    2.110000e+00
 SC3eh  TX2h  1 3.650000e-01    2.110000e+00
 SC3eh  TX1h  1 3.650000e-01    2.340000e+00
 SC2eh  TC1h  1 3.650000e-01    2.570000e+00
 SC2eh  TX4h  1 3.650000e-01    1.750000e+00
 SC2eh  TX3h  1 3.650000e-01    2.110000e+00
 SC2eh  TX2h  1 3.650000e-01    2.110000e+00
 SC2eh  TX1h  1 3.650000e-01    2.110000e+00
 SC1eh  TX4h  1 3.650000e-01    1.750000e+00
 SC1eh  TX3h  1 3.650000e-01    2.110000e+00
 SC1eh  TX2h  1 3.650000e-01    2.110000e+00
 SC1eh  TX1h  1 3.650000e-01    2.110000e+00
 SX4eh  TX3h  1 3.650000e-01    2.340000e+00
 SX4eh  TX2h  1 3.650000e-01    2.340000e+00
 SX4eh  TX1h  1 3.650000e-01    2.340000e+00
 SX3eh  TX2h  1 3.650000e-01    2.570000e+00
 SX3eh  TX1h  1 3.650000e-01    2.570000e+00
 SX2eh  TX1h  1 3.650000e-01    2.570000e+00
 SP6dh  TC6h  1 3.780000e-01    1.450000e+00
 SP6dh  TC5h  1 3.940000e-01    1.290000e+00
 SP6dh  TC4h  1 4.040000e-01    1.130000e+00
 SP6dh  TC3h  1 4.090000e-01    1.080000e+00
 SP6dh  TC2h  1 4.090000e-01    1.080000e+00
 SP6dh  TC1h  1 4.840000e-01    8.900000e-01
 SP6dh  TX4h  1 3.660000e-01    1.600000e+00
 SP6dh  TX3h  1 3.660000e-01    1.600000e+00
 SP6dh  TX2h  1 3.780000e-01    1.450000e+00
 SP6dh  TX1h  1 3.940000e-01    1.290000e+00
 SP5dh  TC6h  1 3.780000e-01    1.450000e+00
 SP5dh  TC5h  1 3.780000e-01    1.450000e+00
 SP5dh  TC4h  1 3.940000e-01    1.290000e+00
 SP5dh  TC3h  1 4.040000e-01    1.130000e+00
 SP5dh  TC2h  1 4.040000e-01    1.130000e+00
 SP5dh  TC1h  1 4.090000e-01    1.080000e+00
 SP5dh  TX4h  1 3.650000e-01    1.750000e+00
 SP5dh  TX3h  1 3.660000e-01    1.600000e+00
 SP5dh  TX2h  1 3.660000e-01    1.600000e+00
 SP5dh  TX1h  1 3.940000e-01    1.290000e+00
 SP4dh  TC6h  1 3.660000e-01    1.600000e+00
 SP4dh  TC5h  1 3.780000e-01    1.450000e+00
 SP4dh  TC4h  1 3.940000e-01    1.290000e+00
 SP4dh  TC3h  1 4.040000e-01    1.130000e+00
 SP4dh  TC2h  1 4.040000e-01    1.130000e+00
 SP4dh  TC1h  1 4.090000e-01    1.080000e+00
 SP4dh  TX4h  1 3.650000e-01    1.750000e+00
 SP4dh  TX3h  1 3.660000e-01    1.600000e+00
 SP4dh  TX2h  1 3.660000e-01    1.600000e+00
 SP4dh  TX1h  1 3.780000e-01    1.450000e+00
 SP3dh  TC6h  1 3.650000e-01    1.750000e+00
 SP3dh  TC5h  1 3.660000e-01    1.600000e+00
 SP3dh  TC4h  1 3.780000e-01    1.450000e+00
 SP3dh  TC3h  1 4.040000e-01    1.130000e+00
 SP3dh  TC2h  1 4.040000e-01    1.130000e+00
 SP3dh  TC1h  1 4.090000e-01    1.080000e+00
 SP3dh  TX4h  1 3.650000e-01    1.750000e+00
 SP3dh  TX3h  1 3.650000e-01    1.750000e+00
 SP3dh  TX2h  1 3.660000e-01    1.600000e+00
 SP3dh  TX1h  1 3.780000e-01    1.450000e+00
 SP2dh  TC6h  1 3.650000e-01    1.750000e+00
 SP2dh  TC5h  1 3.660000e-01    1.600000e+00
 SP2dh  TC4h  1 3.780000e-01    1.450000e+00
 SP2dh  TC3h  1 3.940000e-01    1.290000e+00
 SP2dh  TC2h  1 3.940000e-01    1.290000e+00
 SP2dh  TC1h  1 4.040000e-01    1.130000e+00
 SP2dh  TX4h  1 3.650000e-01    1.750000e+00
 SP2dh  TX3h  1 3.650000e-01    1.750000e+00
 SP2dh  TX2h  1 3.660000e-01    1.600000e+00
 SP2dh  TX1h  1 3.780000e-01    1.450000e+00
 SP1dh  TC6h  1 3.650000e-01    1.750000e+00
 SP1dh  TC5h  1 3.660000e-01    1.600000e+00
 SP1dh  TC4h  1 3.780000e-01    1.450000e+00
 SP1dh  TC3h  1 3.940000e-01    1.290000e+00
 SP1dh  TC2h  1 3.940000e-01    1.290000e+00
 SP1dh  TC1h  1 4.040000e-01    1.130000e+00
 SP1dh  TX4h  1 3.650000e-01    1.750000e+00
 SP1dh  TX3h  1 3.650000e-01    1.750000e+00
 SP1dh  TX2h  1 3.660000e-01    1.600000e+00
 SP1dh  TX1h  1 3.780000e-01    1.450000e+00
 SN6dh  TC6h  1 3.650000e-01    1.910000e+00
 SN6dh  TC5h  1 3.650000e-01    1.750000e+00
 SN6dh  TC4h  1 3.660000e-01    1.600000e+00
 SN6dh  TC3h  1 3.780000e-01    1.450000e+00
 SN6dh  TC2h  1 3.780000e-01    1.450000e+00
 SN6dh  TC1h  1 3.940000e-01    1.290000e+00
 SN6dh  TX4h  1 3.650000e-01    1.910000e+00
 SN6dh  TX3h  1 3.650000e-01    1.750000e+00
 SN6dh  TX2h  1 3.660000e-01    1.600000e+00
 SN6dh  TX1h  1 3.780000e-01    1.450000e+00
 SN5dh  TC6h  1 3.650000e-01    1.910000e+00
 SN5dh  TC5h  1 3.650000e-01    1.750000e+00
 SN5dh  TC4h  1 3.660000e-01    1.600000e+00
 SN5dh  TC3h  1 3.660000e-01    1.600000e+00
 SN5dh  TC2h  1 3.780000e-01    1.450000e+00
 SN5dh  TC1h  1 3.940000e-01    1.290000e+00
 SN5dh  TX4h  1 3.650000e-01    2.110000e+00
 SN5dh  TX3h  1 3.650000e-01    1.910000e+00
 SN5dh  TX2h  1 3.650000e-01    1.750000e+00
 SN5dh  TX1h  1 3.660000e-01    1.600000e+00
 SN4dh  TC6h  1 3.650000e-01    1.910000e+00
 SN4dh  TC5h  1 3.650000e-01    1.750000e+00
 SN4dh  TC4h  1 3.650000e-01    1.750000e+00
 SN4dh  TC3h  1 3.660000e-01    1.600000e+00
 SN4dh  TC2h  1 3.780000e-01    1.450000e+00
 SN4dh  TC1h  1 3.940000e-01    1.290000e+00
 SN4dh  TX4h  1 3.650000e-01    2.340000e+00
 SN4dh  TX3h  1 3.650000e-01    2.110000e+00
 SN4dh  TX2h  1 3.650000e-01    1.750000e+00
 SN4dh  TX1h  1 3.660000e-01    1.600000e+00
 SN3dh  TC6h  1 3.650000e-01    1.910000e+00
 SN3dh  TC5h  1 3.650000e-01    1.750000e+00
 SN3dh  TC4h  1 3.650000e-01    1.750000e+00
 SN3dh  TC3h  1 3.660000e-01    1.600000e+00
 SN3dh  TC2h  1 3.660000e-01    1.600000e+00
 SN3dh  TC1h  1 3.780000e-01    1.450000e+00
 SN3dh  TX4h  1 3.650000e-01    2.110000e+00
 SN3dh  TX3h  1 3.650000e-01    1.910000e+00
 SN3dh  TX2h  1 3.650000e-01    1.750000e+00
 SN3dh  TX1h  1 3.650000e-01    1.750000e+00
 SN2dh  TC6h  1 3.650000e-01    1.910000e+00
 SN2dh  TC5h  1 3.650000e-01    1.750000e+00
 SN2dh  TC4h  1 3.650000e-01    1.750000e+00
 SN2dh  TC3h  1 3.650000e-01    1.750000e+00
 SN2dh  TC2h  1 3.660000e-01    1.600000e+00
 SN2dh  TC1h  1 3.780000e-01    1.450000e+00
 SN2dh  TX4h  1 3.650000e-01    2.110000e+00
 SN2dh  TX3h  1 3.650000e-01    1.910000e+00
 SN2dh  TX2h  1 3.650000e-01    1.750000e+00
 SN2dh  TX1h  1 3.650000e-01    1.750000e+00
 SN1dh  TC6h  1 3.650000e-01    2.110000e+00
 SN1dh  TC5h  1 3.650000e-01    1.910000e+00
 SN1dh  TC4h  1 3.650000e-01    1.910000e+00
 SN1dh  TC3h  1 3.650000e-01    1.750000e+00
 SN1dh  TC2h  1 3.660000e-01    1.600000e+00
 SN1dh  TC1h  1 3.780000e-01    1.450000e+00
 SN1dh  TX4h  1 3.650000e-01    1.910000e+00
 SN1dh  TX3h  1 3.650000e-01    1.910000e+00
 SN1dh  TX2h  1 3.650000e-01    1.750000e+00
 SN1dh  TX1h  1 3.650000e-01    1.750000e+00
 SP6ah  TC6h  1 3.780000e-01    1.450000e+00
 SP6ah  TC5h  1 3.940000e-01    1.290000e+00
 SP6ah  TC4h  1 4.040000e-01    1.130000e+00
 SP6ah  TC3h  1 4.090000e-01    1.080000e+00
 SP6ah  TC2h  1 4.090000e-01    1.080000e+00
 SP6ah  TC1h  1 4.840000e-01    8.900000e-01
 SP6ah  TX4h  1 3.660000e-01    1.600000e+00
 SP6ah  TX3h  1 3.660000e-01    1.600000e+00
 SP6ah  TX2h  1 3.780000e-01    1.450000e+00
 SP6ah  TX1h  1 3.940000e-01    1.290000e+00
 SP5ah  TC6h  1 3.780000e-01    1.450000e+00
 SP5ah  TC5h  1 3.780000e-01    1.450000e+00
 SP5ah  TC4h  1 3.940000e-01    1.290000e+00
 SP5ah  TC3h  1 4.040000e-01    1.130000e+00
 SP5ah  TC2h  1 4.040000e-01    1.130000e+00
 SP5ah  TC1h  1 4.090000e-01    1.080000e+00
 SP5ah  TX4h  1 3.650000e-01    1.750000e+00
 SP5ah  TX3h  1 3.660000e-01    1.600000e+00
 SP5ah  TX2h  1 3.660000e-01    1.600000e+00
 SP5ah  TX1h  1 3.940000e-01    1.290000e+00
 SP4ah  TC6h  1 3.660000e-01    1.600000e+00
 SP4ah  TC5h  1 3.780000e-01    1.450000e+00
 SP4ah  TC4h  1 3.940000e-01    1.290000e+00
 SP4ah  TC3h  1 4.040000e-01    1.130000e+00
 SP4ah  TC2h  1 4.040000e-01    1.130000e+00
 SP4ah  TC1h  1 4.090000e-01    1.080000e+00
 SP4ah  TX4h  1 3.650000e-01    1.750000e+00
 SP4ah  TX3h  1 3.660000e-01    1.600000e+00
 SP4ah  TX2h  1 3.660000e-01    1.600000e+00
 SP4ah  TX1h  1 3.780000e-01    1.450000e+00
 SP3ah  TC6h  1 3.650000e-01    1.750000e+00
 SP3ah  TC5h  1 3.660000e-01    1.600000e+00
 SP3ah  TC4h  1 3.780000e-01    1.450000e+00
 SP3ah  TC3h  1 4.040000e-01    1.130000e+00
 SP3ah  TC2h  1 4.040000e-01    1.130000e+00
 SP3ah  TC1h  1 4.090000e-01    1.080000e+00
 SP3ah  TX4h  1 3.650000e-01    1.750000e+00
 SP3ah  TX3h  1 3.650000e-01    1.750000e+00
 SP3ah  TX2h  1 3.660000e-01    1.600000e+00
 SP3ah  TX1h  1 3.780000e-01    1.450000e+00
 SP2ah  TC6h  1 3.650000e-01    1.750000e+00
 SP2ah  TC5h  1 3.660000e-01    1.600000e+00
 SP2ah  TC4h  1 3.780000e-01    1.450000e+00
 SP2ah  TC3h  1 3.940000e-01    1.290000e+00
 SP2ah  TC2h  1 3.940000e-01    1.290000e+00
 SP2ah  TC1h  1 4.040000e-01    1.130000e+00
 SP2ah  TX4h  1 3.650000e-01    1.750000e+00
 SP2ah  TX3h  1 3.650000e-01    1.750000e+00
 SP2ah  TX2h  1 3.660000e-01    1.600000e+00
 SP2ah  TX1h  1 3.780000e-01    1.450000e+00
 SP1ah  TC6h  1 3.650000e-01    1.750000e+00
 SP1ah  TC5h  1 3.660000e-01    1.600000e+00
 SP1ah  TC4h  1 3.780000e-01    1.450000e+00
 SP1ah  TC3h  1 3.940000e-01    1.290000e+00
 SP1ah  TC2h  1 3.940000e-01    1.290000e+00
 SP1ah  TC1h  1 4.040000e-01    1.130000e+00
 SP1ah  TX4h  1 3.650000e-01    1.750000e+00
 SP1ah  TX3h  1 3.650000e-01    1.750000e+00
 SP1ah  TX2h  1 3.660000e-01    1.600000e+00
 SP1ah  TX1h  1 3.780000e-01    1.450000e+00
 SN6ah  TC6h  1 3.650000e-01    1.910000e+00
 SN6ah  TC5h  1 3.650000e-01    1.750000e+00
 SN6ah  TC4h  1 3.660000e-01    1.600000e+00
 SN6ah  TC3h  1 3.780000e-01    1.450000e+00
 SN6ah  TC2h  1 3.780000e-01    1.450000e+00
 SN6ah  TC1h  1 3.940000e-01    1.290000e+00
 SN6ah  TX4h  1 3.650000e-01    1.910000e+00
 SN6ah  TX3h  1 3.650000e-01    1.750000e+00
 SN6ah  TX2h  1 3.660000e-01    1.600000e+00
 SN6ah  TX1h  1 3.780000e-01    1.450000e+00
 SN5ah  TC6h  1 3.650000e-01    1.910000e+00
 SN5ah  TC5h  1 3.650000e-01    1.750000e+00
 SN5ah  TC4h  1 3.660000e-01    1.600000e+00
 SN5ah  TC3h  1 3.660000e-01    1.600000e+00
 SN5ah  TC2h  1 3.780000e-01    1.450000e+00
 SN5ah  TC1h  1 3.940000e-01    1.290000e+00
 SN5ah  TX4h  1 3.650000e-01    2.110000e+00
 SN5ah  TX3h  1 3.650000e-01    1.910000e+00
 SN5ah  TX2h  1 3.650000e-01    1.750000e+00
 SN5ah  TX1h  1 3.660000e-01    1.600000e+00
 SN4ah  TC6h  1 3.650000e-01    1.910000e+00
 SN4ah  TC5h  1 3.650000e-01    1.750000e+00
 SN4ah  TC4h  1 3.650000e-01    1.750000e+00
 SN4ah  TC3h  1 3.660000e-01    1.600000e+00
 SN4ah  TC2h  1 3.780000e-01    1.450000e+00
 SN4ah  TC1h  1 3.940000e-01    1.290000e+00
 SN4ah  TX4h  1 3.650000e-01    2.340000e+00
 SN4ah  TX3h  1 3.650000e-01    2.110000e+00
 SN4ah  TX2h  1 3.650000e-01    1.750000e+00
 SN4ah  TX1h  1 3.660000e-01    1.600000e+00
 SN3ah  TC6h  1 3.650000e-01    1.910000e+00
 SN3ah  TC5h  1 3.650000e-01    1.750000e+00
 SN3ah  TC4h  1 3.650000e-01    1.750000e+00
 SN3ah  TC3h  1 3.660000e-01    1.600000e+00
 SN3ah  TC2h  1 3.660000e-01    1.600000e+00
 SN3ah  TC1h  1 3.780000e-01    1.450000e+00
 SN3ah  TX4h  1 3.650000e-01    2.110000e+00
 SN3ah  TX3h  1 3.650000e-01    1.910000e+00
 SN3ah  TX2h  1 3.650000e-01    1.750000e+00
 SN3ah  TX1h  1 3.650000e-01    1.750000e+00
 SN2ah  TC6h  1 3.650000e-01    1.910000e+00
 SN2ah  TC5h  1 3.650000e-01    1.750000e+00
 SN2ah  TC4h  1 3.650000e-01    1.750000e+00
 SN2ah  TC3h  1 3.650000e-01    1.750000e+00
 SN2ah  TC2h  1 3.660000e-01    1.600000e+00
 SN2ah  TC1h  1 3.780000e-01    1.450000e+00
 SN2ah  TX4h  1 3.650000e-01    2.110000e+00
 SN2ah  TX3h  1 3.650000e-01    1.910000e+00
 SN2ah  TX2h  1 3.650000e-01    1.750000e+00
 SN2ah  TX1h  1 3.650000e-01    1.750000e+00
 SN1ah  TC6h  1 3.650000e-01    2.110000e+00
 SN1ah  TC5h  1 3.650000e-01    1.910000e+00
 SN1ah  TC4h  1 3.650000e-01    1.910000e+00
 SN1ah  TC3h  1 3.650000e-01    1.750000e+00
 SN1ah  TC2h  1 3.660000e-01    1.600000e+00
 SN1ah  TC1h  1 3.780000e-01    1.450000e+00
 SN1ah  TX4h  1 3.650000e-01    1.910000e+00
 SN1ah  TX3h  1 3.650000e-01    1.910000e+00
 SN1ah  TX2h  1 3.650000e-01    1.750000e+00
 SN1ah  TX1h  1 3.650000e-01    1.750000e+00
 SP6dh  TP5r  1 3.650000e-01    3.640000e+00
 SP6dr  TP5h  1 3.650000e-01    3.640000e+00
 SP6dh  TP4r  1 3.650000e-01    3.370000e+00
 SP6dr  TP4h  1 3.650000e-01    3.370000e+00
 SP6dh  TP3r  1 3.650000e-01    3.100000e+00
 SP6dr  TP3h  1 3.650000e-01    3.100000e+00
 SP6dh  TP2r  1 3.650000e-01    3.100000e+00
 SP6dr  TP2h  1 3.650000e-01    3.100000e+00
 SP6dh  TP1r  1 3.650000e-01    2.830000e+00
 SP6dr  TP1h  1 3.650000e-01    2.830000e+00
 SP6dh  TN6r  1 3.650000e-01    2.570000e+00
 SP6dr  TN6h  1 3.650000e-01    2.570000e+00
 SP6dh  TN5r  1 3.650000e-01    2.110000e+00
 SP6dr  TN5h  1 3.650000e-01    2.110000e+00
 SP6dh  TN4r  1 3.650000e-01    1.910000e+00
 SP6dr  TN4h  1 3.650000e-01    1.910000e+00
 SP6dh  TN3r  1 3.650000e-01    1.750000e+00
 SP6dr  TN3h  1 3.650000e-01    1.750000e+00
 SP6dh  TN2r  1 3.660000e-01    1.600000e+00
 SP6dr  TN2h  1 3.660000e-01    1.600000e+00
 SP6dh  TN1r  1 3.780000e-01    1.450000e+00
 SP6dr  TN1h  1 3.780000e-01    1.450000e+00
 SP5dh  TP4r  1 3.650000e-01    3.100000e+00
 SP5dr  TP4h  1 3.650000e-01    3.100000e+00
 SP5dh  TP3r  1 3.650000e-01    2.830000e+00
 SP5dr  TP3h  1 3.650000e-01    2.830000e+00
 SP5dh  TP2r  1 3.650000e-01    2.830000e+00
 SP5dr  TP2h  1 3.650000e-01    2.830000e+00
 SP5dh  TP1r  1 3.650000e-01    2.570000e+00
 SP5dr  TP1h  1 3.650000e-01    2.570000e+00
 SP5dh  TN6r  1 3.650000e-01    2.340000e+00
 SP5dr  TN6h  1 3.650000e-01    2.340000e+00
 SP5dh  TN5r  1 3.650000e-01    2.110000e+00
 SP5dr  TN5h  1 3.650000e-01    2.110000e+00
 SP5dh  TN4r  1 3.650000e-01    2.110000e+00
 SP5dr  TN4h  1 3.650000e-01    2.110000e+00
 SP5dh  TN3r  1 3.650000e-01    1.750000e+00
 SP5dr  TN3h  1 3.650000e-01    1.750000e+00
 SP5dh  TN2r  1 3.660000e-01    1.600000e+00
 SP5dr  TN2h  1 3.660000e-01    1.600000e+00
 SP5dh  TN1r  1 3.780000e-01    1.450000e+00
 SP5dr  TN1h  1 3.780000e-01    1.450000e+00
 SP4dh  TP3r  1 3.650000e-01    2.830000e+00
 SP4dr  TP3h  1 3.650000e-01    2.830000e+00
 SP4dh  TP2r  1 3.650000e-01    2.830000e+00
 SP4dr  TP2h  1 3.650000e-01    2.830000e+00
 SP4dh  TP1r  1 3.650000e-01    2.570000e+00
 SP4dr  TP1h  1 3.650000e-01    2.570000e+00
 SP4dh  TN6r  1 3.650000e-01    2.340000e+00
 SP4dr  TN6h  1 3.650000e-01    2.340000e+00
 SP4dh  TN5r  1 3.650000e-01    2.110000e+00
 SP4dr  TN5h  1 3.650000e-01    2.110000e+00
 SP4dh  TN4r  1 3.650000e-01    2.110000e+00
 SP4dr  TN4h  1 3.650000e-01    2.110000e+00
 SP4dh  TN3r  1 3.650000e-01    1.910000e+00
 SP4dr  TN3h  1 3.650000e-01    1.910000e+00
 SP4dh  TN2r  1 3.650000e-01    1.750000e+00
 SP4dr  TN2h  1 3.650000e-01    1.750000e+00
 SP4dh  TN1r  1 3.660000e-01    1.600000e+00
 SP4dr  TN1h  1 3.660000e-01    1.600000e+00
 SP3dh  TP2r  1 3.650000e-01    2.830000e+00
 SP3dr  TP2h  1 3.650000e-01    2.830000e+00
 SP3dh  TP1r  1 3.650000e-01    2.570000e+00
 SP3dr  TP1h  1 3.650000e-01    2.570000e+00
 SP3dh  TN6r  1 3.650000e-01    2.340000e+00
 SP3dr  TN6h  1 3.650000e-01    2.340000e+00
 SP3dh  TN5r  1 3.650000e-01    2.110000e+00
 SP3dr  TN5h  1 3.650000e-01    2.110000e+00
 SP3dh  TN4r  1 3.650000e-01    2.110000e+00
 SP3dr  TN4h  1 3.650000e-01    2.110000e+00
 SP3dh  TN3r  1 3.650000e-01    1.910000e+00
 SP3dr  TN3h  1 3.650000e-01    1.910000e+00
 SP3dh  TN2r  1 3.650000e-01    1.910000e+00
 SP3dr  TN2h  1 3.650000e-01    1.910000e+00
 SP3dh  TN1r  1 3.650000e-01    1.750000e+00
 SP3dr  TN1h  1 3.650000e-01    1.750000e+00
 SP2dh  TP1r  1 3.650000e-01    2.570000e+00
 SP2dr  TP1h  1 3.650000e-01    2.570000e+00
 SP2dh  TN6r  1 3.650000e-01    2.570000e+00
 SP2dr  TN6h  1 3.650000e-01    2.570000e+00
 SP2dh  TN5r  1 3.650000e-01    2.340000e+00
 SP2dr  TN5h  1 3.650000e-01    2.340000e+00
 SP2dh  TN4r  1 3.650000e-01    2.110000e+00
 SP2dr  TN4h  1 3.650000e-01    2.110000e+00
 SP2dh  TN3r  1 3.650000e-01    1.910000e+00
 SP2dr  TN3h  1 3.650000e-01    1.910000e+00
 SP2dh  TN2r  1 3.650000e-01    1.910000e+00
 SP2dr  TN2h  1 3.650000e-01    1.910000e+00
 SP2dh  TN1r  1 3.650000e-01    1.910000e+00
 SP2dr  TN1h  1 3.650000e-01    1.910000e+00
 SP1dh  TN6r  1 3.650000e-01    2.570000e+00
 SP1dr  TN6h  1 3.650000e-01    2.570000e+00
 SP1dh  TN5r  1 3.650000e-01    2.340000e+00
 SP1dr  TN5h  1 3.650000e-01    2.340000e+00
 SP1dh  TN4r  1 3.650000e-01    2.340000e+00
 SP1dr  TN4h  1 3.650000e-01    2.340000e+00
 SP1dh  TN3r  1 3.650000e-01    1.910000e+00
 SP1dr  TN3h  1 3.650000e-01    1.910000e+00
 SP1dh  TN2r  1 3.650000e-01    1.910000e+00
 SP1dr  TN2h  1 3.650000e-01    1.910000e+00
 SP1dh  TN1r  1 3.650000e-01    1.910000e+00
 SP1dr  TN1h  1 3.650000e-01    1.910000e+00
 SN6dh  TN5r  1 3.650000e-01    2.570000e+00
 SN6dr  TN5h  1 3.650000e-01    2.570000e+00
 SN6dh  TN4r  1 3.650000e-01    2.570000e+00
 SN6dr  TN4h  1 3.650000e-01    2.570000e+00
 SN6dh  TN3r  1 3.650000e-01    2.110000e+00
 SN6dr  TN3h  1 3.650000e-01    2.110000e+00
 SN6dh  TN2r  1 3.650000e-01    1.910000e+00
 SN6dr  TN2h  1 3.650000e-01    1.910000e+00
 SN6dh  TN1r  1 3.650000e-01    1.910000e+00
 SN6dr  TN1h  1 3.650000e-01    1.910000e+00
 SN5dh  TN4r  1 3.650000e-01    2.340000e+00
 SN5dr  TN4h  1 3.650000e-01    2.340000e+00
 SN5dh  TN3r  1 3.650000e-01    2.110000e+00
 SN5dr  TN3h  1 3.650000e-01    2.110000e+00
 SN5dh  TN2r  1 3.650000e-01    2.110000e+00
 SN5dr  TN2h  1 3.650000e-01    2.110000e+00
 SN5dh  TN1r  1 3.650000e-01    1.910000e+00
 SN5dr  TN1h  1 3.650000e-01    1.910000e+00
 SN4dh  TN3r  1 3.650000e-01    2.110000e+00
 SN4dr  TN3h  1 3.650000e-01    2.110000e+00
 SN4dh  TN2r  1 3.650000e-01    2.110000e+00
 SN4dr  TN2h  1 3.650000e-01    2.110000e+00
 SN4dh  TN1r  1 3.650000e-01    1.910000e+00
 SN4dr  TN1h  1 3.650000e-01    1.910000e+00
 SN3dh  TN2r  1 3.650000e-01    2.110000e+00
 SN3dr  TN2h  1 3.650000e-01    2.110000e+00
 SN3dh  TN1r  1 3.650000e-01    1.910000e+00
 SN3dr  TN1h  1 3.650000e-01    1.910000e+00
 SN2dh  TN1r  1 3.650000e-01    1.910000e+00
 SN2dr  TN1h  1 3.650000e-01    1.910000e+00
 SP6ah  TP5r  1 3.650000e-01    3.640000e+00
 SP6ar  TP5h  1 3.650000e-01    3.640000e+00
 SP6ah  TP4r  1 3.650000e-01    3.370000e+00
 SP6ar  TP4h  1 3.650000e-01    3.370000e+00
 SP6ah  TP3r  1 3.650000e-01    3.100000e+00
 SP6ar  TP3h  1 3.650000e-01    3.100000e+00
 SP6ah  TP2r  1 3.650000e-01    3.100000e+00
 SP6ar  TP2h  1 3.650000e-01    3.100000e+00
 SP6ah  TP1r  1 3.650000e-01    2.830000e+00
 SP6ar  TP1h  1 3.650000e-01    2.830000e+00
 SP6ah  TN6r  1 3.650000e-01    2.570000e+00
 SP6ar  TN6h  1 3.650000e-01    2.570000e+00
 SP6ah  TN5r  1 3.650000e-01    2.110000e+00
 SP6ar  TN5h  1 3.650000e-01    2.110000e+00
 SP6ah  TN4r  1 3.650000e-01    1.910000e+00
 SP6ar  TN4h  1 3.650000e-01    1.910000e+00
 SP6ah  TN3r  1 3.650000e-01    1.750000e+00
 SP6ar  TN3h  1 3.650000e-01    1.750000e+00
 SP6ah  TN2r  1 3.660000e-01    1.600000e+00
 SP6ar  TN2h  1 3.660000e-01    1.600000e+00
 SP6ah  TN1r  1 3.780000e-01    1.450000e+00
 SP6ar  TN1h  1 3.780000e-01    1.450000e+00
 SP5ah  TP4r  1 3.650000e-01    3.100000e+00
 SP5ar  TP4h  1 3.650000e-01    3.100000e+00
 SP5ah  TP3r  1 3.650000e-01    2.830000e+00
 SP5ar  TP3h  1 3.650000e-01    2.830000e+00
 SP5ah  TP2r  1 3.650000e-01    2.830000e+00
 SP5ar  TP2h  1 3.650000e-01    2.830000e+00
 SP5ah  TP1r  1 3.650000e-01    2.570000e+00
 SP5ar  TP1h  1 3.650000e-01    2.570000e+00
 SP5ah  TN6r  1 3.650000e-01    2.340000e+00
 SP5ar  TN6h  1 3.650000e-01    2.340000e+00
 SP5ah  TN5r  1 3.650000e-01    2.110000e+00
 SP5ar  TN5h  1 3.650000e-01    2.110000e+00
 SP5ah  TN4r  1 3.650000e-01    2.110000e+00
 SP5ar  TN4h  1 3.650000e-01    2.110000e+00
 SP5ah  TN3r  1 3.650000e-01    1.750000e+00
 SP5ar  TN3h  1 3.650000e-01    1.750000e+00
 SP5ah  TN2r  1 3.660000e-01    1.600000e+00
 SP5ar  TN2h  1 3.660000e-01    1.600000e+00
 SP5ah  TN1r  1 3.780000e-01    1.450000e+00
 SP5ar  TN1h  1 3.780000e-01    1.450000e+00
 SP4ah  TP3r  1 3.650000e-01    2.830000e+00
 SP4ar  TP3h  1 3.650000e-01    2.830000e+00
 SP4ah  TP2r  1 3.650000e-01    2.830000e+00
 SP4ar  TP2h  1 3.650000e-01    2.830000e+00
 SP4ah  TP1r  1 3.650000e-01    2.570000e+00
 SP4ar  TP1h  1 3.650000e-01    2.570000e+00
 SP4ah  TN6r  1 3.650000e-01    2.340000e+00
 SP4ar  TN6h  1 3.650000e-01    2.340000e+00
 SP4ah  TN5r  1 3.650000e-01    2.110000e+00
 SP4ar  TN5h  1 3.650000e-01    2.110000e+00
 SP4ah  TN4r  1 3.650000e-01    2.110000e+00
 SP4ar  TN4h  1 3.650000e-01    2.110000e+00
 SP4ah  TN3r  1 3.650000e-01    1.910000e+00
 SP4ar  TN3h  1 3.650000e-01    1.910000e+00
 SP4ah  TN2r  1 3.650000e-01    1.750000e+00
 SP4ar  TN2h  1 3.650000e-01    1.750000e+00
 SP4ah  TN1r  1 3.660000e-01    1.600000e+00
 SP4ar  TN1h  1 3.660000e-01    1.600000e+00
 SP3ah  TP2r  1 3.650000e-01    2.830000e+00
 SP3ar  TP2h  1 3.650000e-01    2.830000e+00
 SP3ah  TP1r  1 3.650000e-01    2.570000e+00
 SP3ar  TP1h  1 3.650000e-01    2.570000e+00
 SP3ah  TN6r  1 3.650000e-01    2.340000e+00
 SP3ar  TN6h  1 3.650000e-01    2.340000e+00
 SP3ah  TN5r  1 3.650000e-01    2.110000e+00
 SP3ar  TN5h  1 3.650000e-01    2.110000e+00
 SP3ah  TN4r  1 3.650000e-01    2.110000e+00
 SP3ar  TN4h  1 3.650000e-01    2.110000e+00
 SP3ah  TN3r  1 3.650000e-01    1.910000e+00
 SP3ar  TN3h  1 3.650000e-01    1.910000e+00
 SP3ah  TN2r  1 3.650000e-01    1.910000e+00
 SP3ar  TN2h  1 3.650000e-01    1.910000e+00
 SP3ah  TN1r  1 3.650000e-01    1.750000e+00
 SP3ar  TN1h  1 3.650000e-01    1.750000e+00
 SP2ah  TP1r  1 3.650000e-01    2.570000e+00
 SP2ar  TP1h  1 3.650000e-01    2.570000e+00
 SP2ah  TN6r  1 3.650000e-01    2.570000e+00
 SP2ar  TN6h  1 3.650000e-01    2.570000e+00
 SP2ah  TN5r  1 3.650000e-01    2.340000e+00
 SP2ar  TN5h  1 3.650000e-01    2.340000e+00
 SP2ah  TN4r  1 3.650000e-01    2.110000e+00
 SP2ar  TN4h  1 3.650000e-01    2.110000e+00
 SP2ah  TN3r  1 3.650000e-01    1.910000e+00
 SP2ar  TN3h  1 3.650000e-01    1.910000e+00
 SP2ah  TN2r  1 3.650000e-01    1.910000e+00
 SP2ar  TN2h  1 3.650000e-01    1.910000e+00
 SP2ah  TN1r  1 3.650000e-01    1.910000e+00
 SP2ar  TN1h  1 3.650000e-01    1.910000e+00
 SP1ah  TN6r  1 3.650000e-01    2.570000e+00
 SP1ar  TN6h  1 3.650000e-01    2.570000e+00
 SP1ah  TN5r  1 3.650000e-01    2.340000e+00
 SP1ar  TN5h  1 3.650000e-01    2.340000e+00
 SP1ah  TN4r  1 3.650000e-01    2.340000e+00
 SP1ar  TN4h  1 3.650000e-01    2.340000e+00
 SP1ah  TN3r  1 3.650000e-01    1.910000e+00
 SP1ar  TN3h  1 3.650000e-01    1.910000e+00
 SP1ah  TN2r  1 3.650000e-01    1.910000e+00
 SP1ar  TN2h  1 3.650000e-01    1.910000e+00
 SP1ah  TN1r  1 3.650000e-01    1.910000e+00
 SP1ar  TN1h  1 3.650000e-01    1.910000e+00
 SN6ah  TN5r  1 3.650000e-01    2.570000e+00
 SN6ar  TN5h  1 3.650000e-01    2.570000e+00
 SN6ah  TN4r  1 3.650000e-01    2.570000e+00
 SN6ar  TN4h  1 3.650000e-01    2.570000e+00
 SN6ah  TN3r  1 3.650000e-01    2.110000e+00
 SN6ar  TN3h  1 3.650000e-01    2.110000e+00
 SN6ah  TN2r  1 3.650000e-01    1.910000e+00
 SN6ar  TN2h  1 3.650000e-01    1.910000e+00
 SN6ah  TN1r  1 3.650000e-01    1.910000e+00
 SN6ar  TN1h  1 3.650000e-01    1.910000e+00
 SN5ah  TN4r  1 3.650000e-01    2.340000e+00
 SN5ar  TN4h  1 3.650000e-01    2.340000e+00
 SN5ah  TN3r  1 3.650000e-01    2.110000e+00
 SN5ar  TN3h  1 3.650000e-01    2.110000e+00
 SN5ah  TN2r  1 3.650000e-01    2.110000e+00
 SN5ar  TN2h  1 3.650000e-01    2.110000e+00
 SN5ah  TN1r  1 3.650000e-01    1.910000e+00
 SN5ar  TN1h  1 3.650000e-01    1.910000e+00
 SN4ah  TN3r  1 3.650000e-01    2.110000e+00
 SN4ar  TN3h  1 3.650000e-01    2.110000e+00
 SN4ah  TN2r  1 3.650000e-01    2.110000e+00
 SN4ar  TN2h  1 3.650000e-01    2.110000e+00
 SN4ah  TN1r  1 3.650000e-01    1.910000e+00
 SN4ar  TN1h  1 3.650000e-01    1.910000e+00
 SN3ah  TN2r  1 3.650000e-01    2.110000e+00
 SN3ar  TN2h  1 3.650000e-01    2.110000e+00
 SN3ah  TN1r  1 3.650000e-01    1.910000e+00
 SN3ar  TN1h  1 3.650000e-01    1.910000e+00
 SN2ah  TN1r  1 3.650000e-01    1.910000e+00
 SN2ar  TN1h  1 3.650000e-01    1.910000e+00
 SC6vh  TC5r  1 3.650000e-01    2.110000e+00
 SC6vr  TC5h  1 3.650000e-01    2.110000e+00
 SC6vh  TC4r  1 3.650000e-01    2.110000e+00
 SC6vr  TC4h  1 3.650000e-01    2.110000e+00
 SC6vh  TC3r  1 3.650000e-01    1.910000e+00
 SC6vr  TC3h  1 3.650000e-01    1.910000e+00
 SC6vh  TC2r  1 3.650000e-01    1.750000e+00
 SC6vr  TC2h  1 3.650000e-01    1.750000e+00
 SC6vh  TC1r  1 3.660000e-01    1.600000e+00
 SC6vr  TC1h  1 3.660000e-01    1.600000e+00
 SC6vh  TX4r  1 3.650000e-01    2.110000e+00
 SC6vr  TX4h  1 3.650000e-01    2.110000e+00
 SC6vh  TX3r  1 3.650000e-01    2.110000e+00
 SC6vr  TX3h  1 3.650000e-01    2.110000e+00
 SC6vh  TX2r  1 3.650000e-01    2.110000e+00
 SC6vr  TX2h  1 3.650000e-01    2.110000e+00
 SC6vh  TX1r  1 3.650000e-01    2.110000e+00
 SC6vr  TX1h  1 3.650000e-01    2.110000e+00
 SC5vh  TC4r  1 3.650000e-01    2.110000e+00
 SC5vr  TC4h  1 3.650000e-01    2.110000e+00
 SC5vh  TC3r  1 3.650000e-01    1.910000e+00
 SC5vr  TC3h  1 3.650000e-01    1.910000e+00
 SC5vh  TC2r  1 3.650000e-01    1.750000e+00
 SC5vr  TC2h  1 3.650000e-01    1.750000e+00
 SC5vh  TC1r  1 3.650000e-01    1.750000e+00
 SC5vr  TC1h  1 3.650000e-01    1.750000e+00
 SC5vh  TX4r  1 3.650000e-01    1.910000e+00
 SC5vr  TX4h  1 3.650000e-01    1.910000e+00
 SC5vh  TX3r  1 3.650000e-01    1.910000e+00
 SC5vr  TX3h  1 3.650000e-01    1.910000e+00
 SC5vh  TX2r  1 3.650000e-01    1.910000e+00
 SC5vr  TX2h  1 3.650000e-01    1.910000e+00
 SC5vh  TX1r  1 3.650000e-01    2.110000e+00
 SC5vr  TX1h  1 3.650000e-01    2.110000e+00
 SC4vh  TC3r  1 3.650000e-01    2.110000e+00
 SC4vr  TC3h  1 3.650000e-01    2.110000e+00
 SC4vh  TC2r  1 3.650000e-01    1.910000e+00
 SC4vr  TC2h  1 3.650000e-01    1.910000e+00
 SC4vh  TC1r  1 3.650000e-01    1.750000e+00
 SC4vr  TC1h  1 3.650000e-01    1.750000e+00
 SC4vh  TX4r  1 3.650000e-01    1.910000e+00
 SC4vr  TX4h  1 3.650000e-01    1.910000e+00
 SC4vh  TX3r  1 3.650000e-01    1.910000e+00
 SC4vr  TX3h  1 3.650000e-01    1.910000e+00
 SC4vh  TX2r  1 3.650000e-01    1.910000e+00
 SC4vr  TX2h  1 3.650000e-01    1.910000e+00
 SC4vh  TX1r  1 3.650000e-01    2.110000e+00
 SC4vr  TX1h  1 3.650000e-01    2.110000e+00
 SC3vh  TC2r  1 3.650000e-01    2.110000e+00
 SC3vr  TC2h  1 3.650000e-01    2.110000e+00
 SC3vh  TC1r  1 3.650000e-01    2.110000e+00
 SC3vr  TC1h  1 3.650000e-01    2.110000e+00
 SC3vh  TX4r  1 3.650000e-01    1.910000e+00
 SC3vr  TX4h  1 3.650000e-01    1.910000e+00
 SC3vh  TX3r  1 3.650000e-01    1.910000e+00
 SC3vr  TX3h  1 3.650000e-01    1.910000e+00
 SC3vh  TX2r  1 3.650000e-01    1.910000e+00
 SC3vr  TX2h  1 3.650000e-01    1.910000e+00
 SC3vh  TX1r  1 3.650000e-01    2.110000e+00
 SC3vr  TX1h  1 3.650000e-01    2.110000e+00
 SC2vh  TC1r  1 3.650000e-01    2.340000e+00
 SC2vr  TC1h  1 3.650000e-01    2.340000e+00
 SC2vh  TX4r  1 3.660000e-01    1.600000e+00
 SC2vr  TX4h  1 3.660000e-01    1.600000e+00
 SC2vh  TX3r  1 3.650000e-01    1.910000e+00
 SC2vr  TX3h  1 3.650000e-01    1.910000e+00
 SC2vh  TX2r  1 3.650000e-01    1.910000e+00
 SC2vr  TX2h  1 3.650000e-01    1.910000e+00
 SC2vh  TX1r  1 3.650000e-01    1.910000e+00
 SC2vr  TX1h  1 3.650000e-01    1.910000e+00
 SC1vh  TX4r  1 3.660000e-01    1.600000e+00
 SC1vr  TX4h  1 3.660000e-01    1.600000e+00
 SC1vh  TX3r  1 3.650000e-01    1.910000e+00
 SC1vr  TX3h  1 3.650000e-01    1.910000e+00
 SC1vh  TX2r  1 3.650000e-01    1.910000e+00
 SC1vr  TX2h  1 3.650000e-01    1.910000e+00
 SC1vh  TX1r  1 3.650000e-01    1.910000e+00
 SC1vr  TX1h  1 3.650000e-01    1.910000e+00
 SX4vh  TX3r  1 3.650000e-01    2.110000e+00
 SX4vr  TX3h  1 3.650000e-01    2.110000e+00
 SX4vh  TX2r  1 3.650000e-01    2.110000e+00
 SX4vr  TX2h  1 3.650000e-01    2.110000e+00
 SX4vh  TX1r  1 3.650000e-01    2.110000e+00
 SX4vr  TX1h  1 3.650000e-01    2.110000e+00
 SX3vh  TX2r  1 3.650000e-01    2.340000e+00
 SX3vr  TX2h  1 3.650000e-01    2.340000e+00
 SX3vh  TX1r  1 3.650000e-01    2.340000e+00
 SX3vr  TX1h  1 3.650000e-01    2.340000e+00
 SX2vh  TX1r  1 3.650000e-01    2.340000e+00
 SX2vr  TX1h  1 3.650000e-01    2.340000e+00
 SC6eh  TC5r  1 3.650000e-01    2.110000e+00
 SC6er  TC5h  1 3.650000e-01    2.110000e+00
 SC6eh  TC4r  1 3.650000e-01    2.110000e+00
 SC6er  TC4h  1 3.650000e-01    2.110000e+00
 SC6eh  TC3r  1 3.650000e-01    1.910000e+00
 SC6er  TC3h  1 3.650000e-01    1.910000e+00
 SC6eh  TC2r  1 3.650000e-01    1.750000e+00
 SC6er  TC2h  1 3.650000e-01    1.750000e+00
 SC6eh  TC1r  1 3.660000e-01    1.600000e+00
 SC6er  TC1h  1 3.660000e-01    1.600000e+00
 SC6eh  TX4r  1 3.650000e-01    2.110000e+00
 SC6er  TX4h  1 3.650000e-01    2.110000e+00
 SC6eh  TX3r  1 3.650000e-01    2.110000e+00
 SC6er  TX3h  1 3.650000e-01    2.110000e+00
 SC6eh  TX2r  1 3.650000e-01    2.110000e+00
 SC6er  TX2h  1 3.650000e-01    2.110000e+00
 SC6eh  TX1r  1 3.650000e-01    2.110000e+00
 SC6er  TX1h  1 3.650000e-01    2.110000e+00
 SC5eh  TC4r  1 3.650000e-01    2.110000e+00
 SC5er  TC4h  1 3.650000e-01    2.110000e+00
 SC5eh  TC3r  1 3.650000e-01    1.910000e+00
 SC5er  TC3h  1 3.650000e-01    1.910000e+00
 SC5eh  TC2r  1 3.650000e-01    1.750000e+00
 SC5er  TC2h  1 3.650000e-01    1.750000e+00
 SC5eh  TC1r  1 3.650000e-01    1.750000e+00
 SC5er  TC1h  1 3.650000e-01    1.750000e+00
 SC5eh  TX4r  1 3.650000e-01    1.910000e+00
 SC5er  TX4h  1 3.650000e-01    1.910000e+00
 SC5eh  TX3r  1 3.650000e-01    1.910000e+00
 SC5er  TX3h  1 3.650000e-01    1.910000e+00
 SC5eh  TX2r  1 3.650000e-01    1.910000e+00
 SC5er  TX2h  1 3.650000e-01    1.910000e+00
 SC5eh  TX1r  1 3.650000e-01    2.110000e+00
 SC5er  TX1h  1 3.650000e-01    2.110000e+00
 SC4eh  TC3r  1 3.650000e-01    2.110000e+00
 SC4er  TC3h  1 3.650000e-01    2.110000e+00
 SC4eh  TC2r  1 3.650000e-01    1.910000e+00
 SC4er  TC2h  1 3.650000e-01    1.910000e+00
 SC4eh  TC1r  1 3.650000e-01    1.750000e+00
 SC4er  TC1h  1 3.650000e-01    1.750000e+00
 SC4eh  TX4r  1 3.650000e-01    1.910000e+00
 SC4er  TX4h  1 3.650000e-01    1.910000e+00
 SC4eh  TX3r  1 3.650000e-01    1.910000e+00
 SC4er  TX3h  1 3.650000e-01    1.910000e+00
 SC4eh  TX2r  1 3.650000e-01    1.910000e+00
 SC4er  TX2h  1 3.650000e-01    1.910000e+00
 SC4eh  TX1r  1 3.650000e-01    2.110000e+00
 SC4er  TX1h  1 3.650000e-01    2.110000e+00
 SC3eh  TC2r  1 3.650000e-01    2.110000e+00
 SC3er  TC2h  1 3.650000e-01    2.110000e+00
 SC3eh  TC1r  1 3.650000e-01    2.110000e+00
 SC3er  TC1h  1 3.650000e-01    2.110000e+00
 SC3eh  TX4r  1 3.650000e-01    1.910000e+00
 SC3er  TX4h  1 3.650000e-01    1.910000e+00
 SC3eh  TX3r  1 3.650000e-01    1.910000e+00
 SC3er  TX3h  1 3.650000e-01    1.910000e+00
 SC3eh  TX2r  1 3.650000e-01    1.910000e+00
 SC3er  TX2h  1 3.650000e-01    1.910000e+00
 SC3eh  TX1r  1 3.650000e-01    2.110000e+00
 SC3er  TX1h  1 3.650000e-01    2.110000e+00
 SC2eh  TC1r  1 3.650000e-01    2.340000e+00
 SC2er  TC1h  1 3.650000e-01    2.340000e+00
 SC2eh  TX4r  1 3.660000e-01    1.600000e+00
 SC2er  TX4h  1 3.660000e-01    1.600000e+00
 SC2eh  TX3r  1 3.650000e-01    1.910000e+00
 SC2er  TX3h  1 3.650000e-01    1.910000e+00
 SC2eh  TX2r  1 3.650000e-01    1.910000e+00
 SC2er  TX2h  1 3.650000e-01    1.910000e+00
 SC2eh  TX1r  1 3.650000e-01    1.910000e+00
 SC2er  TX1h  1 3.650000e-01    1.910000e+00
 SC1eh  TX4r  1 3.660000e-01    1.600000e+00
 SC1er  TX4h  1 3.660000e-01    1.600000e+00
 SC1eh  TX3r  1 3.650000e-01    1.910000e+00
 SC1er  TX3h  1 3.650000e-01    1.910000e+00
 SC1eh  TX2r  1 3.650000e-01    1.910000e+00
 SC1er  TX2h  1 3.650000e-01    1.910000e+00
 SC1eh  TX1r  1 3.650000e-01    1.910000e+00
 SC1er  TX1h  1 3.650000e-01    1.910000e+00
 SX4eh  TX3r  1 3.650000e-01    2.110000e+00
 SX4er  TX3h  1 3.650000e-01    2.110000e+00
 SX4eh  TX2r  1 3.650000e-01    2.110000e+00
 SX4er  TX2h  1 3.650000e-01    2.110000e+00
 SX4eh  TX1r  1 3.650000e-01    2.110000e+00
 SX4er  TX1h  1 3.650000e-01    2.110000e+00
 SX3eh  TX2r  1 3.650000e-01    2.340000e+00
 SX3er  TX2h  1 3.650000e-01    2.340000e+00
 SX3eh  TX1r  1 3.650000e-01    2.340000e+00
 SX3er  TX1h  1 3.650000e-01    2.340000e+00
 SX2eh  TX1r  1 3.650000e-01    2.340000e+00
 SX2er  TX1h  1 3.650000e-01    2.340000e+00
 SP6dh  TC6r  1 3.780000e-01    1.450000e+00
 SP6dr  TC6h  1 3.780000e-01    1.450000e+00
 SP6dh  TC5r  1 3.940000e-01    1.290000e+00
 SP6dr  TC5h  1 3.940000e-01    1.290000e+00
 SP6dh  TC4r  1 4.040000e-01    1.130000e+00
 SP6dr  TC4h  1 4.040000e-01    1.130000e+00
 SP6dh  TC3r  1 4.090000e-01    1.080000e+00
 SP6dr  TC3h  1 4.090000e-01    1.080000e+00
 SP6dh  TC2r  1 4.090000e-01    1.080000e+00
 SP6dr  TC2h  1 4.090000e-01    1.080000e+00
 SP6dh  TC1r  1 4.840000e-01    8.900000e-01
 SP6dr  TC1h  1 4.840000e-01    8.900000e-01
 SP6dh  TX4r  1 3.660000e-01    1.600000e+00
 SP6dr  TX4h  1 3.660000e-01    1.600000e+00
 SP6dh  TX3r  1 3.660000e-01    1.600000e+00
 SP6dr  TX3h  1 3.660000e-01    1.600000e+00
 SP6dh  TX2r  1 3.780000e-01    1.450000e+00
 SP6dr  TX2h  1 3.780000e-01    1.450000e+00
 SP6dh  TX1r  1 3.940000e-01    1.290000e+00
 SP6dr  TX1h  1 3.940000e-01    1.290000e+00
 SP5dh  TC6r  1 3.780000e-01    1.450000e+00
 SP5dr  TC6h  1 3.780000e-01    1.450000e+00
 SP5dh  TC5r  1 3.780000e-01    1.450000e+00
 SP5dr  TC5h  1 3.780000e-01    1.450000e+00
 SP5dh  TC4r  1 3.940000e-01    1.290000e+00
 SP5dr  TC4h  1 3.940000e-01    1.290000e+00
 SP5dh  TC3r  1 4.040000e-01    1.130000e+00
 SP5dr  TC3h  1 4.040000e-01    1.130000e+00
 SP5dh  TC2r  1 4.040000e-01    1.130000e+00
 SP5dr  TC2h  1 4.040000e-01    1.130000e+00
 SP5dh  TC1r  1 4.090000e-01    1.080000e+00
 SP5dr  TC1h  1 4.090000e-01    1.080000e+00
 SP5dh  TX4r  1 3.650000e-01    1.750000e+00
 SP5dr  TX4h  1 3.650000e-01    1.750000e+00
 SP5dh  TX3r  1 3.660000e-01    1.600000e+00
 SP5dr  TX3h  1 3.660000e-01    1.600000e+00
 SP5dh  TX2r  1 3.660000e-01    1.600000e+00
 SP5dr  TX2h  1 3.660000e-01    1.600000e+00
 SP5dh  TX1r  1 3.940000e-01    1.290000e+00
 SP5dr  TX1h  1 3.940000e-01    1.290000e+00
 SP4dh  TC6r  1 3.660000e-01    1.600000e+00
 SP4dr  TC6h  1 3.660000e-01    1.600000e+00
 SP4dh  TC5r  1 3.780000e-01    1.450000e+00
 SP4dr  TC5h  1 3.780000e-01    1.450000e+00
 SP4dh  TC4r  1 3.940000e-01    1.290000e+00
 SP4dr  TC4h  1 3.940000e-01    1.290000e+00
 SP4dh  TC3r  1 4.040000e-01    1.130000e+00
 SP4dr  TC3h  1 4.040000e-01    1.130000e+00
 SP4dh  TC2r  1 4.040000e-01    1.130000e+00
 SP4dr  TC2h  1 4.040000e-01    1.130000e+00
 SP4dh  TC1r  1 4.090000e-01    1.080000e+00
 SP4dr  TC1h  1 4.090000e-01    1.080000e+00
 SP4dh  TX4r  1 3.650000e-01    1.750000e+00
 SP4dr  TX4h  1 3.650000e-01    1.750000e+00
 SP4dh  TX3r  1 3.660000e-01    1.600000e+00
 SP4dr  TX3h  1 3.660000e-01    1.600000e+00
 SP4dh  TX2r  1 3.660000e-01    1.600000e+00
 SP4dr  TX2h  1 3.660000e-01    1.600000e+00
 SP4dh  TX1r  1 3.780000e-01    1.450000e+00
 SP4dr  TX1h  1 3.780000e-01    1.450000e+00
 SP3dh  TC6r  1 3.650000e-01    1.750000e+00
 SP3dr  TC6h  1 3.650000e-01    1.750000e+00
 SP3dh  TC5r  1 3.660000e-01    1.600000e+00
 SP3dr  TC5h  1 3.660000e-01    1.600000e+00
 SP3dh  TC4r  1 3.780000e-01    1.450000e+00
 SP3dr  TC4h  1 3.780000e-01    1.450000e+00
 SP3dh  TC3r  1 4.040000e-01    1.130000e+00
 SP3dr  TC3h  1 4.040000e-01    1.130000e+00
 SP3dh  TC2r  1 4.040000e-01    1.130000e+00
 SP3dr  TC2h  1 4.040000e-01    1.130000e+00
 SP3dh  TC1r  1 4.090000e-01    1.080000e+00
 SP3dr  TC1h  1 4.090000e-01    1.080000e+00
 SP3dh  TX4r  1 3.650000e-01    1.750000e+00
 SP3dr  TX4h  1 3.650000e-01    1.750000e+00
 SP3dh  TX3r  1 3.650000e-01    1.750000e+00
 SP3dr  TX3h  1 3.650000e-01    1.750000e+00
 SP3dh  TX2r  1 3.660000e-01    1.600000e+00
 SP3dr  TX2h  1 3.660000e-01    1.600000e+00
 SP3dh  TX1r  1 3.780000e-01    1.450000e+00
 SP3dr  TX1h  1 3.780000e-01    1.450000e+00
 SP2dh  TC6r  1 3.650000e-01    1.750000e+00
 SP2dr  TC6h  1 3.650000e-01    1.750000e+00
 SP2dh  TC5r  1 3.660000e-01    1.600000e+00
 SP2dr  TC5h  1 3.660000e-01    1.600000e+00
 SP2dh  TC4r  1 3.780000e-01    1.450000e+00
 SP2dr  TC4h  1 3.780000e-01    1.450000e+00
 SP2dh  TC3r  1 3.940000e-01    1.290000e+00
 SP2dr  TC3h  1 3.940000e-01    1.290000e+00
 SP2dh  TC2r  1 3.940000e-01    1.290000e+00
 SP2dr  TC2h  1 3.940000e-01    1.290000e+00
 SP2dh  TC1r  1 4.040000e-01    1.130000e+00
 SP2dr  TC1h  1 4.040000e-01    1.130000e+00
 SP2dh  TX4r  1 3.650000e-01    1.750000e+00
 SP2dr  TX4h  1 3.650000e-01    1.750000e+00
 SP2dh  TX3r  1 3.650000e-01    1.750000e+00
 SP2dr  TX3h  1 3.650000e-01    1.750000e+00
 SP2dh  TX2r  1 3.660000e-01    1.600000e+00
 SP2dr  TX2h  1 3.660000e-01    1.600000e+00
 SP2dh  TX1r  1 3.780000e-01    1.450000e+00
 SP2dr  TX1h  1 3.780000e-01    1.450000e+00
 SP1dh  TC6r  1 3.650000e-01    1.750000e+00
 SP1dr  TC6h  1 3.650000e-01    1.750000e+00
 SP1dh  TC5r  1 3.660000e-01    1.600000e+00
 SP1dr  TC5h  1 3.660000e-01    1.600000e+00
 SP1dh  TC4r  1 3.780000e-01    1.450000e+00
 SP1dr  TC4h  1 3.780000e-01    1.450000e+00
 SP1dh  TC3r  1 3.940000e-01    1.290000e+00
 SP1dr  TC3h  1 3.940000e-01    1.290000e+00
 SP1dh  TC2r  1 3.940000e-01    1.290000e+00
 SP1dr  TC2h  1 3.940000e-01    1.290000e+00
 SP1dh  TC1r  1 4.040000e-01    1.130000e+00
 SP1dr  TC1h  1 4.040000e-01    1.130000e+00
 SP1dh  TX4r  1 3.650000e-01    1.750000e+00
 SP1dr  TX4h  1 3.650000e-01    1.750000e+00
 SP1dh  TX3r  1 3.650000e-01    1.750000e+00
 SP1dr  TX3h  1 3.650000e-01    1.750000e+00
 SP1dh  TX2r  1 3.660000e-01    1.600000e+00
 SP1dr  TX2h  1 3.660000e-01    1.600000e+00
 SP1dh  TX1r  1 3.780000e-01    1.450000e+00
 SP1dr  TX1h  1 3.780000e-01    1.450000e+00
 SN6dh  TC6r  1 3.650000e-01    1.910000e+00
 SN6dr  TC6h  1 3.650000e-01    1.910000e+00
 SN6dh  TC5r  1 3.650000e-01    1.750000e+00
 SN6dr  TC5h  1 3.650000e-01    1.750000e+00
 SN6dh  TC4r  1 3.660000e-01    1.600000e+00
 SN6dr  TC4h  1 3.660000e-01    1.600000e+00
 SN6dh  TC3r  1 3.780000e-01    1.450000e+00
 SN6dr  TC3h  1 3.780000e-01    1.450000e+00
 SN6dh  TC2r  1 3.780000e-01    1.450000e+00
 SN6dr  TC2h  1 3.780000e-01    1.450000e+00
 SN6dh  TC1r  1 3.940000e-01    1.290000e+00
 SN6dr  TC1h  1 3.940000e-01    1.290000e+00
 SN6dh  TX4r  1 3.650000e-01    1.910000e+00
 SN6dr  TX4h  1 3.650000e-01    1.910000e+00
 SN6dh  TX3r  1 3.650000e-01    1.750000e+00
 SN6dr  TX3h  1 3.650000e-01    1.750000e+00
 SN6dh  TX2r  1 3.660000e-01    1.600000e+00
 SN6dr  TX2h  1 3.660000e-01    1.600000e+00
 SN6dh  TX1r  1 3.780000e-01    1.450000e+00
 SN6dr  TX1h  1 3.780000e-01    1.450000e+00
 SN5dh  TC6r  1 3.650000e-01    1.910000e+00
 SN5dr  TC6h  1 3.650000e-01    1.910000e+00
 SN5dh  TC5r  1 3.650000e-01    1.750000e+00
 SN5dr  TC5h  1 3.650000e-01    1.750000e+00
 SN5dh  TC4r  1 3.660000e-01    1.600000e+00
 SN5dr  TC4h  1 3.660000e-01    1.600000e+00
 SN5dh  TC3r  1 3.660000e-01    1.600000e+00
 SN5dr  TC3h  1 3.660000e-01    1.600000e+00
 SN5dh  TC2r  1 3.780000e-01    1.450000e+00
 SN5dr  TC2h  1 3.780000e-01    1.450000e+00
 SN5dh  TC1r  1 3.940000e-01    1.290000e+00
 SN5dr  TC1h  1 3.940000e-01    1.290000e+00
 SN5dh  TX4r  1 3.650000e-01    2.110000e+00
 SN5dr  TX4h  1 3.650000e-01    2.110000e+00
 SN5dh  TX3r  1 3.650000e-01    1.910000e+00
 SN5dr  TX3h  1 3.650000e-01    1.910000e+00
 SN5dh  TX2r  1 3.650000e-01    1.750000e+00
 SN5dr  TX2h  1 3.650000e-01    1.750000e+00
 SN5dh  TX1r  1 3.660000e-01    1.600000e+00
 SN5dr  TX1h  1 3.660000e-01    1.600000e+00
 SN4dh  TC6r  1 3.650000e-01    1.910000e+00
 SN4dr  TC6h  1 3.650000e-01    1.910000e+00
 SN4dh  TC5r  1 3.650000e-01    1.750000e+00
 SN4dr  TC5h  1 3.650000e-01    1.750000e+00
 SN4dh  TC4r  1 3.650000e-01    1.750000e+00
 SN4dr  TC4h  1 3.650000e-01    1.750000e+00
 SN4dh  TC3r  1 3.660000e-01    1.600000e+00
 SN4dr  TC3h  1 3.660000e-01    1.600000e+00
 SN4dh  TC2r  1 3.780000e-01    1.450000e+00
 SN4dr  TC2h  1 3.780000e-01    1.450000e+00
 SN4dh  TC1r  1 3.940000e-01    1.290000e+00
 SN4dr  TC1h  1 3.940000e-01    1.290000e+00
 SN4dh  TX4r  1 3.650000e-01    2.340000e+00
 SN4dr  TX4h  1 3.650000e-01    2.340000e+00
 SN4dh  TX3r  1 3.650000e-01    2.110000e+00
 SN4dr  TX3h  1 3.650000e-01    2.110000e+00
 SN4dh  TX2r  1 3.650000e-01    1.750000e+00
 SN4dr  TX2h  1 3.650000e-01    1.750000e+00
 SN4dh  TX1r  1 3.660000e-01    1.600000e+00
 SN4dr  TX1h  1 3.660000e-01    1.600000e+00
 SN3dh  TC6r  1 3.650000e-01    1.910000e+00
 SN3dr  TC6h  1 3.650000e-01    1.910000e+00
 SN3dh  TC5r  1 3.650000e-01    1.750000e+00
 SN3dr  TC5h  1 3.650000e-01    1.750000e+00
 SN3dh  TC4r  1 3.650000e-01    1.750000e+00
 SN3dr  TC4h  1 3.650000e-01    1.750000e+00
 SN3dh  TC3r  1 3.660000e-01    1.600000e+00
 SN3dr  TC3h  1 3.660000e-01    1.600000e+00
 SN3dh  TC2r  1 3.660000e-01    1.600000e+00
 SN3dr  TC2h  1 3.660000e-01    1.600000e+00
 SN3dh  TC1r  1 3.780000e-01    1.450000e+00
 SN3dr  TC1h  1 3.780000e-01    1.450000e+00
 SN3dh  TX4r  1 3.650000e-01    2.110000e+00
 SN3dr  TX4h  1 3.650000e-01    2.110000e+00
 SN3dh  TX3r  1 3.650000e-01    1.910000e+00
 SN3dr  TX3h  1 3.650000e-01    1.910000e+00
 SN3dh  TX2r  1 3.650000e-01    1.750000e+00
 SN3dr  TX2h  1 3.650000e-01    1.750000e+00
 SN3dh  TX1r  1 3.650000e-01    1.750000e+00
 SN3dr  TX1h  1 3.650000e-01    1.750000e+00
 SN2dh  TC6r  1 3.650000e-01    1.910000e+00
 SN2dr  TC6h  1 3.650000e-01    1.910000e+00
 SN2dh  TC5r  1 3.650000e-01    1.750000e+00
 SN2dr  TC5h  1 3.650000e-01    1.750000e+00
 SN2dh  TC4r  1 3.650000e-01    1.750000e+00
 SN2dr  TC4h  1 3.650000e-01    1.750000e+00
 SN2dh  TC3r  1 3.650000e-01    1.750000e+00
 SN2dr  TC3h  1 3.650000e-01    1.750000e+00
 SN2dh  TC2r  1 3.660000e-01    1.600000e+00
 SN2dr  TC2h  1 3.660000e-01    1.600000e+00
 SN2dh  TC1r  1 3.780000e-01    1.450000e+00
 SN2dr  TC1h  1 3.780000e-01    1.450000e+00
 SN2dh  TX4r  1 3.650000e-01    2.110000e+00
 SN2dr  TX4h  1 3.650000e-01    2.110000e+00
 SN2dh  TX3r  1 3.650000e-01    1.910000e+00
 SN2dr  TX3h  1 3.650000e-01    1.910000e+00
 SN2dh  TX2r  1 3.650000e-01    1.750000e+00
 SN2dr  TX2h  1 3.650000e-01    1.750000e+00
 SN2dh  TX1r  1 3.650000e-01    1.750000e+00
 SN2dr  TX1h  1 3.650000e-01    1.750000e+00
 SN1dh  TC6r  1 3.650000e-01    2.110000e+00
 SN1dr  TC6h  1 3.650000e-01    2.110000e+00
 SN1dh  TC5r  1 3.650000e-01    1.910000e+00
 SN1dr  TC5h  1 3.650000e-01    1.910000e+00
 SN1dh  TC4r  1 3.650000e-01    1.910000e+00
 SN1dr  TC4h  1 3.650000e-01    1.910000e+00
 SN1dh  TC3r  1 3.650000e-01    1.750000e+00
 SN1dr  TC3h  1 3.650000e-01    1.750000e+00
 SN1dh  TC2r  1 3.660000e-01    1.600000e+00
 SN1dr  TC2h  1 3.660000e-01    1.600000e+00
 SN1dh  TC1r  1 3.780000e-01    1.450000e+00
 SN1dr  TC1h  1 3.780000e-01    1.450000e+00
 SN1dh  TX4r  1 3.650000e-01    1.910000e+00
 SN1dr  TX4h  1 3.650000e-01    1.910000e+00
 SN1dh  TX3r  1 3.650000e-01    1.910000e+00
 SN1dr  TX3h  1 3.650000e-01    1.910000e+00
 SN1dh  TX2r  1 3.650000e-01    1.750000e+00
 SN1dr  TX2h  1 3.650000e-01    1.750000e+00
 SN1dh  TX1r  1 3.650000e-01    1.750000e+00
 SN1dr  TX1h  1 3.650000e-01    1.750000e+00
 SP6ah  TC6r  1 3.780000e-01    1.450000e+00
 SP6ar  TC6h  1 3.780000e-01    1.450000e+00
 SP6ah  TC5r  1 3.940000e-01    1.290000e+00
 SP6ar  TC5h  1 3.940000e-01    1.290000e+00
 SP6ah  TC4r  1 4.040000e-01    1.130000e+00
 SP6ar  TC4h  1 4.040000e-01    1.130000e+00
 SP6ah  TC3r  1 4.090000e-01    1.080000e+00
 SP6ar  TC3h  1 4.090000e-01    1.080000e+00
 SP6ah  TC2r  1 4.090000e-01    1.080000e+00
 SP6ar  TC2h  1 4.090000e-01    1.080000e+00
 SP6ah  TC1r  1 4.840000e-01    8.900000e-01
 SP6ar  TC1h  1 4.840000e-01    8.900000e-01
 SP6ah  TX4r  1 3.660000e-01    1.600000e+00
 SP6ar  TX4h  1 3.660000e-01    1.600000e+00
 SP6ah  TX3r  1 3.660000e-01    1.600000e+00
 SP6ar  TX3h  1 3.660000e-01    1.600000e+00
 SP6ah  TX2r  1 3.780000e-01    1.450000e+00
 SP6ar  TX2h  1 3.780000e-01    1.450000e+00
 SP6ah  TX1r  1 3.940000e-01    1.290000e+00
 SP6ar  TX1h  1 3.940000e-01    1.290000e+00
 SP5ah  TC6r  1 3.780000e-01    1.450000e+00
 SP5ar  TC6h  1 3.780000e-01    1.450000e+00
 SP5ah  TC5r  1 3.780000e-01    1.450000e+00
 SP5ar  TC5h  1 3.780000e-01    1.450000e+00
 SP5ah  TC4r  1 3.940000e-01    1.290000e+00
 SP5ar  TC4h  1 3.940000e-01    1.290000e+00
 SP5ah  TC3r  1 4.040000e-01    1.130000e+00
 SP5ar  TC3h  1 4.040000e-01    1.130000e+00
 SP5ah  TC2r  1 4.040000e-01    1.130000e+00
 SP5ar  TC2h  1 4.040000e-01    1.130000e+00
 SP5ah  TC1r  1 4.090000e-01    1.080000e+00
 SP5ar  TC1h  1 4.090000e-01    1.080000e+00
 SP5ah  TX4r  1 3.650000e-01    1.750000e+00
 SP5ar  TX4h  1 3.650000e-01    1.750000e+00
 SP5ah  TX3r  1 3.660000e-01    1.600000e+00
 SP5ar  TX3h  1 3.660000e-01    1.600000e+00
 SP5ah  TX2r  1 3.660000e-01    1.600000e+00
 SP5ar  TX2h  1 3.660000e-01    1.600000e+00
 SP5ah  TX1r  1 3.940000e-01    1.290000e+00
 SP5ar  TX1h  1 3.940000e-01    1.290000e+00
 SP4ah  TC6r  1 3.660000e-01    1.600000e+00
 SP4ar  TC6h  1 3.660000e-01    1.600000e+00
 SP4ah  TC5r  1 3.780000e-01    1.450000e+00
 SP4ar  TC5h  1 3.780000e-01    1.450000e+00
 SP4ah  TC4r  1 3.940000e-01    1.290000e+00
 SP4ar  TC4h  1 3.940000e-01    1.290000e+00
 SP4ah  TC3r  1 4.040000e-01    1.130000e+00
 SP4ar  TC3h  1 4.040000e-01    1.130000e+00
 SP4ah  TC2r  1 4.040000e-01    1.130000e+00
 SP4ar  TC2h  1 4.040000e-01    1.130000e+00
 SP4ah  TC1r  1 4.090000e-01    1.080000e+00
 SP4ar  TC1h  1 4.090000e-01    1.080000e+00
 SP4ah  TX4r  1 3.650000e-01    1.750000e+00
 SP4ar  TX4h  1 3.650000e-01    1.750000e+00
 SP4ah  TX3r  1 3.660000e-01    1.600000e+00
 SP4ar  TX3h  1 3.660000e-01    1.600000e+00
 SP4ah  TX2r  1 3.660000e-01    1.600000e+00
 SP4ar  TX2h  1 3.660000e-01    1.600000e+00
 SP4ah  TX1r  1 3.780000e-01    1.450000e+00
 SP4ar  TX1h  1 3.780000e-01    1.450000e+00
 SP3ah  TC6r  1 3.650000e-01    1.750000e+00
 SP3ar  TC6h  1 3.650000e-01    1.750000e+00
 SP3ah  TC5r  1 3.660000e-01    1.600000e+00
 SP3ar  TC5h  1 3.660000e-01    1.600000e+00
 SP3ah  TC4r  1 3.780000e-01    1.450000e+00
 SP3ar  TC4h  1 3.780000e-01    1.450000e+00
 SP3ah  TC3r  1 4.040000e-01    1.130000e+00
 SP3ar  TC3h  1 4.040000e-01    1.130000e+00
 SP3ah  TC2r  1 4.040000e-01    1.130000e+00
 SP3ar  TC2h  1 4.040000e-01    1.130000e+00
 SP3ah  TC1r  1 4.090000e-01    1.080000e+00
 SP3ar  TC1h  1 4.090000e-01    1.080000e+00
 SP3ah  TX4r  1 3.650000e-01    1.750000e+00
 SP3ar  TX4h  1 3.650000e-01    1.750000e+00
 SP3ah  TX3r  1 3.650000e-01    1.750000e+00
 SP3ar  TX3h  1 3.650000e-01    1.750000e+00
 SP3ah  TX2r  1 3.660000e-01    1.600000e+00
 SP3ar  TX2h  1 3.660000e-01    1.600000e+00
 SP3ah  TX1r  1 3.780000e-01    1.450000e+00
 SP3ar  TX1h  1 3.780000e-01    1.450000e+00
 SP2ah  TC6r  1 3.650000e-01    1.750000e+00
 SP2ar  TC6h  1 3.650000e-01    1.750000e+00
 SP2ah  TC5r  1 3.660000e-01    1.600000e+00
 SP2ar  TC5h  1 3.660000e-01    1.600000e+00
 SP2ah  TC4r  1 3.780000e-01    1.450000e+00
 SP2ar  TC4h  1 3.780000e-01    1.450000e+00
 SP2ah  TC3r  1 3.940000e-01    1.290000e+00
 SP2ar  TC3h  1 3.940000e-01    1.290000e+00
 SP2ah  TC2r  1 3.940000e-01    1.290000e+00
 SP2ar  TC2h  1 3.940000e-01    1.290000e+00
 SP2ah  TC1r  1 4.040000e-01    1.130000e+00
 SP2ar  TC1h  1 4.040000e-01    1.130000e+00
 SP2ah  TX4r  1 3.650000e-01    1.750000e+00
 SP2ar  TX4h  1 3.650000e-01    1.750000e+00
 SP2ah  TX3r  1 3.650000e-01    1.750000e+00
 SP2ar  TX3h  1 3.650000e-01    1.750000e+00
 SP2ah  TX2r  1 3.660000e-01    1.600000e+00
 SP2ar  TX2h  1 3.660000e-01    1.600000e+00
 SP2ah  TX1r  1 3.780000e-01    1.450000e+00
 SP2ar  TX1h  1 3.780000e-01    1.450000e+00
 SP1ah  TC6r  1 3.650000e-01    1.750000e+00
 SP1ar  TC6h  1 3.650000e-01    1.750000e+00
 SP1ah  TC5r  1 3.660000e-01    1.600000e+00
 SP1ar  TC5h  1 3.660000e-01    1.600000e+00
 SP1ah  TC4r  1 3.780000e-01    1.450000e+00
 SP1ar  TC4h  1 3.780000e-01    1.450000e+00
 SP1ah  TC3r  1 3.940000e-01    1.290000e+00
 SP1ar  TC3h  1 3.940000e-01    1.290000e+00
 SP1ah  TC2r  1 3.940000e-01    1.290000e+00
 SP1ar  TC2h  1 3.940000e-01    1.290000e+00
 SP1ah  TC1r  1 4.040000e-01    1.130000e+00
 SP1ar  TC1h  1 4.040000e-01    1.130000e+00
 SP1ah  TX4r  1 3.650000e-01    1.750000e+00
 SP1ar  TX4h  1 3.650000e-01    1.750000e+00
 SP1ah  TX3r  1 3.650000e-01    1.750000e+00
 SP1ar  TX3h  1 3.650000e-01    1.750000e+00
 SP1ah  TX2r  1 3.660000e-01    1.600000e+00
 SP1ar  TX2h  1 3.660000e-01    1.600000e+00
 SP1ah  TX1r  1 3.780000e-01    1.450000e+00
 SP1ar  TX1h  1 3.780000e-01    1.450000e+00
 SN6ah  TC6r  1 3.650000e-01    1.910000e+00
 SN6ar  TC6h  1 3.650000e-01    1.910000e+00
 SN6ah  TC5r  1 3.650000e-01    1.750000e+00
 SN6ar  TC5h  1 3.650000e-01    1.750000e+00
 SN6ah  TC4r  1 3.660000e-01    1.600000e+00
 SN6ar  TC4h  1 3.660000e-01    1.600000e+00
 SN6ah  TC3r  1 3.780000e-01    1.450000e+00
 SN6ar  TC3h  1 3.780000e-01    1.450000e+00
 SN6ah  TC2r  1 3.780000e-01    1.450000e+00
 SN6ar  TC2h  1 3.780000e-01    1.450000e+00
 SN6ah  TC1r  1 3.940000e-01    1.290000e+00
 SN6ar  TC1h  1 3.940000e-01    1.290000e+00
 SN6ah  TX4r  1 3.650000e-01    1.910000e+00
 SN6ar  TX4h  1 3.650000e-01    1.910000e+00
 SN6ah  TX3r  1 3.650000e-01    1.750000e+00
 SN6ar  TX3h  1 3.650000e-01    1.750000e+00
 SN6ah  TX2r  1 3.660000e-01    1.600000e+00
 SN6ar  TX2h  1 3.660000e-01    1.600000e+00
 SN6ah  TX1r  1 3.780000e-01    1.450000e+00
 SN6ar  TX1h  1 3.780000e-01    1.450000e+00
 SN5ah  TC6r  1 3.650000e-01    1.910000e+00
 SN5ar  TC6h  1 3.650000e-01    1.910000e+00
 SN5ah  TC5r  1 3.650000e-01    1.750000e+00
 SN5ar  TC5h  1 3.650000e-01    1.750000e+00
 SN5ah  TC4r  1 3.660000e-01    1.600000e+00
 SN5ar  TC4h  1 3.660000e-01    1.600000e+00
 SN5ah  TC3r  1 3.660000e-01    1.600000e+00
 SN5ar  TC3h  1 3.660000e-01    1.600000e+00
 SN5ah  TC2r  1 3.780000e-01    1.450000e+00
 SN5ar  TC2h  1 3.780000e-01    1.450000e+00
 SN5ah  TC1r  1 3.940000e-01    1.290000e+00
 SN5ar  TC1h  1 3.940000e-01    1.290000e+00
 SN5ah  TX4r  1 3.650000e-01    2.110000e+00
 SN5ar  TX4h  1 3.650000e-01    2.110000e+00
 SN5ah  TX3r  1 3.650000e-01    1.910000e+00
 SN5ar  TX3h  1 3.650000e-01    1.910000e+00
 SN5ah  TX2r  1 3.650000e-01    1.750000e+00
 SN5ar  TX2h  1 3.650000e-01    1.750000e+00
 SN5ah  TX1r  1 3.660000e-01    1.600000e+00
 SN5ar  TX1h  1 3.660000e-01    1.600000e+00
 SN4ah  TC6r  1 3.650000e-01    1.910000e+00
 SN4ar  TC6h  1 3.650000e-01    1.910000e+00
 SN4ah  TC5r  1 3.650000e-01    1.750000e+00
 SN4ar  TC5h  1 3.650000e-01    1.750000e+00
 SN4ah  TC4r  1 3.650000e-01    1.750000e+00
 SN4ar  TC4h  1 3.650000e-01    1.750000e+00
 SN4ah  TC3r  1 3.660000e-01    1.600000e+00
 SN4ar  TC3h  1 3.660000e-01    1.600000e+00
 SN4ah  TC2r  1 3.780000e-01    1.450000e+00
 SN4ar  TC2h  1 3.780000e-01    1.450000e+00
 SN4ah  TC1r  1 3.940000e-01    1.290000e+00
 SN4ar  TC1h  1 3.940000e-01    1.290000e+00
 SN4ah  TX4r  1 3.650000e-01    2.340000e+00
 SN4ar  TX4h  1 3.650000e-01    2.340000e+00
 SN4ah  TX3r  1 3.650000e-01    2.110000e+00
 SN4ar  TX3h  1 3.650000e-01    2.110000e+00
 SN4ah  TX2r  1 3.650000e-01    1.750000e+00
 SN4ar  TX2h  1 3.650000e-01    1.750000e+00
 SN4ah  TX1r  1 3.660000e-01    1.600000e+00
 SN4ar  TX1h  1 3.660000e-01    1.600000e+00
 SN3ah  TC6r  1 3.650000e-01    1.910000e+00
 SN3ar  TC6h  1 3.650000e-01    1.910000e+00
 SN3ah  TC5r  1 3.650000e-01    1.750000e+00
 SN3ar  TC5h  1 3.650000e-01    1.750000e+00
 SN3ah  TC4r  1 3.650000e-01    1.750000e+00
 SN3ar  TC4h  1 3.650000e-01    1.750000e+00
 SN3ah  TC3r  1 3.660000e-01    1.600000e+00
 SN3ar  TC3h  1 3.660000e-01    1.600000e+00
 SN3ah  TC2r  1 3.660000e-01    1.600000e+00
 SN3ar  TC2h  1 3.660000e-01    1.600000e+00
 SN3ah  TC1r  1 3.780000e-01    1.450000e+00
 SN3ar  TC1h  1 3.780000e-01    1.450000e+00
 SN3ah  TX4r  1 3.650000e-01    2.110000e+00
 SN3ar  TX4h  1 3.650000e-01    2.110000e+00
 SN3ah  TX3r  1 3.650000e-01    1.910000e+00
 SN3ar  TX3h  1 3.650000e-01    1.910000e+00
 SN3ah  TX2r  1 3.650000e-01    1.750000e+00
 SN3ar  TX2h  1 3.650000e-01    1.750000e+00
 SN3ah  TX1r  1 3.650000e-01    1.750000e+00
 SN3ar  TX1h  1 3.650000e-01    1.750000e+00
 SN2ah  TC6r  1 3.650000e-01    1.910000e+00
 SN2ar  TC6h  1 3.650000e-01    1.910000e+00
 SN2ah  TC5r  1 3.650000e-01    1.750000e+00
 SN2ar  TC5h  1 3.650000e-01    1.750000e+00
 SN2ah  TC4r  1 3.650000e-01    1.750000e+00
 SN2ar  TC4h  1 3.650000e-01    1.750000e+00
 SN2ah  TC3r  1 3.650000e-01    1.750000e+00
 SN2ar  TC3h  1 3.650000e-01    1.750000e+00
 SN2ah  TC2r  1 3.660000e-01    1.600000e+00
 SN2ar  TC2h  1 3.660000e-01    1.600000e+00
 SN2ah  TC1r  1 3.780000e-01    1.450000e+00
 SN2ar  TC1h  1 3.780000e-01    1.450000e+00
 SN2ah  TX4r  1 3.650000e-01    2.110000e+00
 SN2ar  TX4h  1 3.650000e-01    2.110000e+00
 SN2ah  TX3r  1 3.650000e-01    1.910000e+00
 SN2ar  TX3h  1 3.650000e-01    1.910000e+00
 SN2ah  TX2r  1 3.650000e-01    1.750000e+00
 SN2ar  TX2h  1 3.650000e-01    1.750000e+00
 SN2ah  TX1r  1 3.650000e-01    1.750000e+00
 SN2ar  TX1h  1 3.650000e-01    1.750000e+00
 SN1ah  TC6r  1 3.650000e-01    2.110000e+00
 SN1ar  TC6h  1 3.650000e-01    2.110000e+00
 SN1ah  TC5r  1 3.650000e-01    1.910000e+00
 SN1ar  TC5h  1 3.650000e-01    1.910000e+00
 SN1ah  TC4r  1 3.650000e-01    1.910000e+00
 SN1ar  TC4h  1 3.650000e-01    1.910000e+00
 SN1ah  TC3r  1 3.650000e-01    1.750000e+00
 SN1ar  TC3h  1 3.650000e-01    1.750000e+00
 SN1ah  TC2r  1 3.660000e-01    1.600000e+00
 SN1ar  TC2h  1 3.660000e-01    1.600000e+00
 SN1ah  TC1r  1 3.780000e-01    1.450000e+00
 SN1ar  TC1h  1 3.780000e-01    1.450000e+00
 SN1ah  TX4r  1 3.650000e-01    1.910000e+00
 SN1ar  TX4h  1 3.650000e-01    1.910000e+00
 SN1ah  TX3r  1 3.650000e-01    1.910000e+00
 SN1ar  TX3h  1 3.650000e-01    1.910000e+00
 SN1ah  TX2r  1 3.650000e-01    1.750000e+00
 SN1ar  TX2h  1 3.650000e-01    1.750000e+00
 SN1ah  TX1r  1 3.650000e-01    1.750000e+00
 SN1ar  TX1h  1 3.650000e-01    1.750000e+00
  TP6d SP6dq  1 3.650000e-01    4.220000e+00
  TP5d SP5dq  1 3.650000e-01    3.640000e+00
  TP6a SP5dq  1 3.650000e-01    4.510000e+00
  TP4d SP4dq  1 3.650000e-01    3.370000e+00
  TP6a SP4dq  1 3.650000e-01    4.220000e+00
  TP5a SP4dq  1 3.650000e-01    3.930000e+00
  TP3d SP3dq  1 3.650000e-01    3.100000e+00
  TP6a SP3dq  1 3.650000e-01    3.930000e+00
  TP5a SP3dq  1 3.650000e-01    3.640000e+00
  TP4a SP3dq  1 3.650000e-01    3.640000e+00
  TP2d SP2dq  1 3.650000e-01    3.100000e+00
  TP6a SP2dq  1 3.650000e-01    3.930000e+00
  TP5a SP2dq  1 3.650000e-01    3.640000e+00
  TP4a SP2dq  1 3.650000e-01    3.640000e+00
  TP3a SP2dq  1 3.650000e-01    3.640000e+00
  TP1d SP1dq  1 3.650000e-01    2.830000e+00
  TP6a SP1dq  1 3.650000e-01    3.640000e+00
  TP5a SP1dq  1 3.650000e-01    3.370000e+00
  TP4a SP1dq  1 3.650000e-01    3.370000e+00
  TP3a SP1dq  1 3.650000e-01    3.370000e+00
  TP2a SP1dq  1 3.650000e-01    3.370000e+00
  TN6d SN6dq  1 3.650000e-01    2.830000e+00
  TP6a SN6dq  1 3.650000e-01    3.370000e+00
  TP5a SN6dq  1 3.650000e-01    3.100000e+00
  TP4a SN6dq  1 3.650000e-01    3.100000e+00
  TP3a SN6dq  1 3.650000e-01    3.100000e+00
  TP2a SN6dq  1 3.650000e-01    3.370000e+00
  TP1a SN6dq  1 3.650000e-01    3.370000e+00
  TN5d SN5dq  1 3.650000e-01    2.570000e+00
  TP6a SN5dq  1 3.650000e-01    2.830000e+00
  TP5a SN5dq  1 3.650000e-01    2.830000e+00
  TP4a SN5dq  1 3.650000e-01    2.830000e+00
  TP3a SN5dq  1 3.650000e-01    2.830000e+00
  TP2a SN5dq  1 3.650000e-01    3.100000e+00
  TP1a SN5dq  1 3.650000e-01    3.100000e+00
  TN6a SN5dq  1 3.650000e-01    3.370000e+00
  TN4d SN4dq  1 3.650000e-01    2.570000e+00
  TP6a SN4dq  1 3.650000e-01    2.570000e+00
  TP5a SN4dq  1 3.650000e-01    2.830000e+00
  TP4a SN4dq  1 3.650000e-01    2.830000e+00
  TP3a SN4dq  1 3.650000e-01    2.830000e+00
  TP2a SN4dq  1 3.650000e-01    2.830000e+00
  TP1a SN4dq  1 3.650000e-01    3.100000e+00
  TN6a SN4dq  1 3.650000e-01    3.370000e+00
  TN5a SN4dq  1 3.650000e-01    3.100000e+00
  TN3d SN3dq  1 3.650000e-01    2.340000e+00
  TP6a SN3dq  1 3.650000e-01    2.110000e+00
  TP5a SN3dq  1 3.650000e-01    2.110000e+00
  TP4a SN3dq  1 3.650000e-01    2.570000e+00
  TP3a SN3dq  1 3.650000e-01    2.570000e+00
  TP2a SN3dq  1 3.650000e-01    2.570000e+00
  TP1a SN3dq  1 3.650000e-01    2.570000e+00
  TN6a SN3dq  1 3.650000e-01    2.830000e+00
  TN5a SN3dq  1 3.650000e-01    2.830000e+00
  TN4a SN3dq  1 3.650000e-01    2.830000e+00
  TN2d SN2dq  1 3.650000e-01    2.340000e+00
  TP6a SN2dq  1 3.650000e-01    1.910000e+00
  TP5a SN2dq  1 3.650000e-01    1.910000e+00
  TP4a SN2dq  1 3.650000e-01    2.110000e+00
  TP3a SN2dq  1 3.650000e-01    2.570000e+00
  TP2a SN2dq  1 3.650000e-01    2.570000e+00
  TP1a SN2dq  1 3.650000e-01    2.570000e+00
  TN6a SN2dq  1 3.650000e-01    2.570000e+00
  TN5a SN2dq  1 3.650000e-01    2.830000e+00
  TN4a SN2dq  1 3.650000e-01    2.830000e+00
  TN3a SN2dq  1 3.650000e-01    2.830000e+00
  TN1d SN1dq  1 3.650000e-01    2.340000e+00
  TP6a SN1dq  1 3.650000e-01    1.750000e+00
  TP5a SN1dq  1 3.650000e-01    1.750000e+00
  TP4a SN1dq  1 3.650000e-01    1.910000e+00
  TP3a SN1dq  1 3.650000e-01    2.110000e+00
  TP2a SN1dq  1 3.650000e-01    2.570000e+00
  TP1a SN1dq  1 3.650000e-01    2.570000e+00
  TN6a SN1dq  1 3.650000e-01    2.570000e+00
  TN5a SN1dq  1 3.650000e-01    2.570000e+00
  TN4a SN1dq  1 3.650000e-01    2.570000e+00
  TN3a SN1dq  1 3.650000e-01    2.570000e+00
  TN2a SN1dq  1 3.650000e-01    2.570000e+00
  TP6a SP6aq  1 3.650000e-01    4.220000e+00
  TP5a SP5aq  1 3.650000e-01    3.640000e+00
  TP4a SP4aq  1 3.650000e-01    3.370000e+00
  TP3a SP3aq  1 3.650000e-01    3.100000e+00
  TP2a SP2aq  1 3.650000e-01    3.100000e+00
  TP1a SP1aq  1 3.650000e-01    2.830000e+00
  TN6a SN6aq  1 3.650000e-01    2.830000e+00
  TN5a SN5aq  1 3.650000e-01    2.570000e+00
  TN4a SN4aq  1 3.650000e-01    2.570000e+00
  TN3a SN3aq  1 3.650000e-01    2.340000e+00
  TN2a SN2aq  1 3.650000e-01    2.340000e+00
  TN1a SN1aq  1 3.650000e-01    2.340000e+00
  TC6v SC6vq  1 3.650000e-01    2.340000e+00
  TC5v SC5vq  1 3.650000e-01    2.110000e+00
  TC6e SC5vq  1 3.650000e-01    2.830000e+00
  TC4v SC4vq  1 3.650000e-01    2.110000e+00
  TC6e SC4vq  1 3.650000e-01    2.830000e+00
  TC5e SC4vq  1 3.650000e-01    2.830000e+00
  TC3v SC3vq  1 3.650000e-01    2.110000e+00
  TC6e SC3vq  1 3.650000e-01    2.570000e+00
  TC5e SC3vq  1 3.650000e-01    2.570000e+00
  TC4e SC3vq  1 3.650000e-01    2.830000e+00
  TC2v SC2vq  1 3.650000e-01    2.110000e+00
  TC6e SC2vq  1 3.650000e-01    2.340000e+00
  TC5e SC2vq  1 3.650000e-01    2.340000e+00
  TC4e SC2vq  1 3.650000e-01    2.570000e+00
  TC3e SC2vq  1 3.650000e-01    2.830000e+00
  TC1v SC1vq  1 3.650000e-01    2.110000e+00
  TC6e SC1vq  1 3.650000e-01    2.110000e+00
  TC5e SC1vq  1 3.650000e-01    2.340000e+00
  TC4e SC1vq  1 3.650000e-01    2.340000e+00
  TC3e SC1vq  1 3.650000e-01    2.830000e+00
  TC2e SC1vq  1 3.650000e-01    3.100000e+00
  TX4v SX4vq  1 3.650000e-01    2.110000e+00
  TC6e SX4vq  1 3.650000e-01    2.830000e+00
  TC5e SX4vq  1 3.650000e-01    2.570000e+00
  TC4e SX4vq  1 3.650000e-01    2.570000e+00
  TC3e SX4vq  1 3.650000e-01    2.570000e+00
  TC2e SX4vq  1 3.650000e-01    2.110000e+00
  TC1e SX4vq  1 3.650000e-01    2.110000e+00
  TX3v SX3vq  1 3.650000e-01    2.110000e+00
  TC6e SX3vq  1 3.650000e-01    2.830000e+00
  TC5e SX3vq  1 3.650000e-01    2.570000e+00
  TC4e SX3vq  1 3.650000e-01    2.570000e+00
  TC3e SX3vq  1 3.650000e-01    2.570000e+00
  TC2e SX3vq  1 3.650000e-01    2.570000e+00
  TC1e SX3vq  1 3.650000e-01    2.570000e+00
  TX4e SX3vq  1 3.650000e-01    2.830000e+00
  TX2v SX2vq  1 3.650000e-01    2.340000e+00
  TC6e SX2vq  1 3.650000e-01    2.830000e+00
  TC5e SX2vq  1 3.650000e-01    2.570000e+00
  TC4e SX2vq  1 3.650000e-01    2.570000e+00
  TC3e SX2vq  1 3.650000e-01    2.570000e+00
  TC2e SX2vq  1 3.650000e-01    2.570000e+00
  TC1e SX2vq  1 3.650000e-01    2.570000e+00
  TX4e SX2vq  1 3.650000e-01    2.830000e+00
  TX3e SX2vq  1 3.650000e-01    3.100000e+00
  TX1v SX1vq  1 3.650000e-01    2.570000e+00
  TC6e SX1vq  1 3.650000e-01    2.830000e+00
  TC5e SX1vq  1 3.650000e-01    2.830000e+00
  TC4e SX1vq  1 3.650000e-01    2.830000e+00
  TC3e SX1vq  1 3.650000e-01    2.830000e+00
  TC2e SX1vq  1 3.650000e-01    2.570000e+00
  TC1e SX1vq  1 3.650000e-01    2.570000e+00
  TX4e SX1vq  1 3.650000e-01    2.830000e+00
  TX3e SX1vq  1 3.650000e-01    3.100000e+00
  TX2e SX1vq  1 3.650000e-01    3.100000e+00
  TC6e SC6eq  1 3.650000e-01    2.340000e+00
  TC5e SC5eq  1 3.650000e-01    2.110000e+00
  TC4e SC4eq  1 3.650000e-01    2.110000e+00
  TC3e SC3eq  1 3.650000e-01    2.110000e+00
  TC2e SC2eq  1 3.650000e-01    2.110000e+00
  TC1e SC1eq  1 3.650000e-01    2.110000e+00
  TX4e SX4eq  1 3.650000e-01    2.110000e+00
  TX3e SX3eq  1 3.650000e-01    2.110000e+00
  TX2e SX2eq  1 3.650000e-01    2.340000e+00
  TX1e SX1eq  1 3.650000e-01    2.570000e+00
  TC6e SX1eq  1 3.650000e-01    2.110000e+00
  TC5e SX1eq  1 3.650000e-01    2.110000e+00
  TC4e SX1eq  1 3.650000e-01    2.110000e+00
  TC3e SX1eq  1 3.650000e-01    2.110000e+00
  TC2e SX1eq  1 3.650000e-01    1.910000e+00
  TC1e SX1eq  1 3.650000e-01    1.910000e+00
  TX4e SX1eq  1 3.650000e-01    2.110000e+00
  TX3e SX1eq  1 3.650000e-01    2.340000e+00
  TX2e SX1eq  1 3.650000e-01    2.340000e+00
  TC6v SX1eq  1 3.650000e-01    2.830000e+00
  TC5v SX1eq  1 3.650000e-01    2.830000e+00
  TC4v SX1eq  1 3.650000e-01    2.830000e+00
  TC3v SX1eq  1 3.650000e-01    2.830000e+00
  TC2v SX1eq  1 3.650000e-01    2.570000e+00
  TC1v SX1eq  1 3.650000e-01    2.570000e+00
  TX4v SX1eq  1 3.650000e-01    2.830000e+00
  TX3v SX1eq  1 3.650000e-01    3.100000e+00
  TX2v SX1eq  1 3.650000e-01    3.100000e+00
  TX1v SX1eq  1 3.650000e-01    3.370000e+00
  TP6d SX1eq  1 3.650000e-01    1.750000e+00
  TP5d SX1eq  1 3.650000e-01    1.750000e+00
  TP4d SX1eq  1 3.650000e-01    1.910000e+00
  TP3d SX1eq  1 3.650000e-01    1.910000e+00
  TP2d SX1eq  1 3.650000e-01    1.910000e+00
  TP1d SX1eq  1 3.650000e-01    1.910000e+00
  TN6d SX1eq  1 3.650000e-01    1.910000e+00
  TN5d SX1eq  1 3.650000e-01    2.110000e+00
  TN4d SX1eq  1 3.650000e-01    2.110000e+00
  TN3d SX1eq  1 3.650000e-01    2.340000e+00
  TN2d SX1eq  1 3.650000e-01    2.340000e+00
  TN1d SX1eq  1 3.650000e-01    2.340000e+00
  TP6a SX1eq  1 3.780000e-01    1.450000e+00
  TP5a SX1eq  1 3.780000e-01    1.450000e+00
  TP4a SX1eq  1 3.660000e-01    1.600000e+00
  TP3a SX1eq  1 3.660000e-01    1.600000e+00
  TP2a SX1eq  1 3.660000e-01    1.600000e+00
  TP1a SX1eq  1 3.660000e-01    1.600000e+00
  TN6a SX1eq  1 3.660000e-01    1.600000e+00
  TN5a SX1eq  1 3.650000e-01    1.750000e+00
  TN4a SX1eq  1 3.650000e-01    1.750000e+00
  TN3a SX1eq  1 3.650000e-01    1.910000e+00
  TN2a SX1eq  1 3.650000e-01    1.910000e+00
  TN1a SX1eq  1 3.650000e-01    1.910000e+00
  TC6e SX2eq  1 3.650000e-01    2.110000e+00
  TC5e SX2eq  1 3.650000e-01    1.910000e+00
  TC4e SX2eq  1 3.650000e-01    1.910000e+00
  TC3e SX2eq  1 3.650000e-01    1.910000e+00
  TC2e SX2eq  1 3.650000e-01    1.910000e+00
  TC1e SX2eq  1 3.650000e-01    1.910000e+00
  TX4e SX2eq  1 3.650000e-01    2.110000e+00
  TX3e SX2eq  1 3.650000e-01    2.340000e+00
  TC6v SX2eq  1 3.650000e-01    2.830000e+00
  TC5v SX2eq  1 3.650000e-01    2.570000e+00
  TC4v SX2eq  1 3.650000e-01    2.570000e+00
  TC3v SX2eq  1 3.650000e-01    2.570000e+00
  TC2v SX2eq  1 3.650000e-01    2.570000e+00
  TC1v SX2eq  1 3.650000e-01    2.570000e+00
  TX4v SX2eq  1 3.650000e-01    2.830000e+00
  TX3v SX2eq  1 3.650000e-01    3.100000e+00
  TX2v SX2eq  1 3.650000e-01    3.100000e+00
  TP6d SX2eq  1 3.650000e-01    1.910000e+00
  TP5d SX2eq  1 3.650000e-01    2.110000e+00
  TP4d SX2eq  1 3.650000e-01    2.110000e+00
  TP3d SX2eq  1 3.650000e-01    2.110000e+00
  TP2d SX2eq  1 3.650000e-01    2.110000e+00
  TP1d SX2eq  1 3.650000e-01    2.110000e+00
  TN6d SX2eq  1 3.650000e-01    2.110000e+00
  TN5d SX2eq  1 3.650000e-01    2.340000e+00
  TN4d SX2eq  1 3.650000e-01    2.340000e+00
  TN3d SX2eq  1 3.650000e-01    2.340000e+00
  TN2d SX2eq  1 3.650000e-01    2.340000e+00
  TN1d SX2eq  1 3.650000e-01    2.340000e+00
  TP6a SX2eq  1 3.660000e-01    1.600000e+00
  TP5a SX2eq  1 3.650000e-01    1.750000e+00
  TP4a SX2eq  1 3.650000e-01    1.750000e+00
  TP3a SX2eq  1 3.650000e-01    1.750000e+00
  TP2a SX2eq  1 3.650000e-01    1.750000e+00
  TP1a SX2eq  1 3.650000e-01    1.750000e+00
  TN6a SX2eq  1 3.650000e-01    1.750000e+00
  TN5a SX2eq  1 3.650000e-01    1.910000e+00
  TN4a SX2eq  1 3.650000e-01    1.910000e+00
  TN3a SX2eq  1 3.650000e-01    1.910000e+00
  TN2a SX2eq  1 3.650000e-01    1.910000e+00
  TN1a SX2eq  1 3.650000e-01    1.910000e+00
  TC6e SX3eq  1 3.650000e-01    2.110000e+00
  TC5e SX3eq  1 3.650000e-01    1.910000e+00
  TC4e SX3eq  1 3.650000e-01    1.910000e+00
  TC3e SX3eq  1 3.650000e-01    1.910000e+00
  TC2e SX3eq  1 3.650000e-01    1.910000e+00
  TC1e SX3eq  1 3.650000e-01    1.910000e+00
  TX4e SX3eq  1 3.650000e-01    2.110000e+00
  TC6v SX3eq  1 3.650000e-01    2.830000e+00
  TC5v SX3eq  1 3.650000e-01    2.570000e+00
  TC4v SX3eq  1 3.650000e-01    2.570000e+00
  TC3v SX3eq  1 3.650000e-01    2.570000e+00
  TC2v SX3eq  1 3.650000e-01    2.570000e+00
  TC1v SX3eq  1 3.650000e-01    2.570000e+00
  TX4v SX3eq  1 3.650000e-01    2.830000e+00
  TX3v SX3eq  1 3.650000e-01    2.830000e+00
  TP6d SX3eq  1 3.650000e-01    2.110000e+00
  TP5d SX3eq  1 3.650000e-01    2.110000e+00
  TP4d SX3eq  1 3.650000e-01    2.110000e+00
  TP3d SX3eq  1 3.650000e-01    2.340000e+00
  TP2d SX3eq  1 3.650000e-01    2.340000e+00
  TP1d SX3eq  1 3.650000e-01    2.340000e+00
  TN6d SX3eq  1 3.650000e-01    2.340000e+00
  TN5d SX3eq  1 3.650000e-01    2.570000e+00
  TN4d SX3eq  1 3.650000e-01    2.830000e+00
  TN3d SX3eq  1 3.650000e-01    2.570000e+00
  TN2d SX3eq  1 3.650000e-01    2.570000e+00
  TN1d SX3eq  1 3.650000e-01    2.570000e+00
  TP6a SX3eq  1 3.650000e-01    1.750000e+00
  TP5a SX3eq  1 3.650000e-01    1.750000e+00
  TP4a SX3eq  1 3.650000e-01    1.750000e+00
  TP3a SX3eq  1 3.650000e-01    1.910000e+00
  TP2a SX3eq  1 3.650000e-01    1.910000e+00
  TP1a SX3eq  1 3.650000e-01    1.910000e+00
  TN6a SX3eq  1 3.650000e-01    1.910000e+00
  TN5a SX3eq  1 3.650000e-01    2.110000e+00
  TN4a SX3eq  1 3.650000e-01    2.340000e+00
  TN3a SX3eq  1 3.650000e-01    2.110000e+00
  TN2a SX3eq  1 3.650000e-01    2.110000e+00
  TN1a SX3eq  1 3.650000e-01    2.110000e+00
  TC6e SX4eq  1 3.650000e-01    2.110000e+00
  TC5e SX4eq  1 3.650000e-01    1.910000e+00
  TC4e SX4eq  1 3.650000e-01    1.910000e+00
  TC3e SX4eq  1 3.650000e-01    1.910000e+00
  TC2e SX4eq  1 3.660000e-01    1.600000e+00
  TC1e SX4eq  1 3.660000e-01    1.600000e+00
  TC6v SX4eq  1 3.650000e-01    2.830000e+00
  TC5v SX4eq  1 3.650000e-01    2.570000e+00
  TC4v SX4eq  1 3.650000e-01    2.570000e+00
  TC3v SX4eq  1 3.650000e-01    2.570000e+00
  TC2v SX4eq  1 3.650000e-01    2.110000e+00
  TC1v SX4eq  1 3.650000e-01    2.110000e+00
  TX4v SX4eq  1 3.650000e-01    2.830000e+00
  TP6d SX4eq  1 3.650000e-01    2.110000e+00
  TP5d SX4eq  1 3.650000e-01    2.340000e+00
  TP4d SX4eq  1 3.650000e-01    2.340000e+00
  TP3d SX4eq  1 3.650000e-01    2.340000e+00
  TP2d SX4eq  1 3.650000e-01    2.340000e+00
  TP1d SX4eq  1 3.650000e-01    2.340000e+00
  TN6d SX4eq  1 3.650000e-01    2.570000e+00
  TN5d SX4eq  1 3.650000e-01    2.830000e+00
  TN4d SX4eq  1 3.650000e-01    3.100000e+00
  TN3d SX4eq  1 3.650000e-01    2.830000e+00
  TN2d SX4eq  1 3.650000e-01    2.830000e+00
  TN1d SX4eq  1 3.650000e-01    2.570000e+00
  TP6a SX4eq  1 3.650000e-01    1.750000e+00
  TP5a SX4eq  1 3.650000e-01    1.910000e+00
  TP4a SX4eq  1 3.650000e-01    1.910000e+00
  TP3a SX4eq  1 3.650000e-01    1.910000e+00
  TP2a SX4eq  1 3.650000e-01    1.910000e+00
  TP1a SX4eq  1 3.650000e-01    1.910000e+00
  TN6a SX4eq  1 3.650000e-01    2.110000e+00
  TN5a SX4eq  1 3.650000e-01    2.340000e+00
  TN4a SX4eq  1 3.650000e-01    2.570000e+00
  TN3a SX4eq  1 3.650000e-01    2.340000e+00
  TN2a SX4eq  1 3.650000e-01    2.340000e+00
  TN1a SX4eq  1 3.650000e-01    2.110000e+00
  TC6e SC1eq  1 3.660000e-01    1.600000e+00
  TC5e SC1eq  1 3.650000e-01    1.750000e+00
  TC4e SC1eq  1 3.650000e-01    1.750000e+00
  TC3e SC1eq  1 3.650000e-01    2.110000e+00
  TC2e SC1eq  1 3.650000e-01    2.340000e+00
  TC6v SC1eq  1 3.650000e-01    2.110000e+00
  TC5v SC1eq  1 3.650000e-01    2.340000e+00
  TC4v SC1eq  1 3.650000e-01    2.340000e+00
  TC3v SC1eq  1 3.650000e-01    2.830000e+00
  TC2v SC1eq  1 3.650000e-01    3.100000e+00
  TC1v SC1eq  1 3.650000e-01    2.830000e+00
  TP6d SC1eq  1 4.040000e-01    1.130000e+00
  TP5d SC1eq  1 3.780000e-01    1.450000e+00
  TP4d SC1eq  1 3.780000e-01    1.450000e+00
  TP3d SC1eq  1 3.780000e-01    1.450000e+00
  TP2d SC1eq  1 3.660000e-01    1.600000e+00
  TP1d SC1eq  1 3.660000e-01    1.600000e+00
  TN6d SC1eq  1 3.650000e-01    1.750000e+00
  TN5d SC1eq  1 3.650000e-01    1.750000e+00
  TN4d SC1eq  1 3.650000e-01    1.750000e+00
  TN3d SC1eq  1 3.650000e-01    1.910000e+00
  TN2d SC1eq  1 3.650000e-01    1.910000e+00
  TN1d SC1eq  1 3.650000e-01    1.910000e+00
  TP6a SC1eq  1 4.230000e-01    9.810000e-01
  TP5a SC1eq  1 4.040000e-01    1.130000e+00
  TP4a SC1eq  1 4.040000e-01    1.130000e+00
  TP3a SC1eq  1 4.040000e-01    1.130000e+00
  TP2a SC1eq  1 3.940000e-01    1.290000e+00
  TP1a SC1eq  1 3.940000e-01    1.290000e+00
  TN6a SC1eq  1 3.780000e-01    1.450000e+00
  TN5a SC1eq  1 3.780000e-01    1.450000e+00
  TN4a SC1eq  1 3.780000e-01    1.450000e+00
  TN3a SC1eq  1 3.660000e-01    1.600000e+00
  TN2a SC1eq  1 3.660000e-01    1.600000e+00
  TN1a SC1eq  1 3.660000e-01    1.600000e+00
  TC6e SC2eq  1 3.650000e-01    1.750000e+00
  TC5e SC2eq  1 3.650000e-01    1.750000e+00
  TC4e SC2eq  1 3.650000e-01    1.910000e+00
  TC3e SC2eq  1 3.650000e-01    2.110000e+00
  TC6v SC2eq  1 3.650000e-01    2.340000e+00
  TC5v SC2eq  1 3.650000e-01    2.340000e+00
  TC4v SC2eq  1 3.650000e-01    2.570000e+00
  TC3v SC2eq  1 3.650000e-01    2.830000e+00
  TC2v SC2eq  1 3.650000e-01    2.830000e+00
  TP6d SC2eq  1 3.780000e-01    1.450000e+00
  TP5d SC2eq  1 3.660000e-01    1.600000e+00
  TP4d SC2eq  1 3.660000e-01    1.600000e+00
  TP3d SC2eq  1 3.660000e-01    1.600000e+00
  TP2d SC2eq  1 3.650000e-01    1.750000e+00
  TP1d SC2eq  1 3.650000e-01    1.750000e+00
  TN6d SC2eq  1 3.650000e-01    1.910000e+00
  TN5d SC2eq  1 3.650000e-01    1.910000e+00
  TN4d SC2eq  1 3.650000e-01    1.910000e+00
  TN3d SC2eq  1 3.650000e-01    2.110000e+00
  TN2d SC2eq  1 3.650000e-01    2.110000e+00
  TN1d SC2eq  1 3.650000e-01    2.110000e+00
  TP6a SC2eq  1 4.040000e-01    1.130000e+00
  TP5a SC2eq  1 3.940000e-01    1.290000e+00
  TP4a SC2eq  1 3.940000e-01    1.290000e+00
  TP3a SC2eq  1 3.940000e-01    1.290000e+00
  TP2a SC2eq  1 3.780000e-01    1.450000e+00
  TP1a SC2eq  1 3.780000e-01    1.450000e+00
  TN6a SC2eq  1 3.660000e-01    1.600000e+00
  TN5a SC2eq  1 3.660000e-01    1.600000e+00
  TN4a SC2eq  1 3.660000e-01    1.600000e+00
  TN3a SC2eq  1 3.650000e-01    1.750000e+00
  TN2a SC2eq  1 3.650000e-01    1.750000e+00
  TN1a SC2eq  1 3.650000e-01    1.750000e+00
  TC6e SC3eq  1 3.650000e-01    1.910000e+00
  TC5e SC3eq  1 3.650000e-01    1.910000e+00
  TC4e SC3eq  1 3.650000e-01    2.110000e+00
  TC6v SC3eq  1 3.650000e-01    2.570000e+00
  TC5v SC3eq  1 3.650000e-01    2.570000e+00
  TC4v SC3eq  1 3.650000e-01    2.830000e+00
  TC3v SC3eq  1 3.650000e-01    2.830000e+00
  TP6d SC3eq  1 3.780000e-01    1.450000e+00
  TP5d SC3eq  1 3.660000e-01    1.600000e+00
  TP4d SC3eq  1 3.660000e-01    1.600000e+00
  TP3d SC3eq  1 3.660000e-01    1.600000e+00
  TP2d SC3eq  1 3.650000e-01    1.750000e+00
  TP1d SC3eq  1 3.650000e-01    1.750000e+00
  TN6d SC3eq  1 3.650000e-01    1.910000e+00
  TN5d SC3eq  1 3.650000e-01    2.110000e+00
  TN4d SC3eq  1 3.650000e-01    2.110000e+00
  TN3d SC3eq  1 3.650000e-01    2.110000e+00
  TN2d SC3eq  1 3.650000e-01    2.340000e+00
  TN1d SC3eq  1 3.650000e-01    2.340000e+00
  TP6a SC3eq  1 4.040000e-01    1.130000e+00
  TP5a SC3eq  1 3.940000e-01    1.290000e+00
  TP4a SC3eq  1 3.940000e-01    1.290000e+00
  TP3a SC3eq  1 3.940000e-01    1.290000e+00
  TP2a SC3eq  1 3.780000e-01    1.450000e+00
  TP1a SC3eq  1 3.780000e-01    1.450000e+00
  TN6a SC3eq  1 3.660000e-01    1.600000e+00
  TN5a SC3eq  1 3.650000e-01    1.750000e+00
  TN4a SC3eq  1 3.650000e-01    1.750000e+00
  TN3a SC3eq  1 3.650000e-01    1.750000e+00
  TN2a SC3eq  1 3.650000e-01    1.910000e+00
  TN1a SC3eq  1 3.650000e-01    1.910000e+00
  TC6e SC4eq  1 3.650000e-01    2.110000e+00
  TC5e SC4eq  1 3.650000e-01    2.110000e+00
  TC6v SC4eq  1 3.650000e-01    2.830000e+00
  TC5v SC4eq  1 3.650000e-01    2.830000e+00
  TC4v SC4eq  1 3.650000e-01    2.830000e+00
  TP6d SC4eq  1 3.660000e-01    1.600000e+00
  TP5d SC4eq  1 3.650000e-01    1.750000e+00
  TP4d SC4eq  1 3.650000e-01    1.750000e+00
  TP3d SC4eq  1 3.650000e-01    1.910000e+00
  TP2d SC4eq  1 3.650000e-01    1.910000e+00
  TP1d SC4eq  1 3.650000e-01    1.910000e+00
  TN6d SC4eq  1 3.650000e-01    2.110000e+00
  TN5d SC4eq  1 3.650000e-01    2.110000e+00
  TN4d SC4eq  1 3.650000e-01    2.340000e+00
  TN3d SC4eq  1 3.650000e-01    2.340000e+00
  TN2d SC4eq  1 3.650000e-01    2.340000e+00
  TN1d SC4eq  1 3.650000e-01    2.570000e+00
  TP6a SC4eq  1 3.940000e-01    1.290000e+00
  TP5a SC4eq  1 3.780000e-01    1.450000e+00
  TP4a SC4eq  1 3.780000e-01    1.450000e+00
  TP3a SC4eq  1 3.660000e-01    1.600000e+00
  TP2a SC4eq  1 3.660000e-01    1.600000e+00
  TP1a SC4eq  1 3.660000e-01    1.600000e+00
  TN6a SC4eq  1 3.650000e-01    1.750000e+00
  TN5a SC4eq  1 3.650000e-01    1.750000e+00
  TN4a SC4eq  1 3.650000e-01    1.910000e+00
  TN3a SC4eq  1 3.650000e-01    1.910000e+00
  TN2a SC4eq  1 3.650000e-01    1.910000e+00
  TN1a SC4eq  1 3.650000e-01    2.110000e+00
  TC6e SC5eq  1 3.650000e-01    2.110000e+00
  TC6v SC5eq  1 3.650000e-01    2.830000e+00
  TC5v SC5eq  1 3.650000e-01    2.830000e+00
  TP6d SC5eq  1 3.650000e-01    1.750000e+00
  TP5d SC5eq  1 3.650000e-01    1.910000e+00
  TP4d SC5eq  1 3.650000e-01    1.910000e+00
  TP3d SC5eq  1 3.650000e-01    2.110000e+00
  TP2d SC5eq  1 3.650000e-01    2.110000e+00
  TP1d SC5eq  1 3.650000e-01    2.110000e+00
  TN6d SC5eq  1 3.650000e-01    2.340000e+00
  TN5d SC5eq  1 3.650000e-01    2.340000e+00
  TN4d SC5eq  1 3.650000e-01    2.340000e+00
  TN3d SC5eq  1 3.650000e-01    2.340000e+00
  TN2d SC5eq  1 3.650000e-01    2.340000e+00
  TN1d SC5eq  1 3.650000e-01    2.570000e+00
  TP6a SC5eq  1 3.780000e-01    1.450000e+00
  TP5a SC5eq  1 3.660000e-01    1.600000e+00
  TP4a SC5eq  1 3.660000e-01    1.600000e+00
  TP3a SC5eq  1 3.650000e-01    1.750000e+00
  TP2a SC5eq  1 3.650000e-01    1.750000e+00
  TP1a SC5eq  1 3.650000e-01    1.750000e+00
  TN6a SC5eq  1 3.650000e-01    1.910000e+00
  TN5a SC5eq  1 3.650000e-01    1.910000e+00
  TN4a SC5eq  1 3.650000e-01    1.910000e+00
  TN3a SC5eq  1 3.650000e-01    1.910000e+00
  TN2a SC5eq  1 3.650000e-01    1.910000e+00
  TN1a SC5eq  1 3.650000e-01    2.110000e+00
  TC6v SC6eq  1 3.650000e-01    3.100000e+00
  TP6d SC6eq  1 3.650000e-01    1.910000e+00
  TP5d SC6eq  1 3.650000e-01    1.910000e+00
  TP4d SC6eq  1 3.650000e-01    2.110000e+00
  TP3d SC6eq  1 3.650000e-01    2.340000e+00
  TP2d SC6eq  1 3.650000e-01    2.340000e+00
  TP1d SC6eq  1 3.650000e-01    2.340000e+00
  TN6d SC6eq  1 3.650000e-01    2.570000e+00
  TN5d SC6eq  1 3.650000e-01    2.570000e+00
  TN4d SC6eq  1 3.650000e-01    2.570000e+00
  TN3d SC6eq  1 3.650000e-01    2.570000e+00
  TN2d SC6eq  1 3.650000e-01    2.570000e+00
  TN1d SC6eq  1 3.650000e-01    2.830000e+00
  TP6a SC6eq  1 3.660000e-01    1.600000e+00
  TP5a SC6eq  1 3.660000e-01    1.600000e+00
  TP4a SC6eq  1 3.650000e-01    1.750000e+00
  TP3a SC6eq  1 3.650000e-01    1.910000e+00
  TP2a SC6eq  1 3.650000e-01    1.910000e+00
  TP1a SC6eq  1 3.650000e-01    1.910000e+00
  TN6a SC6eq  1 3.650000e-01    2.110000e+00
  TN5a SC6eq  1 3.650000e-01    2.110000e+00
  TN4a SC6eq  1 3.650000e-01    2.110000e+00
  TN3a SC6eq  1 3.650000e-01    2.110000e+00
  TN2a SC6eq  1 3.650000e-01    2.110000e+00
  TN1a SC6eq  1 3.650000e-01    2.340000e+00
  TC6v SX1vq  1 3.650000e-01    2.110000e+00
  TC5v SX1vq  1 3.650000e-01    2.110000e+00
  TC4v SX1vq  1 3.650000e-01    2.110000e+00
  TC3v SX1vq  1 3.650000e-01    2.110000e+00
  TC2v SX1vq  1 3.650000e-01    1.910000e+00
  TC1v SX1vq  1 3.650000e-01    1.910000e+00
  TX4v SX1vq  1 3.650000e-01    2.110000e+00
  TX3v SX1vq  1 3.650000e-01    2.340000e+00
  TX2v SX1vq  1 3.650000e-01    2.340000e+00
  TP6a SX1vq  1 3.650000e-01    1.750000e+00
  TP5a SX1vq  1 3.650000e-01    1.750000e+00
  TP4a SX1vq  1 3.650000e-01    1.910000e+00
  TP3a SX1vq  1 3.650000e-01    1.910000e+00
  TP2a SX1vq  1 3.650000e-01    1.910000e+00
  TP1a SX1vq  1 3.650000e-01    1.910000e+00
  TN6a SX1vq  1 3.650000e-01    1.910000e+00
  TN5a SX1vq  1 3.650000e-01    2.110000e+00
  TN4a SX1vq  1 3.650000e-01    2.110000e+00
  TN3a SX1vq  1 3.650000e-01    2.340000e+00
  TN2a SX1vq  1 3.650000e-01    2.340000e+00
  TN1a SX1vq  1 3.650000e-01    2.340000e+00
  TP6d SX1vq  1 3.780000e-01    1.450000e+00
  TP5d SX1vq  1 3.780000e-01    1.450000e+00
  TP4d SX1vq  1 3.660000e-01    1.600000e+00
  TP3d SX1vq  1 3.660000e-01    1.600000e+00
  TP2d SX1vq  1 3.660000e-01    1.600000e+00
  TP1d SX1vq  1 3.660000e-01    1.600000e+00
  TN6d SX1vq  1 3.660000e-01    1.600000e+00
  TN5d SX1vq  1 3.650000e-01    1.750000e+00
  TN4d SX1vq  1 3.650000e-01    1.750000e+00
  TN3d SX1vq  1 3.650000e-01    1.910000e+00
  TN2d SX1vq  1 3.650000e-01    1.910000e+00
  TN1d SX1vq  1 3.650000e-01    1.910000e+00
  TC6v SX2vq  1 3.650000e-01    2.110000e+00
  TC5v SX2vq  1 3.650000e-01    1.910000e+00
  TC4v SX2vq  1 3.650000e-01    1.910000e+00
  TC3v SX2vq  1 3.650000e-01    1.910000e+00
  TC2v SX2vq  1 3.650000e-01    1.910000e+00
  TC1v SX2vq  1 3.650000e-01    1.910000e+00
  TX4v SX2vq  1 3.650000e-01    2.110000e+00
  TX3v SX2vq  1 3.650000e-01    2.340000e+00
  TP6a SX2vq  1 3.650000e-01    1.910000e+00
  TP5a SX2vq  1 3.650000e-01    2.110000e+00
  TP4a SX2vq  1 3.650000e-01    2.110000e+00
  TP3a SX2vq  1 3.650000e-01    2.110000e+00
  TP2a SX2vq  1 3.650000e-01    2.110000e+00
  TP1a SX2vq  1 3.650000e-01    2.110000e+00
  TN6a SX2vq  1 3.650000e-01    2.110000e+00
  TN5a SX2vq  1 3.650000e-01    2.340000e+00
  TN4a SX2vq  1 3.650000e-01    2.340000e+00
  TN3a SX2vq  1 3.650000e-01    2.340000e+00
  TN2a SX2vq  1 3.650000e-01    2.340000e+00
  TN1a SX2vq  1 3.650000e-01    2.340000e+00
  TP6d SX2vq  1 3.660000e-01    1.600000e+00
  TP5d SX2vq  1 3.650000e-01    1.750000e+00
  TP4d SX2vq  1 3.650000e-01    1.750000e+00
  TP3d SX2vq  1 3.650000e-01    1.750000e+00
  TP2d SX2vq  1 3.650000e-01    1.750000e+00
  TP1d SX2vq  1 3.650000e-01    1.750000e+00
  TN6d SX2vq  1 3.650000e-01    1.750000e+00
  TN5d SX2vq  1 3.650000e-01    1.910000e+00
  TN4d SX2vq  1 3.650000e-01    1.910000e+00
  TN3d SX2vq  1 3.650000e-01    1.910000e+00
  TN2d SX2vq  1 3.650000e-01    1.910000e+00
  TN1d SX2vq  1 3.650000e-01    1.910000e+00
  TC6v SX3vq  1 3.650000e-01    2.110000e+00
  TC5v SX3vq  1 3.650000e-01    1.910000e+00
  TC4v SX3vq  1 3.650000e-01    1.910000e+00
  TC3v SX3vq  1 3.650000e-01    1.910000e+00
  TC2v SX3vq  1 3.650000e-01    1.910000e+00
  TC1v SX3vq  1 3.650000e-01    1.910000e+00
  TX4v SX3vq  1 3.650000e-01    2.110000e+00
  TP6a SX3vq  1 3.650000e-01    2.110000e+00
  TP5a SX3vq  1 3.650000e-01    2.110000e+00
  TP4a SX3vq  1 3.650000e-01    2.110000e+00
  TP3a SX3vq  1 3.650000e-01    2.340000e+00
  TP2a SX3vq  1 3.650000e-01    2.340000e+00
  TP1a SX3vq  1 3.650000e-01    2.340000e+00
  TN6a SX3vq  1 3.650000e-01    2.340000e+00
  TN5a SX3vq  1 3.650000e-01    2.570000e+00
  TN4a SX3vq  1 3.650000e-01    2.830000e+00
  TN3a SX3vq  1 3.650000e-01    2.570000e+00
  TN2a SX3vq  1 3.650000e-01    2.570000e+00
  TN1a SX3vq  1 3.650000e-01    2.570000e+00
  TP6d SX3vq  1 3.650000e-01    1.750000e+00
  TP5d SX3vq  1 3.650000e-01    1.750000e+00
  TP4d SX3vq  1 3.650000e-01    1.750000e+00
  TP3d SX3vq  1 3.650000e-01    1.910000e+00
  TP2d SX3vq  1 3.650000e-01    1.910000e+00
  TP1d SX3vq  1 3.650000e-01    1.910000e+00
  TN6d SX3vq  1 3.650000e-01    1.910000e+00
  TN5d SX3vq  1 3.650000e-01    2.110000e+00
  TN4d SX3vq  1 3.650000e-01    2.340000e+00
  TN3d SX3vq  1 3.650000e-01    2.110000e+00
  TN2d SX3vq  1 3.650000e-01    2.110000e+00
  TN1d SX3vq  1 3.650000e-01    2.110000e+00
  TC6v SX4vq  1 3.650000e-01    2.110000e+00
  TC5v SX4vq  1 3.650000e-01    1.910000e+00
  TC4v SX4vq  1 3.650000e-01    1.910000e+00
  TC3v SX4vq  1 3.650000e-01    1.910000e+00
  TC2v SX4vq  1 3.660000e-01    1.600000e+00
  TC1v SX4vq  1 3.660000e-01    1.600000e+00
  TP6a SX4vq  1 3.650000e-01    2.110000e+00
  TP5a SX4vq  1 3.650000e-01    2.340000e+00
  TP4a SX4vq  1 3.650000e-01    2.340000e+00
  TP3a SX4vq  1 3.650000e-01    2.340000e+00
  TP2a SX4vq  1 3.650000e-01    2.340000e+00
  TP1a SX4vq  1 3.650000e-01    2.340000e+00
  TN6a SX4vq  1 3.650000e-01    2.570000e+00
  TN5a SX4vq  1 3.650000e-01    2.830000e+00
  TN4a SX4vq  1 3.650000e-01    3.100000e+00
  TN3a SX4vq  1 3.650000e-01    2.830000e+00
  TN2a SX4vq  1 3.650000e-01    2.830000e+00
  TN1a SX4vq  1 3.650000e-01    2.570000e+00
  TP6d SX4vq  1 3.650000e-01    1.750000e+00
  TP5d SX4vq  1 3.650000e-01    1.910000e+00
  TP4d SX4vq  1 3.650000e-01    1.910000e+00
  TP3d SX4vq  1 3.650000e-01    1.910000e+00
  TP2d SX4vq  1 3.650000e-01    1.910000e+00
  TP1d SX4vq  1 3.650000e-01    1.910000e+00
  TN6d SX4vq  1 3.650000e-01    2.110000e+00
  TN5d SX4vq  1 3.650000e-01    2.340000e+00
  TN4d SX4vq  1 3.650000e-01    2.570000e+00
  TN3d SX4vq  1 3.650000e-01    2.340000e+00
  TN2d SX4vq  1 3.650000e-01    2.340000e+00
  TN1d SX4vq  1 3.650000e-01    2.110000e+00
  TC6v SC1vq  1 3.660000e-01    1.600000e+00
  TC5v SC1vq  1 3.650000e-01    1.750000e+00
  TC4v SC1vq  1 3.650000e-01    1.750000e+00
  TC3v SC1vq  1 3.650000e-01    2.110000e+00
  TC2v SC1vq  1 3.650000e-01    2.340000e+00
  TP6a SC1vq  1 4.040000e-01    1.130000e+00
  TP5a SC1vq  1 3.780000e-01    1.450000e+00
  TP4a SC1vq  1 3.780000e-01    1.450000e+00
  TP3a SC1vq  1 3.780000e-01    1.450000e+00
  TP2a SC1vq  1 3.660000e-01    1.600000e+00
  TP1a SC1vq  1 3.660000e-01    1.600000e+00
  TN6a SC1vq  1 3.650000e-01    1.750000e+00
  TN5a SC1vq  1 3.650000e-01    1.750000e+00
  TN4a SC1vq  1 3.650000e-01    1.750000e+00
  TN3a SC1vq  1 3.650000e-01    1.910000e+00
  TN2a SC1vq  1 3.650000e-01    1.910000e+00
  TN1a SC1vq  1 3.650000e-01    1.910000e+00
  TP6d SC1vq  1 4.230000e-01    9.810000e-01
  TP5d SC1vq  1 4.040000e-01    1.130000e+00
  TP4d SC1vq  1 4.040000e-01    1.130000e+00
  TP3d SC1vq  1 4.040000e-01    1.130000e+00
  TP2d SC1vq  1 3.940000e-01    1.290000e+00
  TP1d SC1vq  1 3.940000e-01    1.290000e+00
  TN6d SC1vq  1 3.780000e-01    1.450000e+00
  TN5d SC1vq  1 3.780000e-01    1.450000e+00
  TN4d SC1vq  1 3.780000e-01    1.450000e+00
  TN3d SC1vq  1 3.660000e-01    1.600000e+00
  TN2d SC1vq  1 3.660000e-01    1.600000e+00
  TN1d SC1vq  1 3.660000e-01    1.600000e+00
  TC6v SC2vq  1 3.650000e-01    1.750000e+00
  TC5v SC2vq  1 3.650000e-01    1.750000e+00
  TC4v SC2vq  1 3.650000e-01    1.910000e+00
  TC3v SC2vq  1 3.650000e-01    2.110000e+00
  TP6a SC2vq  1 3.780000e-01    1.450000e+00
  TP5a SC2vq  1 3.660000e-01    1.600000e+00
  TP4a SC2vq  1 3.660000e-01    1.600000e+00
  TP3a SC2vq  1 3.660000e-01    1.600000e+00
  TP2a SC2vq  1 3.650000e-01    1.750000e+00
  TP1a SC2vq  1 3.650000e-01    1.750000e+00
  TN6a SC2vq  1 3.650000e-01    1.910000e+00
  TN5a SC2vq  1 3.650000e-01    1.910000e+00
  TN4a SC2vq  1 3.650000e-01    1.910000e+00
  TN3a SC2vq  1 3.650000e-01    2.110000e+00
  TN2a SC2vq  1 3.650000e-01    2.110000e+00
  TN1a SC2vq  1 3.650000e-01    2.110000e+00
  TP6d SC2vq  1 4.040000e-01    1.130000e+00
  TP5d SC2vq  1 3.940000e-01    1.290000e+00
  TP4d SC2vq  1 3.940000e-01    1.290000e+00
  TP3d SC2vq  1 3.940000e-01    1.290000e+00
  TP2d SC2vq  1 3.780000e-01    1.450000e+00
  TP1d SC2vq  1 3.780000e-01    1.450000e+00
  TN6d SC2vq  1 3.660000e-01    1.600000e+00
  TN5d SC2vq  1 3.660000e-01    1.600000e+00
  TN4d SC2vq  1 3.660000e-01    1.600000e+00
  TN3d SC2vq  1 3.650000e-01    1.750000e+00
  TN2d SC2vq  1 3.650000e-01    1.750000e+00
  TN1d SC2vq  1 3.650000e-01    1.750000e+00
  TC6v SC3vq  1 3.650000e-01    1.910000e+00
  TC5v SC3vq  1 3.650000e-01    1.910000e+00
  TC4v SC3vq  1 3.650000e-01    2.110000e+00
  TP6a SC3vq  1 3.780000e-01    1.450000e+00
  TP5a SC3vq  1 3.660000e-01    1.600000e+00
  TP4a SC3vq  1 3.660000e-01    1.600000e+00
  TP3a SC3vq  1 3.660000e-01    1.600000e+00
  TP2a SC3vq  1 3.650000e-01    1.750000e+00
  TP1a SC3vq  1 3.650000e-01    1.750000e+00
  TN6a SC3vq  1 3.650000e-01    1.910000e+00
  TN5a SC3vq  1 3.650000e-01    2.110000e+00
  TN4a SC3vq  1 3.650000e-01    2.110000e+00
  TN3a SC3vq  1 3.650000e-01    2.110000e+00
  TN2a SC3vq  1 3.650000e-01    2.340000e+00
  TN1a SC3vq  1 3.650000e-01    2.340000e+00
  TP6d SC3vq  1 4.040000e-01    1.130000e+00
  TP5d SC3vq  1 3.940000e-01    1.290000e+00
  TP4d SC3vq  1 3.940000e-01    1.290000e+00
  TP3d SC3vq  1 3.940000e-01    1.290000e+00
  TP2d SC3vq  1 3.780000e-01    1.450000e+00
  TP1d SC3vq  1 3.780000e-01    1.450000e+00
  TN6d SC3vq  1 3.660000e-01    1.600000e+00
  TN5d SC3vq  1 3.650000e-01    1.750000e+00
  TN4d SC3vq  1 3.650000e-01    1.750000e+00
  TN3d SC3vq  1 3.650000e-01    1.750000e+00
  TN2d SC3vq  1 3.650000e-01    1.910000e+00
  TN1d SC3vq  1 3.650000e-01    1.910000e+00
  TC6v SC4vq  1 3.650000e-01    2.110000e+00
  TC5v SC4vq  1 3.650000e-01    2.110000e+00
  TP6a SC4vq  1 3.660000e-01    1.600000e+00
  TP5a SC4vq  1 3.650000e-01    1.750000e+00
  TP4a SC4vq  1 3.650000e-01    1.750000e+00
  TP3a SC4vq  1 3.650000e-01    1.910000e+00
  TP2a SC4vq  1 3.650000e-01    1.910000e+00
  TP1a SC4vq  1 3.650000e-01    1.910000e+00
  TN6a SC4vq  1 3.650000e-01    2.110000e+00
  TN5a SC4vq  1 3.650000e-01    2.110000e+00
  TN4a SC4vq  1 3.650000e-01    2.340000e+00
  TN3a SC4vq  1 3.650000e-01    2.340000e+00
  TN2a SC4vq  1 3.650000e-01    2.340000e+00
  TN1a SC4vq  1 3.650000e-01    2.570000e+00
  TP6d SC4vq  1 3.940000e-01    1.290000e+00
  TP5d SC4vq  1 3.780000e-01    1.450000e+00
  TP4d SC4vq  1 3.780000e-01    1.450000e+00
  TP3d SC4vq  1 3.660000e-01    1.600000e+00
  TP2d SC4vq  1 3.660000e-01    1.600000e+00
  TP1d SC4vq  1 3.660000e-01    1.600000e+00
  TN6d SC4vq  1 3.650000e-01    1.750000e+00
  TN5d SC4vq  1 3.650000e-01    1.750000e+00
  TN4d SC4vq  1 3.650000e-01    1.910000e+00
  TN3d SC4vq  1 3.650000e-01    1.910000e+00
  TN2d SC4vq  1 3.650000e-01    1.910000e+00
  TN1d SC4vq  1 3.650000e-01    2.110000e+00
  TC6v SC5vq  1 3.650000e-01    2.110000e+00
  TP6a SC5vq  1 3.650000e-01    1.750000e+00
  TP5a SC5vq  1 3.650000e-01    1.910000e+00
  TP4a SC5vq  1 3.650000e-01    1.910000e+00
  TP3a SC5vq  1 3.650000e-01    2.110000e+00
  TP2a SC5vq  1 3.650000e-01    2.110000e+00
  TP1a SC5vq  1 3.650000e-01    2.110000e+00
  TN6a SC5vq  1 3.650000e-01    2.340000e+00
  TN5a SC5vq  1 3.650000e-01    2.340000e+00
  TN4a SC5vq  1 3.650000e-01    2.340000e+00
  TN3a SC5vq  1 3.650000e-01    2.340000e+00
  TN2a SC5vq  1 3.650000e-01    2.340000e+00
  TN1a SC5vq  1 3.650000e-01    2.570000e+00
  TP6d SC5vq  1 3.780000e-01    1.450000e+00
  TP5d SC5vq  1 3.660000e-01    1.600000e+00
  TP4d SC5vq  1 3.660000e-01    1.600000e+00
  TP3d SC5vq  1 3.650000e-01    1.750000e+00
  TP2d SC5vq  1 3.650000e-01    1.750000e+00
  TP1d SC5vq  1 3.650000e-01    1.750000e+00
  TN6d SC5vq  1 3.650000e-01    1.910000e+00
  TN5d SC5vq  1 3.650000e-01    1.910000e+00
  TN4d SC5vq  1 3.650000e-01    1.910000e+00
  TN3d SC5vq  1 3.650000e-01    1.910000e+00
  TN2d SC5vq  1 3.650000e-01    1.910000e+00
  TN1d SC5vq  1 3.650000e-01    2.110000e+00
  TP6a SC6vq  1 3.650000e-01    1.910000e+00
  TP5a SC6vq  1 3.650000e-01    1.910000e+00
  TP4a SC6vq  1 3.650000e-01    2.110000e+00
  TP3a SC6vq  1 3.650000e-01    2.340000e+00
  TP2a SC6vq  1 3.650000e-01    2.340000e+00
  TP1a SC6vq  1 3.650000e-01    2.340000e+00
  TN6a SC6vq  1 3.650000e-01    2.570000e+00
  TN5a SC6vq  1 3.650000e-01    2.570000e+00
  TN4a SC6vq  1 3.650000e-01    2.570000e+00
  TN3a SC6vq  1 3.650000e-01    2.570000e+00
  TN2a SC6vq  1 3.650000e-01    2.570000e+00
  TN1a SC6vq  1 3.650000e-01    2.830000e+00
  TP6d SC6vq  1 3.660000e-01    1.600000e+00
  TP5d SC6vq  1 3.660000e-01    1.600000e+00
  TP4d SC6vq  1 3.650000e-01    1.750000e+00
  TP3d SC6vq  1 3.650000e-01    1.910000e+00
  TP2d SC6vq  1 3.650000e-01    1.910000e+00
  TP1d SC6vq  1 3.650000e-01    1.910000e+00
  TN6d SC6vq  1 3.650000e-01    2.110000e+00
  TN5d SC6vq  1 3.650000e-01    2.110000e+00
  TN4d SC6vq  1 3.650000e-01    2.110000e+00
  TN3d SC6vq  1 3.650000e-01    2.110000e+00
  TN2d SC6vq  1 3.650000e-01    2.110000e+00
  TN1d SC6vq  1 3.650000e-01    2.340000e+00
  TP6a SN1aq  1 3.650000e-01    1.750000e+00
  TP5a SN1aq  1 3.650000e-01    1.750000e+00
  TP4a SN1aq  1 3.650000e-01    1.910000e+00
  TP3a SN1aq  1 3.650000e-01    2.110000e+00
  TP2a SN1aq  1 3.650000e-01    2.110000e+00
  TP1a SN1aq  1 3.650000e-01    2.110000e+00
  TN6a SN1aq  1 3.650000e-01    2.110000e+00
  TN5a SN1aq  1 3.650000e-01    2.110000e+00
  TN4a SN1aq  1 3.650000e-01    2.110000e+00
  TN3a SN1aq  1 3.650000e-01    2.110000e+00
  TN2a SN1aq  1 3.650000e-01    2.110000e+00
  TP6d SN1aq  1 3.650000e-01    1.750000e+00
  TP5d SN1aq  1 3.650000e-01    1.750000e+00
  TP4d SN1aq  1 3.650000e-01    1.910000e+00
  TP3d SN1aq  1 3.650000e-01    2.110000e+00
  TP2d SN1aq  1 3.650000e-01    2.570000e+00
  TP1d SN1aq  1 3.650000e-01    2.570000e+00
  TN6d SN1aq  1 3.650000e-01    2.570000e+00
  TN5d SN1aq  1 3.650000e-01    2.570000e+00
  TN4d SN1aq  1 3.650000e-01    2.570000e+00
  TN3d SN1aq  1 3.650000e-01    2.570000e+00
  TN2d SN1aq  1 3.650000e-01    2.570000e+00
  TN1d SN1aq  1 3.650000e-01    2.830000e+00
  TP6a SN2aq  1 3.650000e-01    1.910000e+00
  TP5a SN2aq  1 3.650000e-01    1.910000e+00
  TP4a SN2aq  1 3.650000e-01    2.110000e+00
  TP3a SN2aq  1 3.650000e-01    2.110000e+00
  TP2a SN2aq  1 3.650000e-01    2.110000e+00
  TP1a SN2aq  1 3.650000e-01    2.110000e+00
  TN6a SN2aq  1 3.650000e-01    2.110000e+00
  TN5a SN2aq  1 3.650000e-01    2.340000e+00
  TN4a SN2aq  1 3.650000e-01    2.340000e+00
  TN3a SN2aq  1 3.650000e-01    2.340000e+00
  TP6d SN2aq  1 3.650000e-01    1.910000e+00
  TP5d SN2aq  1 3.650000e-01    1.910000e+00
  TP4d SN2aq  1 3.650000e-01    2.110000e+00
  TP3d SN2aq  1 3.650000e-01    2.570000e+00
  TP2d SN2aq  1 3.650000e-01    2.570000e+00
  TP1d SN2aq  1 3.650000e-01    2.570000e+00
  TN6d SN2aq  1 3.650000e-01    2.570000e+00
  TN5d SN2aq  1 3.650000e-01    2.830000e+00
  TN4d SN2aq  1 3.650000e-01    2.830000e+00
  TN3d SN2aq  1 3.650000e-01    2.830000e+00
  TN2d SN2aq  1 3.650000e-01    2.830000e+00
  TP6a SN3aq  1 3.650000e-01    2.110000e+00
  TP5a SN3aq  1 3.650000e-01    2.110000e+00
  TP4a SN3aq  1 3.650000e-01    2.110000e+00
  TP3a SN3aq  1 3.650000e-01    2.110000e+00
  TP2a SN3aq  1 3.650000e-01    2.110000e+00
  TP1a SN3aq  1 3.650000e-01    2.110000e+00
  TN6a SN3aq  1 3.650000e-01    2.340000e+00
  TN5a SN3aq  1 3.650000e-01    2.340000e+00
  TN4a SN3aq  1 3.650000e-01    2.340000e+00
  TP6d SN3aq  1 3.650000e-01    2.110000e+00
  TP5d SN3aq  1 3.650000e-01    2.110000e+00
  TP4d SN3aq  1 3.650000e-01    2.570000e+00
  TP3d SN3aq  1 3.650000e-01    2.570000e+00
  TP2d SN3aq  1 3.650000e-01    2.570000e+00
  TP1d SN3aq  1 3.650000e-01    2.570000e+00
  TN6d SN3aq  1 3.650000e-01    2.830000e+00
  TN5d SN3aq  1 3.650000e-01    2.830000e+00
  TN4d SN3aq  1 3.650000e-01    2.830000e+00
  TN3d SN3aq  1 3.650000e-01    2.830000e+00
  TP6a SN4aq  1 3.650000e-01    2.110000e+00
  TP5a SN4aq  1 3.650000e-01    2.340000e+00
  TP4a SN4aq  1 3.650000e-01    2.340000e+00
  TP3a SN4aq  1 3.650000e-01    2.340000e+00
  TP2a SN4aq  1 3.650000e-01    2.340000e+00
  TP1a SN4aq  1 3.650000e-01    2.570000e+00
  TN6a SN4aq  1 3.650000e-01    2.830000e+00
  TN5a SN4aq  1 3.650000e-01    2.570000e+00
  TP6d SN4aq  1 3.650000e-01    2.570000e+00
  TP5d SN4aq  1 3.650000e-01    2.830000e+00
  TP4d SN4aq  1 3.650000e-01    2.830000e+00
  TP3d SN4aq  1 3.650000e-01    2.830000e+00
  TP2d SN4aq  1 3.650000e-01    2.830000e+00
  TP1d SN4aq  1 3.650000e-01    3.100000e+00
  TN6d SN4aq  1 3.650000e-01    3.370000e+00
  TN5d SN4aq  1 3.650000e-01    3.100000e+00
  TN4d SN4aq  1 3.650000e-01    3.100000e+00
  TP6a SN5aq  1 3.650000e-01    2.340000e+00
  TP5a SN5aq  1 3.650000e-01    2.340000e+00
  TP4a SN5aq  1 3.650000e-01    2.340000e+00
  TP3a SN5aq  1 3.650000e-01    2.340000e+00
  TP2a SN5aq  1 3.650000e-01    2.570000e+00
  TP1a SN5aq  1 3.650000e-01    2.570000e+00
  TN6a SN5aq  1 3.650000e-01    2.830000e+00
  TP6d SN5aq  1 3.650000e-01    2.830000e+00
  TP5d SN5aq  1 3.650000e-01    2.830000e+00
  TP4d SN5aq  1 3.650000e-01    2.830000e+00
  TP3d SN5aq  1 3.650000e-01    2.830000e+00
  TP2d SN5aq  1 3.650000e-01    3.100000e+00
  TP1d SN5aq  1 3.650000e-01    3.100000e+00
  TN6d SN5aq  1 3.650000e-01    3.370000e+00
  TN5d SN5aq  1 3.650000e-01    3.100000e+00
  TP6a SN6aq  1 3.650000e-01    2.830000e+00
  TP5a SN6aq  1 3.650000e-01    2.570000e+00
  TP4a SN6aq  1 3.650000e-01    2.570000e+00
  TP3a SN6aq  1 3.650000e-01    2.570000e+00
  TP2a SN6aq  1 3.650000e-01    2.830000e+00
  TP1a SN6aq  1 3.650000e-01    2.830000e+00
  TP6d SN6aq  1 3.650000e-01    3.370000e+00
  TP5d SN6aq  1 3.650000e-01    3.100000e+00
  TP4d SN6aq  1 3.650000e-01    3.100000e+00
  TP3d SN6aq  1 3.650000e-01    3.100000e+00
  TP2d SN6aq  1 3.650000e-01    3.370000e+00
  TP1d SN6aq  1 3.650000e-01    3.370000e+00
  TN6d SN6aq  1 3.650000e-01    3.370000e+00
  TP6a SP1aq  1 3.650000e-01    3.100000e+00
  TP5a SP1aq  1 3.650000e-01    2.830000e+00
  TP4a SP1aq  1 3.650000e-01    2.830000e+00
  TP3a SP1aq  1 3.650000e-01    2.830000e+00
  TP2a SP1aq  1 3.650000e-01    2.830000e+00
  TP6d SP1aq  1 3.650000e-01    3.640000e+00
  TP5d SP1aq  1 3.650000e-01    3.370000e+00
  TP4d SP1aq  1 3.650000e-01    3.370000e+00
  TP3d SP1aq  1 3.650000e-01    3.370000e+00
  TP2d SP1aq  1 3.650000e-01    3.370000e+00
  TP1d SP1aq  1 3.650000e-01    3.370000e+00
  TP6a SP2aq  1 3.650000e-01    3.370000e+00
  TP5a SP2aq  1 3.650000e-01    3.100000e+00
  TP4a SP2aq  1 3.650000e-01    3.100000e+00
  TP3a SP2aq  1 3.650000e-01    3.100000e+00
  TP6d SP2aq  1 3.650000e-01    3.930000e+00
  TP5d SP2aq  1 3.650000e-01    3.640000e+00
  TP4d SP2aq  1 3.650000e-01    3.640000e+00
  TP3d SP2aq  1 3.650000e-01    3.640000e+00
  TP2d SP2aq  1 3.650000e-01    3.640000e+00
  TP6a SP3aq  1 3.650000e-01    3.370000e+00
  TP5a SP3aq  1 3.650000e-01    3.100000e+00
  TP4a SP3aq  1 3.650000e-01    3.100000e+00
  TP6d SP3aq  1 3.650000e-01    3.930000e+00
  TP5d SP3aq  1 3.650000e-01    3.640000e+00
  TP4d SP3aq  1 3.650000e-01    3.640000e+00
  TP3d SP3aq  1 3.650000e-01    3.640000e+00
  TP6a SP4aq  1 3.650000e-01    3.640000e+00
  TP5a SP4aq  1 3.650000e-01    3.370000e+00
  TP6d SP4aq  1 3.650000e-01    4.220000e+00
  TP5d SP4aq  1 3.650000e-01    3.930000e+00
  TP4d SP4aq  1 3.650000e-01    3.930000e+00
  TP6a SP5aq  1 3.650000e-01    3.930000e+00
  TP6d SP5aq  1 3.650000e-01    4.510000e+00
  TP5d SP5aq  1 3.650000e-01    4.220000e+00
  TP6d SP6aq  1 3.650000e-01    4.860000e+00
  TP6d SN1dq  1 3.650000e-01    1.750000e+00
  TP5d SN1dq  1 3.650000e-01    1.750000e+00
  TP4d SN1dq  1 3.650000e-01    1.910000e+00
  TP3d SN1dq  1 3.650000e-01    2.110000e+00
  TP2d SN1dq  1 3.650000e-01    2.110000e+00
  TP1d SN1dq  1 3.650000e-01    2.110000e+00
  TN6d SN1dq  1 3.650000e-01    2.110000e+00
  TN5d SN1dq  1 3.650000e-01    2.110000e+00
  TN4d SN1dq  1 3.650000e-01    2.110000e+00
  TN3d SN1dq  1 3.650000e-01    2.110000e+00
  TN2d SN1dq  1 3.650000e-01    2.110000e+00
  TP6d SN2dq  1 3.650000e-01    1.910000e+00
  TP5d SN2dq  1 3.650000e-01    1.910000e+00
  TP4d SN2dq  1 3.650000e-01    2.110000e+00
  TP3d SN2dq  1 3.650000e-01    2.110000e+00
  TP2d SN2dq  1 3.650000e-01    2.110000e+00
  TP1d SN2dq  1 3.650000e-01    2.110000e+00
  TN6d SN2dq  1 3.650000e-01    2.110000e+00
  TN5d SN2dq  1 3.650000e-01    2.340000e+00
  TN4d SN2dq  1 3.650000e-01    2.340000e+00
  TN3d SN2dq  1 3.650000e-01    2.340000e+00
  TP6d SN3dq  1 3.650000e-01    2.110000e+00
  TP5d SN3dq  1 3.650000e-01    2.110000e+00
  TP4d SN3dq  1 3.650000e-01    2.110000e+00
  TP3d SN3dq  1 3.650000e-01    2.110000e+00
  TP2d SN3dq  1 3.650000e-01    2.110000e+00
  TP1d SN3dq  1 3.650000e-01    2.110000e+00
  TN6d SN3dq  1 3.650000e-01    2.340000e+00
  TN5d SN3dq  1 3.650000e-01    2.340000e+00
  TN4d SN3dq  1 3.650000e-01    2.340000e+00
  TP6d SN4dq  1 3.650000e-01    2.110000e+00
  TP5d SN4dq  1 3.650000e-01    2.340000e+00
  TP4d SN4dq  1 3.650000e-01    2.340000e+00
  TP3d SN4dq  1 3.650000e-01    2.340000e+00
  TP2d SN4dq  1 3.650000e-01    2.340000e+00
  TP1d SN4dq  1 3.650000e-01    2.570000e+00
  TN6d SN4dq  1 3.650000e-01    2.830000e+00
  TN5d SN4dq  1 3.650000e-01    2.570000e+00
  TP6d SN5dq  1 3.650000e-01    2.340000e+00
  TP5d SN5dq  1 3.650000e-01    2.340000e+00
  TP4d SN5dq  1 3.650000e-01    2.340000e+00
  TP3d SN5dq  1 3.650000e-01    2.340000e+00
  TP2d SN5dq  1 3.650000e-01    2.570000e+00
  TP1d SN5dq  1 3.650000e-01    2.570000e+00
  TN6d SN5dq  1 3.650000e-01    2.830000e+00
  TP6d SN6dq  1 3.650000e-01    2.830000e+00
  TP5d SN6dq  1 3.650000e-01    2.570000e+00
  TP4d SN6dq  1 3.650000e-01    2.570000e+00
  TP3d SN6dq  1 3.650000e-01    2.570000e+00
  TP2d SN6dq  1 3.650000e-01    2.830000e+00
  TP1d SN6dq  1 3.650000e-01    2.830000e+00
  TP6d SP1dq  1 3.650000e-01    3.100000e+00
  TP5d SP1dq  1 3.650000e-01    2.830000e+00
  TP4d SP1dq  1 3.650000e-01    2.830000e+00
  TP3d SP1dq  1 3.650000e-01    2.830000e+00
  TP2d SP1dq  1 3.650000e-01    2.830000e+00
  TP6d SP2dq  1 3.650000e-01    3.370000e+00
  TP5d SP2dq  1 3.650000e-01    3.100000e+00
  TP4d SP2dq  1 3.650000e-01    3.100000e+00
  TP3d SP2dq  1 3.650000e-01    3.100000e+00
  TP6d SP3dq  1 3.650000e-01    3.370000e+00
  TP5d SP3dq  1 3.650000e-01    3.100000e+00
  TP4d SP3dq  1 3.650000e-01    3.100000e+00
  TP6d SP4dq  1 3.650000e-01    3.640000e+00
  TP5d SP4dq  1 3.650000e-01    3.370000e+00
  TP6d SP5dq  1 3.650000e-01    3.930000e+00
  TP6q SP6dq  1 3.650000e-01    4.510000e+00
  TP6q SP5dq  1 3.650000e-01    4.220000e+00
  TP6q SP4dq  1 3.650000e-01    3.930000e+00
  TP6q SP3dq  1 3.650000e-01    3.640000e+00
  TP6q SP2dq  1 3.650000e-01    3.640000e+00
  TP6q SP1dq  1 3.650000e-01    3.370000e+00
  TP6q SN6dq  1 3.650000e-01    3.100000e+00
  TP6q SN5dq  1 3.650000e-01    2.570000e+00
  TP6q SN4dq  1 3.650000e-01    2.340000e+00
  TP6q SN3dq  1 3.650000e-01    2.110000e+00
  TP6q SN2dq  1 3.650000e-01    1.910000e+00
  TP6q SN1dq  1 3.650000e-01    1.750000e+00
  TP6q SP6aq  1 3.650000e-01    4.510000e+00
  TP6q SP5aq  1 3.650000e-01    4.220000e+00
  TP6q SP4aq  1 3.650000e-01    3.930000e+00
  TP6q SP3aq  1 3.650000e-01    3.640000e+00
  TP6q SP2aq  1 3.650000e-01    3.640000e+00
  TP6q SP1aq  1 3.650000e-01    3.370000e+00
  TP6q SN6aq  1 3.650000e-01    3.100000e+00
  TP6q SN5aq  1 3.650000e-01    2.570000e+00
  TP6q SN4aq  1 3.650000e-01    2.340000e+00
  TP6q SN3aq  1 3.650000e-01    2.110000e+00
  TP6q SN2aq  1 3.650000e-01    1.910000e+00
  TP6q SN1aq  1 3.650000e-01    1.750000e+00
  TP6q SC6vq  1 3.650000e-01    1.910000e+00
  TP6q SC5vq  1 3.650000e-01    1.750000e+00
  TP6q SC4vq  1 3.660000e-01    1.600000e+00
  TP6q SC3vq  1 3.780000e-01    1.450000e+00
  TP6q SC2vq  1 3.780000e-01    1.450000e+00
  TP6q SC1vq  1 4.040000e-01    1.130000e+00
  TP6q SX4vq  1 3.650000e-01    2.110000e+00
  TP6q SX3vq  1 3.650000e-01    2.110000e+00
  TP6q SX2vq  1 3.650000e-01    1.910000e+00
  TP6q SX1vq  1 3.650000e-01    1.750000e+00
  TP6q SC6eq  1 3.650000e-01    1.910000e+00
  TP6q SC5eq  1 3.650000e-01    1.750000e+00
  TP6q SC4eq  1 3.660000e-01    1.600000e+00
  TP6q SC3eq  1 3.780000e-01    1.450000e+00
  TP6q SC2eq  1 3.780000e-01    1.450000e+00
  TP6q SC1eq  1 4.040000e-01    1.130000e+00
  TP6q SX4eq  1 3.650000e-01    2.110000e+00
  TP6q SX3eq  1 3.650000e-01    2.110000e+00
  TP6q SX2eq  1 3.650000e-01    1.910000e+00
  TP6q SX1eq  1 3.650000e-01    1.750000e+00
  TP5q SP5dq  1 3.650000e-01    3.930000e+00
  TP5q SP4dq  1 3.650000e-01    3.640000e+00
  TP5q SP3dq  1 3.650000e-01    3.370000e+00
  TP5q SP2dq  1 3.650000e-01    3.370000e+00
  TP5q SP1dq  1 3.650000e-01    3.100000e+00
  TP5q SN6dq  1 3.650000e-01    2.830000e+00
  TP5q SN5dq  1 3.650000e-01    2.570000e+00
  TP5q SN4dq  1 3.650000e-01    2.570000e+00
  TP5q SN3dq  1 3.650000e-01    2.110000e+00
  TP5q SN2dq  1 3.650000e-01    1.910000e+00
  TP5q SN1dq  1 3.650000e-01    1.750000e+00
  TP5q SP5aq  1 3.650000e-01    3.930000e+00
  TP5q SP4aq  1 3.650000e-01    3.640000e+00
  TP5q SP3aq  1 3.650000e-01    3.370000e+00
  TP5q SP2aq  1 3.650000e-01    3.370000e+00
  TP5q SP1aq  1 3.650000e-01    3.100000e+00
  TP5q SN6aq  1 3.650000e-01    2.830000e+00
  TP5q SN5aq  1 3.650000e-01    2.570000e+00
  TP5q SN4aq  1 3.650000e-01    2.570000e+00
  TP5q SN3aq  1 3.650000e-01    2.110000e+00
  TP5q SN2aq  1 3.650000e-01    1.910000e+00
  TP5q SN1aq  1 3.650000e-01    1.750000e+00
  TP5q SC6vq  1 3.650000e-01    1.910000e+00
  TP5q SC5vq  1 3.650000e-01    1.910000e+00
  TP5q SC4vq  1 3.650000e-01    1.750000e+00
  TP5q SC3vq  1 3.660000e-01    1.600000e+00
  TP5q SC2vq  1 3.660000e-01    1.600000e+00
  TP5q SC1vq  1 3.780000e-01    1.450000e+00
  TP5q SX4vq  1 3.650000e-01    2.340000e+00
  TP5q SX3vq  1 3.650000e-01    2.110000e+00
  TP5q SX2vq  1 3.650000e-01    2.110000e+00
  TP5q SX1vq  1 3.650000e-01    1.750000e+00
  TP5q SC6eq  1 3.650000e-01    1.910000e+00
  TP5q SC5eq  1 3.650000e-01    1.910000e+00
  TP5q SC4eq  1 3.650000e-01    1.750000e+00
  TP5q SC3eq  1 3.660000e-01    1.600000e+00
  TP5q SC2eq  1 3.660000e-01    1.600000e+00
  TP5q SC1eq  1 3.780000e-01    1.450000e+00
  TP5q SX4eq  1 3.650000e-01    2.340000e+00
  TP5q SX3eq  1 3.650000e-01    2.110000e+00
  TP5q SX2eq  1 3.650000e-01    2.110000e+00
  TP5q SX1eq  1 3.650000e-01    1.750000e+00
  TP4q SP4dq  1 3.650000e-01    3.640000e+00
  TP4q SP3dq  1 3.650000e-01    3.370000e+00
  TP4q SP2dq  1 3.650000e-01    3.370000e+00
  TP4q SP1dq  1 3.650000e-01    3.100000e+00
  TP4q SN6dq  1 3.650000e-01    2.830000e+00
  TP4q SN5dq  1 3.650000e-01    2.570000e+00
  TP4q SN4dq  1 3.650000e-01    2.570000e+00
  TP4q SN3dq  1 3.650000e-01    2.340000e+00
  TP4q SN2dq  1 3.650000e-01    2.110000e+00
  TP4q SN1dq  1 3.650000e-01    1.910000e+00
  TP4q SP4aq  1 3.650000e-01    3.640000e+00
  TP4q SP3aq  1 3.650000e-01    3.370000e+00
  TP4q SP2aq  1 3.650000e-01    3.370000e+00
  TP4q SP1aq  1 3.650000e-01    3.100000e+00
  TP4q SN6aq  1 3.650000e-01    2.830000e+00
  TP4q SN5aq  1 3.650000e-01    2.570000e+00
  TP4q SN4aq  1 3.650000e-01    2.570000e+00
  TP4q SN3aq  1 3.650000e-01    2.340000e+00
  TP4q SN2aq  1 3.650000e-01    2.110000e+00
  TP4q SN1aq  1 3.650000e-01    1.910000e+00
  TP4q SC6vq  1 3.650000e-01    2.110000e+00
  TP4q SC5vq  1 3.650000e-01    1.910000e+00
  TP4q SC4vq  1 3.650000e-01    1.750000e+00
  TP4q SC3vq  1 3.660000e-01    1.600000e+00
  TP4q SC2vq  1 3.660000e-01    1.600000e+00
  TP4q SC1vq  1 3.780000e-01    1.450000e+00
  TP4q SX4vq  1 3.650000e-01    2.340000e+00
  TP4q SX3vq  1 3.650000e-01    2.110000e+00
  TP4q SX2vq  1 3.650000e-01    2.110000e+00
  TP4q SX1vq  1 3.650000e-01    1.910000e+00
  TP4q SC6eq  1 3.650000e-01    2.110000e+00
  TP4q SC5eq  1 3.650000e-01    1.910000e+00
  TP4q SC4eq  1 3.650000e-01    1.750000e+00
  TP4q SC3eq  1 3.660000e-01    1.600000e+00
  TP4q SC2eq  1 3.660000e-01    1.600000e+00
  TP4q SC1eq  1 3.780000e-01    1.450000e+00
  TP4q SX4eq  1 3.650000e-01    2.340000e+00
  TP4q SX3eq  1 3.650000e-01    2.110000e+00
  TP4q SX2eq  1 3.650000e-01    2.110000e+00
  TP4q SX1eq  1 3.650000e-01    1.910000e+00
  TP3q SP3dq  1 3.650000e-01    3.370000e+00
  TP3q SP2dq  1 3.650000e-01    3.370000e+00
  TP3q SP1dq  1 3.650000e-01    3.100000e+00
  TP3q SN6dq  1 3.650000e-01    2.830000e+00
  TP3q SN5dq  1 3.650000e-01    2.570000e+00
  TP3q SN4dq  1 3.650000e-01    2.570000e+00
  TP3q SN3dq  1 3.650000e-01    2.340000e+00
  TP3q SN2dq  1 3.650000e-01    2.340000e+00
  TP3q SN1dq  1 3.650000e-01    2.110000e+00
  TP3q SP3aq  1 3.650000e-01    3.370000e+00
  TP3q SP2aq  1 3.650000e-01    3.370000e+00
  TP3q SP1aq  1 3.650000e-01    3.100000e+00
  TP3q SN6aq  1 3.650000e-01    2.830000e+00
  TP3q SN5aq  1 3.650000e-01    2.570000e+00
  TP3q SN4aq  1 3.650000e-01    2.570000e+00
  TP3q SN3aq  1 3.650000e-01    2.340000e+00
  TP3q SN2aq  1 3.650000e-01    2.340000e+00
  TP3q SN1aq  1 3.650000e-01    2.110000e+00
  TP3q SC6vq  1 3.650000e-01    2.340000e+00
  TP3q SC5vq  1 3.650000e-01    2.110000e+00
  TP3q SC4vq  1 3.650000e-01    1.910000e+00
  TP3q SC3vq  1 3.660000e-01    1.600000e+00
  TP3q SC2vq  1 3.660000e-01    1.600000e+00
  TP3q SC1vq  1 3.780000e-01    1.450000e+00
  TP3q SX4vq  1 3.650000e-01    2.340000e+00
  TP3q SX3vq  1 3.650000e-01    2.340000e+00
  TP3q SX2vq  1 3.650000e-01    2.110000e+00
  TP3q SX1vq  1 3.650000e-01    1.910000e+00
  TP3q SC6eq  1 3.650000e-01    2.340000e+00
  TP3q SC5eq  1 3.650000e-01    2.110000e+00
  TP3q SC4eq  1 3.650000e-01    1.910000e+00
  TP3q SC3eq  1 3.660000e-01    1.600000e+00
  TP3q SC2eq  1 3.660000e-01    1.600000e+00
  TP3q SC1eq  1 3.780000e-01    1.450000e+00
  TP3q SX4eq  1 3.650000e-01    2.340000e+00
  TP3q SX3eq  1 3.650000e-01    2.340000e+00
  TP3q SX2eq  1 3.650000e-01    2.110000e+00
  TP3q SX1eq  1 3.650000e-01    1.910000e+00
  TP2q SP2dq  1 3.650000e-01    3.370000e+00
  TP2q SP1dq  1 3.650000e-01    3.100000e+00
  TP2q SN6dq  1 3.650000e-01    3.100000e+00
  TP2q SN5dq  1 3.650000e-01    2.830000e+00
  TP2q SN4dq  1 3.650000e-01    2.570000e+00
  TP2q SN3dq  1 3.650000e-01    2.340000e+00
  TP2q SN2dq  1 3.650000e-01    2.340000e+00
  TP2q SN1dq  1 3.650000e-01    2.340000e+00
  TP2q SP2aq  1 3.650000e-01    3.370000e+00
  TP2q SP1aq  1 3.650000e-01    3.100000e+00
  TP2q SN6aq  1 3.650000e-01    3.100000e+00
  TP2q SN5aq  1 3.650000e-01    2.830000e+00
  TP2q SN4aq  1 3.650000e-01    2.570000e+00
  TP2q SN3aq  1 3.650000e-01    2.340000e+00
  TP2q SN2aq  1 3.650000e-01    2.340000e+00
  TP2q SN1aq  1 3.650000e-01    2.340000e+00
  TP2q SC6vq  1 3.650000e-01    2.340000e+00
  TP2q SC5vq  1 3.650000e-01    2.110000e+00
  TP2q SC4vq  1 3.650000e-01    1.910000e+00
  TP2q SC3vq  1 3.650000e-01    1.750000e+00
  TP2q SC2vq  1 3.650000e-01    1.750000e+00
  TP2q SC1vq  1 3.660000e-01    1.600000e+00
  TP2q SX4vq  1 3.650000e-01    2.340000e+00
  TP2q SX3vq  1 3.650000e-01    2.340000e+00
  TP2q SX2vq  1 3.650000e-01    2.110000e+00
  TP2q SX1vq  1 3.650000e-01    1.910000e+00
  TP2q SC6eq  1 3.650000e-01    2.340000e+00
  TP2q SC5eq  1 3.650000e-01    2.110000e+00
  TP2q SC4eq  1 3.650000e-01    1.910000e+00
  TP2q SC3eq  1 3.650000e-01    1.750000e+00
  TP2q SC2eq  1 3.650000e-01    1.750000e+00
  TP2q SC1eq  1 3.660000e-01    1.600000e+00
  TP2q SX4eq  1 3.650000e-01    2.340000e+00
  TP2q SX3eq  1 3.650000e-01    2.340000e+00
  TP2q SX2eq  1 3.650000e-01    2.110000e+00
  TP2q SX1eq  1 3.650000e-01    1.910000e+00
  TP1q SP1dq  1 3.650000e-01    3.100000e+00
  TP1q SN6dq  1 3.650000e-01    3.100000e+00
  TP1q SN5dq  1 3.650000e-01    2.830000e+00
  TP1q SN4dq  1 3.650000e-01    2.830000e+00
  TP1q SN3dq  1 3.650000e-01    2.340000e+00
  TP1q SN2dq  1 3.650000e-01    2.340000e+00
  TP1q SN1dq  1 3.650000e-01    2.340000e+00
  TP1q SP1aq  1 3.650000e-01    3.100000e+00
  TP1q SN6aq  1 3.650000e-01    3.100000e+00
  TP1q SN5aq  1 3.650000e-01    2.830000e+00
  TP1q SN4aq  1 3.650000e-01    2.830000e+00
  TP1q SN3aq  1 3.650000e-01    2.340000e+00
  TP1q SN2aq  1 3.650000e-01    2.340000e+00
  TP1q SN1aq  1 3.650000e-01    2.340000e+00
  TP1q SC6vq  1 3.650000e-01    2.340000e+00
  TP1q SC5vq  1 3.650000e-01    2.110000e+00
  TP1q SC4vq  1 3.650000e-01    1.910000e+00
  TP1q SC3vq  1 3.650000e-01    1.750000e+00
  TP1q SC2vq  1 3.650000e-01    1.750000e+00
  TP1q SC1vq  1 3.660000e-01    1.600000e+00
  TP1q SX4vq  1 3.650000e-01    2.340000e+00
  TP1q SX3vq  1 3.650000e-01    2.340000e+00
  TP1q SX2vq  1 3.650000e-01    2.110000e+00
  TP1q SX1vq  1 3.650000e-01    1.910000e+00
  TP1q SC6eq  1 3.650000e-01    2.340000e+00
  TP1q SC5eq  1 3.650000e-01    2.110000e+00
  TP1q SC4eq  1 3.650000e-01    1.910000e+00
  TP1q SC3eq  1 3.650000e-01    1.750000e+00
  TP1q SC2eq  1 3.650000e-01    1.750000e+00
  TP1q SC1eq  1 3.660000e-01    1.600000e+00
  TP1q SX4eq  1 3.650000e-01    2.340000e+00
  TP1q SX3eq  1 3.650000e-01    2.340000e+00
  TP1q SX2eq  1 3.650000e-01    2.110000e+00
  TP1q SX1eq  1 3.650000e-01    1.910000e+00
  TN6q SN6dq  1 3.650000e-01    3.100000e+00
  TN6q SN5dq  1 3.650000e-01    3.100000e+00
  TN6q SN4dq  1 3.650000e-01    3.100000e+00
  TN6q SN3dq  1 3.650000e-01    2.570000e+00
  TN6q SN2dq  1 3.650000e-01    2.340000e+00
  TN6q SN1dq  1 3.650000e-01    2.340000e+00
  TN6q SN6aq  1 3.650000e-01    3.100000e+00
  TN6q SN5aq  1 3.650000e-01    3.100000e+00
  TN6q SN4aq  1 3.650000e-01    3.100000e+00
  TN6q SN3aq  1 3.650000e-01    2.570000e+00
  TN6q SN2aq  1 3.650000e-01    2.340000e+00
  TN6q SN1aq  1 3.650000e-01    2.340000e+00
  TN6q SC6vq  1 3.650000e-01    2.570000e+00
  TN6q SC5vq  1 3.650000e-01    2.340000e+00
  TN6q SC4vq  1 3.650000e-01    2.110000e+00
  TN6q SC3vq  1 3.650000e-01    1.910000e+00
  TN6q SC2vq  1 3.650000e-01    1.910000e+00
  TN6q SC1vq  1 3.650000e-01    1.750000e+00
  TN6q SX4vq  1 3.650000e-01    2.570000e+00
  TN6q SX3vq  1 3.650000e-01    2.340000e+00
  TN6q SX2vq  1 3.650000e-01    2.110000e+00
  TN6q SX1vq  1 3.650000e-01    1.910000e+00
  TN6q SC6eq  1 3.650000e-01    2.570000e+00
  TN6q SC5eq  1 3.650000e-01    2.340000e+00
  TN6q SC4eq  1 3.650000e-01    2.110000e+00
  TN6q SC3eq  1 3.650000e-01    1.910000e+00
  TN6q SC2eq  1 3.650000e-01    1.910000e+00
  TN6q SC1eq  1 3.650000e-01    1.750000e+00
  TN6q SX4eq  1 3.650000e-01    2.570000e+00
  TN6q SX3eq  1 3.650000e-01    2.340000e+00
  TN6q SX2eq  1 3.650000e-01    2.110000e+00
  TN6q SX1eq  1 3.650000e-01    1.910000e+00
  TN5q SN5dq  1 3.650000e-01    2.830000e+00
  TN5q SN4dq  1 3.650000e-01    2.830000e+00
  TN5q SN3dq  1 3.650000e-01    2.570000e+00
  TN5q SN2dq  1 3.650000e-01    2.570000e+00
  TN5q SN1dq  1 3.650000e-01    2.340000e+00
  TN5q SN5aq  1 3.650000e-01    2.830000e+00
  TN5q SN4aq  1 3.650000e-01    2.830000e+00
  TN5q SN3aq  1 3.650000e-01    2.570000e+00
  TN5q SN2aq  1 3.650000e-01    2.570000e+00
  TN5q SN1aq  1 3.650000e-01    2.340000e+00
  TN5q SC6vq  1 3.650000e-01    2.570000e+00
  TN5q SC5vq  1 3.650000e-01    2.340000e+00
  TN5q SC4vq  1 3.650000e-01    2.110000e+00
  TN5q SC3vq  1 3.650000e-01    2.110000e+00
  TN5q SC2vq  1 3.650000e-01    1.910000e+00
  TN5q SC1vq  1 3.650000e-01    1.750000e+00
  TN5q SX4vq  1 3.650000e-01    2.830000e+00
  TN5q SX3vq  1 3.650000e-01    2.570000e+00
  TN5q SX2vq  1 3.650000e-01    2.340000e+00
  TN5q SX1vq  1 3.650000e-01    2.110000e+00
  TN5q SC6eq  1 3.650000e-01    2.570000e+00
  TN5q SC5eq  1 3.650000e-01    2.340000e+00
  TN5q SC4eq  1 3.650000e-01    2.110000e+00
  TN5q SC3eq  1 3.650000e-01    2.110000e+00
  TN5q SC2eq  1 3.650000e-01    1.910000e+00
  TN5q SC1eq  1 3.650000e-01    1.750000e+00
  TN5q SX4eq  1 3.650000e-01    2.830000e+00
  TN5q SX3eq  1 3.650000e-01    2.570000e+00
  TN5q SX2eq  1 3.650000e-01    2.340000e+00
  TN5q SX1eq  1 3.650000e-01    2.110000e+00
  TN4q SN4dq  1 3.650000e-01    2.830000e+00
  TN4q SN3dq  1 3.650000e-01    2.570000e+00
  TN4q SN2dq  1 3.650000e-01    2.570000e+00
  TN4q SN1dq  1 3.650000e-01    2.340000e+00
  TN4q SN4aq  1 3.650000e-01    2.830000e+00
  TN4q SN3aq  1 3.650000e-01    2.570000e+00
  TN4q SN2aq  1 3.650000e-01    2.570000e+00
  TN4q SN1aq  1 3.650000e-01    2.340000e+00
  TN4q SC6vq  1 3.650000e-01    2.570000e+00
  TN4q SC5vq  1 3.650000e-01    2.340000e+00
  TN4q SC4vq  1 3.650000e-01    2.340000e+00
  TN4q SC3vq  1 3.650000e-01    2.110000e+00
  TN4q SC2vq  1 3.650000e-01    1.910000e+00
  TN4q SC1vq  1 3.650000e-01    1.750000e+00
  TN4q SX4vq  1 3.650000e-01    3.100000e+00
  TN4q SX3vq  1 3.650000e-01    2.830000e+00
  TN4q SX2vq  1 3.650000e-01    2.340000e+00
  TN4q SX1vq  1 3.650000e-01    2.110000e+00
  TN4q SC6eq  1 3.650000e-01    2.570000e+00
  TN4q SC5eq  1 3.650000e-01    2.340000e+00
  TN4q SC4eq  1 3.650000e-01    2.340000e+00
  TN4q SC3eq  1 3.650000e-01    2.110000e+00
  TN4q SC2eq  1 3.650000e-01    1.910000e+00
  TN4q SC1eq  1 3.650000e-01    1.750000e+00
  TN4q SX4eq  1 3.650000e-01    3.100000e+00
  TN4q SX3eq  1 3.650000e-01    2.830000e+00
  TN4q SX2eq  1 3.650000e-01    2.340000e+00
  TN4q SX1eq  1 3.650000e-01    2.110000e+00
  TN3q SN3dq  1 3.650000e-01    2.570000e+00
  TN3q SN2dq  1 3.650000e-01    2.570000e+00
  TN3q SN1dq  1 3.650000e-01    2.340000e+00
  TN3q SN3aq  1 3.650000e-01    2.570000e+00
  TN3q SN2aq  1 3.650000e-01    2.570000e+00
  TN3q SN1aq  1 3.650000e-01    2.340000e+00
  TN3q SC6vq  1 3.650000e-01    2.570000e+00
  TN3q SC5vq  1 3.650000e-01    2.340000e+00
  TN3q SC4vq  1 3.650000e-01    2.340000e+00
  TN3q SC3vq  1 3.650000e-01    2.110000e+00
  TN3q SC2vq  1 3.650000e-01    2.110000e+00
  TN3q SC1vq  1 3.650000e-01    1.910000e+00
  TN3q SX4vq  1 3.650000e-01    2.830000e+00
  TN3q SX3vq  1 3.650000e-01    2.570000e+00
  TN3q SX2vq  1 3.650000e-01    2.340000e+00
  TN3q SX1vq  1 3.650000e-01    2.340000e+00
  TN3q SC6eq  1 3.650000e-01    2.570000e+00
  TN3q SC5eq  1 3.650000e-01    2.340000e+00
  TN3q SC4eq  1 3.650000e-01    2.340000e+00
  TN3q SC3eq  1 3.650000e-01    2.110000e+00
  TN3q SC2eq  1 3.650000e-01    2.110000e+00
  TN3q SC1eq  1 3.650000e-01    1.910000e+00
  TN3q SX4eq  1 3.650000e-01    2.830000e+00
  TN3q SX3eq  1 3.650000e-01    2.570000e+00
  TN3q SX2eq  1 3.650000e-01    2.340000e+00
  TN3q SX1eq  1 3.650000e-01    2.340000e+00
  TN2q SN2dq  1 3.650000e-01    2.570000e+00
  TN2q SN1dq  1 3.650000e-01    2.340000e+00
  TN2q SN2aq  1 3.650000e-01    2.570000e+00
  TN2q SN1aq  1 3.650000e-01    2.340000e+00
  TN2q SC6vq  1 3.650000e-01    2.570000e+00
  TN2q SC5vq  1 3.650000e-01    2.340000e+00
  TN2q SC4vq  1 3.650000e-01    2.340000e+00
  TN2q SC3vq  1 3.650000e-01    2.340000e+00
  TN2q SC2vq  1 3.650000e-01    2.110000e+00
  TN2q SC1vq  1 3.650000e-01    1.910000e+00
  TN2q SX4vq  1 3.650000e-01    2.830000e+00
  TN2q SX3vq  1 3.650000e-01    2.570000e+00
  TN2q SX2vq  1 3.650000e-01    2.340000e+00
  TN2q SX1vq  1 3.650000e-01    2.340000e+00
  TN2q SC6eq  1 3.650000e-01    2.570000e+00
  TN2q SC5eq  1 3.650000e-01    2.340000e+00
  TN2q SC4eq  1 3.650000e-01    2.340000e+00
  TN2q SC3eq  1 3.650000e-01    2.340000e+00
  TN2q SC2eq  1 3.650000e-01    2.110000e+00
  TN2q SC1eq  1 3.650000e-01    1.910000e+00
  TN2q SX4eq  1 3.650000e-01    2.830000e+00
  TN2q SX3eq  1 3.650000e-01    2.570000e+00
  TN2q SX2eq  1 3.650000e-01    2.340000e+00
  TN2q SX1eq  1 3.650000e-01    2.340000e+00
  TN1q SN1dq  1 3.650000e-01    2.570000e+00
  TN1q SN1aq  1 3.650000e-01    2.570000e+00
  TN1q SC6vq  1 3.650000e-01    2.830000e+00
  TN1q SC5vq  1 3.650000e-01    2.570000e+00
  TN1q SC4vq  1 3.650000e-01    2.570000e+00
  TN1q SC3vq  1 3.650000e-01    2.340000e+00
  TN1q SC2vq  1 3.650000e-01    2.110000e+00
  TN1q SC1vq  1 3.650000e-01    1.910000e+00
  TN1q SX4vq  1 3.650000e-01    2.570000e+00
  TN1q SX3vq  1 3.650000e-01    2.570000e+00
  TN1q SX2vq  1 3.650000e-01    2.340000e+00
  TN1q SX1vq  1 3.650000e-01    2.340000e+00
  TN1q SC6eq  1 3.650000e-01    2.830000e+00
  TN1q SC5eq  1 3.650000e-01    2.570000e+00
  TN1q SC4eq  1 3.650000e-01    2.570000e+00
  TN1q SC3eq  1 3.650000e-01    2.340000e+00
  TN1q SC2eq  1 3.650000e-01    2.110000e+00
  TN1q SC1eq  1 3.650000e-01    1.910000e+00
  TN1q SX4eq  1 3.650000e-01    2.570000e+00
  TN1q SX3eq  1 3.650000e-01    2.570000e+00
  TN1q SX2eq  1 3.650000e-01    2.340000e+00
  TN1q SX1eq  1 3.650000e-01    2.340000e+00
  TC6q SC6vq  1 3.650000e-01    2.830000e+00
  TC6q SC5vq  1 3.650000e-01    2.570000e+00
  TC6q SC4vq  1 3.650000e-01    2.570000e+00
  TC6q SC3vq  1 3.650000e-01    2.340000e+00
  TC6q SC2vq  1 3.650000e-01    2.110000e+00
  TC6q SC1vq  1 3.650000e-01    1.910000e+00
  TC6q SX4vq  1 3.650000e-01    2.570000e+00
  TC6q SX3vq  1 3.650000e-01    2.570000e+00
  TC6q SX2vq  1 3.650000e-01    2.570000e+00
  TC6q SX1vq  1 3.650000e-01    2.570000e+00
  TC6q SC6eq  1 3.650000e-01    2.830000e+00
  TC6q SC5eq  1 3.650000e-01    2.570000e+00
  TC6q SC4eq  1 3.650000e-01    2.570000e+00
  TC6q SC3eq  1 3.650000e-01    2.340000e+00
  TC6q SC2eq  1 3.650000e-01    2.110000e+00
  TC6q SC1eq  1 3.650000e-01    1.910000e+00
  TC6q SX4eq  1 3.650000e-01    2.570000e+00
  TC6q SX3eq  1 3.650000e-01    2.570000e+00
  TC6q SX2eq  1 3.650000e-01    2.570000e+00
  TC6q SX1eq  1 3.650000e-01    2.570000e+00
  TC5q SC5vq  1 3.650000e-01    2.570000e+00
  TC5q SC4vq  1 3.650000e-01    2.570000e+00
  TC5q SC3vq  1 3.650000e-01    2.340000e+00
  TC5q SC2vq  1 3.650000e-01    2.110000e+00
  TC5q SC1vq  1 3.650000e-01    2.110000e+00
  TC5q SX4vq  1 3.650000e-01    2.340000e+00
  TC5q SX3vq  1 3.650000e-01    2.340000e+00
  TC5q SX2vq  1 3.650000e-01    2.340000e+00
  TC5q SX1vq  1 3.650000e-01    2.570000e+00
  TC5q SC5eq  1 3.650000e-01    2.570000e+00
  TC5q SC4eq  1 3.650000e-01    2.570000e+00
  TC5q SC3eq  1 3.650000e-01    2.340000e+00
  TC5q SC2eq  1 3.650000e-01    2.110000e+00
  TC5q SC1eq  1 3.650000e-01    2.110000e+00
  TC5q SX4eq  1 3.650000e-01    2.340000e+00
  TC5q SX3eq  1 3.650000e-01    2.340000e+00
  TC5q SX2eq  1 3.650000e-01    2.340000e+00
  TC5q SX1eq  1 3.650000e-01    2.570000e+00
  TC4q SC4vq  1 3.650000e-01    2.570000e+00
  TC4q SC3vq  1 3.650000e-01    2.570000e+00
  TC4q SC2vq  1 3.650000e-01    2.340000e+00
  TC4q SC1vq  1 3.650000e-01    2.110000e+00
  TC4q SX4vq  1 3.650000e-01    2.340000e+00
  TC4q SX3vq  1 3.650000e-01    2.340000e+00
  TC4q SX2vq  1 3.650000e-01    2.340000e+00
  TC4q SX1vq  1 3.650000e-01    2.570000e+00
  TC4q SC4eq  1 3.650000e-01    2.570000e+00
  TC4q SC3eq  1 3.650000e-01    2.570000e+00
  TC4q SC2eq  1 3.650000e-01    2.340000e+00
  TC4q SC1eq  1 3.650000e-01    2.110000e+00
  TC4q SX4eq  1 3.650000e-01    2.340000e+00
  TC4q SX3eq  1 3.650000e-01    2.340000e+00
  TC4q SX2eq  1 3.650000e-01    2.340000e+00
  TC4q SX1eq  1 3.650000e-01    2.570000e+00
  TC3q SC3vq  1 3.650000e-01    2.570000e+00
  TC3q SC2vq  1 3.650000e-01    2.570000e+00
  TC3q SC1vq  1 3.650000e-01    2.570000e+00
  TC3q SX4vq  1 3.650000e-01    2.340000e+00
  TC3q SX3vq  1 3.650000e-01    2.340000e+00
  TC3q SX2vq  1 3.650000e-01    2.340000e+00
  TC3q SX1vq  1 3.650000e-01    2.570000e+00
  TC3q SC3eq  1 3.650000e-01    2.570000e+00
  TC3q SC2eq  1 3.650000e-01    2.570000e+00
  TC3q SC1eq  1 3.650000e-01    2.570000e+00
  TC3q SX4eq  1 3.650000e-01    2.340000e+00
  TC3q SX3eq  1 3.650000e-01    2.340000e+00
  TC3q SX2eq  1 3.650000e-01    2.340000e+00
  TC3q SX1eq  1 3.650000e-01    2.570000e+00
  TC2q SC2vq  1 3.650000e-01    2.570000e+00
  TC2q SC1vq  1 3.650000e-01    2.830000e+00
  TC2q SX4vq  1 3.650000e-01    1.910000e+00
  TC2q SX3vq  1 3.650000e-01    2.340000e+00
  TC2q SX2vq  1 3.650000e-01    2.340000e+00
  TC2q SX1vq  1 3.650000e-01    2.340000e+00
  TC2q SC2eq  1 3.650000e-01    2.570000e+00
  TC2q SC1eq  1 3.650000e-01    2.830000e+00
  TC2q SX4eq  1 3.650000e-01    1.910000e+00
  TC2q SX3eq  1 3.650000e-01    2.340000e+00
  TC2q SX2eq  1 3.650000e-01    2.340000e+00
  TC2q SX1eq  1 3.650000e-01    2.340000e+00
  TC1q SC1vq  1 3.650000e-01    2.570000e+00
  TC1q SX4vq  1 3.650000e-01    1.910000e+00
  TC1q SX3vq  1 3.650000e-01    2.340000e+00
  TC1q SX2vq  1 3.650000e-01    2.340000e+00
  TC1q SX1vq  1 3.650000e-01    2.340000e+00
  TC1q SC1eq  1 3.650000e-01    2.570000e+00
  TC1q SX4eq  1 3.650000e-01    1.910000e+00
  TC1q SX3eq  1 3.650000e-01    2.340000e+00
  TC1q SX2eq  1 3.650000e-01    2.340000e+00
  TC1q SX1eq  1 3.650000e-01    2.340000e+00
  TX4q SX4vq  1 3.650000e-01    2.570000e+00
  TX4q SX3vq  1 3.650000e-01    2.570000e+00
  TX4q SX2vq  1 3.650000e-01    2.570000e+00
  TX4q SX1vq  1 3.650000e-01    2.570000e+00
  TX4q SX4eq  1 3.650000e-01    2.570000e+00
  TX4q SX3eq  1 3.650000e-01    2.570000e+00
  TX4q SX2eq  1 3.650000e-01    2.570000e+00
  TX4q SX1eq  1 3.650000e-01    2.570000e+00
  TX3q SX3vq  1 3.650000e-01    2.570000e+00
  TX3q SX2vq  1 3.650000e-01    2.830000e+00
  TX3q SX1vq  1 3.650000e-01    2.830000e+00
  TX3q SX3eq  1 3.650000e-01    2.570000e+00
  TX3q SX2eq  1 3.650000e-01    2.830000e+00
  TX3q SX1eq  1 3.650000e-01    2.830000e+00
  TX2q SX2vq  1 3.650000e-01    2.830000e+00
  TX2q SX1vq  1 3.650000e-01    2.830000e+00
  TX2q SX2eq  1 3.650000e-01    2.830000e+00
  TX2q SX1eq  1 3.650000e-01    2.830000e+00
  TX1q SX1vq  1 3.650000e-01    3.100000e+00
  TX1q SX1eq  1 3.650000e-01    3.100000e+00
  TP6h SX1eq  1 3.650000e-01    1.750000e+00
  TP6h SX2eq  1 3.650000e-01    1.910000e+00
  TP6h SX3eq  1 3.650000e-01    2.110000e+00
  TP6h SX4eq  1 3.650000e-01    2.110000e+00
  TP6h SC1eq  1 4.040000e-01    1.130000e+00
  TP6h SC2eq  1 3.780000e-01    1.450000e+00
  TP6h SC3eq  1 3.780000e-01    1.450000e+00
  TP6h SC4eq  1 3.660000e-01    1.600000e+00
  TP6h SC5eq  1 3.650000e-01    1.750000e+00
  TP6h SC6eq  1 3.650000e-01    1.910000e+00
  TP6h SX1vq  1 3.650000e-01    1.750000e+00
  TP6h SX2vq  1 3.650000e-01    1.910000e+00
  TP6h SX3vq  1 3.650000e-01    2.110000e+00
  TP6h SX4vq  1 3.650000e-01    2.110000e+00
  TP6h SC1vq  1 4.040000e-01    1.130000e+00
  TP6h SC2vq  1 3.780000e-01    1.450000e+00
  TP6h SC3vq  1 3.780000e-01    1.450000e+00
  TP6h SC4vq  1 3.660000e-01    1.600000e+00
  TP6h SC5vq  1 3.650000e-01    1.750000e+00
  TP6h SC6vq  1 3.650000e-01    1.910000e+00
  TP6h SN1aq  1 3.650000e-01    1.750000e+00
  TP6h SN2aq  1 3.650000e-01    1.910000e+00
  TP6h SN3aq  1 3.650000e-01    2.110000e+00
  TP6h SN4aq  1 3.650000e-01    2.340000e+00
  TP6h SN5aq  1 3.650000e-01    2.570000e+00
  TP6h SN6aq  1 3.650000e-01    3.100000e+00
  TP6h SP1aq  1 3.650000e-01    3.370000e+00
  TP6h SP2aq  1 3.650000e-01    3.640000e+00
  TP6h SP3aq  1 3.650000e-01    3.640000e+00
  TP6h SP4aq  1 3.650000e-01    3.930000e+00
  TP6h SP5aq  1 3.650000e-01    4.220000e+00
  TP6h SP6aq  1 3.650000e-01    4.510000e+00
  TP6h SN1dq  1 3.650000e-01    1.750000e+00
  TP6h SN2dq  1 3.650000e-01    1.910000e+00
  TP6h SN3dq  1 3.650000e-01    2.110000e+00
  TP6h SN4dq  1 3.650000e-01    2.340000e+00
  TP6h SN5dq  1 3.650000e-01    2.570000e+00
  TP6h SN6dq  1 3.650000e-01    3.100000e+00
  TP6h SP1dq  1 3.650000e-01    3.370000e+00
  TP6h SP2dq  1 3.650000e-01    3.640000e+00
  TP6h SP3dq  1 3.650000e-01    3.640000e+00
  TP6h SP4dq  1 3.650000e-01    3.930000e+00
  TP6h SP5dq  1 3.650000e-01    4.220000e+00
  TP6h SP6dq  1 3.650000e-01    4.510000e+00
  TP5h SX1eq  1 3.650000e-01    1.750000e+00
  TP5h SX2eq  1 3.650000e-01    2.110000e+00
  TP5h SX3eq  1 3.650000e-01    2.110000e+00
  TP5h SX4eq  1 3.650000e-01    2.340000e+00
  TP5h SC1eq  1 3.780000e-01    1.450000e+00
  TP5h SC2eq  1 3.660000e-01    1.600000e+00
  TP5h SC3eq  1 3.660000e-01    1.600000e+00
  TP5h SC4eq  1 3.650000e-01    1.750000e+00
  TP5h SC5eq  1 3.650000e-01    1.910000e+00
  TP5h SC6eq  1 3.650000e-01    1.910000e+00
  TP5h SX1vq  1 3.650000e-01    1.750000e+00
  TP5h SX2vq  1 3.650000e-01    2.110000e+00
  TP5h SX3vq  1 3.650000e-01    2.110000e+00
  TP5h SX4vq  1 3.650000e-01    2.340000e+00
  TP5h SC1vq  1 3.780000e-01    1.450000e+00
  TP5h SC2vq  1 3.660000e-01    1.600000e+00
  TP5h SC3vq  1 3.660000e-01    1.600000e+00
  TP5h SC4vq  1 3.650000e-01    1.750000e+00
  TP5h SC5vq  1 3.650000e-01    1.910000e+00
  TP5h SC6vq  1 3.650000e-01    1.910000e+00
  TP5h SN1aq  1 3.650000e-01    1.750000e+00
  TP5h SN2aq  1 3.650000e-01    1.910000e+00
  TP5h SN3aq  1 3.650000e-01    2.110000e+00
  TP5h SN4aq  1 3.650000e-01    2.570000e+00
  TP5h SN5aq  1 3.650000e-01    2.570000e+00
  TP5h SN6aq  1 3.650000e-01    2.830000e+00
  TP5h SP1aq  1 3.650000e-01    3.100000e+00
  TP5h SP2aq  1 3.650000e-01    3.370000e+00
  TP5h SP3aq  1 3.650000e-01    3.370000e+00
  TP5h SP4aq  1 3.650000e-01    3.640000e+00
  TP5h SP5aq  1 3.650000e-01    3.930000e+00
  TP5h SN1dq  1 3.650000e-01    1.750000e+00
  TP5h SN2dq  1 3.650000e-01    1.910000e+00
  TP5h SN3dq  1 3.650000e-01    2.110000e+00
  TP5h SN4dq  1 3.650000e-01    2.570000e+00
  TP5h SN5dq  1 3.650000e-01    2.570000e+00
  TP5h SN6dq  1 3.650000e-01    2.830000e+00
  TP5h SP1dq  1 3.650000e-01    3.100000e+00
  TP5h SP2dq  1 3.650000e-01    3.370000e+00
  TP5h SP3dq  1 3.650000e-01    3.370000e+00
  TP5h SP4dq  1 3.650000e-01    3.640000e+00
  TP5h SP5dq  1 3.650000e-01    3.930000e+00
  TP4h SX1eq  1 3.650000e-01    1.910000e+00
  TP4h SX2eq  1 3.650000e-01    2.110000e+00
  TP4h SX3eq  1 3.650000e-01    2.110000e+00
  TP4h SX4eq  1 3.650000e-01    2.340000e+00
  TP4h SC1eq  1 3.780000e-01    1.450000e+00
  TP4h SC2eq  1 3.660000e-01    1.600000e+00
  TP4h SC3eq  1 3.660000e-01    1.600000e+00
  TP4h SC4eq  1 3.650000e-01    1.750000e+00
  TP4h SC5eq  1 3.650000e-01    1.910000e+00
  TP4h SC6eq  1 3.650000e-01    2.110000e+00
  TP4h SX1vq  1 3.650000e-01    1.910000e+00
  TP4h SX2vq  1 3.650000e-01    2.110000e+00
  TP4h SX3vq  1 3.650000e-01    2.110000e+00
  TP4h SX4vq  1 3.650000e-01    2.340000e+00
  TP4h SC1vq  1 3.780000e-01    1.450000e+00
  TP4h SC2vq  1 3.660000e-01    1.600000e+00
  TP4h SC3vq  1 3.660000e-01    1.600000e+00
  TP4h SC4vq  1 3.650000e-01    1.750000e+00
  TP4h SC5vq  1 3.650000e-01    1.910000e+00
  TP4h SC6vq  1 3.650000e-01    2.110000e+00
  TP4h SN1aq  1 3.650000e-01    1.910000e+00
  TP4h SN2aq  1 3.650000e-01    2.110000e+00
  TP4h SN3aq  1 3.650000e-01    2.340000e+00
  TP4h SN4aq  1 3.650000e-01    2.570000e+00
  TP4h SN5aq  1 3.650000e-01    2.570000e+00
  TP4h SN6aq  1 3.650000e-01    2.830000e+00
  TP4h SP1aq  1 3.650000e-01    3.100000e+00
  TP4h SP2aq  1 3.650000e-01    3.370000e+00
  TP4h SP3aq  1 3.650000e-01    3.370000e+00
  TP4h SP4aq  1 3.650000e-01    3.640000e+00
  TP4h SN1dq  1 3.650000e-01    1.910000e+00
  TP4h SN2dq  1 3.650000e-01    2.110000e+00
  TP4h SN3dq  1 3.650000e-01    2.340000e+00
  TP4h SN4dq  1 3.650000e-01    2.570000e+00
  TP4h SN5dq  1 3.650000e-01    2.570000e+00
  TP4h SN6dq  1 3.650000e-01    2.830000e+00
  TP4h SP1dq  1 3.650000e-01    3.100000e+00
  TP4h SP2dq  1 3.650000e-01    3.370000e+00
  TP4h SP3dq  1 3.650000e-01    3.370000e+00
  TP4h SP4dq  1 3.650000e-01    3.640000e+00
  TP3h SX1eq  1 3.650000e-01    1.910000e+00
  TP3h SX2eq  1 3.650000e-01    2.110000e+00
  TP3h SX3eq  1 3.650000e-01    2.340000e+00
  TP3h SX4eq  1 3.650000e-01    2.340000e+00
  TP3h SC1eq  1 3.780000e-01    1.450000e+00
  TP3h SC2eq  1 3.660000e-01    1.600000e+00
  TP3h SC3eq  1 3.660000e-01    1.600000e+00
  TP3h SC4eq  1 3.650000e-01    1.910000e+00
  TP3h SC5eq  1 3.650000e-01    2.110000e+00
  TP3h SC6eq  1 3.650000e-01    2.340000e+00
  TP3h SX1vq  1 3.650000e-01    1.910000e+00
  TP3h SX2vq  1 3.650000e-01    2.110000e+00
  TP3h SX3vq  1 3.650000e-01    2.340000e+00
  TP3h SX4vq  1 3.650000e-01    2.340000e+00
  TP3h SC1vq  1 3.780000e-01    1.450000e+00
  TP3h SC2vq  1 3.660000e-01    1.600000e+00
  TP3h SC3vq  1 3.660000e-01    1.600000e+00
  TP3h SC4vq  1 3.650000e-01    1.910000e+00
  TP3h SC5vq  1 3.650000e-01    2.110000e+00
  TP3h SC6vq  1 3.650000e-01    2.340000e+00
  TP3h SN1aq  1 3.650000e-01    2.110000e+00
  TP3h SN2aq  1 3.650000e-01    2.340000e+00
  TP3h SN3aq  1 3.650000e-01    2.340000e+00
  TP3h SN4aq  1 3.650000e-01    2.570000e+00
  TP3h SN5aq  1 3.650000e-01    2.570000e+00
  TP3h SN6aq  1 3.650000e-01    2.830000e+00
  TP3h SP1aq  1 3.650000e-01    3.100000e+00
  TP3h SP2aq  1 3.650000e-01    3.370000e+00
  TP3h SP3aq  1 3.650000e-01    3.370000e+00
  TP3h SN1dq  1 3.650000e-01    2.110000e+00
  TP3h SN2dq  1 3.650000e-01    2.340000e+00
  TP3h SN3dq  1 3.650000e-01    2.340000e+00
  TP3h SN4dq  1 3.650000e-01    2.570000e+00
  TP3h SN5dq  1 3.650000e-01    2.570000e+00
  TP3h SN6dq  1 3.650000e-01    2.830000e+00
  TP3h SP1dq  1 3.650000e-01    3.100000e+00
  TP3h SP2dq  1 3.650000e-01    3.370000e+00
  TP3h SP3dq  1 3.650000e-01    3.370000e+00
  TP2h SX1eq  1 3.650000e-01    1.910000e+00
  TP2h SX2eq  1 3.650000e-01    2.110000e+00
  TP2h SX3eq  1 3.650000e-01    2.340000e+00
  TP2h SX4eq  1 3.650000e-01    2.340000e+00
  TP2h SC1eq  1 3.660000e-01    1.600000e+00
  TP2h SC2eq  1 3.650000e-01    1.750000e+00
  TP2h SC3eq  1 3.650000e-01    1.750000e+00
  TP2h SC4eq  1 3.650000e-01    1.910000e+00
  TP2h SC5eq  1 3.650000e-01    2.110000e+00
  TP2h SC6eq  1 3.650000e-01    2.340000e+00
  TP2h SX1vq  1 3.650000e-01    1.910000e+00
  TP2h SX2vq  1 3.650000e-01    2.110000e+00
  TP2h SX3vq  1 3.650000e-01    2.340000e+00
  TP2h SX4vq  1 3.650000e-01    2.340000e+00
  TP2h SC1vq  1 3.660000e-01    1.600000e+00
  TP2h SC2vq  1 3.650000e-01    1.750000e+00
  TP2h SC3vq  1 3.650000e-01    1.750000e+00
  TP2h SC4vq  1 3.650000e-01    1.910000e+00
  TP2h SC5vq  1 3.650000e-01    2.110000e+00
  TP2h SC6vq  1 3.650000e-01    2.340000e+00
  TP2h SN1aq  1 3.650000e-01    2.340000e+00
  TP2h SN2aq  1 3.650000e-01    2.340000e+00
  TP2h SN3aq  1 3.650000e-01    2.340000e+00
  TP2h SN4aq  1 3.650000e-01    2.570000e+00
  TP2h SN5aq  1 3.650000e-01    2.830000e+00
  TP2h SN6aq  1 3.650000e-01    3.100000e+00
  TP2h SP1aq  1 3.650000e-01    3.100000e+00
  TP2h SP2aq  1 3.650000e-01    3.370000e+00
  TP2h SN1dq  1 3.650000e-01    2.340000e+00
  TP2h SN2dq  1 3.650000e-01    2.340000e+00
  TP2h SN3dq  1 3.650000e-01    2.340000e+00
  TP2h SN4dq  1 3.650000e-01    2.570000e+00
  TP2h SN5dq  1 3.650000e-01    2.830000e+00
  TP2h SN6dq  1 3.650000e-01    3.100000e+00
  TP2h SP1dq  1 3.650000e-01    3.100000e+00
  TP2h SP2dq  1 3.650000e-01    3.370000e+00
  TP1h SX1eq  1 3.650000e-01    1.910000e+00
  TP1h SX2eq  1 3.650000e-01    2.110000e+00
  TP1h SX3eq  1 3.650000e-01    2.340000e+00
  TP1h SX4eq  1 3.650000e-01    2.340000e+00
  TP1h SC1eq  1 3.660000e-01    1.600000e+00
  TP1h SC2eq  1 3.650000e-01    1.750000e+00
  TP1h SC3eq  1 3.650000e-01    1.750000e+00
  TP1h SC4eq  1 3.650000e-01    1.910000e+00
  TP1h SC5eq  1 3.650000e-01    2.110000e+00
  TP1h SC6eq  1 3.650000e-01    2.340000e+00
  TP1h SX1vq  1 3.650000e-01    1.910000e+00
  TP1h SX2vq  1 3.650000e-01    2.110000e+00
  TP1h SX3vq  1 3.650000e-01    2.340000e+00
  TP1h SX4vq  1 3.650000e-01    2.340000e+00
  TP1h SC1vq  1 3.660000e-01    1.600000e+00
  TP1h SC2vq  1 3.650000e-01    1.750000e+00
  TP1h SC3vq  1 3.650000e-01    1.750000e+00
  TP1h SC4vq  1 3.650000e-01    1.910000e+00
  TP1h SC5vq  1 3.650000e-01    2.110000e+00
  TP1h SC6vq  1 3.650000e-01    2.340000e+00
  TP1h SN1aq  1 3.650000e-01    2.340000e+00
  TP1h SN2aq  1 3.650000e-01    2.340000e+00
  TP1h SN3aq  1 3.650000e-01    2.340000e+00
  TP1h SN4aq  1 3.650000e-01    2.830000e+00
  TP1h SN5aq  1 3.650000e-01    2.830000e+00
  TP1h SN6aq  1 3.650000e-01    3.100000e+00
  TP1h SP1aq  1 3.650000e-01    3.100000e+00
  TP1h SN1dq  1 3.650000e-01    2.340000e+00
  TP1h SN2dq  1 3.650000e-01    2.340000e+00
  TP1h SN3dq  1 3.650000e-01    2.340000e+00
  TP1h SN4dq  1 3.650000e-01    2.830000e+00
  TP1h SN5dq  1 3.650000e-01    2.830000e+00
  TP1h SN6dq  1 3.650000e-01    3.100000e+00
  TP1h SP1dq  1 3.650000e-01    3.100000e+00
  TN6h SX1eq  1 3.650000e-01    1.910000e+00
  TN6h SX2eq  1 3.650000e-01    2.110000e+00
  TN6h SX3eq  1 3.650000e-01    2.340000e+00
  TN6h SX4eq  1 3.650000e-01    2.570000e+00
  TN6h SC1eq  1 3.650000e-01    1.750000e+00
  TN6h SC2eq  1 3.650000e-01    1.910000e+00
  TN6h SC3eq  1 3.650000e-01    1.910000e+00
  TN6h SC4eq  1 3.650000e-01    2.110000e+00
  TN6h SC5eq  1 3.650000e-01    2.340000e+00
  TN6h SC6eq  1 3.650000e-01    2.570000e+00
  TN6h SX1vq  1 3.650000e-01    1.910000e+00
  TN6h SX2vq  1 3.650000e-01    2.110000e+00
  TN6h SX3vq  1 3.650000e-01    2.340000e+00
  TN6h SX4vq  1 3.650000e-01    2.570000e+00
  TN6h SC1vq  1 3.650000e-01    1.750000e+00
  TN6h SC2vq  1 3.650000e-01    1.910000e+00
  TN6h SC3vq  1 3.650000e-01    1.910000e+00
  TN6h SC4vq  1 3.650000e-01    2.110000e+00
  TN6h SC5vq  1 3.650000e-01    2.340000e+00
  TN6h SC6vq  1 3.650000e-01    2.570000e+00
  TN6h SN1aq  1 3.650000e-01    2.340000e+00
  TN6h SN2aq  1 3.650000e-01    2.340000e+00
  TN6h SN3aq  1 3.650000e-01    2.570000e+00
  TN6h SN4aq  1 3.650000e-01    3.100000e+00
  TN6h SN5aq  1 3.650000e-01    3.100000e+00
  TN6h SN6aq  1 3.650000e-01    3.100000e+00
  TN6h SN1dq  1 3.650000e-01    2.340000e+00
  TN6h SN2dq  1 3.650000e-01    2.340000e+00
  TN6h SN3dq  1 3.650000e-01    2.570000e+00
  TN6h SN4dq  1 3.650000e-01    3.100000e+00
  TN6h SN5dq  1 3.650000e-01    3.100000e+00
  TN6h SN6dq  1 3.650000e-01    3.100000e+00
  TN5h SX1eq  1 3.650000e-01    2.110000e+00
  TN5h SX2eq  1 3.650000e-01    2.340000e+00
  TN5h SX3eq  1 3.650000e-01    2.570000e+00
  TN5h SX4eq  1 3.650000e-01    2.830000e+00
  TN5h SC1eq  1 3.650000e-01    1.750000e+00
  TN5h SC2eq  1 3.650000e-01    1.910000e+00
  TN5h SC3eq  1 3.650000e-01    2.110000e+00
  TN5h SC4eq  1 3.650000e-01    2.110000e+00
  TN5h SC5eq  1 3.650000e-01    2.340000e+00
  TN5h SC6eq  1 3.650000e-01    2.570000e+00
  TN5h SX1vq  1 3.650000e-01    2.110000e+00
  TN5h SX2vq  1 3.650000e-01    2.340000e+00
  TN5h SX3vq  1 3.650000e-01    2.570000e+00
  TN5h SX4vq  1 3.650000e-01    2.830000e+00
  TN5h SC1vq  1 3.650000e-01    1.750000e+00
  TN5h SC2vq  1 3.650000e-01    1.910000e+00
  TN5h SC3vq  1 3.650000e-01    2.110000e+00
  TN5h SC4vq  1 3.650000e-01    2.110000e+00
  TN5h SC5vq  1 3.650000e-01    2.340000e+00
  TN5h SC6vq  1 3.650000e-01    2.570000e+00
  TN5h SN1aq  1 3.650000e-01    2.340000e+00
  TN5h SN2aq  1 3.650000e-01    2.570000e+00
  TN5h SN3aq  1 3.650000e-01    2.570000e+00
  TN5h SN4aq  1 3.650000e-01    2.830000e+00
  TN5h SN5aq  1 3.650000e-01    2.830000e+00
  TN5h SN1dq  1 3.650000e-01    2.340000e+00
  TN5h SN2dq  1 3.650000e-01    2.570000e+00
  TN5h SN3dq  1 3.650000e-01    2.570000e+00
  TN5h SN4dq  1 3.650000e-01    2.830000e+00
  TN5h SN5dq  1 3.650000e-01    2.830000e+00
  TN4h SX1eq  1 3.650000e-01    2.110000e+00
  TN4h SX2eq  1 3.650000e-01    2.340000e+00
  TN4h SX3eq  1 3.650000e-01    2.830000e+00
  TN4h SX4eq  1 3.650000e-01    3.100000e+00
  TN4h SC1eq  1 3.650000e-01    1.750000e+00
  TN4h SC2eq  1 3.650000e-01    1.910000e+00
  TN4h SC3eq  1 3.650000e-01    2.110000e+00
  TN4h SC4eq  1 3.650000e-01    2.340000e+00
  TN4h SC5eq  1 3.650000e-01    2.340000e+00
  TN4h SC6eq  1 3.650000e-01    2.570000e+00
  TN4h SX1vq  1 3.650000e-01    2.110000e+00
  TN4h SX2vq  1 3.650000e-01    2.340000e+00
  TN4h SX3vq  1 3.650000e-01    2.830000e+00
  TN4h SX4vq  1 3.650000e-01    3.100000e+00
  TN4h SC1vq  1 3.650000e-01    1.750000e+00
  TN4h SC2vq  1 3.650000e-01    1.910000e+00
  TN4h SC3vq  1 3.650000e-01    2.110000e+00
  TN4h SC4vq  1 3.650000e-01    2.340000e+00
  TN4h SC5vq  1 3.650000e-01    2.340000e+00
  TN4h SC6vq  1 3.650000e-01    2.570000e+00
  TN4h SN1aq  1 3.650000e-01    2.340000e+00
  TN4h SN2aq  1 3.650000e-01    2.570000e+00
  TN4h SN3aq  1 3.650000e-01    2.570000e+00
  TN4h SN4aq  1 3.650000e-01    2.830000e+00
  TN4h SN1dq  1 3.650000e-01    2.340000e+00
  TN4h SN2dq  1 3.650000e-01    2.570000e+00
  TN4h SN3dq  1 3.650000e-01    2.570000e+00
  TN4h SN4dq  1 3.650000e-01    2.830000e+00
  TN3h SX1eq  1 3.650000e-01    2.340000e+00
  TN3h SX2eq  1 3.650000e-01    2.340000e+00
  TN3h SX3eq  1 3.650000e-01    2.570000e+00
  TN3h SX4eq  1 3.650000e-01    2.830000e+00
  TN3h SC1eq  1 3.650000e-01    1.910000e+00
  TN3h SC2eq  1 3.650000e-01    2.110000e+00
  TN3h SC3eq  1 3.650000e-01    2.110000e+00
  TN3h SC4eq  1 3.650000e-01    2.340000e+00
  TN3h SC5eq  1 3.650000e-01    2.340000e+00
  TN3h SC6eq  1 3.650000e-01    2.570000e+00
  TN3h SX1vq  1 3.650000e-01    2.340000e+00
  TN3h SX2vq  1 3.650000e-01    2.340000e+00
  TN3h SX3vq  1 3.650000e-01    2.570000e+00
  TN3h SX4vq  1 3.650000e-01    2.830000e+00
  TN3h SC1vq  1 3.650000e-01    1.910000e+00
  TN3h SC2vq  1 3.650000e-01    2.110000e+00
  TN3h SC3vq  1 3.650000e-01    2.110000e+00
  TN3h SC4vq  1 3.650000e-01    2.340000e+00
  TN3h SC5vq  1 3.650000e-01    2.340000e+00
  TN3h SC6vq  1 3.650000e-01    2.570000e+00
  TN3h SN1aq  1 3.650000e-01    2.340000e+00
  TN3h SN2aq  1 3.650000e-01    2.570000e+00
  TN3h SN3aq  1 3.650000e-01    2.570000e+00
  TN3h SN1dq  1 3.650000e-01    2.340000e+00
  TN3h SN2dq  1 3.650000e-01    2.570000e+00
  TN3h SN3dq  1 3.650000e-01    2.570000e+00
  TN2h SX1eq  1 3.650000e-01    2.340000e+00
  TN2h SX2eq  1 3.650000e-01    2.340000e+00
  TN2h SX3eq  1 3.650000e-01    2.570000e+00
  TN2h SX4eq  1 3.650000e-01    2.830000e+00
  TN2h SC1eq  1 3.650000e-01    1.910000e+00
  TN2h SC2eq  1 3.650000e-01    2.110000e+00
  TN2h SC3eq  1 3.650000e-01    2.340000e+00
  TN2h SC4eq  1 3.650000e-01    2.340000e+00
  TN2h SC5eq  1 3.650000e-01    2.340000e+00
  TN2h SC6eq  1 3.650000e-01    2.570000e+00
  TN2h SX1vq  1 3.650000e-01    2.340000e+00
  TN2h SX2vq  1 3.650000e-01    2.340000e+00
  TN2h SX3vq  1 3.650000e-01    2.570000e+00
  TN2h SX4vq  1 3.650000e-01    2.830000e+00
  TN2h SC1vq  1 3.650000e-01    1.910000e+00
  TN2h SC2vq  1 3.650000e-01    2.110000e+00
  TN2h SC3vq  1 3.650000e-01    2.340000e+00
  TN2h SC4vq  1 3.650000e-01    2.340000e+00
  TN2h SC5vq  1 3.650000e-01    2.340000e+00
  TN2h SC6vq  1 3.650000e-01    2.570000e+00
  TN2h SN1aq  1 3.650000e-01    2.340000e+00
  TN2h SN2aq  1 3.650000e-01    2.570000e+00
  TN2h SN1dq  1 3.650000e-01    2.340000e+00
  TN2h SN2dq  1 3.650000e-01    2.570000e+00
  TN1h SX1eq  1 3.650000e-01    2.340000e+00
  TN1h SX2eq  1 3.650000e-01    2.340000e+00
  TN1h SX3eq  1 3.650000e-01    2.570000e+00
  TN1h SX4eq  1 3.650000e-01    2.570000e+00
  TN1h SC1eq  1 3.650000e-01    1.910000e+00
  TN1h SC2eq  1 3.650000e-01    2.110000e+00
  TN1h SC3eq  1 3.650000e-01    2.340000e+00
  TN1h SC4eq  1 3.650000e-01    2.570000e+00
  TN1h SC5eq  1 3.650000e-01    2.570000e+00
  TN1h SC6eq  1 3.650000e-01    2.830000e+00
  TN1h SX1vq  1 3.650000e-01    2.340000e+00
  TN1h SX2vq  1 3.650000e-01    2.340000e+00
  TN1h SX3vq  1 3.650000e-01    2.570000e+00
  TN1h SX4vq  1 3.650000e-01    2.570000e+00
  TN1h SC1vq  1 3.650000e-01    1.910000e+00
  TN1h SC2vq  1 3.650000e-01    2.110000e+00
  TN1h SC3vq  1 3.650000e-01    2.340000e+00
  TN1h SC4vq  1 3.650000e-01    2.570000e+00
  TN1h SC5vq  1 3.650000e-01    2.570000e+00
  TN1h SC6vq  1 3.650000e-01    2.830000e+00
  TN1h SN1aq  1 3.650000e-01    2.570000e+00
  TN1h SN1dq  1 3.650000e-01    2.570000e+00
  TC6h SX1eq  1 3.650000e-01    2.570000e+00
  TC6h SX2eq  1 3.650000e-01    2.570000e+00
  TC6h SX3eq  1 3.650000e-01    2.570000e+00
  TC6h SX4eq  1 3.650000e-01    2.570000e+00
  TC6h SC1eq  1 3.650000e-01    1.910000e+00
  TC6h SC2eq  1 3.650000e-01    2.110000e+00
  TC6h SC3eq  1 3.650000e-01    2.340000e+00
  TC6h SC4eq  1 3.650000e-01    2.570000e+00
  TC6h SC5eq  1 3.650000e-01    2.570000e+00
  TC6h SC6eq  1 3.650000e-01    2.830000e+00
  TC6h SX1vq  1 3.650000e-01    2.570000e+00
  TC6h SX2vq  1 3.650000e-01    2.570000e+00
  TC6h SX3vq  1 3.650000e-01    2.570000e+00
  TC6h SX4vq  1 3.650000e-01    2.570000e+00
  TC6h SC1vq  1 3.650000e-01    1.910000e+00
  TC6h SC2vq  1 3.650000e-01    2.110000e+00
  TC6h SC3vq  1 3.650000e-01    2.340000e+00
  TC6h SC4vq  1 3.650000e-01    2.570000e+00
  TC6h SC5vq  1 3.650000e-01    2.570000e+00
  TC6h SC6vq  1 3.650000e-01    2.830000e+00
  TC5h SX1eq  1 3.650000e-01    2.570000e+00
  TC5h SX2eq  1 3.650000e-01    2.340000e+00
  TC5h SX3eq  1 3.650000e-01    2.340000e+00
  TC5h SX4eq  1 3.650000e-01    2.340000e+00
  TC5h SC1eq  1 3.650000e-01    2.110000e+00
  TC5h SC2eq  1 3.650000e-01    2.110000e+00
  TC5h SC3eq  1 3.650000e-01    2.340000e+00
  TC5h SC4eq  1 3.650000e-01    2.570000e+00
  TC5h SC5eq  1 3.650000e-01    2.570000e+00
  TC5h SX1vq  1 3.650000e-01    2.570000e+00
  TC5h SX2vq  1 3.650000e-01    2.340000e+00
  TC5h SX3vq  1 3.650000e-01    2.340000e+00
  TC5h SX4vq  1 3.650000e-01    2.340000e+00
  TC5h SC1vq  1 3.650000e-01    2.110000e+00
  TC5h SC2vq  1 3.650000e-01    2.110000e+00
  TC5h SC3vq  1 3.650000e-01    2.340000e+00
  TC5h SC4vq  1 3.650000e-01    2.570000e+00
  TC5h SC5vq  1 3.650000e-01    2.570000e+00
  TC4h SX1eq  1 3.650000e-01    2.570000e+00
  TC4h SX2eq  1 3.650000e-01    2.340000e+00
  TC4h SX3eq  1 3.650000e-01    2.340000e+00
  TC4h SX4eq  1 3.650000e-01    2.340000e+00
  TC4h SC1eq  1 3.650000e-01    2.110000e+00
  TC4h SC2eq  1 3.650000e-01    2.340000e+00
  TC4h SC3eq  1 3.650000e-01    2.570000e+00
  TC4h SC4eq  1 3.650000e-01    2.570000e+00
  TC4h SX1vq  1 3.650000e-01    2.570000e+00
  TC4h SX2vq  1 3.650000e-01    2.340000e+00
  TC4h SX3vq  1 3.650000e-01    2.340000e+00
  TC4h SX4vq  1 3.650000e-01    2.340000e+00
  TC4h SC1vq  1 3.650000e-01    2.110000e+00
  TC4h SC2vq  1 3.650000e-01    2.340000e+00
  TC4h SC3vq  1 3.650000e-01    2.570000e+00
  TC4h SC4vq  1 3.650000e-01    2.570000e+00
  TC3h SX1eq  1 3.650000e-01    2.570000e+00
  TC3h SX2eq  1 3.650000e-01    2.340000e+00
  TC3h SX3eq  1 3.650000e-01    2.340000e+00
  TC3h SX4eq  1 3.650000e-01    2.340000e+00
  TC3h SC1eq  1 3.650000e-01    2.570000e+00
  TC3h SC2eq  1 3.650000e-01    2.570000e+00
  TC3h SC3eq  1 3.650000e-01    2.570000e+00
  TC3h SX1vq  1 3.650000e-01    2.570000e+00
  TC3h SX2vq  1 3.650000e-01    2.340000e+00
  TC3h SX3vq  1 3.650000e-01    2.340000e+00
  TC3h SX4vq  1 3.650000e-01    2.340000e+00
  TC3h SC1vq  1 3.650000e-01    2.570000e+00
  TC3h SC2vq  1 3.650000e-01    2.570000e+00
  TC3h SC3vq  1 3.650000e-01    2.570000e+00
  TC2h SX1eq  1 3.650000e-01    2.340000e+00
  TC2h SX2eq  1 3.650000e-01    2.340000e+00
  TC2h SX3eq  1 3.650000e-01    2.340000e+00
  TC2h SX4eq  1 3.650000e-01    1.910000e+00
  TC2h SC1eq  1 3.650000e-01    2.830000e+00
  TC2h SC2eq  1 3.650000e-01    2.570000e+00
  TC2h SX1vq  1 3.650000e-01    2.340000e+00
  TC2h SX2vq  1 3.650000e-01    2.340000e+00
  TC2h SX3vq  1 3.650000e-01    2.340000e+00
  TC2h SX4vq  1 3.650000e-01    1.910000e+00
  TC2h SC1vq  1 3.650000e-01    2.830000e+00
  TC2h SC2vq  1 3.650000e-01    2.570000e+00
  TC1h SX1eq  1 3.650000e-01    2.340000e+00
  TC1h SX2eq  1 3.650000e-01    2.340000e+00
  TC1h SX3eq  1 3.650000e-01    2.340000e+00
  TC1h SX4eq  1 3.650000e-01    1.910000e+00
  TC1h SC1eq  1 3.650000e-01    2.570000e+00
  TC1h SX1vq  1 3.650000e-01    2.340000e+00
  TC1h SX2vq  1 3.650000e-01    2.340000e+00
  TC1h SX3vq  1 3.650000e-01    2.340000e+00
  TC1h SX4vq  1 3.650000e-01    1.910000e+00
  TC1h SC1vq  1 3.650000e-01    2.570000e+00
  TX4h SX1eq  1 3.650000e-01    2.570000e+00
  TX4h SX2eq  1 3.650000e-01    2.570000e+00
  TX4h SX3eq  1 3.650000e-01    2.570000e+00
  TX4h SX4eq  1 3.650000e-01    2.570000e+00
  TX4h SX1vq  1 3.650000e-01    2.570000e+00
  TX4h SX2vq  1 3.650000e-01    2.570000e+00
  TX4h SX3vq  1 3.650000e-01    2.570000e+00
  TX4h SX4vq  1 3.650000e-01    2.570000e+00
  TX3h SX1eq  1 3.650000e-01    2.830000e+00
  TX3h SX2eq  1 3.650000e-01    2.830000e+00
  TX3h SX3eq  1 3.650000e-01    2.570000e+00
  TX3h SX1vq  1 3.650000e-01    2.830000e+00
  TX3h SX2vq  1 3.650000e-01    2.830000e+00
  TX3h SX3vq  1 3.650000e-01    2.570000e+00
  TX2h SX1eq  1 3.650000e-01    2.830000e+00
  TX2h SX2eq  1 3.650000e-01    2.830000e+00
  TX2h SX1vq  1 3.650000e-01    2.830000e+00
  TX2h SX2vq  1 3.650000e-01    2.830000e+00
  TX1h SX1eq  1 3.650000e-01    3.100000e+00
  TX1h SX1vq  1 3.650000e-01    3.100000e+00
  TP6d SP6dh  1 3.650000e-01    3.640000e+00
  TP6q SP6dh  1 3.650000e-01    4.510000e+00
  TP5d SP5dh  1 3.650000e-01    3.100000e+00
  TP6a SP5dh  1 3.650000e-01    3.930000e+00
  TP6q SP5dh  1 3.650000e-01    4.220000e+00
  TP5q SP5dh  1 3.650000e-01    3.930000e+00
  TP4d SP4dh  1 3.650000e-01    2.830000e+00
  TP6a SP4dh  1 3.650000e-01    3.640000e+00
  TP5a SP4dh  1 3.650000e-01    3.370000e+00
  TP6q SP4dh  1 3.650000e-01    3.930000e+00
  TP5q SP4dh  1 3.650000e-01    3.640000e+00
  TP4q SP4dh  1 3.650000e-01    3.640000e+00
  TP3d SP3dh  1 3.650000e-01    2.570000e+00
  TP6a SP3dh  1 3.650000e-01    3.370000e+00
  TP5a SP3dh  1 3.650000e-01    3.100000e+00
  TP4a SP3dh  1 3.650000e-01    3.100000e+00
  TP6q SP3dh  1 3.650000e-01    3.640000e+00
  TP5q SP3dh  1 3.650000e-01    3.370000e+00
  TP4q SP3dh  1 3.650000e-01    3.370000e+00
  TP3q SP3dh  1 3.650000e-01    3.370000e+00
  TP2d SP2dh  1 3.650000e-01    2.570000e+00
  TP6a SP2dh  1 3.650000e-01    3.370000e+00
  TP5a SP2dh  1 3.650000e-01    3.100000e+00
  TP4a SP2dh  1 3.650000e-01    3.100000e+00
  TP3a SP2dh  1 3.650000e-01    3.100000e+00
  TP6q SP2dh  1 3.650000e-01    3.640000e+00
  TP5q SP2dh  1 3.650000e-01    3.370000e+00
  TP4q SP2dh  1 3.650000e-01    3.370000e+00
  TP3q SP2dh  1 3.650000e-01    3.370000e+00
  TP2q SP2dh  1 3.650000e-01    3.370000e+00
  TP1d SP1dh  1 3.650000e-01    2.340000e+00
  TP6a SP1dh  1 3.650000e-01    3.100000e+00
  TP5a SP1dh  1 3.650000e-01    2.830000e+00
  TP4a SP1dh  1 3.650000e-01    2.830000e+00
  TP3a SP1dh  1 3.650000e-01    2.830000e+00
  TP2a SP1dh  1 3.650000e-01    2.830000e+00
  TP6q SP1dh  1 3.650000e-01    3.370000e+00
  TP5q SP1dh  1 3.650000e-01    3.100000e+00
  TP4q SP1dh  1 3.650000e-01    3.100000e+00
  TP3q SP1dh  1 3.650000e-01    3.100000e+00
  TP2q SP1dh  1 3.650000e-01    3.100000e+00
  TP1q SP1dh  1 3.650000e-01    3.100000e+00
  TN6d SN6dh  1 3.650000e-01    2.340000e+00
  TP6a SN6dh  1 3.650000e-01    2.830000e+00
  TP5a SN6dh  1 3.650000e-01    2.570000e+00
  TP4a SN6dh  1 3.650000e-01    2.570000e+00
  TP3a SN6dh  1 3.650000e-01    2.570000e+00
  TP2a SN6dh  1 3.650000e-01    2.830000e+00
  TP1a SN6dh  1 3.650000e-01    2.830000e+00
  TP6q SN6dh  1 3.650000e-01    3.100000e+00
  TP5q SN6dh  1 3.650000e-01    2.830000e+00
  TP4q SN6dh  1 3.650000e-01    2.830000e+00
  TP3q SN6dh  1 3.650000e-01    2.830000e+00
  TP2q SN6dh  1 3.650000e-01    3.100000e+00
  TP1q SN6dh  1 3.650000e-01    3.100000e+00
  TN6q SN6dh  1 3.650000e-01    3.100000e+00
  TN5d SN5dh  1 3.650000e-01    2.110000e+00
  TP6a SN5dh  1 3.650000e-01    2.340000e+00
  TP5a SN5dh  1 3.650000e-01    2.340000e+00
  TP4a SN5dh  1 3.650000e-01    2.340000e+00
  TP3a SN5dh  1 3.650000e-01    2.340000e+00
  TP2a SN5dh  1 3.650000e-01    2.570000e+00
  TP1a SN5dh  1 3.650000e-01    2.570000e+00
  TN6a SN5dh  1 3.650000e-01    2.830000e+00
  TP6q SN5dh  1 3.650000e-01    2.570000e+00
  TP5q SN5dh  1 3.650000e-01    2.570000e+00
  TP4q SN5dh  1 3.650000e-01    2.570000e+00
  TP3q SN5dh  1 3.650000e-01    2.570000e+00
  TP2q SN5dh  1 3.650000e-01    2.830000e+00
  TP1q SN5dh  1 3.650000e-01    2.830000e+00
  TN6q SN5dh  1 3.650000e-01    3.100000e+00
  TN5q SN5dh  1 3.650000e-01    2.830000e+00
  TN4d SN4dh  1 3.650000e-01    2.110000e+00
  TP6a SN4dh  1 3.650000e-01    2.110000e+00
  TP5a SN4dh  1 3.650000e-01    2.340000e+00
  TP4a SN4dh  1 3.650000e-01    2.340000e+00
  TP3a SN4dh  1 3.650000e-01    2.340000e+00
  TP2a SN4dh  1 3.650000e-01    2.340000e+00
  TP1a SN4dh  1 3.650000e-01    2.570000e+00
  TN6a SN4dh  1 3.650000e-01    2.830000e+00
  TN5a SN4dh  1 3.650000e-01    2.570000e+00
  TP6q SN4dh  1 3.650000e-01    2.340000e+00
  TP5q SN4dh  1 3.650000e-01    2.570000e+00
  TP4q SN4dh  1 3.650000e-01    2.570000e+00
  TP3q SN4dh  1 3.650000e-01    2.570000e+00
  TP2q SN4dh  1 3.650000e-01    2.570000e+00
  TP1q SN4dh  1 3.650000e-01    2.830000e+00
  TN6q SN4dh  1 3.650000e-01    3.100000e+00
  TN5q SN4dh  1 3.650000e-01    2.830000e+00
  TN4q SN4dh  1 3.650000e-01    2.830000e+00
  TN3d SN3dh  1 3.650000e-01    1.910000e+00
  TP6a SN3dh  1 3.650000e-01    1.750000e+00
  TP5a SN3dh  1 3.650000e-01    1.750000e+00
  TP4a SN3dh  1 3.650000e-01    2.110000e+00
  TP3a SN3dh  1 3.650000e-01    2.110000e+00
  TP2a SN3dh  1 3.650000e-01    2.110000e+00
  TP1a SN3dh  1 3.650000e-01    2.110000e+00
  TN6a SN3dh  1 3.650000e-01    2.340000e+00
  TN5a SN3dh  1 3.650000e-01    2.340000e+00
  TN4a SN3dh  1 3.650000e-01    2.340000e+00
  TP6q SN3dh  1 3.650000e-01    2.110000e+00
  TP5q SN3dh  1 3.650000e-01    2.110000e+00
  TP4q SN3dh  1 3.650000e-01    2.340000e+00
  TP3q SN3dh  1 3.650000e-01    2.340000e+00
  TP2q SN3dh  1 3.650000e-01    2.340000e+00
  TP1q SN3dh  1 3.650000e-01    2.340000e+00
  TN6q SN3dh  1 3.650000e-01    2.570000e+00
  TN5q SN3dh  1 3.650000e-01    2.570000e+00
  TN4q SN3dh  1 3.650000e-01    2.570000e+00
  TN3q SN3dh  1 3.650000e-01    2.570000e+00
  TN2d SN2dh  1 3.650000e-01    1.910000e+00
  TP6a SN2dh  1 3.660000e-01    1.600000e+00
  TP5a SN2dh  1 3.660000e-01    1.600000e+00
  TP4a SN2dh  1 3.650000e-01    1.750000e+00
  TP3a SN2dh  1 3.650000e-01    2.110000e+00
  TP2a SN2dh  1 3.650000e-01    2.110000e+00
  TP1a SN2dh  1 3.650000e-01    2.110000e+00
  TN6a SN2dh  1 3.650000e-01    2.110000e+00
  TN5a SN2dh  1 3.650000e-01    2.340000e+00
  TN4a SN2dh  1 3.650000e-01    2.340000e+00
  TN3a SN2dh  1 3.650000e-01    2.340000e+00
  TP6q SN2dh  1 3.650000e-01    1.910000e+00
  TP5q SN2dh  1 3.650000e-01    1.910000e+00
  TP4q SN2dh  1 3.650000e-01    2.110000e+00
  TP3q SN2dh  1 3.650000e-01    2.340000e+00
  TP2q SN2dh  1 3.650000e-01    2.340000e+00
  TP1q SN2dh  1 3.650000e-01    2.340000e+00
  TN6q SN2dh  1 3.650000e-01    2.340000e+00
  TN5q SN2dh  1 3.650000e-01    2.570000e+00
  TN4q SN2dh  1 3.650000e-01    2.570000e+00
  TN3q SN2dh  1 3.650000e-01    2.570000e+00
  TN2q SN2dh  1 3.650000e-01    2.570000e+00
  TN1d SN1dh  1 3.650000e-01    1.910000e+00
  TP6a SN1dh  1 3.780000e-01    1.450000e+00
  TP5a SN1dh  1 3.780000e-01    1.450000e+00
  TP4a SN1dh  1 3.660000e-01    1.600000e+00
  TP3a SN1dh  1 3.650000e-01    1.750000e+00
  TP2a SN1dh  1 3.650000e-01    2.110000e+00
  TP1a SN1dh  1 3.650000e-01    2.110000e+00
  TN6a SN1dh  1 3.650000e-01    2.110000e+00
  TN5a SN1dh  1 3.650000e-01    2.110000e+00
  TN4a SN1dh  1 3.650000e-01    2.110000e+00
  TN3a SN1dh  1 3.650000e-01    2.110000e+00
  TN2a SN1dh  1 3.650000e-01    2.110000e+00
  TP6q SN1dh  1 3.650000e-01    1.750000e+00
  TP5q SN1dh  1 3.650000e-01    1.750000e+00
  TP4q SN1dh  1 3.650000e-01    1.910000e+00
  TP3q SN1dh  1 3.650000e-01    2.110000e+00
  TP2q SN1dh  1 3.650000e-01    2.340000e+00
  TP1q SN1dh  1 3.650000e-01    2.340000e+00
  TN6q SN1dh  1 3.650000e-01    2.340000e+00
  TN5q SN1dh  1 3.650000e-01    2.340000e+00
  TN4q SN1dh  1 3.650000e-01    2.340000e+00
  TN3q SN1dh  1 3.650000e-01    2.340000e+00
  TN2q SN1dh  1 3.650000e-01    2.340000e+00
  TN1q SN1dh  1 3.650000e-01    2.570000e+00
  TP6a SP6ah  1 3.650000e-01    3.640000e+00
  TP6q SP6ah  1 3.650000e-01    4.510000e+00
  TP5a SP5ah  1 3.650000e-01    3.100000e+00
  TP6q SP5ah  1 3.650000e-01    4.220000e+00
  TP5q SP5ah  1 3.650000e-01    3.930000e+00
  TP4a SP4ah  1 3.650000e-01    2.830000e+00
  TP6q SP4ah  1 3.650000e-01    3.930000e+00
  TP5q SP4ah  1 3.650000e-01    3.640000e+00
  TP4q SP4ah  1 3.650000e-01    3.640000e+00
  TP3a SP3ah  1 3.650000e-01    2.570000e+00
  TP6q SP3ah  1 3.650000e-01    3.640000e+00
  TP5q SP3ah  1 3.650000e-01    3.370000e+00
  TP4q SP3ah  1 3.650000e-01    3.370000e+00
  TP3q SP3ah  1 3.650000e-01    3.370000e+00
  TP2a SP2ah  1 3.650000e-01    2.570000e+00
  TP6q SP2ah  1 3.650000e-01    3.640000e+00
  TP5q SP2ah  1 3.650000e-01    3.370000e+00
  TP4q SP2ah  1 3.650000e-01    3.370000e+00
  TP3q SP2ah  1 3.650000e-01    3.370000e+00
  TP2q SP2ah  1 3.650000e-01    3.370000e+00
  TP1a SP1ah  1 3.650000e-01    2.340000e+00
  TP6q SP1ah  1 3.650000e-01    3.370000e+00
  TP5q SP1ah  1 3.650000e-01    3.100000e+00
  TP4q SP1ah  1 3.650000e-01    3.100000e+00
  TP3q SP1ah  1 3.650000e-01    3.100000e+00
  TP2q SP1ah  1 3.650000e-01    3.100000e+00
  TP1q SP1ah  1 3.650000e-01    3.100000e+00
  TN6a SN6ah  1 3.650000e-01    2.340000e+00
  TP6q SN6ah  1 3.650000e-01    3.100000e+00
  TP5q SN6ah  1 3.650000e-01    2.830000e+00
  TP4q SN6ah  1 3.650000e-01    2.830000e+00
  TP3q SN6ah  1 3.650000e-01    2.830000e+00
  TP2q SN6ah  1 3.650000e-01    3.100000e+00
  TP1q SN6ah  1 3.650000e-01    3.100000e+00
  TN6q SN6ah  1 3.650000e-01    3.100000e+00
  TN5a SN5ah  1 3.650000e-01    2.110000e+00
  TP6q SN5ah  1 3.650000e-01    2.570000e+00
  TP5q SN5ah  1 3.650000e-01    2.570000e+00
  TP4q SN5ah  1 3.650000e-01    2.570000e+00
  TP3q SN5ah  1 3.650000e-01    2.570000e+00
  TP2q SN5ah  1 3.650000e-01    2.830000e+00
  TP1q SN5ah  1 3.650000e-01    2.830000e+00
  TN6q SN5ah  1 3.650000e-01    3.100000e+00
  TN5q SN5ah  1 3.650000e-01    2.830000e+00
  TN4a SN4ah  1 3.650000e-01    2.110000e+00
  TP6q SN4ah  1 3.650000e-01    2.340000e+00
  TP5q SN4ah  1 3.650000e-01    2.570000e+00
  TP4q SN4ah  1 3.650000e-01    2.570000e+00
  TP3q SN4ah  1 3.650000e-01    2.570000e+00
  TP2q SN4ah  1 3.650000e-01    2.570000e+00
  TP1q SN4ah  1 3.650000e-01    2.830000e+00
  TN6q SN4ah  1 3.650000e-01    3.100000e+00
  TN5q SN4ah  1 3.650000e-01    2.830000e+00
  TN4q SN4ah  1 3.650000e-01    2.830000e+00
  TN3a SN3ah  1 3.650000e-01    1.910000e+00
  TP6q SN3ah  1 3.650000e-01    2.110000e+00
  TP5q SN3ah  1 3.650000e-01    2.110000e+00
  TP4q SN3ah  1 3.650000e-01    2.340000e+00
  TP3q SN3ah  1 3.650000e-01    2.340000e+00
  TP2q SN3ah  1 3.650000e-01    2.340000e+00
  TP1q SN3ah  1 3.650000e-01    2.340000e+00
  TN6q SN3ah  1 3.650000e-01    2.570000e+00
  TN5q SN3ah  1 3.650000e-01    2.570000e+00
  TN4q SN3ah  1 3.650000e-01    2.570000e+00
  TN3q SN3ah  1 3.650000e-01    2.570000e+00
  TN2a SN2ah  1 3.650000e-01    1.910000e+00
  TP6q SN2ah  1 3.650000e-01    1.910000e+00
  TP5q SN2ah  1 3.650000e-01    1.910000e+00
  TP4q SN2ah  1 3.650000e-01    2.110000e+00
  TP3q SN2ah  1 3.650000e-01    2.340000e+00
  TP2q SN2ah  1 3.650000e-01    2.340000e+00
  TP1q SN2ah  1 3.650000e-01    2.340000e+00
  TN6q SN2ah  1 3.650000e-01    2.340000e+00
  TN5q SN2ah  1 3.650000e-01    2.570000e+00
  TN4q SN2ah  1 3.650000e-01    2.570000e+00
  TN3q SN2ah  1 3.650000e-01    2.570000e+00
  TN2q SN2ah  1 3.650000e-01    2.570000e+00
  TN1a SN1ah  1 3.650000e-01    1.910000e+00
  TP6q SN1ah  1 3.650000e-01    1.750000e+00
  TP5q SN1ah  1 3.650000e-01    1.750000e+00
  TP4q SN1ah  1 3.650000e-01    1.910000e+00
  TP3q SN1ah  1 3.650000e-01    2.110000e+00
  TP2q SN1ah  1 3.650000e-01    2.340000e+00
  TP1q SN1ah  1 3.650000e-01    2.340000e+00
  TN6q SN1ah  1 3.650000e-01    2.340000e+00
  TN5q SN1ah  1 3.650000e-01    2.340000e+00
  TN4q SN1ah  1 3.650000e-01    2.340000e+00
  TN3q SN1ah  1 3.650000e-01    2.340000e+00
  TN2q SN1ah  1 3.650000e-01    2.340000e+00
  TN1q SN1ah  1 3.650000e-01    2.570000e+00
  TC6v SC6vh  1 3.650000e-01    1.910000e+00
  TP6q SC6vh  1 3.650000e-01    1.910000e+00
  TP5q SC6vh  1 3.650000e-01    1.910000e+00
  TP4q SC6vh  1 3.650000e-01    2.110000e+00
  TP3q SC6vh  1 3.650000e-01    2.340000e+00
  TP2q SC6vh  1 3.650000e-01    2.340000e+00
  TP1q SC6vh  1 3.650000e-01    2.340000e+00
  TN6q SC6vh  1 3.650000e-01    2.570000e+00
  TN5q SC6vh  1 3.650000e-01    2.570000e+00
  TN4q SC6vh  1 3.650000e-01    2.570000e+00
  TN3q SC6vh  1 3.650000e-01    2.570000e+00
  TN2q SC6vh  1 3.650000e-01    2.570000e+00
  TN1q SC6vh  1 3.650000e-01    2.830000e+00
  TC6q SC6vh  1 3.650000e-01    2.830000e+00
  TC5v SC5vh  1 3.650000e-01    1.750000e+00
  TC6e SC5vh  1 3.650000e-01    2.340000e+00
  TP6q SC5vh  1 3.650000e-01    1.750000e+00
  TP5q SC5vh  1 3.650000e-01    1.910000e+00
  TP4q SC5vh  1 3.650000e-01    1.910000e+00
  TP3q SC5vh  1 3.650000e-01    2.110000e+00
  TP2q SC5vh  1 3.650000e-01    2.110000e+00
  TP1q SC5vh  1 3.650000e-01    2.110000e+00
  TN6q SC5vh  1 3.650000e-01    2.340000e+00
  TN5q SC5vh  1 3.650000e-01    2.340000e+00
  TN4q SC5vh  1 3.650000e-01    2.340000e+00
  TN3q SC5vh  1 3.650000e-01    2.340000e+00
  TN2q SC5vh  1 3.650000e-01    2.340000e+00
  TN1q SC5vh  1 3.650000e-01    2.570000e+00
  TC6q SC5vh  1 3.650000e-01    2.570000e+00
  TC5q SC5vh  1 3.650000e-01    2.570000e+00
  TC4v SC4vh  1 3.650000e-01    1.750000e+00
  TC6e SC4vh  1 3.650000e-01    2.340000e+00
  TC5e SC4vh  1 3.650000e-01    2.340000e+00
  TP6q SC4vh  1 3.660000e-01    1.600000e+00
  TP5q SC4vh  1 3.650000e-01    1.750000e+00
  TP4q SC4vh  1 3.650000e-01    1.750000e+00
  TP3q SC4vh  1 3.650000e-01    1.910000e+00
  TP2q SC4vh  1 3.650000e-01    1.910000e+00
  TP1q SC4vh  1 3.650000e-01    1.910000e+00
  TN6q SC4vh  1 3.650000e-01    2.110000e+00
  TN5q SC4vh  1 3.650000e-01    2.110000e+00
  TN4q SC4vh  1 3.650000e-01    2.340000e+00
  TN3q SC4vh  1 3.650000e-01    2.340000e+00
  TN2q SC4vh  1 3.650000e-01    2.340000e+00
  TN1q SC4vh  1 3.650000e-01    2.570000e+00
  TC6q SC4vh  1 3.650000e-01    2.570000e+00
  TC5q SC4vh  1 3.650000e-01    2.570000e+00
  TC4q SC4vh  1 3.650000e-01    2.570000e+00
  TC3v SC3vh  1 3.650000e-01    1.750000e+00
  TC6e SC3vh  1 3.650000e-01    2.110000e+00
  TC5e SC3vh  1 3.650000e-01    2.110000e+00
  TC4e SC3vh  1 3.650000e-01    2.340000e+00
  TP6q SC3vh  1 3.780000e-01    1.450000e+00
  TP5q SC3vh  1 3.660000e-01    1.600000e+00
  TP4q SC3vh  1 3.660000e-01    1.600000e+00
  TP3q SC3vh  1 3.660000e-01    1.600000e+00
  TP2q SC3vh  1 3.650000e-01    1.750000e+00
  TP1q SC3vh  1 3.650000e-01    1.750000e+00
  TN6q SC3vh  1 3.650000e-01    1.910000e+00
  TN5q SC3vh  1 3.650000e-01    2.110000e+00
  TN4q SC3vh  1 3.650000e-01    2.110000e+00
  TN3q SC3vh  1 3.650000e-01    2.110000e+00
  TN2q SC3vh  1 3.650000e-01    2.340000e+00
  TN1q SC3vh  1 3.650000e-01    2.340000e+00
  TC6q SC3vh  1 3.650000e-01    2.340000e+00
  TC5q SC3vh  1 3.650000e-01    2.340000e+00
  TC4q SC3vh  1 3.650000e-01    2.570000e+00
  TC3q SC3vh  1 3.650000e-01    2.570000e+00
  TC2v SC2vh  1 3.650000e-01    1.750000e+00
  TC6e SC2vh  1 3.650000e-01    1.910000e+00
  TC5e SC2vh  1 3.650000e-01    1.910000e+00
  TC4e SC2vh  1 3.650000e-01    2.110000e+00
  TC3e SC2vh  1 3.650000e-01    2.340000e+00
  TP6q SC2vh  1 3.780000e-01    1.450000e+00
  TP5q SC2vh  1 3.660000e-01    1.600000e+00
  TP4q SC2vh  1 3.660000e-01    1.600000e+00
  TP3q SC2vh  1 3.660000e-01    1.600000e+00
  TP2q SC2vh  1 3.650000e-01    1.750000e+00
  TP1q SC2vh  1 3.650000e-01    1.750000e+00
  TN6q SC2vh  1 3.650000e-01    1.910000e+00
  TN5q SC2vh  1 3.650000e-01    1.910000e+00
  TN4q SC2vh  1 3.650000e-01    1.910000e+00
  TN3q SC2vh  1 3.650000e-01    2.110000e+00
  TN2q SC2vh  1 3.650000e-01    2.110000e+00
  TN1q SC2vh  1 3.650000e-01    2.110000e+00
  TC6q SC2vh  1 3.650000e-01    2.110000e+00
  TC5q SC2vh  1 3.650000e-01    2.110000e+00
  TC4q SC2vh  1 3.650000e-01    2.340000e+00
  TC3q SC2vh  1 3.650000e-01    2.570000e+00
  TC2q SC2vh  1 3.650000e-01    2.570000e+00
  TC1v SC1vh  1 3.650000e-01    1.750000e+00
  TC6e SC1vh  1 3.650000e-01    1.750000e+00
  TC5e SC1vh  1 3.650000e-01    1.910000e+00
  TC4e SC1vh  1 3.650000e-01    1.910000e+00
  TC3e SC1vh  1 3.650000e-01    2.340000e+00
  TC2e SC1vh  1 3.650000e-01    2.570000e+00
  TP6q SC1vh  1 4.040000e-01    1.130000e+00
  TP5q SC1vh  1 3.780000e-01    1.450000e+00
  TP4q SC1vh  1 3.780000e-01    1.450000e+00
  TP3q SC1vh  1 3.780000e-01    1.450000e+00
  TP2q SC1vh  1 3.660000e-01    1.600000e+00
  TP1q SC1vh  1 3.660000e-01    1.600000e+00
  TN6q SC1vh  1 3.650000e-01    1.750000e+00
  TN5q SC1vh  1 3.650000e-01    1.750000e+00
  TN4q SC1vh  1 3.650000e-01    1.750000e+00
  TN3q SC1vh  1 3.650000e-01    1.910000e+00
  TN2q SC1vh  1 3.650000e-01    1.910000e+00
  TN1q SC1vh  1 3.650000e-01    1.910000e+00
  TC6q SC1vh  1 3.650000e-01    1.910000e+00
  TC5q SC1vh  1 3.650000e-01    2.110000e+00
  TC4q SC1vh  1 3.650000e-01    2.110000e+00
  TC3q SC1vh  1 3.650000e-01    2.570000e+00
  TC2q SC1vh  1 3.650000e-01    2.830000e+00
  TC1q SC1vh  1 3.650000e-01    2.570000e+00
  TX4v SX4vh  1 3.650000e-01    1.750000e+00
  TC6e SX4vh  1 3.650000e-01    2.340000e+00
  TC5e SX4vh  1 3.650000e-01    2.110000e+00
  TC4e SX4vh  1 3.650000e-01    2.110000e+00
  TC3e SX4vh  1 3.650000e-01    2.110000e+00
  TC2e SX4vh  1 3.650000e-01    1.750000e+00
  TC1e SX4vh  1 3.650000e-01    1.750000e+00
  TP6q SX4vh  1 3.650000e-01    2.110000e+00
  TP5q SX4vh  1 3.650000e-01    2.340000e+00
  TP4q SX4vh  1 3.650000e-01    2.340000e+00
  TP3q SX4vh  1 3.650000e-01    2.340000e+00
  TP2q SX4vh  1 3.650000e-01    2.340000e+00
  TP1q SX4vh  1 3.650000e-01    2.340000e+00
  TN6q SX4vh  1 3.650000e-01    2.570000e+00
  TN5q SX4vh  1 3.650000e-01    2.830000e+00
  TN4q SX4vh  1 3.650000e-01    3.100000e+00
  TN3q SX4vh  1 3.650000e-01    2.830000e+00
  TN2q SX4vh  1 3.650000e-01    2.830000e+00
  TN1q SX4vh  1 3.650000e-01    2.570000e+00
  TC6q SX4vh  1 3.650000e-01    2.570000e+00
  TC5q SX4vh  1 3.650000e-01    2.340000e+00
  TC4q SX4vh  1 3.650000e-01    2.340000e+00
  TC3q SX4vh  1 3.650000e-01    2.340000e+00
  TC2q SX4vh  1 3.650000e-01    1.910000e+00
  TC1q SX4vh  1 3.650000e-01    1.910000e+00
  TX4q SX4vh  1 3.650000e-01    2.570000e+00
  TX3v SX3vh  1 3.650000e-01    1.750000e+00
  TC6e SX3vh  1 3.650000e-01    2.340000e+00
  TC5e SX3vh  1 3.650000e-01    2.110000e+00
  TC4e SX3vh  1 3.650000e-01    2.110000e+00
  TC3e SX3vh  1 3.650000e-01    2.110000e+00
  TC2e SX3vh  1 3.650000e-01    2.110000e+00
  TC1e SX3vh  1 3.650000e-01    2.110000e+00
  TX4e SX3vh  1 3.650000e-01    2.340000e+00
  TP6q SX3vh  1 3.650000e-01    2.110000e+00
  TP5q SX3vh  1 3.650000e-01    2.110000e+00
  TP4q SX3vh  1 3.650000e-01    2.110000e+00
  TP3q SX3vh  1 3.650000e-01    2.340000e+00
  TP2q SX3vh  1 3.650000e-01    2.340000e+00
  TP1q SX3vh  1 3.650000e-01    2.340000e+00
  TN6q SX3vh  1 3.650000e-01    2.340000e+00
  TN5q SX3vh  1 3.650000e-01    2.570000e+00
  TN4q SX3vh  1 3.650000e-01    2.830000e+00
  TN3q SX3vh  1 3.650000e-01    2.570000e+00
  TN2q SX3vh  1 3.650000e-01    2.570000e+00
  TN1q SX3vh  1 3.650000e-01    2.570000e+00
  TC6q SX3vh  1 3.650000e-01    2.570000e+00
  TC5q SX3vh  1 3.650000e-01    2.340000e+00
  TC4q SX3vh  1 3.650000e-01    2.340000e+00
  TC3q SX3vh  1 3.650000e-01    2.340000e+00
  TC2q SX3vh  1 3.650000e-01    2.340000e+00
  TC1q SX3vh  1 3.650000e-01    2.340000e+00
  TX4q SX3vh  1 3.650000e-01    2.570000e+00
  TX3q SX3vh  1 3.650000e-01    2.570000e+00
  TX2v SX2vh  1 3.650000e-01    1.910000e+00
  TC6e SX2vh  1 3.650000e-01    2.340000e+00
  TC5e SX2vh  1 3.650000e-01    2.110000e+00
  TC4e SX2vh  1 3.650000e-01    2.110000e+00
  TC3e SX2vh  1 3.650000e-01    2.110000e+00
  TC2e SX2vh  1 3.650000e-01    2.110000e+00
  TC1e SX2vh  1 3.650000e-01    2.110000e+00
  TX4e SX2vh  1 3.650000e-01    2.340000e+00
  TX3e SX2vh  1 3.650000e-01    2.570000e+00
  TP6q SX2vh  1 3.650000e-01    1.910000e+00
  TP5q SX2vh  1 3.650000e-01    2.110000e+00
  TP4q SX2vh  1 3.650000e-01    2.110000e+00
  TP3q SX2vh  1 3.650000e-01    2.110000e+00
  TP2q SX2vh  1 3.650000e-01    2.110000e+00
  TP1q SX2vh  1 3.650000e-01    2.110000e+00
  TN6q SX2vh  1 3.650000e-01    2.110000e+00
  TN5q SX2vh  1 3.650000e-01    2.340000e+00
  TN4q SX2vh  1 3.650000e-01    2.340000e+00
  TN3q SX2vh  1 3.650000e-01    2.340000e+00
  TN2q SX2vh  1 3.650000e-01    2.340000e+00
  TN1q SX2vh  1 3.650000e-01    2.340000e+00
  TC6q SX2vh  1 3.650000e-01    2.570000e+00
  TC5q SX2vh  1 3.650000e-01    2.340000e+00
  TC4q SX2vh  1 3.650000e-01    2.340000e+00
  TC3q SX2vh  1 3.650000e-01    2.340000e+00
  TC2q SX2vh  1 3.650000e-01    2.340000e+00
  TC1q SX2vh  1 3.650000e-01    2.340000e+00
  TX4q SX2vh  1 3.650000e-01    2.570000e+00
  TX3q SX2vh  1 3.650000e-01    2.830000e+00
  TX2q SX2vh  1 3.650000e-01    2.830000e+00
  TX1v SX1vh  1 3.650000e-01    2.110000e+00
  TC6e SX1vh  1 3.650000e-01    2.340000e+00
  TC5e SX1vh  1 3.650000e-01    2.340000e+00
  TC4e SX1vh  1 3.650000e-01    2.340000e+00
  TC3e SX1vh  1 3.650000e-01    2.340000e+00
  TC2e SX1vh  1 3.650000e-01    2.110000e+00
  TC1e SX1vh  1 3.650000e-01    2.110000e+00
  TX4e SX1vh  1 3.650000e-01    2.340000e+00
  TX3e SX1vh  1 3.650000e-01    2.570000e+00
  TX2e SX1vh  1 3.650000e-01    2.570000e+00
  TP6q SX1vh  1 3.650000e-01    1.750000e+00
  TP5q SX1vh  1 3.650000e-01    1.750000e+00
  TP4q SX1vh  1 3.650000e-01    1.910000e+00
  TP3q SX1vh  1 3.650000e-01    1.910000e+00
  TP2q SX1vh  1 3.650000e-01    1.910000e+00
  TP1q SX1vh  1 3.650000e-01    1.910000e+00
  TN6q SX1vh  1 3.650000e-01    1.910000e+00
  TN5q SX1vh  1 3.650000e-01    2.110000e+00
  TN4q SX1vh  1 3.650000e-01    2.110000e+00
  TN3q SX1vh  1 3.650000e-01    2.340000e+00
  TN2q SX1vh  1 3.650000e-01    2.340000e+00
  TN1q SX1vh  1 3.650000e-01    2.340000e+00
  TC6q SX1vh  1 3.650000e-01    2.570000e+00
  TC5q SX1vh  1 3.650000e-01    2.570000e+00
  TC4q SX1vh  1 3.650000e-01    2.570000e+00
  TC3q SX1vh  1 3.650000e-01    2.570000e+00
  TC2q SX1vh  1 3.650000e-01    2.340000e+00
  TC1q SX1vh  1 3.650000e-01    2.340000e+00
  TX4q SX1vh  1 3.650000e-01    2.570000e+00
  TX3q SX1vh  1 3.650000e-01    2.830000e+00
  TX2q SX1vh  1 3.650000e-01    2.830000e+00
  TX1q SX1vh  1 3.650000e-01    3.100000e+00
  TC6e SC6eh  1 3.650000e-01    1.910000e+00
  TP6q SC6eh  1 3.650000e-01    1.910000e+00
  TP5q SC6eh  1 3.650000e-01    1.910000e+00
  TP4q SC6eh  1 3.650000e-01    2.110000e+00
  TP3q SC6eh  1 3.650000e-01    2.340000e+00
  TP2q SC6eh  1 3.650000e-01    2.340000e+00
  TP1q SC6eh  1 3.650000e-01    2.340000e+00
  TN6q SC6eh  1 3.650000e-01    2.570000e+00
  TN5q SC6eh  1 3.650000e-01    2.570000e+00
  TN4q SC6eh  1 3.650000e-01    2.570000e+00
  TN3q SC6eh  1 3.650000e-01    2.570000e+00
  TN2q SC6eh  1 3.650000e-01    2.570000e+00
  TN1q SC6eh  1 3.650000e-01    2.830000e+00
  TC6q SC6eh  1 3.650000e-01    2.830000e+00
  TC5e SC5eh  1 3.650000e-01    1.750000e+00
  TP6q SC5eh  1 3.650000e-01    1.750000e+00
  TP5q SC5eh  1 3.650000e-01    1.910000e+00
  TP4q SC5eh  1 3.650000e-01    1.910000e+00
  TP3q SC5eh  1 3.650000e-01    2.110000e+00
  TP2q SC5eh  1 3.650000e-01    2.110000e+00
  TP1q SC5eh  1 3.650000e-01    2.110000e+00
  TN6q SC5eh  1 3.650000e-01    2.340000e+00
  TN5q SC5eh  1 3.650000e-01    2.340000e+00
  TN4q SC5eh  1 3.650000e-01    2.340000e+00
  TN3q SC5eh  1 3.650000e-01    2.340000e+00
  TN2q SC5eh  1 3.650000e-01    2.340000e+00
  TN1q SC5eh  1 3.650000e-01    2.570000e+00
  TC6q SC5eh  1 3.650000e-01    2.570000e+00
  TC5q SC5eh  1 3.650000e-01    2.570000e+00
  TC4e SC4eh  1 3.650000e-01    1.750000e+00
  TP6q SC4eh  1 3.660000e-01    1.600000e+00
  TP5q SC4eh  1 3.650000e-01    1.750000e+00
  TP4q SC4eh  1 3.650000e-01    1.750000e+00
  TP3q SC4eh  1 3.650000e-01    1.910000e+00
  TP2q SC4eh  1 3.650000e-01    1.910000e+00
  TP1q SC4eh  1 3.650000e-01    1.910000e+00
  TN6q SC4eh  1 3.650000e-01    2.110000e+00
  TN5q SC4eh  1 3.650000e-01    2.110000e+00
  TN4q SC4eh  1 3.650000e-01    2.340000e+00
  TN3q SC4eh  1 3.650000e-01    2.340000e+00
  TN2q SC4eh  1 3.650000e-01    2.340000e+00
  TN1q SC4eh  1 3.650000e-01    2.570000e+00
  TC6q SC4eh  1 3.650000e-01    2.570000e+00
  TC5q SC4eh  1 3.650000e-01    2.570000e+00
  TC4q SC4eh  1 3.650000e-01    2.570000e+00
  TC3e SC3eh  1 3.650000e-01    1.750000e+00
  TP6q SC3eh  1 3.780000e-01    1.450000e+00
  TP5q SC3eh  1 3.660000e-01    1.600000e+00
  TP4q SC3eh  1 3.660000e-01    1.600000e+00
  TP3q SC3eh  1 3.660000e-01    1.600000e+00
  TP2q SC3eh  1 3.650000e-01    1.750000e+00
  TP1q SC3eh  1 3.650000e-01    1.750000e+00
  TN6q SC3eh  1 3.650000e-01    1.910000e+00
  TN5q SC3eh  1 3.650000e-01    2.110000e+00
  TN4q SC3eh  1 3.650000e-01    2.110000e+00
  TN3q SC3eh  1 3.650000e-01    2.110000e+00
  TN2q SC3eh  1 3.650000e-01    2.340000e+00
  TN1q SC3eh  1 3.650000e-01    2.340000e+00
  TC6q SC3eh  1 3.650000e-01    2.340000e+00
  TC5q SC3eh  1 3.650000e-01    2.340000e+00
  TC4q SC3eh  1 3.650000e-01    2.570000e+00
  TC3q SC3eh  1 3.650000e-01    2.570000e+00
  TC2e SC2eh  1 3.650000e-01    1.750000e+00
  TP6q SC2eh  1 3.780000e-01    1.450000e+00
  TP5q SC2eh  1 3.660000e-01    1.600000e+00
  TP4q SC2eh  1 3.660000e-01    1.600000e+00
  TP3q SC2eh  1 3.660000e-01    1.600000e+00
  TP2q SC2eh  1 3.650000e-01    1.750000e+00
  TP1q SC2eh  1 3.650000e-01    1.750000e+00
  TN6q SC2eh  1 3.650000e-01    1.910000e+00
  TN5q SC2eh  1 3.650000e-01    1.910000e+00
  TN4q SC2eh  1 3.650000e-01    1.910000e+00
  TN3q SC2eh  1 3.650000e-01    2.110000e+00
  TN2q SC2eh  1 3.650000e-01    2.110000e+00
  TN1q SC2eh  1 3.650000e-01    2.110000e+00
  TC6q SC2eh  1 3.650000e-01    2.110000e+00
  TC5q SC2eh  1 3.650000e-01    2.110000e+00
  TC4q SC2eh  1 3.650000e-01    2.340000e+00
  TC3q SC2eh  1 3.650000e-01    2.570000e+00
  TC2q SC2eh  1 3.650000e-01    2.570000e+00
  TC1e SC1eh  1 3.650000e-01    1.750000e+00
  TP6q SC1eh  1 4.040000e-01    1.130000e+00
  TP5q SC1eh  1 3.780000e-01    1.450000e+00
  TP4q SC1eh  1 3.780000e-01    1.450000e+00
  TP3q SC1eh  1 3.780000e-01    1.450000e+00
  TP2q SC1eh  1 3.660000e-01    1.600000e+00
  TP1q SC1eh  1 3.660000e-01    1.600000e+00
  TN6q SC1eh  1 3.650000e-01    1.750000e+00
  TN5q SC1eh  1 3.650000e-01    1.750000e+00
  TN4q SC1eh  1 3.650000e-01    1.750000e+00
  TN3q SC1eh  1 3.650000e-01    1.910000e+00
  TN2q SC1eh  1 3.650000e-01    1.910000e+00
  TN1q SC1eh  1 3.650000e-01    1.910000e+00
  TC6q SC1eh  1 3.650000e-01    1.910000e+00
  TC5q SC1eh  1 3.650000e-01    2.110000e+00
  TC4q SC1eh  1 3.650000e-01    2.110000e+00
  TC3q SC1eh  1 3.650000e-01    2.570000e+00
  TC2q SC1eh  1 3.650000e-01    2.830000e+00
  TC1q SC1eh  1 3.650000e-01    2.570000e+00
  TX4e SX4eh  1 3.650000e-01    1.750000e+00
  TP6q SX4eh  1 3.650000e-01    2.110000e+00
  TP5q SX4eh  1 3.650000e-01    2.340000e+00
  TP4q SX4eh  1 3.650000e-01    2.340000e+00
  TP3q SX4eh  1 3.650000e-01    2.340000e+00
  TP2q SX4eh  1 3.650000e-01    2.340000e+00
  TP1q SX4eh  1 3.650000e-01    2.340000e+00
  TN6q SX4eh  1 3.650000e-01    2.570000e+00
  TN5q SX4eh  1 3.650000e-01    2.830000e+00
  TN4q SX4eh  1 3.650000e-01    3.100000e+00
  TN3q SX4eh  1 3.650000e-01    2.830000e+00
  TN2q SX4eh  1 3.650000e-01    2.830000e+00
  TN1q SX4eh  1 3.650000e-01    2.570000e+00
  TC6q SX4eh  1 3.650000e-01    2.570000e+00
  TC5q SX4eh  1 3.650000e-01    2.340000e+00
  TC4q SX4eh  1 3.650000e-01    2.340000e+00
  TC3q SX4eh  1 3.650000e-01    2.340000e+00
  TC2q SX4eh  1 3.650000e-01    1.910000e+00
  TC1q SX4eh  1 3.650000e-01    1.910000e+00
  TX4q SX4eh  1 3.650000e-01    2.570000e+00
  TX3e SX3eh  1 3.650000e-01    1.750000e+00
  TP6q SX3eh  1 3.650000e-01    2.110000e+00
  TP5q SX3eh  1 3.650000e-01    2.110000e+00
  TP4q SX3eh  1 3.650000e-01    2.110000e+00
  TP3q SX3eh  1 3.650000e-01    2.340000e+00
  TP2q SX3eh  1 3.650000e-01    2.340000e+00
  TP1q SX3eh  1 3.650000e-01    2.340000e+00
  TN6q SX3eh  1 3.650000e-01    2.340000e+00
  TN5q SX3eh  1 3.650000e-01    2.570000e+00
  TN4q SX3eh  1 3.650000e-01    2.830000e+00
  TN3q SX3eh  1 3.650000e-01    2.570000e+00
  TN2q SX3eh  1 3.650000e-01    2.570000e+00
  TN1q SX3eh  1 3.650000e-01    2.570000e+00
  TC6q SX3eh  1 3.650000e-01    2.570000e+00
  TC5q SX3eh  1 3.650000e-01    2.340000e+00
  TC4q SX3eh  1 3.650000e-01    2.340000e+00
  TC3q SX3eh  1 3.650000e-01    2.340000e+00
  TC2q SX3eh  1 3.650000e-01    2.340000e+00
  TC1q SX3eh  1 3.650000e-01    2.340000e+00
  TX4q SX3eh  1 3.650000e-01    2.570000e+00
  TX3q SX3eh  1 3.650000e-01    2.570000e+00
  TX2e SX2eh  1 3.650000e-01    1.910000e+00
  TP6q SX2eh  1 3.650000e-01    1.910000e+00
  TP5q SX2eh  1 3.650000e-01    2.110000e+00
  TP4q SX2eh  1 3.650000e-01    2.110000e+00
  TP3q SX2eh  1 3.650000e-01    2.110000e+00
  TP2q SX2eh  1 3.650000e-01    2.110000e+00
  TP1q SX2eh  1 3.650000e-01    2.110000e+00
  TN6q SX2eh  1 3.650000e-01    2.110000e+00
  TN5q SX2eh  1 3.650000e-01    2.340000e+00
  TN4q SX2eh  1 3.650000e-01    2.340000e+00
  TN3q SX2eh  1 3.650000e-01    2.340000e+00
  TN2q SX2eh  1 3.650000e-01    2.340000e+00
  TN1q SX2eh  1 3.650000e-01    2.340000e+00
  TC6q SX2eh  1 3.650000e-01    2.570000e+00
  TC5q SX2eh  1 3.650000e-01    2.340000e+00
  TC4q SX2eh  1 3.650000e-01    2.340000e+00
  TC3q SX2eh  1 3.650000e-01    2.340000e+00
  TC2q SX2eh  1 3.650000e-01    2.340000e+00
  TC1q SX2eh  1 3.650000e-01    2.340000e+00
  TX4q SX2eh  1 3.650000e-01    2.570000e+00
  TX3q SX2eh  1 3.650000e-01    2.830000e+00
  TX2q SX2eh  1 3.650000e-01    2.830000e+00
  TX1e SX1eh  1 3.650000e-01    2.110000e+00
  TP6q SX1eh  1 3.650000e-01    1.750000e+00
  TP5q SX1eh  1 3.650000e-01    1.750000e+00
  TP4q SX1eh  1 3.650000e-01    1.910000e+00
  TP3q SX1eh  1 3.650000e-01    1.910000e+00
  TP2q SX1eh  1 3.650000e-01    1.910000e+00
  TP1q SX1eh  1 3.650000e-01    1.910000e+00
  TN6q SX1eh  1 3.650000e-01    1.910000e+00
  TN5q SX1eh  1 3.650000e-01    2.110000e+00
  TN4q SX1eh  1 3.650000e-01    2.110000e+00
  TN3q SX1eh  1 3.650000e-01    2.340000e+00
  TN2q SX1eh  1 3.650000e-01    2.340000e+00
  TN1q SX1eh  1 3.650000e-01    2.340000e+00
  TC6q SX1eh  1 3.650000e-01    2.570000e+00
  TC5q SX1eh  1 3.650000e-01    2.570000e+00
  TC4q SX1eh  1 3.650000e-01    2.570000e+00
  TC3q SX1eh  1 3.650000e-01    2.570000e+00
  TC2q SX1eh  1 3.650000e-01    2.340000e+00
  TC1q SX1eh  1 3.650000e-01    2.340000e+00
  TX4q SX1eh  1 3.650000e-01    2.570000e+00
  TX3q SX1eh  1 3.650000e-01    2.830000e+00
  TX2q SX1eh  1 3.650000e-01    2.830000e+00
  TX1q SX1eh  1 3.650000e-01    3.100000e+00
  TC6e SX1eh  1 3.650000e-01    1.750000e+00
  TC5e SX1eh  1 3.650000e-01    1.750000e+00
  TC4e SX1eh  1 3.650000e-01    1.750000e+00
  TC3e SX1eh  1 3.650000e-01    1.750000e+00
  TC2e SX1eh  1 3.660000e-01    1.600000e+00
  TC1e SX1eh  1 3.660000e-01    1.600000e+00
  TX4e SX1eh  1 3.650000e-01    1.750000e+00
  TX3e SX1eh  1 3.650000e-01    1.910000e+00
  TX2e SX1eh  1 3.650000e-01    1.910000e+00
  TC6v SX1eh  1 3.650000e-01    2.340000e+00
  TC5v SX1eh  1 3.650000e-01    2.340000e+00
  TC4v SX1eh  1 3.650000e-01    2.340000e+00
  TC3v SX1eh  1 3.650000e-01    2.340000e+00
  TC2v SX1eh  1 3.650000e-01    2.110000e+00
  TC1v SX1eh  1 3.650000e-01    2.110000e+00
  TX4v SX1eh  1 3.650000e-01    2.340000e+00
  TX3v SX1eh  1 3.650000e-01    2.570000e+00
  TX2v SX1eh  1 3.650000e-01    2.570000e+00
  TX1v SX1eh  1 3.650000e-01    2.830000e+00
  TP6d SX1eh  1 3.780000e-01    1.450000e+00
  TP5d SX1eh  1 3.780000e-01    1.450000e+00
  TP4d SX1eh  1 3.660000e-01    1.600000e+00
  TP3d SX1eh  1 3.660000e-01    1.600000e+00
  TP2d SX1eh  1 3.660000e-01    1.600000e+00
  TP1d SX1eh  1 3.660000e-01    1.600000e+00
  TN6d SX1eh  1 3.660000e-01    1.600000e+00
  TN5d SX1eh  1 3.650000e-01    1.750000e+00
  TN4d SX1eh  1 3.650000e-01    1.750000e+00
  TN3d SX1eh  1 3.650000e-01    1.910000e+00
  TN2d SX1eh  1 3.650000e-01    1.910000e+00
  TN1d SX1eh  1 3.650000e-01    1.910000e+00
  TP6a SX1eh  1 4.040000e-01    1.130000e+00
  TP5a SX1eh  1 4.040000e-01    1.130000e+00
  TP4a SX1eh  1 3.940000e-01    1.290000e+00
  TP3a SX1eh  1 3.940000e-01    1.290000e+00
  TP2a SX1eh  1 3.940000e-01    1.290000e+00
  TP1a SX1eh  1 3.940000e-01    1.290000e+00
  TN6a SX1eh  1 3.940000e-01    1.290000e+00
  TN5a SX1eh  1 3.780000e-01    1.450000e+00
  TN4a SX1eh  1 3.780000e-01    1.450000e+00
  TN3a SX1eh  1 3.660000e-01    1.600000e+00
  TN2a SX1eh  1 3.660000e-01    1.600000e+00
  TN1a SX1eh  1 3.660000e-01    1.600000e+00
  TC6e SX2eh  1 3.650000e-01    1.750000e+00
  TC5e SX2eh  1 3.660000e-01    1.600000e+00
  TC4e SX2eh  1 3.660000e-01    1.600000e+00
  TC3e SX2eh  1 3.660000e-01    1.600000e+00
  TC2e SX2eh  1 3.660000e-01    1.600000e+00
  TC1e SX2eh  1 3.660000e-01    1.600000e+00
  TX4e SX2eh  1 3.650000e-01    1.750000e+00
  TX3e SX2eh  1 3.650000e-01    1.910000e+00
  TC6v SX2eh  1 3.650000e-01    2.340000e+00
  TC5v SX2eh  1 3.650000e-01    2.110000e+00
  TC4v SX2eh  1 3.650000e-01    2.110000e+00
  TC3v SX2eh  1 3.650000e-01    2.110000e+00
  TC2v SX2eh  1 3.650000e-01    2.110000e+00
  TC1v SX2eh  1 3.650000e-01    2.110000e+00
  TX4v SX2eh  1 3.650000e-01    2.340000e+00
  TX3v SX2eh  1 3.650000e-01    2.570000e+00
  TX2v SX2eh  1 3.650000e-01    2.570000e+00
  TP6d SX2eh  1 3.660000e-01    1.600000e+00
  TP5d SX2eh  1 3.650000e-01    1.750000e+00
  TP4d SX2eh  1 3.650000e-01    1.750000e+00
  TP3d SX2eh  1 3.650000e-01    1.750000e+00
  TP2d SX2eh  1 3.650000e-01    1.750000e+00
  TP1d SX2eh  1 3.650000e-01    1.750000e+00
  TN6d SX2eh  1 3.650000e-01    1.750000e+00
  TN5d SX2eh  1 3.650000e-01    1.910000e+00
  TN4d SX2eh  1 3.650000e-01    1.910000e+00
  TN3d SX2eh  1 3.650000e-01    1.910000e+00
  TN2d SX2eh  1 3.650000e-01    1.910000e+00
  TN1d SX2eh  1 3.650000e-01    1.910000e+00
  TP6a SX2eh  1 3.940000e-01    1.290000e+00
  TP5a SX2eh  1 3.780000e-01    1.450000e+00
  TP4a SX2eh  1 3.780000e-01    1.450000e+00
  TP3a SX2eh  1 3.780000e-01    1.450000e+00
  TP2a SX2eh  1 3.780000e-01    1.450000e+00
  TP1a SX2eh  1 3.780000e-01    1.450000e+00
  TN6a SX2eh  1 3.780000e-01    1.450000e+00
  TN5a SX2eh  1 3.660000e-01    1.600000e+00
  TN4a SX2eh  1 3.660000e-01    1.600000e+00
  TN3a SX2eh  1 3.660000e-01    1.600000e+00
  TN2a SX2eh  1 3.660000e-01    1.600000e+00
  TN1a SX2eh  1 3.660000e-01    1.600000e+00
  TC6e SX3eh  1 3.650000e-01    1.750000e+00
  TC5e SX3eh  1 3.660000e-01    1.600000e+00
  TC4e SX3eh  1 3.660000e-01    1.600000e+00
  TC3e SX3eh  1 3.660000e-01    1.600000e+00
  TC2e SX3eh  1 3.660000e-01    1.600000e+00
  TC1e SX3eh  1 3.660000e-01    1.600000e+00
  TX4e SX3eh  1 3.650000e-01    1.750000e+00
  TC6v SX3eh  1 3.650000e-01    2.340000e+00
  TC5v SX3eh  1 3.650000e-01    2.110000e+00
  TC4v SX3eh  1 3.650000e-01    2.110000e+00
  TC3v SX3eh  1 3.650000e-01    2.110000e+00
  TC2v SX3eh  1 3.650000e-01    2.110000e+00
  TC1v SX3eh  1 3.650000e-01    2.110000e+00
  TX4v SX3eh  1 3.650000e-01    2.340000e+00
  TX3v SX3eh  1 3.650000e-01    2.340000e+00
  TP6d SX3eh  1 3.650000e-01    1.750000e+00
  TP5d SX3eh  1 3.650000e-01    1.750000e+00
  TP4d SX3eh  1 3.650000e-01    1.750000e+00
  TP3d SX3eh  1 3.650000e-01    1.910000e+00
  TP2d SX3eh  1 3.650000e-01    1.910000e+00
  TP1d SX3eh  1 3.650000e-01    1.910000e+00
  TN6d SX3eh  1 3.650000e-01    1.910000e+00
  TN5d SX3eh  1 3.650000e-01    2.110000e+00
  TN4d SX3eh  1 3.650000e-01    2.340000e+00
  TN3d SX3eh  1 3.650000e-01    2.110000e+00
  TN2d SX3eh  1 3.650000e-01    2.110000e+00
  TN1d SX3eh  1 3.650000e-01    2.110000e+00
  TP6a SX3eh  1 3.780000e-01    1.450000e+00
  TP5a SX3eh  1 3.780000e-01    1.450000e+00
  TP4a SX3eh  1 3.780000e-01    1.450000e+00
  TP3a SX3eh  1 3.660000e-01    1.600000e+00
  TP2a SX3eh  1 3.660000e-01    1.600000e+00
  TP1a SX3eh  1 3.660000e-01    1.600000e+00
  TN6a SX3eh  1 3.660000e-01    1.600000e+00
  TN5a SX3eh  1 3.650000e-01    1.750000e+00
  TN4a SX3eh  1 3.650000e-01    1.910000e+00
  TN3a SX3eh  1 3.650000e-01    1.750000e+00
  TN2a SX3eh  1 3.650000e-01    1.750000e+00
  TN1a SX3eh  1 3.650000e-01    1.750000e+00
  TC6e SX4eh  1 3.650000e-01    1.750000e+00
  TC5e SX4eh  1 3.660000e-01    1.600000e+00
  TC4e SX4eh  1 3.660000e-01    1.600000e+00
  TC3e SX4eh  1 3.660000e-01    1.600000e+00
  TC2e SX4eh  1 3.940000e-01    1.290000e+00
  TC1e SX4eh  1 3.940000e-01    1.290000e+00
  TC6v SX4eh  1 3.650000e-01    2.340000e+00
  TC5v SX4eh  1 3.650000e-01    2.110000e+00
  TC4v SX4eh  1 3.650000e-01    2.110000e+00
  TC3v SX4eh  1 3.650000e-01    2.110000e+00
  TC2v SX4eh  1 3.650000e-01    1.750000e+00
  TC1v SX4eh  1 3.650000e-01    1.750000e+00
  TX4v SX4eh  1 3.650000e-01    2.340000e+00
  TP6d SX4eh  1 3.650000e-01    1.750000e+00
  TP5d SX4eh  1 3.650000e-01    1.910000e+00
  TP4d SX4eh  1 3.650000e-01    1.910000e+00
  TP3d SX4eh  1 3.650000e-01    1.910000e+00
  TP2d SX4eh  1 3.650000e-01    1.910000e+00
  TP1d SX4eh  1 3.650000e-01    1.910000e+00
  TN6d SX4eh  1 3.650000e-01    2.110000e+00
  TN5d SX4eh  1 3.650000e-01    2.340000e+00
  TN4d SX4eh  1 3.650000e-01    2.570000e+00
  TN3d SX4eh  1 3.650000e-01    2.340000e+00
  TN2d SX4eh  1 3.650000e-01    2.340000e+00
  TN1d SX4eh  1 3.650000e-01    2.110000e+00
  TP6a SX4eh  1 3.780000e-01    1.450000e+00
  TP5a SX4eh  1 3.660000e-01    1.600000e+00
  TP4a SX4eh  1 3.660000e-01    1.600000e+00
  TP3a SX4eh  1 3.660000e-01    1.600000e+00
  TP2a SX4eh  1 3.660000e-01    1.600000e+00
  TP1a SX4eh  1 3.660000e-01    1.600000e+00
  TN6a SX4eh  1 3.650000e-01    1.750000e+00
  TN5a SX4eh  1 3.650000e-01    1.910000e+00
  TN4a SX4eh  1 3.650000e-01    2.110000e+00
  TN3a SX4eh  1 3.650000e-01    1.910000e+00
  TN2a SX4eh  1 3.650000e-01    1.910000e+00
  TN1a SX4eh  1 3.650000e-01    1.750000e+00
  TC6e SC1eh  1 3.940000e-01    1.290000e+00
  TC5e SC1eh  1 3.780000e-01    1.450000e+00
  TC4e SC1eh  1 3.780000e-01    1.450000e+00
  TC3e SC1eh  1 3.650000e-01    1.750000e+00
  TC2e SC1eh  1 3.650000e-01    1.910000e+00
  TC6v SC1eh  1 3.650000e-01    1.750000e+00
  TC5v SC1eh  1 3.650000e-01    1.910000e+00
  TC4v SC1eh  1 3.650000e-01    1.910000e+00
  TC3v SC1eh  1 3.650000e-01    2.340000e+00
  TC2v SC1eh  1 3.650000e-01    2.570000e+00
  TC1v SC1eh  1 3.650000e-01    2.340000e+00
  TP6d SC1eh  1 4.230000e-01    9.810000e-01
  TP5d SC1eh  1 4.040000e-01    1.130000e+00
  TP4d SC1eh  1 4.040000e-01    1.130000e+00
  TP3d SC1eh  1 4.040000e-01    1.130000e+00
  TP2d SC1eh  1 3.940000e-01    1.290000e+00
  TP1d SC1eh  1 3.940000e-01    1.290000e+00
  TN6d SC1eh  1 3.780000e-01    1.450000e+00
  TN5d SC1eh  1 3.780000e-01    1.450000e+00
  TN4d SC1eh  1 3.780000e-01    1.450000e+00
  TN3d SC1eh  1 3.660000e-01    1.600000e+00
  TN2d SC1eh  1 3.660000e-01    1.600000e+00
  TN1d SC1eh  1 3.660000e-01    1.600000e+00
  TP6a SC1eh  1 5.370000e-01    8.080000e-01
  TP5a SC1eh  1 4.230000e-01    9.810000e-01
  TP4a SC1eh  1 4.230000e-01    9.810000e-01
  TP3a SC1eh  1 4.230000e-01    9.810000e-01
  TP2a SC1eh  1 4.090000e-01    1.080000e+00
  TP1a SC1eh  1 4.090000e-01    1.080000e+00
  TN6a SC1eh  1 4.040000e-01    1.130000e+00
  TN5a SC1eh  1 4.040000e-01    1.130000e+00
  TN4a SC1eh  1 4.040000e-01    1.130000e+00
  TN3a SC1eh  1 3.940000e-01    1.290000e+00
  TN2a SC1eh  1 3.940000e-01    1.290000e+00
  TN1a SC1eh  1 3.940000e-01    1.290000e+00
  TC6e SC2eh  1 3.780000e-01    1.450000e+00
  TC5e SC2eh  1 3.780000e-01    1.450000e+00
  TC4e SC2eh  1 3.660000e-01    1.600000e+00
  TC3e SC2eh  1 3.650000e-01    1.750000e+00
  TC6v SC2eh  1 3.650000e-01    1.910000e+00
  TC5v SC2eh  1 3.650000e-01    1.910000e+00
  TC4v SC2eh  1 3.650000e-01    2.110000e+00
  TC3v SC2eh  1 3.650000e-01    2.340000e+00
  TC2v SC2eh  1 3.650000e-01    2.340000e+00
  TP6d SC2eh  1 4.040000e-01    1.130000e+00
  TP5d SC2eh  1 3.940000e-01    1.290000e+00
  TP4d SC2eh  1 3.940000e-01    1.290000e+00
  TP3d SC2eh  1 3.940000e-01    1.290000e+00
  TP2d SC2eh  1 3.780000e-01    1.450000e+00
  TP1d SC2eh  1 3.780000e-01    1.450000e+00
  TN6d SC2eh  1 3.660000e-01    1.600000e+00
  TN5d SC2eh  1 3.660000e-01    1.600000e+00
  TN4d SC2eh  1 3.660000e-01    1.600000e+00
  TN3d SC2eh  1 3.650000e-01    1.750000e+00
  TN2d SC2eh  1 3.650000e-01    1.750000e+00
  TN1d SC2eh  1 3.650000e-01    1.750000e+00
  TP6a SC2eh  1 4.230000e-01    9.810000e-01
  TP5a SC2eh  1 4.090000e-01    1.080000e+00
  TP4a SC2eh  1 4.090000e-01    1.080000e+00
  TP3a SC2eh  1 4.090000e-01    1.080000e+00
  TP2a SC2eh  1 4.040000e-01    1.130000e+00
  TP1a SC2eh  1 4.040000e-01    1.130000e+00
  TN6a SC2eh  1 3.940000e-01    1.290000e+00
  TN5a SC2eh  1 3.940000e-01    1.290000e+00
  TN4a SC2eh  1 3.940000e-01    1.290000e+00
  TN3a SC2eh  1 3.780000e-01    1.450000e+00
  TN2a SC2eh  1 3.780000e-01    1.450000e+00
  TN1a SC2eh  1 3.780000e-01    1.450000e+00
  TC6e SC3eh  1 3.660000e-01    1.600000e+00
  TC5e SC3eh  1 3.660000e-01    1.600000e+00
  TC4e SC3eh  1 3.650000e-01    1.750000e+00
  TC6v SC3eh  1 3.650000e-01    2.110000e+00
  TC5v SC3eh  1 3.650000e-01    2.110000e+00
  TC4v SC3eh  1 3.650000e-01    2.340000e+00
  TC3v SC3eh  1 3.650000e-01    2.340000e+00
  TP6d SC3eh  1 4.040000e-01    1.130000e+00
  TP5d SC3eh  1 3.940000e-01    1.290000e+00
  TP4d SC3eh  1 3.940000e-01    1.290000e+00
  TP3d SC3eh  1 3.940000e-01    1.290000e+00
  TP2d SC3eh  1 3.780000e-01    1.450000e+00
  TP1d SC3eh  1 3.780000e-01    1.450000e+00
  TN6d SC3eh  1 3.660000e-01    1.600000e+00
  TN5d SC3eh  1 3.650000e-01    1.750000e+00
  TN4d SC3eh  1 3.650000e-01    1.750000e+00
  TN3d SC3eh  1 3.650000e-01    1.750000e+00
  TN2d SC3eh  1 3.650000e-01    1.910000e+00
  TN1d SC3eh  1 3.650000e-01    1.910000e+00
  TP6a SC3eh  1 4.230000e-01    9.810000e-01
  TP5a SC3eh  1 4.090000e-01    1.080000e+00
  TP4a SC3eh  1 4.090000e-01    1.080000e+00
  TP3a SC3eh  1 4.090000e-01    1.080000e+00
  TP2a SC3eh  1 4.040000e-01    1.130000e+00
  TP1a SC3eh  1 4.040000e-01    1.130000e+00
  TN6a SC3eh  1 3.940000e-01    1.290000e+00
  TN5a SC3eh  1 3.780000e-01    1.450000e+00
  TN4a SC3eh  1 3.780000e-01    1.450000e+00
  TN3a SC3eh  1 3.780000e-01    1.450000e+00
  TN2a SC3eh  1 3.660000e-01    1.600000e+00
  TN1a SC3eh  1 3.660000e-01    1.600000e+00
  TC6e SC4eh  1 3.650000e-01    1.750000e+00
  TC5e SC4eh  1 3.650000e-01    1.750000e+00
  TC6v SC4eh  1 3.650000e-01    2.340000e+00
  TC5v SC4eh  1 3.650000e-01    2.340000e+00
  TC4v SC4eh  1 3.650000e-01    2.340000e+00
  TP6d SC4eh  1 3.940000e-01    1.290000e+00
  TP5d SC4eh  1 3.780000e-01    1.450000e+00
  TP4d SC4eh  1 3.780000e-01    1.450000e+00
  TP3d SC4eh  1 3.660000e-01    1.600000e+00
  TP2d SC4eh  1 3.660000e-01    1.600000e+00
  TP1d SC4eh  1 3.660000e-01    1.600000e+00
  TN6d SC4eh  1 3.650000e-01    1.750000e+00
  TN5d SC4eh  1 3.650000e-01    1.750000e+00
  TN4d SC4eh  1 3.650000e-01    1.910000e+00
  TN3d SC4eh  1 3.650000e-01    1.910000e+00
  TN2d SC4eh  1 3.650000e-01    1.910000e+00
  TN1d SC4eh  1 3.650000e-01    2.110000e+00
  TP6a SC4eh  1 4.090000e-01    1.080000e+00
  TP5a SC4eh  1 4.040000e-01    1.130000e+00
  TP4a SC4eh  1 4.040000e-01    1.130000e+00
  TP3a SC4eh  1 3.940000e-01    1.290000e+00
  TP2a SC4eh  1 3.940000e-01    1.290000e+00
  TP1a SC4eh  1 3.940000e-01    1.290000e+00
  TN6a SC4eh  1 3.780000e-01    1.450000e+00
  TN5a SC4eh  1 3.780000e-01    1.450000e+00
  TN4a SC4eh  1 3.660000e-01    1.600000e+00
  TN3a SC4eh  1 3.660000e-01    1.600000e+00
  TN2a SC4eh  1 3.660000e-01    1.600000e+00
  TN1a SC4eh  1 3.650000e-01    1.750000e+00
  TC6e SC5eh  1 3.650000e-01    1.750000e+00
  TC6v SC5eh  1 3.650000e-01    2.340000e+00
  TC5v SC5eh  1 3.650000e-01    2.340000e+00
  TP6d SC5eh  1 3.780000e-01    1.450000e+00
  TP5d SC5eh  1 3.660000e-01    1.600000e+00
  TP4d SC5eh  1 3.660000e-01    1.600000e+00
  TP3d SC5eh  1 3.650000e-01    1.750000e+00
  TP2d SC5eh  1 3.650000e-01    1.750000e+00
  TP1d SC5eh  1 3.650000e-01    1.750000e+00
  TN6d SC5eh  1 3.650000e-01    1.910000e+00
  TN5d SC5eh  1 3.650000e-01    1.910000e+00
  TN4d SC5eh  1 3.650000e-01    1.910000e+00
  TN3d SC5eh  1 3.650000e-01    1.910000e+00
  TN2d SC5eh  1 3.650000e-01    1.910000e+00
  TN1d SC5eh  1 3.650000e-01    2.110000e+00
  TP6a SC5eh  1 4.040000e-01    1.130000e+00
  TP5a SC5eh  1 3.940000e-01    1.290000e+00
  TP4a SC5eh  1 3.940000e-01    1.290000e+00
  TP3a SC5eh  1 3.780000e-01    1.450000e+00
  TP2a SC5eh  1 3.780000e-01    1.450000e+00
  TP1a SC5eh  1 3.780000e-01    1.450000e+00
  TN6a SC5eh  1 3.660000e-01    1.600000e+00
  TN5a SC5eh  1 3.660000e-01    1.600000e+00
  TN4a SC5eh  1 3.660000e-01    1.600000e+00
  TN3a SC5eh  1 3.660000e-01    1.600000e+00
  TN2a SC5eh  1 3.660000e-01    1.600000e+00
  TN1a SC5eh  1 3.650000e-01    1.750000e+00
  TC6v SC6eh  1 3.650000e-01    2.570000e+00
  TP6d SC6eh  1 3.660000e-01    1.600000e+00
  TP5d SC6eh  1 3.660000e-01    1.600000e+00
  TP4d SC6eh  1 3.650000e-01    1.750000e+00
  TP3d SC6eh  1 3.650000e-01    1.910000e+00
  TP2d SC6eh  1 3.650000e-01    1.910000e+00
  TP1d SC6eh  1 3.650000e-01    1.910000e+00
  TN6d SC6eh  1 3.650000e-01    2.110000e+00
  TN5d SC6eh  1 3.650000e-01    2.110000e+00
  TN4d SC6eh  1 3.650000e-01    2.110000e+00
  TN3d SC6eh  1 3.650000e-01    2.110000e+00
  TN2d SC6eh  1 3.650000e-01    2.110000e+00
  TN1d SC6eh  1 3.650000e-01    2.340000e+00
  TP6a SC6eh  1 3.940000e-01    1.290000e+00
  TP5a SC6eh  1 3.940000e-01    1.290000e+00
  TP4a SC6eh  1 3.780000e-01    1.450000e+00
  TP3a SC6eh  1 3.660000e-01    1.600000e+00
  TP2a SC6eh  1 3.660000e-01    1.600000e+00
  TP1a SC6eh  1 3.660000e-01    1.600000e+00
  TN6a SC6eh  1 3.650000e-01    1.750000e+00
  TN5a SC6eh  1 3.650000e-01    1.750000e+00
  TN4a SC6eh  1 3.650000e-01    1.750000e+00
  TN3a SC6eh  1 3.650000e-01    1.750000e+00
  TN2a SC6eh  1 3.650000e-01    1.750000e+00
  TN1a SC6eh  1 3.650000e-01    1.910000e+00
  TC6v SX1vh  1 3.650000e-01    1.750000e+00
  TC5v SX1vh  1 3.650000e-01    1.750000e+00
  TC4v SX1vh  1 3.650000e-01    1.750000e+00
  TC3v SX1vh  1 3.650000e-01    1.750000e+00
  TC2v SX1vh  1 3.660000e-01    1.600000e+00
  TC1v SX1vh  1 3.660000e-01    1.600000e+00
  TX4v SX1vh  1 3.650000e-01    1.750000e+00
  TX3v SX1vh  1 3.650000e-01    1.910000e+00
  TX2v SX1vh  1 3.650000e-01    1.910000e+00
  TP6a SX1vh  1 3.780000e-01    1.450000e+00
  TP5a SX1vh  1 3.780000e-01    1.450000e+00
  TP4a SX1vh  1 3.660000e-01    1.600000e+00
  TP3a SX1vh  1 3.660000e-01    1.600000e+00
  TP2a SX1vh  1 3.660000e-01    1.600000e+00
  TP1a SX1vh  1 3.660000e-01    1.600000e+00
  TN6a SX1vh  1 3.660000e-01    1.600000e+00
  TN5a SX1vh  1 3.650000e-01    1.750000e+00
  TN4a SX1vh  1 3.650000e-01    1.750000e+00
  TN3a SX1vh  1 3.650000e-01    1.910000e+00
  TN2a SX1vh  1 3.650000e-01    1.910000e+00
  TN1a SX1vh  1 3.650000e-01    1.910000e+00
  TP6d SX1vh  1 4.040000e-01    1.130000e+00
  TP5d SX1vh  1 4.040000e-01    1.130000e+00
  TP4d SX1vh  1 3.940000e-01    1.290000e+00
  TP3d SX1vh  1 3.940000e-01    1.290000e+00
  TP2d SX1vh  1 3.940000e-01    1.290000e+00
  TP1d SX1vh  1 3.940000e-01    1.290000e+00
  TN6d SX1vh  1 3.940000e-01    1.290000e+00
  TN5d SX1vh  1 3.780000e-01    1.450000e+00
  TN4d SX1vh  1 3.780000e-01    1.450000e+00
  TN3d SX1vh  1 3.660000e-01    1.600000e+00
  TN2d SX1vh  1 3.660000e-01    1.600000e+00
  TN1d SX1vh  1 3.660000e-01    1.600000e+00
  TC6v SX2vh  1 3.650000e-01    1.750000e+00
  TC5v SX2vh  1 3.660000e-01    1.600000e+00
  TC4v SX2vh  1 3.660000e-01    1.600000e+00
  TC3v SX2vh  1 3.660000e-01    1.600000e+00
  TC2v SX2vh  1 3.660000e-01    1.600000e+00
  TC1v SX2vh  1 3.660000e-01    1.600000e+00
  TX4v SX2vh  1 3.650000e-01    1.750000e+00
  TX3v SX2vh  1 3.650000e-01    1.910000e+00
  TP6a SX2vh  1 3.660000e-01    1.600000e+00
  TP5a SX2vh  1 3.650000e-01    1.750000e+00
  TP4a SX2vh  1 3.650000e-01    1.750000e+00
  TP3a SX2vh  1 3.650000e-01    1.750000e+00
  TP2a SX2vh  1 3.650000e-01    1.750000e+00
  TP1a SX2vh  1 3.650000e-01    1.750000e+00
  TN6a SX2vh  1 3.650000e-01    1.750000e+00
  TN5a SX2vh  1 3.650000e-01    1.910000e+00
  TN4a SX2vh  1 3.650000e-01    1.910000e+00
  TN3a SX2vh  1 3.650000e-01    1.910000e+00
  TN2a SX2vh  1 3.650000e-01    1.910000e+00
  TN1a SX2vh  1 3.650000e-01    1.910000e+00
  TP6d SX2vh  1 3.940000e-01    1.290000e+00
  TP5d SX2vh  1 3.780000e-01    1.450000e+00
  TP4d SX2vh  1 3.780000e-01    1.450000e+00
  TP3d SX2vh  1 3.780000e-01    1.450000e+00
  TP2d SX2vh  1 3.780000e-01    1.450000e+00
  TP1d SX2vh  1 3.780000e-01    1.450000e+00
  TN6d SX2vh  1 3.780000e-01    1.450000e+00
  TN5d SX2vh  1 3.660000e-01    1.600000e+00
  TN4d SX2vh  1 3.660000e-01    1.600000e+00
  TN3d SX2vh  1 3.660000e-01    1.600000e+00
  TN2d SX2vh  1 3.660000e-01    1.600000e+00
  TN1d SX2vh  1 3.660000e-01    1.600000e+00
  TC6v SX3vh  1 3.650000e-01    1.750000e+00
  TC5v SX3vh  1 3.660000e-01    1.600000e+00
  TC4v SX3vh  1 3.660000e-01    1.600000e+00
  TC3v SX3vh  1 3.660000e-01    1.600000e+00
  TC2v SX3vh  1 3.660000e-01    1.600000e+00
  TC1v SX3vh  1 3.660000e-01    1.600000e+00
  TX4v SX3vh  1 3.650000e-01    1.750000e+00
  TP6a SX3vh  1 3.650000e-01    1.750000e+00
  TP5a SX3vh  1 3.650000e-01    1.750000e+00
  TP4a SX3vh  1 3.650000e-01    1.750000e+00
  TP3a SX3vh  1 3.650000e-01    1.910000e+00
  TP2a SX3vh  1 3.650000e-01    1.910000e+00
  TP1a SX3vh  1 3.650000e-01    1.910000e+00
  TN6a SX3vh  1 3.650000e-01    1.910000e+00
  TN5a SX3vh  1 3.650000e-01    2.110000e+00
  TN4a SX3vh  1 3.650000e-01    2.340000e+00
  TN3a SX3vh  1 3.650000e-01    2.110000e+00
  TN2a SX3vh  1 3.650000e-01    2.110000e+00
  TN1a SX3vh  1 3.650000e-01    2.110000e+00
  TP6d SX3vh  1 3.780000e-01    1.450000e+00
  TP5d SX3vh  1 3.780000e-01    1.450000e+00
  TP4d SX3vh  1 3.780000e-01    1.450000e+00
  TP3d SX3vh  1 3.660000e-01    1.600000e+00
  TP2d SX3vh  1 3.660000e-01    1.600000e+00
  TP1d SX3vh  1 3.660000e-01    1.600000e+00
  TN6d SX3vh  1 3.660000e-01    1.600000e+00
  TN5d SX3vh  1 3.650000e-01    1.750000e+00
  TN4d SX3vh  1 3.650000e-01    1.910000e+00
  TN3d SX3vh  1 3.650000e-01    1.750000e+00
  TN2d SX3vh  1 3.650000e-01    1.750000e+00
  TN1d SX3vh  1 3.650000e-01    1.750000e+00
  TC6v SX4vh  1 3.650000e-01    1.750000e+00
  TC5v SX4vh  1 3.660000e-01    1.600000e+00
  TC4v SX4vh  1 3.660000e-01    1.600000e+00
  TC3v SX4vh  1 3.660000e-01    1.600000e+00
  TC2v SX4vh  1 3.940000e-01    1.290000e+00
  TC1v SX4vh  1 3.940000e-01    1.290000e+00
  TP6a SX4vh  1 3.650000e-01    1.750000e+00
  TP5a SX4vh  1 3.650000e-01    1.910000e+00
  TP4a SX4vh  1 3.650000e-01    1.910000e+00
  TP3a SX4vh  1 3.650000e-01    1.910000e+00
  TP2a SX4vh  1 3.650000e-01    1.910000e+00
  TP1a SX4vh  1 3.650000e-01    1.910000e+00
  TN6a SX4vh  1 3.650000e-01    2.110000e+00
  TN5a SX4vh  1 3.650000e-01    2.340000e+00
  TN4a SX4vh  1 3.650000e-01    2.570000e+00
  TN3a SX4vh  1 3.650000e-01    2.340000e+00
  TN2a SX4vh  1 3.650000e-01    2.340000e+00
  TN1a SX4vh  1 3.650000e-01    2.110000e+00
  TP6d SX4vh  1 3.780000e-01    1.450000e+00
  TP5d SX4vh  1 3.660000e-01    1.600000e+00
  TP4d SX4vh  1 3.660000e-01    1.600000e+00
  TP3d SX4vh  1 3.660000e-01    1.600000e+00
  TP2d SX4vh  1 3.660000e-01    1.600000e+00
  TP1d SX4vh  1 3.660000e-01    1.600000e+00
  TN6d SX4vh  1 3.650000e-01    1.750000e+00
  TN5d SX4vh  1 3.650000e-01    1.910000e+00
  TN4d SX4vh  1 3.650000e-01    2.110000e+00
  TN3d SX4vh  1 3.650000e-01    1.910000e+00
  TN2d SX4vh  1 3.650000e-01    1.910000e+00
  TN1d SX4vh  1 3.650000e-01    1.750000e+00
  TC6v SC1vh  1 3.940000e-01    1.290000e+00
  TC5v SC1vh  1 3.780000e-01    1.450000e+00
  TC4v SC1vh  1 3.780000e-01    1.450000e+00
  TC3v SC1vh  1 3.650000e-01    1.750000e+00
  TC2v SC1vh  1 3.650000e-01    1.910000e+00
  TP6a SC1vh  1 4.230000e-01    9.810000e-01
  TP5a SC1vh  1 4.040000e-01    1.130000e+00
  TP4a SC1vh  1 4.040000e-01    1.130000e+00
  TP3a SC1vh  1 4.040000e-01    1.130000e+00
  TP2a SC1vh  1 3.940000e-01    1.290000e+00
  TP1a SC1vh  1 3.940000e-01    1.290000e+00
  TN6a SC1vh  1 3.780000e-01    1.450000e+00
  TN5a SC1vh  1 3.780000e-01    1.450000e+00
  TN4a SC1vh  1 3.780000e-01    1.450000e+00
  TN3a SC1vh  1 3.660000e-01    1.600000e+00
  TN2a SC1vh  1 3.660000e-01    1.600000e+00
  TN1a SC1vh  1 3.660000e-01    1.600000e+00
  TP6d SC1vh  1 5.370000e-01    8.080000e-01
  TP5d SC1vh  1 4.230000e-01    9.810000e-01
  TP4d SC1vh  1 4.230000e-01    9.810000e-01
  TP3d SC1vh  1 4.230000e-01    9.810000e-01
  TP2d SC1vh  1 4.090000e-01    1.080000e+00
  TP1d SC1vh  1 4.090000e-01    1.080000e+00
  TN6d SC1vh  1 4.040000e-01    1.130000e+00
  TN5d SC1vh  1 4.040000e-01    1.130000e+00
  TN4d SC1vh  1 4.040000e-01    1.130000e+00
  TN3d SC1vh  1 3.940000e-01    1.290000e+00
  TN2d SC1vh  1 3.940000e-01    1.290000e+00
  TN1d SC1vh  1 3.940000e-01    1.290000e+00
  TC6v SC2vh  1 3.780000e-01    1.450000e+00
  TC5v SC2vh  1 3.780000e-01    1.450000e+00
  TC4v SC2vh  1 3.660000e-01    1.600000e+00
  TC3v SC2vh  1 3.650000e-01    1.750000e+00
  TP6a SC2vh  1 4.040000e-01    1.130000e+00
  TP5a SC2vh  1 3.940000e-01    1.290000e+00
  TP4a SC2vh  1 3.940000e-01    1.290000e+00
  TP3a SC2vh  1 3.940000e-01    1.290000e+00
  TP2a SC2vh  1 3.780000e-01    1.450000e+00
  TP1a SC2vh  1 3.780000e-01    1.450000e+00
  TN6a SC2vh  1 3.660000e-01    1.600000e+00
  TN5a SC2vh  1 3.660000e-01    1.600000e+00
  TN4a SC2vh  1 3.660000e-01    1.600000e+00
  TN3a SC2vh  1 3.650000e-01    1.750000e+00
  TN2a SC2vh  1 3.650000e-01    1.750000e+00
  TN1a SC2vh  1 3.650000e-01    1.750000e+00
  TP6d SC2vh  1 4.230000e-01    9.810000e-01
  TP5d SC2vh  1 4.090000e-01    1.080000e+00
  TP4d SC2vh  1 4.090000e-01    1.080000e+00
  TP3d SC2vh  1 4.090000e-01    1.080000e+00
  TP2d SC2vh  1 4.040000e-01    1.130000e+00
  TP1d SC2vh  1 4.040000e-01    1.130000e+00
  TN6d SC2vh  1 3.940000e-01    1.290000e+00
  TN5d SC2vh  1 3.940000e-01    1.290000e+00
  TN4d SC2vh  1 3.940000e-01    1.290000e+00
  TN3d SC2vh  1 3.780000e-01    1.450000e+00
  TN2d SC2vh  1 3.780000e-01    1.450000e+00
  TN1d SC2vh  1 3.780000e-01    1.450000e+00
  TC6v SC3vh  1 3.660000e-01    1.600000e+00
  TC5v SC3vh  1 3.660000e-01    1.600000e+00
  TC4v SC3vh  1 3.650000e-01    1.750000e+00
  TP6a SC3vh  1 4.040000e-01    1.130000e+00
  TP5a SC3vh  1 3.940000e-01    1.290000e+00
  TP4a SC3vh  1 3.940000e-01    1.290000e+00
  TP3a SC3vh  1 3.940000e-01    1.290000e+00
  TP2a SC3vh  1 3.780000e-01    1.450000e+00
  TP1a SC3vh  1 3.780000e-01    1.450000e+00
  TN6a SC3vh  1 3.660000e-01    1.600000e+00
  TN5a SC3vh  1 3.650000e-01    1.750000e+00
  TN4a SC3vh  1 3.650000e-01    1.750000e+00
  TN3a SC3vh  1 3.650000e-01    1.750000e+00
  TN2a SC3vh  1 3.650000e-01    1.910000e+00
  TN1a SC3vh  1 3.650000e-01    1.910000e+00
  TP6d SC3vh  1 4.230000e-01    9.810000e-01
  TP5d SC3vh  1 4.090000e-01    1.080000e+00
  TP4d SC3vh  1 4.090000e-01    1.080000e+00
  TP3d SC3vh  1 4.090000e-01    1.080000e+00
  TP2d SC3vh  1 4.040000e-01    1.130000e+00
  TP1d SC3vh  1 4.040000e-01    1.130000e+00
  TN6d SC3vh  1 3.940000e-01    1.290000e+00
  TN5d SC3vh  1 3.780000e-01    1.450000e+00
  TN4d SC3vh  1 3.780000e-01    1.450000e+00
  TN3d SC3vh  1 3.780000e-01    1.450000e+00
  TN2d SC3vh  1 3.660000e-01    1.600000e+00
  TN1d SC3vh  1 3.660000e-01    1.600000e+00
  TC6v SC4vh  1 3.650000e-01    1.750000e+00
  TC5v SC4vh  1 3.650000e-01    1.750000e+00
  TP6a SC4vh  1 3.940000e-01    1.290000e+00
  TP5a SC4vh  1 3.780000e-01    1.450000e+00
  TP4a SC4vh  1 3.780000e-01    1.450000e+00
  TP3a SC4vh  1 3.660000e-01    1.600000e+00
  TP2a SC4vh  1 3.660000e-01    1.600000e+00
  TP1a SC4vh  1 3.660000e-01    1.600000e+00
  TN6a SC4vh  1 3.650000e-01    1.750000e+00
  TN5a SC4vh  1 3.650000e-01    1.750000e+00
  TN4a SC4vh  1 3.650000e-01    1.910000e+00
  TN3a SC4vh  1 3.650000e-01    1.910000e+00
  TN2a SC4vh  1 3.650000e-01    1.910000e+00
  TN1a SC4vh  1 3.650000e-01    2.110000e+00
  TP6d SC4vh  1 4.090000e-01    1.080000e+00
  TP5d SC4vh  1 4.040000e-01    1.130000e+00
  TP4d SC4vh  1 4.040000e-01    1.130000e+00
  TP3d SC4vh  1 3.940000e-01    1.290000e+00
  TP2d SC4vh  1 3.940000e-01    1.290000e+00
  TP1d SC4vh  1 3.940000e-01    1.290000e+00
  TN6d SC4vh  1 3.780000e-01    1.450000e+00
  TN5d SC4vh  1 3.780000e-01    1.450000e+00
  TN4d SC4vh  1 3.660000e-01    1.600000e+00
  TN3d SC4vh  1 3.660000e-01    1.600000e+00
  TN2d SC4vh  1 3.660000e-01    1.600000e+00
  TN1d SC4vh  1 3.650000e-01    1.750000e+00
  TC6v SC5vh  1 3.650000e-01    1.750000e+00
  TP6a SC5vh  1 3.780000e-01    1.450000e+00
  TP5a SC5vh  1 3.660000e-01    1.600000e+00
  TP4a SC5vh  1 3.660000e-01    1.600000e+00
  TP3a SC5vh  1 3.650000e-01    1.750000e+00
  TP2a SC5vh  1 3.650000e-01    1.750000e+00
  TP1a SC5vh  1 3.650000e-01    1.750000e+00
  TN6a SC5vh  1 3.650000e-01    1.910000e+00
  TN5a SC5vh  1 3.650000e-01    1.910000e+00
  TN4a SC5vh  1 3.650000e-01    1.910000e+00
  TN3a SC5vh  1 3.650000e-01    1.910000e+00
  TN2a SC5vh  1 3.650000e-01    1.910000e+00
  TN1a SC5vh  1 3.650000e-01    2.110000e+00
  TP6d SC5vh  1 4.040000e-01    1.130000e+00
  TP5d SC5vh  1 3.940000e-01    1.290000e+00
  TP4d SC5vh  1 3.940000e-01    1.290000e+00
  TP3d SC5vh  1 3.780000e-01    1.450000e+00
  TP2d SC5vh  1 3.780000e-01    1.450000e+00
  TP1d SC5vh  1 3.780000e-01    1.450000e+00
  TN6d SC5vh  1 3.660000e-01    1.600000e+00
  TN5d SC5vh  1 3.660000e-01    1.600000e+00
  TN4d SC5vh  1 3.660000e-01    1.600000e+00
  TN3d SC5vh  1 3.660000e-01    1.600000e+00
  TN2d SC5vh  1 3.660000e-01    1.600000e+00
  TN1d SC5vh  1 3.650000e-01    1.750000e+00
  TP6a SC6vh  1 3.660000e-01    1.600000e+00
  TP5a SC6vh  1 3.660000e-01    1.600000e+00
  TP4a SC6vh  1 3.650000e-01    1.750000e+00
  TP3a SC6vh  1 3.650000e-01    1.910000e+00
  TP2a SC6vh  1 3.650000e-01    1.910000e+00
  TP1a SC6vh  1 3.650000e-01    1.910000e+00
  TN6a SC6vh  1 3.650000e-01    2.110000e+00
  TN5a SC6vh  1 3.650000e-01    2.110000e+00
  TN4a SC6vh  1 3.650000e-01    2.110000e+00
  TN3a SC6vh  1 3.650000e-01    2.110000e+00
  TN2a SC6vh  1 3.650000e-01    2.110000e+00
  TN1a SC6vh  1 3.650000e-01    2.340000e+00
  TP6d SC6vh  1 3.940000e-01    1.290000e+00
  TP5d SC6vh  1 3.940000e-01    1.290000e+00
  TP4d SC6vh  1 3.780000e-01    1.450000e+00
  TP3d SC6vh  1 3.660000e-01    1.600000e+00
  TP2d SC6vh  1 3.660000e-01    1.600000e+00
  TP1d SC6vh  1 3.660000e-01    1.600000e+00
  TN6d SC6vh  1 3.650000e-01    1.750000e+00
  TN5d SC6vh  1 3.650000e-01    1.750000e+00
  TN4d SC6vh  1 3.650000e-01    1.750000e+00
  TN3d SC6vh  1 3.650000e-01    1.750000e+00
  TN2d SC6vh  1 3.650000e-01    1.750000e+00
  TN1d SC6vh  1 3.650000e-01    1.910000e+00
  TP6a SN1ah  1 3.780000e-01    1.450000e+00
  TP5a SN1ah  1 3.780000e-01    1.450000e+00
  TP4a SN1ah  1 3.660000e-01    1.600000e+00
  TP3a SN1ah  1 3.650000e-01    1.750000e+00
  TP2a SN1ah  1 3.650000e-01    1.750000e+00
  TP1a SN1ah  1 3.650000e-01    1.750000e+00
  TN6a SN1ah  1 3.650000e-01    1.750000e+00
  TN5a SN1ah  1 3.650000e-01    1.750000e+00
  TN4a SN1ah  1 3.650000e-01    1.750000e+00
  TN3a SN1ah  1 3.650000e-01    1.750000e+00
  TN2a SN1ah  1 3.650000e-01    1.750000e+00
  TP6d SN1ah  1 3.780000e-01    1.450000e+00
  TP5d SN1ah  1 3.780000e-01    1.450000e+00
  TP4d SN1ah  1 3.660000e-01    1.600000e+00
  TP3d SN1ah  1 3.650000e-01    1.750000e+00
  TP2d SN1ah  1 3.650000e-01    2.110000e+00
  TP1d SN1ah  1 3.650000e-01    2.110000e+00
  TN6d SN1ah  1 3.650000e-01    2.110000e+00
  TN5d SN1ah  1 3.650000e-01    2.110000e+00
  TN4d SN1ah  1 3.650000e-01    2.110000e+00
  TN3d SN1ah  1 3.650000e-01    2.110000e+00
  TN2d SN1ah  1 3.650000e-01    2.110000e+00
  TN1d SN1ah  1 3.650000e-01    2.340000e+00
  TP6a SN2ah  1 3.660000e-01    1.600000e+00
  TP5a SN2ah  1 3.660000e-01    1.600000e+00
  TP4a SN2ah  1 3.650000e-01    1.750000e+00
  TP3a SN2ah  1 3.650000e-01    1.750000e+00
  TP2a SN2ah  1 3.650000e-01    1.750000e+00
  TP1a SN2ah  1 3.650000e-01    1.750000e+00
  TN6a SN2ah  1 3.650000e-01    1.750000e+00
  TN5a SN2ah  1 3.650000e-01    1.910000e+00
  TN4a SN2ah  1 3.650000e-01    1.910000e+00
  TN3a SN2ah  1 3.650000e-01    1.910000e+00
  TP6d SN2ah  1 3.660000e-01    1.600000e+00
  TP5d SN2ah  1 3.660000e-01    1.600000e+00
  TP4d SN2ah  1 3.650000e-01    1.750000e+00
  TP3d SN2ah  1 3.650000e-01    2.110000e+00
  TP2d SN2ah  1 3.650000e-01    2.110000e+00
  TP1d SN2ah  1 3.650000e-01    2.110000e+00
  TN6d SN2ah  1 3.650000e-01    2.110000e+00
  TN5d SN2ah  1 3.650000e-01    2.340000e+00
  TN4d SN2ah  1 3.650000e-01    2.340000e+00
  TN3d SN2ah  1 3.650000e-01    2.340000e+00
  TN2d SN2ah  1 3.650000e-01    2.340000e+00
  TP6a SN3ah  1 3.650000e-01    1.750000e+00
  TP5a SN3ah  1 3.650000e-01    1.750000e+00
  TP4a SN3ah  1 3.650000e-01    1.750000e+00
  TP3a SN3ah  1 3.650000e-01    1.750000e+00
  TP2a SN3ah  1 3.650000e-01    1.750000e+00
  TP1a SN3ah  1 3.650000e-01    1.750000e+00
  TN6a SN3ah  1 3.650000e-01    1.910000e+00
  TN5a SN3ah  1 3.650000e-01    1.910000e+00
  TN4a SN3ah  1 3.650000e-01    1.910000e+00
  TP6d SN3ah  1 3.650000e-01    1.750000e+00
  TP5d SN3ah  1 3.650000e-01    1.750000e+00
  TP4d SN3ah  1 3.650000e-01    2.110000e+00
  TP3d SN3ah  1 3.650000e-01    2.110000e+00
  TP2d SN3ah  1 3.650000e-01    2.110000e+00
  TP1d SN3ah  1 3.650000e-01    2.110000e+00
  TN6d SN3ah  1 3.650000e-01    2.340000e+00
  TN5d SN3ah  1 3.650000e-01    2.340000e+00
  TN4d SN3ah  1 3.650000e-01    2.340000e+00
  TN3d SN3ah  1 3.650000e-01    2.340000e+00
  TP6a SN4ah  1 3.650000e-01    1.750000e+00
  TP5a SN4ah  1 3.650000e-01    1.910000e+00
  TP4a SN4ah  1 3.650000e-01    1.910000e+00
  TP3a SN4ah  1 3.650000e-01    1.910000e+00
  TP2a SN4ah  1 3.650000e-01    1.910000e+00
  TP1a SN4ah  1 3.650000e-01    2.110000e+00
  TN6a SN4ah  1 3.650000e-01    2.340000e+00
  TN5a SN4ah  1 3.650000e-01    2.110000e+00
  TP6d SN4ah  1 3.650000e-01    2.110000e+00
  TP5d SN4ah  1 3.650000e-01    2.340000e+00
  TP4d SN4ah  1 3.650000e-01    2.340000e+00
  TP3d SN4ah  1 3.650000e-01    2.340000e+00
  TP2d SN4ah  1 3.650000e-01    2.340000e+00
  TP1d SN4ah  1 3.650000e-01    2.570000e+00
  TN6d SN4ah  1 3.650000e-01    2.830000e+00
  TN5d SN4ah  1 3.650000e-01    2.570000e+00
  TN4d SN4ah  1 3.650000e-01    2.570000e+00
  TP6a SN5ah  1 3.650000e-01    1.910000e+00
  TP5a SN5ah  1 3.650000e-01    1.910000e+00
  TP4a SN5ah  1 3.650000e-01    1.910000e+00
  TP3a SN5ah  1 3.650000e-01    1.910000e+00
  TP2a SN5ah  1 3.650000e-01    2.110000e+00
  TP1a SN5ah  1 3.650000e-01    2.110000e+00
  TN6a SN5ah  1 3.650000e-01    2.340000e+00
  TP6d SN5ah  1 3.650000e-01    2.340000e+00
  TP5d SN5ah  1 3.650000e-01    2.340000e+00
  TP4d SN5ah  1 3.650000e-01    2.340000e+00
  TP3d SN5ah  1 3.650000e-01    2.340000e+00
  TP2d SN5ah  1 3.650000e-01    2.570000e+00
  TP1d SN5ah  1 3.650000e-01    2.570000e+00
  TN6d SN5ah  1 3.650000e-01    2.830000e+00
  TN5d SN5ah  1 3.650000e-01    2.570000e+00
  TP6a SN6ah  1 3.650000e-01    2.340000e+00
  TP5a SN6ah  1 3.650000e-01    2.110000e+00
  TP4a SN6ah  1 3.650000e-01    2.110000e+00
  TP3a SN6ah  1 3.650000e-01    2.110000e+00
  TP2a SN6ah  1 3.650000e-01    2.340000e+00
  TP1a SN6ah  1 3.650000e-01    2.340000e+00
  TP6d SN6ah  1 3.650000e-01    2.830000e+00
  TP5d SN6ah  1 3.650000e-01    2.570000e+00
  TP4d SN6ah  1 3.650000e-01    2.570000e+00
  TP3d SN6ah  1 3.650000e-01    2.570000e+00
  TP2d SN6ah  1 3.650000e-01    2.830000e+00
  TP1d SN6ah  1 3.650000e-01    2.830000e+00
  TN6d SN6ah  1 3.650000e-01    2.830000e+00
  TP6a SP1ah  1 3.650000e-01    2.570000e+00
  TP5a SP1ah  1 3.650000e-01    2.340000e+00
  TP4a SP1ah  1 3.650000e-01    2.340000e+00
  TP3a SP1ah  1 3.650000e-01    2.340000e+00
  TP2a SP1ah  1 3.650000e-01    2.340000e+00
  TP6d SP1ah  1 3.650000e-01    3.100000e+00
  TP5d SP1ah  1 3.650000e-01    2.830000e+00
  TP4d SP1ah  1 3.650000e-01    2.830000e+00
  TP3d SP1ah  1 3.650000e-01    2.830000e+00
  TP2d SP1ah  1 3.650000e-01    2.830000e+00
  TP1d SP1ah  1 3.650000e-01    2.830000e+00
  TP6a SP2ah  1 3.650000e-01    2.830000e+00
  TP5a SP2ah  1 3.650000e-01    2.570000e+00
  TP4a SP2ah  1 3.650000e-01    2.570000e+00
  TP3a SP2ah  1 3.650000e-01    2.570000e+00
  TP6d SP2ah  1 3.650000e-01    3.370000e+00
  TP5d SP2ah  1 3.650000e-01    3.100000e+00
  TP4d SP2ah  1 3.650000e-01    3.100000e+00
  TP3d SP2ah  1 3.650000e-01    3.100000e+00
  TP2d SP2ah  1 3.650000e-01    3.100000e+00
  TP6a SP3ah  1 3.650000e-01    2.830000e+00
  TP5a SP3ah  1 3.650000e-01    2.570000e+00
  TP4a SP3ah  1 3.650000e-01    2.570000e+00
  TP6d SP3ah  1 3.650000e-01    3.370000e+00
  TP5d SP3ah  1 3.650000e-01    3.100000e+00
  TP4d SP3ah  1 3.650000e-01    3.100000e+00
  TP3d SP3ah  1 3.650000e-01    3.100000e+00
  TP6a SP4ah  1 3.650000e-01    3.100000e+00
  TP5a SP4ah  1 3.650000e-01    2.830000e+00
  TP6d SP4ah  1 3.650000e-01    3.640000e+00
  TP5d SP4ah  1 3.650000e-01    3.370000e+00
  TP4d SP4ah  1 3.650000e-01    3.370000e+00
  TP6a SP5ah  1 3.650000e-01    3.370000e+00
  TP6d SP5ah  1 3.650000e-01    3.930000e+00
  TP5d SP5ah  1 3.650000e-01    3.640000e+00
  TP6d SP6ah  1 3.650000e-01    4.220000e+00
  TP6d SN1dh  1 3.780000e-01    1.450000e+00
  TP5d SN1dh  1 3.780000e-01    1.450000e+00
  TP4d SN1dh  1 3.660000e-01    1.600000e+00
  TP3d SN1dh  1 3.650000e-01    1.750000e+00
  TP2d SN1dh  1 3.650000e-01    1.750000e+00
  TP1d SN1dh  1 3.650000e-01    1.750000e+00
  TN6d SN1dh  1 3.650000e-01    1.750000e+00
  TN5d SN1dh  1 3.650000e-01    1.750000e+00
  TN4d SN1dh  1 3.650000e-01    1.750000e+00
  TN3d SN1dh  1 3.650000e-01    1.750000e+00
  TN2d SN1dh  1 3.650000e-01    1.750000e+00
  TP6d SN2dh  1 3.660000e-01    1.600000e+00
  TP5d SN2dh  1 3.660000e-01    1.600000e+00
  TP4d SN2dh  1 3.650000e-01    1.750000e+00
  TP3d SN2dh  1 3.650000e-01    1.750000e+00
  TP2d SN2dh  1 3.650000e-01    1.750000e+00
  TP1d SN2dh  1 3.650000e-01    1.750000e+00
  TN6d SN2dh  1 3.650000e-01    1.750000e+00
  TN5d SN2dh  1 3.650000e-01    1.910000e+00
  TN4d SN2dh  1 3.650000e-01    1.910000e+00
  TN3d SN2dh  1 3.650000e-01    1.910000e+00
  TP6d SN3dh  1 3.650000e-01    1.750000e+00
  TP5d SN3dh  1 3.650000e-01    1.750000e+00
  TP4d SN3dh  1 3.650000e-01    1.750000e+00
  TP3d SN3dh  1 3.650000e-01    1.750000e+00
  TP2d SN3dh  1 3.650000e-01    1.750000e+00
  TP1d SN3dh  1 3.650000e-01    1.750000e+00
  TN6d SN3dh  1 3.650000e-01    1.910000e+00
  TN5d SN3dh  1 3.650000e-01    1.910000e+00
  TN4d SN3dh  1 3.650000e-01    1.910000e+00
  TP6d SN4dh  1 3.650000e-01    1.750000e+00
  TP5d SN4dh  1 3.650000e-01    1.910000e+00
  TP4d SN4dh  1 3.650000e-01    1.910000e+00
  TP3d SN4dh  1 3.650000e-01    1.910000e+00
  TP2d SN4dh  1 3.650000e-01    1.910000e+00
  TP1d SN4dh  1 3.650000e-01    2.110000e+00
  TN6d SN4dh  1 3.650000e-01    2.340000e+00
  TN5d SN4dh  1 3.650000e-01    2.110000e+00
  TP6d SN5dh  1 3.650000e-01    1.910000e+00
  TP5d SN5dh  1 3.650000e-01    1.910000e+00
  TP4d SN5dh  1 3.650000e-01    1.910000e+00
  TP3d SN5dh  1 3.650000e-01    1.910000e+00
  TP2d SN5dh  1 3.650000e-01    2.110000e+00
  TP1d SN5dh  1 3.650000e-01    2.110000e+00
  TN6d SN5dh  1 3.650000e-01    2.340000e+00
  TP6d SN6dh  1 3.650000e-01    2.340000e+00
  TP5d SN6dh  1 3.650000e-01    2.110000e+00
  TP4d SN6dh  1 3.650000e-01    2.110000e+00
  TP3d SN6dh  1 3.650000e-01    2.110000e+00
  TP2d SN6dh  1 3.650000e-01    2.340000e+00
  TP1d SN6dh  1 3.650000e-01    2.340000e+00
  TP6d SP1dh  1 3.650000e-01    2.570000e+00
  TP5d SP1dh  1 3.650000e-01    2.340000e+00
  TP4d SP1dh  1 3.650000e-01    2.340000e+00
  TP3d SP1dh  1 3.650000e-01    2.340000e+00
  TP2d SP1dh  1 3.650000e-01    2.340000e+00
  TP6d SP2dh  1 3.650000e-01    2.830000e+00
  TP5d SP2dh  1 3.650000e-01    2.570000e+00
  TP4d SP2dh  1 3.650000e-01    2.570000e+00
  TP3d SP2dh  1 3.650000e-01    2.570000e+00
  TP6d SP3dh  1 3.650000e-01    2.830000e+00
  TP5d SP3dh  1 3.650000e-01    2.570000e+00
  TP4d SP3dh  1 3.650000e-01    2.570000e+00
  TP6d SP4dh  1 3.650000e-01    3.100000e+00
  TP5d SP4dh  1 3.650000e-01    2.830000e+00
  TP6d SP5dh  1 3.650000e-01    3.370000e+00
  TP6r SX1eq  1 3.650000e-01    1.750000e+00
  TP6r SX2eq  1 3.650000e-01    1.910000e+00
  TP6r SX3eq  1 3.650000e-01    2.110000e+00
  TP6r SX4eq  1 3.650000e-01    2.110000e+00
  TP6r SC1eq  1 4.040000e-01    1.130000e+00
  TP6r SC2eq  1 3.780000e-01    1.450000e+00
  TP6r SC3eq  1 3.780000e-01    1.450000e+00
  TP6r SC4eq  1 3.660000e-01    1.600000e+00
  TP6r SC5eq  1 3.650000e-01    1.750000e+00
  TP6r SC6eq  1 3.650000e-01    1.910000e+00
  TP6r SX1vq  1 3.650000e-01    1.750000e+00
  TP6r SX2vq  1 3.650000e-01    1.910000e+00
  TP6r SX3vq  1 3.650000e-01    2.110000e+00
  TP6r SX4vq  1 3.650000e-01    2.110000e+00
  TP6r SC1vq  1 4.040000e-01    1.130000e+00
  TP6r SC2vq  1 3.780000e-01    1.450000e+00
  TP6r SC3vq  1 3.780000e-01    1.450000e+00
  TP6r SC4vq  1 3.660000e-01    1.600000e+00
  TP6r SC5vq  1 3.650000e-01    1.750000e+00
  TP6r SC6vq  1 3.650000e-01    1.910000e+00
  TP6r SN1aq  1 3.650000e-01    1.750000e+00
  TP6r SN2aq  1 3.650000e-01    1.910000e+00
  TP6r SN3aq  1 3.650000e-01    2.110000e+00
  TP6r SN4aq  1 3.650000e-01    2.340000e+00
  TP6r SN5aq  1 3.650000e-01    2.570000e+00
  TP6r SN6aq  1 3.650000e-01    3.100000e+00
  TP6r SP1aq  1 3.650000e-01    3.370000e+00
  TP6r SP2aq  1 3.650000e-01    3.640000e+00
  TP6r SP3aq  1 3.650000e-01    3.640000e+00
  TP6r SP4aq  1 3.650000e-01    3.930000e+00
  TP6r SP5aq  1 3.650000e-01    4.220000e+00
  TP6r SP6aq  1 3.650000e-01    4.510000e+00
  TP6r SN1dq  1 3.650000e-01    1.750000e+00
  TP6r SN2dq  1 3.650000e-01    1.910000e+00
  TP6r SN3dq  1 3.650000e-01    2.110000e+00
  TP6r SN4dq  1 3.650000e-01    2.340000e+00
  TP6r SN5dq  1 3.650000e-01    2.570000e+00
  TP6r SN6dq  1 3.650000e-01    3.100000e+00
  TP6r SP1dq  1 3.650000e-01    3.370000e+00
  TP6r SP2dq  1 3.650000e-01    3.640000e+00
  TP6r SP3dq  1 3.650000e-01    3.640000e+00
  TP6r SP4dq  1 3.650000e-01    3.930000e+00
  TP6r SP5dq  1 3.650000e-01    4.220000e+00
  TP6r SP6dq  1 3.650000e-01    4.510000e+00
  TP5r SX1eq  1 3.650000e-01    1.750000e+00
  TP5r SX2eq  1 3.650000e-01    2.110000e+00
  TP5r SX3eq  1 3.650000e-01    2.110000e+00
  TP5r SX4eq  1 3.650000e-01    2.340000e+00
  TP5r SC1eq  1 3.780000e-01    1.450000e+00
  TP5r SC2eq  1 3.660000e-01    1.600000e+00
  TP5r SC3eq  1 3.660000e-01    1.600000e+00
  TP5r SC4eq  1 3.650000e-01    1.750000e+00
  TP5r SC5eq  1 3.650000e-01    1.910000e+00
  TP5r SC6eq  1 3.650000e-01    1.910000e+00
  TP5r SX1vq  1 3.650000e-01    1.750000e+00
  TP5r SX2vq  1 3.650000e-01    2.110000e+00
  TP5r SX3vq  1 3.650000e-01    2.110000e+00
  TP5r SX4vq  1 3.650000e-01    2.340000e+00
  TP5r SC1vq  1 3.780000e-01    1.450000e+00
  TP5r SC2vq  1 3.660000e-01    1.600000e+00
  TP5r SC3vq  1 3.660000e-01    1.600000e+00
  TP5r SC4vq  1 3.650000e-01    1.750000e+00
  TP5r SC5vq  1 3.650000e-01    1.910000e+00
  TP5r SC6vq  1 3.650000e-01    1.910000e+00
  TP5r SN1aq  1 3.650000e-01    1.750000e+00
  TP5r SN2aq  1 3.650000e-01    1.910000e+00
  TP5r SN3aq  1 3.650000e-01    2.110000e+00
  TP5r SN4aq  1 3.650000e-01    2.570000e+00
  TP5r SN5aq  1 3.650000e-01    2.570000e+00
  TP5r SN6aq  1 3.650000e-01    2.830000e+00
  TP5r SP1aq  1 3.650000e-01    3.100000e+00
  TP5r SP2aq  1 3.650000e-01    3.370000e+00
  TP5r SP3aq  1 3.650000e-01    3.370000e+00
  TP5r SP4aq  1 3.650000e-01    3.640000e+00
  TP5r SP5aq  1 3.650000e-01    3.930000e+00
  TP5r SN1dq  1 3.650000e-01    1.750000e+00
  TP5r SN2dq  1 3.650000e-01    1.910000e+00
  TP5r SN3dq  1 3.650000e-01    2.110000e+00
  TP5r SN4dq  1 3.650000e-01    2.570000e+00
  TP5r SN5dq  1 3.650000e-01    2.570000e+00
  TP5r SN6dq  1 3.650000e-01    2.830000e+00
  TP5r SP1dq  1 3.650000e-01    3.100000e+00
  TP5r SP2dq  1 3.650000e-01    3.370000e+00
  TP5r SP3dq  1 3.650000e-01    3.370000e+00
  TP5r SP4dq  1 3.650000e-01    3.640000e+00
  TP5r SP5dq  1 3.650000e-01    3.930000e+00
  TP4r SX1eq  1 3.650000e-01    1.910000e+00
  TP4r SX2eq  1 3.650000e-01    2.110000e+00
  TP4r SX3eq  1 3.650000e-01    2.110000e+00
  TP4r SX4eq  1 3.650000e-01    2.340000e+00
  TP4r SC1eq  1 3.780000e-01    1.450000e+00
  TP4r SC2eq  1 3.660000e-01    1.600000e+00
  TP4r SC3eq  1 3.660000e-01    1.600000e+00
  TP4r SC4eq  1 3.650000e-01    1.750000e+00
  TP4r SC5eq  1 3.650000e-01    1.910000e+00
  TP4r SC6eq  1 3.650000e-01    2.110000e+00
  TP4r SX1vq  1 3.650000e-01    1.910000e+00
  TP4r SX2vq  1 3.650000e-01    2.110000e+00
  TP4r SX3vq  1 3.650000e-01    2.110000e+00
  TP4r SX4vq  1 3.650000e-01    2.340000e+00
  TP4r SC1vq  1 3.780000e-01    1.450000e+00
  TP4r SC2vq  1 3.660000e-01    1.600000e+00
  TP4r SC3vq  1 3.660000e-01    1.600000e+00
  TP4r SC4vq  1 3.650000e-01    1.750000e+00
  TP4r SC5vq  1 3.650000e-01    1.910000e+00
  TP4r SC6vq  1 3.650000e-01    2.110000e+00
  TP4r SN1aq  1 3.650000e-01    1.910000e+00
  TP4r SN2aq  1 3.650000e-01    2.110000e+00
  TP4r SN3aq  1 3.650000e-01    2.340000e+00
  TP4r SN4aq  1 3.650000e-01    2.570000e+00
  TP4r SN5aq  1 3.650000e-01    2.570000e+00
  TP4r SN6aq  1 3.650000e-01    2.830000e+00
  TP4r SP1aq  1 3.650000e-01    3.100000e+00
  TP4r SP2aq  1 3.650000e-01    3.370000e+00
  TP4r SP3aq  1 3.650000e-01    3.370000e+00
  TP4r SP4aq  1 3.650000e-01    3.640000e+00
  TP4r SN1dq  1 3.650000e-01    1.910000e+00
  TP4r SN2dq  1 3.650000e-01    2.110000e+00
  TP4r SN3dq  1 3.650000e-01    2.340000e+00
  TP4r SN4dq  1 3.650000e-01    2.570000e+00
  TP4r SN5dq  1 3.650000e-01    2.570000e+00
  TP4r SN6dq  1 3.650000e-01    2.830000e+00
  TP4r SP1dq  1 3.650000e-01    3.100000e+00
  TP4r SP2dq  1 3.650000e-01    3.370000e+00
  TP4r SP3dq  1 3.650000e-01    3.370000e+00
  TP4r SP4dq  1 3.650000e-01    3.640000e+00
  TP3r SX1eq  1 3.650000e-01    1.910000e+00
  TP3r SX2eq  1 3.650000e-01    2.110000e+00
  TP3r SX3eq  1 3.650000e-01    2.340000e+00
  TP3r SX4eq  1 3.650000e-01    2.340000e+00
  TP3r SC1eq  1 3.780000e-01    1.450000e+00
  TP3r SC2eq  1 3.660000e-01    1.600000e+00
  TP3r SC3eq  1 3.660000e-01    1.600000e+00
  TP3r SC4eq  1 3.650000e-01    1.910000e+00
  TP3r SC5eq  1 3.650000e-01    2.110000e+00
  TP3r SC6eq  1 3.650000e-01    2.340000e+00
  TP3r SX1vq  1 3.650000e-01    1.910000e+00
  TP3r SX2vq  1 3.650000e-01    2.110000e+00
  TP3r SX3vq  1 3.650000e-01    2.340000e+00
  TP3r SX4vq  1 3.650000e-01    2.340000e+00
  TP3r SC1vq  1 3.780000e-01    1.450000e+00
  TP3r SC2vq  1 3.660000e-01    1.600000e+00
  TP3r SC3vq  1 3.660000e-01    1.600000e+00
  TP3r SC4vq  1 3.650000e-01    1.910000e+00
  TP3r SC5vq  1 3.650000e-01    2.110000e+00
  TP3r SC6vq  1 3.650000e-01    2.340000e+00
  TP3r SN1aq  1 3.650000e-01    2.110000e+00
  TP3r SN2aq  1 3.650000e-01    2.340000e+00
  TP3r SN3aq  1 3.650000e-01    2.340000e+00
  TP3r SN4aq  1 3.650000e-01    2.570000e+00
  TP3r SN5aq  1 3.650000e-01    2.570000e+00
  TP3r SN6aq  1 3.650000e-01    2.830000e+00
  TP3r SP1aq  1 3.650000e-01    3.100000e+00
  TP3r SP2aq  1 3.650000e-01    3.370000e+00
  TP3r SP3aq  1 3.650000e-01    3.370000e+00
  TP3r SN1dq  1 3.650000e-01    2.110000e+00
  TP3r SN2dq  1 3.650000e-01    2.340000e+00
  TP3r SN3dq  1 3.650000e-01    2.340000e+00
  TP3r SN4dq  1 3.650000e-01    2.570000e+00
  TP3r SN5dq  1 3.650000e-01    2.570000e+00
  TP3r SN6dq  1 3.650000e-01    2.830000e+00
  TP3r SP1dq  1 3.650000e-01    3.100000e+00
  TP3r SP2dq  1 3.650000e-01    3.370000e+00
  TP3r SP3dq  1 3.650000e-01    3.370000e+00
  TP2r SX1eq  1 3.650000e-01    1.910000e+00
  TP2r SX2eq  1 3.650000e-01    2.110000e+00
  TP2r SX3eq  1 3.650000e-01    2.340000e+00
  TP2r SX4eq  1 3.650000e-01    2.340000e+00
  TP2r SC1eq  1 3.660000e-01    1.600000e+00
  TP2r SC2eq  1 3.650000e-01    1.750000e+00
  TP2r SC3eq  1 3.650000e-01    1.750000e+00
  TP2r SC4eq  1 3.650000e-01    1.910000e+00
  TP2r SC5eq  1 3.650000e-01    2.110000e+00
  TP2r SC6eq  1 3.650000e-01    2.340000e+00
  TP2r SX1vq  1 3.650000e-01    1.910000e+00
  TP2r SX2vq  1 3.650000e-01    2.110000e+00
  TP2r SX3vq  1 3.650000e-01    2.340000e+00
  TP2r SX4vq  1 3.650000e-01    2.340000e+00
  TP2r SC1vq  1 3.660000e-01    1.600000e+00
  TP2r SC2vq  1 3.650000e-01    1.750000e+00
  TP2r SC3vq  1 3.650000e-01    1.750000e+00
  TP2r SC4vq  1 3.650000e-01    1.910000e+00
  TP2r SC5vq  1 3.650000e-01    2.110000e+00
  TP2r SC6vq  1 3.650000e-01    2.340000e+00
  TP2r SN1aq  1 3.650000e-01    2.340000e+00
  TP2r SN2aq  1 3.650000e-01    2.340000e+00
  TP2r SN3aq  1 3.650000e-01    2.340000e+00
  TP2r SN4aq  1 3.650000e-01    2.570000e+00
  TP2r SN5aq  1 3.650000e-01    2.830000e+00
  TP2r SN6aq  1 3.650000e-01    3.100000e+00
  TP2r SP1aq  1 3.650000e-01    3.100000e+00
  TP2r SP2aq  1 3.650000e-01    3.370000e+00
  TP2r SN1dq  1 3.650000e-01    2.340000e+00
  TP2r SN2dq  1 3.650000e-01    2.340000e+00
  TP2r SN3dq  1 3.650000e-01    2.340000e+00
  TP2r SN4dq  1 3.650000e-01    2.570000e+00
  TP2r SN5dq  1 3.650000e-01    2.830000e+00
  TP2r SN6dq  1 3.650000e-01    3.100000e+00
  TP2r SP1dq  1 3.650000e-01    3.100000e+00
  TP2r SP2dq  1 3.650000e-01    3.370000e+00
  TP1r SX1eq  1 3.650000e-01    1.910000e+00
  TP1r SX2eq  1 3.650000e-01    2.110000e+00
  TP1r SX3eq  1 3.650000e-01    2.340000e+00
  TP1r SX4eq  1 3.650000e-01    2.340000e+00
  TP1r SC1eq  1 3.660000e-01    1.600000e+00
  TP1r SC2eq  1 3.650000e-01    1.750000e+00
  TP1r SC3eq  1 3.650000e-01    1.750000e+00
  TP1r SC4eq  1 3.650000e-01    1.910000e+00
  TP1r SC5eq  1 3.650000e-01    2.110000e+00
  TP1r SC6eq  1 3.650000e-01    2.340000e+00
  TP1r SX1vq  1 3.650000e-01    1.910000e+00
  TP1r SX2vq  1 3.650000e-01    2.110000e+00
  TP1r SX3vq  1 3.650000e-01    2.340000e+00
  TP1r SX4vq  1 3.650000e-01    2.340000e+00
  TP1r SC1vq  1 3.660000e-01    1.600000e+00
  TP1r SC2vq  1 3.650000e-01    1.750000e+00
  TP1r SC3vq  1 3.650000e-01    1.750000e+00
  TP1r SC4vq  1 3.650000e-01    1.910000e+00
  TP1r SC5vq  1 3.650000e-01    2.110000e+00
  TP1r SC6vq  1 3.650000e-01    2.340000e+00
  TP1r SN1aq  1 3.650000e-01    2.340000e+00
  TP1r SN2aq  1 3.650000e-01    2.340000e+00
  TP1r SN3aq  1 3.650000e-01    2.340000e+00
  TP1r SN4aq  1 3.650000e-01    2.830000e+00
  TP1r SN5aq  1 3.650000e-01    2.830000e+00
  TP1r SN6aq  1 3.650000e-01    3.100000e+00
  TP1r SP1aq  1 3.650000e-01    3.100000e+00
  TP1r SN1dq  1 3.650000e-01    2.340000e+00
  TP1r SN2dq  1 3.650000e-01    2.340000e+00
  TP1r SN3dq  1 3.650000e-01    2.340000e+00
  TP1r SN4dq  1 3.650000e-01    2.830000e+00
  TP1r SN5dq  1 3.650000e-01    2.830000e+00
  TP1r SN6dq  1 3.650000e-01    3.100000e+00
  TP1r SP1dq  1 3.650000e-01    3.100000e+00
  TN6r SX1eq  1 3.650000e-01    1.910000e+00
  TN6r SX2eq  1 3.650000e-01    2.110000e+00
  TN6r SX3eq  1 3.650000e-01    2.340000e+00
  TN6r SX4eq  1 3.650000e-01    2.570000e+00
  TN6r SC1eq  1 3.650000e-01    1.750000e+00
  TN6r SC2eq  1 3.650000e-01    1.910000e+00
  TN6r SC3eq  1 3.650000e-01    1.910000e+00
  TN6r SC4eq  1 3.650000e-01    2.110000e+00
  TN6r SC5eq  1 3.650000e-01    2.340000e+00
  TN6r SC6eq  1 3.650000e-01    2.570000e+00
  TN6r SX1vq  1 3.650000e-01    1.910000e+00
  TN6r SX2vq  1 3.650000e-01    2.110000e+00
  TN6r SX3vq  1 3.650000e-01    2.340000e+00
  TN6r SX4vq  1 3.650000e-01    2.570000e+00
  TN6r SC1vq  1 3.650000e-01    1.750000e+00
  TN6r SC2vq  1 3.650000e-01    1.910000e+00
  TN6r SC3vq  1 3.650000e-01    1.910000e+00
  TN6r SC4vq  1 3.650000e-01    2.110000e+00
  TN6r SC5vq  1 3.650000e-01    2.340000e+00
  TN6r SC6vq  1 3.650000e-01    2.570000e+00
  TN6r SN1aq  1 3.650000e-01    2.340000e+00
  TN6r SN2aq  1 3.650000e-01    2.340000e+00
  TN6r SN3aq  1 3.650000e-01    2.570000e+00
  TN6r SN4aq  1 3.650000e-01    3.100000e+00
  TN6r SN5aq  1 3.650000e-01    3.100000e+00
  TN6r SN6aq  1 3.650000e-01    3.100000e+00
  TN6r SN1dq  1 3.650000e-01    2.340000e+00
  TN6r SN2dq  1 3.650000e-01    2.340000e+00
  TN6r SN3dq  1 3.650000e-01    2.570000e+00
  TN6r SN4dq  1 3.650000e-01    3.100000e+00
  TN6r SN5dq  1 3.650000e-01    3.100000e+00
  TN6r SN6dq  1 3.650000e-01    3.100000e+00
  TN5r SX1eq  1 3.650000e-01    2.110000e+00
  TN5r SX2eq  1 3.650000e-01    2.340000e+00
  TN5r SX3eq  1 3.650000e-01    2.570000e+00
  TN5r SX4eq  1 3.650000e-01    2.830000e+00
  TN5r SC1eq  1 3.650000e-01    1.750000e+00
  TN5r SC2eq  1 3.650000e-01    1.910000e+00
  TN5r SC3eq  1 3.650000e-01    2.110000e+00
  TN5r SC4eq  1 3.650000e-01    2.110000e+00
  TN5r SC5eq  1 3.650000e-01    2.340000e+00
  TN5r SC6eq  1 3.650000e-01    2.570000e+00
  TN5r SX1vq  1 3.650000e-01    2.110000e+00
  TN5r SX2vq  1 3.650000e-01    2.340000e+00
  TN5r SX3vq  1 3.650000e-01    2.570000e+00
  TN5r SX4vq  1 3.650000e-01    2.830000e+00
  TN5r SC1vq  1 3.650000e-01    1.750000e+00
  TN5r SC2vq  1 3.650000e-01    1.910000e+00
  TN5r SC3vq  1 3.650000e-01    2.110000e+00
  TN5r SC4vq  1 3.650000e-01    2.110000e+00
  TN5r SC5vq  1 3.650000e-01    2.340000e+00
  TN5r SC6vq  1 3.650000e-01    2.570000e+00
  TN5r SN1aq  1 3.650000e-01    2.340000e+00
  TN5r SN2aq  1 3.650000e-01    2.570000e+00
  TN5r SN3aq  1 3.650000e-01    2.570000e+00
  TN5r SN4aq  1 3.650000e-01    2.830000e+00
  TN5r SN5aq  1 3.650000e-01    2.830000e+00
  TN5r SN1dq  1 3.650000e-01    2.340000e+00
  TN5r SN2dq  1 3.650000e-01    2.570000e+00
  TN5r SN3dq  1 3.650000e-01    2.570000e+00
  TN5r SN4dq  1 3.650000e-01    2.830000e+00
  TN5r SN5dq  1 3.650000e-01    2.830000e+00
  TN4r SX1eq  1 3.650000e-01    2.110000e+00
  TN4r SX2eq  1 3.650000e-01    2.340000e+00
  TN4r SX3eq  1 3.650000e-01    2.830000e+00
  TN4r SX4eq  1 3.650000e-01    3.100000e+00
  TN4r SC1eq  1 3.650000e-01    1.750000e+00
  TN4r SC2eq  1 3.650000e-01    1.910000e+00
  TN4r SC3eq  1 3.650000e-01    2.110000e+00
  TN4r SC4eq  1 3.650000e-01    2.340000e+00
  TN4r SC5eq  1 3.650000e-01    2.340000e+00
  TN4r SC6eq  1 3.650000e-01    2.570000e+00
  TN4r SX1vq  1 3.650000e-01    2.110000e+00
  TN4r SX2vq  1 3.650000e-01    2.340000e+00
  TN4r SX3vq  1 3.650000e-01    2.830000e+00
  TN4r SX4vq  1 3.650000e-01    3.100000e+00
  TN4r SC1vq  1 3.650000e-01    1.750000e+00
  TN4r SC2vq  1 3.650000e-01    1.910000e+00
  TN4r SC3vq  1 3.650000e-01    2.110000e+00
  TN4r SC4vq  1 3.650000e-01    2.340000e+00
  TN4r SC5vq  1 3.650000e-01    2.340000e+00
  TN4r SC6vq  1 3.650000e-01    2.570000e+00
  TN4r SN1aq  1 3.650000e-01    2.340000e+00
  TN4r SN2aq  1 3.650000e-01    2.570000e+00
  TN4r SN3aq  1 3.650000e-01    2.570000e+00
  TN4r SN4aq  1 3.650000e-01    2.830000e+00
  TN4r SN1dq  1 3.650000e-01    2.340000e+00
  TN4r SN2dq  1 3.650000e-01    2.570000e+00
  TN4r SN3dq  1 3.650000e-01    2.570000e+00
  TN4r SN4dq  1 3.650000e-01    2.830000e+00
  TN3r SX1eq  1 3.650000e-01    2.340000e+00
  TN3r SX2eq  1 3.650000e-01    2.340000e+00
  TN3r SX3eq  1 3.650000e-01    2.570000e+00
  TN3r SX4eq  1 3.650000e-01    2.830000e+00
  TN3r SC1eq  1 3.650000e-01    1.910000e+00
  TN3r SC2eq  1 3.650000e-01    2.110000e+00
  TN3r SC3eq  1 3.650000e-01    2.110000e+00
  TN3r SC4eq  1 3.650000e-01    2.340000e+00
  TN3r SC5eq  1 3.650000e-01    2.340000e+00
  TN3r SC6eq  1 3.650000e-01    2.570000e+00
  TN3r SX1vq  1 3.650000e-01    2.340000e+00
  TN3r SX2vq  1 3.650000e-01    2.340000e+00
  TN3r SX3vq  1 3.650000e-01    2.570000e+00
  TN3r SX4vq  1 3.650000e-01    2.830000e+00
  TN3r SC1vq  1 3.650000e-01    1.910000e+00
  TN3r SC2vq  1 3.650000e-01    2.110000e+00
  TN3r SC3vq  1 3.650000e-01    2.110000e+00
  TN3r SC4vq  1 3.650000e-01    2.340000e+00
  TN3r SC5vq  1 3.650000e-01    2.340000e+00
  TN3r SC6vq  1 3.650000e-01    2.570000e+00
  TN3r SN1aq  1 3.650000e-01    2.340000e+00
  TN3r SN2aq  1 3.650000e-01    2.570000e+00
  TN3r SN3aq  1 3.650000e-01    2.570000e+00
  TN3r SN1dq  1 3.650000e-01    2.340000e+00
  TN3r SN2dq  1 3.650000e-01    2.570000e+00
  TN3r SN3dq  1 3.650000e-01    2.570000e+00
  TN2r SX1eq  1 3.650000e-01    2.340000e+00
  TN2r SX2eq  1 3.650000e-01    2.340000e+00
  TN2r SX3eq  1 3.650000e-01    2.570000e+00
  TN2r SX4eq  1 3.650000e-01    2.830000e+00
  TN2r SC1eq  1 3.650000e-01    1.910000e+00
  TN2r SC2eq  1 3.650000e-01    2.110000e+00
  TN2r SC3eq  1 3.650000e-01    2.340000e+00
  TN2r SC4eq  1 3.650000e-01    2.340000e+00
  TN2r SC5eq  1 3.650000e-01    2.340000e+00
  TN2r SC6eq  1 3.650000e-01    2.570000e+00
  TN2r SX1vq  1 3.650000e-01    2.340000e+00
  TN2r SX2vq  1 3.650000e-01    2.340000e+00
  TN2r SX3vq  1 3.650000e-01    2.570000e+00
  TN2r SX4vq  1 3.650000e-01    2.830000e+00
  TN2r SC1vq  1 3.650000e-01    1.910000e+00
  TN2r SC2vq  1 3.650000e-01    2.110000e+00
  TN2r SC3vq  1 3.650000e-01    2.340000e+00
  TN2r SC4vq  1 3.650000e-01    2.340000e+00
  TN2r SC5vq  1 3.650000e-01    2.340000e+00
  TN2r SC6vq  1 3.650000e-01    2.570000e+00
  TN2r SN1aq  1 3.650000e-01    2.340000e+00
  TN2r SN2aq  1 3.650000e-01    2.570000e+00
  TN2r SN1dq  1 3.650000e-01    2.340000e+00
  TN2r SN2dq  1 3.650000e-01    2.570000e+00
  TN1r SX1eq  1 3.650000e-01    2.340000e+00
  TN1r SX2eq  1 3.650000e-01    2.340000e+00
  TN1r SX3eq  1 3.650000e-01    2.570000e+00
  TN1r SX4eq  1 3.650000e-01    2.570000e+00
  TN1r SC1eq  1 3.650000e-01    1.910000e+00
  TN1r SC2eq  1 3.650000e-01    2.110000e+00
  TN1r SC3eq  1 3.650000e-01    2.340000e+00
  TN1r SC4eq  1 3.650000e-01    2.570000e+00
  TN1r SC5eq  1 3.650000e-01    2.570000e+00
  TN1r SC6eq  1 3.650000e-01    2.830000e+00
  TN1r SX1vq  1 3.650000e-01    2.340000e+00
  TN1r SX2vq  1 3.650000e-01    2.340000e+00
  TN1r SX3vq  1 3.650000e-01    2.570000e+00
  TN1r SX4vq  1 3.650000e-01    2.570000e+00
  TN1r SC1vq  1 3.650000e-01    1.910000e+00
  TN1r SC2vq  1 3.650000e-01    2.110000e+00
  TN1r SC3vq  1 3.650000e-01    2.340000e+00
  TN1r SC4vq  1 3.650000e-01    2.570000e+00
  TN1r SC5vq  1 3.650000e-01    2.570000e+00
  TN1r SC6vq  1 3.650000e-01    2.830000e+00
  TN1r SN1aq  1 3.650000e-01    2.570000e+00
  TN1r SN1dq  1 3.650000e-01    2.570000e+00
  TC6r SX1eq  1 3.650000e-01    2.570000e+00
  TC6r SX2eq  1 3.650000e-01    2.570000e+00
  TC6r SX3eq  1 3.650000e-01    2.570000e+00
  TC6r SX4eq  1 3.650000e-01    2.570000e+00
  TC6r SC1eq  1 3.650000e-01    1.910000e+00
  TC6r SC2eq  1 3.650000e-01    2.110000e+00
  TC6r SC3eq  1 3.650000e-01    2.340000e+00
  TC6r SC4eq  1 3.650000e-01    2.570000e+00
  TC6r SC5eq  1 3.650000e-01    2.570000e+00
  TC6r SC6eq  1 3.650000e-01    2.830000e+00
  TC6r SX1vq  1 3.650000e-01    2.570000e+00
  TC6r SX2vq  1 3.650000e-01    2.570000e+00
  TC6r SX3vq  1 3.650000e-01    2.570000e+00
  TC6r SX4vq  1 3.650000e-01    2.570000e+00
  TC6r SC1vq  1 3.650000e-01    1.910000e+00
  TC6r SC2vq  1 3.650000e-01    2.110000e+00
  TC6r SC3vq  1 3.650000e-01    2.340000e+00
  TC6r SC4vq  1 3.650000e-01    2.570000e+00
  TC6r SC5vq  1 3.650000e-01    2.570000e+00
  TC6r SC6vq  1 3.650000e-01    2.830000e+00
  TC5r SX1eq  1 3.650000e-01    2.570000e+00
  TC5r SX2eq  1 3.650000e-01    2.340000e+00
  TC5r SX3eq  1 3.650000e-01    2.340000e+00
  TC5r SX4eq  1 3.650000e-01    2.340000e+00
  TC5r SC1eq  1 3.650000e-01    2.110000e+00
  TC5r SC2eq  1 3.650000e-01    2.110000e+00
  TC5r SC3eq  1 3.650000e-01    2.340000e+00
  TC5r SC4eq  1 3.650000e-01    2.570000e+00
  TC5r SC5eq  1 3.650000e-01    2.570000e+00
  TC5r SX1vq  1 3.650000e-01    2.570000e+00
  TC5r SX2vq  1 3.650000e-01    2.340000e+00
  TC5r SX3vq  1 3.650000e-01    2.340000e+00
  TC5r SX4vq  1 3.650000e-01    2.340000e+00
  TC5r SC1vq  1 3.650000e-01    2.110000e+00
  TC5r SC2vq  1 3.650000e-01    2.110000e+00
  TC5r SC3vq  1 3.650000e-01    2.340000e+00
  TC5r SC4vq  1 3.650000e-01    2.570000e+00
  TC5r SC5vq  1 3.650000e-01    2.570000e+00
  TC4r SX1eq  1 3.650000e-01    2.570000e+00
  TC4r SX2eq  1 3.650000e-01    2.340000e+00
  TC4r SX3eq  1 3.650000e-01    2.340000e+00
  TC4r SX4eq  1 3.650000e-01    2.340000e+00
  TC4r SC1eq  1 3.650000e-01    2.110000e+00
  TC4r SC2eq  1 3.650000e-01    2.340000e+00
  TC4r SC3eq  1 3.650000e-01    2.570000e+00
  TC4r SC4eq  1 3.650000e-01    2.570000e+00
  TC4r SX1vq  1 3.650000e-01    2.570000e+00
  TC4r SX2vq  1 3.650000e-01    2.340000e+00
  TC4r SX3vq  1 3.650000e-01    2.340000e+00
  TC4r SX4vq  1 3.650000e-01    2.340000e+00
  TC4r SC1vq  1 3.650000e-01    2.110000e+00
  TC4r SC2vq  1 3.650000e-01    2.340000e+00
  TC4r SC3vq  1 3.650000e-01    2.570000e+00
  TC4r SC4vq  1 3.650000e-01    2.570000e+00
  TC3r SX1eq  1 3.650000e-01    2.570000e+00
  TC3r SX2eq  1 3.650000e-01    2.340000e+00
  TC3r SX3eq  1 3.650000e-01    2.340000e+00
  TC3r SX4eq  1 3.650000e-01    2.340000e+00
  TC3r SC1eq  1 3.650000e-01    2.570000e+00
  TC3r SC2eq  1 3.650000e-01    2.570000e+00
  TC3r SC3eq  1 3.650000e-01    2.570000e+00
  TC3r SX1vq  1 3.650000e-01    2.570000e+00
  TC3r SX2vq  1 3.650000e-01    2.340000e+00
  TC3r SX3vq  1 3.650000e-01    2.340000e+00
  TC3r SX4vq  1 3.650000e-01    2.340000e+00
  TC3r SC1vq  1 3.650000e-01    2.570000e+00
  TC3r SC2vq  1 3.650000e-01    2.570000e+00
  TC3r SC3vq  1 3.650000e-01    2.570000e+00
  TC2r SX1eq  1 3.650000e-01    2.340000e+00
  TC2r SX2eq  1 3.650000e-01    2.340000e+00
  TC2r SX3eq  1 3.650000e-01    2.340000e+00
  TC2r SX4eq  1 3.650000e-01    1.910000e+00
  TC2r SC1eq  1 3.650000e-01    2.830000e+00
  TC2r SC2eq  1 3.650000e-01    2.570000e+00
  TC2r SX1vq  1 3.650000e-01    2.340000e+00
  TC2r SX2vq  1 3.650000e-01    2.340000e+00
  TC2r SX3vq  1 3.650000e-01    2.340000e+00
  TC2r SX4vq  1 3.650000e-01    1.910000e+00
  TC2r SC1vq  1 3.650000e-01    2.830000e+00
  TC2r SC2vq  1 3.650000e-01    2.570000e+00
  TC1r SX1eq  1 3.650000e-01    2.340000e+00
  TC1r SX2eq  1 3.650000e-01    2.340000e+00
  TC1r SX3eq  1 3.650000e-01    2.340000e+00
  TC1r SX4eq  1 3.650000e-01    1.910000e+00
  TC1r SC1eq  1 3.650000e-01    2.570000e+00
  TC1r SX1vq  1 3.650000e-01    2.340000e+00
  TC1r SX2vq  1 3.650000e-01    2.340000e+00
  TC1r SX3vq  1 3.650000e-01    2.340000e+00
  TC1r SX4vq  1 3.650000e-01    1.910000e+00
  TC1r SC1vq  1 3.650000e-01    2.570000e+00
  TX4r SX1eq  1 3.650000e-01    2.570000e+00
  TX4r SX2eq  1 3.650000e-01    2.570000e+00
  TX4r SX3eq  1 3.650000e-01    2.570000e+00
  TX4r SX4eq  1 3.650000e-01    2.570000e+00
  TX4r SX1vq  1 3.650000e-01    2.570000e+00
  TX4r SX2vq  1 3.650000e-01    2.570000e+00
  TX4r SX3vq  1 3.650000e-01    2.570000e+00
  TX4r SX4vq  1 3.650000e-01    2.570000e+00
  TX3r SX1eq  1 3.650000e-01    2.830000e+00
  TX3r SX2eq  1 3.650000e-01    2.830000e+00
  TX3r SX3eq  1 3.650000e-01    2.570000e+00
  TX3r SX1vq  1 3.650000e-01    2.830000e+00
  TX3r SX2vq  1 3.650000e-01    2.830000e+00
  TX3r SX3vq  1 3.650000e-01    2.570000e+00
  TX2r SX1eq  1 3.650000e-01    2.830000e+00
  TX2r SX2eq  1 3.650000e-01    2.830000e+00
  TX2r SX1vq  1 3.650000e-01    2.830000e+00
  TX2r SX2vq  1 3.650000e-01    2.830000e+00
  TX1r SX1eq  1 3.650000e-01    3.100000e+00
  TX1r SX1vq  1 3.650000e-01    3.100000e+00
  TP6d SP6dr  1 3.650000e-01    3.640000e+00
  TP6q SP6dr  1 3.650000e-01    4.510000e+00
  TP5d SP5dr  1 3.650000e-01    3.100000e+00
  TP6a SP5dr  1 3.650000e-01    3.930000e+00
  TP6q SP5dr  1 3.650000e-01    4.220000e+00
  TP5q SP5dr  1 3.650000e-01    3.930000e+00
  TP4d SP4dr  1 3.650000e-01    2.830000e+00
  TP6a SP4dr  1 3.650000e-01    3.640000e+00
  TP5a SP4dr  1 3.650000e-01    3.370000e+00
  TP6q SP4dr  1 3.650000e-01    3.930000e+00
  TP5q SP4dr  1 3.650000e-01    3.640000e+00
  TP4q SP4dr  1 3.650000e-01    3.640000e+00
  TP3d SP3dr  1 3.650000e-01    2.570000e+00
  TP6a SP3dr  1 3.650000e-01    3.370000e+00
  TP5a SP3dr  1 3.650000e-01    3.100000e+00
  TP4a SP3dr  1 3.650000e-01    3.100000e+00
  TP6q SP3dr  1 3.650000e-01    3.640000e+00
  TP5q SP3dr  1 3.650000e-01    3.370000e+00
  TP4q SP3dr  1 3.650000e-01    3.370000e+00
  TP3q SP3dr  1 3.650000e-01    3.370000e+00
  TP2d SP2dr  1 3.650000e-01    2.570000e+00
  TP6a SP2dr  1 3.650000e-01    3.370000e+00
  TP5a SP2dr  1 3.650000e-01    3.100000e+00
  TP4a SP2dr  1 3.650000e-01    3.100000e+00
  TP3a SP2dr  1 3.650000e-01    3.100000e+00
  TP6q SP2dr  1 3.650000e-01    3.640000e+00
  TP5q SP2dr  1 3.650000e-01    3.370000e+00
  TP4q SP2dr  1 3.650000e-01    3.370000e+00
  TP3q SP2dr  1 3.650000e-01    3.370000e+00
  TP2q SP2dr  1 3.650000e-01    3.370000e+00
  TP1d SP1dr  1 3.650000e-01    2.340000e+00
  TP6a SP1dr  1 3.650000e-01    3.100000e+00
  TP5a SP1dr  1 3.650000e-01    2.830000e+00
  TP4a SP1dr  1 3.650000e-01    2.830000e+00
  TP3a SP1dr  1 3.650000e-01    2.830000e+00
  TP2a SP1dr  1 3.650000e-01    2.830000e+00
  TP6q SP1dr  1 3.650000e-01    3.370000e+00
  TP5q SP1dr  1 3.650000e-01    3.100000e+00
  TP4q SP1dr  1 3.650000e-01    3.100000e+00
  TP3q SP1dr  1 3.650000e-01    3.100000e+00
  TP2q SP1dr  1 3.650000e-01    3.100000e+00
  TP1q SP1dr  1 3.650000e-01    3.100000e+00
  TN6d SN6dr  1 3.650000e-01    2.340000e+00
  TP6a SN6dr  1 3.650000e-01    2.830000e+00
  TP5a SN6dr  1 3.650000e-01    2.570000e+00
  TP4a SN6dr  1 3.650000e-01    2.570000e+00
  TP3a SN6dr  1 3.650000e-01    2.570000e+00
  TP2a SN6dr  1 3.650000e-01    2.830000e+00
  TP1a SN6dr  1 3.650000e-01    2.830000e+00
  TP6q SN6dr  1 3.650000e-01    3.100000e+00
  TP5q SN6dr  1 3.650000e-01    2.830000e+00
  TP4q SN6dr  1 3.650000e-01    2.830000e+00
  TP3q SN6dr  1 3.650000e-01    2.830000e+00
  TP2q SN6dr  1 3.650000e-01    3.100000e+00
  TP1q SN6dr  1 3.650000e-01    3.100000e+00
  TN6q SN6dr  1 3.650000e-01    3.100000e+00
  TN5d SN5dr  1 3.650000e-01    2.110000e+00
  TP6a SN5dr  1 3.650000e-01    2.340000e+00
  TP5a SN5dr  1 3.650000e-01    2.340000e+00
  TP4a SN5dr  1 3.650000e-01    2.340000e+00
  TP3a SN5dr  1 3.650000e-01    2.340000e+00
  TP2a SN5dr  1 3.650000e-01    2.570000e+00
  TP1a SN5dr  1 3.650000e-01    2.570000e+00
  TN6a SN5dr  1 3.650000e-01    2.830000e+00
  TP6q SN5dr  1 3.650000e-01    2.570000e+00
  TP5q SN5dr  1 3.650000e-01    2.570000e+00
  TP4q SN5dr  1 3.650000e-01    2.570000e+00
  TP3q SN5dr  1 3.650000e-01    2.570000e+00
  TP2q SN5dr  1 3.650000e-01    2.830000e+00
  TP1q SN5dr  1 3.650000e-01    2.830000e+00
  TN6q SN5dr  1 3.650000e-01    3.100000e+00
  TN5q SN5dr  1 3.650000e-01    2.830000e+00
  TN4d SN4dr  1 3.650000e-01    2.110000e+00
  TP6a SN4dr  1 3.650000e-01    2.110000e+00
  TP5a SN4dr  1 3.650000e-01    2.340000e+00
  TP4a SN4dr  1 3.650000e-01    2.340000e+00
  TP3a SN4dr  1 3.650000e-01    2.340000e+00
  TP2a SN4dr  1 3.650000e-01    2.340000e+00
  TP1a SN4dr  1 3.650000e-01    2.570000e+00
  TN6a SN4dr  1 3.650000e-01    2.830000e+00
  TN5a SN4dr  1 3.650000e-01    2.570000e+00
  TP6q SN4dr  1 3.650000e-01    2.340000e+00
  TP5q SN4dr  1 3.650000e-01    2.570000e+00
  TP4q SN4dr  1 3.650000e-01    2.570000e+00
  TP3q SN4dr  1 3.650000e-01    2.570000e+00
  TP2q SN4dr  1 3.650000e-01    2.570000e+00
  TP1q SN4dr  1 3.650000e-01    2.830000e+00
  TN6q SN4dr  1 3.650000e-01    3.100000e+00
  TN5q SN4dr  1 3.650000e-01    2.830000e+00
  TN4q SN4dr  1 3.650000e-01    2.830000e+00
  TN3d SN3dr  1 3.650000e-01    1.910000e+00
  TP6a SN3dr  1 3.650000e-01    1.750000e+00
  TP5a SN3dr  1 3.650000e-01    1.750000e+00
  TP4a SN3dr  1 3.650000e-01    2.110000e+00
  TP3a SN3dr  1 3.650000e-01    2.110000e+00
  TP2a SN3dr  1 3.650000e-01    2.110000e+00
  TP1a SN3dr  1 3.650000e-01    2.110000e+00
  TN6a SN3dr  1 3.650000e-01    2.340000e+00
  TN5a SN3dr  1 3.650000e-01    2.340000e+00
  TN4a SN3dr  1 3.650000e-01    2.340000e+00
  TP6q SN3dr  1 3.650000e-01    2.110000e+00
  TP5q SN3dr  1 3.650000e-01    2.110000e+00
  TP4q SN3dr  1 3.650000e-01    2.340000e+00
  TP3q SN3dr  1 3.650000e-01    2.340000e+00
  TP2q SN3dr  1 3.650000e-01    2.340000e+00
  TP1q SN3dr  1 3.650000e-01    2.340000e+00
  TN6q SN3dr  1 3.650000e-01    2.570000e+00
  TN5q SN3dr  1 3.650000e-01    2.570000e+00
  TN4q SN3dr  1 3.650000e-01    2.570000e+00
  TN3q SN3dr  1 3.650000e-01    2.570000e+00
  TN2d SN2dr  1 3.650000e-01    1.910000e+00
  TP6a SN2dr  1 3.660000e-01    1.600000e+00
  TP5a SN2dr  1 3.660000e-01    1.600000e+00
  TP4a SN2dr  1 3.650000e-01    1.750000e+00
  TP3a SN2dr  1 3.650000e-01    2.110000e+00
  TP2a SN2dr  1 3.650000e-01    2.110000e+00
  TP1a SN2dr  1 3.650000e-01    2.110000e+00
  TN6a SN2dr  1 3.650000e-01    2.110000e+00
  TN5a SN2dr  1 3.650000e-01    2.340000e+00
  TN4a SN2dr  1 3.650000e-01    2.340000e+00
  TN3a SN2dr  1 3.650000e-01    2.340000e+00
  TP6q SN2dr  1 3.650000e-01    1.910000e+00
  TP5q SN2dr  1 3.650000e-01    1.910000e+00
  TP4q SN2dr  1 3.650000e-01    2.110000e+00
  TP3q SN2dr  1 3.650000e-01    2.340000e+00
  TP2q SN2dr  1 3.650000e-01    2.340000e+00
  TP1q SN2dr  1 3.650000e-01    2.340000e+00
  TN6q SN2dr  1 3.650000e-01    2.340000e+00
  TN5q SN2dr  1 3.650000e-01    2.570000e+00
  TN4q SN2dr  1 3.650000e-01    2.570000e+00
  TN3q SN2dr  1 3.650000e-01    2.570000e+00
  TN2q SN2dr  1 3.650000e-01    2.570000e+00
  TN1d SN1dr  1 3.650000e-01    1.910000e+00
  TP6a SN1dr  1 3.780000e-01    1.450000e+00
  TP5a SN1dr  1 3.780000e-01    1.450000e+00
  TP4a SN1dr  1 3.660000e-01    1.600000e+00
  TP3a SN1dr  1 3.650000e-01    1.750000e+00
  TP2a SN1dr  1 3.650000e-01    2.110000e+00
  TP1a SN1dr  1 3.650000e-01    2.110000e+00
  TN6a SN1dr  1 3.650000e-01    2.110000e+00
  TN5a SN1dr  1 3.650000e-01    2.110000e+00
  TN4a SN1dr  1 3.650000e-01    2.110000e+00
  TN3a SN1dr  1 3.650000e-01    2.110000e+00
  TN2a SN1dr  1 3.650000e-01    2.110000e+00
  TP6q SN1dr  1 3.650000e-01    1.750000e+00
  TP5q SN1dr  1 3.650000e-01    1.750000e+00
  TP4q SN1dr  1 3.650000e-01    1.910000e+00
  TP3q SN1dr  1 3.650000e-01    2.110000e+00
  TP2q SN1dr  1 3.650000e-01    2.340000e+00
  TP1q SN1dr  1 3.650000e-01    2.340000e+00
  TN6q SN1dr  1 3.650000e-01    2.340000e+00
  TN5q SN1dr  1 3.650000e-01    2.340000e+00
  TN4q SN1dr  1 3.650000e-01    2.340000e+00
  TN3q SN1dr  1 3.650000e-01    2.340000e+00
  TN2q SN1dr  1 3.650000e-01    2.340000e+00
  TN1q SN1dr  1 3.650000e-01    2.570000e+00
  TP6a SP6ar  1 3.650000e-01    3.640000e+00
  TP6q SP6ar  1 3.650000e-01    4.510000e+00
  TP5a SP5ar  1 3.650000e-01    3.100000e+00
  TP6q SP5ar  1 3.650000e-01    4.220000e+00
  TP5q SP5ar  1 3.650000e-01    3.930000e+00
  TP4a SP4ar  1 3.650000e-01    2.830000e+00
  TP6q SP4ar  1 3.650000e-01    3.930000e+00
  TP5q SP4ar  1 3.650000e-01    3.640000e+00
  TP4q SP4ar  1 3.650000e-01    3.640000e+00
  TP3a SP3ar  1 3.650000e-01    2.570000e+00
  TP6q SP3ar  1 3.650000e-01    3.640000e+00
  TP5q SP3ar  1 3.650000e-01    3.370000e+00
  TP4q SP3ar  1 3.650000e-01    3.370000e+00
  TP3q SP3ar  1 3.650000e-01    3.370000e+00
  TP2a SP2ar  1 3.650000e-01    2.570000e+00
  TP6q SP2ar  1 3.650000e-01    3.640000e+00
  TP5q SP2ar  1 3.650000e-01    3.370000e+00
  TP4q SP2ar  1 3.650000e-01    3.370000e+00
  TP3q SP2ar  1 3.650000e-01    3.370000e+00
  TP2q SP2ar  1 3.650000e-01    3.370000e+00
  TP1a SP1ar  1 3.650000e-01    2.340000e+00
  TP6q SP1ar  1 3.650000e-01    3.370000e+00
  TP5q SP1ar  1 3.650000e-01    3.100000e+00
  TP4q SP1ar  1 3.650000e-01    3.100000e+00
  TP3q SP1ar  1 3.650000e-01    3.100000e+00
  TP2q SP1ar  1 3.650000e-01    3.100000e+00
  TP1q SP1ar  1 3.650000e-01    3.100000e+00
  TN6a SN6ar  1 3.650000e-01    2.340000e+00
  TP6q SN6ar  1 3.650000e-01    3.100000e+00
  TP5q SN6ar  1 3.650000e-01    2.830000e+00
  TP4q SN6ar  1 3.650000e-01    2.830000e+00
  TP3q SN6ar  1 3.650000e-01    2.830000e+00
  TP2q SN6ar  1 3.650000e-01    3.100000e+00
  TP1q SN6ar  1 3.650000e-01    3.100000e+00
  TN6q SN6ar  1 3.650000e-01    3.100000e+00
  TN5a SN5ar  1 3.650000e-01    2.110000e+00
  TP6q SN5ar  1 3.650000e-01    2.570000e+00
  TP5q SN5ar  1 3.650000e-01    2.570000e+00
  TP4q SN5ar  1 3.650000e-01    2.570000e+00
  TP3q SN5ar  1 3.650000e-01    2.570000e+00
  TP2q SN5ar  1 3.650000e-01    2.830000e+00
  TP1q SN5ar  1 3.650000e-01    2.830000e+00
  TN6q SN5ar  1 3.650000e-01    3.100000e+00
  TN5q SN5ar  1 3.650000e-01    2.830000e+00
  TN4a SN4ar  1 3.650000e-01    2.110000e+00
  TP6q SN4ar  1 3.650000e-01    2.340000e+00
  TP5q SN4ar  1 3.650000e-01    2.570000e+00
  TP4q SN4ar  1 3.650000e-01    2.570000e+00
  TP3q SN4ar  1 3.650000e-01    2.570000e+00
  TP2q SN4ar  1 3.650000e-01    2.570000e+00
  TP1q SN4ar  1 3.650000e-01    2.830000e+00
  TN6q SN4ar  1 3.650000e-01    3.100000e+00
  TN5q SN4ar  1 3.650000e-01    2.830000e+00
  TN4q SN4ar  1 3.650000e-01    2.830000e+00
  TN3a SN3ar  1 3.650000e-01    1.910000e+00
  TP6q SN3ar  1 3.650000e-01    2.110000e+00
  TP5q SN3ar  1 3.650000e-01    2.110000e+00
  TP4q SN3ar  1 3.650000e-01    2.340000e+00
  TP3q SN3ar  1 3.650000e-01    2.340000e+00
  TP2q SN3ar  1 3.650000e-01    2.340000e+00
  TP1q SN3ar  1 3.650000e-01    2.340000e+00
  TN6q SN3ar  1 3.650000e-01    2.570000e+00
  TN5q SN3ar  1 3.650000e-01    2.570000e+00
  TN4q SN3ar  1 3.650000e-01    2.570000e+00
  TN3q SN3ar  1 3.650000e-01    2.570000e+00
  TN2a SN2ar  1 3.650000e-01    1.910000e+00
  TP6q SN2ar  1 3.650000e-01    1.910000e+00
  TP5q SN2ar  1 3.650000e-01    1.910000e+00
  TP4q SN2ar  1 3.650000e-01    2.110000e+00
  TP3q SN2ar  1 3.650000e-01    2.340000e+00
  TP2q SN2ar  1 3.650000e-01    2.340000e+00
  TP1q SN2ar  1 3.650000e-01    2.340000e+00
  TN6q SN2ar  1 3.650000e-01    2.340000e+00
  TN5q SN2ar  1 3.650000e-01    2.570000e+00
  TN4q SN2ar  1 3.650000e-01    2.570000e+00
  TN3q SN2ar  1 3.650000e-01    2.570000e+00
  TN2q SN2ar  1 3.650000e-01    2.570000e+00
  TN1a SN1ar  1 3.650000e-01    1.910000e+00
  TP6q SN1ar  1 3.650000e-01    1.750000e+00
  TP5q SN1ar  1 3.650000e-01    1.750000e+00
  TP4q SN1ar  1 3.650000e-01    1.910000e+00
  TP3q SN1ar  1 3.650000e-01    2.110000e+00
  TP2q SN1ar  1 3.650000e-01    2.340000e+00
  TP1q SN1ar  1 3.650000e-01    2.340000e+00
  TN6q SN1ar  1 3.650000e-01    2.340000e+00
  TN5q SN1ar  1 3.650000e-01    2.340000e+00
  TN4q SN1ar  1 3.650000e-01    2.340000e+00
  TN3q SN1ar  1 3.650000e-01    2.340000e+00
  TN2q SN1ar  1 3.650000e-01    2.340000e+00
  TN1q SN1ar  1 3.650000e-01    2.570000e+00
  TC6v SC6vr  1 3.650000e-01    1.910000e+00
  TP6q SC6vr  1 3.650000e-01    1.910000e+00
  TP5q SC6vr  1 3.650000e-01    1.910000e+00
  TP4q SC6vr  1 3.650000e-01    2.110000e+00
  TP3q SC6vr  1 3.650000e-01    2.340000e+00
  TP2q SC6vr  1 3.650000e-01    2.340000e+00
  TP1q SC6vr  1 3.650000e-01    2.340000e+00
  TN6q SC6vr  1 3.650000e-01    2.570000e+00
  TN5q SC6vr  1 3.650000e-01    2.570000e+00
  TN4q SC6vr  1 3.650000e-01    2.570000e+00
  TN3q SC6vr  1 3.650000e-01    2.570000e+00
  TN2q SC6vr  1 3.650000e-01    2.570000e+00
  TN1q SC6vr  1 3.650000e-01    2.830000e+00
  TC6q SC6vr  1 3.650000e-01    2.830000e+00
  TC5v SC5vr  1 3.650000e-01    1.750000e+00
  TC6e SC5vr  1 3.650000e-01    2.340000e+00
  TP6q SC5vr  1 3.650000e-01    1.750000e+00
  TP5q SC5vr  1 3.650000e-01    1.910000e+00
  TP4q SC5vr  1 3.650000e-01    1.910000e+00
  TP3q SC5vr  1 3.650000e-01    2.110000e+00
  TP2q SC5vr  1 3.650000e-01    2.110000e+00
  TP1q SC5vr  1 3.650000e-01    2.110000e+00
  TN6q SC5vr  1 3.650000e-01    2.340000e+00
  TN5q SC5vr  1 3.650000e-01    2.340000e+00
  TN4q SC5vr  1 3.650000e-01    2.340000e+00
  TN3q SC5vr  1 3.650000e-01    2.340000e+00
  TN2q SC5vr  1 3.650000e-01    2.340000e+00
  TN1q SC5vr  1 3.650000e-01    2.570000e+00
  TC6q SC5vr  1 3.650000e-01    2.570000e+00
  TC5q SC5vr  1 3.650000e-01    2.570000e+00
  TC4v SC4vr  1 3.650000e-01    1.750000e+00
  TC6e SC4vr  1 3.650000e-01    2.340000e+00
  TC5e SC4vr  1 3.650000e-01    2.340000e+00
  TP6q SC4vr  1 3.660000e-01    1.600000e+00
  TP5q SC4vr  1 3.650000e-01    1.750000e+00
  TP4q SC4vr  1 3.650000e-01    1.750000e+00
  TP3q SC4vr  1 3.650000e-01    1.910000e+00
  TP2q SC4vr  1 3.650000e-01    1.910000e+00
  TP1q SC4vr  1 3.650000e-01    1.910000e+00
  TN6q SC4vr  1 3.650000e-01    2.110000e+00
  TN5q SC4vr  1 3.650000e-01    2.110000e+00
  TN4q SC4vr  1 3.650000e-01    2.340000e+00
  TN3q SC4vr  1 3.650000e-01    2.340000e+00
  TN2q SC4vr  1 3.650000e-01    2.340000e+00
  TN1q SC4vr  1 3.650000e-01    2.570000e+00
  TC6q SC4vr  1 3.650000e-01    2.570000e+00
  TC5q SC4vr  1 3.650000e-01    2.570000e+00
  TC4q SC4vr  1 3.650000e-01    2.570000e+00
  TC3v SC3vr  1 3.650000e-01    1.750000e+00
  TC6e SC3vr  1 3.650000e-01    2.110000e+00
  TC5e SC3vr  1 3.650000e-01    2.110000e+00
  TC4e SC3vr  1 3.650000e-01    2.340000e+00
  TP6q SC3vr  1 3.780000e-01    1.450000e+00
  TP5q SC3vr  1 3.660000e-01    1.600000e+00
  TP4q SC3vr  1 3.660000e-01    1.600000e+00
  TP3q SC3vr  1 3.660000e-01    1.600000e+00
  TP2q SC3vr  1 3.650000e-01    1.750000e+00
  TP1q SC3vr  1 3.650000e-01    1.750000e+00
  TN6q SC3vr  1 3.650000e-01    1.910000e+00
  TN5q SC3vr  1 3.650000e-01    2.110000e+00
  TN4q SC3vr  1 3.650000e-01    2.110000e+00
  TN3q SC3vr  1 3.650000e-01    2.110000e+00
  TN2q SC3vr  1 3.650000e-01    2.340000e+00
  TN1q SC3vr  1 3.650000e-01    2.340000e+00
  TC6q SC3vr  1 3.650000e-01    2.340000e+00
  TC5q SC3vr  1 3.650000e-01    2.340000e+00
  TC4q SC3vr  1 3.650000e-01    2.570000e+00
  TC3q SC3vr  1 3.650000e-01    2.570000e+00
  TC2v SC2vr  1 3.650000e-01    1.750000e+00
  TC6e SC2vr  1 3.650000e-01    1.910000e+00
  TC5e SC2vr  1 3.650000e-01    1.910000e+00
  TC4e SC2vr  1 3.650000e-01    2.110000e+00
  TC3e SC2vr  1 3.650000e-01    2.340000e+00
  TP6q SC2vr  1 3.780000e-01    1.450000e+00
  TP5q SC2vr  1 3.660000e-01    1.600000e+00
  TP4q SC2vr  1 3.660000e-01    1.600000e+00
  TP3q SC2vr  1 3.660000e-01    1.600000e+00
  TP2q SC2vr  1 3.650000e-01    1.750000e+00
  TP1q SC2vr  1 3.650000e-01    1.750000e+00
  TN6q SC2vr  1 3.650000e-01    1.910000e+00
  TN5q SC2vr  1 3.650000e-01    1.910000e+00
  TN4q SC2vr  1 3.650000e-01    1.910000e+00
  TN3q SC2vr  1 3.650000e-01    2.110000e+00
  TN2q SC2vr  1 3.650000e-01    2.110000e+00
  TN1q SC2vr  1 3.650000e-01    2.110000e+00
  TC6q SC2vr  1 3.650000e-01    2.110000e+00
  TC5q SC2vr  1 3.650000e-01    2.110000e+00
  TC4q SC2vr  1 3.650000e-01    2.340000e+00
  TC3q SC2vr  1 3.650000e-01    2.570000e+00
  TC2q SC2vr  1 3.650000e-01    2.570000e+00
  TC1v SC1vr  1 3.650000e-01    1.750000e+00
  TC6e SC1vr  1 3.650000e-01    1.750000e+00
  TC5e SC1vr  1 3.650000e-01    1.910000e+00
  TC4e SC1vr  1 3.650000e-01    1.910000e+00
  TC3e SC1vr  1 3.650000e-01    2.340000e+00
  TC2e SC1vr  1 3.650000e-01    2.570000e+00
  TP6q SC1vr  1 4.040000e-01    1.130000e+00
  TP5q SC1vr  1 3.780000e-01    1.450000e+00
  TP4q SC1vr  1 3.780000e-01    1.450000e+00
  TP3q SC1vr  1 3.780000e-01    1.450000e+00
  TP2q SC1vr  1 3.660000e-01    1.600000e+00
  TP1q SC1vr  1 3.660000e-01    1.600000e+00
  TN6q SC1vr  1 3.650000e-01    1.750000e+00
  TN5q SC1vr  1 3.650000e-01    1.750000e+00
  TN4q SC1vr  1 3.650000e-01    1.750000e+00
  TN3q SC1vr  1 3.650000e-01    1.910000e+00
  TN2q SC1vr  1 3.650000e-01    1.910000e+00
  TN1q SC1vr  1 3.650000e-01    1.910000e+00
  TC6q SC1vr  1 3.650000e-01    1.910000e+00
  TC5q SC1vr  1 3.650000e-01    2.110000e+00
  TC4q SC1vr  1 3.650000e-01    2.110000e+00
  TC3q SC1vr  1 3.650000e-01    2.570000e+00
  TC2q SC1vr  1 3.650000e-01    2.830000e+00
  TC1q SC1vr  1 3.650000e-01    2.570000e+00
  TX4v SX4vr  1 3.650000e-01    1.750000e+00
  TC6e SX4vr  1 3.650000e-01    2.340000e+00
  TC5e SX4vr  1 3.650000e-01    2.110000e+00
  TC4e SX4vr  1 3.650000e-01    2.110000e+00
  TC3e SX4vr  1 3.650000e-01    2.110000e+00
  TC2e SX4vr  1 3.650000e-01    1.750000e+00
  TC1e SX4vr  1 3.650000e-01    1.750000e+00
  TP6q SX4vr  1 3.650000e-01    2.110000e+00
  TP5q SX4vr  1 3.650000e-01    2.340000e+00
  TP4q SX4vr  1 3.650000e-01    2.340000e+00
  TP3q SX4vr  1 3.650000e-01    2.340000e+00
  TP2q SX4vr  1 3.650000e-01    2.340000e+00
  TP1q SX4vr  1 3.650000e-01    2.340000e+00
  TN6q SX4vr  1 3.650000e-01    2.570000e+00
  TN5q SX4vr  1 3.650000e-01    2.830000e+00
  TN4q SX4vr  1 3.650000e-01    3.100000e+00
  TN3q SX4vr  1 3.650000e-01    2.830000e+00
  TN2q SX4vr  1 3.650000e-01    2.830000e+00
  TN1q SX4vr  1 3.650000e-01    2.570000e+00
  TC6q SX4vr  1 3.650000e-01    2.570000e+00
  TC5q SX4vr  1 3.650000e-01    2.340000e+00
  TC4q SX4vr  1 3.650000e-01    2.340000e+00
  TC3q SX4vr  1 3.650000e-01    2.340000e+00
  TC2q SX4vr  1 3.650000e-01    1.910000e+00
  TC1q SX4vr  1 3.650000e-01    1.910000e+00
  TX4q SX4vr  1 3.650000e-01    2.570000e+00
  TX3v SX3vr  1 3.650000e-01    1.750000e+00
  TC6e SX3vr  1 3.650000e-01    2.340000e+00
  TC5e SX3vr  1 3.650000e-01    2.110000e+00
  TC4e SX3vr  1 3.650000e-01    2.110000e+00
  TC3e SX3vr  1 3.650000e-01    2.110000e+00
  TC2e SX3vr  1 3.650000e-01    2.110000e+00
  TC1e SX3vr  1 3.650000e-01    2.110000e+00
  TX4e SX3vr  1 3.650000e-01    2.340000e+00
  TP6q SX3vr  1 3.650000e-01    2.110000e+00
  TP5q SX3vr  1 3.650000e-01    2.110000e+00
  TP4q SX3vr  1 3.650000e-01    2.110000e+00
  TP3q SX3vr  1 3.650000e-01    2.340000e+00
  TP2q SX3vr  1 3.650000e-01    2.340000e+00
  TP1q SX3vr  1 3.650000e-01    2.340000e+00
  TN6q SX3vr  1 3.650000e-01    2.340000e+00
  TN5q SX3vr  1 3.650000e-01    2.570000e+00
  TN4q SX3vr  1 3.650000e-01    2.830000e+00
  TN3q SX3vr  1 3.650000e-01    2.570000e+00
  TN2q SX3vr  1 3.650000e-01    2.570000e+00
  TN1q SX3vr  1 3.650000e-01    2.570000e+00
  TC6q SX3vr  1 3.650000e-01    2.570000e+00
  TC5q SX3vr  1 3.650000e-01    2.340000e+00
  TC4q SX3vr  1 3.650000e-01    2.340000e+00
  TC3q SX3vr  1 3.650000e-01    2.340000e+00
  TC2q SX3vr  1 3.650000e-01    2.340000e+00
  TC1q SX3vr  1 3.650000e-01    2.340000e+00
  TX4q SX3vr  1 3.650000e-01    2.570000e+00
  TX3q SX3vr  1 3.650000e-01    2.570000e+00
  TX2v SX2vr  1 3.650000e-01    1.910000e+00
  TC6e SX2vr  1 3.650000e-01    2.340000e+00
  TC5e SX2vr  1 3.650000e-01    2.110000e+00
  TC4e SX2vr  1 3.650000e-01    2.110000e+00
  TC3e SX2vr  1 3.650000e-01    2.110000e+00
  TC2e SX2vr  1 3.650000e-01    2.110000e+00
  TC1e SX2vr  1 3.650000e-01    2.110000e+00
  TX4e SX2vr  1 3.650000e-01    2.340000e+00
  TX3e SX2vr  1 3.650000e-01    2.570000e+00
  TP6q SX2vr  1 3.650000e-01    1.910000e+00
  TP5q SX2vr  1 3.650000e-01    2.110000e+00
  TP4q SX2vr  1 3.650000e-01    2.110000e+00
  TP3q SX2vr  1 3.650000e-01    2.110000e+00
  TP2q SX2vr  1 3.650000e-01    2.110000e+00
  TP1q SX2vr  1 3.650000e-01    2.110000e+00
  TN6q SX2vr  1 3.650000e-01    2.110000e+00
  TN5q SX2vr  1 3.650000e-01    2.340000e+00
  TN4q SX2vr  1 3.650000e-01    2.340000e+00
  TN3q SX2vr  1 3.650000e-01    2.340000e+00
  TN2q SX2vr  1 3.650000e-01    2.340000e+00
  TN1q SX2vr  1 3.650000e-01    2.340000e+00
  TC6q SX2vr  1 3.650000e-01    2.570000e+00
  TC5q SX2vr  1 3.650000e-01    2.340000e+00
  TC4q SX2vr  1 3.650000e-01    2.340000e+00
  TC3q SX2vr  1 3.650000e-01    2.340000e+00
  TC2q SX2vr  1 3.650000e-01    2.340000e+00
  TC1q SX2vr  1 3.650000e-01    2.340000e+00
  TX4q SX2vr  1 3.650000e-01    2.570000e+00
  TX3q SX2vr  1 3.650000e-01    2.830000e+00
  TX2q SX2vr  1 3.650000e-01    2.830000e+00
  TX1v SX1vr  1 3.650000e-01    2.110000e+00
  TC6e SX1vr  1 3.650000e-01    2.340000e+00
  TC5e SX1vr  1 3.650000e-01    2.340000e+00
  TC4e SX1vr  1 3.650000e-01    2.340000e+00
  TC3e SX1vr  1 3.650000e-01    2.340000e+00
  TC2e SX1vr  1 3.650000e-01    2.110000e+00
  TC1e SX1vr  1 3.650000e-01    2.110000e+00
  TX4e SX1vr  1 3.650000e-01    2.340000e+00
  TX3e SX1vr  1 3.650000e-01    2.570000e+00
  TX2e SX1vr  1 3.650000e-01    2.570000e+00
  TP6q SX1vr  1 3.650000e-01    1.750000e+00
  TP5q SX1vr  1 3.650000e-01    1.750000e+00
  TP4q SX1vr  1 3.650000e-01    1.910000e+00
  TP3q SX1vr  1 3.650000e-01    1.910000e+00
  TP2q SX1vr  1 3.650000e-01    1.910000e+00
  TP1q SX1vr  1 3.650000e-01    1.910000e+00
  TN6q SX1vr  1 3.650000e-01    1.910000e+00
  TN5q SX1vr  1 3.650000e-01    2.110000e+00
  TN4q SX1vr  1 3.650000e-01    2.110000e+00
  TN3q SX1vr  1 3.650000e-01    2.340000e+00
  TN2q SX1vr  1 3.650000e-01    2.340000e+00
  TN1q SX1vr  1 3.650000e-01    2.340000e+00
  TC6q SX1vr  1 3.650000e-01    2.570000e+00
  TC5q SX1vr  1 3.650000e-01    2.570000e+00
  TC4q SX1vr  1 3.650000e-01    2.570000e+00
  TC3q SX1vr  1 3.650000e-01    2.570000e+00
  TC2q SX1vr  1 3.650000e-01    2.340000e+00
  TC1q SX1vr  1 3.650000e-01    2.340000e+00
  TX4q SX1vr  1 3.650000e-01    2.570000e+00
  TX3q SX1vr  1 3.650000e-01    2.830000e+00
  TX2q SX1vr  1 3.650000e-01    2.830000e+00
  TX1q SX1vr  1 3.650000e-01    3.100000e+00
  TC6e SC6er  1 3.650000e-01    1.910000e+00
  TP6q SC6er  1 3.650000e-01    1.910000e+00
  TP5q SC6er  1 3.650000e-01    1.910000e+00
  TP4q SC6er  1 3.650000e-01    2.110000e+00
  TP3q SC6er  1 3.650000e-01    2.340000e+00
  TP2q SC6er  1 3.650000e-01    2.340000e+00
  TP1q SC6er  1 3.650000e-01    2.340000e+00
  TN6q SC6er  1 3.650000e-01    2.570000e+00
  TN5q SC6er  1 3.650000e-01    2.570000e+00
  TN4q SC6er  1 3.650000e-01    2.570000e+00
  TN3q SC6er  1 3.650000e-01    2.570000e+00
  TN2q SC6er  1 3.650000e-01    2.570000e+00
  TN1q SC6er  1 3.650000e-01    2.830000e+00
  TC6q SC6er  1 3.650000e-01    2.830000e+00
  TC5e SC5er  1 3.650000e-01    1.750000e+00
  TP6q SC5er  1 3.650000e-01    1.750000e+00
  TP5q SC5er  1 3.650000e-01    1.910000e+00
  TP4q SC5er  1 3.650000e-01    1.910000e+00
  TP3q SC5er  1 3.650000e-01    2.110000e+00
  TP2q SC5er  1 3.650000e-01    2.110000e+00
  TP1q SC5er  1 3.650000e-01    2.110000e+00
  TN6q SC5er  1 3.650000e-01    2.340000e+00
  TN5q SC5er  1 3.650000e-01    2.340000e+00
  TN4q SC5er  1 3.650000e-01    2.340000e+00
  TN3q SC5er  1 3.650000e-01    2.340000e+00
  TN2q SC5er  1 3.650000e-01    2.340000e+00
  TN1q SC5er  1 3.650000e-01    2.570000e+00
  TC6q SC5er  1 3.650000e-01    2.570000e+00
  TC5q SC5er  1 3.650000e-01    2.570000e+00
  TC4e SC4er  1 3.650000e-01    1.750000e+00
  TP6q SC4er  1 3.660000e-01    1.600000e+00
  TP5q SC4er  1 3.650000e-01    1.750000e+00
  TP4q SC4er  1 3.650000e-01    1.750000e+00
  TP3q SC4er  1 3.650000e-01    1.910000e+00
  TP2q SC4er  1 3.650000e-01    1.910000e+00
  TP1q SC4er  1 3.650000e-01    1.910000e+00
  TN6q SC4er  1 3.650000e-01    2.110000e+00
  TN5q SC4er  1 3.650000e-01    2.110000e+00
  TN4q SC4er  1 3.650000e-01    2.340000e+00
  TN3q SC4er  1 3.650000e-01    2.340000e+00
  TN2q SC4er  1 3.650000e-01    2.340000e+00
  TN1q SC4er  1 3.650000e-01    2.570000e+00
  TC6q SC4er  1 3.650000e-01    2.570000e+00
  TC5q SC4er  1 3.650000e-01    2.570000e+00
  TC4q SC4er  1 3.650000e-01    2.570000e+00
  TC3e SC3er  1 3.650000e-01    1.750000e+00
  TP6q SC3er  1 3.780000e-01    1.450000e+00
  TP5q SC3er  1 3.660000e-01    1.600000e+00
  TP4q SC3er  1 3.660000e-01    1.600000e+00
  TP3q SC3er  1 3.660000e-01    1.600000e+00
  TP2q SC3er  1 3.650000e-01    1.750000e+00
  TP1q SC3er  1 3.650000e-01    1.750000e+00
  TN6q SC3er  1 3.650000e-01    1.910000e+00
  TN5q SC3er  1 3.650000e-01    2.110000e+00
  TN4q SC3er  1 3.650000e-01    2.110000e+00
  TN3q SC3er  1 3.650000e-01    2.110000e+00
  TN2q SC3er  1 3.650000e-01    2.340000e+00
  TN1q SC3er  1 3.650000e-01    2.340000e+00
  TC6q SC3er  1 3.650000e-01    2.340000e+00
  TC5q SC3er  1 3.650000e-01    2.340000e+00
  TC4q SC3er  1 3.650000e-01    2.570000e+00
  TC3q SC3er  1 3.650000e-01    2.570000e+00
  TC2e SC2er  1 3.650000e-01    1.750000e+00
  TP6q SC2er  1 3.780000e-01    1.450000e+00
  TP5q SC2er  1 3.660000e-01    1.600000e+00
  TP4q SC2er  1 3.660000e-01    1.600000e+00
  TP3q SC2er  1 3.660000e-01    1.600000e+00
  TP2q SC2er  1 3.650000e-01    1.750000e+00
  TP1q SC2er  1 3.650000e-01    1.750000e+00
  TN6q SC2er  1 3.650000e-01    1.910000e+00
  TN5q SC2er  1 3.650000e-01    1.910000e+00
  TN4q SC2er  1 3.650000e-01    1.910000e+00
  TN3q SC2er  1 3.650000e-01    2.110000e+00
  TN2q SC2er  1 3.650000e-01    2.110000e+00
  TN1q SC2er  1 3.650000e-01    2.110000e+00
  TC6q SC2er  1 3.650000e-01    2.110000e+00
  TC5q SC2er  1 3.650000e-01    2.110000e+00
  TC4q SC2er  1 3.650000e-01    2.340000e+00
  TC3q SC2er  1 3.650000e-01    2.570000e+00
  TC2q SC2er  1 3.650000e-01    2.570000e+00
  TC1e SC1er  1 3.650000e-01    1.750000e+00
  TP6q SC1er  1 4.040000e-01    1.130000e+00
  TP5q SC1er  1 3.780000e-01    1.450000e+00
  TP4q SC1er  1 3.780000e-01    1.450000e+00
  TP3q SC1er  1 3.780000e-01    1.450000e+00
  TP2q SC1er  1 3.660000e-01    1.600000e+00
  TP1q SC1er  1 3.660000e-01    1.600000e+00
  TN6q SC1er  1 3.650000e-01    1.750000e+00
  TN5q SC1er  1 3.650000e-01    1.750000e+00
  TN4q SC1er  1 3.650000e-01    1.750000e+00
  TN3q SC1er  1 3.650000e-01    1.910000e+00
  TN2q SC1er  1 3.650000e-01    1.910000e+00
  TN1q SC1er  1 3.650000e-01    1.910000e+00
  TC6q SC1er  1 3.650000e-01    1.910000e+00
  TC5q SC1er  1 3.650000e-01    2.110000e+00
  TC4q SC1er  1 3.650000e-01    2.110000e+00
  TC3q SC1er  1 3.650000e-01    2.570000e+00
  TC2q SC1er  1 3.650000e-01    2.830000e+00
  TC1q SC1er  1 3.650000e-01    2.570000e+00
  TX4e SX4er  1 3.650000e-01    1.750000e+00
  TP6q SX4er  1 3.650000e-01    2.110000e+00
  TP5q SX4er  1 3.650000e-01    2.340000e+00
  TP4q SX4er  1 3.650000e-01    2.340000e+00
  TP3q SX4er  1 3.650000e-01    2.340000e+00
  TP2q SX4er  1 3.650000e-01    2.340000e+00
  TP1q SX4er  1 3.650000e-01    2.340000e+00
  TN6q SX4er  1 3.650000e-01    2.570000e+00
  TN5q SX4er  1 3.650000e-01    2.830000e+00
  TN4q SX4er  1 3.650000e-01    3.100000e+00
  TN3q SX4er  1 3.650000e-01    2.830000e+00
  TN2q SX4er  1 3.650000e-01    2.830000e+00
  TN1q SX4er  1 3.650000e-01    2.570000e+00
  TC6q SX4er  1 3.650000e-01    2.570000e+00
  TC5q SX4er  1 3.650000e-01    2.340000e+00
  TC4q SX4er  1 3.650000e-01    2.340000e+00
  TC3q SX4er  1 3.650000e-01    2.340000e+00
  TC2q SX4er  1 3.650000e-01    1.910000e+00
  TC1q SX4er  1 3.650000e-01    1.910000e+00
  TX4q SX4er  1 3.650000e-01    2.570000e+00
  TX3e SX3er  1 3.650000e-01    1.750000e+00
  TP6q SX3er  1 3.650000e-01    2.110000e+00
  TP5q SX3er  1 3.650000e-01    2.110000e+00
  TP4q SX3er  1 3.650000e-01    2.110000e+00
  TP3q SX3er  1 3.650000e-01    2.340000e+00
  TP2q SX3er  1 3.650000e-01    2.340000e+00
  TP1q SX3er  1 3.650000e-01    2.340000e+00
  TN6q SX3er  1 3.650000e-01    2.340000e+00
  TN5q SX3er  1 3.650000e-01    2.570000e+00
  TN4q SX3er  1 3.650000e-01    2.830000e+00
  TN3q SX3er  1 3.650000e-01    2.570000e+00
  TN2q SX3er  1 3.650000e-01    2.570000e+00
  TN1q SX3er  1 3.650000e-01    2.570000e+00
  TC6q SX3er  1 3.650000e-01    2.570000e+00
  TC5q SX3er  1 3.650000e-01    2.340000e+00
  TC4q SX3er  1 3.650000e-01    2.340000e+00
  TC3q SX3er  1 3.650000e-01    2.340000e+00
  TC2q SX3er  1 3.650000e-01    2.340000e+00
  TC1q SX3er  1 3.650000e-01    2.340000e+00
  TX4q SX3er  1 3.650000e-01    2.570000e+00
  TX3q SX3er  1 3.650000e-01    2.570000e+00
  TX2e SX2er  1 3.650000e-01    1.910000e+00
  TP6q SX2er  1 3.650000e-01    1.910000e+00
  TP5q SX2er  1 3.650000e-01    2.110000e+00
  TP4q SX2er  1 3.650000e-01    2.110000e+00
  TP3q SX2er  1 3.650000e-01    2.110000e+00
  TP2q SX2er  1 3.650000e-01    2.110000e+00
  TP1q SX2er  1 3.650000e-01    2.110000e+00
  TN6q SX2er  1 3.650000e-01    2.110000e+00
  TN5q SX2er  1 3.650000e-01    2.340000e+00
  TN4q SX2er  1 3.650000e-01    2.340000e+00
  TN3q SX2er  1 3.650000e-01    2.340000e+00
  TN2q SX2er  1 3.650000e-01    2.340000e+00
  TN1q SX2er  1 3.650000e-01    2.340000e+00
  TC6q SX2er  1 3.650000e-01    2.570000e+00
  TC5q SX2er  1 3.650000e-01    2.340000e+00
  TC4q SX2er  1 3.650000e-01    2.340000e+00
  TC3q SX2er  1 3.650000e-01    2.340000e+00
  TC2q SX2er  1 3.650000e-01    2.340000e+00
  TC1q SX2er  1 3.650000e-01    2.340000e+00
  TX4q SX2er  1 3.650000e-01    2.570000e+00
  TX3q SX2er  1 3.650000e-01    2.830000e+00
  TX2q SX2er  1 3.650000e-01    2.830000e+00
  TX1e SX1er  1 3.650000e-01    2.110000e+00
  TP6q SX1er  1 3.650000e-01    1.750000e+00
  TP5q SX1er  1 3.650000e-01    1.750000e+00
  TP4q SX1er  1 3.650000e-01    1.910000e+00
  TP3q SX1er  1 3.650000e-01    1.910000e+00
  TP2q SX1er  1 3.650000e-01    1.910000e+00
  TP1q SX1er  1 3.650000e-01    1.910000e+00
  TN6q SX1er  1 3.650000e-01    1.910000e+00
  TN5q SX1er  1 3.650000e-01    2.110000e+00
  TN4q SX1er  1 3.650000e-01    2.110000e+00
  TN3q SX1er  1 3.650000e-01    2.340000e+00
  TN2q SX1er  1 3.650000e-01    2.340000e+00
  TN1q SX1er  1 3.650000e-01    2.340000e+00
  TC6q SX1er  1 3.650000e-01    2.570000e+00
  TC5q SX1er  1 3.650000e-01    2.570000e+00
  TC4q SX1er  1 3.650000e-01    2.570000e+00
  TC3q SX1er  1 3.650000e-01    2.570000e+00
  TC2q SX1er  1 3.650000e-01    2.340000e+00
  TC1q SX1er  1 3.650000e-01    2.340000e+00
  TX4q SX1er  1 3.650000e-01    2.570000e+00
  TX3q SX1er  1 3.650000e-01    2.830000e+00
  TX2q SX1er  1 3.650000e-01    2.830000e+00
  TX1q SX1er  1 3.650000e-01    3.100000e+00
  TC6e SX1er  1 3.650000e-01    1.750000e+00
  TC5e SX1er  1 3.650000e-01    1.750000e+00
  TC4e SX1er  1 3.650000e-01    1.750000e+00
  TC3e SX1er  1 3.650000e-01    1.750000e+00
  TC2e SX1er  1 3.660000e-01    1.600000e+00
  TC1e SX1er  1 3.660000e-01    1.600000e+00
  TX4e SX1er  1 3.650000e-01    1.750000e+00
  TX3e SX1er  1 3.650000e-01    1.910000e+00
  TX2e SX1er  1 3.650000e-01    1.910000e+00
  TC6v SX1er  1 3.650000e-01    2.340000e+00
  TC5v SX1er  1 3.650000e-01    2.340000e+00
  TC4v SX1er  1 3.650000e-01    2.340000e+00
  TC3v SX1er  1 3.650000e-01    2.340000e+00
  TC2v SX1er  1 3.650000e-01    2.110000e+00
  TC1v SX1er  1 3.650000e-01    2.110000e+00
  TX4v SX1er  1 3.650000e-01    2.340000e+00
  TX3v SX1er  1 3.650000e-01    2.570000e+00
  TX2v SX1er  1 3.650000e-01    2.570000e+00
  TX1v SX1er  1 3.650000e-01    2.830000e+00
  TP6d SX1er  1 3.780000e-01    1.450000e+00
  TP5d SX1er  1 3.780000e-01    1.450000e+00
  TP4d SX1er  1 3.660000e-01    1.600000e+00
  TP3d SX1er  1 3.660000e-01    1.600000e+00
  TP2d SX1er  1 3.660000e-01    1.600000e+00
  TP1d SX1er  1 3.660000e-01    1.600000e+00
  TN6d SX1er  1 3.660000e-01    1.600000e+00
  TN5d SX1er  1 3.650000e-01    1.750000e+00
  TN4d SX1er  1 3.650000e-01    1.750000e+00
  TN3d SX1er  1 3.650000e-01    1.910000e+00
  TN2d SX1er  1 3.650000e-01    1.910000e+00
  TN1d SX1er  1 3.650000e-01    1.910000e+00
  TP6a SX1er  1 4.040000e-01    1.130000e+00
  TP5a SX1er  1 4.040000e-01    1.130000e+00
  TP4a SX1er  1 3.940000e-01    1.290000e+00
  TP3a SX1er  1 3.940000e-01    1.290000e+00
  TP2a SX1er  1 3.940000e-01    1.290000e+00
  TP1a SX1er  1 3.940000e-01    1.290000e+00
  TN6a SX1er  1 3.940000e-01    1.290000e+00
  TN5a SX1er  1 3.780000e-01    1.450000e+00
  TN4a SX1er  1 3.780000e-01    1.450000e+00
  TN3a SX1er  1 3.660000e-01    1.600000e+00
  TN2a SX1er  1 3.660000e-01    1.600000e+00
  TN1a SX1er  1 3.660000e-01    1.600000e+00
  TC6e SX2er  1 3.650000e-01    1.750000e+00
  TC5e SX2er  1 3.660000e-01    1.600000e+00
  TC4e SX2er  1 3.660000e-01    1.600000e+00
  TC3e SX2er  1 3.660000e-01    1.600000e+00
  TC2e SX2er  1 3.660000e-01    1.600000e+00
  TC1e SX2er  1 3.660000e-01    1.600000e+00
  TX4e SX2er  1 3.650000e-01    1.750000e+00
  TX3e SX2er  1 3.650000e-01    1.910000e+00
  TC6v SX2er  1 3.650000e-01    2.340000e+00
  TC5v SX2er  1 3.650000e-01    2.110000e+00
  TC4v SX2er  1 3.650000e-01    2.110000e+00
  TC3v SX2er  1 3.650000e-01    2.110000e+00
  TC2v SX2er  1 3.650000e-01    2.110000e+00
  TC1v SX2er  1 3.650000e-01    2.110000e+00
  TX4v SX2er  1 3.650000e-01    2.340000e+00
  TX3v SX2er  1 3.650000e-01    2.570000e+00
  TX2v SX2er  1 3.650000e-01    2.570000e+00
  TP6d SX2er  1 3.660000e-01    1.600000e+00
  TP5d SX2er  1 3.650000e-01    1.750000e+00
  TP4d SX2er  1 3.650000e-01    1.750000e+00
  TP3d SX2er  1 3.650000e-01    1.750000e+00
  TP2d SX2er  1 3.650000e-01    1.750000e+00
  TP1d SX2er  1 3.650000e-01    1.750000e+00
  TN6d SX2er  1 3.650000e-01    1.750000e+00
  TN5d SX2er  1 3.650000e-01    1.910000e+00
  TN4d SX2er  1 3.650000e-01    1.910000e+00
  TN3d SX2er  1 3.650000e-01    1.910000e+00
  TN2d SX2er  1 3.650000e-01    1.910000e+00
  TN1d SX2er  1 3.650000e-01    1.910000e+00
  TP6a SX2er  1 3.940000e-01    1.290000e+00
  TP5a SX2er  1 3.780000e-01    1.450000e+00
  TP4a SX2er  1 3.780000e-01    1.450000e+00
  TP3a SX2er  1 3.780000e-01    1.450000e+00
  TP2a SX2er  1 3.780000e-01    1.450000e+00
  TP1a SX2er  1 3.780000e-01    1.450000e+00
  TN6a SX2er  1 3.780000e-01    1.450000e+00
  TN5a SX2er  1 3.660000e-01    1.600000e+00
  TN4a SX2er  1 3.660000e-01    1.600000e+00
  TN3a SX2er  1 3.660000e-01    1.600000e+00
  TN2a SX2er  1 3.660000e-01    1.600000e+00
  TN1a SX2er  1 3.660000e-01    1.600000e+00
  TC6e SX3er  1 3.650000e-01    1.750000e+00
  TC5e SX3er  1 3.660000e-01    1.600000e+00
  TC4e SX3er  1 3.660000e-01    1.600000e+00
  TC3e SX3er  1 3.660000e-01    1.600000e+00
  TC2e SX3er  1 3.660000e-01    1.600000e+00
  TC1e SX3er  1 3.660000e-01    1.600000e+00
  TX4e SX3er  1 3.650000e-01    1.750000e+00
  TC6v SX3er  1 3.650000e-01    2.340000e+00
  TC5v SX3er  1 3.650000e-01    2.110000e+00
  TC4v SX3er  1 3.650000e-01    2.110000e+00
  TC3v SX3er  1 3.650000e-01    2.110000e+00
  TC2v SX3er  1 3.650000e-01    2.110000e+00
  TC1v SX3er  1 3.650000e-01    2.110000e+00
  TX4v SX3er  1 3.650000e-01    2.340000e+00
  TX3v SX3er  1 3.650000e-01    2.340000e+00
  TP6d SX3er  1 3.650000e-01    1.750000e+00
  TP5d SX3er  1 3.650000e-01    1.750000e+00
  TP4d SX3er  1 3.650000e-01    1.750000e+00
  TP3d SX3er  1 3.650000e-01    1.910000e+00
  TP2d SX3er  1 3.650000e-01    1.910000e+00
  TP1d SX3er  1 3.650000e-01    1.910000e+00
  TN6d SX3er  1 3.650000e-01    1.910000e+00
  TN5d SX3er  1 3.650000e-01    2.110000e+00
  TN4d SX3er  1 3.650000e-01    2.340000e+00
  TN3d SX3er  1 3.650000e-01    2.110000e+00
  TN2d SX3er  1 3.650000e-01    2.110000e+00
  TN1d SX3er  1 3.650000e-01    2.110000e+00
  TP6a SX3er  1 3.780000e-01    1.450000e+00
  TP5a SX3er  1 3.780000e-01    1.450000e+00
  TP4a SX3er  1 3.780000e-01    1.450000e+00
  TP3a SX3er  1 3.660000e-01    1.600000e+00
  TP2a SX3er  1 3.660000e-01    1.600000e+00
  TP1a SX3er  1 3.660000e-01    1.600000e+00
  TN6a SX3er  1 3.660000e-01    1.600000e+00
  TN5a SX3er  1 3.650000e-01    1.750000e+00
  TN4a SX3er  1 3.650000e-01    1.910000e+00
  TN3a SX3er  1 3.650000e-01    1.750000e+00
  TN2a SX3er  1 3.650000e-01    1.750000e+00
  TN1a SX3er  1 3.650000e-01    1.750000e+00
  TC6e SX4er  1 3.650000e-01    1.750000e+00
  TC5e SX4er  1 3.660000e-01    1.600000e+00
  TC4e SX4er  1 3.660000e-01    1.600000e+00
  TC3e SX4er  1 3.660000e-01    1.600000e+00
  TC2e SX4er  1 3.940000e-01    1.290000e+00
  TC1e SX4er  1 3.940000e-01    1.290000e+00
  TC6v SX4er  1 3.650000e-01    2.340000e+00
  TC5v SX4er  1 3.650000e-01    2.110000e+00
  TC4v SX4er  1 3.650000e-01    2.110000e+00
  TC3v SX4er  1 3.650000e-01    2.110000e+00
  TC2v SX4er  1 3.650000e-01    1.750000e+00
  TC1v SX4er  1 3.650000e-01    1.750000e+00
  TX4v SX4er  1 3.650000e-01    2.340000e+00
  TP6d SX4er  1 3.650000e-01    1.750000e+00
  TP5d SX4er  1 3.650000e-01    1.910000e+00
  TP4d SX4er  1 3.650000e-01    1.910000e+00
  TP3d SX4er  1 3.650000e-01    1.910000e+00
  TP2d SX4er  1 3.650000e-01    1.910000e+00
  TP1d SX4er  1 3.650000e-01    1.910000e+00
  TN6d SX4er  1 3.650000e-01    2.110000e+00
  TN5d SX4er  1 3.650000e-01    2.340000e+00
  TN4d SX4er  1 3.650000e-01    2.570000e+00
  TN3d SX4er  1 3.650000e-01    2.340000e+00
  TN2d SX4er  1 3.650000e-01    2.340000e+00
  TN1d SX4er  1 3.650000e-01    2.110000e+00
  TP6a SX4er  1 3.780000e-01    1.450000e+00
  TP5a SX4er  1 3.660000e-01    1.600000e+00
  TP4a SX4er  1 3.660000e-01    1.600000e+00
  TP3a SX4er  1 3.660000e-01    1.600000e+00
  TP2a SX4er  1 3.660000e-01    1.600000e+00
  TP1a SX4er  1 3.660000e-01    1.600000e+00
  TN6a SX4er  1 3.650000e-01    1.750000e+00
  TN5a SX4er  1 3.650000e-01    1.910000e+00
  TN4a SX4er  1 3.650000e-01    2.110000e+00
  TN3a SX4er  1 3.650000e-01    1.910000e+00
  TN2a SX4er  1 3.650000e-01    1.910000e+00
  TN1a SX4er  1 3.650000e-01    1.750000e+00
  TC6e SC1er  1 3.940000e-01    1.290000e+00
  TC5e SC1er  1 3.780000e-01    1.450000e+00
  TC4e SC1er  1 3.780000e-01    1.450000e+00
  TC3e SC1er  1 3.650000e-01    1.750000e+00
  TC2e SC1er  1 3.650000e-01    1.910000e+00
  TC6v SC1er  1 3.650000e-01    1.750000e+00
  TC5v SC1er  1 3.650000e-01    1.910000e+00
  TC4v SC1er  1 3.650000e-01    1.910000e+00
  TC3v SC1er  1 3.650000e-01    2.340000e+00
  TC2v SC1er  1 3.650000e-01    2.570000e+00
  TC1v SC1er  1 3.650000e-01    2.340000e+00
  TP6d SC1er  1 4.230000e-01    9.810000e-01
  TP5d SC1er  1 4.040000e-01    1.130000e+00
  TP4d SC1er  1 4.040000e-01    1.130000e+00
  TP3d SC1er  1 4.040000e-01    1.130000e+00
  TP2d SC1er  1 3.940000e-01    1.290000e+00
  TP1d SC1er  1 3.940000e-01    1.290000e+00
  TN6d SC1er  1 3.780000e-01    1.450000e+00
  TN5d SC1er  1 3.780000e-01    1.450000e+00
  TN4d SC1er  1 3.780000e-01    1.450000e+00
  TN3d SC1er  1 3.660000e-01    1.600000e+00
  TN2d SC1er  1 3.660000e-01    1.600000e+00
  TN1d SC1er  1 3.660000e-01    1.600000e+00
  TP6a SC1er  1 5.370000e-01    8.080000e-01
  TP5a SC1er  1 4.230000e-01    9.810000e-01
  TP4a SC1er  1 4.230000e-01    9.810000e-01
  TP3a SC1er  1 4.230000e-01    9.810000e-01
  TP2a SC1er  1 4.090000e-01    1.080000e+00
  TP1a SC1er  1 4.090000e-01    1.080000e+00
  TN6a SC1er  1 4.040000e-01    1.130000e+00
  TN5a SC1er  1 4.040000e-01    1.130000e+00
  TN4a SC1er  1 4.040000e-01    1.130000e+00
  TN3a SC1er  1 3.940000e-01    1.290000e+00
  TN2a SC1er  1 3.940000e-01    1.290000e+00
  TN1a SC1er  1 3.940000e-01    1.290000e+00
  TC6e SC2er  1 3.780000e-01    1.450000e+00
  TC5e SC2er  1 3.780000e-01    1.450000e+00
  TC4e SC2er  1 3.660000e-01    1.600000e+00
  TC3e SC2er  1 3.650000e-01    1.750000e+00
  TC6v SC2er  1 3.650000e-01    1.910000e+00
  TC5v SC2er  1 3.650000e-01    1.910000e+00
  TC4v SC2er  1 3.650000e-01    2.110000e+00
  TC3v SC2er  1 3.650000e-01    2.340000e+00
  TC2v SC2er  1 3.650000e-01    2.340000e+00
  TP6d SC2er  1 4.040000e-01    1.130000e+00
  TP5d SC2er  1 3.940000e-01    1.290000e+00
  TP4d SC2er  1 3.940000e-01    1.290000e+00
  TP3d SC2er  1 3.940000e-01    1.290000e+00
  TP2d SC2er  1 3.780000e-01    1.450000e+00
  TP1d SC2er  1 3.780000e-01    1.450000e+00
  TN6d SC2er  1 3.660000e-01    1.600000e+00
  TN5d SC2er  1 3.660000e-01    1.600000e+00
  TN4d SC2er  1 3.660000e-01    1.600000e+00
  TN3d SC2er  1 3.650000e-01    1.750000e+00
  TN2d SC2er  1 3.650000e-01    1.750000e+00
  TN1d SC2er  1 3.650000e-01    1.750000e+00
  TP6a SC2er  1 4.230000e-01    9.810000e-01
  TP5a SC2er  1 4.090000e-01    1.080000e+00
  TP4a SC2er  1 4.090000e-01    1.080000e+00
  TP3a SC2er  1 4.090000e-01    1.080000e+00
  TP2a SC2er  1 4.040000e-01    1.130000e+00
  TP1a SC2er  1 4.040000e-01    1.130000e+00
  TN6a SC2er  1 3.940000e-01    1.290000e+00
  TN5a SC2er  1 3.940000e-01    1.290000e+00
  TN4a SC2er  1 3.940000e-01    1.290000e+00
  TN3a SC2er  1 3.780000e-01    1.450000e+00
  TN2a SC2er  1 3.780000e-01    1.450000e+00
  TN1a SC2er  1 3.780000e-01    1.450000e+00
  TC6e SC3er  1 3.660000e-01    1.600000e+00
  TC5e SC3er  1 3.660000e-01    1.600000e+00
  TC4e SC3er  1 3.650000e-01    1.750000e+00
  TC6v SC3er  1 3.650000e-01    2.110000e+00
  TC5v SC3er  1 3.650000e-01    2.110000e+00
  TC4v SC3er  1 3.650000e-01    2.340000e+00
  TC3v SC3er  1 3.650000e-01    2.340000e+00
  TP6d SC3er  1 4.040000e-01    1.130000e+00
  TP5d SC3er  1 3.940000e-01    1.290000e+00
  TP4d SC3er  1 3.940000e-01    1.290000e+00
  TP3d SC3er  1 3.940000e-01    1.290000e+00
  TP2d SC3er  1 3.780000e-01    1.450000e+00
  TP1d SC3er  1 3.780000e-01    1.450000e+00
  TN6d SC3er  1 3.660000e-01    1.600000e+00
  TN5d SC3er  1 3.650000e-01    1.750000e+00
  TN4d SC3er  1 3.650000e-01    1.750000e+00
  TN3d SC3er  1 3.650000e-01    1.750000e+00
  TN2d SC3er  1 3.650000e-01    1.910000e+00
  TN1d SC3er  1 3.650000e-01    1.910000e+00
  TP6a SC3er  1 4.230000e-01    9.810000e-01
  TP5a SC3er  1 4.090000e-01    1.080000e+00
  TP4a SC3er  1 4.090000e-01    1.080000e+00
  TP3a SC3er  1 4.090000e-01    1.080000e+00
  TP2a SC3er  1 4.040000e-01    1.130000e+00
  TP1a SC3er  1 4.040000e-01    1.130000e+00
  TN6a SC3er  1 3.940000e-01    1.290000e+00
  TN5a SC3er  1 3.780000e-01    1.450000e+00
  TN4a SC3er  1 3.780000e-01    1.450000e+00
  TN3a SC3er  1 3.780000e-01    1.450000e+00
  TN2a SC3er  1 3.660000e-01    1.600000e+00
  TN1a SC3er  1 3.660000e-01    1.600000e+00
  TC6e SC4er  1 3.650000e-01    1.750000e+00
  TC5e SC4er  1 3.650000e-01    1.750000e+00
  TC6v SC4er  1 3.650000e-01    2.340000e+00
  TC5v SC4er  1 3.650000e-01    2.340000e+00
  TC4v SC4er  1 3.650000e-01    2.340000e+00
  TP6d SC4er  1 3.940000e-01    1.290000e+00
  TP5d SC4er  1 3.780000e-01    1.450000e+00
  TP4d SC4er  1 3.780000e-01    1.450000e+00
  TP3d SC4er  1 3.660000e-01    1.600000e+00
  TP2d SC4er  1 3.660000e-01    1.600000e+00
  TP1d SC4er  1 3.660000e-01    1.600000e+00
  TN6d SC4er  1 3.650000e-01    1.750000e+00
  TN5d SC4er  1 3.650000e-01    1.750000e+00
  TN4d SC4er  1 3.650000e-01    1.910000e+00
  TN3d SC4er  1 3.650000e-01    1.910000e+00
  TN2d SC4er  1 3.650000e-01    1.910000e+00
  TN1d SC4er  1 3.650000e-01    2.110000e+00
  TP6a SC4er  1 4.090000e-01    1.080000e+00
  TP5a SC4er  1 4.040000e-01    1.130000e+00
  TP4a SC4er  1 4.040000e-01    1.130000e+00
  TP3a SC4er  1 3.940000e-01    1.290000e+00
  TP2a SC4er  1 3.940000e-01    1.290000e+00
  TP1a SC4er  1 3.940000e-01    1.290000e+00
  TN6a SC4er  1 3.780000e-01    1.450000e+00
  TN5a SC4er  1 3.780000e-01    1.450000e+00
  TN4a SC4er  1 3.660000e-01    1.600000e+00
  TN3a SC4er  1 3.660000e-01    1.600000e+00
  TN2a SC4er  1 3.660000e-01    1.600000e+00
  TN1a SC4er  1 3.650000e-01    1.750000e+00
  TC6e SC5er  1 3.650000e-01    1.750000e+00
  TC6v SC5er  1 3.650000e-01    2.340000e+00
  TC5v SC5er  1 3.650000e-01    2.340000e+00
  TP6d SC5er  1 3.780000e-01    1.450000e+00
  TP5d SC5er  1 3.660000e-01    1.600000e+00
  TP4d SC5er  1 3.660000e-01    1.600000e+00
  TP3d SC5er  1 3.650000e-01    1.750000e+00
  TP2d SC5er  1 3.650000e-01    1.750000e+00
  TP1d SC5er  1 3.650000e-01    1.750000e+00
  TN6d SC5er  1 3.650000e-01    1.910000e+00
  TN5d SC5er  1 3.650000e-01    1.910000e+00
  TN4d SC5er  1 3.650000e-01    1.910000e+00
  TN3d SC5er  1 3.650000e-01    1.910000e+00
  TN2d SC5er  1 3.650000e-01    1.910000e+00
  TN1d SC5er  1 3.650000e-01    2.110000e+00
  TP6a SC5er  1 4.040000e-01    1.130000e+00
  TP5a SC5er  1 3.940000e-01    1.290000e+00
  TP4a SC5er  1 3.940000e-01    1.290000e+00
  TP3a SC5er  1 3.780000e-01    1.450000e+00
  TP2a SC5er  1 3.780000e-01    1.450000e+00
  TP1a SC5er  1 3.780000e-01    1.450000e+00
  TN6a SC5er  1 3.660000e-01    1.600000e+00
  TN5a SC5er  1 3.660000e-01    1.600000e+00
  TN4a SC5er  1 3.660000e-01    1.600000e+00
  TN3a SC5er  1 3.660000e-01    1.600000e+00
  TN2a SC5er  1 3.660000e-01    1.600000e+00
  TN1a SC5er  1 3.650000e-01    1.750000e+00
  TC6v SC6er  1 3.650000e-01    2.570000e+00
  TP6d SC6er  1 3.660000e-01    1.600000e+00
  TP5d SC6er  1 3.660000e-01    1.600000e+00
  TP4d SC6er  1 3.650000e-01    1.750000e+00
  TP3d SC6er  1 3.650000e-01    1.910000e+00
  TP2d SC6er  1 3.650000e-01    1.910000e+00
  TP1d SC6er  1 3.650000e-01    1.910000e+00
  TN6d SC6er  1 3.650000e-01    2.110000e+00
  TN5d SC6er  1 3.650000e-01    2.110000e+00
  TN4d SC6er  1 3.650000e-01    2.110000e+00
  TN3d SC6er  1 3.650000e-01    2.110000e+00
  TN2d SC6er  1 3.650000e-01    2.110000e+00
  TN1d SC6er  1 3.650000e-01    2.340000e+00
  TP6a SC6er  1 3.940000e-01    1.290000e+00
  TP5a SC6er  1 3.940000e-01    1.290000e+00
  TP4a SC6er  1 3.780000e-01    1.450000e+00
  TP3a SC6er  1 3.660000e-01    1.600000e+00
  TP2a SC6er  1 3.660000e-01    1.600000e+00
  TP1a SC6er  1 3.660000e-01    1.600000e+00
  TN6a SC6er  1 3.650000e-01    1.750000e+00
  TN5a SC6er  1 3.650000e-01    1.750000e+00
  TN4a SC6er  1 3.650000e-01    1.750000e+00
  TN3a SC6er  1 3.650000e-01    1.750000e+00
  TN2a SC6er  1 3.650000e-01    1.750000e+00
  TN1a SC6er  1 3.650000e-01    1.910000e+00
  TC6v SX1vr  1 3.650000e-01    1.750000e+00
  TC5v SX1vr  1 3.650000e-01    1.750000e+00
  TC4v SX1vr  1 3.650000e-01    1.750000e+00
  TC3v SX1vr  1 3.650000e-01    1.750000e+00
  TC2v SX1vr  1 3.660000e-01    1.600000e+00
  TC1v SX1vr  1 3.660000e-01    1.600000e+00
  TX4v SX1vr  1 3.650000e-01    1.750000e+00
  TX3v SX1vr  1 3.650000e-01    1.910000e+00
  TX2v SX1vr  1 3.650000e-01    1.910000e+00
  TP6a SX1vr  1 3.780000e-01    1.450000e+00
  TP5a SX1vr  1 3.780000e-01    1.450000e+00
  TP4a SX1vr  1 3.660000e-01    1.600000e+00
  TP3a SX1vr  1 3.660000e-01    1.600000e+00
  TP2a SX1vr  1 3.660000e-01    1.600000e+00
  TP1a SX1vr  1 3.660000e-01    1.600000e+00
  TN6a SX1vr  1 3.660000e-01    1.600000e+00
  TN5a SX1vr  1 3.650000e-01    1.750000e+00
  TN4a SX1vr  1 3.650000e-01    1.750000e+00
  TN3a SX1vr  1 3.650000e-01    1.910000e+00
  TN2a SX1vr  1 3.650000e-01    1.910000e+00
  TN1a SX1vr  1 3.650000e-01    1.910000e+00
  TP6d SX1vr  1 4.040000e-01    1.130000e+00
  TP5d SX1vr  1 4.040000e-01    1.130000e+00
  TP4d SX1vr  1 3.940000e-01    1.290000e+00
  TP3d SX1vr  1 3.940000e-01    1.290000e+00
  TP2d SX1vr  1 3.940000e-01    1.290000e+00
  TP1d SX1vr  1 3.940000e-01    1.290000e+00
  TN6d SX1vr  1 3.940000e-01    1.290000e+00
  TN5d SX1vr  1 3.780000e-01    1.450000e+00
  TN4d SX1vr  1 3.780000e-01    1.450000e+00
  TN3d SX1vr  1 3.660000e-01    1.600000e+00
  TN2d SX1vr  1 3.660000e-01    1.600000e+00
  TN1d SX1vr  1 3.660000e-01    1.600000e+00
  TC6v SX2vr  1 3.650000e-01    1.750000e+00
  TC5v SX2vr  1 3.660000e-01    1.600000e+00
  TC4v SX2vr  1 3.660000e-01    1.600000e+00
  TC3v SX2vr  1 3.660000e-01    1.600000e+00
  TC2v SX2vr  1 3.660000e-01    1.600000e+00
  TC1v SX2vr  1 3.660000e-01    1.600000e+00
  TX4v SX2vr  1 3.650000e-01    1.750000e+00
  TX3v SX2vr  1 3.650000e-01    1.910000e+00
  TP6a SX2vr  1 3.660000e-01    1.600000e+00
  TP5a SX2vr  1 3.650000e-01    1.750000e+00
  TP4a SX2vr  1 3.650000e-01    1.750000e+00
  TP3a SX2vr  1 3.650000e-01    1.750000e+00
  TP2a SX2vr  1 3.650000e-01    1.750000e+00
  TP1a SX2vr  1 3.650000e-01    1.750000e+00
  TN6a SX2vr  1 3.650000e-01    1.750000e+00
  TN5a SX2vr  1 3.650000e-01    1.910000e+00
  TN4a SX2vr  1 3.650000e-01    1.910000e+00
  TN3a SX2vr  1 3.650000e-01    1.910000e+00
  TN2a SX2vr  1 3.650000e-01    1.910000e+00
  TN1a SX2vr  1 3.650000e-01    1.910000e+00
  TP6d SX2vr  1 3.940000e-01    1.290000e+00
  TP5d SX2vr  1 3.780000e-01    1.450000e+00
  TP4d SX2vr  1 3.780000e-01    1.450000e+00
  TP3d SX2vr  1 3.780000e-01    1.450000e+00
  TP2d SX2vr  1 3.780000e-01    1.450000e+00
  TP1d SX2vr  1 3.780000e-01    1.450000e+00
  TN6d SX2vr  1 3.780000e-01    1.450000e+00
  TN5d SX2vr  1 3.660000e-01    1.600000e+00
  TN4d SX2vr  1 3.660000e-01    1.600000e+00
  TN3d SX2vr  1 3.660000e-01    1.600000e+00
  TN2d SX2vr  1 3.660000e-01    1.600000e+00
  TN1d SX2vr  1 3.660000e-01    1.600000e+00
  TC6v SX3vr  1 3.650000e-01    1.750000e+00
  TC5v SX3vr  1 3.660000e-01    1.600000e+00
  TC4v SX3vr  1 3.660000e-01    1.600000e+00
  TC3v SX3vr  1 3.660000e-01    1.600000e+00
  TC2v SX3vr  1 3.660000e-01    1.600000e+00
  TC1v SX3vr  1 3.660000e-01    1.600000e+00
  TX4v SX3vr  1 3.650000e-01    1.750000e+00
  TP6a SX3vr  1 3.650000e-01    1.750000e+00
  TP5a SX3vr  1 3.650000e-01    1.750000e+00
  TP4a SX3vr  1 3.650000e-01    1.750000e+00
  TP3a SX3vr  1 3.650000e-01    1.910000e+00
  TP2a SX3vr  1 3.650000e-01    1.910000e+00
  TP1a SX3vr  1 3.650000e-01    1.910000e+00
  TN6a SX3vr  1 3.650000e-01    1.910000e+00
  TN5a SX3vr  1 3.650000e-01    2.110000e+00
  TN4a SX3vr  1 3.650000e-01    2.340000e+00
  TN3a SX3vr  1 3.650000e-01    2.110000e+00
  TN2a SX3vr  1 3.650000e-01    2.110000e+00
  TN1a SX3vr  1 3.650000e-01    2.110000e+00
  TP6d SX3vr  1 3.780000e-01    1.450000e+00
  TP5d SX3vr  1 3.780000e-01    1.450000e+00
  TP4d SX3vr  1 3.780000e-01    1.450000e+00
  TP3d SX3vr  1 3.660000e-01    1.600000e+00
  TP2d SX3vr  1 3.660000e-01    1.600000e+00
  TP1d SX3vr  1 3.660000e-01    1.600000e+00
  TN6d SX3vr  1 3.660000e-01    1.600000e+00
  TN5d SX3vr  1 3.650000e-01    1.750000e+00
  TN4d SX3vr  1 3.650000e-01    1.910000e+00
  TN3d SX3vr  1 3.650000e-01    1.750000e+00
  TN2d SX3vr  1 3.650000e-01    1.750000e+00
  TN1d SX3vr  1 3.650000e-01    1.750000e+00
  TC6v SX4vr  1 3.650000e-01    1.750000e+00
  TC5v SX4vr  1 3.660000e-01    1.600000e+00
  TC4v SX4vr  1 3.660000e-01    1.600000e+00
  TC3v SX4vr  1 3.660000e-01    1.600000e+00
  TC2v SX4vr  1 3.940000e-01    1.290000e+00
  TC1v SX4vr  1 3.940000e-01    1.290000e+00
  TP6a SX4vr  1 3.650000e-01    1.750000e+00
  TP5a SX4vr  1 3.650000e-01    1.910000e+00
  TP4a SX4vr  1 3.650000e-01    1.910000e+00
  TP3a SX4vr  1 3.650000e-01    1.910000e+00
  TP2a SX4vr  1 3.650000e-01    1.910000e+00
  TP1a SX4vr  1 3.650000e-01    1.910000e+00
  TN6a SX4vr  1 3.650000e-01    2.110000e+00
  TN5a SX4vr  1 3.650000e-01    2.340000e+00
  TN4a SX4vr  1 3.650000e-01    2.570000e+00
  TN3a SX4vr  1 3.650000e-01    2.340000e+00
  TN2a SX4vr  1 3.650000e-01    2.340000e+00
  TN1a SX4vr  1 3.650000e-01    2.110000e+00
  TP6d SX4vr  1 3.780000e-01    1.450000e+00
  TP5d SX4vr  1 3.660000e-01    1.600000e+00
  TP4d SX4vr  1 3.660000e-01    1.600000e+00
  TP3d SX4vr  1 3.660000e-01    1.600000e+00
  TP2d SX4vr  1 3.660000e-01    1.600000e+00
  TP1d SX4vr  1 3.660000e-01    1.600000e+00
  TN6d SX4vr  1 3.650000e-01    1.750000e+00
  TN5d SX4vr  1 3.650000e-01    1.910000e+00
  TN4d SX4vr  1 3.650000e-01    2.110000e+00
  TN3d SX4vr  1 3.650000e-01    1.910000e+00
  TN2d SX4vr  1 3.650000e-01    1.910000e+00
  TN1d SX4vr  1 3.650000e-01    1.750000e+00
  TC6v SC1vr  1 3.940000e-01    1.290000e+00
  TC5v SC1vr  1 3.780000e-01    1.450000e+00
  TC4v SC1vr  1 3.780000e-01    1.450000e+00
  TC3v SC1vr  1 3.650000e-01    1.750000e+00
  TC2v SC1vr  1 3.650000e-01    1.910000e+00
  TP6a SC1vr  1 4.230000e-01    9.810000e-01
  TP5a SC1vr  1 4.040000e-01    1.130000e+00
  TP4a SC1vr  1 4.040000e-01    1.130000e+00
  TP3a SC1vr  1 4.040000e-01    1.130000e+00
  TP2a SC1vr  1 3.940000e-01    1.290000e+00
  TP1a SC1vr  1 3.940000e-01    1.290000e+00
  TN6a SC1vr  1 3.780000e-01    1.450000e+00
  TN5a SC1vr  1 3.780000e-01    1.450000e+00
  TN4a SC1vr  1 3.780000e-01    1.450000e+00
  TN3a SC1vr  1 3.660000e-01    1.600000e+00
  TN2a SC1vr  1 3.660000e-01    1.600000e+00
  TN1a SC1vr  1 3.660000e-01    1.600000e+00
  TP6d SC1vr  1 5.370000e-01    8.080000e-01
  TP5d SC1vr  1 4.230000e-01    9.810000e-01
  TP4d SC1vr  1 4.230000e-01    9.810000e-01
  TP3d SC1vr  1 4.230000e-01    9.810000e-01
  TP2d SC1vr  1 4.090000e-01    1.080000e+00
  TP1d SC1vr  1 4.090000e-01    1.080000e+00
  TN6d SC1vr  1 4.040000e-01    1.130000e+00
  TN5d SC1vr  1 4.040000e-01    1.130000e+00
  TN4d SC1vr  1 4.040000e-01    1.130000e+00
  TN3d SC1vr  1 3.940000e-01    1.290000e+00
  TN2d SC1vr  1 3.940000e-01    1.290000e+00
  TN1d SC1vr  1 3.940000e-01    1.290000e+00
  TC6v SC2vr  1 3.780000e-01    1.450000e+00
  TC5v SC2vr  1 3.780000e-01    1.450000e+00
  TC4v SC2vr  1 3.660000e-01    1.600000e+00
  TC3v SC2vr  1 3.650000e-01    1.750000e+00
  TP6a SC2vr  1 4.040000e-01    1.130000e+00
  TP5a SC2vr  1 3.940000e-01    1.290000e+00
  TP4a SC2vr  1 3.940000e-01    1.290000e+00
  TP3a SC2vr  1 3.940000e-01    1.290000e+00
  TP2a SC2vr  1 3.780000e-01    1.450000e+00
  TP1a SC2vr  1 3.780000e-01    1.450000e+00
  TN6a SC2vr  1 3.660000e-01    1.600000e+00
  TN5a SC2vr  1 3.660000e-01    1.600000e+00
  TN4a SC2vr  1 3.660000e-01    1.600000e+00
  TN3a SC2vr  1 3.650000e-01    1.750000e+00
  TN2a SC2vr  1 3.650000e-01    1.750000e+00
  TN1a SC2vr  1 3.650000e-01    1.750000e+00
  TP6d SC2vr  1 4.230000e-01    9.810000e-01
  TP5d SC2vr  1 4.090000e-01    1.080000e+00
  TP4d SC2vr  1 4.090000e-01    1.080000e+00
  TP3d SC2vr  1 4.090000e-01    1.080000e+00
  TP2d SC2vr  1 4.040000e-01    1.130000e+00
  TP1d SC2vr  1 4.040000e-01    1.130000e+00
  TN6d SC2vr  1 3.940000e-01    1.290000e+00
  TN5d SC2vr  1 3.940000e-01    1.290000e+00
  TN4d SC2vr  1 3.940000e-01    1.290000e+00
  TN3d SC2vr  1 3.780000e-01    1.450000e+00
  TN2d SC2vr  1 3.780000e-01    1.450000e+00
  TN1d SC2vr  1 3.780000e-01    1.450000e+00
  TC6v SC3vr  1 3.660000e-01    1.600000e+00
  TC5v SC3vr  1 3.660000e-01    1.600000e+00
  TC4v SC3vr  1 3.650000e-01    1.750000e+00
  TP6a SC3vr  1 4.040000e-01    1.130000e+00
  TP5a SC3vr  1 3.940000e-01    1.290000e+00
  TP4a SC3vr  1 3.940000e-01    1.290000e+00
  TP3a SC3vr  1 3.940000e-01    1.290000e+00
  TP2a SC3vr  1 3.780000e-01    1.450000e+00
  TP1a SC3vr  1 3.780000e-01    1.450000e+00
  TN6a SC3vr  1 3.660000e-01    1.600000e+00
  TN5a SC3vr  1 3.650000e-01    1.750000e+00
  TN4a SC3vr  1 3.650000e-01    1.750000e+00
  TN3a SC3vr  1 3.650000e-01    1.750000e+00
  TN2a SC3vr  1 3.650000e-01    1.910000e+00
  TN1a SC3vr  1 3.650000e-01    1.910000e+00
  TP6d SC3vr  1 4.230000e-01    9.810000e-01
  TP5d SC3vr  1 4.090000e-01    1.080000e+00
  TP4d SC3vr  1 4.090000e-01    1.080000e+00
  TP3d SC3vr  1 4.090000e-01    1.080000e+00
  TP2d SC3vr  1 4.040000e-01    1.130000e+00
  TP1d SC3vr  1 4.040000e-01    1.130000e+00
  TN6d SC3vr  1 3.940000e-01    1.290000e+00
  TN5d SC3vr  1 3.780000e-01    1.450000e+00
  TN4d SC3vr  1 3.780000e-01    1.450000e+00
  TN3d SC3vr  1 3.780000e-01    1.450000e+00
  TN2d SC3vr  1 3.660000e-01    1.600000e+00
  TN1d SC3vr  1 3.660000e-01    1.600000e+00
  TC6v SC4vr  1 3.650000e-01    1.750000e+00
  TC5v SC4vr  1 3.650000e-01    1.750000e+00
  TP6a SC4vr  1 3.940000e-01    1.290000e+00
  TP5a SC4vr  1 3.780000e-01    1.450000e+00
  TP4a SC4vr  1 3.780000e-01    1.450000e+00
  TP3a SC4vr  1 3.660000e-01    1.600000e+00
  TP2a SC4vr  1 3.660000e-01    1.600000e+00
  TP1a SC4vr  1 3.660000e-01    1.600000e+00
  TN6a SC4vr  1 3.650000e-01    1.750000e+00
  TN5a SC4vr  1 3.650000e-01    1.750000e+00
  TN4a SC4vr  1 3.650000e-01    1.910000e+00
  TN3a SC4vr  1 3.650000e-01    1.910000e+00
  TN2a SC4vr  1 3.650000e-01    1.910000e+00
  TN1a SC4vr  1 3.650000e-01    2.110000e+00
  TP6d SC4vr  1 4.090000e-01    1.080000e+00
  TP5d SC4vr  1 4.040000e-01    1.130000e+00
  TP4d SC4vr  1 4.040000e-01    1.130000e+00
  TP3d SC4vr  1 3.940000e-01    1.290000e+00
  TP2d SC4vr  1 3.940000e-01    1.290000e+00
  TP1d SC4vr  1 3.940000e-01    1.290000e+00
  TN6d SC4vr  1 3.780000e-01    1.450000e+00
  TN5d SC4vr  1 3.780000e-01    1.450000e+00
  TN4d SC4vr  1 3.660000e-01    1.600000e+00
  TN3d SC4vr  1 3.660000e-01    1.600000e+00
  TN2d SC4vr  1 3.660000e-01    1.600000e+00
  TN1d SC4vr  1 3.650000e-01    1.750000e+00
  TC6v SC5vr  1 3.650000e-01    1.750000e+00
  TP6a SC5vr  1 3.780000e-01    1.450000e+00
  TP5a SC5vr  1 3.660000e-01    1.600000e+00
  TP4a SC5vr  1 3.660000e-01    1.600000e+00
  TP3a SC5vr  1 3.650000e-01    1.750000e+00
  TP2a SC5vr  1 3.650000e-01    1.750000e+00
  TP1a SC5vr  1 3.650000e-01    1.750000e+00
  TN6a SC5vr  1 3.650000e-01    1.910000e+00
  TN5a SC5vr  1 3.650000e-01    1.910000e+00
  TN4a SC5vr  1 3.650000e-01    1.910000e+00
  TN3a SC5vr  1 3.650000e-01    1.910000e+00
  TN2a SC5vr  1 3.650000e-01    1.910000e+00
  TN1a SC5vr  1 3.650000e-01    2.110000e+00
  TP6d SC5vr  1 4.040000e-01    1.130000e+00
  TP5d SC5vr  1 3.940000e-01    1.290000e+00
  TP4d SC5vr  1 3.940000e-01    1.290000e+00
  TP3d SC5vr  1 3.780000e-01    1.450000e+00
  TP2d SC5vr  1 3.780000e-01    1.450000e+00
  TP1d SC5vr  1 3.780000e-01    1.450000e+00
  TN6d SC5vr  1 3.660000e-01    1.600000e+00
  TN5d SC5vr  1 3.660000e-01    1.600000e+00
  TN4d SC5vr  1 3.660000e-01    1.600000e+00
  TN3d SC5vr  1 3.660000e-01    1.600000e+00
  TN2d SC5vr  1 3.660000e-01    1.600000e+00
  TN1d SC5vr  1 3.650000e-01    1.750000e+00
  TP6a SC6vr  1 3.660000e-01    1.600000e+00
  TP5a SC6vr  1 3.660000e-01    1.600000e+00
  TP4a SC6vr  1 3.650000e-01    1.750000e+00
  TP3a SC6vr  1 3.650000e-01    1.910000e+00
  TP2a SC6vr  1 3.650000e-01    1.910000e+00
  TP1a SC6vr  1 3.650000e-01    1.910000e+00
  TN6a SC6vr  1 3.650000e-01    2.110000e+00
  TN5a SC6vr  1 3.650000e-01    2.110000e+00
  TN4a SC6vr  1 3.650000e-01    2.110000e+00
  TN3a SC6vr  1 3.650000e-01    2.110000e+00
  TN2a SC6vr  1 3.650000e-01    2.110000e+00
  TN1a SC6vr  1 3.650000e-01    2.340000e+00
  TP6d SC6vr  1 3.940000e-01    1.290000e+00
  TP5d SC6vr  1 3.940000e-01    1.290000e+00
  TP4d SC6vr  1 3.780000e-01    1.450000e+00
  TP3d SC6vr  1 3.660000e-01    1.600000e+00
  TP2d SC6vr  1 3.660000e-01    1.600000e+00
  TP1d SC6vr  1 3.660000e-01    1.600000e+00
  TN6d SC6vr  1 3.650000e-01    1.750000e+00
  TN5d SC6vr  1 3.650000e-01    1.750000e+00
  TN4d SC6vr  1 3.650000e-01    1.750000e+00
  TN3d SC6vr  1 3.650000e-01    1.750000e+00
  TN2d SC6vr  1 3.650000e-01    1.750000e+00
  TN1d SC6vr  1 3.650000e-01    1.910000e+00
  TP6a SN1ar  1 3.780000e-01    1.450000e+00
  TP5a SN1ar  1 3.780000e-01    1.450000e+00
  TP4a SN1ar  1 3.660000e-01    1.600000e+00
  TP3a SN1ar  1 3.650000e-01    1.750000e+00
  TP2a SN1ar  1 3.650000e-01    1.750000e+00
  TP1a SN1ar  1 3.650000e-01    1.750000e+00
  TN6a SN1ar  1 3.650000e-01    1.750000e+00
  TN5a SN1ar  1 3.650000e-01    1.750000e+00
  TN4a SN1ar  1 3.650000e-01    1.750000e+00
  TN3a SN1ar  1 3.650000e-01    1.750000e+00
  TN2a SN1ar  1 3.650000e-01    1.750000e+00
  TP6d SN1ar  1 3.780000e-01    1.450000e+00
  TP5d SN1ar  1 3.780000e-01    1.450000e+00
  TP4d SN1ar  1 3.660000e-01    1.600000e+00
  TP3d SN1ar  1 3.650000e-01    1.750000e+00
  TP2d SN1ar  1 3.650000e-01    2.110000e+00
  TP1d SN1ar  1 3.650000e-01    2.110000e+00
  TN6d SN1ar  1 3.650000e-01    2.110000e+00
  TN5d SN1ar  1 3.650000e-01    2.110000e+00
  TN4d SN1ar  1 3.650000e-01    2.110000e+00
  TN3d SN1ar  1 3.650000e-01    2.110000e+00
  TN2d SN1ar  1 3.650000e-01    2.110000e+00
  TN1d SN1ar  1 3.650000e-01    2.340000e+00
  TP6a SN2ar  1 3.660000e-01    1.600000e+00
  TP5a SN2ar  1 3.660000e-01    1.600000e+00
  TP4a SN2ar  1 3.650000e-01    1.750000e+00
  TP3a SN2ar  1 3.650000e-01    1.750000e+00
  TP2a SN2ar  1 3.650000e-01    1.750000e+00
  TP1a SN2ar  1 3.650000e-01    1.750000e+00
  TN6a SN2ar  1 3.650000e-01    1.750000e+00
  TN5a SN2ar  1 3.650000e-01    1.910000e+00
  TN4a SN2ar  1 3.650000e-01    1.910000e+00
  TN3a SN2ar  1 3.650000e-01    1.910000e+00
  TP6d SN2ar  1 3.660000e-01    1.600000e+00
  TP5d SN2ar  1 3.660000e-01    1.600000e+00
  TP4d SN2ar  1 3.650000e-01    1.750000e+00
  TP3d SN2ar  1 3.650000e-01    2.110000e+00
  TP2d SN2ar  1 3.650000e-01    2.110000e+00
  TP1d SN2ar  1 3.650000e-01    2.110000e+00
  TN6d SN2ar  1 3.650000e-01    2.110000e+00
  TN5d SN2ar  1 3.650000e-01    2.340000e+00
  TN4d SN2ar  1 3.650000e-01    2.340000e+00
  TN3d SN2ar  1 3.650000e-01    2.340000e+00
  TN2d SN2ar  1 3.650000e-01    2.340000e+00
  TP6a SN3ar  1 3.650000e-01    1.750000e+00
  TP5a SN3ar  1 3.650000e-01    1.750000e+00
  TP4a SN3ar  1 3.650000e-01    1.750000e+00
  TP3a SN3ar  1 3.650000e-01    1.750000e+00
  TP2a SN3ar  1 3.650000e-01    1.750000e+00
  TP1a SN3ar  1 3.650000e-01    1.750000e+00
  TN6a SN3ar  1 3.650000e-01    1.910000e+00
  TN5a SN3ar  1 3.650000e-01    1.910000e+00
  TN4a SN3ar  1 3.650000e-01    1.910000e+00
  TP6d SN3ar  1 3.650000e-01    1.750000e+00
  TP5d SN3ar  1 3.650000e-01    1.750000e+00
  TP4d SN3ar  1 3.650000e-01    2.110000e+00
  TP3d SN3ar  1 3.650000e-01    2.110000e+00
  TP2d SN3ar  1 3.650000e-01    2.110000e+00
  TP1d SN3ar  1 3.650000e-01    2.110000e+00
  TN6d SN3ar  1 3.650000e-01    2.340000e+00
  TN5d SN3ar  1 3.650000e-01    2.340000e+00
  TN4d SN3ar  1 3.650000e-01    2.340000e+00
  TN3d SN3ar  1 3.650000e-01    2.340000e+00
  TP6a SN4ar  1 3.650000e-01    1.750000e+00
  TP5a SN4ar  1 3.650000e-01    1.910000e+00
  TP4a SN4ar  1 3.650000e-01    1.910000e+00
  TP3a SN4ar  1 3.650000e-01    1.910000e+00
  TP2a SN4ar  1 3.650000e-01    1.910000e+00
  TP1a SN4ar  1 3.650000e-01    2.110000e+00
  TN6a SN4ar  1 3.650000e-01    2.340000e+00
  TN5a SN4ar  1 3.650000e-01    2.110000e+00
  TP6d SN4ar  1 3.650000e-01    2.110000e+00
  TP5d SN4ar  1 3.650000e-01    2.340000e+00
  TP4d SN4ar  1 3.650000e-01    2.340000e+00
  TP3d SN4ar  1 3.650000e-01    2.340000e+00
  TP2d SN4ar  1 3.650000e-01    2.340000e+00
  TP1d SN4ar  1 3.650000e-01    2.570000e+00
  TN6d SN4ar  1 3.650000e-01    2.830000e+00
  TN5d SN4ar  1 3.650000e-01    2.570000e+00
  TN4d SN4ar  1 3.650000e-01    2.570000e+00
  TP6a SN5ar  1 3.650000e-01    1.910000e+00
  TP5a SN5ar  1 3.650000e-01    1.910000e+00
  TP4a SN5ar  1 3.650000e-01    1.910000e+00
  TP3a SN5ar  1 3.650000e-01    1.910000e+00
  TP2a SN5ar  1 3.650000e-01    2.110000e+00
  TP1a SN5ar  1 3.650000e-01    2.110000e+00
  TN6a SN5ar  1 3.650000e-01    2.340000e+00
  TP6d SN5ar  1 3.650000e-01    2.340000e+00
  TP5d SN5ar  1 3.650000e-01    2.340000e+00
  TP4d SN5ar  1 3.650000e-01    2.340000e+00
  TP3d SN5ar  1 3.650000e-01    2.340000e+00
  TP2d SN5ar  1 3.650000e-01    2.570000e+00
  TP1d SN5ar  1 3.650000e-01    2.570000e+00
  TN6d SN5ar  1 3.650000e-01    2.830000e+00
  TN5d SN5ar  1 3.650000e-01    2.570000e+00
  TP6a SN6ar  1 3.650000e-01    2.340000e+00
  TP5a SN6ar  1 3.650000e-01    2.110000e+00
  TP4a SN6ar  1 3.650000e-01    2.110000e+00
  TP3a SN6ar  1 3.650000e-01    2.110000e+00
  TP2a SN6ar  1 3.650000e-01    2.340000e+00
  TP1a SN6ar  1 3.650000e-01    2.340000e+00
  TP6d SN6ar  1 3.650000e-01    2.830000e+00
  TP5d SN6ar  1 3.650000e-01    2.570000e+00
  TP4d SN6ar  1 3.650000e-01    2.570000e+00
  TP3d SN6ar  1 3.650000e-01    2.570000e+00
  TP2d SN6ar  1 3.650000e-01    2.830000e+00
  TP1d SN6ar  1 3.650000e-01    2.830000e+00
  TN6d SN6ar  1 3.650000e-01    2.830000e+00
  TP6a SP1ar  1 3.650000e-01    2.570000e+00
  TP5a SP1ar  1 3.650000e-01    2.340000e+00
  TP4a SP1ar  1 3.650000e-01    2.340000e+00
  TP3a SP1ar  1 3.650000e-01    2.340000e+00
  TP2a SP1ar  1 3.650000e-01    2.340000e+00
  TP6d SP1ar  1 3.650000e-01    3.100000e+00
  TP5d SP1ar  1 3.650000e-01    2.830000e+00
  TP4d SP1ar  1 3.650000e-01    2.830000e+00
  TP3d SP1ar  1 3.650000e-01    2.830000e+00
  TP2d SP1ar  1 3.650000e-01    2.830000e+00
  TP1d SP1ar  1 3.650000e-01    2.830000e+00
  TP6a SP2ar  1 3.650000e-01    2.830000e+00
  TP5a SP2ar  1 3.650000e-01    2.570000e+00
  TP4a SP2ar  1 3.650000e-01    2.570000e+00
  TP3a SP2ar  1 3.650000e-01    2.570000e+00
  TP6d SP2ar  1 3.650000e-01    3.370000e+00
  TP5d SP2ar  1 3.650000e-01    3.100000e+00
  TP4d SP2ar  1 3.650000e-01    3.100000e+00
  TP3d SP2ar  1 3.650000e-01    3.100000e+00
  TP2d SP2ar  1 3.650000e-01    3.100000e+00
  TP6a SP3ar  1 3.650000e-01    2.830000e+00
  TP5a SP3ar  1 3.650000e-01    2.570000e+00
  TP4a SP3ar  1 3.650000e-01    2.570000e+00
  TP6d SP3ar  1 3.650000e-01    3.370000e+00
  TP5d SP3ar  1 3.650000e-01    3.100000e+00
  TP4d SP3ar  1 3.650000e-01    3.100000e+00
  TP3d SP3ar  1 3.650000e-01    3.100000e+00
  TP6a SP4ar  1 3.650000e-01    3.100000e+00
  TP5a SP4ar  1 3.650000e-01    2.830000e+00
  TP6d SP4ar  1 3.650000e-01    3.640000e+00
  TP5d SP4ar  1 3.650000e-01    3.370000e+00
  TP4d SP4ar  1 3.650000e-01    3.370000e+00
  TP6a SP5ar  1 3.650000e-01    3.370000e+00
  TP6d SP5ar  1 3.650000e-01    3.930000e+00
  TP5d SP5ar  1 3.650000e-01    3.640000e+00
  TP6d SP6ar  1 3.650000e-01    4.220000e+00
  TP6d SN1dr  1 3.780000e-01    1.450000e+00
  TP5d SN1dr  1 3.780000e-01    1.450000e+00
  TP4d SN1dr  1 3.660000e-01    1.600000e+00
  TP3d SN1dr  1 3.650000e-01    1.750000e+00
  TP2d SN1dr  1 3.650000e-01    1.750000e+00
  TP1d SN1dr  1 3.650000e-01    1.750000e+00
  TN6d SN1dr  1 3.650000e-01    1.750000e+00
  TN5d SN1dr  1 3.650000e-01    1.750000e+00
  TN4d SN1dr  1 3.650000e-01    1.750000e+00
  TN3d SN1dr  1 3.650000e-01    1.750000e+00
  TN2d SN1dr  1 3.650000e-01    1.750000e+00
  TP6d SN2dr  1 3.660000e-01    1.600000e+00
  TP5d SN2dr  1 3.660000e-01    1.600000e+00
  TP4d SN2dr  1 3.650000e-01    1.750000e+00
  TP3d SN2dr  1 3.650000e-01    1.750000e+00
  TP2d SN2dr  1 3.650000e-01    1.750000e+00
  TP1d SN2dr  1 3.650000e-01    1.750000e+00
  TN6d SN2dr  1 3.650000e-01    1.750000e+00
  TN5d SN2dr  1 3.650000e-01    1.910000e+00
  TN4d SN2dr  1 3.650000e-01    1.910000e+00
  TN3d SN2dr  1 3.650000e-01    1.910000e+00
  TP6d SN3dr  1 3.650000e-01    1.750000e+00
  TP5d SN3dr  1 3.650000e-01    1.750000e+00
  TP4d SN3dr  1 3.650000e-01    1.750000e+00
  TP3d SN3dr  1 3.650000e-01    1.750000e+00
  TP2d SN3dr  1 3.650000e-01    1.750000e+00
  TP1d SN3dr  1 3.650000e-01    1.750000e+00
  TN6d SN3dr  1 3.650000e-01    1.910000e+00
  TN5d SN3dr  1 3.650000e-01    1.910000e+00
  TN4d SN3dr  1 3.650000e-01    1.910000e+00
  TP6d SN4dr  1 3.650000e-01    1.750000e+00
  TP5d SN4dr  1 3.650000e-01    1.910000e+00
  TP4d SN4dr  1 3.650000e-01    1.910000e+00
  TP3d SN4dr  1 3.650000e-01    1.910000e+00
  TP2d SN4dr  1 3.650000e-01    1.910000e+00
  TP1d SN4dr  1 3.650000e-01    2.110000e+00
  TN6d SN4dr  1 3.650000e-01    2.340000e+00
  TN5d SN4dr  1 3.650000e-01    2.110000e+00
  TP6d SN5dr  1 3.650000e-01    1.910000e+00
  TP5d SN5dr  1 3.650000e-01    1.910000e+00
  TP4d SN5dr  1 3.650000e-01    1.910000e+00
  TP3d SN5dr  1 3.650000e-01    1.910000e+00
  TP2d SN5dr  1 3.650000e-01    2.110000e+00
  TP1d SN5dr  1 3.650000e-01    2.110000e+00
  TN6d SN5dr  1 3.650000e-01    2.340000e+00
  TP6d SN6dr  1 3.650000e-01    2.340000e+00
  TP5d SN6dr  1 3.650000e-01    2.110000e+00
  TP4d SN6dr  1 3.650000e-01    2.110000e+00
  TP3d SN6dr  1 3.650000e-01    2.110000e+00
  TP2d SN6dr  1 3.650000e-01    2.340000e+00
  TP1d SN6dr  1 3.650000e-01    2.340000e+00
  TP6d SP1dr  1 3.650000e-01    2.570000e+00
  TP5d SP1dr  1 3.650000e-01    2.340000e+00
  TP4d SP1dr  1 3.650000e-01    2.340000e+00
  TP3d SP1dr  1 3.650000e-01    2.340000e+00
  TP2d SP1dr  1 3.650000e-01    2.340000e+00
  TP6d SP2dr  1 3.650000e-01    2.830000e+00
  TP5d SP2dr  1 3.650000e-01    2.570000e+00
  TP4d SP2dr  1 3.650000e-01    2.570000e+00
  TP3d SP2dr  1 3.650000e-01    2.570000e+00
  TP6d SP3dr  1 3.650000e-01    2.830000e+00
  TP5d SP3dr  1 3.650000e-01    2.570000e+00
  TP4d SP3dr  1 3.650000e-01    2.570000e+00
  TP6d SP4dr  1 3.650000e-01    3.100000e+00
  TP5d SP4dr  1 3.650000e-01    2.830000e+00
  TP6d SP5dr  1 3.650000e-01    3.370000e+00
  TP6r SP6dr  1 3.650000e-01    3.640000e+00
  TP6r SP5dr  1 3.650000e-01    3.370000e+00
  TP6r SP4dr  1 3.650000e-01    3.100000e+00
  TP6r SP3dr  1 3.650000e-01    2.830000e+00
  TP6r SP2dr  1 3.650000e-01    2.830000e+00
  TP6r SP1dr  1 3.650000e-01    2.570000e+00
  TP6r SN6dr  1 3.650000e-01    2.340000e+00
  TP6r SN5dr  1 3.650000e-01    1.910000e+00
  TP6r SN4dr  1 3.650000e-01    1.750000e+00
  TP6r SN3dr  1 3.660000e-01    1.600000e+00
  TP6r SN2dr  1 3.780000e-01    1.450000e+00
  TP6r SN1dr  1 3.940000e-01    1.290000e+00
  TP6r SP6ar  1 3.650000e-01    3.640000e+00
  TP6r SP5ar  1 3.650000e-01    3.370000e+00
  TP6r SP4ar  1 3.650000e-01    3.100000e+00
  TP6r SP3ar  1 3.650000e-01    2.830000e+00
  TP6r SP2ar  1 3.650000e-01    2.830000e+00
  TP6r SP1ar  1 3.650000e-01    2.570000e+00
  TP6r SN6ar  1 3.650000e-01    2.340000e+00
  TP6r SN5ar  1 3.650000e-01    1.910000e+00
  TP6r SN4ar  1 3.650000e-01    1.750000e+00
  TP6r SN3ar  1 3.660000e-01    1.600000e+00
  TP6r SN2ar  1 3.780000e-01    1.450000e+00
  TP6r SN1ar  1 3.940000e-01    1.290000e+00
  TP5r SP5dr  1 3.650000e-01    3.100000e+00
  TP5r SP4dr  1 3.650000e-01    2.830000e+00
  TP5r SP3dr  1 3.650000e-01    2.570000e+00
  TP5r SP2dr  1 3.650000e-01    2.570000e+00
  TP5r SP1dr  1 3.650000e-01    2.340000e+00
  TP5r SN6dr  1 3.650000e-01    2.110000e+00
  TP5r SN5dr  1 3.650000e-01    1.910000e+00
  TP5r SN4dr  1 3.650000e-01    1.910000e+00
  TP5r SN3dr  1 3.660000e-01    1.600000e+00
  TP5r SN2dr  1 3.780000e-01    1.450000e+00
  TP5r SN1dr  1 3.940000e-01    1.290000e+00
  TP5r SP5ar  1 3.650000e-01    3.100000e+00
  TP5r SP4ar  1 3.650000e-01    2.830000e+00
  TP5r SP3ar  1 3.650000e-01    2.570000e+00
  TP5r SP2ar  1 3.650000e-01    2.570000e+00
  TP5r SP1ar  1 3.650000e-01    2.340000e+00
  TP5r SN6ar  1 3.650000e-01    2.110000e+00
  TP5r SN5ar  1 3.650000e-01    1.910000e+00
  TP5r SN4ar  1 3.650000e-01    1.910000e+00
  TP5r SN3ar  1 3.660000e-01    1.600000e+00
  TP5r SN2ar  1 3.780000e-01    1.450000e+00
  TP5r SN1ar  1 3.940000e-01    1.290000e+00
  TP4r SP4dr  1 3.650000e-01    2.830000e+00
  TP4r SP3dr  1 3.650000e-01    2.570000e+00
  TP4r SP2dr  1 3.650000e-01    2.570000e+00
  TP4r SP1dr  1 3.650000e-01    2.340000e+00
  TP4r SN6dr  1 3.650000e-01    2.110000e+00
  TP4r SN5dr  1 3.650000e-01    1.910000e+00
  TP4r SN4dr  1 3.650000e-01    1.910000e+00
  TP4r SN3dr  1 3.650000e-01    1.750000e+00
  TP4r SN2dr  1 3.660000e-01    1.600000e+00
  TP4r SN1dr  1 3.780000e-01    1.450000e+00
  TP4r SP4ar  1 3.650000e-01    2.830000e+00
  TP4r SP3ar  1 3.650000e-01    2.570000e+00
  TP4r SP2ar  1 3.650000e-01    2.570000e+00
  TP4r SP1ar  1 3.650000e-01    2.340000e+00
  TP4r SN6ar  1 3.650000e-01    2.110000e+00
  TP4r SN5ar  1 3.650000e-01    1.910000e+00
  TP4r SN4ar  1 3.650000e-01    1.910000e+00
  TP4r SN3ar  1 3.650000e-01    1.750000e+00
  TP4r SN2ar  1 3.660000e-01    1.600000e+00
  TP4r SN1ar  1 3.780000e-01    1.450000e+00
  TP3r SP3dr  1 3.650000e-01    2.570000e+00
  TP3r SP2dr  1 3.650000e-01    2.570000e+00
  TP3r SP1dr  1 3.650000e-01    2.340000e+00
  TP3r SN6dr  1 3.650000e-01    2.110000e+00
  TP3r SN5dr  1 3.650000e-01    1.910000e+00
  TP3r SN4dr  1 3.650000e-01    1.910000e+00
  TP3r SN3dr  1 3.650000e-01    1.750000e+00
  TP3r SN2dr  1 3.650000e-01    1.750000e+00
  TP3r SN1dr  1 3.660000e-01    1.600000e+00
  TP3r SP3ar  1 3.650000e-01    2.570000e+00
  TP3r SP2ar  1 3.650000e-01    2.570000e+00
  TP3r SP1ar  1 3.650000e-01    2.340000e+00
  TP3r SN6ar  1 3.650000e-01    2.110000e+00
  TP3r SN5ar  1 3.650000e-01    1.910000e+00
  TP3r SN4ar  1 3.650000e-01    1.910000e+00
  TP3r SN3ar  1 3.650000e-01    1.750000e+00
  TP3r SN2ar  1 3.650000e-01    1.750000e+00
  TP3r SN1ar  1 3.660000e-01    1.600000e+00
  TP2r SP2dr  1 3.650000e-01    2.570000e+00
  TP2r SP1dr  1 3.650000e-01    2.340000e+00
  TP2r SN6dr  1 3.650000e-01    2.340000e+00
  TP2r SN5dr  1 3.650000e-01    2.110000e+00
  TP2r SN4dr  1 3.650000e-01    1.910000e+00
  TP2r SN3dr  1 3.650000e-01    1.750000e+00
  TP2r SN2dr  1 3.650000e-01    1.750000e+00
  TP2r SN1dr  1 3.650000e-01    1.750000e+00
  TP2r SP2ar  1 3.650000e-01    2.570000e+00
  TP2r SP1ar  1 3.650000e-01    2.340000e+00
  TP2r SN6ar  1 3.650000e-01    2.340000e+00
  TP2r SN5ar  1 3.650000e-01    2.110000e+00
  TP2r SN4ar  1 3.650000e-01    1.910000e+00
  TP2r SN3ar  1 3.650000e-01    1.750000e+00
  TP2r SN2ar  1 3.650000e-01    1.750000e+00
  TP2r SN1ar  1 3.650000e-01    1.750000e+00
  TP1r SP1dr  1 3.650000e-01    2.340000e+00
  TP1r SN6dr  1 3.650000e-01    2.340000e+00
  TP1r SN5dr  1 3.650000e-01    2.110000e+00
  TP1r SN4dr  1 3.650000e-01    2.110000e+00
  TP1r SN3dr  1 3.650000e-01    1.750000e+00
  TP1r SN2dr  1 3.650000e-01    1.750000e+00
  TP1r SN1dr  1 3.650000e-01    1.750000e+00
  TP1r SP1ar  1 3.650000e-01    2.340000e+00
  TP1r SN6ar  1 3.650000e-01    2.340000e+00
  TP1r SN5ar  1 3.650000e-01    2.110000e+00
  TP1r SN4ar  1 3.650000e-01    2.110000e+00
  TP1r SN3ar  1 3.650000e-01    1.750000e+00
  TP1r SN2ar  1 3.650000e-01    1.750000e+00
  TP1r SN1ar  1 3.650000e-01    1.750000e+00
  TN6r SN6dr  1 3.650000e-01    2.340000e+00
  TN6r SN5dr  1 3.650000e-01    2.340000e+00
  TN6r SN4dr  1 3.650000e-01    2.340000e+00
  TN6r SN3dr  1 3.650000e-01    1.910000e+00
  TN6r SN2dr  1 3.650000e-01    1.750000e+00
  TN6r SN1dr  1 3.650000e-01    1.750000e+00
  TN6r SN6ar  1 3.650000e-01    2.340000e+00
  TN6r SN5ar  1 3.650000e-01    2.340000e+00
  TN6r SN4ar  1 3.650000e-01    2.340000e+00
  TN6r SN3ar  1 3.650000e-01    1.910000e+00
  TN6r SN2ar  1 3.650000e-01    1.750000e+00
  TN6r SN1ar  1 3.650000e-01    1.750000e+00
  TN5r SN5dr  1 3.650000e-01    2.110000e+00
  TN5r SN4dr  1 3.650000e-01    2.110000e+00
  TN5r SN3dr  1 3.650000e-01    1.910000e+00
  TN5r SN2dr  1 3.650000e-01    1.910000e+00
  TN5r SN1dr  1 3.650000e-01    1.750000e+00
  TN5r SN5ar  1 3.650000e-01    2.110000e+00
  TN5r SN4ar  1 3.650000e-01    2.110000e+00
  TN5r SN3ar  1 3.650000e-01    1.910000e+00
  TN5r SN2ar  1 3.650000e-01    1.910000e+00
  TN5r SN1ar  1 3.650000e-01    1.750000e+00
  TN4r SN4dr  1 3.650000e-01    2.110000e+00
  TN4r SN3dr  1 3.650000e-01    1.910000e+00
  TN4r SN2dr  1 3.650000e-01    1.910000e+00
  TN4r SN1dr  1 3.650000e-01    1.750000e+00
  TN4r SN4ar  1 3.650000e-01    2.110000e+00
  TN4r SN3ar  1 3.650000e-01    1.910000e+00
  TN4r SN2ar  1 3.650000e-01    1.910000e+00
  TN4r SN1ar  1 3.650000e-01    1.750000e+00
  TN3r SN3dr  1 3.650000e-01    1.910000e+00
  TN3r SN2dr  1 3.650000e-01    1.910000e+00
  TN3r SN1dr  1 3.650000e-01    1.750000e+00
  TN3r SN3ar  1 3.650000e-01    1.910000e+00
  TN3r SN2ar  1 3.650000e-01    1.910000e+00
  TN3r SN1ar  1 3.650000e-01    1.750000e+00
  TN2r SN2dr  1 3.650000e-01    1.910000e+00
  TN2r SN1dr  1 3.650000e-01    1.750000e+00
  TN2r SN2ar  1 3.650000e-01    1.910000e+00
  TN2r SN1ar  1 3.650000e-01    1.750000e+00
  TN1r SN1dr  1 3.650000e-01    1.910000e+00
  TN1r SN1ar  1 3.650000e-01    1.910000e+00
  TC6r SC6vr  1 3.650000e-01    2.110000e+00
  TC6r SC5vr  1 3.650000e-01    1.910000e+00
  TC6r SC4vr  1 3.650000e-01    1.910000e+00
  TC6r SC3vr  1 3.650000e-01    1.750000e+00
  TC6r SC2vr  1 3.660000e-01    1.600000e+00
  TC6r SC1vr  1 3.780000e-01    1.450000e+00
  TC6r SX4vr  1 3.650000e-01    1.910000e+00
  TC6r SX3vr  1 3.650000e-01    1.910000e+00
  TC6r SX2vr  1 3.650000e-01    1.910000e+00
  TC6r SX1vr  1 3.650000e-01    1.910000e+00
  TC6r SC6er  1 3.650000e-01    2.110000e+00
  TC6r SC5er  1 3.650000e-01    1.910000e+00
  TC6r SC4er  1 3.650000e-01    1.910000e+00
  TC6r SC3er  1 3.650000e-01    1.750000e+00
  TC6r SC2er  1 3.660000e-01    1.600000e+00
  TC6r SC1er  1 3.780000e-01    1.450000e+00
  TC6r SX4er  1 3.650000e-01    1.910000e+00
  TC6r SX3er  1 3.650000e-01    1.910000e+00
  TC6r SX2er  1 3.650000e-01    1.910000e+00
  TC6r SX1er  1 3.650000e-01    1.910000e+00
  TC5r SC5vr  1 3.650000e-01    1.910000e+00
  TC5r SC4vr  1 3.650000e-01    1.910000e+00
  TC5r SC3vr  1 3.650000e-01    1.750000e+00
  TC5r SC2vr  1 3.660000e-01    1.600000e+00
  TC5r SC1vr  1 3.660000e-01    1.600000e+00
  TC5r SX4vr  1 3.650000e-01    1.750000e+00
  TC5r SX3vr  1 3.650000e-01    1.750000e+00
  TC5r SX2vr  1 3.650000e-01    1.750000e+00
  TC5r SX1vr  1 3.650000e-01    1.910000e+00
  TC5r SC5er  1 3.650000e-01    1.910000e+00
  TC5r SC4er  1 3.650000e-01    1.910000e+00
  TC5r SC3er  1 3.650000e-01    1.750000e+00
  TC5r SC2er  1 3.660000e-01    1.600000e+00
  TC5r SC1er  1 3.660000e-01    1.600000e+00
  TC5r SX4er  1 3.650000e-01    1.750000e+00
  TC5r SX3er  1 3.650000e-01    1.750000e+00
  TC5r SX2er  1 3.650000e-01    1.750000e+00
  TC5r SX1er  1 3.650000e-01    1.910000e+00
  TC4r SC4vr  1 3.650000e-01    1.910000e+00
  TC4r SC3vr  1 3.650000e-01    1.910000e+00
  TC4r SC2vr  1 3.650000e-01    1.750000e+00
  TC4r SC1vr  1 3.660000e-01    1.600000e+00
  TC4r SX4vr  1 3.650000e-01    1.750000e+00
  TC4r SX3vr  1 3.650000e-01    1.750000e+00
  TC4r SX2vr  1 3.650000e-01    1.750000e+00
  TC4r SX1vr  1 3.650000e-01    1.910000e+00
  TC4r SC4er  1 3.650000e-01    1.910000e+00
  TC4r SC3er  1 3.650000e-01    1.910000e+00
  TC4r SC2er  1 3.650000e-01    1.750000e+00
  TC4r SC1er  1 3.660000e-01    1.600000e+00
  TC4r SX4er  1 3.650000e-01    1.750000e+00
  TC4r SX3er  1 3.650000e-01    1.750000e+00
  TC4r SX2er  1 3.650000e-01    1.750000e+00
  TC4r SX1er  1 3.650000e-01    1.910000e+00
  TC3r SC3vr  1 3.650000e-01    1.910000e+00
  TC3r SC2vr  1 3.650000e-01    1.910000e+00
  TC3r SC1vr  1 3.650000e-01    1.910000e+00
  TC3r SX4vr  1 3.650000e-01    1.750000e+00
  TC3r SX3vr  1 3.650000e-01    1.750000e+00
  TC3r SX2vr  1 3.650000e-01    1.750000e+00
  TC3r SX1vr  1 3.650000e-01    1.910000e+00
  TC3r SC3er  1 3.650000e-01    1.910000e+00
  TC3r SC2er  1 3.650000e-01    1.910000e+00
  TC3r SC1er  1 3.650000e-01    1.910000e+00
  TC3r SX4er  1 3.650000e-01    1.750000e+00
  TC3r SX3er  1 3.650000e-01    1.750000e+00
  TC3r SX2er  1 3.650000e-01    1.750000e+00
  TC3r SX1er  1 3.650000e-01    1.910000e+00
  TC2r SC2vr  1 3.650000e-01    1.910000e+00
  TC2r SC1vr  1 3.650000e-01    2.110000e+00
  TC2r SX4vr  1 3.780000e-01    1.450000e+00
  TC2r SX3vr  1 3.650000e-01    1.750000e+00
  TC2r SX2vr  1 3.650000e-01    1.750000e+00
  TC2r SX1vr  1 3.650000e-01    1.750000e+00
  TC2r SC2er  1 3.650000e-01    1.910000e+00
  TC2r SC1er  1 3.650000e-01    2.110000e+00
  TC2r SX4er  1 3.780000e-01    1.450000e+00
  TC2r SX3er  1 3.650000e-01    1.750000e+00
  TC2r SX2er  1 3.650000e-01    1.750000e+00
  TC2r SX1er  1 3.650000e-01    1.750000e+00
  TC1r SC1vr  1 3.650000e-01    1.910000e+00
  TC1r SX4vr  1 3.780000e-01    1.450000e+00
  TC1r SX3vr  1 3.650000e-01    1.750000e+00
  TC1r SX2vr  1 3.650000e-01    1.750000e+00
  TC1r SX1vr  1 3.650000e-01    1.750000e+00
  TC1r SC1er  1 3.650000e-01    1.910000e+00
  TC1r SX4er  1 3.780000e-01    1.450000e+00
  TC1r SX3er  1 3.650000e-01    1.750000e+00
  TC1r SX2er  1 3.650000e-01    1.750000e+00
  TC1r SX1er  1 3.650000e-01    1.750000e+00
  TX4r SX4vr  1 3.650000e-01    1.910000e+00
  TX4r SX3vr  1 3.650000e-01    1.910000e+00
  TX4r SX2vr  1 3.650000e-01    1.910000e+00
  TX4r SX1vr  1 3.650000e-01    1.910000e+00
  TX4r SX4er  1 3.650000e-01    1.910000e+00
  TX4r SX3er  1 3.650000e-01    1.910000e+00
  TX4r SX2er  1 3.650000e-01    1.910000e+00
  TX4r SX1er  1 3.650000e-01    1.910000e+00
  TX3r SX3vr  1 3.650000e-01    1.910000e+00
  TX3r SX2vr  1 3.650000e-01    2.110000e+00
  TX3r SX1vr  1 3.650000e-01    2.110000e+00
  TX3r SX3er  1 3.650000e-01    1.910000e+00
  TX3r SX2er  1 3.650000e-01    2.110000e+00
  TX3r SX1er  1 3.650000e-01    2.110000e+00
  TX2r SX2vr  1 3.650000e-01    2.110000e+00
  TX2r SX1vr  1 3.650000e-01    2.110000e+00
  TX2r SX2er  1 3.650000e-01    2.110000e+00
  TX2r SX1er  1 3.650000e-01    2.110000e+00
  TX1r SX1vr  1 3.650000e-01    2.340000e+00
  TX1r SX1er  1 3.650000e-01    2.340000e+00
  TP6r SC6vr  1 3.660000e-01    1.600000e+00
  TP6r SC5vr  1 3.780000e-01    1.450000e+00
  TP6r SC4vr  1 3.940000e-01    1.290000e+00
  TP6r SC3vr  1 4.040000e-01    1.130000e+00
  TP6r SC2vr  1 4.040000e-01    1.130000e+00
  TP6r SC1vr  1 4.230000e-01    9.810000e-01
  TP6r SX4vr  1 3.650000e-01    1.750000e+00
  TP6r SX3vr  1 3.650000e-01    1.750000e+00
  TP6r SX2vr  1 3.660000e-01    1.600000e+00
  TP6r SX1vr  1 3.780000e-01    1.450000e+00
  TP6r SC6er  1 3.660000e-01    1.600000e+00
  TP6r SC5er  1 3.780000e-01    1.450000e+00
  TP6r SC4er  1 3.940000e-01    1.290000e+00
  TP6r SC3er  1 4.040000e-01    1.130000e+00
  TP6r SC2er  1 4.040000e-01    1.130000e+00
  TP6r SC1er  1 4.230000e-01    9.810000e-01
  TP6r SX4er  1 3.650000e-01    1.750000e+00
  TP6r SX3er  1 3.650000e-01    1.750000e+00
  TP6r SX2er  1 3.660000e-01    1.600000e+00
  TP6r SX1er  1 3.780000e-01    1.450000e+00
  TP5r SC6vr  1 3.660000e-01    1.600000e+00
  TP5r SC5vr  1 3.660000e-01    1.600000e+00
  TP5r SC4vr  1 3.780000e-01    1.450000e+00
  TP5r SC3vr  1 3.940000e-01    1.290000e+00
  TP5r SC2vr  1 3.940000e-01    1.290000e+00
  TP5r SC1vr  1 4.040000e-01    1.130000e+00
  TP5r SX4vr  1 3.650000e-01    1.910000e+00
  TP5r SX3vr  1 3.650000e-01    1.750000e+00
  TP5r SX2vr  1 3.650000e-01    1.750000e+00
  TP5r SX1vr  1 3.780000e-01    1.450000e+00
  TP5r SC6er  1 3.660000e-01    1.600000e+00
  TP5r SC5er  1 3.660000e-01    1.600000e+00
  TP5r SC4er  1 3.780000e-01    1.450000e+00
  TP5r SC3er  1 3.940000e-01    1.290000e+00
  TP5r SC2er  1 3.940000e-01    1.290000e+00
  TP5r SC1er  1 4.040000e-01    1.130000e+00
  TP5r SX4er  1 3.650000e-01    1.910000e+00
  TP5r SX3er  1 3.650000e-01    1.750000e+00
  TP5r SX2er  1 3.650000e-01    1.750000e+00
  TP5r SX1er  1 3.780000e-01    1.450000e+00
  TP4r SC6vr  1 3.650000e-01    1.750000e+00
  TP4r SC5vr  1 3.660000e-01    1.600000e+00
  TP4r SC4vr  1 3.780000e-01    1.450000e+00
  TP4r SC3vr  1 3.940000e-01    1.290000e+00
  TP4r SC2vr  1 3.940000e-01    1.290000e+00
  TP4r SC1vr  1 4.040000e-01    1.130000e+00
  TP4r SX4vr  1 3.650000e-01    1.910000e+00
  TP4r SX3vr  1 3.650000e-01    1.750000e+00
  TP4r SX2vr  1 3.650000e-01    1.750000e+00
  TP4r SX1vr  1 3.660000e-01    1.600000e+00
  TP4r SC6er  1 3.650000e-01    1.750000e+00
  TP4r SC5er  1 3.660000e-01    1.600000e+00
  TP4r SC4er  1 3.780000e-01    1.450000e+00
  TP4r SC3er  1 3.940000e-01    1.290000e+00
  TP4r SC2er  1 3.940000e-01    1.290000e+00
  TP4r SC1er  1 4.040000e-01    1.130000e+00
  TP4r SX4er  1 3.650000e-01    1.910000e+00
  TP4r SX3er  1 3.650000e-01    1.750000e+00
  TP4r SX2er  1 3.650000e-01    1.750000e+00
  TP4r SX1er  1 3.660000e-01    1.600000e+00
  TP3r SC6vr  1 3.650000e-01    1.910000e+00
  TP3r SC5vr  1 3.650000e-01    1.750000e+00
  TP3r SC4vr  1 3.660000e-01    1.600000e+00
  TP3r SC3vr  1 3.940000e-01    1.290000e+00
  TP3r SC2vr  1 3.940000e-01    1.290000e+00
  TP3r SC1vr  1 4.040000e-01    1.130000e+00
  TP3r SX4vr  1 3.650000e-01    1.910000e+00
  TP3r SX3vr  1 3.650000e-01    1.910000e+00
  TP3r SX2vr  1 3.650000e-01    1.750000e+00
  TP3r SX1vr  1 3.660000e-01    1.600000e+00
  TP3r SC6er  1 3.650000e-01    1.910000e+00
  TP3r SC5er  1 3.650000e-01    1.750000e+00
  TP3r SC4er  1 3.660000e-01    1.600000e+00
  TP3r SC3er  1 3.940000e-01    1.290000e+00
  TP3r SC2er  1 3.940000e-01    1.290000e+00
  TP3r SC1er  1 4.040000e-01    1.130000e+00
  TP3r SX4er  1 3.650000e-01    1.910000e+00
  TP3r SX3er  1 3.650000e-01    1.910000e+00
  TP3r SX2er  1 3.650000e-01    1.750000e+00
  TP3r SX1er  1 3.660000e-01    1.600000e+00
  TP2r SC6vr  1 3.650000e-01    1.910000e+00
  TP2r SC5vr  1 3.650000e-01    1.750000e+00
  TP2r SC4vr  1 3.660000e-01    1.600000e+00
  TP2r SC3vr  1 3.780000e-01    1.450000e+00
  TP2r SC2vr  1 3.780000e-01    1.450000e+00
  TP2r SC1vr  1 3.940000e-01    1.290000e+00
  TP2r SX4vr  1 3.650000e-01    1.910000e+00
  TP2r SX3vr  1 3.650000e-01    1.910000e+00
  TP2r SX2vr  1 3.650000e-01    1.750000e+00
  TP2r SX1vr  1 3.660000e-01    1.600000e+00
  TP2r SC6er  1 3.650000e-01    1.910000e+00
  TP2r SC5er  1 3.650000e-01    1.750000e+00
  TP2r SC4er  1 3.660000e-01    1.600000e+00
  TP2r SC3er  1 3.780000e-01    1.450000e+00
  TP2r SC2er  1 3.780000e-01    1.450000e+00
  TP2r SC1er  1 3.940000e-01    1.290000e+00
  TP2r SX4er  1 3.650000e-01    1.910000e+00
  TP2r SX3er  1 3.650000e-01    1.910000e+00
  TP2r SX2er  1 3.650000e-01    1.750000e+00
  TP2r SX1er  1 3.660000e-01    1.600000e+00
  TP1r SC6vr  1 3.650000e-01    1.910000e+00
  TP1r SC5vr  1 3.650000e-01    1.750000e+00
  TP1r SC4vr  1 3.660000e-01    1.600000e+00
  TP1r SC3vr  1 3.780000e-01    1.450000e+00
  TP1r SC2vr  1 3.780000e-01    1.450000e+00
  TP1r SC1vr  1 3.940000e-01    1.290000e+00
  TP1r SX4vr  1 3.650000e-01    1.910000e+00
  TP1r SX3vr  1 3.650000e-01    1.910000e+00
  TP1r SX2vr  1 3.650000e-01    1.750000e+00
  TP1r SX1vr  1 3.660000e-01    1.600000e+00
  TP1r SC6er  1 3.650000e-01    1.910000e+00
  TP1r SC5er  1 3.650000e-01    1.750000e+00
  TP1r SC4er  1 3.660000e-01    1.600000e+00
  TP1r SC3er  1 3.780000e-01    1.450000e+00
  TP1r SC2er  1 3.780000e-01    1.450000e+00
  TP1r SC1er  1 3.940000e-01    1.290000e+00
  TP1r SX4er  1 3.650000e-01    1.910000e+00
  TP1r SX3er  1 3.650000e-01    1.910000e+00
  TP1r SX2er  1 3.650000e-01    1.750000e+00
  TP1r SX1er  1 3.660000e-01    1.600000e+00
  TN6r SC6vr  1 3.650000e-01    2.110000e+00
  TN6r SC5vr  1 3.650000e-01    1.910000e+00
  TN6r SC4vr  1 3.650000e-01    1.750000e+00
  TN6r SC3vr  1 3.660000e-01    1.600000e+00
  TN6r SC2vr  1 3.660000e-01    1.600000e+00
  TN6r SC1vr  1 3.780000e-01    1.450000e+00
  TN6r SX4vr  1 3.650000e-01    2.110000e+00
  TN6r SX3vr  1 3.650000e-01    1.910000e+00
  TN6r SX2vr  1 3.650000e-01    1.750000e+00
  TN6r SX1vr  1 3.660000e-01    1.600000e+00
  TN6r SC6er  1 3.650000e-01    2.110000e+00
  TN6r SC5er  1 3.650000e-01    1.910000e+00
  TN6r SC4er  1 3.650000e-01    1.750000e+00
  TN6r SC3er  1 3.660000e-01    1.600000e+00
  TN6r SC2er  1 3.660000e-01    1.600000e+00
  TN6r SC1er  1 3.780000e-01    1.450000e+00
  TN6r SX4er  1 3.650000e-01    2.110000e+00
  TN6r SX3er  1 3.650000e-01    1.910000e+00
  TN6r SX2er  1 3.650000e-01    1.750000e+00
  TN6r SX1er  1 3.660000e-01    1.600000e+00
  TN5r SC6vr  1 3.650000e-01    2.110000e+00
  TN5r SC5vr  1 3.650000e-01    1.910000e+00
  TN5r SC4vr  1 3.650000e-01    1.750000e+00
  TN5r SC3vr  1 3.650000e-01    1.750000e+00
  TN5r SC2vr  1 3.660000e-01    1.600000e+00
  TN5r SC1vr  1 3.780000e-01    1.450000e+00
  TN5r SX4vr  1 3.650000e-01    2.340000e+00
  TN5r SX3vr  1 3.650000e-01    2.110000e+00
  TN5r SX2vr  1 3.650000e-01    1.910000e+00
  TN5r SX1vr  1 3.650000e-01    1.750000e+00
  TN5r SC6er  1 3.650000e-01    2.110000e+00
  TN5r SC5er  1 3.650000e-01    1.910000e+00
  TN5r SC4er  1 3.650000e-01    1.750000e+00
  TN5r SC3er  1 3.650000e-01    1.750000e+00
  TN5r SC2er  1 3.660000e-01    1.600000e+00
  TN5r SC1er  1 3.780000e-01    1.450000e+00
  TN5r SX4er  1 3.650000e-01    2.340000e+00
  TN5r SX3er  1 3.650000e-01    2.110000e+00
  TN5r SX2er  1 3.650000e-01    1.910000e+00
  TN5r SX1er  1 3.650000e-01    1.750000e+00
  TN4r SC6vr  1 3.650000e-01    2.110000e+00
  TN4r SC5vr  1 3.650000e-01    1.910000e+00
  TN4r SC4vr  1 3.650000e-01    1.910000e+00
  TN4r SC3vr  1 3.650000e-01    1.750000e+00
  TN4r SC2vr  1 3.660000e-01    1.600000e+00
  TN4r SC1vr  1 3.780000e-01    1.450000e+00
  TN4r SX4vr  1 3.650000e-01    2.570000e+00
  TN4r SX3vr  1 3.650000e-01    2.340000e+00
  TN4r SX2vr  1 3.650000e-01    1.910000e+00
  TN4r SX1vr  1 3.650000e-01    1.750000e+00
  TN4r SC6er  1 3.650000e-01    2.110000e+00
  TN4r SC5er  1 3.650000e-01    1.910000e+00
  TN4r SC4er  1 3.650000e-01    1.910000e+00
  TN4r SC3er  1 3.650000e-01    1.750000e+00
  TN4r SC2er  1 3.660000e-01    1.600000e+00
  TN4r SC1er  1 3.780000e-01    1.450000e+00
  TN4r SX4er  1 3.650000e-01    2.570000e+00
  TN4r SX3er  1 3.650000e-01    2.340000e+00
  TN4r SX2er  1 3.650000e-01    1.910000e+00
  TN4r SX1er  1 3.650000e-01    1.750000e+00
  TN3r SC6vr  1 3.650000e-01    2.110000e+00
  TN3r SC5vr  1 3.650000e-01    1.910000e+00
  TN3r SC4vr  1 3.650000e-01    1.910000e+00
  TN3r SC3vr  1 3.650000e-01    1.750000e+00
  TN3r SC2vr  1 3.650000e-01    1.750000e+00
  TN3r SC1vr  1 3.660000e-01    1.600000e+00
  TN3r SX4vr  1 3.650000e-01    2.340000e+00
  TN3r SX3vr  1 3.650000e-01    2.110000e+00
  TN3r SX2vr  1 3.650000e-01    1.910000e+00
  TN3r SX1vr  1 3.650000e-01    1.910000e+00
  TN3r SC6er  1 3.650000e-01    2.110000e+00
  TN3r SC5er  1 3.650000e-01    1.910000e+00
  TN3r SC4er  1 3.650000e-01    1.910000e+00
  TN3r SC3er  1 3.650000e-01    1.750000e+00
  TN3r SC2er  1 3.650000e-01    1.750000e+00
  TN3r SC1er  1 3.660000e-01    1.600000e+00
  TN3r SX4er  1 3.650000e-01    2.340000e+00
  TN3r SX3er  1 3.650000e-01    2.110000e+00
  TN3r SX2er  1 3.650000e-01    1.910000e+00
  TN3r SX1er  1 3.650000e-01    1.910000e+00
  TN2r SC6vr  1 3.650000e-01    2.110000e+00
  TN2r SC5vr  1 3.650000e-01    1.910000e+00
  TN2r SC4vr  1 3.650000e-01    1.910000e+00
  TN2r SC3vr  1 3.650000e-01    1.910000e+00
  TN2r SC2vr  1 3.650000e-01    1.750000e+00
  TN2r SC1vr  1 3.660000e-01    1.600000e+00
  TN2r SX4vr  1 3.650000e-01    2.340000e+00
  TN2r SX3vr  1 3.650000e-01    2.110000e+00
  TN2r SX2vr  1 3.650000e-01    1.910000e+00
  TN2r SX1vr  1 3.650000e-01    1.910000e+00
  TN2r SC6er  1 3.650000e-01    2.110000e+00
  TN2r SC5er  1 3.650000e-01    1.910000e+00
  TN2r SC4er  1 3.650000e-01    1.910000e+00
  TN2r SC3er  1 3.650000e-01    1.910000e+00
  TN2r SC2er  1 3.650000e-01    1.750000e+00
  TN2r SC1er  1 3.660000e-01    1.600000e+00
  TN2r SX4er  1 3.650000e-01    2.340000e+00
  TN2r SX3er  1 3.650000e-01    2.110000e+00
  TN2r SX2er  1 3.650000e-01    1.910000e+00
  TN2r SX1er  1 3.650000e-01    1.910000e+00
  TN1r SC6vr  1 3.650000e-01    2.340000e+00
  TN1r SC5vr  1 3.650000e-01    2.110000e+00
  TN1r SC4vr  1 3.650000e-01    2.110000e+00
  TN1r SC3vr  1 3.650000e-01    1.910000e+00
  TN1r SC2vr  1 3.650000e-01    1.750000e+00
  TN1r SC1vr  1 3.660000e-01    1.600000e+00
  TN1r SX4vr  1 3.650000e-01    2.110000e+00
  TN1r SX3vr  1 3.650000e-01    2.110000e+00
  TN1r SX2vr  1 3.650000e-01    1.910000e+00
  TN1r SX1vr  1 3.650000e-01    1.910000e+00
  TN1r SC6er  1 3.650000e-01    2.340000e+00
  TN1r SC5er  1 3.650000e-01    2.110000e+00
  TN1r SC4er  1 3.650000e-01    2.110000e+00
  TN1r SC3er  1 3.650000e-01    1.910000e+00
  TN1r SC2er  1 3.650000e-01    1.750000e+00
  TN1r SC1er  1 3.660000e-01    1.600000e+00
  TN1r SX4er  1 3.650000e-01    2.110000e+00
  TN1r SX3er  1 3.650000e-01    2.110000e+00
  TN1r SX2er  1 3.650000e-01    1.910000e+00
  TN1r SX1er  1 3.650000e-01    1.910000e+00
  TP6h SP6dh  1 3.650000e-01    4.220000e+00
  TP6h SP5dh  1 3.650000e-01    3.930000e+00
  TP6h SP4dh  1 3.650000e-01    3.640000e+00
  TP6h SP3dh  1 3.650000e-01    3.370000e+00
  TP6h SP2dh  1 3.650000e-01    3.370000e+00
  TP6h SP1dh  1 3.650000e-01    3.100000e+00
  TP6h SN6dh  1 3.650000e-01    2.830000e+00
  TP6h SN5dh  1 3.650000e-01    2.340000e+00
  TP6h SN4dh  1 3.650000e-01    2.110000e+00
  TP6h SN3dh  1 3.650000e-01    1.910000e+00
  TP6h SN2dh  1 3.650000e-01    1.750000e+00
  TP6h SN1dh  1 3.660000e-01    1.600000e+00
  TP6h SP6ah  1 3.650000e-01    4.220000e+00
  TP6h SP5ah  1 3.650000e-01    3.930000e+00
  TP6h SP4ah  1 3.650000e-01    3.640000e+00
  TP6h SP3ah  1 3.650000e-01    3.370000e+00
  TP6h SP2ah  1 3.650000e-01    3.370000e+00
  TP6h SP1ah  1 3.650000e-01    3.100000e+00
  TP6h SN6ah  1 3.650000e-01    2.830000e+00
  TP6h SN5ah  1 3.650000e-01    2.340000e+00
  TP6h SN4ah  1 3.650000e-01    2.110000e+00
  TP6h SN3ah  1 3.650000e-01    1.910000e+00
  TP6h SN2ah  1 3.650000e-01    1.750000e+00
  TP6h SN1ah  1 3.660000e-01    1.600000e+00
  TP5h SP5dh  1 3.650000e-01    3.640000e+00
  TP5h SP4dh  1 3.650000e-01    3.370000e+00
  TP5h SP3dh  1 3.650000e-01    3.100000e+00
  TP5h SP2dh  1 3.650000e-01    3.100000e+00
  TP5h SP1dh  1 3.650000e-01    2.830000e+00
  TP5h SN6dh  1 3.650000e-01    2.570000e+00
  TP5h SN5dh  1 3.650000e-01    2.340000e+00
  TP5h SN4dh  1 3.650000e-01    2.340000e+00
  TP5h SN3dh  1 3.650000e-01    1.910000e+00
  TP5h SN2dh  1 3.650000e-01    1.750000e+00
  TP5h SN1dh  1 3.660000e-01    1.600000e+00
  TP5h SP5ah  1 3.650000e-01    3.640000e+00
  TP5h SP4ah  1 3.650000e-01    3.370000e+00
  TP5h SP3ah  1 3.650000e-01    3.100000e+00
  TP5h SP2ah  1 3.650000e-01    3.100000e+00
  TP5h SP1ah  1 3.650000e-01    2.830000e+00
  TP5h SN6ah  1 3.650000e-01    2.570000e+00
  TP5h SN5ah  1 3.650000e-01    2.340000e+00
  TP5h SN4ah  1 3.650000e-01    2.340000e+00
  TP5h SN3ah  1 3.650000e-01    1.910000e+00
  TP5h SN2ah  1 3.650000e-01    1.750000e+00
  TP5h SN1ah  1 3.660000e-01    1.600000e+00
  TP4h SP4dh  1 3.650000e-01    3.370000e+00
  TP4h SP3dh  1 3.650000e-01    3.100000e+00
  TP4h SP2dh  1 3.650000e-01    3.100000e+00
  TP4h SP1dh  1 3.650000e-01    2.830000e+00
  TP4h SN6dh  1 3.650000e-01    2.570000e+00
  TP4h SN5dh  1 3.650000e-01    2.340000e+00
  TP4h SN4dh  1 3.650000e-01    2.340000e+00
  TP4h SN3dh  1 3.650000e-01    2.110000e+00
  TP4h SN2dh  1 3.650000e-01    1.910000e+00
  TP4h SN1dh  1 3.650000e-01    1.750000e+00
  TP4h SP4ah  1 3.650000e-01    3.370000e+00
  TP4h SP3ah  1 3.650000e-01    3.100000e+00
  TP4h SP2ah  1 3.650000e-01    3.100000e+00
  TP4h SP1ah  1 3.650000e-01    2.830000e+00
  TP4h SN6ah  1 3.650000e-01    2.570000e+00
  TP4h SN5ah  1 3.650000e-01    2.340000e+00
  TP4h SN4ah  1 3.650000e-01    2.340000e+00
  TP4h SN3ah  1 3.650000e-01    2.110000e+00
  TP4h SN2ah  1 3.650000e-01    1.910000e+00
  TP4h SN1ah  1 3.650000e-01    1.750000e+00
  TP3h SP3dh  1 3.650000e-01    3.100000e+00
  TP3h SP2dh  1 3.650000e-01    3.100000e+00
  TP3h SP1dh  1 3.650000e-01    2.830000e+00
  TP3h SN6dh  1 3.650000e-01    2.570000e+00
  TP3h SN5dh  1 3.650000e-01    2.340000e+00
  TP3h SN4dh  1 3.650000e-01    2.340000e+00
  TP3h SN3dh  1 3.650000e-01    2.110000e+00
  TP3h SN2dh  1 3.650000e-01    2.110000e+00
  TP3h SN1dh  1 3.650000e-01    1.910000e+00
  TP3h SP3ah  1 3.650000e-01    3.100000e+00
  TP3h SP2ah  1 3.650000e-01    3.100000e+00
  TP3h SP1ah  1 3.650000e-01    2.830000e+00
  TP3h SN6ah  1 3.650000e-01    2.570000e+00
  TP3h SN5ah  1 3.650000e-01    2.340000e+00
  TP3h SN4ah  1 3.650000e-01    2.340000e+00
  TP3h SN3ah  1 3.650000e-01    2.110000e+00
  TP3h SN2ah  1 3.650000e-01    2.110000e+00
  TP3h SN1ah  1 3.650000e-01    1.910000e+00
  TP2h SP2dh  1 3.650000e-01    3.100000e+00
  TP2h SP1dh  1 3.650000e-01    2.830000e+00
  TP2h SN6dh  1 3.650000e-01    2.830000e+00
  TP2h SN5dh  1 3.650000e-01    2.570000e+00
  TP2h SN4dh  1 3.650000e-01    2.340000e+00
  TP2h SN3dh  1 3.650000e-01    2.110000e+00
  TP2h SN2dh  1 3.650000e-01    2.110000e+00
  TP2h SN1dh  1 3.650000e-01    2.110000e+00
  TP2h SP2ah  1 3.650000e-01    3.100000e+00
  TP2h SP1ah  1 3.650000e-01    2.830000e+00
  TP2h SN6ah  1 3.650000e-01    2.830000e+00
  TP2h SN5ah  1 3.650000e-01    2.570000e+00
  TP2h SN4ah  1 3.650000e-01    2.340000e+00
  TP2h SN3ah  1 3.650000e-01    2.110000e+00
  TP2h SN2ah  1 3.650000e-01    2.110000e+00
  TP2h SN1ah  1 3.650000e-01    2.110000e+00
  TP1h SP1dh  1 3.650000e-01    2.830000e+00
  TP1h SN6dh  1 3.650000e-01    2.830000e+00
  TP1h SN5dh  1 3.650000e-01    2.570000e+00
  TP1h SN4dh  1 3.650000e-01    2.570000e+00
  TP1h SN3dh  1 3.650000e-01    2.110000e+00
  TP1h SN2dh  1 3.650000e-01    2.110000e+00
  TP1h SN1dh  1 3.650000e-01    2.110000e+00
  TP1h SP1ah  1 3.650000e-01    2.830000e+00
  TP1h SN6ah  1 3.650000e-01    2.830000e+00
  TP1h SN5ah  1 3.650000e-01    2.570000e+00
  TP1h SN4ah  1 3.650000e-01    2.570000e+00
  TP1h SN3ah  1 3.650000e-01    2.110000e+00
  TP1h SN2ah  1 3.650000e-01    2.110000e+00
  TP1h SN1ah  1 3.650000e-01    2.110000e+00
  TN6h SN6dh  1 3.650000e-01    2.830000e+00
  TN6h SN5dh  1 3.650000e-01    2.830000e+00
  TN6h SN4dh  1 3.650000e-01    2.830000e+00
  TN6h SN3dh  1 3.650000e-01    2.340000e+00
  TN6h SN2dh  1 3.650000e-01    2.110000e+00
  TN6h SN1dh  1 3.650000e-01    2.110000e+00
  TN6h SN6ah  1 3.650000e-01    2.830000e+00
  TN6h SN5ah  1 3.650000e-01    2.830000e+00
  TN6h SN4ah  1 3.650000e-01    2.830000e+00
  TN6h SN3ah  1 3.650000e-01    2.340000e+00
  TN6h SN2ah  1 3.650000e-01    2.110000e+00
  TN6h SN1ah  1 3.650000e-01    2.110000e+00
  TN5h SN5dh  1 3.650000e-01    2.570000e+00
  TN5h SN4dh  1 3.650000e-01    2.570000e+00
  TN5h SN3dh  1 3.650000e-01    2.340000e+00
  TN5h SN2dh  1 3.650000e-01    2.340000e+00
  TN5h SN1dh  1 3.650000e-01    2.110000e+00
  TN5h SN5ah  1 3.650000e-01    2.570000e+00
  TN5h SN4ah  1 3.650000e-01    2.570000e+00
  TN5h SN3ah  1 3.650000e-01    2.340000e+00
  TN5h SN2ah  1 3.650000e-01    2.340000e+00
  TN5h SN1ah  1 3.650000e-01    2.110000e+00
  TN4h SN4dh  1 3.650000e-01    2.570000e+00
  TN4h SN3dh  1 3.650000e-01    2.340000e+00
  TN4h SN2dh  1 3.650000e-01    2.340000e+00
  TN4h SN1dh  1 3.650000e-01    2.110000e+00
  TN4h SN4ah  1 3.650000e-01    2.570000e+00
  TN4h SN3ah  1 3.650000e-01    2.340000e+00
  TN4h SN2ah  1 3.650000e-01    2.340000e+00
  TN4h SN1ah  1 3.650000e-01    2.110000e+00
  TN3h SN3dh  1 3.650000e-01    2.340000e+00
  TN3h SN2dh  1 3.650000e-01    2.340000e+00
  TN3h SN1dh  1 3.650000e-01    2.110000e+00
  TN3h SN3ah  1 3.650000e-01    2.340000e+00
  TN3h SN2ah  1 3.650000e-01    2.340000e+00
  TN3h SN1ah  1 3.650000e-01    2.110000e+00
  TN2h SN2dh  1 3.650000e-01    2.340000e+00
  TN2h SN1dh  1 3.650000e-01    2.110000e+00
  TN2h SN2ah  1 3.650000e-01    2.340000e+00
  TN2h SN1ah  1 3.650000e-01    2.110000e+00
  TN1h SN1dh  1 3.650000e-01    2.340000e+00
  TN1h SN1ah  1 3.650000e-01    2.340000e+00
  TC6h SC6vh  1 3.650000e-01    2.570000e+00
  TC6h SC5vh  1 3.650000e-01    2.340000e+00
  TC6h SC4vh  1 3.650000e-01    2.340000e+00
  TC6h SC3vh  1 3.650000e-01    2.110000e+00
  TC6h SC2vh  1 3.650000e-01    1.910000e+00
  TC6h SC1vh  1 3.650000e-01    1.750000e+00
  TC6h SX4vh  1 3.650000e-01    2.340000e+00
  TC6h SX3vh  1 3.650000e-01    2.340000e+00
  TC6h SX2vh  1 3.650000e-01    2.340000e+00
  TC6h SX1vh  1 3.650000e-01    2.340000e+00
  TC6h SC6eh  1 3.650000e-01    2.570000e+00
  TC6h SC5eh  1 3.650000e-01    2.340000e+00
  TC6h SC4eh  1 3.650000e-01    2.340000e+00
  TC6h SC3eh  1 3.650000e-01    2.110000e+00
  TC6h SC2eh  1 3.650000e-01    1.910000e+00
  TC6h SC1eh  1 3.650000e-01    1.750000e+00
  TC6h SX4eh  1 3.650000e-01    2.340000e+00
  TC6h SX3eh  1 3.650000e-01    2.340000e+00
  TC6h SX2eh  1 3.650000e-01    2.340000e+00
  TC6h SX1eh  1 3.650000e-01    2.340000e+00
  TC5h SC5vh  1 3.650000e-01    2.340000e+00
  TC5h SC4vh  1 3.650000e-01    2.340000e+00
  TC5h SC3vh  1 3.650000e-01    2.110000e+00
  TC5h SC2vh  1 3.650000e-01    1.910000e+00
  TC5h SC1vh  1 3.650000e-01    1.910000e+00
  TC5h SX4vh  1 3.650000e-01    2.110000e+00
  TC5h SX3vh  1 3.650000e-01    2.110000e+00
  TC5h SX2vh  1 3.650000e-01    2.110000e+00
  TC5h SX1vh  1 3.650000e-01    2.340000e+00
  TC5h SC5eh  1 3.650000e-01    2.340000e+00
  TC5h SC4eh  1 3.650000e-01    2.340000e+00
  TC5h SC3eh  1 3.650000e-01    2.110000e+00
  TC5h SC2eh  1 3.650000e-01    1.910000e+00
  TC5h SC1eh  1 3.650000e-01    1.910000e+00
  TC5h SX4eh  1 3.650000e-01    2.110000e+00
  TC5h SX3eh  1 3.650000e-01    2.110000e+00
  TC5h SX2eh  1 3.650000e-01    2.110000e+00
  TC5h SX1eh  1 3.650000e-01    2.340000e+00
  TC4h SC4vh  1 3.650000e-01    2.340000e+00
  TC4h SC3vh  1 3.650000e-01    2.340000e+00
  TC4h SC2vh  1 3.650000e-01    2.110000e+00
  TC4h SC1vh  1 3.650000e-01    1.910000e+00
  TC4h SX4vh  1 3.650000e-01    2.110000e+00
  TC4h SX3vh  1 3.650000e-01    2.110000e+00
  TC4h SX2vh  1 3.650000e-01    2.110000e+00
  TC4h SX1vh  1 3.650000e-01    2.340000e+00
  TC4h SC4eh  1 3.650000e-01    2.340000e+00
  TC4h SC3eh  1 3.650000e-01    2.340000e+00
  TC4h SC2eh  1 3.650000e-01    2.110000e+00
  TC4h SC1eh  1 3.650000e-01    1.910000e+00
  TC4h SX4eh  1 3.650000e-01    2.110000e+00
  TC4h SX3eh  1 3.650000e-01    2.110000e+00
  TC4h SX2eh  1 3.650000e-01    2.110000e+00
  TC4h SX1eh  1 3.650000e-01    2.340000e+00
  TC3h SC3vh  1 3.650000e-01    2.340000e+00
  TC3h SC2vh  1 3.650000e-01    2.340000e+00
  TC3h SC1vh  1 3.650000e-01    2.340000e+00
  TC3h SX4vh  1 3.650000e-01    2.110000e+00
  TC3h SX3vh  1 3.650000e-01    2.110000e+00
  TC3h SX2vh  1 3.650000e-01    2.110000e+00
  TC3h SX1vh  1 3.650000e-01    2.340000e+00
  TC3h SC3eh  1 3.650000e-01    2.340000e+00
  TC3h SC2eh  1 3.650000e-01    2.340000e+00
  TC3h SC1eh  1 3.650000e-01    2.340000e+00
  TC3h SX4eh  1 3.650000e-01    2.110000e+00
  TC3h SX3eh  1 3.650000e-01    2.110000e+00
  TC3h SX2eh  1 3.650000e-01    2.110000e+00
  TC3h SX1eh  1 3.650000e-01    2.340000e+00
  TC2h SC2vh  1 3.650000e-01    2.340000e+00
  TC2h SC1vh  1 3.650000e-01    2.570000e+00
  TC2h SX4vh  1 3.650000e-01    1.750000e+00
  TC2h SX3vh  1 3.650000e-01    2.110000e+00
  TC2h SX2vh  1 3.650000e-01    2.110000e+00
  TC2h SX1vh  1 3.650000e-01    2.110000e+00
  TC2h SC2eh  1 3.650000e-01    2.340000e+00
  TC2h SC1eh  1 3.650000e-01    2.570000e+00
  TC2h SX4eh  1 3.650000e-01    1.750000e+00
  TC2h SX3eh  1 3.650000e-01    2.110000e+00
  TC2h SX2eh  1 3.650000e-01    2.110000e+00
  TC2h SX1eh  1 3.650000e-01    2.110000e+00
  TC1h SC1vh  1 3.650000e-01    2.340000e+00
  TC1h SX4vh  1 3.650000e-01    1.750000e+00
  TC1h SX3vh  1 3.650000e-01    2.110000e+00
  TC1h SX2vh  1 3.650000e-01    2.110000e+00
  TC1h SX1vh  1 3.650000e-01    2.110000e+00
  TC1h SC1eh  1 3.650000e-01    2.340000e+00
  TC1h SX4eh  1 3.650000e-01    1.750000e+00
  TC1h SX3eh  1 3.650000e-01    2.110000e+00
  TC1h SX2eh  1 3.650000e-01    2.110000e+00
  TC1h SX1eh  1 3.650000e-01    2.110000e+00
  TX4h SX4vh  1 3.650000e-01    2.340000e+00
  TX4h SX3vh  1 3.650000e-01    2.340000e+00
  TX4h SX2vh  1 3.650000e-01    2.340000e+00
  TX4h SX1vh  1 3.650000e-01    2.340000e+00
  TX4h SX4eh  1 3.650000e-01    2.340000e+00
  TX4h SX3eh  1 3.650000e-01    2.340000e+00
  TX4h SX2eh  1 3.650000e-01    2.340000e+00
  TX4h SX1eh  1 3.650000e-01    2.340000e+00
  TX3h SX3vh  1 3.650000e-01    2.340000e+00
  TX3h SX2vh  1 3.650000e-01    2.570000e+00
  TX3h SX1vh  1 3.650000e-01    2.570000e+00
  TX3h SX3eh  1 3.650000e-01    2.340000e+00
  TX3h SX2eh  1 3.650000e-01    2.570000e+00
  TX3h SX1eh  1 3.650000e-01    2.570000e+00
  TX2h SX2vh  1 3.650000e-01    2.570000e+00
  TX2h SX1vh  1 3.650000e-01    2.570000e+00
  TX2h SX2eh  1 3.650000e-01    2.570000e+00
  TX2h SX1eh  1 3.650000e-01    2.570000e+00
  TX1h SX1vh  1 3.650000e-01    2.830000e+00
  TX1h SX1eh  1 3.650000e-01    2.830000e+00
  TP6h SC6vh  1 3.660000e-01    1.600000e+00
  TP6h SC5vh  1 3.780000e-01    1.450000e+00
  TP6h SC4vh  1 3.940000e-01    1.290000e+00
  TP6h SC3vh  1 4.040000e-01    1.130000e+00
  TP6h SC2vh  1 4.040000e-01    1.130000e+00
  TP6h SC1vh  1 4.230000e-01    9.810000e-01
  TP6h SX4vh  1 3.650000e-01    1.750000e+00
  TP6h SX3vh  1 3.650000e-01    1.750000e+00
  TP6h SX2vh  1 3.660000e-01    1.600000e+00
  TP6h SX1vh  1 3.780000e-01    1.450000e+00
  TP6h SC6eh  1 3.660000e-01    1.600000e+00
  TP6h SC5eh  1 3.780000e-01    1.450000e+00
  TP6h SC4eh  1 3.940000e-01    1.290000e+00
  TP6h SC3eh  1 4.040000e-01    1.130000e+00
  TP6h SC2eh  1 4.040000e-01    1.130000e+00
  TP6h SC1eh  1 4.230000e-01    9.810000e-01
  TP6h SX4eh  1 3.650000e-01    1.750000e+00
  TP6h SX3eh  1 3.650000e-01    1.750000e+00
  TP6h SX2eh  1 3.660000e-01    1.600000e+00
  TP6h SX1eh  1 3.780000e-01    1.450000e+00
  TP5h SC6vh  1 3.660000e-01    1.600000e+00
  TP5h SC5vh  1 3.660000e-01    1.600000e+00
  TP5h SC4vh  1 3.780000e-01    1.450000e+00
  TP5h SC3vh  1 3.940000e-01    1.290000e+00
  TP5h SC2vh  1 3.940000e-01    1.290000e+00
  TP5h SC1vh  1 4.040000e-01    1.130000e+00
  TP5h SX4vh  1 3.650000e-01    1.910000e+00
  TP5h SX3vh  1 3.650000e-01    1.750000e+00
  TP5h SX2vh  1 3.650000e-01    1.750000e+00
  TP5h SX1vh  1 3.780000e-01    1.450000e+00
  TP5h SC6eh  1 3.660000e-01    1.600000e+00
  TP5h SC5eh  1 3.660000e-01    1.600000e+00
  TP5h SC4eh  1 3.780000e-01    1.450000e+00
  TP5h SC3eh  1 3.940000e-01    1.290000e+00
  TP5h SC2eh  1 3.940000e-01    1.290000e+00
  TP5h SC1eh  1 4.040000e-01    1.130000e+00
  TP5h SX4eh  1 3.650000e-01    1.910000e+00
  TP5h SX3eh  1 3.650000e-01    1.750000e+00
  TP5h SX2eh  1 3.650000e-01    1.750000e+00
  TP5h SX1eh  1 3.780000e-01    1.450000e+00
  TP4h SC6vh  1 3.650000e-01    1.750000e+00
  TP4h SC5vh  1 3.660000e-01    1.600000e+00
  TP4h SC4vh  1 3.780000e-01    1.450000e+00
  TP4h SC3vh  1 3.940000e-01    1.290000e+00
  TP4h SC2vh  1 3.940000e-01    1.290000e+00
  TP4h SC1vh  1 4.040000e-01    1.130000e+00
  TP4h SX4vh  1 3.650000e-01    1.910000e+00
  TP4h SX3vh  1 3.650000e-01    1.750000e+00
  TP4h SX2vh  1 3.650000e-01    1.750000e+00
  TP4h SX1vh  1 3.660000e-01    1.600000e+00
  TP4h SC6eh  1 3.650000e-01    1.750000e+00
  TP4h SC5eh  1 3.660000e-01    1.600000e+00
  TP4h SC4eh  1 3.780000e-01    1.450000e+00
  TP4h SC3eh  1 3.940000e-01    1.290000e+00
  TP4h SC2eh  1 3.940000e-01    1.290000e+00
  TP4h SC1eh  1 4.040000e-01    1.130000e+00
  TP4h SX4eh  1 3.650000e-01    1.910000e+00
  TP4h SX3eh  1 3.650000e-01    1.750000e+00
  TP4h SX2eh  1 3.650000e-01    1.750000e+00
  TP4h SX1eh  1 3.660000e-01    1.600000e+00
  TP3h SC6vh  1 3.650000e-01    1.910000e+00
  TP3h SC5vh  1 3.650000e-01    1.750000e+00
  TP3h SC4vh  1 3.660000e-01    1.600000e+00
  TP3h SC3vh  1 3.940000e-01    1.290000e+00
  TP3h SC2vh  1 3.940000e-01    1.290000e+00
  TP3h SC1vh  1 4.040000e-01    1.130000e+00
  TP3h SX4vh  1 3.650000e-01    1.910000e+00
  TP3h SX3vh  1 3.650000e-01    1.910000e+00
  TP3h SX2vh  1 3.650000e-01    1.750000e+00
  TP3h SX1vh  1 3.660000e-01    1.600000e+00
  TP3h SC6eh  1 3.650000e-01    1.910000e+00
  TP3h SC5eh  1 3.650000e-01    1.750000e+00
  TP3h SC4eh  1 3.660000e-01    1.600000e+00
  TP3h SC3eh  1 3.940000e-01    1.290000e+00
  TP3h SC2eh  1 3.940000e-01    1.290000e+00
  TP3h SC1eh  1 4.040000e-01    1.130000e+00
  TP3h SX4eh  1 3.650000e-01    1.910000e+00
  TP3h SX3eh  1 3.650000e-01    1.910000e+00
  TP3h SX2eh  1 3.650000e-01    1.750000e+00
  TP3h SX1eh  1 3.660000e-01    1.600000e+00
  TP2h SC6vh  1 3.650000e-01    1.910000e+00
  TP2h SC5vh  1 3.650000e-01    1.750000e+00
  TP2h SC4vh  1 3.660000e-01    1.600000e+00
  TP2h SC3vh  1 3.780000e-01    1.450000e+00
  TP2h SC2vh  1 3.780000e-01    1.450000e+00
  TP2h SC1vh  1 3.940000e-01    1.290000e+00
  TP2h SX4vh  1 3.650000e-01    1.910000e+00
  TP2h SX3vh  1 3.650000e-01    1.910000e+00
  TP2h SX2vh  1 3.650000e-01    1.750000e+00
  TP2h SX1vh  1 3.660000e-01    1.600000e+00
  TP2h SC6eh  1 3.650000e-01    1.910000e+00
  TP2h SC5eh  1 3.650000e-01    1.750000e+00
  TP2h SC4eh  1 3.660000e-01    1.600000e+00
  TP2h SC3eh  1 3.780000e-01    1.450000e+00
  TP2h SC2eh  1 3.780000e-01    1.450000e+00
  TP2h SC1eh  1 3.940000e-01    1.290000e+00
  TP2h SX4eh  1 3.650000e-01    1.910000e+00
  TP2h SX3eh  1 3.650000e-01    1.910000e+00
  TP2h SX2eh  1 3.650000e-01    1.750000e+00
  TP2h SX1eh  1 3.660000e-01    1.600000e+00
  TP1h SC6vh  1 3.650000e-01    1.910000e+00
  TP1h SC5vh  1 3.650000e-01    1.750000e+00
  TP1h SC4vh  1 3.660000e-01    1.600000e+00
  TP1h SC3vh  1 3.780000e-01    1.450000e+00
  TP1h SC2vh  1 3.780000e-01    1.450000e+00
  TP1h SC1vh  1 3.940000e-01    1.290000e+00
  TP1h SX4vh  1 3.650000e-01    1.910000e+00
  TP1h SX3vh  1 3.650000e-01    1.910000e+00
  TP1h SX2vh  1 3.650000e-01    1.750000e+00
  TP1h SX1vh  1 3.660000e-01    1.600000e+00
  TP1h SC6eh  1 3.650000e-01    1.910000e+00
  TP1h SC5eh  1 3.650000e-01    1.750000e+00
  TP1h SC4eh  1 3.660000e-01    1.600000e+00
  TP1h SC3eh  1 3.780000e-01    1.450000e+00
  TP1h SC2eh  1 3.780000e-01    1.450000e+00
  TP1h SC1eh  1 3.940000e-01    1.290000e+00
  TP1h SX4eh  1 3.650000e-01    1.910000e+00
  TP1h SX3eh  1 3.650000e-01    1.910000e+00
  TP1h SX2eh  1 3.650000e-01    1.750000e+00
  TP1h SX1eh  1 3.660000e-01    1.600000e+00
  TN6h SC6vh  1 3.650000e-01    2.110000e+00
  TN6h SC5vh  1 3.650000e-01    1.910000e+00
  TN6h SC4vh  1 3.650000e-01    1.750000e+00
  TN6h SC3vh  1 3.660000e-01    1.600000e+00
  TN6h SC2vh  1 3.660000e-01    1.600000e+00
  TN6h SC1vh  1 3.780000e-01    1.450000e+00
  TN6h SX4vh  1 3.650000e-01    2.110000e+00
  TN6h SX3vh  1 3.650000e-01    1.910000e+00
  TN6h SX2vh  1 3.650000e-01    1.750000e+00
  TN6h SX1vh  1 3.660000e-01    1.600000e+00
  TN6h SC6eh  1 3.650000e-01    2.110000e+00
  TN6h SC5eh  1 3.650000e-01    1.910000e+00
  TN6h SC4eh  1 3.650000e-01    1.750000e+00
  TN6h SC3eh  1 3.660000e-01    1.600000e+00
  TN6h SC2eh  1 3.660000e-01    1.600000e+00
  TN6h SC1eh  1 3.780000e-01    1.450000e+00
  TN6h SX4eh  1 3.650000e-01    2.110000e+00
  TN6h SX3eh  1 3.650000e-01    1.910000e+00
  TN6h SX2eh  1 3.650000e-01    1.750000e+00
  TN6h SX1eh  1 3.660000e-01    1.600000e+00
  TN5h SC6vh  1 3.650000e-01    2.110000e+00
  TN5h SC5vh  1 3.650000e-01    1.910000e+00
  TN5h SC4vh  1 3.650000e-01    1.750000e+00
  TN5h SC3vh  1 3.650000e-01    1.750000e+00
  TN5h SC2vh  1 3.660000e-01    1.600000e+00
  TN5h SC1vh  1 3.780000e-01    1.450000e+00
  TN5h SX4vh  1 3.650000e-01    2.340000e+00
  TN5h SX3vh  1 3.650000e-01    2.110000e+00
  TN5h SX2vh  1 3.650000e-01    1.910000e+00
  TN5h SX1vh  1 3.650000e-01    1.750000e+00
  TN5h SC6eh  1 3.650000e-01    2.110000e+00
  TN5h SC5eh  1 3.650000e-01    1.910000e+00
  TN5h SC4eh  1 3.650000e-01    1.750000e+00
  TN5h SC3eh  1 3.650000e-01    1.750000e+00
  TN5h SC2eh  1 3.660000e-01    1.600000e+00
  TN5h SC1eh  1 3.780000e-01    1.450000e+00
  TN5h SX4eh  1 3.650000e-01    2.340000e+00
  TN5h SX3eh  1 3.650000e-01    2.110000e+00
  TN5h SX2eh  1 3.650000e-01    1.910000e+00
  TN5h SX1eh  1 3.650000e-01    1.750000e+00
  TN4h SC6vh  1 3.650000e-01    2.110000e+00
  TN4h SC5vh  1 3.650000e-01    1.910000e+00
  TN4h SC4vh  1 3.650000e-01    1.910000e+00
  TN4h SC3vh  1 3.650000e-01    1.750000e+00
  TN4h SC2vh  1 3.660000e-01    1.600000e+00
  TN4h SC1vh  1 3.780000e-01    1.450000e+00
  TN4h SX4vh  1 3.650000e-01    2.570000e+00
  TN4h SX3vh  1 3.650000e-01    2.340000e+00
  TN4h SX2vh  1 3.650000e-01    1.910000e+00
  TN4h SX1vh  1 3.650000e-01    1.750000e+00
  TN4h SC6eh  1 3.650000e-01    2.110000e+00
  TN4h SC5eh  1 3.650000e-01    1.910000e+00
  TN4h SC4eh  1 3.650000e-01    1.910000e+00
  TN4h SC3eh  1 3.650000e-01    1.750000e+00
  TN4h SC2eh  1 3.660000e-01    1.600000e+00
  TN4h SC1eh  1 3.780000e-01    1.450000e+00
  TN4h SX4eh  1 3.650000e-01    2.570000e+00
  TN4h SX3eh  1 3.650000e-01    2.340000e+00
  TN4h SX2eh  1 3.650000e-01    1.910000e+00
  TN4h SX1eh  1 3.650000e-01    1.750000e+00
  TN3h SC6vh  1 3.650000e-01    2.110000e+00
  TN3h SC5vh  1 3.650000e-01    1.910000e+00
  TN3h SC4vh  1 3.650000e-01    1.910000e+00
  TN3h SC3vh  1 3.650000e-01    1.750000e+00
  TN3h SC2vh  1 3.650000e-01    1.750000e+00
  TN3h SC1vh  1 3.660000e-01    1.600000e+00
  TN3h SX4vh  1 3.650000e-01    2.340000e+00
  TN3h SX3vh  1 3.650000e-01    2.110000e+00
  TN3h SX2vh  1 3.650000e-01    1.910000e+00
  TN3h SX1vh  1 3.650000e-01    1.910000e+00
  TN3h SC6eh  1 3.650000e-01    2.110000e+00
  TN3h SC5eh  1 3.650000e-01    1.910000e+00
  TN3h SC4eh  1 3.650000e-01    1.910000e+00
  TN3h SC3eh  1 3.650000e-01    1.750000e+00
  TN3h SC2eh  1 3.650000e-01    1.750000e+00
  TN3h SC1eh  1 3.660000e-01    1.600000e+00
  TN3h SX4eh  1 3.650000e-01    2.340000e+00
  TN3h SX3eh  1 3.650000e-01    2.110000e+00
  TN3h SX2eh  1 3.650000e-01    1.910000e+00
  TN3h SX1eh  1 3.650000e-01    1.910000e+00
  TN2h SC6vh  1 3.650000e-01    2.110000e+00
  TN2h SC5vh  1 3.650000e-01    1.910000e+00
  TN2h SC4vh  1 3.650000e-01    1.910000e+00
  TN2h SC3vh  1 3.650000e-01    1.910000e+00
  TN2h SC2vh  1 3.650000e-01    1.750000e+00
  TN2h SC1vh  1 3.660000e-01    1.600000e+00
  TN2h SX4vh  1 3.650000e-01    2.340000e+00
  TN2h SX3vh  1 3.650000e-01    2.110000e+00
  TN2h SX2vh  1 3.650000e-01    1.910000e+00
  TN2h SX1vh  1 3.650000e-01    1.910000e+00
  TN2h SC6eh  1 3.650000e-01    2.110000e+00
  TN2h SC5eh  1 3.650000e-01    1.910000e+00
  TN2h SC4eh  1 3.650000e-01    1.910000e+00
  TN2h SC3eh  1 3.650000e-01    1.910000e+00
  TN2h SC2eh  1 3.650000e-01    1.750000e+00
  TN2h SC1eh  1 3.660000e-01    1.600000e+00
  TN2h SX4eh  1 3.650000e-01    2.340000e+00
  TN2h SX3eh  1 3.650000e-01    2.110000e+00
  TN2h SX2eh  1 3.650000e-01    1.910000e+00
  TN2h SX1eh  1 3.650000e-01    1.910000e+00
  TN1h SC6vh  1 3.650000e-01    2.340000e+00
  TN1h SC5vh  1 3.650000e-01    2.110000e+00
  TN1h SC4vh  1 3.650000e-01    2.110000e+00
  TN1h SC3vh  1 3.650000e-01    1.910000e+00
  TN1h SC2vh  1 3.650000e-01    1.750000e+00
  TN1h SC1vh  1 3.660000e-01    1.600000e+00
  TN1h SX4vh  1 3.650000e-01    2.110000e+00
  TN1h SX3vh  1 3.650000e-01    2.110000e+00
  TN1h SX2vh  1 3.650000e-01    1.910000e+00
  TN1h SX1vh  1 3.650000e-01    1.910000e+00
  TN1h SC6eh  1 3.650000e-01    2.340000e+00
  TN1h SC5eh  1 3.650000e-01    2.110000e+00
  TN1h SC4eh  1 3.650000e-01    2.110000e+00
  TN1h SC3eh  1 3.650000e-01    1.910000e+00
  TN1h SC2eh  1 3.650000e-01    1.750000e+00
  TN1h SC1eh  1 3.660000e-01    1.600000e+00
  TN1h SX4eh  1 3.650000e-01    2.110000e+00
  TN1h SX3eh  1 3.650000e-01    2.110000e+00
  TN1h SX2eh  1 3.650000e-01    1.910000e+00
  TN1h SX1eh  1 3.650000e-01    1.910000e+00
  TP6h SP6dr  1 3.650000e-01    3.930000e+00
  TP6r SP6dh  1 3.650000e-01    3.930000e+00
  TP6h SP5dr  1 3.650000e-01    3.640000e+00
  TP6r SP5dh  1 3.650000e-01    3.640000e+00
  TP6h SP4dr  1 3.650000e-01    3.370000e+00
  TP6r SP4dh  1 3.650000e-01    3.370000e+00
  TP6h SP3dr  1 3.650000e-01    3.100000e+00
  TP6r SP3dh  1 3.650000e-01    3.100000e+00
  TP6h SP2dr  1 3.650000e-01    3.100000e+00
  TP6r SP2dh  1 3.650000e-01    3.100000e+00
  TP6h SP1dr  1 3.650000e-01    2.830000e+00
  TP6r SP1dh  1 3.650000e-01    2.830000e+00
  TP6h SN6dr  1 3.650000e-01    2.570000e+00
  TP6r SN6dh  1 3.650000e-01    2.570000e+00
  TP6h SN5dr  1 3.650000e-01    2.110000e+00
  TP6r SN5dh  1 3.650000e-01    2.110000e+00
  TP6h SN4dr  1 3.650000e-01    1.910000e+00
  TP6r SN4dh  1 3.650000e-01    1.910000e+00
  TP6h SN3dr  1 3.650000e-01    1.750000e+00
  TP6r SN3dh  1 3.650000e-01    1.750000e+00
  TP6h SN2dr  1 3.660000e-01    1.600000e+00
  TP6r SN2dh  1 3.660000e-01    1.600000e+00
  TP6h SN1dr  1 3.780000e-01    1.450000e+00
  TP6r SN1dh  1 3.780000e-01    1.450000e+00
  TP6h SP6ar  1 3.650000e-01    3.930000e+00
  TP6r SP6ah  1 3.650000e-01    3.930000e+00
  TP6h SP5ar  1 3.650000e-01    3.640000e+00
  TP6r SP5ah  1 3.650000e-01    3.640000e+00
  TP6h SP4ar  1 3.650000e-01    3.370000e+00
  TP6r SP4ah  1 3.650000e-01    3.370000e+00
  TP6h SP3ar  1 3.650000e-01    3.100000e+00
  TP6r SP3ah  1 3.650000e-01    3.100000e+00
  TP6h SP2ar  1 3.650000e-01    3.100000e+00
  TP6r SP2ah  1 3.650000e-01    3.100000e+00
  TP6h SP1ar  1 3.650000e-01    2.830000e+00
  TP6r SP1ah  1 3.650000e-01    2.830000e+00
  TP6h SN6ar  1 3.650000e-01    2.570000e+00
  TP6r SN6ah  1 3.650000e-01    2.570000e+00
  TP6h SN5ar  1 3.650000e-01    2.110000e+00
  TP6r SN5ah  1 3.650000e-01    2.110000e+00
  TP6h SN4ar  1 3.650000e-01    1.910000e+00
  TP6r SN4ah  1 3.650000e-01    1.910000e+00
  TP6h SN3ar  1 3.650000e-01    1.750000e+00
  TP6r SN3ah  1 3.650000e-01    1.750000e+00
  TP6h SN2ar  1 3.660000e-01    1.600000e+00
  TP6r SN2ah  1 3.660000e-01    1.600000e+00
  TP6h SN1ar  1 3.780000e-01    1.450000e+00
  TP6r SN1ah  1 3.780000e-01    1.450000e+00
  TP5h SP5dr  1 3.650000e-01    3.370000e+00
  TP5r SP5dh  1 3.650000e-01    3.370000e+00
  TP5h SP4dr  1 3.650000e-01    3.100000e+00
  TP5r SP4dh  1 3.650000e-01    3.100000e+00
  TP5h SP3dr  1 3.650000e-01    2.830000e+00
  TP5r SP3dh  1 3.650000e-01    2.830000e+00
  TP5h SP2dr  1 3.650000e-01    2.830000e+00
  TP5r SP2dh  1 3.650000e-01    2.830000e+00
  TP5h SP1dr  1 3.650000e-01    2.570000e+00
  TP5r SP1dh  1 3.650000e-01    2.570000e+00
  TP5h SN6dr  1 3.650000e-01    2.340000e+00
  TP5r SN6dh  1 3.650000e-01    2.340000e+00
  TP5h SN5dr  1 3.650000e-01    2.110000e+00
  TP5r SN5dh  1 3.650000e-01    2.110000e+00
  TP5h SN4dr  1 3.650000e-01    2.110000e+00
  TP5r SN4dh  1 3.650000e-01    2.110000e+00
  TP5h SN3dr  1 3.650000e-01    1.750000e+00
  TP5r SN3dh  1 3.650000e-01    1.750000e+00
  TP5h SN2dr  1 3.660000e-01    1.600000e+00
  TP5r SN2dh  1 3.660000e-01    1.600000e+00
  TP5h SN1dr  1 3.780000e-01    1.450000e+00
  TP5r SN1dh  1 3.780000e-01    1.450000e+00
  TP5h SP5ar  1 3.650000e-01    3.370000e+00
  TP5r SP5ah  1 3.650000e-01    3.370000e+00
  TP5h SP4ar  1 3.650000e-01    3.100000e+00
  TP5r SP4ah  1 3.650000e-01    3.100000e+00
  TP5h SP3ar  1 3.650000e-01    2.830000e+00
  TP5r SP3ah  1 3.650000e-01    2.830000e+00
  TP5h SP2ar  1 3.650000e-01    2.830000e+00
  TP5r SP2ah  1 3.650000e-01    2.830000e+00
  TP5h SP1ar  1 3.650000e-01    2.570000e+00
  TP5r SP1ah  1 3.650000e-01    2.570000e+00
  TP5h SN6ar  1 3.650000e-01    2.340000e+00
  TP5r SN6ah  1 3.650000e-01    2.340000e+00
  TP5h SN5ar  1 3.650000e-01    2.110000e+00
  TP5r SN5ah  1 3.650000e-01    2.110000e+00
  TP5h SN4ar  1 3.650000e-01    2.110000e+00
  TP5r SN4ah  1 3.650000e-01    2.110000e+00
  TP5h SN3ar  1 3.650000e-01    1.750000e+00
  TP5r SN3ah  1 3.650000e-01    1.750000e+00
  TP5h SN2ar  1 3.660000e-01    1.600000e+00
  TP5r SN2ah  1 3.660000e-01    1.600000e+00
  TP5h SN1ar  1 3.780000e-01    1.450000e+00
  TP5r SN1ah  1 3.780000e-01    1.450000e+00
  TP4h SP4dr  1 3.650000e-01    3.100000e+00
  TP4r SP4dh  1 3.650000e-01    3.100000e+00
  TP4h SP3dr  1 3.650000e-01    2.830000e+00
  TP4r SP3dh  1 3.650000e-01    2.830000e+00
  TP4h SP2dr  1 3.650000e-01    2.830000e+00
  TP4r SP2dh  1 3.650000e-01    2.830000e+00
  TP4h SP1dr  1 3.650000e-01    2.570000e+00
  TP4r SP1dh  1 3.650000e-01    2.570000e+00
  TP4h SN6dr  1 3.650000e-01    2.340000e+00
  TP4r SN6dh  1 3.650000e-01    2.340000e+00
  TP4h SN5dr  1 3.650000e-01    2.110000e+00
  TP4r SN5dh  1 3.650000e-01    2.110000e+00
  TP4h SN4dr  1 3.650000e-01    2.110000e+00
  TP4r SN4dh  1 3.650000e-01    2.110000e+00
  TP4h SN3dr  1 3.650000e-01    1.910000e+00
  TP4r SN3dh  1 3.650000e-01    1.910000e+00
  TP4h SN2dr  1 3.650000e-01    1.750000e+00
  TP4r SN2dh  1 3.650000e-01    1.750000e+00
  TP4h SN1dr  1 3.660000e-01    1.600000e+00
  TP4r SN1dh  1 3.660000e-01    1.600000e+00
  TP4h SP4ar  1 3.650000e-01    3.100000e+00
  TP4r SP4ah  1 3.650000e-01    3.100000e+00
  TP4h SP3ar  1 3.650000e-01    2.830000e+00
  TP4r SP3ah  1 3.650000e-01    2.830000e+00
  TP4h SP2ar  1 3.650000e-01    2.830000e+00
  TP4r SP2ah  1 3.650000e-01    2.830000e+00
  TP4h SP1ar  1 3.650000e-01    2.570000e+00
  TP4r SP1ah  1 3.650000e-01    2.570000e+00
  TP4h SN6ar  1 3.650000e-01    2.340000e+00
  TP4r SN6ah  1 3.650000e-01    2.340000e+00
  TP4h SN5ar  1 3.650000e-01    2.110000e+00
  TP4r SN5ah  1 3.650000e-01    2.110000e+00
  TP4h SN4ar  1 3.650000e-01    2.110000e+00
  TP4r SN4ah  1 3.650000e-01    2.110000e+00
  TP4h SN3ar  1 3.650000e-01    1.910000e+00
  TP4r SN3ah  1 3.650000e-01    1.910000e+00
  TP4h SN2ar  1 3.650000e-01    1.750000e+00
  TP4r SN2ah  1 3.650000e-01    1.750000e+00
  TP4h SN1ar  1 3.660000e-01    1.600000e+00
  TP4r SN1ah  1 3.660000e-01    1.600000e+00
  TP3h SP3dr  1 3.650000e-01    2.830000e+00
  TP3r SP3dh  1 3.650000e-01    2.830000e+00
  TP3h SP2dr  1 3.650000e-01    2.830000e+00
  TP3r SP2dh  1 3.650000e-01    2.830000e+00
  TP3h SP1dr  1 3.650000e-01    2.570000e+00
  TP3r SP1dh  1 3.650000e-01    2.570000e+00
  TP3h SN6dr  1 3.650000e-01    2.340000e+00
  TP3r SN6dh  1 3.650000e-01    2.340000e+00
  TP3h SN5dr  1 3.650000e-01    2.110000e+00
  TP3r SN5dh  1 3.650000e-01    2.110000e+00
  TP3h SN4dr  1 3.650000e-01    2.110000e+00
  TP3r SN4dh  1 3.650000e-01    2.110000e+00
  TP3h SN3dr  1 3.650000e-01    1.910000e+00
  TP3r SN3dh  1 3.650000e-01    1.910000e+00
  TP3h SN2dr  1 3.650000e-01    1.910000e+00
  TP3r SN2dh  1 3.650000e-01    1.910000e+00
  TP3h SN1dr  1 3.650000e-01    1.750000e+00
  TP3r SN1dh  1 3.650000e-01    1.750000e+00
  TP3h SP3ar  1 3.650000e-01    2.830000e+00
  TP3r SP3ah  1 3.650000e-01    2.830000e+00
  TP3h SP2ar  1 3.650000e-01    2.830000e+00
  TP3r SP2ah  1 3.650000e-01    2.830000e+00
  TP3h SP1ar  1 3.650000e-01    2.570000e+00
  TP3r SP1ah  1 3.650000e-01    2.570000e+00
  TP3h SN6ar  1 3.650000e-01    2.340000e+00
  TP3r SN6ah  1 3.650000e-01    2.340000e+00
  TP3h SN5ar  1 3.650000e-01    2.110000e+00
  TP3r SN5ah  1 3.650000e-01    2.110000e+00
  TP3h SN4ar  1 3.650000e-01    2.110000e+00
  TP3r SN4ah  1 3.650000e-01    2.110000e+00
  TP3h SN3ar  1 3.650000e-01    1.910000e+00
  TP3r SN3ah  1 3.650000e-01    1.910000e+00
  TP3h SN2ar  1 3.650000e-01    1.910000e+00
  TP3r SN2ah  1 3.650000e-01    1.910000e+00
  TP3h SN1ar  1 3.650000e-01    1.750000e+00
  TP3r SN1ah  1 3.650000e-01    1.750000e+00
  TP2h SP2dr  1 3.650000e-01    2.830000e+00
  TP2r SP2dh  1 3.650000e-01    2.830000e+00
  TP2h SP1dr  1 3.650000e-01    2.570000e+00
  TP2r SP1dh  1 3.650000e-01    2.570000e+00
  TP2h SN6dr  1 3.650000e-01    2.570000e+00
  TP2r SN6dh  1 3.650000e-01    2.570000e+00
  TP2h SN5dr  1 3.650000e-01    2.340000e+00
  TP2r SN5dh  1 3.650000e-01    2.340000e+00
  TP2h SN4dr  1 3.650000e-01    2.110000e+00
  TP2r SN4dh  1 3.650000e-01    2.110000e+00
  TP2h SN3dr  1 3.650000e-01    1.910000e+00
  TP2r SN3dh  1 3.650000e-01    1.910000e+00
  TP2h SN2dr  1 3.650000e-01    1.910000e+00
  TP2r SN2dh  1 3.650000e-01    1.910000e+00
  TP2h SN1dr  1 3.650000e-01    1.910000e+00
  TP2r SN1dh  1 3.650000e-01    1.910000e+00
  TP2h SP2ar  1 3.650000e-01    2.830000e+00
  TP2r SP2ah  1 3.650000e-01    2.830000e+00
  TP2h SP1ar  1 3.650000e-01    2.570000e+00
  TP2r SP1ah  1 3.650000e-01    2.570000e+00
  TP2h SN6ar  1 3.650000e-01    2.570000e+00
  TP2r SN6ah  1 3.650000e-01    2.570000e+00
  TP2h SN5ar  1 3.650000e-01    2.340000e+00
  TP2r SN5ah  1 3.650000e-01    2.340000e+00
  TP2h SN4ar  1 3.650000e-01    2.110000e+00
  TP2r SN4ah  1 3.650000e-01    2.110000e+00
  TP2h SN3ar  1 3.650000e-01    1.910000e+00
  TP2r SN3ah  1 3.650000e-01    1.910000e+00
  TP2h SN2ar  1 3.650000e-01    1.910000e+00
  TP2r SN2ah  1 3.650000e-01    1.910000e+00
  TP2h SN1ar  1 3.650000e-01    1.910000e+00
  TP2r SN1ah  1 3.650000e-01    1.910000e+00
  TP1h SP1dr  1 3.650000e-01    2.570000e+00
  TP1r SP1dh  1 3.650000e-01    2.570000e+00
  TP1h SN6dr  1 3.650000e-01    2.570000e+00
  TP1r SN6dh  1 3.650000e-01    2.570000e+00
  TP1h SN5dr  1 3.650000e-01    2.340000e+00
  TP1r SN5dh  1 3.650000e-01    2.340000e+00
  TP1h SN4dr  1 3.650000e-01    2.340000e+00
  TP1r SN4dh  1 3.650000e-01    2.340000e+00
  TP1h SN3dr  1 3.650000e-01    1.910000e+00
  TP1r SN3dh  1 3.650000e-01    1.910000e+00
  TP1h SN2dr  1 3.650000e-01    1.910000e+00
  TP1r SN2dh  1 3.650000e-01    1.910000e+00
  TP1h SN1dr  1 3.650000e-01    1.910000e+00
  TP1r SN1dh  1 3.650000e-01    1.910000e+00
  TP1h SP1ar  1 3.650000e-01    2.570000e+00
  TP1r SP1ah  1 3.650000e-01    2.570000e+00
  TP1h SN6ar  1 3.650000e-01    2.570000e+00
  TP1r SN6ah  1 3.650000e-01    2.570000e+00
  TP1h SN5ar  1 3.650000e-01    2.340000e+00
  TP1r SN5ah  1 3.650000e-01    2.340000e+00
  TP1h SN4ar  1 3.650000e-01    2.340000e+00
  TP1r SN4ah  1 3.650000e-01    2.340000e+00
  TP1h SN3ar  1 3.650000e-01    1.910000e+00
  TP1r SN3ah  1 3.650000e-01    1.910000e+00
  TP1h SN2ar  1 3.650000e-01    1.910000e+00
  TP1r SN2ah  1 3.650000e-01    1.910000e+00
  TP1h SN1ar  1 3.650000e-01    1.910000e+00
  TP1r SN1ah  1 3.650000e-01    1.910000e+00
  TN6h SN6dr  1 3.650000e-01    2.570000e+00
  TN6r SN6dh  1 3.650000e-01    2.570000e+00
  TN6h SN5dr  1 3.650000e-01    2.570000e+00
  TN6r SN5dh  1 3.650000e-01    2.570000e+00
  TN6h SN4dr  1 3.650000e-01    2.570000e+00
  TN6r SN4dh  1 3.650000e-01    2.570000e+00
  TN6h SN3dr  1 3.650000e-01    2.110000e+00
  TN6r SN3dh  1 3.650000e-01    2.110000e+00
  TN6h SN2dr  1 3.650000e-01    1.910000e+00
  TN6r SN2dh  1 3.650000e-01    1.910000e+00
  TN6h SN1dr  1 3.650000e-01    1.910000e+00
  TN6r SN1dh  1 3.650000e-01    1.910000e+00
  TN6h SN6ar  1 3.650000e-01    2.570000e+00
  TN6r SN6ah  1 3.650000e-01    2.570000e+00
  TN6h SN5ar  1 3.650000e-01    2.570000e+00
  TN6r SN5ah  1 3.650000e-01    2.570000e+00
  TN6h SN4ar  1 3.650000e-01    2.570000e+00
  TN6r SN4ah  1 3.650000e-01    2.570000e+00
  TN6h SN3ar  1 3.650000e-01    2.110000e+00
  TN6r SN3ah  1 3.650000e-01    2.110000e+00
  TN6h SN2ar  1 3.650000e-01    1.910000e+00
  TN6r SN2ah  1 3.650000e-01    1.910000e+00
  TN6h SN1ar  1 3.650000e-01    1.910000e+00
  TN6r SN1ah  1 3.650000e-01    1.910000e+00
  TN5h SN5dr  1 3.650000e-01    2.340000e+00
  TN5r SN5dh  1 3.650000e-01    2.340000e+00
  TN5h SN4dr  1 3.650000e-01    2.340000e+00
  TN5r SN4dh  1 3.650000e-01    2.340000e+00
  TN5h SN3dr  1 3.650000e-01    2.110000e+00
  TN5r SN3dh  1 3.650000e-01    2.110000e+00
  TN5h SN2dr  1 3.650000e-01    2.110000e+00
  TN5r SN2dh  1 3.650000e-01    2.110000e+00
  TN5h SN1dr  1 3.650000e-01    1.910000e+00
  TN5r SN1dh  1 3.650000e-01    1.910000e+00
  TN5h SN5ar  1 3.650000e-01    2.340000e+00
  TN5r SN5ah  1 3.650000e-01    2.340000e+00
  TN5h SN4ar  1 3.650000e-01    2.340000e+00
  TN5r SN4ah  1 3.650000e-01    2.340000e+00
  TN5h SN3ar  1 3.650000e-01    2.110000e+00
  TN5r SN3ah  1 3.650000e-01    2.110000e+00
  TN5h SN2ar  1 3.650000e-01    2.110000e+00
  TN5r SN2ah  1 3.650000e-01    2.110000e+00
  TN5h SN1ar  1 3.650000e-01    1.910000e+00
  TN5r SN1ah  1 3.650000e-01    1.910000e+00
  TN4h SN4dr  1 3.650000e-01    2.340000e+00
  TN4r SN4dh  1 3.650000e-01    2.340000e+00
  TN4h SN3dr  1 3.650000e-01    2.110000e+00
  TN4r SN3dh  1 3.650000e-01    2.110000e+00
  TN4h SN2dr  1 3.650000e-01    2.110000e+00
  TN4r SN2dh  1 3.650000e-01    2.110000e+00
  TN4h SN1dr  1 3.650000e-01    1.910000e+00
  TN4r SN1dh  1 3.650000e-01    1.910000e+00
  TN4h SN4ar  1 3.650000e-01    2.340000e+00
  TN4r SN4ah  1 3.650000e-01    2.340000e+00
  TN4h SN3ar  1 3.650000e-01    2.110000e+00
  TN4r SN3ah  1 3.650000e-01    2.110000e+00
  TN4h SN2ar  1 3.650000e-01    2.110000e+00
  TN4r SN2ah  1 3.650000e-01    2.110000e+00
  TN4h SN1ar  1 3.650000e-01    1.910000e+00
  TN4r SN1ah  1 3.650000e-01    1.910000e+00
  TN3h SN3dr  1 3.650000e-01    2.110000e+00
  TN3r SN3dh  1 3.650000e-01    2.110000e+00
  TN3h SN2dr  1 3.650000e-01    2.110000e+00
  TN3r SN2dh  1 3.650000e-01    2.110000e+00
  TN3h SN1dr  1 3.650000e-01    1.910000e+00
  TN3r SN1dh  1 3.650000e-01    1.910000e+00
  TN3h SN3ar  1 3.650000e-01    2.110000e+00
  TN3r SN3ah  1 3.650000e-01    2.110000e+00
  TN3h SN2ar  1 3.650000e-01    2.110000e+00
  TN3r SN2ah  1 3.650000e-01    2.110000e+00
  TN3h SN1ar  1 3.650000e-01    1.910000e+00
  TN3r SN1ah  1 3.650000e-01    1.910000e+00
  TN2h SN2dr  1 3.650000e-01    2.110000e+00
  TN2r SN2dh  1 3.650000e-01    2.110000e+00
  TN2h SN1dr  1 3.650000e-01    1.910000e+00
  TN2r SN1dh  1 3.650000e-01    1.910000e+00
  TN2h SN2ar  1 3.650000e-01    2.110000e+00
  TN2r SN2ah  1 3.650000e-01    2.110000e+00
  TN2h SN1ar  1 3.650000e-01    1.910000e+00
  TN2r SN1ah  1 3.650000e-01    1.910000e+00
  TN1h SN1dr  1 3.650000e-01    2.110000e+00
  TN1r SN1dh  1 3.650000e-01    2.110000e+00
  TN1h SN1ar  1 3.650000e-01    2.110000e+00
  TN1r SN1ah  1 3.650000e-01    2.110000e+00
  TC6h SC6vr  1 3.650000e-01    2.340000e+00
  TC6r SC6vh  1 3.650000e-01    2.340000e+00
  TC6h SC5vr  1 3.650000e-01    2.110000e+00
  TC6r SC5vh  1 3.650000e-01    2.110000e+00
  TC6h SC4vr  1 3.650000e-01    2.110000e+00
  TC6r SC4vh  1 3.650000e-01    2.110000e+00
  TC6h SC3vr  1 3.650000e-01    1.910000e+00
  TC6r SC3vh  1 3.650000e-01    1.910000e+00
  TC6h SC2vr  1 3.650000e-01    1.750000e+00
  TC6r SC2vh  1 3.650000e-01    1.750000e+00
  TC6h SC1vr  1 3.660000e-01    1.600000e+00
  TC6r SC1vh  1 3.660000e-01    1.600000e+00
  TC6h SX4vr  1 3.650000e-01    2.110000e+00
  TC6r SX4vh  1 3.650000e-01    2.110000e+00
  TC6h SX3vr  1 3.650000e-01    2.110000e+00
  TC6r SX3vh  1 3.650000e-01    2.110000e+00
  TC6h SX2vr  1 3.650000e-01    2.110000e+00
  TC6r SX2vh  1 3.650000e-01    2.110000e+00
  TC6h SX1vr  1 3.650000e-01    2.110000e+00
  TC6r SX1vh  1 3.650000e-01    2.110000e+00
  TC6h SC6er  1 3.650000e-01    2.340000e+00
  TC6r SC6eh  1 3.650000e-01    2.340000e+00
  TC6h SC5er  1 3.650000e-01    2.110000e+00
  TC6r SC5eh  1 3.650000e-01    2.110000e+00
  TC6h SC4er  1 3.650000e-01    2.110000e+00
  TC6r SC4eh  1 3.650000e-01    2.110000e+00
  TC6h SC3er  1 3.650000e-01    1.910000e+00
  TC6r SC3eh  1 3.650000e-01    1.910000e+00
  TC6h SC2er  1 3.650000e-01    1.750000e+00
  TC6r SC2eh  1 3.650000e-01    1.750000e+00
  TC6h SC1er  1 3.660000e-01    1.600000e+00
  TC6r SC1eh  1 3.660000e-01    1.600000e+00
  TC6h SX4er  1 3.650000e-01    2.110000e+00
  TC6r SX4eh  1 3.650000e-01    2.110000e+00
  TC6h SX3er  1 3.650000e-01    2.110000e+00
  TC6r SX3eh  1 3.650000e-01    2.110000e+00
  TC6h SX2er  1 3.650000e-01    2.110000e+00
  TC6r SX2eh  1 3.650000e-01    2.110000e+00
  TC6h SX1er  1 3.650000e-01    2.110000e+00
  TC6r SX1eh  1 3.650000e-01    2.110000e+00
  TC5h SC5vr  1 3.650000e-01    2.110000e+00
  TC5r SC5vh  1 3.650000e-01    2.110000e+00
  TC5h SC4vr  1 3.650000e-01    2.110000e+00
  TC5r SC4vh  1 3.650000e-01    2.110000e+00
  TC5h SC3vr  1 3.650000e-01    1.910000e+00
  TC5r SC3vh  1 3.650000e-01    1.910000e+00
  TC5h SC2vr  1 3.650000e-01    1.750000e+00
  TC5r SC2vh  1 3.650000e-01    1.750000e+00
  TC5h SC1vr  1 3.650000e-01    1.750000e+00
  TC5r SC1vh  1 3.650000e-01    1.750000e+00
  TC5h SX4vr  1 3.650000e-01    1.910000e+00
  TC5r SX4vh  1 3.650000e-01    1.910000e+00
  TC5h SX3vr  1 3.650000e-01    1.910000e+00
  TC5r SX3vh  1 3.650000e-01    1.910000e+00
  TC5h SX2vr  1 3.650000e-01    1.910000e+00
  TC5r SX2vh  1 3.650000e-01    1.910000e+00
  TC5h SX1vr  1 3.650000e-01    2.110000e+00
  TC5r SX1vh  1 3.650000e-01    2.110000e+00
  TC5h SC5er  1 3.650000e-01    2.110000e+00
  TC5r SC5eh  1 3.650000e-01    2.110000e+00
  TC5h SC4er  1 3.650000e-01    2.110000e+00
  TC5r SC4eh  1 3.650000e-01    2.110000e+00
  TC5h SC3er  1 3.650000e-01    1.910000e+00
  TC5r SC3eh  1 3.650000e-01    1.910000e+00
  TC5h SC2er  1 3.650000e-01    1.750000e+00
  TC5r SC2eh  1 3.650000e-01    1.750000e+00
  TC5h SC1er  1 3.650000e-01    1.750000e+00
  TC5r SC1eh  1 3.650000e-01    1.750000e+00
  TC5h SX4er  1 3.650000e-01    1.910000e+00
  TC5r SX4eh  1 3.650000e-01    1.910000e+00
  TC5h SX3er  1 3.650000e-01    1.910000e+00
  TC5r SX3eh  1 3.650000e-01    1.910000e+00
  TC5h SX2er  1 3.650000e-01    1.910000e+00
  TC5r SX2eh  1 3.650000e-01    1.910000e+00
  TC5h SX1er  1 3.650000e-01    2.110000e+00
  TC5r SX1eh  1 3.650000e-01    2.110000e+00
  TC4h SC4vr  1 3.650000e-01    2.110000e+00
  TC4r SC4vh  1 3.650000e-01    2.110000e+00
  TC4h SC3vr  1 3.650000e-01    2.110000e+00
  TC4r SC3vh  1 3.650000e-01    2.110000e+00
  TC4h SC2vr  1 3.650000e-01    1.910000e+00
  TC4r SC2vh  1 3.650000e-01    1.910000e+00
  TC4h SC1vr  1 3.650000e-01    1.750000e+00
  TC4r SC1vh  1 3.650000e-01    1.750000e+00
  TC4h SX4vr  1 3.650000e-01    1.910000e+00
  TC4r SX4vh  1 3.650000e-01    1.910000e+00
  TC4h SX3vr  1 3.650000e-01    1.910000e+00
  TC4r SX3vh  1 3.650000e-01    1.910000e+00
  TC4h SX2vr  1 3.650000e-01    1.910000e+00
  TC4r SX2vh  1 3.650000e-01    1.910000e+00
  TC4h SX1vr  1 3.650000e-01    2.110000e+00
  TC4r SX1vh  1 3.650000e-01    2.110000e+00
  TC4h SC4er  1 3.650000e-01    2.110000e+00
  TC4r SC4eh  1 3.650000e-01    2.110000e+00
  TC4h SC3er  1 3.650000e-01    2.110000e+00
  TC4r SC3eh  1 3.650000e-01    2.110000e+00
  TC4h SC2er  1 3.650000e-01    1.910000e+00
  TC4r SC2eh  1 3.650000e-01    1.910000e+00
  TC4h SC1er  1 3.650000e-01    1.750000e+00
  TC4r SC1eh  1 3.650000e-01    1.750000e+00
  TC4h SX4er  1 3.650000e-01    1.910000e+00
  TC4r SX4eh  1 3.650000e-01    1.910000e+00
  TC4h SX3er  1 3.650000e-01    1.910000e+00
  TC4r SX3eh  1 3.650000e-01    1.910000e+00
  TC4h SX2er  1 3.650000e-01    1.910000e+00
  TC4r SX2eh  1 3.650000e-01    1.910000e+00
  TC4h SX1er  1 3.650000e-01    2.110000e+00
  TC4r SX1eh  1 3.650000e-01    2.110000e+00
  TC3h SC3vr  1 3.650000e-01    2.110000e+00
  TC3r SC3vh  1 3.650000e-01    2.110000e+00
  TC3h SC2vr  1 3.650000e-01    2.110000e+00
  TC3r SC2vh  1 3.650000e-01    2.110000e+00
  TC3h SC1vr  1 3.650000e-01    2.110000e+00
  TC3r SC1vh  1 3.650000e-01    2.110000e+00
  TC3h SX4vr  1 3.650000e-01    1.910000e+00
  TC3r SX4vh  1 3.650000e-01    1.910000e+00
  TC3h SX3vr  1 3.650000e-01    1.910000e+00
  TC3r SX3vh  1 3.650000e-01    1.910000e+00
  TC3h SX2vr  1 3.650000e-01    1.910000e+00
  TC3r SX2vh  1 3.650000e-01    1.910000e+00
  TC3h SX1vr  1 3.650000e-01    2.110000e+00
  TC3r SX1vh  1 3.650000e-01    2.110000e+00
  TC3h SC3er  1 3.650000e-01    2.110000e+00
  TC3r SC3eh  1 3.650000e-01    2.110000e+00
  TC3h SC2er  1 3.650000e-01    2.110000e+00
  TC3r SC2eh  1 3.650000e-01    2.110000e+00
  TC3h SC1er  1 3.650000e-01    2.110000e+00
  TC3r SC1eh  1 3.650000e-01    2.110000e+00
  TC3h SX4er  1 3.650000e-01    1.910000e+00
  TC3r SX4eh  1 3.650000e-01    1.910000e+00
  TC3h SX3er  1 3.650000e-01    1.910000e+00
  TC3r SX3eh  1 3.650000e-01    1.910000e+00
  TC3h SX2er  1 3.650000e-01    1.910000e+00
  TC3r SX2eh  1 3.650000e-01    1.910000e+00
  TC3h SX1er  1 3.650000e-01    2.110000e+00
  TC3r SX1eh  1 3.650000e-01    2.110000e+00
  TC2h SC2vr  1 3.650000e-01    2.110000e+00
  TC2r SC2vh  1 3.650000e-01    2.110000e+00
  TC2h SC1vr  1 3.650000e-01    2.340000e+00
  TC2r SC1vh  1 3.650000e-01    2.340000e+00
  TC2h SX4vr  1 3.660000e-01    1.600000e+00
  TC2r SX4vh  1 3.660000e-01    1.600000e+00
  TC2h SX3vr  1 3.650000e-01    1.910000e+00
  TC2r SX3vh  1 3.650000e-01    1.910000e+00
  TC2h SX2vr  1 3.650000e-01    1.910000e+00
  TC2r SX2vh  1 3.650000e-01    1.910000e+00
  TC2h SX1vr  1 3.650000e-01    1.910000e+00
  TC2r SX1vh  1 3.650000e-01    1.910000e+00
  TC2h SC2er  1 3.650000e-01    2.110000e+00
  TC2r SC2eh  1 3.650000e-01    2.110000e+00
  TC2h SC1er  1 3.650000e-01    2.340000e+00
  TC2r SC1eh  1 3.650000e-01    2.340000e+00
  TC2h SX4er  1 3.660000e-01    1.600000e+00
  TC2r SX4eh  1 3.660000e-01    1.600000e+00
  TC2h SX3er  1 3.650000e-01    1.910000e+00
  TC2r SX3eh  1 3.650000e-01    1.910000e+00
  TC2h SX2er  1 3.650000e-01    1.910000e+00
  TC2r SX2eh  1 3.650000e-01    1.910000e+00
  TC2h SX1er  1 3.650000e-01    1.910000e+00
  TC2r SX1eh  1 3.650000e-01    1.910000e+00
  TC1h SC1vr  1 3.650000e-01    2.110000e+00
  TC1r SC1vh  1 3.650000e-01    2.110000e+00
  TC1h SX4vr  1 3.660000e-01    1.600000e+00
  TC1r SX4vh  1 3.660000e-01    1.600000e+00
  TC1h SX3vr  1 3.650000e-01    1.910000e+00
  TC1r SX3vh  1 3.650000e-01    1.910000e+00
  TC1h SX2vr  1 3.650000e-01    1.910000e+00
  TC1r SX2vh  1 3.650000e-01    1.910000e+00
  TC1h SX1vr  1 3.650000e-01    1.910000e+00
  TC1r SX1vh  1 3.650000e-01    1.910000e+00
  TC1h SC1er  1 3.650000e-01    2.110000e+00
  TC1r SC1eh  1 3.650000e-01    2.110000e+00
  TC1h SX4er  1 3.660000e-01    1.600000e+00
  TC1r SX4eh  1 3.660000e-01    1.600000e+00
  TC1h SX3er  1 3.650000e-01    1.910000e+00
  TC1r SX3eh  1 3.650000e-01    1.910000e+00
  TC1h SX2er  1 3.650000e-01    1.910000e+00
  TC1r SX2eh  1 3.650000e-01    1.910000e+00
  TC1h SX1er  1 3.650000e-01    1.910000e+00
  TC1r SX1eh  1 3.650000e-01    1.910000e+00
  TX4h SX4vr  1 3.650000e-01    2.110000e+00
  TX4r SX4vh  1 3.650000e-01    2.110000e+00
  TX4h SX3vr  1 3.650000e-01    2.110000e+00
  TX4r SX3vh  1 3.650000e-01    2.110000e+00
  TX4h SX2vr  1 3.650000e-01    2.110000e+00
  TX4r SX2vh  1 3.650000e-01    2.110000e+00
  TX4h SX1vr  1 3.650000e-01    2.110000e+00
  TX4r SX1vh  1 3.650000e-01    2.110000e+00
  TX4h SX4er  1 3.650000e-01    2.110000e+00
  TX4r SX4eh  1 3.650000e-01    2.110000e+00
  TX4h SX3er  1 3.650000e-01    2.110000e+00
  TX4r SX3eh  1 3.650000e-01    2.110000e+00
  TX4h SX2er  1 3.650000e-01    2.110000e+00
  TX4r SX2eh  1 3.650000e-01    2.110000e+00
  TX4h SX1er  1 3.650000e-01    2.110000e+00
  TX4r SX1eh  1 3.650000e-01    2.110000e+00
  TX3h SX3vr  1 3.650000e-01    2.110000e+00
  TX3r SX3vh  1 3.650000e-01    2.110000e+00
  TX3h SX2vr  1 3.650000e-01    2.340000e+00
  TX3r SX2vh  1 3.650000e-01    2.340000e+00
  TX3h SX1vr  1 3.650000e-01    2.340000e+00
  TX3r SX1vh  1 3.650000e-01    2.340000e+00
  TX3h SX3er  1 3.650000e-01    2.110000e+00
  TX3r SX3eh  1 3.650000e-01    2.110000e+00
  TX3h SX2er  1 3.650000e-01    2.340000e+00
  TX3r SX2eh  1 3.650000e-01    2.340000e+00
  TX3h SX1er  1 3.650000e-01    2.340000e+00
  TX3r SX1eh  1 3.650000e-01    2.340000e+00
  TX2h SX2vr  1 3.650000e-01    2.340000e+00
  TX2r SX2vh  1 3.650000e-01    2.340000e+00
  TX2h SX1vr  1 3.650000e-01    2.340000e+00
  TX2r SX1vh  1 3.650000e-01    2.340000e+00
  TX2h SX2er  1 3.650000e-01    2.340000e+00
  TX2r SX2eh  1 3.650000e-01    2.340000e+00
  TX2h SX1er  1 3.650000e-01    2.340000e+00
  TX2r SX1eh  1 3.650000e-01    2.340000e+00
  TX1h SX1vr  1 3.650000e-01    2.570000e+00
  TX1r SX1vh  1 3.650000e-01    2.570000e+00
  TX1h SX1er  1 3.650000e-01    2.570000e+00
  TX1r SX1eh  1 3.650000e-01    2.570000e+00
  TP6h SC6vr  1 3.660000e-01    1.600000e+00
  TP6r SC6vh  1 3.660000e-01    1.600000e+00
  TP6h SC5vr  1 3.780000e-01    1.450000e+00
  TP6r SC5vh  1 3.780000e-01    1.450000e+00
  TP6h SC4vr  1 3.940000e-01    1.290000e+00
  TP6r SC4vh  1 3.940000e-01    1.290000e+00
  TP6h SC3vr  1 4.040000e-01    1.130000e+00
  TP6r SC3vh  1 4.040000e-01    1.130000e+00
  TP6h SC2vr  1 4.040000e-01    1.130000e+00
  TP6r SC2vh  1 4.040000e-01    1.130000e+00
  TP6h SC1vr  1 4.230000e-01    9.810000e-01
  TP6r SC1vh  1 4.230000e-01    9.810000e-01
  TP6h SX4vr  1 3.650000e-01    1.750000e+00
  TP6r SX4vh  1 3.650000e-01    1.750000e+00
  TP6h SX3vr  1 3.650000e-01    1.750000e+00
  TP6r SX3vh  1 3.650000e-01    1.750000e+00
  TP6h SX2vr  1 3.660000e-01    1.600000e+00
  TP6r SX2vh  1 3.660000e-01    1.600000e+00
  TP6h SX1vr  1 3.780000e-01    1.450000e+00
  TP6r SX1vh  1 3.780000e-01    1.450000e+00
  TP6h SC6er  1 3.660000e-01    1.600000e+00
  TP6r SC6eh  1 3.660000e-01    1.600000e+00
  TP6h SC5er  1 3.780000e-01    1.450000e+00
  TP6r SC5eh  1 3.780000e-01    1.450000e+00
  TP6h SC4er  1 3.940000e-01    1.290000e+00
  TP6r SC4eh  1 3.940000e-01    1.290000e+00
  TP6h SC3er  1 4.040000e-01    1.130000e+00
  TP6r SC3eh  1 4.040000e-01    1.130000e+00
  TP6h SC2er  1 4.040000e-01    1.130000e+00
  TP6r SC2eh  1 4.040000e-01    1.130000e+00
  TP6h SC1er  1 4.230000e-01    9.810000e-01
  TP6r SC1eh  1 4.230000e-01    9.810000e-01
  TP6h SX4er  1 3.650000e-01    1.750000e+00
  TP6r SX4eh  1 3.650000e-01    1.750000e+00
  TP6h SX3er  1 3.650000e-01    1.750000e+00
  TP6r SX3eh  1 3.650000e-01    1.750000e+00
  TP6h SX2er  1 3.660000e-01    1.600000e+00
  TP6r SX2eh  1 3.660000e-01    1.600000e+00
  TP6h SX1er  1 3.780000e-01    1.450000e+00
  TP6r SX1eh  1 3.780000e-01    1.450000e+00
  TP5h SC6vr  1 3.660000e-01    1.600000e+00
  TP5r SC6vh  1 3.660000e-01    1.600000e+00
  TP5h SC5vr  1 3.660000e-01    1.600000e+00
  TP5r SC5vh  1 3.660000e-01    1.600000e+00
  TP5h SC4vr  1 3.780000e-01    1.450000e+00
  TP5r SC4vh  1 3.780000e-01    1.450000e+00
  TP5h SC3vr  1 3.940000e-01    1.290000e+00
  TP5r SC3vh  1 3.940000e-01    1.290000e+00
  TP5h SC2vr  1 3.940000e-01    1.290000e+00
  TP5r SC2vh  1 3.940000e-01    1.290000e+00
  TP5h SC1vr  1 4.040000e-01    1.130000e+00
  TP5r SC1vh  1 4.040000e-01    1.130000e+00
  TP5h SX4vr  1 3.650000e-01    1.910000e+00
  TP5r SX4vh  1 3.650000e-01    1.910000e+00
  TP5h SX3vr  1 3.650000e-01    1.750000e+00
  TP5r SX3vh  1 3.650000e-01    1.750000e+00
  TP5h SX2vr  1 3.650000e-01    1.750000e+00
  TP5r SX2vh  1 3.650000e-01    1.750000e+00
  TP5h SX1vr  1 3.780000e-01    1.450000e+00
  TP5r SX1vh  1 3.780000e-01    1.450000e+00
  TP5h SC6er  1 3.660000e-01    1.600000e+00
  TP5r SC6eh  1 3.660000e-01    1.600000e+00
  TP5h SC5er  1 3.660000e-01    1.600000e+00
  TP5r SC5eh  1 3.660000e-01    1.600000e+00
  TP5h SC4er  1 3.780000e-01    1.450000e+00
  TP5r SC4eh  1 3.780000e-01    1.450000e+00
  TP5h SC3er  1 3.940000e-01    1.290000e+00
  TP5r SC3eh  1 3.940000e-01    1.290000e+00
  TP5h SC2er  1 3.940000e-01    1.290000e+00
  TP5r SC2eh  1 3.940000e-01    1.290000e+00
  TP5h SC1er  1 4.040000e-01    1.130000e+00
  TP5r SC1eh  1 4.040000e-01    1.130000e+00
  TP5h SX4er  1 3.650000e-01    1.910000e+00
  TP5r SX4eh  1 3.650000e-01    1.910000e+00
  TP5h SX3er  1 3.650000e-01    1.750000e+00
  TP5r SX3eh  1 3.650000e-01    1.750000e+00
  TP5h SX2er  1 3.650000e-01    1.750000e+00
  TP5r SX2eh  1 3.650000e-01    1.750000e+00
  TP5h SX1er  1 3.780000e-01    1.450000e+00
  TP5r SX1eh  1 3.780000e-01    1.450000e+00
  TP4h SC6vr  1 3.650000e-01    1.750000e+00
  TP4r SC6vh  1 3.650000e-01    1.750000e+00
  TP4h SC5vr  1 3.660000e-01    1.600000e+00
  TP4r SC5vh  1 3.660000e-01    1.600000e+00
  TP4h SC4vr  1 3.780000e-01    1.450000e+00
  TP4r SC4vh  1 3.780000e-01    1.450000e+00
  TP4h SC3vr  1 3.940000e-01    1.290000e+00
  TP4r SC3vh  1 3.940000e-01    1.290000e+00
  TP4h SC2vr  1 3.940000e-01    1.290000e+00
  TP4r SC2vh  1 3.940000e-01    1.290000e+00
  TP4h SC1vr  1 4.040000e-01    1.130000e+00
  TP4r SC1vh  1 4.040000e-01    1.130000e+00
  TP4h SX4vr  1 3.650000e-01    1.910000e+00
  TP4r SX4vh  1 3.650000e-01    1.910000e+00
  TP4h SX3vr  1 3.650000e-01    1.750000e+00
  TP4r SX3vh  1 3.650000e-01    1.750000e+00
  TP4h SX2vr  1 3.650000e-01    1.750000e+00
  TP4r SX2vh  1 3.650000e-01    1.750000e+00
  TP4h SX1vr  1 3.660000e-01    1.600000e+00
  TP4r SX1vh  1 3.660000e-01    1.600000e+00
  TP4h SC6er  1 3.650000e-01    1.750000e+00
  TP4r SC6eh  1 3.650000e-01    1.750000e+00
  TP4h SC5er  1 3.660000e-01    1.600000e+00
  TP4r SC5eh  1 3.660000e-01    1.600000e+00
  TP4h SC4er  1 3.780000e-01    1.450000e+00
  TP4r SC4eh  1 3.780000e-01    1.450000e+00
  TP4h SC3er  1 3.940000e-01    1.290000e+00
  TP4r SC3eh  1 3.940000e-01    1.290000e+00
  TP4h SC2er  1 3.940000e-01    1.290000e+00
  TP4r SC2eh  1 3.940000e-01    1.290000e+00
  TP4h SC1er  1 4.040000e-01    1.130000e+00
  TP4r SC1eh  1 4.040000e-01    1.130000e+00
  TP4h SX4er  1 3.650000e-01    1.910000e+00
  TP4r SX4eh  1 3.650000e-01    1.910000e+00
  TP4h SX3er  1 3.650000e-01    1.750000e+00
  TP4r SX3eh  1 3.650000e-01    1.750000e+00
  TP4h SX2er  1 3.650000e-01    1.750000e+00
  TP4r SX2eh  1 3.650000e-01    1.750000e+00
  TP4h SX1er  1 3.660000e-01    1.600000e+00
  TP4r SX1eh  1 3.660000e-01    1.600000e+00
  TP3h SC6vr  1 3.650000e-01    1.910000e+00
  TP3r SC6vh  1 3.650000e-01    1.910000e+00
  TP3h SC5vr  1 3.650000e-01    1.750000e+00
  TP3r SC5vh  1 3.650000e-01    1.750000e+00
  TP3h SC4vr  1 3.660000e-01    1.600000e+00
  TP3r SC4vh  1 3.660000e-01    1.600000e+00
  TP3h SC3vr  1 3.940000e-01    1.290000e+00
  TP3r SC3vh  1 3.940000e-01    1.290000e+00
  TP3h SC2vr  1 3.940000e-01    1.290000e+00
  TP3r SC2vh  1 3.940000e-01    1.290000e+00
  TP3h SC1vr  1 4.040000e-01    1.130000e+00
  TP3r SC1vh  1 4.040000e-01    1.130000e+00
  TP3h SX4vr  1 3.650000e-01    1.910000e+00
  TP3r SX4vh  1 3.650000e-01    1.910000e+00
  TP3h SX3vr  1 3.650000e-01    1.910000e+00
  TP3r SX3vh  1 3.650000e-01    1.910000e+00
  TP3h SX2vr  1 3.650000e-01    1.750000e+00
  TP3r SX2vh  1 3.650000e-01    1.750000e+00
  TP3h SX1vr  1 3.660000e-01    1.600000e+00
  TP3r SX1vh  1 3.660000e-01    1.600000e+00
  TP3h SC6er  1 3.650000e-01    1.910000e+00
  TP3r SC6eh  1 3.650000e-01    1.910000e+00
  TP3h SC5er  1 3.650000e-01    1.750000e+00
  TP3r SC5eh  1 3.650000e-01    1.750000e+00
  TP3h SC4er  1 3.660000e-01    1.600000e+00
  TP3r SC4eh  1 3.660000e-01    1.600000e+00
  TP3h SC3er  1 3.940000e-01    1.290000e+00
  TP3r SC3eh  1 3.940000e-01    1.290000e+00
  TP3h SC2er  1 3.940000e-01    1.290000e+00
  TP3r SC2eh  1 3.940000e-01    1.290000e+00
  TP3h SC1er  1 4.040000e-01    1.130000e+00
  TP3r SC1eh  1 4.040000e-01    1.130000e+00
  TP3h SX4er  1 3.650000e-01    1.910000e+00
  TP3r SX4eh  1 3.650000e-01    1.910000e+00
  TP3h SX3er  1 3.650000e-01    1.910000e+00
  TP3r SX3eh  1 3.650000e-01    1.910000e+00
  TP3h SX2er  1 3.650000e-01    1.750000e+00
  TP3r SX2eh  1 3.650000e-01    1.750000e+00
  TP3h SX1er  1 3.660000e-01    1.600000e+00
  TP3r SX1eh  1 3.660000e-01    1.600000e+00
  TP2h SC6vr  1 3.650000e-01    1.910000e+00
  TP2r SC6vh  1 3.650000e-01    1.910000e+00
  TP2h SC5vr  1 3.650000e-01    1.750000e+00
  TP2r SC5vh  1 3.650000e-01    1.750000e+00
  TP2h SC4vr  1 3.660000e-01    1.600000e+00
  TP2r SC4vh  1 3.660000e-01    1.600000e+00
  TP2h SC3vr  1 3.780000e-01    1.450000e+00
  TP2r SC3vh  1 3.780000e-01    1.450000e+00
  TP2h SC2vr  1 3.780000e-01    1.450000e+00
  TP2r SC2vh  1 3.780000e-01    1.450000e+00
  TP2h SC1vr  1 3.940000e-01    1.290000e+00
  TP2r SC1vh  1 3.940000e-01    1.290000e+00
  TP2h SX4vr  1 3.650000e-01    1.910000e+00
  TP2r SX4vh  1 3.650000e-01    1.910000e+00
  TP2h SX3vr  1 3.650000e-01    1.910000e+00
  TP2r SX3vh  1 3.650000e-01    1.910000e+00
  TP2h SX2vr  1 3.650000e-01    1.750000e+00
  TP2r SX2vh  1 3.650000e-01    1.750000e+00
  TP2h SX1vr  1 3.660000e-01    1.600000e+00
  TP2r SX1vh  1 3.660000e-01    1.600000e+00
  TP2h SC6er  1 3.650000e-01    1.910000e+00
  TP2r SC6eh  1 3.650000e-01    1.910000e+00
  TP2h SC5er  1 3.650000e-01    1.750000e+00
  TP2r SC5eh  1 3.650000e-01    1.750000e+00
  TP2h SC4er  1 3.660000e-01    1.600000e+00
  TP2r SC4eh  1 3.660000e-01    1.600000e+00
  TP2h SC3er  1 3.780000e-01    1.450000e+00
  TP2r SC3eh  1 3.780000e-01    1.450000e+00
  TP2h SC2er  1 3.780000e-01    1.450000e+00
  TP2r SC2eh  1 3.780000e-01    1.450000e+00
  TP2h SC1er  1 3.940000e-01    1.290000e+00
  TP2r SC1eh  1 3.940000e-01    1.290000e+00
  TP2h SX4er  1 3.650000e-01    1.910000e+00
  TP2r SX4eh  1 3.650000e-01    1.910000e+00
  TP2h SX3er  1 3.650000e-01    1.910000e+00
  TP2r SX3eh  1 3.650000e-01    1.910000e+00
  TP2h SX2er  1 3.650000e-01    1.750000e+00
  TP2r SX2eh  1 3.650000e-01    1.750000e+00
  TP2h SX1er  1 3.660000e-01    1.600000e+00
  TP2r SX1eh  1 3.660000e-01    1.600000e+00
  TP1h SC6vr  1 3.650000e-01    1.910000e+00
  TP1r SC6vh  1 3.650000e-01    1.910000e+00
  TP1h SC5vr  1 3.650000e-01    1.750000e+00
  TP1r SC5vh  1 3.650000e-01    1.750000e+00
  TP1h SC4vr  1 3.660000e-01    1.600000e+00
  TP1r SC4vh  1 3.660000e-01    1.600000e+00
  TP1h SC3vr  1 3.780000e-01    1.450000e+00
  TP1r SC3vh  1 3.780000e-01    1.450000e+00
  TP1h SC2vr  1 3.780000e-01    1.450000e+00
  TP1r SC2vh  1 3.780000e-01    1.450000e+00
  TP1h SC1vr  1 3.940000e-01    1.290000e+00
  TP1r SC1vh  1 3.940000e-01    1.290000e+00
  TP1h SX4vr  1 3.650000e-01    1.910000e+00
  TP1r SX4vh  1 3.650000e-01    1.910000e+00
  TP1h SX3vr  1 3.650000e-01    1.910000e+00
  TP1r SX3vh  1 3.650000e-01    1.910000e+00
  TP1h SX2vr  1 3.650000e-01    1.750000e+00
  TP1r SX2vh  1 3.650000e-01    1.750000e+00
  TP1h SX1vr  1 3.660000e-01    1.600000e+00
  TP1r SX1vh  1 3.660000e-01    1.600000e+00
  TP1h SC6er  1 3.650000e-01    1.910000e+00
  TP1r SC6eh  1 3.650000e-01    1.910000e+00
  TP1h SC5er  1 3.650000e-01    1.750000e+00
  TP1r SC5eh  1 3.650000e-01    1.750000e+00
  TP1h SC4er  1 3.660000e-01    1.600000e+00
  TP1r SC4eh  1 3.660000e-01    1.600000e+00
  TP1h SC3er  1 3.780000e-01    1.450000e+00
  TP1r SC3eh  1 3.780000e-01    1.450000e+00
  TP1h SC2er  1 3.780000e-01    1.450000e+00
  TP1r SC2eh  1 3.780000e-01    1.450000e+00
  TP1h SC1er  1 3.940000e-01    1.290000e+00
  TP1r SC1eh  1 3.940000e-01    1.290000e+00
  TP1h SX4er  1 3.650000e-01    1.910000e+00
  TP1r SX4eh  1 3.650000e-01    1.910000e+00
  TP1h SX3er  1 3.650000e-01    1.910000e+00
  TP1r SX3eh  1 3.650000e-01    1.910000e+00
  TP1h SX2er  1 3.650000e-01    1.750000e+00
  TP1r SX2eh  1 3.650000e-01    1.750000e+00
  TP1h SX1er  1 3.660000e-01    1.600000e+00
  TP1r SX1eh  1 3.660000e-01    1.600000e+00
  TN6h SC6vr  1 3.650000e-01    2.110000e+00
  TN6r SC6vh  1 3.650000e-01    2.110000e+00
  TN6h SC5vr  1 3.650000e-01    1.910000e+00
  TN6r SC5vh  1 3.650000e-01    1.910000e+00
  TN6h SC4vr  1 3.650000e-01    1.750000e+00
  TN6r SC4vh  1 3.650000e-01    1.750000e+00
  TN6h SC3vr  1 3.660000e-01    1.600000e+00
  TN6r SC3vh  1 3.660000e-01    1.600000e+00
  TN6h SC2vr  1 3.660000e-01    1.600000e+00
  TN6r SC2vh  1 3.660000e-01    1.600000e+00
  TN6h SC1vr  1 3.780000e-01    1.450000e+00
  TN6r SC1vh  1 3.780000e-01    1.450000e+00
  TN6h SX4vr  1 3.650000e-01    2.110000e+00
  TN6r SX4vh  1 3.650000e-01    2.110000e+00
  TN6h SX3vr  1 3.650000e-01    1.910000e+00
  TN6r SX3vh  1 3.650000e-01    1.910000e+00
  TN6h SX2vr  1 3.650000e-01    1.750000e+00
  TN6r SX2vh  1 3.650000e-01    1.750000e+00
  TN6h SX1vr  1 3.660000e-01    1.600000e+00
  TN6r SX1vh  1 3.660000e-01    1.600000e+00
  TN6h SC6er  1 3.650000e-01    2.110000e+00
  TN6r SC6eh  1 3.650000e-01    2.110000e+00
  TN6h SC5er  1 3.650000e-01    1.910000e+00
  TN6r SC5eh  1 3.650000e-01    1.910000e+00
  TN6h SC4er  1 3.650000e-01    1.750000e+00
  TN6r SC4eh  1 3.650000e-01    1.750000e+00
  TN6h SC3er  1 3.660000e-01    1.600000e+00
  TN6r SC3eh  1 3.660000e-01    1.600000e+00
  TN6h SC2er  1 3.660000e-01    1.600000e+00
  TN6r SC2eh  1 3.660000e-01    1.600000e+00
  TN6h SC1er  1 3.780000e-01    1.450000e+00
  TN6r SC1eh  1 3.780000e-01    1.450000e+00
  TN6h SX4er  1 3.650000e-01    2.110000e+00
  TN6r SX4eh  1 3.650000e-01    2.110000e+00
  TN6h SX3er  1 3.650000e-01    1.910000e+00
  TN6r SX3eh  1 3.650000e-01    1.910000e+00
  TN6h SX2er  1 3.650000e-01    1.750000e+00
  TN6r SX2eh  1 3.650000e-01    1.750000e+00
  TN6h SX1er  1 3.660000e-01    1.600000e+00
  TN6r SX1eh  1 3.660000e-01    1.600000e+00
  TN5h SC6vr  1 3.650000e-01    2.110000e+00
  TN5r SC6vh  1 3.650000e-01    2.110000e+00
  TN5h SC5vr  1 3.650000e-01    1.910000e+00
  TN5r SC5vh  1 3.650000e-01    1.910000e+00
  TN5h SC4vr  1 3.650000e-01    1.750000e+00
  TN5r SC4vh  1 3.650000e-01    1.750000e+00
  TN5h SC3vr  1 3.650000e-01    1.750000e+00
  TN5r SC3vh  1 3.650000e-01    1.750000e+00
  TN5h SC2vr  1 3.660000e-01    1.600000e+00
  TN5r SC2vh  1 3.660000e-01    1.600000e+00
  TN5h SC1vr  1 3.780000e-01    1.450000e+00
  TN5r SC1vh  1 3.780000e-01    1.450000e+00
  TN5h SX4vr  1 3.650000e-01    2.340000e+00
  TN5r SX4vh  1 3.650000e-01    2.340000e+00
  TN5h SX3vr  1 3.650000e-01    2.110000e+00
  TN5r SX3vh  1 3.650000e-01    2.110000e+00
  TN5h SX2vr  1 3.650000e-01    1.910000e+00
  TN5r SX2vh  1 3.650000e-01    1.910000e+00
  TN5h SX1vr  1 3.650000e-01    1.750000e+00
  TN5r SX1vh  1 3.650000e-01    1.750000e+00
  TN5h SC6er  1 3.650000e-01    2.110000e+00
  TN5r SC6eh  1 3.650000e-01    2.110000e+00
  TN5h SC5er  1 3.650000e-01    1.910000e+00
  TN5r SC5eh  1 3.650000e-01    1.910000e+00
  TN5h SC4er  1 3.650000e-01    1.750000e+00
  TN5r SC4eh  1 3.650000e-01    1.750000e+00
  TN5h SC3er  1 3.650000e-01    1.750000e+00
  TN5r SC3eh  1 3.650000e-01    1.750000e+00
  TN5h SC2er  1 3.660000e-01    1.600000e+00
  TN5r SC2eh  1 3.660000e-01    1.600000e+00
  TN5h SC1er  1 3.780000e-01    1.450000e+00
  TN5r SC1eh  1 3.780000e-01    1.450000e+00
  TN5h SX4er  1 3.650000e-01    2.340000e+00
  TN5r SX4eh  1 3.650000e-01    2.340000e+00
  TN5h SX3er  1 3.650000e-01    2.110000e+00
  TN5r SX3eh  1 3.650000e-01    2.110000e+00
  TN5h SX2er  1 3.650000e-01    1.910000e+00
  TN5r SX2eh  1 3.650000e-01    1.910000e+00
  TN5h SX1er  1 3.650000e-01    1.750000e+00
  TN5r SX1eh  1 3.650000e-01    1.750000e+00
  TN4h SC6vr  1 3.650000e-01    2.110000e+00
  TN4r SC6vh  1 3.650000e-01    2.110000e+00
  TN4h SC5vr  1 3.650000e-01    1.910000e+00
  TN4r SC5vh  1 3.650000e-01    1.910000e+00
  TN4h SC4vr  1 3.650000e-01    1.910000e+00
  TN4r SC4vh  1 3.650000e-01    1.910000e+00
  TN4h SC3vr  1 3.650000e-01    1.750000e+00
  TN4r SC3vh  1 3.650000e-01    1.750000e+00
  TN4h SC2vr  1 3.660000e-01    1.600000e+00
  TN4r SC2vh  1 3.660000e-01    1.600000e+00
  TN4h SC1vr  1 3.780000e-01    1.450000e+00
  TN4r SC1vh  1 3.780000e-01    1.450000e+00
  TN4h SX4vr  1 3.650000e-01    2.570000e+00
  TN4r SX4vh  1 3.650000e-01    2.570000e+00
  TN4h SX3vr  1 3.650000e-01    2.340000e+00
  TN4r SX3vh  1 3.650000e-01    2.340000e+00
  TN4h SX2vr  1 3.650000e-01    1.910000e+00
  TN4r SX2vh  1 3.650000e-01    1.910000e+00
  TN4h SX1vr  1 3.650000e-01    1.750000e+00
  TN4r SX1vh  1 3.650000e-01    1.750000e+00
  TN4h SC6er  1 3.650000e-01    2.110000e+00
  TN4r SC6eh  1 3.650000e-01    2.110000e+00
  TN4h SC5er  1 3.650000e-01    1.910000e+00
  TN4r SC5eh  1 3.650000e-01    1.910000e+00
  TN4h SC4er  1 3.650000e-01    1.910000e+00
  TN4r SC4eh  1 3.650000e-01    1.910000e+00
  TN4h SC3er  1 3.650000e-01    1.750000e+00
  TN4r SC3eh  1 3.650000e-01    1.750000e+00
  TN4h SC2er  1 3.660000e-01    1.600000e+00
  TN4r SC2eh  1 3.660000e-01    1.600000e+00
  TN4h SC1er  1 3.780000e-01    1.450000e+00
  TN4r SC1eh  1 3.780000e-01    1.450000e+00
  TN4h SX4er  1 3.650000e-01    2.570000e+00
  TN4r SX4eh  1 3.650000e-01    2.570000e+00
  TN4h SX3er  1 3.650000e-01    2.340000e+00
  TN4r SX3eh  1 3.650000e-01    2.340000e+00
  TN4h SX2er  1 3.650000e-01    1.910000e+00
  TN4r SX2eh  1 3.650000e-01    1.910000e+00
  TN4h SX1er  1 3.650000e-01    1.750000e+00
  TN4r SX1eh  1 3.650000e-01    1.750000e+00
  TN3h SC6vr  1 3.650000e-01    2.110000e+00
  TN3r SC6vh  1 3.650000e-01    2.110000e+00
  TN3h SC5vr  1 3.650000e-01    1.910000e+00
  TN3r SC5vh  1 3.650000e-01    1.910000e+00
  TN3h SC4vr  1 3.650000e-01    1.910000e+00
  TN3r SC4vh  1 3.650000e-01    1.910000e+00
  TN3h SC3vr  1 3.650000e-01    1.750000e+00
  TN3r SC3vh  1 3.650000e-01    1.750000e+00
  TN3h SC2vr  1 3.650000e-01    1.750000e+00
  TN3r SC2vh  1 3.650000e-01    1.750000e+00
  TN3h SC1vr  1 3.660000e-01    1.600000e+00
  TN3r SC1vh  1 3.660000e-01    1.600000e+00
  TN3h SX4vr  1 3.650000e-01    2.340000e+00
  TN3r SX4vh  1 3.650000e-01    2.340000e+00
  TN3h SX3vr  1 3.650000e-01    2.110000e+00
  TN3r SX3vh  1 3.650000e-01    2.110000e+00
  TN3h SX2vr  1 3.650000e-01    1.910000e+00
  TN3r SX2vh  1 3.650000e-01    1.910000e+00
  TN3h SX1vr  1 3.650000e-01    1.910000e+00
  TN3r SX1vh  1 3.650000e-01    1.910000e+00
  TN3h SC6er  1 3.650000e-01    2.110000e+00
  TN3r SC6eh  1 3.650000e-01    2.110000e+00
  TN3h SC5er  1 3.650000e-01    1.910000e+00
  TN3r SC5eh  1 3.650000e-01    1.910000e+00
  TN3h SC4er  1 3.650000e-01    1.910000e+00
  TN3r SC4eh  1 3.650000e-01    1.910000e+00
  TN3h SC3er  1 3.650000e-01    1.750000e+00
  TN3r SC3eh  1 3.650000e-01    1.750000e+00
  TN3h SC2er  1 3.650000e-01    1.750000e+00
  TN3r SC2eh  1 3.650000e-01    1.750000e+00
  TN3h SC1er  1 3.660000e-01    1.600000e+00
  TN3r SC1eh  1 3.660000e-01    1.600000e+00
  TN3h SX4er  1 3.650000e-01    2.340000e+00
  TN3r SX4eh  1 3.650000e-01    2.340000e+00
  TN3h SX3er  1 3.650000e-01    2.110000e+00
  TN3r SX3eh  1 3.650000e-01    2.110000e+00
  TN3h SX2er  1 3.650000e-01    1.910000e+00
  TN3r SX2eh  1 3.650000e-01    1.910000e+00
  TN3h SX1er  1 3.650000e-01    1.910000e+00
  TN3r SX1eh  1 3.650000e-01    1.910000e+00
  TN2h SC6vr  1 3.650000e-01    2.110000e+00
  TN2r SC6vh  1 3.650000e-01    2.110000e+00
  TN2h SC5vr  1 3.650000e-01    1.910000e+00
  TN2r SC5vh  1 3.650000e-01    1.910000e+00
  TN2h SC4vr  1 3.650000e-01    1.910000e+00
  TN2r SC4vh  1 3.650000e-01    1.910000e+00
  TN2h SC3vr  1 3.650000e-01    1.910000e+00
  TN2r SC3vh  1 3.650000e-01    1.910000e+00
  TN2h SC2vr  1 3.650000e-01    1.750000e+00
  TN2r SC2vh  1 3.650000e-01    1.750000e+00
  TN2h SC1vr  1 3.660000e-01    1.600000e+00
  TN2r SC1vh  1 3.660000e-01    1.600000e+00
  TN2h SX4vr  1 3.650000e-01    2.340000e+00
  TN2r SX4vh  1 3.650000e-01    2.340000e+00
  TN2h SX3vr  1 3.650000e-01    2.110000e+00
  TN2r SX3vh  1 3.650000e-01    2.110000e+00
  TN2h SX2vr  1 3.650000e-01    1.910000e+00
  TN2r SX2vh  1 3.650000e-01    1.910000e+00
  TN2h SX1vr  1 3.650000e-01    1.910000e+00
  TN2r SX1vh  1 3.650000e-01    1.910000e+00
  TN2h SC6er  1 3.650000e-01    2.110000e+00
  TN2r SC6eh  1 3.650000e-01    2.110000e+00
  TN2h SC5er  1 3.650000e-01    1.910000e+00
  TN2r SC5eh  1 3.650000e-01    1.910000e+00
  TN2h SC4er  1 3.650000e-01    1.910000e+00
  TN2r SC4eh  1 3.650000e-01    1.910000e+00
  TN2h SC3er  1 3.650000e-01    1.910000e+00
  TN2r SC3eh  1 3.650000e-01    1.910000e+00
  TN2h SC2er  1 3.650000e-01    1.750000e+00
  TN2r SC2eh  1 3.650000e-01    1.750000e+00
  TN2h SC1er  1 3.660000e-01    1.600000e+00
  TN2r SC1eh  1 3.660000e-01    1.600000e+00
  TN2h SX4er  1 3.650000e-01    2.340000e+00
  TN2r SX4eh  1 3.650000e-01    2.340000e+00
  TN2h SX3er  1 3.650000e-01    2.110000e+00
  TN2r SX3eh  1 3.650000e-01    2.110000e+00
  TN2h SX2er  1 3.650000e-01    1.910000e+00
  TN2r SX2eh  1 3.650000e-01    1.910000e+00
  TN2h SX1er  1 3.650000e-01    1.910000e+00
  TN2r SX1eh  1 3.650000e-01    1.910000e+00
  TN1h SC6vr  1 3.650000e-01    2.340000e+00
  TN1r SC6vh  1 3.650000e-01    2.340000e+00
  TN1h SC5vr  1 3.650000e-01    2.110000e+00
  TN1r SC5vh  1 3.650000e-01    2.110000e+00
  TN1h SC4vr  1 3.650000e-01    2.110000e+00
  TN1r SC4vh  1 3.650000e-01    2.110000e+00
  TN1h SC3vr  1 3.650000e-01    1.910000e+00
  TN1r SC3vh  1 3.650000e-01    1.910000e+00
  TN1h SC2vr  1 3.650000e-01    1.750000e+00
  TN1r SC2vh  1 3.650000e-01    1.750000e+00
  TN1h SC1vr  1 3.660000e-01    1.600000e+00
  TN1r SC1vh  1 3.660000e-01    1.600000e+00
  TN1h SX4vr  1 3.650000e-01    2.110000e+00
  TN1r SX4vh  1 3.650000e-01    2.110000e+00
  TN1h SX3vr  1 3.650000e-01    2.110000e+00
  TN1r SX3vh  1 3.650000e-01    2.110000e+00
  TN1h SX2vr  1 3.650000e-01    1.910000e+00
  TN1r SX2vh  1 3.650000e-01    1.910000e+00
  TN1h SX1vr  1 3.650000e-01    1.910000e+00
  TN1r SX1vh  1 3.650000e-01    1.910000e+00
  TN1h SC6er  1 3.650000e-01    2.340000e+00
  TN1r SC6eh  1 3.650000e-01    2.340000e+00
  TN1h SC5er  1 3.650000e-01    2.110000e+00
  TN1r SC5eh  1 3.650000e-01    2.110000e+00
  TN1h SC4er  1 3.650000e-01    2.110000e+00
  TN1r SC4eh  1 3.650000e-01    2.110000e+00
  TN1h SC3er  1 3.650000e-01    1.910000e+00
  TN1r SC3eh  1 3.650000e-01    1.910000e+00
  TN1h SC2er  1 3.650000e-01    1.750000e+00
  TN1r SC2eh  1 3.650000e-01    1.750000e+00
  TN1h SC1er  1 3.660000e-01    1.600000e+00
  TN1r SC1eh  1 3.660000e-01    1.600000e+00
  TN1h SX4er  1 3.650000e-01    2.110000e+00
  TN1r SX4eh  1 3.650000e-01    2.110000e+00
  TN1h SX3er  1 3.650000e-01    2.110000e+00
  TN1r SX3eh  1 3.650000e-01    2.110000e+00
  TN1h SX2er  1 3.650000e-01    1.910000e+00
  TN1r SX2eh  1 3.650000e-01    1.910000e+00
  TN1h SX1er  1 3.650000e-01    1.910000e+00
  TN1r SX1eh  1 3.650000e-01    1.910000e+00
  TP6a  SP5a  1 3.650000e-01    3.370000e+00
  TP6a  SP4a  1 3.650000e-01    3.100000e+00
  TP6a  SP3a  1 3.650000e-01    2.830000e+00
  TP6a  SP2a  1 3.650000e-01    2.830000e+00
  TP6a  SP1a  1 3.650000e-01    2.570000e+00
  TP6a  SN6a  1 3.650000e-01    2.340000e+00
  TP6a  SN5a  1 3.650000e-01    1.910000e+00
  TP6a  SN4a  1 3.650000e-01    1.750000e+00
  TP6a  SN3a  1 3.650000e-01    1.750000e+00
  TP6a  SN2a  1 3.660000e-01    1.600000e+00
  TP6a  SN1a  1 3.780000e-01    1.450000e+00
  TP5a  SP4a  1 3.650000e-01    2.830000e+00
  TP5a  SP3a  1 3.650000e-01    2.570000e+00
  TP5a  SP2a  1 3.650000e-01    2.570000e+00
  TP5a  SP1a  1 3.650000e-01    2.340000e+00
  TP5a  SN6a  1 3.650000e-01    2.110000e+00
  TP5a  SN5a  1 3.650000e-01    1.910000e+00
  TP5a  SN4a  1 3.650000e-01    1.910000e+00
  TP5a  SN3a  1 3.650000e-01    1.750000e+00
  TP5a  SN2a  1 3.660000e-01    1.600000e+00
  TP5a  SN1a  1 3.780000e-01    1.450000e+00
  TP4a  SP3a  1 3.650000e-01    2.570000e+00
  TP4a  SP2a  1 3.650000e-01    2.570000e+00
  TP4a  SP1a  1 3.650000e-01    2.340000e+00
  TP4a  SN6a  1 3.650000e-01    2.110000e+00
  TP4a  SN5a  1 3.650000e-01    1.910000e+00
  TP4a  SN4a  1 3.650000e-01    1.910000e+00
  TP4a  SN3a  1 3.650000e-01    1.750000e+00
  TP4a  SN2a  1 3.650000e-01    1.750000e+00
  TP4a  SN1a  1 3.660000e-01    1.600000e+00
  TP3a  SP2a  1 3.650000e-01    2.570000e+00
  TP3a  SP1a  1 3.650000e-01    2.340000e+00
  TP3a  SN6a  1 3.650000e-01    2.110000e+00
  TP3a  SN5a  1 3.650000e-01    1.910000e+00
  TP3a  SN4a  1 3.650000e-01    1.910000e+00
  TP3a  SN3a  1 3.650000e-01    1.750000e+00
  TP3a  SN2a  1 3.650000e-01    1.750000e+00
  TP3a  SN1a  1 3.650000e-01    1.750000e+00
  TP2a  SP1a  1 3.650000e-01    2.340000e+00
  TP2a  SN6a  1 3.650000e-01    2.340000e+00
  TP2a  SN5a  1 3.650000e-01    2.110000e+00
  TP2a  SN4a  1 3.650000e-01    1.910000e+00
  TP2a  SN3a  1 3.650000e-01    1.750000e+00
  TP2a  SN2a  1 3.650000e-01    1.750000e+00
  TP2a  SN1a  1 3.650000e-01    1.750000e+00
  TP1a  SN6a  1 3.650000e-01    2.340000e+00
  TP1a  SN5a  1 3.650000e-01    2.110000e+00
  TP1a  SN4a  1 3.650000e-01    2.110000e+00
  TP1a  SN3a  1 3.650000e-01    1.750000e+00
  TP1a  SN2a  1 3.650000e-01    1.750000e+00
  TP1a  SN1a  1 3.650000e-01    1.750000e+00
  TN6a  SN5a  1 3.650000e-01    2.340000e+00
  TN6a  SN4a  1 3.650000e-01    2.340000e+00
  TN6a  SN3a  1 3.650000e-01    1.910000e+00
  TN6a  SN2a  1 3.650000e-01    1.750000e+00
  TN6a  SN1a  1 3.650000e-01    1.750000e+00
  TN5a  SN4a  1 3.650000e-01    2.110000e+00
  TN5a  SN3a  1 3.650000e-01    1.910000e+00
  TN5a  SN2a  1 3.650000e-01    1.910000e+00
  TN5a  SN1a  1 3.650000e-01    1.750000e+00
  TN4a  SN3a  1 3.650000e-01    1.910000e+00
  TN4a  SN2a  1 3.650000e-01    1.910000e+00
  TN4a  SN1a  1 3.650000e-01    1.750000e+00
  TN3a  SN2a  1 3.650000e-01    1.910000e+00
  TN3a  SN1a  1 3.650000e-01    1.750000e+00
  TN2a  SN1a  1 3.650000e-01    1.750000e+00
  TP6d  SP5d  1 3.650000e-01    3.370000e+00
  TP6d  SP4d  1 3.650000e-01    3.100000e+00
  TP6d  SP3d  1 3.650000e-01    2.830000e+00
  TP6d  SP2d  1 3.650000e-01    2.830000e+00
  TP6d  SP1d  1 3.650000e-01    2.570000e+00
  TP6d  SN6d  1 3.650000e-01    2.340000e+00
  TP6d  SN5d  1 3.650000e-01    1.910000e+00
  TP6d  SN4d  1 3.650000e-01    1.750000e+00
  TP6d  SN3d  1 3.650000e-01    1.750000e+00
  TP6d  SN2d  1 3.660000e-01    1.600000e+00
  TP6d  SN1d  1 3.780000e-01    1.450000e+00
  TP5d  SP4d  1 3.650000e-01    2.830000e+00
  TP5d  SP3d  1 3.650000e-01    2.570000e+00
  TP5d  SP2d  1 3.650000e-01    2.570000e+00
  TP5d  SP1d  1 3.650000e-01    2.340000e+00
  TP5d  SN6d  1 3.650000e-01    2.110000e+00
  TP5d  SN5d  1 3.650000e-01    1.910000e+00
  TP5d  SN4d  1 3.650000e-01    1.910000e+00
  TP5d  SN3d  1 3.650000e-01    1.750000e+00
  TP5d  SN2d  1 3.660000e-01    1.600000e+00
  TP5d  SN1d  1 3.780000e-01    1.450000e+00
  TP4d  SP3d  1 3.650000e-01    2.570000e+00
  TP4d  SP2d  1 3.650000e-01    2.570000e+00
  TP4d  SP1d  1 3.650000e-01    2.340000e+00
  TP4d  SN6d  1 3.650000e-01    2.110000e+00
  TP4d  SN5d  1 3.650000e-01    1.910000e+00
  TP4d  SN4d  1 3.650000e-01    1.910000e+00
  TP4d  SN3d  1 3.650000e-01    1.750000e+00
  TP4d  SN2d  1 3.650000e-01    1.750000e+00
  TP4d  SN1d  1 3.660000e-01    1.600000e+00
  TP3d  SP2d  1 3.650000e-01    2.570000e+00
  TP3d  SP1d  1 3.650000e-01    2.340000e+00
  TP3d  SN6d  1 3.650000e-01    2.110000e+00
  TP3d  SN5d  1 3.650000e-01    1.910000e+00
  TP3d  SN4d  1 3.650000e-01    1.910000e+00
  TP3d  SN3d  1 3.650000e-01    1.750000e+00
  TP3d  SN2d  1 3.650000e-01    1.750000e+00
  TP3d  SN1d  1 3.650000e-01    1.750000e+00
  TP2d  SP1d  1 3.650000e-01    2.340000e+00
  TP2d  SN6d  1 3.650000e-01    2.340000e+00
  TP2d  SN5d  1 3.650000e-01    2.110000e+00
  TP2d  SN4d  1 3.650000e-01    1.910000e+00
  TP2d  SN3d  1 3.650000e-01    1.750000e+00
  TP2d  SN2d  1 3.650000e-01    1.750000e+00
  TP2d  SN1d  1 3.650000e-01    1.750000e+00
  TP1d  SN6d  1 3.650000e-01    2.340000e+00
  TP1d  SN5d  1 3.650000e-01    2.110000e+00
  TP1d  SN4d  1 3.650000e-01    2.110000e+00
  TP1d  SN3d  1 3.650000e-01    1.750000e+00
  TP1d  SN2d  1 3.650000e-01    1.750000e+00
  TP1d  SN1d  1 3.650000e-01    1.750000e+00
  TN6d  SN5d  1 3.650000e-01    2.340000e+00
  TN6d  SN4d  1 3.650000e-01    2.340000e+00
  TN6d  SN3d  1 3.650000e-01    1.910000e+00
  TN6d  SN2d  1 3.650000e-01    1.750000e+00
  TN6d  SN1d  1 3.650000e-01    1.750000e+00
  TN5d  SN4d  1 3.650000e-01    2.110000e+00
  TN5d  SN3d  1 3.650000e-01    1.910000e+00
  TN5d  SN2d  1 3.650000e-01    1.910000e+00
  TN5d  SN1d  1 3.650000e-01    1.750000e+00
  TN4d  SN3d  1 3.650000e-01    1.910000e+00
  TN4d  SN2d  1 3.650000e-01    1.910000e+00
  TN4d  SN1d  1 3.650000e-01    1.750000e+00
  TN3d  SN2d  1 3.650000e-01    1.910000e+00
  TN3d  SN1d  1 3.650000e-01    1.750000e+00
  TN2d  SN1d  1 3.650000e-01    1.750000e+00
  TP6d  SP6a  1 3.650000e-01    4.220000e+00
  TP6d  SP5a  1 3.650000e-01    3.930000e+00
  TP6a  SP5d  1 3.650000e-01    3.930000e+00
  TP6d  SP4a  1 3.650000e-01    3.640000e+00
  TP6a  SP4d  1 3.650000e-01    3.640000e+00
  TP6d  SP3a  1 3.650000e-01    3.370000e+00
  TP6a  SP3d  1 3.650000e-01    3.370000e+00
  TP6d  SP2a  1 3.650000e-01    3.370000e+00
  TP6a  SP2d  1 3.650000e-01    3.370000e+00
  TP6d  SP1a  1 3.650000e-01    3.100000e+00
  TP6a  SP1d  1 3.650000e-01    3.100000e+00
  TP6d  SN6a  1 3.650000e-01    2.830000e+00
  TP6a  SN6d  1 3.650000e-01    2.830000e+00
  TP6d  SN5a  1 3.650000e-01    2.340000e+00
  TP6a  SN5d  1 3.650000e-01    2.340000e+00
  TP6d  SN4a  1 3.650000e-01    2.110000e+00
  TP6a  SN4d  1 3.650000e-01    2.110000e+00
  TP6d  SN3a  1 3.650000e-01    1.750000e+00
  TP6a  SN3d  1 3.650000e-01    1.750000e+00
  TP6d  SN2a  1 3.660000e-01    1.600000e+00
  TP6a  SN2d  1 3.660000e-01    1.600000e+00
  TP6d  SN1a  1 3.780000e-01    1.450000e+00
  TP6a  SN1d  1 3.780000e-01    1.450000e+00
  TP5d  SP5a  1 3.650000e-01    3.640000e+00
  TP5d  SP4a  1 3.650000e-01    3.370000e+00
  TP5a  SP4d  1 3.650000e-01    3.370000e+00
  TP5d  SP3a  1 3.650000e-01    3.100000e+00
  TP5a  SP3d  1 3.650000e-01    3.100000e+00
  TP5d  SP2a  1 3.650000e-01    3.100000e+00
  TP5a  SP2d  1 3.650000e-01    3.100000e+00
  TP5d  SP1a  1 3.650000e-01    2.830000e+00
  TP5a  SP1d  1 3.650000e-01    2.830000e+00
  TP5d  SN6a  1 3.650000e-01    2.570000e+00
  TP5a  SN6d  1 3.650000e-01    2.570000e+00
  TP5d  SN5a  1 3.650000e-01    2.340000e+00
  TP5a  SN5d  1 3.650000e-01    2.340000e+00
  TP5d  SN4a  1 3.650000e-01    2.340000e+00
  TP5a  SN4d  1 3.650000e-01    2.340000e+00
  TP5d  SN3a  1 3.650000e-01    1.750000e+00
  TP5a  SN3d  1 3.650000e-01    1.750000e+00
  TP5d  SN2a  1 3.660000e-01    1.600000e+00
  TP5a  SN2d  1 3.660000e-01    1.600000e+00
  TP5d  SN1a  1 3.780000e-01    1.450000e+00
  TP5a  SN1d  1 3.780000e-01    1.450000e+00
  TP4d  SP4a  1 3.650000e-01    3.370000e+00
  TP4d  SP3a  1 3.650000e-01    3.100000e+00
  TP4a  SP3d  1 3.650000e-01    3.100000e+00
  TP4d  SP2a  1 3.650000e-01    3.100000e+00
  TP4a  SP2d  1 3.650000e-01    3.100000e+00
  TP4d  SP1a  1 3.650000e-01    2.830000e+00
  TP4a  SP1d  1 3.650000e-01    2.830000e+00
  TP4d  SN6a  1 3.650000e-01    2.570000e+00
  TP4a  SN6d  1 3.650000e-01    2.570000e+00
  TP4d  SN5a  1 3.650000e-01    2.340000e+00
  TP4a  SN5d  1 3.650000e-01    2.340000e+00
  TP4d  SN4a  1 3.650000e-01    2.340000e+00
  TP4a  SN4d  1 3.650000e-01    2.340000e+00
  TP4d  SN3a  1 3.650000e-01    2.110000e+00
  TP4a  SN3d  1 3.650000e-01    2.110000e+00
  TP4d  SN2a  1 3.650000e-01    1.750000e+00
  TP4a  SN2d  1 3.650000e-01    1.750000e+00
  TP4d  SN1a  1 3.660000e-01    1.600000e+00
  TP4a  SN1d  1 3.660000e-01    1.600000e+00
  TP3d  SP3a  1 3.650000e-01    3.100000e+00
  TP3d  SP2a  1 3.650000e-01    3.100000e+00
  TP3a  SP2d  1 3.650000e-01    3.100000e+00
  TP3d  SP1a  1 3.650000e-01    2.830000e+00
  TP3a  SP1d  1 3.650000e-01    2.830000e+00
  TP3d  SN6a  1 3.650000e-01    2.570000e+00
  TP3a  SN6d  1 3.650000e-01    2.570000e+00
  TP3d  SN5a  1 3.650000e-01    2.340000e+00
  TP3a  SN5d  1 3.650000e-01    2.340000e+00
  TP3d  SN4a  1 3.650000e-01    2.340000e+00
  TP3a  SN4d  1 3.650000e-01    2.340000e+00
  TP3d  SN3a  1 3.650000e-01    2.110000e+00
  TP3a  SN3d  1 3.650000e-01    2.110000e+00
  TP3d  SN2a  1 3.650000e-01    2.110000e+00
  TP3a  SN2d  1 3.650000e-01    2.110000e+00
  TP3d  SN1a  1 3.650000e-01    1.750000e+00
  TP3a  SN1d  1 3.650000e-01    1.750000e+00
  TP2d  SP2a  1 3.650000e-01    3.100000e+00
  TP2d  SP1a  1 3.650000e-01    2.830000e+00
  TP2a  SP1d  1 3.650000e-01    2.830000e+00
  TP2d  SN6a  1 3.650000e-01    2.830000e+00
  TP2a  SN6d  1 3.650000e-01    2.830000e+00
  TP2d  SN5a  1 3.650000e-01    2.570000e+00
  TP2a  SN5d  1 3.650000e-01    2.570000e+00
  TP2d  SN4a  1 3.650000e-01    2.340000e+00
  TP2a  SN4d  1 3.650000e-01    2.340000e+00
  TP2d  SN3a  1 3.650000e-01    2.110000e+00
  TP2a  SN3d  1 3.650000e-01    2.110000e+00
  TP2d  SN2a  1 3.650000e-01    2.110000e+00
  TP2a  SN2d  1 3.650000e-01    2.110000e+00
  TP2d  SN1a  1 3.650000e-01    2.110000e+00
  TP2a  SN1d  1 3.650000e-01    2.110000e+00
  TP1d  SP1a  1 3.650000e-01    2.830000e+00
  TP1d  SN6a  1 3.650000e-01    2.830000e+00
  TP1a  SN6d  1 3.650000e-01    2.830000e+00
  TP1d  SN5a  1 3.650000e-01    2.570000e+00
  TP1a  SN5d  1 3.650000e-01    2.570000e+00
  TP1d  SN4a  1 3.650000e-01    2.570000e+00
  TP1a  SN4d  1 3.650000e-01    2.570000e+00
  TP1d  SN3a  1 3.650000e-01    2.110000e+00
  TP1a  SN3d  1 3.650000e-01    2.110000e+00
  TP1d  SN2a  1 3.650000e-01    2.110000e+00
  TP1a  SN2d  1 3.650000e-01    2.110000e+00
  TP1d  SN1a  1 3.650000e-01    2.110000e+00
  TP1a  SN1d  1 3.650000e-01    2.110000e+00
  TN6d  SN6a  1 3.650000e-01    2.830000e+00
  TN6d  SN5a  1 3.650000e-01    2.830000e+00
  TN6a  SN5d  1 3.650000e-01    2.830000e+00
  TN6d  SN4a  1 3.650000e-01    2.830000e+00
  TN6a  SN4d  1 3.650000e-01    2.830000e+00
  TN6d  SN3a  1 3.650000e-01    2.340000e+00
  TN6a  SN3d  1 3.650000e-01    2.340000e+00
  TN6d  SN2a  1 3.650000e-01    2.110000e+00
  TN6a  SN2d  1 3.650000e-01    2.110000e+00
  TN6d  SN1a  1 3.650000e-01    2.110000e+00
  TN6a  SN1d  1 3.650000e-01    2.110000e+00
  TN5d  SN5a  1 3.650000e-01    2.570000e+00
  TN5d  SN4a  1 3.650000e-01    2.570000e+00
  TN5a  SN4d  1 3.650000e-01    2.570000e+00
  TN5d  SN3a  1 3.650000e-01    2.340000e+00
  TN5a  SN3d  1 3.650000e-01    2.340000e+00
  TN5d  SN2a  1 3.650000e-01    2.340000e+00
  TN5a  SN2d  1 3.650000e-01    2.340000e+00
  TN5d  SN1a  1 3.650000e-01    2.110000e+00
  TN5a  SN1d  1 3.650000e-01    2.110000e+00
  TN4d  SN4a  1 3.650000e-01    2.570000e+00
  TN4d  SN3a  1 3.650000e-01    2.340000e+00
  TN4a  SN3d  1 3.650000e-01    2.340000e+00
  TN4d  SN2a  1 3.650000e-01    2.340000e+00
  TN4a  SN2d  1 3.650000e-01    2.340000e+00
  TN4d  SN1a  1 3.650000e-01    2.110000e+00
  TN4a  SN1d  1 3.650000e-01    2.110000e+00
  TN3d  SN3a  1 3.650000e-01    2.340000e+00
  TN3d  SN2a  1 3.650000e-01    2.340000e+00
  TN3a  SN2d  1 3.650000e-01    2.340000e+00
  TN3d  SN1a  1 3.650000e-01    2.110000e+00
  TN3a  SN1d  1 3.650000e-01    2.110000e+00
  TN2d  SN2a  1 3.650000e-01    2.340000e+00
  TN2d  SN1a  1 3.650000e-01    2.110000e+00
  TN2a  SN1d  1 3.650000e-01    2.110000e+00
  TN1d  SN1a  1 3.650000e-01    2.340000e+00
  TC6v  SC5v  1 3.650000e-01    1.750000e+00
  TC6v  SC4v  1 3.650000e-01    1.750000e+00
  TC6v  SC3v  1 3.660000e-01    1.600000e+00
  TC6v  SC2v  1 3.780000e-01    1.450000e+00
  TC6v  SC1v  1 3.940000e-01    1.290000e+00
  TC6v  SX4v  1 3.650000e-01    1.750000e+00
  TC6v  SX3v  1 3.650000e-01    1.750000e+00
  TC6v  SX2v  1 3.650000e-01    1.750000e+00
  TC6v  SX1v  1 3.650000e-01    1.750000e+00
  TC5v  SC4v  1 3.650000e-01    1.750000e+00
  TC5v  SC3v  1 3.660000e-01    1.600000e+00
  TC5v  SC2v  1 3.780000e-01    1.450000e+00
  TC5v  SC1v  1 3.780000e-01    1.450000e+00
  TC5v  SX4v  1 3.660000e-01    1.600000e+00
  TC5v  SX3v  1 3.660000e-01    1.600000e+00
  TC5v  SX2v  1 3.660000e-01    1.600000e+00
  TC5v  SX1v  1 3.650000e-01    1.750000e+00
  TC4v  SC3v  1 3.650000e-01    1.750000e+00
  TC4v  SC2v  1 3.660000e-01    1.600000e+00
  TC4v  SC1v  1 3.780000e-01    1.450000e+00
  TC4v  SX4v  1 3.660000e-01    1.600000e+00
  TC4v  SX3v  1 3.660000e-01    1.600000e+00
  TC4v  SX2v  1 3.660000e-01    1.600000e+00
  TC4v  SX1v  1 3.650000e-01    1.750000e+00
  TC3v  SC2v  1 3.650000e-01    1.750000e+00
  TC3v  SC1v  1 3.650000e-01    1.750000e+00
  TC3v  SX4v  1 3.660000e-01    1.600000e+00
  TC3v  SX3v  1 3.660000e-01    1.600000e+00
  TC3v  SX2v  1 3.660000e-01    1.600000e+00
  TC3v  SX1v  1 3.650000e-01    1.750000e+00
  TC2v  SC1v  1 3.650000e-01    1.910000e+00
  TC2v  SX4v  1 3.940000e-01    1.290000e+00
  TC2v  SX3v  1 3.660000e-01    1.600000e+00
  TC2v  SX2v  1 3.660000e-01    1.600000e+00
  TC2v  SX1v  1 3.660000e-01    1.600000e+00
  TC1v  SX4v  1 3.940000e-01    1.290000e+00
  TC1v  SX3v  1 3.660000e-01    1.600000e+00
  TC1v  SX2v  1 3.660000e-01    1.600000e+00
  TC1v  SX1v  1 3.660000e-01    1.600000e+00
  TX4v  SX3v  1 3.650000e-01    1.750000e+00
  TX4v  SX2v  1 3.650000e-01    1.750000e+00
  TX4v  SX1v  1 3.650000e-01    1.750000e+00
  TX3v  SX2v  1 3.650000e-01    1.910000e+00
  TX3v  SX1v  1 3.650000e-01    1.910000e+00
  TX2v  SX1v  1 3.650000e-01    1.910000e+00
  TC6e  SC5e  1 3.650000e-01    1.750000e+00
  TC6e  SC4e  1 3.650000e-01    1.750000e+00
  TC6e  SC3e  1 3.660000e-01    1.600000e+00
  TC6e  SC2e  1 3.780000e-01    1.450000e+00
  TC6e  SC1e  1 3.940000e-01    1.290000e+00
  TC6e  SX4e  1 3.650000e-01    1.750000e+00
  TC6e  SX3e  1 3.650000e-01    1.750000e+00
  TC6e  SX2e  1 3.650000e-01    1.750000e+00
  TC6e  SX1e  1 3.650000e-01    1.750000e+00
  TC5e  SC4e  1 3.650000e-01    1.750000e+00
  TC5e  SC3e  1 3.660000e-01    1.600000e+00
  TC5e  SC2e  1 3.780000e-01    1.450000e+00
  TC5e  SC1e  1 3.780000e-01    1.450000e+00
  TC5e  SX4e  1 3.660000e-01    1.600000e+00
  TC5e  SX3e  1 3.660000e-01    1.600000e+00
  TC5e  SX2e  1 3.660000e-01    1.600000e+00
  TC5e  SX1e  1 3.650000e-01    1.750000e+00
  TC4e  SC3e  1 3.650000e-01    1.750000e+00
  TC4e  SC2e  1 3.660000e-01    1.600000e+00
  TC4e  SC1e  1 3.780000e-01    1.450000e+00
  TC4e  SX4e  1 3.660000e-01    1.600000e+00
  TC4e  SX3e  1 3.660000e-01    1.600000e+00
  TC4e  SX2e  1 3.660000e-01    1.600000e+00
  TC4e  SX1e  1 3.650000e-01    1.750000e+00
  TC3e  SC2e  1 3.650000e-01    1.750000e+00
  TC3e  SC1e  1 3.650000e-01    1.750000e+00
  TC3e  SX4e  1 3.660000e-01    1.600000e+00
  TC3e  SX3e  1 3.660000e-01    1.600000e+00
  TC3e  SX2e  1 3.660000e-01    1.600000e+00
  TC3e  SX1e  1 3.650000e-01    1.750000e+00
  TC2e  SC1e  1 3.650000e-01    1.910000e+00
  TC2e  SX4e  1 3.940000e-01    1.290000e+00
  TC2e  SX3e  1 3.660000e-01    1.600000e+00
  TC2e  SX2e  1 3.660000e-01    1.600000e+00
  TC2e  SX1e  1 3.660000e-01    1.600000e+00
  TC1e  SX4e  1 3.940000e-01    1.290000e+00
  TC1e  SX3e  1 3.660000e-01    1.600000e+00
  TC1e  SX2e  1 3.660000e-01    1.600000e+00
  TC1e  SX1e  1 3.660000e-01    1.600000e+00
  TX4e  SX3e  1 3.650000e-01    1.750000e+00
  TX4e  SX2e  1 3.650000e-01    1.750000e+00
  TX4e  SX1e  1 3.650000e-01    1.750000e+00
  TX3e  SX2e  1 3.650000e-01    1.910000e+00
  TX3e  SX1e  1 3.650000e-01    1.910000e+00
  TX2e  SX1e  1 3.650000e-01    1.910000e+00
  TC6v  SC6e  1 3.650000e-01    2.570000e+00
  TC6v  SC5e  1 3.650000e-01    2.340000e+00
  TC6e  SC5v  1 3.650000e-01    2.340000e+00
  TC6v  SC4e  1 3.650000e-01    2.340000e+00
  TC6e  SC4v  1 3.650000e-01    2.340000e+00
  TC6v  SC3e  1 3.650000e-01    2.110000e+00
  TC6e  SC3v  1 3.650000e-01    2.110000e+00
  TC6v  SC2e  1 3.650000e-01    1.910000e+00
  TC6e  SC2v  1 3.650000e-01    1.910000e+00
  TC6v  SC1e  1 3.650000e-01    1.750000e+00
  TC6e  SC1v  1 3.650000e-01    1.750000e+00
  TC6v  SX4e  1 3.650000e-01    2.340000e+00
  TC6e  SX4v  1 3.650000e-01    2.340000e+00
  TC6v  SX3e  1 3.650000e-01    2.340000e+00
  TC6e  SX3v  1 3.650000e-01    2.340000e+00
  TC6v  SX2e  1 3.650000e-01    2.340000e+00
  TC6e  SX2v  1 3.650000e-01    2.340000e+00
  TC6v  SX1e  1 3.650000e-01    2.340000e+00
  TC6e  SX1v  1 3.650000e-01    2.340000e+00
  TC5v  SC5e  1 3.650000e-01    2.340000e+00
  TC5v  SC4e  1 3.650000e-01    2.340000e+00
  TC5e  SC4v  1 3.650000e-01    2.340000e+00
  TC5v  SC3e  1 3.650000e-01    2.110000e+00
  TC5e  SC3v  1 3.650000e-01    2.110000e+00
  TC5v  SC2e  1 3.650000e-01    1.910000e+00
  TC5e  SC2v  1 3.650000e-01    1.910000e+00
  TC5v  SC1e  1 3.650000e-01    1.910000e+00
  TC5e  SC1v  1 3.650000e-01    1.910000e+00
  TC5v  SX4e  1 3.650000e-01    2.110000e+00
  TC5e  SX4v  1 3.650000e-01    2.110000e+00
  TC5v  SX3e  1 3.650000e-01    2.110000e+00
  TC5e  SX3v  1 3.650000e-01    2.110000e+00
  TC5v  SX2e  1 3.650000e-01    2.110000e+00
  TC5e  SX2v  1 3.650000e-01    2.110000e+00
  TC5v  SX1e  1 3.650000e-01    2.340000e+00
  TC5e  SX1v  1 3.650000e-01    2.340000e+00
  TC4v  SC4e  1 3.650000e-01    2.340000e+00
  TC4v  SC3e  1 3.650000e-01    2.340000e+00
  TC4e  SC3v  1 3.650000e-01    2.340000e+00
  TC4v  SC2e  1 3.650000e-01    2.110000e+00
  TC4e  SC2v  1 3.650000e-01    2.110000e+00
  TC4v  SC1e  1 3.650000e-01    1.910000e+00
  TC4e  SC1v  1 3.650000e-01    1.910000e+00
  TC4v  SX4e  1 3.650000e-01    2.110000e+00
  TC4e  SX4v  1 3.650000e-01    2.110000e+00
  TC4v  SX3e  1 3.650000e-01    2.110000e+00
  TC4e  SX3v  1 3.650000e-01    2.110000e+00
  TC4v  SX2e  1 3.650000e-01    2.110000e+00
  TC4e  SX2v  1 3.650000e-01    2.110000e+00
  TC4v  SX1e  1 3.650000e-01    2.340000e+00
  TC4e  SX1v  1 3.650000e-01    2.340000e+00
  TC3v  SC3e  1 3.650000e-01    2.340000e+00
  TC3v  SC2e  1 3.650000e-01    2.340000e+00
  TC3e  SC2v  1 3.650000e-01    2.340000e+00
  TC3v  SC1e  1 3.650000e-01    2.340000e+00
  TC3e  SC1v  1 3.650000e-01    2.340000e+00
  TC3v  SX4e  1 3.650000e-01    2.110000e+00
  TC3e  SX4v  1 3.650000e-01    2.110000e+00
  TC3v  SX3e  1 3.650000e-01    2.110000e+00
  TC3e  SX3v  1 3.650000e-01    2.110000e+00
  TC3v  SX2e  1 3.650000e-01    2.110000e+00
  TC3e  SX2v  1 3.650000e-01    2.110000e+00
  TC3v  SX1e  1 3.650000e-01    2.340000e+00
  TC3e  SX1v  1 3.650000e-01    2.340000e+00
  TC2v  SC2e  1 3.650000e-01    2.340000e+00
  TC2v  SC1e  1 3.650000e-01    2.570000e+00
  TC2e  SC1v  1 3.650000e-01    2.570000e+00
  TC2v  SX4e  1 3.650000e-01    1.750000e+00
  TC2e  SX4v  1 3.650000e-01    1.750000e+00
  TC2v  SX3e  1 3.650000e-01    2.110000e+00
  TC2e  SX3v  1 3.650000e-01    2.110000e+00
  TC2v  SX2e  1 3.650000e-01    2.110000e+00
  TC2e  SX2v  1 3.650000e-01    2.110000e+00
  TC2v  SX1e  1 3.650000e-01    2.110000e+00
  TC2e  SX1v  1 3.650000e-01    2.110000e+00
  TC1v  SC1e  1 3.650000e-01    2.340000e+00
  TC1v  SX4e  1 3.650000e-01    1.750000e+00
  TC1e  SX4v  1 3.650000e-01    1.750000e+00
  TC1v  SX3e  1 3.650000e-01    2.110000e+00
  TC1e  SX3v  1 3.650000e-01    2.110000e+00
  TC1v  SX2e  1 3.650000e-01    2.110000e+00
  TC1e  SX2v  1 3.650000e-01    2.110000e+00
  TC1v  SX1e  1 3.650000e-01    2.110000e+00
  TC1e  SX1v  1 3.650000e-01    2.110000e+00
  TX4v  SX4e  1 3.650000e-01    2.340000e+00
  TX4v  SX3e  1 3.650000e-01    2.340000e+00
  TX4e  SX3v  1 3.650000e-01    2.340000e+00
  TX4v  SX2e  1 3.650000e-01    2.340000e+00
  TX4e  SX2v  1 3.650000e-01    2.340000e+00
  TX4v  SX1e  1 3.650000e-01    2.340000e+00
  TX4e  SX1v  1 3.650000e-01    2.340000e+00
  TX3v  SX3e  1 3.650000e-01    2.340000e+00
  TX3v  SX2e  1 3.650000e-01    2.570000e+00
  TX3e  SX2v  1 3.650000e-01    2.570000e+00
  TX3v  SX1e  1 3.650000e-01    2.570000e+00
  TX3e  SX1v  1 3.650000e-01    2.570000e+00
  TX2v  SX2e  1 3.650000e-01    2.570000e+00
  TX2v  SX1e  1 3.650000e-01    2.570000e+00
  TX2e  SX1v  1 3.650000e-01    2.570000e+00
  TX1v  SX1e  1 3.650000e-01    2.830000e+00
  TP6d  SC6e  1 3.660000e-01    1.600000e+00
  TP6d  SC5e  1 3.780000e-01    1.450000e+00
  TP6d  SC4e  1 3.940000e-01    1.290000e+00
  TP6d  SC3e  1 4.040000e-01    1.130000e+00
  TP6d  SC2e  1 4.040000e-01    1.130000e+00
  TP6d  SC1e  1 4.230000e-01    9.810000e-01
  TP6d  SX4e  1 3.650000e-01    1.750000e+00
  TP6d  SX3e  1 3.650000e-01    1.750000e+00
  TP6d  SX2e  1 3.660000e-01    1.600000e+00
  TP6d  SX1e  1 3.780000e-01    1.450000e+00
  TP5d  SC6e  1 3.660000e-01    1.600000e+00
  TP5d  SC5e  1 3.660000e-01    1.600000e+00
  TP5d  SC4e  1 3.780000e-01    1.450000e+00
  TP5d  SC3e  1 3.940000e-01    1.290000e+00
  TP5d  SC2e  1 3.940000e-01    1.290000e+00
  TP5d  SC1e  1 4.040000e-01    1.130000e+00
  TP5d  SX4e  1 3.650000e-01    1.910000e+00
  TP5d  SX3e  1 3.650000e-01    1.750000e+00
  TP5d  SX2e  1 3.650000e-01    1.750000e+00
  TP5d  SX1e  1 3.780000e-01    1.450000e+00
  TP4d  SC6e  1 3.650000e-01    1.750000e+00
  TP4d  SC5e  1 3.660000e-01    1.600000e+00
  TP4d  SC4e  1 3.780000e-01    1.450000e+00
  TP4d  SC3e  1 3.940000e-01    1.290000e+00
  TP4d  SC2e  1 3.940000e-01    1.290000e+00
  TP4d  SC1e  1 4.040000e-01    1.130000e+00
  TP4d  SX4e  1 3.650000e-01    1.910000e+00
  TP4d  SX3e  1 3.650000e-01    1.750000e+00
  TP4d  SX2e  1 3.650000e-01    1.750000e+00
  TP4d  SX1e  1 3.660000e-01    1.600000e+00
  TP3d  SC6e  1 3.650000e-01    1.910000e+00
  TP3d  SC5e  1 3.650000e-01    1.750000e+00
  TP3d  SC4e  1 3.660000e-01    1.600000e+00
  TP3d  SC3e  1 3.940000e-01    1.290000e+00
  TP3d  SC2e  1 3.940000e-01    1.290000e+00
  TP3d  SC1e  1 4.040000e-01    1.130000e+00
  TP3d  SX4e  1 3.650000e-01    1.910000e+00
  TP3d  SX3e  1 3.650000e-01    1.910000e+00
  TP3d  SX2e  1 3.650000e-01    1.750000e+00
  TP3d  SX1e  1 3.660000e-01    1.600000e+00
  TP2d  SC6e  1 3.650000e-01    1.910000e+00
  TP2d  SC5e  1 3.650000e-01    1.750000e+00
  TP2d  SC4e  1 3.660000e-01    1.600000e+00
  TP2d  SC3e  1 3.780000e-01    1.450000e+00
  TP2d  SC2e  1 3.780000e-01    1.450000e+00
  TP2d  SC1e  1 3.940000e-01    1.290000e+00
  TP2d  SX4e  1 3.650000e-01    1.910000e+00
  TP2d  SX3e  1 3.650000e-01    1.910000e+00
  TP2d  SX2e  1 3.650000e-01    1.750000e+00
  TP2d  SX1e  1 3.660000e-01    1.600000e+00
  TP1d  SC6e  1 3.650000e-01    1.910000e+00
  TP1d  SC5e  1 3.650000e-01    1.750000e+00
  TP1d  SC4e  1 3.660000e-01    1.600000e+00
  TP1d  SC3e  1 3.780000e-01    1.450000e+00
  TP1d  SC2e  1 3.780000e-01    1.450000e+00
  TP1d  SC1e  1 3.940000e-01    1.290000e+00
  TP1d  SX4e  1 3.650000e-01    1.910000e+00
  TP1d  SX3e  1 3.650000e-01    1.910000e+00
  TP1d  SX2e  1 3.650000e-01    1.750000e+00
  TP1d  SX1e  1 3.660000e-01    1.600000e+00
  TN6d  SC6e  1 3.650000e-01    2.110000e+00
  TN6d  SC5e  1 3.650000e-01    1.910000e+00
  TN6d  SC4e  1 3.650000e-01    1.750000e+00
  TN6d  SC3e  1 3.660000e-01    1.600000e+00
  TN6d  SC2e  1 3.660000e-01    1.600000e+00
  TN6d  SC1e  1 3.780000e-01    1.450000e+00
  TN6d  SX4e  1 3.650000e-01    2.110000e+00
  TN6d  SX3e  1 3.650000e-01    1.910000e+00
  TN6d  SX2e  1 3.650000e-01    1.750000e+00
  TN6d  SX1e  1 3.660000e-01    1.600000e+00
  TN5d  SC6e  1 3.650000e-01    2.110000e+00
  TN5d  SC5e  1 3.650000e-01    1.910000e+00
  TN5d  SC4e  1 3.650000e-01    1.750000e+00
  TN5d  SC3e  1 3.650000e-01    1.750000e+00
  TN5d  SC2e  1 3.660000e-01    1.600000e+00
  TN5d  SC1e  1 3.780000e-01    1.450000e+00
  TN5d  SX4e  1 3.650000e-01    2.340000e+00
  TN5d  SX3e  1 3.650000e-01    2.110000e+00
  TN5d  SX2e  1 3.650000e-01    1.910000e+00
  TN5d  SX1e  1 3.650000e-01    1.750000e+00
  TN4d  SC6e  1 3.650000e-01    2.110000e+00
  TN4d  SC5e  1 3.650000e-01    1.910000e+00
  TN4d  SC4e  1 3.650000e-01    1.910000e+00
  TN4d  SC3e  1 3.650000e-01    1.750000e+00
  TN4d  SC2e  1 3.660000e-01    1.600000e+00
  TN4d  SC1e  1 3.780000e-01    1.450000e+00
  TN4d  SX4e  1 3.650000e-01    2.570000e+00
  TN4d  SX3e  1 3.650000e-01    2.340000e+00
  TN4d  SX2e  1 3.650000e-01    1.910000e+00
  TN4d  SX1e  1 3.650000e-01    1.750000e+00
  TN3d  SC6e  1 3.650000e-01    2.110000e+00
  TN3d  SC5e  1 3.650000e-01    1.910000e+00
  TN3d  SC4e  1 3.650000e-01    1.910000e+00
  TN3d  SC3e  1 3.650000e-01    1.750000e+00
  TN3d  SC2e  1 3.650000e-01    1.750000e+00
  TN3d  SC1e  1 3.660000e-01    1.600000e+00
  TN3d  SX4e  1 3.650000e-01    2.340000e+00
  TN3d  SX3e  1 3.650000e-01    2.110000e+00
  TN3d  SX2e  1 3.650000e-01    1.910000e+00
  TN3d  SX1e  1 3.650000e-01    1.910000e+00
  TN2d  SC6e  1 3.650000e-01    2.110000e+00
  TN2d  SC5e  1 3.650000e-01    1.910000e+00
  TN2d  SC4e  1 3.650000e-01    1.910000e+00
  TN2d  SC3e  1 3.650000e-01    1.910000e+00
  TN2d  SC2e  1 3.650000e-01    1.750000e+00
  TN2d  SC1e  1 3.660000e-01    1.600000e+00
  TN2d  SX4e  1 3.650000e-01    2.340000e+00
  TN2d  SX3e  1 3.650000e-01    2.110000e+00
  TN2d  SX2e  1 3.650000e-01    1.910000e+00
  TN2d  SX1e  1 3.650000e-01    1.910000e+00
  TN1d  SC6e  1 3.650000e-01    2.340000e+00
  TN1d  SC5e  1 3.650000e-01    2.110000e+00
  TN1d  SC4e  1 3.650000e-01    2.110000e+00
  TN1d  SC3e  1 3.650000e-01    1.910000e+00
  TN1d  SC2e  1 3.650000e-01    1.750000e+00
  TN1d  SC1e  1 3.660000e-01    1.600000e+00
  TN1d  SX4e  1 3.650000e-01    2.110000e+00
  TN1d  SX3e  1 3.650000e-01    2.110000e+00
  TN1d  SX2e  1 3.650000e-01    1.910000e+00
  TN1d  SX1e  1 3.650000e-01    1.910000e+00
  TP6a  SC6v  1 3.660000e-01    1.600000e+00
  TP6a  SC5v  1 3.780000e-01    1.450000e+00
  TP6a  SC4v  1 3.940000e-01    1.290000e+00
  TP6a  SC3v  1 4.040000e-01    1.130000e+00
  TP6a  SC2v  1 4.040000e-01    1.130000e+00
  TP6a  SC1v  1 4.230000e-01    9.810000e-01
  TP6a  SX4v  1 3.650000e-01    1.750000e+00
  TP6a  SX3v  1 3.650000e-01    1.750000e+00
  TP6a  SX2v  1 3.660000e-01    1.600000e+00
  TP6a  SX1v  1 3.780000e-01    1.450000e+00
  TP5a  SC6v  1 3.660000e-01    1.600000e+00
  TP5a  SC5v  1 3.660000e-01    1.600000e+00
  TP5a  SC4v  1 3.780000e-01    1.450000e+00
  TP5a  SC3v  1 3.940000e-01    1.290000e+00
  TP5a  SC2v  1 3.940000e-01    1.290000e+00
  TP5a  SC1v  1 4.040000e-01    1.130000e+00
  TP5a  SX4v  1 3.650000e-01    1.910000e+00
  TP5a  SX3v  1 3.650000e-01    1.750000e+00
  TP5a  SX2v  1 3.650000e-01    1.750000e+00
  TP5a  SX1v  1 3.780000e-01    1.450000e+00
  TP4a  SC6v  1 3.650000e-01    1.750000e+00
  TP4a  SC5v  1 3.660000e-01    1.600000e+00
  TP4a  SC4v  1 3.780000e-01    1.450000e+00
  TP4a  SC3v  1 3.940000e-01    1.290000e+00
  TP4a  SC2v  1 3.940000e-01    1.290000e+00
  TP4a  SC1v  1 4.040000e-01    1.130000e+00
  TP4a  SX4v  1 3.650000e-01    1.910000e+00
  TP4a  SX3v  1 3.650000e-01    1.750000e+00
  TP4a  SX2v  1 3.650000e-01    1.750000e+00
  TP4a  SX1v  1 3.660000e-01    1.600000e+00
  TP3a  SC6v  1 3.650000e-01    1.910000e+00
  TP3a  SC5v  1 3.650000e-01    1.750000e+00
  TP3a  SC4v  1 3.660000e-01    1.600000e+00
  TP3a  SC3v  1 3.940000e-01    1.290000e+00
  TP3a  SC2v  1 3.940000e-01    1.290000e+00
  TP3a  SC1v  1 4.040000e-01    1.130000e+00
  TP3a  SX4v  1 3.650000e-01    1.910000e+00
  TP3a  SX3v  1 3.650000e-01    1.910000e+00
  TP3a  SX2v  1 3.650000e-01    1.750000e+00
  TP3a  SX1v  1 3.660000e-01    1.600000e+00
  TP2a  SC6v  1 3.650000e-01    1.910000e+00
  TP2a  SC5v  1 3.650000e-01    1.750000e+00
  TP2a  SC4v  1 3.660000e-01    1.600000e+00
  TP2a  SC3v  1 3.780000e-01    1.450000e+00
  TP2a  SC2v  1 3.780000e-01    1.450000e+00
  TP2a  SC1v  1 3.940000e-01    1.290000e+00
  TP2a  SX4v  1 3.650000e-01    1.910000e+00
  TP2a  SX3v  1 3.650000e-01    1.910000e+00
  TP2a  SX2v  1 3.650000e-01    1.750000e+00
  TP2a  SX1v  1 3.660000e-01    1.600000e+00
  TP1a  SC6v  1 3.650000e-01    1.910000e+00
  TP1a  SC5v  1 3.650000e-01    1.750000e+00
  TP1a  SC4v  1 3.660000e-01    1.600000e+00
  TP1a  SC3v  1 3.780000e-01    1.450000e+00
  TP1a  SC2v  1 3.780000e-01    1.450000e+00
  TP1a  SC1v  1 3.940000e-01    1.290000e+00
  TP1a  SX4v  1 3.650000e-01    1.910000e+00
  TP1a  SX3v  1 3.650000e-01    1.910000e+00
  TP1a  SX2v  1 3.650000e-01    1.750000e+00
  TP1a  SX1v  1 3.660000e-01    1.600000e+00
  TN6a  SC6v  1 3.650000e-01    2.110000e+00
  TN6a  SC5v  1 3.650000e-01    1.910000e+00
  TN6a  SC4v  1 3.650000e-01    1.750000e+00
  TN6a  SC3v  1 3.660000e-01    1.600000e+00
  TN6a  SC2v  1 3.660000e-01    1.600000e+00
  TN6a  SC1v  1 3.780000e-01    1.450000e+00
  TN6a  SX4v  1 3.650000e-01    2.110000e+00
  TN6a  SX3v  1 3.650000e-01    1.910000e+00
  TN6a  SX2v  1 3.650000e-01    1.750000e+00
  TN6a  SX1v  1 3.660000e-01    1.600000e+00
  TN5a  SC6v  1 3.650000e-01    2.110000e+00
  TN5a  SC5v  1 3.650000e-01    1.910000e+00
  TN5a  SC4v  1 3.650000e-01    1.750000e+00
  TN5a  SC3v  1 3.650000e-01    1.750000e+00
  TN5a  SC2v  1 3.660000e-01    1.600000e+00
  TN5a  SC1v  1 3.780000e-01    1.450000e+00
  TN5a  SX4v  1 3.650000e-01    2.340000e+00
  TN5a  SX3v  1 3.650000e-01    2.110000e+00
  TN5a  SX2v  1 3.650000e-01    1.910000e+00
  TN5a  SX1v  1 3.650000e-01    1.750000e+00
  TN4a  SC6v  1 3.650000e-01    2.110000e+00
  TN4a  SC5v  1 3.650000e-01    1.910000e+00
  TN4a  SC4v  1 3.650000e-01    1.910000e+00
  TN4a  SC3v  1 3.650000e-01    1.750000e+00
  TN4a  SC2v  1 3.660000e-01    1.600000e+00
  TN4a  SC1v  1 3.780000e-01    1.450000e+00
  TN4a  SX4v  1 3.650000e-01    2.570000e+00
  TN4a  SX3v  1 3.650000e-01    2.340000e+00
  TN4a  SX2v  1 3.650000e-01    1.910000e+00
  TN4a  SX1v  1 3.650000e-01    1.750000e+00
  TN3a  SC6v  1 3.650000e-01    2.110000e+00
  TN3a  SC5v  1 3.650000e-01    1.910000e+00
  TN3a  SC4v  1 3.650000e-01    1.910000e+00
  TN3a  SC3v  1 3.650000e-01    1.750000e+00
  TN3a  SC2v  1 3.650000e-01    1.750000e+00
  TN3a  SC1v  1 3.660000e-01    1.600000e+00
  TN3a  SX4v  1 3.650000e-01    2.340000e+00
  TN3a  SX3v  1 3.650000e-01    2.110000e+00
  TN3a  SX2v  1 3.650000e-01    1.910000e+00
  TN3a  SX1v  1 3.650000e-01    1.910000e+00
  TN2a  SC6v  1 3.650000e-01    2.110000e+00
  TN2a  SC5v  1 3.650000e-01    1.910000e+00
  TN2a  SC4v  1 3.650000e-01    1.910000e+00
  TN2a  SC3v  1 3.650000e-01    1.910000e+00
  TN2a  SC2v  1 3.650000e-01    1.750000e+00
  TN2a  SC1v  1 3.660000e-01    1.600000e+00
  TN2a  SX4v  1 3.650000e-01    2.340000e+00
  TN2a  SX3v  1 3.650000e-01    2.110000e+00
  TN2a  SX2v  1 3.650000e-01    1.910000e+00
  TN2a  SX1v  1 3.650000e-01    1.910000e+00
  TN1a  SC6v  1 3.650000e-01    2.340000e+00
  TN1a  SC5v  1 3.650000e-01    2.110000e+00
  TN1a  SC4v  1 3.650000e-01    2.110000e+00
  TN1a  SC3v  1 3.650000e-01    1.910000e+00
  TN1a  SC2v  1 3.650000e-01    1.750000e+00
  TN1a  SC1v  1 3.660000e-01    1.600000e+00
  TN1a  SX4v  1 3.650000e-01    2.110000e+00
  TN1a  SX3v  1 3.650000e-01    2.110000e+00
  TN1a  SX2v  1 3.650000e-01    1.910000e+00
  TN1a  SX1v  1 3.650000e-01    1.910000e+00
  TP6d  SC6v  1 3.940000e-01    1.290000e+00
  TP6d  SC5v  1 4.040000e-01    1.130000e+00
  TP6d  SC4v  1 4.090000e-01    1.080000e+00
  TP6d  SC3v  1 4.230000e-01    9.810000e-01
  TP6d  SC2v  1 4.230000e-01    9.810000e-01
  TP6d  SC1v  1 5.370000e-01    8.080000e-01
  TP6d  SX4v  1 3.780000e-01    1.450000e+00
  TP6d  SX3v  1 3.780000e-01    1.450000e+00
  TP6d  SX2v  1 3.940000e-01    1.290000e+00
  TP6d  SX1v  1 4.040000e-01    1.130000e+00
  TP5d  SC6v  1 3.940000e-01    1.290000e+00
  TP5d  SC5v  1 3.940000e-01    1.290000e+00
  TP5d  SC4v  1 4.040000e-01    1.130000e+00
  TP5d  SC3v  1 4.090000e-01    1.080000e+00
  TP5d  SC2v  1 4.090000e-01    1.080000e+00
  TP5d  SC1v  1 4.230000e-01    9.810000e-01
  TP5d  SX4v  1 3.660000e-01    1.600000e+00
  TP5d  SX3v  1 3.780000e-01    1.450000e+00
  TP5d  SX2v  1 3.780000e-01    1.450000e+00
  TP5d  SX1v  1 4.040000e-01    1.130000e+00
  TP4d  SC6v  1 3.780000e-01    1.450000e+00
  TP4d  SC5v  1 3.940000e-01    1.290000e+00
  TP4d  SC4v  1 4.040000e-01    1.130000e+00
  TP4d  SC3v  1 4.090000e-01    1.080000e+00
  TP4d  SC2v  1 4.090000e-01    1.080000e+00
  TP4d  SC1v  1 4.230000e-01    9.810000e-01
  TP4d  SX4v  1 3.660000e-01    1.600000e+00
  TP4d  SX3v  1 3.780000e-01    1.450000e+00
  TP4d  SX2v  1 3.780000e-01    1.450000e+00
  TP4d  SX1v  1 3.940000e-01    1.290000e+00
  TP3d  SC6v  1 3.660000e-01    1.600000e+00
  TP3d  SC5v  1 3.780000e-01    1.450000e+00
  TP3d  SC4v  1 3.940000e-01    1.290000e+00
  TP3d  SC3v  1 4.090000e-01    1.080000e+00
  TP3d  SC2v  1 4.090000e-01    1.080000e+00
  TP3d  SC1v  1 4.230000e-01    9.810000e-01
  TP3d  SX4v  1 3.660000e-01    1.600000e+00
  TP3d  SX3v  1 3.660000e-01    1.600000e+00
  TP3d  SX2v  1 3.780000e-01    1.450000e+00
  TP3d  SX1v  1 3.940000e-01    1.290000e+00
  TP2d  SC6v  1 3.660000e-01    1.600000e+00
  TP2d  SC5v  1 3.780000e-01    1.450000e+00
  TP2d  SC4v  1 3.940000e-01    1.290000e+00
  TP2d  SC3v  1 4.040000e-01    1.130000e+00
  TP2d  SC2v  1 4.040000e-01    1.130000e+00
  TP2d  SC1v  1 4.090000e-01    1.080000e+00
  TP2d  SX4v  1 3.660000e-01    1.600000e+00
  TP2d  SX3v  1 3.660000e-01    1.600000e+00
  TP2d  SX2v  1 3.780000e-01    1.450000e+00
  TP2d  SX1v  1 3.940000e-01    1.290000e+00
  TP1d  SC6v  1 3.660000e-01    1.600000e+00
  TP1d  SC5v  1 3.780000e-01    1.450000e+00
  TP1d  SC4v  1 3.940000e-01    1.290000e+00
  TP1d  SC3v  1 4.040000e-01    1.130000e+00
  TP1d  SC2v  1 4.040000e-01    1.130000e+00
  TP1d  SC1v  1 4.090000e-01    1.080000e+00
  TP1d  SX4v  1 3.660000e-01    1.600000e+00
  TP1d  SX3v  1 3.660000e-01    1.600000e+00
  TP1d  SX2v  1 3.780000e-01    1.450000e+00
  TP1d  SX1v  1 3.940000e-01    1.290000e+00
  TN6d  SC6v  1 3.650000e-01    1.750000e+00
  TN6d  SC5v  1 3.660000e-01    1.600000e+00
  TN6d  SC4v  1 3.780000e-01    1.450000e+00
  TN6d  SC3v  1 3.940000e-01    1.290000e+00
  TN6d  SC2v  1 3.940000e-01    1.290000e+00
  TN6d  SC1v  1 4.040000e-01    1.130000e+00
  TN6d  SX4v  1 3.650000e-01    1.750000e+00
  TN6d  SX3v  1 3.660000e-01    1.600000e+00
  TN6d  SX2v  1 3.780000e-01    1.450000e+00
  TN6d  SX1v  1 3.940000e-01    1.290000e+00
  TN5d  SC6v  1 3.650000e-01    1.750000e+00
  TN5d  SC5v  1 3.660000e-01    1.600000e+00
  TN5d  SC4v  1 3.780000e-01    1.450000e+00
  TN5d  SC3v  1 3.780000e-01    1.450000e+00
  TN5d  SC2v  1 3.940000e-01    1.290000e+00
  TN5d  SC1v  1 4.040000e-01    1.130000e+00
  TN5d  SX4v  1 3.650000e-01    1.910000e+00
  TN5d  SX3v  1 3.650000e-01    1.750000e+00
  TN5d  SX2v  1 3.660000e-01    1.600000e+00
  TN5d  SX1v  1 3.780000e-01    1.450000e+00
  TN4d  SC6v  1 3.650000e-01    1.750000e+00
  TN4d  SC5v  1 3.660000e-01    1.600000e+00
  TN4d  SC4v  1 3.660000e-01    1.600000e+00
  TN4d  SC3v  1 3.780000e-01    1.450000e+00
  TN4d  SC2v  1 3.940000e-01    1.290000e+00
  TN4d  SC1v  1 4.040000e-01    1.130000e+00
  TN4d  SX4v  1 3.650000e-01    2.110000e+00
  TN4d  SX3v  1 3.650000e-01    1.910000e+00
  TN4d  SX2v  1 3.660000e-01    1.600000e+00
  TN4d  SX1v  1 3.780000e-01    1.450000e+00
  TN3d  SC6v  1 3.650000e-01    1.750000e+00
  TN3d  SC5v  1 3.660000e-01    1.600000e+00
  TN3d  SC4v  1 3.660000e-01    1.600000e+00
  TN3d  SC3v  1 3.780000e-01    1.450000e+00
  TN3d  SC2v  1 3.780000e-01    1.450000e+00
  TN3d  SC1v  1 3.940000e-01    1.290000e+00
  TN3d  SX4v  1 3.650000e-01    1.910000e+00
  TN3d  SX3v  1 3.650000e-01    1.750000e+00
  TN3d  SX2v  1 3.660000e-01    1.600000e+00
  TN3d  SX1v  1 3.660000e-01    1.600000e+00
  TN2d  SC6v  1 3.650000e-01    1.750000e+00
  TN2d  SC5v  1 3.660000e-01    1.600000e+00
  TN2d  SC4v  1 3.660000e-01    1.600000e+00
  TN2d  SC3v  1 3.660000e-01    1.600000e+00
  TN2d  SC2v  1 3.780000e-01    1.450000e+00
  TN2d  SC1v  1 3.940000e-01    1.290000e+00
  TN2d  SX4v  1 3.650000e-01    1.910000e+00
  TN2d  SX3v  1 3.650000e-01    1.750000e+00
  TN2d  SX2v  1 3.660000e-01    1.600000e+00
  TN2d  SX1v  1 3.660000e-01    1.600000e+00
  TN1d  SC6v  1 3.650000e-01    1.910000e+00
  TN1d  SC5v  1 3.650000e-01    1.750000e+00
  TN1d  SC4v  1 3.650000e-01    1.750000e+00
  TN1d  SC3v  1 3.660000e-01    1.600000e+00
  TN1d  SC2v  1 3.780000e-01    1.450000e+00
  TN1d  SC1v  1 3.940000e-01    1.290000e+00
  TN1d  SX4v  1 3.650000e-01    1.750000e+00
  TN1d  SX3v  1 3.650000e-01    1.750000e+00
  TN1d  SX2v  1 3.660000e-01    1.600000e+00
  TN1d  SX1v  1 3.660000e-01    1.600000e+00
  TP6a  SC6e  1 3.940000e-01    1.290000e+00
  TP6a  SC5e  1 4.040000e-01    1.130000e+00
  TP6a  SC4e  1 4.090000e-01    1.080000e+00
  TP6a  SC3e  1 4.230000e-01    9.810000e-01
  TP6a  SC2e  1 4.230000e-01    9.810000e-01
  TP6a  SC1e  1 5.370000e-01    8.080000e-01
  TP6a  SX4e  1 3.780000e-01    1.450000e+00
  TP6a  SX3e  1 3.780000e-01    1.450000e+00
  TP6a  SX2e  1 3.940000e-01    1.290000e+00
  TP6a  SX1e  1 4.040000e-01    1.130000e+00
  TP5a  SC6e  1 3.940000e-01    1.290000e+00
  TP5a  SC5e  1 3.940000e-01    1.290000e+00
  TP5a  SC4e  1 4.040000e-01    1.130000e+00
  TP5a  SC3e  1 4.090000e-01    1.080000e+00
  TP5a  SC2e  1 4.090000e-01    1.080000e+00
  TP5a  SC1e  1 4.230000e-01    9.810000e-01
  TP5a  SX4e  1 3.660000e-01    1.600000e+00
  TP5a  SX3e  1 3.780000e-01    1.450000e+00
  TP5a  SX2e  1 3.780000e-01    1.450000e+00
  TP5a  SX1e  1 4.040000e-01    1.130000e+00
  TP4a  SC6e  1 3.780000e-01    1.450000e+00
  TP4a  SC5e  1 3.940000e-01    1.290000e+00
  TP4a  SC4e  1 4.040000e-01    1.130000e+00
  TP4a  SC3e  1 4.090000e-01    1.080000e+00
  TP4a  SC2e  1 4.090000e-01    1.080000e+00
  TP4a  SC1e  1 4.230000e-01    9.810000e-01
  TP4a  SX4e  1 3.660000e-01    1.600000e+00
  TP4a  SX3e  1 3.780000e-01    1.450000e+00
  TP4a  SX2e  1 3.780000e-01    1.450000e+00
  TP4a  SX1e  1 3.940000e-01    1.290000e+00
  TP3a  SC6e  1 3.660000e-01    1.600000e+00
  TP3a  SC5e  1 3.780000e-01    1.450000e+00
  TP3a  SC4e  1 3.940000e-01    1.290000e+00
  TP3a  SC3e  1 4.090000e-01    1.080000e+00
  TP3a  SC2e  1 4.090000e-01    1.080000e+00
  TP3a  SC1e  1 4.230000e-01    9.810000e-01
  TP3a  SX4e  1 3.660000e-01    1.600000e+00
  TP3a  SX3e  1 3.660000e-01    1.600000e+00
  TP3a  SX2e  1 3.780000e-01    1.450000e+00
  TP3a  SX1e  1 3.940000e-01    1.290000e+00
  TP2a  SC6e  1 3.660000e-01    1.600000e+00
  TP2a  SC5e  1 3.780000e-01    1.450000e+00
  TP2a  SC4e  1 3.940000e-01    1.290000e+00
  TP2a  SC3e  1 4.040000e-01    1.130000e+00
  TP2a  SC2e  1 4.040000e-01    1.130000e+00
  TP2a  SC1e  1 4.090000e-01    1.080000e+00
  TP2a  SX4e  1 3.660000e-01    1.600000e+00
  TP2a  SX3e  1 3.660000e-01    1.600000e+00
  TP2a  SX2e  1 3.780000e-01    1.450000e+00
  TP2a  SX1e  1 3.940000e-01    1.290000e+00
  TP1a  SC6e  1 3.660000e-01    1.600000e+00
  TP1a  SC5e  1 3.780000e-01    1.450000e+00
  TP1a  SC4e  1 3.940000e-01    1.290000e+00
  TP1a  SC3e  1 4.040000e-01    1.130000e+00
  TP1a  SC2e  1 4.040000e-01    1.130000e+00
  TP1a  SC1e  1 4.090000e-01    1.080000e+00
  TP1a  SX4e  1 3.660000e-01    1.600000e+00
  TP1a  SX3e  1 3.660000e-01    1.600000e+00
  TP1a  SX2e  1 3.780000e-01    1.450000e+00
  TP1a  SX1e  1 3.940000e-01    1.290000e+00
  TN6a  SC6e  1 3.650000e-01    1.750000e+00
  TN6a  SC5e  1 3.660000e-01    1.600000e+00
  TN6a  SC4e  1 3.780000e-01    1.450000e+00
  TN6a  SC3e  1 3.940000e-01    1.290000e+00
  TN6a  SC2e  1 3.940000e-01    1.290000e+00
  TN6a  SC1e  1 4.040000e-01    1.130000e+00
  TN6a  SX4e  1 3.650000e-01    1.750000e+00
  TN6a  SX3e  1 3.660000e-01    1.600000e+00
  TN6a  SX2e  1 3.780000e-01    1.450000e+00
  TN6a  SX1e  1 3.940000e-01    1.290000e+00
  TN5a  SC6e  1 3.650000e-01    1.750000e+00
  TN5a  SC5e  1 3.660000e-01    1.600000e+00
  TN5a  SC4e  1 3.780000e-01    1.450000e+00
  TN5a  SC3e  1 3.780000e-01    1.450000e+00
  TN5a  SC2e  1 3.940000e-01    1.290000e+00
  TN5a  SC1e  1 4.040000e-01    1.130000e+00
  TN5a  SX4e  1 3.650000e-01    1.910000e+00
  TN5a  SX3e  1 3.650000e-01    1.750000e+00
  TN5a  SX2e  1 3.660000e-01    1.600000e+00
  TN5a  SX1e  1 3.780000e-01    1.450000e+00
  TN4a  SC6e  1 3.650000e-01    1.750000e+00
  TN4a  SC5e  1 3.660000e-01    1.600000e+00
  TN4a  SC4e  1 3.660000e-01    1.600000e+00
  TN4a  SC3e  1 3.780000e-01    1.450000e+00
  TN4a  SC2e  1 3.940000e-01    1.290000e+00
  TN4a  SC1e  1 4.040000e-01    1.130000e+00
  TN4a  SX4e  1 3.650000e-01    2.110000e+00
  TN4a  SX3e  1 3.650000e-01    1.910000e+00
  TN4a  SX2e  1 3.660000e-01    1.600000e+00
  TN4a  SX1e  1 3.780000e-01    1.450000e+00
  TN3a  SC6e  1 3.650000e-01    1.750000e+00
  TN3a  SC5e  1 3.660000e-01    1.600000e+00
  TN3a  SC4e  1 3.660000e-01    1.600000e+00
  TN3a  SC3e  1 3.780000e-01    1.450000e+00
  TN3a  SC2e  1 3.780000e-01    1.450000e+00
  TN3a  SC1e  1 3.940000e-01    1.290000e+00
  TN3a  SX4e  1 3.650000e-01    1.910000e+00
  TN3a  SX3e  1 3.650000e-01    1.750000e+00
  TN3a  SX2e  1 3.660000e-01    1.600000e+00
  TN3a  SX1e  1 3.660000e-01    1.600000e+00
  TN2a  SC6e  1 3.650000e-01    1.750000e+00
  TN2a  SC5e  1 3.660000e-01    1.600000e+00
  TN2a  SC4e  1 3.660000e-01    1.600000e+00
  TN2a  SC3e  1 3.660000e-01    1.600000e+00
  TN2a  SC2e  1 3.780000e-01    1.450000e+00
  TN2a  SC1e  1 3.940000e-01    1.290000e+00
  TN2a  SX4e  1 3.650000e-01    1.910000e+00
  TN2a  SX3e  1 3.650000e-01    1.750000e+00
  TN2a  SX2e  1 3.660000e-01    1.600000e+00
  TN2a  SX1e  1 3.660000e-01    1.600000e+00
  TN1a  SC6e  1 3.650000e-01    1.910000e+00
  TN1a  SC5e  1 3.650000e-01    1.750000e+00
  TN1a  SC4e  1 3.650000e-01    1.750000e+00
  TN1a  SC3e  1 3.660000e-01    1.600000e+00
  TN1a  SC2e  1 3.780000e-01    1.450000e+00
  TN1a  SC1e  1 3.940000e-01    1.290000e+00
  TN1a  SX4e  1 3.650000e-01    1.750000e+00
  TN1a  SX3e  1 3.650000e-01    1.750000e+00
  TN1a  SX2e  1 3.660000e-01    1.600000e+00
  TN1a  SX1e  1 3.660000e-01    1.600000e+00
  TP6q  SP6d  1 3.650000e-01    4.510000e+00
  TP6q  SN1d  1 3.650000e-01    1.750000e+00
  TP6q  SN2d  1 3.650000e-01    1.910000e+00
  TP6q  SN3d  1 3.650000e-01    2.110000e+00
  TP6q  SN4d  1 3.650000e-01    2.340000e+00
  TP6q  SN5d  1 3.650000e-01    2.570000e+00
  TP6q  SN6d  1 3.650000e-01    3.100000e+00
  TP6q  SP1d  1 3.650000e-01    3.370000e+00
  TP6q  SP2d  1 3.650000e-01    3.640000e+00
  TP6q  SP3d  1 3.650000e-01    3.640000e+00
  TP6q  SP4d  1 3.650000e-01    3.930000e+00
  TP6q  SP5d  1 3.650000e-01    4.220000e+00
  TP6q  SP6a  1 3.650000e-01    4.510000e+00
  TP6q  SN1a  1 3.650000e-01    1.750000e+00
  TP6q  SN2a  1 3.650000e-01    1.910000e+00
  TP6q  SN3a  1 3.650000e-01    2.110000e+00
  TP6q  SN4a  1 3.650000e-01    2.340000e+00
  TP6q  SN5a  1 3.650000e-01    2.570000e+00
  TP6q  SN6a  1 3.650000e-01    3.100000e+00
  TP6q  SP1a  1 3.650000e-01    3.370000e+00
  TP6q  SP2a  1 3.650000e-01    3.640000e+00
  TP6q  SP3a  1 3.650000e-01    3.640000e+00
  TP6q  SP4a  1 3.650000e-01    3.930000e+00
  TP6q  SP5a  1 3.650000e-01    4.220000e+00
  TP6q  SC6v  1 3.650000e-01    1.910000e+00
  TP6q  SC5v  1 3.650000e-01    1.750000e+00
  TP6q  SC4v  1 3.660000e-01    1.600000e+00
  TP6q  SC3v  1 3.780000e-01    1.450000e+00
  TP6q  SC2v  1 3.780000e-01    1.450000e+00
  TP6q  SC1v  1 4.040000e-01    1.130000e+00
  TP6q  SX4v  1 3.650000e-01    2.110000e+00
  TP6q  SX3v  1 3.650000e-01    2.110000e+00
  TP6q  SX2v  1 3.650000e-01    1.910000e+00
  TP6q  SX1v  1 3.650000e-01    1.750000e+00
  TP6q  SC6e  1 3.650000e-01    1.910000e+00
  TP6q  SC5e  1 3.650000e-01    1.750000e+00
  TP6q  SC4e  1 3.660000e-01    1.600000e+00
  TP6q  SC3e  1 3.780000e-01    1.450000e+00
  TP6q  SC2e  1 3.780000e-01    1.450000e+00
  TP6q  SC1e  1 4.040000e-01    1.130000e+00
  TP6q  SX4e  1 3.650000e-01    2.110000e+00
  TP6q  SX3e  1 3.650000e-01    2.110000e+00
  TP6q  SX2e  1 3.650000e-01    1.910000e+00
  TP6q  SX1e  1 3.650000e-01    1.750000e+00
  TP6d  SP5q  1 3.650000e-01    4.220000e+00
  TP5q  SP5d  1 3.650000e-01    3.930000e+00
  TP5q  SN1d  1 3.650000e-01    1.750000e+00
  TP5q  SN2d  1 3.650000e-01    1.910000e+00
  TP5q  SN3d  1 3.650000e-01    2.110000e+00
  TP5q  SN4d  1 3.650000e-01    2.570000e+00
  TP5q  SN5d  1 3.650000e-01    2.570000e+00
  TP5q  SN6d  1 3.650000e-01    2.830000e+00
  TP5q  SP1d  1 3.650000e-01    3.100000e+00
  TP5q  SP2d  1 3.650000e-01    3.370000e+00
  TP5q  SP3d  1 3.650000e-01    3.370000e+00
  TP5q  SP4d  1 3.650000e-01    3.640000e+00
  TP6a  SP5q  1 3.650000e-01    4.220000e+00
  TP5q  SP5a  1 3.650000e-01    3.930000e+00
  TP5q  SN1a  1 3.650000e-01    1.750000e+00
  TP5q  SN2a  1 3.650000e-01    1.910000e+00
  TP5q  SN3a  1 3.650000e-01    2.110000e+00
  TP5q  SN4a  1 3.650000e-01    2.570000e+00
  TP5q  SN5a  1 3.650000e-01    2.570000e+00
  TP5q  SN6a  1 3.650000e-01    2.830000e+00
  TP5q  SP1a  1 3.650000e-01    3.100000e+00
  TP5q  SP2a  1 3.650000e-01    3.370000e+00
  TP5q  SP3a  1 3.650000e-01    3.370000e+00
  TP5q  SP4a  1 3.650000e-01    3.640000e+00
  TP5q  SC6v  1 3.650000e-01    1.910000e+00
  TP5q  SC5v  1 3.650000e-01    1.910000e+00
  TP5q  SC4v  1 3.650000e-01    1.750000e+00
  TP5q  SC3v  1 3.660000e-01    1.600000e+00
  TP5q  SC2v  1 3.660000e-01    1.600000e+00
  TP5q  SC1v  1 3.780000e-01    1.450000e+00
  TP5q  SX4v  1 3.650000e-01    2.340000e+00
  TP5q  SX3v  1 3.650000e-01    2.110000e+00
  TP5q  SX2v  1 3.650000e-01    2.110000e+00
  TP5q  SX1v  1 3.650000e-01    1.750000e+00
  TP5q  SC6e  1 3.650000e-01    1.910000e+00
  TP5q  SC5e  1 3.650000e-01    1.910000e+00
  TP5q  SC4e  1 3.650000e-01    1.750000e+00
  TP5q  SC3e  1 3.660000e-01    1.600000e+00
  TP5q  SC2e  1 3.660000e-01    1.600000e+00
  TP5q  SC1e  1 3.780000e-01    1.450000e+00
  TP5q  SX4e  1 3.650000e-01    2.340000e+00
  TP5q  SX3e  1 3.650000e-01    2.110000e+00
  TP5q  SX2e  1 3.650000e-01    2.110000e+00
  TP5q  SX1e  1 3.650000e-01    1.750000e+00
  TP6d  SP4q  1 3.650000e-01    3.930000e+00
  TP5d  SP4q  1 3.650000e-01    3.640000e+00
  TP4q  SP4d  1 3.650000e-01    3.640000e+00
  TP4q  SN1d  1 3.650000e-01    1.910000e+00
  TP4q  SN2d  1 3.650000e-01    2.110000e+00
  TP4q  SN3d  1 3.650000e-01    2.340000e+00
  TP4q  SN4d  1 3.650000e-01    2.570000e+00
  TP4q  SN5d  1 3.650000e-01    2.570000e+00
  TP4q  SN6d  1 3.650000e-01    2.830000e+00
  TP4q  SP1d  1 3.650000e-01    3.100000e+00
  TP4q  SP2d  1 3.650000e-01    3.370000e+00
  TP4q  SP3d  1 3.650000e-01    3.370000e+00
  TP6a  SP4q  1 3.650000e-01    3.930000e+00
  TP5a  SP4q  1 3.650000e-01    3.640000e+00
  TP4q  SP4a  1 3.650000e-01    3.640000e+00
  TP4q  SN1a  1 3.650000e-01    1.910000e+00
  TP4q  SN2a  1 3.650000e-01    2.110000e+00
  TP4q  SN3a  1 3.650000e-01    2.340000e+00
  TP4q  SN4a  1 3.650000e-01    2.570000e+00
  TP4q  SN5a  1 3.650000e-01    2.570000e+00
  TP4q  SN6a  1 3.650000e-01    2.830000e+00
  TP4q  SP1a  1 3.650000e-01    3.100000e+00
  TP4q  SP2a  1 3.650000e-01    3.370000e+00
  TP4q  SP3a  1 3.650000e-01    3.370000e+00
  TP4q  SC6v  1 3.650000e-01    2.110000e+00
  TP4q  SC5v  1 3.650000e-01    1.910000e+00
  TP4q  SC4v  1 3.650000e-01    1.750000e+00
  TP4q  SC3v  1 3.660000e-01    1.600000e+00
  TP4q  SC2v  1 3.660000e-01    1.600000e+00
  TP4q  SC1v  1 3.780000e-01    1.450000e+00
  TP4q  SX4v  1 3.650000e-01    2.340000e+00
  TP4q  SX3v  1 3.650000e-01    2.110000e+00
  TP4q  SX2v  1 3.650000e-01    2.110000e+00
  TP4q  SX1v  1 3.650000e-01    1.910000e+00
  TP4q  SC6e  1 3.650000e-01    2.110000e+00
  TP4q  SC5e  1 3.650000e-01    1.910000e+00
  TP4q  SC4e  1 3.650000e-01    1.750000e+00
  TP4q  SC3e  1 3.660000e-01    1.600000e+00
  TP4q  SC2e  1 3.660000e-01    1.600000e+00
  TP4q  SC1e  1 3.780000e-01    1.450000e+00
  TP4q  SX4e  1 3.650000e-01    2.340000e+00
  TP4q  SX3e  1 3.650000e-01    2.110000e+00
  TP4q  SX2e  1 3.650000e-01    2.110000e+00
  TP4q  SX1e  1 3.650000e-01    1.910000e+00
  TP6d  SP3q  1 3.650000e-01    3.640000e+00
  TP5d  SP3q  1 3.650000e-01    3.370000e+00
  TP4d  SP3q  1 3.650000e-01    3.370000e+00
  TP3q  SP3d  1 3.650000e-01    3.370000e+00
  TP3q  SN1d  1 3.650000e-01    2.110000e+00
  TP3q  SN2d  1 3.650000e-01    2.340000e+00
  TP3q  SN3d  1 3.650000e-01    2.340000e+00
  TP3q  SN4d  1 3.650000e-01    2.570000e+00
  TP3q  SN5d  1 3.650000e-01    2.570000e+00
  TP3q  SN6d  1 3.650000e-01    2.830000e+00
  TP3q  SP1d  1 3.650000e-01    3.100000e+00
  TP3q  SP2d  1 3.650000e-01    3.370000e+00
  TP6a  SP3q  1 3.650000e-01    3.640000e+00
  TP5a  SP3q  1 3.650000e-01    3.370000e+00
  TP4a  SP3q  1 3.650000e-01    3.370000e+00
  TP3q  SP3a  1 3.650000e-01    3.370000e+00
  TP3q  SN1a  1 3.650000e-01    2.110000e+00
  TP3q  SN2a  1 3.650000e-01    2.340000e+00
  TP3q  SN3a  1 3.650000e-01    2.340000e+00
  TP3q  SN4a  1 3.650000e-01    2.570000e+00
  TP3q  SN5a  1 3.650000e-01    2.570000e+00
  TP3q  SN6a  1 3.650000e-01    2.830000e+00
  TP3q  SP1a  1 3.650000e-01    3.100000e+00
  TP3q  SP2a  1 3.650000e-01    3.370000e+00
  TP3q  SC6v  1 3.650000e-01    2.340000e+00
  TP3q  SC5v  1 3.650000e-01    2.110000e+00
  TP3q  SC4v  1 3.650000e-01    1.910000e+00
  TP3q  SC3v  1 3.660000e-01    1.600000e+00
  TP3q  SC2v  1 3.660000e-01    1.600000e+00
  TP3q  SC1v  1 3.780000e-01    1.450000e+00
  TP3q  SX4v  1 3.650000e-01    2.340000e+00
  TP3q  SX3v  1 3.650000e-01    2.340000e+00
  TP3q  SX2v  1 3.650000e-01    2.110000e+00
  TP3q  SX1v  1 3.650000e-01    1.910000e+00
  TP3q  SC6e  1 3.650000e-01    2.340000e+00
  TP3q  SC5e  1 3.650000e-01    2.110000e+00
  TP3q  SC4e  1 3.650000e-01    1.910000e+00
  TP3q  SC3e  1 3.660000e-01    1.600000e+00
  TP3q  SC2e  1 3.660000e-01    1.600000e+00
  TP3q  SC1e  1 3.780000e-01    1.450000e+00
  TP3q  SX4e  1 3.650000e-01    2.340000e+00
  TP3q  SX3e  1 3.650000e-01    2.340000e+00
  TP3q  SX2e  1 3.650000e-01    2.110000e+00
  TP3q  SX1e  1 3.650000e-01    1.910000e+00
  TP6d  SP2q  1 3.650000e-01    3.640000e+00
  TP5d  SP2q  1 3.650000e-01    3.370000e+00
  TP4d  SP2q  1 3.650000e-01    3.370000e+00
  TP3d  SP2q  1 3.650000e-01    3.370000e+00
  TP2q  SP2d  1 3.650000e-01    3.370000e+00
  TP2q  SN1d  1 3.650000e-01    2.340000e+00
  TP2q  SN2d  1 3.650000e-01    2.340000e+00
  TP2q  SN3d  1 3.650000e-01    2.340000e+00
  TP2q  SN4d  1 3.650000e-01    2.570000e+00
  TP2q  SN5d  1 3.650000e-01    2.830000e+00
  TP2q  SN6d  1 3.650000e-01    3.100000e+00
  TP2q  SP1d  1 3.650000e-01    3.100000e+00
  TP6a  SP2q  1 3.650000e-01    3.640000e+00
  TP5a  SP2q  1 3.650000e-01    3.370000e+00
  TP4a  SP2q  1 3.650000e-01    3.370000e+00
  TP3a  SP2q  1 3.650000e-01    3.370000e+00
  TP2q  SP2a  1 3.650000e-01    3.370000e+00
  TP2q  SN1a  1 3.650000e-01    2.340000e+00
  TP2q  SN2a  1 3.650000e-01    2.340000e+00
  TP2q  SN3a  1 3.650000e-01    2.340000e+00
  TP2q  SN4a  1 3.650000e-01    2.570000e+00
  TP2q  SN5a  1 3.650000e-01    2.830000e+00
  TP2q  SN6a  1 3.650000e-01    3.100000e+00
  TP2q  SP1a  1 3.650000e-01    3.100000e+00
  TP2q  SC6v  1 3.650000e-01    2.340000e+00
  TP2q  SC5v  1 3.650000e-01    2.110000e+00
  TP2q  SC4v  1 3.650000e-01    1.910000e+00
  TP2q  SC3v  1 3.650000e-01    1.750000e+00
  TP2q  SC2v  1 3.650000e-01    1.750000e+00
  TP2q  SC1v  1 3.660000e-01    1.600000e+00
  TP2q  SX4v  1 3.650000e-01    2.340000e+00
  TP2q  SX3v  1 3.650000e-01    2.340000e+00
  TP2q  SX2v  1 3.650000e-01    2.110000e+00
  TP2q  SX1v  1 3.650000e-01    1.910000e+00
  TP2q  SC6e  1 3.650000e-01    2.340000e+00
  TP2q  SC5e  1 3.650000e-01    2.110000e+00
  TP2q  SC4e  1 3.650000e-01    1.910000e+00
  TP2q  SC3e  1 3.650000e-01    1.750000e+00
  TP2q  SC2e  1 3.650000e-01    1.750000e+00
  TP2q  SC1e  1 3.660000e-01    1.600000e+00
  TP2q  SX4e  1 3.650000e-01    2.340000e+00
  TP2q  SX3e  1 3.650000e-01    2.340000e+00
  TP2q  SX2e  1 3.650000e-01    2.110000e+00
  TP2q  SX1e  1 3.650000e-01    1.910000e+00
  TP6d  SP1q  1 3.650000e-01    3.370000e+00
  TP5d  SP1q  1 3.650000e-01    3.100000e+00
  TP4d  SP1q  1 3.650000e-01    3.100000e+00
  TP3d  SP1q  1 3.650000e-01    3.100000e+00
  TP2d  SP1q  1 3.650000e-01    3.100000e+00
  TP1q  SP1d  1 3.650000e-01    3.100000e+00
  TP1q  SN1d  1 3.650000e-01    2.340000e+00
  TP1q  SN2d  1 3.650000e-01    2.340000e+00
  TP1q  SN3d  1 3.650000e-01    2.340000e+00
  TP1q  SN4d  1 3.650000e-01    2.830000e+00
  TP1q  SN5d  1 3.650000e-01    2.830000e+00
  TP1q  SN6d  1 3.650000e-01    3.100000e+00
  TP6a  SP1q  1 3.650000e-01    3.370000e+00
  TP5a  SP1q  1 3.650000e-01    3.100000e+00
  TP4a  SP1q  1 3.650000e-01    3.100000e+00
  TP3a  SP1q  1 3.650000e-01    3.100000e+00
  TP2a  SP1q  1 3.650000e-01    3.100000e+00
  TP1q  SP1a  1 3.650000e-01    3.100000e+00
  TP1q  SN1a  1 3.650000e-01    2.340000e+00
  TP1q  SN2a  1 3.650000e-01    2.340000e+00
  TP1q  SN3a  1 3.650000e-01    2.340000e+00
  TP1q  SN4a  1 3.650000e-01    2.830000e+00
  TP1q  SN5a  1 3.650000e-01    2.830000e+00
  TP1q  SN6a  1 3.650000e-01    3.100000e+00
  TP1q  SC6v  1 3.650000e-01    2.340000e+00
  TP1q  SC5v  1 3.650000e-01    2.110000e+00
  TP1q  SC4v  1 3.650000e-01    1.910000e+00
  TP1q  SC3v  1 3.650000e-01    1.750000e+00
  TP1q  SC2v  1 3.650000e-01    1.750000e+00
  TP1q  SC1v  1 3.660000e-01    1.600000e+00
  TP1q  SX4v  1 3.650000e-01    2.340000e+00
  TP1q  SX3v  1 3.650000e-01    2.340000e+00
  TP1q  SX2v  1 3.650000e-01    2.110000e+00
  TP1q  SX1v  1 3.650000e-01    1.910000e+00
  TP1q  SC6e  1 3.650000e-01    2.340000e+00
  TP1q  SC5e  1 3.650000e-01    2.110000e+00
  TP1q  SC4e  1 3.650000e-01    1.910000e+00
  TP1q  SC3e  1 3.650000e-01    1.750000e+00
  TP1q  SC2e  1 3.650000e-01    1.750000e+00
  TP1q  SC1e  1 3.660000e-01    1.600000e+00
  TP1q  SX4e  1 3.650000e-01    2.340000e+00
  TP1q  SX3e  1 3.650000e-01    2.340000e+00
  TP1q  SX2e  1 3.650000e-01    2.110000e+00
  TP1q  SX1e  1 3.650000e-01    1.910000e+00
  TP6d  SN6q  1 3.650000e-01    3.100000e+00
  TP5d  SN6q  1 3.650000e-01    2.830000e+00
  TP4d  SN6q  1 3.650000e-01    2.830000e+00
  TP3d  SN6q  1 3.650000e-01    2.830000e+00
  TP2d  SN6q  1 3.650000e-01    3.100000e+00
  TP1d  SN6q  1 3.650000e-01    3.100000e+00
  TN6q  SN6d  1 3.650000e-01    3.100000e+00
  TN6q  SN1d  1 3.650000e-01    2.340000e+00
  TN6q  SN2d  1 3.650000e-01    2.340000e+00
  TN6q  SN3d  1 3.650000e-01    2.570000e+00
  TN6q  SN4d  1 3.650000e-01    3.100000e+00
  TN6q  SN5d  1 3.650000e-01    3.100000e+00
  TP6a  SN6q  1 3.650000e-01    3.100000e+00
  TP5a  SN6q  1 3.650000e-01    2.830000e+00
  TP4a  SN6q  1 3.650000e-01    2.830000e+00
  TP3a  SN6q  1 3.650000e-01    2.830000e+00
  TP2a  SN6q  1 3.650000e-01    3.100000e+00
  TP1a  SN6q  1 3.650000e-01    3.100000e+00
  TN6q  SN6a  1 3.650000e-01    3.100000e+00
  TN6q  SN1a  1 3.650000e-01    2.340000e+00
  TN6q  SN2a  1 3.650000e-01    2.340000e+00
  TN6q  SN3a  1 3.650000e-01    2.570000e+00
  TN6q  SN4a  1 3.650000e-01    3.100000e+00
  TN6q  SN5a  1 3.650000e-01    3.100000e+00
  TN6q  SC6v  1 3.650000e-01    2.570000e+00
  TN6q  SC5v  1 3.650000e-01    2.340000e+00
  TN6q  SC4v  1 3.650000e-01    2.110000e+00
  TN6q  SC3v  1 3.650000e-01    1.910000e+00
  TN6q  SC2v  1 3.650000e-01    1.910000e+00
  TN6q  SC1v  1 3.650000e-01    1.750000e+00
  TN6q  SX4v  1 3.650000e-01    2.570000e+00
  TN6q  SX3v  1 3.650000e-01    2.340000e+00
  TN6q  SX2v  1 3.650000e-01    2.110000e+00
  TN6q  SX1v  1 3.650000e-01    1.910000e+00
  TN6q  SC6e  1 3.650000e-01    2.570000e+00
  TN6q  SC5e  1 3.650000e-01    2.340000e+00
  TN6q  SC4e  1 3.650000e-01    2.110000e+00
  TN6q  SC3e  1 3.650000e-01    1.910000e+00
  TN6q  SC2e  1 3.650000e-01    1.910000e+00
  TN6q  SC1e  1 3.650000e-01    1.750000e+00
  TN6q  SX4e  1 3.650000e-01    2.570000e+00
  TN6q  SX3e  1 3.650000e-01    2.340000e+00
  TN6q  SX2e  1 3.650000e-01    2.110000e+00
  TN6q  SX1e  1 3.650000e-01    1.910000e+00
  TP6d  SN5q  1 3.650000e-01    2.570000e+00
  TP5d  SN5q  1 3.650000e-01    2.570000e+00
  TP4d  SN5q  1 3.650000e-01    2.570000e+00
  TP3d  SN5q  1 3.650000e-01    2.570000e+00
  TP2d  SN5q  1 3.650000e-01    2.830000e+00
  TP1d  SN5q  1 3.650000e-01    2.830000e+00
  TN6d  SN5q  1 3.650000e-01    3.100000e+00
  TN5q  SN5d  1 3.650000e-01    2.830000e+00
  TN5q  SN1d  1 3.650000e-01    2.340000e+00
  TN5q  SN2d  1 3.650000e-01    2.570000e+00
  TN5q  SN3d  1 3.650000e-01    2.570000e+00
  TN5q  SN4d  1 3.650000e-01    2.830000e+00
  TP6a  SN5q  1 3.650000e-01    2.570000e+00
  TP5a  SN5q  1 3.650000e-01    2.570000e+00
  TP4a  SN5q  1 3.650000e-01    2.570000e+00
  TP3a  SN5q  1 3.650000e-01    2.570000e+00
  TP2a  SN5q  1 3.650000e-01    2.830000e+00
  TP1a  SN5q  1 3.650000e-01    2.830000e+00
  TN6a  SN5q  1 3.650000e-01    3.100000e+00
  TN5q  SN5a  1 3.650000e-01    2.830000e+00
  TN5q  SN1a  1 3.650000e-01    2.340000e+00
  TN5q  SN2a  1 3.650000e-01    2.570000e+00
  TN5q  SN3a  1 3.650000e-01    2.570000e+00
  TN5q  SN4a  1 3.650000e-01    2.830000e+00
  TN5q  SC6v  1 3.650000e-01    2.570000e+00
  TN5q  SC5v  1 3.650000e-01    2.340000e+00
  TN5q  SC4v  1 3.650000e-01    2.110000e+00
  TN5q  SC3v  1 3.650000e-01    2.110000e+00
  TN5q  SC2v  1 3.650000e-01    1.910000e+00
  TN5q  SC1v  1 3.650000e-01    1.750000e+00
  TN5q  SX4v  1 3.650000e-01    2.830000e+00
  TN5q  SX3v  1 3.650000e-01    2.570000e+00
  TN5q  SX2v  1 3.650000e-01    2.340000e+00
  TN5q  SX1v  1 3.650000e-01    2.110000e+00
  TN5q  SC6e  1 3.650000e-01    2.570000e+00
  TN5q  SC5e  1 3.650000e-01    2.340000e+00
  TN5q  SC4e  1 3.650000e-01    2.110000e+00
  TN5q  SC3e  1 3.650000e-01    2.110000e+00
  TN5q  SC2e  1 3.650000e-01    1.910000e+00
  TN5q  SC1e  1 3.650000e-01    1.750000e+00
  TN5q  SX4e  1 3.650000e-01    2.830000e+00
  TN5q  SX3e  1 3.650000e-01    2.570000e+00
  TN5q  SX2e  1 3.650000e-01    2.340000e+00
  TN5q  SX1e  1 3.650000e-01    2.110000e+00
  TP6d  SN4q  1 3.650000e-01    2.340000e+00
  TP5d  SN4q  1 3.650000e-01    2.570000e+00
  TP4d  SN4q  1 3.650000e-01    2.570000e+00
  TP3d  SN4q  1 3.650000e-01    2.570000e+00
  TP2d  SN4q  1 3.650000e-01    2.570000e+00
  TP1d  SN4q  1 3.650000e-01    2.830000e+00
  TN6d  SN4q  1 3.650000e-01    3.100000e+00
  TN5d  SN4q  1 3.650000e-01    2.830000e+00
  TN4q  SN4d  1 3.650000e-01    2.830000e+00
  TN4q  SN1d  1 3.650000e-01    2.340000e+00
  TN4q  SN2d  1 3.650000e-01    2.570000e+00
  TN4q  SN3d  1 3.650000e-01    2.570000e+00
  TP6a  SN4q  1 3.650000e-01    2.340000e+00
  TP5a  SN4q  1 3.650000e-01    2.570000e+00
  TP4a  SN4q  1 3.650000e-01    2.570000e+00
  TP3a  SN4q  1 3.650000e-01    2.570000e+00
  TP2a  SN4q  1 3.650000e-01    2.570000e+00
  TP1a  SN4q  1 3.650000e-01    2.830000e+00
  TN6a  SN4q  1 3.650000e-01    3.100000e+00
  TN5a  SN4q  1 3.650000e-01    2.830000e+00
  TN4q  SN4a  1 3.650000e-01    2.830000e+00
  TN4q  SN1a  1 3.650000e-01    2.340000e+00
  TN4q  SN2a  1 3.650000e-01    2.570000e+00
  TN4q  SN3a  1 3.650000e-01    2.570000e+00
  TN4q  SC6v  1 3.650000e-01    2.570000e+00
  TN4q  SC5v  1 3.650000e-01    2.340000e+00
  TN4q  SC4v  1 3.650000e-01    2.340000e+00
  TN4q  SC3v  1 3.650000e-01    2.110000e+00
  TN4q  SC2v  1 3.650000e-01    1.910000e+00
  TN4q  SC1v  1 3.650000e-01    1.750000e+00
  TN4q  SX4v  1 3.650000e-01    3.100000e+00
  TN4q  SX3v  1 3.650000e-01    2.830000e+00
  TN4q  SX2v  1 3.650000e-01    2.340000e+00
  TN4q  SX1v  1 3.650000e-01    2.110000e+00
  TN4q  SC6e  1 3.650000e-01    2.570000e+00
  TN4q  SC5e  1 3.650000e-01    2.340000e+00
  TN4q  SC4e  1 3.650000e-01    2.340000e+00
  TN4q  SC3e  1 3.650000e-01    2.110000e+00
  TN4q  SC2e  1 3.650000e-01    1.910000e+00
  TN4q  SC1e  1 3.650000e-01    1.750000e+00
  TN4q  SX4e  1 3.650000e-01    3.100000e+00
  TN4q  SX3e  1 3.650000e-01    2.830000e+00
  TN4q  SX2e  1 3.650000e-01    2.340000e+00
  TN4q  SX1e  1 3.650000e-01    2.110000e+00
  TP6d  SN3q  1 3.650000e-01    2.110000e+00
  TP5d  SN3q  1 3.650000e-01    2.110000e+00
  TP4d  SN3q  1 3.650000e-01    2.340000e+00
  TP3d  SN3q  1 3.650000e-01    2.340000e+00
  TP2d  SN3q  1 3.650000e-01    2.340000e+00
  TP1d  SN3q  1 3.650000e-01    2.340000e+00
  TN6d  SN3q  1 3.650000e-01    2.570000e+00
  TN5d  SN3q  1 3.650000e-01    2.570000e+00
  TN4d  SN3q  1 3.650000e-01    2.570000e+00
  TN3q  SN3d  1 3.650000e-01    2.570000e+00
  TN3q  SN1d  1 3.650000e-01    2.340000e+00
  TN3q  SN2d  1 3.650000e-01    2.570000e+00
  TP6a  SN3q  1 3.650000e-01    2.110000e+00
  TP5a  SN3q  1 3.650000e-01    2.110000e+00
  TP4a  SN3q  1 3.650000e-01    2.340000e+00
  TP3a  SN3q  1 3.650000e-01    2.340000e+00
  TP2a  SN3q  1 3.650000e-01    2.340000e+00
  TP1a  SN3q  1 3.650000e-01    2.340000e+00
  TN6a  SN3q  1 3.650000e-01    2.570000e+00
  TN5a  SN3q  1 3.650000e-01    2.570000e+00
  TN4a  SN3q  1 3.650000e-01    2.570000e+00
  TN3q  SN3a  1 3.650000e-01    2.570000e+00
  TN3q  SN1a  1 3.650000e-01    2.340000e+00
  TN3q  SN2a  1 3.650000e-01    2.570000e+00
  TN3q  SC6v  1 3.650000e-01    2.570000e+00
  TN3q  SC5v  1 3.650000e-01    2.340000e+00
  TN3q  SC4v  1 3.650000e-01    2.340000e+00
  TN3q  SC3v  1 3.650000e-01    2.110000e+00
  TN3q  SC2v  1 3.650000e-01    2.110000e+00
  TN3q  SC1v  1 3.650000e-01    1.910000e+00
  TN3q  SX4v  1 3.650000e-01    2.830000e+00
  TN3q  SX3v  1 3.650000e-01    2.570000e+00
  TN3q  SX2v  1 3.650000e-01    2.340000e+00
  TN3q  SX1v  1 3.650000e-01    2.340000e+00
  TN3q  SC6e  1 3.650000e-01    2.570000e+00
  TN3q  SC5e  1 3.650000e-01    2.340000e+00
  TN3q  SC4e  1 3.650000e-01    2.340000e+00
  TN3q  SC3e  1 3.650000e-01    2.110000e+00
  TN3q  SC2e  1 3.650000e-01    2.110000e+00
  TN3q  SC1e  1 3.650000e-01    1.910000e+00
  TN3q  SX4e  1 3.650000e-01    2.830000e+00
  TN3q  SX3e  1 3.650000e-01    2.570000e+00
  TN3q  SX2e  1 3.650000e-01    2.340000e+00
  TN3q  SX1e  1 3.650000e-01    2.340000e+00
  TP6d  SN2q  1 3.650000e-01    1.910000e+00
  TP5d  SN2q  1 3.650000e-01    1.910000e+00
  TP4d  SN2q  1 3.650000e-01    2.110000e+00
  TP3d  SN2q  1 3.650000e-01    2.340000e+00
  TP2d  SN2q  1 3.650000e-01    2.340000e+00
  TP1d  SN2q  1 3.650000e-01    2.340000e+00
  TN6d  SN2q  1 3.650000e-01    2.340000e+00
  TN5d  SN2q  1 3.650000e-01    2.570000e+00
  TN4d  SN2q  1 3.650000e-01    2.570000e+00
  TN3d  SN2q  1 3.650000e-01    2.570000e+00
  TN2q  SN2d  1 3.650000e-01    2.570000e+00
  TN2q  SN1d  1 3.650000e-01    2.340000e+00
  TP6a  SN2q  1 3.650000e-01    1.910000e+00
  TP5a  SN2q  1 3.650000e-01    1.910000e+00
  TP4a  SN2q  1 3.650000e-01    2.110000e+00
  TP3a  SN2q  1 3.650000e-01    2.340000e+00
  TP2a  SN2q  1 3.650000e-01    2.340000e+00
  TP1a  SN2q  1 3.650000e-01    2.340000e+00
  TN6a  SN2q  1 3.650000e-01    2.340000e+00
  TN5a  SN2q  1 3.650000e-01    2.570000e+00
  TN4a  SN2q  1 3.650000e-01    2.570000e+00
  TN3a  SN2q  1 3.650000e-01    2.570000e+00
  TN2q  SN2a  1 3.650000e-01    2.570000e+00
  TN2q  SN1a  1 3.650000e-01    2.340000e+00
  TN2q  SC6v  1 3.650000e-01    2.570000e+00
  TN2q  SC5v  1 3.650000e-01    2.340000e+00
  TN2q  SC4v  1 3.650000e-01    2.340000e+00
  TN2q  SC3v  1 3.650000e-01    2.340000e+00
  TN2q  SC2v  1 3.650000e-01    2.110000e+00
  TN2q  SC1v  1 3.650000e-01    1.910000e+00
  TN2q  SX4v  1 3.650000e-01    2.830000e+00
  TN2q  SX3v  1 3.650000e-01    2.570000e+00
  TN2q  SX2v  1 3.650000e-01    2.340000e+00
  TN2q  SX1v  1 3.650000e-01    2.340000e+00
  TN2q  SC6e  1 3.650000e-01    2.570000e+00
  TN2q  SC5e  1 3.650000e-01    2.340000e+00
  TN2q  SC4e  1 3.650000e-01    2.340000e+00
  TN2q  SC3e  1 3.650000e-01    2.340000e+00
  TN2q  SC2e  1 3.650000e-01    2.110000e+00
  TN2q  SC1e  1 3.650000e-01    1.910000e+00
  TN2q  SX4e  1 3.650000e-01    2.830000e+00
  TN2q  SX3e  1 3.650000e-01    2.570000e+00
  TN2q  SX2e  1 3.650000e-01    2.340000e+00
  TN2q  SX1e  1 3.650000e-01    2.340000e+00
  TP6d  SN1q  1 3.650000e-01    1.750000e+00
  TP5d  SN1q  1 3.650000e-01    1.750000e+00
  TP4d  SN1q  1 3.650000e-01    1.910000e+00
  TP3d  SN1q  1 3.650000e-01    2.110000e+00
  TP2d  SN1q  1 3.650000e-01    2.340000e+00
  TP1d  SN1q  1 3.650000e-01    2.340000e+00
  TN6d  SN1q  1 3.650000e-01    2.340000e+00
  TN5d  SN1q  1 3.650000e-01    2.340000e+00
  TN4d  SN1q  1 3.650000e-01    2.340000e+00
  TN3d  SN1q  1 3.650000e-01    2.340000e+00
  TN2d  SN1q  1 3.650000e-01    2.340000e+00
  TN1q  SN1d  1 3.650000e-01    2.570000e+00
  TP6a  SN1q  1 3.650000e-01    1.750000e+00
  TP5a  SN1q  1 3.650000e-01    1.750000e+00
  TP4a  SN1q  1 3.650000e-01    1.910000e+00
  TP3a  SN1q  1 3.650000e-01    2.110000e+00
  TP2a  SN1q  1 3.650000e-01    2.340000e+00
  TP1a  SN1q  1 3.650000e-01    2.340000e+00
  TN6a  SN1q  1 3.650000e-01    2.340000e+00
  TN5a  SN1q  1 3.650000e-01    2.340000e+00
  TN4a  SN1q  1 3.650000e-01    2.340000e+00
  TN3a  SN1q  1 3.650000e-01    2.340000e+00
  TN2a  SN1q  1 3.650000e-01    2.340000e+00
  TN1q  SN1a  1 3.650000e-01    2.570000e+00
  TN1q  SC6v  1 3.650000e-01    2.830000e+00
  TN1q  SC5v  1 3.650000e-01    2.570000e+00
  TN1q  SC4v  1 3.650000e-01    2.570000e+00
  TN1q  SC3v  1 3.650000e-01    2.340000e+00
  TN1q  SC2v  1 3.650000e-01    2.110000e+00
  TN1q  SC1v  1 3.650000e-01    1.910000e+00
  TN1q  SX4v  1 3.650000e-01    2.570000e+00
  TN1q  SX3v  1 3.650000e-01    2.570000e+00
  TN1q  SX2v  1 3.650000e-01    2.340000e+00
  TN1q  SX1v  1 3.650000e-01    2.340000e+00
  TN1q  SC6e  1 3.650000e-01    2.830000e+00
  TN1q  SC5e  1 3.650000e-01    2.570000e+00
  TN1q  SC4e  1 3.650000e-01    2.570000e+00
  TN1q  SC3e  1 3.650000e-01    2.340000e+00
  TN1q  SC2e  1 3.650000e-01    2.110000e+00
  TN1q  SC1e  1 3.650000e-01    1.910000e+00
  TN1q  SX4e  1 3.650000e-01    2.570000e+00
  TN1q  SX3e  1 3.650000e-01    2.570000e+00
  TN1q  SX2e  1 3.650000e-01    2.340000e+00
  TN1q  SX1e  1 3.650000e-01    2.340000e+00
  TP6d  SC6q  1 3.650000e-01    1.750000e+00
  TP5d  SC6q  1 3.650000e-01    1.750000e+00
  TP4d  SC6q  1 3.650000e-01    1.910000e+00
  TP3d  SC6q  1 3.650000e-01    2.110000e+00
  TP2d  SC6q  1 3.650000e-01    2.110000e+00
  TP1d  SC6q  1 3.650000e-01    2.110000e+00
  TN6d  SC6q  1 3.650000e-01    2.340000e+00
  TN5d  SC6q  1 3.650000e-01    2.340000e+00
  TN4d  SC6q  1 3.650000e-01    2.340000e+00
  TN3d  SC6q  1 3.650000e-01    2.340000e+00
  TN2d  SC6q  1 3.650000e-01    2.340000e+00
  TN1d  SC6q  1 3.650000e-01    2.570000e+00
  TP6a  SC6q  1 3.650000e-01    1.750000e+00
  TP5a  SC6q  1 3.650000e-01    1.750000e+00
  TP4a  SC6q  1 3.650000e-01    1.910000e+00
  TP3a  SC6q  1 3.650000e-01    2.110000e+00
  TP2a  SC6q  1 3.650000e-01    2.110000e+00
  TP1a  SC6q  1 3.650000e-01    2.110000e+00
  TN6a  SC6q  1 3.650000e-01    2.340000e+00
  TN5a  SC6q  1 3.650000e-01    2.340000e+00
  TN4a  SC6q  1 3.650000e-01    2.340000e+00
  TN3a  SC6q  1 3.650000e-01    2.340000e+00
  TN2a  SC6q  1 3.650000e-01    2.340000e+00
  TN1a  SC6q  1 3.650000e-01    2.570000e+00
  TC6q  SC6v  1 3.650000e-01    2.830000e+00
  TC6q  SX1v  1 3.650000e-01    2.570000e+00
  TC6q  SX2v  1 3.650000e-01    2.570000e+00
  TC6q  SX3v  1 3.650000e-01    2.570000e+00
  TC6q  SX4v  1 3.650000e-01    2.570000e+00
  TC6q  SC1v  1 3.650000e-01    1.910000e+00
  TC6q  SC2v  1 3.650000e-01    2.110000e+00
  TC6q  SC3v  1 3.650000e-01    2.340000e+00
  TC6q  SC4v  1 3.650000e-01    2.570000e+00
  TC6q  SC5v  1 3.650000e-01    2.570000e+00
  TC6q  SC6e  1 3.650000e-01    2.830000e+00
  TC6q  SX1e  1 3.650000e-01    2.570000e+00
  TC6q  SX2e  1 3.650000e-01    2.570000e+00
  TC6q  SX3e  1 3.650000e-01    2.570000e+00
  TC6q  SX4e  1 3.650000e-01    2.570000e+00
  TC6q  SC1e  1 3.650000e-01    1.910000e+00
  TC6q  SC2e  1 3.650000e-01    2.110000e+00
  TC6q  SC3e  1 3.650000e-01    2.340000e+00
  TC6q  SC4e  1 3.650000e-01    2.570000e+00
  TC6q  SC5e  1 3.650000e-01    2.570000e+00
  TP6d  SC5q  1 3.660000e-01    1.600000e+00
  TP5d  SC5q  1 3.650000e-01    1.750000e+00
  TP4d  SC5q  1 3.650000e-01    1.750000e+00
  TP3d  SC5q  1 3.650000e-01    1.910000e+00
  TP2d  SC5q  1 3.650000e-01    1.910000e+00
  TP1d  SC5q  1 3.650000e-01    1.910000e+00
  TN6d  SC5q  1 3.650000e-01    2.110000e+00
  TN5d  SC5q  1 3.650000e-01    2.110000e+00
  TN4d  SC5q  1 3.650000e-01    2.110000e+00
  TN3d  SC5q  1 3.650000e-01    2.110000e+00
  TN2d  SC5q  1 3.650000e-01    2.110000e+00
  TN1d  SC5q  1 3.650000e-01    2.340000e+00
  TP6a  SC5q  1 3.660000e-01    1.600000e+00
  TP5a  SC5q  1 3.650000e-01    1.750000e+00
  TP4a  SC5q  1 3.650000e-01    1.750000e+00
  TP3a  SC5q  1 3.650000e-01    1.910000e+00
  TP2a  SC5q  1 3.650000e-01    1.910000e+00
  TP1a  SC5q  1 3.650000e-01    1.910000e+00
  TN6a  SC5q  1 3.650000e-01    2.110000e+00
  TN5a  SC5q  1 3.650000e-01    2.110000e+00
  TN4a  SC5q  1 3.650000e-01    2.110000e+00
  TN3a  SC5q  1 3.650000e-01    2.110000e+00
  TN2a  SC5q  1 3.650000e-01    2.110000e+00
  TN1a  SC5q  1 3.650000e-01    2.340000e+00
  TC6v  SC5q  1 3.650000e-01    2.570000e+00
  TC5q  SC5v  1 3.650000e-01    2.570000e+00
  TC5q  SX1v  1 3.650000e-01    2.570000e+00
  TC5q  SX2v  1 3.650000e-01    2.340000e+00
  TC5q  SX3v  1 3.650000e-01    2.340000e+00
  TC5q  SX4v  1 3.650000e-01    2.340000e+00
  TC5q  SC1v  1 3.650000e-01    2.110000e+00
  TC5q  SC2v  1 3.650000e-01    2.110000e+00
  TC5q  SC3v  1 3.650000e-01    2.340000e+00
  TC5q  SC4v  1 3.650000e-01    2.570000e+00
  TC6e  SC5q  1 3.650000e-01    2.570000e+00
  TC5q  SC5e  1 3.650000e-01    2.570000e+00
  TC5q  SX1e  1 3.650000e-01    2.570000e+00
  TC5q  SX2e  1 3.650000e-01    2.340000e+00
  TC5q  SX3e  1 3.650000e-01    2.340000e+00
  TC5q  SX4e  1 3.650000e-01    2.340000e+00
  TC5q  SC1e  1 3.650000e-01    2.110000e+00
  TC5q  SC2e  1 3.650000e-01    2.110000e+00
  TC5q  SC3e  1 3.650000e-01    2.340000e+00
  TC5q  SC4e  1 3.650000e-01    2.570000e+00
  TP6d  SC4q  1 3.780000e-01    1.450000e+00
  TP5d  SC4q  1 3.660000e-01    1.600000e+00
  TP4d  SC4q  1 3.660000e-01    1.600000e+00
  TP3d  SC4q  1 3.650000e-01    1.750000e+00
  TP2d  SC4q  1 3.650000e-01    1.750000e+00
  TP1d  SC4q  1 3.650000e-01    1.750000e+00
  TN6d  SC4q  1 3.650000e-01    1.910000e+00
  TN5d  SC4q  1 3.650000e-01    1.910000e+00
  TN4d  SC4q  1 3.650000e-01    2.110000e+00
  TN3d  SC4q  1 3.650000e-01    2.110000e+00
  TN2d  SC4q  1 3.650000e-01    2.110000e+00
  TN1d  SC4q  1 3.650000e-01    2.340000e+00
  TP6a  SC4q  1 3.780000e-01    1.450000e+00
  TP5a  SC4q  1 3.660000e-01    1.600000e+00
  TP4a  SC4q  1 3.660000e-01    1.600000e+00
  TP3a  SC4q  1 3.650000e-01    1.750000e+00
  TP2a  SC4q  1 3.650000e-01    1.750000e+00
  TP1a  SC4q  1 3.650000e-01    1.750000e+00
  TN6a  SC4q  1 3.650000e-01    1.910000e+00
  TN5a  SC4q  1 3.650000e-01    1.910000e+00
  TN4a  SC4q  1 3.650000e-01    2.110000e+00
  TN3a  SC4q  1 3.650000e-01    2.110000e+00
  TN2a  SC4q  1 3.650000e-01    2.110000e+00
  TN1a  SC4q  1 3.650000e-01    2.340000e+00
  TC6v  SC4q  1 3.650000e-01    2.570000e+00
  TC5v  SC4q  1 3.650000e-01    2.570000e+00
  TC4q  SC4v  1 3.650000e-01    2.570000e+00
  TC4q  SX1v  1 3.650000e-01    2.570000e+00
  TC4q  SX2v  1 3.650000e-01    2.340000e+00
  TC4q  SX3v  1 3.650000e-01    2.340000e+00
  TC4q  SX4v  1 3.650000e-01    2.340000e+00
  TC4q  SC1v  1 3.650000e-01    2.110000e+00
  TC4q  SC2v  1 3.650000e-01    2.340000e+00
  TC4q  SC3v  1 3.650000e-01    2.570000e+00
  TC6e  SC4q  1 3.650000e-01    2.570000e+00
  TC5e  SC4q  1 3.650000e-01    2.570000e+00
  TC4q  SC4e  1 3.650000e-01    2.570000e+00
  TC4q  SX1e  1 3.650000e-01    2.570000e+00
  TC4q  SX2e  1 3.650000e-01    2.340000e+00
  TC4q  SX3e  1 3.650000e-01    2.340000e+00
  TC4q  SX4e  1 3.650000e-01    2.340000e+00
  TC4q  SC1e  1 3.650000e-01    2.110000e+00
  TC4q  SC2e  1 3.650000e-01    2.340000e+00
  TC4q  SC3e  1 3.650000e-01    2.570000e+00
  TP6d  SC3q  1 3.940000e-01    1.290000e+00
  TP5d  SC3q  1 3.780000e-01    1.450000e+00
  TP4d  SC3q  1 3.780000e-01    1.450000e+00
  TP3d  SC3q  1 3.780000e-01    1.450000e+00
  TP2d  SC3q  1 3.660000e-01    1.600000e+00
  TP1d  SC3q  1 3.660000e-01    1.600000e+00
  TN6d  SC3q  1 3.650000e-01    1.750000e+00
  TN5d  SC3q  1 3.650000e-01    1.910000e+00
  TN4d  SC3q  1 3.650000e-01    1.910000e+00
  TN3d  SC3q  1 3.650000e-01    1.910000e+00
  TN2d  SC3q  1 3.650000e-01    2.110000e+00
  TN1d  SC3q  1 3.650000e-01    2.110000e+00
  TP6a  SC3q  1 3.940000e-01    1.290000e+00
  TP5a  SC3q  1 3.780000e-01    1.450000e+00
  TP4a  SC3q  1 3.780000e-01    1.450000e+00
  TP3a  SC3q  1 3.780000e-01    1.450000e+00
  TP2a  SC3q  1 3.660000e-01    1.600000e+00
  TP1a  SC3q  1 3.660000e-01    1.600000e+00
  TN6a  SC3q  1 3.650000e-01    1.750000e+00
  TN5a  SC3q  1 3.650000e-01    1.910000e+00
  TN4a  SC3q  1 3.650000e-01    1.910000e+00
  TN3a  SC3q  1 3.650000e-01    1.910000e+00
  TN2a  SC3q  1 3.650000e-01    2.110000e+00
  TN1a  SC3q  1 3.650000e-01    2.110000e+00
  TC6v  SC3q  1 3.650000e-01    2.340000e+00
  TC5v  SC3q  1 3.650000e-01    2.340000e+00
  TC4v  SC3q  1 3.650000e-01    2.570000e+00
  TC3q  SC3v  1 3.650000e-01    2.570000e+00
  TC3q  SX1v  1 3.650000e-01    2.570000e+00
  TC3q  SX2v  1 3.650000e-01    2.340000e+00
  TC3q  SX3v  1 3.650000e-01    2.340000e+00
  TC3q  SX4v  1 3.650000e-01    2.340000e+00
  TC3q  SC1v  1 3.650000e-01    2.570000e+00
  TC3q  SC2v  1 3.650000e-01    2.570000e+00
  TC6e  SC3q  1 3.650000e-01    2.340000e+00
  TC5e  SC3q  1 3.650000e-01    2.340000e+00
  TC4e  SC3q  1 3.650000e-01    2.570000e+00
  TC3q  SC3e  1 3.650000e-01    2.570000e+00
  TC3q  SX1e  1 3.650000e-01    2.570000e+00
  TC3q  SX2e  1 3.650000e-01    2.340000e+00
  TC3q  SX3e  1 3.650000e-01    2.340000e+00
  TC3q  SX4e  1 3.650000e-01    2.340000e+00
  TC3q  SC1e  1 3.650000e-01    2.570000e+00
  TC3q  SC2e  1 3.650000e-01    2.570000e+00
  TP6d  SC2q  1 3.940000e-01    1.290000e+00
  TP5d  SC2q  1 3.780000e-01    1.450000e+00
  TP4d  SC2q  1 3.780000e-01    1.450000e+00
  TP3d  SC2q  1 3.780000e-01    1.450000e+00
  TP2d  SC2q  1 3.660000e-01    1.600000e+00
  TP1d  SC2q  1 3.660000e-01    1.600000e+00
  TN6d  SC2q  1 3.650000e-01    1.750000e+00
  TN5d  SC2q  1 3.650000e-01    1.750000e+00
  TN4d  SC2q  1 3.650000e-01    1.750000e+00
  TN3d  SC2q  1 3.650000e-01    1.910000e+00
  TN2d  SC2q  1 3.650000e-01    1.910000e+00
  TN1d  SC2q  1 3.650000e-01    1.910000e+00
  TP6a  SC2q  1 3.940000e-01    1.290000e+00
  TP5a  SC2q  1 3.780000e-01    1.450000e+00
  TP4a  SC2q  1 3.780000e-01    1.450000e+00
  TP3a  SC2q  1 3.780000e-01    1.450000e+00
  TP2a  SC2q  1 3.660000e-01    1.600000e+00
  TP1a  SC2q  1 3.660000e-01    1.600000e+00
  TN6a  SC2q  1 3.650000e-01    1.750000e+00
  TN5a  SC2q  1 3.650000e-01    1.750000e+00
  TN4a  SC2q  1 3.650000e-01    1.750000e+00
  TN3a  SC2q  1 3.650000e-01    1.910000e+00
  TN2a  SC2q  1 3.650000e-01    1.910000e+00
  TN1a  SC2q  1 3.650000e-01    1.910000e+00
  TC6v  SC2q  1 3.650000e-01    2.110000e+00
  TC5v  SC2q  1 3.650000e-01    2.110000e+00
  TC4v  SC2q  1 3.650000e-01    2.340000e+00
  TC3v  SC2q  1 3.650000e-01    2.570000e+00
  TC2q  SC2v  1 3.650000e-01    2.570000e+00
  TC2q  SX1v  1 3.650000e-01    2.340000e+00
  TC2q  SX2v  1 3.650000e-01    2.340000e+00
  TC2q  SX3v  1 3.650000e-01    2.340000e+00
  TC2q  SX4v  1 3.650000e-01    1.910000e+00
  TC2q  SC1v  1 3.650000e-01    2.830000e+00
  TC6e  SC2q  1 3.650000e-01    2.110000e+00
  TC5e  SC2q  1 3.650000e-01    2.110000e+00
  TC4e  SC2q  1 3.650000e-01    2.340000e+00
  TC3e  SC2q  1 3.650000e-01    2.570000e+00
  TC2q  SC2e  1 3.650000e-01    2.570000e+00
  TC2q  SX1e  1 3.650000e-01    2.340000e+00
  TC2q  SX2e  1 3.650000e-01    2.340000e+00
  TC2q  SX3e  1 3.650000e-01    2.340000e+00
  TC2q  SX4e  1 3.650000e-01    1.910000e+00
  TC2q  SC1e  1 3.650000e-01    2.830000e+00
  TP6d  SC1q  1 4.090000e-01    1.080000e+00
  TP5d  SC1q  1 3.940000e-01    1.290000e+00
  TP4d  SC1q  1 3.940000e-01    1.290000e+00
  TP3d  SC1q  1 3.940000e-01    1.290000e+00
  TP2d  SC1q  1 3.780000e-01    1.450000e+00
  TP1d  SC1q  1 3.780000e-01    1.450000e+00
  TN6d  SC1q  1 3.660000e-01    1.600000e+00
  TN5d  SC1q  1 3.660000e-01    1.600000e+00
  TN4d  SC1q  1 3.660000e-01    1.600000e+00
  TN3d  SC1q  1 3.650000e-01    1.750000e+00
  TN2d  SC1q  1 3.650000e-01    1.750000e+00
  TN1d  SC1q  1 3.650000e-01    1.750000e+00
  TP6a  SC1q  1 4.090000e-01    1.080000e+00
  TP5a  SC1q  1 3.940000e-01    1.290000e+00
  TP4a  SC1q  1 3.940000e-01    1.290000e+00
  TP3a  SC1q  1 3.940000e-01    1.290000e+00
  TP2a  SC1q  1 3.780000e-01    1.450000e+00
  TP1a  SC1q  1 3.780000e-01    1.450000e+00
  TN6a  SC1q  1 3.660000e-01    1.600000e+00
  TN5a  SC1q  1 3.660000e-01    1.600000e+00
  TN4a  SC1q  1 3.660000e-01    1.600000e+00
  TN3a  SC1q  1 3.650000e-01    1.750000e+00
  TN2a  SC1q  1 3.650000e-01    1.750000e+00
  TN1a  SC1q  1 3.650000e-01    1.750000e+00
  TC6v  SC1q  1 3.650000e-01    1.910000e+00
  TC5v  SC1q  1 3.650000e-01    2.110000e+00
  TC4v  SC1q  1 3.650000e-01    2.110000e+00
  TC3v  SC1q  1 3.650000e-01    2.570000e+00
  TC2v  SC1q  1 3.650000e-01    2.830000e+00
  TC1q  SC1v  1 3.650000e-01    2.570000e+00
  TC1q  SX1v  1 3.650000e-01    2.340000e+00
  TC1q  SX2v  1 3.650000e-01    2.340000e+00
  TC1q  SX3v  1 3.650000e-01    2.340000e+00
  TC1q  SX4v  1 3.650000e-01    1.910000e+00
  TC6e  SC1q  1 3.650000e-01    1.910000e+00
  TC5e  SC1q  1 3.650000e-01    2.110000e+00
  TC4e  SC1q  1 3.650000e-01    2.110000e+00
  TC3e  SC1q  1 3.650000e-01    2.570000e+00
  TC2e  SC1q  1 3.650000e-01    2.830000e+00
  TC1q  SC1e  1 3.650000e-01    2.570000e+00
  TC1q  SX1e  1 3.650000e-01    2.340000e+00
  TC1q  SX2e  1 3.650000e-01    2.340000e+00
  TC1q  SX3e  1 3.650000e-01    2.340000e+00
  TC1q  SX4e  1 3.650000e-01    1.910000e+00
  TP6d  SX4q  1 3.650000e-01    1.910000e+00
  TP5d  SX4q  1 3.650000e-01    2.110000e+00
  TP4d  SX4q  1 3.650000e-01    2.110000e+00
  TP3d  SX4q  1 3.650000e-01    2.110000e+00
  TP2d  SX4q  1 3.650000e-01    2.110000e+00
  TP1d  SX4q  1 3.650000e-01    2.110000e+00
  TN6d  SX4q  1 3.650000e-01    2.340000e+00
  TN5d  SX4q  1 3.650000e-01    2.570000e+00
  TN4d  SX4q  1 3.650000e-01    2.830000e+00
  TN3d  SX4q  1 3.650000e-01    2.570000e+00
  TN2d  SX4q  1 3.650000e-01    2.570000e+00
  TN1d  SX4q  1 3.650000e-01    2.340000e+00
  TP6a  SX4q  1 3.650000e-01    1.910000e+00
  TP5a  SX4q  1 3.650000e-01    2.110000e+00
  TP4a  SX4q  1 3.650000e-01    2.110000e+00
  TP3a  SX4q  1 3.650000e-01    2.110000e+00
  TP2a  SX4q  1 3.650000e-01    2.110000e+00
  TP1a  SX4q  1 3.650000e-01    2.110000e+00
  TN6a  SX4q  1 3.650000e-01    2.340000e+00
  TN5a  SX4q  1 3.650000e-01    2.570000e+00
  TN4a  SX4q  1 3.650000e-01    2.830000e+00
  TN3a  SX4q  1 3.650000e-01    2.570000e+00
  TN2a  SX4q  1 3.650000e-01    2.570000e+00
  TN1a  SX4q  1 3.650000e-01    2.340000e+00
  TC6v  SX4q  1 3.650000e-01    2.570000e+00
  TC5v  SX4q  1 3.650000e-01    2.340000e+00
  TC4v  SX4q  1 3.650000e-01    2.340000e+00
  TC3v  SX4q  1 3.650000e-01    2.340000e+00
  TC2v  SX4q  1 3.650000e-01    1.910000e+00
  TC1v  SX4q  1 3.650000e-01    1.910000e+00
  TX4q  SX4v  1 3.650000e-01    2.570000e+00
  TX4q  SX1v  1 3.650000e-01    2.570000e+00
  TX4q  SX2v  1 3.650000e-01    2.570000e+00
  TX4q  SX3v  1 3.650000e-01    2.570000e+00
  TC6e  SX4q  1 3.650000e-01    2.570000e+00
  TC5e  SX4q  1 3.650000e-01    2.340000e+00
  TC4e  SX4q  1 3.650000e-01    2.340000e+00
  TC3e  SX4q  1 3.650000e-01    2.340000e+00
  TC2e  SX4q  1 3.650000e-01    1.910000e+00
  TC1e  SX4q  1 3.650000e-01    1.910000e+00
  TX4q  SX4e  1 3.650000e-01    2.570000e+00
  TX4q  SX1e  1 3.650000e-01    2.570000e+00
  TX4q  SX2e  1 3.650000e-01    2.570000e+00
  TX4q  SX3e  1 3.650000e-01    2.570000e+00
  TP6d  SX3q  1 3.650000e-01    1.910000e+00
  TP5d  SX3q  1 3.650000e-01    1.910000e+00
  TP4d  SX3q  1 3.650000e-01    1.910000e+00
  TP3d  SX3q  1 3.650000e-01    2.110000e+00
  TP2d  SX3q  1 3.650000e-01    2.110000e+00
  TP1d  SX3q  1 3.650000e-01    2.110000e+00
  TN6d  SX3q  1 3.650000e-01    2.110000e+00
  TN5d  SX3q  1 3.650000e-01    2.340000e+00
  TN4d  SX3q  1 3.650000e-01    2.570000e+00
  TN3d  SX3q  1 3.650000e-01    2.340000e+00
  TN2d  SX3q  1 3.650000e-01    2.340000e+00
  TN1d  SX3q  1 3.650000e-01    2.340000e+00
  TP6a  SX3q  1 3.650000e-01    1.910000e+00
  TP5a  SX3q  1 3.650000e-01    1.910000e+00
  TP4a  SX3q  1 3.650000e-01    1.910000e+00
  TP3a  SX3q  1 3.650000e-01    2.110000e+00
  TP2a  SX3q  1 3.650000e-01    2.110000e+00
  TP1a  SX3q  1 3.650000e-01    2.110000e+00
  TN6a  SX3q  1 3.650000e-01    2.110000e+00
  TN5a  SX3q  1 3.650000e-01    2.340000e+00
  TN4a  SX3q  1 3.650000e-01    2.570000e+00
  TN3a  SX3q  1 3.650000e-01    2.340000e+00
  TN2a  SX3q  1 3.650000e-01    2.340000e+00
  TN1a  SX3q  1 3.650000e-01    2.340000e+00
  TC6v  SX3q  1 3.650000e-01    2.570000e+00
  TC5v  SX3q  1 3.650000e-01    2.340000e+00
  TC4v  SX3q  1 3.650000e-01    2.340000e+00
  TC3v  SX3q  1 3.650000e-01    2.340000e+00
  TC2v  SX3q  1 3.650000e-01    2.340000e+00
  TC1v  SX3q  1 3.650000e-01    2.340000e+00
  TX4v  SX3q  1 3.650000e-01    2.570000e+00
  TX3q  SX3v  1 3.650000e-01    2.570000e+00
  TX3q  SX1v  1 3.650000e-01    2.830000e+00
  TX3q  SX2v  1 3.650000e-01    2.830000e+00
  TC6e  SX3q  1 3.650000e-01    2.570000e+00
  TC5e  SX3q  1 3.650000e-01    2.340000e+00
  TC4e  SX3q  1 3.650000e-01    2.340000e+00
  TC3e  SX3q  1 3.650000e-01    2.340000e+00
  TC2e  SX3q  1 3.650000e-01    2.340000e+00
  TC1e  SX3q  1 3.650000e-01    2.340000e+00
  TX4e  SX3q  1 3.650000e-01    2.570000e+00
  TX3q  SX3e  1 3.650000e-01    2.570000e+00
  TX3q  SX1e  1 3.650000e-01    2.830000e+00
  TX3q  SX2e  1 3.650000e-01    2.830000e+00
  TP6d  SX2q  1 3.650000e-01    1.750000e+00
  TP5d  SX2q  1 3.650000e-01    1.910000e+00
  TP4d  SX2q  1 3.650000e-01    1.910000e+00
  TP3d  SX2q  1 3.650000e-01    1.910000e+00
  TP2d  SX2q  1 3.650000e-01    1.910000e+00
  TP1d  SX2q  1 3.650000e-01    1.910000e+00
  TN6d  SX2q  1 3.650000e-01    1.910000e+00
  TN5d  SX2q  1 3.650000e-01    2.110000e+00
  TN4d  SX2q  1 3.650000e-01    2.110000e+00
  TN3d  SX2q  1 3.650000e-01    2.110000e+00
  TN2d  SX2q  1 3.650000e-01    2.110000e+00
  TN1d  SX2q  1 3.650000e-01    2.110000e+00
  TP6a  SX2q  1 3.650000e-01    1.750000e+00
  TP5a  SX2q  1 3.650000e-01    1.910000e+00
  TP4a  SX2q  1 3.650000e-01    1.910000e+00
  TP3a  SX2q  1 3.650000e-01    1.910000e+00
  TP2a  SX2q  1 3.650000e-01    1.910000e+00
  TP1a  SX2q  1 3.650000e-01    1.910000e+00
  TN6a  SX2q  1 3.650000e-01    1.910000e+00
  TN5a  SX2q  1 3.650000e-01    2.110000e+00
  TN4a  SX2q  1 3.650000e-01    2.110000e+00
  TN3a  SX2q  1 3.650000e-01    2.110000e+00
  TN2a  SX2q  1 3.650000e-01    2.110000e+00
  TN1a  SX2q  1 3.650000e-01    2.110000e+00
  TC6v  SX2q  1 3.650000e-01    2.570000e+00
  TC5v  SX2q  1 3.650000e-01    2.340000e+00
  TC4v  SX2q  1 3.650000e-01    2.340000e+00
  TC3v  SX2q  1 3.650000e-01    2.340000e+00
  TC2v  SX2q  1 3.650000e-01    2.340000e+00
  TC1v  SX2q  1 3.650000e-01    2.340000e+00
  TX4v  SX2q  1 3.650000e-01    2.570000e+00
  TX3v  SX2q  1 3.650000e-01    2.830000e+00
  TX2q  SX2v  1 3.650000e-01    2.830000e+00
  TX2q  SX1v  1 3.650000e-01    2.830000e+00
  TC6e  SX2q  1 3.650000e-01    2.570000e+00
  TC5e  SX2q  1 3.650000e-01    2.340000e+00
  TC4e  SX2q  1 3.650000e-01    2.340000e+00
  TC3e  SX2q  1 3.650000e-01    2.340000e+00
  TC2e  SX2q  1 3.650000e-01    2.340000e+00
  TC1e  SX2q  1 3.650000e-01    2.340000e+00
  TX4e  SX2q  1 3.650000e-01    2.570000e+00
  TX3e  SX2q  1 3.650000e-01    2.830000e+00
  TX2q  SX2e  1 3.650000e-01    2.830000e+00
  TX2q  SX1e  1 3.650000e-01    2.830000e+00
  TP6d  SX1q  1 3.660000e-01    1.600000e+00
  TP5d  SX1q  1 3.660000e-01    1.600000e+00
  TP4d  SX1q  1 3.650000e-01    1.750000e+00
  TP3d  SX1q  1 3.650000e-01    1.750000e+00
  TP2d  SX1q  1 3.650000e-01    1.750000e+00
  TP1d  SX1q  1 3.650000e-01    1.750000e+00
  TN6d  SX1q  1 3.650000e-01    1.750000e+00
  TN5d  SX1q  1 3.650000e-01    1.910000e+00
  TN4d  SX1q  1 3.650000e-01    1.910000e+00
  TN3d  SX1q  1 3.650000e-01    2.110000e+00
  TN2d  SX1q  1 3.650000e-01    2.110000e+00
  TN1d  SX1q  1 3.650000e-01    2.110000e+00
  TP6a  SX1q  1 3.660000e-01    1.600000e+00
  TP5a  SX1q  1 3.660000e-01    1.600000e+00
  TP4a  SX1q  1 3.650000e-01    1.750000e+00
  TP3a  SX1q  1 3.650000e-01    1.750000e+00
  TP2a  SX1q  1 3.650000e-01    1.750000e+00
  TP1a  SX1q  1 3.650000e-01    1.750000e+00
  TN6a  SX1q  1 3.650000e-01    1.750000e+00
  TN5a  SX1q  1 3.650000e-01    1.910000e+00
  TN4a  SX1q  1 3.650000e-01    1.910000e+00
  TN3a  SX1q  1 3.650000e-01    2.110000e+00
  TN2a  SX1q  1 3.650000e-01    2.110000e+00
  TN1a  SX1q  1 3.650000e-01    2.110000e+00
  TC6v  SX1q  1 3.650000e-01    2.570000e+00
  TC5v  SX1q  1 3.650000e-01    2.570000e+00
  TC4v  SX1q  1 3.650000e-01    2.570000e+00
  TC3v  SX1q  1 3.650000e-01    2.570000e+00
  TC2v  SX1q  1 3.650000e-01    2.340000e+00
  TC1v  SX1q  1 3.650000e-01    2.340000e+00
  TX4v  SX1q  1 3.650000e-01    2.570000e+00
  TX3v  SX1q  1 3.650000e-01    2.830000e+00
  TX2v  SX1q  1 3.650000e-01    2.830000e+00
  TX1q  SX1v  1 3.650000e-01    3.100000e+00
  TC6e  SX1q  1 3.650000e-01    2.570000e+00
  TC5e  SX1q  1 3.650000e-01    2.570000e+00
  TC4e  SX1q  1 3.650000e-01    2.570000e+00
  TC3e  SX1q  1 3.650000e-01    2.570000e+00
  TC2e  SX1q  1 3.650000e-01    2.340000e+00
  TC1e  SX1q  1 3.650000e-01    2.340000e+00
  TX4e  SX1q  1 3.650000e-01    2.570000e+00
  TX3e  SX1q  1 3.650000e-01    2.830000e+00
  TX2e  SX1q  1 3.650000e-01    2.830000e+00
  TX1q  SX1e  1 3.650000e-01    3.100000e+00
  TP6q  SP5q  1 3.650000e-01    4.220000e+00
  TP6q  SP4q  1 3.650000e-01    3.930000e+00
  TP6q  SP3q  1 3.650000e-01    3.640000e+00
  TP6q  SP2q  1 3.650000e-01    3.640000e+00
  TP6q  SP1q  1 3.650000e-01    3.370000e+00
  TP6q  SN6q  1 3.650000e-01    3.100000e+00
  TP6q  SN5q  1 3.650000e-01    2.570000e+00
  TP6q  SN4q  1 3.650000e-01    2.340000e+00
  TP6q  SN3q  1 3.650000e-01    2.110000e+00
  TP6q  SN2q  1 3.650000e-01    1.910000e+00
  TP6q  SN1q  1 3.650000e-01    1.750000e+00
  TP6q  SC6q  1 3.650000e-01    1.750000e+00
  TP6q  SC5q  1 3.660000e-01    1.600000e+00
  TP6q  SC4q  1 3.780000e-01    1.450000e+00
  TP6q  SC3q  1 3.940000e-01    1.290000e+00
  TP6q  SC2q  1 3.940000e-01    1.290000e+00
  TP6q  SC1q  1 4.090000e-01    1.080000e+00
  TP6q  SX4q  1 3.650000e-01    1.910000e+00
  TP6q  SX3q  1 3.650000e-01    1.910000e+00
  TP6q  SX2q  1 3.650000e-01    1.750000e+00
  TP6q  SX1q  1 3.660000e-01    1.600000e+00
  TP5q  SP4q  1 3.650000e-01    3.640000e+00
  TP5q  SP3q  1 3.650000e-01    3.370000e+00
  TP5q  SP2q  1 3.650000e-01    3.370000e+00
  TP5q  SP1q  1 3.650000e-01    3.100000e+00
  TP5q  SN6q  1 3.650000e-01    2.830000e+00
  TP5q  SN5q  1 3.650000e-01    2.570000e+00
  TP5q  SN4q  1 3.650000e-01    2.570000e+00
  TP5q  SN3q  1 3.650000e-01    2.110000e+00
  TP5q  SN2q  1 3.650000e-01    1.910000e+00
  TP5q  SN1q  1 3.650000e-01    1.750000e+00
  TP5q  SC6q  1 3.650000e-01    1.750000e+00
  TP5q  SC5q  1 3.650000e-01    1.750000e+00
  TP5q  SC4q  1 3.660000e-01    1.600000e+00
  TP5q  SC3q  1 3.780000e-01    1.450000e+00
  TP5q  SC2q  1 3.780000e-01    1.450000e+00
  TP5q  SC1q  1 3.940000e-01    1.290000e+00
  TP5q  SX4q  1 3.650000e-01    2.110000e+00
  TP5q  SX3q  1 3.650000e-01    1.910000e+00
  TP5q  SX2q  1 3.650000e-01    1.910000e+00
  TP5q  SX1q  1 3.660000e-01    1.600000e+00
  TP4q  SP3q  1 3.650000e-01    3.370000e+00
  TP4q  SP2q  1 3.650000e-01    3.370000e+00
  TP4q  SP1q  1 3.650000e-01    3.100000e+00
  TP4q  SN6q  1 3.650000e-01    2.830000e+00
  TP4q  SN5q  1 3.650000e-01    2.570000e+00
  TP4q  SN4q  1 3.650000e-01    2.570000e+00
  TP4q  SN3q  1 3.650000e-01    2.340000e+00
  TP4q  SN2q  1 3.650000e-01    2.110000e+00
  TP4q  SN1q  1 3.650000e-01    1.910000e+00
  TP4q  SC6q  1 3.650000e-01    1.910000e+00
  TP4q  SC5q  1 3.650000e-01    1.750000e+00
  TP4q  SC4q  1 3.660000e-01    1.600000e+00
  TP4q  SC3q  1 3.780000e-01    1.450000e+00
  TP4q  SC2q  1 3.780000e-01    1.450000e+00
  TP4q  SC1q  1 3.940000e-01    1.290000e+00
  TP4q  SX4q  1 3.650000e-01    2.110000e+00
  TP4q  SX3q  1 3.650000e-01    1.910000e+00
  TP4q  SX2q  1 3.650000e-01    1.910000e+00
  TP4q  SX1q  1 3.650000e-01    1.750000e+00
  TP3q  SP2q  1 3.650000e-01    3.370000e+00
  TP3q  SP1q  1 3.650000e-01    3.100000e+00
  TP3q  SN6q  1 3.650000e-01    2.830000e+00
  TP3q  SN5q  1 3.650000e-01    2.570000e+00
  TP3q  SN4q  1 3.650000e-01    2.570000e+00
  TP3q  SN3q  1 3.650000e-01    2.340000e+00
  TP3q  SN2q  1 3.650000e-01    2.340000e+00
  TP3q  SN1q  1 3.650000e-01    2.110000e+00
  TP3q  SC6q  1 3.650000e-01    2.110000e+00
  TP3q  SC5q  1 3.650000e-01    1.910000e+00
  TP3q  SC4q  1 3.650000e-01    1.750000e+00
  TP3q  SC3q  1 3.780000e-01    1.450000e+00
  TP3q  SC2q  1 3.780000e-01    1.450000e+00
  TP3q  SC1q  1 3.940000e-01    1.290000e+00
  TP3q  SX4q  1 3.650000e-01    2.110000e+00
  TP3q  SX3q  1 3.650000e-01    2.110000e+00
  TP3q  SX2q  1 3.650000e-01    1.910000e+00
  TP3q  SX1q  1 3.650000e-01    1.750000e+00
  TP2q  SP1q  1 3.650000e-01    3.100000e+00
  TP2q  SN6q  1 3.650000e-01    3.100000e+00
  TP2q  SN5q  1 3.650000e-01    2.830000e+00
  TP2q  SN4q  1 3.650000e-01    2.570000e+00
  TP2q  SN3q  1 3.650000e-01    2.340000e+00
  TP2q  SN2q  1 3.650000e-01    2.340000e+00
  TP2q  SN1q  1 3.650000e-01    2.340000e+00
  TP2q  SC6q  1 3.650000e-01    2.110000e+00
  TP2q  SC5q  1 3.650000e-01    1.910000e+00
  TP2q  SC4q  1 3.650000e-01    1.750000e+00
  TP2q  SC3q  1 3.660000e-01    1.600000e+00
  TP2q  SC2q  1 3.660000e-01    1.600000e+00
  TP2q  SC1q  1 3.780000e-01    1.450000e+00
  TP2q  SX4q  1 3.650000e-01    2.110000e+00
  TP2q  SX3q  1 3.650000e-01    2.110000e+00
  TP2q  SX2q  1 3.650000e-01    1.910000e+00
  TP2q  SX1q  1 3.650000e-01    1.750000e+00
  TP1q  SN6q  1 3.650000e-01    3.100000e+00
  TP1q  SN5q  1 3.650000e-01    2.830000e+00
  TP1q  SN4q  1 3.650000e-01    2.830000e+00
  TP1q  SN3q  1 3.650000e-01    2.340000e+00
  TP1q  SN2q  1 3.650000e-01    2.340000e+00
  TP1q  SN1q  1 3.650000e-01    2.340000e+00
  TP1q  SC6q  1 3.650000e-01    2.110000e+00
  TP1q  SC5q  1 3.650000e-01    1.910000e+00
  TP1q  SC4q  1 3.650000e-01    1.750000e+00
  TP1q  SC3q  1 3.660000e-01    1.600000e+00
  TP1q  SC2q  1 3.660000e-01    1.600000e+00
  TP1q  SC1q  1 3.780000e-01    1.450000e+00
  TP1q  SX4q  1 3.650000e-01    2.110000e+00
  TP1q  SX3q  1 3.650000e-01    2.110000e+00
  TP1q  SX2q  1 3.650000e-01    1.910000e+00
  TP1q  SX1q  1 3.650000e-01    1.750000e+00
  TN6q  SN5q  1 3.650000e-01    3.100000e+00
  TN6q  SN4q  1 3.650000e-01    3.100000e+00
  TN6q  SN3q  1 3.650000e-01    2.570000e+00
  TN6q  SN2q  1 3.650000e-01    2.340000e+00
  TN6q  SN1q  1 3.650000e-01    2.340000e+00
  TN6q  SC6q  1 3.650000e-01    2.340000e+00
  TN6q  SC5q  1 3.650000e-01    2.110000e+00
  TN6q  SC4q  1 3.650000e-01    1.910000e+00
  TN6q  SC3q  1 3.650000e-01    1.750000e+00
  TN6q  SC2q  1 3.650000e-01    1.750000e+00
  TN6q  SC1q  1 3.660000e-01    1.600000e+00
  TN6q  SX4q  1 3.650000e-01    2.340000e+00
  TN6q  SX3q  1 3.650000e-01    2.110000e+00
  TN6q  SX2q  1 3.650000e-01    1.910000e+00
  TN6q  SX1q  1 3.650000e-01    1.750000e+00
  TN5q  SN4q  1 3.650000e-01    2.830000e+00
  TN5q  SN3q  1 3.650000e-01    2.570000e+00
  TN5q  SN2q  1 3.650000e-01    2.570000e+00
  TN5q  SN1q  1 3.650000e-01    2.340000e+00
  TN5q  SC6q  1 3.650000e-01    2.340000e+00
  TN5q  SC5q  1 3.650000e-01    2.110000e+00
  TN5q  SC4q  1 3.650000e-01    1.910000e+00
  TN5q  SC3q  1 3.650000e-01    1.910000e+00
  TN5q  SC2q  1 3.650000e-01    1.750000e+00
  TN5q  SC1q  1 3.660000e-01    1.600000e+00
  TN5q  SX4q  1 3.650000e-01    2.570000e+00
  TN5q  SX3q  1 3.650000e-01    2.340000e+00
  TN5q  SX2q  1 3.650000e-01    2.110000e+00
  TN5q  SX1q  1 3.650000e-01    1.910000e+00
  TN4q  SN3q  1 3.650000e-01    2.570000e+00
  TN4q  SN2q  1 3.650000e-01    2.570000e+00
  TN4q  SN1q  1 3.650000e-01    2.340000e+00
  TN4q  SC6q  1 3.650000e-01    2.340000e+00
  TN4q  SC5q  1 3.650000e-01    2.110000e+00
  TN4q  SC4q  1 3.650000e-01    2.110000e+00
  TN4q  SC3q  1 3.650000e-01    1.910000e+00
  TN4q  SC2q  1 3.650000e-01    1.750000e+00
  TN4q  SC1q  1 3.660000e-01    1.600000e+00
  TN4q  SX4q  1 3.650000e-01    2.830000e+00
  TN4q  SX3q  1 3.650000e-01    2.570000e+00
  TN4q  SX2q  1 3.650000e-01    2.110000e+00
  TN4q  SX1q  1 3.650000e-01    1.910000e+00
  TN3q  SN2q  1 3.650000e-01    2.570000e+00
  TN3q  SN1q  1 3.650000e-01    2.340000e+00
  TN3q  SC6q  1 3.650000e-01    2.340000e+00
  TN3q  SC5q  1 3.650000e-01    2.110000e+00
  TN3q  SC4q  1 3.650000e-01    2.110000e+00
  TN3q  SC3q  1 3.650000e-01    1.910000e+00
  TN3q  SC2q  1 3.650000e-01    1.910000e+00
  TN3q  SC1q  1 3.650000e-01    1.750000e+00
  TN3q  SX4q  1 3.650000e-01    2.570000e+00
  TN3q  SX3q  1 3.650000e-01    2.340000e+00
  TN3q  SX2q  1 3.650000e-01    2.110000e+00
  TN3q  SX1q  1 3.650000e-01    2.110000e+00
  TN2q  SN1q  1 3.650000e-01    2.340000e+00
  TN2q  SC6q  1 3.650000e-01    2.340000e+00
  TN2q  SC5q  1 3.650000e-01    2.110000e+00
  TN2q  SC4q  1 3.650000e-01    2.110000e+00
  TN2q  SC3q  1 3.650000e-01    2.110000e+00
  TN2q  SC2q  1 3.650000e-01    1.910000e+00
  TN2q  SC1q  1 3.650000e-01    1.750000e+00
  TN2q  SX4q  1 3.650000e-01    2.570000e+00
  TN2q  SX3q  1 3.650000e-01    2.340000e+00
  TN2q  SX2q  1 3.650000e-01    2.110000e+00
  TN2q  SX1q  1 3.650000e-01    2.110000e+00
  TN1q  SC6q  1 3.650000e-01    2.570000e+00
  TN1q  SC5q  1 3.650000e-01    2.340000e+00
  TN1q  SC4q  1 3.650000e-01    2.340000e+00
  TN1q  SC3q  1 3.650000e-01    2.110000e+00
  TN1q  SC2q  1 3.650000e-01    1.910000e+00
  TN1q  SC1q  1 3.650000e-01    1.750000e+00
  TN1q  SX4q  1 3.650000e-01    2.340000e+00
  TN1q  SX3q  1 3.650000e-01    2.340000e+00
  TN1q  SX2q  1 3.650000e-01    2.110000e+00
  TN1q  SX1q  1 3.650000e-01    2.110000e+00
  TC6q  SC5q  1 3.650000e-01    2.340000e+00
  TC6q  SC4q  1 3.650000e-01    2.340000e+00
  TC6q  SC3q  1 3.650000e-01    2.110000e+00
  TC6q  SC2q  1 3.650000e-01    1.910000e+00
  TC6q  SC1q  1 3.650000e-01    1.750000e+00
  TC6q  SX4q  1 3.650000e-01    2.340000e+00
  TC6q  SX3q  1 3.650000e-01    2.340000e+00
  TC6q  SX2q  1 3.650000e-01    2.340000e+00
  TC6q  SX1q  1 3.650000e-01    2.340000e+00
  TC5q  SC4q  1 3.650000e-01    2.340000e+00
  TC5q  SC3q  1 3.650000e-01    2.110000e+00
  TC5q  SC2q  1 3.650000e-01    1.910000e+00
  TC5q  SC1q  1 3.650000e-01    1.910000e+00
  TC5q  SX4q  1 3.650000e-01    2.110000e+00
  TC5q  SX3q  1 3.650000e-01    2.110000e+00
  TC5q  SX2q  1 3.650000e-01    2.110000e+00
  TC5q  SX1q  1 3.650000e-01    2.340000e+00
  TC4q  SC3q  1 3.650000e-01    2.340000e+00
  TC4q  SC2q  1 3.650000e-01    2.110000e+00
  TC4q  SC1q  1 3.650000e-01    1.910000e+00
  TC4q  SX4q  1 3.650000e-01    2.110000e+00
  TC4q  SX3q  1 3.650000e-01    2.110000e+00
  TC4q  SX2q  1 3.650000e-01    2.110000e+00
  TC4q  SX1q  1 3.650000e-01    2.340000e+00
  TC3q  SC2q  1 3.650000e-01    2.340000e+00
  TC3q  SC1q  1 3.650000e-01    2.340000e+00
  TC3q  SX4q  1 3.650000e-01    2.110000e+00
  TC3q  SX3q  1 3.650000e-01    2.110000e+00
  TC3q  SX2q  1 3.650000e-01    2.110000e+00
  TC3q  SX1q  1 3.650000e-01    2.340000e+00
  TC2q  SC1q  1 3.650000e-01    2.570000e+00
  TC2q  SX4q  1 3.650000e-01    1.750000e+00
  TC2q  SX3q  1 3.650000e-01    2.110000e+00
  TC2q  SX2q  1 3.650000e-01    2.110000e+00
  TC2q  SX1q  1 3.650000e-01    2.110000e+00
  TC1q  SX4q  1 3.650000e-01    1.750000e+00
  TC1q  SX3q  1 3.650000e-01    2.110000e+00
  TC1q  SX2q  1 3.650000e-01    2.110000e+00
  TC1q  SX1q  1 3.650000e-01    2.110000e+00
  TX4q  SX3q  1 3.650000e-01    2.340000e+00
  TX4q  SX2q  1 3.650000e-01    2.340000e+00
  TX4q  SX1q  1 3.650000e-01    2.340000e+00
  TX3q  SX2q  1 3.650000e-01    2.570000e+00
  TX3q  SX1q  1 3.650000e-01    2.570000e+00
  TX2q  SX1q  1 3.650000e-01    2.570000e+00
 TP6dq SP5dq  1 3.650000e-01    3.930000e+00
 TP6dq SP4dq  1 3.650000e-01    3.640000e+00
 TP6dq SP3dq  1 3.650000e-01    3.370000e+00
 TP6dq SP2dq  1 3.650000e-01    3.370000e+00
 TP6dq SP1dq  1 3.650000e-01    3.100000e+00
 TP6dq SN6dq  1 3.650000e-01    2.830000e+00
 TP6dq SN5dq  1 3.650000e-01    2.340000e+00
 TP6dq SN4dq  1 3.650000e-01    2.110000e+00
 TP6dq SN3dq  1 3.650000e-01    2.110000e+00
 TP6dq SN2dq  1 3.650000e-01    1.910000e+00
 TP6dq SN1dq  1 3.650000e-01    1.750000e+00
 TP6dq SP6aq  1 3.650000e-01    4.860000e+00
 TP6dq SP5aq  1 3.650000e-01    4.510000e+00
 TP6dq SP4aq  1 3.650000e-01    4.220000e+00
 TP6dq SP3aq  1 3.650000e-01    3.930000e+00
 TP6dq SP2aq  1 3.650000e-01    3.930000e+00
 TP6dq SP1aq  1 3.650000e-01    3.640000e+00
 TP6dq SN6aq  1 3.650000e-01    3.370000e+00
 TP6dq SN5aq  1 3.650000e-01    2.830000e+00
 TP6dq SN4aq  1 3.650000e-01    2.570000e+00
 TP6dq SN3aq  1 3.650000e-01    2.110000e+00
 TP6dq SN2aq  1 3.650000e-01    1.910000e+00
 TP6dq SN1aq  1 3.650000e-01    1.750000e+00
 TP6dq SC6vq  1 3.660000e-01    1.600000e+00
 TP6dq SC5vq  1 3.780000e-01    1.450000e+00
 TP6dq SC4vq  1 3.940000e-01    1.290000e+00
 TP6dq SC3vq  1 4.040000e-01    1.130000e+00
 TP6dq SC2vq  1 4.040000e-01    1.130000e+00
 TP6dq SC1vq  1 4.230000e-01    9.810000e-01
 TP6dq SX4vq  1 3.650000e-01    1.750000e+00
 TP6dq SX3vq  1 3.650000e-01    1.750000e+00
 TP6dq SX2vq  1 3.660000e-01    1.600000e+00
 TP6dq SX1vq  1 3.780000e-01    1.450000e+00
 TP6dq SC6eq  1 3.650000e-01    1.910000e+00
 TP6dq SC5eq  1 3.650000e-01    1.750000e+00
 TP6dq SC4eq  1 3.660000e-01    1.600000e+00
 TP6dq SC3eq  1 3.780000e-01    1.450000e+00
 TP6dq SC2eq  1 3.780000e-01    1.450000e+00
 TP6dq SC1eq  1 4.040000e-01    1.130000e+00
 TP6dq SX4eq  1 3.650000e-01    2.110000e+00
 TP6dq SX3eq  1 3.650000e-01    2.110000e+00
 TP6dq SX2eq  1 3.650000e-01    1.910000e+00
 TP6dq SX1eq  1 3.650000e-01    1.750000e+00
 TP5dq SP4dq  1 3.650000e-01    3.370000e+00
 TP5dq SP3dq  1 3.650000e-01    3.100000e+00
 TP5dq SP2dq  1 3.650000e-01    3.100000e+00
 TP5dq SP1dq  1 3.650000e-01    2.830000e+00
 TP5dq SN6dq  1 3.650000e-01    2.570000e+00
 TP5dq SN5dq  1 3.650000e-01    2.340000e+00
 TP5dq SN4dq  1 3.650000e-01    2.340000e+00
 TP5dq SN3dq  1 3.650000e-01    2.110000e+00
 TP5dq SN2dq  1 3.650000e-01    1.910000e+00
 TP5dq SN1dq  1 3.650000e-01    1.750000e+00
 TP5dq SP5aq  1 3.650000e-01    4.220000e+00
 TP5dq SP4aq  1 3.650000e-01    3.930000e+00
 TP5dq SP3aq  1 3.650000e-01    3.640000e+00
 TP5dq SP2aq  1 3.650000e-01    3.640000e+00
 TP5dq SP1aq  1 3.650000e-01    3.370000e+00
 TP5dq SN6aq  1 3.650000e-01    3.100000e+00
 TP5dq SN5aq  1 3.650000e-01    2.830000e+00
 TP5dq SN4aq  1 3.650000e-01    2.830000e+00
 TP5dq SN3aq  1 3.650000e-01    2.110000e+00
 TP5dq SN2aq  1 3.650000e-01    1.910000e+00
 TP5dq SN1aq  1 3.650000e-01    1.750000e+00
 TP5dq SC6vq  1 3.660000e-01    1.600000e+00
 TP5dq SC5vq  1 3.660000e-01    1.600000e+00
 TP5dq SC4vq  1 3.780000e-01    1.450000e+00
 TP5dq SC3vq  1 3.940000e-01    1.290000e+00
 TP5dq SC2vq  1 3.940000e-01    1.290000e+00
 TP5dq SC1vq  1 4.040000e-01    1.130000e+00
 TP5dq SX4vq  1 3.650000e-01    1.910000e+00
 TP5dq SX3vq  1 3.650000e-01    1.750000e+00
 TP5dq SX2vq  1 3.650000e-01    1.750000e+00
 TP5dq SX1vq  1 3.780000e-01    1.450000e+00
 TP5dq SC6eq  1 3.650000e-01    1.910000e+00
 TP5dq SC5eq  1 3.650000e-01    1.910000e+00
 TP5dq SC4eq  1 3.650000e-01    1.750000e+00
 TP5dq SC3eq  1 3.660000e-01    1.600000e+00
 TP5dq SC2eq  1 3.660000e-01    1.600000e+00
 TP5dq SC1eq  1 3.780000e-01    1.450000e+00
 TP5dq SX4eq  1 3.650000e-01    2.340000e+00
 TP5dq SX3eq  1 3.650000e-01    2.110000e+00
 TP5dq SX2eq  1 3.650000e-01    2.110000e+00
 TP5dq SX1eq  1 3.650000e-01    1.750000e+00
 TP4dq SP3dq  1 3.650000e-01    3.100000e+00
 TP4dq SP2dq  1 3.650000e-01    3.100000e+00
 TP4dq SP1dq  1 3.650000e-01    2.830000e+00
 TP4dq SN6dq  1 3.650000e-01    2.570000e+00
 TP4dq SN5dq  1 3.650000e-01    2.340000e+00
 TP4dq SN4dq  1 3.650000e-01    2.340000e+00
 TP4dq SN3dq  1 3.650000e-01    2.110000e+00
 TP4dq SN2dq  1 3.650000e-01    2.110000e+00
 TP4dq SN1dq  1 3.650000e-01    1.910000e+00
 TP4dq SP4aq  1 3.650000e-01    3.930000e+00
 TP4dq SP3aq  1 3.650000e-01    3.640000e+00
 TP4dq SP2aq  1 3.650000e-01    3.640000e+00
 TP4dq SP1aq  1 3.650000e-01    3.370000e+00
 TP4dq SN6aq  1 3.650000e-01    3.100000e+00
 TP4dq SN5aq  1 3.650000e-01    2.830000e+00
 TP4dq SN4aq  1 3.650000e-01    2.830000e+00
 TP4dq SN3aq  1 3.650000e-01    2.570000e+00
 TP4dq SN2aq  1 3.650000e-01    2.110000e+00
 TP4dq SN1aq  1 3.650000e-01    1.910000e+00
 TP4dq SC6vq  1 3.650000e-01    1.750000e+00
 TP4dq SC5vq  1 3.660000e-01    1.600000e+00
 TP4dq SC4vq  1 3.780000e-01    1.450000e+00
 TP4dq SC3vq  1 3.940000e-01    1.290000e+00
 TP4dq SC2vq  1 3.940000e-01    1.290000e+00
 TP4dq SC1vq  1 4.040000e-01    1.130000e+00
 TP4dq SX4vq  1 3.650000e-01    1.910000e+00
 TP4dq SX3vq  1 3.650000e-01    1.750000e+00
 TP4dq SX2vq  1 3.650000e-01    1.750000e+00
 TP4dq SX1vq  1 3.660000e-01    1.600000e+00
 TP4dq SC6eq  1 3.650000e-01    2.110000e+00
 TP4dq SC5eq  1 3.650000e-01    1.910000e+00
 TP4dq SC4eq  1 3.650000e-01    1.750000e+00
 TP4dq SC3eq  1 3.660000e-01    1.600000e+00
 TP4dq SC2eq  1 3.660000e-01    1.600000e+00
 TP4dq SC1eq  1 3.780000e-01    1.450000e+00
 TP4dq SX4eq  1 3.650000e-01    2.340000e+00
 TP4dq SX3eq  1 3.650000e-01    2.110000e+00
 TP4dq SX2eq  1 3.650000e-01    2.110000e+00
 TP4dq SX1eq  1 3.650000e-01    1.910000e+00
 TP3dq SP2dq  1 3.650000e-01    3.100000e+00
 TP3dq SP1dq  1 3.650000e-01    2.830000e+00
 TP3dq SN6dq  1 3.650000e-01    2.570000e+00
 TP3dq SN5dq  1 3.650000e-01    2.340000e+00
 TP3dq SN4dq  1 3.650000e-01    2.340000e+00
 TP3dq SN3dq  1 3.650000e-01    2.110000e+00
 TP3dq SN2dq  1 3.650000e-01    2.110000e+00
 TP3dq SN1dq  1 3.650000e-01    2.110000e+00
 TP3dq SP3aq  1 3.650000e-01    3.640000e+00
 TP3dq SP2aq  1 3.650000e-01    3.640000e+00
 TP3dq SP1aq  1 3.650000e-01    3.370000e+00
 TP3dq SN6aq  1 3.650000e-01    3.100000e+00
 TP3dq SN5aq  1 3.650000e-01    2.830000e+00
 TP3dq SN4aq  1 3.650000e-01    2.830000e+00
 TP3dq SN3aq  1 3.650000e-01    2.570000e+00
 TP3dq SN2aq  1 3.650000e-01    2.570000e+00
 TP3dq SN1aq  1 3.650000e-01    2.110000e+00
 TP3dq SC6vq  1 3.650000e-01    1.910000e+00
 TP3dq SC5vq  1 3.650000e-01    1.750000e+00
 TP3dq SC4vq  1 3.660000e-01    1.600000e+00
 TP3dq SC3vq  1 3.940000e-01    1.290000e+00
 TP3dq SC2vq  1 3.940000e-01    1.290000e+00
 TP3dq SC1vq  1 4.040000e-01    1.130000e+00
 TP3dq SX4vq  1 3.650000e-01    1.910000e+00
 TP3dq SX3vq  1 3.650000e-01    1.910000e+00
 TP3dq SX2vq  1 3.650000e-01    1.750000e+00
 TP3dq SX1vq  1 3.660000e-01    1.600000e+00
 TP3dq SC6eq  1 3.650000e-01    2.340000e+00
 TP3dq SC5eq  1 3.650000e-01    2.110000e+00
 TP3dq SC4eq  1 3.650000e-01    1.910000e+00
 TP3dq SC3eq  1 3.660000e-01    1.600000e+00
 TP3dq SC2eq  1 3.660000e-01    1.600000e+00
 TP3dq SC1eq  1 3.780000e-01    1.450000e+00
 TP3dq SX4eq  1 3.650000e-01    2.340000e+00
 TP3dq SX3eq  1 3.650000e-01    2.340000e+00
 TP3dq SX2eq  1 3.650000e-01    2.110000e+00
 TP3dq SX1eq  1 3.650000e-01    1.910000e+00
 TP2dq SP1dq  1 3.650000e-01    2.830000e+00
 TP2dq SN6dq  1 3.650000e-01    2.830000e+00
 TP2dq SN5dq  1 3.650000e-01    2.570000e+00
 TP2dq SN4dq  1 3.650000e-01    2.340000e+00
 TP2dq SN3dq  1 3.650000e-01    2.110000e+00
 TP2dq SN2dq  1 3.650000e-01    2.110000e+00
 TP2dq SN1dq  1 3.650000e-01    2.110000e+00
 TP2dq SP2aq  1 3.650000e-01    3.640000e+00
 TP2dq SP1aq  1 3.650000e-01    3.370000e+00
 TP2dq SN6aq  1 3.650000e-01    3.370000e+00
 TP2dq SN5aq  1 3.650000e-01    3.100000e+00
 TP2dq SN4aq  1 3.650000e-01    2.830000e+00
 TP2dq SN3aq  1 3.650000e-01    2.570000e+00
 TP2dq SN2aq  1 3.650000e-01    2.570000e+00
 TP2dq SN1aq  1 3.650000e-01    2.570000e+00
 TP2dq SC6vq  1 3.650000e-01    1.910000e+00
 TP2dq SC5vq  1 3.650000e-01    1.750000e+00
 TP2dq SC4vq  1 3.660000e-01    1.600000e+00
 TP2dq SC3vq  1 3.780000e-01    1.450000e+00
 TP2dq SC2vq  1 3.780000e-01    1.450000e+00
 TP2dq SC1vq  1 3.940000e-01    1.290000e+00
 TP2dq SX4vq  1 3.650000e-01    1.910000e+00
 TP2dq SX3vq  1 3.650000e-01    1.910000e+00
 TP2dq SX2vq  1 3.650000e-01    1.750000e+00
 TP2dq SX1vq  1 3.660000e-01    1.600000e+00
 TP2dq SC6eq  1 3.650000e-01    2.340000e+00
 TP2dq SC5eq  1 3.650000e-01    2.110000e+00
 TP2dq SC4eq  1 3.650000e-01    1.910000e+00
 TP2dq SC3eq  1 3.650000e-01    1.750000e+00
 TP2dq SC2eq  1 3.650000e-01    1.750000e+00
 TP2dq SC1eq  1 3.660000e-01    1.600000e+00
 TP2dq SX4eq  1 3.650000e-01    2.340000e+00
 TP2dq SX3eq  1 3.650000e-01    2.340000e+00
 TP2dq SX2eq  1 3.650000e-01    2.110000e+00
 TP2dq SX1eq  1 3.650000e-01    1.910000e+00
 TP1dq SN6dq  1 3.650000e-01    2.830000e+00
 TP1dq SN5dq  1 3.650000e-01    2.570000e+00
 TP1dq SN4dq  1 3.650000e-01    2.570000e+00
 TP1dq SN3dq  1 3.650000e-01    2.110000e+00
 TP1dq SN2dq  1 3.650000e-01    2.110000e+00
 TP1dq SN1dq  1 3.650000e-01    2.110000e+00
 TP1dq SP1aq  1 3.650000e-01    3.370000e+00
 TP1dq SN6aq  1 3.650000e-01    3.370000e+00
 TP1dq SN5aq  1 3.650000e-01    3.100000e+00
 TP1dq SN4aq  1 3.650000e-01    3.100000e+00
 TP1dq SN3aq  1 3.650000e-01    2.570000e+00
 TP1dq SN2aq  1 3.650000e-01    2.570000e+00
 TP1dq SN1aq  1 3.650000e-01    2.570000e+00
 TP1dq SC6vq  1 3.650000e-01    1.910000e+00
 TP1dq SC5vq  1 3.650000e-01    1.750000e+00
 TP1dq SC4vq  1 3.660000e-01    1.600000e+00
 TP1dq SC3vq  1 3.780000e-01    1.450000e+00
 TP1dq SC2vq  1 3.780000e-01    1.450000e+00
 TP1dq SC1vq  1 3.940000e-01    1.290000e+00
 TP1dq SX4vq  1 3.650000e-01    1.910000e+00
 TP1dq SX3vq  1 3.650000e-01    1.910000e+00
 TP1dq SX2vq  1 3.650000e-01    1.750000e+00
 TP1dq SX1vq  1 3.660000e-01    1.600000e+00
 TP1dq SC6eq  1 3.650000e-01    2.340000e+00
 TP1dq SC5eq  1 3.650000e-01    2.110000e+00
 TP1dq SC4eq  1 3.650000e-01    1.910000e+00
 TP1dq SC3eq  1 3.650000e-01    1.750000e+00
 TP1dq SC2eq  1 3.650000e-01    1.750000e+00
 TP1dq SC1eq  1 3.660000e-01    1.600000e+00
 TP1dq SX4eq  1 3.650000e-01    2.340000e+00
 TP1dq SX3eq  1 3.650000e-01    2.340000e+00
 TP1dq SX2eq  1 3.650000e-01    2.110000e+00
 TP1dq SX1eq  1 3.650000e-01    1.910000e+00
 TN6dq SN5dq  1 3.650000e-01    2.830000e+00
 TN6dq SN4dq  1 3.650000e-01    2.830000e+00
 TN6dq SN3dq  1 3.650000e-01    2.340000e+00
 TN6dq SN2dq  1 3.650000e-01    2.110000e+00
 TN6dq SN1dq  1 3.650000e-01    2.110000e+00
 TN6dq SN6aq  1 3.650000e-01    3.370000e+00
 TN6dq SN5aq  1 3.650000e-01    3.370000e+00
 TN6dq SN4aq  1 3.650000e-01    3.370000e+00
 TN6dq SN3aq  1 3.650000e-01    2.830000e+00
 TN6dq SN2aq  1 3.650000e-01    2.570000e+00
 TN6dq SN1aq  1 3.650000e-01    2.570000e+00
 TN6dq SC6vq  1 3.650000e-01    2.110000e+00
 TN6dq SC5vq  1 3.650000e-01    1.910000e+00
 TN6dq SC4vq  1 3.650000e-01    1.750000e+00
 TN6dq SC3vq  1 3.660000e-01    1.600000e+00
 TN6dq SC2vq  1 3.660000e-01    1.600000e+00
 TN6dq SC1vq  1 3.780000e-01    1.450000e+00
 TN6dq SX4vq  1 3.650000e-01    2.110000e+00
 TN6dq SX3vq  1 3.650000e-01    1.910000e+00
 TN6dq SX2vq  1 3.650000e-01    1.750000e+00
 TN6dq SX1vq  1 3.660000e-01    1.600000e+00
 TN6dq SC6eq  1 3.650000e-01    2.570000e+00
 TN6dq SC5eq  1 3.650000e-01    2.340000e+00
 TN6dq SC4eq  1 3.650000e-01    2.110000e+00
 TN6dq SC3eq  1 3.650000e-01    1.910000e+00
 TN6dq SC2eq  1 3.650000e-01    1.910000e+00
 TN6dq SC1eq  1 3.650000e-01    1.750000e+00
 TN6dq SX4eq  1 3.650000e-01    2.570000e+00
 TN6dq SX3eq  1 3.650000e-01    2.340000e+00
 TN6dq SX2eq  1 3.650000e-01    2.110000e+00
 TN6dq SX1eq  1 3.650000e-01    1.910000e+00
 TN5dq SN4dq  1 3.650000e-01    2.570000e+00
 TN5dq SN3dq  1 3.650000e-01    2.340000e+00
 TN5dq SN2dq  1 3.650000e-01    2.340000e+00
 TN5dq SN1dq  1 3.650000e-01    2.110000e+00
 TN5dq SN5aq  1 3.650000e-01    3.100000e+00
 TN5dq SN4aq  1 3.650000e-01    3.100000e+00
 TN5dq SN3aq  1 3.650000e-01    2.830000e+00
 TN5dq SN2aq  1 3.650000e-01    2.830000e+00
 TN5dq SN1aq  1 3.650000e-01    2.570000e+00
 TN5dq SC6vq  1 3.650000e-01    2.110000e+00
 TN5dq SC5vq  1 3.650000e-01    1.910000e+00
 TN5dq SC4vq  1 3.650000e-01    1.750000e+00
 TN5dq SC3vq  1 3.650000e-01    1.750000e+00
 TN5dq SC2vq  1 3.660000e-01    1.600000e+00
 TN5dq SC1vq  1 3.780000e-01    1.450000e+00
 TN5dq SX4vq  1 3.650000e-01    2.340000e+00
 TN5dq SX3vq  1 3.650000e-01    2.110000e+00
 TN5dq SX2vq  1 3.650000e-01    1.910000e+00
 TN5dq SX1vq  1 3.650000e-01    1.750000e+00
 TN5dq SC6eq  1 3.650000e-01    2.570000e+00
 TN5dq SC5eq  1 3.650000e-01    2.340000e+00
 TN5dq SC4eq  1 3.650000e-01    2.110000e+00
 TN5dq SC3eq  1 3.650000e-01    2.110000e+00
 TN5dq SC2eq  1 3.650000e-01    1.910000e+00
 TN5dq SC1eq  1 3.650000e-01    1.750000e+00
 TN5dq SX4eq  1 3.650000e-01    2.830000e+00
 TN5dq SX3eq  1 3.650000e-01    2.570000e+00
 TN5dq SX2eq  1 3.650000e-01    2.340000e+00
 TN5dq SX1eq  1 3.650000e-01    2.110000e+00
 TN4dq SN3dq  1 3.650000e-01    2.340000e+00
 TN4dq SN2dq  1 3.650000e-01    2.340000e+00
 TN4dq SN1dq  1 3.650000e-01    2.110000e+00
 TN4dq SN4aq  1 3.650000e-01    3.100000e+00
 TN4dq SN3aq  1 3.650000e-01    2.830000e+00
 TN4dq SN2aq  1 3.650000e-01    2.830000e+00
 TN4dq SN1aq  1 3.650000e-01    2.570000e+00
 TN4dq SC6vq  1 3.650000e-01    2.110000e+00
 TN4dq SC5vq  1 3.650000e-01    1.910000e+00
 TN4dq SC4vq  1 3.650000e-01    1.910000e+00
 TN4dq SC3vq  1 3.650000e-01    1.750000e+00
 TN4dq SC2vq  1 3.660000e-01    1.600000e+00
 TN4dq SC1vq  1 3.780000e-01    1.450000e+00
 TN4dq SX4vq  1 3.650000e-01    2.570000e+00
 TN4dq SX3vq  1 3.650000e-01    2.340000e+00
 TN4dq SX2vq  1 3.650000e-01    1.910000e+00
 TN4dq SX1vq  1 3.650000e-01    1.750000e+00
 TN4dq SC6eq  1 3.650000e-01    2.570000e+00
 TN4dq SC5eq  1 3.650000e-01    2.340000e+00
 TN4dq SC4eq  1 3.650000e-01    2.340000e+00
 TN4dq SC3eq  1 3.650000e-01    2.110000e+00
 TN4dq SC2eq  1 3.650000e-01    1.910000e+00
 TN4dq SC1eq  1 3.650000e-01    1.750000e+00
 TN4dq SX4eq  1 3.650000e-01    3.100000e+00
 TN4dq SX3eq  1 3.650000e-01    2.830000e+00
 TN4dq SX2eq  1 3.650000e-01    2.340000e+00
 TN4dq SX1eq  1 3.650000e-01    2.110000e+00
 TN3dq SN2dq  1 3.650000e-01    2.340000e+00
 TN3dq SN1dq  1 3.650000e-01    2.110000e+00
 TN3dq SN3aq  1 3.650000e-01    2.830000e+00
 TN3dq SN2aq  1 3.650000e-01    2.830000e+00
 TN3dq SN1aq  1 3.650000e-01    2.570000e+00
 TN3dq SC6vq  1 3.650000e-01    2.110000e+00
 TN3dq SC5vq  1 3.650000e-01    1.910000e+00
 TN3dq SC4vq  1 3.650000e-01    1.910000e+00
 TN3dq SC3vq  1 3.650000e-01    1.750000e+00
 TN3dq SC2vq  1 3.650000e-01    1.750000e+00
 TN3dq SC1vq  1 3.660000e-01    1.600000e+00
 TN3dq SX4vq  1 3.650000e-01    2.340000e+00
 TN3dq SX3vq  1 3.650000e-01    2.110000e+00
 TN3dq SX2vq  1 3.650000e-01    1.910000e+00
 TN3dq SX1vq  1 3.650000e-01    1.910000e+00
 TN3dq SC6eq  1 3.650000e-01    2.570000e+00
 TN3dq SC5eq  1 3.650000e-01    2.340000e+00
 TN3dq SC4eq  1 3.650000e-01    2.340000e+00
 TN3dq SC3eq  1 3.650000e-01    2.110000e+00
 TN3dq SC2eq  1 3.650000e-01    2.110000e+00
 TN3dq SC1eq  1 3.650000e-01    1.910000e+00
 TN3dq SX4eq  1 3.650000e-01    2.830000e+00
 TN3dq SX3eq  1 3.650000e-01    2.570000e+00
 TN3dq SX2eq  1 3.650000e-01    2.340000e+00
 TN3dq SX1eq  1 3.650000e-01    2.340000e+00
 TN2dq SN1dq  1 3.650000e-01    2.110000e+00
 TN2dq SN2aq  1 3.650000e-01    2.830000e+00
 TN2dq SN1aq  1 3.650000e-01    2.570000e+00
 TN2dq SC6vq  1 3.650000e-01    2.110000e+00
 TN2dq SC5vq  1 3.650000e-01    1.910000e+00
 TN2dq SC4vq  1 3.650000e-01    1.910000e+00
 TN2dq SC3vq  1 3.650000e-01    1.910000e+00
 TN2dq SC2vq  1 3.650000e-01    1.750000e+00
 TN2dq SC1vq  1 3.660000e-01    1.600000e+00
 TN2dq SX4vq  1 3.650000e-01    2.340000e+00
 TN2dq SX3vq  1 3.650000e-01    2.110000e+00
 TN2dq SX2vq  1 3.650000e-01    1.910000e+00
 TN2dq SX1vq  1 3.650000e-01    1.910000e+00
 TN2dq SC6eq  1 3.650000e-01    2.570000e+00
 TN2dq SC5eq  1 3.650000e-01    2.340000e+00
 TN2dq SC4eq  1 3.650000e-01    2.340000e+00
 TN2dq SC3eq  1 3.650000e-01    2.340000e+00
 TN2dq SC2eq  1 3.650000e-01    2.110000e+00
 TN2dq SC1eq  1 3.650000e-01    1.910000e+00
 TN2dq SX4eq  1 3.650000e-01    2.830000e+00
 TN2dq SX3eq  1 3.650000e-01    2.570000e+00
 TN2dq SX2eq  1 3.650000e-01    2.340000e+00
 TN2dq SX1eq  1 3.650000e-01    2.340000e+00
 TN1dq SN1aq  1 3.650000e-01    2.830000e+00
 TN1dq SC6vq  1 3.650000e-01    2.340000e+00
 TN1dq SC5vq  1 3.650000e-01    2.110000e+00
 TN1dq SC4vq  1 3.650000e-01    2.110000e+00
 TN1dq SC3vq  1 3.650000e-01    1.910000e+00
 TN1dq SC2vq  1 3.650000e-01    1.750000e+00
 TN1dq SC1vq  1 3.660000e-01    1.600000e+00
 TN1dq SX4vq  1 3.650000e-01    2.110000e+00
 TN1dq SX3vq  1 3.650000e-01    2.110000e+00
 TN1dq SX2vq  1 3.650000e-01    1.910000e+00
 TN1dq SX1vq  1 3.650000e-01    1.910000e+00
 TN1dq SC6eq  1 3.650000e-01    2.830000e+00
 TN1dq SC5eq  1 3.650000e-01    2.570000e+00
 TN1dq SC4eq  1 3.650000e-01    2.570000e+00
 TN1dq SC3eq  1 3.650000e-01    2.340000e+00
 TN1dq SC2eq  1 3.650000e-01    2.110000e+00
 TN1dq SC1eq  1 3.650000e-01    1.910000e+00
 TN1dq SX4eq  1 3.650000e-01    2.570000e+00
 TN1dq SX3eq  1 3.650000e-01    2.570000e+00
 TN1dq SX2eq  1 3.650000e-01    2.340000e+00
 TN1dq SX1eq  1 3.650000e-01    2.340000e+00
 TP6aq SP5dq  1 3.650000e-01    4.510000e+00
 TP6aq SP4dq  1 3.650000e-01    4.220000e+00
 TP6aq SP3dq  1 3.650000e-01    3.930000e+00
 TP6aq SP2dq  1 3.650000e-01    3.930000e+00
 TP6aq SP1dq  1 3.650000e-01    3.640000e+00
 TP6aq SN6dq  1 3.650000e-01    3.370000e+00
 TP6aq SN5dq  1 3.650000e-01    2.830000e+00
 TP6aq SN4dq  1 3.650000e-01    2.570000e+00
 TP6aq SN3dq  1 3.650000e-01    2.110000e+00
 TP6aq SN2dq  1 3.650000e-01    1.910000e+00
 TP6aq SN1dq  1 3.650000e-01    1.750000e+00
 TP6aq SP5aq  1 3.650000e-01    3.930000e+00
 TP6aq SP4aq  1 3.650000e-01    3.640000e+00
 TP6aq SP3aq  1 3.650000e-01    3.370000e+00
 TP6aq SP2aq  1 3.650000e-01    3.370000e+00
 TP6aq SP1aq  1 3.650000e-01    3.100000e+00
 TP6aq SN6aq  1 3.650000e-01    2.830000e+00
 TP6aq SN5aq  1 3.650000e-01    2.340000e+00
 TP6aq SN4aq  1 3.650000e-01    2.110000e+00
 TP6aq SN3aq  1 3.650000e-01    2.110000e+00
 TP6aq SN2aq  1 3.650000e-01    1.910000e+00
 TP6aq SN1aq  1 3.650000e-01    1.750000e+00
 TP6aq SC6vq  1 3.650000e-01    1.910000e+00
 TP6aq SC5vq  1 3.650000e-01    1.750000e+00
 TP6aq SC4vq  1 3.660000e-01    1.600000e+00
 TP6aq SC3vq  1 3.780000e-01    1.450000e+00
 TP6aq SC2vq  1 3.780000e-01    1.450000e+00
 TP6aq SC1vq  1 4.040000e-01    1.130000e+00
 TP6aq SX4vq  1 3.650000e-01    2.110000e+00
 TP6aq SX3vq  1 3.650000e-01    2.110000e+00
 TP6aq SX2vq  1 3.650000e-01    1.910000e+00
 TP6aq SX1vq  1 3.650000e-01    1.750000e+00
 TP6aq SC6eq  1 3.660000e-01    1.600000e+00
 TP6aq SC5eq  1 3.780000e-01    1.450000e+00
 TP6aq SC4eq  1 3.940000e-01    1.290000e+00
 TP6aq SC3eq  1 4.040000e-01    1.130000e+00
 TP6aq SC2eq  1 4.040000e-01    1.130000e+00
 TP6aq SC1eq  1 4.230000e-01    9.810000e-01
 TP6aq SX4eq  1 3.650000e-01    1.750000e+00
 TP6aq SX3eq  1 3.650000e-01    1.750000e+00
 TP6aq SX2eq  1 3.660000e-01    1.600000e+00
 TP6aq SX1eq  1 3.780000e-01    1.450000e+00
 TP5aq SP4dq  1 3.650000e-01    3.930000e+00
 TP5aq SP3dq  1 3.650000e-01    3.640000e+00
 TP5aq SP2dq  1 3.650000e-01    3.640000e+00
 TP5aq SP1dq  1 3.650000e-01    3.370000e+00
 TP5aq SN6dq  1 3.650000e-01    3.100000e+00
 TP5aq SN5dq  1 3.650000e-01    2.830000e+00
 TP5aq SN4dq  1 3.650000e-01    2.830000e+00
 TP5aq SN3dq  1 3.650000e-01    2.110000e+00
 TP5aq SN2dq  1 3.650000e-01    1.910000e+00
 TP5aq SN1dq  1 3.650000e-01    1.750000e+00
 TP5aq SP4aq  1 3.650000e-01    3.370000e+00
 TP5aq SP3aq  1 3.650000e-01    3.100000e+00
 TP5aq SP2aq  1 3.650000e-01    3.100000e+00
 TP5aq SP1aq  1 3.650000e-01    2.830000e+00
 TP5aq SN6aq  1 3.650000e-01    2.570000e+00
 TP5aq SN5aq  1 3.650000e-01    2.340000e+00
 TP5aq SN4aq  1 3.650000e-01    2.340000e+00
 TP5aq SN3aq  1 3.650000e-01    2.110000e+00
 TP5aq SN2aq  1 3.650000e-01    1.910000e+00
 TP5aq SN1aq  1 3.650000e-01    1.750000e+00
 TP5aq SC6vq  1 3.650000e-01    1.910000e+00
 TP5aq SC5vq  1 3.650000e-01    1.910000e+00
 TP5aq SC4vq  1 3.650000e-01    1.750000e+00
 TP5aq SC3vq  1 3.660000e-01    1.600000e+00
 TP5aq SC2vq  1 3.660000e-01    1.600000e+00
 TP5aq SC1vq  1 3.780000e-01    1.450000e+00
 TP5aq SX4vq  1 3.650000e-01    2.340000e+00
 TP5aq SX3vq  1 3.650000e-01    2.110000e+00
 TP5aq SX2vq  1 3.650000e-01    2.110000e+00
 TP5aq SX1vq  1 3.650000e-01    1.750000e+00
 TP5aq SC6eq  1 3.660000e-01    1.600000e+00
 TP5aq SC5eq  1 3.660000e-01    1.600000e+00
 TP5aq SC4eq  1 3.780000e-01    1.450000e+00
 TP5aq SC3eq  1 3.940000e-01    1.290000e+00
 TP5aq SC2eq  1 3.940000e-01    1.290000e+00
 TP5aq SC1eq  1 4.040000e-01    1.130000e+00
 TP5aq SX4eq  1 3.650000e-01    1.910000e+00
 TP5aq SX3eq  1 3.650000e-01    1.750000e+00
 TP5aq SX2eq  1 3.650000e-01    1.750000e+00
 TP5aq SX1eq  1 3.780000e-01    1.450000e+00
 TP4aq SP3dq  1 3.650000e-01    3.640000e+00
 TP4aq SP2dq  1 3.650000e-01    3.640000e+00
 TP4aq SP1dq  1 3.650000e-01    3.370000e+00
 TP4aq SN6dq  1 3.650000e-01    3.100000e+00
 TP4aq SN5dq  1 3.650000e-01    2.830000e+00
 TP4aq SN4dq  1 3.650000e-01    2.830000e+00
 TP4aq SN3dq  1 3.650000e-01    2.570000e+00
 TP4aq SN2dq  1 3.650000e-01    2.110000e+00
 TP4aq SN1dq  1 3.650000e-01    1.910000e+00
 TP4aq SP3aq  1 3.650000e-01    3.100000e+00
 TP4aq SP2aq  1 3.650000e-01    3.100000e+00
 TP4aq SP1aq  1 3.650000e-01    2.830000e+00
 TP4aq SN6aq  1 3.650000e-01    2.570000e+00
 TP4aq SN5aq  1 3.650000e-01    2.340000e+00
 TP4aq SN4aq  1 3.650000e-01    2.340000e+00
 TP4aq SN3aq  1 3.650000e-01    2.110000e+00
 TP4aq SN2aq  1 3.650000e-01    2.110000e+00
 TP4aq SN1aq  1 3.650000e-01    1.910000e+00
 TP4aq SC6vq  1 3.650000e-01    2.110000e+00
 TP4aq SC5vq  1 3.650000e-01    1.910000e+00
 TP4aq SC4vq  1 3.650000e-01    1.750000e+00
 TP4aq SC3vq  1 3.660000e-01    1.600000e+00
 TP4aq SC2vq  1 3.660000e-01    1.600000e+00
 TP4aq SC1vq  1 3.780000e-01    1.450000e+00
 TP4aq SX4vq  1 3.650000e-01    2.340000e+00
 TP4aq SX3vq  1 3.650000e-01    2.110000e+00
 TP4aq SX2vq  1 3.650000e-01    2.110000e+00
 TP4aq SX1vq  1 3.650000e-01    1.910000e+00
 TP4aq SC6eq  1 3.650000e-01    1.750000e+00
 TP4aq SC5eq  1 3.660000e-01    1.600000e+00
 TP4aq SC4eq  1 3.780000e-01    1.450000e+00
 TP4aq SC3eq  1 3.940000e-01    1.290000e+00
 TP4aq SC2eq  1 3.940000e-01    1.290000e+00
 TP4aq SC1eq  1 4.040000e-01    1.130000e+00
 TP4aq SX4eq  1 3.650000e-01    1.910000e+00
 TP4aq SX3eq  1 3.650000e-01    1.750000e+00
 TP4aq SX2eq  1 3.650000e-01    1.750000e+00
 TP4aq SX1eq  1 3.660000e-01    1.600000e+00
 TP3aq SP2dq  1 3.650000e-01    3.640000e+00
 TP3aq SP1dq  1 3.650000e-01    3.370000e+00
 TP3aq SN6dq  1 3.650000e-01    3.100000e+00
 TP3aq SN5dq  1 3.650000e-01    2.830000e+00
 TP3aq SN4dq  1 3.650000e-01    2.830000e+00
 TP3aq SN3dq  1 3.650000e-01    2.570000e+00
 TP3aq SN2dq  1 3.650000e-01    2.570000e+00
 TP3aq SN1dq  1 3.650000e-01    2.110000e+00
 TP3aq SP2aq  1 3.650000e-01    3.100000e+00
 TP3aq SP1aq  1 3.650000e-01    2.830000e+00
 TP3aq SN6aq  1 3.650000e-01    2.570000e+00
 TP3aq SN5aq  1 3.650000e-01    2.340000e+00
 TP3aq SN4aq  1 3.650000e-01    2.340000e+00
 TP3aq SN3aq  1 3.650000e-01    2.110000e+00
 TP3aq SN2aq  1 3.650000e-01    2.110000e+00
 TP3aq SN1aq  1 3.650000e-01    2.110000e+00
 TP3aq SC6vq  1 3.650000e-01    2.340000e+00
 TP3aq SC5vq  1 3.650000e-01    2.110000e+00
 TP3aq SC4vq  1 3.650000e-01    1.910000e+00
 TP3aq SC3vq  1 3.660000e-01    1.600000e+00
 TP3aq SC2vq  1 3.660000e-01    1.600000e+00
 TP3aq SC1vq  1 3.780000e-01    1.450000e+00
 TP3aq SX4vq  1 3.650000e-01    2.340000e+00
 TP3aq SX3vq  1 3.650000e-01    2.340000e+00
 TP3aq SX2vq  1 3.650000e-01    2.110000e+00
 TP3aq SX1vq  1 3.650000e-01    1.910000e+00
 TP3aq SC6eq  1 3.650000e-01    1.910000e+00
 TP3aq SC5eq  1 3.650000e-01    1.750000e+00
 TP3aq SC4eq  1 3.660000e-01    1.600000e+00
 TP3aq SC3eq  1 3.940000e-01    1.290000e+00
 TP3aq SC2eq  1 3.940000e-01    1.290000e+00
 TP3aq SC1eq  1 4.040000e-01    1.130000e+00
 TP3aq SX4eq  1 3.650000e-01    1.910000e+00
 TP3aq SX3eq  1 3.650000e-01    1.910000e+00
 TP3aq SX2eq  1 3.650000e-01    1.750000e+00
 TP3aq SX1eq  1 3.660000e-01    1.600000e+00
 TP2aq SP1dq  1 3.650000e-01    3.370000e+00
 TP2aq SN6dq  1 3.650000e-01    3.370000e+00
 TP2aq SN5dq  1 3.650000e-01    3.100000e+00
 TP2aq SN4dq  1 3.650000e-01    2.830000e+00
 TP2aq SN3dq  1 3.650000e-01    2.570000e+00
 TP2aq SN2dq  1 3.650000e-01    2.570000e+00
 TP2aq SN1dq  1 3.650000e-01    2.570000e+00
 TP2aq SP1aq  1 3.650000e-01    2.830000e+00
 TP2aq SN6aq  1 3.650000e-01    2.830000e+00
 TP2aq SN5aq  1 3.650000e-01    2.570000e+00
 TP2aq SN4aq  1 3.650000e-01    2.340000e+00
 TP2aq SN3aq  1 3.650000e-01    2.110000e+00
 TP2aq SN2aq  1 3.650000e-01    2.110000e+00
 TP2aq SN1aq  1 3.650000e-01    2.110000e+00
 TP2aq SC6vq  1 3.650000e-01    2.340000e+00
 TP2aq SC5vq  1 3.650000e-01    2.110000e+00
 TP2aq SC4vq  1 3.650000e-01    1.910000e+00
 TP2aq SC3vq  1 3.650000e-01    1.750000e+00
 TP2aq SC2vq  1 3.650000e-01    1.750000e+00
 TP2aq SC1vq  1 3.660000e-01    1.600000e+00
 TP2aq SX4vq  1 3.650000e-01    2.340000e+00
 TP2aq SX3vq  1 3.650000e-01    2.340000e+00
 TP2aq SX2vq  1 3.650000e-01    2.110000e+00
 TP2aq SX1vq  1 3.650000e-01    1.910000e+00
 TP2aq SC6eq  1 3.650000e-01    1.910000e+00
 TP2aq SC5eq  1 3.650000e-01    1.750000e+00
 TP2aq SC4eq  1 3.660000e-01    1.600000e+00
 TP2aq SC3eq  1 3.780000e-01    1.450000e+00
 TP2aq SC2eq  1 3.780000e-01    1.450000e+00
 TP2aq SC1eq  1 3.940000e-01    1.290000e+00
 TP2aq SX4eq  1 3.650000e-01    1.910000e+00
 TP2aq SX3eq  1 3.650000e-01    1.910000e+00
 TP2aq SX2eq  1 3.650000e-01    1.750000e+00
 TP2aq SX1eq  1 3.660000e-01    1.600000e+00
 TP1aq SN6dq  1 3.650000e-01    3.370000e+00
 TP1aq SN5dq  1 3.650000e-01    3.100000e+00
 TP1aq SN4dq  1 3.650000e-01    3.100000e+00
 TP1aq SN3dq  1 3.650000e-01    2.570000e+00
 TP1aq SN2dq  1 3.650000e-01    2.570000e+00
 TP1aq SN1dq  1 3.650000e-01    2.570000e+00
 TP1aq SN6aq  1 3.650000e-01    2.830000e+00
 TP1aq SN5aq  1 3.650000e-01    2.570000e+00
 TP1aq SN4aq  1 3.650000e-01    2.570000e+00
 TP1aq SN3aq  1 3.650000e-01    2.110000e+00
 TP1aq SN2aq  1 3.650000e-01    2.110000e+00
 TP1aq SN1aq  1 3.650000e-01    2.110000e+00
 TP1aq SC6vq  1 3.650000e-01    2.340000e+00
 TP1aq SC5vq  1 3.650000e-01    2.110000e+00
 TP1aq SC4vq  1 3.650000e-01    1.910000e+00
 TP1aq SC3vq  1 3.650000e-01    1.750000e+00
 TP1aq SC2vq  1 3.650000e-01    1.750000e+00
 TP1aq SC1vq  1 3.660000e-01    1.600000e+00
 TP1aq SX4vq  1 3.650000e-01    2.340000e+00
 TP1aq SX3vq  1 3.650000e-01    2.340000e+00
 TP1aq SX2vq  1 3.650000e-01    2.110000e+00
 TP1aq SX1vq  1 3.650000e-01    1.910000e+00
 TP1aq SC6eq  1 3.650000e-01    1.910000e+00
 TP1aq SC5eq  1 3.650000e-01    1.750000e+00
 TP1aq SC4eq  1 3.660000e-01    1.600000e+00
 TP1aq SC3eq  1 3.780000e-01    1.450000e+00
 TP1aq SC2eq  1 3.780000e-01    1.450000e+00
 TP1aq SC1eq  1 3.940000e-01    1.290000e+00
 TP1aq SX4eq  1 3.650000e-01    1.910000e+00
 TP1aq SX3eq  1 3.650000e-01    1.910000e+00
 TP1aq SX2eq  1 3.650000e-01    1.750000e+00
 TP1aq SX1eq  1 3.660000e-01    1.600000e+00
 TN6aq SN5dq  1 3.650000e-01    3.370000e+00
 TN6aq SN4dq  1 3.650000e-01    3.370000e+00
 TN6aq SN3dq  1 3.650000e-01    2.830000e+00
 TN6aq SN2dq  1 3.650000e-01    2.570000e+00
 TN6aq SN1dq  1 3.650000e-01    2.570000e+00
 TN6aq SN5aq  1 3.650000e-01    2.830000e+00
 TN6aq SN4aq  1 3.650000e-01    2.830000e+00
 TN6aq SN3aq  1 3.650000e-01    2.340000e+00
 TN6aq SN2aq  1 3.650000e-01    2.110000e+00
 TN6aq SN1aq  1 3.650000e-01    2.110000e+00
 TN6aq SC6vq  1 3.650000e-01    2.570000e+00
 TN6aq SC5vq  1 3.650000e-01    2.340000e+00
 TN6aq SC4vq  1 3.650000e-01    2.110000e+00
 TN6aq SC3vq  1 3.650000e-01    1.910000e+00
 TN6aq SC2vq  1 3.650000e-01    1.910000e+00
 TN6aq SC1vq  1 3.650000e-01    1.750000e+00
 TN6aq SX4vq  1 3.650000e-01    2.570000e+00
 TN6aq SX3vq  1 3.650000e-01    2.340000e+00
 TN6aq SX2vq  1 3.650000e-01    2.110000e+00
 TN6aq SX1vq  1 3.650000e-01    1.910000e+00
 TN6aq SC6eq  1 3.650000e-01    2.110000e+00
 TN6aq SC5eq  1 3.650000e-01    1.910000e+00
 TN6aq SC4eq  1 3.650000e-01    1.750000e+00
 TN6aq SC3eq  1 3.660000e-01    1.600000e+00
 TN6aq SC2eq  1 3.660000e-01    1.600000e+00
 TN6aq SC1eq  1 3.780000e-01    1.450000e+00
 TN6aq SX4eq  1 3.650000e-01    2.110000e+00
 TN6aq SX3eq  1 3.650000e-01    1.910000e+00
 TN6aq SX2eq  1 3.650000e-01    1.750000e+00
 TN6aq SX1eq  1 3.660000e-01    1.600000e+00
 TN5aq SN4dq  1 3.650000e-01    3.100000e+00
 TN5aq SN3dq  1 3.650000e-01    2.830000e+00
 TN5aq SN2dq  1 3.650000e-01    2.830000e+00
 TN5aq SN1dq  1 3.650000e-01    2.570000e+00
 TN5aq SN4aq  1 3.650000e-01    2.570000e+00
 TN5aq SN3aq  1 3.650000e-01    2.340000e+00
 TN5aq SN2aq  1 3.650000e-01    2.340000e+00
 TN5aq SN1aq  1 3.650000e-01    2.110000e+00
 TN5aq SC6vq  1 3.650000e-01    2.570000e+00
 TN5aq SC5vq  1 3.650000e-01    2.340000e+00
 TN5aq SC4vq  1 3.650000e-01    2.110000e+00
 TN5aq SC3vq  1 3.650000e-01    2.110000e+00
 TN5aq SC2vq  1 3.650000e-01    1.910000e+00
 TN5aq SC1vq  1 3.650000e-01    1.750000e+00
 TN5aq SX4vq  1 3.650000e-01    2.830000e+00
 TN5aq SX3vq  1 3.650000e-01    2.570000e+00
 TN5aq SX2vq  1 3.650000e-01    2.340000e+00
 TN5aq SX1vq  1 3.650000e-01    2.110000e+00
 TN5aq SC6eq  1 3.650000e-01    2.110000e+00
 TN5aq SC5eq  1 3.650000e-01    1.910000e+00
 TN5aq SC4eq  1 3.650000e-01    1.750000e+00
 TN5aq SC3eq  1 3.650000e-01    1.750000e+00
 TN5aq SC2eq  1 3.660000e-01    1.600000e+00
 TN5aq SC1eq  1 3.780000e-01    1.450000e+00
 TN5aq SX4eq  1 3.650000e-01    2.340000e+00
 TN5aq SX3eq  1 3.650000e-01    2.110000e+00
 TN5aq SX2eq  1 3.650000e-01    1.910000e+00
 TN5aq SX1eq  1 3.650000e-01    1.750000e+00
 TN4aq SN3dq  1 3.650000e-01    2.830000e+00
 TN4aq SN2dq  1 3.650000e-01    2.830000e+00
 TN4aq SN1dq  1 3.650000e-01    2.570000e+00
 TN4aq SN3aq  1 3.650000e-01    2.340000e+00
 TN4aq SN2aq  1 3.650000e-01    2.340000e+00
 TN4aq SN1aq  1 3.650000e-01    2.110000e+00
 TN4aq SC6vq  1 3.650000e-01    2.570000e+00
 TN4aq SC5vq  1 3.650000e-01    2.340000e+00
 TN4aq SC4vq  1 3.650000e-01    2.340000e+00
 TN4aq SC3vq  1 3.650000e-01    2.110000e+00
 TN4aq SC2vq  1 3.650000e-01    1.910000e+00
 TN4aq SC1vq  1 3.650000e-01    1.750000e+00
 TN4aq SX4vq  1 3.650000e-01    3.100000e+00
 TN4aq SX3vq  1 3.650000e-01    2.830000e+00
 TN4aq SX2vq  1 3.650000e-01    2.340000e+00
 TN4aq SX1vq  1 3.650000e-01    2.110000e+00
 TN4aq SC6eq  1 3.650000e-01    2.110000e+00
 TN4aq SC5eq  1 3.650000e-01    1.910000e+00
 TN4aq SC4eq  1 3.650000e-01    1.910000e+00
 TN4aq SC3eq  1 3.650000e-01    1.750000e+00
 TN4aq SC2eq  1 3.660000e-01    1.600000e+00
 TN4aq SC1eq  1 3.780000e-01    1.450000e+00
 TN4aq SX4eq  1 3.650000e-01    2.570000e+00
 TN4aq SX3eq  1 3.650000e-01    2.340000e+00
 TN4aq SX2eq  1 3.650000e-01    1.910000e+00
 TN4aq SX1eq  1 3.650000e-01    1.750000e+00
 TN3aq SN2dq  1 3.650000e-01    2.830000e+00
 TN3aq SN1dq  1 3.650000e-01    2.570000e+00
 TN3aq SN2aq  1 3.650000e-01    2.340000e+00
 TN3aq SN1aq  1 3.650000e-01    2.110000e+00
 TN3aq SC6vq  1 3.650000e-01    2.570000e+00
 TN3aq SC5vq  1 3.650000e-01    2.340000e+00
 TN3aq SC4vq  1 3.650000e-01    2.340000e+00
 TN3aq SC3vq  1 3.650000e-01    2.110000e+00
 TN3aq SC2vq  1 3.650000e-01    2.110000e+00
 TN3aq SC1vq  1 3.650000e-01    1.910000e+00
 TN3aq SX4vq  1 3.650000e-01    2.830000e+00
 TN3aq SX3vq  1 3.650000e-01    2.570000e+00
 TN3aq SX2vq  1 3.650000e-01    2.340000e+00
 TN3aq SX1vq  1 3.650000e-01    2.340000e+00
 TN3aq SC6eq  1 3.650000e-01    2.110000e+00
 TN3aq SC5eq  1 3.650000e-01    1.910000e+00
 TN3aq SC4eq  1 3.650000e-01    1.910000e+00
 TN3aq SC3eq  1 3.650000e-01    1.750000e+00
 TN3aq SC2eq  1 3.650000e-01    1.750000e+00
 TN3aq SC1eq  1 3.660000e-01    1.600000e+00
 TN3aq SX4eq  1 3.650000e-01    2.340000e+00
 TN3aq SX3eq  1 3.650000e-01    2.110000e+00
 TN3aq SX2eq  1 3.650000e-01    1.910000e+00
 TN3aq SX1eq  1 3.650000e-01    1.910000e+00
 TN2aq SN1dq  1 3.650000e-01    2.570000e+00
 TN2aq SN1aq  1 3.650000e-01    2.110000e+00
 TN2aq SC6vq  1 3.650000e-01    2.570000e+00
 TN2aq SC5vq  1 3.650000e-01    2.340000e+00
 TN2aq SC4vq  1 3.650000e-01    2.340000e+00
 TN2aq SC3vq  1 3.650000e-01    2.340000e+00
 TN2aq SC2vq  1 3.650000e-01    2.110000e+00
 TN2aq SC1vq  1 3.650000e-01    1.910000e+00
 TN2aq SX4vq  1 3.650000e-01    2.830000e+00
 TN2aq SX3vq  1 3.650000e-01    2.570000e+00
 TN2aq SX2vq  1 3.650000e-01    2.340000e+00
 TN2aq SX1vq  1 3.650000e-01    2.340000e+00
 TN2aq SC6eq  1 3.650000e-01    2.110000e+00
 TN2aq SC5eq  1 3.650000e-01    1.910000e+00
 TN2aq SC4eq  1 3.650000e-01    1.910000e+00
 TN2aq SC3eq  1 3.650000e-01    1.910000e+00
 TN2aq SC2eq  1 3.650000e-01    1.750000e+00
 TN2aq SC1eq  1 3.660000e-01    1.600000e+00
 TN2aq SX4eq  1 3.650000e-01    2.340000e+00
 TN2aq SX3eq  1 3.650000e-01    2.110000e+00
 TN2aq SX2eq  1 3.650000e-01    1.910000e+00
 TN2aq SX1eq  1 3.650000e-01    1.910000e+00
 TN1aq SC6vq  1 3.650000e-01    2.830000e+00
 TN1aq SC5vq  1 3.650000e-01    2.570000e+00
 TN1aq SC4vq  1 3.650000e-01    2.570000e+00
 TN1aq SC3vq  1 3.650000e-01    2.340000e+00
 TN1aq SC2vq  1 3.650000e-01    2.110000e+00
 TN1aq SC1vq  1 3.650000e-01    1.910000e+00
 TN1aq SX4vq  1 3.650000e-01    2.570000e+00
 TN1aq SX3vq  1 3.650000e-01    2.570000e+00
 TN1aq SX2vq  1 3.650000e-01    2.340000e+00
 TN1aq SX1vq  1 3.650000e-01    2.340000e+00
 TN1aq SC6eq  1 3.650000e-01    2.340000e+00
 TN1aq SC5eq  1 3.650000e-01    2.110000e+00
 TN1aq SC4eq  1 3.650000e-01    2.110000e+00
 TN1aq SC3eq  1 3.650000e-01    1.910000e+00
 TN1aq SC2eq  1 3.650000e-01    1.750000e+00
 TN1aq SC1eq  1 3.660000e-01    1.600000e+00
 TN1aq SX4eq  1 3.650000e-01    2.110000e+00
 TN1aq SX3eq  1 3.650000e-01    2.110000e+00
 TN1aq SX2eq  1 3.650000e-01    1.910000e+00
 TN1aq SX1eq  1 3.650000e-01    1.910000e+00
 TC6vq SC5vq  1 3.650000e-01    2.110000e+00
 TC6vq SC4vq  1 3.650000e-01    2.110000e+00
 TC6vq SC3vq  1 3.650000e-01    1.910000e+00
 TC6vq SC2vq  1 3.650000e-01    1.750000e+00
 TC6vq SC1vq  1 3.660000e-01    1.600000e+00
 TC6vq SX4vq  1 3.650000e-01    2.110000e+00
 TC6vq SX3vq  1 3.650000e-01    2.110000e+00
 TC6vq SX2vq  1 3.650000e-01    2.110000e+00
 TC6vq SX1vq  1 3.650000e-01    2.110000e+00
 TC6vq SC6eq  1 3.650000e-01    3.100000e+00
 TC6vq SC5eq  1 3.650000e-01    2.830000e+00
 TC6vq SC4eq  1 3.650000e-01    2.830000e+00
 TC6vq SC3eq  1 3.650000e-01    2.570000e+00
 TC6vq SC2eq  1 3.650000e-01    2.340000e+00
 TC6vq SC1eq  1 3.650000e-01    2.110000e+00
 TC6vq SX4eq  1 3.650000e-01    2.830000e+00
 TC6vq SX3eq  1 3.650000e-01    2.830000e+00
 TC6vq SX2eq  1 3.650000e-01    2.830000e+00
 TC6vq SX1eq  1 3.650000e-01    2.830000e+00
 TC5vq SC4vq  1 3.650000e-01    2.110000e+00
 TC5vq SC3vq  1 3.650000e-01    1.910000e+00
 TC5vq SC2vq  1 3.650000e-01    1.750000e+00
 TC5vq SC1vq  1 3.650000e-01    1.750000e+00
 TC5vq SX4vq  1 3.650000e-01    1.910000e+00
 TC5vq SX3vq  1 3.650000e-01    1.910000e+00
 TC5vq SX2vq  1 3.650000e-01    1.910000e+00
 TC5vq SX1vq  1 3.650000e-01    2.110000e+00
 TC5vq SC5eq  1 3.650000e-01    2.830000e+00
 TC5vq SC4eq  1 3.650000e-01    2.830000e+00
 TC5vq SC3eq  1 3.650000e-01    2.570000e+00
 TC5vq SC2eq  1 3.650000e-01    2.340000e+00
 TC5vq SC1eq  1 3.650000e-01    2.340000e+00
 TC5vq SX4eq  1 3.650000e-01    2.570000e+00
 TC5vq SX3eq  1 3.650000e-01    2.570000e+00
 TC5vq SX2eq  1 3.650000e-01    2.570000e+00
 TC5vq SX1eq  1 3.650000e-01    2.830000e+00
 TC4vq SC3vq  1 3.650000e-01    2.110000e+00
 TC4vq SC2vq  1 3.650000e-01    1.910000e+00
 TC4vq SC1vq  1 3.650000e-01    1.750000e+00
 TC4vq SX4vq  1 3.650000e-01    1.910000e+00
 TC4vq SX3vq  1 3.650000e-01    1.910000e+00
 TC4vq SX2vq  1 3.650000e-01    1.910000e+00
 TC4vq SX1vq  1 3.650000e-01    2.110000e+00
 TC4vq SC4eq  1 3.650000e-01    2.830000e+00
 TC4vq SC3eq  1 3.650000e-01    2.830000e+00
 TC4vq SC2eq  1 3.650000e-01    2.570000e+00
 TC4vq SC1eq  1 3.650000e-01    2.340000e+00
 TC4vq SX4eq  1 3.650000e-01    2.570000e+00
 TC4vq SX3eq  1 3.650000e-01    2.570000e+00
 TC4vq SX2eq  1 3.650000e-01    2.570000e+00
 TC4vq SX1eq  1 3.650000e-01    2.830000e+00
 TC3vq SC2vq  1 3.650000e-01    2.110000e+00
 TC3vq SC1vq  1 3.650000e-01    2.110000e+00
 TC3vq SX4vq  1 3.650000e-01    1.910000e+00
 TC3vq SX3vq  1 3.650000e-01    1.910000e+00
 TC3vq SX2vq  1 3.650000e-01    1.910000e+00
 TC3vq SX1vq  1 3.650000e-01    2.110000e+00
 TC3vq SC3eq  1 3.650000e-01    2.830000e+00
 TC3vq SC2eq  1 3.650000e-01    2.830000e+00
 TC3vq SC1eq  1 3.650000e-01    2.830000e+00
 TC3vq SX4eq  1 3.650000e-01    2.570000e+00
 TC3vq SX3eq  1 3.650000e-01    2.570000e+00
 TC3vq SX2eq  1 3.650000e-01    2.570000e+00
 TC3vq SX1eq  1 3.650000e-01    2.830000e+00
 TC2vq SC1vq  1 3.650000e-01    2.340000e+00
 TC2vq SX4vq  1 3.660000e-01    1.600000e+00
 TC2vq SX3vq  1 3.650000e-01    1.910000e+00
 TC2vq SX2vq  1 3.650000e-01    1.910000e+00
 TC2vq SX1vq  1 3.650000e-01    1.910000e+00
 TC2vq SC2eq  1 3.650000e-01    2.830000e+00
 TC2vq SC1eq  1 3.650000e-01    3.100000e+00
 TC2vq SX4eq  1 3.650000e-01    2.110000e+00
 TC2vq SX3eq  1 3.650000e-01    2.570000e+00
 TC2vq SX2eq  1 3.650000e-01    2.570000e+00
 TC2vq SX1eq  1 3.650000e-01    2.570000e+00
 TC1vq SX4vq  1 3.660000e-01    1.600000e+00
 TC1vq SX3vq  1 3.650000e-01    1.910000e+00
 TC1vq SX2vq  1 3.650000e-01    1.910000e+00
 TC1vq SX1vq  1 3.650000e-01    1.910000e+00
 TC1vq SC1eq  1 3.650000e-01    2.830000e+00
 TC1vq SX4eq  1 3.650000e-01    2.110000e+00
 TC1vq SX3eq  1 3.650000e-01    2.570000e+00
 TC1vq SX2eq  1 3.650000e-01    2.570000e+00
 TC1vq SX1eq  1 3.650000e-01    2.570000e+00
 TX4vq SX3vq  1 3.650000e-01    2.110000e+00
 TX4vq SX2vq  1 3.650000e-01    2.110000e+00
 TX4vq SX1vq  1 3.650000e-01    2.110000e+00
 TX4vq SX4eq  1 3.650000e-01    2.830000e+00
 TX4vq SX3eq  1 3.650000e-01    2.830000e+00
 TX4vq SX2eq  1 3.650000e-01    2.830000e+00
 TX4vq SX1eq  1 3.650000e-01    2.830000e+00
 TX3vq SX2vq  1 3.650000e-01    2.340000e+00
 TX3vq SX1vq  1 3.650000e-01    2.340000e+00
 TX3vq SX3eq  1 3.650000e-01    2.830000e+00
 TX3vq SX2eq  1 3.650000e-01    3.100000e+00
 TX3vq SX1eq  1 3.650000e-01    3.100000e+00
 TX2vq SX1vq  1 3.650000e-01    2.340000e+00
 TX2vq SX2eq  1 3.650000e-01    3.100000e+00
 TX2vq SX1eq  1 3.650000e-01    3.100000e+00
 TX1vq SX1eq  1 3.650000e-01    3.370000e+00
 TC6eq SC5vq  1 3.650000e-01    2.830000e+00
 TC6eq SC4vq  1 3.650000e-01    2.830000e+00
 TC6eq SC3vq  1 3.650000e-01    2.570000e+00
 TC6eq SC2vq  1 3.650000e-01    2.340000e+00
 TC6eq SC1vq  1 3.650000e-01    2.110000e+00
 TC6eq SX4vq  1 3.650000e-01    2.830000e+00
 TC6eq SX3vq  1 3.650000e-01    2.830000e+00
 TC6eq SX2vq  1 3.650000e-01    2.830000e+00
 TC6eq SX1vq  1 3.650000e-01    2.830000e+00
 TC6eq SC5eq  1 3.650000e-01    2.110000e+00
 TC6eq SC4eq  1 3.650000e-01    2.110000e+00
 TC6eq SC3eq  1 3.650000e-01    1.910000e+00
 TC6eq SC2eq  1 3.650000e-01    1.750000e+00
 TC6eq SC1eq  1 3.660000e-01    1.600000e+00
 TC6eq SX4eq  1 3.650000e-01    2.110000e+00
 TC6eq SX3eq  1 3.650000e-01    2.110000e+00
 TC6eq SX2eq  1 3.650000e-01    2.110000e+00
 TC6eq SX1eq  1 3.650000e-01    2.110000e+00
 TC5eq SC4vq  1 3.650000e-01    2.830000e+00
 TC5eq SC3vq  1 3.650000e-01    2.570000e+00
 TC5eq SC2vq  1 3.650000e-01    2.340000e+00
 TC5eq SC1vq  1 3.650000e-01    2.340000e+00
 TC5eq SX4vq  1 3.650000e-01    2.570000e+00
 TC5eq SX3vq  1 3.650000e-01    2.570000e+00
 TC5eq SX2vq  1 3.650000e-01    2.570000e+00
 TC5eq SX1vq  1 3.650000e-01    2.830000e+00
 TC5eq SC4eq  1 3.650000e-01    2.110000e+00
 TC5eq SC3eq  1 3.650000e-01    1.910000e+00
 TC5eq SC2eq  1 3.650000e-01    1.750000e+00
 TC5eq SC1eq  1 3.650000e-01    1.750000e+00
 TC5eq SX4eq  1 3.650000e-01    1.910000e+00
 TC5eq SX3eq  1 3.650000e-01    1.910000e+00
 TC5eq SX2eq  1 3.650000e-01    1.910000e+00
 TC5eq SX1eq  1 3.650000e-01    2.110000e+00
 TC4eq SC3vq  1 3.650000e-01    2.830000e+00
 TC4eq SC2vq  1 3.650000e-01    2.570000e+00
 TC4eq SC1vq  1 3.650000e-01    2.340000e+00
 TC4eq SX4vq  1 3.650000e-01    2.570000e+00
 TC4eq SX3vq  1 3.650000e-01    2.570000e+00
 TC4eq SX2vq  1 3.650000e-01    2.570000e+00
 TC4eq SX1vq  1 3.650000e-01    2.830000e+00
 TC4eq SC3eq  1 3.650000e-01    2.110000e+00
 TC4eq SC2eq  1 3.650000e-01    1.910000e+00
 TC4eq SC1eq  1 3.650000e-01    1.750000e+00
 TC4eq SX4eq  1 3.650000e-01    1.910000e+00
 TC4eq SX3eq  1 3.650000e-01    1.910000e+00
 TC4eq SX2eq  1 3.650000e-01    1.910000e+00
 TC4eq SX1eq  1 3.650000e-01    2.110000e+00
 TC3eq SC2vq  1 3.650000e-01    2.830000e+00
 TC3eq SC1vq  1 3.650000e-01    2.830000e+00
 TC3eq SX4vq  1 3.650000e-01    2.570000e+00
 TC3eq SX3vq  1 3.650000e-01    2.570000e+00
 TC3eq SX2vq  1 3.650000e-01    2.570000e+00
 TC3eq SX1vq  1 3.650000e-01    2.830000e+00
 TC3eq SC2eq  1 3.650000e-01    2.110000e+00
 TC3eq SC1eq  1 3.650000e-01    2.110000e+00
 TC3eq SX4eq  1 3.650000e-01    1.910000e+00
 TC3eq SX3eq  1 3.650000e-01    1.910000e+00
 TC3eq SX2eq  1 3.650000e-01    1.910000e+00
 TC3eq SX1eq  1 3.650000e-01    2.110000e+00
 TC2eq SC1vq  1 3.650000e-01    3.100000e+00
 TC2eq SX4vq  1 3.650000e-01    2.110000e+00
 TC2eq SX3vq  1 3.650000e-01    2.570000e+00
 TC2eq SX2vq  1 3.650000e-01    2.570000e+00
 TC2eq SX1vq  1 3.650000e-01    2.570000e+00
 TC2eq SC1eq  1 3.650000e-01    2.340000e+00
 TC2eq SX4eq  1 3.660000e-01    1.600000e+00
 TC2eq SX3eq  1 3.650000e-01    1.910000e+00
 TC2eq SX2eq  1 3.650000e-01    1.910000e+00
 TC2eq SX1eq  1 3.650000e-01    1.910000e+00
 TC1eq SX4vq  1 3.650000e-01    2.110000e+00
 TC1eq SX3vq  1 3.650000e-01    2.570000e+00
 TC1eq SX2vq  1 3.650000e-01    2.570000e+00
 TC1eq SX1vq  1 3.650000e-01    2.570000e+00
 TC1eq SX4eq  1 3.660000e-01    1.600000e+00
 TC1eq SX3eq  1 3.650000e-01    1.910000e+00
 TC1eq SX2eq  1 3.650000e-01    1.910000e+00
 TC1eq SX1eq  1 3.650000e-01    1.910000e+00
 TX4eq SX3vq  1 3.650000e-01    2.830000e+00
 TX4eq SX2vq  1 3.650000e-01    2.830000e+00
 TX4eq SX1vq  1 3.650000e-01    2.830000e+00
 TX4eq SX3eq  1 3.650000e-01    2.110000e+00
 TX4eq SX2eq  1 3.650000e-01    2.110000e+00
 TX4eq SX1eq  1 3.650000e-01    2.110000e+00
 TX3eq SX2vq  1 3.650000e-01    3.100000e+00
 TX3eq SX1vq  1 3.650000e-01    3.100000e+00
 TX3eq SX2eq  1 3.650000e-01    2.340000e+00
 TX3eq SX1eq  1 3.650000e-01    2.340000e+00
 TX2eq SX1vq  1 3.650000e-01    3.100000e+00
 TX2eq SX1eq  1 3.650000e-01    2.340000e+00
  TP6h  SP6d  1 3.650000e-01    3.930000e+00
  TP6h  SN1d  1 3.780000e-01    1.450000e+00
  TP6h  SN2d  1 3.660000e-01    1.600000e+00
  TP6h  SN3d  1 3.650000e-01    1.750000e+00
  TP6h  SN4d  1 3.650000e-01    1.910000e+00
  TP6h  SN5d  1 3.650000e-01    2.110000e+00
  TP6h  SN6d  1 3.650000e-01    2.570000e+00
  TP6h  SP1d  1 3.650000e-01    2.830000e+00
  TP6h  SP2d  1 3.650000e-01    3.100000e+00
  TP6h  SP3d  1 3.650000e-01    3.100000e+00
  TP6h  SP4d  1 3.650000e-01    3.370000e+00
  TP6h  SP5d  1 3.650000e-01    3.640000e+00
  TP6h  SP6a  1 3.650000e-01    3.930000e+00
  TP6h  SN1a  1 3.780000e-01    1.450000e+00
  TP6h  SN2a  1 3.660000e-01    1.600000e+00
  TP6h  SN3a  1 3.650000e-01    1.750000e+00
  TP6h  SN4a  1 3.650000e-01    1.910000e+00
  TP6h  SN5a  1 3.650000e-01    2.110000e+00
  TP6h  SN6a  1 3.650000e-01    2.570000e+00
  TP6h  SP1a  1 3.650000e-01    2.830000e+00
  TP6h  SP2a  1 3.650000e-01    3.100000e+00
  TP6h  SP3a  1 3.650000e-01    3.100000e+00
  TP6h  SP4a  1 3.650000e-01    3.370000e+00
  TP6h  SP5a  1 3.650000e-01    3.640000e+00
  TP6h  SC6v  1 3.660000e-01    1.600000e+00
  TP6h  SC5v  1 3.780000e-01    1.450000e+00
  TP6h  SC4v  1 3.940000e-01    1.290000e+00
  TP6h  SC3v  1 4.040000e-01    1.130000e+00
  TP6h  SC2v  1 4.040000e-01    1.130000e+00
  TP6h  SC1v  1 4.230000e-01    9.810000e-01
  TP6h  SX4v  1 3.650000e-01    1.750000e+00
  TP6h  SX3v  1 3.650000e-01    1.750000e+00
  TP6h  SX2v  1 3.660000e-01    1.600000e+00
  TP6h  SX1v  1 3.780000e-01    1.450000e+00
  TP6h  SC6e  1 3.660000e-01    1.600000e+00
  TP6h  SC5e  1 3.780000e-01    1.450000e+00
  TP6h  SC4e  1 3.940000e-01    1.290000e+00
  TP6h  SC3e  1 4.040000e-01    1.130000e+00
  TP6h  SC2e  1 4.040000e-01    1.130000e+00
  TP6h  SC1e  1 4.230000e-01    9.810000e-01
  TP6h  SX4e  1 3.650000e-01    1.750000e+00
  TP6h  SX3e  1 3.650000e-01    1.750000e+00
  TP6h  SX2e  1 3.660000e-01    1.600000e+00
  TP6h  SX1e  1 3.780000e-01    1.450000e+00
  TP6h  SP6q  1 3.650000e-01    4.510000e+00
  TP6h  SX1q  1 3.660000e-01    1.600000e+00
  TP6h  SX2q  1 3.650000e-01    1.750000e+00
  TP6h  SX3q  1 3.650000e-01    1.910000e+00
  TP6h  SX4q  1 3.650000e-01    1.910000e+00
  TP6h  SC1q  1 4.090000e-01    1.080000e+00
  TP6h  SC2q  1 3.940000e-01    1.290000e+00
  TP6h  SC3q  1 3.940000e-01    1.290000e+00
  TP6h  SC4q  1 3.780000e-01    1.450000e+00
  TP6h  SC5q  1 3.660000e-01    1.600000e+00
  TP6h  SC6q  1 3.650000e-01    1.750000e+00
  TP6h  SN1q  1 3.650000e-01    1.750000e+00
  TP6h  SN2q  1 3.650000e-01    1.910000e+00
  TP6h  SN3q  1 3.650000e-01    2.110000e+00
  TP6h  SN4q  1 3.650000e-01    2.340000e+00
  TP6h  SN5q  1 3.650000e-01    2.570000e+00
  TP6h  SN6q  1 3.650000e-01    3.100000e+00
  TP6h  SP1q  1 3.650000e-01    3.370000e+00
  TP6h  SP2q  1 3.650000e-01    3.640000e+00
  TP6h  SP3q  1 3.650000e-01    3.640000e+00
  TP6h  SP4q  1 3.650000e-01    3.930000e+00
  TP6h  SP5q  1 3.650000e-01    4.220000e+00
  TP6d  SP5h  1 3.650000e-01    3.640000e+00
  TP5h  SP5d  1 3.650000e-01    3.370000e+00
  TP5h  SN1d  1 3.780000e-01    1.450000e+00
  TP5h  SN2d  1 3.660000e-01    1.600000e+00
  TP5h  SN3d  1 3.650000e-01    1.750000e+00
  TP5h  SN4d  1 3.650000e-01    2.110000e+00
  TP5h  SN5d  1 3.650000e-01    2.110000e+00
  TP5h  SN6d  1 3.650000e-01    2.340000e+00
  TP5h  SP1d  1 3.650000e-01    2.570000e+00
  TP5h  SP2d  1 3.650000e-01    2.830000e+00
  TP5h  SP3d  1 3.650000e-01    2.830000e+00
  TP5h  SP4d  1 3.650000e-01    3.100000e+00
  TP6a  SP5h  1 3.650000e-01    3.640000e+00
  TP5h  SP5a  1 3.650000e-01    3.370000e+00
  TP5h  SN1a  1 3.780000e-01    1.450000e+00
  TP5h  SN2a  1 3.660000e-01    1.600000e+00
  TP5h  SN3a  1 3.650000e-01    1.750000e+00
  TP5h  SN4a  1 3.650000e-01    2.110000e+00
  TP5h  SN5a  1 3.650000e-01    2.110000e+00
  TP5h  SN6a  1 3.650000e-01    2.340000e+00
  TP5h  SP1a  1 3.650000e-01    2.570000e+00
  TP5h  SP2a  1 3.650000e-01    2.830000e+00
  TP5h  SP3a  1 3.650000e-01    2.830000e+00
  TP5h  SP4a  1 3.650000e-01    3.100000e+00
  TP5h  SC6v  1 3.660000e-01    1.600000e+00
  TP5h  SC5v  1 3.660000e-01    1.600000e+00
  TP5h  SC4v  1 3.780000e-01    1.450000e+00
  TP5h  SC3v  1 3.940000e-01    1.290000e+00
  TP5h  SC2v  1 3.940000e-01    1.290000e+00
  TP5h  SC1v  1 4.040000e-01    1.130000e+00
  TP5h  SX4v  1 3.650000e-01    1.910000e+00
  TP5h  SX3v  1 3.650000e-01    1.750000e+00
  TP5h  SX2v  1 3.650000e-01    1.750000e+00
  TP5h  SX1v  1 3.780000e-01    1.450000e+00
  TP5h  SC6e  1 3.660000e-01    1.600000e+00
  TP5h  SC5e  1 3.660000e-01    1.600000e+00
  TP5h  SC4e  1 3.780000e-01    1.450000e+00
  TP5h  SC3e  1 3.940000e-01    1.290000e+00
  TP5h  SC2e  1 3.940000e-01    1.290000e+00
  TP5h  SC1e  1 4.040000e-01    1.130000e+00
  TP5h  SX4e  1 3.650000e-01    1.910000e+00
  TP5h  SX3e  1 3.650000e-01    1.750000e+00
  TP5h  SX2e  1 3.650000e-01    1.750000e+00
  TP5h  SX1e  1 3.780000e-01    1.450000e+00
  TP6q  SP5h  1 3.650000e-01    4.220000e+00
  TP5h  SP5q  1 3.650000e-01    3.930000e+00
  TP5h  SX1q  1 3.660000e-01    1.600000e+00
  TP5h  SX2q  1 3.650000e-01    1.910000e+00
  TP5h  SX3q  1 3.650000e-01    1.910000e+00
  TP5h  SX4q  1 3.650000e-01    2.110000e+00
  TP5h  SC1q  1 3.940000e-01    1.290000e+00
  TP5h  SC2q  1 3.780000e-01    1.450000e+00
  TP5h  SC3q  1 3.780000e-01    1.450000e+00
  TP5h  SC4q  1 3.660000e-01    1.600000e+00
  TP5h  SC5q  1 3.650000e-01    1.750000e+00
  TP5h  SC6q  1 3.650000e-01    1.750000e+00
  TP5h  SN1q  1 3.650000e-01    1.750000e+00
  TP5h  SN2q  1 3.650000e-01    1.910000e+00
  TP5h  SN3q  1 3.650000e-01    2.110000e+00
  TP5h  SN4q  1 3.650000e-01    2.570000e+00
  TP5h  SN5q  1 3.650000e-01    2.570000e+00
  TP5h  SN6q  1 3.650000e-01    2.830000e+00
  TP5h  SP1q  1 3.650000e-01    3.100000e+00
  TP5h  SP2q  1 3.650000e-01    3.370000e+00
  TP5h  SP3q  1 3.650000e-01    3.370000e+00
  TP5h  SP4q  1 3.650000e-01    3.640000e+00
  TP6d  SP4h  1 3.650000e-01    3.370000e+00
  TP5d  SP4h  1 3.650000e-01    3.100000e+00
  TP4h  SP4d  1 3.650000e-01    3.100000e+00
  TP4h  SN1d  1 3.660000e-01    1.600000e+00
  TP4h  SN2d  1 3.650000e-01    1.750000e+00
  TP4h  SN3d  1 3.650000e-01    1.910000e+00
  TP4h  SN4d  1 3.650000e-01    2.110000e+00
  TP4h  SN5d  1 3.650000e-01    2.110000e+00
  TP4h  SN6d  1 3.650000e-01    2.340000e+00
  TP4h  SP1d  1 3.650000e-01    2.570000e+00
  TP4h  SP2d  1 3.650000e-01    2.830000e+00
  TP4h  SP3d  1 3.650000e-01    2.830000e+00
  TP6a  SP4h  1 3.650000e-01    3.370000e+00
  TP5a  SP4h  1 3.650000e-01    3.100000e+00
  TP4h  SP4a  1 3.650000e-01    3.100000e+00
  TP4h  SN1a  1 3.660000e-01    1.600000e+00
  TP4h  SN2a  1 3.650000e-01    1.750000e+00
  TP4h  SN3a  1 3.650000e-01    1.910000e+00
  TP4h  SN4a  1 3.650000e-01    2.110000e+00
  TP4h  SN5a  1 3.650000e-01    2.110000e+00
  TP4h  SN6a  1 3.650000e-01    2.340000e+00
  TP4h  SP1a  1 3.650000e-01    2.570000e+00
  TP4h  SP2a  1 3.650000e-01    2.830000e+00
  TP4h  SP3a  1 3.650000e-01    2.830000e+00
  TP4h  SC6v  1 3.650000e-01    1.750000e+00
  TP4h  SC5v  1 3.660000e-01    1.600000e+00
  TP4h  SC4v  1 3.780000e-01    1.450000e+00
  TP4h  SC3v  1 3.940000e-01    1.290000e+00
  TP4h  SC2v  1 3.940000e-01    1.290000e+00
  TP4h  SC1v  1 4.040000e-01    1.130000e+00
  TP4h  SX4v  1 3.650000e-01    1.910000e+00
  TP4h  SX3v  1 3.650000e-01    1.750000e+00
  TP4h  SX2v  1 3.650000e-01    1.750000e+00
  TP4h  SX1v  1 3.660000e-01    1.600000e+00
  TP4h  SC6e  1 3.650000e-01    1.750000e+00
  TP4h  SC5e  1 3.660000e-01    1.600000e+00
  TP4h  SC4e  1 3.780000e-01    1.450000e+00
  TP4h  SC3e  1 3.940000e-01    1.290000e+00
  TP4h  SC2e  1 3.940000e-01    1.290000e+00
  TP4h  SC1e  1 4.040000e-01    1.130000e+00
  TP4h  SX4e  1 3.650000e-01    1.910000e+00
  TP4h  SX3e  1 3.650000e-01    1.750000e+00
  TP4h  SX2e  1 3.650000e-01    1.750000e+00
  TP4h  SX1e  1 3.660000e-01    1.600000e+00
  TP6q  SP4h  1 3.650000e-01    3.930000e+00
  TP5q  SP4h  1 3.650000e-01    3.640000e+00
  TP4h  SP4q  1 3.650000e-01    3.640000e+00
  TP4h  SX1q  1 3.650000e-01    1.750000e+00
  TP4h  SX2q  1 3.650000e-01    1.910000e+00
  TP4h  SX3q  1 3.650000e-01    1.910000e+00
  TP4h  SX4q  1 3.650000e-01    2.110000e+00
  TP4h  SC1q  1 3.940000e-01    1.290000e+00
  TP4h  SC2q  1 3.780000e-01    1.450000e+00
  TP4h  SC3q  1 3.780000e-01    1.450000e+00
  TP4h  SC4q  1 3.660000e-01    1.600000e+00
  TP4h  SC5q  1 3.650000e-01    1.750000e+00
  TP4h  SC6q  1 3.650000e-01    1.910000e+00
  TP4h  SN1q  1 3.650000e-01    1.910000e+00
  TP4h  SN2q  1 3.650000e-01    2.110000e+00
  TP4h  SN3q  1 3.650000e-01    2.340000e+00
  TP4h  SN4q  1 3.650000e-01    2.570000e+00
  TP4h  SN5q  1 3.650000e-01    2.570000e+00
  TP4h  SN6q  1 3.650000e-01    2.830000e+00
  TP4h  SP1q  1 3.650000e-01    3.100000e+00
  TP4h  SP2q  1 3.650000e-01    3.370000e+00
  TP4h  SP3q  1 3.650000e-01    3.370000e+00
  TP6d  SP3h  1 3.650000e-01    3.100000e+00
  TP5d  SP3h  1 3.650000e-01    2.830000e+00
  TP4d  SP3h  1 3.650000e-01    2.830000e+00
  TP3h  SP3d  1 3.650000e-01    2.830000e+00
  TP3h  SN1d  1 3.650000e-01    1.750000e+00
  TP3h  SN2d  1 3.650000e-01    1.910000e+00
  TP3h  SN3d  1 3.650000e-01    1.910000e+00
  TP3h  SN4d  1 3.650000e-01    2.110000e+00
  TP3h  SN5d  1 3.650000e-01    2.110000e+00
  TP3h  SN6d  1 3.650000e-01    2.340000e+00
  TP3h  SP1d  1 3.650000e-01    2.570000e+00
  TP3h  SP2d  1 3.650000e-01    2.830000e+00
  TP6a  SP3h  1 3.650000e-01    3.100000e+00
  TP5a  SP3h  1 3.650000e-01    2.830000e+00
  TP4a  SP3h  1 3.650000e-01    2.830000e+00
  TP3h  SP3a  1 3.650000e-01    2.830000e+00
  TP3h  SN1a  1 3.650000e-01    1.750000e+00
  TP3h  SN2a  1 3.650000e-01    1.910000e+00
  TP3h  SN3a  1 3.650000e-01    1.910000e+00
  TP3h  SN4a  1 3.650000e-01    2.110000e+00
  TP3h  SN5a  1 3.650000e-01    2.110000e+00
  TP3h  SN6a  1 3.650000e-01    2.340000e+00
  TP3h  SP1a  1 3.650000e-01    2.570000e+00
  TP3h  SP2a  1 3.650000e-01    2.830000e+00
  TP3h  SC6v  1 3.650000e-01    1.910000e+00
  TP3h  SC5v  1 3.650000e-01    1.750000e+00
  TP3h  SC4v  1 3.660000e-01    1.600000e+00
  TP3h  SC3v  1 3.940000e-01    1.290000e+00
  TP3h  SC2v  1 3.940000e-01    1.290000e+00
  TP3h  SC1v  1 4.040000e-01    1.130000e+00
  TP3h  SX4v  1 3.650000e-01    1.910000e+00
  TP3h  SX3v  1 3.650000e-01    1.910000e+00
  TP3h  SX2v  1 3.650000e-01    1.750000e+00
  TP3h  SX1v  1 3.660000e-01    1.600000e+00
  TP3h  SC6e  1 3.650000e-01    1.910000e+00
  TP3h  SC5e  1 3.650000e-01    1.750000e+00
  TP3h  SC4e  1 3.660000e-01    1.600000e+00
  TP3h  SC3e  1 3.940000e-01    1.290000e+00
  TP3h  SC2e  1 3.940000e-01    1.290000e+00
  TP3h  SC1e  1 4.040000e-01    1.130000e+00
  TP3h  SX4e  1 3.650000e-01    1.910000e+00
  TP3h  SX3e  1 3.650000e-01    1.910000e+00
  TP3h  SX2e  1 3.650000e-01    1.750000e+00
  TP3h  SX1e  1 3.660000e-01    1.600000e+00
  TP6q  SP3h  1 3.650000e-01    3.640000e+00
  TP5q  SP3h  1 3.650000e-01    3.370000e+00
  TP4q  SP3h  1 3.650000e-01    3.370000e+00
  TP3h  SP3q  1 3.650000e-01    3.370000e+00
  TP3h  SX1q  1 3.650000e-01    1.750000e+00
  TP3h  SX2q  1 3.650000e-01    1.910000e+00
  TP3h  SX3q  1 3.650000e-01    2.110000e+00
  TP3h  SX4q  1 3.650000e-01    2.110000e+00
  TP3h  SC1q  1 3.940000e-01    1.290000e+00
  TP3h  SC2q  1 3.780000e-01    1.450000e+00
  TP3h  SC3q  1 3.780000e-01    1.450000e+00
  TP3h  SC4q  1 3.650000e-01    1.750000e+00
  TP3h  SC5q  1 3.650000e-01    1.910000e+00
  TP3h  SC6q  1 3.650000e-01    2.110000e+00
  TP3h  SN1q  1 3.650000e-01    2.110000e+00
  TP3h  SN2q  1 3.650000e-01    2.340000e+00
  TP3h  SN3q  1 3.650000e-01    2.340000e+00
  TP3h  SN4q  1 3.650000e-01    2.570000e+00
  TP3h  SN5q  1 3.650000e-01    2.570000e+00
  TP3h  SN6q  1 3.650000e-01    2.830000e+00
  TP3h  SP1q  1 3.650000e-01    3.100000e+00
  TP3h  SP2q  1 3.650000e-01    3.370000e+00
  TP6d  SP2h  1 3.650000e-01    3.100000e+00
  TP5d  SP2h  1 3.650000e-01    2.830000e+00
  TP4d  SP2h  1 3.650000e-01    2.830000e+00
  TP3d  SP2h  1 3.650000e-01    2.830000e+00
  TP2h  SP2d  1 3.650000e-01    2.830000e+00
  TP2h  SN1d  1 3.650000e-01    1.910000e+00
  TP2h  SN2d  1 3.650000e-01    1.910000e+00
  TP2h  SN3d  1 3.650000e-01    1.910000e+00
  TP2h  SN4d  1 3.650000e-01    2.110000e+00
  TP2h  SN5d  1 3.650000e-01    2.340000e+00
  TP2h  SN6d  1 3.650000e-01    2.570000e+00
  TP2h  SP1d  1 3.650000e-01    2.570000e+00
  TP6a  SP2h  1 3.650000e-01    3.100000e+00
  TP5a  SP2h  1 3.650000e-01    2.830000e+00
  TP4a  SP2h  1 3.650000e-01    2.830000e+00
  TP3a  SP2h  1 3.650000e-01    2.830000e+00
  TP2h  SP2a  1 3.650000e-01    2.830000e+00
  TP2h  SN1a  1 3.650000e-01    1.910000e+00
  TP2h  SN2a  1 3.650000e-01    1.910000e+00
  TP2h  SN3a  1 3.650000e-01    1.910000e+00
  TP2h  SN4a  1 3.650000e-01    2.110000e+00
  TP2h  SN5a  1 3.650000e-01    2.340000e+00
  TP2h  SN6a  1 3.650000e-01    2.570000e+00
  TP2h  SP1a  1 3.650000e-01    2.570000e+00
  TP2h  SC6v  1 3.650000e-01    1.910000e+00
  TP2h  SC5v  1 3.650000e-01    1.750000e+00
  TP2h  SC4v  1 3.660000e-01    1.600000e+00
  TP2h  SC3v  1 3.780000e-01    1.450000e+00
  TP2h  SC2v  1 3.780000e-01    1.450000e+00
  TP2h  SC1v  1 3.940000e-01    1.290000e+00
  TP2h  SX4v  1 3.650000e-01    1.910000e+00
  TP2h  SX3v  1 3.650000e-01    1.910000e+00
  TP2h  SX2v  1 3.650000e-01    1.750000e+00
  TP2h  SX1v  1 3.660000e-01    1.600000e+00
  TP2h  SC6e  1 3.650000e-01    1.910000e+00
  TP2h  SC5e  1 3.650000e-01    1.750000e+00
  TP2h  SC4e  1 3.660000e-01    1.600000e+00
  TP2h  SC3e  1 3.780000e-01    1.450000e+00
  TP2h  SC2e  1 3.780000e-01    1.450000e+00
  TP2h  SC1e  1 3.940000e-01    1.290000e+00
  TP2h  SX4e  1 3.650000e-01    1.910000e+00
  TP2h  SX3e  1 3.650000e-01    1.910000e+00
  TP2h  SX2e  1 3.650000e-01    1.750000e+00
  TP2h  SX1e  1 3.660000e-01    1.600000e+00
  TP6q  SP2h  1 3.650000e-01    3.640000e+00
  TP5q  SP2h  1 3.650000e-01    3.370000e+00
  TP4q  SP2h  1 3.650000e-01    3.370000e+00
  TP3q  SP2h  1 3.650000e-01    3.370000e+00
  TP2h  SP2q  1 3.650000e-01    3.370000e+00
  TP2h  SX1q  1 3.650000e-01    1.750000e+00
  TP2h  SX2q  1 3.650000e-01    1.910000e+00
  TP2h  SX3q  1 3.650000e-01    2.110000e+00
  TP2h  SX4q  1 3.650000e-01    2.110000e+00
  TP2h  SC1q  1 3.780000e-01    1.450000e+00
  TP2h  SC2q  1 3.660000e-01    1.600000e+00
  TP2h  SC3q  1 3.660000e-01    1.600000e+00
  TP2h  SC4q  1 3.650000e-01    1.750000e+00
  TP2h  SC5q  1 3.650000e-01    1.910000e+00
  TP2h  SC6q  1 3.650000e-01    2.110000e+00
  TP2h  SN1q  1 3.650000e-01    2.340000e+00
  TP2h  SN2q  1 3.650000e-01    2.340000e+00
  TP2h  SN3q  1 3.650000e-01    2.340000e+00
  TP2h  SN4q  1 3.650000e-01    2.570000e+00
  TP2h  SN5q  1 3.650000e-01    2.830000e+00
  TP2h  SN6q  1 3.650000e-01    3.100000e+00
  TP2h  SP1q  1 3.650000e-01    3.100000e+00
  TP6d  SP1h  1 3.650000e-01    2.830000e+00
  TP5d  SP1h  1 3.650000e-01    2.570000e+00
  TP4d  SP1h  1 3.650000e-01    2.570000e+00
  TP3d  SP1h  1 3.650000e-01    2.570000e+00
  TP2d  SP1h  1 3.650000e-01    2.570000e+00
  TP1h  SP1d  1 3.650000e-01    2.570000e+00
  TP1h  SN1d  1 3.650000e-01    1.910000e+00
  TP1h  SN2d  1 3.650000e-01    1.910000e+00
  TP1h  SN3d  1 3.650000e-01    1.910000e+00
  TP1h  SN4d  1 3.650000e-01    2.340000e+00
  TP1h  SN5d  1 3.650000e-01    2.340000e+00
  TP1h  SN6d  1 3.650000e-01    2.570000e+00
  TP6a  SP1h  1 3.650000e-01    2.830000e+00
  TP5a  SP1h  1 3.650000e-01    2.570000e+00
  TP4a  SP1h  1 3.650000e-01    2.570000e+00
  TP3a  SP1h  1 3.650000e-01    2.570000e+00
  TP2a  SP1h  1 3.650000e-01    2.570000e+00
  TP1h  SP1a  1 3.650000e-01    2.570000e+00
  TP1h  SN1a  1 3.650000e-01    1.910000e+00
  TP1h  SN2a  1 3.650000e-01    1.910000e+00
  TP1h  SN3a  1 3.650000e-01    1.910000e+00
  TP1h  SN4a  1 3.650000e-01    2.340000e+00
  TP1h  SN5a  1 3.650000e-01    2.340000e+00
  TP1h  SN6a  1 3.650000e-01    2.570000e+00
  TP1h  SC6v  1 3.650000e-01    1.910000e+00
  TP1h  SC5v  1 3.650000e-01    1.750000e+00
  TP1h  SC4v  1 3.660000e-01    1.600000e+00
  TP1h  SC3v  1 3.780000e-01    1.450000e+00
  TP1h  SC2v  1 3.780000e-01    1.450000e+00
  TP1h  SC1v  1 3.940000e-01    1.290000e+00
  TP1h  SX4v  1 3.650000e-01    1.910000e+00
  TP1h  SX3v  1 3.650000e-01    1.910000e+00
  TP1h  SX2v  1 3.650000e-01    1.750000e+00
  TP1h  SX1v  1 3.660000e-01    1.600000e+00
  TP1h  SC6e  1 3.650000e-01    1.910000e+00
  TP1h  SC5e  1 3.650000e-01    1.750000e+00
  TP1h  SC4e  1 3.660000e-01    1.600000e+00
  TP1h  SC3e  1 3.780000e-01    1.450000e+00
  TP1h  SC2e  1 3.780000e-01    1.450000e+00
  TP1h  SC1e  1 3.940000e-01    1.290000e+00
  TP1h  SX4e  1 3.650000e-01    1.910000e+00
  TP1h  SX3e  1 3.650000e-01    1.910000e+00
  TP1h  SX2e  1 3.650000e-01    1.750000e+00
  TP1h  SX1e  1 3.660000e-01    1.600000e+00
  TP6q  SP1h  1 3.650000e-01    3.370000e+00
  TP5q  SP1h  1 3.650000e-01    3.100000e+00
  TP4q  SP1h  1 3.650000e-01    3.100000e+00
  TP3q  SP1h  1 3.650000e-01    3.100000e+00
  TP2q  SP1h  1 3.650000e-01    3.100000e+00
  TP1h  SP1q  1 3.650000e-01    3.100000e+00
  TP1h  SX1q  1 3.650000e-01    1.750000e+00
  TP1h  SX2q  1 3.650000e-01    1.910000e+00
  TP1h  SX3q  1 3.650000e-01    2.110000e+00
  TP1h  SX4q  1 3.650000e-01    2.110000e+00
  TP1h  SC1q  1 3.780000e-01    1.450000e+00
  TP1h  SC2q  1 3.660000e-01    1.600000e+00
  TP1h  SC3q  1 3.660000e-01    1.600000e+00
  TP1h  SC4q  1 3.650000e-01    1.750000e+00
  TP1h  SC5q  1 3.650000e-01    1.910000e+00
  TP1h  SC6q  1 3.650000e-01    2.110000e+00
  TP1h  SN1q  1 3.650000e-01    2.340000e+00
  TP1h  SN2q  1 3.650000e-01    2.340000e+00
  TP1h  SN3q  1 3.650000e-01    2.340000e+00
  TP1h  SN4q  1 3.650000e-01    2.830000e+00
  TP1h  SN5q  1 3.650000e-01    2.830000e+00
  TP1h  SN6q  1 3.650000e-01    3.100000e+00
  TP6d  SN6h  1 3.650000e-01    2.570000e+00
  TP5d  SN6h  1 3.650000e-01    2.340000e+00
  TP4d  SN6h  1 3.650000e-01    2.340000e+00
  TP3d  SN6h  1 3.650000e-01    2.340000e+00
  TP2d  SN6h  1 3.650000e-01    2.570000e+00
  TP1d  SN6h  1 3.650000e-01    2.570000e+00
  TN6h  SN6d  1 3.650000e-01    2.570000e+00
  TN6h  SN1d  1 3.650000e-01    1.910000e+00
  TN6h  SN2d  1 3.650000e-01    1.910000e+00
  TN6h  SN3d  1 3.650000e-01    2.110000e+00
  TN6h  SN4d  1 3.650000e-01    2.570000e+00
  TN6h  SN5d  1 3.650000e-01    2.570000e+00
  TP6a  SN6h  1 3.650000e-01    2.570000e+00
  TP5a  SN6h  1 3.650000e-01    2.340000e+00
  TP4a  SN6h  1 3.650000e-01    2.340000e+00
  TP3a  SN6h  1 3.650000e-01    2.340000e+00
  TP2a  SN6h  1 3.650000e-01    2.570000e+00
  TP1a  SN6h  1 3.650000e-01    2.570000e+00
  TN6h  SN6a  1 3.650000e-01    2.570000e+00
  TN6h  SN1a  1 3.650000e-01    1.910000e+00
  TN6h  SN2a  1 3.650000e-01    1.910000e+00
  TN6h  SN3a  1 3.650000e-01    2.110000e+00
  TN6h  SN4a  1 3.650000e-01    2.570000e+00
  TN6h  SN5a  1 3.650000e-01    2.570000e+00
  TN6h  SC6v  1 3.650000e-01    2.110000e+00
  TN6h  SC5v  1 3.650000e-01    1.910000e+00
  TN6h  SC4v  1 3.650000e-01    1.750000e+00
  TN6h  SC3v  1 3.660000e-01    1.600000e+00
  TN6h  SC2v  1 3.660000e-01    1.600000e+00
  TN6h  SC1v  1 3.780000e-01    1.450000e+00
  TN6h  SX4v  1 3.650000e-01    2.110000e+00
  TN6h  SX3v  1 3.650000e-01    1.910000e+00
  TN6h  SX2v  1 3.650000e-01    1.750000e+00
  TN6h  SX1v  1 3.660000e-01    1.600000e+00
  TN6h  SC6e  1 3.650000e-01    2.110000e+00
  TN6h  SC5e  1 3.650000e-01    1.910000e+00
  TN6h  SC4e  1 3.650000e-01    1.750000e+00
  TN6h  SC3e  1 3.660000e-01    1.600000e+00
  TN6h  SC2e  1 3.660000e-01    1.600000e+00
  TN6h  SC1e  1 3.780000e-01    1.450000e+00
  TN6h  SX4e  1 3.650000e-01    2.110000e+00
  TN6h  SX3e  1 3.650000e-01    1.910000e+00
  TN6h  SX2e  1 3.650000e-01    1.750000e+00
  TN6h  SX1e  1 3.660000e-01    1.600000e+00
  TP6q  SN6h  1 3.650000e-01    3.100000e+00
  TP5q  SN6h  1 3.650000e-01    2.830000e+00
  TP4q  SN6h  1 3.650000e-01    2.830000e+00
  TP3q  SN6h  1 3.650000e-01    2.830000e+00
  TP2q  SN6h  1 3.650000e-01    3.100000e+00
  TP1q  SN6h  1 3.650000e-01    3.100000e+00
  TN6h  SN6q  1 3.650000e-01    3.100000e+00
  TN6h  SX1q  1 3.650000e-01    1.750000e+00
  TN6h  SX2q  1 3.650000e-01    1.910000e+00
  TN6h  SX3q  1 3.650000e-01    2.110000e+00
  TN6h  SX4q  1 3.650000e-01    2.340000e+00
  TN6h  SC1q  1 3.660000e-01    1.600000e+00
  TN6h  SC2q  1 3.650000e-01    1.750000e+00
  TN6h  SC3q  1 3.650000e-01    1.750000e+00
  TN6h  SC4q  1 3.650000e-01    1.910000e+00
  TN6h  SC5q  1 3.650000e-01    2.110000e+00
  TN6h  SC6q  1 3.650000e-01    2.340000e+00
  TN6h  SN1q  1 3.650000e-01    2.340000e+00
  TN6h  SN2q  1 3.650000e-01    2.340000e+00
  TN6h  SN3q  1 3.650000e-01    2.570000e+00
  TN6h  SN4q  1 3.650000e-01    3.100000e+00
  TN6h  SN5q  1 3.650000e-01    3.100000e+00
  TP6d  SN5h  1 3.650000e-01    2.110000e+00
  TP5d  SN5h  1 3.650000e-01    2.110000e+00
  TP4d  SN5h  1 3.650000e-01    2.110000e+00
  TP3d  SN5h  1 3.650000e-01    2.110000e+00
  TP2d  SN5h  1 3.650000e-01    2.340000e+00
  TP1d  SN5h  1 3.650000e-01    2.340000e+00
  TN6d  SN5h  1 3.650000e-01    2.570000e+00
  TN5h  SN5d  1 3.650000e-01    2.340000e+00
  TN5h  SN1d  1 3.650000e-01    1.910000e+00
  TN5h  SN2d  1 3.650000e-01    2.110000e+00
  TN5h  SN3d  1 3.650000e-01    2.110000e+00
  TN5h  SN4d  1 3.650000e-01    2.340000e+00
  TP6a  SN5h  1 3.650000e-01    2.110000e+00
  TP5a  SN5h  1 3.650000e-01    2.110000e+00
  TP4a  SN5h  1 3.650000e-01    2.110000e+00
  TP3a  SN5h  1 3.650000e-01    2.110000e+00
  TP2a  SN5h  1 3.650000e-01    2.340000e+00
  TP1a  SN5h  1 3.650000e-01    2.340000e+00
  TN6a  SN5h  1 3.650000e-01    2.570000e+00
  TN5h  SN5a  1 3.650000e-01    2.340000e+00
  TN5h  SN1a  1 3.650000e-01    1.910000e+00
  TN5h  SN2a  1 3.650000e-01    2.110000e+00
  TN5h  SN3a  1 3.650000e-01    2.110000e+00
  TN5h  SN4a  1 3.650000e-01    2.340000e+00
  TN5h  SC6v  1 3.650000e-01    2.110000e+00
  TN5h  SC5v  1 3.650000e-01    1.910000e+00
  TN5h  SC4v  1 3.650000e-01    1.750000e+00
  TN5h  SC3v  1 3.650000e-01    1.750000e+00
  TN5h  SC2v  1 3.660000e-01    1.600000e+00
  TN5h  SC1v  1 3.780000e-01    1.450000e+00
  TN5h  SX4v  1 3.650000e-01    2.340000e+00
  TN5h  SX3v  1 3.650000e-01    2.110000e+00
  TN5h  SX2v  1 3.650000e-01    1.910000e+00
  TN5h  SX1v  1 3.650000e-01    1.750000e+00
  TN5h  SC6e  1 3.650000e-01    2.110000e+00
  TN5h  SC5e  1 3.650000e-01    1.910000e+00
  TN5h  SC4e  1 3.650000e-01    1.750000e+00
  TN5h  SC3e  1 3.650000e-01    1.750000e+00
  TN5h  SC2e  1 3.660000e-01    1.600000e+00
  TN5h  SC1e  1 3.780000e-01    1.450000e+00
  TN5h  SX4e  1 3.650000e-01    2.340000e+00
  TN5h  SX3e  1 3.650000e-01    2.110000e+00
  TN5h  SX2e  1 3.650000e-01    1.910000e+00
  TN5h  SX1e  1 3.650000e-01    1.750000e+00
  TP6q  SN5h  1 3.650000e-01    2.570000e+00
  TP5q  SN5h  1 3.650000e-01    2.570000e+00
  TP4q  SN5h  1 3.650000e-01    2.570000e+00
  TP3q  SN5h  1 3.650000e-01    2.570000e+00
  TP2q  SN5h  1 3.650000e-01    2.830000e+00
  TP1q  SN5h  1 3.650000e-01    2.830000e+00
  TN6q  SN5h  1 3.650000e-01    3.100000e+00
  TN5h  SN5q  1 3.650000e-01    2.830000e+00
  TN5h  SX1q  1 3.650000e-01    1.910000e+00
  TN5h  SX2q  1 3.650000e-01    2.110000e+00
  TN5h  SX3q  1 3.650000e-01    2.340000e+00
  TN5h  SX4q  1 3.650000e-01    2.570000e+00
  TN5h  SC1q  1 3.660000e-01    1.600000e+00
  TN5h  SC2q  1 3.650000e-01    1.750000e+00
  TN5h  SC3q  1 3.650000e-01    1.910000e+00
  TN5h  SC4q  1 3.650000e-01    1.910000e+00
  TN5h  SC5q  1 3.650000e-01    2.110000e+00
  TN5h  SC6q  1 3.650000e-01    2.340000e+00
  TN5h  SN1q  1 3.650000e-01    2.340000e+00
  TN5h  SN2q  1 3.650000e-01    2.570000e+00
  TN5h  SN3q  1 3.650000e-01    2.570000e+00
  TN5h  SN4q  1 3.650000e-01    2.830000e+00
  TP6d  SN4h  1 3.650000e-01    1.910000e+00
  TP5d  SN4h  1 3.650000e-01    2.110000e+00
  TP4d  SN4h  1 3.650000e-01    2.110000e+00
  TP3d  SN4h  1 3.650000e-01    2.110000e+00
  TP2d  SN4h  1 3.650000e-01    2.110000e+00
  TP1d  SN4h  1 3.650000e-01    2.340000e+00
  TN6d  SN4h  1 3.650000e-01    2.570000e+00
  TN5d  SN4h  1 3.650000e-01    2.340000e+00
  TN4h  SN4d  1 3.650000e-01    2.340000e+00
  TN4h  SN1d  1 3.650000e-01    1.910000e+00
  TN4h  SN2d  1 3.650000e-01    2.110000e+00
  TN4h  SN3d  1 3.650000e-01    2.110000e+00
  TP6a  SN4h  1 3.650000e-01    1.910000e+00
  TP5a  SN4h  1 3.650000e-01    2.110000e+00
  TP4a  SN4h  1 3.650000e-01    2.110000e+00
  TP3a  SN4h  1 3.650000e-01    2.110000e+00
  TP2a  SN4h  1 3.650000e-01    2.110000e+00
  TP1a  SN4h  1 3.650000e-01    2.340000e+00
  TN6a  SN4h  1 3.650000e-01    2.570000e+00
  TN5a  SN4h  1 3.650000e-01    2.340000e+00
  TN4h  SN4a  1 3.650000e-01    2.340000e+00
  TN4h  SN1a  1 3.650000e-01    1.910000e+00
  TN4h  SN2a  1 3.650000e-01    2.110000e+00
  TN4h  SN3a  1 3.650000e-01    2.110000e+00
  TN4h  SC6v  1 3.650000e-01    2.110000e+00
  TN4h  SC5v  1 3.650000e-01    1.910000e+00
  TN4h  SC4v  1 3.650000e-01    1.910000e+00
  TN4h  SC3v  1 3.650000e-01    1.750000e+00
  TN4h  SC2v  1 3.660000e-01    1.600000e+00
  TN4h  SC1v  1 3.780000e-01    1.450000e+00
  TN4h  SX4v  1 3.650000e-01    2.570000e+00
  TN4h  SX3v  1 3.650000e-01    2.340000e+00
  TN4h  SX2v  1 3.650000e-01    1.910000e+00
  TN4h  SX1v  1 3.650000e-01    1.750000e+00
  TN4h  SC6e  1 3.650000e-01    2.110000e+00
  TN4h  SC5e  1 3.650000e-01    1.910000e+00
  TN4h  SC4e  1 3.650000e-01    1.910000e+00
  TN4h  SC3e  1 3.650000e-01    1.750000e+00
  TN4h  SC2e  1 3.660000e-01    1.600000e+00
  TN4h  SC1e  1 3.780000e-01    1.450000e+00
  TN4h  SX4e  1 3.650000e-01    2.570000e+00
  TN4h  SX3e  1 3.650000e-01    2.340000e+00
  TN4h  SX2e  1 3.650000e-01    1.910000e+00
  TN4h  SX1e  1 3.650000e-01    1.750000e+00
  TP6q  SN4h  1 3.650000e-01    2.340000e+00
  TP5q  SN4h  1 3.650000e-01    2.570000e+00
  TP4q  SN4h  1 3.650000e-01    2.570000e+00
  TP3q  SN4h  1 3.650000e-01    2.570000e+00
  TP2q  SN4h  1 3.650000e-01    2.570000e+00
  TP1q  SN4h  1 3.650000e-01    2.830000e+00
  TN6q  SN4h  1 3.650000e-01    3.100000e+00
  TN5q  SN4h  1 3.650000e-01    2.830000e+00
  TN4h  SN4q  1 3.650000e-01    2.830000e+00
  TN4h  SX1q  1 3.650000e-01    1.910000e+00
  TN4h  SX2q  1 3.650000e-01    2.110000e+00
  TN4h  SX3q  1 3.650000e-01    2.570000e+00
  TN4h  SX4q  1 3.650000e-01    2.830000e+00
  TN4h  SC1q  1 3.660000e-01    1.600000e+00
  TN4h  SC2q  1 3.650000e-01    1.750000e+00
  TN4h  SC3q  1 3.650000e-01    1.910000e+00
  TN4h  SC4q  1 3.650000e-01    2.110000e+00
  TN4h  SC5q  1 3.650000e-01    2.110000e+00
  TN4h  SC6q  1 3.650000e-01    2.340000e+00
  TN4h  SN1q  1 3.650000e-01    2.340000e+00
  TN4h  SN2q  1 3.650000e-01    2.570000e+00
  TN4h  SN3q  1 3.650000e-01    2.570000e+00
  TP6d  SN3h  1 3.650000e-01    1.750000e+00
  TP5d  SN3h  1 3.650000e-01    1.750000e+00
  TP4d  SN3h  1 3.650000e-01    1.910000e+00
  TP3d  SN3h  1 3.650000e-01    1.910000e+00
  TP2d  SN3h  1 3.650000e-01    1.910000e+00
  TP1d  SN3h  1 3.650000e-01    1.910000e+00
  TN6d  SN3h  1 3.650000e-01    2.110000e+00
  TN5d  SN3h  1 3.650000e-01    2.110000e+00
  TN4d  SN3h  1 3.650000e-01    2.110000e+00
  TN3h  SN3d  1 3.650000e-01    2.110000e+00
  TN3h  SN1d  1 3.650000e-01    1.910000e+00
  TN3h  SN2d  1 3.650000e-01    2.110000e+00
  TP6a  SN3h  1 3.650000e-01    1.750000e+00
  TP5a  SN3h  1 3.650000e-01    1.750000e+00
  TP4a  SN3h  1 3.650000e-01    1.910000e+00
  TP3a  SN3h  1 3.650000e-01    1.910000e+00
  TP2a  SN3h  1 3.650000e-01    1.910000e+00
  TP1a  SN3h  1 3.650000e-01    1.910000e+00
  TN6a  SN3h  1 3.650000e-01    2.110000e+00
  TN5a  SN3h  1 3.650000e-01    2.110000e+00
  TN4a  SN3h  1 3.650000e-01    2.110000e+00
  TN3h  SN3a  1 3.650000e-01    2.110000e+00
  TN3h  SN1a  1 3.650000e-01    1.910000e+00
  TN3h  SN2a  1 3.650000e-01    2.110000e+00
  TN3h  SC6v  1 3.650000e-01    2.110000e+00
  TN3h  SC5v  1 3.650000e-01    1.910000e+00
  TN3h  SC4v  1 3.650000e-01    1.910000e+00
  TN3h  SC3v  1 3.650000e-01    1.750000e+00
  TN3h  SC2v  1 3.650000e-01    1.750000e+00
  TN3h  SC1v  1 3.660000e-01    1.600000e+00
  TN3h  SX4v  1 3.650000e-01    2.340000e+00
  TN3h  SX3v  1 3.650000e-01    2.110000e+00
  TN3h  SX2v  1 3.650000e-01    1.910000e+00
  TN3h  SX1v  1 3.650000e-01    1.910000e+00
  TN3h  SC6e  1 3.650000e-01    2.110000e+00
  TN3h  SC5e  1 3.650000e-01    1.910000e+00
  TN3h  SC4e  1 3.650000e-01    1.910000e+00
  TN3h  SC3e  1 3.650000e-01    1.750000e+00
  TN3h  SC2e  1 3.650000e-01    1.750000e+00
  TN3h  SC1e  1 3.660000e-01    1.600000e+00
  TN3h  SX4e  1 3.650000e-01    2.340000e+00
  TN3h  SX3e  1 3.650000e-01    2.110000e+00
  TN3h  SX2e  1 3.650000e-01    1.910000e+00
  TN3h  SX1e  1 3.650000e-01    1.910000e+00
  TP6q  SN3h  1 3.650000e-01    2.110000e+00
  TP5q  SN3h  1 3.650000e-01    2.110000e+00
  TP4q  SN3h  1 3.650000e-01    2.340000e+00
  TP3q  SN3h  1 3.650000e-01    2.340000e+00
  TP2q  SN3h  1 3.650000e-01    2.340000e+00
  TP1q  SN3h  1 3.650000e-01    2.340000e+00
  TN6q  SN3h  1 3.650000e-01    2.570000e+00
  TN5q  SN3h  1 3.650000e-01    2.570000e+00
  TN4q  SN3h  1 3.650000e-01    2.570000e+00
  TN3h  SN3q  1 3.650000e-01    2.570000e+00
  TN3h  SX1q  1 3.650000e-01    2.110000e+00
  TN3h  SX2q  1 3.650000e-01    2.110000e+00
  TN3h  SX3q  1 3.650000e-01    2.340000e+00
  TN3h  SX4q  1 3.650000e-01    2.570000e+00
  TN3h  SC1q  1 3.650000e-01    1.750000e+00
  TN3h  SC2q  1 3.650000e-01    1.910000e+00
  TN3h  SC3q  1 3.650000e-01    1.910000e+00
  TN3h  SC4q  1 3.650000e-01    2.110000e+00
  TN3h  SC5q  1 3.650000e-01    2.110000e+00
  TN3h  SC6q  1 3.650000e-01    2.340000e+00
  TN3h  SN1q  1 3.650000e-01    2.340000e+00
  TN3h  SN2q  1 3.650000e-01    2.570000e+00
  TP6d  SN2h  1 3.660000e-01    1.600000e+00
  TP5d  SN2h  1 3.660000e-01    1.600000e+00
  TP4d  SN2h  1 3.650000e-01    1.750000e+00
  TP3d  SN2h  1 3.650000e-01    1.910000e+00
  TP2d  SN2h  1 3.650000e-01    1.910000e+00
  TP1d  SN2h  1 3.650000e-01    1.910000e+00
  TN6d  SN2h  1 3.650000e-01    1.910000e+00
  TN5d  SN2h  1 3.650000e-01    2.110000e+00
  TN4d  SN2h  1 3.650000e-01    2.110000e+00
  TN3d  SN2h  1 3.650000e-01    2.110000e+00
  TN2h  SN2d  1 3.650000e-01    2.110000e+00
  TN2h  SN1d  1 3.650000e-01    1.910000e+00
  TP6a  SN2h  1 3.660000e-01    1.600000e+00
  TP5a  SN2h  1 3.660000e-01    1.600000e+00
  TP4a  SN2h  1 3.650000e-01    1.750000e+00
  TP3a  SN2h  1 3.650000e-01    1.910000e+00
  TP2a  SN2h  1 3.650000e-01    1.910000e+00
  TP1a  SN2h  1 3.650000e-01    1.910000e+00
  TN6a  SN2h  1 3.650000e-01    1.910000e+00
  TN5a  SN2h  1 3.650000e-01    2.110000e+00
  TN4a  SN2h  1 3.650000e-01    2.110000e+00
  TN3a  SN2h  1 3.650000e-01    2.110000e+00
  TN2h  SN2a  1 3.650000e-01    2.110000e+00
  TN2h  SN1a  1 3.650000e-01    1.910000e+00
  TN2h  SC6v  1 3.650000e-01    2.110000e+00
  TN2h  SC5v  1 3.650000e-01    1.910000e+00
  TN2h  SC4v  1 3.650000e-01    1.910000e+00
  TN2h  SC3v  1 3.650000e-01    1.910000e+00
  TN2h  SC2v  1 3.650000e-01    1.750000e+00
  TN2h  SC1v  1 3.660000e-01    1.600000e+00
  TN2h  SX4v  1 3.650000e-01    2.340000e+00
  TN2h  SX3v  1 3.650000e-01    2.110000e+00
  TN2h  SX2v  1 3.650000e-01    1.910000e+00
  TN2h  SX1v  1 3.650000e-01    1.910000e+00
  TN2h  SC6e  1 3.650000e-01    2.110000e+00
  TN2h  SC5e  1 3.650000e-01    1.910000e+00
  TN2h  SC4e  1 3.650000e-01    1.910000e+00
  TN2h  SC3e  1 3.650000e-01    1.910000e+00
  TN2h  SC2e  1 3.650000e-01    1.750000e+00
  TN2h  SC1e  1 3.660000e-01    1.600000e+00
  TN2h  SX4e  1 3.650000e-01    2.340000e+00
  TN2h  SX3e  1 3.650000e-01    2.110000e+00
  TN2h  SX2e  1 3.650000e-01    1.910000e+00
  TN2h  SX1e  1 3.650000e-01    1.910000e+00
  TP6q  SN2h  1 3.650000e-01    1.910000e+00
  TP5q  SN2h  1 3.650000e-01    1.910000e+00
  TP4q  SN2h  1 3.650000e-01    2.110000e+00
  TP3q  SN2h  1 3.650000e-01    2.340000e+00
  TP2q  SN2h  1 3.650000e-01    2.340000e+00
  TP1q  SN2h  1 3.650000e-01    2.340000e+00
  TN6q  SN2h  1 3.650000e-01    2.340000e+00
  TN5q  SN2h  1 3.650000e-01    2.570000e+00
  TN4q  SN2h  1 3.650000e-01    2.570000e+00
  TN3q  SN2h  1 3.650000e-01    2.570000e+00
  TN2h  SN2q  1 3.650000e-01    2.570000e+00
  TN2h  SX1q  1 3.650000e-01    2.110000e+00
  TN2h  SX2q  1 3.650000e-01    2.110000e+00
  TN2h  SX3q  1 3.650000e-01    2.340000e+00
  TN2h  SX4q  1 3.650000e-01    2.570000e+00
  TN2h  SC1q  1 3.650000e-01    1.750000e+00
  TN2h  SC2q  1 3.650000e-01    1.910000e+00
  TN2h  SC3q  1 3.650000e-01    2.110000e+00
  TN2h  SC4q  1 3.650000e-01    2.110000e+00
  TN2h  SC5q  1 3.650000e-01    2.110000e+00
  TN2h  SC6q  1 3.650000e-01    2.340000e+00
  TN2h  SN1q  1 3.650000e-01    2.340000e+00
  TP6d  SN1h  1 3.780000e-01    1.450000e+00
  TP5d  SN1h  1 3.780000e-01    1.450000e+00
  TP4d  SN1h  1 3.660000e-01    1.600000e+00
  TP3d  SN1h  1 3.650000e-01    1.750000e+00
  TP2d  SN1h  1 3.650000e-01    1.910000e+00
  TP1d  SN1h  1 3.650000e-01    1.910000e+00
  TN6d  SN1h  1 3.650000e-01    1.910000e+00
  TN5d  SN1h  1 3.650000e-01    1.910000e+00
  TN4d  SN1h  1 3.650000e-01    1.910000e+00
  TN3d  SN1h  1 3.650000e-01    1.910000e+00
  TN2d  SN1h  1 3.650000e-01    1.910000e+00
  TN1h  SN1d  1 3.650000e-01    2.110000e+00
  TP6a  SN1h  1 3.780000e-01    1.450000e+00
  TP5a  SN1h  1 3.780000e-01    1.450000e+00
  TP4a  SN1h  1 3.660000e-01    1.600000e+00
  TP3a  SN1h  1 3.650000e-01    1.750000e+00
  TP2a  SN1h  1 3.650000e-01    1.910000e+00
  TP1a  SN1h  1 3.650000e-01    1.910000e+00
  TN6a  SN1h  1 3.650000e-01    1.910000e+00
  TN5a  SN1h  1 3.650000e-01    1.910000e+00
  TN4a  SN1h  1 3.650000e-01    1.910000e+00
  TN3a  SN1h  1 3.650000e-01    1.910000e+00
  TN2a  SN1h  1 3.650000e-01    1.910000e+00
  TN1h  SN1a  1 3.650000e-01    2.110000e+00
  TN1h  SC6v  1 3.650000e-01    2.340000e+00
  TN1h  SC5v  1 3.650000e-01    2.110000e+00
  TN1h  SC4v  1 3.650000e-01    2.110000e+00
  TN1h  SC3v  1 3.650000e-01    1.910000e+00
  TN1h  SC2v  1 3.650000e-01    1.750000e+00
  TN1h  SC1v  1 3.660000e-01    1.600000e+00
  TN1h  SX4v  1 3.650000e-01    2.110000e+00
  TN1h  SX3v  1 3.650000e-01    2.110000e+00
  TN1h  SX2v  1 3.650000e-01    1.910000e+00
  TN1h  SX1v  1 3.650000e-01    1.910000e+00
  TN1h  SC6e  1 3.650000e-01    2.340000e+00
  TN1h  SC5e  1 3.650000e-01    2.110000e+00
  TN1h  SC4e  1 3.650000e-01    2.110000e+00
  TN1h  SC3e  1 3.650000e-01    1.910000e+00
  TN1h  SC2e  1 3.650000e-01    1.750000e+00
  TN1h  SC1e  1 3.660000e-01    1.600000e+00
  TN1h  SX4e  1 3.650000e-01    2.110000e+00
  TN1h  SX3e  1 3.650000e-01    2.110000e+00
  TN1h  SX2e  1 3.650000e-01    1.910000e+00
  TN1h  SX1e  1 3.650000e-01    1.910000e+00
  TP6q  SN1h  1 3.650000e-01    1.750000e+00
  TP5q  SN1h  1 3.650000e-01    1.750000e+00
  TP4q  SN1h  1 3.650000e-01    1.910000e+00
  TP3q  SN1h  1 3.650000e-01    2.110000e+00
  TP2q  SN1h  1 3.650000e-01    2.340000e+00
  TP1q  SN1h  1 3.650000e-01    2.340000e+00
  TN6q  SN1h  1 3.650000e-01    2.340000e+00
  TN5q  SN1h  1 3.650000e-01    2.340000e+00
  TN4q  SN1h  1 3.650000e-01    2.340000e+00
  TN3q  SN1h  1 3.650000e-01    2.340000e+00
  TN2q  SN1h  1 3.650000e-01    2.340000e+00
  TN1h  SN1q  1 3.650000e-01    2.570000e+00
  TN1h  SX1q  1 3.650000e-01    2.110000e+00
  TN1h  SX2q  1 3.650000e-01    2.110000e+00
  TN1h  SX3q  1 3.650000e-01    2.340000e+00
  TN1h  SX4q  1 3.650000e-01    2.340000e+00
  TN1h  SC1q  1 3.650000e-01    1.750000e+00
  TN1h  SC2q  1 3.650000e-01    1.910000e+00
  TN1h  SC3q  1 3.650000e-01    2.110000e+00
  TN1h  SC4q  1 3.650000e-01    2.340000e+00
  TN1h  SC5q  1 3.650000e-01    2.340000e+00
  TN1h  SC6q  1 3.650000e-01    2.570000e+00
  TP6d  SC6h  1 3.780000e-01    1.450000e+00
  TP5d  SC6h  1 3.780000e-01    1.450000e+00
  TP4d  SC6h  1 3.660000e-01    1.600000e+00
  TP3d  SC6h  1 3.650000e-01    1.750000e+00
  TP2d  SC6h  1 3.650000e-01    1.750000e+00
  TP1d  SC6h  1 3.650000e-01    1.750000e+00
  TN6d  SC6h  1 3.650000e-01    1.910000e+00
  TN5d  SC6h  1 3.650000e-01    1.910000e+00
  TN4d  SC6h  1 3.650000e-01    1.910000e+00
  TN3d  SC6h  1 3.650000e-01    1.910000e+00
  TN2d  SC6h  1 3.650000e-01    1.910000e+00
  TN1d  SC6h  1 3.650000e-01    2.110000e+00
  TP6a  SC6h  1 3.780000e-01    1.450000e+00
  TP5a  SC6h  1 3.780000e-01    1.450000e+00
  TP4a  SC6h  1 3.660000e-01    1.600000e+00
  TP3a  SC6h  1 3.650000e-01    1.750000e+00
  TP2a  SC6h  1 3.650000e-01    1.750000e+00
  TP1a  SC6h  1 3.650000e-01    1.750000e+00
  TN6a  SC6h  1 3.650000e-01    1.910000e+00
  TN5a  SC6h  1 3.650000e-01    1.910000e+00
  TN4a  SC6h  1 3.650000e-01    1.910000e+00
  TN3a  SC6h  1 3.650000e-01    1.910000e+00
  TN2a  SC6h  1 3.650000e-01    1.910000e+00
  TN1a  SC6h  1 3.650000e-01    2.110000e+00
  TC6h  SC6v  1 3.650000e-01    2.340000e+00
  TC6h  SX1v  1 3.650000e-01    2.110000e+00
  TC6h  SX2v  1 3.650000e-01    2.110000e+00
  TC6h  SX3v  1 3.650000e-01    2.110000e+00
  TC6h  SX4v  1 3.650000e-01    2.110000e+00
  TC6h  SC1v  1 3.660000e-01    1.600000e+00
  TC6h  SC2v  1 3.650000e-01    1.750000e+00
  TC6h  SC3v  1 3.650000e-01    1.910000e+00
  TC6h  SC4v  1 3.650000e-01    2.110000e+00
  TC6h  SC5v  1 3.650000e-01    2.110000e+00
  TC6h  SC6e  1 3.650000e-01    2.340000e+00
  TC6h  SX1e  1 3.650000e-01    2.110000e+00
  TC6h  SX2e  1 3.650000e-01    2.110000e+00
  TC6h  SX3e  1 3.650000e-01    2.110000e+00
  TC6h  SX4e  1 3.650000e-01    2.110000e+00
  TC6h  SC1e  1 3.660000e-01    1.600000e+00
  TC6h  SC2e  1 3.650000e-01    1.750000e+00
  TC6h  SC3e  1 3.650000e-01    1.910000e+00
  TC6h  SC4e  1 3.650000e-01    2.110000e+00
  TC6h  SC5e  1 3.650000e-01    2.110000e+00
  TP6q  SC6h  1 3.650000e-01    1.750000e+00
  TP5q  SC6h  1 3.650000e-01    1.750000e+00
  TP4q  SC6h  1 3.650000e-01    1.910000e+00
  TP3q  SC6h  1 3.650000e-01    2.110000e+00
  TP2q  SC6h  1 3.650000e-01    2.110000e+00
  TP1q  SC6h  1 3.650000e-01    2.110000e+00
  TN6q  SC6h  1 3.650000e-01    2.340000e+00
  TN5q  SC6h  1 3.650000e-01    2.340000e+00
  TN4q  SC6h  1 3.650000e-01    2.340000e+00
  TN3q  SC6h  1 3.650000e-01    2.340000e+00
  TN2q  SC6h  1 3.650000e-01    2.340000e+00
  TN1q  SC6h  1 3.650000e-01    2.570000e+00
  TC6h  SC6q  1 3.650000e-01    2.570000e+00
  TC6h  SX1q  1 3.650000e-01    2.340000e+00
  TC6h  SX2q  1 3.650000e-01    2.340000e+00
  TC6h  SX3q  1 3.650000e-01    2.340000e+00
  TC6h  SX4q  1 3.650000e-01    2.340000e+00
  TC6h  SC1q  1 3.650000e-01    1.750000e+00
  TC6h  SC2q  1 3.650000e-01    1.910000e+00
  TC6h  SC3q  1 3.650000e-01    2.110000e+00
  TC6h  SC4q  1 3.650000e-01    2.340000e+00
  TC6h  SC5q  1 3.650000e-01    2.340000e+00
  TP6d  SC5h  1 3.940000e-01    1.290000e+00
  TP5d  SC5h  1 3.780000e-01    1.450000e+00
  TP4d  SC5h  1 3.780000e-01    1.450000e+00
  TP3d  SC5h  1 3.660000e-01    1.600000e+00
  TP2d  SC5h  1 3.660000e-01    1.600000e+00
  TP1d  SC5h  1 3.660000e-01    1.600000e+00
  TN6d  SC5h  1 3.650000e-01    1.750000e+00
  TN5d  SC5h  1 3.650000e-01    1.750000e+00
  TN4d  SC5h  1 3.650000e-01    1.750000e+00
  TN3d  SC5h  1 3.650000e-01    1.750000e+00
  TN2d  SC5h  1 3.650000e-01    1.750000e+00
  TN1d  SC5h  1 3.650000e-01    1.910000e+00
  TP6a  SC5h  1 3.940000e-01    1.290000e+00
  TP5a  SC5h  1 3.780000e-01    1.450000e+00
  TP4a  SC5h  1 3.780000e-01    1.450000e+00
  TP3a  SC5h  1 3.660000e-01    1.600000e+00
  TP2a  SC5h  1 3.660000e-01    1.600000e+00
  TP1a  SC5h  1 3.660000e-01    1.600000e+00
  TN6a  SC5h  1 3.650000e-01    1.750000e+00
  TN5a  SC5h  1 3.650000e-01    1.750000e+00
  TN4a  SC5h  1 3.650000e-01    1.750000e+00
  TN3a  SC5h  1 3.650000e-01    1.750000e+00
  TN2a  SC5h  1 3.650000e-01    1.750000e+00
  TN1a  SC5h  1 3.650000e-01    1.910000e+00
  TC6v  SC5h  1 3.650000e-01    2.110000e+00
  TC5h  SC5v  1 3.650000e-01    2.110000e+00
  TC5h  SX1v  1 3.650000e-01    2.110000e+00
  TC5h  SX2v  1 3.650000e-01    1.910000e+00
  TC5h  SX3v  1 3.650000e-01    1.910000e+00
  TC5h  SX4v  1 3.650000e-01    1.910000e+00
  TC5h  SC1v  1 3.650000e-01    1.750000e+00
  TC5h  SC2v  1 3.650000e-01    1.750000e+00
  TC5h  SC3v  1 3.650000e-01    1.910000e+00
  TC5h  SC4v  1 3.650000e-01    2.110000e+00
  TC6e  SC5h  1 3.650000e-01    2.110000e+00
  TC5h  SC5e  1 3.650000e-01    2.110000e+00
  TC5h  SX1e  1 3.650000e-01    2.110000e+00
  TC5h  SX2e  1 3.650000e-01    1.910000e+00
  TC5h  SX3e  1 3.650000e-01    1.910000e+00
  TC5h  SX4e  1 3.650000e-01    1.910000e+00
  TC5h  SC1e  1 3.650000e-01    1.750000e+00
  TC5h  SC2e  1 3.650000e-01    1.750000e+00
  TC5h  SC3e  1 3.650000e-01    1.910000e+00
  TC5h  SC4e  1 3.650000e-01    2.110000e+00
  TP6q  SC5h  1 3.660000e-01    1.600000e+00
  TP5q  SC5h  1 3.650000e-01    1.750000e+00
  TP4q  SC5h  1 3.650000e-01    1.750000e+00
  TP3q  SC5h  1 3.650000e-01    1.910000e+00
  TP2q  SC5h  1 3.650000e-01    1.910000e+00
  TP1q  SC5h  1 3.650000e-01    1.910000e+00
  TN6q  SC5h  1 3.650000e-01    2.110000e+00
  TN5q  SC5h  1 3.650000e-01    2.110000e+00
  TN4q  SC5h  1 3.650000e-01    2.110000e+00
  TN3q  SC5h  1 3.650000e-01    2.110000e+00
  TN2q  SC5h  1 3.650000e-01    2.110000e+00
  TN1q  SC5h  1 3.650000e-01    2.340000e+00
  TC6q  SC5h  1 3.650000e-01    2.340000e+00
  TC5h  SC5q  1 3.650000e-01    2.340000e+00
  TC5h  SX1q  1 3.650000e-01    2.340000e+00
  TC5h  SX2q  1 3.650000e-01    2.110000e+00
  TC5h  SX3q  1 3.650000e-01    2.110000e+00
  TC5h  SX4q  1 3.650000e-01    2.110000e+00
  TC5h  SC1q  1 3.650000e-01    1.910000e+00
  TC5h  SC2q  1 3.650000e-01    1.910000e+00
  TC5h  SC3q  1 3.650000e-01    2.110000e+00
  TC5h  SC4q  1 3.650000e-01    2.340000e+00
  TP6d  SC4h  1 4.040000e-01    1.130000e+00
  TP5d  SC4h  1 3.940000e-01    1.290000e+00
  TP4d  SC4h  1 3.940000e-01    1.290000e+00
  TP3d  SC4h  1 3.780000e-01    1.450000e+00
  TP2d  SC4h  1 3.780000e-01    1.450000e+00
  TP1d  SC4h  1 3.780000e-01    1.450000e+00
  TN6d  SC4h  1 3.660000e-01    1.600000e+00
  TN5d  SC4h  1 3.660000e-01    1.600000e+00
  TN4d  SC4h  1 3.650000e-01    1.750000e+00
  TN3d  SC4h  1 3.650000e-01    1.750000e+00
  TN2d  SC4h  1 3.650000e-01    1.750000e+00
  TN1d  SC4h  1 3.650000e-01    1.910000e+00
  TP6a  SC4h  1 4.040000e-01    1.130000e+00
  TP5a  SC4h  1 3.940000e-01    1.290000e+00
  TP4a  SC4h  1 3.940000e-01    1.290000e+00
  TP3a  SC4h  1 3.780000e-01    1.450000e+00
  TP2a  SC4h  1 3.780000e-01    1.450000e+00
  TP1a  SC4h  1 3.780000e-01    1.450000e+00
  TN6a  SC4h  1 3.660000e-01    1.600000e+00
  TN5a  SC4h  1 3.660000e-01    1.600000e+00
  TN4a  SC4h  1 3.650000e-01    1.750000e+00
  TN3a  SC4h  1 3.650000e-01    1.750000e+00
  TN2a  SC4h  1 3.650000e-01    1.750000e+00
  TN1a  SC4h  1 3.650000e-01    1.910000e+00
  TC6v  SC4h  1 3.650000e-01    2.110000e+00
  TC5v  SC4h  1 3.650000e-01    2.110000e+00
  TC4h  SC4v  1 3.650000e-01    2.110000e+00
  TC4h  SX1v  1 3.650000e-01    2.110000e+00
  TC4h  SX2v  1 3.650000e-01    1.910000e+00
  TC4h  SX3v  1 3.650000e-01    1.910000e+00
  TC4h  SX4v  1 3.650000e-01    1.910000e+00
  TC4h  SC1v  1 3.650000e-01    1.750000e+00
  TC4h  SC2v  1 3.650000e-01    1.910000e+00
  TC4h  SC3v  1 3.650000e-01    2.110000e+00
  TC6e  SC4h  1 3.650000e-01    2.110000e+00
  TC5e  SC4h  1 3.650000e-01    2.110000e+00
  TC4h  SC4e  1 3.650000e-01    2.110000e+00
  TC4h  SX1e  1 3.650000e-01    2.110000e+00
  TC4h  SX2e  1 3.650000e-01    1.910000e+00
  TC4h  SX3e  1 3.650000e-01    1.910000e+00
  TC4h  SX4e  1 3.650000e-01    1.910000e+00
  TC4h  SC1e  1 3.650000e-01    1.750000e+00
  TC4h  SC2e  1 3.650000e-01    1.910000e+00
  TC4h  SC3e  1 3.650000e-01    2.110000e+00
  TP6q  SC4h  1 3.780000e-01    1.450000e+00
  TP5q  SC4h  1 3.660000e-01    1.600000e+00
  TP4q  SC4h  1 3.660000e-01    1.600000e+00
  TP3q  SC4h  1 3.650000e-01    1.750000e+00
  TP2q  SC4h  1 3.650000e-01    1.750000e+00
  TP1q  SC4h  1 3.650000e-01    1.750000e+00
  TN6q  SC4h  1 3.650000e-01    1.910000e+00
  TN5q  SC4h  1 3.650000e-01    1.910000e+00
  TN4q  SC4h  1 3.650000e-01    2.110000e+00
  TN3q  SC4h  1 3.650000e-01    2.110000e+00
  TN2q  SC4h  1 3.650000e-01    2.110000e+00
  TN1q  SC4h  1 3.650000e-01    2.340000e+00
  TC6q  SC4h  1 3.650000e-01    2.340000e+00
  TC5q  SC4h  1 3.650000e-01    2.340000e+00
  TC4h  SC4q  1 3.650000e-01    2.340000e+00
  TC4h  SX1q  1 3.650000e-01    2.340000e+00
  TC4h  SX2q  1 3.650000e-01    2.110000e+00
  TC4h  SX3q  1 3.650000e-01    2.110000e+00
  TC4h  SX4q  1 3.650000e-01    2.110000e+00
  TC4h  SC1q  1 3.650000e-01    1.910000e+00
  TC4h  SC2q  1 3.650000e-01    2.110000e+00
  TC4h  SC3q  1 3.650000e-01    2.340000e+00
  TP6d  SC3h  1 4.090000e-01    1.080000e+00
  TP5d  SC3h  1 4.040000e-01    1.130000e+00
  TP4d  SC3h  1 4.040000e-01    1.130000e+00
  TP3d  SC3h  1 4.040000e-01    1.130000e+00
  TP2d  SC3h  1 3.940000e-01    1.290000e+00
  TP1d  SC3h  1 3.940000e-01    1.290000e+00
  TN6d  SC3h  1 3.780000e-01    1.450000e+00
  TN5d  SC3h  1 3.660000e-01    1.600000e+00
  TN4d  SC3h  1 3.660000e-01    1.600000e+00
  TN3d  SC3h  1 3.660000e-01    1.600000e+00
  TN2d  SC3h  1 3.650000e-01    1.750000e+00
  TN1d  SC3h  1 3.650000e-01    1.750000e+00
  TP6a  SC3h  1 4.090000e-01    1.080000e+00
  TP5a  SC3h  1 4.040000e-01    1.130000e+00
  TP4a  SC3h  1 4.040000e-01    1.130000e+00
  TP3a  SC3h  1 4.040000e-01    1.130000e+00
  TP2a  SC3h  1 3.940000e-01    1.290000e+00
  TP1a  SC3h  1 3.940000e-01    1.290000e+00
  TN6a  SC3h  1 3.780000e-01    1.450000e+00
  TN5a  SC3h  1 3.660000e-01    1.600000e+00
  TN4a  SC3h  1 3.660000e-01    1.600000e+00
  TN3a  SC3h  1 3.660000e-01    1.600000e+00
  TN2a  SC3h  1 3.650000e-01    1.750000e+00
  TN1a  SC3h  1 3.650000e-01    1.750000e+00
  TC6v  SC3h  1 3.650000e-01    1.910000e+00
  TC5v  SC3h  1 3.650000e-01    1.910000e+00
  TC4v  SC3h  1 3.650000e-01    2.110000e+00
  TC3h  SC3v  1 3.650000e-01    2.110000e+00
  TC3h  SX1v  1 3.650000e-01    2.110000e+00
  TC3h  SX2v  1 3.650000e-01    1.910000e+00
  TC3h  SX3v  1 3.650000e-01    1.910000e+00
  TC3h  SX4v  1 3.650000e-01    1.910000e+00
  TC3h  SC1v  1 3.650000e-01    2.110000e+00
  TC3h  SC2v  1 3.650000e-01    2.110000e+00
  TC6e  SC3h  1 3.650000e-01    1.910000e+00
  TC5e  SC3h  1 3.650000e-01    1.910000e+00
  TC4e  SC3h  1 3.650000e-01    2.110000e+00
  TC3h  SC3e  1 3.650000e-01    2.110000e+00
  TC3h  SX1e  1 3.650000e-01    2.110000e+00
  TC3h  SX2e  1 3.650000e-01    1.910000e+00
  TC3h  SX3e  1 3.650000e-01    1.910000e+00
  TC3h  SX4e  1 3.650000e-01    1.910000e+00
  TC3h  SC1e  1 3.650000e-01    2.110000e+00
  TC3h  SC2e  1 3.650000e-01    2.110000e+00
  TP6q  SC3h  1 3.940000e-01    1.290000e+00
  TP5q  SC3h  1 3.780000e-01    1.450000e+00
  TP4q  SC3h  1 3.780000e-01    1.450000e+00
  TP3q  SC3h  1 3.780000e-01    1.450000e+00
  TP2q  SC3h  1 3.660000e-01    1.600000e+00
  TP1q  SC3h  1 3.660000e-01    1.600000e+00
  TN6q  SC3h  1 3.650000e-01    1.750000e+00
  TN5q  SC3h  1 3.650000e-01    1.910000e+00
  TN4q  SC3h  1 3.650000e-01    1.910000e+00
  TN3q  SC3h  1 3.650000e-01    1.910000e+00
  TN2q  SC3h  1 3.650000e-01    2.110000e+00
  TN1q  SC3h  1 3.650000e-01    2.110000e+00
  TC6q  SC3h  1 3.650000e-01    2.110000e+00
  TC5q  SC3h  1 3.650000e-01    2.110000e+00
  TC4q  SC3h  1 3.650000e-01    2.340000e+00
  TC3h  SC3q  1 3.650000e-01    2.340000e+00
  TC3h  SX1q  1 3.650000e-01    2.340000e+00
  TC3h  SX2q  1 3.650000e-01    2.110000e+00
  TC3h  SX3q  1 3.650000e-01    2.110000e+00
  TC3h  SX4q  1 3.650000e-01    2.110000e+00
  TC3h  SC1q  1 3.650000e-01    2.340000e+00
  TC3h  SC2q  1 3.650000e-01    2.340000e+00
  TP6d  SC2h  1 4.090000e-01    1.080000e+00
  TP5d  SC2h  1 4.040000e-01    1.130000e+00
  TP4d  SC2h  1 4.040000e-01    1.130000e+00
  TP3d  SC2h  1 4.040000e-01    1.130000e+00
  TP2d  SC2h  1 3.940000e-01    1.290000e+00
  TP1d  SC2h  1 3.940000e-01    1.290000e+00
  TN6d  SC2h  1 3.780000e-01    1.450000e+00
  TN5d  SC2h  1 3.780000e-01    1.450000e+00
  TN4d  SC2h  1 3.780000e-01    1.450000e+00
  TN3d  SC2h  1 3.660000e-01    1.600000e+00
  TN2d  SC2h  1 3.660000e-01    1.600000e+00
  TN1d  SC2h  1 3.660000e-01    1.600000e+00
  TP6a  SC2h  1 4.090000e-01    1.080000e+00
  TP5a  SC2h  1 4.040000e-01    1.130000e+00
  TP4a  SC2h  1 4.040000e-01    1.130000e+00
  TP3a  SC2h  1 4.040000e-01    1.130000e+00
  TP2a  SC2h  1 3.940000e-01    1.290000e+00
  TP1a  SC2h  1 3.940000e-01    1.290000e+00
  TN6a  SC2h  1 3.780000e-01    1.450000e+00
  TN5a  SC2h  1 3.780000e-01    1.450000e+00
  TN4a  SC2h  1 3.780000e-01    1.450000e+00
  TN3a  SC2h  1 3.660000e-01    1.600000e+00
  TN2a  SC2h  1 3.660000e-01    1.600000e+00
  TN1a  SC2h  1 3.660000e-01    1.600000e+00
  TC6v  SC2h  1 3.650000e-01    1.750000e+00
  TC5v  SC2h  1 3.650000e-01    1.750000e+00
  TC4v  SC2h  1 3.650000e-01    1.910000e+00
  TC3v  SC2h  1 3.650000e-01    2.110000e+00
  TC2h  SC2v  1 3.650000e-01    2.110000e+00
  TC2h  SX1v  1 3.650000e-01    1.910000e+00
  TC2h  SX2v  1 3.650000e-01    1.910000e+00
  TC2h  SX3v  1 3.650000e-01    1.910000e+00
  TC2h  SX4v  1 3.660000e-01    1.600000e+00
  TC2h  SC1v  1 3.650000e-01    2.340000e+00
  TC6e  SC2h  1 3.650000e-01    1.750000e+00
  TC5e  SC2h  1 3.650000e-01    1.750000e+00
  TC4e  SC2h  1 3.650000e-01    1.910000e+00
  TC3e  SC2h  1 3.650000e-01    2.110000e+00
  TC2h  SC2e  1 3.650000e-01    2.110000e+00
  TC2h  SX1e  1 3.650000e-01    1.910000e+00
  TC2h  SX2e  1 3.650000e-01    1.910000e+00
  TC2h  SX3e  1 3.650000e-01    1.910000e+00
  TC2h  SX4e  1 3.660000e-01    1.600000e+00
  TC2h  SC1e  1 3.650000e-01    2.340000e+00
  TP6q  SC2h  1 3.940000e-01    1.290000e+00
  TP5q  SC2h  1 3.780000e-01    1.450000e+00
  TP4q  SC2h  1 3.780000e-01    1.450000e+00
  TP3q  SC2h  1 3.780000e-01    1.450000e+00
  TP2q  SC2h  1 3.660000e-01    1.600000e+00
  TP1q  SC2h  1 3.660000e-01    1.600000e+00
  TN6q  SC2h  1 3.650000e-01    1.750000e+00
  TN5q  SC2h  1 3.650000e-01    1.750000e+00
  TN4q  SC2h  1 3.650000e-01    1.750000e+00
  TN3q  SC2h  1 3.650000e-01    1.910000e+00
  TN2q  SC2h  1 3.650000e-01    1.910000e+00
  TN1q  SC2h  1 3.650000e-01    1.910000e+00
  TC6q  SC2h  1 3.650000e-01    1.910000e+00
  TC5q  SC2h  1 3.650000e-01    1.910000e+00
  TC4q  SC2h  1 3.650000e-01    2.110000e+00
  TC3q  SC2h  1 3.650000e-01    2.340000e+00
  TC2h  SC2q  1 3.650000e-01    2.340000e+00
  TC2h  SX1q  1 3.650000e-01    2.110000e+00
  TC2h  SX2q  1 3.650000e-01    2.110000e+00
  TC2h  SX3q  1 3.650000e-01    2.110000e+00
  TC2h  SX4q  1 3.650000e-01    1.750000e+00
  TC2h  SC1q  1 3.650000e-01    2.570000e+00
  TP6d  SC1h  1 4.840000e-01    8.900000e-01
  TP5d  SC1h  1 4.090000e-01    1.080000e+00
  TP4d  SC1h  1 4.090000e-01    1.080000e+00
  TP3d  SC1h  1 4.090000e-01    1.080000e+00
  TP2d  SC1h  1 4.040000e-01    1.130000e+00
  TP1d  SC1h  1 4.040000e-01    1.130000e+00
  TN6d  SC1h  1 3.940000e-01    1.290000e+00
  TN5d  SC1h  1 3.940000e-01    1.290000e+00
  TN4d  SC1h  1 3.940000e-01    1.290000e+00
  TN3d  SC1h  1 3.780000e-01    1.450000e+00
  TN2d  SC1h  1 3.780000e-01    1.450000e+00
  TN1d  SC1h  1 3.780000e-01    1.450000e+00
  TP6a  SC1h  1 4.840000e-01    8.900000e-01
  TP5a  SC1h  1 4.090000e-01    1.080000e+00
  TP4a  SC1h  1 4.090000e-01    1.080000e+00
  TP3a  SC1h  1 4.090000e-01    1.080000e+00
  TP2a  SC1h  1 4.040000e-01    1.130000e+00
  TP1a  SC1h  1 4.040000e-01    1.130000e+00
  TN6a  SC1h  1 3.940000e-01    1.290000e+00
  TN5a  SC1h  1 3.940000e-01    1.290000e+00
  TN4a  SC1h  1 3.940000e-01    1.290000e+00
  TN3a  SC1h  1 3.780000e-01    1.450000e+00
  TN2a  SC1h  1 3.780000e-01    1.450000e+00
  TN1a  SC1h  1 3.780000e-01    1.450000e+00
  TC6v  SC1h  1 3.660000e-01    1.600000e+00
  TC5v  SC1h  1 3.650000e-01    1.750000e+00
  TC4v  SC1h  1 3.650000e-01    1.750000e+00
  TC3v  SC1h  1 3.650000e-01    2.110000e+00
  TC2v  SC1h  1 3.650000e-01    2.340000e+00
  TC1h  SC1v  1 3.650000e-01    2.110000e+00
  TC1h  SX1v  1 3.650000e-01    1.910000e+00
  TC1h  SX2v  1 3.650000e-01    1.910000e+00
  TC1h  SX3v  1 3.650000e-01    1.910000e+00
  TC1h  SX4v  1 3.660000e-01    1.600000e+00
  TC6e  SC1h  1 3.660000e-01    1.600000e+00
  TC5e  SC1h  1 3.650000e-01    1.750000e+00
  TC4e  SC1h  1 3.650000e-01    1.750000e+00
  TC3e  SC1h  1 3.650000e-01    2.110000e+00
  TC2e  SC1h  1 3.650000e-01    2.340000e+00
  TC1h  SC1e  1 3.650000e-01    2.110000e+00
  TC1h  SX1e  1 3.650000e-01    1.910000e+00
  TC1h  SX2e  1 3.650000e-01    1.910000e+00
  TC1h  SX3e  1 3.650000e-01    1.910000e+00
  TC1h  SX4e  1 3.660000e-01    1.600000e+00
  TP6q  SC1h  1 4.090000e-01    1.080000e+00
  TP5q  SC1h  1 3.940000e-01    1.290000e+00
  TP4q  SC1h  1 3.940000e-01    1.290000e+00
  TP3q  SC1h  1 3.940000e-01    1.290000e+00
  TP2q  SC1h  1 3.780000e-01    1.450000e+00
  TP1q  SC1h  1 3.780000e-01    1.450000e+00
  TN6q  SC1h  1 3.660000e-01    1.600000e+00
  TN5q  SC1h  1 3.660000e-01    1.600000e+00
  TN4q  SC1h  1 3.660000e-01    1.600000e+00
  TN3q  SC1h  1 3.650000e-01    1.750000e+00
  TN2q  SC1h  1 3.650000e-01    1.750000e+00
  TN1q  SC1h  1 3.650000e-01    1.750000e+00
  TC6q  SC1h  1 3.650000e-01    1.750000e+00
  TC5q  SC1h  1 3.650000e-01    1.910000e+00
  TC4q  SC1h  1 3.650000e-01    1.910000e+00
  TC3q  SC1h  1 3.650000e-01    2.340000e+00
  TC2q  SC1h  1 3.650000e-01    2.570000e+00
  TC1h  SC1q  1 3.650000e-01    2.340000e+00
  TC1h  SX1q  1 3.650000e-01    2.110000e+00
  TC1h  SX2q  1 3.650000e-01    2.110000e+00
  TC1h  SX3q  1 3.650000e-01    2.110000e+00
  TC1h  SX4q  1 3.650000e-01    1.750000e+00
  TP6d  SX4h  1 3.660000e-01    1.600000e+00
  TP5d  SX4h  1 3.650000e-01    1.750000e+00
  TP4d  SX4h  1 3.650000e-01    1.750000e+00
  TP3d  SX4h  1 3.650000e-01    1.750000e+00
  TP2d  SX4h  1 3.650000e-01    1.750000e+00
  TP1d  SX4h  1 3.650000e-01    1.750000e+00
  TN6d  SX4h  1 3.650000e-01    1.910000e+00
  TN5d  SX4h  1 3.650000e-01    2.110000e+00
  TN4d  SX4h  1 3.650000e-01    2.340000e+00
  TN3d  SX4h  1 3.650000e-01    2.110000e+00
  TN2d  SX4h  1 3.650000e-01    2.110000e+00
  TN1d  SX4h  1 3.650000e-01    1.910000e+00
  TP6a  SX4h  1 3.660000e-01    1.600000e+00
  TP5a  SX4h  1 3.650000e-01    1.750000e+00
  TP4a  SX4h  1 3.650000e-01    1.750000e+00
  TP3a  SX4h  1 3.650000e-01    1.750000e+00
  TP2a  SX4h  1 3.650000e-01    1.750000e+00
  TP1a  SX4h  1 3.650000e-01    1.750000e+00
  TN6a  SX4h  1 3.650000e-01    1.910000e+00
  TN5a  SX4h  1 3.650000e-01    2.110000e+00
  TN4a  SX4h  1 3.650000e-01    2.340000e+00
  TN3a  SX4h  1 3.650000e-01    2.110000e+00
  TN2a  SX4h  1 3.650000e-01    2.110000e+00
  TN1a  SX4h  1 3.650000e-01    1.910000e+00
  TC6v  SX4h  1 3.650000e-01    2.110000e+00
  TC5v  SX4h  1 3.650000e-01    1.910000e+00
  TC4v  SX4h  1 3.650000e-01    1.910000e+00
  TC3v  SX4h  1 3.650000e-01    1.910000e+00
  TC2v  SX4h  1 3.660000e-01    1.600000e+00
  TC1v  SX4h  1 3.660000e-01    1.600000e+00
  TX4h  SX4v  1 3.650000e-01    2.110000e+00
  TX4h  SX1v  1 3.650000e-01    2.110000e+00
  TX4h  SX2v  1 3.650000e-01    2.110000e+00
  TX4h  SX3v  1 3.650000e-01    2.110000e+00
  TC6e  SX4h  1 3.650000e-01    2.110000e+00
  TC5e  SX4h  1 3.650000e-01    1.910000e+00
  TC4e  SX4h  1 3.650000e-01    1.910000e+00
  TC3e  SX4h  1 3.650000e-01    1.910000e+00
  TC2e  SX4h  1 3.660000e-01    1.600000e+00
  TC1e  SX4h  1 3.660000e-01    1.600000e+00
  TX4h  SX4e  1 3.650000e-01    2.110000e+00
  TX4h  SX1e  1 3.650000e-01    2.110000e+00
  TX4h  SX2e  1 3.650000e-01    2.110000e+00
  TX4h  SX3e  1 3.650000e-01    2.110000e+00
  TP6q  SX4h  1 3.650000e-01    1.910000e+00
  TP5q  SX4h  1 3.650000e-01    2.110000e+00
  TP4q  SX4h  1 3.650000e-01    2.110000e+00
  TP3q  SX4h  1 3.650000e-01    2.110000e+00
  TP2q  SX4h  1 3.650000e-01    2.110000e+00
  TP1q  SX4h  1 3.650000e-01    2.110000e+00
  TN6q  SX4h  1 3.650000e-01    2.340000e+00
  TN5q  SX4h  1 3.650000e-01    2.570000e+00
  TN4q  SX4h  1 3.650000e-01    2.830000e+00
  TN3q  SX4h  1 3.650000e-01    2.570000e+00
  TN2q  SX4h  1 3.650000e-01    2.570000e+00
  TN1q  SX4h  1 3.650000e-01    2.340000e+00
  TC6q  SX4h  1 3.650000e-01    2.340000e+00
  TC5q  SX4h  1 3.650000e-01    2.110000e+00
  TC4q  SX4h  1 3.650000e-01    2.110000e+00
  TC3q  SX4h  1 3.650000e-01    2.110000e+00
  TC2q  SX4h  1 3.650000e-01    1.750000e+00
  TC1q  SX4h  1 3.650000e-01    1.750000e+00
  TX4h  SX4q  1 3.650000e-01    2.340000e+00
  TX4h  SX1q  1 3.650000e-01    2.340000e+00
  TX4h  SX2q  1 3.650000e-01    2.340000e+00
  TX4h  SX3q  1 3.650000e-01    2.340000e+00
  TP6d  SX3h  1 3.660000e-01    1.600000e+00
  TP5d  SX3h  1 3.660000e-01    1.600000e+00
  TP4d  SX3h  1 3.660000e-01    1.600000e+00
  TP3d  SX3h  1 3.650000e-01    1.750000e+00
  TP2d  SX3h  1 3.650000e-01    1.750000e+00
  TP1d  SX3h  1 3.650000e-01    1.750000e+00
  TN6d  SX3h  1 3.650000e-01    1.750000e+00
  TN5d  SX3h  1 3.650000e-01    1.910000e+00
  TN4d  SX3h  1 3.650000e-01    2.110000e+00
  TN3d  SX3h  1 3.650000e-01    1.910000e+00
  TN2d  SX3h  1 3.650000e-01    1.910000e+00
  TN1d  SX3h  1 3.650000e-01    1.910000e+00
  TP6a  SX3h  1 3.660000e-01    1.600000e+00
  TP5a  SX3h  1 3.660000e-01    1.600000e+00
  TP4a  SX3h  1 3.660000e-01    1.600000e+00
  TP3a  SX3h  1 3.650000e-01    1.750000e+00
  TP2a  SX3h  1 3.650000e-01    1.750000e+00
  TP1a  SX3h  1 3.650000e-01    1.750000e+00
  TN6a  SX3h  1 3.650000e-01    1.750000e+00
  TN5a  SX3h  1 3.650000e-01    1.910000e+00
  TN4a  SX3h  1 3.650000e-01    2.110000e+00
  TN3a  SX3h  1 3.650000e-01    1.910000e+00
  TN2a  SX3h  1 3.650000e-01    1.910000e+00
  TN1a  SX3h  1 3.650000e-01    1.910000e+00
  TC6v  SX3h  1 3.650000e-01    2.110000e+00
  TC5v  SX3h  1 3.650000e-01    1.910000e+00
  TC4v  SX3h  1 3.650000e-01    1.910000e+00
  TC3v  SX3h  1 3.650000e-01    1.910000e+00
  TC2v  SX3h  1 3.650000e-01    1.910000e+00
  TC1v  SX3h  1 3.650000e-01    1.910000e+00
  TX4v  SX3h  1 3.650000e-01    2.110000e+00
  TX3h  SX3v  1 3.650000e-01    2.110000e+00
  TX3h  SX1v  1 3.650000e-01    2.340000e+00
  TX3h  SX2v  1 3.650000e-01    2.340000e+00
  TC6e  SX3h  1 3.650000e-01    2.110000e+00
  TC5e  SX3h  1 3.650000e-01    1.910000e+00
  TC4e  SX3h  1 3.650000e-01    1.910000e+00
  TC3e  SX3h  1 3.650000e-01    1.910000e+00
  TC2e  SX3h  1 3.650000e-01    1.910000e+00
  TC1e  SX3h  1 3.650000e-01    1.910000e+00
  TX4e  SX3h  1 3.650000e-01    2.110000e+00
  TX3h  SX3e  1 3.650000e-01    2.110000e+00
  TX3h  SX1e  1 3.650000e-01    2.340000e+00
  TX3h  SX2e  1 3.650000e-01    2.340000e+00
  TP6q  SX3h  1 3.650000e-01    1.910000e+00
  TP5q  SX3h  1 3.650000e-01    1.910000e+00
  TP4q  SX3h  1 3.650000e-01    1.910000e+00
  TP3q  SX3h  1 3.650000e-01    2.110000e+00
  TP2q  SX3h  1 3.650000e-01    2.110000e+00
  TP1q  SX3h  1 3.650000e-01    2.110000e+00
  TN6q  SX3h  1 3.650000e-01    2.110000e+00
  TN5q  SX3h  1 3.650000e-01    2.340000e+00
  TN4q  SX3h  1 3.650000e-01    2.570000e+00
  TN3q  SX3h  1 3.650000e-01    2.340000e+00
  TN2q  SX3h  1 3.650000e-01    2.340000e+00
  TN1q  SX3h  1 3.650000e-01    2.340000e+00
  TC6q  SX3h  1 3.650000e-01    2.340000e+00
  TC5q  SX3h  1 3.650000e-01    2.110000e+00
  TC4q  SX3h  1 3.650000e-01    2.110000e+00
  TC3q  SX3h  1 3.650000e-01    2.110000e+00
  TC2q  SX3h  1 3.650000e-01    2.110000e+00
  TC1q  SX3h  1 3.650000e-01    2.110000e+00
  TX4q  SX3h  1 3.650000e-01    2.340000e+00
  TX3h  SX3q  1 3.650000e-01    2.340000e+00
  TX3h  SX1q  1 3.650000e-01    2.570000e+00
  TX3h  SX2q  1 3.650000e-01    2.570000e+00
  TP6d  SX2h  1 3.780000e-01    1.450000e+00
  TP5d  SX2h  1 3.660000e-01    1.600000e+00
  TP4d  SX2h  1 3.660000e-01    1.600000e+00
  TP3d  SX2h  1 3.660000e-01    1.600000e+00
  TP2d  SX2h  1 3.660000e-01    1.600000e+00
  TP1d  SX2h  1 3.660000e-01    1.600000e+00
  TN6d  SX2h  1 3.660000e-01    1.600000e+00
  TN5d  SX2h  1 3.650000e-01    1.750000e+00
  TN4d  SX2h  1 3.650000e-01    1.750000e+00
  TN3d  SX2h  1 3.650000e-01    1.750000e+00
  TN2d  SX2h  1 3.650000e-01    1.750000e+00
  TN1d  SX2h  1 3.650000e-01    1.750000e+00
  TP6a  SX2h  1 3.780000e-01    1.450000e+00
  TP5a  SX2h  1 3.660000e-01    1.600000e+00
  TP4a  SX2h  1 3.660000e-01    1.600000e+00
  TP3a  SX2h  1 3.660000e-01    1.600000e+00
  TP2a  SX2h  1 3.660000e-01    1.600000e+00
  TP1a  SX2h  1 3.660000e-01    1.600000e+00
  TN6a  SX2h  1 3.660000e-01    1.600000e+00
  TN5a  SX2h  1 3.650000e-01    1.750000e+00
  TN4a  SX2h  1 3.650000e-01    1.750000e+00
  TN3a  SX2h  1 3.650000e-01    1.750000e+00
  TN2a  SX2h  1 3.650000e-01    1.750000e+00
  TN1a  SX2h  1 3.650000e-01    1.750000e+00
  TC6v  SX2h  1 3.650000e-01    2.110000e+00
  TC5v  SX2h  1 3.650000e-01    1.910000e+00
  TC4v  SX2h  1 3.650000e-01    1.910000e+00
  TC3v  SX2h  1 3.650000e-01    1.910000e+00
  TC2v  SX2h  1 3.650000e-01    1.910000e+00
  TC1v  SX2h  1 3.650000e-01    1.910000e+00
  TX4v  SX2h  1 3.650000e-01    2.110000e+00
  TX3v  SX2h  1 3.650000e-01    2.340000e+00
  TX2h  SX2v  1 3.650000e-01    2.340000e+00
  TX2h  SX1v  1 3.650000e-01    2.340000e+00
  TC6e  SX2h  1 3.650000e-01    2.110000e+00
  TC5e  SX2h  1 3.650000e-01    1.910000e+00
  TC4e  SX2h  1 3.650000e-01    1.910000e+00
  TC3e  SX2h  1 3.650000e-01    1.910000e+00
  TC2e  SX2h  1 3.650000e-01    1.910000e+00
  TC1e  SX2h  1 3.650000e-01    1.910000e+00
  TX4e  SX2h  1 3.650000e-01    2.110000e+00
  TX3e  SX2h  1 3.650000e-01    2.340000e+00
  TX2h  SX2e  1 3.650000e-01    2.340000e+00
  TX2h  SX1e  1 3.650000e-01    2.340000e+00
  TP6q  SX2h  1 3.650000e-01    1.750000e+00
  TP5q  SX2h  1 3.650000e-01    1.910000e+00
  TP4q  SX2h  1 3.650000e-01    1.910000e+00
  TP3q  SX2h  1 3.650000e-01    1.910000e+00
  TP2q  SX2h  1 3.650000e-01    1.910000e+00
  TP1q  SX2h  1 3.650000e-01    1.910000e+00
  TN6q  SX2h  1 3.650000e-01    1.910000e+00
  TN5q  SX2h  1 3.650000e-01    2.110000e+00
  TN4q  SX2h  1 3.650000e-01    2.110000e+00
  TN3q  SX2h  1 3.650000e-01    2.110000e+00
  TN2q  SX2h  1 3.650000e-01    2.110000e+00
  TN1q  SX2h  1 3.650000e-01    2.110000e+00
  TC6q  SX2h  1 3.650000e-01    2.340000e+00
  TC5q  SX2h  1 3.650000e-01    2.110000e+00
  TC4q  SX2h  1 3.650000e-01    2.110000e+00
  TC3q  SX2h  1 3.650000e-01    2.110000e+00
  TC2q  SX2h  1 3.650000e-01    2.110000e+00
  TC1q  SX2h  1 3.650000e-01    2.110000e+00
  TX4q  SX2h  1 3.650000e-01    2.340000e+00
  TX3q  SX2h  1 3.650000e-01    2.570000e+00
  TX2h  SX2q  1 3.650000e-01    2.570000e+00
  TX2h  SX1q  1 3.650000e-01    2.570000e+00
  TP6d  SX1h  1 3.940000e-01    1.290000e+00
  TP5d  SX1h  1 3.940000e-01    1.290000e+00
  TP4d  SX1h  1 3.780000e-01    1.450000e+00
  TP3d  SX1h  1 3.780000e-01    1.450000e+00
  TP2d  SX1h  1 3.780000e-01    1.450000e+00
  TP1d  SX1h  1 3.780000e-01    1.450000e+00
  TN6d  SX1h  1 3.780000e-01    1.450000e+00
  TN5d  SX1h  1 3.660000e-01    1.600000e+00
  TN4d  SX1h  1 3.660000e-01    1.600000e+00
  TN3d  SX1h  1 3.650000e-01    1.750000e+00
  TN2d  SX1h  1 3.650000e-01    1.750000e+00
  TN1d  SX1h  1 3.650000e-01    1.750000e+00
  TP6a  SX1h  1 3.940000e-01    1.290000e+00
  TP5a  SX1h  1 3.940000e-01    1.290000e+00
  TP4a  SX1h  1 3.780000e-01    1.450000e+00
  TP3a  SX1h  1 3.780000e-01    1.450000e+00
  TP2a  SX1h  1 3.780000e-01    1.450000e+00
  TP1a  SX1h  1 3.780000e-01    1.450000e+00
  TN6a  SX1h  1 3.780000e-01    1.450000e+00
  TN5a  SX1h  1 3.660000e-01    1.600000e+00
  TN4a  SX1h  1 3.660000e-01    1.600000e+00
  TN3a  SX1h  1 3.650000e-01    1.750000e+00
  TN2a  SX1h  1 3.650000e-01    1.750000e+00
  TN1a  SX1h  1 3.650000e-01    1.750000e+00
  TC6v  SX1h  1 3.650000e-01    2.110000e+00
  TC5v  SX1h  1 3.650000e-01    2.110000e+00
  TC4v  SX1h  1 3.650000e-01    2.110000e+00
  TC3v  SX1h  1 3.650000e-01    2.110000e+00
  TC2v  SX1h  1 3.650000e-01    1.910000e+00
  TC1v  SX1h  1 3.650000e-01    1.910000e+00
  TX4v  SX1h  1 3.650000e-01    2.110000e+00
  TX3v  SX1h  1 3.650000e-01    2.340000e+00
  TX2v  SX1h  1 3.650000e-01    2.340000e+00
  TX1h  SX1v  1 3.650000e-01    2.570000e+00
  TC6e  SX1h  1 3.650000e-01    2.110000e+00
  TC5e  SX1h  1 3.650000e-01    2.110000e+00
  TC4e  SX1h  1 3.650000e-01    2.110000e+00
  TC3e  SX1h  1 3.650000e-01    2.110000e+00
  TC2e  SX1h  1 3.650000e-01    1.910000e+00
  TC1e  SX1h  1 3.650000e-01    1.910000e+00
  TX4e  SX1h  1 3.650000e-01    2.110000e+00
  TX3e  SX1h  1 3.650000e-01    2.340000e+00
  TX2e  SX1h  1 3.650000e-01    2.340000e+00
  TX1h  SX1e  1 3.650000e-01    2.570000e+00
  TP6q  SX1h  1 3.660000e-01    1.600000e+00
  TP5q  SX1h  1 3.660000e-01    1.600000e+00
  TP4q  SX1h  1 3.650000e-01    1.750000e+00
  TP3q  SX1h  1 3.650000e-01    1.750000e+00
  TP2q  SX1h  1 3.650000e-01    1.750000e+00
  TP1q  SX1h  1 3.650000e-01    1.750000e+00
  TN6q  SX1h  1 3.650000e-01    1.750000e+00
  TN5q  SX1h  1 3.650000e-01    1.910000e+00
  TN4q  SX1h  1 3.650000e-01    1.910000e+00
  TN3q  SX1h  1 3.650000e-01    2.110000e+00
  TN2q  SX1h  1 3.650000e-01    2.110000e+00
  TN1q  SX1h  1 3.650000e-01    2.110000e+00
  TC6q  SX1h  1 3.650000e-01    2.340000e+00
  TC5q  SX1h  1 3.650000e-01    2.340000e+00
  TC4q  SX1h  1 3.650000e-01    2.340000e+00
  TC3q  SX1h  1 3.650000e-01    2.340000e+00
  TC2q  SX1h  1 3.650000e-01    2.110000e+00
  TC1q  SX1h  1 3.650000e-01    2.110000e+00
  TX4q  SX1h  1 3.650000e-01    2.340000e+00
  TX3q  SX1h  1 3.650000e-01    2.570000e+00
  TX2q  SX1h  1 3.650000e-01    2.570000e+00
  TX1h  SX1q  1 3.650000e-01    2.830000e+00
 TP6dh SP6dq  1 3.650000e-01    4.220000e+00
 TP6dh SX1eq  1 3.650000e-01    1.750000e+00
 TP6dh SX2eq  1 3.650000e-01    1.910000e+00
 TP6dh SX3eq  1 3.650000e-01    2.110000e+00
 TP6dh SX4eq  1 3.650000e-01    2.110000e+00
 TP6dh SC1eq  1 4.040000e-01    1.130000e+00
 TP6dh SC2eq  1 3.780000e-01    1.450000e+00
 TP6dh SC3eq  1 3.780000e-01    1.450000e+00
 TP6dh SC4eq  1 3.660000e-01    1.600000e+00
 TP6dh SC5eq  1 3.650000e-01    1.750000e+00
 TP6dh SC6eq  1 3.650000e-01    1.910000e+00
 TP6dh SX1vq  1 3.780000e-01    1.450000e+00
 TP6dh SX2vq  1 3.660000e-01    1.600000e+00
 TP6dh SX3vq  1 3.650000e-01    1.750000e+00
 TP6dh SX4vq  1 3.650000e-01    1.750000e+00
 TP6dh SC1vq  1 4.230000e-01    9.810000e-01
 TP6dh SC2vq  1 4.040000e-01    1.130000e+00
 TP6dh SC3vq  1 4.040000e-01    1.130000e+00
 TP6dh SC4vq  1 3.940000e-01    1.290000e+00
 TP6dh SC5vq  1 3.780000e-01    1.450000e+00
 TP6dh SC6vq  1 3.660000e-01    1.600000e+00
 TP6dh SN1aq  1 3.650000e-01    1.750000e+00
 TP6dh SN2aq  1 3.650000e-01    1.910000e+00
 TP6dh SN3aq  1 3.650000e-01    2.110000e+00
 TP6dh SN4aq  1 3.650000e-01    2.570000e+00
 TP6dh SN5aq  1 3.650000e-01    2.830000e+00
 TP6dh SN6aq  1 3.650000e-01    3.370000e+00
 TP6dh SP1aq  1 3.650000e-01    3.640000e+00
 TP6dh SP2aq  1 3.650000e-01    3.930000e+00
 TP6dh SP3aq  1 3.650000e-01    3.930000e+00
 TP6dh SP4aq  1 3.650000e-01    4.220000e+00
 TP6dh SP5aq  1 3.650000e-01    4.510000e+00
 TP6dh SP6aq  1 3.650000e-01    4.860000e+00
 TP6dh SN1dq  1 3.650000e-01    1.750000e+00
 TP6dh SN2dq  1 3.650000e-01    1.910000e+00
 TP6dh SN3dq  1 3.650000e-01    2.110000e+00
 TP6dh SN4dq  1 3.650000e-01    2.110000e+00
 TP6dh SN5dq  1 3.650000e-01    2.340000e+00
 TP6dh SN6dq  1 3.650000e-01    2.830000e+00
 TP6dh SP1dq  1 3.650000e-01    3.100000e+00
 TP6dh SP2dq  1 3.650000e-01    3.370000e+00
 TP6dh SP3dq  1 3.650000e-01    3.370000e+00
 TP6dh SP4dq  1 3.650000e-01    3.640000e+00
 TP6dh SP5dq  1 3.650000e-01    3.930000e+00
 TP6dq SP5dh  1 3.650000e-01    3.930000e+00
 TP5dh SP5dq  1 3.650000e-01    3.640000e+00
 TP5dh SX1eq  1 3.650000e-01    1.750000e+00
 TP5dh SX2eq  1 3.650000e-01    2.110000e+00
 TP5dh SX3eq  1 3.650000e-01    2.110000e+00
 TP5dh SX4eq  1 3.650000e-01    2.340000e+00
 TP5dh SC1eq  1 3.780000e-01    1.450000e+00
 TP5dh SC2eq  1 3.660000e-01    1.600000e+00
 TP5dh SC3eq  1 3.660000e-01    1.600000e+00
 TP5dh SC4eq  1 3.650000e-01    1.750000e+00
 TP5dh SC5eq  1 3.650000e-01    1.910000e+00
 TP5dh SC6eq  1 3.650000e-01    1.910000e+00
 TP5dh SX1vq  1 3.780000e-01    1.450000e+00
 TP5dh SX2vq  1 3.650000e-01    1.750000e+00
 TP5dh SX3vq  1 3.650000e-01    1.750000e+00
 TP5dh SX4vq  1 3.650000e-01    1.910000e+00
 TP5dh SC1vq  1 4.040000e-01    1.130000e+00
 TP5dh SC2vq  1 3.940000e-01    1.290000e+00
 TP5dh SC3vq  1 3.940000e-01    1.290000e+00
 TP5dh SC4vq  1 3.780000e-01    1.450000e+00
 TP5dh SC5vq  1 3.660000e-01    1.600000e+00
 TP5dh SC6vq  1 3.660000e-01    1.600000e+00
 TP5dh SN1aq  1 3.650000e-01    1.750000e+00
 TP5dh SN2aq  1 3.650000e-01    1.910000e+00
 TP5dh SN3aq  1 3.650000e-01    2.110000e+00
 TP5dh SN4aq  1 3.650000e-01    2.830000e+00
 TP5dh SN5aq  1 3.650000e-01    2.830000e+00
 TP5dh SN6aq  1 3.650000e-01    3.100000e+00
 TP5dh SP1aq  1 3.650000e-01    3.370000e+00
 TP5dh SP2aq  1 3.650000e-01    3.640000e+00
 TP5dh SP3aq  1 3.650000e-01    3.640000e+00
 TP5dh SP4aq  1 3.650000e-01    3.930000e+00
 TP5dh SP5aq  1 3.650000e-01    4.220000e+00
 TP6aq SP5dh  1 3.650000e-01    4.510000e+00
 TP5dh SN1dq  1 3.650000e-01    1.750000e+00
 TP5dh SN2dq  1 3.650000e-01    1.910000e+00
 TP5dh SN3dq  1 3.650000e-01    2.110000e+00
 TP5dh SN4dq  1 3.650000e-01    2.340000e+00
 TP5dh SN5dq  1 3.650000e-01    2.340000e+00
 TP5dh SN6dq  1 3.650000e-01    2.570000e+00
 TP5dh SP1dq  1 3.650000e-01    2.830000e+00
 TP5dh SP2dq  1 3.650000e-01    3.100000e+00
 TP5dh SP3dq  1 3.650000e-01    3.100000e+00
 TP5dh SP4dq  1 3.650000e-01    3.370000e+00
 TP6dq SP4dh  1 3.650000e-01    3.640000e+00
 TP5dq SP4dh  1 3.650000e-01    3.370000e+00
 TP4dh SP4dq  1 3.650000e-01    3.370000e+00
 TP4dh SX1eq  1 3.650000e-01    1.910000e+00
 TP4dh SX2eq  1 3.650000e-01    2.110000e+00
 TP4dh SX3eq  1 3.650000e-01    2.110000e+00
 TP4dh SX4eq  1 3.650000e-01    2.340000e+00
 TP4dh SC1eq  1 3.780000e-01    1.450000e+00
 TP4dh SC2eq  1 3.660000e-01    1.600000e+00
 TP4dh SC3eq  1 3.660000e-01    1.600000e+00
 TP4dh SC4eq  1 3.650000e-01    1.750000e+00
 TP4dh SC5eq  1 3.650000e-01    1.910000e+00
 TP4dh SC6eq  1 3.650000e-01    2.110000e+00
 TP4dh SX1vq  1 3.660000e-01    1.600000e+00
 TP4dh SX2vq  1 3.650000e-01    1.750000e+00
 TP4dh SX3vq  1 3.650000e-01    1.750000e+00
 TP4dh SX4vq  1 3.650000e-01    1.910000e+00
 TP4dh SC1vq  1 4.040000e-01    1.130000e+00
 TP4dh SC2vq  1 3.940000e-01    1.290000e+00
 TP4dh SC3vq  1 3.940000e-01    1.290000e+00
 TP4dh SC4vq  1 3.780000e-01    1.450000e+00
 TP4dh SC5vq  1 3.660000e-01    1.600000e+00
 TP4dh SC6vq  1 3.650000e-01    1.750000e+00
 TP4dh SN1aq  1 3.650000e-01    1.910000e+00
 TP4dh SN2aq  1 3.650000e-01    2.110000e+00
 TP4dh SN3aq  1 3.650000e-01    2.570000e+00
 TP4dh SN4aq  1 3.650000e-01    2.830000e+00
 TP4dh SN5aq  1 3.650000e-01    2.830000e+00
 TP4dh SN6aq  1 3.650000e-01    3.100000e+00
 TP4dh SP1aq  1 3.650000e-01    3.370000e+00
 TP4dh SP2aq  1 3.650000e-01    3.640000e+00
 TP4dh SP3aq  1 3.650000e-01    3.640000e+00
 TP4dh SP4aq  1 3.650000e-01    3.930000e+00
 TP5aq SP4dh  1 3.650000e-01    3.930000e+00
 TP6aq SP4dh  1 3.650000e-01    4.220000e+00
 TP4dh SN1dq  1 3.650000e-01    1.910000e+00
 TP4dh SN2dq  1 3.650000e-01    2.110000e+00
 TP4dh SN3dq  1 3.650000e-01    2.110000e+00
 TP4dh SN4dq  1 3.650000e-01    2.340000e+00
 TP4dh SN5dq  1 3.650000e-01    2.340000e+00
 TP4dh SN6dq  1 3.650000e-01    2.570000e+00
 TP4dh SP1dq  1 3.650000e-01    2.830000e+00
 TP4dh SP2dq  1 3.650000e-01    3.100000e+00
 TP4dh SP3dq  1 3.650000e-01    3.100000e+00
 TP6dq SP3dh  1 3.650000e-01    3.370000e+00
 TP5dq SP3dh  1 3.650000e-01    3.100000e+00
 TP4dq SP3dh  1 3.650000e-01    3.100000e+00
 TP3dh SP3dq  1 3.650000e-01    3.100000e+00
 TP3dh SX1eq  1 3.650000e-01    1.910000e+00
 TP3dh SX2eq  1 3.650000e-01    2.110000e+00
 TP3dh SX3eq  1 3.650000e-01    2.340000e+00
 TP3dh SX4eq  1 3.650000e-01    2.340000e+00
 TP3dh SC1eq  1 3.780000e-01    1.450000e+00
 TP3dh SC2eq  1 3.660000e-01    1.600000e+00
 TP3dh SC3eq  1 3.660000e-01    1.600000e+00
 TP3dh SC4eq  1 3.650000e-01    1.910000e+00
 TP3dh SC5eq  1 3.650000e-01    2.110000e+00
 TP3dh SC6eq  1 3.650000e-01    2.340000e+00
 TP3dh SX1vq  1 3.660000e-01    1.600000e+00
 TP3dh SX2vq  1 3.650000e-01    1.750000e+00
 TP3dh SX3vq  1 3.650000e-01    1.910000e+00
 TP3dh SX4vq  1 3.650000e-01    1.910000e+00
 TP3dh SC1vq  1 4.040000e-01    1.130000e+00
 TP3dh SC2vq  1 3.940000e-01    1.290000e+00
 TP3dh SC3vq  1 3.940000e-01    1.290000e+00
 TP3dh SC4vq  1 3.660000e-01    1.600000e+00
 TP3dh SC5vq  1 3.650000e-01    1.750000e+00
 TP3dh SC6vq  1 3.650000e-01    1.910000e+00
 TP3dh SN1aq  1 3.650000e-01    2.110000e+00
 TP3dh SN2aq  1 3.650000e-01    2.570000e+00
 TP3dh SN3aq  1 3.650000e-01    2.570000e+00
 TP3dh SN4aq  1 3.650000e-01    2.830000e+00
 TP3dh SN5aq  1 3.650000e-01    2.830000e+00
 TP3dh SN6aq  1 3.650000e-01    3.100000e+00
 TP3dh SP1aq  1 3.650000e-01    3.370000e+00
 TP3dh SP2aq  1 3.650000e-01    3.640000e+00
 TP3dh SP3aq  1 3.650000e-01    3.640000e+00
 TP4aq SP3dh  1 3.650000e-01    3.640000e+00
 TP5aq SP3dh  1 3.650000e-01    3.640000e+00
 TP6aq SP3dh  1 3.650000e-01    3.930000e+00
 TP3dh SN1dq  1 3.650000e-01    2.110000e+00
 TP3dh SN2dq  1 3.650000e-01    2.110000e+00
 TP3dh SN3dq  1 3.650000e-01    2.110000e+00
 TP3dh SN4dq  1 3.650000e-01    2.340000e+00
 TP3dh SN5dq  1 3.650000e-01    2.340000e+00
 TP3dh SN6dq  1 3.650000e-01    2.570000e+00
 TP3dh SP1dq  1 3.650000e-01    2.830000e+00
 TP3dh SP2dq  1 3.650000e-01    3.100000e+00
 TP6dq SP2dh  1 3.650000e-01    3.370000e+00
 TP5dq SP2dh  1 3.650000e-01    3.100000e+00
 TP4dq SP2dh  1 3.650000e-01    3.100000e+00
 TP3dq SP2dh  1 3.650000e-01    3.100000e+00
 TP2dh SP2dq  1 3.650000e-01    3.100000e+00
 TP2dh SX1eq  1 3.650000e-01    1.910000e+00
 TP2dh SX2eq  1 3.650000e-01    2.110000e+00
 TP2dh SX3eq  1 3.650000e-01    2.340000e+00
 TP2dh SX4eq  1 3.650000e-01    2.340000e+00
 TP2dh SC1eq  1 3.660000e-01    1.600000e+00
 TP2dh SC2eq  1 3.650000e-01    1.750000e+00
 TP2dh SC3eq  1 3.650000e-01    1.750000e+00
 TP2dh SC4eq  1 3.650000e-01    1.910000e+00
 TP2dh SC5eq  1 3.650000e-01    2.110000e+00
 TP2dh SC6eq  1 3.650000e-01    2.340000e+00
 TP2dh SX1vq  1 3.660000e-01    1.600000e+00
 TP2dh SX2vq  1 3.650000e-01    1.750000e+00
 TP2dh SX3vq  1 3.650000e-01    1.910000e+00
 TP2dh SX4vq  1 3.650000e-01    1.910000e+00
 TP2dh SC1vq  1 3.940000e-01    1.290000e+00
 TP2dh SC2vq  1 3.780000e-01    1.450000e+00
 TP2dh SC3vq  1 3.780000e-01    1.450000e+00
 TP2dh SC4vq  1 3.660000e-01    1.600000e+00
 TP2dh SC5vq  1 3.650000e-01    1.750000e+00
 TP2dh SC6vq  1 3.650000e-01    1.910000e+00
 TP2dh SN1aq  1 3.650000e-01    2.570000e+00
 TP2dh SN2aq  1 3.650000e-01    2.570000e+00
 TP2dh SN3aq  1 3.650000e-01    2.570000e+00
 TP2dh SN4aq  1 3.650000e-01    2.830000e+00
 TP2dh SN5aq  1 3.650000e-01    3.100000e+00
 TP2dh SN6aq  1 3.650000e-01    3.370000e+00
 TP2dh SP1aq  1 3.650000e-01    3.370000e+00
 TP2dh SP2aq  1 3.650000e-01    3.640000e+00
 TP3aq SP2dh  1 3.650000e-01    3.640000e+00
 TP4aq SP2dh  1 3.650000e-01    3.640000e+00
 TP5aq SP2dh  1 3.650000e-01    3.640000e+00
 TP6aq SP2dh  1 3.650000e-01    3.930000e+00
 TP2dh SN1dq  1 3.650000e-01    2.110000e+00
 TP2dh SN2dq  1 3.650000e-01    2.110000e+00
 TP2dh SN3dq  1 3.650000e-01    2.110000e+00
 TP2dh SN4dq  1 3.650000e-01    2.340000e+00
 TP2dh SN5dq  1 3.650000e-01    2.570000e+00
 TP2dh SN6dq  1 3.650000e-01    2.830000e+00
 TP2dh SP1dq  1 3.650000e-01    2.830000e+00
 TP6dq SP1dh  1 3.650000e-01    3.100000e+00
 TP5dq SP1dh  1 3.650000e-01    2.830000e+00
 TP4dq SP1dh  1 3.650000e-01    2.830000e+00
 TP3dq SP1dh  1 3.650000e-01    2.830000e+00
 TP2dq SP1dh  1 3.650000e-01    2.830000e+00
 TP1dh SP1dq  1 3.650000e-01    2.830000e+00
 TP1dh SX1eq  1 3.650000e-01    1.910000e+00
 TP1dh SX2eq  1 3.650000e-01    2.110000e+00
 TP1dh SX3eq  1 3.650000e-01    2.340000e+00
 TP1dh SX4eq  1 3.650000e-01    2.340000e+00
 TP1dh SC1eq  1 3.660000e-01    1.600000e+00
 TP1dh SC2eq  1 3.650000e-01    1.750000e+00
 TP1dh SC3eq  1 3.650000e-01    1.750000e+00
 TP1dh SC4eq  1 3.650000e-01    1.910000e+00
 TP1dh SC5eq  1 3.650000e-01    2.110000e+00
 TP1dh SC6eq  1 3.650000e-01    2.340000e+00
 TP1dh SX1vq  1 3.660000e-01    1.600000e+00
 TP1dh SX2vq  1 3.650000e-01    1.750000e+00
 TP1dh SX3vq  1 3.650000e-01    1.910000e+00
 TP1dh SX4vq  1 3.650000e-01    1.910000e+00
 TP1dh SC1vq  1 3.940000e-01    1.290000e+00
 TP1dh SC2vq  1 3.780000e-01    1.450000e+00
 TP1dh SC3vq  1 3.780000e-01    1.450000e+00
 TP1dh SC4vq  1 3.660000e-01    1.600000e+00
 TP1dh SC5vq  1 3.650000e-01    1.750000e+00
 TP1dh SC6vq  1 3.650000e-01    1.910000e+00
 TP1dh SN1aq  1 3.650000e-01    2.570000e+00
 TP1dh SN2aq  1 3.650000e-01    2.570000e+00
 TP1dh SN3aq  1 3.650000e-01    2.570000e+00
 TP1dh SN4aq  1 3.650000e-01    3.100000e+00
 TP1dh SN5aq  1 3.650000e-01    3.100000e+00
 TP1dh SN6aq  1 3.650000e-01    3.370000e+00
 TP1dh SP1aq  1 3.650000e-01    3.370000e+00
 TP2aq SP1dh  1 3.650000e-01    3.370000e+00
 TP3aq SP1dh  1 3.650000e-01    3.370000e+00
 TP4aq SP1dh  1 3.650000e-01    3.370000e+00
 TP5aq SP1dh  1 3.650000e-01    3.370000e+00
 TP6aq SP1dh  1 3.650000e-01    3.640000e+00
 TP1dh SN1dq  1 3.650000e-01    2.110000e+00
 TP1dh SN2dq  1 3.650000e-01    2.110000e+00
 TP1dh SN3dq  1 3.650000e-01    2.110000e+00
 TP1dh SN4dq  1 3.650000e-01    2.570000e+00
 TP1dh SN5dq  1 3.650000e-01    2.570000e+00
 TP1dh SN6dq  1 3.650000e-01    2.830000e+00
 TP6dq SN6dh  1 3.650000e-01    2.830000e+00
 TP5dq SN6dh  1 3.650000e-01    2.570000e+00
 TP4dq SN6dh  1 3.650000e-01    2.570000e+00
 TP3dq SN6dh  1 3.650000e-01    2.570000e+00
 TP2dq SN6dh  1 3.650000e-01    2.830000e+00
 TP1dq SN6dh  1 3.650000e-01    2.830000e+00
 TN6dh SN6dq  1 3.650000e-01    2.830000e+00
 TN6dh SX1eq  1 3.650000e-01    1.910000e+00
 TN6dh SX2eq  1 3.650000e-01    2.110000e+00
 TN6dh SX3eq  1 3.650000e-01    2.340000e+00
 TN6dh SX4eq  1 3.650000e-01    2.570000e+00
 TN6dh SC1eq  1 3.650000e-01    1.750000e+00
 TN6dh SC2eq  1 3.650000e-01    1.910000e+00
 TN6dh SC3eq  1 3.650000e-01    1.910000e+00
 TN6dh SC4eq  1 3.650000e-01    2.110000e+00
 TN6dh SC5eq  1 3.650000e-01    2.340000e+00
 TN6dh SC6eq  1 3.650000e-01    2.570000e+00
 TN6dh SX1vq  1 3.660000e-01    1.600000e+00
 TN6dh SX2vq  1 3.650000e-01    1.750000e+00
 TN6dh SX3vq  1 3.650000e-01    1.910000e+00
 TN6dh SX4vq  1 3.650000e-01    2.110000e+00
 TN6dh SC1vq  1 3.780000e-01    1.450000e+00
 TN6dh SC2vq  1 3.660000e-01    1.600000e+00
 TN6dh SC3vq  1 3.660000e-01    1.600000e+00
 TN6dh SC4vq  1 3.650000e-01    1.750000e+00
 TN6dh SC5vq  1 3.650000e-01    1.910000e+00
 TN6dh SC6vq  1 3.650000e-01    2.110000e+00
 TN6dh SN1aq  1 3.650000e-01    2.570000e+00
 TN6dh SN2aq  1 3.650000e-01    2.570000e+00
 TN6dh SN3aq  1 3.650000e-01    2.830000e+00
 TN6dh SN4aq  1 3.650000e-01    3.370000e+00
 TN6dh SN5aq  1 3.650000e-01    3.370000e+00
 TN6dh SN6aq  1 3.650000e-01    3.370000e+00
 TP1aq SN6dh  1 3.650000e-01    3.370000e+00
 TP2aq SN6dh  1 3.650000e-01    3.370000e+00
 TP3aq SN6dh  1 3.650000e-01    3.100000e+00
 TP4aq SN6dh  1 3.650000e-01    3.100000e+00
 TP5aq SN6dh  1 3.650000e-01    3.100000e+00
 TP6aq SN6dh  1 3.650000e-01    3.370000e+00
 TN6dh SN1dq  1 3.650000e-01    2.110000e+00
 TN6dh SN2dq  1 3.650000e-01    2.110000e+00
 TN6dh SN3dq  1 3.650000e-01    2.340000e+00
 TN6dh SN4dq  1 3.650000e-01    2.830000e+00
 TN6dh SN5dq  1 3.650000e-01    2.830000e+00
 TP6dq SN5dh  1 3.650000e-01    2.340000e+00
 TP5dq SN5dh  1 3.650000e-01    2.340000e+00
 TP4dq SN5dh  1 3.650000e-01    2.340000e+00
 TP3dq SN5dh  1 3.650000e-01    2.340000e+00
 TP2dq SN5dh  1 3.650000e-01    2.570000e+00
 TP1dq SN5dh  1 3.650000e-01    2.570000e+00
 TN6dq SN5dh  1 3.650000e-01    2.830000e+00
 TN5dh SN5dq  1 3.650000e-01    2.570000e+00
 TN5dh SX1eq  1 3.650000e-01    2.110000e+00
 TN5dh SX2eq  1 3.650000e-01    2.340000e+00
 TN5dh SX3eq  1 3.650000e-01    2.570000e+00
 TN5dh SX4eq  1 3.650000e-01    2.830000e+00
 TN5dh SC1eq  1 3.650000e-01    1.750000e+00
 TN5dh SC2eq  1 3.650000e-01    1.910000e+00
 TN5dh SC3eq  1 3.650000e-01    2.110000e+00
 TN5dh SC4eq  1 3.650000e-01    2.110000e+00
 TN5dh SC5eq  1 3.650000e-01    2.340000e+00
 TN5dh SC6eq  1 3.650000e-01    2.570000e+00
 TN5dh SX1vq  1 3.650000e-01    1.750000e+00
 TN5dh SX2vq  1 3.650000e-01    1.910000e+00
 TN5dh SX3vq  1 3.650000e-01    2.110000e+00
 TN5dh SX4vq  1 3.650000e-01    2.340000e+00
 TN5dh SC1vq  1 3.780000e-01    1.450000e+00
 TN5dh SC2vq  1 3.660000e-01    1.600000e+00
 TN5dh SC3vq  1 3.650000e-01    1.750000e+00
 TN5dh SC4vq  1 3.650000e-01    1.750000e+00
 TN5dh SC5vq  1 3.650000e-01    1.910000e+00
 TN5dh SC6vq  1 3.650000e-01    2.110000e+00
 TN5dh SN1aq  1 3.650000e-01    2.570000e+00
 TN5dh SN2aq  1 3.650000e-01    2.830000e+00
 TN5dh SN3aq  1 3.650000e-01    2.830000e+00
 TN5dh SN4aq  1 3.650000e-01    3.100000e+00
 TN5dh SN5aq  1 3.650000e-01    3.100000e+00
 TN6aq SN5dh  1 3.650000e-01    3.370000e+00
 TP1aq SN5dh  1 3.650000e-01    3.100000e+00
 TP2aq SN5dh  1 3.650000e-01    3.100000e+00
 TP3aq SN5dh  1 3.650000e-01    2.830000e+00
 TP4aq SN5dh  1 3.650000e-01    2.830000e+00
 TP5aq SN5dh  1 3.650000e-01    2.830000e+00
 TP6aq SN5dh  1 3.650000e-01    2.830000e+00
 TN5dh SN1dq  1 3.650000e-01    2.110000e+00
 TN5dh SN2dq  1 3.650000e-01    2.340000e+00
 TN5dh SN3dq  1 3.650000e-01    2.340000e+00
 TN5dh SN4dq  1 3.650000e-01    2.570000e+00
 TP6dq SN4dh  1 3.650000e-01    2.110000e+00
 TP5dq SN4dh  1 3.650000e-01    2.340000e+00
 TP4dq SN4dh  1 3.650000e-01    2.340000e+00
 TP3dq SN4dh  1 3.650000e-01    2.340000e+00
 TP2dq SN4dh  1 3.650000e-01    2.340000e+00
 TP1dq SN4dh  1 3.650000e-01    2.570000e+00
 TN6dq SN4dh  1 3.650000e-01    2.830000e+00
 TN5dq SN4dh  1 3.650000e-01    2.570000e+00
 TN4dh SN4dq  1 3.650000e-01    2.570000e+00
 TN4dh SX1eq  1 3.650000e-01    2.110000e+00
 TN4dh SX2eq  1 3.650000e-01    2.340000e+00
 TN4dh SX3eq  1 3.650000e-01    2.830000e+00
 TN4dh SX4eq  1 3.650000e-01    3.100000e+00
 TN4dh SC1eq  1 3.650000e-01    1.750000e+00
 TN4dh SC2eq  1 3.650000e-01    1.910000e+00
 TN4dh SC3eq  1 3.650000e-01    2.110000e+00
 TN4dh SC4eq  1 3.650000e-01    2.340000e+00
 TN4dh SC5eq  1 3.650000e-01    2.340000e+00
 TN4dh SC6eq  1 3.650000e-01    2.570000e+00
 TN4dh SX1vq  1 3.650000e-01    1.750000e+00
 TN4dh SX2vq  1 3.650000e-01    1.910000e+00
 TN4dh SX3vq  1 3.650000e-01    2.340000e+00
 TN4dh SX4vq  1 3.650000e-01    2.570000e+00
 TN4dh SC1vq  1 3.780000e-01    1.450000e+00
 TN4dh SC2vq  1 3.660000e-01    1.600000e+00
 TN4dh SC3vq  1 3.650000e-01    1.750000e+00
 TN4dh SC4vq  1 3.650000e-01    1.910000e+00
 TN4dh SC5vq  1 3.650000e-01    1.910000e+00
 TN4dh SC6vq  1 3.650000e-01    2.110000e+00
 TN4dh SN1aq  1 3.650000e-01    2.570000e+00
 TN4dh SN2aq  1 3.650000e-01    2.830000e+00
 TN4dh SN3aq  1 3.650000e-01    2.830000e+00
 TN4dh SN4aq  1 3.650000e-01    3.100000e+00
 TN5aq SN4dh  1 3.650000e-01    3.100000e+00
 TN6aq SN4dh  1 3.650000e-01    3.370000e+00
 TP1aq SN4dh  1 3.650000e-01    3.100000e+00
 TP2aq SN4dh  1 3.650000e-01    2.830000e+00
 TP3aq SN4dh  1 3.650000e-01    2.830000e+00
 TP4aq SN4dh  1 3.650000e-01    2.830000e+00
 TP5aq SN4dh  1 3.650000e-01    2.830000e+00
 TP6aq SN4dh  1 3.650000e-01    2.570000e+00
 TN4dh SN1dq  1 3.650000e-01    2.110000e+00
 TN4dh SN2dq  1 3.650000e-01    2.340000e+00
 TN4dh SN3dq  1 3.650000e-01    2.340000e+00
 TP6dq SN3dh  1 3.650000e-01    2.110000e+00
 TP5dq SN3dh  1 3.650000e-01    2.110000e+00
 TP4dq SN3dh  1 3.650000e-01    2.110000e+00
 TP3dq SN3dh  1 3.650000e-01    2.110000e+00
 TP2dq SN3dh  1 3.650000e-01    2.110000e+00
 TP1dq SN3dh  1 3.650000e-01    2.110000e+00
 TN6dq SN3dh  1 3.650000e-01    2.340000e+00
 TN5dq SN3dh  1 3.650000e-01    2.340000e+00
 TN4dq SN3dh  1 3.650000e-01    2.340000e+00
 TN3dh SN3dq  1 3.650000e-01    2.340000e+00
 TN3dh SX1eq  1 3.650000e-01    2.340000e+00
 TN3dh SX2eq  1 3.650000e-01    2.340000e+00
 TN3dh SX3eq  1 3.650000e-01    2.570000e+00
 TN3dh SX4eq  1 3.650000e-01    2.830000e+00
 TN3dh SC1eq  1 3.650000e-01    1.910000e+00
 TN3dh SC2eq  1 3.650000e-01    2.110000e+00
 TN3dh SC3eq  1 3.650000e-01    2.110000e+00
 TN3dh SC4eq  1 3.650000e-01    2.340000e+00
 TN3dh SC5eq  1 3.650000e-01    2.340000e+00
 TN3dh SC6eq  1 3.650000e-01    2.570000e+00
 TN3dh SX1vq  1 3.650000e-01    1.910000e+00
 TN3dh SX2vq  1 3.650000e-01    1.910000e+00
 TN3dh SX3vq  1 3.650000e-01    2.110000e+00
 TN3dh SX4vq  1 3.650000e-01    2.340000e+00
 TN3dh SC1vq  1 3.660000e-01    1.600000e+00
 TN3dh SC2vq  1 3.650000e-01    1.750000e+00
 TN3dh SC3vq  1 3.650000e-01    1.750000e+00
 TN3dh SC4vq  1 3.650000e-01    1.910000e+00
 TN3dh SC5vq  1 3.650000e-01    1.910000e+00
 TN3dh SC6vq  1 3.650000e-01    2.110000e+00
 TN3dh SN1aq  1 3.650000e-01    2.570000e+00
 TN3dh SN2aq  1 3.650000e-01    2.830000e+00
 TN3dh SN3aq  1 3.650000e-01    2.830000e+00
 TN4aq SN3dh  1 3.650000e-01    2.830000e+00
 TN5aq SN3dh  1 3.650000e-01    2.830000e+00
 TN6aq SN3dh  1 3.650000e-01    2.830000e+00
 TP1aq SN3dh  1 3.650000e-01    2.570000e+00
 TP2aq SN3dh  1 3.650000e-01    2.570000e+00
 TP3aq SN3dh  1 3.650000e-01    2.570000e+00
 TP4aq SN3dh  1 3.650000e-01    2.570000e+00
 TP5aq SN3dh  1 3.650000e-01    2.110000e+00
 TP6aq SN3dh  1 3.650000e-01    2.110000e+00
 TN3dh SN1dq  1 3.650000e-01    2.110000e+00
 TN3dh SN2dq  1 3.650000e-01    2.340000e+00
 TP6dq SN2dh  1 3.650000e-01    1.910000e+00
 TP5dq SN2dh  1 3.650000e-01    1.910000e+00
 TP4dq SN2dh  1 3.650000e-01    2.110000e+00
 TP3dq SN2dh  1 3.650000e-01    2.110000e+00
 TP2dq SN2dh  1 3.650000e-01    2.110000e+00
 TP1dq SN2dh  1 3.650000e-01    2.110000e+00
 TN6dq SN2dh  1 3.650000e-01    2.110000e+00
 TN5dq SN2dh  1 3.650000e-01    2.340000e+00
 TN4dq SN2dh  1 3.650000e-01    2.340000e+00
 TN3dq SN2dh  1 3.650000e-01    2.340000e+00
 TN2dh SN2dq  1 3.650000e-01    2.340000e+00
 TN2dh SX1eq  1 3.650000e-01    2.340000e+00
 TN2dh SX2eq  1 3.650000e-01    2.340000e+00
 TN2dh SX3eq  1 3.650000e-01    2.570000e+00
 TN2dh SX4eq  1 3.650000e-01    2.830000e+00
 TN2dh SC1eq  1 3.650000e-01    1.910000e+00
 TN2dh SC2eq  1 3.650000e-01    2.110000e+00
 TN2dh SC3eq  1 3.650000e-01    2.340000e+00
 TN2dh SC4eq  1 3.650000e-01    2.340000e+00
 TN2dh SC5eq  1 3.650000e-01    2.340000e+00
 TN2dh SC6eq  1 3.650000e-01    2.570000e+00
 TN2dh SX1vq  1 3.650000e-01    1.910000e+00
 TN2dh SX2vq  1 3.650000e-01    1.910000e+00
 TN2dh SX3vq  1 3.650000e-01    2.110000e+00
 TN2dh SX4vq  1 3.650000e-01    2.340000e+00
 TN2dh SC1vq  1 3.660000e-01    1.600000e+00
 TN2dh SC2vq  1 3.650000e-01    1.750000e+00
 TN2dh SC3vq  1 3.650000e-01    1.910000e+00
 TN2dh SC4vq  1 3.650000e-01    1.910000e+00
 TN2dh SC5vq  1 3.650000e-01    1.910000e+00
 TN2dh SC6vq  1 3.650000e-01    2.110000e+00
 TN2dh SN1aq  1 3.650000e-01    2.570000e+00
 TN2dh SN2aq  1 3.650000e-01    2.830000e+00
 TN3aq SN2dh  1 3.650000e-01    2.830000e+00
 TN4aq SN2dh  1 3.650000e-01    2.830000e+00
 TN5aq SN2dh  1 3.650000e-01    2.830000e+00
 TN6aq SN2dh  1 3.650000e-01    2.570000e+00
 TP1aq SN2dh  1 3.650000e-01    2.570000e+00
 TP2aq SN2dh  1 3.650000e-01    2.570000e+00
 TP3aq SN2dh  1 3.650000e-01    2.570000e+00
 TP4aq SN2dh  1 3.650000e-01    2.110000e+00
 TP5aq SN2dh  1 3.650000e-01    1.910000e+00
 TP6aq SN2dh  1 3.650000e-01    1.910000e+00
 TN2dh SN1dq  1 3.650000e-01    2.110000e+00
 TP6dq SN1dh  1 3.650000e-01    1.750000e+00
 TP5dq SN1dh  1 3.650000e-01    1.750000e+00
 TP4dq SN1dh  1 3.650000e-01    1.910000e+00
 TP3dq SN1dh  1 3.650000e-01    2.110000e+00
 TP2dq SN1dh  1 3.650000e-01    2.110000e+00
 TP1dq SN1dh  1 3.650000e-01    2.110000e+00
 TN6dq SN1dh  1 3.650000e-01    2.110000e+00
 TN5dq SN1dh  1 3.650000e-01    2.110000e+00
 TN4dq SN1dh  1 3.650000e-01    2.110000e+00
 TN3dq SN1dh  1 3.650000e-01    2.110000e+00
 TN2dq SN1dh  1 3.650000e-01    2.110000e+00
 TN1dh SN1dq  1 3.650000e-01    2.340000e+00
 TN1dh SX1eq  1 3.650000e-01    2.340000e+00
 TN1dh SX2eq  1 3.650000e-01    2.340000e+00
 TN1dh SX3eq  1 3.650000e-01    2.570000e+00
 TN1dh SX4eq  1 3.650000e-01    2.570000e+00
 TN1dh SC1eq  1 3.650000e-01    1.910000e+00
 TN1dh SC2eq  1 3.650000e-01    2.110000e+00
 TN1dh SC3eq  1 3.650000e-01    2.340000e+00
 TN1dh SC4eq  1 3.650000e-01    2.570000e+00
 TN1dh SC5eq  1 3.650000e-01    2.570000e+00
 TN1dh SC6eq  1 3.650000e-01    2.830000e+00
 TN1dh SX1vq  1 3.650000e-01    1.910000e+00
 TN1dh SX2vq  1 3.650000e-01    1.910000e+00
 TN1dh SX3vq  1 3.650000e-01    2.110000e+00
 TN1dh SX4vq  1 3.650000e-01    2.110000e+00
 TN1dh SC1vq  1 3.660000e-01    1.600000e+00
 TN1dh SC2vq  1 3.650000e-01    1.750000e+00
 TN1dh SC3vq  1 3.650000e-01    1.910000e+00
 TN1dh SC4vq  1 3.650000e-01    2.110000e+00
 TN1dh SC5vq  1 3.650000e-01    2.110000e+00
 TN1dh SC6vq  1 3.650000e-01    2.340000e+00
 TN1dh SN1aq  1 3.650000e-01    2.830000e+00
 TN2aq SN1dh  1 3.650000e-01    2.570000e+00
 TN3aq SN1dh  1 3.650000e-01    2.570000e+00
 TN4aq SN1dh  1 3.650000e-01    2.570000e+00
 TN5aq SN1dh  1 3.650000e-01    2.570000e+00
 TN6aq SN1dh  1 3.650000e-01    2.570000e+00
 TP1aq SN1dh  1 3.650000e-01    2.570000e+00
 TP2aq SN1dh  1 3.650000e-01    2.570000e+00
 TP3aq SN1dh  1 3.650000e-01    2.110000e+00
 TP4aq SN1dh  1 3.650000e-01    1.910000e+00
 TP5aq SN1dh  1 3.650000e-01    1.750000e+00
 TP6aq SN1dh  1 3.650000e-01    1.750000e+00
 TP6dq SP6ah  1 3.650000e-01    4.860000e+00
 TP6ah SP5dq  1 3.650000e-01    4.510000e+00
 TP6ah SP4dq  1 3.650000e-01    4.220000e+00
 TP6ah SP3dq  1 3.650000e-01    3.930000e+00
 TP6ah SP2dq  1 3.650000e-01    3.930000e+00
 TP6ah SP1dq  1 3.650000e-01    3.640000e+00
 TP6ah SN6dq  1 3.650000e-01    3.370000e+00
 TP6ah SN5dq  1 3.650000e-01    2.830000e+00
 TP6ah SN4dq  1 3.650000e-01    2.570000e+00
 TP6ah SN3dq  1 3.650000e-01    2.110000e+00
 TP6ah SN2dq  1 3.650000e-01    1.910000e+00
 TP6ah SN1dq  1 3.650000e-01    1.750000e+00
 TP6ah SP6aq  1 3.650000e-01    4.220000e+00
 TP6ah SX1eq  1 3.780000e-01    1.450000e+00
 TP6ah SX2eq  1 3.660000e-01    1.600000e+00
 TP6ah SX3eq  1 3.650000e-01    1.750000e+00
 TP6ah SX4eq  1 3.650000e-01    1.750000e+00
 TP6ah SC1eq  1 4.230000e-01    9.810000e-01
 TP6ah SC2eq  1 4.040000e-01    1.130000e+00
 TP6ah SC3eq  1 4.040000e-01    1.130000e+00
 TP6ah SC4eq  1 3.940000e-01    1.290000e+00
 TP6ah SC5eq  1 3.780000e-01    1.450000e+00
 TP6ah SC6eq  1 3.660000e-01    1.600000e+00
 TP6ah SX1vq  1 3.650000e-01    1.750000e+00
 TP6ah SX2vq  1 3.650000e-01    1.910000e+00
 TP6ah SX3vq  1 3.650000e-01    2.110000e+00
 TP6ah SX4vq  1 3.650000e-01    2.110000e+00
 TP6ah SC1vq  1 4.040000e-01    1.130000e+00
 TP6ah SC2vq  1 3.780000e-01    1.450000e+00
 TP6ah SC3vq  1 3.780000e-01    1.450000e+00
 TP6ah SC4vq  1 3.660000e-01    1.600000e+00
 TP6ah SC5vq  1 3.650000e-01    1.750000e+00
 TP6ah SC6vq  1 3.650000e-01    1.910000e+00
 TP6ah SN1aq  1 3.650000e-01    1.750000e+00
 TP6ah SN2aq  1 3.650000e-01    1.910000e+00
 TP6ah SN3aq  1 3.650000e-01    2.110000e+00
 TP6ah SN4aq  1 3.650000e-01    2.110000e+00
 TP6ah SN5aq  1 3.650000e-01    2.340000e+00
 TP6ah SN6aq  1 3.650000e-01    2.830000e+00
 TP6ah SP1aq  1 3.650000e-01    3.100000e+00
 TP6ah SP2aq  1 3.650000e-01    3.370000e+00
 TP6ah SP3aq  1 3.650000e-01    3.370000e+00
 TP6ah SP4aq  1 3.650000e-01    3.640000e+00
 TP6ah SP5aq  1 3.650000e-01    3.930000e+00
 TP6dq SP5ah  1 3.650000e-01    4.510000e+00
 TP5dq SP5ah  1 3.650000e-01    4.220000e+00
 TP5ah SP4dq  1 3.650000e-01    3.930000e+00
 TP5ah SP3dq  1 3.650000e-01    3.640000e+00
 TP5ah SP2dq  1 3.650000e-01    3.640000e+00
 TP5ah SP1dq  1 3.650000e-01    3.370000e+00
 TP5ah SN6dq  1 3.650000e-01    3.100000e+00
 TP5ah SN5dq  1 3.650000e-01    2.830000e+00
 TP5ah SN4dq  1 3.650000e-01    2.830000e+00
 TP5ah SN3dq  1 3.650000e-01    2.110000e+00
 TP5ah SN2dq  1 3.650000e-01    1.910000e+00
 TP5ah SN1dq  1 3.650000e-01    1.750000e+00
 TP6aq SP5ah  1 3.650000e-01    3.930000e+00
 TP5ah SP5aq  1 3.650000e-01    3.640000e+00
 TP5ah SX1eq  1 3.780000e-01    1.450000e+00
 TP5ah SX2eq  1 3.650000e-01    1.750000e+00
 TP5ah SX3eq  1 3.650000e-01    1.750000e+00
 TP5ah SX4eq  1 3.650000e-01    1.910000e+00
 TP5ah SC1eq  1 4.040000e-01    1.130000e+00
 TP5ah SC2eq  1 3.940000e-01    1.290000e+00
 TP5ah SC3eq  1 3.940000e-01    1.290000e+00
 TP5ah SC4eq  1 3.780000e-01    1.450000e+00
 TP5ah SC5eq  1 3.660000e-01    1.600000e+00
 TP5ah SC6eq  1 3.660000e-01    1.600000e+00
 TP5ah SX1vq  1 3.650000e-01    1.750000e+00
 TP5ah SX2vq  1 3.650000e-01    2.110000e+00
 TP5ah SX3vq  1 3.650000e-01    2.110000e+00
 TP5ah SX4vq  1 3.650000e-01    2.340000e+00
 TP5ah SC1vq  1 3.780000e-01    1.450000e+00
 TP5ah SC2vq  1 3.660000e-01    1.600000e+00
 TP5ah SC3vq  1 3.660000e-01    1.600000e+00
 TP5ah SC4vq  1 3.650000e-01    1.750000e+00
 TP5ah SC5vq  1 3.650000e-01    1.910000e+00
 TP5ah SC6vq  1 3.650000e-01    1.910000e+00
 TP5ah SN1aq  1 3.650000e-01    1.750000e+00
 TP5ah SN2aq  1 3.650000e-01    1.910000e+00
 TP5ah SN3aq  1 3.650000e-01    2.110000e+00
 TP5ah SN4aq  1 3.650000e-01    2.340000e+00
 TP5ah SN5aq  1 3.650000e-01    2.340000e+00
 TP5ah SN6aq  1 3.650000e-01    2.570000e+00
 TP5ah SP1aq  1 3.650000e-01    2.830000e+00
 TP5ah SP2aq  1 3.650000e-01    3.100000e+00
 TP5ah SP3aq  1 3.650000e-01    3.100000e+00
 TP5ah SP4aq  1 3.650000e-01    3.370000e+00
 TP6dq SP4ah  1 3.650000e-01    4.220000e+00
 TP5dq SP4ah  1 3.650000e-01    3.930000e+00
 TP4dq SP4ah  1 3.650000e-01    3.930000e+00
 TP4ah SP3dq  1 3.650000e-01    3.640000e+00
 TP4ah SP2dq  1 3.650000e-01    3.640000e+00
 TP4ah SP1dq  1 3.650000e-01    3.370000e+00
 TP4ah SN6dq  1 3.650000e-01    3.100000e+00
 TP4ah SN5dq  1 3.650000e-01    2.830000e+00
 TP4ah SN4dq  1 3.650000e-01    2.830000e+00
 TP4ah SN3dq  1 3.650000e-01    2.570000e+00
 TP4ah SN2dq  1 3.650000e-01    2.110000e+00
 TP4ah SN1dq  1 3.650000e-01    1.910000e+00
 TP6aq SP4ah  1 3.650000e-01    3.640000e+00
 TP5aq SP4ah  1 3.650000e-01    3.370000e+00
 TP4ah SP4aq  1 3.650000e-01    3.370000e+00
 TP4ah SX1eq  1 3.660000e-01    1.600000e+00
 TP4ah SX2eq  1 3.650000e-01    1.750000e+00
 TP4ah SX3eq  1 3.650000e-01    1.750000e+00
 TP4ah SX4eq  1 3.650000e-01    1.910000e+00
 TP4ah SC1eq  1 4.040000e-01    1.130000e+00
 TP4ah SC2eq  1 3.940000e-01    1.290000e+00
 TP4ah SC3eq  1 3.940000e-01    1.290000e+00
 TP4ah SC4eq  1 3.780000e-01    1.450000e+00
 TP4ah SC5eq  1 3.660000e-01    1.600000e+00
 TP4ah SC6eq  1 3.650000e-01    1.750000e+00
 TP4ah SX1vq  1 3.650000e-01    1.910000e+00
 TP4ah SX2vq  1 3.650000e-01    2.110000e+00
 TP4ah SX3vq  1 3.650000e-01    2.110000e+00
 TP4ah SX4vq  1 3.650000e-01    2.340000e+00
 TP4ah SC1vq  1 3.780000e-01    1.450000e+00
 TP4ah SC2vq  1 3.660000e-01    1.600000e+00
 TP4ah SC3vq  1 3.660000e-01    1.600000e+00
 TP4ah SC4vq  1 3.650000e-01    1.750000e+00
 TP4ah SC5vq  1 3.650000e-01    1.910000e+00
 TP4ah SC6vq  1 3.650000e-01    2.110000e+00
 TP4ah SN1aq  1 3.650000e-01    1.910000e+00
 TP4ah SN2aq  1 3.650000e-01    2.110000e+00
 TP4ah SN3aq  1 3.650000e-01    2.110000e+00
 TP4ah SN4aq  1 3.650000e-01    2.340000e+00
 TP4ah SN5aq  1 3.650000e-01    2.340000e+00
 TP4ah SN6aq  1 3.650000e-01    2.570000e+00
 TP4ah SP1aq  1 3.650000e-01    2.830000e+00
 TP4ah SP2aq  1 3.650000e-01    3.100000e+00
 TP4ah SP3aq  1 3.650000e-01    3.100000e+00
 TP6dq SP3ah  1 3.650000e-01    3.930000e+00
 TP5dq SP3ah  1 3.650000e-01    3.640000e+00
 TP4dq SP3ah  1 3.650000e-01    3.640000e+00
 TP3dq SP3ah  1 3.650000e-01    3.640000e+00
 TP3ah SP2dq  1 3.650000e-01    3.640000e+00
 TP3ah SP1dq  1 3.650000e-01    3.370000e+00
 TP3ah SN6dq  1 3.650000e-01    3.100000e+00
 TP3ah SN5dq  1 3.650000e-01    2.830000e+00
 TP3ah SN4dq  1 3.650000e-01    2.830000e+00
 TP3ah SN3dq  1 3.650000e-01    2.570000e+00
 TP3ah SN2dq  1 3.650000e-01    2.570000e+00
 TP3ah SN1dq  1 3.650000e-01    2.110000e+00
 TP6aq SP3ah  1 3.650000e-01    3.370000e+00
 TP5aq SP3ah  1 3.650000e-01    3.100000e+00
 TP4aq SP3ah  1 3.650000e-01    3.100000e+00
 TP3ah SP3aq  1 3.650000e-01    3.100000e+00
 TP3ah SX1eq  1 3.660000e-01    1.600000e+00
 TP3ah SX2eq  1 3.650000e-01    1.750000e+00
 TP3ah SX3eq  1 3.650000e-01    1.910000e+00
 TP3ah SX4eq  1 3.650000e-01    1.910000e+00
 TP3ah SC1eq  1 4.040000e-01    1.130000e+00
 TP3ah SC2eq  1 3.940000e-01    1.290000e+00
 TP3ah SC3eq  1 3.940000e-01    1.290000e+00
 TP3ah SC4eq  1 3.660000e-01    1.600000e+00
 TP3ah SC5eq  1 3.650000e-01    1.750000e+00
 TP3ah SC6eq  1 3.650000e-01    1.910000e+00
 TP3ah SX1vq  1 3.650000e-01    1.910000e+00
 TP3ah SX2vq  1 3.650000e-01    2.110000e+00
 TP3ah SX3vq  1 3.650000e-01    2.340000e+00
 TP3ah SX4vq  1 3.650000e-01    2.340000e+00
 TP3ah SC1vq  1 3.780000e-01    1.450000e+00
 TP3ah SC2vq  1 3.660000e-01    1.600000e+00
 TP3ah SC3vq  1 3.660000e-01    1.600000e+00
 TP3ah SC4vq  1 3.650000e-01    1.910000e+00
 TP3ah SC5vq  1 3.650000e-01    2.110000e+00
 TP3ah SC6vq  1 3.650000e-01    2.340000e+00
 TP3ah SN1aq  1 3.650000e-01    2.110000e+00
 TP3ah SN2aq  1 3.650000e-01    2.110000e+00
 TP3ah SN3aq  1 3.650000e-01    2.110000e+00
 TP3ah SN4aq  1 3.650000e-01    2.340000e+00
 TP3ah SN5aq  1 3.650000e-01    2.340000e+00
 TP3ah SN6aq  1 3.650000e-01    2.570000e+00
 TP3ah SP1aq  1 3.650000e-01    2.830000e+00
 TP3ah SP2aq  1 3.650000e-01    3.100000e+00
 TP6dq SP2ah  1 3.650000e-01    3.930000e+00
 TP5dq SP2ah  1 3.650000e-01    3.640000e+00
 TP4dq SP2ah  1 3.650000e-01    3.640000e+00
 TP3dq SP2ah  1 3.650000e-01    3.640000e+00
 TP2dq SP2ah  1 3.650000e-01    3.640000e+00
 TP2ah SP1dq  1 3.650000e-01    3.370000e+00
 TP2ah SN6dq  1 3.650000e-01    3.370000e+00
 TP2ah SN5dq  1 3.650000e-01    3.100000e+00
 TP2ah SN4dq  1 3.650000e-01    2.830000e+00
 TP2ah SN3dq  1 3.650000e-01    2.570000e+00
 TP2ah SN2dq  1 3.650000e-01    2.570000e+00
 TP2ah SN1dq  1 3.650000e-01    2.570000e+00
 TP6aq SP2ah  1 3.650000e-01    3.370000e+00
 TP5aq SP2ah  1 3.650000e-01    3.100000e+00
 TP4aq SP2ah  1 3.650000e-01    3.100000e+00
 TP3aq SP2ah  1 3.650000e-01    3.100000e+00
 TP2ah SP2aq  1 3.650000e-01    3.100000e+00
 TP2ah SX1eq  1 3.660000e-01    1.600000e+00
 TP2ah SX2eq  1 3.650000e-01    1.750000e+00
 TP2ah SX3eq  1 3.650000e-01    1.910000e+00
 TP2ah SX4eq  1 3.650000e-01    1.910000e+00
 TP2ah SC1eq  1 3.940000e-01    1.290000e+00
 TP2ah SC2eq  1 3.780000e-01    1.450000e+00
 TP2ah SC3eq  1 3.780000e-01    1.450000e+00
 TP2ah SC4eq  1 3.660000e-01    1.600000e+00
 TP2ah SC5eq  1 3.650000e-01    1.750000e+00
 TP2ah SC6eq  1 3.650000e-01    1.910000e+00
 TP2ah SX1vq  1 3.650000e-01    1.910000e+00
 TP2ah SX2vq  1 3.650000e-01    2.110000e+00
 TP2ah SX3vq  1 3.650000e-01    2.340000e+00
 TP2ah SX4vq  1 3.650000e-01    2.340000e+00
 TP2ah SC1vq  1 3.660000e-01    1.600000e+00
 TP2ah SC2vq  1 3.650000e-01    1.750000e+00
 TP2ah SC3vq  1 3.650000e-01    1.750000e+00
 TP2ah SC4vq  1 3.650000e-01    1.910000e+00
 TP2ah SC5vq  1 3.650000e-01    2.110000e+00
 TP2ah SC6vq  1 3.650000e-01    2.340000e+00
 TP2ah SN1aq  1 3.650000e-01    2.110000e+00
 TP2ah SN2aq  1 3.650000e-01    2.110000e+00
 TP2ah SN3aq  1 3.650000e-01    2.110000e+00
 TP2ah SN4aq  1 3.650000e-01    2.340000e+00
 TP2ah SN5aq  1 3.650000e-01    2.570000e+00
 TP2ah SN6aq  1 3.650000e-01    2.830000e+00
 TP2ah SP1aq  1 3.650000e-01    2.830000e+00
 TP6dq SP1ah  1 3.650000e-01    3.640000e+00
 TP5dq SP1ah  1 3.650000e-01    3.370000e+00
 TP4dq SP1ah  1 3.650000e-01    3.370000e+00
 TP3dq SP1ah  1 3.650000e-01    3.370000e+00
 TP2dq SP1ah  1 3.650000e-01    3.370000e+00
 TP1dq SP1ah  1 3.650000e-01    3.370000e+00
 TP1ah SN6dq  1 3.650000e-01    3.370000e+00
 TP1ah SN5dq  1 3.650000e-01    3.100000e+00
 TP1ah SN4dq  1 3.650000e-01    3.100000e+00
 TP1ah SN3dq  1 3.650000e-01    2.570000e+00
 TP1ah SN2dq  1 3.650000e-01    2.570000e+00
 TP1ah SN1dq  1 3.650000e-01    2.570000e+00
 TP6aq SP1ah  1 3.650000e-01    3.100000e+00
 TP5aq SP1ah  1 3.650000e-01    2.830000e+00
 TP4aq SP1ah  1 3.650000e-01    2.830000e+00
 TP3aq SP1ah  1 3.650000e-01    2.830000e+00
 TP2aq SP1ah  1 3.650000e-01    2.830000e+00
 TP1ah SP1aq  1 3.650000e-01    2.830000e+00
 TP1ah SX1eq  1 3.660000e-01    1.600000e+00
 TP1ah SX2eq  1 3.650000e-01    1.750000e+00
 TP1ah SX3eq  1 3.650000e-01    1.910000e+00
 TP1ah SX4eq  1 3.650000e-01    1.910000e+00
 TP1ah SC1eq  1 3.940000e-01    1.290000e+00
 TP1ah SC2eq  1 3.780000e-01    1.450000e+00
 TP1ah SC3eq  1 3.780000e-01    1.450000e+00
 TP1ah SC4eq  1 3.660000e-01    1.600000e+00
 TP1ah SC5eq  1 3.650000e-01    1.750000e+00
 TP1ah SC6eq  1 3.650000e-01    1.910000e+00
 TP1ah SX1vq  1 3.650000e-01    1.910000e+00
 TP1ah SX2vq  1 3.650000e-01    2.110000e+00
 TP1ah SX3vq  1 3.650000e-01    2.340000e+00
 TP1ah SX4vq  1 3.650000e-01    2.340000e+00
 TP1ah SC1vq  1 3.660000e-01    1.600000e+00
 TP1ah SC2vq  1 3.650000e-01    1.750000e+00
 TP1ah SC3vq  1 3.650000e-01    1.750000e+00
 TP1ah SC4vq  1 3.650000e-01    1.910000e+00
 TP1ah SC5vq  1 3.650000e-01    2.110000e+00
 TP1ah SC6vq  1 3.650000e-01    2.340000e+00
 TP1ah SN1aq  1 3.650000e-01    2.110000e+00
 TP1ah SN2aq  1 3.650000e-01    2.110000e+00
 TP1ah SN3aq  1 3.650000e-01    2.110000e+00
 TP1ah SN4aq  1 3.650000e-01    2.570000e+00
 TP1ah SN5aq  1 3.650000e-01    2.570000e+00
 TP1ah SN6aq  1 3.650000e-01    2.830000e+00
 TP6dq SN6ah  1 3.650000e-01    3.370000e+00
 TP5dq SN6ah  1 3.650000e-01    3.100000e+00
 TP4dq SN6ah  1 3.650000e-01    3.100000e+00
 TP3dq SN6ah  1 3.650000e-01    3.100000e+00
 TP2dq SN6ah  1 3.650000e-01    3.370000e+00
 TP1dq SN6ah  1 3.650000e-01    3.370000e+00
 TN6dq SN6ah  1 3.650000e-01    3.370000e+00
 TN6ah SN5dq  1 3.650000e-01    3.370000e+00
 TN6ah SN4dq  1 3.650000e-01    3.370000e+00
 TN6ah SN3dq  1 3.650000e-01    2.830000e+00
 TN6ah SN2dq  1 3.650000e-01    2.570000e+00
 TN6ah SN1dq  1 3.650000e-01    2.570000e+00
 TP6aq SN6ah  1 3.650000e-01    2.830000e+00
 TP5aq SN6ah  1 3.650000e-01    2.570000e+00
 TP4aq SN6ah  1 3.650000e-01    2.570000e+00
 TP3aq SN6ah  1 3.650000e-01    2.570000e+00
 TP2aq SN6ah  1 3.650000e-01    2.830000e+00
 TP1aq SN6ah  1 3.650000e-01    2.830000e+00
 TN6ah SN6aq  1 3.650000e-01    2.830000e+00
 TN6ah SX1eq  1 3.660000e-01    1.600000e+00
 TN6ah SX2eq  1 3.650000e-01    1.750000e+00
 TN6ah SX3eq  1 3.650000e-01    1.910000e+00
 TN6ah SX4eq  1 3.650000e-01    2.110000e+00
 TN6ah SC1eq  1 3.780000e-01    1.450000e+00
 TN6ah SC2eq  1 3.660000e-01    1.600000e+00
 TN6ah SC3eq  1 3.660000e-01    1.600000e+00
 TN6ah SC4eq  1 3.650000e-01    1.750000e+00
 TN6ah SC5eq  1 3.650000e-01    1.910000e+00
 TN6ah SC6eq  1 3.650000e-01    2.110000e+00
 TN6ah SX1vq  1 3.650000e-01    1.910000e+00
 TN6ah SX2vq  1 3.650000e-01    2.110000e+00
 TN6ah SX3vq  1 3.650000e-01    2.340000e+00
 TN6ah SX4vq  1 3.650000e-01    2.570000e+00
 TN6ah SC1vq  1 3.650000e-01    1.750000e+00
 TN6ah SC2vq  1 3.650000e-01    1.910000e+00
 TN6ah SC3vq  1 3.650000e-01    1.910000e+00
 TN6ah SC4vq  1 3.650000e-01    2.110000e+00
 TN6ah SC5vq  1 3.650000e-01    2.340000e+00
 TN6ah SC6vq  1 3.650000e-01    2.570000e+00
 TN6ah SN1aq  1 3.650000e-01    2.110000e+00
 TN6ah SN2aq  1 3.650000e-01    2.110000e+00
 TN6ah SN3aq  1 3.650000e-01    2.340000e+00
 TN6ah SN4aq  1 3.650000e-01    2.830000e+00
 TN6ah SN5aq  1 3.650000e-01    2.830000e+00
 TP6dq SN5ah  1 3.650000e-01    2.830000e+00
 TP5dq SN5ah  1 3.650000e-01    2.830000e+00
 TP4dq SN5ah  1 3.650000e-01    2.830000e+00
 TP3dq SN5ah  1 3.650000e-01    2.830000e+00
 TP2dq SN5ah  1 3.650000e-01    3.100000e+00
 TP1dq SN5ah  1 3.650000e-01    3.100000e+00
 TN6dq SN5ah  1 3.650000e-01    3.370000e+00
 TN5dq SN5ah  1 3.650000e-01    3.100000e+00
 TN5ah SN4dq  1 3.650000e-01    3.100000e+00
 TN5ah SN3dq  1 3.650000e-01    2.830000e+00
 TN5ah SN2dq  1 3.650000e-01    2.830000e+00
 TN5ah SN1dq  1 3.650000e-01    2.570000e+00
 TP6aq SN5ah  1 3.650000e-01    2.340000e+00
 TP5aq SN5ah  1 3.650000e-01    2.340000e+00
 TP4aq SN5ah  1 3.650000e-01    2.340000e+00
 TP3aq SN5ah  1 3.650000e-01    2.340000e+00
 TP2aq SN5ah  1 3.650000e-01    2.570000e+00
 TP1aq SN5ah  1 3.650000e-01    2.570000e+00
 TN6aq SN5ah  1 3.650000e-01    2.830000e+00
 TN5ah SN5aq  1 3.650000e-01    2.570000e+00
 TN5ah SX1eq  1 3.650000e-01    1.750000e+00
 TN5ah SX2eq  1 3.650000e-01    1.910000e+00
 TN5ah SX3eq  1 3.650000e-01    2.110000e+00
 TN5ah SX4eq  1 3.650000e-01    2.340000e+00
 TN5ah SC1eq  1 3.780000e-01    1.450000e+00
 TN5ah SC2eq  1 3.660000e-01    1.600000e+00
 TN5ah SC3eq  1 3.650000e-01    1.750000e+00
 TN5ah SC4eq  1 3.650000e-01    1.750000e+00
 TN5ah SC5eq  1 3.650000e-01    1.910000e+00
 TN5ah SC6eq  1 3.650000e-01    2.110000e+00
 TN5ah SX1vq  1 3.650000e-01    2.110000e+00
 TN5ah SX2vq  1 3.650000e-01    2.340000e+00
 TN5ah SX3vq  1 3.650000e-01    2.570000e+00
 TN5ah SX4vq  1 3.650000e-01    2.830000e+00
 TN5ah SC1vq  1 3.650000e-01    1.750000e+00
 TN5ah SC2vq  1 3.650000e-01    1.910000e+00
 TN5ah SC3vq  1 3.650000e-01    2.110000e+00
 TN5ah SC4vq  1 3.650000e-01    2.110000e+00
 TN5ah SC5vq  1 3.650000e-01    2.340000e+00
 TN5ah SC6vq  1 3.650000e-01    2.570000e+00
 TN5ah SN1aq  1 3.650000e-01    2.110000e+00
 TN5ah SN2aq  1 3.650000e-01    2.340000e+00
 TN5ah SN3aq  1 3.650000e-01    2.340000e+00
 TN5ah SN4aq  1 3.650000e-01    2.570000e+00
 TP6dq SN4ah  1 3.650000e-01    2.570000e+00
 TP5dq SN4ah  1 3.650000e-01    2.830000e+00
 TP4dq SN4ah  1 3.650000e-01    2.830000e+00
 TP3dq SN4ah  1 3.650000e-01    2.830000e+00
 TP2dq SN4ah  1 3.650000e-01    2.830000e+00
 TP1dq SN4ah  1 3.650000e-01    3.100000e+00
 TN6dq SN4ah  1 3.650000e-01    3.370000e+00
 TN5dq SN4ah  1 3.650000e-01    3.100000e+00
 TN4dq SN4ah  1 3.650000e-01    3.100000e+00
 TN4ah SN3dq  1 3.650000e-01    2.830000e+00
 TN4ah SN2dq  1 3.650000e-01    2.830000e+00
 TN4ah SN1dq  1 3.650000e-01    2.570000e+00
 TP6aq SN4ah  1 3.650000e-01    2.110000e+00
 TP5aq SN4ah  1 3.650000e-01    2.340000e+00
 TP4aq SN4ah  1 3.650000e-01    2.340000e+00
 TP3aq SN4ah  1 3.650000e-01    2.340000e+00
 TP2aq SN4ah  1 3.650000e-01    2.340000e+00
 TP1aq SN4ah  1 3.650000e-01    2.570000e+00
 TN6aq SN4ah  1 3.650000e-01    2.830000e+00
 TN5aq SN4ah  1 3.650000e-01    2.570000e+00
 TN4ah SN4aq  1 3.650000e-01    2.570000e+00
 TN4ah SX1eq  1 3.650000e-01    1.750000e+00
 TN4ah SX2eq  1 3.650000e-01    1.910000e+00
 TN4ah SX3eq  1 3.650000e-01    2.340000e+00
 TN4ah SX4eq  1 3.650000e-01    2.570000e+00
 TN4ah SC1eq  1 3.780000e-01    1.450000e+00
 TN4ah SC2eq  1 3.660000e-01    1.600000e+00
 TN4ah SC3eq  1 3.650000e-01    1.750000e+00
 TN4ah SC4eq  1 3.650000e-01    1.910000e+00
 TN4ah SC5eq  1 3.650000e-01    1.910000e+00
 TN4ah SC6eq  1 3.650000e-01    2.110000e+00
 TN4ah SX1vq  1 3.650000e-01    2.110000e+00
 TN4ah SX2vq  1 3.650000e-01    2.340000e+00
 TN4ah SX3vq  1 3.650000e-01    2.830000e+00
 TN4ah SX4vq  1 3.650000e-01    3.100000e+00
 TN4ah SC1vq  1 3.650000e-01    1.750000e+00
 TN4ah SC2vq  1 3.650000e-01    1.910000e+00
 TN4ah SC3vq  1 3.650000e-01    2.110000e+00
 TN4ah SC4vq  1 3.650000e-01    2.340000e+00
 TN4ah SC5vq  1 3.650000e-01    2.340000e+00
 TN4ah SC6vq  1 3.650000e-01    2.570000e+00
 TN4ah SN1aq  1 3.650000e-01    2.110000e+00
 TN4ah SN2aq  1 3.650000e-01    2.340000e+00
 TN4ah SN3aq  1 3.650000e-01    2.340000e+00
 TP6dq SN3ah  1 3.650000e-01    2.110000e+00
 TP5dq SN3ah  1 3.650000e-01    2.110000e+00
 TP4dq SN3ah  1 3.650000e-01    2.570000e+00
 TP3dq SN3ah  1 3.650000e-01    2.570000e+00
 TP2dq SN3ah  1 3.650000e-01    2.570000e+00
 TP1dq SN3ah  1 3.650000e-01    2.570000e+00
 TN6dq SN3ah  1 3.650000e-01    2.830000e+00
 TN5dq SN3ah  1 3.650000e-01    2.830000e+00
 TN4dq SN3ah  1 3.650000e-01    2.830000e+00
 TN3dq SN3ah  1 3.650000e-01    2.830000e+00
 TN3ah SN2dq  1 3.650000e-01    2.830000e+00
 TN3ah SN1dq  1 3.650000e-01    2.570000e+00
 TP6aq SN3ah  1 3.650000e-01    2.110000e+00
 TP5aq SN3ah  1 3.650000e-01    2.110000e+00
 TP4aq SN3ah  1 3.650000e-01    2.110000e+00
 TP3aq SN3ah  1 3.650000e-01    2.110000e+00
 TP2aq SN3ah  1 3.650000e-01    2.110000e+00
 TP1aq SN3ah  1 3.650000e-01    2.110000e+00
 TN6aq SN3ah  1 3.650000e-01    2.340000e+00
 TN5aq SN3ah  1 3.650000e-01    2.340000e+00
 TN4aq SN3ah  1 3.650000e-01    2.340000e+00
 TN3ah SN3aq  1 3.650000e-01    2.340000e+00
 TN3ah SX1eq  1 3.650000e-01    1.910000e+00
 TN3ah SX2eq  1 3.650000e-01    1.910000e+00
 TN3ah SX3eq  1 3.650000e-01    2.110000e+00
 TN3ah SX4eq  1 3.650000e-01    2.340000e+00
 TN3ah SC1eq  1 3.660000e-01    1.600000e+00
 TN3ah SC2eq  1 3.650000e-01    1.750000e+00
 TN3ah SC3eq  1 3.650000e-01    1.750000e+00
 TN3ah SC4eq  1 3.650000e-01    1.910000e+00
 TN3ah SC5eq  1 3.650000e-01    1.910000e+00
 TN3ah SC6eq  1 3.650000e-01    2.110000e+00
 TN3ah SX1vq  1 3.650000e-01    2.340000e+00
 TN3ah SX2vq  1 3.650000e-01    2.340000e+00
 TN3ah SX3vq  1 3.650000e-01    2.570000e+00
 TN3ah SX4vq  1 3.650000e-01    2.830000e+00
 TN3ah SC1vq  1 3.650000e-01    1.910000e+00
 TN3ah SC2vq  1 3.650000e-01    2.110000e+00
 TN3ah SC3vq  1 3.650000e-01    2.110000e+00
 TN3ah SC4vq  1 3.650000e-01    2.340000e+00
 TN3ah SC5vq  1 3.650000e-01    2.340000e+00
 TN3ah SC6vq  1 3.650000e-01    2.570000e+00
 TN3ah SN1aq  1 3.650000e-01    2.110000e+00
 TN3ah SN2aq  1 3.650000e-01    2.340000e+00
 TP6dq SN2ah  1 3.650000e-01    1.910000e+00
 TP5dq SN2ah  1 3.650000e-01    1.910000e+00
 TP4dq SN2ah  1 3.650000e-01    2.110000e+00
 TP3dq SN2ah  1 3.650000e-01    2.570000e+00
 TP2dq SN2ah  1 3.650000e-01    2.570000e+00
 TP1dq SN2ah  1 3.650000e-01    2.570000e+00
 TN6dq SN2ah  1 3.650000e-01    2.570000e+00
 TN5dq SN2ah  1 3.650000e-01    2.830000e+00
 TN4dq SN2ah  1 3.650000e-01    2.830000e+00
 TN3dq SN2ah  1 3.650000e-01    2.830000e+00
 TN2dq SN2ah  1 3.650000e-01    2.830000e+00
 TN2ah SN1dq  1 3.650000e-01    2.570000e+00
 TP6aq SN2ah  1 3.650000e-01    1.910000e+00
 TP5aq SN2ah  1 3.650000e-01    1.910000e+00
 TP4aq SN2ah  1 3.650000e-01    2.110000e+00
 TP3aq SN2ah  1 3.650000e-01    2.110000e+00
 TP2aq SN2ah  1 3.650000e-01    2.110000e+00
 TP1aq SN2ah  1 3.650000e-01    2.110000e+00
 TN6aq SN2ah  1 3.650000e-01    2.110000e+00
 TN5aq SN2ah  1 3.650000e-01    2.340000e+00
 TN4aq SN2ah  1 3.650000e-01    2.340000e+00
 TN3aq SN2ah  1 3.650000e-01    2.340000e+00
 TN2ah SN2aq  1 3.650000e-01    2.340000e+00
 TN2ah SX1eq  1 3.650000e-01    1.910000e+00
 TN2ah SX2eq  1 3.650000e-01    1.910000e+00
 TN2ah SX3eq  1 3.650000e-01    2.110000e+00
 TN2ah SX4eq  1 3.650000e-01    2.340000e+00
 TN2ah SC1eq  1 3.660000e-01    1.600000e+00
 TN2ah SC2eq  1 3.650000e-01    1.750000e+00
 TN2ah SC3eq  1 3.650000e-01    1.910000e+00
 TN2ah SC4eq  1 3.650000e-01    1.910000e+00
 TN2ah SC5eq  1 3.650000e-01    1.910000e+00
 TN2ah SC6eq  1 3.650000e-01    2.110000e+00
 TN2ah SX1vq  1 3.650000e-01    2.340000e+00
 TN2ah SX2vq  1 3.650000e-01    2.340000e+00
 TN2ah SX3vq  1 3.650000e-01    2.570000e+00
 TN2ah SX4vq  1 3.650000e-01    2.830000e+00
 TN2ah SC1vq  1 3.650000e-01    1.910000e+00
 TN2ah SC2vq  1 3.650000e-01    2.110000e+00
 TN2ah SC3vq  1 3.650000e-01    2.340000e+00
 TN2ah SC4vq  1 3.650000e-01    2.340000e+00
 TN2ah SC5vq  1 3.650000e-01    2.340000e+00
 TN2ah SC6vq  1 3.650000e-01    2.570000e+00
 TN2ah SN1aq  1 3.650000e-01    2.110000e+00
 TP6dq SN1ah  1 3.650000e-01    1.750000e+00
 TP5dq SN1ah  1 3.650000e-01    1.750000e+00
 TP4dq SN1ah  1 3.650000e-01    1.910000e+00
 TP3dq SN1ah  1 3.650000e-01    2.110000e+00
 TP2dq SN1ah  1 3.650000e-01    2.570000e+00
 TP1dq SN1ah  1 3.650000e-01    2.570000e+00
 TN6dq SN1ah  1 3.650000e-01    2.570000e+00
 TN5dq SN1ah  1 3.650000e-01    2.570000e+00
 TN4dq SN1ah  1 3.650000e-01    2.570000e+00
 TN3dq SN1ah  1 3.650000e-01    2.570000e+00
 TN2dq SN1ah  1 3.650000e-01    2.570000e+00
 TN1dq SN1ah  1 3.650000e-01    2.830000e+00
 TP6aq SN1ah  1 3.650000e-01    1.750000e+00
 TP5aq SN1ah  1 3.650000e-01    1.750000e+00
 TP4aq SN1ah  1 3.650000e-01    1.910000e+00
 TP3aq SN1ah  1 3.650000e-01    2.110000e+00
 TP2aq SN1ah  1 3.650000e-01    2.110000e+00
 TP1aq SN1ah  1 3.650000e-01    2.110000e+00
 TN6aq SN1ah  1 3.650000e-01    2.110000e+00
 TN5aq SN1ah  1 3.650000e-01    2.110000e+00
 TN4aq SN1ah  1 3.650000e-01    2.110000e+00
 TN3aq SN1ah  1 3.650000e-01    2.110000e+00
 TN2aq SN1ah  1 3.650000e-01    2.110000e+00
 TN1ah SN1aq  1 3.650000e-01    2.340000e+00
 TN1ah SX1eq  1 3.650000e-01    1.910000e+00
 TN1ah SX2eq  1 3.650000e-01    1.910000e+00
 TN1ah SX3eq  1 3.650000e-01    2.110000e+00
 TN1ah SX4eq  1 3.650000e-01    2.110000e+00
 TN1ah SC1eq  1 3.660000e-01    1.600000e+00
 TN1ah SC2eq  1 3.650000e-01    1.750000e+00
 TN1ah SC3eq  1 3.650000e-01    1.910000e+00
 TN1ah SC4eq  1 3.650000e-01    2.110000e+00
 TN1ah SC5eq  1 3.650000e-01    2.110000e+00
 TN1ah SC6eq  1 3.650000e-01    2.340000e+00
 TN1ah SX1vq  1 3.650000e-01    2.340000e+00
 TN1ah SX2vq  1 3.650000e-01    2.340000e+00
 TN1ah SX3vq  1 3.650000e-01    2.570000e+00
 TN1ah SX4vq  1 3.650000e-01    2.570000e+00
 TN1ah SC1vq  1 3.650000e-01    1.910000e+00
 TN1ah SC2vq  1 3.650000e-01    2.110000e+00
 TN1ah SC3vq  1 3.650000e-01    2.340000e+00
 TN1ah SC4vq  1 3.650000e-01    2.570000e+00
 TN1ah SC5vq  1 3.650000e-01    2.570000e+00
 TN1ah SC6vq  1 3.650000e-01    2.830000e+00
 TP6dq SC6vh  1 3.660000e-01    1.600000e+00
 TP5dq SC6vh  1 3.660000e-01    1.600000e+00
 TP4dq SC6vh  1 3.650000e-01    1.750000e+00
 TP3dq SC6vh  1 3.650000e-01    1.910000e+00
 TP2dq SC6vh  1 3.650000e-01    1.910000e+00
 TP1dq SC6vh  1 3.650000e-01    1.910000e+00
 TN6dq SC6vh  1 3.650000e-01    2.110000e+00
 TN5dq SC6vh  1 3.650000e-01    2.110000e+00
 TN4dq SC6vh  1 3.650000e-01    2.110000e+00
 TN3dq SC6vh  1 3.650000e-01    2.110000e+00
 TN2dq SC6vh  1 3.650000e-01    2.110000e+00
 TN1dq SC6vh  1 3.650000e-01    2.340000e+00
 TP6aq SC6vh  1 3.650000e-01    1.910000e+00
 TP5aq SC6vh  1 3.650000e-01    1.910000e+00
 TP4aq SC6vh  1 3.650000e-01    2.110000e+00
 TP3aq SC6vh  1 3.650000e-01    2.340000e+00
 TP2aq SC6vh  1 3.650000e-01    2.340000e+00
 TP1aq SC6vh  1 3.650000e-01    2.340000e+00
 TN6aq SC6vh  1 3.650000e-01    2.570000e+00
 TN5aq SC6vh  1 3.650000e-01    2.570000e+00
 TN4aq SC6vh  1 3.650000e-01    2.570000e+00
 TN3aq SC6vh  1 3.650000e-01    2.570000e+00
 TN2aq SC6vh  1 3.650000e-01    2.570000e+00
 TN1aq SC6vh  1 3.650000e-01    2.830000e+00
 TC6vh SC6vq  1 3.650000e-01    2.340000e+00
 TC6vh SX1eq  1 3.650000e-01    2.830000e+00
 TC6vh SX2eq  1 3.650000e-01    2.830000e+00
 TC6vh SX3eq  1 3.650000e-01    2.830000e+00
 TC6vh SX4eq  1 3.650000e-01    2.830000e+00
 TC6vh SC1eq  1 3.650000e-01    2.110000e+00
 TC6vh SC2eq  1 3.650000e-01    2.340000e+00
 TC6vh SC3eq  1 3.650000e-01    2.570000e+00
 TC6vh SC4eq  1 3.650000e-01    2.830000e+00
 TC6vh SC5eq  1 3.650000e-01    2.830000e+00
 TC6vh SC6eq  1 3.650000e-01    3.100000e+00
 TC6vh SX1vq  1 3.650000e-01    2.110000e+00
 TC6vh SX2vq  1 3.650000e-01    2.110000e+00
 TC6vh SX3vq  1 3.650000e-01    2.110000e+00
 TC6vh SX4vq  1 3.650000e-01    2.110000e+00
 TC6vh SC1vq  1 3.660000e-01    1.600000e+00
 TC6vh SC2vq  1 3.650000e-01    1.750000e+00
 TC6vh SC3vq  1 3.650000e-01    1.910000e+00
 TC6vh SC4vq  1 3.650000e-01    2.110000e+00
 TC6vh SC5vq  1 3.650000e-01    2.110000e+00
 TP6dq SC5vh  1 3.780000e-01    1.450000e+00
 TP5dq SC5vh  1 3.660000e-01    1.600000e+00
 TP4dq SC5vh  1 3.660000e-01    1.600000e+00
 TP3dq SC5vh  1 3.650000e-01    1.750000e+00
 TP2dq SC5vh  1 3.650000e-01    1.750000e+00
 TP1dq SC5vh  1 3.650000e-01    1.750000e+00
 TN6dq SC5vh  1 3.650000e-01    1.910000e+00
 TN5dq SC5vh  1 3.650000e-01    1.910000e+00
 TN4dq SC5vh  1 3.650000e-01    1.910000e+00
 TN3dq SC5vh  1 3.650000e-01    1.910000e+00
 TN2dq SC5vh  1 3.650000e-01    1.910000e+00
 TN1dq SC5vh  1 3.650000e-01    2.110000e+00
 TP6aq SC5vh  1 3.650000e-01    1.750000e+00
 TP5aq SC5vh  1 3.650000e-01    1.910000e+00
 TP4aq SC5vh  1 3.650000e-01    1.910000e+00
 TP3aq SC5vh  1 3.650000e-01    2.110000e+00
 TP2aq SC5vh  1 3.650000e-01    2.110000e+00
 TP1aq SC5vh  1 3.650000e-01    2.110000e+00
 TN6aq SC5vh  1 3.650000e-01    2.340000e+00
 TN5aq SC5vh  1 3.650000e-01    2.340000e+00
 TN4aq SC5vh  1 3.650000e-01    2.340000e+00
 TN3aq SC5vh  1 3.650000e-01    2.340000e+00
 TN2aq SC5vh  1 3.650000e-01    2.340000e+00
 TN1aq SC5vh  1 3.650000e-01    2.570000e+00
 TC6vq SC5vh  1 3.650000e-01    2.110000e+00
 TC5vh SC5vq  1 3.650000e-01    2.110000e+00
 TC5vh SX1eq  1 3.650000e-01    2.830000e+00
 TC5vh SX2eq  1 3.650000e-01    2.570000e+00
 TC5vh SX3eq  1 3.650000e-01    2.570000e+00
 TC5vh SX4eq  1 3.650000e-01    2.570000e+00
 TC5vh SC1eq  1 3.650000e-01    2.340000e+00
 TC5vh SC2eq  1 3.650000e-01    2.340000e+00
 TC5vh SC3eq  1 3.650000e-01    2.570000e+00
 TC5vh SC4eq  1 3.650000e-01    2.830000e+00
 TC5vh SC5eq  1 3.650000e-01    2.830000e+00
 TC6eq SC5vh  1 3.650000e-01    2.830000e+00
 TC5vh SX1vq  1 3.650000e-01    2.110000e+00
 TC5vh SX2vq  1 3.650000e-01    1.910000e+00
 TC5vh SX3vq  1 3.650000e-01    1.910000e+00
 TC5vh SX4vq  1 3.650000e-01    1.910000e+00
 TC5vh SC1vq  1 3.650000e-01    1.750000e+00
 TC5vh SC2vq  1 3.650000e-01    1.750000e+00
 TC5vh SC3vq  1 3.650000e-01    1.910000e+00
 TC5vh SC4vq  1 3.650000e-01    2.110000e+00
 TP6dq SC4vh  1 3.940000e-01    1.290000e+00
 TP5dq SC4vh  1 3.780000e-01    1.450000e+00
 TP4dq SC4vh  1 3.780000e-01    1.450000e+00
 TP3dq SC4vh  1 3.660000e-01    1.600000e+00
 TP2dq SC4vh  1 3.660000e-01    1.600000e+00
 TP1dq SC4vh  1 3.660000e-01    1.600000e+00
 TN6dq SC4vh  1 3.650000e-01    1.750000e+00
 TN5dq SC4vh  1 3.650000e-01    1.750000e+00
 TN4dq SC4vh  1 3.650000e-01    1.910000e+00
 TN3dq SC4vh  1 3.650000e-01    1.910000e+00
 TN2dq SC4vh  1 3.650000e-01    1.910000e+00
 TN1dq SC4vh  1 3.650000e-01    2.110000e+00
 TP6aq SC4vh  1 3.660000e-01    1.600000e+00
 TP5aq SC4vh  1 3.650000e-01    1.750000e+00
 TP4aq SC4vh  1 3.650000e-01    1.750000e+00
 TP3aq SC4vh  1 3.650000e-01    1.910000e+00
 TP2aq SC4vh  1 3.650000e-01    1.910000e+00
 TP1aq SC4vh  1 3.650000e-01    1.910000e+00
 TN6aq SC4vh  1 3.650000e-01    2.110000e+00
 TN5aq SC4vh  1 3.650000e-01    2.110000e+00
 TN4aq SC4vh  1 3.650000e-01    2.340000e+00
 TN3aq SC4vh  1 3.650000e-01    2.340000e+00
 TN2aq SC4vh  1 3.650000e-01    2.340000e+00
 TN1aq SC4vh  1 3.650000e-01    2.570000e+00
 TC6vq SC4vh  1 3.650000e-01    2.110000e+00
 TC5vq SC4vh  1 3.650000e-01    2.110000e+00
 TC4vh SC4vq  1 3.650000e-01    2.110000e+00
 TC4vh SX1eq  1 3.650000e-01    2.830000e+00
 TC4vh SX2eq  1 3.650000e-01    2.570000e+00
 TC4vh SX3eq  1 3.650000e-01    2.570000e+00
 TC4vh SX4eq  1 3.650000e-01    2.570000e+00
 TC4vh SC1eq  1 3.650000e-01    2.340000e+00
 TC4vh SC2eq  1 3.650000e-01    2.570000e+00
 TC4vh SC3eq  1 3.650000e-01    2.830000e+00
 TC4vh SC4eq  1 3.650000e-01    2.830000e+00
 TC5eq SC4vh  1 3.650000e-01    2.830000e+00
 TC6eq SC4vh  1 3.650000e-01    2.830000e+00
 TC4vh SX1vq  1 3.650000e-01    2.110000e+00
 TC4vh SX2vq  1 3.650000e-01    1.910000e+00
 TC4vh SX3vq  1 3.650000e-01    1.910000e+00
 TC4vh SX4vq  1 3.650000e-01    1.910000e+00
 TC4vh SC1vq  1 3.650000e-01    1.750000e+00
 TC4vh SC2vq  1 3.650000e-01    1.910000e+00
 TC4vh SC3vq  1 3.650000e-01    2.110000e+00
 TP6dq SC3vh  1 4.040000e-01    1.130000e+00
 TP5dq SC3vh  1 3.940000e-01    1.290000e+00
 TP4dq SC3vh  1 3.940000e-01    1.290000e+00
 TP3dq SC3vh  1 3.940000e-01    1.290000e+00
 TP2dq SC3vh  1 3.780000e-01    1.450000e+00
 TP1dq SC3vh  1 3.780000e-01    1.450000e+00
 TN6dq SC3vh  1 3.660000e-01    1.600000e+00
 TN5dq SC3vh  1 3.650000e-01    1.750000e+00
 TN4dq SC3vh  1 3.650000e-01    1.750000e+00
 TN3dq SC3vh  1 3.650000e-01    1.750000e+00
 TN2dq SC3vh  1 3.650000e-01    1.910000e+00
 TN1dq SC3vh  1 3.650000e-01    1.910000e+00
 TP6aq SC3vh  1 3.780000e-01    1.450000e+00
 TP5aq SC3vh  1 3.660000e-01    1.600000e+00
 TP4aq SC3vh  1 3.660000e-01    1.600000e+00
 TP3aq SC3vh  1 3.660000e-01    1.600000e+00
 TP2aq SC3vh  1 3.650000e-01    1.750000e+00
 TP1aq SC3vh  1 3.650000e-01    1.750000e+00
 TN6aq SC3vh  1 3.650000e-01    1.910000e+00
 TN5aq SC3vh  1 3.650000e-01    2.110000e+00
 TN4aq SC3vh  1 3.650000e-01    2.110000e+00
 TN3aq SC3vh  1 3.650000e-01    2.110000e+00
 TN2aq SC3vh  1 3.650000e-01    2.340000e+00
 TN1aq SC3vh  1 3.650000e-01    2.340000e+00
 TC6vq SC3vh  1 3.650000e-01    1.910000e+00
 TC5vq SC3vh  1 3.650000e-01    1.910000e+00
 TC4vq SC3vh  1 3.650000e-01    2.110000e+00
 TC3vh SC3vq  1 3.650000e-01    2.110000e+00
 TC3vh SX1eq  1 3.650000e-01    2.830000e+00
 TC3vh SX2eq  1 3.650000e-01    2.570000e+00
 TC3vh SX3eq  1 3.650000e-01    2.570000e+00
 TC3vh SX4eq  1 3.650000e-01    2.570000e+00
 TC3vh SC1eq  1 3.650000e-01    2.830000e+00
 TC3vh SC2eq  1 3.650000e-01    2.830000e+00
 TC3vh SC3eq  1 3.650000e-01    2.830000e+00
 TC4eq SC3vh  1 3.650000e-01    2.830000e+00
 TC5eq SC3vh  1 3.650000e-01    2.570000e+00
 TC6eq SC3vh  1 3.650000e-01    2.570000e+00
 TC3vh SX1vq  1 3.650000e-01    2.110000e+00
 TC3vh SX2vq  1 3.650000e-01    1.910000e+00
 TC3vh SX3vq  1 3.650000e-01    1.910000e+00
 TC3vh SX4vq  1 3.650000e-01    1.910000e+00
 TC3vh SC1vq  1 3.650000e-01    2.110000e+00
 TC3vh SC2vq  1 3.650000e-01    2.110000e+00
 TP6dq SC2vh  1 4.040000e-01    1.130000e+00
 TP5dq SC2vh  1 3.940000e-01    1.290000e+00
 TP4dq SC2vh  1 3.940000e-01    1.290000e+00
 TP3dq SC2vh  1 3.940000e-01    1.290000e+00
 TP2dq SC2vh  1 3.780000e-01    1.450000e+00
 TP1dq SC2vh  1 3.780000e-01    1.450000e+00
 TN6dq SC2vh  1 3.660000e-01    1.600000e+00
 TN5dq SC2vh  1 3.660000e-01    1.600000e+00
 TN4dq SC2vh  1 3.660000e-01    1.600000e+00
 TN3dq SC2vh  1 3.650000e-01    1.750000e+00
 TN2dq SC2vh  1 3.650000e-01    1.750000e+00
 TN1dq SC2vh  1 3.650000e-01    1.750000e+00
 TP6aq SC2vh  1 3.780000e-01    1.450000e+00
 TP5aq SC2vh  1 3.660000e-01    1.600000e+00
 TP4aq SC2vh  1 3.660000e-01    1.600000e+00
 TP3aq SC2vh  1 3.660000e-01    1.600000e+00
 TP2aq SC2vh  1 3.650000e-01    1.750000e+00
 TP1aq SC2vh  1 3.650000e-01    1.750000e+00
 TN6aq SC2vh  1 3.650000e-01    1.910000e+00
 TN5aq SC2vh  1 3.650000e-01    1.910000e+00
 TN4aq SC2vh  1 3.650000e-01    1.910000e+00
 TN3aq SC2vh  1 3.650000e-01    2.110000e+00
 TN2aq SC2vh  1 3.650000e-01    2.110000e+00
 TN1aq SC2vh  1 3.650000e-01    2.110000e+00
 TC6vq SC2vh  1 3.650000e-01    1.750000e+00
 TC5vq SC2vh  1 3.650000e-01    1.750000e+00
 TC4vq SC2vh  1 3.650000e-01    1.910000e+00
 TC3vq SC2vh  1 3.650000e-01    2.110000e+00
 TC2vh SC2vq  1 3.650000e-01    2.110000e+00
 TC2vh SX1eq  1 3.650000e-01    2.570000e+00
 TC2vh SX2eq  1 3.650000e-01    2.570000e+00
 TC2vh SX3eq  1 3.650000e-01    2.570000e+00
 TC2vh SX4eq  1 3.650000e-01    2.110000e+00
 TC2vh SC1eq  1 3.650000e-01    3.100000e+00
 TC2vh SC2eq  1 3.650000e-01    2.830000e+00
 TC3eq SC2vh  1 3.650000e-01    2.830000e+00
 TC4eq SC2vh  1 3.650000e-01    2.570000e+00
 TC5eq SC2vh  1 3.650000e-01    2.340000e+00
 TC6eq SC2vh  1 3.650000e-01    2.340000e+00
 TC2vh SX1vq  1 3.650000e-01    1.910000e+00
 TC2vh SX2vq  1 3.650000e-01    1.910000e+00
 TC2vh SX3vq  1 3.650000e-01    1.910000e+00
 TC2vh SX4vq  1 3.660000e-01    1.600000e+00
 TC2vh SC1vq  1 3.650000e-01    2.340000e+00
 TP6dq SC1vh  1 4.230000e-01    9.810000e-01
 TP5dq SC1vh  1 4.040000e-01    1.130000e+00
 TP4dq SC1vh  1 4.040000e-01    1.130000e+00
 TP3dq SC1vh  1 4.040000e-01    1.130000e+00
 TP2dq SC1vh  1 3.940000e-01    1.290000e+00
 TP1dq SC1vh  1 3.940000e-01    1.290000e+00
 TN6dq SC1vh  1 3.780000e-01    1.450000e+00
 TN5dq SC1vh  1 3.780000e-01    1.450000e+00
 TN4dq SC1vh  1 3.780000e-01    1.450000e+00
 TN3dq SC1vh  1 3.660000e-01    1.600000e+00
 TN2dq SC1vh  1 3.660000e-01    1.600000e+00
 TN1dq SC1vh  1 3.660000e-01    1.600000e+00
 TP6aq SC1vh  1 4.040000e-01    1.130000e+00
 TP5aq SC1vh  1 3.780000e-01    1.450000e+00
 TP4aq SC1vh  1 3.780000e-01    1.450000e+00
 TP3aq SC1vh  1 3.780000e-01    1.450000e+00
 TP2aq SC1vh  1 3.660000e-01    1.600000e+00
 TP1aq SC1vh  1 3.660000e-01    1.600000e+00
 TN6aq SC1vh  1 3.650000e-01    1.750000e+00
 TN5aq SC1vh  1 3.650000e-01    1.750000e+00
 TN4aq SC1vh  1 3.650000e-01    1.750000e+00
 TN3aq SC1vh  1 3.650000e-01    1.910000e+00
 TN2aq SC1vh  1 3.650000e-01    1.910000e+00
 TN1aq SC1vh  1 3.650000e-01    1.910000e+00
 TC6vq SC1vh  1 3.660000e-01    1.600000e+00
 TC5vq SC1vh  1 3.650000e-01    1.750000e+00
 TC4vq SC1vh  1 3.650000e-01    1.750000e+00
 TC3vq SC1vh  1 3.650000e-01    2.110000e+00
 TC2vq SC1vh  1 3.650000e-01    2.340000e+00
 TC1vh SC1vq  1 3.650000e-01    2.110000e+00
 TC1vh SX1eq  1 3.650000e-01    2.570000e+00
 TC1vh SX2eq  1 3.650000e-01    2.570000e+00
 TC1vh SX3eq  1 3.650000e-01    2.570000e+00
 TC1vh SX4eq  1 3.650000e-01    2.110000e+00
 TC1vh SC1eq  1 3.650000e-01    2.830000e+00
 TC2eq SC1vh  1 3.650000e-01    3.100000e+00
 TC3eq SC1vh  1 3.650000e-01    2.830000e+00
 TC4eq SC1vh  1 3.650000e-01    2.340000e+00
 TC5eq SC1vh  1 3.650000e-01    2.340000e+00
 TC6eq SC1vh  1 3.650000e-01    2.110000e+00
 TC1vh SX1vq  1 3.650000e-01    1.910000e+00
 TC1vh SX2vq  1 3.650000e-01    1.910000e+00
 TC1vh SX3vq  1 3.650000e-01    1.910000e+00
 TC1vh SX4vq  1 3.660000e-01    1.600000e+00
 TP6dq SX4vh  1 3.650000e-01    1.750000e+00
 TP5dq SX4vh  1 3.650000e-01    1.910000e+00
 TP4dq SX4vh  1 3.650000e-01    1.910000e+00
 TP3dq SX4vh  1 3.650000e-01    1.910000e+00
 TP2dq SX4vh  1 3.650000e-01    1.910000e+00
 TP1dq SX4vh  1 3.650000e-01    1.910000e+00
 TN6dq SX4vh  1 3.650000e-01    2.110000e+00
 TN5dq SX4vh  1 3.650000e-01    2.340000e+00
 TN4dq SX4vh  1 3.650000e-01    2.570000e+00
 TN3dq SX4vh  1 3.650000e-01    2.340000e+00
 TN2dq SX4vh  1 3.650000e-01    2.340000e+00
 TN1dq SX4vh  1 3.650000e-01    2.110000e+00
 TP6aq SX4vh  1 3.650000e-01    2.110000e+00
 TP5aq SX4vh  1 3.650000e-01    2.340000e+00
 TP4aq SX4vh  1 3.650000e-01    2.340000e+00
 TP3aq SX4vh  1 3.650000e-01    2.340000e+00
 TP2aq SX4vh  1 3.650000e-01    2.340000e+00
 TP1aq SX4vh  1 3.650000e-01    2.340000e+00
 TN6aq SX4vh  1 3.650000e-01    2.570000e+00
 TN5aq SX4vh  1 3.650000e-01    2.830000e+00
 TN4aq SX4vh  1 3.650000e-01    3.100000e+00
 TN3aq SX4vh  1 3.650000e-01    2.830000e+00
 TN2aq SX4vh  1 3.650000e-01    2.830000e+00
 TN1aq SX4vh  1 3.650000e-01    2.570000e+00
 TC6vq SX4vh  1 3.650000e-01    2.110000e+00
 TC5vq SX4vh  1 3.650000e-01    1.910000e+00
 TC4vq SX4vh  1 3.650000e-01    1.910000e+00
 TC3vq SX4vh  1 3.650000e-01    1.910000e+00
 TC2vq SX4vh  1 3.660000e-01    1.600000e+00
 TC1vq SX4vh  1 3.660000e-01    1.600000e+00
 TX4vh SX4vq  1 3.650000e-01    2.110000e+00
 TX4vh SX1eq  1 3.650000e-01    2.830000e+00
 TX4vh SX2eq  1 3.650000e-01    2.830000e+00
 TX4vh SX3eq  1 3.650000e-01    2.830000e+00
 TX4vh SX4eq  1 3.650000e-01    2.830000e+00
 TC1eq SX4vh  1 3.650000e-01    2.110000e+00
 TC2eq SX4vh  1 3.650000e-01    2.110000e+00
 TC3eq SX4vh  1 3.650000e-01    2.570000e+00
 TC4eq SX4vh  1 3.650000e-01    2.570000e+00
 TC5eq SX4vh  1 3.650000e-01    2.570000e+00
 TC6eq SX4vh  1 3.650000e-01    2.830000e+00
 TX4vh SX1vq  1 3.650000e-01    2.110000e+00
 TX4vh SX2vq  1 3.650000e-01    2.110000e+00
 TX4vh SX3vq  1 3.650000e-01    2.110000e+00
 TP6dq SX3vh  1 3.650000e-01    1.750000e+00
 TP5dq SX3vh  1 3.650000e-01    1.750000e+00
 TP4dq SX3vh  1 3.650000e-01    1.750000e+00
 TP3dq SX3vh  1 3.650000e-01    1.910000e+00
 TP2dq SX3vh  1 3.650000e-01    1.910000e+00
 TP1dq SX3vh  1 3.650000e-01    1.910000e+00
 TN6dq SX3vh  1 3.650000e-01    1.910000e+00
 TN5dq SX3vh  1 3.650000e-01    2.110000e+00
 TN4dq SX3vh  1 3.650000e-01    2.340000e+00
 TN3dq SX3vh  1 3.650000e-01    2.110000e+00
 TN2dq SX3vh  1 3.650000e-01    2.110000e+00
 TN1dq SX3vh  1 3.650000e-01    2.110000e+00
 TP6aq SX3vh  1 3.650000e-01    2.110000e+00
 TP5aq SX3vh  1 3.650000e-01    2.110000e+00
 TP4aq SX3vh  1 3.650000e-01    2.110000e+00
 TP3aq SX3vh  1 3.650000e-01    2.340000e+00
 TP2aq SX3vh  1 3.650000e-01    2.340000e+00
 TP1aq SX3vh  1 3.650000e-01    2.340000e+00
 TN6aq SX3vh  1 3.650000e-01    2.340000e+00
 TN5aq SX3vh  1 3.650000e-01    2.570000e+00
 TN4aq SX3vh  1 3.650000e-01    2.830000e+00
 TN3aq SX3vh  1 3.650000e-01    2.570000e+00
 TN2aq SX3vh  1 3.650000e-01    2.570000e+00
 TN1aq SX3vh  1 3.650000e-01    2.570000e+00
 TC6vq SX3vh  1 3.650000e-01    2.110000e+00
 TC5vq SX3vh  1 3.650000e-01    1.910000e+00
 TC4vq SX3vh  1 3.650000e-01    1.910000e+00
 TC3vq SX3vh  1 3.650000e-01    1.910000e+00
 TC2vq SX3vh  1 3.650000e-01    1.910000e+00
 TC1vq SX3vh  1 3.650000e-01    1.910000e+00
 TX4vq SX3vh  1 3.650000e-01    2.110000e+00
 TX3vh SX3vq  1 3.650000e-01    2.110000e+00
 TX3vh SX1eq  1 3.650000e-01    3.100000e+00
 TX3vh SX2eq  1 3.650000e-01    3.100000e+00
 TX3vh SX3eq  1 3.650000e-01    2.830000e+00
 TX4eq SX3vh  1 3.650000e-01    2.830000e+00
 TC1eq SX3vh  1 3.650000e-01    2.570000e+00
 TC2eq SX3vh  1 3.650000e-01    2.570000e+00
 TC3eq SX3vh  1 3.650000e-01    2.570000e+00
 TC4eq SX3vh  1 3.650000e-01    2.570000e+00
 TC5eq SX3vh  1 3.650000e-01    2.570000e+00
 TC6eq SX3vh  1 3.650000e-01    2.830000e+00
 TX3vh SX1vq  1 3.650000e-01    2.340000e+00
 TX3vh SX2vq  1 3.650000e-01    2.340000e+00
 TP6dq SX2vh  1 3.660000e-01    1.600000e+00
 TP5dq SX2vh  1 3.650000e-01    1.750000e+00
 TP4dq SX2vh  1 3.650000e-01    1.750000e+00
 TP3dq SX2vh  1 3.650000e-01    1.750000e+00
 TP2dq SX2vh  1 3.650000e-01    1.750000e+00
 TP1dq SX2vh  1 3.650000e-01    1.750000e+00
 TN6dq SX2vh  1 3.650000e-01    1.750000e+00
 TN5dq SX2vh  1 3.650000e-01    1.910000e+00
 TN4dq SX2vh  1 3.650000e-01    1.910000e+00
 TN3dq SX2vh  1 3.650000e-01    1.910000e+00
 TN2dq SX2vh  1 3.650000e-01    1.910000e+00
 TN1dq SX2vh  1 3.650000e-01    1.910000e+00
 TP6aq SX2vh  1 3.650000e-01    1.910000e+00
 TP5aq SX2vh  1 3.650000e-01    2.110000e+00
 TP4aq SX2vh  1 3.650000e-01    2.110000e+00
 TP3aq SX2vh  1 3.650000e-01    2.110000e+00
 TP2aq SX2vh  1 3.650000e-01    2.110000e+00
 TP1aq SX2vh  1 3.650000e-01    2.110000e+00
 TN6aq SX2vh  1 3.650000e-01    2.110000e+00
 TN5aq SX2vh  1 3.650000e-01    2.340000e+00
 TN4aq SX2vh  1 3.650000e-01    2.340000e+00
 TN3aq SX2vh  1 3.650000e-01    2.340000e+00
 TN2aq SX2vh  1 3.650000e-01    2.340000e+00
 TN1aq SX2vh  1 3.650000e-01    2.340000e+00
 TC6vq SX2vh  1 3.650000e-01    2.110000e+00
 TC5vq SX2vh  1 3.650000e-01    1.910000e+00
 TC4vq SX2vh  1 3.650000e-01    1.910000e+00
 TC3vq SX2vh  1 3.650000e-01    1.910000e+00
 TC2vq SX2vh  1 3.650000e-01    1.910000e+00
 TC1vq SX2vh  1 3.650000e-01    1.910000e+00
 TX4vq SX2vh  1 3.650000e-01    2.110000e+00
 TX3vq SX2vh  1 3.650000e-01    2.340000e+00
 TX2vh SX2vq  1 3.650000e-01    2.340000e+00
 TX2vh SX1eq  1 3.650000e-01    3.100000e+00
 TX2vh SX2eq  1 3.650000e-01    3.100000e+00
 TX3eq SX2vh  1 3.650000e-01    3.100000e+00
 TX4eq SX2vh  1 3.650000e-01    2.830000e+00
 TC1eq SX2vh  1 3.650000e-01    2.570000e+00
 TC2eq SX2vh  1 3.650000e-01    2.570000e+00
 TC3eq SX2vh  1 3.650000e-01    2.570000e+00
 TC4eq SX2vh  1 3.650000e-01    2.570000e+00
 TC5eq SX2vh  1 3.650000e-01    2.570000e+00
 TC6eq SX2vh  1 3.650000e-01    2.830000e+00
 TX2vh SX1vq  1 3.650000e-01    2.340000e+00
 TP6dq SX1vh  1 3.780000e-01    1.450000e+00
 TP5dq SX1vh  1 3.780000e-01    1.450000e+00
 TP4dq SX1vh  1 3.660000e-01    1.600000e+00
 TP3dq SX1vh  1 3.660000e-01    1.600000e+00
 TP2dq SX1vh  1 3.660000e-01    1.600000e+00
 TP1dq SX1vh  1 3.660000e-01    1.600000e+00
 TN6dq SX1vh  1 3.660000e-01    1.600000e+00
 TN5dq SX1vh  1 3.650000e-01    1.750000e+00
 TN4dq SX1vh  1 3.650000e-01    1.750000e+00
 TN3dq SX1vh  1 3.650000e-01    1.910000e+00
 TN2dq SX1vh  1 3.650000e-01    1.910000e+00
 TN1dq SX1vh  1 3.650000e-01    1.910000e+00
 TP6aq SX1vh  1 3.650000e-01    1.750000e+00
 TP5aq SX1vh  1 3.650000e-01    1.750000e+00
 TP4aq SX1vh  1 3.650000e-01    1.910000e+00
 TP3aq SX1vh  1 3.650000e-01    1.910000e+00
 TP2aq SX1vh  1 3.650000e-01    1.910000e+00
 TP1aq SX1vh  1 3.650000e-01    1.910000e+00
 TN6aq SX1vh  1 3.650000e-01    1.910000e+00
 TN5aq SX1vh  1 3.650000e-01    2.110000e+00
 TN4aq SX1vh  1 3.650000e-01    2.110000e+00
 TN3aq SX1vh  1 3.650000e-01    2.340000e+00
 TN2aq SX1vh  1 3.650000e-01    2.340000e+00
 TN1aq SX1vh  1 3.650000e-01    2.340000e+00
 TC6vq SX1vh  1 3.650000e-01    2.110000e+00
 TC5vq SX1vh  1 3.650000e-01    2.110000e+00
 TC4vq SX1vh  1 3.650000e-01    2.110000e+00
 TC3vq SX1vh  1 3.650000e-01    2.110000e+00
 TC2vq SX1vh  1 3.650000e-01    1.910000e+00
 TC1vq SX1vh  1 3.650000e-01    1.910000e+00
 TX4vq SX1vh  1 3.650000e-01    2.110000e+00
 TX3vq SX1vh  1 3.650000e-01    2.340000e+00
 TX2vq SX1vh  1 3.650000e-01    2.340000e+00
 TX1vh SX1vq  1 3.650000e-01    2.570000e+00
 TX1vh SX1eq  1 3.650000e-01    3.370000e+00
 TX2eq SX1vh  1 3.650000e-01    3.100000e+00
 TX3eq SX1vh  1 3.650000e-01    3.100000e+00
 TX4eq SX1vh  1 3.650000e-01    2.830000e+00
 TC1eq SX1vh  1 3.650000e-01    2.570000e+00
 TC2eq SX1vh  1 3.650000e-01    2.570000e+00
 TC3eq SX1vh  1 3.650000e-01    2.830000e+00
 TC4eq SX1vh  1 3.650000e-01    2.830000e+00
 TC5eq SX1vh  1 3.650000e-01    2.830000e+00
 TC6eq SX1vh  1 3.650000e-01    2.830000e+00
 TP6dq SC6eh  1 3.650000e-01    1.910000e+00
 TP5dq SC6eh  1 3.650000e-01    1.910000e+00
 TP4dq SC6eh  1 3.650000e-01    2.110000e+00
 TP3dq SC6eh  1 3.650000e-01    2.340000e+00
 TP2dq SC6eh  1 3.650000e-01    2.340000e+00
 TP1dq SC6eh  1 3.650000e-01    2.340000e+00
 TN6dq SC6eh  1 3.650000e-01    2.570000e+00
 TN5dq SC6eh  1 3.650000e-01    2.570000e+00
 TN4dq SC6eh  1 3.650000e-01    2.570000e+00
 TN3dq SC6eh  1 3.650000e-01    2.570000e+00
 TN2dq SC6eh  1 3.650000e-01    2.570000e+00
 TN1dq SC6eh  1 3.650000e-01    2.830000e+00
 TP6aq SC6eh  1 3.660000e-01    1.600000e+00
 TP5aq SC6eh  1 3.660000e-01    1.600000e+00
 TP4aq SC6eh  1 3.650000e-01    1.750000e+00
 TP3aq SC6eh  1 3.650000e-01    1.910000e+00
 TP2aq SC6eh  1 3.650000e-01    1.910000e+00
 TP1aq SC6eh  1 3.650000e-01    1.910000e+00
 TN6aq SC6eh  1 3.650000e-01    2.110000e+00
 TN5aq SC6eh  1 3.650000e-01    2.110000e+00
 TN4aq SC6eh  1 3.650000e-01    2.110000e+00
 TN3aq SC6eh  1 3.650000e-01    2.110000e+00
 TN2aq SC6eh  1 3.650000e-01    2.110000e+00
 TN1aq SC6eh  1 3.650000e-01    2.340000e+00
 TC6vq SC6eh  1 3.650000e-01    3.100000e+00
 TC6eh SC5vq  1 3.650000e-01    2.830000e+00
 TC6eh SC4vq  1 3.650000e-01    2.830000e+00
 TC6eh SC3vq  1 3.650000e-01    2.570000e+00
 TC6eh SC2vq  1 3.650000e-01    2.340000e+00
 TC6eh SC1vq  1 3.650000e-01    2.110000e+00
 TC6eh SX4vq  1 3.650000e-01    2.830000e+00
 TC6eh SX3vq  1 3.650000e-01    2.830000e+00
 TC6eh SX2vq  1 3.650000e-01    2.830000e+00
 TC6eh SX1vq  1 3.650000e-01    2.830000e+00
 TC6eh SC6eq  1 3.650000e-01    2.340000e+00
 TC6eh SX1eq  1 3.650000e-01    2.110000e+00
 TC6eh SX2eq  1 3.650000e-01    2.110000e+00
 TC6eh SX3eq  1 3.650000e-01    2.110000e+00
 TC6eh SX4eq  1 3.650000e-01    2.110000e+00
 TC6eh SC1eq  1 3.660000e-01    1.600000e+00
 TC6eh SC2eq  1 3.650000e-01    1.750000e+00
 TC6eh SC3eq  1 3.650000e-01    1.910000e+00
 TC6eh SC4eq  1 3.650000e-01    2.110000e+00
 TC6eh SC5eq  1 3.650000e-01    2.110000e+00
 TP6dq SC5eh  1 3.650000e-01    1.750000e+00
 TP5dq SC5eh  1 3.650000e-01    1.910000e+00
 TP4dq SC5eh  1 3.650000e-01    1.910000e+00
 TP3dq SC5eh  1 3.650000e-01    2.110000e+00
 TP2dq SC5eh  1 3.650000e-01    2.110000e+00
 TP1dq SC5eh  1 3.650000e-01    2.110000e+00
 TN6dq SC5eh  1 3.650000e-01    2.340000e+00
 TN5dq SC5eh  1 3.650000e-01    2.340000e+00
 TN4dq SC5eh  1 3.650000e-01    2.340000e+00
 TN3dq SC5eh  1 3.650000e-01    2.340000e+00
 TN2dq SC5eh  1 3.650000e-01    2.340000e+00
 TN1dq SC5eh  1 3.650000e-01    2.570000e+00
 TP6aq SC5eh  1 3.780000e-01    1.450000e+00
 TP5aq SC5eh  1 3.660000e-01    1.600000e+00
 TP4aq SC5eh  1 3.660000e-01    1.600000e+00
 TP3aq SC5eh  1 3.650000e-01    1.750000e+00
 TP2aq SC5eh  1 3.650000e-01    1.750000e+00
 TP1aq SC5eh  1 3.650000e-01    1.750000e+00
 TN6aq SC5eh  1 3.650000e-01    1.910000e+00
 TN5aq SC5eh  1 3.650000e-01    1.910000e+00
 TN4aq SC5eh  1 3.650000e-01    1.910000e+00
 TN3aq SC5eh  1 3.650000e-01    1.910000e+00
 TN2aq SC5eh  1 3.650000e-01    1.910000e+00
 TN1aq SC5eh  1 3.650000e-01    2.110000e+00
 TC6vq SC5eh  1 3.650000e-01    2.830000e+00
 TC5vq SC5eh  1 3.650000e-01    2.830000e+00
 TC5eh SC4vq  1 3.650000e-01    2.830000e+00
 TC5eh SC3vq  1 3.650000e-01    2.570000e+00
 TC5eh SC2vq  1 3.650000e-01    2.340000e+00
 TC5eh SC1vq  1 3.650000e-01    2.340000e+00
 TC5eh SX4vq  1 3.650000e-01    2.570000e+00
 TC5eh SX3vq  1 3.650000e-01    2.570000e+00
 TC5eh SX2vq  1 3.650000e-01    2.570000e+00
 TC5eh SX1vq  1 3.650000e-01    2.830000e+00
 TC6eq SC5eh  1 3.650000e-01    2.110000e+00
 TC5eh SC5eq  1 3.650000e-01    2.110000e+00
 TC5eh SX1eq  1 3.650000e-01    2.110000e+00
 TC5eh SX2eq  1 3.650000e-01    1.910000e+00
 TC5eh SX3eq  1 3.650000e-01    1.910000e+00
 TC5eh SX4eq  1 3.650000e-01    1.910000e+00
 TC5eh SC1eq  1 3.650000e-01    1.750000e+00
 TC5eh SC2eq  1 3.650000e-01    1.750000e+00
 TC5eh SC3eq  1 3.650000e-01    1.910000e+00
 TC5eh SC4eq  1 3.650000e-01    2.110000e+00
 TP6dq SC4eh  1 3.660000e-01    1.600000e+00
 TP5dq SC4eh  1 3.650000e-01    1.750000e+00
 TP4dq SC4eh  1 3.650000e-01    1.750000e+00
 TP3dq SC4eh  1 3.650000e-01    1.910000e+00
 TP2dq SC4eh  1 3.650000e-01    1.910000e+00
 TP1dq SC4eh  1 3.650000e-01    1.910000e+00
 TN6dq SC4eh  1 3.650000e-01    2.110000e+00
 TN5dq SC4eh  1 3.650000e-01    2.110000e+00
 TN4dq SC4eh  1 3.650000e-01    2.340000e+00
 TN3dq SC4eh  1 3.650000e-01    2.340000e+00
 TN2dq SC4eh  1 3.650000e-01    2.340000e+00
 TN1dq SC4eh  1 3.650000e-01    2.570000e+00
 TP6aq SC4eh  1 3.940000e-01    1.290000e+00
 TP5aq SC4eh  1 3.780000e-01    1.450000e+00
 TP4aq SC4eh  1 3.780000e-01    1.450000e+00
 TP3aq SC4eh  1 3.660000e-01    1.600000e+00
 TP2aq SC4eh  1 3.660000e-01    1.600000e+00
 TP1aq SC4eh  1 3.660000e-01    1.600000e+00
 TN6aq SC4eh  1 3.650000e-01    1.750000e+00
 TN5aq SC4eh  1 3.650000e-01    1.750000e+00
 TN4aq SC4eh  1 3.650000e-01    1.910000e+00
 TN3aq SC4eh  1 3.650000e-01    1.910000e+00
 TN2aq SC4eh  1 3.650000e-01    1.910000e+00
 TN1aq SC4eh  1 3.650000e-01    2.110000e+00
 TC6vq SC4eh  1 3.650000e-01    2.830000e+00
 TC5vq SC4eh  1 3.650000e-01    2.830000e+00
 TC4vq SC4eh  1 3.650000e-01    2.830000e+00
 TC4eh SC3vq  1 3.650000e-01    2.830000e+00
 TC4eh SC2vq  1 3.650000e-01    2.570000e+00
 TC4eh SC1vq  1 3.650000e-01    2.340000e+00
 TC4eh SX4vq  1 3.650000e-01    2.570000e+00
 TC4eh SX3vq  1 3.650000e-01    2.570000e+00
 TC4eh SX2vq  1 3.650000e-01    2.570000e+00
 TC4eh SX1vq  1 3.650000e-01    2.830000e+00
 TC6eq SC4eh  1 3.650000e-01    2.110000e+00
 TC5eq SC4eh  1 3.650000e-01    2.110000e+00
 TC4eh SC4eq  1 3.650000e-01    2.110000e+00
 TC4eh SX1eq  1 3.650000e-01    2.110000e+00
 TC4eh SX2eq  1 3.650000e-01    1.910000e+00
 TC4eh SX3eq  1 3.650000e-01    1.910000e+00
 TC4eh SX4eq  1 3.650000e-01    1.910000e+00
 TC4eh SC1eq  1 3.650000e-01    1.750000e+00
 TC4eh SC2eq  1 3.650000e-01    1.910000e+00
 TC4eh SC3eq  1 3.650000e-01    2.110000e+00
 TP6dq SC3eh  1 3.780000e-01    1.450000e+00
 TP5dq SC3eh  1 3.660000e-01    1.600000e+00
 TP4dq SC3eh  1 3.660000e-01    1.600000e+00
 TP3dq SC3eh  1 3.660000e-01    1.600000e+00
 TP2dq SC3eh  1 3.650000e-01    1.750000e+00
 TP1dq SC3eh  1 3.650000e-01    1.750000e+00
 TN6dq SC3eh  1 3.650000e-01    1.910000e+00
 TN5dq SC3eh  1 3.650000e-01    2.110000e+00
 TN4dq SC3eh  1 3.650000e-01    2.110000e+00
 TN3dq SC3eh  1 3.650000e-01    2.110000e+00
 TN2dq SC3eh  1 3.650000e-01    2.340000e+00
 TN1dq SC3eh  1 3.650000e-01    2.340000e+00
 TP6aq SC3eh  1 4.040000e-01    1.130000e+00
 TP5aq SC3eh  1 3.940000e-01    1.290000e+00
 TP4aq SC3eh  1 3.940000e-01    1.290000e+00
 TP3aq SC3eh  1 3.940000e-01    1.290000e+00
 TP2aq SC3eh  1 3.780000e-01    1.450000e+00
 TP1aq SC3eh  1 3.780000e-01    1.450000e+00
 TN6aq SC3eh  1 3.660000e-01    1.600000e+00
 TN5aq SC3eh  1 3.650000e-01    1.750000e+00
 TN4aq SC3eh  1 3.650000e-01    1.750000e+00
 TN3aq SC3eh  1 3.650000e-01    1.750000e+00
 TN2aq SC3eh  1 3.650000e-01    1.910000e+00
 TN1aq SC3eh  1 3.650000e-01    1.910000e+00
 TC6vq SC3eh  1 3.650000e-01    2.570000e+00
 TC5vq SC3eh  1 3.650000e-01    2.570000e+00
 TC4vq SC3eh  1 3.650000e-01    2.830000e+00
 TC3vq SC3eh  1 3.650000e-01    2.830000e+00
 TC3eh SC2vq  1 3.650000e-01    2.830000e+00
 TC3eh SC1vq  1 3.650000e-01    2.830000e+00
 TC3eh SX4vq  1 3.650000e-01    2.570000e+00
 TC3eh SX3vq  1 3.650000e-01    2.570000e+00
 TC3eh SX2vq  1 3.650000e-01    2.570000e+00
 TC3eh SX1vq  1 3.650000e-01    2.830000e+00
 TC6eq SC3eh  1 3.650000e-01    1.910000e+00
 TC5eq SC3eh  1 3.650000e-01    1.910000e+00
 TC4eq SC3eh  1 3.650000e-01    2.110000e+00
 TC3eh SC3eq  1 3.650000e-01    2.110000e+00
 TC3eh SX1eq  1 3.650000e-01    2.110000e+00
 TC3eh SX2eq  1 3.650000e-01    1.910000e+00
 TC3eh SX3eq  1 3.650000e-01    1.910000e+00
 TC3eh SX4eq  1 3.650000e-01    1.910000e+00
 TC3eh SC1eq  1 3.650000e-01    2.110000e+00
 TC3eh SC2eq  1 3.650000e-01    2.110000e+00
 TP6dq SC2eh  1 3.780000e-01    1.450000e+00
 TP5dq SC2eh  1 3.660000e-01    1.600000e+00
 TP4dq SC2eh  1 3.660000e-01    1.600000e+00
 TP3dq SC2eh  1 3.660000e-01    1.600000e+00
 TP2dq SC2eh  1 3.650000e-01    1.750000e+00
 TP1dq SC2eh  1 3.650000e-01    1.750000e+00
 TN6dq SC2eh  1 3.650000e-01    1.910000e+00
 TN5dq SC2eh  1 3.650000e-01    1.910000e+00
 TN4dq SC2eh  1 3.650000e-01    1.910000e+00
 TN3dq SC2eh  1 3.650000e-01    2.110000e+00
 TN2dq SC2eh  1 3.650000e-01    2.110000e+00
 TN1dq SC2eh  1 3.650000e-01    2.110000e+00
 TP6aq SC2eh  1 4.040000e-01    1.130000e+00
 TP5aq SC2eh  1 3.940000e-01    1.290000e+00
 TP4aq SC2eh  1 3.940000e-01    1.290000e+00
 TP3aq SC2eh  1 3.940000e-01    1.290000e+00
 TP2aq SC2eh  1 3.780000e-01    1.450000e+00
 TP1aq SC2eh  1 3.780000e-01    1.450000e+00
 TN6aq SC2eh  1 3.660000e-01    1.600000e+00
 TN5aq SC2eh  1 3.660000e-01    1.600000e+00
 TN4aq SC2eh  1 3.660000e-01    1.600000e+00
 TN3aq SC2eh  1 3.650000e-01    1.750000e+00
 TN2aq SC2eh  1 3.650000e-01    1.750000e+00
 TN1aq SC2eh  1 3.650000e-01    1.750000e+00
 TC6vq SC2eh  1 3.650000e-01    2.340000e+00
 TC5vq SC2eh  1 3.650000e-01    2.340000e+00
 TC4vq SC2eh  1 3.650000e-01    2.570000e+00
 TC3vq SC2eh  1 3.650000e-01    2.830000e+00
 TC2vq SC2eh  1 3.650000e-01    2.830000e+00
 TC2eh SC1vq  1 3.650000e-01    3.100000e+00
 TC2eh SX4vq  1 3.650000e-01    2.110000e+00
 TC2eh SX3vq  1 3.650000e-01    2.570000e+00
 TC2eh SX2vq  1 3.650000e-01    2.570000e+00
 TC2eh SX1vq  1 3.650000e-01    2.570000e+00
 TC6eq SC2eh  1 3.650000e-01    1.750000e+00
 TC5eq SC2eh  1 3.650000e-01    1.750000e+00
 TC4eq SC2eh  1 3.650000e-01    1.910000e+00
 TC3eq SC2eh  1 3.650000e-01    2.110000e+00
 TC2eh SC2eq  1 3.650000e-01    2.110000e+00
 TC2eh SX1eq  1 3.650000e-01    1.910000e+00
 TC2eh SX2eq  1 3.650000e-01    1.910000e+00
 TC2eh SX3eq  1 3.650000e-01    1.910000e+00
 TC2eh SX4eq  1 3.660000e-01    1.600000e+00
 TC2eh SC1eq  1 3.650000e-01    2.340000e+00
 TP6dq SC1eh  1 4.040000e-01    1.130000e+00
 TP5dq SC1eh  1 3.780000e-01    1.450000e+00
 TP4dq SC1eh  1 3.780000e-01    1.450000e+00
 TP3dq SC1eh  1 3.780000e-01    1.450000e+00
 TP2dq SC1eh  1 3.660000e-01    1.600000e+00
 TP1dq SC1eh  1 3.660000e-01    1.600000e+00
 TN6dq SC1eh  1 3.650000e-01    1.750000e+00
 TN5dq SC1eh  1 3.650000e-01    1.750000e+00
 TN4dq SC1eh  1 3.650000e-01    1.750000e+00
 TN3dq SC1eh  1 3.650000e-01    1.910000e+00
 TN2dq SC1eh  1 3.650000e-01    1.910000e+00
 TN1dq SC1eh  1 3.650000e-01    1.910000e+00
 TP6aq SC1eh  1 4.230000e-01    9.810000e-01
 TP5aq SC1eh  1 4.040000e-01    1.130000e+00
 TP4aq SC1eh  1 4.040000e-01    1.130000e+00
 TP3aq SC1eh  1 4.040000e-01    1.130000e+00
 TP2aq SC1eh  1 3.940000e-01    1.290000e+00
 TP1aq SC1eh  1 3.940000e-01    1.290000e+00
 TN6aq SC1eh  1 3.780000e-01    1.450000e+00
 TN5aq SC1eh  1 3.780000e-01    1.450000e+00
 TN4aq SC1eh  1 3.780000e-01    1.450000e+00
 TN3aq SC1eh  1 3.660000e-01    1.600000e+00
 TN2aq SC1eh  1 3.660000e-01    1.600000e+00
 TN1aq SC1eh  1 3.660000e-01    1.600000e+00
 TC6vq SC1eh  1 3.650000e-01    2.110000e+00
 TC5vq SC1eh  1 3.650000e-01    2.340000e+00
 TC4vq SC1eh  1 3.650000e-01    2.340000e+00
 TC3vq SC1eh  1 3.650000e-01    2.830000e+00
 TC2vq SC1eh  1 3.650000e-01    3.100000e+00
 TC1vq SC1eh  1 3.650000e-01    2.830000e+00
 TC1eh SX4vq  1 3.650000e-01    2.110000e+00
 TC1eh SX3vq  1 3.650000e-01    2.570000e+00
 TC1eh SX2vq  1 3.650000e-01    2.570000e+00
 TC1eh SX1vq  1 3.650000e-01    2.570000e+00
 TC6eq SC1eh  1 3.660000e-01    1.600000e+00
 TC5eq SC1eh  1 3.650000e-01    1.750000e+00
 TC4eq SC1eh  1 3.650000e-01    1.750000e+00
 TC3eq SC1eh  1 3.650000e-01    2.110000e+00
 TC2eq SC1eh  1 3.650000e-01    2.340000e+00
 TC1eh SC1eq  1 3.650000e-01    2.110000e+00
 TC1eh SX1eq  1 3.650000e-01    1.910000e+00
 TC1eh SX2eq  1 3.650000e-01    1.910000e+00
 TC1eh SX3eq  1 3.650000e-01    1.910000e+00
 TC1eh SX4eq  1 3.660000e-01    1.600000e+00
 TP6dq SX4eh  1 3.650000e-01    2.110000e+00
 TP5dq SX4eh  1 3.650000e-01    2.340000e+00
 TP4dq SX4eh  1 3.650000e-01    2.340000e+00
 TP3dq SX4eh  1 3.650000e-01    2.340000e+00
 TP2dq SX4eh  1 3.650000e-01    2.340000e+00
 TP1dq SX4eh  1 3.650000e-01    2.340000e+00
 TN6dq SX4eh  1 3.650000e-01    2.570000e+00
 TN5dq SX4eh  1 3.650000e-01    2.830000e+00
 TN4dq SX4eh  1 3.650000e-01    3.100000e+00
 TN3dq SX4eh  1 3.650000e-01    2.830000e+00
 TN2dq SX4eh  1 3.650000e-01    2.830000e+00
 TN1dq SX4eh  1 3.650000e-01    2.570000e+00
 TP6aq SX4eh  1 3.650000e-01    1.750000e+00
 TP5aq SX4eh  1 3.650000e-01    1.910000e+00
 TP4aq SX4eh  1 3.650000e-01    1.910000e+00
 TP3aq SX4eh  1 3.650000e-01    1.910000e+00
 TP2aq SX4eh  1 3.650000e-01    1.910000e+00
 TP1aq SX4eh  1 3.650000e-01    1.910000e+00
 TN6aq SX4eh  1 3.650000e-01    2.110000e+00
 TN5aq SX4eh  1 3.650000e-01    2.340000e+00
 TN4aq SX4eh  1 3.650000e-01    2.570000e+00
 TN3aq SX4eh  1 3.650000e-01    2.340000e+00
 TN2aq SX4eh  1 3.650000e-01    2.340000e+00
 TN1aq SX4eh  1 3.650000e-01    2.110000e+00
 TC6vq SX4eh  1 3.650000e-01    2.830000e+00
 TC5vq SX4eh  1 3.650000e-01    2.570000e+00
 TC4vq SX4eh  1 3.650000e-01    2.570000e+00
 TC3vq SX4eh  1 3.650000e-01    2.570000e+00
 TC2vq SX4eh  1 3.650000e-01    2.110000e+00
 TC1vq SX4eh  1 3.650000e-01    2.110000e+00
 TX4vq SX4eh  1 3.650000e-01    2.830000e+00
 TX4eh SX3vq  1 3.650000e-01    2.830000e+00
 TX4eh SX2vq  1 3.650000e-01    2.830000e+00
 TX4eh SX1vq  1 3.650000e-01    2.830000e+00
 TC6eq SX4eh  1 3.650000e-01    2.110000e+00
 TC5eq SX4eh  1 3.650000e-01    1.910000e+00
 TC4eq SX4eh  1 3.650000e-01    1.910000e+00
 TC3eq SX4eh  1 3.650000e-01    1.910000e+00
 TC2eq SX4eh  1 3.660000e-01    1.600000e+00
 TC1eq SX4eh  1 3.660000e-01    1.600000e+00
 TX4eh SX4eq  1 3.650000e-01    2.110000e+00
 TX4eh SX1eq  1 3.650000e-01    2.110000e+00
 TX4eh SX2eq  1 3.650000e-01    2.110000e+00
 TX4eh SX3eq  1 3.650000e-01    2.110000e+00
 TP6dq SX3eh  1 3.650000e-01    2.110000e+00
 TP5dq SX3eh  1 3.650000e-01    2.110000e+00
 TP4dq SX3eh  1 3.650000e-01    2.110000e+00
 TP3dq SX3eh  1 3.650000e-01    2.340000e+00
 TP2dq SX3eh  1 3.650000e-01    2.340000e+00
 TP1dq SX3eh  1 3.650000e-01    2.340000e+00
 TN6dq SX3eh  1 3.650000e-01    2.340000e+00
 TN5dq SX3eh  1 3.650000e-01    2.570000e+00
 TN4dq SX3eh  1 3.650000e-01    2.830000e+00
 TN3dq SX3eh  1 3.650000e-01    2.570000e+00
 TN2dq SX3eh  1 3.650000e-01    2.570000e+00
 TN1dq SX3eh  1 3.650000e-01    2.570000e+00
 TP6aq SX3eh  1 3.650000e-01    1.750000e+00
 TP5aq SX3eh  1 3.650000e-01    1.750000e+00
 TP4aq SX3eh  1 3.650000e-01    1.750000e+00
 TP3aq SX3eh  1 3.650000e-01    1.910000e+00
 TP2aq SX3eh  1 3.650000e-01    1.910000e+00
 TP1aq SX3eh  1 3.650000e-01    1.910000e+00
 TN6aq SX3eh  1 3.650000e-01    1.910000e+00
 TN5aq SX3eh  1 3.650000e-01    2.110000e+00
 TN4aq SX3eh  1 3.650000e-01    2.340000e+00
 TN3aq SX3eh  1 3.650000e-01    2.110000e+00
 TN2aq SX3eh  1 3.650000e-01    2.110000e+00
 TN1aq SX3eh  1 3.650000e-01    2.110000e+00
 TC6vq SX3eh  1 3.650000e-01    2.830000e+00
 TC5vq SX3eh  1 3.650000e-01    2.570000e+00
 TC4vq SX3eh  1 3.650000e-01    2.570000e+00
 TC3vq SX3eh  1 3.650000e-01    2.570000e+00
 TC2vq SX3eh  1 3.650000e-01    2.570000e+00
 TC1vq SX3eh  1 3.650000e-01    2.570000e+00
 TX4vq SX3eh  1 3.650000e-01    2.830000e+00
 TX3vq SX3eh  1 3.650000e-01    2.830000e+00
 TX3eh SX2vq  1 3.650000e-01    3.100000e+00
 TX3eh SX1vq  1 3.650000e-01    3.100000e+00
 TC6eq SX3eh  1 3.650000e-01    2.110000e+00
 TC5eq SX3eh  1 3.650000e-01    1.910000e+00
 TC4eq SX3eh  1 3.650000e-01    1.910000e+00
 TC3eq SX3eh  1 3.650000e-01    1.910000e+00
 TC2eq SX3eh  1 3.650000e-01    1.910000e+00
 TC1eq SX3eh  1 3.650000e-01    1.910000e+00
 TX4eq SX3eh  1 3.650000e-01    2.110000e+00
 TX3eh SX3eq  1 3.650000e-01    2.110000e+00
 TX3eh SX1eq  1 3.650000e-01    2.340000e+00
 TX3eh SX2eq  1 3.650000e-01    2.340000e+00
 TP6dq SX2eh  1 3.650000e-01    1.910000e+00
 TP5dq SX2eh  1 3.650000e-01    2.110000e+00
 TP4dq SX2eh  1 3.650000e-01    2.110000e+00
 TP3dq SX2eh  1 3.650000e-01    2.110000e+00
 TP2dq SX2eh  1 3.650000e-01    2.110000e+00
 TP1dq SX2eh  1 3.650000e-01    2.110000e+00
 TN6dq SX2eh  1 3.650000e-01    2.110000e+00
 TN5dq SX2eh  1 3.650000e-01    2.340000e+00
 TN4dq SX2eh  1 3.650000e-01    2.340000e+00
 TN3dq SX2eh  1 3.650000e-01    2.340000e+00
 TN2dq SX2eh  1 3.650000e-01    2.340000e+00
 TN1dq SX2eh  1 3.650000e-01    2.340000e+00
 TP6aq SX2eh  1 3.660000e-01    1.600000e+00
 TP5aq SX2eh  1 3.650000e-01    1.750000e+00
 TP4aq SX2eh  1 3.650000e-01    1.750000e+00
 TP3aq SX2eh  1 3.650000e-01    1.750000e+00
 TP2aq SX2eh  1 3.650000e-01    1.750000e+00
 TP1aq SX2eh  1 3.650000e-01    1.750000e+00
 TN6aq SX2eh  1 3.650000e-01    1.750000e+00
 TN5aq SX2eh  1 3.650000e-01    1.910000e+00
 TN4aq SX2eh  1 3.650000e-01    1.910000e+00
 TN3aq SX2eh  1 3.650000e-01    1.910000e+00
 TN2aq SX2eh  1 3.650000e-01    1.910000e+00
 TN1aq SX2eh  1 3.650000e-01    1.910000e+00
 TC6vq SX2eh  1 3.650000e-01    2.830000e+00
 TC5vq SX2eh  1 3.650000e-01    2.570000e+00
 TC4vq SX2eh  1 3.650000e-01    2.570000e+00
 TC3vq SX2eh  1 3.650000e-01    2.570000e+00
 TC2vq SX2eh  1 3.650000e-01    2.570000e+00
 TC1vq SX2eh  1 3.650000e-01    2.570000e+00
 TX4vq SX2eh  1 3.650000e-01    2.830000e+00
 TX3vq SX2eh  1 3.650000e-01    3.100000e+00
 TX2vq SX2eh  1 3.650000e-01    3.100000e+00
 TX2eh SX1vq  1 3.650000e-01    3.100000e+00
 TC6eq SX2eh  1 3.650000e-01    2.110000e+00
 TC5eq SX2eh  1 3.650000e-01    1.910000e+00
 TC4eq SX2eh  1 3.650000e-01    1.910000e+00
 TC3eq SX2eh  1 3.650000e-01    1.910000e+00
 TC2eq SX2eh  1 3.650000e-01    1.910000e+00
 TC1eq SX2eh  1 3.650000e-01    1.910000e+00
 TX4eq SX2eh  1 3.650000e-01    2.110000e+00
 TX3eq SX2eh  1 3.650000e-01    2.340000e+00
 TX2eh SX2eq  1 3.650000e-01    2.340000e+00
 TX2eh SX1eq  1 3.650000e-01    2.340000e+00
 TP6dq SX1eh  1 3.650000e-01    1.750000e+00
 TP5dq SX1eh  1 3.650000e-01    1.750000e+00
 TP4dq SX1eh  1 3.650000e-01    1.910000e+00
 TP3dq SX1eh  1 3.650000e-01    1.910000e+00
 TP2dq SX1eh  1 3.650000e-01    1.910000e+00
 TP1dq SX1eh  1 3.650000e-01    1.910000e+00
 TN6dq SX1eh  1 3.650000e-01    1.910000e+00
 TN5dq SX1eh  1 3.650000e-01    2.110000e+00
 TN4dq SX1eh  1 3.650000e-01    2.110000e+00
 TN3dq SX1eh  1 3.650000e-01    2.340000e+00
 TN2dq SX1eh  1 3.650000e-01    2.340000e+00
 TN1dq SX1eh  1 3.650000e-01    2.340000e+00
 TP6aq SX1eh  1 3.780000e-01    1.450000e+00
 TP5aq SX1eh  1 3.780000e-01    1.450000e+00
 TP4aq SX1eh  1 3.660000e-01    1.600000e+00
 TP3aq SX1eh  1 3.660000e-01    1.600000e+00
 TP2aq SX1eh  1 3.660000e-01    1.600000e+00
 TP1aq SX1eh  1 3.660000e-01    1.600000e+00
 TN6aq SX1eh  1 3.660000e-01    1.600000e+00
 TN5aq SX1eh  1 3.650000e-01    1.750000e+00
 TN4aq SX1eh  1 3.650000e-01    1.750000e+00
 TN3aq SX1eh  1 3.650000e-01    1.910000e+00
 TN2aq SX1eh  1 3.650000e-01    1.910000e+00
 TN1aq SX1eh  1 3.650000e-01    1.910000e+00
 TC6vq SX1eh  1 3.650000e-01    2.830000e+00
 TC5vq SX1eh  1 3.650000e-01    2.830000e+00
 TC4vq SX1eh  1 3.650000e-01    2.830000e+00
 TC3vq SX1eh  1 3.650000e-01    2.830000e+00
 TC2vq SX1eh  1 3.650000e-01    2.570000e+00
 TC1vq SX1eh  1 3.650000e-01    2.570000e+00
 TX4vq SX1eh  1 3.650000e-01    2.830000e+00
 TX3vq SX1eh  1 3.650000e-01    3.100000e+00
 TX2vq SX1eh  1 3.650000e-01    3.100000e+00
 TX1vq SX1eh  1 3.650000e-01    3.370000e+00
 TC6eq SX1eh  1 3.650000e-01    2.110000e+00
 TC5eq SX1eh  1 3.650000e-01    2.110000e+00
 TC4eq SX1eh  1 3.650000e-01    2.110000e+00
 TC3eq SX1eh  1 3.650000e-01    2.110000e+00
 TC2eq SX1eh  1 3.650000e-01    1.910000e+00
 TC1eq SX1eh  1 3.650000e-01    1.910000e+00
 TX4eq SX1eh  1 3.650000e-01    2.110000e+00
 TX3eq SX1eh  1 3.650000e-01    2.340000e+00
 TX2eq SX1eh  1 3.650000e-01    2.340000e+00
 TX1eh SX1eq  1 3.650000e-01    2.570000e+00
  TP6r  SP6d  1 3.650000e-01    3.930000e+00
  TP6r  SN1d  1 3.780000e-01    1.450000e+00
  TP6r  SN2d  1 3.660000e-01    1.600000e+00
  TP6r  SN3d  1 3.650000e-01    1.750000e+00
  TP6r  SN4d  1 3.650000e-01    1.910000e+00
  TP6r  SN5d  1 3.650000e-01    2.110000e+00
  TP6r  SN6d  1 3.650000e-01    2.570000e+00
  TP6r  SP1d  1 3.650000e-01    2.830000e+00
  TP6r  SP2d  1 3.650000e-01    3.100000e+00
  TP6r  SP3d  1 3.650000e-01    3.100000e+00
  TP6r  SP4d  1 3.650000e-01    3.370000e+00
  TP6r  SP5d  1 3.650000e-01    3.640000e+00
  TP6r  SP6a  1 3.650000e-01    3.930000e+00
  TP6r  SN1a  1 3.780000e-01    1.450000e+00
  TP6r  SN2a  1 3.660000e-01    1.600000e+00
  TP6r  SN3a  1 3.650000e-01    1.750000e+00
  TP6r  SN4a  1 3.650000e-01    1.910000e+00
  TP6r  SN5a  1 3.650000e-01    2.110000e+00
  TP6r  SN6a  1 3.650000e-01    2.570000e+00
  TP6r  SP1a  1 3.650000e-01    2.830000e+00
  TP6r  SP2a  1 3.650000e-01    3.100000e+00
  TP6r  SP3a  1 3.650000e-01    3.100000e+00
  TP6r  SP4a  1 3.650000e-01    3.370000e+00
  TP6r  SP5a  1 3.650000e-01    3.640000e+00
  TP6r  SC6v  1 3.660000e-01    1.600000e+00
  TP6r  SC5v  1 3.780000e-01    1.450000e+00
  TP6r  SC4v  1 3.940000e-01    1.290000e+00
  TP6r  SC3v  1 4.040000e-01    1.130000e+00
  TP6r  SC2v  1 4.040000e-01    1.130000e+00
  TP6r  SC1v  1 4.230000e-01    9.810000e-01
  TP6r  SX4v  1 3.650000e-01    1.750000e+00
  TP6r  SX3v  1 3.650000e-01    1.750000e+00
  TP6r  SX2v  1 3.660000e-01    1.600000e+00
  TP6r  SX1v  1 3.780000e-01    1.450000e+00
  TP6r  SC6e  1 3.660000e-01    1.600000e+00
  TP6r  SC5e  1 3.780000e-01    1.450000e+00
  TP6r  SC4e  1 3.940000e-01    1.290000e+00
  TP6r  SC3e  1 4.040000e-01    1.130000e+00
  TP6r  SC2e  1 4.040000e-01    1.130000e+00
  TP6r  SC1e  1 4.230000e-01    9.810000e-01
  TP6r  SX4e  1 3.650000e-01    1.750000e+00
  TP6r  SX3e  1 3.650000e-01    1.750000e+00
  TP6r  SX2e  1 3.660000e-01    1.600000e+00
  TP6r  SX1e  1 3.780000e-01    1.450000e+00
  TP6r  SP6q  1 3.650000e-01    4.510000e+00
  TP6r  SX1q  1 3.660000e-01    1.600000e+00
  TP6r  SX2q  1 3.650000e-01    1.750000e+00
  TP6r  SX3q  1 3.650000e-01    1.910000e+00
  TP6r  SX4q  1 3.650000e-01    1.910000e+00
  TP6r  SC1q  1 4.090000e-01    1.080000e+00
  TP6r  SC2q  1 3.940000e-01    1.290000e+00
  TP6r  SC3q  1 3.940000e-01    1.290000e+00
  TP6r  SC4q  1 3.780000e-01    1.450000e+00
  TP6r  SC5q  1 3.660000e-01    1.600000e+00
  TP6r  SC6q  1 3.650000e-01    1.750000e+00
  TP6r  SN1q  1 3.650000e-01    1.750000e+00
  TP6r  SN2q  1 3.650000e-01    1.910000e+00
  TP6r  SN3q  1 3.650000e-01    2.110000e+00
  TP6r  SN4q  1 3.650000e-01    2.340000e+00
  TP6r  SN5q  1 3.650000e-01    2.570000e+00
  TP6r  SN6q  1 3.650000e-01    3.100000e+00
  TP6r  SP1q  1 3.650000e-01    3.370000e+00
  TP6r  SP2q  1 3.650000e-01    3.640000e+00
  TP6r  SP3q  1 3.650000e-01    3.640000e+00
  TP6r  SP4q  1 3.650000e-01    3.930000e+00
  TP6r  SP5q  1 3.650000e-01    4.220000e+00
  TP6d  SP5r  1 3.650000e-01    3.640000e+00
  TP5r  SP5d  1 3.650000e-01    3.370000e+00
  TP5r  SN1d  1 3.780000e-01    1.450000e+00
  TP5r  SN2d  1 3.660000e-01    1.600000e+00
  TP5r  SN3d  1 3.650000e-01    1.750000e+00
  TP5r  SN4d  1 3.650000e-01    2.110000e+00
  TP5r  SN5d  1 3.650000e-01    2.110000e+00
  TP5r  SN6d  1 3.650000e-01    2.340000e+00
  TP5r  SP1d  1 3.650000e-01    2.570000e+00
  TP5r  SP2d  1 3.650000e-01    2.830000e+00
  TP5r  SP3d  1 3.650000e-01    2.830000e+00
  TP5r  SP4d  1 3.650000e-01    3.100000e+00
  TP6a  SP5r  1 3.650000e-01    3.640000e+00
  TP5r  SP5a  1 3.650000e-01    3.370000e+00
  TP5r  SN1a  1 3.780000e-01    1.450000e+00
  TP5r  SN2a  1 3.660000e-01    1.600000e+00
  TP5r  SN3a  1 3.650000e-01    1.750000e+00
  TP5r  SN4a  1 3.650000e-01    2.110000e+00
  TP5r  SN5a  1 3.650000e-01    2.110000e+00
  TP5r  SN6a  1 3.650000e-01    2.340000e+00
  TP5r  SP1a  1 3.650000e-01    2.570000e+00
  TP5r  SP2a  1 3.650000e-01    2.830000e+00
  TP5r  SP3a  1 3.650000e-01    2.830000e+00
  TP5r  SP4a  1 3.650000e-01    3.100000e+00
  TP5r  SC6v  1 3.660000e-01    1.600000e+00
  TP5r  SC5v  1 3.660000e-01    1.600000e+00
  TP5r  SC4v  1 3.780000e-01    1.450000e+00
  TP5r  SC3v  1 3.940000e-01    1.290000e+00
  TP5r  SC2v  1 3.940000e-01    1.290000e+00
  TP5r  SC1v  1 4.040000e-01    1.130000e+00
  TP5r  SX4v  1 3.650000e-01    1.910000e+00
  TP5r  SX3v  1 3.650000e-01    1.750000e+00
  TP5r  SX2v  1 3.650000e-01    1.750000e+00
  TP5r  SX1v  1 3.780000e-01    1.450000e+00
  TP5r  SC6e  1 3.660000e-01    1.600000e+00
  TP5r  SC5e  1 3.660000e-01    1.600000e+00
  TP5r  SC4e  1 3.780000e-01    1.450000e+00
  TP5r  SC3e  1 3.940000e-01    1.290000e+00
  TP5r  SC2e  1 3.940000e-01    1.290000e+00
  TP5r  SC1e  1 4.040000e-01    1.130000e+00
  TP5r  SX4e  1 3.650000e-01    1.910000e+00
  TP5r  SX3e  1 3.650000e-01    1.750000e+00
  TP5r  SX2e  1 3.650000e-01    1.750000e+00
  TP5r  SX1e  1 3.780000e-01    1.450000e+00
  TP6q  SP5r  1 3.650000e-01    4.220000e+00
  TP5r  SP5q  1 3.650000e-01    3.930000e+00
  TP5r  SX1q  1 3.660000e-01    1.600000e+00
  TP5r  SX2q  1 3.650000e-01    1.910000e+00
  TP5r  SX3q  1 3.650000e-01    1.910000e+00
  TP5r  SX4q  1 3.650000e-01    2.110000e+00
  TP5r  SC1q  1 3.940000e-01    1.290000e+00
  TP5r  SC2q  1 3.780000e-01    1.450000e+00
  TP5r  SC3q  1 3.780000e-01    1.450000e+00
  TP5r  SC4q  1 3.660000e-01    1.600000e+00
  TP5r  SC5q  1 3.650000e-01    1.750000e+00
  TP5r  SC6q  1 3.650000e-01    1.750000e+00
  TP5r  SN1q  1 3.650000e-01    1.750000e+00
  TP5r  SN2q  1 3.650000e-01    1.910000e+00
  TP5r  SN3q  1 3.650000e-01    2.110000e+00
  TP5r  SN4q  1 3.650000e-01    2.570000e+00
  TP5r  SN5q  1 3.650000e-01    2.570000e+00
  TP5r  SN6q  1 3.650000e-01    2.830000e+00
  TP5r  SP1q  1 3.650000e-01    3.100000e+00
  TP5r  SP2q  1 3.650000e-01    3.370000e+00
  TP5r  SP3q  1 3.650000e-01    3.370000e+00
  TP5r  SP4q  1 3.650000e-01    3.640000e+00
  TP6d  SP4r  1 3.650000e-01    3.370000e+00
  TP5d  SP4r  1 3.650000e-01    3.100000e+00
  TP4r  SP4d  1 3.650000e-01    3.100000e+00
  TP4r  SN1d  1 3.660000e-01    1.600000e+00
  TP4r  SN2d  1 3.650000e-01    1.750000e+00
  TP4r  SN3d  1 3.650000e-01    1.910000e+00
  TP4r  SN4d  1 3.650000e-01    2.110000e+00
  TP4r  SN5d  1 3.650000e-01    2.110000e+00
  TP4r  SN6d  1 3.650000e-01    2.340000e+00
  TP4r  SP1d  1 3.650000e-01    2.570000e+00
  TP4r  SP2d  1 3.650000e-01    2.830000e+00
  TP4r  SP3d  1 3.650000e-01    2.830000e+00
  TP6a  SP4r  1 3.650000e-01    3.370000e+00
  TP5a  SP4r  1 3.650000e-01    3.100000e+00
  TP4r  SP4a  1 3.650000e-01    3.100000e+00
  TP4r  SN1a  1 3.660000e-01    1.600000e+00
  TP4r  SN2a  1 3.650000e-01    1.750000e+00
  TP4r  SN3a  1 3.650000e-01    1.910000e+00
  TP4r  SN4a  1 3.650000e-01    2.110000e+00
  TP4r  SN5a  1 3.650000e-01    2.110000e+00
  TP4r  SN6a  1 3.650000e-01    2.340000e+00
  TP4r  SP1a  1 3.650000e-01    2.570000e+00
  TP4r  SP2a  1 3.650000e-01    2.830000e+00
  TP4r  SP3a  1 3.650000e-01    2.830000e+00
  TP4r  SC6v  1 3.650000e-01    1.750000e+00
  TP4r  SC5v  1 3.660000e-01    1.600000e+00
  TP4r  SC4v  1 3.780000e-01    1.450000e+00
  TP4r  SC3v  1 3.940000e-01    1.290000e+00
  TP4r  SC2v  1 3.940000e-01    1.290000e+00
  TP4r  SC1v  1 4.040000e-01    1.130000e+00
  TP4r  SX4v  1 3.650000e-01    1.910000e+00
  TP4r  SX3v  1 3.650000e-01    1.750000e+00
  TP4r  SX2v  1 3.650000e-01    1.750000e+00
  TP4r  SX1v  1 3.660000e-01    1.600000e+00
  TP4r  SC6e  1 3.650000e-01    1.750000e+00
  TP4r  SC5e  1 3.660000e-01    1.600000e+00
  TP4r  SC4e  1 3.780000e-01    1.450000e+00
  TP4r  SC3e  1 3.940000e-01    1.290000e+00
  TP4r  SC2e  1 3.940000e-01    1.290000e+00
  TP4r  SC1e  1 4.040000e-01    1.130000e+00
  TP4r  SX4e  1 3.650000e-01    1.910000e+00
  TP4r  SX3e  1 3.650000e-01    1.750000e+00
  TP4r  SX2e  1 3.650000e-01    1.750000e+00
  TP4r  SX1e  1 3.660000e-01    1.600000e+00
  TP6q  SP4r  1 3.650000e-01    3.930000e+00
  TP5q  SP4r  1 3.650000e-01    3.640000e+00
  TP4r  SP4q  1 3.650000e-01    3.640000e+00
  TP4r  SX1q  1 3.650000e-01    1.750000e+00
  TP4r  SX2q  1 3.650000e-01    1.910000e+00
  TP4r  SX3q  1 3.650000e-01    1.910000e+00
  TP4r  SX4q  1 3.650000e-01    2.110000e+00
  TP4r  SC1q  1 3.940000e-01    1.290000e+00
  TP4r  SC2q  1 3.780000e-01    1.450000e+00
  TP4r  SC3q  1 3.780000e-01    1.450000e+00
  TP4r  SC4q  1 3.660000e-01    1.600000e+00
  TP4r  SC5q  1 3.650000e-01    1.750000e+00
  TP4r  SC6q  1 3.650000e-01    1.910000e+00
  TP4r  SN1q  1 3.650000e-01    1.910000e+00
  TP4r  SN2q  1 3.650000e-01    2.110000e+00
  TP4r  SN3q  1 3.650000e-01    2.340000e+00
  TP4r  SN4q  1 3.650000e-01    2.570000e+00
  TP4r  SN5q  1 3.650000e-01    2.570000e+00
  TP4r  SN6q  1 3.650000e-01    2.830000e+00
  TP4r  SP1q  1 3.650000e-01    3.100000e+00
  TP4r  SP2q  1 3.650000e-01    3.370000e+00
  TP4r  SP3q  1 3.650000e-01    3.370000e+00
  TP6d  SP3r  1 3.650000e-01    3.100000e+00
  TP5d  SP3r  1 3.650000e-01    2.830000e+00
  TP4d  SP3r  1 3.650000e-01    2.830000e+00
  TP3r  SP3d  1 3.650000e-01    2.830000e+00
  TP3r  SN1d  1 3.650000e-01    1.750000e+00
  TP3r  SN2d  1 3.650000e-01    1.910000e+00
  TP3r  SN3d  1 3.650000e-01    1.910000e+00
  TP3r  SN4d  1 3.650000e-01    2.110000e+00
  TP3r  SN5d  1 3.650000e-01    2.110000e+00
  TP3r  SN6d  1 3.650000e-01    2.340000e+00
  TP3r  SP1d  1 3.650000e-01    2.570000e+00
  TP3r  SP2d  1 3.650000e-01    2.830000e+00
  TP6a  SP3r  1 3.650000e-01    3.100000e+00
  TP5a  SP3r  1 3.650000e-01    2.830000e+00
  TP4a  SP3r  1 3.650000e-01    2.830000e+00
  TP3r  SP3a  1 3.650000e-01    2.830000e+00
  TP3r  SN1a  1 3.650000e-01    1.750000e+00
  TP3r  SN2a  1 3.650000e-01    1.910000e+00
  TP3r  SN3a  1 3.650000e-01    1.910000e+00
  TP3r  SN4a  1 3.650000e-01    2.110000e+00
  TP3r  SN5a  1 3.650000e-01    2.110000e+00
  TP3r  SN6a  1 3.650000e-01    2.340000e+00
  TP3r  SP1a  1 3.650000e-01    2.570000e+00
  TP3r  SP2a  1 3.650000e-01    2.830000e+00
  TP3r  SC6v  1 3.650000e-01    1.910000e+00
  TP3r  SC5v  1 3.650000e-01    1.750000e+00
  TP3r  SC4v  1 3.660000e-01    1.600000e+00
  TP3r  SC3v  1 3.940000e-01    1.290000e+00
  TP3r  SC2v  1 3.940000e-01    1.290000e+00
  TP3r  SC1v  1 4.040000e-01    1.130000e+00
  TP3r  SX4v  1 3.650000e-01    1.910000e+00
  TP3r  SX3v  1 3.650000e-01    1.910000e+00
  TP3r  SX2v  1 3.650000e-01    1.750000e+00
  TP3r  SX1v  1 3.660000e-01    1.600000e+00
  TP3r  SC6e  1 3.650000e-01    1.910000e+00
  TP3r  SC5e  1 3.650000e-01    1.750000e+00
  TP3r  SC4e  1 3.660000e-01    1.600000e+00
  TP3r  SC3e  1 3.940000e-01    1.290000e+00
  TP3r  SC2e  1 3.940000e-01    1.290000e+00
  TP3r  SC1e  1 4.040000e-01    1.130000e+00
  TP3r  SX4e  1 3.650000e-01    1.910000e+00
  TP3r  SX3e  1 3.650000e-01    1.910000e+00
  TP3r  SX2e  1 3.650000e-01    1.750000e+00
  TP3r  SX1e  1 3.660000e-01    1.600000e+00
  TP6q  SP3r  1 3.650000e-01    3.640000e+00
  TP5q  SP3r  1 3.650000e-01    3.370000e+00
  TP4q  SP3r  1 3.650000e-01    3.370000e+00
  TP3r  SP3q  1 3.650000e-01    3.370000e+00
  TP3r  SX1q  1 3.650000e-01    1.750000e+00
  TP3r  SX2q  1 3.650000e-01    1.910000e+00
  TP3r  SX3q  1 3.650000e-01    2.110000e+00
  TP3r  SX4q  1 3.650000e-01    2.110000e+00
  TP3r  SC1q  1 3.940000e-01    1.290000e+00
  TP3r  SC2q  1 3.780000e-01    1.450000e+00
  TP3r  SC3q  1 3.780000e-01    1.450000e+00
  TP3r  SC4q  1 3.650000e-01    1.750000e+00
  TP3r  SC5q  1 3.650000e-01    1.910000e+00
  TP3r  SC6q  1 3.650000e-01    2.110000e+00
  TP3r  SN1q  1 3.650000e-01    2.110000e+00
  TP3r  SN2q  1 3.650000e-01    2.340000e+00
  TP3r  SN3q  1 3.650000e-01    2.340000e+00
  TP3r  SN4q  1 3.650000e-01    2.570000e+00
  TP3r  SN5q  1 3.650000e-01    2.570000e+00
  TP3r  SN6q  1 3.650000e-01    2.830000e+00
  TP3r  SP1q  1 3.650000e-01    3.100000e+00
  TP3r  SP2q  1 3.650000e-01    3.370000e+00
  TP6d  SP2r  1 3.650000e-01    3.100000e+00
  TP5d  SP2r  1 3.650000e-01    2.830000e+00
  TP4d  SP2r  1 3.650000e-01    2.830000e+00
  TP3d  SP2r  1 3.650000e-01    2.830000e+00
  TP2r  SP2d  1 3.650000e-01    2.830000e+00
  TP2r  SN1d  1 3.650000e-01    1.910000e+00
  TP2r  SN2d  1 3.650000e-01    1.910000e+00
  TP2r  SN3d  1 3.650000e-01    1.910000e+00
  TP2r  SN4d  1 3.650000e-01    2.110000e+00
  TP2r  SN5d  1 3.650000e-01    2.340000e+00
  TP2r  SN6d  1 3.650000e-01    2.570000e+00
  TP2r  SP1d  1 3.650000e-01    2.570000e+00
  TP6a  SP2r  1 3.650000e-01    3.100000e+00
  TP5a  SP2r  1 3.650000e-01    2.830000e+00
  TP4a  SP2r  1 3.650000e-01    2.830000e+00
  TP3a  SP2r  1 3.650000e-01    2.830000e+00
  TP2r  SP2a  1 3.650000e-01    2.830000e+00
  TP2r  SN1a  1 3.650000e-01    1.910000e+00
  TP2r  SN2a  1 3.650000e-01    1.910000e+00
  TP2r  SN3a  1 3.650000e-01    1.910000e+00
  TP2r  SN4a  1 3.650000e-01    2.110000e+00
  TP2r  SN5a  1 3.650000e-01    2.340000e+00
  TP2r  SN6a  1 3.650000e-01    2.570000e+00
  TP2r  SP1a  1 3.650000e-01    2.570000e+00
  TP2r  SC6v  1 3.650000e-01    1.910000e+00
  TP2r  SC5v  1 3.650000e-01    1.750000e+00
  TP2r  SC4v  1 3.660000e-01    1.600000e+00
  TP2r  SC3v  1 3.780000e-01    1.450000e+00
  TP2r  SC2v  1 3.780000e-01    1.450000e+00
  TP2r  SC1v  1 3.940000e-01    1.290000e+00
  TP2r  SX4v  1 3.650000e-01    1.910000e+00
  TP2r  SX3v  1 3.650000e-01    1.910000e+00
  TP2r  SX2v  1 3.650000e-01    1.750000e+00
  TP2r  SX1v  1 3.660000e-01    1.600000e+00
  TP2r  SC6e  1 3.650000e-01    1.910000e+00
  TP2r  SC5e  1 3.650000e-01    1.750000e+00
  TP2r  SC4e  1 3.660000e-01    1.600000e+00
  TP2r  SC3e  1 3.780000e-01    1.450000e+00
  TP2r  SC2e  1 3.780000e-01    1.450000e+00
  TP2r  SC1e  1 3.940000e-01    1.290000e+00
  TP2r  SX4e  1 3.650000e-01    1.910000e+00
  TP2r  SX3e  1 3.650000e-01    1.910000e+00
  TP2r  SX2e  1 3.650000e-01    1.750000e+00
  TP2r  SX1e  1 3.660000e-01    1.600000e+00
  TP6q  SP2r  1 3.650000e-01    3.640000e+00
  TP5q  SP2r  1 3.650000e-01    3.370000e+00
  TP4q  SP2r  1 3.650000e-01    3.370000e+00
  TP3q  SP2r  1 3.650000e-01    3.370000e+00
  TP2r  SP2q  1 3.650000e-01    3.370000e+00
  TP2r  SX1q  1 3.650000e-01    1.750000e+00
  TP2r  SX2q  1 3.650000e-01    1.910000e+00
  TP2r  SX3q  1 3.650000e-01    2.110000e+00
  TP2r  SX4q  1 3.650000e-01    2.110000e+00
  TP2r  SC1q  1 3.780000e-01    1.450000e+00
  TP2r  SC2q  1 3.660000e-01    1.600000e+00
  TP2r  SC3q  1 3.660000e-01    1.600000e+00
  TP2r  SC4q  1 3.650000e-01    1.750000e+00
  TP2r  SC5q  1 3.650000e-01    1.910000e+00
  TP2r  SC6q  1 3.650000e-01    2.110000e+00
  TP2r  SN1q  1 3.650000e-01    2.340000e+00
  TP2r  SN2q  1 3.650000e-01    2.340000e+00
  TP2r  SN3q  1 3.650000e-01    2.340000e+00
  TP2r  SN4q  1 3.650000e-01    2.570000e+00
  TP2r  SN5q  1 3.650000e-01    2.830000e+00
  TP2r  SN6q  1 3.650000e-01    3.100000e+00
  TP2r  SP1q  1 3.650000e-01    3.100000e+00
  TP6d  SP1r  1 3.650000e-01    2.830000e+00
  TP5d  SP1r  1 3.650000e-01    2.570000e+00
  TP4d  SP1r  1 3.650000e-01    2.570000e+00
  TP3d  SP1r  1 3.650000e-01    2.570000e+00
  TP2d  SP1r  1 3.650000e-01    2.570000e+00
  TP1r  SP1d  1 3.650000e-01    2.570000e+00
  TP1r  SN1d  1 3.650000e-01    1.910000e+00
  TP1r  SN2d  1 3.650000e-01    1.910000e+00
  TP1r  SN3d  1 3.650000e-01    1.910000e+00
  TP1r  SN4d  1 3.650000e-01    2.340000e+00
  TP1r  SN5d  1 3.650000e-01    2.340000e+00
  TP1r  SN6d  1 3.650000e-01    2.570000e+00
  TP6a  SP1r  1 3.650000e-01    2.830000e+00
  TP5a  SP1r  1 3.650000e-01    2.570000e+00
  TP4a  SP1r  1 3.650000e-01    2.570000e+00
  TP3a  SP1r  1 3.650000e-01    2.570000e+00
  TP2a  SP1r  1 3.650000e-01    2.570000e+00
  TP1r  SP1a  1 3.650000e-01    2.570000e+00
  TP1r  SN1a  1 3.650000e-01    1.910000e+00
  TP1r  SN2a  1 3.650000e-01    1.910000e+00
  TP1r  SN3a  1 3.650000e-01    1.910000e+00
  TP1r  SN4a  1 3.650000e-01    2.340000e+00
  TP1r  SN5a  1 3.650000e-01    2.340000e+00
  TP1r  SN6a  1 3.650000e-01    2.570000e+00
  TP1r  SC6v  1 3.650000e-01    1.910000e+00
  TP1r  SC5v  1 3.650000e-01    1.750000e+00
  TP1r  SC4v  1 3.660000e-01    1.600000e+00
  TP1r  SC3v  1 3.780000e-01    1.450000e+00
  TP1r  SC2v  1 3.780000e-01    1.450000e+00
  TP1r  SC1v  1 3.940000e-01    1.290000e+00
  TP1r  SX4v  1 3.650000e-01    1.910000e+00
  TP1r  SX3v  1 3.650000e-01    1.910000e+00
  TP1r  SX2v  1 3.650000e-01    1.750000e+00
  TP1r  SX1v  1 3.660000e-01    1.600000e+00
  TP1r  SC6e  1 3.650000e-01    1.910000e+00
  TP1r  SC5e  1 3.650000e-01    1.750000e+00
  TP1r  SC4e  1 3.660000e-01    1.600000e+00
  TP1r  SC3e  1 3.780000e-01    1.450000e+00
  TP1r  SC2e  1 3.780000e-01    1.450000e+00
  TP1r  SC1e  1 3.940000e-01    1.290000e+00
  TP1r  SX4e  1 3.650000e-01    1.910000e+00
  TP1r  SX3e  1 3.650000e-01    1.910000e+00
  TP1r  SX2e  1 3.650000e-01    1.750000e+00
  TP1r  SX1e  1 3.660000e-01    1.600000e+00
  TP6q  SP1r  1 3.650000e-01    3.370000e+00
  TP5q  SP1r  1 3.650000e-01    3.100000e+00
  TP4q  SP1r  1 3.650000e-01    3.100000e+00
  TP3q  SP1r  1 3.650000e-01    3.100000e+00
  TP2q  SP1r  1 3.650000e-01    3.100000e+00
  TP1r  SP1q  1 3.650000e-01    3.100000e+00
  TP1r  SX1q  1 3.650000e-01    1.750000e+00
  TP1r  SX2q  1 3.650000e-01    1.910000e+00
  TP1r  SX3q  1 3.650000e-01    2.110000e+00
  TP1r  SX4q  1 3.650000e-01    2.110000e+00
  TP1r  SC1q  1 3.780000e-01    1.450000e+00
  TP1r  SC2q  1 3.660000e-01    1.600000e+00
  TP1r  SC3q  1 3.660000e-01    1.600000e+00
  TP1r  SC4q  1 3.650000e-01    1.750000e+00
  TP1r  SC5q  1 3.650000e-01    1.910000e+00
  TP1r  SC6q  1 3.650000e-01    2.110000e+00
  TP1r  SN1q  1 3.650000e-01    2.340000e+00
  TP1r  SN2q  1 3.650000e-01    2.340000e+00
  TP1r  SN3q  1 3.650000e-01    2.340000e+00
  TP1r  SN4q  1 3.650000e-01    2.830000e+00
  TP1r  SN5q  1 3.650000e-01    2.830000e+00
  TP1r  SN6q  1 3.650000e-01    3.100000e+00
  TP6d  SN6r  1 3.650000e-01    2.570000e+00
  TP5d  SN6r  1 3.650000e-01    2.340000e+00
  TP4d  SN6r  1 3.650000e-01    2.340000e+00
  TP3d  SN6r  1 3.650000e-01    2.340000e+00
  TP2d  SN6r  1 3.650000e-01    2.570000e+00
  TP1d  SN6r  1 3.650000e-01    2.570000e+00
  TN6r  SN6d  1 3.650000e-01    2.570000e+00
  TN6r  SN1d  1 3.650000e-01    1.910000e+00
  TN6r  SN2d  1 3.650000e-01    1.910000e+00
  TN6r  SN3d  1 3.650000e-01    2.110000e+00
  TN6r  SN4d  1 3.650000e-01    2.570000e+00
  TN6r  SN5d  1 3.650000e-01    2.570000e+00
  TP6a  SN6r  1 3.650000e-01    2.570000e+00
  TP5a  SN6r  1 3.650000e-01    2.340000e+00
  TP4a  SN6r  1 3.650000e-01    2.340000e+00
  TP3a  SN6r  1 3.650000e-01    2.340000e+00
  TP2a  SN6r  1 3.650000e-01    2.570000e+00
  TP1a  SN6r  1 3.650000e-01    2.570000e+00
  TN6r  SN6a  1 3.650000e-01    2.570000e+00
  TN6r  SN1a  1 3.650000e-01    1.910000e+00
  TN6r  SN2a  1 3.650000e-01    1.910000e+00
  TN6r  SN3a  1 3.650000e-01    2.110000e+00
  TN6r  SN4a  1 3.650000e-01    2.570000e+00
  TN6r  SN5a  1 3.650000e-01    2.570000e+00
  TN6r  SC6v  1 3.650000e-01    2.110000e+00
  TN6r  SC5v  1 3.650000e-01    1.910000e+00
  TN6r  SC4v  1 3.650000e-01    1.750000e+00
  TN6r  SC3v  1 3.660000e-01    1.600000e+00
  TN6r  SC2v  1 3.660000e-01    1.600000e+00
  TN6r  SC1v  1 3.780000e-01    1.450000e+00
  TN6r  SX4v  1 3.650000e-01    2.110000e+00
  TN6r  SX3v  1 3.650000e-01    1.910000e+00
  TN6r  SX2v  1 3.650000e-01    1.750000e+00
  TN6r  SX1v  1 3.660000e-01    1.600000e+00
  TN6r  SC6e  1 3.650000e-01    2.110000e+00
  TN6r  SC5e  1 3.650000e-01    1.910000e+00
  TN6r  SC4e  1 3.650000e-01    1.750000e+00
  TN6r  SC3e  1 3.660000e-01    1.600000e+00
  TN6r  SC2e  1 3.660000e-01    1.600000e+00
  TN6r  SC1e  1 3.780000e-01    1.450000e+00
  TN6r  SX4e  1 3.650000e-01    2.110000e+00
  TN6r  SX3e  1 3.650000e-01    1.910000e+00
  TN6r  SX2e  1 3.650000e-01    1.750000e+00
  TN6r  SX1e  1 3.660000e-01    1.600000e+00
  TP6q  SN6r  1 3.650000e-01    3.100000e+00
  TP5q  SN6r  1 3.650000e-01    2.830000e+00
  TP4q  SN6r  1 3.650000e-01    2.830000e+00
  TP3q  SN6r  1 3.650000e-01    2.830000e+00
  TP2q  SN6r  1 3.650000e-01    3.100000e+00
  TP1q  SN6r  1 3.650000e-01    3.100000e+00
  TN6r  SN6q  1 3.650000e-01    3.100000e+00
  TN6r  SX1q  1 3.650000e-01    1.750000e+00
  TN6r  SX2q  1 3.650000e-01    1.910000e+00
  TN6r  SX3q  1 3.650000e-01    2.110000e+00
  TN6r  SX4q  1 3.650000e-01    2.340000e+00
  TN6r  SC1q  1 3.660000e-01    1.600000e+00
  TN6r  SC2q  1 3.650000e-01    1.750000e+00
  TN6r  SC3q  1 3.650000e-01    1.750000e+00
  TN6r  SC4q  1 3.650000e-01    1.910000e+00
  TN6r  SC5q  1 3.650000e-01    2.110000e+00
  TN6r  SC6q  1 3.650000e-01    2.340000e+00
  TN6r  SN1q  1 3.650000e-01    2.340000e+00
  TN6r  SN2q  1 3.650000e-01    2.340000e+00
  TN6r  SN3q  1 3.650000e-01    2.570000e+00
  TN6r  SN4q  1 3.650000e-01    3.100000e+00
  TN6r  SN5q  1 3.650000e-01    3.100000e+00
  TP6d  SN5r  1 3.650000e-01    2.110000e+00
  TP5d  SN5r  1 3.650000e-01    2.110000e+00
  TP4d  SN5r  1 3.650000e-01    2.110000e+00
  TP3d  SN5r  1 3.650000e-01    2.110000e+00
  TP2d  SN5r  1 3.650000e-01    2.340000e+00
  TP1d  SN5r  1 3.650000e-01    2.340000e+00
  TN6d  SN5r  1 3.650000e-01    2.570000e+00
  TN5r  SN5d  1 3.650000e-01    2.340000e+00
  TN5r  SN1d  1 3.650000e-01    1.910000e+00
  TN5r  SN2d  1 3.650000e-01    2.110000e+00
  TN5r  SN3d  1 3.650000e-01    2.110000e+00
  TN5r  SN4d  1 3.650000e-01    2.340000e+00
  TP6a  SN5r  1 3.650000e-01    2.110000e+00
  TP5a  SN5r  1 3.650000e-01    2.110000e+00
  TP4a  SN5r  1 3.650000e-01    2.110000e+00
  TP3a  SN5r  1 3.650000e-01    2.110000e+00
  TP2a  SN5r  1 3.650000e-01    2.340000e+00
  TP1a  SN5r  1 3.650000e-01    2.340000e+00
  TN6a  SN5r  1 3.650000e-01    2.570000e+00
  TN5r  SN5a  1 3.650000e-01    2.340000e+00
  TN5r  SN1a  1 3.650000e-01    1.910000e+00
  TN5r  SN2a  1 3.650000e-01    2.110000e+00
  TN5r  SN3a  1 3.650000e-01    2.110000e+00
  TN5r  SN4a  1 3.650000e-01    2.340000e+00
  TN5r  SC6v  1 3.650000e-01    2.110000e+00
  TN5r  SC5v  1 3.650000e-01    1.910000e+00
  TN5r  SC4v  1 3.650000e-01    1.750000e+00
  TN5r  SC3v  1 3.650000e-01    1.750000e+00
  TN5r  SC2v  1 3.660000e-01    1.600000e+00
  TN5r  SC1v  1 3.780000e-01    1.450000e+00
  TN5r  SX4v  1 3.650000e-01    2.340000e+00
  TN5r  SX3v  1 3.650000e-01    2.110000e+00
  TN5r  SX2v  1 3.650000e-01    1.910000e+00
  TN5r  SX1v  1 3.650000e-01    1.750000e+00
  TN5r  SC6e  1 3.650000e-01    2.110000e+00
  TN5r  SC5e  1 3.650000e-01    1.910000e+00
  TN5r  SC4e  1 3.650000e-01    1.750000e+00
  TN5r  SC3e  1 3.650000e-01    1.750000e+00
  TN5r  SC2e  1 3.660000e-01    1.600000e+00
  TN5r  SC1e  1 3.780000e-01    1.450000e+00
  TN5r  SX4e  1 3.650000e-01    2.340000e+00
  TN5r  SX3e  1 3.650000e-01    2.110000e+00
  TN5r  SX2e  1 3.650000e-01    1.910000e+00
  TN5r  SX1e  1 3.650000e-01    1.750000e+00
  TP6q  SN5r  1 3.650000e-01    2.570000e+00
  TP5q  SN5r  1 3.650000e-01    2.570000e+00
  TP4q  SN5r  1 3.650000e-01    2.570000e+00
  TP3q  SN5r  1 3.650000e-01    2.570000e+00
  TP2q  SN5r  1 3.650000e-01    2.830000e+00
  TP1q  SN5r  1 3.650000e-01    2.830000e+00
  TN6q  SN5r  1 3.650000e-01    3.100000e+00
  TN5r  SN5q  1 3.650000e-01    2.830000e+00
  TN5r  SX1q  1 3.650000e-01    1.910000e+00
  TN5r  SX2q  1 3.650000e-01    2.110000e+00
  TN5r  SX3q  1 3.650000e-01    2.340000e+00
  TN5r  SX4q  1 3.650000e-01    2.570000e+00
  TN5r  SC1q  1 3.660000e-01    1.600000e+00
  TN5r  SC2q  1 3.650000e-01    1.750000e+00
  TN5r  SC3q  1 3.650000e-01    1.910000e+00
  TN5r  SC4q  1 3.650000e-01    1.910000e+00
  TN5r  SC5q  1 3.650000e-01    2.110000e+00
  TN5r  SC6q  1 3.650000e-01    2.340000e+00
  TN5r  SN1q  1 3.650000e-01    2.340000e+00
  TN5r  SN2q  1 3.650000e-01    2.570000e+00
  TN5r  SN3q  1 3.650000e-01    2.570000e+00
  TN5r  SN4q  1 3.650000e-01    2.830000e+00
  TP6d  SN4r  1 3.650000e-01    1.910000e+00
  TP5d  SN4r  1 3.650000e-01    2.110000e+00
  TP4d  SN4r  1 3.650000e-01    2.110000e+00
  TP3d  SN4r  1 3.650000e-01    2.110000e+00
  TP2d  SN4r  1 3.650000e-01    2.110000e+00
  TP1d  SN4r  1 3.650000e-01    2.340000e+00
  TN6d  SN4r  1 3.650000e-01    2.570000e+00
  TN5d  SN4r  1 3.650000e-01    2.340000e+00
  TN4r  SN4d  1 3.650000e-01    2.340000e+00
  TN4r  SN1d  1 3.650000e-01    1.910000e+00
  TN4r  SN2d  1 3.650000e-01    2.110000e+00
  TN4r  SN3d  1 3.650000e-01    2.110000e+00
  TP6a  SN4r  1 3.650000e-01    1.910000e+00
  TP5a  SN4r  1 3.650000e-01    2.110000e+00
  TP4a  SN4r  1 3.650000e-01    2.110000e+00
  TP3a  SN4r  1 3.650000e-01    2.110000e+00
  TP2a  SN4r  1 3.650000e-01    2.110000e+00
  TP1a  SN4r  1 3.650000e-01    2.340000e+00
  TN6a  SN4r  1 3.650000e-01    2.570000e+00
  TN5a  SN4r  1 3.650000e-01    2.340000e+00
  TN4r  SN4a  1 3.650000e-01    2.340000e+00
  TN4r  SN1a  1 3.650000e-01    1.910000e+00
  TN4r  SN2a  1 3.650000e-01    2.110000e+00
  TN4r  SN3a  1 3.650000e-01    2.110000e+00
  TN4r  SC6v  1 3.650000e-01    2.110000e+00
  TN4r  SC5v  1 3.650000e-01    1.910000e+00
  TN4r  SC4v  1 3.650000e-01    1.910000e+00
  TN4r  SC3v  1 3.650000e-01    1.750000e+00
  TN4r  SC2v  1 3.660000e-01    1.600000e+00
  TN4r  SC1v  1 3.780000e-01    1.450000e+00
  TN4r  SX4v  1 3.650000e-01    2.570000e+00
  TN4r  SX3v  1 3.650000e-01    2.340000e+00
  TN4r  SX2v  1 3.650000e-01    1.910000e+00
  TN4r  SX1v  1 3.650000e-01    1.750000e+00
  TN4r  SC6e  1 3.650000e-01    2.110000e+00
  TN4r  SC5e  1 3.650000e-01    1.910000e+00
  TN4r  SC4e  1 3.650000e-01    1.910000e+00
  TN4r  SC3e  1 3.650000e-01    1.750000e+00
  TN4r  SC2e  1 3.660000e-01    1.600000e+00
  TN4r  SC1e  1 3.780000e-01    1.450000e+00
  TN4r  SX4e  1 3.650000e-01    2.570000e+00
  TN4r  SX3e  1 3.650000e-01    2.340000e+00
  TN4r  SX2e  1 3.650000e-01    1.910000e+00
  TN4r  SX1e  1 3.650000e-01    1.750000e+00
  TP6q  SN4r  1 3.650000e-01    2.340000e+00
  TP5q  SN4r  1 3.650000e-01    2.570000e+00
  TP4q  SN4r  1 3.650000e-01    2.570000e+00
  TP3q  SN4r  1 3.650000e-01    2.570000e+00
  TP2q  SN4r  1 3.650000e-01    2.570000e+00
  TP1q  SN4r  1 3.650000e-01    2.830000e+00
  TN6q  SN4r  1 3.650000e-01    3.100000e+00
  TN5q  SN4r  1 3.650000e-01    2.830000e+00
  TN4r  SN4q  1 3.650000e-01    2.830000e+00
  TN4r  SX1q  1 3.650000e-01    1.910000e+00
  TN4r  SX2q  1 3.650000e-01    2.110000e+00
  TN4r  SX3q  1 3.650000e-01    2.570000e+00
  TN4r  SX4q  1 3.650000e-01    2.830000e+00
  TN4r  SC1q  1 3.660000e-01    1.600000e+00
  TN4r  SC2q  1 3.650000e-01    1.750000e+00
  TN4r  SC3q  1 3.650000e-01    1.910000e+00
  TN4r  SC4q  1 3.650000e-01    2.110000e+00
  TN4r  SC5q  1 3.650000e-01    2.110000e+00
  TN4r  SC6q  1 3.650000e-01    2.340000e+00
  TN4r  SN1q  1 3.650000e-01    2.340000e+00
  TN4r  SN2q  1 3.650000e-01    2.570000e+00
  TN4r  SN3q  1 3.650000e-01    2.570000e+00
  TP6d  SN3r  1 3.650000e-01    1.750000e+00
  TP5d  SN3r  1 3.650000e-01    1.750000e+00
  TP4d  SN3r  1 3.650000e-01    1.910000e+00
  TP3d  SN3r  1 3.650000e-01    1.910000e+00
  TP2d  SN3r  1 3.650000e-01    1.910000e+00
  TP1d  SN3r  1 3.650000e-01    1.910000e+00
  TN6d  SN3r  1 3.650000e-01    2.110000e+00
  TN5d  SN3r  1 3.650000e-01    2.110000e+00
  TN4d  SN3r  1 3.650000e-01    2.110000e+00
  TN3r  SN3d  1 3.650000e-01    2.110000e+00
  TN3r  SN1d  1 3.650000e-01    1.910000e+00
  TN3r  SN2d  1 3.650000e-01    2.110000e+00
  TP6a  SN3r  1 3.650000e-01    1.750000e+00
  TP5a  SN3r  1 3.650000e-01    1.750000e+00
  TP4a  SN3r  1 3.650000e-01    1.910000e+00
  TP3a  SN3r  1 3.650000e-01    1.910000e+00
  TP2a  SN3r  1 3.650000e-01    1.910000e+00
  TP1a  SN3r  1 3.650000e-01    1.910000e+00
  TN6a  SN3r  1 3.650000e-01    2.110000e+00
  TN5a  SN3r  1 3.650000e-01    2.110000e+00
  TN4a  SN3r  1 3.650000e-01    2.110000e+00
  TN3r  SN3a  1 3.650000e-01    2.110000e+00
  TN3r  SN1a  1 3.650000e-01    1.910000e+00
  TN3r  SN2a  1 3.650000e-01    2.110000e+00
  TN3r  SC6v  1 3.650000e-01    2.110000e+00
  TN3r  SC5v  1 3.650000e-01    1.910000e+00
  TN3r  SC4v  1 3.650000e-01    1.910000e+00
  TN3r  SC3v  1 3.650000e-01    1.750000e+00
  TN3r  SC2v  1 3.650000e-01    1.750000e+00
  TN3r  SC1v  1 3.660000e-01    1.600000e+00
  TN3r  SX4v  1 3.650000e-01    2.340000e+00
  TN3r  SX3v  1 3.650000e-01    2.110000e+00
  TN3r  SX2v  1 3.650000e-01    1.910000e+00
  TN3r  SX1v  1 3.650000e-01    1.910000e+00
  TN3r  SC6e  1 3.650000e-01    2.110000e+00
  TN3r  SC5e  1 3.650000e-01    1.910000e+00
  TN3r  SC4e  1 3.650000e-01    1.910000e+00
  TN3r  SC3e  1 3.650000e-01    1.750000e+00
  TN3r  SC2e  1 3.650000e-01    1.750000e+00
  TN3r  SC1e  1 3.660000e-01    1.600000e+00
  TN3r  SX4e  1 3.650000e-01    2.340000e+00
  TN3r  SX3e  1 3.650000e-01    2.110000e+00
  TN3r  SX2e  1 3.650000e-01    1.910000e+00
  TN3r  SX1e  1 3.650000e-01    1.910000e+00
  TP6q  SN3r  1 3.650000e-01    2.110000e+00
  TP5q  SN3r  1 3.650000e-01    2.110000e+00
  TP4q  SN3r  1 3.650000e-01    2.340000e+00
  TP3q  SN3r  1 3.650000e-01    2.340000e+00
  TP2q  SN3r  1 3.650000e-01    2.340000e+00
  TP1q  SN3r  1 3.650000e-01    2.340000e+00
  TN6q  SN3r  1 3.650000e-01    2.570000e+00
  TN5q  SN3r  1 3.650000e-01    2.570000e+00
  TN4q  SN3r  1 3.650000e-01    2.570000e+00
  TN3r  SN3q  1 3.650000e-01    2.570000e+00
  TN3r  SX1q  1 3.650000e-01    2.110000e+00
  TN3r  SX2q  1 3.650000e-01    2.110000e+00
  TN3r  SX3q  1 3.650000e-01    2.340000e+00
  TN3r  SX4q  1 3.650000e-01    2.570000e+00
  TN3r  SC1q  1 3.650000e-01    1.750000e+00
  TN3r  SC2q  1 3.650000e-01    1.910000e+00
  TN3r  SC3q  1 3.650000e-01    1.910000e+00
  TN3r  SC4q  1 3.650000e-01    2.110000e+00
  TN3r  SC5q  1 3.650000e-01    2.110000e+00
  TN3r  SC6q  1 3.650000e-01    2.340000e+00
  TN3r  SN1q  1 3.650000e-01    2.340000e+00
  TN3r  SN2q  1 3.650000e-01    2.570000e+00
  TP6d  SN2r  1 3.660000e-01    1.600000e+00
  TP5d  SN2r  1 3.660000e-01    1.600000e+00
  TP4d  SN2r  1 3.650000e-01    1.750000e+00
  TP3d  SN2r  1 3.650000e-01    1.910000e+00
  TP2d  SN2r  1 3.650000e-01    1.910000e+00
  TP1d  SN2r  1 3.650000e-01    1.910000e+00
  TN6d  SN2r  1 3.650000e-01    1.910000e+00
  TN5d  SN2r  1 3.650000e-01    2.110000e+00
  TN4d  SN2r  1 3.650000e-01    2.110000e+00
  TN3d  SN2r  1 3.650000e-01    2.110000e+00
  TN2r  SN2d  1 3.650000e-01    2.110000e+00
  TN2r  SN1d  1 3.650000e-01    1.910000e+00
  TP6a  SN2r  1 3.660000e-01    1.600000e+00
  TP5a  SN2r  1 3.660000e-01    1.600000e+00
  TP4a  SN2r  1 3.650000e-01    1.750000e+00
  TP3a  SN2r  1 3.650000e-01    1.910000e+00
  TP2a  SN2r  1 3.650000e-01    1.910000e+00
  TP1a  SN2r  1 3.650000e-01    1.910000e+00
  TN6a  SN2r  1 3.650000e-01    1.910000e+00
  TN5a  SN2r  1 3.650000e-01    2.110000e+00
  TN4a  SN2r  1 3.650000e-01    2.110000e+00
  TN3a  SN2r  1 3.650000e-01    2.110000e+00
  TN2r  SN2a  1 3.650000e-01    2.110000e+00
  TN2r  SN1a  1 3.650000e-01    1.910000e+00
  TN2r  SC6v  1 3.650000e-01    2.110000e+00
  TN2r  SC5v  1 3.650000e-01    1.910000e+00
  TN2r  SC4v  1 3.650000e-01    1.910000e+00
  TN2r  SC3v  1 3.650000e-01    1.910000e+00
  TN2r  SC2v  1 3.650000e-01    1.750000e+00
  TN2r  SC1v  1 3.660000e-01    1.600000e+00
  TN2r  SX4v  1 3.650000e-01    2.340000e+00
  TN2r  SX3v  1 3.650000e-01    2.110000e+00
  TN2r  SX2v  1 3.650000e-01    1.910000e+00
  TN2r  SX1v  1 3.650000e-01    1.910000e+00
  TN2r  SC6e  1 3.650000e-01    2.110000e+00
  TN2r  SC5e  1 3.650000e-01    1.910000e+00
  TN2r  SC4e  1 3.650000e-01    1.910000e+00
  TN2r  SC3e  1 3.650000e-01    1.910000e+00
  TN2r  SC2e  1 3.650000e-01    1.750000e+00
  TN2r  SC1e  1 3.660000e-01    1.600000e+00
  TN2r  SX4e  1 3.650000e-01    2.340000e+00
  TN2r  SX3e  1 3.650000e-01    2.110000e+00
  TN2r  SX2e  1 3.650000e-01    1.910000e+00
  TN2r  SX1e  1 3.650000e-01    1.910000e+00
  TP6q  SN2r  1 3.650000e-01    1.910000e+00
  TP5q  SN2r  1 3.650000e-01    1.910000e+00
  TP4q  SN2r  1 3.650000e-01    2.110000e+00
  TP3q  SN2r  1 3.650000e-01    2.340000e+00
  TP2q  SN2r  1 3.650000e-01    2.340000e+00
  TP1q  SN2r  1 3.650000e-01    2.340000e+00
  TN6q  SN2r  1 3.650000e-01    2.340000e+00
  TN5q  SN2r  1 3.650000e-01    2.570000e+00
  TN4q  SN2r  1 3.650000e-01    2.570000e+00
  TN3q  SN2r  1 3.650000e-01    2.570000e+00
  TN2r  SN2q  1 3.650000e-01    2.570000e+00
  TN2r  SX1q  1 3.650000e-01    2.110000e+00
  TN2r  SX2q  1 3.650000e-01    2.110000e+00
  TN2r  SX3q  1 3.650000e-01    2.340000e+00
  TN2r  SX4q  1 3.650000e-01    2.570000e+00
  TN2r  SC1q  1 3.650000e-01    1.750000e+00
  TN2r  SC2q  1 3.650000e-01    1.910000e+00
  TN2r  SC3q  1 3.650000e-01    2.110000e+00
  TN2r  SC4q  1 3.650000e-01    2.110000e+00
  TN2r  SC5q  1 3.650000e-01    2.110000e+00
  TN2r  SC6q  1 3.650000e-01    2.340000e+00
  TN2r  SN1q  1 3.650000e-01    2.340000e+00
  TP6d  SN1r  1 3.780000e-01    1.450000e+00
  TP5d  SN1r  1 3.780000e-01    1.450000e+00
  TP4d  SN1r  1 3.660000e-01    1.600000e+00
  TP3d  SN1r  1 3.650000e-01    1.750000e+00
  TP2d  SN1r  1 3.650000e-01    1.910000e+00
  TP1d  SN1r  1 3.650000e-01    1.910000e+00
  TN6d  SN1r  1 3.650000e-01    1.910000e+00
  TN5d  SN1r  1 3.650000e-01    1.910000e+00
  TN4d  SN1r  1 3.650000e-01    1.910000e+00
  TN3d  SN1r  1 3.650000e-01    1.910000e+00
  TN2d  SN1r  1 3.650000e-01    1.910000e+00
  TN1r  SN1d  1 3.650000e-01    2.110000e+00
  TP6a  SN1r  1 3.780000e-01    1.450000e+00
  TP5a  SN1r  1 3.780000e-01    1.450000e+00
  TP4a  SN1r  1 3.660000e-01    1.600000e+00
  TP3a  SN1r  1 3.650000e-01    1.750000e+00
  TP2a  SN1r  1 3.650000e-01    1.910000e+00
  TP1a  SN1r  1 3.650000e-01    1.910000e+00
  TN6a  SN1r  1 3.650000e-01    1.910000e+00
  TN5a  SN1r  1 3.650000e-01    1.910000e+00
  TN4a  SN1r  1 3.650000e-01    1.910000e+00
  TN3a  SN1r  1 3.650000e-01    1.910000e+00
  TN2a  SN1r  1 3.650000e-01    1.910000e+00
  TN1r  SN1a  1 3.650000e-01    2.110000e+00
  TN1r  SC6v  1 3.650000e-01    2.340000e+00
  TN1r  SC5v  1 3.650000e-01    2.110000e+00
  TN1r  SC4v  1 3.650000e-01    2.110000e+00
  TN1r  SC3v  1 3.650000e-01    1.910000e+00
  TN1r  SC2v  1 3.650000e-01    1.750000e+00
  TN1r  SC1v  1 3.660000e-01    1.600000e+00
  TN1r  SX4v  1 3.650000e-01    2.110000e+00
  TN1r  SX3v  1 3.650000e-01    2.110000e+00
  TN1r  SX2v  1 3.650000e-01    1.910000e+00
  TN1r  SX1v  1 3.650000e-01    1.910000e+00
  TN1r  SC6e  1 3.650000e-01    2.340000e+00
  TN1r  SC5e  1 3.650000e-01    2.110000e+00
  TN1r  SC4e  1 3.650000e-01    2.110000e+00
  TN1r  SC3e  1 3.650000e-01    1.910000e+00
  TN1r  SC2e  1 3.650000e-01    1.750000e+00
  TN1r  SC1e  1 3.660000e-01    1.600000e+00
  TN1r  SX4e  1 3.650000e-01    2.110000e+00
  TN1r  SX3e  1 3.650000e-01    2.110000e+00
  TN1r  SX2e  1 3.650000e-01    1.910000e+00
  TN1r  SX1e  1 3.650000e-01    1.910000e+00
  TP6q  SN1r  1 3.650000e-01    1.750000e+00
  TP5q  SN1r  1 3.650000e-01    1.750000e+00
  TP4q  SN1r  1 3.650000e-01    1.910000e+00
  TP3q  SN1r  1 3.650000e-01    2.110000e+00
  TP2q  SN1r  1 3.650000e-01    2.340000e+00
  TP1q  SN1r  1 3.650000e-01    2.340000e+00
  TN6q  SN1r  1 3.650000e-01    2.340000e+00
  TN5q  SN1r  1 3.650000e-01    2.340000e+00
  TN4q  SN1r  1 3.650000e-01    2.340000e+00
  TN3q  SN1r  1 3.650000e-01    2.340000e+00
  TN2q  SN1r  1 3.650000e-01    2.340000e+00
  TN1r  SN1q  1 3.650000e-01    2.570000e+00
  TN1r  SX1q  1 3.650000e-01    2.110000e+00
  TN1r  SX2q  1 3.650000e-01    2.110000e+00
  TN1r  SX3q  1 3.650000e-01    2.340000e+00
  TN1r  SX4q  1 3.650000e-01    2.340000e+00
  TN1r  SC1q  1 3.650000e-01    1.750000e+00
  TN1r  SC2q  1 3.650000e-01    1.910000e+00
  TN1r  SC3q  1 3.650000e-01    2.110000e+00
  TN1r  SC4q  1 3.650000e-01    2.340000e+00
  TN1r  SC5q  1 3.650000e-01    2.340000e+00
  TN1r  SC6q  1 3.650000e-01    2.570000e+00
  TP6d  SC6r  1 3.780000e-01    1.450000e+00
  TP5d  SC6r  1 3.780000e-01    1.450000e+00
  TP4d  SC6r  1 3.660000e-01    1.600000e+00
  TP3d  SC6r  1 3.650000e-01    1.750000e+00
  TP2d  SC6r  1 3.650000e-01    1.750000e+00
  TP1d  SC6r  1 3.650000e-01    1.750000e+00
  TN6d  SC6r  1 3.650000e-01    1.910000e+00
  TN5d  SC6r  1 3.650000e-01    1.910000e+00
  TN4d  SC6r  1 3.650000e-01    1.910000e+00
  TN3d  SC6r  1 3.650000e-01    1.910000e+00
  TN2d  SC6r  1 3.650000e-01    1.910000e+00
  TN1d  SC6r  1 3.650000e-01    2.110000e+00
  TP6a  SC6r  1 3.780000e-01    1.450000e+00
  TP5a  SC6r  1 3.780000e-01    1.450000e+00
  TP4a  SC6r  1 3.660000e-01    1.600000e+00
  TP3a  SC6r  1 3.650000e-01    1.750000e+00
  TP2a  SC6r  1 3.650000e-01    1.750000e+00
  TP1a  SC6r  1 3.650000e-01    1.750000e+00
  TN6a  SC6r  1 3.650000e-01    1.910000e+00
  TN5a  SC6r  1 3.650000e-01    1.910000e+00
  TN4a  SC6r  1 3.650000e-01    1.910000e+00
  TN3a  SC6r  1 3.650000e-01    1.910000e+00
  TN2a  SC6r  1 3.650000e-01    1.910000e+00
  TN1a  SC6r  1 3.650000e-01    2.110000e+00
  TC6r  SC6v  1 3.650000e-01    2.340000e+00
  TC6r  SX1v  1 3.650000e-01    2.110000e+00
  TC6r  SX2v  1 3.650000e-01    2.110000e+00
  TC6r  SX3v  1 3.650000e-01    2.110000e+00
  TC6r  SX4v  1 3.650000e-01    2.110000e+00
  TC6r  SC1v  1 3.660000e-01    1.600000e+00
  TC6r  SC2v  1 3.650000e-01    1.750000e+00
  TC6r  SC3v  1 3.650000e-01    1.910000e+00
  TC6r  SC4v  1 3.650000e-01    2.110000e+00
  TC6r  SC5v  1 3.650000e-01    2.110000e+00
  TC6r  SC6e  1 3.650000e-01    2.340000e+00
  TC6r  SX1e  1 3.650000e-01    2.110000e+00
  TC6r  SX2e  1 3.650000e-01    2.110000e+00
  TC6r  SX3e  1 3.650000e-01    2.110000e+00
  TC6r  SX4e  1 3.650000e-01    2.110000e+00
  TC6r  SC1e  1 3.660000e-01    1.600000e+00
  TC6r  SC2e  1 3.650000e-01    1.750000e+00
  TC6r  SC3e  1 3.650000e-01    1.910000e+00
  TC6r  SC4e  1 3.650000e-01    2.110000e+00
  TC6r  SC5e  1 3.650000e-01    2.110000e+00
  TP6q  SC6r  1 3.650000e-01    1.750000e+00
  TP5q  SC6r  1 3.650000e-01    1.750000e+00
  TP4q  SC6r  1 3.650000e-01    1.910000e+00
  TP3q  SC6r  1 3.650000e-01    2.110000e+00
  TP2q  SC6r  1 3.650000e-01    2.110000e+00
  TP1q  SC6r  1 3.650000e-01    2.110000e+00
  TN6q  SC6r  1 3.650000e-01    2.340000e+00
  TN5q  SC6r  1 3.650000e-01    2.340000e+00
  TN4q  SC6r  1 3.650000e-01    2.340000e+00
  TN3q  SC6r  1 3.650000e-01    2.340000e+00
  TN2q  SC6r  1 3.650000e-01    2.340000e+00
  TN1q  SC6r  1 3.650000e-01    2.570000e+00
  TC6r  SC6q  1 3.650000e-01    2.570000e+00
  TC6r  SX1q  1 3.650000e-01    2.340000e+00
  TC6r  SX2q  1 3.650000e-01    2.340000e+00
  TC6r  SX3q  1 3.650000e-01    2.340000e+00
  TC6r  SX4q  1 3.650000e-01    2.340000e+00
  TC6r  SC1q  1 3.650000e-01    1.750000e+00
  TC6r  SC2q  1 3.650000e-01    1.910000e+00
  TC6r  SC3q  1 3.650000e-01    2.110000e+00
  TC6r  SC4q  1 3.650000e-01    2.340000e+00
  TC6r  SC5q  1 3.650000e-01    2.340000e+00
  TP6d  SC5r  1 3.940000e-01    1.290000e+00
  TP5d  SC5r  1 3.780000e-01    1.450000e+00
  TP4d  SC5r  1 3.780000e-01    1.450000e+00
  TP3d  SC5r  1 3.660000e-01    1.600000e+00
  TP2d  SC5r  1 3.660000e-01    1.600000e+00
  TP1d  SC5r  1 3.660000e-01    1.600000e+00
  TN6d  SC5r  1 3.650000e-01    1.750000e+00
  TN5d  SC5r  1 3.650000e-01    1.750000e+00
  TN4d  SC5r  1 3.650000e-01    1.750000e+00
  TN3d  SC5r  1 3.650000e-01    1.750000e+00
  TN2d  SC5r  1 3.650000e-01    1.750000e+00
  TN1d  SC5r  1 3.650000e-01    1.910000e+00
  TP6a  SC5r  1 3.940000e-01    1.290000e+00
  TP5a  SC5r  1 3.780000e-01    1.450000e+00
  TP4a  SC5r  1 3.780000e-01    1.450000e+00
  TP3a  SC5r  1 3.660000e-01    1.600000e+00
  TP2a  SC5r  1 3.660000e-01    1.600000e+00
  TP1a  SC5r  1 3.660000e-01    1.600000e+00
  TN6a  SC5r  1 3.650000e-01    1.750000e+00
  TN5a  SC5r  1 3.650000e-01    1.750000e+00
  TN4a  SC5r  1 3.650000e-01    1.750000e+00
  TN3a  SC5r  1 3.650000e-01    1.750000e+00
  TN2a  SC5r  1 3.650000e-01    1.750000e+00
  TN1a  SC5r  1 3.650000e-01    1.910000e+00
  TC6v  SC5r  1 3.650000e-01    2.110000e+00
  TC5r  SC5v  1 3.650000e-01    2.110000e+00
  TC5r  SX1v  1 3.650000e-01    2.110000e+00
  TC5r  SX2v  1 3.650000e-01    1.910000e+00
  TC5r  SX3v  1 3.650000e-01    1.910000e+00
  TC5r  SX4v  1 3.650000e-01    1.910000e+00
  TC5r  SC1v  1 3.650000e-01    1.750000e+00
  TC5r  SC2v  1 3.650000e-01    1.750000e+00
  TC5r  SC3v  1 3.650000e-01    1.910000e+00
  TC5r  SC4v  1 3.650000e-01    2.110000e+00
  TC6e  SC5r  1 3.650000e-01    2.110000e+00
  TC5r  SC5e  1 3.650000e-01    2.110000e+00
  TC5r  SX1e  1 3.650000e-01    2.110000e+00
  TC5r  SX2e  1 3.650000e-01    1.910000e+00
  TC5r  SX3e  1 3.650000e-01    1.910000e+00
  TC5r  SX4e  1 3.650000e-01    1.910000e+00
  TC5r  SC1e  1 3.650000e-01    1.750000e+00
  TC5r  SC2e  1 3.650000e-01    1.750000e+00
  TC5r  SC3e  1 3.650000e-01    1.910000e+00
  TC5r  SC4e  1 3.650000e-01    2.110000e+00
  TP6q  SC5r  1 3.660000e-01    1.600000e+00
  TP5q  SC5r  1 3.650000e-01    1.750000e+00
  TP4q  SC5r  1 3.650000e-01    1.750000e+00
  TP3q  SC5r  1 3.650000e-01    1.910000e+00
  TP2q  SC5r  1 3.650000e-01    1.910000e+00
  TP1q  SC5r  1 3.650000e-01    1.910000e+00
  TN6q  SC5r  1 3.650000e-01    2.110000e+00
  TN5q  SC5r  1 3.650000e-01    2.110000e+00
  TN4q  SC5r  1 3.650000e-01    2.110000e+00
  TN3q  SC5r  1 3.650000e-01    2.110000e+00
  TN2q  SC5r  1 3.650000e-01    2.110000e+00
  TN1q  SC5r  1 3.650000e-01    2.340000e+00
  TC6q  SC5r  1 3.650000e-01    2.340000e+00
  TC5r  SC5q  1 3.650000e-01    2.340000e+00
  TC5r  SX1q  1 3.650000e-01    2.340000e+00
  TC5r  SX2q  1 3.650000e-01    2.110000e+00
  TC5r  SX3q  1 3.650000e-01    2.110000e+00
  TC5r  SX4q  1 3.650000e-01    2.110000e+00
  TC5r  SC1q  1 3.650000e-01    1.910000e+00
  TC5r  SC2q  1 3.650000e-01    1.910000e+00
  TC5r  SC3q  1 3.650000e-01    2.110000e+00
  TC5r  SC4q  1 3.650000e-01    2.340000e+00
  TP6d  SC4r  1 4.040000e-01    1.130000e+00
  TP5d  SC4r  1 3.940000e-01    1.290000e+00
  TP4d  SC4r  1 3.940000e-01    1.290000e+00
  TP3d  SC4r  1 3.780000e-01    1.450000e+00
  TP2d  SC4r  1 3.780000e-01    1.450000e+00
  TP1d  SC4r  1 3.780000e-01    1.450000e+00
  TN6d  SC4r  1 3.660000e-01    1.600000e+00
  TN5d  SC4r  1 3.660000e-01    1.600000e+00
  TN4d  SC4r  1 3.650000e-01    1.750000e+00
  TN3d  SC4r  1 3.650000e-01    1.750000e+00
  TN2d  SC4r  1 3.650000e-01    1.750000e+00
  TN1d  SC4r  1 3.650000e-01    1.910000e+00
  TP6a  SC4r  1 4.040000e-01    1.130000e+00
  TP5a  SC4r  1 3.940000e-01    1.290000e+00
  TP4a  SC4r  1 3.940000e-01    1.290000e+00
  TP3a  SC4r  1 3.780000e-01    1.450000e+00
  TP2a  SC4r  1 3.780000e-01    1.450000e+00
  TP1a  SC4r  1 3.780000e-01    1.450000e+00
  TN6a  SC4r  1 3.660000e-01    1.600000e+00
  TN5a  SC4r  1 3.660000e-01    1.600000e+00
  TN4a  SC4r  1 3.650000e-01    1.750000e+00
  TN3a  SC4r  1 3.650000e-01    1.750000e+00
  TN2a  SC4r  1 3.650000e-01    1.750000e+00
  TN1a  SC4r  1 3.650000e-01    1.910000e+00
  TC6v  SC4r  1 3.650000e-01    2.110000e+00
  TC5v  SC4r  1 3.650000e-01    2.110000e+00
  TC4r  SC4v  1 3.650000e-01    2.110000e+00
  TC4r  SX1v  1 3.650000e-01    2.110000e+00
  TC4r  SX2v  1 3.650000e-01    1.910000e+00
  TC4r  SX3v  1 3.650000e-01    1.910000e+00
  TC4r  SX4v  1 3.650000e-01    1.910000e+00
  TC4r  SC1v  1 3.650000e-01    1.750000e+00
  TC4r  SC2v  1 3.650000e-01    1.910000e+00
  TC4r  SC3v  1 3.650000e-01    2.110000e+00
  TC6e  SC4r  1 3.650000e-01    2.110000e+00
  TC5e  SC4r  1 3.650000e-01    2.110000e+00
  TC4r  SC4e  1 3.650000e-01    2.110000e+00
  TC4r  SX1e  1 3.650000e-01    2.110000e+00
  TC4r  SX2e  1 3.650000e-01    1.910000e+00
  TC4r  SX3e  1 3.650000e-01    1.910000e+00
  TC4r  SX4e  1 3.650000e-01    1.910000e+00
  TC4r  SC1e  1 3.650000e-01    1.750000e+00
  TC4r  SC2e  1 3.650000e-01    1.910000e+00
  TC4r  SC3e  1 3.650000e-01    2.110000e+00
  TP6q  SC4r  1 3.780000e-01    1.450000e+00
  TP5q  SC4r  1 3.660000e-01    1.600000e+00
  TP4q  SC4r  1 3.660000e-01    1.600000e+00
  TP3q  SC4r  1 3.650000e-01    1.750000e+00
  TP2q  SC4r  1 3.650000e-01    1.750000e+00
  TP1q  SC4r  1 3.650000e-01    1.750000e+00
  TN6q  SC4r  1 3.650000e-01    1.910000e+00
  TN5q  SC4r  1 3.650000e-01    1.910000e+00
  TN4q  SC4r  1 3.650000e-01    2.110000e+00
  TN3q  SC4r  1 3.650000e-01    2.110000e+00
  TN2q  SC4r  1 3.650000e-01    2.110000e+00
  TN1q  SC4r  1 3.650000e-01    2.340000e+00
  TC6q  SC4r  1 3.650000e-01    2.340000e+00
  TC5q  SC4r  1 3.650000e-01    2.340000e+00
  TC4r  SC4q  1 3.650000e-01    2.340000e+00
  TC4r  SX1q  1 3.650000e-01    2.340000e+00
  TC4r  SX2q  1 3.650000e-01    2.110000e+00
  TC4r  SX3q  1 3.650000e-01    2.110000e+00
  TC4r  SX4q  1 3.650000e-01    2.110000e+00
  TC4r  SC1q  1 3.650000e-01    1.910000e+00
  TC4r  SC2q  1 3.650000e-01    2.110000e+00
  TC4r  SC3q  1 3.650000e-01    2.340000e+00
  TP6d  SC3r  1 4.090000e-01    1.080000e+00
  TP5d  SC3r  1 4.040000e-01    1.130000e+00
  TP4d  SC3r  1 4.040000e-01    1.130000e+00
  TP3d  SC3r  1 4.040000e-01    1.130000e+00
  TP2d  SC3r  1 3.940000e-01    1.290000e+00
  TP1d  SC3r  1 3.940000e-01    1.290000e+00
  TN6d  SC3r  1 3.780000e-01    1.450000e+00
  TN5d  SC3r  1 3.660000e-01    1.600000e+00
  TN4d  SC3r  1 3.660000e-01    1.600000e+00
  TN3d  SC3r  1 3.660000e-01    1.600000e+00
  TN2d  SC3r  1 3.650000e-01    1.750000e+00
  TN1d  SC3r  1 3.650000e-01    1.750000e+00
  TP6a  SC3r  1 4.090000e-01    1.080000e+00
  TP5a  SC3r  1 4.040000e-01    1.130000e+00
  TP4a  SC3r  1 4.040000e-01    1.130000e+00
  TP3a  SC3r  1 4.040000e-01    1.130000e+00
  TP2a  SC3r  1 3.940000e-01    1.290000e+00
  TP1a  SC3r  1 3.940000e-01    1.290000e+00
  TN6a  SC3r  1 3.780000e-01    1.450000e+00
  TN5a  SC3r  1 3.660000e-01    1.600000e+00
  TN4a  SC3r  1 3.660000e-01    1.600000e+00
  TN3a  SC3r  1 3.660000e-01    1.600000e+00
  TN2a  SC3r  1 3.650000e-01    1.750000e+00
  TN1a  SC3r  1 3.650000e-01    1.750000e+00
  TC6v  SC3r  1 3.650000e-01    1.910000e+00
  TC5v  SC3r  1 3.650000e-01    1.910000e+00
  TC4v  SC3r  1 3.650000e-01    2.110000e+00
  TC3r  SC3v  1 3.650000e-01    2.110000e+00
  TC3r  SX1v  1 3.650000e-01    2.110000e+00
  TC3r  SX2v  1 3.650000e-01    1.910000e+00
  TC3r  SX3v  1 3.650000e-01    1.910000e+00
  TC3r  SX4v  1 3.650000e-01    1.910000e+00
  TC3r  SC1v  1 3.650000e-01    2.110000e+00
  TC3r  SC2v  1 3.650000e-01    2.110000e+00
  TC6e  SC3r  1 3.650000e-01    1.910000e+00
  TC5e  SC3r  1 3.650000e-01    1.910000e+00
  TC4e  SC3r  1 3.650000e-01    2.110000e+00
  TC3r  SC3e  1 3.650000e-01    2.110000e+00
  TC3r  SX1e  1 3.650000e-01    2.110000e+00
  TC3r  SX2e  1 3.650000e-01    1.910000e+00
  TC3r  SX3e  1 3.650000e-01    1.910000e+00
  TC3r  SX4e  1 3.650000e-01    1.910000e+00
  TC3r  SC1e  1 3.650000e-01    2.110000e+00
  TC3r  SC2e  1 3.650000e-01    2.110000e+00
  TP6q  SC3r  1 3.940000e-01    1.290000e+00
  TP5q  SC3r  1 3.780000e-01    1.450000e+00
  TP4q  SC3r  1 3.780000e-01    1.450000e+00
  TP3q  SC3r  1 3.780000e-01    1.450000e+00
  TP2q  SC3r  1 3.660000e-01    1.600000e+00
  TP1q  SC3r  1 3.660000e-01    1.600000e+00
  TN6q  SC3r  1 3.650000e-01    1.750000e+00
  TN5q  SC3r  1 3.650000e-01    1.910000e+00
  TN4q  SC3r  1 3.650000e-01    1.910000e+00
  TN3q  SC3r  1 3.650000e-01    1.910000e+00
  TN2q  SC3r  1 3.650000e-01    2.110000e+00
  TN1q  SC3r  1 3.650000e-01    2.110000e+00
  TC6q  SC3r  1 3.650000e-01    2.110000e+00
  TC5q  SC3r  1 3.650000e-01    2.110000e+00
  TC4q  SC3r  1 3.650000e-01    2.340000e+00
  TC3r  SC3q  1 3.650000e-01    2.340000e+00
  TC3r  SX1q  1 3.650000e-01    2.340000e+00
  TC3r  SX2q  1 3.650000e-01    2.110000e+00
  TC3r  SX3q  1 3.650000e-01    2.110000e+00
  TC3r  SX4q  1 3.650000e-01    2.110000e+00
  TC3r  SC1q  1 3.650000e-01    2.340000e+00
  TC3r  SC2q  1 3.650000e-01    2.340000e+00
  TP6d  SC2r  1 4.090000e-01    1.080000e+00
  TP5d  SC2r  1 4.040000e-01    1.130000e+00
  TP4d  SC2r  1 4.040000e-01    1.130000e+00
  TP3d  SC2r  1 4.040000e-01    1.130000e+00
  TP2d  SC2r  1 3.940000e-01    1.290000e+00
  TP1d  SC2r  1 3.940000e-01    1.290000e+00
  TN6d  SC2r  1 3.780000e-01    1.450000e+00
  TN5d  SC2r  1 3.780000e-01    1.450000e+00
  TN4d  SC2r  1 3.780000e-01    1.450000e+00
  TN3d  SC2r  1 3.660000e-01    1.600000e+00
  TN2d  SC2r  1 3.660000e-01    1.600000e+00
  TN1d  SC2r  1 3.660000e-01    1.600000e+00
  TP6a  SC2r  1 4.090000e-01    1.080000e+00
  TP5a  SC2r  1 4.040000e-01    1.130000e+00
  TP4a  SC2r  1 4.040000e-01    1.130000e+00
  TP3a  SC2r  1 4.040000e-01    1.130000e+00
  TP2a  SC2r  1 3.940000e-01    1.290000e+00
  TP1a  SC2r  1 3.940000e-01    1.290000e+00
  TN6a  SC2r  1 3.780000e-01    1.450000e+00
  TN5a  SC2r  1 3.780000e-01    1.450000e+00
  TN4a  SC2r  1 3.780000e-01    1.450000e+00
  TN3a  SC2r  1 3.660000e-01    1.600000e+00
  TN2a  SC2r  1 3.660000e-01    1.600000e+00
  TN1a  SC2r  1 3.660000e-01    1.600000e+00
  TC6v  SC2r  1 3.650000e-01    1.750000e+00
  TC5v  SC2r  1 3.650000e-01    1.750000e+00
  TC4v  SC2r  1 3.650000e-01    1.910000e+00
  TC3v  SC2r  1 3.650000e-01    2.110000e+00
  TC2r  SC2v  1 3.650000e-01    2.110000e+00
  TC2r  SX1v  1 3.650000e-01    1.910000e+00
  TC2r  SX2v  1 3.650000e-01    1.910000e+00
  TC2r  SX3v  1 3.650000e-01    1.910000e+00
  TC2r  SX4v  1 3.660000e-01    1.600000e+00
  TC2r  SC1v  1 3.650000e-01    2.340000e+00
  TC6e  SC2r  1 3.650000e-01    1.750000e+00
  TC5e  SC2r  1 3.650000e-01    1.750000e+00
  TC4e  SC2r  1 3.650000e-01    1.910000e+00
  TC3e  SC2r  1 3.650000e-01    2.110000e+00
  TC2r  SC2e  1 3.650000e-01    2.110000e+00
  TC2r  SX1e  1 3.650000e-01    1.910000e+00
  TC2r  SX2e  1 3.650000e-01    1.910000e+00
  TC2r  SX3e  1 3.650000e-01    1.910000e+00
  TC2r  SX4e  1 3.660000e-01    1.600000e+00
  TC2r  SC1e  1 3.650000e-01    2.340000e+00
  TP6q  SC2r  1 3.940000e-01    1.290000e+00
  TP5q  SC2r  1 3.780000e-01    1.450000e+00
  TP4q  SC2r  1 3.780000e-01    1.450000e+00
  TP3q  SC2r  1 3.780000e-01    1.450000e+00
  TP2q  SC2r  1 3.660000e-01    1.600000e+00
  TP1q  SC2r  1 3.660000e-01    1.600000e+00
  TN6q  SC2r  1 3.650000e-01    1.750000e+00
  TN5q  SC2r  1 3.650000e-01    1.750000e+00
  TN4q  SC2r  1 3.650000e-01    1.750000e+00
  TN3q  SC2r  1 3.650000e-01    1.910000e+00
  TN2q  SC2r  1 3.650000e-01    1.910000e+00
  TN1q  SC2r  1 3.650000e-01    1.910000e+00
  TC6q  SC2r  1 3.650000e-01    1.910000e+00
  TC5q  SC2r  1 3.650000e-01    1.910000e+00
  TC4q  SC2r  1 3.650000e-01    2.110000e+00
  TC3q  SC2r  1 3.650000e-01    2.340000e+00
  TC2r  SC2q  1 3.650000e-01    2.340000e+00
  TC2r  SX1q  1 3.650000e-01    2.110000e+00
  TC2r  SX2q  1 3.650000e-01    2.110000e+00
  TC2r  SX3q  1 3.650000e-01    2.110000e+00
  TC2r  SX4q  1 3.650000e-01    1.750000e+00
  TC2r  SC1q  1 3.650000e-01    2.570000e+00
  TP6d  SC1r  1 4.840000e-01    8.900000e-01
  TP5d  SC1r  1 4.090000e-01    1.080000e+00
  TP4d  SC1r  1 4.090000e-01    1.080000e+00
  TP3d  SC1r  1 4.090000e-01    1.080000e+00
  TP2d  SC1r  1 4.040000e-01    1.130000e+00
  TP1d  SC1r  1 4.040000e-01    1.130000e+00
  TN6d  SC1r  1 3.940000e-01    1.290000e+00
  TN5d  SC1r  1 3.940000e-01    1.290000e+00
  TN4d  SC1r  1 3.940000e-01    1.290000e+00
  TN3d  SC1r  1 3.780000e-01    1.450000e+00
  TN2d  SC1r  1 3.780000e-01    1.450000e+00
  TN1d  SC1r  1 3.780000e-01    1.450000e+00
  TP6a  SC1r  1 4.840000e-01    8.900000e-01
  TP5a  SC1r  1 4.090000e-01    1.080000e+00
  TP4a  SC1r  1 4.090000e-01    1.080000e+00
  TP3a  SC1r  1 4.090000e-01    1.080000e+00
  TP2a  SC1r  1 4.040000e-01    1.130000e+00
  TP1a  SC1r  1 4.040000e-01    1.130000e+00
  TN6a  SC1r  1 3.940000e-01    1.290000e+00
  TN5a  SC1r  1 3.940000e-01    1.290000e+00
  TN4a  SC1r  1 3.940000e-01    1.290000e+00
  TN3a  SC1r  1 3.780000e-01    1.450000e+00
  TN2a  SC1r  1 3.780000e-01    1.450000e+00
  TN1a  SC1r  1 3.780000e-01    1.450000e+00
  TC6v  SC1r  1 3.660000e-01    1.600000e+00
  TC5v  SC1r  1 3.650000e-01    1.750000e+00
  TC4v  SC1r  1 3.650000e-01    1.750000e+00
  TC3v  SC1r  1 3.650000e-01    2.110000e+00
  TC2v  SC1r  1 3.650000e-01    2.340000e+00
  TC1r  SC1v  1 3.650000e-01    2.110000e+00
  TC1r  SX1v  1 3.650000e-01    1.910000e+00
  TC1r  SX2v  1 3.650000e-01    1.910000e+00
  TC1r  SX3v  1 3.650000e-01    1.910000e+00
  TC1r  SX4v  1 3.660000e-01    1.600000e+00
  TC6e  SC1r  1 3.660000e-01    1.600000e+00
  TC5e  SC1r  1 3.650000e-01    1.750000e+00
  TC4e  SC1r  1 3.650000e-01    1.750000e+00
  TC3e  SC1r  1 3.650000e-01    2.110000e+00
  TC2e  SC1r  1 3.650000e-01    2.340000e+00
  TC1r  SC1e  1 3.650000e-01    2.110000e+00
  TC1r  SX1e  1 3.650000e-01    1.910000e+00
  TC1r  SX2e  1 3.650000e-01    1.910000e+00
  TC1r  SX3e  1 3.650000e-01    1.910000e+00
  TC1r  SX4e  1 3.660000e-01    1.600000e+00
  TP6q  SC1r  1 4.090000e-01    1.080000e+00
  TP5q  SC1r  1 3.940000e-01    1.290000e+00
  TP4q  SC1r  1 3.940000e-01    1.290000e+00
  TP3q  SC1r  1 3.940000e-01    1.290000e+00
  TP2q  SC1r  1 3.780000e-01    1.450000e+00
  TP1q  SC1r  1 3.780000e-01    1.450000e+00
  TN6q  SC1r  1 3.660000e-01    1.600000e+00
  TN5q  SC1r  1 3.660000e-01    1.600000e+00
  TN4q  SC1r  1 3.660000e-01    1.600000e+00
  TN3q  SC1r  1 3.650000e-01    1.750000e+00
  TN2q  SC1r  1 3.650000e-01    1.750000e+00
  TN1q  SC1r  1 3.650000e-01    1.750000e+00
  TC6q  SC1r  1 3.650000e-01    1.750000e+00
  TC5q  SC1r  1 3.650000e-01    1.910000e+00
  TC4q  SC1r  1 3.650000e-01    1.910000e+00
  TC3q  SC1r  1 3.650000e-01    2.340000e+00
  TC2q  SC1r  1 3.650000e-01    2.570000e+00
  TC1r  SC1q  1 3.650000e-01    2.340000e+00
  TC1r  SX1q  1 3.650000e-01    2.110000e+00
  TC1r  SX2q  1 3.650000e-01    2.110000e+00
  TC1r  SX3q  1 3.650000e-01    2.110000e+00
  TC1r  SX4q  1 3.650000e-01    1.750000e+00
  TP6d  SX4r  1 3.660000e-01    1.600000e+00
  TP5d  SX4r  1 3.650000e-01    1.750000e+00
  TP4d  SX4r  1 3.650000e-01    1.750000e+00
  TP3d  SX4r  1 3.650000e-01    1.750000e+00
  TP2d  SX4r  1 3.650000e-01    1.750000e+00
  TP1d  SX4r  1 3.650000e-01    1.750000e+00
  TN6d  SX4r  1 3.650000e-01    1.910000e+00
  TN5d  SX4r  1 3.650000e-01    2.110000e+00
  TN4d  SX4r  1 3.650000e-01    2.340000e+00
  TN3d  SX4r  1 3.650000e-01    2.110000e+00
  TN2d  SX4r  1 3.650000e-01    2.110000e+00
  TN1d  SX4r  1 3.650000e-01    1.910000e+00
  TP6a  SX4r  1 3.660000e-01    1.600000e+00
  TP5a  SX4r  1 3.650000e-01    1.750000e+00
  TP4a  SX4r  1 3.650000e-01    1.750000e+00
  TP3a  SX4r  1 3.650000e-01    1.750000e+00
  TP2a  SX4r  1 3.650000e-01    1.750000e+00
  TP1a  SX4r  1 3.650000e-01    1.750000e+00
  TN6a  SX4r  1 3.650000e-01    1.910000e+00
  TN5a  SX4r  1 3.650000e-01    2.110000e+00
  TN4a  SX4r  1 3.650000e-01    2.340000e+00
  TN3a  SX4r  1 3.650000e-01    2.110000e+00
  TN2a  SX4r  1 3.650000e-01    2.110000e+00
  TN1a  SX4r  1 3.650000e-01    1.910000e+00
  TC6v  SX4r  1 3.650000e-01    2.110000e+00
  TC5v  SX4r  1 3.650000e-01    1.910000e+00
  TC4v  SX4r  1 3.650000e-01    1.910000e+00
  TC3v  SX4r  1 3.650000e-01    1.910000e+00
  TC2v  SX4r  1 3.660000e-01    1.600000e+00
  TC1v  SX4r  1 3.660000e-01    1.600000e+00
  TX4r  SX4v  1 3.650000e-01    2.110000e+00
  TX4r  SX1v  1 3.650000e-01    2.110000e+00
  TX4r  SX2v  1 3.650000e-01    2.110000e+00
  TX4r  SX3v  1 3.650000e-01    2.110000e+00
  TC6e  SX4r  1 3.650000e-01    2.110000e+00
  TC5e  SX4r  1 3.650000e-01    1.910000e+00
  TC4e  SX4r  1 3.650000e-01    1.910000e+00
  TC3e  SX4r  1 3.650000e-01    1.910000e+00
  TC2e  SX4r  1 3.660000e-01    1.600000e+00
  TC1e  SX4r  1 3.660000e-01    1.600000e+00
  TX4r  SX4e  1 3.650000e-01    2.110000e+00
  TX4r  SX1e  1 3.650000e-01    2.110000e+00
  TX4r  SX2e  1 3.650000e-01    2.110000e+00
  TX4r  SX3e  1 3.650000e-01    2.110000e+00
  TP6q  SX4r  1 3.650000e-01    1.910000e+00
  TP5q  SX4r  1 3.650000e-01    2.110000e+00
  TP4q  SX4r  1 3.650000e-01    2.110000e+00
  TP3q  SX4r  1 3.650000e-01    2.110000e+00
  TP2q  SX4r  1 3.650000e-01    2.110000e+00
  TP1q  SX4r  1 3.650000e-01    2.110000e+00
  TN6q  SX4r  1 3.650000e-01    2.340000e+00
  TN5q  SX4r  1 3.650000e-01    2.570000e+00
  TN4q  SX4r  1 3.650000e-01    2.830000e+00
  TN3q  SX4r  1 3.650000e-01    2.570000e+00
  TN2q  SX4r  1 3.650000e-01    2.570000e+00
  TN1q  SX4r  1 3.650000e-01    2.340000e+00
  TC6q  SX4r  1 3.650000e-01    2.340000e+00
  TC5q  SX4r  1 3.650000e-01    2.110000e+00
  TC4q  SX4r  1 3.650000e-01    2.110000e+00
  TC3q  SX4r  1 3.650000e-01    2.110000e+00
  TC2q  SX4r  1 3.650000e-01    1.750000e+00
  TC1q  SX4r  1 3.650000e-01    1.750000e+00
  TX4r  SX4q  1 3.650000e-01    2.340000e+00
  TX4r  SX1q  1 3.650000e-01    2.340000e+00
  TX4r  SX2q  1 3.650000e-01    2.340000e+00
  TX4r  SX3q  1 3.650000e-01    2.340000e+00
  TP6d  SX3r  1 3.660000e-01    1.600000e+00
  TP5d  SX3r  1 3.660000e-01    1.600000e+00
  TP4d  SX3r  1 3.660000e-01    1.600000e+00
  TP3d  SX3r  1 3.650000e-01    1.750000e+00
  TP2d  SX3r  1 3.650000e-01    1.750000e+00
  TP1d  SX3r  1 3.650000e-01    1.750000e+00
  TN6d  SX3r  1 3.650000e-01    1.750000e+00
  TN5d  SX3r  1 3.650000e-01    1.910000e+00
  TN4d  SX3r  1 3.650000e-01    2.110000e+00
  TN3d  SX3r  1 3.650000e-01    1.910000e+00
  TN2d  SX3r  1 3.650000e-01    1.910000e+00
  TN1d  SX3r  1 3.650000e-01    1.910000e+00
  TP6a  SX3r  1 3.660000e-01    1.600000e+00
  TP5a  SX3r  1 3.660000e-01    1.600000e+00
  TP4a  SX3r  1 3.660000e-01    1.600000e+00
  TP3a  SX3r  1 3.650000e-01    1.750000e+00
  TP2a  SX3r  1 3.650000e-01    1.750000e+00
  TP1a  SX3r  1 3.650000e-01    1.750000e+00
  TN6a  SX3r  1 3.650000e-01    1.750000e+00
  TN5a  SX3r  1 3.650000e-01    1.910000e+00
  TN4a  SX3r  1 3.650000e-01    2.110000e+00
  TN3a  SX3r  1 3.650000e-01    1.910000e+00
  TN2a  SX3r  1 3.650000e-01    1.910000e+00
  TN1a  SX3r  1 3.650000e-01    1.910000e+00
  TC6v  SX3r  1 3.650000e-01    2.110000e+00
  TC5v  SX3r  1 3.650000e-01    1.910000e+00
  TC4v  SX3r  1 3.650000e-01    1.910000e+00
  TC3v  SX3r  1 3.650000e-01    1.910000e+00
  TC2v  SX3r  1 3.650000e-01    1.910000e+00
  TC1v  SX3r  1 3.650000e-01    1.910000e+00
  TX4v  SX3r  1 3.650000e-01    2.110000e+00
  TX3r  SX3v  1 3.650000e-01    2.110000e+00
  TX3r  SX1v  1 3.650000e-01    2.340000e+00
  TX3r  SX2v  1 3.650000e-01    2.340000e+00
  TC6e  SX3r  1 3.650000e-01    2.110000e+00
  TC5e  SX3r  1 3.650000e-01    1.910000e+00
  TC4e  SX3r  1 3.650000e-01    1.910000e+00
  TC3e  SX3r  1 3.650000e-01    1.910000e+00
  TC2e  SX3r  1 3.650000e-01    1.910000e+00
  TC1e  SX3r  1 3.650000e-01    1.910000e+00
  TX4e  SX3r  1 3.650000e-01    2.110000e+00
  TX3r  SX3e  1 3.650000e-01    2.110000e+00
  TX3r  SX1e  1 3.650000e-01    2.340000e+00
  TX3r  SX2e  1 3.650000e-01    2.340000e+00
  TP6q  SX3r  1 3.650000e-01    1.910000e+00
  TP5q  SX3r  1 3.650000e-01    1.910000e+00
  TP4q  SX3r  1 3.650000e-01    1.910000e+00
  TP3q  SX3r  1 3.650000e-01    2.110000e+00
  TP2q  SX3r  1 3.650000e-01    2.110000e+00
  TP1q  SX3r  1 3.650000e-01    2.110000e+00
  TN6q  SX3r  1 3.650000e-01    2.110000e+00
  TN5q  SX3r  1 3.650000e-01    2.340000e+00
  TN4q  SX3r  1 3.650000e-01    2.570000e+00
  TN3q  SX3r  1 3.650000e-01    2.340000e+00
  TN2q  SX3r  1 3.650000e-01    2.340000e+00
  TN1q  SX3r  1 3.650000e-01    2.340000e+00
  TC6q  SX3r  1 3.650000e-01    2.340000e+00
  TC5q  SX3r  1 3.650000e-01    2.110000e+00
  TC4q  SX3r  1 3.650000e-01    2.110000e+00
  TC3q  SX3r  1 3.650000e-01    2.110000e+00
  TC2q  SX3r  1 3.650000e-01    2.110000e+00
  TC1q  SX3r  1 3.650000e-01    2.110000e+00
  TX4q  SX3r  1 3.650000e-01    2.340000e+00
  TX3r  SX3q  1 3.650000e-01    2.340000e+00
  TX3r  SX1q  1 3.650000e-01    2.570000e+00
  TX3r  SX2q  1 3.650000e-01    2.570000e+00
  TP6d  SX2r  1 3.780000e-01    1.450000e+00
  TP5d  SX2r  1 3.660000e-01    1.600000e+00
  TP4d  SX2r  1 3.660000e-01    1.600000e+00
  TP3d  SX2r  1 3.660000e-01    1.600000e+00
  TP2d  SX2r  1 3.660000e-01    1.600000e+00
  TP1d  SX2r  1 3.660000e-01    1.600000e+00
  TN6d  SX2r  1 3.660000e-01    1.600000e+00
  TN5d  SX2r  1 3.650000e-01    1.750000e+00
  TN4d  SX2r  1 3.650000e-01    1.750000e+00
  TN3d  SX2r  1 3.650000e-01    1.750000e+00
  TN2d  SX2r  1 3.650000e-01    1.750000e+00
  TN1d  SX2r  1 3.650000e-01    1.750000e+00
  TP6a  SX2r  1 3.780000e-01    1.450000e+00
  TP5a  SX2r  1 3.660000e-01    1.600000e+00
  TP4a  SX2r  1 3.660000e-01    1.600000e+00
  TP3a  SX2r  1 3.660000e-01    1.600000e+00
  TP2a  SX2r  1 3.660000e-01    1.600000e+00
  TP1a  SX2r  1 3.660000e-01    1.600000e+00
  TN6a  SX2r  1 3.660000e-01    1.600000e+00
  TN5a  SX2r  1 3.650000e-01    1.750000e+00
  TN4a  SX2r  1 3.650000e-01    1.750000e+00
  TN3a  SX2r  1 3.650000e-01    1.750000e+00
  TN2a  SX2r  1 3.650000e-01    1.750000e+00
  TN1a  SX2r  1 3.650000e-01    1.750000e+00
  TC6v  SX2r  1 3.650000e-01    2.110000e+00
  TC5v  SX2r  1 3.650000e-01    1.910000e+00
  TC4v  SX2r  1 3.650000e-01    1.910000e+00
  TC3v  SX2r  1 3.650000e-01    1.910000e+00
  TC2v  SX2r  1 3.650000e-01    1.910000e+00
  TC1v  SX2r  1 3.650000e-01    1.910000e+00
  TX4v  SX2r  1 3.650000e-01    2.110000e+00
  TX3v  SX2r  1 3.650000e-01    2.340000e+00
  TX2r  SX2v  1 3.650000e-01    2.340000e+00
  TX2r  SX1v  1 3.650000e-01    2.340000e+00
  TC6e  SX2r  1 3.650000e-01    2.110000e+00
  TC5e  SX2r  1 3.650000e-01    1.910000e+00
  TC4e  SX2r  1 3.650000e-01    1.910000e+00
  TC3e  SX2r  1 3.650000e-01    1.910000e+00
  TC2e  SX2r  1 3.650000e-01    1.910000e+00
  TC1e  SX2r  1 3.650000e-01    1.910000e+00
  TX4e  SX2r  1 3.650000e-01    2.110000e+00
  TX3e  SX2r  1 3.650000e-01    2.340000e+00
  TX2r  SX2e  1 3.650000e-01    2.340000e+00
  TX2r  SX1e  1 3.650000e-01    2.340000e+00
  TP6q  SX2r  1 3.650000e-01    1.750000e+00
  TP5q  SX2r  1 3.650000e-01    1.910000e+00
  TP4q  SX2r  1 3.650000e-01    1.910000e+00
  TP3q  SX2r  1 3.650000e-01    1.910000e+00
  TP2q  SX2r  1 3.650000e-01    1.910000e+00
  TP1q  SX2r  1 3.650000e-01    1.910000e+00
  TN6q  SX2r  1 3.650000e-01    1.910000e+00
  TN5q  SX2r  1 3.650000e-01    2.110000e+00
  TN4q  SX2r  1 3.650000e-01    2.110000e+00
  TN3q  SX2r  1 3.650000e-01    2.110000e+00
  TN2q  SX2r  1 3.650000e-01    2.110000e+00
  TN1q  SX2r  1 3.650000e-01    2.110000e+00
  TC6q  SX2r  1 3.650000e-01    2.340000e+00
  TC5q  SX2r  1 3.650000e-01    2.110000e+00
  TC4q  SX2r  1 3.650000e-01    2.110000e+00
  TC3q  SX2r  1 3.650000e-01    2.110000e+00
  TC2q  SX2r  1 3.650000e-01    2.110000e+00
  TC1q  SX2r  1 3.650000e-01    2.110000e+00
  TX4q  SX2r  1 3.650000e-01    2.340000e+00
  TX3q  SX2r  1 3.650000e-01    2.570000e+00
  TX2r  SX2q  1 3.650000e-01    2.570000e+00
  TX2r  SX1q  1 3.650000e-01    2.570000e+00
  TP6d  SX1r  1 3.940000e-01    1.290000e+00
  TP5d  SX1r  1 3.940000e-01    1.290000e+00
  TP4d  SX1r  1 3.780000e-01    1.450000e+00
  TP3d  SX1r  1 3.780000e-01    1.450000e+00
  TP2d  SX1r  1 3.780000e-01    1.450000e+00
  TP1d  SX1r  1 3.780000e-01    1.450000e+00
  TN6d  SX1r  1 3.780000e-01    1.450000e+00
  TN5d  SX1r  1 3.660000e-01    1.600000e+00
  TN4d  SX1r  1 3.660000e-01    1.600000e+00
  TN3d  SX1r  1 3.650000e-01    1.750000e+00
  TN2d  SX1r  1 3.650000e-01    1.750000e+00
  TN1d  SX1r  1 3.650000e-01    1.750000e+00
  TP6a  SX1r  1 3.940000e-01    1.290000e+00
  TP5a  SX1r  1 3.940000e-01    1.290000e+00
  TP4a  SX1r  1 3.780000e-01    1.450000e+00
  TP3a  SX1r  1 3.780000e-01    1.450000e+00
  TP2a  SX1r  1 3.780000e-01    1.450000e+00
  TP1a  SX1r  1 3.780000e-01    1.450000e+00
  TN6a  SX1r  1 3.780000e-01    1.450000e+00
  TN5a  SX1r  1 3.660000e-01    1.600000e+00
  TN4a  SX1r  1 3.660000e-01    1.600000e+00
  TN3a  SX1r  1 3.650000e-01    1.750000e+00
  TN2a  SX1r  1 3.650000e-01    1.750000e+00
  TN1a  SX1r  1 3.650000e-01    1.750000e+00
  TC6v  SX1r  1 3.650000e-01    2.110000e+00
  TC5v  SX1r  1 3.650000e-01    2.110000e+00
  TC4v  SX1r  1 3.650000e-01    2.110000e+00
  TC3v  SX1r  1 3.650000e-01    2.110000e+00
  TC2v  SX1r  1 3.650000e-01    1.910000e+00
  TC1v  SX1r  1 3.650000e-01    1.910000e+00
  TX4v  SX1r  1 3.650000e-01    2.110000e+00
  TX3v  SX1r  1 3.650000e-01    2.340000e+00
  TX2v  SX1r  1 3.650000e-01    2.340000e+00
  TX1r  SX1v  1 3.650000e-01    2.570000e+00
  TC6e  SX1r  1 3.650000e-01    2.110000e+00
  TC5e  SX1r  1 3.650000e-01    2.110000e+00
  TC4e  SX1r  1 3.650000e-01    2.110000e+00
  TC3e  SX1r  1 3.650000e-01    2.110000e+00
  TC2e  SX1r  1 3.650000e-01    1.910000e+00
  TC1e  SX1r  1 3.650000e-01    1.910000e+00
  TX4e  SX1r  1 3.650000e-01    2.110000e+00
  TX3e  SX1r  1 3.650000e-01    2.340000e+00
  TX2e  SX1r  1 3.650000e-01    2.340000e+00
  TX1r  SX1e  1 3.650000e-01    2.570000e+00
  TP6q  SX1r  1 3.660000e-01    1.600000e+00
  TP5q  SX1r  1 3.660000e-01    1.600000e+00
  TP4q  SX1r  1 3.650000e-01    1.750000e+00
  TP3q  SX1r  1 3.650000e-01    1.750000e+00
  TP2q  SX1r  1 3.650000e-01    1.750000e+00
  TP1q  SX1r  1 3.650000e-01    1.750000e+00
  TN6q  SX1r  1 3.650000e-01    1.750000e+00
  TN5q  SX1r  1 3.650000e-01    1.910000e+00
  TN4q  SX1r  1 3.650000e-01    1.910000e+00
  TN3q  SX1r  1 3.650000e-01    2.110000e+00
  TN2q  SX1r  1 3.650000e-01    2.110000e+00
  TN1q  SX1r  1 3.650000e-01    2.110000e+00
  TC6q  SX1r  1 3.650000e-01    2.340000e+00
  TC5q  SX1r  1 3.650000e-01    2.340000e+00
  TC4q  SX1r  1 3.650000e-01    2.340000e+00
  TC3q  SX1r  1 3.650000e-01    2.340000e+00
  TC2q  SX1r  1 3.650000e-01    2.110000e+00
  TC1q  SX1r  1 3.650000e-01    2.110000e+00
  TX4q  SX1r  1 3.650000e-01    2.340000e+00
  TX3q  SX1r  1 3.650000e-01    2.570000e+00
  TX2q  SX1r  1 3.650000e-01    2.570000e+00
  TX1r  SX1q  1 3.650000e-01    2.830000e+00
 TP6dr SP6dq  1 3.650000e-01    4.220000e+00
 TP6dr SX1eq  1 3.650000e-01    1.750000e+00
 TP6dr SX2eq  1 3.650000e-01    1.910000e+00
 TP6dr SX3eq  1 3.650000e-01    2.110000e+00
 TP6dr SX4eq  1 3.650000e-01    2.110000e+00
 TP6dr SC1eq  1 4.040000e-01    1.130000e+00
 TP6dr SC2eq  1 3.780000e-01    1.450000e+00
 TP6dr SC3eq  1 3.780000e-01    1.450000e+00
 TP6dr SC4eq  1 3.660000e-01    1.600000e+00
 TP6dr SC5eq  1 3.650000e-01    1.750000e+00
 TP6dr SC6eq  1 3.650000e-01    1.910000e+00
 TP6dr SX1vq  1 3.780000e-01    1.450000e+00
 TP6dr SX2vq  1 3.660000e-01    1.600000e+00
 TP6dr SX3vq  1 3.650000e-01    1.750000e+00
 TP6dr SX4vq  1 3.650000e-01    1.750000e+00
 TP6dr SC1vq  1 4.230000e-01    9.810000e-01
 TP6dr SC2vq  1 4.040000e-01    1.130000e+00
 TP6dr SC3vq  1 4.040000e-01    1.130000e+00
 TP6dr SC4vq  1 3.940000e-01    1.290000e+00
 TP6dr SC5vq  1 3.780000e-01    1.450000e+00
 TP6dr SC6vq  1 3.660000e-01    1.600000e+00
 TP6dr SN1aq  1 3.650000e-01    1.750000e+00
 TP6dr SN2aq  1 3.650000e-01    1.910000e+00
 TP6dr SN3aq  1 3.650000e-01    2.110000e+00
 TP6dr SN4aq  1 3.650000e-01    2.570000e+00
 TP6dr SN5aq  1 3.650000e-01    2.830000e+00
 TP6dr SN6aq  1 3.650000e-01    3.370000e+00
 TP6dr SP1aq  1 3.650000e-01    3.640000e+00
 TP6dr SP2aq  1 3.650000e-01    3.930000e+00
 TP6dr SP3aq  1 3.650000e-01    3.930000e+00
 TP6dr SP4aq  1 3.650000e-01    4.220000e+00
 TP6dr SP5aq  1 3.650000e-01    4.510000e+00
 TP6dr SP6aq  1 3.650000e-01    4.860000e+00
 TP6dr SN1dq  1 3.650000e-01    1.750000e+00
 TP6dr SN2dq  1 3.650000e-01    1.910000e+00
 TP6dr SN3dq  1 3.650000e-01    2.110000e+00
 TP6dr SN4dq  1 3.650000e-01    2.110000e+00
 TP6dr SN5dq  1 3.650000e-01    2.340000e+00
 TP6dr SN6dq  1 3.650000e-01    2.830000e+00
 TP6dr SP1dq  1 3.650000e-01    3.100000e+00
 TP6dr SP2dq  1 3.650000e-01    3.370000e+00
 TP6dr SP3dq  1 3.650000e-01    3.370000e+00
 TP6dr SP4dq  1 3.650000e-01    3.640000e+00
 TP6dr SP5dq  1 3.650000e-01    3.930000e+00
 TP6dq SP5dr  1 3.650000e-01    3.930000e+00
 TP5dr SP5dq  1 3.650000e-01    3.640000e+00
 TP5dr SX1eq  1 3.650000e-01    1.750000e+00
 TP5dr SX2eq  1 3.650000e-01    2.110000e+00
 TP5dr SX3eq  1 3.650000e-01    2.110000e+00
 TP5dr SX4eq  1 3.650000e-01    2.340000e+00
 TP5dr SC1eq  1 3.780000e-01    1.450000e+00
 TP5dr SC2eq  1 3.660000e-01    1.600000e+00
 TP5dr SC3eq  1 3.660000e-01    1.600000e+00
 TP5dr SC4eq  1 3.650000e-01    1.750000e+00
 TP5dr SC5eq  1 3.650000e-01    1.910000e+00
 TP5dr SC6eq  1 3.650000e-01    1.910000e+00
 TP5dr SX1vq  1 3.780000e-01    1.450000e+00
 TP5dr SX2vq  1 3.650000e-01    1.750000e+00
 TP5dr SX3vq  1 3.650000e-01    1.750000e+00
 TP5dr SX4vq  1 3.650000e-01    1.910000e+00
 TP5dr SC1vq  1 4.040000e-01    1.130000e+00
 TP5dr SC2vq  1 3.940000e-01    1.290000e+00
 TP5dr SC3vq  1 3.940000e-01    1.290000e+00
 TP5dr SC4vq  1 3.780000e-01    1.450000e+00
 TP5dr SC5vq  1 3.660000e-01    1.600000e+00
 TP5dr SC6vq  1 3.660000e-01    1.600000e+00
 TP5dr SN1aq  1 3.650000e-01    1.750000e+00
 TP5dr SN2aq  1 3.650000e-01    1.910000e+00
 TP5dr SN3aq  1 3.650000e-01    2.110000e+00
 TP5dr SN4aq  1 3.650000e-01    2.830000e+00
 TP5dr SN5aq  1 3.650000e-01    2.830000e+00
 TP5dr SN6aq  1 3.650000e-01    3.100000e+00
 TP5dr SP1aq  1 3.650000e-01    3.370000e+00
 TP5dr SP2aq  1 3.650000e-01    3.640000e+00
 TP5dr SP3aq  1 3.650000e-01    3.640000e+00
 TP5dr SP4aq  1 3.650000e-01    3.930000e+00
 TP5dr SP5aq  1 3.650000e-01    4.220000e+00
 TP6aq SP5dr  1 3.650000e-01    4.510000e+00
 TP5dr SN1dq  1 3.650000e-01    1.750000e+00
 TP5dr SN2dq  1 3.650000e-01    1.910000e+00
 TP5dr SN3dq  1 3.650000e-01    2.110000e+00
 TP5dr SN4dq  1 3.650000e-01    2.340000e+00
 TP5dr SN5dq  1 3.650000e-01    2.340000e+00
 TP5dr SN6dq  1 3.650000e-01    2.570000e+00
 TP5dr SP1dq  1 3.650000e-01    2.830000e+00
 TP5dr SP2dq  1 3.650000e-01    3.100000e+00
 TP5dr SP3dq  1 3.650000e-01    3.100000e+00
 TP5dr SP4dq  1 3.650000e-01    3.370000e+00
 TP6dq SP4dr  1 3.650000e-01    3.640000e+00
 TP5dq SP4dr  1 3.650000e-01    3.370000e+00
 TP4dr SP4dq  1 3.650000e-01    3.370000e+00
 TP4dr SX1eq  1 3.650000e-01    1.910000e+00
 TP4dr SX2eq  1 3.650000e-01    2.110000e+00
 TP4dr SX3eq  1 3.650000e-01    2.110000e+00
 TP4dr SX4eq  1 3.650000e-01    2.340000e+00
 TP4dr SC1eq  1 3.780000e-01    1.450000e+00
 TP4dr SC2eq  1 3.660000e-01    1.600000e+00
 TP4dr SC3eq  1 3.660000e-01    1.600000e+00
 TP4dr SC4eq  1 3.650000e-01    1.750000e+00
 TP4dr SC5eq  1 3.650000e-01    1.910000e+00
 TP4dr SC6eq  1 3.650000e-01    2.110000e+00
 TP4dr SX1vq  1 3.660000e-01    1.600000e+00
 TP4dr SX2vq  1 3.650000e-01    1.750000e+00
 TP4dr SX3vq  1 3.650000e-01    1.750000e+00
 TP4dr SX4vq  1 3.650000e-01    1.910000e+00
 TP4dr SC1vq  1 4.040000e-01    1.130000e+00
 TP4dr SC2vq  1 3.940000e-01    1.290000e+00
 TP4dr SC3vq  1 3.940000e-01    1.290000e+00
 TP4dr SC4vq  1 3.780000e-01    1.450000e+00
 TP4dr SC5vq  1 3.660000e-01    1.600000e+00
 TP4dr SC6vq  1 3.650000e-01    1.750000e+00
 TP4dr SN1aq  1 3.650000e-01    1.910000e+00
 TP4dr SN2aq  1 3.650000e-01    2.110000e+00
 TP4dr SN3aq  1 3.650000e-01    2.570000e+00
 TP4dr SN4aq  1 3.650000e-01    2.830000e+00
 TP4dr SN5aq  1 3.650000e-01    2.830000e+00
 TP4dr SN6aq  1 3.650000e-01    3.100000e+00
 TP4dr SP1aq  1 3.650000e-01    3.370000e+00
 TP4dr SP2aq  1 3.650000e-01    3.640000e+00
 TP4dr SP3aq  1 3.650000e-01    3.640000e+00
 TP4dr SP4aq  1 3.650000e-01    3.930000e+00
 TP5aq SP4dr  1 3.650000e-01    3.930000e+00
 TP6aq SP4dr  1 3.650000e-01    4.220000e+00
 TP4dr SN1dq  1 3.650000e-01    1.910000e+00
 TP4dr SN2dq  1 3.650000e-01    2.110000e+00
 TP4dr SN3dq  1 3.650000e-01    2.110000e+00
 TP4dr SN4dq  1 3.650000e-01    2.340000e+00
 TP4dr SN5dq  1 3.650000e-01    2.340000e+00
 TP4dr SN6dq  1 3.650000e-01    2.570000e+00
 TP4dr SP1dq  1 3.650000e-01    2.830000e+00
 TP4dr SP2dq  1 3.650000e-01    3.100000e+00
 TP4dr SP3dq  1 3.650000e-01    3.100000e+00
 TP6dq SP3dr  1 3.650000e-01    3.370000e+00
 TP5dq SP3dr  1 3.650000e-01    3.100000e+00
 TP4dq SP3dr  1 3.650000e-01    3.100000e+00
 TP3dr SP3dq  1 3.650000e-01    3.100000e+00
 TP3dr SX1eq  1 3.650000e-01    1.910000e+00
 TP3dr SX2eq  1 3.650000e-01    2.110000e+00
 TP3dr SX3eq  1 3.650000e-01    2.340000e+00
 TP3dr SX4eq  1 3.650000e-01    2.340000e+00
 TP3dr SC1eq  1 3.780000e-01    1.450000e+00
 TP3dr SC2eq  1 3.660000e-01    1.600000e+00
 TP3dr SC3eq  1 3.660000e-01    1.600000e+00
 TP3dr SC4eq  1 3.650000e-01    1.910000e+00
 TP3dr SC5eq  1 3.650000e-01    2.110000e+00
 TP3dr SC6eq  1 3.650000e-01    2.340000e+00
 TP3dr SX1vq  1 3.660000e-01    1.600000e+00
 TP3dr SX2vq  1 3.650000e-01    1.750000e+00
 TP3dr SX3vq  1 3.650000e-01    1.910000e+00
 TP3dr SX4vq  1 3.650000e-01    1.910000e+00
 TP3dr SC1vq  1 4.040000e-01    1.130000e+00
 TP3dr SC2vq  1 3.940000e-01    1.290000e+00
 TP3dr SC3vq  1 3.940000e-01    1.290000e+00
 TP3dr SC4vq  1 3.660000e-01    1.600000e+00
 TP3dr SC5vq  1 3.650000e-01    1.750000e+00
 TP3dr SC6vq  1 3.650000e-01    1.910000e+00
 TP3dr SN1aq  1 3.650000e-01    2.110000e+00
 TP3dr SN2aq  1 3.650000e-01    2.570000e+00
 TP3dr SN3aq  1 3.650000e-01    2.570000e+00
 TP3dr SN4aq  1 3.650000e-01    2.830000e+00
 TP3dr SN5aq  1 3.650000e-01    2.830000e+00
 TP3dr SN6aq  1 3.650000e-01    3.100000e+00
 TP3dr SP1aq  1 3.650000e-01    3.370000e+00
 TP3dr SP2aq  1 3.650000e-01    3.640000e+00
 TP3dr SP3aq  1 3.650000e-01    3.640000e+00
 TP4aq SP3dr  1 3.650000e-01    3.640000e+00
 TP5aq SP3dr  1 3.650000e-01    3.640000e+00
 TP6aq SP3dr  1 3.650000e-01    3.930000e+00
 TP3dr SN1dq  1 3.650000e-01    2.110000e+00
 TP3dr SN2dq  1 3.650000e-01    2.110000e+00
 TP3dr SN3dq  1 3.650000e-01    2.110000e+00
 TP3dr SN4dq  1 3.650000e-01    2.340000e+00
 TP3dr SN5dq  1 3.650000e-01    2.340000e+00
 TP3dr SN6dq  1 3.650000e-01    2.570000e+00
 TP3dr SP1dq  1 3.650000e-01    2.830000e+00
 TP3dr SP2dq  1 3.650000e-01    3.100000e+00
 TP6dq SP2dr  1 3.650000e-01    3.370000e+00
 TP5dq SP2dr  1 3.650000e-01    3.100000e+00
 TP4dq SP2dr  1 3.650000e-01    3.100000e+00
 TP3dq SP2dr  1 3.650000e-01    3.100000e+00
 TP2dr SP2dq  1 3.650000e-01    3.100000e+00
 TP2dr SX1eq  1 3.650000e-01    1.910000e+00
 TP2dr SX2eq  1 3.650000e-01    2.110000e+00
 TP2dr SX3eq  1 3.650000e-01    2.340000e+00
 TP2dr SX4eq  1 3.650000e-01    2.340000e+00
 TP2dr SC1eq  1 3.660000e-01    1.600000e+00
 TP2dr SC2eq  1 3.650000e-01    1.750000e+00
 TP2dr SC3eq  1 3.650000e-01    1.750000e+00
 TP2dr SC4eq  1 3.650000e-01    1.910000e+00
 TP2dr SC5eq  1 3.650000e-01    2.110000e+00
 TP2dr SC6eq  1 3.650000e-01    2.340000e+00
 TP2dr SX1vq  1 3.660000e-01    1.600000e+00
 TP2dr SX2vq  1 3.650000e-01    1.750000e+00
 TP2dr SX3vq  1 3.650000e-01    1.910000e+00
 TP2dr SX4vq  1 3.650000e-01    1.910000e+00
 TP2dr SC1vq  1 3.940000e-01    1.290000e+00
 TP2dr SC2vq  1 3.780000e-01    1.450000e+00
 TP2dr SC3vq  1 3.780000e-01    1.450000e+00
 TP2dr SC4vq  1 3.660000e-01    1.600000e+00
 TP2dr SC5vq  1 3.650000e-01    1.750000e+00
 TP2dr SC6vq  1 3.650000e-01    1.910000e+00
 TP2dr SN1aq  1 3.650000e-01    2.570000e+00
 TP2dr SN2aq  1 3.650000e-01    2.570000e+00
 TP2dr SN3aq  1 3.650000e-01    2.570000e+00
 TP2dr SN4aq  1 3.650000e-01    2.830000e+00
 TP2dr SN5aq  1 3.650000e-01    3.100000e+00
 TP2dr SN6aq  1 3.650000e-01    3.370000e+00
 TP2dr SP1aq  1 3.650000e-01    3.370000e+00
 TP2dr SP2aq  1 3.650000e-01    3.640000e+00
 TP3aq SP2dr  1 3.650000e-01    3.640000e+00
 TP4aq SP2dr  1 3.650000e-01    3.640000e+00
 TP5aq SP2dr  1 3.650000e-01    3.640000e+00
 TP6aq SP2dr  1 3.650000e-01    3.930000e+00
 TP2dr SN1dq  1 3.650000e-01    2.110000e+00
 TP2dr SN2dq  1 3.650000e-01    2.110000e+00
 TP2dr SN3dq  1 3.650000e-01    2.110000e+00
 TP2dr SN4dq  1 3.650000e-01    2.340000e+00
 TP2dr SN5dq  1 3.650000e-01    2.570000e+00
 TP2dr SN6dq  1 3.650000e-01    2.830000e+00
 TP2dr SP1dq  1 3.650000e-01    2.830000e+00
 TP6dq SP1dr  1 3.650000e-01    3.100000e+00
 TP5dq SP1dr  1 3.650000e-01    2.830000e+00
 TP4dq SP1dr  1 3.650000e-01    2.830000e+00
 TP3dq SP1dr  1 3.650000e-01    2.830000e+00
 TP2dq SP1dr  1 3.650000e-01    2.830000e+00
 TP1dr SP1dq  1 3.650000e-01    2.830000e+00
 TP1dr SX1eq  1 3.650000e-01    1.910000e+00
 TP1dr SX2eq  1 3.650000e-01    2.110000e+00
 TP1dr SX3eq  1 3.650000e-01    2.340000e+00
 TP1dr SX4eq  1 3.650000e-01    2.340000e+00
 TP1dr SC1eq  1 3.660000e-01    1.600000e+00
 TP1dr SC2eq  1 3.650000e-01    1.750000e+00
 TP1dr SC3eq  1 3.650000e-01    1.750000e+00
 TP1dr SC4eq  1 3.650000e-01    1.910000e+00
 TP1dr SC5eq  1 3.650000e-01    2.110000e+00
 TP1dr SC6eq  1 3.650000e-01    2.340000e+00
 TP1dr SX1vq  1 3.660000e-01    1.600000e+00
 TP1dr SX2vq  1 3.650000e-01    1.750000e+00
 TP1dr SX3vq  1 3.650000e-01    1.910000e+00
 TP1dr SX4vq  1 3.650000e-01    1.910000e+00
 TP1dr SC1vq  1 3.940000e-01    1.290000e+00
 TP1dr SC2vq  1 3.780000e-01    1.450000e+00
 TP1dr SC3vq  1 3.780000e-01    1.450000e+00
 TP1dr SC4vq  1 3.660000e-01    1.600000e+00
 TP1dr SC5vq  1 3.650000e-01    1.750000e+00
 TP1dr SC6vq  1 3.650000e-01    1.910000e+00
 TP1dr SN1aq  1 3.650000e-01    2.570000e+00
 TP1dr SN2aq  1 3.650000e-01    2.570000e+00
 TP1dr SN3aq  1 3.650000e-01    2.570000e+00
 TP1dr SN4aq  1 3.650000e-01    3.100000e+00
 TP1dr SN5aq  1 3.650000e-01    3.100000e+00
 TP1dr SN6aq  1 3.650000e-01    3.370000e+00
 TP1dr SP1aq  1 3.650000e-01    3.370000e+00
 TP2aq SP1dr  1 3.650000e-01    3.370000e+00
 TP3aq SP1dr  1 3.650000e-01    3.370000e+00
 TP4aq SP1dr  1 3.650000e-01    3.370000e+00
 TP5aq SP1dr  1 3.650000e-01    3.370000e+00
 TP6aq SP1dr  1 3.650000e-01    3.640000e+00
 TP1dr SN1dq  1 3.650000e-01    2.110000e+00
 TP1dr SN2dq  1 3.650000e-01    2.110000e+00
 TP1dr SN3dq  1 3.650000e-01    2.110000e+00
 TP1dr SN4dq  1 3.650000e-01    2.570000e+00
 TP1dr SN5dq  1 3.650000e-01    2.570000e+00
 TP1dr SN6dq  1 3.650000e-01    2.830000e+00
 TP6dq SN6dr  1 3.650000e-01    2.830000e+00
 TP5dq SN6dr  1 3.650000e-01    2.570000e+00
 TP4dq SN6dr  1 3.650000e-01    2.570000e+00
 TP3dq SN6dr  1 3.650000e-01    2.570000e+00
 TP2dq SN6dr  1 3.650000e-01    2.830000e+00
 TP1dq SN6dr  1 3.650000e-01    2.830000e+00
 TN6dr SN6dq  1 3.650000e-01    2.830000e+00
 TN6dr SX1eq  1 3.650000e-01    1.910000e+00
 TN6dr SX2eq  1 3.650000e-01    2.110000e+00
 TN6dr SX3eq  1 3.650000e-01    2.340000e+00
 TN6dr SX4eq  1 3.650000e-01    2.570000e+00
 TN6dr SC1eq  1 3.650000e-01    1.750000e+00
 TN6dr SC2eq  1 3.650000e-01    1.910000e+00
 TN6dr SC3eq  1 3.650000e-01    1.910000e+00
 TN6dr SC4eq  1 3.650000e-01    2.110000e+00
 TN6dr SC5eq  1 3.650000e-01    2.340000e+00
 TN6dr SC6eq  1 3.650000e-01    2.570000e+00
 TN6dr SX1vq  1 3.660000e-01    1.600000e+00
 TN6dr SX2vq  1 3.650000e-01    1.750000e+00
 TN6dr SX3vq  1 3.650000e-01    1.910000e+00
 TN6dr SX4vq  1 3.650000e-01    2.110000e+00
 TN6dr SC1vq  1 3.780000e-01    1.450000e+00
 TN6dr SC2vq  1 3.660000e-01    1.600000e+00
 TN6dr SC3vq  1 3.660000e-01    1.600000e+00
 TN6dr SC4vq  1 3.650000e-01    1.750000e+00
 TN6dr SC5vq  1 3.650000e-01    1.910000e+00
 TN6dr SC6vq  1 3.650000e-01    2.110000e+00
 TN6dr SN1aq  1 3.650000e-01    2.570000e+00
 TN6dr SN2aq  1 3.650000e-01    2.570000e+00
 TN6dr SN3aq  1 3.650000e-01    2.830000e+00
 TN6dr SN4aq  1 3.650000e-01    3.370000e+00
 TN6dr SN5aq  1 3.650000e-01    3.370000e+00
 TN6dr SN6aq  1 3.650000e-01    3.370000e+00
 TP1aq SN6dr  1 3.650000e-01    3.370000e+00
 TP2aq SN6dr  1 3.650000e-01    3.370000e+00
 TP3aq SN6dr  1 3.650000e-01    3.100000e+00
 TP4aq SN6dr  1 3.650000e-01    3.100000e+00
 TP5aq SN6dr  1 3.650000e-01    3.100000e+00
 TP6aq SN6dr  1 3.650000e-01    3.370000e+00
 TN6dr SN1dq  1 3.650000e-01    2.110000e+00
 TN6dr SN2dq  1 3.650000e-01    2.110000e+00
 TN6dr SN3dq  1 3.650000e-01    2.340000e+00
 TN6dr SN4dq  1 3.650000e-01    2.830000e+00
 TN6dr SN5dq  1 3.650000e-01    2.830000e+00
 TP6dq SN5dr  1 3.650000e-01    2.340000e+00
 TP5dq SN5dr  1 3.650000e-01    2.340000e+00
 TP4dq SN5dr  1 3.650000e-01    2.340000e+00
 TP3dq SN5dr  1 3.650000e-01    2.340000e+00
 TP2dq SN5dr  1 3.650000e-01    2.570000e+00
 TP1dq SN5dr  1 3.650000e-01    2.570000e+00
 TN6dq SN5dr  1 3.650000e-01    2.830000e+00
 TN5dr SN5dq  1 3.650000e-01    2.570000e+00
 TN5dr SX1eq  1 3.650000e-01    2.110000e+00
 TN5dr SX2eq  1 3.650000e-01    2.340000e+00
 TN5dr SX3eq  1 3.650000e-01    2.570000e+00
 TN5dr SX4eq  1 3.650000e-01    2.830000e+00
 TN5dr SC1eq  1 3.650000e-01    1.750000e+00
 TN5dr SC2eq  1 3.650000e-01    1.910000e+00
 TN5dr SC3eq  1 3.650000e-01    2.110000e+00
 TN5dr SC4eq  1 3.650000e-01    2.110000e+00
 TN5dr SC5eq  1 3.650000e-01    2.340000e+00
 TN5dr SC6eq  1 3.650000e-01    2.570000e+00
 TN5dr SX1vq  1 3.650000e-01    1.750000e+00
 TN5dr SX2vq  1 3.650000e-01    1.910000e+00
 TN5dr SX3vq  1 3.650000e-01    2.110000e+00
 TN5dr SX4vq  1 3.650000e-01    2.340000e+00
 TN5dr SC1vq  1 3.780000e-01    1.450000e+00
 TN5dr SC2vq  1 3.660000e-01    1.600000e+00
 TN5dr SC3vq  1 3.650000e-01    1.750000e+00
 TN5dr SC4vq  1 3.650000e-01    1.750000e+00
 TN5dr SC5vq  1 3.650000e-01    1.910000e+00
 TN5dr SC6vq  1 3.650000e-01    2.110000e+00
 TN5dr SN1aq  1 3.650000e-01    2.570000e+00
 TN5dr SN2aq  1 3.650000e-01    2.830000e+00
 TN5dr SN3aq  1 3.650000e-01    2.830000e+00
 TN5dr SN4aq  1 3.650000e-01    3.100000e+00
 TN5dr SN5aq  1 3.650000e-01    3.100000e+00
 TN6aq SN5dr  1 3.650000e-01    3.370000e+00
 TP1aq SN5dr  1 3.650000e-01    3.100000e+00
 TP2aq SN5dr  1 3.650000e-01    3.100000e+00
 TP3aq SN5dr  1 3.650000e-01    2.830000e+00
 TP4aq SN5dr  1 3.650000e-01    2.830000e+00
 TP5aq SN5dr  1 3.650000e-01    2.830000e+00
 TP6aq SN5dr  1 3.650000e-01    2.830000e+00
 TN5dr SN1dq  1 3.650000e-01    2.110000e+00
 TN5dr SN2dq  1 3.650000e-01    2.340000e+00
 TN5dr SN3dq  1 3.650000e-01    2.340000e+00
 TN5dr SN4dq  1 3.650000e-01    2.570000e+00
 TP6dq SN4dr  1 3.650000e-01    2.110000e+00
 TP5dq SN4dr  1 3.650000e-01    2.340000e+00
 TP4dq SN4dr  1 3.650000e-01    2.340000e+00
 TP3dq SN4dr  1 3.650000e-01    2.340000e+00
 TP2dq SN4dr  1 3.650000e-01    2.340000e+00
 TP1dq SN4dr  1 3.650000e-01    2.570000e+00
 TN6dq SN4dr  1 3.650000e-01    2.830000e+00
 TN5dq SN4dr  1 3.650000e-01    2.570000e+00
 TN4dr SN4dq  1 3.650000e-01    2.570000e+00
 TN4dr SX1eq  1 3.650000e-01    2.110000e+00
 TN4dr SX2eq  1 3.650000e-01    2.340000e+00
 TN4dr SX3eq  1 3.650000e-01    2.830000e+00
 TN4dr SX4eq  1 3.650000e-01    3.100000e+00
 TN4dr SC1eq  1 3.650000e-01    1.750000e+00
 TN4dr SC2eq  1 3.650000e-01    1.910000e+00
 TN4dr SC3eq  1 3.650000e-01    2.110000e+00
 TN4dr SC4eq  1 3.650000e-01    2.340000e+00
 TN4dr SC5eq  1 3.650000e-01    2.340000e+00
 TN4dr SC6eq  1 3.650000e-01    2.570000e+00
 TN4dr SX1vq  1 3.650000e-01    1.750000e+00
 TN4dr SX2vq  1 3.650000e-01    1.910000e+00
 TN4dr SX3vq  1 3.650000e-01    2.340000e+00
 TN4dr SX4vq  1 3.650000e-01    2.570000e+00
 TN4dr SC1vq  1 3.780000e-01    1.450000e+00
 TN4dr SC2vq  1 3.660000e-01    1.600000e+00
 TN4dr SC3vq  1 3.650000e-01    1.750000e+00
 TN4dr SC4vq  1 3.650000e-01    1.910000e+00
 TN4dr SC5vq  1 3.650000e-01    1.910000e+00
 TN4dr SC6vq  1 3.650000e-01    2.110000e+00
 TN4dr SN1aq  1 3.650000e-01    2.570000e+00
 TN4dr SN2aq  1 3.650000e-01    2.830000e+00
 TN4dr SN3aq  1 3.650000e-01    2.830000e+00
 TN4dr SN4aq  1 3.650000e-01    3.100000e+00
 TN5aq SN4dr  1 3.650000e-01    3.100000e+00
 TN6aq SN4dr  1 3.650000e-01    3.370000e+00
 TP1aq SN4dr  1 3.650000e-01    3.100000e+00
 TP2aq SN4dr  1 3.650000e-01    2.830000e+00
 TP3aq SN4dr  1 3.650000e-01    2.830000e+00
 TP4aq SN4dr  1 3.650000e-01    2.830000e+00
 TP5aq SN4dr  1 3.650000e-01    2.830000e+00
 TP6aq SN4dr  1 3.650000e-01    2.570000e+00
 TN4dr SN1dq  1 3.650000e-01    2.110000e+00
 TN4dr SN2dq  1 3.650000e-01    2.340000e+00
 TN4dr SN3dq  1 3.650000e-01    2.340000e+00
 TP6dq SN3dr  1 3.650000e-01    2.110000e+00
 TP5dq SN3dr  1 3.650000e-01    2.110000e+00
 TP4dq SN3dr  1 3.650000e-01    2.110000e+00
 TP3dq SN3dr  1 3.650000e-01    2.110000e+00
 TP2dq SN3dr  1 3.650000e-01    2.110000e+00
 TP1dq SN3dr  1 3.650000e-01    2.110000e+00
 TN6dq SN3dr  1 3.650000e-01    2.340000e+00
 TN5dq SN3dr  1 3.650000e-01    2.340000e+00
 TN4dq SN3dr  1 3.650000e-01    2.340000e+00
 TN3dr SN3dq  1 3.650000e-01    2.340000e+00
 TN3dr SX1eq  1 3.650000e-01    2.340000e+00
 TN3dr SX2eq  1 3.650000e-01    2.340000e+00
 TN3dr SX3eq  1 3.650000e-01    2.570000e+00
 TN3dr SX4eq  1 3.650000e-01    2.830000e+00
 TN3dr SC1eq  1 3.650000e-01    1.910000e+00
 TN3dr SC2eq  1 3.650000e-01    2.110000e+00
 TN3dr SC3eq  1 3.650000e-01    2.110000e+00
 TN3dr SC4eq  1 3.650000e-01    2.340000e+00
 TN3dr SC5eq  1 3.650000e-01    2.340000e+00
 TN3dr SC6eq  1 3.650000e-01    2.570000e+00
 TN3dr SX1vq  1 3.650000e-01    1.910000e+00
 TN3dr SX2vq  1 3.650000e-01    1.910000e+00
 TN3dr SX3vq  1 3.650000e-01    2.110000e+00
 TN3dr SX4vq  1 3.650000e-01    2.340000e+00
 TN3dr SC1vq  1 3.660000e-01    1.600000e+00
 TN3dr SC2vq  1 3.650000e-01    1.750000e+00
 TN3dr SC3vq  1 3.650000e-01    1.750000e+00
 TN3dr SC4vq  1 3.650000e-01    1.910000e+00
 TN3dr SC5vq  1 3.650000e-01    1.910000e+00
 TN3dr SC6vq  1 3.650000e-01    2.110000e+00
 TN3dr SN1aq  1 3.650000e-01    2.570000e+00
 TN3dr SN2aq  1 3.650000e-01    2.830000e+00
 TN3dr SN3aq  1 3.650000e-01    2.830000e+00
 TN4aq SN3dr  1 3.650000e-01    2.830000e+00
 TN5aq SN3dr  1 3.650000e-01    2.830000e+00
 TN6aq SN3dr  1 3.650000e-01    2.830000e+00
 TP1aq SN3dr  1 3.650000e-01    2.570000e+00
 TP2aq SN3dr  1 3.650000e-01    2.570000e+00
 TP3aq SN3dr  1 3.650000e-01    2.570000e+00
 TP4aq SN3dr  1 3.650000e-01    2.570000e+00
 TP5aq SN3dr  1 3.650000e-01    2.110000e+00
 TP6aq SN3dr  1 3.650000e-01    2.110000e+00
 TN3dr SN1dq  1 3.650000e-01    2.110000e+00
 TN3dr SN2dq  1 3.650000e-01    2.340000e+00
 TP6dq SN2dr  1 3.650000e-01    1.910000e+00
 TP5dq SN2dr  1 3.650000e-01    1.910000e+00
 TP4dq SN2dr  1 3.650000e-01    2.110000e+00
 TP3dq SN2dr  1 3.650000e-01    2.110000e+00
 TP2dq SN2dr  1 3.650000e-01    2.110000e+00
 TP1dq SN2dr  1 3.650000e-01    2.110000e+00
 TN6dq SN2dr  1 3.650000e-01    2.110000e+00
 TN5dq SN2dr  1 3.650000e-01    2.340000e+00
 TN4dq SN2dr  1 3.650000e-01    2.340000e+00
 TN3dq SN2dr  1 3.650000e-01    2.340000e+00
 TN2dr SN2dq  1 3.650000e-01    2.340000e+00
 TN2dr SX1eq  1 3.650000e-01    2.340000e+00
 TN2dr SX2eq  1 3.650000e-01    2.340000e+00
 TN2dr SX3eq  1 3.650000e-01    2.570000e+00
 TN2dr SX4eq  1 3.650000e-01    2.830000e+00
 TN2dr SC1eq  1 3.650000e-01    1.910000e+00
 TN2dr SC2eq  1 3.650000e-01    2.110000e+00
 TN2dr SC3eq  1 3.650000e-01    2.340000e+00
 TN2dr SC4eq  1 3.650000e-01    2.340000e+00
 TN2dr SC5eq  1 3.650000e-01    2.340000e+00
 TN2dr SC6eq  1 3.650000e-01    2.570000e+00
 TN2dr SX1vq  1 3.650000e-01    1.910000e+00
 TN2dr SX2vq  1 3.650000e-01    1.910000e+00
 TN2dr SX3vq  1 3.650000e-01    2.110000e+00
 TN2dr SX4vq  1 3.650000e-01    2.340000e+00
 TN2dr SC1vq  1 3.660000e-01    1.600000e+00
 TN2dr SC2vq  1 3.650000e-01    1.750000e+00
 TN2dr SC3vq  1 3.650000e-01    1.910000e+00
 TN2dr SC4vq  1 3.650000e-01    1.910000e+00
 TN2dr SC5vq  1 3.650000e-01    1.910000e+00
 TN2dr SC6vq  1 3.650000e-01    2.110000e+00
 TN2dr SN1aq  1 3.650000e-01    2.570000e+00
 TN2dr SN2aq  1 3.650000e-01    2.830000e+00
 TN3aq SN2dr  1 3.650000e-01    2.830000e+00
 TN4aq SN2dr  1 3.650000e-01    2.830000e+00
 TN5aq SN2dr  1 3.650000e-01    2.830000e+00
 TN6aq SN2dr  1 3.650000e-01    2.570000e+00
 TP1aq SN2dr  1 3.650000e-01    2.570000e+00
 TP2aq SN2dr  1 3.650000e-01    2.570000e+00
 TP3aq SN2dr  1 3.650000e-01    2.570000e+00
 TP4aq SN2dr  1 3.650000e-01    2.110000e+00
 TP5aq SN2dr  1 3.650000e-01    1.910000e+00
 TP6aq SN2dr  1 3.650000e-01    1.910000e+00
 TN2dr SN1dq  1 3.650000e-01    2.110000e+00
 TP6dq SN1dr  1 3.650000e-01    1.750000e+00
 TP5dq SN1dr  1 3.650000e-01    1.750000e+00
 TP4dq SN1dr  1 3.650000e-01    1.910000e+00
 TP3dq SN1dr  1 3.650000e-01    2.110000e+00
 TP2dq SN1dr  1 3.650000e-01    2.110000e+00
 TP1dq SN1dr  1 3.650000e-01    2.110000e+00
 TN6dq SN1dr  1 3.650000e-01    2.110000e+00
 TN5dq SN1dr  1 3.650000e-01    2.110000e+00
 TN4dq SN1dr  1 3.650000e-01    2.110000e+00
 TN3dq SN1dr  1 3.650000e-01    2.110000e+00
 TN2dq SN1dr  1 3.650000e-01    2.110000e+00
 TN1dr SN1dq  1 3.650000e-01    2.340000e+00
 TN1dr SX1eq  1 3.650000e-01    2.340000e+00
 TN1dr SX2eq  1 3.650000e-01    2.340000e+00
 TN1dr SX3eq  1 3.650000e-01    2.570000e+00
 TN1dr SX4eq  1 3.650000e-01    2.570000e+00
 TN1dr SC1eq  1 3.650000e-01    1.910000e+00
 TN1dr SC2eq  1 3.650000e-01    2.110000e+00
 TN1dr SC3eq  1 3.650000e-01    2.340000e+00
 TN1dr SC4eq  1 3.650000e-01    2.570000e+00
 TN1dr SC5eq  1 3.650000e-01    2.570000e+00
 TN1dr SC6eq  1 3.650000e-01    2.830000e+00
 TN1dr SX1vq  1 3.650000e-01    1.910000e+00
 TN1dr SX2vq  1 3.650000e-01    1.910000e+00
 TN1dr SX3vq  1 3.650000e-01    2.110000e+00
 TN1dr SX4vq  1 3.650000e-01    2.110000e+00
 TN1dr SC1vq  1 3.660000e-01    1.600000e+00
 TN1dr SC2vq  1 3.650000e-01    1.750000e+00
 TN1dr SC3vq  1 3.650000e-01    1.910000e+00
 TN1dr SC4vq  1 3.650000e-01    2.110000e+00
 TN1dr SC5vq  1 3.650000e-01    2.110000e+00
 TN1dr SC6vq  1 3.650000e-01    2.340000e+00
 TN1dr SN1aq  1 3.650000e-01    2.830000e+00
 TN2aq SN1dr  1 3.650000e-01    2.570000e+00
 TN3aq SN1dr  1 3.650000e-01    2.570000e+00
 TN4aq SN1dr  1 3.650000e-01    2.570000e+00
 TN5aq SN1dr  1 3.650000e-01    2.570000e+00
 TN6aq SN1dr  1 3.650000e-01    2.570000e+00
 TP1aq SN1dr  1 3.650000e-01    2.570000e+00
 TP2aq SN1dr  1 3.650000e-01    2.570000e+00
 TP3aq SN1dr  1 3.650000e-01    2.110000e+00
 TP4aq SN1dr  1 3.650000e-01    1.910000e+00
 TP5aq SN1dr  1 3.650000e-01    1.750000e+00
 TP6aq SN1dr  1 3.650000e-01    1.750000e+00
 TP6dq SP6ar  1 3.650000e-01    4.860000e+00
 TP6ar SP5dq  1 3.650000e-01    4.510000e+00
 TP6ar SP4dq  1 3.650000e-01    4.220000e+00
 TP6ar SP3dq  1 3.650000e-01    3.930000e+00
 TP6ar SP2dq  1 3.650000e-01    3.930000e+00
 TP6ar SP1dq  1 3.650000e-01    3.640000e+00
 TP6ar SN6dq  1 3.650000e-01    3.370000e+00
 TP6ar SN5dq  1 3.650000e-01    2.830000e+00
 TP6ar SN4dq  1 3.650000e-01    2.570000e+00
 TP6ar SN3dq  1 3.650000e-01    2.110000e+00
 TP6ar SN2dq  1 3.650000e-01    1.910000e+00
 TP6ar SN1dq  1 3.650000e-01    1.750000e+00
 TP6ar SP6aq  1 3.650000e-01    4.220000e+00
 TP6ar SX1eq  1 3.780000e-01    1.450000e+00
 TP6ar SX2eq  1 3.660000e-01    1.600000e+00
 TP6ar SX3eq  1 3.650000e-01    1.750000e+00
 TP6ar SX4eq  1 3.650000e-01    1.750000e+00
 TP6ar SC1eq  1 4.230000e-01    9.810000e-01
 TP6ar SC2eq  1 4.040000e-01    1.130000e+00
 TP6ar SC3eq  1 4.040000e-01    1.130000e+00
 TP6ar SC4eq  1 3.940000e-01    1.290000e+00
 TP6ar SC5eq  1 3.780000e-01    1.450000e+00
 TP6ar SC6eq  1 3.660000e-01    1.600000e+00
 TP6ar SX1vq  1 3.650000e-01    1.750000e+00
 TP6ar SX2vq  1 3.650000e-01    1.910000e+00
 TP6ar SX3vq  1 3.650000e-01    2.110000e+00
 TP6ar SX4vq  1 3.650000e-01    2.110000e+00
 TP6ar SC1vq  1 4.040000e-01    1.130000e+00
 TP6ar SC2vq  1 3.780000e-01    1.450000e+00
 TP6ar SC3vq  1 3.780000e-01    1.450000e+00
 TP6ar SC4vq  1 3.660000e-01    1.600000e+00
 TP6ar SC5vq  1 3.650000e-01    1.750000e+00
 TP6ar SC6vq  1 3.650000e-01    1.910000e+00
 TP6ar SN1aq  1 3.650000e-01    1.750000e+00
 TP6ar SN2aq  1 3.650000e-01    1.910000e+00
 TP6ar SN3aq  1 3.650000e-01    2.110000e+00
 TP6ar SN4aq  1 3.650000e-01    2.110000e+00
 TP6ar SN5aq  1 3.650000e-01    2.340000e+00
 TP6ar SN6aq  1 3.650000e-01    2.830000e+00
 TP6ar SP1aq  1 3.650000e-01    3.100000e+00
 TP6ar SP2aq  1 3.650000e-01    3.370000e+00
 TP6ar SP3aq  1 3.650000e-01    3.370000e+00
 TP6ar SP4aq  1 3.650000e-01    3.640000e+00
 TP6ar SP5aq  1 3.650000e-01    3.930000e+00
 TP6dq SP5ar  1 3.650000e-01    4.510000e+00
 TP5dq SP5ar  1 3.650000e-01    4.220000e+00
 TP5ar SP4dq  1 3.650000e-01    3.930000e+00
 TP5ar SP3dq  1 3.650000e-01    3.640000e+00
 TP5ar SP2dq  1 3.650000e-01    3.640000e+00
 TP5ar SP1dq  1 3.650000e-01    3.370000e+00
 TP5ar SN6dq  1 3.650000e-01    3.100000e+00
 TP5ar SN5dq  1 3.650000e-01    2.830000e+00
 TP5ar SN4dq  1 3.650000e-01    2.830000e+00
 TP5ar SN3dq  1 3.650000e-01    2.110000e+00
 TP5ar SN2dq  1 3.650000e-01    1.910000e+00
 TP5ar SN1dq  1 3.650000e-01    1.750000e+00
 TP6aq SP5ar  1 3.650000e-01    3.930000e+00
 TP5ar SP5aq  1 3.650000e-01    3.640000e+00
 TP5ar SX1eq  1 3.780000e-01    1.450000e+00
 TP5ar SX2eq  1 3.650000e-01    1.750000e+00
 TP5ar SX3eq  1 3.650000e-01    1.750000e+00
 TP5ar SX4eq  1 3.650000e-01    1.910000e+00
 TP5ar SC1eq  1 4.040000e-01    1.130000e+00
 TP5ar SC2eq  1 3.940000e-01    1.290000e+00
 TP5ar SC3eq  1 3.940000e-01    1.290000e+00
 TP5ar SC4eq  1 3.780000e-01    1.450000e+00
 TP5ar SC5eq  1 3.660000e-01    1.600000e+00
 TP5ar SC6eq  1 3.660000e-01    1.600000e+00
 TP5ar SX1vq  1 3.650000e-01    1.750000e+00
 TP5ar SX2vq  1 3.650000e-01    2.110000e+00
 TP5ar SX3vq  1 3.650000e-01    2.110000e+00
 TP5ar SX4vq  1 3.650000e-01    2.340000e+00
 TP5ar SC1vq  1 3.780000e-01    1.450000e+00
 TP5ar SC2vq  1 3.660000e-01    1.600000e+00
 TP5ar SC3vq  1 3.660000e-01    1.600000e+00
 TP5ar SC4vq  1 3.650000e-01    1.750000e+00
 TP5ar SC5vq  1 3.650000e-01    1.910000e+00
 TP5ar SC6vq  1 3.650000e-01    1.910000e+00
 TP5ar SN1aq  1 3.650000e-01    1.750000e+00
 TP5ar SN2aq  1 3.650000e-01    1.910000e+00
 TP5ar SN3aq  1 3.650000e-01    2.110000e+00
 TP5ar SN4aq  1 3.650000e-01    2.340000e+00
 TP5ar SN5aq  1 3.650000e-01    2.340000e+00
 TP5ar SN6aq  1 3.650000e-01    2.570000e+00
 TP5ar SP1aq  1 3.650000e-01    2.830000e+00
 TP5ar SP2aq  1 3.650000e-01    3.100000e+00
 TP5ar SP3aq  1 3.650000e-01    3.100000e+00
 TP5ar SP4aq  1 3.650000e-01    3.370000e+00
 TP6dq SP4ar  1 3.650000e-01    4.220000e+00
 TP5dq SP4ar  1 3.650000e-01    3.930000e+00
 TP4dq SP4ar  1 3.650000e-01    3.930000e+00
 TP4ar SP3dq  1 3.650000e-01    3.640000e+00
 TP4ar SP2dq  1 3.650000e-01    3.640000e+00
 TP4ar SP1dq  1 3.650000e-01    3.370000e+00
 TP4ar SN6dq  1 3.650000e-01    3.100000e+00
 TP4ar SN5dq  1 3.650000e-01    2.830000e+00
 TP4ar SN4dq  1 3.650000e-01    2.830000e+00
 TP4ar SN3dq  1 3.650000e-01    2.570000e+00
 TP4ar SN2dq  1 3.650000e-01    2.110000e+00
 TP4ar SN1dq  1 3.650000e-01    1.910000e+00
 TP6aq SP4ar  1 3.650000e-01    3.640000e+00
 TP5aq SP4ar  1 3.650000e-01    3.370000e+00
 TP4ar SP4aq  1 3.650000e-01    3.370000e+00
 TP4ar SX1eq  1 3.660000e-01    1.600000e+00
 TP4ar SX2eq  1 3.650000e-01    1.750000e+00
 TP4ar SX3eq  1 3.650000e-01    1.750000e+00
 TP4ar SX4eq  1 3.650000e-01    1.910000e+00
 TP4ar SC1eq  1 4.040000e-01    1.130000e+00
 TP4ar SC2eq  1 3.940000e-01    1.290000e+00
 TP4ar SC3eq  1 3.940000e-01    1.290000e+00
 TP4ar SC4eq  1 3.780000e-01    1.450000e+00
 TP4ar SC5eq  1 3.660000e-01    1.600000e+00
 TP4ar SC6eq  1 3.650000e-01    1.750000e+00
 TP4ar SX1vq  1 3.650000e-01    1.910000e+00
 TP4ar SX2vq  1 3.650000e-01    2.110000e+00
 TP4ar SX3vq  1 3.650000e-01    2.110000e+00
 TP4ar SX4vq  1 3.650000e-01    2.340000e+00
 TP4ar SC1vq  1 3.780000e-01    1.450000e+00
 TP4ar SC2vq  1 3.660000e-01    1.600000e+00
 TP4ar SC3vq  1 3.660000e-01    1.600000e+00
 TP4ar SC4vq  1 3.650000e-01    1.750000e+00
 TP4ar SC5vq  1 3.650000e-01    1.910000e+00
 TP4ar SC6vq  1 3.650000e-01    2.110000e+00
 TP4ar SN1aq  1 3.650000e-01    1.910000e+00
 TP4ar SN2aq  1 3.650000e-01    2.110000e+00
 TP4ar SN3aq  1 3.650000e-01    2.110000e+00
 TP4ar SN4aq  1 3.650000e-01    2.340000e+00
 TP4ar SN5aq  1 3.650000e-01    2.340000e+00
 TP4ar SN6aq  1 3.650000e-01    2.570000e+00
 TP4ar SP1aq  1 3.650000e-01    2.830000e+00
 TP4ar SP2aq  1 3.650000e-01    3.100000e+00
 TP4ar SP3aq  1 3.650000e-01    3.100000e+00
 TP6dq SP3ar  1 3.650000e-01    3.930000e+00
 TP5dq SP3ar  1 3.650000e-01    3.640000e+00
 TP4dq SP3ar  1 3.650000e-01    3.640000e+00
 TP3dq SP3ar  1 3.650000e-01    3.640000e+00
 TP3ar SP2dq  1 3.650000e-01    3.640000e+00
 TP3ar SP1dq  1 3.650000e-01    3.370000e+00
 TP3ar SN6dq  1 3.650000e-01    3.100000e+00
 TP3ar SN5dq  1 3.650000e-01    2.830000e+00
 TP3ar SN4dq  1 3.650000e-01    2.830000e+00
 TP3ar SN3dq  1 3.650000e-01    2.570000e+00
 TP3ar SN2dq  1 3.650000e-01    2.570000e+00
 TP3ar SN1dq  1 3.650000e-01    2.110000e+00
 TP6aq SP3ar  1 3.650000e-01    3.370000e+00
 TP5aq SP3ar  1 3.650000e-01    3.100000e+00
 TP4aq SP3ar  1 3.650000e-01    3.100000e+00
 TP3ar SP3aq  1 3.650000e-01    3.100000e+00
 TP3ar SX1eq  1 3.660000e-01    1.600000e+00
 TP3ar SX2eq  1 3.650000e-01    1.750000e+00
 TP3ar SX3eq  1 3.650000e-01    1.910000e+00
 TP3ar SX4eq  1 3.650000e-01    1.910000e+00
 TP3ar SC1eq  1 4.040000e-01    1.130000e+00
 TP3ar SC2eq  1 3.940000e-01    1.290000e+00
 TP3ar SC3eq  1 3.940000e-01    1.290000e+00
 TP3ar SC4eq  1 3.660000e-01    1.600000e+00
 TP3ar SC5eq  1 3.650000e-01    1.750000e+00
 TP3ar SC6eq  1 3.650000e-01    1.910000e+00
 TP3ar SX1vq  1 3.650000e-01    1.910000e+00
 TP3ar SX2vq  1 3.650000e-01    2.110000e+00
 TP3ar SX3vq  1 3.650000e-01    2.340000e+00
 TP3ar SX4vq  1 3.650000e-01    2.340000e+00
 TP3ar SC1vq  1 3.780000e-01    1.450000e+00
 TP3ar SC2vq  1 3.660000e-01    1.600000e+00
 TP3ar SC3vq  1 3.660000e-01    1.600000e+00
 TP3ar SC4vq  1 3.650000e-01    1.910000e+00
 TP3ar SC5vq  1 3.650000e-01    2.110000e+00
 TP3ar SC6vq  1 3.650000e-01    2.340000e+00
 TP3ar SN1aq  1 3.650000e-01    2.110000e+00
 TP3ar SN2aq  1 3.650000e-01    2.110000e+00
 TP3ar SN3aq  1 3.650000e-01    2.110000e+00
 TP3ar SN4aq  1 3.650000e-01    2.340000e+00
 TP3ar SN5aq  1 3.650000e-01    2.340000e+00
 TP3ar SN6aq  1 3.650000e-01    2.570000e+00
 TP3ar SP1aq  1 3.650000e-01    2.830000e+00
 TP3ar SP2aq  1 3.650000e-01    3.100000e+00
 TP6dq SP2ar  1 3.650000e-01    3.930000e+00
 TP5dq SP2ar  1 3.650000e-01    3.640000e+00
 TP4dq SP2ar  1 3.650000e-01    3.640000e+00
 TP3dq SP2ar  1 3.650000e-01    3.640000e+00
 TP2dq SP2ar  1 3.650000e-01    3.640000e+00
 TP2ar SP1dq  1 3.650000e-01    3.370000e+00
 TP2ar SN6dq  1 3.650000e-01    3.370000e+00
 TP2ar SN5dq  1 3.650000e-01    3.100000e+00
 TP2ar SN4dq  1 3.650000e-01    2.830000e+00
 TP2ar SN3dq  1 3.650000e-01    2.570000e+00
 TP2ar SN2dq  1 3.650000e-01    2.570000e+00
 TP2ar SN1dq  1 3.650000e-01    2.570000e+00
 TP6aq SP2ar  1 3.650000e-01    3.370000e+00
 TP5aq SP2ar  1 3.650000e-01    3.100000e+00
 TP4aq SP2ar  1 3.650000e-01    3.100000e+00
 TP3aq SP2ar  1 3.650000e-01    3.100000e+00
 TP2ar SP2aq  1 3.650000e-01    3.100000e+00
 TP2ar SX1eq  1 3.660000e-01    1.600000e+00
 TP2ar SX2eq  1 3.650000e-01    1.750000e+00
 TP2ar SX3eq  1 3.650000e-01    1.910000e+00
 TP2ar SX4eq  1 3.650000e-01    1.910000e+00
 TP2ar SC1eq  1 3.940000e-01    1.290000e+00
 TP2ar SC2eq  1 3.780000e-01    1.450000e+00
 TP2ar SC3eq  1 3.780000e-01    1.450000e+00
 TP2ar SC4eq  1 3.660000e-01    1.600000e+00
 TP2ar SC5eq  1 3.650000e-01    1.750000e+00
 TP2ar SC6eq  1 3.650000e-01    1.910000e+00
 TP2ar SX1vq  1 3.650000e-01    1.910000e+00
 TP2ar SX2vq  1 3.650000e-01    2.110000e+00
 TP2ar SX3vq  1 3.650000e-01    2.340000e+00
 TP2ar SX4vq  1 3.650000e-01    2.340000e+00
 TP2ar SC1vq  1 3.660000e-01    1.600000e+00
 TP2ar SC2vq  1 3.650000e-01    1.750000e+00
 TP2ar SC3vq  1 3.650000e-01    1.750000e+00
 TP2ar SC4vq  1 3.650000e-01    1.910000e+00
 TP2ar SC5vq  1 3.650000e-01    2.110000e+00
 TP2ar SC6vq  1 3.650000e-01    2.340000e+00
 TP2ar SN1aq  1 3.650000e-01    2.110000e+00
 TP2ar SN2aq  1 3.650000e-01    2.110000e+00
 TP2ar SN3aq  1 3.650000e-01    2.110000e+00
 TP2ar SN4aq  1 3.650000e-01    2.340000e+00
 TP2ar SN5aq  1 3.650000e-01    2.570000e+00
 TP2ar SN6aq  1 3.650000e-01    2.830000e+00
 TP2ar SP1aq  1 3.650000e-01    2.830000e+00
 TP6dq SP1ar  1 3.650000e-01    3.640000e+00
 TP5dq SP1ar  1 3.650000e-01    3.370000e+00
 TP4dq SP1ar  1 3.650000e-01    3.370000e+00
 TP3dq SP1ar  1 3.650000e-01    3.370000e+00
 TP2dq SP1ar  1 3.650000e-01    3.370000e+00
 TP1dq SP1ar  1 3.650000e-01    3.370000e+00
 TP1ar SN6dq  1 3.650000e-01    3.370000e+00
 TP1ar SN5dq  1 3.650000e-01    3.100000e+00
 TP1ar SN4dq  1 3.650000e-01    3.100000e+00
 TP1ar SN3dq  1 3.650000e-01    2.570000e+00
 TP1ar SN2dq  1 3.650000e-01    2.570000e+00
 TP1ar SN1dq  1 3.650000e-01    2.570000e+00
 TP6aq SP1ar  1 3.650000e-01    3.100000e+00
 TP5aq SP1ar  1 3.650000e-01    2.830000e+00
 TP4aq SP1ar  1 3.650000e-01    2.830000e+00
 TP3aq SP1ar  1 3.650000e-01    2.830000e+00
 TP2aq SP1ar  1 3.650000e-01    2.830000e+00
 TP1ar SP1aq  1 3.650000e-01    2.830000e+00
 TP1ar SX1eq  1 3.660000e-01    1.600000e+00
 TP1ar SX2eq  1 3.650000e-01    1.750000e+00
 TP1ar SX3eq  1 3.650000e-01    1.910000e+00
 TP1ar SX4eq  1 3.650000e-01    1.910000e+00
 TP1ar SC1eq  1 3.940000e-01    1.290000e+00
 TP1ar SC2eq  1 3.780000e-01    1.450000e+00
 TP1ar SC3eq  1 3.780000e-01    1.450000e+00
 TP1ar SC4eq  1 3.660000e-01    1.600000e+00
 TP1ar SC5eq  1 3.650000e-01    1.750000e+00
 TP1ar SC6eq  1 3.650000e-01    1.910000e+00
 TP1ar SX1vq  1 3.650000e-01    1.910000e+00
 TP1ar SX2vq  1 3.650000e-01    2.110000e+00
 TP1ar SX3vq  1 3.650000e-01    2.340000e+00
 TP1ar SX4vq  1 3.650000e-01    2.340000e+00
 TP1ar SC1vq  1 3.660000e-01    1.600000e+00
 TP1ar SC2vq  1 3.650000e-01    1.750000e+00
 TP1ar SC3vq  1 3.650000e-01    1.750000e+00
 TP1ar SC4vq  1 3.650000e-01    1.910000e+00
 TP1ar SC5vq  1 3.650000e-01    2.110000e+00
 TP1ar SC6vq  1 3.650000e-01    2.340000e+00
 TP1ar SN1aq  1 3.650000e-01    2.110000e+00
 TP1ar SN2aq  1 3.650000e-01    2.110000e+00
 TP1ar SN3aq  1 3.650000e-01    2.110000e+00
 TP1ar SN4aq  1 3.650000e-01    2.570000e+00
 TP1ar SN5aq  1 3.650000e-01    2.570000e+00
 TP1ar SN6aq  1 3.650000e-01    2.830000e+00
 TP6dq SN6ar  1 3.650000e-01    3.370000e+00
 TP5dq SN6ar  1 3.650000e-01    3.100000e+00
 TP4dq SN6ar  1 3.650000e-01    3.100000e+00
 TP3dq SN6ar  1 3.650000e-01    3.100000e+00
 TP2dq SN6ar  1 3.650000e-01    3.370000e+00
 TP1dq SN6ar  1 3.650000e-01    3.370000e+00
 TN6dq SN6ar  1 3.650000e-01    3.370000e+00
 TN6ar SN5dq  1 3.650000e-01    3.370000e+00
 TN6ar SN4dq  1 3.650000e-01    3.370000e+00
 TN6ar SN3dq  1 3.650000e-01    2.830000e+00
 TN6ar SN2dq  1 3.650000e-01    2.570000e+00
 TN6ar SN1dq  1 3.650000e-01    2.570000e+00
 TP6aq SN6ar  1 3.650000e-01    2.830000e+00
 TP5aq SN6ar  1 3.650000e-01    2.570000e+00
 TP4aq SN6ar  1 3.650000e-01    2.570000e+00
 TP3aq SN6ar  1 3.650000e-01    2.570000e+00
 TP2aq SN6ar  1 3.650000e-01    2.830000e+00
 TP1aq SN6ar  1 3.650000e-01    2.830000e+00
 TN6ar SN6aq  1 3.650000e-01    2.830000e+00
 TN6ar SX1eq  1 3.660000e-01    1.600000e+00
 TN6ar SX2eq  1 3.650000e-01    1.750000e+00
 TN6ar SX3eq  1 3.650000e-01    1.910000e+00
 TN6ar SX4eq  1 3.650000e-01    2.110000e+00
 TN6ar SC1eq  1 3.780000e-01    1.450000e+00
 TN6ar SC2eq  1 3.660000e-01    1.600000e+00
 TN6ar SC3eq  1 3.660000e-01    1.600000e+00
 TN6ar SC4eq  1 3.650000e-01    1.750000e+00
 TN6ar SC5eq  1 3.650000e-01    1.910000e+00
 TN6ar SC6eq  1 3.650000e-01    2.110000e+00
 TN6ar SX1vq  1 3.650000e-01    1.910000e+00
 TN6ar SX2vq  1 3.650000e-01    2.110000e+00
 TN6ar SX3vq  1 3.650000e-01    2.340000e+00
 TN6ar SX4vq  1 3.650000e-01    2.570000e+00
 TN6ar SC1vq  1 3.650000e-01    1.750000e+00
 TN6ar SC2vq  1 3.650000e-01    1.910000e+00
 TN6ar SC3vq  1 3.650000e-01    1.910000e+00
 TN6ar SC4vq  1 3.650000e-01    2.110000e+00
 TN6ar SC5vq  1 3.650000e-01    2.340000e+00
 TN6ar SC6vq  1 3.650000e-01    2.570000e+00
 TN6ar SN1aq  1 3.650000e-01    2.110000e+00
 TN6ar SN2aq  1 3.650000e-01    2.110000e+00
 TN6ar SN3aq  1 3.650000e-01    2.340000e+00
 TN6ar SN4aq  1 3.650000e-01    2.830000e+00
 TN6ar SN5aq  1 3.650000e-01    2.830000e+00
 TP6dq SN5ar  1 3.650000e-01    2.830000e+00
 TP5dq SN5ar  1 3.650000e-01    2.830000e+00
 TP4dq SN5ar  1 3.650000e-01    2.830000e+00
 TP3dq SN5ar  1 3.650000e-01    2.830000e+00
 TP2dq SN5ar  1 3.650000e-01    3.100000e+00
 TP1dq SN5ar  1 3.650000e-01    3.100000e+00
 TN6dq SN5ar  1 3.650000e-01    3.370000e+00
 TN5dq SN5ar  1 3.650000e-01    3.100000e+00
 TN5ar SN4dq  1 3.650000e-01    3.100000e+00
 TN5ar SN3dq  1 3.650000e-01    2.830000e+00
 TN5ar SN2dq  1 3.650000e-01    2.830000e+00
 TN5ar SN1dq  1 3.650000e-01    2.570000e+00
 TP6aq SN5ar  1 3.650000e-01    2.340000e+00
 TP5aq SN5ar  1 3.650000e-01    2.340000e+00
 TP4aq SN5ar  1 3.650000e-01    2.340000e+00
 TP3aq SN5ar  1 3.650000e-01    2.340000e+00
 TP2aq SN5ar  1 3.650000e-01    2.570000e+00
 TP1aq SN5ar  1 3.650000e-01    2.570000e+00
 TN6aq SN5ar  1 3.650000e-01    2.830000e+00
 TN5ar SN5aq  1 3.650000e-01    2.570000e+00
 TN5ar SX1eq  1 3.650000e-01    1.750000e+00
 TN5ar SX2eq  1 3.650000e-01    1.910000e+00
 TN5ar SX3eq  1 3.650000e-01    2.110000e+00
 TN5ar SX4eq  1 3.650000e-01    2.340000e+00
 TN5ar SC1eq  1 3.780000e-01    1.450000e+00
 TN5ar SC2eq  1 3.660000e-01    1.600000e+00
 TN5ar SC3eq  1 3.650000e-01    1.750000e+00
 TN5ar SC4eq  1 3.650000e-01    1.750000e+00
 TN5ar SC5eq  1 3.650000e-01    1.910000e+00
 TN5ar SC6eq  1 3.650000e-01    2.110000e+00
 TN5ar SX1vq  1 3.650000e-01    2.110000e+00
 TN5ar SX2vq  1 3.650000e-01    2.340000e+00
 TN5ar SX3vq  1 3.650000e-01    2.570000e+00
 TN5ar SX4vq  1 3.650000e-01    2.830000e+00
 TN5ar SC1vq  1 3.650000e-01    1.750000e+00
 TN5ar SC2vq  1 3.650000e-01    1.910000e+00
 TN5ar SC3vq  1 3.650000e-01    2.110000e+00
 TN5ar SC4vq  1 3.650000e-01    2.110000e+00
 TN5ar SC5vq  1 3.650000e-01    2.340000e+00
 TN5ar SC6vq  1 3.650000e-01    2.570000e+00
 TN5ar SN1aq  1 3.650000e-01    2.110000e+00
 TN5ar SN2aq  1 3.650000e-01    2.340000e+00
 TN5ar SN3aq  1 3.650000e-01    2.340000e+00
 TN5ar SN4aq  1 3.650000e-01    2.570000e+00
 TP6dq SN4ar  1 3.650000e-01    2.570000e+00
 TP5dq SN4ar  1 3.650000e-01    2.830000e+00
 TP4dq SN4ar  1 3.650000e-01    2.830000e+00
 TP3dq SN4ar  1 3.650000e-01    2.830000e+00
 TP2dq SN4ar  1 3.650000e-01    2.830000e+00
 TP1dq SN4ar  1 3.650000e-01    3.100000e+00
 TN6dq SN4ar  1 3.650000e-01    3.370000e+00
 TN5dq SN4ar  1 3.650000e-01    3.100000e+00
 TN4dq SN4ar  1 3.650000e-01    3.100000e+00
 TN4ar SN3dq  1 3.650000e-01    2.830000e+00
 TN4ar SN2dq  1 3.650000e-01    2.830000e+00
 TN4ar SN1dq  1 3.650000e-01    2.570000e+00
 TP6aq SN4ar  1 3.650000e-01    2.110000e+00
 TP5aq SN4ar  1 3.650000e-01    2.340000e+00
 TP4aq SN4ar  1 3.650000e-01    2.340000e+00
 TP3aq SN4ar  1 3.650000e-01    2.340000e+00
 TP2aq SN4ar  1 3.650000e-01    2.340000e+00
 TP1aq SN4ar  1 3.650000e-01    2.570000e+00
 TN6aq SN4ar  1 3.650000e-01    2.830000e+00
 TN5aq SN4ar  1 3.650000e-01    2.570000e+00
 TN4ar SN4aq  1 3.650000e-01    2.570000e+00
 TN4ar SX1eq  1 3.650000e-01    1.750000e+00
 TN4ar SX2eq  1 3.650000e-01    1.910000e+00
 TN4ar SX3eq  1 3.650000e-01    2.340000e+00
 TN4ar SX4eq  1 3.650000e-01    2.570000e+00
 TN4ar SC1eq  1 3.780000e-01    1.450000e+00
 TN4ar SC2eq  1 3.660000e-01    1.600000e+00
 TN4ar SC3eq  1 3.650000e-01    1.750000e+00
 TN4ar SC4eq  1 3.650000e-01    1.910000e+00
 TN4ar SC5eq  1 3.650000e-01    1.910000e+00
 TN4ar SC6eq  1 3.650000e-01    2.110000e+00
 TN4ar SX1vq  1 3.650000e-01    2.110000e+00
 TN4ar SX2vq  1 3.650000e-01    2.340000e+00
 TN4ar SX3vq  1 3.650000e-01    2.830000e+00
 TN4ar SX4vq  1 3.650000e-01    3.100000e+00
 TN4ar SC1vq  1 3.650000e-01    1.750000e+00
 TN4ar SC2vq  1 3.650000e-01    1.910000e+00
 TN4ar SC3vq  1 3.650000e-01    2.110000e+00
 TN4ar SC4vq  1 3.650000e-01    2.340000e+00
 TN4ar SC5vq  1 3.650000e-01    2.340000e+00
 TN4ar SC6vq  1 3.650000e-01    2.570000e+00
 TN4ar SN1aq  1 3.650000e-01    2.110000e+00
 TN4ar SN2aq  1 3.650000e-01    2.340000e+00
 TN4ar SN3aq  1 3.650000e-01    2.340000e+00
 TP6dq SN3ar  1 3.650000e-01    2.110000e+00
 TP5dq SN3ar  1 3.650000e-01    2.110000e+00
 TP4dq SN3ar  1 3.650000e-01    2.570000e+00
 TP3dq SN3ar  1 3.650000e-01    2.570000e+00
 TP2dq SN3ar  1 3.650000e-01    2.570000e+00
 TP1dq SN3ar  1 3.650000e-01    2.570000e+00
 TN6dq SN3ar  1 3.650000e-01    2.830000e+00
 TN5dq SN3ar  1 3.650000e-01    2.830000e+00
 TN4dq SN3ar  1 3.650000e-01    2.830000e+00
 TN3dq SN3ar  1 3.650000e-01    2.830000e+00
 TN3ar SN2dq  1 3.650000e-01    2.830000e+00
 TN3ar SN1dq  1 3.650000e-01    2.570000e+00
 TP6aq SN3ar  1 3.650000e-01    2.110000e+00
 TP5aq SN3ar  1 3.650000e-01    2.110000e+00
 TP4aq SN3ar  1 3.650000e-01    2.110000e+00
 TP3aq SN3ar  1 3.650000e-01    2.110000e+00
 TP2aq SN3ar  1 3.650000e-01    2.110000e+00
 TP1aq SN3ar  1 3.650000e-01    2.110000e+00
 TN6aq SN3ar  1 3.650000e-01    2.340000e+00
 TN5aq SN3ar  1 3.650000e-01    2.340000e+00
 TN4aq SN3ar  1 3.650000e-01    2.340000e+00
 TN3ar SN3aq  1 3.650000e-01    2.340000e+00
 TN3ar SX1eq  1 3.650000e-01    1.910000e+00
 TN3ar SX2eq  1 3.650000e-01    1.910000e+00
 TN3ar SX3eq  1 3.650000e-01    2.110000e+00
 TN3ar SX4eq  1 3.650000e-01    2.340000e+00
 TN3ar SC1eq  1 3.660000e-01    1.600000e+00
 TN3ar SC2eq  1 3.650000e-01    1.750000e+00
 TN3ar SC3eq  1 3.650000e-01    1.750000e+00
 TN3ar SC4eq  1 3.650000e-01    1.910000e+00
 TN3ar SC5eq  1 3.650000e-01    1.910000e+00
 TN3ar SC6eq  1 3.650000e-01    2.110000e+00
 TN3ar SX1vq  1 3.650000e-01    2.340000e+00
 TN3ar SX2vq  1 3.650000e-01    2.340000e+00
 TN3ar SX3vq  1 3.650000e-01    2.570000e+00
 TN3ar SX4vq  1 3.650000e-01    2.830000e+00
 TN3ar SC1vq  1 3.650000e-01    1.910000e+00
 TN3ar SC2vq  1 3.650000e-01    2.110000e+00
 TN3ar SC3vq  1 3.650000e-01    2.110000e+00
 TN3ar SC4vq  1 3.650000e-01    2.340000e+00
 TN3ar SC5vq  1 3.650000e-01    2.340000e+00
 TN3ar SC6vq  1 3.650000e-01    2.570000e+00
 TN3ar SN1aq  1 3.650000e-01    2.110000e+00
 TN3ar SN2aq  1 3.650000e-01    2.340000e+00
 TP6dq SN2ar  1 3.650000e-01    1.910000e+00
 TP5dq SN2ar  1 3.650000e-01    1.910000e+00
 TP4dq SN2ar  1 3.650000e-01    2.110000e+00
 TP3dq SN2ar  1 3.650000e-01    2.570000e+00
 TP2dq SN2ar  1 3.650000e-01    2.570000e+00
 TP1dq SN2ar  1 3.650000e-01    2.570000e+00
 TN6dq SN2ar  1 3.650000e-01    2.570000e+00
 TN5dq SN2ar  1 3.650000e-01    2.830000e+00
 TN4dq SN2ar  1 3.650000e-01    2.830000e+00
 TN3dq SN2ar  1 3.650000e-01    2.830000e+00
 TN2dq SN2ar  1 3.650000e-01    2.830000e+00
 TN2ar SN1dq  1 3.650000e-01    2.570000e+00
 TP6aq SN2ar  1 3.650000e-01    1.910000e+00
 TP5aq SN2ar  1 3.650000e-01    1.910000e+00
 TP4aq SN2ar  1 3.650000e-01    2.110000e+00
 TP3aq SN2ar  1 3.650000e-01    2.110000e+00
 TP2aq SN2ar  1 3.650000e-01    2.110000e+00
 TP1aq SN2ar  1 3.650000e-01    2.110000e+00
 TN6aq SN2ar  1 3.650000e-01    2.110000e+00
 TN5aq SN2ar  1 3.650000e-01    2.340000e+00
 TN4aq SN2ar  1 3.650000e-01    2.340000e+00
 TN3aq SN2ar  1 3.650000e-01    2.340000e+00
 TN2ar SN2aq  1 3.650000e-01    2.340000e+00
 TN2ar SX1eq  1 3.650000e-01    1.910000e+00
 TN2ar SX2eq  1 3.650000e-01    1.910000e+00
 TN2ar SX3eq  1 3.650000e-01    2.110000e+00
 TN2ar SX4eq  1 3.650000e-01    2.340000e+00
 TN2ar SC1eq  1 3.660000e-01    1.600000e+00
 TN2ar SC2eq  1 3.650000e-01    1.750000e+00
 TN2ar SC3eq  1 3.650000e-01    1.910000e+00
 TN2ar SC4eq  1 3.650000e-01    1.910000e+00
 TN2ar SC5eq  1 3.650000e-01    1.910000e+00
 TN2ar SC6eq  1 3.650000e-01    2.110000e+00
 TN2ar SX1vq  1 3.650000e-01    2.340000e+00
 TN2ar SX2vq  1 3.650000e-01    2.340000e+00
 TN2ar SX3vq  1 3.650000e-01    2.570000e+00
 TN2ar SX4vq  1 3.650000e-01    2.830000e+00
 TN2ar SC1vq  1 3.650000e-01    1.910000e+00
 TN2ar SC2vq  1 3.650000e-01    2.110000e+00
 TN2ar SC3vq  1 3.650000e-01    2.340000e+00
 TN2ar SC4vq  1 3.650000e-01    2.340000e+00
 TN2ar SC5vq  1 3.650000e-01    2.340000e+00
 TN2ar SC6vq  1 3.650000e-01    2.570000e+00
 TN2ar SN1aq  1 3.650000e-01    2.110000e+00
 TP6dq SN1ar  1 3.650000e-01    1.750000e+00
 TP5dq SN1ar  1 3.650000e-01    1.750000e+00
 TP4dq SN1ar  1 3.650000e-01    1.910000e+00
 TP3dq SN1ar  1 3.650000e-01    2.110000e+00
 TP2dq SN1ar  1 3.650000e-01    2.570000e+00
 TP1dq SN1ar  1 3.650000e-01    2.570000e+00
 TN6dq SN1ar  1 3.650000e-01    2.570000e+00
 TN5dq SN1ar  1 3.650000e-01    2.570000e+00
 TN4dq SN1ar  1 3.650000e-01    2.570000e+00
 TN3dq SN1ar  1 3.650000e-01    2.570000e+00
 TN2dq SN1ar  1 3.650000e-01    2.570000e+00
 TN1dq SN1ar  1 3.650000e-01    2.830000e+00
 TP6aq SN1ar  1 3.650000e-01    1.750000e+00
 TP5aq SN1ar  1 3.650000e-01    1.750000e+00
 TP4aq SN1ar  1 3.650000e-01    1.910000e+00
 TP3aq SN1ar  1 3.650000e-01    2.110000e+00
 TP2aq SN1ar  1 3.650000e-01    2.110000e+00
 TP1aq SN1ar  1 3.650000e-01    2.110000e+00
 TN6aq SN1ar  1 3.650000e-01    2.110000e+00
 TN5aq SN1ar  1 3.650000e-01    2.110000e+00
 TN4aq SN1ar  1 3.650000e-01    2.110000e+00
 TN3aq SN1ar  1 3.650000e-01    2.110000e+00
 TN2aq SN1ar  1 3.650000e-01    2.110000e+00
 TN1ar SN1aq  1 3.650000e-01    2.340000e+00
 TN1ar SX1eq  1 3.650000e-01    1.910000e+00
 TN1ar SX2eq  1 3.650000e-01    1.910000e+00
 TN1ar SX3eq  1 3.650000e-01    2.110000e+00
 TN1ar SX4eq  1 3.650000e-01    2.110000e+00
 TN1ar SC1eq  1 3.660000e-01    1.600000e+00
 TN1ar SC2eq  1 3.650000e-01    1.750000e+00
 TN1ar SC3eq  1 3.650000e-01    1.910000e+00
 TN1ar SC4eq  1 3.650000e-01    2.110000e+00
 TN1ar SC5eq  1 3.650000e-01    2.110000e+00
 TN1ar SC6eq  1 3.650000e-01    2.340000e+00
 TN1ar SX1vq  1 3.650000e-01    2.340000e+00
 TN1ar SX2vq  1 3.650000e-01    2.340000e+00
 TN1ar SX3vq  1 3.650000e-01    2.570000e+00
 TN1ar SX4vq  1 3.650000e-01    2.570000e+00
 TN1ar SC1vq  1 3.650000e-01    1.910000e+00
 TN1ar SC2vq  1 3.650000e-01    2.110000e+00
 TN1ar SC3vq  1 3.650000e-01    2.340000e+00
 TN1ar SC4vq  1 3.650000e-01    2.570000e+00
 TN1ar SC5vq  1 3.650000e-01    2.570000e+00
 TN1ar SC6vq  1 3.650000e-01    2.830000e+00
 TP6dq SC6vr  1 3.660000e-01    1.600000e+00
 TP5dq SC6vr  1 3.660000e-01    1.600000e+00
 TP4dq SC6vr  1 3.650000e-01    1.750000e+00
 TP3dq SC6vr  1 3.650000e-01    1.910000e+00
 TP2dq SC6vr  1 3.650000e-01    1.910000e+00
 TP1dq SC6vr  1 3.650000e-01    1.910000e+00
 TN6dq SC6vr  1 3.650000e-01    2.110000e+00
 TN5dq SC6vr  1 3.650000e-01    2.110000e+00
 TN4dq SC6vr  1 3.650000e-01    2.110000e+00
 TN3dq SC6vr  1 3.650000e-01    2.110000e+00
 TN2dq SC6vr  1 3.650000e-01    2.110000e+00
 TN1dq SC6vr  1 3.650000e-01    2.340000e+00
 TP6aq SC6vr  1 3.650000e-01    1.910000e+00
 TP5aq SC6vr  1 3.650000e-01    1.910000e+00
 TP4aq SC6vr  1 3.650000e-01    2.110000e+00
 TP3aq SC6vr  1 3.650000e-01    2.340000e+00
 TP2aq SC6vr  1 3.650000e-01    2.340000e+00
 TP1aq SC6vr  1 3.650000e-01    2.340000e+00
 TN6aq SC6vr  1 3.650000e-01    2.570000e+00
 TN5aq SC6vr  1 3.650000e-01    2.570000e+00
 TN4aq SC6vr  1 3.650000e-01    2.570000e+00
 TN3aq SC6vr  1 3.650000e-01    2.570000e+00
 TN2aq SC6vr  1 3.650000e-01    2.570000e+00
 TN1aq SC6vr  1 3.650000e-01    2.830000e+00
 TC6vr SC6vq  1 3.650000e-01    2.340000e+00
 TC6vr SX1eq  1 3.650000e-01    2.830000e+00
 TC6vr SX2eq  1 3.650000e-01    2.830000e+00
 TC6vr SX3eq  1 3.650000e-01    2.830000e+00
 TC6vr SX4eq  1 3.650000e-01    2.830000e+00
 TC6vr SC1eq  1 3.650000e-01    2.110000e+00
 TC6vr SC2eq  1 3.650000e-01    2.340000e+00
 TC6vr SC3eq  1 3.650000e-01    2.570000e+00
 TC6vr SC4eq  1 3.650000e-01    2.830000e+00
 TC6vr SC5eq  1 3.650000e-01    2.830000e+00
 TC6vr SC6eq  1 3.650000e-01    3.100000e+00
 TC6vr SX1vq  1 3.650000e-01    2.110000e+00
 TC6vr SX2vq  1 3.650000e-01    2.110000e+00
 TC6vr SX3vq  1 3.650000e-01    2.110000e+00
 TC6vr SX4vq  1 3.650000e-01    2.110000e+00
 TC6vr SC1vq  1 3.660000e-01    1.600000e+00
 TC6vr SC2vq  1 3.650000e-01    1.750000e+00
 TC6vr SC3vq  1 3.650000e-01    1.910000e+00
 TC6vr SC4vq  1 3.650000e-01    2.110000e+00
 TC6vr SC5vq  1 3.650000e-01    2.110000e+00
 TP6dq SC5vr  1 3.780000e-01    1.450000e+00
 TP5dq SC5vr  1 3.660000e-01    1.600000e+00
 TP4dq SC5vr  1 3.660000e-01    1.600000e+00
 TP3dq SC5vr  1 3.650000e-01    1.750000e+00
 TP2dq SC5vr  1 3.650000e-01    1.750000e+00
 TP1dq SC5vr  1 3.650000e-01    1.750000e+00
 TN6dq SC5vr  1 3.650000e-01    1.910000e+00
 TN5dq SC5vr  1 3.650000e-01    1.910000e+00
 TN4dq SC5vr  1 3.650000e-01    1.910000e+00
 TN3dq SC5vr  1 3.650000e-01    1.910000e+00
 TN2dq SC5vr  1 3.650000e-01    1.910000e+00
 TN1dq SC5vr  1 3.650000e-01    2.110000e+00
 TP6aq SC5vr  1 3.650000e-01    1.750000e+00
 TP5aq SC5vr  1 3.650000e-01    1.910000e+00
 TP4aq SC5vr  1 3.650000e-01    1.910000e+00
 TP3aq SC5vr  1 3.650000e-01    2.110000e+00
 TP2aq SC5vr  1 3.650000e-01    2.110000e+00
 TP1aq SC5vr  1 3.650000e-01    2.110000e+00
 TN6aq SC5vr  1 3.650000e-01    2.340000e+00
 TN5aq SC5vr  1 3.650000e-01    2.340000e+00
 TN4aq SC5vr  1 3.650000e-01    2.340000e+00
 TN3aq SC5vr  1 3.650000e-01    2.340000e+00
 TN2aq SC5vr  1 3.650000e-01    2.340000e+00
 TN1aq SC5vr  1 3.650000e-01    2.570000e+00
 TC6vq SC5vr  1 3.650000e-01    2.110000e+00
 TC5vr SC5vq  1 3.650000e-01    2.110000e+00
 TC5vr SX1eq  1 3.650000e-01    2.830000e+00
 TC5vr SX2eq  1 3.650000e-01    2.570000e+00
 TC5vr SX3eq  1 3.650000e-01    2.570000e+00
 TC5vr SX4eq  1 3.650000e-01    2.570000e+00
 TC5vr SC1eq  1 3.650000e-01    2.340000e+00
 TC5vr SC2eq  1 3.650000e-01    2.340000e+00
 TC5vr SC3eq  1 3.650000e-01    2.570000e+00
 TC5vr SC4eq  1 3.650000e-01    2.830000e+00
 TC5vr SC5eq  1 3.650000e-01    2.830000e+00
 TC6eq SC5vr  1 3.650000e-01    2.830000e+00
 TC5vr SX1vq  1 3.650000e-01    2.110000e+00
 TC5vr SX2vq  1 3.650000e-01    1.910000e+00
 TC5vr SX3vq  1 3.650000e-01    1.910000e+00
 TC5vr SX4vq  1 3.650000e-01    1.910000e+00
 TC5vr SC1vq  1 3.650000e-01    1.750000e+00
 TC5vr SC2vq  1 3.650000e-01    1.750000e+00
 TC5vr SC3vq  1 3.650000e-01    1.910000e+00
 TC5vr SC4vq  1 3.650000e-01    2.110000e+00
 TP6dq SC4vr  1 3.940000e-01    1.290000e+00
 TP5dq SC4vr  1 3.780000e-01    1.450000e+00
 TP4dq SC4vr  1 3.780000e-01    1.450000e+00
 TP3dq SC4vr  1 3.660000e-01    1.600000e+00
 TP2dq SC4vr  1 3.660000e-01    1.600000e+00
 TP1dq SC4vr  1 3.660000e-01    1.600000e+00
 TN6dq SC4vr  1 3.650000e-01    1.750000e+00
 TN5dq SC4vr  1 3.650000e-01    1.750000e+00
 TN4dq SC4vr  1 3.650000e-01    1.910000e+00
 TN3dq SC4vr  1 3.650000e-01    1.910000e+00
 TN2dq SC4vr  1 3.650000e-01    1.910000e+00
 TN1dq SC4vr  1 3.650000e-01    2.110000e+00
 TP6aq SC4vr  1 3.660000e-01    1.600000e+00
 TP5aq SC4vr  1 3.650000e-01    1.750000e+00
 TP4aq SC4vr  1 3.650000e-01    1.750000e+00
 TP3aq SC4vr  1 3.650000e-01    1.910000e+00
 TP2aq SC4vr  1 3.650000e-01    1.910000e+00
 TP1aq SC4vr  1 3.650000e-01    1.910000e+00
 TN6aq SC4vr  1 3.650000e-01    2.110000e+00
 TN5aq SC4vr  1 3.650000e-01    2.110000e+00
 TN4aq SC4vr  1 3.650000e-01    2.340000e+00
 TN3aq SC4vr  1 3.650000e-01    2.340000e+00
 TN2aq SC4vr  1 3.650000e-01    2.340000e+00
 TN1aq SC4vr  1 3.650000e-01    2.570000e+00
 TC6vq SC4vr  1 3.650000e-01    2.110000e+00
 TC5vq SC4vr  1 3.650000e-01    2.110000e+00
 TC4vr SC4vq  1 3.650000e-01    2.110000e+00
 TC4vr SX1eq  1 3.650000e-01    2.830000e+00
 TC4vr SX2eq  1 3.650000e-01    2.570000e+00
 TC4vr SX3eq  1 3.650000e-01    2.570000e+00
 TC4vr SX4eq  1 3.650000e-01    2.570000e+00
 TC4vr SC1eq  1 3.650000e-01    2.340000e+00
 TC4vr SC2eq  1 3.650000e-01    2.570000e+00
 TC4vr SC3eq  1 3.650000e-01    2.830000e+00
 TC4vr SC4eq  1 3.650000e-01    2.830000e+00
 TC5eq SC4vr  1 3.650000e-01    2.830000e+00
 TC6eq SC4vr  1 3.650000e-01    2.830000e+00
 TC4vr SX1vq  1 3.650000e-01    2.110000e+00
 TC4vr SX2vq  1 3.650000e-01    1.910000e+00
 TC4vr SX3vq  1 3.650000e-01    1.910000e+00
 TC4vr SX4vq  1 3.650000e-01    1.910000e+00
 TC4vr SC1vq  1 3.650000e-01    1.750000e+00
 TC4vr SC2vq  1 3.650000e-01    1.910000e+00
 TC4vr SC3vq  1 3.650000e-01    2.110000e+00
 TP6dq SC3vr  1 4.040000e-01    1.130000e+00
 TP5dq SC3vr  1 3.940000e-01    1.290000e+00
 TP4dq SC3vr  1 3.940000e-01    1.290000e+00
 TP3dq SC3vr  1 3.940000e-01    1.290000e+00
 TP2dq SC3vr  1 3.780000e-01    1.450000e+00
 TP1dq SC3vr  1 3.780000e-01    1.450000e+00
 TN6dq SC3vr  1 3.660000e-01    1.600000e+00
 TN5dq SC3vr  1 3.650000e-01    1.750000e+00
 TN4dq SC3vr  1 3.650000e-01    1.750000e+00
 TN3dq SC3vr  1 3.650000e-01    1.750000e+00
 TN2dq SC3vr  1 3.650000e-01    1.910000e+00
 TN1dq SC3vr  1 3.650000e-01    1.910000e+00
 TP6aq SC3vr  1 3.780000e-01    1.450000e+00
 TP5aq SC3vr  1 3.660000e-01    1.600000e+00
 TP4aq SC3vr  1 3.660000e-01    1.600000e+00
 TP3aq SC3vr  1 3.660000e-01    1.600000e+00
 TP2aq SC3vr  1 3.650000e-01    1.750000e+00
 TP1aq SC3vr  1 3.650000e-01    1.750000e+00
 TN6aq SC3vr  1 3.650000e-01    1.910000e+00
 TN5aq SC3vr  1 3.650000e-01    2.110000e+00
 TN4aq SC3vr  1 3.650000e-01    2.110000e+00
 TN3aq SC3vr  1 3.650000e-01    2.110000e+00
 TN2aq SC3vr  1 3.650000e-01    2.340000e+00
 TN1aq SC3vr  1 3.650000e-01    2.340000e+00
 TC6vq SC3vr  1 3.650000e-01    1.910000e+00
 TC5vq SC3vr  1 3.650000e-01    1.910000e+00
 TC4vq SC3vr  1 3.650000e-01    2.110000e+00
 TC3vr SC3vq  1 3.650000e-01    2.110000e+00
 TC3vr SX1eq  1 3.650000e-01    2.830000e+00
 TC3vr SX2eq  1 3.650000e-01    2.570000e+00
 TC3vr SX3eq  1 3.650000e-01    2.570000e+00
 TC3vr SX4eq  1 3.650000e-01    2.570000e+00
 TC3vr SC1eq  1 3.650000e-01    2.830000e+00
 TC3vr SC2eq  1 3.650000e-01    2.830000e+00
 TC3vr SC3eq  1 3.650000e-01    2.830000e+00
 TC4eq SC3vr  1 3.650000e-01    2.830000e+00
 TC5eq SC3vr  1 3.650000e-01    2.570000e+00
 TC6eq SC3vr  1 3.650000e-01    2.570000e+00
 TC3vr SX1vq  1 3.650000e-01    2.110000e+00
 TC3vr SX2vq  1 3.650000e-01    1.910000e+00
 TC3vr SX3vq  1 3.650000e-01    1.910000e+00
 TC3vr SX4vq  1 3.650000e-01    1.910000e+00
 TC3vr SC1vq  1 3.650000e-01    2.110000e+00
 TC3vr SC2vq  1 3.650000e-01    2.110000e+00
 TP6dq SC2vr  1 4.040000e-01    1.130000e+00
 TP5dq SC2vr  1 3.940000e-01    1.290000e+00
 TP4dq SC2vr  1 3.940000e-01    1.290000e+00
 TP3dq SC2vr  1 3.940000e-01    1.290000e+00
 TP2dq SC2vr  1 3.780000e-01    1.450000e+00
 TP1dq SC2vr  1 3.780000e-01    1.450000e+00
 TN6dq SC2vr  1 3.660000e-01    1.600000e+00
 TN5dq SC2vr  1 3.660000e-01    1.600000e+00
 TN4dq SC2vr  1 3.660000e-01    1.600000e+00
 TN3dq SC2vr  1 3.650000e-01    1.750000e+00
 TN2dq SC2vr  1 3.650000e-01    1.750000e+00
 TN1dq SC2vr  1 3.650000e-01    1.750000e+00
 TP6aq SC2vr  1 3.780000e-01    1.450000e+00
 TP5aq SC2vr  1 3.660000e-01    1.600000e+00
 TP4aq SC2vr  1 3.660000e-01    1.600000e+00
 TP3aq SC2vr  1 3.660000e-01    1.600000e+00
 TP2aq SC2vr  1 3.650000e-01    1.750000e+00
 TP1aq SC2vr  1 3.650000e-01    1.750000e+00
 TN6aq SC2vr  1 3.650000e-01    1.910000e+00
 TN5aq SC2vr  1 3.650000e-01    1.910000e+00
 TN4aq SC2vr  1 3.650000e-01    1.910000e+00
 TN3aq SC2vr  1 3.650000e-01    2.110000e+00
 TN2aq SC2vr  1 3.650000e-01    2.110000e+00
 TN1aq SC2vr  1 3.650000e-01    2.110000e+00
 TC6vq SC2vr  1 3.650000e-01    1.750000e+00
 TC5vq SC2vr  1 3.650000e-01    1.750000e+00
 TC4vq SC2vr  1 3.650000e-01    1.910000e+00
 TC3vq SC2vr  1 3.650000e-01    2.110000e+00
 TC2vr SC2vq  1 3.650000e-01    2.110000e+00
 TC2vr SX1eq  1 3.650000e-01    2.570000e+00
 TC2vr SX2eq  1 3.650000e-01    2.570000e+00
 TC2vr SX3eq  1 3.650000e-01    2.570000e+00
 TC2vr SX4eq  1 3.650000e-01    2.110000e+00
 TC2vr SC1eq  1 3.650000e-01    3.100000e+00
 TC2vr SC2eq  1 3.650000e-01    2.830000e+00
 TC3eq SC2vr  1 3.650000e-01    2.830000e+00
 TC4eq SC2vr  1 3.650000e-01    2.570000e+00
 TC5eq SC2vr  1 3.650000e-01    2.340000e+00
 TC6eq SC2vr  1 3.650000e-01    2.340000e+00
 TC2vr SX1vq  1 3.650000e-01    1.910000e+00
 TC2vr SX2vq  1 3.650000e-01    1.910000e+00
 TC2vr SX3vq  1 3.650000e-01    1.910000e+00
 TC2vr SX4vq  1 3.660000e-01    1.600000e+00
 TC2vr SC1vq  1 3.650000e-01    2.340000e+00
 TP6dq SC1vr  1 4.230000e-01    9.810000e-01
 TP5dq SC1vr  1 4.040000e-01    1.130000e+00
 TP4dq SC1vr  1 4.040000e-01    1.130000e+00
 TP3dq SC1vr  1 4.040000e-01    1.130000e+00
 TP2dq SC1vr  1 3.940000e-01    1.290000e+00
 TP1dq SC1vr  1 3.940000e-01    1.290000e+00
 TN6dq SC1vr  1 3.780000e-01    1.450000e+00
 TN5dq SC1vr  1 3.780000e-01    1.450000e+00
 TN4dq SC1vr  1 3.780000e-01    1.450000e+00
 TN3dq SC1vr  1 3.660000e-01    1.600000e+00
 TN2dq SC1vr  1 3.660000e-01    1.600000e+00
 TN1dq SC1vr  1 3.660000e-01    1.600000e+00
 TP6aq SC1vr  1 4.040000e-01    1.130000e+00
 TP5aq SC1vr  1 3.780000e-01    1.450000e+00
 TP4aq SC1vr  1 3.780000e-01    1.450000e+00
 TP3aq SC1vr  1 3.780000e-01    1.450000e+00
 TP2aq SC1vr  1 3.660000e-01    1.600000e+00
 TP1aq SC1vr  1 3.660000e-01    1.600000e+00
 TN6aq SC1vr  1 3.650000e-01    1.750000e+00
 TN5aq SC1vr  1 3.650000e-01    1.750000e+00
 TN4aq SC1vr  1 3.650000e-01    1.750000e+00
 TN3aq SC1vr  1 3.650000e-01    1.910000e+00
 TN2aq SC1vr  1 3.650000e-01    1.910000e+00
 TN1aq SC1vr  1 3.650000e-01    1.910000e+00
 TC6vq SC1vr  1 3.660000e-01    1.600000e+00
 TC5vq SC1vr  1 3.650000e-01    1.750000e+00
 TC4vq SC1vr  1 3.650000e-01    1.750000e+00
 TC3vq SC1vr  1 3.650000e-01    2.110000e+00
 TC2vq SC1vr  1 3.650000e-01    2.340000e+00
 TC1vr SC1vq  1 3.650000e-01    2.110000e+00
 TC1vr SX1eq  1 3.650000e-01    2.570000e+00
 TC1vr SX2eq  1 3.650000e-01    2.570000e+00
 TC1vr SX3eq  1 3.650000e-01    2.570000e+00
 TC1vr SX4eq  1 3.650000e-01    2.110000e+00
 TC1vr SC1eq  1 3.650000e-01    2.830000e+00
 TC2eq SC1vr  1 3.650000e-01    3.100000e+00
 TC3eq SC1vr  1 3.650000e-01    2.830000e+00
 TC4eq SC1vr  1 3.650000e-01    2.340000e+00
 TC5eq SC1vr  1 3.650000e-01    2.340000e+00
 TC6eq SC1vr  1 3.650000e-01    2.110000e+00
 TC1vr SX1vq  1 3.650000e-01    1.910000e+00
 TC1vr SX2vq  1 3.650000e-01    1.910000e+00
 TC1vr SX3vq  1 3.650000e-01    1.910000e+00
 TC1vr SX4vq  1 3.660000e-01    1.600000e+00
 TP6dq SX4vr  1 3.650000e-01    1.750000e+00
 TP5dq SX4vr  1 3.650000e-01    1.910000e+00
 TP4dq SX4vr  1 3.650000e-01    1.910000e+00
 TP3dq SX4vr  1 3.650000e-01    1.910000e+00
 TP2dq SX4vr  1 3.650000e-01    1.910000e+00
 TP1dq SX4vr  1 3.650000e-01    1.910000e+00
 TN6dq SX4vr  1 3.650000e-01    2.110000e+00
 TN5dq SX4vr  1 3.650000e-01    2.340000e+00
 TN4dq SX4vr  1 3.650000e-01    2.570000e+00
 TN3dq SX4vr  1 3.650000e-01    2.340000e+00
 TN2dq SX4vr  1 3.650000e-01    2.340000e+00
 TN1dq SX4vr  1 3.650000e-01    2.110000e+00
 TP6aq SX4vr  1 3.650000e-01    2.110000e+00
 TP5aq SX4vr  1 3.650000e-01    2.340000e+00
 TP4aq SX4vr  1 3.650000e-01    2.340000e+00
 TP3aq SX4vr  1 3.650000e-01    2.340000e+00
 TP2aq SX4vr  1 3.650000e-01    2.340000e+00
 TP1aq SX4vr  1 3.650000e-01    2.340000e+00
 TN6aq SX4vr  1 3.650000e-01    2.570000e+00
 TN5aq SX4vr  1 3.650000e-01    2.830000e+00
 TN4aq SX4vr  1 3.650000e-01    3.100000e+00
 TN3aq SX4vr  1 3.650000e-01    2.830000e+00
 TN2aq SX4vr  1 3.650000e-01    2.830000e+00
 TN1aq SX4vr  1 3.650000e-01    2.570000e+00
 TC6vq SX4vr  1 3.650000e-01    2.110000e+00
 TC5vq SX4vr  1 3.650000e-01    1.910000e+00
 TC4vq SX4vr  1 3.650000e-01    1.910000e+00
 TC3vq SX4vr  1 3.650000e-01    1.910000e+00
 TC2vq SX4vr  1 3.660000e-01    1.600000e+00
 TC1vq SX4vr  1 3.660000e-01    1.600000e+00
 TX4vr SX4vq  1 3.650000e-01    2.110000e+00
 TX4vr SX1eq  1 3.650000e-01    2.830000e+00
 TX4vr SX2eq  1 3.650000e-01    2.830000e+00
 TX4vr SX3eq  1 3.650000e-01    2.830000e+00
 TX4vr SX4eq  1 3.650000e-01    2.830000e+00
 TC1eq SX4vr  1 3.650000e-01    2.110000e+00
 TC2eq SX4vr  1 3.650000e-01    2.110000e+00
 TC3eq SX4vr  1 3.650000e-01    2.570000e+00
 TC4eq SX4vr  1 3.650000e-01    2.570000e+00
 TC5eq SX4vr  1 3.650000e-01    2.570000e+00
 TC6eq SX4vr  1 3.650000e-01    2.830000e+00
 TX4vr SX1vq  1 3.650000e-01    2.110000e+00
 TX4vr SX2vq  1 3.650000e-01    2.110000e+00
 TX4vr SX3vq  1 3.650000e-01    2.110000e+00
 TP6dq SX3vr  1 3.650000e-01    1.750000e+00
 TP5dq SX3vr  1 3.650000e-01    1.750000e+00
 TP4dq SX3vr  1 3.650000e-01    1.750000e+00
 TP3dq SX3vr  1 3.650000e-01    1.910000e+00
 TP2dq SX3vr  1 3.650000e-01    1.910000e+00
 TP1dq SX3vr  1 3.650000e-01    1.910000e+00
 TN6dq SX3vr  1 3.650000e-01    1.910000e+00
 TN5dq SX3vr  1 3.650000e-01    2.110000e+00
 TN4dq SX3vr  1 3.650000e-01    2.340000e+00
 TN3dq SX3vr  1 3.650000e-01    2.110000e+00
 TN2dq SX3vr  1 3.650000e-01    2.110000e+00
 TN1dq SX3vr  1 3.650000e-01    2.110000e+00
 TP6aq SX3vr  1 3.650000e-01    2.110000e+00
 TP5aq SX3vr  1 3.650000e-01    2.110000e+00
 TP4aq SX3vr  1 3.650000e-01    2.110000e+00
 TP3aq SX3vr  1 3.650000e-01    2.340000e+00
 TP2aq SX3vr  1 3.650000e-01    2.340000e+00
 TP1aq SX3vr  1 3.650000e-01    2.340000e+00
 TN6aq SX3vr  1 3.650000e-01    2.340000e+00
 TN5aq SX3vr  1 3.650000e-01    2.570000e+00
 TN4aq SX3vr  1 3.650000e-01    2.830000e+00
 TN3aq SX3vr  1 3.650000e-01    2.570000e+00
 TN2aq SX3vr  1 3.650000e-01    2.570000e+00
 TN1aq SX3vr  1 3.650000e-01    2.570000e+00
 TC6vq SX3vr  1 3.650000e-01    2.110000e+00
 TC5vq SX3vr  1 3.650000e-01    1.910000e+00
 TC4vq SX3vr  1 3.650000e-01    1.910000e+00
 TC3vq SX3vr  1 3.650000e-01    1.910000e+00
 TC2vq SX3vr  1 3.650000e-01    1.910000e+00
 TC1vq SX3vr  1 3.650000e-01    1.910000e+00
 TX4vq SX3vr  1 3.650000e-01    2.110000e+00
 TX3vr SX3vq  1 3.650000e-01    2.110000e+00
 TX3vr SX1eq  1 3.650000e-01    3.100000e+00
 TX3vr SX2eq  1 3.650000e-01    3.100000e+00
 TX3vr SX3eq  1 3.650000e-01    2.830000e+00
 TX4eq SX3vr  1 3.650000e-01    2.830000e+00
 TC1eq SX3vr  1 3.650000e-01    2.570000e+00
 TC2eq SX3vr  1 3.650000e-01    2.570000e+00
 TC3eq SX3vr  1 3.650000e-01    2.570000e+00
 TC4eq SX3vr  1 3.650000e-01    2.570000e+00
 TC5eq SX3vr  1 3.650000e-01    2.570000e+00
 TC6eq SX3vr  1 3.650000e-01    2.830000e+00
 TX3vr SX1vq  1 3.650000e-01    2.340000e+00
 TX3vr SX2vq  1 3.650000e-01    2.340000e+00
 TP6dq SX2vr  1 3.660000e-01    1.600000e+00
 TP5dq SX2vr  1 3.650000e-01    1.750000e+00
 TP4dq SX2vr  1 3.650000e-01    1.750000e+00
 TP3dq SX2vr  1 3.650000e-01    1.750000e+00
 TP2dq SX2vr  1 3.650000e-01    1.750000e+00
 TP1dq SX2vr  1 3.650000e-01    1.750000e+00
 TN6dq SX2vr  1 3.650000e-01    1.750000e+00
 TN5dq SX2vr  1 3.650000e-01    1.910000e+00
 TN4dq SX2vr  1 3.650000e-01    1.910000e+00
 TN3dq SX2vr  1 3.650000e-01    1.910000e+00
 TN2dq SX2vr  1 3.650000e-01    1.910000e+00
 TN1dq SX2vr  1 3.650000e-01    1.910000e+00
 TP6aq SX2vr  1 3.650000e-01    1.910000e+00
 TP5aq SX2vr  1 3.650000e-01    2.110000e+00
 TP4aq SX2vr  1 3.650000e-01    2.110000e+00
 TP3aq SX2vr  1 3.650000e-01    2.110000e+00
 TP2aq SX2vr  1 3.650000e-01    2.110000e+00
 TP1aq SX2vr  1 3.650000e-01    2.110000e+00
 TN6aq SX2vr  1 3.650000e-01    2.110000e+00
 TN5aq SX2vr  1 3.650000e-01    2.340000e+00
 TN4aq SX2vr  1 3.650000e-01    2.340000e+00
 TN3aq SX2vr  1 3.650000e-01    2.340000e+00
 TN2aq SX2vr  1 3.650000e-01    2.340000e+00
 TN1aq SX2vr  1 3.650000e-01    2.340000e+00
 TC6vq SX2vr  1 3.650000e-01    2.110000e+00
 TC5vq SX2vr  1 3.650000e-01    1.910000e+00
 TC4vq SX2vr  1 3.650000e-01    1.910000e+00
 TC3vq SX2vr  1 3.650000e-01    1.910000e+00
 TC2vq SX2vr  1 3.650000e-01    1.910000e+00
 TC1vq SX2vr  1 3.650000e-01    1.910000e+00
 TX4vq SX2vr  1 3.650000e-01    2.110000e+00
 TX3vq SX2vr  1 3.650000e-01    2.340000e+00
 TX2vr SX2vq  1 3.650000e-01    2.340000e+00
 TX2vr SX1eq  1 3.650000e-01    3.100000e+00
 TX2vr SX2eq  1 3.650000e-01    3.100000e+00
 TX3eq SX2vr  1 3.650000e-01    3.100000e+00
 TX4eq SX2vr  1 3.650000e-01    2.830000e+00
 TC1eq SX2vr  1 3.650000e-01    2.570000e+00
 TC2eq SX2vr  1 3.650000e-01    2.570000e+00
 TC3eq SX2vr  1 3.650000e-01    2.570000e+00
 TC4eq SX2vr  1 3.650000e-01    2.570000e+00
 TC5eq SX2vr  1 3.650000e-01    2.570000e+00
 TC6eq SX2vr  1 3.650000e-01    2.830000e+00
 TX2vr SX1vq  1 3.650000e-01    2.340000e+00
 TP6dq SX1vr  1 3.780000e-01    1.450000e+00
 TP5dq SX1vr  1 3.780000e-01    1.450000e+00
 TP4dq SX1vr  1 3.660000e-01    1.600000e+00
 TP3dq SX1vr  1 3.660000e-01    1.600000e+00
 TP2dq SX1vr  1 3.660000e-01    1.600000e+00
 TP1dq SX1vr  1 3.660000e-01    1.600000e+00
 TN6dq SX1vr  1 3.660000e-01    1.600000e+00
 TN5dq SX1vr  1 3.650000e-01    1.750000e+00
 TN4dq SX1vr  1 3.650000e-01    1.750000e+00
 TN3dq SX1vr  1 3.650000e-01    1.910000e+00
 TN2dq SX1vr  1 3.650000e-01    1.910000e+00
 TN1dq SX1vr  1 3.650000e-01    1.910000e+00
 TP6aq SX1vr  1 3.650000e-01    1.750000e+00
 TP5aq SX1vr  1 3.650000e-01    1.750000e+00
 TP4aq SX1vr  1 3.650000e-01    1.910000e+00
 TP3aq SX1vr  1 3.650000e-01    1.910000e+00
 TP2aq SX1vr  1 3.650000e-01    1.910000e+00
 TP1aq SX1vr  1 3.650000e-01    1.910000e+00
 TN6aq SX1vr  1 3.650000e-01    1.910000e+00
 TN5aq SX1vr  1 3.650000e-01    2.110000e+00
 TN4aq SX1vr  1 3.650000e-01    2.110000e+00
 TN3aq SX1vr  1 3.650000e-01    2.340000e+00
 TN2aq SX1vr  1 3.650000e-01    2.340000e+00
 TN1aq SX1vr  1 3.650000e-01    2.340000e+00
 TC6vq SX1vr  1 3.650000e-01    2.110000e+00
 TC5vq SX1vr  1 3.650000e-01    2.110000e+00
 TC4vq SX1vr  1 3.650000e-01    2.110000e+00
 TC3vq SX1vr  1 3.650000e-01    2.110000e+00
 TC2vq SX1vr  1 3.650000e-01    1.910000e+00
 TC1vq SX1vr  1 3.650000e-01    1.910000e+00
 TX4vq SX1vr  1 3.650000e-01    2.110000e+00
 TX3vq SX1vr  1 3.650000e-01    2.340000e+00
 TX2vq SX1vr  1 3.650000e-01    2.340000e+00
 TX1vr SX1vq  1 3.650000e-01    2.570000e+00
 TX1vr SX1eq  1 3.650000e-01    3.370000e+00
 TX2eq SX1vr  1 3.650000e-01    3.100000e+00
 TX3eq SX1vr  1 3.650000e-01    3.100000e+00
 TX4eq SX1vr  1 3.650000e-01    2.830000e+00
 TC1eq SX1vr  1 3.650000e-01    2.570000e+00
 TC2eq SX1vr  1 3.650000e-01    2.570000e+00
 TC3eq SX1vr  1 3.650000e-01    2.830000e+00
 TC4eq SX1vr  1 3.650000e-01    2.830000e+00
 TC5eq SX1vr  1 3.650000e-01    2.830000e+00
 TC6eq SX1vr  1 3.650000e-01    2.830000e+00
 TP6dq SC6er  1 3.650000e-01    1.910000e+00
 TP5dq SC6er  1 3.650000e-01    1.910000e+00
 TP4dq SC6er  1 3.650000e-01    2.110000e+00
 TP3dq SC6er  1 3.650000e-01    2.340000e+00
 TP2dq SC6er  1 3.650000e-01    2.340000e+00
 TP1dq SC6er  1 3.650000e-01    2.340000e+00
 TN6dq SC6er  1 3.650000e-01    2.570000e+00
 TN5dq SC6er  1 3.650000e-01    2.570000e+00
 TN4dq SC6er  1 3.650000e-01    2.570000e+00
 TN3dq SC6er  1 3.650000e-01    2.570000e+00
 TN2dq SC6er  1 3.650000e-01    2.570000e+00
 TN1dq SC6er  1 3.650000e-01    2.830000e+00
 TP6aq SC6er  1 3.660000e-01    1.600000e+00
 TP5aq SC6er  1 3.660000e-01    1.600000e+00
 TP4aq SC6er  1 3.650000e-01    1.750000e+00
 TP3aq SC6er  1 3.650000e-01    1.910000e+00
 TP2aq SC6er  1 3.650000e-01    1.910000e+00
 TP1aq SC6er  1 3.650000e-01    1.910000e+00
 TN6aq SC6er  1 3.650000e-01    2.110000e+00
 TN5aq SC6er  1 3.650000e-01    2.110000e+00
 TN4aq SC6er  1 3.650000e-01    2.110000e+00
 TN3aq SC6er  1 3.650000e-01    2.110000e+00
 TN2aq SC6er  1 3.650000e-01    2.110000e+00
 TN1aq SC6er  1 3.650000e-01    2.340000e+00
 TC6vq SC6er  1 3.650000e-01    3.100000e+00
 TC6er SC5vq  1 3.650000e-01    2.830000e+00
 TC6er SC4vq  1 3.650000e-01    2.830000e+00
 TC6er SC3vq  1 3.650000e-01    2.570000e+00
 TC6er SC2vq  1 3.650000e-01    2.340000e+00
 TC6er SC1vq  1 3.650000e-01    2.110000e+00
 TC6er SX4vq  1 3.650000e-01    2.830000e+00
 TC6er SX3vq  1 3.650000e-01    2.830000e+00
 TC6er SX2vq  1 3.650000e-01    2.830000e+00
 TC6er SX1vq  1 3.650000e-01    2.830000e+00
 TC6er SC6eq  1 3.650000e-01    2.340000e+00
 TC6er SX1eq  1 3.650000e-01    2.110000e+00
 TC6er SX2eq  1 3.650000e-01    2.110000e+00
 TC6er SX3eq  1 3.650000e-01    2.110000e+00
 TC6er SX4eq  1 3.650000e-01    2.110000e+00
 TC6er SC1eq  1 3.660000e-01    1.600000e+00
 TC6er SC2eq  1 3.650000e-01    1.750000e+00
 TC6er SC3eq  1 3.650000e-01    1.910000e+00
 TC6er SC4eq  1 3.650000e-01    2.110000e+00
 TC6er SC5eq  1 3.650000e-01    2.110000e+00
 TP6dq SC5er  1 3.650000e-01    1.750000e+00
 TP5dq SC5er  1 3.650000e-01    1.910000e+00
 TP4dq SC5er  1 3.650000e-01    1.910000e+00
 TP3dq SC5er  1 3.650000e-01    2.110000e+00
 TP2dq SC5er  1 3.650000e-01    2.110000e+00
 TP1dq SC5er  1 3.650000e-01    2.110000e+00
 TN6dq SC5er  1 3.650000e-01    2.340000e+00
 TN5dq SC5er  1 3.650000e-01    2.340000e+00
 TN4dq SC5er  1 3.650000e-01    2.340000e+00
 TN3dq SC5er  1 3.650000e-01    2.340000e+00
 TN2dq SC5er  1 3.650000e-01    2.340000e+00
 TN1dq SC5er  1 3.650000e-01    2.570000e+00
 TP6aq SC5er  1 3.780000e-01    1.450000e+00
 TP5aq SC5er  1 3.660000e-01    1.600000e+00
 TP4aq SC5er  1 3.660000e-01    1.600000e+00
 TP3aq SC5er  1 3.650000e-01    1.750000e+00
 TP2aq SC5er  1 3.650000e-01    1.750000e+00
 TP1aq SC5er  1 3.650000e-01    1.750000e+00
 TN6aq SC5er  1 3.650000e-01    1.910000e+00
 TN5aq SC5er  1 3.650000e-01    1.910000e+00
 TN4aq SC5er  1 3.650000e-01    1.910000e+00
 TN3aq SC5er  1 3.650000e-01    1.910000e+00
 TN2aq SC5er  1 3.650000e-01    1.910000e+00
 TN1aq SC5er  1 3.650000e-01    2.110000e+00
 TC6vq SC5er  1 3.650000e-01    2.830000e+00
 TC5vq SC5er  1 3.650000e-01    2.830000e+00
 TC5er SC4vq  1 3.650000e-01    2.830000e+00
 TC5er SC3vq  1 3.650000e-01    2.570000e+00
 TC5er SC2vq  1 3.650000e-01    2.340000e+00
 TC5er SC1vq  1 3.650000e-01    2.340000e+00
 TC5er SX4vq  1 3.650000e-01    2.570000e+00
 TC5er SX3vq  1 3.650000e-01    2.570000e+00
 TC5er SX2vq  1 3.650000e-01    2.570000e+00
 TC5er SX1vq  1 3.650000e-01    2.830000e+00
 TC6eq SC5er  1 3.650000e-01    2.110000e+00
 TC5er SC5eq  1 3.650000e-01    2.110000e+00
 TC5er SX1eq  1 3.650000e-01    2.110000e+00
 TC5er SX2eq  1 3.650000e-01    1.910000e+00
 TC5er SX3eq  1 3.650000e-01    1.910000e+00
 TC5er SX4eq  1 3.650000e-01    1.910000e+00
 TC5er SC1eq  1 3.650000e-01    1.750000e+00
 TC5er SC2eq  1 3.650000e-01    1.750000e+00
 TC5er SC3eq  1 3.650000e-01    1.910000e+00
 TC5er SC4eq  1 3.650000e-01    2.110000e+00
 TP6dq SC4er  1 3.660000e-01    1.600000e+00
 TP5dq SC4er  1 3.650000e-01    1.750000e+00
 TP4dq SC4er  1 3.650000e-01    1.750000e+00
 TP3dq SC4er  1 3.650000e-01    1.910000e+00
 TP2dq SC4er  1 3.650000e-01    1.910000e+00
 TP1dq SC4er  1 3.650000e-01    1.910000e+00
 TN6dq SC4er  1 3.650000e-01    2.110000e+00
 TN5dq SC4er  1 3.650000e-01    2.110000e+00
 TN4dq SC4er  1 3.650000e-01    2.340000e+00
 TN3dq SC4er  1 3.650000e-01    2.340000e+00
 TN2dq SC4er  1 3.650000e-01    2.340000e+00
 TN1dq SC4er  1 3.650000e-01    2.570000e+00
 TP6aq SC4er  1 3.940000e-01    1.290000e+00
 TP5aq SC4er  1 3.780000e-01    1.450000e+00
 TP4aq SC4er  1 3.780000e-01    1.450000e+00
 TP3aq SC4er  1 3.660000e-01    1.600000e+00
 TP2aq SC4er  1 3.660000e-01    1.600000e+00
 TP1aq SC4er  1 3.660000e-01    1.600000e+00
 TN6aq SC4er  1 3.650000e-01    1.750000e+00
 TN5aq SC4er  1 3.650000e-01    1.750000e+00
 TN4aq SC4er  1 3.650000e-01    1.910000e+00
 TN3aq SC4er  1 3.650000e-01    1.910000e+00
 TN2aq SC4er  1 3.650000e-01    1.910000e+00
 TN1aq SC4er  1 3.650000e-01    2.110000e+00
 TC6vq SC4er  1 3.650000e-01    2.830000e+00
 TC5vq SC4er  1 3.650000e-01    2.830000e+00
 TC4vq SC4er  1 3.650000e-01    2.830000e+00
 TC4er SC3vq  1 3.650000e-01    2.830000e+00
 TC4er SC2vq  1 3.650000e-01    2.570000e+00
 TC4er SC1vq  1 3.650000e-01    2.340000e+00
 TC4er SX4vq  1 3.650000e-01    2.570000e+00
 TC4er SX3vq  1 3.650000e-01    2.570000e+00
 TC4er SX2vq  1 3.650000e-01    2.570000e+00
 TC4er SX1vq  1 3.650000e-01    2.830000e+00
 TC6eq SC4er  1 3.650000e-01    2.110000e+00
 TC5eq SC4er  1 3.650000e-01    2.110000e+00
 TC4er SC4eq  1 3.650000e-01    2.110000e+00
 TC4er SX1eq  1 3.650000e-01    2.110000e+00
 TC4er SX2eq  1 3.650000e-01    1.910000e+00
 TC4er SX3eq  1 3.650000e-01    1.910000e+00
 TC4er SX4eq  1 3.650000e-01    1.910000e+00
 TC4er SC1eq  1 3.650000e-01    1.750000e+00
 TC4er SC2eq  1 3.650000e-01    1.910000e+00
 TC4er SC3eq  1 3.650000e-01    2.110000e+00
 TP6dq SC3er  1 3.780000e-01    1.450000e+00
 TP5dq SC3er  1 3.660000e-01    1.600000e+00
 TP4dq SC3er  1 3.660000e-01    1.600000e+00
 TP3dq SC3er  1 3.660000e-01    1.600000e+00
 TP2dq SC3er  1 3.650000e-01    1.750000e+00
 TP1dq SC3er  1 3.650000e-01    1.750000e+00
 TN6dq SC3er  1 3.650000e-01    1.910000e+00
 TN5dq SC3er  1 3.650000e-01    2.110000e+00
 TN4dq SC3er  1 3.650000e-01    2.110000e+00
 TN3dq SC3er  1 3.650000e-01    2.110000e+00
 TN2dq SC3er  1 3.650000e-01    2.340000e+00
 TN1dq SC3er  1 3.650000e-01    2.340000e+00
 TP6aq SC3er  1 4.040000e-01    1.130000e+00
 TP5aq SC3er  1 3.940000e-01    1.290000e+00
 TP4aq SC3er  1 3.940000e-01    1.290000e+00
 TP3aq SC3er  1 3.940000e-01    1.290000e+00
 TP2aq SC3er  1 3.780000e-01    1.450000e+00
 TP1aq SC3er  1 3.780000e-01    1.450000e+00
 TN6aq SC3er  1 3.660000e-01    1.600000e+00
 TN5aq SC3er  1 3.650000e-01    1.750000e+00
 TN4aq SC3er  1 3.650000e-01    1.750000e+00
 TN3aq SC3er  1 3.650000e-01    1.750000e+00
 TN2aq SC3er  1 3.650000e-01    1.910000e+00
 TN1aq SC3er  1 3.650000e-01    1.910000e+00
 TC6vq SC3er  1 3.650000e-01    2.570000e+00
 TC5vq SC3er  1 3.650000e-01    2.570000e+00
 TC4vq SC3er  1 3.650000e-01    2.830000e+00
 TC3vq SC3er  1 3.650000e-01    2.830000e+00
 TC3er SC2vq  1 3.650000e-01    2.830000e+00
 TC3er SC1vq  1 3.650000e-01    2.830000e+00
 TC3er SX4vq  1 3.650000e-01    2.570000e+00
 TC3er SX3vq  1 3.650000e-01    2.570000e+00
 TC3er SX2vq  1 3.650000e-01    2.570000e+00
 TC3er SX1vq  1 3.650000e-01    2.830000e+00
 TC6eq SC3er  1 3.650000e-01    1.910000e+00
 TC5eq SC3er  1 3.650000e-01    1.910000e+00
 TC4eq SC3er  1 3.650000e-01    2.110000e+00
 TC3er SC3eq  1 3.650000e-01    2.110000e+00
 TC3er SX1eq  1 3.650000e-01    2.110000e+00
 TC3er SX2eq  1 3.650000e-01    1.910000e+00
 TC3er SX3eq  1 3.650000e-01    1.910000e+00
 TC3er SX4eq  1 3.650000e-01    1.910000e+00
 TC3er SC1eq  1 3.650000e-01    2.110000e+00
 TC3er SC2eq  1 3.650000e-01    2.110000e+00
 TP6dq SC2er  1 3.780000e-01    1.450000e+00
 TP5dq SC2er  1 3.660000e-01    1.600000e+00
 TP4dq SC2er  1 3.660000e-01    1.600000e+00
 TP3dq SC2er  1 3.660000e-01    1.600000e+00
 TP2dq SC2er  1 3.650000e-01    1.750000e+00
 TP1dq SC2er  1 3.650000e-01    1.750000e+00
 TN6dq SC2er  1 3.650000e-01    1.910000e+00
 TN5dq SC2er  1 3.650000e-01    1.910000e+00
 TN4dq SC2er  1 3.650000e-01    1.910000e+00
 TN3dq SC2er  1 3.650000e-01    2.110000e+00
 TN2dq SC2er  1 3.650000e-01    2.110000e+00
 TN1dq SC2er  1 3.650000e-01    2.110000e+00
 TP6aq SC2er  1 4.040000e-01    1.130000e+00
 TP5aq SC2er  1 3.940000e-01    1.290000e+00
 TP4aq SC2er  1 3.940000e-01    1.290000e+00
 TP3aq SC2er  1 3.940000e-01    1.290000e+00
 TP2aq SC2er  1 3.780000e-01    1.450000e+00
 TP1aq SC2er  1 3.780000e-01    1.450000e+00
 TN6aq SC2er  1 3.660000e-01    1.600000e+00
 TN5aq SC2er  1 3.660000e-01    1.600000e+00
 TN4aq SC2er  1 3.660000e-01    1.600000e+00
 TN3aq SC2er  1 3.650000e-01    1.750000e+00
 TN2aq SC2er  1 3.650000e-01    1.750000e+00
 TN1aq SC2er  1 3.650000e-01    1.750000e+00
 TC6vq SC2er  1 3.650000e-01    2.340000e+00
 TC5vq SC2er  1 3.650000e-01    2.340000e+00
 TC4vq SC2er  1 3.650000e-01    2.570000e+00
 TC3vq SC2er  1 3.650000e-01    2.830000e+00
 TC2vq SC2er  1 3.650000e-01    2.830000e+00
 TC2er SC1vq  1 3.650000e-01    3.100000e+00
 TC2er SX4vq  1 3.650000e-01    2.110000e+00
 TC2er SX3vq  1 3.650000e-01    2.570000e+00
 TC2er SX2vq  1 3.650000e-01    2.570000e+00
 TC2er SX1vq  1 3.650000e-01    2.570000e+00
 TC6eq SC2er  1 3.650000e-01    1.750000e+00
 TC5eq SC2er  1 3.650000e-01    1.750000e+00
 TC4eq SC2er  1 3.650000e-01    1.910000e+00
 TC3eq SC2er  1 3.650000e-01    2.110000e+00
 TC2er SC2eq  1 3.650000e-01    2.110000e+00
 TC2er SX1eq  1 3.650000e-01    1.910000e+00
 TC2er SX2eq  1 3.650000e-01    1.910000e+00
 TC2er SX3eq  1 3.650000e-01    1.910000e+00
 TC2er SX4eq  1 3.660000e-01    1.600000e+00
 TC2er SC1eq  1 3.650000e-01    2.340000e+00
 TP6dq SC1er  1 4.040000e-01    1.130000e+00
 TP5dq SC1er  1 3.780000e-01    1.450000e+00
 TP4dq SC1er  1 3.780000e-01    1.450000e+00
 TP3dq SC1er  1 3.780000e-01    1.450000e+00
 TP2dq SC1er  1 3.660000e-01    1.600000e+00
 TP1dq SC1er  1 3.660000e-01    1.600000e+00
 TN6dq SC1er  1 3.650000e-01    1.750000e+00
 TN5dq SC1er  1 3.650000e-01    1.750000e+00
 TN4dq SC1er  1 3.650000e-01    1.750000e+00
 TN3dq SC1er  1 3.650000e-01    1.910000e+00
 TN2dq SC1er  1 3.650000e-01    1.910000e+00
 TN1dq SC1er  1 3.650000e-01    1.910000e+00
 TP6aq SC1er  1 4.230000e-01    9.810000e-01
 TP5aq SC1er  1 4.040000e-01    1.130000e+00
 TP4aq SC1er  1 4.040000e-01    1.130000e+00
 TP3aq SC1er  1 4.040000e-01    1.130000e+00
 TP2aq SC1er  1 3.940000e-01    1.290000e+00
 TP1aq SC1er  1 3.940000e-01    1.290000e+00
 TN6aq SC1er  1 3.780000e-01    1.450000e+00
 TN5aq SC1er  1 3.780000e-01    1.450000e+00
 TN4aq SC1er  1 3.780000e-01    1.450000e+00
 TN3aq SC1er  1 3.660000e-01    1.600000e+00
 TN2aq SC1er  1 3.660000e-01    1.600000e+00
 TN1aq SC1er  1 3.660000e-01    1.600000e+00
 TC6vq SC1er  1 3.650000e-01    2.110000e+00
 TC5vq SC1er  1 3.650000e-01    2.340000e+00
 TC4vq SC1er  1 3.650000e-01    2.340000e+00
 TC3vq SC1er  1 3.650000e-01    2.830000e+00
 TC2vq SC1er  1 3.650000e-01    3.100000e+00
 TC1vq SC1er  1 3.650000e-01    2.830000e+00
 TC1er SX4vq  1 3.650000e-01    2.110000e+00
 TC1er SX3vq  1 3.650000e-01    2.570000e+00
 TC1er SX2vq  1 3.650000e-01    2.570000e+00
 TC1er SX1vq  1 3.650000e-01    2.570000e+00
 TC6eq SC1er  1 3.660000e-01    1.600000e+00
 TC5eq SC1er  1 3.650000e-01    1.750000e+00
 TC4eq SC1er  1 3.650000e-01    1.750000e+00
 TC3eq SC1er  1 3.650000e-01    2.110000e+00
 TC2eq SC1er  1 3.650000e-01    2.340000e+00
 TC1er SC1eq  1 3.650000e-01    2.110000e+00
 TC1er SX1eq  1 3.650000e-01    1.910000e+00
 TC1er SX2eq  1 3.650000e-01    1.910000e+00
 TC1er SX3eq  1 3.650000e-01    1.910000e+00
 TC1er SX4eq  1 3.660000e-01    1.600000e+00
 TP6dq SX4er  1 3.650000e-01    2.110000e+00
 TP5dq SX4er  1 3.650000e-01    2.340000e+00
 TP4dq SX4er  1 3.650000e-01    2.340000e+00
 TP3dq SX4er  1 3.650000e-01    2.340000e+00
 TP2dq SX4er  1 3.650000e-01    2.340000e+00
 TP1dq SX4er  1 3.650000e-01    2.340000e+00
 TN6dq SX4er  1 3.650000e-01    2.570000e+00
 TN5dq SX4er  1 3.650000e-01    2.830000e+00
 TN4dq SX4er  1 3.650000e-01    3.100000e+00
 TN3dq SX4er  1 3.650000e-01    2.830000e+00
 TN2dq SX4er  1 3.650000e-01    2.830000e+00
 TN1dq SX4er  1 3.650000e-01    2.570000e+00
 TP6aq SX4er  1 3.650000e-01    1.750000e+00
 TP5aq SX4er  1 3.650000e-01    1.910000e+00
 TP4aq SX4er  1 3.650000e-01    1.910000e+00
 TP3aq SX4er  1 3.650000e-01    1.910000e+00
 TP2aq SX4er  1 3.650000e-01    1.910000e+00
 TP1aq SX4er  1 3.650000e-01    1.910000e+00
 TN6aq SX4er  1 3.650000e-01    2.110000e+00
 TN5aq SX4er  1 3.650000e-01    2.340000e+00
 TN4aq SX4er  1 3.650000e-01    2.570000e+00
 TN3aq SX4er  1 3.650000e-01    2.340000e+00
 TN2aq SX4er  1 3.650000e-01    2.340000e+00
 TN1aq SX4er  1 3.650000e-01    2.110000e+00
 TC6vq SX4er  1 3.650000e-01    2.830000e+00
 TC5vq SX4er  1 3.650000e-01    2.570000e+00
 TC4vq SX4er  1 3.650000e-01    2.570000e+00
 TC3vq SX4er  1 3.650000e-01    2.570000e+00
 TC2vq SX4er  1 3.650000e-01    2.110000e+00
 TC1vq SX4er  1 3.650000e-01    2.110000e+00
 TX4vq SX4er  1 3.650000e-01    2.830000e+00
 TX4er SX3vq  1 3.650000e-01    2.830000e+00
 TX4er SX2vq  1 3.650000e-01    2.830000e+00
 TX4er SX1vq  1 3.650000e-01    2.830000e+00
 TC6eq SX4er  1 3.650000e-01    2.110000e+00
 TC5eq SX4er  1 3.650000e-01    1.910000e+00
 TC4eq SX4er  1 3.650000e-01    1.910000e+00
 TC3eq SX4er  1 3.650000e-01    1.910000e+00
 TC2eq SX4er  1 3.660000e-01    1.600000e+00
 TC1eq SX4er  1 3.660000e-01    1.600000e+00
 TX4er SX4eq  1 3.650000e-01    2.110000e+00
 TX4er SX1eq  1 3.650000e-01    2.110000e+00
 TX4er SX2eq  1 3.650000e-01    2.110000e+00
 TX4er SX3eq  1 3.650000e-01    2.110000e+00
 TP6dq SX3er  1 3.650000e-01    2.110000e+00
 TP5dq SX3er  1 3.650000e-01    2.110000e+00
 TP4dq SX3er  1 3.650000e-01    2.110000e+00
 TP3dq SX3er  1 3.650000e-01    2.340000e+00
 TP2dq SX3er  1 3.650000e-01    2.340000e+00
 TP1dq SX3er  1 3.650000e-01    2.340000e+00
 TN6dq SX3er  1 3.650000e-01    2.340000e+00
 TN5dq SX3er  1 3.650000e-01    2.570000e+00
 TN4dq SX3er  1 3.650000e-01    2.830000e+00
 TN3dq SX3er  1 3.650000e-01    2.570000e+00
 TN2dq SX3er  1 3.650000e-01    2.570000e+00
 TN1dq SX3er  1 3.650000e-01    2.570000e+00
 TP6aq SX3er  1 3.650000e-01    1.750000e+00
 TP5aq SX3er  1 3.650000e-01    1.750000e+00
 TP4aq SX3er  1 3.650000e-01    1.750000e+00
 TP3aq SX3er  1 3.650000e-01    1.910000e+00
 TP2aq SX3er  1 3.650000e-01    1.910000e+00
 TP1aq SX3er  1 3.650000e-01    1.910000e+00
 TN6aq SX3er  1 3.650000e-01    1.910000e+00
 TN5aq SX3er  1 3.650000e-01    2.110000e+00
 TN4aq SX3er  1 3.650000e-01    2.340000e+00
 TN3aq SX3er  1 3.650000e-01    2.110000e+00
 TN2aq SX3er  1 3.650000e-01    2.110000e+00
 TN1aq SX3er  1 3.650000e-01    2.110000e+00
 TC6vq SX3er  1 3.650000e-01    2.830000e+00
 TC5vq SX3er  1 3.650000e-01    2.570000e+00
 TC4vq SX3er  1 3.650000e-01    2.570000e+00
 TC3vq SX3er  1 3.650000e-01    2.570000e+00
 TC2vq SX3er  1 3.650000e-01    2.570000e+00
 TC1vq SX3er  1 3.650000e-01    2.570000e+00
 TX4vq SX3er  1 3.650000e-01    2.830000e+00
 TX3vq SX3er  1 3.650000e-01    2.830000e+00
 TX3er SX2vq  1 3.650000e-01    3.100000e+00
 TX3er SX1vq  1 3.650000e-01    3.100000e+00
 TC6eq SX3er  1 3.650000e-01    2.110000e+00
 TC5eq SX3er  1 3.650000e-01    1.910000e+00
 TC4eq SX3er  1 3.650000e-01    1.910000e+00
 TC3eq SX3er  1 3.650000e-01    1.910000e+00
 TC2eq SX3er  1 3.650000e-01    1.910000e+00
 TC1eq SX3er  1 3.650000e-01    1.910000e+00
 TX4eq SX3er  1 3.650000e-01    2.110000e+00
 TX3er SX3eq  1 3.650000e-01    2.110000e+00
 TX3er SX1eq  1 3.650000e-01    2.340000e+00
 TX3er SX2eq  1 3.650000e-01    2.340000e+00
 TP6dq SX2er  1 3.650000e-01    1.910000e+00
 TP5dq SX2er  1 3.650000e-01    2.110000e+00
 TP4dq SX2er  1 3.650000e-01    2.110000e+00
 TP3dq SX2er  1 3.650000e-01    2.110000e+00
 TP2dq SX2er  1 3.650000e-01    2.110000e+00
 TP1dq SX2er  1 3.650000e-01    2.110000e+00
 TN6dq SX2er  1 3.650000e-01    2.110000e+00
 TN5dq SX2er  1 3.650000e-01    2.340000e+00
 TN4dq SX2er  1 3.650000e-01    2.340000e+00
 TN3dq SX2er  1 3.650000e-01    2.340000e+00
 TN2dq SX2er  1 3.650000e-01    2.340000e+00
 TN1dq SX2er  1 3.650000e-01    2.340000e+00
 TP6aq SX2er  1 3.660000e-01    1.600000e+00
 TP5aq SX2er  1 3.650000e-01    1.750000e+00
 TP4aq SX2er  1 3.650000e-01    1.750000e+00
 TP3aq SX2er  1 3.650000e-01    1.750000e+00
 TP2aq SX2er  1 3.650000e-01    1.750000e+00
 TP1aq SX2er  1 3.650000e-01    1.750000e+00
 TN6aq SX2er  1 3.650000e-01    1.750000e+00
 TN5aq SX2er  1 3.650000e-01    1.910000e+00
 TN4aq SX2er  1 3.650000e-01    1.910000e+00
 TN3aq SX2er  1 3.650000e-01    1.910000e+00
 TN2aq SX2er  1 3.650000e-01    1.910000e+00
 TN1aq SX2er  1 3.650000e-01    1.910000e+00
 TC6vq SX2er  1 3.650000e-01    2.830000e+00
 TC5vq SX2er  1 3.650000e-01    2.570000e+00
 TC4vq SX2er  1 3.650000e-01    2.570000e+00
 TC3vq SX2er  1 3.650000e-01    2.570000e+00
 TC2vq SX2er  1 3.650000e-01    2.570000e+00
 TC1vq SX2er  1 3.650000e-01    2.570000e+00
 TX4vq SX2er  1 3.650000e-01    2.830000e+00
 TX3vq SX2er  1 3.650000e-01    3.100000e+00
 TX2vq SX2er  1 3.650000e-01    3.100000e+00
 TX2er SX1vq  1 3.650000e-01    3.100000e+00
 TC6eq SX2er  1 3.650000e-01    2.110000e+00
 TC5eq SX2er  1 3.650000e-01    1.910000e+00
 TC4eq SX2er  1 3.650000e-01    1.910000e+00
 TC3eq SX2er  1 3.650000e-01    1.910000e+00
 TC2eq SX2er  1 3.650000e-01    1.910000e+00
 TC1eq SX2er  1 3.650000e-01    1.910000e+00
 TX4eq SX2er  1 3.650000e-01    2.110000e+00
 TX3eq SX2er  1 3.650000e-01    2.340000e+00
 TX2er SX2eq  1 3.650000e-01    2.340000e+00
 TX2er SX1eq  1 3.650000e-01    2.340000e+00
 TP6dq SX1er  1 3.650000e-01    1.750000e+00
 TP5dq SX1er  1 3.650000e-01    1.750000e+00
 TP4dq SX1er  1 3.650000e-01    1.910000e+00
 TP3dq SX1er  1 3.650000e-01    1.910000e+00
 TP2dq SX1er  1 3.650000e-01    1.910000e+00
 TP1dq SX1er  1 3.650000e-01    1.910000e+00
 TN6dq SX1er  1 3.650000e-01    1.910000e+00
 TN5dq SX1er  1 3.650000e-01    2.110000e+00
 TN4dq SX1er  1 3.650000e-01    2.110000e+00
 TN3dq SX1er  1 3.650000e-01    2.340000e+00
 TN2dq SX1er  1 3.650000e-01    2.340000e+00
 TN1dq SX1er  1 3.650000e-01    2.340000e+00
 TP6aq SX1er  1 3.780000e-01    1.450000e+00
 TP5aq SX1er  1 3.780000e-01    1.450000e+00
 TP4aq SX1er  1 3.660000e-01    1.600000e+00
 TP3aq SX1er  1 3.660000e-01    1.600000e+00
 TP2aq SX1er  1 3.660000e-01    1.600000e+00
 TP1aq SX1er  1 3.660000e-01    1.600000e+00
 TN6aq SX1er  1 3.660000e-01    1.600000e+00
 TN5aq SX1er  1 3.650000e-01    1.750000e+00
 TN4aq SX1er  1 3.650000e-01    1.750000e+00
 TN3aq SX1er  1 3.650000e-01    1.910000e+00
 TN2aq SX1er  1 3.650000e-01    1.910000e+00
 TN1aq SX1er  1 3.650000e-01    1.910000e+00
 TC6vq SX1er  1 3.650000e-01    2.830000e+00
 TC5vq SX1er  1 3.650000e-01    2.830000e+00
 TC4vq SX1er  1 3.650000e-01    2.830000e+00
 TC3vq SX1er  1 3.650000e-01    2.830000e+00
 TC2vq SX1er  1 3.650000e-01    2.570000e+00
 TC1vq SX1er  1 3.650000e-01    2.570000e+00
 TX4vq SX1er  1 3.650000e-01    2.830000e+00
 TX3vq SX1er  1 3.650000e-01    3.100000e+00
 TX2vq SX1er  1 3.650000e-01    3.100000e+00
 TX1vq SX1er  1 3.650000e-01    3.370000e+00
 TC6eq SX1er  1 3.650000e-01    2.110000e+00
 TC5eq SX1er  1 3.650000e-01    2.110000e+00
 TC4eq SX1er  1 3.650000e-01    2.110000e+00
 TC3eq SX1er  1 3.650000e-01    2.110000e+00
 TC2eq SX1er  1 3.650000e-01    1.910000e+00
 TC1eq SX1er  1 3.650000e-01    1.910000e+00
 TX4eq SX1er  1 3.650000e-01    2.110000e+00
 TX3eq SX1er  1 3.650000e-01    2.340000e+00
 TX2eq SX1er  1 3.650000e-01    2.340000e+00
 TX1er SX1eq  1 3.650000e-01    2.570000e+00
  TP6r  SP5r  1 3.650000e-01    3.370000e+00
  TP6r  SP4r  1 3.650000e-01    3.100000e+00
  TP6r  SP3r  1 3.650000e-01    2.830000e+00
  TP6r  SP2r  1 3.650000e-01    2.830000e+00
  TP6r  SP1r  1 3.650000e-01    2.570000e+00
  TP6r  SN6r  1 3.650000e-01    2.340000e+00
  TP6r  SN5r  1 3.650000e-01    1.910000e+00
  TP6r  SN4r  1 3.650000e-01    1.750000e+00
  TP6r  SN3r  1 3.660000e-01    1.600000e+00
  TP6r  SN2r  1 3.780000e-01    1.450000e+00
  TP6r  SN1r  1 3.940000e-01    1.290000e+00
  TP5r  SP4r  1 3.650000e-01    2.830000e+00
  TP5r  SP3r  1 3.650000e-01    2.570000e+00
  TP5r  SP2r  1 3.650000e-01    2.570000e+00
  TP5r  SP1r  1 3.650000e-01    2.340000e+00
  TP5r  SN6r  1 3.650000e-01    2.110000e+00
  TP5r  SN5r  1 3.650000e-01    1.910000e+00
  TP5r  SN4r  1 3.650000e-01    1.910000e+00
  TP5r  SN3r  1 3.660000e-01    1.600000e+00
  TP5r  SN2r  1 3.780000e-01    1.450000e+00
  TP5r  SN1r  1 3.940000e-01    1.290000e+00
  TP4r  SP3r  1 3.650000e-01    2.570000e+00
  TP4r  SP2r  1 3.650000e-01    2.570000e+00
  TP4r  SP1r  1 3.650000e-01    2.340000e+00
  TP4r  SN6r  1 3.650000e-01    2.110000e+00
  TP4r  SN5r  1 3.650000e-01    1.910000e+00
  TP4r  SN4r  1 3.650000e-01    1.910000e+00
  TP4r  SN3r  1 3.650000e-01    1.750000e+00
  TP4r  SN2r  1 3.660000e-01    1.600000e+00
  TP4r  SN1r  1 3.780000e-01    1.450000e+00
  TP3r  SP2r  1 3.650000e-01    2.570000e+00
  TP3r  SP1r  1 3.650000e-01    2.340000e+00
  TP3r  SN6r  1 3.650000e-01    2.110000e+00
  TP3r  SN5r  1 3.650000e-01    1.910000e+00
  TP3r  SN4r  1 3.650000e-01    1.910000e+00
  TP3r  SN3r  1 3.650000e-01    1.750000e+00
  TP3r  SN2r  1 3.650000e-01    1.750000e+00
  TP3r  SN1r  1 3.660000e-01    1.600000e+00
  TP2r  SP1r  1 3.650000e-01    2.340000e+00
  TP2r  SN6r  1 3.650000e-01    2.340000e+00
  TP2r  SN5r  1 3.650000e-01    2.110000e+00
  TP2r  SN4r  1 3.650000e-01    1.910000e+00
  TP2r  SN3r  1 3.650000e-01    1.750000e+00
  TP2r  SN2r  1 3.650000e-01    1.750000e+00
  TP2r  SN1r  1 3.650000e-01    1.750000e+00
  TP1r  SN6r  1 3.650000e-01    2.340000e+00
  TP1r  SN5r  1 3.650000e-01    2.110000e+00
  TP1r  SN4r  1 3.650000e-01    2.110000e+00
  TP1r  SN3r  1 3.650000e-01    1.750000e+00
  TP1r  SN2r  1 3.650000e-01    1.750000e+00
  TP1r  SN1r  1 3.650000e-01    1.750000e+00
  TN6r  SN5r  1 3.650000e-01    2.340000e+00
  TN6r  SN4r  1 3.650000e-01    2.340000e+00
  TN6r  SN3r  1 3.650000e-01    1.910000e+00
  TN6r  SN2r  1 3.650000e-01    1.750000e+00
  TN6r  SN1r  1 3.650000e-01    1.750000e+00
  TN5r  SN4r  1 3.650000e-01    2.110000e+00
  TN5r  SN3r  1 3.650000e-01    1.910000e+00
  TN5r  SN2r  1 3.650000e-01    1.910000e+00
  TN5r  SN1r  1 3.650000e-01    1.750000e+00
  TN4r  SN3r  1 3.650000e-01    1.910000e+00
  TN4r  SN2r  1 3.650000e-01    1.910000e+00
  TN4r  SN1r  1 3.650000e-01    1.750000e+00
  TN3r  SN2r  1 3.650000e-01    1.910000e+00
  TN3r  SN1r  1 3.650000e-01    1.750000e+00
  TN2r  SN1r  1 3.650000e-01    1.750000e+00
 TP6dr SP5dr  1 3.650000e-01    3.100000e+00
 TP6dr SP4dr  1 3.650000e-01    2.830000e+00
 TP6dr SP3dr  1 3.650000e-01    2.570000e+00
 TP6dr SP2dr  1 3.650000e-01    2.570000e+00
 TP6dr SP1dr  1 3.650000e-01    2.340000e+00
 TP6dr SN6dr  1 3.650000e-01    2.110000e+00
 TP6dr SN5dr  1 3.650000e-01    1.750000e+00
 TP6dr SN4dr  1 3.660000e-01    1.600000e+00
 TP6dr SN3dr  1 3.660000e-01    1.600000e+00
 TP6dr SN2dr  1 3.780000e-01    1.450000e+00
 TP6dr SN1dr  1 3.940000e-01    1.290000e+00
 TP6dr SP6ar  1 3.650000e-01    3.930000e+00
 TP6dr SP5ar  1 3.650000e-01    3.640000e+00
 TP6dr SP4ar  1 3.650000e-01    3.370000e+00
 TP6dr SP3ar  1 3.650000e-01    3.100000e+00
 TP6dr SP2ar  1 3.650000e-01    3.100000e+00
 TP6dr SP1ar  1 3.650000e-01    2.830000e+00
 TP6dr SN6ar  1 3.650000e-01    2.570000e+00
 TP6dr SN5ar  1 3.650000e-01    2.110000e+00
 TP6dr SN4ar  1 3.650000e-01    1.910000e+00
 TP6dr SN3ar  1 3.660000e-01    1.600000e+00
 TP6dr SN2ar  1 3.780000e-01    1.450000e+00
 TP6dr SN1ar  1 3.940000e-01    1.290000e+00
 TP5dr SP4dr  1 3.650000e-01    2.570000e+00
 TP5dr SP3dr  1 3.650000e-01    2.340000e+00
 TP5dr SP2dr  1 3.650000e-01    2.340000e+00
 TP5dr SP1dr  1 3.650000e-01    2.110000e+00
 TP5dr SN6dr  1 3.650000e-01    1.910000e+00
 TP5dr SN5dr  1 3.650000e-01    1.750000e+00
 TP5dr SN4dr  1 3.650000e-01    1.750000e+00
 TP5dr SN3dr  1 3.660000e-01    1.600000e+00
 TP5dr SN2dr  1 3.780000e-01    1.450000e+00
 TP5dr SN1dr  1 3.940000e-01    1.290000e+00
 TP5dr SP5ar  1 3.650000e-01    3.370000e+00
 TP5dr SP4ar  1 3.650000e-01    3.100000e+00
 TP5dr SP3ar  1 3.650000e-01    2.830000e+00
 TP5dr SP2ar  1 3.650000e-01    2.830000e+00
 TP5dr SP1ar  1 3.650000e-01    2.570000e+00
 TP5dr SN6ar  1 3.650000e-01    2.340000e+00
 TP5dr SN5ar  1 3.650000e-01    2.110000e+00
 TP5dr SN4ar  1 3.650000e-01    2.110000e+00
 TP5dr SN3ar  1 3.660000e-01    1.600000e+00
 TP5dr SN2ar  1 3.780000e-01    1.450000e+00
 TP5dr SN1ar  1 3.940000e-01    1.290000e+00
 TP4dr SP3dr  1 3.650000e-01    2.340000e+00
 TP4dr SP2dr  1 3.650000e-01    2.340000e+00
 TP4dr SP1dr  1 3.650000e-01    2.110000e+00
 TP4dr SN6dr  1 3.650000e-01    1.910000e+00
 TP4dr SN5dr  1 3.650000e-01    1.750000e+00
 TP4dr SN4dr  1 3.650000e-01    1.750000e+00
 TP4dr SN3dr  1 3.660000e-01    1.600000e+00
 TP4dr SN2dr  1 3.660000e-01    1.600000e+00
 TP4dr SN1dr  1 3.780000e-01    1.450000e+00
 TP4dr SP4ar  1 3.650000e-01    3.100000e+00
 TP4dr SP3ar  1 3.650000e-01    2.830000e+00
 TP4dr SP2ar  1 3.650000e-01    2.830000e+00
 TP4dr SP1ar  1 3.650000e-01    2.570000e+00
 TP4dr SN6ar  1 3.650000e-01    2.340000e+00
 TP4dr SN5ar  1 3.650000e-01    2.110000e+00
 TP4dr SN4ar  1 3.650000e-01    2.110000e+00
 TP4dr SN3ar  1 3.650000e-01    1.910000e+00
 TP4dr SN2ar  1 3.660000e-01    1.600000e+00
 TP4dr SN1ar  1 3.780000e-01    1.450000e+00
 TP3dr SP2dr  1 3.650000e-01    2.340000e+00
 TP3dr SP1dr  1 3.650000e-01    2.110000e+00
 TP3dr SN6dr  1 3.650000e-01    1.910000e+00
 TP3dr SN5dr  1 3.650000e-01    1.750000e+00
 TP3dr SN4dr  1 3.650000e-01    1.750000e+00
 TP3dr SN3dr  1 3.660000e-01    1.600000e+00
 TP3dr SN2dr  1 3.660000e-01    1.600000e+00
 TP3dr SN1dr  1 3.660000e-01    1.600000e+00
 TP3dr SP3ar  1 3.650000e-01    2.830000e+00
 TP3dr SP2ar  1 3.650000e-01    2.830000e+00
 TP3dr SP1ar  1 3.650000e-01    2.570000e+00
 TP3dr SN6ar  1 3.650000e-01    2.340000e+00
 TP3dr SN5ar  1 3.650000e-01    2.110000e+00
 TP3dr SN4ar  1 3.650000e-01    2.110000e+00
 TP3dr SN3ar  1 3.650000e-01    1.910000e+00
 TP3dr SN2ar  1 3.650000e-01    1.910000e+00
 TP3dr SN1ar  1 3.660000e-01    1.600000e+00
 TP2dr SP1dr  1 3.650000e-01    2.110000e+00
 TP2dr SN6dr  1 3.650000e-01    2.110000e+00
 TP2dr SN5dr  1 3.650000e-01    1.910000e+00
 TP2dr SN4dr  1 3.650000e-01    1.750000e+00
 TP2dr SN3dr  1 3.660000e-01    1.600000e+00
 TP2dr SN2dr  1 3.660000e-01    1.600000e+00
 TP2dr SN1dr  1 3.660000e-01    1.600000e+00
 TP2dr SP2ar  1 3.650000e-01    2.830000e+00
 TP2dr SP1ar  1 3.650000e-01    2.570000e+00
 TP2dr SN6ar  1 3.650000e-01    2.570000e+00
 TP2dr SN5ar  1 3.650000e-01    2.340000e+00
 TP2dr SN4ar  1 3.650000e-01    2.110000e+00
 TP2dr SN3ar  1 3.650000e-01    1.910000e+00
 TP2dr SN2ar  1 3.650000e-01    1.910000e+00
 TP2dr SN1ar  1 3.650000e-01    1.910000e+00
 TP1dr SN6dr  1 3.650000e-01    2.110000e+00
 TP1dr SN5dr  1 3.650000e-01    1.910000e+00
 TP1dr SN4dr  1 3.650000e-01    1.910000e+00
 TP1dr SN3dr  1 3.660000e-01    1.600000e+00
 TP1dr SN2dr  1 3.660000e-01    1.600000e+00
 TP1dr SN1dr  1 3.660000e-01    1.600000e+00
 TP1dr SP1ar  1 3.650000e-01    2.570000e+00
 TP1dr SN6ar  1 3.650000e-01    2.570000e+00
 TP1dr SN5ar  1 3.650000e-01    2.340000e+00
 TP1dr SN4ar  1 3.650000e-01    2.340000e+00
 TP1dr SN3ar  1 3.650000e-01    1.910000e+00
 TP1dr SN2ar  1 3.650000e-01    1.910000e+00
 TP1dr SN1ar  1 3.650000e-01    1.910000e+00
 TN6dr SN5dr  1 3.650000e-01    2.110000e+00
 TN6dr SN4dr  1 3.650000e-01    2.110000e+00
 TN6dr SN3dr  1 3.650000e-01    1.750000e+00
 TN6dr SN2dr  1 3.660000e-01    1.600000e+00
 TN6dr SN1dr  1 3.660000e-01    1.600000e+00
 TN6dr SN6ar  1 3.650000e-01    2.570000e+00
 TN6dr SN5ar  1 3.650000e-01    2.570000e+00
 TN6dr SN4ar  1 3.650000e-01    2.570000e+00
 TN6dr SN3ar  1 3.650000e-01    2.110000e+00
 TN6dr SN2ar  1 3.650000e-01    1.910000e+00
 TN6dr SN1ar  1 3.650000e-01    1.910000e+00
 TN5dr SN4dr  1 3.650000e-01    1.910000e+00
 TN5dr SN3dr  1 3.650000e-01    1.750000e+00
 TN5dr SN2dr  1 3.650000e-01    1.750000e+00
 TN5dr SN1dr  1 3.660000e-01    1.600000e+00
 TN5dr SN5ar  1 3.650000e-01    2.340000e+00
 TN5dr SN4ar  1 3.650000e-01    2.340000e+00
 TN5dr SN3ar  1 3.650000e-01    2.110000e+00
 TN5dr SN2ar  1 3.650000e-01    2.110000e+00
 TN5dr SN1ar  1 3.650000e-01    1.910000e+00
 TN4dr SN3dr  1 3.650000e-01    1.750000e+00
 TN4dr SN2dr  1 3.650000e-01    1.750000e+00
 TN4dr SN1dr  1 3.660000e-01    1.600000e+00
 TN4dr SN4ar  1 3.650000e-01    2.340000e+00
 TN4dr SN3ar  1 3.650000e-01    2.110000e+00
 TN4dr SN2ar  1 3.650000e-01    2.110000e+00
 TN4dr SN1ar  1 3.650000e-01    1.910000e+00
 TN3dr SN2dr  1 3.650000e-01    1.750000e+00
 TN3dr SN1dr  1 3.660000e-01    1.600000e+00
 TN3dr SN3ar  1 3.650000e-01    2.110000e+00
 TN3dr SN2ar  1 3.650000e-01    2.110000e+00
 TN3dr SN1ar  1 3.650000e-01    1.910000e+00
 TN2dr SN1dr  1 3.660000e-01    1.600000e+00
 TN2dr SN2ar  1 3.650000e-01    2.110000e+00
 TN2dr SN1ar  1 3.650000e-01    1.910000e+00
 TN1dr SN1ar  1 3.650000e-01    2.110000e+00
 TP6ar SP5dr  1 3.650000e-01    3.640000e+00
 TP6ar SP4dr  1 3.650000e-01    3.370000e+00
 TP6ar SP3dr  1 3.650000e-01    3.100000e+00
 TP6ar SP2dr  1 3.650000e-01    3.100000e+00
 TP6ar SP1dr  1 3.650000e-01    2.830000e+00
 TP6ar SN6dr  1 3.650000e-01    2.570000e+00
 TP6ar SN5dr  1 3.650000e-01    2.110000e+00
 TP6ar SN4dr  1 3.650000e-01    1.910000e+00
 TP6ar SN3dr  1 3.660000e-01    1.600000e+00
 TP6ar SN2dr  1 3.780000e-01    1.450000e+00
 TP6ar SN1dr  1 3.940000e-01    1.290000e+00
 TP6ar SP5ar  1 3.650000e-01    3.100000e+00
 TP6ar SP4ar  1 3.650000e-01    2.830000e+00
 TP6ar SP3ar  1 3.650000e-01    2.570000e+00
 TP6ar SP2ar  1 3.650000e-01    2.570000e+00
 TP6ar SP1ar  1 3.650000e-01    2.340000e+00
 TP6ar SN6ar  1 3.650000e-01    2.110000e+00
 TP6ar SN5ar  1 3.650000e-01    1.750000e+00
 TP6ar SN4ar  1 3.660000e-01    1.600000e+00
 TP6ar SN3ar  1 3.660000e-01    1.600000e+00
 TP6ar SN2ar  1 3.780000e-01    1.450000e+00
 TP6ar SN1ar  1 3.940000e-01    1.290000e+00
 TP5ar SP4dr  1 3.650000e-01    3.100000e+00
 TP5ar SP3dr  1 3.650000e-01    2.830000e+00
 TP5ar SP2dr  1 3.650000e-01    2.830000e+00
 TP5ar SP1dr  1 3.650000e-01    2.570000e+00
 TP5ar SN6dr  1 3.650000e-01    2.340000e+00
 TP5ar SN5dr  1 3.650000e-01    2.110000e+00
 TP5ar SN4dr  1 3.650000e-01    2.110000e+00
 TP5ar SN3dr  1 3.660000e-01    1.600000e+00
 TP5ar SN2dr  1 3.780000e-01    1.450000e+00
 TP5ar SN1dr  1 3.940000e-01    1.290000e+00
 TP5ar SP4ar  1 3.650000e-01    2.570000e+00
 TP5ar SP3ar  1 3.650000e-01    2.340000e+00
 TP5ar SP2ar  1 3.650000e-01    2.340000e+00
 TP5ar SP1ar  1 3.650000e-01    2.110000e+00
 TP5ar SN6ar  1 3.650000e-01    1.910000e+00
 TP5ar SN5ar  1 3.650000e-01    1.750000e+00
 TP5ar SN4ar  1 3.650000e-01    1.750000e+00
 TP5ar SN3ar  1 3.660000e-01    1.600000e+00
 TP5ar SN2ar  1 3.780000e-01    1.450000e+00
 TP5ar SN1ar  1 3.940000e-01    1.290000e+00
 TP4ar SP3dr  1 3.650000e-01    2.830000e+00
 TP4ar SP2dr  1 3.650000e-01    2.830000e+00
 TP4ar SP1dr  1 3.650000e-01    2.570000e+00
 TP4ar SN6dr  1 3.650000e-01    2.340000e+00
 TP4ar SN5dr  1 3.650000e-01    2.110000e+00
 TP4ar SN4dr  1 3.650000e-01    2.110000e+00
 TP4ar SN3dr  1 3.650000e-01    1.910000e+00
 TP4ar SN2dr  1 3.660000e-01    1.600000e+00
 TP4ar SN1dr  1 3.780000e-01    1.450000e+00
 TP4ar SP3ar  1 3.650000e-01    2.340000e+00
 TP4ar SP2ar  1 3.650000e-01    2.340000e+00
 TP4ar SP1ar  1 3.650000e-01    2.110000e+00
 TP4ar SN6ar  1 3.650000e-01    1.910000e+00
 TP4ar SN5ar  1 3.650000e-01    1.750000e+00
 TP4ar SN4ar  1 3.650000e-01    1.750000e+00
 TP4ar SN3ar  1 3.660000e-01    1.600000e+00
 TP4ar SN2ar  1 3.660000e-01    1.600000e+00
 TP4ar SN1ar  1 3.780000e-01    1.450000e+00
 TP3ar SP2dr  1 3.650000e-01    2.830000e+00
 TP3ar SP1dr  1 3.650000e-01    2.570000e+00
 TP3ar SN6dr  1 3.650000e-01    2.340000e+00
 TP3ar SN5dr  1 3.650000e-01    2.110000e+00
 TP3ar SN4dr  1 3.650000e-01    2.110000e+00
 TP3ar SN3dr  1 3.650000e-01    1.910000e+00
 TP3ar SN2dr  1 3.650000e-01    1.910000e+00
 TP3ar SN1dr  1 3.660000e-01    1.600000e+00
 TP3ar SP2ar  1 3.650000e-01    2.340000e+00
 TP3ar SP1ar  1 3.650000e-01    2.110000e+00
 TP3ar SN6ar  1 3.650000e-01    1.910000e+00
 TP3ar SN5ar  1 3.650000e-01    1.750000e+00
 TP3ar SN4ar  1 3.650000e-01    1.750000e+00
 TP3ar SN3ar  1 3.660000e-01    1.600000e+00
 TP3ar SN2ar  1 3.660000e-01    1.600000e+00
 TP3ar SN1ar  1 3.660000e-01    1.600000e+00
 TP2ar SP1dr  1 3.650000e-01    2.570000e+00
 TP2ar SN6dr  1 3.650000e-01    2.570000e+00
 TP2ar SN5dr  1 3.650000e-01    2.340000e+00
 TP2ar SN4dr  1 3.650000e-01    2.110000e+00
 TP2ar SN3dr  1 3.650000e-01    1.910000e+00
 TP2ar SN2dr  1 3.650000e-01    1.910000e+00
 TP2ar SN1dr  1 3.650000e-01    1.910000e+00
 TP2ar SP1ar  1 3.650000e-01    2.110000e+00
 TP2ar SN6ar  1 3.650000e-01    2.110000e+00
 TP2ar SN5ar  1 3.650000e-01    1.910000e+00
 TP2ar SN4ar  1 3.650000e-01    1.750000e+00
 TP2ar SN3ar  1 3.660000e-01    1.600000e+00
 TP2ar SN2ar  1 3.660000e-01    1.600000e+00
 TP2ar SN1ar  1 3.660000e-01    1.600000e+00
 TP1ar SN6dr  1 3.650000e-01    2.570000e+00
 TP1ar SN5dr  1 3.650000e-01    2.340000e+00
 TP1ar SN4dr  1 3.650000e-01    2.340000e+00
 TP1ar SN3dr  1 3.650000e-01    1.910000e+00
 TP1ar SN2dr  1 3.650000e-01    1.910000e+00
 TP1ar SN1dr  1 3.650000e-01    1.910000e+00
 TP1ar SN6ar  1 3.650000e-01    2.110000e+00
 TP1ar SN5ar  1 3.650000e-01    1.910000e+00
 TP1ar SN4ar  1 3.650000e-01    1.910000e+00
 TP1ar SN3ar  1 3.660000e-01    1.600000e+00
 TP1ar SN2ar  1 3.660000e-01    1.600000e+00
 TP1ar SN1ar  1 3.660000e-01    1.600000e+00
 TN6ar SN5dr  1 3.650000e-01    2.570000e+00
 TN6ar SN4dr  1 3.650000e-01    2.570000e+00
 TN6ar SN3dr  1 3.650000e-01    2.110000e+00
 TN6ar SN2dr  1 3.650000e-01    1.910000e+00
 TN6ar SN1dr  1 3.650000e-01    1.910000e+00
 TN6ar SN5ar  1 3.650000e-01    2.110000e+00
 TN6ar SN4ar  1 3.650000e-01    2.110000e+00
 TN6ar SN3ar  1 3.650000e-01    1.750000e+00
 TN6ar SN2ar  1 3.660000e-01    1.600000e+00
 TN6ar SN1ar  1 3.660000e-01    1.600000e+00
 TN5ar SN4dr  1 3.650000e-01    2.340000e+00
 TN5ar SN3dr  1 3.650000e-01    2.110000e+00
 TN5ar SN2dr  1 3.650000e-01    2.110000e+00
 TN5ar SN1dr  1 3.650000e-01    1.910000e+00
 TN5ar SN4ar  1 3.650000e-01    1.910000e+00
 TN5ar SN3ar  1 3.650000e-01    1.750000e+00
 TN5ar SN2ar  1 3.650000e-01    1.750000e+00
 TN5ar SN1ar  1 3.660000e-01    1.600000e+00
 TN4ar SN3dr  1 3.650000e-01    2.110000e+00
 TN4ar SN2dr  1 3.650000e-01    2.110000e+00
 TN4ar SN1dr  1 3.650000e-01    1.910000e+00
 TN4ar SN3ar  1 3.650000e-01    1.750000e+00
 TN4ar SN2ar  1 3.650000e-01    1.750000e+00
 TN4ar SN1ar  1 3.660000e-01    1.600000e+00
 TN3ar SN2dr  1 3.650000e-01    2.110000e+00
 TN3ar SN1dr  1 3.650000e-01    1.910000e+00
 TN3ar SN2ar  1 3.650000e-01    1.750000e+00
 TN3ar SN1ar  1 3.660000e-01    1.600000e+00
 TN2ar SN1dr  1 3.650000e-01    1.910000e+00
 TN2ar SN1ar  1 3.660000e-01    1.600000e+00
  TC6r  SC5r  1 3.650000e-01    1.750000e+00
  TC6r  SC4r  1 3.650000e-01    1.750000e+00
  TC6r  SC3r  1 3.660000e-01    1.600000e+00
  TC6r  SC2r  1 3.780000e-01    1.450000e+00
  TC6r  SC1r  1 3.940000e-01    1.290000e+00
  TC6r  SX4r  1 3.650000e-01    1.750000e+00
  TC6r  SX3r  1 3.650000e-01    1.750000e+00
  TC6r  SX2r  1 3.650000e-01    1.750000e+00
  TC6r  SX1r  1 3.650000e-01    1.750000e+00
  TC5r  SC4r  1 3.650000e-01    1.750000e+00
  TC5r  SC3r  1 3.660000e-01    1.600000e+00
  TC5r  SC2r  1 3.780000e-01    1.450000e+00
  TC5r  SC1r  1 3.780000e-01    1.450000e+00
  TC5r  SX4r  1 3.660000e-01    1.600000e+00
  TC5r  SX3r  1 3.660000e-01    1.600000e+00
  TC5r  SX2r  1 3.660000e-01    1.600000e+00
  TC5r  SX1r  1 3.650000e-01    1.750000e+00
  TC4r  SC3r  1 3.650000e-01    1.750000e+00
  TC4r  SC2r  1 3.660000e-01    1.600000e+00
  TC4r  SC1r  1 3.780000e-01    1.450000e+00
  TC4r  SX4r  1 3.660000e-01    1.600000e+00
  TC4r  SX3r  1 3.660000e-01    1.600000e+00
  TC4r  SX2r  1 3.660000e-01    1.600000e+00
  TC4r  SX1r  1 3.650000e-01    1.750000e+00
  TC3r  SC2r  1 3.650000e-01    1.750000e+00
  TC3r  SC1r  1 3.650000e-01    1.750000e+00
  TC3r  SX4r  1 3.660000e-01    1.600000e+00
  TC3r  SX3r  1 3.660000e-01    1.600000e+00
  TC3r  SX2r  1 3.660000e-01    1.600000e+00
  TC3r  SX1r  1 3.650000e-01    1.750000e+00
  TC2r  SC1r  1 3.650000e-01    1.910000e+00
  TC2r  SX4r  1 3.940000e-01    1.290000e+00
  TC2r  SX3r  1 3.660000e-01    1.600000e+00
  TC2r  SX2r  1 3.660000e-01    1.600000e+00
  TC2r  SX1r  1 3.660000e-01    1.600000e+00
  TC1r  SX4r  1 3.940000e-01    1.290000e+00
  TC1r  SX3r  1 3.660000e-01    1.600000e+00
  TC1r  SX2r  1 3.660000e-01    1.600000e+00
  TC1r  SX1r  1 3.660000e-01    1.600000e+00
  TX4r  SX3r  1 3.650000e-01    1.750000e+00
  TX4r  SX2r  1 3.650000e-01    1.750000e+00
  TX4r  SX1r  1 3.650000e-01    1.750000e+00
  TX3r  SX2r  1 3.650000e-01    1.910000e+00
  TX3r  SX1r  1 3.650000e-01    1.910000e+00
  TX2r  SX1r  1 3.650000e-01    1.910000e+00
 TC6vr SC5vr  1 3.660000e-01    1.600000e+00
 TC6vr SC4vr  1 3.660000e-01    1.600000e+00
 TC6vr SC3vr  1 3.780000e-01    1.450000e+00
 TC6vr SC2vr  1 3.940000e-01    1.290000e+00
 TC6vr SC1vr  1 4.040000e-01    1.130000e+00
 TC6vr SX4vr  1 3.660000e-01    1.600000e+00
 TC6vr SX3vr  1 3.660000e-01    1.600000e+00
 TC6vr SX2vr  1 3.660000e-01    1.600000e+00
 TC6vr SX1vr  1 3.660000e-01    1.600000e+00
 TC6vr SC6er  1 3.650000e-01    2.340000e+00
 TC6vr SC5er  1 3.650000e-01    2.110000e+00
 TC6vr SC4er  1 3.650000e-01    2.110000e+00
 TC6vr SC3er  1 3.650000e-01    1.910000e+00
 TC6vr SC2er  1 3.650000e-01    1.750000e+00
 TC6vr SC1er  1 3.660000e-01    1.600000e+00
 TC6vr SX4er  1 3.650000e-01    2.110000e+00
 TC6vr SX3er  1 3.650000e-01    2.110000e+00
 TC6vr SX2er  1 3.650000e-01    2.110000e+00
 TC6vr SX1er  1 3.650000e-01    2.110000e+00
 TC5vr SC4vr  1 3.660000e-01    1.600000e+00
 TC5vr SC3vr  1 3.780000e-01    1.450000e+00
 TC5vr SC2vr  1 3.940000e-01    1.290000e+00
 TC5vr SC1vr  1 3.940000e-01    1.290000e+00
 TC5vr SX4vr  1 3.780000e-01    1.450000e+00
 TC5vr SX3vr  1 3.780000e-01    1.450000e+00
 TC5vr SX2vr  1 3.780000e-01    1.450000e+00
 TC5vr SX1vr  1 3.660000e-01    1.600000e+00
 TC5vr SC5er  1 3.650000e-01    2.110000e+00
 TC5vr SC4er  1 3.650000e-01    2.110000e+00
 TC5vr SC3er  1 3.650000e-01    1.910000e+00
 TC5vr SC2er  1 3.650000e-01    1.750000e+00
 TC5vr SC1er  1 3.650000e-01    1.750000e+00
 TC5vr SX4er  1 3.650000e-01    1.910000e+00
 TC5vr SX3er  1 3.650000e-01    1.910000e+00
 TC5vr SX2er  1 3.650000e-01    1.910000e+00
 TC5vr SX1er  1 3.650000e-01    2.110000e+00
 TC4vr SC3vr  1 3.660000e-01    1.600000e+00
 TC4vr SC2vr  1 3.780000e-01    1.450000e+00
 TC4vr SC1vr  1 3.940000e-01    1.290000e+00
 TC4vr SX4vr  1 3.780000e-01    1.450000e+00
 TC4vr SX3vr  1 3.780000e-01    1.450000e+00
 TC4vr SX2vr  1 3.780000e-01    1.450000e+00
 TC4vr SX1vr  1 3.660000e-01    1.600000e+00
 TC4vr SC4er  1 3.650000e-01    2.110000e+00
 TC4vr SC3er  1 3.650000e-01    2.110000e+00
 TC4vr SC2er  1 3.650000e-01    1.910000e+00
 TC4vr SC1er  1 3.650000e-01    1.750000e+00
 TC4vr SX4er  1 3.650000e-01    1.910000e+00
 TC4vr SX3er  1 3.650000e-01    1.910000e+00
 TC4vr SX2er  1 3.650000e-01    1.910000e+00
 TC4vr SX1er  1 3.650000e-01    2.110000e+00
 TC3vr SC2vr  1 3.660000e-01    1.600000e+00
 TC3vr SC1vr  1 3.660000e-01    1.600000e+00
 TC3vr SX4vr  1 3.780000e-01    1.450000e+00
 TC3vr SX3vr  1 3.780000e-01    1.450000e+00
 TC3vr SX2vr  1 3.780000e-01    1.450000e+00
 TC3vr SX1vr  1 3.660000e-01    1.600000e+00
 TC3vr SC3er  1 3.650000e-01    2.110000e+00
 TC3vr SC2er  1 3.650000e-01    2.110000e+00
 TC3vr SC1er  1 3.650000e-01    2.110000e+00
 TC3vr SX4er  1 3.650000e-01    1.910000e+00
 TC3vr SX3er  1 3.650000e-01    1.910000e+00
 TC3vr SX2er  1 3.650000e-01    1.910000e+00
 TC3vr SX1er  1 3.650000e-01    2.110000e+00
 TC2vr SC1vr  1 3.650000e-01    1.750000e+00
 TC2vr SX4vr  1 4.040000e-01    1.130000e+00
 TC2vr SX3vr  1 3.780000e-01    1.450000e+00
 TC2vr SX2vr  1 3.780000e-01    1.450000e+00
 TC2vr SX1vr  1 3.780000e-01    1.450000e+00
 TC2vr SC2er  1 3.650000e-01    2.110000e+00
 TC2vr SC1er  1 3.650000e-01    2.340000e+00
 TC2vr SX4er  1 3.660000e-01    1.600000e+00
 TC2vr SX3er  1 3.650000e-01    1.910000e+00
 TC2vr SX2er  1 3.650000e-01    1.910000e+00
 TC2vr SX1er  1 3.650000e-01    1.910000e+00
 TC1vr SX4vr  1 4.040000e-01    1.130000e+00
 TC1vr SX3vr  1 3.780000e-01    1.450000e+00
 TC1vr SX2vr  1 3.780000e-01    1.450000e+00
 TC1vr SX1vr  1 3.780000e-01    1.450000e+00
 TC1vr SC1er  1 3.650000e-01    2.110000e+00
 TC1vr SX4er  1 3.660000e-01    1.600000e+00
 TC1vr SX3er  1 3.650000e-01    1.910000e+00
 TC1vr SX2er  1 3.650000e-01    1.910000e+00
 TC1vr SX1er  1 3.650000e-01    1.910000e+00
 TX4vr SX3vr  1 3.660000e-01    1.600000e+00
 TX4vr SX2vr  1 3.660000e-01    1.600000e+00
 TX4vr SX1vr  1 3.660000e-01    1.600000e+00
 TX4vr SX4er  1 3.650000e-01    2.110000e+00
 TX4vr SX3er  1 3.650000e-01    2.110000e+00
 TX4vr SX2er  1 3.650000e-01    2.110000e+00
 TX4vr SX1er  1 3.650000e-01    2.110000e+00
 TX3vr SX2vr  1 3.650000e-01    1.750000e+00
 TX3vr SX1vr  1 3.650000e-01    1.750000e+00
 TX3vr SX3er  1 3.650000e-01    2.110000e+00
 TX3vr SX2er  1 3.650000e-01    2.340000e+00
 TX3vr SX1er  1 3.650000e-01    2.340000e+00
 TX2vr SX1vr  1 3.650000e-01    1.750000e+00
 TX2vr SX2er  1 3.650000e-01    2.340000e+00
 TX2vr SX1er  1 3.650000e-01    2.340000e+00
 TX1vr SX1er  1 3.650000e-01    2.570000e+00
 TC6er SC5vr  1 3.650000e-01    2.110000e+00
 TC6er SC4vr  1 3.650000e-01    2.110000e+00
 TC6er SC3vr  1 3.650000e-01    1.910000e+00
 TC6er SC2vr  1 3.650000e-01    1.750000e+00
 TC6er SC1vr  1 3.660000e-01    1.600000e+00
 TC6er SX4vr  1 3.650000e-01    2.110000e+00
 TC6er SX3vr  1 3.650000e-01    2.110000e+00
 TC6er SX2vr  1 3.650000e-01    2.110000e+00
 TC6er SX1vr  1 3.650000e-01    2.110000e+00
 TC6er SC5er  1 3.660000e-01    1.600000e+00
 TC6er SC4er  1 3.660000e-01    1.600000e+00
 TC6er SC3er  1 3.780000e-01    1.450000e+00
 TC6er SC2er  1 3.940000e-01    1.290000e+00
 TC6er SC1er  1 4.040000e-01    1.130000e+00
 TC6er SX4er  1 3.660000e-01    1.600000e+00
 TC6er SX3er  1 3.660000e-01    1.600000e+00
 TC6er SX2er  1 3.660000e-01    1.600000e+00
 TC6er SX1er  1 3.660000e-01    1.600000e+00
 TC5er SC4vr  1 3.650000e-01    2.110000e+00
 TC5er SC3vr  1 3.650000e-01    1.910000e+00
 TC5er SC2vr  1 3.650000e-01    1.750000e+00
 TC5er SC1vr  1 3.650000e-01    1.750000e+00
 TC5er SX4vr  1 3.650000e-01    1.910000e+00
 TC5er SX3vr  1 3.650000e-01    1.910000e+00
 TC5er SX2vr  1 3.650000e-01    1.910000e+00
 TC5er SX1vr  1 3.650000e-01    2.110000e+00
 TC5er SC4er  1 3.660000e-01    1.600000e+00
 TC5er SC3er  1 3.780000e-01    1.450000e+00
 TC5er SC2er  1 3.940000e-01    1.290000e+00
 TC5er SC1er  1 3.940000e-01    1.290000e+00
 TC5er SX4er  1 3.780000e-01    1.450000e+00
 TC5er SX3er  1 3.780000e-01    1.450000e+00
 TC5er SX2er  1 3.780000e-01    1.450000e+00
 TC5er SX1er  1 3.660000e-01    1.600000e+00
 TC4er SC3vr  1 3.650000e-01    2.110000e+00
 TC4er SC2vr  1 3.650000e-01    1.910000e+00
 TC4er SC1vr  1 3.650000e-01    1.750000e+00
 TC4er SX4vr  1 3.650000e-01    1.910000e+00
 TC4er SX3vr  1 3.650000e-01    1.910000e+00
 TC4er SX2vr  1 3.650000e-01    1.910000e+00
 TC4er SX1vr  1 3.650000e-01    2.110000e+00
 TC4er SC3er  1 3.660000e-01    1.600000e+00
 TC4er SC2er  1 3.780000e-01    1.450000e+00
 TC4er SC1er  1 3.940000e-01    1.290000e+00
 TC4er SX4er  1 3.780000e-01    1.450000e+00
 TC4er SX3er  1 3.780000e-01    1.450000e+00
 TC4er SX2er  1 3.780000e-01    1.450000e+00
 TC4er SX1er  1 3.660000e-01    1.600000e+00
 TC3er SC2vr  1 3.650000e-01    2.110000e+00
 TC3er SC1vr  1 3.650000e-01    2.110000e+00
 TC3er SX4vr  1 3.650000e-01    1.910000e+00
 TC3er SX3vr  1 3.650000e-01    1.910000e+00
 TC3er SX2vr  1 3.650000e-01    1.910000e+00
 TC3er SX1vr  1 3.650000e-01    2.110000e+00
 TC3er SC2er  1 3.660000e-01    1.600000e+00
 TC3er SC1er  1 3.660000e-01    1.600000e+00
 TC3er SX4er  1 3.780000e-01    1.450000e+00
 TC3er SX3er  1 3.780000e-01    1.450000e+00
 TC3er SX2er  1 3.780000e-01    1.450000e+00
 TC3er SX1er  1 3.660000e-01    1.600000e+00
 TC2er SC1vr  1 3.650000e-01    2.340000e+00
 TC2er SX4vr  1 3.660000e-01    1.600000e+00
 TC2er SX3vr  1 3.650000e-01    1.910000e+00
 TC2er SX2vr  1 3.650000e-01    1.910000e+00
 TC2er SX1vr  1 3.650000e-01    1.910000e+00
 TC2er SC1er  1 3.650000e-01    1.750000e+00
 TC2er SX4er  1 4.040000e-01    1.130000e+00
 TC2er SX3er  1 3.780000e-01    1.450000e+00
 TC2er SX2er  1 3.780000e-01    1.450000e+00
 TC2er SX1er  1 3.780000e-01    1.450000e+00
 TC1er SX4vr  1 3.660000e-01    1.600000e+00
 TC1er SX3vr  1 3.650000e-01    1.910000e+00
 TC1er SX2vr  1 3.650000e-01    1.910000e+00
 TC1er SX1vr  1 3.650000e-01    1.910000e+00
 TC1er SX4er  1 4.040000e-01    1.130000e+00
 TC1er SX3er  1 3.780000e-01    1.450000e+00
 TC1er SX2er  1 3.780000e-01    1.450000e+00
 TC1er SX1er  1 3.780000e-01    1.450000e+00
 TX4er SX3vr  1 3.650000e-01    2.110000e+00
 TX4er SX2vr  1 3.650000e-01    2.110000e+00
 TX4er SX1vr  1 3.650000e-01    2.110000e+00
 TX4er SX3er  1 3.660000e-01    1.600000e+00
 TX4er SX2er  1 3.660000e-01    1.600000e+00
 TX4er SX1er  1 3.660000e-01    1.600000e+00
 TX3er SX2vr  1 3.650000e-01    2.340000e+00
 TX3er SX1vr  1 3.650000e-01    2.340000e+00
 TX3er SX2er  1 3.650000e-01    1.750000e+00
 TX3er SX1er  1 3.650000e-01    1.750000e+00
 TX2er SX1vr  1 3.650000e-01    2.340000e+00
 TX2er SX1er  1 3.650000e-01    1.750000e+00
  TP6r  SC6r  1 3.780000e-01    1.450000e+00
  TP6r  SC5r  1 3.940000e-01    1.290000e+00
  TP6r  SC4r  1 4.040000e-01    1.130000e+00
  TP6r  SC3r  1 4.090000e-01    1.080000e+00
  TP6r  SC2r  1 4.090000e-01    1.080000e+00
  TP6r  SC1r  1 4.840000e-01    8.900000e-01
  TP6r  SX4r  1 3.660000e-01    1.600000e+00
  TP6r  SX3r  1 3.660000e-01    1.600000e+00
  TP6r  SX2r  1 3.780000e-01    1.450000e+00
  TP6r  SX1r  1 3.940000e-01    1.290000e+00
  TP5r  SC6r  1 3.780000e-01    1.450000e+00
  TP5r  SC5r  1 3.780000e-01    1.450000e+00
  TP5r  SC4r  1 3.940000e-01    1.290000e+00
  TP5r  SC3r  1 4.040000e-01    1.130000e+00
  TP5r  SC2r  1 4.040000e-01    1.130000e+00
  TP5r  SC1r  1 4.090000e-01    1.080000e+00
  TP5r  SX4r  1 3.650000e-01    1.750000e+00
  TP5r  SX3r  1 3.660000e-01    1.600000e+00
  TP5r  SX2r  1 3.660000e-01    1.600000e+00
  TP5r  SX1r  1 3.940000e-01    1.290000e+00
  TP4r  SC6r  1 3.660000e-01    1.600000e+00
  TP4r  SC5r  1 3.780000e-01    1.450000e+00
  TP4r  SC4r  1 3.940000e-01    1.290000e+00
  TP4r  SC3r  1 4.040000e-01    1.130000e+00
  TP4r  SC2r  1 4.040000e-01    1.130000e+00
  TP4r  SC1r  1 4.090000e-01    1.080000e+00
  TP4r  SX4r  1 3.650000e-01    1.750000e+00
  TP4r  SX3r  1 3.660000e-01    1.600000e+00
  TP4r  SX2r  1 3.660000e-01    1.600000e+00
  TP4r  SX1r  1 3.780000e-01    1.450000e+00
  TP3r  SC6r  1 3.650000e-01    1.750000e+00
  TP3r  SC5r  1 3.660000e-01    1.600000e+00
  TP3r  SC4r  1 3.780000e-01    1.450000e+00
  TP3r  SC3r  1 4.040000e-01    1.130000e+00
  TP3r  SC2r  1 4.040000e-01    1.130000e+00
  TP3r  SC1r  1 4.090000e-01    1.080000e+00
  TP3r  SX4r  1 3.650000e-01    1.750000e+00
  TP3r  SX3r  1 3.650000e-01    1.750000e+00
  TP3r  SX2r  1 3.660000e-01    1.600000e+00
  TP3r  SX1r  1 3.780000e-01    1.450000e+00
  TP2r  SC6r  1 3.650000e-01    1.750000e+00
  TP2r  SC5r  1 3.660000e-01    1.600000e+00
  TP2r  SC4r  1 3.780000e-01    1.450000e+00
  TP2r  SC3r  1 3.940000e-01    1.290000e+00
  TP2r  SC2r  1 3.940000e-01    1.290000e+00
  TP2r  SC1r  1 4.040000e-01    1.130000e+00
  TP2r  SX4r  1 3.650000e-01    1.750000e+00
  TP2r  SX3r  1 3.650000e-01    1.750000e+00
  TP2r  SX2r  1 3.660000e-01    1.600000e+00
  TP2r  SX1r  1 3.780000e-01    1.450000e+00
  TP1r  SC6r  1 3.650000e-01    1.750000e+00
  TP1r  SC5r  1 3.660000e-01    1.600000e+00
  TP1r  SC4r  1 3.780000e-01    1.450000e+00
  TP1r  SC3r  1 3.940000e-01    1.290000e+00
  TP1r  SC2r  1 3.940000e-01    1.290000e+00
  TP1r  SC1r  1 4.040000e-01    1.130000e+00
  TP1r  SX4r  1 3.650000e-01    1.750000e+00
  TP1r  SX3r  1 3.650000e-01    1.750000e+00
  TP1r  SX2r  1 3.660000e-01    1.600000e+00
  TP1r  SX1r  1 3.780000e-01    1.450000e+00
  TN6r  SC6r  1 3.650000e-01    1.910000e+00
  TN6r  SC5r  1 3.650000e-01    1.750000e+00
  TN6r  SC4r  1 3.660000e-01    1.600000e+00
  TN6r  SC3r  1 3.780000e-01    1.450000e+00
  TN6r  SC2r  1 3.780000e-01    1.450000e+00
  TN6r  SC1r  1 3.940000e-01    1.290000e+00
  TN6r  SX4r  1 3.650000e-01    1.910000e+00
  TN6r  SX3r  1 3.650000e-01    1.750000e+00
  TN6r  SX2r  1 3.660000e-01    1.600000e+00
  TN6r  SX1r  1 3.780000e-01    1.450000e+00
  TN5r  SC6r  1 3.650000e-01    1.910000e+00
  TN5r  SC5r  1 3.650000e-01    1.750000e+00
  TN5r  SC4r  1 3.660000e-01    1.600000e+00
  TN5r  SC3r  1 3.660000e-01    1.600000e+00
  TN5r  SC2r  1 3.780000e-01    1.450000e+00
  TN5r  SC1r  1 3.940000e-01    1.290000e+00
  TN5r  SX4r  1 3.650000e-01    2.110000e+00
  TN5r  SX3r  1 3.650000e-01    1.910000e+00
  TN5r  SX2r  1 3.650000e-01    1.750000e+00
  TN5r  SX1r  1 3.660000e-01    1.600000e+00
  TN4r  SC6r  1 3.650000e-01    1.910000e+00
  TN4r  SC5r  1 3.650000e-01    1.750000e+00
  TN4r  SC4r  1 3.650000e-01    1.750000e+00
  TN4r  SC3r  1 3.660000e-01    1.600000e+00
  TN4r  SC2r  1 3.780000e-01    1.450000e+00
  TN4r  SC1r  1 3.940000e-01    1.290000e+00
  TN4r  SX4r  1 3.650000e-01    2.340000e+00
  TN4r  SX3r  1 3.650000e-01    2.110000e+00
  TN4r  SX2r  1 3.650000e-01    1.750000e+00
  TN4r  SX1r  1 3.660000e-01    1.600000e+00
  TN3r  SC6r  1 3.650000e-01    1.910000e+00
  TN3r  SC5r  1 3.650000e-01    1.750000e+00
  TN3r  SC4r  1 3.650000e-01    1.750000e+00
  TN3r  SC3r  1 3.660000e-01    1.600000e+00
  TN3r  SC2r  1 3.660000e-01    1.600000e+00
  TN3r  SC1r  1 3.780000e-01    1.450000e+00
  TN3r  SX4r  1 3.650000e-01    2.110000e+00
  TN3r  SX3r  1 3.650000e-01    1.910000e+00
  TN3r  SX2r  1 3.650000e-01    1.750000e+00
  TN3r  SX1r  1 3.650000e-01    1.750000e+00
  TN2r  SC6r  1 3.650000e-01    1.910000e+00
  TN2r  SC5r  1 3.650000e-01    1.750000e+00
  TN2r  SC4r  1 3.650000e-01    1.750000e+00
  TN2r  SC3r  1 3.650000e-01    1.750000e+00
  TN2r  SC2r  1 3.660000e-01    1.600000e+00
  TN2r  SC1r  1 3.780000e-01    1.450000e+00
  TN2r  SX4r  1 3.650000e-01    2.110000e+00
  TN2r  SX3r  1 3.650000e-01    1.910000e+00
  TN2r  SX2r  1 3.650000e-01    1.750000e+00
  TN2r  SX1r  1 3.650000e-01    1.750000e+00
  TN1r  SC6r  1 3.650000e-01    2.110000e+00
  TN1r  SC5r  1 3.650000e-01    1.910000e+00
  TN1r  SC4r  1 3.650000e-01    1.910000e+00
  TN1r  SC3r  1 3.650000e-01    1.750000e+00
  TN1r  SC2r  1 3.660000e-01    1.600000e+00
  TN1r  SC1r  1 3.780000e-01    1.450000e+00
  TN1r  SX4r  1 3.650000e-01    1.910000e+00
  TN1r  SX3r  1 3.650000e-01    1.910000e+00
  TN1r  SX2r  1 3.650000e-01    1.750000e+00
  TN1r  SX1r  1 3.650000e-01    1.750000e+00
 TP6dr SC6vr  1 3.940000e-01    1.290000e+00
 TP6dr SC5vr  1 4.040000e-01    1.130000e+00
 TP6dr SC4vr  1 4.090000e-01    1.080000e+00
 TP6dr SC3vr  1 4.230000e-01    9.810000e-01
 TP6dr SC2vr  1 4.230000e-01    9.810000e-01
 TP6dr SC1vr  1 5.370000e-01    8.080000e-01
 TP6dr SX4vr  1 3.780000e-01    1.450000e+00
 TP6dr SX3vr  1 3.780000e-01    1.450000e+00
 TP6dr SX2vr  1 3.940000e-01    1.290000e+00
 TP6dr SX1vr  1 4.040000e-01    1.130000e+00
 TP6dr SC6er  1 3.660000e-01    1.600000e+00
 TP6dr SC5er  1 3.780000e-01    1.450000e+00
 TP6dr SC4er  1 3.940000e-01    1.290000e+00
 TP6dr SC3er  1 4.040000e-01    1.130000e+00
 TP6dr SC2er  1 4.040000e-01    1.130000e+00
 TP6dr SC1er  1 4.230000e-01    9.810000e-01
 TP6dr SX4er  1 3.650000e-01    1.750000e+00
 TP6dr SX3er  1 3.650000e-01    1.750000e+00
 TP6dr SX2er  1 3.660000e-01    1.600000e+00
 TP6dr SX1er  1 3.780000e-01    1.450000e+00
 TP5dr SC6vr  1 3.940000e-01    1.290000e+00
 TP5dr SC5vr  1 3.940000e-01    1.290000e+00
 TP5dr SC4vr  1 4.040000e-01    1.130000e+00
 TP5dr SC3vr  1 4.090000e-01    1.080000e+00
 TP5dr SC2vr  1 4.090000e-01    1.080000e+00
 TP5dr SC1vr  1 4.230000e-01    9.810000e-01
 TP5dr SX4vr  1 3.660000e-01    1.600000e+00
 TP5dr SX3vr  1 3.780000e-01    1.450000e+00
 TP5dr SX2vr  1 3.780000e-01    1.450000e+00
 TP5dr SX1vr  1 4.040000e-01    1.130000e+00
 TP5dr SC6er  1 3.660000e-01    1.600000e+00
 TP5dr SC5er  1 3.660000e-01    1.600000e+00
 TP5dr SC4er  1 3.780000e-01    1.450000e+00
 TP5dr SC3er  1 3.940000e-01    1.290000e+00
 TP5dr SC2er  1 3.940000e-01    1.290000e+00
 TP5dr SC1er  1 4.040000e-01    1.130000e+00
 TP5dr SX4er  1 3.650000e-01    1.910000e+00
 TP5dr SX3er  1 3.650000e-01    1.750000e+00
 TP5dr SX2er  1 3.650000e-01    1.750000e+00
 TP5dr SX1er  1 3.780000e-01    1.450000e+00
 TP4dr SC6vr  1 3.780000e-01    1.450000e+00
 TP4dr SC5vr  1 3.940000e-01    1.290000e+00
 TP4dr SC4vr  1 4.040000e-01    1.130000e+00
 TP4dr SC3vr  1 4.090000e-01    1.080000e+00
 TP4dr SC2vr  1 4.090000e-01    1.080000e+00
 TP4dr SC1vr  1 4.230000e-01    9.810000e-01
 TP4dr SX4vr  1 3.660000e-01    1.600000e+00
 TP4dr SX3vr  1 3.780000e-01    1.450000e+00
 TP4dr SX2vr  1 3.780000e-01    1.450000e+00
 TP4dr SX1vr  1 3.940000e-01    1.290000e+00
 TP4dr SC6er  1 3.650000e-01    1.750000e+00
 TP4dr SC5er  1 3.660000e-01    1.600000e+00
 TP4dr SC4er  1 3.780000e-01    1.450000e+00
 TP4dr SC3er  1 3.940000e-01    1.290000e+00
 TP4dr SC2er  1 3.940000e-01    1.290000e+00
 TP4dr SC1er  1 4.040000e-01    1.130000e+00
 TP4dr SX4er  1 3.650000e-01    1.910000e+00
 TP4dr SX3er  1 3.650000e-01    1.750000e+00
 TP4dr SX2er  1 3.650000e-01    1.750000e+00
 TP4dr SX1er  1 3.660000e-01    1.600000e+00
 TP3dr SC6vr  1 3.660000e-01    1.600000e+00
 TP3dr SC5vr  1 3.780000e-01    1.450000e+00
 TP3dr SC4vr  1 3.940000e-01    1.290000e+00
 TP3dr SC3vr  1 4.090000e-01    1.080000e+00
 TP3dr SC2vr  1 4.090000e-01    1.080000e+00
 TP3dr SC1vr  1 4.230000e-01    9.810000e-01
 TP3dr SX4vr  1 3.660000e-01    1.600000e+00
 TP3dr SX3vr  1 3.660000e-01    1.600000e+00
 TP3dr SX2vr  1 3.780000e-01    1.450000e+00
 TP3dr SX1vr  1 3.940000e-01    1.290000e+00
 TP3dr SC6er  1 3.650000e-01    1.910000e+00
 TP3dr SC5er  1 3.650000e-01    1.750000e+00
 TP3dr SC4er  1 3.660000e-01    1.600000e+00
 TP3dr SC3er  1 3.940000e-01    1.290000e+00
 TP3dr SC2er  1 3.940000e-01    1.290000e+00
 TP3dr SC1er  1 4.040000e-01    1.130000e+00
 TP3dr SX4er  1 3.650000e-01    1.910000e+00
 TP3dr SX3er  1 3.650000e-01    1.910000e+00
 TP3dr SX2er  1 3.650000e-01    1.750000e+00
 TP3dr SX1er  1 3.660000e-01    1.600000e+00
 TP2dr SC6vr  1 3.660000e-01    1.600000e+00
 TP2dr SC5vr  1 3.780000e-01    1.450000e+00
 TP2dr SC4vr  1 3.940000e-01    1.290000e+00
 TP2dr SC3vr  1 4.040000e-01    1.130000e+00
 TP2dr SC2vr  1 4.040000e-01    1.130000e+00
 TP2dr SC1vr  1 4.090000e-01    1.080000e+00
 TP2dr SX4vr  1 3.660000e-01    1.600000e+00
 TP2dr SX3vr  1 3.660000e-01    1.600000e+00
 TP2dr SX2vr  1 3.780000e-01    1.450000e+00
 TP2dr SX1vr  1 3.940000e-01    1.290000e+00
 TP2dr SC6er  1 3.650000e-01    1.910000e+00
 TP2dr SC5er  1 3.650000e-01    1.750000e+00
 TP2dr SC4er  1 3.660000e-01    1.600000e+00
 TP2dr SC3er  1 3.780000e-01    1.450000e+00
 TP2dr SC2er  1 3.780000e-01    1.450000e+00
 TP2dr SC1er  1 3.940000e-01    1.290000e+00
 TP2dr SX4er  1 3.650000e-01    1.910000e+00
 TP2dr SX3er  1 3.650000e-01    1.910000e+00
 TP2dr SX2er  1 3.650000e-01    1.750000e+00
 TP2dr SX1er  1 3.660000e-01    1.600000e+00
 TP1dr SC6vr  1 3.660000e-01    1.600000e+00
 TP1dr SC5vr  1 3.780000e-01    1.450000e+00
 TP1dr SC4vr  1 3.940000e-01    1.290000e+00
 TP1dr SC3vr  1 4.040000e-01    1.130000e+00
 TP1dr SC2vr  1 4.040000e-01    1.130000e+00
 TP1dr SC1vr  1 4.090000e-01    1.080000e+00
 TP1dr SX4vr  1 3.660000e-01    1.600000e+00
 TP1dr SX3vr  1 3.660000e-01    1.600000e+00
 TP1dr SX2vr  1 3.780000e-01    1.450000e+00
 TP1dr SX1vr  1 3.940000e-01    1.290000e+00
 TP1dr SC6er  1 3.650000e-01    1.910000e+00
 TP1dr SC5er  1 3.650000e-01    1.750000e+00
 TP1dr SC4er  1 3.660000e-01    1.600000e+00
 TP1dr SC3er  1 3.780000e-01    1.450000e+00
 TP1dr SC2er  1 3.780000e-01    1.450000e+00
 TP1dr SC1er  1 3.940000e-01    1.290000e+00
 TP1dr SX4er  1 3.650000e-01    1.910000e+00
 TP1dr SX3er  1 3.650000e-01    1.910000e+00
 TP1dr SX2er  1 3.650000e-01    1.750000e+00
 TP1dr SX1er  1 3.660000e-01    1.600000e+00
 TN6dr SC6vr  1 3.650000e-01    1.750000e+00
 TN6dr SC5vr  1 3.660000e-01    1.600000e+00
 TN6dr SC4vr  1 3.780000e-01    1.450000e+00
 TN6dr SC3vr  1 3.940000e-01    1.290000e+00
 TN6dr SC2vr  1 3.940000e-01    1.290000e+00
 TN6dr SC1vr  1 4.040000e-01    1.130000e+00
 TN6dr SX4vr  1 3.650000e-01    1.750000e+00
 TN6dr SX3vr  1 3.660000e-01    1.600000e+00
 TN6dr SX2vr  1 3.780000e-01    1.450000e+00
 TN6dr SX1vr  1 3.940000e-01    1.290000e+00
 TN6dr SC6er  1 3.650000e-01    2.110000e+00
 TN6dr SC5er  1 3.650000e-01    1.910000e+00
 TN6dr SC4er  1 3.650000e-01    1.750000e+00
 TN6dr SC3er  1 3.660000e-01    1.600000e+00
 TN6dr SC2er  1 3.660000e-01    1.600000e+00
 TN6dr SC1er  1 3.780000e-01    1.450000e+00
 TN6dr SX4er  1 3.650000e-01    2.110000e+00
 TN6dr SX3er  1 3.650000e-01    1.910000e+00
 TN6dr SX2er  1 3.650000e-01    1.750000e+00
 TN6dr SX1er  1 3.660000e-01    1.600000e+00
 TN5dr SC6vr  1 3.650000e-01    1.750000e+00
 TN5dr SC5vr  1 3.660000e-01    1.600000e+00
 TN5dr SC4vr  1 3.780000e-01    1.450000e+00
 TN5dr SC3vr  1 3.780000e-01    1.450000e+00
 TN5dr SC2vr  1 3.940000e-01    1.290000e+00
 TN5dr SC1vr  1 4.040000e-01    1.130000e+00
 TN5dr SX4vr  1 3.650000e-01    1.910000e+00
 TN5dr SX3vr  1 3.650000e-01    1.750000e+00
 TN5dr SX2vr  1 3.660000e-01    1.600000e+00
 TN5dr SX1vr  1 3.780000e-01    1.450000e+00
 TN5dr SC6er  1 3.650000e-01    2.110000e+00
 TN5dr SC5er  1 3.650000e-01    1.910000e+00
 TN5dr SC4er  1 3.650000e-01    1.750000e+00
 TN5dr SC3er  1 3.650000e-01    1.750000e+00
 TN5dr SC2er  1 3.660000e-01    1.600000e+00
 TN5dr SC1er  1 3.780000e-01    1.450000e+00
 TN5dr SX4er  1 3.650000e-01    2.340000e+00
 TN5dr SX3er  1 3.650000e-01    2.110000e+00
 TN5dr SX2er  1 3.650000e-01    1.910000e+00
 TN5dr SX1er  1 3.650000e-01    1.750000e+00
 TN4dr SC6vr  1 3.650000e-01    1.750000e+00
 TN4dr SC5vr  1 3.660000e-01    1.600000e+00
 TN4dr SC4vr  1 3.660000e-01    1.600000e+00
 TN4dr SC3vr  1 3.780000e-01    1.450000e+00
 TN4dr SC2vr  1 3.940000e-01    1.290000e+00
 TN4dr SC1vr  1 4.040000e-01    1.130000e+00
 TN4dr SX4vr  1 3.650000e-01    2.110000e+00
 TN4dr SX3vr  1 3.650000e-01    1.910000e+00
 TN4dr SX2vr  1 3.660000e-01    1.600000e+00
 TN4dr SX1vr  1 3.780000e-01    1.450000e+00
 TN4dr SC6er  1 3.650000e-01    2.110000e+00
 TN4dr SC5er  1 3.650000e-01    1.910000e+00
 TN4dr SC4er  1 3.650000e-01    1.910000e+00
 TN4dr SC3er  1 3.650000e-01    1.750000e+00
 TN4dr SC2er  1 3.660000e-01    1.600000e+00
 TN4dr SC1er  1 3.780000e-01    1.450000e+00
 TN4dr SX4er  1 3.650000e-01    2.570000e+00
 TN4dr SX3er  1 3.650000e-01    2.340000e+00
 TN4dr SX2er  1 3.650000e-01    1.910000e+00
 TN4dr SX1er  1 3.650000e-01    1.750000e+00
 TN3dr SC6vr  1 3.650000e-01    1.750000e+00
 TN3dr SC5vr  1 3.660000e-01    1.600000e+00
 TN3dr SC4vr  1 3.660000e-01    1.600000e+00
 TN3dr SC3vr  1 3.780000e-01    1.450000e+00
 TN3dr SC2vr  1 3.780000e-01    1.450000e+00
 TN3dr SC1vr  1 3.940000e-01    1.290000e+00
 TN3dr SX4vr  1 3.650000e-01    1.910000e+00
 TN3dr SX3vr  1 3.650000e-01    1.750000e+00
 TN3dr SX2vr  1 3.660000e-01    1.600000e+00
 TN3dr SX1vr  1 3.660000e-01    1.600000e+00
 TN3dr SC6er  1 3.650000e-01    2.110000e+00
 TN3dr SC5er  1 3.650000e-01    1.910000e+00
 TN3dr SC4er  1 3.650000e-01    1.910000e+00
 TN3dr SC3er  1 3.650000e-01    1.750000e+00
 TN3dr SC2er  1 3.650000e-01    1.750000e+00
 TN3dr SC1er  1 3.660000e-01    1.600000e+00
 TN3dr SX4er  1 3.650000e-01    2.340000e+00
 TN3dr SX3er  1 3.650000e-01    2.110000e+00
 TN3dr SX2er  1 3.650000e-01    1.910000e+00
 TN3dr SX1er  1 3.650000e-01    1.910000e+00
 TN2dr SC6vr  1 3.650000e-01    1.750000e+00
 TN2dr SC5vr  1 3.660000e-01    1.600000e+00
 TN2dr SC4vr  1 3.660000e-01    1.600000e+00
 TN2dr SC3vr  1 3.660000e-01    1.600000e+00
 TN2dr SC2vr  1 3.780000e-01    1.450000e+00
 TN2dr SC1vr  1 3.940000e-01    1.290000e+00
 TN2dr SX4vr  1 3.650000e-01    1.910000e+00
 TN2dr SX3vr  1 3.650000e-01    1.750000e+00
 TN2dr SX2vr  1 3.660000e-01    1.600000e+00
 TN2dr SX1vr  1 3.660000e-01    1.600000e+00
 TN2dr SC6er  1 3.650000e-01    2.110000e+00
 TN2dr SC5er  1 3.650000e-01    1.910000e+00
 TN2dr SC4er  1 3.650000e-01    1.910000e+00
 TN2dr SC3er  1 3.650000e-01    1.910000e+00
 TN2dr SC2er  1 3.650000e-01    1.750000e+00
 TN2dr SC1er  1 3.660000e-01    1.600000e+00
 TN2dr SX4er  1 3.650000e-01    2.340000e+00
 TN2dr SX3er  1 3.650000e-01    2.110000e+00
 TN2dr SX2er  1 3.650000e-01    1.910000e+00
 TN2dr SX1er  1 3.650000e-01    1.910000e+00
 TN1dr SC6vr  1 3.650000e-01    1.910000e+00
 TN1dr SC5vr  1 3.650000e-01    1.750000e+00
 TN1dr SC4vr  1 3.650000e-01    1.750000e+00
 TN1dr SC3vr  1 3.660000e-01    1.600000e+00
 TN1dr SC2vr  1 3.780000e-01    1.450000e+00
 TN1dr SC1vr  1 3.940000e-01    1.290000e+00
 TN1dr SX4vr  1 3.650000e-01    1.750000e+00
 TN1dr SX3vr  1 3.650000e-01    1.750000e+00
 TN1dr SX2vr  1 3.660000e-01    1.600000e+00
 TN1dr SX1vr  1 3.660000e-01    1.600000e+00
 TN1dr SC6er  1 3.650000e-01    2.340000e+00
 TN1dr SC5er  1 3.650000e-01    2.110000e+00
 TN1dr SC4er  1 3.650000e-01    2.110000e+00
 TN1dr SC3er  1 3.650000e-01    1.910000e+00
 TN1dr SC2er  1 3.650000e-01    1.750000e+00
 TN1dr SC1er  1 3.660000e-01    1.600000e+00
 TN1dr SX4er  1 3.650000e-01    2.110000e+00
 TN1dr SX3er  1 3.650000e-01    2.110000e+00
 TN1dr SX2er  1 3.650000e-01    1.910000e+00
 TN1dr SX1er  1 3.650000e-01    1.910000e+00
 TP6ar SC6vr  1 3.660000e-01    1.600000e+00
 TP6ar SC5vr  1 3.780000e-01    1.450000e+00
 TP6ar SC4vr  1 3.940000e-01    1.290000e+00
 TP6ar SC3vr  1 4.040000e-01    1.130000e+00
 TP6ar SC2vr  1 4.040000e-01    1.130000e+00
 TP6ar SC1vr  1 4.230000e-01    9.810000e-01
 TP6ar SX4vr  1 3.650000e-01    1.750000e+00
 TP6ar SX3vr  1 3.650000e-01    1.750000e+00
 TP6ar SX2vr  1 3.660000e-01    1.600000e+00
 TP6ar SX1vr  1 3.780000e-01    1.450000e+00
 TP6ar SC6er  1 3.940000e-01    1.290000e+00
 TP6ar SC5er  1 4.040000e-01    1.130000e+00
 TP6ar SC4er  1 4.090000e-01    1.080000e+00
 TP6ar SC3er  1 4.230000e-01    9.810000e-01
 TP6ar SC2er  1 4.230000e-01    9.810000e-01
 TP6ar SC1er  1 5.370000e-01    8.080000e-01
 TP6ar SX4er  1 3.780000e-01    1.450000e+00
 TP6ar SX3er  1 3.780000e-01    1.450000e+00
 TP6ar SX2er  1 3.940000e-01    1.290000e+00
 TP6ar SX1er  1 4.040000e-01    1.130000e+00
 TP5ar SC6vr  1 3.660000e-01    1.600000e+00
 TP5ar SC5vr  1 3.660000e-01    1.600000e+00
 TP5ar SC4vr  1 3.780000e-01    1.450000e+00
 TP5ar SC3vr  1 3.940000e-01    1.290000e+00
 TP5ar SC2vr  1 3.940000e-01    1.290000e+00
 TP5ar SC1vr  1 4.040000e-01    1.130000e+00
 TP5ar SX4vr  1 3.650000e-01    1.910000e+00
 TP5ar SX3vr  1 3.650000e-01    1.750000e+00
 TP5ar SX2vr  1 3.650000e-01    1.750000e+00
 TP5ar SX1vr  1 3.780000e-01    1.450000e+00
 TP5ar SC6er  1 3.940000e-01    1.290000e+00
 TP5ar SC5er  1 3.940000e-01    1.290000e+00
 TP5ar SC4er  1 4.040000e-01    1.130000e+00
 TP5ar SC3er  1 4.090000e-01    1.080000e+00
 TP5ar SC2er  1 4.090000e-01    1.080000e+00
 TP5ar SC1er  1 4.230000e-01    9.810000e-01
 TP5ar SX4er  1 3.660000e-01    1.600000e+00
 TP5ar SX3er  1 3.780000e-01    1.450000e+00
 TP5ar SX2er  1 3.780000e-01    1.450000e+00
 TP5ar SX1er  1 4.040000e-01    1.130000e+00
 TP4ar SC6vr  1 3.650000e-01    1.750000e+00
 TP4ar SC5vr  1 3.660000e-01    1.600000e+00
 TP4ar SC4vr  1 3.780000e-01    1.450000e+00
 TP4ar SC3vr  1 3.940000e-01    1.290000e+00
 TP4ar SC2vr  1 3.940000e-01    1.290000e+00
 TP4ar SC1vr  1 4.040000e-01    1.130000e+00
 TP4ar SX4vr  1 3.650000e-01    1.910000e+00
 TP4ar SX3vr  1 3.650000e-01    1.750000e+00
 TP4ar SX2vr  1 3.650000e-01    1.750000e+00
 TP4ar SX1vr  1 3.660000e-01    1.600000e+00
 TP4ar SC6er  1 3.780000e-01    1.450000e+00
 TP4ar SC5er  1 3.940000e-01    1.290000e+00
 TP4ar SC4er  1 4.040000e-01    1.130000e+00
 TP4ar SC3er  1 4.090000e-01    1.080000e+00
 TP4ar SC2er  1 4.090000e-01    1.080000e+00
 TP4ar SC1er  1 4.230000e-01    9.810000e-01
 TP4ar SX4er  1 3.660000e-01    1.600000e+00
 TP4ar SX3er  1 3.780000e-01    1.450000e+00
 TP4ar SX2er  1 3.780000e-01    1.450000e+00
 TP4ar SX1er  1 3.940000e-01    1.290000e+00
 TP3ar SC6vr  1 3.650000e-01    1.910000e+00
 TP3ar SC5vr  1 3.650000e-01    1.750000e+00
 TP3ar SC4vr  1 3.660000e-01    1.600000e+00
 TP3ar SC3vr  1 3.940000e-01    1.290000e+00
 TP3ar SC2vr  1 3.940000e-01    1.290000e+00
 TP3ar SC1vr  1 4.040000e-01    1.130000e+00
 TP3ar SX4vr  1 3.650000e-01    1.910000e+00
 TP3ar SX3vr  1 3.650000e-01    1.910000e+00
 TP3ar SX2vr  1 3.650000e-01    1.750000e+00
 TP3ar SX1vr  1 3.660000e-01    1.600000e+00
 TP3ar SC6er  1 3.660000e-01    1.600000e+00
 TP3ar SC5er  1 3.780000e-01    1.450000e+00
 TP3ar SC4er  1 3.940000e-01    1.290000e+00
 TP3ar SC3er  1 4.090000e-01    1.080000e+00
 TP3ar SC2er  1 4.090000e-01    1.080000e+00
 TP3ar SC1er  1 4.230000e-01    9.810000e-01
 TP3ar SX4er  1 3.660000e-01    1.600000e+00
 TP3ar SX3er  1 3.660000e-01    1.600000e+00
 TP3ar SX2er  1 3.780000e-01    1.450000e+00
 TP3ar SX1er  1 3.940000e-01    1.290000e+00
 TP2ar SC6vr  1 3.650000e-01    1.910000e+00
 TP2ar SC5vr  1 3.650000e-01    1.750000e+00
 TP2ar SC4vr  1 3.660000e-01    1.600000e+00
 TP2ar SC3vr  1 3.780000e-01    1.450000e+00
 TP2ar SC2vr  1 3.780000e-01    1.450000e+00
 TP2ar SC1vr  1 3.940000e-01    1.290000e+00
 TP2ar SX4vr  1 3.650000e-01    1.910000e+00
 TP2ar SX3vr  1 3.650000e-01    1.910000e+00
 TP2ar SX2vr  1 3.650000e-01    1.750000e+00
 TP2ar SX1vr  1 3.660000e-01    1.600000e+00
 TP2ar SC6er  1 3.660000e-01    1.600000e+00
 TP2ar SC5er  1 3.780000e-01    1.450000e+00
 TP2ar SC4er  1 3.940000e-01    1.290000e+00
 TP2ar SC3er  1 4.040000e-01    1.130000e+00
 TP2ar SC2er  1 4.040000e-01    1.130000e+00
 TP2ar SC1er  1 4.090000e-01    1.080000e+00
 TP2ar SX4er  1 3.660000e-01    1.600000e+00
 TP2ar SX3er  1 3.660000e-01    1.600000e+00
 TP2ar SX2er  1 3.780000e-01    1.450000e+00
 TP2ar SX1er  1 3.940000e-01    1.290000e+00
 TP1ar SC6vr  1 3.650000e-01    1.910000e+00
 TP1ar SC5vr  1 3.650000e-01    1.750000e+00
 TP1ar SC4vr  1 3.660000e-01    1.600000e+00
 TP1ar SC3vr  1 3.780000e-01    1.450000e+00
 TP1ar SC2vr  1 3.780000e-01    1.450000e+00
 TP1ar SC1vr  1 3.940000e-01    1.290000e+00
 TP1ar SX4vr  1 3.650000e-01    1.910000e+00
 TP1ar SX3vr  1 3.650000e-01    1.910000e+00
 TP1ar SX2vr  1 3.650000e-01    1.750000e+00
 TP1ar SX1vr  1 3.660000e-01    1.600000e+00
 TP1ar SC6er  1 3.660000e-01    1.600000e+00
 TP1ar SC5er  1 3.780000e-01    1.450000e+00
 TP1ar SC4er  1 3.940000e-01    1.290000e+00
 TP1ar SC3er  1 4.040000e-01    1.130000e+00
 TP1ar SC2er  1 4.040000e-01    1.130000e+00
 TP1ar SC1er  1 4.090000e-01    1.080000e+00
 TP1ar SX4er  1 3.660000e-01    1.600000e+00
 TP1ar SX3er  1 3.660000e-01    1.600000e+00
 TP1ar SX2er  1 3.780000e-01    1.450000e+00
 TP1ar SX1er  1 3.940000e-01    1.290000e+00
 TN6ar SC6vr  1 3.650000e-01    2.110000e+00
 TN6ar SC5vr  1 3.650000e-01    1.910000e+00
 TN6ar SC4vr  1 3.650000e-01    1.750000e+00
 TN6ar SC3vr  1 3.660000e-01    1.600000e+00
 TN6ar SC2vr  1 3.660000e-01    1.600000e+00
 TN6ar SC1vr  1 3.780000e-01    1.450000e+00
 TN6ar SX4vr  1 3.650000e-01    2.110000e+00
 TN6ar SX3vr  1 3.650000e-01    1.910000e+00
 TN6ar SX2vr  1 3.650000e-01    1.750000e+00
 TN6ar SX1vr  1 3.660000e-01    1.600000e+00
 TN6ar SC6er  1 3.650000e-01    1.750000e+00
 TN6ar SC5er  1 3.660000e-01    1.600000e+00
 TN6ar SC4er  1 3.780000e-01    1.450000e+00
 TN6ar SC3er  1 3.940000e-01    1.290000e+00
 TN6ar SC2er  1 3.940000e-01    1.290000e+00
 TN6ar SC1er  1 4.040000e-01    1.130000e+00
 TN6ar SX4er  1 3.650000e-01    1.750000e+00
 TN6ar SX3er  1 3.660000e-01    1.600000e+00
 TN6ar SX2er  1 3.780000e-01    1.450000e+00
 TN6ar SX1er  1 3.940000e-01    1.290000e+00
 TN5ar SC6vr  1 3.650000e-01    2.110000e+00
 TN5ar SC5vr  1 3.650000e-01    1.910000e+00
 TN5ar SC4vr  1 3.650000e-01    1.750000e+00
 TN5ar SC3vr  1 3.650000e-01    1.750000e+00
 TN5ar SC2vr  1 3.660000e-01    1.600000e+00
 TN5ar SC1vr  1 3.780000e-01    1.450000e+00
 TN5ar SX4vr  1 3.650000e-01    2.340000e+00
 TN5ar SX3vr  1 3.650000e-01    2.110000e+00
 TN5ar SX2vr  1 3.650000e-01    1.910000e+00
 TN5ar SX1vr  1 3.650000e-01    1.750000e+00
 TN5ar SC6er  1 3.650000e-01    1.750000e+00
 TN5ar SC5er  1 3.660000e-01    1.600000e+00
 TN5ar SC4er  1 3.780000e-01    1.450000e+00
 TN5ar SC3er  1 3.780000e-01    1.450000e+00
 TN5ar SC2er  1 3.940000e-01    1.290000e+00
 TN5ar SC1er  1 4.040000e-01    1.130000e+00
 TN5ar SX4er  1 3.650000e-01    1.910000e+00
 TN5ar SX3er  1 3.650000e-01    1.750000e+00
 TN5ar SX2er  1 3.660000e-01    1.600000e+00
 TN5ar SX1er  1 3.780000e-01    1.450000e+00
 TN4ar SC6vr  1 3.650000e-01    2.110000e+00
 TN4ar SC5vr  1 3.650000e-01    1.910000e+00
 TN4ar SC4vr  1 3.650000e-01    1.910000e+00
 TN4ar SC3vr  1 3.650000e-01    1.750000e+00
 TN4ar SC2vr  1 3.660000e-01    1.600000e+00
 TN4ar SC1vr  1 3.780000e-01    1.450000e+00
 TN4ar SX4vr  1 3.650000e-01    2.570000e+00
 TN4ar SX3vr  1 3.650000e-01    2.340000e+00
 TN4ar SX2vr  1 3.650000e-01    1.910000e+00
 TN4ar SX1vr  1 3.650000e-01    1.750000e+00
 TN4ar SC6er  1 3.650000e-01    1.750000e+00
 TN4ar SC5er  1 3.660000e-01    1.600000e+00
 TN4ar SC4er  1 3.660000e-01    1.600000e+00
 TN4ar SC3er  1 3.780000e-01    1.450000e+00
 TN4ar SC2er  1 3.940000e-01    1.290000e+00
 TN4ar SC1er  1 4.040000e-01    1.130000e+00
 TN4ar SX4er  1 3.650000e-01    2.110000e+00
 TN4ar SX3er  1 3.650000e-01    1.910000e+00
 TN4ar SX2er  1 3.660000e-01    1.600000e+00
 TN4ar SX1er  1 3.780000e-01    1.450000e+00
 TN3ar SC6vr  1 3.650000e-01    2.110000e+00
 TN3ar SC5vr  1 3.650000e-01    1.910000e+00
 TN3ar SC4vr  1 3.650000e-01    1.910000e+00
 TN3ar SC3vr  1 3.650000e-01    1.750000e+00
 TN3ar SC2vr  1 3.650000e-01    1.750000e+00
 TN3ar SC1vr  1 3.660000e-01    1.600000e+00
 TN3ar SX4vr  1 3.650000e-01    2.340000e+00
 TN3ar SX3vr  1 3.650000e-01    2.110000e+00
 TN3ar SX2vr  1 3.650000e-01    1.910000e+00
 TN3ar SX1vr  1 3.650000e-01    1.910000e+00
 TN3ar SC6er  1 3.650000e-01    1.750000e+00
 TN3ar SC5er  1 3.660000e-01    1.600000e+00
 TN3ar SC4er  1 3.660000e-01    1.600000e+00
 TN3ar SC3er  1 3.780000e-01    1.450000e+00
 TN3ar SC2er  1 3.780000e-01    1.450000e+00
 TN3ar SC1er  1 3.940000e-01    1.290000e+00
 TN3ar SX4er  1 3.650000e-01    1.910000e+00
 TN3ar SX3er  1 3.650000e-01    1.750000e+00
 TN3ar SX2er  1 3.660000e-01    1.600000e+00
 TN3ar SX1er  1 3.660000e-01    1.600000e+00
 TN2ar SC6vr  1 3.650000e-01    2.110000e+00
 TN2ar SC5vr  1 3.650000e-01    1.910000e+00
 TN2ar SC4vr  1 3.650000e-01    1.910000e+00
 TN2ar SC3vr  1 3.650000e-01    1.910000e+00
 TN2ar SC2vr  1 3.650000e-01    1.750000e+00
 TN2ar SC1vr  1 3.660000e-01    1.600000e+00
 TN2ar SX4vr  1 3.650000e-01    2.340000e+00
 TN2ar SX3vr  1 3.650000e-01    2.110000e+00
 TN2ar SX2vr  1 3.650000e-01    1.910000e+00
 TN2ar SX1vr  1 3.650000e-01    1.910000e+00
 TN2ar SC6er  1 3.650000e-01    1.750000e+00
 TN2ar SC5er  1 3.660000e-01    1.600000e+00
 TN2ar SC4er  1 3.660000e-01    1.600000e+00
 TN2ar SC3er  1 3.660000e-01    1.600000e+00
 TN2ar SC2er  1 3.780000e-01    1.450000e+00
 TN2ar SC1er  1 3.940000e-01    1.290000e+00
 TN2ar SX4er  1 3.650000e-01    1.910000e+00
 TN2ar SX3er  1 3.650000e-01    1.750000e+00
 TN2ar SX2er  1 3.660000e-01    1.600000e+00
 TN2ar SX1er  1 3.660000e-01    1.600000e+00
 TN1ar SC6vr  1 3.650000e-01    2.340000e+00
 TN1ar SC5vr  1 3.650000e-01    2.110000e+00
 TN1ar SC4vr  1 3.650000e-01    2.110000e+00
 TN1ar SC3vr  1 3.650000e-01    1.910000e+00
 TN1ar SC2vr  1 3.650000e-01    1.750000e+00
 TN1ar SC1vr  1 3.660000e-01    1.600000e+00
 TN1ar SX4vr  1 3.650000e-01    2.110000e+00
 TN1ar SX3vr  1 3.650000e-01    2.110000e+00
 TN1ar SX2vr  1 3.650000e-01    1.910000e+00
 TN1ar SX1vr  1 3.650000e-01    1.910000e+00
 TN1ar SC6er  1 3.650000e-01    1.910000e+00
 TN1ar SC5er  1 3.650000e-01    1.750000e+00
 TN1ar SC4er  1 3.650000e-01    1.750000e+00
 TN1ar SC3er  1 3.660000e-01    1.600000e+00
 TN1ar SC2er  1 3.780000e-01    1.450000e+00
 TN1ar SC1er  1 3.940000e-01    1.290000e+00
 TN1ar SX4er  1 3.650000e-01    1.750000e+00
 TN1ar SX3er  1 3.650000e-01    1.750000e+00
 TN1ar SX2er  1 3.660000e-01    1.600000e+00
 TN1ar SX1er  1 3.660000e-01    1.600000e+00
  TP6h  SP5h  1 3.650000e-01    3.930000e+00
  TP6h  SP4h  1 3.650000e-01    3.640000e+00
  TP6h  SP3h  1 3.650000e-01    3.370000e+00
  TP6h  SP2h  1 3.650000e-01    3.370000e+00
  TP6h  SP1h  1 3.650000e-01    3.100000e+00
  TP6h  SN6h  1 3.650000e-01    2.830000e+00
  TP6h  SN5h  1 3.650000e-01    2.340000e+00
  TP6h  SN4h  1 3.650000e-01    2.110000e+00
  TP6h  SN3h  1 3.650000e-01    1.910000e+00
  TP6h  SN2h  1 3.650000e-01    1.750000e+00
  TP6h  SN1h  1 3.660000e-01    1.600000e+00
  TP5h  SP4h  1 3.650000e-01    3.370000e+00
  TP5h  SP3h  1 3.650000e-01    3.100000e+00
  TP5h  SP2h  1 3.650000e-01    3.100000e+00
  TP5h  SP1h  1 3.650000e-01    2.830000e+00
  TP5h  SN6h  1 3.650000e-01    2.570000e+00
  TP5h  SN5h  1 3.650000e-01    2.340000e+00
  TP5h  SN4h  1 3.650000e-01    2.340000e+00
  TP5h  SN3h  1 3.650000e-01    1.910000e+00
  TP5h  SN2h  1 3.650000e-01    1.750000e+00
  TP5h  SN1h  1 3.660000e-01    1.600000e+00
  TP4h  SP3h  1 3.650000e-01    3.100000e+00
  TP4h  SP2h  1 3.650000e-01    3.100000e+00
  TP4h  SP1h  1 3.650000e-01    2.830000e+00
  TP4h  SN6h  1 3.650000e-01    2.570000e+00
  TP4h  SN5h  1 3.650000e-01    2.340000e+00
  TP4h  SN4h  1 3.650000e-01    2.340000e+00
  TP4h  SN3h  1 3.650000e-01    2.110000e+00
  TP4h  SN2h  1 3.650000e-01    1.910000e+00
  TP4h  SN1h  1 3.650000e-01    1.750000e+00
  TP3h  SP2h  1 3.650000e-01    3.100000e+00
  TP3h  SP1h  1 3.650000e-01    2.830000e+00
  TP3h  SN6h  1 3.650000e-01    2.570000e+00
  TP3h  SN5h  1 3.650000e-01    2.340000e+00
  TP3h  SN4h  1 3.650000e-01    2.340000e+00
  TP3h  SN3h  1 3.650000e-01    2.110000e+00
  TP3h  SN2h  1 3.650000e-01    2.110000e+00
  TP3h  SN1h  1 3.650000e-01    1.910000e+00
  TP2h  SP1h  1 3.650000e-01    2.830000e+00
  TP2h  SN6h  1 3.650000e-01    2.830000e+00
  TP2h  SN5h  1 3.650000e-01    2.570000e+00
  TP2h  SN4h  1 3.650000e-01    2.340000e+00
  TP2h  SN3h  1 3.650000e-01    2.110000e+00
  TP2h  SN2h  1 3.650000e-01    2.110000e+00
  TP2h  SN1h  1 3.650000e-01    2.110000e+00
  TP1h  SN6h  1 3.650000e-01    2.830000e+00
  TP1h  SN5h  1 3.650000e-01    2.570000e+00
  TP1h  SN4h  1 3.650000e-01    2.570000e+00
  TP1h  SN3h  1 3.650000e-01    2.110000e+00
  TP1h  SN2h  1 3.650000e-01    2.110000e+00
  TP1h  SN1h  1 3.650000e-01    2.110000e+00
  TN6h  SN5h  1 3.650000e-01    2.830000e+00
  TN6h  SN4h  1 3.650000e-01    2.830000e+00
  TN6h  SN3h  1 3.650000e-01    2.340000e+00
  TN6h  SN2h  1 3.650000e-01    2.110000e+00
  TN6h  SN1h  1 3.650000e-01    2.110000e+00
  TN5h  SN4h  1 3.650000e-01    2.570000e+00
  TN5h  SN3h  1 3.650000e-01    2.340000e+00
  TN5h  SN2h  1 3.650000e-01    2.340000e+00
  TN5h  SN1h  1 3.650000e-01    2.110000e+00
  TN4h  SN3h  1 3.650000e-01    2.340000e+00
  TN4h  SN2h  1 3.650000e-01    2.340000e+00
  TN4h  SN1h  1 3.650000e-01    2.110000e+00
  TN3h  SN2h  1 3.650000e-01    2.340000e+00
  TN3h  SN1h  1 3.650000e-01    2.110000e+00
  TN2h  SN1h  1 3.650000e-01    2.110000e+00
 TP6dh SP5dh  1 3.650000e-01    3.640000e+00
 TP6dh SP4dh  1 3.650000e-01    3.370000e+00
 TP6dh SP3dh  1 3.650000e-01    3.100000e+00
 TP6dh SP2dh  1 3.650000e-01    3.100000e+00
 TP6dh SP1dh  1 3.650000e-01    2.830000e+00
 TP6dh SN6dh  1 3.650000e-01    2.570000e+00
 TP6dh SN5dh  1 3.650000e-01    2.110000e+00
 TP6dh SN4dh  1 3.650000e-01    1.910000e+00
 TP6dh SN3dh  1 3.650000e-01    1.910000e+00
 TP6dh SN2dh  1 3.650000e-01    1.750000e+00
 TP6dh SN1dh  1 3.660000e-01    1.600000e+00
 TP6dh SP6ah  1 3.650000e-01    4.510000e+00
 TP6dh SP5ah  1 3.650000e-01    4.220000e+00
 TP6dh SP4ah  1 3.650000e-01    3.930000e+00
 TP6dh SP3ah  1 3.650000e-01    3.640000e+00
 TP6dh SP2ah  1 3.650000e-01    3.640000e+00
 TP6dh SP1ah  1 3.650000e-01    3.370000e+00
 TP6dh SN6ah  1 3.650000e-01    3.100000e+00
 TP6dh SN5ah  1 3.650000e-01    2.570000e+00
 TP6dh SN4ah  1 3.650000e-01    2.340000e+00
 TP6dh SN3ah  1 3.650000e-01    1.910000e+00
 TP6dh SN2ah  1 3.650000e-01    1.750000e+00
 TP6dh SN1ah  1 3.660000e-01    1.600000e+00
 TP5dh SP4dh  1 3.650000e-01    3.100000e+00
 TP5dh SP3dh  1 3.650000e-01    2.830000e+00
 TP5dh SP2dh  1 3.650000e-01    2.830000e+00
 TP5dh SP1dh  1 3.650000e-01    2.570000e+00
 TP5dh SN6dh  1 3.650000e-01    2.340000e+00
 TP5dh SN5dh  1 3.650000e-01    2.110000e+00
 TP5dh SN4dh  1 3.650000e-01    2.110000e+00
 TP5dh SN3dh  1 3.650000e-01    1.910000e+00
 TP5dh SN2dh  1 3.650000e-01    1.750000e+00
 TP5dh SN1dh  1 3.660000e-01    1.600000e+00
 TP5dh SP5ah  1 3.650000e-01    3.930000e+00
 TP5dh SP4ah  1 3.650000e-01    3.640000e+00
 TP5dh SP3ah  1 3.650000e-01    3.370000e+00
 TP5dh SP2ah  1 3.650000e-01    3.370000e+00
 TP5dh SP1ah  1 3.650000e-01    3.100000e+00
 TP5dh SN6ah  1 3.650000e-01    2.830000e+00
 TP5dh SN5ah  1 3.650000e-01    2.570000e+00
 TP5dh SN4ah  1 3.650000e-01    2.570000e+00
 TP5dh SN3ah  1 3.650000e-01    1.910000e+00
 TP5dh SN2ah  1 3.650000e-01    1.750000e+00
 TP5dh SN1ah  1 3.660000e-01    1.600000e+00
 TP4dh SP3dh  1 3.650000e-01    2.830000e+00
 TP4dh SP2dh  1 3.650000e-01    2.830000e+00
 TP4dh SP1dh  1 3.650000e-01    2.570000e+00
 TP4dh SN6dh  1 3.650000e-01    2.340000e+00
 TP4dh SN5dh  1 3.650000e-01    2.110000e+00
 TP4dh SN4dh  1 3.650000e-01    2.110000e+00
 TP4dh SN3dh  1 3.650000e-01    1.910000e+00
 TP4dh SN2dh  1 3.650000e-01    1.910000e+00
 TP4dh SN1dh  1 3.650000e-01    1.750000e+00
 TP4dh SP4ah  1 3.650000e-01    3.640000e+00
 TP4dh SP3ah  1 3.650000e-01    3.370000e+00
 TP4dh SP2ah  1 3.650000e-01    3.370000e+00
 TP4dh SP1ah  1 3.650000e-01    3.100000e+00
 TP4dh SN6ah  1 3.650000e-01    2.830000e+00
 TP4dh SN5ah  1 3.650000e-01    2.570000e+00
 TP4dh SN4ah  1 3.650000e-01    2.570000e+00
 TP4dh SN3ah  1 3.650000e-01    2.340000e+00
 TP4dh SN2ah  1 3.650000e-01    1.910000e+00
 TP4dh SN1ah  1 3.650000e-01    1.750000e+00
 TP3dh SP2dh  1 3.650000e-01    2.830000e+00
 TP3dh SP1dh  1 3.650000e-01    2.570000e+00
 TP3dh SN6dh  1 3.650000e-01    2.340000e+00
 TP3dh SN5dh  1 3.650000e-01    2.110000e+00
 TP3dh SN4dh  1 3.650000e-01    2.110000e+00
 TP3dh SN3dh  1 3.650000e-01    1.910000e+00
 TP3dh SN2dh  1 3.650000e-01    1.910000e+00
 TP3dh SN1dh  1 3.650000e-01    1.910000e+00
 TP3dh SP3ah  1 3.650000e-01    3.370000e+00
 TP3dh SP2ah  1 3.650000e-01    3.370000e+00
 TP3dh SP1ah  1 3.650000e-01    3.100000e+00
 TP3dh SN6ah  1 3.650000e-01    2.830000e+00
 TP3dh SN5ah  1 3.650000e-01    2.570000e+00
 TP3dh SN4ah  1 3.650000e-01    2.570000e+00
 TP3dh SN3ah  1 3.650000e-01    2.340000e+00
 TP3dh SN2ah  1 3.650000e-01    2.340000e+00
 TP3dh SN1ah  1 3.650000e-01    1.910000e+00
 TP2dh SP1dh  1 3.650000e-01    2.570000e+00
 TP2dh SN6dh  1 3.650000e-01    2.570000e+00
 TP2dh SN5dh  1 3.650000e-01    2.340000e+00
 TP2dh SN4dh  1 3.650000e-01    2.110000e+00
 TP2dh SN3dh  1 3.650000e-01    1.910000e+00
 TP2dh SN2dh  1 3.650000e-01    1.910000e+00
 TP2dh SN1dh  1 3.650000e-01    1.910000e+00
 TP2dh SP2ah  1 3.650000e-01    3.370000e+00
 TP2dh SP1ah  1 3.650000e-01    3.100000e+00
 TP2dh SN6ah  1 3.650000e-01    3.100000e+00
 TP2dh SN5ah  1 3.650000e-01    2.830000e+00
 TP2dh SN4ah  1 3.650000e-01    2.570000e+00
 TP2dh SN3ah  1 3.650000e-01    2.340000e+00
 TP2dh SN2ah  1 3.650000e-01    2.340000e+00
 TP2dh SN1ah  1 3.650000e-01    2.340000e+00
 TP1dh SN6dh  1 3.650000e-01    2.570000e+00
 TP1dh SN5dh  1 3.650000e-01    2.340000e+00
 TP1dh SN4dh  1 3.650000e-01    2.340000e+00
 TP1dh SN3dh  1 3.650000e-01    1.910000e+00
 TP1dh SN2dh  1 3.650000e-01    1.910000e+00
 TP1dh SN1dh  1 3.650000e-01    1.910000e+00
 TP1dh SP1ah  1 3.650000e-01    3.100000e+00
 TP1dh SN6ah  1 3.650000e-01    3.100000e+00
 TP1dh SN5ah  1 3.650000e-01    2.830000e+00
 TP1dh SN4ah  1 3.650000e-01    2.830000e+00
 TP1dh SN3ah  1 3.650000e-01    2.340000e+00
 TP1dh SN2ah  1 3.650000e-01    2.340000e+00
 TP1dh SN1ah  1 3.650000e-01    2.340000e+00
 TN6dh SN5dh  1 3.650000e-01    2.570000e+00
 TN6dh SN4dh  1 3.650000e-01    2.570000e+00
 TN6dh SN3dh  1 3.650000e-01    2.110000e+00
 TN6dh SN2dh  1 3.650000e-01    1.910000e+00
 TN6dh SN1dh  1 3.650000e-01    1.910000e+00
 TN6dh SN6ah  1 3.650000e-01    3.100000e+00
 TN6dh SN5ah  1 3.650000e-01    3.100000e+00
 TN6dh SN4ah  1 3.650000e-01    3.100000e+00
 TN6dh SN3ah  1 3.650000e-01    2.570000e+00
 TN6dh SN2ah  1 3.650000e-01    2.340000e+00
 TN6dh SN1ah  1 3.650000e-01    2.340000e+00
 TN5dh SN4dh  1 3.650000e-01    2.340000e+00
 TN5dh SN3dh  1 3.650000e-01    2.110000e+00
 TN5dh SN2dh  1 3.650000e-01    2.110000e+00
 TN5dh SN1dh  1 3.650000e-01    1.910000e+00
 TN5dh SN5ah  1 3.650000e-01    2.830000e+00
 TN5dh SN4ah  1 3.650000e-01    2.830000e+00
 TN5dh SN3ah  1 3.650000e-01    2.570000e+00
 TN5dh SN2ah  1 3.650000e-01    2.570000e+00
 TN5dh SN1ah  1 3.650000e-01    2.340000e+00
 TN4dh SN3dh  1 3.650000e-01    2.110000e+00
 TN4dh SN2dh  1 3.650000e-01    2.110000e+00
 TN4dh SN1dh  1 3.650000e-01    1.910000e+00
 TN4dh SN4ah  1 3.650000e-01    2.830000e+00
 TN4dh SN3ah  1 3.650000e-01    2.570000e+00
 TN4dh SN2ah  1 3.650000e-01    2.570000e+00
 TN4dh SN1ah  1 3.650000e-01    2.340000e+00
 TN3dh SN2dh  1 3.650000e-01    2.110000e+00
 TN3dh SN1dh  1 3.650000e-01    1.910000e+00
 TN3dh SN3ah  1 3.650000e-01    2.570000e+00
 TN3dh SN2ah  1 3.650000e-01    2.570000e+00
 TN3dh SN1ah  1 3.650000e-01    2.340000e+00
 TN2dh SN1dh  1 3.650000e-01    1.910000e+00
 TN2dh SN2ah  1 3.650000e-01    2.570000e+00
 TN2dh SN1ah  1 3.650000e-01    2.340000e+00
 TN1dh SN1ah  1 3.650000e-01    2.570000e+00
 TP6ah SP5dh  1 3.650000e-01    4.220000e+00
 TP6ah SP4dh  1 3.650000e-01    3.930000e+00
 TP6ah SP3dh  1 3.650000e-01    3.640000e+00
 TP6ah SP2dh  1 3.650000e-01    3.640000e+00
 TP6ah SP1dh  1 3.650000e-01    3.370000e+00
 TP6ah SN6dh  1 3.650000e-01    3.100000e+00
 TP6ah SN5dh  1 3.650000e-01    2.570000e+00
 TP6ah SN4dh  1 3.650000e-01    2.340000e+00
 TP6ah SN3dh  1 3.650000e-01    1.910000e+00
 TP6ah SN2dh  1 3.650000e-01    1.750000e+00
 TP6ah SN1dh  1 3.660000e-01    1.600000e+00
 TP6ah SP5ah  1 3.650000e-01    3.640000e+00
 TP6ah SP4ah  1 3.650000e-01    3.370000e+00
 TP6ah SP3ah  1 3.650000e-01    3.100000e+00
 TP6ah SP2ah  1 3.650000e-01    3.100000e+00
 TP6ah SP1ah  1 3.650000e-01    2.830000e+00
 TP6ah SN6ah  1 3.650000e-01    2.570000e+00
 TP6ah SN5ah  1 3.650000e-01    2.110000e+00
 TP6ah SN4ah  1 3.650000e-01    1.910000e+00
 TP6ah SN3ah  1 3.650000e-01    1.910000e+00
 TP6ah SN2ah  1 3.650000e-01    1.750000e+00
 TP6ah SN1ah  1 3.660000e-01    1.600000e+00
 TP5ah SP4dh  1 3.650000e-01    3.640000e+00
 TP5ah SP3dh  1 3.650000e-01    3.370000e+00
 TP5ah SP2dh  1 3.650000e-01    3.370000e+00
 TP5ah SP1dh  1 3.650000e-01    3.100000e+00
 TP5ah SN6dh  1 3.650000e-01    2.830000e+00
 TP5ah SN5dh  1 3.650000e-01    2.570000e+00
 TP5ah SN4dh  1 3.650000e-01    2.570000e+00
 TP5ah SN3dh  1 3.650000e-01    1.910000e+00
 TP5ah SN2dh  1 3.650000e-01    1.750000e+00
 TP5ah SN1dh  1 3.660000e-01    1.600000e+00
 TP5ah SP4ah  1 3.650000e-01    3.100000e+00
 TP5ah SP3ah  1 3.650000e-01    2.830000e+00
 TP5ah SP2ah  1 3.650000e-01    2.830000e+00
 TP5ah SP1ah  1 3.650000e-01    2.570000e+00
 TP5ah SN6ah  1 3.650000e-01    2.340000e+00
 TP5ah SN5ah  1 3.650000e-01    2.110000e+00
 TP5ah SN4ah  1 3.650000e-01    2.110000e+00
 TP5ah SN3ah  1 3.650000e-01    1.910000e+00
 TP5ah SN2ah  1 3.650000e-01    1.750000e+00
 TP5ah SN1ah  1 3.660000e-01    1.600000e+00
 TP4ah SP3dh  1 3.650000e-01    3.370000e+00
 TP4ah SP2dh  1 3.650000e-01    3.370000e+00
 TP4ah SP1dh  1 3.650000e-01    3.100000e+00
 TP4ah SN6dh  1 3.650000e-01    2.830000e+00
 TP4ah SN5dh  1 3.650000e-01    2.570000e+00
 TP4ah SN4dh  1 3.650000e-01    2.570000e+00
 TP4ah SN3dh  1 3.650000e-01    2.340000e+00
 TP4ah SN2dh  1 3.650000e-01    1.910000e+00
 TP4ah SN1dh  1 3.650000e-01    1.750000e+00
 TP4ah SP3ah  1 3.650000e-01    2.830000e+00
 TP4ah SP2ah  1 3.650000e-01    2.830000e+00
 TP4ah SP1ah  1 3.650000e-01    2.570000e+00
 TP4ah SN6ah  1 3.650000e-01    2.340000e+00
 TP4ah SN5ah  1 3.650000e-01    2.110000e+00
 TP4ah SN4ah  1 3.650000e-01    2.110000e+00
 TP4ah SN3ah  1 3.650000e-01    1.910000e+00
 TP4ah SN2ah  1 3.650000e-01    1.910000e+00
 TP4ah SN1ah  1 3.650000e-01    1.750000e+00
 TP3ah SP2dh  1 3.650000e-01    3.370000e+00
 TP3ah SP1dh  1 3.650000e-01    3.100000e+00
 TP3ah SN6dh  1 3.650000e-01    2.830000e+00
 TP3ah SN5dh  1 3.650000e-01    2.570000e+00
 TP3ah SN4dh  1 3.650000e-01    2.570000e+00
 TP3ah SN3dh  1 3.650000e-01    2.340000e+00
 TP3ah SN2dh  1 3.650000e-01    2.340000e+00
 TP3ah SN1dh  1 3.650000e-01    1.910000e+00
 TP3ah SP2ah  1 3.650000e-01    2.830000e+00
 TP3ah SP1ah  1 3.650000e-01    2.570000e+00
 TP3ah SN6ah  1 3.650000e-01    2.340000e+00
 TP3ah SN5ah  1 3.650000e-01    2.110000e+00
 TP3ah SN4ah  1 3.650000e-01    2.110000e+00
 TP3ah SN3ah  1 3.650000e-01    1.910000e+00
 TP3ah SN2ah  1 3.650000e-01    1.910000e+00
 TP3ah SN1ah  1 3.650000e-01    1.910000e+00
 TP2ah SP1dh  1 3.650000e-01    3.100000e+00
 TP2ah SN6dh  1 3.650000e-01    3.100000e+00
 TP2ah SN5dh  1 3.650000e-01    2.830000e+00
 TP2ah SN4dh  1 3.650000e-01    2.570000e+00
 TP2ah SN3dh  1 3.650000e-01    2.340000e+00
 TP2ah SN2dh  1 3.650000e-01    2.340000e+00
 TP2ah SN1dh  1 3.650000e-01    2.340000e+00
 TP2ah SP1ah  1 3.650000e-01    2.570000e+00
 TP2ah SN6ah  1 3.650000e-01    2.570000e+00
 TP2ah SN5ah  1 3.650000e-01    2.340000e+00
 TP2ah SN4ah  1 3.650000e-01    2.110000e+00
 TP2ah SN3ah  1 3.650000e-01    1.910000e+00
 TP2ah SN2ah  1 3.650000e-01    1.910000e+00
 TP2ah SN1ah  1 3.650000e-01    1.910000e+00
 TP1ah SN6dh  1 3.650000e-01    3.100000e+00
 TP1ah SN5dh  1 3.650000e-01    2.830000e+00
 TP1ah SN4dh  1 3.650000e-01    2.830000e+00
 TP1ah SN3dh  1 3.650000e-01    2.340000e+00
 TP1ah SN2dh  1 3.650000e-01    2.340000e+00
 TP1ah SN1dh  1 3.650000e-01    2.340000e+00
 TP1ah SN6ah  1 3.650000e-01    2.570000e+00
 TP1ah SN5ah  1 3.650000e-01    2.340000e+00
 TP1ah SN4ah  1 3.650000e-01    2.340000e+00
 TP1ah SN3ah  1 3.650000e-01    1.910000e+00
 TP1ah SN2ah  1 3.650000e-01    1.910000e+00
 TP1ah SN1ah  1 3.650000e-01    1.910000e+00
 TN6ah SN5dh  1 3.650000e-01    3.100000e+00
 TN6ah SN4dh  1 3.650000e-01    3.100000e+00
 TN6ah SN3dh  1 3.650000e-01    2.570000e+00
 TN6ah SN2dh  1 3.650000e-01    2.340000e+00
 TN6ah SN1dh  1 3.650000e-01    2.340000e+00
 TN6ah SN5ah  1 3.650000e-01    2.570000e+00
 TN6ah SN4ah  1 3.650000e-01    2.570000e+00
 TN6ah SN3ah  1 3.650000e-01    2.110000e+00
 TN6ah SN2ah  1 3.650000e-01    1.910000e+00
 TN6ah SN1ah  1 3.650000e-01    1.910000e+00
 TN5ah SN4dh  1 3.650000e-01    2.830000e+00
 TN5ah SN3dh  1 3.650000e-01    2.570000e+00
 TN5ah SN2dh  1 3.650000e-01    2.570000e+00
 TN5ah SN1dh  1 3.650000e-01    2.340000e+00
 TN5ah SN4ah  1 3.650000e-01    2.340000e+00
 TN5ah SN3ah  1 3.650000e-01    2.110000e+00
 TN5ah SN2ah  1 3.650000e-01    2.110000e+00
 TN5ah SN1ah  1 3.650000e-01    1.910000e+00
 TN4ah SN3dh  1 3.650000e-01    2.570000e+00
 TN4ah SN2dh  1 3.650000e-01    2.570000e+00
 TN4ah SN1dh  1 3.650000e-01    2.340000e+00
 TN4ah SN3ah  1 3.650000e-01    2.110000e+00
 TN4ah SN2ah  1 3.650000e-01    2.110000e+00
 TN4ah SN1ah  1 3.650000e-01    1.910000e+00
 TN3ah SN2dh  1 3.650000e-01    2.570000e+00
 TN3ah SN1dh  1 3.650000e-01    2.340000e+00
 TN3ah SN2ah  1 3.650000e-01    2.110000e+00
 TN3ah SN1ah  1 3.650000e-01    1.910000e+00
 TN2ah SN1dh  1 3.650000e-01    2.340000e+00
 TN2ah SN1ah  1 3.650000e-01    1.910000e+00
  TC6h  SC5h  1 3.650000e-01    2.110000e+00
  TC6h  SC4h  1 3.650000e-01    2.110000e+00
  TC6h  SC3h  1 3.650000e-01    1.910000e+00
  TC6h  SC2h  1 3.650000e-01    1.750000e+00
  TC6h  SC1h  1 3.660000e-01    1.600000e+00
  TC6h  SX4h  1 3.650000e-01    2.110000e+00
  TC6h  SX3h  1 3.650000e-01    2.110000e+00
  TC6h  SX2h  1 3.650000e-01    2.110000e+00
  TC6h  SX1h  1 3.650000e-01    2.110000e+00
  TC5h  SC4h  1 3.650000e-01    2.110000e+00
  TC5h  SC3h  1 3.650000e-01    1.910000e+00
  TC5h  SC2h  1 3.650000e-01    1.750000e+00
  TC5h  SC1h  1 3.650000e-01    1.750000e+00
  TC5h  SX4h  1 3.650000e-01    1.910000e+00
  TC5h  SX3h  1 3.650000e-01    1.910000e+00
  TC5h  SX2h  1 3.650000e-01    1.910000e+00
  TC5h  SX1h  1 3.650000e-01    2.110000e+00
  TC4h  SC3h  1 3.650000e-01    2.110000e+00
  TC4h  SC2h  1 3.650000e-01    1.910000e+00
  TC4h  SC1h  1 3.650000e-01    1.750000e+00
  TC4h  SX4h  1 3.650000e-01    1.910000e+00
  TC4h  SX3h  1 3.650000e-01    1.910000e+00
  TC4h  SX2h  1 3.650000e-01    1.910000e+00
  TC4h  SX1h  1 3.650000e-01    2.110000e+00
  TC3h  SC2h  1 3.650000e-01    2.110000e+00
  TC3h  SC1h  1 3.650000e-01    2.110000e+00
  TC3h  SX4h  1 3.650000e-01    1.910000e+00
  TC3h  SX3h  1 3.650000e-01    1.910000e+00
  TC3h  SX2h  1 3.650000e-01    1.910000e+00
  TC3h  SX1h  1 3.650000e-01    2.110000e+00
  TC2h  SC1h  1 3.650000e-01    2.340000e+00
  TC2h  SX4h  1 3.660000e-01    1.600000e+00
  TC2h  SX3h  1 3.650000e-01    1.910000e+00
  TC2h  SX2h  1 3.650000e-01    1.910000e+00
  TC2h  SX1h  1 3.650000e-01    1.910000e+00
  TC1h  SX4h  1 3.660000e-01    1.600000e+00
  TC1h  SX3h  1 3.650000e-01    1.910000e+00
  TC1h  SX2h  1 3.650000e-01    1.910000e+00
  TC1h  SX1h  1 3.650000e-01    1.910000e+00
  TX4h  SX3h  1 3.650000e-01    2.110000e+00
  TX4h  SX2h  1 3.650000e-01    2.110000e+00
  TX4h  SX1h  1 3.650000e-01    2.110000e+00
  TX3h  SX2h  1 3.650000e-01    2.340000e+00
  TX3h  SX1h  1 3.650000e-01    2.340000e+00
  TX2h  SX1h  1 3.650000e-01    2.340000e+00
 TC6vh SC5vh  1 3.650000e-01    1.910000e+00
 TC6vh SC4vh  1 3.650000e-01    1.910000e+00
 TC6vh SC3vh  1 3.650000e-01    1.750000e+00
 TC6vh SC2vh  1 3.660000e-01    1.600000e+00
 TC6vh SC1vh  1 3.780000e-01    1.450000e+00
 TC6vh SX4vh  1 3.650000e-01    1.910000e+00
 TC6vh SX3vh  1 3.650000e-01    1.910000e+00
 TC6vh SX2vh  1 3.650000e-01    1.910000e+00
 TC6vh SX1vh  1 3.650000e-01    1.910000e+00
 TC6vh SC6eh  1 3.650000e-01    2.830000e+00
 TC6vh SC5eh  1 3.650000e-01    2.570000e+00
 TC6vh SC4eh  1 3.650000e-01    2.570000e+00
 TC6vh SC3eh  1 3.650000e-01    2.340000e+00
 TC6vh SC2eh  1 3.650000e-01    2.110000e+00
 TC6vh SC1eh  1 3.650000e-01    1.910000e+00
 TC6vh SX4eh  1 3.650000e-01    2.570000e+00
 TC6vh SX3eh  1 3.650000e-01    2.570000e+00
 TC6vh SX2eh  1 3.650000e-01    2.570000e+00
 TC6vh SX1eh  1 3.650000e-01    2.570000e+00
 TC5vh SC4vh  1 3.650000e-01    1.910000e+00
 TC5vh SC3vh  1 3.650000e-01    1.750000e+00
 TC5vh SC2vh  1 3.660000e-01    1.600000e+00
 TC5vh SC1vh  1 3.660000e-01    1.600000e+00
 TC5vh SX4vh  1 3.650000e-01    1.750000e+00
 TC5vh SX3vh  1 3.650000e-01    1.750000e+00
 TC5vh SX2vh  1 3.650000e-01    1.750000e+00
 TC5vh SX1vh  1 3.650000e-01    1.910000e+00
 TC5vh SC5eh  1 3.650000e-01    2.570000e+00
 TC5vh SC4eh  1 3.650000e-01    2.570000e+00
 TC5vh SC3eh  1 3.650000e-01    2.340000e+00
 TC5vh SC2eh  1 3.650000e-01    2.110000e+00
 TC5vh SC1eh  1 3.650000e-01    2.110000e+00
 TC5vh SX4eh  1 3.650000e-01    2.340000e+00
 TC5vh SX3eh  1 3.650000e-01    2.340000e+00
 TC5vh SX2eh  1 3.650000e-01    2.340000e+00
 TC5vh SX1eh  1 3.650000e-01    2.570000e+00
 TC4vh SC3vh  1 3.650000e-01    1.910000e+00
 TC4vh SC2vh  1 3.650000e-01    1.750000e+00
 TC4vh SC1vh  1 3.660000e-01    1.600000e+00
 TC4vh SX4vh  1 3.650000e-01    1.750000e+00
 TC4vh SX3vh  1 3.650000e-01    1.750000e+00
 TC4vh SX2vh  1 3.650000e-01    1.750000e+00
 TC4vh SX1vh  1 3.650000e-01    1.910000e+00
 TC4vh SC4eh  1 3.650000e-01    2.570000e+00
 TC4vh SC3eh  1 3.650000e-01    2.570000e+00
 TC4vh SC2eh  1 3.650000e-01    2.340000e+00
 TC4vh SC1eh  1 3.650000e-01    2.110000e+00
 TC4vh SX4eh  1 3.650000e-01    2.340000e+00
 TC4vh SX3eh  1 3.650000e-01    2.340000e+00
 TC4vh SX2eh  1 3.650000e-01    2.340000e+00
 TC4vh SX1eh  1 3.650000e-01    2.570000e+00
 TC3vh SC2vh  1 3.650000e-01    1.910000e+00
 TC3vh SC1vh  1 3.650000e-01    1.910000e+00
 TC3vh SX4vh  1 3.650000e-01    1.750000e+00
 TC3vh SX3vh  1 3.650000e-01    1.750000e+00
 TC3vh SX2vh  1 3.650000e-01    1.750000e+00
 TC3vh SX1vh  1 3.650000e-01    1.910000e+00
 TC3vh SC3eh  1 3.650000e-01    2.570000e+00
 TC3vh SC2eh  1 3.650000e-01    2.570000e+00
 TC3vh SC1eh  1 3.650000e-01    2.570000e+00
 TC3vh SX4eh  1 3.650000e-01    2.340000e+00
 TC3vh SX3eh  1 3.650000e-01    2.340000e+00
 TC3vh SX2eh  1 3.650000e-01    2.340000e+00
 TC3vh SX1eh  1 3.650000e-01    2.570000e+00
 TC2vh SC1vh  1 3.650000e-01    2.110000e+00
 TC2vh SX4vh  1 3.780000e-01    1.450000e+00
 TC2vh SX3vh  1 3.650000e-01    1.750000e+00
 TC2vh SX2vh  1 3.650000e-01    1.750000e+00
 TC2vh SX1vh  1 3.650000e-01    1.750000e+00
 TC2vh SC2eh  1 3.650000e-01    2.570000e+00
 TC2vh SC1eh  1 3.650000e-01    2.830000e+00
 TC2vh SX4eh  1 3.650000e-01    1.910000e+00
 TC2vh SX3eh  1 3.650000e-01    2.340000e+00
 TC2vh SX2eh  1 3.650000e-01    2.340000e+00
 TC2vh SX1eh  1 3.650000e-01    2.340000e+00
 TC1vh SX4vh  1 3.780000e-01    1.450000e+00
 TC1vh SX3vh  1 3.650000e-01    1.750000e+00
 TC1vh SX2vh  1 3.650000e-01    1.750000e+00
 TC1vh SX1vh  1 3.650000e-01    1.750000e+00
 TC1vh SC1eh  1 3.650000e-01    2.570000e+00
 TC1vh SX4eh  1 3.650000e-01    1.910000e+00
 TC1vh SX3eh  1 3.650000e-01    2.340000e+00
 TC1vh SX2eh  1 3.650000e-01    2.340000e+00
 TC1vh SX1eh  1 3.650000e-01    2.340000e+00
 TX4vh SX3vh  1 3.650000e-01    1.910000e+00
 TX4vh SX2vh  1 3.650000e-01    1.910000e+00
 TX4vh SX1vh  1 3.650000e-01    1.910000e+00
 TX4vh SX4eh  1 3.650000e-01    2.570000e+00
 TX4vh SX3eh  1 3.650000e-01    2.570000e+00
 TX4vh SX2eh  1 3.650000e-01    2.570000e+00
 TX4vh SX1eh  1 3.650000e-01    2.570000e+00
 TX3vh SX2vh  1 3.650000e-01    2.110000e+00
 TX3vh SX1vh  1 3.650000e-01    2.110000e+00
 TX3vh SX3eh  1 3.650000e-01    2.570000e+00
 TX3vh SX2eh  1 3.650000e-01    2.830000e+00
 TX3vh SX1eh  1 3.650000e-01    2.830000e+00
 TX2vh SX1vh  1 3.650000e-01    2.110000e+00
 TX2vh SX2eh  1 3.650000e-01    2.830000e+00
 TX2vh SX1eh  1 3.650000e-01    2.830000e+00
 TX1vh SX1eh  1 3.650000e-01    3.100000e+00
 TC6eh SC5vh  1 3.650000e-01    2.570000e+00
 TC6eh SC4vh  1 3.650000e-01    2.570000e+00
 TC6eh SC3vh  1 3.650000e-01    2.340000e+00
 TC6eh SC2vh  1 3.650000e-01    2.110000e+00
 TC6eh SC1vh  1 3.650000e-01    1.910000e+00
 TC6eh SX4vh  1 3.650000e-01    2.570000e+00
 TC6eh SX3vh  1 3.650000e-01    2.570000e+00
 TC6eh SX2vh  1 3.650000e-01    2.570000e+00
 TC6eh SX1vh  1 3.650000e-01    2.570000e+00
 TC6eh SC5eh  1 3.650000e-01    1.910000e+00
 TC6eh SC4eh  1 3.650000e-01    1.910000e+00
 TC6eh SC3eh  1 3.650000e-01    1.750000e+00
 TC6eh SC2eh  1 3.660000e-01    1.600000e+00
 TC6eh SC1eh  1 3.780000e-01    1.450000e+00
 TC6eh SX4eh  1 3.650000e-01    1.910000e+00
 TC6eh SX3eh  1 3.650000e-01    1.910000e+00
 TC6eh SX2eh  1 3.650000e-01    1.910000e+00
 TC6eh SX1eh  1 3.650000e-01    1.910000e+00
 TC5eh SC4vh  1 3.650000e-01    2.570000e+00
 TC5eh SC3vh  1 3.650000e-01    2.340000e+00
 TC5eh SC2vh  1 3.650000e-01    2.110000e+00
 TC5eh SC1vh  1 3.650000e-01    2.110000e+00
 TC5eh SX4vh  1 3.650000e-01    2.340000e+00
 TC5eh SX3vh  1 3.650000e-01    2.340000e+00
 TC5eh SX2vh  1 3.650000e-01    2.340000e+00
 TC5eh SX1vh  1 3.650000e-01    2.570000e+00
 TC5eh SC4eh  1 3.650000e-01    1.910000e+00
 TC5eh SC3eh  1 3.650000e-01    1.750000e+00
 TC5eh SC2eh  1 3.660000e-01    1.600000e+00
 TC5eh SC1eh  1 3.660000e-01    1.600000e+00
 TC5eh SX4eh  1 3.650000e-01    1.750000e+00
 TC5eh SX3eh  1 3.650000e-01    1.750000e+00
 TC5eh SX2eh  1 3.650000e-01    1.750000e+00
 TC5eh SX1eh  1 3.650000e-01    1.910000e+00
 TC4eh SC3vh  1 3.650000e-01    2.570000e+00
 TC4eh SC2vh  1 3.650000e-01    2.340000e+00
 TC4eh SC1vh  1 3.650000e-01    2.110000e+00
 TC4eh SX4vh  1 3.650000e-01    2.340000e+00
 TC4eh SX3vh  1 3.650000e-01    2.340000e+00
 TC4eh SX2vh  1 3.650000e-01    2.340000e+00
 TC4eh SX1vh  1 3.650000e-01    2.570000e+00
 TC4eh SC3eh  1 3.650000e-01    1.910000e+00
 TC4eh SC2eh  1 3.650000e-01    1.750000e+00
 TC4eh SC1eh  1 3.660000e-01    1.600000e+00
 TC4eh SX4eh  1 3.650000e-01    1.750000e+00
 TC4eh SX3eh  1 3.650000e-01    1.750000e+00
 TC4eh SX2eh  1 3.650000e-01    1.750000e+00
 TC4eh SX1eh  1 3.650000e-01    1.910000e+00
 TC3eh SC2vh  1 3.650000e-01    2.570000e+00
 TC3eh SC1vh  1 3.650000e-01    2.570000e+00
 TC3eh SX4vh  1 3.650000e-01    2.340000e+00
 TC3eh SX3vh  1 3.650000e-01    2.340000e+00
 TC3eh SX2vh  1 3.650000e-01    2.340000e+00
 TC3eh SX1vh  1 3.650000e-01    2.570000e+00
 TC3eh SC2eh  1 3.650000e-01    1.910000e+00
 TC3eh SC1eh  1 3.650000e-01    1.910000e+00
 TC3eh SX4eh  1 3.650000e-01    1.750000e+00
 TC3eh SX3eh  1 3.650000e-01    1.750000e+00
 TC3eh SX2eh  1 3.650000e-01    1.750000e+00
 TC3eh SX1eh  1 3.650000e-01    1.910000e+00
 TC2eh SC1vh  1 3.650000e-01    2.830000e+00
 TC2eh SX4vh  1 3.650000e-01    1.910000e+00
 TC2eh SX3vh  1 3.650000e-01    2.340000e+00
 TC2eh SX2vh  1 3.650000e-01    2.340000e+00
 TC2eh SX1vh  1 3.650000e-01    2.340000e+00
 TC2eh SC1eh  1 3.650000e-01    2.110000e+00
 TC2eh SX4eh  1 3.780000e-01    1.450000e+00
 TC2eh SX3eh  1 3.650000e-01    1.750000e+00
 TC2eh SX2eh  1 3.650000e-01    1.750000e+00
 TC2eh SX1eh  1 3.650000e-01    1.750000e+00
 TC1eh SX4vh  1 3.650000e-01    1.910000e+00
 TC1eh SX3vh  1 3.650000e-01    2.340000e+00
 TC1eh SX2vh  1 3.650000e-01    2.340000e+00
 TC1eh SX1vh  1 3.650000e-01    2.340000e+00
 TC1eh SX4eh  1 3.780000e-01    1.450000e+00
 TC1eh SX3eh  1 3.650000e-01    1.750000e+00
 TC1eh SX2eh  1 3.650000e-01    1.750000e+00
 TC1eh SX1eh  1 3.650000e-01    1.750000e+00
 TX4eh SX3vh  1 3.650000e-01    2.570000e+00
 TX4eh SX2vh  1 3.650000e-01    2.570000e+00
 TX4eh SX1vh  1 3.650000e-01    2.570000e+00
 TX4eh SX3eh  1 3.650000e-01    1.910000e+00
 TX4eh SX2eh  1 3.650000e-01    1.910000e+00
 TX4eh SX1eh  1 3.650000e-01    1.910000e+00
 TX3eh SX2vh  1 3.650000e-01    2.830000e+00
 TX3eh SX1vh  1 3.650000e-01    2.830000e+00
 TX3eh SX2eh  1 3.650000e-01    2.110000e+00
 TX3eh SX1eh  1 3.650000e-01    2.110000e+00
 TX2eh SX1vh  1 3.650000e-01    2.830000e+00
 TX2eh SX1eh  1 3.650000e-01    2.110000e+00
  TP6h  SC6h  1 3.780000e-01    1.450000e+00
  TP6h  SC5h  1 3.940000e-01    1.290000e+00
  TP6h  SC4h  1 4.040000e-01    1.130000e+00
  TP6h  SC3h  1 4.090000e-01    1.080000e+00
  TP6h  SC2h  1 4.090000e-01    1.080000e+00
  TP6h  SC1h  1 4.840000e-01    8.900000e-01
  TP6h  SX4h  1 3.660000e-01    1.600000e+00
  TP6h  SX3h  1 3.660000e-01    1.600000e+00
  TP6h  SX2h  1 3.780000e-01    1.450000e+00
  TP6h  SX1h  1 3.940000e-01    1.290000e+00
  TP5h  SC6h  1 3.780000e-01    1.450000e+00
  TP5h  SC5h  1 3.780000e-01    1.450000e+00
  TP5h  SC4h  1 3.940000e-01    1.290000e+00
  TP5h  SC3h  1 4.040000e-01    1.130000e+00
  TP5h  SC2h  1 4.040000e-01    1.130000e+00
  TP5h  SC1h  1 4.090000e-01    1.080000e+00
  TP5h  SX4h  1 3.650000e-01    1.750000e+00
  TP5h  SX3h  1 3.660000e-01    1.600000e+00
  TP5h  SX2h  1 3.660000e-01    1.600000e+00
  TP5h  SX1h  1 3.940000e-01    1.290000e+00
  TP4h  SC6h  1 3.660000e-01    1.600000e+00
  TP4h  SC5h  1 3.780000e-01    1.450000e+00
  TP4h  SC4h  1 3.940000e-01    1.290000e+00
  TP4h  SC3h  1 4.040000e-01    1.130000e+00
  TP4h  SC2h  1 4.040000e-01    1.130000e+00
  TP4h  SC1h  1 4.090000e-01    1.080000e+00
  TP4h  SX4h  1 3.650000e-01    1.750000e+00
  TP4h  SX3h  1 3.660000e-01    1.600000e+00
  TP4h  SX2h  1 3.660000e-01    1.600000e+00
  TP4h  SX1h  1 3.780000e-01    1.450000e+00
  TP3h  SC6h  1 3.650000e-01    1.750000e+00
  TP3h  SC5h  1 3.660000e-01    1.600000e+00
  TP3h  SC4h  1 3.780000e-01    1.450000e+00
  TP3h  SC3h  1 4.040000e-01    1.130000e+00
  TP3h  SC2h  1 4.040000e-01    1.130000e+00
  TP3h  SC1h  1 4.090000e-01    1.080000e+00
  TP3h  SX4h  1 3.650000e-01    1.750000e+00
  TP3h  SX3h  1 3.650000e-01    1.750000e+00
  TP3h  SX2h  1 3.660000e-01    1.600000e+00
  TP3h  SX1h  1 3.780000e-01    1.450000e+00
  TP2h  SC6h  1 3.650000e-01    1.750000e+00
  TP2h  SC5h  1 3.660000e-01    1.600000e+00
  TP2h  SC4h  1 3.780000e-01    1.450000e+00
  TP2h  SC3h  1 3.940000e-01    1.290000e+00
  TP2h  SC2h  1 3.940000e-01    1.290000e+00
  TP2h  SC1h  1 4.040000e-01    1.130000e+00
  TP2h  SX4h  1 3.650000e-01    1.750000e+00
  TP2h  SX3h  1 3.650000e-01    1.750000e+00
  TP2h  SX2h  1 3.660000e-01    1.600000e+00
  TP2h  SX1h  1 3.780000e-01    1.450000e+00
  TP1h  SC6h  1 3.650000e-01    1.750000e+00
  TP1h  SC5h  1 3.660000e-01    1.600000e+00
  TP1h  SC4h  1 3.780000e-01    1.450000e+00
  TP1h  SC3h  1 3.940000e-01    1.290000e+00
  TP1h  SC2h  1 3.940000e-01    1.290000e+00
  TP1h  SC1h  1 4.040000e-01    1.130000e+00
  TP1h  SX4h  1 3.650000e-01    1.750000e+00
  TP1h  SX3h  1 3.650000e-01    1.750000e+00
  TP1h  SX2h  1 3.660000e-01    1.600000e+00
  TP1h  SX1h  1 3.780000e-01    1.450000e+00
  TN6h  SC6h  1 3.650000e-01    1.910000e+00
  TN6h  SC5h  1 3.650000e-01    1.750000e+00
  TN6h  SC4h  1 3.660000e-01    1.600000e+00
  TN6h  SC3h  1 3.780000e-01    1.450000e+00
  TN6h  SC2h  1 3.780000e-01    1.450000e+00
  TN6h  SC1h  1 3.940000e-01    1.290000e+00
  TN6h  SX4h  1 3.650000e-01    1.910000e+00
  TN6h  SX3h  1 3.650000e-01    1.750000e+00
  TN6h  SX2h  1 3.660000e-01    1.600000e+00
  TN6h  SX1h  1 3.780000e-01    1.450000e+00
  TN5h  SC6h  1 3.650000e-01    1.910000e+00
  TN5h  SC5h  1 3.650000e-01    1.750000e+00
  TN5h  SC4h  1 3.660000e-01    1.600000e+00
  TN5h  SC3h  1 3.660000e-01    1.600000e+00
  TN5h  SC2h  1 3.780000e-01    1.450000e+00
  TN5h  SC1h  1 3.940000e-01    1.290000e+00
  TN5h  SX4h  1 3.650000e-01    2.110000e+00
  TN5h  SX3h  1 3.650000e-01    1.910000e+00
  TN5h  SX2h  1 3.650000e-01    1.750000e+00
  TN5h  SX1h  1 3.660000e-01    1.600000e+00
  TN4h  SC6h  1 3.650000e-01    1.910000e+00
  TN4h  SC5h  1 3.650000e-01    1.750000e+00
  TN4h  SC4h  1 3.650000e-01    1.750000e+00
  TN4h  SC3h  1 3.660000e-01    1.600000e+00
  TN4h  SC2h  1 3.780000e-01    1.450000e+00
  TN4h  SC1h  1 3.940000e-01    1.290000e+00
  TN4h  SX4h  1 3.650000e-01    2.340000e+00
  TN4h  SX3h  1 3.650000e-01    2.110000e+00
  TN4h  SX2h  1 3.650000e-01    1.750000e+00
  TN4h  SX1h  1 3.660000e-01    1.600000e+00
  TN3h  SC6h  1 3.650000e-01    1.910000e+00
  TN3h  SC5h  1 3.650000e-01    1.750000e+00
  TN3h  SC4h  1 3.650000e-01    1.750000e+00
  TN3h  SC3h  1 3.660000e-01    1.600000e+00
  TN3h  SC2h  1 3.660000e-01    1.600000e+00
  TN3h  SC1h  1 3.780000e-01    1.450000e+00
  TN3h  SX4h  1 3.650000e-01    2.110000e+00
  TN3h  SX3h  1 3.650000e-01    1.910000e+00
  TN3h  SX2h  1 3.650000e-01    1.750000e+00
  TN3h  SX1h  1 3.650000e-01    1.750000e+00
  TN2h  SC6h  1 3.650000e-01    1.910000e+00
  TN2h  SC5h  1 3.650000e-01    1.750000e+00
  TN2h  SC4h  1 3.650000e-01    1.750000e+00
  TN2h  SC3h  1 3.650000e-01    1.750000e+00
  TN2h  SC2h  1 3.660000e-01    1.600000e+00
  TN2h  SC1h  1 3.780000e-01    1.450000e+00
  TN2h  SX4h  1 3.650000e-01    2.110000e+00
  TN2h  SX3h  1 3.650000e-01    1.910000e+00
  TN2h  SX2h  1 3.650000e-01    1.750000e+00
  TN2h  SX1h  1 3.650000e-01    1.750000e+00
  TN1h  SC6h  1 3.650000e-01    2.110000e+00
  TN1h  SC5h  1 3.650000e-01    1.910000e+00
  TN1h  SC4h  1 3.650000e-01    1.910000e+00
  TN1h  SC3h  1 3.650000e-01    1.750000e+00
  TN1h  SC2h  1 3.660000e-01    1.600000e+00
  TN1h  SC1h  1 3.780000e-01    1.450000e+00
  TN1h  SX4h  1 3.650000e-01    1.910000e+00
  TN1h  SX3h  1 3.650000e-01    1.910000e+00
  TN1h  SX2h  1 3.650000e-01    1.750000e+00
  TN1h  SX1h  1 3.650000e-01    1.750000e+00
 TP6dh SC6vh  1 3.940000e-01    1.290000e+00
 TP6dh SC5vh  1 4.040000e-01    1.130000e+00
 TP6dh SC4vh  1 4.090000e-01    1.080000e+00
 TP6dh SC3vh  1 4.230000e-01    9.810000e-01
 TP6dh SC2vh  1 4.230000e-01    9.810000e-01
 TP6dh SC1vh  1 5.370000e-01    8.080000e-01
 TP6dh SX4vh  1 3.780000e-01    1.450000e+00
 TP6dh SX3vh  1 3.780000e-01    1.450000e+00
 TP6dh SX2vh  1 3.940000e-01    1.290000e+00
 TP6dh SX1vh  1 4.040000e-01    1.130000e+00
 TP6dh SC6eh  1 3.660000e-01    1.600000e+00
 TP6dh SC5eh  1 3.780000e-01    1.450000e+00
 TP6dh SC4eh  1 3.940000e-01    1.290000e+00
 TP6dh SC3eh  1 4.040000e-01    1.130000e+00
 TP6dh SC2eh  1 4.040000e-01    1.130000e+00
 TP6dh SC1eh  1 4.230000e-01    9.810000e-01
 TP6dh SX4eh  1 3.650000e-01    1.750000e+00
 TP6dh SX3eh  1 3.650000e-01    1.750000e+00
 TP6dh SX2eh  1 3.660000e-01    1.600000e+00
 TP6dh SX1eh  1 3.780000e-01    1.450000e+00
 TP5dh SC6vh  1 3.940000e-01    1.290000e+00
 TP5dh SC5vh  1 3.940000e-01    1.290000e+00
 TP5dh SC4vh  1 4.040000e-01    1.130000e+00
 TP5dh SC3vh  1 4.090000e-01    1.080000e+00
 TP5dh SC2vh  1 4.090000e-01    1.080000e+00
 TP5dh SC1vh  1 4.230000e-01    9.810000e-01
 TP5dh SX4vh  1 3.660000e-01    1.600000e+00
 TP5dh SX3vh  1 3.780000e-01    1.450000e+00
 TP5dh SX2vh  1 3.780000e-01    1.450000e+00
 TP5dh SX1vh  1 4.040000e-01    1.130000e+00
 TP5dh SC6eh  1 3.660000e-01    1.600000e+00
 TP5dh SC5eh  1 3.660000e-01    1.600000e+00
 TP5dh SC4eh  1 3.780000e-01    1.450000e+00
 TP5dh SC3eh  1 3.940000e-01    1.290000e+00
 TP5dh SC2eh  1 3.940000e-01    1.290000e+00
 TP5dh SC1eh  1 4.040000e-01    1.130000e+00
 TP5dh SX4eh  1 3.650000e-01    1.910000e+00
 TP5dh SX3eh  1 3.650000e-01    1.750000e+00
 TP5dh SX2eh  1 3.650000e-01    1.750000e+00
 TP5dh SX1eh  1 3.780000e-01    1.450000e+00
 TP4dh SC6vh  1 3.780000e-01    1.450000e+00
 TP4dh SC5vh  1 3.940000e-01    1.290000e+00
 TP4dh SC4vh  1 4.040000e-01    1.130000e+00
 TP4dh SC3vh  1 4.090000e-01    1.080000e+00
 TP4dh SC2vh  1 4.090000e-01    1.080000e+00
 TP4dh SC1vh  1 4.230000e-01    9.810000e-01
 TP4dh SX4vh  1 3.660000e-01    1.600000e+00
 TP4dh SX3vh  1 3.780000e-01    1.450000e+00
 TP4dh SX2vh  1 3.780000e-01    1.450000e+00
 TP4dh SX1vh  1 3.940000e-01    1.290000e+00
 TP4dh SC6eh  1 3.650000e-01    1.750000e+00
 TP4dh SC5eh  1 3.660000e-01    1.600000e+00
 TP4dh SC4eh  1 3.780000e-01    1.450000e+00
 TP4dh SC3eh  1 3.940000e-01    1.290000e+00
 TP4dh SC2eh  1 3.940000e-01    1.290000e+00
 TP4dh SC1eh  1 4.040000e-01    1.130000e+00
 TP4dh SX4eh  1 3.650000e-01    1.910000e+00
 TP4dh SX3eh  1 3.650000e-01    1.750000e+00
 TP4dh SX2eh  1 3.650000e-01    1.750000e+00
 TP4dh SX1eh  1 3.660000e-01    1.600000e+00
 TP3dh SC6vh  1 3.660000e-01    1.600000e+00
 TP3dh SC5vh  1 3.780000e-01    1.450000e+00
 TP3dh SC4vh  1 3.940000e-01    1.290000e+00
 TP3dh SC3vh  1 4.090000e-01    1.080000e+00
 TP3dh SC2vh  1 4.090000e-01    1.080000e+00
 TP3dh SC1vh  1 4.230000e-01    9.810000e-01
 TP3dh SX4vh  1 3.660000e-01    1.600000e+00
 TP3dh SX3vh  1 3.660000e-01    1.600000e+00
 TP3dh SX2vh  1 3.780000e-01    1.450000e+00
 TP3dh SX1vh  1 3.940000e-01    1.290000e+00
 TP3dh SC6eh  1 3.650000e-01    1.910000e+00
 TP3dh SC5eh  1 3.650000e-01    1.750000e+00
 TP3dh SC4eh  1 3.660000e-01    1.600000e+00
 TP3dh SC3eh  1 3.940000e-01    1.290000e+00
 TP3dh SC2eh  1 3.940000e-01    1.290000e+00
 TP3dh SC1eh  1 4.040000e-01    1.130000e+00
 TP3dh SX4eh  1 3.650000e-01    1.910000e+00
 TP3dh SX3eh  1 3.650000e-01    1.910000e+00
 TP3dh SX2eh  1 3.650000e-01    1.750000e+00
 TP3dh SX1eh  1 3.660000e-01    1.600000e+00
 TP2dh SC6vh  1 3.660000e-01    1.600000e+00
 TP2dh SC5vh  1 3.780000e-01    1.450000e+00
 TP2dh SC4vh  1 3.940000e-01    1.290000e+00
 TP2dh SC3vh  1 4.040000e-01    1.130000e+00
 TP2dh SC2vh  1 4.040000e-01    1.130000e+00
 TP2dh SC1vh  1 4.090000e-01    1.080000e+00
 TP2dh SX4vh  1 3.660000e-01    1.600000e+00
 TP2dh SX3vh  1 3.660000e-01    1.600000e+00
 TP2dh SX2vh  1 3.780000e-01    1.450000e+00
 TP2dh SX1vh  1 3.940000e-01    1.290000e+00
 TP2dh SC6eh  1 3.650000e-01    1.910000e+00
 TP2dh SC5eh  1 3.650000e-01    1.750000e+00
 TP2dh SC4eh  1 3.660000e-01    1.600000e+00
 TP2dh SC3eh  1 3.780000e-01    1.450000e+00
 TP2dh SC2eh  1 3.780000e-01    1.450000e+00
 TP2dh SC1eh  1 3.940000e-01    1.290000e+00
 TP2dh SX4eh  1 3.650000e-01    1.910000e+00
 TP2dh SX3eh  1 3.650000e-01    1.910000e+00
 TP2dh SX2eh  1 3.650000e-01    1.750000e+00
 TP2dh SX1eh  1 3.660000e-01    1.600000e+00
 TP1dh SC6vh  1 3.660000e-01    1.600000e+00
 TP1dh SC5vh  1 3.780000e-01    1.450000e+00
 TP1dh SC4vh  1 3.940000e-01    1.290000e+00
 TP1dh SC3vh  1 4.040000e-01    1.130000e+00
 TP1dh SC2vh  1 4.040000e-01    1.130000e+00
 TP1dh SC1vh  1 4.090000e-01    1.080000e+00
 TP1dh SX4vh  1 3.660000e-01    1.600000e+00
 TP1dh SX3vh  1 3.660000e-01    1.600000e+00
 TP1dh SX2vh  1 3.780000e-01    1.450000e+00
 TP1dh SX1vh  1 3.940000e-01    1.290000e+00
 TP1dh SC6eh  1 3.650000e-01    1.910000e+00
 TP1dh SC5eh  1 3.650000e-01    1.750000e+00
 TP1dh SC4eh  1 3.660000e-01    1.600000e+00
 TP1dh SC3eh  1 3.780000e-01    1.450000e+00
 TP1dh SC2eh  1 3.780000e-01    1.450000e+00
 TP1dh SC1eh  1 3.940000e-01    1.290000e+00
 TP1dh SX4eh  1 3.650000e-01    1.910000e+00
 TP1dh SX3eh  1 3.650000e-01    1.910000e+00
 TP1dh SX2eh  1 3.650000e-01    1.750000e+00
 TP1dh SX1eh  1 3.660000e-01    1.600000e+00
 TN6dh SC6vh  1 3.650000e-01    1.750000e+00
 TN6dh SC5vh  1 3.660000e-01    1.600000e+00
 TN6dh SC4vh  1 3.780000e-01    1.450000e+00
 TN6dh SC3vh  1 3.940000e-01    1.290000e+00
 TN6dh SC2vh  1 3.940000e-01    1.290000e+00
 TN6dh SC1vh  1 4.040000e-01    1.130000e+00
 TN6dh SX4vh  1 3.650000e-01    1.750000e+00
 TN6dh SX3vh  1 3.660000e-01    1.600000e+00
 TN6dh SX2vh  1 3.780000e-01    1.450000e+00
 TN6dh SX1vh  1 3.940000e-01    1.290000e+00
 TN6dh SC6eh  1 3.650000e-01    2.110000e+00
 TN6dh SC5eh  1 3.650000e-01    1.910000e+00
 TN6dh SC4eh  1 3.650000e-01    1.750000e+00
 TN6dh SC3eh  1 3.660000e-01    1.600000e+00
 TN6dh SC2eh  1 3.660000e-01    1.600000e+00
 TN6dh SC1eh  1 3.780000e-01    1.450000e+00
 TN6dh SX4eh  1 3.650000e-01    2.110000e+00
 TN6dh SX3eh  1 3.650000e-01    1.910000e+00
 TN6dh SX2eh  1 3.650000e-01    1.750000e+00
 TN6dh SX1eh  1 3.660000e-01    1.600000e+00
 TN5dh SC6vh  1 3.650000e-01    1.750000e+00
 TN5dh SC5vh  1 3.660000e-01    1.600000e+00
 TN5dh SC4vh  1 3.780000e-01    1.450000e+00
 TN5dh SC3vh  1 3.780000e-01    1.450000e+00
 TN5dh SC2vh  1 3.940000e-01    1.290000e+00
 TN5dh SC1vh  1 4.040000e-01    1.130000e+00
 TN5dh SX4vh  1 3.650000e-01    1.910000e+00
 TN5dh SX3vh  1 3.650000e-01    1.750000e+00
 TN5dh SX2vh  1 3.660000e-01    1.600000e+00
 TN5dh SX1vh  1 3.780000e-01    1.450000e+00
 TN5dh SC6eh  1 3.650000e-01    2.110000e+00
 TN5dh SC5eh  1 3.650000e-01    1.910000e+00
 TN5dh SC4eh  1 3.650000e-01    1.750000e+00
 TN5dh SC3eh  1 3.650000e-01    1.750000e+00
 TN5dh SC2eh  1 3.660000e-01    1.600000e+00
 TN5dh SC1eh  1 3.780000e-01    1.450000e+00
 TN5dh SX4eh  1 3.650000e-01    2.340000e+00
 TN5dh SX3eh  1 3.650000e-01    2.110000e+00
 TN5dh SX2eh  1 3.650000e-01    1.910000e+00
 TN5dh SX1eh  1 3.650000e-01    1.750000e+00
 TN4dh SC6vh  1 3.650000e-01    1.750000e+00
 TN4dh SC5vh  1 3.660000e-01    1.600000e+00
 TN4dh SC4vh  1 3.660000e-01    1.600000e+00
 TN4dh SC3vh  1 3.780000e-01    1.450000e+00
 TN4dh SC2vh  1 3.940000e-01    1.290000e+00
 TN4dh SC1vh  1 4.040000e-01    1.130000e+00
 TN4dh SX4vh  1 3.650000e-01    2.110000e+00
 TN4dh SX3vh  1 3.650000e-01    1.910000e+00
 TN4dh SX2vh  1 3.660000e-01    1.600000e+00
 TN4dh SX1vh  1 3.780000e-01    1.450000e+00
 TN4dh SC6eh  1 3.650000e-01    2.110000e+00
 TN4dh SC5eh  1 3.650000e-01    1.910000e+00
 TN4dh SC4eh  1 3.650000e-01    1.910000e+00
 TN4dh SC3eh  1 3.650000e-01    1.750000e+00
 TN4dh SC2eh  1 3.660000e-01    1.600000e+00
 TN4dh SC1eh  1 3.780000e-01    1.450000e+00
 TN4dh SX4eh  1 3.650000e-01    2.570000e+00
 TN4dh SX3eh  1 3.650000e-01    2.340000e+00
 TN4dh SX2eh  1 3.650000e-01    1.910000e+00
 TN4dh SX1eh  1 3.650000e-01    1.750000e+00
 TN3dh SC6vh  1 3.650000e-01    1.750000e+00
 TN3dh SC5vh  1 3.660000e-01    1.600000e+00
 TN3dh SC4vh  1 3.660000e-01    1.600000e+00
 TN3dh SC3vh  1 3.780000e-01    1.450000e+00
 TN3dh SC2vh  1 3.780000e-01    1.450000e+00
 TN3dh SC1vh  1 3.940000e-01    1.290000e+00
 TN3dh SX4vh  1 3.650000e-01    1.910000e+00
 TN3dh SX3vh  1 3.650000e-01    1.750000e+00
 TN3dh SX2vh  1 3.660000e-01    1.600000e+00
 TN3dh SX1vh  1 3.660000e-01    1.600000e+00
 TN3dh SC6eh  1 3.650000e-01    2.110000e+00
 TN3dh SC5eh  1 3.650000e-01    1.910000e+00
 TN3dh SC4eh  1 3.650000e-01    1.910000e+00
 TN3dh SC3eh  1 3.650000e-01    1.750000e+00
 TN3dh SC2eh  1 3.650000e-01    1.750000e+00
 TN3dh SC1eh  1 3.660000e-01    1.600000e+00
 TN3dh SX4eh  1 3.650000e-01    2.340000e+00
 TN3dh SX3eh  1 3.650000e-01    2.110000e+00
 TN3dh SX2eh  1 3.650000e-01    1.910000e+00
 TN3dh SX1eh  1 3.650000e-01    1.910000e+00
 TN2dh SC6vh  1 3.650000e-01    1.750000e+00
 TN2dh SC5vh  1 3.660000e-01    1.600000e+00
 TN2dh SC4vh  1 3.660000e-01    1.600000e+00
 TN2dh SC3vh  1 3.660000e-01    1.600000e+00
 TN2dh SC2vh  1 3.780000e-01    1.450000e+00
 TN2dh SC1vh  1 3.940000e-01    1.290000e+00
 TN2dh SX4vh  1 3.650000e-01    1.910000e+00
 TN2dh SX3vh  1 3.650000e-01    1.750000e+00
 TN2dh SX2vh  1 3.660000e-01    1.600000e+00
 TN2dh SX1vh  1 3.660000e-01    1.600000e+00
 TN2dh SC6eh  1 3.650000e-01    2.110000e+00
 TN2dh SC5eh  1 3.650000e-01    1.910000e+00
 TN2dh SC4eh  1 3.650000e-01    1.910000e+00
 TN2dh SC3eh  1 3.650000e-01    1.910000e+00
 TN2dh SC2eh  1 3.650000e-01    1.750000e+00
 TN2dh SC1eh  1 3.660000e-01    1.600000e+00
 TN2dh SX4eh  1 3.650000e-01    2.340000e+00
 TN2dh SX3eh  1 3.650000e-01    2.110000e+00
 TN2dh SX2eh  1 3.650000e-01    1.910000e+00
 TN2dh SX1eh  1 3.650000e-01    1.910000e+00
 TN1dh SC6vh  1 3.650000e-01    1.910000e+00
 TN1dh SC5vh  1 3.650000e-01    1.750000e+00
 TN1dh SC4vh  1 3.650000e-01    1.750000e+00
 TN1dh SC3vh  1 3.660000e-01    1.600000e+00
 TN1dh SC2vh  1 3.780000e-01    1.450000e+00
 TN1dh SC1vh  1 3.940000e-01    1.290000e+00
 TN1dh SX4vh  1 3.650000e-01    1.750000e+00
 TN1dh SX3vh  1 3.650000e-01    1.750000e+00
 TN1dh SX2vh  1 3.660000e-01    1.600000e+00
 TN1dh SX1vh  1 3.660000e-01    1.600000e+00
 TN1dh SC6eh  1 3.650000e-01    2.340000e+00
 TN1dh SC5eh  1 3.650000e-01    2.110000e+00
 TN1dh SC4eh  1 3.650000e-01    2.110000e+00
 TN1dh SC3eh  1 3.650000e-01    1.910000e+00
 TN1dh SC2eh  1 3.650000e-01    1.750000e+00
 TN1dh SC1eh  1 3.660000e-01    1.600000e+00
 TN1dh SX4eh  1 3.650000e-01    2.110000e+00
 TN1dh SX3eh  1 3.650000e-01    2.110000e+00
 TN1dh SX2eh  1 3.650000e-01    1.910000e+00
 TN1dh SX1eh  1 3.650000e-01    1.910000e+00
 TP6ah SC6vh  1 3.660000e-01    1.600000e+00
 TP6ah SC5vh  1 3.780000e-01    1.450000e+00
 TP6ah SC4vh  1 3.940000e-01    1.290000e+00
 TP6ah SC3vh  1 4.040000e-01    1.130000e+00
 TP6ah SC2vh  1 4.040000e-01    1.130000e+00
 TP6ah SC1vh  1 4.230000e-01    9.810000e-01
 TP6ah SX4vh  1 3.650000e-01    1.750000e+00
 TP6ah SX3vh  1 3.650000e-01    1.750000e+00
 TP6ah SX2vh  1 3.660000e-01    1.600000e+00
 TP6ah SX1vh  1 3.780000e-01    1.450000e+00
 TP6ah SC6eh  1 3.940000e-01    1.290000e+00
 TP6ah SC5eh  1 4.040000e-01    1.130000e+00
 TP6ah SC4eh  1 4.090000e-01    1.080000e+00
 TP6ah SC3eh  1 4.230000e-01    9.810000e-01
 TP6ah SC2eh  1 4.230000e-01    9.810000e-01
 TP6ah SC1eh  1 5.370000e-01    8.080000e-01
 TP6ah SX4eh  1 3.780000e-01    1.450000e+00
 TP6ah SX3eh  1 3.780000e-01    1.450000e+00
 TP6ah SX2eh  1 3.940000e-01    1.290000e+00
 TP6ah SX1eh  1 4.040000e-01    1.130000e+00
 TP5ah SC6vh  1 3.660000e-01    1.600000e+00
 TP5ah SC5vh  1 3.660000e-01    1.600000e+00
 TP5ah SC4vh  1 3.780000e-01    1.450000e+00
 TP5ah SC3vh  1 3.940000e-01    1.290000e+00
 TP5ah SC2vh  1 3.940000e-01    1.290000e+00
 TP5ah SC1vh  1 4.040000e-01    1.130000e+00
 TP5ah SX4vh  1 3.650000e-01    1.910000e+00
 TP5ah SX3vh  1 3.650000e-01    1.750000e+00
 TP5ah SX2vh  1 3.650000e-01    1.750000e+00
 TP5ah SX1vh  1 3.780000e-01    1.450000e+00
 TP5ah SC6eh  1 3.940000e-01    1.290000e+00
 TP5ah SC5eh  1 3.940000e-01    1.290000e+00
 TP5ah SC4eh  1 4.040000e-01    1.130000e+00
 TP5ah SC3eh  1 4.090000e-01    1.080000e+00
 TP5ah SC2eh  1 4.090000e-01    1.080000e+00
 TP5ah SC1eh  1 4.230000e-01    9.810000e-01
 TP5ah SX4eh  1 3.660000e-01    1.600000e+00
 TP5ah SX3eh  1 3.780000e-01    1.450000e+00
 TP5ah SX2eh  1 3.780000e-01    1.450000e+00
 TP5ah SX1eh  1 4.040000e-01    1.130000e+00
 TP4ah SC6vh  1 3.650000e-01    1.750000e+00
 TP4ah SC5vh  1 3.660000e-01    1.600000e+00
 TP4ah SC4vh  1 3.780000e-01    1.450000e+00
 TP4ah SC3vh  1 3.940000e-01    1.290000e+00
 TP4ah SC2vh  1 3.940000e-01    1.290000e+00
 TP4ah SC1vh  1 4.040000e-01    1.130000e+00
 TP4ah SX4vh  1 3.650000e-01    1.910000e+00
 TP4ah SX3vh  1 3.650000e-01    1.750000e+00
 TP4ah SX2vh  1 3.650000e-01    1.750000e+00
 TP4ah SX1vh  1 3.660000e-01    1.600000e+00
 TP4ah SC6eh  1 3.780000e-01    1.450000e+00
 TP4ah SC5eh  1 3.940000e-01    1.290000e+00
 TP4ah SC4eh  1 4.040000e-01    1.130000e+00
 TP4ah SC3eh  1 4.090000e-01    1.080000e+00
 TP4ah SC2eh  1 4.090000e-01    1.080000e+00
 TP4ah SC1eh  1 4.230000e-01    9.810000e-01
 TP4ah SX4eh  1 3.660000e-01    1.600000e+00
 TP4ah SX3eh  1 3.780000e-01    1.450000e+00
 TP4ah SX2eh  1 3.780000e-01    1.450000e+00
 TP4ah SX1eh  1 3.940000e-01    1.290000e+00
 TP3ah SC6vh  1 3.650000e-01    1.910000e+00
 TP3ah SC5vh  1 3.650000e-01    1.750000e+00
 TP3ah SC4vh  1 3.660000e-01    1.600000e+00
 TP3ah SC3vh  1 3.940000e-01    1.290000e+00
 TP3ah SC2vh  1 3.940000e-01    1.290000e+00
 TP3ah SC1vh  1 4.040000e-01    1.130000e+00
 TP3ah SX4vh  1 3.650000e-01    1.910000e+00
 TP3ah SX3vh  1 3.650000e-01    1.910000e+00
 TP3ah SX2vh  1 3.650000e-01    1.750000e+00
 TP3ah SX1vh  1 3.660000e-01    1.600000e+00
 TP3ah SC6eh  1 3.660000e-01    1.600000e+00
 TP3ah SC5eh  1 3.780000e-01    1.450000e+00
 TP3ah SC4eh  1 3.940000e-01    1.290000e+00
 TP3ah SC3eh  1 4.090000e-01    1.080000e+00
 TP3ah SC2eh  1 4.090000e-01    1.080000e+00
 TP3ah SC1eh  1 4.230000e-01    9.810000e-01
 TP3ah SX4eh  1 3.660000e-01    1.600000e+00
 TP3ah SX3eh  1 3.660000e-01    1.600000e+00
 TP3ah SX2eh  1 3.780000e-01    1.450000e+00
 TP3ah SX1eh  1 3.940000e-01    1.290000e+00
 TP2ah SC6vh  1 3.650000e-01    1.910000e+00
 TP2ah SC5vh  1 3.650000e-01    1.750000e+00
 TP2ah SC4vh  1 3.660000e-01    1.600000e+00
 TP2ah SC3vh  1 3.780000e-01    1.450000e+00
 TP2ah SC2vh  1 3.780000e-01    1.450000e+00
 TP2ah SC1vh  1 3.940000e-01    1.290000e+00
 TP2ah SX4vh  1 3.650000e-01    1.910000e+00
 TP2ah SX3vh  1 3.650000e-01    1.910000e+00
 TP2ah SX2vh  1 3.650000e-01    1.750000e+00
 TP2ah SX1vh  1 3.660000e-01    1.600000e+00
 TP2ah SC6eh  1 3.660000e-01    1.600000e+00
 TP2ah SC5eh  1 3.780000e-01    1.450000e+00
 TP2ah SC4eh  1 3.940000e-01    1.290000e+00
 TP2ah SC3eh  1 4.040000e-01    1.130000e+00
 TP2ah SC2eh  1 4.040000e-01    1.130000e+00
 TP2ah SC1eh  1 4.090000e-01    1.080000e+00
 TP2ah SX4eh  1 3.660000e-01    1.600000e+00
 TP2ah SX3eh  1 3.660000e-01    1.600000e+00
 TP2ah SX2eh  1 3.780000e-01    1.450000e+00
 TP2ah SX1eh  1 3.940000e-01    1.290000e+00
 TP1ah SC6vh  1 3.650000e-01    1.910000e+00
 TP1ah SC5vh  1 3.650000e-01    1.750000e+00
 TP1ah SC4vh  1 3.660000e-01    1.600000e+00
 TP1ah SC3vh  1 3.780000e-01    1.450000e+00
 TP1ah SC2vh  1 3.780000e-01    1.450000e+00
 TP1ah SC1vh  1 3.940000e-01    1.290000e+00
 TP1ah SX4vh  1 3.650000e-01    1.910000e+00
 TP1ah SX3vh  1 3.650000e-01    1.910000e+00
 TP1ah SX2vh  1 3.650000e-01    1.750000e+00
 TP1ah SX1vh  1 3.660000e-01    1.600000e+00
 TP1ah SC6eh  1 3.660000e-01    1.600000e+00
 TP1ah SC5eh  1 3.780000e-01    1.450000e+00
 TP1ah SC4eh  1 3.940000e-01    1.290000e+00
 TP1ah SC3eh  1 4.040000e-01    1.130000e+00
 TP1ah SC2eh  1 4.040000e-01    1.130000e+00
 TP1ah SC1eh  1 4.090000e-01    1.080000e+00
 TP1ah SX4eh  1 3.660000e-01    1.600000e+00
 TP1ah SX3eh  1 3.660000e-01    1.600000e+00
 TP1ah SX2eh  1 3.780000e-01    1.450000e+00
 TP1ah SX1eh  1 3.940000e-01    1.290000e+00
 TN6ah SC6vh  1 3.650000e-01    2.110000e+00
 TN6ah SC5vh  1 3.650000e-01    1.910000e+00
 TN6ah SC4vh  1 3.650000e-01    1.750000e+00
 TN6ah SC3vh  1 3.660000e-01    1.600000e+00
 TN6ah SC2vh  1 3.660000e-01    1.600000e+00
 TN6ah SC1vh  1 3.780000e-01    1.450000e+00
 TN6ah SX4vh  1 3.650000e-01    2.110000e+00
 TN6ah SX3vh  1 3.650000e-01    1.910000e+00
 TN6ah SX2vh  1 3.650000e-01    1.750000e+00
 TN6ah SX1vh  1 3.660000e-01    1.600000e+00
 TN6ah SC6eh  1 3.650000e-01    1.750000e+00
 TN6ah SC5eh  1 3.660000e-01    1.600000e+00
 TN6ah SC4eh  1 3.780000e-01    1.450000e+00
 TN6ah SC3eh  1 3.940000e-01    1.290000e+00
 TN6ah SC2eh  1 3.940000e-01    1.290000e+00
 TN6ah SC1eh  1 4.040000e-01    1.130000e+00
 TN6ah SX4eh  1 3.650000e-01    1.750000e+00
 TN6ah SX3eh  1 3.660000e-01    1.600000e+00
 TN6ah SX2eh  1 3.780000e-01    1.450000e+00
 TN6ah SX1eh  1 3.940000e-01    1.290000e+00
 TN5ah SC6vh  1 3.650000e-01    2.110000e+00
 TN5ah SC5vh  1 3.650000e-01    1.910000e+00
 TN5ah SC4vh  1 3.650000e-01    1.750000e+00
 TN5ah SC3vh  1 3.650000e-01    1.750000e+00
 TN5ah SC2vh  1 3.660000e-01    1.600000e+00
 TN5ah SC1vh  1 3.780000e-01    1.450000e+00
 TN5ah SX4vh  1 3.650000e-01    2.340000e+00
 TN5ah SX3vh  1 3.650000e-01    2.110000e+00
 TN5ah SX2vh  1 3.650000e-01    1.910000e+00
 TN5ah SX1vh  1 3.650000e-01    1.750000e+00
 TN5ah SC6eh  1 3.650000e-01    1.750000e+00
 TN5ah SC5eh  1 3.660000e-01    1.600000e+00
 TN5ah SC4eh  1 3.780000e-01    1.450000e+00
 TN5ah SC3eh  1 3.780000e-01    1.450000e+00
 TN5ah SC2eh  1 3.940000e-01    1.290000e+00
 TN5ah SC1eh  1 4.040000e-01    1.130000e+00
 TN5ah SX4eh  1 3.650000e-01    1.910000e+00
 TN5ah SX3eh  1 3.650000e-01    1.750000e+00
 TN5ah SX2eh  1 3.660000e-01    1.600000e+00
 TN5ah SX1eh  1 3.780000e-01    1.450000e+00
 TN4ah SC6vh  1 3.650000e-01    2.110000e+00
 TN4ah SC5vh  1 3.650000e-01    1.910000e+00
 TN4ah SC4vh  1 3.650000e-01    1.910000e+00
 TN4ah SC3vh  1 3.650000e-01    1.750000e+00
 TN4ah SC2vh  1 3.660000e-01    1.600000e+00
 TN4ah SC1vh  1 3.780000e-01    1.450000e+00
 TN4ah SX4vh  1 3.650000e-01    2.570000e+00
 TN4ah SX3vh  1 3.650000e-01    2.340000e+00
 TN4ah SX2vh  1 3.650000e-01    1.910000e+00
 TN4ah SX1vh  1 3.650000e-01    1.750000e+00
 TN4ah SC6eh  1 3.650000e-01    1.750000e+00
 TN4ah SC5eh  1 3.660000e-01    1.600000e+00
 TN4ah SC4eh  1 3.660000e-01    1.600000e+00
 TN4ah SC3eh  1 3.780000e-01    1.450000e+00
 TN4ah SC2eh  1 3.940000e-01    1.290000e+00
 TN4ah SC1eh  1 4.040000e-01    1.130000e+00
 TN4ah SX4eh  1 3.650000e-01    2.110000e+00
 TN4ah SX3eh  1 3.650000e-01    1.910000e+00
 TN4ah SX2eh  1 3.660000e-01    1.600000e+00
 TN4ah SX1eh  1 3.780000e-01    1.450000e+00
 TN3ah SC6vh  1 3.650000e-01    2.110000e+00
 TN3ah SC5vh  1 3.650000e-01    1.910000e+00
 TN3ah SC4vh  1 3.650000e-01    1.910000e+00
 TN3ah SC3vh  1 3.650000e-01    1.750000e+00
 TN3ah SC2vh  1 3.650000e-01    1.750000e+00
 TN3ah SC1vh  1 3.660000e-01    1.600000e+00
 TN3ah SX4vh  1 3.650000e-01    2.340000e+00
 TN3ah SX3vh  1 3.650000e-01    2.110000e+00
 TN3ah SX2vh  1 3.650000e-01    1.910000e+00
 TN3ah SX1vh  1 3.650000e-01    1.910000e+00
 TN3ah SC6eh  1 3.650000e-01    1.750000e+00
 TN3ah SC5eh  1 3.660000e-01    1.600000e+00
 TN3ah SC4eh  1 3.660000e-01    1.600000e+00
 TN3ah SC3eh  1 3.780000e-01    1.450000e+00
 TN3ah SC2eh  1 3.780000e-01    1.450000e+00
 TN3ah SC1eh  1 3.940000e-01    1.290000e+00
 TN3ah SX4eh  1 3.650000e-01    1.910000e+00
 TN3ah SX3eh  1 3.650000e-01    1.750000e+00
 TN3ah SX2eh  1 3.660000e-01    1.600000e+00
 TN3ah SX1eh  1 3.660000e-01    1.600000e+00
 TN2ah SC6vh  1 3.650000e-01    2.110000e+00
 TN2ah SC5vh  1 3.650000e-01    1.910000e+00
 TN2ah SC4vh  1 3.650000e-01    1.910000e+00
 TN2ah SC3vh  1 3.650000e-01    1.910000e+00
 TN2ah SC2vh  1 3.650000e-01    1.750000e+00
 TN2ah SC1vh  1 3.660000e-01    1.600000e+00
 TN2ah SX4vh  1 3.650000e-01    2.340000e+00
 TN2ah SX3vh  1 3.650000e-01    2.110000e+00
 TN2ah SX2vh  1 3.650000e-01    1.910000e+00
 TN2ah SX1vh  1 3.650000e-01    1.910000e+00
 TN2ah SC6eh  1 3.650000e-01    1.750000e+00
 TN2ah SC5eh  1 3.660000e-01    1.600000e+00
 TN2ah SC4eh  1 3.660000e-01    1.600000e+00
 TN2ah SC3eh  1 3.660000e-01    1.600000e+00
 TN2ah SC2eh  1 3.780000e-01    1.450000e+00
 TN2ah SC1eh  1 3.940000e-01    1.290000e+00
 TN2ah SX4eh  1 3.650000e-01    1.910000e+00
 TN2ah SX3eh  1 3.650000e-01    1.750000e+00
 TN2ah SX2eh  1 3.660000e-01    1.600000e+00
 TN2ah SX1eh  1 3.660000e-01    1.600000e+00
 TN1ah SC6vh  1 3.650000e-01    2.340000e+00
 TN1ah SC5vh  1 3.650000e-01    2.110000e+00
 TN1ah SC4vh  1 3.650000e-01    2.110000e+00
 TN1ah SC3vh  1 3.650000e-01    1.910000e+00
 TN1ah SC2vh  1 3.650000e-01    1.750000e+00
 TN1ah SC1vh  1 3.660000e-01    1.600000e+00
 TN1ah SX4vh  1 3.650000e-01    2.110000e+00
 TN1ah SX3vh  1 3.650000e-01    2.110000e+00
 TN1ah SX2vh  1 3.650000e-01    1.910000e+00
 TN1ah SX1vh  1 3.650000e-01    1.910000e+00
 TN1ah SC6eh  1 3.650000e-01    1.910000e+00
 TN1ah SC5eh  1 3.650000e-01    1.750000e+00
 TN1ah SC4eh  1 3.650000e-01    1.750000e+00
 TN1ah SC3eh  1 3.660000e-01    1.600000e+00
 TN1ah SC2eh  1 3.780000e-01    1.450000e+00
 TN1ah SC1eh  1 3.940000e-01    1.290000e+00
 TN1ah SX4eh  1 3.650000e-01    1.750000e+00
 TN1ah SX3eh  1 3.650000e-01    1.750000e+00
 TN1ah SX2eh  1 3.660000e-01    1.600000e+00
 TN1ah SX1eh  1 3.660000e-01    1.600000e+00
  TP6h  SP6r  1 3.650000e-01    3.930000e+00
  TP6h  SP5r  1 3.650000e-01    3.640000e+00
  TP6r  SP5h  1 3.650000e-01    3.640000e+00
  TP6h  SP4r  1 3.650000e-01    3.370000e+00
  TP6r  SP4h  1 3.650000e-01    3.370000e+00
  TP6h  SP3r  1 3.650000e-01    3.100000e+00
  TP6r  SP3h  1 3.650000e-01    3.100000e+00
  TP6h  SP2r  1 3.650000e-01    3.100000e+00
  TP6r  SP2h  1 3.650000e-01    3.100000e+00
  TP6h  SP1r  1 3.650000e-01    2.830000e+00
  TP6r  SP1h  1 3.650000e-01    2.830000e+00
  TP6h  SN6r  1 3.650000e-01    2.570000e+00
  TP6r  SN6h  1 3.650000e-01    2.570000e+00
  TP6h  SN5r  1 3.650000e-01    2.110000e+00
  TP6r  SN5h  1 3.650000e-01    2.110000e+00
  TP6h  SN4r  1 3.650000e-01    1.910000e+00
  TP6r  SN4h  1 3.650000e-01    1.910000e+00
  TP6h  SN3r  1 3.650000e-01    1.750000e+00
  TP6r  SN3h  1 3.650000e-01    1.750000e+00
  TP6h  SN2r  1 3.660000e-01    1.600000e+00
  TP6r  SN2h  1 3.660000e-01    1.600000e+00
  TP6h  SN1r  1 3.780000e-01    1.450000e+00
  TP6r  SN1h  1 3.780000e-01    1.450000e+00
  TP5h  SP5r  1 3.650000e-01    3.370000e+00
  TP5h  SP4r  1 3.650000e-01    3.100000e+00
  TP5r  SP4h  1 3.650000e-01    3.100000e+00
  TP5h  SP3r  1 3.650000e-01    2.830000e+00
  TP5r  SP3h  1 3.650000e-01    2.830000e+00
  TP5h  SP2r  1 3.650000e-01    2.830000e+00
  TP5r  SP2h  1 3.650000e-01    2.830000e+00
  TP5h  SP1r  1 3.650000e-01    2.570000e+00
  TP5r  SP1h  1 3.650000e-01    2.570000e+00
  TP5h  SN6r  1 3.650000e-01    2.340000e+00
  TP5r  SN6h  1 3.650000e-01    2.340000e+00
  TP5h  SN5r  1 3.650000e-01    2.110000e+00
  TP5r  SN5h  1 3.650000e-01    2.110000e+00
  TP5h  SN4r  1 3.650000e-01    2.110000e+00
  TP5r  SN4h  1 3.650000e-01    2.110000e+00
  TP5h  SN3r  1 3.650000e-01    1.750000e+00
  TP5r  SN3h  1 3.650000e-01    1.750000e+00
  TP5h  SN2r  1 3.660000e-01    1.600000e+00
  TP5r  SN2h  1 3.660000e-01    1.600000e+00
  TP5h  SN1r  1 3.780000e-01    1.450000e+00
  TP5r  SN1h  1 3.780000e-01    1.450000e+00
  TP4h  SP4r  1 3.650000e-01    3.100000e+00
  TP4h  SP3r  1 3.650000e-01    2.830000e+00
  TP4r  SP3h  1 3.650000e-01    2.830000e+00
  TP4h  SP2r  1 3.650000e-01    2.830000e+00
  TP4r  SP2h  1 3.650000e-01    2.830000e+00
  TP4h  SP1r  1 3.650000e-01    2.570000e+00
  TP4r  SP1h  1 3.650000e-01    2.570000e+00
  TP4h  SN6r  1 3.650000e-01    2.340000e+00
  TP4r  SN6h  1 3.650000e-01    2.340000e+00
  TP4h  SN5r  1 3.650000e-01    2.110000e+00
  TP4r  SN5h  1 3.650000e-01    2.110000e+00
  TP4h  SN4r  1 3.650000e-01    2.110000e+00
  TP4r  SN4h  1 3.650000e-01    2.110000e+00
  TP4h  SN3r  1 3.650000e-01    1.910000e+00
  TP4r  SN3h  1 3.650000e-01    1.910000e+00
  TP4h  SN2r  1 3.650000e-01    1.750000e+00
  TP4r  SN2h  1 3.650000e-01    1.750000e+00
  TP4h  SN1r  1 3.660000e-01    1.600000e+00
  TP4r  SN1h  1 3.660000e-01    1.600000e+00
  TP3h  SP3r  1 3.650000e-01    2.830000e+00
  TP3h  SP2r  1 3.650000e-01    2.830000e+00
  TP3r  SP2h  1 3.650000e-01    2.830000e+00
  TP3h  SP1r  1 3.650000e-01    2.570000e+00
  TP3r  SP1h  1 3.650000e-01    2.570000e+00
  TP3h  SN6r  1 3.650000e-01    2.340000e+00
  TP3r  SN6h  1 3.650000e-01    2.340000e+00
  TP3h  SN5r  1 3.650000e-01    2.110000e+00
  TP3r  SN5h  1 3.650000e-01    2.110000e+00
  TP3h  SN4r  1 3.650000e-01    2.110000e+00
  TP3r  SN4h  1 3.650000e-01    2.110000e+00
  TP3h  SN3r  1 3.650000e-01    1.910000e+00
  TP3r  SN3h  1 3.650000e-01    1.910000e+00
  TP3h  SN2r  1 3.650000e-01    1.910000e+00
  TP3r  SN2h  1 3.650000e-01    1.910000e+00
  TP3h  SN1r  1 3.650000e-01    1.750000e+00
  TP3r  SN1h  1 3.650000e-01    1.750000e+00
  TP2h  SP2r  1 3.650000e-01    2.830000e+00
  TP2h  SP1r  1 3.650000e-01    2.570000e+00
  TP2r  SP1h  1 3.650000e-01    2.570000e+00
  TP2h  SN6r  1 3.650000e-01    2.570000e+00
  TP2r  SN6h  1 3.650000e-01    2.570000e+00
  TP2h  SN5r  1 3.650000e-01    2.340000e+00
  TP2r  SN5h  1 3.650000e-01    2.340000e+00
  TP2h  SN4r  1 3.650000e-01    2.110000e+00
  TP2r  SN4h  1 3.650000e-01    2.110000e+00
  TP2h  SN3r  1 3.650000e-01    1.910000e+00
  TP2r  SN3h  1 3.650000e-01    1.910000e+00
  TP2h  SN2r  1 3.650000e-01    1.910000e+00
  TP2r  SN2h  1 3.650000e-01    1.910000e+00
  TP2h  SN1r  1 3.650000e-01    1.910000e+00
  TP2r  SN1h  1 3.650000e-01    1.910000e+00
  TP1h  SP1r  1 3.650000e-01    2.570000e+00
  TP1h  SN6r  1 3.650000e-01    2.570000e+00
  TP1r  SN6h  1 3.650000e-01    2.570000e+00
  TP1h  SN5r  1 3.650000e-01    2.340000e+00
  TP1r  SN5h  1 3.650000e-01    2.340000e+00
  TP1h  SN4r  1 3.650000e-01    2.340000e+00
  TP1r  SN4h  1 3.650000e-01    2.340000e+00
  TP1h  SN3r  1 3.650000e-01    1.910000e+00
  TP1r  SN3h  1 3.650000e-01    1.910000e+00
  TP1h  SN2r  1 3.650000e-01    1.910000e+00
  TP1r  SN2h  1 3.650000e-01    1.910000e+00
  TP1h  SN1r  1 3.650000e-01    1.910000e+00
  TP1r  SN1h  1 3.650000e-01    1.910000e+00
  TN6h  SN6r  1 3.650000e-01    2.570000e+00
  TN6h  SN5r  1 3.650000e-01    2.570000e+00
  TN6r  SN5h  1 3.650000e-01    2.570000e+00
  TN6h  SN4r  1 3.650000e-01    2.570000e+00
  TN6r  SN4h  1 3.650000e-01    2.570000e+00
  TN6h  SN3r  1 3.650000e-01    2.110000e+00
  TN6r  SN3h  1 3.650000e-01    2.110000e+00
  TN6h  SN2r  1 3.650000e-01    1.910000e+00
  TN6r  SN2h  1 3.650000e-01    1.910000e+00
  TN6h  SN1r  1 3.650000e-01    1.910000e+00
  TN6r  SN1h  1 3.650000e-01    1.910000e+00
  TN5h  SN5r  1 3.650000e-01    2.340000e+00
  TN5h  SN4r  1 3.650000e-01    2.340000e+00
  TN5r  SN4h  1 3.650000e-01    2.340000e+00
  TN5h  SN3r  1 3.650000e-01    2.110000e+00
  TN5r  SN3h  1 3.650000e-01    2.110000e+00
  TN5h  SN2r  1 3.650000e-01    2.110000e+00
  TN5r  SN2h  1 3.650000e-01    2.110000e+00
  TN5h  SN1r  1 3.650000e-01    1.910000e+00
  TN5r  SN1h  1 3.650000e-01    1.910000e+00
  TN4h  SN4r  1 3.650000e-01    2.340000e+00
  TN4h  SN3r  1 3.650000e-01    2.110000e+00
  TN4r  SN3h  1 3.650000e-01    2.110000e+00
  TN4h  SN2r  1 3.650000e-01    2.110000e+00
  TN4r  SN2h  1 3.650000e-01    2.110000e+00
  TN4h  SN1r  1 3.650000e-01    1.910000e+00
  TN4r  SN1h  1 3.650000e-01    1.910000e+00
  TN3h  SN3r  1 3.650000e-01    2.110000e+00
  TN3h  SN2r  1 3.650000e-01    2.110000e+00
  TN3r  SN2h  1 3.650000e-01    2.110000e+00
  TN3h  SN1r  1 3.650000e-01    1.910000e+00
  TN3r  SN1h  1 3.650000e-01    1.910000e+00
  TN2h  SN2r  1 3.650000e-01    2.110000e+00
  TN2h  SN1r  1 3.650000e-01    1.910000e+00
  TN2r  SN1h  1 3.650000e-01    1.910000e+00
  TN1h  SN1r  1 3.650000e-01    2.110000e+00
 TP6dh SP6dr  1 3.650000e-01    3.640000e+00
 TP6dh SP5dr  1 3.650000e-01    3.370000e+00
 TP6dr SP5dh  1 3.650000e-01    3.370000e+00
 TP6dh SP4dr  1 3.650000e-01    3.100000e+00
 TP6dr SP4dh  1 3.650000e-01    3.100000e+00
 TP6dh SP3dr  1 3.650000e-01    2.830000e+00
 TP6dr SP3dh  1 3.650000e-01    2.830000e+00
 TP6dh SP2dr  1 3.650000e-01    2.830000e+00
 TP6dr SP2dh  1 3.650000e-01    2.830000e+00
 TP6dh SP1dr  1 3.650000e-01    2.570000e+00
 TP6dr SP1dh  1 3.650000e-01    2.570000e+00
 TP6dh SN6dr  1 3.650000e-01    2.340000e+00
 TP6dr SN6dh  1 3.650000e-01    2.340000e+00
 TP6dh SN5dr  1 3.650000e-01    1.910000e+00
 TP6dr SN5dh  1 3.650000e-01    1.910000e+00
 TP6dh SN4dr  1 3.650000e-01    1.750000e+00
 TP6dr SN4dh  1 3.650000e-01    1.750000e+00
 TP6dh SN3dr  1 3.650000e-01    1.750000e+00
 TP6dr SN3dh  1 3.650000e-01    1.750000e+00
 TP6dh SN2dr  1 3.660000e-01    1.600000e+00
 TP6dr SN2dh  1 3.660000e-01    1.600000e+00
 TP6dh SN1dr  1 3.780000e-01    1.450000e+00
 TP6dr SN1dh  1 3.780000e-01    1.450000e+00
 TP6dh SP6ar  1 3.650000e-01    4.220000e+00
 TP6dr SP6ah  1 3.650000e-01    4.220000e+00
 TP6dh SP5ar  1 3.650000e-01    3.930000e+00
 TP6dr SP5ah  1 3.650000e-01    3.930000e+00
 TP6dh SP4ar  1 3.650000e-01    3.640000e+00
 TP6dr SP4ah  1 3.650000e-01    3.640000e+00
 TP6dh SP3ar  1 3.650000e-01    3.370000e+00
 TP6dr SP3ah  1 3.650000e-01    3.370000e+00
 TP6dh SP2ar  1 3.650000e-01    3.370000e+00
 TP6dr SP2ah  1 3.650000e-01    3.370000e+00
 TP6dh SP1ar  1 3.650000e-01    3.100000e+00
 TP6dr SP1ah  1 3.650000e-01    3.100000e+00
 TP6dh SN6ar  1 3.650000e-01    2.830000e+00
 TP6dr SN6ah  1 3.650000e-01    2.830000e+00
 TP6dh SN5ar  1 3.650000e-01    2.340000e+00
 TP6dr SN5ah  1 3.650000e-01    2.340000e+00
 TP6dh SN4ar  1 3.650000e-01    2.110000e+00
 TP6dr SN4ah  1 3.650000e-01    2.110000e+00
 TP6dh SN3ar  1 3.650000e-01    1.750000e+00
 TP6dr SN3ah  1 3.650000e-01    1.750000e+00
 TP6dh SN2ar  1 3.660000e-01    1.600000e+00
 TP6dr SN2ah  1 3.660000e-01    1.600000e+00
 TP6dh SN1ar  1 3.780000e-01    1.450000e+00
 TP6dr SN1ah  1 3.780000e-01    1.450000e+00
 TP5dh SP5dr  1 3.650000e-01    3.100000e+00
 TP5dh SP4dr  1 3.650000e-01    2.830000e+00
 TP5dr SP4dh  1 3.650000e-01    2.830000e+00
 TP5dh SP3dr  1 3.650000e-01    2.570000e+00
 TP5dr SP3dh  1 3.650000e-01    2.570000e+00
 TP5dh SP2dr  1 3.650000e-01    2.570000e+00
 TP5dr SP2dh  1 3.650000e-01    2.570000e+00
 TP5dh SP1dr  1 3.650000e-01    2.340000e+00
 TP5dr SP1dh  1 3.650000e-01    2.340000e+00
 TP5dh SN6dr  1 3.650000e-01    2.110000e+00
 TP5dr SN6dh  1 3.650000e-01    2.110000e+00
 TP5dh SN5dr  1 3.650000e-01    1.910000e+00
 TP5dr SN5dh  1 3.650000e-01    1.910000e+00
 TP5dh SN4dr  1 3.650000e-01    1.910000e+00
 TP5dr SN4dh  1 3.650000e-01    1.910000e+00
 TP5dh SN3dr  1 3.650000e-01    1.750000e+00
 TP5dr SN3dh  1 3.650000e-01    1.750000e+00
 TP5dh SN2dr  1 3.660000e-01    1.600000e+00
 TP5dr SN2dh  1 3.660000e-01    1.600000e+00
 TP5dh SN1dr  1 3.780000e-01    1.450000e+00
 TP5dr SN1dh  1 3.780000e-01    1.450000e+00
 TP5dh SP5ar  1 3.650000e-01    3.640000e+00
 TP5dr SP5ah  1 3.650000e-01    3.640000e+00
 TP5dh SP4ar  1 3.650000e-01    3.370000e+00
 TP5dr SP4ah  1 3.650000e-01    3.370000e+00
 TP5dh SP3ar  1 3.650000e-01    3.100000e+00
 TP5dr SP3ah  1 3.650000e-01    3.100000e+00
 TP5dh SP2ar  1 3.650000e-01    3.100000e+00
 TP5dr SP2ah  1 3.650000e-01    3.100000e+00
 TP5dh SP1ar  1 3.650000e-01    2.830000e+00
 TP5dr SP1ah  1 3.650000e-01    2.830000e+00
 TP5dh SN6ar  1 3.650000e-01    2.570000e+00
 TP5dr SN6ah  1 3.650000e-01    2.570000e+00
 TP5dh SN5ar  1 3.650000e-01    2.340000e+00
 TP5dr SN5ah  1 3.650000e-01    2.340000e+00
 TP5dh SN4ar  1 3.650000e-01    2.340000e+00
 TP5dr SN4ah  1 3.650000e-01    2.340000e+00
 TP5dh SN3ar  1 3.650000e-01    1.750000e+00
 TP5dr SN3ah  1 3.650000e-01    1.750000e+00
 TP5dh SN2ar  1 3.660000e-01    1.600000e+00
 TP5dr SN2ah  1 3.660000e-01    1.600000e+00
 TP5dh SN1ar  1 3.780000e-01    1.450000e+00
 TP5dr SN1ah  1 3.780000e-01    1.450000e+00
 TP4dh SP4dr  1 3.650000e-01    2.830000e+00
 TP4dh SP3dr  1 3.650000e-01    2.570000e+00
 TP4dr SP3dh  1 3.650000e-01    2.570000e+00
 TP4dh SP2dr  1 3.650000e-01    2.570000e+00
 TP4dr SP2dh  1 3.650000e-01    2.570000e+00
 TP4dh SP1dr  1 3.650000e-01    2.340000e+00
 TP4dr SP1dh  1 3.650000e-01    2.340000e+00
 TP4dh SN6dr  1 3.650000e-01    2.110000e+00
 TP4dr SN6dh  1 3.650000e-01    2.110000e+00
 TP4dh SN5dr  1 3.650000e-01    1.910000e+00
 TP4dr SN5dh  1 3.650000e-01    1.910000e+00
 TP4dh SN4dr  1 3.650000e-01    1.910000e+00
 TP4dr SN4dh  1 3.650000e-01    1.910000e+00
 TP4dh SN3dr  1 3.650000e-01    1.750000e+00
 TP4dr SN3dh  1 3.650000e-01    1.750000e+00
 TP4dh SN2dr  1 3.650000e-01    1.750000e+00
 TP4dr SN2dh  1 3.650000e-01    1.750000e+00
 TP4dh SN1dr  1 3.660000e-01    1.600000e+00
 TP4dr SN1dh  1 3.660000e-01    1.600000e+00
 TP4dh SP4ar  1 3.650000e-01    3.370000e+00
 TP4dr SP4ah  1 3.650000e-01    3.370000e+00
 TP4dh SP3ar  1 3.650000e-01    3.100000e+00
 TP4dr SP3ah  1 3.650000e-01    3.100000e+00
 TP4dh SP2ar  1 3.650000e-01    3.100000e+00
 TP4dr SP2ah  1 3.650000e-01    3.100000e+00
 TP4dh SP1ar  1 3.650000e-01    2.830000e+00
 TP4dr SP1ah  1 3.650000e-01    2.830000e+00
 TP4dh SN6ar  1 3.650000e-01    2.570000e+00
 TP4dr SN6ah  1 3.650000e-01    2.570000e+00
 TP4dh SN5ar  1 3.650000e-01    2.340000e+00
 TP4dr SN5ah  1 3.650000e-01    2.340000e+00
 TP4dh SN4ar  1 3.650000e-01    2.340000e+00
 TP4dr SN4ah  1 3.650000e-01    2.340000e+00
 TP4dh SN3ar  1 3.650000e-01    2.110000e+00
 TP4dr SN3ah  1 3.650000e-01    2.110000e+00
 TP4dh SN2ar  1 3.650000e-01    1.750000e+00
 TP4dr SN2ah  1 3.650000e-01    1.750000e+00
 TP4dh SN1ar  1 3.660000e-01    1.600000e+00
 TP4dr SN1ah  1 3.660000e-01    1.600000e+00
 TP3dh SP3dr  1 3.650000e-01    2.570000e+00
 TP3dh SP2dr  1 3.650000e-01    2.570000e+00
 TP3dr SP2dh  1 3.650000e-01    2.570000e+00
 TP3dh SP1dr  1 3.650000e-01    2.340000e+00
 TP3dr SP1dh  1 3.650000e-01    2.340000e+00
 TP3dh SN6dr  1 3.650000e-01    2.110000e+00
 TP3dr SN6dh  1 3.650000e-01    2.110000e+00
 TP3dh SN5dr  1 3.650000e-01    1.910000e+00
 TP3dr SN5dh  1 3.650000e-01    1.910000e+00
 TP3dh SN4dr  1 3.650000e-01    1.910000e+00
 TP3dr SN4dh  1 3.650000e-01    1.910000e+00
 TP3dh SN3dr  1 3.650000e-01    1.750000e+00
 TP3dr SN3dh  1 3.650000e-01    1.750000e+00
 TP3dh SN2dr  1 3.650000e-01    1.750000e+00
 TP3dr SN2dh  1 3.650000e-01    1.750000e+00
 TP3dh SN1dr  1 3.650000e-01    1.750000e+00
 TP3dr SN1dh  1 3.650000e-01    1.750000e+00
 TP3dh SP3ar  1 3.650000e-01    3.100000e+00
 TP3dr SP3ah  1 3.650000e-01    3.100000e+00
 TP3dh SP2ar  1 3.650000e-01    3.100000e+00
 TP3dr SP2ah  1 3.650000e-01    3.100000e+00
 TP3dh SP1ar  1 3.650000e-01    2.830000e+00
 TP3dr SP1ah  1 3.650000e-01    2.830000e+00
 TP3dh SN6ar  1 3.650000e-01    2.570000e+00
 TP3dr SN6ah  1 3.650000e-01    2.570000e+00
 TP3dh SN5ar  1 3.650000e-01    2.340000e+00
 TP3dr SN5ah  1 3.650000e-01    2.340000e+00
 TP3dh SN4ar  1 3.650000e-01    2.340000e+00
 TP3dr SN4ah  1 3.650000e-01    2.340000e+00
 TP3dh SN3ar  1 3.650000e-01    2.110000e+00
 TP3dr SN3ah  1 3.650000e-01    2.110000e+00
 TP3dh SN2ar  1 3.650000e-01    2.110000e+00
 TP3dr SN2ah  1 3.650000e-01    2.110000e+00
 TP3dh SN1ar  1 3.650000e-01    1.750000e+00
 TP3dr SN1ah  1 3.650000e-01    1.750000e+00
 TP2dh SP2dr  1 3.650000e-01    2.570000e+00
 TP2dh SP1dr  1 3.650000e-01    2.340000e+00
 TP2dr SP1dh  1 3.650000e-01    2.340000e+00
 TP2dh SN6dr  1 3.650000e-01    2.340000e+00
 TP2dr SN6dh  1 3.650000e-01    2.340000e+00
 TP2dh SN5dr  1 3.650000e-01    2.110000e+00
 TP2dr SN5dh  1 3.650000e-01    2.110000e+00
 TP2dh SN4dr  1 3.650000e-01    1.910000e+00
 TP2dr SN4dh  1 3.650000e-01    1.910000e+00
 TP2dh SN3dr  1 3.650000e-01    1.750000e+00
 TP2dr SN3dh  1 3.650000e-01    1.750000e+00
 TP2dh SN2dr  1 3.650000e-01    1.750000e+00
 TP2dr SN2dh  1 3.650000e-01    1.750000e+00
 TP2dh SN1dr  1 3.650000e-01    1.750000e+00
 TP2dr SN1dh  1 3.650000e-01    1.750000e+00
 TP2dh SP2ar  1 3.650000e-01    3.100000e+00
 TP2dr SP2ah  1 3.650000e-01    3.100000e+00
 TP2dh SP1ar  1 3.650000e-01    2.830000e+00
 TP2dr SP1ah  1 3.650000e-01    2.830000e+00
 TP2dh SN6ar  1 3.650000e-01    2.830000e+00
 TP2dr SN6ah  1 3.650000e-01    2.830000e+00
 TP2dh SN5ar  1 3.650000e-01    2.570000e+00
 TP2dr SN5ah  1 3.650000e-01    2.570000e+00
 TP2dh SN4ar  1 3.650000e-01    2.340000e+00
 TP2dr SN4ah  1 3.650000e-01    2.340000e+00
 TP2dh SN3ar  1 3.650000e-01    2.110000e+00
 TP2dr SN3ah  1 3.650000e-01    2.110000e+00
 TP2dh SN2ar  1 3.650000e-01    2.110000e+00
 TP2dr SN2ah  1 3.650000e-01    2.110000e+00
 TP2dh SN1ar  1 3.650000e-01    2.110000e+00
 TP2dr SN1ah  1 3.650000e-01    2.110000e+00
 TP1dh SP1dr  1 3.650000e-01    2.340000e+00
 TP1dh SN6dr  1 3.650000e-01    2.340000e+00
 TP1dr SN6dh  1 3.650000e-01    2.340000e+00
 TP1dh SN5dr  1 3.650000e-01    2.110000e+00
 TP1dr SN5dh  1 3.650000e-01    2.110000e+00
 TP1dh SN4dr  1 3.650000e-01    2.110000e+00
 TP1dr SN4dh  1 3.650000e-01    2.110000e+00
 TP1dh SN3dr  1 3.650000e-01    1.750000e+00
 TP1dr SN3dh  1 3.650000e-01    1.750000e+00
 TP1dh SN2dr  1 3.650000e-01    1.750000e+00
 TP1dr SN2dh  1 3.650000e-01    1.750000e+00
 TP1dh SN1dr  1 3.650000e-01    1.750000e+00
 TP1dr SN1dh  1 3.650000e-01    1.750000e+00
 TP1dh SP1ar  1 3.650000e-01    2.830000e+00
 TP1dr SP1ah  1 3.650000e-01    2.830000e+00
 TP1dh SN6ar  1 3.650000e-01    2.830000e+00
 TP1dr SN6ah  1 3.650000e-01    2.830000e+00
 TP1dh SN5ar  1 3.650000e-01    2.570000e+00
 TP1dr SN5ah  1 3.650000e-01    2.570000e+00
 TP1dh SN4ar  1 3.650000e-01    2.570000e+00
 TP1dr SN4ah  1 3.650000e-01    2.570000e+00
 TP1dh SN3ar  1 3.650000e-01    2.110000e+00
 TP1dr SN3ah  1 3.650000e-01    2.110000e+00
 TP1dh SN2ar  1 3.650000e-01    2.110000e+00
 TP1dr SN2ah  1 3.650000e-01    2.110000e+00
 TP1dh SN1ar  1 3.650000e-01    2.110000e+00
 TP1dr SN1ah  1 3.650000e-01    2.110000e+00
 TN6dh SN6dr  1 3.650000e-01    2.340000e+00
 TN6dh SN5dr  1 3.650000e-01    2.340000e+00
 TN6dr SN5dh  1 3.650000e-01    2.340000e+00
 TN6dh SN4dr  1 3.650000e-01    2.340000e+00
 TN6dr SN4dh  1 3.650000e-01    2.340000e+00
 TN6dh SN3dr  1 3.650000e-01    1.910000e+00
 TN6dr SN3dh  1 3.650000e-01    1.910000e+00
 TN6dh SN2dr  1 3.650000e-01    1.750000e+00
 TN6dr SN2dh  1 3.650000e-01    1.750000e+00
 TN6dh SN1dr  1 3.650000e-01    1.750000e+00
 TN6dr SN1dh  1 3.650000e-01    1.750000e+00
 TN6dh SN6ar  1 3.650000e-01    2.830000e+00
 TN6dr SN6ah  1 3.650000e-01    2.830000e+00
 TN6dh SN5ar  1 3.650000e-01    2.830000e+00
 TN6dr SN5ah  1 3.650000e-01    2.830000e+00
 TN6dh SN4ar  1 3.650000e-01    2.830000e+00
 TN6dr SN4ah  1 3.650000e-01    2.830000e+00
 TN6dh SN3ar  1 3.650000e-01    2.340000e+00
 TN6dr SN3ah  1 3.650000e-01    2.340000e+00
 TN6dh SN2ar  1 3.650000e-01    2.110000e+00
 TN6dr SN2ah  1 3.650000e-01    2.110000e+00
 TN6dh SN1ar  1 3.650000e-01    2.110000e+00
 TN6dr SN1ah  1 3.650000e-01    2.110000e+00
 TN5dh SN5dr  1 3.650000e-01    2.110000e+00
 TN5dh SN4dr  1 3.650000e-01    2.110000e+00
 TN5dr SN4dh  1 3.650000e-01    2.110000e+00
 TN5dh SN3dr  1 3.650000e-01    1.910000e+00
 TN5dr SN3dh  1 3.650000e-01    1.910000e+00
 TN5dh SN2dr  1 3.650000e-01    1.910000e+00
 TN5dr SN2dh  1 3.650000e-01    1.910000e+00
 TN5dh SN1dr  1 3.650000e-01    1.750000e+00
 TN5dr SN1dh  1 3.650000e-01    1.750000e+00
 TN5dh SN5ar  1 3.650000e-01    2.570000e+00
 TN5dr SN5ah  1 3.650000e-01    2.570000e+00
 TN5dh SN4ar  1 3.650000e-01    2.570000e+00
 TN5dr SN4ah  1 3.650000e-01    2.570000e+00
 TN5dh SN3ar  1 3.650000e-01    2.340000e+00
 TN5dr SN3ah  1 3.650000e-01    2.340000e+00
 TN5dh SN2ar  1 3.650000e-01    2.340000e+00
 TN5dr SN2ah  1 3.650000e-01    2.340000e+00
 TN5dh SN1ar  1 3.650000e-01    2.110000e+00
 TN5dr SN1ah  1 3.650000e-01    2.110000e+00
 TN4dh SN4dr  1 3.650000e-01    2.110000e+00
 TN4dh SN3dr  1 3.650000e-01    1.910000e+00
 TN4dr SN3dh  1 3.650000e-01    1.910000e+00
 TN4dh SN2dr  1 3.650000e-01    1.910000e+00
 TN4dr SN2dh  1 3.650000e-01    1.910000e+00
 TN4dh SN1dr  1 3.650000e-01    1.750000e+00
 TN4dr SN1dh  1 3.650000e-01    1.750000e+00
 TN4dh SN4ar  1 3.650000e-01    2.570000e+00
 TN4dr SN4ah  1 3.650000e-01    2.570000e+00
 TN4dh SN3ar  1 3.650000e-01    2.340000e+00
 TN4dr SN3ah  1 3.650000e-01    2.340000e+00
 TN4dh SN2ar  1 3.650000e-01    2.340000e+00
 TN4dr SN2ah  1 3.650000e-01    2.340000e+00
 TN4dh SN1ar  1 3.650000e-01    2.110000e+00
 TN4dr SN1ah  1 3.650000e-01    2.110000e+00
 TN3dh SN3dr  1 3.650000e-01    1.910000e+00
 TN3dh SN2dr  1 3.650000e-01    1.910000e+00
 TN3dr SN2dh  1 3.650000e-01    1.910000e+00
 TN3dh SN1dr  1 3.650000e-01    1.750000e+00
 TN3dr SN1dh  1 3.650000e-01    1.750000e+00
 TN3dh SN3ar  1 3.650000e-01    2.340000e+00
 TN3dr SN3ah  1 3.650000e-01    2.340000e+00
 TN3dh SN2ar  1 3.650000e-01    2.340000e+00
 TN3dr SN2ah  1 3.650000e-01    2.340000e+00
 TN3dh SN1ar  1 3.650000e-01    2.110000e+00
 TN3dr SN1ah  1 3.650000e-01    2.110000e+00
 TN2dh SN2dr  1 3.650000e-01    1.910000e+00
 TN2dh SN1dr  1 3.650000e-01    1.750000e+00
 TN2dr SN1dh  1 3.650000e-01    1.750000e+00
 TN2dh SN2ar  1 3.650000e-01    2.340000e+00
 TN2dr SN2ah  1 3.650000e-01    2.340000e+00
 TN2dh SN1ar  1 3.650000e-01    2.110000e+00
 TN2dr SN1ah  1 3.650000e-01    2.110000e+00
 TN1dh SN1dr  1 3.650000e-01    1.910000e+00
 TN1dh SN1ar  1 3.650000e-01    2.340000e+00
 TN1dr SN1ah  1 3.650000e-01    2.340000e+00
 TP6ah SP6ar  1 3.650000e-01    3.640000e+00
 TP6ah SP5dr  1 3.650000e-01    3.930000e+00
 TP6ar SP5dh  1 3.650000e-01    3.930000e+00
 TP6ah SP4dr  1 3.650000e-01    3.640000e+00
 TP6ar SP4dh  1 3.650000e-01    3.640000e+00
 TP6ah SP3dr  1 3.650000e-01    3.370000e+00
 TP6ar SP3dh  1 3.650000e-01    3.370000e+00
 TP6ah SP2dr  1 3.650000e-01    3.370000e+00
 TP6ar SP2dh  1 3.650000e-01    3.370000e+00
 TP6ah SP1dr  1 3.650000e-01    3.100000e+00
 TP6ar SP1dh  1 3.650000e-01    3.100000e+00
 TP6ah SN6dr  1 3.650000e-01    2.830000e+00
 TP6ar SN6dh  1 3.650000e-01    2.830000e+00
 TP6ah SN5dr  1 3.650000e-01    2.340000e+00
 TP6ar SN5dh  1 3.650000e-01    2.340000e+00
 TP6ah SN4dr  1 3.650000e-01    2.110000e+00
 TP6ar SN4dh  1 3.650000e-01    2.110000e+00
 TP6ah SN3dr  1 3.650000e-01    1.750000e+00
 TP6ar SN3dh  1 3.650000e-01    1.750000e+00
 TP6ah SN2dr  1 3.660000e-01    1.600000e+00
 TP6ar SN2dh  1 3.660000e-01    1.600000e+00
 TP6ah SN1dr  1 3.780000e-01    1.450000e+00
 TP6ar SN1dh  1 3.780000e-01    1.450000e+00
 TP6ah SP5ar  1 3.650000e-01    3.370000e+00
 TP6ar SP5ah  1 3.650000e-01    3.370000e+00
 TP6ah SP4ar  1 3.650000e-01    3.100000e+00
 TP6ar SP4ah  1 3.650000e-01    3.100000e+00
 TP6ah SP3ar  1 3.650000e-01    2.830000e+00
 TP6ar SP3ah  1 3.650000e-01    2.830000e+00
 TP6ah SP2ar  1 3.650000e-01    2.830000e+00
 TP6ar SP2ah  1 3.650000e-01    2.830000e+00
 TP6ah SP1ar  1 3.650000e-01    2.570000e+00
 TP6ar SP1ah  1 3.650000e-01    2.570000e+00
 TP6ah SN6ar  1 3.650000e-01    2.340000e+00
 TP6ar SN6ah  1 3.650000e-01    2.340000e+00
 TP6ah SN5ar  1 3.650000e-01    1.910000e+00
 TP6ar SN5ah  1 3.650000e-01    1.910000e+00
 TP6ah SN4ar  1 3.650000e-01    1.750000e+00
 TP6ar SN4ah  1 3.650000e-01    1.750000e+00
 TP6ah SN3ar  1 3.650000e-01    1.750000e+00
 TP6ar SN3ah  1 3.650000e-01    1.750000e+00
 TP6ah SN2ar  1 3.660000e-01    1.600000e+00
 TP6ar SN2ah  1 3.660000e-01    1.600000e+00
 TP6ah SN1ar  1 3.780000e-01    1.450000e+00
 TP6ar SN1ah  1 3.780000e-01    1.450000e+00
 TP5ah SP5ar  1 3.650000e-01    3.100000e+00
 TP5ah SP4dr  1 3.650000e-01    3.370000e+00
 TP5ar SP4dh  1 3.650000e-01    3.370000e+00
 TP5ah SP3dr  1 3.650000e-01    3.100000e+00
 TP5ar SP3dh  1 3.650000e-01    3.100000e+00
 TP5ah SP2dr  1 3.650000e-01    3.100000e+00
 TP5ar SP2dh  1 3.650000e-01    3.100000e+00
 TP5ah SP1dr  1 3.650000e-01    2.830000e+00
 TP5ar SP1dh  1 3.650000e-01    2.830000e+00
 TP5ah SN6dr  1 3.650000e-01    2.570000e+00
 TP5ar SN6dh  1 3.650000e-01    2.570000e+00
 TP5ah SN5dr  1 3.650000e-01    2.340000e+00
 TP5ar SN5dh  1 3.650000e-01    2.340000e+00
 TP5ah SN4dr  1 3.650000e-01    2.340000e+00
 TP5ar SN4dh  1 3.650000e-01    2.340000e+00
 TP5ah SN3dr  1 3.650000e-01    1.750000e+00
 TP5ar SN3dh  1 3.650000e-01    1.750000e+00
 TP5ah SN2dr  1 3.660000e-01    1.600000e+00
 TP5ar SN2dh  1 3.660000e-01    1.600000e+00
 TP5ah SN1dr  1 3.780000e-01    1.450000e+00
 TP5ar SN1dh  1 3.780000e-01    1.450000e+00
 TP5ah SP4ar  1 3.650000e-01    2.830000e+00
 TP5ar SP4ah  1 3.650000e-01    2.830000e+00
 TP5ah SP3ar  1 3.650000e-01    2.570000e+00
 TP5ar SP3ah  1 3.650000e-01    2.570000e+00
 TP5ah SP2ar  1 3.650000e-01    2.570000e+00
 TP5ar SP2ah  1 3.650000e-01    2.570000e+00
 TP5ah SP1ar  1 3.650000e-01    2.340000e+00
 TP5ar SP1ah  1 3.650000e-01    2.340000e+00
 TP5ah SN6ar  1 3.650000e-01    2.110000e+00
 TP5ar SN6ah  1 3.650000e-01    2.110000e+00
 TP5ah SN5ar  1 3.650000e-01    1.910000e+00
 TP5ar SN5ah  1 3.650000e-01    1.910000e+00
 TP5ah SN4ar  1 3.650000e-01    1.910000e+00
 TP5ar SN4ah  1 3.650000e-01    1.910000e+00
 TP5ah SN3ar  1 3.650000e-01    1.750000e+00
 TP5ar SN3ah  1 3.650000e-01    1.750000e+00
 TP5ah SN2ar  1 3.660000e-01    1.600000e+00
 TP5ar SN2ah  1 3.660000e-01    1.600000e+00
 TP5ah SN1ar  1 3.780000e-01    1.450000e+00
 TP5ar SN1ah  1 3.780000e-01    1.450000e+00
 TP4ah SP4ar  1 3.650000e-01    2.830000e+00
 TP4ah SP3dr  1 3.650000e-01    3.100000e+00
 TP4ar SP3dh  1 3.650000e-01    3.100000e+00
 TP4ah SP2dr  1 3.650000e-01    3.100000e+00
 TP4ar SP2dh  1 3.650000e-01    3.100000e+00
 TP4ah SP1dr  1 3.650000e-01    2.830000e+00
 TP4ar SP1dh  1 3.650000e-01    2.830000e+00
 TP4ah SN6dr  1 3.650000e-01    2.570000e+00
 TP4ar SN6dh  1 3.650000e-01    2.570000e+00
 TP4ah SN5dr  1 3.650000e-01    2.340000e+00
 TP4ar SN5dh  1 3.650000e-01    2.340000e+00
 TP4ah SN4dr  1 3.650000e-01    2.340000e+00
 TP4ar SN4dh  1 3.650000e-01    2.340000e+00
 TP4ah SN3dr  1 3.650000e-01    2.110000e+00
 TP4ar SN3dh  1 3.650000e-01    2.110000e+00
 TP4ah SN2dr  1 3.650000e-01    1.750000e+00
 TP4ar SN2dh  1 3.650000e-01    1.750000e+00
 TP4ah SN1dr  1 3.660000e-01    1.600000e+00
 TP4ar SN1dh  1 3.660000e-01    1.600000e+00
 TP4ah SP3ar  1 3.650000e-01    2.570000e+00
 TP4ar SP3ah  1 3.650000e-01    2.570000e+00
 TP4ah SP2ar  1 3.650000e-01    2.570000e+00
 TP4ar SP2ah  1 3.650000e-01    2.570000e+00
 TP4ah SP1ar  1 3.650000e-01    2.340000e+00
 TP4ar SP1ah  1 3.650000e-01    2.340000e+00
 TP4ah SN6ar  1 3.650000e-01    2.110000e+00
 TP4ar SN6ah  1 3.650000e-01    2.110000e+00
 TP4ah SN5ar  1 3.650000e-01    1.910000e+00
 TP4ar SN5ah  1 3.650000e-01    1.910000e+00
 TP4ah SN4ar  1 3.650000e-01    1.910000e+00
 TP4ar SN4ah  1 3.650000e-01    1.910000e+00
 TP4ah SN3ar  1 3.650000e-01    1.750000e+00
 TP4ar SN3ah  1 3.650000e-01    1.750000e+00
 TP4ah SN2ar  1 3.650000e-01    1.750000e+00
 TP4ar SN2ah  1 3.650000e-01    1.750000e+00
 TP4ah SN1ar  1 3.660000e-01    1.600000e+00
 TP4ar SN1ah  1 3.660000e-01    1.600000e+00
 TP3ah SP3ar  1 3.650000e-01    2.570000e+00
 TP3ah SP2dr  1 3.650000e-01    3.100000e+00
 TP3ar SP2dh  1 3.650000e-01    3.100000e+00
 TP3ah SP1dr  1 3.650000e-01    2.830000e+00
 TP3ar SP1dh  1 3.650000e-01    2.830000e+00
 TP3ah SN6dr  1 3.650000e-01    2.570000e+00
 TP3ar SN6dh  1 3.650000e-01    2.570000e+00
 TP3ah SN5dr  1 3.650000e-01    2.340000e+00
 TP3ar SN5dh  1 3.650000e-01    2.340000e+00
 TP3ah SN4dr  1 3.650000e-01    2.340000e+00
 TP3ar SN4dh  1 3.650000e-01    2.340000e+00
 TP3ah SN3dr  1 3.650000e-01    2.110000e+00
 TP3ar SN3dh  1 3.650000e-01    2.110000e+00
 TP3ah SN2dr  1 3.650000e-01    2.110000e+00
 TP3ar SN2dh  1 3.650000e-01    2.110000e+00
 TP3ah SN1dr  1 3.650000e-01    1.750000e+00
 TP3ar SN1dh  1 3.650000e-01    1.750000e+00
 TP3ah SP2ar  1 3.650000e-01    2.570000e+00
 TP3ar SP2ah  1 3.650000e-01    2.570000e+00
 TP3ah SP1ar  1 3.650000e-01    2.340000e+00
 TP3ar SP1ah  1 3.650000e-01    2.340000e+00
 TP3ah SN6ar  1 3.650000e-01    2.110000e+00
 TP3ar SN6ah  1 3.650000e-01    2.110000e+00
 TP3ah SN5ar  1 3.650000e-01    1.910000e+00
 TP3ar SN5ah  1 3.650000e-01    1.910000e+00
 TP3ah SN4ar  1 3.650000e-01    1.910000e+00
 TP3ar SN4ah  1 3.650000e-01    1.910000e+00
 TP3ah SN3ar  1 3.650000e-01    1.750000e+00
 TP3ar SN3ah  1 3.650000e-01    1.750000e+00
 TP3ah SN2ar  1 3.650000e-01    1.750000e+00
 TP3ar SN2ah  1 3.650000e-01    1.750000e+00
 TP3ah SN1ar  1 3.650000e-01    1.750000e+00
 TP3ar SN1ah  1 3.650000e-01    1.750000e+00
 TP2ah SP2ar  1 3.650000e-01    2.570000e+00
 TP2ah SP1dr  1 3.650000e-01    2.830000e+00
 TP2ar SP1dh  1 3.650000e-01    2.830000e+00
 TP2ah SN6dr  1 3.650000e-01    2.830000e+00
 TP2ar SN6dh  1 3.650000e-01    2.830000e+00
 TP2ah SN5dr  1 3.650000e-01    2.570000e+00
 TP2ar SN5dh  1 3.650000e-01    2.570000e+00
 TP2ah SN4dr  1 3.650000e-01    2.340000e+00
 TP2ar SN4dh  1 3.650000e-01    2.340000e+00
 TP2ah SN3dr  1 3.650000e-01    2.110000e+00
 TP2ar SN3dh  1 3.650000e-01    2.110000e+00
 TP2ah SN2dr  1 3.650000e-01    2.110000e+00
 TP2ar SN2dh  1 3.650000e-01    2.110000e+00
 TP2ah SN1dr  1 3.650000e-01    2.110000e+00
 TP2ar SN1dh  1 3.650000e-01    2.110000e+00
 TP2ah SP1ar  1 3.650000e-01    2.340000e+00
 TP2ar SP1ah  1 3.650000e-01    2.340000e+00
 TP2ah SN6ar  1 3.650000e-01    2.340000e+00
 TP2ar SN6ah  1 3.650000e-01    2.340000e+00
 TP2ah SN5ar  1 3.650000e-01    2.110000e+00
 TP2ar SN5ah  1 3.650000e-01    2.110000e+00
 TP2ah SN4ar  1 3.650000e-01    1.910000e+00
 TP2ar SN4ah  1 3.650000e-01    1.910000e+00
 TP2ah SN3ar  1 3.650000e-01    1.750000e+00
 TP2ar SN3ah  1 3.650000e-01    1.750000e+00
 TP2ah SN2ar  1 3.650000e-01    1.750000e+00
 TP2ar SN2ah  1 3.650000e-01    1.750000e+00
 TP2ah SN1ar  1 3.650000e-01    1.750000e+00
 TP2ar SN1ah  1 3.650000e-01    1.750000e+00
 TP1ah SP1ar  1 3.650000e-01    2.340000e+00
 TP1ah SN6dr  1 3.650000e-01    2.830000e+00
 TP1ar SN6dh  1 3.650000e-01    2.830000e+00
 TP1ah SN5dr  1 3.650000e-01    2.570000e+00
 TP1ar SN5dh  1 3.650000e-01    2.570000e+00
 TP1ah SN4dr  1 3.650000e-01    2.570000e+00
 TP1ar SN4dh  1 3.650000e-01    2.570000e+00
 TP1ah SN3dr  1 3.650000e-01    2.110000e+00
 TP1ar SN3dh  1 3.650000e-01    2.110000e+00
 TP1ah SN2dr  1 3.650000e-01    2.110000e+00
 TP1ar SN2dh  1 3.650000e-01    2.110000e+00
 TP1ah SN1dr  1 3.650000e-01    2.110000e+00
 TP1ar SN1dh  1 3.650000e-01    2.110000e+00
 TP1ah SN6ar  1 3.650000e-01    2.340000e+00
 TP1ar SN6ah  1 3.650000e-01    2.340000e+00
 TP1ah SN5ar  1 3.650000e-01    2.110000e+00
 TP1ar SN5ah  1 3.650000e-01    2.110000e+00
 TP1ah SN4ar  1 3.650000e-01    2.110000e+00
 TP1ar SN4ah  1 3.650000e-01    2.110000e+00
 TP1ah SN3ar  1 3.650000e-01    1.750000e+00
 TP1ar SN3ah  1 3.650000e-01    1.750000e+00
 TP1ah SN2ar  1 3.650000e-01    1.750000e+00
 TP1ar SN2ah  1 3.650000e-01    1.750000e+00
 TP1ah SN1ar  1 3.650000e-01    1.750000e+00
 TP1ar SN1ah  1 3.650000e-01    1.750000e+00
 TN6ah SN6ar  1 3.650000e-01    2.340000e+00
 TN6ah SN5dr  1 3.650000e-01    2.830000e+00
 TN6ar SN5dh  1 3.650000e-01    2.830000e+00
 TN6ah SN4dr  1 3.650000e-01    2.830000e+00
 TN6ar SN4dh  1 3.650000e-01    2.830000e+00
 TN6ah SN3dr  1 3.650000e-01    2.340000e+00
 TN6ar SN3dh  1 3.650000e-01    2.340000e+00
 TN6ah SN2dr  1 3.650000e-01    2.110000e+00
 TN6ar SN2dh  1 3.650000e-01    2.110000e+00
 TN6ah SN1dr  1 3.650000e-01    2.110000e+00
 TN6ar SN1dh  1 3.650000e-01    2.110000e+00
 TN6ah SN5ar  1 3.650000e-01    2.340000e+00
 TN6ar SN5ah  1 3.650000e-01    2.340000e+00
 TN6ah SN4ar  1 3.650000e-01    2.340000e+00
 TN6ar SN4ah  1 3.650000e-01    2.340000e+00
 TN6ah SN3ar  1 3.650000e-01    1.910000e+00
 TN6ar SN3ah  1 3.650000e-01    1.910000e+00
 TN6ah SN2ar  1 3.650000e-01    1.750000e+00
 TN6ar SN2ah  1 3.650000e-01    1.750000e+00
 TN6ah SN1ar  1 3.650000e-01    1.750000e+00
 TN6ar SN1ah  1 3.650000e-01    1.750000e+00
 TN5ah SN5ar  1 3.650000e-01    2.110000e+00
 TN5ah SN4dr  1 3.650000e-01    2.570000e+00
 TN5ar SN4dh  1 3.650000e-01    2.570000e+00
 TN5ah SN3dr  1 3.650000e-01    2.340000e+00
 TN5ar SN3dh  1 3.650000e-01    2.340000e+00
 TN5ah SN2dr  1 3.650000e-01    2.340000e+00
 TN5ar SN2dh  1 3.650000e-01    2.340000e+00
 TN5ah SN1dr  1 3.650000e-01    2.110000e+00
 TN5ar SN1dh  1 3.650000e-01    2.110000e+00
 TN5ah SN4ar  1 3.650000e-01    2.110000e+00
 TN5ar SN4ah  1 3.650000e-01    2.110000e+00
 TN5ah SN3ar  1 3.650000e-01    1.910000e+00
 TN5ar SN3ah  1 3.650000e-01    1.910000e+00
 TN5ah SN2ar  1 3.650000e-01    1.910000e+00
 TN5ar SN2ah  1 3.650000e-01    1.910000e+00
 TN5ah SN1ar  1 3.650000e-01    1.750000e+00
 TN5ar SN1ah  1 3.650000e-01    1.750000e+00
 TN4ah SN4ar  1 3.650000e-01    2.110000e+00
 TN4ah SN3dr  1 3.650000e-01    2.340000e+00
 TN4ar SN3dh  1 3.650000e-01    2.340000e+00
 TN4ah SN2dr  1 3.650000e-01    2.340000e+00
 TN4ar SN2dh  1 3.650000e-01    2.340000e+00
 TN4ah SN1dr  1 3.650000e-01    2.110000e+00
 TN4ar SN1dh  1 3.650000e-01    2.110000e+00
 TN4ah SN3ar  1 3.650000e-01    1.910000e+00
 TN4ar SN3ah  1 3.650000e-01    1.910000e+00
 TN4ah SN2ar  1 3.650000e-01    1.910000e+00
 TN4ar SN2ah  1 3.650000e-01    1.910000e+00
 TN4ah SN1ar  1 3.650000e-01    1.750000e+00
 TN4ar SN1ah  1 3.650000e-01    1.750000e+00
 TN3ah SN3ar  1 3.650000e-01    1.910000e+00
 TN3ah SN2dr  1 3.650000e-01    2.340000e+00
 TN3ar SN2dh  1 3.650000e-01    2.340000e+00
 TN3ah SN1dr  1 3.650000e-01    2.110000e+00
 TN3ar SN1dh  1 3.650000e-01    2.110000e+00
 TN3ah SN2ar  1 3.650000e-01    1.910000e+00
 TN3ar SN2ah  1 3.650000e-01    1.910000e+00
 TN3ah SN1ar  1 3.650000e-01    1.750000e+00
 TN3ar SN1ah  1 3.650000e-01    1.750000e+00
 TN2ah SN2ar  1 3.650000e-01    1.910000e+00
 TN2ah SN1dr  1 3.650000e-01    2.110000e+00
 TN2ar SN1dh  1 3.650000e-01    2.110000e+00
 TN2ah SN1ar  1 3.650000e-01    1.750000e+00
 TN2ar SN1ah  1 3.650000e-01    1.750000e+00
 TN1ah SN1ar  1 3.650000e-01    1.910000e+00
  TC6h  SC6r  1 3.650000e-01    2.110000e+00
  TC6h  SC5r  1 3.650000e-01    1.910000e+00
  TC6r  SC5h  1 3.650000e-01    1.910000e+00
  TC6h  SC4r  1 3.650000e-01    1.910000e+00
  TC6r  SC4h  1 3.650000e-01    1.910000e+00
  TC6h  SC3r  1 3.650000e-01    1.750000e+00
  TC6r  SC3h  1 3.650000e-01    1.750000e+00
  TC6h  SC2r  1 3.660000e-01    1.600000e+00
  TC6r  SC2h  1 3.660000e-01    1.600000e+00
  TC6h  SC1r  1 3.780000e-01    1.450000e+00
  TC6r  SC1h  1 3.780000e-01    1.450000e+00
  TC6h  SX4r  1 3.650000e-01    1.910000e+00
  TC6r  SX4h  1 3.650000e-01    1.910000e+00
  TC6h  SX3r  1 3.650000e-01    1.910000e+00
  TC6r  SX3h  1 3.650000e-01    1.910000e+00
  TC6h  SX2r  1 3.650000e-01    1.910000e+00
  TC6r  SX2h  1 3.650000e-01    1.910000e+00
  TC6h  SX1r  1 3.650000e-01    1.910000e+00
  TC6r  SX1h  1 3.650000e-01    1.910000e+00
  TC5h  SC5r  1 3.650000e-01    1.910000e+00
  TC5h  SC4r  1 3.650000e-01    1.910000e+00
  TC5r  SC4h  1 3.650000e-01    1.910000e+00
  TC5h  SC3r  1 3.650000e-01    1.750000e+00
  TC5r  SC3h  1 3.650000e-01    1.750000e+00
  TC5h  SC2r  1 3.660000e-01    1.600000e+00
  TC5r  SC2h  1 3.660000e-01    1.600000e+00
  TC5h  SC1r  1 3.660000e-01    1.600000e+00
  TC5r  SC1h  1 3.660000e-01    1.600000e+00
  TC5h  SX4r  1 3.650000e-01    1.750000e+00
  TC5r  SX4h  1 3.650000e-01    1.750000e+00
  TC5h  SX3r  1 3.650000e-01    1.750000e+00
  TC5r  SX3h  1 3.650000e-01    1.750000e+00
  TC5h  SX2r  1 3.650000e-01    1.750000e+00
  TC5r  SX2h  1 3.650000e-01    1.750000e+00
  TC5h  SX1r  1 3.650000e-01    1.910000e+00
  TC5r  SX1h  1 3.650000e-01    1.910000e+00
  TC4h  SC4r  1 3.650000e-01    1.910000e+00
  TC4h  SC3r  1 3.650000e-01    1.910000e+00
  TC4r  SC3h  1 3.650000e-01    1.910000e+00
  TC4h  SC2r  1 3.650000e-01    1.750000e+00
  TC4r  SC2h  1 3.650000e-01    1.750000e+00
  TC4h  SC1r  1 3.660000e-01    1.600000e+00
  TC4r  SC1h  1 3.660000e-01    1.600000e+00
  TC4h  SX4r  1 3.650000e-01    1.750000e+00
  TC4r  SX4h  1 3.650000e-01    1.750000e+00
  TC4h  SX3r  1 3.650000e-01    1.750000e+00
  TC4r  SX3h  1 3.650000e-01    1.750000e+00
  TC4h  SX2r  1 3.650000e-01    1.750000e+00
  TC4r  SX2h  1 3.650000e-01    1.750000e+00
  TC4h  SX1r  1 3.650000e-01    1.910000e+00
  TC4r  SX1h  1 3.650000e-01    1.910000e+00
  TC3h  SC3r  1 3.650000e-01    1.910000e+00
  TC3h  SC2r  1 3.650000e-01    1.910000e+00
  TC3r  SC2h  1 3.650000e-01    1.910000e+00
  TC3h  SC1r  1 3.650000e-01    1.910000e+00
  TC3r  SC1h  1 3.650000e-01    1.910000e+00
  TC3h  SX4r  1 3.650000e-01    1.750000e+00
  TC3r  SX4h  1 3.650000e-01    1.750000e+00
  TC3h  SX3r  1 3.650000e-01    1.750000e+00
  TC3r  SX3h  1 3.650000e-01    1.750000e+00
  TC3h  SX2r  1 3.650000e-01    1.750000e+00
  TC3r  SX2h  1 3.650000e-01    1.750000e+00
  TC3h  SX1r  1 3.650000e-01    1.910000e+00
  TC3r  SX1h  1 3.650000e-01    1.910000e+00
  TC2h  SC2r  1 3.650000e-01    1.910000e+00
  TC2h  SC1r  1 3.650000e-01    2.110000e+00
  TC2r  SC1h  1 3.650000e-01    2.110000e+00
  TC2h  SX4r  1 3.780000e-01    1.450000e+00
  TC2r  SX4h  1 3.780000e-01    1.450000e+00
  TC2h  SX3r  1 3.650000e-01    1.750000e+00
  TC2r  SX3h  1 3.650000e-01    1.750000e+00
  TC2h  SX2r  1 3.650000e-01    1.750000e+00
  TC2r  SX2h  1 3.650000e-01    1.750000e+00
  TC2h  SX1r  1 3.650000e-01    1.750000e+00
  TC2r  SX1h  1 3.650000e-01    1.750000e+00
  TC1h  SC1r  1 3.650000e-01    1.910000e+00
  TC1h  SX4r  1 3.780000e-01    1.450000e+00
  TC1r  SX4h  1 3.780000e-01    1.450000e+00
  TC1h  SX3r  1 3.650000e-01    1.750000e+00
  TC1r  SX3h  1 3.650000e-01    1.750000e+00
  TC1h  SX2r  1 3.650000e-01    1.750000e+00
  TC1r  SX2h  1 3.650000e-01    1.750000e+00
  TC1h  SX1r  1 3.650000e-01    1.750000e+00
  TC1r  SX1h  1 3.650000e-01    1.750000e+00
  TX4h  SX4r  1 3.650000e-01    1.910000e+00
  TX4h  SX3r  1 3.650000e-01    1.910000e+00
  TX4r  SX3h  1 3.650000e-01    1.910000e+00
  TX4h  SX2r  1 3.650000e-01    1.910000e+00
  TX4r  SX2h  1 3.650000e-01    1.910000e+00
  TX4h  SX1r  1 3.650000e-01    1.910000e+00
  TX4r  SX1h  1 3.650000e-01    1.910000e+00
  TX3h  SX3r  1 3.650000e-01    1.910000e+00
  TX3h  SX2r  1 3.650000e-01    2.110000e+00
  TX3r  SX2h  1 3.650000e-01    2.110000e+00
  TX3h  SX1r  1 3.650000e-01    2.110000e+00
  TX3r  SX1h  1 3.650000e-01    2.110000e+00
  TX2h  SX2r  1 3.650000e-01    2.110000e+00
  TX2h  SX1r  1 3.650000e-01    2.110000e+00
  TX2r  SX1h  1 3.650000e-01    2.110000e+00
  TX1h  SX1r  1 3.650000e-01    2.340000e+00
 TC6vh SC6vr  1 3.650000e-01    1.910000e+00
 TC6vh SC5vr  1 3.650000e-01    1.750000e+00
 TC6vr SC5vh  1 3.650000e-01    1.750000e+00
 TC6vh SC4vr  1 3.650000e-01    1.750000e+00
 TC6vr SC4vh  1 3.650000e-01    1.750000e+00
 TC6vh SC3vr  1 3.660000e-01    1.600000e+00
 TC6vr SC3vh  1 3.660000e-01    1.600000e+00
 TC6vh SC2vr  1 3.780000e-01    1.450000e+00
 TC6vr SC2vh  1 3.780000e-01    1.450000e+00
 TC6vh SC1vr  1 3.940000e-01    1.290000e+00
 TC6vr SC1vh  1 3.940000e-01    1.290000e+00
 TC6vh SX4vr  1 3.650000e-01    1.750000e+00
 TC6vr SX4vh  1 3.650000e-01    1.750000e+00
 TC6vh SX3vr  1 3.650000e-01    1.750000e+00
 TC6vr SX3vh  1 3.650000e-01    1.750000e+00
 TC6vh SX2vr  1 3.650000e-01    1.750000e+00
 TC6vr SX2vh  1 3.650000e-01    1.750000e+00
 TC6vh SX1vr  1 3.650000e-01    1.750000e+00
 TC6vr SX1vh  1 3.650000e-01    1.750000e+00
 TC6vh SC6er  1 3.650000e-01    2.570000e+00
 TC6vr SC6eh  1 3.650000e-01    2.570000e+00
 TC6vh SC5er  1 3.650000e-01    2.340000e+00
 TC6vr SC5eh  1 3.650000e-01    2.340000e+00
 TC6vh SC4er  1 3.650000e-01    2.340000e+00
 TC6vr SC4eh  1 3.650000e-01    2.340000e+00
 TC6vh SC3er  1 3.650000e-01    2.110000e+00
 TC6vr SC3eh  1 3.650000e-01    2.110000e+00
 TC6vh SC2er  1 3.650000e-01    1.910000e+00
 TC6vr SC2eh  1 3.650000e-01    1.910000e+00
 TC6vh SC1er  1 3.650000e-01    1.750000e+00
 TC6vr SC1eh  1 3.650000e-01    1.750000e+00
 TC6vh SX4er  1 3.650000e-01    2.340000e+00
 TC6vr SX4eh  1 3.650000e-01    2.340000e+00
 TC6vh SX3er  1 3.650000e-01    2.340000e+00
 TC6vr SX3eh  1 3.650000e-01    2.340000e+00
 TC6vh SX2er  1 3.650000e-01    2.340000e+00
 TC6vr SX2eh  1 3.650000e-01    2.340000e+00
 TC6vh SX1er  1 3.650000e-01    2.340000e+00
 TC6vr SX1eh  1 3.650000e-01    2.340000e+00
 TC5vh SC5vr  1 3.650000e-01    1.750000e+00
 TC5vh SC4vr  1 3.650000e-01    1.750000e+00
 TC5vr SC4vh  1 3.650000e-01    1.750000e+00
 TC5vh SC3vr  1 3.660000e-01    1.600000e+00
 TC5vr SC3vh  1 3.660000e-01    1.600000e+00
 TC5vh SC2vr  1 3.780000e-01    1.450000e+00
 TC5vr SC2vh  1 3.780000e-01    1.450000e+00
 TC5vh SC1vr  1 3.780000e-01    1.450000e+00
 TC5vr SC1vh  1 3.780000e-01    1.450000e+00
 TC5vh SX4vr  1 3.660000e-01    1.600000e+00
 TC5vr SX4vh  1 3.660000e-01    1.600000e+00
 TC5vh SX3vr  1 3.660000e-01    1.600000e+00
 TC5vr SX3vh  1 3.660000e-01    1.600000e+00
 TC5vh SX2vr  1 3.660000e-01    1.600000e+00
 TC5vr SX2vh  1 3.660000e-01    1.600000e+00
 TC5vh SX1vr  1 3.650000e-01    1.750000e+00
 TC5vr SX1vh  1 3.650000e-01    1.750000e+00
 TC5vh SC5er  1 3.650000e-01    2.340000e+00
 TC5vr SC5eh  1 3.650000e-01    2.340000e+00
 TC5vh SC4er  1 3.650000e-01    2.340000e+00
 TC5vr SC4eh  1 3.650000e-01    2.340000e+00
 TC5vh SC3er  1 3.650000e-01    2.110000e+00
 TC5vr SC3eh  1 3.650000e-01    2.110000e+00
 TC5vh SC2er  1 3.650000e-01    1.910000e+00
 TC5vr SC2eh  1 3.650000e-01    1.910000e+00
 TC5vh SC1er  1 3.650000e-01    1.910000e+00
 TC5vr SC1eh  1 3.650000e-01    1.910000e+00
 TC5vh SX4er  1 3.650000e-01    2.110000e+00
 TC5vr SX4eh  1 3.650000e-01    2.110000e+00
 TC5vh SX3er  1 3.650000e-01    2.110000e+00
 TC5vr SX3eh  1 3.650000e-01    2.110000e+00
 TC5vh SX2er  1 3.650000e-01    2.110000e+00
 TC5vr SX2eh  1 3.650000e-01    2.110000e+00
 TC5vh SX1er  1 3.650000e-01    2.340000e+00
 TC5vr SX1eh  1 3.650000e-01    2.340000e+00
 TC4vh SC4vr  1 3.650000e-01    1.750000e+00
 TC4vh SC3vr  1 3.650000e-01    1.750000e+00
 TC4vr SC3vh  1 3.650000e-01    1.750000e+00
 TC4vh SC2vr  1 3.660000e-01    1.600000e+00
 TC4vr SC2vh  1 3.660000e-01    1.600000e+00
 TC4vh SC1vr  1 3.780000e-01    1.450000e+00
 TC4vr SC1vh  1 3.780000e-01    1.450000e+00
 TC4vh SX4vr  1 3.660000e-01    1.600000e+00
 TC4vr SX4vh  1 3.660000e-01    1.600000e+00
 TC4vh SX3vr  1 3.660000e-01    1.600000e+00
 TC4vr SX3vh  1 3.660000e-01    1.600000e+00
 TC4vh SX2vr  1 3.660000e-01    1.600000e+00
 TC4vr SX2vh  1 3.660000e-01    1.600000e+00
 TC4vh SX1vr  1 3.650000e-01    1.750000e+00
 TC4vr SX1vh  1 3.650000e-01    1.750000e+00
 TC4vh SC4er  1 3.650000e-01    2.340000e+00
 TC4vr SC4eh  1 3.650000e-01    2.340000e+00
 TC4vh SC3er  1 3.650000e-01    2.340000e+00
 TC4vr SC3eh  1 3.650000e-01    2.340000e+00
 TC4vh SC2er  1 3.650000e-01    2.110000e+00
 TC4vr SC2eh  1 3.650000e-01    2.110000e+00
 TC4vh SC1er  1 3.650000e-01    1.910000e+00
 TC4vr SC1eh  1 3.650000e-01    1.910000e+00
 TC4vh SX4er  1 3.650000e-01    2.110000e+00
 TC4vr SX4eh  1 3.650000e-01    2.110000e+00
 TC4vh SX3er  1 3.650000e-01    2.110000e+00
 TC4vr SX3eh  1 3.650000e-01    2.110000e+00
 TC4vh SX2er  1 3.650000e-01    2.110000e+00
 TC4vr SX2eh  1 3.650000e-01    2.110000e+00
 TC4vh SX1er  1 3.650000e-01    2.340000e+00
 TC4vr SX1eh  1 3.650000e-01    2.340000e+00
 TC3vh SC3vr  1 3.650000e-01    1.750000e+00
 TC3vh SC2vr  1 3.650000e-01    1.750000e+00
 TC3vr SC2vh  1 3.650000e-01    1.750000e+00
 TC3vh SC1vr  1 3.650000e-01    1.750000e+00
 TC3vr SC1vh  1 3.650000e-01    1.750000e+00
 TC3vh SX4vr  1 3.660000e-01    1.600000e+00
 TC3vr SX4vh  1 3.660000e-01    1.600000e+00
 TC3vh SX3vr  1 3.660000e-01    1.600000e+00
 TC3vr SX3vh  1 3.660000e-01    1.600000e+00
 TC3vh SX2vr  1 3.660000e-01    1.600000e+00
 TC3vr SX2vh  1 3.660000e-01    1.600000e+00
 TC3vh SX1vr  1 3.650000e-01    1.750000e+00
 TC3vr SX1vh  1 3.650000e-01    1.750000e+00
 TC3vh SC3er  1 3.650000e-01    2.340000e+00
 TC3vr SC3eh  1 3.650000e-01    2.340000e+00
 TC3vh SC2er  1 3.650000e-01    2.340000e+00
 TC3vr SC2eh  1 3.650000e-01    2.340000e+00
 TC3vh SC1er  1 3.650000e-01    2.340000e+00
 TC3vr SC1eh  1 3.650000e-01    2.340000e+00
 TC3vh SX4er  1 3.650000e-01    2.110000e+00
 TC3vr SX4eh  1 3.650000e-01    2.110000e+00
 TC3vh SX3er  1 3.650000e-01    2.110000e+00
 TC3vr SX3eh  1 3.650000e-01    2.110000e+00
 TC3vh SX2er  1 3.650000e-01    2.110000e+00
 TC3vr SX2eh  1 3.650000e-01    2.110000e+00
 TC3vh SX1er  1 3.650000e-01    2.340000e+00
 TC3vr SX1eh  1 3.650000e-01    2.340000e+00
 TC2vh SC2vr  1 3.650000e-01    1.750000e+00
 TC2vh SC1vr  1 3.650000e-01    1.910000e+00
 TC2vr SC1vh  1 3.650000e-01    1.910000e+00
 TC2vh SX4vr  1 3.940000e-01    1.290000e+00
 TC2vr SX4vh  1 3.940000e-01    1.290000e+00
 TC2vh SX3vr  1 3.660000e-01    1.600000e+00
 TC2vr SX3vh  1 3.660000e-01    1.600000e+00
 TC2vh SX2vr  1 3.660000e-01    1.600000e+00
 TC2vr SX2vh  1 3.660000e-01    1.600000e+00
 TC2vh SX1vr  1 3.660000e-01    1.600000e+00
 TC2vr SX1vh  1 3.660000e-01    1.600000e+00
 TC2vh SC2er  1 3.650000e-01    2.340000e+00
 TC2vr SC2eh  1 3.650000e-01    2.340000e+00
 TC2vh SC1er  1 3.650000e-01    2.570000e+00
 TC2vr SC1eh  1 3.650000e-01    2.570000e+00
 TC2vh SX4er  1 3.650000e-01    1.750000e+00
 TC2vr SX4eh  1 3.650000e-01    1.750000e+00
 TC2vh SX3er  1 3.650000e-01    2.110000e+00
 TC2vr SX3eh  1 3.650000e-01    2.110000e+00
 TC2vh SX2er  1 3.650000e-01    2.110000e+00
 TC2vr SX2eh  1 3.650000e-01    2.110000e+00
 TC2vh SX1er  1 3.650000e-01    2.110000e+00
 TC2vr SX1eh  1 3.650000e-01    2.110000e+00
 TC1vh SC1vr  1 3.650000e-01    1.750000e+00
 TC1vh SX4vr  1 3.940000e-01    1.290000e+00
 TC1vr SX4vh  1 3.940000e-01    1.290000e+00
 TC1vh SX3vr  1 3.660000e-01    1.600000e+00
 TC1vr SX3vh  1 3.660000e-01    1.600000e+00
 TC1vh SX2vr  1 3.660000e-01    1.600000e+00
 TC1vr SX2vh  1 3.660000e-01    1.600000e+00
 TC1vh SX1vr  1 3.660000e-01    1.600000e+00
 TC1vr SX1vh  1 3.660000e-01    1.600000e+00
 TC1vh SC1er  1 3.650000e-01    2.340000e+00
 TC1vr SC1eh  1 3.650000e-01    2.340000e+00
 TC1vh SX4er  1 3.650000e-01    1.750000e+00
 TC1vr SX4eh  1 3.650000e-01    1.750000e+00
 TC1vh SX3er  1 3.650000e-01    2.110000e+00
 TC1vr SX3eh  1 3.650000e-01    2.110000e+00
 TC1vh SX2er  1 3.650000e-01    2.110000e+00
 TC1vr SX2eh  1 3.650000e-01    2.110000e+00
 TC1vh SX1er  1 3.650000e-01    2.110000e+00
 TC1vr SX1eh  1 3.650000e-01    2.110000e+00
 TX4vh SX4vr  1 3.650000e-01    1.750000e+00
 TX4vh SX3vr  1 3.650000e-01    1.750000e+00
 TX4vr SX3vh  1 3.650000e-01    1.750000e+00
 TX4vh SX2vr  1 3.650000e-01    1.750000e+00
 TX4vr SX2vh  1 3.650000e-01    1.750000e+00
 TX4vh SX1vr  1 3.650000e-01    1.750000e+00
 TX4vr SX1vh  1 3.650000e-01    1.750000e+00
 TX4vh SX4er  1 3.650000e-01    2.340000e+00
 TX4vr SX4eh  1 3.650000e-01    2.340000e+00
 TX4vh SX3er  1 3.650000e-01    2.340000e+00
 TX4vr SX3eh  1 3.650000e-01    2.340000e+00
 TX4vh SX2er  1 3.650000e-01    2.340000e+00
 TX4vr SX2eh  1 3.650000e-01    2.340000e+00
 TX4vh SX1er  1 3.650000e-01    2.340000e+00
 TX4vr SX1eh  1 3.650000e-01    2.340000e+00
 TX3vh SX3vr  1 3.650000e-01    1.750000e+00
 TX3vh SX2vr  1 3.650000e-01    1.910000e+00
 TX3vr SX2vh  1 3.650000e-01    1.910000e+00
 TX3vh SX1vr  1 3.650000e-01    1.910000e+00
 TX3vr SX1vh  1 3.650000e-01    1.910000e+00
 TX3vh SX3er  1 3.650000e-01    2.340000e+00
 TX3vr SX3eh  1 3.650000e-01    2.340000e+00
 TX3vh SX2er  1 3.650000e-01    2.570000e+00
 TX3vr SX2eh  1 3.650000e-01    2.570000e+00
 TX3vh SX1er  1 3.650000e-01    2.570000e+00
 TX3vr SX1eh  1 3.650000e-01    2.570000e+00
 TX2vh SX2vr  1 3.650000e-01    1.910000e+00
 TX2vh SX1vr  1 3.650000e-01    1.910000e+00
 TX2vr SX1vh  1 3.650000e-01    1.910000e+00
 TX2vh SX2er  1 3.650000e-01    2.570000e+00
 TX2vr SX2eh  1 3.650000e-01    2.570000e+00
 TX2vh SX1er  1 3.650000e-01    2.570000e+00
 TX2vr SX1eh  1 3.650000e-01    2.570000e+00
 TX1vh SX1vr  1 3.650000e-01    2.110000e+00
 TX1vh SX1er  1 3.650000e-01    2.830000e+00
 TX1vr SX1eh  1 3.650000e-01    2.830000e+00
 TC6eh SC6er  1 3.650000e-01    1.910000e+00
 TC6eh SC5vr  1 3.650000e-01    2.340000e+00
 TC6er SC5vh  1 3.650000e-01    2.340000e+00
 TC6eh SC4vr  1 3.650000e-01    2.340000e+00
 TC6er SC4vh  1 3.650000e-01    2.340000e+00
 TC6eh SC3vr  1 3.650000e-01    2.110000e+00
 TC6er SC3vh  1 3.650000e-01    2.110000e+00
 TC6eh SC2vr  1 3.650000e-01    1.910000e+00
 TC6er SC2vh  1 3.650000e-01    1.910000e+00
 TC6eh SC1vr  1 3.650000e-01    1.750000e+00
 TC6er SC1vh  1 3.650000e-01    1.750000e+00
 TC6eh SX4vr  1 3.650000e-01    2.340000e+00
 TC6er SX4vh  1 3.650000e-01    2.340000e+00
 TC6eh SX3vr  1 3.650000e-01    2.340000e+00
 TC6er SX3vh  1 3.650000e-01    2.340000e+00
 TC6eh SX2vr  1 3.650000e-01    2.340000e+00
 TC6er SX2vh  1 3.650000e-01    2.340000e+00
 TC6eh SX1vr  1 3.650000e-01    2.340000e+00
 TC6er SX1vh  1 3.650000e-01    2.340000e+00
 TC6eh SC5er  1 3.650000e-01    1.750000e+00
 TC6er SC5eh  1 3.650000e-01    1.750000e+00
 TC6eh SC4er  1 3.650000e-01    1.750000e+00
 TC6er SC4eh  1 3.650000e-01    1.750000e+00
 TC6eh SC3er  1 3.660000e-01    1.600000e+00
 TC6er SC3eh  1 3.660000e-01    1.600000e+00
 TC6eh SC2er  1 3.780000e-01    1.450000e+00
 TC6er SC2eh  1 3.780000e-01    1.450000e+00
 TC6eh SC1er  1 3.940000e-01    1.290000e+00
 TC6er SC1eh  1 3.940000e-01    1.290000e+00
 TC6eh SX4er  1 3.650000e-01    1.750000e+00
 TC6er SX4eh  1 3.650000e-01    1.750000e+00
 TC6eh SX3er  1 3.650000e-01    1.750000e+00
 TC6er SX3eh  1 3.650000e-01    1.750000e+00
 TC6eh SX2er  1 3.650000e-01    1.750000e+00
 TC6er SX2eh  1 3.650000e-01    1.750000e+00
 TC6eh SX1er  1 3.650000e-01    1.750000e+00
 TC6er SX1eh  1 3.650000e-01    1.750000e+00
 TC5eh SC5er  1 3.650000e-01    1.750000e+00
 TC5eh SC4vr  1 3.650000e-01    2.340000e+00
 TC5er SC4vh  1 3.650000e-01    2.340000e+00
 TC5eh SC3vr  1 3.650000e-01    2.110000e+00
 TC5er SC3vh  1 3.650000e-01    2.110000e+00
 TC5eh SC2vr  1 3.650000e-01    1.910000e+00
 TC5er SC2vh  1 3.650000e-01    1.910000e+00
 TC5eh SC1vr  1 3.650000e-01    1.910000e+00
 TC5er SC1vh  1 3.650000e-01    1.910000e+00
 TC5eh SX4vr  1 3.650000e-01    2.110000e+00
 TC5er SX4vh  1 3.650000e-01    2.110000e+00
 TC5eh SX3vr  1 3.650000e-01    2.110000e+00
 TC5er SX3vh  1 3.650000e-01    2.110000e+00
 TC5eh SX2vr  1 3.650000e-01    2.110000e+00
 TC5er SX2vh  1 3.650000e-01    2.110000e+00
 TC5eh SX1vr  1 3.650000e-01    2.340000e+00
 TC5er SX1vh  1 3.650000e-01    2.340000e+00
 TC5eh SC4er  1 3.650000e-01    1.750000e+00
 TC5er SC4eh  1 3.650000e-01    1.750000e+00
 TC5eh SC3er  1 3.660000e-01    1.600000e+00
 TC5er SC3eh  1 3.660000e-01    1.600000e+00
 TC5eh SC2er  1 3.780000e-01    1.450000e+00
 TC5er SC2eh  1 3.780000e-01    1.450000e+00
 TC5eh SC1er  1 3.780000e-01    1.450000e+00
 TC5er SC1eh  1 3.780000e-01    1.450000e+00
 TC5eh SX4er  1 3.660000e-01    1.600000e+00
 TC5er SX4eh  1 3.660000e-01    1.600000e+00
 TC5eh SX3er  1 3.660000e-01    1.600000e+00
 TC5er SX3eh  1 3.660000e-01    1.600000e+00
 TC5eh SX2er  1 3.660000e-01    1.600000e+00
 TC5er SX2eh  1 3.660000e-01    1.600000e+00
 TC5eh SX1er  1 3.650000e-01    1.750000e+00
 TC5er SX1eh  1 3.650000e-01    1.750000e+00
 TC4eh SC4er  1 3.650000e-01    1.750000e+00
 TC4eh SC3vr  1 3.650000e-01    2.340000e+00
 TC4er SC3vh  1 3.650000e-01    2.340000e+00
 TC4eh SC2vr  1 3.650000e-01    2.110000e+00
 TC4er SC2vh  1 3.650000e-01    2.110000e+00
 TC4eh SC1vr  1 3.650000e-01    1.910000e+00
 TC4er SC1vh  1 3.650000e-01    1.910000e+00
 TC4eh SX4vr  1 3.650000e-01    2.110000e+00
 TC4er SX4vh  1 3.650000e-01    2.110000e+00
 TC4eh SX3vr  1 3.650000e-01    2.110000e+00
 TC4er SX3vh  1 3.650000e-01    2.110000e+00
 TC4eh SX2vr  1 3.650000e-01    2.110000e+00
 TC4er SX2vh  1 3.650000e-01    2.110000e+00
 TC4eh SX1vr  1 3.650000e-01    2.340000e+00
 TC4er SX1vh  1 3.650000e-01    2.340000e+00
 TC4eh SC3er  1 3.650000e-01    1.750000e+00
 TC4er SC3eh  1 3.650000e-01    1.750000e+00
 TC4eh SC2er  1 3.660000e-01    1.600000e+00
 TC4er SC2eh  1 3.660000e-01    1.600000e+00
 TC4eh SC1er  1 3.780000e-01    1.450000e+00
 TC4er SC1eh  1 3.780000e-01    1.450000e+00
 TC4eh SX4er  1 3.660000e-01    1.600000e+00
 TC4er SX4eh  1 3.660000e-01    1.600000e+00
 TC4eh SX3er  1 3.660000e-01    1.600000e+00
 TC4er SX3eh  1 3.660000e-01    1.600000e+00
 TC4eh SX2er  1 3.660000e-01    1.600000e+00
 TC4er SX2eh  1 3.660000e-01    1.600000e+00
 TC4eh SX1er  1 3.650000e-01    1.750000e+00
 TC4er SX1eh  1 3.650000e-01    1.750000e+00
 TC3eh SC3er  1 3.650000e-01    1.750000e+00
 TC3eh SC2vr  1 3.650000e-01    2.340000e+00
 TC3er SC2vh  1 3.650000e-01    2.340000e+00
 TC3eh SC1vr  1 3.650000e-01    2.340000e+00
 TC3er SC1vh  1 3.650000e-01    2.340000e+00
 TC3eh SX4vr  1 3.650000e-01    2.110000e+00
 TC3er SX4vh  1 3.650000e-01    2.110000e+00
 TC3eh SX3vr  1 3.650000e-01    2.110000e+00
 TC3er SX3vh  1 3.650000e-01    2.110000e+00
 TC3eh SX2vr  1 3.650000e-01    2.110000e+00
 TC3er SX2vh  1 3.650000e-01    2.110000e+00
 TC3eh SX1vr  1 3.650000e-01    2.340000e+00
 TC3er SX1vh  1 3.650000e-01    2.340000e+00
 TC3eh SC2er  1 3.650000e-01    1.750000e+00
 TC3er SC2eh  1 3.650000e-01    1.750000e+00
 TC3eh SC1er  1 3.650000e-01    1.750000e+00
 TC3er SC1eh  1 3.650000e-01    1.750000e+00
 TC3eh SX4er  1 3.660000e-01    1.600000e+00
 TC3er SX4eh  1 3.660000e-01    1.600000e+00
 TC3eh SX3er  1 3.660000e-01    1.600000e+00
 TC3er SX3eh  1 3.660000e-01    1.600000e+00
 TC3eh SX2er  1 3.660000e-01    1.600000e+00
 TC3er SX2eh  1 3.660000e-01    1.600000e+00
 TC3eh SX1er  1 3.650000e-01    1.750000e+00
 TC3er SX1eh  1 3.650000e-01    1.750000e+00
 TC2eh SC2er  1 3.650000e-01    1.750000e+00
 TC2eh SC1vr  1 3.650000e-01    2.570000e+00
 TC2er SC1vh  1 3.650000e-01    2.570000e+00
 TC2eh SX4vr  1 3.650000e-01    1.750000e+00
 TC2er SX4vh  1 3.650000e-01    1.750000e+00
 TC2eh SX3vr  1 3.650000e-01    2.110000e+00
 TC2er SX3vh  1 3.650000e-01    2.110000e+00
 TC2eh SX2vr  1 3.650000e-01    2.110000e+00
 TC2er SX2vh  1 3.650000e-01    2.110000e+00
 TC2eh SX1vr  1 3.650000e-01    2.110000e+00
 TC2er SX1vh  1 3.650000e-01    2.110000e+00
 TC2eh SC1er  1 3.650000e-01    1.910000e+00
 TC2er SC1eh  1 3.650000e-01    1.910000e+00
 TC2eh SX4er  1 3.940000e-01    1.290000e+00
 TC2er SX4eh  1 3.940000e-01    1.290000e+00
 TC2eh SX3er  1 3.660000e-01    1.600000e+00
 TC2er SX3eh  1 3.660000e-01    1.600000e+00
 TC2eh SX2er  1 3.660000e-01    1.600000e+00
 TC2er SX2eh  1 3.660000e-01    1.600000e+00
 TC2eh SX1er  1 3.660000e-01    1.600000e+00
 TC2er SX1eh  1 3.660000e-01    1.600000e+00
 TC1eh SC1er  1 3.650000e-01    1.750000e+00
 TC1eh SX4vr  1 3.650000e-01    1.750000e+00
 TC1er SX4vh  1 3.650000e-01    1.750000e+00
 TC1eh SX3vr  1 3.650000e-01    2.110000e+00
 TC1er SX3vh  1 3.650000e-01    2.110000e+00
 TC1eh SX2vr  1 3.650000e-01    2.110000e+00
 TC1er SX2vh  1 3.650000e-01    2.110000e+00
 TC1eh SX1vr  1 3.650000e-01    2.110000e+00
 TC1er SX1vh  1 3.650000e-01    2.110000e+00
 TC1eh SX4er  1 3.940000e-01    1.290000e+00
 TC1er SX4eh  1 3.940000e-01    1.290000e+00
 TC1eh SX3er  1 3.660000e-01    1.600000e+00
 TC1er SX3eh  1 3.660000e-01    1.600000e+00
 TC1eh SX2er  1 3.660000e-01    1.600000e+00
 TC1er SX2eh  1 3.660000e-01    1.600000e+00
 TC1eh SX1er  1 3.660000e-01    1.600000e+00
 TC1er SX1eh  1 3.660000e-01    1.600000e+00
 TX4eh SX4er  1 3.650000e-01    1.750000e+00
 TX4eh SX3vr  1 3.650000e-01    2.340000e+00
 TX4er SX3vh  1 3.650000e-01    2.340000e+00
 TX4eh SX2vr  1 3.650000e-01    2.340000e+00
 TX4er SX2vh  1 3.650000e-01    2.340000e+00
 TX4eh SX1vr  1 3.650000e-01    2.340000e+00
 TX4er SX1vh  1 3.650000e-01    2.340000e+00
 TX4eh SX3er  1 3.650000e-01    1.750000e+00
 TX4er SX3eh  1 3.650000e-01    1.750000e+00
 TX4eh SX2er  1 3.650000e-01    1.750000e+00
 TX4er SX2eh  1 3.650000e-01    1.750000e+00
 TX4eh SX1er  1 3.650000e-01    1.750000e+00
 TX4er SX1eh  1 3.650000e-01    1.750000e+00
 TX3eh SX3er  1 3.650000e-01    1.750000e+00
 TX3eh SX2vr  1 3.650000e-01    2.570000e+00
 TX3er SX2vh  1 3.650000e-01    2.570000e+00
 TX3eh SX1vr  1 3.650000e-01    2.570000e+00
 TX3er SX1vh  1 3.650000e-01    2.570000e+00
 TX3eh SX2er  1 3.650000e-01    1.910000e+00
 TX3er SX2eh  1 3.650000e-01    1.910000e+00
 TX3eh SX1er  1 3.650000e-01    1.910000e+00
 TX3er SX1eh  1 3.650000e-01    1.910000e+00
 TX2eh SX2er  1 3.650000e-01    1.910000e+00
 TX2eh SX1vr  1 3.650000e-01    2.570000e+00
 TX2er SX1vh  1 3.650000e-01    2.570000e+00
 TX2eh SX1er  1 3.650000e-01    1.910000e+00
 TX2er SX1eh  1 3.650000e-01    1.910000e+00
 TX1eh SX1er  1 3.650000e-01    2.110000e+00
  TP6h  SC6r  1 3.780000e-01    1.450000e+00
  TP6r  SC6h  1 3.780000e-01    1.450000e+00
  TP6h  SC5r  1 3.940000e-01    1.290000e+00
  TP6r  SC5h  1 3.940000e-01    1.290000e+00
  TP6h  SC4r  1 4.040000e-01    1.130000e+00
  TP6r  SC4h  1 4.040000e-01    1.130000e+00
  TP6h  SC3r  1 4.090000e-01    1.080000e+00
  TP6r  SC3h  1 4.090000e-01    1.080000e+00
  TP6h  SC2r  1 4.090000e-01    1.080000e+00
  TP6r  SC2h  1 4.090000e-01    1.080000e+00
  TP6h  SC1r  1 4.840000e-01    8.900000e-01
  TP6r  SC1h  1 4.840000e-01    8.900000e-01
  TP6h  SX4r  1 3.660000e-01    1.600000e+00
  TP6r  SX4h  1 3.660000e-01    1.600000e+00
  TP6h  SX3r  1 3.660000e-01    1.600000e+00
  TP6r  SX3h  1 3.660000e-01    1.600000e+00
  TP6h  SX2r  1 3.780000e-01    1.450000e+00
  TP6r  SX2h  1 3.780000e-01    1.450000e+00
  TP6h  SX1r  1 3.940000e-01    1.290000e+00
  TP6r  SX1h  1 3.940000e-01    1.290000e+00
  TP5h  SC6r  1 3.780000e-01    1.450000e+00
  TP5r  SC6h  1 3.780000e-01    1.450000e+00
  TP5h  SC5r  1 3.780000e-01    1.450000e+00
  TP5r  SC5h  1 3.780000e-01    1.450000e+00
  TP5h  SC4r  1 3.940000e-01    1.290000e+00
  TP5r  SC4h  1 3.940000e-01    1.290000e+00
  TP5h  SC3r  1 4.040000e-01    1.130000e+00
  TP5r  SC3h  1 4.040000e-01    1.130000e+00
  TP5h  SC2r  1 4.040000e-01    1.130000e+00
  TP5r  SC2h  1 4.040000e-01    1.130000e+00
  TP5h  SC1r  1 4.090000e-01    1.080000e+00
  TP5r  SC1h  1 4.090000e-01    1.080000e+00
  TP5h  SX4r  1 3.650000e-01    1.750000e+00
  TP5r  SX4h  1 3.650000e-01    1.750000e+00
  TP5h  SX3r  1 3.660000e-01    1.600000e+00
  TP5r  SX3h  1 3.660000e-01    1.600000e+00
  TP5h  SX2r  1 3.660000e-01    1.600000e+00
  TP5r  SX2h  1 3.660000e-01    1.600000e+00
  TP5h  SX1r  1 3.940000e-01    1.290000e+00
  TP5r  SX1h  1 3.940000e-01    1.290000e+00
  TP4h  SC6r  1 3.660000e-01    1.600000e+00
  TP4r  SC6h  1 3.660000e-01    1.600000e+00
  TP4h  SC5r  1 3.780000e-01    1.450000e+00
  TP4r  SC5h  1 3.780000e-01    1.450000e+00
  TP4h  SC4r  1 3.940000e-01    1.290000e+00
  TP4r  SC4h  1 3.940000e-01    1.290000e+00
  TP4h  SC3r  1 4.040000e-01    1.130000e+00
  TP4r  SC3h  1 4.040000e-01    1.130000e+00
  TP4h  SC2r  1 4.040000e-01    1.130000e+00
  TP4r  SC2h  1 4.040000e-01    1.130000e+00
  TP4h  SC1r  1 4.090000e-01    1.080000e+00
  TP4r  SC1h  1 4.090000e-01    1.080000e+00
  TP4h  SX4r  1 3.650000e-01    1.750000e+00
  TP4r  SX4h  1 3.650000e-01    1.750000e+00
  TP4h  SX3r  1 3.660000e-01    1.600000e+00
  TP4r  SX3h  1 3.660000e-01    1.600000e+00
  TP4h  SX2r  1 3.660000e-01    1.600000e+00
  TP4r  SX2h  1 3.660000e-01    1.600000e+00
  TP4h  SX1r  1 3.780000e-01    1.450000e+00
  TP4r  SX1h  1 3.780000e-01    1.450000e+00
  TP3h  SC6r  1 3.650000e-01    1.750000e+00
  TP3r  SC6h  1 3.650000e-01    1.750000e+00
  TP3h  SC5r  1 3.660000e-01    1.600000e+00
  TP3r  SC5h  1 3.660000e-01    1.600000e+00
  TP3h  SC4r  1 3.780000e-01    1.450000e+00
  TP3r  SC4h  1 3.780000e-01    1.450000e+00
  TP3h  SC3r  1 4.040000e-01    1.130000e+00
  TP3r  SC3h  1 4.040000e-01    1.130000e+00
  TP3h  SC2r  1 4.040000e-01    1.130000e+00
  TP3r  SC2h  1 4.040000e-01    1.130000e+00
  TP3h  SC1r  1 4.090000e-01    1.080000e+00
  TP3r  SC1h  1 4.090000e-01    1.080000e+00
  TP3h  SX4r  1 3.650000e-01    1.750000e+00
  TP3r  SX4h  1 3.650000e-01    1.750000e+00
  TP3h  SX3r  1 3.650000e-01    1.750000e+00
  TP3r  SX3h  1 3.650000e-01    1.750000e+00
  TP3h  SX2r  1 3.660000e-01    1.600000e+00
  TP3r  SX2h  1 3.660000e-01    1.600000e+00
  TP3h  SX1r  1 3.780000e-01    1.450000e+00
  TP3r  SX1h  1 3.780000e-01    1.450000e+00
  TP2h  SC6r  1 3.650000e-01    1.750000e+00
  TP2r  SC6h  1 3.650000e-01    1.750000e+00
  TP2h  SC5r  1 3.660000e-01    1.600000e+00
  TP2r  SC5h  1 3.660000e-01    1.600000e+00
  TP2h  SC4r  1 3.780000e-01    1.450000e+00
  TP2r  SC4h  1 3.780000e-01    1.450000e+00
  TP2h  SC3r  1 3.940000e-01    1.290000e+00
  TP2r  SC3h  1 3.940000e-01    1.290000e+00
  TP2h  SC2r  1 3.940000e-01    1.290000e+00
  TP2r  SC2h  1 3.940000e-01    1.290000e+00
  TP2h  SC1r  1 4.040000e-01    1.130000e+00
  TP2r  SC1h  1 4.040000e-01    1.130000e+00
  TP2h  SX4r  1 3.650000e-01    1.750000e+00
  TP2r  SX4h  1 3.650000e-01    1.750000e+00
  TP2h  SX3r  1 3.650000e-01    1.750000e+00
  TP2r  SX3h  1 3.650000e-01    1.750000e+00
  TP2h  SX2r  1 3.660000e-01    1.600000e+00
  TP2r  SX2h  1 3.660000e-01    1.600000e+00
  TP2h  SX1r  1 3.780000e-01    1.450000e+00
  TP2r  SX1h  1 3.780000e-01    1.450000e+00
  TP1h  SC6r  1 3.650000e-01    1.750000e+00
  TP1r  SC6h  1 3.650000e-01    1.750000e+00
  TP1h  SC5r  1 3.660000e-01    1.600000e+00
  TP1r  SC5h  1 3.660000e-01    1.600000e+00
  TP1h  SC4r  1 3.780000e-01    1.450000e+00
  TP1r  SC4h  1 3.780000e-01    1.450000e+00
  TP1h  SC3r  1 3.940000e-01    1.290000e+00
  TP1r  SC3h  1 3.940000e-01    1.290000e+00
  TP1h  SC2r  1 3.940000e-01    1.290000e+00
  TP1r  SC2h  1 3.940000e-01    1.290000e+00
  TP1h  SC1r  1 4.040000e-01    1.130000e+00
  TP1r  SC1h  1 4.040000e-01    1.130000e+00
  TP1h  SX4r  1 3.650000e-01    1.750000e+00
  TP1r  SX4h  1 3.650000e-01    1.750000e+00
  TP1h  SX3r  1 3.650000e-01    1.750000e+00
  TP1r  SX3h  1 3.650000e-01    1.750000e+00
  TP1h  SX2r  1 3.660000e-01    1.600000e+00
  TP1r  SX2h  1 3.660000e-01    1.600000e+00
  TP1h  SX1r  1 3.780000e-01    1.450000e+00
  TP1r  SX1h  1 3.780000e-01    1.450000e+00
  TN6h  SC6r  1 3.650000e-01    1.910000e+00
  TN6r  SC6h  1 3.650000e-01    1.910000e+00
  TN6h  SC5r  1 3.650000e-01    1.750000e+00
  TN6r  SC5h  1 3.650000e-01    1.750000e+00
  TN6h  SC4r  1 3.660000e-01    1.600000e+00
  TN6r  SC4h  1 3.660000e-01    1.600000e+00
  TN6h  SC3r  1 3.780000e-01    1.450000e+00
  TN6r  SC3h  1 3.780000e-01    1.450000e+00
  TN6h  SC2r  1 3.780000e-01    1.450000e+00
  TN6r  SC2h  1 3.780000e-01    1.450000e+00
  TN6h  SC1r  1 3.940000e-01    1.290000e+00
  TN6r  SC1h  1 3.940000e-01    1.290000e+00
  TN6h  SX4r  1 3.650000e-01    1.910000e+00
  TN6r  SX4h  1 3.650000e-01    1.910000e+00
  TN6h  SX3r  1 3.650000e-01    1.750000e+00
  TN6r  SX3h  1 3.650000e-01    1.750000e+00
  TN6h  SX2r  1 3.660000e-01    1.600000e+00
  TN6r  SX2h  1 3.660000e-01    1.600000e+00
  TN6h  SX1r  1 3.780000e-01    1.450000e+00
  TN6r  SX1h  1 3.780000e-01    1.450000e+00
  TN5h  SC6r  1 3.650000e-01    1.910000e+00
  TN5r  SC6h  1 3.650000e-01    1.910000e+00
  TN5h  SC5r  1 3.650000e-01    1.750000e+00
  TN5r  SC5h  1 3.650000e-01    1.750000e+00
  TN5h  SC4r  1 3.660000e-01    1.600000e+00
  TN5r  SC4h  1 3.660000e-01    1.600000e+00
  TN5h  SC3r  1 3.660000e-01    1.600000e+00
  TN5r  SC3h  1 3.660000e-01    1.600000e+00
  TN5h  SC2r  1 3.780000e-01    1.450000e+00
  TN5r  SC2h  1 3.780000e-01    1.450000e+00
  TN5h  SC1r  1 3.940000e-01    1.290000e+00
  TN5r  SC1h  1 3.940000e-01    1.290000e+00
  TN5h  SX4r  1 3.650000e-01    2.110000e+00
  TN5r  SX4h  1 3.650000e-01    2.110000e+00
  TN5h  SX3r  1 3.650000e-01    1.910000e+00
  TN5r  SX3h  1 3.650000e-01    1.910000e+00
  TN5h  SX2r  1 3.650000e-01    1.750000e+00
  TN5r  SX2h  1 3.650000e-01    1.750000e+00
  TN5h  SX1r  1 3.660000e-01    1.600000e+00
  TN5r  SX1h  1 3.660000e-01    1.600000e+00
  TN4h  SC6r  1 3.650000e-01    1.910000e+00
  TN4r  SC6h  1 3.650000e-01    1.910000e+00
  TN4h  SC5r  1 3.650000e-01    1.750000e+00
  TN4r  SC5h  1 3.650000e-01    1.750000e+00
  TN4h  SC4r  1 3.650000e-01    1.750000e+00
  TN4r  SC4h  1 3.650000e-01    1.750000e+00
  TN4h  SC3r  1 3.660000e-01    1.600000e+00
  TN4r  SC3h  1 3.660000e-01    1.600000e+00
  TN4h  SC2r  1 3.780000e-01    1.450000e+00
  TN4r  SC2h  1 3.780000e-01    1.450000e+00
  TN4h  SC1r  1 3.940000e-01    1.290000e+00
  TN4r  SC1h  1 3.940000e-01    1.290000e+00
  TN4h  SX4r  1 3.650000e-01    2.340000e+00
  TN4r  SX4h  1 3.650000e-01    2.340000e+00
  TN4h  SX3r  1 3.650000e-01    2.110000e+00
  TN4r  SX3h  1 3.650000e-01    2.110000e+00
  TN4h  SX2r  1 3.650000e-01    1.750000e+00
  TN4r  SX2h  1 3.650000e-01    1.750000e+00
  TN4h  SX1r  1 3.660000e-01    1.600000e+00
  TN4r  SX1h  1 3.660000e-01    1.600000e+00
  TN3h  SC6r  1 3.650000e-01    1.910000e+00
  TN3r  SC6h  1 3.650000e-01    1.910000e+00
  TN3h  SC5r  1 3.650000e-01    1.750000e+00
  TN3r  SC5h  1 3.650000e-01    1.750000e+00
  TN3h  SC4r  1 3.650000e-01    1.750000e+00
  TN3r  SC4h  1 3.650000e-01    1.750000e+00
  TN3h  SC3r  1 3.660000e-01    1.600000e+00
  TN3r  SC3h  1 3.660000e-01    1.600000e+00
  TN3h  SC2r  1 3.660000e-01    1.600000e+00
  TN3r  SC2h  1 3.660000e-01    1.600000e+00
  TN3h  SC1r  1 3.780000e-01    1.450000e+00
  TN3r  SC1h  1 3.780000e-01    1.450000e+00
  TN3h  SX4r  1 3.650000e-01    2.110000e+00
  TN3r  SX4h  1 3.650000e-01    2.110000e+00
  TN3h  SX3r  1 3.650000e-01    1.910000e+00
  TN3r  SX3h  1 3.650000e-01    1.910000e+00
  TN3h  SX2r  1 3.650000e-01    1.750000e+00
  TN3r  SX2h  1 3.650000e-01    1.750000e+00
  TN3h  SX1r  1 3.650000e-01    1.750000e+00
  TN3r  SX1h  1 3.650000e-01    1.750000e+00
  TN2h  SC6r  1 3.650000e-01    1.910000e+00
  TN2r  SC6h  1 3.650000e-01    1.910000e+00
  TN2h  SC5r  1 3.650000e-01    1.750000e+00
  TN2r  SC5h  1 3.650000e-01    1.750000e+00
  TN2h  SC4r  1 3.650000e-01    1.750000e+00
  TN2r  SC4h  1 3.650000e-01    1.750000e+00
  TN2h  SC3r  1 3.650000e-01    1.750000e+00
  TN2r  SC3h  1 3.650000e-01    1.750000e+00
  TN2h  SC2r  1 3.660000e-01    1.600000e+00
  TN2r  SC2h  1 3.660000e-01    1.600000e+00
  TN2h  SC1r  1 3.780000e-01    1.450000e+00
  TN2r  SC1h  1 3.780000e-01    1.450000e+00
  TN2h  SX4r  1 3.650000e-01    2.110000e+00
  TN2r  SX4h  1 3.650000e-01    2.110000e+00
  TN2h  SX3r  1 3.650000e-01    1.910000e+00
  TN2r  SX3h  1 3.650000e-01    1.910000e+00
  TN2h  SX2r  1 3.650000e-01    1.750000e+00
  TN2r  SX2h  1 3.650000e-01    1.750000e+00
  TN2h  SX1r  1 3.650000e-01    1.750000e+00
  TN2r  SX1h  1 3.650000e-01    1.750000e+00
  TN1h  SC6r  1 3.650000e-01    2.110000e+00
  TN1r  SC6h  1 3.650000e-01    2.110000e+00
  TN1h  SC5r  1 3.650000e-01    1.910000e+00
  TN1r  SC5h  1 3.650000e-01    1.910000e+00
  TN1h  SC4r  1 3.650000e-01    1.910000e+00
  TN1r  SC4h  1 3.650000e-01    1.910000e+00
  TN1h  SC3r  1 3.650000e-01    1.750000e+00
  TN1r  SC3h  1 3.650000e-01    1.750000e+00
  TN1h  SC2r  1 3.660000e-01    1.600000e+00
  TN1r  SC2h  1 3.660000e-01    1.600000e+00
  TN1h  SC1r  1 3.780000e-01    1.450000e+00
  TN1r  SC1h  1 3.780000e-01    1.450000e+00
  TN1h  SX4r  1 3.650000e-01    1.910000e+00
  TN1r  SX4h  1 3.650000e-01    1.910000e+00
  TN1h  SX3r  1 3.650000e-01    1.910000e+00
  TN1r  SX3h  1 3.650000e-01    1.910000e+00
  TN1h  SX2r  1 3.650000e-01    1.750000e+00
  TN1r  SX2h  1 3.650000e-01    1.750000e+00
  TN1h  SX1r  1 3.650000e-01    1.750000e+00
  TN1r  SX1h  1 3.650000e-01    1.750000e+00
 TP6dh SC6vr  1 3.940000e-01    1.290000e+00
 TP6dr SC6vh  1 3.940000e-01    1.290000e+00
 TP6dh SC5vr  1 4.040000e-01    1.130000e+00
 TP6dr SC5vh  1 4.040000e-01    1.130000e+00
 TP6dh SC4vr  1 4.090000e-01    1.080000e+00
 TP6dr SC4vh  1 4.090000e-01    1.080000e+00
 TP6dh SC3vr  1 4.230000e-01    9.810000e-01
 TP6dr SC3vh  1 4.230000e-01    9.810000e-01
 TP6dh SC2vr  1 4.230000e-01    9.810000e-01
 TP6dr SC2vh  1 4.230000e-01    9.810000e-01
 TP6dh SC1vr  1 5.370000e-01    8.080000e-01
 TP6dr SC1vh  1 5.370000e-01    8.080000e-01
 TP6dh SX4vr  1 3.780000e-01    1.450000e+00
 TP6dr SX4vh  1 3.780000e-01    1.450000e+00
 TP6dh SX3vr  1 3.780000e-01    1.450000e+00
 TP6dr SX3vh  1 3.780000e-01    1.450000e+00
 TP6dh SX2vr  1 3.940000e-01    1.290000e+00
 TP6dr SX2vh  1 3.940000e-01    1.290000e+00
 TP6dh SX1vr  1 4.040000e-01    1.130000e+00
 TP6dr SX1vh  1 4.040000e-01    1.130000e+00
 TP6dh SC6er  1 3.660000e-01    1.600000e+00
 TP6dr SC6eh  1 3.660000e-01    1.600000e+00
 TP6dh SC5er  1 3.780000e-01    1.450000e+00
 TP6dr SC5eh  1 3.780000e-01    1.450000e+00
 TP6dh SC4er  1 3.940000e-01    1.290000e+00
 TP6dr SC4eh  1 3.940000e-01    1.290000e+00
 TP6dh SC3er  1 4.040000e-01    1.130000e+00
 TP6dr SC3eh  1 4.040000e-01    1.130000e+00
 TP6dh SC2er  1 4.040000e-01    1.130000e+00
 TP6dr SC2eh  1 4.040000e-01    1.130000e+00
 TP6dh SC1er  1 4.230000e-01    9.810000e-01
 TP6dr SC1eh  1 4.230000e-01    9.810000e-01
 TP6dh SX4er  1 3.650000e-01    1.750000e+00
 TP6dr SX4eh  1 3.650000e-01    1.750000e+00
 TP6dh SX3er  1 3.650000e-01    1.750000e+00
 TP6dr SX3eh  1 3.650000e-01    1.750000e+00
 TP6dh SX2er  1 3.660000e-01    1.600000e+00
 TP6dr SX2eh  1 3.660000e-01    1.600000e+00
 TP6dh SX1er  1 3.780000e-01    1.450000e+00
 TP6dr SX1eh  1 3.780000e-01    1.450000e+00
 TP5dh SC6vr  1 3.940000e-01    1.290000e+00
 TP5dr SC6vh  1 3.940000e-01    1.290000e+00
 TP5dh SC5vr  1 3.940000e-01    1.290000e+00
 TP5dr SC5vh  1 3.940000e-01    1.290000e+00
 TP5dh SC4vr  1 4.040000e-01    1.130000e+00
 TP5dr SC4vh  1 4.040000e-01    1.130000e+00
 TP5dh SC3vr  1 4.090000e-01    1.080000e+00
 TP5dr SC3vh  1 4.090000e-01    1.080000e+00
 TP5dh SC2vr  1 4.090000e-01    1.080000e+00
 TP5dr SC2vh  1 4.090000e-01    1.080000e+00
 TP5dh SC1vr  1 4.230000e-01    9.810000e-01
 TP5dr SC1vh  1 4.230000e-01    9.810000e-01
 TP5dh SX4vr  1 3.660000e-01    1.600000e+00
 TP5dr SX4vh  1 3.660000e-01    1.600000e+00
 TP5dh SX3vr  1 3.780000e-01    1.450000e+00
 TP5dr SX3vh  1 3.780000e-01    1.450000e+00
 TP5dh SX2vr  1 3.780000e-01    1.450000e+00
 TP5dr SX2vh  1 3.780000e-01    1.450000e+00
 TP5dh SX1vr  1 4.040000e-01    1.130000e+00
 TP5dr SX1vh  1 4.040000e-01    1.130000e+00
 TP5dh SC6er  1 3.660000e-01    1.600000e+00
 TP5dr SC6eh  1 3.660000e-01    1.600000e+00
 TP5dh SC5er  1 3.660000e-01    1.600000e+00
 TP5dr SC5eh  1 3.660000e-01    1.600000e+00
 TP5dh SC4er  1 3.780000e-01    1.450000e+00
 TP5dr SC4eh  1 3.780000e-01    1.450000e+00
 TP5dh SC3er  1 3.940000e-01    1.290000e+00
 TP5dr SC3eh  1 3.940000e-01    1.290000e+00
 TP5dh SC2er  1 3.940000e-01    1.290000e+00
 TP5dr SC2eh  1 3.940000e-01    1.290000e+00
 TP5dh SC1er  1 4.040000e-01    1.130000e+00
 TP5dr SC1eh  1 4.040000e-01    1.130000e+00
 TP5dh SX4er  1 3.650000e-01    1.910000e+00
 TP5dr SX4eh  1 3.650000e-01    1.910000e+00
 TP5dh SX3er  1 3.650000e-01    1.750000e+00
 TP5dr SX3eh  1 3.650000e-01    1.750000e+00
 TP5dh SX2er  1 3.650000e-01    1.750000e+00
 TP5dr SX2eh  1 3.650000e-01    1.750000e+00
 TP5dh SX1er  1 3.780000e-01    1.450000e+00
 TP5dr SX1eh  1 3.780000e-01    1.450000e+00
 TP4dh SC6vr  1 3.780000e-01    1.450000e+00
 TP4dr SC6vh  1 3.780000e-01    1.450000e+00
 TP4dh SC5vr  1 3.940000e-01    1.290000e+00
 TP4dr SC5vh  1 3.940000e-01    1.290000e+00
 TP4dh SC4vr  1 4.040000e-01    1.130000e+00
 TP4dr SC4vh  1 4.040000e-01    1.130000e+00
 TP4dh SC3vr  1 4.090000e-01    1.080000e+00
 TP4dr SC3vh  1 4.090000e-01    1.080000e+00
 TP4dh SC2vr  1 4.090000e-01    1.080000e+00
 TP4dr SC2vh  1 4.090000e-01    1.080000e+00
 TP4dh SC1vr  1 4.230000e-01    9.810000e-01
 TP4dr SC1vh  1 4.230000e-01    9.810000e-01
 TP4dh SX4vr  1 3.660000e-01    1.600000e+00
 TP4dr SX4vh  1 3.660000e-01    1.600000e+00
 TP4dh SX3vr  1 3.780000e-01    1.450000e+00
 TP4dr SX3vh  1 3.780000e-01    1.450000e+00
 TP4dh SX2vr  1 3.780000e-01    1.450000e+00
 TP4dr SX2vh  1 3.780000e-01    1.450000e+00
 TP4dh SX1vr  1 3.940000e-01    1.290000e+00
 TP4dr SX1vh  1 3.940000e-01    1.290000e+00
 TP4dh SC6er  1 3.650000e-01    1.750000e+00
 TP4dr SC6eh  1 3.650000e-01    1.750000e+00
 TP4dh SC5er  1 3.660000e-01    1.600000e+00
 TP4dr SC5eh  1 3.660000e-01    1.600000e+00
 TP4dh SC4er  1 3.780000e-01    1.450000e+00
 TP4dr SC4eh  1 3.780000e-01    1.450000e+00
 TP4dh SC3er  1 3.940000e-01    1.290000e+00
 TP4dr SC3eh  1 3.940000e-01    1.290000e+00
 TP4dh SC2er  1 3.940000e-01    1.290000e+00
 TP4dr SC2eh  1 3.940000e-01    1.290000e+00
 TP4dh SC1er  1 4.040000e-01    1.130000e+00
 TP4dr SC1eh  1 4.040000e-01    1.130000e+00
 TP4dh SX4er  1 3.650000e-01    1.910000e+00
 TP4dr SX4eh  1 3.650000e-01    1.910000e+00
 TP4dh SX3er  1 3.650000e-01    1.750000e+00
 TP4dr SX3eh  1 3.650000e-01    1.750000e+00
 TP4dh SX2er  1 3.650000e-01    1.750000e+00
 TP4dr SX2eh  1 3.650000e-01    1.750000e+00
 TP4dh SX1er  1 3.660000e-01    1.600000e+00
 TP4dr SX1eh  1 3.660000e-01    1.600000e+00
 TP3dh SC6vr  1 3.660000e-01    1.600000e+00
 TP3dr SC6vh  1 3.660000e-01    1.600000e+00
 TP3dh SC5vr  1 3.780000e-01    1.450000e+00
 TP3dr SC5vh  1 3.780000e-01    1.450000e+00
 TP3dh SC4vr  1 3.940000e-01    1.290000e+00
 TP3dr SC4vh  1 3.940000e-01    1.290000e+00
 TP3dh SC3vr  1 4.090000e-01    1.080000e+00
 TP3dr SC3vh  1 4.090000e-01    1.080000e+00
 TP3dh SC2vr  1 4.090000e-01    1.080000e+00
 TP3dr SC2vh  1 4.090000e-01    1.080000e+00
 TP3dh SC1vr  1 4.230000e-01    9.810000e-01
 TP3dr SC1vh  1 4.230000e-01    9.810000e-01
 TP3dh SX4vr  1 3.660000e-01    1.600000e+00
 TP3dr SX4vh  1 3.660000e-01    1.600000e+00
 TP3dh SX3vr  1 3.660000e-01    1.600000e+00
 TP3dr SX3vh  1 3.660000e-01    1.600000e+00
 TP3dh SX2vr  1 3.780000e-01    1.450000e+00
 TP3dr SX2vh  1 3.780000e-01    1.450000e+00
 TP3dh SX1vr  1 3.940000e-01    1.290000e+00
 TP3dr SX1vh  1 3.940000e-01    1.290000e+00
 TP3dh SC6er  1 3.650000e-01    1.910000e+00
 TP3dr SC6eh  1 3.650000e-01    1.910000e+00
 TP3dh SC5er  1 3.650000e-01    1.750000e+00
 TP3dr SC5eh  1 3.650000e-01    1.750000e+00
 TP3dh SC4er  1 3.660000e-01    1.600000e+00
 TP3dr SC4eh  1 3.660000e-01    1.600000e+00
 TP3dh SC3er  1 3.940000e-01    1.290000e+00
 TP3dr SC3eh  1 3.940000e-01    1.290000e+00
 TP3dh SC2er  1 3.940000e-01    1.290000e+00
 TP3dr SC2eh  1 3.940000e-01    1.290000e+00
 TP3dh SC1er  1 4.040000e-01    1.130000e+00
 TP3dr SC1eh  1 4.040000e-01    1.130000e+00
 TP3dh SX4er  1 3.650000e-01    1.910000e+00
 TP3dr SX4eh  1 3.650000e-01    1.910000e+00
 TP3dh SX3er  1 3.650000e-01    1.910000e+00
 TP3dr SX3eh  1 3.650000e-01    1.910000e+00
 TP3dh SX2er  1 3.650000e-01    1.750000e+00
 TP3dr SX2eh  1 3.650000e-01    1.750000e+00
 TP3dh SX1er  1 3.660000e-01    1.600000e+00
 TP3dr SX1eh  1 3.660000e-01    1.600000e+00
 TP2dh SC6vr  1 3.660000e-01    1.600000e+00
 TP2dr SC6vh  1 3.660000e-01    1.600000e+00
 TP2dh SC5vr  1 3.780000e-01    1.450000e+00
 TP2dr SC5vh  1 3.780000e-01    1.450000e+00
 TP2dh SC4vr  1 3.940000e-01    1.290000e+00
 TP2dr SC4vh  1 3.940000e-01    1.290000e+00
 TP2dh SC3vr  1 4.040000e-01    1.130000e+00
 TP2dr SC3vh  1 4.040000e-01    1.130000e+00
 TP2dh SC2vr  1 4.040000e-01    1.130000e+00
 TP2dr SC2vh  1 4.040000e-01    1.130000e+00
 TP2dh SC1vr  1 4.090000e-01    1.080000e+00
 TP2dr SC1vh  1 4.090000e-01    1.080000e+00
 TP2dh SX4vr  1 3.660000e-01    1.600000e+00
 TP2dr SX4vh  1 3.660000e-01    1.600000e+00
 TP2dh SX3vr  1 3.660000e-01    1.600000e+00
 TP2dr SX3vh  1 3.660000e-01    1.600000e+00
 TP2dh SX2vr  1 3.780000e-01    1.450000e+00
 TP2dr SX2vh  1 3.780000e-01    1.450000e+00
 TP2dh SX1vr  1 3.940000e-01    1.290000e+00
 TP2dr SX1vh  1 3.940000e-01    1.290000e+00
 TP2dh SC6er  1 3.650000e-01    1.910000e+00
 TP2dr SC6eh  1 3.650000e-01    1.910000e+00
 TP2dh SC5er  1 3.650000e-01    1.750000e+00
 TP2dr SC5eh  1 3.650000e-01    1.750000e+00
 TP2dh SC4er  1 3.660000e-01    1.600000e+00
 TP2dr SC4eh  1 3.660000e-01    1.600000e+00
 TP2dh SC3er  1 3.780000e-01    1.450000e+00
 TP2dr SC3eh  1 3.780000e-01    1.450000e+00
 TP2dh SC2er  1 3.780000e-01    1.450000e+00
 TP2dr SC2eh  1 3.780000e-01    1.450000e+00
 TP2dh SC1er  1 3.940000e-01    1.290000e+00
 TP2dr SC1eh  1 3.940000e-01    1.290000e+00
 TP2dh SX4er  1 3.650000e-01    1.910000e+00
 TP2dr SX4eh  1 3.650000e-01    1.910000e+00
 TP2dh SX3er  1 3.650000e-01    1.910000e+00
 TP2dr SX3eh  1 3.650000e-01    1.910000e+00
 TP2dh SX2er  1 3.650000e-01    1.750000e+00
 TP2dr SX2eh  1 3.650000e-01    1.750000e+00
 TP2dh SX1er  1 3.660000e-01    1.600000e+00
 TP2dr SX1eh  1 3.660000e-01    1.600000e+00
 TP1dh SC6vr  1 3.660000e-01    1.600000e+00
 TP1dr SC6vh  1 3.660000e-01    1.600000e+00
 TP1dh SC5vr  1 3.780000e-01    1.450000e+00
 TP1dr SC5vh  1 3.780000e-01    1.450000e+00
 TP1dh SC4vr  1 3.940000e-01    1.290000e+00
 TP1dr SC4vh  1 3.940000e-01    1.290000e+00
 TP1dh SC3vr  1 4.040000e-01    1.130000e+00
 TP1dr SC3vh  1 4.040000e-01    1.130000e+00
 TP1dh SC2vr  1 4.040000e-01    1.130000e+00
 TP1dr SC2vh  1 4.040000e-01    1.130000e+00
 TP1dh SC1vr  1 4.090000e-01    1.080000e+00
 TP1dr SC1vh  1 4.090000e-01    1.080000e+00
 TP1dh SX4vr  1 3.660000e-01    1.600000e+00
 TP1dr SX4vh  1 3.660000e-01    1.600000e+00
 TP1dh SX3vr  1 3.660000e-01    1.600000e+00
 TP1dr SX3vh  1 3.660000e-01    1.600000e+00
 TP1dh SX2vr  1 3.780000e-01    1.450000e+00
 TP1dr SX2vh  1 3.780000e-01    1.450000e+00
 TP1dh SX1vr  1 3.940000e-01    1.290000e+00
 TP1dr SX1vh  1 3.940000e-01    1.290000e+00
 TP1dh SC6er  1 3.650000e-01    1.910000e+00
 TP1dr SC6eh  1 3.650000e-01    1.910000e+00
 TP1dh SC5er  1 3.650000e-01    1.750000e+00
 TP1dr SC5eh  1 3.650000e-01    1.750000e+00
 TP1dh SC4er  1 3.660000e-01    1.600000e+00
 TP1dr SC4eh  1 3.660000e-01    1.600000e+00
 TP1dh SC3er  1 3.780000e-01    1.450000e+00
 TP1dr SC3eh  1 3.780000e-01    1.450000e+00
 TP1dh SC2er  1 3.780000e-01    1.450000e+00
 TP1dr SC2eh  1 3.780000e-01    1.450000e+00
 TP1dh SC1er  1 3.940000e-01    1.290000e+00
 TP1dr SC1eh  1 3.940000e-01    1.290000e+00
 TP1dh SX4er  1 3.650000e-01    1.910000e+00
 TP1dr SX4eh  1 3.650000e-01    1.910000e+00
 TP1dh SX3er  1 3.650000e-01    1.910000e+00
 TP1dr SX3eh  1 3.650000e-01    1.910000e+00
 TP1dh SX2er  1 3.650000e-01    1.750000e+00
 TP1dr SX2eh  1 3.650000e-01    1.750000e+00
 TP1dh SX1er  1 3.660000e-01    1.600000e+00
 TP1dr SX1eh  1 3.660000e-01    1.600000e+00
 TN6dh SC6vr  1 3.650000e-01    1.750000e+00
 TN6dr SC6vh  1 3.650000e-01    1.750000e+00
 TN6dh SC5vr  1 3.660000e-01    1.600000e+00
 TN6dr SC5vh  1 3.660000e-01    1.600000e+00
 TN6dh SC4vr  1 3.780000e-01    1.450000e+00
 TN6dr SC4vh  1 3.780000e-01    1.450000e+00
 TN6dh SC3vr  1 3.940000e-01    1.290000e+00
 TN6dr SC3vh  1 3.940000e-01    1.290000e+00
 TN6dh SC2vr  1 3.940000e-01    1.290000e+00
 TN6dr SC2vh  1 3.940000e-01    1.290000e+00
 TN6dh SC1vr  1 4.040000e-01    1.130000e+00
 TN6dr SC1vh  1 4.040000e-01    1.130000e+00
 TN6dh SX4vr  1 3.650000e-01    1.750000e+00
 TN6dr SX4vh  1 3.650000e-01    1.750000e+00
 TN6dh SX3vr  1 3.660000e-01    1.600000e+00
 TN6dr SX3vh  1 3.660000e-01    1.600000e+00
 TN6dh SX2vr  1 3.780000e-01    1.450000e+00
 TN6dr SX2vh  1 3.780000e-01    1.450000e+00
 TN6dh SX1vr  1 3.940000e-01    1.290000e+00
 TN6dr SX1vh  1 3.940000e-01    1.290000e+00
 TN6dh SC6er  1 3.650000e-01    2.110000e+00
 TN6dr SC6eh  1 3.650000e-01    2.110000e+00
 TN6dh SC5er  1 3.650000e-01    1.910000e+00
 TN6dr SC5eh  1 3.650000e-01    1.910000e+00
 TN6dh SC4er  1 3.650000e-01    1.750000e+00
 TN6dr SC4eh  1 3.650000e-01    1.750000e+00
 TN6dh SC3er  1 3.660000e-01    1.600000e+00
 TN6dr SC3eh  1 3.660000e-01    1.600000e+00
 TN6dh SC2er  1 3.660000e-01    1.600000e+00
 TN6dr SC2eh  1 3.660000e-01    1.600000e+00
 TN6dh SC1er  1 3.780000e-01    1.450000e+00
 TN6dr SC1eh  1 3.780000e-01    1.450000e+00
 TN6dh SX4er  1 3.650000e-01    2.110000e+00
 TN6dr SX4eh  1 3.650000e-01    2.110000e+00
 TN6dh SX3er  1 3.650000e-01    1.910000e+00
 TN6dr SX3eh  1 3.650000e-01    1.910000e+00
 TN6dh SX2er  1 3.650000e-01    1.750000e+00
 TN6dr SX2eh  1 3.650000e-01    1.750000e+00
 TN6dh SX1er  1 3.660000e-01    1.600000e+00
 TN6dr SX1eh  1 3.660000e-01    1.600000e+00
 TN5dh SC6vr  1 3.650000e-01    1.750000e+00
 TN5dr SC6vh  1 3.650000e-01    1.750000e+00
 TN5dh SC5vr  1 3.660000e-01    1.600000e+00
 TN5dr SC5vh  1 3.660000e-01    1.600000e+00
 TN5dh SC4vr  1 3.780000e-01    1.450000e+00
 TN5dr SC4vh  1 3.780000e-01    1.450000e+00
 TN5dh SC3vr  1 3.780000e-01    1.450000e+00
 TN5dr SC3vh  1 3.780000e-01    1.450000e+00
 TN5dh SC2vr  1 3.940000e-01    1.290000e+00
 TN5dr SC2vh  1 3.940000e-01    1.290000e+00
 TN5dh SC1vr  1 4.040000e-01    1.130000e+00
 TN5dr SC1vh  1 4.040000e-01    1.130000e+00
 TN5dh SX4vr  1 3.650000e-01    1.910000e+00
 TN5dr SX4vh  1 3.650000e-01    1.910000e+00
 TN5dh SX3vr  1 3.650000e-01    1.750000e+00
 TN5dr SX3vh  1 3.650000e-01    1.750000e+00
 TN5dh SX2vr  1 3.660000e-01    1.600000e+00
 TN5dr SX2vh  1 3.660000e-01    1.600000e+00
 TN5dh SX1vr  1 3.780000e-01    1.450000e+00
 TN5dr SX1vh  1 3.780000e-01    1.450000e+00
 TN5dh SC6er  1 3.650000e-01    2.110000e+00
 TN5dr SC6eh  1 3.650000e-01    2.110000e+00
 TN5dh SC5er  1 3.650000e-01    1.910000e+00
 TN5dr SC5eh  1 3.650000e-01    1.910000e+00
 TN5dh SC4er  1 3.650000e-01    1.750000e+00
 TN5dr SC4eh  1 3.650000e-01    1.750000e+00
 TN5dh SC3er  1 3.650000e-01    1.750000e+00
 TN5dr SC3eh  1 3.650000e-01    1.750000e+00
 TN5dh SC2er  1 3.660000e-01    1.600000e+00
 TN5dr SC2eh  1 3.660000e-01    1.600000e+00
 TN5dh SC1er  1 3.780000e-01    1.450000e+00
 TN5dr SC1eh  1 3.780000e-01    1.450000e+00
 TN5dh SX4er  1 3.650000e-01    2.340000e+00
 TN5dr SX4eh  1 3.650000e-01    2.340000e+00
 TN5dh SX3er  1 3.650000e-01    2.110000e+00
 TN5dr SX3eh  1 3.650000e-01    2.110000e+00
 TN5dh SX2er  1 3.650000e-01    1.910000e+00
 TN5dr SX2eh  1 3.650000e-01    1.910000e+00
 TN5dh SX1er  1 3.650000e-01    1.750000e+00
 TN5dr SX1eh  1 3.650000e-01    1.750000e+00
 TN4dh SC6vr  1 3.650000e-01    1.750000e+00
 TN4dr SC6vh  1 3.650000e-01    1.750000e+00
 TN4dh SC5vr  1 3.660000e-01    1.600000e+00
 TN4dr SC5vh  1 3.660000e-01    1.600000e+00
 TN4dh SC4vr  1 3.660000e-01    1.600000e+00
 TN4dr SC4vh  1 3.660000e-01    1.600000e+00
 TN4dh SC3vr  1 3.780000e-01    1.450000e+00
 TN4dr SC3vh  1 3.780000e-01    1.450000e+00
 TN4dh SC2vr  1 3.940000e-01    1.290000e+00
 TN4dr SC2vh  1 3.940000e-01    1.290000e+00
 TN4dh SC1vr  1 4.040000e-01    1.130000e+00
 TN4dr SC1vh  1 4.040000e-01    1.130000e+00
 TN4dh SX4vr  1 3.650000e-01    2.110000e+00
 TN4dr SX4vh  1 3.650000e-01    2.110000e+00
 TN4dh SX3vr  1 3.650000e-01    1.910000e+00
 TN4dr SX3vh  1 3.650000e-01    1.910000e+00
 TN4dh SX2vr  1 3.660000e-01    1.600000e+00
 TN4dr SX2vh  1 3.660000e-01    1.600000e+00
 TN4dh SX1vr  1 3.780000e-01    1.450000e+00
 TN4dr SX1vh  1 3.780000e-01    1.450000e+00
 TN4dh SC6er  1 3.650000e-01    2.110000e+00
 TN4dr SC6eh  1 3.650000e-01    2.110000e+00
 TN4dh SC5er  1 3.650000e-01    1.910000e+00
 TN4dr SC5eh  1 3.650000e-01    1.910000e+00
 TN4dh SC4er  1 3.650000e-01    1.910000e+00
 TN4dr SC4eh  1 3.650000e-01    1.910000e+00
 TN4dh SC3er  1 3.650000e-01    1.750000e+00
 TN4dr SC3eh  1 3.650000e-01    1.750000e+00
 TN4dh SC2er  1 3.660000e-01    1.600000e+00
 TN4dr SC2eh  1 3.660000e-01    1.600000e+00
 TN4dh SC1er  1 3.780000e-01    1.450000e+00
 TN4dr SC1eh  1 3.780000e-01    1.450000e+00
 TN4dh SX4er  1 3.650000e-01    2.570000e+00
 TN4dr SX4eh  1 3.650000e-01    2.570000e+00
 TN4dh SX3er  1 3.650000e-01    2.340000e+00
 TN4dr SX3eh  1 3.650000e-01    2.340000e+00
 TN4dh SX2er  1 3.650000e-01    1.910000e+00
 TN4dr SX2eh  1 3.650000e-01    1.910000e+00
 TN4dh SX1er  1 3.650000e-01    1.750000e+00
 TN4dr SX1eh  1 3.650000e-01    1.750000e+00
 TN3dh SC6vr  1 3.650000e-01    1.750000e+00
 TN3dr SC6vh  1 3.650000e-01    1.750000e+00
 TN3dh SC5vr  1 3.660000e-01    1.600000e+00
 TN3dr SC5vh  1 3.660000e-01    1.600000e+00
 TN3dh SC4vr  1 3.660000e-01    1.600000e+00
 TN3dr SC4vh  1 3.660000e-01    1.600000e+00
 TN3dh SC3vr  1 3.780000e-01    1.450000e+00
 TN3dr SC3vh  1 3.780000e-01    1.450000e+00
 TN3dh SC2vr  1 3.780000e-01    1.450000e+00
 TN3dr SC2vh  1 3.780000e-01    1.450000e+00
 TN3dh SC1vr  1 3.940000e-01    1.290000e+00
 TN3dr SC1vh  1 3.940000e-01    1.290000e+00
 TN3dh SX4vr  1 3.650000e-01    1.910000e+00
 TN3dr SX4vh  1 3.650000e-01    1.910000e+00
 TN3dh SX3vr  1 3.650000e-01    1.750000e+00
 TN3dr SX3vh  1 3.650000e-01    1.750000e+00
 TN3dh SX2vr  1 3.660000e-01    1.600000e+00
 TN3dr SX2vh  1 3.660000e-01    1.600000e+00
 TN3dh SX1vr  1 3.660000e-01    1.600000e+00
 TN3dr SX1vh  1 3.660000e-01    1.600000e+00
 TN3dh SC6er  1 3.650000e-01    2.110000e+00
 TN3dr SC6eh  1 3.650000e-01    2.110000e+00
 TN3dh SC5er  1 3.650000e-01    1.910000e+00
 TN3dr SC5eh  1 3.650000e-01    1.910000e+00
 TN3dh SC4er  1 3.650000e-01    1.910000e+00
 TN3dr SC4eh  1 3.650000e-01    1.910000e+00
 TN3dh SC3er  1 3.650000e-01    1.750000e+00
 TN3dr SC3eh  1 3.650000e-01    1.750000e+00
 TN3dh SC2er  1 3.650000e-01    1.750000e+00
 TN3dr SC2eh  1 3.650000e-01    1.750000e+00
 TN3dh SC1er  1 3.660000e-01    1.600000e+00
 TN3dr SC1eh  1 3.660000e-01    1.600000e+00
 TN3dh SX4er  1 3.650000e-01    2.340000e+00
 TN3dr SX4eh  1 3.650000e-01    2.340000e+00
 TN3dh SX3er  1 3.650000e-01    2.110000e+00
 TN3dr SX3eh  1 3.650000e-01    2.110000e+00
 TN3dh SX2er  1 3.650000e-01    1.910000e+00
 TN3dr SX2eh  1 3.650000e-01    1.910000e+00
 TN3dh SX1er  1 3.650000e-01    1.910000e+00
 TN3dr SX1eh  1 3.650000e-01    1.910000e+00
 TN2dh SC6vr  1 3.650000e-01    1.750000e+00
 TN2dr SC6vh  1 3.650000e-01    1.750000e+00
 TN2dh SC5vr  1 3.660000e-01    1.600000e+00
 TN2dr SC5vh  1 3.660000e-01    1.600000e+00
 TN2dh SC4vr  1 3.660000e-01    1.600000e+00
 TN2dr SC4vh  1 3.660000e-01    1.600000e+00
 TN2dh SC3vr  1 3.660000e-01    1.600000e+00
 TN2dr SC3vh  1 3.660000e-01    1.600000e+00
 TN2dh SC2vr  1 3.780000e-01    1.450000e+00
 TN2dr SC2vh  1 3.780000e-01    1.450000e+00
 TN2dh SC1vr  1 3.940000e-01    1.290000e+00
 TN2dr SC1vh  1 3.940000e-01    1.290000e+00
 TN2dh SX4vr  1 3.650000e-01    1.910000e+00
 TN2dr SX4vh  1 3.650000e-01    1.910000e+00
 TN2dh SX3vr  1 3.650000e-01    1.750000e+00
 TN2dr SX3vh  1 3.650000e-01    1.750000e+00
 TN2dh SX2vr  1 3.660000e-01    1.600000e+00
 TN2dr SX2vh  1 3.660000e-01    1.600000e+00
 TN2dh SX1vr  1 3.660000e-01    1.600000e+00
 TN2dr SX1vh  1 3.660000e-01    1.600000e+00
 TN2dh SC6er  1 3.650000e-01    2.110000e+00
 TN2dr SC6eh  1 3.650000e-01    2.110000e+00
 TN2dh SC5er  1 3.650000e-01    1.910000e+00
 TN2dr SC5eh  1 3.650000e-01    1.910000e+00
 TN2dh SC4er  1 3.650000e-01    1.910000e+00
 TN2dr SC4eh  1 3.650000e-01    1.910000e+00
 TN2dh SC3er  1 3.650000e-01    1.910000e+00
 TN2dr SC3eh  1 3.650000e-01    1.910000e+00
 TN2dh SC2er  1 3.650000e-01    1.750000e+00
 TN2dr SC2eh  1 3.650000e-01    1.750000e+00
 TN2dh SC1er  1 3.660000e-01    1.600000e+00
 TN2dr SC1eh  1 3.660000e-01    1.600000e+00
 TN2dh SX4er  1 3.650000e-01    2.340000e+00
 TN2dr SX4eh  1 3.650000e-01    2.340000e+00
 TN2dh SX3er  1 3.650000e-01    2.110000e+00
 TN2dr SX3eh  1 3.650000e-01    2.110000e+00
 TN2dh SX2er  1 3.650000e-01    1.910000e+00
 TN2dr SX2eh  1 3.650000e-01    1.910000e+00
 TN2dh SX1er  1 3.650000e-01    1.910000e+00
 TN2dr SX1eh  1 3.650000e-01    1.910000e+00
 TN1dh SC6vr  1 3.650000e-01    1.910000e+00
 TN1dr SC6vh  1 3.650000e-01    1.910000e+00
 TN1dh SC5vr  1 3.650000e-01    1.750000e+00
 TN1dr SC5vh  1 3.650000e-01    1.750000e+00
 TN1dh SC4vr  1 3.650000e-01    1.750000e+00
 TN1dr SC4vh  1 3.650000e-01    1.750000e+00
 TN1dh SC3vr  1 3.660000e-01    1.600000e+00
 TN1dr SC3vh  1 3.660000e-01    1.600000e+00
 TN1dh SC2vr  1 3.780000e-01    1.450000e+00
 TN1dr SC2vh  1 3.780000e-01    1.450000e+00
 TN1dh SC1vr  1 3.940000e-01    1.290000e+00
 TN1dr SC1vh  1 3.940000e-01    1.290000e+00
 TN1dh SX4vr  1 3.650000e-01    1.750000e+00
 TN1dr SX4vh  1 3.650000e-01    1.750000e+00
 TN1dh SX3vr  1 3.650000e-01    1.750000e+00
 TN1dr SX3vh  1 3.650000e-01    1.750000e+00
 TN1dh SX2vr  1 3.660000e-01    1.600000e+00
 TN1dr SX2vh  1 3.660000e-01    1.600000e+00
 TN1dh SX1vr  1 3.660000e-01    1.600000e+00
 TN1dr SX1vh  1 3.660000e-01    1.600000e+00
 TN1dh SC6er  1 3.650000e-01    2.340000e+00
 TN1dr SC6eh  1 3.650000e-01    2.340000e+00
 TN1dh SC5er  1 3.650000e-01    2.110000e+00
 TN1dr SC5eh  1 3.650000e-01    2.110000e+00
 TN1dh SC4er  1 3.650000e-01    2.110000e+00
 TN1dr SC4eh  1 3.650000e-01    2.110000e+00
 TN1dh SC3er  1 3.650000e-01    1.910000e+00
 TN1dr SC3eh  1 3.650000e-01    1.910000e+00
 TN1dh SC2er  1 3.650000e-01    1.750000e+00
 TN1dr SC2eh  1 3.650000e-01    1.750000e+00
 TN1dh SC1er  1 3.660000e-01    1.600000e+00
 TN1dr SC1eh  1 3.660000e-01    1.600000e+00
 TN1dh SX4er  1 3.650000e-01    2.110000e+00
 TN1dr SX4eh  1 3.650000e-01    2.110000e+00
 TN1dh SX3er  1 3.650000e-01    2.110000e+00
 TN1dr SX3eh  1 3.650000e-01    2.110000e+00
 TN1dh SX2er  1 3.650000e-01    1.910000e+00
 TN1dr SX2eh  1 3.650000e-01    1.910000e+00
 TN1dh SX1er  1 3.650000e-01    1.910000e+00
 TN1dr SX1eh  1 3.650000e-01    1.910000e+00
 TP6ah SC6vr  1 3.660000e-01    1.600000e+00
 TP6ar SC6vh  1 3.660000e-01    1.600000e+00
 TP6ah SC5vr  1 3.780000e-01    1.450000e+00
 TP6ar SC5vh  1 3.780000e-01    1.450000e+00
 TP6ah SC4vr  1 3.940000e-01    1.290000e+00
 TP6ar SC4vh  1 3.940000e-01    1.290000e+00
 TP6ah SC3vr  1 4.040000e-01    1.130000e+00
 TP6ar SC3vh  1 4.040000e-01    1.130000e+00
 TP6ah SC2vr  1 4.040000e-01    1.130000e+00
 TP6ar SC2vh  1 4.040000e-01    1.130000e+00
 TP6ah SC1vr  1 4.230000e-01    9.810000e-01
 TP6ar SC1vh  1 4.230000e-01    9.810000e-01
 TP6ah SX4vr  1 3.650000e-01    1.750000e+00
 TP6ar SX4vh  1 3.650000e-01    1.750000e+00
 TP6ah SX3vr  1 3.650000e-01    1.750000e+00
 TP6ar SX3vh  1 3.650000e-01    1.750000e+00
 TP6ah SX2vr  1 3.660000e-01    1.600000e+00
 TP6ar SX2vh  1 3.660000e-01    1.600000e+00
 TP6ah SX1vr  1 3.780000e-01    1.450000e+00
 TP6ar SX1vh  1 3.780000e-01    1.450000e+00
 TP6ah SC6er  1 3.940000e-01    1.290000e+00
 TP6ar SC6eh  1 3.940000e-01    1.290000e+00
 TP6ah SC5er  1 4.040000e-01    1.130000e+00
 TP6ar SC5eh  1 4.040000e-01    1.130000e+00
 TP6ah SC4er  1 4.090000e-01    1.080000e+00
 TP6ar SC4eh  1 4.090000e-01    1.080000e+00
 TP6ah SC3er  1 4.230000e-01    9.810000e-01
 TP6ar SC3eh  1 4.230000e-01    9.810000e-01
 TP6ah SC2er  1 4.230000e-01    9.810000e-01
 TP6ar SC2eh  1 4.230000e-01    9.810000e-01
 TP6ah SC1er  1 5.370000e-01    8.080000e-01
 TP6ar SC1eh  1 5.370000e-01    8.080000e-01
 TP6ah SX4er  1 3.780000e-01    1.450000e+00
 TP6ar SX4eh  1 3.780000e-01    1.450000e+00
 TP6ah SX3er  1 3.780000e-01    1.450000e+00
 TP6ar SX3eh  1 3.780000e-01    1.450000e+00
 TP6ah SX2er  1 3.940000e-01    1.290000e+00
 TP6ar SX2eh  1 3.940000e-01    1.290000e+00
 TP6ah SX1er  1 4.040000e-01    1.130000e+00
 TP6ar SX1eh  1 4.040000e-01    1.130000e+00
 TP5ah SC6vr  1 3.660000e-01    1.600000e+00
 TP5ar SC6vh  1 3.660000e-01    1.600000e+00
 TP5ah SC5vr  1 3.660000e-01    1.600000e+00
 TP5ar SC5vh  1 3.660000e-01    1.600000e+00
 TP5ah SC4vr  1 3.780000e-01    1.450000e+00
 TP5ar SC4vh  1 3.780000e-01    1.450000e+00
 TP5ah SC3vr  1 3.940000e-01    1.290000e+00
 TP5ar SC3vh  1 3.940000e-01    1.290000e+00
 TP5ah SC2vr  1 3.940000e-01    1.290000e+00
 TP5ar SC2vh  1 3.940000e-01    1.290000e+00
 TP5ah SC1vr  1 4.040000e-01    1.130000e+00
 TP5ar SC1vh  1 4.040000e-01    1.130000e+00
 TP5ah SX4vr  1 3.650000e-01    1.910000e+00
 TP5ar SX4vh  1 3.650000e-01    1.910000e+00
 TP5ah SX3vr  1 3.650000e-01    1.750000e+00
 TP5ar SX3vh  1 3.650000e-01    1.750000e+00
 TP5ah SX2vr  1 3.650000e-01    1.750000e+00
 TP5ar SX2vh  1 3.650000e-01    1.750000e+00
 TP5ah SX1vr  1 3.780000e-01    1.450000e+00
 TP5ar SX1vh  1 3.780000e-01    1.450000e+00
 TP5ah SC6er  1 3.940000e-01    1.290000e+00
 TP5ar SC6eh  1 3.940000e-01    1.290000e+00
 TP5ah SC5er  1 3.940000e-01    1.290000e+00
 TP5ar SC5eh  1 3.940000e-01    1.290000e+00
 TP5ah SC4er  1 4.040000e-01    1.130000e+00
 TP5ar SC4eh  1 4.040000e-01    1.130000e+00
 TP5ah SC3er  1 4.090000e-01    1.080000e+00
 TP5ar SC3eh  1 4.090000e-01    1.080000e+00
 TP5ah SC2er  1 4.090000e-01    1.080000e+00
 TP5ar SC2eh  1 4.090000e-01    1.080000e+00
 TP5ah SC1er  1 4.230000e-01    9.810000e-01
 TP5ar SC1eh  1 4.230000e-01    9.810000e-01
 TP5ah SX4er  1 3.660000e-01    1.600000e+00
 TP5ar SX4eh  1 3.660000e-01    1.600000e+00
 TP5ah SX3er  1 3.780000e-01    1.450000e+00
 TP5ar SX3eh  1 3.780000e-01    1.450000e+00
 TP5ah SX2er  1 3.780000e-01    1.450000e+00
 TP5ar SX2eh  1 3.780000e-01    1.450000e+00
 TP5ah SX1er  1 4.040000e-01    1.130000e+00
 TP5ar SX1eh  1 4.040000e-01    1.130000e+00
 TP4ah SC6vr  1 3.650000e-01    1.750000e+00
 TP4ar SC6vh  1 3.650000e-01    1.750000e+00
 TP4ah SC5vr  1 3.660000e-01    1.600000e+00
 TP4ar SC5vh  1 3.660000e-01    1.600000e+00
 TP4ah SC4vr  1 3.780000e-01    1.450000e+00
 TP4ar SC4vh  1 3.780000e-01    1.450000e+00
 TP4ah SC3vr  1 3.940000e-01    1.290000e+00
 TP4ar SC3vh  1 3.940000e-01    1.290000e+00
 TP4ah SC2vr  1 3.940000e-01    1.290000e+00
 TP4ar SC2vh  1 3.940000e-01    1.290000e+00
 TP4ah SC1vr  1 4.040000e-01    1.130000e+00
 TP4ar SC1vh  1 4.040000e-01    1.130000e+00
 TP4ah SX4vr  1 3.650000e-01    1.910000e+00
 TP4ar SX4vh  1 3.650000e-01    1.910000e+00
 TP4ah SX3vr  1 3.650000e-01    1.750000e+00
 TP4ar SX3vh  1 3.650000e-01    1.750000e+00
 TP4ah SX2vr  1 3.650000e-01    1.750000e+00
 TP4ar SX2vh  1 3.650000e-01    1.750000e+00
 TP4ah SX1vr  1 3.660000e-01    1.600000e+00
 TP4ar SX1vh  1 3.660000e-01    1.600000e+00
 TP4ah SC6er  1 3.780000e-01    1.450000e+00
 TP4ar SC6eh  1 3.780000e-01    1.450000e+00
 TP4ah SC5er  1 3.940000e-01    1.290000e+00
 TP4ar SC5eh  1 3.940000e-01    1.290000e+00
 TP4ah SC4er  1 4.040000e-01    1.130000e+00
 TP4ar SC4eh  1 4.040000e-01    1.130000e+00
 TP4ah SC3er  1 4.090000e-01    1.080000e+00
 TP4ar SC3eh  1 4.090000e-01    1.080000e+00
 TP4ah SC2er  1 4.090000e-01    1.080000e+00
 TP4ar SC2eh  1 4.090000e-01    1.080000e+00
 TP4ah SC1er  1 4.230000e-01    9.810000e-01
 TP4ar SC1eh  1 4.230000e-01    9.810000e-01
 TP4ah SX4er  1 3.660000e-01    1.600000e+00
 TP4ar SX4eh  1 3.660000e-01    1.600000e+00
 TP4ah SX3er  1 3.780000e-01    1.450000e+00
 TP4ar SX3eh  1 3.780000e-01    1.450000e+00
 TP4ah SX2er  1 3.780000e-01    1.450000e+00
 TP4ar SX2eh  1 3.780000e-01    1.450000e+00
 TP4ah SX1er  1 3.940000e-01    1.290000e+00
 TP4ar SX1eh  1 3.940000e-01    1.290000e+00
 TP3ah SC6vr  1 3.650000e-01    1.910000e+00
 TP3ar SC6vh  1 3.650000e-01    1.910000e+00
 TP3ah SC5vr  1 3.650000e-01    1.750000e+00
 TP3ar SC5vh  1 3.650000e-01    1.750000e+00
 TP3ah SC4vr  1 3.660000e-01    1.600000e+00
 TP3ar SC4vh  1 3.660000e-01    1.600000e+00
 TP3ah SC3vr  1 3.940000e-01    1.290000e+00
 TP3ar SC3vh  1 3.940000e-01    1.290000e+00
 TP3ah SC2vr  1 3.940000e-01    1.290000e+00
 TP3ar SC2vh  1 3.940000e-01    1.290000e+00
 TP3ah SC1vr  1 4.040000e-01    1.130000e+00
 TP3ar SC1vh  1 4.040000e-01    1.130000e+00
 TP3ah SX4vr  1 3.650000e-01    1.910000e+00
 TP3ar SX4vh  1 3.650000e-01    1.910000e+00
 TP3ah SX3vr  1 3.650000e-01    1.910000e+00
 TP3ar SX3vh  1 3.650000e-01    1.910000e+00
 TP3ah SX2vr  1 3.650000e-01    1.750000e+00
 TP3ar SX2vh  1 3.650000e-01    1.750000e+00
 TP3ah SX1vr  1 3.660000e-01    1.600000e+00
 TP3ar SX1vh  1 3.660000e-01    1.600000e+00
 TP3ah SC6er  1 3.660000e-01    1.600000e+00
 TP3ar SC6eh  1 3.660000e-01    1.600000e+00
 TP3ah SC5er  1 3.780000e-01    1.450000e+00
 TP3ar SC5eh  1 3.780000e-01    1.450000e+00
 TP3ah SC4er  1 3.940000e-01    1.290000e+00
 TP3ar SC4eh  1 3.940000e-01    1.290000e+00
 TP3ah SC3er  1 4.090000e-01    1.080000e+00
 TP3ar SC3eh  1 4.090000e-01    1.080000e+00
 TP3ah SC2er  1 4.090000e-01    1.080000e+00
 TP3ar SC2eh  1 4.090000e-01    1.080000e+00
 TP3ah SC1er  1 4.230000e-01    9.810000e-01
 TP3ar SC1eh  1 4.230000e-01    9.810000e-01
 TP3ah SX4er  1 3.660000e-01    1.600000e+00
 TP3ar SX4eh  1 3.660000e-01    1.600000e+00
 TP3ah SX3er  1 3.660000e-01    1.600000e+00
 TP3ar SX3eh  1 3.660000e-01    1.600000e+00
 TP3ah SX2er  1 3.780000e-01    1.450000e+00
 TP3ar SX2eh  1 3.780000e-01    1.450000e+00
 TP3ah SX1er  1 3.940000e-01    1.290000e+00
 TP3ar SX1eh  1 3.940000e-01    1.290000e+00
 TP2ah SC6vr  1 3.650000e-01    1.910000e+00
 TP2ar SC6vh  1 3.650000e-01    1.910000e+00
 TP2ah SC5vr  1 3.650000e-01    1.750000e+00
 TP2ar SC5vh  1 3.650000e-01    1.750000e+00
 TP2ah SC4vr  1 3.660000e-01    1.600000e+00
 TP2ar SC4vh  1 3.660000e-01    1.600000e+00
 TP2ah SC3vr  1 3.780000e-01    1.450000e+00
 TP2ar SC3vh  1 3.780000e-01    1.450000e+00
 TP2ah SC2vr  1 3.780000e-01    1.450000e+00
 TP2ar SC2vh  1 3.780000e-01    1.450000e+00
 TP2ah SC1vr  1 3.940000e-01    1.290000e+00
 TP2ar SC1vh  1 3.940000e-01    1.290000e+00
 TP2ah SX4vr  1 3.650000e-01    1.910000e+00
 TP2ar SX4vh  1 3.650000e-01    1.910000e+00
 TP2ah SX3vr  1 3.650000e-01    1.910000e+00
 TP2ar SX3vh  1 3.650000e-01    1.910000e+00
 TP2ah SX2vr  1 3.650000e-01    1.750000e+00
 TP2ar SX2vh  1 3.650000e-01    1.750000e+00
 TP2ah SX1vr  1 3.660000e-01    1.600000e+00
 TP2ar SX1vh  1 3.660000e-01    1.600000e+00
 TP2ah SC6er  1 3.660000e-01    1.600000e+00
 TP2ar SC6eh  1 3.660000e-01    1.600000e+00
 TP2ah SC5er  1 3.780000e-01    1.450000e+00
 TP2ar SC5eh  1 3.780000e-01    1.450000e+00
 TP2ah SC4er  1 3.940000e-01    1.290000e+00
 TP2ar SC4eh  1 3.940000e-01    1.290000e+00
 TP2ah SC3er  1 4.040000e-01    1.130000e+00
 TP2ar SC3eh  1 4.040000e-01    1.130000e+00
 TP2ah SC2er  1 4.040000e-01    1.130000e+00
 TP2ar SC2eh  1 4.040000e-01    1.130000e+00
 TP2ah SC1er  1 4.090000e-01    1.080000e+00
 TP2ar SC1eh  1 4.090000e-01    1.080000e+00
 TP2ah SX4er  1 3.660000e-01    1.600000e+00
 TP2ar SX4eh  1 3.660000e-01    1.600000e+00
 TP2ah SX3er  1 3.660000e-01    1.600000e+00
 TP2ar SX3eh  1 3.660000e-01    1.600000e+00
 TP2ah SX2er  1 3.780000e-01    1.450000e+00
 TP2ar SX2eh  1 3.780000e-01    1.450000e+00
 TP2ah SX1er  1 3.940000e-01    1.290000e+00
 TP2ar SX1eh  1 3.940000e-01    1.290000e+00
 TP1ah SC6vr  1 3.650000e-01    1.910000e+00
 TP1ar SC6vh  1 3.650000e-01    1.910000e+00
 TP1ah SC5vr  1 3.650000e-01    1.750000e+00
 TP1ar SC5vh  1 3.650000e-01    1.750000e+00
 TP1ah SC4vr  1 3.660000e-01    1.600000e+00
 TP1ar SC4vh  1 3.660000e-01    1.600000e+00
 TP1ah SC3vr  1 3.780000e-01    1.450000e+00
 TP1ar SC3vh  1 3.780000e-01    1.450000e+00
 TP1ah SC2vr  1 3.780000e-01    1.450000e+00
 TP1ar SC2vh  1 3.780000e-01    1.450000e+00
 TP1ah SC1vr  1 3.940000e-01    1.290000e+00
 TP1ar SC1vh  1 3.940000e-01    1.290000e+00
 TP1ah SX4vr  1 3.650000e-01    1.910000e+00
 TP1ar SX4vh  1 3.650000e-01    1.910000e+00
 TP1ah SX3vr  1 3.650000e-01    1.910000e+00
 TP1ar SX3vh  1 3.650000e-01    1.910000e+00
 TP1ah SX2vr  1 3.650000e-01    1.750000e+00
 TP1ar SX2vh  1 3.650000e-01    1.750000e+00
 TP1ah SX1vr  1 3.660000e-01    1.600000e+00
 TP1ar SX1vh  1 3.660000e-01    1.600000e+00
 TP1ah SC6er  1 3.660000e-01    1.600000e+00
 TP1ar SC6eh  1 3.660000e-01    1.600000e+00
 TP1ah SC5er  1 3.780000e-01    1.450000e+00
 TP1ar SC5eh  1 3.780000e-01    1.450000e+00
 TP1ah SC4er  1 3.940000e-01    1.290000e+00
 TP1ar SC4eh  1 3.940000e-01    1.290000e+00
 TP1ah SC3er  1 4.040000e-01    1.130000e+00
 TP1ar SC3eh  1 4.040000e-01    1.130000e+00
 TP1ah SC2er  1 4.040000e-01    1.130000e+00
 TP1ar SC2eh  1 4.040000e-01    1.130000e+00
 TP1ah SC1er  1 4.090000e-01    1.080000e+00
 TP1ar SC1eh  1 4.090000e-01    1.080000e+00
 TP1ah SX4er  1 3.660000e-01    1.600000e+00
 TP1ar SX4eh  1 3.660000e-01    1.600000e+00
 TP1ah SX3er  1 3.660000e-01    1.600000e+00
 TP1ar SX3eh  1 3.660000e-01    1.600000e+00
 TP1ah SX2er  1 3.780000e-01    1.450000e+00
 TP1ar SX2eh  1 3.780000e-01    1.450000e+00
 TP1ah SX1er  1 3.940000e-01    1.290000e+00
 TP1ar SX1eh  1 3.940000e-01    1.290000e+00
 TN6ah SC6vr  1 3.650000e-01    2.110000e+00
 TN6ar SC6vh  1 3.650000e-01    2.110000e+00
 TN6ah SC5vr  1 3.650000e-01    1.910000e+00
 TN6ar SC5vh  1 3.650000e-01    1.910000e+00
 TN6ah SC4vr  1 3.650000e-01    1.750000e+00
 TN6ar SC4vh  1 3.650000e-01    1.750000e+00
 TN6ah SC3vr  1 3.660000e-01    1.600000e+00
 TN6ar SC3vh  1 3.660000e-01    1.600000e+00
 TN6ah SC2vr  1 3.660000e-01    1.600000e+00
 TN6ar SC2vh  1 3.660000e-01    1.600000e+00
 TN6ah SC1vr  1 3.780000e-01    1.450000e+00
 TN6ar SC1vh  1 3.780000e-01    1.450000e+00
 TN6ah SX4vr  1 3.650000e-01    2.110000e+00
 TN6ar SX4vh  1 3.650000e-01    2.110000e+00
 TN6ah SX3vr  1 3.650000e-01    1.910000e+00
 TN6ar SX3vh  1 3.650000e-01    1.910000e+00
 TN6ah SX2vr  1 3.650000e-01    1.750000e+00
 TN6ar SX2vh  1 3.650000e-01    1.750000e+00
 TN6ah SX1vr  1 3.660000e-01    1.600000e+00
 TN6ar SX1vh  1 3.660000e-01    1.600000e+00
 TN6ah SC6er  1 3.650000e-01    1.750000e+00
 TN6ar SC6eh  1 3.650000e-01    1.750000e+00
 TN6ah SC5er  1 3.660000e-01    1.600000e+00
 TN6ar SC5eh  1 3.660000e-01    1.600000e+00
 TN6ah SC4er  1 3.780000e-01    1.450000e+00
 TN6ar SC4eh  1 3.780000e-01    1.450000e+00
 TN6ah SC3er  1 3.940000e-01    1.290000e+00
 TN6ar SC3eh  1 3.940000e-01    1.290000e+00
 TN6ah SC2er  1 3.940000e-01    1.290000e+00
 TN6ar SC2eh  1 3.940000e-01    1.290000e+00
 TN6ah SC1er  1 4.040000e-01    1.130000e+00
 TN6ar SC1eh  1 4.040000e-01    1.130000e+00
 TN6ah SX4er  1 3.650000e-01    1.750000e+00
 TN6ar SX4eh  1 3.650000e-01    1.750000e+00
 TN6ah SX3er  1 3.660000e-01    1.600000e+00
 TN6ar SX3eh  1 3.660000e-01    1.600000e+00
 TN6ah SX2er  1 3.780000e-01    1.450000e+00
 TN6ar SX2eh  1 3.780000e-01    1.450000e+00
 TN6ah SX1er  1 3.940000e-01    1.290000e+00
 TN6ar SX1eh  1 3.940000e-01    1.290000e+00
 TN5ah SC6vr  1 3.650000e-01    2.110000e+00
 TN5ar SC6vh  1 3.650000e-01    2.110000e+00
 TN5ah SC5vr  1 3.650000e-01    1.910000e+00
 TN5ar SC5vh  1 3.650000e-01    1.910000e+00
 TN5ah SC4vr  1 3.650000e-01    1.750000e+00
 TN5ar SC4vh  1 3.650000e-01    1.750000e+00
 TN5ah SC3vr  1 3.650000e-01    1.750000e+00
 TN5ar SC3vh  1 3.650000e-01    1.750000e+00
 TN5ah SC2vr  1 3.660000e-01    1.600000e+00
 TN5ar SC2vh  1 3.660000e-01    1.600000e+00
 TN5ah SC1vr  1 3.780000e-01    1.450000e+00
 TN5ar SC1vh  1 3.780000e-01    1.450000e+00
 TN5ah SX4vr  1 3.650000e-01    2.340000e+00
 TN5ar SX4vh  1 3.650000e-01    2.340000e+00
 TN5ah SX3vr  1 3.650000e-01    2.110000e+00
 TN5ar SX3vh  1 3.650000e-01    2.110000e+00
 TN5ah SX2vr  1 3.650000e-01    1.910000e+00
 TN5ar SX2vh  1 3.650000e-01    1.910000e+00
 TN5ah SX1vr  1 3.650000e-01    1.750000e+00
 TN5ar SX1vh  1 3.650000e-01    1.750000e+00
 TN5ah SC6er  1 3.650000e-01    1.750000e+00
 TN5ar SC6eh  1 3.650000e-01    1.750000e+00
 TN5ah SC5er  1 3.660000e-01    1.600000e+00
 TN5ar SC5eh  1 3.660000e-01    1.600000e+00
 TN5ah SC4er  1 3.780000e-01    1.450000e+00
 TN5ar SC4eh  1 3.780000e-01    1.450000e+00
 TN5ah SC3er  1 3.780000e-01    1.450000e+00
 TN5ar SC3eh  1 3.780000e-01    1.450000e+00
 TN5ah SC2er  1 3.940000e-01    1.290000e+00
 TN5ar SC2eh  1 3.940000e-01    1.290000e+00
 TN5ah SC1er  1 4.040000e-01    1.130000e+00
 TN5ar SC1eh  1 4.040000e-01    1.130000e+00
 TN5ah SX4er  1 3.650000e-01    1.910000e+00
 TN5ar SX4eh  1 3.650000e-01    1.910000e+00
 TN5ah SX3er  1 3.650000e-01    1.750000e+00
 TN5ar SX3eh  1 3.650000e-01    1.750000e+00
 TN5ah SX2er  1 3.660000e-01    1.600000e+00
 TN5ar SX2eh  1 3.660000e-01    1.600000e+00
 TN5ah SX1er  1 3.780000e-01    1.450000e+00
 TN5ar SX1eh  1 3.780000e-01    1.450000e+00
 TN4ah SC6vr  1 3.650000e-01    2.110000e+00
 TN4ar SC6vh  1 3.650000e-01    2.110000e+00
 TN4ah SC5vr  1 3.650000e-01    1.910000e+00
 TN4ar SC5vh  1 3.650000e-01    1.910000e+00
 TN4ah SC4vr  1 3.650000e-01    1.910000e+00
 TN4ar SC4vh  1 3.650000e-01    1.910000e+00
 TN4ah SC3vr  1 3.650000e-01    1.750000e+00
 TN4ar SC3vh  1 3.650000e-01    1.750000e+00
 TN4ah SC2vr  1 3.660000e-01    1.600000e+00
 TN4ar SC2vh  1 3.660000e-01    1.600000e+00
 TN4ah SC1vr  1 3.780000e-01    1.450000e+00
 TN4ar SC1vh  1 3.780000e-01    1.450000e+00
 TN4ah SX4vr  1 3.650000e-01    2.570000e+00
 TN4ar SX4vh  1 3.650000e-01    2.570000e+00
 TN4ah SX3vr  1 3.650000e-01    2.340000e+00
 TN4ar SX3vh  1 3.650000e-01    2.340000e+00
 TN4ah SX2vr  1 3.650000e-01    1.910000e+00
 TN4ar SX2vh  1 3.650000e-01    1.910000e+00
 TN4ah SX1vr  1 3.650000e-01    1.750000e+00
 TN4ar SX1vh  1 3.650000e-01    1.750000e+00
 TN4ah SC6er  1 3.650000e-01    1.750000e+00
 TN4ar SC6eh  1 3.650000e-01    1.750000e+00
 TN4ah SC5er  1 3.660000e-01    1.600000e+00
 TN4ar SC5eh  1 3.660000e-01    1.600000e+00
 TN4ah SC4er  1 3.660000e-01    1.600000e+00
 TN4ar SC4eh  1 3.660000e-01    1.600000e+00
 TN4ah SC3er  1 3.780000e-01    1.450000e+00
 TN4ar SC3eh  1 3.780000e-01    1.450000e+00
 TN4ah SC2er  1 3.940000e-01    1.290000e+00
 TN4ar SC2eh  1 3.940000e-01    1.290000e+00
 TN4ah SC1er  1 4.040000e-01    1.130000e+00
 TN4ar SC1eh  1 4.040000e-01    1.130000e+00
 TN4ah SX4er  1 3.650000e-01    2.110000e+00
 TN4ar SX4eh  1 3.650000e-01    2.110000e+00
 TN4ah SX3er  1 3.650000e-01    1.910000e+00
 TN4ar SX3eh  1 3.650000e-01    1.910000e+00
 TN4ah SX2er  1 3.660000e-01    1.600000e+00
 TN4ar SX2eh  1 3.660000e-01    1.600000e+00
 TN4ah SX1er  1 3.780000e-01    1.450000e+00
 TN4ar SX1eh  1 3.780000e-01    1.450000e+00
 TN3ah SC6vr  1 3.650000e-01    2.110000e+00
 TN3ar SC6vh  1 3.650000e-01    2.110000e+00
 TN3ah SC5vr  1 3.650000e-01    1.910000e+00
 TN3ar SC5vh  1 3.650000e-01    1.910000e+00
 TN3ah SC4vr  1 3.650000e-01    1.910000e+00
 TN3ar SC4vh  1 3.650000e-01    1.910000e+00
 TN3ah SC3vr  1 3.650000e-01    1.750000e+00
 TN3ar SC3vh  1 3.650000e-01    1.750000e+00
 TN3ah SC2vr  1 3.650000e-01    1.750000e+00
 TN3ar SC2vh  1 3.650000e-01    1.750000e+00
 TN3ah SC1vr  1 3.660000e-01    1.600000e+00
 TN3ar SC1vh  1 3.660000e-01    1.600000e+00
 TN3ah SX4vr  1 3.650000e-01    2.340000e+00
 TN3ar SX4vh  1 3.650000e-01    2.340000e+00
 TN3ah SX3vr  1 3.650000e-01    2.110000e+00
 TN3ar SX3vh  1 3.650000e-01    2.110000e+00
 TN3ah SX2vr  1 3.650000e-01    1.910000e+00
 TN3ar SX2vh  1 3.650000e-01    1.910000e+00
 TN3ah SX1vr  1 3.650000e-01    1.910000e+00
 TN3ar SX1vh  1 3.650000e-01    1.910000e+00
 TN3ah SC6er  1 3.650000e-01    1.750000e+00
 TN3ar SC6eh  1 3.650000e-01    1.750000e+00
 TN3ah SC5er  1 3.660000e-01    1.600000e+00
 TN3ar SC5eh  1 3.660000e-01    1.600000e+00
 TN3ah SC4er  1 3.660000e-01    1.600000e+00
 TN3ar SC4eh  1 3.660000e-01    1.600000e+00
 TN3ah SC3er  1 3.780000e-01    1.450000e+00
 TN3ar SC3eh  1 3.780000e-01    1.450000e+00
 TN3ah SC2er  1 3.780000e-01    1.450000e+00
 TN3ar SC2eh  1 3.780000e-01    1.450000e+00
 TN3ah SC1er  1 3.940000e-01    1.290000e+00
 TN3ar SC1eh  1 3.940000e-01    1.290000e+00
 TN3ah SX4er  1 3.650000e-01    1.910000e+00
 TN3ar SX4eh  1 3.650000e-01    1.910000e+00
 TN3ah SX3er  1 3.650000e-01    1.750000e+00
 TN3ar SX3eh  1 3.650000e-01    1.750000e+00
 TN3ah SX2er  1 3.660000e-01    1.600000e+00
 TN3ar SX2eh  1 3.660000e-01    1.600000e+00
 TN3ah SX1er  1 3.660000e-01    1.600000e+00
 TN3ar SX1eh  1 3.660000e-01    1.600000e+00
 TN2ah SC6vr  1 3.650000e-01    2.110000e+00
 TN2ar SC6vh  1 3.650000e-01    2.110000e+00
 TN2ah SC5vr  1 3.650000e-01    1.910000e+00
 TN2ar SC5vh  1 3.650000e-01    1.910000e+00
 TN2ah SC4vr  1 3.650000e-01    1.910000e+00
 TN2ar SC4vh  1 3.650000e-01    1.910000e+00
 TN2ah SC3vr  1 3.650000e-01    1.910000e+00
 TN2ar SC3vh  1 3.650000e-01    1.910000e+00
 TN2ah SC2vr  1 3.650000e-01    1.750000e+00
 TN2ar SC2vh  1 3.650000e-01    1.750000e+00
 TN2ah SC1vr  1 3.660000e-01    1.600000e+00
 TN2ar SC1vh  1 3.660000e-01    1.600000e+00
 TN2ah SX4vr  1 3.650000e-01    2.340000e+00
 TN2ar SX4vh  1 3.650000e-01    2.340000e+00
 TN2ah SX3vr  1 3.650000e-01    2.110000e+00
 TN2ar SX3vh  1 3.650000e-01    2.110000e+00
 TN2ah SX2vr  1 3.650000e-01    1.910000e+00
 TN2ar SX2vh  1 3.650000e-01    1.910000e+00
 TN2ah SX1vr  1 3.650000e-01    1.910000e+00
 TN2ar SX1vh  1 3.650000e-01    1.910000e+00
 TN2ah SC6er  1 3.650000e-01    1.750000e+00
 TN2ar SC6eh  1 3.650000e-01    1.750000e+00
 TN2ah SC5er  1 3.660000e-01    1.600000e+00
 TN2ar SC5eh  1 3.660000e-01    1.600000e+00
 TN2ah SC4er  1 3.660000e-01    1.600000e+00
 TN2ar SC4eh  1 3.660000e-01    1.600000e+00
 TN2ah SC3er  1 3.660000e-01    1.600000e+00
 TN2ar SC3eh  1 3.660000e-01    1.600000e+00
 TN2ah SC2er  1 3.780000e-01    1.450000e+00
 TN2ar SC2eh  1 3.780000e-01    1.450000e+00
 TN2ah SC1er  1 3.940000e-01    1.290000e+00
 TN2ar SC1eh  1 3.940000e-01    1.290000e+00
 TN2ah SX4er  1 3.650000e-01    1.910000e+00
 TN2ar SX4eh  1 3.650000e-01    1.910000e+00
 TN2ah SX3er  1 3.650000e-01    1.750000e+00
 TN2ar SX3eh  1 3.650000e-01    1.750000e+00
 TN2ah SX2er  1 3.660000e-01    1.600000e+00
 TN2ar SX2eh  1 3.660000e-01    1.600000e+00
 TN2ah SX1er  1 3.660000e-01    1.600000e+00
 TN2ar SX1eh  1 3.660000e-01    1.600000e+00
 TN1ah SC6vr  1 3.650000e-01    2.340000e+00
 TN1ar SC6vh  1 3.650000e-01    2.340000e+00
 TN1ah SC5vr  1 3.650000e-01    2.110000e+00
 TN1ar SC5vh  1 3.650000e-01    2.110000e+00
 TN1ah SC4vr  1 3.650000e-01    2.110000e+00
 TN1ar SC4vh  1 3.650000e-01    2.110000e+00
 TN1ah SC3vr  1 3.650000e-01    1.910000e+00
 TN1ar SC3vh  1 3.650000e-01    1.910000e+00
 TN1ah SC2vr  1 3.650000e-01    1.750000e+00
 TN1ar SC2vh  1 3.650000e-01    1.750000e+00
 TN1ah SC1vr  1 3.660000e-01    1.600000e+00
 TN1ar SC1vh  1 3.660000e-01    1.600000e+00
 TN1ah SX4vr  1 3.650000e-01    2.110000e+00
 TN1ar SX4vh  1 3.650000e-01    2.110000e+00
 TN1ah SX3vr  1 3.650000e-01    2.110000e+00
 TN1ar SX3vh  1 3.650000e-01    2.110000e+00
 TN1ah SX2vr  1 3.650000e-01    1.910000e+00
 TN1ar SX2vh  1 3.650000e-01    1.910000e+00
 TN1ah SX1vr  1 3.650000e-01    1.910000e+00
 TN1ar SX1vh  1 3.650000e-01    1.910000e+00
 TN1ah SC6er  1 3.650000e-01    1.910000e+00
 TN1ar SC6eh  1 3.650000e-01    1.910000e+00
 TN1ah SC5er  1 3.650000e-01    1.750000e+00
 TN1ar SC5eh  1 3.650000e-01    1.750000e+00
 TN1ah SC4er  1 3.650000e-01    1.750000e+00
 TN1ar SC4eh  1 3.650000e-01    1.750000e+00
 TN1ah SC3er  1 3.660000e-01    1.600000e+00
 TN1ar SC3eh  1 3.660000e-01    1.600000e+00
 TN1ah SC2er  1 3.780000e-01    1.450000e+00
 TN1ar SC2eh  1 3.780000e-01    1.450000e+00
 TN1ah SC1er  1 3.940000e-01    1.290000e+00
 TN1ar SC1eh  1 3.940000e-01    1.290000e+00
 TN1ah SX4er  1 3.650000e-01    1.750000e+00
 TN1ar SX4eh  1 3.650000e-01    1.750000e+00
 TN1ah SX3er  1 3.650000e-01    1.750000e+00
 TN1ar SX3eh  1 3.650000e-01    1.750000e+00
 TN1ah SX2er  1 3.660000e-01    1.600000e+00
 TN1ar SX2eh  1 3.660000e-01    1.600000e+00
 TN1ah SX1er  1 3.660000e-01    1.600000e+00
 TN1ar SX1eh  1 3.660000e-01    1.600000e+00
 TP6dq  SP5d  1 3.650000e-01    3.930000e+00
 TP6dq  SP4d  1 3.650000e-01    3.640000e+00
 TP6dq  SP3d  1 3.650000e-01    3.370000e+00
 TP6dq  SP2d  1 3.650000e-01    3.370000e+00
 TP6dq  SP1d  1 3.650000e-01    3.100000e+00
 TP6dq  SN6d  1 3.650000e-01    2.830000e+00
 TP6dq  SN5d  1 3.650000e-01    2.340000e+00
 TP6dq  SN4d  1 3.650000e-01    2.110000e+00
 TP6dq  SN3d  1 3.650000e-01    2.110000e+00
 TP6dq  SN2d  1 3.650000e-01    1.910000e+00
 TP6dq  SN1d  1 3.650000e-01    1.750000e+00
 TP6dq  SP6a  1 3.650000e-01    4.860000e+00
 TP6dq  SP5a  1 3.650000e-01    4.510000e+00
 TP6dq  SP4a  1 3.650000e-01    4.220000e+00
 TP6dq  SP3a  1 3.650000e-01    3.930000e+00
 TP6dq  SP2a  1 3.650000e-01    3.930000e+00
 TP6dq  SP1a  1 3.650000e-01    3.640000e+00
 TP6dq  SN6a  1 3.650000e-01    3.370000e+00
 TP6dq  SN5a  1 3.650000e-01    2.830000e+00
 TP6dq  SN4a  1 3.650000e-01    2.570000e+00
 TP6dq  SN3a  1 3.650000e-01    2.110000e+00
 TP6dq  SN2a  1 3.650000e-01    1.910000e+00
 TP6dq  SN1a  1 3.650000e-01    1.750000e+00
 TP6dq  SC6e  1 3.650000e-01    1.910000e+00
 TP6dq  SC5e  1 3.650000e-01    1.750000e+00
 TP6dq  SC4e  1 3.660000e-01    1.600000e+00
 TP6dq  SC3e  1 3.780000e-01    1.450000e+00
 TP6dq  SC2e  1 3.780000e-01    1.450000e+00
 TP6dq  SC1e  1 4.040000e-01    1.130000e+00
 TP6dq  SX4e  1 3.650000e-01    2.110000e+00
 TP6dq  SX3e  1 3.650000e-01    2.110000e+00
 TP6dq  SX2e  1 3.650000e-01    1.910000e+00
 TP6dq  SX1e  1 3.650000e-01    1.750000e+00
 TP6dq  SC6v  1 3.660000e-01    1.600000e+00
 TP6dq  SC5v  1 3.780000e-01    1.450000e+00
 TP6dq  SC4v  1 3.940000e-01    1.290000e+00
 TP6dq  SC3v  1 4.040000e-01    1.130000e+00
 TP6dq  SC2v  1 4.040000e-01    1.130000e+00
 TP6dq  SC1v  1 4.230000e-01    9.810000e-01
 TP6dq  SX4v  1 3.650000e-01    1.750000e+00
 TP6dq  SX3v  1 3.650000e-01    1.750000e+00
 TP6dq  SX2v  1 3.660000e-01    1.600000e+00
 TP6dq  SX1v  1 3.780000e-01    1.450000e+00
 TP5dq  SP4d  1 3.650000e-01    3.370000e+00
 TP5dq  SP3d  1 3.650000e-01    3.100000e+00
 TP5dq  SP2d  1 3.650000e-01    3.100000e+00
 TP5dq  SP1d  1 3.650000e-01    2.830000e+00
 TP5dq  SN6d  1 3.650000e-01    2.570000e+00
 TP5dq  SN5d  1 3.650000e-01    2.340000e+00
 TP5dq  SN4d  1 3.650000e-01    2.340000e+00
 TP5dq  SN3d  1 3.650000e-01    2.110000e+00
 TP5dq  SN2d  1 3.650000e-01    1.910000e+00
 TP5dq  SN1d  1 3.650000e-01    1.750000e+00
 TP5dq  SP5a  1 3.650000e-01    4.220000e+00
 TP5dq  SP4a  1 3.650000e-01    3.930000e+00
 TP5dq  SP3a  1 3.650000e-01    3.640000e+00
 TP5dq  SP2a  1 3.650000e-01    3.640000e+00
 TP5dq  SP1a  1 3.650000e-01    3.370000e+00
 TP5dq  SN6a  1 3.650000e-01    3.100000e+00
 TP5dq  SN5a  1 3.650000e-01    2.830000e+00
 TP5dq  SN4a  1 3.650000e-01    2.830000e+00
 TP5dq  SN3a  1 3.650000e-01    2.110000e+00
 TP5dq  SN2a  1 3.650000e-01    1.910000e+00
 TP5dq  SN1a  1 3.650000e-01    1.750000e+00
 TP5dq  SC6e  1 3.650000e-01    1.910000e+00
 TP5dq  SC5e  1 3.650000e-01    1.910000e+00
 TP5dq  SC4e  1 3.650000e-01    1.750000e+00
 TP5dq  SC3e  1 3.660000e-01    1.600000e+00
 TP5dq  SC2e  1 3.660000e-01    1.600000e+00
 TP5dq  SC1e  1 3.780000e-01    1.450000e+00
 TP5dq  SX4e  1 3.650000e-01    2.340000e+00
 TP5dq  SX3e  1 3.650000e-01    2.110000e+00
 TP5dq  SX2e  1 3.650000e-01    2.110000e+00
 TP5dq  SX1e  1 3.650000e-01    1.750000e+00
 TP5dq  SC6v  1 3.660000e-01    1.600000e+00
 TP5dq  SC5v  1 3.660000e-01    1.600000e+00
 TP5dq  SC4v  1 3.780000e-01    1.450000e+00
 TP5dq  SC3v  1 3.940000e-01    1.290000e+00
 TP5dq  SC2v  1 3.940000e-01    1.290000e+00
 TP5dq  SC1v  1 4.040000e-01    1.130000e+00
 TP5dq  SX4v  1 3.650000e-01    1.910000e+00
 TP5dq  SX3v  1 3.650000e-01    1.750000e+00
 TP5dq  SX2v  1 3.650000e-01    1.750000e+00
 TP5dq  SX1v  1 3.780000e-01    1.450000e+00
 TP4dq  SP3d  1 3.650000e-01    3.100000e+00
 TP4dq  SP2d  1 3.650000e-01    3.100000e+00
 TP4dq  SP1d  1 3.650000e-01    2.830000e+00
 TP4dq  SN6d  1 3.650000e-01    2.570000e+00
 TP4dq  SN5d  1 3.650000e-01    2.340000e+00
 TP4dq  SN4d  1 3.650000e-01    2.340000e+00
 TP4dq  SN3d  1 3.650000e-01    2.110000e+00
 TP4dq  SN2d  1 3.650000e-01    2.110000e+00
 TP4dq  SN1d  1 3.650000e-01    1.910000e+00
 TP4dq  SP4a  1 3.650000e-01    3.930000e+00
 TP4dq  SP3a  1 3.650000e-01    3.640000e+00
 TP4dq  SP2a  1 3.650000e-01    3.640000e+00
 TP4dq  SP1a  1 3.650000e-01    3.370000e+00
 TP4dq  SN6a  1 3.650000e-01    3.100000e+00
 TP4dq  SN5a  1 3.650000e-01    2.830000e+00
 TP4dq  SN4a  1 3.650000e-01    2.830000e+00
 TP4dq  SN3a  1 3.650000e-01    2.570000e+00
 TP4dq  SN2a  1 3.650000e-01    2.110000e+00
 TP4dq  SN1a  1 3.650000e-01    1.910000e+00
 TP4dq  SC6e  1 3.650000e-01    2.110000e+00
 TP4dq  SC5e  1 3.650000e-01    1.910000e+00
 TP4dq  SC4e  1 3.650000e-01    1.750000e+00
 TP4dq  SC3e  1 3.660000e-01    1.600000e+00
 TP4dq  SC2e  1 3.660000e-01    1.600000e+00
 TP4dq  SC1e  1 3.780000e-01    1.450000e+00
 TP4dq  SX4e  1 3.650000e-01    2.340000e+00
 TP4dq  SX3e  1 3.650000e-01    2.110000e+00
 TP4dq  SX2e  1 3.650000e-01    2.110000e+00
 TP4dq  SX1e  1 3.650000e-01    1.910000e+00
 TP4dq  SC6v  1 3.650000e-01    1.750000e+00
 TP4dq  SC5v  1 3.660000e-01    1.600000e+00
 TP4dq  SC4v  1 3.780000e-01    1.450000e+00
 TP4dq  SC3v  1 3.940000e-01    1.290000e+00
 TP4dq  SC2v  1 3.940000e-01    1.290000e+00
 TP4dq  SC1v  1 4.040000e-01    1.130000e+00
 TP4dq  SX4v  1 3.650000e-01    1.910000e+00
 TP4dq  SX3v  1 3.650000e-01    1.750000e+00
 TP4dq  SX2v  1 3.650000e-01    1.750000e+00
 TP4dq  SX1v  1 3.660000e-01    1.600000e+00
 TP3dq  SP2d  1 3.650000e-01    3.100000e+00
 TP3dq  SP1d  1 3.650000e-01    2.830000e+00
 TP3dq  SN6d  1 3.650000e-01    2.570000e+00
 TP3dq  SN5d  1 3.650000e-01    2.340000e+00
 TP3dq  SN4d  1 3.650000e-01    2.340000e+00
 TP3dq  SN3d  1 3.650000e-01    2.110000e+00
 TP3dq  SN2d  1 3.650000e-01    2.110000e+00
 TP3dq  SN1d  1 3.650000e-01    2.110000e+00
 TP3dq  SP3a  1 3.650000e-01    3.640000e+00
 TP3dq  SP2a  1 3.650000e-01    3.640000e+00
 TP3dq  SP1a  1 3.650000e-01    3.370000e+00
 TP3dq  SN6a  1 3.650000e-01    3.100000e+00
 TP3dq  SN5a  1 3.650000e-01    2.830000e+00
 TP3dq  SN4a  1 3.650000e-01    2.830000e+00
 TP3dq  SN3a  1 3.650000e-01    2.570000e+00
 TP3dq  SN2a  1 3.650000e-01    2.570000e+00
 TP3dq  SN1a  1 3.650000e-01    2.110000e+00
 TP3dq  SC6e  1 3.650000e-01    2.340000e+00
 TP3dq  SC5e  1 3.650000e-01    2.110000e+00
 TP3dq  SC4e  1 3.650000e-01    1.910000e+00
 TP3dq  SC3e  1 3.660000e-01    1.600000e+00
 TP3dq  SC2e  1 3.660000e-01    1.600000e+00
 TP3dq  SC1e  1 3.780000e-01    1.450000e+00
 TP3dq  SX4e  1 3.650000e-01    2.340000e+00
 TP3dq  SX3e  1 3.650000e-01    2.340000e+00
 TP3dq  SX2e  1 3.650000e-01    2.110000e+00
 TP3dq  SX1e  1 3.650000e-01    1.910000e+00
 TP3dq  SC6v  1 3.650000e-01    1.910000e+00
 TP3dq  SC5v  1 3.650000e-01    1.750000e+00
 TP3dq  SC4v  1 3.660000e-01    1.600000e+00
 TP3dq  SC3v  1 3.940000e-01    1.290000e+00
 TP3dq  SC2v  1 3.940000e-01    1.290000e+00
 TP3dq  SC1v  1 4.040000e-01    1.130000e+00
 TP3dq  SX4v  1 3.650000e-01    1.910000e+00
 TP3dq  SX3v  1 3.650000e-01    1.910000e+00
 TP3dq  SX2v  1 3.650000e-01    1.750000e+00
 TP3dq  SX1v  1 3.660000e-01    1.600000e+00
 TP2dq  SP1d  1 3.650000e-01    2.830000e+00
 TP2dq  SN6d  1 3.650000e-01    2.830000e+00
 TP2dq  SN5d  1 3.650000e-01    2.570000e+00
 TP2dq  SN4d  1 3.650000e-01    2.340000e+00
 TP2dq  SN3d  1 3.650000e-01    2.110000e+00
 TP2dq  SN2d  1 3.650000e-01    2.110000e+00
 TP2dq  SN1d  1 3.650000e-01    2.110000e+00
 TP2dq  SP2a  1 3.650000e-01    3.640000e+00
 TP2dq  SP1a  1 3.650000e-01    3.370000e+00
 TP2dq  SN6a  1 3.650000e-01    3.370000e+00
 TP2dq  SN5a  1 3.650000e-01    3.100000e+00
 TP2dq  SN4a  1 3.650000e-01    2.830000e+00
 TP2dq  SN3a  1 3.650000e-01    2.570000e+00
 TP2dq  SN2a  1 3.650000e-01    2.570000e+00
 TP2dq  SN1a  1 3.650000e-01    2.570000e+00
 TP2dq  SC6e  1 3.650000e-01    2.340000e+00
 TP2dq  SC5e  1 3.650000e-01    2.110000e+00
 TP2dq  SC4e  1 3.650000e-01    1.910000e+00
 TP2dq  SC3e  1 3.650000e-01    1.750000e+00
 TP2dq  SC2e  1 3.650000e-01    1.750000e+00
 TP2dq  SC1e  1 3.660000e-01    1.600000e+00
 TP2dq  SX4e  1 3.650000e-01    2.340000e+00
 TP2dq  SX3e  1 3.650000e-01    2.340000e+00
 TP2dq  SX2e  1 3.650000e-01    2.110000e+00
 TP2dq  SX1e  1 3.650000e-01    1.910000e+00
 TP2dq  SC6v  1 3.650000e-01    1.910000e+00
 TP2dq  SC5v  1 3.650000e-01    1.750000e+00
 TP2dq  SC4v  1 3.660000e-01    1.600000e+00
 TP2dq  SC3v  1 3.780000e-01    1.450000e+00
 TP2dq  SC2v  1 3.780000e-01    1.450000e+00
 TP2dq  SC1v  1 3.940000e-01    1.290000e+00
 TP2dq  SX4v  1 3.650000e-01    1.910000e+00
 TP2dq  SX3v  1 3.650000e-01    1.910000e+00
 TP2dq  SX2v  1 3.650000e-01    1.750000e+00
 TP2dq  SX1v  1 3.660000e-01    1.600000e+00
 TP1dq  SN6d  1 3.650000e-01    2.830000e+00
 TP1dq  SN5d  1 3.650000e-01    2.570000e+00
 TP1dq  SN4d  1 3.650000e-01    2.570000e+00
 TP1dq  SN3d  1 3.650000e-01    2.110000e+00
 TP1dq  SN2d  1 3.650000e-01    2.110000e+00
 TP1dq  SN1d  1 3.650000e-01    2.110000e+00
 TP1dq  SP1a  1 3.650000e-01    3.370000e+00
 TP1dq  SN6a  1 3.650000e-01    3.370000e+00
 TP1dq  SN5a  1 3.650000e-01    3.100000e+00
 TP1dq  SN4a  1 3.650000e-01    3.100000e+00
 TP1dq  SN3a  1 3.650000e-01    2.570000e+00
 TP1dq  SN2a  1 3.650000e-01    2.570000e+00
 TP1dq  SN1a  1 3.650000e-01    2.570000e+00
 TP1dq  SC6e  1 3.650000e-01    2.340000e+00
 TP1dq  SC5e  1 3.650000e-01    2.110000e+00
 TP1dq  SC4e  1 3.650000e-01    1.910000e+00
 TP1dq  SC3e  1 3.650000e-01    1.750000e+00
 TP1dq  SC2e  1 3.650000e-01    1.750000e+00
 TP1dq  SC1e  1 3.660000e-01    1.600000e+00
 TP1dq  SX4e  1 3.650000e-01    2.340000e+00
 TP1dq  SX3e  1 3.650000e-01    2.340000e+00
 TP1dq  SX2e  1 3.650000e-01    2.110000e+00
 TP1dq  SX1e  1 3.650000e-01    1.910000e+00
 TP1dq  SC6v  1 3.650000e-01    1.910000e+00
 TP1dq  SC5v  1 3.650000e-01    1.750000e+00
 TP1dq  SC4v  1 3.660000e-01    1.600000e+00
 TP1dq  SC3v  1 3.780000e-01    1.450000e+00
 TP1dq  SC2v  1 3.780000e-01    1.450000e+00
 TP1dq  SC1v  1 3.940000e-01    1.290000e+00
 TP1dq  SX4v  1 3.650000e-01    1.910000e+00
 TP1dq  SX3v  1 3.650000e-01    1.910000e+00
 TP1dq  SX2v  1 3.650000e-01    1.750000e+00
 TP1dq  SX1v  1 3.660000e-01    1.600000e+00
 TN6dq  SN5d  1 3.650000e-01    2.830000e+00
 TN6dq  SN4d  1 3.650000e-01    2.830000e+00
 TN6dq  SN3d  1 3.650000e-01    2.340000e+00
 TN6dq  SN2d  1 3.650000e-01    2.110000e+00
 TN6dq  SN1d  1 3.650000e-01    2.110000e+00
 TN6dq  SN6a  1 3.650000e-01    3.370000e+00
 TN6dq  SN5a  1 3.650000e-01    3.370000e+00
 TN6dq  SN4a  1 3.650000e-01    3.370000e+00
 TN6dq  SN3a  1 3.650000e-01    2.830000e+00
 TN6dq  SN2a  1 3.650000e-01    2.570000e+00
 TN6dq  SN1a  1 3.650000e-01    2.570000e+00
 TN6dq  SC6e  1 3.650000e-01    2.570000e+00
 TN6dq  SC5e  1 3.650000e-01    2.340000e+00
 TN6dq  SC4e  1 3.650000e-01    2.110000e+00
 TN6dq  SC3e  1 3.650000e-01    1.910000e+00
 TN6dq  SC2e  1 3.650000e-01    1.910000e+00
 TN6dq  SC1e  1 3.650000e-01    1.750000e+00
 TN6dq  SX4e  1 3.650000e-01    2.570000e+00
 TN6dq  SX3e  1 3.650000e-01    2.340000e+00
 TN6dq  SX2e  1 3.650000e-01    2.110000e+00
 TN6dq  SX1e  1 3.650000e-01    1.910000e+00
 TN6dq  SC6v  1 3.650000e-01    2.110000e+00
 TN6dq  SC5v  1 3.650000e-01    1.910000e+00
 TN6dq  SC4v  1 3.650000e-01    1.750000e+00
 TN6dq  SC3v  1 3.660000e-01    1.600000e+00
 TN6dq  SC2v  1 3.660000e-01    1.600000e+00
 TN6dq  SC1v  1 3.780000e-01    1.450000e+00
 TN6dq  SX4v  1 3.650000e-01    2.110000e+00
 TN6dq  SX3v  1 3.650000e-01    1.910000e+00
 TN6dq  SX2v  1 3.650000e-01    1.750000e+00
 TN6dq  SX1v  1 3.660000e-01    1.600000e+00
 TN5dq  SN4d  1 3.650000e-01    2.570000e+00
 TN5dq  SN3d  1 3.650000e-01    2.340000e+00
 TN5dq  SN2d  1 3.650000e-01    2.340000e+00
 TN5dq  SN1d  1 3.650000e-01    2.110000e+00
 TN5dq  SN5a  1 3.650000e-01    3.100000e+00
 TN5dq  SN4a  1 3.650000e-01    3.100000e+00
 TN5dq  SN3a  1 3.650000e-01    2.830000e+00
 TN5dq  SN2a  1 3.650000e-01    2.830000e+00
 TN5dq  SN1a  1 3.650000e-01    2.570000e+00
 TN5dq  SC6e  1 3.650000e-01    2.570000e+00
 TN5dq  SC5e  1 3.650000e-01    2.340000e+00
 TN5dq  SC4e  1 3.650000e-01    2.110000e+00
 TN5dq  SC3e  1 3.650000e-01    2.110000e+00
 TN5dq  SC2e  1 3.650000e-01    1.910000e+00
 TN5dq  SC1e  1 3.650000e-01    1.750000e+00
 TN5dq  SX4e  1 3.650000e-01    2.830000e+00
 TN5dq  SX3e  1 3.650000e-01    2.570000e+00
 TN5dq  SX2e  1 3.650000e-01    2.340000e+00
 TN5dq  SX1e  1 3.650000e-01    2.110000e+00
 TN5dq  SC6v  1 3.650000e-01    2.110000e+00
 TN5dq  SC5v  1 3.650000e-01    1.910000e+00
 TN5dq  SC4v  1 3.650000e-01    1.750000e+00
 TN5dq  SC3v  1 3.650000e-01    1.750000e+00
 TN5dq  SC2v  1 3.660000e-01    1.600000e+00
 TN5dq  SC1v  1 3.780000e-01    1.450000e+00
 TN5dq  SX4v  1 3.650000e-01    2.340000e+00
 TN5dq  SX3v  1 3.650000e-01    2.110000e+00
 TN5dq  SX2v  1 3.650000e-01    1.910000e+00
 TN5dq  SX1v  1 3.650000e-01    1.750000e+00
 TN4dq  SN3d  1 3.650000e-01    2.340000e+00
 TN4dq  SN2d  1 3.650000e-01    2.340000e+00
 TN4dq  SN1d  1 3.650000e-01    2.110000e+00
 TN4dq  SN4a  1 3.650000e-01    3.100000e+00
 TN4dq  SN3a  1 3.650000e-01    2.830000e+00
 TN4dq  SN2a  1 3.650000e-01    2.830000e+00
 TN4dq  SN1a  1 3.650000e-01    2.570000e+00
 TN4dq  SC6e  1 3.650000e-01    2.570000e+00
 TN4dq  SC5e  1 3.650000e-01    2.340000e+00
 TN4dq  SC4e  1 3.650000e-01    2.340000e+00
 TN4dq  SC3e  1 3.650000e-01    2.110000e+00
 TN4dq  SC2e  1 3.650000e-01    1.910000e+00
 TN4dq  SC1e  1 3.650000e-01    1.750000e+00
 TN4dq  SX4e  1 3.650000e-01    3.100000e+00
 TN4dq  SX3e  1 3.650000e-01    2.830000e+00
 TN4dq  SX2e  1 3.650000e-01    2.340000e+00
 TN4dq  SX1e  1 3.650000e-01    2.110000e+00
 TN4dq  SC6v  1 3.650000e-01    2.110000e+00
 TN4dq  SC5v  1 3.650000e-01    1.910000e+00
 TN4dq  SC4v  1 3.650000e-01    1.910000e+00
 TN4dq  SC3v  1 3.650000e-01    1.750000e+00
 TN4dq  SC2v  1 3.660000e-01    1.600000e+00
 TN4dq  SC1v  1 3.780000e-01    1.450000e+00
 TN4dq  SX4v  1 3.650000e-01    2.570000e+00
 TN4dq  SX3v  1 3.650000e-01    2.340000e+00
 TN4dq  SX2v  1 3.650000e-01    1.910000e+00
 TN4dq  SX1v  1 3.650000e-01    1.750000e+00
 TN3dq  SN2d  1 3.650000e-01    2.340000e+00
 TN3dq  SN1d  1 3.650000e-01    2.110000e+00
 TN3dq  SN3a  1 3.650000e-01    2.830000e+00
 TN3dq  SN2a  1 3.650000e-01    2.830000e+00
 TN3dq  SN1a  1 3.650000e-01    2.570000e+00
 TN3dq  SC6e  1 3.650000e-01    2.570000e+00
 TN3dq  SC5e  1 3.650000e-01    2.340000e+00
 TN3dq  SC4e  1 3.650000e-01    2.340000e+00
 TN3dq  SC3e  1 3.650000e-01    2.110000e+00
 TN3dq  SC2e  1 3.650000e-01    2.110000e+00
 TN3dq  SC1e  1 3.650000e-01    1.910000e+00
 TN3dq  SX4e  1 3.650000e-01    2.830000e+00
 TN3dq  SX3e  1 3.650000e-01    2.570000e+00
 TN3dq  SX2e  1 3.650000e-01    2.340000e+00
 TN3dq  SX1e  1 3.650000e-01    2.340000e+00
 TN3dq  SC6v  1 3.650000e-01    2.110000e+00
 TN3dq  SC5v  1 3.650000e-01    1.910000e+00
 TN3dq  SC4v  1 3.650000e-01    1.910000e+00
 TN3dq  SC3v  1 3.650000e-01    1.750000e+00
 TN3dq  SC2v  1 3.650000e-01    1.750000e+00
 TN3dq  SC1v  1 3.660000e-01    1.600000e+00
 TN3dq  SX4v  1 3.650000e-01    2.340000e+00
 TN3dq  SX3v  1 3.650000e-01    2.110000e+00
 TN3dq  SX2v  1 3.650000e-01    1.910000e+00
 TN3dq  SX1v  1 3.650000e-01    1.910000e+00
 TN2dq  SN1d  1 3.650000e-01    2.110000e+00
 TN2dq  SN2a  1 3.650000e-01    2.830000e+00
 TN2dq  SN1a  1 3.650000e-01    2.570000e+00
 TN2dq  SC6e  1 3.650000e-01    2.570000e+00
 TN2dq  SC5e  1 3.650000e-01    2.340000e+00
 TN2dq  SC4e  1 3.650000e-01    2.340000e+00
 TN2dq  SC3e  1 3.650000e-01    2.340000e+00
 TN2dq  SC2e  1 3.650000e-01    2.110000e+00
 TN2dq  SC1e  1 3.650000e-01    1.910000e+00
 TN2dq  SX4e  1 3.650000e-01    2.830000e+00
 TN2dq  SX3e  1 3.650000e-01    2.570000e+00
 TN2dq  SX2e  1 3.650000e-01    2.340000e+00
 TN2dq  SX1e  1 3.650000e-01    2.340000e+00
 TN2dq  SC6v  1 3.650000e-01    2.110000e+00
 TN2dq  SC5v  1 3.650000e-01    1.910000e+00
 TN2dq  SC4v  1 3.650000e-01    1.910000e+00
 TN2dq  SC3v  1 3.650000e-01    1.910000e+00
 TN2dq  SC2v  1 3.650000e-01    1.750000e+00
 TN2dq  SC1v  1 3.660000e-01    1.600000e+00
 TN2dq  SX4v  1 3.650000e-01    2.340000e+00
 TN2dq  SX3v  1 3.650000e-01    2.110000e+00
 TN2dq  SX2v  1 3.650000e-01    1.910000e+00
 TN2dq  SX1v  1 3.650000e-01    1.910000e+00
 TN1dq  SN1a  1 3.650000e-01    2.830000e+00
 TN1dq  SC6e  1 3.650000e-01    2.830000e+00
 TN1dq  SC5e  1 3.650000e-01    2.570000e+00
 TN1dq  SC4e  1 3.650000e-01    2.570000e+00
 TN1dq  SC3e  1 3.650000e-01    2.340000e+00
 TN1dq  SC2e  1 3.650000e-01    2.110000e+00
 TN1dq  SC1e  1 3.650000e-01    1.910000e+00
 TN1dq  SX4e  1 3.650000e-01    2.570000e+00
 TN1dq  SX3e  1 3.650000e-01    2.570000e+00
 TN1dq  SX2e  1 3.650000e-01    2.340000e+00
 TN1dq  SX1e  1 3.650000e-01    2.340000e+00
 TN1dq  SC6v  1 3.650000e-01    2.340000e+00
 TN1dq  SC5v  1 3.650000e-01    2.110000e+00
 TN1dq  SC4v  1 3.650000e-01    2.110000e+00
 TN1dq  SC3v  1 3.650000e-01    1.910000e+00
 TN1dq  SC2v  1 3.650000e-01    1.750000e+00
 TN1dq  SC1v  1 3.660000e-01    1.600000e+00
 TN1dq  SX4v  1 3.650000e-01    2.110000e+00
 TN1dq  SX3v  1 3.650000e-01    2.110000e+00
 TN1dq  SX2v  1 3.650000e-01    1.910000e+00
 TN1dq  SX1v  1 3.650000e-01    1.910000e+00
 TP6aq  SP5a  1 3.650000e-01    3.930000e+00
 TP6aq  SP4a  1 3.650000e-01    3.640000e+00
 TP6aq  SP3a  1 3.650000e-01    3.370000e+00
 TP6aq  SP2a  1 3.650000e-01    3.370000e+00
 TP6aq  SP1a  1 3.650000e-01    3.100000e+00
 TP6aq  SN6a  1 3.650000e-01    2.830000e+00
 TP6aq  SN5a  1 3.650000e-01    2.340000e+00
 TP6aq  SN4a  1 3.650000e-01    2.110000e+00
 TP6aq  SN3a  1 3.650000e-01    2.110000e+00
 TP6aq  SN2a  1 3.650000e-01    1.910000e+00
 TP6aq  SN1a  1 3.650000e-01    1.750000e+00
 TP6aq  SC6v  1 3.650000e-01    1.910000e+00
 TP6aq  SC5v  1 3.650000e-01    1.750000e+00
 TP6aq  SC4v  1 3.660000e-01    1.600000e+00
 TP6aq  SC3v  1 3.780000e-01    1.450000e+00
 TP6aq  SC2v  1 3.780000e-01    1.450000e+00
 TP6aq  SC1v  1 4.040000e-01    1.130000e+00
 TP6aq  SX4v  1 3.650000e-01    2.110000e+00
 TP6aq  SX3v  1 3.650000e-01    2.110000e+00
 TP6aq  SX2v  1 3.650000e-01    1.910000e+00
 TP6aq  SX1v  1 3.650000e-01    1.750000e+00
 TP6aq  SC6e  1 3.660000e-01    1.600000e+00
 TP6aq  SC5e  1 3.780000e-01    1.450000e+00
 TP6aq  SC4e  1 3.940000e-01    1.290000e+00
 TP6aq  SC3e  1 4.040000e-01    1.130000e+00
 TP6aq  SC2e  1 4.040000e-01    1.130000e+00
 TP6aq  SC1e  1 4.230000e-01    9.810000e-01
 TP6aq  SX4e  1 3.650000e-01    1.750000e+00
 TP6aq  SX3e  1 3.650000e-01    1.750000e+00
 TP6aq  SX2e  1 3.660000e-01    1.600000e+00
 TP6aq  SX1e  1 3.780000e-01    1.450000e+00
 TP5aq  SP4a  1 3.650000e-01    3.370000e+00
 TP5aq  SP3a  1 3.650000e-01    3.100000e+00
 TP5aq  SP2a  1 3.650000e-01    3.100000e+00
 TP5aq  SP1a  1 3.650000e-01    2.830000e+00
 TP5aq  SN6a  1 3.650000e-01    2.570000e+00
 TP5aq  SN5a  1 3.650000e-01    2.340000e+00
 TP5aq  SN4a  1 3.650000e-01    2.340000e+00
 TP5aq  SN3a  1 3.650000e-01    2.110000e+00
 TP5aq  SN2a  1 3.650000e-01    1.910000e+00
 TP5aq  SN1a  1 3.650000e-01    1.750000e+00
 TP5aq  SC6v  1 3.650000e-01    1.910000e+00
 TP5aq  SC5v  1 3.650000e-01    1.910000e+00
 TP5aq  SC4v  1 3.650000e-01    1.750000e+00
 TP5aq  SC3v  1 3.660000e-01    1.600000e+00
 TP5aq  SC2v  1 3.660000e-01    1.600000e+00
 TP5aq  SC1v  1 3.780000e-01    1.450000e+00
 TP5aq  SX4v  1 3.650000e-01    2.340000e+00
 TP5aq  SX3v  1 3.650000e-01    2.110000e+00
 TP5aq  SX2v  1 3.650000e-01    2.110000e+00
 TP5aq  SX1v  1 3.650000e-01    1.750000e+00
 TP5aq  SC6e  1 3.660000e-01    1.600000e+00
 TP5aq  SC5e  1 3.660000e-01    1.600000e+00
 TP5aq  SC4e  1 3.780000e-01    1.450000e+00
 TP5aq  SC3e  1 3.940000e-01    1.290000e+00
 TP5aq  SC2e  1 3.940000e-01    1.290000e+00
 TP5aq  SC1e  1 4.040000e-01    1.130000e+00
 TP5aq  SX4e  1 3.650000e-01    1.910000e+00
 TP5aq  SX3e  1 3.650000e-01    1.750000e+00
 TP5aq  SX2e  1 3.650000e-01    1.750000e+00
 TP5aq  SX1e  1 3.780000e-01    1.450000e+00
 TP4aq  SP3a  1 3.650000e-01    3.100000e+00
 TP4aq  SP2a  1 3.650000e-01    3.100000e+00
 TP4aq  SP1a  1 3.650000e-01    2.830000e+00
 TP4aq  SN6a  1 3.650000e-01    2.570000e+00
 TP4aq  SN5a  1 3.650000e-01    2.340000e+00
 TP4aq  SN4a  1 3.650000e-01    2.340000e+00
 TP4aq  SN3a  1 3.650000e-01    2.110000e+00
 TP4aq  SN2a  1 3.650000e-01    2.110000e+00
 TP4aq  SN1a  1 3.650000e-01    1.910000e+00
 TP4aq  SC6v  1 3.650000e-01    2.110000e+00
 TP4aq  SC5v  1 3.650000e-01    1.910000e+00
 TP4aq  SC4v  1 3.650000e-01    1.750000e+00
 TP4aq  SC3v  1 3.660000e-01    1.600000e+00
 TP4aq  SC2v  1 3.660000e-01    1.600000e+00
 TP4aq  SC1v  1 3.780000e-01    1.450000e+00
 TP4aq  SX4v  1 3.650000e-01    2.340000e+00
 TP4aq  SX3v  1 3.650000e-01    2.110000e+00
 TP4aq  SX2v  1 3.650000e-01    2.110000e+00
 TP4aq  SX1v  1 3.650000e-01    1.910000e+00
 TP4aq  SC6e  1 3.650000e-01    1.750000e+00
 TP4aq  SC5e  1 3.660000e-01    1.600000e+00
 TP4aq  SC4e  1 3.780000e-01    1.450000e+00
 TP4aq  SC3e  1 3.940000e-01    1.290000e+00
 TP4aq  SC2e  1 3.940000e-01    1.290000e+00
 TP4aq  SC1e  1 4.040000e-01    1.130000e+00
 TP4aq  SX4e  1 3.650000e-01    1.910000e+00
 TP4aq  SX3e  1 3.650000e-01    1.750000e+00
 TP4aq  SX2e  1 3.650000e-01    1.750000e+00
 TP4aq  SX1e  1 3.660000e-01    1.600000e+00
 TP3aq  SP2a  1 3.650000e-01    3.100000e+00
 TP3aq  SP1a  1 3.650000e-01    2.830000e+00
 TP3aq  SN6a  1 3.650000e-01    2.570000e+00
 TP3aq  SN5a  1 3.650000e-01    2.340000e+00
 TP3aq  SN4a  1 3.650000e-01    2.340000e+00
 TP3aq  SN3a  1 3.650000e-01    2.110000e+00
 TP3aq  SN2a  1 3.650000e-01    2.110000e+00
 TP3aq  SN1a  1 3.650000e-01    2.110000e+00
 TP3aq  SC6v  1 3.650000e-01    2.340000e+00
 TP3aq  SC5v  1 3.650000e-01    2.110000e+00
 TP3aq  SC4v  1 3.650000e-01    1.910000e+00
 TP3aq  SC3v  1 3.660000e-01    1.600000e+00
 TP3aq  SC2v  1 3.660000e-01    1.600000e+00
 TP3aq  SC1v  1 3.780000e-01    1.450000e+00
 TP3aq  SX4v  1 3.650000e-01    2.340000e+00
 TP3aq  SX3v  1 3.650000e-01    2.340000e+00
 TP3aq  SX2v  1 3.650000e-01    2.110000e+00
 TP3aq  SX1v  1 3.650000e-01    1.910000e+00
 TP3aq  SC6e  1 3.650000e-01    1.910000e+00
 TP3aq  SC5e  1 3.650000e-01    1.750000e+00
 TP3aq  SC4e  1 3.660000e-01    1.600000e+00
 TP3aq  SC3e  1 3.940000e-01    1.290000e+00
 TP3aq  SC2e  1 3.940000e-01    1.290000e+00
 TP3aq  SC1e  1 4.040000e-01    1.130000e+00
 TP3aq  SX4e  1 3.650000e-01    1.910000e+00
 TP3aq  SX3e  1 3.650000e-01    1.910000e+00
 TP3aq  SX2e  1 3.650000e-01    1.750000e+00
 TP3aq  SX1e  1 3.660000e-01    1.600000e+00
 TP2aq  SP1a  1 3.650000e-01    2.830000e+00
 TP2aq  SN6a  1 3.650000e-01    2.830000e+00
 TP2aq  SN5a  1 3.650000e-01    2.570000e+00
 TP2aq  SN4a  1 3.650000e-01    2.340000e+00
 TP2aq  SN3a  1 3.650000e-01    2.110000e+00
 TP2aq  SN2a  1 3.650000e-01    2.110000e+00
 TP2aq  SN1a  1 3.650000e-01    2.110000e+00
 TP2aq  SC6v  1 3.650000e-01    2.340000e+00
 TP2aq  SC5v  1 3.650000e-01    2.110000e+00
 TP2aq  SC4v  1 3.650000e-01    1.910000e+00
 TP2aq  SC3v  1 3.650000e-01    1.750000e+00
 TP2aq  SC2v  1 3.650000e-01    1.750000e+00
 TP2aq  SC1v  1 3.660000e-01    1.600000e+00
 TP2aq  SX4v  1 3.650000e-01    2.340000e+00
 TP2aq  SX3v  1 3.650000e-01    2.340000e+00
 TP2aq  SX2v  1 3.650000e-01    2.110000e+00
 TP2aq  SX1v  1 3.650000e-01    1.910000e+00
 TP2aq  SC6e  1 3.650000e-01    1.910000e+00
 TP2aq  SC5e  1 3.650000e-01    1.750000e+00
 TP2aq  SC4e  1 3.660000e-01    1.600000e+00
 TP2aq  SC3e  1 3.780000e-01    1.450000e+00
 TP2aq  SC2e  1 3.780000e-01    1.450000e+00
 TP2aq  SC1e  1 3.940000e-01    1.290000e+00
 TP2aq  SX4e  1 3.650000e-01    1.910000e+00
 TP2aq  SX3e  1 3.650000e-01    1.910000e+00
 TP2aq  SX2e  1 3.650000e-01    1.750000e+00
 TP2aq  SX1e  1 3.660000e-01    1.600000e+00
 TP1aq  SN6a  1 3.650000e-01    2.830000e+00
 TP1aq  SN5a  1 3.650000e-01    2.570000e+00
 TP1aq  SN4a  1 3.650000e-01    2.570000e+00
 TP1aq  SN3a  1 3.650000e-01    2.110000e+00
 TP1aq  SN2a  1 3.650000e-01    2.110000e+00
 TP1aq  SN1a  1 3.650000e-01    2.110000e+00
 TP1aq  SC6v  1 3.650000e-01    2.340000e+00
 TP1aq  SC5v  1 3.650000e-01    2.110000e+00
 TP1aq  SC4v  1 3.650000e-01    1.910000e+00
 TP1aq  SC3v  1 3.650000e-01    1.750000e+00
 TP1aq  SC2v  1 3.650000e-01    1.750000e+00
 TP1aq  SC1v  1 3.660000e-01    1.600000e+00
 TP1aq  SX4v  1 3.650000e-01    2.340000e+00
 TP1aq  SX3v  1 3.650000e-01    2.340000e+00
 TP1aq  SX2v  1 3.650000e-01    2.110000e+00
 TP1aq  SX1v  1 3.650000e-01    1.910000e+00
 TP1aq  SC6e  1 3.650000e-01    1.910000e+00
 TP1aq  SC5e  1 3.650000e-01    1.750000e+00
 TP1aq  SC4e  1 3.660000e-01    1.600000e+00
 TP1aq  SC3e  1 3.780000e-01    1.450000e+00
 TP1aq  SC2e  1 3.780000e-01    1.450000e+00
 TP1aq  SC1e  1 3.940000e-01    1.290000e+00
 TP1aq  SX4e  1 3.650000e-01    1.910000e+00
 TP1aq  SX3e  1 3.650000e-01    1.910000e+00
 TP1aq  SX2e  1 3.650000e-01    1.750000e+00
 TP1aq  SX1e  1 3.660000e-01    1.600000e+00
 TN6aq  SN5a  1 3.650000e-01    2.830000e+00
 TN6aq  SN4a  1 3.650000e-01    2.830000e+00
 TN6aq  SN3a  1 3.650000e-01    2.340000e+00
 TN6aq  SN2a  1 3.650000e-01    2.110000e+00
 TN6aq  SN1a  1 3.650000e-01    2.110000e+00
 TN6aq  SC6v  1 3.650000e-01    2.570000e+00
 TN6aq  SC5v  1 3.650000e-01    2.340000e+00
 TN6aq  SC4v  1 3.650000e-01    2.110000e+00
 TN6aq  SC3v  1 3.650000e-01    1.910000e+00
 TN6aq  SC2v  1 3.650000e-01    1.910000e+00
 TN6aq  SC1v  1 3.650000e-01    1.750000e+00
 TN6aq  SX4v  1 3.650000e-01    2.570000e+00
 TN6aq  SX3v  1 3.650000e-01    2.340000e+00
 TN6aq  SX2v  1 3.650000e-01    2.110000e+00
 TN6aq  SX1v  1 3.650000e-01    1.910000e+00
 TN6aq  SC6e  1 3.650000e-01    2.110000e+00
 TN6aq  SC5e  1 3.650000e-01    1.910000e+00
 TN6aq  SC4e  1 3.650000e-01    1.750000e+00
 TN6aq  SC3e  1 3.660000e-01    1.600000e+00
 TN6aq  SC2e  1 3.660000e-01    1.600000e+00
 TN6aq  SC1e  1 3.780000e-01    1.450000e+00
 TN6aq  SX4e  1 3.650000e-01    2.110000e+00
 TN6aq  SX3e  1 3.650000e-01    1.910000e+00
 TN6aq  SX2e  1 3.650000e-01    1.750000e+00
 TN6aq  SX1e  1 3.660000e-01    1.600000e+00
 TN5aq  SN4a  1 3.650000e-01    2.570000e+00
 TN5aq  SN3a  1 3.650000e-01    2.340000e+00
 TN5aq  SN2a  1 3.650000e-01    2.340000e+00
 TN5aq  SN1a  1 3.650000e-01    2.110000e+00
 TN5aq  SC6v  1 3.650000e-01    2.570000e+00
 TN5aq  SC5v  1 3.650000e-01    2.340000e+00
 TN5aq  SC4v  1 3.650000e-01    2.110000e+00
 TN5aq  SC3v  1 3.650000e-01    2.110000e+00
 TN5aq  SC2v  1 3.650000e-01    1.910000e+00
 TN5aq  SC1v  1 3.650000e-01    1.750000e+00
 TN5aq  SX4v  1 3.650000e-01    2.830000e+00
 TN5aq  SX3v  1 3.650000e-01    2.570000e+00
 TN5aq  SX2v  1 3.650000e-01    2.340000e+00
 TN5aq  SX1v  1 3.650000e-01    2.110000e+00
 TN5aq  SC6e  1 3.650000e-01    2.110000e+00
 TN5aq  SC5e  1 3.650000e-01    1.910000e+00
 TN5aq  SC4e  1 3.650000e-01    1.750000e+00
 TN5aq  SC3e  1 3.650000e-01    1.750000e+00
 TN5aq  SC2e  1 3.660000e-01    1.600000e+00
 TN5aq  SC1e  1 3.780000e-01    1.450000e+00
 TN5aq  SX4e  1 3.650000e-01    2.340000e+00
 TN5aq  SX3e  1 3.650000e-01    2.110000e+00
 TN5aq  SX2e  1 3.650000e-01    1.910000e+00
 TN5aq  SX1e  1 3.650000e-01    1.750000e+00
 TN4aq  SN3a  1 3.650000e-01    2.340000e+00
 TN4aq  SN2a  1 3.650000e-01    2.340000e+00
 TN4aq  SN1a  1 3.650000e-01    2.110000e+00
 TN4aq  SC6v  1 3.650000e-01    2.570000e+00
 TN4aq  SC5v  1 3.650000e-01    2.340000e+00
 TN4aq  SC4v  1 3.650000e-01    2.340000e+00
 TN4aq  SC3v  1 3.650000e-01    2.110000e+00
 TN4aq  SC2v  1 3.650000e-01    1.910000e+00
 TN4aq  SC1v  1 3.650000e-01    1.750000e+00
 TN4aq  SX4v  1 3.650000e-01    3.100000e+00
 TN4aq  SX3v  1 3.650000e-01    2.830000e+00
 TN4aq  SX2v  1 3.650000e-01    2.340000e+00
 TN4aq  SX1v  1 3.650000e-01    2.110000e+00
 TN4aq  SC6e  1 3.650000e-01    2.110000e+00
 TN4aq  SC5e  1 3.650000e-01    1.910000e+00
 TN4aq  SC4e  1 3.650000e-01    1.910000e+00
 TN4aq  SC3e  1 3.650000e-01    1.750000e+00
 TN4aq  SC2e  1 3.660000e-01    1.600000e+00
 TN4aq  SC1e  1 3.780000e-01    1.450000e+00
 TN4aq  SX4e  1 3.650000e-01    2.570000e+00
 TN4aq  SX3e  1 3.650000e-01    2.340000e+00
 TN4aq  SX2e  1 3.650000e-01    1.910000e+00
 TN4aq  SX1e  1 3.650000e-01    1.750000e+00
 TN3aq  SN2a  1 3.650000e-01    2.340000e+00
 TN3aq  SN1a  1 3.650000e-01    2.110000e+00
 TN3aq  SC6v  1 3.650000e-01    2.570000e+00
 TN3aq  SC5v  1 3.650000e-01    2.340000e+00
 TN3aq  SC4v  1 3.650000e-01    2.340000e+00
 TN3aq  SC3v  1 3.650000e-01    2.110000e+00
 TN3aq  SC2v  1 3.650000e-01    2.110000e+00
 TN3aq  SC1v  1 3.650000e-01    1.910000e+00
 TN3aq  SX4v  1 3.650000e-01    2.830000e+00
 TN3aq  SX3v  1 3.650000e-01    2.570000e+00
 TN3aq  SX2v  1 3.650000e-01    2.340000e+00
 TN3aq  SX1v  1 3.650000e-01    2.340000e+00
 TN3aq  SC6e  1 3.650000e-01    2.110000e+00
 TN3aq  SC5e  1 3.650000e-01    1.910000e+00
 TN3aq  SC4e  1 3.650000e-01    1.910000e+00
 TN3aq  SC3e  1 3.650000e-01    1.750000e+00
 TN3aq  SC2e  1 3.650000e-01    1.750000e+00
 TN3aq  SC1e  1 3.660000e-01    1.600000e+00
 TN3aq  SX4e  1 3.650000e-01    2.340000e+00
 TN3aq  SX3e  1 3.650000e-01    2.110000e+00
 TN3aq  SX2e  1 3.650000e-01    1.910000e+00
 TN3aq  SX1e  1 3.650000e-01    1.910000e+00
 TN2aq  SN1a  1 3.650000e-01    2.110000e+00
 TN2aq  SC6v  1 3.650000e-01    2.570000e+00
 TN2aq  SC5v  1 3.650000e-01    2.340000e+00
 TN2aq  SC4v  1 3.650000e-01    2.340000e+00
 TN2aq  SC3v  1 3.650000e-01    2.340000e+00
 TN2aq  SC2v  1 3.650000e-01    2.110000e+00
 TN2aq  SC1v  1 3.650000e-01    1.910000e+00
 TN2aq  SX4v  1 3.650000e-01    2.830000e+00
 TN2aq  SX3v  1 3.650000e-01    2.570000e+00
 TN2aq  SX2v  1 3.650000e-01    2.340000e+00
 TN2aq  SX1v  1 3.650000e-01    2.340000e+00
 TN2aq  SC6e  1 3.650000e-01    2.110000e+00
 TN2aq  SC5e  1 3.650000e-01    1.910000e+00
 TN2aq  SC4e  1 3.650000e-01    1.910000e+00
 TN2aq  SC3e  1 3.650000e-01    1.910000e+00
 TN2aq  SC2e  1 3.650000e-01    1.750000e+00
 TN2aq  SC1e  1 3.660000e-01    1.600000e+00
 TN2aq  SX4e  1 3.650000e-01    2.340000e+00
 TN2aq  SX3e  1 3.650000e-01    2.110000e+00
 TN2aq  SX2e  1 3.650000e-01    1.910000e+00
 TN2aq  SX1e  1 3.650000e-01    1.910000e+00
 TN1aq  SC6v  1 3.650000e-01    2.830000e+00
 TN1aq  SC5v  1 3.650000e-01    2.570000e+00
 TN1aq  SC4v  1 3.650000e-01    2.570000e+00
 TN1aq  SC3v  1 3.650000e-01    2.340000e+00
 TN1aq  SC2v  1 3.650000e-01    2.110000e+00
 TN1aq  SC1v  1 3.650000e-01    1.910000e+00
 TN1aq  SX4v  1 3.650000e-01    2.570000e+00
 TN1aq  SX3v  1 3.650000e-01    2.570000e+00
 TN1aq  SX2v  1 3.650000e-01    2.340000e+00
 TN1aq  SX1v  1 3.650000e-01    2.340000e+00
 TN1aq  SC6e  1 3.650000e-01    2.340000e+00
 TN1aq  SC5e  1 3.650000e-01    2.110000e+00
 TN1aq  SC4e  1 3.650000e-01    2.110000e+00
 TN1aq  SC3e  1 3.650000e-01    1.910000e+00
 TN1aq  SC2e  1 3.650000e-01    1.750000e+00
 TN1aq  SC1e  1 3.660000e-01    1.600000e+00
 TN1aq  SX4e  1 3.650000e-01    2.110000e+00
 TN1aq  SX3e  1 3.650000e-01    2.110000e+00
 TN1aq  SX2e  1 3.650000e-01    1.910000e+00
 TN1aq  SX1e  1 3.650000e-01    1.910000e+00
 TC6vq  SC5v  1 3.650000e-01    2.110000e+00
 TC6vq  SC4v  1 3.650000e-01    2.110000e+00
 TC6vq  SC3v  1 3.650000e-01    1.910000e+00
 TC6vq  SC2v  1 3.650000e-01    1.750000e+00
 TC6vq  SC1v  1 3.660000e-01    1.600000e+00
 TC6vq  SX4v  1 3.650000e-01    2.110000e+00
 TC6vq  SX3v  1 3.650000e-01    2.110000e+00
 TC6vq  SX2v  1 3.650000e-01    2.110000e+00
 TC6vq  SX1v  1 3.650000e-01    2.110000e+00
 TC6vq  SC6e  1 3.650000e-01    3.100000e+00
 TC6vq  SC5e  1 3.650000e-01    2.830000e+00
 TC6vq  SC4e  1 3.650000e-01    2.830000e+00
 TC6vq  SC3e  1 3.650000e-01    2.570000e+00
 TC6vq  SC2e  1 3.650000e-01    2.340000e+00
 TC6vq  SC1e  1 3.650000e-01    2.110000e+00
 TC6vq  SX4e  1 3.650000e-01    2.830000e+00
 TC6vq  SX3e  1 3.650000e-01    2.830000e+00
 TC6vq  SX2e  1 3.650000e-01    2.830000e+00
 TC6vq  SX1e  1 3.650000e-01    2.830000e+00
 TC5vq  SC4v  1 3.650000e-01    2.110000e+00
 TC5vq  SC3v  1 3.650000e-01    1.910000e+00
 TC5vq  SC2v  1 3.650000e-01    1.750000e+00
 TC5vq  SC1v  1 3.650000e-01    1.750000e+00
 TC5vq  SX4v  1 3.650000e-01    1.910000e+00
 TC5vq  SX3v  1 3.650000e-01    1.910000e+00
 TC5vq  SX2v  1 3.650000e-01    1.910000e+00
 TC5vq  SX1v  1 3.650000e-01    2.110000e+00
 TC5vq  SC5e  1 3.650000e-01    2.830000e+00
 TC5vq  SC4e  1 3.650000e-01    2.830000e+00
 TC5vq  SC3e  1 3.650000e-01    2.570000e+00
 TC5vq  SC2e  1 3.650000e-01    2.340000e+00
 TC5vq  SC1e  1 3.650000e-01    2.340000e+00
 TC5vq  SX4e  1 3.650000e-01    2.570000e+00
 TC5vq  SX3e  1 3.650000e-01    2.570000e+00
 TC5vq  SX2e  1 3.650000e-01    2.570000e+00
 TC5vq  SX1e  1 3.650000e-01    2.830000e+00
 TC4vq  SC3v  1 3.650000e-01    2.110000e+00
 TC4vq  SC2v  1 3.650000e-01    1.910000e+00
 TC4vq  SC1v  1 3.650000e-01    1.750000e+00
 TC4vq  SX4v  1 3.650000e-01    1.910000e+00
 TC4vq  SX3v  1 3.650000e-01    1.910000e+00
 TC4vq  SX2v  1 3.650000e-01    1.910000e+00
 TC4vq  SX1v  1 3.650000e-01    2.110000e+00
 TC4vq  SC4e  1 3.650000e-01    2.830000e+00
 TC4vq  SC3e  1 3.650000e-01    2.830000e+00
 TC4vq  SC2e  1 3.650000e-01    2.570000e+00
 TC4vq  SC1e  1 3.650000e-01    2.340000e+00
 TC4vq  SX4e  1 3.650000e-01    2.570000e+00
 TC4vq  SX3e  1 3.650000e-01    2.570000e+00
 TC4vq  SX2e  1 3.650000e-01    2.570000e+00
 TC4vq  SX1e  1 3.650000e-01    2.830000e+00
 TC3vq  SC2v  1 3.650000e-01    2.110000e+00
 TC3vq  SC1v  1 3.650000e-01    2.110000e+00
 TC3vq  SX4v  1 3.650000e-01    1.910000e+00
 TC3vq  SX3v  1 3.650000e-01    1.910000e+00
 TC3vq  SX2v  1 3.650000e-01    1.910000e+00
 TC3vq  SX1v  1 3.650000e-01    2.110000e+00
 TC3vq  SC3e  1 3.650000e-01    2.830000e+00
 TC3vq  SC2e  1 3.650000e-01    2.830000e+00
 TC3vq  SC1e  1 3.650000e-01    2.830000e+00
 TC3vq  SX4e  1 3.650000e-01    2.570000e+00
 TC3vq  SX3e  1 3.650000e-01    2.570000e+00
 TC3vq  SX2e  1 3.650000e-01    2.570000e+00
 TC3vq  SX1e  1 3.650000e-01    2.830000e+00
 TC2vq  SC1v  1 3.650000e-01    2.340000e+00
 TC2vq  SX4v  1 3.660000e-01    1.600000e+00
 TC2vq  SX3v  1 3.650000e-01    1.910000e+00
 TC2vq  SX2v  1 3.650000e-01    1.910000e+00
 TC2vq  SX1v  1 3.650000e-01    1.910000e+00
 TC2vq  SC2e  1 3.650000e-01    2.830000e+00
 TC2vq  SC1e  1 3.650000e-01    3.100000e+00
 TC2vq  SX4e  1 3.650000e-01    2.110000e+00
 TC2vq  SX3e  1 3.650000e-01    2.570000e+00
 TC2vq  SX2e  1 3.650000e-01    2.570000e+00
 TC2vq  SX1e  1 3.650000e-01    2.570000e+00
 TC1vq  SX4v  1 3.660000e-01    1.600000e+00
 TC1vq  SX3v  1 3.650000e-01    1.910000e+00
 TC1vq  SX2v  1 3.650000e-01    1.910000e+00
 TC1vq  SX1v  1 3.650000e-01    1.910000e+00
 TC1vq  SC1e  1 3.650000e-01    2.830000e+00
 TC1vq  SX4e  1 3.650000e-01    2.110000e+00
 TC1vq  SX3e  1 3.650000e-01    2.570000e+00
 TC1vq  SX2e  1 3.650000e-01    2.570000e+00
 TC1vq  SX1e  1 3.650000e-01    2.570000e+00
 TX4vq  SX3v  1 3.650000e-01    2.110000e+00
 TX4vq  SX2v  1 3.650000e-01    2.110000e+00
 TX4vq  SX1v  1 3.650000e-01    2.110000e+00
 TX4vq  SX4e  1 3.650000e-01    2.830000e+00
 TX4vq  SX3e  1 3.650000e-01    2.830000e+00
 TX4vq  SX2e  1 3.650000e-01    2.830000e+00
 TX4vq  SX1e  1 3.650000e-01    2.830000e+00
 TX3vq  SX2v  1 3.650000e-01    2.340000e+00
 TX3vq  SX1v  1 3.650000e-01    2.340000e+00
 TX3vq  SX3e  1 3.650000e-01    2.830000e+00
 TX3vq  SX2e  1 3.650000e-01    3.100000e+00
 TX3vq  SX1e  1 3.650000e-01    3.100000e+00
 TX2vq  SX1v  1 3.650000e-01    2.340000e+00
 TX2vq  SX2e  1 3.650000e-01    3.100000e+00
 TX2vq  SX1e  1 3.650000e-01    3.100000e+00
 TX1vq  SX1e  1 3.650000e-01    3.370000e+00
 TC6eq  SC5e  1 3.650000e-01    2.110000e+00
 TC6eq  SC4e  1 3.650000e-01    2.110000e+00
 TC6eq  SC3e  1 3.650000e-01    1.910000e+00
 TC6eq  SC2e  1 3.650000e-01    1.750000e+00
 TC6eq  SC1e  1 3.660000e-01    1.600000e+00
 TC6eq  SX4e  1 3.650000e-01    2.110000e+00
 TC6eq  SX3e  1 3.650000e-01    2.110000e+00
 TC6eq  SX2e  1 3.650000e-01    2.110000e+00
 TC6eq  SX1e  1 3.650000e-01    2.110000e+00
 TC5eq  SC4e  1 3.650000e-01    2.110000e+00
 TC5eq  SC3e  1 3.650000e-01    1.910000e+00
 TC5eq  SC2e  1 3.650000e-01    1.750000e+00
 TC5eq  SC1e  1 3.650000e-01    1.750000e+00
 TC5eq  SX4e  1 3.650000e-01    1.910000e+00
 TC5eq  SX3e  1 3.650000e-01    1.910000e+00
 TC5eq  SX2e  1 3.650000e-01    1.910000e+00
 TC5eq  SX1e  1 3.650000e-01    2.110000e+00
 TC4eq  SC3e  1 3.650000e-01    2.110000e+00
 TC4eq  SC2e  1 3.650000e-01    1.910000e+00
 TC4eq  SC1e  1 3.650000e-01    1.750000e+00
 TC4eq  SX4e  1 3.650000e-01    1.910000e+00
 TC4eq  SX3e  1 3.650000e-01    1.910000e+00
 TC4eq  SX2e  1 3.650000e-01    1.910000e+00
 TC4eq  SX1e  1 3.650000e-01    2.110000e+00
 TC3eq  SC2e  1 3.650000e-01    2.110000e+00
 TC3eq  SC1e  1 3.650000e-01    2.110000e+00
 TC3eq  SX4e  1 3.650000e-01    1.910000e+00
 TC3eq  SX3e  1 3.650000e-01    1.910000e+00
 TC3eq  SX2e  1 3.650000e-01    1.910000e+00
 TC3eq  SX1e  1 3.650000e-01    2.110000e+00
 TC2eq  SC1e  1 3.650000e-01    2.340000e+00
 TC2eq  SX4e  1 3.660000e-01    1.600000e+00
 TC2eq  SX3e  1 3.650000e-01    1.910000e+00
 TC2eq  SX2e  1 3.650000e-01    1.910000e+00
 TC2eq  SX1e  1 3.650000e-01    1.910000e+00
 TC1eq  SX4e  1 3.660000e-01    1.600000e+00
 TC1eq  SX3e  1 3.650000e-01    1.910000e+00
 TC1eq  SX2e  1 3.650000e-01    1.910000e+00
 TC1eq  SX1e  1 3.650000e-01    1.910000e+00
 TX4eq  SX3e  1 3.650000e-01    2.110000e+00
 TX4eq  SX2e  1 3.650000e-01    2.110000e+00
 TX4eq  SX1e  1 3.650000e-01    2.110000e+00
 TX3eq  SX2e  1 3.650000e-01    2.340000e+00
 TX3eq  SX1e  1 3.650000e-01    2.340000e+00
 TX2eq  SX1e  1 3.650000e-01    2.340000e+00
 TX2eq  SX1v  1 3.650000e-01    3.100000e+00
 TX3eq  SX2v  1 3.650000e-01    3.100000e+00
 TX3eq  SX1v  1 3.650000e-01    3.100000e+00
 TX4eq  SX3v  1 3.650000e-01    2.830000e+00
 TX4eq  SX2v  1 3.650000e-01    2.830000e+00
 TX4eq  SX1v  1 3.650000e-01    2.830000e+00
 TC1eq  SX4v  1 3.650000e-01    2.110000e+00
 TC1eq  SX3v  1 3.650000e-01    2.570000e+00
 TC1eq  SX2v  1 3.650000e-01    2.570000e+00
 TC1eq  SX1v  1 3.650000e-01    2.570000e+00
 TC2eq  SC1v  1 3.650000e-01    3.100000e+00
 TC2eq  SX4v  1 3.650000e-01    2.110000e+00
 TC2eq  SX3v  1 3.650000e-01    2.570000e+00
 TC2eq  SX2v  1 3.650000e-01    2.570000e+00
 TC2eq  SX1v  1 3.650000e-01    2.570000e+00
 TC3eq  SC2v  1 3.650000e-01    2.830000e+00
 TC3eq  SC1v  1 3.650000e-01    2.830000e+00
 TC3eq  SX4v  1 3.650000e-01    2.570000e+00
 TC3eq  SX3v  1 3.650000e-01    2.570000e+00
 TC3eq  SX2v  1 3.650000e-01    2.570000e+00
 TC3eq  SX1v  1 3.650000e-01    2.830000e+00
 TC4eq  SC3v  1 3.650000e-01    2.830000e+00
 TC4eq  SC2v  1 3.650000e-01    2.570000e+00
 TC4eq  SC1v  1 3.650000e-01    2.340000e+00
 TC4eq  SX4v  1 3.650000e-01    2.570000e+00
 TC4eq  SX3v  1 3.650000e-01    2.570000e+00
 TC4eq  SX2v  1 3.650000e-01    2.570000e+00
 TC4eq  SX1v  1 3.650000e-01    2.830000e+00
 TC5eq  SC4v  1 3.650000e-01    2.830000e+00
 TC5eq  SC3v  1 3.650000e-01    2.570000e+00
 TC5eq  SC2v  1 3.650000e-01    2.340000e+00
 TC5eq  SC1v  1 3.650000e-01    2.340000e+00
 TC5eq  SX4v  1 3.650000e-01    2.570000e+00
 TC5eq  SX3v  1 3.650000e-01    2.570000e+00
 TC5eq  SX2v  1 3.650000e-01    2.570000e+00
 TC5eq  SX1v  1 3.650000e-01    2.830000e+00
 TC6eq  SC5v  1 3.650000e-01    2.830000e+00
 TC6eq  SC4v  1 3.650000e-01    2.830000e+00
 TC6eq  SC3v  1 3.650000e-01    2.570000e+00
 TC6eq  SC2v  1 3.650000e-01    2.340000e+00
 TC6eq  SC1v  1 3.650000e-01    2.110000e+00
 TC6eq  SX4v  1 3.650000e-01    2.830000e+00
 TC6eq  SX3v  1 3.650000e-01    2.830000e+00
 TC6eq  SX2v  1 3.650000e-01    2.830000e+00
 TC6eq  SX1v  1 3.650000e-01    2.830000e+00
 TN2aq  SN1d  1 3.650000e-01    2.570000e+00
 TN3aq  SN2d  1 3.650000e-01    2.830000e+00
 TN3aq  SN1d  1 3.650000e-01    2.570000e+00
 TN4aq  SN3d  1 3.650000e-01    2.830000e+00
 TN4aq  SN2d  1 3.650000e-01    2.830000e+00
 TN4aq  SN1d  1 3.650000e-01    2.570000e+00
 TN5aq  SN4d  1 3.650000e-01    3.100000e+00
 TN5aq  SN3d  1 3.650000e-01    2.830000e+00
 TN5aq  SN2d  1 3.650000e-01    2.830000e+00
 TN5aq  SN1d  1 3.650000e-01    2.570000e+00
 TN6aq  SN5d  1 3.650000e-01    3.370000e+00
 TN6aq  SN4d  1 3.650000e-01    3.370000e+00
 TN6aq  SN3d  1 3.650000e-01    2.830000e+00
 TN6aq  SN2d  1 3.650000e-01    2.570000e+00
 TN6aq  SN1d  1 3.650000e-01    2.570000e+00
 TP1aq  SN6d  1 3.650000e-01    3.370000e+00
 TP1aq  SN5d  1 3.650000e-01    3.100000e+00
 TP1aq  SN4d  1 3.650000e-01    3.100000e+00
 TP1aq  SN3d  1 3.650000e-01    2.570000e+00
 TP1aq  SN2d  1 3.650000e-01    2.570000e+00
 TP1aq  SN1d  1 3.650000e-01    2.570000e+00
 TP2aq  SP1d  1 3.650000e-01    3.370000e+00
 TP2aq  SN6d  1 3.650000e-01    3.370000e+00
 TP2aq  SN5d  1 3.650000e-01    3.100000e+00
 TP2aq  SN4d  1 3.650000e-01    2.830000e+00
 TP2aq  SN3d  1 3.650000e-01    2.570000e+00
 TP2aq  SN2d  1 3.650000e-01    2.570000e+00
 TP2aq  SN1d  1 3.650000e-01    2.570000e+00
 TP3aq  SP2d  1 3.650000e-01    3.640000e+00
 TP3aq  SP1d  1 3.650000e-01    3.370000e+00
 TP3aq  SN6d  1 3.650000e-01    3.100000e+00
 TP3aq  SN5d  1 3.650000e-01    2.830000e+00
 TP3aq  SN4d  1 3.650000e-01    2.830000e+00
 TP3aq  SN3d  1 3.650000e-01    2.570000e+00
 TP3aq  SN2d  1 3.650000e-01    2.570000e+00
 TP3aq  SN1d  1 3.650000e-01    2.110000e+00
 TP4aq  SP3d  1 3.650000e-01    3.640000e+00
 TP4aq  SP2d  1 3.650000e-01    3.640000e+00
 TP4aq  SP1d  1 3.650000e-01    3.370000e+00
 TP4aq  SN6d  1 3.650000e-01    3.100000e+00
 TP4aq  SN5d  1 3.650000e-01    2.830000e+00
 TP4aq  SN4d  1 3.650000e-01    2.830000e+00
 TP4aq  SN3d  1 3.650000e-01    2.570000e+00
 TP4aq  SN2d  1 3.650000e-01    2.110000e+00
 TP4aq  SN1d  1 3.650000e-01    1.910000e+00
 TP5aq  SP4d  1 3.650000e-01    3.930000e+00
 TP5aq  SP3d  1 3.650000e-01    3.640000e+00
 TP5aq  SP2d  1 3.650000e-01    3.640000e+00
 TP5aq  SP1d  1 3.650000e-01    3.370000e+00
 TP5aq  SN6d  1 3.650000e-01    3.100000e+00
 TP5aq  SN5d  1 3.650000e-01    2.830000e+00
 TP5aq  SN4d  1 3.650000e-01    2.830000e+00
 TP5aq  SN3d  1 3.650000e-01    2.110000e+00
 TP5aq  SN2d  1 3.650000e-01    1.910000e+00
 TP5aq  SN1d  1 3.650000e-01    1.750000e+00
 TP6aq  SP5d  1 3.650000e-01    4.510000e+00
 TP6aq  SP4d  1 3.650000e-01    4.220000e+00
 TP6aq  SP3d  1 3.650000e-01    3.930000e+00
 TP6aq  SP2d  1 3.650000e-01    3.930000e+00
 TP6aq  SP1d  1 3.650000e-01    3.640000e+00
 TP6aq  SN6d  1 3.650000e-01    3.370000e+00
 TP6aq  SN5d  1 3.650000e-01    2.830000e+00
 TP6aq  SN4d  1 3.650000e-01    2.570000e+00
 TP6aq  SN3d  1 3.650000e-01    2.110000e+00
 TP6aq  SN2d  1 3.650000e-01    1.910000e+00
 TP6aq  SN1d  1 3.650000e-01    1.750000e+00
 TP6dq  SP5q  1 3.650000e-01    4.220000e+00
 TP6dq  SP4q  1 3.650000e-01    3.930000e+00
 TP6dq  SP3q  1 3.650000e-01    3.640000e+00
 TP6dq  SP2q  1 3.650000e-01    3.640000e+00
 TP6dq  SP1q  1 3.650000e-01    3.370000e+00
 TP6dq  SN6q  1 3.650000e-01    3.100000e+00
 TP6dq  SN5q  1 3.650000e-01    2.570000e+00
 TP6dq  SN4q  1 3.650000e-01    2.340000e+00
 TP6dq  SN3q  1 3.650000e-01    2.110000e+00
 TP6dq  SN2q  1 3.650000e-01    1.910000e+00
 TP6dq  SN1q  1 3.650000e-01    1.750000e+00
 TP6dq  SC6q  1 3.650000e-01    1.750000e+00
 TP6dq  SC5q  1 3.660000e-01    1.600000e+00
 TP6dq  SC4q  1 3.780000e-01    1.450000e+00
 TP6dq  SC3q  1 3.940000e-01    1.290000e+00
 TP6dq  SC2q  1 3.940000e-01    1.290000e+00
 TP6dq  SC1q  1 4.090000e-01    1.080000e+00
 TP6dq  SX4q  1 3.650000e-01    1.910000e+00
 TP6dq  SX3q  1 3.650000e-01    1.910000e+00
 TP6dq  SX2q  1 3.650000e-01    1.750000e+00
 TP6dq  SX1q  1 3.660000e-01    1.600000e+00
 TP5dq  SP4q  1 3.650000e-01    3.640000e+00
 TP5dq  SP3q  1 3.650000e-01    3.370000e+00
 TP5dq  SP2q  1 3.650000e-01    3.370000e+00
 TP5dq  SP1q  1 3.650000e-01    3.100000e+00
 TP5dq  SN6q  1 3.650000e-01    2.830000e+00
 TP5dq  SN5q  1 3.650000e-01    2.570000e+00
 TP5dq  SN4q  1 3.650000e-01    2.570000e+00
 TP5dq  SN3q  1 3.650000e-01    2.110000e+00
 TP5dq  SN2q  1 3.650000e-01    1.910000e+00
 TP5dq  SN1q  1 3.650000e-01    1.750000e+00
 TP5dq  SC6q  1 3.650000e-01    1.750000e+00
 TP5dq  SC5q  1 3.650000e-01    1.750000e+00
 TP5dq  SC4q  1 3.660000e-01    1.600000e+00
 TP5dq  SC3q  1 3.780000e-01    1.450000e+00
 TP5dq  SC2q  1 3.780000e-01    1.450000e+00
 TP5dq  SC1q  1 3.940000e-01    1.290000e+00
 TP5dq  SX4q  1 3.650000e-01    2.110000e+00
 TP5dq  SX3q  1 3.650000e-01    1.910000e+00
 TP5dq  SX2q  1 3.650000e-01    1.910000e+00
 TP5dq  SX1q  1 3.660000e-01    1.600000e+00
 TP4dq  SP3q  1 3.650000e-01    3.370000e+00
 TP4dq  SP2q  1 3.650000e-01    3.370000e+00
 TP4dq  SP1q  1 3.650000e-01    3.100000e+00
 TP4dq  SN6q  1 3.650000e-01    2.830000e+00
 TP4dq  SN5q  1 3.650000e-01    2.570000e+00
 TP4dq  SN4q  1 3.650000e-01    2.570000e+00
 TP4dq  SN3q  1 3.650000e-01    2.340000e+00
 TP4dq  SN2q  1 3.650000e-01    2.110000e+00
 TP4dq  SN1q  1 3.650000e-01    1.910000e+00
 TP4dq  SC6q  1 3.650000e-01    1.910000e+00
 TP4dq  SC5q  1 3.650000e-01    1.750000e+00
 TP4dq  SC4q  1 3.660000e-01    1.600000e+00
 TP4dq  SC3q  1 3.780000e-01    1.450000e+00
 TP4dq  SC2q  1 3.780000e-01    1.450000e+00
 TP4dq  SC1q  1 3.940000e-01    1.290000e+00
 TP4dq  SX4q  1 3.650000e-01    2.110000e+00
 TP4dq  SX3q  1 3.650000e-01    1.910000e+00
 TP4dq  SX2q  1 3.650000e-01    1.910000e+00
 TP4dq  SX1q  1 3.650000e-01    1.750000e+00
 TP3dq  SP2q  1 3.650000e-01    3.370000e+00
 TP3dq  SP1q  1 3.650000e-01    3.100000e+00
 TP3dq  SN6q  1 3.650000e-01    2.830000e+00
 TP3dq  SN5q  1 3.650000e-01    2.570000e+00
 TP3dq  SN4q  1 3.650000e-01    2.570000e+00
 TP3dq  SN3q  1 3.650000e-01    2.340000e+00
 TP3dq  SN2q  1 3.650000e-01    2.340000e+00
 TP3dq  SN1q  1 3.650000e-01    2.110000e+00
 TP3dq  SC6q  1 3.650000e-01    2.110000e+00
 TP3dq  SC5q  1 3.650000e-01    1.910000e+00
 TP3dq  SC4q  1 3.650000e-01    1.750000e+00
 TP3dq  SC3q  1 3.780000e-01    1.450000e+00
 TP3dq  SC2q  1 3.780000e-01    1.450000e+00
 TP3dq  SC1q  1 3.940000e-01    1.290000e+00
 TP3dq  SX4q  1 3.650000e-01    2.110000e+00
 TP3dq  SX3q  1 3.650000e-01    2.110000e+00
 TP3dq  SX2q  1 3.650000e-01    1.910000e+00
 TP3dq  SX1q  1 3.650000e-01    1.750000e+00
 TP2dq  SP1q  1 3.650000e-01    3.100000e+00
 TP2dq  SN6q  1 3.650000e-01    3.100000e+00
 TP2dq  SN5q  1 3.650000e-01    2.830000e+00
 TP2dq  SN4q  1 3.650000e-01    2.570000e+00
 TP2dq  SN3q  1 3.650000e-01    2.340000e+00
 TP2dq  SN2q  1 3.650000e-01    2.340000e+00
 TP2dq  SN1q  1 3.650000e-01    2.340000e+00
 TP2dq  SC6q  1 3.650000e-01    2.110000e+00
 TP2dq  SC5q  1 3.650000e-01    1.910000e+00
 TP2dq  SC4q  1 3.650000e-01    1.750000e+00
 TP2dq  SC3q  1 3.660000e-01    1.600000e+00
 TP2dq  SC2q  1 3.660000e-01    1.600000e+00
 TP2dq  SC1q  1 3.780000e-01    1.450000e+00
 TP2dq  SX4q  1 3.650000e-01    2.110000e+00
 TP2dq  SX3q  1 3.650000e-01    2.110000e+00
 TP2dq  SX2q  1 3.650000e-01    1.910000e+00
 TP2dq  SX1q  1 3.650000e-01    1.750000e+00
 TP1dq  SN6q  1 3.650000e-01    3.100000e+00
 TP1dq  SN5q  1 3.650000e-01    2.830000e+00
 TP1dq  SN4q  1 3.650000e-01    2.830000e+00
 TP1dq  SN3q  1 3.650000e-01    2.340000e+00
 TP1dq  SN2q  1 3.650000e-01    2.340000e+00
 TP1dq  SN1q  1 3.650000e-01    2.340000e+00
 TP1dq  SC6q  1 3.650000e-01    2.110000e+00
 TP1dq  SC5q  1 3.650000e-01    1.910000e+00
 TP1dq  SC4q  1 3.650000e-01    1.750000e+00
 TP1dq  SC3q  1 3.660000e-01    1.600000e+00
 TP1dq  SC2q  1 3.660000e-01    1.600000e+00
 TP1dq  SC1q  1 3.780000e-01    1.450000e+00
 TP1dq  SX4q  1 3.650000e-01    2.110000e+00
 TP1dq  SX3q  1 3.650000e-01    2.110000e+00
 TP1dq  SX2q  1 3.650000e-01    1.910000e+00
 TP1dq  SX1q  1 3.650000e-01    1.750000e+00
 TN6dq  SN5q  1 3.650000e-01    3.100000e+00
 TN6dq  SN4q  1 3.650000e-01    3.100000e+00
 TN6dq  SN3q  1 3.650000e-01    2.570000e+00
 TN6dq  SN2q  1 3.650000e-01    2.340000e+00
 TN6dq  SN1q  1 3.650000e-01    2.340000e+00
 TN6dq  SC6q  1 3.650000e-01    2.340000e+00
 TN6dq  SC5q  1 3.650000e-01    2.110000e+00
 TN6dq  SC4q  1 3.650000e-01    1.910000e+00
 TN6dq  SC3q  1 3.650000e-01    1.750000e+00
 TN6dq  SC2q  1 3.650000e-01    1.750000e+00
 TN6dq  SC1q  1 3.660000e-01    1.600000e+00
 TN6dq  SX4q  1 3.650000e-01    2.340000e+00
 TN6dq  SX3q  1 3.650000e-01    2.110000e+00
 TN6dq  SX2q  1 3.650000e-01    1.910000e+00
 TN6dq  SX1q  1 3.650000e-01    1.750000e+00
 TN5dq  SN4q  1 3.650000e-01    2.830000e+00
 TN5dq  SN3q  1 3.650000e-01    2.570000e+00
 TN5dq  SN2q  1 3.650000e-01    2.570000e+00
 TN5dq  SN1q  1 3.650000e-01    2.340000e+00
 TN5dq  SC6q  1 3.650000e-01    2.340000e+00
 TN5dq  SC5q  1 3.650000e-01    2.110000e+00
 TN5dq  SC4q  1 3.650000e-01    1.910000e+00
 TN5dq  SC3q  1 3.650000e-01    1.910000e+00
 TN5dq  SC2q  1 3.650000e-01    1.750000e+00
 TN5dq  SC1q  1 3.660000e-01    1.600000e+00
 TN5dq  SX4q  1 3.650000e-01    2.570000e+00
 TN5dq  SX3q  1 3.650000e-01    2.340000e+00
 TN5dq  SX2q  1 3.650000e-01    2.110000e+00
 TN5dq  SX1q  1 3.650000e-01    1.910000e+00
 TN4dq  SN3q  1 3.650000e-01    2.570000e+00
 TN4dq  SN2q  1 3.650000e-01    2.570000e+00
 TN4dq  SN1q  1 3.650000e-01    2.340000e+00
 TN4dq  SC6q  1 3.650000e-01    2.340000e+00
 TN4dq  SC5q  1 3.650000e-01    2.110000e+00
 TN4dq  SC4q  1 3.650000e-01    2.110000e+00
 TN4dq  SC3q  1 3.650000e-01    1.910000e+00
 TN4dq  SC2q  1 3.650000e-01    1.750000e+00
 TN4dq  SC1q  1 3.660000e-01    1.600000e+00
 TN4dq  SX4q  1 3.650000e-01    2.830000e+00
 TN4dq  SX3q  1 3.650000e-01    2.570000e+00
 TN4dq  SX2q  1 3.650000e-01    2.110000e+00
 TN4dq  SX1q  1 3.650000e-01    1.910000e+00
 TN3dq  SN2q  1 3.650000e-01    2.570000e+00
 TN3dq  SN1q  1 3.650000e-01    2.340000e+00
 TN3dq  SC6q  1 3.650000e-01    2.340000e+00
 TN3dq  SC5q  1 3.650000e-01    2.110000e+00
 TN3dq  SC4q  1 3.650000e-01    2.110000e+00
 TN3dq  SC3q  1 3.650000e-01    1.910000e+00
 TN3dq  SC2q  1 3.650000e-01    1.910000e+00
 TN3dq  SC1q  1 3.650000e-01    1.750000e+00
 TN3dq  SX4q  1 3.650000e-01    2.570000e+00
 TN3dq  SX3q  1 3.650000e-01    2.340000e+00
 TN3dq  SX2q  1 3.650000e-01    2.110000e+00
 TN3dq  SX1q  1 3.650000e-01    2.110000e+00
 TN2dq  SN1q  1 3.650000e-01    2.340000e+00
 TN2dq  SC6q  1 3.650000e-01    2.340000e+00
 TN2dq  SC5q  1 3.650000e-01    2.110000e+00
 TN2dq  SC4q  1 3.650000e-01    2.110000e+00
 TN2dq  SC3q  1 3.650000e-01    2.110000e+00
 TN2dq  SC2q  1 3.650000e-01    1.910000e+00
 TN2dq  SC1q  1 3.650000e-01    1.750000e+00
 TN2dq  SX4q  1 3.650000e-01    2.570000e+00
 TN2dq  SX3q  1 3.650000e-01    2.340000e+00
 TN2dq  SX2q  1 3.650000e-01    2.110000e+00
 TN2dq  SX1q  1 3.650000e-01    2.110000e+00
 TN1dq  SC6q  1 3.650000e-01    2.570000e+00
 TN1dq  SC5q  1 3.650000e-01    2.340000e+00
 TN1dq  SC4q  1 3.650000e-01    2.340000e+00
 TN1dq  SC3q  1 3.650000e-01    2.110000e+00
 TN1dq  SC2q  1 3.650000e-01    1.910000e+00
 TN1dq  SC1q  1 3.650000e-01    1.750000e+00
 TN1dq  SX4q  1 3.650000e-01    2.340000e+00
 TN1dq  SX3q  1 3.650000e-01    2.340000e+00
 TN1dq  SX2q  1 3.650000e-01    2.110000e+00
 TN1dq  SX1q  1 3.650000e-01    2.110000e+00
 TP6aq  SP5q  1 3.650000e-01    4.220000e+00
 TP6aq  SP4q  1 3.650000e-01    3.930000e+00
 TP6aq  SP3q  1 3.650000e-01    3.640000e+00
 TP6aq  SP2q  1 3.650000e-01    3.640000e+00
 TP6aq  SP1q  1 3.650000e-01    3.370000e+00
 TP6aq  SN6q  1 3.650000e-01    3.100000e+00
 TP6aq  SN5q  1 3.650000e-01    2.570000e+00
 TP6aq  SN4q  1 3.650000e-01    2.340000e+00
 TP6aq  SN3q  1 3.650000e-01    2.110000e+00
 TP6aq  SN2q  1 3.650000e-01    1.910000e+00
 TP6aq  SN1q  1 3.650000e-01    1.750000e+00
 TP6aq  SC6q  1 3.650000e-01    1.750000e+00
 TP6aq  SC5q  1 3.660000e-01    1.600000e+00
 TP6aq  SC4q  1 3.780000e-01    1.450000e+00
 TP6aq  SC3q  1 3.940000e-01    1.290000e+00
 TP6aq  SC2q  1 3.940000e-01    1.290000e+00
 TP6aq  SC1q  1 4.090000e-01    1.080000e+00
 TP6aq  SX4q  1 3.650000e-01    1.910000e+00
 TP6aq  SX3q  1 3.650000e-01    1.910000e+00
 TP6aq  SX2q  1 3.650000e-01    1.750000e+00
 TP6aq  SX1q  1 3.660000e-01    1.600000e+00
 TP5aq  SP4q  1 3.650000e-01    3.640000e+00
 TP5aq  SP3q  1 3.650000e-01    3.370000e+00
 TP5aq  SP2q  1 3.650000e-01    3.370000e+00
 TP5aq  SP1q  1 3.650000e-01    3.100000e+00
 TP5aq  SN6q  1 3.650000e-01    2.830000e+00
 TP5aq  SN5q  1 3.650000e-01    2.570000e+00
 TP5aq  SN4q  1 3.650000e-01    2.570000e+00
 TP5aq  SN3q  1 3.650000e-01    2.110000e+00
 TP5aq  SN2q  1 3.650000e-01    1.910000e+00
 TP5aq  SN1q  1 3.650000e-01    1.750000e+00
 TP5aq  SC6q  1 3.650000e-01    1.750000e+00
 TP5aq  SC5q  1 3.650000e-01    1.750000e+00
 TP5aq  SC4q  1 3.660000e-01    1.600000e+00
 TP5aq  SC3q  1 3.780000e-01    1.450000e+00
 TP5aq  SC2q  1 3.780000e-01    1.450000e+00
 TP5aq  SC1q  1 3.940000e-01    1.290000e+00
 TP5aq  SX4q  1 3.650000e-01    2.110000e+00
 TP5aq  SX3q  1 3.650000e-01    1.910000e+00
 TP5aq  SX2q  1 3.650000e-01    1.910000e+00
 TP5aq  SX1q  1 3.660000e-01    1.600000e+00
 TP4aq  SP3q  1 3.650000e-01    3.370000e+00
 TP4aq  SP2q  1 3.650000e-01    3.370000e+00
 TP4aq  SP1q  1 3.650000e-01    3.100000e+00
 TP4aq  SN6q  1 3.650000e-01    2.830000e+00
 TP4aq  SN5q  1 3.650000e-01    2.570000e+00
 TP4aq  SN4q  1 3.650000e-01    2.570000e+00
 TP4aq  SN3q  1 3.650000e-01    2.340000e+00
 TP4aq  SN2q  1 3.650000e-01    2.110000e+00
 TP4aq  SN1q  1 3.650000e-01    1.910000e+00
 TP4aq  SC6q  1 3.650000e-01    1.910000e+00
 TP4aq  SC5q  1 3.650000e-01    1.750000e+00
 TP4aq  SC4q  1 3.660000e-01    1.600000e+00
 TP4aq  SC3q  1 3.780000e-01    1.450000e+00
 TP4aq  SC2q  1 3.780000e-01    1.450000e+00
 TP4aq  SC1q  1 3.940000e-01    1.290000e+00
 TP4aq  SX4q  1 3.650000e-01    2.110000e+00
 TP4aq  SX3q  1 3.650000e-01    1.910000e+00
 TP4aq  SX2q  1 3.650000e-01    1.910000e+00
 TP4aq  SX1q  1 3.650000e-01    1.750000e+00
 TP3aq  SP2q  1 3.650000e-01    3.370000e+00
 TP3aq  SP1q  1 3.650000e-01    3.100000e+00
 TP3aq  SN6q  1 3.650000e-01    2.830000e+00
 TP3aq  SN5q  1 3.650000e-01    2.570000e+00
 TP3aq  SN4q  1 3.650000e-01    2.570000e+00
 TP3aq  SN3q  1 3.650000e-01    2.340000e+00
 TP3aq  SN2q  1 3.650000e-01    2.340000e+00
 TP3aq  SN1q  1 3.650000e-01    2.110000e+00
 TP3aq  SC6q  1 3.650000e-01    2.110000e+00
 TP3aq  SC5q  1 3.650000e-01    1.910000e+00
 TP3aq  SC4q  1 3.650000e-01    1.750000e+00
 TP3aq  SC3q  1 3.780000e-01    1.450000e+00
 TP3aq  SC2q  1 3.780000e-01    1.450000e+00
 TP3aq  SC1q  1 3.940000e-01    1.290000e+00
 TP3aq  SX4q  1 3.650000e-01    2.110000e+00
 TP3aq  SX3q  1 3.650000e-01    2.110000e+00
 TP3aq  SX2q  1 3.650000e-01    1.910000e+00
 TP3aq  SX1q  1 3.650000e-01    1.750000e+00
 TP2aq  SP1q  1 3.650000e-01    3.100000e+00
 TP2aq  SN6q  1 3.650000e-01    3.100000e+00
 TP2aq  SN5q  1 3.650000e-01    2.830000e+00
 TP2aq  SN4q  1 3.650000e-01    2.570000e+00
 TP2aq  SN3q  1 3.650000e-01    2.340000e+00
 TP2aq  SN2q  1 3.650000e-01    2.340000e+00
 TP2aq  SN1q  1 3.650000e-01    2.340000e+00
 TP2aq  SC6q  1 3.650000e-01    2.110000e+00
 TP2aq  SC5q  1 3.650000e-01    1.910000e+00
 TP2aq  SC4q  1 3.650000e-01    1.750000e+00
 TP2aq  SC3q  1 3.660000e-01    1.600000e+00
 TP2aq  SC2q  1 3.660000e-01    1.600000e+00
 TP2aq  SC1q  1 3.780000e-01    1.450000e+00
 TP2aq  SX4q  1 3.650000e-01    2.110000e+00
 TP2aq  SX3q  1 3.650000e-01    2.110000e+00
 TP2aq  SX2q  1 3.650000e-01    1.910000e+00
 TP2aq  SX1q  1 3.650000e-01    1.750000e+00
 TP1aq  SN6q  1 3.650000e-01    3.100000e+00
 TP1aq  SN5q  1 3.650000e-01    2.830000e+00
 TP1aq  SN4q  1 3.650000e-01    2.830000e+00
 TP1aq  SN3q  1 3.650000e-01    2.340000e+00
 TP1aq  SN2q  1 3.650000e-01    2.340000e+00
 TP1aq  SN1q  1 3.650000e-01    2.340000e+00
 TP1aq  SC6q  1 3.650000e-01    2.110000e+00
 TP1aq  SC5q  1 3.650000e-01    1.910000e+00
 TP1aq  SC4q  1 3.650000e-01    1.750000e+00
 TP1aq  SC3q  1 3.660000e-01    1.600000e+00
 TP1aq  SC2q  1 3.660000e-01    1.600000e+00
 TP1aq  SC1q  1 3.780000e-01    1.450000e+00
 TP1aq  SX4q  1 3.650000e-01    2.110000e+00
 TP1aq  SX3q  1 3.650000e-01    2.110000e+00
 TP1aq  SX2q  1 3.650000e-01    1.910000e+00
 TP1aq  SX1q  1 3.650000e-01    1.750000e+00
 TN6aq  SN5q  1 3.650000e-01    3.100000e+00
 TN6aq  SN4q  1 3.650000e-01    3.100000e+00
 TN6aq  SN3q  1 3.650000e-01    2.570000e+00
 TN6aq  SN2q  1 3.650000e-01    2.340000e+00
 TN6aq  SN1q  1 3.650000e-01    2.340000e+00
 TN6aq  SC6q  1 3.650000e-01    2.340000e+00
 TN6aq  SC5q  1 3.650000e-01    2.110000e+00
 TN6aq  SC4q  1 3.650000e-01    1.910000e+00
 TN6aq  SC3q  1 3.650000e-01    1.750000e+00
 TN6aq  SC2q  1 3.650000e-01    1.750000e+00
 TN6aq  SC1q  1 3.660000e-01    1.600000e+00
 TN6aq  SX4q  1 3.650000e-01    2.340000e+00
 TN6aq  SX3q  1 3.650000e-01    2.110000e+00
 TN6aq  SX2q  1 3.650000e-01    1.910000e+00
 TN6aq  SX1q  1 3.650000e-01    1.750000e+00
 TN5aq  SN4q  1 3.650000e-01    2.830000e+00
 TN5aq  SN3q  1 3.650000e-01    2.570000e+00
 TN5aq  SN2q  1 3.650000e-01    2.570000e+00
 TN5aq  SN1q  1 3.650000e-01    2.340000e+00
 TN5aq  SC6q  1 3.650000e-01    2.340000e+00
 TN5aq  SC5q  1 3.650000e-01    2.110000e+00
 TN5aq  SC4q  1 3.650000e-01    1.910000e+00
 TN5aq  SC3q  1 3.650000e-01    1.910000e+00
 TN5aq  SC2q  1 3.650000e-01    1.750000e+00
 TN5aq  SC1q  1 3.660000e-01    1.600000e+00
 TN5aq  SX4q  1 3.650000e-01    2.570000e+00
 TN5aq  SX3q  1 3.650000e-01    2.340000e+00
 TN5aq  SX2q  1 3.650000e-01    2.110000e+00
 TN5aq  SX1q  1 3.650000e-01    1.910000e+00
 TN4aq  SN3q  1 3.650000e-01    2.570000e+00
 TN4aq  SN2q  1 3.650000e-01    2.570000e+00
 TN4aq  SN1q  1 3.650000e-01    2.340000e+00
 TN4aq  SC6q  1 3.650000e-01    2.340000e+00
 TN4aq  SC5q  1 3.650000e-01    2.110000e+00
 TN4aq  SC4q  1 3.650000e-01    2.110000e+00
 TN4aq  SC3q  1 3.650000e-01    1.910000e+00
 TN4aq  SC2q  1 3.650000e-01    1.750000e+00
 TN4aq  SC1q  1 3.660000e-01    1.600000e+00
 TN4aq  SX4q  1 3.650000e-01    2.830000e+00
 TN4aq  SX3q  1 3.650000e-01    2.570000e+00
 TN4aq  SX2q  1 3.650000e-01    2.110000e+00
 TN4aq  SX1q  1 3.650000e-01    1.910000e+00
 TN3aq  SN2q  1 3.650000e-01    2.570000e+00
 TN3aq  SN1q  1 3.650000e-01    2.340000e+00
 TN3aq  SC6q  1 3.650000e-01    2.340000e+00
 TN3aq  SC5q  1 3.650000e-01    2.110000e+00
 TN3aq  SC4q  1 3.650000e-01    2.110000e+00
 TN3aq  SC3q  1 3.650000e-01    1.910000e+00
 TN3aq  SC2q  1 3.650000e-01    1.910000e+00
 TN3aq  SC1q  1 3.650000e-01    1.750000e+00
 TN3aq  SX4q  1 3.650000e-01    2.570000e+00
 TN3aq  SX3q  1 3.650000e-01    2.340000e+00
 TN3aq  SX2q  1 3.650000e-01    2.110000e+00
 TN3aq  SX1q  1 3.650000e-01    2.110000e+00
 TN2aq  SN1q  1 3.650000e-01    2.340000e+00
 TN2aq  SC6q  1 3.650000e-01    2.340000e+00
 TN2aq  SC5q  1 3.650000e-01    2.110000e+00
 TN2aq  SC4q  1 3.650000e-01    2.110000e+00
 TN2aq  SC3q  1 3.650000e-01    2.110000e+00
 TN2aq  SC2q  1 3.650000e-01    1.910000e+00
 TN2aq  SC1q  1 3.650000e-01    1.750000e+00
 TN2aq  SX4q  1 3.650000e-01    2.570000e+00
 TN2aq  SX3q  1 3.650000e-01    2.340000e+00
 TN2aq  SX2q  1 3.650000e-01    2.110000e+00
 TN2aq  SX1q  1 3.650000e-01    2.110000e+00
 TN1aq  SC6q  1 3.650000e-01    2.570000e+00
 TN1aq  SC5q  1 3.650000e-01    2.340000e+00
 TN1aq  SC4q  1 3.650000e-01    2.340000e+00
 TN1aq  SC3q  1 3.650000e-01    2.110000e+00
 TN1aq  SC2q  1 3.650000e-01    1.910000e+00
 TN1aq  SC1q  1 3.650000e-01    1.750000e+00
 TN1aq  SX4q  1 3.650000e-01    2.340000e+00
 TN1aq  SX3q  1 3.650000e-01    2.340000e+00
 TN1aq  SX2q  1 3.650000e-01    2.110000e+00
 TN1aq  SX1q  1 3.650000e-01    2.110000e+00
 TC6vq  SC5q  1 3.650000e-01    2.570000e+00
 TC6vq  SC4q  1 3.650000e-01    2.570000e+00
 TC6vq  SC3q  1 3.650000e-01    2.340000e+00
 TC6vq  SC2q  1 3.650000e-01    2.110000e+00
 TC6vq  SC1q  1 3.650000e-01    1.910000e+00
 TC6vq  SX4q  1 3.650000e-01    2.570000e+00
 TC6vq  SX3q  1 3.650000e-01    2.570000e+00
 TC6vq  SX2q  1 3.650000e-01    2.570000e+00
 TC6vq  SX1q  1 3.650000e-01    2.570000e+00
 TC5vq  SC4q  1 3.650000e-01    2.570000e+00
 TC5vq  SC3q  1 3.650000e-01    2.340000e+00
 TC5vq  SC2q  1 3.650000e-01    2.110000e+00
 TC5vq  SC1q  1 3.650000e-01    2.110000e+00
 TC5vq  SX4q  1 3.650000e-01    2.340000e+00
 TC5vq  SX3q  1 3.650000e-01    2.340000e+00
 TC5vq  SX2q  1 3.650000e-01    2.340000e+00
 TC5vq  SX1q  1 3.650000e-01    2.570000e+00
 TC4vq  SC3q  1 3.650000e-01    2.570000e+00
 TC4vq  SC2q  1 3.650000e-01    2.340000e+00
 TC4vq  SC1q  1 3.650000e-01    2.110000e+00
 TC4vq  SX4q  1 3.650000e-01    2.340000e+00
 TC4vq  SX3q  1 3.650000e-01    2.340000e+00
 TC4vq  SX2q  1 3.650000e-01    2.340000e+00
 TC4vq  SX1q  1 3.650000e-01    2.570000e+00
 TC3vq  SC2q  1 3.650000e-01    2.570000e+00
 TC3vq  SC1q  1 3.650000e-01    2.570000e+00
 TC3vq  SX4q  1 3.650000e-01    2.340000e+00
 TC3vq  SX3q  1 3.650000e-01    2.340000e+00
 TC3vq  SX2q  1 3.650000e-01    2.340000e+00
 TC3vq  SX1q  1 3.650000e-01    2.570000e+00
 TC2vq  SC1q  1 3.650000e-01    2.830000e+00
 TC2vq  SX4q  1 3.650000e-01    1.910000e+00
 TC2vq  SX3q  1 3.650000e-01    2.340000e+00
 TC2vq  SX2q  1 3.650000e-01    2.340000e+00
 TC2vq  SX1q  1 3.650000e-01    2.340000e+00
 TC1vq  SX4q  1 3.650000e-01    1.910000e+00
 TC1vq  SX3q  1 3.650000e-01    2.340000e+00
 TC1vq  SX2q  1 3.650000e-01    2.340000e+00
 TC1vq  SX1q  1 3.650000e-01    2.340000e+00
 TX4vq  SX3q  1 3.650000e-01    2.570000e+00
 TX4vq  SX2q  1 3.650000e-01    2.570000e+00
 TX4vq  SX1q  1 3.650000e-01    2.570000e+00
 TX3vq  SX2q  1 3.650000e-01    2.830000e+00
 TX3vq  SX1q  1 3.650000e-01    2.830000e+00
 TX2vq  SX1q  1 3.650000e-01    2.830000e+00
 TC6eq  SC5q  1 3.650000e-01    2.570000e+00
 TC6eq  SC4q  1 3.650000e-01    2.570000e+00
 TC6eq  SC3q  1 3.650000e-01    2.340000e+00
 TC6eq  SC2q  1 3.650000e-01    2.110000e+00
 TC6eq  SC1q  1 3.650000e-01    1.910000e+00
 TC6eq  SX4q  1 3.650000e-01    2.570000e+00
 TC6eq  SX3q  1 3.650000e-01    2.570000e+00
 TC6eq  SX2q  1 3.650000e-01    2.570000e+00
 TC6eq  SX1q  1 3.650000e-01    2.570000e+00
 TC5eq  SC4q  1 3.650000e-01    2.570000e+00
 TC5eq  SC3q  1 3.650000e-01    2.340000e+00
 TC5eq  SC2q  1 3.650000e-01    2.110000e+00
 TC5eq  SC1q  1 3.650000e-01    2.110000e+00
 TC5eq  SX4q  1 3.650000e-01    2.340000e+00
 TC5eq  SX3q  1 3.650000e-01    2.340000e+00
 TC5eq  SX2q  1 3.650000e-01    2.340000e+00
 TC5eq  SX1q  1 3.650000e-01    2.570000e+00
 TC4eq  SC3q  1 3.650000e-01    2.570000e+00
 TC4eq  SC2q  1 3.650000e-01    2.340000e+00
 TC4eq  SC1q  1 3.650000e-01    2.110000e+00
 TC4eq  SX4q  1 3.650000e-01    2.340000e+00
 TC4eq  SX3q  1 3.650000e-01    2.340000e+00
 TC4eq  SX2q  1 3.650000e-01    2.340000e+00
 TC4eq  SX1q  1 3.650000e-01    2.570000e+00
 TC3eq  SC2q  1 3.650000e-01    2.570000e+00
 TC3eq  SC1q  1 3.650000e-01    2.570000e+00
 TC3eq  SX4q  1 3.650000e-01    2.340000e+00
 TC3eq  SX3q  1 3.650000e-01    2.340000e+00
 TC3eq  SX2q  1 3.650000e-01    2.340000e+00
 TC3eq  SX1q  1 3.650000e-01    2.570000e+00
 TC2eq  SC1q  1 3.650000e-01    2.830000e+00
 TC2eq  SX4q  1 3.650000e-01    1.910000e+00
 TC2eq  SX3q  1 3.650000e-01    2.340000e+00
 TC2eq  SX2q  1 3.650000e-01    2.340000e+00
 TC2eq  SX1q  1 3.650000e-01    2.340000e+00
 TC1eq  SX4q  1 3.650000e-01    1.910000e+00
 TC1eq  SX3q  1 3.650000e-01    2.340000e+00
 TC1eq  SX2q  1 3.650000e-01    2.340000e+00
 TC1eq  SX1q  1 3.650000e-01    2.340000e+00
 TX4eq  SX3q  1 3.650000e-01    2.570000e+00
 TX4eq  SX2q  1 3.650000e-01    2.570000e+00
 TX4eq  SX1q  1 3.650000e-01    2.570000e+00
 TX3eq  SX2q  1 3.650000e-01    2.830000e+00
 TX3eq  SX1q  1 3.650000e-01    2.830000e+00
 TX2eq  SX1q  1 3.650000e-01    2.830000e+00
 TP6aq  SP5h  1 3.650000e-01    4.220000e+00
 TP6dq  SP5h  1 3.650000e-01    4.220000e+00
 TP5aq  SP4h  1 3.650000e-01    3.640000e+00
 TP6aq  SP4h  1 3.650000e-01    3.930000e+00
 TP5dq  SP4h  1 3.650000e-01    3.640000e+00
 TP6dq  SP4h  1 3.650000e-01    3.930000e+00
 TP4aq  SP3h  1 3.650000e-01    3.370000e+00
 TP5aq  SP3h  1 3.650000e-01    3.370000e+00
 TP6aq  SP3h  1 3.650000e-01    3.640000e+00
 TP4dq  SP3h  1 3.650000e-01    3.370000e+00
 TP5dq  SP3h  1 3.650000e-01    3.370000e+00
 TP6dq  SP3h  1 3.650000e-01    3.640000e+00
 TP3aq  SP2h  1 3.650000e-01    3.370000e+00
 TP4aq  SP2h  1 3.650000e-01    3.370000e+00
 TP5aq  SP2h  1 3.650000e-01    3.370000e+00
 TP6aq  SP2h  1 3.650000e-01    3.640000e+00
 TP3dq  SP2h  1 3.650000e-01    3.370000e+00
 TP4dq  SP2h  1 3.650000e-01    3.370000e+00
 TP5dq  SP2h  1 3.650000e-01    3.370000e+00
 TP6dq  SP2h  1 3.650000e-01    3.640000e+00
 TP2aq  SP1h  1 3.650000e-01    3.100000e+00
 TP3aq  SP1h  1 3.650000e-01    3.100000e+00
 TP4aq  SP1h  1 3.650000e-01    3.100000e+00
 TP5aq  SP1h  1 3.650000e-01    3.100000e+00
 TP6aq  SP1h  1 3.650000e-01    3.370000e+00
 TP2dq  SP1h  1 3.650000e-01    3.100000e+00
 TP3dq  SP1h  1 3.650000e-01    3.100000e+00
 TP4dq  SP1h  1 3.650000e-01    3.100000e+00
 TP5dq  SP1h  1 3.650000e-01    3.100000e+00
 TP6dq  SP1h  1 3.650000e-01    3.370000e+00
 TP1aq  SN6h  1 3.650000e-01    3.100000e+00
 TP2aq  SN6h  1 3.650000e-01    3.100000e+00
 TP3aq  SN6h  1 3.650000e-01    2.830000e+00
 TP4aq  SN6h  1 3.650000e-01    2.830000e+00
 TP5aq  SN6h  1 3.650000e-01    2.830000e+00
 TP6aq  SN6h  1 3.650000e-01    3.100000e+00
 TP1dq  SN6h  1 3.650000e-01    3.100000e+00
 TP2dq  SN6h  1 3.650000e-01    3.100000e+00
 TP3dq  SN6h  1 3.650000e-01    2.830000e+00
 TP4dq  SN6h  1 3.650000e-01    2.830000e+00
 TP5dq  SN6h  1 3.650000e-01    2.830000e+00
 TP6dq  SN6h  1 3.650000e-01    3.100000e+00
 TN6aq  SN5h  1 3.650000e-01    3.100000e+00
 TP1aq  SN5h  1 3.650000e-01    2.830000e+00
 TP2aq  SN5h  1 3.650000e-01    2.830000e+00
 TP3aq  SN5h  1 3.650000e-01    2.570000e+00
 TP4aq  SN5h  1 3.650000e-01    2.570000e+00
 TP5aq  SN5h  1 3.650000e-01    2.570000e+00
 TP6aq  SN5h  1 3.650000e-01    2.570000e+00
 TN6dq  SN5h  1 3.650000e-01    3.100000e+00
 TP1dq  SN5h  1 3.650000e-01    2.830000e+00
 TP2dq  SN5h  1 3.650000e-01    2.830000e+00
 TP3dq  SN5h  1 3.650000e-01    2.570000e+00
 TP4dq  SN5h  1 3.650000e-01    2.570000e+00
 TP5dq  SN5h  1 3.650000e-01    2.570000e+00
 TP6dq  SN5h  1 3.650000e-01    2.570000e+00
 TN5aq  SN4h  1 3.650000e-01    2.830000e+00
 TN6aq  SN4h  1 3.650000e-01    3.100000e+00
 TP1aq  SN4h  1 3.650000e-01    2.830000e+00
 TP2aq  SN4h  1 3.650000e-01    2.570000e+00
 TP3aq  SN4h  1 3.650000e-01    2.570000e+00
 TP4aq  SN4h  1 3.650000e-01    2.570000e+00
 TP5aq  SN4h  1 3.650000e-01    2.570000e+00
 TP6aq  SN4h  1 3.650000e-01    2.340000e+00
 TN5dq  SN4h  1 3.650000e-01    2.830000e+00
 TN6dq  SN4h  1 3.650000e-01    3.100000e+00
 TP1dq  SN4h  1 3.650000e-01    2.830000e+00
 TP2dq  SN4h  1 3.650000e-01    2.570000e+00
 TP3dq  SN4h  1 3.650000e-01    2.570000e+00
 TP4dq  SN4h  1 3.650000e-01    2.570000e+00
 TP5dq  SN4h  1 3.650000e-01    2.570000e+00
 TP6dq  SN4h  1 3.650000e-01    2.340000e+00
 TN4aq  SN3h  1 3.650000e-01    2.570000e+00
 TN5aq  SN3h  1 3.650000e-01    2.570000e+00
 TN6aq  SN3h  1 3.650000e-01    2.570000e+00
 TP1aq  SN3h  1 3.650000e-01    2.340000e+00
 TP2aq  SN3h  1 3.650000e-01    2.340000e+00
 TP3aq  SN3h  1 3.650000e-01    2.340000e+00
 TP4aq  SN3h  1 3.650000e-01    2.340000e+00
 TP5aq  SN3h  1 3.650000e-01    2.110000e+00
 TP6aq  SN3h  1 3.650000e-01    2.110000e+00
 TN4dq  SN3h  1 3.650000e-01    2.570000e+00
 TN5dq  SN3h  1 3.650000e-01    2.570000e+00
 TN6dq  SN3h  1 3.650000e-01    2.570000e+00
 TP1dq  SN3h  1 3.650000e-01    2.340000e+00
 TP2dq  SN3h  1 3.650000e-01    2.340000e+00
 TP3dq  SN3h  1 3.650000e-01    2.340000e+00
 TP4dq  SN3h  1 3.650000e-01    2.340000e+00
 TP5dq  SN3h  1 3.650000e-01    2.110000e+00
 TP6dq  SN3h  1 3.650000e-01    2.110000e+00
 TN3aq  SN2h  1 3.650000e-01    2.570000e+00
 TN4aq  SN2h  1 3.650000e-01    2.570000e+00
 TN5aq  SN2h  1 3.650000e-01    2.570000e+00
 TN6aq  SN2h  1 3.650000e-01    2.340000e+00
 TP1aq  SN2h  1 3.650000e-01    2.340000e+00
 TP2aq  SN2h  1 3.650000e-01    2.340000e+00
 TP3aq  SN2h  1 3.650000e-01    2.340000e+00
 TP4aq  SN2h  1 3.650000e-01    2.110000e+00
 TP5aq  SN2h  1 3.650000e-01    1.910000e+00
 TP6aq  SN2h  1 3.650000e-01    1.910000e+00
 TN3dq  SN2h  1 3.650000e-01    2.570000e+00
 TN4dq  SN2h  1 3.650000e-01    2.570000e+00
 TN5dq  SN2h  1 3.650000e-01    2.570000e+00
 TN6dq  SN2h  1 3.650000e-01    2.340000e+00
 TP1dq  SN2h  1 3.650000e-01    2.340000e+00
 TP2dq  SN2h  1 3.650000e-01    2.340000e+00
 TP3dq  SN2h  1 3.650000e-01    2.340000e+00
 TP4dq  SN2h  1 3.650000e-01    2.110000e+00
 TP5dq  SN2h  1 3.650000e-01    1.910000e+00
 TP6dq  SN2h  1 3.650000e-01    1.910000e+00
 TN2aq  SN1h  1 3.650000e-01    2.340000e+00
 TN3aq  SN1h  1 3.650000e-01    2.340000e+00
 TN4aq  SN1h  1 3.650000e-01    2.340000e+00
 TN5aq  SN1h  1 3.650000e-01    2.340000e+00
 TN6aq  SN1h  1 3.650000e-01    2.340000e+00
 TP1aq  SN1h  1 3.650000e-01    2.340000e+00
 TP2aq  SN1h  1 3.650000e-01    2.340000e+00
 TP3aq  SN1h  1 3.650000e-01    2.110000e+00
 TP4aq  SN1h  1 3.650000e-01    1.910000e+00
 TP5aq  SN1h  1 3.650000e-01    1.750000e+00
 TP6aq  SN1h  1 3.650000e-01    1.750000e+00
 TN2dq  SN1h  1 3.650000e-01    2.340000e+00
 TN3dq  SN1h  1 3.650000e-01    2.340000e+00
 TN4dq  SN1h  1 3.650000e-01    2.340000e+00
 TN5dq  SN1h  1 3.650000e-01    2.340000e+00
 TN6dq  SN1h  1 3.650000e-01    2.340000e+00
 TP1dq  SN1h  1 3.650000e-01    2.340000e+00
 TP2dq  SN1h  1 3.650000e-01    2.340000e+00
 TP3dq  SN1h  1 3.650000e-01    2.110000e+00
 TP4dq  SN1h  1 3.650000e-01    1.910000e+00
 TP5dq  SN1h  1 3.650000e-01    1.750000e+00
 TP6dq  SN1h  1 3.650000e-01    1.750000e+00
 TN1aq  SC6h  1 3.650000e-01    2.570000e+00
 TN2aq  SC6h  1 3.650000e-01    2.340000e+00
 TN3aq  SC6h  1 3.650000e-01    2.340000e+00
 TN4aq  SC6h  1 3.650000e-01    2.340000e+00
 TN5aq  SC6h  1 3.650000e-01    2.340000e+00
 TN6aq  SC6h  1 3.650000e-01    2.340000e+00
 TP1aq  SC6h  1 3.650000e-01    2.110000e+00
 TP2aq  SC6h  1 3.650000e-01    2.110000e+00
 TP3aq  SC6h  1 3.650000e-01    2.110000e+00
 TP4aq  SC6h  1 3.650000e-01    1.910000e+00
 TP5aq  SC6h  1 3.650000e-01    1.750000e+00
 TP6aq  SC6h  1 3.650000e-01    1.750000e+00
 TN1dq  SC6h  1 3.650000e-01    2.570000e+00
 TN2dq  SC6h  1 3.650000e-01    2.340000e+00
 TN3dq  SC6h  1 3.650000e-01    2.340000e+00
 TN4dq  SC6h  1 3.650000e-01    2.340000e+00
 TN5dq  SC6h  1 3.650000e-01    2.340000e+00
 TN6dq  SC6h  1 3.650000e-01    2.340000e+00
 TP1dq  SC6h  1 3.650000e-01    2.110000e+00
 TP2dq  SC6h  1 3.650000e-01    2.110000e+00
 TP3dq  SC6h  1 3.650000e-01    2.110000e+00
 TP4dq  SC6h  1 3.650000e-01    1.910000e+00
 TP5dq  SC6h  1 3.650000e-01    1.750000e+00
 TP6dq  SC6h  1 3.650000e-01    1.750000e+00
 TC6eq  SC5h  1 3.650000e-01    2.570000e+00
 TC6vq  SC5h  1 3.650000e-01    2.570000e+00
 TN1aq  SC5h  1 3.650000e-01    2.340000e+00
 TN2aq  SC5h  1 3.650000e-01    2.110000e+00
 TN3aq  SC5h  1 3.650000e-01    2.110000e+00
 TN4aq  SC5h  1 3.650000e-01    2.110000e+00
 TN5aq  SC5h  1 3.650000e-01    2.110000e+00
 TN6aq  SC5h  1 3.650000e-01    2.110000e+00
 TP1aq  SC5h  1 3.650000e-01    1.910000e+00
 TP2aq  SC5h  1 3.650000e-01    1.910000e+00
 TP3aq  SC5h  1 3.650000e-01    1.910000e+00
 TP4aq  SC5h  1 3.650000e-01    1.750000e+00
 TP5aq  SC5h  1 3.650000e-01    1.750000e+00
 TP6aq  SC5h  1 3.660000e-01    1.600000e+00
 TN1dq  SC5h  1 3.650000e-01    2.340000e+00
 TN2dq  SC5h  1 3.650000e-01    2.110000e+00
 TN3dq  SC5h  1 3.650000e-01    2.110000e+00
 TN4dq  SC5h  1 3.650000e-01    2.110000e+00
 TN5dq  SC5h  1 3.650000e-01    2.110000e+00
 TN6dq  SC5h  1 3.650000e-01    2.110000e+00
 TP1dq  SC5h  1 3.650000e-01    1.910000e+00
 TP2dq  SC5h  1 3.650000e-01    1.910000e+00
 TP3dq  SC5h  1 3.650000e-01    1.910000e+00
 TP4dq  SC5h  1 3.650000e-01    1.750000e+00
 TP5dq  SC5h  1 3.650000e-01    1.750000e+00
 TP6dq  SC5h  1 3.660000e-01    1.600000e+00
 TC5eq  SC4h  1 3.650000e-01    2.570000e+00
 TC6eq  SC4h  1 3.650000e-01    2.570000e+00
 TC5vq  SC4h  1 3.650000e-01    2.570000e+00
 TC6vq  SC4h  1 3.650000e-01    2.570000e+00
 TN1aq  SC4h  1 3.650000e-01    2.340000e+00
 TN2aq  SC4h  1 3.650000e-01    2.110000e+00
 TN3aq  SC4h  1 3.650000e-01    2.110000e+00
 TN4aq  SC4h  1 3.650000e-01    2.110000e+00
 TN5aq  SC4h  1 3.650000e-01    1.910000e+00
 TN6aq  SC4h  1 3.650000e-01    1.910000e+00
 TP1aq  SC4h  1 3.650000e-01    1.750000e+00
 TP2aq  SC4h  1 3.650000e-01    1.750000e+00
 TP3aq  SC4h  1 3.650000e-01    1.750000e+00
 TP4aq  SC4h  1 3.660000e-01    1.600000e+00
 TP5aq  SC4h  1 3.660000e-01    1.600000e+00
 TP6aq  SC4h  1 3.780000e-01    1.450000e+00
 TN1dq  SC4h  1 3.650000e-01    2.340000e+00
 TN2dq  SC4h  1 3.650000e-01    2.110000e+00
 TN3dq  SC4h  1 3.650000e-01    2.110000e+00
 TN4dq  SC4h  1 3.650000e-01    2.110000e+00
 TN5dq  SC4h  1 3.650000e-01    1.910000e+00
 TN6dq  SC4h  1 3.650000e-01    1.910000e+00
 TP1dq  SC4h  1 3.650000e-01    1.750000e+00
 TP2dq  SC4h  1 3.650000e-01    1.750000e+00
 TP3dq  SC4h  1 3.650000e-01    1.750000e+00
 TP4dq  SC4h  1 3.660000e-01    1.600000e+00
 TP5dq  SC4h  1 3.660000e-01    1.600000e+00
 TP6dq  SC4h  1 3.780000e-01    1.450000e+00
 TC4eq  SC3h  1 3.650000e-01    2.570000e+00
 TC5eq  SC3h  1 3.650000e-01    2.340000e+00
 TC6eq  SC3h  1 3.650000e-01    2.340000e+00
 TC4vq  SC3h  1 3.650000e-01    2.570000e+00
 TC5vq  SC3h  1 3.650000e-01    2.340000e+00
 TC6vq  SC3h  1 3.650000e-01    2.340000e+00
 TN1aq  SC3h  1 3.650000e-01    2.110000e+00
 TN2aq  SC3h  1 3.650000e-01    2.110000e+00
 TN3aq  SC3h  1 3.650000e-01    1.910000e+00
 TN4aq  SC3h  1 3.650000e-01    1.910000e+00
 TN5aq  SC3h  1 3.650000e-01    1.910000e+00
 TN6aq  SC3h  1 3.650000e-01    1.750000e+00
 TP1aq  SC3h  1 3.660000e-01    1.600000e+00
 TP2aq  SC3h  1 3.660000e-01    1.600000e+00
 TP3aq  SC3h  1 3.780000e-01    1.450000e+00
 TP4aq  SC3h  1 3.780000e-01    1.450000e+00
 TP5aq  SC3h  1 3.780000e-01    1.450000e+00
 TP6aq  SC3h  1 3.940000e-01    1.290000e+00
 TN1dq  SC3h  1 3.650000e-01    2.110000e+00
 TN2dq  SC3h  1 3.650000e-01    2.110000e+00
 TN3dq  SC3h  1 3.650000e-01    1.910000e+00
 TN4dq  SC3h  1 3.650000e-01    1.910000e+00
 TN5dq  SC3h  1 3.650000e-01    1.910000e+00
 TN6dq  SC3h  1 3.650000e-01    1.750000e+00
 TP1dq  SC3h  1 3.660000e-01    1.600000e+00
 TP2dq  SC3h  1 3.660000e-01    1.600000e+00
 TP3dq  SC3h  1 3.780000e-01    1.450000e+00
 TP4dq  SC3h  1 3.780000e-01    1.450000e+00
 TP5dq  SC3h  1 3.780000e-01    1.450000e+00
 TP6dq  SC3h  1 3.940000e-01    1.290000e+00
 TC3eq  SC2h  1 3.650000e-01    2.570000e+00
 TC4eq  SC2h  1 3.650000e-01    2.340000e+00
 TC5eq  SC2h  1 3.650000e-01    2.110000e+00
 TC6eq  SC2h  1 3.650000e-01    2.110000e+00
 TC3vq  SC2h  1 3.650000e-01    2.570000e+00
 TC4vq  SC2h  1 3.650000e-01    2.340000e+00
 TC5vq  SC2h  1 3.650000e-01    2.110000e+00
 TC6vq  SC2h  1 3.650000e-01    2.110000e+00
 TN1aq  SC2h  1 3.650000e-01    1.910000e+00
 TN2aq  SC2h  1 3.650000e-01    1.910000e+00
 TN3aq  SC2h  1 3.650000e-01    1.910000e+00
 TN4aq  SC2h  1 3.650000e-01    1.750000e+00
 TN5aq  SC2h  1 3.650000e-01    1.750000e+00
 TN6aq  SC2h  1 3.650000e-01    1.750000e+00
 TP1aq  SC2h  1 3.660000e-01    1.600000e+00
 TP2aq  SC2h  1 3.660000e-01    1.600000e+00
 TP3aq  SC2h  1 3.780000e-01    1.450000e+00
 TP4aq  SC2h  1 3.780000e-01    1.450000e+00
 TP5aq  SC2h  1 3.780000e-01    1.450000e+00
 TP6aq  SC2h  1 3.940000e-01    1.290000e+00
 TN1dq  SC2h  1 3.650000e-01    1.910000e+00
 TN2dq  SC2h  1 3.650000e-01    1.910000e+00
 TN3dq  SC2h  1 3.650000e-01    1.910000e+00
 TN4dq  SC2h  1 3.650000e-01    1.750000e+00
 TN5dq  SC2h  1 3.650000e-01    1.750000e+00
 TN6dq  SC2h  1 3.650000e-01    1.750000e+00
 TP1dq  SC2h  1 3.660000e-01    1.600000e+00
 TP2dq  SC2h  1 3.660000e-01    1.600000e+00
 TP3dq  SC2h  1 3.780000e-01    1.450000e+00
 TP4dq  SC2h  1 3.780000e-01    1.450000e+00
 TP5dq  SC2h  1 3.780000e-01    1.450000e+00
 TP6dq  SC2h  1 3.940000e-01    1.290000e+00
 TC2eq  SC1h  1 3.650000e-01    2.830000e+00
 TC3eq  SC1h  1 3.650000e-01    2.570000e+00
 TC4eq  SC1h  1 3.650000e-01    2.110000e+00
 TC5eq  SC1h  1 3.650000e-01    2.110000e+00
 TC6eq  SC1h  1 3.650000e-01    1.910000e+00
 TC2vq  SC1h  1 3.650000e-01    2.830000e+00
 TC3vq  SC1h  1 3.650000e-01    2.570000e+00
 TC4vq  SC1h  1 3.650000e-01    2.110000e+00
 TC5vq  SC1h  1 3.650000e-01    2.110000e+00
 TC6vq  SC1h  1 3.650000e-01    1.910000e+00
 TN1aq  SC1h  1 3.650000e-01    1.750000e+00
 TN2aq  SC1h  1 3.650000e-01    1.750000e+00
 TN3aq  SC1h  1 3.650000e-01    1.750000e+00
 TN4aq  SC1h  1 3.660000e-01    1.600000e+00
 TN5aq  SC1h  1 3.660000e-01    1.600000e+00
 TN6aq  SC1h  1 3.660000e-01    1.600000e+00
 TP1aq  SC1h  1 3.780000e-01    1.450000e+00
 TP2aq  SC1h  1 3.780000e-01    1.450000e+00
 TP3aq  SC1h  1 3.940000e-01    1.290000e+00
 TP4aq  SC1h  1 3.940000e-01    1.290000e+00
 TP5aq  SC1h  1 3.940000e-01    1.290000e+00
 TP6aq  SC1h  1 4.090000e-01    1.080000e+00
 TN1dq  SC1h  1 3.650000e-01    1.750000e+00
 TN2dq  SC1h  1 3.650000e-01    1.750000e+00
 TN3dq  SC1h  1 3.650000e-01    1.750000e+00
 TN4dq  SC1h  1 3.660000e-01    1.600000e+00
 TN5dq  SC1h  1 3.660000e-01    1.600000e+00
 TN6dq  SC1h  1 3.660000e-01    1.600000e+00
 TP1dq  SC1h  1 3.780000e-01    1.450000e+00
 TP2dq  SC1h  1 3.780000e-01    1.450000e+00
 TP3dq  SC1h  1 3.940000e-01    1.290000e+00
 TP4dq  SC1h  1 3.940000e-01    1.290000e+00
 TP5dq  SC1h  1 3.940000e-01    1.290000e+00
 TP6dq  SC1h  1 4.090000e-01    1.080000e+00
 TC1eq  SX4h  1 3.650000e-01    1.910000e+00
 TC2eq  SX4h  1 3.650000e-01    1.910000e+00
 TC3eq  SX4h  1 3.650000e-01    2.340000e+00
 TC4eq  SX4h  1 3.650000e-01    2.340000e+00
 TC5eq  SX4h  1 3.650000e-01    2.340000e+00
 TC6eq  SX4h  1 3.650000e-01    2.570000e+00
 TC1vq  SX4h  1 3.650000e-01    1.910000e+00
 TC2vq  SX4h  1 3.650000e-01    1.910000e+00
 TC3vq  SX4h  1 3.650000e-01    2.340000e+00
 TC4vq  SX4h  1 3.650000e-01    2.340000e+00
 TC5vq  SX4h  1 3.650000e-01    2.340000e+00
 TC6vq  SX4h  1 3.650000e-01    2.570000e+00
 TN1aq  SX4h  1 3.650000e-01    2.340000e+00
 TN2aq  SX4h  1 3.650000e-01    2.570000e+00
 TN3aq  SX4h  1 3.650000e-01    2.570000e+00
 TN4aq  SX4h  1 3.650000e-01    2.830000e+00
 TN5aq  SX4h  1 3.650000e-01    2.570000e+00
 TN6aq  SX4h  1 3.650000e-01    2.340000e+00
 TP1aq  SX4h  1 3.650000e-01    2.110000e+00
 TP2aq  SX4h  1 3.650000e-01    2.110000e+00
 TP3aq  SX4h  1 3.650000e-01    2.110000e+00
 TP4aq  SX4h  1 3.650000e-01    2.110000e+00
 TP5aq  SX4h  1 3.650000e-01    2.110000e+00
 TP6aq  SX4h  1 3.650000e-01    1.910000e+00
 TN1dq  SX4h  1 3.650000e-01    2.340000e+00
 TN2dq  SX4h  1 3.650000e-01    2.570000e+00
 TN3dq  SX4h  1 3.650000e-01    2.570000e+00
 TN4dq  SX4h  1 3.650000e-01    2.830000e+00
 TN5dq  SX4h  1 3.650000e-01    2.570000e+00
 TN6dq  SX4h  1 3.650000e-01    2.340000e+00
 TP1dq  SX4h  1 3.650000e-01    2.110000e+00
 TP2dq  SX4h  1 3.650000e-01    2.110000e+00
 TP3dq  SX4h  1 3.650000e-01    2.110000e+00
 TP4dq  SX4h  1 3.650000e-01    2.110000e+00
 TP5dq  SX4h  1 3.650000e-01    2.110000e+00
 TP6dq  SX4h  1 3.650000e-01    1.910000e+00
 TX4eq  SX3h  1 3.650000e-01    2.570000e+00
 TC1eq  SX3h  1 3.650000e-01    2.340000e+00
 TC2eq  SX3h  1 3.650000e-01    2.340000e+00
 TC3eq  SX3h  1 3.650000e-01    2.340000e+00
 TC4eq  SX3h  1 3.650000e-01    2.340000e+00
 TC5eq  SX3h  1 3.650000e-01    2.340000e+00
 TC6eq  SX3h  1 3.650000e-01    2.570000e+00
 TX4vq  SX3h  1 3.650000e-01    2.570000e+00
 TC1vq  SX3h  1 3.650000e-01    2.340000e+00
 TC2vq  SX3h  1 3.650000e-01    2.340000e+00
 TC3vq  SX3h  1 3.650000e-01    2.340000e+00
 TC4vq  SX3h  1 3.650000e-01    2.340000e+00
 TC5vq  SX3h  1 3.650000e-01    2.340000e+00
 TC6vq  SX3h  1 3.650000e-01    2.570000e+00
 TN1aq  SX3h  1 3.650000e-01    2.340000e+00
 TN2aq  SX3h  1 3.650000e-01    2.340000e+00
 TN3aq  SX3h  1 3.650000e-01    2.340000e+00
 TN4aq  SX3h  1 3.650000e-01    2.570000e+00
 TN5aq  SX3h  1 3.650000e-01    2.340000e+00
 TN6aq  SX3h  1 3.650000e-01    2.110000e+00
 TP1aq  SX3h  1 3.650000e-01    2.110000e+00
 TP2aq  SX3h  1 3.650000e-01    2.110000e+00
 TP3aq  SX3h  1 3.650000e-01    2.110000e+00
 TP4aq  SX3h  1 3.650000e-01    1.910000e+00
 TP5aq  SX3h  1 3.650000e-01    1.910000e+00
 TP6aq  SX3h  1 3.650000e-01    1.910000e+00
 TN1dq  SX3h  1 3.650000e-01    2.340000e+00
 TN2dq  SX3h  1 3.650000e-01    2.340000e+00
 TN3dq  SX3h  1 3.650000e-01    2.340000e+00
 TN4dq  SX3h  1 3.650000e-01    2.570000e+00
 TN5dq  SX3h  1 3.650000e-01    2.340000e+00
 TN6dq  SX3h  1 3.650000e-01    2.110000e+00
 TP1dq  SX3h  1 3.650000e-01    2.110000e+00
 TP2dq  SX3h  1 3.650000e-01    2.110000e+00
 TP3dq  SX3h  1 3.650000e-01    2.110000e+00
 TP4dq  SX3h  1 3.650000e-01    1.910000e+00
 TP5dq  SX3h  1 3.650000e-01    1.910000e+00
 TP6dq  SX3h  1 3.650000e-01    1.910000e+00
 TX3eq  SX2h  1 3.650000e-01    2.830000e+00
 TX4eq  SX2h  1 3.650000e-01    2.570000e+00
 TC1eq  SX2h  1 3.650000e-01    2.340000e+00
 TC2eq  SX2h  1 3.650000e-01    2.340000e+00
 TC3eq  SX2h  1 3.650000e-01    2.340000e+00
 TC4eq  SX2h  1 3.650000e-01    2.340000e+00
 TC5eq  SX2h  1 3.650000e-01    2.340000e+00
 TC6eq  SX2h  1 3.650000e-01    2.570000e+00
 TX3vq  SX2h  1 3.650000e-01    2.830000e+00
 TX4vq  SX2h  1 3.650000e-01    2.570000e+00
 TC1vq  SX2h  1 3.650000e-01    2.340000e+00
 TC2vq  SX2h  1 3.650000e-01    2.340000e+00
 TC3vq  SX2h  1 3.650000e-01    2.340000e+00
 TC4vq  SX2h  1 3.650000e-01    2.340000e+00
 TC5vq  SX2h  1 3.650000e-01    2.340000e+00
 TC6vq  SX2h  1 3.650000e-01    2.570000e+00
 TN1aq  SX2h  1 3.650000e-01    2.110000e+00
 TN2aq  SX2h  1 3.650000e-01    2.110000e+00
 TN3aq  SX2h  1 3.650000e-01    2.110000e+00
 TN4aq  SX2h  1 3.650000e-01    2.110000e+00
 TN5aq  SX2h  1 3.650000e-01    2.110000e+00
 TN6aq  SX2h  1 3.650000e-01    1.910000e+00
 TP1aq  SX2h  1 3.650000e-01    1.910000e+00
 TP2aq  SX2h  1 3.650000e-01    1.910000e+00
 TP3aq  SX2h  1 3.650000e-01    1.910000e+00
 TP4aq  SX2h  1 3.650000e-01    1.910000e+00
 TP5aq  SX2h  1 3.650000e-01    1.910000e+00
 TP6aq  SX2h  1 3.650000e-01    1.750000e+00
 TN1dq  SX2h  1 3.650000e-01    2.110000e+00
 TN2dq  SX2h  1 3.650000e-01    2.110000e+00
 TN3dq  SX2h  1 3.650000e-01    2.110000e+00
 TN4dq  SX2h  1 3.650000e-01    2.110000e+00
 TN5dq  SX2h  1 3.650000e-01    2.110000e+00
 TN6dq  SX2h  1 3.650000e-01    1.910000e+00
 TP1dq  SX2h  1 3.650000e-01    1.910000e+00
 TP2dq  SX2h  1 3.650000e-01    1.910000e+00
 TP3dq  SX2h  1 3.650000e-01    1.910000e+00
 TP4dq  SX2h  1 3.650000e-01    1.910000e+00
 TP5dq  SX2h  1 3.650000e-01    1.910000e+00
 TP6dq  SX2h  1 3.650000e-01    1.750000e+00
 TX2eq  SX1h  1 3.650000e-01    2.830000e+00
 TX3eq  SX1h  1 3.650000e-01    2.830000e+00
 TX4eq  SX1h  1 3.650000e-01    2.570000e+00
 TC1eq  SX1h  1 3.650000e-01    2.340000e+00
 TC2eq  SX1h  1 3.650000e-01    2.340000e+00
 TC3eq  SX1h  1 3.650000e-01    2.570000e+00
 TC4eq  SX1h  1 3.650000e-01    2.570000e+00
 TC5eq  SX1h  1 3.650000e-01    2.570000e+00
 TC6eq  SX1h  1 3.650000e-01    2.570000e+00
 TX2vq  SX1h  1 3.650000e-01    2.830000e+00
 TX3vq  SX1h  1 3.650000e-01    2.830000e+00
 TX4vq  SX1h  1 3.650000e-01    2.570000e+00
 TC1vq  SX1h  1 3.650000e-01    2.340000e+00
 TC2vq  SX1h  1 3.650000e-01    2.340000e+00
 TC3vq  SX1h  1 3.650000e-01    2.570000e+00
 TC4vq  SX1h  1 3.650000e-01    2.570000e+00
 TC5vq  SX1h  1 3.650000e-01    2.570000e+00
 TC6vq  SX1h  1 3.650000e-01    2.570000e+00
 TN1aq  SX1h  1 3.650000e-01    2.110000e+00
 TN2aq  SX1h  1 3.650000e-01    2.110000e+00
 TN3aq  SX1h  1 3.650000e-01    2.110000e+00
 TN4aq  SX1h  1 3.650000e-01    1.910000e+00
 TN5aq  SX1h  1 3.650000e-01    1.910000e+00
 TN6aq  SX1h  1 3.650000e-01    1.750000e+00
 TP1aq  SX1h  1 3.650000e-01    1.750000e+00
 TP2aq  SX1h  1 3.650000e-01    1.750000e+00
 TP3aq  SX1h  1 3.650000e-01    1.750000e+00
 TP4aq  SX1h  1 3.650000e-01    1.750000e+00
 TP5aq  SX1h  1 3.660000e-01    1.600000e+00
 TP6aq  SX1h  1 3.660000e-01    1.600000e+00
 TN1dq  SX1h  1 3.650000e-01    2.110000e+00
 TN2dq  SX1h  1 3.650000e-01    2.110000e+00
 TN3dq  SX1h  1 3.650000e-01    2.110000e+00
 TN4dq  SX1h  1 3.650000e-01    1.910000e+00
 TN5dq  SX1h  1 3.650000e-01    1.910000e+00
 TN6dq  SX1h  1 3.650000e-01    1.750000e+00
 TP1dq  SX1h  1 3.650000e-01    1.750000e+00
 TP2dq  SX1h  1 3.650000e-01    1.750000e+00
 TP3dq  SX1h  1 3.650000e-01    1.750000e+00
 TP4dq  SX1h  1 3.650000e-01    1.750000e+00
 TP5dq  SX1h  1 3.660000e-01    1.600000e+00
 TP6dq  SX1h  1 3.660000e-01    1.600000e+00
 TP6dh  SP5d  1 3.650000e-01    3.370000e+00
 TP6dh  SP4d  1 3.650000e-01    3.100000e+00
 TP6dh  SP3d  1 3.650000e-01    2.830000e+00
 TP6dh  SP2d  1 3.650000e-01    2.830000e+00
 TP6dh  SP1d  1 3.650000e-01    2.570000e+00
 TP6dh  SN6d  1 3.650000e-01    2.340000e+00
 TP6dh  SN5d  1 3.650000e-01    1.910000e+00
 TP6dh  SN4d  1 3.650000e-01    1.750000e+00
 TP6dh  SN3d  1 3.650000e-01    1.750000e+00
 TP6dh  SN2d  1 3.660000e-01    1.600000e+00
 TP6dh  SN1d  1 3.780000e-01    1.450000e+00
 TP6dh  SP6a  1 3.650000e-01    4.220000e+00
 TP6dh  SP5a  1 3.650000e-01    3.930000e+00
 TP6dh  SP4a  1 3.650000e-01    3.640000e+00
 TP6dh  SP3a  1 3.650000e-01    3.370000e+00
 TP6dh  SP2a  1 3.650000e-01    3.370000e+00
 TP6dh  SP1a  1 3.650000e-01    3.100000e+00
 TP6dh  SN6a  1 3.650000e-01    2.830000e+00
 TP6dh  SN5a  1 3.650000e-01    2.340000e+00
 TP6dh  SN4a  1 3.650000e-01    2.110000e+00
 TP6dh  SN3a  1 3.650000e-01    1.750000e+00
 TP6dh  SN2a  1 3.660000e-01    1.600000e+00
 TP6dh  SN1a  1 3.780000e-01    1.450000e+00
 TP6dh  SC6e  1 3.660000e-01    1.600000e+00
 TP6dh  SC5e  1 3.780000e-01    1.450000e+00
 TP6dh  SC4e  1 3.940000e-01    1.290000e+00
 TP6dh  SC3e  1 4.040000e-01    1.130000e+00
 TP6dh  SC2e  1 4.040000e-01    1.130000e+00
 TP6dh  SC1e  1 4.230000e-01    9.810000e-01
 TP6dh  SX4e  1 3.650000e-01    1.750000e+00
 TP6dh  SX3e  1 3.650000e-01    1.750000e+00
 TP6dh  SX2e  1 3.660000e-01    1.600000e+00
 TP6dh  SX1e  1 3.780000e-01    1.450000e+00
 TP6dh  SC6v  1 3.940000e-01    1.290000e+00
 TP6dh  SC5v  1 4.040000e-01    1.130000e+00
 TP6dh  SC4v  1 4.090000e-01    1.080000e+00
 TP6dh  SC3v  1 4.230000e-01    9.810000e-01
 TP6dh  SC2v  1 4.230000e-01    9.810000e-01
 TP6dh  SC1v  1 5.370000e-01    8.080000e-01
 TP6dh  SX4v  1 3.780000e-01    1.450000e+00
 TP6dh  SX3v  1 3.780000e-01    1.450000e+00
 TP6dh  SX2v  1 3.940000e-01    1.290000e+00
 TP6dh  SX1v  1 4.040000e-01    1.130000e+00
 TP6dh  SP5q  1 3.650000e-01    4.220000e+00
 TP6dh  SP4q  1 3.650000e-01    3.930000e+00
 TP6dh  SP3q  1 3.650000e-01    3.640000e+00
 TP6dh  SP2q  1 3.650000e-01    3.640000e+00
 TP6dh  SP1q  1 3.650000e-01    3.370000e+00
 TP6dh  SN6q  1 3.650000e-01    3.100000e+00
 TP6dh  SN5q  1 3.650000e-01    2.570000e+00
 TP6dh  SN4q  1 3.650000e-01    2.340000e+00
 TP6dh  SN3q  1 3.650000e-01    2.110000e+00
 TP6dh  SN2q  1 3.650000e-01    1.910000e+00
 TP6dh  SN1q  1 3.650000e-01    1.750000e+00
 TP6dh  SC6q  1 3.650000e-01    1.750000e+00
 TP6dh  SC5q  1 3.660000e-01    1.600000e+00
 TP6dh  SC4q  1 3.780000e-01    1.450000e+00
 TP6dh  SC3q  1 3.940000e-01    1.290000e+00
 TP6dh  SC2q  1 3.940000e-01    1.290000e+00
 TP6dh  SC1q  1 4.090000e-01    1.080000e+00
 TP6dh  SX4q  1 3.650000e-01    1.910000e+00
 TP6dh  SX3q  1 3.650000e-01    1.910000e+00
 TP6dh  SX2q  1 3.650000e-01    1.750000e+00
 TP6dh  SX1q  1 3.660000e-01    1.600000e+00
 TP5dh  SP4d  1 3.650000e-01    2.830000e+00
 TP5dh  SP3d  1 3.650000e-01    2.570000e+00
 TP5dh  SP2d  1 3.650000e-01    2.570000e+00
 TP5dh  SP1d  1 3.650000e-01    2.340000e+00
 TP5dh  SN6d  1 3.650000e-01    2.110000e+00
 TP5dh  SN5d  1 3.650000e-01    1.910000e+00
 TP5dh  SN4d  1 3.650000e-01    1.910000e+00
 TP5dh  SN3d  1 3.650000e-01    1.750000e+00
 TP5dh  SN2d  1 3.660000e-01    1.600000e+00
 TP5dh  SN1d  1 3.780000e-01    1.450000e+00
 TP5dh  SP5a  1 3.650000e-01    3.640000e+00
 TP5dh  SP4a  1 3.650000e-01    3.370000e+00
 TP5dh  SP3a  1 3.650000e-01    3.100000e+00
 TP5dh  SP2a  1 3.650000e-01    3.100000e+00
 TP5dh  SP1a  1 3.650000e-01    2.830000e+00
 TP5dh  SN6a  1 3.650000e-01    2.570000e+00
 TP5dh  SN5a  1 3.650000e-01    2.340000e+00
 TP5dh  SN4a  1 3.650000e-01    2.340000e+00
 TP5dh  SN3a  1 3.650000e-01    1.750000e+00
 TP5dh  SN2a  1 3.660000e-01    1.600000e+00
 TP5dh  SN1a  1 3.780000e-01    1.450000e+00
 TP5dh  SC6e  1 3.660000e-01    1.600000e+00
 TP5dh  SC5e  1 3.660000e-01    1.600000e+00
 TP5dh  SC4e  1 3.780000e-01    1.450000e+00
 TP5dh  SC3e  1 3.940000e-01    1.290000e+00
 TP5dh  SC2e  1 3.940000e-01    1.290000e+00
 TP5dh  SC1e  1 4.040000e-01    1.130000e+00
 TP5dh  SX4e  1 3.650000e-01    1.910000e+00
 TP5dh  SX3e  1 3.650000e-01    1.750000e+00
 TP5dh  SX2e  1 3.650000e-01    1.750000e+00
 TP5dh  SX1e  1 3.780000e-01    1.450000e+00
 TP5dh  SC6v  1 3.940000e-01    1.290000e+00
 TP5dh  SC5v  1 3.940000e-01    1.290000e+00
 TP5dh  SC4v  1 4.040000e-01    1.130000e+00
 TP5dh  SC3v  1 4.090000e-01    1.080000e+00
 TP5dh  SC2v  1 4.090000e-01    1.080000e+00
 TP5dh  SC1v  1 4.230000e-01    9.810000e-01
 TP5dh  SX4v  1 3.660000e-01    1.600000e+00
 TP5dh  SX3v  1 3.780000e-01    1.450000e+00
 TP5dh  SX2v  1 3.780000e-01    1.450000e+00
 TP5dh  SX1v  1 4.040000e-01    1.130000e+00
 TP5dh  SP4q  1 3.650000e-01    3.640000e+00
 TP5dh  SP3q  1 3.650000e-01    3.370000e+00
 TP5dh  SP2q  1 3.650000e-01    3.370000e+00
 TP5dh  SP1q  1 3.650000e-01    3.100000e+00
 TP5dh  SN6q  1 3.650000e-01    2.830000e+00
 TP5dh  SN5q  1 3.650000e-01    2.570000e+00
 TP5dh  SN4q  1 3.650000e-01    2.570000e+00
 TP5dh  SN3q  1 3.650000e-01    2.110000e+00
 TP5dh  SN2q  1 3.650000e-01    1.910000e+00
 TP5dh  SN1q  1 3.650000e-01    1.750000e+00
 TP5dh  SC6q  1 3.650000e-01    1.750000e+00
 TP5dh  SC5q  1 3.650000e-01    1.750000e+00
 TP5dh  SC4q  1 3.660000e-01    1.600000e+00
 TP5dh  SC3q  1 3.780000e-01    1.450000e+00
 TP5dh  SC2q  1 3.780000e-01    1.450000e+00
 TP5dh  SC1q  1 3.940000e-01    1.290000e+00
 TP5dh  SX4q  1 3.650000e-01    2.110000e+00
 TP5dh  SX3q  1 3.650000e-01    1.910000e+00
 TP5dh  SX2q  1 3.650000e-01    1.910000e+00
 TP5dh  SX1q  1 3.660000e-01    1.600000e+00
 TP4dh  SP3d  1 3.650000e-01    2.570000e+00
 TP4dh  SP2d  1 3.650000e-01    2.570000e+00
 TP4dh  SP1d  1 3.650000e-01    2.340000e+00
 TP4dh  SN6d  1 3.650000e-01    2.110000e+00
 TP4dh  SN5d  1 3.650000e-01    1.910000e+00
 TP4dh  SN4d  1 3.650000e-01    1.910000e+00
 TP4dh  SN3d  1 3.650000e-01    1.750000e+00
 TP4dh  SN2d  1 3.650000e-01    1.750000e+00
 TP4dh  SN1d  1 3.660000e-01    1.600000e+00
 TP4dh  SP4a  1 3.650000e-01    3.370000e+00
 TP4dh  SP3a  1 3.650000e-01    3.100000e+00
 TP4dh  SP2a  1 3.650000e-01    3.100000e+00
 TP4dh  SP1a  1 3.650000e-01    2.830000e+00
 TP4dh  SN6a  1 3.650000e-01    2.570000e+00
 TP4dh  SN5a  1 3.650000e-01    2.340000e+00
 TP4dh  SN4a  1 3.650000e-01    2.340000e+00
 TP4dh  SN3a  1 3.650000e-01    2.110000e+00
 TP4dh  SN2a  1 3.650000e-01    1.750000e+00
 TP4dh  SN1a  1 3.660000e-01    1.600000e+00
 TP4dh  SC6e  1 3.650000e-01    1.750000e+00
 TP4dh  SC5e  1 3.660000e-01    1.600000e+00
 TP4dh  SC4e  1 3.780000e-01    1.450000e+00
 TP4dh  SC3e  1 3.940000e-01    1.290000e+00
 TP4dh  SC2e  1 3.940000e-01    1.290000e+00
 TP4dh  SC1e  1 4.040000e-01    1.130000e+00
 TP4dh  SX4e  1 3.650000e-01    1.910000e+00
 TP4dh  SX3e  1 3.650000e-01    1.750000e+00
 TP4dh  SX2e  1 3.650000e-01    1.750000e+00
 TP4dh  SX1e  1 3.660000e-01    1.600000e+00
 TP4dh  SC6v  1 3.780000e-01    1.450000e+00
 TP4dh  SC5v  1 3.940000e-01    1.290000e+00
 TP4dh  SC4v  1 4.040000e-01    1.130000e+00
 TP4dh  SC3v  1 4.090000e-01    1.080000e+00
 TP4dh  SC2v  1 4.090000e-01    1.080000e+00
 TP4dh  SC1v  1 4.230000e-01    9.810000e-01
 TP4dh  SX4v  1 3.660000e-01    1.600000e+00
 TP4dh  SX3v  1 3.780000e-01    1.450000e+00
 TP4dh  SX2v  1 3.780000e-01    1.450000e+00
 TP4dh  SX1v  1 3.940000e-01    1.290000e+00
 TP4dh  SP3q  1 3.650000e-01    3.370000e+00
 TP4dh  SP2q  1 3.650000e-01    3.370000e+00
 TP4dh  SP1q  1 3.650000e-01    3.100000e+00
 TP4dh  SN6q  1 3.650000e-01    2.830000e+00
 TP4dh  SN5q  1 3.650000e-01    2.570000e+00
 TP4dh  SN4q  1 3.650000e-01    2.570000e+00
 TP4dh  SN3q  1 3.650000e-01    2.340000e+00
 TP4dh  SN2q  1 3.650000e-01    2.110000e+00
 TP4dh  SN1q  1 3.650000e-01    1.910000e+00
 TP4dh  SC6q  1 3.650000e-01    1.910000e+00
 TP4dh  SC5q  1 3.650000e-01    1.750000e+00
 TP4dh  SC4q  1 3.660000e-01    1.600000e+00
 TP4dh  SC3q  1 3.780000e-01    1.450000e+00
 TP4dh  SC2q  1 3.780000e-01    1.450000e+00
 TP4dh  SC1q  1 3.940000e-01    1.290000e+00
 TP4dh  SX4q  1 3.650000e-01    2.110000e+00
 TP4dh  SX3q  1 3.650000e-01    1.910000e+00
 TP4dh  SX2q  1 3.650000e-01    1.910000e+00
 TP4dh  SX1q  1 3.650000e-01    1.750000e+00
 TP3dh  SP2d  1 3.650000e-01    2.570000e+00
 TP3dh  SP1d  1 3.650000e-01    2.340000e+00
 TP3dh  SN6d  1 3.650000e-01    2.110000e+00
 TP3dh  SN5d  1 3.650000e-01    1.910000e+00
 TP3dh  SN4d  1 3.650000e-01    1.910000e+00
 TP3dh  SN3d  1 3.650000e-01    1.750000e+00
 TP3dh  SN2d  1 3.650000e-01    1.750000e+00
 TP3dh  SN1d  1 3.650000e-01    1.750000e+00
 TP3dh  SP3a  1 3.650000e-01    3.100000e+00
 TP3dh  SP2a  1 3.650000e-01    3.100000e+00
 TP3dh  SP1a  1 3.650000e-01    2.830000e+00
 TP3dh  SN6a  1 3.650000e-01    2.570000e+00
 TP3dh  SN5a  1 3.650000e-01    2.340000e+00
 TP3dh  SN4a  1 3.650000e-01    2.340000e+00
 TP3dh  SN3a  1 3.650000e-01    2.110000e+00
 TP3dh  SN2a  1 3.650000e-01    2.110000e+00
 TP3dh  SN1a  1 3.650000e-01    1.750000e+00
 TP3dh  SC6e  1 3.650000e-01    1.910000e+00
 TP3dh  SC5e  1 3.650000e-01    1.750000e+00
 TP3dh  SC4e  1 3.660000e-01    1.600000e+00
 TP3dh  SC3e  1 3.940000e-01    1.290000e+00
 TP3dh  SC2e  1 3.940000e-01    1.290000e+00
 TP3dh  SC1e  1 4.040000e-01    1.130000e+00
 TP3dh  SX4e  1 3.650000e-01    1.910000e+00
 TP3dh  SX3e  1 3.650000e-01    1.910000e+00
 TP3dh  SX2e  1 3.650000e-01    1.750000e+00
 TP3dh  SX1e  1 3.660000e-01    1.600000e+00
 TP3dh  SC6v  1 3.660000e-01    1.600000e+00
 TP3dh  SC5v  1 3.780000e-01    1.450000e+00
 TP3dh  SC4v  1 3.940000e-01    1.290000e+00
 TP3dh  SC3v  1 4.090000e-01    1.080000e+00
 TP3dh  SC2v  1 4.090000e-01    1.080000e+00
 TP3dh  SC1v  1 4.230000e-01    9.810000e-01
 TP3dh  SX4v  1 3.660000e-01    1.600000e+00
 TP3dh  SX3v  1 3.660000e-01    1.600000e+00
 TP3dh  SX2v  1 3.780000e-01    1.450000e+00
 TP3dh  SX1v  1 3.940000e-01    1.290000e+00
 TP3dh  SP2q  1 3.650000e-01    3.370000e+00
 TP3dh  SP1q  1 3.650000e-01    3.100000e+00
 TP3dh  SN6q  1 3.650000e-01    2.830000e+00
 TP3dh  SN5q  1 3.650000e-01    2.570000e+00
 TP3dh  SN4q  1 3.650000e-01    2.570000e+00
 TP3dh  SN3q  1 3.650000e-01    2.340000e+00
 TP3dh  SN2q  1 3.650000e-01    2.340000e+00
 TP3dh  SN1q  1 3.650000e-01    2.110000e+00
 TP3dh  SC6q  1 3.650000e-01    2.110000e+00
 TP3dh  SC5q  1 3.650000e-01    1.910000e+00
 TP3dh  SC4q  1 3.650000e-01    1.750000e+00
 TP3dh  SC3q  1 3.780000e-01    1.450000e+00
 TP3dh  SC2q  1 3.780000e-01    1.450000e+00
 TP3dh  SC1q  1 3.940000e-01    1.290000e+00
 TP3dh  SX4q  1 3.650000e-01    2.110000e+00
 TP3dh  SX3q  1 3.650000e-01    2.110000e+00
 TP3dh  SX2q  1 3.650000e-01    1.910000e+00
 TP3dh  SX1q  1 3.650000e-01    1.750000e+00
 TP2dh  SP1d  1 3.650000e-01    2.340000e+00
 TP2dh  SN6d  1 3.650000e-01    2.340000e+00
 TP2dh  SN5d  1 3.650000e-01    2.110000e+00
 TP2dh  SN4d  1 3.650000e-01    1.910000e+00
 TP2dh  SN3d  1 3.650000e-01    1.750000e+00
 TP2dh  SN2d  1 3.650000e-01    1.750000e+00
 TP2dh  SN1d  1 3.650000e-01    1.750000e+00
 TP2dh  SP2a  1 3.650000e-01    3.100000e+00
 TP2dh  SP1a  1 3.650000e-01    2.830000e+00
 TP2dh  SN6a  1 3.650000e-01    2.830000e+00
 TP2dh  SN5a  1 3.650000e-01    2.570000e+00
 TP2dh  SN4a  1 3.650000e-01    2.340000e+00
 TP2dh  SN3a  1 3.650000e-01    2.110000e+00
 TP2dh  SN2a  1 3.650000e-01    2.110000e+00
 TP2dh  SN1a  1 3.650000e-01    2.110000e+00
 TP2dh  SC6e  1 3.650000e-01    1.910000e+00
 TP2dh  SC5e  1 3.650000e-01    1.750000e+00
 TP2dh  SC4e  1 3.660000e-01    1.600000e+00
 TP2dh  SC3e  1 3.780000e-01    1.450000e+00
 TP2dh  SC2e  1 3.780000e-01    1.450000e+00
 TP2dh  SC1e  1 3.940000e-01    1.290000e+00
 TP2dh  SX4e  1 3.650000e-01    1.910000e+00
 TP2dh  SX3e  1 3.650000e-01    1.910000e+00
 TP2dh  SX2e  1 3.650000e-01    1.750000e+00
 TP2dh  SX1e  1 3.660000e-01    1.600000e+00
 TP2dh  SC6v  1 3.660000e-01    1.600000e+00
 TP2dh  SC5v  1 3.780000e-01    1.450000e+00
 TP2dh  SC4v  1 3.940000e-01    1.290000e+00
 TP2dh  SC3v  1 4.040000e-01    1.130000e+00
 TP2dh  SC2v  1 4.040000e-01    1.130000e+00
 TP2dh  SC1v  1 4.090000e-01    1.080000e+00
 TP2dh  SX4v  1 3.660000e-01    1.600000e+00
 TP2dh  SX3v  1 3.660000e-01    1.600000e+00
 TP2dh  SX2v  1 3.780000e-01    1.450000e+00
 TP2dh  SX1v  1 3.940000e-01    1.290000e+00
 TP2dh  SP1q  1 3.650000e-01    3.100000e+00
 TP2dh  SN6q  1 3.650000e-01    3.100000e+00
 TP2dh  SN5q  1 3.650000e-01    2.830000e+00
 TP2dh  SN4q  1 3.650000e-01    2.570000e+00
 TP2dh  SN3q  1 3.650000e-01    2.340000e+00
 TP2dh  SN2q  1 3.650000e-01    2.340000e+00
 TP2dh  SN1q  1 3.650000e-01    2.340000e+00
 TP2dh  SC6q  1 3.650000e-01    2.110000e+00
 TP2dh  SC5q  1 3.650000e-01    1.910000e+00
 TP2dh  SC4q  1 3.650000e-01    1.750000e+00
 TP2dh  SC3q  1 3.660000e-01    1.600000e+00
 TP2dh  SC2q  1 3.660000e-01    1.600000e+00
 TP2dh  SC1q  1 3.780000e-01    1.450000e+00
 TP2dh  SX4q  1 3.650000e-01    2.110000e+00
 TP2dh  SX3q  1 3.650000e-01    2.110000e+00
 TP2dh  SX2q  1 3.650000e-01    1.910000e+00
 TP2dh  SX1q  1 3.650000e-01    1.750000e+00
 TP1dh  SN6d  1 3.650000e-01    2.340000e+00
 TP1dh  SN5d  1 3.650000e-01    2.110000e+00
 TP1dh  SN4d  1 3.650000e-01    2.110000e+00
 TP1dh  SN3d  1 3.650000e-01    1.750000e+00
 TP1dh  SN2d  1 3.650000e-01    1.750000e+00
 TP1dh  SN1d  1 3.650000e-01    1.750000e+00
 TP1dh  SP1a  1 3.650000e-01    2.830000e+00
 TP1dh  SN6a  1 3.650000e-01    2.830000e+00
 TP1dh  SN5a  1 3.650000e-01    2.570000e+00
 TP1dh  SN4a  1 3.650000e-01    2.570000e+00
 TP1dh  SN3a  1 3.650000e-01    2.110000e+00
 TP1dh  SN2a  1 3.650000e-01    2.110000e+00
 TP1dh  SN1a  1 3.650000e-01    2.110000e+00
 TP1dh  SC6e  1 3.650000e-01    1.910000e+00
 TP1dh  SC5e  1 3.650000e-01    1.750000e+00
 TP1dh  SC4e  1 3.660000e-01    1.600000e+00
 TP1dh  SC3e  1 3.780000e-01    1.450000e+00
 TP1dh  SC2e  1 3.780000e-01    1.450000e+00
 TP1dh  SC1e  1 3.940000e-01    1.290000e+00
 TP1dh  SX4e  1 3.650000e-01    1.910000e+00
 TP1dh  SX3e  1 3.650000e-01    1.910000e+00
 TP1dh  SX2e  1 3.650000e-01    1.750000e+00
 TP1dh  SX1e  1 3.660000e-01    1.600000e+00
 TP1dh  SC6v  1 3.660000e-01    1.600000e+00
 TP1dh  SC5v  1 3.780000e-01    1.450000e+00
 TP1dh  SC4v  1 3.940000e-01    1.290000e+00
 TP1dh  SC3v  1 4.040000e-01    1.130000e+00
 TP1dh  SC2v  1 4.040000e-01    1.130000e+00
 TP1dh  SC1v  1 4.090000e-01    1.080000e+00
 TP1dh  SX4v  1 3.660000e-01    1.600000e+00
 TP1dh  SX3v  1 3.660000e-01    1.600000e+00
 TP1dh  SX2v  1 3.780000e-01    1.450000e+00
 TP1dh  SX1v  1 3.940000e-01    1.290000e+00
 TP1dh  SN6q  1 3.650000e-01    3.100000e+00
 TP1dh  SN5q  1 3.650000e-01    2.830000e+00
 TP1dh  SN4q  1 3.650000e-01    2.830000e+00
 TP1dh  SN3q  1 3.650000e-01    2.340000e+00
 TP1dh  SN2q  1 3.650000e-01    2.340000e+00
 TP1dh  SN1q  1 3.650000e-01    2.340000e+00
 TP1dh  SC6q  1 3.650000e-01    2.110000e+00
 TP1dh  SC5q  1 3.650000e-01    1.910000e+00
 TP1dh  SC4q  1 3.650000e-01    1.750000e+00
 TP1dh  SC3q  1 3.660000e-01    1.600000e+00
 TP1dh  SC2q  1 3.660000e-01    1.600000e+00
 TP1dh  SC1q  1 3.780000e-01    1.450000e+00
 TP1dh  SX4q  1 3.650000e-01    2.110000e+00
 TP1dh  SX3q  1 3.650000e-01    2.110000e+00
 TP1dh  SX2q  1 3.650000e-01    1.910000e+00
 TP1dh  SX1q  1 3.650000e-01    1.750000e+00
 TN6dh  SN5d  1 3.650000e-01    2.340000e+00
 TN6dh  SN4d  1 3.650000e-01    2.340000e+00
 TN6dh  SN3d  1 3.650000e-01    1.910000e+00
 TN6dh  SN2d  1 3.650000e-01    1.750000e+00
 TN6dh  SN1d  1 3.650000e-01    1.750000e+00
 TN6dh  SN6a  1 3.650000e-01    2.830000e+00
 TN6dh  SN5a  1 3.650000e-01    2.830000e+00
 TN6dh  SN4a  1 3.650000e-01    2.830000e+00
 TN6dh  SN3a  1 3.650000e-01    2.340000e+00
 TN6dh  SN2a  1 3.650000e-01    2.110000e+00
 TN6dh  SN1a  1 3.650000e-01    2.110000e+00
 TN6dh  SC6e  1 3.650000e-01    2.110000e+00
 TN6dh  SC5e  1 3.650000e-01    1.910000e+00
 TN6dh  SC4e  1 3.650000e-01    1.750000e+00
 TN6dh  SC3e  1 3.660000e-01    1.600000e+00
 TN6dh  SC2e  1 3.660000e-01    1.600000e+00
 TN6dh  SC1e  1 3.780000e-01    1.450000e+00
 TN6dh  SX4e  1 3.650000e-01    2.110000e+00
 TN6dh  SX3e  1 3.650000e-01    1.910000e+00
 TN6dh  SX2e  1 3.650000e-01    1.750000e+00
 TN6dh  SX1e  1 3.660000e-01    1.600000e+00
 TN6dh  SC6v  1 3.650000e-01    1.750000e+00
 TN6dh  SC5v  1 3.660000e-01    1.600000e+00
 TN6dh  SC4v  1 3.780000e-01    1.450000e+00
 TN6dh  SC3v  1 3.940000e-01    1.290000e+00
 TN6dh  SC2v  1 3.940000e-01    1.290000e+00
 TN6dh  SC1v  1 4.040000e-01    1.130000e+00
 TN6dh  SX4v  1 3.650000e-01    1.750000e+00
 TN6dh  SX3v  1 3.660000e-01    1.600000e+00
 TN6dh  SX2v  1 3.780000e-01    1.450000e+00
 TN6dh  SX1v  1 3.940000e-01    1.290000e+00
 TN6dh  SN5q  1 3.650000e-01    3.100000e+00
 TN6dh  SN4q  1 3.650000e-01    3.100000e+00
 TN6dh  SN3q  1 3.650000e-01    2.570000e+00
 TN6dh  SN2q  1 3.650000e-01    2.340000e+00
 TN6dh  SN1q  1 3.650000e-01    2.340000e+00
 TN6dh  SC6q  1 3.650000e-01    2.340000e+00
 TN6dh  SC5q  1 3.650000e-01    2.110000e+00
 TN6dh  SC4q  1 3.650000e-01    1.910000e+00
 TN6dh  SC3q  1 3.650000e-01    1.750000e+00
 TN6dh  SC2q  1 3.650000e-01    1.750000e+00
 TN6dh  SC1q  1 3.660000e-01    1.600000e+00
 TN6dh  SX4q  1 3.650000e-01    2.340000e+00
 TN6dh  SX3q  1 3.650000e-01    2.110000e+00
 TN6dh  SX2q  1 3.650000e-01    1.910000e+00
 TN6dh  SX1q  1 3.650000e-01    1.750000e+00
 TN5dh  SN4d  1 3.650000e-01    2.110000e+00
 TN5dh  SN3d  1 3.650000e-01    1.910000e+00
 TN5dh  SN2d  1 3.650000e-01    1.910000e+00
 TN5dh  SN1d  1 3.650000e-01    1.750000e+00
 TN5dh  SN5a  1 3.650000e-01    2.570000e+00
 TN5dh  SN4a  1 3.650000e-01    2.570000e+00
 TN5dh  SN3a  1 3.650000e-01    2.340000e+00
 TN5dh  SN2a  1 3.650000e-01    2.340000e+00
 TN5dh  SN1a  1 3.650000e-01    2.110000e+00
 TN5dh  SC6e  1 3.650000e-01    2.110000e+00
 TN5dh  SC5e  1 3.650000e-01    1.910000e+00
 TN5dh  SC4e  1 3.650000e-01    1.750000e+00
 TN5dh  SC3e  1 3.650000e-01    1.750000e+00
 TN5dh  SC2e  1 3.660000e-01    1.600000e+00
 TN5dh  SC1e  1 3.780000e-01    1.450000e+00
 TN5dh  SX4e  1 3.650000e-01    2.340000e+00
 TN5dh  SX3e  1 3.650000e-01    2.110000e+00
 TN5dh  SX2e  1 3.650000e-01    1.910000e+00
 TN5dh  SX1e  1 3.650000e-01    1.750000e+00
 TN5dh  SC6v  1 3.650000e-01    1.750000e+00
 TN5dh  SC5v  1 3.660000e-01    1.600000e+00
 TN5dh  SC4v  1 3.780000e-01    1.450000e+00
 TN5dh  SC3v  1 3.780000e-01    1.450000e+00
 TN5dh  SC2v  1 3.940000e-01    1.290000e+00
 TN5dh  SC1v  1 4.040000e-01    1.130000e+00
 TN5dh  SX4v  1 3.650000e-01    1.910000e+00
 TN5dh  SX3v  1 3.650000e-01    1.750000e+00
 TN5dh  SX2v  1 3.660000e-01    1.600000e+00
 TN5dh  SX1v  1 3.780000e-01    1.450000e+00
 TN5dh  SN4q  1 3.650000e-01    2.830000e+00
 TN5dh  SN3q  1 3.650000e-01    2.570000e+00
 TN5dh  SN2q  1 3.650000e-01    2.570000e+00
 TN5dh  SN1q  1 3.650000e-01    2.340000e+00
 TN5dh  SC6q  1 3.650000e-01    2.340000e+00
 TN5dh  SC5q  1 3.650000e-01    2.110000e+00
 TN5dh  SC4q  1 3.650000e-01    1.910000e+00
 TN5dh  SC3q  1 3.650000e-01    1.910000e+00
 TN5dh  SC2q  1 3.650000e-01    1.750000e+00
 TN5dh  SC1q  1 3.660000e-01    1.600000e+00
 TN5dh  SX4q  1 3.650000e-01    2.570000e+00
 TN5dh  SX3q  1 3.650000e-01    2.340000e+00
 TN5dh  SX2q  1 3.650000e-01    2.110000e+00
 TN5dh  SX1q  1 3.650000e-01    1.910000e+00
 TN4dh  SN3d  1 3.650000e-01    1.910000e+00
 TN4dh  SN2d  1 3.650000e-01    1.910000e+00
 TN4dh  SN1d  1 3.650000e-01    1.750000e+00
 TN4dh  SN4a  1 3.650000e-01    2.570000e+00
 TN4dh  SN3a  1 3.650000e-01    2.340000e+00
 TN4dh  SN2a  1 3.650000e-01    2.340000e+00
 TN4dh  SN1a  1 3.650000e-01    2.110000e+00
 TN4dh  SC6e  1 3.650000e-01    2.110000e+00
 TN4dh  SC5e  1 3.650000e-01    1.910000e+00
 TN4dh  SC4e  1 3.650000e-01    1.910000e+00
 TN4dh  SC3e  1 3.650000e-01    1.750000e+00
 TN4dh  SC2e  1 3.660000e-01    1.600000e+00
 TN4dh  SC1e  1 3.780000e-01    1.450000e+00
 TN4dh  SX4e  1 3.650000e-01    2.570000e+00
 TN4dh  SX3e  1 3.650000e-01    2.340000e+00
 TN4dh  SX2e  1 3.650000e-01    1.910000e+00
 TN4dh  SX1e  1 3.650000e-01    1.750000e+00
 TN4dh  SC6v  1 3.650000e-01    1.750000e+00
 TN4dh  SC5v  1 3.660000e-01    1.600000e+00
 TN4dh  SC4v  1 3.660000e-01    1.600000e+00
 TN4dh  SC3v  1 3.780000e-01    1.450000e+00
 TN4dh  SC2v  1 3.940000e-01    1.290000e+00
 TN4dh  SC1v  1 4.040000e-01    1.130000e+00
 TN4dh  SX4v  1 3.650000e-01    2.110000e+00
 TN4dh  SX3v  1 3.650000e-01    1.910000e+00
 TN4dh  SX2v  1 3.660000e-01    1.600000e+00
 TN4dh  SX1v  1 3.780000e-01    1.450000e+00
 TN4dh  SN3q  1 3.650000e-01    2.570000e+00
 TN4dh  SN2q  1 3.650000e-01    2.570000e+00
 TN4dh  SN1q  1 3.650000e-01    2.340000e+00
 TN4dh  SC6q  1 3.650000e-01    2.340000e+00
 TN4dh  SC5q  1 3.650000e-01    2.110000e+00
 TN4dh  SC4q  1 3.650000e-01    2.110000e+00
 TN4dh  SC3q  1 3.650000e-01    1.910000e+00
 TN4dh  SC2q  1 3.650000e-01    1.750000e+00
 TN4dh  SC1q  1 3.660000e-01    1.600000e+00
 TN4dh  SX4q  1 3.650000e-01    2.830000e+00
 TN4dh  SX3q  1 3.650000e-01    2.570000e+00
 TN4dh  SX2q  1 3.650000e-01    2.110000e+00
 TN4dh  SX1q  1 3.650000e-01    1.910000e+00
 TN3dh  SN2d  1 3.650000e-01    1.910000e+00
 TN3dh  SN1d  1 3.650000e-01    1.750000e+00
 TN3dh  SN3a  1 3.650000e-01    2.340000e+00
 TN3dh  SN2a  1 3.650000e-01    2.340000e+00
 TN3dh  SN1a  1 3.650000e-01    2.110000e+00
 TN3dh  SC6e  1 3.650000e-01    2.110000e+00
 TN3dh  SC5e  1 3.650000e-01    1.910000e+00
 TN3dh  SC4e  1 3.650000e-01    1.910000e+00
 TN3dh  SC3e  1 3.650000e-01    1.750000e+00
 TN3dh  SC2e  1 3.650000e-01    1.750000e+00
 TN3dh  SC1e  1 3.660000e-01    1.600000e+00
 TN3dh  SX4e  1 3.650000e-01    2.340000e+00
 TN3dh  SX3e  1 3.650000e-01    2.110000e+00
 TN3dh  SX2e  1 3.650000e-01    1.910000e+00
 TN3dh  SX1e  1 3.650000e-01    1.910000e+00
 TN3dh  SC6v  1 3.650000e-01    1.750000e+00
 TN3dh  SC5v  1 3.660000e-01    1.600000e+00
 TN3dh  SC4v  1 3.660000e-01    1.600000e+00
 TN3dh  SC3v  1 3.780000e-01    1.450000e+00
 TN3dh  SC2v  1 3.780000e-01    1.450000e+00
 TN3dh  SC1v  1 3.940000e-01    1.290000e+00
 TN3dh  SX4v  1 3.650000e-01    1.910000e+00
 TN3dh  SX3v  1 3.650000e-01    1.750000e+00
 TN3dh  SX2v  1 3.660000e-01    1.600000e+00
 TN3dh  SX1v  1 3.660000e-01    1.600000e+00
 TN3dh  SN2q  1 3.650000e-01    2.570000e+00
 TN3dh  SN1q  1 3.650000e-01    2.340000e+00
 TN3dh  SC6q  1 3.650000e-01    2.340000e+00
 TN3dh  SC5q  1 3.650000e-01    2.110000e+00
 TN3dh  SC4q  1 3.650000e-01    2.110000e+00
 TN3dh  SC3q  1 3.650000e-01    1.910000e+00
 TN3dh  SC2q  1 3.650000e-01    1.910000e+00
 TN3dh  SC1q  1 3.650000e-01    1.750000e+00
 TN3dh  SX4q  1 3.650000e-01    2.570000e+00
 TN3dh  SX3q  1 3.650000e-01    2.340000e+00
 TN3dh  SX2q  1 3.650000e-01    2.110000e+00
 TN3dh  SX1q  1 3.650000e-01    2.110000e+00
 TN2dh  SN1d  1 3.650000e-01    1.750000e+00
 TN2dh  SN2a  1 3.650000e-01    2.340000e+00
 TN2dh  SN1a  1 3.650000e-01    2.110000e+00
 TN2dh  SC6e  1 3.650000e-01    2.110000e+00
 TN2dh  SC5e  1 3.650000e-01    1.910000e+00
 TN2dh  SC4e  1 3.650000e-01    1.910000e+00
 TN2dh  SC3e  1 3.650000e-01    1.910000e+00
 TN2dh  SC2e  1 3.650000e-01    1.750000e+00
 TN2dh  SC1e  1 3.660000e-01    1.600000e+00
 TN2dh  SX4e  1 3.650000e-01    2.340000e+00
 TN2dh  SX3e  1 3.650000e-01    2.110000e+00
 TN2dh  SX2e  1 3.650000e-01    1.910000e+00
 TN2dh  SX1e  1 3.650000e-01    1.910000e+00
 TN2dh  SC6v  1 3.650000e-01    1.750000e+00
 TN2dh  SC5v  1 3.660000e-01    1.600000e+00
 TN2dh  SC4v  1 3.660000e-01    1.600000e+00
 TN2dh  SC3v  1 3.660000e-01    1.600000e+00
 TN2dh  SC2v  1 3.780000e-01    1.450000e+00
 TN2dh  SC1v  1 3.940000e-01    1.290000e+00
 TN2dh  SX4v  1 3.650000e-01    1.910000e+00
 TN2dh  SX3v  1 3.650000e-01    1.750000e+00
 TN2dh  SX2v  1 3.660000e-01    1.600000e+00
 TN2dh  SX1v  1 3.660000e-01    1.600000e+00
 TN2dh  SN1q  1 3.650000e-01    2.340000e+00
 TN2dh  SC6q  1 3.650000e-01    2.340000e+00
 TN2dh  SC5q  1 3.650000e-01    2.110000e+00
 TN2dh  SC4q  1 3.650000e-01    2.110000e+00
 TN2dh  SC3q  1 3.650000e-01    2.110000e+00
 TN2dh  SC2q  1 3.650000e-01    1.910000e+00
 TN2dh  SC1q  1 3.650000e-01    1.750000e+00
 TN2dh  SX4q  1 3.650000e-01    2.570000e+00
 TN2dh  SX3q  1 3.650000e-01    2.340000e+00
 TN2dh  SX2q  1 3.650000e-01    2.110000e+00
 TN2dh  SX1q  1 3.650000e-01    2.110000e+00
 TN1dh  SN1a  1 3.650000e-01    2.340000e+00
 TN1dh  SC6e  1 3.650000e-01    2.340000e+00
 TN1dh  SC5e  1 3.650000e-01    2.110000e+00
 TN1dh  SC4e  1 3.650000e-01    2.110000e+00
 TN1dh  SC3e  1 3.650000e-01    1.910000e+00
 TN1dh  SC2e  1 3.650000e-01    1.750000e+00
 TN1dh  SC1e  1 3.660000e-01    1.600000e+00
 TN1dh  SX4e  1 3.650000e-01    2.110000e+00
 TN1dh  SX3e  1 3.650000e-01    2.110000e+00
 TN1dh  SX2e  1 3.650000e-01    1.910000e+00
 TN1dh  SX1e  1 3.650000e-01    1.910000e+00
 TN1dh  SC6v  1 3.650000e-01    1.910000e+00
 TN1dh  SC5v  1 3.650000e-01    1.750000e+00
 TN1dh  SC4v  1 3.650000e-01    1.750000e+00
 TN1dh  SC3v  1 3.660000e-01    1.600000e+00
 TN1dh  SC2v  1 3.780000e-01    1.450000e+00
 TN1dh  SC1v  1 3.940000e-01    1.290000e+00
 TN1dh  SX4v  1 3.650000e-01    1.750000e+00
 TN1dh  SX3v  1 3.650000e-01    1.750000e+00
 TN1dh  SX2v  1 3.660000e-01    1.600000e+00
 TN1dh  SX1v  1 3.660000e-01    1.600000e+00
 TN1dh  SC6q  1 3.650000e-01    2.570000e+00
 TN1dh  SC5q  1 3.650000e-01    2.340000e+00
 TN1dh  SC4q  1 3.650000e-01    2.340000e+00
 TN1dh  SC3q  1 3.650000e-01    2.110000e+00
 TN1dh  SC2q  1 3.650000e-01    1.910000e+00
 TN1dh  SC1q  1 3.650000e-01    1.750000e+00
 TN1dh  SX4q  1 3.650000e-01    2.340000e+00
 TN1dh  SX3q  1 3.650000e-01    2.340000e+00
 TN1dh  SX2q  1 3.650000e-01    2.110000e+00
 TN1dh  SX1q  1 3.650000e-01    2.110000e+00
 TP6ah  SP5a  1 3.650000e-01    3.370000e+00
 TP6ah  SP4a  1 3.650000e-01    3.100000e+00
 TP6ah  SP3a  1 3.650000e-01    2.830000e+00
 TP6ah  SP2a  1 3.650000e-01    2.830000e+00
 TP6ah  SP1a  1 3.650000e-01    2.570000e+00
 TP6ah  SN6a  1 3.650000e-01    2.340000e+00
 TP6ah  SN5a  1 3.650000e-01    1.910000e+00
 TP6ah  SN4a  1 3.650000e-01    1.750000e+00
 TP6ah  SN3a  1 3.650000e-01    1.750000e+00
 TP6ah  SN2a  1 3.660000e-01    1.600000e+00
 TP6ah  SN1a  1 3.780000e-01    1.450000e+00
 TP6ah  SC6v  1 3.660000e-01    1.600000e+00
 TP6ah  SC5v  1 3.780000e-01    1.450000e+00
 TP6ah  SC4v  1 3.940000e-01    1.290000e+00
 TP6ah  SC3v  1 4.040000e-01    1.130000e+00
 TP6ah  SC2v  1 4.040000e-01    1.130000e+00
 TP6ah  SC1v  1 4.230000e-01    9.810000e-01
 TP6ah  SX4v  1 3.650000e-01    1.750000e+00
 TP6ah  SX3v  1 3.650000e-01    1.750000e+00
 TP6ah  SX2v  1 3.660000e-01    1.600000e+00
 TP6ah  SX1v  1 3.780000e-01    1.450000e+00
 TP6ah  SC6e  1 3.940000e-01    1.290000e+00
 TP6ah  SC5e  1 4.040000e-01    1.130000e+00
 TP6ah  SC4e  1 4.090000e-01    1.080000e+00
 TP6ah  SC3e  1 4.230000e-01    9.810000e-01
 TP6ah  SC2e  1 4.230000e-01    9.810000e-01
 TP6ah  SC1e  1 5.370000e-01    8.080000e-01
 TP6ah  SX4e  1 3.780000e-01    1.450000e+00
 TP6ah  SX3e  1 3.780000e-01    1.450000e+00
 TP6ah  SX2e  1 3.940000e-01    1.290000e+00
 TP6ah  SX1e  1 4.040000e-01    1.130000e+00
 TP6ah  SP5q  1 3.650000e-01    4.220000e+00
 TP6ah  SP4q  1 3.650000e-01    3.930000e+00
 TP6ah  SP3q  1 3.650000e-01    3.640000e+00
 TP6ah  SP2q  1 3.650000e-01    3.640000e+00
 TP6ah  SP1q  1 3.650000e-01    3.370000e+00
 TP6ah  SN6q  1 3.650000e-01    3.100000e+00
 TP6ah  SN5q  1 3.650000e-01    2.570000e+00
 TP6ah  SN4q  1 3.650000e-01    2.340000e+00
 TP6ah  SN3q  1 3.650000e-01    2.110000e+00
 TP6ah  SN2q  1 3.650000e-01    1.910000e+00
 TP6ah  SN1q  1 3.650000e-01    1.750000e+00
 TP6ah  SC6q  1 3.650000e-01    1.750000e+00
 TP6ah  SC5q  1 3.660000e-01    1.600000e+00
 TP6ah  SC4q  1 3.780000e-01    1.450000e+00
 TP6ah  SC3q  1 3.940000e-01    1.290000e+00
 TP6ah  SC2q  1 3.940000e-01    1.290000e+00
 TP6ah  SC1q  1 4.090000e-01    1.080000e+00
 TP6ah  SX4q  1 3.650000e-01    1.910000e+00
 TP6ah  SX3q  1 3.650000e-01    1.910000e+00
 TP6ah  SX2q  1 3.650000e-01    1.750000e+00
 TP6ah  SX1q  1 3.660000e-01    1.600000e+00
 TP5ah  SP4a  1 3.650000e-01    2.830000e+00
 TP5ah  SP3a  1 3.650000e-01    2.570000e+00
 TP5ah  SP2a  1 3.650000e-01    2.570000e+00
 TP5ah  SP1a  1 3.650000e-01    2.340000e+00
 TP5ah  SN6a  1 3.650000e-01    2.110000e+00
 TP5ah  SN5a  1 3.650000e-01    1.910000e+00
 TP5ah  SN4a  1 3.650000e-01    1.910000e+00
 TP5ah  SN3a  1 3.650000e-01    1.750000e+00
 TP5ah  SN2a  1 3.660000e-01    1.600000e+00
 TP5ah  SN1a  1 3.780000e-01    1.450000e+00
 TP5ah  SC6v  1 3.660000e-01    1.600000e+00
 TP5ah  SC5v  1 3.660000e-01    1.600000e+00
 TP5ah  SC4v  1 3.780000e-01    1.450000e+00
 TP5ah  SC3v  1 3.940000e-01    1.290000e+00
 TP5ah  SC2v  1 3.940000e-01    1.290000e+00
 TP5ah  SC1v  1 4.040000e-01    1.130000e+00
 TP5ah  SX4v  1 3.650000e-01    1.910000e+00
 TP5ah  SX3v  1 3.650000e-01    1.750000e+00
 TP5ah  SX2v  1 3.650000e-01    1.750000e+00
 TP5ah  SX1v  1 3.780000e-01    1.450000e+00
 TP5ah  SC6e  1 3.940000e-01    1.290000e+00
 TP5ah  SC5e  1 3.940000e-01    1.290000e+00
 TP5ah  SC4e  1 4.040000e-01    1.130000e+00
 TP5ah  SC3e  1 4.090000e-01    1.080000e+00
 TP5ah  SC2e  1 4.090000e-01    1.080000e+00
 TP5ah  SC1e  1 4.230000e-01    9.810000e-01
 TP5ah  SX4e  1 3.660000e-01    1.600000e+00
 TP5ah  SX3e  1 3.780000e-01    1.450000e+00
 TP5ah  SX2e  1 3.780000e-01    1.450000e+00
 TP5ah  SX1e  1 4.040000e-01    1.130000e+00
 TP5ah  SP4q  1 3.650000e-01    3.640000e+00
 TP5ah  SP3q  1 3.650000e-01    3.370000e+00
 TP5ah  SP2q  1 3.650000e-01    3.370000e+00
 TP5ah  SP1q  1 3.650000e-01    3.100000e+00
 TP5ah  SN6q  1 3.650000e-01    2.830000e+00
 TP5ah  SN5q  1 3.650000e-01    2.570000e+00
 TP5ah  SN4q  1 3.650000e-01    2.570000e+00
 TP5ah  SN3q  1 3.650000e-01    2.110000e+00
 TP5ah  SN2q  1 3.650000e-01    1.910000e+00
 TP5ah  SN1q  1 3.650000e-01    1.750000e+00
 TP5ah  SC6q  1 3.650000e-01    1.750000e+00
 TP5ah  SC5q  1 3.650000e-01    1.750000e+00
 TP5ah  SC4q  1 3.660000e-01    1.600000e+00
 TP5ah  SC3q  1 3.780000e-01    1.450000e+00
 TP5ah  SC2q  1 3.780000e-01    1.450000e+00
 TP5ah  SC1q  1 3.940000e-01    1.290000e+00
 TP5ah  SX4q  1 3.650000e-01    2.110000e+00
 TP5ah  SX3q  1 3.650000e-01    1.910000e+00
 TP5ah  SX2q  1 3.650000e-01    1.910000e+00
 TP5ah  SX1q  1 3.660000e-01    1.600000e+00
 TP4ah  SP3a  1 3.650000e-01    2.570000e+00
 TP4ah  SP2a  1 3.650000e-01    2.570000e+00
 TP4ah  SP1a  1 3.650000e-01    2.340000e+00
 TP4ah  SN6a  1 3.650000e-01    2.110000e+00
 TP4ah  SN5a  1 3.650000e-01    1.910000e+00
 TP4ah  SN4a  1 3.650000e-01    1.910000e+00
 TP4ah  SN3a  1 3.650000e-01    1.750000e+00
 TP4ah  SN2a  1 3.650000e-01    1.750000e+00
 TP4ah  SN1a  1 3.660000e-01    1.600000e+00
 TP4ah  SC6v  1 3.650000e-01    1.750000e+00
 TP4ah  SC5v  1 3.660000e-01    1.600000e+00
 TP4ah  SC4v  1 3.780000e-01    1.450000e+00
 TP4ah  SC3v  1 3.940000e-01    1.290000e+00
 TP4ah  SC2v  1 3.940000e-01    1.290000e+00
 TP4ah  SC1v  1 4.040000e-01    1.130000e+00
 TP4ah  SX4v  1 3.650000e-01    1.910000e+00
 TP4ah  SX3v  1 3.650000e-01    1.750000e+00
 TP4ah  SX2v  1 3.650000e-01    1.750000e+00
 TP4ah  SX1v  1 3.660000e-01    1.600000e+00
 TP4ah  SC6e  1 3.780000e-01    1.450000e+00
 TP4ah  SC5e  1 3.940000e-01    1.290000e+00
 TP4ah  SC4e  1 4.040000e-01    1.130000e+00
 TP4ah  SC3e  1 4.090000e-01    1.080000e+00
 TP4ah  SC2e  1 4.090000e-01    1.080000e+00
 TP4ah  SC1e  1 4.230000e-01    9.810000e-01
 TP4ah  SX4e  1 3.660000e-01    1.600000e+00
 TP4ah  SX3e  1 3.780000e-01    1.450000e+00
 TP4ah  SX2e  1 3.780000e-01    1.450000e+00
 TP4ah  SX1e  1 3.940000e-01    1.290000e+00
 TP4ah  SP3q  1 3.650000e-01    3.370000e+00
 TP4ah  SP2q  1 3.650000e-01    3.370000e+00
 TP4ah  SP1q  1 3.650000e-01    3.100000e+00
 TP4ah  SN6q  1 3.650000e-01    2.830000e+00
 TP4ah  SN5q  1 3.650000e-01    2.570000e+00
 TP4ah  SN4q  1 3.650000e-01    2.570000e+00
 TP4ah  SN3q  1 3.650000e-01    2.340000e+00
 TP4ah  SN2q  1 3.650000e-01    2.110000e+00
 TP4ah  SN1q  1 3.650000e-01    1.910000e+00
 TP4ah  SC6q  1 3.650000e-01    1.910000e+00
 TP4ah  SC5q  1 3.650000e-01    1.750000e+00
 TP4ah  SC4q  1 3.660000e-01    1.600000e+00
 TP4ah  SC3q  1 3.780000e-01    1.450000e+00
 TP4ah  SC2q  1 3.780000e-01    1.450000e+00
 TP4ah  SC1q  1 3.940000e-01    1.290000e+00
 TP4ah  SX4q  1 3.650000e-01    2.110000e+00
 TP4ah  SX3q  1 3.650000e-01    1.910000e+00
 TP4ah  SX2q  1 3.650000e-01    1.910000e+00
 TP4ah  SX1q  1 3.650000e-01    1.750000e+00
 TP3ah  SP2a  1 3.650000e-01    2.570000e+00
 TP3ah  SP1a  1 3.650000e-01    2.340000e+00
 TP3ah  SN6a  1 3.650000e-01    2.110000e+00
 TP3ah  SN5a  1 3.650000e-01    1.910000e+00
 TP3ah  SN4a  1 3.650000e-01    1.910000e+00
 TP3ah  SN3a  1 3.650000e-01    1.750000e+00
 TP3ah  SN2a  1 3.650000e-01    1.750000e+00
 TP3ah  SN1a  1 3.650000e-01    1.750000e+00
 TP3ah  SC6v  1 3.650000e-01    1.910000e+00
 TP3ah  SC5v  1 3.650000e-01    1.750000e+00
 TP3ah  SC4v  1 3.660000e-01    1.600000e+00
 TP3ah  SC3v  1 3.940000e-01    1.290000e+00
 TP3ah  SC2v  1 3.940000e-01    1.290000e+00
 TP3ah  SC1v  1 4.040000e-01    1.130000e+00
 TP3ah  SX4v  1 3.650000e-01    1.910000e+00
 TP3ah  SX3v  1 3.650000e-01    1.910000e+00
 TP3ah  SX2v  1 3.650000e-01    1.750000e+00
 TP3ah  SX1v  1 3.660000e-01    1.600000e+00
 TP3ah  SC6e  1 3.660000e-01    1.600000e+00
 TP3ah  SC5e  1 3.780000e-01    1.450000e+00
 TP3ah  SC4e  1 3.940000e-01    1.290000e+00
 TP3ah  SC3e  1 4.090000e-01    1.080000e+00
 TP3ah  SC2e  1 4.090000e-01    1.080000e+00
 TP3ah  SC1e  1 4.230000e-01    9.810000e-01
 TP3ah  SX4e  1 3.660000e-01    1.600000e+00
 TP3ah  SX3e  1 3.660000e-01    1.600000e+00
 TP3ah  SX2e  1 3.780000e-01    1.450000e+00
 TP3ah  SX1e  1 3.940000e-01    1.290000e+00
 TP3ah  SP2q  1 3.650000e-01    3.370000e+00
 TP3ah  SP1q  1 3.650000e-01    3.100000e+00
 TP3ah  SN6q  1 3.650000e-01    2.830000e+00
 TP3ah  SN5q  1 3.650000e-01    2.570000e+00
 TP3ah  SN4q  1 3.650000e-01    2.570000e+00
 TP3ah  SN3q  1 3.650000e-01    2.340000e+00
 TP3ah  SN2q  1 3.650000e-01    2.340000e+00
 TP3ah  SN1q  1 3.650000e-01    2.110000e+00
 TP3ah  SC6q  1 3.650000e-01    2.110000e+00
 TP3ah  SC5q  1 3.650000e-01    1.910000e+00
 TP3ah  SC4q  1 3.650000e-01    1.750000e+00
 TP3ah  SC3q  1 3.780000e-01    1.450000e+00
 TP3ah  SC2q  1 3.780000e-01    1.450000e+00
 TP3ah  SC1q  1 3.940000e-01    1.290000e+00
 TP3ah  SX4q  1 3.650000e-01    2.110000e+00
 TP3ah  SX3q  1 3.650000e-01    2.110000e+00
 TP3ah  SX2q  1 3.650000e-01    1.910000e+00
 TP3ah  SX1q  1 3.650000e-01    1.750000e+00
 TP2ah  SP1a  1 3.650000e-01    2.340000e+00
 TP2ah  SN6a  1 3.650000e-01    2.340000e+00
 TP2ah  SN5a  1 3.650000e-01    2.110000e+00
 TP2ah  SN4a  1 3.650000e-01    1.910000e+00
 TP2ah  SN3a  1 3.650000e-01    1.750000e+00
 TP2ah  SN2a  1 3.650000e-01    1.750000e+00
 TP2ah  SN1a  1 3.650000e-01    1.750000e+00
 TP2ah  SC6v  1 3.650000e-01    1.910000e+00
 TP2ah  SC5v  1 3.650000e-01    1.750000e+00
 TP2ah  SC4v  1 3.660000e-01    1.600000e+00
 TP2ah  SC3v  1 3.780000e-01    1.450000e+00
 TP2ah  SC2v  1 3.780000e-01    1.450000e+00
 TP2ah  SC1v  1 3.940000e-01    1.290000e+00
 TP2ah  SX4v  1 3.650000e-01    1.910000e+00
 TP2ah  SX3v  1 3.650000e-01    1.910000e+00
 TP2ah  SX2v  1 3.650000e-01    1.750000e+00
 TP2ah  SX1v  1 3.660000e-01    1.600000e+00
 TP2ah  SC6e  1 3.660000e-01    1.600000e+00
 TP2ah  SC5e  1 3.780000e-01    1.450000e+00
 TP2ah  SC4e  1 3.940000e-01    1.290000e+00
 TP2ah  SC3e  1 4.040000e-01    1.130000e+00
 TP2ah  SC2e  1 4.040000e-01    1.130000e+00
 TP2ah  SC1e  1 4.090000e-01    1.080000e+00
 TP2ah  SX4e  1 3.660000e-01    1.600000e+00
 TP2ah  SX3e  1 3.660000e-01    1.600000e+00
 TP2ah  SX2e  1 3.780000e-01    1.450000e+00
 TP2ah  SX1e  1 3.940000e-01    1.290000e+00
 TP2ah  SP1q  1 3.650000e-01    3.100000e+00
 TP2ah  SN6q  1 3.650000e-01    3.100000e+00
 TP2ah  SN5q  1 3.650000e-01    2.830000e+00
 TP2ah  SN4q  1 3.650000e-01    2.570000e+00
 TP2ah  SN3q  1 3.650000e-01    2.340000e+00
 TP2ah  SN2q  1 3.650000e-01    2.340000e+00
 TP2ah  SN1q  1 3.650000e-01    2.340000e+00
 TP2ah  SC6q  1 3.650000e-01    2.110000e+00
 TP2ah  SC5q  1 3.650000e-01    1.910000e+00
 TP2ah  SC4q  1 3.650000e-01    1.750000e+00
 TP2ah  SC3q  1 3.660000e-01    1.600000e+00
 TP2ah  SC2q  1 3.660000e-01    1.600000e+00
 TP2ah  SC1q  1 3.780000e-01    1.450000e+00
 TP2ah  SX4q  1 3.650000e-01    2.110000e+00
 TP2ah  SX3q  1 3.650000e-01    2.110000e+00
 TP2ah  SX2q  1 3.650000e-01    1.910000e+00
 TP2ah  SX1q  1 3.650000e-01    1.750000e+00
 TP1ah  SN6a  1 3.650000e-01    2.340000e+00
 TP1ah  SN5a  1 3.650000e-01    2.110000e+00
 TP1ah  SN4a  1 3.650000e-01    2.110000e+00
 TP1ah  SN3a  1 3.650000e-01    1.750000e+00
 TP1ah  SN2a  1 3.650000e-01    1.750000e+00
 TP1ah  SN1a  1 3.650000e-01    1.750000e+00
 TP1ah  SC6v  1 3.650000e-01    1.910000e+00
 TP1ah  SC5v  1 3.650000e-01    1.750000e+00
 TP1ah  SC4v  1 3.660000e-01    1.600000e+00
 TP1ah  SC3v  1 3.780000e-01    1.450000e+00
 TP1ah  SC2v  1 3.780000e-01    1.450000e+00
 TP1ah  SC1v  1 3.940000e-01    1.290000e+00
 TP1ah  SX4v  1 3.650000e-01    1.910000e+00
 TP1ah  SX3v  1 3.650000e-01    1.910000e+00
 TP1ah  SX2v  1 3.650000e-01    1.750000e+00
 TP1ah  SX1v  1 3.660000e-01    1.600000e+00
 TP1ah  SC6e  1 3.660000e-01    1.600000e+00
 TP1ah  SC5e  1 3.780000e-01    1.450000e+00
 TP1ah  SC4e  1 3.940000e-01    1.290000e+00
 TP1ah  SC3e  1 4.040000e-01    1.130000e+00
 TP1ah  SC2e  1 4.040000e-01    1.130000e+00
 TP1ah  SC1e  1 4.090000e-01    1.080000e+00
 TP1ah  SX4e  1 3.660000e-01    1.600000e+00
 TP1ah  SX3e  1 3.660000e-01    1.600000e+00
 TP1ah  SX2e  1 3.780000e-01    1.450000e+00
 TP1ah  SX1e  1 3.940000e-01    1.290000e+00
 TP1ah  SN6q  1 3.650000e-01    3.100000e+00
 TP1ah  SN5q  1 3.650000e-01    2.830000e+00
 TP1ah  SN4q  1 3.650000e-01    2.830000e+00
 TP1ah  SN3q  1 3.650000e-01    2.340000e+00
 TP1ah  SN2q  1 3.650000e-01    2.340000e+00
 TP1ah  SN1q  1 3.650000e-01    2.340000e+00
 TP1ah  SC6q  1 3.650000e-01    2.110000e+00
 TP1ah  SC5q  1 3.650000e-01    1.910000e+00
 TP1ah  SC4q  1 3.650000e-01    1.750000e+00
 TP1ah  SC3q  1 3.660000e-01    1.600000e+00
 TP1ah  SC2q  1 3.660000e-01    1.600000e+00
 TP1ah  SC1q  1 3.780000e-01    1.450000e+00
 TP1ah  SX4q  1 3.650000e-01    2.110000e+00
 TP1ah  SX3q  1 3.650000e-01    2.110000e+00
 TP1ah  SX2q  1 3.650000e-01    1.910000e+00
 TP1ah  SX1q  1 3.650000e-01    1.750000e+00
 TN6ah  SN5a  1 3.650000e-01    2.340000e+00
 TN6ah  SN4a  1 3.650000e-01    2.340000e+00
 TN6ah  SN3a  1 3.650000e-01    1.910000e+00
 TN6ah  SN2a  1 3.650000e-01    1.750000e+00
 TN6ah  SN1a  1 3.650000e-01    1.750000e+00
 TN6ah  SC6v  1 3.650000e-01    2.110000e+00
 TN6ah  SC5v  1 3.650000e-01    1.910000e+00
 TN6ah  SC4v  1 3.650000e-01    1.750000e+00
 TN6ah  SC3v  1 3.660000e-01    1.600000e+00
 TN6ah  SC2v  1 3.660000e-01    1.600000e+00
 TN6ah  SC1v  1 3.780000e-01    1.450000e+00
 TN6ah  SX4v  1 3.650000e-01    2.110000e+00
 TN6ah  SX3v  1 3.650000e-01    1.910000e+00
 TN6ah  SX2v  1 3.650000e-01    1.750000e+00
 TN6ah  SX1v  1 3.660000e-01    1.600000e+00
 TN6ah  SC6e  1 3.650000e-01    1.750000e+00
 TN6ah  SC5e  1 3.660000e-01    1.600000e+00
 TN6ah  SC4e  1 3.780000e-01    1.450000e+00
 TN6ah  SC3e  1 3.940000e-01    1.290000e+00
 TN6ah  SC2e  1 3.940000e-01    1.290000e+00
 TN6ah  SC1e  1 4.040000e-01    1.130000e+00
 TN6ah  SX4e  1 3.650000e-01    1.750000e+00
 TN6ah  SX3e  1 3.660000e-01    1.600000e+00
 TN6ah  SX2e  1 3.780000e-01    1.450000e+00
 TN6ah  SX1e  1 3.940000e-01    1.290000e+00
 TN6ah  SN5q  1 3.650000e-01    3.100000e+00
 TN6ah  SN4q  1 3.650000e-01    3.100000e+00
 TN6ah  SN3q  1 3.650000e-01    2.570000e+00
 TN6ah  SN2q  1 3.650000e-01    2.340000e+00
 TN6ah  SN1q  1 3.650000e-01    2.340000e+00
 TN6ah  SC6q  1 3.650000e-01    2.340000e+00
 TN6ah  SC5q  1 3.650000e-01    2.110000e+00
 TN6ah  SC4q  1 3.650000e-01    1.910000e+00
 TN6ah  SC3q  1 3.650000e-01    1.750000e+00
 TN6ah  SC2q  1 3.650000e-01    1.750000e+00
 TN6ah  SC1q  1 3.660000e-01    1.600000e+00
 TN6ah  SX4q  1 3.650000e-01    2.340000e+00
 TN6ah  SX3q  1 3.650000e-01    2.110000e+00
 TN6ah  SX2q  1 3.650000e-01    1.910000e+00
 TN6ah  SX1q  1 3.650000e-01    1.750000e+00
 TN5ah  SN4a  1 3.650000e-01    2.110000e+00
 TN5ah  SN3a  1 3.650000e-01    1.910000e+00
 TN5ah  SN2a  1 3.650000e-01    1.910000e+00
 TN5ah  SN1a  1 3.650000e-01    1.750000e+00
 TN5ah  SC6v  1 3.650000e-01    2.110000e+00
 TN5ah  SC5v  1 3.650000e-01    1.910000e+00
 TN5ah  SC4v  1 3.650000e-01    1.750000e+00
 TN5ah  SC3v  1 3.650000e-01    1.750000e+00
 TN5ah  SC2v  1 3.660000e-01    1.600000e+00
 TN5ah  SC1v  1 3.780000e-01    1.450000e+00
 TN5ah  SX4v  1 3.650000e-01    2.340000e+00
 TN5ah  SX3v  1 3.650000e-01    2.110000e+00
 TN5ah  SX2v  1 3.650000e-01    1.910000e+00
 TN5ah  SX1v  1 3.650000e-01    1.750000e+00
 TN5ah  SC6e  1 3.650000e-01    1.750000e+00
 TN5ah  SC5e  1 3.660000e-01    1.600000e+00
 TN5ah  SC4e  1 3.780000e-01    1.450000e+00
 TN5ah  SC3e  1 3.780000e-01    1.450000e+00
 TN5ah  SC2e  1 3.940000e-01    1.290000e+00
 TN5ah  SC1e  1 4.040000e-01    1.130000e+00
 TN5ah  SX4e  1 3.650000e-01    1.910000e+00
 TN5ah  SX3e  1 3.650000e-01    1.750000e+00
 TN5ah  SX2e  1 3.660000e-01    1.600000e+00
 TN5ah  SX1e  1 3.780000e-01    1.450000e+00
 TN5ah  SN4q  1 3.650000e-01    2.830000e+00
 TN5ah  SN3q  1 3.650000e-01    2.570000e+00
 TN5ah  SN2q  1 3.650000e-01    2.570000e+00
 TN5ah  SN1q  1 3.650000e-01    2.340000e+00
 TN5ah  SC6q  1 3.650000e-01    2.340000e+00
 TN5ah  SC5q  1 3.650000e-01    2.110000e+00
 TN5ah  SC4q  1 3.650000e-01    1.910000e+00
 TN5ah  SC3q  1 3.650000e-01    1.910000e+00
 TN5ah  SC2q  1 3.650000e-01    1.750000e+00
 TN5ah  SC1q  1 3.660000e-01    1.600000e+00
 TN5ah  SX4q  1 3.650000e-01    2.570000e+00
 TN5ah  SX3q  1 3.650000e-01    2.340000e+00
 TN5ah  SX2q  1 3.650000e-01    2.110000e+00
 TN5ah  SX1q  1 3.650000e-01    1.910000e+00
 TN4ah  SN3a  1 3.650000e-01    1.910000e+00
 TN4ah  SN2a  1 3.650000e-01    1.910000e+00
 TN4ah  SN1a  1 3.650000e-01    1.750000e+00
 TN4ah  SC6v  1 3.650000e-01    2.110000e+00
 TN4ah  SC5v  1 3.650000e-01    1.910000e+00
 TN4ah  SC4v  1 3.650000e-01    1.910000e+00
 TN4ah  SC3v  1 3.650000e-01    1.750000e+00
 TN4ah  SC2v  1 3.660000e-01    1.600000e+00
 TN4ah  SC1v  1 3.780000e-01    1.450000e+00
 TN4ah  SX4v  1 3.650000e-01    2.570000e+00
 TN4ah  SX3v  1 3.650000e-01    2.340000e+00
 TN4ah  SX2v  1 3.650000e-01    1.910000e+00
 TN4ah  SX1v  1 3.650000e-01    1.750000e+00
 TN4ah  SC6e  1 3.650000e-01    1.750000e+00
 TN4ah  SC5e  1 3.660000e-01    1.600000e+00
 TN4ah  SC4e  1 3.660000e-01    1.600000e+00
 TN4ah  SC3e  1 3.780000e-01    1.450000e+00
 TN4ah  SC2e  1 3.940000e-01    1.290000e+00
 TN4ah  SC1e  1 4.040000e-01    1.130000e+00
 TN4ah  SX4e  1 3.650000e-01    2.110000e+00
 TN4ah  SX3e  1 3.650000e-01    1.910000e+00
 TN4ah  SX2e  1 3.660000e-01    1.600000e+00
 TN4ah  SX1e  1 3.780000e-01    1.450000e+00
 TN4ah  SN3q  1 3.650000e-01    2.570000e+00
 TN4ah  SN2q  1 3.650000e-01    2.570000e+00
 TN4ah  SN1q  1 3.650000e-01    2.340000e+00
 TN4ah  SC6q  1 3.650000e-01    2.340000e+00
 TN4ah  SC5q  1 3.650000e-01    2.110000e+00
 TN4ah  SC4q  1 3.650000e-01    2.110000e+00
 TN4ah  SC3q  1 3.650000e-01    1.910000e+00
 TN4ah  SC2q  1 3.650000e-01    1.750000e+00
 TN4ah  SC1q  1 3.660000e-01    1.600000e+00
 TN4ah  SX4q  1 3.650000e-01    2.830000e+00
 TN4ah  SX3q  1 3.650000e-01    2.570000e+00
 TN4ah  SX2q  1 3.650000e-01    2.110000e+00
 TN4ah  SX1q  1 3.650000e-01    1.910000e+00
 TN3ah  SN2a  1 3.650000e-01    1.910000e+00
 TN3ah  SN1a  1 3.650000e-01    1.750000e+00
 TN3ah  SC6v  1 3.650000e-01    2.110000e+00
 TN3ah  SC5v  1 3.650000e-01    1.910000e+00
 TN3ah  SC4v  1 3.650000e-01    1.910000e+00
 TN3ah  SC3v  1 3.650000e-01    1.750000e+00
 TN3ah  SC2v  1 3.650000e-01    1.750000e+00
 TN3ah  SC1v  1 3.660000e-01    1.600000e+00
 TN3ah  SX4v  1 3.650000e-01    2.340000e+00
 TN3ah  SX3v  1 3.650000e-01    2.110000e+00
 TN3ah  SX2v  1 3.650000e-01    1.910000e+00
 TN3ah  SX1v  1 3.650000e-01    1.910000e+00
 TN3ah  SC6e  1 3.650000e-01    1.750000e+00
 TN3ah  SC5e  1 3.660000e-01    1.600000e+00
 TN3ah  SC4e  1 3.660000e-01    1.600000e+00
 TN3ah  SC3e  1 3.780000e-01    1.450000e+00
 TN3ah  SC2e  1 3.780000e-01    1.450000e+00
 TN3ah  SC1e  1 3.940000e-01    1.290000e+00
 TN3ah  SX4e  1 3.650000e-01    1.910000e+00
 TN3ah  SX3e  1 3.650000e-01    1.750000e+00
 TN3ah  SX2e  1 3.660000e-01    1.600000e+00
 TN3ah  SX1e  1 3.660000e-01    1.600000e+00
 TN3ah  SN2q  1 3.650000e-01    2.570000e+00
 TN3ah  SN1q  1 3.650000e-01    2.340000e+00
 TN3ah  SC6q  1 3.650000e-01    2.340000e+00
 TN3ah  SC5q  1 3.650000e-01    2.110000e+00
 TN3ah  SC4q  1 3.650000e-01    2.110000e+00
 TN3ah  SC3q  1 3.650000e-01    1.910000e+00
 TN3ah  SC2q  1 3.650000e-01    1.910000e+00
 TN3ah  SC1q  1 3.650000e-01    1.750000e+00
 TN3ah  SX4q  1 3.650000e-01    2.570000e+00
 TN3ah  SX3q  1 3.650000e-01    2.340000e+00
 TN3ah  SX2q  1 3.650000e-01    2.110000e+00
 TN3ah  SX1q  1 3.650000e-01    2.110000e+00
 TN2ah  SN1a  1 3.650000e-01    1.750000e+00
 TN2ah  SC6v  1 3.650000e-01    2.110000e+00
 TN2ah  SC5v  1 3.650000e-01    1.910000e+00
 TN2ah  SC4v  1 3.650000e-01    1.910000e+00
 TN2ah  SC3v  1 3.650000e-01    1.910000e+00
 TN2ah  SC2v  1 3.650000e-01    1.750000e+00
 TN2ah  SC1v  1 3.660000e-01    1.600000e+00
 TN2ah  SX4v  1 3.650000e-01    2.340000e+00
 TN2ah  SX3v  1 3.650000e-01    2.110000e+00
 TN2ah  SX2v  1 3.650000e-01    1.910000e+00
 TN2ah  SX1v  1 3.650000e-01    1.910000e+00
 TN2ah  SC6e  1 3.650000e-01    1.750000e+00
 TN2ah  SC5e  1 3.660000e-01    1.600000e+00
 TN2ah  SC4e  1 3.660000e-01    1.600000e+00
 TN2ah  SC3e  1 3.660000e-01    1.600000e+00
 TN2ah  SC2e  1 3.780000e-01    1.450000e+00
 TN2ah  SC1e  1 3.940000e-01    1.290000e+00
 TN2ah  SX4e  1 3.650000e-01    1.910000e+00
 TN2ah  SX3e  1 3.650000e-01    1.750000e+00
 TN2ah  SX2e  1 3.660000e-01    1.600000e+00
 TN2ah  SX1e  1 3.660000e-01    1.600000e+00
 TN2ah  SN1q  1 3.650000e-01    2.340000e+00
 TN2ah  SC6q  1 3.650000e-01    2.340000e+00
 TN2ah  SC5q  1 3.650000e-01    2.110000e+00
 TN2ah  SC4q  1 3.650000e-01    2.110000e+00
 TN2ah  SC3q  1 3.650000e-01    2.110000e+00
 TN2ah  SC2q  1 3.650000e-01    1.910000e+00
 TN2ah  SC1q  1 3.650000e-01    1.750000e+00
 TN2ah  SX4q  1 3.650000e-01    2.570000e+00
 TN2ah  SX3q  1 3.650000e-01    2.340000e+00
 TN2ah  SX2q  1 3.650000e-01    2.110000e+00
 TN2ah  SX1q  1 3.650000e-01    2.110000e+00
 TN1ah  SC6v  1 3.650000e-01    2.340000e+00
 TN1ah  SC5v  1 3.650000e-01    2.110000e+00
 TN1ah  SC4v  1 3.650000e-01    2.110000e+00
 TN1ah  SC3v  1 3.650000e-01    1.910000e+00
 TN1ah  SC2v  1 3.650000e-01    1.750000e+00
 TN1ah  SC1v  1 3.660000e-01    1.600000e+00
 TN1ah  SX4v  1 3.650000e-01    2.110000e+00
 TN1ah  SX3v  1 3.650000e-01    2.110000e+00
 TN1ah  SX2v  1 3.650000e-01    1.910000e+00
 TN1ah  SX1v  1 3.650000e-01    1.910000e+00
 TN1ah  SC6e  1 3.650000e-01    1.910000e+00
 TN1ah  SC5e  1 3.650000e-01    1.750000e+00
 TN1ah  SC4e  1 3.650000e-01    1.750000e+00
 TN1ah  SC3e  1 3.660000e-01    1.600000e+00
 TN1ah  SC2e  1 3.780000e-01    1.450000e+00
 TN1ah  SC1e  1 3.940000e-01    1.290000e+00
 TN1ah  SX4e  1 3.650000e-01    1.750000e+00
 TN1ah  SX3e  1 3.650000e-01    1.750000e+00
 TN1ah  SX2e  1 3.660000e-01    1.600000e+00
 TN1ah  SX1e  1 3.660000e-01    1.600000e+00
 TN1ah  SC6q  1 3.650000e-01    2.570000e+00
 TN1ah  SC5q  1 3.650000e-01    2.340000e+00
 TN1ah  SC4q  1 3.650000e-01    2.340000e+00
 TN1ah  SC3q  1 3.650000e-01    2.110000e+00
 TN1ah  SC2q  1 3.650000e-01    1.910000e+00
 TN1ah  SC1q  1 3.650000e-01    1.750000e+00
 TN1ah  SX4q  1 3.650000e-01    2.340000e+00
 TN1ah  SX3q  1 3.650000e-01    2.340000e+00
 TN1ah  SX2q  1 3.650000e-01    2.110000e+00
 TN1ah  SX1q  1 3.650000e-01    2.110000e+00
 TC6vh  SC5v  1 3.650000e-01    1.750000e+00
 TC6vh  SC4v  1 3.650000e-01    1.750000e+00
 TC6vh  SC3v  1 3.660000e-01    1.600000e+00
 TC6vh  SC2v  1 3.780000e-01    1.450000e+00
 TC6vh  SC1v  1 3.940000e-01    1.290000e+00
 TC6vh  SX4v  1 3.650000e-01    1.750000e+00
 TC6vh  SX3v  1 3.650000e-01    1.750000e+00
 TC6vh  SX2v  1 3.650000e-01    1.750000e+00
 TC6vh  SX1v  1 3.650000e-01    1.750000e+00
 TC6vh  SC6e  1 3.650000e-01    2.570000e+00
 TC6vh  SC5e  1 3.650000e-01    2.340000e+00
 TC6vh  SC4e  1 3.650000e-01    2.340000e+00
 TC6vh  SC3e  1 3.650000e-01    2.110000e+00
 TC6vh  SC2e  1 3.650000e-01    1.910000e+00
 TC6vh  SC1e  1 3.650000e-01    1.750000e+00
 TC6vh  SX4e  1 3.650000e-01    2.340000e+00
 TC6vh  SX3e  1 3.650000e-01    2.340000e+00
 TC6vh  SX2e  1 3.650000e-01    2.340000e+00
 TC6vh  SX1e  1 3.650000e-01    2.340000e+00
 TC6vh  SC5q  1 3.650000e-01    2.570000e+00
 TC6vh  SC4q  1 3.650000e-01    2.570000e+00
 TC6vh  SC3q  1 3.650000e-01    2.340000e+00
 TC6vh  SC2q  1 3.650000e-01    2.110000e+00
 TC6vh  SC1q  1 3.650000e-01    1.910000e+00
 TC6vh  SX4q  1 3.650000e-01    2.570000e+00
 TC6vh  SX3q  1 3.650000e-01    2.570000e+00
 TC6vh  SX2q  1 3.650000e-01    2.570000e+00
 TC6vh  SX1q  1 3.650000e-01    2.570000e+00
 TC5vh  SC4v  1 3.650000e-01    1.750000e+00
 TC5vh  SC3v  1 3.660000e-01    1.600000e+00
 TC5vh  SC2v  1 3.780000e-01    1.450000e+00
 TC5vh  SC1v  1 3.780000e-01    1.450000e+00
 TC5vh  SX4v  1 3.660000e-01    1.600000e+00
 TC5vh  SX3v  1 3.660000e-01    1.600000e+00
 TC5vh  SX2v  1 3.660000e-01    1.600000e+00
 TC5vh  SX1v  1 3.650000e-01    1.750000e+00
 TC5vh  SC5e  1 3.650000e-01    2.340000e+00
 TC5vh  SC4e  1 3.650000e-01    2.340000e+00
 TC5vh  SC3e  1 3.650000e-01    2.110000e+00
 TC5vh  SC2e  1 3.650000e-01    1.910000e+00
 TC5vh  SC1e  1 3.650000e-01    1.910000e+00
 TC5vh  SX4e  1 3.650000e-01    2.110000e+00
 TC5vh  SX3e  1 3.650000e-01    2.110000e+00
 TC5vh  SX2e  1 3.650000e-01    2.110000e+00
 TC5vh  SX1e  1 3.650000e-01    2.340000e+00
 TC5vh  SC4q  1 3.650000e-01    2.570000e+00
 TC5vh  SC3q  1 3.650000e-01    2.340000e+00
 TC5vh  SC2q  1 3.650000e-01    2.110000e+00
 TC5vh  SC1q  1 3.650000e-01    2.110000e+00
 TC5vh  SX4q  1 3.650000e-01    2.340000e+00
 TC5vh  SX3q  1 3.650000e-01    2.340000e+00
 TC5vh  SX2q  1 3.650000e-01    2.340000e+00
 TC5vh  SX1q  1 3.650000e-01    2.570000e+00
 TC4vh  SC3v  1 3.650000e-01    1.750000e+00
 TC4vh  SC2v  1 3.660000e-01    1.600000e+00
 TC4vh  SC1v  1 3.780000e-01    1.450000e+00
 TC4vh  SX4v  1 3.660000e-01    1.600000e+00
 TC4vh  SX3v  1 3.660000e-01    1.600000e+00
 TC4vh  SX2v  1 3.660000e-01    1.600000e+00
 TC4vh  SX1v  1 3.650000e-01    1.750000e+00
 TC4vh  SC4e  1 3.650000e-01    2.340000e+00
 TC4vh  SC3e  1 3.650000e-01    2.340000e+00
 TC4vh  SC2e  1 3.650000e-01    2.110000e+00
 TC4vh  SC1e  1 3.650000e-01    1.910000e+00
 TC4vh  SX4e  1 3.650000e-01    2.110000e+00
 TC4vh  SX3e  1 3.650000e-01    2.110000e+00
 TC4vh  SX2e  1 3.650000e-01    2.110000e+00
 TC4vh  SX1e  1 3.650000e-01    2.340000e+00
 TC4vh  SC3q  1 3.650000e-01    2.570000e+00
 TC4vh  SC2q  1 3.650000e-01    2.340000e+00
 TC4vh  SC1q  1 3.650000e-01    2.110000e+00
 TC4vh  SX4q  1 3.650000e-01    2.340000e+00
 TC4vh  SX3q  1 3.650000e-01    2.340000e+00
 TC4vh  SX2q  1 3.650000e-01    2.340000e+00
 TC4vh  SX1q  1 3.650000e-01    2.570000e+00
 TC3vh  SC2v  1 3.650000e-01    1.750000e+00
 TC3vh  SC1v  1 3.650000e-01    1.750000e+00
 TC3vh  SX4v  1 3.660000e-01    1.600000e+00
 TC3vh  SX3v  1 3.660000e-01    1.600000e+00
 TC3vh  SX2v  1 3.660000e-01    1.600000e+00
 TC3vh  SX1v  1 3.650000e-01    1.750000e+00
 TC3vh  SC3e  1 3.650000e-01    2.340000e+00
 TC3vh  SC2e  1 3.650000e-01    2.340000e+00
 TC3vh  SC1e  1 3.650000e-01    2.340000e+00
 TC3vh  SX4e  1 3.650000e-01    2.110000e+00
 TC3vh  SX3e  1 3.650000e-01    2.110000e+00
 TC3vh  SX2e  1 3.650000e-01    2.110000e+00
 TC3vh  SX1e  1 3.650000e-01    2.340000e+00
 TC3vh  SC2q  1 3.650000e-01    2.570000e+00
 TC3vh  SC1q  1 3.650000e-01    2.570000e+00
 TC3vh  SX4q  1 3.650000e-01    2.340000e+00
 TC3vh  SX3q  1 3.650000e-01    2.340000e+00
 TC3vh  SX2q  1 3.650000e-01    2.340000e+00
 TC3vh  SX1q  1 3.650000e-01    2.570000e+00
 TC2vh  SC1v  1 3.650000e-01    1.910000e+00
 TC2vh  SX4v  1 3.940000e-01    1.290000e+00
 TC2vh  SX3v  1 3.660000e-01    1.600000e+00
 TC2vh  SX2v  1 3.660000e-01    1.600000e+00
 TC2vh  SX1v  1 3.660000e-01    1.600000e+00
 TC2vh  SC2e  1 3.650000e-01    2.340000e+00
 TC2vh  SC1e  1 3.650000e-01    2.570000e+00
 TC2vh  SX4e  1 3.650000e-01    1.750000e+00
 TC2vh  SX3e  1 3.650000e-01    2.110000e+00
 TC2vh  SX2e  1 3.650000e-01    2.110000e+00
 TC2vh  SX1e  1 3.650000e-01    2.110000e+00
 TC2vh  SC1q  1 3.650000e-01    2.830000e+00
 TC2vh  SX4q  1 3.650000e-01    1.910000e+00
 TC2vh  SX3q  1 3.650000e-01    2.340000e+00
 TC2vh  SX2q  1 3.650000e-01    2.340000e+00
 TC2vh  SX1q  1 3.650000e-01    2.340000e+00
 TC1vh  SX4v  1 3.940000e-01    1.290000e+00
 TC1vh  SX3v  1 3.660000e-01    1.600000e+00
 TC1vh  SX2v  1 3.660000e-01    1.600000e+00
 TC1vh  SX1v  1 3.660000e-01    1.600000e+00
 TC1vh  SC1e  1 3.650000e-01    2.340000e+00
 TC1vh  SX4e  1 3.650000e-01    1.750000e+00
 TC1vh  SX3e  1 3.650000e-01    2.110000e+00
 TC1vh  SX2e  1 3.650000e-01    2.110000e+00
 TC1vh  SX1e  1 3.650000e-01    2.110000e+00
 TC1vh  SX4q  1 3.650000e-01    1.910000e+00
 TC1vh  SX3q  1 3.650000e-01    2.340000e+00
 TC1vh  SX2q  1 3.650000e-01    2.340000e+00
 TC1vh  SX1q  1 3.650000e-01    2.340000e+00
 TX4vh  SX3v  1 3.650000e-01    1.750000e+00
 TX4vh  SX2v  1 3.650000e-01    1.750000e+00
 TX4vh  SX1v  1 3.650000e-01    1.750000e+00
 TX4vh  SX4e  1 3.650000e-01    2.340000e+00
 TX4vh  SX3e  1 3.650000e-01    2.340000e+00
 TX4vh  SX2e  1 3.650000e-01    2.340000e+00
 TX4vh  SX1e  1 3.650000e-01    2.340000e+00
 TX4vh  SX3q  1 3.650000e-01    2.570000e+00
 TX4vh  SX2q  1 3.650000e-01    2.570000e+00
 TX4vh  SX1q  1 3.650000e-01    2.570000e+00
 TX3vh  SX2v  1 3.650000e-01    1.910000e+00
 TX3vh  SX1v  1 3.650000e-01    1.910000e+00
 TX3vh  SX3e  1 3.650000e-01    2.340000e+00
 TX3vh  SX2e  1 3.650000e-01    2.570000e+00
 TX3vh  SX1e  1 3.650000e-01    2.570000e+00
 TX3vh  SX2q  1 3.650000e-01    2.830000e+00
 TX3vh  SX1q  1 3.650000e-01    2.830000e+00
 TX2vh  SX1v  1 3.650000e-01    1.910000e+00
 TX2vh  SX2e  1 3.650000e-01    2.570000e+00
 TX2vh  SX1e  1 3.650000e-01    2.570000e+00
 TX2vh  SX1q  1 3.650000e-01    2.830000e+00
 TX1vh  SX1e  1 3.650000e-01    2.830000e+00
 TC6eh  SC5e  1 3.650000e-01    1.750000e+00
 TC6eh  SC4e  1 3.650000e-01    1.750000e+00
 TC6eh  SC3e  1 3.660000e-01    1.600000e+00
 TC6eh  SC2e  1 3.780000e-01    1.450000e+00
 TC6eh  SC1e  1 3.940000e-01    1.290000e+00
 TC6eh  SX4e  1 3.650000e-01    1.750000e+00
 TC6eh  SX3e  1 3.650000e-01    1.750000e+00
 TC6eh  SX2e  1 3.650000e-01    1.750000e+00
 TC6eh  SX1e  1 3.650000e-01    1.750000e+00
 TC6eh  SC5q  1 3.650000e-01    2.570000e+00
 TC6eh  SC4q  1 3.650000e-01    2.570000e+00
 TC6eh  SC3q  1 3.650000e-01    2.340000e+00
 TC6eh  SC2q  1 3.650000e-01    2.110000e+00
 TC6eh  SC1q  1 3.650000e-01    1.910000e+00
 TC6eh  SX4q  1 3.650000e-01    2.570000e+00
 TC6eh  SX3q  1 3.650000e-01    2.570000e+00
 TC6eh  SX2q  1 3.650000e-01    2.570000e+00
 TC6eh  SX1q  1 3.650000e-01    2.570000e+00
 TC5eh  SC4e  1 3.650000e-01    1.750000e+00
 TC5eh  SC3e  1 3.660000e-01    1.600000e+00
 TC5eh  SC2e  1 3.780000e-01    1.450000e+00
 TC5eh  SC1e  1 3.780000e-01    1.450000e+00
 TC5eh  SX4e  1 3.660000e-01    1.600000e+00
 TC5eh  SX3e  1 3.660000e-01    1.600000e+00
 TC5eh  SX2e  1 3.660000e-01    1.600000e+00
 TC5eh  SX1e  1 3.650000e-01    1.750000e+00
 TC5eh  SC4q  1 3.650000e-01    2.570000e+00
 TC5eh  SC3q  1 3.650000e-01    2.340000e+00
 TC5eh  SC2q  1 3.650000e-01    2.110000e+00
 TC5eh  SC1q  1 3.650000e-01    2.110000e+00
 TC5eh  SX4q  1 3.650000e-01    2.340000e+00
 TC5eh  SX3q  1 3.650000e-01    2.340000e+00
 TC5eh  SX2q  1 3.650000e-01    2.340000e+00
 TC5eh  SX1q  1 3.650000e-01    2.570000e+00
 TC4eh  SC3e  1 3.650000e-01    1.750000e+00
 TC4eh  SC2e  1 3.660000e-01    1.600000e+00
 TC4eh  SC1e  1 3.780000e-01    1.450000e+00
 TC4eh  SX4e  1 3.660000e-01    1.600000e+00
 TC4eh  SX3e  1 3.660000e-01    1.600000e+00
 TC4eh  SX2e  1 3.660000e-01    1.600000e+00
 TC4eh  SX1e  1 3.650000e-01    1.750000e+00
 TC4eh  SC3q  1 3.650000e-01    2.570000e+00
 TC4eh  SC2q  1 3.650000e-01    2.340000e+00
 TC4eh  SC1q  1 3.650000e-01    2.110000e+00
 TC4eh  SX4q  1 3.650000e-01    2.340000e+00
 TC4eh  SX3q  1 3.650000e-01    2.340000e+00
 TC4eh  SX2q  1 3.650000e-01    2.340000e+00
 TC4eh  SX1q  1 3.650000e-01    2.570000e+00
 TC3eh  SC2e  1 3.650000e-01    1.750000e+00
 TC3eh  SC1e  1 3.650000e-01    1.750000e+00
 TC3eh  SX4e  1 3.660000e-01    1.600000e+00
 TC3eh  SX3e  1 3.660000e-01    1.600000e+00
 TC3eh  SX2e  1 3.660000e-01    1.600000e+00
 TC3eh  SX1e  1 3.650000e-01    1.750000e+00
 TC3eh  SC2q  1 3.650000e-01    2.570000e+00
 TC3eh  SC1q  1 3.650000e-01    2.570000e+00
 TC3eh  SX4q  1 3.650000e-01    2.340000e+00
 TC3eh  SX3q  1 3.650000e-01    2.340000e+00
 TC3eh  SX2q  1 3.650000e-01    2.340000e+00
 TC3eh  SX1q  1 3.650000e-01    2.570000e+00
 TC2eh  SC1e  1 3.650000e-01    1.910000e+00
 TC2eh  SX4e  1 3.940000e-01    1.290000e+00
 TC2eh  SX3e  1 3.660000e-01    1.600000e+00
 TC2eh  SX2e  1 3.660000e-01    1.600000e+00
 TC2eh  SX1e  1 3.660000e-01    1.600000e+00
 TC2eh  SC1q  1 3.650000e-01    2.830000e+00
 TC2eh  SX4q  1 3.650000e-01    1.910000e+00
 TC2eh  SX3q  1 3.650000e-01    2.340000e+00
 TC2eh  SX2q  1 3.650000e-01    2.340000e+00
 TC2eh  SX1q  1 3.650000e-01    2.340000e+00
 TC1eh  SX4e  1 3.940000e-01    1.290000e+00
 TC1eh  SX3e  1 3.660000e-01    1.600000e+00
 TC1eh  SX2e  1 3.660000e-01    1.600000e+00
 TC1eh  SX1e  1 3.660000e-01    1.600000e+00
 TC1eh  SX4q  1 3.650000e-01    1.910000e+00
 TC1eh  SX3q  1 3.650000e-01    2.340000e+00
 TC1eh  SX2q  1 3.650000e-01    2.340000e+00
 TC1eh  SX1q  1 3.650000e-01    2.340000e+00
 TX4eh  SX3e  1 3.650000e-01    1.750000e+00
 TX4eh  SX2e  1 3.650000e-01    1.750000e+00
 TX4eh  SX1e  1 3.650000e-01    1.750000e+00
 TX4eh  SX3q  1 3.650000e-01    2.570000e+00
 TX4eh  SX2q  1 3.650000e-01    2.570000e+00
 TX4eh  SX1q  1 3.650000e-01    2.570000e+00
 TX3eh  SX2e  1 3.650000e-01    1.910000e+00
 TX3eh  SX1e  1 3.650000e-01    1.910000e+00
 TX3eh  SX2q  1 3.650000e-01    2.830000e+00
 TX3eh  SX1q  1 3.650000e-01    2.830000e+00
 TX2eh  SX1e  1 3.650000e-01    1.910000e+00
 TX2eh  SX1q  1 3.650000e-01    2.830000e+00
 TX2eh  SX1v  1 3.650000e-01    2.570000e+00
 TX3eh  SX2v  1 3.650000e-01    2.570000e+00
 TX3eh  SX1v  1 3.650000e-01    2.570000e+00
 TX4eh  SX3v  1 3.650000e-01    2.340000e+00
 TX4eh  SX2v  1 3.650000e-01    2.340000e+00
 TX4eh  SX1v  1 3.650000e-01    2.340000e+00
 TC1eh  SX4v  1 3.650000e-01    1.750000e+00
 TC1eh  SX3v  1 3.650000e-01    2.110000e+00
 TC1eh  SX2v  1 3.650000e-01    2.110000e+00
 TC1eh  SX1v  1 3.650000e-01    2.110000e+00
 TC2eh  SC1v  1 3.650000e-01    2.570000e+00
 TC2eh  SX4v  1 3.650000e-01    1.750000e+00
 TC2eh  SX3v  1 3.650000e-01    2.110000e+00
 TC2eh  SX2v  1 3.650000e-01    2.110000e+00
 TC2eh  SX1v  1 3.650000e-01    2.110000e+00
 TC3eh  SC2v  1 3.650000e-01    2.340000e+00
 TC3eh  SC1v  1 3.650000e-01    2.340000e+00
 TC3eh  SX4v  1 3.650000e-01    2.110000e+00
 TC3eh  SX3v  1 3.650000e-01    2.110000e+00
 TC3eh  SX2v  1 3.650000e-01    2.110000e+00
 TC3eh  SX1v  1 3.650000e-01    2.340000e+00
 TC4eh  SC3v  1 3.650000e-01    2.340000e+00
 TC4eh  SC2v  1 3.650000e-01    2.110000e+00
 TC4eh  SC1v  1 3.650000e-01    1.910000e+00
 TC4eh  SX4v  1 3.650000e-01    2.110000e+00
 TC4eh  SX3v  1 3.650000e-01    2.110000e+00
 TC4eh  SX2v  1 3.650000e-01    2.110000e+00
 TC4eh  SX1v  1 3.650000e-01    2.340000e+00
 TC5eh  SC4v  1 3.650000e-01    2.340000e+00
 TC5eh  SC3v  1 3.650000e-01    2.110000e+00
 TC5eh  SC2v  1 3.650000e-01    1.910000e+00
 TC5eh  SC1v  1 3.650000e-01    1.910000e+00
 TC5eh  SX4v  1 3.650000e-01    2.110000e+00
 TC5eh  SX3v  1 3.650000e-01    2.110000e+00
 TC5eh  SX2v  1 3.650000e-01    2.110000e+00
 TC5eh  SX1v  1 3.650000e-01    2.340000e+00
 TC6eh  SC5v  1 3.650000e-01    2.340000e+00
 TC6eh  SC4v  1 3.650000e-01    2.340000e+00
 TC6eh  SC3v  1 3.650000e-01    2.110000e+00
 TC6eh  SC2v  1 3.650000e-01    1.910000e+00
 TC6eh  SC1v  1 3.650000e-01    1.750000e+00
 TC6eh  SX4v  1 3.650000e-01    2.340000e+00
 TC6eh  SX3v  1 3.650000e-01    2.340000e+00
 TC6eh  SX2v  1 3.650000e-01    2.340000e+00
 TC6eh  SX1v  1 3.650000e-01    2.340000e+00
 TN2ah  SN1d  1 3.650000e-01    2.110000e+00
 TN3ah  SN2d  1 3.650000e-01    2.340000e+00
 TN3ah  SN1d  1 3.650000e-01    2.110000e+00
 TN4ah  SN3d  1 3.650000e-01    2.340000e+00
 TN4ah  SN2d  1 3.650000e-01    2.340000e+00
 TN4ah  SN1d  1 3.650000e-01    2.110000e+00
 TN5ah  SN4d  1 3.650000e-01    2.570000e+00
 TN5ah  SN3d  1 3.650000e-01    2.340000e+00
 TN5ah  SN2d  1 3.650000e-01    2.340000e+00
 TN5ah  SN1d  1 3.650000e-01    2.110000e+00
 TN6ah  SN5d  1 3.650000e-01    2.830000e+00
 TN6ah  SN4d  1 3.650000e-01    2.830000e+00
 TN6ah  SN3d  1 3.650000e-01    2.340000e+00
 TN6ah  SN2d  1 3.650000e-01    2.110000e+00
 TN6ah  SN1d  1 3.650000e-01    2.110000e+00
 TP1ah  SN6d  1 3.650000e-01    2.830000e+00
 TP1ah  SN5d  1 3.650000e-01    2.570000e+00
 TP1ah  SN4d  1 3.650000e-01    2.570000e+00
 TP1ah  SN3d  1 3.650000e-01    2.110000e+00
 TP1ah  SN2d  1 3.650000e-01    2.110000e+00
 TP1ah  SN1d  1 3.650000e-01    2.110000e+00
 TP2ah  SP1d  1 3.650000e-01    2.830000e+00
 TP2ah  SN6d  1 3.650000e-01    2.830000e+00
 TP2ah  SN5d  1 3.650000e-01    2.570000e+00
 TP2ah  SN4d  1 3.650000e-01    2.340000e+00
 TP2ah  SN3d  1 3.650000e-01    2.110000e+00
 TP2ah  SN2d  1 3.650000e-01    2.110000e+00
 TP2ah  SN1d  1 3.650000e-01    2.110000e+00
 TP3ah  SP2d  1 3.650000e-01    3.100000e+00
 TP3ah  SP1d  1 3.650000e-01    2.830000e+00
 TP3ah  SN6d  1 3.650000e-01    2.570000e+00
 TP3ah  SN5d  1 3.650000e-01    2.340000e+00
 TP3ah  SN4d  1 3.650000e-01    2.340000e+00
 TP3ah  SN3d  1 3.650000e-01    2.110000e+00
 TP3ah  SN2d  1 3.650000e-01    2.110000e+00
 TP3ah  SN1d  1 3.650000e-01    1.750000e+00
 TP4ah  SP3d  1 3.650000e-01    3.100000e+00
 TP4ah  SP2d  1 3.650000e-01    3.100000e+00
 TP4ah  SP1d  1 3.650000e-01    2.830000e+00
 TP4ah  SN6d  1 3.650000e-01    2.570000e+00
 TP4ah  SN5d  1 3.650000e-01    2.340000e+00
 TP4ah  SN4d  1 3.650000e-01    2.340000e+00
 TP4ah  SN3d  1 3.650000e-01    2.110000e+00
 TP4ah  SN2d  1 3.650000e-01    1.750000e+00
 TP4ah  SN1d  1 3.660000e-01    1.600000e+00
 TP5ah  SP4d  1 3.650000e-01    3.370000e+00
 TP5ah  SP3d  1 3.650000e-01    3.100000e+00
 TP5ah  SP2d  1 3.650000e-01    3.100000e+00
 TP5ah  SP1d  1 3.650000e-01    2.830000e+00
 TP5ah  SN6d  1 3.650000e-01    2.570000e+00
 TP5ah  SN5d  1 3.650000e-01    2.340000e+00
 TP5ah  SN4d  1 3.650000e-01    2.340000e+00
 TP5ah  SN3d  1 3.650000e-01    1.750000e+00
 TP5ah  SN2d  1 3.660000e-01    1.600000e+00
 TP5ah  SN1d  1 3.780000e-01    1.450000e+00
 TP6ah  SP5d  1 3.650000e-01    3.930000e+00
 TP6ah  SP4d  1 3.650000e-01    3.640000e+00
 TP6ah  SP3d  1 3.650000e-01    3.370000e+00
 TP6ah  SP2d  1 3.650000e-01    3.370000e+00
 TP6ah  SP1d  1 3.650000e-01    3.100000e+00
 TP6ah  SN6d  1 3.650000e-01    2.830000e+00
 TP6ah  SN5d  1 3.650000e-01    2.340000e+00
 TP6ah  SN4d  1 3.650000e-01    2.110000e+00
 TP6ah  SN3d  1 3.650000e-01    1.750000e+00
 TP6ah  SN2d  1 3.660000e-01    1.600000e+00
 TP6ah  SN1d  1 3.780000e-01    1.450000e+00
 TP6aq  SP5r  1 3.650000e-01    4.220000e+00
 TP6dq  SP5r  1 3.650000e-01    4.220000e+00
 TP5aq  SP4r  1 3.650000e-01    3.640000e+00
 TP6aq  SP4r  1 3.650000e-01    3.930000e+00
 TP5dq  SP4r  1 3.650000e-01    3.640000e+00
 TP6dq  SP4r  1 3.650000e-01    3.930000e+00
 TP4aq  SP3r  1 3.650000e-01    3.370000e+00
 TP5aq  SP3r  1 3.650000e-01    3.370000e+00
 TP6aq  SP3r  1 3.650000e-01    3.640000e+00
 TP4dq  SP3r  1 3.650000e-01    3.370000e+00
 TP5dq  SP3r  1 3.650000e-01    3.370000e+00
 TP6dq  SP3r  1 3.650000e-01    3.640000e+00
 TP3aq  SP2r  1 3.650000e-01    3.370000e+00
 TP4aq  SP2r  1 3.650000e-01    3.370000e+00
 TP5aq  SP2r  1 3.650000e-01    3.370000e+00
 TP6aq  SP2r  1 3.650000e-01    3.640000e+00
 TP3dq  SP2r  1 3.650000e-01    3.370000e+00
 TP4dq  SP2r  1 3.650000e-01    3.370000e+00
 TP5dq  SP2r  1 3.650000e-01    3.370000e+00
 TP6dq  SP2r  1 3.650000e-01    3.640000e+00
 TP2aq  SP1r  1 3.650000e-01    3.100000e+00
 TP3aq  SP1r  1 3.650000e-01    3.100000e+00
 TP4aq  SP1r  1 3.650000e-01    3.100000e+00
 TP5aq  SP1r  1 3.650000e-01    3.100000e+00
 TP6aq  SP1r  1 3.650000e-01    3.370000e+00
 TP2dq  SP1r  1 3.650000e-01    3.100000e+00
 TP3dq  SP1r  1 3.650000e-01    3.100000e+00
 TP4dq  SP1r  1 3.650000e-01    3.100000e+00
 TP5dq  SP1r  1 3.650000e-01    3.100000e+00
 TP6dq  SP1r  1 3.650000e-01    3.370000e+00
 TP1aq  SN6r  1 3.650000e-01    3.100000e+00
 TP2aq  SN6r  1 3.650000e-01    3.100000e+00
 TP3aq  SN6r  1 3.650000e-01    2.830000e+00
 TP4aq  SN6r  1 3.650000e-01    2.830000e+00
 TP5aq  SN6r  1 3.650000e-01    2.830000e+00
 TP6aq  SN6r  1 3.650000e-01    3.100000e+00
 TP1dq  SN6r  1 3.650000e-01    3.100000e+00
 TP2dq  SN6r  1 3.650000e-01    3.100000e+00
 TP3dq  SN6r  1 3.650000e-01    2.830000e+00
 TP4dq  SN6r  1 3.650000e-01    2.830000e+00
 TP5dq  SN6r  1 3.650000e-01    2.830000e+00
 TP6dq  SN6r  1 3.650000e-01    3.100000e+00
 TN6aq  SN5r  1 3.650000e-01    3.100000e+00
 TP1aq  SN5r  1 3.650000e-01    2.830000e+00
 TP2aq  SN5r  1 3.650000e-01    2.830000e+00
 TP3aq  SN5r  1 3.650000e-01    2.570000e+00
 TP4aq  SN5r  1 3.650000e-01    2.570000e+00
 TP5aq  SN5r  1 3.650000e-01    2.570000e+00
 TP6aq  SN5r  1 3.650000e-01    2.570000e+00
 TN6dq  SN5r  1 3.650000e-01    3.100000e+00
 TP1dq  SN5r  1 3.650000e-01    2.830000e+00
 TP2dq  SN5r  1 3.650000e-01    2.830000e+00
 TP3dq  SN5r  1 3.650000e-01    2.570000e+00
 TP4dq  SN5r  1 3.650000e-01    2.570000e+00
 TP5dq  SN5r  1 3.650000e-01    2.570000e+00
 TP6dq  SN5r  1 3.650000e-01    2.570000e+00
 TN5aq  SN4r  1 3.650000e-01    2.830000e+00
 TN6aq  SN4r  1 3.650000e-01    3.100000e+00
 TP1aq  SN4r  1 3.650000e-01    2.830000e+00
 TP2aq  SN4r  1 3.650000e-01    2.570000e+00
 TP3aq  SN4r  1 3.650000e-01    2.570000e+00
 TP4aq  SN4r  1 3.650000e-01    2.570000e+00
 TP5aq  SN4r  1 3.650000e-01    2.570000e+00
 TP6aq  SN4r  1 3.650000e-01    2.340000e+00
 TN5dq  SN4r  1 3.650000e-01    2.830000e+00
 TN6dq  SN4r  1 3.650000e-01    3.100000e+00
 TP1dq  SN4r  1 3.650000e-01    2.830000e+00
 TP2dq  SN4r  1 3.650000e-01    2.570000e+00
 TP3dq  SN4r  1 3.650000e-01    2.570000e+00
 TP4dq  SN4r  1 3.650000e-01    2.570000e+00
 TP5dq  SN4r  1 3.650000e-01    2.570000e+00
 TP6dq  SN4r  1 3.650000e-01    2.340000e+00
 TN4aq  SN3r  1 3.650000e-01    2.570000e+00
 TN5aq  SN3r  1 3.650000e-01    2.570000e+00
 TN6aq  SN3r  1 3.650000e-01    2.570000e+00
 TP1aq  SN3r  1 3.650000e-01    2.340000e+00
 TP2aq  SN3r  1 3.650000e-01    2.340000e+00
 TP3aq  SN3r  1 3.650000e-01    2.340000e+00
 TP4aq  SN3r  1 3.650000e-01    2.340000e+00
 TP5aq  SN3r  1 3.650000e-01    2.110000e+00
 TP6aq  SN3r  1 3.650000e-01    2.110000e+00
 TN4dq  SN3r  1 3.650000e-01    2.570000e+00
 TN5dq  SN3r  1 3.650000e-01    2.570000e+00
 TN6dq  SN3r  1 3.650000e-01    2.570000e+00
 TP1dq  SN3r  1 3.650000e-01    2.340000e+00
 TP2dq  SN3r  1 3.650000e-01    2.340000e+00
 TP3dq  SN3r  1 3.650000e-01    2.340000e+00
 TP4dq  SN3r  1 3.650000e-01    2.340000e+00
 TP5dq  SN3r  1 3.650000e-01    2.110000e+00
 TP6dq  SN3r  1 3.650000e-01    2.110000e+00
 TN3aq  SN2r  1 3.650000e-01    2.570000e+00
 TN4aq  SN2r  1 3.650000e-01    2.570000e+00
 TN5aq  SN2r  1 3.650000e-01    2.570000e+00
 TN6aq  SN2r  1 3.650000e-01    2.340000e+00
 TP1aq  SN2r  1 3.650000e-01    2.340000e+00
 TP2aq  SN2r  1 3.650000e-01    2.340000e+00
 TP3aq  SN2r  1 3.650000e-01    2.340000e+00
 TP4aq  SN2r  1 3.650000e-01    2.110000e+00
 TP5aq  SN2r  1 3.650000e-01    1.910000e+00
 TP6aq  SN2r  1 3.650000e-01    1.910000e+00
 TN3dq  SN2r  1 3.650000e-01    2.570000e+00
 TN4dq  SN2r  1 3.650000e-01    2.570000e+00
 TN5dq  SN2r  1 3.650000e-01    2.570000e+00
 TN6dq  SN2r  1 3.650000e-01    2.340000e+00
 TP1dq  SN2r  1 3.650000e-01    2.340000e+00
 TP2dq  SN2r  1 3.650000e-01    2.340000e+00
 TP3dq  SN2r  1 3.650000e-01    2.340000e+00
 TP4dq  SN2r  1 3.650000e-01    2.110000e+00
 TP5dq  SN2r  1 3.650000e-01    1.910000e+00
 TP6dq  SN2r  1 3.650000e-01    1.910000e+00
 TN2aq  SN1r  1 3.650000e-01    2.340000e+00
 TN3aq  SN1r  1 3.650000e-01    2.340000e+00
 TN4aq  SN1r  1 3.650000e-01    2.340000e+00
 TN5aq  SN1r  1 3.650000e-01    2.340000e+00
 TN6aq  SN1r  1 3.650000e-01    2.340000e+00
 TP1aq  SN1r  1 3.650000e-01    2.340000e+00
 TP2aq  SN1r  1 3.650000e-01    2.340000e+00
 TP3aq  SN1r  1 3.650000e-01    2.110000e+00
 TP4aq  SN1r  1 3.650000e-01    1.910000e+00
 TP5aq  SN1r  1 3.650000e-01    1.750000e+00
 TP6aq  SN1r  1 3.650000e-01    1.750000e+00
 TN2dq  SN1r  1 3.650000e-01    2.340000e+00
 TN3dq  SN1r  1 3.650000e-01    2.340000e+00
 TN4dq  SN1r  1 3.650000e-01    2.340000e+00
 TN5dq  SN1r  1 3.650000e-01    2.340000e+00
 TN6dq  SN1r  1 3.650000e-01    2.340000e+00
 TP1dq  SN1r  1 3.650000e-01    2.340000e+00
 TP2dq  SN1r  1 3.650000e-01    2.340000e+00
 TP3dq  SN1r  1 3.650000e-01    2.110000e+00
 TP4dq  SN1r  1 3.650000e-01    1.910000e+00
 TP5dq  SN1r  1 3.650000e-01    1.750000e+00
 TP6dq  SN1r  1 3.650000e-01    1.750000e+00
 TN1aq  SC6r  1 3.650000e-01    2.570000e+00
 TN2aq  SC6r  1 3.650000e-01    2.340000e+00
 TN3aq  SC6r  1 3.650000e-01    2.340000e+00
 TN4aq  SC6r  1 3.650000e-01    2.340000e+00
 TN5aq  SC6r  1 3.650000e-01    2.340000e+00
 TN6aq  SC6r  1 3.650000e-01    2.340000e+00
 TP1aq  SC6r  1 3.650000e-01    2.110000e+00
 TP2aq  SC6r  1 3.650000e-01    2.110000e+00
 TP3aq  SC6r  1 3.650000e-01    2.110000e+00
 TP4aq  SC6r  1 3.650000e-01    1.910000e+00
 TP5aq  SC6r  1 3.650000e-01    1.750000e+00
 TP6aq  SC6r  1 3.650000e-01    1.750000e+00
 TN1dq  SC6r  1 3.650000e-01    2.570000e+00
 TN2dq  SC6r  1 3.650000e-01    2.340000e+00
 TN3dq  SC6r  1 3.650000e-01    2.340000e+00
 TN4dq  SC6r  1 3.650000e-01    2.340000e+00
 TN5dq  SC6r  1 3.650000e-01    2.340000e+00
 TN6dq  SC6r  1 3.650000e-01    2.340000e+00
 TP1dq  SC6r  1 3.650000e-01    2.110000e+00
 TP2dq  SC6r  1 3.650000e-01    2.110000e+00
 TP3dq  SC6r  1 3.650000e-01    2.110000e+00
 TP4dq  SC6r  1 3.650000e-01    1.910000e+00
 TP5dq  SC6r  1 3.650000e-01    1.750000e+00
 TP6dq  SC6r  1 3.650000e-01    1.750000e+00
 TC6eq  SC5r  1 3.650000e-01    2.570000e+00
 TC6vq  SC5r  1 3.650000e-01    2.570000e+00
 TN1aq  SC5r  1 3.650000e-01    2.340000e+00
 TN2aq  SC5r  1 3.650000e-01    2.110000e+00
 TN3aq  SC5r  1 3.650000e-01    2.110000e+00
 TN4aq  SC5r  1 3.650000e-01    2.110000e+00
 TN5aq  SC5r  1 3.650000e-01    2.110000e+00
 TN6aq  SC5r  1 3.650000e-01    2.110000e+00
 TP1aq  SC5r  1 3.650000e-01    1.910000e+00
 TP2aq  SC5r  1 3.650000e-01    1.910000e+00
 TP3aq  SC5r  1 3.650000e-01    1.910000e+00
 TP4aq  SC5r  1 3.650000e-01    1.750000e+00
 TP5aq  SC5r  1 3.650000e-01    1.750000e+00
 TP6aq  SC5r  1 3.660000e-01    1.600000e+00
 TN1dq  SC5r  1 3.650000e-01    2.340000e+00
 TN2dq  SC5r  1 3.650000e-01    2.110000e+00
 TN3dq  SC5r  1 3.650000e-01    2.110000e+00
 TN4dq  SC5r  1 3.650000e-01    2.110000e+00
 TN5dq  SC5r  1 3.650000e-01    2.110000e+00
 TN6dq  SC5r  1 3.650000e-01    2.110000e+00
 TP1dq  SC5r  1 3.650000e-01    1.910000e+00
 TP2dq  SC5r  1 3.650000e-01    1.910000e+00
 TP3dq  SC5r  1 3.650000e-01    1.910000e+00
 TP4dq  SC5r  1 3.650000e-01    1.750000e+00
 TP5dq  SC5r  1 3.650000e-01    1.750000e+00
 TP6dq  SC5r  1 3.660000e-01    1.600000e+00
 TC5eq  SC4r  1 3.650000e-01    2.570000e+00
 TC6eq  SC4r  1 3.650000e-01    2.570000e+00
 TC5vq  SC4r  1 3.650000e-01    2.570000e+00
 TC6vq  SC4r  1 3.650000e-01    2.570000e+00
 TN1aq  SC4r  1 3.650000e-01    2.340000e+00
 TN2aq  SC4r  1 3.650000e-01    2.110000e+00
 TN3aq  SC4r  1 3.650000e-01    2.110000e+00
 TN4aq  SC4r  1 3.650000e-01    2.110000e+00
 TN5aq  SC4r  1 3.650000e-01    1.910000e+00
 TN6aq  SC4r  1 3.650000e-01    1.910000e+00
 TP1aq  SC4r  1 3.650000e-01    1.750000e+00
 TP2aq  SC4r  1 3.650000e-01    1.750000e+00
 TP3aq  SC4r  1 3.650000e-01    1.750000e+00
 TP4aq  SC4r  1 3.660000e-01    1.600000e+00
 TP5aq  SC4r  1 3.660000e-01    1.600000e+00
 TP6aq  SC4r  1 3.780000e-01    1.450000e+00
 TN1dq  SC4r  1 3.650000e-01    2.340000e+00
 TN2dq  SC4r  1 3.650000e-01    2.110000e+00
 TN3dq  SC4r  1 3.650000e-01    2.110000e+00
 TN4dq  SC4r  1 3.650000e-01    2.110000e+00
 TN5dq  SC4r  1 3.650000e-01    1.910000e+00
 TN6dq  SC4r  1 3.650000e-01    1.910000e+00
 TP1dq  SC4r  1 3.650000e-01    1.750000e+00
 TP2dq  SC4r  1 3.650000e-01    1.750000e+00
 TP3dq  SC4r  1 3.650000e-01    1.750000e+00
 TP4dq  SC4r  1 3.660000e-01    1.600000e+00
 TP5dq  SC4r  1 3.660000e-01    1.600000e+00
 TP6dq  SC4r  1 3.780000e-01    1.450000e+00
 TC4eq  SC3r  1 3.650000e-01    2.570000e+00
 TC5eq  SC3r  1 3.650000e-01    2.340000e+00
 TC6eq  SC3r  1 3.650000e-01    2.340000e+00
 TC4vq  SC3r  1 3.650000e-01    2.570000e+00
 TC5vq  SC3r  1 3.650000e-01    2.340000e+00
 TC6vq  SC3r  1 3.650000e-01    2.340000e+00
 TN1aq  SC3r  1 3.650000e-01    2.110000e+00
 TN2aq  SC3r  1 3.650000e-01    2.110000e+00
 TN3aq  SC3r  1 3.650000e-01    1.910000e+00
 TN4aq  SC3r  1 3.650000e-01    1.910000e+00
 TN5aq  SC3r  1 3.650000e-01    1.910000e+00
 TN6aq  SC3r  1 3.650000e-01    1.750000e+00
 TP1aq  SC3r  1 3.660000e-01    1.600000e+00
 TP2aq  SC3r  1 3.660000e-01    1.600000e+00
 TP3aq  SC3r  1 3.780000e-01    1.450000e+00
 TP4aq  SC3r  1 3.780000e-01    1.450000e+00
 TP5aq  SC3r  1 3.780000e-01    1.450000e+00
 TP6aq  SC3r  1 3.940000e-01    1.290000e+00
 TN1dq  SC3r  1 3.650000e-01    2.110000e+00
 TN2dq  SC3r  1 3.650000e-01    2.110000e+00
 TN3dq  SC3r  1 3.650000e-01    1.910000e+00
 TN4dq  SC3r  1 3.650000e-01    1.910000e+00
 TN5dq  SC3r  1 3.650000e-01    1.910000e+00
 TN6dq  SC3r  1 3.650000e-01    1.750000e+00
 TP1dq  SC3r  1 3.660000e-01    1.600000e+00
 TP2dq  SC3r  1 3.660000e-01    1.600000e+00
 TP3dq  SC3r  1 3.780000e-01    1.450000e+00
 TP4dq  SC3r  1 3.780000e-01    1.450000e+00
 TP5dq  SC3r  1 3.780000e-01    1.450000e+00
 TP6dq  SC3r  1 3.940000e-01    1.290000e+00
 TC3eq  SC2r  1 3.650000e-01    2.570000e+00
 TC4eq  SC2r  1 3.650000e-01    2.340000e+00
 TC5eq  SC2r  1 3.650000e-01    2.110000e+00
 TC6eq  SC2r  1 3.650000e-01    2.110000e+00
 TC3vq  SC2r  1 3.650000e-01    2.570000e+00
 TC4vq  SC2r  1 3.650000e-01    2.340000e+00
 TC5vq  SC2r  1 3.650000e-01    2.110000e+00
 TC6vq  SC2r  1 3.650000e-01    2.110000e+00
 TN1aq  SC2r  1 3.650000e-01    1.910000e+00
 TN2aq  SC2r  1 3.650000e-01    1.910000e+00
 TN3aq  SC2r  1 3.650000e-01    1.910000e+00
 TN4aq  SC2r  1 3.650000e-01    1.750000e+00
 TN5aq  SC2r  1 3.650000e-01    1.750000e+00
 TN6aq  SC2r  1 3.650000e-01    1.750000e+00
 TP1aq  SC2r  1 3.660000e-01    1.600000e+00
 TP2aq  SC2r  1 3.660000e-01    1.600000e+00
 TP3aq  SC2r  1 3.780000e-01    1.450000e+00
 TP4aq  SC2r  1 3.780000e-01    1.450000e+00
 TP5aq  SC2r  1 3.780000e-01    1.450000e+00
 TP6aq  SC2r  1 3.940000e-01    1.290000e+00
 TN1dq  SC2r  1 3.650000e-01    1.910000e+00
 TN2dq  SC2r  1 3.650000e-01    1.910000e+00
 TN3dq  SC2r  1 3.650000e-01    1.910000e+00
 TN4dq  SC2r  1 3.650000e-01    1.750000e+00
 TN5dq  SC2r  1 3.650000e-01    1.750000e+00
 TN6dq  SC2r  1 3.650000e-01    1.750000e+00
 TP1dq  SC2r  1 3.660000e-01    1.600000e+00
 TP2dq  SC2r  1 3.660000e-01    1.600000e+00
 TP3dq  SC2r  1 3.780000e-01    1.450000e+00
 TP4dq  SC2r  1 3.780000e-01    1.450000e+00
 TP5dq  SC2r  1 3.780000e-01    1.450000e+00
 TP6dq  SC2r  1 3.940000e-01    1.290000e+00
 TC2eq  SC1r  1 3.650000e-01    2.830000e+00
 TC3eq  SC1r  1 3.650000e-01    2.570000e+00
 TC4eq  SC1r  1 3.650000e-01    2.110000e+00
 TC5eq  SC1r  1 3.650000e-01    2.110000e+00
 TC6eq  SC1r  1 3.650000e-01    1.910000e+00
 TC2vq  SC1r  1 3.650000e-01    2.830000e+00
 TC3vq  SC1r  1 3.650000e-01    2.570000e+00
 TC4vq  SC1r  1 3.650000e-01    2.110000e+00
 TC5vq  SC1r  1 3.650000e-01    2.110000e+00
 TC6vq  SC1r  1 3.650000e-01    1.910000e+00
 TN1aq  SC1r  1 3.650000e-01    1.750000e+00
 TN2aq  SC1r  1 3.650000e-01    1.750000e+00
 TN3aq  SC1r  1 3.650000e-01    1.750000e+00
 TN4aq  SC1r  1 3.660000e-01    1.600000e+00
 TN5aq  SC1r  1 3.660000e-01    1.600000e+00
 TN6aq  SC1r  1 3.660000e-01    1.600000e+00
 TP1aq  SC1r  1 3.780000e-01    1.450000e+00
 TP2aq  SC1r  1 3.780000e-01    1.450000e+00
 TP3aq  SC1r  1 3.940000e-01    1.290000e+00
 TP4aq  SC1r  1 3.940000e-01    1.290000e+00
 TP5aq  SC1r  1 3.940000e-01    1.290000e+00
 TP6aq  SC1r  1 4.090000e-01    1.080000e+00
 TN1dq  SC1r  1 3.650000e-01    1.750000e+00
 TN2dq  SC1r  1 3.650000e-01    1.750000e+00
 TN3dq  SC1r  1 3.650000e-01    1.750000e+00
 TN4dq  SC1r  1 3.660000e-01    1.600000e+00
 TN5dq  SC1r  1 3.660000e-01    1.600000e+00
 TN6dq  SC1r  1 3.660000e-01    1.600000e+00
 TP1dq  SC1r  1 3.780000e-01    1.450000e+00
 TP2dq  SC1r  1 3.780000e-01    1.450000e+00
 TP3dq  SC1r  1 3.940000e-01    1.290000e+00
 TP4dq  SC1r  1 3.940000e-01    1.290000e+00
 TP5dq  SC1r  1 3.940000e-01    1.290000e+00
 TP6dq  SC1r  1 4.090000e-01    1.080000e+00
 TC1eq  SX4r  1 3.650000e-01    1.910000e+00
 TC2eq  SX4r  1 3.650000e-01    1.910000e+00
 TC3eq  SX4r  1 3.650000e-01    2.340000e+00
 TC4eq  SX4r  1 3.650000e-01    2.340000e+00
 TC5eq  SX4r  1 3.650000e-01    2.340000e+00
 TC6eq  SX4r  1 3.650000e-01    2.570000e+00
 TC1vq  SX4r  1 3.650000e-01    1.910000e+00
 TC2vq  SX4r  1 3.650000e-01    1.910000e+00
 TC3vq  SX4r  1 3.650000e-01    2.340000e+00
 TC4vq  SX4r  1 3.650000e-01    2.340000e+00
 TC5vq  SX4r  1 3.650000e-01    2.340000e+00
 TC6vq  SX4r  1 3.650000e-01    2.570000e+00
 TN1aq  SX4r  1 3.650000e-01    2.340000e+00
 TN2aq  SX4r  1 3.650000e-01    2.570000e+00
 TN3aq  SX4r  1 3.650000e-01    2.570000e+00
 TN4aq  SX4r  1 3.650000e-01    2.830000e+00
 TN5aq  SX4r  1 3.650000e-01    2.570000e+00
 TN6aq  SX4r  1 3.650000e-01    2.340000e+00
 TP1aq  SX4r  1 3.650000e-01    2.110000e+00
 TP2aq  SX4r  1 3.650000e-01    2.110000e+00
 TP3aq  SX4r  1 3.650000e-01    2.110000e+00
 TP4aq  SX4r  1 3.650000e-01    2.110000e+00
 TP5aq  SX4r  1 3.650000e-01    2.110000e+00
 TP6aq  SX4r  1 3.650000e-01    1.910000e+00
 TN1dq  SX4r  1 3.650000e-01    2.340000e+00
 TN2dq  SX4r  1 3.650000e-01    2.570000e+00
 TN3dq  SX4r  1 3.650000e-01    2.570000e+00
 TN4dq  SX4r  1 3.650000e-01    2.830000e+00
 TN5dq  SX4r  1 3.650000e-01    2.570000e+00
 TN6dq  SX4r  1 3.650000e-01    2.340000e+00
 TP1dq  SX4r  1 3.650000e-01    2.110000e+00
 TP2dq  SX4r  1 3.650000e-01    2.110000e+00
 TP3dq  SX4r  1 3.650000e-01    2.110000e+00
 TP4dq  SX4r  1 3.650000e-01    2.110000e+00
 TP5dq  SX4r  1 3.650000e-01    2.110000e+00
 TP6dq  SX4r  1 3.650000e-01    1.910000e+00
 TX4eq  SX3r  1 3.650000e-01    2.570000e+00
 TC1eq  SX3r  1 3.650000e-01    2.340000e+00
 TC2eq  SX3r  1 3.650000e-01    2.340000e+00
 TC3eq  SX3r  1 3.650000e-01    2.340000e+00
 TC4eq  SX3r  1 3.650000e-01    2.340000e+00
 TC5eq  SX3r  1 3.650000e-01    2.340000e+00
 TC6eq  SX3r  1 3.650000e-01    2.570000e+00
 TX4vq  SX3r  1 3.650000e-01    2.570000e+00
 TC1vq  SX3r  1 3.650000e-01    2.340000e+00
 TC2vq  SX3r  1 3.650000e-01    2.340000e+00
 TC3vq  SX3r  1 3.650000e-01    2.340000e+00
 TC4vq  SX3r  1 3.650000e-01    2.340000e+00
 TC5vq  SX3r  1 3.650000e-01    2.340000e+00
 TC6vq  SX3r  1 3.650000e-01    2.570000e+00
 TN1aq  SX3r  1 3.650000e-01    2.340000e+00
 TN2aq  SX3r  1 3.650000e-01    2.340000e+00
 TN3aq  SX3r  1 3.650000e-01    2.340000e+00
 TN4aq  SX3r  1 3.650000e-01    2.570000e+00
 TN5aq  SX3r  1 3.650000e-01    2.340000e+00
 TN6aq  SX3r  1 3.650000e-01    2.110000e+00
 TP1aq  SX3r  1 3.650000e-01    2.110000e+00
 TP2aq  SX3r  1 3.650000e-01    2.110000e+00
 TP3aq  SX3r  1 3.650000e-01    2.110000e+00
 TP4aq  SX3r  1 3.650000e-01    1.910000e+00
 TP5aq  SX3r  1 3.650000e-01    1.910000e+00
 TP6aq  SX3r  1 3.650000e-01    1.910000e+00
 TN1dq  SX3r  1 3.650000e-01    2.340000e+00
 TN2dq  SX3r  1 3.650000e-01    2.340000e+00
 TN3dq  SX3r  1 3.650000e-01    2.340000e+00
 TN4dq  SX3r  1 3.650000e-01    2.570000e+00
 TN5dq  SX3r  1 3.650000e-01    2.340000e+00
 TN6dq  SX3r  1 3.650000e-01    2.110000e+00
 TP1dq  SX3r  1 3.650000e-01    2.110000e+00
 TP2dq  SX3r  1 3.650000e-01    2.110000e+00
 TP3dq  SX3r  1 3.650000e-01    2.110000e+00
 TP4dq  SX3r  1 3.650000e-01    1.910000e+00
 TP5dq  SX3r  1 3.650000e-01    1.910000e+00
 TP6dq  SX3r  1 3.650000e-01    1.910000e+00
 TX3eq  SX2r  1 3.650000e-01    2.830000e+00
 TX4eq  SX2r  1 3.650000e-01    2.570000e+00
 TC1eq  SX2r  1 3.650000e-01    2.340000e+00
 TC2eq  SX2r  1 3.650000e-01    2.340000e+00
 TC3eq  SX2r  1 3.650000e-01    2.340000e+00
 TC4eq  SX2r  1 3.650000e-01    2.340000e+00
 TC5eq  SX2r  1 3.650000e-01    2.340000e+00
 TC6eq  SX2r  1 3.650000e-01    2.570000e+00
 TX3vq  SX2r  1 3.650000e-01    2.830000e+00
 TX4vq  SX2r  1 3.650000e-01    2.570000e+00
 TC1vq  SX2r  1 3.650000e-01    2.340000e+00
 TC2vq  SX2r  1 3.650000e-01    2.340000e+00
 TC3vq  SX2r  1 3.650000e-01    2.340000e+00
 TC4vq  SX2r  1 3.650000e-01    2.340000e+00
 TC5vq  SX2r  1 3.650000e-01    2.340000e+00
 TC6vq  SX2r  1 3.650000e-01    2.570000e+00
 TN1aq  SX2r  1 3.650000e-01    2.110000e+00
 TN2aq  SX2r  1 3.650000e-01    2.110000e+00
 TN3aq  SX2r  1 3.650000e-01    2.110000e+00
 TN4aq  SX2r  1 3.650000e-01    2.110000e+00
 TN5aq  SX2r  1 3.650000e-01    2.110000e+00
 TN6aq  SX2r  1 3.650000e-01    1.910000e+00
 TP1aq  SX2r  1 3.650000e-01    1.910000e+00
 TP2aq  SX2r  1 3.650000e-01    1.910000e+00
 TP3aq  SX2r  1 3.650000e-01    1.910000e+00
 TP4aq  SX2r  1 3.650000e-01    1.910000e+00
 TP5aq  SX2r  1 3.650000e-01    1.910000e+00
 TP6aq  SX2r  1 3.650000e-01    1.750000e+00
 TN1dq  SX2r  1 3.650000e-01    2.110000e+00
 TN2dq  SX2r  1 3.650000e-01    2.110000e+00
 TN3dq  SX2r  1 3.650000e-01    2.110000e+00
 TN4dq  SX2r  1 3.650000e-01    2.110000e+00
 TN5dq  SX2r  1 3.650000e-01    2.110000e+00
 TN6dq  SX2r  1 3.650000e-01    1.910000e+00
 TP1dq  SX2r  1 3.650000e-01    1.910000e+00
 TP2dq  SX2r  1 3.650000e-01    1.910000e+00
 TP3dq  SX2r  1 3.650000e-01    1.910000e+00
 TP4dq  SX2r  1 3.650000e-01    1.910000e+00
 TP5dq  SX2r  1 3.650000e-01    1.910000e+00
 TP6dq  SX2r  1 3.650000e-01    1.750000e+00
 TX2eq  SX1r  1 3.650000e-01    2.830000e+00
 TX3eq  SX1r  1 3.650000e-01    2.830000e+00
 TX4eq  SX1r  1 3.650000e-01    2.570000e+00
 TC1eq  SX1r  1 3.650000e-01    2.340000e+00
 TC2eq  SX1r  1 3.650000e-01    2.340000e+00
 TC3eq  SX1r  1 3.650000e-01    2.570000e+00
 TC4eq  SX1r  1 3.650000e-01    2.570000e+00
 TC5eq  SX1r  1 3.650000e-01    2.570000e+00
 TC6eq  SX1r  1 3.650000e-01    2.570000e+00
 TX2vq  SX1r  1 3.650000e-01    2.830000e+00
 TX3vq  SX1r  1 3.650000e-01    2.830000e+00
 TX4vq  SX1r  1 3.650000e-01    2.570000e+00
 TC1vq  SX1r  1 3.650000e-01    2.340000e+00
 TC2vq  SX1r  1 3.650000e-01    2.340000e+00
 TC3vq  SX1r  1 3.650000e-01    2.570000e+00
 TC4vq  SX1r  1 3.650000e-01    2.570000e+00
 TC5vq  SX1r  1 3.650000e-01    2.570000e+00
 TC6vq  SX1r  1 3.650000e-01    2.570000e+00
 TN1aq  SX1r  1 3.650000e-01    2.110000e+00
 TN2aq  SX1r  1 3.650000e-01    2.110000e+00
 TN3aq  SX1r  1 3.650000e-01    2.110000e+00
 TN4aq  SX1r  1 3.650000e-01    1.910000e+00
 TN5aq  SX1r  1 3.650000e-01    1.910000e+00
 TN6aq  SX1r  1 3.650000e-01    1.750000e+00
 TP1aq  SX1r  1 3.650000e-01    1.750000e+00
 TP2aq  SX1r  1 3.650000e-01    1.750000e+00
 TP3aq  SX1r  1 3.650000e-01    1.750000e+00
 TP4aq  SX1r  1 3.650000e-01    1.750000e+00
 TP5aq  SX1r  1 3.660000e-01    1.600000e+00
 TP6aq  SX1r  1 3.660000e-01    1.600000e+00
 TN1dq  SX1r  1 3.650000e-01    2.110000e+00
 TN2dq  SX1r  1 3.650000e-01    2.110000e+00
 TN3dq  SX1r  1 3.650000e-01    2.110000e+00
 TN4dq  SX1r  1 3.650000e-01    1.910000e+00
 TN5dq  SX1r  1 3.650000e-01    1.910000e+00
 TN6dq  SX1r  1 3.650000e-01    1.750000e+00
 TP1dq  SX1r  1 3.650000e-01    1.750000e+00
 TP2dq  SX1r  1 3.650000e-01    1.750000e+00
 TP3dq  SX1r  1 3.650000e-01    1.750000e+00
 TP4dq  SX1r  1 3.650000e-01    1.750000e+00
 TP5dq  SX1r  1 3.660000e-01    1.600000e+00
 TP6dq  SX1r  1 3.660000e-01    1.600000e+00
 TP6dr  SP5d  1 3.650000e-01    3.370000e+00
 TP6dr  SP4d  1 3.650000e-01    3.100000e+00
 TP6dr  SP3d  1 3.650000e-01    2.830000e+00
 TP6dr  SP2d  1 3.650000e-01    2.830000e+00
 TP6dr  SP1d  1 3.650000e-01    2.570000e+00
 TP6dr  SN6d  1 3.650000e-01    2.340000e+00
 TP6dr  SN5d  1 3.650000e-01    1.910000e+00
 TP6dr  SN4d  1 3.650000e-01    1.750000e+00
 TP6dr  SN3d  1 3.650000e-01    1.750000e+00
 TP6dr  SN2d  1 3.660000e-01    1.600000e+00
 TP6dr  SN1d  1 3.780000e-01    1.450000e+00
 TP6dr  SP6a  1 3.650000e-01    4.220000e+00
 TP6dr  SP5a  1 3.650000e-01    3.930000e+00
 TP6dr  SP4a  1 3.650000e-01    3.640000e+00
 TP6dr  SP3a  1 3.650000e-01    3.370000e+00
 TP6dr  SP2a  1 3.650000e-01    3.370000e+00
 TP6dr  SP1a  1 3.650000e-01    3.100000e+00
 TP6dr  SN6a  1 3.650000e-01    2.830000e+00
 TP6dr  SN5a  1 3.650000e-01    2.340000e+00
 TP6dr  SN4a  1 3.650000e-01    2.110000e+00
 TP6dr  SN3a  1 3.650000e-01    1.750000e+00
 TP6dr  SN2a  1 3.660000e-01    1.600000e+00
 TP6dr  SN1a  1 3.780000e-01    1.450000e+00
 TP6dr  SC6e  1 3.660000e-01    1.600000e+00
 TP6dr  SC5e  1 3.780000e-01    1.450000e+00
 TP6dr  SC4e  1 3.940000e-01    1.290000e+00
 TP6dr  SC3e  1 4.040000e-01    1.130000e+00
 TP6dr  SC2e  1 4.040000e-01    1.130000e+00
 TP6dr  SC1e  1 4.230000e-01    9.810000e-01
 TP6dr  SX4e  1 3.650000e-01    1.750000e+00
 TP6dr  SX3e  1 3.650000e-01    1.750000e+00
 TP6dr  SX2e  1 3.660000e-01    1.600000e+00
 TP6dr  SX1e  1 3.780000e-01    1.450000e+00
 TP6dr  SC6v  1 3.940000e-01    1.290000e+00
 TP6dr  SC5v  1 4.040000e-01    1.130000e+00
 TP6dr  SC4v  1 4.090000e-01    1.080000e+00
 TP6dr  SC3v  1 4.230000e-01    9.810000e-01
 TP6dr  SC2v  1 4.230000e-01    9.810000e-01
 TP6dr  SC1v  1 5.370000e-01    8.080000e-01
 TP6dr  SX4v  1 3.780000e-01    1.450000e+00
 TP6dr  SX3v  1 3.780000e-01    1.450000e+00
 TP6dr  SX2v  1 3.940000e-01    1.290000e+00
 TP6dr  SX1v  1 4.040000e-01    1.130000e+00
 TP6dr  SP5q  1 3.650000e-01    4.220000e+00
 TP6dr  SP4q  1 3.650000e-01    3.930000e+00
 TP6dr  SP3q  1 3.650000e-01    3.640000e+00
 TP6dr  SP2q  1 3.650000e-01    3.640000e+00
 TP6dr  SP1q  1 3.650000e-01    3.370000e+00
 TP6dr  SN6q  1 3.650000e-01    3.100000e+00
 TP6dr  SN5q  1 3.650000e-01    2.570000e+00
 TP6dr  SN4q  1 3.650000e-01    2.340000e+00
 TP6dr  SN3q  1 3.650000e-01    2.110000e+00
 TP6dr  SN2q  1 3.650000e-01    1.910000e+00
 TP6dr  SN1q  1 3.650000e-01    1.750000e+00
 TP6dr  SC6q  1 3.650000e-01    1.750000e+00
 TP6dr  SC5q  1 3.660000e-01    1.600000e+00
 TP6dr  SC4q  1 3.780000e-01    1.450000e+00
 TP6dr  SC3q  1 3.940000e-01    1.290000e+00
 TP6dr  SC2q  1 3.940000e-01    1.290000e+00
 TP6dr  SC1q  1 4.090000e-01    1.080000e+00
 TP6dr  SX4q  1 3.650000e-01    1.910000e+00
 TP6dr  SX3q  1 3.650000e-01    1.910000e+00
 TP6dr  SX2q  1 3.650000e-01    1.750000e+00
 TP6dr  SX1q  1 3.660000e-01    1.600000e+00
 TP5dr  SP4d  1 3.650000e-01    2.830000e+00
 TP5dr  SP3d  1 3.650000e-01    2.570000e+00
 TP5dr  SP2d  1 3.650000e-01    2.570000e+00
 TP5dr  SP1d  1 3.650000e-01    2.340000e+00
 TP5dr  SN6d  1 3.650000e-01    2.110000e+00
 TP5dr  SN5d  1 3.650000e-01    1.910000e+00
 TP5dr  SN4d  1 3.650000e-01    1.910000e+00
 TP5dr  SN3d  1 3.650000e-01    1.750000e+00
 TP5dr  SN2d  1 3.660000e-01    1.600000e+00
 TP5dr  SN1d  1 3.780000e-01    1.450000e+00
 TP5dr  SP5a  1 3.650000e-01    3.640000e+00
 TP5dr  SP4a  1 3.650000e-01    3.370000e+00
 TP5dr  SP3a  1 3.650000e-01    3.100000e+00
 TP5dr  SP2a  1 3.650000e-01    3.100000e+00
 TP5dr  SP1a  1 3.650000e-01    2.830000e+00
 TP5dr  SN6a  1 3.650000e-01    2.570000e+00
 TP5dr  SN5a  1 3.650000e-01    2.340000e+00
 TP5dr  SN4a  1 3.650000e-01    2.340000e+00
 TP5dr  SN3a  1 3.650000e-01    1.750000e+00
 TP5dr  SN2a  1 3.660000e-01    1.600000e+00
 TP5dr  SN1a  1 3.780000e-01    1.450000e+00
 TP5dr  SC6e  1 3.660000e-01    1.600000e+00
 TP5dr  SC5e  1 3.660000e-01    1.600000e+00
 TP5dr  SC4e  1 3.780000e-01    1.450000e+00
 TP5dr  SC3e  1 3.940000e-01    1.290000e+00
 TP5dr  SC2e  1 3.940000e-01    1.290000e+00
 TP5dr  SC1e  1 4.040000e-01    1.130000e+00
 TP5dr  SX4e  1 3.650000e-01    1.910000e+00
 TP5dr  SX3e  1 3.650000e-01    1.750000e+00
 TP5dr  SX2e  1 3.650000e-01    1.750000e+00
 TP5dr  SX1e  1 3.780000e-01    1.450000e+00
 TP5dr  SC6v  1 3.940000e-01    1.290000e+00
 TP5dr  SC5v  1 3.940000e-01    1.290000e+00
 TP5dr  SC4v  1 4.040000e-01    1.130000e+00
 TP5dr  SC3v  1 4.090000e-01    1.080000e+00
 TP5dr  SC2v  1 4.090000e-01    1.080000e+00
 TP5dr  SC1v  1 4.230000e-01    9.810000e-01
 TP5dr  SX4v  1 3.660000e-01    1.600000e+00
 TP5dr  SX3v  1 3.780000e-01    1.450000e+00
 TP5dr  SX2v  1 3.780000e-01    1.450000e+00
 TP5dr  SX1v  1 4.040000e-01    1.130000e+00
 TP5dr  SP4q  1 3.650000e-01    3.640000e+00
 TP5dr  SP3q  1 3.650000e-01    3.370000e+00
 TP5dr  SP2q  1 3.650000e-01    3.370000e+00
 TP5dr  SP1q  1 3.650000e-01    3.100000e+00
 TP5dr  SN6q  1 3.650000e-01    2.830000e+00
 TP5dr  SN5q  1 3.650000e-01    2.570000e+00
 TP5dr  SN4q  1 3.650000e-01    2.570000e+00
 TP5dr  SN3q  1 3.650000e-01    2.110000e+00
 TP5dr  SN2q  1 3.650000e-01    1.910000e+00
 TP5dr  SN1q  1 3.650000e-01    1.750000e+00
 TP5dr  SC6q  1 3.650000e-01    1.750000e+00
 TP5dr  SC5q  1 3.650000e-01    1.750000e+00
 TP5dr  SC4q  1 3.660000e-01    1.600000e+00
 TP5dr  SC3q  1 3.780000e-01    1.450000e+00
 TP5dr  SC2q  1 3.780000e-01    1.450000e+00
 TP5dr  SC1q  1 3.940000e-01    1.290000e+00
 TP5dr  SX4q  1 3.650000e-01    2.110000e+00
 TP5dr  SX3q  1 3.650000e-01    1.910000e+00
 TP5dr  SX2q  1 3.650000e-01    1.910000e+00
 TP5dr  SX1q  1 3.660000e-01    1.600000e+00
 TP4dr  SP3d  1 3.650000e-01    2.570000e+00
 TP4dr  SP2d  1 3.650000e-01    2.570000e+00
 TP4dr  SP1d  1 3.650000e-01    2.340000e+00
 TP4dr  SN6d  1 3.650000e-01    2.110000e+00
 TP4dr  SN5d  1 3.650000e-01    1.910000e+00
 TP4dr  SN4d  1 3.650000e-01    1.910000e+00
 TP4dr  SN3d  1 3.650000e-01    1.750000e+00
 TP4dr  SN2d  1 3.650000e-01    1.750000e+00
 TP4dr  SN1d  1 3.660000e-01    1.600000e+00
 TP4dr  SP4a  1 3.650000e-01    3.370000e+00
 TP4dr  SP3a  1 3.650000e-01    3.100000e+00
 TP4dr  SP2a  1 3.650000e-01    3.100000e+00
 TP4dr  SP1a  1 3.650000e-01    2.830000e+00
 TP4dr  SN6a  1 3.650000e-01    2.570000e+00
 TP4dr  SN5a  1 3.650000e-01    2.340000e+00
 TP4dr  SN4a  1 3.650000e-01    2.340000e+00
 TP4dr  SN3a  1 3.650000e-01    2.110000e+00
 TP4dr  SN2a  1 3.650000e-01    1.750000e+00
 TP4dr  SN1a  1 3.660000e-01    1.600000e+00
 TP4dr  SC6e  1 3.650000e-01    1.750000e+00
 TP4dr  SC5e  1 3.660000e-01    1.600000e+00
 TP4dr  SC4e  1 3.780000e-01    1.450000e+00
 TP4dr  SC3e  1 3.940000e-01    1.290000e+00
 TP4dr  SC2e  1 3.940000e-01    1.290000e+00
 TP4dr  SC1e  1 4.040000e-01    1.130000e+00
 TP4dr  SX4e  1 3.650000e-01    1.910000e+00
 TP4dr  SX3e  1 3.650000e-01    1.750000e+00
 TP4dr  SX2e  1 3.650000e-01    1.750000e+00
 TP4dr  SX1e  1 3.660000e-01    1.600000e+00
 TP4dr  SC6v  1 3.780000e-01    1.450000e+00
 TP4dr  SC5v  1 3.940000e-01    1.290000e+00
 TP4dr  SC4v  1 4.040000e-01    1.130000e+00
 TP4dr  SC3v  1 4.090000e-01    1.080000e+00
 TP4dr  SC2v  1 4.090000e-01    1.080000e+00
 TP4dr  SC1v  1 4.230000e-01    9.810000e-01
 TP4dr  SX4v  1 3.660000e-01    1.600000e+00
 TP4dr  SX3v  1 3.780000e-01    1.450000e+00
 TP4dr  SX2v  1 3.780000e-01    1.450000e+00
 TP4dr  SX1v  1 3.940000e-01    1.290000e+00
 TP4dr  SP3q  1 3.650000e-01    3.370000e+00
 TP4dr  SP2q  1 3.650000e-01    3.370000e+00
 TP4dr  SP1q  1 3.650000e-01    3.100000e+00
 TP4dr  SN6q  1 3.650000e-01    2.830000e+00
 TP4dr  SN5q  1 3.650000e-01    2.570000e+00
 TP4dr  SN4q  1 3.650000e-01    2.570000e+00
 TP4dr  SN3q  1 3.650000e-01    2.340000e+00
 TP4dr  SN2q  1 3.650000e-01    2.110000e+00
 TP4dr  SN1q  1 3.650000e-01    1.910000e+00
 TP4dr  SC6q  1 3.650000e-01    1.910000e+00
 TP4dr  SC5q  1 3.650000e-01    1.750000e+00
 TP4dr  SC4q  1 3.660000e-01    1.600000e+00
 TP4dr  SC3q  1 3.780000e-01    1.450000e+00
 TP4dr  SC2q  1 3.780000e-01    1.450000e+00
 TP4dr  SC1q  1 3.940000e-01    1.290000e+00
 TP4dr  SX4q  1 3.650000e-01    2.110000e+00
 TP4dr  SX3q  1 3.650000e-01    1.910000e+00
 TP4dr  SX2q  1 3.650000e-01    1.910000e+00
 TP4dr  SX1q  1 3.650000e-01    1.750000e+00
 TP3dr  SP2d  1 3.650000e-01    2.570000e+00
 TP3dr  SP1d  1 3.650000e-01    2.340000e+00
 TP3dr  SN6d  1 3.650000e-01    2.110000e+00
 TP3dr  SN5d  1 3.650000e-01    1.910000e+00
 TP3dr  SN4d  1 3.650000e-01    1.910000e+00
 TP3dr  SN3d  1 3.650000e-01    1.750000e+00
 TP3dr  SN2d  1 3.650000e-01    1.750000e+00
 TP3dr  SN1d  1 3.650000e-01    1.750000e+00
 TP3dr  SP3a  1 3.650000e-01    3.100000e+00
 TP3dr  SP2a  1 3.650000e-01    3.100000e+00
 TP3dr  SP1a  1 3.650000e-01    2.830000e+00
 TP3dr  SN6a  1 3.650000e-01    2.570000e+00
 TP3dr  SN5a  1 3.650000e-01    2.340000e+00
 TP3dr  SN4a  1 3.650000e-01    2.340000e+00
 TP3dr  SN3a  1 3.650000e-01    2.110000e+00
 TP3dr  SN2a  1 3.650000e-01    2.110000e+00
 TP3dr  SN1a  1 3.650000e-01    1.750000e+00
 TP3dr  SC6e  1 3.650000e-01    1.910000e+00
 TP3dr  SC5e  1 3.650000e-01    1.750000e+00
 TP3dr  SC4e  1 3.660000e-01    1.600000e+00
 TP3dr  SC3e  1 3.940000e-01    1.290000e+00
 TP3dr  SC2e  1 3.940000e-01    1.290000e+00
 TP3dr  SC1e  1 4.040000e-01    1.130000e+00
 TP3dr  SX4e  1 3.650000e-01    1.910000e+00
 TP3dr  SX3e  1 3.650000e-01    1.910000e+00
 TP3dr  SX2e  1 3.650000e-01    1.750000e+00
 TP3dr  SX1e  1 3.660000e-01    1.600000e+00
 TP3dr  SC6v  1 3.660000e-01    1.600000e+00
 TP3dr  SC5v  1 3.780000e-01    1.450000e+00
 TP3dr  SC4v  1 3.940000e-01    1.290000e+00
 TP3dr  SC3v  1 4.090000e-01    1.080000e+00
 TP3dr  SC2v  1 4.090000e-01    1.080000e+00
 TP3dr  SC1v  1 4.230000e-01    9.810000e-01
 TP3dr  SX4v  1 3.660000e-01    1.600000e+00
 TP3dr  SX3v  1 3.660000e-01    1.600000e+00
 TP3dr  SX2v  1 3.780000e-01    1.450000e+00
 TP3dr  SX1v  1 3.940000e-01    1.290000e+00
 TP3dr  SP2q  1 3.650000e-01    3.370000e+00
 TP3dr  SP1q  1 3.650000e-01    3.100000e+00
 TP3dr  SN6q  1 3.650000e-01    2.830000e+00
 TP3dr  SN5q  1 3.650000e-01    2.570000e+00
 TP3dr  SN4q  1 3.650000e-01    2.570000e+00
 TP3dr  SN3q  1 3.650000e-01    2.340000e+00
 TP3dr  SN2q  1 3.650000e-01    2.340000e+00
 TP3dr  SN1q  1 3.650000e-01    2.110000e+00
 TP3dr  SC6q  1 3.650000e-01    2.110000e+00
 TP3dr  SC5q  1 3.650000e-01    1.910000e+00
 TP3dr  SC4q  1 3.650000e-01    1.750000e+00
 TP3dr  SC3q  1 3.780000e-01    1.450000e+00
 TP3dr  SC2q  1 3.780000e-01    1.450000e+00
 TP3dr  SC1q  1 3.940000e-01    1.290000e+00
 TP3dr  SX4q  1 3.650000e-01    2.110000e+00
 TP3dr  SX3q  1 3.650000e-01    2.110000e+00
 TP3dr  SX2q  1 3.650000e-01    1.910000e+00
 TP3dr  SX1q  1 3.650000e-01    1.750000e+00
 TP2dr  SP1d  1 3.650000e-01    2.340000e+00
 TP2dr  SN6d  1 3.650000e-01    2.340000e+00
 TP2dr  SN5d  1 3.650000e-01    2.110000e+00
 TP2dr  SN4d  1 3.650000e-01    1.910000e+00
 TP2dr  SN3d  1 3.650000e-01    1.750000e+00
 TP2dr  SN2d  1 3.650000e-01    1.750000e+00
 TP2dr  SN1d  1 3.650000e-01    1.750000e+00
 TP2dr  SP2a  1 3.650000e-01    3.100000e+00
 TP2dr  SP1a  1 3.650000e-01    2.830000e+00
 TP2dr  SN6a  1 3.650000e-01    2.830000e+00
 TP2dr  SN5a  1 3.650000e-01    2.570000e+00
 TP2dr  SN4a  1 3.650000e-01    2.340000e+00
 TP2dr  SN3a  1 3.650000e-01    2.110000e+00
 TP2dr  SN2a  1 3.650000e-01    2.110000e+00
 TP2dr  SN1a  1 3.650000e-01    2.110000e+00
 TP2dr  SC6e  1 3.650000e-01    1.910000e+00
 TP2dr  SC5e  1 3.650000e-01    1.750000e+00
 TP2dr  SC4e  1 3.660000e-01    1.600000e+00
 TP2dr  SC3e  1 3.780000e-01    1.450000e+00
 TP2dr  SC2e  1 3.780000e-01    1.450000e+00
 TP2dr  SC1e  1 3.940000e-01    1.290000e+00
 TP2dr  SX4e  1 3.650000e-01    1.910000e+00
 TP2dr  SX3e  1 3.650000e-01    1.910000e+00
 TP2dr  SX2e  1 3.650000e-01    1.750000e+00
 TP2dr  SX1e  1 3.660000e-01    1.600000e+00
 TP2dr  SC6v  1 3.660000e-01    1.600000e+00
 TP2dr  SC5v  1 3.780000e-01    1.450000e+00
 TP2dr  SC4v  1 3.940000e-01    1.290000e+00
 TP2dr  SC3v  1 4.040000e-01    1.130000e+00
 TP2dr  SC2v  1 4.040000e-01    1.130000e+00
 TP2dr  SC1v  1 4.090000e-01    1.080000e+00
 TP2dr  SX4v  1 3.660000e-01    1.600000e+00
 TP2dr  SX3v  1 3.660000e-01    1.600000e+00
 TP2dr  SX2v  1 3.780000e-01    1.450000e+00
 TP2dr  SX1v  1 3.940000e-01    1.290000e+00
 TP2dr  SP1q  1 3.650000e-01    3.100000e+00
 TP2dr  SN6q  1 3.650000e-01    3.100000e+00
 TP2dr  SN5q  1 3.650000e-01    2.830000e+00
 TP2dr  SN4q  1 3.650000e-01    2.570000e+00
 TP2dr  SN3q  1 3.650000e-01    2.340000e+00
 TP2dr  SN2q  1 3.650000e-01    2.340000e+00
 TP2dr  SN1q  1 3.650000e-01    2.340000e+00
 TP2dr  SC6q  1 3.650000e-01    2.110000e+00
 TP2dr  SC5q  1 3.650000e-01    1.910000e+00
 TP2dr  SC4q  1 3.650000e-01    1.750000e+00
 TP2dr  SC3q  1 3.660000e-01    1.600000e+00
 TP2dr  SC2q  1 3.660000e-01    1.600000e+00
 TP2dr  SC1q  1 3.780000e-01    1.450000e+00
 TP2dr  SX4q  1 3.650000e-01    2.110000e+00
 TP2dr  SX3q  1 3.650000e-01    2.110000e+00
 TP2dr  SX2q  1 3.650000e-01    1.910000e+00
 TP2dr  SX1q  1 3.650000e-01    1.750000e+00
 TP1dr  SN6d  1 3.650000e-01    2.340000e+00
 TP1dr  SN5d  1 3.650000e-01    2.110000e+00
 TP1dr  SN4d  1 3.650000e-01    2.110000e+00
 TP1dr  SN3d  1 3.650000e-01    1.750000e+00
 TP1dr  SN2d  1 3.650000e-01    1.750000e+00
 TP1dr  SN1d  1 3.650000e-01    1.750000e+00
 TP1dr  SP1a  1 3.650000e-01    2.830000e+00
 TP1dr  SN6a  1 3.650000e-01    2.830000e+00
 TP1dr  SN5a  1 3.650000e-01    2.570000e+00
 TP1dr  SN4a  1 3.650000e-01    2.570000e+00
 TP1dr  SN3a  1 3.650000e-01    2.110000e+00
 TP1dr  SN2a  1 3.650000e-01    2.110000e+00
 TP1dr  SN1a  1 3.650000e-01    2.110000e+00
 TP1dr  SC6e  1 3.650000e-01    1.910000e+00
 TP1dr  SC5e  1 3.650000e-01    1.750000e+00
 TP1dr  SC4e  1 3.660000e-01    1.600000e+00
 TP1dr  SC3e  1 3.780000e-01    1.450000e+00
 TP1dr  SC2e  1 3.780000e-01    1.450000e+00
 TP1dr  SC1e  1 3.940000e-01    1.290000e+00
 TP1dr  SX4e  1 3.650000e-01    1.910000e+00
 TP1dr  SX3e  1 3.650000e-01    1.910000e+00
 TP1dr  SX2e  1 3.650000e-01    1.750000e+00
 TP1dr  SX1e  1 3.660000e-01    1.600000e+00
 TP1dr  SC6v  1 3.660000e-01    1.600000e+00
 TP1dr  SC5v  1 3.780000e-01    1.450000e+00
 TP1dr  SC4v  1 3.940000e-01    1.290000e+00
 TP1dr  SC3v  1 4.040000e-01    1.130000e+00
 TP1dr  SC2v  1 4.040000e-01    1.130000e+00
 TP1dr  SC1v  1 4.090000e-01    1.080000e+00
 TP1dr  SX4v  1 3.660000e-01    1.600000e+00
 TP1dr  SX3v  1 3.660000e-01    1.600000e+00
 TP1dr  SX2v  1 3.780000e-01    1.450000e+00
 TP1dr  SX1v  1 3.940000e-01    1.290000e+00
 TP1dr  SN6q  1 3.650000e-01    3.100000e+00
 TP1dr  SN5q  1 3.650000e-01    2.830000e+00
 TP1dr  SN4q  1 3.650000e-01    2.830000e+00
 TP1dr  SN3q  1 3.650000e-01    2.340000e+00
 TP1dr  SN2q  1 3.650000e-01    2.340000e+00
 TP1dr  SN1q  1 3.650000e-01    2.340000e+00
 TP1dr  SC6q  1 3.650000e-01    2.110000e+00
 TP1dr  SC5q  1 3.650000e-01    1.910000e+00
 TP1dr  SC4q  1 3.650000e-01    1.750000e+00
 TP1dr  SC3q  1 3.660000e-01    1.600000e+00
 TP1dr  SC2q  1 3.660000e-01    1.600000e+00
 TP1dr  SC1q  1 3.780000e-01    1.450000e+00
 TP1dr  SX4q  1 3.650000e-01    2.110000e+00
 TP1dr  SX3q  1 3.650000e-01    2.110000e+00
 TP1dr  SX2q  1 3.650000e-01    1.910000e+00
 TP1dr  SX1q  1 3.650000e-01    1.750000e+00
 TN6dr  SN5d  1 3.650000e-01    2.340000e+00
 TN6dr  SN4d  1 3.650000e-01    2.340000e+00
 TN6dr  SN3d  1 3.650000e-01    1.910000e+00
 TN6dr  SN2d  1 3.650000e-01    1.750000e+00
 TN6dr  SN1d  1 3.650000e-01    1.750000e+00
 TN6dr  SN6a  1 3.650000e-01    2.830000e+00
 TN6dr  SN5a  1 3.650000e-01    2.830000e+00
 TN6dr  SN4a  1 3.650000e-01    2.830000e+00
 TN6dr  SN3a  1 3.650000e-01    2.340000e+00
 TN6dr  SN2a  1 3.650000e-01    2.110000e+00
 TN6dr  SN1a  1 3.650000e-01    2.110000e+00
 TN6dr  SC6e  1 3.650000e-01    2.110000e+00
 TN6dr  SC5e  1 3.650000e-01    1.910000e+00
 TN6dr  SC4e  1 3.650000e-01    1.750000e+00
 TN6dr  SC3e  1 3.660000e-01    1.600000e+00
 TN6dr  SC2e  1 3.660000e-01    1.600000e+00
 TN6dr  SC1e  1 3.780000e-01    1.450000e+00
 TN6dr  SX4e  1 3.650000e-01    2.110000e+00
 TN6dr  SX3e  1 3.650000e-01    1.910000e+00
 TN6dr  SX2e  1 3.650000e-01    1.750000e+00
 TN6dr  SX1e  1 3.660000e-01    1.600000e+00
 TN6dr  SC6v  1 3.650000e-01    1.750000e+00
 TN6dr  SC5v  1 3.660000e-01    1.600000e+00
 TN6dr  SC4v  1 3.780000e-01    1.450000e+00
 TN6dr  SC3v  1 3.940000e-01    1.290000e+00
 TN6dr  SC2v  1 3.940000e-01    1.290000e+00
 TN6dr  SC1v  1 4.040000e-01    1.130000e+00
 TN6dr  SX4v  1 3.650000e-01    1.750000e+00
 TN6dr  SX3v  1 3.660000e-01    1.600000e+00
 TN6dr  SX2v  1 3.780000e-01    1.450000e+00
 TN6dr  SX1v  1 3.940000e-01    1.290000e+00
 TN6dr  SN5q  1 3.650000e-01    3.100000e+00
 TN6dr  SN4q  1 3.650000e-01    3.100000e+00
 TN6dr  SN3q  1 3.650000e-01    2.570000e+00
 TN6dr  SN2q  1 3.650000e-01    2.340000e+00
 TN6dr  SN1q  1 3.650000e-01    2.340000e+00
 TN6dr  SC6q  1 3.650000e-01    2.340000e+00
 TN6dr  SC5q  1 3.650000e-01    2.110000e+00
 TN6dr  SC4q  1 3.650000e-01    1.910000e+00
 TN6dr  SC3q  1 3.650000e-01    1.750000e+00
 TN6dr  SC2q  1 3.650000e-01    1.750000e+00
 TN6dr  SC1q  1 3.660000e-01    1.600000e+00
 TN6dr  SX4q  1 3.650000e-01    2.340000e+00
 TN6dr  SX3q  1 3.650000e-01    2.110000e+00
 TN6dr  SX2q  1 3.650000e-01    1.910000e+00
 TN6dr  SX1q  1 3.650000e-01    1.750000e+00
 TN5dr  SN4d  1 3.650000e-01    2.110000e+00
 TN5dr  SN3d  1 3.650000e-01    1.910000e+00
 TN5dr  SN2d  1 3.650000e-01    1.910000e+00
 TN5dr  SN1d  1 3.650000e-01    1.750000e+00
 TN5dr  SN5a  1 3.650000e-01    2.570000e+00
 TN5dr  SN4a  1 3.650000e-01    2.570000e+00
 TN5dr  SN3a  1 3.650000e-01    2.340000e+00
 TN5dr  SN2a  1 3.650000e-01    2.340000e+00
 TN5dr  SN1a  1 3.650000e-01    2.110000e+00
 TN5dr  SC6e  1 3.650000e-01    2.110000e+00
 TN5dr  SC5e  1 3.650000e-01    1.910000e+00
 TN5dr  SC4e  1 3.650000e-01    1.750000e+00
 TN5dr  SC3e  1 3.650000e-01    1.750000e+00
 TN5dr  SC2e  1 3.660000e-01    1.600000e+00
 TN5dr  SC1e  1 3.780000e-01    1.450000e+00
 TN5dr  SX4e  1 3.650000e-01    2.340000e+00
 TN5dr  SX3e  1 3.650000e-01    2.110000e+00
 TN5dr  SX2e  1 3.650000e-01    1.910000e+00
 TN5dr  SX1e  1 3.650000e-01    1.750000e+00
 TN5dr  SC6v  1 3.650000e-01    1.750000e+00
 TN5dr  SC5v  1 3.660000e-01    1.600000e+00
 TN5dr  SC4v  1 3.780000e-01    1.450000e+00
 TN5dr  SC3v  1 3.780000e-01    1.450000e+00
 TN5dr  SC2v  1 3.940000e-01    1.290000e+00
 TN5dr  SC1v  1 4.040000e-01    1.130000e+00
 TN5dr  SX4v  1 3.650000e-01    1.910000e+00
 TN5dr  SX3v  1 3.650000e-01    1.750000e+00
 TN5dr  SX2v  1 3.660000e-01    1.600000e+00
 TN5dr  SX1v  1 3.780000e-01    1.450000e+00
 TN5dr  SN4q  1 3.650000e-01    2.830000e+00
 TN5dr  SN3q  1 3.650000e-01    2.570000e+00
 TN5dr  SN2q  1 3.650000e-01    2.570000e+00
 TN5dr  SN1q  1 3.650000e-01    2.340000e+00
 TN5dr  SC6q  1 3.650000e-01    2.340000e+00
 TN5dr  SC5q  1 3.650000e-01    2.110000e+00
 TN5dr  SC4q  1 3.650000e-01    1.910000e+00
 TN5dr  SC3q  1 3.650000e-01    1.910000e+00
 TN5dr  SC2q  1 3.650000e-01    1.750000e+00
 TN5dr  SC1q  1 3.660000e-01    1.600000e+00
 TN5dr  SX4q  1 3.650000e-01    2.570000e+00
 TN5dr  SX3q  1 3.650000e-01    2.340000e+00
 TN5dr  SX2q  1 3.650000e-01    2.110000e+00
 TN5dr  SX1q  1 3.650000e-01    1.910000e+00
 TN4dr  SN3d  1 3.650000e-01    1.910000e+00
 TN4dr  SN2d  1 3.650000e-01    1.910000e+00
 TN4dr  SN1d  1 3.650000e-01    1.750000e+00
 TN4dr  SN4a  1 3.650000e-01    2.570000e+00
 TN4dr  SN3a  1 3.650000e-01    2.340000e+00
 TN4dr  SN2a  1 3.650000e-01    2.340000e+00
 TN4dr  SN1a  1 3.650000e-01    2.110000e+00
 TN4dr  SC6e  1 3.650000e-01    2.110000e+00
 TN4dr  SC5e  1 3.650000e-01    1.910000e+00
 TN4dr  SC4e  1 3.650000e-01    1.910000e+00
 TN4dr  SC3e  1 3.650000e-01    1.750000e+00
 TN4dr  SC2e  1 3.660000e-01    1.600000e+00
 TN4dr  SC1e  1 3.780000e-01    1.450000e+00
 TN4dr  SX4e  1 3.650000e-01    2.570000e+00
 TN4dr  SX3e  1 3.650000e-01    2.340000e+00
 TN4dr  SX2e  1 3.650000e-01    1.910000e+00
 TN4dr  SX1e  1 3.650000e-01    1.750000e+00
 TN4dr  SC6v  1 3.650000e-01    1.750000e+00
 TN4dr  SC5v  1 3.660000e-01    1.600000e+00
 TN4dr  SC4v  1 3.660000e-01    1.600000e+00
 TN4dr  SC3v  1 3.780000e-01    1.450000e+00
 TN4dr  SC2v  1 3.940000e-01    1.290000e+00
 TN4dr  SC1v  1 4.040000e-01    1.130000e+00
 TN4dr  SX4v  1 3.650000e-01    2.110000e+00
 TN4dr  SX3v  1 3.650000e-01    1.910000e+00
 TN4dr  SX2v  1 3.660000e-01    1.600000e+00
 TN4dr  SX1v  1 3.780000e-01    1.450000e+00
 TN4dr  SN3q  1 3.650000e-01    2.570000e+00
 TN4dr  SN2q  1 3.650000e-01    2.570000e+00
 TN4dr  SN1q  1 3.650000e-01    2.340000e+00
 TN4dr  SC6q  1 3.650000e-01    2.340000e+00
 TN4dr  SC5q  1 3.650000e-01    2.110000e+00
 TN4dr  SC4q  1 3.650000e-01    2.110000e+00
 TN4dr  SC3q  1 3.650000e-01    1.910000e+00
 TN4dr  SC2q  1 3.650000e-01    1.750000e+00
 TN4dr  SC1q  1 3.660000e-01    1.600000e+00
 TN4dr  SX4q  1 3.650000e-01    2.830000e+00
 TN4dr  SX3q  1 3.650000e-01    2.570000e+00
 TN4dr  SX2q  1 3.650000e-01    2.110000e+00
 TN4dr  SX1q  1 3.650000e-01    1.910000e+00
 TN3dr  SN2d  1 3.650000e-01    1.910000e+00
 TN3dr  SN1d  1 3.650000e-01    1.750000e+00
 TN3dr  SN3a  1 3.650000e-01    2.340000e+00
 TN3dr  SN2a  1 3.650000e-01    2.340000e+00
 TN3dr  SN1a  1 3.650000e-01    2.110000e+00
 TN3dr  SC6e  1 3.650000e-01    2.110000e+00
 TN3dr  SC5e  1 3.650000e-01    1.910000e+00
 TN3dr  SC4e  1 3.650000e-01    1.910000e+00
 TN3dr  SC3e  1 3.650000e-01    1.750000e+00
 TN3dr  SC2e  1 3.650000e-01    1.750000e+00
 TN3dr  SC1e  1 3.660000e-01    1.600000e+00
 TN3dr  SX4e  1 3.650000e-01    2.340000e+00
 TN3dr  SX3e  1 3.650000e-01    2.110000e+00
 TN3dr  SX2e  1 3.650000e-01    1.910000e+00
 TN3dr  SX1e  1 3.650000e-01    1.910000e+00
 TN3dr  SC6v  1 3.650000e-01    1.750000e+00
 TN3dr  SC5v  1 3.660000e-01    1.600000e+00
 TN3dr  SC4v  1 3.660000e-01    1.600000e+00
 TN3dr  SC3v  1 3.780000e-01    1.450000e+00
 TN3dr  SC2v  1 3.780000e-01    1.450000e+00
 TN3dr  SC1v  1 3.940000e-01    1.290000e+00
 TN3dr  SX4v  1 3.650000e-01    1.910000e+00
 TN3dr  SX3v  1 3.650000e-01    1.750000e+00
 TN3dr  SX2v  1 3.660000e-01    1.600000e+00
 TN3dr  SX1v  1 3.660000e-01    1.600000e+00
 TN3dr  SN2q  1 3.650000e-01    2.570000e+00
 TN3dr  SN1q  1 3.650000e-01    2.340000e+00
 TN3dr  SC6q  1 3.650000e-01    2.340000e+00
 TN3dr  SC5q  1 3.650000e-01    2.110000e+00
 TN3dr  SC4q  1 3.650000e-01    2.110000e+00
 TN3dr  SC3q  1 3.650000e-01    1.910000e+00
 TN3dr  SC2q  1 3.650000e-01    1.910000e+00
 TN3dr  SC1q  1 3.650000e-01    1.750000e+00
 TN3dr  SX4q  1 3.650000e-01    2.570000e+00
 TN3dr  SX3q  1 3.650000e-01    2.340000e+00
 TN3dr  SX2q  1 3.650000e-01    2.110000e+00
 TN3dr  SX1q  1 3.650000e-01    2.110000e+00
 TN2dr  SN1d  1 3.650000e-01    1.750000e+00
 TN2dr  SN2a  1 3.650000e-01    2.340000e+00
 TN2dr  SN1a  1 3.650000e-01    2.110000e+00
 TN2dr  SC6e  1 3.650000e-01    2.110000e+00
 TN2dr  SC5e  1 3.650000e-01    1.910000e+00
 TN2dr  SC4e  1 3.650000e-01    1.910000e+00
 TN2dr  SC3e  1 3.650000e-01    1.910000e+00
 TN2dr  SC2e  1 3.650000e-01    1.750000e+00
 TN2dr  SC1e  1 3.660000e-01    1.600000e+00
 TN2dr  SX4e  1 3.650000e-01    2.340000e+00
 TN2dr  SX3e  1 3.650000e-01    2.110000e+00
 TN2dr  SX2e  1 3.650000e-01    1.910000e+00
 TN2dr  SX1e  1 3.650000e-01    1.910000e+00
 TN2dr  SC6v  1 3.650000e-01    1.750000e+00
 TN2dr  SC5v  1 3.660000e-01    1.600000e+00
 TN2dr  SC4v  1 3.660000e-01    1.600000e+00
 TN2dr  SC3v  1 3.660000e-01    1.600000e+00
 TN2dr  SC2v  1 3.780000e-01    1.450000e+00
 TN2dr  SC1v  1 3.940000e-01    1.290000e+00
 TN2dr  SX4v  1 3.650000e-01    1.910000e+00
 TN2dr  SX3v  1 3.650000e-01    1.750000e+00
 TN2dr  SX2v  1 3.660000e-01    1.600000e+00
 TN2dr  SX1v  1 3.660000e-01    1.600000e+00
 TN2dr  SN1q  1 3.650000e-01    2.340000e+00
 TN2dr  SC6q  1 3.650000e-01    2.340000e+00
 TN2dr  SC5q  1 3.650000e-01    2.110000e+00
 TN2dr  SC4q  1 3.650000e-01    2.110000e+00
 TN2dr  SC3q  1 3.650000e-01    2.110000e+00
 TN2dr  SC2q  1 3.650000e-01    1.910000e+00
 TN2dr  SC1q  1 3.650000e-01    1.750000e+00
 TN2dr  SX4q  1 3.650000e-01    2.570000e+00
 TN2dr  SX3q  1 3.650000e-01    2.340000e+00
 TN2dr  SX2q  1 3.650000e-01    2.110000e+00
 TN2dr  SX1q  1 3.650000e-01    2.110000e+00
 TN1dr  SN1a  1 3.650000e-01    2.340000e+00
 TN1dr  SC6e  1 3.650000e-01    2.340000e+00
 TN1dr  SC5e  1 3.650000e-01    2.110000e+00
 TN1dr  SC4e  1 3.650000e-01    2.110000e+00
 TN1dr  SC3e  1 3.650000e-01    1.910000e+00
 TN1dr  SC2e  1 3.650000e-01    1.750000e+00
 TN1dr  SC1e  1 3.660000e-01    1.600000e+00
 TN1dr  SX4e  1 3.650000e-01    2.110000e+00
 TN1dr  SX3e  1 3.650000e-01    2.110000e+00
 TN1dr  SX2e  1 3.650000e-01    1.910000e+00
 TN1dr  SX1e  1 3.650000e-01    1.910000e+00
 TN1dr  SC6v  1 3.650000e-01    1.910000e+00
 TN1dr  SC5v  1 3.650000e-01    1.750000e+00
 TN1dr  SC4v  1 3.650000e-01    1.750000e+00
 TN1dr  SC3v  1 3.660000e-01    1.600000e+00
 TN1dr  SC2v  1 3.780000e-01    1.450000e+00
 TN1dr  SC1v  1 3.940000e-01    1.290000e+00
 TN1dr  SX4v  1 3.650000e-01    1.750000e+00
 TN1dr  SX3v  1 3.650000e-01    1.750000e+00
 TN1dr  SX2v  1 3.660000e-01    1.600000e+00
 TN1dr  SX1v  1 3.660000e-01    1.600000e+00
 TN1dr  SC6q  1 3.650000e-01    2.570000e+00
 TN1dr  SC5q  1 3.650000e-01    2.340000e+00
 TN1dr  SC4q  1 3.650000e-01    2.340000e+00
 TN1dr  SC3q  1 3.650000e-01    2.110000e+00
 TN1dr  SC2q  1 3.650000e-01    1.910000e+00
 TN1dr  SC1q  1 3.650000e-01    1.750000e+00
 TN1dr  SX4q  1 3.650000e-01    2.340000e+00
 TN1dr  SX3q  1 3.650000e-01    2.340000e+00
 TN1dr  SX2q  1 3.650000e-01    2.110000e+00
 TN1dr  SX1q  1 3.650000e-01    2.110000e+00
 TP6ar  SP5a  1 3.650000e-01    3.370000e+00
 TP6ar  SP4a  1 3.650000e-01    3.100000e+00
 TP6ar  SP3a  1 3.650000e-01    2.830000e+00
 TP6ar  SP2a  1 3.650000e-01    2.830000e+00
 TP6ar  SP1a  1 3.650000e-01    2.570000e+00
 TP6ar  SN6a  1 3.650000e-01    2.340000e+00
 TP6ar  SN5a  1 3.650000e-01    1.910000e+00
 TP6ar  SN4a  1 3.650000e-01    1.750000e+00
 TP6ar  SN3a  1 3.650000e-01    1.750000e+00
 TP6ar  SN2a  1 3.660000e-01    1.600000e+00
 TP6ar  SN1a  1 3.780000e-01    1.450000e+00
 TP6ar  SC6v  1 3.660000e-01    1.600000e+00
 TP6ar  SC5v  1 3.780000e-01    1.450000e+00
 TP6ar  SC4v  1 3.940000e-01    1.290000e+00
 TP6ar  SC3v  1 4.040000e-01    1.130000e+00
 TP6ar  SC2v  1 4.040000e-01    1.130000e+00
 TP6ar  SC1v  1 4.230000e-01    9.810000e-01
 TP6ar  SX4v  1 3.650000e-01    1.750000e+00
 TP6ar  SX3v  1 3.650000e-01    1.750000e+00
 TP6ar  SX2v  1 3.660000e-01    1.600000e+00
 TP6ar  SX1v  1 3.780000e-01    1.450000e+00
 TP6ar  SC6e  1 3.940000e-01    1.290000e+00
 TP6ar  SC5e  1 4.040000e-01    1.130000e+00
 TP6ar  SC4e  1 4.090000e-01    1.080000e+00
 TP6ar  SC3e  1 4.230000e-01    9.810000e-01
 TP6ar  SC2e  1 4.230000e-01    9.810000e-01
 TP6ar  SC1e  1 5.370000e-01    8.080000e-01
 TP6ar  SX4e  1 3.780000e-01    1.450000e+00
 TP6ar  SX3e  1 3.780000e-01    1.450000e+00
 TP6ar  SX2e  1 3.940000e-01    1.290000e+00
 TP6ar  SX1e  1 4.040000e-01    1.130000e+00
 TP6ar  SP5q  1 3.650000e-01    4.220000e+00
 TP6ar  SP4q  1 3.650000e-01    3.930000e+00
 TP6ar  SP3q  1 3.650000e-01    3.640000e+00
 TP6ar  SP2q  1 3.650000e-01    3.640000e+00
 TP6ar  SP1q  1 3.650000e-01    3.370000e+00
 TP6ar  SN6q  1 3.650000e-01    3.100000e+00
 TP6ar  SN5q  1 3.650000e-01    2.570000e+00
 TP6ar  SN4q  1 3.650000e-01    2.340000e+00
 TP6ar  SN3q  1 3.650000e-01    2.110000e+00
 TP6ar  SN2q  1 3.650000e-01    1.910000e+00
 TP6ar  SN1q  1 3.650000e-01    1.750000e+00
 TP6ar  SC6q  1 3.650000e-01    1.750000e+00
 TP6ar  SC5q  1 3.660000e-01    1.600000e+00
 TP6ar  SC4q  1 3.780000e-01    1.450000e+00
 TP6ar  SC3q  1 3.940000e-01    1.290000e+00
 TP6ar  SC2q  1 3.940000e-01    1.290000e+00
 TP6ar  SC1q  1 4.090000e-01    1.080000e+00
 TP6ar  SX4q  1 3.650000e-01    1.910000e+00
 TP6ar  SX3q  1 3.650000e-01    1.910000e+00
 TP6ar  SX2q  1 3.650000e-01    1.750000e+00
 TP6ar  SX1q  1 3.660000e-01    1.600000e+00
 TP5ar  SP4a  1 3.650000e-01    2.830000e+00
 TP5ar  SP3a  1 3.650000e-01    2.570000e+00
 TP5ar  SP2a  1 3.650000e-01    2.570000e+00
 TP5ar  SP1a  1 3.650000e-01    2.340000e+00
 TP5ar  SN6a  1 3.650000e-01    2.110000e+00
 TP5ar  SN5a  1 3.650000e-01    1.910000e+00
 TP5ar  SN4a  1 3.650000e-01    1.910000e+00
 TP5ar  SN3a  1 3.650000e-01    1.750000e+00
 TP5ar  SN2a  1 3.660000e-01    1.600000e+00
 TP5ar  SN1a  1 3.780000e-01    1.450000e+00
 TP5ar  SC6v  1 3.660000e-01    1.600000e+00
 TP5ar  SC5v  1 3.660000e-01    1.600000e+00
 TP5ar  SC4v  1 3.780000e-01    1.450000e+00
 TP5ar  SC3v  1 3.940000e-01    1.290000e+00
 TP5ar  SC2v  1 3.940000e-01    1.290000e+00
 TP5ar  SC1v  1 4.040000e-01    1.130000e+00
 TP5ar  SX4v  1 3.650000e-01    1.910000e+00
 TP5ar  SX3v  1 3.650000e-01    1.750000e+00
 TP5ar  SX2v  1 3.650000e-01    1.750000e+00
 TP5ar  SX1v  1 3.780000e-01    1.450000e+00
 TP5ar  SC6e  1 3.940000e-01    1.290000e+00
 TP5ar  SC5e  1 3.940000e-01    1.290000e+00
 TP5ar  SC4e  1 4.040000e-01    1.130000e+00
 TP5ar  SC3e  1 4.090000e-01    1.080000e+00
 TP5ar  SC2e  1 4.090000e-01    1.080000e+00
 TP5ar  SC1e  1 4.230000e-01    9.810000e-01
 TP5ar  SX4e  1 3.660000e-01    1.600000e+00
 TP5ar  SX3e  1 3.780000e-01    1.450000e+00
 TP5ar  SX2e  1 3.780000e-01    1.450000e+00
 TP5ar  SX1e  1 4.040000e-01    1.130000e+00
 TP5ar  SP4q  1 3.650000e-01    3.640000e+00
 TP5ar  SP3q  1 3.650000e-01    3.370000e+00
 TP5ar  SP2q  1 3.650000e-01    3.370000e+00
 TP5ar  SP1q  1 3.650000e-01    3.100000e+00
 TP5ar  SN6q  1 3.650000e-01    2.830000e+00
 TP5ar  SN5q  1 3.650000e-01    2.570000e+00
 TP5ar  SN4q  1 3.650000e-01    2.570000e+00
 TP5ar  SN3q  1 3.650000e-01    2.110000e+00
 TP5ar  SN2q  1 3.650000e-01    1.910000e+00
 TP5ar  SN1q  1 3.650000e-01    1.750000e+00
 TP5ar  SC6q  1 3.650000e-01    1.750000e+00
 TP5ar  SC5q  1 3.650000e-01    1.750000e+00
 TP5ar  SC4q  1 3.660000e-01    1.600000e+00
 TP5ar  SC3q  1 3.780000e-01    1.450000e+00
 TP5ar  SC2q  1 3.780000e-01    1.450000e+00
 TP5ar  SC1q  1 3.940000e-01    1.290000e+00
 TP5ar  SX4q  1 3.650000e-01    2.110000e+00
 TP5ar  SX3q  1 3.650000e-01    1.910000e+00
 TP5ar  SX2q  1 3.650000e-01    1.910000e+00
 TP5ar  SX1q  1 3.660000e-01    1.600000e+00
 TP4ar  SP3a  1 3.650000e-01    2.570000e+00
 TP4ar  SP2a  1 3.650000e-01    2.570000e+00
 TP4ar  SP1a  1 3.650000e-01    2.340000e+00
 TP4ar  SN6a  1 3.650000e-01    2.110000e+00
 TP4ar  SN5a  1 3.650000e-01    1.910000e+00
 TP4ar  SN4a  1 3.650000e-01    1.910000e+00
 TP4ar  SN3a  1 3.650000e-01    1.750000e+00
 TP4ar  SN2a  1 3.650000e-01    1.750000e+00
 TP4ar  SN1a  1 3.660000e-01    1.600000e+00
 TP4ar  SC6v  1 3.650000e-01    1.750000e+00
 TP4ar  SC5v  1 3.660000e-01    1.600000e+00
 TP4ar  SC4v  1 3.780000e-01    1.450000e+00
 TP4ar  SC3v  1 3.940000e-01    1.290000e+00
 TP4ar  SC2v  1 3.940000e-01    1.290000e+00
 TP4ar  SC1v  1 4.040000e-01    1.130000e+00
 TP4ar  SX4v  1 3.650000e-01    1.910000e+00
 TP4ar  SX3v  1 3.650000e-01    1.750000e+00
 TP4ar  SX2v  1 3.650000e-01    1.750000e+00
 TP4ar  SX1v  1 3.660000e-01    1.600000e+00
 TP4ar  SC6e  1 3.780000e-01    1.450000e+00
 TP4ar  SC5e  1 3.940000e-01    1.290000e+00
 TP4ar  SC4e  1 4.040000e-01    1.130000e+00
 TP4ar  SC3e  1 4.090000e-01    1.080000e+00
 TP4ar  SC2e  1 4.090000e-01    1.080000e+00
 TP4ar  SC1e  1 4.230000e-01    9.810000e-01
 TP4ar  SX4e  1 3.660000e-01    1.600000e+00
 TP4ar  SX3e  1 3.780000e-01    1.450000e+00
 TP4ar  SX2e  1 3.780000e-01    1.450000e+00
 TP4ar  SX1e  1 3.940000e-01    1.290000e+00
 TP4ar  SP3q  1 3.650000e-01    3.370000e+00
 TP4ar  SP2q  1 3.650000e-01    3.370000e+00
 TP4ar  SP1q  1 3.650000e-01    3.100000e+00
 TP4ar  SN6q  1 3.650000e-01    2.830000e+00
 TP4ar  SN5q  1 3.650000e-01    2.570000e+00
 TP4ar  SN4q  1 3.650000e-01    2.570000e+00
 TP4ar  SN3q  1 3.650000e-01    2.340000e+00
 TP4ar  SN2q  1 3.650000e-01    2.110000e+00
 TP4ar  SN1q  1 3.650000e-01    1.910000e+00
 TP4ar  SC6q  1 3.650000e-01    1.910000e+00
 TP4ar  SC5q  1 3.650000e-01    1.750000e+00
 TP4ar  SC4q  1 3.660000e-01    1.600000e+00
 TP4ar  SC3q  1 3.780000e-01    1.450000e+00
 TP4ar  SC2q  1 3.780000e-01    1.450000e+00
 TP4ar  SC1q  1 3.940000e-01    1.290000e+00
 TP4ar  SX4q  1 3.650000e-01    2.110000e+00
 TP4ar  SX3q  1 3.650000e-01    1.910000e+00
 TP4ar  SX2q  1 3.650000e-01    1.910000e+00
 TP4ar  SX1q  1 3.650000e-01    1.750000e+00
 TP3ar  SP2a  1 3.650000e-01    2.570000e+00
 TP3ar  SP1a  1 3.650000e-01    2.340000e+00
 TP3ar  SN6a  1 3.650000e-01    2.110000e+00
 TP3ar  SN5a  1 3.650000e-01    1.910000e+00
 TP3ar  SN4a  1 3.650000e-01    1.910000e+00
 TP3ar  SN3a  1 3.650000e-01    1.750000e+00
 TP3ar  SN2a  1 3.650000e-01    1.750000e+00
 TP3ar  SN1a  1 3.650000e-01    1.750000e+00
 TP3ar  SC6v  1 3.650000e-01    1.910000e+00
 TP3ar  SC5v  1 3.650000e-01    1.750000e+00
 TP3ar  SC4v  1 3.660000e-01    1.600000e+00
 TP3ar  SC3v  1 3.940000e-01    1.290000e+00
 TP3ar  SC2v  1 3.940000e-01    1.290000e+00
 TP3ar  SC1v  1 4.040000e-01    1.130000e+00
 TP3ar  SX4v  1 3.650000e-01    1.910000e+00
 TP3ar  SX3v  1 3.650000e-01    1.910000e+00
 TP3ar  SX2v  1 3.650000e-01    1.750000e+00
 TP3ar  SX1v  1 3.660000e-01    1.600000e+00
 TP3ar  SC6e  1 3.660000e-01    1.600000e+00
 TP3ar  SC5e  1 3.780000e-01    1.450000e+00
 TP3ar  SC4e  1 3.940000e-01    1.290000e+00
 TP3ar  SC3e  1 4.090000e-01    1.080000e+00
 TP3ar  SC2e  1 4.090000e-01    1.080000e+00
 TP3ar  SC1e  1 4.230000e-01    9.810000e-01
 TP3ar  SX4e  1 3.660000e-01    1.600000e+00
 TP3ar  SX3e  1 3.660000e-01    1.600000e+00
 TP3ar  SX2e  1 3.780000e-01    1.450000e+00
 TP3ar  SX1e  1 3.940000e-01    1.290000e+00
 TP3ar  SP2q  1 3.650000e-01    3.370000e+00
 TP3ar  SP1q  1 3.650000e-01    3.100000e+00
 TP3ar  SN6q  1 3.650000e-01    2.830000e+00
 TP3ar  SN5q  1 3.650000e-01    2.570000e+00
 TP3ar  SN4q  1 3.650000e-01    2.570000e+00
 TP3ar  SN3q  1 3.650000e-01    2.340000e+00
 TP3ar  SN2q  1 3.650000e-01    2.340000e+00
 TP3ar  SN1q  1 3.650000e-01    2.110000e+00
 TP3ar  SC6q  1 3.650000e-01    2.110000e+00
 TP3ar  SC5q  1 3.650000e-01    1.910000e+00
 TP3ar  SC4q  1 3.650000e-01    1.750000e+00
 TP3ar  SC3q  1 3.780000e-01    1.450000e+00
 TP3ar  SC2q  1 3.780000e-01    1.450000e+00
 TP3ar  SC1q  1 3.940000e-01    1.290000e+00
 TP3ar  SX4q  1 3.650000e-01    2.110000e+00
 TP3ar  SX3q  1 3.650000e-01    2.110000e+00
 TP3ar  SX2q  1 3.650000e-01    1.910000e+00
 TP3ar  SX1q  1 3.650000e-01    1.750000e+00
 TP2ar  SP1a  1 3.650000e-01    2.340000e+00
 TP2ar  SN6a  1 3.650000e-01    2.340000e+00
 TP2ar  SN5a  1 3.650000e-01    2.110000e+00
 TP2ar  SN4a  1 3.650000e-01    1.910000e+00
 TP2ar  SN3a  1 3.650000e-01    1.750000e+00
 TP2ar  SN2a  1 3.650000e-01    1.750000e+00
 TP2ar  SN1a  1 3.650000e-01    1.750000e+00
 TP2ar  SC6v  1 3.650000e-01    1.910000e+00
 TP2ar  SC5v  1 3.650000e-01    1.750000e+00
 TP2ar  SC4v  1 3.660000e-01    1.600000e+00
 TP2ar  SC3v  1 3.780000e-01    1.450000e+00
 TP2ar  SC2v  1 3.780000e-01    1.450000e+00
 TP2ar  SC1v  1 3.940000e-01    1.290000e+00
 TP2ar  SX4v  1 3.650000e-01    1.910000e+00
 TP2ar  SX3v  1 3.650000e-01    1.910000e+00
 TP2ar  SX2v  1 3.650000e-01    1.750000e+00
 TP2ar  SX1v  1 3.660000e-01    1.600000e+00
 TP2ar  SC6e  1 3.660000e-01    1.600000e+00
 TP2ar  SC5e  1 3.780000e-01    1.450000e+00
 TP2ar  SC4e  1 3.940000e-01    1.290000e+00
 TP2ar  SC3e  1 4.040000e-01    1.130000e+00
 TP2ar  SC2e  1 4.040000e-01    1.130000e+00
 TP2ar  SC1e  1 4.090000e-01    1.080000e+00
 TP2ar  SX4e  1 3.660000e-01    1.600000e+00
 TP2ar  SX3e  1 3.660000e-01    1.600000e+00
 TP2ar  SX2e  1 3.780000e-01    1.450000e+00
 TP2ar  SX1e  1 3.940000e-01    1.290000e+00
 TP2ar  SP1q  1 3.650000e-01    3.100000e+00
 TP2ar  SN6q  1 3.650000e-01    3.100000e+00
 TP2ar  SN5q  1 3.650000e-01    2.830000e+00
 TP2ar  SN4q  1 3.650000e-01    2.570000e+00
 TP2ar  SN3q  1 3.650000e-01    2.340000e+00
 TP2ar  SN2q  1 3.650000e-01    2.340000e+00
 TP2ar  SN1q  1 3.650000e-01    2.340000e+00
 TP2ar  SC6q  1 3.650000e-01    2.110000e+00
 TP2ar  SC5q  1 3.650000e-01    1.910000e+00
 TP2ar  SC4q  1 3.650000e-01    1.750000e+00
 TP2ar  SC3q  1 3.660000e-01    1.600000e+00
 TP2ar  SC2q  1 3.660000e-01    1.600000e+00
 TP2ar  SC1q  1 3.780000e-01    1.450000e+00
 TP2ar  SX4q  1 3.650000e-01    2.110000e+00
 TP2ar  SX3q  1 3.650000e-01    2.110000e+00
 TP2ar  SX2q  1 3.650000e-01    1.910000e+00
 TP2ar  SX1q  1 3.650000e-01    1.750000e+00
 TP1ar  SN6a  1 3.650000e-01    2.340000e+00
 TP1ar  SN5a  1 3.650000e-01    2.110000e+00
 TP1ar  SN4a  1 3.650000e-01    2.110000e+00
 TP1ar  SN3a  1 3.650000e-01    1.750000e+00
 TP1ar  SN2a  1 3.650000e-01    1.750000e+00
 TP1ar  SN1a  1 3.650000e-01    1.750000e+00
 TP1ar  SC6v  1 3.650000e-01    1.910000e+00
 TP1ar  SC5v  1 3.650000e-01    1.750000e+00
 TP1ar  SC4v  1 3.660000e-01    1.600000e+00
 TP1ar  SC3v  1 3.780000e-01    1.450000e+00
 TP1ar  SC2v  1 3.780000e-01    1.450000e+00
 TP1ar  SC1v  1 3.940000e-01    1.290000e+00
 TP1ar  SX4v  1 3.650000e-01    1.910000e+00
 TP1ar  SX3v  1 3.650000e-01    1.910000e+00
 TP1ar  SX2v  1 3.650000e-01    1.750000e+00
 TP1ar  SX1v  1 3.660000e-01    1.600000e+00
 TP1ar  SC6e  1 3.660000e-01    1.600000e+00
 TP1ar  SC5e  1 3.780000e-01    1.450000e+00
 TP1ar  SC4e  1 3.940000e-01    1.290000e+00
 TP1ar  SC3e  1 4.040000e-01    1.130000e+00
 TP1ar  SC2e  1 4.040000e-01    1.130000e+00
 TP1ar  SC1e  1 4.090000e-01    1.080000e+00
 TP1ar  SX4e  1 3.660000e-01    1.600000e+00
 TP1ar  SX3e  1 3.660000e-01    1.600000e+00
 TP1ar  SX2e  1 3.780000e-01    1.450000e+00
 TP1ar  SX1e  1 3.940000e-01    1.290000e+00
 TP1ar  SN6q  1 3.650000e-01    3.100000e+00
 TP1ar  SN5q  1 3.650000e-01    2.830000e+00
 TP1ar  SN4q  1 3.650000e-01    2.830000e+00
 TP1ar  SN3q  1 3.650000e-01    2.340000e+00
 TP1ar  SN2q  1 3.650000e-01    2.340000e+00
 TP1ar  SN1q  1 3.650000e-01    2.340000e+00
 TP1ar  SC6q  1 3.650000e-01    2.110000e+00
 TP1ar  SC5q  1 3.650000e-01    1.910000e+00
 TP1ar  SC4q  1 3.650000e-01    1.750000e+00
 TP1ar  SC3q  1 3.660000e-01    1.600000e+00
 TP1ar  SC2q  1 3.660000e-01    1.600000e+00
 TP1ar  SC1q  1 3.780000e-01    1.450000e+00
 TP1ar  SX4q  1 3.650000e-01    2.110000e+00
 TP1ar  SX3q  1 3.650000e-01    2.110000e+00
 TP1ar  SX2q  1 3.650000e-01    1.910000e+00
 TP1ar  SX1q  1 3.650000e-01    1.750000e+00
 TN6ar  SN5a  1 3.650000e-01    2.340000e+00
 TN6ar  SN4a  1 3.650000e-01    2.340000e+00
 TN6ar  SN3a  1 3.650000e-01    1.910000e+00
 TN6ar  SN2a  1 3.650000e-01    1.750000e+00
 TN6ar  SN1a  1 3.650000e-01    1.750000e+00
 TN6ar  SC6v  1 3.650000e-01    2.110000e+00
 TN6ar  SC5v  1 3.650000e-01    1.910000e+00
 TN6ar  SC4v  1 3.650000e-01    1.750000e+00
 TN6ar  SC3v  1 3.660000e-01    1.600000e+00
 TN6ar  SC2v  1 3.660000e-01    1.600000e+00
 TN6ar  SC1v  1 3.780000e-01    1.450000e+00
 TN6ar  SX4v  1 3.650000e-01    2.110000e+00
 TN6ar  SX3v  1 3.650000e-01    1.910000e+00
 TN6ar  SX2v  1 3.650000e-01    1.750000e+00
 TN6ar  SX1v  1 3.660000e-01    1.600000e+00
 TN6ar  SC6e  1 3.650000e-01    1.750000e+00
 TN6ar  SC5e  1 3.660000e-01    1.600000e+00
 TN6ar  SC4e  1 3.780000e-01    1.450000e+00
 TN6ar  SC3e  1 3.940000e-01    1.290000e+00
 TN6ar  SC2e  1 3.940000e-01    1.290000e+00
 TN6ar  SC1e  1 4.040000e-01    1.130000e+00
 TN6ar  SX4e  1 3.650000e-01    1.750000e+00
 TN6ar  SX3e  1 3.660000e-01    1.600000e+00
 TN6ar  SX2e  1 3.780000e-01    1.450000e+00
 TN6ar  SX1e  1 3.940000e-01    1.290000e+00
 TN6ar  SN5q  1 3.650000e-01    3.100000e+00
 TN6ar  SN4q  1 3.650000e-01    3.100000e+00
 TN6ar  SN3q  1 3.650000e-01    2.570000e+00
 TN6ar  SN2q  1 3.650000e-01    2.340000e+00
 TN6ar  SN1q  1 3.650000e-01    2.340000e+00
 TN6ar  SC6q  1 3.650000e-01    2.340000e+00
 TN6ar  SC5q  1 3.650000e-01    2.110000e+00
 TN6ar  SC4q  1 3.650000e-01    1.910000e+00
 TN6ar  SC3q  1 3.650000e-01    1.750000e+00
 TN6ar  SC2q  1 3.650000e-01    1.750000e+00
 TN6ar  SC1q  1 3.660000e-01    1.600000e+00
 TN6ar  SX4q  1 3.650000e-01    2.340000e+00
 TN6ar  SX3q  1 3.650000e-01    2.110000e+00
 TN6ar  SX2q  1 3.650000e-01    1.910000e+00
 TN6ar  SX1q  1 3.650000e-01    1.750000e+00
 TN5ar  SN4a  1 3.650000e-01    2.110000e+00
 TN5ar  SN3a  1 3.650000e-01    1.910000e+00
 TN5ar  SN2a  1 3.650000e-01    1.910000e+00
 TN5ar  SN1a  1 3.650000e-01    1.750000e+00
 TN5ar  SC6v  1 3.650000e-01    2.110000e+00
 TN5ar  SC5v  1 3.650000e-01    1.910000e+00
 TN5ar  SC4v  1 3.650000e-01    1.750000e+00
 TN5ar  SC3v  1 3.650000e-01    1.750000e+00
 TN5ar  SC2v  1 3.660000e-01    1.600000e+00
 TN5ar  SC1v  1 3.780000e-01    1.450000e+00
 TN5ar  SX4v  1 3.650000e-01    2.340000e+00
 TN5ar  SX3v  1 3.650000e-01    2.110000e+00
 TN5ar  SX2v  1 3.650000e-01    1.910000e+00
 TN5ar  SX1v  1 3.650000e-01    1.750000e+00
 TN5ar  SC6e  1 3.650000e-01    1.750000e+00
 TN5ar  SC5e  1 3.660000e-01    1.600000e+00
 TN5ar  SC4e  1 3.780000e-01    1.450000e+00
 TN5ar  SC3e  1 3.780000e-01    1.450000e+00
 TN5ar  SC2e  1 3.940000e-01    1.290000e+00
 TN5ar  SC1e  1 4.040000e-01    1.130000e+00
 TN5ar  SX4e  1 3.650000e-01    1.910000e+00
 TN5ar  SX3e  1 3.650000e-01    1.750000e+00
 TN5ar  SX2e  1 3.660000e-01    1.600000e+00
 TN5ar  SX1e  1 3.780000e-01    1.450000e+00
 TN5ar  SN4q  1 3.650000e-01    2.830000e+00
 TN5ar  SN3q  1 3.650000e-01    2.570000e+00
 TN5ar  SN2q  1 3.650000e-01    2.570000e+00
 TN5ar  SN1q  1 3.650000e-01    2.340000e+00
 TN5ar  SC6q  1 3.650000e-01    2.340000e+00
 TN5ar  SC5q  1 3.650000e-01    2.110000e+00
 TN5ar  SC4q  1 3.650000e-01    1.910000e+00
 TN5ar  SC3q  1 3.650000e-01    1.910000e+00
 TN5ar  SC2q  1 3.650000e-01    1.750000e+00
 TN5ar  SC1q  1 3.660000e-01    1.600000e+00
 TN5ar  SX4q  1 3.650000e-01    2.570000e+00
 TN5ar  SX3q  1 3.650000e-01    2.340000e+00
 TN5ar  SX2q  1 3.650000e-01    2.110000e+00
 TN5ar  SX1q  1 3.650000e-01    1.910000e+00
 TN4ar  SN3a  1 3.650000e-01    1.910000e+00
 TN4ar  SN2a  1 3.650000e-01    1.910000e+00
 TN4ar  SN1a  1 3.650000e-01    1.750000e+00
 TN4ar  SC6v  1 3.650000e-01    2.110000e+00
 TN4ar  SC5v  1 3.650000e-01    1.910000e+00
 TN4ar  SC4v  1 3.650000e-01    1.910000e+00
 TN4ar  SC3v  1 3.650000e-01    1.750000e+00
 TN4ar  SC2v  1 3.660000e-01    1.600000e+00
 TN4ar  SC1v  1 3.780000e-01    1.450000e+00
 TN4ar  SX4v  1 3.650000e-01    2.570000e+00
 TN4ar  SX3v  1 3.650000e-01    2.340000e+00
 TN4ar  SX2v  1 3.650000e-01    1.910000e+00
 TN4ar  SX1v  1 3.650000e-01    1.750000e+00
 TN4ar  SC6e  1 3.650000e-01    1.750000e+00
 TN4ar  SC5e  1 3.660000e-01    1.600000e+00
 TN4ar  SC4e  1 3.660000e-01    1.600000e+00
 TN4ar  SC3e  1 3.780000e-01    1.450000e+00
 TN4ar  SC2e  1 3.940000e-01    1.290000e+00
 TN4ar  SC1e  1 4.040000e-01    1.130000e+00
 TN4ar  SX4e  1 3.650000e-01    2.110000e+00
 TN4ar  SX3e  1 3.650000e-01    1.910000e+00
 TN4ar  SX2e  1 3.660000e-01    1.600000e+00
 TN4ar  SX1e  1 3.780000e-01    1.450000e+00
 TN4ar  SN3q  1 3.650000e-01    2.570000e+00
 TN4ar  SN2q  1 3.650000e-01    2.570000e+00
 TN4ar  SN1q  1 3.650000e-01    2.340000e+00
 TN4ar  SC6q  1 3.650000e-01    2.340000e+00
 TN4ar  SC5q  1 3.650000e-01    2.110000e+00
 TN4ar  SC4q  1 3.650000e-01    2.110000e+00
 TN4ar  SC3q  1 3.650000e-01    1.910000e+00
 TN4ar  SC2q  1 3.650000e-01    1.750000e+00
 TN4ar  SC1q  1 3.660000e-01    1.600000e+00
 TN4ar  SX4q  1 3.650000e-01    2.830000e+00
 TN4ar  SX3q  1 3.650000e-01    2.570000e+00
 TN4ar  SX2q  1 3.650000e-01    2.110000e+00
 TN4ar  SX1q  1 3.650000e-01    1.910000e+00
 TN3ar  SN2a  1 3.650000e-01    1.910000e+00
 TN3ar  SN1a  1 3.650000e-01    1.750000e+00
 TN3ar  SC6v  1 3.650000e-01    2.110000e+00
 TN3ar  SC5v  1 3.650000e-01    1.910000e+00
 TN3ar  SC4v  1 3.650000e-01    1.910000e+00
 TN3ar  SC3v  1 3.650000e-01    1.750000e+00
 TN3ar  SC2v  1 3.650000e-01    1.750000e+00
 TN3ar  SC1v  1 3.660000e-01    1.600000e+00
 TN3ar  SX4v  1 3.650000e-01    2.340000e+00
 TN3ar  SX3v  1 3.650000e-01    2.110000e+00
 TN3ar  SX2v  1 3.650000e-01    1.910000e+00
 TN3ar  SX1v  1 3.650000e-01    1.910000e+00
 TN3ar  SC6e  1 3.650000e-01    1.750000e+00
 TN3ar  SC5e  1 3.660000e-01    1.600000e+00
 TN3ar  SC4e  1 3.660000e-01    1.600000e+00
 TN3ar  SC3e  1 3.780000e-01    1.450000e+00
 TN3ar  SC2e  1 3.780000e-01    1.450000e+00
 TN3ar  SC1e  1 3.940000e-01    1.290000e+00
 TN3ar  SX4e  1 3.650000e-01    1.910000e+00
 TN3ar  SX3e  1 3.650000e-01    1.750000e+00
 TN3ar  SX2e  1 3.660000e-01    1.600000e+00
 TN3ar  SX1e  1 3.660000e-01    1.600000e+00
 TN3ar  SN2q  1 3.650000e-01    2.570000e+00
 TN3ar  SN1q  1 3.650000e-01    2.340000e+00
 TN3ar  SC6q  1 3.650000e-01    2.340000e+00
 TN3ar  SC5q  1 3.650000e-01    2.110000e+00
 TN3ar  SC4q  1 3.650000e-01    2.110000e+00
 TN3ar  SC3q  1 3.650000e-01    1.910000e+00
 TN3ar  SC2q  1 3.650000e-01    1.910000e+00
 TN3ar  SC1q  1 3.650000e-01    1.750000e+00
 TN3ar  SX4q  1 3.650000e-01    2.570000e+00
 TN3ar  SX3q  1 3.650000e-01    2.340000e+00
 TN3ar  SX2q  1 3.650000e-01    2.110000e+00
 TN3ar  SX1q  1 3.650000e-01    2.110000e+00
 TN2ar  SN1a  1 3.650000e-01    1.750000e+00
 TN2ar  SC6v  1 3.650000e-01    2.110000e+00
 TN2ar  SC5v  1 3.650000e-01    1.910000e+00
 TN2ar  SC4v  1 3.650000e-01    1.910000e+00
 TN2ar  SC3v  1 3.650000e-01    1.910000e+00
 TN2ar  SC2v  1 3.650000e-01    1.750000e+00
 TN2ar  SC1v  1 3.660000e-01    1.600000e+00
 TN2ar  SX4v  1 3.650000e-01    2.340000e+00
 TN2ar  SX3v  1 3.650000e-01    2.110000e+00
 TN2ar  SX2v  1 3.650000e-01    1.910000e+00
 TN2ar  SX1v  1 3.650000e-01    1.910000e+00
 TN2ar  SC6e  1 3.650000e-01    1.750000e+00
 TN2ar  SC5e  1 3.660000e-01    1.600000e+00
 TN2ar  SC4e  1 3.660000e-01    1.600000e+00
 TN2ar  SC3e  1 3.660000e-01    1.600000e+00
 TN2ar  SC2e  1 3.780000e-01    1.450000e+00
 TN2ar  SC1e  1 3.940000e-01    1.290000e+00
 TN2ar  SX4e  1 3.650000e-01    1.910000e+00
 TN2ar  SX3e  1 3.650000e-01    1.750000e+00
 TN2ar  SX2e  1 3.660000e-01    1.600000e+00
 TN2ar  SX1e  1 3.660000e-01    1.600000e+00
 TN2ar  SN1q  1 3.650000e-01    2.340000e+00
 TN2ar  SC6q  1 3.650000e-01    2.340000e+00
 TN2ar  SC5q  1 3.650000e-01    2.110000e+00
 TN2ar  SC4q  1 3.650000e-01    2.110000e+00
 TN2ar  SC3q  1 3.650000e-01    2.110000e+00
 TN2ar  SC2q  1 3.650000e-01    1.910000e+00
 TN2ar  SC1q  1 3.650000e-01    1.750000e+00
 TN2ar  SX4q  1 3.650000e-01    2.570000e+00
 TN2ar  SX3q  1 3.650000e-01    2.340000e+00
 TN2ar  SX2q  1 3.650000e-01    2.110000e+00
 TN2ar  SX1q  1 3.650000e-01    2.110000e+00
 TN1ar  SC6v  1 3.650000e-01    2.340000e+00
 TN1ar  SC5v  1 3.650000e-01    2.110000e+00
 TN1ar  SC4v  1 3.650000e-01    2.110000e+00
 TN1ar  SC3v  1 3.650000e-01    1.910000e+00
 TN1ar  SC2v  1 3.650000e-01    1.750000e+00
 TN1ar  SC1v  1 3.660000e-01    1.600000e+00
 TN1ar  SX4v  1 3.650000e-01    2.110000e+00
 TN1ar  SX3v  1 3.650000e-01    2.110000e+00
 TN1ar  SX2v  1 3.650000e-01    1.910000e+00
 TN1ar  SX1v  1 3.650000e-01    1.910000e+00
 TN1ar  SC6e  1 3.650000e-01    1.910000e+00
 TN1ar  SC5e  1 3.650000e-01    1.750000e+00
 TN1ar  SC4e  1 3.650000e-01    1.750000e+00
 TN1ar  SC3e  1 3.660000e-01    1.600000e+00
 TN1ar  SC2e  1 3.780000e-01    1.450000e+00
 TN1ar  SC1e  1 3.940000e-01    1.290000e+00
 TN1ar  SX4e  1 3.650000e-01    1.750000e+00
 TN1ar  SX3e  1 3.650000e-01    1.750000e+00
 TN1ar  SX2e  1 3.660000e-01    1.600000e+00
 TN1ar  SX1e  1 3.660000e-01    1.600000e+00
 TN1ar  SC6q  1 3.650000e-01    2.570000e+00
 TN1ar  SC5q  1 3.650000e-01    2.340000e+00
 TN1ar  SC4q  1 3.650000e-01    2.340000e+00
 TN1ar  SC3q  1 3.650000e-01    2.110000e+00
 TN1ar  SC2q  1 3.650000e-01    1.910000e+00
 TN1ar  SC1q  1 3.650000e-01    1.750000e+00
 TN1ar  SX4q  1 3.650000e-01    2.340000e+00
 TN1ar  SX3q  1 3.650000e-01    2.340000e+00
 TN1ar  SX2q  1 3.650000e-01    2.110000e+00
 TN1ar  SX1q  1 3.650000e-01    2.110000e+00
 TC6vr  SC5v  1 3.650000e-01    1.750000e+00
 TC6vr  SC4v  1 3.650000e-01    1.750000e+00
 TC6vr  SC3v  1 3.660000e-01    1.600000e+00
 TC6vr  SC2v  1 3.780000e-01    1.450000e+00
 TC6vr  SC1v  1 3.940000e-01    1.290000e+00
 TC6vr  SX4v  1 3.650000e-01    1.750000e+00
 TC6vr  SX3v  1 3.650000e-01    1.750000e+00
 TC6vr  SX2v  1 3.650000e-01    1.750000e+00
 TC6vr  SX1v  1 3.650000e-01    1.750000e+00
 TC6vr  SC6e  1 3.650000e-01    2.570000e+00
 TC6vr  SC5e  1 3.650000e-01    2.340000e+00
 TC6vr  SC4e  1 3.650000e-01    2.340000e+00
 TC6vr  SC3e  1 3.650000e-01    2.110000e+00
 TC6vr  SC2e  1 3.650000e-01    1.910000e+00
 TC6vr  SC1e  1 3.650000e-01    1.750000e+00
 TC6vr  SX4e  1 3.650000e-01    2.340000e+00
 TC6vr  SX3e  1 3.650000e-01    2.340000e+00
 TC6vr  SX2e  1 3.650000e-01    2.340000e+00
 TC6vr  SX1e  1 3.650000e-01    2.340000e+00
 TC6vr  SC5q  1 3.650000e-01    2.570000e+00
 TC6vr  SC4q  1 3.650000e-01    2.570000e+00
 TC6vr  SC3q  1 3.650000e-01    2.340000e+00
 TC6vr  SC2q  1 3.650000e-01    2.110000e+00
 TC6vr  SC1q  1 3.650000e-01    1.910000e+00
 TC6vr  SX4q  1 3.650000e-01    2.570000e+00
 TC6vr  SX3q  1 3.650000e-01    2.570000e+00
 TC6vr  SX2q  1 3.650000e-01    2.570000e+00
 TC6vr  SX1q  1 3.650000e-01    2.570000e+00
 TC5vr  SC4v  1 3.650000e-01    1.750000e+00
 TC5vr  SC3v  1 3.660000e-01    1.600000e+00
 TC5vr  SC2v  1 3.780000e-01    1.450000e+00
 TC5vr  SC1v  1 3.780000e-01    1.450000e+00
 TC5vr  SX4v  1 3.660000e-01    1.600000e+00
 TC5vr  SX3v  1 3.660000e-01    1.600000e+00
 TC5vr  SX2v  1 3.660000e-01    1.600000e+00
 TC5vr  SX1v  1 3.650000e-01    1.750000e+00
 TC5vr  SC5e  1 3.650000e-01    2.340000e+00
 TC5vr  SC4e  1 3.650000e-01    2.340000e+00
 TC5vr  SC3e  1 3.650000e-01    2.110000e+00
 TC5vr  SC2e  1 3.650000e-01    1.910000e+00
 TC5vr  SC1e  1 3.650000e-01    1.910000e+00
 TC5vr  SX4e  1 3.650000e-01    2.110000e+00
 TC5vr  SX3e  1 3.650000e-01    2.110000e+00
 TC5vr  SX2e  1 3.650000e-01    2.110000e+00
 TC5vr  SX1e  1 3.650000e-01    2.340000e+00
 TC5vr  SC4q  1 3.650000e-01    2.570000e+00
 TC5vr  SC3q  1 3.650000e-01    2.340000e+00
 TC5vr  SC2q  1 3.650000e-01    2.110000e+00
 TC5vr  SC1q  1 3.650000e-01    2.110000e+00
 TC5vr  SX4q  1 3.650000e-01    2.340000e+00
 TC5vr  SX3q  1 3.650000e-01    2.340000e+00
 TC5vr  SX2q  1 3.650000e-01    2.340000e+00
 TC5vr  SX1q  1 3.650000e-01    2.570000e+00
 TC4vr  SC3v  1 3.650000e-01    1.750000e+00
 TC4vr  SC2v  1 3.660000e-01    1.600000e+00
 TC4vr  SC1v  1 3.780000e-01    1.450000e+00
 TC4vr  SX4v  1 3.660000e-01    1.600000e+00
 TC4vr  SX3v  1 3.660000e-01    1.600000e+00
 TC4vr  SX2v  1 3.660000e-01    1.600000e+00
 TC4vr  SX1v  1 3.650000e-01    1.750000e+00
 TC4vr  SC4e  1 3.650000e-01    2.340000e+00
 TC4vr  SC3e  1 3.650000e-01    2.340000e+00
 TC4vr  SC2e  1 3.650000e-01    2.110000e+00
 TC4vr  SC1e  1 3.650000e-01    1.910000e+00
 TC4vr  SX4e  1 3.650000e-01    2.110000e+00
 TC4vr  SX3e  1 3.650000e-01    2.110000e+00
 TC4vr  SX2e  1 3.650000e-01    2.110000e+00
 TC4vr  SX1e  1 3.650000e-01    2.340000e+00
 TC4vr  SC3q  1 3.650000e-01    2.570000e+00
 TC4vr  SC2q  1 3.650000e-01    2.340000e+00
 TC4vr  SC1q  1 3.650000e-01    2.110000e+00
 TC4vr  SX4q  1 3.650000e-01    2.340000e+00
 TC4vr  SX3q  1 3.650000e-01    2.340000e+00
 TC4vr  SX2q  1 3.650000e-01    2.340000e+00
 TC4vr  SX1q  1 3.650000e-01    2.570000e+00
 TC3vr  SC2v  1 3.650000e-01    1.750000e+00
 TC3vr  SC1v  1 3.650000e-01    1.750000e+00
 TC3vr  SX4v  1 3.660000e-01    1.600000e+00
 TC3vr  SX3v  1 3.660000e-01    1.600000e+00
 TC3vr  SX2v  1 3.660000e-01    1.600000e+00
 TC3vr  SX1v  1 3.650000e-01    1.750000e+00
 TC3vr  SC3e  1 3.650000e-01    2.340000e+00
 TC3vr  SC2e  1 3.650000e-01    2.340000e+00
 TC3vr  SC1e  1 3.650000e-01    2.340000e+00
 TC3vr  SX4e  1 3.650000e-01    2.110000e+00
 TC3vr  SX3e  1 3.650000e-01    2.110000e+00
 TC3vr  SX2e  1 3.650000e-01    2.110000e+00
 TC3vr  SX1e  1 3.650000e-01    2.340000e+00
 TC3vr  SC2q  1 3.650000e-01    2.570000e+00
 TC3vr  SC1q  1 3.650000e-01    2.570000e+00
 TC3vr  SX4q  1 3.650000e-01    2.340000e+00
 TC3vr  SX3q  1 3.650000e-01    2.340000e+00
 TC3vr  SX2q  1 3.650000e-01    2.340000e+00
 TC3vr  SX1q  1 3.650000e-01    2.570000e+00
 TC2vr  SC1v  1 3.650000e-01    1.910000e+00
 TC2vr  SX4v  1 3.940000e-01    1.290000e+00
 TC2vr  SX3v  1 3.660000e-01    1.600000e+00
 TC2vr  SX2v  1 3.660000e-01    1.600000e+00
 TC2vr  SX1v  1 3.660000e-01    1.600000e+00
 TC2vr  SC2e  1 3.650000e-01    2.340000e+00
 TC2vr  SC1e  1 3.650000e-01    2.570000e+00
 TC2vr  SX4e  1 3.650000e-01    1.750000e+00
 TC2vr  SX3e  1 3.650000e-01    2.110000e+00
 TC2vr  SX2e  1 3.650000e-01    2.110000e+00
 TC2vr  SX1e  1 3.650000e-01    2.110000e+00
 TC2vr  SC1q  1 3.650000e-01    2.830000e+00
 TC2vr  SX4q  1 3.650000e-01    1.910000e+00
 TC2vr  SX3q  1 3.650000e-01    2.340000e+00
 TC2vr  SX2q  1 3.650000e-01    2.340000e+00
 TC2vr  SX1q  1 3.650000e-01    2.340000e+00
 TC1vr  SX4v  1 3.940000e-01    1.290000e+00
 TC1vr  SX3v  1 3.660000e-01    1.600000e+00
 TC1vr  SX2v  1 3.660000e-01    1.600000e+00
 TC1vr  SX1v  1 3.660000e-01    1.600000e+00
 TC1vr  SC1e  1 3.650000e-01    2.340000e+00
 TC1vr  SX4e  1 3.650000e-01    1.750000e+00
 TC1vr  SX3e  1 3.650000e-01    2.110000e+00
 TC1vr  SX2e  1 3.650000e-01    2.110000e+00
 TC1vr  SX1e  1 3.650000e-01    2.110000e+00
 TC1vr  SX4q  1 3.650000e-01    1.910000e+00
 TC1vr  SX3q  1 3.650000e-01    2.340000e+00
 TC1vr  SX2q  1 3.650000e-01    2.340000e+00
 TC1vr  SX1q  1 3.650000e-01    2.340000e+00
 TX4vr  SX3v  1 3.650000e-01    1.750000e+00
 TX4vr  SX2v  1 3.650000e-01    1.750000e+00
 TX4vr  SX1v  1 3.650000e-01    1.750000e+00
 TX4vr  SX4e  1 3.650000e-01    2.340000e+00
 TX4vr  SX3e  1 3.650000e-01    2.340000e+00
 TX4vr  SX2e  1 3.650000e-01    2.340000e+00
 TX4vr  SX1e  1 3.650000e-01    2.340000e+00
 TX4vr  SX3q  1 3.650000e-01    2.570000e+00
 TX4vr  SX2q  1 3.650000e-01    2.570000e+00
 TX4vr  SX1q  1 3.650000e-01    2.570000e+00
 TX3vr  SX2v  1 3.650000e-01    1.910000e+00
 TX3vr  SX1v  1 3.650000e-01    1.910000e+00
 TX3vr  SX3e  1 3.650000e-01    2.340000e+00
 TX3vr  SX2e  1 3.650000e-01    2.570000e+00
 TX3vr  SX1e  1 3.650000e-01    2.570000e+00
 TX3vr  SX2q  1 3.650000e-01    2.830000e+00
 TX3vr  SX1q  1 3.650000e-01    2.830000e+00
 TX2vr  SX1v  1 3.650000e-01    1.910000e+00
 TX2vr  SX2e  1 3.650000e-01    2.570000e+00
 TX2vr  SX1e  1 3.650000e-01    2.570000e+00
 TX2vr  SX1q  1 3.650000e-01    2.830000e+00
 TX1vr  SX1e  1 3.650000e-01    2.830000e+00
 TC6er  SC5e  1 3.650000e-01    1.750000e+00
 TC6er  SC4e  1 3.650000e-01    1.750000e+00
 TC6er  SC3e  1 3.660000e-01    1.600000e+00
 TC6er  SC2e  1 3.780000e-01    1.450000e+00
 TC6er  SC1e  1 3.940000e-01    1.290000e+00
 TC6er  SX4e  1 3.650000e-01    1.750000e+00
 TC6er  SX3e  1 3.650000e-01    1.750000e+00
 TC6er  SX2e  1 3.650000e-01    1.750000e+00
 TC6er  SX1e  1 3.650000e-01    1.750000e+00
 TC6er  SC5q  1 3.650000e-01    2.570000e+00
 TC6er  SC4q  1 3.650000e-01    2.570000e+00
 TC6er  SC3q  1 3.650000e-01    2.340000e+00
 TC6er  SC2q  1 3.650000e-01    2.110000e+00
 TC6er  SC1q  1 3.650000e-01    1.910000e+00
 TC6er  SX4q  1 3.650000e-01    2.570000e+00
 TC6er  SX3q  1 3.650000e-01    2.570000e+00
 TC6er  SX2q  1 3.650000e-01    2.570000e+00
 TC6er  SX1q  1 3.650000e-01    2.570000e+00
 TC5er  SC4e  1 3.650000e-01    1.750000e+00
 TC5er  SC3e  1 3.660000e-01    1.600000e+00
 TC5er  SC2e  1 3.780000e-01    1.450000e+00
 TC5er  SC1e  1 3.780000e-01    1.450000e+00
 TC5er  SX4e  1 3.660000e-01    1.600000e+00
 TC5er  SX3e  1 3.660000e-01    1.600000e+00
 TC5er  SX2e  1 3.660000e-01    1.600000e+00
 TC5er  SX1e  1 3.650000e-01    1.750000e+00
 TC5er  SC4q  1 3.650000e-01    2.570000e+00
 TC5er  SC3q  1 3.650000e-01    2.340000e+00
 TC5er  SC2q  1 3.650000e-01    2.110000e+00
 TC5er  SC1q  1 3.650000e-01    2.110000e+00
 TC5er  SX4q  1 3.650000e-01    2.340000e+00
 TC5er  SX3q  1 3.650000e-01    2.340000e+00
 TC5er  SX2q  1 3.650000e-01    2.340000e+00
 TC5er  SX1q  1 3.650000e-01    2.570000e+00
 TC4er  SC3e  1 3.650000e-01    1.750000e+00
 TC4er  SC2e  1 3.660000e-01    1.600000e+00
 TC4er  SC1e  1 3.780000e-01    1.450000e+00
 TC4er  SX4e  1 3.660000e-01    1.600000e+00
 TC4er  SX3e  1 3.660000e-01    1.600000e+00
 TC4er  SX2e  1 3.660000e-01    1.600000e+00
 TC4er  SX1e  1 3.650000e-01    1.750000e+00
 TC4er  SC3q  1 3.650000e-01    2.570000e+00
 TC4er  SC2q  1 3.650000e-01    2.340000e+00
 TC4er  SC1q  1 3.650000e-01    2.110000e+00
 TC4er  SX4q  1 3.650000e-01    2.340000e+00
 TC4er  SX3q  1 3.650000e-01    2.340000e+00
 TC4er  SX2q  1 3.650000e-01    2.340000e+00
 TC4er  SX1q  1 3.650000e-01    2.570000e+00
 TC3er  SC2e  1 3.650000e-01    1.750000e+00
 TC3er  SC1e  1 3.650000e-01    1.750000e+00
 TC3er  SX4e  1 3.660000e-01    1.600000e+00
 TC3er  SX3e  1 3.660000e-01    1.600000e+00
 TC3er  SX2e  1 3.660000e-01    1.600000e+00
 TC3er  SX1e  1 3.650000e-01    1.750000e+00
 TC3er  SC2q  1 3.650000e-01    2.570000e+00
 TC3er  SC1q  1 3.650000e-01    2.570000e+00
 TC3er  SX4q  1 3.650000e-01    2.340000e+00
 TC3er  SX3q  1 3.650000e-01    2.340000e+00
 TC3er  SX2q  1 3.650000e-01    2.340000e+00
 TC3er  SX1q  1 3.650000e-01    2.570000e+00
 TC2er  SC1e  1 3.650000e-01    1.910000e+00
 TC2er  SX4e  1 3.940000e-01    1.290000e+00
 TC2er  SX3e  1 3.660000e-01    1.600000e+00
 TC2er  SX2e  1 3.660000e-01    1.600000e+00
 TC2er  SX1e  1 3.660000e-01    1.600000e+00
 TC2er  SC1q  1 3.650000e-01    2.830000e+00
 TC2er  SX4q  1 3.650000e-01    1.910000e+00
 TC2er  SX3q  1 3.650000e-01    2.340000e+00
 TC2er  SX2q  1 3.650000e-01    2.340000e+00
 TC2er  SX1q  1 3.650000e-01    2.340000e+00
 TC1er  SX4e  1 3.940000e-01    1.290000e+00
 TC1er  SX3e  1 3.660000e-01    1.600000e+00
 TC1er  SX2e  1 3.660000e-01    1.600000e+00
 TC1er  SX1e  1 3.660000e-01    1.600000e+00
 TC1er  SX4q  1 3.650000e-01    1.910000e+00
 TC1er  SX3q  1 3.650000e-01    2.340000e+00
 TC1er  SX2q  1 3.650000e-01    2.340000e+00
 TC1er  SX1q  1 3.650000e-01    2.340000e+00
 TX4er  SX3e  1 3.650000e-01    1.750000e+00
 TX4er  SX2e  1 3.650000e-01    1.750000e+00
 TX4er  SX1e  1 3.650000e-01    1.750000e+00
 TX4er  SX3q  1 3.650000e-01    2.570000e+00
 TX4er  SX2q  1 3.650000e-01    2.570000e+00
 TX4er  SX1q  1 3.650000e-01    2.570000e+00
 TX3er  SX2e  1 3.650000e-01    1.910000e+00
 TX3er  SX1e  1 3.650000e-01    1.910000e+00
 TX3er  SX2q  1 3.650000e-01    2.830000e+00
 TX3er  SX1q  1 3.650000e-01    2.830000e+00
 TX2er  SX1e  1 3.650000e-01    1.910000e+00
 TX2er  SX1q  1 3.650000e-01    2.830000e+00
 TX2er  SX1v  1 3.650000e-01    2.570000e+00
 TX3er  SX2v  1 3.650000e-01    2.570000e+00
 TX3er  SX1v  1 3.650000e-01    2.570000e+00
 TX4er  SX3v  1 3.650000e-01    2.340000e+00
 TX4er  SX2v  1 3.650000e-01    2.340000e+00
 TX4er  SX1v  1 3.650000e-01    2.340000e+00
 TC1er  SX4v  1 3.650000e-01    1.750000e+00
 TC1er  SX3v  1 3.650000e-01    2.110000e+00
 TC1er  SX2v  1 3.650000e-01    2.110000e+00
 TC1er  SX1v  1 3.650000e-01    2.110000e+00
 TC2er  SC1v  1 3.650000e-01    2.570000e+00
 TC2er  SX4v  1 3.650000e-01    1.750000e+00
 TC2er  SX3v  1 3.650000e-01    2.110000e+00
 TC2er  SX2v  1 3.650000e-01    2.110000e+00
 TC2er  SX1v  1 3.650000e-01    2.110000e+00
 TC3er  SC2v  1 3.650000e-01    2.340000e+00
 TC3er  SC1v  1 3.650000e-01    2.340000e+00
 TC3er  SX4v  1 3.650000e-01    2.110000e+00
 TC3er  SX3v  1 3.650000e-01    2.110000e+00
 TC3er  SX2v  1 3.650000e-01    2.110000e+00
 TC3er  SX1v  1 3.650000e-01    2.340000e+00
 TC4er  SC3v  1 3.650000e-01    2.340000e+00
 TC4er  SC2v  1 3.650000e-01    2.110000e+00
 TC4er  SC1v  1 3.650000e-01    1.910000e+00
 TC4er  SX4v  1 3.650000e-01    2.110000e+00
 TC4er  SX3v  1 3.650000e-01    2.110000e+00
 TC4er  SX2v  1 3.650000e-01    2.110000e+00
 TC4er  SX1v  1 3.650000e-01    2.340000e+00
 TC5er  SC4v  1 3.650000e-01    2.340000e+00
 TC5er  SC3v  1 3.650000e-01    2.110000e+00
 TC5er  SC2v  1 3.650000e-01    1.910000e+00
 TC5er  SC1v  1 3.650000e-01    1.910000e+00
 TC5er  SX4v  1 3.650000e-01    2.110000e+00
 TC5er  SX3v  1 3.650000e-01    2.110000e+00
 TC5er  SX2v  1 3.650000e-01    2.110000e+00
 TC5er  SX1v  1 3.650000e-01    2.340000e+00
 TC6er  SC5v  1 3.650000e-01    2.340000e+00
 TC6er  SC4v  1 3.650000e-01    2.340000e+00
 TC6er  SC3v  1 3.650000e-01    2.110000e+00
 TC6er  SC2v  1 3.650000e-01    1.910000e+00
 TC6er  SC1v  1 3.650000e-01    1.750000e+00
 TC6er  SX4v  1 3.650000e-01    2.340000e+00
 TC6er  SX3v  1 3.650000e-01    2.340000e+00
 TC6er  SX2v  1 3.650000e-01    2.340000e+00
 TC6er  SX1v  1 3.650000e-01    2.340000e+00
 TN2ar  SN1d  1 3.650000e-01    2.110000e+00
 TN3ar  SN2d  1 3.650000e-01    2.340000e+00
 TN3ar  SN1d  1 3.650000e-01    2.110000e+00
 TN4ar  SN3d  1 3.650000e-01    2.340000e+00
 TN4ar  SN2d  1 3.650000e-01    2.340000e+00
 TN4ar  SN1d  1 3.650000e-01    2.110000e+00
 TN5ar  SN4d  1 3.650000e-01    2.570000e+00
 TN5ar  SN3d  1 3.650000e-01    2.340000e+00
 TN5ar  SN2d  1 3.650000e-01    2.340000e+00
 TN5ar  SN1d  1 3.650000e-01    2.110000e+00
 TN6ar  SN5d  1 3.650000e-01    2.830000e+00
 TN6ar  SN4d  1 3.650000e-01    2.830000e+00
 TN6ar  SN3d  1 3.650000e-01    2.340000e+00
 TN6ar  SN2d  1 3.650000e-01    2.110000e+00
 TN6ar  SN1d  1 3.650000e-01    2.110000e+00
 TP1ar  SN6d  1 3.650000e-01    2.830000e+00
 TP1ar  SN5d  1 3.650000e-01    2.570000e+00
 TP1ar  SN4d  1 3.650000e-01    2.570000e+00
 TP1ar  SN3d  1 3.650000e-01    2.110000e+00
 TP1ar  SN2d  1 3.650000e-01    2.110000e+00
 TP1ar  SN1d  1 3.650000e-01    2.110000e+00
 TP2ar  SP1d  1 3.650000e-01    2.830000e+00
 TP2ar  SN6d  1 3.650000e-01    2.830000e+00
 TP2ar  SN5d  1 3.650000e-01    2.570000e+00
 TP2ar  SN4d  1 3.650000e-01    2.340000e+00
 TP2ar  SN3d  1 3.650000e-01    2.110000e+00
 TP2ar  SN2d  1 3.650000e-01    2.110000e+00
 TP2ar  SN1d  1 3.650000e-01    2.110000e+00
 TP3ar  SP2d  1 3.650000e-01    3.100000e+00
 TP3ar  SP1d  1 3.650000e-01    2.830000e+00
 TP3ar  SN6d  1 3.650000e-01    2.570000e+00
 TP3ar  SN5d  1 3.650000e-01    2.340000e+00
 TP3ar  SN4d  1 3.650000e-01    2.340000e+00
 TP3ar  SN3d  1 3.650000e-01    2.110000e+00
 TP3ar  SN2d  1 3.650000e-01    2.110000e+00
 TP3ar  SN1d  1 3.650000e-01    1.750000e+00
 TP4ar  SP3d  1 3.650000e-01    3.100000e+00
 TP4ar  SP2d  1 3.650000e-01    3.100000e+00
 TP4ar  SP1d  1 3.650000e-01    2.830000e+00
 TP4ar  SN6d  1 3.650000e-01    2.570000e+00
 TP4ar  SN5d  1 3.650000e-01    2.340000e+00
 TP4ar  SN4d  1 3.650000e-01    2.340000e+00
 TP4ar  SN3d  1 3.650000e-01    2.110000e+00
 TP4ar  SN2d  1 3.650000e-01    1.750000e+00
 TP4ar  SN1d  1 3.660000e-01    1.600000e+00
 TP5ar  SP4d  1 3.650000e-01    3.370000e+00
 TP5ar  SP3d  1 3.650000e-01    3.100000e+00
 TP5ar  SP2d  1 3.650000e-01    3.100000e+00
 TP5ar  SP1d  1 3.650000e-01    2.830000e+00
 TP5ar  SN6d  1 3.650000e-01    2.570000e+00
 TP5ar  SN5d  1 3.650000e-01    2.340000e+00
 TP5ar  SN4d  1 3.650000e-01    2.340000e+00
 TP5ar  SN3d  1 3.650000e-01    1.750000e+00
 TP5ar  SN2d  1 3.660000e-01    1.600000e+00
 TP5ar  SN1d  1 3.780000e-01    1.450000e+00
 TP6ar  SP5d  1 3.650000e-01    3.930000e+00
 TP6ar  SP4d  1 3.650000e-01    3.640000e+00
 TP6ar  SP3d  1 3.650000e-01    3.370000e+00
 TP6ar  SP2d  1 3.650000e-01    3.370000e+00
 TP6ar  SP1d  1 3.650000e-01    3.100000e+00
 TP6ar  SN6d  1 3.650000e-01    2.830000e+00
 TP6ar  SN5d  1 3.650000e-01    2.340000e+00
 TP6ar  SN4d  1 3.650000e-01    2.110000e+00
 TP6ar  SN3d  1 3.650000e-01    1.750000e+00
 TP6ar  SN2d  1 3.660000e-01    1.600000e+00
 TP6ar  SN1d  1 3.780000e-01    1.450000e+00
 TP6dr  SP5r  1 3.650000e-01    3.370000e+00
 TP6dr  SP4r  1 3.650000e-01    3.100000e+00
 TP6dr  SP3r  1 3.650000e-01    2.830000e+00
 TP6dr  SP2r  1 3.650000e-01    2.830000e+00
 TP6dr  SP1r  1 3.650000e-01    2.570000e+00
 TP6dr  SN6r  1 3.650000e-01    2.340000e+00
 TP6dr  SN5r  1 3.650000e-01    1.910000e+00
 TP6dr  SN4r  1 3.650000e-01    1.750000e+00
 TP6dr  SN3r  1 3.660000e-01    1.600000e+00
 TP6dr  SN2r  1 3.780000e-01    1.450000e+00
 TP6dr  SN1r  1 3.940000e-01    1.290000e+00
 TP5dr  SP4r  1 3.650000e-01    2.830000e+00
 TP5dr  SP3r  1 3.650000e-01    2.570000e+00
 TP5dr  SP2r  1 3.650000e-01    2.570000e+00
 TP5dr  SP1r  1 3.650000e-01    2.340000e+00
 TP5dr  SN6r  1 3.650000e-01    2.110000e+00
 TP5dr  SN5r  1 3.650000e-01    1.910000e+00
 TP5dr  SN4r  1 3.650000e-01    1.910000e+00
 TP5dr  SN3r  1 3.660000e-01    1.600000e+00
 TP5dr  SN2r  1 3.780000e-01    1.450000e+00
 TP5dr  SN1r  1 3.940000e-01    1.290000e+00
 TP4dr  SP3r  1 3.650000e-01    2.570000e+00
 TP4dr  SP2r  1 3.650000e-01    2.570000e+00
 TP4dr  SP1r  1 3.650000e-01    2.340000e+00
 TP4dr  SN6r  1 3.650000e-01    2.110000e+00
 TP4dr  SN5r  1 3.650000e-01    1.910000e+00
 TP4dr  SN4r  1 3.650000e-01    1.910000e+00
 TP4dr  SN3r  1 3.650000e-01    1.750000e+00
 TP4dr  SN2r  1 3.660000e-01    1.600000e+00
 TP4dr  SN1r  1 3.780000e-01    1.450000e+00
 TP3dr  SP2r  1 3.650000e-01    2.570000e+00
 TP3dr  SP1r  1 3.650000e-01    2.340000e+00
 TP3dr  SN6r  1 3.650000e-01    2.110000e+00
 TP3dr  SN5r  1 3.650000e-01    1.910000e+00
 TP3dr  SN4r  1 3.650000e-01    1.910000e+00
 TP3dr  SN3r  1 3.650000e-01    1.750000e+00
 TP3dr  SN2r  1 3.650000e-01    1.750000e+00
 TP3dr  SN1r  1 3.660000e-01    1.600000e+00
 TP2dr  SP1r  1 3.650000e-01    2.340000e+00
 TP2dr  SN6r  1 3.650000e-01    2.340000e+00
 TP2dr  SN5r  1 3.650000e-01    2.110000e+00
 TP2dr  SN4r  1 3.650000e-01    1.910000e+00
 TP2dr  SN3r  1 3.650000e-01    1.750000e+00
 TP2dr  SN2r  1 3.650000e-01    1.750000e+00
 TP2dr  SN1r  1 3.650000e-01    1.750000e+00
 TP1dr  SN6r  1 3.650000e-01    2.340000e+00
 TP1dr  SN5r  1 3.650000e-01    2.110000e+00
 TP1dr  SN4r  1 3.650000e-01    2.110000e+00
 TP1dr  SN3r  1 3.650000e-01    1.750000e+00
 TP1dr  SN2r  1 3.650000e-01    1.750000e+00
 TP1dr  SN1r  1 3.650000e-01    1.750000e+00
 TN6dr  SN5r  1 3.650000e-01    2.340000e+00
 TN6dr  SN4r  1 3.650000e-01    2.340000e+00
 TN6dr  SN3r  1 3.650000e-01    1.910000e+00
 TN6dr  SN2r  1 3.650000e-01    1.750000e+00
 TN6dr  SN1r  1 3.650000e-01    1.750000e+00
 TN5dr  SN4r  1 3.650000e-01    2.110000e+00
 TN5dr  SN3r  1 3.650000e-01    1.910000e+00
 TN5dr  SN2r  1 3.650000e-01    1.910000e+00
 TN5dr  SN1r  1 3.650000e-01    1.750000e+00
 TN4dr  SN3r  1 3.650000e-01    1.910000e+00
 TN4dr  SN2r  1 3.650000e-01    1.910000e+00
 TN4dr  SN1r  1 3.650000e-01    1.750000e+00
 TN3dr  SN2r  1 3.650000e-01    1.910000e+00
 TN3dr  SN1r  1 3.650000e-01    1.750000e+00
 TN2dr  SN1r  1 3.650000e-01    1.750000e+00
 TP6ar  SP5r  1 3.650000e-01    3.370000e+00
 TP6ar  SP4r  1 3.650000e-01    3.100000e+00
 TP6ar  SP3r  1 3.650000e-01    2.830000e+00
 TP6ar  SP2r  1 3.650000e-01    2.830000e+00
 TP6ar  SP1r  1 3.650000e-01    2.570000e+00
 TP6ar  SN6r  1 3.650000e-01    2.340000e+00
 TP6ar  SN5r  1 3.650000e-01    1.910000e+00
 TP6ar  SN4r  1 3.650000e-01    1.750000e+00
 TP6ar  SN3r  1 3.660000e-01    1.600000e+00
 TP6ar  SN2r  1 3.780000e-01    1.450000e+00
 TP6ar  SN1r  1 3.940000e-01    1.290000e+00
 TP5ar  SP4r  1 3.650000e-01    2.830000e+00
 TP5ar  SP3r  1 3.650000e-01    2.570000e+00
 TP5ar  SP2r  1 3.650000e-01    2.570000e+00
 TP5ar  SP1r  1 3.650000e-01    2.340000e+00
 TP5ar  SN6r  1 3.650000e-01    2.110000e+00
 TP5ar  SN5r  1 3.650000e-01    1.910000e+00
 TP5ar  SN4r  1 3.650000e-01    1.910000e+00
 TP5ar  SN3r  1 3.660000e-01    1.600000e+00
 TP5ar  SN2r  1 3.780000e-01    1.450000e+00
 TP5ar  SN1r  1 3.940000e-01    1.290000e+00
 TP4ar  SP3r  1 3.650000e-01    2.570000e+00
 TP4ar  SP2r  1 3.650000e-01    2.570000e+00
 TP4ar  SP1r  1 3.650000e-01    2.340000e+00
 TP4ar  SN6r  1 3.650000e-01    2.110000e+00
 TP4ar  SN5r  1 3.650000e-01    1.910000e+00
 TP4ar  SN4r  1 3.650000e-01    1.910000e+00
 TP4ar  SN3r  1 3.650000e-01    1.750000e+00
 TP4ar  SN2r  1 3.660000e-01    1.600000e+00
 TP4ar  SN1r  1 3.780000e-01    1.450000e+00
 TP3ar  SP2r  1 3.650000e-01    2.570000e+00
 TP3ar  SP1r  1 3.650000e-01    2.340000e+00
 TP3ar  SN6r  1 3.650000e-01    2.110000e+00
 TP3ar  SN5r  1 3.650000e-01    1.910000e+00
 TP3ar  SN4r  1 3.650000e-01    1.910000e+00
 TP3ar  SN3r  1 3.650000e-01    1.750000e+00
 TP3ar  SN2r  1 3.650000e-01    1.750000e+00
 TP3ar  SN1r  1 3.660000e-01    1.600000e+00
 TP2ar  SP1r  1 3.650000e-01    2.340000e+00
 TP2ar  SN6r  1 3.650000e-01    2.340000e+00
 TP2ar  SN5r  1 3.650000e-01    2.110000e+00
 TP2ar  SN4r  1 3.650000e-01    1.910000e+00
 TP2ar  SN3r  1 3.650000e-01    1.750000e+00
 TP2ar  SN2r  1 3.650000e-01    1.750000e+00
 TP2ar  SN1r  1 3.650000e-01    1.750000e+00
 TP1ar  SN6r  1 3.650000e-01    2.340000e+00
 TP1ar  SN5r  1 3.650000e-01    2.110000e+00
 TP1ar  SN4r  1 3.650000e-01    2.110000e+00
 TP1ar  SN3r  1 3.650000e-01    1.750000e+00
 TP1ar  SN2r  1 3.650000e-01    1.750000e+00
 TP1ar  SN1r  1 3.650000e-01    1.750000e+00
 TN6ar  SN5r  1 3.650000e-01    2.340000e+00
 TN6ar  SN4r  1 3.650000e-01    2.340000e+00
 TN6ar  SN3r  1 3.650000e-01    1.910000e+00
 TN6ar  SN2r  1 3.650000e-01    1.750000e+00
 TN6ar  SN1r  1 3.650000e-01    1.750000e+00
 TN5ar  SN4r  1 3.650000e-01    2.110000e+00
 TN5ar  SN3r  1 3.650000e-01    1.910000e+00
 TN5ar  SN2r  1 3.650000e-01    1.910000e+00
 TN5ar  SN1r  1 3.650000e-01    1.750000e+00
 TN4ar  SN3r  1 3.650000e-01    1.910000e+00
 TN4ar  SN2r  1 3.650000e-01    1.910000e+00
 TN4ar  SN1r  1 3.650000e-01    1.750000e+00
 TN3ar  SN2r  1 3.650000e-01    1.910000e+00
 TN3ar  SN1r  1 3.650000e-01    1.750000e+00
 TN2ar  SN1r  1 3.650000e-01    1.750000e+00
 TC6vr  SC5r  1 3.650000e-01    1.910000e+00
 TC6vr  SC4r  1 3.650000e-01    1.910000e+00
 TC6vr  SC3r  1 3.650000e-01    1.750000e+00
 TC6vr  SC2r  1 3.660000e-01    1.600000e+00
 TC6vr  SC1r  1 3.780000e-01    1.450000e+00
 TC6vr  SX4r  1 3.650000e-01    1.910000e+00
 TC6vr  SX3r  1 3.650000e-01    1.910000e+00
 TC6vr  SX2r  1 3.650000e-01    1.910000e+00
 TC6vr  SX1r  1 3.650000e-01    1.910000e+00
 TC5vr  SC4r  1 3.650000e-01    1.910000e+00
 TC5vr  SC3r  1 3.650000e-01    1.750000e+00
 TC5vr  SC2r  1 3.660000e-01    1.600000e+00
 TC5vr  SC1r  1 3.660000e-01    1.600000e+00
 TC5vr  SX4r  1 3.650000e-01    1.750000e+00
 TC5vr  SX3r  1 3.650000e-01    1.750000e+00
 TC5vr  SX2r  1 3.650000e-01    1.750000e+00
 TC5vr  SX1r  1 3.650000e-01    1.910000e+00
 TC4vr  SC3r  1 3.650000e-01    1.910000e+00
 TC4vr  SC2r  1 3.650000e-01    1.750000e+00
 TC4vr  SC1r  1 3.660000e-01    1.600000e+00
 TC4vr  SX4r  1 3.650000e-01    1.750000e+00
 TC4vr  SX3r  1 3.650000e-01    1.750000e+00
 TC4vr  SX2r  1 3.650000e-01    1.750000e+00
 TC4vr  SX1r  1 3.650000e-01    1.910000e+00
 TC3vr  SC2r  1 3.650000e-01    1.910000e+00
 TC3vr  SC1r  1 3.650000e-01    1.910000e+00
 TC3vr  SX4r  1 3.650000e-01    1.750000e+00
 TC3vr  SX3r  1 3.650000e-01    1.750000e+00
 TC3vr  SX2r  1 3.650000e-01    1.750000e+00
 TC3vr  SX1r  1 3.650000e-01    1.910000e+00
 TC2vr  SC1r  1 3.650000e-01    2.110000e+00
 TC2vr  SX4r  1 3.780000e-01    1.450000e+00
 TC2vr  SX3r  1 3.650000e-01    1.750000e+00
 TC2vr  SX2r  1 3.650000e-01    1.750000e+00
 TC2vr  SX1r  1 3.650000e-01    1.750000e+00
 TC1vr  SX4r  1 3.780000e-01    1.450000e+00
 TC1vr  SX3r  1 3.650000e-01    1.750000e+00
 TC1vr  SX2r  1 3.650000e-01    1.750000e+00
 TC1vr  SX1r  1 3.650000e-01    1.750000e+00
 TX4vr  SX3r  1 3.650000e-01    1.910000e+00
 TX4vr  SX2r  1 3.650000e-01    1.910000e+00
 TX4vr  SX1r  1 3.650000e-01    1.910000e+00
 TX3vr  SX2r  1 3.650000e-01    2.110000e+00
 TX3vr  SX1r  1 3.650000e-01    2.110000e+00
 TX2vr  SX1r  1 3.650000e-01    2.110000e+00
 TC6er  SC5r  1 3.650000e-01    1.910000e+00
 TC6er  SC4r  1 3.650000e-01    1.910000e+00
 TC6er  SC3r  1 3.650000e-01    1.750000e+00
 TC6er  SC2r  1 3.660000e-01    1.600000e+00
 TC6er  SC1r  1 3.780000e-01    1.450000e+00
 TC6er  SX4r  1 3.650000e-01    1.910000e+00
 TC6er  SX3r  1 3.650000e-01    1.910000e+00
 TC6er  SX2r  1 3.650000e-01    1.910000e+00
 TC6er  SX1r  1 3.650000e-01    1.910000e+00
 TC5er  SC4r  1 3.650000e-01    1.910000e+00
 TC5er  SC3r  1 3.650000e-01    1.750000e+00
 TC5er  SC2r  1 3.660000e-01    1.600000e+00
 TC5er  SC1r  1 3.660000e-01    1.600000e+00
 TC5er  SX4r  1 3.650000e-01    1.750000e+00
 TC5er  SX3r  1 3.650000e-01    1.750000e+00
 TC5er  SX2r  1 3.650000e-01    1.750000e+00
 TC5er  SX1r  1 3.650000e-01    1.910000e+00
 TC4er  SC3r  1 3.650000e-01    1.910000e+00
 TC4er  SC2r  1 3.650000e-01    1.750000e+00
 TC4er  SC1r  1 3.660000e-01    1.600000e+00
 TC4er  SX4r  1 3.650000e-01    1.750000e+00
 TC4er  SX3r  1 3.650000e-01    1.750000e+00
 TC4er  SX2r  1 3.650000e-01    1.750000e+00
 TC4er  SX1r  1 3.650000e-01    1.910000e+00
 TC3er  SC2r  1 3.650000e-01    1.910000e+00
 TC3er  SC1r  1 3.650000e-01    1.910000e+00
 TC3er  SX4r  1 3.650000e-01    1.750000e+00
 TC3er  SX3r  1 3.650000e-01    1.750000e+00
 TC3er  SX2r  1 3.650000e-01    1.750000e+00
 TC3er  SX1r  1 3.650000e-01    1.910000e+00
 TC2er  SC1r  1 3.650000e-01    2.110000e+00
 TC2er  SX4r  1 3.780000e-01    1.450000e+00
 TC2er  SX3r  1 3.650000e-01    1.750000e+00
 TC2er  SX2r  1 3.650000e-01    1.750000e+00
 TC2er  SX1r  1 3.650000e-01    1.750000e+00
 TC1er  SX4r  1 3.780000e-01    1.450000e+00
 TC1er  SX3r  1 3.650000e-01    1.750000e+00
 TC1er  SX2r  1 3.650000e-01    1.750000e+00
 TC1er  SX1r  1 3.650000e-01    1.750000e+00
 TX4er  SX3r  1 3.650000e-01    1.910000e+00
 TX4er  SX2r  1 3.650000e-01    1.910000e+00
 TX4er  SX1r  1 3.650000e-01    1.910000e+00
 TX3er  SX2r  1 3.650000e-01    2.110000e+00
 TX3er  SX1r  1 3.650000e-01    2.110000e+00
 TX2er  SX1r  1 3.650000e-01    2.110000e+00
 TP6dr  SC6r  1 3.780000e-01    1.450000e+00
 TP6dr  SC5r  1 3.940000e-01    1.290000e+00
 TP6dr  SC4r  1 4.040000e-01    1.130000e+00
 TP6dr  SC3r  1 4.090000e-01    1.080000e+00
 TP6dr  SC2r  1 4.090000e-01    1.080000e+00
 TP6dr  SC1r  1 4.840000e-01    8.900000e-01
 TP6dr  SX4r  1 3.660000e-01    1.600000e+00
 TP6dr  SX3r  1 3.660000e-01    1.600000e+00
 TP6dr  SX2r  1 3.780000e-01    1.450000e+00
 TP6dr  SX1r  1 3.940000e-01    1.290000e+00
 TP5dr  SC6r  1 3.780000e-01    1.450000e+00
 TP5dr  SC5r  1 3.780000e-01    1.450000e+00
 TP5dr  SC4r  1 3.940000e-01    1.290000e+00
 TP5dr  SC3r  1 4.040000e-01    1.130000e+00
 TP5dr  SC2r  1 4.040000e-01    1.130000e+00
 TP5dr  SC1r  1 4.090000e-01    1.080000e+00
 TP5dr  SX4r  1 3.650000e-01    1.750000e+00
 TP5dr  SX3r  1 3.660000e-01    1.600000e+00
 TP5dr  SX2r  1 3.660000e-01    1.600000e+00
 TP5dr  SX1r  1 3.940000e-01    1.290000e+00
 TP4dr  SC6r  1 3.660000e-01    1.600000e+00
 TP4dr  SC5r  1 3.780000e-01    1.450000e+00
 TP4dr  SC4r  1 3.940000e-01    1.290000e+00
 TP4dr  SC3r  1 4.040000e-01    1.130000e+00
 TP4dr  SC2r  1 4.040000e-01    1.130000e+00
 TP4dr  SC1r  1 4.090000e-01    1.080000e+00
 TP4dr  SX4r  1 3.650000e-01    1.750000e+00
 TP4dr  SX3r  1 3.660000e-01    1.600000e+00
 TP4dr  SX2r  1 3.660000e-01    1.600000e+00
 TP4dr  SX1r  1 3.780000e-01    1.450000e+00
 TP3dr  SC6r  1 3.650000e-01    1.750000e+00
 TP3dr  SC5r  1 3.660000e-01    1.600000e+00
 TP3dr  SC4r  1 3.780000e-01    1.450000e+00
 TP3dr  SC3r  1 4.040000e-01    1.130000e+00
 TP3dr  SC2r  1 4.040000e-01    1.130000e+00
 TP3dr  SC1r  1 4.090000e-01    1.080000e+00
 TP3dr  SX4r  1 3.650000e-01    1.750000e+00
 TP3dr  SX3r  1 3.650000e-01    1.750000e+00
 TP3dr  SX2r  1 3.660000e-01    1.600000e+00
 TP3dr  SX1r  1 3.780000e-01    1.450000e+00
 TP2dr  SC6r  1 3.650000e-01    1.750000e+00
 TP2dr  SC5r  1 3.660000e-01    1.600000e+00
 TP2dr  SC4r  1 3.780000e-01    1.450000e+00
 TP2dr  SC3r  1 3.940000e-01    1.290000e+00
 TP2dr  SC2r  1 3.940000e-01    1.290000e+00
 TP2dr  SC1r  1 4.040000e-01    1.130000e+00
 TP2dr  SX4r  1 3.650000e-01    1.750000e+00
 TP2dr  SX3r  1 3.650000e-01    1.750000e+00
 TP2dr  SX2r  1 3.660000e-01    1.600000e+00
 TP2dr  SX1r  1 3.780000e-01    1.450000e+00
 TP1dr  SC6r  1 3.650000e-01    1.750000e+00
 TP1dr  SC5r  1 3.660000e-01    1.600000e+00
 TP1dr  SC4r  1 3.780000e-01    1.450000e+00
 TP1dr  SC3r  1 3.940000e-01    1.290000e+00
 TP1dr  SC2r  1 3.940000e-01    1.290000e+00
 TP1dr  SC1r  1 4.040000e-01    1.130000e+00
 TP1dr  SX4r  1 3.650000e-01    1.750000e+00
 TP1dr  SX3r  1 3.650000e-01    1.750000e+00
 TP1dr  SX2r  1 3.660000e-01    1.600000e+00
 TP1dr  SX1r  1 3.780000e-01    1.450000e+00
 TN6dr  SC6r  1 3.650000e-01    1.910000e+00
 TN6dr  SC5r  1 3.650000e-01    1.750000e+00
 TN6dr  SC4r  1 3.660000e-01    1.600000e+00
 TN6dr  SC3r  1 3.780000e-01    1.450000e+00
 TN6dr  SC2r  1 3.780000e-01    1.450000e+00
 TN6dr  SC1r  1 3.940000e-01    1.290000e+00
 TN6dr  SX4r  1 3.650000e-01    1.910000e+00
 TN6dr  SX3r  1 3.650000e-01    1.750000e+00
 TN6dr  SX2r  1 3.660000e-01    1.600000e+00
 TN6dr  SX1r  1 3.780000e-01    1.450000e+00
 TN5dr  SC6r  1 3.650000e-01    1.910000e+00
 TN5dr  SC5r  1 3.650000e-01    1.750000e+00
 TN5dr  SC4r  1 3.660000e-01    1.600000e+00
 TN5dr  SC3r  1 3.660000e-01    1.600000e+00
 TN5dr  SC2r  1 3.780000e-01    1.450000e+00
 TN5dr  SC1r  1 3.940000e-01    1.290000e+00
 TN5dr  SX4r  1 3.650000e-01    2.110000e+00
 TN5dr  SX3r  1 3.650000e-01    1.910000e+00
 TN5dr  SX2r  1 3.650000e-01    1.750000e+00
 TN5dr  SX1r  1 3.660000e-01    1.600000e+00
 TN4dr  SC6r  1 3.650000e-01    1.910000e+00
 TN4dr  SC5r  1 3.650000e-01    1.750000e+00
 TN4dr  SC4r  1 3.650000e-01    1.750000e+00
 TN4dr  SC3r  1 3.660000e-01    1.600000e+00
 TN4dr  SC2r  1 3.780000e-01    1.450000e+00
 TN4dr  SC1r  1 3.940000e-01    1.290000e+00
 TN4dr  SX4r  1 3.650000e-01    2.340000e+00
 TN4dr  SX3r  1 3.650000e-01    2.110000e+00
 TN4dr  SX2r  1 3.650000e-01    1.750000e+00
 TN4dr  SX1r  1 3.660000e-01    1.600000e+00
 TN3dr  SC6r  1 3.650000e-01    1.910000e+00
 TN3dr  SC5r  1 3.650000e-01    1.750000e+00
 TN3dr  SC4r  1 3.650000e-01    1.750000e+00
 TN3dr  SC3r  1 3.660000e-01    1.600000e+00
 TN3dr  SC2r  1 3.660000e-01    1.600000e+00
 TN3dr  SC1r  1 3.780000e-01    1.450000e+00
 TN3dr  SX4r  1 3.650000e-01    2.110000e+00
 TN3dr  SX3r  1 3.650000e-01    1.910000e+00
 TN3dr  SX2r  1 3.650000e-01    1.750000e+00
 TN3dr  SX1r  1 3.650000e-01    1.750000e+00
 TN2dr  SC6r  1 3.650000e-01    1.910000e+00
 TN2dr  SC5r  1 3.650000e-01    1.750000e+00
 TN2dr  SC4r  1 3.650000e-01    1.750000e+00
 TN2dr  SC3r  1 3.650000e-01    1.750000e+00
 TN2dr  SC2r  1 3.660000e-01    1.600000e+00
 TN2dr  SC1r  1 3.780000e-01    1.450000e+00
 TN2dr  SX4r  1 3.650000e-01    2.110000e+00
 TN2dr  SX3r  1 3.650000e-01    1.910000e+00
 TN2dr  SX2r  1 3.650000e-01    1.750000e+00
 TN2dr  SX1r  1 3.650000e-01    1.750000e+00
 TN1dr  SC6r  1 3.650000e-01    2.110000e+00
 TN1dr  SC5r  1 3.650000e-01    1.910000e+00
 TN1dr  SC4r  1 3.650000e-01    1.910000e+00
 TN1dr  SC3r  1 3.650000e-01    1.750000e+00
 TN1dr  SC2r  1 3.660000e-01    1.600000e+00
 TN1dr  SC1r  1 3.780000e-01    1.450000e+00
 TN1dr  SX4r  1 3.650000e-01    1.910000e+00
 TN1dr  SX3r  1 3.650000e-01    1.910000e+00
 TN1dr  SX2r  1 3.650000e-01    1.750000e+00
 TN1dr  SX1r  1 3.650000e-01    1.750000e+00
 TP6ar  SC6r  1 3.780000e-01    1.450000e+00
 TP6ar  SC5r  1 3.940000e-01    1.290000e+00
 TP6ar  SC4r  1 4.040000e-01    1.130000e+00
 TP6ar  SC3r  1 4.090000e-01    1.080000e+00
 TP6ar  SC2r  1 4.090000e-01    1.080000e+00
 TP6ar  SC1r  1 4.840000e-01    8.900000e-01
 TP6ar  SX4r  1 3.660000e-01    1.600000e+00
 TP6ar  SX3r  1 3.660000e-01    1.600000e+00
 TP6ar  SX2r  1 3.780000e-01    1.450000e+00
 TP6ar  SX1r  1 3.940000e-01    1.290000e+00
 TP5ar  SC6r  1 3.780000e-01    1.450000e+00
 TP5ar  SC5r  1 3.780000e-01    1.450000e+00
 TP5ar  SC4r  1 3.940000e-01    1.290000e+00
 TP5ar  SC3r  1 4.040000e-01    1.130000e+00
 TP5ar  SC2r  1 4.040000e-01    1.130000e+00
 TP5ar  SC1r  1 4.090000e-01    1.080000e+00
 TP5ar  SX4r  1 3.650000e-01    1.750000e+00
 TP5ar  SX3r  1 3.660000e-01    1.600000e+00
 TP5ar  SX2r  1 3.660000e-01    1.600000e+00
 TP5ar  SX1r  1 3.940000e-01    1.290000e+00
 TP4ar  SC6r  1 3.660000e-01    1.600000e+00
 TP4ar  SC5r  1 3.780000e-01    1.450000e+00
 TP4ar  SC4r  1 3.940000e-01    1.290000e+00
 TP4ar  SC3r  1 4.040000e-01    1.130000e+00
 TP4ar  SC2r  1 4.040000e-01    1.130000e+00
 TP4ar  SC1r  1 4.090000e-01    1.080000e+00
 TP4ar  SX4r  1 3.650000e-01    1.750000e+00
 TP4ar  SX3r  1 3.660000e-01    1.600000e+00
 TP4ar  SX2r  1 3.660000e-01    1.600000e+00
 TP4ar  SX1r  1 3.780000e-01    1.450000e+00
 TP3ar  SC6r  1 3.650000e-01    1.750000e+00
 TP3ar  SC5r  1 3.660000e-01    1.600000e+00
 TP3ar  SC4r  1 3.780000e-01    1.450000e+00
 TP3ar  SC3r  1 4.040000e-01    1.130000e+00
 TP3ar  SC2r  1 4.040000e-01    1.130000e+00
 TP3ar  SC1r  1 4.090000e-01    1.080000e+00
 TP3ar  SX4r  1 3.650000e-01    1.750000e+00
 TP3ar  SX3r  1 3.650000e-01    1.750000e+00
 TP3ar  SX2r  1 3.660000e-01    1.600000e+00
 TP3ar  SX1r  1 3.780000e-01    1.450000e+00
 TP2ar  SC6r  1 3.650000e-01    1.750000e+00
 TP2ar  SC5r  1 3.660000e-01    1.600000e+00
 TP2ar  SC4r  1 3.780000e-01    1.450000e+00
 TP2ar  SC3r  1 3.940000e-01    1.290000e+00
 TP2ar  SC2r  1 3.940000e-01    1.290000e+00
 TP2ar  SC1r  1 4.040000e-01    1.130000e+00
 TP2ar  SX4r  1 3.650000e-01    1.750000e+00
 TP2ar  SX3r  1 3.650000e-01    1.750000e+00
 TP2ar  SX2r  1 3.660000e-01    1.600000e+00
 TP2ar  SX1r  1 3.780000e-01    1.450000e+00
 TP1ar  SC6r  1 3.650000e-01    1.750000e+00
 TP1ar  SC5r  1 3.660000e-01    1.600000e+00
 TP1ar  SC4r  1 3.780000e-01    1.450000e+00
 TP1ar  SC3r  1 3.940000e-01    1.290000e+00
 TP1ar  SC2r  1 3.940000e-01    1.290000e+00
 TP1ar  SC1r  1 4.040000e-01    1.130000e+00
 TP1ar  SX4r  1 3.650000e-01    1.750000e+00
 TP1ar  SX3r  1 3.650000e-01    1.750000e+00
 TP1ar  SX2r  1 3.660000e-01    1.600000e+00
 TP1ar  SX1r  1 3.780000e-01    1.450000e+00
 TN6ar  SC6r  1 3.650000e-01    1.910000e+00
 TN6ar  SC5r  1 3.650000e-01    1.750000e+00
 TN6ar  SC4r  1 3.660000e-01    1.600000e+00
 TN6ar  SC3r  1 3.780000e-01    1.450000e+00
 TN6ar  SC2r  1 3.780000e-01    1.450000e+00
 TN6ar  SC1r  1 3.940000e-01    1.290000e+00
 TN6ar  SX4r  1 3.650000e-01    1.910000e+00
 TN6ar  SX3r  1 3.650000e-01    1.750000e+00
 TN6ar  SX2r  1 3.660000e-01    1.600000e+00
 TN6ar  SX1r  1 3.780000e-01    1.450000e+00
 TN5ar  SC6r  1 3.650000e-01    1.910000e+00
 TN5ar  SC5r  1 3.650000e-01    1.750000e+00
 TN5ar  SC4r  1 3.660000e-01    1.600000e+00
 TN5ar  SC3r  1 3.660000e-01    1.600000e+00
 TN5ar  SC2r  1 3.780000e-01    1.450000e+00
 TN5ar  SC1r  1 3.940000e-01    1.290000e+00
 TN5ar  SX4r  1 3.650000e-01    2.110000e+00
 TN5ar  SX3r  1 3.650000e-01    1.910000e+00
 TN5ar  SX2r  1 3.650000e-01    1.750000e+00
 TN5ar  SX1r  1 3.660000e-01    1.600000e+00
 TN4ar  SC6r  1 3.650000e-01    1.910000e+00
 TN4ar  SC5r  1 3.650000e-01    1.750000e+00
 TN4ar  SC4r  1 3.650000e-01    1.750000e+00
 TN4ar  SC3r  1 3.660000e-01    1.600000e+00
 TN4ar  SC2r  1 3.780000e-01    1.450000e+00
 TN4ar  SC1r  1 3.940000e-01    1.290000e+00
 TN4ar  SX4r  1 3.650000e-01    2.340000e+00
 TN4ar  SX3r  1 3.650000e-01    2.110000e+00
 TN4ar  SX2r  1 3.650000e-01    1.750000e+00
 TN4ar  SX1r  1 3.660000e-01    1.600000e+00
 TN3ar  SC6r  1 3.650000e-01    1.910000e+00
 TN3ar  SC5r  1 3.650000e-01    1.750000e+00
 TN3ar  SC4r  1 3.650000e-01    1.750000e+00
 TN3ar  SC3r  1 3.660000e-01    1.600000e+00
 TN3ar  SC2r  1 3.660000e-01    1.600000e+00
 TN3ar  SC1r  1 3.780000e-01    1.450000e+00
 TN3ar  SX4r  1 3.650000e-01    2.110000e+00
 TN3ar  SX3r  1 3.650000e-01    1.910000e+00
 TN3ar  SX2r  1 3.650000e-01    1.750000e+00
 TN3ar  SX1r  1 3.650000e-01    1.750000e+00
 TN2ar  SC6r  1 3.650000e-01    1.910000e+00
 TN2ar  SC5r  1 3.650000e-01    1.750000e+00
 TN2ar  SC4r  1 3.650000e-01    1.750000e+00
 TN2ar  SC3r  1 3.650000e-01    1.750000e+00
 TN2ar  SC2r  1 3.660000e-01    1.600000e+00
 TN2ar  SC1r  1 3.780000e-01    1.450000e+00
 TN2ar  SX4r  1 3.650000e-01    2.110000e+00
 TN2ar  SX3r  1 3.650000e-01    1.910000e+00
 TN2ar  SX2r  1 3.650000e-01    1.750000e+00
 TN2ar  SX1r  1 3.650000e-01    1.750000e+00
 TN1ar  SC6r  1 3.650000e-01    2.110000e+00
 TN1ar  SC5r  1 3.650000e-01    1.910000e+00
 TN1ar  SC4r  1 3.650000e-01    1.910000e+00
 TN1ar  SC3r  1 3.650000e-01    1.750000e+00
 TN1ar  SC2r  1 3.660000e-01    1.600000e+00
 TN1ar  SC1r  1 3.780000e-01    1.450000e+00
 TN1ar  SX4r  1 3.650000e-01    1.910000e+00
 TN1ar  SX3r  1 3.650000e-01    1.910000e+00
 TN1ar  SX2r  1 3.650000e-01    1.750000e+00
 TN1ar  SX1r  1 3.650000e-01    1.750000e+00
 TP6dh  SP5h  1 3.650000e-01    3.930000e+00
 TP6dh  SP4h  1 3.650000e-01    3.640000e+00
 TP6dh  SP3h  1 3.650000e-01    3.370000e+00
 TP6dh  SP2h  1 3.650000e-01    3.370000e+00
 TP6dh  SP1h  1 3.650000e-01    3.100000e+00
 TP6dh  SN6h  1 3.650000e-01    2.830000e+00
 TP6dh  SN5h  1 3.650000e-01    2.340000e+00
 TP6dh  SN4h  1 3.650000e-01    2.110000e+00
 TP6dh  SN3h  1 3.650000e-01    1.910000e+00
 TP6dh  SN2h  1 3.650000e-01    1.750000e+00
 TP6dh  SN1h  1 3.660000e-01    1.600000e+00
 TP5dh  SP4h  1 3.650000e-01    3.370000e+00
 TP5dh  SP3h  1 3.650000e-01    3.100000e+00
 TP5dh  SP2h  1 3.650000e-01    3.100000e+00
 TP5dh  SP1h  1 3.650000e-01    2.830000e+00
 TP5dh  SN6h  1 3.650000e-01    2.570000e+00
 TP5dh  SN5h  1 3.650000e-01    2.340000e+00
 TP5dh  SN4h  1 3.650000e-01    2.340000e+00
 TP5dh  SN3h  1 3.650000e-01    1.910000e+00
 TP5dh  SN2h  1 3.650000e-01    1.750000e+00
 TP5dh  SN1h  1 3.660000e-01    1.600000e+00
 TP4dh  SP3h  1 3.650000e-01    3.100000e+00
 TP4dh  SP2h  1 3.650000e-01    3.100000e+00
 TP4dh  SP1h  1 3.650000e-01    2.830000e+00
 TP4dh  SN6h  1 3.650000e-01    2.570000e+00
 TP4dh  SN5h  1 3.650000e-01    2.340000e+00
 TP4dh  SN4h  1 3.650000e-01    2.340000e+00
 TP4dh  SN3h  1 3.650000e-01    2.110000e+00
 TP4dh  SN2h  1 3.650000e-01    1.910000e+00
 TP4dh  SN1h  1 3.650000e-01    1.750000e+00
 TP3dh  SP2h  1 3.650000e-01    3.100000e+00
 TP3dh  SP1h  1 3.650000e-01    2.830000e+00
 TP3dh  SN6h  1 3.650000e-01    2.570000e+00
 TP3dh  SN5h  1 3.650000e-01    2.340000e+00
 TP3dh  SN4h  1 3.650000e-01    2.340000e+00
 TP3dh  SN3h  1 3.650000e-01    2.110000e+00
 TP3dh  SN2h  1 3.650000e-01    2.110000e+00
 TP3dh  SN1h  1 3.650000e-01    1.910000e+00
 TP2dh  SP1h  1 3.650000e-01    2.830000e+00
 TP2dh  SN6h  1 3.650000e-01    2.830000e+00
 TP2dh  SN5h  1 3.650000e-01    2.570000e+00
 TP2dh  SN4h  1 3.650000e-01    2.340000e+00
 TP2dh  SN3h  1 3.650000e-01    2.110000e+00
 TP2dh  SN2h  1 3.650000e-01    2.110000e+00
 TP2dh  SN1h  1 3.650000e-01    2.110000e+00
 TP1dh  SN6h  1 3.650000e-01    2.830000e+00
 TP1dh  SN5h  1 3.650000e-01    2.570000e+00
 TP1dh  SN4h  1 3.650000e-01    2.570000e+00
 TP1dh  SN3h  1 3.650000e-01    2.110000e+00
 TP1dh  SN2h  1 3.650000e-01    2.110000e+00
 TP1dh  SN1h  1 3.650000e-01    2.110000e+00
 TN6dh  SN5h  1 3.650000e-01    2.830000e+00
 TN6dh  SN4h  1 3.650000e-01    2.830000e+00
 TN6dh  SN3h  1 3.650000e-01    2.340000e+00
 TN6dh  SN2h  1 3.650000e-01    2.110000e+00
 TN6dh  SN1h  1 3.650000e-01    2.110000e+00
 TN5dh  SN4h  1 3.650000e-01    2.570000e+00
 TN5dh  SN3h  1 3.650000e-01    2.340000e+00
 TN5dh  SN2h  1 3.650000e-01    2.340000e+00
 TN5dh  SN1h  1 3.650000e-01    2.110000e+00
 TN4dh  SN3h  1 3.650000e-01    2.340000e+00
 TN4dh  SN2h  1 3.650000e-01    2.340000e+00
 TN4dh  SN1h  1 3.650000e-01    2.110000e+00
 TN3dh  SN2h  1 3.650000e-01    2.340000e+00
 TN3dh  SN1h  1 3.650000e-01    2.110000e+00
 TN2dh  SN1h  1 3.650000e-01    2.110000e+00
 TP6ah  SP5h  1 3.650000e-01    3.930000e+00
 TP6ah  SP4h  1 3.650000e-01    3.640000e+00
 TP6ah  SP3h  1 3.650000e-01    3.370000e+00
 TP6ah  SP2h  1 3.650000e-01    3.370000e+00
 TP6ah  SP1h  1 3.650000e-01    3.100000e+00
 TP6ah  SN6h  1 3.650000e-01    2.830000e+00
 TP6ah  SN5h  1 3.650000e-01    2.340000e+00
 TP6ah  SN4h  1 3.650000e-01    2.110000e+00
 TP6ah  SN3h  1 3.650000e-01    1.910000e+00
 TP6ah  SN2h  1 3.650000e-01    1.750000e+00
 TP6ah  SN1h  1 3.660000e-01    1.600000e+00
 TP5ah  SP4h  1 3.650000e-01    3.370000e+00
 TP5ah  SP3h  1 3.650000e-01    3.100000e+00
 TP5ah  SP2h  1 3.650000e-01    3.100000e+00
 TP5ah  SP1h  1 3.650000e-01    2.830000e+00
 TP5ah  SN6h  1 3.650000e-01    2.570000e+00
 TP5ah  SN5h  1 3.650000e-01    2.340000e+00
 TP5ah  SN4h  1 3.650000e-01    2.340000e+00
 TP5ah  SN3h  1 3.650000e-01    1.910000e+00
 TP5ah  SN2h  1 3.650000e-01    1.750000e+00
 TP5ah  SN1h  1 3.660000e-01    1.600000e+00
 TP4ah  SP3h  1 3.650000e-01    3.100000e+00
 TP4ah  SP2h  1 3.650000e-01    3.100000e+00
 TP4ah  SP1h  1 3.650000e-01    2.830000e+00
 TP4ah  SN6h  1 3.650000e-01    2.570000e+00
 TP4ah  SN5h  1 3.650000e-01    2.340000e+00
 TP4ah  SN4h  1 3.650000e-01    2.340000e+00
 TP4ah  SN3h  1 3.650000e-01    2.110000e+00
 TP4ah  SN2h  1 3.650000e-01    1.910000e+00
 TP4ah  SN1h  1 3.650000e-01    1.750000e+00
 TP3ah  SP2h  1 3.650000e-01    3.100000e+00
 TP3ah  SP1h  1 3.650000e-01    2.830000e+00
 TP3ah  SN6h  1 3.650000e-01    2.570000e+00
 TP3ah  SN5h  1 3.650000e-01    2.340000e+00
 TP3ah  SN4h  1 3.650000e-01    2.340000e+00
 TP3ah  SN3h  1 3.650000e-01    2.110000e+00
 TP3ah  SN2h  1 3.650000e-01    2.110000e+00
 TP3ah  SN1h  1 3.650000e-01    1.910000e+00
 TP2ah  SP1h  1 3.650000e-01    2.830000e+00
 TP2ah  SN6h  1 3.650000e-01    2.830000e+00
 TP2ah  SN5h  1 3.650000e-01    2.570000e+00
 TP2ah  SN4h  1 3.650000e-01    2.340000e+00
 TP2ah  SN3h  1 3.650000e-01    2.110000e+00
 TP2ah  SN2h  1 3.650000e-01    2.110000e+00
 TP2ah  SN1h  1 3.650000e-01    2.110000e+00
 TP1ah  SN6h  1 3.650000e-01    2.830000e+00
 TP1ah  SN5h  1 3.650000e-01    2.570000e+00
 TP1ah  SN4h  1 3.650000e-01    2.570000e+00
 TP1ah  SN3h  1 3.650000e-01    2.110000e+00
 TP1ah  SN2h  1 3.650000e-01    2.110000e+00
 TP1ah  SN1h  1 3.650000e-01    2.110000e+00
 TN6ah  SN5h  1 3.650000e-01    2.830000e+00
 TN6ah  SN4h  1 3.650000e-01    2.830000e+00
 TN6ah  SN3h  1 3.650000e-01    2.340000e+00
 TN6ah  SN2h  1 3.650000e-01    2.110000e+00
 TN6ah  SN1h  1 3.650000e-01    2.110000e+00
 TN5ah  SN4h  1 3.650000e-01    2.570000e+00
 TN5ah  SN3h  1 3.650000e-01    2.340000e+00
 TN5ah  SN2h  1 3.650000e-01    2.340000e+00
 TN5ah  SN1h  1 3.650000e-01    2.110000e+00
 TN4ah  SN3h  1 3.650000e-01    2.340000e+00
 TN4ah  SN2h  1 3.650000e-01    2.340000e+00
 TN4ah  SN1h  1 3.650000e-01    2.110000e+00
 TN3ah  SN2h  1 3.650000e-01    2.340000e+00
 TN3ah  SN1h  1 3.650000e-01    2.110000e+00
 TN2ah  SN1h  1 3.650000e-01    2.110000e+00
 TC6vh  SC5h  1 3.650000e-01    2.340000e+00
 TC6vh  SC4h  1 3.650000e-01    2.340000e+00
 TC6vh  SC3h  1 3.650000e-01    2.110000e+00
 TC6vh  SC2h  1 3.650000e-01    1.910000e+00
 TC6vh  SC1h  1 3.650000e-01    1.750000e+00
 TC6vh  SX4h  1 3.650000e-01    2.340000e+00
 TC6vh  SX3h  1 3.650000e-01    2.340000e+00
 TC6vh  SX2h  1 3.650000e-01    2.340000e+00
 TC6vh  SX1h  1 3.650000e-01    2.340000e+00
 TC5vh  SC4h  1 3.650000e-01    2.340000e+00
 TC5vh  SC3h  1 3.650000e-01    2.110000e+00
 TC5vh  SC2h  1 3.650000e-01    1.910000e+00
 TC5vh  SC1h  1 3.650000e-01    1.910000e+00
 TC5vh  SX4h  1 3.650000e-01    2.110000e+00
 TC5vh  SX3h  1 3.650000e-01    2.110000e+00
 TC5vh  SX2h  1 3.650000e-01    2.110000e+00
 TC5vh  SX1h  1 3.650000e-01    2.340000e+00
 TC4vh  SC3h  1 3.650000e-01    2.340000e+00
 TC4vh  SC2h  1 3.650000e-01    2.110000e+00
 TC4vh  SC1h  1 3.650000e-01    1.910000e+00
 TC4vh  SX4h  1 3.650000e-01    2.110000e+00
 TC4vh  SX3h  1 3.650000e-01    2.110000e+00
 TC4vh  SX2h  1 3.650000e-01    2.110000e+00
 TC4vh  SX1h  1 3.650000e-01    2.340000e+00
 TC3vh  SC2h  1 3.650000e-01    2.340000e+00
 TC3vh  SC1h  1 3.650000e-01    2.340000e+00
 TC3vh  SX4h  1 3.650000e-01    2.110000e+00
 TC3vh  SX3h  1 3.650000e-01    2.110000e+00
 TC3vh  SX2h  1 3.650000e-01    2.110000e+00
 TC3vh  SX1h  1 3.650000e-01    2.340000e+00
 TC2vh  SC1h  1 3.650000e-01    2.570000e+00
 TC2vh  SX4h  1 3.650000e-01    1.750000e+00
 TC2vh  SX3h  1 3.650000e-01    2.110000e+00
 TC2vh  SX2h  1 3.650000e-01    2.110000e+00
 TC2vh  SX1h  1 3.650000e-01    2.110000e+00
 TC1vh  SX4h  1 3.650000e-01    1.750000e+00
 TC1vh  SX3h  1 3.650000e-01    2.110000e+00
 TC1vh  SX2h  1 3.650000e-01    2.110000e+00
 TC1vh  SX1h  1 3.650000e-01    2.110000e+00
 TX4vh  SX3h  1 3.650000e-01    2.340000e+00
 TX4vh  SX2h  1 3.650000e-01    2.340000e+00
 TX4vh  SX1h  1 3.650000e-01    2.340000e+00
 TX3vh  SX2h  1 3.650000e-01    2.570000e+00
 TX3vh  SX1h  1 3.650000e-01    2.570000e+00
 TX2vh  SX1h  1 3.650000e-01    2.570000e+00
 TC6eh  SC5h  1 3.650000e-01    2.340000e+00
 TC6eh  SC4h  1 3.650000e-01    2.340000e+00
 TC6eh  SC3h  1 3.650000e-01    2.110000e+00
 TC6eh  SC2h  1 3.650000e-01    1.910000e+00
 TC6eh  SC1h  1 3.650000e-01    1.750000e+00
 TC6eh  SX4h  1 3.650000e-01    2.340000e+00
 TC6eh  SX3h  1 3.650000e-01    2.340000e+00
 TC6eh  SX2h  1 3.650000e-01    2.340000e+00
 TC6eh  SX1h  1 3.650000e-01    2.340000e+00
 TC5eh  SC4h  1 3.650000e-01    2.340000e+00
 TC5eh  SC3h  1 3.650000e-01    2.110000e+00
 TC5eh  SC2h  1 3.650000e-01    1.910000e+00
 TC5eh  SC1h  1 3.650000e-01    1.910000e+00
 TC5eh  SX4h  1 3.650000e-01    2.110000e+00
 TC5eh  SX3h  1 3.650000e-01    2.110000e+00
 TC5eh  SX2h  1 3.650000e-01    2.110000e+00
 TC5eh  SX1h  1 3.650000e-01    2.340000e+00
 TC4eh  SC3h  1 3.650000e-01    2.340000e+00
 TC4eh  SC2h  1 3.650000e-01    2.110000e+00
 TC4eh  SC1h  1 3.650000e-01    1.910000e+00
 TC4eh  SX4h  1 3.650000e-01    2.110000e+00
 TC4eh  SX3h  1 3.650000e-01    2.110000e+00
 TC4eh  SX2h  1 3.650000e-01    2.110000e+00
 TC4eh  SX1h  1 3.650000e-01    2.340000e+00
 TC3eh  SC2h  1 3.650000e-01    2.340000e+00
 TC3eh  SC1h  1 3.650000e-01    2.340000e+00
 TC3eh  SX4h  1 3.650000e-01    2.110000e+00
 TC3eh  SX3h  1 3.650000e-01    2.110000e+00
 TC3eh  SX2h  1 3.650000e-01    2.110000e+00
 TC3eh  SX1h  1 3.650000e-01    2.340000e+00
 TC2eh  SC1h  1 3.650000e-01    2.570000e+00
 TC2eh  SX4h  1 3.650000e-01    1.750000e+00
 TC2eh  SX3h  1 3.650000e-01    2.110000e+00
 TC2eh  SX2h  1 3.650000e-01    2.110000e+00
 TC2eh  SX1h  1 3.650000e-01    2.110000e+00
 TC1eh  SX4h  1 3.650000e-01    1.750000e+00
 TC1eh  SX3h  1 3.650000e-01    2.110000e+00
 TC1eh  SX2h  1 3.650000e-01    2.110000e+00
 TC1eh  SX1h  1 3.650000e-01    2.110000e+00
 TX4eh  SX3h  1 3.650000e-01    2.340000e+00
 TX4eh  SX2h  1 3.650000e-01    2.340000e+00
 TX4eh  SX1h  1 3.650000e-01    2.340000e+00
 TX3eh  SX2h  1 3.650000e-01    2.570000e+00
 TX3eh  SX1h  1 3.650000e-01    2.570000e+00
 TX2eh  SX1h  1 3.650000e-01    2.570000e+00
 TP6dh  SC6h  1 3.780000e-01    1.450000e+00
 TP6dh  SC5h  1 3.940000e-01    1.290000e+00
 TP6dh  SC4h  1 4.040000e-01    1.130000e+00
 TP6dh  SC3h  1 4.090000e-01    1.080000e+00
 TP6dh  SC2h  1 4.090000e-01    1.080000e+00
 TP6dh  SC1h  1 4.840000e-01    8.900000e-01
 TP6dh  SX4h  1 3.660000e-01    1.600000e+00
 TP6dh  SX3h  1 3.660000e-01    1.600000e+00
 TP6dh  SX2h  1 3.780000e-01    1.450000e+00
 TP6dh  SX1h  1 3.940000e-01    1.290000e+00
 TP5dh  SC6h  1 3.780000e-01    1.450000e+00
 TP5dh  SC5h  1 3.780000e-01    1.450000e+00
 TP5dh  SC4h  1 3.940000e-01    1.290000e+00
 TP5dh  SC3h  1 4.040000e-01    1.130000e+00
 TP5dh  SC2h  1 4.040000e-01    1.130000e+00
 TP5dh  SC1h  1 4.090000e-01    1.080000e+00
 TP5dh  SX4h  1 3.650000e-01    1.750000e+00
 TP5dh  SX3h  1 3.660000e-01    1.600000e+00
 TP5dh  SX2h  1 3.660000e-01    1.600000e+00
 TP5dh  SX1h  1 3.940000e-01    1.290000e+00
 TP4dh  SC6h  1 3.660000e-01    1.600000e+00
 TP4dh  SC5h  1 3.780000e-01    1.450000e+00
 TP4dh  SC4h  1 3.940000e-01    1.290000e+00
 TP4dh  SC3h  1 4.040000e-01    1.130000e+00
 TP4dh  SC2h  1 4.040000e-01    1.130000e+00
 TP4dh  SC1h  1 4.090000e-01    1.080000e+00
 TP4dh  SX4h  1 3.650000e-01    1.750000e+00
 TP4dh  SX3h  1 3.660000e-01    1.600000e+00
 TP4dh  SX2h  1 3.660000e-01    1.600000e+00
 TP4dh  SX1h  1 3.780000e-01    1.450000e+00
 TP3dh  SC6h  1 3.650000e-01    1.750000e+00
 TP3dh  SC5h  1 3.660000e-01    1.600000e+00
 TP3dh  SC4h  1 3.780000e-01    1.450000e+00
 TP3dh  SC3h  1 4.040000e-01    1.130000e+00
 TP3dh  SC2h  1 4.040000e-01    1.130000e+00
 TP3dh  SC1h  1 4.090000e-01    1.080000e+00
 TP3dh  SX4h  1 3.650000e-01    1.750000e+00
 TP3dh  SX3h  1 3.650000e-01    1.750000e+00
 TP3dh  SX2h  1 3.660000e-01    1.600000e+00
 TP3dh  SX1h  1 3.780000e-01    1.450000e+00
 TP2dh  SC6h  1 3.650000e-01    1.750000e+00
 TP2dh  SC5h  1 3.660000e-01    1.600000e+00
 TP2dh  SC4h  1 3.780000e-01    1.450000e+00
 TP2dh  SC3h  1 3.940000e-01    1.290000e+00
 TP2dh  SC2h  1 3.940000e-01    1.290000e+00
 TP2dh  SC1h  1 4.040000e-01    1.130000e+00
 TP2dh  SX4h  1 3.650000e-01    1.750000e+00
 TP2dh  SX3h  1 3.650000e-01    1.750000e+00
 TP2dh  SX2h  1 3.660000e-01    1.600000e+00
 TP2dh  SX1h  1 3.780000e-01    1.450000e+00
 TP1dh  SC6h  1 3.650000e-01    1.750000e+00
 TP1dh  SC5h  1 3.660000e-01    1.600000e+00
 TP1dh  SC4h  1 3.780000e-01    1.450000e+00
 TP1dh  SC3h  1 3.940000e-01    1.290000e+00
 TP1dh  SC2h  1 3.940000e-01    1.290000e+00
 TP1dh  SC1h  1 4.040000e-01    1.130000e+00
 TP1dh  SX4h  1 3.650000e-01    1.750000e+00
 TP1dh  SX3h  1 3.650000e-01    1.750000e+00
 TP1dh  SX2h  1 3.660000e-01    1.600000e+00
 TP1dh  SX1h  1 3.780000e-01    1.450000e+00
 TN6dh  SC6h  1 3.650000e-01    1.910000e+00
 TN6dh  SC5h  1 3.650000e-01    1.750000e+00
 TN6dh  SC4h  1 3.660000e-01    1.600000e+00
 TN6dh  SC3h  1 3.780000e-01    1.450000e+00
 TN6dh  SC2h  1 3.780000e-01    1.450000e+00
 TN6dh  SC1h  1 3.940000e-01    1.290000e+00
 TN6dh  SX4h  1 3.650000e-01    1.910000e+00
 TN6dh  SX3h  1 3.650000e-01    1.750000e+00
 TN6dh  SX2h  1 3.660000e-01    1.600000e+00
 TN6dh  SX1h  1 3.780000e-01    1.450000e+00
 TN5dh  SC6h  1 3.650000e-01    1.910000e+00
 TN5dh  SC5h  1 3.650000e-01    1.750000e+00
 TN5dh  SC4h  1 3.660000e-01    1.600000e+00
 TN5dh  SC3h  1 3.660000e-01    1.600000e+00
 TN5dh  SC2h  1 3.780000e-01    1.450000e+00
 TN5dh  SC1h  1 3.940000e-01    1.290000e+00
 TN5dh  SX4h  1 3.650000e-01    2.110000e+00
 TN5dh  SX3h  1 3.650000e-01    1.910000e+00
 TN5dh  SX2h  1 3.650000e-01    1.750000e+00
 TN5dh  SX1h  1 3.660000e-01    1.600000e+00
 TN4dh  SC6h  1 3.650000e-01    1.910000e+00
 TN4dh  SC5h  1 3.650000e-01    1.750000e+00
 TN4dh  SC4h  1 3.650000e-01    1.750000e+00
 TN4dh  SC3h  1 3.660000e-01    1.600000e+00
 TN4dh  SC2h  1 3.780000e-01    1.450000e+00
 TN4dh  SC1h  1 3.940000e-01    1.290000e+00
 TN4dh  SX4h  1 3.650000e-01    2.340000e+00
 TN4dh  SX3h  1 3.650000e-01    2.110000e+00
 TN4dh  SX2h  1 3.650000e-01    1.750000e+00
 TN4dh  SX1h  1 3.660000e-01    1.600000e+00
 TN3dh  SC6h  1 3.650000e-01    1.910000e+00
 TN3dh  SC5h  1 3.650000e-01    1.750000e+00
 TN3dh  SC4h  1 3.650000e-01    1.750000e+00
 TN3dh  SC3h  1 3.660000e-01    1.600000e+00
 TN3dh  SC2h  1 3.660000e-01    1.600000e+00
 TN3dh  SC1h  1 3.780000e-01    1.450000e+00
 TN3dh  SX4h  1 3.650000e-01    2.110000e+00
 TN3dh  SX3h  1 3.650000e-01    1.910000e+00
 TN3dh  SX2h  1 3.650000e-01    1.750000e+00
 TN3dh  SX1h  1 3.650000e-01    1.750000e+00
 TN2dh  SC6h  1 3.650000e-01    1.910000e+00
 TN2dh  SC5h  1 3.650000e-01    1.750000e+00
 TN2dh  SC4h  1 3.650000e-01    1.750000e+00
 TN2dh  SC3h  1 3.650000e-01    1.750000e+00
 TN2dh  SC2h  1 3.660000e-01    1.600000e+00
 TN2dh  SC1h  1 3.780000e-01    1.450000e+00
 TN2dh  SX4h  1 3.650000e-01    2.110000e+00
 TN2dh  SX3h  1 3.650000e-01    1.910000e+00
 TN2dh  SX2h  1 3.650000e-01    1.750000e+00
 TN2dh  SX1h  1 3.650000e-01    1.750000e+00
 TN1dh  SC6h  1 3.650000e-01    2.110000e+00
 TN1dh  SC5h  1 3.650000e-01    1.910000e+00
 TN1dh  SC4h  1 3.650000e-01    1.910000e+00
 TN1dh  SC3h  1 3.650000e-01    1.750000e+00
 TN1dh  SC2h  1 3.660000e-01    1.600000e+00
 TN1dh  SC1h  1 3.780000e-01    1.450000e+00
 TN1dh  SX4h  1 3.650000e-01    1.910000e+00
 TN1dh  SX3h  1 3.650000e-01    1.910000e+00
 TN1dh  SX2h  1 3.650000e-01    1.750000e+00
 TN1dh  SX1h  1 3.650000e-01    1.750000e+00
 TP6ah  SC6h  1 3.780000e-01    1.450000e+00
 TP6ah  SC5h  1 3.940000e-01    1.290000e+00
 TP6ah  SC4h  1 4.040000e-01    1.130000e+00
 TP6ah  SC3h  1 4.090000e-01    1.080000e+00
 TP6ah  SC2h  1 4.090000e-01    1.080000e+00
 TP6ah  SC1h  1 4.840000e-01    8.900000e-01
 TP6ah  SX4h  1 3.660000e-01    1.600000e+00
 TP6ah  SX3h  1 3.660000e-01    1.600000e+00
 TP6ah  SX2h  1 3.780000e-01    1.450000e+00
 TP6ah  SX1h  1 3.940000e-01    1.290000e+00
 TP5ah  SC6h  1 3.780000e-01    1.450000e+00
 TP5ah  SC5h  1 3.780000e-01    1.450000e+00
 TP5ah  SC4h  1 3.940000e-01    1.290000e+00
 TP5ah  SC3h  1 4.040000e-01    1.130000e+00
 TP5ah  SC2h  1 4.040000e-01    1.130000e+00
 TP5ah  SC1h  1 4.090000e-01    1.080000e+00
 TP5ah  SX4h  1 3.650000e-01    1.750000e+00
 TP5ah  SX3h  1 3.660000e-01    1.600000e+00
 TP5ah  SX2h  1 3.660000e-01    1.600000e+00
 TP5ah  SX1h  1 3.940000e-01    1.290000e+00
 TP4ah  SC6h  1 3.660000e-01    1.600000e+00
 TP4ah  SC5h  1 3.780000e-01    1.450000e+00
 TP4ah  SC4h  1 3.940000e-01    1.290000e+00
 TP4ah  SC3h  1 4.040000e-01    1.130000e+00
 TP4ah  SC2h  1 4.040000e-01    1.130000e+00
 TP4ah  SC1h  1 4.090000e-01    1.080000e+00
 TP4ah  SX4h  1 3.650000e-01    1.750000e+00
 TP4ah  SX3h  1 3.660000e-01    1.600000e+00
 TP4ah  SX2h  1 3.660000e-01    1.600000e+00
 TP4ah  SX1h  1 3.780000e-01    1.450000e+00
 TP3ah  SC6h  1 3.650000e-01    1.750000e+00
 TP3ah  SC5h  1 3.660000e-01    1.600000e+00
 TP3ah  SC4h  1 3.780000e-01    1.450000e+00
 TP3ah  SC3h  1 4.040000e-01    1.130000e+00
 TP3ah  SC2h  1 4.040000e-01    1.130000e+00
 TP3ah  SC1h  1 4.090000e-01    1.080000e+00
 TP3ah  SX4h  1 3.650000e-01    1.750000e+00
 TP3ah  SX3h  1 3.650000e-01    1.750000e+00
 TP3ah  SX2h  1 3.660000e-01    1.600000e+00
 TP3ah  SX1h  1 3.780000e-01    1.450000e+00
 TP2ah  SC6h  1 3.650000e-01    1.750000e+00
 TP2ah  SC5h  1 3.660000e-01    1.600000e+00
 TP2ah  SC4h  1 3.780000e-01    1.450000e+00
 TP2ah  SC3h  1 3.940000e-01    1.290000e+00
 TP2ah  SC2h  1 3.940000e-01    1.290000e+00
 TP2ah  SC1h  1 4.040000e-01    1.130000e+00
 TP2ah  SX4h  1 3.650000e-01    1.750000e+00
 TP2ah  SX3h  1 3.650000e-01    1.750000e+00
 TP2ah  SX2h  1 3.660000e-01    1.600000e+00
 TP2ah  SX1h  1 3.780000e-01    1.450000e+00
 TP1ah  SC6h  1 3.650000e-01    1.750000e+00
 TP1ah  SC5h  1 3.660000e-01    1.600000e+00
 TP1ah  SC4h  1 3.780000e-01    1.450000e+00
 TP1ah  SC3h  1 3.940000e-01    1.290000e+00
 TP1ah  SC2h  1 3.940000e-01    1.290000e+00
 TP1ah  SC1h  1 4.040000e-01    1.130000e+00
 TP1ah  SX4h  1 3.650000e-01    1.750000e+00
 TP1ah  SX3h  1 3.650000e-01    1.750000e+00
 TP1ah  SX2h  1 3.660000e-01    1.600000e+00
 TP1ah  SX1h  1 3.780000e-01    1.450000e+00
 TN6ah  SC6h  1 3.650000e-01    1.910000e+00
 TN6ah  SC5h  1 3.650000e-01    1.750000e+00
 TN6ah  SC4h  1 3.660000e-01    1.600000e+00
 TN6ah  SC3h  1 3.780000e-01    1.450000e+00
 TN6ah  SC2h  1 3.780000e-01    1.450000e+00
 TN6ah  SC1h  1 3.940000e-01    1.290000e+00
 TN6ah  SX4h  1 3.650000e-01    1.910000e+00
 TN6ah  SX3h  1 3.650000e-01    1.750000e+00
 TN6ah  SX2h  1 3.660000e-01    1.600000e+00
 TN6ah  SX1h  1 3.780000e-01    1.450000e+00
 TN5ah  SC6h  1 3.650000e-01    1.910000e+00
 TN5ah  SC5h  1 3.650000e-01    1.750000e+00
 TN5ah  SC4h  1 3.660000e-01    1.600000e+00
 TN5ah  SC3h  1 3.660000e-01    1.600000e+00
 TN5ah  SC2h  1 3.780000e-01    1.450000e+00
 TN5ah  SC1h  1 3.940000e-01    1.290000e+00
 TN5ah  SX4h  1 3.650000e-01    2.110000e+00
 TN5ah  SX3h  1 3.650000e-01    1.910000e+00
 TN5ah  SX2h  1 3.650000e-01    1.750000e+00
 TN5ah  SX1h  1 3.660000e-01    1.600000e+00
 TN4ah  SC6h  1 3.650000e-01    1.910000e+00
 TN4ah  SC5h  1 3.650000e-01    1.750000e+00
 TN4ah  SC4h  1 3.650000e-01    1.750000e+00
 TN4ah  SC3h  1 3.660000e-01    1.600000e+00
 TN4ah  SC2h  1 3.780000e-01    1.450000e+00
 TN4ah  SC1h  1 3.940000e-01    1.290000e+00
 TN4ah  SX4h  1 3.650000e-01    2.340000e+00
 TN4ah  SX3h  1 3.650000e-01    2.110000e+00
 TN4ah  SX2h  1 3.650000e-01    1.750000e+00
 TN4ah  SX1h  1 3.660000e-01    1.600000e+00
 TN3ah  SC6h  1 3.650000e-01    1.910000e+00
 TN3ah  SC5h  1 3.650000e-01    1.750000e+00
 TN3ah  SC4h  1 3.650000e-01    1.750000e+00
 TN3ah  SC3h  1 3.660000e-01    1.600000e+00
 TN3ah  SC2h  1 3.660000e-01    1.600000e+00
 TN3ah  SC1h  1 3.780000e-01    1.450000e+00
 TN3ah  SX4h  1 3.650000e-01    2.110000e+00
 TN3ah  SX3h  1 3.650000e-01    1.910000e+00
 TN3ah  SX2h  1 3.650000e-01    1.750000e+00
 TN3ah  SX1h  1 3.650000e-01    1.750000e+00
 TN2ah  SC6h  1 3.650000e-01    1.910000e+00
 TN2ah  SC5h  1 3.650000e-01    1.750000e+00
 TN2ah  SC4h  1 3.650000e-01    1.750000e+00
 TN2ah  SC3h  1 3.650000e-01    1.750000e+00
 TN2ah  SC2h  1 3.660000e-01    1.600000e+00
 TN2ah  SC1h  1 3.780000e-01    1.450000e+00
 TN2ah  SX4h  1 3.650000e-01    2.110000e+00
 TN2ah  SX3h  1 3.650000e-01    1.910000e+00
 TN2ah  SX2h  1 3.650000e-01    1.750000e+00
 TN2ah  SX1h  1 3.650000e-01    1.750000e+00
 TN1ah  SC6h  1 3.650000e-01    2.110000e+00
 TN1ah  SC5h  1 3.650000e-01    1.910000e+00
 TN1ah  SC4h  1 3.650000e-01    1.910000e+00
 TN1ah  SC3h  1 3.650000e-01    1.750000e+00
 TN1ah  SC2h  1 3.660000e-01    1.600000e+00
 TN1ah  SC1h  1 3.780000e-01    1.450000e+00
 TN1ah  SX4h  1 3.650000e-01    1.910000e+00
 TN1ah  SX3h  1 3.650000e-01    1.910000e+00
 TN1ah  SX2h  1 3.650000e-01    1.750000e+00
 TN1ah  SX1h  1 3.650000e-01    1.750000e+00
 TP6dh  SP5r  1 3.650000e-01    3.640000e+00
 TP6dr  SP5h  1 3.650000e-01    3.640000e+00
 TP6dh  SP4r  1 3.650000e-01    3.370000e+00
 TP6dr  SP4h  1 3.650000e-01    3.370000e+00
 TP6dh  SP3r  1 3.650000e-01    3.100000e+00
 TP6dr  SP3h  1 3.650000e-01    3.100000e+00
 TP6dh  SP2r  1 3.650000e-01    3.100000e+00
 TP6dr  SP2h  1 3.650000e-01    3.100000e+00
 TP6dh  SP1r  1 3.650000e-01    2.830000e+00
 TP6dr  SP1h  1 3.650000e-01    2.830000e+00
 TP6dh  SN6r  1 3.650000e-01    2.570000e+00
 TP6dr  SN6h  1 3.650000e-01    2.570000e+00
 TP6dh  SN5r  1 3.650000e-01    2.110000e+00
 TP6dr  SN5h  1 3.650000e-01    2.110000e+00
 TP6dh  SN4r  1 3.650000e-01    1.910000e+00
 TP6dr  SN4h  1 3.650000e-01    1.910000e+00
 TP6dh  SN3r  1 3.650000e-01    1.750000e+00
 TP6dr  SN3h  1 3.650000e-01    1.750000e+00
 TP6dh  SN2r  1 3.660000e-01    1.600000e+00
 TP6dr  SN2h  1 3.660000e-01    1.600000e+00
 TP6dh  SN1r  1 3.780000e-01    1.450000e+00
 TP6dr  SN1h  1 3.780000e-01    1.450000e+00
 TP5dh  SP4r  1 3.650000e-01    3.100000e+00
 TP5dr  SP4h  1 3.650000e-01    3.100000e+00
 TP5dh  SP3r  1 3.650000e-01    2.830000e+00
 TP5dr  SP3h  1 3.650000e-01    2.830000e+00
 TP5dh  SP2r  1 3.650000e-01    2.830000e+00
 TP5dr  SP2h  1 3.650000e-01    2.830000e+00
 TP5dh  SP1r  1 3.650000e-01    2.570000e+00
 TP5dr  SP1h  1 3.650000e-01    2.570000e+00
 TP5dh  SN6r  1 3.650000e-01    2.340000e+00
 TP5dr  SN6h  1 3.650000e-01    2.340000e+00
 TP5dh  SN5r  1 3.650000e-01    2.110000e+00
 TP5dr  SN5h  1 3.650000e-01    2.110000e+00
 TP5dh  SN4r  1 3.650000e-01    2.110000e+00
 TP5dr  SN4h  1 3.650000e-01    2.110000e+00
 TP5dh  SN3r  1 3.650000e-01    1.750000e+00
 TP5dr  SN3h  1 3.650000e-01    1.750000e+00
 TP5dh  SN2r  1 3.660000e-01    1.600000e+00
 TP5dr  SN2h  1 3.660000e-01    1.600000e+00
 TP5dh  SN1r  1 3.780000e-01    1.450000e+00
 TP5dr  SN1h  1 3.780000e-01    1.450000e+00
 TP4dh  SP3r  1 3.650000e-01    2.830000e+00
 TP4dr  SP3h  1 3.650000e-01    2.830000e+00
 TP4dh  SP2r  1 3.650000e-01    2.830000e+00
 TP4dr  SP2h  1 3.650000e-01    2.830000e+00
 TP4dh  SP1r  1 3.650000e-01    2.570000e+00
 TP4dr  SP1h  1 3.650000e-01    2.570000e+00
 TP4dh  SN6r  1 3.650000e-01    2.340000e+00
 TP4dr  SN6h  1 3.650000e-01    2.340000e+00
 TP4dh  SN5r  1 3.650000e-01    2.110000e+00
 TP4dr  SN5h  1 3.650000e-01    2.110000e+00
 TP4dh  SN4r  1 3.650000e-01    2.110000e+00
 TP4dr  SN4h  1 3.650000e-01    2.110000e+00
 TP4dh  SN3r  1 3.650000e-01    1.910000e+00
 TP4dr  SN3h  1 3.650000e-01    1.910000e+00
 TP4dh  SN2r  1 3.650000e-01    1.750000e+00
 TP4dr  SN2h  1 3.650000e-01    1.750000e+00
 TP4dh  SN1r  1 3.660000e-01    1.600000e+00
 TP4dr  SN1h  1 3.660000e-01    1.600000e+00
 TP3dh  SP2r  1 3.650000e-01    2.830000e+00
 TP3dr  SP2h  1 3.650000e-01    2.830000e+00
 TP3dh  SP1r  1 3.650000e-01    2.570000e+00
 TP3dr  SP1h  1 3.650000e-01    2.570000e+00
 TP3dh  SN6r  1 3.650000e-01    2.340000e+00
 TP3dr  SN6h  1 3.650000e-01    2.340000e+00
 TP3dh  SN5r  1 3.650000e-01    2.110000e+00
 TP3dr  SN5h  1 3.650000e-01    2.110000e+00
 TP3dh  SN4r  1 3.650000e-01    2.110000e+00
 TP3dr  SN4h  1 3.650000e-01    2.110000e+00
 TP3dh  SN3r  1 3.650000e-01    1.910000e+00
 TP3dr  SN3h  1 3.650000e-01    1.910000e+00
 TP3dh  SN2r  1 3.650000e-01    1.910000e+00
 TP3dr  SN2h  1 3.650000e-01    1.910000e+00
 TP3dh  SN1r  1 3.650000e-01    1.750000e+00
 TP3dr  SN1h  1 3.650000e-01    1.750000e+00
 TP2dh  SP1r  1 3.650000e-01    2.570000e+00
 TP2dr  SP1h  1 3.650000e-01    2.570000e+00
 TP2dh  SN6r  1 3.650000e-01    2.570000e+00
 TP2dr  SN6h  1 3.650000e-01    2.570000e+00
 TP2dh  SN5r  1 3.650000e-01    2.340000e+00
 TP2dr  SN5h  1 3.650000e-01    2.340000e+00
 TP2dh  SN4r  1 3.650000e-01    2.110000e+00
 TP2dr  SN4h  1 3.650000e-01    2.110000e+00
 TP2dh  SN3r  1 3.650000e-01    1.910000e+00
 TP2dr  SN3h  1 3.650000e-01    1.910000e+00
 TP2dh  SN2r  1 3.650000e-01    1.910000e+00
 TP2dr  SN2h  1 3.650000e-01    1.910000e+00
 TP2dh  SN1r  1 3.650000e-01    1.910000e+00
 TP2dr  SN1h  1 3.650000e-01    1.910000e+00
 TP1dh  SN6r  1 3.650000e-01    2.570000e+00
 TP1dr  SN6h  1 3.650000e-01    2.570000e+00
 TP1dh  SN5r  1 3.650000e-01    2.340000e+00
 TP1dr  SN5h  1 3.650000e-01    2.340000e+00
 TP1dh  SN4r  1 3.650000e-01    2.340000e+00
 TP1dr  SN4h  1 3.650000e-01    2.340000e+00
 TP1dh  SN3r  1 3.650000e-01    1.910000e+00
 TP1dr  SN3h  1 3.650000e-01    1.910000e+00
 TP1dh  SN2r  1 3.650000e-01    1.910000e+00
 TP1dr  SN2h  1 3.650000e-01    1.910000e+00
 TP1dh  SN1r  1 3.650000e-01    1.910000e+00
 TP1dr  SN1h  1 3.650000e-01    1.910000e+00
 TN6dh  SN5r  1 3.650000e-01    2.570000e+00
 TN6dr  SN5h  1 3.650000e-01    2.570000e+00
 TN6dh  SN4r  1 3.650000e-01    2.570000e+00
 TN6dr  SN4h  1 3.650000e-01    2.570000e+00
 TN6dh  SN3r  1 3.650000e-01    2.110000e+00
 TN6dr  SN3h  1 3.650000e-01    2.110000e+00
 TN6dh  SN2r  1 3.650000e-01    1.910000e+00
 TN6dr  SN2h  1 3.650000e-01    1.910000e+00
 TN6dh  SN1r  1 3.650000e-01    1.910000e+00
 TN6dr  SN1h  1 3.650000e-01    1.910000e+00
 TN5dh  SN4r  1 3.650000e-01    2.340000e+00
 TN5dr  SN4h  1 3.650000e-01    2.340000e+00
 TN5dh  SN3r  1 3.650000e-01    2.110000e+00
 TN5dr  SN3h  1 3.650000e-01    2.110000e+00
 TN5dh  SN2r  1 3.650000e-01    2.110000e+00
 TN5dr  SN2h  1 3.650000e-01    2.110000e+00
 TN5dh  SN1r  1 3.650000e-01    1.910000e+00
 TN5dr  SN1h  1 3.650000e-01    1.910000e+00
 TN4dh  SN3r  1 3.650000e-01    2.110000e+00
 TN4dr  SN3h  1 3.650000e-01    2.110000e+00
 TN4dh  SN2r  1 3.650000e-01    2.110000e+00
 TN4dr  SN2h  1 3.650000e-01    2.110000e+00
 TN4dh  SN1r  1 3.650000e-01    1.910000e+00
 TN4dr  SN1h  1 3.650000e-01    1.910000e+00
 TN3dh  SN2r  1 3.650000e-01    2.110000e+00
 TN3dr  SN2h  1 3.650000e-01    2.110000e+00
 TN3dh  SN1r  1 3.650000e-01    1.910000e+00
 TN3dr  SN1h  1 3.650000e-01    1.910000e+00
 TN2dh  SN1r  1 3.650000e-01    1.910000e+00
 TN2dr  SN1h  1 3.650000e-01    1.910000e+00
 TP6ah  SP5r  1 3.650000e-01    3.640000e+00
 TP6ar  SP5h  1 3.650000e-01    3.640000e+00
 TP6ah  SP4r  1 3.650000e-01    3.370000e+00
 TP6ar  SP4h  1 3.650000e-01    3.370000e+00
 TP6ah  SP3r  1 3.650000e-01    3.100000e+00
 TP6ar  SP3h  1 3.650000e-01    3.100000e+00
 TP6ah  SP2r  1 3.650000e-01    3.100000e+00
 TP6ar  SP2h  1 3.650000e-01    3.100000e+00
 TP6ah  SP1r  1 3.650000e-01    2.830000e+00
 TP6ar  SP1h  1 3.650000e-01    2.830000e+00
 TP6ah  SN6r  1 3.650000e-01    2.570000e+00
 TP6ar  SN6h  1 3.650000e-01    2.570000e+00
 TP6ah  SN5r  1 3.650000e-01    2.110000e+00
 TP6ar  SN5h  1 3.650000e-01    2.110000e+00
 TP6ah  SN4r  1 3.650000e-01    1.910000e+00
 TP6ar  SN4h  1 3.650000e-01    1.910000e+00
 TP6ah  SN3r  1 3.650000e-01    1.750000e+00
 TP6ar  SN3h  1 3.650000e-01    1.750000e+00
 TP6ah  SN2r  1 3.660000e-01    1.600000e+00
 TP6ar  SN2h  1 3.660000e-01    1.600000e+00
 TP6ah  SN1r  1 3.780000e-01    1.450000e+00
 TP6ar  SN1h  1 3.780000e-01    1.450000e+00
 TP5ah  SP4r  1 3.650000e-01    3.100000e+00
 TP5ar  SP4h  1 3.650000e-01    3.100000e+00
 TP5ah  SP3r  1 3.650000e-01    2.830000e+00
 TP5ar  SP3h  1 3.650000e-01    2.830000e+00
 TP5ah  SP2r  1 3.650000e-01    2.830000e+00
 TP5ar  SP2h  1 3.650000e-01    2.830000e+00
 TP5ah  SP1r  1 3.650000e-01    2.570000e+00
 TP5ar  SP1h  1 3.650000e-01    2.570000e+00
 TP5ah  SN6r  1 3.650000e-01    2.340000e+00
 TP5ar  SN6h  1 3.650000e-01    2.340000e+00
 TP5ah  SN5r  1 3.650000e-01    2.110000e+00
 TP5ar  SN5h  1 3.650000e-01    2.110000e+00
 TP5ah  SN4r  1 3.650000e-01    2.110000e+00
 TP5ar  SN4h  1 3.650000e-01    2.110000e+00
 TP5ah  SN3r  1 3.650000e-01    1.750000e+00
 TP5ar  SN3h  1 3.650000e-01    1.750000e+00
 TP5ah  SN2r  1 3.660000e-01    1.600000e+00
 TP5ar  SN2h  1 3.660000e-01    1.600000e+00
 TP5ah  SN1r  1 3.780000e-01    1.450000e+00
 TP5ar  SN1h  1 3.780000e-01    1.450000e+00
 TP4ah  SP3r  1 3.650000e-01    2.830000e+00
 TP4ar  SP3h  1 3.650000e-01    2.830000e+00
 TP4ah  SP2r  1 3.650000e-01    2.830000e+00
 TP4ar  SP2h  1 3.650000e-01    2.830000e+00
 TP4ah  SP1r  1 3.650000e-01    2.570000e+00
 TP4ar  SP1h  1 3.650000e-01    2.570000e+00
 TP4ah  SN6r  1 3.650000e-01    2.340000e+00
 TP4ar  SN6h  1 3.650000e-01    2.340000e+00
 TP4ah  SN5r  1 3.650000e-01    2.110000e+00
 TP4ar  SN5h  1 3.650000e-01    2.110000e+00
 TP4ah  SN4r  1 3.650000e-01    2.110000e+00
 TP4ar  SN4h  1 3.650000e-01    2.110000e+00
 TP4ah  SN3r  1 3.650000e-01    1.910000e+00
 TP4ar  SN3h  1 3.650000e-01    1.910000e+00
 TP4ah  SN2r  1 3.650000e-01    1.750000e+00
 TP4ar  SN2h  1 3.650000e-01    1.750000e+00
 TP4ah  SN1r  1 3.660000e-01    1.600000e+00
 TP4ar  SN1h  1 3.660000e-01    1.600000e+00
 TP3ah  SP2r  1 3.650000e-01    2.830000e+00
 TP3ar  SP2h  1 3.650000e-01    2.830000e+00
 TP3ah  SP1r  1 3.650000e-01    2.570000e+00
 TP3ar  SP1h  1 3.650000e-01    2.570000e+00
 TP3ah  SN6r  1 3.650000e-01    2.340000e+00
 TP3ar  SN6h  1 3.650000e-01    2.340000e+00
 TP3ah  SN5r  1 3.650000e-01    2.110000e+00
 TP3ar  SN5h  1 3.650000e-01    2.110000e+00
 TP3ah  SN4r  1 3.650000e-01    2.110000e+00
 TP3ar  SN4h  1 3.650000e-01    2.110000e+00
 TP3ah  SN3r  1 3.650000e-01    1.910000e+00
 TP3ar  SN3h  1 3.650000e-01    1.910000e+00
 TP3ah  SN2r  1 3.650000e-01    1.910000e+00
 TP3ar  SN2h  1 3.650000e-01    1.910000e+00
 TP3ah  SN1r  1 3.650000e-01    1.750000e+00
 TP3ar  SN1h  1 3.650000e-01    1.750000e+00
 TP2ah  SP1r  1 3.650000e-01    2.570000e+00
 TP2ar  SP1h  1 3.650000e-01    2.570000e+00
 TP2ah  SN6r  1 3.650000e-01    2.570000e+00
 TP2ar  SN6h  1 3.650000e-01    2.570000e+00
 TP2ah  SN5r  1 3.650000e-01    2.340000e+00
 TP2ar  SN5h  1 3.650000e-01    2.340000e+00
 TP2ah  SN4r  1 3.650000e-01    2.110000e+00
 TP2ar  SN4h  1 3.650000e-01    2.110000e+00
 TP2ah  SN3r  1 3.650000e-01    1.910000e+00
 TP2ar  SN3h  1 3.650000e-01    1.910000e+00
 TP2ah  SN2r  1 3.650000e-01    1.910000e+00
 TP2ar  SN2h  1 3.650000e-01    1.910000e+00
 TP2ah  SN1r  1 3.650000e-01    1.910000e+00
 TP2ar  SN1h  1 3.650000e-01    1.910000e+00
 TP1ah  SN6r  1 3.650000e-01    2.570000e+00
 TP1ar  SN6h  1 3.650000e-01    2.570000e+00
 TP1ah  SN5r  1 3.650000e-01    2.340000e+00
 TP1ar  SN5h  1 3.650000e-01    2.340000e+00
 TP1ah  SN4r  1 3.650000e-01    2.340000e+00
 TP1ar  SN4h  1 3.650000e-01    2.340000e+00
 TP1ah  SN3r  1 3.650000e-01    1.910000e+00
 TP1ar  SN3h  1 3.650000e-01    1.910000e+00
 TP1ah  SN2r  1 3.650000e-01    1.910000e+00
 TP1ar  SN2h  1 3.650000e-01    1.910000e+00
 TP1ah  SN1r  1 3.650000e-01    1.910000e+00
 TP1ar  SN1h  1 3.650000e-01    1.910000e+00
 TN6ah  SN5r  1 3.650000e-01    2.570000e+00
 TN6ar  SN5h  1 3.650000e-01    2.570000e+00
 TN6ah  SN4r  1 3.650000e-01    2.570000e+00
 TN6ar  SN4h  1 3.650000e-01    2.570000e+00
 TN6ah  SN3r  1 3.650000e-01    2.110000e+00
 TN6ar  SN3h  1 3.650000e-01    2.110000e+00
 TN6ah  SN2r  1 3.650000e-01    1.910000e+00
 TN6ar  SN2h  1 3.650000e-01    1.910000e+00
 TN6ah  SN1r  1 3.650000e-01    1.910000e+00
 TN6ar  SN1h  1 3.650000e-01    1.910000e+00
 TN5ah  SN4r  1 3.650000e-01    2.340000e+00
 TN5ar  SN4h  1 3.650000e-01    2.340000e+00
 TN5ah  SN3r  1 3.650000e-01    2.110000e+00
 TN5ar  SN3h  1 3.650000e-01    2.110000e+00
 TN5ah  SN2r  1 3.650000e-01    2.110000e+00
 TN5ar  SN2h  1 3.650000e-01    2.110000e+00
 TN5ah  SN1r  1 3.650000e-01    1.910000e+00
 TN5ar  SN1h  1 3.650000e-01    1.910000e+00
 TN4ah  SN3r  1 3.650000e-01    2.110000e+00
 TN4ar  SN3h  1 3.650000e-01    2.110000e+00
 TN4ah  SN2r  1 3.650000e-01    2.110000e+00
 TN4ar  SN2h  1 3.650000e-01    2.110000e+00
 TN4ah  SN1r  1 3.650000e-01    1.910000e+00
 TN4ar  SN1h  1 3.650000e-01    1.910000e+00
 TN3ah  SN2r  1 3.650000e-01    2.110000e+00
 TN3ar  SN2h  1 3.650000e-01    2.110000e+00
 TN3ah  SN1r  1 3.650000e-01    1.910000e+00
 TN3ar  SN1h  1 3.650000e-01    1.910000e+00
 TN2ah  SN1r  1 3.650000e-01    1.910000e+00
 TN2ar  SN1h  1 3.650000e-01    1.910000e+00
 TC6vh  SC5r  1 3.650000e-01    2.110000e+00
 TC6vr  SC5h  1 3.650000e-01    2.110000e+00
 TC6vh  SC4r  1 3.650000e-01    2.110000e+00
 TC6vr  SC4h  1 3.650000e-01    2.110000e+00
 TC6vh  SC3r  1 3.650000e-01    1.910000e+00
 TC6vr  SC3h  1 3.650000e-01    1.910000e+00
 TC6vh  SC2r  1 3.650000e-01    1.750000e+00
 TC6vr  SC2h  1 3.650000e-01    1.750000e+00
 TC6vh  SC1r  1 3.660000e-01    1.600000e+00
 TC6vr  SC1h  1 3.660000e-01    1.600000e+00
 TC6vh  SX4r  1 3.650000e-01    2.110000e+00
 TC6vr  SX4h  1 3.650000e-01    2.110000e+00
 TC6vh  SX3r  1 3.650000e-01    2.110000e+00
 TC6vr  SX3h  1 3.650000e-01    2.110000e+00
 TC6vh  SX2r  1 3.650000e-01    2.110000e+00
 TC6vr  SX2h  1 3.650000e-01    2.110000e+00
 TC6vh  SX1r  1 3.650000e-01    2.110000e+00
 TC6vr  SX1h  1 3.650000e-01    2.110000e+00
 TC5vh  SC4r  1 3.650000e-01    2.110000e+00
 TC5vr  SC4h  1 3.650000e-01    2.110000e+00
 TC5vh  SC3r  1 3.650000e-01    1.910000e+00
 TC5vr  SC3h  1 3.650000e-01    1.910000e+00
 TC5vh  SC2r  1 3.650000e-01    1.750000e+00
 TC5vr  SC2h  1 3.650000e-01    1.750000e+00
 TC5vh  SC1r  1 3.650000e-01    1.750000e+00
 TC5vr  SC1h  1 3.650000e-01    1.750000e+00
 TC5vh  SX4r  1 3.650000e-01    1.910000e+00
 TC5vr  SX4h  1 3.650000e-01    1.910000e+00
 TC5vh  SX3r  1 3.650000e-01    1.910000e+00
 TC5vr  SX3h  1 3.650000e-01    1.910000e+00
 TC5vh  SX2r  1 3.650000e-01    1.910000e+00
 TC5vr  SX2h  1 3.650000e-01    1.910000e+00
 TC5vh  SX1r  1 3.650000e-01    2.110000e+00
 TC5vr  SX1h  1 3.650000e-01    2.110000e+00
 TC4vh  SC3r  1 3.650000e-01    2.110000e+00
 TC4vr  SC3h  1 3.650000e-01    2.110000e+00
 TC4vh  SC2r  1 3.650000e-01    1.910000e+00
 TC4vr  SC2h  1 3.650000e-01    1.910000e+00
 TC4vh  SC1r  1 3.650000e-01    1.750000e+00
 TC4vr  SC1h  1 3.650000e-01    1.750000e+00
 TC4vh  SX4r  1 3.650000e-01    1.910000e+00
 TC4vr  SX4h  1 3.650000e-01    1.910000e+00
 TC4vh  SX3r  1 3.650000e-01    1.910000e+00
 TC4vr  SX3h  1 3.650000e-01    1.910000e+00
 TC4vh  SX2r  1 3.650000e-01    1.910000e+00
 TC4vr  SX2h  1 3.650000e-01    1.910000e+00
 TC4vh  SX1r  1 3.650000e-01    2.110000e+00
 TC4vr  SX1h  1 3.650000e-01    2.110000e+00
 TC3vh  SC2r  1 3.650000e-01    2.110000e+00
 TC3vr  SC2h  1 3.650000e-01    2.110000e+00
 TC3vh  SC1r  1 3.650000e-01    2.110000e+00
 TC3vr  SC1h  1 3.650000e-01    2.110000e+00
 TC3vh  SX4r  1 3.650000e-01    1.910000e+00
 TC3vr  SX4h  1 3.650000e-01    1.910000e+00
 TC3vh  SX3r  1 3.650000e-01    1.910000e+00
 TC3vr  SX3h  1 3.650000e-01    1.910000e+00
 TC3vh  SX2r  1 3.650000e-01    1.910000e+00
 TC3vr  SX2h  1 3.650000e-01    1.910000e+00
 TC3vh  SX1r  1 3.650000e-01    2.110000e+00
 TC3vr  SX1h  1 3.650000e-01    2.110000e+00
 TC2vh  SC1r  1 3.650000e-01    2.340000e+00
 TC2vr  SC1h  1 3.650000e-01    2.340000e+00
 TC2vh  SX4r  1 3.660000e-01    1.600000e+00
 TC2vr  SX4h  1 3.660000e-01    1.600000e+00
 TC2vh  SX3r  1 3.650000e-01    1.910000e+00
 TC2vr  SX3h  1 3.650000e-01    1.910000e+00
 TC2vh  SX2r  1 3.650000e-01    1.910000e+00
 TC2vr  SX2h  1 3.650000e-01    1.910000e+00
 TC2vh  SX1r  1 3.650000e-01    1.910000e+00
 TC2vr  SX1h  1 3.650000e-01    1.910000e+00
 TC1vh  SX4r  1 3.660000e-01    1.600000e+00
 TC1vr  SX4h  1 3.660000e-01    1.600000e+00
 TC1vh  SX3r  1 3.650000e-01    1.910000e+00
 TC1vr  SX3h  1 3.650000e-01    1.910000e+00
 TC1vh  SX2r  1 3.650000e-01    1.910000e+00
 TC1vr  SX2h  1 3.650000e-01    1.910000e+00
 TC1vh  SX1r  1 3.650000e-01    1.910000e+00
 TC1vr  SX1h  1 3.650000e-01    1.910000e+00
 TX4vh  SX3r  1 3.650000e-01    2.110000e+00
 TX4vr  SX3h  1 3.650000e-01    2.110000e+00
 TX4vh  SX2r  1 3.650000e-01    2.110000e+00
 TX4vr  SX2h  1 3.650000e-01    2.110000e+00
 TX4vh  SX1r  1 3.650000e-01    2.110000e+00
 TX4vr  SX1h  1 3.650000e-01    2.110000e+00
 TX3vh  SX2r  1 3.650000e-01    2.340000e+00
 TX3vr  SX2h  1 3.650000e-01    2.340000e+00
 TX3vh  SX1r  1 3.650000e-01    2.340000e+00
 TX3vr  SX1h  1 3.650000e-01    2.340000e+00
 TX2vh  SX1r  1 3.650000e-01    2.340000e+00
 TX2vr  SX1h  1 3.650000e-01    2.340000e+00
 TC6eh  SC5r  1 3.650000e-01    2.110000e+00
 TC6er  SC5h  1 3.650000e-01    2.110000e+00
 TC6eh  SC4r  1 3.650000e-01    2.110000e+00
 TC6er  SC4h  1 3.650000e-01    2.110000e+00
 TC6eh  SC3r  1 3.650000e-01    1.910000e+00
 TC6er  SC3h  1 3.650000e-01    1.910000e+00
 TC6eh  SC2r  1 3.650000e-01    1.750000e+00
 TC6er  SC2h  1 3.650000e-01    1.750000e+00
 TC6eh  SC1r  1 3.660000e-01    1.600000e+00
 TC6er  SC1h  1 3.660000e-01    1.600000e+00
 TC6eh  SX4r  1 3.650000e-01    2.110000e+00
 TC6er  SX4h  1 3.650000e-01    2.110000e+00
 TC6eh  SX3r  1 3.650000e-01    2.110000e+00
 TC6er  SX3h  1 3.650000e-01    2.110000e+00
 TC6eh  SX2r  1 3.650000e-01    2.110000e+00
 TC6er  SX2h  1 3.650000e-01    2.110000e+00
 TC6eh  SX1r  1 3.650000e-01    2.110000e+00
 TC6er  SX1h  1 3.650000e-01    2.110000e+00
 TC5eh  SC4r  1 3.650000e-01    2.110000e+00
 TC5er  SC4h  1 3.650000e-01    2.110000e+00
 TC5eh  SC3r  1 3.650000e-01    1.910000e+00
 TC5er  SC3h  1 3.650000e-01    1.910000e+00
 TC5eh  SC2r  1 3.650000e-01    1.750000e+00
 TC5er  SC2h  1 3.650000e-01    1.750000e+00
 TC5eh  SC1r  1 3.650000e-01    1.750000e+00
 TC5er  SC1h  1 3.650000e-01    1.750000e+00
 TC5eh  SX4r  1 3.650000e-01    1.910000e+00
 TC5er  SX4h  1 3.650000e-01    1.910000e+00
 TC5eh  SX3r  1 3.650000e-01    1.910000e+00
 TC5er  SX3h  1 3.650000e-01    1.910000e+00
 TC5eh  SX2r  1 3.650000e-01    1.910000e+00
 TC5er  SX2h  1 3.650000e-01    1.910000e+00
 TC5eh  SX1r  1 3.650000e-01    2.110000e+00
 TC5er  SX1h  1 3.650000e-01    2.110000e+00
 TC4eh  SC3r  1 3.650000e-01    2.110000e+00
 TC4er  SC3h  1 3.650000e-01    2.110000e+00
 TC4eh  SC2r  1 3.650000e-01    1.910000e+00
 TC4er  SC2h  1 3.650000e-01    1.910000e+00
 TC4eh  SC1r  1 3.650000e-01    1.750000e+00
 TC4er  SC1h  1 3.650000e-01    1.750000e+00
 TC4eh  SX4r  1 3.650000e-01    1.910000e+00
 TC4er  SX4h  1 3.650000e-01    1.910000e+00
 TC4eh  SX3r  1 3.650000e-01    1.910000e+00
 TC4er  SX3h  1 3.650000e-01    1.910000e+00
 TC4eh  SX2r  1 3.650000e-01    1.910000e+00
 TC4er  SX2h  1 3.650000e-01    1.910000e+00
 TC4eh  SX1r  1 3.650000e-01    2.110000e+00
 TC4er  SX1h  1 3.650000e-01    2.110000e+00
 TC3eh  SC2r  1 3.650000e-01    2.110000e+00
 TC3er  SC2h  1 3.650000e-01    2.110000e+00
 TC3eh  SC1r  1 3.650000e-01    2.110000e+00
 TC3er  SC1h  1 3.650000e-01    2.110000e+00
 TC3eh  SX4r  1 3.650000e-01    1.910000e+00
 TC3er  SX4h  1 3.650000e-01    1.910000e+00
 TC3eh  SX3r  1 3.650000e-01    1.910000e+00
 TC3er  SX3h  1 3.650000e-01    1.910000e+00
 TC3eh  SX2r  1 3.650000e-01    1.910000e+00
 TC3er  SX2h  1 3.650000e-01    1.910000e+00
 TC3eh  SX1r  1 3.650000e-01    2.110000e+00
 TC3er  SX1h  1 3.650000e-01    2.110000e+00
 TC2eh  SC1r  1 3.650000e-01    2.340000e+00
 TC2er  SC1h  1 3.650000e-01    2.340000e+00
 TC2eh  SX4r  1 3.660000e-01    1.600000e+00
 TC2er  SX4h  1 3.660000e-01    1.600000e+00
 TC2eh  SX3r  1 3.650000e-01    1.910000e+00
 TC2er  SX3h  1 3.650000e-01    1.910000e+00
 TC2eh  SX2r  1 3.650000e-01    1.910000e+00
 TC2er  SX2h  1 3.650000e-01    1.910000e+00
 TC2eh  SX1r  1 3.650000e-01    1.910000e+00
 TC2er  SX1h  1 3.650000e-01    1.910000e+00
 TC1eh  SX4r  1 3.660000e-01    1.600000e+00
 TC1er  SX4h  1 3.660000e-01    1.600000e+00
 TC1eh  SX3r  1 3.650000e-01    1.910000e+00
 TC1er  SX3h  1 3.650000e-01    1.910000e+00
 TC1eh  SX2r  1 3.650000e-01    1.910000e+00
 TC1er  SX2h  1 3.650000e-01    1.910000e+00
 TC1eh  SX1r  1 3.650000e-01    1.910000e+00
 TC1er  SX1h  1 3.650000e-01    1.910000e+00
 TX4eh  SX3r  1 3.650000e-01    2.110000e+00
 TX4er  SX3h  1 3.650000e-01    2.110000e+00
 TX4eh  SX2r  1 3.650000e-01    2.110000e+00
 TX4er  SX2h  1 3.650000e-01    2.110000e+00
 TX4eh  SX1r  1 3.650000e-01    2.110000e+00
 TX4er  SX1h  1 3.650000e-01    2.110000e+00
 TX3eh  SX2r  1 3.650000e-01    2.340000e+00
 TX3er  SX2h  1 3.650000e-01    2.340000e+00
 TX3eh  SX1r  1 3.650000e-01    2.340000e+00
 TX3er  SX1h  1 3.650000e-01    2.340000e+00
 TX2eh  SX1r  1 3.650000e-01    2.340000e+00
 TX2er  SX1h  1 3.650000e-01    2.340000e+00
 TP6dh  SC6r  1 3.780000e-01    1.450000e+00
 TP6dr  SC6h  1 3.780000e-01    1.450000e+00
 TP6dh  SC5r  1 3.940000e-01    1.290000e+00
 TP6dr  SC5h  1 3.940000e-01    1.290000e+00
 TP6dh  SC4r  1 4.040000e-01    1.130000e+00
 TP6dr  SC4h  1 4.040000e-01    1.130000e+00
 TP6dh  SC3r  1 4.090000e-01    1.080000e+00
 TP6dr  SC3h  1 4.090000e-01    1.080000e+00
 TP6dh  SC2r  1 4.090000e-01    1.080000e+00
 TP6dr  SC2h  1 4.090000e-01    1.080000e+00
 TP6dh  SC1r  1 4.840000e-01    8.900000e-01
 TP6dr  SC1h  1 4.840000e-01    8.900000e-01
 TP6dh  SX4r  1 3.660000e-01    1.600000e+00
 TP6dr  SX4h  1 3.660000e-01    1.600000e+00
 TP6dh  SX3r  1 3.660000e-01    1.600000e+00
 TP6dr  SX3h  1 3.660000e-01    1.600000e+00
 TP6dh  SX2r  1 3.780000e-01    1.450000e+00
 TP6dr  SX2h  1 3.780000e-01    1.450000e+00
 TP6dh  SX1r  1 3.940000e-01    1.290000e+00
 TP6dr  SX1h  1 3.940000e-01    1.290000e+00
 TP5dh  SC6r  1 3.780000e-01    1.450000e+00
 TP5dr  SC6h  1 3.780000e-01    1.450000e+00
 TP5dh  SC5r  1 3.780000e-01    1.450000e+00
 TP5dr  SC5h  1 3.780000e-01    1.450000e+00
 TP5dh  SC4r  1 3.940000e-01    1.290000e+00
 TP5dr  SC4h  1 3.940000e-01    1.290000e+00
 TP5dh  SC3r  1 4.040000e-01    1.130000e+00
 TP5dr  SC3h  1 4.040000e-01    1.130000e+00
 TP5dh  SC2r  1 4.040000e-01    1.130000e+00
 TP5dr  SC2h  1 4.040000e-01    1.130000e+00
 TP5dh  SC1r  1 4.090000e-01    1.080000e+00
 TP5dr  SC1h  1 4.090000e-01    1.080000e+00
 TP5dh  SX4r  1 3.650000e-01    1.750000e+00
 TP5dr  SX4h  1 3.650000e-01    1.750000e+00
 TP5dh  SX3r  1 3.660000e-01    1.600000e+00
 TP5dr  SX3h  1 3.660000e-01    1.600000e+00
 TP5dh  SX2r  1 3.660000e-01    1.600000e+00
 TP5dr  SX2h  1 3.660000e-01    1.600000e+00
 TP5dh  SX1r  1 3.940000e-01    1.290000e+00
 TP5dr  SX1h  1 3.940000e-01    1.290000e+00
 TP4dh  SC6r  1 3.660000e-01    1.600000e+00
 TP4dr  SC6h  1 3.660000e-01    1.600000e+00
 TP4dh  SC5r  1 3.780000e-01    1.450000e+00
 TP4dr  SC5h  1 3.780000e-01    1.450000e+00
 TP4dh  SC4r  1 3.940000e-01    1.290000e+00
 TP4dr  SC4h  1 3.940000e-01    1.290000e+00
 TP4dh  SC3r  1 4.040000e-01    1.130000e+00
 TP4dr  SC3h  1 4.040000e-01    1.130000e+00
 TP4dh  SC2r  1 4.040000e-01    1.130000e+00
 TP4dr  SC2h  1 4.040000e-01    1.130000e+00
 TP4dh  SC1r  1 4.090000e-01    1.080000e+00
 TP4dr  SC1h  1 4.090000e-01    1.080000e+00
 TP4dh  SX4r  1 3.650000e-01    1.750000e+00
 TP4dr  SX4h  1 3.650000e-01    1.750000e+00
 TP4dh  SX3r  1 3.660000e-01    1.600000e+00
 TP4dr  SX3h  1 3.660000e-01    1.600000e+00
 TP4dh  SX2r  1 3.660000e-01    1.600000e+00
 TP4dr  SX2h  1 3.660000e-01    1.600000e+00
 TP4dh  SX1r  1 3.780000e-01    1.450000e+00
 TP4dr  SX1h  1 3.780000e-01    1.450000e+00
 TP3dh  SC6r  1 3.650000e-01    1.750000e+00
 TP3dr  SC6h  1 3.650000e-01    1.750000e+00
 TP3dh  SC5r  1 3.660000e-01    1.600000e+00
 TP3dr  SC5h  1 3.660000e-01    1.600000e+00
 TP3dh  SC4r  1 3.780000e-01    1.450000e+00
 TP3dr  SC4h  1 3.780000e-01    1.450000e+00
 TP3dh  SC3r  1 4.040000e-01    1.130000e+00
 TP3dr  SC3h  1 4.040000e-01    1.130000e+00
 TP3dh  SC2r  1 4.040000e-01    1.130000e+00
 TP3dr  SC2h  1 4.040000e-01    1.130000e+00
 TP3dh  SC1r  1 4.090000e-01    1.080000e+00
 TP3dr  SC1h  1 4.090000e-01    1.080000e+00
 TP3dh  SX4r  1 3.650000e-01    1.750000e+00
 TP3dr  SX4h  1 3.650000e-01    1.750000e+00
 TP3dh  SX3r  1 3.650000e-01    1.750000e+00
 TP3dr  SX3h  1 3.650000e-01    1.750000e+00
 TP3dh  SX2r  1 3.660000e-01    1.600000e+00
 TP3dr  SX2h  1 3.660000e-01    1.600000e+00
 TP3dh  SX1r  1 3.780000e-01    1.450000e+00
 TP3dr  SX1h  1 3.780000e-01    1.450000e+00
 TP2dh  SC6r  1 3.650000e-01    1.750000e+00
 TP2dr  SC6h  1 3.650000e-01    1.750000e+00
 TP2dh  SC5r  1 3.660000e-01    1.600000e+00
 TP2dr  SC5h  1 3.660000e-01    1.600000e+00
 TP2dh  SC4r  1 3.780000e-01    1.450000e+00
 TP2dr  SC4h  1 3.780000e-01    1.450000e+00
 TP2dh  SC3r  1 3.940000e-01    1.290000e+00
 TP2dr  SC3h  1 3.940000e-01    1.290000e+00
 TP2dh  SC2r  1 3.940000e-01    1.290000e+00
 TP2dr  SC2h  1 3.940000e-01    1.290000e+00
 TP2dh  SC1r  1 4.040000e-01    1.130000e+00
 TP2dr  SC1h  1 4.040000e-01    1.130000e+00
 TP2dh  SX4r  1 3.650000e-01    1.750000e+00
 TP2dr  SX4h  1 3.650000e-01    1.750000e+00
 TP2dh  SX3r  1 3.650000e-01    1.750000e+00
 TP2dr  SX3h  1 3.650000e-01    1.750000e+00
 TP2dh  SX2r  1 3.660000e-01    1.600000e+00
 TP2dr  SX2h  1 3.660000e-01    1.600000e+00
 TP2dh  SX1r  1 3.780000e-01    1.450000e+00
 TP2dr  SX1h  1 3.780000e-01    1.450000e+00
 TP1dh  SC6r  1 3.650000e-01    1.750000e+00
 TP1dr  SC6h  1 3.650000e-01    1.750000e+00
 TP1dh  SC5r  1 3.660000e-01    1.600000e+00
 TP1dr  SC5h  1 3.660000e-01    1.600000e+00
 TP1dh  SC4r  1 3.780000e-01    1.450000e+00
 TP1dr  SC4h  1 3.780000e-01    1.450000e+00
 TP1dh  SC3r  1 3.940000e-01    1.290000e+00
 TP1dr  SC3h  1 3.940000e-01    1.290000e+00
 TP1dh  SC2r  1 3.940000e-01    1.290000e+00
 TP1dr  SC2h  1 3.940000e-01    1.290000e+00
 TP1dh  SC1r  1 4.040000e-01    1.130000e+00
 TP1dr  SC1h  1 4.040000e-01    1.130000e+00
 TP1dh  SX4r  1 3.650000e-01    1.750000e+00
 TP1dr  SX4h  1 3.650000e-01    1.750000e+00
 TP1dh  SX3r  1 3.650000e-01    1.750000e+00
 TP1dr  SX3h  1 3.650000e-01    1.750000e+00
 TP1dh  SX2r  1 3.660000e-01    1.600000e+00
 TP1dr  SX2h  1 3.660000e-01    1.600000e+00
 TP1dh  SX1r  1 3.780000e-01    1.450000e+00
 TP1dr  SX1h  1 3.780000e-01    1.450000e+00
 TN6dh  SC6r  1 3.650000e-01    1.910000e+00
 TN6dr  SC6h  1 3.650000e-01    1.910000e+00
 TN6dh  SC5r  1 3.650000e-01    1.750000e+00
 TN6dr  SC5h  1 3.650000e-01    1.750000e+00
 TN6dh  SC4r  1 3.660000e-01    1.600000e+00
 TN6dr  SC4h  1 3.660000e-01    1.600000e+00
 TN6dh  SC3r  1 3.780000e-01    1.450000e+00
 TN6dr  SC3h  1 3.780000e-01    1.450000e+00
 TN6dh  SC2r  1 3.780000e-01    1.450000e+00
 TN6dr  SC2h  1 3.780000e-01    1.450000e+00
 TN6dh  SC1r  1 3.940000e-01    1.290000e+00
 TN6dr  SC1h  1 3.940000e-01    1.290000e+00
 TN6dh  SX4r  1 3.650000e-01    1.910000e+00
 TN6dr  SX4h  1 3.650000e-01    1.910000e+00
 TN6dh  SX3r  1 3.650000e-01    1.750000e+00
 TN6dr  SX3h  1 3.650000e-01    1.750000e+00
 TN6dh  SX2r  1 3.660000e-01    1.600000e+00
 TN6dr  SX2h  1 3.660000e-01    1.600000e+00
 TN6dh  SX1r  1 3.780000e-01    1.450000e+00
 TN6dr  SX1h  1 3.780000e-01    1.450000e+00
 TN5dh  SC6r  1 3.650000e-01    1.910000e+00
 TN5dr  SC6h  1 3.650000e-01    1.910000e+00
 TN5dh  SC5r  1 3.650000e-01    1.750000e+00
 TN5dr  SC5h  1 3.650000e-01    1.750000e+00
 TN5dh  SC4r  1 3.660000e-01    1.600000e+00
 TN5dr  SC4h  1 3.660000e-01    1.600000e+00
 TN5dh  SC3r  1 3.660000e-01    1.600000e+00
 TN5dr  SC3h  1 3.660000e-01    1.600000e+00
 TN5dh  SC2r  1 3.780000e-01    1.450000e+00
 TN5dr  SC2h  1 3.780000e-01    1.450000e+00
 TN5dh  SC1r  1 3.940000e-01    1.290000e+00
 TN5dr  SC1h  1 3.940000e-01    1.290000e+00
 TN5dh  SX4r  1 3.650000e-01    2.110000e+00
 TN5dr  SX4h  1 3.650000e-01    2.110000e+00
 TN5dh  SX3r  1 3.650000e-01    1.910000e+00
 TN5dr  SX3h  1 3.650000e-01    1.910000e+00
 TN5dh  SX2r  1 3.650000e-01    1.750000e+00
 TN5dr  SX2h  1 3.650000e-01    1.750000e+00
 TN5dh  SX1r  1 3.660000e-01    1.600000e+00
 TN5dr  SX1h  1 3.660000e-01    1.600000e+00
 TN4dh  SC6r  1 3.650000e-01    1.910000e+00
 TN4dr  SC6h  1 3.650000e-01    1.910000e+00
 TN4dh  SC5r  1 3.650000e-01    1.750000e+00
 TN4dr  SC5h  1 3.650000e-01    1.750000e+00
 TN4dh  SC4r  1 3.650000e-01    1.750000e+00
 TN4dr  SC4h  1 3.650000e-01    1.750000e+00
 TN4dh  SC3r  1 3.660000e-01    1.600000e+00
 TN4dr  SC3h  1 3.660000e-01    1.600000e+00
 TN4dh  SC2r  1 3.780000e-01    1.450000e+00
 TN4dr  SC2h  1 3.780000e-01    1.450000e+00
 TN4dh  SC1r  1 3.940000e-01    1.290000e+00
 TN4dr  SC1h  1 3.940000e-01    1.290000e+00
 TN4dh  SX4r  1 3.650000e-01    2.340000e+00
 TN4dr  SX4h  1 3.650000e-01    2.340000e+00
 TN4dh  SX3r  1 3.650000e-01    2.110000e+00
 TN4dr  SX3h  1 3.650000e-01    2.110000e+00
 TN4dh  SX2r  1 3.650000e-01    1.750000e+00
 TN4dr  SX2h  1 3.650000e-01    1.750000e+00
 TN4dh  SX1r  1 3.660000e-01    1.600000e+00
 TN4dr  SX1h  1 3.660000e-01    1.600000e+00
 TN3dh  SC6r  1 3.650000e-01    1.910000e+00
 TN3dr  SC6h  1 3.650000e-01    1.910000e+00
 TN3dh  SC5r  1 3.650000e-01    1.750000e+00
 TN3dr  SC5h  1 3.650000e-01    1.750000e+00
 TN3dh  SC4r  1 3.650000e-01    1.750000e+00
 TN3dr  SC4h  1 3.650000e-01    1.750000e+00
 TN3dh  SC3r  1 3.660000e-01    1.600000e+00
 TN3dr  SC3h  1 3.660000e-01    1.600000e+00
 TN3dh  SC2r  1 3.660000e-01    1.600000e+00
 TN3dr  SC2h  1 3.660000e-01    1.600000e+00
 TN3dh  SC1r  1 3.780000e-01    1.450000e+00
 TN3dr  SC1h  1 3.780000e-01    1.450000e+00
 TN3dh  SX4r  1 3.650000e-01    2.110000e+00
 TN3dr  SX4h  1 3.650000e-01    2.110000e+00
 TN3dh  SX3r  1 3.650000e-01    1.910000e+00
 TN3dr  SX3h  1 3.650000e-01    1.910000e+00
 TN3dh  SX2r  1 3.650000e-01    1.750000e+00
 TN3dr  SX2h  1 3.650000e-01    1.750000e+00
 TN3dh  SX1r  1 3.650000e-01    1.750000e+00
 TN3dr  SX1h  1 3.650000e-01    1.750000e+00
 TN2dh  SC6r  1 3.650000e-01    1.910000e+00
 TN2dr  SC6h  1 3.650000e-01    1.910000e+00
 TN2dh  SC5r  1 3.650000e-01    1.750000e+00
 TN2dr  SC5h  1 3.650000e-01    1.750000e+00
 TN2dh  SC4r  1 3.650000e-01    1.750000e+00
 TN2dr  SC4h  1 3.650000e-01    1.750000e+00
 TN2dh  SC3r  1 3.650000e-01    1.750000e+00
 TN2dr  SC3h  1 3.650000e-01    1.750000e+00
 TN2dh  SC2r  1 3.660000e-01    1.600000e+00
 TN2dr  SC2h  1 3.660000e-01    1.600000e+00
 TN2dh  SC1r  1 3.780000e-01    1.450000e+00
 TN2dr  SC1h  1 3.780000e-01    1.450000e+00
 TN2dh  SX4r  1 3.650000e-01    2.110000e+00
 TN2dr  SX4h  1 3.650000e-01    2.110000e+00
 TN2dh  SX3r  1 3.650000e-01    1.910000e+00
 TN2dr  SX3h  1 3.650000e-01    1.910000e+00
 TN2dh  SX2r  1 3.650000e-01    1.750000e+00
 TN2dr  SX2h  1 3.650000e-01    1.750000e+00
 TN2dh  SX1r  1 3.650000e-01    1.750000e+00
 TN2dr  SX1h  1 3.650000e-01    1.750000e+00
 TN1dh  SC6r  1 3.650000e-01    2.110000e+00
 TN1dr  SC6h  1 3.650000e-01    2.110000e+00
 TN1dh  SC5r  1 3.650000e-01    1.910000e+00
 TN1dr  SC5h  1 3.650000e-01    1.910000e+00
 TN1dh  SC4r  1 3.650000e-01    1.910000e+00
 TN1dr  SC4h  1 3.650000e-01    1.910000e+00
 TN1dh  SC3r  1 3.650000e-01    1.750000e+00
 TN1dr  SC3h  1 3.650000e-01    1.750000e+00
 TN1dh  SC2r  1 3.660000e-01    1.600000e+00
 TN1dr  SC2h  1 3.660000e-01    1.600000e+00
 TN1dh  SC1r  1 3.780000e-01    1.450000e+00
 TN1dr  SC1h  1 3.780000e-01    1.450000e+00
 TN1dh  SX4r  1 3.650000e-01    1.910000e+00
 TN1dr  SX4h  1 3.650000e-01    1.910000e+00
 TN1dh  SX3r  1 3.650000e-01    1.910000e+00
 TN1dr  SX3h  1 3.650000e-01    1.910000e+00
 TN1dh  SX2r  1 3.650000e-01    1.750000e+00
 TN1dr  SX2h  1 3.650000e-01    1.750000e+00
 TN1dh  SX1r  1 3.650000e-01    1.750000e+00
 TN1dr  SX1h  1 3.650000e-01    1.750000e+00
 TP6ah  SC6r  1 3.780000e-01    1.450000e+00
 TP6ar  SC6h  1 3.780000e-01    1.450000e+00
 TP6ah  SC5r  1 3.940000e-01    1.290000e+00
 TP6ar  SC5h  1 3.940000e-01    1.290000e+00
 TP6ah  SC4r  1 4.040000e-01    1.130000e+00
 TP6ar  SC4h  1 4.040000e-01    1.130000e+00
 TP6ah  SC3r  1 4.090000e-01    1.080000e+00
 TP6ar  SC3h  1 4.090000e-01    1.080000e+00
 TP6ah  SC2r  1 4.090000e-01    1.080000e+00
 TP6ar  SC2h  1 4.090000e-01    1.080000e+00
 TP6ah  SC1r  1 4.840000e-01    8.900000e-01
 TP6ar  SC1h  1 4.840000e-01    8.900000e-01
 TP6ah  SX4r  1 3.660000e-01    1.600000e+00
 TP6ar  SX4h  1 3.660000e-01    1.600000e+00
 TP6ah  SX3r  1 3.660000e-01    1.600000e+00
 TP6ar  SX3h  1 3.660000e-01    1.600000e+00
 TP6ah  SX2r  1 3.780000e-01    1.450000e+00
 TP6ar  SX2h  1 3.780000e-01    1.450000e+00
 TP6ah  SX1r  1 3.940000e-01    1.290000e+00
 TP6ar  SX1h  1 3.940000e-01    1.290000e+00
 TP5ah  SC6r  1 3.780000e-01    1.450000e+00
 TP5ar  SC6h  1 3.780000e-01    1.450000e+00
 TP5ah  SC5r  1 3.780000e-01    1.450000e+00
 TP5ar  SC5h  1 3.780000e-01    1.450000e+00
 TP5ah  SC4r  1 3.940000e-01    1.290000e+00
 TP5ar  SC4h  1 3.940000e-01    1.290000e+00
 TP5ah  SC3r  1 4.040000e-01    1.130000e+00
 TP5ar  SC3h  1 4.040000e-01    1.130000e+00
 TP5ah  SC2r  1 4.040000e-01    1.130000e+00
 TP5ar  SC2h  1 4.040000e-01    1.130000e+00
 TP5ah  SC1r  1 4.090000e-01    1.080000e+00
 TP5ar  SC1h  1 4.090000e-01    1.080000e+00
 TP5ah  SX4r  1 3.650000e-01    1.750000e+00
 TP5ar  SX4h  1 3.650000e-01    1.750000e+00
 TP5ah  SX3r  1 3.660000e-01    1.600000e+00
 TP5ar  SX3h  1 3.660000e-01    1.600000e+00
 TP5ah  SX2r  1 3.660000e-01    1.600000e+00
 TP5ar  SX2h  1 3.660000e-01    1.600000e+00
 TP5ah  SX1r  1 3.940000e-01    1.290000e+00
 TP5ar  SX1h  1 3.940000e-01    1.290000e+00
 TP4ah  SC6r  1 3.660000e-01    1.600000e+00
 TP4ar  SC6h  1 3.660000e-01    1.600000e+00
 TP4ah  SC5r  1 3.780000e-01    1.450000e+00
 TP4ar  SC5h  1 3.780000e-01    1.450000e+00
 TP4ah  SC4r  1 3.940000e-01    1.290000e+00
 TP4ar  SC4h  1 3.940000e-01    1.290000e+00
 TP4ah  SC3r  1 4.040000e-01    1.130000e+00
 TP4ar  SC3h  1 4.040000e-01    1.130000e+00
 TP4ah  SC2r  1 4.040000e-01    1.130000e+00
 TP4ar  SC2h  1 4.040000e-01    1.130000e+00
 TP4ah  SC1r  1 4.090000e-01    1.080000e+00
 TP4ar  SC1h  1 4.090000e-01    1.080000e+00
 TP4ah  SX4r  1 3.650000e-01    1.750000e+00
 TP4ar  SX4h  1 3.650000e-01    1.750000e+00
 TP4ah  SX3r  1 3.660000e-01    1.600000e+00
 TP4ar  SX3h  1 3.660000e-01    1.600000e+00
 TP4ah  SX2r  1 3.660000e-01    1.600000e+00
 TP4ar  SX2h  1 3.660000e-01    1.600000e+00
 TP4ah  SX1r  1 3.780000e-01    1.450000e+00
 TP4ar  SX1h  1 3.780000e-01    1.450000e+00
 TP3ah  SC6r  1 3.650000e-01    1.750000e+00
 TP3ar  SC6h  1 3.650000e-01    1.750000e+00
 TP3ah  SC5r  1 3.660000e-01    1.600000e+00
 TP3ar  SC5h  1 3.660000e-01    1.600000e+00
 TP3ah  SC4r  1 3.780000e-01    1.450000e+00
 TP3ar  SC4h  1 3.780000e-01    1.450000e+00
 TP3ah  SC3r  1 4.040000e-01    1.130000e+00
 TP3ar  SC3h  1 4.040000e-01    1.130000e+00
 TP3ah  SC2r  1 4.040000e-01    1.130000e+00
 TP3ar  SC2h  1 4.040000e-01    1.130000e+00
 TP3ah  SC1r  1 4.090000e-01    1.080000e+00
 TP3ar  SC1h  1 4.090000e-01    1.080000e+00
 TP3ah  SX4r  1 3.650000e-01    1.750000e+00
 TP3ar  SX4h  1 3.650000e-01    1.750000e+00
 TP3ah  SX3r  1 3.650000e-01    1.750000e+00
 TP3ar  SX3h  1 3.650000e-01    1.750000e+00
 TP3ah  SX2r  1 3.660000e-01    1.600000e+00
 TP3ar  SX2h  1 3.660000e-01    1.600000e+00
 TP3ah  SX1r  1 3.780000e-01    1.450000e+00
 TP3ar  SX1h  1 3.780000e-01    1.450000e+00
 TP2ah  SC6r  1 3.650000e-01    1.750000e+00
 TP2ar  SC6h  1 3.650000e-01    1.750000e+00
 TP2ah  SC5r  1 3.660000e-01    1.600000e+00
 TP2ar  SC5h  1 3.660000e-01    1.600000e+00
 TP2ah  SC4r  1 3.780000e-01    1.450000e+00
 TP2ar  SC4h  1 3.780000e-01    1.450000e+00
 TP2ah  SC3r  1 3.940000e-01    1.290000e+00
 TP2ar  SC3h  1 3.940000e-01    1.290000e+00
 TP2ah  SC2r  1 3.940000e-01    1.290000e+00
 TP2ar  SC2h  1 3.940000e-01    1.290000e+00
 TP2ah  SC1r  1 4.040000e-01    1.130000e+00
 TP2ar  SC1h  1 4.040000e-01    1.130000e+00
 TP2ah  SX4r  1 3.650000e-01    1.750000e+00
 TP2ar  SX4h  1 3.650000e-01    1.750000e+00
 TP2ah  SX3r  1 3.650000e-01    1.750000e+00
 TP2ar  SX3h  1 3.650000e-01    1.750000e+00
 TP2ah  SX2r  1 3.660000e-01    1.600000e+00
 TP2ar  SX2h  1 3.660000e-01    1.600000e+00
 TP2ah  SX1r  1 3.780000e-01    1.450000e+00
 TP2ar  SX1h  1 3.780000e-01    1.450000e+00
 TP1ah  SC6r  1 3.650000e-01    1.750000e+00
 TP1ar  SC6h  1 3.650000e-01    1.750000e+00
 TP1ah  SC5r  1 3.660000e-01    1.600000e+00
 TP1ar  SC5h  1 3.660000e-01    1.600000e+00
 TP1ah  SC4r  1 3.780000e-01    1.450000e+00
 TP1ar  SC4h  1 3.780000e-01    1.450000e+00
 TP1ah  SC3r  1 3.940000e-01    1.290000e+00
 TP1ar  SC3h  1 3.940000e-01    1.290000e+00
 TP1ah  SC2r  1 3.940000e-01    1.290000e+00
 TP1ar  SC2h  1 3.940000e-01    1.290000e+00
 TP1ah  SC1r  1 4.040000e-01    1.130000e+00
 TP1ar  SC1h  1 4.040000e-01    1.130000e+00
 TP1ah  SX4r  1 3.650000e-01    1.750000e+00
 TP1ar  SX4h  1 3.650000e-01    1.750000e+00
 TP1ah  SX3r  1 3.650000e-01    1.750000e+00
 TP1ar  SX3h  1 3.650000e-01    1.750000e+00
 TP1ah  SX2r  1 3.660000e-01    1.600000e+00
 TP1ar  SX2h  1 3.660000e-01    1.600000e+00
 TP1ah  SX1r  1 3.780000e-01    1.450000e+00
 TP1ar  SX1h  1 3.780000e-01    1.450000e+00
 TN6ah  SC6r  1 3.650000e-01    1.910000e+00
 TN6ar  SC6h  1 3.650000e-01    1.910000e+00
 TN6ah  SC5r  1 3.650000e-01    1.750000e+00
 TN6ar  SC5h  1 3.650000e-01    1.750000e+00
 TN6ah  SC4r  1 3.660000e-01    1.600000e+00
 TN6ar  SC4h  1 3.660000e-01    1.600000e+00
 TN6ah  SC3r  1 3.780000e-01    1.450000e+00
 TN6ar  SC3h  1 3.780000e-01    1.450000e+00
 TN6ah  SC2r  1 3.780000e-01    1.450000e+00
 TN6ar  SC2h  1 3.780000e-01    1.450000e+00
 TN6ah  SC1r  1 3.940000e-01    1.290000e+00
 TN6ar  SC1h  1 3.940000e-01    1.290000e+00
 TN6ah  SX4r  1 3.650000e-01    1.910000e+00
 TN6ar  SX4h  1 3.650000e-01    1.910000e+00
 TN6ah  SX3r  1 3.650000e-01    1.750000e+00
 TN6ar  SX3h  1 3.650000e-01    1.750000e+00
 TN6ah  SX2r  1 3.660000e-01    1.600000e+00
 TN6ar  SX2h  1 3.660000e-01    1.600000e+00
 TN6ah  SX1r  1 3.780000e-01    1.450000e+00
 TN6ar  SX1h  1 3.780000e-01    1.450000e+00
 TN5ah  SC6r  1 3.650000e-01    1.910000e+00
 TN5ar  SC6h  1 3.650000e-01    1.910000e+00
 TN5ah  SC5r  1 3.650000e-01    1.750000e+00
 TN5ar  SC5h  1 3.650000e-01    1.750000e+00
 TN5ah  SC4r  1 3.660000e-01    1.600000e+00
 TN5ar  SC4h  1 3.660000e-01    1.600000e+00
 TN5ah  SC3r  1 3.660000e-01    1.600000e+00
 TN5ar  SC3h  1 3.660000e-01    1.600000e+00
 TN5ah  SC2r  1 3.780000e-01    1.450000e+00
 TN5ar  SC2h  1 3.780000e-01    1.450000e+00
 TN5ah  SC1r  1 3.940000e-01    1.290000e+00
 TN5ar  SC1h  1 3.940000e-01    1.290000e+00
 TN5ah  SX4r  1 3.650000e-01    2.110000e+00
 TN5ar  SX4h  1 3.650000e-01    2.110000e+00
 TN5ah  SX3r  1 3.650000e-01    1.910000e+00
 TN5ar  SX3h  1 3.650000e-01    1.910000e+00
 TN5ah  SX2r  1 3.650000e-01    1.750000e+00
 TN5ar  SX2h  1 3.650000e-01    1.750000e+00
 TN5ah  SX1r  1 3.660000e-01    1.600000e+00
 TN5ar  SX1h  1 3.660000e-01    1.600000e+00
 TN4ah  SC6r  1 3.650000e-01    1.910000e+00
 TN4ar  SC6h  1 3.650000e-01    1.910000e+00
 TN4ah  SC5r  1 3.650000e-01    1.750000e+00
 TN4ar  SC5h  1 3.650000e-01    1.750000e+00
 TN4ah  SC4r  1 3.650000e-01    1.750000e+00
 TN4ar  SC4h  1 3.650000e-01    1.750000e+00
 TN4ah  SC3r  1 3.660000e-01    1.600000e+00
 TN4ar  SC3h  1 3.660000e-01    1.600000e+00
 TN4ah  SC2r  1 3.780000e-01    1.450000e+00
 TN4ar  SC2h  1 3.780000e-01    1.450000e+00
 TN4ah  SC1r  1 3.940000e-01    1.290000e+00
 TN4ar  SC1h  1 3.940000e-01    1.290000e+00
 TN4ah  SX4r  1 3.650000e-01    2.340000e+00
 TN4ar  SX4h  1 3.650000e-01    2.340000e+00
 TN4ah  SX3r  1 3.650000e-01    2.110000e+00
 TN4ar  SX3h  1 3.650000e-01    2.110000e+00
 TN4ah  SX2r  1 3.650000e-01    1.750000e+00
 TN4ar  SX2h  1 3.650000e-01    1.750000e+00
 TN4ah  SX1r  1 3.660000e-01    1.600000e+00
 TN4ar  SX1h  1 3.660000e-01    1.600000e+00
 TN3ah  SC6r  1 3.650000e-01    1.910000e+00
 TN3ar  SC6h  1 3.650000e-01    1.910000e+00
 TN3ah  SC5r  1 3.650000e-01    1.750000e+00
 TN3ar  SC5h  1 3.650000e-01    1.750000e+00
 TN3ah  SC4r  1 3.650000e-01    1.750000e+00
 TN3ar  SC4h  1 3.650000e-01    1.750000e+00
 TN3ah  SC3r  1 3.660000e-01    1.600000e+00
 TN3ar  SC3h  1 3.660000e-01    1.600000e+00
 TN3ah  SC2r  1 3.660000e-01    1.600000e+00
 TN3ar  SC2h  1 3.660000e-01    1.600000e+00
 TN3ah  SC1r  1 3.780000e-01    1.450000e+00
 TN3ar  SC1h  1 3.780000e-01    1.450000e+00
 TN3ah  SX4r  1 3.650000e-01    2.110000e+00
 TN3ar  SX4h  1 3.650000e-01    2.110000e+00
 TN3ah  SX3r  1 3.650000e-01    1.910000e+00
 TN3ar  SX3h  1 3.650000e-01    1.910000e+00
 TN3ah  SX2r  1 3.650000e-01    1.750000e+00
 TN3ar  SX2h  1 3.650000e-01    1.750000e+00
 TN3ah  SX1r  1 3.650000e-01    1.750000e+00
 TN3ar  SX1h  1 3.650000e-01    1.750000e+00
 TN2ah  SC6r  1 3.650000e-01    1.910000e+00
 TN2ar  SC6h  1 3.650000e-01    1.910000e+00
 TN2ah  SC5r  1 3.650000e-01    1.750000e+00
 TN2ar  SC5h  1 3.650000e-01    1.750000e+00
 TN2ah  SC4r  1 3.650000e-01    1.750000e+00
 TN2ar  SC4h  1 3.650000e-01    1.750000e+00
 TN2ah  SC3r  1 3.650000e-01    1.750000e+00
 TN2ar  SC3h  1 3.650000e-01    1.750000e+00
 TN2ah  SC2r  1 3.660000e-01    1.600000e+00
 TN2ar  SC2h  1 3.660000e-01    1.600000e+00
 TN2ah  SC1r  1 3.780000e-01    1.450000e+00
 TN2ar  SC1h  1 3.780000e-01    1.450000e+00
 TN2ah  SX4r  1 3.650000e-01    2.110000e+00
 TN2ar  SX4h  1 3.650000e-01    2.110000e+00
 TN2ah  SX3r  1 3.650000e-01    1.910000e+00
 TN2ar  SX3h  1 3.650000e-01    1.910000e+00
 TN2ah  SX2r  1 3.650000e-01    1.750000e+00
 TN2ar  SX2h  1 3.650000e-01    1.750000e+00
 TN2ah  SX1r  1 3.650000e-01    1.750000e+00
 TN2ar  SX1h  1 3.650000e-01    1.750000e+00
 TN1ah  SC6r  1 3.650000e-01    2.110000e+00
 TN1ar  SC6h  1 3.650000e-01    2.110000e+00
 TN1ah  SC5r  1 3.650000e-01    1.910000e+00
 TN1ar  SC5h  1 3.650000e-01    1.910000e+00
 TN1ah  SC4r  1 3.650000e-01    1.910000e+00
 TN1ar  SC4h  1 3.650000e-01    1.910000e+00
 TN1ah  SC3r  1 3.650000e-01    1.750000e+00
 TN1ar  SC3h  1 3.650000e-01    1.750000e+00
 TN1ah  SC2r  1 3.660000e-01    1.600000e+00
 TN1ar  SC2h  1 3.660000e-01    1.600000e+00
 TN1ah  SC1r  1 3.780000e-01    1.450000e+00
 TN1ar  SC1h  1 3.780000e-01    1.450000e+00
 TN1ah  SX4r  1 3.650000e-01    1.910000e+00
 TN1ar  SX4h  1 3.650000e-01    1.910000e+00
 TN1ah  SX3r  1 3.650000e-01    1.910000e+00
 TN1ar  SX3h  1 3.650000e-01    1.910000e+00
 TN1ah  SX2r  1 3.650000e-01    1.750000e+00
 TN1ar  SX2h  1 3.650000e-01    1.750000e+00
 TN1ah  SX1r  1 3.650000e-01    1.750000e+00
 TN1ar  SX1h  1 3.650000e-01    1.750000e+00
   P6a  TP6a  1 3.950000e-01    3.910000e+00
   P6a  TP5a  1 3.950000e-01    3.670000e+00
   P6a  TP4a  1 3.950000e-01    3.430000e+00
   P6a  TP3a  1 3.950000e-01    3.190000e+00
   P6a  TP2a  1 3.950000e-01    3.190000e+00
   P6a  TP1a  1 3.950000e-01    2.940000e+00
   P6a  TN6a  1 3.950000e-01    2.700000e+00
   P6a  TN5a  1 3.950000e-01    2.310000e+00
   P6a  TN4a  1 3.950000e-01    2.110000e+00
   P6a  TN3a  1 3.950000e-01    2.110000e+00
   P6a  TN2a  1 3.950000e-01    1.850000e+00
   P6a  TN1a  1 3.950000e-01    1.670000e+00
   P5a  TP5a  1 3.950000e-01    3.430000e+00
   P5a  TP4a  1 3.950000e-01    3.190000e+00
   P5a  TP3a  1 3.950000e-01    2.940000e+00
   P5a  TP2a  1 3.950000e-01    2.940000e+00
   P5a  TP1a  1 3.950000e-01    2.700000e+00
   P5a  TN6a  1 3.950000e-01    2.500000e+00
   P5a  TN5a  1 3.950000e-01    2.310000e+00
   P5a  TN4a  1 3.950000e-01    2.310000e+00
   P5a  TN3a  1 3.950000e-01    2.110000e+00
   P5a  TN2a  1 3.950000e-01    1.850000e+00
   P5a  TN1a  1 3.950000e-01    1.670000e+00
   P4a  TP4a  1 3.950000e-01    3.190000e+00
   P4a  TP3a  1 3.950000e-01    2.940000e+00
   P4a  TP2a  1 3.950000e-01    2.940000e+00
   P4a  TP1a  1 3.950000e-01    2.700000e+00
   P4a  TN6a  1 3.950000e-01    2.500000e+00
   P4a  TN5a  1 3.950000e-01    2.310000e+00
   P4a  TN4a  1 3.950000e-01    2.310000e+00
   P4a  TN3a  1 3.950000e-01    2.110000e+00
   P4a  TN2a  1 3.950000e-01    2.110000e+00
   P4a  TN1a  1 3.950000e-01    1.850000e+00
   P3a  TP3a  1 3.950000e-01    2.940000e+00
   P3a  TP2a  1 3.950000e-01    2.940000e+00
   P3a  TP1a  1 3.950000e-01    2.700000e+00
   P3a  TN6a  1 3.950000e-01    2.500000e+00
   P3a  TN5a  1 3.950000e-01    2.310000e+00
   P3a  TN4a  1 3.950000e-01    2.310000e+00
   P3a  TN3a  1 3.950000e-01    2.110000e+00
   P3a  TN2a  1 3.950000e-01    2.110000e+00
   P3a  TN1a  1 3.950000e-01    2.110000e+00
   P2a  TP2a  1 3.950000e-01    2.940000e+00
   P2a  TP1a  1 3.950000e-01    2.700000e+00
   P2a  TN6a  1 3.950000e-01    2.700000e+00
   P2a  TN5a  1 3.950000e-01    2.500000e+00
   P2a  TN4a  1 3.950000e-01    2.310000e+00
   P2a  TN3a  1 3.950000e-01    2.110000e+00
   P2a  TN2a  1 3.950000e-01    2.110000e+00
   P2a  TN1a  1 3.950000e-01    2.110000e+00
   P1a  TP1a  1 3.950000e-01    2.700000e+00
   P1a  TN6a  1 3.950000e-01    2.700000e+00
   P1a  TN5a  1 3.950000e-01    2.500000e+00
   P1a  TN4a  1 3.950000e-01    2.500000e+00
   P1a  TN3a  1 3.950000e-01    2.110000e+00
   P1a  TN2a  1 3.950000e-01    2.110000e+00
   P1a  TN1a  1 3.950000e-01    2.110000e+00
   N6a  TN6a  1 3.950000e-01    2.700000e+00
   N6a  TN5a  1 3.950000e-01    2.700000e+00
   N6a  TN4a  1 3.950000e-01    2.700000e+00
   N6a  TN3a  1 3.950000e-01    2.310000e+00
   N6a  TN2a  1 3.950000e-01    2.110000e+00
   N6a  TN1a  1 3.950000e-01    2.110000e+00
   N5a  TN5a  1 3.950000e-01    2.500000e+00
   N5a  TN4a  1 3.950000e-01    2.500000e+00
   N5a  TN3a  1 3.950000e-01    2.310000e+00
   N5a  TN2a  1 3.950000e-01    2.310000e+00
   N5a  TN1a  1 3.950000e-01    2.110000e+00
   N4a  TN4a  1 3.950000e-01    2.500000e+00
   N4a  TN3a  1 3.950000e-01    2.310000e+00
   N4a  TN2a  1 3.950000e-01    2.310000e+00
   N4a  TN1a  1 3.950000e-01    2.110000e+00
   N3a  TN3a  1 3.950000e-01    2.310000e+00
   N3a  TN2a  1 3.950000e-01    2.310000e+00
   N3a  TN1a  1 3.950000e-01    2.110000e+00
   N2a  TN2a  1 3.950000e-01    2.310000e+00
   N2a  TN1a  1 3.950000e-01    2.110000e+00
   N1a  TN1a  1 3.950000e-01    2.310000e+00
   P6d  TP6d  1 3.950000e-01    3.910000e+00
   P6d  TP5d  1 3.950000e-01    3.670000e+00
   P6d  TP4d  1 3.950000e-01    3.430000e+00
   P6d  TP3d  1 3.950000e-01    3.190000e+00
   P6d  TP2d  1 3.950000e-01    3.190000e+00
   P6d  TP1d  1 3.950000e-01    2.940000e+00
   P6d  TN6d  1 3.950000e-01    2.700000e+00
   P6d  TN5d  1 3.950000e-01    2.310000e+00
   P6d  TN4d  1 3.950000e-01    2.110000e+00
   P6d  TN3d  1 3.950000e-01    2.110000e+00
   P6d  TN2d  1 3.950000e-01    1.850000e+00
   P6d  TN1d  1 3.950000e-01    1.670000e+00
   P5d  TP5d  1 3.950000e-01    3.430000e+00
   P5d  TP4d  1 3.950000e-01    3.190000e+00
   P5d  TP3d  1 3.950000e-01    2.940000e+00
   P5d  TP2d  1 3.950000e-01    2.940000e+00
   P5d  TP1d  1 3.950000e-01    2.700000e+00
   P5d  TN6d  1 3.950000e-01    2.500000e+00
   P5d  TN5d  1 3.950000e-01    2.310000e+00
   P5d  TN4d  1 3.950000e-01    2.310000e+00
   P5d  TN3d  1 3.950000e-01    2.110000e+00
   P5d  TN2d  1 3.950000e-01    1.850000e+00
   P5d  TN1d  1 3.950000e-01    1.670000e+00
   P4d  TP4d  1 3.950000e-01    3.190000e+00
   P4d  TP3d  1 3.950000e-01    2.940000e+00
   P4d  TP2d  1 3.950000e-01    2.940000e+00
   P4d  TP1d  1 3.950000e-01    2.700000e+00
   P4d  TN6d  1 3.950000e-01    2.500000e+00
   P4d  TN5d  1 3.950000e-01    2.310000e+00
   P4d  TN4d  1 3.950000e-01    2.310000e+00
   P4d  TN3d  1 3.950000e-01    2.110000e+00
   P4d  TN2d  1 3.950000e-01    2.110000e+00
   P4d  TN1d  1 3.950000e-01    1.850000e+00
   P3d  TP3d  1 3.950000e-01    2.940000e+00
   P3d  TP2d  1 3.950000e-01    2.940000e+00
   P3d  TP1d  1 3.950000e-01    2.700000e+00
   P3d  TN6d  1 3.950000e-01    2.500000e+00
   P3d  TN5d  1 3.950000e-01    2.310000e+00
   P3d  TN4d  1 3.950000e-01    2.310000e+00
   P3d  TN3d  1 3.950000e-01    2.110000e+00
   P3d  TN2d  1 3.950000e-01    2.110000e+00
   P3d  TN1d  1 3.950000e-01    2.110000e+00
   P2d  TP2d  1 3.950000e-01    2.940000e+00
   P2d  TP1d  1 3.950000e-01    2.700000e+00
   P2d  TN6d  1 3.950000e-01    2.700000e+00
   P2d  TN5d  1 3.950000e-01    2.500000e+00
   P2d  TN4d  1 3.950000e-01    2.310000e+00
   P2d  TN3d  1 3.950000e-01    2.110000e+00
   P2d  TN2d  1 3.950000e-01    2.110000e+00
   P2d  TN1d  1 3.950000e-01    2.110000e+00
   P1d  TP1d  1 3.950000e-01    2.700000e+00
   P1d  TN6d  1 3.950000e-01    2.700000e+00
   P1d  TN5d  1 3.950000e-01    2.500000e+00
   P1d  TN4d  1 3.950000e-01    2.500000e+00
   P1d  TN3d  1 3.950000e-01    2.110000e+00
   P1d  TN2d  1 3.950000e-01    2.110000e+00
   P1d  TN1d  1 3.950000e-01    2.110000e+00
   N6d  TN6d  1 3.950000e-01    2.700000e+00
   N6d  TN5d  1 3.950000e-01    2.700000e+00
   N6d  TN4d  1 3.950000e-01    2.700000e+00
   N6d  TN3d  1 3.950000e-01    2.310000e+00
   N6d  TN2d  1 3.950000e-01    2.110000e+00
   N6d  TN1d  1 3.950000e-01    2.110000e+00
   N5d  TN5d  1 3.950000e-01    2.500000e+00
   N5d  TN4d  1 3.950000e-01    2.500000e+00
   N5d  TN3d  1 3.950000e-01    2.310000e+00
   N5d  TN2d  1 3.950000e-01    2.310000e+00
   N5d  TN1d  1 3.950000e-01    2.110000e+00
   N4d  TN4d  1 3.950000e-01    2.500000e+00
   N4d  TN3d  1 3.950000e-01    2.310000e+00
   N4d  TN2d  1 3.950000e-01    2.310000e+00
   N4d  TN1d  1 3.950000e-01    2.110000e+00
   N3d  TN3d  1 3.950000e-01    2.310000e+00
   N3d  TN2d  1 3.950000e-01    2.310000e+00
   N3d  TN1d  1 3.950000e-01    2.110000e+00
   N2d  TN2d  1 3.950000e-01    2.310000e+00
   N2d  TN1d  1 3.950000e-01    2.110000e+00
   N1d  TN1d  1 3.950000e-01    2.310000e+00
   P6d  TP6a  1 3.950000e-01    4.540000e+00
   P6d  TP5a  1 3.950000e-01    4.230000e+00
   P6a  TP5d  1 3.950000e-01    4.230000e+00
   P6d  TP4a  1 3.950000e-01    3.910000e+00
   P6a  TP4d  1 3.950000e-01    3.910000e+00
   P6d  TP3a  1 3.950000e-01    3.670000e+00
   P6a  TP3d  1 3.950000e-01    3.670000e+00
   P6d  TP2a  1 3.950000e-01    3.670000e+00
   P6a  TP2d  1 3.950000e-01    3.670000e+00
   P6d  TP1a  1 3.950000e-01    3.430000e+00
   P6a  TP1d  1 3.950000e-01    3.430000e+00
   P6d  TN6a  1 3.950000e-01    3.190000e+00
   P6a  TN6d  1 3.950000e-01    3.190000e+00
   P6d  TN5a  1 3.950000e-01    2.700000e+00
   P6a  TN5d  1 3.950000e-01    2.700000e+00
   P6d  TN4a  1 3.950000e-01    2.500000e+00
   P6a  TN4d  1 3.950000e-01    2.500000e+00
   P6d  TN3a  1 3.950000e-01    2.110000e+00
   P6a  TN3d  1 3.950000e-01    2.110000e+00
   P6d  TN2a  1 3.950000e-01    1.850000e+00
   P6a  TN2d  1 3.950000e-01    1.850000e+00
   P6d  TN1a  1 3.950000e-01    1.670000e+00
   P6a  TN1d  1 3.950000e-01    1.670000e+00
   P5d  TP5a  1 3.950000e-01    3.910000e+00
   P5d  TP4a  1 3.950000e-01    3.670000e+00
   P5a  TP4d  1 3.950000e-01    3.670000e+00
   P5d  TP3a  1 3.950000e-01    3.430000e+00
   P5a  TP3d  1 3.950000e-01    3.430000e+00
   P5d  TP2a  1 3.950000e-01    3.430000e+00
   P5a  TP2d  1 3.950000e-01    3.430000e+00
   P5d  TP1a  1 3.950000e-01    3.190000e+00
   P5a  TP1d  1 3.950000e-01    3.190000e+00
   P5d  TN6a  1 3.950000e-01    2.940000e+00
   P5a  TN6d  1 3.950000e-01    2.940000e+00
   P5d  TN5a  1 3.950000e-01    2.700000e+00
   P5a  TN5d  1 3.950000e-01    2.700000e+00
   P5d  TN4a  1 3.950000e-01    2.700000e+00
   P5a  TN4d  1 3.950000e-01    2.700000e+00
   P5d  TN3a  1 3.950000e-01    2.110000e+00
   P5a  TN3d  1 3.950000e-01    2.110000e+00
   P5d  TN2a  1 3.950000e-01    1.850000e+00
   P5a  TN2d  1 3.950000e-01    1.850000e+00
   P5d  TN1a  1 3.950000e-01    1.670000e+00
   P5a  TN1d  1 3.950000e-01    1.670000e+00
   P4d  TP4a  1 3.950000e-01    3.670000e+00
   P4d  TP3a  1 3.950000e-01    3.430000e+00
   P4a  TP3d  1 3.950000e-01    3.430000e+00
   P4d  TP2a  1 3.950000e-01    3.430000e+00
   P4a  TP2d  1 3.950000e-01    3.430000e+00
   P4d  TP1a  1 3.950000e-01    3.190000e+00
   P4a  TP1d  1 3.950000e-01    3.190000e+00
   P4d  TN6a  1 3.950000e-01    2.940000e+00
   P4a  TN6d  1 3.950000e-01    2.940000e+00
   P4d  TN5a  1 3.950000e-01    2.700000e+00
   P4a  TN5d  1 3.950000e-01    2.700000e+00
   P4d  TN4a  1 3.950000e-01    2.700000e+00
   P4a  TN4d  1 3.950000e-01    2.700000e+00
   P4d  TN3a  1 3.950000e-01    2.500000e+00
   P4a  TN3d  1 3.950000e-01    2.500000e+00
   P4d  TN2a  1 3.950000e-01    2.110000e+00
   P4a  TN2d  1 3.950000e-01    2.110000e+00
   P4d  TN1a  1 3.950000e-01    1.850000e+00
   P4a  TN1d  1 3.950000e-01    1.850000e+00
   P3d  TP3a  1 3.950000e-01    3.430000e+00
   P3d  TP2a  1 3.950000e-01    3.430000e+00
   P3a  TP2d  1 3.950000e-01    3.430000e+00
   P3d  TP1a  1 3.950000e-01    3.190000e+00
   P3a  TP1d  1 3.950000e-01    3.190000e+00
   P3d  TN6a  1 3.950000e-01    2.940000e+00
   P3a  TN6d  1 3.950000e-01    2.940000e+00
   P3d  TN5a  1 3.950000e-01    2.700000e+00
   P3a  TN5d  1 3.950000e-01    2.700000e+00
   P3d  TN4a  1 3.950000e-01    2.700000e+00
   P3a  TN4d  1 3.950000e-01    2.700000e+00
   P3d  TN3a  1 3.950000e-01    2.500000e+00
   P3a  TN3d  1 3.950000e-01    2.500000e+00
   P3d  TN2a  1 3.950000e-01    2.500000e+00
   P3a  TN2d  1 3.950000e-01    2.500000e+00
   P3d  TN1a  1 3.950000e-01    2.110000e+00
   P3a  TN1d  1 3.950000e-01    2.110000e+00
   P2d  TP2a  1 3.950000e-01    3.430000e+00
   P2d  TP1a  1 3.950000e-01    3.190000e+00
   P2a  TP1d  1 3.950000e-01    3.190000e+00
   P2d  TN6a  1 3.950000e-01    3.190000e+00
   P2a  TN6d  1 3.950000e-01    3.190000e+00
   P2d  TN5a  1 3.950000e-01    2.940000e+00
   P2a  TN5d  1 3.950000e-01    2.940000e+00
   P2d  TN4a  1 3.950000e-01    2.700000e+00
   P2a  TN4d  1 3.950000e-01    2.700000e+00
   P2d  TN3a  1 3.950000e-01    2.500000e+00
   P2a  TN3d  1 3.950000e-01    2.500000e+00
   P2d  TN2a  1 3.950000e-01    2.500000e+00
   P2a  TN2d  1 3.950000e-01    2.500000e+00
   P2d  TN1a  1 3.950000e-01    2.500000e+00
   P2a  TN1d  1 3.950000e-01    2.500000e+00
   P1d  TP1a  1 3.950000e-01    3.190000e+00
   P1d  TN6a  1 3.950000e-01    3.190000e+00
   P1a  TN6d  1 3.950000e-01    3.190000e+00
   P1d  TN5a  1 3.950000e-01    2.940000e+00
   P1a  TN5d  1 3.950000e-01    2.940000e+00
   P1d  TN4a  1 3.950000e-01    2.940000e+00
   P1a  TN4d  1 3.950000e-01    2.940000e+00
   P1d  TN3a  1 3.950000e-01    2.500000e+00
   P1a  TN3d  1 3.950000e-01    2.500000e+00
   P1d  TN2a  1 3.950000e-01    2.500000e+00
   P1a  TN2d  1 3.950000e-01    2.500000e+00
   P1d  TN1a  1 3.950000e-01    2.500000e+00
   P1a  TN1d  1 3.950000e-01    2.500000e+00
   N6d  TN6a  1 3.950000e-01    3.190000e+00
   N6d  TN5a  1 3.950000e-01    3.190000e+00
   N6a  TN5d  1 3.950000e-01    3.190000e+00
   N6d  TN4a  1 3.950000e-01    3.190000e+00
   N6a  TN4d  1 3.950000e-01    3.190000e+00
   N6d  TN3a  1 3.950000e-01    2.700000e+00
   N6a  TN3d  1 3.950000e-01    2.700000e+00
   N6d  TN2a  1 3.950000e-01    2.500000e+00
   N6a  TN2d  1 3.950000e-01    2.500000e+00
   N6d  TN1a  1 3.950000e-01    2.500000e+00
   N6a  TN1d  1 3.950000e-01    2.500000e+00
   N5d  TN5a  1 3.950000e-01    2.940000e+00
   N5d  TN4a  1 3.950000e-01    2.940000e+00
   N5a  TN4d  1 3.950000e-01    2.940000e+00
   N5d  TN3a  1 3.950000e-01    2.700000e+00
   N5a  TN3d  1 3.950000e-01    2.700000e+00
   N5d  TN2a  1 3.950000e-01    2.700000e+00
   N5a  TN2d  1 3.950000e-01    2.700000e+00
   N5d  TN1a  1 3.950000e-01    2.500000e+00
   N5a  TN1d  1 3.950000e-01    2.500000e+00
   N4d  TN4a  1 3.950000e-01    2.940000e+00
   N4d  TN3a  1 3.950000e-01    2.700000e+00
   N4a  TN3d  1 3.950000e-01    2.700000e+00
   N4d  TN2a  1 3.950000e-01    2.700000e+00
   N4a  TN2d  1 3.950000e-01    2.700000e+00
   N4d  TN1a  1 3.950000e-01    2.500000e+00
   N4a  TN1d  1 3.950000e-01    2.500000e+00
   N3d  TN3a  1 3.950000e-01    2.700000e+00
   N3d  TN2a  1 3.950000e-01    2.700000e+00
   N3a  TN2d  1 3.950000e-01    2.700000e+00
   N3d  TN1a  1 3.950000e-01    2.500000e+00
   N3a  TN1d  1 3.950000e-01    2.500000e+00
   N2d  TN2a  1 3.950000e-01    2.700000e+00
   N2d  TN1a  1 3.950000e-01    2.500000e+00
   N2a  TN1d  1 3.950000e-01    2.500000e+00
   N1d  TN1a  1 3.950000e-01    2.700000e+00
   C6v  TC6v  1 3.950000e-01    2.310000e+00
   C6v  TC5v  1 3.950000e-01    2.110000e+00
   C6v  TC4v  1 3.950000e-01    2.110000e+00
   C6v  TC3v  1 3.950000e-01    1.850000e+00
   C6v  TC2v  1 3.950000e-01    1.670000e+00
   C6v  TC1v  1 3.980000e-01    1.450000e+00
   C6v  TX4v  1 3.950000e-01    2.110000e+00
   C6v  TX3v  1 3.950000e-01    2.110000e+00
   C6v  TX2v  1 3.950000e-01    2.110000e+00
   C6v  TX1v  1 3.950000e-01    2.110000e+00
   C5v  TC5v  1 3.950000e-01    2.110000e+00
   C5v  TC4v  1 3.950000e-01    2.110000e+00
   C5v  TC3v  1 3.950000e-01    1.850000e+00
   C5v  TC2v  1 3.950000e-01    1.670000e+00
   C5v  TC1v  1 3.950000e-01    1.670000e+00
   C5v  TX4v  1 3.950000e-01    1.850000e+00
   C5v  TX3v  1 3.950000e-01    1.850000e+00
   C5v  TX2v  1 3.950000e-01    1.850000e+00
   C5v  TX1v  1 3.950000e-01    2.110000e+00
   C4v  TC4v  1 3.950000e-01    2.110000e+00
   C4v  TC3v  1 3.950000e-01    2.110000e+00
   C4v  TC2v  1 3.950000e-01    1.850000e+00
   C4v  TC1v  1 3.950000e-01    1.670000e+00
   C4v  TX4v  1 3.950000e-01    1.850000e+00
   C4v  TX3v  1 3.950000e-01    1.850000e+00
   C4v  TX2v  1 3.950000e-01    1.850000e+00
   C4v  TX1v  1 3.950000e-01    2.110000e+00
   C3v  TC3v  1 3.950000e-01    2.110000e+00
   C3v  TC2v  1 3.950000e-01    2.110000e+00
   C3v  TC1v  1 3.950000e-01    2.110000e+00
   C3v  TX4v  1 3.950000e-01    1.850000e+00
   C3v  TX3v  1 3.950000e-01    1.850000e+00
   C3v  TX2v  1 3.950000e-01    1.850000e+00
   C3v  TX1v  1 3.950000e-01    2.110000e+00
   C2v  TC2v  1 3.950000e-01    2.110000e+00
   C2v  TC1v  1 3.950000e-01    2.310000e+00
   C2v  TX4v  1 3.980000e-01    1.450000e+00
   C2v  TX3v  1 3.950000e-01    1.850000e+00
   C2v  TX2v  1 3.950000e-01    1.850000e+00
   C2v  TX1v  1 3.950000e-01    1.850000e+00
   C1v  TC1v  1 3.950000e-01    2.110000e+00
   C1v  TX4v  1 3.980000e-01    1.450000e+00
   C1v  TX3v  1 3.950000e-01    1.850000e+00
   C1v  TX2v  1 3.950000e-01    1.850000e+00
   C1v  TX1v  1 3.950000e-01    1.850000e+00
   X4v  TX4v  1 3.950000e-01    2.110000e+00
   X4v  TX3v  1 3.950000e-01    2.110000e+00
   X4v  TX2v  1 3.950000e-01    2.110000e+00
   X4v  TX1v  1 3.950000e-01    2.110000e+00
   X3v  TX3v  1 3.950000e-01    2.110000e+00
   X3v  TX2v  1 3.950000e-01    2.310000e+00
   X3v  TX1v  1 3.950000e-01    2.310000e+00
   X2v  TX2v  1 3.950000e-01    2.310000e+00
   X2v  TX1v  1 3.950000e-01    2.310000e+00
   X1v  TX1v  1 3.950000e-01    2.500000e+00
   C6e  TC6e  1 3.950000e-01    2.310000e+00
   C6e  TC5e  1 3.950000e-01    2.110000e+00
   C6e  TC4e  1 3.950000e-01    2.110000e+00
   C6e  TC3e  1 3.950000e-01    1.850000e+00
   C6e  TC2e  1 3.950000e-01    1.670000e+00
   C6e  TC1e  1 3.980000e-01    1.450000e+00
   C6e  TX4e  1 3.950000e-01    2.110000e+00
   C6e  TX3e  1 3.950000e-01    2.110000e+00
   C6e  TX2e  1 3.950000e-01    2.110000e+00
   C6e  TX1e  1 3.950000e-01    2.110000e+00
   C5e  TC5e  1 3.950000e-01    2.110000e+00
   C5e  TC4e  1 3.950000e-01    2.110000e+00
   C5e  TC3e  1 3.950000e-01    1.850000e+00
   C5e  TC2e  1 3.950000e-01    1.670000e+00
   C5e  TC1e  1 3.950000e-01    1.670000e+00
   C5e  TX4e  1 3.950000e-01    1.850000e+00
   C5e  TX3e  1 3.950000e-01    1.850000e+00
   C5e  TX2e  1 3.950000e-01    1.850000e+00
   C5e  TX1e  1 3.950000e-01    2.110000e+00
   C4e  TC4e  1 3.950000e-01    2.110000e+00
   C4e  TC3e  1 3.950000e-01    2.110000e+00
   C4e  TC2e  1 3.950000e-01    1.850000e+00
   C4e  TC1e  1 3.950000e-01    1.670000e+00
   C4e  TX4e  1 3.950000e-01    1.850000e+00
   C4e  TX3e  1 3.950000e-01    1.850000e+00
   C4e  TX2e  1 3.950000e-01    1.850000e+00
   C4e  TX1e  1 3.950000e-01    2.110000e+00
   C3e  TC3e  1 3.950000e-01    2.110000e+00
   C3e  TC2e  1 3.950000e-01    2.110000e+00
   C3e  TC1e  1 3.950000e-01    2.110000e+00
   C3e  TX4e  1 3.950000e-01    1.850000e+00
   C3e  TX3e  1 3.950000e-01    1.850000e+00
   C3e  TX2e  1 3.950000e-01    1.850000e+00
   C3e  TX1e  1 3.950000e-01    2.110000e+00
   C2e  TC2e  1 3.950000e-01    2.110000e+00
   C2e  TC1e  1 3.950000e-01    2.310000e+00
   C2e  TX4e  1 3.980000e-01    1.450000e+00
   C2e  TX3e  1 3.950000e-01    1.850000e+00
   C2e  TX2e  1 3.950000e-01    1.850000e+00
   C2e  TX1e  1 3.950000e-01    1.850000e+00
   C1e  TC1e  1 3.950000e-01    2.110000e+00
   C1e  TX4e  1 3.980000e-01    1.450000e+00
   C1e  TX3e  1 3.950000e-01    1.850000e+00
   C1e  TX2e  1 3.950000e-01    1.850000e+00
   C1e  TX1e  1 3.950000e-01    1.850000e+00
   X4e  TX4e  1 3.950000e-01    2.110000e+00
   X4e  TX3e  1 3.950000e-01    2.110000e+00
   X4e  TX2e  1 3.950000e-01    2.110000e+00
   X4e  TX1e  1 3.950000e-01    2.110000e+00
   X3e  TX3e  1 3.950000e-01    2.110000e+00
   X3e  TX2e  1 3.950000e-01    2.310000e+00
   X3e  TX1e  1 3.950000e-01    2.310000e+00
   X2e  TX2e  1 3.950000e-01    2.310000e+00
   X2e  TX1e  1 3.950000e-01    2.310000e+00
   X1e  TX1e  1 3.950000e-01    2.500000e+00
   C6v  TC6e  1 3.950000e-01    2.940000e+00
   C6v  TC5e  1 3.950000e-01    2.700000e+00
   C6e  TC5v  1 3.950000e-01    2.700000e+00
   C6v  TC4e  1 3.950000e-01    2.700000e+00
   C6e  TC4v  1 3.950000e-01    2.700000e+00
   C6v  TC3e  1 3.950000e-01    2.500000e+00
   C6e  TC3v  1 3.950000e-01    2.500000e+00
   C6v  TC2e  1 3.950000e-01    2.310000e+00
   C6e  TC2v  1 3.950000e-01    2.310000e+00
   C6v  TC1e  1 3.950000e-01    2.110000e+00
   C6e  TC1v  1 3.950000e-01    2.110000e+00
   C6v  TX4e  1 3.950000e-01    2.700000e+00
   C6e  TX4v  1 3.950000e-01    2.700000e+00
   C6v  TX3e  1 3.950000e-01    2.700000e+00
   C6e  TX3v  1 3.950000e-01    2.700000e+00
   C6v  TX2e  1 3.950000e-01    2.700000e+00
   C6e  TX2v  1 3.950000e-01    2.700000e+00
   C6v  TX1e  1 3.950000e-01    2.700000e+00
   C6e  TX1v  1 3.950000e-01    2.700000e+00
   C5v  TC5e  1 3.950000e-01    2.700000e+00
   C5v  TC4e  1 3.950000e-01    2.700000e+00
   C5e  TC4v  1 3.950000e-01    2.700000e+00
   C5v  TC3e  1 3.950000e-01    2.500000e+00
   C5e  TC3v  1 3.950000e-01    2.500000e+00
   C5v  TC2e  1 3.950000e-01    2.310000e+00
   C5e  TC2v  1 3.950000e-01    2.310000e+00
   C5v  TC1e  1 3.950000e-01    2.310000e+00
   C5e  TC1v  1 3.950000e-01    2.310000e+00
   C5v  TX4e  1 3.950000e-01    2.500000e+00
   C5e  TX4v  1 3.950000e-01    2.500000e+00
   C5v  TX3e  1 3.950000e-01    2.500000e+00
   C5e  TX3v  1 3.950000e-01    2.500000e+00
   C5v  TX2e  1 3.950000e-01    2.500000e+00
   C5e  TX2v  1 3.950000e-01    2.500000e+00
   C5v  TX1e  1 3.950000e-01    2.700000e+00
   C5e  TX1v  1 3.950000e-01    2.700000e+00
   C4v  TC4e  1 3.950000e-01    2.700000e+00
   C4v  TC3e  1 3.950000e-01    2.700000e+00
   C4e  TC3v  1 3.950000e-01    2.700000e+00
   C4v  TC2e  1 3.950000e-01    2.500000e+00
   C4e  TC2v  1 3.950000e-01    2.500000e+00
   C4v  TC1e  1 3.950000e-01    2.310000e+00
   C4e  TC1v  1 3.950000e-01    2.310000e+00
   C4v  TX4e  1 3.950000e-01    2.500000e+00
   C4e  TX4v  1 3.950000e-01    2.500000e+00
   C4v  TX3e  1 3.950000e-01    2.500000e+00
   C4e  TX3v  1 3.950000e-01    2.500000e+00
   C4v  TX2e  1 3.950000e-01    2.500000e+00
   C4e  TX2v  1 3.950000e-01    2.500000e+00
   C4v  TX1e  1 3.950000e-01    2.700000e+00
   C4e  TX1v  1 3.950000e-01    2.700000e+00
   C3v  TC3e  1 3.950000e-01    2.700000e+00
   C3v  TC2e  1 3.950000e-01    2.700000e+00
   C3e  TC2v  1 3.950000e-01    2.700000e+00
   C3v  TC1e  1 3.950000e-01    2.700000e+00
   C3e  TC1v  1 3.950000e-01    2.700000e+00
   C3v  TX4e  1 3.950000e-01    2.500000e+00
   C3e  TX4v  1 3.950000e-01    2.500000e+00
   C3v  TX3e  1 3.950000e-01    2.500000e+00
   C3e  TX3v  1 3.950000e-01    2.500000e+00
   C3v  TX2e  1 3.950000e-01    2.500000e+00
   C3e  TX2v  1 3.950000e-01    2.500000e+00
   C3v  TX1e  1 3.950000e-01    2.700000e+00
   C3e  TX1v  1 3.950000e-01    2.700000e+00
   C2v  TC2e  1 3.950000e-01    2.700000e+00
   C2v  TC1e  1 3.950000e-01    2.940000e+00
   C2e  TC1v  1 3.950000e-01    2.940000e+00
   C2v  TX4e  1 3.950000e-01    2.110000e+00
   C2e  TX4v  1 3.950000e-01    2.110000e+00
   C2v  TX3e  1 3.950000e-01    2.500000e+00
   C2e  TX3v  1 3.950000e-01    2.500000e+00
   C2v  TX2e  1 3.950000e-01    2.500000e+00
   C2e  TX2v  1 3.950000e-01    2.500000e+00
   C2v  TX1e  1 3.950000e-01    2.500000e+00
   C2e  TX1v  1 3.950000e-01    2.500000e+00
   C1v  TC1e  1 3.950000e-01    2.700000e+00
   C1v  TX4e  1 3.950000e-01    2.110000e+00
   C1e  TX4v  1 3.950000e-01    2.110000e+00
   C1v  TX3e  1 3.950000e-01    2.500000e+00
   C1e  TX3v  1 3.950000e-01    2.500000e+00
   C1v  TX2e  1 3.950000e-01    2.500000e+00
   C1e  TX2v  1 3.950000e-01    2.500000e+00
   C1v  TX1e  1 3.950000e-01    2.500000e+00
   C1e  TX1v  1 3.950000e-01    2.500000e+00
   X4v  TX4e  1 3.950000e-01    2.700000e+00
   X4v  TX3e  1 3.950000e-01    2.700000e+00
   X4e  TX3v  1 3.950000e-01    2.700000e+00
   X4v  TX2e  1 3.950000e-01    2.700000e+00
   X4e  TX2v  1 3.950000e-01    2.700000e+00
   X4v  TX1e  1 3.950000e-01    2.700000e+00
   X4e  TX1v  1 3.950000e-01    2.700000e+00
   X3v  TX3e  1 3.950000e-01    2.700000e+00
   X3v  TX2e  1 3.950000e-01    2.940000e+00
   X3e  TX2v  1 3.950000e-01    2.940000e+00
   X3v  TX1e  1 3.950000e-01    2.940000e+00
   X3e  TX1v  1 3.950000e-01    2.940000e+00
   X2v  TX2e  1 3.950000e-01    2.940000e+00
   X2v  TX1e  1 3.950000e-01    2.940000e+00
   X2e  TX1v  1 3.950000e-01    2.940000e+00
   X1v  TX1e  1 3.950000e-01    3.190000e+00
   P6d  TC6e  1 3.950000e-01    1.850000e+00
   P6d  TC5e  1 3.950000e-01    1.670000e+00
   P6d  TC4e  1 3.980000e-01    1.450000e+00
   P6d  TC3e  1 3.990000e-01    1.180000e+00
   P6d  TC2e  1 3.990000e-01    1.180000e+00
   P6d  TC1e  1 4.040000e-01    8.300000e-01
   P6d  TX4e  1 3.950000e-01    2.110000e+00
   P6d  TX3e  1 3.950000e-01    2.110000e+00
   P6d  TX2e  1 3.950000e-01    1.850000e+00
   P6d  TX1e  1 3.950000e-01    1.670000e+00
   P5d  TC6e  1 3.950000e-01    1.850000e+00
   P5d  TC5e  1 3.950000e-01    1.850000e+00
   P5d  TC4e  1 3.950000e-01    1.670000e+00
   P5d  TC3e  1 3.980000e-01    1.450000e+00
   P5d  TC2e  1 3.980000e-01    1.450000e+00
   P5d  TC1e  1 3.990000e-01    1.180000e+00
   P5d  TX4e  1 3.950000e-01    2.310000e+00
   P5d  TX3e  1 3.950000e-01    2.110000e+00
   P5d  TX2e  1 3.950000e-01    2.110000e+00
   P5d  TX1e  1 3.950000e-01    1.670000e+00
   P4d  TC6e  1 3.950000e-01    2.110000e+00
   P4d  TC5e  1 3.950000e-01    1.850000e+00
   P4d  TC4e  1 3.950000e-01    1.670000e+00
   P4d  TC3e  1 3.980000e-01    1.450000e+00
   P4d  TC2e  1 3.980000e-01    1.450000e+00
   P4d  TC1e  1 3.990000e-01    1.180000e+00
   P4d  TX4e  1 3.950000e-01    2.310000e+00
   P4d  TX3e  1 3.950000e-01    2.110000e+00
   P4d  TX2e  1 3.950000e-01    2.110000e+00
   P4d  TX1e  1 3.950000e-01    1.850000e+00
   P3d  TC6e  1 3.950000e-01    2.310000e+00
   P3d  TC5e  1 3.950000e-01    2.110000e+00
   P3d  TC4e  1 3.950000e-01    1.850000e+00
   P3d  TC3e  1 3.980000e-01    1.450000e+00
   P3d  TC2e  1 3.980000e-01    1.450000e+00
   P3d  TC1e  1 3.990000e-01    1.180000e+00
   P3d  TX4e  1 3.950000e-01    2.310000e+00
   P3d  TX3e  1 3.950000e-01    2.310000e+00
   P3d  TX2e  1 3.950000e-01    2.110000e+00
   P3d  TX1e  1 3.950000e-01    1.850000e+00
   P2d  TC6e  1 3.950000e-01    2.310000e+00
   P2d  TC5e  1 3.950000e-01    2.110000e+00
   P2d  TC4e  1 3.950000e-01    1.850000e+00
   P2d  TC3e  1 3.950000e-01    1.670000e+00
   P2d  TC2e  1 3.950000e-01    1.670000e+00
   P2d  TC1e  1 3.980000e-01    1.450000e+00
   P2d  TX4e  1 3.950000e-01    2.310000e+00
   P2d  TX3e  1 3.950000e-01    2.310000e+00
   P2d  TX2e  1 3.950000e-01    2.110000e+00
   P2d  TX1e  1 3.950000e-01    1.850000e+00
   P1d  TC6e  1 3.950000e-01    2.310000e+00
   P1d  TC5e  1 3.950000e-01    2.110000e+00
   P1d  TC4e  1 3.950000e-01    1.850000e+00
   P1d  TC3e  1 3.950000e-01    1.670000e+00
   P1d  TC2e  1 3.950000e-01    1.670000e+00
   P1d  TC1e  1 3.980000e-01    1.450000e+00
   P1d  TX4e  1 3.950000e-01    2.310000e+00
   P1d  TX3e  1 3.950000e-01    2.310000e+00
   P1d  TX2e  1 3.950000e-01    2.110000e+00
   P1d  TX1e  1 3.950000e-01    1.850000e+00
   N6d  TC6e  1 3.950000e-01    2.500000e+00
   N6d  TC5e  1 3.950000e-01    2.310000e+00
   N6d  TC4e  1 3.950000e-01    2.110000e+00
   N6d  TC3e  1 3.950000e-01    1.850000e+00
   N6d  TC2e  1 3.950000e-01    1.850000e+00
   N6d  TC1e  1 3.950000e-01    1.670000e+00
   N6d  TX4e  1 3.950000e-01    2.500000e+00
   N6d  TX3e  1 3.950000e-01    2.310000e+00
   N6d  TX2e  1 3.950000e-01    2.110000e+00
   N6d  TX1e  1 3.950000e-01    1.850000e+00
   N5d  TC6e  1 3.950000e-01    2.500000e+00
   N5d  TC5e  1 3.950000e-01    2.310000e+00
   N5d  TC4e  1 3.950000e-01    2.110000e+00
   N5d  TC3e  1 3.950000e-01    2.110000e+00
   N5d  TC2e  1 3.950000e-01    1.850000e+00
   N5d  TC1e  1 3.950000e-01    1.670000e+00
   N5d  TX4e  1 3.950000e-01    2.700000e+00
   N5d  TX3e  1 3.950000e-01    2.500000e+00
   N5d  TX2e  1 3.950000e-01    2.310000e+00
   N5d  TX1e  1 3.950000e-01    2.110000e+00
   N4d  TC6e  1 3.950000e-01    2.500000e+00
   N4d  TC5e  1 3.950000e-01    2.310000e+00
   N4d  TC4e  1 3.950000e-01    2.310000e+00
   N4d  TC3e  1 3.950000e-01    2.110000e+00
   N4d  TC2e  1 3.950000e-01    1.850000e+00
   N4d  TC1e  1 3.950000e-01    1.670000e+00
   N4d  TX4e  1 3.950000e-01    2.940000e+00
   N4d  TX3e  1 3.950000e-01    2.700000e+00
   N4d  TX2e  1 3.950000e-01    2.310000e+00
   N4d  TX1e  1 3.950000e-01    2.110000e+00
   N3d  TC6e  1 3.950000e-01    2.500000e+00
   N3d  TC5e  1 3.950000e-01    2.310000e+00
   N3d  TC4e  1 3.950000e-01    2.310000e+00
   N3d  TC3e  1 3.950000e-01    2.110000e+00
   N3d  TC2e  1 3.950000e-01    2.110000e+00
   N3d  TC1e  1 3.950000e-01    1.850000e+00
   N3d  TX4e  1 3.950000e-01    2.700000e+00
   N3d  TX3e  1 3.950000e-01    2.500000e+00
   N3d  TX2e  1 3.950000e-01    2.310000e+00
   N3d  TX1e  1 3.950000e-01    2.310000e+00
   N2d  TC6e  1 3.950000e-01    2.500000e+00
   N2d  TC5e  1 3.950000e-01    2.310000e+00
   N2d  TC4e  1 3.950000e-01    2.310000e+00
   N2d  TC3e  1 3.950000e-01    2.310000e+00
   N2d  TC2e  1 3.950000e-01    2.110000e+00
   N2d  TC1e  1 3.950000e-01    1.850000e+00
   N2d  TX4e  1 3.950000e-01    2.700000e+00
   N2d  TX3e  1 3.950000e-01    2.500000e+00
   N2d  TX2e  1 3.950000e-01    2.310000e+00
   N2d  TX1e  1 3.950000e-01    2.310000e+00
   N1d  TC6e  1 3.950000e-01    2.700000e+00
   N1d  TC5e  1 3.950000e-01    2.500000e+00
   N1d  TC4e  1 3.950000e-01    2.500000e+00
   N1d  TC3e  1 3.950000e-01    2.310000e+00
   N1d  TC2e  1 3.950000e-01    2.110000e+00
   N1d  TC1e  1 3.950000e-01    1.850000e+00
   N1d  TX4e  1 3.950000e-01    2.500000e+00
   N1d  TX3e  1 3.950000e-01    2.500000e+00
   N1d  TX2e  1 3.950000e-01    2.310000e+00
   N1d  TX1e  1 3.950000e-01    2.310000e+00
   P6a  TC6v  1 3.950000e-01    1.850000e+00
   P6a  TC5v  1 3.950000e-01    1.670000e+00
   P6a  TC4v  1 3.980000e-01    1.450000e+00
   P6a  TC3v  1 3.990000e-01    1.180000e+00
   P6a  TC2v  1 3.990000e-01    1.180000e+00
   P6a  TC1v  1 4.040000e-01    8.300000e-01
   P6a  TX4v  1 3.950000e-01    2.110000e+00
   P6a  TX3v  1 3.950000e-01    2.110000e+00
   P6a  TX2v  1 3.950000e-01    1.850000e+00
   P6a  TX1v  1 3.950000e-01    1.670000e+00
   P5a  TC6v  1 3.950000e-01    1.850000e+00
   P5a  TC5v  1 3.950000e-01    1.850000e+00
   P5a  TC4v  1 3.950000e-01    1.670000e+00
   P5a  TC3v  1 3.980000e-01    1.450000e+00
   P5a  TC2v  1 3.980000e-01    1.450000e+00
   P5a  TC1v  1 3.990000e-01    1.180000e+00
   P5a  TX4v  1 3.950000e-01    2.310000e+00
   P5a  TX3v  1 3.950000e-01    2.110000e+00
   P5a  TX2v  1 3.950000e-01    2.110000e+00
   P5a  TX1v  1 3.950000e-01    1.670000e+00
   P4a  TC6v  1 3.950000e-01    2.110000e+00
   P4a  TC5v  1 3.950000e-01    1.850000e+00
   P4a  TC4v  1 3.950000e-01    1.670000e+00
   P4a  TC3v  1 3.980000e-01    1.450000e+00
   P4a  TC2v  1 3.980000e-01    1.450000e+00
   P4a  TC1v  1 3.990000e-01    1.180000e+00
   P4a  TX4v  1 3.950000e-01    2.310000e+00
   P4a  TX3v  1 3.950000e-01    2.110000e+00
   P4a  TX2v  1 3.950000e-01    2.110000e+00
   P4a  TX1v  1 3.950000e-01    1.850000e+00
   P3a  TC6v  1 3.950000e-01    2.310000e+00
   P3a  TC5v  1 3.950000e-01    2.110000e+00
   P3a  TC4v  1 3.950000e-01    1.850000e+00
   P3a  TC3v  1 3.980000e-01    1.450000e+00
   P3a  TC2v  1 3.980000e-01    1.450000e+00
   P3a  TC1v  1 3.990000e-01    1.180000e+00
   P3a  TX4v  1 3.950000e-01    2.310000e+00
   P3a  TX3v  1 3.950000e-01    2.310000e+00
   P3a  TX2v  1 3.950000e-01    2.110000e+00
   P3a  TX1v  1 3.950000e-01    1.850000e+00
   P2a  TC6v  1 3.950000e-01    2.310000e+00
   P2a  TC5v  1 3.950000e-01    2.110000e+00
   P2a  TC4v  1 3.950000e-01    1.850000e+00
   P2a  TC3v  1 3.950000e-01    1.670000e+00
   P2a  TC2v  1 3.950000e-01    1.670000e+00
   P2a  TC1v  1 3.980000e-01    1.450000e+00
   P2a  TX4v  1 3.950000e-01    2.310000e+00
   P2a  TX3v  1 3.950000e-01    2.310000e+00
   P2a  TX2v  1 3.950000e-01    2.110000e+00
   P2a  TX1v  1 3.950000e-01    1.850000e+00
   P1a  TC6v  1 3.950000e-01    2.310000e+00
   P1a  TC5v  1 3.950000e-01    2.110000e+00
   P1a  TC4v  1 3.950000e-01    1.850000e+00
   P1a  TC3v  1 3.950000e-01    1.670000e+00
   P1a  TC2v  1 3.950000e-01    1.670000e+00
   P1a  TC1v  1 3.980000e-01    1.450000e+00
   P1a  TX4v  1 3.950000e-01    2.310000e+00
   P1a  TX3v  1 3.950000e-01    2.310000e+00
   P1a  TX2v  1 3.950000e-01    2.110000e+00
   P1a  TX1v  1 3.950000e-01    1.850000e+00
   N6a  TC6v  1 3.950000e-01    2.500000e+00
   N6a  TC5v  1 3.950000e-01    2.310000e+00
   N6a  TC4v  1 3.950000e-01    2.110000e+00
   N6a  TC3v  1 3.950000e-01    1.850000e+00
   N6a  TC2v  1 3.950000e-01    1.850000e+00
   N6a  TC1v  1 3.950000e-01    1.670000e+00
   N6a  TX4v  1 3.950000e-01    2.500000e+00
   N6a  TX3v  1 3.950000e-01    2.310000e+00
   N6a  TX2v  1 3.950000e-01    2.110000e+00
   N6a  TX1v  1 3.950000e-01    1.850000e+00
   N5a  TC6v  1 3.950000e-01    2.500000e+00
   N5a  TC5v  1 3.950000e-01    2.310000e+00
   N5a  TC4v  1 3.950000e-01    2.110000e+00
   N5a  TC3v  1 3.950000e-01    2.110000e+00
   N5a  TC2v  1 3.950000e-01    1.850000e+00
   N5a  TC1v  1 3.950000e-01    1.670000e+00
   N5a  TX4v  1 3.950000e-01    2.700000e+00
   N5a  TX3v  1 3.950000e-01    2.500000e+00
   N5a  TX2v  1 3.950000e-01    2.310000e+00
   N5a  TX1v  1 3.950000e-01    2.110000e+00
   N4a  TC6v  1 3.950000e-01    2.500000e+00
   N4a  TC5v  1 3.950000e-01    2.310000e+00
   N4a  TC4v  1 3.950000e-01    2.310000e+00
   N4a  TC3v  1 3.950000e-01    2.110000e+00
   N4a  TC2v  1 3.950000e-01    1.850000e+00
   N4a  TC1v  1 3.950000e-01    1.670000e+00
   N4a  TX4v  1 3.950000e-01    2.940000e+00
   N4a  TX3v  1 3.950000e-01    2.700000e+00
   N4a  TX2v  1 3.950000e-01    2.310000e+00
   N4a  TX1v  1 3.950000e-01    2.110000e+00
   N3a  TC6v  1 3.950000e-01    2.500000e+00
   N3a  TC5v  1 3.950000e-01    2.310000e+00
   N3a  TC4v  1 3.950000e-01    2.310000e+00
   N3a  TC3v  1 3.950000e-01    2.110000e+00
   N3a  TC2v  1 3.950000e-01    2.110000e+00
   N3a  TC1v  1 3.950000e-01    1.850000e+00
   N3a  TX4v  1 3.950000e-01    2.700000e+00
   N3a  TX3v  1 3.950000e-01    2.500000e+00
   N3a  TX2v  1 3.950000e-01    2.310000e+00
   N3a  TX1v  1 3.950000e-01    2.310000e+00
   N2a  TC6v  1 3.950000e-01    2.500000e+00
   N2a  TC5v  1 3.950000e-01    2.310000e+00
   N2a  TC4v  1 3.950000e-01    2.310000e+00
   N2a  TC3v  1 3.950000e-01    2.310000e+00
   N2a  TC2v  1 3.950000e-01    2.110000e+00
   N2a  TC1v  1 3.950000e-01    1.850000e+00
   N2a  TX4v  1 3.950000e-01    2.700000e+00
   N2a  TX3v  1 3.950000e-01    2.500000e+00
   N2a  TX2v  1 3.950000e-01    2.310000e+00
   N2a  TX1v  1 3.950000e-01    2.310000e+00
   N1a  TC6v  1 3.950000e-01    2.700000e+00
   N1a  TC5v  1 3.950000e-01    2.500000e+00
   N1a  TC4v  1 3.950000e-01    2.500000e+00
   N1a  TC3v  1 3.950000e-01    2.310000e+00
   N1a  TC2v  1 3.950000e-01    2.110000e+00
   N1a  TC1v  1 3.950000e-01    1.850000e+00
   N1a  TX4v  1 3.950000e-01    2.500000e+00
   N1a  TX3v  1 3.950000e-01    2.500000e+00
   N1a  TX2v  1 3.950000e-01    2.310000e+00
   N1a  TX1v  1 3.950000e-01    2.310000e+00
   P6d  TC6v  1 3.980000e-01    1.450000e+00
   P6d  TC5v  1 3.990000e-01    1.180000e+00
   P6d  TC4v  1 4.010000e-01    9.830000e-01
   P6d  TC3v  1 4.040000e-01    8.300000e-01
   P6d  TC2v  1 4.040000e-01    8.300000e-01
   P6d  TC1v  1 5.110000e-01    6.590000e-01
   P6d  TX4v  1 3.950000e-01    1.670000e+00
   P6d  TX3v  1 3.950000e-01    1.670000e+00
   P6d  TX2v  1 3.980000e-01    1.450000e+00
   P6d  TX1v  1 3.990000e-01    1.180000e+00
   P5d  TC6v  1 3.980000e-01    1.450000e+00
   P5d  TC5v  1 3.980000e-01    1.450000e+00
   P5d  TC4v  1 3.990000e-01    1.180000e+00
   P5d  TC3v  1 4.010000e-01    9.830000e-01
   P5d  TC2v  1 4.010000e-01    9.830000e-01
   P5d  TC1v  1 4.040000e-01    8.300000e-01
   P5d  TX4v  1 3.950000e-01    1.850000e+00
   P5d  TX3v  1 3.950000e-01    1.670000e+00
   P5d  TX2v  1 3.950000e-01    1.670000e+00
   P5d  TX1v  1 3.990000e-01    1.180000e+00
   P4d  TC6v  1 3.950000e-01    1.670000e+00
   P4d  TC5v  1 3.980000e-01    1.450000e+00
   P4d  TC4v  1 3.990000e-01    1.180000e+00
   P4d  TC3v  1 4.010000e-01    9.830000e-01
   P4d  TC2v  1 4.010000e-01    9.830000e-01
   P4d  TC1v  1 4.040000e-01    8.300000e-01
   P4d  TX4v  1 3.950000e-01    1.850000e+00
   P4d  TX3v  1 3.950000e-01    1.670000e+00
   P4d  TX2v  1 3.950000e-01    1.670000e+00
   P4d  TX1v  1 3.980000e-01    1.450000e+00
   P3d  TC6v  1 3.950000e-01    1.850000e+00
   P3d  TC5v  1 3.950000e-01    1.670000e+00
   P3d  TC4v  1 3.980000e-01    1.450000e+00
   P3d  TC3v  1 4.010000e-01    9.830000e-01
   P3d  TC2v  1 4.010000e-01    9.830000e-01
   P3d  TC1v  1 4.040000e-01    8.300000e-01
   P3d  TX4v  1 3.950000e-01    1.850000e+00
   P3d  TX3v  1 3.950000e-01    1.850000e+00
   P3d  TX2v  1 3.950000e-01    1.670000e+00
   P3d  TX1v  1 3.980000e-01    1.450000e+00
   P2d  TC6v  1 3.950000e-01    1.850000e+00
   P2d  TC5v  1 3.950000e-01    1.670000e+00
   P2d  TC4v  1 3.980000e-01    1.450000e+00
   P2d  TC3v  1 3.990000e-01    1.180000e+00
   P2d  TC2v  1 3.990000e-01    1.180000e+00
   P2d  TC1v  1 4.010000e-01    9.830000e-01
   P2d  TX4v  1 3.950000e-01    1.850000e+00
   P2d  TX3v  1 3.950000e-01    1.850000e+00
   P2d  TX2v  1 3.950000e-01    1.670000e+00
   P2d  TX1v  1 3.980000e-01    1.450000e+00
   P1d  TC6v  1 3.950000e-01    1.850000e+00
   P1d  TC5v  1 3.950000e-01    1.670000e+00
   P1d  TC4v  1 3.980000e-01    1.450000e+00
   P1d  TC3v  1 3.990000e-01    1.180000e+00
   P1d  TC2v  1 3.990000e-01    1.180000e+00
   P1d  TC1v  1 4.010000e-01    9.830000e-01
   P1d  TX4v  1 3.950000e-01    1.850000e+00
   P1d  TX3v  1 3.950000e-01    1.850000e+00
   P1d  TX2v  1 3.950000e-01    1.670000e+00
   P1d  TX1v  1 3.980000e-01    1.450000e+00
   N6d  TC6v  1 3.950000e-01    2.110000e+00
   N6d  TC5v  1 3.950000e-01    1.850000e+00
   N6d  TC4v  1 3.950000e-01    1.670000e+00
   N6d  TC3v  1 3.980000e-01    1.450000e+00
   N6d  TC2v  1 3.980000e-01    1.450000e+00
   N6d  TC1v  1 3.990000e-01    1.180000e+00
   N6d  TX4v  1 3.950000e-01    2.110000e+00
   N6d  TX3v  1 3.950000e-01    1.850000e+00
   N6d  TX2v  1 3.950000e-01    1.670000e+00
   N6d  TX1v  1 3.980000e-01    1.450000e+00
   N5d  TC6v  1 3.950000e-01    2.110000e+00
   N5d  TC5v  1 3.950000e-01    1.850000e+00
   N5d  TC4v  1 3.950000e-01    1.670000e+00
   N5d  TC3v  1 3.950000e-01    1.670000e+00
   N5d  TC2v  1 3.980000e-01    1.450000e+00
   N5d  TC1v  1 3.990000e-01    1.180000e+00
   N5d  TX4v  1 3.950000e-01    2.310000e+00
   N5d  TX3v  1 3.950000e-01    2.110000e+00
   N5d  TX2v  1 3.950000e-01    1.850000e+00
   N5d  TX1v  1 3.950000e-01    1.670000e+00
   N4d  TC6v  1 3.950000e-01    2.110000e+00
   N4d  TC5v  1 3.950000e-01    1.850000e+00
   N4d  TC4v  1 3.950000e-01    1.850000e+00
   N4d  TC3v  1 3.950000e-01    1.670000e+00
   N4d  TC2v  1 3.980000e-01    1.450000e+00
   N4d  TC1v  1 3.990000e-01    1.180000e+00
   N4d  TX4v  1 3.950000e-01    2.500000e+00
   N4d  TX3v  1 3.950000e-01    2.310000e+00
   N4d  TX2v  1 3.950000e-01    1.850000e+00
   N4d  TX1v  1 3.950000e-01    1.670000e+00
   N3d  TC6v  1 3.950000e-01    2.110000e+00
   N3d  TC5v  1 3.950000e-01    1.850000e+00
   N3d  TC4v  1 3.950000e-01    1.850000e+00
   N3d  TC3v  1 3.950000e-01    1.670000e+00
   N3d  TC2v  1 3.950000e-01    1.670000e+00
   N3d  TC1v  1 3.980000e-01    1.450000e+00
   N3d  TX4v  1 3.950000e-01    2.310000e+00
   N3d  TX3v  1 3.950000e-01    2.110000e+00
   N3d  TX2v  1 3.950000e-01    1.850000e+00
   N3d  TX1v  1 3.950000e-01    1.850000e+00
   N2d  TC6v  1 3.950000e-01    2.110000e+00
   N2d  TC5v  1 3.950000e-01    1.850000e+00
   N2d  TC4v  1 3.950000e-01    1.850000e+00
   N2d  TC3v  1 3.950000e-01    1.850000e+00
   N2d  TC2v  1 3.950000e-01    1.670000e+00
   N2d  TC1v  1 3.980000e-01    1.450000e+00
   N2d  TX4v  1 3.950000e-01    2.310000e+00
   N2d  TX3v  1 3.950000e-01    2.110000e+00
   N2d  TX2v  1 3.950000e-01    1.850000e+00
   N2d  TX1v  1 3.950000e-01    1.850000e+00
   N1d  TC6v  1 3.950000e-01    2.310000e+00
   N1d  TC5v  1 3.950000e-01    2.110000e+00
   N1d  TC4v  1 3.950000e-01    2.110000e+00
   N1d  TC3v  1 3.950000e-01    1.850000e+00
   N1d  TC2v  1 3.950000e-01    1.670000e+00
   N1d  TC1v  1 3.980000e-01    1.450000e+00
   N1d  TX4v  1 3.950000e-01    2.110000e+00
   N1d  TX3v  1 3.950000e-01    2.110000e+00
   N1d  TX2v  1 3.950000e-01    1.850000e+00
   N1d  TX1v  1 3.950000e-01    1.850000e+00
   P6a  TC6e  1 3.980000e-01    1.450000e+00
   P6a  TC5e  1 3.990000e-01    1.180000e+00
   P6a  TC4e  1 4.010000e-01    9.830000e-01
   P6a  TC3e  1 4.040000e-01    8.300000e-01
   P6a  TC2e  1 4.040000e-01    8.300000e-01
   P6a  TC1e  1 5.110000e-01    6.590000e-01
   P6a  TX4e  1 3.950000e-01    1.670000e+00
   P6a  TX3e  1 3.950000e-01    1.670000e+00
   P6a  TX2e  1 3.980000e-01    1.450000e+00
   P6a  TX1e  1 3.990000e-01    1.180000e+00
   P5a  TC6e  1 3.980000e-01    1.450000e+00
   P5a  TC5e  1 3.980000e-01    1.450000e+00
   P5a  TC4e  1 3.990000e-01    1.180000e+00
   P5a  TC3e  1 4.010000e-01    9.830000e-01
   P5a  TC2e  1 4.010000e-01    9.830000e-01
   P5a  TC1e  1 4.040000e-01    8.300000e-01
   P5a  TX4e  1 3.950000e-01    1.850000e+00
   P5a  TX3e  1 3.950000e-01    1.670000e+00
   P5a  TX2e  1 3.950000e-01    1.670000e+00
   P5a  TX1e  1 3.990000e-01    1.180000e+00
   P4a  TC6e  1 3.950000e-01    1.670000e+00
   P4a  TC5e  1 3.980000e-01    1.450000e+00
   P4a  TC4e  1 3.990000e-01    1.180000e+00
   P4a  TC3e  1 4.010000e-01    9.830000e-01
   P4a  TC2e  1 4.010000e-01    9.830000e-01
   P4a  TC1e  1 4.040000e-01    8.300000e-01
   P4a  TX4e  1 3.950000e-01    1.850000e+00
   P4a  TX3e  1 3.950000e-01    1.670000e+00
   P4a  TX2e  1 3.950000e-01    1.670000e+00
   P4a  TX1e  1 3.980000e-01    1.450000e+00
   P3a  TC6e  1 3.950000e-01    1.850000e+00
   P3a  TC5e  1 3.950000e-01    1.670000e+00
   P3a  TC4e  1 3.980000e-01    1.450000e+00
   P3a  TC3e  1 4.010000e-01    9.830000e-01
   P3a  TC2e  1 4.010000e-01    9.830000e-01
   P3a  TC1e  1 4.040000e-01    8.300000e-01
   P3a  TX4e  1 3.950000e-01    1.850000e+00
   P3a  TX3e  1 3.950000e-01    1.850000e+00
   P3a  TX2e  1 3.950000e-01    1.670000e+00
   P3a  TX1e  1 3.980000e-01    1.450000e+00
   P2a  TC6e  1 3.950000e-01    1.850000e+00
   P2a  TC5e  1 3.950000e-01    1.670000e+00
   P2a  TC4e  1 3.980000e-01    1.450000e+00
   P2a  TC3e  1 3.990000e-01    1.180000e+00
   P2a  TC2e  1 3.990000e-01    1.180000e+00
   P2a  TC1e  1 4.010000e-01    9.830000e-01
   P2a  TX4e  1 3.950000e-01    1.850000e+00
   P2a  TX3e  1 3.950000e-01    1.850000e+00
   P2a  TX2e  1 3.950000e-01    1.670000e+00
   P2a  TX1e  1 3.980000e-01    1.450000e+00
   P1a  TC6e  1 3.950000e-01    1.850000e+00
   P1a  TC5e  1 3.950000e-01    1.670000e+00
   P1a  TC4e  1 3.980000e-01    1.450000e+00
   P1a  TC3e  1 3.990000e-01    1.180000e+00
   P1a  TC2e  1 3.990000e-01    1.180000e+00
   P1a  TC1e  1 4.010000e-01    9.830000e-01
   P1a  TX4e  1 3.950000e-01    1.850000e+00
   P1a  TX3e  1 3.950000e-01    1.850000e+00
   P1a  TX2e  1 3.950000e-01    1.670000e+00
   P1a  TX1e  1 3.980000e-01    1.450000e+00
   N6a  TC6e  1 3.950000e-01    2.110000e+00
   N6a  TC5e  1 3.950000e-01    1.850000e+00
   N6a  TC4e  1 3.950000e-01    1.670000e+00
   N6a  TC3e  1 3.980000e-01    1.450000e+00
   N6a  TC2e  1 3.980000e-01    1.450000e+00
   N6a  TC1e  1 3.990000e-01    1.180000e+00
   N6a  TX4e  1 3.950000e-01    2.110000e+00
   N6a  TX3e  1 3.950000e-01    1.850000e+00
   N6a  TX2e  1 3.950000e-01    1.670000e+00
   N6a  TX1e  1 3.980000e-01    1.450000e+00
   N5a  TC6e  1 3.950000e-01    2.110000e+00
   N5a  TC5e  1 3.950000e-01    1.850000e+00
   N5a  TC4e  1 3.950000e-01    1.670000e+00
   N5a  TC3e  1 3.950000e-01    1.670000e+00
   N5a  TC2e  1 3.980000e-01    1.450000e+00
   N5a  TC1e  1 3.990000e-01    1.180000e+00
   N5a  TX4e  1 3.950000e-01    2.310000e+00
   N5a  TX3e  1 3.950000e-01    2.110000e+00
   N5a  TX2e  1 3.950000e-01    1.850000e+00
   N5a  TX1e  1 3.950000e-01    1.670000e+00
   N4a  TC6e  1 3.950000e-01    2.110000e+00
   N4a  TC5e  1 3.950000e-01    1.850000e+00
   N4a  TC4e  1 3.950000e-01    1.850000e+00
   N4a  TC3e  1 3.950000e-01    1.670000e+00
   N4a  TC2e  1 3.980000e-01    1.450000e+00
   N4a  TC1e  1 3.990000e-01    1.180000e+00
   N4a  TX4e  1 3.950000e-01    2.500000e+00
   N4a  TX3e  1 3.950000e-01    2.310000e+00
   N4a  TX2e  1 3.950000e-01    1.850000e+00
   N4a  TX1e  1 3.950000e-01    1.670000e+00
   N3a  TC6e  1 3.950000e-01    2.110000e+00
   N3a  TC5e  1 3.950000e-01    1.850000e+00
   N3a  TC4e  1 3.950000e-01    1.850000e+00
   N3a  TC3e  1 3.950000e-01    1.670000e+00
   N3a  TC2e  1 3.950000e-01    1.670000e+00
   N3a  TC1e  1 3.980000e-01    1.450000e+00
   N3a  TX4e  1 3.950000e-01    2.310000e+00
   N3a  TX3e  1 3.950000e-01    2.110000e+00
   N3a  TX2e  1 3.950000e-01    1.850000e+00
   N3a  TX1e  1 3.950000e-01    1.850000e+00
   N2a  TC6e  1 3.950000e-01    2.110000e+00
   N2a  TC5e  1 3.950000e-01    1.850000e+00
   N2a  TC4e  1 3.950000e-01    1.850000e+00
   N2a  TC3e  1 3.950000e-01    1.850000e+00
   N2a  TC2e  1 3.950000e-01    1.670000e+00
   N2a  TC1e  1 3.980000e-01    1.450000e+00
   N2a  TX4e  1 3.950000e-01    2.310000e+00
   N2a  TX3e  1 3.950000e-01    2.110000e+00
   N2a  TX2e  1 3.950000e-01    1.850000e+00
   N2a  TX1e  1 3.950000e-01    1.850000e+00
   N1a  TC6e  1 3.950000e-01    2.310000e+00
   N1a  TC5e  1 3.950000e-01    2.110000e+00
   N1a  TC4e  1 3.950000e-01    2.110000e+00
   N1a  TC3e  1 3.950000e-01    1.850000e+00
   N1a  TC2e  1 3.950000e-01    1.670000e+00
   N1a  TC1e  1 3.980000e-01    1.450000e+00
   N1a  TX4e  1 3.950000e-01    2.110000e+00
   N1a  TX3e  1 3.950000e-01    2.110000e+00
   N1a  TX2e  1 3.950000e-01    1.850000e+00
   N1a  TX1e  1 3.950000e-01    1.850000e+00
   P6q  TP6d  1 3.950000e-01    4.870000e+00
   P6q  TN1d  1 3.950000e-01    2.110000e+00
   P6q  TN2d  1 3.950000e-01    2.310000e+00
   P6q  TN3d  1 3.950000e-01    2.500000e+00
   P6q  TN4d  1 3.950000e-01    2.700000e+00
   P6q  TN5d  1 3.950000e-01    2.940000e+00
   P6q  TN6d  1 3.950000e-01    3.430000e+00
   P6q  TP1d  1 3.950000e-01    3.670000e+00
   P6q  TP2d  1 3.950000e-01    3.910000e+00
   P6q  TP3d  1 3.950000e-01    3.910000e+00
   P6q  TP4d  1 3.950000e-01    4.230000e+00
   P6q  TP5d  1 3.950000e-01    4.540000e+00
   P6q  TP6a  1 3.950000e-01    4.870000e+00
   P6q  TN1a  1 3.950000e-01    2.110000e+00
   P6q  TN2a  1 3.950000e-01    2.310000e+00
   P6q  TN3a  1 3.950000e-01    2.500000e+00
   P6q  TN4a  1 3.950000e-01    2.700000e+00
   P6q  TN5a  1 3.950000e-01    2.940000e+00
   P6q  TN6a  1 3.950000e-01    3.430000e+00
   P6q  TP1a  1 3.950000e-01    3.670000e+00
   P6q  TP2a  1 3.950000e-01    3.910000e+00
   P6q  TP3a  1 3.950000e-01    3.910000e+00
   P6q  TP4a  1 3.950000e-01    4.230000e+00
   P6q  TP5a  1 3.950000e-01    4.540000e+00
   P6q  TC6v  1 3.950000e-01    2.310000e+00
   P6q  TC5v  1 3.950000e-01    2.110000e+00
   P6q  TC4v  1 3.950000e-01    1.850000e+00
   P6q  TC3v  1 3.950000e-01    1.670000e+00
   P6q  TC2v  1 3.950000e-01    1.670000e+00
   P6q  TC1v  1 3.990000e-01    1.180000e+00
   P6q  TX4v  1 3.950000e-01    2.500000e+00
   P6q  TX3v  1 3.950000e-01    2.500000e+00
   P6q  TX2v  1 3.950000e-01    2.310000e+00
   P6q  TX1v  1 3.950000e-01    2.110000e+00
   P6q  TC6e  1 3.950000e-01    2.310000e+00
   P6q  TC5e  1 3.950000e-01    2.110000e+00
   P6q  TC4e  1 3.950000e-01    1.850000e+00
   P6q  TC3e  1 3.950000e-01    1.670000e+00
   P6q  TC2e  1 3.950000e-01    1.670000e+00
   P6q  TC1e  1 3.990000e-01    1.180000e+00
   P6q  TX4e  1 3.950000e-01    2.500000e+00
   P6q  TX3e  1 3.950000e-01    2.500000e+00
   P6q  TX2e  1 3.950000e-01    2.310000e+00
   P6q  TX1e  1 3.950000e-01    2.110000e+00
   P6d  TP5q  1 3.950000e-01    4.540000e+00
   P5q  TP5d  1 3.950000e-01    4.230000e+00
   P5q  TN1d  1 3.950000e-01    2.110000e+00
   P5q  TN2d  1 3.950000e-01    2.310000e+00
   P5q  TN3d  1 3.950000e-01    2.500000e+00
   P5q  TN4d  1 3.950000e-01    2.940000e+00
   P5q  TN5d  1 3.950000e-01    2.940000e+00
   P5q  TN6d  1 3.950000e-01    3.190000e+00
   P5q  TP1d  1 3.950000e-01    3.430000e+00
   P5q  TP2d  1 3.950000e-01    3.670000e+00
   P5q  TP3d  1 3.950000e-01    3.670000e+00
   P5q  TP4d  1 3.950000e-01    3.910000e+00
   P6a  TP5q  1 3.950000e-01    4.540000e+00
   P5q  TP5a  1 3.950000e-01    4.230000e+00
   P5q  TN1a  1 3.950000e-01    2.110000e+00
   P5q  TN2a  1 3.950000e-01    2.310000e+00
   P5q  TN3a  1 3.950000e-01    2.500000e+00
   P5q  TN4a  1 3.950000e-01    2.940000e+00
   P5q  TN5a  1 3.950000e-01    2.940000e+00
   P5q  TN6a  1 3.950000e-01    3.190000e+00
   P5q  TP1a  1 3.950000e-01    3.430000e+00
   P5q  TP2a  1 3.950000e-01    3.670000e+00
   P5q  TP3a  1 3.950000e-01    3.670000e+00
   P5q  TP4a  1 3.950000e-01    3.910000e+00
   P5q  TC6v  1 3.950000e-01    2.310000e+00
   P5q  TC5v  1 3.950000e-01    2.310000e+00
   P5q  TC4v  1 3.950000e-01    2.110000e+00
   P5q  TC3v  1 3.950000e-01    1.850000e+00
   P5q  TC2v  1 3.950000e-01    1.850000e+00
   P5q  TC1v  1 3.950000e-01    1.670000e+00
   P5q  TX4v  1 3.950000e-01    2.700000e+00
   P5q  TX3v  1 3.950000e-01    2.500000e+00
   P5q  TX2v  1 3.950000e-01    2.500000e+00
   P5q  TX1v  1 3.950000e-01    2.110000e+00
   P5q  TC6e  1 3.950000e-01    2.310000e+00
   P5q  TC5e  1 3.950000e-01    2.310000e+00
   P5q  TC4e  1 3.950000e-01    2.110000e+00
   P5q  TC3e  1 3.950000e-01    1.850000e+00
   P5q  TC2e  1 3.950000e-01    1.850000e+00
   P5q  TC1e  1 3.950000e-01    1.670000e+00
   P5q  TX4e  1 3.950000e-01    2.700000e+00
   P5q  TX3e  1 3.950000e-01    2.500000e+00
   P5q  TX2e  1 3.950000e-01    2.500000e+00
   P5q  TX1e  1 3.950000e-01    2.110000e+00
   P6d  TP4q  1 3.950000e-01    4.230000e+00
   P5d  TP4q  1 3.950000e-01    3.910000e+00
   P4q  TP4d  1 3.950000e-01    3.910000e+00
   P4q  TN1d  1 3.950000e-01    2.310000e+00
   P4q  TN2d  1 3.950000e-01    2.500000e+00
   P4q  TN3d  1 3.950000e-01    2.700000e+00
   P4q  TN4d  1 3.950000e-01    2.940000e+00
   P4q  TN5d  1 3.950000e-01    2.940000e+00
   P4q  TN6d  1 3.950000e-01    3.190000e+00
   P4q  TP1d  1 3.950000e-01    3.430000e+00
   P4q  TP2d  1 3.950000e-01    3.670000e+00
   P4q  TP3d  1 3.950000e-01    3.670000e+00
   P6a  TP4q  1 3.950000e-01    4.230000e+00
   P5a  TP4q  1 3.950000e-01    3.910000e+00
   P4q  TP4a  1 3.950000e-01    3.910000e+00
   P4q  TN1a  1 3.950000e-01    2.310000e+00
   P4q  TN2a  1 3.950000e-01    2.500000e+00
   P4q  TN3a  1 3.950000e-01    2.700000e+00
   P4q  TN4a  1 3.950000e-01    2.940000e+00
   P4q  TN5a  1 3.950000e-01    2.940000e+00
   P4q  TN6a  1 3.950000e-01    3.190000e+00
   P4q  TP1a  1 3.950000e-01    3.430000e+00
   P4q  TP2a  1 3.950000e-01    3.670000e+00
   P4q  TP3a  1 3.950000e-01    3.670000e+00
   P4q  TC6v  1 3.950000e-01    2.500000e+00
   P4q  TC5v  1 3.950000e-01    2.310000e+00
   P4q  TC4v  1 3.950000e-01    2.110000e+00
   P4q  TC3v  1 3.950000e-01    1.850000e+00
   P4q  TC2v  1 3.950000e-01    1.850000e+00
   P4q  TC1v  1 3.950000e-01    1.670000e+00
   P4q  TX4v  1 3.950000e-01    2.700000e+00
   P4q  TX3v  1 3.950000e-01    2.500000e+00
   P4q  TX2v  1 3.950000e-01    2.500000e+00
   P4q  TX1v  1 3.950000e-01    2.310000e+00
   P4q  TC6e  1 3.950000e-01    2.500000e+00
   P4q  TC5e  1 3.950000e-01    2.310000e+00
   P4q  TC4e  1 3.950000e-01    2.110000e+00
   P4q  TC3e  1 3.950000e-01    1.850000e+00
   P4q  TC2e  1 3.950000e-01    1.850000e+00
   P4q  TC1e  1 3.950000e-01    1.670000e+00
   P4q  TX4e  1 3.950000e-01    2.700000e+00
   P4q  TX3e  1 3.950000e-01    2.500000e+00
   P4q  TX2e  1 3.950000e-01    2.500000e+00
   P4q  TX1e  1 3.950000e-01    2.310000e+00
   P6d  TP3q  1 3.950000e-01    3.910000e+00
   P5d  TP3q  1 3.950000e-01    3.670000e+00
   P4d  TP3q  1 3.950000e-01    3.670000e+00
   P3q  TP3d  1 3.950000e-01    3.670000e+00
   P3q  TN1d  1 3.950000e-01    2.500000e+00
   P3q  TN2d  1 3.950000e-01    2.700000e+00
   P3q  TN3d  1 3.950000e-01    2.700000e+00
   P3q  TN4d  1 3.950000e-01    2.940000e+00
   P3q  TN5d  1 3.950000e-01    2.940000e+00
   P3q  TN6d  1 3.950000e-01    3.190000e+00
   P3q  TP1d  1 3.950000e-01    3.430000e+00
   P3q  TP2d  1 3.950000e-01    3.670000e+00
   P6a  TP3q  1 3.950000e-01    3.910000e+00
   P5a  TP3q  1 3.950000e-01    3.670000e+00
   P4a  TP3q  1 3.950000e-01    3.670000e+00
   P3q  TP3a  1 3.950000e-01    3.670000e+00
   P3q  TN1a  1 3.950000e-01    2.500000e+00
   P3q  TN2a  1 3.950000e-01    2.700000e+00
   P3q  TN3a  1 3.950000e-01    2.700000e+00
   P3q  TN4a  1 3.950000e-01    2.940000e+00
   P3q  TN5a  1 3.950000e-01    2.940000e+00
   P3q  TN6a  1 3.950000e-01    3.190000e+00
   P3q  TP1a  1 3.950000e-01    3.430000e+00
   P3q  TP2a  1 3.950000e-01    3.670000e+00
   P3q  TC6v  1 3.950000e-01    2.700000e+00
   P3q  TC5v  1 3.950000e-01    2.500000e+00
   P3q  TC4v  1 3.950000e-01    2.310000e+00
   P3q  TC3v  1 3.950000e-01    1.850000e+00
   P3q  TC2v  1 3.950000e-01    1.850000e+00
   P3q  TC1v  1 3.950000e-01    1.670000e+00
   P3q  TX4v  1 3.950000e-01    2.700000e+00
   P3q  TX3v  1 3.950000e-01    2.700000e+00
   P3q  TX2v  1 3.950000e-01    2.500000e+00
   P3q  TX1v  1 3.950000e-01    2.310000e+00
   P3q  TC6e  1 3.950000e-01    2.700000e+00
   P3q  TC5e  1 3.950000e-01    2.500000e+00
   P3q  TC4e  1 3.950000e-01    2.310000e+00
   P3q  TC3e  1 3.950000e-01    1.850000e+00
   P3q  TC2e  1 3.950000e-01    1.850000e+00
   P3q  TC1e  1 3.950000e-01    1.670000e+00
   P3q  TX4e  1 3.950000e-01    2.700000e+00
   P3q  TX3e  1 3.950000e-01    2.700000e+00
   P3q  TX2e  1 3.950000e-01    2.500000e+00
   P3q  TX1e  1 3.950000e-01    2.310000e+00
   P6d  TP2q  1 3.950000e-01    3.910000e+00
   P5d  TP2q  1 3.950000e-01    3.670000e+00
   P4d  TP2q  1 3.950000e-01    3.670000e+00
   P3d  TP2q  1 3.950000e-01    3.670000e+00
   P2q  TP2d  1 3.950000e-01    3.670000e+00
   P2q  TN1d  1 3.950000e-01    2.700000e+00
   P2q  TN2d  1 3.950000e-01    2.700000e+00
   P2q  TN3d  1 3.950000e-01    2.700000e+00
   P2q  TN4d  1 3.950000e-01    2.940000e+00
   P2q  TN5d  1 3.950000e-01    3.190000e+00
   P2q  TN6d  1 3.950000e-01    3.430000e+00
   P2q  TP1d  1 3.950000e-01    3.430000e+00
   P6a  TP2q  1 3.950000e-01    3.910000e+00
   P5a  TP2q  1 3.950000e-01    3.670000e+00
   P4a  TP2q  1 3.950000e-01    3.670000e+00
   P3a  TP2q  1 3.950000e-01    3.670000e+00
   P2q  TP2a  1 3.950000e-01    3.670000e+00
   P2q  TN1a  1 3.950000e-01    2.700000e+00
   P2q  TN2a  1 3.950000e-01    2.700000e+00
   P2q  TN3a  1 3.950000e-01    2.700000e+00
   P2q  TN4a  1 3.950000e-01    2.940000e+00
   P2q  TN5a  1 3.950000e-01    3.190000e+00
   P2q  TN6a  1 3.950000e-01    3.430000e+00
   P2q  TP1a  1 3.950000e-01    3.430000e+00
   P2q  TC6v  1 3.950000e-01    2.700000e+00
   P2q  TC5v  1 3.950000e-01    2.500000e+00
   P2q  TC4v  1 3.950000e-01    2.310000e+00
   P2q  TC3v  1 3.950000e-01    2.110000e+00
   P2q  TC2v  1 3.950000e-01    2.110000e+00
   P2q  TC1v  1 3.950000e-01    1.850000e+00
   P2q  TX4v  1 3.950000e-01    2.700000e+00
   P2q  TX3v  1 3.950000e-01    2.700000e+00
   P2q  TX2v  1 3.950000e-01    2.500000e+00
   P2q  TX1v  1 3.950000e-01    2.310000e+00
   P2q  TC6e  1 3.950000e-01    2.700000e+00
   P2q  TC5e  1 3.950000e-01    2.500000e+00
   P2q  TC4e  1 3.950000e-01    2.310000e+00
   P2q  TC3e  1 3.950000e-01    2.110000e+00
   P2q  TC2e  1 3.950000e-01    2.110000e+00
   P2q  TC1e  1 3.950000e-01    1.850000e+00
   P2q  TX4e  1 3.950000e-01    2.700000e+00
   P2q  TX3e  1 3.950000e-01    2.700000e+00
   P2q  TX2e  1 3.950000e-01    2.500000e+00
   P2q  TX1e  1 3.950000e-01    2.310000e+00
   P6d  TP1q  1 3.950000e-01    3.670000e+00
   P5d  TP1q  1 3.950000e-01    3.430000e+00
   P4d  TP1q  1 3.950000e-01    3.430000e+00
   P3d  TP1q  1 3.950000e-01    3.430000e+00
   P2d  TP1q  1 3.950000e-01    3.430000e+00
   P1q  TP1d  1 3.950000e-01    3.430000e+00
   P1q  TN1d  1 3.950000e-01    2.700000e+00
   P1q  TN2d  1 3.950000e-01    2.700000e+00
   P1q  TN3d  1 3.950000e-01    2.700000e+00
   P1q  TN4d  1 3.950000e-01    3.190000e+00
   P1q  TN5d  1 3.950000e-01    3.190000e+00
   P1q  TN6d  1 3.950000e-01    3.430000e+00
   P6a  TP1q  1 3.950000e-01    3.670000e+00
   P5a  TP1q  1 3.950000e-01    3.430000e+00
   P4a  TP1q  1 3.950000e-01    3.430000e+00
   P3a  TP1q  1 3.950000e-01    3.430000e+00
   P2a  TP1q  1 3.950000e-01    3.430000e+00
   P1q  TP1a  1 3.950000e-01    3.430000e+00
   P1q  TN1a  1 3.950000e-01    2.700000e+00
   P1q  TN2a  1 3.950000e-01    2.700000e+00
   P1q  TN3a  1 3.950000e-01    2.700000e+00
   P1q  TN4a  1 3.950000e-01    3.190000e+00
   P1q  TN5a  1 3.950000e-01    3.190000e+00
   P1q  TN6a  1 3.950000e-01    3.430000e+00
   P1q  TC6v  1 3.950000e-01    2.700000e+00
   P1q  TC5v  1 3.950000e-01    2.500000e+00
   P1q  TC4v  1 3.950000e-01    2.310000e+00
   P1q  TC3v  1 3.950000e-01    2.110000e+00
   P1q  TC2v  1 3.950000e-01    2.110000e+00
   P1q  TC1v  1 3.950000e-01    1.850000e+00
   P1q  TX4v  1 3.950000e-01    2.700000e+00
   P1q  TX3v  1 3.950000e-01    2.700000e+00
   P1q  TX2v  1 3.950000e-01    2.500000e+00
   P1q  TX1v  1 3.950000e-01    2.310000e+00
   P1q  TC6e  1 3.950000e-01    2.700000e+00
   P1q  TC5e  1 3.950000e-01    2.500000e+00
   P1q  TC4e  1 3.950000e-01    2.310000e+00
   P1q  TC3e  1 3.950000e-01    2.110000e+00
   P1q  TC2e  1 3.950000e-01    2.110000e+00
   P1q  TC1e  1 3.950000e-01    1.850000e+00
   P1q  TX4e  1 3.950000e-01    2.700000e+00
   P1q  TX3e  1 3.950000e-01    2.700000e+00
   P1q  TX2e  1 3.950000e-01    2.500000e+00
   P1q  TX1e  1 3.950000e-01    2.310000e+00
   P6d  TN6q  1 3.950000e-01    3.430000e+00
   P5d  TN6q  1 3.950000e-01    3.190000e+00
   P4d  TN6q  1 3.950000e-01    3.190000e+00
   P3d  TN6q  1 3.950000e-01    3.190000e+00
   P2d  TN6q  1 3.950000e-01    3.430000e+00
   P1d  TN6q  1 3.950000e-01    3.430000e+00
   N6q  TN6d  1 3.950000e-01    3.430000e+00
   N6q  TN1d  1 3.950000e-01    2.700000e+00
   N6q  TN2d  1 3.950000e-01    2.700000e+00
   N6q  TN3d  1 3.950000e-01    2.940000e+00
   N6q  TN4d  1 3.950000e-01    3.430000e+00
   N6q  TN5d  1 3.950000e-01    3.430000e+00
   P6a  TN6q  1 3.950000e-01    3.430000e+00
   P5a  TN6q  1 3.950000e-01    3.190000e+00
   P4a  TN6q  1 3.950000e-01    3.190000e+00
   P3a  TN6q  1 3.950000e-01    3.190000e+00
   P2a  TN6q  1 3.950000e-01    3.430000e+00
   P1a  TN6q  1 3.950000e-01    3.430000e+00
   N6q  TN6a  1 3.950000e-01    3.430000e+00
   N6q  TN1a  1 3.950000e-01    2.700000e+00
   N6q  TN2a  1 3.950000e-01    2.700000e+00
   N6q  TN3a  1 3.950000e-01    2.940000e+00
   N6q  TN4a  1 3.950000e-01    3.430000e+00
   N6q  TN5a  1 3.950000e-01    3.430000e+00
   N6q  TC6v  1 3.950000e-01    2.940000e+00
   N6q  TC5v  1 3.950000e-01    2.700000e+00
   N6q  TC4v  1 3.950000e-01    2.500000e+00
   N6q  TC3v  1 3.950000e-01    2.310000e+00
   N6q  TC2v  1 3.950000e-01    2.310000e+00
   N6q  TC1v  1 3.950000e-01    2.110000e+00
   N6q  TX4v  1 3.950000e-01    2.940000e+00
   N6q  TX3v  1 3.950000e-01    2.700000e+00
   N6q  TX2v  1 3.950000e-01    2.500000e+00
   N6q  TX1v  1 3.950000e-01    2.310000e+00
   N6q  TC6e  1 3.950000e-01    2.940000e+00
   N6q  TC5e  1 3.950000e-01    2.700000e+00
   N6q  TC4e  1 3.950000e-01    2.500000e+00
   N6q  TC3e  1 3.950000e-01    2.310000e+00
   N6q  TC2e  1 3.950000e-01    2.310000e+00
   N6q  TC1e  1 3.950000e-01    2.110000e+00
   N6q  TX4e  1 3.950000e-01    2.940000e+00
   N6q  TX3e  1 3.950000e-01    2.700000e+00
   N6q  TX2e  1 3.950000e-01    2.500000e+00
   N6q  TX1e  1 3.950000e-01    2.310000e+00
   P6d  TN5q  1 3.950000e-01    2.940000e+00
   P5d  TN5q  1 3.950000e-01    2.940000e+00
   P4d  TN5q  1 3.950000e-01    2.940000e+00
   P3d  TN5q  1 3.950000e-01    2.940000e+00
   P2d  TN5q  1 3.950000e-01    3.190000e+00
   P1d  TN5q  1 3.950000e-01    3.190000e+00
   N6d  TN5q  1 3.950000e-01    3.430000e+00
   N5q  TN5d  1 3.950000e-01    3.190000e+00
   N5q  TN1d  1 3.950000e-01    2.700000e+00
   N5q  TN2d  1 3.950000e-01    2.940000e+00
   N5q  TN3d  1 3.950000e-01    2.940000e+00
   N5q  TN4d  1 3.950000e-01    3.190000e+00
   P6a  TN5q  1 3.950000e-01    2.940000e+00
   P5a  TN5q  1 3.950000e-01    2.940000e+00
   P4a  TN5q  1 3.950000e-01    2.940000e+00
   P3a  TN5q  1 3.950000e-01    2.940000e+00
   P2a  TN5q  1 3.950000e-01    3.190000e+00
   P1a  TN5q  1 3.950000e-01    3.190000e+00
   N6a  TN5q  1 3.950000e-01    3.430000e+00
   N5q  TN5a  1 3.950000e-01    3.190000e+00
   N5q  TN1a  1 3.950000e-01    2.700000e+00
   N5q  TN2a  1 3.950000e-01    2.940000e+00
   N5q  TN3a  1 3.950000e-01    2.940000e+00
   N5q  TN4a  1 3.950000e-01    3.190000e+00
   N5q  TC6v  1 3.950000e-01    2.940000e+00
   N5q  TC5v  1 3.950000e-01    2.700000e+00
   N5q  TC4v  1 3.950000e-01    2.500000e+00
   N5q  TC3v  1 3.950000e-01    2.500000e+00
   N5q  TC2v  1 3.950000e-01    2.310000e+00
   N5q  TC1v  1 3.950000e-01    2.110000e+00
   N5q  TX4v  1 3.950000e-01    3.190000e+00
   N5q  TX3v  1 3.950000e-01    2.940000e+00
   N5q  TX2v  1 3.950000e-01    2.700000e+00
   N5q  TX1v  1 3.950000e-01    2.500000e+00
   N5q  TC6e  1 3.950000e-01    2.940000e+00
   N5q  TC5e  1 3.950000e-01    2.700000e+00
   N5q  TC4e  1 3.950000e-01    2.500000e+00
   N5q  TC3e  1 3.950000e-01    2.500000e+00
   N5q  TC2e  1 3.950000e-01    2.310000e+00
   N5q  TC1e  1 3.950000e-01    2.110000e+00
   N5q  TX4e  1 3.950000e-01    3.190000e+00
   N5q  TX3e  1 3.950000e-01    2.940000e+00
   N5q  TX2e  1 3.950000e-01    2.700000e+00
   N5q  TX1e  1 3.950000e-01    2.500000e+00
   P6d  TN4q  1 3.950000e-01    2.700000e+00
   P5d  TN4q  1 3.950000e-01    2.940000e+00
   P4d  TN4q  1 3.950000e-01    2.940000e+00
   P3d  TN4q  1 3.950000e-01    2.940000e+00
   P2d  TN4q  1 3.950000e-01    2.940000e+00
   P1d  TN4q  1 3.950000e-01    3.190000e+00
   N6d  TN4q  1 3.950000e-01    3.430000e+00
   N5d  TN4q  1 3.950000e-01    3.190000e+00
   N4q  TN4d  1 3.950000e-01    3.190000e+00
   N4q  TN1d  1 3.950000e-01    2.700000e+00
   N4q  TN2d  1 3.950000e-01    2.940000e+00
   N4q  TN3d  1 3.950000e-01    2.940000e+00
   P6a  TN4q  1 3.950000e-01    2.700000e+00
   P5a  TN4q  1 3.950000e-01    2.940000e+00
   P4a  TN4q  1 3.950000e-01    2.940000e+00
   P3a  TN4q  1 3.950000e-01    2.940000e+00
   P2a  TN4q  1 3.950000e-01    2.940000e+00
   P1a  TN4q  1 3.950000e-01    3.190000e+00
   N6a  TN4q  1 3.950000e-01    3.430000e+00
   N5a  TN4q  1 3.950000e-01    3.190000e+00
   N4q  TN4a  1 3.950000e-01    3.190000e+00
   N4q  TN1a  1 3.950000e-01    2.700000e+00
   N4q  TN2a  1 3.950000e-01    2.940000e+00
   N4q  TN3a  1 3.950000e-01    2.940000e+00
   N4q  TC6v  1 3.950000e-01    2.940000e+00
   N4q  TC5v  1 3.950000e-01    2.700000e+00
   N4q  TC4v  1 3.950000e-01    2.700000e+00
   N4q  TC3v  1 3.950000e-01    2.500000e+00
   N4q  TC2v  1 3.950000e-01    2.310000e+00
   N4q  TC1v  1 3.950000e-01    2.110000e+00
   N4q  TX4v  1 3.950000e-01    3.430000e+00
   N4q  TX3v  1 3.950000e-01    3.190000e+00
   N4q  TX2v  1 3.950000e-01    2.700000e+00
   N4q  TX1v  1 3.950000e-01    2.500000e+00
   N4q  TC6e  1 3.950000e-01    2.940000e+00
   N4q  TC5e  1 3.950000e-01    2.700000e+00
   N4q  TC4e  1 3.950000e-01    2.700000e+00
   N4q  TC3e  1 3.950000e-01    2.500000e+00
   N4q  TC2e  1 3.950000e-01    2.310000e+00
   N4q  TC1e  1 3.950000e-01    2.110000e+00
   N4q  TX4e  1 3.950000e-01    3.430000e+00
   N4q  TX3e  1 3.950000e-01    3.190000e+00
   N4q  TX2e  1 3.950000e-01    2.700000e+00
   N4q  TX1e  1 3.950000e-01    2.500000e+00
   P6d  TN3q  1 3.950000e-01    2.500000e+00
   P5d  TN3q  1 3.950000e-01    2.500000e+00
   P4d  TN3q  1 3.950000e-01    2.700000e+00
   P3d  TN3q  1 3.950000e-01    2.700000e+00
   P2d  TN3q  1 3.950000e-01    2.700000e+00
   P1d  TN3q  1 3.950000e-01    2.700000e+00
   N6d  TN3q  1 3.950000e-01    2.940000e+00
   N5d  TN3q  1 3.950000e-01    2.940000e+00
   N4d  TN3q  1 3.950000e-01    2.940000e+00
   N3q  TN3d  1 3.950000e-01    2.940000e+00
   N3q  TN1d  1 3.950000e-01    2.700000e+00
   N3q  TN2d  1 3.950000e-01    2.940000e+00
   P6a  TN3q  1 3.950000e-01    2.500000e+00
   P5a  TN3q  1 3.950000e-01    2.500000e+00
   P4a  TN3q  1 3.950000e-01    2.700000e+00
   P3a  TN3q  1 3.950000e-01    2.700000e+00
   P2a  TN3q  1 3.950000e-01    2.700000e+00
   P1a  TN3q  1 3.950000e-01    2.700000e+00
   N6a  TN3q  1 3.950000e-01    2.940000e+00
   N5a  TN3q  1 3.950000e-01    2.940000e+00
   N4a  TN3q  1 3.950000e-01    2.940000e+00
   N3q  TN3a  1 3.950000e-01    2.940000e+00
   N3q  TN1a  1 3.950000e-01    2.700000e+00
   N3q  TN2a  1 3.950000e-01    2.940000e+00
   N3q  TC6v  1 3.950000e-01    2.940000e+00
   N3q  TC5v  1 3.950000e-01    2.700000e+00
   N3q  TC4v  1 3.950000e-01    2.700000e+00
   N3q  TC3v  1 3.950000e-01    2.500000e+00
   N3q  TC2v  1 3.950000e-01    2.500000e+00
   N3q  TC1v  1 3.950000e-01    2.310000e+00
   N3q  TX4v  1 3.950000e-01    3.190000e+00
   N3q  TX3v  1 3.950000e-01    2.940000e+00
   N3q  TX2v  1 3.950000e-01    2.700000e+00
   N3q  TX1v  1 3.950000e-01    2.700000e+00
   N3q  TC6e  1 3.950000e-01    2.940000e+00
   N3q  TC5e  1 3.950000e-01    2.700000e+00
   N3q  TC4e  1 3.950000e-01    2.700000e+00
   N3q  TC3e  1 3.950000e-01    2.500000e+00
   N3q  TC2e  1 3.950000e-01    2.500000e+00
   N3q  TC1e  1 3.950000e-01    2.310000e+00
   N3q  TX4e  1 3.950000e-01    3.190000e+00
   N3q  TX3e  1 3.950000e-01    2.940000e+00
   N3q  TX2e  1 3.950000e-01    2.700000e+00
   N3q  TX1e  1 3.950000e-01    2.700000e+00
   P6d  TN2q  1 3.950000e-01    2.310000e+00
   P5d  TN2q  1 3.950000e-01    2.310000e+00
   P4d  TN2q  1 3.950000e-01    2.500000e+00
   P3d  TN2q  1 3.950000e-01    2.700000e+00
   P2d  TN2q  1 3.950000e-01    2.700000e+00
   P1d  TN2q  1 3.950000e-01    2.700000e+00
   N6d  TN2q  1 3.950000e-01    2.700000e+00
   N5d  TN2q  1 3.950000e-01    2.940000e+00
   N4d  TN2q  1 3.950000e-01    2.940000e+00
   N3d  TN2q  1 3.950000e-01    2.940000e+00
   N2q  TN2d  1 3.950000e-01    2.940000e+00
   N2q  TN1d  1 3.950000e-01    2.700000e+00
   P6a  TN2q  1 3.950000e-01    2.310000e+00
   P5a  TN2q  1 3.950000e-01    2.310000e+00
   P4a  TN2q  1 3.950000e-01    2.500000e+00
   P3a  TN2q  1 3.950000e-01    2.700000e+00
   P2a  TN2q  1 3.950000e-01    2.700000e+00
   P1a  TN2q  1 3.950000e-01    2.700000e+00
   N6a  TN2q  1 3.950000e-01    2.700000e+00
   N5a  TN2q  1 3.950000e-01    2.940000e+00
   N4a  TN2q  1 3.950000e-01    2.940000e+00
   N3a  TN2q  1 3.950000e-01    2.940000e+00
   N2q  TN2a  1 3.950000e-01    2.940000e+00
   N2q  TN1a  1 3.950000e-01    2.700000e+00
   N2q  TC6v  1 3.950000e-01    2.940000e+00
   N2q  TC5v  1 3.950000e-01    2.700000e+00
   N2q  TC4v  1 3.950000e-01    2.700000e+00
   N2q  TC3v  1 3.950000e-01    2.700000e+00
   N2q  TC2v  1 3.950000e-01    2.500000e+00
   N2q  TC1v  1 3.950000e-01    2.310000e+00
   N2q  TX4v  1 3.950000e-01    3.190000e+00
   N2q  TX3v  1 3.950000e-01    2.940000e+00
   N2q  TX2v  1 3.950000e-01    2.700000e+00
   N2q  TX1v  1 3.950000e-01    2.700000e+00
   N2q  TC6e  1 3.950000e-01    2.940000e+00
   N2q  TC5e  1 3.950000e-01    2.700000e+00
   N2q  TC4e  1 3.950000e-01    2.700000e+00
   N2q  TC3e  1 3.950000e-01    2.700000e+00
   N2q  TC2e  1 3.950000e-01    2.500000e+00
   N2q  TC1e  1 3.950000e-01    2.310000e+00
   N2q  TX4e  1 3.950000e-01    3.190000e+00
   N2q  TX3e  1 3.950000e-01    2.940000e+00
   N2q  TX2e  1 3.950000e-01    2.700000e+00
   N2q  TX1e  1 3.950000e-01    2.700000e+00
   P6d  TN1q  1 3.950000e-01    2.110000e+00
   P5d  TN1q  1 3.950000e-01    2.110000e+00
   P4d  TN1q  1 3.950000e-01    2.310000e+00
   P3d  TN1q  1 3.950000e-01    2.500000e+00
   P2d  TN1q  1 3.950000e-01    2.700000e+00
   P1d  TN1q  1 3.950000e-01    2.700000e+00
   N6d  TN1q  1 3.950000e-01    2.700000e+00
   N5d  TN1q  1 3.950000e-01    2.700000e+00
   N4d  TN1q  1 3.950000e-01    2.700000e+00
   N3d  TN1q  1 3.950000e-01    2.700000e+00
   N2d  TN1q  1 3.950000e-01    2.700000e+00
   N1q  TN1d  1 3.950000e-01    2.940000e+00
   P6a  TN1q  1 3.950000e-01    2.110000e+00
   P5a  TN1q  1 3.950000e-01    2.110000e+00
   P4a  TN1q  1 3.950000e-01    2.310000e+00
   P3a  TN1q  1 3.950000e-01    2.500000e+00
   P2a  TN1q  1 3.950000e-01    2.700000e+00
   P1a  TN1q  1 3.950000e-01    2.700000e+00
   N6a  TN1q  1 3.950000e-01    2.700000e+00
   N5a  TN1q  1 3.950000e-01    2.700000e+00
   N4a  TN1q  1 3.950000e-01    2.700000e+00
   N3a  TN1q  1 3.950000e-01    2.700000e+00
   N2a  TN1q  1 3.950000e-01    2.700000e+00
   N1q  TN1a  1 3.950000e-01    2.940000e+00
   N1q  TC6v  1 3.950000e-01    3.190000e+00
   N1q  TC5v  1 3.950000e-01    2.940000e+00
   N1q  TC4v  1 3.950000e-01    2.940000e+00
   N1q  TC3v  1 3.950000e-01    2.700000e+00
   N1q  TC2v  1 3.950000e-01    2.500000e+00
   N1q  TC1v  1 3.950000e-01    2.310000e+00
   N1q  TX4v  1 3.950000e-01    2.940000e+00
   N1q  TX3v  1 3.950000e-01    2.940000e+00
   N1q  TX2v  1 3.950000e-01    2.700000e+00
   N1q  TX1v  1 3.950000e-01    2.700000e+00
   N1q  TC6e  1 3.950000e-01    3.190000e+00
   N1q  TC5e  1 3.950000e-01    2.940000e+00
   N1q  TC4e  1 3.950000e-01    2.940000e+00
   N1q  TC3e  1 3.950000e-01    2.700000e+00
   N1q  TC2e  1 3.950000e-01    2.500000e+00
   N1q  TC1e  1 3.950000e-01    2.310000e+00
   N1q  TX4e  1 3.950000e-01    2.940000e+00
   N1q  TX3e  1 3.950000e-01    2.940000e+00
   N1q  TX2e  1 3.950000e-01    2.700000e+00
   N1q  TX1e  1 3.950000e-01    2.700000e+00
   P6d  TC6q  1 3.950000e-01    2.110000e+00
   P5d  TC6q  1 3.950000e-01    2.110000e+00
   P4d  TC6q  1 3.950000e-01    2.310000e+00
   P3d  TC6q  1 3.950000e-01    2.500000e+00
   P2d  TC6q  1 3.950000e-01    2.500000e+00
   P1d  TC6q  1 3.950000e-01    2.500000e+00
   N6d  TC6q  1 3.950000e-01    2.700000e+00
   N5d  TC6q  1 3.950000e-01    2.700000e+00
   N4d  TC6q  1 3.950000e-01    2.700000e+00
   N3d  TC6q  1 3.950000e-01    2.700000e+00
   N2d  TC6q  1 3.950000e-01    2.700000e+00
   N1d  TC6q  1 3.950000e-01    2.940000e+00
   P6a  TC6q  1 3.950000e-01    2.110000e+00
   P5a  TC6q  1 3.950000e-01    2.110000e+00
   P4a  TC6q  1 3.950000e-01    2.310000e+00
   P3a  TC6q  1 3.950000e-01    2.500000e+00
   P2a  TC6q  1 3.950000e-01    2.500000e+00
   P1a  TC6q  1 3.950000e-01    2.500000e+00
   N6a  TC6q  1 3.950000e-01    2.700000e+00
   N5a  TC6q  1 3.950000e-01    2.700000e+00
   N4a  TC6q  1 3.950000e-01    2.700000e+00
   N3a  TC6q  1 3.950000e-01    2.700000e+00
   N2a  TC6q  1 3.950000e-01    2.700000e+00
   N1a  TC6q  1 3.950000e-01    2.940000e+00
   C6q  TC6v  1 3.950000e-01    3.190000e+00
   C6q  TX1v  1 3.950000e-01    2.940000e+00
   C6q  TX2v  1 3.950000e-01    2.940000e+00
   C6q  TX3v  1 3.950000e-01    2.940000e+00
   C6q  TX4v  1 3.950000e-01    2.940000e+00
   C6q  TC1v  1 3.950000e-01    2.310000e+00
   C6q  TC2v  1 3.950000e-01    2.500000e+00
   C6q  TC3v  1 3.950000e-01    2.700000e+00
   C6q  TC4v  1 3.950000e-01    2.940000e+00
   C6q  TC5v  1 3.950000e-01    2.940000e+00
   C6q  TC6e  1 3.950000e-01    3.190000e+00
   C6q  TX1e  1 3.950000e-01    2.940000e+00
   C6q  TX2e  1 3.950000e-01    2.940000e+00
   C6q  TX3e  1 3.950000e-01    2.940000e+00
   C6q  TX4e  1 3.950000e-01    2.940000e+00
   C6q  TC1e  1 3.950000e-01    2.310000e+00
   C6q  TC2e  1 3.950000e-01    2.500000e+00
   C6q  TC3e  1 3.950000e-01    2.700000e+00
   C6q  TC4e  1 3.950000e-01    2.940000e+00
   C6q  TC5e  1 3.950000e-01    2.940000e+00
   P6d  TC5q  1 3.950000e-01    1.850000e+00
   P5d  TC5q  1 3.950000e-01    2.110000e+00
   P4d  TC5q  1 3.950000e-01    2.110000e+00
   P3d  TC5q  1 3.950000e-01    2.310000e+00
   P2d  TC5q  1 3.950000e-01    2.310000e+00
   P1d  TC5q  1 3.950000e-01    2.310000e+00
   N6d  TC5q  1 3.950000e-01    2.500000e+00
   N5d  TC5q  1 3.950000e-01    2.500000e+00
   N4d  TC5q  1 3.950000e-01    2.500000e+00
   N3d  TC5q  1 3.950000e-01    2.500000e+00
   N2d  TC5q  1 3.950000e-01    2.500000e+00
   N1d  TC5q  1 3.950000e-01    2.700000e+00
   P6a  TC5q  1 3.950000e-01    1.850000e+00
   P5a  TC5q  1 3.950000e-01    2.110000e+00
   P4a  TC5q  1 3.950000e-01    2.110000e+00
   P3a  TC5q  1 3.950000e-01    2.310000e+00
   P2a  TC5q  1 3.950000e-01    2.310000e+00
   P1a  TC5q  1 3.950000e-01    2.310000e+00
   N6a  TC5q  1 3.950000e-01    2.500000e+00
   N5a  TC5q  1 3.950000e-01    2.500000e+00
   N4a  TC5q  1 3.950000e-01    2.500000e+00
   N3a  TC5q  1 3.950000e-01    2.500000e+00
   N2a  TC5q  1 3.950000e-01    2.500000e+00
   N1a  TC5q  1 3.950000e-01    2.700000e+00
   C6v  TC5q  1 3.950000e-01    2.940000e+00
   C5q  TC5v  1 3.950000e-01    2.940000e+00
   C5q  TX1v  1 3.950000e-01    2.940000e+00
   C5q  TX2v  1 3.950000e-01    2.700000e+00
   C5q  TX3v  1 3.950000e-01    2.700000e+00
   C5q  TX4v  1 3.950000e-01    2.700000e+00
   C5q  TC1v  1 3.950000e-01    2.500000e+00
   C5q  TC2v  1 3.950000e-01    2.500000e+00
   C5q  TC3v  1 3.950000e-01    2.700000e+00
   C5q  TC4v  1 3.950000e-01    2.940000e+00
   C6e  TC5q  1 3.950000e-01    2.940000e+00
   C5q  TC5e  1 3.950000e-01    2.940000e+00
   C5q  TX1e  1 3.950000e-01    2.940000e+00
   C5q  TX2e  1 3.950000e-01    2.700000e+00
   C5q  TX3e  1 3.950000e-01    2.700000e+00
   C5q  TX4e  1 3.950000e-01    2.700000e+00
   C5q  TC1e  1 3.950000e-01    2.500000e+00
   C5q  TC2e  1 3.950000e-01    2.500000e+00
   C5q  TC3e  1 3.950000e-01    2.700000e+00
   C5q  TC4e  1 3.950000e-01    2.940000e+00
   P6d  TC4q  1 3.950000e-01    1.670000e+00
   P5d  TC4q  1 3.950000e-01    1.850000e+00
   P4d  TC4q  1 3.950000e-01    1.850000e+00
   P3d  TC4q  1 3.950000e-01    2.110000e+00
   P2d  TC4q  1 3.950000e-01    2.110000e+00
   P1d  TC4q  1 3.950000e-01    2.110000e+00
   N6d  TC4q  1 3.950000e-01    2.310000e+00
   N5d  TC4q  1 3.950000e-01    2.310000e+00
   N4d  TC4q  1 3.950000e-01    2.500000e+00
   N3d  TC4q  1 3.950000e-01    2.500000e+00
   N2d  TC4q  1 3.950000e-01    2.500000e+00
   N1d  TC4q  1 3.950000e-01    2.700000e+00
   P6a  TC4q  1 3.950000e-01    1.670000e+00
   P5a  TC4q  1 3.950000e-01    1.850000e+00
   P4a  TC4q  1 3.950000e-01    1.850000e+00
   P3a  TC4q  1 3.950000e-01    2.110000e+00
   P2a  TC4q  1 3.950000e-01    2.110000e+00
   P1a  TC4q  1 3.950000e-01    2.110000e+00
   N6a  TC4q  1 3.950000e-01    2.310000e+00
   N5a  TC4q  1 3.950000e-01    2.310000e+00
   N4a  TC4q  1 3.950000e-01    2.500000e+00
   N3a  TC4q  1 3.950000e-01    2.500000e+00
   N2a  TC4q  1 3.950000e-01    2.500000e+00
   N1a  TC4q  1 3.950000e-01    2.700000e+00
   C6v  TC4q  1 3.950000e-01    2.940000e+00
   C5v  TC4q  1 3.950000e-01    2.940000e+00
   C4q  TC4v  1 3.950000e-01    2.940000e+00
   C4q  TX1v  1 3.950000e-01    2.940000e+00
   C4q  TX2v  1 3.950000e-01    2.700000e+00
   C4q  TX3v  1 3.950000e-01    2.700000e+00
   C4q  TX4v  1 3.950000e-01    2.700000e+00
   C4q  TC1v  1 3.950000e-01    2.500000e+00
   C4q  TC2v  1 3.950000e-01    2.700000e+00
   C4q  TC3v  1 3.950000e-01    2.940000e+00
   C6e  TC4q  1 3.950000e-01    2.940000e+00
   C5e  TC4q  1 3.950000e-01    2.940000e+00
   C4q  TC4e  1 3.950000e-01    2.940000e+00
   C4q  TX1e  1 3.950000e-01    2.940000e+00
   C4q  TX2e  1 3.950000e-01    2.700000e+00
   C4q  TX3e  1 3.950000e-01    2.700000e+00
   C4q  TX4e  1 3.950000e-01    2.700000e+00
   C4q  TC1e  1 3.950000e-01    2.500000e+00
   C4q  TC2e  1 3.950000e-01    2.700000e+00
   C4q  TC3e  1 3.950000e-01    2.940000e+00
   P6d  TC3q  1 3.980000e-01    1.450000e+00
   P5d  TC3q  1 3.950000e-01    1.670000e+00
   P4d  TC3q  1 3.950000e-01    1.670000e+00
   P3d  TC3q  1 3.950000e-01    1.670000e+00
   P2d  TC3q  1 3.950000e-01    1.850000e+00
   P1d  TC3q  1 3.950000e-01    1.850000e+00
   N6d  TC3q  1 3.950000e-01    2.110000e+00
   N5d  TC3q  1 3.950000e-01    2.310000e+00
   N4d  TC3q  1 3.950000e-01    2.310000e+00
   N3d  TC3q  1 3.950000e-01    2.310000e+00
   N2d  TC3q  1 3.950000e-01    2.500000e+00
   N1d  TC3q  1 3.950000e-01    2.500000e+00
   P6a  TC3q  1 3.980000e-01    1.450000e+00
   P5a  TC3q  1 3.950000e-01    1.670000e+00
   P4a  TC3q  1 3.950000e-01    1.670000e+00
   P3a  TC3q  1 3.950000e-01    1.670000e+00
   P2a  TC3q  1 3.950000e-01    1.850000e+00
   P1a  TC3q  1 3.950000e-01    1.850000e+00
   N6a  TC3q  1 3.950000e-01    2.110000e+00
   N5a  TC3q  1 3.950000e-01    2.310000e+00
   N4a  TC3q  1 3.950000e-01    2.310000e+00
   N3a  TC3q  1 3.950000e-01    2.310000e+00
   N2a  TC3q  1 3.950000e-01    2.500000e+00
   N1a  TC3q  1 3.950000e-01    2.500000e+00
   C6v  TC3q  1 3.950000e-01    2.700000e+00
   C5v  TC3q  1 3.950000e-01    2.700000e+00
   C4v  TC3q  1 3.950000e-01    2.940000e+00
   C3q  TC3v  1 3.950000e-01    2.940000e+00
   C3q  TX1v  1 3.950000e-01    2.940000e+00
   C3q  TX2v  1 3.950000e-01    2.700000e+00
   C3q  TX3v  1 3.950000e-01    2.700000e+00
   C3q  TX4v  1 3.950000e-01    2.700000e+00
   C3q  TC1v  1 3.950000e-01    2.940000e+00
   C3q  TC2v  1 3.950000e-01    2.940000e+00
   C6e  TC3q  1 3.950000e-01    2.700000e+00
   C5e  TC3q  1 3.950000e-01    2.700000e+00
   C4e  TC3q  1 3.950000e-01    2.940000e+00
   C3q  TC3e  1 3.950000e-01    2.940000e+00
   C3q  TX1e  1 3.950000e-01    2.940000e+00
   C3q  TX2e  1 3.950000e-01    2.700000e+00
   C3q  TX3e  1 3.950000e-01    2.700000e+00
   C3q  TX4e  1 3.950000e-01    2.700000e+00
   C3q  TC1e  1 3.950000e-01    2.940000e+00
   C3q  TC2e  1 3.950000e-01    2.940000e+00
   P6d  TC2q  1 3.980000e-01    1.450000e+00
   P5d  TC2q  1 3.950000e-01    1.670000e+00
   P4d  TC2q  1 3.950000e-01    1.670000e+00
   P3d  TC2q  1 3.950000e-01    1.670000e+00
   P2d  TC2q  1 3.950000e-01    1.850000e+00
   P1d  TC2q  1 3.950000e-01    1.850000e+00
   N6d  TC2q  1 3.950000e-01    2.110000e+00
   N5d  TC2q  1 3.950000e-01    2.110000e+00
   N4d  TC2q  1 3.950000e-01    2.110000e+00
   N3d  TC2q  1 3.950000e-01    2.310000e+00
   N2d  TC2q  1 3.950000e-01    2.310000e+00
   N1d  TC2q  1 3.950000e-01    2.310000e+00
   P6a  TC2q  1 3.980000e-01    1.450000e+00
   P5a  TC2q  1 3.950000e-01    1.670000e+00
   P4a  TC2q  1 3.950000e-01    1.670000e+00
   P3a  TC2q  1 3.950000e-01    1.670000e+00
   P2a  TC2q  1 3.950000e-01    1.850000e+00
   P1a  TC2q  1 3.950000e-01    1.850000e+00
   N6a  TC2q  1 3.950000e-01    2.110000e+00
   N5a  TC2q  1 3.950000e-01    2.110000e+00
   N4a  TC2q  1 3.950000e-01    2.110000e+00
   N3a  TC2q  1 3.950000e-01    2.310000e+00
   N2a  TC2q  1 3.950000e-01    2.310000e+00
   N1a  TC2q  1 3.950000e-01    2.310000e+00
   C6v  TC2q  1 3.950000e-01    2.500000e+00
   C5v  TC2q  1 3.950000e-01    2.500000e+00
   C4v  TC2q  1 3.950000e-01    2.700000e+00
   C3v  TC2q  1 3.950000e-01    2.940000e+00
   C2q  TC2v  1 3.950000e-01    2.940000e+00
   C2q  TX1v  1 3.950000e-01    2.700000e+00
   C2q  TX2v  1 3.950000e-01    2.700000e+00
   C2q  TX3v  1 3.950000e-01    2.700000e+00
   C2q  TX4v  1 3.950000e-01    2.310000e+00
   C2q  TC1v  1 3.950000e-01    3.190000e+00
   C6e  TC2q  1 3.950000e-01    2.500000e+00
   C5e  TC2q  1 3.950000e-01    2.500000e+00
   C4e  TC2q  1 3.950000e-01    2.700000e+00
   C3e  TC2q  1 3.950000e-01    2.940000e+00
   C2q  TC2e  1 3.950000e-01    2.940000e+00
   C2q  TX1e  1 3.950000e-01    2.700000e+00
   C2q  TX2e  1 3.950000e-01    2.700000e+00
   C2q  TX3e  1 3.950000e-01    2.700000e+00
   C2q  TX4e  1 3.950000e-01    2.310000e+00
   C2q  TC1e  1 3.950000e-01    3.190000e+00
   P6d  TC1q  1 4.010000e-01    9.830000e-01
   P5d  TC1q  1 3.980000e-01    1.450000e+00
   P4d  TC1q  1 3.980000e-01    1.450000e+00
   P3d  TC1q  1 3.980000e-01    1.450000e+00
   P2d  TC1q  1 3.950000e-01    1.670000e+00
   P1d  TC1q  1 3.950000e-01    1.670000e+00
   N6d  TC1q  1 3.950000e-01    1.850000e+00
   N5d  TC1q  1 3.950000e-01    1.850000e+00
   N4d  TC1q  1 3.950000e-01    1.850000e+00
   N3d  TC1q  1 3.950000e-01    2.110000e+00
   N2d  TC1q  1 3.950000e-01    2.110000e+00
   N1d  TC1q  1 3.950000e-01    2.110000e+00
   P6a  TC1q  1 4.010000e-01    9.830000e-01
   P5a  TC1q  1 3.980000e-01    1.450000e+00
   P4a  TC1q  1 3.980000e-01    1.450000e+00
   P3a  TC1q  1 3.980000e-01    1.450000e+00
   P2a  TC1q  1 3.950000e-01    1.670000e+00
   P1a  TC1q  1 3.950000e-01    1.670000e+00
   N6a  TC1q  1 3.950000e-01    1.850000e+00
   N5a  TC1q  1 3.950000e-01    1.850000e+00
   N4a  TC1q  1 3.950000e-01    1.850000e+00
   N3a  TC1q  1 3.950000e-01    2.110000e+00
   N2a  TC1q  1 3.950000e-01    2.110000e+00
   N1a  TC1q  1 3.950000e-01    2.110000e+00
   C6v  TC1q  1 3.950000e-01    2.310000e+00
   C5v  TC1q  1 3.950000e-01    2.500000e+00
   C4v  TC1q  1 3.950000e-01    2.500000e+00
   C3v  TC1q  1 3.950000e-01    2.940000e+00
   C2v  TC1q  1 3.950000e-01    3.190000e+00
   C1q  TC1v  1 3.950000e-01    2.940000e+00
   C1q  TX1v  1 3.950000e-01    2.700000e+00
   C1q  TX2v  1 3.950000e-01    2.700000e+00
   C1q  TX3v  1 3.950000e-01    2.700000e+00
   C1q  TX4v  1 3.950000e-01    2.310000e+00
   C6e  TC1q  1 3.950000e-01    2.310000e+00
   C5e  TC1q  1 3.950000e-01    2.500000e+00
   C4e  TC1q  1 3.950000e-01    2.500000e+00
   C3e  TC1q  1 3.950000e-01    2.940000e+00
   C2e  TC1q  1 3.950000e-01    3.190000e+00
   C1q  TC1e  1 3.950000e-01    2.940000e+00
   C1q  TX1e  1 3.950000e-01    2.700000e+00
   C1q  TX2e  1 3.950000e-01    2.700000e+00
   C1q  TX3e  1 3.950000e-01    2.700000e+00
   C1q  TX4e  1 3.950000e-01    2.310000e+00
   P6d  TX4q  1 3.950000e-01    2.310000e+00
   P5d  TX4q  1 3.950000e-01    2.500000e+00
   P4d  TX4q  1 3.950000e-01    2.500000e+00
   P3d  TX4q  1 3.950000e-01    2.500000e+00
   P2d  TX4q  1 3.950000e-01    2.500000e+00
   P1d  TX4q  1 3.950000e-01    2.500000e+00
   N6d  TX4q  1 3.950000e-01    2.700000e+00
   N5d  TX4q  1 3.950000e-01    2.940000e+00
   N4d  TX4q  1 3.950000e-01    3.190000e+00
   N3d  TX4q  1 3.950000e-01    2.940000e+00
   N2d  TX4q  1 3.950000e-01    2.940000e+00
   N1d  TX4q  1 3.950000e-01    2.700000e+00
   P6a  TX4q  1 3.950000e-01    2.310000e+00
   P5a  TX4q  1 3.950000e-01    2.500000e+00
   P4a  TX4q  1 3.950000e-01    2.500000e+00
   P3a  TX4q  1 3.950000e-01    2.500000e+00
   P2a  TX4q  1 3.950000e-01    2.500000e+00
   P1a  TX4q  1 3.950000e-01    2.500000e+00
   N6a  TX4q  1 3.950000e-01    2.700000e+00
   N5a  TX4q  1 3.950000e-01    2.940000e+00
   N4a  TX4q  1 3.950000e-01    3.190000e+00
   N3a  TX4q  1 3.950000e-01    2.940000e+00
   N2a  TX4q  1 3.950000e-01    2.940000e+00
   N1a  TX4q  1 3.950000e-01    2.700000e+00
   C6v  TX4q  1 3.950000e-01    2.940000e+00
   C5v  TX4q  1 3.950000e-01    2.700000e+00
   C4v  TX4q  1 3.950000e-01    2.700000e+00
   C3v  TX4q  1 3.950000e-01    2.700000e+00
   C2v  TX4q  1 3.950000e-01    2.310000e+00
   C1v  TX4q  1 3.950000e-01    2.310000e+00
   X4q  TX4v  1 3.950000e-01    2.940000e+00
   X4q  TX1v  1 3.950000e-01    2.940000e+00
   X4q  TX2v  1 3.950000e-01    2.940000e+00
   X4q  TX3v  1 3.950000e-01    2.940000e+00
   C6e  TX4q  1 3.950000e-01    2.940000e+00
   C5e  TX4q  1 3.950000e-01    2.700000e+00
   C4e  TX4q  1 3.950000e-01    2.700000e+00
   C3e  TX4q  1 3.950000e-01    2.700000e+00
   C2e  TX4q  1 3.950000e-01    2.310000e+00
   C1e  TX4q  1 3.950000e-01    2.310000e+00
   X4q  TX4e  1 3.950000e-01    2.940000e+00
   X4q  TX1e  1 3.950000e-01    2.940000e+00
   X4q  TX2e  1 3.950000e-01    2.940000e+00
   X4q  TX3e  1 3.950000e-01    2.940000e+00
   P6d  TX3q  1 3.950000e-01    2.310000e+00
   P5d  TX3q  1 3.950000e-01    2.310000e+00
   P4d  TX3q  1 3.950000e-01    2.310000e+00
   P3d  TX3q  1 3.950000e-01    2.500000e+00
   P2d  TX3q  1 3.950000e-01    2.500000e+00
   P1d  TX3q  1 3.950000e-01    2.500000e+00
   N6d  TX3q  1 3.950000e-01    2.500000e+00
   N5d  TX3q  1 3.950000e-01    2.700000e+00
   N4d  TX3q  1 3.950000e-01    2.940000e+00
   N3d  TX3q  1 3.950000e-01    2.700000e+00
   N2d  TX3q  1 3.950000e-01    2.700000e+00
   N1d  TX3q  1 3.950000e-01    2.700000e+00
   P6a  TX3q  1 3.950000e-01    2.310000e+00
   P5a  TX3q  1 3.950000e-01    2.310000e+00
   P4a  TX3q  1 3.950000e-01    2.310000e+00
   P3a  TX3q  1 3.950000e-01    2.500000e+00
   P2a  TX3q  1 3.950000e-01    2.500000e+00
   P1a  TX3q  1 3.950000e-01    2.500000e+00
   N6a  TX3q  1 3.950000e-01    2.500000e+00
   N5a  TX3q  1 3.950000e-01    2.700000e+00
   N4a  TX3q  1 3.950000e-01    2.940000e+00
   N3a  TX3q  1 3.950000e-01    2.700000e+00
   N2a  TX3q  1 3.950000e-01    2.700000e+00
   N1a  TX3q  1 3.950000e-01    2.700000e+00
   C6v  TX3q  1 3.950000e-01    2.940000e+00
   C5v  TX3q  1 3.950000e-01    2.700000e+00
   C4v  TX3q  1 3.950000e-01    2.700000e+00
   C3v  TX3q  1 3.950000e-01    2.700000e+00
   C2v  TX3q  1 3.950000e-01    2.700000e+00
   C1v  TX3q  1 3.950000e-01    2.700000e+00
   X4v  TX3q  1 3.950000e-01    2.940000e+00
   X3q  TX3v  1 3.950000e-01    2.940000e+00
   X3q  TX1v  1 3.950000e-01    3.190000e+00
   X3q  TX2v  1 3.950000e-01    3.190000e+00
   C6e  TX3q  1 3.950000e-01    2.940000e+00
   C5e  TX3q  1 3.950000e-01    2.700000e+00
   C4e  TX3q  1 3.950000e-01    2.700000e+00
   C3e  TX3q  1 3.950000e-01    2.700000e+00
   C2e  TX3q  1 3.950000e-01    2.700000e+00
   C1e  TX3q  1 3.950000e-01    2.700000e+00
   X4e  TX3q  1 3.950000e-01    2.940000e+00
   X3q  TX3e  1 3.950000e-01    2.940000e+00
   X3q  TX1e  1 3.950000e-01    3.190000e+00
   X3q  TX2e  1 3.950000e-01    3.190000e+00
   P6d  TX2q  1 3.950000e-01    2.110000e+00
   P5d  TX2q  1 3.950000e-01    2.310000e+00
   P4d  TX2q  1 3.950000e-01    2.310000e+00
   P3d  TX2q  1 3.950000e-01    2.310000e+00
   P2d  TX2q  1 3.950000e-01    2.310000e+00
   P1d  TX2q  1 3.950000e-01    2.310000e+00
   N6d  TX2q  1 3.950000e-01    2.310000e+00
   N5d  TX2q  1 3.950000e-01    2.500000e+00
   N4d  TX2q  1 3.950000e-01    2.500000e+00
   N3d  TX2q  1 3.950000e-01    2.500000e+00
   N2d  TX2q  1 3.950000e-01    2.500000e+00
   N1d  TX2q  1 3.950000e-01    2.500000e+00
   P6a  TX2q  1 3.950000e-01    2.110000e+00
   P5a  TX2q  1 3.950000e-01    2.310000e+00
   P4a  TX2q  1 3.950000e-01    2.310000e+00
   P3a  TX2q  1 3.950000e-01    2.310000e+00
   P2a  TX2q  1 3.950000e-01    2.310000e+00
   P1a  TX2q  1 3.950000e-01    2.310000e+00
   N6a  TX2q  1 3.950000e-01    2.310000e+00
   N5a  TX2q  1 3.950000e-01    2.500000e+00
   N4a  TX2q  1 3.950000e-01    2.500000e+00
   N3a  TX2q  1 3.950000e-01    2.500000e+00
   N2a  TX2q  1 3.950000e-01    2.500000e+00
   N1a  TX2q  1 3.950000e-01    2.500000e+00
   C6v  TX2q  1 3.950000e-01    2.940000e+00
   C5v  TX2q  1 3.950000e-01    2.700000e+00
   C4v  TX2q  1 3.950000e-01    2.700000e+00
   C3v  TX2q  1 3.950000e-01    2.700000e+00
   C2v  TX2q  1 3.950000e-01    2.700000e+00
   C1v  TX2q  1 3.950000e-01    2.700000e+00
   X4v  TX2q  1 3.950000e-01    2.940000e+00
   X3v  TX2q  1 3.950000e-01    3.190000e+00
   X2q  TX2v  1 3.950000e-01    3.190000e+00
   X2q  TX1v  1 3.950000e-01    3.190000e+00
   C6e  TX2q  1 3.950000e-01    2.940000e+00
   C5e  TX2q  1 3.950000e-01    2.700000e+00
   C4e  TX2q  1 3.950000e-01    2.700000e+00
   C3e  TX2q  1 3.950000e-01    2.700000e+00
   C2e  TX2q  1 3.950000e-01    2.700000e+00
   C1e  TX2q  1 3.950000e-01    2.700000e+00
   X4e  TX2q  1 3.950000e-01    2.940000e+00
   X3e  TX2q  1 3.950000e-01    3.190000e+00
   X2q  TX2e  1 3.950000e-01    3.190000e+00
   X2q  TX1e  1 3.950000e-01    3.190000e+00
   P6d  TX1q  1 3.950000e-01    1.850000e+00
   P5d  TX1q  1 3.950000e-01    1.850000e+00
   P4d  TX1q  1 3.950000e-01    2.110000e+00
   P3d  TX1q  1 3.950000e-01    2.110000e+00
   P2d  TX1q  1 3.950000e-01    2.110000e+00
   P1d  TX1q  1 3.950000e-01    2.110000e+00
   N6d  TX1q  1 3.950000e-01    2.110000e+00
   N5d  TX1q  1 3.950000e-01    2.310000e+00
   N4d  TX1q  1 3.950000e-01    2.310000e+00
   N3d  TX1q  1 3.950000e-01    2.500000e+00
   N2d  TX1q  1 3.950000e-01    2.500000e+00
   N1d  TX1q  1 3.950000e-01    2.500000e+00
   P6a  TX1q  1 3.950000e-01    1.850000e+00
   P5a  TX1q  1 3.950000e-01    1.850000e+00
   P4a  TX1q  1 3.950000e-01    2.110000e+00
   P3a  TX1q  1 3.950000e-01    2.110000e+00
   P2a  TX1q  1 3.950000e-01    2.110000e+00
   P1a  TX1q  1 3.950000e-01    2.110000e+00
   N6a  TX1q  1 3.950000e-01    2.110000e+00
   N5a  TX1q  1 3.950000e-01    2.310000e+00
   N4a  TX1q  1 3.950000e-01    2.310000e+00
   N3a  TX1q  1 3.950000e-01    2.500000e+00
   N2a  TX1q  1 3.950000e-01    2.500000e+00
   N1a  TX1q  1 3.950000e-01    2.500000e+00
   C6v  TX1q  1 3.950000e-01    2.940000e+00
   C5v  TX1q  1 3.950000e-01    2.940000e+00
   C4v  TX1q  1 3.950000e-01    2.940000e+00
   C3v  TX1q  1 3.950000e-01    2.940000e+00
   C2v  TX1q  1 3.950000e-01    2.700000e+00
   C1v  TX1q  1 3.950000e-01    2.700000e+00
   X4v  TX1q  1 3.950000e-01    2.940000e+00
   X3v  TX1q  1 3.950000e-01    3.190000e+00
   X2v  TX1q  1 3.950000e-01    3.190000e+00
   X1q  TX1v  1 3.950000e-01    3.430000e+00
   C6e  TX1q  1 3.950000e-01    2.940000e+00
   C5e  TX1q  1 3.950000e-01    2.940000e+00
   C4e  TX1q  1 3.950000e-01    2.940000e+00
   C3e  TX1q  1 3.950000e-01    2.940000e+00
   C2e  TX1q  1 3.950000e-01    2.700000e+00
   C1e  TX1q  1 3.950000e-01    2.700000e+00
   X4e  TX1q  1 3.950000e-01    2.940000e+00
   X3e  TX1q  1 3.950000e-01    3.190000e+00
   X2e  TX1q  1 3.950000e-01    3.190000e+00
   X1q  TX1e  1 3.950000e-01    3.430000e+00
   P6d TP6dq  1 3.950000e-01    4.540000e+00
  P6dq  TP5d  1 3.950000e-01    4.230000e+00
  P6dq  TP4d  1 3.950000e-01    3.910000e+00
  P6dq  TP3d  1 3.950000e-01    3.670000e+00
  P6dq  TP2d  1 3.950000e-01    3.670000e+00
  P6dq  TP1d  1 3.950000e-01    3.430000e+00
  P6dq  TN6d  1 3.950000e-01    3.190000e+00
  P6dq  TN5d  1 3.950000e-01    2.700000e+00
  P6dq  TN4d  1 3.950000e-01    2.500000e+00
  P6dq  TN3d  1 3.950000e-01    2.500000e+00
  P6dq  TN2d  1 3.950000e-01    2.310000e+00
  P6dq  TN1d  1 3.950000e-01    2.110000e+00
  P6dq  TP6a  1 3.950000e-01    5.270000e+00
  P6dq  TP5a  1 3.950000e-01    4.870000e+00
  P6dq  TP4a  1 3.950000e-01    4.540000e+00
  P6dq  TP3a  1 3.950000e-01    4.230000e+00
  P6dq  TP2a  1 3.950000e-01    4.230000e+00
  P6dq  TP1a  1 3.950000e-01    3.910000e+00
  P6dq  TN6a  1 3.950000e-01    3.670000e+00
  P6dq  TN5a  1 3.950000e-01    3.190000e+00
  P6dq  TN4a  1 3.950000e-01    2.940000e+00
  P6dq  TN3a  1 3.950000e-01    2.500000e+00
  P6dq  TN2a  1 3.950000e-01    2.310000e+00
  P6dq  TN1a  1 3.950000e-01    2.110000e+00
  P6dq  TC6e  1 3.950000e-01    2.310000e+00
  P6dq  TC5e  1 3.950000e-01    2.110000e+00
  P6dq  TC4e  1 3.950000e-01    1.850000e+00
  P6dq  TC3e  1 3.950000e-01    1.670000e+00
  P6dq  TC2e  1 3.950000e-01    1.670000e+00
  P6dq  TC1e  1 3.990000e-01    1.180000e+00
  P6dq  TX4e  1 3.950000e-01    2.500000e+00
  P6dq  TX3e  1 3.950000e-01    2.500000e+00
  P6dq  TX2e  1 3.950000e-01    2.310000e+00
  P6dq  TX1e  1 3.950000e-01    2.110000e+00
  P6dq  TC6v  1 3.950000e-01    1.850000e+00
  P6dq  TC5v  1 3.950000e-01    1.670000e+00
  P6dq  TC4v  1 3.980000e-01    1.450000e+00
  P6dq  TC3v  1 3.990000e-01    1.180000e+00
  P6dq  TC2v  1 3.990000e-01    1.180000e+00
  P6dq  TC1v  1 4.040000e-01    8.300000e-01
  P6dq  TX4v  1 3.950000e-01    2.110000e+00
  P6dq  TX3v  1 3.950000e-01    2.110000e+00
  P6dq  TX2v  1 3.950000e-01    1.850000e+00
  P6dq  TX1v  1 3.950000e-01    1.670000e+00
   P5d TP5dq  1 3.950000e-01    3.910000e+00
  P5dq  TP4d  1 3.950000e-01    3.670000e+00
  P5dq  TP3d  1 3.950000e-01    3.430000e+00
  P5dq  TP2d  1 3.950000e-01    3.430000e+00
  P5dq  TP1d  1 3.950000e-01    3.190000e+00
  P5dq  TN6d  1 3.950000e-01    2.940000e+00
  P5dq  TN5d  1 3.950000e-01    2.700000e+00
  P5dq  TN4d  1 3.950000e-01    2.700000e+00
  P5dq  TN3d  1 3.950000e-01    2.500000e+00
  P5dq  TN2d  1 3.950000e-01    2.310000e+00
  P5dq  TN1d  1 3.950000e-01    2.110000e+00
   P6a TP5dq  1 3.950000e-01    4.870000e+00
  P5dq  TP5a  1 3.950000e-01    4.540000e+00
  P5dq  TP4a  1 3.950000e-01    4.230000e+00
  P5dq  TP3a  1 3.950000e-01    3.910000e+00
  P5dq  TP2a  1 3.950000e-01    3.910000e+00
  P5dq  TP1a  1 3.950000e-01    3.670000e+00
  P5dq  TN6a  1 3.950000e-01    3.430000e+00
  P5dq  TN5a  1 3.950000e-01    3.190000e+00
  P5dq  TN4a  1 3.950000e-01    3.190000e+00
  P5dq  TN3a  1 3.950000e-01    2.500000e+00
  P5dq  TN2a  1 3.950000e-01    2.310000e+00
  P5dq  TN1a  1 3.950000e-01    2.110000e+00
  P5dq  TC6e  1 3.950000e-01    2.310000e+00
  P5dq  TC5e  1 3.950000e-01    2.310000e+00
  P5dq  TC4e  1 3.950000e-01    2.110000e+00
  P5dq  TC3e  1 3.950000e-01    1.850000e+00
  P5dq  TC2e  1 3.950000e-01    1.850000e+00
  P5dq  TC1e  1 3.950000e-01    1.670000e+00
  P5dq  TX4e  1 3.950000e-01    2.700000e+00
  P5dq  TX3e  1 3.950000e-01    2.500000e+00
  P5dq  TX2e  1 3.950000e-01    2.500000e+00
  P5dq  TX1e  1 3.950000e-01    2.110000e+00
  P5dq  TC6v  1 3.950000e-01    1.850000e+00
  P5dq  TC5v  1 3.950000e-01    1.850000e+00
  P5dq  TC4v  1 3.950000e-01    1.670000e+00
  P5dq  TC3v  1 3.980000e-01    1.450000e+00
  P5dq  TC2v  1 3.980000e-01    1.450000e+00
  P5dq  TC1v  1 3.990000e-01    1.180000e+00
  P5dq  TX4v  1 3.950000e-01    2.310000e+00
  P5dq  TX3v  1 3.950000e-01    2.110000e+00
  P5dq  TX2v  1 3.950000e-01    2.110000e+00
  P5dq  TX1v  1 3.950000e-01    1.670000e+00
   P4d TP4dq  1 3.950000e-01    3.670000e+00
  P4dq  TP3d  1 3.950000e-01    3.430000e+00
  P4dq  TP2d  1 3.950000e-01    3.430000e+00
  P4dq  TP1d  1 3.950000e-01    3.190000e+00
  P4dq  TN6d  1 3.950000e-01    2.940000e+00
  P4dq  TN5d  1 3.950000e-01    2.700000e+00
  P4dq  TN4d  1 3.950000e-01    2.700000e+00
  P4dq  TN3d  1 3.950000e-01    2.500000e+00
  P4dq  TN2d  1 3.950000e-01    2.500000e+00
  P4dq  TN1d  1 3.950000e-01    2.310000e+00
   P6a TP4dq  1 3.950000e-01    4.540000e+00
   P5a TP4dq  1 3.950000e-01    4.230000e+00
  P4dq  TP4a  1 3.950000e-01    4.230000e+00
  P4dq  TP3a  1 3.950000e-01    3.910000e+00
  P4dq  TP2a  1 3.950000e-01    3.910000e+00
  P4dq  TP1a  1 3.950000e-01    3.670000e+00
  P4dq  TN6a  1 3.950000e-01    3.430000e+00
  P4dq  TN5a  1 3.950000e-01    3.190000e+00
  P4dq  TN4a  1 3.950000e-01    3.190000e+00
  P4dq  TN3a  1 3.950000e-01    2.940000e+00
  P4dq  TN2a  1 3.950000e-01    2.500000e+00
  P4dq  TN1a  1 3.950000e-01    2.310000e+00
  P4dq  TC6e  1 3.950000e-01    2.500000e+00
  P4dq  TC5e  1 3.950000e-01    2.310000e+00
  P4dq  TC4e  1 3.950000e-01    2.110000e+00
  P4dq  TC3e  1 3.950000e-01    1.850000e+00
  P4dq  TC2e  1 3.950000e-01    1.850000e+00
  P4dq  TC1e  1 3.950000e-01    1.670000e+00
  P4dq  TX4e  1 3.950000e-01    2.700000e+00
  P4dq  TX3e  1 3.950000e-01    2.500000e+00
  P4dq  TX2e  1 3.950000e-01    2.500000e+00
  P4dq  TX1e  1 3.950000e-01    2.310000e+00
  P4dq  TC6v  1 3.950000e-01    2.110000e+00
  P4dq  TC5v  1 3.950000e-01    1.850000e+00
  P4dq  TC4v  1 3.950000e-01    1.670000e+00
  P4dq  TC3v  1 3.980000e-01    1.450000e+00
  P4dq  TC2v  1 3.980000e-01    1.450000e+00
  P4dq  TC1v  1 3.990000e-01    1.180000e+00
  P4dq  TX4v  1 3.950000e-01    2.310000e+00
  P4dq  TX3v  1 3.950000e-01    2.110000e+00
  P4dq  TX2v  1 3.950000e-01    2.110000e+00
  P4dq  TX1v  1 3.950000e-01    1.850000e+00
   P3d TP3dq  1 3.950000e-01    3.430000e+00
  P3dq  TP2d  1 3.950000e-01    3.430000e+00
  P3dq  TP1d  1 3.950000e-01    3.190000e+00
  P3dq  TN6d  1 3.950000e-01    2.940000e+00
  P3dq  TN5d  1 3.950000e-01    2.700000e+00
  P3dq  TN4d  1 3.950000e-01    2.700000e+00
  P3dq  TN3d  1 3.950000e-01    2.500000e+00
  P3dq  TN2d  1 3.950000e-01    2.500000e+00
  P3dq  TN1d  1 3.950000e-01    2.500000e+00
   P6a TP3dq  1 3.950000e-01    4.230000e+00
   P5a TP3dq  1 3.950000e-01    3.910000e+00
   P4a TP3dq  1 3.950000e-01    3.910000e+00
  P3dq  TP3a  1 3.950000e-01    3.910000e+00
  P3dq  TP2a  1 3.950000e-01    3.910000e+00
  P3dq  TP1a  1 3.950000e-01    3.670000e+00
  P3dq  TN6a  1 3.950000e-01    3.430000e+00
  P3dq  TN5a  1 3.950000e-01    3.190000e+00
  P3dq  TN4a  1 3.950000e-01    3.190000e+00
  P3dq  TN3a  1 3.950000e-01    2.940000e+00
  P3dq  TN2a  1 3.950000e-01    2.940000e+00
  P3dq  TN1a  1 3.950000e-01    2.500000e+00
  P3dq  TC6e  1 3.950000e-01    2.700000e+00
  P3dq  TC5e  1 3.950000e-01    2.500000e+00
  P3dq  TC4e  1 3.950000e-01    2.310000e+00
  P3dq  TC3e  1 3.950000e-01    1.850000e+00
  P3dq  TC2e  1 3.950000e-01    1.850000e+00
  P3dq  TC1e  1 3.950000e-01    1.670000e+00
  P3dq  TX4e  1 3.950000e-01    2.700000e+00
  P3dq  TX3e  1 3.950000e-01    2.700000e+00
  P3dq  TX2e  1 3.950000e-01    2.500000e+00
  P3dq  TX1e  1 3.950000e-01    2.310000e+00
  P3dq  TC6v  1 3.950000e-01    2.310000e+00
  P3dq  TC5v  1 3.950000e-01    2.110000e+00
  P3dq  TC4v  1 3.950000e-01    1.850000e+00
  P3dq  TC3v  1 3.980000e-01    1.450000e+00
  P3dq  TC2v  1 3.980000e-01    1.450000e+00
  P3dq  TC1v  1 3.990000e-01    1.180000e+00
  P3dq  TX4v  1 3.950000e-01    2.310000e+00
  P3dq  TX3v  1 3.950000e-01    2.310000e+00
  P3dq  TX2v  1 3.950000e-01    2.110000e+00
  P3dq  TX1v  1 3.950000e-01    1.850000e+00
   P2d TP2dq  1 3.950000e-01    3.430000e+00
  P2dq  TP1d  1 3.950000e-01    3.190000e+00
  P2dq  TN6d  1 3.950000e-01    3.190000e+00
  P2dq  TN5d  1 3.950000e-01    2.940000e+00
  P2dq  TN4d  1 3.950000e-01    2.700000e+00
  P2dq  TN3d  1 3.950000e-01    2.500000e+00
  P2dq  TN2d  1 3.950000e-01    2.500000e+00
  P2dq  TN1d  1 3.950000e-01    2.500000e+00
   P6a TP2dq  1 3.950000e-01    4.230000e+00
   P5a TP2dq  1 3.950000e-01    3.910000e+00
   P4a TP2dq  1 3.950000e-01    3.910000e+00
   P3a TP2dq  1 3.950000e-01    3.910000e+00
  P2dq  TP2a  1 3.950000e-01    3.910000e+00
  P2dq  TP1a  1 3.950000e-01    3.670000e+00
  P2dq  TN6a  1 3.950000e-01    3.670000e+00
  P2dq  TN5a  1 3.950000e-01    3.430000e+00
  P2dq  TN4a  1 3.950000e-01    3.190000e+00
  P2dq  TN3a  1 3.950000e-01    2.940000e+00
  P2dq  TN2a  1 3.950000e-01    2.940000e+00
  P2dq  TN1a  1 3.950000e-01    2.940000e+00
  P2dq  TC6e  1 3.950000e-01    2.700000e+00
  P2dq  TC5e  1 3.950000e-01    2.500000e+00
  P2dq  TC4e  1 3.950000e-01    2.310000e+00
  P2dq  TC3e  1 3.950000e-01    2.110000e+00
  P2dq  TC2e  1 3.950000e-01    2.110000e+00
  P2dq  TC1e  1 3.950000e-01    1.850000e+00
  P2dq  TX4e  1 3.950000e-01    2.700000e+00
  P2dq  TX3e  1 3.950000e-01    2.700000e+00
  P2dq  TX2e  1 3.950000e-01    2.500000e+00
  P2dq  TX1e  1 3.950000e-01    2.310000e+00
  P2dq  TC6v  1 3.950000e-01    2.310000e+00
  P2dq  TC5v  1 3.950000e-01    2.110000e+00
  P2dq  TC4v  1 3.950000e-01    1.850000e+00
  P2dq  TC3v  1 3.950000e-01    1.670000e+00
  P2dq  TC2v  1 3.950000e-01    1.670000e+00
  P2dq  TC1v  1 3.980000e-01    1.450000e+00
  P2dq  TX4v  1 3.950000e-01    2.310000e+00
  P2dq  TX3v  1 3.950000e-01    2.310000e+00
  P2dq  TX2v  1 3.950000e-01    2.110000e+00
  P2dq  TX1v  1 3.950000e-01    1.850000e+00
   P1d TP1dq  1 3.950000e-01    3.190000e+00
  P1dq  TN6d  1 3.950000e-01    3.190000e+00
  P1dq  TN5d  1 3.950000e-01    2.940000e+00
  P1dq  TN4d  1 3.950000e-01    2.940000e+00
  P1dq  TN3d  1 3.950000e-01    2.500000e+00
  P1dq  TN2d  1 3.950000e-01    2.500000e+00
  P1dq  TN1d  1 3.950000e-01    2.500000e+00
   P6a TP1dq  1 3.950000e-01    3.910000e+00
   P5a TP1dq  1 3.950000e-01    3.670000e+00
   P4a TP1dq  1 3.950000e-01    3.670000e+00
   P3a TP1dq  1 3.950000e-01    3.670000e+00
   P2a TP1dq  1 3.950000e-01    3.670000e+00
  P1dq  TP1a  1 3.950000e-01    3.670000e+00
  P1dq  TN6a  1 3.950000e-01    3.670000e+00
  P1dq  TN5a  1 3.950000e-01    3.430000e+00
  P1dq  TN4a  1 3.950000e-01    3.430000e+00
  P1dq  TN3a  1 3.950000e-01    2.940000e+00
  P1dq  TN2a  1 3.950000e-01    2.940000e+00
  P1dq  TN1a  1 3.950000e-01    2.940000e+00
  P1dq  TC6e  1 3.950000e-01    2.700000e+00
  P1dq  TC5e  1 3.950000e-01    2.500000e+00
  P1dq  TC4e  1 3.950000e-01    2.310000e+00
  P1dq  TC3e  1 3.950000e-01    2.110000e+00
  P1dq  TC2e  1 3.950000e-01    2.110000e+00
  P1dq  TC1e  1 3.950000e-01    1.850000e+00
  P1dq  TX4e  1 3.950000e-01    2.700000e+00
  P1dq  TX3e  1 3.950000e-01    2.700000e+00
  P1dq  TX2e  1 3.950000e-01    2.500000e+00
  P1dq  TX1e  1 3.950000e-01    2.310000e+00
  P1dq  TC6v  1 3.950000e-01    2.310000e+00
  P1dq  TC5v  1 3.950000e-01    2.110000e+00
  P1dq  TC4v  1 3.950000e-01    1.850000e+00
  P1dq  TC3v  1 3.950000e-01    1.670000e+00
  P1dq  TC2v  1 3.950000e-01    1.670000e+00
  P1dq  TC1v  1 3.980000e-01    1.450000e+00
  P1dq  TX4v  1 3.950000e-01    2.310000e+00
  P1dq  TX3v  1 3.950000e-01    2.310000e+00
  P1dq  TX2v  1 3.950000e-01    2.110000e+00
  P1dq  TX1v  1 3.950000e-01    1.850000e+00
   N6d TN6dq  1 3.950000e-01    3.190000e+00
  N6dq  TN5d  1 3.950000e-01    3.190000e+00
  N6dq  TN4d  1 3.950000e-01    3.190000e+00
  N6dq  TN3d  1 3.950000e-01    2.700000e+00
  N6dq  TN2d  1 3.950000e-01    2.500000e+00
  N6dq  TN1d  1 3.950000e-01    2.500000e+00
   P6a TN6dq  1 3.950000e-01    3.670000e+00
   P5a TN6dq  1 3.950000e-01    3.430000e+00
   P4a TN6dq  1 3.950000e-01    3.430000e+00
   P3a TN6dq  1 3.950000e-01    3.430000e+00
   P2a TN6dq  1 3.950000e-01    3.670000e+00
   P1a TN6dq  1 3.950000e-01    3.670000e+00
  N6dq  TN6a  1 3.950000e-01    3.670000e+00
  N6dq  TN5a  1 3.950000e-01    3.670000e+00
  N6dq  TN4a  1 3.950000e-01    3.670000e+00
  N6dq  TN3a  1 3.950000e-01    3.190000e+00
  N6dq  TN2a  1 3.950000e-01    2.940000e+00
  N6dq  TN1a  1 3.950000e-01    2.940000e+00
  N6dq  TC6e  1 3.950000e-01    2.940000e+00
  N6dq  TC5e  1 3.950000e-01    2.700000e+00
  N6dq  TC4e  1 3.950000e-01    2.500000e+00
  N6dq  TC3e  1 3.950000e-01    2.310000e+00
  N6dq  TC2e  1 3.950000e-01    2.310000e+00
  N6dq  TC1e  1 3.950000e-01    2.110000e+00
  N6dq  TX4e  1 3.950000e-01    2.940000e+00
  N6dq  TX3e  1 3.950000e-01    2.700000e+00
  N6dq  TX2e  1 3.950000e-01    2.500000e+00
  N6dq  TX1e  1 3.950000e-01    2.310000e+00
  N6dq  TC6v  1 3.950000e-01    2.500000e+00
  N6dq  TC5v  1 3.950000e-01    2.310000e+00
  N6dq  TC4v  1 3.950000e-01    2.110000e+00
  N6dq  TC3v  1 3.950000e-01    1.850000e+00
  N6dq  TC2v  1 3.950000e-01    1.850000e+00
  N6dq  TC1v  1 3.950000e-01    1.670000e+00
  N6dq  TX4v  1 3.950000e-01    2.500000e+00
  N6dq  TX3v  1 3.950000e-01    2.310000e+00
  N6dq  TX2v  1 3.950000e-01    2.110000e+00
  N6dq  TX1v  1 3.950000e-01    1.850000e+00
   N5d TN5dq  1 3.950000e-01    2.940000e+00
  N5dq  TN4d  1 3.950000e-01    2.940000e+00
  N5dq  TN3d  1 3.950000e-01    2.700000e+00
  N5dq  TN2d  1 3.950000e-01    2.700000e+00
  N5dq  TN1d  1 3.950000e-01    2.500000e+00
   P6a TN5dq  1 3.950000e-01    3.190000e+00
   P5a TN5dq  1 3.950000e-01    3.190000e+00
   P4a TN5dq  1 3.950000e-01    3.190000e+00
   P3a TN5dq  1 3.950000e-01    3.190000e+00
   P2a TN5dq  1 3.950000e-01    3.430000e+00
   P1a TN5dq  1 3.950000e-01    3.430000e+00
   N6a TN5dq  1 3.950000e-01    3.670000e+00
  N5dq  TN5a  1 3.950000e-01    3.430000e+00
  N5dq  TN4a  1 3.950000e-01    3.430000e+00
  N5dq  TN3a  1 3.950000e-01    3.190000e+00
  N5dq  TN2a  1 3.950000e-01    3.190000e+00
  N5dq  TN1a  1 3.950000e-01    2.940000e+00
  N5dq  TC6e  1 3.950000e-01    2.940000e+00
  N5dq  TC5e  1 3.950000e-01    2.700000e+00
  N5dq  TC4e  1 3.950000e-01    2.500000e+00
  N5dq  TC3e  1 3.950000e-01    2.500000e+00
  N5dq  TC2e  1 3.950000e-01    2.310000e+00
  N5dq  TC1e  1 3.950000e-01    2.110000e+00
  N5dq  TX4e  1 3.950000e-01    3.190000e+00
  N5dq  TX3e  1 3.950000e-01    2.940000e+00
  N5dq  TX2e  1 3.950000e-01    2.700000e+00
  N5dq  TX1e  1 3.950000e-01    2.500000e+00
  N5dq  TC6v  1 3.950000e-01    2.500000e+00
  N5dq  TC5v  1 3.950000e-01    2.310000e+00
  N5dq  TC4v  1 3.950000e-01    2.110000e+00
  N5dq  TC3v  1 3.950000e-01    2.110000e+00
  N5dq  TC2v  1 3.950000e-01    1.850000e+00
  N5dq  TC1v  1 3.950000e-01    1.670000e+00
  N5dq  TX4v  1 3.950000e-01    2.700000e+00
  N5dq  TX3v  1 3.950000e-01    2.500000e+00
  N5dq  TX2v  1 3.950000e-01    2.310000e+00
  N5dq  TX1v  1 3.950000e-01    2.110000e+00
   N4d TN4dq  1 3.950000e-01    2.940000e+00
  N4dq  TN3d  1 3.950000e-01    2.700000e+00
  N4dq  TN2d  1 3.950000e-01    2.700000e+00
  N4dq  TN1d  1 3.950000e-01    2.500000e+00
   P6a TN4dq  1 3.950000e-01    2.940000e+00
   P5a TN4dq  1 3.950000e-01    3.190000e+00
   P4a TN4dq  1 3.950000e-01    3.190000e+00
   P3a TN4dq  1 3.950000e-01    3.190000e+00
   P2a TN4dq  1 3.950000e-01    3.190000e+00
   P1a TN4dq  1 3.950000e-01    3.430000e+00
   N6a TN4dq  1 3.950000e-01    3.670000e+00
   N5a TN4dq  1 3.950000e-01    3.430000e+00
  N4dq  TN4a  1 3.950000e-01    3.430000e+00
  N4dq  TN3a  1 3.950000e-01    3.190000e+00
  N4dq  TN2a  1 3.950000e-01    3.190000e+00
  N4dq  TN1a  1 3.950000e-01    2.940000e+00
  N4dq  TC6e  1 3.950000e-01    2.940000e+00
  N4dq  TC5e  1 3.950000e-01    2.700000e+00
  N4dq  TC4e  1 3.950000e-01    2.700000e+00
  N4dq  TC3e  1 3.950000e-01    2.500000e+00
  N4dq  TC2e  1 3.950000e-01    2.310000e+00
  N4dq  TC1e  1 3.950000e-01    2.110000e+00
  N4dq  TX4e  1 3.950000e-01    3.430000e+00
  N4dq  TX3e  1 3.950000e-01    3.190000e+00
  N4dq  TX2e  1 3.950000e-01    2.700000e+00
  N4dq  TX1e  1 3.950000e-01    2.500000e+00
  N4dq  TC6v  1 3.950000e-01    2.500000e+00
  N4dq  TC5v  1 3.950000e-01    2.310000e+00
  N4dq  TC4v  1 3.950000e-01    2.310000e+00
  N4dq  TC3v  1 3.950000e-01    2.110000e+00
  N4dq  TC2v  1 3.950000e-01    1.850000e+00
  N4dq  TC1v  1 3.950000e-01    1.670000e+00
  N4dq  TX4v  1 3.950000e-01    2.940000e+00
  N4dq  TX3v  1 3.950000e-01    2.700000e+00
  N4dq  TX2v  1 3.950000e-01    2.310000e+00
  N4dq  TX1v  1 3.950000e-01    2.110000e+00
   N3d TN3dq  1 3.950000e-01    2.700000e+00
  N3dq  TN2d  1 3.950000e-01    2.700000e+00
  N3dq  TN1d  1 3.950000e-01    2.500000e+00
   P6a TN3dq  1 3.950000e-01    2.500000e+00
   P5a TN3dq  1 3.950000e-01    2.500000e+00
   P4a TN3dq  1 3.950000e-01    2.940000e+00
   P3a TN3dq  1 3.950000e-01    2.940000e+00
   P2a TN3dq  1 3.950000e-01    2.940000e+00
   P1a TN3dq  1 3.950000e-01    2.940000e+00
   N6a TN3dq  1 3.950000e-01    3.190000e+00
   N5a TN3dq  1 3.950000e-01    3.190000e+00
   N4a TN3dq  1 3.950000e-01    3.190000e+00
  N3dq  TN3a  1 3.950000e-01    3.190000e+00
  N3dq  TN2a  1 3.950000e-01    3.190000e+00
  N3dq  TN1a  1 3.950000e-01    2.940000e+00
  N3dq  TC6e  1 3.950000e-01    2.940000e+00
  N3dq  TC5e  1 3.950000e-01    2.700000e+00
  N3dq  TC4e  1 3.950000e-01    2.700000e+00
  N3dq  TC3e  1 3.950000e-01    2.500000e+00
  N3dq  TC2e  1 3.950000e-01    2.500000e+00
  N3dq  TC1e  1 3.950000e-01    2.310000e+00
  N3dq  TX4e  1 3.950000e-01    3.190000e+00
  N3dq  TX3e  1 3.950000e-01    2.940000e+00
  N3dq  TX2e  1 3.950000e-01    2.700000e+00
  N3dq  TX1e  1 3.950000e-01    2.700000e+00
  N3dq  TC6v  1 3.950000e-01    2.500000e+00
  N3dq  TC5v  1 3.950000e-01    2.310000e+00
  N3dq  TC4v  1 3.950000e-01    2.310000e+00
  N3dq  TC3v  1 3.950000e-01    2.110000e+00
  N3dq  TC2v  1 3.950000e-01    2.110000e+00
  N3dq  TC1v  1 3.950000e-01    1.850000e+00
  N3dq  TX4v  1 3.950000e-01    2.700000e+00
  N3dq  TX3v  1 3.950000e-01    2.500000e+00
  N3dq  TX2v  1 3.950000e-01    2.310000e+00
  N3dq  TX1v  1 3.950000e-01    2.310000e+00
   N2d TN2dq  1 3.950000e-01    2.700000e+00
  N2dq  TN1d  1 3.950000e-01    2.500000e+00
   P6a TN2dq  1 3.950000e-01    2.310000e+00
   P5a TN2dq  1 3.950000e-01    2.310000e+00
   P4a TN2dq  1 3.950000e-01    2.500000e+00
   P3a TN2dq  1 3.950000e-01    2.940000e+00
   P2a TN2dq  1 3.950000e-01    2.940000e+00
   P1a TN2dq  1 3.950000e-01    2.940000e+00
   N6a TN2dq  1 3.950000e-01    2.940000e+00
   N5a TN2dq  1 3.950000e-01    3.190000e+00
   N4a TN2dq  1 3.950000e-01    3.190000e+00
   N3a TN2dq  1 3.950000e-01    3.190000e+00
  N2dq  TN2a  1 3.950000e-01    3.190000e+00
  N2dq  TN1a  1 3.950000e-01    2.940000e+00
  N2dq  TC6e  1 3.950000e-01    2.940000e+00
  N2dq  TC5e  1 3.950000e-01    2.700000e+00
  N2dq  TC4e  1 3.950000e-01    2.700000e+00
  N2dq  TC3e  1 3.950000e-01    2.700000e+00
  N2dq  TC2e  1 3.950000e-01    2.500000e+00
  N2dq  TC1e  1 3.950000e-01    2.310000e+00
  N2dq  TX4e  1 3.950000e-01    3.190000e+00
  N2dq  TX3e  1 3.950000e-01    2.940000e+00
  N2dq  TX2e  1 3.950000e-01    2.700000e+00
  N2dq  TX1e  1 3.950000e-01    2.700000e+00
  N2dq  TC6v  1 3.950000e-01    2.500000e+00
  N2dq  TC5v  1 3.950000e-01    2.310000e+00
  N2dq  TC4v  1 3.950000e-01    2.310000e+00
  N2dq  TC3v  1 3.950000e-01    2.310000e+00
  N2dq  TC2v  1 3.950000e-01    2.110000e+00
  N2dq  TC1v  1 3.950000e-01    1.850000e+00
  N2dq  TX4v  1 3.950000e-01    2.700000e+00
  N2dq  TX3v  1 3.950000e-01    2.500000e+00
  N2dq  TX2v  1 3.950000e-01    2.310000e+00
  N2dq  TX1v  1 3.950000e-01    2.310000e+00
   N1d TN1dq  1 3.950000e-01    2.700000e+00
   P6a TN1dq  1 3.950000e-01    2.110000e+00
   P5a TN1dq  1 3.950000e-01    2.110000e+00
   P4a TN1dq  1 3.950000e-01    2.310000e+00
   P3a TN1dq  1 3.950000e-01    2.500000e+00
   P2a TN1dq  1 3.950000e-01    2.940000e+00
   P1a TN1dq  1 3.950000e-01    2.940000e+00
   N6a TN1dq  1 3.950000e-01    2.940000e+00
   N5a TN1dq  1 3.950000e-01    2.940000e+00
   N4a TN1dq  1 3.950000e-01    2.940000e+00
   N3a TN1dq  1 3.950000e-01    2.940000e+00
   N2a TN1dq  1 3.950000e-01    2.940000e+00
  N1dq  TN1a  1 3.950000e-01    3.190000e+00
  N1dq  TC6e  1 3.950000e-01    3.190000e+00
  N1dq  TC5e  1 3.950000e-01    2.940000e+00
  N1dq  TC4e  1 3.950000e-01    2.940000e+00
  N1dq  TC3e  1 3.950000e-01    2.700000e+00
  N1dq  TC2e  1 3.950000e-01    2.500000e+00
  N1dq  TC1e  1 3.950000e-01    2.310000e+00
  N1dq  TX4e  1 3.950000e-01    2.940000e+00
  N1dq  TX3e  1 3.950000e-01    2.940000e+00
  N1dq  TX2e  1 3.950000e-01    2.700000e+00
  N1dq  TX1e  1 3.950000e-01    2.700000e+00
  N1dq  TC6v  1 3.950000e-01    2.700000e+00
  N1dq  TC5v  1 3.950000e-01    2.500000e+00
  N1dq  TC4v  1 3.950000e-01    2.500000e+00
  N1dq  TC3v  1 3.950000e-01    2.310000e+00
  N1dq  TC2v  1 3.950000e-01    2.110000e+00
  N1dq  TC1v  1 3.950000e-01    1.850000e+00
  N1dq  TX4v  1 3.950000e-01    2.500000e+00
  N1dq  TX3v  1 3.950000e-01    2.500000e+00
  N1dq  TX2v  1 3.950000e-01    2.310000e+00
  N1dq  TX1v  1 3.950000e-01    2.310000e+00
   P6a TP6aq  1 3.950000e-01    4.540000e+00
  P6aq  TP5a  1 3.950000e-01    4.230000e+00
  P6aq  TP4a  1 3.950000e-01    3.910000e+00
  P6aq  TP3a  1 3.950000e-01    3.670000e+00
  P6aq  TP2a  1 3.950000e-01    3.670000e+00
  P6aq  TP1a  1 3.950000e-01    3.430000e+00
  P6aq  TN6a  1 3.950000e-01    3.190000e+00
  P6aq  TN5a  1 3.950000e-01    2.700000e+00
  P6aq  TN4a  1 3.950000e-01    2.500000e+00
  P6aq  TN3a  1 3.950000e-01    2.500000e+00
  P6aq  TN2a  1 3.950000e-01    2.310000e+00
  P6aq  TN1a  1 3.950000e-01    2.110000e+00
  P6aq  TC6v  1 3.950000e-01    2.310000e+00
  P6aq  TC5v  1 3.950000e-01    2.110000e+00
  P6aq  TC4v  1 3.950000e-01    1.850000e+00
  P6aq  TC3v  1 3.950000e-01    1.670000e+00
  P6aq  TC2v  1 3.950000e-01    1.670000e+00
  P6aq  TC1v  1 3.990000e-01    1.180000e+00
  P6aq  TX4v  1 3.950000e-01    2.500000e+00
  P6aq  TX3v  1 3.950000e-01    2.500000e+00
  P6aq  TX2v  1 3.950000e-01    2.310000e+00
  P6aq  TX1v  1 3.950000e-01    2.110000e+00
  P6aq  TC6e  1 3.950000e-01    1.850000e+00
  P6aq  TC5e  1 3.950000e-01    1.670000e+00
  P6aq  TC4e  1 3.980000e-01    1.450000e+00
  P6aq  TC3e  1 3.990000e-01    1.180000e+00
  P6aq  TC2e  1 3.990000e-01    1.180000e+00
  P6aq  TC1e  1 4.040000e-01    8.300000e-01
  P6aq  TX4e  1 3.950000e-01    2.110000e+00
  P6aq  TX3e  1 3.950000e-01    2.110000e+00
  P6aq  TX2e  1 3.950000e-01    1.850000e+00
  P6aq  TX1e  1 3.950000e-01    1.670000e+00
   P5a TP5aq  1 3.950000e-01    3.910000e+00
  P5aq  TP4a  1 3.950000e-01    3.670000e+00
  P5aq  TP3a  1 3.950000e-01    3.430000e+00
  P5aq  TP2a  1 3.950000e-01    3.430000e+00
  P5aq  TP1a  1 3.950000e-01    3.190000e+00
  P5aq  TN6a  1 3.950000e-01    2.940000e+00
  P5aq  TN5a  1 3.950000e-01    2.700000e+00
  P5aq  TN4a  1 3.950000e-01    2.700000e+00
  P5aq  TN3a  1 3.950000e-01    2.500000e+00
  P5aq  TN2a  1 3.950000e-01    2.310000e+00
  P5aq  TN1a  1 3.950000e-01    2.110000e+00
  P5aq  TC6v  1 3.950000e-01    2.310000e+00
  P5aq  TC5v  1 3.950000e-01    2.310000e+00
  P5aq  TC4v  1 3.950000e-01    2.110000e+00
  P5aq  TC3v  1 3.950000e-01    1.850000e+00
  P5aq  TC2v  1 3.950000e-01    1.850000e+00
  P5aq  TC1v  1 3.950000e-01    1.670000e+00
  P5aq  TX4v  1 3.950000e-01    2.700000e+00
  P5aq  TX3v  1 3.950000e-01    2.500000e+00
  P5aq  TX2v  1 3.950000e-01    2.500000e+00
  P5aq  TX1v  1 3.950000e-01    2.110000e+00
  P5aq  TC6e  1 3.950000e-01    1.850000e+00
  P5aq  TC5e  1 3.950000e-01    1.850000e+00
  P5aq  TC4e  1 3.950000e-01    1.670000e+00
  P5aq  TC3e  1 3.980000e-01    1.450000e+00
  P5aq  TC2e  1 3.980000e-01    1.450000e+00
  P5aq  TC1e  1 3.990000e-01    1.180000e+00
  P5aq  TX4e  1 3.950000e-01    2.310000e+00
  P5aq  TX3e  1 3.950000e-01    2.110000e+00
  P5aq  TX2e  1 3.950000e-01    2.110000e+00
  P5aq  TX1e  1 3.950000e-01    1.670000e+00
   P4a TP4aq  1 3.950000e-01    3.670000e+00
  P4aq  TP3a  1 3.950000e-01    3.430000e+00
  P4aq  TP2a  1 3.950000e-01    3.430000e+00
  P4aq  TP1a  1 3.950000e-01    3.190000e+00
  P4aq  TN6a  1 3.950000e-01    2.940000e+00
  P4aq  TN5a  1 3.950000e-01    2.700000e+00
  P4aq  TN4a  1 3.950000e-01    2.700000e+00
  P4aq  TN3a  1 3.950000e-01    2.500000e+00
  P4aq  TN2a  1 3.950000e-01    2.500000e+00
  P4aq  TN1a  1 3.950000e-01    2.310000e+00
  P4aq  TC6v  1 3.950000e-01    2.500000e+00
  P4aq  TC5v  1 3.950000e-01    2.310000e+00
  P4aq  TC4v  1 3.950000e-01    2.110000e+00
  P4aq  TC3v  1 3.950000e-01    1.850000e+00
  P4aq  TC2v  1 3.950000e-01    1.850000e+00
  P4aq  TC1v  1 3.950000e-01    1.670000e+00
  P4aq  TX4v  1 3.950000e-01    2.700000e+00
  P4aq  TX3v  1 3.950000e-01    2.500000e+00
  P4aq  TX2v  1 3.950000e-01    2.500000e+00
  P4aq  TX1v  1 3.950000e-01    2.310000e+00
  P4aq  TC6e  1 3.950000e-01    2.110000e+00
  P4aq  TC5e  1 3.950000e-01    1.850000e+00
  P4aq  TC4e  1 3.950000e-01    1.670000e+00
  P4aq  TC3e  1 3.980000e-01    1.450000e+00
  P4aq  TC2e  1 3.980000e-01    1.450000e+00
  P4aq  TC1e  1 3.990000e-01    1.180000e+00
  P4aq  TX4e  1 3.950000e-01    2.310000e+00
  P4aq  TX3e  1 3.950000e-01    2.110000e+00
  P4aq  TX2e  1 3.950000e-01    2.110000e+00
  P4aq  TX1e  1 3.950000e-01    1.850000e+00
   P3a TP3aq  1 3.950000e-01    3.430000e+00
  P3aq  TP2a  1 3.950000e-01    3.430000e+00
  P3aq  TP1a  1 3.950000e-01    3.190000e+00
  P3aq  TN6a  1 3.950000e-01    2.940000e+00
  P3aq  TN5a  1 3.950000e-01    2.700000e+00
  P3aq  TN4a  1 3.950000e-01    2.700000e+00
  P3aq  TN3a  1 3.950000e-01    2.500000e+00
  P3aq  TN2a  1 3.950000e-01    2.500000e+00
  P3aq  TN1a  1 3.950000e-01    2.500000e+00
  P3aq  TC6v  1 3.950000e-01    2.700000e+00
  P3aq  TC5v  1 3.950000e-01    2.500000e+00
  P3aq  TC4v  1 3.950000e-01    2.310000e+00
  P3aq  TC3v  1 3.950000e-01    1.850000e+00
  P3aq  TC2v  1 3.950000e-01    1.850000e+00
  P3aq  TC1v  1 3.950000e-01    1.670000e+00
  P3aq  TX4v  1 3.950000e-01    2.700000e+00
  P3aq  TX3v  1 3.950000e-01    2.700000e+00
  P3aq  TX2v  1 3.950000e-01    2.500000e+00
  P3aq  TX1v  1 3.950000e-01    2.310000e+00
  P3aq  TC6e  1 3.950000e-01    2.310000e+00
  P3aq  TC5e  1 3.950000e-01    2.110000e+00
  P3aq  TC4e  1 3.950000e-01    1.850000e+00
  P3aq  TC3e  1 3.980000e-01    1.450000e+00
  P3aq  TC2e  1 3.980000e-01    1.450000e+00
  P3aq  TC1e  1 3.990000e-01    1.180000e+00
  P3aq  TX4e  1 3.950000e-01    2.310000e+00
  P3aq  TX3e  1 3.950000e-01    2.310000e+00
  P3aq  TX2e  1 3.950000e-01    2.110000e+00
  P3aq  TX1e  1 3.950000e-01    1.850000e+00
   P2a TP2aq  1 3.950000e-01    3.430000e+00
  P2aq  TP1a  1 3.950000e-01    3.190000e+00
  P2aq  TN6a  1 3.950000e-01    3.190000e+00
  P2aq  TN5a  1 3.950000e-01    2.940000e+00
  P2aq  TN4a  1 3.950000e-01    2.700000e+00
  P2aq  TN3a  1 3.950000e-01    2.500000e+00
  P2aq  TN2a  1 3.950000e-01    2.500000e+00
  P2aq  TN1a  1 3.950000e-01    2.500000e+00
  P2aq  TC6v  1 3.950000e-01    2.700000e+00
  P2aq  TC5v  1 3.950000e-01    2.500000e+00
  P2aq  TC4v  1 3.950000e-01    2.310000e+00
  P2aq  TC3v  1 3.950000e-01    2.110000e+00
  P2aq  TC2v  1 3.950000e-01    2.110000e+00
  P2aq  TC1v  1 3.950000e-01    1.850000e+00
  P2aq  TX4v  1 3.950000e-01    2.700000e+00
  P2aq  TX3v  1 3.950000e-01    2.700000e+00
  P2aq  TX2v  1 3.950000e-01    2.500000e+00
  P2aq  TX1v  1 3.950000e-01    2.310000e+00
  P2aq  TC6e  1 3.950000e-01    2.310000e+00
  P2aq  TC5e  1 3.950000e-01    2.110000e+00
  P2aq  TC4e  1 3.950000e-01    1.850000e+00
  P2aq  TC3e  1 3.950000e-01    1.670000e+00
  P2aq  TC2e  1 3.950000e-01    1.670000e+00
  P2aq  TC1e  1 3.980000e-01    1.450000e+00
  P2aq  TX4e  1 3.950000e-01    2.310000e+00
  P2aq  TX3e  1 3.950000e-01    2.310000e+00
  P2aq  TX2e  1 3.950000e-01    2.110000e+00
  P2aq  TX1e  1 3.950000e-01    1.850000e+00
   P1a TP1aq  1 3.950000e-01    3.190000e+00
  P1aq  TN6a  1 3.950000e-01    3.190000e+00
  P1aq  TN5a  1 3.950000e-01    2.940000e+00
  P1aq  TN4a  1 3.950000e-01    2.940000e+00
  P1aq  TN3a  1 3.950000e-01    2.500000e+00
  P1aq  TN2a  1 3.950000e-01    2.500000e+00
  P1aq  TN1a  1 3.950000e-01    2.500000e+00
  P1aq  TC6v  1 3.950000e-01    2.700000e+00
  P1aq  TC5v  1 3.950000e-01    2.500000e+00
  P1aq  TC4v  1 3.950000e-01    2.310000e+00
  P1aq  TC3v  1 3.950000e-01    2.110000e+00
  P1aq  TC2v  1 3.950000e-01    2.110000e+00
  P1aq  TC1v  1 3.950000e-01    1.850000e+00
  P1aq  TX4v  1 3.950000e-01    2.700000e+00
  P1aq  TX3v  1 3.950000e-01    2.700000e+00
  P1aq  TX2v  1 3.950000e-01    2.500000e+00
  P1aq  TX1v  1 3.950000e-01    2.310000e+00
  P1aq  TC6e  1 3.950000e-01    2.310000e+00
  P1aq  TC5e  1 3.950000e-01    2.110000e+00
  P1aq  TC4e  1 3.950000e-01    1.850000e+00
  P1aq  TC3e  1 3.950000e-01    1.670000e+00
  P1aq  TC2e  1 3.950000e-01    1.670000e+00
  P1aq  TC1e  1 3.980000e-01    1.450000e+00
  P1aq  TX4e  1 3.950000e-01    2.310000e+00
  P1aq  TX3e  1 3.950000e-01    2.310000e+00
  P1aq  TX2e  1 3.950000e-01    2.110000e+00
  P1aq  TX1e  1 3.950000e-01    1.850000e+00
   N6a TN6aq  1 3.950000e-01    3.190000e+00
  N6aq  TN5a  1 3.950000e-01    3.190000e+00
  N6aq  TN4a  1 3.950000e-01    3.190000e+00
  N6aq  TN3a  1 3.950000e-01    2.700000e+00
  N6aq  TN2a  1 3.950000e-01    2.500000e+00
  N6aq  TN1a  1 3.950000e-01    2.500000e+00
  N6aq  TC6v  1 3.950000e-01    2.940000e+00
  N6aq  TC5v  1 3.950000e-01    2.700000e+00
  N6aq  TC4v  1 3.950000e-01    2.500000e+00
  N6aq  TC3v  1 3.950000e-01    2.310000e+00
  N6aq  TC2v  1 3.950000e-01    2.310000e+00
  N6aq  TC1v  1 3.950000e-01    2.110000e+00
  N6aq  TX4v  1 3.950000e-01    2.940000e+00
  N6aq  TX3v  1 3.950000e-01    2.700000e+00
  N6aq  TX2v  1 3.950000e-01    2.500000e+00
  N6aq  TX1v  1 3.950000e-01    2.310000e+00
  N6aq  TC6e  1 3.950000e-01    2.500000e+00
  N6aq  TC5e  1 3.950000e-01    2.310000e+00
  N6aq  TC4e  1 3.950000e-01    2.110000e+00
  N6aq  TC3e  1 3.950000e-01    1.850000e+00
  N6aq  TC2e  1 3.950000e-01    1.850000e+00
  N6aq  TC1e  1 3.950000e-01    1.670000e+00
  N6aq  TX4e  1 3.950000e-01    2.500000e+00
  N6aq  TX3e  1 3.950000e-01    2.310000e+00
  N6aq  TX2e  1 3.950000e-01    2.110000e+00
  N6aq  TX1e  1 3.950000e-01    1.850000e+00
   N5a TN5aq  1 3.950000e-01    2.940000e+00
  N5aq  TN4a  1 3.950000e-01    2.940000e+00
  N5aq  TN3a  1 3.950000e-01    2.700000e+00
  N5aq  TN2a  1 3.950000e-01    2.700000e+00
  N5aq  TN1a  1 3.950000e-01    2.500000e+00
  N5aq  TC6v  1 3.950000e-01    2.940000e+00
  N5aq  TC5v  1 3.950000e-01    2.700000e+00
  N5aq  TC4v  1 3.950000e-01    2.500000e+00
  N5aq  TC3v  1 3.950000e-01    2.500000e+00
  N5aq  TC2v  1 3.950000e-01    2.310000e+00
  N5aq  TC1v  1 3.950000e-01    2.110000e+00
  N5aq  TX4v  1 3.950000e-01    3.190000e+00
  N5aq  TX3v  1 3.950000e-01    2.940000e+00
  N5aq  TX2v  1 3.950000e-01    2.700000e+00
  N5aq  TX1v  1 3.950000e-01    2.500000e+00
  N5aq  TC6e  1 3.950000e-01    2.500000e+00
  N5aq  TC5e  1 3.950000e-01    2.310000e+00
  N5aq  TC4e  1 3.950000e-01    2.110000e+00
  N5aq  TC3e  1 3.950000e-01    2.110000e+00
  N5aq  TC2e  1 3.950000e-01    1.850000e+00
  N5aq  TC1e  1 3.950000e-01    1.670000e+00
  N5aq  TX4e  1 3.950000e-01    2.700000e+00
  N5aq  TX3e  1 3.950000e-01    2.500000e+00
  N5aq  TX2e  1 3.950000e-01    2.310000e+00
  N5aq  TX1e  1 3.950000e-01    2.110000e+00
   N4a TN4aq  1 3.950000e-01    2.940000e+00
  N4aq  TN3a  1 3.950000e-01    2.700000e+00
  N4aq  TN2a  1 3.950000e-01    2.700000e+00
  N4aq  TN1a  1 3.950000e-01    2.500000e+00
  N4aq  TC6v  1 3.950000e-01    2.940000e+00
  N4aq  TC5v  1 3.950000e-01    2.700000e+00
  N4aq  TC4v  1 3.950000e-01    2.700000e+00
  N4aq  TC3v  1 3.950000e-01    2.500000e+00
  N4aq  TC2v  1 3.950000e-01    2.310000e+00
  N4aq  TC1v  1 3.950000e-01    2.110000e+00
  N4aq  TX4v  1 3.950000e-01    3.430000e+00
  N4aq  TX3v  1 3.950000e-01    3.190000e+00
  N4aq  TX2v  1 3.950000e-01    2.700000e+00
  N4aq  TX1v  1 3.950000e-01    2.500000e+00
  N4aq  TC6e  1 3.950000e-01    2.500000e+00
  N4aq  TC5e  1 3.950000e-01    2.310000e+00
  N4aq  TC4e  1 3.950000e-01    2.310000e+00
  N4aq  TC3e  1 3.950000e-01    2.110000e+00
  N4aq  TC2e  1 3.950000e-01    1.850000e+00
  N4aq  TC1e  1 3.950000e-01    1.670000e+00
  N4aq  TX4e  1 3.950000e-01    2.940000e+00
  N4aq  TX3e  1 3.950000e-01    2.700000e+00
  N4aq  TX2e  1 3.950000e-01    2.310000e+00
  N4aq  TX1e  1 3.950000e-01    2.110000e+00
   N3a TN3aq  1 3.950000e-01    2.700000e+00
  N3aq  TN2a  1 3.950000e-01    2.700000e+00
  N3aq  TN1a  1 3.950000e-01    2.500000e+00
  N3aq  TC6v  1 3.950000e-01    2.940000e+00
  N3aq  TC5v  1 3.950000e-01    2.700000e+00
  N3aq  TC4v  1 3.950000e-01    2.700000e+00
  N3aq  TC3v  1 3.950000e-01    2.500000e+00
  N3aq  TC2v  1 3.950000e-01    2.500000e+00
  N3aq  TC1v  1 3.950000e-01    2.310000e+00
  N3aq  TX4v  1 3.950000e-01    3.190000e+00
  N3aq  TX3v  1 3.950000e-01    2.940000e+00
  N3aq  TX2v  1 3.950000e-01    2.700000e+00
  N3aq  TX1v  1 3.950000e-01    2.700000e+00
  N3aq  TC6e  1 3.950000e-01    2.500000e+00
  N3aq  TC5e  1 3.950000e-01    2.310000e+00
  N3aq  TC4e  1 3.950000e-01    2.310000e+00
  N3aq  TC3e  1 3.950000e-01    2.110000e+00
  N3aq  TC2e  1 3.950000e-01    2.110000e+00
  N3aq  TC1e  1 3.950000e-01    1.850000e+00
  N3aq  TX4e  1 3.950000e-01    2.700000e+00
  N3aq  TX3e  1 3.950000e-01    2.500000e+00
  N3aq  TX2e  1 3.950000e-01    2.310000e+00
  N3aq  TX1e  1 3.950000e-01    2.310000e+00
   N2a TN2aq  1 3.950000e-01    2.700000e+00
  N2aq  TN1a  1 3.950000e-01    2.500000e+00
  N2aq  TC6v  1 3.950000e-01    2.940000e+00
  N2aq  TC5v  1 3.950000e-01    2.700000e+00
  N2aq  TC4v  1 3.950000e-01    2.700000e+00
  N2aq  TC3v  1 3.950000e-01    2.700000e+00
  N2aq  TC2v  1 3.950000e-01    2.500000e+00
  N2aq  TC1v  1 3.950000e-01    2.310000e+00
  N2aq  TX4v  1 3.950000e-01    3.190000e+00
  N2aq  TX3v  1 3.950000e-01    2.940000e+00
  N2aq  TX2v  1 3.950000e-01    2.700000e+00
  N2aq  TX1v  1 3.950000e-01    2.700000e+00
  N2aq  TC6e  1 3.950000e-01    2.500000e+00
  N2aq  TC5e  1 3.950000e-01    2.310000e+00
  N2aq  TC4e  1 3.950000e-01    2.310000e+00
  N2aq  TC3e  1 3.950000e-01    2.310000e+00
  N2aq  TC2e  1 3.950000e-01    2.110000e+00
  N2aq  TC1e  1 3.950000e-01    1.850000e+00
  N2aq  TX4e  1 3.950000e-01    2.700000e+00
  N2aq  TX3e  1 3.950000e-01    2.500000e+00
  N2aq  TX2e  1 3.950000e-01    2.310000e+00
  N2aq  TX1e  1 3.950000e-01    2.310000e+00
   N1a TN1aq  1 3.950000e-01    2.700000e+00
  N1aq  TC6v  1 3.950000e-01    3.190000e+00
  N1aq  TC5v  1 3.950000e-01    2.940000e+00
  N1aq  TC4v  1 3.950000e-01    2.940000e+00
  N1aq  TC3v  1 3.950000e-01    2.700000e+00
  N1aq  TC2v  1 3.950000e-01    2.500000e+00
  N1aq  TC1v  1 3.950000e-01    2.310000e+00
  N1aq  TX4v  1 3.950000e-01    2.940000e+00
  N1aq  TX3v  1 3.950000e-01    2.940000e+00
  N1aq  TX2v  1 3.950000e-01    2.700000e+00
  N1aq  TX1v  1 3.950000e-01    2.700000e+00
  N1aq  TC6e  1 3.950000e-01    2.700000e+00
  N1aq  TC5e  1 3.950000e-01    2.500000e+00
  N1aq  TC4e  1 3.950000e-01    2.500000e+00
  N1aq  TC3e  1 3.950000e-01    2.310000e+00
  N1aq  TC2e  1 3.950000e-01    2.110000e+00
  N1aq  TC1e  1 3.950000e-01    1.850000e+00
  N1aq  TX4e  1 3.950000e-01    2.500000e+00
  N1aq  TX3e  1 3.950000e-01    2.500000e+00
  N1aq  TX2e  1 3.950000e-01    2.310000e+00
  N1aq  TX1e  1 3.950000e-01    2.310000e+00
   C6v TC6vq  1 3.950000e-01    2.700000e+00
  C6vq  TC5v  1 3.950000e-01    2.500000e+00
  C6vq  TC4v  1 3.950000e-01    2.500000e+00
  C6vq  TC3v  1 3.950000e-01    2.310000e+00
  C6vq  TC2v  1 3.950000e-01    2.110000e+00
  C6vq  TC1v  1 3.950000e-01    1.850000e+00
  C6vq  TX4v  1 3.950000e-01    2.500000e+00
  C6vq  TX3v  1 3.950000e-01    2.500000e+00
  C6vq  TX2v  1 3.950000e-01    2.500000e+00
  C6vq  TX1v  1 3.950000e-01    2.500000e+00
  C6vq  TC6e  1 3.950000e-01    3.430000e+00
  C6vq  TC5e  1 3.950000e-01    3.190000e+00
  C6vq  TC4e  1 3.950000e-01    3.190000e+00
  C6vq  TC3e  1 3.950000e-01    2.940000e+00
  C6vq  TC2e  1 3.950000e-01    2.700000e+00
  C6vq  TC1e  1 3.950000e-01    2.500000e+00
  C6vq  TX4e  1 3.950000e-01    3.190000e+00
  C6vq  TX3e  1 3.950000e-01    3.190000e+00
  C6vq  TX2e  1 3.950000e-01    3.190000e+00
  C6vq  TX1e  1 3.950000e-01    3.190000e+00
   C5v TC5vq  1 3.950000e-01    2.500000e+00
  C5vq  TC4v  1 3.950000e-01    2.500000e+00
  C5vq  TC3v  1 3.950000e-01    2.310000e+00
  C5vq  TC2v  1 3.950000e-01    2.110000e+00
  C5vq  TC1v  1 3.950000e-01    2.110000e+00
  C5vq  TX4v  1 3.950000e-01    2.310000e+00
  C5vq  TX3v  1 3.950000e-01    2.310000e+00
  C5vq  TX2v  1 3.950000e-01    2.310000e+00
  C5vq  TX1v  1 3.950000e-01    2.500000e+00
   C6e TC5vq  1 3.950000e-01    3.190000e+00
  C5vq  TC5e  1 3.950000e-01    3.190000e+00
  C5vq  TC4e  1 3.950000e-01    3.190000e+00
  C5vq  TC3e  1 3.950000e-01    2.940000e+00
  C5vq  TC2e  1 3.950000e-01    2.700000e+00
  C5vq  TC1e  1 3.950000e-01    2.700000e+00
  C5vq  TX4e  1 3.950000e-01    2.940000e+00
  C5vq  TX3e  1 3.950000e-01    2.940000e+00
  C5vq  TX2e  1 3.950000e-01    2.940000e+00
  C5vq  TX1e  1 3.950000e-01    3.190000e+00
   C4v TC4vq  1 3.950000e-01    2.500000e+00
  C4vq  TC3v  1 3.950000e-01    2.500000e+00
  C4vq  TC2v  1 3.950000e-01    2.310000e+00
  C4vq  TC1v  1 3.950000e-01    2.110000e+00
  C4vq  TX4v  1 3.950000e-01    2.310000e+00
  C4vq  TX3v  1 3.950000e-01    2.310000e+00
  C4vq  TX2v  1 3.950000e-01    2.310000e+00
  C4vq  TX1v  1 3.950000e-01    2.500000e+00
   C6e TC4vq  1 3.950000e-01    3.190000e+00
   C5e TC4vq  1 3.950000e-01    3.190000e+00
  C4vq  TC4e  1 3.950000e-01    3.190000e+00
  C4vq  TC3e  1 3.950000e-01    3.190000e+00
  C4vq  TC2e  1 3.950000e-01    2.940000e+00
  C4vq  TC1e  1 3.950000e-01    2.700000e+00
  C4vq  TX4e  1 3.950000e-01    2.940000e+00
  C4vq  TX3e  1 3.950000e-01    2.940000e+00
  C4vq  TX2e  1 3.950000e-01    2.940000e+00
  C4vq  TX1e  1 3.950000e-01    3.190000e+00
   C3v TC3vq  1 3.950000e-01    2.500000e+00
  C3vq  TC2v  1 3.950000e-01    2.500000e+00
  C3vq  TC1v  1 3.950000e-01    2.500000e+00
  C3vq  TX4v  1 3.950000e-01    2.310000e+00
  C3vq  TX3v  1 3.950000e-01    2.310000e+00
  C3vq  TX2v  1 3.950000e-01    2.310000e+00
  C3vq  TX1v  1 3.950000e-01    2.500000e+00
   C6e TC3vq  1 3.950000e-01    2.940000e+00
   C5e TC3vq  1 3.950000e-01    2.940000e+00
   C4e TC3vq  1 3.950000e-01    3.190000e+00
  C3vq  TC3e  1 3.950000e-01    3.190000e+00
  C3vq  TC2e  1 3.950000e-01    3.190000e+00
  C3vq  TC1e  1 3.950000e-01    3.190000e+00
  C3vq  TX4e  1 3.950000e-01    2.940000e+00
  C3vq  TX3e  1 3.950000e-01    2.940000e+00
  C3vq  TX2e  1 3.950000e-01    2.940000e+00
  C3vq  TX1e  1 3.950000e-01    3.190000e+00
   C2v TC2vq  1 3.950000e-01    2.500000e+00
  C2vq  TC1v  1 3.950000e-01    2.700000e+00
  C2vq  TX4v  1 3.950000e-01    1.850000e+00
  C2vq  TX3v  1 3.950000e-01    2.310000e+00
  C2vq  TX2v  1 3.950000e-01    2.310000e+00
  C2vq  TX1v  1 3.950000e-01    2.310000e+00
   C6e TC2vq  1 3.950000e-01    2.700000e+00
   C5e TC2vq  1 3.950000e-01    2.700000e+00
   C4e TC2vq  1 3.950000e-01    2.940000e+00
   C3e TC2vq  1 3.950000e-01    3.190000e+00
  C2vq  TC2e  1 3.950000e-01    3.190000e+00
  C2vq  TC1e  1 3.950000e-01    3.430000e+00
  C2vq  TX4e  1 3.950000e-01    2.500000e+00
  C2vq  TX3e  1 3.950000e-01    2.940000e+00
  C2vq  TX2e  1 3.950000e-01    2.940000e+00
  C2vq  TX1e  1 3.950000e-01    2.940000e+00
   C1v TC1vq  1 3.950000e-01    2.500000e+00
  C1vq  TX4v  1 3.950000e-01    1.850000e+00
  C1vq  TX3v  1 3.950000e-01    2.310000e+00
  C1vq  TX2v  1 3.950000e-01    2.310000e+00
  C1vq  TX1v  1 3.950000e-01    2.310000e+00
   C6e TC1vq  1 3.950000e-01    2.500000e+00
   C5e TC1vq  1 3.950000e-01    2.700000e+00
   C4e TC1vq  1 3.950000e-01    2.700000e+00
   C3e TC1vq  1 3.950000e-01    3.190000e+00
   C2e TC1vq  1 3.950000e-01    3.430000e+00
  C1vq  TC1e  1 3.950000e-01    3.190000e+00
  C1vq  TX4e  1 3.950000e-01    2.500000e+00
  C1vq  TX3e  1 3.950000e-01    2.940000e+00
  C1vq  TX2e  1 3.950000e-01    2.940000e+00
  C1vq  TX1e  1 3.950000e-01    2.940000e+00
   X4v TX4vq  1 3.950000e-01    2.500000e+00
  X4vq  TX3v  1 3.950000e-01    2.500000e+00
  X4vq  TX2v  1 3.950000e-01    2.500000e+00
  X4vq  TX1v  1 3.950000e-01    2.500000e+00
   C6e TX4vq  1 3.950000e-01    3.190000e+00
   C5e TX4vq  1 3.950000e-01    2.940000e+00
   C4e TX4vq  1 3.950000e-01    2.940000e+00
   C3e TX4vq  1 3.950000e-01    2.940000e+00
   C2e TX4vq  1 3.950000e-01    2.500000e+00
   C1e TX4vq  1 3.950000e-01    2.500000e+00
  X4vq  TX4e  1 3.950000e-01    3.190000e+00
  X4vq  TX3e  1 3.950000e-01    3.190000e+00
  X4vq  TX2e  1 3.950000e-01    3.190000e+00
  X4vq  TX1e  1 3.950000e-01    3.190000e+00
   X3v TX3vq  1 3.950000e-01    2.500000e+00
  X3vq  TX2v  1 3.950000e-01    2.700000e+00
  X3vq  TX1v  1 3.950000e-01    2.700000e+00
   C6e TX3vq  1 3.950000e-01    3.190000e+00
   C5e TX3vq  1 3.950000e-01    2.940000e+00
   C4e TX3vq  1 3.950000e-01    2.940000e+00
   C3e TX3vq  1 3.950000e-01    2.940000e+00
   C2e TX3vq  1 3.950000e-01    2.940000e+00
   C1e TX3vq  1 3.950000e-01    2.940000e+00
   X4e TX3vq  1 3.950000e-01    3.190000e+00
  X3vq  TX3e  1 3.950000e-01    3.190000e+00
  X3vq  TX2e  1 3.950000e-01    3.430000e+00
  X3vq  TX1e  1 3.950000e-01    3.430000e+00
   X2v TX2vq  1 3.950000e-01    2.700000e+00
  X2vq  TX1v  1 3.950000e-01    2.700000e+00
   C6e TX2vq  1 3.950000e-01    3.190000e+00
   C5e TX2vq  1 3.950000e-01    2.940000e+00
   C4e TX2vq  1 3.950000e-01    2.940000e+00
   C3e TX2vq  1 3.950000e-01    2.940000e+00
   C2e TX2vq  1 3.950000e-01    2.940000e+00
   C1e TX2vq  1 3.950000e-01    2.940000e+00
   X4e TX2vq  1 3.950000e-01    3.190000e+00
   X3e TX2vq  1 3.950000e-01    3.430000e+00
  X2vq  TX2e  1 3.950000e-01    3.430000e+00
  X2vq  TX1e  1 3.950000e-01    3.430000e+00
   X1v TX1vq  1 3.950000e-01    2.940000e+00
   C6e TX1vq  1 3.950000e-01    3.190000e+00
   C5e TX1vq  1 3.950000e-01    3.190000e+00
   C4e TX1vq  1 3.950000e-01    3.190000e+00
   C3e TX1vq  1 3.950000e-01    3.190000e+00
   C2e TX1vq  1 3.950000e-01    2.940000e+00
   C1e TX1vq  1 3.950000e-01    2.940000e+00
   X4e TX1vq  1 3.950000e-01    3.190000e+00
   X3e TX1vq  1 3.950000e-01    3.430000e+00
   X2e TX1vq  1 3.950000e-01    3.430000e+00
  X1vq  TX1e  1 3.950000e-01    3.670000e+00
   C6e TC6eq  1 3.950000e-01    2.700000e+00
  C6eq  TC5e  1 3.950000e-01    2.500000e+00
  C6eq  TC4e  1 3.950000e-01    2.500000e+00
  C6eq  TC3e  1 3.950000e-01    2.310000e+00
  C6eq  TC2e  1 3.950000e-01    2.110000e+00
  C6eq  TC1e  1 3.950000e-01    1.850000e+00
  C6eq  TX4e  1 3.950000e-01    2.500000e+00
  C6eq  TX3e  1 3.950000e-01    2.500000e+00
  C6eq  TX2e  1 3.950000e-01    2.500000e+00
  C6eq  TX1e  1 3.950000e-01    2.500000e+00
   C5e TC5eq  1 3.950000e-01    2.500000e+00
  C5eq  TC4e  1 3.950000e-01    2.500000e+00
  C5eq  TC3e  1 3.950000e-01    2.310000e+00
  C5eq  TC2e  1 3.950000e-01    2.110000e+00
  C5eq  TC1e  1 3.950000e-01    2.110000e+00
  C5eq  TX4e  1 3.950000e-01    2.310000e+00
  C5eq  TX3e  1 3.950000e-01    2.310000e+00
  C5eq  TX2e  1 3.950000e-01    2.310000e+00
  C5eq  TX1e  1 3.950000e-01    2.500000e+00
   C4e TC4eq  1 3.950000e-01    2.500000e+00
  C4eq  TC3e  1 3.950000e-01    2.500000e+00
  C4eq  TC2e  1 3.950000e-01    2.310000e+00
  C4eq  TC1e  1 3.950000e-01    2.110000e+00
  C4eq  TX4e  1 3.950000e-01    2.310000e+00
  C4eq  TX3e  1 3.950000e-01    2.310000e+00
  C4eq  TX2e  1 3.950000e-01    2.310000e+00
  C4eq  TX1e  1 3.950000e-01    2.500000e+00
   C3e TC3eq  1 3.950000e-01    2.500000e+00
  C3eq  TC2e  1 3.950000e-01    2.500000e+00
  C3eq  TC1e  1 3.950000e-01    2.500000e+00
  C3eq  TX4e  1 3.950000e-01    2.310000e+00
  C3eq  TX3e  1 3.950000e-01    2.310000e+00
  C3eq  TX2e  1 3.950000e-01    2.310000e+00
  C3eq  TX1e  1 3.950000e-01    2.500000e+00
   C2e TC2eq  1 3.950000e-01    2.500000e+00
  C2eq  TC1e  1 3.950000e-01    2.700000e+00
  C2eq  TX4e  1 3.950000e-01    1.850000e+00
  C2eq  TX3e  1 3.950000e-01    2.310000e+00
  C2eq  TX2e  1 3.950000e-01    2.310000e+00
  C2eq  TX1e  1 3.950000e-01    2.310000e+00
   C1e TC1eq  1 3.950000e-01    2.500000e+00
  C1eq  TX4e  1 3.950000e-01    1.850000e+00
  C1eq  TX3e  1 3.950000e-01    2.310000e+00
  C1eq  TX2e  1 3.950000e-01    2.310000e+00
  C1eq  TX1e  1 3.950000e-01    2.310000e+00
   X4e TX4eq  1 3.950000e-01    2.500000e+00
  X4eq  TX3e  1 3.950000e-01    2.500000e+00
  X4eq  TX2e  1 3.950000e-01    2.500000e+00
  X4eq  TX1e  1 3.950000e-01    2.500000e+00
   X3e TX3eq  1 3.950000e-01    2.500000e+00
  X3eq  TX2e  1 3.950000e-01    2.700000e+00
  X3eq  TX1e  1 3.950000e-01    2.700000e+00
   X2e TX2eq  1 3.950000e-01    2.700000e+00
  X2eq  TX1e  1 3.950000e-01    2.700000e+00
   X1e TX1eq  1 3.950000e-01    2.940000e+00
   C6e TX1eq  1 3.950000e-01    2.500000e+00
   C5e TX1eq  1 3.950000e-01    2.500000e+00
   C4e TX1eq  1 3.950000e-01    2.500000e+00
   C3e TX1eq  1 3.950000e-01    2.500000e+00
   C2e TX1eq  1 3.950000e-01    2.310000e+00
   C1e TX1eq  1 3.950000e-01    2.310000e+00
   X4e TX1eq  1 3.950000e-01    2.500000e+00
   X3e TX1eq  1 3.950000e-01    2.700000e+00
   X2e TX1eq  1 3.950000e-01    2.700000e+00
   C6v TX1eq  1 3.950000e-01    3.190000e+00
   C5v TX1eq  1 3.950000e-01    3.190000e+00
   C4v TX1eq  1 3.950000e-01    3.190000e+00
   C3v TX1eq  1 3.950000e-01    3.190000e+00
   C2v TX1eq  1 3.950000e-01    2.940000e+00
   C1v TX1eq  1 3.950000e-01    2.940000e+00
   X4v TX1eq  1 3.950000e-01    3.190000e+00
   X3v TX1eq  1 3.950000e-01    3.430000e+00
   X2v TX1eq  1 3.950000e-01    3.430000e+00
   X1v TX1eq  1 3.950000e-01    3.670000e+00
   P6d TX1eq  1 3.950000e-01    2.110000e+00
   P5d TX1eq  1 3.950000e-01    2.110000e+00
   P4d TX1eq  1 3.950000e-01    2.310000e+00
   P3d TX1eq  1 3.950000e-01    2.310000e+00
   P2d TX1eq  1 3.950000e-01    2.310000e+00
   P1d TX1eq  1 3.950000e-01    2.310000e+00
   N6d TX1eq  1 3.950000e-01    2.310000e+00
   N5d TX1eq  1 3.950000e-01    2.500000e+00
   N4d TX1eq  1 3.950000e-01    2.500000e+00
   N3d TX1eq  1 3.950000e-01    2.700000e+00
   N2d TX1eq  1 3.950000e-01    2.700000e+00
   N1d TX1eq  1 3.950000e-01    2.700000e+00
   P6a TX1eq  1 3.950000e-01    1.670000e+00
   P5a TX1eq  1 3.950000e-01    1.670000e+00
   P4a TX1eq  1 3.950000e-01    1.850000e+00
   P3a TX1eq  1 3.950000e-01    1.850000e+00
   P2a TX1eq  1 3.950000e-01    1.850000e+00
   P1a TX1eq  1 3.950000e-01    1.850000e+00
   N6a TX1eq  1 3.950000e-01    1.850000e+00
   N5a TX1eq  1 3.950000e-01    2.110000e+00
   N4a TX1eq  1 3.950000e-01    2.110000e+00
   N3a TX1eq  1 3.950000e-01    2.310000e+00
   N2a TX1eq  1 3.950000e-01    2.310000e+00
   N1a TX1eq  1 3.950000e-01    2.310000e+00
   C6e TX2eq  1 3.950000e-01    2.500000e+00
   C5e TX2eq  1 3.950000e-01    2.310000e+00
   C4e TX2eq  1 3.950000e-01    2.310000e+00
   C3e TX2eq  1 3.950000e-01    2.310000e+00
   C2e TX2eq  1 3.950000e-01    2.310000e+00
   C1e TX2eq  1 3.950000e-01    2.310000e+00
   X4e TX2eq  1 3.950000e-01    2.500000e+00
   X3e TX2eq  1 3.950000e-01    2.700000e+00
   C6v TX2eq  1 3.950000e-01    3.190000e+00
   C5v TX2eq  1 3.950000e-01    2.940000e+00
   C4v TX2eq  1 3.950000e-01    2.940000e+00
   C3v TX2eq  1 3.950000e-01    2.940000e+00
   C2v TX2eq  1 3.950000e-01    2.940000e+00
   C1v TX2eq  1 3.950000e-01    2.940000e+00
   X4v TX2eq  1 3.950000e-01    3.190000e+00
   X3v TX2eq  1 3.950000e-01    3.430000e+00
   X2v TX2eq  1 3.950000e-01    3.430000e+00
  X2eq  TX1v  1 3.950000e-01    3.430000e+00
   P6d TX2eq  1 3.950000e-01    2.310000e+00
   P5d TX2eq  1 3.950000e-01    2.500000e+00
   P4d TX2eq  1 3.950000e-01    2.500000e+00
   P3d TX2eq  1 3.950000e-01    2.500000e+00
   P2d TX2eq  1 3.950000e-01    2.500000e+00
   P1d TX2eq  1 3.950000e-01    2.500000e+00
   N6d TX2eq  1 3.950000e-01    2.500000e+00
   N5d TX2eq  1 3.950000e-01    2.700000e+00
   N4d TX2eq  1 3.950000e-01    2.700000e+00
   N3d TX2eq  1 3.950000e-01    2.700000e+00
   N2d TX2eq  1 3.950000e-01    2.700000e+00
   N1d TX2eq  1 3.950000e-01    2.700000e+00
   P6a TX2eq  1 3.950000e-01    1.850000e+00
   P5a TX2eq  1 3.950000e-01    2.110000e+00
   P4a TX2eq  1 3.950000e-01    2.110000e+00
   P3a TX2eq  1 3.950000e-01    2.110000e+00
   P2a TX2eq  1 3.950000e-01    2.110000e+00
   P1a TX2eq  1 3.950000e-01    2.110000e+00
   N6a TX2eq  1 3.950000e-01    2.110000e+00
   N5a TX2eq  1 3.950000e-01    2.310000e+00
   N4a TX2eq  1 3.950000e-01    2.310000e+00
   N3a TX2eq  1 3.950000e-01    2.310000e+00
   N2a TX2eq  1 3.950000e-01    2.310000e+00
   N1a TX2eq  1 3.950000e-01    2.310000e+00
   C6e TX3eq  1 3.950000e-01    2.500000e+00
   C5e TX3eq  1 3.950000e-01    2.310000e+00
   C4e TX3eq  1 3.950000e-01    2.310000e+00
   C3e TX3eq  1 3.950000e-01    2.310000e+00
   C2e TX3eq  1 3.950000e-01    2.310000e+00
   C1e TX3eq  1 3.950000e-01    2.310000e+00
   X4e TX3eq  1 3.950000e-01    2.500000e+00
   C6v TX3eq  1 3.950000e-01    3.190000e+00
   C5v TX3eq  1 3.950000e-01    2.940000e+00
   C4v TX3eq  1 3.950000e-01    2.940000e+00
   C3v TX3eq  1 3.950000e-01    2.940000e+00
   C2v TX3eq  1 3.950000e-01    2.940000e+00
   C1v TX3eq  1 3.950000e-01    2.940000e+00
   X4v TX3eq  1 3.950000e-01    3.190000e+00
   X3v TX3eq  1 3.950000e-01    3.190000e+00
  X3eq  TX2v  1 3.950000e-01    3.430000e+00
  X3eq  TX1v  1 3.950000e-01    3.430000e+00
   P6d TX3eq  1 3.950000e-01    2.500000e+00
   P5d TX3eq  1 3.950000e-01    2.500000e+00
   P4d TX3eq  1 3.950000e-01    2.500000e+00
   P3d TX3eq  1 3.950000e-01    2.700000e+00
   P2d TX3eq  1 3.950000e-01    2.700000e+00
   P1d TX3eq  1 3.950000e-01    2.700000e+00
   N6d TX3eq  1 3.950000e-01    2.700000e+00
   N5d TX3eq  1 3.950000e-01    2.940000e+00
   N4d TX3eq  1 3.950000e-01    3.190000e+00
   N3d TX3eq  1 3.950000e-01    2.940000e+00
   N2d TX3eq  1 3.950000e-01    2.940000e+00
   N1d TX3eq  1 3.950000e-01    2.940000e+00
   P6a TX3eq  1 3.950000e-01    2.110000e+00
   P5a TX3eq  1 3.950000e-01    2.110000e+00
   P4a TX3eq  1 3.950000e-01    2.110000e+00
   P3a TX3eq  1 3.950000e-01    2.310000e+00
   P2a TX3eq  1 3.950000e-01    2.310000e+00
   P1a TX3eq  1 3.950000e-01    2.310000e+00
   N6a TX3eq  1 3.950000e-01    2.310000e+00
   N5a TX3eq  1 3.950000e-01    2.500000e+00
   N4a TX3eq  1 3.950000e-01    2.700000e+00
   N3a TX3eq  1 3.950000e-01    2.500000e+00
   N2a TX3eq  1 3.950000e-01    2.500000e+00
   N1a TX3eq  1 3.950000e-01    2.500000e+00
   C6e TX4eq  1 3.950000e-01    2.500000e+00
   C5e TX4eq  1 3.950000e-01    2.310000e+00
   C4e TX4eq  1 3.950000e-01    2.310000e+00
   C3e TX4eq  1 3.950000e-01    2.310000e+00
   C2e TX4eq  1 3.950000e-01    1.850000e+00
   C1e TX4eq  1 3.950000e-01    1.850000e+00
   C6v TX4eq  1 3.950000e-01    3.190000e+00
   C5v TX4eq  1 3.950000e-01    2.940000e+00
   C4v TX4eq  1 3.950000e-01    2.940000e+00
   C3v TX4eq  1 3.950000e-01    2.940000e+00
   C2v TX4eq  1 3.950000e-01    2.500000e+00
   C1v TX4eq  1 3.950000e-01    2.500000e+00
   X4v TX4eq  1 3.950000e-01    3.190000e+00
  X4eq  TX3v  1 3.950000e-01    3.190000e+00
  X4eq  TX2v  1 3.950000e-01    3.190000e+00
  X4eq  TX1v  1 3.950000e-01    3.190000e+00
   P6d TX4eq  1 3.950000e-01    2.500000e+00
   P5d TX4eq  1 3.950000e-01    2.700000e+00
   P4d TX4eq  1 3.950000e-01    2.700000e+00
   P3d TX4eq  1 3.950000e-01    2.700000e+00
   P2d TX4eq  1 3.950000e-01    2.700000e+00
   P1d TX4eq  1 3.950000e-01    2.700000e+00
   N6d TX4eq  1 3.950000e-01    2.940000e+00
   N5d TX4eq  1 3.950000e-01    3.190000e+00
   N4d TX4eq  1 3.950000e-01    3.430000e+00
   N3d TX4eq  1 3.950000e-01    3.190000e+00
   N2d TX4eq  1 3.950000e-01    3.190000e+00
   N1d TX4eq  1 3.950000e-01    2.940000e+00
   P6a TX4eq  1 3.950000e-01    2.110000e+00
   P5a TX4eq  1 3.950000e-01    2.310000e+00
   P4a TX4eq  1 3.950000e-01    2.310000e+00
   P3a TX4eq  1 3.950000e-01    2.310000e+00
   P2a TX4eq  1 3.950000e-01    2.310000e+00
   P1a TX4eq  1 3.950000e-01    2.310000e+00
   N6a TX4eq  1 3.950000e-01    2.500000e+00
   N5a TX4eq  1 3.950000e-01    2.700000e+00
   N4a TX4eq  1 3.950000e-01    2.940000e+00
   N3a TX4eq  1 3.950000e-01    2.700000e+00
   N2a TX4eq  1 3.950000e-01    2.700000e+00
   N1a TX4eq  1 3.950000e-01    2.500000e+00
   C6e TC1eq  1 3.950000e-01    1.850000e+00
   C5e TC1eq  1 3.950000e-01    2.110000e+00
   C4e TC1eq  1 3.950000e-01    2.110000e+00
   C3e TC1eq  1 3.950000e-01    2.500000e+00
   C2e TC1eq  1 3.950000e-01    2.700000e+00
   C6v TC1eq  1 3.950000e-01    2.500000e+00
   C5v TC1eq  1 3.950000e-01    2.700000e+00
   C4v TC1eq  1 3.950000e-01    2.700000e+00
   C3v TC1eq  1 3.950000e-01    3.190000e+00
   C2v TC1eq  1 3.950000e-01    3.430000e+00
   C1v TC1eq  1 3.950000e-01    3.190000e+00
  C1eq  TX4v  1 3.950000e-01    2.500000e+00
  C1eq  TX3v  1 3.950000e-01    2.940000e+00
  C1eq  TX2v  1 3.950000e-01    2.940000e+00
  C1eq  TX1v  1 3.950000e-01    2.940000e+00
   P6d TC1eq  1 3.990000e-01    1.180000e+00
   P5d TC1eq  1 3.950000e-01    1.670000e+00
   P4d TC1eq  1 3.950000e-01    1.670000e+00
   P3d TC1eq  1 3.950000e-01    1.670000e+00
   P2d TC1eq  1 3.950000e-01    1.850000e+00
   P1d TC1eq  1 3.950000e-01    1.850000e+00
   N6d TC1eq  1 3.950000e-01    2.110000e+00
   N5d TC1eq  1 3.950000e-01    2.110000e+00
   N4d TC1eq  1 3.950000e-01    2.110000e+00
   N3d TC1eq  1 3.950000e-01    2.310000e+00
   N2d TC1eq  1 3.950000e-01    2.310000e+00
   N1d TC1eq  1 3.950000e-01    2.310000e+00
   P6a TC1eq  1 4.040000e-01    8.300000e-01
   P5a TC1eq  1 3.990000e-01    1.180000e+00
   P4a TC1eq  1 3.990000e-01    1.180000e+00
   P3a TC1eq  1 3.990000e-01    1.180000e+00
   P2a TC1eq  1 3.980000e-01    1.450000e+00
   P1a TC1eq  1 3.980000e-01    1.450000e+00
   N6a TC1eq  1 3.950000e-01    1.670000e+00
   N5a TC1eq  1 3.950000e-01    1.670000e+00
   N4a TC1eq  1 3.950000e-01    1.670000e+00
   N3a TC1eq  1 3.950000e-01    1.850000e+00
   N2a TC1eq  1 3.950000e-01    1.850000e+00
   N1a TC1eq  1 3.950000e-01    1.850000e+00
   C6e TC2eq  1 3.950000e-01    2.110000e+00
   C5e TC2eq  1 3.950000e-01    2.110000e+00
   C4e TC2eq  1 3.950000e-01    2.310000e+00
   C3e TC2eq  1 3.950000e-01    2.500000e+00
   C6v TC2eq  1 3.950000e-01    2.700000e+00
   C5v TC2eq  1 3.950000e-01    2.700000e+00
   C4v TC2eq  1 3.950000e-01    2.940000e+00
   C3v TC2eq  1 3.950000e-01    3.190000e+00
   C2v TC2eq  1 3.950000e-01    3.190000e+00
  C2eq  TC1v  1 3.950000e-01    3.430000e+00
  C2eq  TX4v  1 3.950000e-01    2.500000e+00
  C2eq  TX3v  1 3.950000e-01    2.940000e+00
  C2eq  TX2v  1 3.950000e-01    2.940000e+00
  C2eq  TX1v  1 3.950000e-01    2.940000e+00
   P6d TC2eq  1 3.950000e-01    1.670000e+00
   P5d TC2eq  1 3.950000e-01    1.850000e+00
   P4d TC2eq  1 3.950000e-01    1.850000e+00
   P3d TC2eq  1 3.950000e-01    1.850000e+00
   P2d TC2eq  1 3.950000e-01    2.110000e+00
   P1d TC2eq  1 3.950000e-01    2.110000e+00
   N6d TC2eq  1 3.950000e-01    2.310000e+00
   N5d TC2eq  1 3.950000e-01    2.310000e+00
   N4d TC2eq  1 3.950000e-01    2.310000e+00
   N3d TC2eq  1 3.950000e-01    2.500000e+00
   N2d TC2eq  1 3.950000e-01    2.500000e+00
   N1d TC2eq  1 3.950000e-01    2.500000e+00
   P6a TC2eq  1 3.990000e-01    1.180000e+00
   P5a TC2eq  1 3.980000e-01    1.450000e+00
   P4a TC2eq  1 3.980000e-01    1.450000e+00
   P3a TC2eq  1 3.980000e-01    1.450000e+00
   P2a TC2eq  1 3.950000e-01    1.670000e+00
   P1a TC2eq  1 3.950000e-01    1.670000e+00
   N6a TC2eq  1 3.950000e-01    1.850000e+00
   N5a TC2eq  1 3.950000e-01    1.850000e+00
   N4a TC2eq  1 3.950000e-01    1.850000e+00
   N3a TC2eq  1 3.950000e-01    2.110000e+00
   N2a TC2eq  1 3.950000e-01    2.110000e+00
   N1a TC2eq  1 3.950000e-01    2.110000e+00
   C6e TC3eq  1 3.950000e-01    2.310000e+00
   C5e TC3eq  1 3.950000e-01    2.310000e+00
   C4e TC3eq  1 3.950000e-01    2.500000e+00
   C6v TC3eq  1 3.950000e-01    2.940000e+00
   C5v TC3eq  1 3.950000e-01    2.940000e+00
   C4v TC3eq  1 3.950000e-01    3.190000e+00
   C3v TC3eq  1 3.950000e-01    3.190000e+00
  C3eq  TC2v  1 3.950000e-01    3.190000e+00
  C3eq  TC1v  1 3.950000e-01    3.190000e+00
  C3eq  TX4v  1 3.950000e-01    2.940000e+00
  C3eq  TX3v  1 3.950000e-01    2.940000e+00
  C3eq  TX2v  1 3.950000e-01    2.940000e+00
  C3eq  TX1v  1 3.950000e-01    3.190000e+00
   P6d TC3eq  1 3.950000e-01    1.670000e+00
   P5d TC3eq  1 3.950000e-01    1.850000e+00
   P4d TC3eq  1 3.950000e-01    1.850000e+00
   P3d TC3eq  1 3.950000e-01    1.850000e+00
   P2d TC3eq  1 3.950000e-01    2.110000e+00
   P1d TC3eq  1 3.950000e-01    2.110000e+00
   N6d TC3eq  1 3.950000e-01    2.310000e+00
   N5d TC3eq  1 3.950000e-01    2.500000e+00
   N4d TC3eq  1 3.950000e-01    2.500000e+00
   N3d TC3eq  1 3.950000e-01    2.500000e+00
   N2d TC3eq  1 3.950000e-01    2.700000e+00
   N1d TC3eq  1 3.950000e-01    2.700000e+00
   P6a TC3eq  1 3.990000e-01    1.180000e+00
   P5a TC3eq  1 3.980000e-01    1.450000e+00
   P4a TC3eq  1 3.980000e-01    1.450000e+00
   P3a TC3eq  1 3.980000e-01    1.450000e+00
   P2a TC3eq  1 3.950000e-01    1.670000e+00
   P1a TC3eq  1 3.950000e-01    1.670000e+00
   N6a TC3eq  1 3.950000e-01    1.850000e+00
   N5a TC3eq  1 3.950000e-01    2.110000e+00
   N4a TC3eq  1 3.950000e-01    2.110000e+00
   N3a TC3eq  1 3.950000e-01    2.110000e+00
   N2a TC3eq  1 3.950000e-01    2.310000e+00
   N1a TC3eq  1 3.950000e-01    2.310000e+00
   C6e TC4eq  1 3.950000e-01    2.500000e+00
   C5e TC4eq  1 3.950000e-01    2.500000e+00
   C6v TC4eq  1 3.950000e-01    3.190000e+00
   C5v TC4eq  1 3.950000e-01    3.190000e+00
   C4v TC4eq  1 3.950000e-01    3.190000e+00
  C4eq  TC3v  1 3.950000e-01    3.190000e+00
  C4eq  TC2v  1 3.950000e-01    2.940000e+00
  C4eq  TC1v  1 3.950000e-01    2.700000e+00
  C4eq  TX4v  1 3.950000e-01    2.940000e+00
  C4eq  TX3v  1 3.950000e-01    2.940000e+00
  C4eq  TX2v  1 3.950000e-01    2.940000e+00
  C4eq  TX1v  1 3.950000e-01    3.190000e+00
   P6d TC4eq  1 3.950000e-01    1.850000e+00
   P5d TC4eq  1 3.950000e-01    2.110000e+00
   P4d TC4eq  1 3.950000e-01    2.110000e+00
   P3d TC4eq  1 3.950000e-01    2.310000e+00
   P2d TC4eq  1 3.950000e-01    2.310000e+00
   P1d TC4eq  1 3.950000e-01    2.310000e+00
   N6d TC4eq  1 3.950000e-01    2.500000e+00
   N5d TC4eq  1 3.950000e-01    2.500000e+00
   N4d TC4eq  1 3.950000e-01    2.700000e+00
   N3d TC4eq  1 3.950000e-01    2.700000e+00
   N2d TC4eq  1 3.950000e-01    2.700000e+00
   N1d TC4eq  1 3.950000e-01    2.940000e+00
   P6a TC4eq  1 3.980000e-01    1.450000e+00
   P5a TC4eq  1 3.950000e-01    1.670000e+00
   P4a TC4eq  1 3.950000e-01    1.670000e+00
   P3a TC4eq  1 3.950000e-01    1.850000e+00
   P2a TC4eq  1 3.950000e-01    1.850000e+00
   P1a TC4eq  1 3.950000e-01    1.850000e+00
   N6a TC4eq  1 3.950000e-01    2.110000e+00
   N5a TC4eq  1 3.950000e-01    2.110000e+00
   N4a TC4eq  1 3.950000e-01    2.310000e+00
   N3a TC4eq  1 3.950000e-01    2.310000e+00
   N2a TC4eq  1 3.950000e-01    2.310000e+00
   N1a TC4eq  1 3.950000e-01    2.500000e+00
   C6e TC5eq  1 3.950000e-01    2.500000e+00
   C6v TC5eq  1 3.950000e-01    3.190000e+00
   C5v TC5eq  1 3.950000e-01    3.190000e+00
  C5eq  TC4v  1 3.950000e-01    3.190000e+00
  C5eq  TC3v  1 3.950000e-01    2.940000e+00
  C5eq  TC2v  1 3.950000e-01    2.700000e+00
  C5eq  TC1v  1 3.950000e-01    2.700000e+00
  C5eq  TX4v  1 3.950000e-01    2.940000e+00
  C5eq  TX3v  1 3.950000e-01    2.940000e+00
  C5eq  TX2v  1 3.950000e-01    2.940000e+00
  C5eq  TX1v  1 3.950000e-01    3.190000e+00
   P6d TC5eq  1 3.950000e-01    2.110000e+00
   P5d TC5eq  1 3.950000e-01    2.310000e+00
   P4d TC5eq  1 3.950000e-01    2.310000e+00
   P3d TC5eq  1 3.950000e-01    2.500000e+00
   P2d TC5eq  1 3.950000e-01    2.500000e+00
   P1d TC5eq  1 3.950000e-01    2.500000e+00
   N6d TC5eq  1 3.950000e-01    2.700000e+00
   N5d TC5eq  1 3.950000e-01    2.700000e+00
   N4d TC5eq  1 3.950000e-01    2.700000e+00
   N3d TC5eq  1 3.950000e-01    2.700000e+00
   N2d TC5eq  1 3.950000e-01    2.700000e+00
   N1d TC5eq  1 3.950000e-01    2.940000e+00
   P6a TC5eq  1 3.950000e-01    1.670000e+00
   P5a TC5eq  1 3.950000e-01    1.850000e+00
   P4a TC5eq  1 3.950000e-01    1.850000e+00
   P3a TC5eq  1 3.950000e-01    2.110000e+00
   P2a TC5eq  1 3.950000e-01    2.110000e+00
   P1a TC5eq  1 3.950000e-01    2.110000e+00
   N6a TC5eq  1 3.950000e-01    2.310000e+00
   N5a TC5eq  1 3.950000e-01    2.310000e+00
   N4a TC5eq  1 3.950000e-01    2.310000e+00
   N3a TC5eq  1 3.950000e-01    2.310000e+00
   N2a TC5eq  1 3.950000e-01    2.310000e+00
   N1a TC5eq  1 3.950000e-01    2.500000e+00
   C6v TC6eq  1 3.950000e-01    3.430000e+00
  C6eq  TC5v  1 3.950000e-01    3.190000e+00
  C6eq  TC4v  1 3.950000e-01    3.190000e+00
  C6eq  TC3v  1 3.950000e-01    2.940000e+00
  C6eq  TC2v  1 3.950000e-01    2.700000e+00
  C6eq  TC1v  1 3.950000e-01    2.500000e+00
  C6eq  TX4v  1 3.950000e-01    3.190000e+00
  C6eq  TX3v  1 3.950000e-01    3.190000e+00
  C6eq  TX2v  1 3.950000e-01    3.190000e+00
  C6eq  TX1v  1 3.950000e-01    3.190000e+00
   P6d TC6eq  1 3.950000e-01    2.310000e+00
   P5d TC6eq  1 3.950000e-01    2.310000e+00
   P4d TC6eq  1 3.950000e-01    2.500000e+00
   P3d TC6eq  1 3.950000e-01    2.700000e+00
   P2d TC6eq  1 3.950000e-01    2.700000e+00
   P1d TC6eq  1 3.950000e-01    2.700000e+00
   N6d TC6eq  1 3.950000e-01    2.940000e+00
   N5d TC6eq  1 3.950000e-01    2.940000e+00
   N4d TC6eq  1 3.950000e-01    2.940000e+00
   N3d TC6eq  1 3.950000e-01    2.940000e+00
   N2d TC6eq  1 3.950000e-01    2.940000e+00
   N1d TC6eq  1 3.950000e-01    3.190000e+00
   P6a TC6eq  1 3.950000e-01    1.850000e+00
   P5a TC6eq  1 3.950000e-01    1.850000e+00
   P4a TC6eq  1 3.950000e-01    2.110000e+00
   P3a TC6eq  1 3.950000e-01    2.310000e+00
   P2a TC6eq  1 3.950000e-01    2.310000e+00
   P1a TC6eq  1 3.950000e-01    2.310000e+00
   N6a TC6eq  1 3.950000e-01    2.500000e+00
   N5a TC6eq  1 3.950000e-01    2.500000e+00
   N4a TC6eq  1 3.950000e-01    2.500000e+00
   N3a TC6eq  1 3.950000e-01    2.500000e+00
   N2a TC6eq  1 3.950000e-01    2.500000e+00
   N1a TC6eq  1 3.950000e-01    2.700000e+00
   C6v TX1vq  1 3.950000e-01    2.500000e+00
   C5v TX1vq  1 3.950000e-01    2.500000e+00
   C4v TX1vq  1 3.950000e-01    2.500000e+00
   C3v TX1vq  1 3.950000e-01    2.500000e+00
   C2v TX1vq  1 3.950000e-01    2.310000e+00
   C1v TX1vq  1 3.950000e-01    2.310000e+00
   X4v TX1vq  1 3.950000e-01    2.500000e+00
   X3v TX1vq  1 3.950000e-01    2.700000e+00
   X2v TX1vq  1 3.950000e-01    2.700000e+00
   P6a TX1vq  1 3.950000e-01    2.110000e+00
   P5a TX1vq  1 3.950000e-01    2.110000e+00
   P4a TX1vq  1 3.950000e-01    2.310000e+00
   P3a TX1vq  1 3.950000e-01    2.310000e+00
   P2a TX1vq  1 3.950000e-01    2.310000e+00
   P1a TX1vq  1 3.950000e-01    2.310000e+00
   N6a TX1vq  1 3.950000e-01    2.310000e+00
   N5a TX1vq  1 3.950000e-01    2.500000e+00
   N4a TX1vq  1 3.950000e-01    2.500000e+00
   N3a TX1vq  1 3.950000e-01    2.700000e+00
   N2a TX1vq  1 3.950000e-01    2.700000e+00
   N1a TX1vq  1 3.950000e-01    2.700000e+00
   P6d TX1vq  1 3.950000e-01    1.670000e+00
   P5d TX1vq  1 3.950000e-01    1.670000e+00
   P4d TX1vq  1 3.950000e-01    1.850000e+00
   P3d TX1vq  1 3.950000e-01    1.850000e+00
   P2d TX1vq  1 3.950000e-01    1.850000e+00
   P1d TX1vq  1 3.950000e-01    1.850000e+00
   N6d TX1vq  1 3.950000e-01    1.850000e+00
   N5d TX1vq  1 3.950000e-01    2.110000e+00
   N4d TX1vq  1 3.950000e-01    2.110000e+00
   N3d TX1vq  1 3.950000e-01    2.310000e+00
   N2d TX1vq  1 3.950000e-01    2.310000e+00
   N1d TX1vq  1 3.950000e-01    2.310000e+00
   C6v TX2vq  1 3.950000e-01    2.500000e+00
   C5v TX2vq  1 3.950000e-01    2.310000e+00
   C4v TX2vq  1 3.950000e-01    2.310000e+00
   C3v TX2vq  1 3.950000e-01    2.310000e+00
   C2v TX2vq  1 3.950000e-01    2.310000e+00
   C1v TX2vq  1 3.950000e-01    2.310000e+00
   X4v TX2vq  1 3.950000e-01    2.500000e+00
   X3v TX2vq  1 3.950000e-01    2.700000e+00
   P6a TX2vq  1 3.950000e-01    2.310000e+00
   P5a TX2vq  1 3.950000e-01    2.500000e+00
   P4a TX2vq  1 3.950000e-01    2.500000e+00
   P3a TX2vq  1 3.950000e-01    2.500000e+00
   P2a TX2vq  1 3.950000e-01    2.500000e+00
   P1a TX2vq  1 3.950000e-01    2.500000e+00
   N6a TX2vq  1 3.950000e-01    2.500000e+00
   N5a TX2vq  1 3.950000e-01    2.700000e+00
   N4a TX2vq  1 3.950000e-01    2.700000e+00
   N3a TX2vq  1 3.950000e-01    2.700000e+00
   N2a TX2vq  1 3.950000e-01    2.700000e+00
   N1a TX2vq  1 3.950000e-01    2.700000e+00
   P6d TX2vq  1 3.950000e-01    1.850000e+00
   P5d TX2vq  1 3.950000e-01    2.110000e+00
   P4d TX2vq  1 3.950000e-01    2.110000e+00
   P3d TX2vq  1 3.950000e-01    2.110000e+00
   P2d TX2vq  1 3.950000e-01    2.110000e+00
   P1d TX2vq  1 3.950000e-01    2.110000e+00
   N6d TX2vq  1 3.950000e-01    2.110000e+00
   N5d TX2vq  1 3.950000e-01    2.310000e+00
   N4d TX2vq  1 3.950000e-01    2.310000e+00
   N3d TX2vq  1 3.950000e-01    2.310000e+00
   N2d TX2vq  1 3.950000e-01    2.310000e+00
   N1d TX2vq  1 3.950000e-01    2.310000e+00
   C6v TX3vq  1 3.950000e-01    2.500000e+00
   C5v TX3vq  1 3.950000e-01    2.310000e+00
   C4v TX3vq  1 3.950000e-01    2.310000e+00
   C3v TX3vq  1 3.950000e-01    2.310000e+00
   C2v TX3vq  1 3.950000e-01    2.310000e+00
   C1v TX3vq  1 3.950000e-01    2.310000e+00
   X4v TX3vq  1 3.950000e-01    2.500000e+00
   P6a TX3vq  1 3.950000e-01    2.500000e+00
   P5a TX3vq  1 3.950000e-01    2.500000e+00
   P4a TX3vq  1 3.950000e-01    2.500000e+00
   P3a TX3vq  1 3.950000e-01    2.700000e+00
   P2a TX3vq  1 3.950000e-01    2.700000e+00
   P1a TX3vq  1 3.950000e-01    2.700000e+00
   N6a TX3vq  1 3.950000e-01    2.700000e+00
   N5a TX3vq  1 3.950000e-01    2.940000e+00
   N4a TX3vq  1 3.950000e-01    3.190000e+00
   N3a TX3vq  1 3.950000e-01    2.940000e+00
   N2a TX3vq  1 3.950000e-01    2.940000e+00
   N1a TX3vq  1 3.950000e-01    2.940000e+00
   P6d TX3vq  1 3.950000e-01    2.110000e+00
   P5d TX3vq  1 3.950000e-01    2.110000e+00
   P4d TX3vq  1 3.950000e-01    2.110000e+00
   P3d TX3vq  1 3.950000e-01    2.310000e+00
   P2d TX3vq  1 3.950000e-01    2.310000e+00
   P1d TX3vq  1 3.950000e-01    2.310000e+00
   N6d TX3vq  1 3.950000e-01    2.310000e+00
   N5d TX3vq  1 3.950000e-01    2.500000e+00
   N4d TX3vq  1 3.950000e-01    2.700000e+00
   N3d TX3vq  1 3.950000e-01    2.500000e+00
   N2d TX3vq  1 3.950000e-01    2.500000e+00
   N1d TX3vq  1 3.950000e-01    2.500000e+00
   C6v TX4vq  1 3.950000e-01    2.500000e+00
   C5v TX4vq  1 3.950000e-01    2.310000e+00
   C4v TX4vq  1 3.950000e-01    2.310000e+00
   C3v TX4vq  1 3.950000e-01    2.310000e+00
   C2v TX4vq  1 3.950000e-01    1.850000e+00
   C1v TX4vq  1 3.950000e-01    1.850000e+00
   P6a TX4vq  1 3.950000e-01    2.500000e+00
   P5a TX4vq  1 3.950000e-01    2.700000e+00
   P4a TX4vq  1 3.950000e-01    2.700000e+00
   P3a TX4vq  1 3.950000e-01    2.700000e+00
   P2a TX4vq  1 3.950000e-01    2.700000e+00
   P1a TX4vq  1 3.950000e-01    2.700000e+00
   N6a TX4vq  1 3.950000e-01    2.940000e+00
   N5a TX4vq  1 3.950000e-01    3.190000e+00
   N4a TX4vq  1 3.950000e-01    3.430000e+00
   N3a TX4vq  1 3.950000e-01    3.190000e+00
   N2a TX4vq  1 3.950000e-01    3.190000e+00
   N1a TX4vq  1 3.950000e-01    2.940000e+00
   P6d TX4vq  1 3.950000e-01    2.110000e+00
   P5d TX4vq  1 3.950000e-01    2.310000e+00
   P4d TX4vq  1 3.950000e-01    2.310000e+00
   P3d TX4vq  1 3.950000e-01    2.310000e+00
   P2d TX4vq  1 3.950000e-01    2.310000e+00
   P1d TX4vq  1 3.950000e-01    2.310000e+00
   N6d TX4vq  1 3.950000e-01    2.500000e+00
   N5d TX4vq  1 3.950000e-01    2.700000e+00
   N4d TX4vq  1 3.950000e-01    2.940000e+00
   N3d TX4vq  1 3.950000e-01    2.700000e+00
   N2d TX4vq  1 3.950000e-01    2.700000e+00
   N1d TX4vq  1 3.950000e-01    2.500000e+00
   C6v TC1vq  1 3.950000e-01    1.850000e+00
   C5v TC1vq  1 3.950000e-01    2.110000e+00
   C4v TC1vq  1 3.950000e-01    2.110000e+00
   C3v TC1vq  1 3.950000e-01    2.500000e+00
   C2v TC1vq  1 3.950000e-01    2.700000e+00
   P6a TC1vq  1 3.990000e-01    1.180000e+00
   P5a TC1vq  1 3.950000e-01    1.670000e+00
   P4a TC1vq  1 3.950000e-01    1.670000e+00
   P3a TC1vq  1 3.950000e-01    1.670000e+00
   P2a TC1vq  1 3.950000e-01    1.850000e+00
   P1a TC1vq  1 3.950000e-01    1.850000e+00
   N6a TC1vq  1 3.950000e-01    2.110000e+00
   N5a TC1vq  1 3.950000e-01    2.110000e+00
   N4a TC1vq  1 3.950000e-01    2.110000e+00
   N3a TC1vq  1 3.950000e-01    2.310000e+00
   N2a TC1vq  1 3.950000e-01    2.310000e+00
   N1a TC1vq  1 3.950000e-01    2.310000e+00
   P6d TC1vq  1 4.040000e-01    8.300000e-01
   P5d TC1vq  1 3.990000e-01    1.180000e+00
   P4d TC1vq  1 3.990000e-01    1.180000e+00
   P3d TC1vq  1 3.990000e-01    1.180000e+00
   P2d TC1vq  1 3.980000e-01    1.450000e+00
   P1d TC1vq  1 3.980000e-01    1.450000e+00
   N6d TC1vq  1 3.950000e-01    1.670000e+00
   N5d TC1vq  1 3.950000e-01    1.670000e+00
   N4d TC1vq  1 3.950000e-01    1.670000e+00
   N3d TC1vq  1 3.950000e-01    1.850000e+00
   N2d TC1vq  1 3.950000e-01    1.850000e+00
   N1d TC1vq  1 3.950000e-01    1.850000e+00
   C6v TC2vq  1 3.950000e-01    2.110000e+00
   C5v TC2vq  1 3.950000e-01    2.110000e+00
   C4v TC2vq  1 3.950000e-01    2.310000e+00
   C3v TC2vq  1 3.950000e-01    2.500000e+00
   P6a TC2vq  1 3.950000e-01    1.670000e+00
   P5a TC2vq  1 3.950000e-01    1.850000e+00
   P4a TC2vq  1 3.950000e-01    1.850000e+00
   P3a TC2vq  1 3.950000e-01    1.850000e+00
   P2a TC2vq  1 3.950000e-01    2.110000e+00
   P1a TC2vq  1 3.950000e-01    2.110000e+00
   N6a TC2vq  1 3.950000e-01    2.310000e+00
   N5a TC2vq  1 3.950000e-01    2.310000e+00
   N4a TC2vq  1 3.950000e-01    2.310000e+00
   N3a TC2vq  1 3.950000e-01    2.500000e+00
   N2a TC2vq  1 3.950000e-01    2.500000e+00
   N1a TC2vq  1 3.950000e-01    2.500000e+00
   P6d TC2vq  1 3.990000e-01    1.180000e+00
   P5d TC2vq  1 3.980000e-01    1.450000e+00
   P4d TC2vq  1 3.980000e-01    1.450000e+00
   P3d TC2vq  1 3.980000e-01    1.450000e+00
   P2d TC2vq  1 3.950000e-01    1.670000e+00
   P1d TC2vq  1 3.950000e-01    1.670000e+00
   N6d TC2vq  1 3.950000e-01    1.850000e+00
   N5d TC2vq  1 3.950000e-01    1.850000e+00
   N4d TC2vq  1 3.950000e-01    1.850000e+00
   N3d TC2vq  1 3.950000e-01    2.110000e+00
   N2d TC2vq  1 3.950000e-01    2.110000e+00
   N1d TC2vq  1 3.950000e-01    2.110000e+00
   C6v TC3vq  1 3.950000e-01    2.310000e+00
   C5v TC3vq  1 3.950000e-01    2.310000e+00
   C4v TC3vq  1 3.950000e-01    2.500000e+00
   P6a TC3vq  1 3.950000e-01    1.670000e+00
   P5a TC3vq  1 3.950000e-01    1.850000e+00
   P4a TC3vq  1 3.950000e-01    1.850000e+00
   P3a TC3vq  1 3.950000e-01    1.850000e+00
   P2a TC3vq  1 3.950000e-01    2.110000e+00
   P1a TC3vq  1 3.950000e-01    2.110000e+00
   N6a TC3vq  1 3.950000e-01    2.310000e+00
   N5a TC3vq  1 3.950000e-01    2.500000e+00
   N4a TC3vq  1 3.950000e-01    2.500000e+00
   N3a TC3vq  1 3.950000e-01    2.500000e+00
   N2a TC3vq  1 3.950000e-01    2.700000e+00
   N1a TC3vq  1 3.950000e-01    2.700000e+00
   P6d TC3vq  1 3.990000e-01    1.180000e+00
   P5d TC3vq  1 3.980000e-01    1.450000e+00
   P4d TC3vq  1 3.980000e-01    1.450000e+00
   P3d TC3vq  1 3.980000e-01    1.450000e+00
   P2d TC3vq  1 3.950000e-01    1.670000e+00
   P1d TC3vq  1 3.950000e-01    1.670000e+00
   N6d TC3vq  1 3.950000e-01    1.850000e+00
   N5d TC3vq  1 3.950000e-01    2.110000e+00
   N4d TC3vq  1 3.950000e-01    2.110000e+00
   N3d TC3vq  1 3.950000e-01    2.110000e+00
   N2d TC3vq  1 3.950000e-01    2.310000e+00
   N1d TC3vq  1 3.950000e-01    2.310000e+00
   C6v TC4vq  1 3.950000e-01    2.500000e+00
   C5v TC4vq  1 3.950000e-01    2.500000e+00
   P6a TC4vq  1 3.950000e-01    1.850000e+00
   P5a TC4vq  1 3.950000e-01    2.110000e+00
   P4a TC4vq  1 3.950000e-01    2.110000e+00
   P3a TC4vq  1 3.950000e-01    2.310000e+00
   P2a TC4vq  1 3.950000e-01    2.310000e+00
   P1a TC4vq  1 3.950000e-01    2.310000e+00
   N6a TC4vq  1 3.950000e-01    2.500000e+00
   N5a TC4vq  1 3.950000e-01    2.500000e+00
   N4a TC4vq  1 3.950000e-01    2.700000e+00
   N3a TC4vq  1 3.950000e-01    2.700000e+00
   N2a TC4vq  1 3.950000e-01    2.700000e+00
   N1a TC4vq  1 3.950000e-01    2.940000e+00
   P6d TC4vq  1 3.980000e-01    1.450000e+00
   P5d TC4vq  1 3.950000e-01    1.670000e+00
   P4d TC4vq  1 3.950000e-01    1.670000e+00
   P3d TC4vq  1 3.950000e-01    1.850000e+00
   P2d TC4vq  1 3.950000e-01    1.850000e+00
   P1d TC4vq  1 3.950000e-01    1.850000e+00
   N6d TC4vq  1 3.950000e-01    2.110000e+00
   N5d TC4vq  1 3.950000e-01    2.110000e+00
   N4d TC4vq  1 3.950000e-01    2.310000e+00
   N3d TC4vq  1 3.950000e-01    2.310000e+00
   N2d TC4vq  1 3.950000e-01    2.310000e+00
   N1d TC4vq  1 3.950000e-01    2.500000e+00
   C6v TC5vq  1 3.950000e-01    2.500000e+00
   P6a TC5vq  1 3.950000e-01    2.110000e+00
   P5a TC5vq  1 3.950000e-01    2.310000e+00
   P4a TC5vq  1 3.950000e-01    2.310000e+00
   P3a TC5vq  1 3.950000e-01    2.500000e+00
   P2a TC5vq  1 3.950000e-01    2.500000e+00
   P1a TC5vq  1 3.950000e-01    2.500000e+00
   N6a TC5vq  1 3.950000e-01    2.700000e+00
   N5a TC5vq  1 3.950000e-01    2.700000e+00
   N4a TC5vq  1 3.950000e-01    2.700000e+00
   N3a TC5vq  1 3.950000e-01    2.700000e+00
   N2a TC5vq  1 3.950000e-01    2.700000e+00
   N1a TC5vq  1 3.950000e-01    2.940000e+00
   P6d TC5vq  1 3.950000e-01    1.670000e+00
   P5d TC5vq  1 3.950000e-01    1.850000e+00
   P4d TC5vq  1 3.950000e-01    1.850000e+00
   P3d TC5vq  1 3.950000e-01    2.110000e+00
   P2d TC5vq  1 3.950000e-01    2.110000e+00
   P1d TC5vq  1 3.950000e-01    2.110000e+00
   N6d TC5vq  1 3.950000e-01    2.310000e+00
   N5d TC5vq  1 3.950000e-01    2.310000e+00
   N4d TC5vq  1 3.950000e-01    2.310000e+00
   N3d TC5vq  1 3.950000e-01    2.310000e+00
   N2d TC5vq  1 3.950000e-01    2.310000e+00
   N1d TC5vq  1 3.950000e-01    2.500000e+00
   P6a TC6vq  1 3.950000e-01    2.310000e+00
   P5a TC6vq  1 3.950000e-01    2.310000e+00
   P4a TC6vq  1 3.950000e-01    2.500000e+00
   P3a TC6vq  1 3.950000e-01    2.700000e+00
   P2a TC6vq  1 3.950000e-01    2.700000e+00
   P1a TC6vq  1 3.950000e-01    2.700000e+00
   N6a TC6vq  1 3.950000e-01    2.940000e+00
   N5a TC6vq  1 3.950000e-01    2.940000e+00
   N4a TC6vq  1 3.950000e-01    2.940000e+00
   N3a TC6vq  1 3.950000e-01    2.940000e+00
   N2a TC6vq  1 3.950000e-01    2.940000e+00
   N1a TC6vq  1 3.950000e-01    3.190000e+00
   P6d TC6vq  1 3.950000e-01    1.850000e+00
   P5d TC6vq  1 3.950000e-01    1.850000e+00
   P4d TC6vq  1 3.950000e-01    2.110000e+00
   P3d TC6vq  1 3.950000e-01    2.310000e+00
   P2d TC6vq  1 3.950000e-01    2.310000e+00
   P1d TC6vq  1 3.950000e-01    2.310000e+00
   N6d TC6vq  1 3.950000e-01    2.500000e+00
   N5d TC6vq  1 3.950000e-01    2.500000e+00
   N4d TC6vq  1 3.950000e-01    2.500000e+00
   N3d TC6vq  1 3.950000e-01    2.500000e+00
   N2d TC6vq  1 3.950000e-01    2.500000e+00
   N1d TC6vq  1 3.950000e-01    2.700000e+00
   P6a TN1aq  1 3.950000e-01    2.110000e+00
   P5a TN1aq  1 3.950000e-01    2.110000e+00
   P4a TN1aq  1 3.950000e-01    2.310000e+00
   P3a TN1aq  1 3.950000e-01    2.500000e+00
   P2a TN1aq  1 3.950000e-01    2.500000e+00
   P1a TN1aq  1 3.950000e-01    2.500000e+00
   N6a TN1aq  1 3.950000e-01    2.500000e+00
   N5a TN1aq  1 3.950000e-01    2.500000e+00
   N4a TN1aq  1 3.950000e-01    2.500000e+00
   N3a TN1aq  1 3.950000e-01    2.500000e+00
   N2a TN1aq  1 3.950000e-01    2.500000e+00
   P6d TN1aq  1 3.950000e-01    2.110000e+00
   P5d TN1aq  1 3.950000e-01    2.110000e+00
   P4d TN1aq  1 3.950000e-01    2.310000e+00
   P3d TN1aq  1 3.950000e-01    2.500000e+00
   P2d TN1aq  1 3.950000e-01    2.940000e+00
   P1d TN1aq  1 3.950000e-01    2.940000e+00
   N6d TN1aq  1 3.950000e-01    2.940000e+00
   N5d TN1aq  1 3.950000e-01    2.940000e+00
   N4d TN1aq  1 3.950000e-01    2.940000e+00
   N3d TN1aq  1 3.950000e-01    2.940000e+00
   N2d TN1aq  1 3.950000e-01    2.940000e+00
   N1d TN1aq  1 3.950000e-01    3.190000e+00
   P6a TN2aq  1 3.950000e-01    2.310000e+00
   P5a TN2aq  1 3.950000e-01    2.310000e+00
   P4a TN2aq  1 3.950000e-01    2.500000e+00
   P3a TN2aq  1 3.950000e-01    2.500000e+00
   P2a TN2aq  1 3.950000e-01    2.500000e+00
   P1a TN2aq  1 3.950000e-01    2.500000e+00
   N6a TN2aq  1 3.950000e-01    2.500000e+00
   N5a TN2aq  1 3.950000e-01    2.700000e+00
   N4a TN2aq  1 3.950000e-01    2.700000e+00
   N3a TN2aq  1 3.950000e-01    2.700000e+00
   P6d TN2aq  1 3.950000e-01    2.310000e+00
   P5d TN2aq  1 3.950000e-01    2.310000e+00
   P4d TN2aq  1 3.950000e-01    2.500000e+00
   P3d TN2aq  1 3.950000e-01    2.940000e+00
   P2d TN2aq  1 3.950000e-01    2.940000e+00
   P1d TN2aq  1 3.950000e-01    2.940000e+00
   N6d TN2aq  1 3.950000e-01    2.940000e+00
   N5d TN2aq  1 3.950000e-01    3.190000e+00
   N4d TN2aq  1 3.950000e-01    3.190000e+00
   N3d TN2aq  1 3.950000e-01    3.190000e+00
   N2d TN2aq  1 3.950000e-01    3.190000e+00
  N2aq  TN1d  1 3.950000e-01    2.940000e+00
   P6a TN3aq  1 3.950000e-01    2.500000e+00
   P5a TN3aq  1 3.950000e-01    2.500000e+00
   P4a TN3aq  1 3.950000e-01    2.500000e+00
   P3a TN3aq  1 3.950000e-01    2.500000e+00
   P2a TN3aq  1 3.950000e-01    2.500000e+00
   P1a TN3aq  1 3.950000e-01    2.500000e+00
   N6a TN3aq  1 3.950000e-01    2.700000e+00
   N5a TN3aq  1 3.950000e-01    2.700000e+00
   N4a TN3aq  1 3.950000e-01    2.700000e+00
   P6d TN3aq  1 3.950000e-01    2.500000e+00
   P5d TN3aq  1 3.950000e-01    2.500000e+00
   P4d TN3aq  1 3.950000e-01    2.940000e+00
   P3d TN3aq  1 3.950000e-01    2.940000e+00
   P2d TN3aq  1 3.950000e-01    2.940000e+00
   P1d TN3aq  1 3.950000e-01    2.940000e+00
   N6d TN3aq  1 3.950000e-01    3.190000e+00
   N5d TN3aq  1 3.950000e-01    3.190000e+00
   N4d TN3aq  1 3.950000e-01    3.190000e+00
   N3d TN3aq  1 3.950000e-01    3.190000e+00
  N3aq  TN2d  1 3.950000e-01    3.190000e+00
  N3aq  TN1d  1 3.950000e-01    2.940000e+00
   P6a TN4aq  1 3.950000e-01    2.500000e+00
   P5a TN4aq  1 3.950000e-01    2.700000e+00
   P4a TN4aq  1 3.950000e-01    2.700000e+00
   P3a TN4aq  1 3.950000e-01    2.700000e+00
   P2a TN4aq  1 3.950000e-01    2.700000e+00
   P1a TN4aq  1 3.950000e-01    2.940000e+00
   N6a TN4aq  1 3.950000e-01    3.190000e+00
   N5a TN4aq  1 3.950000e-01    2.940000e+00
   P6d TN4aq  1 3.950000e-01    2.940000e+00
   P5d TN4aq  1 3.950000e-01    3.190000e+00
   P4d TN4aq  1 3.950000e-01    3.190000e+00
   P3d TN4aq  1 3.950000e-01    3.190000e+00
   P2d TN4aq  1 3.950000e-01    3.190000e+00
   P1d TN4aq  1 3.950000e-01    3.430000e+00
   N6d TN4aq  1 3.950000e-01    3.670000e+00
   N5d TN4aq  1 3.950000e-01    3.430000e+00
   N4d TN4aq  1 3.950000e-01    3.430000e+00
  N4aq  TN3d  1 3.950000e-01    3.190000e+00
  N4aq  TN2d  1 3.950000e-01    3.190000e+00
  N4aq  TN1d  1 3.950000e-01    2.940000e+00
   P6a TN5aq  1 3.950000e-01    2.700000e+00
   P5a TN5aq  1 3.950000e-01    2.700000e+00
   P4a TN5aq  1 3.950000e-01    2.700000e+00
   P3a TN5aq  1 3.950000e-01    2.700000e+00
   P2a TN5aq  1 3.950000e-01    2.940000e+00
   P1a TN5aq  1 3.950000e-01    2.940000e+00
   N6a TN5aq  1 3.950000e-01    3.190000e+00
   P6d TN5aq  1 3.950000e-01    3.190000e+00
   P5d TN5aq  1 3.950000e-01    3.190000e+00
   P4d TN5aq  1 3.950000e-01    3.190000e+00
   P3d TN5aq  1 3.950000e-01    3.190000e+00
   P2d TN5aq  1 3.950000e-01    3.430000e+00
   P1d TN5aq  1 3.950000e-01    3.430000e+00
   N6d TN5aq  1 3.950000e-01    3.670000e+00
   N5d TN5aq  1 3.950000e-01    3.430000e+00
  N5aq  TN4d  1 3.950000e-01    3.430000e+00
  N5aq  TN3d  1 3.950000e-01    3.190000e+00
  N5aq  TN2d  1 3.950000e-01    3.190000e+00
  N5aq  TN1d  1 3.950000e-01    2.940000e+00
   P6a TN6aq  1 3.950000e-01    3.190000e+00
   P5a TN6aq  1 3.950000e-01    2.940000e+00
   P4a TN6aq  1 3.950000e-01    2.940000e+00
   P3a TN6aq  1 3.950000e-01    2.940000e+00
   P2a TN6aq  1 3.950000e-01    3.190000e+00
   P1a TN6aq  1 3.950000e-01    3.190000e+00
   P6d TN6aq  1 3.950000e-01    3.670000e+00
   P5d TN6aq  1 3.950000e-01    3.430000e+00
   P4d TN6aq  1 3.950000e-01    3.430000e+00
   P3d TN6aq  1 3.950000e-01    3.430000e+00
   P2d TN6aq  1 3.950000e-01    3.670000e+00
   P1d TN6aq  1 3.950000e-01    3.670000e+00
   N6d TN6aq  1 3.950000e-01    3.670000e+00
  N6aq  TN5d  1 3.950000e-01    3.670000e+00
  N6aq  TN4d  1 3.950000e-01    3.670000e+00
  N6aq  TN3d  1 3.950000e-01    3.190000e+00
  N6aq  TN2d  1 3.950000e-01    2.940000e+00
  N6aq  TN1d  1 3.950000e-01    2.940000e+00
   P6a TP1aq  1 3.950000e-01    3.430000e+00
   P5a TP1aq  1 3.950000e-01    3.190000e+00
   P4a TP1aq  1 3.950000e-01    3.190000e+00
   P3a TP1aq  1 3.950000e-01    3.190000e+00
   P2a TP1aq  1 3.950000e-01    3.190000e+00
   P6d TP1aq  1 3.950000e-01    3.910000e+00
   P5d TP1aq  1 3.950000e-01    3.670000e+00
   P4d TP1aq  1 3.950000e-01    3.670000e+00
   P3d TP1aq  1 3.950000e-01    3.670000e+00
   P2d TP1aq  1 3.950000e-01    3.670000e+00
   P1d TP1aq  1 3.950000e-01    3.670000e+00
  P1aq  TN6d  1 3.950000e-01    3.670000e+00
  P1aq  TN5d  1 3.950000e-01    3.430000e+00
  P1aq  TN4d  1 3.950000e-01    3.430000e+00
  P1aq  TN3d  1 3.950000e-01    2.940000e+00
  P1aq  TN2d  1 3.950000e-01    2.940000e+00
  P1aq  TN1d  1 3.950000e-01    2.940000e+00
   P6a TP2aq  1 3.950000e-01    3.670000e+00
   P5a TP2aq  1 3.950000e-01    3.430000e+00
   P4a TP2aq  1 3.950000e-01    3.430000e+00
   P3a TP2aq  1 3.950000e-01    3.430000e+00
   P6d TP2aq  1 3.950000e-01    4.230000e+00
   P5d TP2aq  1 3.950000e-01    3.910000e+00
   P4d TP2aq  1 3.950000e-01    3.910000e+00
   P3d TP2aq  1 3.950000e-01    3.910000e+00
   P2d TP2aq  1 3.950000e-01    3.910000e+00
  P2aq  TP1d  1 3.950000e-01    3.670000e+00
  P2aq  TN6d  1 3.950000e-01    3.670000e+00
  P2aq  TN5d  1 3.950000e-01    3.430000e+00
  P2aq  TN4d  1 3.950000e-01    3.190000e+00
  P2aq  TN3d  1 3.950000e-01    2.940000e+00
  P2aq  TN2d  1 3.950000e-01    2.940000e+00
  P2aq  TN1d  1 3.950000e-01    2.940000e+00
   P6a TP3aq  1 3.950000e-01    3.670000e+00
   P5a TP3aq  1 3.950000e-01    3.430000e+00
   P4a TP3aq  1 3.950000e-01    3.430000e+00
   P6d TP3aq  1 3.950000e-01    4.230000e+00
   P5d TP3aq  1 3.950000e-01    3.910000e+00
   P4d TP3aq  1 3.950000e-01    3.910000e+00
   P3d TP3aq  1 3.950000e-01    3.910000e+00
  P3aq  TP2d  1 3.950000e-01    3.910000e+00
  P3aq  TP1d  1 3.950000e-01    3.670000e+00
  P3aq  TN6d  1 3.950000e-01    3.430000e+00
  P3aq  TN5d  1 3.950000e-01    3.190000e+00
  P3aq  TN4d  1 3.950000e-01    3.190000e+00
  P3aq  TN3d  1 3.950000e-01    2.940000e+00
  P3aq  TN2d  1 3.950000e-01    2.940000e+00
  P3aq  TN1d  1 3.950000e-01    2.500000e+00
   P6a TP4aq  1 3.950000e-01    3.910000e+00
   P5a TP4aq  1 3.950000e-01    3.670000e+00
   P6d TP4aq  1 3.950000e-01    4.540000e+00
   P5d TP4aq  1 3.950000e-01    4.230000e+00
   P4d TP4aq  1 3.950000e-01    4.230000e+00
  P4aq  TP3d  1 3.950000e-01    3.910000e+00
  P4aq  TP2d  1 3.950000e-01    3.910000e+00
  P4aq  TP1d  1 3.950000e-01    3.670000e+00
  P4aq  TN6d  1 3.950000e-01    3.430000e+00
  P4aq  TN5d  1 3.950000e-01    3.190000e+00
  P4aq  TN4d  1 3.950000e-01    3.190000e+00
  P4aq  TN3d  1 3.950000e-01    2.940000e+00
  P4aq  TN2d  1 3.950000e-01    2.500000e+00
  P4aq  TN1d  1 3.950000e-01    2.310000e+00
   P6a TP5aq  1 3.950000e-01    4.230000e+00
   P6d TP5aq  1 3.950000e-01    4.870000e+00
   P5d TP5aq  1 3.950000e-01    4.540000e+00
  P5aq  TP4d  1 3.950000e-01    4.230000e+00
  P5aq  TP3d  1 3.950000e-01    3.910000e+00
  P5aq  TP2d  1 3.950000e-01    3.910000e+00
  P5aq  TP1d  1 3.950000e-01    3.670000e+00
  P5aq  TN6d  1 3.950000e-01    3.430000e+00
  P5aq  TN5d  1 3.950000e-01    3.190000e+00
  P5aq  TN4d  1 3.950000e-01    3.190000e+00
  P5aq  TN3d  1 3.950000e-01    2.500000e+00
  P5aq  TN2d  1 3.950000e-01    2.310000e+00
  P5aq  TN1d  1 3.950000e-01    2.110000e+00
   P6d TP6aq  1 3.950000e-01    5.270000e+00
  P6aq  TP5d  1 3.950000e-01    4.870000e+00
  P6aq  TP4d  1 3.950000e-01    4.540000e+00
  P6aq  TP3d  1 3.950000e-01    4.230000e+00
  P6aq  TP2d  1 3.950000e-01    4.230000e+00
  P6aq  TP1d  1 3.950000e-01    3.910000e+00
  P6aq  TN6d  1 3.950000e-01    3.670000e+00
  P6aq  TN5d  1 3.950000e-01    3.190000e+00
  P6aq  TN4d  1 3.950000e-01    2.940000e+00
  P6aq  TN3d  1 3.950000e-01    2.500000e+00
  P6aq  TN2d  1 3.950000e-01    2.310000e+00
  P6aq  TN1d  1 3.950000e-01    2.110000e+00
   P6d TN1dq  1 3.950000e-01    2.110000e+00
   P5d TN1dq  1 3.950000e-01    2.110000e+00
   P4d TN1dq  1 3.950000e-01    2.310000e+00
   P3d TN1dq  1 3.950000e-01    2.500000e+00
   P2d TN1dq  1 3.950000e-01    2.500000e+00
   P1d TN1dq  1 3.950000e-01    2.500000e+00
   N6d TN1dq  1 3.950000e-01    2.500000e+00
   N5d TN1dq  1 3.950000e-01    2.500000e+00
   N4d TN1dq  1 3.950000e-01    2.500000e+00
   N3d TN1dq  1 3.950000e-01    2.500000e+00
   N2d TN1dq  1 3.950000e-01    2.500000e+00
   P6d TN2dq  1 3.950000e-01    2.310000e+00
   P5d TN2dq  1 3.950000e-01    2.310000e+00
   P4d TN2dq  1 3.950000e-01    2.500000e+00
   P3d TN2dq  1 3.950000e-01    2.500000e+00
   P2d TN2dq  1 3.950000e-01    2.500000e+00
   P1d TN2dq  1 3.950000e-01    2.500000e+00
   N6d TN2dq  1 3.950000e-01    2.500000e+00
   N5d TN2dq  1 3.950000e-01    2.700000e+00
   N4d TN2dq  1 3.950000e-01    2.700000e+00
   N3d TN2dq  1 3.950000e-01    2.700000e+00
   P6d TN3dq  1 3.950000e-01    2.500000e+00
   P5d TN3dq  1 3.950000e-01    2.500000e+00
   P4d TN3dq  1 3.950000e-01    2.500000e+00
   P3d TN3dq  1 3.950000e-01    2.500000e+00
   P2d TN3dq  1 3.950000e-01    2.500000e+00
   P1d TN3dq  1 3.950000e-01    2.500000e+00
   N6d TN3dq  1 3.950000e-01    2.700000e+00
   N5d TN3dq  1 3.950000e-01    2.700000e+00
   N4d TN3dq  1 3.950000e-01    2.700000e+00
   P6d TN4dq  1 3.950000e-01    2.500000e+00
   P5d TN4dq  1 3.950000e-01    2.700000e+00
   P4d TN4dq  1 3.950000e-01    2.700000e+00
   P3d TN4dq  1 3.950000e-01    2.700000e+00
   P2d TN4dq  1 3.950000e-01    2.700000e+00
   P1d TN4dq  1 3.950000e-01    2.940000e+00
   N6d TN4dq  1 3.950000e-01    3.190000e+00
   N5d TN4dq  1 3.950000e-01    2.940000e+00
   P6d TN5dq  1 3.950000e-01    2.700000e+00
   P5d TN5dq  1 3.950000e-01    2.700000e+00
   P4d TN5dq  1 3.950000e-01    2.700000e+00
   P3d TN5dq  1 3.950000e-01    2.700000e+00
   P2d TN5dq  1 3.950000e-01    2.940000e+00
   P1d TN5dq  1 3.950000e-01    2.940000e+00
   N6d TN5dq  1 3.950000e-01    3.190000e+00
   P6d TN6dq  1 3.950000e-01    3.190000e+00
   P5d TN6dq  1 3.950000e-01    2.940000e+00
   P4d TN6dq  1 3.950000e-01    2.940000e+00
   P3d TN6dq  1 3.950000e-01    2.940000e+00
   P2d TN6dq  1 3.950000e-01    3.190000e+00
   P1d TN6dq  1 3.950000e-01    3.190000e+00
   P6d TP1dq  1 3.950000e-01    3.430000e+00
   P5d TP1dq  1 3.950000e-01    3.190000e+00
   P4d TP1dq  1 3.950000e-01    3.190000e+00
   P3d TP1dq  1 3.950000e-01    3.190000e+00
   P2d TP1dq  1 3.950000e-01    3.190000e+00
   P6d TP2dq  1 3.950000e-01    3.670000e+00
   P5d TP2dq  1 3.950000e-01    3.430000e+00
   P4d TP2dq  1 3.950000e-01    3.430000e+00
   P3d TP2dq  1 3.950000e-01    3.430000e+00
   P6d TP3dq  1 3.950000e-01    3.670000e+00
   P5d TP3dq  1 3.950000e-01    3.430000e+00
   P4d TP3dq  1 3.950000e-01    3.430000e+00
   P6d TP4dq  1 3.950000e-01    3.910000e+00
   P5d TP4dq  1 3.950000e-01    3.670000e+00
   P6d TP5dq  1 3.950000e-01    4.230000e+00
   P6q  TP6q  1 3.950000e-01    4.870000e+00
   P6q  TP5q  1 3.950000e-01    4.540000e+00
   P6q  TP4q  1 3.950000e-01    4.230000e+00
   P6q  TP3q  1 3.950000e-01    3.910000e+00
   P6q  TP2q  1 3.950000e-01    3.910000e+00
   P6q  TP1q  1 3.950000e-01    3.670000e+00
   P6q  TN6q  1 3.950000e-01    3.430000e+00
   P6q  TN5q  1 3.950000e-01    2.940000e+00
   P6q  TN4q  1 3.950000e-01    2.700000e+00
   P6q  TN3q  1 3.950000e-01    2.500000e+00
   P6q  TN2q  1 3.950000e-01    2.310000e+00
   P6q  TN1q  1 3.950000e-01    2.110000e+00
   P6q  TC6q  1 3.950000e-01    2.110000e+00
   P6q  TC5q  1 3.950000e-01    1.850000e+00
   P6q  TC4q  1 3.950000e-01    1.670000e+00
   P6q  TC3q  1 3.980000e-01    1.450000e+00
   P6q  TC2q  1 3.980000e-01    1.450000e+00
   P6q  TC1q  1 4.010000e-01    9.830000e-01
   P6q  TX4q  1 3.950000e-01    2.310000e+00
   P6q  TX3q  1 3.950000e-01    2.310000e+00
   P6q  TX2q  1 3.950000e-01    2.110000e+00
   P6q  TX1q  1 3.950000e-01    1.850000e+00
   P6q TP6dq  1 3.950000e-01    4.870000e+00
   P6q TP5dq  1 3.950000e-01    4.540000e+00
   P6q TP4dq  1 3.950000e-01    4.230000e+00
   P6q TP3dq  1 3.950000e-01    3.910000e+00
   P6q TP2dq  1 3.950000e-01    3.910000e+00
   P6q TP1dq  1 3.950000e-01    3.670000e+00
   P6q TN6dq  1 3.950000e-01    3.430000e+00
   P6q TN5dq  1 3.950000e-01    2.940000e+00
   P6q TN4dq  1 3.950000e-01    2.700000e+00
   P6q TN3dq  1 3.950000e-01    2.500000e+00
   P6q TN2dq  1 3.950000e-01    2.310000e+00
   P6q TN1dq  1 3.950000e-01    2.110000e+00
   P6q TP6aq  1 3.950000e-01    4.870000e+00
   P6q TP5aq  1 3.950000e-01    4.540000e+00
   P6q TP4aq  1 3.950000e-01    4.230000e+00
   P6q TP3aq  1 3.950000e-01    3.910000e+00
   P6q TP2aq  1 3.950000e-01    3.910000e+00
   P6q TP1aq  1 3.950000e-01    3.670000e+00
   P6q TN6aq  1 3.950000e-01    3.430000e+00
   P6q TN5aq  1 3.950000e-01    2.940000e+00
   P6q TN4aq  1 3.950000e-01    2.700000e+00
   P6q TN3aq  1 3.950000e-01    2.500000e+00
   P6q TN2aq  1 3.950000e-01    2.310000e+00
   P6q TN1aq  1 3.950000e-01    2.110000e+00
   P6q TC6vq  1 3.950000e-01    2.310000e+00
   P6q TC5vq  1 3.950000e-01    2.110000e+00
   P6q TC4vq  1 3.950000e-01    1.850000e+00
   P6q TC3vq  1 3.950000e-01    1.670000e+00
   P6q TC2vq  1 3.950000e-01    1.670000e+00
   P6q TC1vq  1 3.990000e-01    1.180000e+00
   P6q TX4vq  1 3.950000e-01    2.500000e+00
   P6q TX3vq  1 3.950000e-01    2.500000e+00
   P6q TX2vq  1 3.950000e-01    2.310000e+00
   P6q TX1vq  1 3.950000e-01    2.110000e+00
   P6q TC6eq  1 3.950000e-01    2.310000e+00
   P6q TC5eq  1 3.950000e-01    2.110000e+00
   P6q TC4eq  1 3.950000e-01    1.850000e+00
   P6q TC3eq  1 3.950000e-01    1.670000e+00
   P6q TC2eq  1 3.950000e-01    1.670000e+00
   P6q TC1eq  1 3.990000e-01    1.180000e+00
   P6q TX4eq  1 3.950000e-01    2.500000e+00
   P6q TX3eq  1 3.950000e-01    2.500000e+00
   P6q TX2eq  1 3.950000e-01    2.310000e+00
   P6q TX1eq  1 3.950000e-01    2.110000e+00
   P5q  TP5q  1 3.950000e-01    4.230000e+00
   P5q  TP4q  1 3.950000e-01    3.910000e+00
   P5q  TP3q  1 3.950000e-01    3.670000e+00
   P5q  TP2q  1 3.950000e-01    3.670000e+00
   P5q  TP1q  1 3.950000e-01    3.430000e+00
   P5q  TN6q  1 3.950000e-01    3.190000e+00
   P5q  TN5q  1 3.950000e-01    2.940000e+00
   P5q  TN4q  1 3.950000e-01    2.940000e+00
   P5q  TN3q  1 3.950000e-01    2.500000e+00
   P5q  TN2q  1 3.950000e-01    2.310000e+00
   P5q  TN1q  1 3.950000e-01    2.110000e+00
   P5q  TC6q  1 3.950000e-01    2.110000e+00
   P5q  TC5q  1 3.950000e-01    2.110000e+00
   P5q  TC4q  1 3.950000e-01    1.850000e+00
   P5q  TC3q  1 3.950000e-01    1.670000e+00
   P5q  TC2q  1 3.950000e-01    1.670000e+00
   P5q  TC1q  1 3.980000e-01    1.450000e+00
   P5q  TX4q  1 3.950000e-01    2.500000e+00
   P5q  TX3q  1 3.950000e-01    2.310000e+00
   P5q  TX2q  1 3.950000e-01    2.310000e+00
   P5q  TX1q  1 3.950000e-01    1.850000e+00
   P5q TP5dq  1 3.950000e-01    4.230000e+00
   P5q TP4dq  1 3.950000e-01    3.910000e+00
   P5q TP3dq  1 3.950000e-01    3.670000e+00
   P5q TP2dq  1 3.950000e-01    3.670000e+00
   P5q TP1dq  1 3.950000e-01    3.430000e+00
   P5q TN6dq  1 3.950000e-01    3.190000e+00
   P5q TN5dq  1 3.950000e-01    2.940000e+00
   P5q TN4dq  1 3.950000e-01    2.940000e+00
   P5q TN3dq  1 3.950000e-01    2.500000e+00
   P5q TN2dq  1 3.950000e-01    2.310000e+00
   P5q TN1dq  1 3.950000e-01    2.110000e+00
   P5q TP5aq  1 3.950000e-01    4.230000e+00
   P5q TP4aq  1 3.950000e-01    3.910000e+00
   P5q TP3aq  1 3.950000e-01    3.670000e+00
   P5q TP2aq  1 3.950000e-01    3.670000e+00
   P5q TP1aq  1 3.950000e-01    3.430000e+00
   P5q TN6aq  1 3.950000e-01    3.190000e+00
   P5q TN5aq  1 3.950000e-01    2.940000e+00
   P5q TN4aq  1 3.950000e-01    2.940000e+00
   P5q TN3aq  1 3.950000e-01    2.500000e+00
   P5q TN2aq  1 3.950000e-01    2.310000e+00
   P5q TN1aq  1 3.950000e-01    2.110000e+00
   P5q TC6vq  1 3.950000e-01    2.310000e+00
   P5q TC5vq  1 3.950000e-01    2.310000e+00
   P5q TC4vq  1 3.950000e-01    2.110000e+00
   P5q TC3vq  1 3.950000e-01    1.850000e+00
   P5q TC2vq  1 3.950000e-01    1.850000e+00
   P5q TC1vq  1 3.950000e-01    1.670000e+00
   P5q TX4vq  1 3.950000e-01    2.700000e+00
   P5q TX3vq  1 3.950000e-01    2.500000e+00
   P5q TX2vq  1 3.950000e-01    2.500000e+00
   P5q TX1vq  1 3.950000e-01    2.110000e+00
   P5q TC6eq  1 3.950000e-01    2.310000e+00
   P5q TC5eq  1 3.950000e-01    2.310000e+00
   P5q TC4eq  1 3.950000e-01    2.110000e+00
   P5q TC3eq  1 3.950000e-01    1.850000e+00
   P5q TC2eq  1 3.950000e-01    1.850000e+00
   P5q TC1eq  1 3.950000e-01    1.670000e+00
   P5q TX4eq  1 3.950000e-01    2.700000e+00
   P5q TX3eq  1 3.950000e-01    2.500000e+00
   P5q TX2eq  1 3.950000e-01    2.500000e+00
   P5q TX1eq  1 3.950000e-01    2.110000e+00
   P4q  TP4q  1 3.950000e-01    3.910000e+00
   P4q  TP3q  1 3.950000e-01    3.670000e+00
   P4q  TP2q  1 3.950000e-01    3.670000e+00
   P4q  TP1q  1 3.950000e-01    3.430000e+00
   P4q  TN6q  1 3.950000e-01    3.190000e+00
   P4q  TN5q  1 3.950000e-01    2.940000e+00
   P4q  TN4q  1 3.950000e-01    2.940000e+00
   P4q  TN3q  1 3.950000e-01    2.700000e+00
   P4q  TN2q  1 3.950000e-01    2.500000e+00
   P4q  TN1q  1 3.950000e-01    2.310000e+00
   P4q  TC6q  1 3.950000e-01    2.310000e+00
   P4q  TC5q  1 3.950000e-01    2.110000e+00
   P4q  TC4q  1 3.950000e-01    1.850000e+00
   P4q  TC3q  1 3.950000e-01    1.670000e+00
   P4q  TC2q  1 3.950000e-01    1.670000e+00
   P4q  TC1q  1 3.980000e-01    1.450000e+00
   P4q  TX4q  1 3.950000e-01    2.500000e+00
   P4q  TX3q  1 3.950000e-01    2.310000e+00
   P4q  TX2q  1 3.950000e-01    2.310000e+00
   P4q  TX1q  1 3.950000e-01    2.110000e+00
   P4q TP4dq  1 3.950000e-01    3.910000e+00
   P4q TP3dq  1 3.950000e-01    3.670000e+00
   P4q TP2dq  1 3.950000e-01    3.670000e+00
   P4q TP1dq  1 3.950000e-01    3.430000e+00
   P4q TN6dq  1 3.950000e-01    3.190000e+00
   P4q TN5dq  1 3.950000e-01    2.940000e+00
   P4q TN4dq  1 3.950000e-01    2.940000e+00
   P4q TN3dq  1 3.950000e-01    2.700000e+00
   P4q TN2dq  1 3.950000e-01    2.500000e+00
   P4q TN1dq  1 3.950000e-01    2.310000e+00
   P4q TP4aq  1 3.950000e-01    3.910000e+00
   P4q TP3aq  1 3.950000e-01    3.670000e+00
   P4q TP2aq  1 3.950000e-01    3.670000e+00
   P4q TP1aq  1 3.950000e-01    3.430000e+00
   P4q TN6aq  1 3.950000e-01    3.190000e+00
   P4q TN5aq  1 3.950000e-01    2.940000e+00
   P4q TN4aq  1 3.950000e-01    2.940000e+00
   P4q TN3aq  1 3.950000e-01    2.700000e+00
   P4q TN2aq  1 3.950000e-01    2.500000e+00
   P4q TN1aq  1 3.950000e-01    2.310000e+00
   P4q TC6vq  1 3.950000e-01    2.500000e+00
   P4q TC5vq  1 3.950000e-01    2.310000e+00
   P4q TC4vq  1 3.950000e-01    2.110000e+00
   P4q TC3vq  1 3.950000e-01    1.850000e+00
   P4q TC2vq  1 3.950000e-01    1.850000e+00
   P4q TC1vq  1 3.950000e-01    1.670000e+00
   P4q TX4vq  1 3.950000e-01    2.700000e+00
   P4q TX3vq  1 3.950000e-01    2.500000e+00
   P4q TX2vq  1 3.950000e-01    2.500000e+00
   P4q TX1vq  1 3.950000e-01    2.310000e+00
   P4q TC6eq  1 3.950000e-01    2.500000e+00
   P4q TC5eq  1 3.950000e-01    2.310000e+00
   P4q TC4eq  1 3.950000e-01    2.110000e+00
   P4q TC3eq  1 3.950000e-01    1.850000e+00
   P4q TC2eq  1 3.950000e-01    1.850000e+00
   P4q TC1eq  1 3.950000e-01    1.670000e+00
   P4q TX4eq  1 3.950000e-01    2.700000e+00
   P4q TX3eq  1 3.950000e-01    2.500000e+00
   P4q TX2eq  1 3.950000e-01    2.500000e+00
   P4q TX1eq  1 3.950000e-01    2.310000e+00
   P3q  TP3q  1 3.950000e-01    3.670000e+00
   P3q  TP2q  1 3.950000e-01    3.670000e+00
   P3q  TP1q  1 3.950000e-01    3.430000e+00
   P3q  TN6q  1 3.950000e-01    3.190000e+00
   P3q  TN5q  1 3.950000e-01    2.940000e+00
   P3q  TN4q  1 3.950000e-01    2.940000e+00
   P3q  TN3q  1 3.950000e-01    2.700000e+00
   P3q  TN2q  1 3.950000e-01    2.700000e+00
   P3q  TN1q  1 3.950000e-01    2.500000e+00
   P3q  TC6q  1 3.950000e-01    2.500000e+00
   P3q  TC5q  1 3.950000e-01    2.310000e+00
   P3q  TC4q  1 3.950000e-01    2.110000e+00
   P3q  TC3q  1 3.950000e-01    1.670000e+00
   P3q  TC2q  1 3.950000e-01    1.670000e+00
   P3q  TC1q  1 3.980000e-01    1.450000e+00
   P3q  TX4q  1 3.950000e-01    2.500000e+00
   P3q  TX3q  1 3.950000e-01    2.500000e+00
   P3q  TX2q  1 3.950000e-01    2.310000e+00
   P3q  TX1q  1 3.950000e-01    2.110000e+00
   P3q TP3dq  1 3.950000e-01    3.670000e+00
   P3q TP2dq  1 3.950000e-01    3.670000e+00
   P3q TP1dq  1 3.950000e-01    3.430000e+00
   P3q TN6dq  1 3.950000e-01    3.190000e+00
   P3q TN5dq  1 3.950000e-01    2.940000e+00
   P3q TN4dq  1 3.950000e-01    2.940000e+00
   P3q TN3dq  1 3.950000e-01    2.700000e+00
   P3q TN2dq  1 3.950000e-01    2.700000e+00
   P3q TN1dq  1 3.950000e-01    2.500000e+00
   P3q TP3aq  1 3.950000e-01    3.670000e+00
   P3q TP2aq  1 3.950000e-01    3.670000e+00
   P3q TP1aq  1 3.950000e-01    3.430000e+00
   P3q TN6aq  1 3.950000e-01    3.190000e+00
   P3q TN5aq  1 3.950000e-01    2.940000e+00
   P3q TN4aq  1 3.950000e-01    2.940000e+00
   P3q TN3aq  1 3.950000e-01    2.700000e+00
   P3q TN2aq  1 3.950000e-01    2.700000e+00
   P3q TN1aq  1 3.950000e-01    2.500000e+00
   P3q TC6vq  1 3.950000e-01    2.700000e+00
   P3q TC5vq  1 3.950000e-01    2.500000e+00
   P3q TC4vq  1 3.950000e-01    2.310000e+00
   P3q TC3vq  1 3.950000e-01    1.850000e+00
   P3q TC2vq  1 3.950000e-01    1.850000e+00
   P3q TC1vq  1 3.950000e-01    1.670000e+00
   P3q TX4vq  1 3.950000e-01    2.700000e+00
   P3q TX3vq  1 3.950000e-01    2.700000e+00
   P3q TX2vq  1 3.950000e-01    2.500000e+00
   P3q TX1vq  1 3.950000e-01    2.310000e+00
   P3q TC6eq  1 3.950000e-01    2.700000e+00
   P3q TC5eq  1 3.950000e-01    2.500000e+00
   P3q TC4eq  1 3.950000e-01    2.310000e+00
   P3q TC3eq  1 3.950000e-01    1.850000e+00
   P3q TC2eq  1 3.950000e-01    1.850000e+00
   P3q TC1eq  1 3.950000e-01    1.670000e+00
   P3q TX4eq  1 3.950000e-01    2.700000e+00
   P3q TX3eq  1 3.950000e-01    2.700000e+00
   P3q TX2eq  1 3.950000e-01    2.500000e+00
   P3q TX1eq  1 3.950000e-01    2.310000e+00
   P2q  TP2q  1 3.950000e-01    3.670000e+00
   P2q  TP1q  1 3.950000e-01    3.430000e+00
   P2q  TN6q  1 3.950000e-01    3.430000e+00
   P2q  TN5q  1 3.950000e-01    3.190000e+00
   P2q  TN4q  1 3.950000e-01    2.940000e+00
   P2q  TN3q  1 3.950000e-01    2.700000e+00
   P2q  TN2q  1 3.950000e-01    2.700000e+00
   P2q  TN1q  1 3.950000e-01    2.700000e+00
   P2q  TC6q  1 3.950000e-01    2.500000e+00
   P2q  TC5q  1 3.950000e-01    2.310000e+00
   P2q  TC4q  1 3.950000e-01    2.110000e+00
   P2q  TC3q  1 3.950000e-01    1.850000e+00
   P2q  TC2q  1 3.950000e-01    1.850000e+00
   P2q  TC1q  1 3.950000e-01    1.670000e+00
   P2q  TX4q  1 3.950000e-01    2.500000e+00
   P2q  TX3q  1 3.950000e-01    2.500000e+00
   P2q  TX2q  1 3.950000e-01    2.310000e+00
   P2q  TX1q  1 3.950000e-01    2.110000e+00
   P2q TP2dq  1 3.950000e-01    3.670000e+00
   P2q TP1dq  1 3.950000e-01    3.430000e+00
   P2q TN6dq  1 3.950000e-01    3.430000e+00
   P2q TN5dq  1 3.950000e-01    3.190000e+00
   P2q TN4dq  1 3.950000e-01    2.940000e+00
   P2q TN3dq  1 3.950000e-01    2.700000e+00
   P2q TN2dq  1 3.950000e-01    2.700000e+00
   P2q TN1dq  1 3.950000e-01    2.700000e+00
   P2q TP2aq  1 3.950000e-01    3.670000e+00
   P2q TP1aq  1 3.950000e-01    3.430000e+00
   P2q TN6aq  1 3.950000e-01    3.430000e+00
   P2q TN5aq  1 3.950000e-01    3.190000e+00
   P2q TN4aq  1 3.950000e-01    2.940000e+00
   P2q TN3aq  1 3.950000e-01    2.700000e+00
   P2q TN2aq  1 3.950000e-01    2.700000e+00
   P2q TN1aq  1 3.950000e-01    2.700000e+00
   P2q TC6vq  1 3.950000e-01    2.700000e+00
   P2q TC5vq  1 3.950000e-01    2.500000e+00
   P2q TC4vq  1 3.950000e-01    2.310000e+00
   P2q TC3vq  1 3.950000e-01    2.110000e+00
   P2q TC2vq  1 3.950000e-01    2.110000e+00
   P2q TC1vq  1 3.950000e-01    1.850000e+00
   P2q TX4vq  1 3.950000e-01    2.700000e+00
   P2q TX3vq  1 3.950000e-01    2.700000e+00
   P2q TX2vq  1 3.950000e-01    2.500000e+00
   P2q TX1vq  1 3.950000e-01    2.310000e+00
   P2q TC6eq  1 3.950000e-01    2.700000e+00
   P2q TC5eq  1 3.950000e-01    2.500000e+00
   P2q TC4eq  1 3.950000e-01    2.310000e+00
   P2q TC3eq  1 3.950000e-01    2.110000e+00
   P2q TC2eq  1 3.950000e-01    2.110000e+00
   P2q TC1eq  1 3.950000e-01    1.850000e+00
   P2q TX4eq  1 3.950000e-01    2.700000e+00
   P2q TX3eq  1 3.950000e-01    2.700000e+00
   P2q TX2eq  1 3.950000e-01    2.500000e+00
   P2q TX1eq  1 3.950000e-01    2.310000e+00
   P1q  TP1q  1 3.950000e-01    3.430000e+00
   P1q  TN6q  1 3.950000e-01    3.430000e+00
   P1q  TN5q  1 3.950000e-01    3.190000e+00
   P1q  TN4q  1 3.950000e-01    3.190000e+00
   P1q  TN3q  1 3.950000e-01    2.700000e+00
   P1q  TN2q  1 3.950000e-01    2.700000e+00
   P1q  TN1q  1 3.950000e-01    2.700000e+00
   P1q  TC6q  1 3.950000e-01    2.500000e+00
   P1q  TC5q  1 3.950000e-01    2.310000e+00
   P1q  TC4q  1 3.950000e-01    2.110000e+00
   P1q  TC3q  1 3.950000e-01    1.850000e+00
   P1q  TC2q  1 3.950000e-01    1.850000e+00
   P1q  TC1q  1 3.950000e-01    1.670000e+00
   P1q  TX4q  1 3.950000e-01    2.500000e+00
   P1q  TX3q  1 3.950000e-01    2.500000e+00
   P1q  TX2q  1 3.950000e-01    2.310000e+00
   P1q  TX1q  1 3.950000e-01    2.110000e+00
   P1q TP1dq  1 3.950000e-01    3.430000e+00
   P1q TN6dq  1 3.950000e-01    3.430000e+00
   P1q TN5dq  1 3.950000e-01    3.190000e+00
   P1q TN4dq  1 3.950000e-01    3.190000e+00
   P1q TN3dq  1 3.950000e-01    2.700000e+00
   P1q TN2dq  1 3.950000e-01    2.700000e+00
   P1q TN1dq  1 3.950000e-01    2.700000e+00
   P1q TP1aq  1 3.950000e-01    3.430000e+00
   P1q TN6aq  1 3.950000e-01    3.430000e+00
   P1q TN5aq  1 3.950000e-01    3.190000e+00
   P1q TN4aq  1 3.950000e-01    3.190000e+00
   P1q TN3aq  1 3.950000e-01    2.700000e+00
   P1q TN2aq  1 3.950000e-01    2.700000e+00
   P1q TN1aq  1 3.950000e-01    2.700000e+00
   P1q TC6vq  1 3.950000e-01    2.700000e+00
   P1q TC5vq  1 3.950000e-01    2.500000e+00
   P1q TC4vq  1 3.950000e-01    2.310000e+00
   P1q TC3vq  1 3.950000e-01    2.110000e+00
   P1q TC2vq  1 3.950000e-01    2.110000e+00
   P1q TC1vq  1 3.950000e-01    1.850000e+00
   P1q TX4vq  1 3.950000e-01    2.700000e+00
   P1q TX3vq  1 3.950000e-01    2.700000e+00
   P1q TX2vq  1 3.950000e-01    2.500000e+00
   P1q TX1vq  1 3.950000e-01    2.310000e+00
   P1q TC6eq  1 3.950000e-01    2.700000e+00
   P1q TC5eq  1 3.950000e-01    2.500000e+00
   P1q TC4eq  1 3.950000e-01    2.310000e+00
   P1q TC3eq  1 3.950000e-01    2.110000e+00
   P1q TC2eq  1 3.950000e-01    2.110000e+00
   P1q TC1eq  1 3.950000e-01    1.850000e+00
   P1q TX4eq  1 3.950000e-01    2.700000e+00
   P1q TX3eq  1 3.950000e-01    2.700000e+00
   P1q TX2eq  1 3.950000e-01    2.500000e+00
   P1q TX1eq  1 3.950000e-01    2.310000e+00
   N6q  TN6q  1 3.950000e-01    3.430000e+00
   N6q  TN5q  1 3.950000e-01    3.430000e+00
   N6q  TN4q  1 3.950000e-01    3.430000e+00
   N6q  TN3q  1 3.950000e-01    2.940000e+00
   N6q  TN2q  1 3.950000e-01    2.700000e+00
   N6q  TN1q  1 3.950000e-01    2.700000e+00
   N6q  TC6q  1 3.950000e-01    2.700000e+00
   N6q  TC5q  1 3.950000e-01    2.500000e+00
   N6q  TC4q  1 3.950000e-01    2.310000e+00
   N6q  TC3q  1 3.950000e-01    2.110000e+00
   N6q  TC2q  1 3.950000e-01    2.110000e+00
   N6q  TC1q  1 3.950000e-01    1.850000e+00
   N6q  TX4q  1 3.950000e-01    2.700000e+00
   N6q  TX3q  1 3.950000e-01    2.500000e+00
   N6q  TX2q  1 3.950000e-01    2.310000e+00
   N6q  TX1q  1 3.950000e-01    2.110000e+00
   N6q TN6dq  1 3.950000e-01    3.430000e+00
   N6q TN5dq  1 3.950000e-01    3.430000e+00
   N6q TN4dq  1 3.950000e-01    3.430000e+00
   N6q TN3dq  1 3.950000e-01    2.940000e+00
   N6q TN2dq  1 3.950000e-01    2.700000e+00
   N6q TN1dq  1 3.950000e-01    2.700000e+00
   N6q TN6aq  1 3.950000e-01    3.430000e+00
   N6q TN5aq  1 3.950000e-01    3.430000e+00
   N6q TN4aq  1 3.950000e-01    3.430000e+00
   N6q TN3aq  1 3.950000e-01    2.940000e+00
   N6q TN2aq  1 3.950000e-01    2.700000e+00
   N6q TN1aq  1 3.950000e-01    2.700000e+00
   N6q TC6vq  1 3.950000e-01    2.940000e+00
   N6q TC5vq  1 3.950000e-01    2.700000e+00
   N6q TC4vq  1 3.950000e-01    2.500000e+00
   N6q TC3vq  1 3.950000e-01    2.310000e+00
   N6q TC2vq  1 3.950000e-01    2.310000e+00
   N6q TC1vq  1 3.950000e-01    2.110000e+00
   N6q TX4vq  1 3.950000e-01    2.940000e+00
   N6q TX3vq  1 3.950000e-01    2.700000e+00
   N6q TX2vq  1 3.950000e-01    2.500000e+00
   N6q TX1vq  1 3.950000e-01    2.310000e+00
   N6q TC6eq  1 3.950000e-01    2.940000e+00
   N6q TC5eq  1 3.950000e-01    2.700000e+00
   N6q TC4eq  1 3.950000e-01    2.500000e+00
   N6q TC3eq  1 3.950000e-01    2.310000e+00
   N6q TC2eq  1 3.950000e-01    2.310000e+00
   N6q TC1eq  1 3.950000e-01    2.110000e+00
   N6q TX4eq  1 3.950000e-01    2.940000e+00
   N6q TX3eq  1 3.950000e-01    2.700000e+00
   N6q TX2eq  1 3.950000e-01    2.500000e+00
   N6q TX1eq  1 3.950000e-01    2.310000e+00
   N5q  TN5q  1 3.950000e-01    3.190000e+00
   N5q  TN4q  1 3.950000e-01    3.190000e+00
   N5q  TN3q  1 3.950000e-01    2.940000e+00
   N5q  TN2q  1 3.950000e-01    2.940000e+00
   N5q  TN1q  1 3.950000e-01    2.700000e+00
   N5q  TC6q  1 3.950000e-01    2.700000e+00
   N5q  TC5q  1 3.950000e-01    2.500000e+00
   N5q  TC4q  1 3.950000e-01    2.310000e+00
   N5q  TC3q  1 3.950000e-01    2.310000e+00
   N5q  TC2q  1 3.950000e-01    2.110000e+00
   N5q  TC1q  1 3.950000e-01    1.850000e+00
   N5q  TX4q  1 3.950000e-01    2.940000e+00
   N5q  TX3q  1 3.950000e-01    2.700000e+00
   N5q  TX2q  1 3.950000e-01    2.500000e+00
   N5q  TX1q  1 3.950000e-01    2.310000e+00
   N5q TN5dq  1 3.950000e-01    3.190000e+00
   N5q TN4dq  1 3.950000e-01    3.190000e+00
   N5q TN3dq  1 3.950000e-01    2.940000e+00
   N5q TN2dq  1 3.950000e-01    2.940000e+00
   N5q TN1dq  1 3.950000e-01    2.700000e+00
   N5q TN5aq  1 3.950000e-01    3.190000e+00
   N5q TN4aq  1 3.950000e-01    3.190000e+00
   N5q TN3aq  1 3.950000e-01    2.940000e+00
   N5q TN2aq  1 3.950000e-01    2.940000e+00
   N5q TN1aq  1 3.950000e-01    2.700000e+00
   N5q TC6vq  1 3.950000e-01    2.940000e+00
   N5q TC5vq  1 3.950000e-01    2.700000e+00
   N5q TC4vq  1 3.950000e-01    2.500000e+00
   N5q TC3vq  1 3.950000e-01    2.500000e+00
   N5q TC2vq  1 3.950000e-01    2.310000e+00
   N5q TC1vq  1 3.950000e-01    2.110000e+00
   N5q TX4vq  1 3.950000e-01    3.190000e+00
   N5q TX3vq  1 3.950000e-01    2.940000e+00
   N5q TX2vq  1 3.950000e-01    2.700000e+00
   N5q TX1vq  1 3.950000e-01    2.500000e+00
   N5q TC6eq  1 3.950000e-01    2.940000e+00
   N5q TC5eq  1 3.950000e-01    2.700000e+00
   N5q TC4eq  1 3.950000e-01    2.500000e+00
   N5q TC3eq  1 3.950000e-01    2.500000e+00
   N5q TC2eq  1 3.950000e-01    2.310000e+00
   N5q TC1eq  1 3.950000e-01    2.110000e+00
   N5q TX4eq  1 3.950000e-01    3.190000e+00
   N5q TX3eq  1 3.950000e-01    2.940000e+00
   N5q TX2eq  1 3.950000e-01    2.700000e+00
   N5q TX1eq  1 3.950000e-01    2.500000e+00
   N4q  TN4q  1 3.950000e-01    3.190000e+00
   N4q  TN3q  1 3.950000e-01    2.940000e+00
   N4q  TN2q  1 3.950000e-01    2.940000e+00
   N4q  TN1q  1 3.950000e-01    2.700000e+00
   N4q  TC6q  1 3.950000e-01    2.700000e+00
   N4q  TC5q  1 3.950000e-01    2.500000e+00
   N4q  TC4q  1 3.950000e-01    2.500000e+00
   N4q  TC3q  1 3.950000e-01    2.310000e+00
   N4q  TC2q  1 3.950000e-01    2.110000e+00
   N4q  TC1q  1 3.950000e-01    1.850000e+00
   N4q  TX4q  1 3.950000e-01    3.190000e+00
   N4q  TX3q  1 3.950000e-01    2.940000e+00
   N4q  TX2q  1 3.950000e-01    2.500000e+00
   N4q  TX1q  1 3.950000e-01    2.310000e+00
   N4q TN4dq  1 3.950000e-01    3.190000e+00
   N4q TN3dq  1 3.950000e-01    2.940000e+00
   N4q TN2dq  1 3.950000e-01    2.940000e+00
   N4q TN1dq  1 3.950000e-01    2.700000e+00
   N4q TN4aq  1 3.950000e-01    3.190000e+00
   N4q TN3aq  1 3.950000e-01    2.940000e+00
   N4q TN2aq  1 3.950000e-01    2.940000e+00
   N4q TN1aq  1 3.950000e-01    2.700000e+00
   N4q TC6vq  1 3.950000e-01    2.940000e+00
   N4q TC5vq  1 3.950000e-01    2.700000e+00
   N4q TC4vq  1 3.950000e-01    2.700000e+00
   N4q TC3vq  1 3.950000e-01    2.500000e+00
   N4q TC2vq  1 3.950000e-01    2.310000e+00
   N4q TC1vq  1 3.950000e-01    2.110000e+00
   N4q TX4vq  1 3.950000e-01    3.430000e+00
   N4q TX3vq  1 3.950000e-01    3.190000e+00
   N4q TX2vq  1 3.950000e-01    2.700000e+00
   N4q TX1vq  1 3.950000e-01    2.500000e+00
   N4q TC6eq  1 3.950000e-01    2.940000e+00
   N4q TC5eq  1 3.950000e-01    2.700000e+00
   N4q TC4eq  1 3.950000e-01    2.700000e+00
   N4q TC3eq  1 3.950000e-01    2.500000e+00
   N4q TC2eq  1 3.950000e-01    2.310000e+00
   N4q TC1eq  1 3.950000e-01    2.110000e+00
   N4q TX4eq  1 3.950000e-01    3.430000e+00
   N4q TX3eq  1 3.950000e-01    3.190000e+00
   N4q TX2eq  1 3.950000e-01    2.700000e+00
   N4q TX1eq  1 3.950000e-01    2.500000e+00
   N3q  TN3q  1 3.950000e-01    2.940000e+00
   N3q  TN2q  1 3.950000e-01    2.940000e+00
   N3q  TN1q  1 3.950000e-01    2.700000e+00
   N3q  TC6q  1 3.950000e-01    2.700000e+00
   N3q  TC5q  1 3.950000e-01    2.500000e+00
   N3q  TC4q  1 3.950000e-01    2.500000e+00
   N3q  TC3q  1 3.950000e-01    2.310000e+00
   N3q  TC2q  1 3.950000e-01    2.310000e+00
   N3q  TC1q  1 3.950000e-01    2.110000e+00
   N3q  TX4q  1 3.950000e-01    2.940000e+00
   N3q  TX3q  1 3.950000e-01    2.700000e+00
   N3q  TX2q  1 3.950000e-01    2.500000e+00
   N3q  TX1q  1 3.950000e-01    2.500000e+00
   N3q TN3dq  1 3.950000e-01    2.940000e+00
   N3q TN2dq  1 3.950000e-01    2.940000e+00
   N3q TN1dq  1 3.950000e-01    2.700000e+00
   N3q TN3aq  1 3.950000e-01    2.940000e+00
   N3q TN2aq  1 3.950000e-01    2.940000e+00
   N3q TN1aq  1 3.950000e-01    2.700000e+00
   N3q TC6vq  1 3.950000e-01    2.940000e+00
   N3q TC5vq  1 3.950000e-01    2.700000e+00
   N3q TC4vq  1 3.950000e-01    2.700000e+00
   N3q TC3vq  1 3.950000e-01    2.500000e+00
   N3q TC2vq  1 3.950000e-01    2.500000e+00
   N3q TC1vq  1 3.950000e-01    2.310000e+00
   N3q TX4vq  1 3.950000e-01    3.190000e+00
   N3q TX3vq  1 3.950000e-01    2.940000e+00
   N3q TX2vq  1 3.950000e-01    2.700000e+00
   N3q TX1vq  1 3.950000e-01    2.700000e+00
   N3q TC6eq  1 3.950000e-01    2.940000e+00
   N3q TC5eq  1 3.950000e-01    2.700000e+00
   N3q TC4eq  1 3.950000e-01    2.700000e+00
   N3q TC3eq  1 3.950000e-01    2.500000e+00
   N3q TC2eq  1 3.950000e-01    2.500000e+00
   N3q TC1eq  1 3.950000e-01    2.310000e+00
   N3q TX4eq  1 3.950000e-01    3.190000e+00
   N3q TX3eq  1 3.950000e-01    2.940000e+00
   N3q TX2eq  1 3.950000e-01    2.700000e+00
   N3q TX1eq  1 3.950000e-01    2.700000e+00
   N2q  TN2q  1 3.950000e-01    2.940000e+00
   N2q  TN1q  1 3.950000e-01    2.700000e+00
   N2q  TC6q  1 3.950000e-01    2.700000e+00
   N2q  TC5q  1 3.950000e-01    2.500000e+00
   N2q  TC4q  1 3.950000e-01    2.500000e+00
   N2q  TC3q  1 3.950000e-01    2.500000e+00
   N2q  TC2q  1 3.950000e-01    2.310000e+00
   N2q  TC1q  1 3.950000e-01    2.110000e+00
   N2q  TX4q  1 3.950000e-01    2.940000e+00
   N2q  TX3q  1 3.950000e-01    2.700000e+00
   N2q  TX2q  1 3.950000e-01    2.500000e+00
   N2q  TX1q  1 3.950000e-01    2.500000e+00
   N2q TN2dq  1 3.950000e-01    2.940000e+00
   N2q TN1dq  1 3.950000e-01    2.700000e+00
   N2q TN2aq  1 3.950000e-01    2.940000e+00
   N2q TN1aq  1 3.950000e-01    2.700000e+00
   N2q TC6vq  1 3.950000e-01    2.940000e+00
   N2q TC5vq  1 3.950000e-01    2.700000e+00
   N2q TC4vq  1 3.950000e-01    2.700000e+00
   N2q TC3vq  1 3.950000e-01    2.700000e+00
   N2q TC2vq  1 3.950000e-01    2.500000e+00
   N2q TC1vq  1 3.950000e-01    2.310000e+00
   N2q TX4vq  1 3.950000e-01    3.190000e+00
   N2q TX3vq  1 3.950000e-01    2.940000e+00
   N2q TX2vq  1 3.950000e-01    2.700000e+00
   N2q TX1vq  1 3.950000e-01    2.700000e+00
   N2q TC6eq  1 3.950000e-01    2.940000e+00
   N2q TC5eq  1 3.950000e-01    2.700000e+00
   N2q TC4eq  1 3.950000e-01    2.700000e+00
   N2q TC3eq  1 3.950000e-01    2.700000e+00
   N2q TC2eq  1 3.950000e-01    2.500000e+00
   N2q TC1eq  1 3.950000e-01    2.310000e+00
   N2q TX4eq  1 3.950000e-01    3.190000e+00
   N2q TX3eq  1 3.950000e-01    2.940000e+00
   N2q TX2eq  1 3.950000e-01    2.700000e+00
   N2q TX1eq  1 3.950000e-01    2.700000e+00
   N1q  TN1q  1 3.950000e-01    2.940000e+00
   N1q  TC6q  1 3.950000e-01    2.940000e+00
   N1q  TC5q  1 3.950000e-01    2.700000e+00
   N1q  TC4q  1 3.950000e-01    2.700000e+00
   N1q  TC3q  1 3.950000e-01    2.500000e+00
   N1q  TC2q  1 3.950000e-01    2.310000e+00
   N1q  TC1q  1 3.950000e-01    2.110000e+00
   N1q  TX4q  1 3.950000e-01    2.700000e+00
   N1q  TX3q  1 3.950000e-01    2.700000e+00
   N1q  TX2q  1 3.950000e-01    2.500000e+00
   N1q  TX1q  1 3.950000e-01    2.500000e+00
   N1q TN1dq  1 3.950000e-01    2.940000e+00
   N1q TN1aq  1 3.950000e-01    2.940000e+00
   N1q TC6vq  1 3.950000e-01    3.190000e+00
   N1q TC5vq  1 3.950000e-01    2.940000e+00
   N1q TC4vq  1 3.950000e-01    2.940000e+00
   N1q TC3vq  1 3.950000e-01    2.700000e+00
   N1q TC2vq  1 3.950000e-01    2.500000e+00
   N1q TC1vq  1 3.950000e-01    2.310000e+00
   N1q TX4vq  1 3.950000e-01    2.940000e+00
   N1q TX3vq  1 3.950000e-01    2.940000e+00
   N1q TX2vq  1 3.950000e-01    2.700000e+00
   N1q TX1vq  1 3.950000e-01    2.700000e+00
   N1q TC6eq  1 3.950000e-01    3.190000e+00
   N1q TC5eq  1 3.950000e-01    2.940000e+00
   N1q TC4eq  1 3.950000e-01    2.940000e+00
   N1q TC3eq  1 3.950000e-01    2.700000e+00
   N1q TC2eq  1 3.950000e-01    2.500000e+00
   N1q TC1eq  1 3.950000e-01    2.310000e+00
   N1q TX4eq  1 3.950000e-01    2.940000e+00
   N1q TX3eq  1 3.950000e-01    2.940000e+00
   N1q TX2eq  1 3.950000e-01    2.700000e+00
   N1q TX1eq  1 3.950000e-01    2.700000e+00
   C6q  TC6q  1 3.950000e-01    2.940000e+00
   C6q  TC5q  1 3.950000e-01    2.700000e+00
   C6q  TC4q  1 3.950000e-01    2.700000e+00
   C6q  TC3q  1 3.950000e-01    2.500000e+00
   C6q  TC2q  1 3.950000e-01    2.310000e+00
   C6q  TC1q  1 3.950000e-01    2.110000e+00
   C6q  TX4q  1 3.950000e-01    2.700000e+00
   C6q  TX3q  1 3.950000e-01    2.700000e+00
   C6q  TX2q  1 3.950000e-01    2.700000e+00
   C6q  TX1q  1 3.950000e-01    2.700000e+00
   C6q TC6vq  1 3.950000e-01    3.190000e+00
   C6q TC5vq  1 3.950000e-01    2.940000e+00
   C6q TC4vq  1 3.950000e-01    2.940000e+00
   C6q TC3vq  1 3.950000e-01    2.700000e+00
   C6q TC2vq  1 3.950000e-01    2.500000e+00
   C6q TC1vq  1 3.950000e-01    2.310000e+00
   C6q TX4vq  1 3.950000e-01    2.940000e+00
   C6q TX3vq  1 3.950000e-01    2.940000e+00
   C6q TX2vq  1 3.950000e-01    2.940000e+00
   C6q TX1vq  1 3.950000e-01    2.940000e+00
   C6q TC6eq  1 3.950000e-01    3.190000e+00
   C6q TC5eq  1 3.950000e-01    2.940000e+00
   C6q TC4eq  1 3.950000e-01    2.940000e+00
   C6q TC3eq  1 3.950000e-01    2.700000e+00
   C6q TC2eq  1 3.950000e-01    2.500000e+00
   C6q TC1eq  1 3.950000e-01    2.310000e+00
   C6q TX4eq  1 3.950000e-01    2.940000e+00
   C6q TX3eq  1 3.950000e-01    2.940000e+00
   C6q TX2eq  1 3.950000e-01    2.940000e+00
   C6q TX1eq  1 3.950000e-01    2.940000e+00
   C5q  TC5q  1 3.950000e-01    2.700000e+00
   C5q  TC4q  1 3.950000e-01    2.700000e+00
   C5q  TC3q  1 3.950000e-01    2.500000e+00
   C5q  TC2q  1 3.950000e-01    2.310000e+00
   C5q  TC1q  1 3.950000e-01    2.310000e+00
   C5q  TX4q  1 3.950000e-01    2.500000e+00
   C5q  TX3q  1 3.950000e-01    2.500000e+00
   C5q  TX2q  1 3.950000e-01    2.500000e+00
   C5q  TX1q  1 3.950000e-01    2.700000e+00
   C5q TC5vq  1 3.950000e-01    2.940000e+00
   C5q TC4vq  1 3.950000e-01    2.940000e+00
   C5q TC3vq  1 3.950000e-01    2.700000e+00
   C5q TC2vq  1 3.950000e-01    2.500000e+00
   C5q TC1vq  1 3.950000e-01    2.500000e+00
   C5q TX4vq  1 3.950000e-01    2.700000e+00
   C5q TX3vq  1 3.950000e-01    2.700000e+00
   C5q TX2vq  1 3.950000e-01    2.700000e+00
   C5q TX1vq  1 3.950000e-01    2.940000e+00
   C5q TC5eq  1 3.950000e-01    2.940000e+00
   C5q TC4eq  1 3.950000e-01    2.940000e+00
   C5q TC3eq  1 3.950000e-01    2.700000e+00
   C5q TC2eq  1 3.950000e-01    2.500000e+00
   C5q TC1eq  1 3.950000e-01    2.500000e+00
   C5q TX4eq  1 3.950000e-01    2.700000e+00
   C5q TX3eq  1 3.950000e-01    2.700000e+00
   C5q TX2eq  1 3.950000e-01    2.700000e+00
   C5q TX1eq  1 3.950000e-01    2.940000e+00
   C4q  TC4q  1 3.950000e-01    2.700000e+00
   C4q  TC3q  1 3.950000e-01    2.700000e+00
   C4q  TC2q  1 3.950000e-01    2.500000e+00
   C4q  TC1q  1 3.950000e-01    2.310000e+00
   C4q  TX4q  1 3.950000e-01    2.500000e+00
   C4q  TX3q  1 3.950000e-01    2.500000e+00
   C4q  TX2q  1 3.950000e-01    2.500000e+00
   C4q  TX1q  1 3.950000e-01    2.700000e+00
   C4q TC4vq  1 3.950000e-01    2.940000e+00
   C4q TC3vq  1 3.950000e-01    2.940000e+00
   C4q TC2vq  1 3.950000e-01    2.700000e+00
   C4q TC1vq  1 3.950000e-01    2.500000e+00
   C4q TX4vq  1 3.950000e-01    2.700000e+00
   C4q TX3vq  1 3.950000e-01    2.700000e+00
   C4q TX2vq  1 3.950000e-01    2.700000e+00
   C4q TX1vq  1 3.950000e-01    2.940000e+00
   C4q TC4eq  1 3.950000e-01    2.940000e+00
   C4q TC3eq  1 3.950000e-01    2.940000e+00
   C4q TC2eq  1 3.950000e-01    2.700000e+00
   C4q TC1eq  1 3.950000e-01    2.500000e+00
   C4q TX4eq  1 3.950000e-01    2.700000e+00
   C4q TX3eq  1 3.950000e-01    2.700000e+00
   C4q TX2eq  1 3.950000e-01    2.700000e+00
   C4q TX1eq  1 3.950000e-01    2.940000e+00
   C3q  TC3q  1 3.950000e-01    2.700000e+00
   C3q  TC2q  1 3.950000e-01    2.700000e+00
   C3q  TC1q  1 3.950000e-01    2.700000e+00
   C3q  TX4q  1 3.950000e-01    2.500000e+00
   C3q  TX3q  1 3.950000e-01    2.500000e+00
   C3q  TX2q  1 3.950000e-01    2.500000e+00
   C3q  TX1q  1 3.950000e-01    2.700000e+00
   C3q TC3vq  1 3.950000e-01    2.940000e+00
   C3q TC2vq  1 3.950000e-01    2.940000e+00
   C3q TC1vq  1 3.950000e-01    2.940000e+00
   C3q TX4vq  1 3.950000e-01    2.700000e+00
   C3q TX3vq  1 3.950000e-01    2.700000e+00
   C3q TX2vq  1 3.950000e-01    2.700000e+00
   C3q TX1vq  1 3.950000e-01    2.940000e+00
   C3q TC3eq  1 3.950000e-01    2.940000e+00
   C3q TC2eq  1 3.950000e-01    2.940000e+00
   C3q TC1eq  1 3.950000e-01    2.940000e+00
   C3q TX4eq  1 3.950000e-01    2.700000e+00
   C3q TX3eq  1 3.950000e-01    2.700000e+00
   C3q TX2eq  1 3.950000e-01    2.700000e+00
   C3q TX1eq  1 3.950000e-01    2.940000e+00
   C2q  TC2q  1 3.950000e-01    2.700000e+00
   C2q  TC1q  1 3.950000e-01    2.940000e+00
   C2q  TX4q  1 3.950000e-01    2.110000e+00
   C2q  TX3q  1 3.950000e-01    2.500000e+00
   C2q  TX2q  1 3.950000e-01    2.500000e+00
   C2q  TX1q  1 3.950000e-01    2.500000e+00
   C2q TC2vq  1 3.950000e-01    2.940000e+00
   C2q TC1vq  1 3.950000e-01    3.190000e+00
   C2q TX4vq  1 3.950000e-01    2.310000e+00
   C2q TX3vq  1 3.950000e-01    2.700000e+00
   C2q TX2vq  1 3.950000e-01    2.700000e+00
   C2q TX1vq  1 3.950000e-01    2.700000e+00
   C2q TC2eq  1 3.950000e-01    2.940000e+00
   C2q TC1eq  1 3.950000e-01    3.190000e+00
   C2q TX4eq  1 3.950000e-01    2.310000e+00
   C2q TX3eq  1 3.950000e-01    2.700000e+00
   C2q TX2eq  1 3.950000e-01    2.700000e+00
   C2q TX1eq  1 3.950000e-01    2.700000e+00
   C1q  TC1q  1 3.950000e-01    2.700000e+00
   C1q  TX4q  1 3.950000e-01    2.110000e+00
   C1q  TX3q  1 3.950000e-01    2.500000e+00
   C1q  TX2q  1 3.950000e-01    2.500000e+00
   C1q  TX1q  1 3.950000e-01    2.500000e+00
   C1q TC1vq  1 3.950000e-01    2.940000e+00
   C1q TX4vq  1 3.950000e-01    2.310000e+00
   C1q TX3vq  1 3.950000e-01    2.700000e+00
   C1q TX2vq  1 3.950000e-01    2.700000e+00
   C1q TX1vq  1 3.950000e-01    2.700000e+00
   C1q TC1eq  1 3.950000e-01    2.940000e+00
   C1q TX4eq  1 3.950000e-01    2.310000e+00
   C1q TX3eq  1 3.950000e-01    2.700000e+00
   C1q TX2eq  1 3.950000e-01    2.700000e+00
   C1q TX1eq  1 3.950000e-01    2.700000e+00
   X4q  TX4q  1 3.950000e-01    2.700000e+00
   X4q  TX3q  1 3.950000e-01    2.700000e+00
   X4q  TX2q  1 3.950000e-01    2.700000e+00
   X4q  TX1q  1 3.950000e-01    2.700000e+00
   X4q TX4vq  1 3.950000e-01    2.940000e+00
   X4q TX3vq  1 3.950000e-01    2.940000e+00
   X4q TX2vq  1 3.950000e-01    2.940000e+00
   X4q TX1vq  1 3.950000e-01    2.940000e+00
   X4q TX4eq  1 3.950000e-01    2.940000e+00
   X4q TX3eq  1 3.950000e-01    2.940000e+00
   X4q TX2eq  1 3.950000e-01    2.940000e+00
   X4q TX1eq  1 3.950000e-01    2.940000e+00
   X3q  TX3q  1 3.950000e-01    2.700000e+00
   X3q  TX2q  1 3.950000e-01    2.940000e+00
   X3q  TX1q  1 3.950000e-01    2.940000e+00
   X3q TX3vq  1 3.950000e-01    2.940000e+00
   X3q TX2vq  1 3.950000e-01    3.190000e+00
   X3q TX1vq  1 3.950000e-01    3.190000e+00
   X3q TX3eq  1 3.950000e-01    2.940000e+00
   X3q TX2eq  1 3.950000e-01    3.190000e+00
   X3q TX1eq  1 3.950000e-01    3.190000e+00
   X2q  TX2q  1 3.950000e-01    2.940000e+00
   X2q  TX1q  1 3.950000e-01    2.940000e+00
   X2q TX2vq  1 3.950000e-01    3.190000e+00
   X2q TX1vq  1 3.950000e-01    3.190000e+00
   X2q TX2eq  1 3.950000e-01    3.190000e+00
   X2q TX1eq  1 3.950000e-01    3.190000e+00
   X1q  TX1q  1 3.950000e-01    3.190000e+00
   X1q TX1vq  1 3.950000e-01    3.430000e+00
   X1q TX1eq  1 3.950000e-01    3.430000e+00
  P6dq TP6dq  1 3.950000e-01    4.540000e+00
  P6dq  TP5q  1 3.950000e-01    4.540000e+00
  P6dq  TP4q  1 3.950000e-01    4.230000e+00
  P6dq  TP3q  1 3.950000e-01    3.910000e+00
  P6dq  TP2q  1 3.950000e-01    3.910000e+00
  P6dq  TP1q  1 3.950000e-01    3.670000e+00
  P6dq  TN6q  1 3.950000e-01    3.430000e+00
  P6dq  TN5q  1 3.950000e-01    2.940000e+00
  P6dq  TN4q  1 3.950000e-01    2.700000e+00
  P6dq  TN3q  1 3.950000e-01    2.500000e+00
  P6dq  TN2q  1 3.950000e-01    2.310000e+00
  P6dq  TN1q  1 3.950000e-01    2.110000e+00
  P6dq  TC6q  1 3.950000e-01    2.110000e+00
  P6dq  TC5q  1 3.950000e-01    1.850000e+00
  P6dq  TC4q  1 3.950000e-01    1.670000e+00
  P6dq  TC3q  1 3.980000e-01    1.450000e+00
  P6dq  TC2q  1 3.980000e-01    1.450000e+00
  P6dq  TC1q  1 4.010000e-01    9.830000e-01
  P6dq  TX4q  1 3.950000e-01    2.310000e+00
  P6dq  TX3q  1 3.950000e-01    2.310000e+00
  P6dq  TX2q  1 3.950000e-01    2.110000e+00
  P6dq  TX1q  1 3.950000e-01    1.850000e+00
  P6dq TP5dq  1 3.950000e-01    4.230000e+00
  P6dq TP4dq  1 3.950000e-01    3.910000e+00
  P6dq TP3dq  1 3.950000e-01    3.670000e+00
  P6dq TP2dq  1 3.950000e-01    3.670000e+00
  P6dq TP1dq  1 3.950000e-01    3.430000e+00
  P6dq TN6dq  1 3.950000e-01    3.190000e+00
  P6dq TN5dq  1 3.950000e-01    2.700000e+00
  P6dq TN4dq  1 3.950000e-01    2.500000e+00
  P6dq TN3dq  1 3.950000e-01    2.500000e+00
  P6dq TN2dq  1 3.950000e-01    2.310000e+00
  P6dq TN1dq  1 3.950000e-01    2.110000e+00
  P6dq TP6aq  1 3.950000e-01    5.270000e+00
  P6dq TP5aq  1 3.950000e-01    4.870000e+00
  P6dq TP4aq  1 3.950000e-01    4.540000e+00
  P6dq TP3aq  1 3.950000e-01    4.230000e+00
  P6dq TP2aq  1 3.950000e-01    4.230000e+00
  P6dq TP1aq  1 3.950000e-01    3.910000e+00
  P6dq TN6aq  1 3.950000e-01    3.670000e+00
  P6dq TN5aq  1 3.950000e-01    3.190000e+00
  P6dq TN4aq  1 3.950000e-01    2.940000e+00
  P6dq TN3aq  1 3.950000e-01    2.500000e+00
  P6dq TN2aq  1 3.950000e-01    2.310000e+00
  P6dq TN1aq  1 3.950000e-01    2.110000e+00
  P6dq TC6vq  1 3.950000e-01    1.850000e+00
  P6dq TC5vq  1 3.950000e-01    1.670000e+00
  P6dq TC4vq  1 3.980000e-01    1.450000e+00
  P6dq TC3vq  1 3.990000e-01    1.180000e+00
  P6dq TC2vq  1 3.990000e-01    1.180000e+00
  P6dq TC1vq  1 4.040000e-01    8.300000e-01
  P6dq TX4vq  1 3.950000e-01    2.110000e+00
  P6dq TX3vq  1 3.950000e-01    2.110000e+00
  P6dq TX2vq  1 3.950000e-01    1.850000e+00
  P6dq TX1vq  1 3.950000e-01    1.670000e+00
  P6dq TC6eq  1 3.950000e-01    2.310000e+00
  P6dq TC5eq  1 3.950000e-01    2.110000e+00
  P6dq TC4eq  1 3.950000e-01    1.850000e+00
  P6dq TC3eq  1 3.950000e-01    1.670000e+00
  P6dq TC2eq  1 3.950000e-01    1.670000e+00
  P6dq TC1eq  1 3.990000e-01    1.180000e+00
  P6dq TX4eq  1 3.950000e-01    2.500000e+00
  P6dq TX3eq  1 3.950000e-01    2.500000e+00
  P6dq TX2eq  1 3.950000e-01    2.310000e+00
  P6dq TX1eq  1 3.950000e-01    2.110000e+00
  P5dq TP5dq  1 3.950000e-01    3.910000e+00
  P5dq  TP4q  1 3.950000e-01    3.910000e+00
  P5dq  TP3q  1 3.950000e-01    3.670000e+00
  P5dq  TP2q  1 3.950000e-01    3.670000e+00
  P5dq  TP1q  1 3.950000e-01    3.430000e+00
  P5dq  TN6q  1 3.950000e-01    3.190000e+00
  P5dq  TN5q  1 3.950000e-01    2.940000e+00
  P5dq  TN4q  1 3.950000e-01    2.940000e+00
  P5dq  TN3q  1 3.950000e-01    2.500000e+00
  P5dq  TN2q  1 3.950000e-01    2.310000e+00
  P5dq  TN1q  1 3.950000e-01    2.110000e+00
  P5dq  TC6q  1 3.950000e-01    2.110000e+00
  P5dq  TC5q  1 3.950000e-01    2.110000e+00
  P5dq  TC4q  1 3.950000e-01    1.850000e+00
  P5dq  TC3q  1 3.950000e-01    1.670000e+00
  P5dq  TC2q  1 3.950000e-01    1.670000e+00
  P5dq  TC1q  1 3.980000e-01    1.450000e+00
  P5dq  TX4q  1 3.950000e-01    2.500000e+00
  P5dq  TX3q  1 3.950000e-01    2.310000e+00
  P5dq  TX2q  1 3.950000e-01    2.310000e+00
  P5dq  TX1q  1 3.950000e-01    1.850000e+00
  P5dq TP4dq  1 3.950000e-01    3.670000e+00
  P5dq TP3dq  1 3.950000e-01    3.430000e+00
  P5dq TP2dq  1 3.950000e-01    3.430000e+00
  P5dq TP1dq  1 3.950000e-01    3.190000e+00
  P5dq TN6dq  1 3.950000e-01    2.940000e+00
  P5dq TN5dq  1 3.950000e-01    2.700000e+00
  P5dq TN4dq  1 3.950000e-01    2.700000e+00
  P5dq TN3dq  1 3.950000e-01    2.500000e+00
  P5dq TN2dq  1 3.950000e-01    2.310000e+00
  P5dq TN1dq  1 3.950000e-01    2.110000e+00
  P5dq TP5aq  1 3.950000e-01    4.540000e+00
  P5dq TP4aq  1 3.950000e-01    4.230000e+00
  P5dq TP3aq  1 3.950000e-01    3.910000e+00
  P5dq TP2aq  1 3.950000e-01    3.910000e+00
  P5dq TP1aq  1 3.950000e-01    3.670000e+00
  P5dq TN6aq  1 3.950000e-01    3.430000e+00
  P5dq TN5aq  1 3.950000e-01    3.190000e+00
  P5dq TN4aq  1 3.950000e-01    3.190000e+00
  P5dq TN3aq  1 3.950000e-01    2.500000e+00
  P5dq TN2aq  1 3.950000e-01    2.310000e+00
  P5dq TN1aq  1 3.950000e-01    2.110000e+00
  P5dq TC6vq  1 3.950000e-01    1.850000e+00
  P5dq TC5vq  1 3.950000e-01    1.850000e+00
  P5dq TC4vq  1 3.950000e-01    1.670000e+00
  P5dq TC3vq  1 3.980000e-01    1.450000e+00
  P5dq TC2vq  1 3.980000e-01    1.450000e+00
  P5dq TC1vq  1 3.990000e-01    1.180000e+00
  P5dq TX4vq  1 3.950000e-01    2.310000e+00
  P5dq TX3vq  1 3.950000e-01    2.110000e+00
  P5dq TX2vq  1 3.950000e-01    2.110000e+00
  P5dq TX1vq  1 3.950000e-01    1.670000e+00
  P5dq TC6eq  1 3.950000e-01    2.310000e+00
  P5dq TC5eq  1 3.950000e-01    2.310000e+00
  P5dq TC4eq  1 3.950000e-01    2.110000e+00
  P5dq TC3eq  1 3.950000e-01    1.850000e+00
  P5dq TC2eq  1 3.950000e-01    1.850000e+00
  P5dq TC1eq  1 3.950000e-01    1.670000e+00
  P5dq TX4eq  1 3.950000e-01    2.700000e+00
  P5dq TX3eq  1 3.950000e-01    2.500000e+00
  P5dq TX2eq  1 3.950000e-01    2.500000e+00
  P5dq TX1eq  1 3.950000e-01    2.110000e+00
  P4dq TP4dq  1 3.950000e-01    3.670000e+00
  P4dq  TP3q  1 3.950000e-01    3.670000e+00
  P4dq  TP2q  1 3.950000e-01    3.670000e+00
  P4dq  TP1q  1 3.950000e-01    3.430000e+00
  P4dq  TN6q  1 3.950000e-01    3.190000e+00
  P4dq  TN5q  1 3.950000e-01    2.940000e+00
  P4dq  TN4q  1 3.950000e-01    2.940000e+00
  P4dq  TN3q  1 3.950000e-01    2.700000e+00
  P4dq  TN2q  1 3.950000e-01    2.500000e+00
  P4dq  TN1q  1 3.950000e-01    2.310000e+00
  P4dq  TC6q  1 3.950000e-01    2.310000e+00
  P4dq  TC5q  1 3.950000e-01    2.110000e+00
  P4dq  TC4q  1 3.950000e-01    1.850000e+00
  P4dq  TC3q  1 3.950000e-01    1.670000e+00
  P4dq  TC2q  1 3.950000e-01    1.670000e+00
  P4dq  TC1q  1 3.980000e-01    1.450000e+00
  P4dq  TX4q  1 3.950000e-01    2.500000e+00
  P4dq  TX3q  1 3.950000e-01    2.310000e+00
  P4dq  TX2q  1 3.950000e-01    2.310000e+00
  P4dq  TX1q  1 3.950000e-01    2.110000e+00
  P4dq TP3dq  1 3.950000e-01    3.430000e+00
  P4dq TP2dq  1 3.950000e-01    3.430000e+00
  P4dq TP1dq  1 3.950000e-01    3.190000e+00
  P4dq TN6dq  1 3.950000e-01    2.940000e+00
  P4dq TN5dq  1 3.950000e-01    2.700000e+00
  P4dq TN4dq  1 3.950000e-01    2.700000e+00
  P4dq TN3dq  1 3.950000e-01    2.500000e+00
  P4dq TN2dq  1 3.950000e-01    2.500000e+00
  P4dq TN1dq  1 3.950000e-01    2.310000e+00
  P4dq TP4aq  1 3.950000e-01    4.230000e+00
  P4dq TP3aq  1 3.950000e-01    3.910000e+00
  P4dq TP2aq  1 3.950000e-01    3.910000e+00
  P4dq TP1aq  1 3.950000e-01    3.670000e+00
  P4dq TN6aq  1 3.950000e-01    3.430000e+00
  P4dq TN5aq  1 3.950000e-01    3.190000e+00
  P4dq TN4aq  1 3.950000e-01    3.190000e+00
  P4dq TN3aq  1 3.950000e-01    2.940000e+00
  P4dq TN2aq  1 3.950000e-01    2.500000e+00
  P4dq TN1aq  1 3.950000e-01    2.310000e+00
  P4dq TC6vq  1 3.950000e-01    2.110000e+00
  P4dq TC5vq  1 3.950000e-01    1.850000e+00
  P4dq TC4vq  1 3.950000e-01    1.670000e+00
  P4dq TC3vq  1 3.980000e-01    1.450000e+00
  P4dq TC2vq  1 3.980000e-01    1.450000e+00
  P4dq TC1vq  1 3.990000e-01    1.180000e+00
  P4dq TX4vq  1 3.950000e-01    2.310000e+00
  P4dq TX3vq  1 3.950000e-01    2.110000e+00
  P4dq TX2vq  1 3.950000e-01    2.110000e+00
  P4dq TX1vq  1 3.950000e-01    1.850000e+00
  P4dq TC6eq  1 3.950000e-01    2.500000e+00
  P4dq TC5eq  1 3.950000e-01    2.310000e+00
  P4dq TC4eq  1 3.950000e-01    2.110000e+00
  P4dq TC3eq  1 3.950000e-01    1.850000e+00
  P4dq TC2eq  1 3.950000e-01    1.850000e+00
  P4dq TC1eq  1 3.950000e-01    1.670000e+00
  P4dq TX4eq  1 3.950000e-01    2.700000e+00
  P4dq TX3eq  1 3.950000e-01    2.500000e+00
  P4dq TX2eq  1 3.950000e-01    2.500000e+00
  P4dq TX1eq  1 3.950000e-01    2.310000e+00
  P3dq TP3dq  1 3.950000e-01    3.430000e+00
  P3dq  TP2q  1 3.950000e-01    3.670000e+00
  P3dq  TP1q  1 3.950000e-01    3.430000e+00
  P3dq  TN6q  1 3.950000e-01    3.190000e+00
  P3dq  TN5q  1 3.950000e-01    2.940000e+00
  P3dq  TN4q  1 3.950000e-01    2.940000e+00
  P3dq  TN3q  1 3.950000e-01    2.700000e+00
  P3dq  TN2q  1 3.950000e-01    2.700000e+00
  P3dq  TN1q  1 3.950000e-01    2.500000e+00
  P3dq  TC6q  1 3.950000e-01    2.500000e+00
  P3dq  TC5q  1 3.950000e-01    2.310000e+00
  P3dq  TC4q  1 3.950000e-01    2.110000e+00
  P3dq  TC3q  1 3.950000e-01    1.670000e+00
  P3dq  TC2q  1 3.950000e-01    1.670000e+00
  P3dq  TC1q  1 3.980000e-01    1.450000e+00
  P3dq  TX4q  1 3.950000e-01    2.500000e+00
  P3dq  TX3q  1 3.950000e-01    2.500000e+00
  P3dq  TX2q  1 3.950000e-01    2.310000e+00
  P3dq  TX1q  1 3.950000e-01    2.110000e+00
  P3dq TP2dq  1 3.950000e-01    3.430000e+00
  P3dq TP1dq  1 3.950000e-01    3.190000e+00
  P3dq TN6dq  1 3.950000e-01    2.940000e+00
  P3dq TN5dq  1 3.950000e-01    2.700000e+00
  P3dq TN4dq  1 3.950000e-01    2.700000e+00
  P3dq TN3dq  1 3.950000e-01    2.500000e+00
  P3dq TN2dq  1 3.950000e-01    2.500000e+00
  P3dq TN1dq  1 3.950000e-01    2.500000e+00
  P3dq TP3aq  1 3.950000e-01    3.910000e+00
  P3dq TP2aq  1 3.950000e-01    3.910000e+00
  P3dq TP1aq  1 3.950000e-01    3.670000e+00
  P3dq TN6aq  1 3.950000e-01    3.430000e+00
  P3dq TN5aq  1 3.950000e-01    3.190000e+00
  P3dq TN4aq  1 3.950000e-01    3.190000e+00
  P3dq TN3aq  1 3.950000e-01    2.940000e+00
  P3dq TN2aq  1 3.950000e-01    2.940000e+00
  P3dq TN1aq  1 3.950000e-01    2.500000e+00
  P3dq TC6vq  1 3.950000e-01    2.310000e+00
  P3dq TC5vq  1 3.950000e-01    2.110000e+00
  P3dq TC4vq  1 3.950000e-01    1.850000e+00
  P3dq TC3vq  1 3.980000e-01    1.450000e+00
  P3dq TC2vq  1 3.980000e-01    1.450000e+00
  P3dq TC1vq  1 3.990000e-01    1.180000e+00
  P3dq TX4vq  1 3.950000e-01    2.310000e+00
  P3dq TX3vq  1 3.950000e-01    2.310000e+00
  P3dq TX2vq  1 3.950000e-01    2.110000e+00
  P3dq TX1vq  1 3.950000e-01    1.850000e+00
  P3dq TC6eq  1 3.950000e-01    2.700000e+00
  P3dq TC5eq  1 3.950000e-01    2.500000e+00
  P3dq TC4eq  1 3.950000e-01    2.310000e+00
  P3dq TC3eq  1 3.950000e-01    1.850000e+00
  P3dq TC2eq  1 3.950000e-01    1.850000e+00
  P3dq TC1eq  1 3.950000e-01    1.670000e+00
  P3dq TX4eq  1 3.950000e-01    2.700000e+00
  P3dq TX3eq  1 3.950000e-01    2.700000e+00
  P3dq TX2eq  1 3.950000e-01    2.500000e+00
  P3dq TX1eq  1 3.950000e-01    2.310000e+00
  P2dq TP2dq  1 3.950000e-01    3.430000e+00
  P2dq  TP1q  1 3.950000e-01    3.430000e+00
  P2dq  TN6q  1 3.950000e-01    3.430000e+00
  P2dq  TN5q  1 3.950000e-01    3.190000e+00
  P2dq  TN4q  1 3.950000e-01    2.940000e+00
  P2dq  TN3q  1 3.950000e-01    2.700000e+00
  P2dq  TN2q  1 3.950000e-01    2.700000e+00
  P2dq  TN1q  1 3.950000e-01    2.700000e+00
  P2dq  TC6q  1 3.950000e-01    2.500000e+00
  P2dq  TC5q  1 3.950000e-01    2.310000e+00
  P2dq  TC4q  1 3.950000e-01    2.110000e+00
  P2dq  TC3q  1 3.950000e-01    1.850000e+00
  P2dq  TC2q  1 3.950000e-01    1.850000e+00
  P2dq  TC1q  1 3.950000e-01    1.670000e+00
  P2dq  TX4q  1 3.950000e-01    2.500000e+00
  P2dq  TX3q  1 3.950000e-01    2.500000e+00
  P2dq  TX2q  1 3.950000e-01    2.310000e+00
  P2dq  TX1q  1 3.950000e-01    2.110000e+00
  P2dq TP1dq  1 3.950000e-01    3.190000e+00
  P2dq TN6dq  1 3.950000e-01    3.190000e+00
  P2dq TN5dq  1 3.950000e-01    2.940000e+00
  P2dq TN4dq  1 3.950000e-01    2.700000e+00
  P2dq TN3dq  1 3.950000e-01    2.500000e+00
  P2dq TN2dq  1 3.950000e-01    2.500000e+00
  P2dq TN1dq  1 3.950000e-01    2.500000e+00
  P2dq TP2aq  1 3.950000e-01    3.910000e+00
  P2dq TP1aq  1 3.950000e-01    3.670000e+00
  P2dq TN6aq  1 3.950000e-01    3.670000e+00
  P2dq TN5aq  1 3.950000e-01    3.430000e+00
  P2dq TN4aq  1 3.950000e-01    3.190000e+00
  P2dq TN3aq  1 3.950000e-01    2.940000e+00
  P2dq TN2aq  1 3.950000e-01    2.940000e+00
  P2dq TN1aq  1 3.950000e-01    2.940000e+00
  P2dq TC6vq  1 3.950000e-01    2.310000e+00
  P2dq TC5vq  1 3.950000e-01    2.110000e+00
  P2dq TC4vq  1 3.950000e-01    1.850000e+00
  P2dq TC3vq  1 3.950000e-01    1.670000e+00
  P2dq TC2vq  1 3.950000e-01    1.670000e+00
  P2dq TC1vq  1 3.980000e-01    1.450000e+00
  P2dq TX4vq  1 3.950000e-01    2.310000e+00
  P2dq TX3vq  1 3.950000e-01    2.310000e+00
  P2dq TX2vq  1 3.950000e-01    2.110000e+00
  P2dq TX1vq  1 3.950000e-01    1.850000e+00
  P2dq TC6eq  1 3.950000e-01    2.700000e+00
  P2dq TC5eq  1 3.950000e-01    2.500000e+00
  P2dq TC4eq  1 3.950000e-01    2.310000e+00
  P2dq TC3eq  1 3.950000e-01    2.110000e+00
  P2dq TC2eq  1 3.950000e-01    2.110000e+00
  P2dq TC1eq  1 3.950000e-01    1.850000e+00
  P2dq TX4eq  1 3.950000e-01    2.700000e+00
  P2dq TX3eq  1 3.950000e-01    2.700000e+00
  P2dq TX2eq  1 3.950000e-01    2.500000e+00
  P2dq TX1eq  1 3.950000e-01    2.310000e+00
  P1dq TP1dq  1 3.950000e-01    3.190000e+00
  P1dq  TN6q  1 3.950000e-01    3.430000e+00
  P1dq  TN5q  1 3.950000e-01    3.190000e+00
  P1dq  TN4q  1 3.950000e-01    3.190000e+00
  P1dq  TN3q  1 3.950000e-01    2.700000e+00
  P1dq  TN2q  1 3.950000e-01    2.700000e+00
  P1dq  TN1q  1 3.950000e-01    2.700000e+00
  P1dq  TC6q  1 3.950000e-01    2.500000e+00
  P1dq  TC5q  1 3.950000e-01    2.310000e+00
  P1dq  TC4q  1 3.950000e-01    2.110000e+00
  P1dq  TC3q  1 3.950000e-01    1.850000e+00
  P1dq  TC2q  1 3.950000e-01    1.850000e+00
  P1dq  TC1q  1 3.950000e-01    1.670000e+00
  P1dq  TX4q  1 3.950000e-01    2.500000e+00
  P1dq  TX3q  1 3.950000e-01    2.500000e+00
  P1dq  TX2q  1 3.950000e-01    2.310000e+00
  P1dq  TX1q  1 3.950000e-01    2.110000e+00
  P1dq TN6dq  1 3.950000e-01    3.190000e+00
  P1dq TN5dq  1 3.950000e-01    2.940000e+00
  P1dq TN4dq  1 3.950000e-01    2.940000e+00
  P1dq TN3dq  1 3.950000e-01    2.500000e+00
  P1dq TN2dq  1 3.950000e-01    2.500000e+00
  P1dq TN1dq  1 3.950000e-01    2.500000e+00
  P1dq TP1aq  1 3.950000e-01    3.670000e+00
  P1dq TN6aq  1 3.950000e-01    3.670000e+00
  P1dq TN5aq  1 3.950000e-01    3.430000e+00
  P1dq TN4aq  1 3.950000e-01    3.430000e+00
  P1dq TN3aq  1 3.950000e-01    2.940000e+00
  P1dq TN2aq  1 3.950000e-01    2.940000e+00
  P1dq TN1aq  1 3.950000e-01    2.940000e+00
  P1dq TC6vq  1 3.950000e-01    2.310000e+00
  P1dq TC5vq  1 3.950000e-01    2.110000e+00
  P1dq TC4vq  1 3.950000e-01    1.850000e+00
  P1dq TC3vq  1 3.950000e-01    1.670000e+00
  P1dq TC2vq  1 3.950000e-01    1.670000e+00
  P1dq TC1vq  1 3.980000e-01    1.450000e+00
  P1dq TX4vq  1 3.950000e-01    2.310000e+00
  P1dq TX3vq  1 3.950000e-01    2.310000e+00
  P1dq TX2vq  1 3.950000e-01    2.110000e+00
  P1dq TX1vq  1 3.950000e-01    1.850000e+00
  P1dq TC6eq  1 3.950000e-01    2.700000e+00
  P1dq TC5eq  1 3.950000e-01    2.500000e+00
  P1dq TC4eq  1 3.950000e-01    2.310000e+00
  P1dq TC3eq  1 3.950000e-01    2.110000e+00
  P1dq TC2eq  1 3.950000e-01    2.110000e+00
  P1dq TC1eq  1 3.950000e-01    1.850000e+00
  P1dq TX4eq  1 3.950000e-01    2.700000e+00
  P1dq TX3eq  1 3.950000e-01    2.700000e+00
  P1dq TX2eq  1 3.950000e-01    2.500000e+00
  P1dq TX1eq  1 3.950000e-01    2.310000e+00
  N6dq TN6dq  1 3.950000e-01    3.190000e+00
  N6dq  TN5q  1 3.950000e-01    3.430000e+00
  N6dq  TN4q  1 3.950000e-01    3.430000e+00
  N6dq  TN3q  1 3.950000e-01    2.940000e+00
  N6dq  TN2q  1 3.950000e-01    2.700000e+00
  N6dq  TN1q  1 3.950000e-01    2.700000e+00
  N6dq  TC6q  1 3.950000e-01    2.700000e+00
  N6dq  TC5q  1 3.950000e-01    2.500000e+00
  N6dq  TC4q  1 3.950000e-01    2.310000e+00
  N6dq  TC3q  1 3.950000e-01    2.110000e+00
  N6dq  TC2q  1 3.950000e-01    2.110000e+00
  N6dq  TC1q  1 3.950000e-01    1.850000e+00
  N6dq  TX4q  1 3.950000e-01    2.700000e+00
  N6dq  TX3q  1 3.950000e-01    2.500000e+00
  N6dq  TX2q  1 3.950000e-01    2.310000e+00
  N6dq  TX1q  1 3.950000e-01    2.110000e+00
  N6dq TN5dq  1 3.950000e-01    3.190000e+00
  N6dq TN4dq  1 3.950000e-01    3.190000e+00
  N6dq TN3dq  1 3.950000e-01    2.700000e+00
  N6dq TN2dq  1 3.950000e-01    2.500000e+00
  N6dq TN1dq  1 3.950000e-01    2.500000e+00
  N6dq TN6aq  1 3.950000e-01    3.670000e+00
  N6dq TN5aq  1 3.950000e-01    3.670000e+00
  N6dq TN4aq  1 3.950000e-01    3.670000e+00
  N6dq TN3aq  1 3.950000e-01    3.190000e+00
  N6dq TN2aq  1 3.950000e-01    2.940000e+00
  N6dq TN1aq  1 3.950000e-01    2.940000e+00
  N6dq TC6vq  1 3.950000e-01    2.500000e+00
  N6dq TC5vq  1 3.950000e-01    2.310000e+00
  N6dq TC4vq  1 3.950000e-01    2.110000e+00
  N6dq TC3vq  1 3.950000e-01    1.850000e+00
  N6dq TC2vq  1 3.950000e-01    1.850000e+00
  N6dq TC1vq  1 3.950000e-01    1.670000e+00
  N6dq TX4vq  1 3.950000e-01    2.500000e+00
  N6dq TX3vq  1 3.950000e-01    2.310000e+00
  N6dq TX2vq  1 3.950000e-01    2.110000e+00
  N6dq TX1vq  1 3.950000e-01    1.850000e+00
  N6dq TC6eq  1 3.950000e-01    2.940000e+00
  N6dq TC5eq  1 3.950000e-01    2.700000e+00
  N6dq TC4eq  1 3.950000e-01    2.500000e+00
  N6dq TC3eq  1 3.950000e-01    2.310000e+00
  N6dq TC2eq  1 3.950000e-01    2.310000e+00
  N6dq TC1eq  1 3.950000e-01    2.110000e+00
  N6dq TX4eq  1 3.950000e-01    2.940000e+00
  N6dq TX3eq  1 3.950000e-01    2.700000e+00
  N6dq TX2eq  1 3.950000e-01    2.500000e+00
  N6dq TX1eq  1 3.950000e-01    2.310000e+00
  N5dq TN5dq  1 3.950000e-01    2.940000e+00
  N5dq  TN4q  1 3.950000e-01    3.190000e+00
  N5dq  TN3q  1 3.950000e-01    2.940000e+00
  N5dq  TN2q  1 3.950000e-01    2.940000e+00
  N5dq  TN1q  1 3.950000e-01    2.700000e+00
  N5dq  TC6q  1 3.950000e-01    2.700000e+00
  N5dq  TC5q  1 3.950000e-01    2.500000e+00
  N5dq  TC4q  1 3.950000e-01    2.310000e+00
  N5dq  TC3q  1 3.950000e-01    2.310000e+00
  N5dq  TC2q  1 3.950000e-01    2.110000e+00
  N5dq  TC1q  1 3.950000e-01    1.850000e+00
  N5dq  TX4q  1 3.950000e-01    2.940000e+00
  N5dq  TX3q  1 3.950000e-01    2.700000e+00
  N5dq  TX2q  1 3.950000e-01    2.500000e+00
  N5dq  TX1q  1 3.950000e-01    2.310000e+00
  N5dq TN4dq  1 3.950000e-01    2.940000e+00
  N5dq TN3dq  1 3.950000e-01    2.700000e+00
  N5dq TN2dq  1 3.950000e-01    2.700000e+00
  N5dq TN1dq  1 3.950000e-01    2.500000e+00
  N5dq TN5aq  1 3.950000e-01    3.430000e+00
  N5dq TN4aq  1 3.950000e-01    3.430000e+00
  N5dq TN3aq  1 3.950000e-01    3.190000e+00
  N5dq TN2aq  1 3.950000e-01    3.190000e+00
  N5dq TN1aq  1 3.950000e-01    2.940000e+00
  N5dq TC6vq  1 3.950000e-01    2.500000e+00
  N5dq TC5vq  1 3.950000e-01    2.310000e+00
  N5dq TC4vq  1 3.950000e-01    2.110000e+00
  N5dq TC3vq  1 3.950000e-01    2.110000e+00
  N5dq TC2vq  1 3.950000e-01    1.850000e+00
  N5dq TC1vq  1 3.950000e-01    1.670000e+00
  N5dq TX4vq  1 3.950000e-01    2.700000e+00
  N5dq TX3vq  1 3.950000e-01    2.500000e+00
  N5dq TX2vq  1 3.950000e-01    2.310000e+00
  N5dq TX1vq  1 3.950000e-01    2.110000e+00
  N5dq TC6eq  1 3.950000e-01    2.940000e+00
  N5dq TC5eq  1 3.950000e-01    2.700000e+00
  N5dq TC4eq  1 3.950000e-01    2.500000e+00
  N5dq TC3eq  1 3.950000e-01    2.500000e+00
  N5dq TC2eq  1 3.950000e-01    2.310000e+00
  N5dq TC1eq  1 3.950000e-01    2.110000e+00
  N5dq TX4eq  1 3.950000e-01    3.190000e+00
  N5dq TX3eq  1 3.950000e-01    2.940000e+00
  N5dq TX2eq  1 3.950000e-01    2.700000e+00
  N5dq TX1eq  1 3.950000e-01    2.500000e+00
  N4dq TN4dq  1 3.950000e-01    2.940000e+00
  N4dq  TN3q  1 3.950000e-01    2.940000e+00
  N4dq  TN2q  1 3.950000e-01    2.940000e+00
  N4dq  TN1q  1 3.950000e-01    2.700000e+00
  N4dq  TC6q  1 3.950000e-01    2.700000e+00
  N4dq  TC5q  1 3.950000e-01    2.500000e+00
  N4dq  TC4q  1 3.950000e-01    2.500000e+00
  N4dq  TC3q  1 3.950000e-01    2.310000e+00
  N4dq  TC2q  1 3.950000e-01    2.110000e+00
  N4dq  TC1q  1 3.950000e-01    1.850000e+00
  N4dq  TX4q  1 3.950000e-01    3.190000e+00
  N4dq  TX3q  1 3.950000e-01    2.940000e+00
  N4dq  TX2q  1 3.950000e-01    2.500000e+00
  N4dq  TX1q  1 3.950000e-01    2.310000e+00
  N4dq TN3dq  1 3.950000e-01    2.700000e+00
  N4dq TN2dq  1 3.950000e-01    2.700000e+00
  N4dq TN1dq  1 3.950000e-01    2.500000e+00
  N4dq TN4aq  1 3.950000e-01    3.430000e+00
  N4dq TN3aq  1 3.950000e-01    3.190000e+00
  N4dq TN2aq  1 3.950000e-01    3.190000e+00
  N4dq TN1aq  1 3.950000e-01    2.940000e+00
  N4dq TC6vq  1 3.950000e-01    2.500000e+00
  N4dq TC5vq  1 3.950000e-01    2.310000e+00
  N4dq TC4vq  1 3.950000e-01    2.310000e+00
  N4dq TC3vq  1 3.950000e-01    2.110000e+00
  N4dq TC2vq  1 3.950000e-01    1.850000e+00
  N4dq TC1vq  1 3.950000e-01    1.670000e+00
  N4dq TX4vq  1 3.950000e-01    2.940000e+00
  N4dq TX3vq  1 3.950000e-01    2.700000e+00
  N4dq TX2vq  1 3.950000e-01    2.310000e+00
  N4dq TX1vq  1 3.950000e-01    2.110000e+00
  N4dq TC6eq  1 3.950000e-01    2.940000e+00
  N4dq TC5eq  1 3.950000e-01    2.700000e+00
  N4dq TC4eq  1 3.950000e-01    2.700000e+00
  N4dq TC3eq  1 3.950000e-01    2.500000e+00
  N4dq TC2eq  1 3.950000e-01    2.310000e+00
  N4dq TC1eq  1 3.950000e-01    2.110000e+00
  N4dq TX4eq  1 3.950000e-01    3.430000e+00
  N4dq TX3eq  1 3.950000e-01    3.190000e+00
  N4dq TX2eq  1 3.950000e-01    2.700000e+00
  N4dq TX1eq  1 3.950000e-01    2.500000e+00
  N3dq TN3dq  1 3.950000e-01    2.700000e+00
  N3dq  TN2q  1 3.950000e-01    2.940000e+00
  N3dq  TN1q  1 3.950000e-01    2.700000e+00
  N3dq  TC6q  1 3.950000e-01    2.700000e+00
  N3dq  TC5q  1 3.950000e-01    2.500000e+00
  N3dq  TC4q  1 3.950000e-01    2.500000e+00
  N3dq  TC3q  1 3.950000e-01    2.310000e+00
  N3dq  TC2q  1 3.950000e-01    2.310000e+00
  N3dq  TC1q  1 3.950000e-01    2.110000e+00
  N3dq  TX4q  1 3.950000e-01    2.940000e+00
  N3dq  TX3q  1 3.950000e-01    2.700000e+00
  N3dq  TX2q  1 3.950000e-01    2.500000e+00
  N3dq  TX1q  1 3.950000e-01    2.500000e+00
  N3dq TN2dq  1 3.950000e-01    2.700000e+00
  N3dq TN1dq  1 3.950000e-01    2.500000e+00
  N3dq TN3aq  1 3.950000e-01    3.190000e+00
  N3dq TN2aq  1 3.950000e-01    3.190000e+00
  N3dq TN1aq  1 3.950000e-01    2.940000e+00
  N3dq TC6vq  1 3.950000e-01    2.500000e+00
  N3dq TC5vq  1 3.950000e-01    2.310000e+00
  N3dq TC4vq  1 3.950000e-01    2.310000e+00
  N3dq TC3vq  1 3.950000e-01    2.110000e+00
  N3dq TC2vq  1 3.950000e-01    2.110000e+00
  N3dq TC1vq  1 3.950000e-01    1.850000e+00
  N3dq TX4vq  1 3.950000e-01    2.700000e+00
  N3dq TX3vq  1 3.950000e-01    2.500000e+00
  N3dq TX2vq  1 3.950000e-01    2.310000e+00
  N3dq TX1vq  1 3.950000e-01    2.310000e+00
  N3dq TC6eq  1 3.950000e-01    2.940000e+00
  N3dq TC5eq  1 3.950000e-01    2.700000e+00
  N3dq TC4eq  1 3.950000e-01    2.700000e+00
  N3dq TC3eq  1 3.950000e-01    2.500000e+00
  N3dq TC2eq  1 3.950000e-01    2.500000e+00
  N3dq TC1eq  1 3.950000e-01    2.310000e+00
  N3dq TX4eq  1 3.950000e-01    3.190000e+00
  N3dq TX3eq  1 3.950000e-01    2.940000e+00
  N3dq TX2eq  1 3.950000e-01    2.700000e+00
  N3dq TX1eq  1 3.950000e-01    2.700000e+00
  N2dq TN2dq  1 3.950000e-01    2.700000e+00
  N2dq  TN1q  1 3.950000e-01    2.700000e+00
  N2dq  TC6q  1 3.950000e-01    2.700000e+00
  N2dq  TC5q  1 3.950000e-01    2.500000e+00
  N2dq  TC4q  1 3.950000e-01    2.500000e+00
  N2dq  TC3q  1 3.950000e-01    2.500000e+00
  N2dq  TC2q  1 3.950000e-01    2.310000e+00
  N2dq  TC1q  1 3.950000e-01    2.110000e+00
  N2dq  TX4q  1 3.950000e-01    2.940000e+00
  N2dq  TX3q  1 3.950000e-01    2.700000e+00
  N2dq  TX2q  1 3.950000e-01    2.500000e+00
  N2dq  TX1q  1 3.950000e-01    2.500000e+00
  N2dq TN1dq  1 3.950000e-01    2.500000e+00
  N2dq TN2aq  1 3.950000e-01    3.190000e+00
  N2dq TN1aq  1 3.950000e-01    2.940000e+00
  N2dq TC6vq  1 3.950000e-01    2.500000e+00
  N2dq TC5vq  1 3.950000e-01    2.310000e+00
  N2dq TC4vq  1 3.950000e-01    2.310000e+00
  N2dq TC3vq  1 3.950000e-01    2.310000e+00
  N2dq TC2vq  1 3.950000e-01    2.110000e+00
  N2dq TC1vq  1 3.950000e-01    1.850000e+00
  N2dq TX4vq  1 3.950000e-01    2.700000e+00
  N2dq TX3vq  1 3.950000e-01    2.500000e+00
  N2dq TX2vq  1 3.950000e-01    2.310000e+00
  N2dq TX1vq  1 3.950000e-01    2.310000e+00
  N2dq TC6eq  1 3.950000e-01    2.940000e+00
  N2dq TC5eq  1 3.950000e-01    2.700000e+00
  N2dq TC4eq  1 3.950000e-01    2.700000e+00
  N2dq TC3eq  1 3.950000e-01    2.700000e+00
  N2dq TC2eq  1 3.950000e-01    2.500000e+00
  N2dq TC1eq  1 3.950000e-01    2.310000e+00
  N2dq TX4eq  1 3.950000e-01    3.190000e+00
  N2dq TX3eq  1 3.950000e-01    2.940000e+00
  N2dq TX2eq  1 3.950000e-01    2.700000e+00
  N2dq TX1eq  1 3.950000e-01    2.700000e+00
  N1dq TN1dq  1 3.950000e-01    2.700000e+00
  N1dq  TC6q  1 3.950000e-01    2.940000e+00
  N1dq  TC5q  1 3.950000e-01    2.700000e+00
  N1dq  TC4q  1 3.950000e-01    2.700000e+00
  N1dq  TC3q  1 3.950000e-01    2.500000e+00
  N1dq  TC2q  1 3.950000e-01    2.310000e+00
  N1dq  TC1q  1 3.950000e-01    2.110000e+00
  N1dq  TX4q  1 3.950000e-01    2.700000e+00
  N1dq  TX3q  1 3.950000e-01    2.700000e+00
  N1dq  TX2q  1 3.950000e-01    2.500000e+00
  N1dq  TX1q  1 3.950000e-01    2.500000e+00
  N1dq TN1aq  1 3.950000e-01    3.190000e+00
  N1dq TC6vq  1 3.950000e-01    2.700000e+00
  N1dq TC5vq  1 3.950000e-01    2.500000e+00
  N1dq TC4vq  1 3.950000e-01    2.500000e+00
  N1dq TC3vq  1 3.950000e-01    2.310000e+00
  N1dq TC2vq  1 3.950000e-01    2.110000e+00
  N1dq TC1vq  1 3.950000e-01    1.850000e+00
  N1dq TX4vq  1 3.950000e-01    2.500000e+00
  N1dq TX3vq  1 3.950000e-01    2.500000e+00
  N1dq TX2vq  1 3.950000e-01    2.310000e+00
  N1dq TX1vq  1 3.950000e-01    2.310000e+00
  N1dq TC6eq  1 3.950000e-01    3.190000e+00
  N1dq TC5eq  1 3.950000e-01    2.940000e+00
  N1dq TC4eq  1 3.950000e-01    2.940000e+00
  N1dq TC3eq  1 3.950000e-01    2.700000e+00
  N1dq TC2eq  1 3.950000e-01    2.500000e+00
  N1dq TC1eq  1 3.950000e-01    2.310000e+00
  N1dq TX4eq  1 3.950000e-01    2.940000e+00
  N1dq TX3eq  1 3.950000e-01    2.940000e+00
  N1dq TX2eq  1 3.950000e-01    2.700000e+00
  N1dq TX1eq  1 3.950000e-01    2.700000e+00
  P6aq TP6aq  1 3.950000e-01    4.540000e+00
  P6aq  TP5q  1 3.950000e-01    4.540000e+00
  P6aq  TP4q  1 3.950000e-01    4.230000e+00
  P6aq  TP3q  1 3.950000e-01    3.910000e+00
  P6aq  TP2q  1 3.950000e-01    3.910000e+00
  P6aq  TP1q  1 3.950000e-01    3.670000e+00
  P6aq  TN6q  1 3.950000e-01    3.430000e+00
  P6aq  TN5q  1 3.950000e-01    2.940000e+00
  P6aq  TN4q  1 3.950000e-01    2.700000e+00
  P6aq  TN3q  1 3.950000e-01    2.500000e+00
  P6aq  TN2q  1 3.950000e-01    2.310000e+00
  P6aq  TN1q  1 3.950000e-01    2.110000e+00
  P6aq  TC6q  1 3.950000e-01    2.110000e+00
  P6aq  TC5q  1 3.950000e-01    1.850000e+00
  P6aq  TC4q  1 3.950000e-01    1.670000e+00
  P6aq  TC3q  1 3.980000e-01    1.450000e+00
  P6aq  TC2q  1 3.980000e-01    1.450000e+00
  P6aq  TC1q  1 4.010000e-01    9.830000e-01
  P6aq  TX4q  1 3.950000e-01    2.310000e+00
  P6aq  TX3q  1 3.950000e-01    2.310000e+00
  P6aq  TX2q  1 3.950000e-01    2.110000e+00
  P6aq  TX1q  1 3.950000e-01    1.850000e+00
  P6aq TP5dq  1 3.950000e-01    4.870000e+00
  P6aq TP4dq  1 3.950000e-01    4.540000e+00
  P6aq TP3dq  1 3.950000e-01    4.230000e+00
  P6aq TP2dq  1 3.950000e-01    4.230000e+00
  P6aq TP1dq  1 3.950000e-01    3.910000e+00
  P6aq TN6dq  1 3.950000e-01    3.670000e+00
  P6aq TN5dq  1 3.950000e-01    3.190000e+00
  P6aq TN4dq  1 3.950000e-01    2.940000e+00
  P6aq TN3dq  1 3.950000e-01    2.500000e+00
  P6aq TN2dq  1 3.950000e-01    2.310000e+00
  P6aq TN1dq  1 3.950000e-01    2.110000e+00
  P6aq TP5aq  1 3.950000e-01    4.230000e+00
  P6aq TP4aq  1 3.950000e-01    3.910000e+00
  P6aq TP3aq  1 3.950000e-01    3.670000e+00
  P6aq TP2aq  1 3.950000e-01    3.670000e+00
  P6aq TP1aq  1 3.950000e-01    3.430000e+00
  P6aq TN6aq  1 3.950000e-01    3.190000e+00
  P6aq TN5aq  1 3.950000e-01    2.700000e+00
  P6aq TN4aq  1 3.950000e-01    2.500000e+00
  P6aq TN3aq  1 3.950000e-01    2.500000e+00
  P6aq TN2aq  1 3.950000e-01    2.310000e+00
  P6aq TN1aq  1 3.950000e-01    2.110000e+00
  P6aq TC6vq  1 3.950000e-01    2.310000e+00
  P6aq TC5vq  1 3.950000e-01    2.110000e+00
  P6aq TC4vq  1 3.950000e-01    1.850000e+00
  P6aq TC3vq  1 3.950000e-01    1.670000e+00
  P6aq TC2vq  1 3.950000e-01    1.670000e+00
  P6aq TC1vq  1 3.990000e-01    1.180000e+00
  P6aq TX4vq  1 3.950000e-01    2.500000e+00
  P6aq TX3vq  1 3.950000e-01    2.500000e+00
  P6aq TX2vq  1 3.950000e-01    2.310000e+00
  P6aq TX1vq  1 3.950000e-01    2.110000e+00
  P6aq TC6eq  1 3.950000e-01    1.850000e+00
  P6aq TC5eq  1 3.950000e-01    1.670000e+00
  P6aq TC4eq  1 3.980000e-01    1.450000e+00
  P6aq TC3eq  1 3.990000e-01    1.180000e+00
  P6aq TC2eq  1 3.990000e-01    1.180000e+00
  P6aq TC1eq  1 4.040000e-01    8.300000e-01
  P6aq TX4eq  1 3.950000e-01    2.110000e+00
  P6aq TX3eq  1 3.950000e-01    2.110000e+00
  P6aq TX2eq  1 3.950000e-01    1.850000e+00
  P6aq TX1eq  1 3.950000e-01    1.670000e+00
  P5aq TP5aq  1 3.950000e-01    3.910000e+00
  P5aq  TP4q  1 3.950000e-01    3.910000e+00
  P5aq  TP3q  1 3.950000e-01    3.670000e+00
  P5aq  TP2q  1 3.950000e-01    3.670000e+00
  P5aq  TP1q  1 3.950000e-01    3.430000e+00
  P5aq  TN6q  1 3.950000e-01    3.190000e+00
  P5aq  TN5q  1 3.950000e-01    2.940000e+00
  P5aq  TN4q  1 3.950000e-01    2.940000e+00
  P5aq  TN3q  1 3.950000e-01    2.500000e+00
  P5aq  TN2q  1 3.950000e-01    2.310000e+00
  P5aq  TN1q  1 3.950000e-01    2.110000e+00
  P5aq  TC6q  1 3.950000e-01    2.110000e+00
  P5aq  TC5q  1 3.950000e-01    2.110000e+00
  P5aq  TC4q  1 3.950000e-01    1.850000e+00
  P5aq  TC3q  1 3.950000e-01    1.670000e+00
  P5aq  TC2q  1 3.950000e-01    1.670000e+00
  P5aq  TC1q  1 3.980000e-01    1.450000e+00
  P5aq  TX4q  1 3.950000e-01    2.500000e+00
  P5aq  TX3q  1 3.950000e-01    2.310000e+00
  P5aq  TX2q  1 3.950000e-01    2.310000e+00
  P5aq  TX1q  1 3.950000e-01    1.850000e+00
  P5aq TP4dq  1 3.950000e-01    4.230000e+00
  P5aq TP3dq  1 3.950000e-01    3.910000e+00
  P5aq TP2dq  1 3.950000e-01    3.910000e+00
  P5aq TP1dq  1 3.950000e-01    3.670000e+00
  P5aq TN6dq  1 3.950000e-01    3.430000e+00
  P5aq TN5dq  1 3.950000e-01    3.190000e+00
  P5aq TN4dq  1 3.950000e-01    3.190000e+00
  P5aq TN3dq  1 3.950000e-01    2.500000e+00
  P5aq TN2dq  1 3.950000e-01    2.310000e+00
  P5aq TN1dq  1 3.950000e-01    2.110000e+00
  P5aq TP4aq  1 3.950000e-01    3.670000e+00
  P5aq TP3aq  1 3.950000e-01    3.430000e+00
  P5aq TP2aq  1 3.950000e-01    3.430000e+00
  P5aq TP1aq  1 3.950000e-01    3.190000e+00
  P5aq TN6aq  1 3.950000e-01    2.940000e+00
  P5aq TN5aq  1 3.950000e-01    2.700000e+00
  P5aq TN4aq  1 3.950000e-01    2.700000e+00
  P5aq TN3aq  1 3.950000e-01    2.500000e+00
  P5aq TN2aq  1 3.950000e-01    2.310000e+00
  P5aq TN1aq  1 3.950000e-01    2.110000e+00
  P5aq TC6vq  1 3.950000e-01    2.310000e+00
  P5aq TC5vq  1 3.950000e-01    2.310000e+00
  P5aq TC4vq  1 3.950000e-01    2.110000e+00
  P5aq TC3vq  1 3.950000e-01    1.850000e+00
  P5aq TC2vq  1 3.950000e-01    1.850000e+00
  P5aq TC1vq  1 3.950000e-01    1.670000e+00
  P5aq TX4vq  1 3.950000e-01    2.700000e+00
  P5aq TX3vq  1 3.950000e-01    2.500000e+00
  P5aq TX2vq  1 3.950000e-01    2.500000e+00
  P5aq TX1vq  1 3.950000e-01    2.110000e+00
  P5aq TC6eq  1 3.950000e-01    1.850000e+00
  P5aq TC5eq  1 3.950000e-01    1.850000e+00
  P5aq TC4eq  1 3.950000e-01    1.670000e+00
  P5aq TC3eq  1 3.980000e-01    1.450000e+00
  P5aq TC2eq  1 3.980000e-01    1.450000e+00
  P5aq TC1eq  1 3.990000e-01    1.180000e+00
  P5aq TX4eq  1 3.950000e-01    2.310000e+00
  P5aq TX3eq  1 3.950000e-01    2.110000e+00
  P5aq TX2eq  1 3.950000e-01    2.110000e+00
  P5aq TX1eq  1 3.950000e-01    1.670000e+00
  P4aq TP4aq  1 3.950000e-01    3.670000e+00
  P4aq  TP3q  1 3.950000e-01    3.670000e+00
  P4aq  TP2q  1 3.950000e-01    3.670000e+00
  P4aq  TP1q  1 3.950000e-01    3.430000e+00
  P4aq  TN6q  1 3.950000e-01    3.190000e+00
  P4aq  TN5q  1 3.950000e-01    2.940000e+00
  P4aq  TN4q  1 3.950000e-01    2.940000e+00
  P4aq  TN3q  1 3.950000e-01    2.700000e+00
  P4aq  TN2q  1 3.950000e-01    2.500000e+00
  P4aq  TN1q  1 3.950000e-01    2.310000e+00
  P4aq  TC6q  1 3.950000e-01    2.310000e+00
  P4aq  TC5q  1 3.950000e-01    2.110000e+00
  P4aq  TC4q  1 3.950000e-01    1.850000e+00
  P4aq  TC3q  1 3.950000e-01    1.670000e+00
  P4aq  TC2q  1 3.950000e-01    1.670000e+00
  P4aq  TC1q  1 3.980000e-01    1.450000e+00
  P4aq  TX4q  1 3.950000e-01    2.500000e+00
  P4aq  TX3q  1 3.950000e-01    2.310000e+00
  P4aq  TX2q  1 3.950000e-01    2.310000e+00
  P4aq  TX1q  1 3.950000e-01    2.110000e+00
  P4aq TP3dq  1 3.950000e-01    3.910000e+00
  P4aq TP2dq  1 3.950000e-01    3.910000e+00
  P4aq TP1dq  1 3.950000e-01    3.670000e+00
  P4aq TN6dq  1 3.950000e-01    3.430000e+00
  P4aq TN5dq  1 3.950000e-01    3.190000e+00
  P4aq TN4dq  1 3.950000e-01    3.190000e+00
  P4aq TN3dq  1 3.950000e-01    2.940000e+00
  P4aq TN2dq  1 3.950000e-01    2.500000e+00
  P4aq TN1dq  1 3.950000e-01    2.310000e+00
  P4aq TP3aq  1 3.950000e-01    3.430000e+00
  P4aq TP2aq  1 3.950000e-01    3.430000e+00
  P4aq TP1aq  1 3.950000e-01    3.190000e+00
  P4aq TN6aq  1 3.950000e-01    2.940000e+00
  P4aq TN5aq  1 3.950000e-01    2.700000e+00
  P4aq TN4aq  1 3.950000e-01    2.700000e+00
  P4aq TN3aq  1 3.950000e-01    2.500000e+00
  P4aq TN2aq  1 3.950000e-01    2.500000e+00
  P4aq TN1aq  1 3.950000e-01    2.310000e+00
  P4aq TC6vq  1 3.950000e-01    2.500000e+00
  P4aq TC5vq  1 3.950000e-01    2.310000e+00
  P4aq TC4vq  1 3.950000e-01    2.110000e+00
  P4aq TC3vq  1 3.950000e-01    1.850000e+00
  P4aq TC2vq  1 3.950000e-01    1.850000e+00
  P4aq TC1vq  1 3.950000e-01    1.670000e+00
  P4aq TX4vq  1 3.950000e-01    2.700000e+00
  P4aq TX3vq  1 3.950000e-01    2.500000e+00
  P4aq TX2vq  1 3.950000e-01    2.500000e+00
  P4aq TX1vq  1 3.950000e-01    2.310000e+00
  P4aq TC6eq  1 3.950000e-01    2.110000e+00
  P4aq TC5eq  1 3.950000e-01    1.850000e+00
  P4aq TC4eq  1 3.950000e-01    1.670000e+00
  P4aq TC3eq  1 3.980000e-01    1.450000e+00
  P4aq TC2eq  1 3.980000e-01    1.450000e+00
  P4aq TC1eq  1 3.990000e-01    1.180000e+00
  P4aq TX4eq  1 3.950000e-01    2.310000e+00
  P4aq TX3eq  1 3.950000e-01    2.110000e+00
  P4aq TX2eq  1 3.950000e-01    2.110000e+00
  P4aq TX1eq  1 3.950000e-01    1.850000e+00
  P3aq TP3aq  1 3.950000e-01    3.430000e+00
  P3aq  TP2q  1 3.950000e-01    3.670000e+00
  P3aq  TP1q  1 3.950000e-01    3.430000e+00
  P3aq  TN6q  1 3.950000e-01    3.190000e+00
  P3aq  TN5q  1 3.950000e-01    2.940000e+00
  P3aq  TN4q  1 3.950000e-01    2.940000e+00
  P3aq  TN3q  1 3.950000e-01    2.700000e+00
  P3aq  TN2q  1 3.950000e-01    2.700000e+00
  P3aq  TN1q  1 3.950000e-01    2.500000e+00
  P3aq  TC6q  1 3.950000e-01    2.500000e+00
  P3aq  TC5q  1 3.950000e-01    2.310000e+00
  P3aq  TC4q  1 3.950000e-01    2.110000e+00
  P3aq  TC3q  1 3.950000e-01    1.670000e+00
  P3aq  TC2q  1 3.950000e-01    1.670000e+00
  P3aq  TC1q  1 3.980000e-01    1.450000e+00
  P3aq  TX4q  1 3.950000e-01    2.500000e+00
  P3aq  TX3q  1 3.950000e-01    2.500000e+00
  P3aq  TX2q  1 3.950000e-01    2.310000e+00
  P3aq  TX1q  1 3.950000e-01    2.110000e+00
  P3aq TP2dq  1 3.950000e-01    3.910000e+00
  P3aq TP1dq  1 3.950000e-01    3.670000e+00
  P3aq TN6dq  1 3.950000e-01    3.430000e+00
  P3aq TN5dq  1 3.950000e-01    3.190000e+00
  P3aq TN4dq  1 3.950000e-01    3.190000e+00
  P3aq TN3dq  1 3.950000e-01    2.940000e+00
  P3aq TN2dq  1 3.950000e-01    2.940000e+00
  P3aq TN1dq  1 3.950000e-01    2.500000e+00
  P3aq TP2aq  1 3.950000e-01    3.430000e+00
  P3aq TP1aq  1 3.950000e-01    3.190000e+00
  P3aq TN6aq  1 3.950000e-01    2.940000e+00
  P3aq TN5aq  1 3.950000e-01    2.700000e+00
  P3aq TN4aq  1 3.950000e-01    2.700000e+00
  P3aq TN3aq  1 3.950000e-01    2.500000e+00
  P3aq TN2aq  1 3.950000e-01    2.500000e+00
  P3aq TN1aq  1 3.950000e-01    2.500000e+00
  P3aq TC6vq  1 3.950000e-01    2.700000e+00
  P3aq TC5vq  1 3.950000e-01    2.500000e+00
  P3aq TC4vq  1 3.950000e-01    2.310000e+00
  P3aq TC3vq  1 3.950000e-01    1.850000e+00
  P3aq TC2vq  1 3.950000e-01    1.850000e+00
  P3aq TC1vq  1 3.950000e-01    1.670000e+00
  P3aq TX4vq  1 3.950000e-01    2.700000e+00
  P3aq TX3vq  1 3.950000e-01    2.700000e+00
  P3aq TX2vq  1 3.950000e-01    2.500000e+00
  P3aq TX1vq  1 3.950000e-01    2.310000e+00
  P3aq TC6eq  1 3.950000e-01    2.310000e+00
  P3aq TC5eq  1 3.950000e-01    2.110000e+00
  P3aq TC4eq  1 3.950000e-01    1.850000e+00
  P3aq TC3eq  1 3.980000e-01    1.450000e+00
  P3aq TC2eq  1 3.980000e-01    1.450000e+00
  P3aq TC1eq  1 3.990000e-01    1.180000e+00
  P3aq TX4eq  1 3.950000e-01    2.310000e+00
  P3aq TX3eq  1 3.950000e-01    2.310000e+00
  P3aq TX2eq  1 3.950000e-01    2.110000e+00
  P3aq TX1eq  1 3.950000e-01    1.850000e+00
  P2aq TP2aq  1 3.950000e-01    3.430000e+00
  P2aq  TP1q  1 3.950000e-01    3.430000e+00
  P2aq  TN6q  1 3.950000e-01    3.430000e+00
  P2aq  TN5q  1 3.950000e-01    3.190000e+00
  P2aq  TN4q  1 3.950000e-01    2.940000e+00
  P2aq  TN3q  1 3.950000e-01    2.700000e+00
  P2aq  TN2q  1 3.950000e-01    2.700000e+00
  P2aq  TN1q  1 3.950000e-01    2.700000e+00
  P2aq  TC6q  1 3.950000e-01    2.500000e+00
  P2aq  TC5q  1 3.950000e-01    2.310000e+00
  P2aq  TC4q  1 3.950000e-01    2.110000e+00
  P2aq  TC3q  1 3.950000e-01    1.850000e+00
  P2aq  TC2q  1 3.950000e-01    1.850000e+00
  P2aq  TC1q  1 3.950000e-01    1.670000e+00
  P2aq  TX4q  1 3.950000e-01    2.500000e+00
  P2aq  TX3q  1 3.950000e-01    2.500000e+00
  P2aq  TX2q  1 3.950000e-01    2.310000e+00
  P2aq  TX1q  1 3.950000e-01    2.110000e+00
  P2aq TP1dq  1 3.950000e-01    3.670000e+00
  P2aq TN6dq  1 3.950000e-01    3.670000e+00
  P2aq TN5dq  1 3.950000e-01    3.430000e+00
  P2aq TN4dq  1 3.950000e-01    3.190000e+00
  P2aq TN3dq  1 3.950000e-01    2.940000e+00
  P2aq TN2dq  1 3.950000e-01    2.940000e+00
  P2aq TN1dq  1 3.950000e-01    2.940000e+00
  P2aq TP1aq  1 3.950000e-01    3.190000e+00
  P2aq TN6aq  1 3.950000e-01    3.190000e+00
  P2aq TN5aq  1 3.950000e-01    2.940000e+00
  P2aq TN4aq  1 3.950000e-01    2.700000e+00
  P2aq TN3aq  1 3.950000e-01    2.500000e+00
  P2aq TN2aq  1 3.950000e-01    2.500000e+00
  P2aq TN1aq  1 3.950000e-01    2.500000e+00
  P2aq TC6vq  1 3.950000e-01    2.700000e+00
  P2aq TC5vq  1 3.950000e-01    2.500000e+00
  P2aq TC4vq  1 3.950000e-01    2.310000e+00
  P2aq TC3vq  1 3.950000e-01    2.110000e+00
  P2aq TC2vq  1 3.950000e-01    2.110000e+00
  P2aq TC1vq  1 3.950000e-01    1.850000e+00
  P2aq TX4vq  1 3.950000e-01    2.700000e+00
  P2aq TX3vq  1 3.950000e-01    2.700000e+00
  P2aq TX2vq  1 3.950000e-01    2.500000e+00
  P2aq TX1vq  1 3.950000e-01    2.310000e+00
  P2aq TC6eq  1 3.950000e-01    2.310000e+00
  P2aq TC5eq  1 3.950000e-01    2.110000e+00
  P2aq TC4eq  1 3.950000e-01    1.850000e+00
  P2aq TC3eq  1 3.950000e-01    1.670000e+00
  P2aq TC2eq  1 3.950000e-01    1.670000e+00
  P2aq TC1eq  1 3.980000e-01    1.450000e+00
  P2aq TX4eq  1 3.950000e-01    2.310000e+00
  P2aq TX3eq  1 3.950000e-01    2.310000e+00
  P2aq TX2eq  1 3.950000e-01    2.110000e+00
  P2aq TX1eq  1 3.950000e-01    1.850000e+00
  P1aq TP1aq  1 3.950000e-01    3.190000e+00
  P1aq  TN6q  1 3.950000e-01    3.430000e+00
  P1aq  TN5q  1 3.950000e-01    3.190000e+00
  P1aq  TN4q  1 3.950000e-01    3.190000e+00
  P1aq  TN3q  1 3.950000e-01    2.700000e+00
  P1aq  TN2q  1 3.950000e-01    2.700000e+00
  P1aq  TN1q  1 3.950000e-01    2.700000e+00
  P1aq  TC6q  1 3.950000e-01    2.500000e+00
  P1aq  TC5q  1 3.950000e-01    2.310000e+00
  P1aq  TC4q  1 3.950000e-01    2.110000e+00
  P1aq  TC3q  1 3.950000e-01    1.850000e+00
  P1aq  TC2q  1 3.950000e-01    1.850000e+00
  P1aq  TC1q  1 3.950000e-01    1.670000e+00
  P1aq  TX4q  1 3.950000e-01    2.500000e+00
  P1aq  TX3q  1 3.950000e-01    2.500000e+00
  P1aq  TX2q  1 3.950000e-01    2.310000e+00
  P1aq  TX1q  1 3.950000e-01    2.110000e+00
  P1aq TN6dq  1 3.950000e-01    3.670000e+00
  P1aq TN5dq  1 3.950000e-01    3.430000e+00
  P1aq TN4dq  1 3.950000e-01    3.430000e+00
  P1aq TN3dq  1 3.950000e-01    2.940000e+00
  P1aq TN2dq  1 3.950000e-01    2.940000e+00
  P1aq TN1dq  1 3.950000e-01    2.940000e+00
  P1aq TN6aq  1 3.950000e-01    3.190000e+00
  P1aq TN5aq  1 3.950000e-01    2.940000e+00
  P1aq TN4aq  1 3.950000e-01    2.940000e+00
  P1aq TN3aq  1 3.950000e-01    2.500000e+00
  P1aq TN2aq  1 3.950000e-01    2.500000e+00
  P1aq TN1aq  1 3.950000e-01    2.500000e+00
  P1aq TC6vq  1 3.950000e-01    2.700000e+00
  P1aq TC5vq  1 3.950000e-01    2.500000e+00
  P1aq TC4vq  1 3.950000e-01    2.310000e+00
  P1aq TC3vq  1 3.950000e-01    2.110000e+00
  P1aq TC2vq  1 3.950000e-01    2.110000e+00
  P1aq TC1vq  1 3.950000e-01    1.850000e+00
  P1aq TX4vq  1 3.950000e-01    2.700000e+00
  P1aq TX3vq  1 3.950000e-01    2.700000e+00
  P1aq TX2vq  1 3.950000e-01    2.500000e+00
  P1aq TX1vq  1 3.950000e-01    2.310000e+00
  P1aq TC6eq  1 3.950000e-01    2.310000e+00
  P1aq TC5eq  1 3.950000e-01    2.110000e+00
  P1aq TC4eq  1 3.950000e-01    1.850000e+00
  P1aq TC3eq  1 3.950000e-01    1.670000e+00
  P1aq TC2eq  1 3.950000e-01    1.670000e+00
  P1aq TC1eq  1 3.980000e-01    1.450000e+00
  P1aq TX4eq  1 3.950000e-01    2.310000e+00
  P1aq TX3eq  1 3.950000e-01    2.310000e+00
  P1aq TX2eq  1 3.950000e-01    2.110000e+00
  P1aq TX1eq  1 3.950000e-01    1.850000e+00
  N6aq TN6aq  1 3.950000e-01    3.190000e+00
  N6aq  TN5q  1 3.950000e-01    3.430000e+00
  N6aq  TN4q  1 3.950000e-01    3.430000e+00
  N6aq  TN3q  1 3.950000e-01    2.940000e+00
  N6aq  TN2q  1 3.950000e-01    2.700000e+00
  N6aq  TN1q  1 3.950000e-01    2.700000e+00
  N6aq  TC6q  1 3.950000e-01    2.700000e+00
  N6aq  TC5q  1 3.950000e-01    2.500000e+00
  N6aq  TC4q  1 3.950000e-01    2.310000e+00
  N6aq  TC3q  1 3.950000e-01    2.110000e+00
  N6aq  TC2q  1 3.950000e-01    2.110000e+00
  N6aq  TC1q  1 3.950000e-01    1.850000e+00
  N6aq  TX4q  1 3.950000e-01    2.700000e+00
  N6aq  TX3q  1 3.950000e-01    2.500000e+00
  N6aq  TX2q  1 3.950000e-01    2.310000e+00
  N6aq  TX1q  1 3.950000e-01    2.110000e+00
  N6aq TN5dq  1 3.950000e-01    3.670000e+00
  N6aq TN4dq  1 3.950000e-01    3.670000e+00
  N6aq TN3dq  1 3.950000e-01    3.190000e+00
  N6aq TN2dq  1 3.950000e-01    2.940000e+00
  N6aq TN1dq  1 3.950000e-01    2.940000e+00
  N6aq TN5aq  1 3.950000e-01    3.190000e+00
  N6aq TN4aq  1 3.950000e-01    3.190000e+00
  N6aq TN3aq  1 3.950000e-01    2.700000e+00
  N6aq TN2aq  1 3.950000e-01    2.500000e+00
  N6aq TN1aq  1 3.950000e-01    2.500000e+00
  N6aq TC6vq  1 3.950000e-01    2.940000e+00
  N6aq TC5vq  1 3.950000e-01    2.700000e+00
  N6aq TC4vq  1 3.950000e-01    2.500000e+00
  N6aq TC3vq  1 3.950000e-01    2.310000e+00
  N6aq TC2vq  1 3.950000e-01    2.310000e+00
  N6aq TC1vq  1 3.950000e-01    2.110000e+00
  N6aq TX4vq  1 3.950000e-01    2.940000e+00
  N6aq TX3vq  1 3.950000e-01    2.700000e+00
  N6aq TX2vq  1 3.950000e-01    2.500000e+00
  N6aq TX1vq  1 3.950000e-01    2.310000e+00
  N6aq TC6eq  1 3.950000e-01    2.500000e+00
  N6aq TC5eq  1 3.950000e-01    2.310000e+00
  N6aq TC4eq  1 3.950000e-01    2.110000e+00
  N6aq TC3eq  1 3.950000e-01    1.850000e+00
  N6aq TC2eq  1 3.950000e-01    1.850000e+00
  N6aq TC1eq  1 3.950000e-01    1.670000e+00
  N6aq TX4eq  1 3.950000e-01    2.500000e+00
  N6aq TX3eq  1 3.950000e-01    2.310000e+00
  N6aq TX2eq  1 3.950000e-01    2.110000e+00
  N6aq TX1eq  1 3.950000e-01    1.850000e+00
  N5aq TN5aq  1 3.950000e-01    2.940000e+00
  N5aq  TN4q  1 3.950000e-01    3.190000e+00
  N5aq  TN3q  1 3.950000e-01    2.940000e+00
  N5aq  TN2q  1 3.950000e-01    2.940000e+00
  N5aq  TN1q  1 3.950000e-01    2.700000e+00
  N5aq  TC6q  1 3.950000e-01    2.700000e+00
  N5aq  TC5q  1 3.950000e-01    2.500000e+00
  N5aq  TC4q  1 3.950000e-01    2.310000e+00
  N5aq  TC3q  1 3.950000e-01    2.310000e+00
  N5aq  TC2q  1 3.950000e-01    2.110000e+00
  N5aq  TC1q  1 3.950000e-01    1.850000e+00
  N5aq  TX4q  1 3.950000e-01    2.940000e+00
  N5aq  TX3q  1 3.950000e-01    2.700000e+00
  N5aq  TX2q  1 3.950000e-01    2.500000e+00
  N5aq  TX1q  1 3.950000e-01    2.310000e+00
  N5aq TN4dq  1 3.950000e-01    3.430000e+00
  N5aq TN3dq  1 3.950000e-01    3.190000e+00
  N5aq TN2dq  1 3.950000e-01    3.190000e+00
  N5aq TN1dq  1 3.950000e-01    2.940000e+00
  N5aq TN4aq  1 3.950000e-01    2.940000e+00
  N5aq TN3aq  1 3.950000e-01    2.700000e+00
  N5aq TN2aq  1 3.950000e-01    2.700000e+00
  N5aq TN1aq  1 3.950000e-01    2.500000e+00
  N5aq TC6vq  1 3.950000e-01    2.940000e+00
  N5aq TC5vq  1 3.950000e-01    2.700000e+00
  N5aq TC4vq  1 3.950000e-01    2.500000e+00
  N5aq TC3vq  1 3.950000e-01    2.500000e+00
  N5aq TC2vq  1 3.950000e-01    2.310000e+00
  N5aq TC1vq  1 3.950000e-01    2.110000e+00
  N5aq TX4vq  1 3.950000e-01    3.190000e+00
  N5aq TX3vq  1 3.950000e-01    2.940000e+00
  N5aq TX2vq  1 3.950000e-01    2.700000e+00
  N5aq TX1vq  1 3.950000e-01    2.500000e+00
  N5aq TC6eq  1 3.950000e-01    2.500000e+00
  N5aq TC5eq  1 3.950000e-01    2.310000e+00
  N5aq TC4eq  1 3.950000e-01    2.110000e+00
  N5aq TC3eq  1 3.950000e-01    2.110000e+00
  N5aq TC2eq  1 3.950000e-01    1.850000e+00
  N5aq TC1eq  1 3.950000e-01    1.670000e+00
  N5aq TX4eq  1 3.950000e-01    2.700000e+00
  N5aq TX3eq  1 3.950000e-01    2.500000e+00
  N5aq TX2eq  1 3.950000e-01    2.310000e+00
  N5aq TX1eq  1 3.950000e-01    2.110000e+00
  N4aq TN4aq  1 3.950000e-01    2.940000e+00
  N4aq  TN3q  1 3.950000e-01    2.940000e+00
  N4aq  TN2q  1 3.950000e-01    2.940000e+00
  N4aq  TN1q  1 3.950000e-01    2.700000e+00
  N4aq  TC6q  1 3.950000e-01    2.700000e+00
  N4aq  TC5q  1 3.950000e-01    2.500000e+00
  N4aq  TC4q  1 3.950000e-01    2.500000e+00
  N4aq  TC3q  1 3.950000e-01    2.310000e+00
  N4aq  TC2q  1 3.950000e-01    2.110000e+00
  N4aq  TC1q  1 3.950000e-01    1.850000e+00
  N4aq  TX4q  1 3.950000e-01    3.190000e+00
  N4aq  TX3q  1 3.950000e-01    2.940000e+00
  N4aq  TX2q  1 3.950000e-01    2.500000e+00
  N4aq  TX1q  1 3.950000e-01    2.310000e+00
  N4aq TN3dq  1 3.950000e-01    3.190000e+00
  N4aq TN2dq  1 3.950000e-01    3.190000e+00
  N4aq TN1dq  1 3.950000e-01    2.940000e+00
  N4aq TN3aq  1 3.950000e-01    2.700000e+00
  N4aq TN2aq  1 3.950000e-01    2.700000e+00
  N4aq TN1aq  1 3.950000e-01    2.500000e+00
  N4aq TC6vq  1 3.950000e-01    2.940000e+00
  N4aq TC5vq  1 3.950000e-01    2.700000e+00
  N4aq TC4vq  1 3.950000e-01    2.700000e+00
  N4aq TC3vq  1 3.950000e-01    2.500000e+00
  N4aq TC2vq  1 3.950000e-01    2.310000e+00
  N4aq TC1vq  1 3.950000e-01    2.110000e+00
  N4aq TX4vq  1 3.950000e-01    3.430000e+00
  N4aq TX3vq  1 3.950000e-01    3.190000e+00
  N4aq TX2vq  1 3.950000e-01    2.700000e+00
  N4aq TX1vq  1 3.950000e-01    2.500000e+00
  N4aq TC6eq  1 3.950000e-01    2.500000e+00
  N4aq TC5eq  1 3.950000e-01    2.310000e+00
  N4aq TC4eq  1 3.950000e-01    2.310000e+00
  N4aq TC3eq  1 3.950000e-01    2.110000e+00
  N4aq TC2eq  1 3.950000e-01    1.850000e+00
  N4aq TC1eq  1 3.950000e-01    1.670000e+00
  N4aq TX4eq  1 3.950000e-01    2.940000e+00
  N4aq TX3eq  1 3.950000e-01    2.700000e+00
  N4aq TX2eq  1 3.950000e-01    2.310000e+00
  N4aq TX1eq  1 3.950000e-01    2.110000e+00
  N3aq TN3aq  1 3.950000e-01    2.700000e+00
  N3aq  TN2q  1 3.950000e-01    2.940000e+00
  N3aq  TN1q  1 3.950000e-01    2.700000e+00
  N3aq  TC6q  1 3.950000e-01    2.700000e+00
  N3aq  TC5q  1 3.950000e-01    2.500000e+00
  N3aq  TC4q  1 3.950000e-01    2.500000e+00
  N3aq  TC3q  1 3.950000e-01    2.310000e+00
  N3aq  TC2q  1 3.950000e-01    2.310000e+00
  N3aq  TC1q  1 3.950000e-01    2.110000e+00
  N3aq  TX4q  1 3.950000e-01    2.940000e+00
  N3aq  TX3q  1 3.950000e-01    2.700000e+00
  N3aq  TX2q  1 3.950000e-01    2.500000e+00
  N3aq  TX1q  1 3.950000e-01    2.500000e+00
  N3aq TN2dq  1 3.950000e-01    3.190000e+00
  N3aq TN1dq  1 3.950000e-01    2.940000e+00
  N3aq TN2aq  1 3.950000e-01    2.700000e+00
  N3aq TN1aq  1 3.950000e-01    2.500000e+00
  N3aq TC6vq  1 3.950000e-01    2.940000e+00
  N3aq TC5vq  1 3.950000e-01    2.700000e+00
  N3aq TC4vq  1 3.950000e-01    2.700000e+00
  N3aq TC3vq  1 3.950000e-01    2.500000e+00
  N3aq TC2vq  1 3.950000e-01    2.500000e+00
  N3aq TC1vq  1 3.950000e-01    2.310000e+00
  N3aq TX4vq  1 3.950000e-01    3.190000e+00
  N3aq TX3vq  1 3.950000e-01    2.940000e+00
  N3aq TX2vq  1 3.950000e-01    2.700000e+00
  N3aq TX1vq  1 3.950000e-01    2.700000e+00
  N3aq TC6eq  1 3.950000e-01    2.500000e+00
  N3aq TC5eq  1 3.950000e-01    2.310000e+00
  N3aq TC4eq  1 3.950000e-01    2.310000e+00
  N3aq TC3eq  1 3.950000e-01    2.110000e+00
  N3aq TC2eq  1 3.950000e-01    2.110000e+00
  N3aq TC1eq  1 3.950000e-01    1.850000e+00
  N3aq TX4eq  1 3.950000e-01    2.700000e+00
  N3aq TX3eq  1 3.950000e-01    2.500000e+00
  N3aq TX2eq  1 3.950000e-01    2.310000e+00
  N3aq TX1eq  1 3.950000e-01    2.310000e+00
  N2aq TN2aq  1 3.950000e-01    2.700000e+00
  N2aq  TN1q  1 3.950000e-01    2.700000e+00
  N2aq  TC6q  1 3.950000e-01    2.700000e+00
  N2aq  TC5q  1 3.950000e-01    2.500000e+00
  N2aq  TC4q  1 3.950000e-01    2.500000e+00
  N2aq  TC3q  1 3.950000e-01    2.500000e+00
  N2aq  TC2q  1 3.950000e-01    2.310000e+00
  N2aq  TC1q  1 3.950000e-01    2.110000e+00
  N2aq  TX4q  1 3.950000e-01    2.940000e+00
  N2aq  TX3q  1 3.950000e-01    2.700000e+00
  N2aq  TX2q  1 3.950000e-01    2.500000e+00
  N2aq  TX1q  1 3.950000e-01    2.500000e+00
  N2aq TN1dq  1 3.950000e-01    2.940000e+00
  N2aq TN1aq  1 3.950000e-01    2.500000e+00
  N2aq TC6vq  1 3.950000e-01    2.940000e+00
  N2aq TC5vq  1 3.950000e-01    2.700000e+00
  N2aq TC4vq  1 3.950000e-01    2.700000e+00
  N2aq TC3vq  1 3.950000e-01    2.700000e+00
  N2aq TC2vq  1 3.950000e-01    2.500000e+00
  N2aq TC1vq  1 3.950000e-01    2.310000e+00
  N2aq TX4vq  1 3.950000e-01    3.190000e+00
  N2aq TX3vq  1 3.950000e-01    2.940000e+00
  N2aq TX2vq  1 3.950000e-01    2.700000e+00
  N2aq TX1vq  1 3.950000e-01    2.700000e+00
  N2aq TC6eq  1 3.950000e-01    2.500000e+00
  N2aq TC5eq  1 3.950000e-01    2.310000e+00
  N2aq TC4eq  1 3.950000e-01    2.310000e+00
  N2aq TC3eq  1 3.950000e-01    2.310000e+00
  N2aq TC2eq  1 3.950000e-01    2.110000e+00
  N2aq TC1eq  1 3.950000e-01    1.850000e+00
  N2aq TX4eq  1 3.950000e-01    2.700000e+00
  N2aq TX3eq  1 3.950000e-01    2.500000e+00
  N2aq TX2eq  1 3.950000e-01    2.310000e+00
  N2aq TX1eq  1 3.950000e-01    2.310000e+00
  N1aq TN1aq  1 3.950000e-01    2.700000e+00
  N1aq  TC6q  1 3.950000e-01    2.940000e+00
  N1aq  TC5q  1 3.950000e-01    2.700000e+00
  N1aq  TC4q  1 3.950000e-01    2.700000e+00
  N1aq  TC3q  1 3.950000e-01    2.500000e+00
  N1aq  TC2q  1 3.950000e-01    2.310000e+00
  N1aq  TC1q  1 3.950000e-01    2.110000e+00
  N1aq  TX4q  1 3.950000e-01    2.700000e+00
  N1aq  TX3q  1 3.950000e-01    2.700000e+00
  N1aq  TX2q  1 3.950000e-01    2.500000e+00
  N1aq  TX1q  1 3.950000e-01    2.500000e+00
  N1aq TC6vq  1 3.950000e-01    3.190000e+00
  N1aq TC5vq  1 3.950000e-01    2.940000e+00
  N1aq TC4vq  1 3.950000e-01    2.940000e+00
  N1aq TC3vq  1 3.950000e-01    2.700000e+00
  N1aq TC2vq  1 3.950000e-01    2.500000e+00
  N1aq TC1vq  1 3.950000e-01    2.310000e+00
  N1aq TX4vq  1 3.950000e-01    2.940000e+00
  N1aq TX3vq  1 3.950000e-01    2.940000e+00
  N1aq TX2vq  1 3.950000e-01    2.700000e+00
  N1aq TX1vq  1 3.950000e-01    2.700000e+00
  N1aq TC6eq  1 3.950000e-01    2.700000e+00
  N1aq TC5eq  1 3.950000e-01    2.500000e+00
  N1aq TC4eq  1 3.950000e-01    2.500000e+00
  N1aq TC3eq  1 3.950000e-01    2.310000e+00
  N1aq TC2eq  1 3.950000e-01    2.110000e+00
  N1aq TC1eq  1 3.950000e-01    1.850000e+00
  N1aq TX4eq  1 3.950000e-01    2.500000e+00
  N1aq TX3eq  1 3.950000e-01    2.500000e+00
  N1aq TX2eq  1 3.950000e-01    2.310000e+00
  N1aq TX1eq  1 3.950000e-01    2.310000e+00
  C6vq TC6vq  1 3.950000e-01    2.700000e+00
  C6vq  TC5q  1 3.950000e-01    2.940000e+00
  C6vq  TC4q  1 3.950000e-01    2.940000e+00
  C6vq  TC3q  1 3.950000e-01    2.700000e+00
  C6vq  TC2q  1 3.950000e-01    2.500000e+00
  C6vq  TC1q  1 3.950000e-01    2.310000e+00
  C6vq  TX4q  1 3.950000e-01    2.940000e+00
  C6vq  TX3q  1 3.950000e-01    2.940000e+00
  C6vq  TX2q  1 3.950000e-01    2.940000e+00
  C6vq  TX1q  1 3.950000e-01    2.940000e+00
  C6vq TC5vq  1 3.950000e-01    2.500000e+00
  C6vq TC4vq  1 3.950000e-01    2.500000e+00
  C6vq TC3vq  1 3.950000e-01    2.310000e+00
  C6vq TC2vq  1 3.950000e-01    2.110000e+00
  C6vq TC1vq  1 3.950000e-01    1.850000e+00
  C6vq TX4vq  1 3.950000e-01    2.500000e+00
  C6vq TX3vq  1 3.950000e-01    2.500000e+00
  C6vq TX2vq  1 3.950000e-01    2.500000e+00
  C6vq TX1vq  1 3.950000e-01    2.500000e+00
  C6vq TC6eq  1 3.950000e-01    3.430000e+00
  C6vq TC5eq  1 3.950000e-01    3.190000e+00
  C6vq TC4eq  1 3.950000e-01    3.190000e+00
  C6vq TC3eq  1 3.950000e-01    2.940000e+00
  C6vq TC2eq  1 3.950000e-01    2.700000e+00
  C6vq TC1eq  1 3.950000e-01    2.500000e+00
  C6vq TX4eq  1 3.950000e-01    3.190000e+00
  C6vq TX3eq  1 3.950000e-01    3.190000e+00
  C6vq TX2eq  1 3.950000e-01    3.190000e+00
  C6vq TX1eq  1 3.950000e-01    3.190000e+00
  C5vq TC5vq  1 3.950000e-01    2.500000e+00
  C5vq  TC4q  1 3.950000e-01    2.940000e+00
  C5vq  TC3q  1 3.950000e-01    2.700000e+00
  C5vq  TC2q  1 3.950000e-01    2.500000e+00
  C5vq  TC1q  1 3.950000e-01    2.500000e+00
  C5vq  TX4q  1 3.950000e-01    2.700000e+00
  C5vq  TX3q  1 3.950000e-01    2.700000e+00
  C5vq  TX2q  1 3.950000e-01    2.700000e+00
  C5vq  TX1q  1 3.950000e-01    2.940000e+00
  C5vq TC4vq  1 3.950000e-01    2.500000e+00
  C5vq TC3vq  1 3.950000e-01    2.310000e+00
  C5vq TC2vq  1 3.950000e-01    2.110000e+00
  C5vq TC1vq  1 3.950000e-01    2.110000e+00
  C5vq TX4vq  1 3.950000e-01    2.310000e+00
  C5vq TX3vq  1 3.950000e-01    2.310000e+00
  C5vq TX2vq  1 3.950000e-01    2.310000e+00
  C5vq TX1vq  1 3.950000e-01    2.500000e+00
  C5vq TC5eq  1 3.950000e-01    3.190000e+00
  C5vq TC4eq  1 3.950000e-01    3.190000e+00
  C5vq TC3eq  1 3.950000e-01    2.940000e+00
  C5vq TC2eq  1 3.950000e-01    2.700000e+00
  C5vq TC1eq  1 3.950000e-01    2.700000e+00
  C5vq TX4eq  1 3.950000e-01    2.940000e+00
  C5vq TX3eq  1 3.950000e-01    2.940000e+00
  C5vq TX2eq  1 3.950000e-01    2.940000e+00
  C5vq TX1eq  1 3.950000e-01    3.190000e+00
  C4vq TC4vq  1 3.950000e-01    2.500000e+00
  C4vq  TC3q  1 3.950000e-01    2.940000e+00
  C4vq  TC2q  1 3.950000e-01    2.700000e+00
  C4vq  TC1q  1 3.950000e-01    2.500000e+00
  C4vq  TX4q  1 3.950000e-01    2.700000e+00
  C4vq  TX3q  1 3.950000e-01    2.700000e+00
  C4vq  TX2q  1 3.950000e-01    2.700000e+00
  C4vq  TX1q  1 3.950000e-01    2.940000e+00
  C4vq TC3vq  1 3.950000e-01    2.500000e+00
  C4vq TC2vq  1 3.950000e-01    2.310000e+00
  C4vq TC1vq  1 3.950000e-01    2.110000e+00
  C4vq TX4vq  1 3.950000e-01    2.310000e+00
  C4vq TX3vq  1 3.950000e-01    2.310000e+00
  C4vq TX2vq  1 3.950000e-01    2.310000e+00
  C4vq TX1vq  1 3.950000e-01    2.500000e+00
  C4vq TC4eq  1 3.950000e-01    3.190000e+00
  C4vq TC3eq  1 3.950000e-01    3.190000e+00
  C4vq TC2eq  1 3.950000e-01    2.940000e+00
  C4vq TC1eq  1 3.950000e-01    2.700000e+00
  C4vq TX4eq  1 3.950000e-01    2.940000e+00
  C4vq TX3eq  1 3.950000e-01    2.940000e+00
  C4vq TX2eq  1 3.950000e-01    2.940000e+00
  C4vq TX1eq  1 3.950000e-01    3.190000e+00
  C3vq TC3vq  1 3.950000e-01    2.500000e+00
  C3vq  TC2q  1 3.950000e-01    2.940000e+00
  C3vq  TC1q  1 3.950000e-01    2.940000e+00
  C3vq  TX4q  1 3.950000e-01    2.700000e+00
  C3vq  TX3q  1 3.950000e-01    2.700000e+00
  C3vq  TX2q  1 3.950000e-01    2.700000e+00
  C3vq  TX1q  1 3.950000e-01    2.940000e+00
  C3vq TC2vq  1 3.950000e-01    2.500000e+00
  C3vq TC1vq  1 3.950000e-01    2.500000e+00
  C3vq TX4vq  1 3.950000e-01    2.310000e+00
  C3vq TX3vq  1 3.950000e-01    2.310000e+00
  C3vq TX2vq  1 3.950000e-01    2.310000e+00
  C3vq TX1vq  1 3.950000e-01    2.500000e+00
  C3vq TC3eq  1 3.950000e-01    3.190000e+00
  C3vq TC2eq  1 3.950000e-01    3.190000e+00
  C3vq TC1eq  1 3.950000e-01    3.190000e+00
  C3vq TX4eq  1 3.950000e-01    2.940000e+00
  C3vq TX3eq  1 3.950000e-01    2.940000e+00
  C3vq TX2eq  1 3.950000e-01    2.940000e+00
  C3vq TX1eq  1 3.950000e-01    3.190000e+00
  C2vq TC2vq  1 3.950000e-01    2.500000e+00
  C2vq  TC1q  1 3.950000e-01    3.190000e+00
  C2vq  TX4q  1 3.950000e-01    2.310000e+00
  C2vq  TX3q  1 3.950000e-01    2.700000e+00
  C2vq  TX2q  1 3.950000e-01    2.700000e+00
  C2vq  TX1q  1 3.950000e-01    2.700000e+00
  C2vq TC1vq  1 3.950000e-01    2.700000e+00
  C2vq TX4vq  1 3.950000e-01    1.850000e+00
  C2vq TX3vq  1 3.950000e-01    2.310000e+00
  C2vq TX2vq  1 3.950000e-01    2.310000e+00
  C2vq TX1vq  1 3.950000e-01    2.310000e+00
  C2vq TC2eq  1 3.950000e-01    3.190000e+00
  C2vq TC1eq  1 3.950000e-01    3.430000e+00
  C2vq TX4eq  1 3.950000e-01    2.500000e+00
  C2vq TX3eq  1 3.950000e-01    2.940000e+00
  C2vq TX2eq  1 3.950000e-01    2.940000e+00
  C2vq TX1eq  1 3.950000e-01    2.940000e+00
  C1vq TC1vq  1 3.950000e-01    2.500000e+00
  C1vq  TX4q  1 3.950000e-01    2.310000e+00
  C1vq  TX3q  1 3.950000e-01    2.700000e+00
  C1vq  TX2q  1 3.950000e-01    2.700000e+00
  C1vq  TX1q  1 3.950000e-01    2.700000e+00
  C1vq TX4vq  1 3.950000e-01    1.850000e+00
  C1vq TX3vq  1 3.950000e-01    2.310000e+00
  C1vq TX2vq  1 3.950000e-01    2.310000e+00
  C1vq TX1vq  1 3.950000e-01    2.310000e+00
  C1vq TC1eq  1 3.950000e-01    3.190000e+00
  C1vq TX4eq  1 3.950000e-01    2.500000e+00
  C1vq TX3eq  1 3.950000e-01    2.940000e+00
  C1vq TX2eq  1 3.950000e-01    2.940000e+00
  C1vq TX1eq  1 3.950000e-01    2.940000e+00
  X4vq TX4vq  1 3.950000e-01    2.500000e+00
  X4vq  TX3q  1 3.950000e-01    2.940000e+00
  X4vq  TX2q  1 3.950000e-01    2.940000e+00
  X4vq  TX1q  1 3.950000e-01    2.940000e+00
  X4vq TX3vq  1 3.950000e-01    2.500000e+00
  X4vq TX2vq  1 3.950000e-01    2.500000e+00
  X4vq TX1vq  1 3.950000e-01    2.500000e+00
  X4vq TX4eq  1 3.950000e-01    3.190000e+00
  X4vq TX3eq  1 3.950000e-01    3.190000e+00
  X4vq TX2eq  1 3.950000e-01    3.190000e+00
  X4vq TX1eq  1 3.950000e-01    3.190000e+00
  X3vq TX3vq  1 3.950000e-01    2.500000e+00
  X3vq  TX2q  1 3.950000e-01    3.190000e+00
  X3vq  TX1q  1 3.950000e-01    3.190000e+00
  X3vq TX2vq  1 3.950000e-01    2.700000e+00
  X3vq TX1vq  1 3.950000e-01    2.700000e+00
  X3vq TX3eq  1 3.950000e-01    3.190000e+00
  X3vq TX2eq  1 3.950000e-01    3.430000e+00
  X3vq TX1eq  1 3.950000e-01    3.430000e+00
  X2vq TX2vq  1 3.950000e-01    2.700000e+00
  X2vq  TX1q  1 3.950000e-01    3.190000e+00
  X2vq TX1vq  1 3.950000e-01    2.700000e+00
  X2vq TX2eq  1 3.950000e-01    3.430000e+00
  X2vq TX1eq  1 3.950000e-01    3.430000e+00
  X1vq TX1vq  1 3.950000e-01    2.940000e+00
  X1vq TX1eq  1 3.950000e-01    3.670000e+00
  C6eq TC6eq  1 3.950000e-01    2.700000e+00
  C6eq  TC5q  1 3.950000e-01    2.940000e+00
  C6eq  TC4q  1 3.950000e-01    2.940000e+00
  C6eq  TC3q  1 3.950000e-01    2.700000e+00
  C6eq  TC2q  1 3.950000e-01    2.500000e+00
  C6eq  TC1q  1 3.950000e-01    2.310000e+00
  C6eq  TX4q  1 3.950000e-01    2.940000e+00
  C6eq  TX3q  1 3.950000e-01    2.940000e+00
  C6eq  TX2q  1 3.950000e-01    2.940000e+00
  C6eq  TX1q  1 3.950000e-01    2.940000e+00
  C6eq TC5vq  1 3.950000e-01    3.190000e+00
  C6eq TC4vq  1 3.950000e-01    3.190000e+00
  C6eq TC3vq  1 3.950000e-01    2.940000e+00
  C6eq TC2vq  1 3.950000e-01    2.700000e+00
  C6eq TC1vq  1 3.950000e-01    2.500000e+00
  C6eq TX4vq  1 3.950000e-01    3.190000e+00
  C6eq TX3vq  1 3.950000e-01    3.190000e+00
  C6eq TX2vq  1 3.950000e-01    3.190000e+00
  C6eq TX1vq  1 3.950000e-01    3.190000e+00
  C6eq TC5eq  1 3.950000e-01    2.500000e+00
  C6eq TC4eq  1 3.950000e-01    2.500000e+00
  C6eq TC3eq  1 3.950000e-01    2.310000e+00
  C6eq TC2eq  1 3.950000e-01    2.110000e+00
  C6eq TC1eq  1 3.950000e-01    1.850000e+00
  C6eq TX4eq  1 3.950000e-01    2.500000e+00
  C6eq TX3eq  1 3.950000e-01    2.500000e+00
  C6eq TX2eq  1 3.950000e-01    2.500000e+00
  C6eq TX1eq  1 3.950000e-01    2.500000e+00
  C5eq TC5eq  1 3.950000e-01    2.500000e+00
  C5eq  TC4q  1 3.950000e-01    2.940000e+00
  C5eq  TC3q  1 3.950000e-01    2.700000e+00
  C5eq  TC2q  1 3.950000e-01    2.500000e+00
  C5eq  TC1q  1 3.950000e-01    2.500000e+00
  C5eq  TX4q  1 3.950000e-01    2.700000e+00
  C5eq  TX3q  1 3.950000e-01    2.700000e+00
  C5eq  TX2q  1 3.950000e-01    2.700000e+00
  C5eq  TX1q  1 3.950000e-01    2.940000e+00
  C5eq TC4vq  1 3.950000e-01    3.190000e+00
  C5eq TC3vq  1 3.950000e-01    2.940000e+00
  C5eq TC2vq  1 3.950000e-01    2.700000e+00
  C5eq TC1vq  1 3.950000e-01    2.700000e+00
  C5eq TX4vq  1 3.950000e-01    2.940000e+00
  C5eq TX3vq  1 3.950000e-01    2.940000e+00
  C5eq TX2vq  1 3.950000e-01    2.940000e+00
  C5eq TX1vq  1 3.950000e-01    3.190000e+00
  C5eq TC4eq  1 3.950000e-01    2.500000e+00
  C5eq TC3eq  1 3.950000e-01    2.310000e+00
  C5eq TC2eq  1 3.950000e-01    2.110000e+00
  C5eq TC1eq  1 3.950000e-01    2.110000e+00
  C5eq TX4eq  1 3.950000e-01    2.310000e+00
  C5eq TX3eq  1 3.950000e-01    2.310000e+00
  C5eq TX2eq  1 3.950000e-01    2.310000e+00
  C5eq TX1eq  1 3.950000e-01    2.500000e+00
  C4eq TC4eq  1 3.950000e-01    2.500000e+00
  C4eq  TC3q  1 3.950000e-01    2.940000e+00
  C4eq  TC2q  1 3.950000e-01    2.700000e+00
  C4eq  TC1q  1 3.950000e-01    2.500000e+00
  C4eq  TX4q  1 3.950000e-01    2.700000e+00
  C4eq  TX3q  1 3.950000e-01    2.700000e+00
  C4eq  TX2q  1 3.950000e-01    2.700000e+00
  C4eq  TX1q  1 3.950000e-01    2.940000e+00
  C4eq TC3vq  1 3.950000e-01    3.190000e+00
  C4eq TC2vq  1 3.950000e-01    2.940000e+00
  C4eq TC1vq  1 3.950000e-01    2.700000e+00
  C4eq TX4vq  1 3.950000e-01    2.940000e+00
  C4eq TX3vq  1 3.950000e-01    2.940000e+00
  C4eq TX2vq  1 3.950000e-01    2.940000e+00
  C4eq TX1vq  1 3.950000e-01    3.190000e+00
  C4eq TC3eq  1 3.950000e-01    2.500000e+00
  C4eq TC2eq  1 3.950000e-01    2.310000e+00
  C4eq TC1eq  1 3.950000e-01    2.110000e+00
  C4eq TX4eq  1 3.950000e-01    2.310000e+00
  C4eq TX3eq  1 3.950000e-01    2.310000e+00
  C4eq TX2eq  1 3.950000e-01    2.310000e+00
  C4eq TX1eq  1 3.950000e-01    2.500000e+00
  C3eq TC3eq  1 3.950000e-01    2.500000e+00
  C3eq  TC2q  1 3.950000e-01    2.940000e+00
  C3eq  TC1q  1 3.950000e-01    2.940000e+00
  C3eq  TX4q  1 3.950000e-01    2.700000e+00
  C3eq  TX3q  1 3.950000e-01    2.700000e+00
  C3eq  TX2q  1 3.950000e-01    2.700000e+00
  C3eq  TX1q  1 3.950000e-01    2.940000e+00
  C3eq TC2vq  1 3.950000e-01    3.190000e+00
  C3eq TC1vq  1 3.950000e-01    3.190000e+00
  C3eq TX4vq  1 3.950000e-01    2.940000e+00
  C3eq TX3vq  1 3.950000e-01    2.940000e+00
  C3eq TX2vq  1 3.950000e-01    2.940000e+00
  C3eq TX1vq  1 3.950000e-01    3.190000e+00
  C3eq TC2eq  1 3.950000e-01    2.500000e+00
  C3eq TC1eq  1 3.950000e-01    2.500000e+00
  C3eq TX4eq  1 3.950000e-01    2.310000e+00
  C3eq TX3eq  1 3.950000e-01    2.310000e+00
  C3eq TX2eq  1 3.950000e-01    2.310000e+00
  C3eq TX1eq  1 3.950000e-01    2.500000e+00
  C2eq TC2eq  1 3.950000e-01    2.500000e+00
  C2eq  TC1q  1 3.950000e-01    3.190000e+00
  C2eq  TX4q  1 3.950000e-01    2.310000e+00
  C2eq  TX3q  1 3.950000e-01    2.700000e+00
  C2eq  TX2q  1 3.950000e-01    2.700000e+00
  C2eq  TX1q  1 3.950000e-01    2.700000e+00
  C2eq TC1vq  1 3.950000e-01    3.430000e+00
  C2eq TX4vq  1 3.950000e-01    2.500000e+00
  C2eq TX3vq  1 3.950000e-01    2.940000e+00
  C2eq TX2vq  1 3.950000e-01    2.940000e+00
  C2eq TX1vq  1 3.950000e-01    2.940000e+00
  C2eq TC1eq  1 3.950000e-01    2.700000e+00
  C2eq TX4eq  1 3.950000e-01    1.850000e+00
  C2eq TX3eq  1 3.950000e-01    2.310000e+00
  C2eq TX2eq  1 3.950000e-01    2.310000e+00
  C2eq TX1eq  1 3.950000e-01    2.310000e+00
  C1eq TC1eq  1 3.950000e-01    2.500000e+00
  C1eq  TX4q  1 3.950000e-01    2.310000e+00
  C1eq  TX3q  1 3.950000e-01    2.700000e+00
  C1eq  TX2q  1 3.950000e-01    2.700000e+00
  C1eq  TX1q  1 3.950000e-01    2.700000e+00
  C1eq TX4vq  1 3.950000e-01    2.500000e+00
  C1eq TX3vq  1 3.950000e-01    2.940000e+00
  C1eq TX2vq  1 3.950000e-01    2.940000e+00
  C1eq TX1vq  1 3.950000e-01    2.940000e+00
  C1eq TX4eq  1 3.950000e-01    1.850000e+00
  C1eq TX3eq  1 3.950000e-01    2.310000e+00
  C1eq TX2eq  1 3.950000e-01    2.310000e+00
  C1eq TX1eq  1 3.950000e-01    2.310000e+00
  X4eq TX4eq  1 3.950000e-01    2.500000e+00
  X4eq  TX3q  1 3.950000e-01    2.940000e+00
  X4eq  TX2q  1 3.950000e-01    2.940000e+00
  X4eq  TX1q  1 3.950000e-01    2.940000e+00
  X4eq TX3vq  1 3.950000e-01    3.190000e+00
  X4eq TX2vq  1 3.950000e-01    3.190000e+00
  X4eq TX1vq  1 3.950000e-01    3.190000e+00
  X4eq TX3eq  1 3.950000e-01    2.500000e+00
  X4eq TX2eq  1 3.950000e-01    2.500000e+00
  X4eq TX1eq  1 3.950000e-01    2.500000e+00
  X3eq TX3eq  1 3.950000e-01    2.500000e+00
  X3eq  TX2q  1 3.950000e-01    3.190000e+00
  X3eq  TX1q  1 3.950000e-01    3.190000e+00
  X3eq TX2vq  1 3.950000e-01    3.430000e+00
  X3eq TX1vq  1 3.950000e-01    3.430000e+00
  X3eq TX2eq  1 3.950000e-01    2.700000e+00
  X3eq TX1eq  1 3.950000e-01    2.700000e+00
  X2eq TX2eq  1 3.950000e-01    2.700000e+00
  X2eq  TX1q  1 3.950000e-01    3.190000e+00
  X2eq TX1vq  1 3.950000e-01    3.430000e+00
  X2eq TX1eq  1 3.950000e-01    2.700000e+00
  X1eq TX1eq  1 3.950000e-01    2.940000e+00
   P6h  TP6d  1 3.950000e-01    4.230000e+00
   P6h  TN1d  1 3.950000e-01    1.670000e+00
   P6h  TN2d  1 3.950000e-01    1.850000e+00
   P6h  TN3d  1 3.950000e-01    2.110000e+00
   P6h  TN4d  1 3.950000e-01    2.310000e+00
   P6h  TN5d  1 3.950000e-01    2.500000e+00
   P6h  TN6d  1 3.950000e-01    2.940000e+00
   P6h  TP1d  1 3.950000e-01    3.190000e+00
   P6h  TP2d  1 3.950000e-01    3.430000e+00
   P6h  TP3d  1 3.950000e-01    3.430000e+00
   P6h  TP4d  1 3.950000e-01    3.670000e+00
   P6h  TP5d  1 3.950000e-01    3.910000e+00
   P6h  TP6a  1 3.950000e-01    4.230000e+00
   P6h  TN1a  1 3.950000e-01    1.670000e+00
   P6h  TN2a  1 3.950000e-01    1.850000e+00
   P6h  TN3a  1 3.950000e-01    2.110000e+00
   P6h  TN4a  1 3.950000e-01    2.310000e+00
   P6h  TN5a  1 3.950000e-01    2.500000e+00
   P6h  TN6a  1 3.950000e-01    2.940000e+00
   P6h  TP1a  1 3.950000e-01    3.190000e+00
   P6h  TP2a  1 3.950000e-01    3.430000e+00
   P6h  TP3a  1 3.950000e-01    3.430000e+00
   P6h  TP4a  1 3.950000e-01    3.670000e+00
   P6h  TP5a  1 3.950000e-01    3.910000e+00
   P6h  TC6v  1 3.950000e-01    1.850000e+00
   P6h  TC5v  1 3.950000e-01    1.670000e+00
   P6h  TC4v  1 3.980000e-01    1.450000e+00
   P6h  TC3v  1 3.990000e-01    1.180000e+00
   P6h  TC2v  1 3.990000e-01    1.180000e+00
   P6h  TC1v  1 4.040000e-01    8.300000e-01
   P6h  TX4v  1 3.950000e-01    2.110000e+00
   P6h  TX3v  1 3.950000e-01    2.110000e+00
   P6h  TX2v  1 3.950000e-01    1.850000e+00
   P6h  TX1v  1 3.950000e-01    1.670000e+00
   P6h  TC6e  1 3.950000e-01    1.850000e+00
   P6h  TC5e  1 3.950000e-01    1.670000e+00
   P6h  TC4e  1 3.980000e-01    1.450000e+00
   P6h  TC3e  1 3.990000e-01    1.180000e+00
   P6h  TC2e  1 3.990000e-01    1.180000e+00
   P6h  TC1e  1 4.040000e-01    8.300000e-01
   P6h  TX4e  1 3.950000e-01    2.110000e+00
   P6h  TX3e  1 3.950000e-01    2.110000e+00
   P6h  TX2e  1 3.950000e-01    1.850000e+00
   P6h  TX1e  1 3.950000e-01    1.670000e+00
   P6h  TP6q  1 3.950000e-01    4.870000e+00
   P6h TX1eq  1 3.950000e-01    2.110000e+00
   P6h TX2eq  1 3.950000e-01    2.310000e+00
   P6h TX3eq  1 3.950000e-01    2.500000e+00
   P6h TX4eq  1 3.950000e-01    2.500000e+00
   P6h TC1eq  1 3.990000e-01    1.180000e+00
   P6h TC2eq  1 3.950000e-01    1.670000e+00
   P6h TC3eq  1 3.950000e-01    1.670000e+00
   P6h TC4eq  1 3.950000e-01    1.850000e+00
   P6h TC5eq  1 3.950000e-01    2.110000e+00
   P6h TC6eq  1 3.950000e-01    2.310000e+00
   P6h TX1vq  1 3.950000e-01    2.110000e+00
   P6h TX2vq  1 3.950000e-01    2.310000e+00
   P6h TX3vq  1 3.950000e-01    2.500000e+00
   P6h TX4vq  1 3.950000e-01    2.500000e+00
   P6h TC1vq  1 3.990000e-01    1.180000e+00
   P6h TC2vq  1 3.950000e-01    1.670000e+00
   P6h TC3vq  1 3.950000e-01    1.670000e+00
   P6h TC4vq  1 3.950000e-01    1.850000e+00
   P6h TC5vq  1 3.950000e-01    2.110000e+00
   P6h TC6vq  1 3.950000e-01    2.310000e+00
   P6h TN1aq  1 3.950000e-01    2.110000e+00
   P6h TN2aq  1 3.950000e-01    2.310000e+00
   P6h TN3aq  1 3.950000e-01    2.500000e+00
   P6h TN4aq  1 3.950000e-01    2.700000e+00
   P6h TN5aq  1 3.950000e-01    2.940000e+00
   P6h TN6aq  1 3.950000e-01    3.430000e+00
   P6h TP1aq  1 3.950000e-01    3.670000e+00
   P6h TP2aq  1 3.950000e-01    3.910000e+00
   P6h TP3aq  1 3.950000e-01    3.910000e+00
   P6h TP4aq  1 3.950000e-01    4.230000e+00
   P6h TP5aq  1 3.950000e-01    4.540000e+00
   P6h TP6aq  1 3.950000e-01    4.870000e+00
   P6h TN1dq  1 3.950000e-01    2.110000e+00
   P6h TN2dq  1 3.950000e-01    2.310000e+00
   P6h TN3dq  1 3.950000e-01    2.500000e+00
   P6h TN4dq  1 3.950000e-01    2.700000e+00
   P6h TN5dq  1 3.950000e-01    2.940000e+00
   P6h TN6dq  1 3.950000e-01    3.430000e+00
   P6h TP1dq  1 3.950000e-01    3.670000e+00
   P6h TP2dq  1 3.950000e-01    3.910000e+00
   P6h TP3dq  1 3.950000e-01    3.910000e+00
   P6h TP4dq  1 3.950000e-01    4.230000e+00
   P6h TP5dq  1 3.950000e-01    4.540000e+00
   P6h TP6dq  1 3.950000e-01    4.870000e+00
   P6h  TX1q  1 3.950000e-01    1.850000e+00
   P6h  TX2q  1 3.950000e-01    2.110000e+00
   P6h  TX3q  1 3.950000e-01    2.310000e+00
   P6h  TX4q  1 3.950000e-01    2.310000e+00
   P6h  TC1q  1 4.010000e-01    9.830000e-01
   P6h  TC2q  1 3.980000e-01    1.450000e+00
   P6h  TC3q  1 3.980000e-01    1.450000e+00
   P6h  TC4q  1 3.950000e-01    1.670000e+00
   P6h  TC5q  1 3.950000e-01    1.850000e+00
   P6h  TC6q  1 3.950000e-01    2.110000e+00
   P6h  TN1q  1 3.950000e-01    2.110000e+00
   P6h  TN2q  1 3.950000e-01    2.310000e+00
   P6h  TN3q  1 3.950000e-01    2.500000e+00
   P6h  TN4q  1 3.950000e-01    2.700000e+00
   P6h  TN5q  1 3.950000e-01    2.940000e+00
   P6h  TN6q  1 3.950000e-01    3.430000e+00
   P6h  TP1q  1 3.950000e-01    3.670000e+00
   P6h  TP2q  1 3.950000e-01    3.910000e+00
   P6h  TP3q  1 3.950000e-01    3.910000e+00
   P6h  TP4q  1 3.950000e-01    4.230000e+00
   P6h  TP5q  1 3.950000e-01    4.540000e+00
   P6d  TP5h  1 3.950000e-01    3.910000e+00
   P5h  TP5d  1 3.950000e-01    3.670000e+00
   P5h  TN1d  1 3.950000e-01    1.670000e+00
   P5h  TN2d  1 3.950000e-01    1.850000e+00
   P5h  TN3d  1 3.950000e-01    2.110000e+00
   P5h  TN4d  1 3.950000e-01    2.500000e+00
   P5h  TN5d  1 3.950000e-01    2.500000e+00
   P5h  TN6d  1 3.950000e-01    2.700000e+00
   P5h  TP1d  1 3.950000e-01    2.940000e+00
   P5h  TP2d  1 3.950000e-01    3.190000e+00
   P5h  TP3d  1 3.950000e-01    3.190000e+00
   P5h  TP4d  1 3.950000e-01    3.430000e+00
   P6a  TP5h  1 3.950000e-01    3.910000e+00
   P5h  TP5a  1 3.950000e-01    3.670000e+00
   P5h  TN1a  1 3.950000e-01    1.670000e+00
   P5h  TN2a  1 3.950000e-01    1.850000e+00
   P5h  TN3a  1 3.950000e-01    2.110000e+00
   P5h  TN4a  1 3.950000e-01    2.500000e+00
   P5h  TN5a  1 3.950000e-01    2.500000e+00
   P5h  TN6a  1 3.950000e-01    2.700000e+00
   P5h  TP1a  1 3.950000e-01    2.940000e+00
   P5h  TP2a  1 3.950000e-01    3.190000e+00
   P5h  TP3a  1 3.950000e-01    3.190000e+00
   P5h  TP4a  1 3.950000e-01    3.430000e+00
   P5h  TC6v  1 3.950000e-01    1.850000e+00
   P5h  TC5v  1 3.950000e-01    1.850000e+00
   P5h  TC4v  1 3.950000e-01    1.670000e+00
   P5h  TC3v  1 3.980000e-01    1.450000e+00
   P5h  TC2v  1 3.980000e-01    1.450000e+00
   P5h  TC1v  1 3.990000e-01    1.180000e+00
   P5h  TX4v  1 3.950000e-01    2.310000e+00
   P5h  TX3v  1 3.950000e-01    2.110000e+00
   P5h  TX2v  1 3.950000e-01    2.110000e+00
   P5h  TX1v  1 3.950000e-01    1.670000e+00
   P5h  TC6e  1 3.950000e-01    1.850000e+00
   P5h  TC5e  1 3.950000e-01    1.850000e+00
   P5h  TC4e  1 3.950000e-01    1.670000e+00
   P5h  TC3e  1 3.980000e-01    1.450000e+00
   P5h  TC2e  1 3.980000e-01    1.450000e+00
   P5h  TC1e  1 3.990000e-01    1.180000e+00
   P5h  TX4e  1 3.950000e-01    2.310000e+00
   P5h  TX3e  1 3.950000e-01    2.110000e+00
   P5h  TX2e  1 3.950000e-01    2.110000e+00
   P5h  TX1e  1 3.950000e-01    1.670000e+00
   P6q  TP5h  1 3.950000e-01    4.540000e+00
   P5h  TP5q  1 3.950000e-01    4.230000e+00
   P5h TX1eq  1 3.950000e-01    2.110000e+00
   P5h TX2eq  1 3.950000e-01    2.500000e+00
   P5h TX3eq  1 3.950000e-01    2.500000e+00
   P5h TX4eq  1 3.950000e-01    2.700000e+00
   P5h TC1eq  1 3.950000e-01    1.670000e+00
   P5h TC2eq  1 3.950000e-01    1.850000e+00
   P5h TC3eq  1 3.950000e-01    1.850000e+00
   P5h TC4eq  1 3.950000e-01    2.110000e+00
   P5h TC5eq  1 3.950000e-01    2.310000e+00
   P5h TC6eq  1 3.950000e-01    2.310000e+00
   P5h TX1vq  1 3.950000e-01    2.110000e+00
   P5h TX2vq  1 3.950000e-01    2.500000e+00
   P5h TX3vq  1 3.950000e-01    2.500000e+00
   P5h TX4vq  1 3.950000e-01    2.700000e+00
   P5h TC1vq  1 3.950000e-01    1.670000e+00
   P5h TC2vq  1 3.950000e-01    1.850000e+00
   P5h TC3vq  1 3.950000e-01    1.850000e+00
   P5h TC4vq  1 3.950000e-01    2.110000e+00
   P5h TC5vq  1 3.950000e-01    2.310000e+00
   P5h TC6vq  1 3.950000e-01    2.310000e+00
   P5h TN1aq  1 3.950000e-01    2.110000e+00
   P5h TN2aq  1 3.950000e-01    2.310000e+00
   P5h TN3aq  1 3.950000e-01    2.500000e+00
   P5h TN4aq  1 3.950000e-01    2.940000e+00
   P5h TN5aq  1 3.950000e-01    2.940000e+00
   P5h TN6aq  1 3.950000e-01    3.190000e+00
   P5h TP1aq  1 3.950000e-01    3.430000e+00
   P5h TP2aq  1 3.950000e-01    3.670000e+00
   P5h TP3aq  1 3.950000e-01    3.670000e+00
   P5h TP4aq  1 3.950000e-01    3.910000e+00
   P5h TP5aq  1 3.950000e-01    4.230000e+00
  P6aq  TP5h  1 3.950000e-01    4.540000e+00
   P5h TN1dq  1 3.950000e-01    2.110000e+00
   P5h TN2dq  1 3.950000e-01    2.310000e+00
   P5h TN3dq  1 3.950000e-01    2.500000e+00
   P5h TN4dq  1 3.950000e-01    2.940000e+00
   P5h TN5dq  1 3.950000e-01    2.940000e+00
   P5h TN6dq  1 3.950000e-01    3.190000e+00
   P5h TP1dq  1 3.950000e-01    3.430000e+00
   P5h TP2dq  1 3.950000e-01    3.670000e+00
   P5h TP3dq  1 3.950000e-01    3.670000e+00
   P5h TP4dq  1 3.950000e-01    3.910000e+00
   P5h TP5dq  1 3.950000e-01    4.230000e+00
  P6dq  TP5h  1 3.950000e-01    4.540000e+00
   P5h  TX1q  1 3.950000e-01    1.850000e+00
   P5h  TX2q  1 3.950000e-01    2.310000e+00
   P5h  TX3q  1 3.950000e-01    2.310000e+00
   P5h  TX4q  1 3.950000e-01    2.500000e+00
   P5h  TC1q  1 3.980000e-01    1.450000e+00
   P5h  TC2q  1 3.950000e-01    1.670000e+00
   P5h  TC3q  1 3.950000e-01    1.670000e+00
   P5h  TC4q  1 3.950000e-01    1.850000e+00
   P5h  TC5q  1 3.950000e-01    2.110000e+00
   P5h  TC6q  1 3.950000e-01    2.110000e+00
   P5h  TN1q  1 3.950000e-01    2.110000e+00
   P5h  TN2q  1 3.950000e-01    2.310000e+00
   P5h  TN3q  1 3.950000e-01    2.500000e+00
   P5h  TN4q  1 3.950000e-01    2.940000e+00
   P5h  TN5q  1 3.950000e-01    2.940000e+00
   P5h  TN6q  1 3.950000e-01    3.190000e+00
   P5h  TP1q  1 3.950000e-01    3.430000e+00
   P5h  TP2q  1 3.950000e-01    3.670000e+00
   P5h  TP3q  1 3.950000e-01    3.670000e+00
   P5h  TP4q  1 3.950000e-01    3.910000e+00
   P6d  TP4h  1 3.950000e-01    3.670000e+00
   P5d  TP4h  1 3.950000e-01    3.430000e+00
   P4h  TP4d  1 3.950000e-01    3.430000e+00
   P4h  TN1d  1 3.950000e-01    1.850000e+00
   P4h  TN2d  1 3.950000e-01    2.110000e+00
   P4h  TN3d  1 3.950000e-01    2.310000e+00
   P4h  TN4d  1 3.950000e-01    2.500000e+00
   P4h  TN5d  1 3.950000e-01    2.500000e+00
   P4h  TN6d  1 3.950000e-01    2.700000e+00
   P4h  TP1d  1 3.950000e-01    2.940000e+00
   P4h  TP2d  1 3.950000e-01    3.190000e+00
   P4h  TP3d  1 3.950000e-01    3.190000e+00
   P6a  TP4h  1 3.950000e-01    3.670000e+00
   P5a  TP4h  1 3.950000e-01    3.430000e+00
   P4h  TP4a  1 3.950000e-01    3.430000e+00
   P4h  TN1a  1 3.950000e-01    1.850000e+00
   P4h  TN2a  1 3.950000e-01    2.110000e+00
   P4h  TN3a  1 3.950000e-01    2.310000e+00
   P4h  TN4a  1 3.950000e-01    2.500000e+00
   P4h  TN5a  1 3.950000e-01    2.500000e+00
   P4h  TN6a  1 3.950000e-01    2.700000e+00
   P4h  TP1a  1 3.950000e-01    2.940000e+00
   P4h  TP2a  1 3.950000e-01    3.190000e+00
   P4h  TP3a  1 3.950000e-01    3.190000e+00
   P4h  TC6v  1 3.950000e-01    2.110000e+00
   P4h  TC5v  1 3.950000e-01    1.850000e+00
   P4h  TC4v  1 3.950000e-01    1.670000e+00
   P4h  TC3v  1 3.980000e-01    1.450000e+00
   P4h  TC2v  1 3.980000e-01    1.450000e+00
   P4h  TC1v  1 3.990000e-01    1.180000e+00
   P4h  TX4v  1 3.950000e-01    2.310000e+00
   P4h  TX3v  1 3.950000e-01    2.110000e+00
   P4h  TX2v  1 3.950000e-01    2.110000e+00
   P4h  TX1v  1 3.950000e-01    1.850000e+00
   P4h  TC6e  1 3.950000e-01    2.110000e+00
   P4h  TC5e  1 3.950000e-01    1.850000e+00
   P4h  TC4e  1 3.950000e-01    1.670000e+00
   P4h  TC3e  1 3.980000e-01    1.450000e+00
   P4h  TC2e  1 3.980000e-01    1.450000e+00
   P4h  TC1e  1 3.990000e-01    1.180000e+00
   P4h  TX4e  1 3.950000e-01    2.310000e+00
   P4h  TX3e  1 3.950000e-01    2.110000e+00
   P4h  TX2e  1 3.950000e-01    2.110000e+00
   P4h  TX1e  1 3.950000e-01    1.850000e+00
   P6q  TP4h  1 3.950000e-01    4.230000e+00
   P5q  TP4h  1 3.950000e-01    3.910000e+00
   P4h  TP4q  1 3.950000e-01    3.910000e+00
   P4h TX1eq  1 3.950000e-01    2.310000e+00
   P4h TX2eq  1 3.950000e-01    2.500000e+00
   P4h TX3eq  1 3.950000e-01    2.500000e+00
   P4h TX4eq  1 3.950000e-01    2.700000e+00
   P4h TC1eq  1 3.950000e-01    1.670000e+00
   P4h TC2eq  1 3.950000e-01    1.850000e+00
   P4h TC3eq  1 3.950000e-01    1.850000e+00
   P4h TC4eq  1 3.950000e-01    2.110000e+00
   P4h TC5eq  1 3.950000e-01    2.310000e+00
   P4h TC6eq  1 3.950000e-01    2.500000e+00
   P4h TX1vq  1 3.950000e-01    2.310000e+00
   P4h TX2vq  1 3.950000e-01    2.500000e+00
   P4h TX3vq  1 3.950000e-01    2.500000e+00
   P4h TX4vq  1 3.950000e-01    2.700000e+00
   P4h TC1vq  1 3.950000e-01    1.670000e+00
   P4h TC2vq  1 3.950000e-01    1.850000e+00
   P4h TC3vq  1 3.950000e-01    1.850000e+00
   P4h TC4vq  1 3.950000e-01    2.110000e+00
   P4h TC5vq  1 3.950000e-01    2.310000e+00
   P4h TC6vq  1 3.950000e-01    2.500000e+00
   P4h TN1aq  1 3.950000e-01    2.310000e+00
   P4h TN2aq  1 3.950000e-01    2.500000e+00
   P4h TN3aq  1 3.950000e-01    2.700000e+00
   P4h TN4aq  1 3.950000e-01    2.940000e+00
   P4h TN5aq  1 3.950000e-01    2.940000e+00
   P4h TN6aq  1 3.950000e-01    3.190000e+00
   P4h TP1aq  1 3.950000e-01    3.430000e+00
   P4h TP2aq  1 3.950000e-01    3.670000e+00
   P4h TP3aq  1 3.950000e-01    3.670000e+00
   P4h TP4aq  1 3.950000e-01    3.910000e+00
  P5aq  TP4h  1 3.950000e-01    3.910000e+00
  P6aq  TP4h  1 3.950000e-01    4.230000e+00
   P4h TN1dq  1 3.950000e-01    2.310000e+00
   P4h TN2dq  1 3.950000e-01    2.500000e+00
   P4h TN3dq  1 3.950000e-01    2.700000e+00
   P4h TN4dq  1 3.950000e-01    2.940000e+00
   P4h TN5dq  1 3.950000e-01    2.940000e+00
   P4h TN6dq  1 3.950000e-01    3.190000e+00
   P4h TP1dq  1 3.950000e-01    3.430000e+00
   P4h TP2dq  1 3.950000e-01    3.670000e+00
   P4h TP3dq  1 3.950000e-01    3.670000e+00
   P4h TP4dq  1 3.950000e-01    3.910000e+00
  P5dq  TP4h  1 3.950000e-01    3.910000e+00
  P6dq  TP4h  1 3.950000e-01    4.230000e+00
   P4h  TX1q  1 3.950000e-01    2.110000e+00
   P4h  TX2q  1 3.950000e-01    2.310000e+00
   P4h  TX3q  1 3.950000e-01    2.310000e+00
   P4h  TX4q  1 3.950000e-01    2.500000e+00
   P4h  TC1q  1 3.980000e-01    1.450000e+00
   P4h  TC2q  1 3.950000e-01    1.670000e+00
   P4h  TC3q  1 3.950000e-01    1.670000e+00
   P4h  TC4q  1 3.950000e-01    1.850000e+00
   P4h  TC5q  1 3.950000e-01    2.110000e+00
   P4h  TC6q  1 3.950000e-01    2.310000e+00
   P4h  TN1q  1 3.950000e-01    2.310000e+00
   P4h  TN2q  1 3.950000e-01    2.500000e+00
   P4h  TN3q  1 3.950000e-01    2.700000e+00
   P4h  TN4q  1 3.950000e-01    2.940000e+00
   P4h  TN5q  1 3.950000e-01    2.940000e+00
   P4h  TN6q  1 3.950000e-01    3.190000e+00
   P4h  TP1q  1 3.950000e-01    3.430000e+00
   P4h  TP2q  1 3.950000e-01    3.670000e+00
   P4h  TP3q  1 3.950000e-01    3.670000e+00
   P6d  TP3h  1 3.950000e-01    3.430000e+00
   P5d  TP3h  1 3.950000e-01    3.190000e+00
   P4d  TP3h  1 3.950000e-01    3.190000e+00
   P3h  TP3d  1 3.950000e-01    3.190000e+00
   P3h  TN1d  1 3.950000e-01    2.110000e+00
   P3h  TN2d  1 3.950000e-01    2.310000e+00
   P3h  TN3d  1 3.950000e-01    2.310000e+00
   P3h  TN4d  1 3.950000e-01    2.500000e+00
   P3h  TN5d  1 3.950000e-01    2.500000e+00
   P3h  TN6d  1 3.950000e-01    2.700000e+00
   P3h  TP1d  1 3.950000e-01    2.940000e+00
   P3h  TP2d  1 3.950000e-01    3.190000e+00
   P6a  TP3h  1 3.950000e-01    3.430000e+00
   P5a  TP3h  1 3.950000e-01    3.190000e+00
   P4a  TP3h  1 3.950000e-01    3.190000e+00
   P3h  TP3a  1 3.950000e-01    3.190000e+00
   P3h  TN1a  1 3.950000e-01    2.110000e+00
   P3h  TN2a  1 3.950000e-01    2.310000e+00
   P3h  TN3a  1 3.950000e-01    2.310000e+00
   P3h  TN4a  1 3.950000e-01    2.500000e+00
   P3h  TN5a  1 3.950000e-01    2.500000e+00
   P3h  TN6a  1 3.950000e-01    2.700000e+00
   P3h  TP1a  1 3.950000e-01    2.940000e+00
   P3h  TP2a  1 3.950000e-01    3.190000e+00
   P3h  TC6v  1 3.950000e-01    2.310000e+00
   P3h  TC5v  1 3.950000e-01    2.110000e+00
   P3h  TC4v  1 3.950000e-01    1.850000e+00
   P3h  TC3v  1 3.980000e-01    1.450000e+00
   P3h  TC2v  1 3.980000e-01    1.450000e+00
   P3h  TC1v  1 3.990000e-01    1.180000e+00
   P3h  TX4v  1 3.950000e-01    2.310000e+00
   P3h  TX3v  1 3.950000e-01    2.310000e+00
   P3h  TX2v  1 3.950000e-01    2.110000e+00
   P3h  TX1v  1 3.950000e-01    1.850000e+00
   P3h  TC6e  1 3.950000e-01    2.310000e+00
   P3h  TC5e  1 3.950000e-01    2.110000e+00
   P3h  TC4e  1 3.950000e-01    1.850000e+00
   P3h  TC3e  1 3.980000e-01    1.450000e+00
   P3h  TC2e  1 3.980000e-01    1.450000e+00
   P3h  TC1e  1 3.990000e-01    1.180000e+00
   P3h  TX4e  1 3.950000e-01    2.310000e+00
   P3h  TX3e  1 3.950000e-01    2.310000e+00
   P3h  TX2e  1 3.950000e-01    2.110000e+00
   P3h  TX1e  1 3.950000e-01    1.850000e+00
   P6q  TP3h  1 3.950000e-01    3.910000e+00
   P5q  TP3h  1 3.950000e-01    3.670000e+00
   P4q  TP3h  1 3.950000e-01    3.670000e+00
   P3h  TP3q  1 3.950000e-01    3.670000e+00
   P3h TX1eq  1 3.950000e-01    2.310000e+00
   P3h TX2eq  1 3.950000e-01    2.500000e+00
   P3h TX3eq  1 3.950000e-01    2.700000e+00
   P3h TX4eq  1 3.950000e-01    2.700000e+00
   P3h TC1eq  1 3.950000e-01    1.670000e+00
   P3h TC2eq  1 3.950000e-01    1.850000e+00
   P3h TC3eq  1 3.950000e-01    1.850000e+00
   P3h TC4eq  1 3.950000e-01    2.310000e+00
   P3h TC5eq  1 3.950000e-01    2.500000e+00
   P3h TC6eq  1 3.950000e-01    2.700000e+00
   P3h TX1vq  1 3.950000e-01    2.310000e+00
   P3h TX2vq  1 3.950000e-01    2.500000e+00
   P3h TX3vq  1 3.950000e-01    2.700000e+00
   P3h TX4vq  1 3.950000e-01    2.700000e+00
   P3h TC1vq  1 3.950000e-01    1.670000e+00
   P3h TC2vq  1 3.950000e-01    1.850000e+00
   P3h TC3vq  1 3.950000e-01    1.850000e+00
   P3h TC4vq  1 3.950000e-01    2.310000e+00
   P3h TC5vq  1 3.950000e-01    2.500000e+00
   P3h TC6vq  1 3.950000e-01    2.700000e+00
   P3h TN1aq  1 3.950000e-01    2.500000e+00
   P3h TN2aq  1 3.950000e-01    2.700000e+00
   P3h TN3aq  1 3.950000e-01    2.700000e+00
   P3h TN4aq  1 3.950000e-01    2.940000e+00
   P3h TN5aq  1 3.950000e-01    2.940000e+00
   P3h TN6aq  1 3.950000e-01    3.190000e+00
   P3h TP1aq  1 3.950000e-01    3.430000e+00
   P3h TP2aq  1 3.950000e-01    3.670000e+00
   P3h TP3aq  1 3.950000e-01    3.670000e+00
  P4aq  TP3h  1 3.950000e-01    3.670000e+00
  P5aq  TP3h  1 3.950000e-01    3.670000e+00
  P6aq  TP3h  1 3.950000e-01    3.910000e+00
   P3h TN1dq  1 3.950000e-01    2.500000e+00
   P3h TN2dq  1 3.950000e-01    2.700000e+00
   P3h TN3dq  1 3.950000e-01    2.700000e+00
   P3h TN4dq  1 3.950000e-01    2.940000e+00
   P3h TN5dq  1 3.950000e-01    2.940000e+00
   P3h TN6dq  1 3.950000e-01    3.190000e+00
   P3h TP1dq  1 3.950000e-01    3.430000e+00
   P3h TP2dq  1 3.950000e-01    3.670000e+00
   P3h TP3dq  1 3.950000e-01    3.670000e+00
  P4dq  TP3h  1 3.950000e-01    3.670000e+00
  P5dq  TP3h  1 3.950000e-01    3.670000e+00
  P6dq  TP3h  1 3.950000e-01    3.910000e+00
   P3h  TX1q  1 3.950000e-01    2.110000e+00
   P3h  TX2q  1 3.950000e-01    2.310000e+00
   P3h  TX3q  1 3.950000e-01    2.500000e+00
   P3h  TX4q  1 3.950000e-01    2.500000e+00
   P3h  TC1q  1 3.980000e-01    1.450000e+00
   P3h  TC2q  1 3.950000e-01    1.670000e+00
   P3h  TC3q  1 3.950000e-01    1.670000e+00
   P3h  TC4q  1 3.950000e-01    2.110000e+00
   P3h  TC5q  1 3.950000e-01    2.310000e+00
   P3h  TC6q  1 3.950000e-01    2.500000e+00
   P3h  TN1q  1 3.950000e-01    2.500000e+00
   P3h  TN2q  1 3.950000e-01    2.700000e+00
   P3h  TN3q  1 3.950000e-01    2.700000e+00
   P3h  TN4q  1 3.950000e-01    2.940000e+00
   P3h  TN5q  1 3.950000e-01    2.940000e+00
   P3h  TN6q  1 3.950000e-01    3.190000e+00
   P3h  TP1q  1 3.950000e-01    3.430000e+00
   P3h  TP2q  1 3.950000e-01    3.670000e+00
   P6d  TP2h  1 3.950000e-01    3.430000e+00
   P5d  TP2h  1 3.950000e-01    3.190000e+00
   P4d  TP2h  1 3.950000e-01    3.190000e+00
   P3d  TP2h  1 3.950000e-01    3.190000e+00
   P2h  TP2d  1 3.950000e-01    3.190000e+00
   P2h  TN1d  1 3.950000e-01    2.310000e+00
   P2h  TN2d  1 3.950000e-01    2.310000e+00
   P2h  TN3d  1 3.950000e-01    2.310000e+00
   P2h  TN4d  1 3.950000e-01    2.500000e+00
   P2h  TN5d  1 3.950000e-01    2.700000e+00
   P2h  TN6d  1 3.950000e-01    2.940000e+00
   P2h  TP1d  1 3.950000e-01    2.940000e+00
   P6a  TP2h  1 3.950000e-01    3.430000e+00
   P5a  TP2h  1 3.950000e-01    3.190000e+00
   P4a  TP2h  1 3.950000e-01    3.190000e+00
   P3a  TP2h  1 3.950000e-01    3.190000e+00
   P2h  TP2a  1 3.950000e-01    3.190000e+00
   P2h  TN1a  1 3.950000e-01    2.310000e+00
   P2h  TN2a  1 3.950000e-01    2.310000e+00
   P2h  TN3a  1 3.950000e-01    2.310000e+00
   P2h  TN4a  1 3.950000e-01    2.500000e+00
   P2h  TN5a  1 3.950000e-01    2.700000e+00
   P2h  TN6a  1 3.950000e-01    2.940000e+00
   P2h  TP1a  1 3.950000e-01    2.940000e+00
   P2h  TC6v  1 3.950000e-01    2.310000e+00
   P2h  TC5v  1 3.950000e-01    2.110000e+00
   P2h  TC4v  1 3.950000e-01    1.850000e+00
   P2h  TC3v  1 3.950000e-01    1.670000e+00
   P2h  TC2v  1 3.950000e-01    1.670000e+00
   P2h  TC1v  1 3.980000e-01    1.450000e+00
   P2h  TX4v  1 3.950000e-01    2.310000e+00
   P2h  TX3v  1 3.950000e-01    2.310000e+00
   P2h  TX2v  1 3.950000e-01    2.110000e+00
   P2h  TX1v  1 3.950000e-01    1.850000e+00
   P2h  TC6e  1 3.950000e-01    2.310000e+00
   P2h  TC5e  1 3.950000e-01    2.110000e+00
   P2h  TC4e  1 3.950000e-01    1.850000e+00
   P2h  TC3e  1 3.950000e-01    1.670000e+00
   P2h  TC2e  1 3.950000e-01    1.670000e+00
   P2h  TC1e  1 3.980000e-01    1.450000e+00
   P2h  TX4e  1 3.950000e-01    2.310000e+00
   P2h  TX3e  1 3.950000e-01    2.310000e+00
   P2h  TX2e  1 3.950000e-01    2.110000e+00
   P2h  TX1e  1 3.950000e-01    1.850000e+00
   P6q  TP2h  1 3.950000e-01    3.910000e+00
   P5q  TP2h  1 3.950000e-01    3.670000e+00
   P4q  TP2h  1 3.950000e-01    3.670000e+00
   P3q  TP2h  1 3.950000e-01    3.670000e+00
   P2h  TP2q  1 3.950000e-01    3.670000e+00
   P2h TX1eq  1 3.950000e-01    2.310000e+00
   P2h TX2eq  1 3.950000e-01    2.500000e+00
   P2h TX3eq  1 3.950000e-01    2.700000e+00
   P2h TX4eq  1 3.950000e-01    2.700000e+00
   P2h TC1eq  1 3.950000e-01    1.850000e+00
   P2h TC2eq  1 3.950000e-01    2.110000e+00
   P2h TC3eq  1 3.950000e-01    2.110000e+00
   P2h TC4eq  1 3.950000e-01    2.310000e+00
   P2h TC5eq  1 3.950000e-01    2.500000e+00
   P2h TC6eq  1 3.950000e-01    2.700000e+00
   P2h TX1vq  1 3.950000e-01    2.310000e+00
   P2h TX2vq  1 3.950000e-01    2.500000e+00
   P2h TX3vq  1 3.950000e-01    2.700000e+00
   P2h TX4vq  1 3.950000e-01    2.700000e+00
   P2h TC1vq  1 3.950000e-01    1.850000e+00
   P2h TC2vq  1 3.950000e-01    2.110000e+00
   P2h TC3vq  1 3.950000e-01    2.110000e+00
   P2h TC4vq  1 3.950000e-01    2.310000e+00
   P2h TC5vq  1 3.950000e-01    2.500000e+00
   P2h TC6vq  1 3.950000e-01    2.700000e+00
   P2h TN1aq  1 3.950000e-01    2.700000e+00
   P2h TN2aq  1 3.950000e-01    2.700000e+00
   P2h TN3aq  1 3.950000e-01    2.700000e+00
   P2h TN4aq  1 3.950000e-01    2.940000e+00
   P2h TN5aq  1 3.950000e-01    3.190000e+00
   P2h TN6aq  1 3.950000e-01    3.430000e+00
   P2h TP1aq  1 3.950000e-01    3.430000e+00
   P2h TP2aq  1 3.950000e-01    3.670000e+00
  P3aq  TP2h  1 3.950000e-01    3.670000e+00
  P4aq  TP2h  1 3.950000e-01    3.670000e+00
  P5aq  TP2h  1 3.950000e-01    3.670000e+00
  P6aq  TP2h  1 3.950000e-01    3.910000e+00
   P2h TN1dq  1 3.950000e-01    2.700000e+00
   P2h TN2dq  1 3.950000e-01    2.700000e+00
   P2h TN3dq  1 3.950000e-01    2.700000e+00
   P2h TN4dq  1 3.950000e-01    2.940000e+00
   P2h TN5dq  1 3.950000e-01    3.190000e+00
   P2h TN6dq  1 3.950000e-01    3.430000e+00
   P2h TP1dq  1 3.950000e-01    3.430000e+00
   P2h TP2dq  1 3.950000e-01    3.670000e+00
  P3dq  TP2h  1 3.950000e-01    3.670000e+00
  P4dq  TP2h  1 3.950000e-01    3.670000e+00
  P5dq  TP2h  1 3.950000e-01    3.670000e+00
  P6dq  TP2h  1 3.950000e-01    3.910000e+00
   P2h  TX1q  1 3.950000e-01    2.110000e+00
   P2h  TX2q  1 3.950000e-01    2.310000e+00
   P2h  TX3q  1 3.950000e-01    2.500000e+00
   P2h  TX4q  1 3.950000e-01    2.500000e+00
   P2h  TC1q  1 3.950000e-01    1.670000e+00
   P2h  TC2q  1 3.950000e-01    1.850000e+00
   P2h  TC3q  1 3.950000e-01    1.850000e+00
   P2h  TC4q  1 3.950000e-01    2.110000e+00
   P2h  TC5q  1 3.950000e-01    2.310000e+00
   P2h  TC6q  1 3.950000e-01    2.500000e+00
   P2h  TN1q  1 3.950000e-01    2.700000e+00
   P2h  TN2q  1 3.950000e-01    2.700000e+00
   P2h  TN3q  1 3.950000e-01    2.700000e+00
   P2h  TN4q  1 3.950000e-01    2.940000e+00
   P2h  TN5q  1 3.950000e-01    3.190000e+00
   P2h  TN6q  1 3.950000e-01    3.430000e+00
   P2h  TP1q  1 3.950000e-01    3.430000e+00
   P6d  TP1h  1 3.950000e-01    3.190000e+00
   P5d  TP1h  1 3.950000e-01    2.940000e+00
   P4d  TP1h  1 3.950000e-01    2.940000e+00
   P3d  TP1h  1 3.950000e-01    2.940000e+00
   P2d  TP1h  1 3.950000e-01    2.940000e+00
   P1h  TP1d  1 3.950000e-01    2.940000e+00
   P1h  TN1d  1 3.950000e-01    2.310000e+00
   P1h  TN2d  1 3.950000e-01    2.310000e+00
   P1h  TN3d  1 3.950000e-01    2.310000e+00
   P1h  TN4d  1 3.950000e-01    2.700000e+00
   P1h  TN5d  1 3.950000e-01    2.700000e+00
   P1h  TN6d  1 3.950000e-01    2.940000e+00
   P6a  TP1h  1 3.950000e-01    3.190000e+00
   P5a  TP1h  1 3.950000e-01    2.940000e+00
   P4a  TP1h  1 3.950000e-01    2.940000e+00
   P3a  TP1h  1 3.950000e-01    2.940000e+00
   P2a  TP1h  1 3.950000e-01    2.940000e+00
   P1h  TP1a  1 3.950000e-01    2.940000e+00
   P1h  TN1a  1 3.950000e-01    2.310000e+00
   P1h  TN2a  1 3.950000e-01    2.310000e+00
   P1h  TN3a  1 3.950000e-01    2.310000e+00
   P1h  TN4a  1 3.950000e-01    2.700000e+00
   P1h  TN5a  1 3.950000e-01    2.700000e+00
   P1h  TN6a  1 3.950000e-01    2.940000e+00
   P1h  TC6v  1 3.950000e-01    2.310000e+00
   P1h  TC5v  1 3.950000e-01    2.110000e+00
   P1h  TC4v  1 3.950000e-01    1.850000e+00
   P1h  TC3v  1 3.950000e-01    1.670000e+00
   P1h  TC2v  1 3.950000e-01    1.670000e+00
   P1h  TC1v  1 3.980000e-01    1.450000e+00
   P1h  TX4v  1 3.950000e-01    2.310000e+00
   P1h  TX3v  1 3.950000e-01    2.310000e+00
   P1h  TX2v  1 3.950000e-01    2.110000e+00
   P1h  TX1v  1 3.950000e-01    1.850000e+00
   P1h  TC6e  1 3.950000e-01    2.310000e+00
   P1h  TC5e  1 3.950000e-01    2.110000e+00
   P1h  TC4e  1 3.950000e-01    1.850000e+00
   P1h  TC3e  1 3.950000e-01    1.670000e+00
   P1h  TC2e  1 3.950000e-01    1.670000e+00
   P1h  TC1e  1 3.980000e-01    1.450000e+00
   P1h  TX4e  1 3.950000e-01    2.310000e+00
   P1h  TX3e  1 3.950000e-01    2.310000e+00
   P1h  TX2e  1 3.950000e-01    2.110000e+00
   P1h  TX1e  1 3.950000e-01    1.850000e+00
   P6q  TP1h  1 3.950000e-01    3.670000e+00
   P5q  TP1h  1 3.950000e-01    3.430000e+00
   P4q  TP1h  1 3.950000e-01    3.430000e+00
   P3q  TP1h  1 3.950000e-01    3.430000e+00
   P2q  TP1h  1 3.950000e-01    3.430000e+00
   P1h  TP1q  1 3.950000e-01    3.430000e+00
   P1h TX1eq  1 3.950000e-01    2.310000e+00
   P1h TX2eq  1 3.950000e-01    2.500000e+00
   P1h TX3eq  1 3.950000e-01    2.700000e+00
   P1h TX4eq  1 3.950000e-01    2.700000e+00
   P1h TC1eq  1 3.950000e-01    1.850000e+00
   P1h TC2eq  1 3.950000e-01    2.110000e+00
   P1h TC3eq  1 3.950000e-01    2.110000e+00
   P1h TC4eq  1 3.950000e-01    2.310000e+00
   P1h TC5eq  1 3.950000e-01    2.500000e+00
   P1h TC6eq  1 3.950000e-01    2.700000e+00
   P1h TX1vq  1 3.950000e-01    2.310000e+00
   P1h TX2vq  1 3.950000e-01    2.500000e+00
   P1h TX3vq  1 3.950000e-01    2.700000e+00
   P1h TX4vq  1 3.950000e-01    2.700000e+00
   P1h TC1vq  1 3.950000e-01    1.850000e+00
   P1h TC2vq  1 3.950000e-01    2.110000e+00
   P1h TC3vq  1 3.950000e-01    2.110000e+00
   P1h TC4vq  1 3.950000e-01    2.310000e+00
   P1h TC5vq  1 3.950000e-01    2.500000e+00
   P1h TC6vq  1 3.950000e-01    2.700000e+00
   P1h TN1aq  1 3.950000e-01    2.700000e+00
   P1h TN2aq  1 3.950000e-01    2.700000e+00
   P1h TN3aq  1 3.950000e-01    2.700000e+00
   P1h TN4aq  1 3.950000e-01    3.190000e+00
   P1h TN5aq  1 3.950000e-01    3.190000e+00
   P1h TN6aq  1 3.950000e-01    3.430000e+00
   P1h TP1aq  1 3.950000e-01    3.430000e+00
  P2aq  TP1h  1 3.950000e-01    3.430000e+00
  P3aq  TP1h  1 3.950000e-01    3.430000e+00
  P4aq  TP1h  1 3.950000e-01    3.430000e+00
  P5aq  TP1h  1 3.950000e-01    3.430000e+00
  P6aq  TP1h  1 3.950000e-01    3.670000e+00
   P1h TN1dq  1 3.950000e-01    2.700000e+00
   P1h TN2dq  1 3.950000e-01    2.700000e+00
   P1h TN3dq  1 3.950000e-01    2.700000e+00
   P1h TN4dq  1 3.950000e-01    3.190000e+00
   P1h TN5dq  1 3.950000e-01    3.190000e+00
   P1h TN6dq  1 3.950000e-01    3.430000e+00
   P1h TP1dq  1 3.950000e-01    3.430000e+00
  P2dq  TP1h  1 3.950000e-01    3.430000e+00
  P3dq  TP1h  1 3.950000e-01    3.430000e+00
  P4dq  TP1h  1 3.950000e-01    3.430000e+00
  P5dq  TP1h  1 3.950000e-01    3.430000e+00
  P6dq  TP1h  1 3.950000e-01    3.670000e+00
   P1h  TX1q  1 3.950000e-01    2.110000e+00
   P1h  TX2q  1 3.950000e-01    2.310000e+00
   P1h  TX3q  1 3.950000e-01    2.500000e+00
   P1h  TX4q  1 3.950000e-01    2.500000e+00
   P1h  TC1q  1 3.950000e-01    1.670000e+00
   P1h  TC2q  1 3.950000e-01    1.850000e+00
   P1h  TC3q  1 3.950000e-01    1.850000e+00
   P1h  TC4q  1 3.950000e-01    2.110000e+00
   P1h  TC5q  1 3.950000e-01    2.310000e+00
   P1h  TC6q  1 3.950000e-01    2.500000e+00
   P1h  TN1q  1 3.950000e-01    2.700000e+00
   P1h  TN2q  1 3.950000e-01    2.700000e+00
   P1h  TN3q  1 3.950000e-01    2.700000e+00
   P1h  TN4q  1 3.950000e-01    3.190000e+00
   P1h  TN5q  1 3.950000e-01    3.190000e+00
   P1h  TN6q  1 3.950000e-01    3.430000e+00
   P6d  TN6h  1 3.950000e-01    2.940000e+00
   P5d  TN6h  1 3.950000e-01    2.700000e+00
   P4d  TN6h  1 3.950000e-01    2.700000e+00
   P3d  TN6h  1 3.950000e-01    2.700000e+00
   P2d  TN6h  1 3.950000e-01    2.940000e+00
   P1d  TN6h  1 3.950000e-01    2.940000e+00
   N6h  TN6d  1 3.950000e-01    2.940000e+00
   N6h  TN1d  1 3.950000e-01    2.310000e+00
   N6h  TN2d  1 3.950000e-01    2.310000e+00
   N6h  TN3d  1 3.950000e-01    2.500000e+00
   N6h  TN4d  1 3.950000e-01    2.940000e+00
   N6h  TN5d  1 3.950000e-01    2.940000e+00
   P6a  TN6h  1 3.950000e-01    2.940000e+00
   P5a  TN6h  1 3.950000e-01    2.700000e+00
   P4a  TN6h  1 3.950000e-01    2.700000e+00
   P3a  TN6h  1 3.950000e-01    2.700000e+00
   P2a  TN6h  1 3.950000e-01    2.940000e+00
   P1a  TN6h  1 3.950000e-01    2.940000e+00
   N6h  TN6a  1 3.950000e-01    2.940000e+00
   N6h  TN1a  1 3.950000e-01    2.310000e+00
   N6h  TN2a  1 3.950000e-01    2.310000e+00
   N6h  TN3a  1 3.950000e-01    2.500000e+00
   N6h  TN4a  1 3.950000e-01    2.940000e+00
   N6h  TN5a  1 3.950000e-01    2.940000e+00
   N6h  TC6v  1 3.950000e-01    2.500000e+00
   N6h  TC5v  1 3.950000e-01    2.310000e+00
   N6h  TC4v  1 3.950000e-01    2.110000e+00
   N6h  TC3v  1 3.950000e-01    1.850000e+00
   N6h  TC2v  1 3.950000e-01    1.850000e+00
   N6h  TC1v  1 3.950000e-01    1.670000e+00
   N6h  TX4v  1 3.950000e-01    2.500000e+00
   N6h  TX3v  1 3.950000e-01    2.310000e+00
   N6h  TX2v  1 3.950000e-01    2.110000e+00
   N6h  TX1v  1 3.950000e-01    1.850000e+00
   N6h  TC6e  1 3.950000e-01    2.500000e+00
   N6h  TC5e  1 3.950000e-01    2.310000e+00
   N6h  TC4e  1 3.950000e-01    2.110000e+00
   N6h  TC3e  1 3.950000e-01    1.850000e+00
   N6h  TC2e  1 3.950000e-01    1.850000e+00
   N6h  TC1e  1 3.950000e-01    1.670000e+00
   N6h  TX4e  1 3.950000e-01    2.500000e+00
   N6h  TX3e  1 3.950000e-01    2.310000e+00
   N6h  TX2e  1 3.950000e-01    2.110000e+00
   N6h  TX1e  1 3.950000e-01    1.850000e+00
   P6q  TN6h  1 3.950000e-01    3.430000e+00
   P5q  TN6h  1 3.950000e-01    3.190000e+00
   P4q  TN6h  1 3.950000e-01    3.190000e+00
   P3q  TN6h  1 3.950000e-01    3.190000e+00
   P2q  TN6h  1 3.950000e-01    3.430000e+00
   P1q  TN6h  1 3.950000e-01    3.430000e+00
   N6h  TN6q  1 3.950000e-01    3.430000e+00
   N6h TX1eq  1 3.950000e-01    2.310000e+00
   N6h TX2eq  1 3.950000e-01    2.500000e+00
   N6h TX3eq  1 3.950000e-01    2.700000e+00
   N6h TX4eq  1 3.950000e-01    2.940000e+00
   N6h TC1eq  1 3.950000e-01    2.110000e+00
   N6h TC2eq  1 3.950000e-01    2.310000e+00
   N6h TC3eq  1 3.950000e-01    2.310000e+00
   N6h TC4eq  1 3.950000e-01    2.500000e+00
   N6h TC5eq  1 3.950000e-01    2.700000e+00
   N6h TC6eq  1 3.950000e-01    2.940000e+00
   N6h TX1vq  1 3.950000e-01    2.310000e+00
   N6h TX2vq  1 3.950000e-01    2.500000e+00
   N6h TX3vq  1 3.950000e-01    2.700000e+00
   N6h TX4vq  1 3.950000e-01    2.940000e+00
   N6h TC1vq  1 3.950000e-01    2.110000e+00
   N6h TC2vq  1 3.950000e-01    2.310000e+00
   N6h TC3vq  1 3.950000e-01    2.310000e+00
   N6h TC4vq  1 3.950000e-01    2.500000e+00
   N6h TC5vq  1 3.950000e-01    2.700000e+00
   N6h TC6vq  1 3.950000e-01    2.940000e+00
   N6h TN1aq  1 3.950000e-01    2.700000e+00
   N6h TN2aq  1 3.950000e-01    2.700000e+00
   N6h TN3aq  1 3.950000e-01    2.940000e+00
   N6h TN4aq  1 3.950000e-01    3.430000e+00
   N6h TN5aq  1 3.950000e-01    3.430000e+00
   N6h TN6aq  1 3.950000e-01    3.430000e+00
  P1aq  TN6h  1 3.950000e-01    3.430000e+00
  P2aq  TN6h  1 3.950000e-01    3.430000e+00
  P3aq  TN6h  1 3.950000e-01    3.190000e+00
  P4aq  TN6h  1 3.950000e-01    3.190000e+00
  P5aq  TN6h  1 3.950000e-01    3.190000e+00
  P6aq  TN6h  1 3.950000e-01    3.430000e+00
   N6h TN1dq  1 3.950000e-01    2.700000e+00
   N6h TN2dq  1 3.950000e-01    2.700000e+00
   N6h TN3dq  1 3.950000e-01    2.940000e+00
   N6h TN4dq  1 3.950000e-01    3.430000e+00
   N6h TN5dq  1 3.950000e-01    3.430000e+00
   N6h TN6dq  1 3.950000e-01    3.430000e+00
  P1dq  TN6h  1 3.950000e-01    3.430000e+00
  P2dq  TN6h  1 3.950000e-01    3.430000e+00
  P3dq  TN6h  1 3.950000e-01    3.190000e+00
  P4dq  TN6h  1 3.950000e-01    3.190000e+00
  P5dq  TN6h  1 3.950000e-01    3.190000e+00
  P6dq  TN6h  1 3.950000e-01    3.430000e+00
   N6h  TX1q  1 3.950000e-01    2.110000e+00
   N6h  TX2q  1 3.950000e-01    2.310000e+00
   N6h  TX3q  1 3.950000e-01    2.500000e+00
   N6h  TX4q  1 3.950000e-01    2.700000e+00
   N6h  TC1q  1 3.950000e-01    1.850000e+00
   N6h  TC2q  1 3.950000e-01    2.110000e+00
   N6h  TC3q  1 3.950000e-01    2.110000e+00
   N6h  TC4q  1 3.950000e-01    2.310000e+00
   N6h  TC5q  1 3.950000e-01    2.500000e+00
   N6h  TC6q  1 3.950000e-01    2.700000e+00
   N6h  TN1q  1 3.950000e-01    2.700000e+00
   N6h  TN2q  1 3.950000e-01    2.700000e+00
   N6h  TN3q  1 3.950000e-01    2.940000e+00
   N6h  TN4q  1 3.950000e-01    3.430000e+00
   N6h  TN5q  1 3.950000e-01    3.430000e+00
   P6d  TN5h  1 3.950000e-01    2.500000e+00
   P5d  TN5h  1 3.950000e-01    2.500000e+00
   P4d  TN5h  1 3.950000e-01    2.500000e+00
   P3d  TN5h  1 3.950000e-01    2.500000e+00
   P2d  TN5h  1 3.950000e-01    2.700000e+00
   P1d  TN5h  1 3.950000e-01    2.700000e+00
   N6d  TN5h  1 3.950000e-01    2.940000e+00
   N5h  TN5d  1 3.950000e-01    2.700000e+00
   N5h  TN1d  1 3.950000e-01    2.310000e+00
   N5h  TN2d  1 3.950000e-01    2.500000e+00
   N5h  TN3d  1 3.950000e-01    2.500000e+00
   N5h  TN4d  1 3.950000e-01    2.700000e+00
   P6a  TN5h  1 3.950000e-01    2.500000e+00
   P5a  TN5h  1 3.950000e-01    2.500000e+00
   P4a  TN5h  1 3.950000e-01    2.500000e+00
   P3a  TN5h  1 3.950000e-01    2.500000e+00
   P2a  TN5h  1 3.950000e-01    2.700000e+00
   P1a  TN5h  1 3.950000e-01    2.700000e+00
   N6a  TN5h  1 3.950000e-01    2.940000e+00
   N5h  TN5a  1 3.950000e-01    2.700000e+00
   N5h  TN1a  1 3.950000e-01    2.310000e+00
   N5h  TN2a  1 3.950000e-01    2.500000e+00
   N5h  TN3a  1 3.950000e-01    2.500000e+00
   N5h  TN4a  1 3.950000e-01    2.700000e+00
   N5h  TC6v  1 3.950000e-01    2.500000e+00
   N5h  TC5v  1 3.950000e-01    2.310000e+00
   N5h  TC4v  1 3.950000e-01    2.110000e+00
   N5h  TC3v  1 3.950000e-01    2.110000e+00
   N5h  TC2v  1 3.950000e-01    1.850000e+00
   N5h  TC1v  1 3.950000e-01    1.670000e+00
   N5h  TX4v  1 3.950000e-01    2.700000e+00
   N5h  TX3v  1 3.950000e-01    2.500000e+00
   N5h  TX2v  1 3.950000e-01    2.310000e+00
   N5h  TX1v  1 3.950000e-01    2.110000e+00
   N5h  TC6e  1 3.950000e-01    2.500000e+00
   N5h  TC5e  1 3.950000e-01    2.310000e+00
   N5h  TC4e  1 3.950000e-01    2.110000e+00
   N5h  TC3e  1 3.950000e-01    2.110000e+00
   N5h  TC2e  1 3.950000e-01    1.850000e+00
   N5h  TC1e  1 3.950000e-01    1.670000e+00
   N5h  TX4e  1 3.950000e-01    2.700000e+00
   N5h  TX3e  1 3.950000e-01    2.500000e+00
   N5h  TX2e  1 3.950000e-01    2.310000e+00
   N5h  TX1e  1 3.950000e-01    2.110000e+00
   P6q  TN5h  1 3.950000e-01    2.940000e+00
   P5q  TN5h  1 3.950000e-01    2.940000e+00
   P4q  TN5h  1 3.950000e-01    2.940000e+00
   P3q  TN5h  1 3.950000e-01    2.940000e+00
   P2q  TN5h  1 3.950000e-01    3.190000e+00
   P1q  TN5h  1 3.950000e-01    3.190000e+00
   N6q  TN5h  1 3.950000e-01    3.430000e+00
   N5h  TN5q  1 3.950000e-01    3.190000e+00
   N5h TX1eq  1 3.950000e-01    2.500000e+00
   N5h TX2eq  1 3.950000e-01    2.700000e+00
   N5h TX3eq  1 3.950000e-01    2.940000e+00
   N5h TX4eq  1 3.950000e-01    3.190000e+00
   N5h TC1eq  1 3.950000e-01    2.110000e+00
   N5h TC2eq  1 3.950000e-01    2.310000e+00
   N5h TC3eq  1 3.950000e-01    2.500000e+00
   N5h TC4eq  1 3.950000e-01    2.500000e+00
   N5h TC5eq  1 3.950000e-01    2.700000e+00
   N5h TC6eq  1 3.950000e-01    2.940000e+00
   N5h TX1vq  1 3.950000e-01    2.500000e+00
   N5h TX2vq  1 3.950000e-01    2.700000e+00
   N5h TX3vq  1 3.950000e-01    2.940000e+00
   N5h TX4vq  1 3.950000e-01    3.190000e+00
   N5h TC1vq  1 3.950000e-01    2.110000e+00
   N5h TC2vq  1 3.950000e-01    2.310000e+00
   N5h TC3vq  1 3.950000e-01    2.500000e+00
   N5h TC4vq  1 3.950000e-01    2.500000e+00
   N5h TC5vq  1 3.950000e-01    2.700000e+00
   N5h TC6vq  1 3.950000e-01    2.940000e+00
   N5h TN1aq  1 3.950000e-01    2.700000e+00
   N5h TN2aq  1 3.950000e-01    2.940000e+00
   N5h TN3aq  1 3.950000e-01    2.940000e+00
   N5h TN4aq  1 3.950000e-01    3.190000e+00
   N5h TN5aq  1 3.950000e-01    3.190000e+00
  N6aq  TN5h  1 3.950000e-01    3.430000e+00
  P1aq  TN5h  1 3.950000e-01    3.190000e+00
  P2aq  TN5h  1 3.950000e-01    3.190000e+00
  P3aq  TN5h  1 3.950000e-01    2.940000e+00
  P4aq  TN5h  1 3.950000e-01    2.940000e+00
  P5aq  TN5h  1 3.950000e-01    2.940000e+00
  P6aq  TN5h  1 3.950000e-01    2.940000e+00
   N5h TN1dq  1 3.950000e-01    2.700000e+00
   N5h TN2dq  1 3.950000e-01    2.940000e+00
   N5h TN3dq  1 3.950000e-01    2.940000e+00
   N5h TN4dq  1 3.950000e-01    3.190000e+00
   N5h TN5dq  1 3.950000e-01    3.190000e+00
  N6dq  TN5h  1 3.950000e-01    3.430000e+00
  P1dq  TN5h  1 3.950000e-01    3.190000e+00
  P2dq  TN5h  1 3.950000e-01    3.190000e+00
  P3dq  TN5h  1 3.950000e-01    2.940000e+00
  P4dq  TN5h  1 3.950000e-01    2.940000e+00
  P5dq  TN5h  1 3.950000e-01    2.940000e+00
  P6dq  TN5h  1 3.950000e-01    2.940000e+00
   N5h  TX1q  1 3.950000e-01    2.310000e+00
   N5h  TX2q  1 3.950000e-01    2.500000e+00
   N5h  TX3q  1 3.950000e-01    2.700000e+00
   N5h  TX4q  1 3.950000e-01    2.940000e+00
   N5h  TC1q  1 3.950000e-01    1.850000e+00
   N5h  TC2q  1 3.950000e-01    2.110000e+00
   N5h  TC3q  1 3.950000e-01    2.310000e+00
   N5h  TC4q  1 3.950000e-01    2.310000e+00
   N5h  TC5q  1 3.950000e-01    2.500000e+00
   N5h  TC6q  1 3.950000e-01    2.700000e+00
   N5h  TN1q  1 3.950000e-01    2.700000e+00
   N5h  TN2q  1 3.950000e-01    2.940000e+00
   N5h  TN3q  1 3.950000e-01    2.940000e+00
   N5h  TN4q  1 3.950000e-01    3.190000e+00
   P6d  TN4h  1 3.950000e-01    2.310000e+00
   P5d  TN4h  1 3.950000e-01    2.500000e+00
   P4d  TN4h  1 3.950000e-01    2.500000e+00
   P3d  TN4h  1 3.950000e-01    2.500000e+00
   P2d  TN4h  1 3.950000e-01    2.500000e+00
   P1d  TN4h  1 3.950000e-01    2.700000e+00
   N6d  TN4h  1 3.950000e-01    2.940000e+00
   N5d  TN4h  1 3.950000e-01    2.700000e+00
   N4h  TN4d  1 3.950000e-01    2.700000e+00
   N4h  TN1d  1 3.950000e-01    2.310000e+00
   N4h  TN2d  1 3.950000e-01    2.500000e+00
   N4h  TN3d  1 3.950000e-01    2.500000e+00
   P6a  TN4h  1 3.950000e-01    2.310000e+00
   P5a  TN4h  1 3.950000e-01    2.500000e+00
   P4a  TN4h  1 3.950000e-01    2.500000e+00
   P3a  TN4h  1 3.950000e-01    2.500000e+00
   P2a  TN4h  1 3.950000e-01    2.500000e+00
   P1a  TN4h  1 3.950000e-01    2.700000e+00
   N6a  TN4h  1 3.950000e-01    2.940000e+00
   N5a  TN4h  1 3.950000e-01    2.700000e+00
   N4h  TN4a  1 3.950000e-01    2.700000e+00
   N4h  TN1a  1 3.950000e-01    2.310000e+00
   N4h  TN2a  1 3.950000e-01    2.500000e+00
   N4h  TN3a  1 3.950000e-01    2.500000e+00
   N4h  TC6v  1 3.950000e-01    2.500000e+00
   N4h  TC5v  1 3.950000e-01    2.310000e+00
   N4h  TC4v  1 3.950000e-01    2.310000e+00
   N4h  TC3v  1 3.950000e-01    2.110000e+00
   N4h  TC2v  1 3.950000e-01    1.850000e+00
   N4h  TC1v  1 3.950000e-01    1.670000e+00
   N4h  TX4v  1 3.950000e-01    2.940000e+00
   N4h  TX3v  1 3.950000e-01    2.700000e+00
   N4h  TX2v  1 3.950000e-01    2.310000e+00
   N4h  TX1v  1 3.950000e-01    2.110000e+00
   N4h  TC6e  1 3.950000e-01    2.500000e+00
   N4h  TC5e  1 3.950000e-01    2.310000e+00
   N4h  TC4e  1 3.950000e-01    2.310000e+00
   N4h  TC3e  1 3.950000e-01    2.110000e+00
   N4h  TC2e  1 3.950000e-01    1.850000e+00
   N4h  TC1e  1 3.950000e-01    1.670000e+00
   N4h  TX4e  1 3.950000e-01    2.940000e+00
   N4h  TX3e  1 3.950000e-01    2.700000e+00
   N4h  TX2e  1 3.950000e-01    2.310000e+00
   N4h  TX1e  1 3.950000e-01    2.110000e+00
   P6q  TN4h  1 3.950000e-01    2.700000e+00
   P5q  TN4h  1 3.950000e-01    2.940000e+00
   P4q  TN4h  1 3.950000e-01    2.940000e+00
   P3q  TN4h  1 3.950000e-01    2.940000e+00
   P2q  TN4h  1 3.950000e-01    2.940000e+00
   P1q  TN4h  1 3.950000e-01    3.190000e+00
   N6q  TN4h  1 3.950000e-01    3.430000e+00
   N5q  TN4h  1 3.950000e-01    3.190000e+00
   N4h  TN4q  1 3.950000e-01    3.190000e+00
   N4h TX1eq  1 3.950000e-01    2.500000e+00
   N4h TX2eq  1 3.950000e-01    2.700000e+00
   N4h TX3eq  1 3.950000e-01    3.190000e+00
   N4h TX4eq  1 3.950000e-01    3.430000e+00
   N4h TC1eq  1 3.950000e-01    2.110000e+00
   N4h TC2eq  1 3.950000e-01    2.310000e+00
   N4h TC3eq  1 3.950000e-01    2.500000e+00
   N4h TC4eq  1 3.950000e-01    2.700000e+00
   N4h TC5eq  1 3.950000e-01    2.700000e+00
   N4h TC6eq  1 3.950000e-01    2.940000e+00
   N4h TX1vq  1 3.950000e-01    2.500000e+00
   N4h TX2vq  1 3.950000e-01    2.700000e+00
   N4h TX3vq  1 3.950000e-01    3.190000e+00
   N4h TX4vq  1 3.950000e-01    3.430000e+00
   N4h TC1vq  1 3.950000e-01    2.110000e+00
   N4h TC2vq  1 3.950000e-01    2.310000e+00
   N4h TC3vq  1 3.950000e-01    2.500000e+00
   N4h TC4vq  1 3.950000e-01    2.700000e+00
   N4h TC5vq  1 3.950000e-01    2.700000e+00
   N4h TC6vq  1 3.950000e-01    2.940000e+00
   N4h TN1aq  1 3.950000e-01    2.700000e+00
   N4h TN2aq  1 3.950000e-01    2.940000e+00
   N4h TN3aq  1 3.950000e-01    2.940000e+00
   N4h TN4aq  1 3.950000e-01    3.190000e+00
  N5aq  TN4h  1 3.950000e-01    3.190000e+00
  N6aq  TN4h  1 3.950000e-01    3.430000e+00
  P1aq  TN4h  1 3.950000e-01    3.190000e+00
  P2aq  TN4h  1 3.950000e-01    2.940000e+00
  P3aq  TN4h  1 3.950000e-01    2.940000e+00
  P4aq  TN4h  1 3.950000e-01    2.940000e+00
  P5aq  TN4h  1 3.950000e-01    2.940000e+00
  P6aq  TN4h  1 3.950000e-01    2.700000e+00
   N4h TN1dq  1 3.950000e-01    2.700000e+00
   N4h TN2dq  1 3.950000e-01    2.940000e+00
   N4h TN3dq  1 3.950000e-01    2.940000e+00
   N4h TN4dq  1 3.950000e-01    3.190000e+00
  N5dq  TN4h  1 3.950000e-01    3.190000e+00
  N6dq  TN4h  1 3.950000e-01    3.430000e+00
  P1dq  TN4h  1 3.950000e-01    3.190000e+00
  P2dq  TN4h  1 3.950000e-01    2.940000e+00
  P3dq  TN4h  1 3.950000e-01    2.940000e+00
  P4dq  TN4h  1 3.950000e-01    2.940000e+00
  P5dq  TN4h  1 3.950000e-01    2.940000e+00
  P6dq  TN4h  1 3.950000e-01    2.700000e+00
   N4h  TX1q  1 3.950000e-01    2.310000e+00
   N4h  TX2q  1 3.950000e-01    2.500000e+00
   N4h  TX3q  1 3.950000e-01    2.940000e+00
   N4h  TX4q  1 3.950000e-01    3.190000e+00
   N4h  TC1q  1 3.950000e-01    1.850000e+00
   N4h  TC2q  1 3.950000e-01    2.110000e+00
   N4h  TC3q  1 3.950000e-01    2.310000e+00
   N4h  TC4q  1 3.950000e-01    2.500000e+00
   N4h  TC5q  1 3.950000e-01    2.500000e+00
   N4h  TC6q  1 3.950000e-01    2.700000e+00
   N4h  TN1q  1 3.950000e-01    2.700000e+00
   N4h  TN2q  1 3.950000e-01    2.940000e+00
   N4h  TN3q  1 3.950000e-01    2.940000e+00
   P6d  TN3h  1 3.950000e-01    2.110000e+00
   P5d  TN3h  1 3.950000e-01    2.110000e+00
   P4d  TN3h  1 3.950000e-01    2.310000e+00
   P3d  TN3h  1 3.950000e-01    2.310000e+00
   P2d  TN3h  1 3.950000e-01    2.310000e+00
   P1d  TN3h  1 3.950000e-01    2.310000e+00
   N6d  TN3h  1 3.950000e-01    2.500000e+00
   N5d  TN3h  1 3.950000e-01    2.500000e+00
   N4d  TN3h  1 3.950000e-01    2.500000e+00
   N3h  TN3d  1 3.950000e-01    2.500000e+00
   N3h  TN1d  1 3.950000e-01    2.310000e+00
   N3h  TN2d  1 3.950000e-01    2.500000e+00
   P6a  TN3h  1 3.950000e-01    2.110000e+00
   P5a  TN3h  1 3.950000e-01    2.110000e+00
   P4a  TN3h  1 3.950000e-01    2.310000e+00
   P3a  TN3h  1 3.950000e-01    2.310000e+00
   P2a  TN3h  1 3.950000e-01    2.310000e+00
   P1a  TN3h  1 3.950000e-01    2.310000e+00
   N6a  TN3h  1 3.950000e-01    2.500000e+00
   N5a  TN3h  1 3.950000e-01    2.500000e+00
   N4a  TN3h  1 3.950000e-01    2.500000e+00
   N3h  TN3a  1 3.950000e-01    2.500000e+00
   N3h  TN1a  1 3.950000e-01    2.310000e+00
   N3h  TN2a  1 3.950000e-01    2.500000e+00
   N3h  TC6v  1 3.950000e-01    2.500000e+00
   N3h  TC5v  1 3.950000e-01    2.310000e+00
   N3h  TC4v  1 3.950000e-01    2.310000e+00
   N3h  TC3v  1 3.950000e-01    2.110000e+00
   N3h  TC2v  1 3.950000e-01    2.110000e+00
   N3h  TC1v  1 3.950000e-01    1.850000e+00
   N3h  TX4v  1 3.950000e-01    2.700000e+00
   N3h  TX3v  1 3.950000e-01    2.500000e+00
   N3h  TX2v  1 3.950000e-01    2.310000e+00
   N3h  TX1v  1 3.950000e-01    2.310000e+00
   N3h  TC6e  1 3.950000e-01    2.500000e+00
   N3h  TC5e  1 3.950000e-01    2.310000e+00
   N3h  TC4e  1 3.950000e-01    2.310000e+00
   N3h  TC3e  1 3.950000e-01    2.110000e+00
   N3h  TC2e  1 3.950000e-01    2.110000e+00
   N3h  TC1e  1 3.950000e-01    1.850000e+00
   N3h  TX4e  1 3.950000e-01    2.700000e+00
   N3h  TX3e  1 3.950000e-01    2.500000e+00
   N3h  TX2e  1 3.950000e-01    2.310000e+00
   N3h  TX1e  1 3.950000e-01    2.310000e+00
   P6q  TN3h  1 3.950000e-01    2.500000e+00
   P5q  TN3h  1 3.950000e-01    2.500000e+00
   P4q  TN3h  1 3.950000e-01    2.700000e+00
   P3q  TN3h  1 3.950000e-01    2.700000e+00
   P2q  TN3h  1 3.950000e-01    2.700000e+00
   P1q  TN3h  1 3.950000e-01    2.700000e+00
   N6q  TN3h  1 3.950000e-01    2.940000e+00
   N5q  TN3h  1 3.950000e-01    2.940000e+00
   N4q  TN3h  1 3.950000e-01    2.940000e+00
   N3h  TN3q  1 3.950000e-01    2.940000e+00
   N3h TX1eq  1 3.950000e-01    2.700000e+00
   N3h TX2eq  1 3.950000e-01    2.700000e+00
   N3h TX3eq  1 3.950000e-01    2.940000e+00
   N3h TX4eq  1 3.950000e-01    3.190000e+00
   N3h TC1eq  1 3.950000e-01    2.310000e+00
   N3h TC2eq  1 3.950000e-01    2.500000e+00
   N3h TC3eq  1 3.950000e-01    2.500000e+00
   N3h TC4eq  1 3.950000e-01    2.700000e+00
   N3h TC5eq  1 3.950000e-01    2.700000e+00
   N3h TC6eq  1 3.950000e-01    2.940000e+00
   N3h TX1vq  1 3.950000e-01    2.700000e+00
   N3h TX2vq  1 3.950000e-01    2.700000e+00
   N3h TX3vq  1 3.950000e-01    2.940000e+00
   N3h TX4vq  1 3.950000e-01    3.190000e+00
   N3h TC1vq  1 3.950000e-01    2.310000e+00
   N3h TC2vq  1 3.950000e-01    2.500000e+00
   N3h TC3vq  1 3.950000e-01    2.500000e+00
   N3h TC4vq  1 3.950000e-01    2.700000e+00
   N3h TC5vq  1 3.950000e-01    2.700000e+00
   N3h TC6vq  1 3.950000e-01    2.940000e+00
   N3h TN1aq  1 3.950000e-01    2.700000e+00
   N3h TN2aq  1 3.950000e-01    2.940000e+00
   N3h TN3aq  1 3.950000e-01    2.940000e+00
  N4aq  TN3h  1 3.950000e-01    2.940000e+00
  N5aq  TN3h  1 3.950000e-01    2.940000e+00
  N6aq  TN3h  1 3.950000e-01    2.940000e+00
  P1aq  TN3h  1 3.950000e-01    2.700000e+00
  P2aq  TN3h  1 3.950000e-01    2.700000e+00
  P3aq  TN3h  1 3.950000e-01    2.700000e+00
  P4aq  TN3h  1 3.950000e-01    2.700000e+00
  P5aq  TN3h  1 3.950000e-01    2.500000e+00
  P6aq  TN3h  1 3.950000e-01    2.500000e+00
   N3h TN1dq  1 3.950000e-01    2.700000e+00
   N3h TN2dq  1 3.950000e-01    2.940000e+00
   N3h TN3dq  1 3.950000e-01    2.940000e+00
  N4dq  TN3h  1 3.950000e-01    2.940000e+00
  N5dq  TN3h  1 3.950000e-01    2.940000e+00
  N6dq  TN3h  1 3.950000e-01    2.940000e+00
  P1dq  TN3h  1 3.950000e-01    2.700000e+00
  P2dq  TN3h  1 3.950000e-01    2.700000e+00
  P3dq  TN3h  1 3.950000e-01    2.700000e+00
  P4dq  TN3h  1 3.950000e-01    2.700000e+00
  P5dq  TN3h  1 3.950000e-01    2.500000e+00
  P6dq  TN3h  1 3.950000e-01    2.500000e+00
   N3h  TX1q  1 3.950000e-01    2.500000e+00
   N3h  TX2q  1 3.950000e-01    2.500000e+00
   N3h  TX3q  1 3.950000e-01    2.700000e+00
   N3h  TX4q  1 3.950000e-01    2.940000e+00
   N3h  TC1q  1 3.950000e-01    2.110000e+00
   N3h  TC2q  1 3.950000e-01    2.310000e+00
   N3h  TC3q  1 3.950000e-01    2.310000e+00
   N3h  TC4q  1 3.950000e-01    2.500000e+00
   N3h  TC5q  1 3.950000e-01    2.500000e+00
   N3h  TC6q  1 3.950000e-01    2.700000e+00
   N3h  TN1q  1 3.950000e-01    2.700000e+00
   N3h  TN2q  1 3.950000e-01    2.940000e+00
   P6d  TN2h  1 3.950000e-01    1.850000e+00
   P5d  TN2h  1 3.950000e-01    1.850000e+00
   P4d  TN2h  1 3.950000e-01    2.110000e+00
   P3d  TN2h  1 3.950000e-01    2.310000e+00
   P2d  TN2h  1 3.950000e-01    2.310000e+00
   P1d  TN2h  1 3.950000e-01    2.310000e+00
   N6d  TN2h  1 3.950000e-01    2.310000e+00
   N5d  TN2h  1 3.950000e-01    2.500000e+00
   N4d  TN2h  1 3.950000e-01    2.500000e+00
   N3d  TN2h  1 3.950000e-01    2.500000e+00
   N2h  TN2d  1 3.950000e-01    2.500000e+00
   N2h  TN1d  1 3.950000e-01    2.310000e+00
   P6a  TN2h  1 3.950000e-01    1.850000e+00
   P5a  TN2h  1 3.950000e-01    1.850000e+00
   P4a  TN2h  1 3.950000e-01    2.110000e+00
   P3a  TN2h  1 3.950000e-01    2.310000e+00
   P2a  TN2h  1 3.950000e-01    2.310000e+00
   P1a  TN2h  1 3.950000e-01    2.310000e+00
   N6a  TN2h  1 3.950000e-01    2.310000e+00
   N5a  TN2h  1 3.950000e-01    2.500000e+00
   N4a  TN2h  1 3.950000e-01    2.500000e+00
   N3a  TN2h  1 3.950000e-01    2.500000e+00
   N2h  TN2a  1 3.950000e-01    2.500000e+00
   N2h  TN1a  1 3.950000e-01    2.310000e+00
   N2h  TC6v  1 3.950000e-01    2.500000e+00
   N2h  TC5v  1 3.950000e-01    2.310000e+00
   N2h  TC4v  1 3.950000e-01    2.310000e+00
   N2h  TC3v  1 3.950000e-01    2.310000e+00
   N2h  TC2v  1 3.950000e-01    2.110000e+00
   N2h  TC1v  1 3.950000e-01    1.850000e+00
   N2h  TX4v  1 3.950000e-01    2.700000e+00
   N2h  TX3v  1 3.950000e-01    2.500000e+00
   N2h  TX2v  1 3.950000e-01    2.310000e+00
   N2h  TX1v  1 3.950000e-01    2.310000e+00
   N2h  TC6e  1 3.950000e-01    2.500000e+00
   N2h  TC5e  1 3.950000e-01    2.310000e+00
   N2h  TC4e  1 3.950000e-01    2.310000e+00
   N2h  TC3e  1 3.950000e-01    2.310000e+00
   N2h  TC2e  1 3.950000e-01    2.110000e+00
   N2h  TC1e  1 3.950000e-01    1.850000e+00
   N2h  TX4e  1 3.950000e-01    2.700000e+00
   N2h  TX3e  1 3.950000e-01    2.500000e+00
   N2h  TX2e  1 3.950000e-01    2.310000e+00
   N2h  TX1e  1 3.950000e-01    2.310000e+00
   P6q  TN2h  1 3.950000e-01    2.310000e+00
   P5q  TN2h  1 3.950000e-01    2.310000e+00
   P4q  TN2h  1 3.950000e-01    2.500000e+00
   P3q  TN2h  1 3.950000e-01    2.700000e+00
   P2q  TN2h  1 3.950000e-01    2.700000e+00
   P1q  TN2h  1 3.950000e-01    2.700000e+00
   N6q  TN2h  1 3.950000e-01    2.700000e+00
   N5q  TN2h  1 3.950000e-01    2.940000e+00
   N4q  TN2h  1 3.950000e-01    2.940000e+00
   N3q  TN2h  1 3.950000e-01    2.940000e+00
   N2h  TN2q  1 3.950000e-01    2.940000e+00
   N2h TX1eq  1 3.950000e-01    2.700000e+00
   N2h TX2eq  1 3.950000e-01    2.700000e+00
   N2h TX3eq  1 3.950000e-01    2.940000e+00
   N2h TX4eq  1 3.950000e-01    3.190000e+00
   N2h TC1eq  1 3.950000e-01    2.310000e+00
   N2h TC2eq  1 3.950000e-01    2.500000e+00
   N2h TC3eq  1 3.950000e-01    2.700000e+00
   N2h TC4eq  1 3.950000e-01    2.700000e+00
   N2h TC5eq  1 3.950000e-01    2.700000e+00
   N2h TC6eq  1 3.950000e-01    2.940000e+00
   N2h TX1vq  1 3.950000e-01    2.700000e+00
   N2h TX2vq  1 3.950000e-01    2.700000e+00
   N2h TX3vq  1 3.950000e-01    2.940000e+00
   N2h TX4vq  1 3.950000e-01    3.190000e+00
   N2h TC1vq  1 3.950000e-01    2.310000e+00
   N2h TC2vq  1 3.950000e-01    2.500000e+00
   N2h TC3vq  1 3.950000e-01    2.700000e+00
   N2h TC4vq  1 3.950000e-01    2.700000e+00
   N2h TC5vq  1 3.950000e-01    2.700000e+00
   N2h TC6vq  1 3.950000e-01    2.940000e+00
   N2h TN1aq  1 3.950000e-01    2.700000e+00
   N2h TN2aq  1 3.950000e-01    2.940000e+00
  N3aq  TN2h  1 3.950000e-01    2.940000e+00
  N4aq  TN2h  1 3.950000e-01    2.940000e+00
  N5aq  TN2h  1 3.950000e-01    2.940000e+00
  N6aq  TN2h  1 3.950000e-01    2.700000e+00
  P1aq  TN2h  1 3.950000e-01    2.700000e+00
  P2aq  TN2h  1 3.950000e-01    2.700000e+00
  P3aq  TN2h  1 3.950000e-01    2.700000e+00
  P4aq  TN2h  1 3.950000e-01    2.500000e+00
  P5aq  TN2h  1 3.950000e-01    2.310000e+00
  P6aq  TN2h  1 3.950000e-01    2.310000e+00
   N2h TN1dq  1 3.950000e-01    2.700000e+00
   N2h TN2dq  1 3.950000e-01    2.940000e+00
  N3dq  TN2h  1 3.950000e-01    2.940000e+00
  N4dq  TN2h  1 3.950000e-01    2.940000e+00
  N5dq  TN2h  1 3.950000e-01    2.940000e+00
  N6dq  TN2h  1 3.950000e-01    2.700000e+00
  P1dq  TN2h  1 3.950000e-01    2.700000e+00
  P2dq  TN2h  1 3.950000e-01    2.700000e+00
  P3dq  TN2h  1 3.950000e-01    2.700000e+00
  P4dq  TN2h  1 3.950000e-01    2.500000e+00
  P5dq  TN2h  1 3.950000e-01    2.310000e+00
  P6dq  TN2h  1 3.950000e-01    2.310000e+00
   N2h  TX1q  1 3.950000e-01    2.500000e+00
   N2h  TX2q  1 3.950000e-01    2.500000e+00
   N2h  TX3q  1 3.950000e-01    2.700000e+00
   N2h  TX4q  1 3.950000e-01    2.940000e+00
   N2h  TC1q  1 3.950000e-01    2.110000e+00
   N2h  TC2q  1 3.950000e-01    2.310000e+00
   N2h  TC3q  1 3.950000e-01    2.500000e+00
   N2h  TC4q  1 3.950000e-01    2.500000e+00
   N2h  TC5q  1 3.950000e-01    2.500000e+00
   N2h  TC6q  1 3.950000e-01    2.700000e+00
   N2h  TN1q  1 3.950000e-01    2.700000e+00
   P6d  TN1h  1 3.950000e-01    1.670000e+00
   P5d  TN1h  1 3.950000e-01    1.670000e+00
   P4d  TN1h  1 3.950000e-01    1.850000e+00
   P3d  TN1h  1 3.950000e-01    2.110000e+00
   P2d  TN1h  1 3.950000e-01    2.310000e+00
   P1d  TN1h  1 3.950000e-01    2.310000e+00
   N6d  TN1h  1 3.950000e-01    2.310000e+00
   N5d  TN1h  1 3.950000e-01    2.310000e+00
   N4d  TN1h  1 3.950000e-01    2.310000e+00
   N3d  TN1h  1 3.950000e-01    2.310000e+00
   N2d  TN1h  1 3.950000e-01    2.310000e+00
   N1h  TN1d  1 3.950000e-01    2.500000e+00
   P6a  TN1h  1 3.950000e-01    1.670000e+00
   P5a  TN1h  1 3.950000e-01    1.670000e+00
   P4a  TN1h  1 3.950000e-01    1.850000e+00
   P3a  TN1h  1 3.950000e-01    2.110000e+00
   P2a  TN1h  1 3.950000e-01    2.310000e+00
   P1a  TN1h  1 3.950000e-01    2.310000e+00
   N6a  TN1h  1 3.950000e-01    2.310000e+00
   N5a  TN1h  1 3.950000e-01    2.310000e+00
   N4a  TN1h  1 3.950000e-01    2.310000e+00
   N3a  TN1h  1 3.950000e-01    2.310000e+00
   N2a  TN1h  1 3.950000e-01    2.310000e+00
   N1h  TN1a  1 3.950000e-01    2.500000e+00
   N1h  TC6v  1 3.950000e-01    2.700000e+00
   N1h  TC5v  1 3.950000e-01    2.500000e+00
   N1h  TC4v  1 3.950000e-01    2.500000e+00
   N1h  TC3v  1 3.950000e-01    2.310000e+00
   N1h  TC2v  1 3.950000e-01    2.110000e+00
   N1h  TC1v  1 3.950000e-01    1.850000e+00
   N1h  TX4v  1 3.950000e-01    2.500000e+00
   N1h  TX3v  1 3.950000e-01    2.500000e+00
   N1h  TX2v  1 3.950000e-01    2.310000e+00
   N1h  TX1v  1 3.950000e-01    2.310000e+00
   N1h  TC6e  1 3.950000e-01    2.700000e+00
   N1h  TC5e  1 3.950000e-01    2.500000e+00
   N1h  TC4e  1 3.950000e-01    2.500000e+00
   N1h  TC3e  1 3.950000e-01    2.310000e+00
   N1h  TC2e  1 3.950000e-01    2.110000e+00
   N1h  TC1e  1 3.950000e-01    1.850000e+00
   N1h  TX4e  1 3.950000e-01    2.500000e+00
   N1h  TX3e  1 3.950000e-01    2.500000e+00
   N1h  TX2e  1 3.950000e-01    2.310000e+00
   N1h  TX1e  1 3.950000e-01    2.310000e+00
   P6q  TN1h  1 3.950000e-01    2.110000e+00
   P5q  TN1h  1 3.950000e-01    2.110000e+00
   P4q  TN1h  1 3.950000e-01    2.310000e+00
   P3q  TN1h  1 3.950000e-01    2.500000e+00
   P2q  TN1h  1 3.950000e-01    2.700000e+00
   P1q  TN1h  1 3.950000e-01    2.700000e+00
   N6q  TN1h  1 3.950000e-01    2.700000e+00
   N5q  TN1h  1 3.950000e-01    2.700000e+00
   N4q  TN1h  1 3.950000e-01    2.700000e+00
   N3q  TN1h  1 3.950000e-01    2.700000e+00
   N2q  TN1h  1 3.950000e-01    2.700000e+00
   N1h  TN1q  1 3.950000e-01    2.940000e+00
   N1h TX1eq  1 3.950000e-01    2.700000e+00
   N1h TX2eq  1 3.950000e-01    2.700000e+00
   N1h TX3eq  1 3.950000e-01    2.940000e+00
   N1h TX4eq  1 3.950000e-01    2.940000e+00
   N1h TC1eq  1 3.950000e-01    2.310000e+00
   N1h TC2eq  1 3.950000e-01    2.500000e+00
   N1h TC3eq  1 3.950000e-01    2.700000e+00
   N1h TC4eq  1 3.950000e-01    2.940000e+00
   N1h TC5eq  1 3.950000e-01    2.940000e+00
   N1h TC6eq  1 3.950000e-01    3.190000e+00
   N1h TX1vq  1 3.950000e-01    2.700000e+00
   N1h TX2vq  1 3.950000e-01    2.700000e+00
   N1h TX3vq  1 3.950000e-01    2.940000e+00
   N1h TX4vq  1 3.950000e-01    2.940000e+00
   N1h TC1vq  1 3.950000e-01    2.310000e+00
   N1h TC2vq  1 3.950000e-01    2.500000e+00
   N1h TC3vq  1 3.950000e-01    2.700000e+00
   N1h TC4vq  1 3.950000e-01    2.940000e+00
   N1h TC5vq  1 3.950000e-01    2.940000e+00
   N1h TC6vq  1 3.950000e-01    3.190000e+00
   N1h TN1aq  1 3.950000e-01    2.940000e+00
  N2aq  TN1h  1 3.950000e-01    2.700000e+00
  N3aq  TN1h  1 3.950000e-01    2.700000e+00
  N4aq  TN1h  1 3.950000e-01    2.700000e+00
  N5aq  TN1h  1 3.950000e-01    2.700000e+00
  N6aq  TN1h  1 3.950000e-01    2.700000e+00
  P1aq  TN1h  1 3.950000e-01    2.700000e+00
  P2aq  TN1h  1 3.950000e-01    2.700000e+00
  P3aq  TN1h  1 3.950000e-01    2.500000e+00
  P4aq  TN1h  1 3.950000e-01    2.310000e+00
  P5aq  TN1h  1 3.950000e-01    2.110000e+00
  P6aq  TN1h  1 3.950000e-01    2.110000e+00
   N1h TN1dq  1 3.950000e-01    2.940000e+00
  N2dq  TN1h  1 3.950000e-01    2.700000e+00
  N3dq  TN1h  1 3.950000e-01    2.700000e+00
  N4dq  TN1h  1 3.950000e-01    2.700000e+00
  N5dq  TN1h  1 3.950000e-01    2.700000e+00
  N6dq  TN1h  1 3.950000e-01    2.700000e+00
  P1dq  TN1h  1 3.950000e-01    2.700000e+00
  P2dq  TN1h  1 3.950000e-01    2.700000e+00
  P3dq  TN1h  1 3.950000e-01    2.500000e+00
  P4dq  TN1h  1 3.950000e-01    2.310000e+00
  P5dq  TN1h  1 3.950000e-01    2.110000e+00
  P6dq  TN1h  1 3.950000e-01    2.110000e+00
   N1h  TX1q  1 3.950000e-01    2.500000e+00
   N1h  TX2q  1 3.950000e-01    2.500000e+00
   N1h  TX3q  1 3.950000e-01    2.700000e+00
   N1h  TX4q  1 3.950000e-01    2.700000e+00
   N1h  TC1q  1 3.950000e-01    2.110000e+00
   N1h  TC2q  1 3.950000e-01    2.310000e+00
   N1h  TC3q  1 3.950000e-01    2.500000e+00
   N1h  TC4q  1 3.950000e-01    2.700000e+00
   N1h  TC5q  1 3.950000e-01    2.700000e+00
   N1h  TC6q  1 3.950000e-01    2.940000e+00
   P6d  TC6h  1 3.950000e-01    1.670000e+00
   P5d  TC6h  1 3.950000e-01    1.670000e+00
   P4d  TC6h  1 3.950000e-01    1.850000e+00
   P3d  TC6h  1 3.950000e-01    2.110000e+00
   P2d  TC6h  1 3.950000e-01    2.110000e+00
   P1d  TC6h  1 3.950000e-01    2.110000e+00
   N6d  TC6h  1 3.950000e-01    2.310000e+00
   N5d  TC6h  1 3.950000e-01    2.310000e+00
   N4d  TC6h  1 3.950000e-01    2.310000e+00
   N3d  TC6h  1 3.950000e-01    2.310000e+00
   N2d  TC6h  1 3.950000e-01    2.310000e+00
   N1d  TC6h  1 3.950000e-01    2.500000e+00
   P6a  TC6h  1 3.950000e-01    1.670000e+00
   P5a  TC6h  1 3.950000e-01    1.670000e+00
   P4a  TC6h  1 3.950000e-01    1.850000e+00
   P3a  TC6h  1 3.950000e-01    2.110000e+00
   P2a  TC6h  1 3.950000e-01    2.110000e+00
   P1a  TC6h  1 3.950000e-01    2.110000e+00
   N6a  TC6h  1 3.950000e-01    2.310000e+00
   N5a  TC6h  1 3.950000e-01    2.310000e+00
   N4a  TC6h  1 3.950000e-01    2.310000e+00
   N3a  TC6h  1 3.950000e-01    2.310000e+00
   N2a  TC6h  1 3.950000e-01    2.310000e+00
   N1a  TC6h  1 3.950000e-01    2.500000e+00
   C6h  TC6v  1 3.950000e-01    2.700000e+00
   C6h  TX1v  1 3.950000e-01    2.500000e+00
   C6h  TX2v  1 3.950000e-01    2.500000e+00
   C6h  TX3v  1 3.950000e-01    2.500000e+00
   C6h  TX4v  1 3.950000e-01    2.500000e+00
   C6h  TC1v  1 3.950000e-01    1.850000e+00
   C6h  TC2v  1 3.950000e-01    2.110000e+00
   C6h  TC3v  1 3.950000e-01    2.310000e+00
   C6h  TC4v  1 3.950000e-01    2.500000e+00
   C6h  TC5v  1 3.950000e-01    2.500000e+00
   C6h  TC6e  1 3.950000e-01    2.700000e+00
   C6h  TX1e  1 3.950000e-01    2.500000e+00
   C6h  TX2e  1 3.950000e-01    2.500000e+00
   C6h  TX3e  1 3.950000e-01    2.500000e+00
   C6h  TX4e  1 3.950000e-01    2.500000e+00
   C6h  TC1e  1 3.950000e-01    1.850000e+00
   C6h  TC2e  1 3.950000e-01    2.110000e+00
   C6h  TC3e  1 3.950000e-01    2.310000e+00
   C6h  TC4e  1 3.950000e-01    2.500000e+00
   C6h  TC5e  1 3.950000e-01    2.500000e+00
   P6q  TC6h  1 3.950000e-01    2.110000e+00
   P5q  TC6h  1 3.950000e-01    2.110000e+00
   P4q  TC6h  1 3.950000e-01    2.310000e+00
   P3q  TC6h  1 3.950000e-01    2.500000e+00
   P2q  TC6h  1 3.950000e-01    2.500000e+00
   P1q  TC6h  1 3.950000e-01    2.500000e+00
   N6q  TC6h  1 3.950000e-01    2.700000e+00
   N5q  TC6h  1 3.950000e-01    2.700000e+00
   N4q  TC6h  1 3.950000e-01    2.700000e+00
   N3q  TC6h  1 3.950000e-01    2.700000e+00
   N2q  TC6h  1 3.950000e-01    2.700000e+00
   N1q  TC6h  1 3.950000e-01    2.940000e+00
   C6h  TC6q  1 3.950000e-01    2.940000e+00
   C6h TX1eq  1 3.950000e-01    2.940000e+00
   C6h TX2eq  1 3.950000e-01    2.940000e+00
   C6h TX3eq  1 3.950000e-01    2.940000e+00
   C6h TX4eq  1 3.950000e-01    2.940000e+00
   C6h TC1eq  1 3.950000e-01    2.310000e+00
   C6h TC2eq  1 3.950000e-01    2.500000e+00
   C6h TC3eq  1 3.950000e-01    2.700000e+00
   C6h TC4eq  1 3.950000e-01    2.940000e+00
   C6h TC5eq  1 3.950000e-01    2.940000e+00
   C6h TC6eq  1 3.950000e-01    3.190000e+00
   C6h TX1vq  1 3.950000e-01    2.940000e+00
   C6h TX2vq  1 3.950000e-01    2.940000e+00
   C6h TX3vq  1 3.950000e-01    2.940000e+00
   C6h TX4vq  1 3.950000e-01    2.940000e+00
   C6h TC1vq  1 3.950000e-01    2.310000e+00
   C6h TC2vq  1 3.950000e-01    2.500000e+00
   C6h TC3vq  1 3.950000e-01    2.700000e+00
   C6h TC4vq  1 3.950000e-01    2.940000e+00
   C6h TC5vq  1 3.950000e-01    2.940000e+00
   C6h TC6vq  1 3.950000e-01    3.190000e+00
  N1aq  TC6h  1 3.950000e-01    2.940000e+00
  N2aq  TC6h  1 3.950000e-01    2.700000e+00
  N3aq  TC6h  1 3.950000e-01    2.700000e+00
  N4aq  TC6h  1 3.950000e-01    2.700000e+00
  N5aq  TC6h  1 3.950000e-01    2.700000e+00
  N6aq  TC6h  1 3.950000e-01    2.700000e+00
  P1aq  TC6h  1 3.950000e-01    2.500000e+00
  P2aq  TC6h  1 3.950000e-01    2.500000e+00
  P3aq  TC6h  1 3.950000e-01    2.500000e+00
  P4aq  TC6h  1 3.950000e-01    2.310000e+00
  P5aq  TC6h  1 3.950000e-01    2.110000e+00
  P6aq  TC6h  1 3.950000e-01    2.110000e+00
  N1dq  TC6h  1 3.950000e-01    2.940000e+00
  N2dq  TC6h  1 3.950000e-01    2.700000e+00
  N3dq  TC6h  1 3.950000e-01    2.700000e+00
  N4dq  TC6h  1 3.950000e-01    2.700000e+00
  N5dq  TC6h  1 3.950000e-01    2.700000e+00
  N6dq  TC6h  1 3.950000e-01    2.700000e+00
  P1dq  TC6h  1 3.950000e-01    2.500000e+00
  P2dq  TC6h  1 3.950000e-01    2.500000e+00
  P3dq  TC6h  1 3.950000e-01    2.500000e+00
  P4dq  TC6h  1 3.950000e-01    2.310000e+00
  P5dq  TC6h  1 3.950000e-01    2.110000e+00
  P6dq  TC6h  1 3.950000e-01    2.110000e+00
   C6h  TX1q  1 3.950000e-01    2.700000e+00
   C6h  TX2q  1 3.950000e-01    2.700000e+00
   C6h  TX3q  1 3.950000e-01    2.700000e+00
   C6h  TX4q  1 3.950000e-01    2.700000e+00
   C6h  TC1q  1 3.950000e-01    2.110000e+00
   C6h  TC2q  1 3.950000e-01    2.310000e+00
   C6h  TC3q  1 3.950000e-01    2.500000e+00
   C6h  TC4q  1 3.950000e-01    2.700000e+00
   C6h  TC5q  1 3.950000e-01    2.700000e+00
   P6d  TC5h  1 3.980000e-01    1.450000e+00
   P5d  TC5h  1 3.950000e-01    1.670000e+00
   P4d  TC5h  1 3.950000e-01    1.670000e+00
   P3d  TC5h  1 3.950000e-01    1.850000e+00
   P2d  TC5h  1 3.950000e-01    1.850000e+00
   P1d  TC5h  1 3.950000e-01    1.850000e+00
   N6d  TC5h  1 3.950000e-01    2.110000e+00
   N5d  TC5h  1 3.950000e-01    2.110000e+00
   N4d  TC5h  1 3.950000e-01    2.110000e+00
   N3d  TC5h  1 3.950000e-01    2.110000e+00
   N2d  TC5h  1 3.950000e-01    2.110000e+00
   N1d  TC5h  1 3.950000e-01    2.310000e+00
   P6a  TC5h  1 3.980000e-01    1.450000e+00
   P5a  TC5h  1 3.950000e-01    1.670000e+00
   P4a  TC5h  1 3.950000e-01    1.670000e+00
   P3a  TC5h  1 3.950000e-01    1.850000e+00
   P2a  TC5h  1 3.950000e-01    1.850000e+00
   P1a  TC5h  1 3.950000e-01    1.850000e+00
   N6a  TC5h  1 3.950000e-01    2.110000e+00
   N5a  TC5h  1 3.950000e-01    2.110000e+00
   N4a  TC5h  1 3.950000e-01    2.110000e+00
   N3a  TC5h  1 3.950000e-01    2.110000e+00
   N2a  TC5h  1 3.950000e-01    2.110000e+00
   N1a  TC5h  1 3.950000e-01    2.310000e+00
   C6v  TC5h  1 3.950000e-01    2.500000e+00
   C5h  TC5v  1 3.950000e-01    2.500000e+00
   C5h  TX1v  1 3.950000e-01    2.500000e+00
   C5h  TX2v  1 3.950000e-01    2.310000e+00
   C5h  TX3v  1 3.950000e-01    2.310000e+00
   C5h  TX4v  1 3.950000e-01    2.310000e+00
   C5h  TC1v  1 3.950000e-01    2.110000e+00
   C5h  TC2v  1 3.950000e-01    2.110000e+00
   C5h  TC3v  1 3.950000e-01    2.310000e+00
   C5h  TC4v  1 3.950000e-01    2.500000e+00
   C6e  TC5h  1 3.950000e-01    2.500000e+00
   C5h  TC5e  1 3.950000e-01    2.500000e+00
   C5h  TX1e  1 3.950000e-01    2.500000e+00
   C5h  TX2e  1 3.950000e-01    2.310000e+00
   C5h  TX3e  1 3.950000e-01    2.310000e+00
   C5h  TX4e  1 3.950000e-01    2.310000e+00
   C5h  TC1e  1 3.950000e-01    2.110000e+00
   C5h  TC2e  1 3.950000e-01    2.110000e+00
   C5h  TC3e  1 3.950000e-01    2.310000e+00
   C5h  TC4e  1 3.950000e-01    2.500000e+00
   P6q  TC5h  1 3.950000e-01    1.850000e+00
   P5q  TC5h  1 3.950000e-01    2.110000e+00
   P4q  TC5h  1 3.950000e-01    2.110000e+00
   P3q  TC5h  1 3.950000e-01    2.310000e+00
   P2q  TC5h  1 3.950000e-01    2.310000e+00
   P1q  TC5h  1 3.950000e-01    2.310000e+00
   N6q  TC5h  1 3.950000e-01    2.500000e+00
   N5q  TC5h  1 3.950000e-01    2.500000e+00
   N4q  TC5h  1 3.950000e-01    2.500000e+00
   N3q  TC5h  1 3.950000e-01    2.500000e+00
   N2q  TC5h  1 3.950000e-01    2.500000e+00
   N1q  TC5h  1 3.950000e-01    2.700000e+00
   C6q  TC5h  1 3.950000e-01    2.700000e+00
   C5h  TC5q  1 3.950000e-01    2.700000e+00
   C5h TX1eq  1 3.950000e-01    2.940000e+00
   C5h TX2eq  1 3.950000e-01    2.700000e+00
   C5h TX3eq  1 3.950000e-01    2.700000e+00
   C5h TX4eq  1 3.950000e-01    2.700000e+00
   C5h TC1eq  1 3.950000e-01    2.500000e+00
   C5h TC2eq  1 3.950000e-01    2.500000e+00
   C5h TC3eq  1 3.950000e-01    2.700000e+00
   C5h TC4eq  1 3.950000e-01    2.940000e+00
   C5h TC5eq  1 3.950000e-01    2.940000e+00
  C6eq  TC5h  1 3.950000e-01    2.940000e+00
   C5h TX1vq  1 3.950000e-01    2.940000e+00
   C5h TX2vq  1 3.950000e-01    2.700000e+00
   C5h TX3vq  1 3.950000e-01    2.700000e+00
   C5h TX4vq  1 3.950000e-01    2.700000e+00
   C5h TC1vq  1 3.950000e-01    2.500000e+00
   C5h TC2vq  1 3.950000e-01    2.500000e+00
   C5h TC3vq  1 3.950000e-01    2.700000e+00
   C5h TC4vq  1 3.950000e-01    2.940000e+00
   C5h TC5vq  1 3.950000e-01    2.940000e+00
  C6vq  TC5h  1 3.950000e-01    2.940000e+00
  N1aq  TC5h  1 3.950000e-01    2.700000e+00
  N2aq  TC5h  1 3.950000e-01    2.500000e+00
  N3aq  TC5h  1 3.950000e-01    2.500000e+00
  N4aq  TC5h  1 3.950000e-01    2.500000e+00
  N5aq  TC5h  1 3.950000e-01    2.500000e+00
  N6aq  TC5h  1 3.950000e-01    2.500000e+00
  P1aq  TC5h  1 3.950000e-01    2.310000e+00
  P2aq  TC5h  1 3.950000e-01    2.310000e+00
  P3aq  TC5h  1 3.950000e-01    2.310000e+00
  P4aq  TC5h  1 3.950000e-01    2.110000e+00
  P5aq  TC5h  1 3.950000e-01    2.110000e+00
  P6aq  TC5h  1 3.950000e-01    1.850000e+00
  N1dq  TC5h  1 3.950000e-01    2.700000e+00
  N2dq  TC5h  1 3.950000e-01    2.500000e+00
  N3dq  TC5h  1 3.950000e-01    2.500000e+00
  N4dq  TC5h  1 3.950000e-01    2.500000e+00
  N5dq  TC5h  1 3.950000e-01    2.500000e+00
  N6dq  TC5h  1 3.950000e-01    2.500000e+00
  P1dq  TC5h  1 3.950000e-01    2.310000e+00
  P2dq  TC5h  1 3.950000e-01    2.310000e+00
  P3dq  TC5h  1 3.950000e-01    2.310000e+00
  P4dq  TC5h  1 3.950000e-01    2.110000e+00
  P5dq  TC5h  1 3.950000e-01    2.110000e+00
  P6dq  TC5h  1 3.950000e-01    1.850000e+00
   C5h  TX1q  1 3.950000e-01    2.700000e+00
   C5h  TX2q  1 3.950000e-01    2.500000e+00
   C5h  TX3q  1 3.950000e-01    2.500000e+00
   C5h  TX4q  1 3.950000e-01    2.500000e+00
   C5h  TC1q  1 3.950000e-01    2.310000e+00
   C5h  TC2q  1 3.950000e-01    2.310000e+00
   C5h  TC3q  1 3.950000e-01    2.500000e+00
   C5h  TC4q  1 3.950000e-01    2.700000e+00
   P6d  TC4h  1 3.990000e-01    1.180000e+00
   P5d  TC4h  1 3.980000e-01    1.450000e+00
   P4d  TC4h  1 3.980000e-01    1.450000e+00
   P3d  TC4h  1 3.950000e-01    1.670000e+00
   P2d  TC4h  1 3.950000e-01    1.670000e+00
   P1d  TC4h  1 3.950000e-01    1.670000e+00
   N6d  TC4h  1 3.950000e-01    1.850000e+00
   N5d  TC4h  1 3.950000e-01    1.850000e+00
   N4d  TC4h  1 3.950000e-01    2.110000e+00
   N3d  TC4h  1 3.950000e-01    2.110000e+00
   N2d  TC4h  1 3.950000e-01    2.110000e+00
   N1d  TC4h  1 3.950000e-01    2.310000e+00
   P6a  TC4h  1 3.990000e-01    1.180000e+00
   P5a  TC4h  1 3.980000e-01    1.450000e+00
   P4a  TC4h  1 3.980000e-01    1.450000e+00
   P3a  TC4h  1 3.950000e-01    1.670000e+00
   P2a  TC4h  1 3.950000e-01    1.670000e+00
   P1a  TC4h  1 3.950000e-01    1.670000e+00
   N6a  TC4h  1 3.950000e-01    1.850000e+00
   N5a  TC4h  1 3.950000e-01    1.850000e+00
   N4a  TC4h  1 3.950000e-01    2.110000e+00
   N3a  TC4h  1 3.950000e-01    2.110000e+00
   N2a  TC4h  1 3.950000e-01    2.110000e+00
   N1a  TC4h  1 3.950000e-01    2.310000e+00
   C6v  TC4h  1 3.950000e-01    2.500000e+00
   C5v  TC4h  1 3.950000e-01    2.500000e+00
   C4h  TC4v  1 3.950000e-01    2.500000e+00
   C4h  TX1v  1 3.950000e-01    2.500000e+00
   C4h  TX2v  1 3.950000e-01    2.310000e+00
   C4h  TX3v  1 3.950000e-01    2.310000e+00
   C4h  TX4v  1 3.950000e-01    2.310000e+00
   C4h  TC1v  1 3.950000e-01    2.110000e+00
   C4h  TC2v  1 3.950000e-01    2.310000e+00
   C4h  TC3v  1 3.950000e-01    2.500000e+00
   C6e  TC4h  1 3.950000e-01    2.500000e+00
   C5e  TC4h  1 3.950000e-01    2.500000e+00
   C4h  TC4e  1 3.950000e-01    2.500000e+00
   C4h  TX1e  1 3.950000e-01    2.500000e+00
   C4h  TX2e  1 3.950000e-01    2.310000e+00
   C4h  TX3e  1 3.950000e-01    2.310000e+00
   C4h  TX4e  1 3.950000e-01    2.310000e+00
   C4h  TC1e  1 3.950000e-01    2.110000e+00
   C4h  TC2e  1 3.950000e-01    2.310000e+00
   C4h  TC3e  1 3.950000e-01    2.500000e+00
   P6q  TC4h  1 3.950000e-01    1.670000e+00
   P5q  TC4h  1 3.950000e-01    1.850000e+00
   P4q  TC4h  1 3.950000e-01    1.850000e+00
   P3q  TC4h  1 3.950000e-01    2.110000e+00
   P2q  TC4h  1 3.950000e-01    2.110000e+00
   P1q  TC4h  1 3.950000e-01    2.110000e+00
   N6q  TC4h  1 3.950000e-01    2.310000e+00
   N5q  TC4h  1 3.950000e-01    2.310000e+00
   N4q  TC4h  1 3.950000e-01    2.500000e+00
   N3q  TC4h  1 3.950000e-01    2.500000e+00
   N2q  TC4h  1 3.950000e-01    2.500000e+00
   N1q  TC4h  1 3.950000e-01    2.700000e+00
   C6q  TC4h  1 3.950000e-01    2.700000e+00
   C5q  TC4h  1 3.950000e-01    2.700000e+00
   C4h  TC4q  1 3.950000e-01    2.700000e+00
   C4h TX1eq  1 3.950000e-01    2.940000e+00
   C4h TX2eq  1 3.950000e-01    2.700000e+00
   C4h TX3eq  1 3.950000e-01    2.700000e+00
   C4h TX4eq  1 3.950000e-01    2.700000e+00
   C4h TC1eq  1 3.950000e-01    2.500000e+00
   C4h TC2eq  1 3.950000e-01    2.700000e+00
   C4h TC3eq  1 3.950000e-01    2.940000e+00
   C4h TC4eq  1 3.950000e-01    2.940000e+00
  C5eq  TC4h  1 3.950000e-01    2.940000e+00
  C6eq  TC4h  1 3.950000e-01    2.940000e+00
   C4h TX1vq  1 3.950000e-01    2.940000e+00
   C4h TX2vq  1 3.950000e-01    2.700000e+00
   C4h TX3vq  1 3.950000e-01    2.700000e+00
   C4h TX4vq  1 3.950000e-01    2.700000e+00
   C4h TC1vq  1 3.950000e-01    2.500000e+00
   C4h TC2vq  1 3.950000e-01    2.700000e+00
   C4h TC3vq  1 3.950000e-01    2.940000e+00
   C4h TC4vq  1 3.950000e-01    2.940000e+00
  C5vq  TC4h  1 3.950000e-01    2.940000e+00
  C6vq  TC4h  1 3.950000e-01    2.940000e+00
  N1aq  TC4h  1 3.950000e-01    2.700000e+00
  N2aq  TC4h  1 3.950000e-01    2.500000e+00
  N3aq  TC4h  1 3.950000e-01    2.500000e+00
  N4aq  TC4h  1 3.950000e-01    2.500000e+00
  N5aq  TC4h  1 3.950000e-01    2.310000e+00
  N6aq  TC4h  1 3.950000e-01    2.310000e+00
  P1aq  TC4h  1 3.950000e-01    2.110000e+00
  P2aq  TC4h  1 3.950000e-01    2.110000e+00
  P3aq  TC4h  1 3.950000e-01    2.110000e+00
  P4aq  TC4h  1 3.950000e-01    1.850000e+00
  P5aq  TC4h  1 3.950000e-01    1.850000e+00
  P6aq  TC4h  1 3.950000e-01    1.670000e+00
  N1dq  TC4h  1 3.950000e-01    2.700000e+00
  N2dq  TC4h  1 3.950000e-01    2.500000e+00
  N3dq  TC4h  1 3.950000e-01    2.500000e+00
  N4dq  TC4h  1 3.950000e-01    2.500000e+00
  N5dq  TC4h  1 3.950000e-01    2.310000e+00
  N6dq  TC4h  1 3.950000e-01    2.310000e+00
  P1dq  TC4h  1 3.950000e-01    2.110000e+00
  P2dq  TC4h  1 3.950000e-01    2.110000e+00
  P3dq  TC4h  1 3.950000e-01    2.110000e+00
  P4dq  TC4h  1 3.950000e-01    1.850000e+00
  P5dq  TC4h  1 3.950000e-01    1.850000e+00
  P6dq  TC4h  1 3.950000e-01    1.670000e+00
   C4h  TX1q  1 3.950000e-01    2.700000e+00
   C4h  TX2q  1 3.950000e-01    2.500000e+00
   C4h  TX3q  1 3.950000e-01    2.500000e+00
   C4h  TX4q  1 3.950000e-01    2.500000e+00
   C4h  TC1q  1 3.950000e-01    2.310000e+00
   C4h  TC2q  1 3.950000e-01    2.500000e+00
   C4h  TC3q  1 3.950000e-01    2.700000e+00
   P6d  TC3h  1 4.010000e-01    9.830000e-01
   P5d  TC3h  1 3.990000e-01    1.180000e+00
   P4d  TC3h  1 3.990000e-01    1.180000e+00
   P3d  TC3h  1 3.990000e-01    1.180000e+00
   P2d  TC3h  1 3.980000e-01    1.450000e+00
   P1d  TC3h  1 3.980000e-01    1.450000e+00
   N6d  TC3h  1 3.950000e-01    1.670000e+00
   N5d  TC3h  1 3.950000e-01    1.850000e+00
   N4d  TC3h  1 3.950000e-01    1.850000e+00
   N3d  TC3h  1 3.950000e-01    1.850000e+00
   N2d  TC3h  1 3.950000e-01    2.110000e+00
   N1d  TC3h  1 3.950000e-01    2.110000e+00
   P6a  TC3h  1 4.010000e-01    9.830000e-01
   P5a  TC3h  1 3.990000e-01    1.180000e+00
   P4a  TC3h  1 3.990000e-01    1.180000e+00
   P3a  TC3h  1 3.990000e-01    1.180000e+00
   P2a  TC3h  1 3.980000e-01    1.450000e+00
   P1a  TC3h  1 3.980000e-01    1.450000e+00
   N6a  TC3h  1 3.950000e-01    1.670000e+00
   N5a  TC3h  1 3.950000e-01    1.850000e+00
   N4a  TC3h  1 3.950000e-01    1.850000e+00
   N3a  TC3h  1 3.950000e-01    1.850000e+00
   N2a  TC3h  1 3.950000e-01    2.110000e+00
   N1a  TC3h  1 3.950000e-01    2.110000e+00
   C6v  TC3h  1 3.950000e-01    2.310000e+00
   C5v  TC3h  1 3.950000e-01    2.310000e+00
   C4v  TC3h  1 3.950000e-01    2.500000e+00
   C3h  TC3v  1 3.950000e-01    2.500000e+00
   C3h  TX1v  1 3.950000e-01    2.500000e+00
   C3h  TX2v  1 3.950000e-01    2.310000e+00
   C3h  TX3v  1 3.950000e-01    2.310000e+00
   C3h  TX4v  1 3.950000e-01    2.310000e+00
   C3h  TC1v  1 3.950000e-01    2.500000e+00
   C3h  TC2v  1 3.950000e-01    2.500000e+00
   C6e  TC3h  1 3.950000e-01    2.310000e+00
   C5e  TC3h  1 3.950000e-01    2.310000e+00
   C4e  TC3h  1 3.950000e-01    2.500000e+00
   C3h  TC3e  1 3.950000e-01    2.500000e+00
   C3h  TX1e  1 3.950000e-01    2.500000e+00
   C3h  TX2e  1 3.950000e-01    2.310000e+00
   C3h  TX3e  1 3.950000e-01    2.310000e+00
   C3h  TX4e  1 3.950000e-01    2.310000e+00
   C3h  TC1e  1 3.950000e-01    2.500000e+00
   C3h  TC2e  1 3.950000e-01    2.500000e+00
   P6q  TC3h  1 3.980000e-01    1.450000e+00
   P5q  TC3h  1 3.950000e-01    1.670000e+00
   P4q  TC3h  1 3.950000e-01    1.670000e+00
   P3q  TC3h  1 3.950000e-01    1.670000e+00
   P2q  TC3h  1 3.950000e-01    1.850000e+00
   P1q  TC3h  1 3.950000e-01    1.850000e+00
   N6q  TC3h  1 3.950000e-01    2.110000e+00
   N5q  TC3h  1 3.950000e-01    2.310000e+00
   N4q  TC3h  1 3.950000e-01    2.310000e+00
   N3q  TC3h  1 3.950000e-01    2.310000e+00
   N2q  TC3h  1 3.950000e-01    2.500000e+00
   N1q  TC3h  1 3.950000e-01    2.500000e+00
   C6q  TC3h  1 3.950000e-01    2.500000e+00
   C5q  TC3h  1 3.950000e-01    2.500000e+00
   C4q  TC3h  1 3.950000e-01    2.700000e+00
   C3h  TC3q  1 3.950000e-01    2.700000e+00
   C3h TX1eq  1 3.950000e-01    2.940000e+00
   C3h TX2eq  1 3.950000e-01    2.700000e+00
   C3h TX3eq  1 3.950000e-01    2.700000e+00
   C3h TX4eq  1 3.950000e-01    2.700000e+00
   C3h TC1eq  1 3.950000e-01    2.940000e+00
   C3h TC2eq  1 3.950000e-01    2.940000e+00
   C3h TC3eq  1 3.950000e-01    2.940000e+00
  C4eq  TC3h  1 3.950000e-01    2.940000e+00
  C5eq  TC3h  1 3.950000e-01    2.700000e+00
  C6eq  TC3h  1 3.950000e-01    2.700000e+00
   C3h TX1vq  1 3.950000e-01    2.940000e+00
   C3h TX2vq  1 3.950000e-01    2.700000e+00
   C3h TX3vq  1 3.950000e-01    2.700000e+00
   C3h TX4vq  1 3.950000e-01    2.700000e+00
   C3h TC1vq  1 3.950000e-01    2.940000e+00
   C3h TC2vq  1 3.950000e-01    2.940000e+00
   C3h TC3vq  1 3.950000e-01    2.940000e+00
  C4vq  TC3h  1 3.950000e-01    2.940000e+00
  C5vq  TC3h  1 3.950000e-01    2.700000e+00
  C6vq  TC3h  1 3.950000e-01    2.700000e+00
  N1aq  TC3h  1 3.950000e-01    2.500000e+00
  N2aq  TC3h  1 3.950000e-01    2.500000e+00
  N3aq  TC3h  1 3.950000e-01    2.310000e+00
  N4aq  TC3h  1 3.950000e-01    2.310000e+00
  N5aq  TC3h  1 3.950000e-01    2.310000e+00
  N6aq  TC3h  1 3.950000e-01    2.110000e+00
  P1aq  TC3h  1 3.950000e-01    1.850000e+00
  P2aq  TC3h  1 3.950000e-01    1.850000e+00
  P3aq  TC3h  1 3.950000e-01    1.670000e+00
  P4aq  TC3h  1 3.950000e-01    1.670000e+00
  P5aq  TC3h  1 3.950000e-01    1.670000e+00
  P6aq  TC3h  1 3.980000e-01    1.450000e+00
  N1dq  TC3h  1 3.950000e-01    2.500000e+00
  N2dq  TC3h  1 3.950000e-01    2.500000e+00
  N3dq  TC3h  1 3.950000e-01    2.310000e+00
  N4dq  TC3h  1 3.950000e-01    2.310000e+00
  N5dq  TC3h  1 3.950000e-01    2.310000e+00
  N6dq  TC3h  1 3.950000e-01    2.110000e+00
  P1dq  TC3h  1 3.950000e-01    1.850000e+00
  P2dq  TC3h  1 3.950000e-01    1.850000e+00
  P3dq  TC3h  1 3.950000e-01    1.670000e+00
  P4dq  TC3h  1 3.950000e-01    1.670000e+00
  P5dq  TC3h  1 3.950000e-01    1.670000e+00
  P6dq  TC3h  1 3.980000e-01    1.450000e+00
   C3h  TX1q  1 3.950000e-01    2.700000e+00
   C3h  TX2q  1 3.950000e-01    2.500000e+00
   C3h  TX3q  1 3.950000e-01    2.500000e+00
   C3h  TX4q  1 3.950000e-01    2.500000e+00
   C3h  TC1q  1 3.950000e-01    2.700000e+00
   C3h  TC2q  1 3.950000e-01    2.700000e+00
   P6d  TC2h  1 4.010000e-01    9.830000e-01
   P5d  TC2h  1 3.990000e-01    1.180000e+00
   P4d  TC2h  1 3.990000e-01    1.180000e+00
   P3d  TC2h  1 3.990000e-01    1.180000e+00
   P2d  TC2h  1 3.980000e-01    1.450000e+00
   P1d  TC2h  1 3.980000e-01    1.450000e+00
   N6d  TC2h  1 3.950000e-01    1.670000e+00
   N5d  TC2h  1 3.950000e-01    1.670000e+00
   N4d  TC2h  1 3.950000e-01    1.670000e+00
   N3d  TC2h  1 3.950000e-01    1.850000e+00
   N2d  TC2h  1 3.950000e-01    1.850000e+00
   N1d  TC2h  1 3.950000e-01    1.850000e+00
   P6a  TC2h  1 4.010000e-01    9.830000e-01
   P5a  TC2h  1 3.990000e-01    1.180000e+00
   P4a  TC2h  1 3.990000e-01    1.180000e+00
   P3a  TC2h  1 3.990000e-01    1.180000e+00
   P2a  TC2h  1 3.980000e-01    1.450000e+00
   P1a  TC2h  1 3.980000e-01    1.450000e+00
   N6a  TC2h  1 3.950000e-01    1.670000e+00
   N5a  TC2h  1 3.950000e-01    1.670000e+00
   N4a  TC2h  1 3.950000e-01    1.670000e+00
   N3a  TC2h  1 3.950000e-01    1.850000e+00
   N2a  TC2h  1 3.950000e-01    1.850000e+00
   N1a  TC2h  1 3.950000e-01    1.850000e+00
   C6v  TC2h  1 3.950000e-01    2.110000e+00
   C5v  TC2h  1 3.950000e-01    2.110000e+00
   C4v  TC2h  1 3.950000e-01    2.310000e+00
   C3v  TC2h  1 3.950000e-01    2.500000e+00
   C2h  TC2v  1 3.950000e-01    2.500000e+00
   C2h  TX1v  1 3.950000e-01    2.310000e+00
   C2h  TX2v  1 3.950000e-01    2.310000e+00
   C2h  TX3v  1 3.950000e-01    2.310000e+00
   C2h  TX4v  1 3.950000e-01    1.850000e+00
   C2h  TC1v  1 3.950000e-01    2.700000e+00
   C6e  TC2h  1 3.950000e-01    2.110000e+00
   C5e  TC2h  1 3.950000e-01    2.110000e+00
   C4e  TC2h  1 3.950000e-01    2.310000e+00
   C3e  TC2h  1 3.950000e-01    2.500000e+00
   C2h  TC2e  1 3.950000e-01    2.500000e+00
   C2h  TX1e  1 3.950000e-01    2.310000e+00
   C2h  TX2e  1 3.950000e-01    2.310000e+00
   C2h  TX3e  1 3.950000e-01    2.310000e+00
   C2h  TX4e  1 3.950000e-01    1.850000e+00
   C2h  TC1e  1 3.950000e-01    2.700000e+00
   P6q  TC2h  1 3.980000e-01    1.450000e+00
   P5q  TC2h  1 3.950000e-01    1.670000e+00
   P4q  TC2h  1 3.950000e-01    1.670000e+00
   P3q  TC2h  1 3.950000e-01    1.670000e+00
   P2q  TC2h  1 3.950000e-01    1.850000e+00
   P1q  TC2h  1 3.950000e-01    1.850000e+00
   N6q  TC2h  1 3.950000e-01    2.110000e+00
   N5q  TC2h  1 3.950000e-01    2.110000e+00
   N4q  TC2h  1 3.950000e-01    2.110000e+00
   N3q  TC2h  1 3.950000e-01    2.310000e+00
   N2q  TC2h  1 3.950000e-01    2.310000e+00
   N1q  TC2h  1 3.950000e-01    2.310000e+00
   C6q  TC2h  1 3.950000e-01    2.310000e+00
   C5q  TC2h  1 3.950000e-01    2.310000e+00
   C4q  TC2h  1 3.950000e-01    2.500000e+00
   C3q  TC2h  1 3.950000e-01    2.700000e+00
   C2h  TC2q  1 3.950000e-01    2.700000e+00
   C2h TX1eq  1 3.950000e-01    2.700000e+00
   C2h TX2eq  1 3.950000e-01    2.700000e+00
   C2h TX3eq  1 3.950000e-01    2.700000e+00
   C2h TX4eq  1 3.950000e-01    2.310000e+00
   C2h TC1eq  1 3.950000e-01    3.190000e+00
   C2h TC2eq  1 3.950000e-01    2.940000e+00
  C3eq  TC2h  1 3.950000e-01    2.940000e+00
  C4eq  TC2h  1 3.950000e-01    2.700000e+00
  C5eq  TC2h  1 3.950000e-01    2.500000e+00
  C6eq  TC2h  1 3.950000e-01    2.500000e+00
   C2h TX1vq  1 3.950000e-01    2.700000e+00
   C2h TX2vq  1 3.950000e-01    2.700000e+00
   C2h TX3vq  1 3.950000e-01    2.700000e+00
   C2h TX4vq  1 3.950000e-01    2.310000e+00
   C2h TC1vq  1 3.950000e-01    3.190000e+00
   C2h TC2vq  1 3.950000e-01    2.940000e+00
  C3vq  TC2h  1 3.950000e-01    2.940000e+00
  C4vq  TC2h  1 3.950000e-01    2.700000e+00
  C5vq  TC2h  1 3.950000e-01    2.500000e+00
  C6vq  TC2h  1 3.950000e-01    2.500000e+00
  N1aq  TC2h  1 3.950000e-01    2.310000e+00
  N2aq  TC2h  1 3.950000e-01    2.310000e+00
  N3aq  TC2h  1 3.950000e-01    2.310000e+00
  N4aq  TC2h  1 3.950000e-01    2.110000e+00
  N5aq  TC2h  1 3.950000e-01    2.110000e+00
  N6aq  TC2h  1 3.950000e-01    2.110000e+00
  P1aq  TC2h  1 3.950000e-01    1.850000e+00
  P2aq  TC2h  1 3.950000e-01    1.850000e+00
  P3aq  TC2h  1 3.950000e-01    1.670000e+00
  P4aq  TC2h  1 3.950000e-01    1.670000e+00
  P5aq  TC2h  1 3.950000e-01    1.670000e+00
  P6aq  TC2h  1 3.980000e-01    1.450000e+00
  N1dq  TC2h  1 3.950000e-01    2.310000e+00
  N2dq  TC2h  1 3.950000e-01    2.310000e+00
  N3dq  TC2h  1 3.950000e-01    2.310000e+00
  N4dq  TC2h  1 3.950000e-01    2.110000e+00
  N5dq  TC2h  1 3.950000e-01    2.110000e+00
  N6dq  TC2h  1 3.950000e-01    2.110000e+00
  P1dq  TC2h  1 3.950000e-01    1.850000e+00
  P2dq  TC2h  1 3.950000e-01    1.850000e+00
  P3dq  TC2h  1 3.950000e-01    1.670000e+00
  P4dq  TC2h  1 3.950000e-01    1.670000e+00
  P5dq  TC2h  1 3.950000e-01    1.670000e+00
  P6dq  TC2h  1 3.980000e-01    1.450000e+00
   C2h  TX1q  1 3.950000e-01    2.500000e+00
   C2h  TX2q  1 3.950000e-01    2.500000e+00
   C2h  TX3q  1 3.950000e-01    2.500000e+00
   C2h  TX4q  1 3.950000e-01    2.110000e+00
   C2h  TC1q  1 3.950000e-01    2.940000e+00
   P6d  TC1h  1 4.650000e-01    7.030000e-01
   P5d  TC1h  1 4.010000e-01    9.830000e-01
   P4d  TC1h  1 4.010000e-01    9.830000e-01
   P3d  TC1h  1 4.010000e-01    9.830000e-01
   P2d  TC1h  1 3.990000e-01    1.180000e+00
   P1d  TC1h  1 3.990000e-01    1.180000e+00
   N6d  TC1h  1 3.980000e-01    1.450000e+00
   N5d  TC1h  1 3.980000e-01    1.450000e+00
   N4d  TC1h  1 3.980000e-01    1.450000e+00
   N3d  TC1h  1 3.950000e-01    1.670000e+00
   N2d  TC1h  1 3.950000e-01    1.670000e+00
   N1d  TC1h  1 3.950000e-01    1.670000e+00
   P6a  TC1h  1 4.650000e-01    7.030000e-01
   P5a  TC1h  1 4.010000e-01    9.830000e-01
   P4a  TC1h  1 4.010000e-01    9.830000e-01
   P3a  TC1h  1 4.010000e-01    9.830000e-01
   P2a  TC1h  1 3.990000e-01    1.180000e+00
   P1a  TC1h  1 3.990000e-01    1.180000e+00
   N6a  TC1h  1 3.980000e-01    1.450000e+00
   N5a  TC1h  1 3.980000e-01    1.450000e+00
   N4a  TC1h  1 3.980000e-01    1.450000e+00
   N3a  TC1h  1 3.950000e-01    1.670000e+00
   N2a  TC1h  1 3.950000e-01    1.670000e+00
   N1a  TC1h  1 3.950000e-01    1.670000e+00
   C6v  TC1h  1 3.950000e-01    1.850000e+00
   C5v  TC1h  1 3.950000e-01    2.110000e+00
   C4v  TC1h  1 3.950000e-01    2.110000e+00
   C3v  TC1h  1 3.950000e-01    2.500000e+00
   C2v  TC1h  1 3.950000e-01    2.700000e+00
   C1h  TC1v  1 3.950000e-01    2.500000e+00
   C1h  TX1v  1 3.950000e-01    2.310000e+00
   C1h  TX2v  1 3.950000e-01    2.310000e+00
   C1h  TX3v  1 3.950000e-01    2.310000e+00
   C1h  TX4v  1 3.950000e-01    1.850000e+00
   C6e  TC1h  1 3.950000e-01    1.850000e+00
   C5e  TC1h  1 3.950000e-01    2.110000e+00
   C4e  TC1h  1 3.950000e-01    2.110000e+00
   C3e  TC1h  1 3.950000e-01    2.500000e+00
   C2e  TC1h  1 3.950000e-01    2.700000e+00
   C1h  TC1e  1 3.950000e-01    2.500000e+00
   C1h  TX1e  1 3.950000e-01    2.310000e+00
   C1h  TX2e  1 3.950000e-01    2.310000e+00
   C1h  TX3e  1 3.950000e-01    2.310000e+00
   C1h  TX4e  1 3.950000e-01    1.850000e+00
   P6q  TC1h  1 4.010000e-01    9.830000e-01
   P5q  TC1h  1 3.980000e-01    1.450000e+00
   P4q  TC1h  1 3.980000e-01    1.450000e+00
   P3q  TC1h  1 3.980000e-01    1.450000e+00
   P2q  TC1h  1 3.950000e-01    1.670000e+00
   P1q  TC1h  1 3.950000e-01    1.670000e+00
   N6q  TC1h  1 3.950000e-01    1.850000e+00
   N5q  TC1h  1 3.950000e-01    1.850000e+00
   N4q  TC1h  1 3.950000e-01    1.850000e+00
   N3q  TC1h  1 3.950000e-01    2.110000e+00
   N2q  TC1h  1 3.950000e-01    2.110000e+00
   N1q  TC1h  1 3.950000e-01    2.110000e+00
   C6q  TC1h  1 3.950000e-01    2.110000e+00
   C5q  TC1h  1 3.950000e-01    2.310000e+00
   C4q  TC1h  1 3.950000e-01    2.310000e+00
   C3q  TC1h  1 3.950000e-01    2.700000e+00
   C2q  TC1h  1 3.950000e-01    2.940000e+00
   C1h  TC1q  1 3.950000e-01    2.700000e+00
   C1h TX1eq  1 3.950000e-01    2.700000e+00
   C1h TX2eq  1 3.950000e-01    2.700000e+00
   C1h TX3eq  1 3.950000e-01    2.700000e+00
   C1h TX4eq  1 3.950000e-01    2.310000e+00
   C1h TC1eq  1 3.950000e-01    2.940000e+00
  C2eq  TC1h  1 3.950000e-01    3.190000e+00
  C3eq  TC1h  1 3.950000e-01    2.940000e+00
  C4eq  TC1h  1 3.950000e-01    2.500000e+00
  C5eq  TC1h  1 3.950000e-01    2.500000e+00
  C6eq  TC1h  1 3.950000e-01    2.310000e+00
   C1h TX1vq  1 3.950000e-01    2.700000e+00
   C1h TX2vq  1 3.950000e-01    2.700000e+00
   C1h TX3vq  1 3.950000e-01    2.700000e+00
   C1h TX4vq  1 3.950000e-01    2.310000e+00
   C1h TC1vq  1 3.950000e-01    2.940000e+00
  C2vq  TC1h  1 3.950000e-01    3.190000e+00
  C3vq  TC1h  1 3.950000e-01    2.940000e+00
  C4vq  TC1h  1 3.950000e-01    2.500000e+00
  C5vq  TC1h  1 3.950000e-01    2.500000e+00
  C6vq  TC1h  1 3.950000e-01    2.310000e+00
  N1aq  TC1h  1 3.950000e-01    2.110000e+00
  N2aq  TC1h  1 3.950000e-01    2.110000e+00
  N3aq  TC1h  1 3.950000e-01    2.110000e+00
  N4aq  TC1h  1 3.950000e-01    1.850000e+00
  N5aq  TC1h  1 3.950000e-01    1.850000e+00
  N6aq  TC1h  1 3.950000e-01    1.850000e+00
  P1aq  TC1h  1 3.950000e-01    1.670000e+00
  P2aq  TC1h  1 3.950000e-01    1.670000e+00
  P3aq  TC1h  1 3.980000e-01    1.450000e+00
  P4aq  TC1h  1 3.980000e-01    1.450000e+00
  P5aq  TC1h  1 3.980000e-01    1.450000e+00
  P6aq  TC1h  1 4.010000e-01    9.830000e-01
  N1dq  TC1h  1 3.950000e-01    2.110000e+00
  N2dq  TC1h  1 3.950000e-01    2.110000e+00
  N3dq  TC1h  1 3.950000e-01    2.110000e+00
  N4dq  TC1h  1 3.950000e-01    1.850000e+00
  N5dq  TC1h  1 3.950000e-01    1.850000e+00
  N6dq  TC1h  1 3.950000e-01    1.850000e+00
  P1dq  TC1h  1 3.950000e-01    1.670000e+00
  P2dq  TC1h  1 3.950000e-01    1.670000e+00
  P3dq  TC1h  1 3.980000e-01    1.450000e+00
  P4dq  TC1h  1 3.980000e-01    1.450000e+00
  P5dq  TC1h  1 3.980000e-01    1.450000e+00
  P6dq  TC1h  1 4.010000e-01    9.830000e-01
   C1h  TX1q  1 3.950000e-01    2.500000e+00
   C1h  TX2q  1 3.950000e-01    2.500000e+00
   C1h  TX3q  1 3.950000e-01    2.500000e+00
   C1h  TX4q  1 3.950000e-01    2.110000e+00
   P6d  TX4h  1 3.950000e-01    1.850000e+00
   P5d  TX4h  1 3.950000e-01    2.110000e+00
   P4d  TX4h  1 3.950000e-01    2.110000e+00
   P3d  TX4h  1 3.950000e-01    2.110000e+00
   P2d  TX4h  1 3.950000e-01    2.110000e+00
   P1d  TX4h  1 3.950000e-01    2.110000e+00
   N6d  TX4h  1 3.950000e-01    2.310000e+00
   N5d  TX4h  1 3.950000e-01    2.500000e+00
   N4d  TX4h  1 3.950000e-01    2.700000e+00
   N3d  TX4h  1 3.950000e-01    2.500000e+00
   N2d  TX4h  1 3.950000e-01    2.500000e+00
   N1d  TX4h  1 3.950000e-01    2.310000e+00
   P6a  TX4h  1 3.950000e-01    1.850000e+00
   P5a  TX4h  1 3.950000e-01    2.110000e+00
   P4a  TX4h  1 3.950000e-01    2.110000e+00
   P3a  TX4h  1 3.950000e-01    2.110000e+00
   P2a  TX4h  1 3.950000e-01    2.110000e+00
   P1a  TX4h  1 3.950000e-01    2.110000e+00
   N6a  TX4h  1 3.950000e-01    2.310000e+00
   N5a  TX4h  1 3.950000e-01    2.500000e+00
   N4a  TX4h  1 3.950000e-01    2.700000e+00
   N3a  TX4h  1 3.950000e-01    2.500000e+00
   N2a  TX4h  1 3.950000e-01    2.500000e+00
   N1a  TX4h  1 3.950000e-01    2.310000e+00
   C6v  TX4h  1 3.950000e-01    2.500000e+00
   C5v  TX4h  1 3.950000e-01    2.310000e+00
   C4v  TX4h  1 3.950000e-01    2.310000e+00
   C3v  TX4h  1 3.950000e-01    2.310000e+00
   C2v  TX4h  1 3.950000e-01    1.850000e+00
   C1v  TX4h  1 3.950000e-01    1.850000e+00
   X4h  TX4v  1 3.950000e-01    2.500000e+00
   X4h  TX1v  1 3.950000e-01    2.500000e+00
   X4h  TX2v  1 3.950000e-01    2.500000e+00
   X4h  TX3v  1 3.950000e-01    2.500000e+00
   C6e  TX4h  1 3.950000e-01    2.500000e+00
   C5e  TX4h  1 3.950000e-01    2.310000e+00
   C4e  TX4h  1 3.950000e-01    2.310000e+00
   C3e  TX4h  1 3.950000e-01    2.310000e+00
   C2e  TX4h  1 3.950000e-01    1.850000e+00
   C1e  TX4h  1 3.950000e-01    1.850000e+00
   X4h  TX4e  1 3.950000e-01    2.500000e+00
   X4h  TX1e  1 3.950000e-01    2.500000e+00
   X4h  TX2e  1 3.950000e-01    2.500000e+00
   X4h  TX3e  1 3.950000e-01    2.500000e+00
   P6q  TX4h  1 3.950000e-01    2.310000e+00
   P5q  TX4h  1 3.950000e-01    2.500000e+00
   P4q  TX4h  1 3.950000e-01    2.500000e+00
   P3q  TX4h  1 3.950000e-01    2.500000e+00
   P2q  TX4h  1 3.950000e-01    2.500000e+00
   P1q  TX4h  1 3.950000e-01    2.500000e+00
   N6q  TX4h  1 3.950000e-01    2.700000e+00
   N5q  TX4h  1 3.950000e-01    2.940000e+00
   N4q  TX4h  1 3.950000e-01    3.190000e+00
   N3q  TX4h  1 3.950000e-01    2.940000e+00
   N2q  TX4h  1 3.950000e-01    2.940000e+00
   N1q  TX4h  1 3.950000e-01    2.700000e+00
   C6q  TX4h  1 3.950000e-01    2.700000e+00
   C5q  TX4h  1 3.950000e-01    2.500000e+00
   C4q  TX4h  1 3.950000e-01    2.500000e+00
   C3q  TX4h  1 3.950000e-01    2.500000e+00
   C2q  TX4h  1 3.950000e-01    2.110000e+00
   C1q  TX4h  1 3.950000e-01    2.110000e+00
   X4h  TX4q  1 3.950000e-01    2.700000e+00
   X4h TX1eq  1 3.950000e-01    2.940000e+00
   X4h TX2eq  1 3.950000e-01    2.940000e+00
   X4h TX3eq  1 3.950000e-01    2.940000e+00
   X4h TX4eq  1 3.950000e-01    2.940000e+00
  C1eq  TX4h  1 3.950000e-01    2.310000e+00
  C2eq  TX4h  1 3.950000e-01    2.310000e+00
  C3eq  TX4h  1 3.950000e-01    2.700000e+00
  C4eq  TX4h  1 3.950000e-01    2.700000e+00
  C5eq  TX4h  1 3.950000e-01    2.700000e+00
  C6eq  TX4h  1 3.950000e-01    2.940000e+00
   X4h TX1vq  1 3.950000e-01    2.940000e+00
   X4h TX2vq  1 3.950000e-01    2.940000e+00
   X4h TX3vq  1 3.950000e-01    2.940000e+00
   X4h TX4vq  1 3.950000e-01    2.940000e+00
  C1vq  TX4h  1 3.950000e-01    2.310000e+00
  C2vq  TX4h  1 3.950000e-01    2.310000e+00
  C3vq  TX4h  1 3.950000e-01    2.700000e+00
  C4vq  TX4h  1 3.950000e-01    2.700000e+00
  C5vq  TX4h  1 3.950000e-01    2.700000e+00
  C6vq  TX4h  1 3.950000e-01    2.940000e+00
  N1aq  TX4h  1 3.950000e-01    2.700000e+00
  N2aq  TX4h  1 3.950000e-01    2.940000e+00
  N3aq  TX4h  1 3.950000e-01    2.940000e+00
  N4aq  TX4h  1 3.950000e-01    3.190000e+00
  N5aq  TX4h  1 3.950000e-01    2.940000e+00
  N6aq  TX4h  1 3.950000e-01    2.700000e+00
  P1aq  TX4h  1 3.950000e-01    2.500000e+00
  P2aq  TX4h  1 3.950000e-01    2.500000e+00
  P3aq  TX4h  1 3.950000e-01    2.500000e+00
  P4aq  TX4h  1 3.950000e-01    2.500000e+00
  P5aq  TX4h  1 3.950000e-01    2.500000e+00
  P6aq  TX4h  1 3.950000e-01    2.310000e+00
  N1dq  TX4h  1 3.950000e-01    2.700000e+00
  N2dq  TX4h  1 3.950000e-01    2.940000e+00
  N3dq  TX4h  1 3.950000e-01    2.940000e+00
  N4dq  TX4h  1 3.950000e-01    3.190000e+00
  N5dq  TX4h  1 3.950000e-01    2.940000e+00
  N6dq  TX4h  1 3.950000e-01    2.700000e+00
  P1dq  TX4h  1 3.950000e-01    2.500000e+00
  P2dq  TX4h  1 3.950000e-01    2.500000e+00
  P3dq  TX4h  1 3.950000e-01    2.500000e+00
  P4dq  TX4h  1 3.950000e-01    2.500000e+00
  P5dq  TX4h  1 3.950000e-01    2.500000e+00
  P6dq  TX4h  1 3.950000e-01    2.310000e+00
   X4h  TX1q  1 3.950000e-01    2.700000e+00
   X4h  TX2q  1 3.950000e-01    2.700000e+00
   X4h  TX3q  1 3.950000e-01    2.700000e+00
   P6d  TX3h  1 3.950000e-01    1.850000e+00
   P5d  TX3h  1 3.950000e-01    1.850000e+00
   P4d  TX3h  1 3.950000e-01    1.850000e+00
   P3d  TX3h  1 3.950000e-01    2.110000e+00
   P2d  TX3h  1 3.950000e-01    2.110000e+00
   P1d  TX3h  1 3.950000e-01    2.110000e+00
   N6d  TX3h  1 3.950000e-01    2.110000e+00
   N5d  TX3h  1 3.950000e-01    2.310000e+00
   N4d  TX3h  1 3.950000e-01    2.500000e+00
   N3d  TX3h  1 3.950000e-01    2.310000e+00
   N2d  TX3h  1 3.950000e-01    2.310000e+00
   N1d  TX3h  1 3.950000e-01    2.310000e+00
   P6a  TX3h  1 3.950000e-01    1.850000e+00
   P5a  TX3h  1 3.950000e-01    1.850000e+00
   P4a  TX3h  1 3.950000e-01    1.850000e+00
   P3a  TX3h  1 3.950000e-01    2.110000e+00
   P2a  TX3h  1 3.950000e-01    2.110000e+00
   P1a  TX3h  1 3.950000e-01    2.110000e+00
   N6a  TX3h  1 3.950000e-01    2.110000e+00
   N5a  TX3h  1 3.950000e-01    2.310000e+00
   N4a  TX3h  1 3.950000e-01    2.500000e+00
   N3a  TX3h  1 3.950000e-01    2.310000e+00
   N2a  TX3h  1 3.950000e-01    2.310000e+00
   N1a  TX3h  1 3.950000e-01    2.310000e+00
   C6v  TX3h  1 3.950000e-01    2.500000e+00
   C5v  TX3h  1 3.950000e-01    2.310000e+00
   C4v  TX3h  1 3.950000e-01    2.310000e+00
   C3v  TX3h  1 3.950000e-01    2.310000e+00
   C2v  TX3h  1 3.950000e-01    2.310000e+00
   C1v  TX3h  1 3.950000e-01    2.310000e+00
   X4v  TX3h  1 3.950000e-01    2.500000e+00
   X3h  TX3v  1 3.950000e-01    2.500000e+00
   X3h  TX1v  1 3.950000e-01    2.700000e+00
   X3h  TX2v  1 3.950000e-01    2.700000e+00
   C6e  TX3h  1 3.950000e-01    2.500000e+00
   C5e  TX3h  1 3.950000e-01    2.310000e+00
   C4e  TX3h  1 3.950000e-01    2.310000e+00
   C3e  TX3h  1 3.950000e-01    2.310000e+00
   C2e  TX3h  1 3.950000e-01    2.310000e+00
   C1e  TX3h  1 3.950000e-01    2.310000e+00
   X4e  TX3h  1 3.950000e-01    2.500000e+00
   X3h  TX3e  1 3.950000e-01    2.500000e+00
   X3h  TX1e  1 3.950000e-01    2.700000e+00
   X3h  TX2e  1 3.950000e-01    2.700000e+00
   P6q  TX3h  1 3.950000e-01    2.310000e+00
   P5q  TX3h  1 3.950000e-01    2.310000e+00
   P4q  TX3h  1 3.950000e-01    2.310000e+00
   P3q  TX3h  1 3.950000e-01    2.500000e+00
   P2q  TX3h  1 3.950000e-01    2.500000e+00
   P1q  TX3h  1 3.950000e-01    2.500000e+00
   N6q  TX3h  1 3.950000e-01    2.500000e+00
   N5q  TX3h  1 3.950000e-01    2.700000e+00
   N4q  TX3h  1 3.950000e-01    2.940000e+00
   N3q  TX3h  1 3.950000e-01    2.700000e+00
   N2q  TX3h  1 3.950000e-01    2.700000e+00
   N1q  TX3h  1 3.950000e-01    2.700000e+00
   C6q  TX3h  1 3.950000e-01    2.700000e+00
   C5q  TX3h  1 3.950000e-01    2.500000e+00
   C4q  TX3h  1 3.950000e-01    2.500000e+00
   C3q  TX3h  1 3.950000e-01    2.500000e+00
   C2q  TX3h  1 3.950000e-01    2.500000e+00
   C1q  TX3h  1 3.950000e-01    2.500000e+00
   X4q  TX3h  1 3.950000e-01    2.700000e+00
   X3h  TX3q  1 3.950000e-01    2.700000e+00
   X3h TX1eq  1 3.950000e-01    3.190000e+00
   X3h TX2eq  1 3.950000e-01    3.190000e+00
   X3h TX3eq  1 3.950000e-01    2.940000e+00
  X4eq  TX3h  1 3.950000e-01    2.940000e+00
  C1eq  TX3h  1 3.950000e-01    2.700000e+00
  C2eq  TX3h  1 3.950000e-01    2.700000e+00
  C3eq  TX3h  1 3.950000e-01    2.700000e+00
  C4eq  TX3h  1 3.950000e-01    2.700000e+00
  C5eq  TX3h  1 3.950000e-01    2.700000e+00
  C6eq  TX3h  1 3.950000e-01    2.940000e+00
   X3h TX1vq  1 3.950000e-01    3.190000e+00
   X3h TX2vq  1 3.950000e-01    3.190000e+00
   X3h TX3vq  1 3.950000e-01    2.940000e+00
  X4vq  TX3h  1 3.950000e-01    2.940000e+00
  C1vq  TX3h  1 3.950000e-01    2.700000e+00
  C2vq  TX3h  1 3.950000e-01    2.700000e+00
  C3vq  TX3h  1 3.950000e-01    2.700000e+00
  C4vq  TX3h  1 3.950000e-01    2.700000e+00
  C5vq  TX3h  1 3.950000e-01    2.700000e+00
  C6vq  TX3h  1 3.950000e-01    2.940000e+00
  N1aq  TX3h  1 3.950000e-01    2.700000e+00
  N2aq  TX3h  1 3.950000e-01    2.700000e+00
  N3aq  TX3h  1 3.950000e-01    2.700000e+00
  N4aq  TX3h  1 3.950000e-01    2.940000e+00
  N5aq  TX3h  1 3.950000e-01    2.700000e+00
  N6aq  TX3h  1 3.950000e-01    2.500000e+00
  P1aq  TX3h  1 3.950000e-01    2.500000e+00
  P2aq  TX3h  1 3.950000e-01    2.500000e+00
  P3aq  TX3h  1 3.950000e-01    2.500000e+00
  P4aq  TX3h  1 3.950000e-01    2.310000e+00
  P5aq  TX3h  1 3.950000e-01    2.310000e+00
  P6aq  TX3h  1 3.950000e-01    2.310000e+00
  N1dq  TX3h  1 3.950000e-01    2.700000e+00
  N2dq  TX3h  1 3.950000e-01    2.700000e+00
  N3dq  TX3h  1 3.950000e-01    2.700000e+00
  N4dq  TX3h  1 3.950000e-01    2.940000e+00
  N5dq  TX3h  1 3.950000e-01    2.700000e+00
  N6dq  TX3h  1 3.950000e-01    2.500000e+00
  P1dq  TX3h  1 3.950000e-01    2.500000e+00
  P2dq  TX3h  1 3.950000e-01    2.500000e+00
  P3dq  TX3h  1 3.950000e-01    2.500000e+00
  P4dq  TX3h  1 3.950000e-01    2.310000e+00
  P5dq  TX3h  1 3.950000e-01    2.310000e+00
  P6dq  TX3h  1 3.950000e-01    2.310000e+00
   X3h  TX1q  1 3.950000e-01    2.940000e+00
   X3h  TX2q  1 3.950000e-01    2.940000e+00
   P6d  TX2h  1 3.950000e-01    1.670000e+00
   P5d  TX2h  1 3.950000e-01    1.850000e+00
   P4d  TX2h  1 3.950000e-01    1.850000e+00
   P3d  TX2h  1 3.950000e-01    1.850000e+00
   P2d  TX2h  1 3.950000e-01    1.850000e+00
   P1d  TX2h  1 3.950000e-01    1.850000e+00
   N6d  TX2h  1 3.950000e-01    1.850000e+00
   N5d  TX2h  1 3.950000e-01    2.110000e+00
   N4d  TX2h  1 3.950000e-01    2.110000e+00
   N3d  TX2h  1 3.950000e-01    2.110000e+00
   N2d  TX2h  1 3.950000e-01    2.110000e+00
   N1d  TX2h  1 3.950000e-01    2.110000e+00
   P6a  TX2h  1 3.950000e-01    1.670000e+00
   P5a  TX2h  1 3.950000e-01    1.850000e+00
   P4a  TX2h  1 3.950000e-01    1.850000e+00
   P3a  TX2h  1 3.950000e-01    1.850000e+00
   P2a  TX2h  1 3.950000e-01    1.850000e+00
   P1a  TX2h  1 3.950000e-01    1.850000e+00
   N6a  TX2h  1 3.950000e-01    1.850000e+00
   N5a  TX2h  1 3.950000e-01    2.110000e+00
   N4a  TX2h  1 3.950000e-01    2.110000e+00
   N3a  TX2h  1 3.950000e-01    2.110000e+00
   N2a  TX2h  1 3.950000e-01    2.110000e+00
   N1a  TX2h  1 3.950000e-01    2.110000e+00
   C6v  TX2h  1 3.950000e-01    2.500000e+00
   C5v  TX2h  1 3.950000e-01    2.310000e+00
   C4v  TX2h  1 3.950000e-01    2.310000e+00
   C3v  TX2h  1 3.950000e-01    2.310000e+00
   C2v  TX2h  1 3.950000e-01    2.310000e+00
   C1v  TX2h  1 3.950000e-01    2.310000e+00
   X4v  TX2h  1 3.950000e-01    2.500000e+00
   X3v  TX2h  1 3.950000e-01    2.700000e+00
   X2h  TX2v  1 3.950000e-01    2.700000e+00
   X2h  TX1v  1 3.950000e-01    2.700000e+00
   C6e  TX2h  1 3.950000e-01    2.500000e+00
   C5e  TX2h  1 3.950000e-01    2.310000e+00
   C4e  TX2h  1 3.950000e-01    2.310000e+00
   C3e  TX2h  1 3.950000e-01    2.310000e+00
   C2e  TX2h  1 3.950000e-01    2.310000e+00
   C1e  TX2h  1 3.950000e-01    2.310000e+00
   X4e  TX2h  1 3.950000e-01    2.500000e+00
   X3e  TX2h  1 3.950000e-01    2.700000e+00
   X2h  TX2e  1 3.950000e-01    2.700000e+00
   X2h  TX1e  1 3.950000e-01    2.700000e+00
   P6q  TX2h  1 3.950000e-01    2.110000e+00
   P5q  TX2h  1 3.950000e-01    2.310000e+00
   P4q  TX2h  1 3.950000e-01    2.310000e+00
   P3q  TX2h  1 3.950000e-01    2.310000e+00
   P2q  TX2h  1 3.950000e-01    2.310000e+00
   P1q  TX2h  1 3.950000e-01    2.310000e+00
   N6q  TX2h  1 3.950000e-01    2.310000e+00
   N5q  TX2h  1 3.950000e-01    2.500000e+00
   N4q  TX2h  1 3.950000e-01    2.500000e+00
   N3q  TX2h  1 3.950000e-01    2.500000e+00
   N2q  TX2h  1 3.950000e-01    2.500000e+00
   N1q  TX2h  1 3.950000e-01    2.500000e+00
   C6q  TX2h  1 3.950000e-01    2.700000e+00
   C5q  TX2h  1 3.950000e-01    2.500000e+00
   C4q  TX2h  1 3.950000e-01    2.500000e+00
   C3q  TX2h  1 3.950000e-01    2.500000e+00
   C2q  TX2h  1 3.950000e-01    2.500000e+00
   C1q  TX2h  1 3.950000e-01    2.500000e+00
   X4q  TX2h  1 3.950000e-01    2.700000e+00
   X3q  TX2h  1 3.950000e-01    2.940000e+00
   X2h  TX2q  1 3.950000e-01    2.940000e+00
   X2h TX1eq  1 3.950000e-01    3.190000e+00
   X2h TX2eq  1 3.950000e-01    3.190000e+00
  X3eq  TX2h  1 3.950000e-01    3.190000e+00
  X4eq  TX2h  1 3.950000e-01    2.940000e+00
  C1eq  TX2h  1 3.950000e-01    2.700000e+00
  C2eq  TX2h  1 3.950000e-01    2.700000e+00
  C3eq  TX2h  1 3.950000e-01    2.700000e+00
  C4eq  TX2h  1 3.950000e-01    2.700000e+00
  C5eq  TX2h  1 3.950000e-01    2.700000e+00
  C6eq  TX2h  1 3.950000e-01    2.940000e+00
   X2h TX1vq  1 3.950000e-01    3.190000e+00
   X2h TX2vq  1 3.950000e-01    3.190000e+00
  X3vq  TX2h  1 3.950000e-01    3.190000e+00
  X4vq  TX2h  1 3.950000e-01    2.940000e+00
  C1vq  TX2h  1 3.950000e-01    2.700000e+00
  C2vq  TX2h  1 3.950000e-01    2.700000e+00
  C3vq  TX2h  1 3.950000e-01    2.700000e+00
  C4vq  TX2h  1 3.950000e-01    2.700000e+00
  C5vq  TX2h  1 3.950000e-01    2.700000e+00
  C6vq  TX2h  1 3.950000e-01    2.940000e+00
  N1aq  TX2h  1 3.950000e-01    2.500000e+00
  N2aq  TX2h  1 3.950000e-01    2.500000e+00
  N3aq  TX2h  1 3.950000e-01    2.500000e+00
  N4aq  TX2h  1 3.950000e-01    2.500000e+00
  N5aq  TX2h  1 3.950000e-01    2.500000e+00
  N6aq  TX2h  1 3.950000e-01    2.310000e+00
  P1aq  TX2h  1 3.950000e-01    2.310000e+00
  P2aq  TX2h  1 3.950000e-01    2.310000e+00
  P3aq  TX2h  1 3.950000e-01    2.310000e+00
  P4aq  TX2h  1 3.950000e-01    2.310000e+00
  P5aq  TX2h  1 3.950000e-01    2.310000e+00
  P6aq  TX2h  1 3.950000e-01    2.110000e+00
  N1dq  TX2h  1 3.950000e-01    2.500000e+00
  N2dq  TX2h  1 3.950000e-01    2.500000e+00
  N3dq  TX2h  1 3.950000e-01    2.500000e+00
  N4dq  TX2h  1 3.950000e-01    2.500000e+00
  N5dq  TX2h  1 3.950000e-01    2.500000e+00
  N6dq  TX2h  1 3.950000e-01    2.310000e+00
  P1dq  TX2h  1 3.950000e-01    2.310000e+00
  P2dq  TX2h  1 3.950000e-01    2.310000e+00
  P3dq  TX2h  1 3.950000e-01    2.310000e+00
  P4dq  TX2h  1 3.950000e-01    2.310000e+00
  P5dq  TX2h  1 3.950000e-01    2.310000e+00
  P6dq  TX2h  1 3.950000e-01    2.110000e+00
   X2h  TX1q  1 3.950000e-01    2.940000e+00
   P6d  TX1h  1 3.980000e-01    1.450000e+00
   P5d  TX1h  1 3.980000e-01    1.450000e+00
   P4d  TX1h  1 3.950000e-01    1.670000e+00
   P3d  TX1h  1 3.950000e-01    1.670000e+00
   P2d  TX1h  1 3.950000e-01    1.670000e+00
   P1d  TX1h  1 3.950000e-01    1.670000e+00
   N6d  TX1h  1 3.950000e-01    1.670000e+00
   N5d  TX1h  1 3.950000e-01    1.850000e+00
   N4d  TX1h  1 3.950000e-01    1.850000e+00
   N3d  TX1h  1 3.950000e-01    2.110000e+00
   N2d  TX1h  1 3.950000e-01    2.110000e+00
   N1d  TX1h  1 3.950000e-01    2.110000e+00
   P6a  TX1h  1 3.980000e-01    1.450000e+00
   P5a  TX1h  1 3.980000e-01    1.450000e+00
   P4a  TX1h  1 3.950000e-01    1.670000e+00
   P3a  TX1h  1 3.950000e-01    1.670000e+00
   P2a  TX1h  1 3.950000e-01    1.670000e+00
   P1a  TX1h  1 3.950000e-01    1.670000e+00
   N6a  TX1h  1 3.950000e-01    1.670000e+00
   N5a  TX1h  1 3.950000e-01    1.850000e+00
   N4a  TX1h  1 3.950000e-01    1.850000e+00
   N3a  TX1h  1 3.950000e-01    2.110000e+00
   N2a  TX1h  1 3.950000e-01    2.110000e+00
   N1a  TX1h  1 3.950000e-01    2.110000e+00
   C6v  TX1h  1 3.950000e-01    2.500000e+00
   C5v  TX1h  1 3.950000e-01    2.500000e+00
   C4v  TX1h  1 3.950000e-01    2.500000e+00
   C3v  TX1h  1 3.950000e-01    2.500000e+00
   C2v  TX1h  1 3.950000e-01    2.310000e+00
   C1v  TX1h  1 3.950000e-01    2.310000e+00
   X4v  TX1h  1 3.950000e-01    2.500000e+00
   X3v  TX1h  1 3.950000e-01    2.700000e+00
   X2v  TX1h  1 3.950000e-01    2.700000e+00
   X1h  TX1v  1 3.950000e-01    2.940000e+00
   C6e  TX1h  1 3.950000e-01    2.500000e+00
   C5e  TX1h  1 3.950000e-01    2.500000e+00
   C4e  TX1h  1 3.950000e-01    2.500000e+00
   C3e  TX1h  1 3.950000e-01    2.500000e+00
   C2e  TX1h  1 3.950000e-01    2.310000e+00
   C1e  TX1h  1 3.950000e-01    2.310000e+00
   X4e  TX1h  1 3.950000e-01    2.500000e+00
   X3e  TX1h  1 3.950000e-01    2.700000e+00
   X2e  TX1h  1 3.950000e-01    2.700000e+00
   X1h  TX1e  1 3.950000e-01    2.940000e+00
   P6q  TX1h  1 3.950000e-01    1.850000e+00
   P5q  TX1h  1 3.950000e-01    1.850000e+00
   P4q  TX1h  1 3.950000e-01    2.110000e+00
   P3q  TX1h  1 3.950000e-01    2.110000e+00
   P2q  TX1h  1 3.950000e-01    2.110000e+00
   P1q  TX1h  1 3.950000e-01    2.110000e+00
   N6q  TX1h  1 3.950000e-01    2.110000e+00
   N5q  TX1h  1 3.950000e-01    2.310000e+00
   N4q  TX1h  1 3.950000e-01    2.310000e+00
   N3q  TX1h  1 3.950000e-01    2.500000e+00
   N2q  TX1h  1 3.950000e-01    2.500000e+00
   N1q  TX1h  1 3.950000e-01    2.500000e+00
   C6q  TX1h  1 3.950000e-01    2.700000e+00
   C5q  TX1h  1 3.950000e-01    2.700000e+00
   C4q  TX1h  1 3.950000e-01    2.700000e+00
   C3q  TX1h  1 3.950000e-01    2.700000e+00
   C2q  TX1h  1 3.950000e-01    2.500000e+00
   C1q  TX1h  1 3.950000e-01    2.500000e+00
   X4q  TX1h  1 3.950000e-01    2.700000e+00
   X3q  TX1h  1 3.950000e-01    2.940000e+00
   X2q  TX1h  1 3.950000e-01    2.940000e+00
   X1h  TX1q  1 3.950000e-01    3.190000e+00
   X1h TX1eq  1 3.950000e-01    3.430000e+00
  X2eq  TX1h  1 3.950000e-01    3.190000e+00
  X3eq  TX1h  1 3.950000e-01    3.190000e+00
  X4eq  TX1h  1 3.950000e-01    2.940000e+00
  C1eq  TX1h  1 3.950000e-01    2.700000e+00
  C2eq  TX1h  1 3.950000e-01    2.700000e+00
  C3eq  TX1h  1 3.950000e-01    2.940000e+00
  C4eq  TX1h  1 3.950000e-01    2.940000e+00
  C5eq  TX1h  1 3.950000e-01    2.940000e+00
  C6eq  TX1h  1 3.950000e-01    2.940000e+00
   X1h TX1vq  1 3.950000e-01    3.430000e+00
  X2vq  TX1h  1 3.950000e-01    3.190000e+00
  X3vq  TX1h  1 3.950000e-01    3.190000e+00
  X4vq  TX1h  1 3.950000e-01    2.940000e+00
  C1vq  TX1h  1 3.950000e-01    2.700000e+00
  C2vq  TX1h  1 3.950000e-01    2.700000e+00
  C3vq  TX1h  1 3.950000e-01    2.940000e+00
  C4vq  TX1h  1 3.950000e-01    2.940000e+00
  C5vq  TX1h  1 3.950000e-01    2.940000e+00
  C6vq  TX1h  1 3.950000e-01    2.940000e+00
  N1aq  TX1h  1 3.950000e-01    2.500000e+00
  N2aq  TX1h  1 3.950000e-01    2.500000e+00
  N3aq  TX1h  1 3.950000e-01    2.500000e+00
  N4aq  TX1h  1 3.950000e-01    2.310000e+00
  N5aq  TX1h  1 3.950000e-01    2.310000e+00
  N6aq  TX1h  1 3.950000e-01    2.110000e+00
  P1aq  TX1h  1 3.950000e-01    2.110000e+00
  P2aq  TX1h  1 3.950000e-01    2.110000e+00
  P3aq  TX1h  1 3.950000e-01    2.110000e+00
  P4aq  TX1h  1 3.950000e-01    2.110000e+00
  P5aq  TX1h  1 3.950000e-01    1.850000e+00
  P6aq  TX1h  1 3.950000e-01    1.850000e+00
  N1dq  TX1h  1 3.950000e-01    2.500000e+00
  N2dq  TX1h  1 3.950000e-01    2.500000e+00
  N3dq  TX1h  1 3.950000e-01    2.500000e+00
  N4dq  TX1h  1 3.950000e-01    2.310000e+00
  N5dq  TX1h  1 3.950000e-01    2.310000e+00
  N6dq  TX1h  1 3.950000e-01    2.110000e+00
  P1dq  TX1h  1 3.950000e-01    2.110000e+00
  P2dq  TX1h  1 3.950000e-01    2.110000e+00
  P3dq  TX1h  1 3.950000e-01    2.110000e+00
  P4dq  TX1h  1 3.950000e-01    2.110000e+00
  P5dq  TX1h  1 3.950000e-01    1.850000e+00
  P6dq  TX1h  1 3.950000e-01    1.850000e+00
   P6d TP6dh  1 3.950000e-01    3.910000e+00
  P6dh  TP5d  1 3.950000e-01    3.670000e+00
  P6dh  TP4d  1 3.950000e-01    3.430000e+00
  P6dh  TP3d  1 3.950000e-01    3.190000e+00
  P6dh  TP2d  1 3.950000e-01    3.190000e+00
  P6dh  TP1d  1 3.950000e-01    2.940000e+00
  P6dh  TN6d  1 3.950000e-01    2.700000e+00
  P6dh  TN5d  1 3.950000e-01    2.310000e+00
  P6dh  TN4d  1 3.950000e-01    2.110000e+00
  P6dh  TN3d  1 3.950000e-01    2.110000e+00
  P6dh  TN2d  1 3.950000e-01    1.850000e+00
  P6dh  TN1d  1 3.950000e-01    1.670000e+00
  P6dh  TP6a  1 3.950000e-01    4.540000e+00
  P6dh  TP5a  1 3.950000e-01    4.230000e+00
  P6dh  TP4a  1 3.950000e-01    3.910000e+00
  P6dh  TP3a  1 3.950000e-01    3.670000e+00
  P6dh  TP2a  1 3.950000e-01    3.670000e+00
  P6dh  TP1a  1 3.950000e-01    3.430000e+00
  P6dh  TN6a  1 3.950000e-01    3.190000e+00
  P6dh  TN5a  1 3.950000e-01    2.700000e+00
  P6dh  TN4a  1 3.950000e-01    2.500000e+00
  P6dh  TN3a  1 3.950000e-01    2.110000e+00
  P6dh  TN2a  1 3.950000e-01    1.850000e+00
  P6dh  TN1a  1 3.950000e-01    1.670000e+00
  P6dh  TC6e  1 3.950000e-01    1.850000e+00
  P6dh  TC5e  1 3.950000e-01    1.670000e+00
  P6dh  TC4e  1 3.980000e-01    1.450000e+00
  P6dh  TC3e  1 3.990000e-01    1.180000e+00
  P6dh  TC2e  1 3.990000e-01    1.180000e+00
  P6dh  TC1e  1 4.040000e-01    8.300000e-01
  P6dh  TX4e  1 3.950000e-01    2.110000e+00
  P6dh  TX3e  1 3.950000e-01    2.110000e+00
  P6dh  TX2e  1 3.950000e-01    1.850000e+00
  P6dh  TX1e  1 3.950000e-01    1.670000e+00
  P6dh  TC6v  1 3.980000e-01    1.450000e+00
  P6dh  TC5v  1 3.990000e-01    1.180000e+00
  P6dh  TC4v  1 4.010000e-01    9.830000e-01
  P6dh  TC3v  1 4.040000e-01    8.300000e-01
  P6dh  TC2v  1 4.040000e-01    8.300000e-01
  P6dh  TC1v  1 5.110000e-01    6.590000e-01
  P6dh  TX4v  1 3.950000e-01    1.670000e+00
  P6dh  TX3v  1 3.950000e-01    1.670000e+00
  P6dh  TX2v  1 3.980000e-01    1.450000e+00
  P6dh  TX1v  1 3.990000e-01    1.180000e+00
   P6q TP6dh  1 3.950000e-01    4.870000e+00
  P6dh  TP5q  1 3.950000e-01    4.540000e+00
  P6dh  TP4q  1 3.950000e-01    4.230000e+00
  P6dh  TP3q  1 3.950000e-01    3.910000e+00
  P6dh  TP2q  1 3.950000e-01    3.910000e+00
  P6dh  TP1q  1 3.950000e-01    3.670000e+00
  P6dh  TN6q  1 3.950000e-01    3.430000e+00
  P6dh  TN5q  1 3.950000e-01    2.940000e+00
  P6dh  TN4q  1 3.950000e-01    2.700000e+00
  P6dh  TN3q  1 3.950000e-01    2.500000e+00
  P6dh  TN2q  1 3.950000e-01    2.310000e+00
  P6dh  TN1q  1 3.950000e-01    2.110000e+00
  P6dh  TC6q  1 3.950000e-01    2.110000e+00
  P6dh  TC5q  1 3.950000e-01    1.850000e+00
  P6dh  TC4q  1 3.950000e-01    1.670000e+00
  P6dh  TC3q  1 3.980000e-01    1.450000e+00
  P6dh  TC2q  1 3.980000e-01    1.450000e+00
  P6dh  TC1q  1 4.010000e-01    9.830000e-01
  P6dh  TX4q  1 3.950000e-01    2.310000e+00
  P6dh  TX3q  1 3.950000e-01    2.310000e+00
  P6dh  TX2q  1 3.950000e-01    2.110000e+00
  P6dh  TX1q  1 3.950000e-01    1.850000e+00
  P6dh TP6dq  1 3.950000e-01    4.540000e+00
  P6dh TX1eq  1 3.950000e-01    2.110000e+00
  P6dh TX2eq  1 3.950000e-01    2.310000e+00
  P6dh TX3eq  1 3.950000e-01    2.500000e+00
  P6dh TX4eq  1 3.950000e-01    2.500000e+00
  P6dh TC1eq  1 3.990000e-01    1.180000e+00
  P6dh TC2eq  1 3.950000e-01    1.670000e+00
  P6dh TC3eq  1 3.950000e-01    1.670000e+00
  P6dh TC4eq  1 3.950000e-01    1.850000e+00
  P6dh TC5eq  1 3.950000e-01    2.110000e+00
  P6dh TC6eq  1 3.950000e-01    2.310000e+00
  P6dh TX1vq  1 3.950000e-01    1.670000e+00
  P6dh TX2vq  1 3.950000e-01    1.850000e+00
  P6dh TX3vq  1 3.950000e-01    2.110000e+00
  P6dh TX4vq  1 3.950000e-01    2.110000e+00
  P6dh TC1vq  1 4.040000e-01    8.300000e-01
  P6dh TC2vq  1 3.990000e-01    1.180000e+00
  P6dh TC3vq  1 3.990000e-01    1.180000e+00
  P6dh TC4vq  1 3.980000e-01    1.450000e+00
  P6dh TC5vq  1 3.950000e-01    1.670000e+00
  P6dh TC6vq  1 3.950000e-01    1.850000e+00
  P6dh TN1aq  1 3.950000e-01    2.110000e+00
  P6dh TN2aq  1 3.950000e-01    2.310000e+00
  P6dh TN3aq  1 3.950000e-01    2.500000e+00
  P6dh TN4aq  1 3.950000e-01    2.940000e+00
  P6dh TN5aq  1 3.950000e-01    3.190000e+00
  P6dh TN6aq  1 3.950000e-01    3.670000e+00
  P6dh TP1aq  1 3.950000e-01    3.910000e+00
  P6dh TP2aq  1 3.950000e-01    4.230000e+00
  P6dh TP3aq  1 3.950000e-01    4.230000e+00
  P6dh TP4aq  1 3.950000e-01    4.540000e+00
  P6dh TP5aq  1 3.950000e-01    4.870000e+00
  P6dh TP6aq  1 3.950000e-01    5.270000e+00
  P6dh TN1dq  1 3.950000e-01    2.110000e+00
  P6dh TN2dq  1 3.950000e-01    2.310000e+00
  P6dh TN3dq  1 3.950000e-01    2.500000e+00
  P6dh TN4dq  1 3.950000e-01    2.500000e+00
  P6dh TN5dq  1 3.950000e-01    2.700000e+00
  P6dh TN6dq  1 3.950000e-01    3.190000e+00
  P6dh TP1dq  1 3.950000e-01    3.430000e+00
  P6dh TP2dq  1 3.950000e-01    3.670000e+00
  P6dh TP3dq  1 3.950000e-01    3.670000e+00
  P6dh TP4dq  1 3.950000e-01    3.910000e+00
  P6dh TP5dq  1 3.950000e-01    4.230000e+00
   P5d TP5dh  1 3.950000e-01    3.430000e+00
  P5dh  TP4d  1 3.950000e-01    3.190000e+00
  P5dh  TP3d  1 3.950000e-01    2.940000e+00
  P5dh  TP2d  1 3.950000e-01    2.940000e+00
  P5dh  TP1d  1 3.950000e-01    2.700000e+00
  P5dh  TN6d  1 3.950000e-01    2.500000e+00
  P5dh  TN5d  1 3.950000e-01    2.310000e+00
  P5dh  TN4d  1 3.950000e-01    2.310000e+00
  P5dh  TN3d  1 3.950000e-01    2.110000e+00
  P5dh  TN2d  1 3.950000e-01    1.850000e+00
  P5dh  TN1d  1 3.950000e-01    1.670000e+00
   P6a TP5dh  1 3.950000e-01    4.230000e+00
  P5dh  TP5a  1 3.950000e-01    3.910000e+00
  P5dh  TP4a  1 3.950000e-01    3.670000e+00
  P5dh  TP3a  1 3.950000e-01    3.430000e+00
  P5dh  TP2a  1 3.950000e-01    3.430000e+00
  P5dh  TP1a  1 3.950000e-01    3.190000e+00
  P5dh  TN6a  1 3.950000e-01    2.940000e+00
  P5dh  TN5a  1 3.950000e-01    2.700000e+00
  P5dh  TN4a  1 3.950000e-01    2.700000e+00
  P5dh  TN3a  1 3.950000e-01    2.110000e+00
  P5dh  TN2a  1 3.950000e-01    1.850000e+00
  P5dh  TN1a  1 3.950000e-01    1.670000e+00
  P5dh  TC6e  1 3.950000e-01    1.850000e+00
  P5dh  TC5e  1 3.950000e-01    1.850000e+00
  P5dh  TC4e  1 3.950000e-01    1.670000e+00
  P5dh  TC3e  1 3.980000e-01    1.450000e+00
  P5dh  TC2e  1 3.980000e-01    1.450000e+00
  P5dh  TC1e  1 3.990000e-01    1.180000e+00
  P5dh  TX4e  1 3.950000e-01    2.310000e+00
  P5dh  TX3e  1 3.950000e-01    2.110000e+00
  P5dh  TX2e  1 3.950000e-01    2.110000e+00
  P5dh  TX1e  1 3.950000e-01    1.670000e+00
  P5dh  TC6v  1 3.980000e-01    1.450000e+00
  P5dh  TC5v  1 3.980000e-01    1.450000e+00
  P5dh  TC4v  1 3.990000e-01    1.180000e+00
  P5dh  TC3v  1 4.010000e-01    9.830000e-01
  P5dh  TC2v  1 4.010000e-01    9.830000e-01
  P5dh  TC1v  1 4.040000e-01    8.300000e-01
  P5dh  TX4v  1 3.950000e-01    1.850000e+00
  P5dh  TX3v  1 3.950000e-01    1.670000e+00
  P5dh  TX2v  1 3.950000e-01    1.670000e+00
  P5dh  TX1v  1 3.990000e-01    1.180000e+00
   P6q TP5dh  1 3.950000e-01    4.540000e+00
   P5q TP5dh  1 3.950000e-01    4.230000e+00
  P5dh  TP4q  1 3.950000e-01    3.910000e+00
  P5dh  TP3q  1 3.950000e-01    3.670000e+00
  P5dh  TP2q  1 3.950000e-01    3.670000e+00
  P5dh  TP1q  1 3.950000e-01    3.430000e+00
  P5dh  TN6q  1 3.950000e-01    3.190000e+00
  P5dh  TN5q  1 3.950000e-01    2.940000e+00
  P5dh  TN4q  1 3.950000e-01    2.940000e+00
  P5dh  TN3q  1 3.950000e-01    2.500000e+00
  P5dh  TN2q  1 3.950000e-01    2.310000e+00
  P5dh  TN1q  1 3.950000e-01    2.110000e+00
  P5dh  TC6q  1 3.950000e-01    2.110000e+00
  P5dh  TC5q  1 3.950000e-01    2.110000e+00
  P5dh  TC4q  1 3.950000e-01    1.850000e+00
  P5dh  TC3q  1 3.950000e-01    1.670000e+00
  P5dh  TC2q  1 3.950000e-01    1.670000e+00
  P5dh  TC1q  1 3.980000e-01    1.450000e+00
  P5dh  TX4q  1 3.950000e-01    2.500000e+00
  P5dh  TX3q  1 3.950000e-01    2.310000e+00
  P5dh  TX2q  1 3.950000e-01    2.310000e+00
  P5dh  TX1q  1 3.950000e-01    1.850000e+00
  P6dq TP5dh  1 3.950000e-01    4.230000e+00
  P5dh TP5dq  1 3.950000e-01    3.910000e+00
  P5dh TX1eq  1 3.950000e-01    2.110000e+00
  P5dh TX2eq  1 3.950000e-01    2.500000e+00
  P5dh TX3eq  1 3.950000e-01    2.500000e+00
  P5dh TX4eq  1 3.950000e-01    2.700000e+00
  P5dh TC1eq  1 3.950000e-01    1.670000e+00
  P5dh TC2eq  1 3.950000e-01    1.850000e+00
  P5dh TC3eq  1 3.950000e-01    1.850000e+00
  P5dh TC4eq  1 3.950000e-01    2.110000e+00
  P5dh TC5eq  1 3.950000e-01    2.310000e+00
  P5dh TC6eq  1 3.950000e-01    2.310000e+00
  P5dh TX1vq  1 3.950000e-01    1.670000e+00
  P5dh TX2vq  1 3.950000e-01    2.110000e+00
  P5dh TX3vq  1 3.950000e-01    2.110000e+00
  P5dh TX4vq  1 3.950000e-01    2.310000e+00
  P5dh TC1vq  1 3.990000e-01    1.180000e+00
  P5dh TC2vq  1 3.980000e-01    1.450000e+00
  P5dh TC3vq  1 3.980000e-01    1.450000e+00
  P5dh TC4vq  1 3.950000e-01    1.670000e+00
  P5dh TC5vq  1 3.950000e-01    1.850000e+00
  P5dh TC6vq  1 3.950000e-01    1.850000e+00
  P5dh TN1aq  1 3.950000e-01    2.110000e+00
  P5dh TN2aq  1 3.950000e-01    2.310000e+00
  P5dh TN3aq  1 3.950000e-01    2.500000e+00
  P5dh TN4aq  1 3.950000e-01    3.190000e+00
  P5dh TN5aq  1 3.950000e-01    3.190000e+00
  P5dh TN6aq  1 3.950000e-01    3.430000e+00
  P5dh TP1aq  1 3.950000e-01    3.670000e+00
  P5dh TP2aq  1 3.950000e-01    3.910000e+00
  P5dh TP3aq  1 3.950000e-01    3.910000e+00
  P5dh TP4aq  1 3.950000e-01    4.230000e+00
  P5dh TP5aq  1 3.950000e-01    4.540000e+00
  P6aq TP5dh  1 3.950000e-01    4.870000e+00
  P5dh TN1dq  1 3.950000e-01    2.110000e+00
  P5dh TN2dq  1 3.950000e-01    2.310000e+00
  P5dh TN3dq  1 3.950000e-01    2.500000e+00
  P5dh TN4dq  1 3.950000e-01    2.700000e+00
  P5dh TN5dq  1 3.950000e-01    2.700000e+00
  P5dh TN6dq  1 3.950000e-01    2.940000e+00
  P5dh TP1dq  1 3.950000e-01    3.190000e+00
  P5dh TP2dq  1 3.950000e-01    3.430000e+00
  P5dh TP3dq  1 3.950000e-01    3.430000e+00
  P5dh TP4dq  1 3.950000e-01    3.670000e+00
   P4d TP4dh  1 3.950000e-01    3.190000e+00
  P4dh  TP3d  1 3.950000e-01    2.940000e+00
  P4dh  TP2d  1 3.950000e-01    2.940000e+00
  P4dh  TP1d  1 3.950000e-01    2.700000e+00
  P4dh  TN6d  1 3.950000e-01    2.500000e+00
  P4dh  TN5d  1 3.950000e-01    2.310000e+00
  P4dh  TN4d  1 3.950000e-01    2.310000e+00
  P4dh  TN3d  1 3.950000e-01    2.110000e+00
  P4dh  TN2d  1 3.950000e-01    2.110000e+00
  P4dh  TN1d  1 3.950000e-01    1.850000e+00
   P6a TP4dh  1 3.950000e-01    3.910000e+00
   P5a TP4dh  1 3.950000e-01    3.670000e+00
  P4dh  TP4a  1 3.950000e-01    3.670000e+00
  P4dh  TP3a  1 3.950000e-01    3.430000e+00
  P4dh  TP2a  1 3.950000e-01    3.430000e+00
  P4dh  TP1a  1 3.950000e-01    3.190000e+00
  P4dh  TN6a  1 3.950000e-01    2.940000e+00
  P4dh  TN5a  1 3.950000e-01    2.700000e+00
  P4dh  TN4a  1 3.950000e-01    2.700000e+00
  P4dh  TN3a  1 3.950000e-01    2.500000e+00
  P4dh  TN2a  1 3.950000e-01    2.110000e+00
  P4dh  TN1a  1 3.950000e-01    1.850000e+00
  P4dh  TC6e  1 3.950000e-01    2.110000e+00
  P4dh  TC5e  1 3.950000e-01    1.850000e+00
  P4dh  TC4e  1 3.950000e-01    1.670000e+00
  P4dh  TC3e  1 3.980000e-01    1.450000e+00
  P4dh  TC2e  1 3.980000e-01    1.450000e+00
  P4dh  TC1e  1 3.990000e-01    1.180000e+00
  P4dh  TX4e  1 3.950000e-01    2.310000e+00
  P4dh  TX3e  1 3.950000e-01    2.110000e+00
  P4dh  TX2e  1 3.950000e-01    2.110000e+00
  P4dh  TX1e  1 3.950000e-01    1.850000e+00
  P4dh  TC6v  1 3.950000e-01    1.670000e+00
  P4dh  TC5v  1 3.980000e-01    1.450000e+00
  P4dh  TC4v  1 3.990000e-01    1.180000e+00
  P4dh  TC3v  1 4.010000e-01    9.830000e-01
  P4dh  TC2v  1 4.010000e-01    9.830000e-01
  P4dh  TC1v  1 4.040000e-01    8.300000e-01
  P4dh  TX4v  1 3.950000e-01    1.850000e+00
  P4dh  TX3v  1 3.950000e-01    1.670000e+00
  P4dh  TX2v  1 3.950000e-01    1.670000e+00
  P4dh  TX1v  1 3.980000e-01    1.450000e+00
   P6q TP4dh  1 3.950000e-01    4.230000e+00
   P5q TP4dh  1 3.950000e-01    3.910000e+00
   P4q TP4dh  1 3.950000e-01    3.910000e+00
  P4dh  TP3q  1 3.950000e-01    3.670000e+00
  P4dh  TP2q  1 3.950000e-01    3.670000e+00
  P4dh  TP1q  1 3.950000e-01    3.430000e+00
  P4dh  TN6q  1 3.950000e-01    3.190000e+00
  P4dh  TN5q  1 3.950000e-01    2.940000e+00
  P4dh  TN4q  1 3.950000e-01    2.940000e+00
  P4dh  TN3q  1 3.950000e-01    2.700000e+00
  P4dh  TN2q  1 3.950000e-01    2.500000e+00
  P4dh  TN1q  1 3.950000e-01    2.310000e+00
  P4dh  TC6q  1 3.950000e-01    2.310000e+00
  P4dh  TC5q  1 3.950000e-01    2.110000e+00
  P4dh  TC4q  1 3.950000e-01    1.850000e+00
  P4dh  TC3q  1 3.950000e-01    1.670000e+00
  P4dh  TC2q  1 3.950000e-01    1.670000e+00
  P4dh  TC1q  1 3.980000e-01    1.450000e+00
  P4dh  TX4q  1 3.950000e-01    2.500000e+00
  P4dh  TX3q  1 3.950000e-01    2.310000e+00
  P4dh  TX2q  1 3.950000e-01    2.310000e+00
  P4dh  TX1q  1 3.950000e-01    2.110000e+00
  P6dq TP4dh  1 3.950000e-01    3.910000e+00
  P5dq TP4dh  1 3.950000e-01    3.670000e+00
  P4dh TP4dq  1 3.950000e-01    3.670000e+00
  P4dh TX1eq  1 3.950000e-01    2.310000e+00
  P4dh TX2eq  1 3.950000e-01    2.500000e+00
  P4dh TX3eq  1 3.950000e-01    2.500000e+00
  P4dh TX4eq  1 3.950000e-01    2.700000e+00
  P4dh TC1eq  1 3.950000e-01    1.670000e+00
  P4dh TC2eq  1 3.950000e-01    1.850000e+00
  P4dh TC3eq  1 3.950000e-01    1.850000e+00
  P4dh TC4eq  1 3.950000e-01    2.110000e+00
  P4dh TC5eq  1 3.950000e-01    2.310000e+00
  P4dh TC6eq  1 3.950000e-01    2.500000e+00
  P4dh TX1vq  1 3.950000e-01    1.850000e+00
  P4dh TX2vq  1 3.950000e-01    2.110000e+00
  P4dh TX3vq  1 3.950000e-01    2.110000e+00
  P4dh TX4vq  1 3.950000e-01    2.310000e+00
  P4dh TC1vq  1 3.990000e-01    1.180000e+00
  P4dh TC2vq  1 3.980000e-01    1.450000e+00
  P4dh TC3vq  1 3.980000e-01    1.450000e+00
  P4dh TC4vq  1 3.950000e-01    1.670000e+00
  P4dh TC5vq  1 3.950000e-01    1.850000e+00
  P4dh TC6vq  1 3.950000e-01    2.110000e+00
  P4dh TN1aq  1 3.950000e-01    2.310000e+00
  P4dh TN2aq  1 3.950000e-01    2.500000e+00
  P4dh TN3aq  1 3.950000e-01    2.940000e+00
  P4dh TN4aq  1 3.950000e-01    3.190000e+00
  P4dh TN5aq  1 3.950000e-01    3.190000e+00
  P4dh TN6aq  1 3.950000e-01    3.430000e+00
  P4dh TP1aq  1 3.950000e-01    3.670000e+00
  P4dh TP2aq  1 3.950000e-01    3.910000e+00
  P4dh TP3aq  1 3.950000e-01    3.910000e+00
  P4dh TP4aq  1 3.950000e-01    4.230000e+00
  P5aq TP4dh  1 3.950000e-01    4.230000e+00
  P6aq TP4dh  1 3.950000e-01    4.540000e+00
  P4dh TN1dq  1 3.950000e-01    2.310000e+00
  P4dh TN2dq  1 3.950000e-01    2.500000e+00
  P4dh TN3dq  1 3.950000e-01    2.500000e+00
  P4dh TN4dq  1 3.950000e-01    2.700000e+00
  P4dh TN5dq  1 3.950000e-01    2.700000e+00
  P4dh TN6dq  1 3.950000e-01    2.940000e+00
  P4dh TP1dq  1 3.950000e-01    3.190000e+00
  P4dh TP2dq  1 3.950000e-01    3.430000e+00
  P4dh TP3dq  1 3.950000e-01    3.430000e+00
   P3d TP3dh  1 3.950000e-01    2.940000e+00
  P3dh  TP2d  1 3.950000e-01    2.940000e+00
  P3dh  TP1d  1 3.950000e-01    2.700000e+00
  P3dh  TN6d  1 3.950000e-01    2.500000e+00
  P3dh  TN5d  1 3.950000e-01    2.310000e+00
  P3dh  TN4d  1 3.950000e-01    2.310000e+00
  P3dh  TN3d  1 3.950000e-01    2.110000e+00
  P3dh  TN2d  1 3.950000e-01    2.110000e+00
  P3dh  TN1d  1 3.950000e-01    2.110000e+00
   P6a TP3dh  1 3.950000e-01    3.670000e+00
   P5a TP3dh  1 3.950000e-01    3.430000e+00
   P4a TP3dh  1 3.950000e-01    3.430000e+00
  P3dh  TP3a  1 3.950000e-01    3.430000e+00
  P3dh  TP2a  1 3.950000e-01    3.430000e+00
  P3dh  TP1a  1 3.950000e-01    3.190000e+00
  P3dh  TN6a  1 3.950000e-01    2.940000e+00
  P3dh  TN5a  1 3.950000e-01    2.700000e+00
  P3dh  TN4a  1 3.950000e-01    2.700000e+00
  P3dh  TN3a  1 3.950000e-01    2.500000e+00
  P3dh  TN2a  1 3.950000e-01    2.500000e+00
  P3dh  TN1a  1 3.950000e-01    2.110000e+00
  P3dh  TC6e  1 3.950000e-01    2.310000e+00
  P3dh  TC5e  1 3.950000e-01    2.110000e+00
  P3dh  TC4e  1 3.950000e-01    1.850000e+00
  P3dh  TC3e  1 3.980000e-01    1.450000e+00
  P3dh  TC2e  1 3.980000e-01    1.450000e+00
  P3dh  TC1e  1 3.990000e-01    1.180000e+00
  P3dh  TX4e  1 3.950000e-01    2.310000e+00
  P3dh  TX3e  1 3.950000e-01    2.310000e+00
  P3dh  TX2e  1 3.950000e-01    2.110000e+00
  P3dh  TX1e  1 3.950000e-01    1.850000e+00
  P3dh  TC6v  1 3.950000e-01    1.850000e+00
  P3dh  TC5v  1 3.950000e-01    1.670000e+00
  P3dh  TC4v  1 3.980000e-01    1.450000e+00
  P3dh  TC3v  1 4.010000e-01    9.830000e-01
  P3dh  TC2v  1 4.010000e-01    9.830000e-01
  P3dh  TC1v  1 4.040000e-01    8.300000e-01
  P3dh  TX4v  1 3.950000e-01    1.850000e+00
  P3dh  TX3v  1 3.950000e-01    1.850000e+00
  P3dh  TX2v  1 3.950000e-01    1.670000e+00
  P3dh  TX1v  1 3.980000e-01    1.450000e+00
   P6q TP3dh  1 3.950000e-01    3.910000e+00
   P5q TP3dh  1 3.950000e-01    3.670000e+00
   P4q TP3dh  1 3.950000e-01    3.670000e+00
   P3q TP3dh  1 3.950000e-01    3.670000e+00
  P3dh  TP2q  1 3.950000e-01    3.670000e+00
  P3dh  TP1q  1 3.950000e-01    3.430000e+00
  P3dh  TN6q  1 3.950000e-01    3.190000e+00
  P3dh  TN5q  1 3.950000e-01    2.940000e+00
  P3dh  TN4q  1 3.950000e-01    2.940000e+00
  P3dh  TN3q  1 3.950000e-01    2.700000e+00
  P3dh  TN2q  1 3.950000e-01    2.700000e+00
  P3dh  TN1q  1 3.950000e-01    2.500000e+00
  P3dh  TC6q  1 3.950000e-01    2.500000e+00
  P3dh  TC5q  1 3.950000e-01    2.310000e+00
  P3dh  TC4q  1 3.950000e-01    2.110000e+00
  P3dh  TC3q  1 3.950000e-01    1.670000e+00
  P3dh  TC2q  1 3.950000e-01    1.670000e+00
  P3dh  TC1q  1 3.980000e-01    1.450000e+00
  P3dh  TX4q  1 3.950000e-01    2.500000e+00
  P3dh  TX3q  1 3.950000e-01    2.500000e+00
  P3dh  TX2q  1 3.950000e-01    2.310000e+00
  P3dh  TX1q  1 3.950000e-01    2.110000e+00
  P6dq TP3dh  1 3.950000e-01    3.670000e+00
  P5dq TP3dh  1 3.950000e-01    3.430000e+00
  P4dq TP3dh  1 3.950000e-01    3.430000e+00
  P3dh TP3dq  1 3.950000e-01    3.430000e+00
  P3dh TX1eq  1 3.950000e-01    2.310000e+00
  P3dh TX2eq  1 3.950000e-01    2.500000e+00
  P3dh TX3eq  1 3.950000e-01    2.700000e+00
  P3dh TX4eq  1 3.950000e-01    2.700000e+00
  P3dh TC1eq  1 3.950000e-01    1.670000e+00
  P3dh TC2eq  1 3.950000e-01    1.850000e+00
  P3dh TC3eq  1 3.950000e-01    1.850000e+00
  P3dh TC4eq  1 3.950000e-01    2.310000e+00
  P3dh TC5eq  1 3.950000e-01    2.500000e+00
  P3dh TC6eq  1 3.950000e-01    2.700000e+00
  P3dh TX1vq  1 3.950000e-01    1.850000e+00
  P3dh TX2vq  1 3.950000e-01    2.110000e+00
  P3dh TX3vq  1 3.950000e-01    2.310000e+00
  P3dh TX4vq  1 3.950000e-01    2.310000e+00
  P3dh TC1vq  1 3.990000e-01    1.180000e+00
  P3dh TC2vq  1 3.980000e-01    1.450000e+00
  P3dh TC3vq  1 3.980000e-01    1.450000e+00
  P3dh TC4vq  1 3.950000e-01    1.850000e+00
  P3dh TC5vq  1 3.950000e-01    2.110000e+00
  P3dh TC6vq  1 3.950000e-01    2.310000e+00
  P3dh TN1aq  1 3.950000e-01    2.500000e+00
  P3dh TN2aq  1 3.950000e-01    2.940000e+00
  P3dh TN3aq  1 3.950000e-01    2.940000e+00
  P3dh TN4aq  1 3.950000e-01    3.190000e+00
  P3dh TN5aq  1 3.950000e-01    3.190000e+00
  P3dh TN6aq  1 3.950000e-01    3.430000e+00
  P3dh TP1aq  1 3.950000e-01    3.670000e+00
  P3dh TP2aq  1 3.950000e-01    3.910000e+00
  P3dh TP3aq  1 3.950000e-01    3.910000e+00
  P4aq TP3dh  1 3.950000e-01    3.910000e+00
  P5aq TP3dh  1 3.950000e-01    3.910000e+00
  P6aq TP3dh  1 3.950000e-01    4.230000e+00
  P3dh TN1dq  1 3.950000e-01    2.500000e+00
  P3dh TN2dq  1 3.950000e-01    2.500000e+00
  P3dh TN3dq  1 3.950000e-01    2.500000e+00
  P3dh TN4dq  1 3.950000e-01    2.700000e+00
  P3dh TN5dq  1 3.950000e-01    2.700000e+00
  P3dh TN6dq  1 3.950000e-01    2.940000e+00
  P3dh TP1dq  1 3.950000e-01    3.190000e+00
  P3dh TP2dq  1 3.950000e-01    3.430000e+00
   P2d TP2dh  1 3.950000e-01    2.940000e+00
  P2dh  TP1d  1 3.950000e-01    2.700000e+00
  P2dh  TN6d  1 3.950000e-01    2.700000e+00
  P2dh  TN5d  1 3.950000e-01    2.500000e+00
  P2dh  TN4d  1 3.950000e-01    2.310000e+00
  P2dh  TN3d  1 3.950000e-01    2.110000e+00
  P2dh  TN2d  1 3.950000e-01    2.110000e+00
  P2dh  TN1d  1 3.950000e-01    2.110000e+00
   P6a TP2dh  1 3.950000e-01    3.670000e+00
   P5a TP2dh  1 3.950000e-01    3.430000e+00
   P4a TP2dh  1 3.950000e-01    3.430000e+00
   P3a TP2dh  1 3.950000e-01    3.430000e+00
  P2dh  TP2a  1 3.950000e-01    3.430000e+00
  P2dh  TP1a  1 3.950000e-01    3.190000e+00
  P2dh  TN6a  1 3.950000e-01    3.190000e+00
  P2dh  TN5a  1 3.950000e-01    2.940000e+00
  P2dh  TN4a  1 3.950000e-01    2.700000e+00
  P2dh  TN3a  1 3.950000e-01    2.500000e+00
  P2dh  TN2a  1 3.950000e-01    2.500000e+00
  P2dh  TN1a  1 3.950000e-01    2.500000e+00
  P2dh  TC6e  1 3.950000e-01    2.310000e+00
  P2dh  TC5e  1 3.950000e-01    2.110000e+00
  P2dh  TC4e  1 3.950000e-01    1.850000e+00
  P2dh  TC3e  1 3.950000e-01    1.670000e+00
  P2dh  TC2e  1 3.950000e-01    1.670000e+00
  P2dh  TC1e  1 3.980000e-01    1.450000e+00
  P2dh  TX4e  1 3.950000e-01    2.310000e+00
  P2dh  TX3e  1 3.950000e-01    2.310000e+00
  P2dh  TX2e  1 3.950000e-01    2.110000e+00
  P2dh  TX1e  1 3.950000e-01    1.850000e+00
  P2dh  TC6v  1 3.950000e-01    1.850000e+00
  P2dh  TC5v  1 3.950000e-01    1.670000e+00
  P2dh  TC4v  1 3.980000e-01    1.450000e+00
  P2dh  TC3v  1 3.990000e-01    1.180000e+00
  P2dh  TC2v  1 3.990000e-01    1.180000e+00
  P2dh  TC1v  1 4.010000e-01    9.830000e-01
  P2dh  TX4v  1 3.950000e-01    1.850000e+00
  P2dh  TX3v  1 3.950000e-01    1.850000e+00
  P2dh  TX2v  1 3.950000e-01    1.670000e+00
  P2dh  TX1v  1 3.980000e-01    1.450000e+00
   P6q TP2dh  1 3.950000e-01    3.910000e+00
   P5q TP2dh  1 3.950000e-01    3.670000e+00
   P4q TP2dh  1 3.950000e-01    3.670000e+00
   P3q TP2dh  1 3.950000e-01    3.670000e+00
   P2q TP2dh  1 3.950000e-01    3.670000e+00
  P2dh  TP1q  1 3.950000e-01    3.430000e+00
  P2dh  TN6q  1 3.950000e-01    3.430000e+00
  P2dh  TN5q  1 3.950000e-01    3.190000e+00
  P2dh  TN4q  1 3.950000e-01    2.940000e+00
  P2dh  TN3q  1 3.950000e-01    2.700000e+00
  P2dh  TN2q  1 3.950000e-01    2.700000e+00
  P2dh  TN1q  1 3.950000e-01    2.700000e+00
  P2dh  TC6q  1 3.950000e-01    2.500000e+00
  P2dh  TC5q  1 3.950000e-01    2.310000e+00
  P2dh  TC4q  1 3.950000e-01    2.110000e+00
  P2dh  TC3q  1 3.950000e-01    1.850000e+00
  P2dh  TC2q  1 3.950000e-01    1.850000e+00
  P2dh  TC1q  1 3.950000e-01    1.670000e+00
  P2dh  TX4q  1 3.950000e-01    2.500000e+00
  P2dh  TX3q  1 3.950000e-01    2.500000e+00
  P2dh  TX2q  1 3.950000e-01    2.310000e+00
  P2dh  TX1q  1 3.950000e-01    2.110000e+00
  P6dq TP2dh  1 3.950000e-01    3.670000e+00
  P5dq TP2dh  1 3.950000e-01    3.430000e+00
  P4dq TP2dh  1 3.950000e-01    3.430000e+00
  P3dq TP2dh  1 3.950000e-01    3.430000e+00
  P2dh TP2dq  1 3.950000e-01    3.430000e+00
  P2dh TX1eq  1 3.950000e-01    2.310000e+00
  P2dh TX2eq  1 3.950000e-01    2.500000e+00
  P2dh TX3eq  1 3.950000e-01    2.700000e+00
  P2dh TX4eq  1 3.950000e-01    2.700000e+00
  P2dh TC1eq  1 3.950000e-01    1.850000e+00
  P2dh TC2eq  1 3.950000e-01    2.110000e+00
  P2dh TC3eq  1 3.950000e-01    2.110000e+00
  P2dh TC4eq  1 3.950000e-01    2.310000e+00
  P2dh TC5eq  1 3.950000e-01    2.500000e+00
  P2dh TC6eq  1 3.950000e-01    2.700000e+00
  P2dh TX1vq  1 3.950000e-01    1.850000e+00
  P2dh TX2vq  1 3.950000e-01    2.110000e+00
  P2dh TX3vq  1 3.950000e-01    2.310000e+00
  P2dh TX4vq  1 3.950000e-01    2.310000e+00
  P2dh TC1vq  1 3.980000e-01    1.450000e+00
  P2dh TC2vq  1 3.950000e-01    1.670000e+00
  P2dh TC3vq  1 3.950000e-01    1.670000e+00
  P2dh TC4vq  1 3.950000e-01    1.850000e+00
  P2dh TC5vq  1 3.950000e-01    2.110000e+00
  P2dh TC6vq  1 3.950000e-01    2.310000e+00
  P2dh TN1aq  1 3.950000e-01    2.940000e+00
  P2dh TN2aq  1 3.950000e-01    2.940000e+00
  P2dh TN3aq  1 3.950000e-01    2.940000e+00
  P2dh TN4aq  1 3.950000e-01    3.190000e+00
  P2dh TN5aq  1 3.950000e-01    3.430000e+00
  P2dh TN6aq  1 3.950000e-01    3.670000e+00
  P2dh TP1aq  1 3.950000e-01    3.670000e+00
  P2dh TP2aq  1 3.950000e-01    3.910000e+00
  P3aq TP2dh  1 3.950000e-01    3.910000e+00
  P4aq TP2dh  1 3.950000e-01    3.910000e+00
  P5aq TP2dh  1 3.950000e-01    3.910000e+00
  P6aq TP2dh  1 3.950000e-01    4.230000e+00
  P2dh TN1dq  1 3.950000e-01    2.500000e+00
  P2dh TN2dq  1 3.950000e-01    2.500000e+00
  P2dh TN3dq  1 3.950000e-01    2.500000e+00
  P2dh TN4dq  1 3.950000e-01    2.700000e+00
  P2dh TN5dq  1 3.950000e-01    2.940000e+00
  P2dh TN6dq  1 3.950000e-01    3.190000e+00
  P2dh TP1dq  1 3.950000e-01    3.190000e+00
   P1d TP1dh  1 3.950000e-01    2.700000e+00
  P1dh  TN6d  1 3.950000e-01    2.700000e+00
  P1dh  TN5d  1 3.950000e-01    2.500000e+00
  P1dh  TN4d  1 3.950000e-01    2.500000e+00
  P1dh  TN3d  1 3.950000e-01    2.110000e+00
  P1dh  TN2d  1 3.950000e-01    2.110000e+00
  P1dh  TN1d  1 3.950000e-01    2.110000e+00
   P6a TP1dh  1 3.950000e-01    3.430000e+00
   P5a TP1dh  1 3.950000e-01    3.190000e+00
   P4a TP1dh  1 3.950000e-01    3.190000e+00
   P3a TP1dh  1 3.950000e-01    3.190000e+00
   P2a TP1dh  1 3.950000e-01    3.190000e+00
  P1dh  TP1a  1 3.950000e-01    3.190000e+00
  P1dh  TN6a  1 3.950000e-01    3.190000e+00
  P1dh  TN5a  1 3.950000e-01    2.940000e+00
  P1dh  TN4a  1 3.950000e-01    2.940000e+00
  P1dh  TN3a  1 3.950000e-01    2.500000e+00
  P1dh  TN2a  1 3.950000e-01    2.500000e+00
  P1dh  TN1a  1 3.950000e-01    2.500000e+00
  P1dh  TC6e  1 3.950000e-01    2.310000e+00
  P1dh  TC5e  1 3.950000e-01    2.110000e+00
  P1dh  TC4e  1 3.950000e-01    1.850000e+00
  P1dh  TC3e  1 3.950000e-01    1.670000e+00
  P1dh  TC2e  1 3.950000e-01    1.670000e+00
  P1dh  TC1e  1 3.980000e-01    1.450000e+00
  P1dh  TX4e  1 3.950000e-01    2.310000e+00
  P1dh  TX3e  1 3.950000e-01    2.310000e+00
  P1dh  TX2e  1 3.950000e-01    2.110000e+00
  P1dh  TX1e  1 3.950000e-01    1.850000e+00
  P1dh  TC6v  1 3.950000e-01    1.850000e+00
  P1dh  TC5v  1 3.950000e-01    1.670000e+00
  P1dh  TC4v  1 3.980000e-01    1.450000e+00
  P1dh  TC3v  1 3.990000e-01    1.180000e+00
  P1dh  TC2v  1 3.990000e-01    1.180000e+00
  P1dh  TC1v  1 4.010000e-01    9.830000e-01
  P1dh  TX4v  1 3.950000e-01    1.850000e+00
  P1dh  TX3v  1 3.950000e-01    1.850000e+00
  P1dh  TX2v  1 3.950000e-01    1.670000e+00
  P1dh  TX1v  1 3.980000e-01    1.450000e+00
   P6q TP1dh  1 3.950000e-01    3.670000e+00
   P5q TP1dh  1 3.950000e-01    3.430000e+00
   P4q TP1dh  1 3.950000e-01    3.430000e+00
   P3q TP1dh  1 3.950000e-01    3.430000e+00
   P2q TP1dh  1 3.950000e-01    3.430000e+00
   P1q TP1dh  1 3.950000e-01    3.430000e+00
  P1dh  TN6q  1 3.950000e-01    3.430000e+00
  P1dh  TN5q  1 3.950000e-01    3.190000e+00
  P1dh  TN4q  1 3.950000e-01    3.190000e+00
  P1dh  TN3q  1 3.950000e-01    2.700000e+00
  P1dh  TN2q  1 3.950000e-01    2.700000e+00
  P1dh  TN1q  1 3.950000e-01    2.700000e+00
  P1dh  TC6q  1 3.950000e-01    2.500000e+00
  P1dh  TC5q  1 3.950000e-01    2.310000e+00
  P1dh  TC4q  1 3.950000e-01    2.110000e+00
  P1dh  TC3q  1 3.950000e-01    1.850000e+00
  P1dh  TC2q  1 3.950000e-01    1.850000e+00
  P1dh  TC1q  1 3.950000e-01    1.670000e+00
  P1dh  TX4q  1 3.950000e-01    2.500000e+00
  P1dh  TX3q  1 3.950000e-01    2.500000e+00
  P1dh  TX2q  1 3.950000e-01    2.310000e+00
  P1dh  TX1q  1 3.950000e-01    2.110000e+00
  P6dq TP1dh  1 3.950000e-01    3.430000e+00
  P5dq TP1dh  1 3.950000e-01    3.190000e+00
  P4dq TP1dh  1 3.950000e-01    3.190000e+00
  P3dq TP1dh  1 3.950000e-01    3.190000e+00
  P2dq TP1dh  1 3.950000e-01    3.190000e+00
  P1dh TP1dq  1 3.950000e-01    3.190000e+00
  P1dh TX1eq  1 3.950000e-01    2.310000e+00
  P1dh TX2eq  1 3.950000e-01    2.500000e+00
  P1dh TX3eq  1 3.950000e-01    2.700000e+00
  P1dh TX4eq  1 3.950000e-01    2.700000e+00
  P1dh TC1eq  1 3.950000e-01    1.850000e+00
  P1dh TC2eq  1 3.950000e-01    2.110000e+00
  P1dh TC3eq  1 3.950000e-01    2.110000e+00
  P1dh TC4eq  1 3.950000e-01    2.310000e+00
  P1dh TC5eq  1 3.950000e-01    2.500000e+00
  P1dh TC6eq  1 3.950000e-01    2.700000e+00
  P1dh TX1vq  1 3.950000e-01    1.850000e+00
  P1dh TX2vq  1 3.950000e-01    2.110000e+00
  P1dh TX3vq  1 3.950000e-01    2.310000e+00
  P1dh TX4vq  1 3.950000e-01    2.310000e+00
  P1dh TC1vq  1 3.980000e-01    1.450000e+00
  P1dh TC2vq  1 3.950000e-01    1.670000e+00
  P1dh TC3vq  1 3.950000e-01    1.670000e+00
  P1dh TC4vq  1 3.950000e-01    1.850000e+00
  P1dh TC5vq  1 3.950000e-01    2.110000e+00
  P1dh TC6vq  1 3.950000e-01    2.310000e+00
  P1dh TN1aq  1 3.950000e-01    2.940000e+00
  P1dh TN2aq  1 3.950000e-01    2.940000e+00
  P1dh TN3aq  1 3.950000e-01    2.940000e+00
  P1dh TN4aq  1 3.950000e-01    3.430000e+00
  P1dh TN5aq  1 3.950000e-01    3.430000e+00
  P1dh TN6aq  1 3.950000e-01    3.670000e+00
  P1dh TP1aq  1 3.950000e-01    3.670000e+00
  P2aq TP1dh  1 3.950000e-01    3.670000e+00
  P3aq TP1dh  1 3.950000e-01    3.670000e+00
  P4aq TP1dh  1 3.950000e-01    3.670000e+00
  P5aq TP1dh  1 3.950000e-01    3.670000e+00
  P6aq TP1dh  1 3.950000e-01    3.910000e+00
  P1dh TN1dq  1 3.950000e-01    2.500000e+00
  P1dh TN2dq  1 3.950000e-01    2.500000e+00
  P1dh TN3dq  1 3.950000e-01    2.500000e+00
  P1dh TN4dq  1 3.950000e-01    2.940000e+00
  P1dh TN5dq  1 3.950000e-01    2.940000e+00
  P1dh TN6dq  1 3.950000e-01    3.190000e+00
   N6d TN6dh  1 3.950000e-01    2.700000e+00
  N6dh  TN5d  1 3.950000e-01    2.700000e+00
  N6dh  TN4d  1 3.950000e-01    2.700000e+00
  N6dh  TN3d  1 3.950000e-01    2.310000e+00
  N6dh  TN2d  1 3.950000e-01    2.110000e+00
  N6dh  TN1d  1 3.950000e-01    2.110000e+00
   P6a TN6dh  1 3.950000e-01    3.190000e+00
   P5a TN6dh  1 3.950000e-01    2.940000e+00
   P4a TN6dh  1 3.950000e-01    2.940000e+00
   P3a TN6dh  1 3.950000e-01    2.940000e+00
   P2a TN6dh  1 3.950000e-01    3.190000e+00
   P1a TN6dh  1 3.950000e-01    3.190000e+00
  N6dh  TN6a  1 3.950000e-01    3.190000e+00
  N6dh  TN5a  1 3.950000e-01    3.190000e+00
  N6dh  TN4a  1 3.950000e-01    3.190000e+00
  N6dh  TN3a  1 3.950000e-01    2.700000e+00
  N6dh  TN2a  1 3.950000e-01    2.500000e+00
  N6dh  TN1a  1 3.950000e-01    2.500000e+00
  N6dh  TC6e  1 3.950000e-01    2.500000e+00
  N6dh  TC5e  1 3.950000e-01    2.310000e+00
  N6dh  TC4e  1 3.950000e-01    2.110000e+00
  N6dh  TC3e  1 3.950000e-01    1.850000e+00
  N6dh  TC2e  1 3.950000e-01    1.850000e+00
  N6dh  TC1e  1 3.950000e-01    1.670000e+00
  N6dh  TX4e  1 3.950000e-01    2.500000e+00
  N6dh  TX3e  1 3.950000e-01    2.310000e+00
  N6dh  TX2e  1 3.950000e-01    2.110000e+00
  N6dh  TX1e  1 3.950000e-01    1.850000e+00
  N6dh  TC6v  1 3.950000e-01    2.110000e+00
  N6dh  TC5v  1 3.950000e-01    1.850000e+00
  N6dh  TC4v  1 3.950000e-01    1.670000e+00
  N6dh  TC3v  1 3.980000e-01    1.450000e+00
  N6dh  TC2v  1 3.980000e-01    1.450000e+00
  N6dh  TC1v  1 3.990000e-01    1.180000e+00
  N6dh  TX4v  1 3.950000e-01    2.110000e+00
  N6dh  TX3v  1 3.950000e-01    1.850000e+00
  N6dh  TX2v  1 3.950000e-01    1.670000e+00
  N6dh  TX1v  1 3.980000e-01    1.450000e+00
   P6q TN6dh  1 3.950000e-01    3.430000e+00
   P5q TN6dh  1 3.950000e-01    3.190000e+00
   P4q TN6dh  1 3.950000e-01    3.190000e+00
   P3q TN6dh  1 3.950000e-01    3.190000e+00
   P2q TN6dh  1 3.950000e-01    3.430000e+00
   P1q TN6dh  1 3.950000e-01    3.430000e+00
   N6q TN6dh  1 3.950000e-01    3.430000e+00
  N6dh  TN5q  1 3.950000e-01    3.430000e+00
  N6dh  TN4q  1 3.950000e-01    3.430000e+00
  N6dh  TN3q  1 3.950000e-01    2.940000e+00
  N6dh  TN2q  1 3.950000e-01    2.700000e+00
  N6dh  TN1q  1 3.950000e-01    2.700000e+00
  N6dh  TC6q  1 3.950000e-01    2.700000e+00
  N6dh  TC5q  1 3.950000e-01    2.500000e+00
  N6dh  TC4q  1 3.950000e-01    2.310000e+00
  N6dh  TC3q  1 3.950000e-01    2.110000e+00
  N6dh  TC2q  1 3.950000e-01    2.110000e+00
  N6dh  TC1q  1 3.950000e-01    1.850000e+00
  N6dh  TX4q  1 3.950000e-01    2.700000e+00
  N6dh  TX3q  1 3.950000e-01    2.500000e+00
  N6dh  TX2q  1 3.950000e-01    2.310000e+00
  N6dh  TX1q  1 3.950000e-01    2.110000e+00
  P6dq TN6dh  1 3.950000e-01    3.190000e+00
  P5dq TN6dh  1 3.950000e-01    2.940000e+00
  P4dq TN6dh  1 3.950000e-01    2.940000e+00
  P3dq TN6dh  1 3.950000e-01    2.940000e+00
  P2dq TN6dh  1 3.950000e-01    3.190000e+00
  P1dq TN6dh  1 3.950000e-01    3.190000e+00
  N6dh TN6dq  1 3.950000e-01    3.190000e+00
  N6dh TX1eq  1 3.950000e-01    2.310000e+00
  N6dh TX2eq  1 3.950000e-01    2.500000e+00
  N6dh TX3eq  1 3.950000e-01    2.700000e+00
  N6dh TX4eq  1 3.950000e-01    2.940000e+00
  N6dh TC1eq  1 3.950000e-01    2.110000e+00
  N6dh TC2eq  1 3.950000e-01    2.310000e+00
  N6dh TC3eq  1 3.950000e-01    2.310000e+00
  N6dh TC4eq  1 3.950000e-01    2.500000e+00
  N6dh TC5eq  1 3.950000e-01    2.700000e+00
  N6dh TC6eq  1 3.950000e-01    2.940000e+00
  N6dh TX1vq  1 3.950000e-01    1.850000e+00
  N6dh TX2vq  1 3.950000e-01    2.110000e+00
  N6dh TX3vq  1 3.950000e-01    2.310000e+00
  N6dh TX4vq  1 3.950000e-01    2.500000e+00
  N6dh TC1vq  1 3.950000e-01    1.670000e+00
  N6dh TC2vq  1 3.950000e-01    1.850000e+00
  N6dh TC3vq  1 3.950000e-01    1.850000e+00
  N6dh TC4vq  1 3.950000e-01    2.110000e+00
  N6dh TC5vq  1 3.950000e-01    2.310000e+00
  N6dh TC6vq  1 3.950000e-01    2.500000e+00
  N6dh TN1aq  1 3.950000e-01    2.940000e+00
  N6dh TN2aq  1 3.950000e-01    2.940000e+00
  N6dh TN3aq  1 3.950000e-01    3.190000e+00
  N6dh TN4aq  1 3.950000e-01    3.670000e+00
  N6dh TN5aq  1 3.950000e-01    3.670000e+00
  N6dh TN6aq  1 3.950000e-01    3.670000e+00
  P1aq TN6dh  1 3.950000e-01    3.670000e+00
  P2aq TN6dh  1 3.950000e-01    3.670000e+00
  P3aq TN6dh  1 3.950000e-01    3.430000e+00
  P4aq TN6dh  1 3.950000e-01    3.430000e+00
  P5aq TN6dh  1 3.950000e-01    3.430000e+00
  P6aq TN6dh  1 3.950000e-01    3.670000e+00
  N6dh TN1dq  1 3.950000e-01    2.500000e+00
  N6dh TN2dq  1 3.950000e-01    2.500000e+00
  N6dh TN3dq  1 3.950000e-01    2.700000e+00
  N6dh TN4dq  1 3.950000e-01    3.190000e+00
  N6dh TN5dq  1 3.950000e-01    3.190000e+00
   N5d TN5dh  1 3.950000e-01    2.500000e+00
  N5dh  TN4d  1 3.950000e-01    2.500000e+00
  N5dh  TN3d  1 3.950000e-01    2.310000e+00
  N5dh  TN2d  1 3.950000e-01    2.310000e+00
  N5dh  TN1d  1 3.950000e-01    2.110000e+00
   P6a TN5dh  1 3.950000e-01    2.700000e+00
   P5a TN5dh  1 3.950000e-01    2.700000e+00
   P4a TN5dh  1 3.950000e-01    2.700000e+00
   P3a TN5dh  1 3.950000e-01    2.700000e+00
   P2a TN5dh  1 3.950000e-01    2.940000e+00
   P1a TN5dh  1 3.950000e-01    2.940000e+00
   N6a TN5dh  1 3.950000e-01    3.190000e+00
  N5dh  TN5a  1 3.950000e-01    2.940000e+00
  N5dh  TN4a  1 3.950000e-01    2.940000e+00
  N5dh  TN3a  1 3.950000e-01    2.700000e+00
  N5dh  TN2a  1 3.950000e-01    2.700000e+00
  N5dh  TN1a  1 3.950000e-01    2.500000e+00
  N5dh  TC6e  1 3.950000e-01    2.500000e+00
  N5dh  TC5e  1 3.950000e-01    2.310000e+00
  N5dh  TC4e  1 3.950000e-01    2.110000e+00
  N5dh  TC3e  1 3.950000e-01    2.110000e+00
  N5dh  TC2e  1 3.950000e-01    1.850000e+00
  N5dh  TC1e  1 3.950000e-01    1.670000e+00
  N5dh  TX4e  1 3.950000e-01    2.700000e+00
  N5dh  TX3e  1 3.950000e-01    2.500000e+00
  N5dh  TX2e  1 3.950000e-01    2.310000e+00
  N5dh  TX1e  1 3.950000e-01    2.110000e+00
  N5dh  TC6v  1 3.950000e-01    2.110000e+00
  N5dh  TC5v  1 3.950000e-01    1.850000e+00
  N5dh  TC4v  1 3.950000e-01    1.670000e+00
  N5dh  TC3v  1 3.950000e-01    1.670000e+00
  N5dh  TC2v  1 3.980000e-01    1.450000e+00
  N5dh  TC1v  1 3.990000e-01    1.180000e+00
  N5dh  TX4v  1 3.950000e-01    2.310000e+00
  N5dh  TX3v  1 3.950000e-01    2.110000e+00
  N5dh  TX2v  1 3.950000e-01    1.850000e+00
  N5dh  TX1v  1 3.950000e-01    1.670000e+00
   P6q TN5dh  1 3.950000e-01    2.940000e+00
   P5q TN5dh  1 3.950000e-01    2.940000e+00
   P4q TN5dh  1 3.950000e-01    2.940000e+00
   P3q TN5dh  1 3.950000e-01    2.940000e+00
   P2q TN5dh  1 3.950000e-01    3.190000e+00
   P1q TN5dh  1 3.950000e-01    3.190000e+00
   N6q TN5dh  1 3.950000e-01    3.430000e+00
   N5q TN5dh  1 3.950000e-01    3.190000e+00
  N5dh  TN4q  1 3.950000e-01    3.190000e+00
  N5dh  TN3q  1 3.950000e-01    2.940000e+00
  N5dh  TN2q  1 3.950000e-01    2.940000e+00
  N5dh  TN1q  1 3.950000e-01    2.700000e+00
  N5dh  TC6q  1 3.950000e-01    2.700000e+00
  N5dh  TC5q  1 3.950000e-01    2.500000e+00
  N5dh  TC4q  1 3.950000e-01    2.310000e+00
  N5dh  TC3q  1 3.950000e-01    2.310000e+00
  N5dh  TC2q  1 3.950000e-01    2.110000e+00
  N5dh  TC1q  1 3.950000e-01    1.850000e+00
  N5dh  TX4q  1 3.950000e-01    2.940000e+00
  N5dh  TX3q  1 3.950000e-01    2.700000e+00
  N5dh  TX2q  1 3.950000e-01    2.500000e+00
  N5dh  TX1q  1 3.950000e-01    2.310000e+00
  P6dq TN5dh  1 3.950000e-01    2.700000e+00
  P5dq TN5dh  1 3.950000e-01    2.700000e+00
  P4dq TN5dh  1 3.950000e-01    2.700000e+00
  P3dq TN5dh  1 3.950000e-01    2.700000e+00
  P2dq TN5dh  1 3.950000e-01    2.940000e+00
  P1dq TN5dh  1 3.950000e-01    2.940000e+00
  N6dq TN5dh  1 3.950000e-01    3.190000e+00
  N5dh TN5dq  1 3.950000e-01    2.940000e+00
  N5dh TX1eq  1 3.950000e-01    2.500000e+00
  N5dh TX2eq  1 3.950000e-01    2.700000e+00
  N5dh TX3eq  1 3.950000e-01    2.940000e+00
  N5dh TX4eq  1 3.950000e-01    3.190000e+00
  N5dh TC1eq  1 3.950000e-01    2.110000e+00
  N5dh TC2eq  1 3.950000e-01    2.310000e+00
  N5dh TC3eq  1 3.950000e-01    2.500000e+00
  N5dh TC4eq  1 3.950000e-01    2.500000e+00
  N5dh TC5eq  1 3.950000e-01    2.700000e+00
  N5dh TC6eq  1 3.950000e-01    2.940000e+00
  N5dh TX1vq  1 3.950000e-01    2.110000e+00
  N5dh TX2vq  1 3.950000e-01    2.310000e+00
  N5dh TX3vq  1 3.950000e-01    2.500000e+00
  N5dh TX4vq  1 3.950000e-01    2.700000e+00
  N5dh TC1vq  1 3.950000e-01    1.670000e+00
  N5dh TC2vq  1 3.950000e-01    1.850000e+00
  N5dh TC3vq  1 3.950000e-01    2.110000e+00
  N5dh TC4vq  1 3.950000e-01    2.110000e+00
  N5dh TC5vq  1 3.950000e-01    2.310000e+00
  N5dh TC6vq  1 3.950000e-01    2.500000e+00
  N5dh TN1aq  1 3.950000e-01    2.940000e+00
  N5dh TN2aq  1 3.950000e-01    3.190000e+00
  N5dh TN3aq  1 3.950000e-01    3.190000e+00
  N5dh TN4aq  1 3.950000e-01    3.430000e+00
  N5dh TN5aq  1 3.950000e-01    3.430000e+00
  N6aq TN5dh  1 3.950000e-01    3.670000e+00
  P1aq TN5dh  1 3.950000e-01    3.430000e+00
  P2aq TN5dh  1 3.950000e-01    3.430000e+00
  P3aq TN5dh  1 3.950000e-01    3.190000e+00
  P4aq TN5dh  1 3.950000e-01    3.190000e+00
  P5aq TN5dh  1 3.950000e-01    3.190000e+00
  P6aq TN5dh  1 3.950000e-01    3.190000e+00
  N5dh TN1dq  1 3.950000e-01    2.500000e+00
  N5dh TN2dq  1 3.950000e-01    2.700000e+00
  N5dh TN3dq  1 3.950000e-01    2.700000e+00
  N5dh TN4dq  1 3.950000e-01    2.940000e+00
   N4d TN4dh  1 3.950000e-01    2.500000e+00
  N4dh  TN3d  1 3.950000e-01    2.310000e+00
  N4dh  TN2d  1 3.950000e-01    2.310000e+00
  N4dh  TN1d  1 3.950000e-01    2.110000e+00
   P6a TN4dh  1 3.950000e-01    2.500000e+00
   P5a TN4dh  1 3.950000e-01    2.700000e+00
   P4a TN4dh  1 3.950000e-01    2.700000e+00
   P3a TN4dh  1 3.950000e-01    2.700000e+00
   P2a TN4dh  1 3.950000e-01    2.700000e+00
   P1a TN4dh  1 3.950000e-01    2.940000e+00
   N6a TN4dh  1 3.950000e-01    3.190000e+00
   N5a TN4dh  1 3.950000e-01    2.940000e+00
  N4dh  TN4a  1 3.950000e-01    2.940000e+00
  N4dh  TN3a  1 3.950000e-01    2.700000e+00
  N4dh  TN2a  1 3.950000e-01    2.700000e+00
  N4dh  TN1a  1 3.950000e-01    2.500000e+00
  N4dh  TC6e  1 3.950000e-01    2.500000e+00
  N4dh  TC5e  1 3.950000e-01    2.310000e+00
  N4dh  TC4e  1 3.950000e-01    2.310000e+00
  N4dh  TC3e  1 3.950000e-01    2.110000e+00
  N4dh  TC2e  1 3.950000e-01    1.850000e+00
  N4dh  TC1e  1 3.950000e-01    1.670000e+00
  N4dh  TX4e  1 3.950000e-01    2.940000e+00
  N4dh  TX3e  1 3.950000e-01    2.700000e+00
  N4dh  TX2e  1 3.950000e-01    2.310000e+00
  N4dh  TX1e  1 3.950000e-01    2.110000e+00
  N4dh  TC6v  1 3.950000e-01    2.110000e+00
  N4dh  TC5v  1 3.950000e-01    1.850000e+00
  N4dh  TC4v  1 3.950000e-01    1.850000e+00
  N4dh  TC3v  1 3.950000e-01    1.670000e+00
  N4dh  TC2v  1 3.980000e-01    1.450000e+00
  N4dh  TC1v  1 3.990000e-01    1.180000e+00
  N4dh  TX4v  1 3.950000e-01    2.500000e+00
  N4dh  TX3v  1 3.950000e-01    2.310000e+00
  N4dh  TX2v  1 3.950000e-01    1.850000e+00
  N4dh  TX1v  1 3.950000e-01    1.670000e+00
   P6q TN4dh  1 3.950000e-01    2.700000e+00
   P5q TN4dh  1 3.950000e-01    2.940000e+00
   P4q TN4dh  1 3.950000e-01    2.940000e+00
   P3q TN4dh  1 3.950000e-01    2.940000e+00
   P2q TN4dh  1 3.950000e-01    2.940000e+00
   P1q TN4dh  1 3.950000e-01    3.190000e+00
   N6q TN4dh  1 3.950000e-01    3.430000e+00
   N5q TN4dh  1 3.950000e-01    3.190000e+00
   N4q TN4dh  1 3.950000e-01    3.190000e+00
  N4dh  TN3q  1 3.950000e-01    2.940000e+00
  N4dh  TN2q  1 3.950000e-01    2.940000e+00
  N4dh  TN1q  1 3.950000e-01    2.700000e+00
  N4dh  TC6q  1 3.950000e-01    2.700000e+00
  N4dh  TC5q  1 3.950000e-01    2.500000e+00
  N4dh  TC4q  1 3.950000e-01    2.500000e+00
  N4dh  TC3q  1 3.950000e-01    2.310000e+00
  N4dh  TC2q  1 3.950000e-01    2.110000e+00
  N4dh  TC1q  1 3.950000e-01    1.850000e+00
  N4dh  TX4q  1 3.950000e-01    3.190000e+00
  N4dh  TX3q  1 3.950000e-01    2.940000e+00
  N4dh  TX2q  1 3.950000e-01    2.500000e+00
  N4dh  TX1q  1 3.950000e-01    2.310000e+00
  P6dq TN4dh  1 3.950000e-01    2.500000e+00
  P5dq TN4dh  1 3.950000e-01    2.700000e+00
  P4dq TN4dh  1 3.950000e-01    2.700000e+00
  P3dq TN4dh  1 3.950000e-01    2.700000e+00
  P2dq TN4dh  1 3.950000e-01    2.700000e+00
  P1dq TN4dh  1 3.950000e-01    2.940000e+00
  N6dq TN4dh  1 3.950000e-01    3.190000e+00
  N5dq TN4dh  1 3.950000e-01    2.940000e+00
  N4dh TN4dq  1 3.950000e-01    2.940000e+00
  N4dh TX1eq  1 3.950000e-01    2.500000e+00
  N4dh TX2eq  1 3.950000e-01    2.700000e+00
  N4dh TX3eq  1 3.950000e-01    3.190000e+00
  N4dh TX4eq  1 3.950000e-01    3.430000e+00
  N4dh TC1eq  1 3.950000e-01    2.110000e+00
  N4dh TC2eq  1 3.950000e-01    2.310000e+00
  N4dh TC3eq  1 3.950000e-01    2.500000e+00
  N4dh TC4eq  1 3.950000e-01    2.700000e+00
  N4dh TC5eq  1 3.950000e-01    2.700000e+00
  N4dh TC6eq  1 3.950000e-01    2.940000e+00
  N4dh TX1vq  1 3.950000e-01    2.110000e+00
  N4dh TX2vq  1 3.950000e-01    2.310000e+00
  N4dh TX3vq  1 3.950000e-01    2.700000e+00
  N4dh TX4vq  1 3.950000e-01    2.940000e+00
  N4dh TC1vq  1 3.950000e-01    1.670000e+00
  N4dh TC2vq  1 3.950000e-01    1.850000e+00
  N4dh TC3vq  1 3.950000e-01    2.110000e+00
  N4dh TC4vq  1 3.950000e-01    2.310000e+00
  N4dh TC5vq  1 3.950000e-01    2.310000e+00
  N4dh TC6vq  1 3.950000e-01    2.500000e+00
  N4dh TN1aq  1 3.950000e-01    2.940000e+00
  N4dh TN2aq  1 3.950000e-01    3.190000e+00
  N4dh TN3aq  1 3.950000e-01    3.190000e+00
  N4dh TN4aq  1 3.950000e-01    3.430000e+00
  N5aq TN4dh  1 3.950000e-01    3.430000e+00
  N6aq TN4dh  1 3.950000e-01    3.670000e+00
  P1aq TN4dh  1 3.950000e-01    3.430000e+00
  P2aq TN4dh  1 3.950000e-01    3.190000e+00
  P3aq TN4dh  1 3.950000e-01    3.190000e+00
  P4aq TN4dh  1 3.950000e-01    3.190000e+00
  P5aq TN4dh  1 3.950000e-01    3.190000e+00
  P6aq TN4dh  1 3.950000e-01    2.940000e+00
  N4dh TN1dq  1 3.950000e-01    2.500000e+00
  N4dh TN2dq  1 3.950000e-01    2.700000e+00
  N4dh TN3dq  1 3.950000e-01    2.700000e+00
   N3d TN3dh  1 3.950000e-01    2.310000e+00
  N3dh  TN2d  1 3.950000e-01    2.310000e+00
  N3dh  TN1d  1 3.950000e-01    2.110000e+00
   P6a TN3dh  1 3.950000e-01    2.110000e+00
   P5a TN3dh  1 3.950000e-01    2.110000e+00
   P4a TN3dh  1 3.950000e-01    2.500000e+00
   P3a TN3dh  1 3.950000e-01    2.500000e+00
   P2a TN3dh  1 3.950000e-01    2.500000e+00
   P1a TN3dh  1 3.950000e-01    2.500000e+00
   N6a TN3dh  1 3.950000e-01    2.700000e+00
   N5a TN3dh  1 3.950000e-01    2.700000e+00
   N4a TN3dh  1 3.950000e-01    2.700000e+00
  N3dh  TN3a  1 3.950000e-01    2.700000e+00
  N3dh  TN2a  1 3.950000e-01    2.700000e+00
  N3dh  TN1a  1 3.950000e-01    2.500000e+00
  N3dh  TC6e  1 3.950000e-01    2.500000e+00
  N3dh  TC5e  1 3.950000e-01    2.310000e+00
  N3dh  TC4e  1 3.950000e-01    2.310000e+00
  N3dh  TC3e  1 3.950000e-01    2.110000e+00
  N3dh  TC2e  1 3.950000e-01    2.110000e+00
  N3dh  TC1e  1 3.950000e-01    1.850000e+00
  N3dh  TX4e  1 3.950000e-01    2.700000e+00
  N3dh  TX3e  1 3.950000e-01    2.500000e+00
  N3dh  TX2e  1 3.950000e-01    2.310000e+00
  N3dh  TX1e  1 3.950000e-01    2.310000e+00
  N3dh  TC6v  1 3.950000e-01    2.110000e+00
  N3dh  TC5v  1 3.950000e-01    1.850000e+00
  N3dh  TC4v  1 3.950000e-01    1.850000e+00
  N3dh  TC3v  1 3.950000e-01    1.670000e+00
  N3dh  TC2v  1 3.950000e-01    1.670000e+00
  N3dh  TC1v  1 3.980000e-01    1.450000e+00
  N3dh  TX4v  1 3.950000e-01    2.310000e+00
  N3dh  TX3v  1 3.950000e-01    2.110000e+00
  N3dh  TX2v  1 3.950000e-01    1.850000e+00
  N3dh  TX1v  1 3.950000e-01    1.850000e+00
   P6q TN3dh  1 3.950000e-01    2.500000e+00
   P5q TN3dh  1 3.950000e-01    2.500000e+00
   P4q TN3dh  1 3.950000e-01    2.700000e+00
   P3q TN3dh  1 3.950000e-01    2.700000e+00
   P2q TN3dh  1 3.950000e-01    2.700000e+00
   P1q TN3dh  1 3.950000e-01    2.700000e+00
   N6q TN3dh  1 3.950000e-01    2.940000e+00
   N5q TN3dh  1 3.950000e-01    2.940000e+00
   N4q TN3dh  1 3.950000e-01    2.940000e+00
   N3q TN3dh  1 3.950000e-01    2.940000e+00
  N3dh  TN2q  1 3.950000e-01    2.940000e+00
  N3dh  TN1q  1 3.950000e-01    2.700000e+00
  N3dh  TC6q  1 3.950000e-01    2.700000e+00
  N3dh  TC5q  1 3.950000e-01    2.500000e+00
  N3dh  TC4q  1 3.950000e-01    2.500000e+00
  N3dh  TC3q  1 3.950000e-01    2.310000e+00
  N3dh  TC2q  1 3.950000e-01    2.310000e+00
  N3dh  TC1q  1 3.950000e-01    2.110000e+00
  N3dh  TX4q  1 3.950000e-01    2.940000e+00
  N3dh  TX3q  1 3.950000e-01    2.700000e+00
  N3dh  TX2q  1 3.950000e-01    2.500000e+00
  N3dh  TX1q  1 3.950000e-01    2.500000e+00
  P6dq TN3dh  1 3.950000e-01    2.500000e+00
  P5dq TN3dh  1 3.950000e-01    2.500000e+00
  P4dq TN3dh  1 3.950000e-01    2.500000e+00
  P3dq TN3dh  1 3.950000e-01    2.500000e+00
  P2dq TN3dh  1 3.950000e-01    2.500000e+00
  P1dq TN3dh  1 3.950000e-01    2.500000e+00
  N6dq TN3dh  1 3.950000e-01    2.700000e+00
  N5dq TN3dh  1 3.950000e-01    2.700000e+00
  N4dq TN3dh  1 3.950000e-01    2.700000e+00
  N3dh TN3dq  1 3.950000e-01    2.700000e+00
  N3dh TX1eq  1 3.950000e-01    2.700000e+00
  N3dh TX2eq  1 3.950000e-01    2.700000e+00
  N3dh TX3eq  1 3.950000e-01    2.940000e+00
  N3dh TX4eq  1 3.950000e-01    3.190000e+00
  N3dh TC1eq  1 3.950000e-01    2.310000e+00
  N3dh TC2eq  1 3.950000e-01    2.500000e+00
  N3dh TC3eq  1 3.950000e-01    2.500000e+00
  N3dh TC4eq  1 3.950000e-01    2.700000e+00
  N3dh TC5eq  1 3.950000e-01    2.700000e+00
  N3dh TC6eq  1 3.950000e-01    2.940000e+00
  N3dh TX1vq  1 3.950000e-01    2.310000e+00
  N3dh TX2vq  1 3.950000e-01    2.310000e+00
  N3dh TX3vq  1 3.950000e-01    2.500000e+00
  N3dh TX4vq  1 3.950000e-01    2.700000e+00
  N3dh TC1vq  1 3.950000e-01    1.850000e+00
  N3dh TC2vq  1 3.950000e-01    2.110000e+00
  N3dh TC3vq  1 3.950000e-01    2.110000e+00
  N3dh TC4vq  1 3.950000e-01    2.310000e+00
  N3dh TC5vq  1 3.950000e-01    2.310000e+00
  N3dh TC6vq  1 3.950000e-01    2.500000e+00
  N3dh TN1aq  1 3.950000e-01    2.940000e+00
  N3dh TN2aq  1 3.950000e-01    3.190000e+00
  N3dh TN3aq  1 3.950000e-01    3.190000e+00
  N4aq TN3dh  1 3.950000e-01    3.190000e+00
  N5aq TN3dh  1 3.950000e-01    3.190000e+00
  N6aq TN3dh  1 3.950000e-01    3.190000e+00
  P1aq TN3dh  1 3.950000e-01    2.940000e+00
  P2aq TN3dh  1 3.950000e-01    2.940000e+00
  P3aq TN3dh  1 3.950000e-01    2.940000e+00
  P4aq TN3dh  1 3.950000e-01    2.940000e+00
  P5aq TN3dh  1 3.950000e-01    2.500000e+00
  P6aq TN3dh  1 3.950000e-01    2.500000e+00
  N3dh TN1dq  1 3.950000e-01    2.500000e+00
  N3dh TN2dq  1 3.950000e-01    2.700000e+00
   N2d TN2dh  1 3.950000e-01    2.310000e+00
  N2dh  TN1d  1 3.950000e-01    2.110000e+00
   P6a TN2dh  1 3.950000e-01    1.850000e+00
   P5a TN2dh  1 3.950000e-01    1.850000e+00
   P4a TN2dh  1 3.950000e-01    2.110000e+00
   P3a TN2dh  1 3.950000e-01    2.500000e+00
   P2a TN2dh  1 3.950000e-01    2.500000e+00
   P1a TN2dh  1 3.950000e-01    2.500000e+00
   N6a TN2dh  1 3.950000e-01    2.500000e+00
   N5a TN2dh  1 3.950000e-01    2.700000e+00
   N4a TN2dh  1 3.950000e-01    2.700000e+00
   N3a TN2dh  1 3.950000e-01    2.700000e+00
  N2dh  TN2a  1 3.950000e-01    2.700000e+00
  N2dh  TN1a  1 3.950000e-01    2.500000e+00
  N2dh  TC6e  1 3.950000e-01    2.500000e+00
  N2dh  TC5e  1 3.950000e-01    2.310000e+00
  N2dh  TC4e  1 3.950000e-01    2.310000e+00
  N2dh  TC3e  1 3.950000e-01    2.310000e+00
  N2dh  TC2e  1 3.950000e-01    2.110000e+00
  N2dh  TC1e  1 3.950000e-01    1.850000e+00
  N2dh  TX4e  1 3.950000e-01    2.700000e+00
  N2dh  TX3e  1 3.950000e-01    2.500000e+00
  N2dh  TX2e  1 3.950000e-01    2.310000e+00
  N2dh  TX1e  1 3.950000e-01    2.310000e+00
  N2dh  TC6v  1 3.950000e-01    2.110000e+00
  N2dh  TC5v  1 3.950000e-01    1.850000e+00
  N2dh  TC4v  1 3.950000e-01    1.850000e+00
  N2dh  TC3v  1 3.950000e-01    1.850000e+00
  N2dh  TC2v  1 3.950000e-01    1.670000e+00
  N2dh  TC1v  1 3.980000e-01    1.450000e+00
  N2dh  TX4v  1 3.950000e-01    2.310000e+00
  N2dh  TX3v  1 3.950000e-01    2.110000e+00
  N2dh  TX2v  1 3.950000e-01    1.850000e+00
  N2dh  TX1v  1 3.950000e-01    1.850000e+00
   P6q TN2dh  1 3.950000e-01    2.310000e+00
   P5q TN2dh  1 3.950000e-01    2.310000e+00
   P4q TN2dh  1 3.950000e-01    2.500000e+00
   P3q TN2dh  1 3.950000e-01    2.700000e+00
   P2q TN2dh  1 3.950000e-01    2.700000e+00
   P1q TN2dh  1 3.950000e-01    2.700000e+00
   N6q TN2dh  1 3.950000e-01    2.700000e+00
   N5q TN2dh  1 3.950000e-01    2.940000e+00
   N4q TN2dh  1 3.950000e-01    2.940000e+00
   N3q TN2dh  1 3.950000e-01    2.940000e+00
   N2q TN2dh  1 3.950000e-01    2.940000e+00
  N2dh  TN1q  1 3.950000e-01    2.700000e+00
  N2dh  TC6q  1 3.950000e-01    2.700000e+00
  N2dh  TC5q  1 3.950000e-01    2.500000e+00
  N2dh  TC4q  1 3.950000e-01    2.500000e+00
  N2dh  TC3q  1 3.950000e-01    2.500000e+00
  N2dh  TC2q  1 3.950000e-01    2.310000e+00
  N2dh  TC1q  1 3.950000e-01    2.110000e+00
  N2dh  TX4q  1 3.950000e-01    2.940000e+00
  N2dh  TX3q  1 3.950000e-01    2.700000e+00
  N2dh  TX2q  1 3.950000e-01    2.500000e+00
  N2dh  TX1q  1 3.950000e-01    2.500000e+00
  P6dq TN2dh  1 3.950000e-01    2.310000e+00
  P5dq TN2dh  1 3.950000e-01    2.310000e+00
  P4dq TN2dh  1 3.950000e-01    2.500000e+00
  P3dq TN2dh  1 3.950000e-01    2.500000e+00
  P2dq TN2dh  1 3.950000e-01    2.500000e+00
  P1dq TN2dh  1 3.950000e-01    2.500000e+00
  N6dq TN2dh  1 3.950000e-01    2.500000e+00
  N5dq TN2dh  1 3.950000e-01    2.700000e+00
  N4dq TN2dh  1 3.950000e-01    2.700000e+00
  N3dq TN2dh  1 3.950000e-01    2.700000e+00
  N2dh TN2dq  1 3.950000e-01    2.700000e+00
  N2dh TX1eq  1 3.950000e-01    2.700000e+00
  N2dh TX2eq  1 3.950000e-01    2.700000e+00
  N2dh TX3eq  1 3.950000e-01    2.940000e+00
  N2dh TX4eq  1 3.950000e-01    3.190000e+00
  N2dh TC1eq  1 3.950000e-01    2.310000e+00
  N2dh TC2eq  1 3.950000e-01    2.500000e+00
  N2dh TC3eq  1 3.950000e-01    2.700000e+00
  N2dh TC4eq  1 3.950000e-01    2.700000e+00
  N2dh TC5eq  1 3.950000e-01    2.700000e+00
  N2dh TC6eq  1 3.950000e-01    2.940000e+00
  N2dh TX1vq  1 3.950000e-01    2.310000e+00
  N2dh TX2vq  1 3.950000e-01    2.310000e+00
  N2dh TX3vq  1 3.950000e-01    2.500000e+00
  N2dh TX4vq  1 3.950000e-01    2.700000e+00
  N2dh TC1vq  1 3.950000e-01    1.850000e+00
  N2dh TC2vq  1 3.950000e-01    2.110000e+00
  N2dh TC3vq  1 3.950000e-01    2.310000e+00
  N2dh TC4vq  1 3.950000e-01    2.310000e+00
  N2dh TC5vq  1 3.950000e-01    2.310000e+00
  N2dh TC6vq  1 3.950000e-01    2.500000e+00
  N2dh TN1aq  1 3.950000e-01    2.940000e+00
  N2dh TN2aq  1 3.950000e-01    3.190000e+00
  N3aq TN2dh  1 3.950000e-01    3.190000e+00
  N4aq TN2dh  1 3.950000e-01    3.190000e+00
  N5aq TN2dh  1 3.950000e-01    3.190000e+00
  N6aq TN2dh  1 3.950000e-01    2.940000e+00
  P1aq TN2dh  1 3.950000e-01    2.940000e+00
  P2aq TN2dh  1 3.950000e-01    2.940000e+00
  P3aq TN2dh  1 3.950000e-01    2.940000e+00
  P4aq TN2dh  1 3.950000e-01    2.500000e+00
  P5aq TN2dh  1 3.950000e-01    2.310000e+00
  P6aq TN2dh  1 3.950000e-01    2.310000e+00
  N2dh TN1dq  1 3.950000e-01    2.500000e+00
   N1d TN1dh  1 3.950000e-01    2.310000e+00
   P6a TN1dh  1 3.950000e-01    1.670000e+00
   P5a TN1dh  1 3.950000e-01    1.670000e+00
   P4a TN1dh  1 3.950000e-01    1.850000e+00
   P3a TN1dh  1 3.950000e-01    2.110000e+00
   P2a TN1dh  1 3.950000e-01    2.500000e+00
   P1a TN1dh  1 3.950000e-01    2.500000e+00
   N6a TN1dh  1 3.950000e-01    2.500000e+00
   N5a TN1dh  1 3.950000e-01    2.500000e+00
   N4a TN1dh  1 3.950000e-01    2.500000e+00
   N3a TN1dh  1 3.950000e-01    2.500000e+00
   N2a TN1dh  1 3.950000e-01    2.500000e+00
  N1dh  TN1a  1 3.950000e-01    2.700000e+00
  N1dh  TC6e  1 3.950000e-01    2.700000e+00
  N1dh  TC5e  1 3.950000e-01    2.500000e+00
  N1dh  TC4e  1 3.950000e-01    2.500000e+00
  N1dh  TC3e  1 3.950000e-01    2.310000e+00
  N1dh  TC2e  1 3.950000e-01    2.110000e+00
  N1dh  TC1e  1 3.950000e-01    1.850000e+00
  N1dh  TX4e  1 3.950000e-01    2.500000e+00
  N1dh  TX3e  1 3.950000e-01    2.500000e+00
  N1dh  TX2e  1 3.950000e-01    2.310000e+00
  N1dh  TX1e  1 3.950000e-01    2.310000e+00
  N1dh  TC6v  1 3.950000e-01    2.310000e+00
  N1dh  TC5v  1 3.950000e-01    2.110000e+00
  N1dh  TC4v  1 3.950000e-01    2.110000e+00
  N1dh  TC3v  1 3.950000e-01    1.850000e+00
  N1dh  TC2v  1 3.950000e-01    1.670000e+00
  N1dh  TC1v  1 3.980000e-01    1.450000e+00
  N1dh  TX4v  1 3.950000e-01    2.110000e+00
  N1dh  TX3v  1 3.950000e-01    2.110000e+00
  N1dh  TX2v  1 3.950000e-01    1.850000e+00
  N1dh  TX1v  1 3.950000e-01    1.850000e+00
   P6q TN1dh  1 3.950000e-01    2.110000e+00
   P5q TN1dh  1 3.950000e-01    2.110000e+00
   P4q TN1dh  1 3.950000e-01    2.310000e+00
   P3q TN1dh  1 3.950000e-01    2.500000e+00
   P2q TN1dh  1 3.950000e-01    2.700000e+00
   P1q TN1dh  1 3.950000e-01    2.700000e+00
   N6q TN1dh  1 3.950000e-01    2.700000e+00
   N5q TN1dh  1 3.950000e-01    2.700000e+00
   N4q TN1dh  1 3.950000e-01    2.700000e+00
   N3q TN1dh  1 3.950000e-01    2.700000e+00
   N2q TN1dh  1 3.950000e-01    2.700000e+00
   N1q TN1dh  1 3.950000e-01    2.940000e+00
  N1dh  TC6q  1 3.950000e-01    2.940000e+00
  N1dh  TC5q  1 3.950000e-01    2.700000e+00
  N1dh  TC4q  1 3.950000e-01    2.700000e+00
  N1dh  TC3q  1 3.950000e-01    2.500000e+00
  N1dh  TC2q  1 3.950000e-01    2.310000e+00
  N1dh  TC1q  1 3.950000e-01    2.110000e+00
  N1dh  TX4q  1 3.950000e-01    2.700000e+00
  N1dh  TX3q  1 3.950000e-01    2.700000e+00
  N1dh  TX2q  1 3.950000e-01    2.500000e+00
  N1dh  TX1q  1 3.950000e-01    2.500000e+00
  P6dq TN1dh  1 3.950000e-01    2.110000e+00
  P5dq TN1dh  1 3.950000e-01    2.110000e+00
  P4dq TN1dh  1 3.950000e-01    2.310000e+00
  P3dq TN1dh  1 3.950000e-01    2.500000e+00
  P2dq TN1dh  1 3.950000e-01    2.500000e+00
  P1dq TN1dh  1 3.950000e-01    2.500000e+00
  N6dq TN1dh  1 3.950000e-01    2.500000e+00
  N5dq TN1dh  1 3.950000e-01    2.500000e+00
  N4dq TN1dh  1 3.950000e-01    2.500000e+00
  N3dq TN1dh  1 3.950000e-01    2.500000e+00
  N2dq TN1dh  1 3.950000e-01    2.500000e+00
  N1dh TN1dq  1 3.950000e-01    2.700000e+00
  N1dh TX1eq  1 3.950000e-01    2.700000e+00
  N1dh TX2eq  1 3.950000e-01    2.700000e+00
  N1dh TX3eq  1 3.950000e-01    2.940000e+00
  N1dh TX4eq  1 3.950000e-01    2.940000e+00
  N1dh TC1eq  1 3.950000e-01    2.310000e+00
  N1dh TC2eq  1 3.950000e-01    2.500000e+00
  N1dh TC3eq  1 3.950000e-01    2.700000e+00
  N1dh TC4eq  1 3.950000e-01    2.940000e+00
  N1dh TC5eq  1 3.950000e-01    2.940000e+00
  N1dh TC6eq  1 3.950000e-01    3.190000e+00
  N1dh TX1vq  1 3.950000e-01    2.310000e+00
  N1dh TX2vq  1 3.950000e-01    2.310000e+00
  N1dh TX3vq  1 3.950000e-01    2.500000e+00
  N1dh TX4vq  1 3.950000e-01    2.500000e+00
  N1dh TC1vq  1 3.950000e-01    1.850000e+00
  N1dh TC2vq  1 3.950000e-01    2.110000e+00
  N1dh TC3vq  1 3.950000e-01    2.310000e+00
  N1dh TC4vq  1 3.950000e-01    2.500000e+00
  N1dh TC5vq  1 3.950000e-01    2.500000e+00
  N1dh TC6vq  1 3.950000e-01    2.700000e+00
  N1dh TN1aq  1 3.950000e-01    3.190000e+00
  N2aq TN1dh  1 3.950000e-01    2.940000e+00
  N3aq TN1dh  1 3.950000e-01    2.940000e+00
  N4aq TN1dh  1 3.950000e-01    2.940000e+00
  N5aq TN1dh  1 3.950000e-01    2.940000e+00
  N6aq TN1dh  1 3.950000e-01    2.940000e+00
  P1aq TN1dh  1 3.950000e-01    2.940000e+00
  P2aq TN1dh  1 3.950000e-01    2.940000e+00
  P3aq TN1dh  1 3.950000e-01    2.500000e+00
  P4aq TN1dh  1 3.950000e-01    2.310000e+00
  P5aq TN1dh  1 3.950000e-01    2.110000e+00
  P6aq TN1dh  1 3.950000e-01    2.110000e+00
   P6a TP6ah  1 3.950000e-01    3.910000e+00
  P6ah  TP5a  1 3.950000e-01    3.670000e+00
  P6ah  TP4a  1 3.950000e-01    3.430000e+00
  P6ah  TP3a  1 3.950000e-01    3.190000e+00
  P6ah  TP2a  1 3.950000e-01    3.190000e+00
  P6ah  TP1a  1 3.950000e-01    2.940000e+00
  P6ah  TN6a  1 3.950000e-01    2.700000e+00
  P6ah  TN5a  1 3.950000e-01    2.310000e+00
  P6ah  TN4a  1 3.950000e-01    2.110000e+00
  P6ah  TN3a  1 3.950000e-01    2.110000e+00
  P6ah  TN2a  1 3.950000e-01    1.850000e+00
  P6ah  TN1a  1 3.950000e-01    1.670000e+00
  P6ah  TC6v  1 3.950000e-01    1.850000e+00
  P6ah  TC5v  1 3.950000e-01    1.670000e+00
  P6ah  TC4v  1 3.980000e-01    1.450000e+00
  P6ah  TC3v  1 3.990000e-01    1.180000e+00
  P6ah  TC2v  1 3.990000e-01    1.180000e+00
  P6ah  TC1v  1 4.040000e-01    8.300000e-01
  P6ah  TX4v  1 3.950000e-01    2.110000e+00
  P6ah  TX3v  1 3.950000e-01    2.110000e+00
  P6ah  TX2v  1 3.950000e-01    1.850000e+00
  P6ah  TX1v  1 3.950000e-01    1.670000e+00
  P6ah  TC6e  1 3.980000e-01    1.450000e+00
  P6ah  TC5e  1 3.990000e-01    1.180000e+00
  P6ah  TC4e  1 4.010000e-01    9.830000e-01
  P6ah  TC3e  1 4.040000e-01    8.300000e-01
  P6ah  TC2e  1 4.040000e-01    8.300000e-01
  P6ah  TC1e  1 5.110000e-01    6.590000e-01
  P6ah  TX4e  1 3.950000e-01    1.670000e+00
  P6ah  TX3e  1 3.950000e-01    1.670000e+00
  P6ah  TX2e  1 3.980000e-01    1.450000e+00
  P6ah  TX1e  1 3.990000e-01    1.180000e+00
   P6q TP6ah  1 3.950000e-01    4.870000e+00
  P6ah  TP5q  1 3.950000e-01    4.540000e+00
  P6ah  TP4q  1 3.950000e-01    4.230000e+00
  P6ah  TP3q  1 3.950000e-01    3.910000e+00
  P6ah  TP2q  1 3.950000e-01    3.910000e+00
  P6ah  TP1q  1 3.950000e-01    3.670000e+00
  P6ah  TN6q  1 3.950000e-01    3.430000e+00
  P6ah  TN5q  1 3.950000e-01    2.940000e+00
  P6ah  TN4q  1 3.950000e-01    2.700000e+00
  P6ah  TN3q  1 3.950000e-01    2.500000e+00
  P6ah  TN2q  1 3.950000e-01    2.310000e+00
  P6ah  TN1q  1 3.950000e-01    2.110000e+00
  P6ah  TC6q  1 3.950000e-01    2.110000e+00
  P6ah  TC5q  1 3.950000e-01    1.850000e+00
  P6ah  TC4q  1 3.950000e-01    1.670000e+00
  P6ah  TC3q  1 3.980000e-01    1.450000e+00
  P6ah  TC2q  1 3.980000e-01    1.450000e+00
  P6ah  TC1q  1 4.010000e-01    9.830000e-01
  P6ah  TX4q  1 3.950000e-01    2.310000e+00
  P6ah  TX3q  1 3.950000e-01    2.310000e+00
  P6ah  TX2q  1 3.950000e-01    2.110000e+00
  P6ah  TX1q  1 3.950000e-01    1.850000e+00
  P6dq TP6ah  1 3.950000e-01    5.270000e+00
  P6ah TP5dq  1 3.950000e-01    4.870000e+00
  P6ah TP4dq  1 3.950000e-01    4.540000e+00
  P6ah TP3dq  1 3.950000e-01    4.230000e+00
  P6ah TP2dq  1 3.950000e-01    4.230000e+00
  P6ah TP1dq  1 3.950000e-01    3.910000e+00
  P6ah TN6dq  1 3.950000e-01    3.670000e+00
  P6ah TN5dq  1 3.950000e-01    3.190000e+00
  P6ah TN4dq  1 3.950000e-01    2.940000e+00
  P6ah TN3dq  1 3.950000e-01    2.500000e+00
  P6ah TN2dq  1 3.950000e-01    2.310000e+00
  P6ah TN1dq  1 3.950000e-01    2.110000e+00
  P6ah TP6aq  1 3.950000e-01    4.540000e+00
  P6ah TX1eq  1 3.950000e-01    1.670000e+00
  P6ah TX2eq  1 3.950000e-01    1.850000e+00
  P6ah TX3eq  1 3.950000e-01    2.110000e+00
  P6ah TX4eq  1 3.950000e-01    2.110000e+00
  P6ah TC1eq  1 4.040000e-01    8.300000e-01
  P6ah TC2eq  1 3.990000e-01    1.180000e+00
  P6ah TC3eq  1 3.990000e-01    1.180000e+00
  P6ah TC4eq  1 3.980000e-01    1.450000e+00
  P6ah TC5eq  1 3.950000e-01    1.670000e+00
  P6ah TC6eq  1 3.950000e-01    1.850000e+00
  P6ah TX1vq  1 3.950000e-01    2.110000e+00
  P6ah TX2vq  1 3.950000e-01    2.310000e+00
  P6ah TX3vq  1 3.950000e-01    2.500000e+00
  P6ah TX4vq  1 3.950000e-01    2.500000e+00
  P6ah TC1vq  1 3.990000e-01    1.180000e+00
  P6ah TC2vq  1 3.950000e-01    1.670000e+00
  P6ah TC3vq  1 3.950000e-01    1.670000e+00
  P6ah TC4vq  1 3.950000e-01    1.850000e+00
  P6ah TC5vq  1 3.950000e-01    2.110000e+00
  P6ah TC6vq  1 3.950000e-01    2.310000e+00
  P6ah TN1aq  1 3.950000e-01    2.110000e+00
  P6ah TN2aq  1 3.950000e-01    2.310000e+00
  P6ah TN3aq  1 3.950000e-01    2.500000e+00
  P6ah TN4aq  1 3.950000e-01    2.500000e+00
  P6ah TN5aq  1 3.950000e-01    2.700000e+00
  P6ah TN6aq  1 3.950000e-01    3.190000e+00
  P6ah TP1aq  1 3.950000e-01    3.430000e+00
  P6ah TP2aq  1 3.950000e-01    3.670000e+00
  P6ah TP3aq  1 3.950000e-01    3.670000e+00
  P6ah TP4aq  1 3.950000e-01    3.910000e+00
  P6ah TP5aq  1 3.950000e-01    4.230000e+00
   P5a TP5ah  1 3.950000e-01    3.430000e+00
  P5ah  TP4a  1 3.950000e-01    3.190000e+00
  P5ah  TP3a  1 3.950000e-01    2.940000e+00
  P5ah  TP2a  1 3.950000e-01    2.940000e+00
  P5ah  TP1a  1 3.950000e-01    2.700000e+00
  P5ah  TN6a  1 3.950000e-01    2.500000e+00
  P5ah  TN5a  1 3.950000e-01    2.310000e+00
  P5ah  TN4a  1 3.950000e-01    2.310000e+00
  P5ah  TN3a  1 3.950000e-01    2.110000e+00
  P5ah  TN2a  1 3.950000e-01    1.850000e+00
  P5ah  TN1a  1 3.950000e-01    1.670000e+00
  P5ah  TC6v  1 3.950000e-01    1.850000e+00
  P5ah  TC5v  1 3.950000e-01    1.850000e+00
  P5ah  TC4v  1 3.950000e-01    1.670000e+00
  P5ah  TC3v  1 3.980000e-01    1.450000e+00
  P5ah  TC2v  1 3.980000e-01    1.450000e+00
  P5ah  TC1v  1 3.990000e-01    1.180000e+00
  P5ah  TX4v  1 3.950000e-01    2.310000e+00
  P5ah  TX3v  1 3.950000e-01    2.110000e+00
  P5ah  TX2v  1 3.950000e-01    2.110000e+00
  P5ah  TX1v  1 3.950000e-01    1.670000e+00
  P5ah  TC6e  1 3.980000e-01    1.450000e+00
  P5ah  TC5e  1 3.980000e-01    1.450000e+00
  P5ah  TC4e  1 3.990000e-01    1.180000e+00
  P5ah  TC3e  1 4.010000e-01    9.830000e-01
  P5ah  TC2e  1 4.010000e-01    9.830000e-01
  P5ah  TC1e  1 4.040000e-01    8.300000e-01
  P5ah  TX4e  1 3.950000e-01    1.850000e+00
  P5ah  TX3e  1 3.950000e-01    1.670000e+00
  P5ah  TX2e  1 3.950000e-01    1.670000e+00
  P5ah  TX1e  1 3.990000e-01    1.180000e+00
   P6q TP5ah  1 3.950000e-01    4.540000e+00
   P5q TP5ah  1 3.950000e-01    4.230000e+00
  P5ah  TP4q  1 3.950000e-01    3.910000e+00
  P5ah  TP3q  1 3.950000e-01    3.670000e+00
  P5ah  TP2q  1 3.950000e-01    3.670000e+00
  P5ah  TP1q  1 3.950000e-01    3.430000e+00
  P5ah  TN6q  1 3.950000e-01    3.190000e+00
  P5ah  TN5q  1 3.950000e-01    2.940000e+00
  P5ah  TN4q  1 3.950000e-01    2.940000e+00
  P5ah  TN3q  1 3.950000e-01    2.500000e+00
  P5ah  TN2q  1 3.950000e-01    2.310000e+00
  P5ah  TN1q  1 3.950000e-01    2.110000e+00
  P5ah  TC6q  1 3.950000e-01    2.110000e+00
  P5ah  TC5q  1 3.950000e-01    2.110000e+00
  P5ah  TC4q  1 3.950000e-01    1.850000e+00
  P5ah  TC3q  1 3.950000e-01    1.670000e+00
  P5ah  TC2q  1 3.950000e-01    1.670000e+00
  P5ah  TC1q  1 3.980000e-01    1.450000e+00
  P5ah  TX4q  1 3.950000e-01    2.500000e+00
  P5ah  TX3q  1 3.950000e-01    2.310000e+00
  P5ah  TX2q  1 3.950000e-01    2.310000e+00
  P5ah  TX1q  1 3.950000e-01    1.850000e+00
  P6dq TP5ah  1 3.950000e-01    4.870000e+00
  P5dq TP5ah  1 3.950000e-01    4.540000e+00
  P5ah TP4dq  1 3.950000e-01    4.230000e+00
  P5ah TP3dq  1 3.950000e-01    3.910000e+00
  P5ah TP2dq  1 3.950000e-01    3.910000e+00
  P5ah TP1dq  1 3.950000e-01    3.670000e+00
  P5ah TN6dq  1 3.950000e-01    3.430000e+00
  P5ah TN5dq  1 3.950000e-01    3.190000e+00
  P5ah TN4dq  1 3.950000e-01    3.190000e+00
  P5ah TN3dq  1 3.950000e-01    2.500000e+00
  P5ah TN2dq  1 3.950000e-01    2.310000e+00
  P5ah TN1dq  1 3.950000e-01    2.110000e+00
  P6aq TP5ah  1 3.950000e-01    4.230000e+00
  P5ah TP5aq  1 3.950000e-01    3.910000e+00
  P5ah TX1eq  1 3.950000e-01    1.670000e+00
  P5ah TX2eq  1 3.950000e-01    2.110000e+00
  P5ah TX3eq  1 3.950000e-01    2.110000e+00
  P5ah TX4eq  1 3.950000e-01    2.310000e+00
  P5ah TC1eq  1 3.990000e-01    1.180000e+00
  P5ah TC2eq  1 3.980000e-01    1.450000e+00
  P5ah TC3eq  1 3.980000e-01    1.450000e+00
  P5ah TC4eq  1 3.950000e-01    1.670000e+00
  P5ah TC5eq  1 3.950000e-01    1.850000e+00
  P5ah TC6eq  1 3.950000e-01    1.850000e+00
  P5ah TX1vq  1 3.950000e-01    2.110000e+00
  P5ah TX2vq  1 3.950000e-01    2.500000e+00
  P5ah TX3vq  1 3.950000e-01    2.500000e+00
  P5ah TX4vq  1 3.950000e-01    2.700000e+00
  P5ah TC1vq  1 3.950000e-01    1.670000e+00
  P5ah TC2vq  1 3.950000e-01    1.850000e+00
  P5ah TC3vq  1 3.950000e-01    1.850000e+00
  P5ah TC4vq  1 3.950000e-01    2.110000e+00
  P5ah TC5vq  1 3.950000e-01    2.310000e+00
  P5ah TC6vq  1 3.950000e-01    2.310000e+00
  P5ah TN1aq  1 3.950000e-01    2.110000e+00
  P5ah TN2aq  1 3.950000e-01    2.310000e+00
  P5ah TN3aq  1 3.950000e-01    2.500000e+00
  P5ah TN4aq  1 3.950000e-01    2.700000e+00
  P5ah TN5aq  1 3.950000e-01    2.700000e+00
  P5ah TN6aq  1 3.950000e-01    2.940000e+00
  P5ah TP1aq  1 3.950000e-01    3.190000e+00
  P5ah TP2aq  1 3.950000e-01    3.430000e+00
  P5ah TP3aq  1 3.950000e-01    3.430000e+00
  P5ah TP4aq  1 3.950000e-01    3.670000e+00
   P4a TP4ah  1 3.950000e-01    3.190000e+00
  P4ah  TP3a  1 3.950000e-01    2.940000e+00
  P4ah  TP2a  1 3.950000e-01    2.940000e+00
  P4ah  TP1a  1 3.950000e-01    2.700000e+00
  P4ah  TN6a  1 3.950000e-01    2.500000e+00
  P4ah  TN5a  1 3.950000e-01    2.310000e+00
  P4ah  TN4a  1 3.950000e-01    2.310000e+00
  P4ah  TN3a  1 3.950000e-01    2.110000e+00
  P4ah  TN2a  1 3.950000e-01    2.110000e+00
  P4ah  TN1a  1 3.950000e-01    1.850000e+00
  P4ah  TC6v  1 3.950000e-01    2.110000e+00
  P4ah  TC5v  1 3.950000e-01    1.850000e+00
  P4ah  TC4v  1 3.950000e-01    1.670000e+00
  P4ah  TC3v  1 3.980000e-01    1.450000e+00
  P4ah  TC2v  1 3.980000e-01    1.450000e+00
  P4ah  TC1v  1 3.990000e-01    1.180000e+00
  P4ah  TX4v  1 3.950000e-01    2.310000e+00
  P4ah  TX3v  1 3.950000e-01    2.110000e+00
  P4ah  TX2v  1 3.950000e-01    2.110000e+00
  P4ah  TX1v  1 3.950000e-01    1.850000e+00
  P4ah  TC6e  1 3.950000e-01    1.670000e+00
  P4ah  TC5e  1 3.980000e-01    1.450000e+00
  P4ah  TC4e  1 3.990000e-01    1.180000e+00
  P4ah  TC3e  1 4.010000e-01    9.830000e-01
  P4ah  TC2e  1 4.010000e-01    9.830000e-01
  P4ah  TC1e  1 4.040000e-01    8.300000e-01
  P4ah  TX4e  1 3.950000e-01    1.850000e+00
  P4ah  TX3e  1 3.950000e-01    1.670000e+00
  P4ah  TX2e  1 3.950000e-01    1.670000e+00
  P4ah  TX1e  1 3.980000e-01    1.450000e+00
   P6q TP4ah  1 3.950000e-01    4.230000e+00
   P5q TP4ah  1 3.950000e-01    3.910000e+00
   P4q TP4ah  1 3.950000e-01    3.910000e+00
  P4ah  TP3q  1 3.950000e-01    3.670000e+00
  P4ah  TP2q  1 3.950000e-01    3.670000e+00
  P4ah  TP1q  1 3.950000e-01    3.430000e+00
  P4ah  TN6q  1 3.950000e-01    3.190000e+00
  P4ah  TN5q  1 3.950000e-01    2.940000e+00
  P4ah  TN4q  1 3.950000e-01    2.940000e+00
  P4ah  TN3q  1 3.950000e-01    2.700000e+00
  P4ah  TN2q  1 3.950000e-01    2.500000e+00
  P4ah  TN1q  1 3.950000e-01    2.310000e+00
  P4ah  TC6q  1 3.950000e-01    2.310000e+00
  P4ah  TC5q  1 3.950000e-01    2.110000e+00
  P4ah  TC4q  1 3.950000e-01    1.850000e+00
  P4ah  TC3q  1 3.950000e-01    1.670000e+00
  P4ah  TC2q  1 3.950000e-01    1.670000e+00
  P4ah  TC1q  1 3.980000e-01    1.450000e+00
  P4ah  TX4q  1 3.950000e-01    2.500000e+00
  P4ah  TX3q  1 3.950000e-01    2.310000e+00
  P4ah  TX2q  1 3.950000e-01    2.310000e+00
  P4ah  TX1q  1 3.950000e-01    2.110000e+00
  P6dq TP4ah  1 3.950000e-01    4.540000e+00
  P5dq TP4ah  1 3.950000e-01    4.230000e+00
  P4dq TP4ah  1 3.950000e-01    4.230000e+00
  P4ah TP3dq  1 3.950000e-01    3.910000e+00
  P4ah TP2dq  1 3.950000e-01    3.910000e+00
  P4ah TP1dq  1 3.950000e-01    3.670000e+00
  P4ah TN6dq  1 3.950000e-01    3.430000e+00
  P4ah TN5dq  1 3.950000e-01    3.190000e+00
  P4ah TN4dq  1 3.950000e-01    3.190000e+00
  P4ah TN3dq  1 3.950000e-01    2.940000e+00
  P4ah TN2dq  1 3.950000e-01    2.500000e+00
  P4ah TN1dq  1 3.950000e-01    2.310000e+00
  P6aq TP4ah  1 3.950000e-01    3.910000e+00
  P5aq TP4ah  1 3.950000e-01    3.670000e+00
  P4ah TP4aq  1 3.950000e-01    3.670000e+00
  P4ah TX1eq  1 3.950000e-01    1.850000e+00
  P4ah TX2eq  1 3.950000e-01    2.110000e+00
  P4ah TX3eq  1 3.950000e-01    2.110000e+00
  P4ah TX4eq  1 3.950000e-01    2.310000e+00
  P4ah TC1eq  1 3.990000e-01    1.180000e+00
  P4ah TC2eq  1 3.980000e-01    1.450000e+00
  P4ah TC3eq  1 3.980000e-01    1.450000e+00
  P4ah TC4eq  1 3.950000e-01    1.670000e+00
  P4ah TC5eq  1 3.950000e-01    1.850000e+00
  P4ah TC6eq  1 3.950000e-01    2.110000e+00
  P4ah TX1vq  1 3.950000e-01    2.310000e+00
  P4ah TX2vq  1 3.950000e-01    2.500000e+00
  P4ah TX3vq  1 3.950000e-01    2.500000e+00
  P4ah TX4vq  1 3.950000e-01    2.700000e+00
  P4ah TC1vq  1 3.950000e-01    1.670000e+00
  P4ah TC2vq  1 3.950000e-01    1.850000e+00
  P4ah TC3vq  1 3.950000e-01    1.850000e+00
  P4ah TC4vq  1 3.950000e-01    2.110000e+00
  P4ah TC5vq  1 3.950000e-01    2.310000e+00
  P4ah TC6vq  1 3.950000e-01    2.500000e+00
  P4ah TN1aq  1 3.950000e-01    2.310000e+00
  P4ah TN2aq  1 3.950000e-01    2.500000e+00
  P4ah TN3aq  1 3.950000e-01    2.500000e+00
  P4ah TN4aq  1 3.950000e-01    2.700000e+00
  P4ah TN5aq  1 3.950000e-01    2.700000e+00
  P4ah TN6aq  1 3.950000e-01    2.940000e+00
  P4ah TP1aq  1 3.950000e-01    3.190000e+00
  P4ah TP2aq  1 3.950000e-01    3.430000e+00
  P4ah TP3aq  1 3.950000e-01    3.430000e+00
   P3a TP3ah  1 3.950000e-01    2.940000e+00
  P3ah  TP2a  1 3.950000e-01    2.940000e+00
  P3ah  TP1a  1 3.950000e-01    2.700000e+00
  P3ah  TN6a  1 3.950000e-01    2.500000e+00
  P3ah  TN5a  1 3.950000e-01    2.310000e+00
  P3ah  TN4a  1 3.950000e-01    2.310000e+00
  P3ah  TN3a  1 3.950000e-01    2.110000e+00
  P3ah  TN2a  1 3.950000e-01    2.110000e+00
  P3ah  TN1a  1 3.950000e-01    2.110000e+00
  P3ah  TC6v  1 3.950000e-01    2.310000e+00
  P3ah  TC5v  1 3.950000e-01    2.110000e+00
  P3ah  TC4v  1 3.950000e-01    1.850000e+00
  P3ah  TC3v  1 3.980000e-01    1.450000e+00
  P3ah  TC2v  1 3.980000e-01    1.450000e+00
  P3ah  TC1v  1 3.990000e-01    1.180000e+00
  P3ah  TX4v  1 3.950000e-01    2.310000e+00
  P3ah  TX3v  1 3.950000e-01    2.310000e+00
  P3ah  TX2v  1 3.950000e-01    2.110000e+00
  P3ah  TX1v  1 3.950000e-01    1.850000e+00
  P3ah  TC6e  1 3.950000e-01    1.850000e+00
  P3ah  TC5e  1 3.950000e-01    1.670000e+00
  P3ah  TC4e  1 3.980000e-01    1.450000e+00
  P3ah  TC3e  1 4.010000e-01    9.830000e-01
  P3ah  TC2e  1 4.010000e-01    9.830000e-01
  P3ah  TC1e  1 4.040000e-01    8.300000e-01
  P3ah  TX4e  1 3.950000e-01    1.850000e+00
  P3ah  TX3e  1 3.950000e-01    1.850000e+00
  P3ah  TX2e  1 3.950000e-01    1.670000e+00
  P3ah  TX1e  1 3.980000e-01    1.450000e+00
   P6q TP3ah  1 3.950000e-01    3.910000e+00
   P5q TP3ah  1 3.950000e-01    3.670000e+00
   P4q TP3ah  1 3.950000e-01    3.670000e+00
   P3q TP3ah  1 3.950000e-01    3.670000e+00
  P3ah  TP2q  1 3.950000e-01    3.670000e+00
  P3ah  TP1q  1 3.950000e-01    3.430000e+00
  P3ah  TN6q  1 3.950000e-01    3.190000e+00
  P3ah  TN5q  1 3.950000e-01    2.940000e+00
  P3ah  TN4q  1 3.950000e-01    2.940000e+00
  P3ah  TN3q  1 3.950000e-01    2.700000e+00
  P3ah  TN2q  1 3.950000e-01    2.700000e+00
  P3ah  TN1q  1 3.950000e-01    2.500000e+00
  P3ah  TC6q  1 3.950000e-01    2.500000e+00
  P3ah  TC5q  1 3.950000e-01    2.310000e+00
  P3ah  TC4q  1 3.950000e-01    2.110000e+00
  P3ah  TC3q  1 3.950000e-01    1.670000e+00
  P3ah  TC2q  1 3.950000e-01    1.670000e+00
  P3ah  TC1q  1 3.980000e-01    1.450000e+00
  P3ah  TX4q  1 3.950000e-01    2.500000e+00
  P3ah  TX3q  1 3.950000e-01    2.500000e+00
  P3ah  TX2q  1 3.950000e-01    2.310000e+00
  P3ah  TX1q  1 3.950000e-01    2.110000e+00
  P6dq TP3ah  1 3.950000e-01    4.230000e+00
  P5dq TP3ah  1 3.950000e-01    3.910000e+00
  P4dq TP3ah  1 3.950000e-01    3.910000e+00
  P3dq TP3ah  1 3.950000e-01    3.910000e+00
  P3ah TP2dq  1 3.950000e-01    3.910000e+00
  P3ah TP1dq  1 3.950000e-01    3.670000e+00
  P3ah TN6dq  1 3.950000e-01    3.430000e+00
  P3ah TN5dq  1 3.950000e-01    3.190000e+00
  P3ah TN4dq  1 3.950000e-01    3.190000e+00
  P3ah TN3dq  1 3.950000e-01    2.940000e+00
  P3ah TN2dq  1 3.950000e-01    2.940000e+00
  P3ah TN1dq  1 3.950000e-01    2.500000e+00
  P6aq TP3ah  1 3.950000e-01    3.670000e+00
  P5aq TP3ah  1 3.950000e-01    3.430000e+00
  P4aq TP3ah  1 3.950000e-01    3.430000e+00
  P3ah TP3aq  1 3.950000e-01    3.430000e+00
  P3ah TX1eq  1 3.950000e-01    1.850000e+00
  P3ah TX2eq  1 3.950000e-01    2.110000e+00
  P3ah TX3eq  1 3.950000e-01    2.310000e+00
  P3ah TX4eq  1 3.950000e-01    2.310000e+00
  P3ah TC1eq  1 3.990000e-01    1.180000e+00
  P3ah TC2eq  1 3.980000e-01    1.450000e+00
  P3ah TC3eq  1 3.980000e-01    1.450000e+00
  P3ah TC4eq  1 3.950000e-01    1.850000e+00
  P3ah TC5eq  1 3.950000e-01    2.110000e+00
  P3ah TC6eq  1 3.950000e-01    2.310000e+00
  P3ah TX1vq  1 3.950000e-01    2.310000e+00
  P3ah TX2vq  1 3.950000e-01    2.500000e+00
  P3ah TX3vq  1 3.950000e-01    2.700000e+00
  P3ah TX4vq  1 3.950000e-01    2.700000e+00
  P3ah TC1vq  1 3.950000e-01    1.670000e+00
  P3ah TC2vq  1 3.950000e-01    1.850000e+00
  P3ah TC3vq  1 3.950000e-01    1.850000e+00
  P3ah TC4vq  1 3.950000e-01    2.310000e+00
  P3ah TC5vq  1 3.950000e-01    2.500000e+00
  P3ah TC6vq  1 3.950000e-01    2.700000e+00
  P3ah TN1aq  1 3.950000e-01    2.500000e+00
  P3ah TN2aq  1 3.950000e-01    2.500000e+00
  P3ah TN3aq  1 3.950000e-01    2.500000e+00
  P3ah TN4aq  1 3.950000e-01    2.700000e+00
  P3ah TN5aq  1 3.950000e-01    2.700000e+00
  P3ah TN6aq  1 3.950000e-01    2.940000e+00
  P3ah TP1aq  1 3.950000e-01    3.190000e+00
  P3ah TP2aq  1 3.950000e-01    3.430000e+00
   P2a TP2ah  1 3.950000e-01    2.940000e+00
  P2ah  TP1a  1 3.950000e-01    2.700000e+00
  P2ah  TN6a  1 3.950000e-01    2.700000e+00
  P2ah  TN5a  1 3.950000e-01    2.500000e+00
  P2ah  TN4a  1 3.950000e-01    2.310000e+00
  P2ah  TN3a  1 3.950000e-01    2.110000e+00
  P2ah  TN2a  1 3.950000e-01    2.110000e+00
  P2ah  TN1a  1 3.950000e-01    2.110000e+00
  P2ah  TC6v  1 3.950000e-01    2.310000e+00
  P2ah  TC5v  1 3.950000e-01    2.110000e+00
  P2ah  TC4v  1 3.950000e-01    1.850000e+00
  P2ah  TC3v  1 3.950000e-01    1.670000e+00
  P2ah  TC2v  1 3.950000e-01    1.670000e+00
  P2ah  TC1v  1 3.980000e-01    1.450000e+00
  P2ah  TX4v  1 3.950000e-01    2.310000e+00
  P2ah  TX3v  1 3.950000e-01    2.310000e+00
  P2ah  TX2v  1 3.950000e-01    2.110000e+00
  P2ah  TX1v  1 3.950000e-01    1.850000e+00
  P2ah  TC6e  1 3.950000e-01    1.850000e+00
  P2ah  TC5e  1 3.950000e-01    1.670000e+00
  P2ah  TC4e  1 3.980000e-01    1.450000e+00
  P2ah  TC3e  1 3.990000e-01    1.180000e+00
  P2ah  TC2e  1 3.990000e-01    1.180000e+00
  P2ah  TC1e  1 4.010000e-01    9.830000e-01
  P2ah  TX4e  1 3.950000e-01    1.850000e+00
  P2ah  TX3e  1 3.950000e-01    1.850000e+00
  P2ah  TX2e  1 3.950000e-01    1.670000e+00
  P2ah  TX1e  1 3.980000e-01    1.450000e+00
   P6q TP2ah  1 3.950000e-01    3.910000e+00
   P5q TP2ah  1 3.950000e-01    3.670000e+00
   P4q TP2ah  1 3.950000e-01    3.670000e+00
   P3q TP2ah  1 3.950000e-01    3.670000e+00
   P2q TP2ah  1 3.950000e-01    3.670000e+00
  P2ah  TP1q  1 3.950000e-01    3.430000e+00
  P2ah  TN6q  1 3.950000e-01    3.430000e+00
  P2ah  TN5q  1 3.950000e-01    3.190000e+00
  P2ah  TN4q  1 3.950000e-01    2.940000e+00
  P2ah  TN3q  1 3.950000e-01    2.700000e+00
  P2ah  TN2q  1 3.950000e-01    2.700000e+00
  P2ah  TN1q  1 3.950000e-01    2.700000e+00
  P2ah  TC6q  1 3.950000e-01    2.500000e+00
  P2ah  TC5q  1 3.950000e-01    2.310000e+00
  P2ah  TC4q  1 3.950000e-01    2.110000e+00
  P2ah  TC3q  1 3.950000e-01    1.850000e+00
  P2ah  TC2q  1 3.950000e-01    1.850000e+00
  P2ah  TC1q  1 3.950000e-01    1.670000e+00
  P2ah  TX4q  1 3.950000e-01    2.500000e+00
  P2ah  TX3q  1 3.950000e-01    2.500000e+00
  P2ah  TX2q  1 3.950000e-01    2.310000e+00
  P2ah  TX1q  1 3.950000e-01    2.110000e+00
  P6dq TP2ah  1 3.950000e-01    4.230000e+00
  P5dq TP2ah  1 3.950000e-01    3.910000e+00
  P4dq TP2ah  1 3.950000e-01    3.910000e+00
  P3dq TP2ah  1 3.950000e-01    3.910000e+00
  P2dq TP2ah  1 3.950000e-01    3.910000e+00
  P2ah TP1dq  1 3.950000e-01    3.670000e+00
  P2ah TN6dq  1 3.950000e-01    3.670000e+00
  P2ah TN5dq  1 3.950000e-01    3.430000e+00
  P2ah TN4dq  1 3.950000e-01    3.190000e+00
  P2ah TN3dq  1 3.950000e-01    2.940000e+00
  P2ah TN2dq  1 3.950000e-01    2.940000e+00
  P2ah TN1dq  1 3.950000e-01    2.940000e+00
  P6aq TP2ah  1 3.950000e-01    3.670000e+00
  P5aq TP2ah  1 3.950000e-01    3.430000e+00
  P4aq TP2ah  1 3.950000e-01    3.430000e+00
  P3aq TP2ah  1 3.950000e-01    3.430000e+00
  P2ah TP2aq  1 3.950000e-01    3.430000e+00
  P2ah TX1eq  1 3.950000e-01    1.850000e+00
  P2ah TX2eq  1 3.950000e-01    2.110000e+00
  P2ah TX3eq  1 3.950000e-01    2.310000e+00
  P2ah TX4eq  1 3.950000e-01    2.310000e+00
  P2ah TC1eq  1 3.980000e-01    1.450000e+00
  P2ah TC2eq  1 3.950000e-01    1.670000e+00
  P2ah TC3eq  1 3.950000e-01    1.670000e+00
  P2ah TC4eq  1 3.950000e-01    1.850000e+00
  P2ah TC5eq  1 3.950000e-01    2.110000e+00
  P2ah TC6eq  1 3.950000e-01    2.310000e+00
  P2ah TX1vq  1 3.950000e-01    2.310000e+00
  P2ah TX2vq  1 3.950000e-01    2.500000e+00
  P2ah TX3vq  1 3.950000e-01    2.700000e+00
  P2ah TX4vq  1 3.950000e-01    2.700000e+00
  P2ah TC1vq  1 3.950000e-01    1.850000e+00
  P2ah TC2vq  1 3.950000e-01    2.110000e+00
  P2ah TC3vq  1 3.950000e-01    2.110000e+00
  P2ah TC4vq  1 3.950000e-01    2.310000e+00
  P2ah TC5vq  1 3.950000e-01    2.500000e+00
  P2ah TC6vq  1 3.950000e-01    2.700000e+00
  P2ah TN1aq  1 3.950000e-01    2.500000e+00
  P2ah TN2aq  1 3.950000e-01    2.500000e+00
  P2ah TN3aq  1 3.950000e-01    2.500000e+00
  P2ah TN4aq  1 3.950000e-01    2.700000e+00
  P2ah TN5aq  1 3.950000e-01    2.940000e+00
  P2ah TN6aq  1 3.950000e-01    3.190000e+00
  P2ah TP1aq  1 3.950000e-01    3.190000e+00
   P1a TP1ah  1 3.950000e-01    2.700000e+00
  P1ah  TN6a  1 3.950000e-01    2.700000e+00
  P1ah  TN5a  1 3.950000e-01    2.500000e+00
  P1ah  TN4a  1 3.950000e-01    2.500000e+00
  P1ah  TN3a  1 3.950000e-01    2.110000e+00
  P1ah  TN2a  1 3.950000e-01    2.110000e+00
  P1ah  TN1a  1 3.950000e-01    2.110000e+00
  P1ah  TC6v  1 3.950000e-01    2.310000e+00
  P1ah  TC5v  1 3.950000e-01    2.110000e+00
  P1ah  TC4v  1 3.950000e-01    1.850000e+00
  P1ah  TC3v  1 3.950000e-01    1.670000e+00
  P1ah  TC2v  1 3.950000e-01    1.670000e+00
  P1ah  TC1v  1 3.980000e-01    1.450000e+00
  P1ah  TX4v  1 3.950000e-01    2.310000e+00
  P1ah  TX3v  1 3.950000e-01    2.310000e+00
  P1ah  TX2v  1 3.950000e-01    2.110000e+00
  P1ah  TX1v  1 3.950000e-01    1.850000e+00
  P1ah  TC6e  1 3.950000e-01    1.850000e+00
  P1ah  TC5e  1 3.950000e-01    1.670000e+00
  P1ah  TC4e  1 3.980000e-01    1.450000e+00
  P1ah  TC3e  1 3.990000e-01    1.180000e+00
  P1ah  TC2e  1 3.990000e-01    1.180000e+00
  P1ah  TC1e  1 4.010000e-01    9.830000e-01
  P1ah  TX4e  1 3.950000e-01    1.850000e+00
  P1ah  TX3e  1 3.950000e-01    1.850000e+00
  P1ah  TX2e  1 3.950000e-01    1.670000e+00
  P1ah  TX1e  1 3.980000e-01    1.450000e+00
   P6q TP1ah  1 3.950000e-01    3.670000e+00
   P5q TP1ah  1 3.950000e-01    3.430000e+00
   P4q TP1ah  1 3.950000e-01    3.430000e+00
   P3q TP1ah  1 3.950000e-01    3.430000e+00
   P2q TP1ah  1 3.950000e-01    3.430000e+00
   P1q TP1ah  1 3.950000e-01    3.430000e+00
  P1ah  TN6q  1 3.950000e-01    3.430000e+00
  P1ah  TN5q  1 3.950000e-01    3.190000e+00
  P1ah  TN4q  1 3.950000e-01    3.190000e+00
  P1ah  TN3q  1 3.950000e-01    2.700000e+00
  P1ah  TN2q  1 3.950000e-01    2.700000e+00
  P1ah  TN1q  1 3.950000e-01    2.700000e+00
  P1ah  TC6q  1 3.950000e-01    2.500000e+00
  P1ah  TC5q  1 3.950000e-01    2.310000e+00
  P1ah  TC4q  1 3.950000e-01    2.110000e+00
  P1ah  TC3q  1 3.950000e-01    1.850000e+00
  P1ah  TC2q  1 3.950000e-01    1.850000e+00
  P1ah  TC1q  1 3.950000e-01    1.670000e+00
  P1ah  TX4q  1 3.950000e-01    2.500000e+00
  P1ah  TX3q  1 3.950000e-01    2.500000e+00
  P1ah  TX2q  1 3.950000e-01    2.310000e+00
  P1ah  TX1q  1 3.950000e-01    2.110000e+00
  P6dq TP1ah  1 3.950000e-01    3.910000e+00
  P5dq TP1ah  1 3.950000e-01    3.670000e+00
  P4dq TP1ah  1 3.950000e-01    3.670000e+00
  P3dq TP1ah  1 3.950000e-01    3.670000e+00
  P2dq TP1ah  1 3.950000e-01    3.670000e+00
  P1dq TP1ah  1 3.950000e-01    3.670000e+00
  P1ah TN6dq  1 3.950000e-01    3.670000e+00
  P1ah TN5dq  1 3.950000e-01    3.430000e+00
  P1ah TN4dq  1 3.950000e-01    3.430000e+00
  P1ah TN3dq  1 3.950000e-01    2.940000e+00
  P1ah TN2dq  1 3.950000e-01    2.940000e+00
  P1ah TN1dq  1 3.950000e-01    2.940000e+00
  P6aq TP1ah  1 3.950000e-01    3.430000e+00
  P5aq TP1ah  1 3.950000e-01    3.190000e+00
  P4aq TP1ah  1 3.950000e-01    3.190000e+00
  P3aq TP1ah  1 3.950000e-01    3.190000e+00
  P2aq TP1ah  1 3.950000e-01    3.190000e+00
  P1ah TP1aq  1 3.950000e-01    3.190000e+00
  P1ah TX1eq  1 3.950000e-01    1.850000e+00
  P1ah TX2eq  1 3.950000e-01    2.110000e+00
  P1ah TX3eq  1 3.950000e-01    2.310000e+00
  P1ah TX4eq  1 3.950000e-01    2.310000e+00
  P1ah TC1eq  1 3.980000e-01    1.450000e+00
  P1ah TC2eq  1 3.950000e-01    1.670000e+00
  P1ah TC3eq  1 3.950000e-01    1.670000e+00
  P1ah TC4eq  1 3.950000e-01    1.850000e+00
  P1ah TC5eq  1 3.950000e-01    2.110000e+00
  P1ah TC6eq  1 3.950000e-01    2.310000e+00
  P1ah TX1vq  1 3.950000e-01    2.310000e+00
  P1ah TX2vq  1 3.950000e-01    2.500000e+00
  P1ah TX3vq  1 3.950000e-01    2.700000e+00
  P1ah TX4vq  1 3.950000e-01    2.700000e+00
  P1ah TC1vq  1 3.950000e-01    1.850000e+00
  P1ah TC2vq  1 3.950000e-01    2.110000e+00
  P1ah TC3vq  1 3.950000e-01    2.110000e+00
  P1ah TC4vq  1 3.950000e-01    2.310000e+00
  P1ah TC5vq  1 3.950000e-01    2.500000e+00
  P1ah TC6vq  1 3.950000e-01    2.700000e+00
  P1ah TN1aq  1 3.950000e-01    2.500000e+00
  P1ah TN2aq  1 3.950000e-01    2.500000e+00
  P1ah TN3aq  1 3.950000e-01    2.500000e+00
  P1ah TN4aq  1 3.950000e-01    2.940000e+00
  P1ah TN5aq  1 3.950000e-01    2.940000e+00
  P1ah TN6aq  1 3.950000e-01    3.190000e+00
   N6a TN6ah  1 3.950000e-01    2.700000e+00
  N6ah  TN5a  1 3.950000e-01    2.700000e+00
  N6ah  TN4a  1 3.950000e-01    2.700000e+00
  N6ah  TN3a  1 3.950000e-01    2.310000e+00
  N6ah  TN2a  1 3.950000e-01    2.110000e+00
  N6ah  TN1a  1 3.950000e-01    2.110000e+00
  N6ah  TC6v  1 3.950000e-01    2.500000e+00
  N6ah  TC5v  1 3.950000e-01    2.310000e+00
  N6ah  TC4v  1 3.950000e-01    2.110000e+00
  N6ah  TC3v  1 3.950000e-01    1.850000e+00
  N6ah  TC2v  1 3.950000e-01    1.850000e+00
  N6ah  TC1v  1 3.950000e-01    1.670000e+00
  N6ah  TX4v  1 3.950000e-01    2.500000e+00
  N6ah  TX3v  1 3.950000e-01    2.310000e+00
  N6ah  TX2v  1 3.950000e-01    2.110000e+00
  N6ah  TX1v  1 3.950000e-01    1.850000e+00
  N6ah  TC6e  1 3.950000e-01    2.110000e+00
  N6ah  TC5e  1 3.950000e-01    1.850000e+00
  N6ah  TC4e  1 3.950000e-01    1.670000e+00
  N6ah  TC3e  1 3.980000e-01    1.450000e+00
  N6ah  TC2e  1 3.980000e-01    1.450000e+00
  N6ah  TC1e  1 3.990000e-01    1.180000e+00
  N6ah  TX4e  1 3.950000e-01    2.110000e+00
  N6ah  TX3e  1 3.950000e-01    1.850000e+00
  N6ah  TX2e  1 3.950000e-01    1.670000e+00
  N6ah  TX1e  1 3.980000e-01    1.450000e+00
   P6q TN6ah  1 3.950000e-01    3.430000e+00
   P5q TN6ah  1 3.950000e-01    3.190000e+00
   P4q TN6ah  1 3.950000e-01    3.190000e+00
   P3q TN6ah  1 3.950000e-01    3.190000e+00
   P2q TN6ah  1 3.950000e-01    3.430000e+00
   P1q TN6ah  1 3.950000e-01    3.430000e+00
   N6q TN6ah  1 3.950000e-01    3.430000e+00
  N6ah  TN5q  1 3.950000e-01    3.430000e+00
  N6ah  TN4q  1 3.950000e-01    3.430000e+00
  N6ah  TN3q  1 3.950000e-01    2.940000e+00
  N6ah  TN2q  1 3.950000e-01    2.700000e+00
  N6ah  TN1q  1 3.950000e-01    2.700000e+00
  N6ah  TC6q  1 3.950000e-01    2.700000e+00
  N6ah  TC5q  1 3.950000e-01    2.500000e+00
  N6ah  TC4q  1 3.950000e-01    2.310000e+00
  N6ah  TC3q  1 3.950000e-01    2.110000e+00
  N6ah  TC2q  1 3.950000e-01    2.110000e+00
  N6ah  TC1q  1 3.950000e-01    1.850000e+00
  N6ah  TX4q  1 3.950000e-01    2.700000e+00
  N6ah  TX3q  1 3.950000e-01    2.500000e+00
  N6ah  TX2q  1 3.950000e-01    2.310000e+00
  N6ah  TX1q  1 3.950000e-01    2.110000e+00
  P6dq TN6ah  1 3.950000e-01    3.670000e+00
  P5dq TN6ah  1 3.950000e-01    3.430000e+00
  P4dq TN6ah  1 3.950000e-01    3.430000e+00
  P3dq TN6ah  1 3.950000e-01    3.430000e+00
  P2dq TN6ah  1 3.950000e-01    3.670000e+00
  P1dq TN6ah  1 3.950000e-01    3.670000e+00
  N6dq TN6ah  1 3.950000e-01    3.670000e+00
  N6ah TN5dq  1 3.950000e-01    3.670000e+00
  N6ah TN4dq  1 3.950000e-01    3.670000e+00
  N6ah TN3dq  1 3.950000e-01    3.190000e+00
  N6ah TN2dq  1 3.950000e-01    2.940000e+00
  N6ah TN1dq  1 3.950000e-01    2.940000e+00
  P6aq TN6ah  1 3.950000e-01    3.190000e+00
  P5aq TN6ah  1 3.950000e-01    2.940000e+00
  P4aq TN6ah  1 3.950000e-01    2.940000e+00
  P3aq TN6ah  1 3.950000e-01    2.940000e+00
  P2aq TN6ah  1 3.950000e-01    3.190000e+00
  P1aq TN6ah  1 3.950000e-01    3.190000e+00
  N6ah TN6aq  1 3.950000e-01    3.190000e+00
  N6ah TX1eq  1 3.950000e-01    1.850000e+00
  N6ah TX2eq  1 3.950000e-01    2.110000e+00
  N6ah TX3eq  1 3.950000e-01    2.310000e+00
  N6ah TX4eq  1 3.950000e-01    2.500000e+00
  N6ah TC1eq  1 3.950000e-01    1.670000e+00
  N6ah TC2eq  1 3.950000e-01    1.850000e+00
  N6ah TC3eq  1 3.950000e-01    1.850000e+00
  N6ah TC4eq  1 3.950000e-01    2.110000e+00
  N6ah TC5eq  1 3.950000e-01    2.310000e+00
  N6ah TC6eq  1 3.950000e-01    2.500000e+00
  N6ah TX1vq  1 3.950000e-01    2.310000e+00
  N6ah TX2vq  1 3.950000e-01    2.500000e+00
  N6ah TX3vq  1 3.950000e-01    2.700000e+00
  N6ah TX4vq  1 3.950000e-01    2.940000e+00
  N6ah TC1vq  1 3.950000e-01    2.110000e+00
  N6ah TC2vq  1 3.950000e-01    2.310000e+00
  N6ah TC3vq  1 3.950000e-01    2.310000e+00
  N6ah TC4vq  1 3.950000e-01    2.500000e+00
  N6ah TC5vq  1 3.950000e-01    2.700000e+00
  N6ah TC6vq  1 3.950000e-01    2.940000e+00
  N6ah TN1aq  1 3.950000e-01    2.500000e+00
  N6ah TN2aq  1 3.950000e-01    2.500000e+00
  N6ah TN3aq  1 3.950000e-01    2.700000e+00
  N6ah TN4aq  1 3.950000e-01    3.190000e+00
  N6ah TN5aq  1 3.950000e-01    3.190000e+00
   N5a TN5ah  1 3.950000e-01    2.500000e+00
  N5ah  TN4a  1 3.950000e-01    2.500000e+00
  N5ah  TN3a  1 3.950000e-01    2.310000e+00
  N5ah  TN2a  1 3.950000e-01    2.310000e+00
  N5ah  TN1a  1 3.950000e-01    2.110000e+00
  N5ah  TC6v  1 3.950000e-01    2.500000e+00
  N5ah  TC5v  1 3.950000e-01    2.310000e+00
  N5ah  TC4v  1 3.950000e-01    2.110000e+00
  N5ah  TC3v  1 3.950000e-01    2.110000e+00
  N5ah  TC2v  1 3.950000e-01    1.850000e+00
  N5ah  TC1v  1 3.950000e-01    1.670000e+00
  N5ah  TX4v  1 3.950000e-01    2.700000e+00
  N5ah  TX3v  1 3.950000e-01    2.500000e+00
  N5ah  TX2v  1 3.950000e-01    2.310000e+00
  N5ah  TX1v  1 3.950000e-01    2.110000e+00
  N5ah  TC6e  1 3.950000e-01    2.110000e+00
  N5ah  TC5e  1 3.950000e-01    1.850000e+00
  N5ah  TC4e  1 3.950000e-01    1.670000e+00
  N5ah  TC3e  1 3.950000e-01    1.670000e+00
  N5ah  TC2e  1 3.980000e-01    1.450000e+00
  N5ah  TC1e  1 3.990000e-01    1.180000e+00
  N5ah  TX4e  1 3.950000e-01    2.310000e+00
  N5ah  TX3e  1 3.950000e-01    2.110000e+00
  N5ah  TX2e  1 3.950000e-01    1.850000e+00
  N5ah  TX1e  1 3.950000e-01    1.670000e+00
   P6q TN5ah  1 3.950000e-01    2.940000e+00
   P5q TN5ah  1 3.950000e-01    2.940000e+00
   P4q TN5ah  1 3.950000e-01    2.940000e+00
   P3q TN5ah  1 3.950000e-01    2.940000e+00
   P2q TN5ah  1 3.950000e-01    3.190000e+00
   P1q TN5ah  1 3.950000e-01    3.190000e+00
   N6q TN5ah  1 3.950000e-01    3.430000e+00
   N5q TN5ah  1 3.950000e-01    3.190000e+00
  N5ah  TN4q  1 3.950000e-01    3.190000e+00
  N5ah  TN3q  1 3.950000e-01    2.940000e+00
  N5ah  TN2q  1 3.950000e-01    2.940000e+00
  N5ah  TN1q  1 3.950000e-01    2.700000e+00
  N5ah  TC6q  1 3.950000e-01    2.700000e+00
  N5ah  TC5q  1 3.950000e-01    2.500000e+00
  N5ah  TC4q  1 3.950000e-01    2.310000e+00
  N5ah  TC3q  1 3.950000e-01    2.310000e+00
  N5ah  TC2q  1 3.950000e-01    2.110000e+00
  N5ah  TC1q  1 3.950000e-01    1.850000e+00
  N5ah  TX4q  1 3.950000e-01    2.940000e+00
  N5ah  TX3q  1 3.950000e-01    2.700000e+00
  N5ah  TX2q  1 3.950000e-01    2.500000e+00
  N5ah  TX1q  1 3.950000e-01    2.310000e+00
  P6dq TN5ah  1 3.950000e-01    3.190000e+00
  P5dq TN5ah  1 3.950000e-01    3.190000e+00
  P4dq TN5ah  1 3.950000e-01    3.190000e+00
  P3dq TN5ah  1 3.950000e-01    3.190000e+00
  P2dq TN5ah  1 3.950000e-01    3.430000e+00
  P1dq TN5ah  1 3.950000e-01    3.430000e+00
  N6dq TN5ah  1 3.950000e-01    3.670000e+00
  N5dq TN5ah  1 3.950000e-01    3.430000e+00
  N5ah TN4dq  1 3.950000e-01    3.430000e+00
  N5ah TN3dq  1 3.950000e-01    3.190000e+00
  N5ah TN2dq  1 3.950000e-01    3.190000e+00
  N5ah TN1dq  1 3.950000e-01    2.940000e+00
  P6aq TN5ah  1 3.950000e-01    2.700000e+00
  P5aq TN5ah  1 3.950000e-01    2.700000e+00
  P4aq TN5ah  1 3.950000e-01    2.700000e+00
  P3aq TN5ah  1 3.950000e-01    2.700000e+00
  P2aq TN5ah  1 3.950000e-01    2.940000e+00
  P1aq TN5ah  1 3.950000e-01    2.940000e+00
  N6aq TN5ah  1 3.950000e-01    3.190000e+00
  N5ah TN5aq  1 3.950000e-01    2.940000e+00
  N5ah TX1eq  1 3.950000e-01    2.110000e+00
  N5ah TX2eq  1 3.950000e-01    2.310000e+00
  N5ah TX3eq  1 3.950000e-01    2.500000e+00
  N5ah TX4eq  1 3.950000e-01    2.700000e+00
  N5ah TC1eq  1 3.950000e-01    1.670000e+00
  N5ah TC2eq  1 3.950000e-01    1.850000e+00
  N5ah TC3eq  1 3.950000e-01    2.110000e+00
  N5ah TC4eq  1 3.950000e-01    2.110000e+00
  N5ah TC5eq  1 3.950000e-01    2.310000e+00
  N5ah TC6eq  1 3.950000e-01    2.500000e+00
  N5ah TX1vq  1 3.950000e-01    2.500000e+00
  N5ah TX2vq  1 3.950000e-01    2.700000e+00
  N5ah TX3vq  1 3.950000e-01    2.940000e+00
  N5ah TX4vq  1 3.950000e-01    3.190000e+00
  N5ah TC1vq  1 3.950000e-01    2.110000e+00
  N5ah TC2vq  1 3.950000e-01    2.310000e+00
  N5ah TC3vq  1 3.950000e-01    2.500000e+00
  N5ah TC4vq  1 3.950000e-01    2.500000e+00
  N5ah TC5vq  1 3.950000e-01    2.700000e+00
  N5ah TC6vq  1 3.950000e-01    2.940000e+00
  N5ah TN1aq  1 3.950000e-01    2.500000e+00
  N5ah TN2aq  1 3.950000e-01    2.700000e+00
  N5ah TN3aq  1 3.950000e-01    2.700000e+00
  N5ah TN4aq  1 3.950000e-01    2.940000e+00
   N4a TN4ah  1 3.950000e-01    2.500000e+00
  N4ah  TN3a  1 3.950000e-01    2.310000e+00
  N4ah  TN2a  1 3.950000e-01    2.310000e+00
  N4ah  TN1a  1 3.950000e-01    2.110000e+00
  N4ah  TC6v  1 3.950000e-01    2.500000e+00
  N4ah  TC5v  1 3.950000e-01    2.310000e+00
  N4ah  TC4v  1 3.950000e-01    2.310000e+00
  N4ah  TC3v  1 3.950000e-01    2.110000e+00
  N4ah  TC2v  1 3.950000e-01    1.850000e+00
  N4ah  TC1v  1 3.950000e-01    1.670000e+00
  N4ah  TX4v  1 3.950000e-01    2.940000e+00
  N4ah  TX3v  1 3.950000e-01    2.700000e+00
  N4ah  TX2v  1 3.950000e-01    2.310000e+00
  N4ah  TX1v  1 3.950000e-01    2.110000e+00
  N4ah  TC6e  1 3.950000e-01    2.110000e+00
  N4ah  TC5e  1 3.950000e-01    1.850000e+00
  N4ah  TC4e  1 3.950000e-01    1.850000e+00
  N4ah  TC3e  1 3.950000e-01    1.670000e+00
  N4ah  TC2e  1 3.980000e-01    1.450000e+00
  N4ah  TC1e  1 3.990000e-01    1.180000e+00
  N4ah  TX4e  1 3.950000e-01    2.500000e+00
  N4ah  TX3e  1 3.950000e-01    2.310000e+00
  N4ah  TX2e  1 3.950000e-01    1.850000e+00
  N4ah  TX1e  1 3.950000e-01    1.670000e+00
   P6q TN4ah  1 3.950000e-01    2.700000e+00
   P5q TN4ah  1 3.950000e-01    2.940000e+00
   P4q TN4ah  1 3.950000e-01    2.940000e+00
   P3q TN4ah  1 3.950000e-01    2.940000e+00
   P2q TN4ah  1 3.950000e-01    2.940000e+00
   P1q TN4ah  1 3.950000e-01    3.190000e+00
   N6q TN4ah  1 3.950000e-01    3.430000e+00
   N5q TN4ah  1 3.950000e-01    3.190000e+00
   N4q TN4ah  1 3.950000e-01    3.190000e+00
  N4ah  TN3q  1 3.950000e-01    2.940000e+00
  N4ah  TN2q  1 3.950000e-01    2.940000e+00
  N4ah  TN1q  1 3.950000e-01    2.700000e+00
  N4ah  TC6q  1 3.950000e-01    2.700000e+00
  N4ah  TC5q  1 3.950000e-01    2.500000e+00
  N4ah  TC4q  1 3.950000e-01    2.500000e+00
  N4ah  TC3q  1 3.950000e-01    2.310000e+00
  N4ah  TC2q  1 3.950000e-01    2.110000e+00
  N4ah  TC1q  1 3.950000e-01    1.850000e+00
  N4ah  TX4q  1 3.950000e-01    3.190000e+00
  N4ah  TX3q  1 3.950000e-01    2.940000e+00
  N4ah  TX2q  1 3.950000e-01    2.500000e+00
  N4ah  TX1q  1 3.950000e-01    2.310000e+00
  P6dq TN4ah  1 3.950000e-01    2.940000e+00
  P5dq TN4ah  1 3.950000e-01    3.190000e+00
  P4dq TN4ah  1 3.950000e-01    3.190000e+00
  P3dq TN4ah  1 3.950000e-01    3.190000e+00
  P2dq TN4ah  1 3.950000e-01    3.190000e+00
  P1dq TN4ah  1 3.950000e-01    3.430000e+00
  N6dq TN4ah  1 3.950000e-01    3.670000e+00
  N5dq TN4ah  1 3.950000e-01    3.430000e+00
  N4dq TN4ah  1 3.950000e-01    3.430000e+00
  N4ah TN3dq  1 3.950000e-01    3.190000e+00
  N4ah TN2dq  1 3.950000e-01    3.190000e+00
  N4ah TN1dq  1 3.950000e-01    2.940000e+00
  P6aq TN4ah  1 3.950000e-01    2.500000e+00
  P5aq TN4ah  1 3.950000e-01    2.700000e+00
  P4aq TN4ah  1 3.950000e-01    2.700000e+00
  P3aq TN4ah  1 3.950000e-01    2.700000e+00
  P2aq TN4ah  1 3.950000e-01    2.700000e+00
  P1aq TN4ah  1 3.950000e-01    2.940000e+00
  N6aq TN4ah  1 3.950000e-01    3.190000e+00
  N5aq TN4ah  1 3.950000e-01    2.940000e+00
  N4ah TN4aq  1 3.950000e-01    2.940000e+00
  N4ah TX1eq  1 3.950000e-01    2.110000e+00
  N4ah TX2eq  1 3.950000e-01    2.310000e+00
  N4ah TX3eq  1 3.950000e-01    2.700000e+00
  N4ah TX4eq  1 3.950000e-01    2.940000e+00
  N4ah TC1eq  1 3.950000e-01    1.670000e+00
  N4ah TC2eq  1 3.950000e-01    1.850000e+00
  N4ah TC3eq  1 3.950000e-01    2.110000e+00
  N4ah TC4eq  1 3.950000e-01    2.310000e+00
  N4ah TC5eq  1 3.950000e-01    2.310000e+00
  N4ah TC6eq  1 3.950000e-01    2.500000e+00
  N4ah TX1vq  1 3.950000e-01    2.500000e+00
  N4ah TX2vq  1 3.950000e-01    2.700000e+00
  N4ah TX3vq  1 3.950000e-01    3.190000e+00
  N4ah TX4vq  1 3.950000e-01    3.430000e+00
  N4ah TC1vq  1 3.950000e-01    2.110000e+00
  N4ah TC2vq  1 3.950000e-01    2.310000e+00
  N4ah TC3vq  1 3.950000e-01    2.500000e+00
  N4ah TC4vq  1 3.950000e-01    2.700000e+00
  N4ah TC5vq  1 3.950000e-01    2.700000e+00
  N4ah TC6vq  1 3.950000e-01    2.940000e+00
  N4ah TN1aq  1 3.950000e-01    2.500000e+00
  N4ah TN2aq  1 3.950000e-01    2.700000e+00
  N4ah TN3aq  1 3.950000e-01    2.700000e+00
   N3a TN3ah  1 3.950000e-01    2.310000e+00
  N3ah  TN2a  1 3.950000e-01    2.310000e+00
  N3ah  TN1a  1 3.950000e-01    2.110000e+00
  N3ah  TC6v  1 3.950000e-01    2.500000e+00
  N3ah  TC5v  1 3.950000e-01    2.310000e+00
  N3ah  TC4v  1 3.950000e-01    2.310000e+00
  N3ah  TC3v  1 3.950000e-01    2.110000e+00
  N3ah  TC2v  1 3.950000e-01    2.110000e+00
  N3ah  TC1v  1 3.950000e-01    1.850000e+00
  N3ah  TX4v  1 3.950000e-01    2.700000e+00
  N3ah  TX3v  1 3.950000e-01    2.500000e+00
  N3ah  TX2v  1 3.950000e-01    2.310000e+00
  N3ah  TX1v  1 3.950000e-01    2.310000e+00
  N3ah  TC6e  1 3.950000e-01    2.110000e+00
  N3ah  TC5e  1 3.950000e-01    1.850000e+00
  N3ah  TC4e  1 3.950000e-01    1.850000e+00
  N3ah  TC3e  1 3.950000e-01    1.670000e+00
  N3ah  TC2e  1 3.950000e-01    1.670000e+00
  N3ah  TC1e  1 3.980000e-01    1.450000e+00
  N3ah  TX4e  1 3.950000e-01    2.310000e+00
  N3ah  TX3e  1 3.950000e-01    2.110000e+00
  N3ah  TX2e  1 3.950000e-01    1.850000e+00
  N3ah  TX1e  1 3.950000e-01    1.850000e+00
   P6q TN3ah  1 3.950000e-01    2.500000e+00
   P5q TN3ah  1 3.950000e-01    2.500000e+00
   P4q TN3ah  1 3.950000e-01    2.700000e+00
   P3q TN3ah  1 3.950000e-01    2.700000e+00
   P2q TN3ah  1 3.950000e-01    2.700000e+00
   P1q TN3ah  1 3.950000e-01    2.700000e+00
   N6q TN3ah  1 3.950000e-01    2.940000e+00
   N5q TN3ah  1 3.950000e-01    2.940000e+00
   N4q TN3ah  1 3.950000e-01    2.940000e+00
   N3q TN3ah  1 3.950000e-01    2.940000e+00
  N3ah  TN2q  1 3.950000e-01    2.940000e+00
  N3ah  TN1q  1 3.950000e-01    2.700000e+00
  N3ah  TC6q  1 3.950000e-01    2.700000e+00
  N3ah  TC5q  1 3.950000e-01    2.500000e+00
  N3ah  TC4q  1 3.950000e-01    2.500000e+00
  N3ah  TC3q  1 3.950000e-01    2.310000e+00
  N3ah  TC2q  1 3.950000e-01    2.310000e+00
  N3ah  TC1q  1 3.950000e-01    2.110000e+00
  N3ah  TX4q  1 3.950000e-01    2.940000e+00
  N3ah  TX3q  1 3.950000e-01    2.700000e+00
  N3ah  TX2q  1 3.950000e-01    2.500000e+00
  N3ah  TX1q  1 3.950000e-01    2.500000e+00
  P6dq TN3ah  1 3.950000e-01    2.500000e+00
  P5dq TN3ah  1 3.950000e-01    2.500000e+00
  P4dq TN3ah  1 3.950000e-01    2.940000e+00
  P3dq TN3ah  1 3.950000e-01    2.940000e+00
  P2dq TN3ah  1 3.950000e-01    2.940000e+00
  P1dq TN3ah  1 3.950000e-01    2.940000e+00
  N6dq TN3ah  1 3.950000e-01    3.190000e+00
  N5dq TN3ah  1 3.950000e-01    3.190000e+00
  N4dq TN3ah  1 3.950000e-01    3.190000e+00
  N3dq TN3ah  1 3.950000e-01    3.190000e+00
  N3ah TN2dq  1 3.950000e-01    3.190000e+00
  N3ah TN1dq  1 3.950000e-01    2.940000e+00
  P6aq TN3ah  1 3.950000e-01    2.500000e+00
  P5aq TN3ah  1 3.950000e-01    2.500000e+00
  P4aq TN3ah  1 3.950000e-01    2.500000e+00
  P3aq TN3ah  1 3.950000e-01    2.500000e+00
  P2aq TN3ah  1 3.950000e-01    2.500000e+00
  P1aq TN3ah  1 3.950000e-01    2.500000e+00
  N6aq TN3ah  1 3.950000e-01    2.700000e+00
  N5aq TN3ah  1 3.950000e-01    2.700000e+00
  N4aq TN3ah  1 3.950000e-01    2.700000e+00
  N3ah TN3aq  1 3.950000e-01    2.700000e+00
  N3ah TX1eq  1 3.950000e-01    2.310000e+00
  N3ah TX2eq  1 3.950000e-01    2.310000e+00
  N3ah TX3eq  1 3.950000e-01    2.500000e+00
  N3ah TX4eq  1 3.950000e-01    2.700000e+00
  N3ah TC1eq  1 3.950000e-01    1.850000e+00
  N3ah TC2eq  1 3.950000e-01    2.110000e+00
  N3ah TC3eq  1 3.950000e-01    2.110000e+00
  N3ah TC4eq  1 3.950000e-01    2.310000e+00
  N3ah TC5eq  1 3.950000e-01    2.310000e+00
  N3ah TC6eq  1 3.950000e-01    2.500000e+00
  N3ah TX1vq  1 3.950000e-01    2.700000e+00
  N3ah TX2vq  1 3.950000e-01    2.700000e+00
  N3ah TX3vq  1 3.950000e-01    2.940000e+00
  N3ah TX4vq  1 3.950000e-01    3.190000e+00
  N3ah TC1vq  1 3.950000e-01    2.310000e+00
  N3ah TC2vq  1 3.950000e-01    2.500000e+00
  N3ah TC3vq  1 3.950000e-01    2.500000e+00
  N3ah TC4vq  1 3.950000e-01    2.700000e+00
  N3ah TC5vq  1 3.950000e-01    2.700000e+00
  N3ah TC6vq  1 3.950000e-01    2.940000e+00
  N3ah TN1aq  1 3.950000e-01    2.500000e+00
  N3ah TN2aq  1 3.950000e-01    2.700000e+00
   N2a TN2ah  1 3.950000e-01    2.310000e+00
  N2ah  TN1a  1 3.950000e-01    2.110000e+00
  N2ah  TC6v  1 3.950000e-01    2.500000e+00
  N2ah  TC5v  1 3.950000e-01    2.310000e+00
  N2ah  TC4v  1 3.950000e-01    2.310000e+00
  N2ah  TC3v  1 3.950000e-01    2.310000e+00
  N2ah  TC2v  1 3.950000e-01    2.110000e+00
  N2ah  TC1v  1 3.950000e-01    1.850000e+00
  N2ah  TX4v  1 3.950000e-01    2.700000e+00
  N2ah  TX3v  1 3.950000e-01    2.500000e+00
  N2ah  TX2v  1 3.950000e-01    2.310000e+00
  N2ah  TX1v  1 3.950000e-01    2.310000e+00
  N2ah  TC6e  1 3.950000e-01    2.110000e+00
  N2ah  TC5e  1 3.950000e-01    1.850000e+00
  N2ah  TC4e  1 3.950000e-01    1.850000e+00
  N2ah  TC3e  1 3.950000e-01    1.850000e+00
  N2ah  TC2e  1 3.950000e-01    1.670000e+00
  N2ah  TC1e  1 3.980000e-01    1.450000e+00
  N2ah  TX4e  1 3.950000e-01    2.310000e+00
  N2ah  TX3e  1 3.950000e-01    2.110000e+00
  N2ah  TX2e  1 3.950000e-01    1.850000e+00
  N2ah  TX1e  1 3.950000e-01    1.850000e+00
   P6q TN2ah  1 3.950000e-01    2.310000e+00
   P5q TN2ah  1 3.950000e-01    2.310000e+00
   P4q TN2ah  1 3.950000e-01    2.500000e+00
   P3q TN2ah  1 3.950000e-01    2.700000e+00
   P2q TN2ah  1 3.950000e-01    2.700000e+00
   P1q TN2ah  1 3.950000e-01    2.700000e+00
   N6q TN2ah  1 3.950000e-01    2.700000e+00
   N5q TN2ah  1 3.950000e-01    2.940000e+00
   N4q TN2ah  1 3.950000e-01    2.940000e+00
   N3q TN2ah  1 3.950000e-01    2.940000e+00
   N2q TN2ah  1 3.950000e-01    2.940000e+00
  N2ah  TN1q  1 3.950000e-01    2.700000e+00
  N2ah  TC6q  1 3.950000e-01    2.700000e+00
  N2ah  TC5q  1 3.950000e-01    2.500000e+00
  N2ah  TC4q  1 3.950000e-01    2.500000e+00
  N2ah  TC3q  1 3.950000e-01    2.500000e+00
  N2ah  TC2q  1 3.950000e-01    2.310000e+00
  N2ah  TC1q  1 3.950000e-01    2.110000e+00
  N2ah  TX4q  1 3.950000e-01    2.940000e+00
  N2ah  TX3q  1 3.950000e-01    2.700000e+00
  N2ah  TX2q  1 3.950000e-01    2.500000e+00
  N2ah  TX1q  1 3.950000e-01    2.500000e+00
  P6dq TN2ah  1 3.950000e-01    2.310000e+00
  P5dq TN2ah  1 3.950000e-01    2.310000e+00
  P4dq TN2ah  1 3.950000e-01    2.500000e+00
  P3dq TN2ah  1 3.950000e-01    2.940000e+00
  P2dq TN2ah  1 3.950000e-01    2.940000e+00
  P1dq TN2ah  1 3.950000e-01    2.940000e+00
  N6dq TN2ah  1 3.950000e-01    2.940000e+00
  N5dq TN2ah  1 3.950000e-01    3.190000e+00
  N4dq TN2ah  1 3.950000e-01    3.190000e+00
  N3dq TN2ah  1 3.950000e-01    3.190000e+00
  N2dq TN2ah  1 3.950000e-01    3.190000e+00
  N2ah TN1dq  1 3.950000e-01    2.940000e+00
  P6aq TN2ah  1 3.950000e-01    2.310000e+00
  P5aq TN2ah  1 3.950000e-01    2.310000e+00
  P4aq TN2ah  1 3.950000e-01    2.500000e+00
  P3aq TN2ah  1 3.950000e-01    2.500000e+00
  P2aq TN2ah  1 3.950000e-01    2.500000e+00
  P1aq TN2ah  1 3.950000e-01    2.500000e+00
  N6aq TN2ah  1 3.950000e-01    2.500000e+00
  N5aq TN2ah  1 3.950000e-01    2.700000e+00
  N4aq TN2ah  1 3.950000e-01    2.700000e+00
  N3aq TN2ah  1 3.950000e-01    2.700000e+00
  N2ah TN2aq  1 3.950000e-01    2.700000e+00
  N2ah TX1eq  1 3.950000e-01    2.310000e+00
  N2ah TX2eq  1 3.950000e-01    2.310000e+00
  N2ah TX3eq  1 3.950000e-01    2.500000e+00
  N2ah TX4eq  1 3.950000e-01    2.700000e+00
  N2ah TC1eq  1 3.950000e-01    1.850000e+00
  N2ah TC2eq  1 3.950000e-01    2.110000e+00
  N2ah TC3eq  1 3.950000e-01    2.310000e+00
  N2ah TC4eq  1 3.950000e-01    2.310000e+00
  N2ah TC5eq  1 3.950000e-01    2.310000e+00
  N2ah TC6eq  1 3.950000e-01    2.500000e+00
  N2ah TX1vq  1 3.950000e-01    2.700000e+00
  N2ah TX2vq  1 3.950000e-01    2.700000e+00
  N2ah TX3vq  1 3.950000e-01    2.940000e+00
  N2ah TX4vq  1 3.950000e-01    3.190000e+00
  N2ah TC1vq  1 3.950000e-01    2.310000e+00
  N2ah TC2vq  1 3.950000e-01    2.500000e+00
  N2ah TC3vq  1 3.950000e-01    2.700000e+00
  N2ah TC4vq  1 3.950000e-01    2.700000e+00
  N2ah TC5vq  1 3.950000e-01    2.700000e+00
  N2ah TC6vq  1 3.950000e-01    2.940000e+00
  N2ah TN1aq  1 3.950000e-01    2.500000e+00
   N1a TN1ah  1 3.950000e-01    2.310000e+00
  N1ah  TC6v  1 3.950000e-01    2.700000e+00
  N1ah  TC5v  1 3.950000e-01    2.500000e+00
  N1ah  TC4v  1 3.950000e-01    2.500000e+00
  N1ah  TC3v  1 3.950000e-01    2.310000e+00
  N1ah  TC2v  1 3.950000e-01    2.110000e+00
  N1ah  TC1v  1 3.950000e-01    1.850000e+00
  N1ah  TX4v  1 3.950000e-01    2.500000e+00
  N1ah  TX3v  1 3.950000e-01    2.500000e+00
  N1ah  TX2v  1 3.950000e-01    2.310000e+00
  N1ah  TX1v  1 3.950000e-01    2.310000e+00
  N1ah  TC6e  1 3.950000e-01    2.310000e+00
  N1ah  TC5e  1 3.950000e-01    2.110000e+00
  N1ah  TC4e  1 3.950000e-01    2.110000e+00
  N1ah  TC3e  1 3.950000e-01    1.850000e+00
  N1ah  TC2e  1 3.950000e-01    1.670000e+00
  N1ah  TC1e  1 3.980000e-01    1.450000e+00
  N1ah  TX4e  1 3.950000e-01    2.110000e+00
  N1ah  TX3e  1 3.950000e-01    2.110000e+00
  N1ah  TX2e  1 3.950000e-01    1.850000e+00
  N1ah  TX1e  1 3.950000e-01    1.850000e+00
   P6q TN1ah  1 3.950000e-01    2.110000e+00
   P5q TN1ah  1 3.950000e-01    2.110000e+00
   P4q TN1ah  1 3.950000e-01    2.310000e+00
   P3q TN1ah  1 3.950000e-01    2.500000e+00
   P2q TN1ah  1 3.950000e-01    2.700000e+00
   P1q TN1ah  1 3.950000e-01    2.700000e+00
   N6q TN1ah  1 3.950000e-01    2.700000e+00
   N5q TN1ah  1 3.950000e-01    2.700000e+00
   N4q TN1ah  1 3.950000e-01    2.700000e+00
   N3q TN1ah  1 3.950000e-01    2.700000e+00
   N2q TN1ah  1 3.950000e-01    2.700000e+00
   N1q TN1ah  1 3.950000e-01    2.940000e+00
  N1ah  TC6q  1 3.950000e-01    2.940000e+00
  N1ah  TC5q  1 3.950000e-01    2.700000e+00
  N1ah  TC4q  1 3.950000e-01    2.700000e+00
  N1ah  TC3q  1 3.950000e-01    2.500000e+00
  N1ah  TC2q  1 3.950000e-01    2.310000e+00
  N1ah  TC1q  1 3.950000e-01    2.110000e+00
  N1ah  TX4q  1 3.950000e-01    2.700000e+00
  N1ah  TX3q  1 3.950000e-01    2.700000e+00
  N1ah  TX2q  1 3.950000e-01    2.500000e+00
  N1ah  TX1q  1 3.950000e-01    2.500000e+00
  P6dq TN1ah  1 3.950000e-01    2.110000e+00
  P5dq TN1ah  1 3.950000e-01    2.110000e+00
  P4dq TN1ah  1 3.950000e-01    2.310000e+00
  P3dq TN1ah  1 3.950000e-01    2.500000e+00
  P2dq TN1ah  1 3.950000e-01    2.940000e+00
  P1dq TN1ah  1 3.950000e-01    2.940000e+00
  N6dq TN1ah  1 3.950000e-01    2.940000e+00
  N5dq TN1ah  1 3.950000e-01    2.940000e+00
  N4dq TN1ah  1 3.950000e-01    2.940000e+00
  N3dq TN1ah  1 3.950000e-01    2.940000e+00
  N2dq TN1ah  1 3.950000e-01    2.940000e+00
  N1dq TN1ah  1 3.950000e-01    3.190000e+00
  P6aq TN1ah  1 3.950000e-01    2.110000e+00
  P5aq TN1ah  1 3.950000e-01    2.110000e+00
  P4aq TN1ah  1 3.950000e-01    2.310000e+00
  P3aq TN1ah  1 3.950000e-01    2.500000e+00
  P2aq TN1ah  1 3.950000e-01    2.500000e+00
  P1aq TN1ah  1 3.950000e-01    2.500000e+00
  N6aq TN1ah  1 3.950000e-01    2.500000e+00
  N5aq TN1ah  1 3.950000e-01    2.500000e+00
  N4aq TN1ah  1 3.950000e-01    2.500000e+00
  N3aq TN1ah  1 3.950000e-01    2.500000e+00
  N2aq TN1ah  1 3.950000e-01    2.500000e+00
  N1ah TN1aq  1 3.950000e-01    2.700000e+00
  N1ah TX1eq  1 3.950000e-01    2.310000e+00
  N1ah TX2eq  1 3.950000e-01    2.310000e+00
  N1ah TX3eq  1 3.950000e-01    2.500000e+00
  N1ah TX4eq  1 3.950000e-01    2.500000e+00
  N1ah TC1eq  1 3.950000e-01    1.850000e+00
  N1ah TC2eq  1 3.950000e-01    2.110000e+00
  N1ah TC3eq  1 3.950000e-01    2.310000e+00
  N1ah TC4eq  1 3.950000e-01    2.500000e+00
  N1ah TC5eq  1 3.950000e-01    2.500000e+00
  N1ah TC6eq  1 3.950000e-01    2.700000e+00
  N1ah TX1vq  1 3.950000e-01    2.700000e+00
  N1ah TX2vq  1 3.950000e-01    2.700000e+00
  N1ah TX3vq  1 3.950000e-01    2.940000e+00
  N1ah TX4vq  1 3.950000e-01    2.940000e+00
  N1ah TC1vq  1 3.950000e-01    2.310000e+00
  N1ah TC2vq  1 3.950000e-01    2.500000e+00
  N1ah TC3vq  1 3.950000e-01    2.700000e+00
  N1ah TC4vq  1 3.950000e-01    2.940000e+00
  N1ah TC5vq  1 3.950000e-01    2.940000e+00
  N1ah TC6vq  1 3.950000e-01    3.190000e+00
   C6v TC6vh  1 3.950000e-01    2.310000e+00
  C6vh  TC5v  1 3.950000e-01    2.110000e+00
  C6vh  TC4v  1 3.950000e-01    2.110000e+00
  C6vh  TC3v  1 3.950000e-01    1.850000e+00
  C6vh  TC2v  1 3.950000e-01    1.670000e+00
  C6vh  TC1v  1 3.980000e-01    1.450000e+00
  C6vh  TX4v  1 3.950000e-01    2.110000e+00
  C6vh  TX3v  1 3.950000e-01    2.110000e+00
  C6vh  TX2v  1 3.950000e-01    2.110000e+00
  C6vh  TX1v  1 3.950000e-01    2.110000e+00
  C6vh  TC6e  1 3.950000e-01    2.940000e+00
  C6vh  TC5e  1 3.950000e-01    2.700000e+00
  C6vh  TC4e  1 3.950000e-01    2.700000e+00
  C6vh  TC3e  1 3.950000e-01    2.500000e+00
  C6vh  TC2e  1 3.950000e-01    2.310000e+00
  C6vh  TC1e  1 3.950000e-01    2.110000e+00
  C6vh  TX4e  1 3.950000e-01    2.700000e+00
  C6vh  TX3e  1 3.950000e-01    2.700000e+00
  C6vh  TX2e  1 3.950000e-01    2.700000e+00
  C6vh  TX1e  1 3.950000e-01    2.700000e+00
   P6q TC6vh  1 3.950000e-01    2.310000e+00
   P5q TC6vh  1 3.950000e-01    2.310000e+00
   P4q TC6vh  1 3.950000e-01    2.500000e+00
   P3q TC6vh  1 3.950000e-01    2.700000e+00
   P2q TC6vh  1 3.950000e-01    2.700000e+00
   P1q TC6vh  1 3.950000e-01    2.700000e+00
   N6q TC6vh  1 3.950000e-01    2.940000e+00
   N5q TC6vh  1 3.950000e-01    2.940000e+00
   N4q TC6vh  1 3.950000e-01    2.940000e+00
   N3q TC6vh  1 3.950000e-01    2.940000e+00
   N2q TC6vh  1 3.950000e-01    2.940000e+00
   N1q TC6vh  1 3.950000e-01    3.190000e+00
   C6q TC6vh  1 3.950000e-01    3.190000e+00
  C6vh  TC5q  1 3.950000e-01    2.940000e+00
  C6vh  TC4q  1 3.950000e-01    2.940000e+00
  C6vh  TC3q  1 3.950000e-01    2.700000e+00
  C6vh  TC2q  1 3.950000e-01    2.500000e+00
  C6vh  TC1q  1 3.950000e-01    2.310000e+00
  C6vh  TX4q  1 3.950000e-01    2.940000e+00
  C6vh  TX3q  1 3.950000e-01    2.940000e+00
  C6vh  TX2q  1 3.950000e-01    2.940000e+00
  C6vh  TX1q  1 3.950000e-01    2.940000e+00
  P6dq TC6vh  1 3.950000e-01    1.850000e+00
  P5dq TC6vh  1 3.950000e-01    1.850000e+00
  P4dq TC6vh  1 3.950000e-01    2.110000e+00
  P3dq TC6vh  1 3.950000e-01    2.310000e+00
  P2dq TC6vh  1 3.950000e-01    2.310000e+00
  P1dq TC6vh  1 3.950000e-01    2.310000e+00
  N6dq TC6vh  1 3.950000e-01    2.500000e+00
  N5dq TC6vh  1 3.950000e-01    2.500000e+00
  N4dq TC6vh  1 3.950000e-01    2.500000e+00
  N3dq TC6vh  1 3.950000e-01    2.500000e+00
  N2dq TC6vh  1 3.950000e-01    2.500000e+00
  N1dq TC6vh  1 3.950000e-01    2.700000e+00
  P6aq TC6vh  1 3.950000e-01    2.310000e+00
  P5aq TC6vh  1 3.950000e-01    2.310000e+00
  P4aq TC6vh  1 3.950000e-01    2.500000e+00
  P3aq TC6vh  1 3.950000e-01    2.700000e+00
  P2aq TC6vh  1 3.950000e-01    2.700000e+00
  P1aq TC6vh  1 3.950000e-01    2.700000e+00
  N6aq TC6vh  1 3.950000e-01    2.940000e+00
  N5aq TC6vh  1 3.950000e-01    2.940000e+00
  N4aq TC6vh  1 3.950000e-01    2.940000e+00
  N3aq TC6vh  1 3.950000e-01    2.940000e+00
  N2aq TC6vh  1 3.950000e-01    2.940000e+00
  N1aq TC6vh  1 3.950000e-01    3.190000e+00
  C6vh TC6vq  1 3.950000e-01    2.700000e+00
  C6vh TX1eq  1 3.950000e-01    3.190000e+00
  C6vh TX2eq  1 3.950000e-01    3.190000e+00
  C6vh TX3eq  1 3.950000e-01    3.190000e+00
  C6vh TX4eq  1 3.950000e-01    3.190000e+00
  C6vh TC1eq  1 3.950000e-01    2.500000e+00
  C6vh TC2eq  1 3.950000e-01    2.700000e+00
  C6vh TC3eq  1 3.950000e-01    2.940000e+00
  C6vh TC4eq  1 3.950000e-01    3.190000e+00
  C6vh TC5eq  1 3.950000e-01    3.190000e+00
  C6vh TC6eq  1 3.950000e-01    3.430000e+00
  C6vh TX1vq  1 3.950000e-01    2.500000e+00
  C6vh TX2vq  1 3.950000e-01    2.500000e+00
  C6vh TX3vq  1 3.950000e-01    2.500000e+00
  C6vh TX4vq  1 3.950000e-01    2.500000e+00
  C6vh TC1vq  1 3.950000e-01    1.850000e+00
  C6vh TC2vq  1 3.950000e-01    2.110000e+00
  C6vh TC3vq  1 3.950000e-01    2.310000e+00
  C6vh TC4vq  1 3.950000e-01    2.500000e+00
  C6vh TC5vq  1 3.950000e-01    2.500000e+00
   C5v TC5vh  1 3.950000e-01    2.110000e+00
  C5vh  TC4v  1 3.950000e-01    2.110000e+00
  C5vh  TC3v  1 3.950000e-01    1.850000e+00
  C5vh  TC2v  1 3.950000e-01    1.670000e+00
  C5vh  TC1v  1 3.950000e-01    1.670000e+00
  C5vh  TX4v  1 3.950000e-01    1.850000e+00
  C5vh  TX3v  1 3.950000e-01    1.850000e+00
  C5vh  TX2v  1 3.950000e-01    1.850000e+00
  C5vh  TX1v  1 3.950000e-01    2.110000e+00
   C6e TC5vh  1 3.950000e-01    2.700000e+00
  C5vh  TC5e  1 3.950000e-01    2.700000e+00
  C5vh  TC4e  1 3.950000e-01    2.700000e+00
  C5vh  TC3e  1 3.950000e-01    2.500000e+00
  C5vh  TC2e  1 3.950000e-01    2.310000e+00
  C5vh  TC1e  1 3.950000e-01    2.310000e+00
  C5vh  TX4e  1 3.950000e-01    2.500000e+00
  C5vh  TX3e  1 3.950000e-01    2.500000e+00
  C5vh  TX2e  1 3.950000e-01    2.500000e+00
  C5vh  TX1e  1 3.950000e-01    2.700000e+00
   P6q TC5vh  1 3.950000e-01    2.110000e+00
   P5q TC5vh  1 3.950000e-01    2.310000e+00
   P4q TC5vh  1 3.950000e-01    2.310000e+00
   P3q TC5vh  1 3.950000e-01    2.500000e+00
   P2q TC5vh  1 3.950000e-01    2.500000e+00
   P1q TC5vh  1 3.950000e-01    2.500000e+00
   N6q TC5vh  1 3.950000e-01    2.700000e+00
   N5q TC5vh  1 3.950000e-01    2.700000e+00
   N4q TC5vh  1 3.950000e-01    2.700000e+00
   N3q TC5vh  1 3.950000e-01    2.700000e+00
   N2q TC5vh  1 3.950000e-01    2.700000e+00
   N1q TC5vh  1 3.950000e-01    2.940000e+00
   C6q TC5vh  1 3.950000e-01    2.940000e+00
   C5q TC5vh  1 3.950000e-01    2.940000e+00
  C5vh  TC4q  1 3.950000e-01    2.940000e+00
  C5vh  TC3q  1 3.950000e-01    2.700000e+00
  C5vh  TC2q  1 3.950000e-01    2.500000e+00
  C5vh  TC1q  1 3.950000e-01    2.500000e+00
  C5vh  TX4q  1 3.950000e-01    2.700000e+00
  C5vh  TX3q  1 3.950000e-01    2.700000e+00
  C5vh  TX2q  1 3.950000e-01    2.700000e+00
  C5vh  TX1q  1 3.950000e-01    2.940000e+00
  P6dq TC5vh  1 3.950000e-01    1.670000e+00
  P5dq TC5vh  1 3.950000e-01    1.850000e+00
  P4dq TC5vh  1 3.950000e-01    1.850000e+00
  P3dq TC5vh  1 3.950000e-01    2.110000e+00
  P2dq TC5vh  1 3.950000e-01    2.110000e+00
  P1dq TC5vh  1 3.950000e-01    2.110000e+00
  N6dq TC5vh  1 3.950000e-01    2.310000e+00
  N5dq TC5vh  1 3.950000e-01    2.310000e+00
  N4dq TC5vh  1 3.950000e-01    2.310000e+00
  N3dq TC5vh  1 3.950000e-01    2.310000e+00
  N2dq TC5vh  1 3.950000e-01    2.310000e+00
  N1dq TC5vh  1 3.950000e-01    2.500000e+00
  P6aq TC5vh  1 3.950000e-01    2.110000e+00
  P5aq TC5vh  1 3.950000e-01    2.310000e+00
  P4aq TC5vh  1 3.950000e-01    2.310000e+00
  P3aq TC5vh  1 3.950000e-01    2.500000e+00
  P2aq TC5vh  1 3.950000e-01    2.500000e+00
  P1aq TC5vh  1 3.950000e-01    2.500000e+00
  N6aq TC5vh  1 3.950000e-01    2.700000e+00
  N5aq TC5vh  1 3.950000e-01    2.700000e+00
  N4aq TC5vh  1 3.950000e-01    2.700000e+00
  N3aq TC5vh  1 3.950000e-01    2.700000e+00
  N2aq TC5vh  1 3.950000e-01    2.700000e+00
  N1aq TC5vh  1 3.950000e-01    2.940000e+00
  C6vq TC5vh  1 3.950000e-01    2.500000e+00
  C5vh TC5vq  1 3.950000e-01    2.500000e+00
  C5vh TX1eq  1 3.950000e-01    3.190000e+00
  C5vh TX2eq  1 3.950000e-01    2.940000e+00
  C5vh TX3eq  1 3.950000e-01    2.940000e+00
  C5vh TX4eq  1 3.950000e-01    2.940000e+00
  C5vh TC1eq  1 3.950000e-01    2.700000e+00
  C5vh TC2eq  1 3.950000e-01    2.700000e+00
  C5vh TC3eq  1 3.950000e-01    2.940000e+00
  C5vh TC4eq  1 3.950000e-01    3.190000e+00
  C5vh TC5eq  1 3.950000e-01    3.190000e+00
  C6eq TC5vh  1 3.950000e-01    3.190000e+00
  C5vh TX1vq  1 3.950000e-01    2.500000e+00
  C5vh TX2vq  1 3.950000e-01    2.310000e+00
  C5vh TX3vq  1 3.950000e-01    2.310000e+00
  C5vh TX4vq  1 3.950000e-01    2.310000e+00
  C5vh TC1vq  1 3.950000e-01    2.110000e+00
  C5vh TC2vq  1 3.950000e-01    2.110000e+00
  C5vh TC3vq  1 3.950000e-01    2.310000e+00
  C5vh TC4vq  1 3.950000e-01    2.500000e+00
   C4v TC4vh  1 3.950000e-01    2.110000e+00
  C4vh  TC3v  1 3.950000e-01    2.110000e+00
  C4vh  TC2v  1 3.950000e-01    1.850000e+00
  C4vh  TC1v  1 3.950000e-01    1.670000e+00
  C4vh  TX4v  1 3.950000e-01    1.850000e+00
  C4vh  TX3v  1 3.950000e-01    1.850000e+00
  C4vh  TX2v  1 3.950000e-01    1.850000e+00
  C4vh  TX1v  1 3.950000e-01    2.110000e+00
   C6e TC4vh  1 3.950000e-01    2.700000e+00
   C5e TC4vh  1 3.950000e-01    2.700000e+00
  C4vh  TC4e  1 3.950000e-01    2.700000e+00
  C4vh  TC3e  1 3.950000e-01    2.700000e+00
  C4vh  TC2e  1 3.950000e-01    2.500000e+00
  C4vh  TC1e  1 3.950000e-01    2.310000e+00
  C4vh  TX4e  1 3.950000e-01    2.500000e+00
  C4vh  TX3e  1 3.950000e-01    2.500000e+00
  C4vh  TX2e  1 3.950000e-01    2.500000e+00
  C4vh  TX1e  1 3.950000e-01    2.700000e+00
   P6q TC4vh  1 3.950000e-01    1.850000e+00
   P5q TC4vh  1 3.950000e-01    2.110000e+00
   P4q TC4vh  1 3.950000e-01    2.110000e+00
   P3q TC4vh  1 3.950000e-01    2.310000e+00
   P2q TC4vh  1 3.950000e-01    2.310000e+00
   P1q TC4vh  1 3.950000e-01    2.310000e+00
   N6q TC4vh  1 3.950000e-01    2.500000e+00
   N5q TC4vh  1 3.950000e-01    2.500000e+00
   N4q TC4vh  1 3.950000e-01    2.700000e+00
   N3q TC4vh  1 3.950000e-01    2.700000e+00
   N2q TC4vh  1 3.950000e-01    2.700000e+00
   N1q TC4vh  1 3.950000e-01    2.940000e+00
   C6q TC4vh  1 3.950000e-01    2.940000e+00
   C5q TC4vh  1 3.950000e-01    2.940000e+00
   C4q TC4vh  1 3.950000e-01    2.940000e+00
  C4vh  TC3q  1 3.950000e-01    2.940000e+00
  C4vh  TC2q  1 3.950000e-01    2.700000e+00
  C4vh  TC1q  1 3.950000e-01    2.500000e+00
  C4vh  TX4q  1 3.950000e-01    2.700000e+00
  C4vh  TX3q  1 3.950000e-01    2.700000e+00
  C4vh  TX2q  1 3.950000e-01    2.700000e+00
  C4vh  TX1q  1 3.950000e-01    2.940000e+00
  P6dq TC4vh  1 3.980000e-01    1.450000e+00
  P5dq TC4vh  1 3.950000e-01    1.670000e+00
  P4dq TC4vh  1 3.950000e-01    1.670000e+00
  P3dq TC4vh  1 3.950000e-01    1.850000e+00
  P2dq TC4vh  1 3.950000e-01    1.850000e+00
  P1dq TC4vh  1 3.950000e-01    1.850000e+00
  N6dq TC4vh  1 3.950000e-01    2.110000e+00
  N5dq TC4vh  1 3.950000e-01    2.110000e+00
  N4dq TC4vh  1 3.950000e-01    2.310000e+00
  N3dq TC4vh  1 3.950000e-01    2.310000e+00
  N2dq TC4vh  1 3.950000e-01    2.310000e+00
  N1dq TC4vh  1 3.950000e-01    2.500000e+00
  P6aq TC4vh  1 3.950000e-01    1.850000e+00
  P5aq TC4vh  1 3.950000e-01    2.110000e+00
  P4aq TC4vh  1 3.950000e-01    2.110000e+00
  P3aq TC4vh  1 3.950000e-01    2.310000e+00
  P2aq TC4vh  1 3.950000e-01    2.310000e+00
  P1aq TC4vh  1 3.950000e-01    2.310000e+00
  N6aq TC4vh  1 3.950000e-01    2.500000e+00
  N5aq TC4vh  1 3.950000e-01    2.500000e+00
  N4aq TC4vh  1 3.950000e-01    2.700000e+00
  N3aq TC4vh  1 3.950000e-01    2.700000e+00
  N2aq TC4vh  1 3.950000e-01    2.700000e+00
  N1aq TC4vh  1 3.950000e-01    2.940000e+00
  C6vq TC4vh  1 3.950000e-01    2.500000e+00
  C5vq TC4vh  1 3.950000e-01    2.500000e+00
  C4vh TC4vq  1 3.950000e-01    2.500000e+00
  C4vh TX1eq  1 3.950000e-01    3.190000e+00
  C4vh TX2eq  1 3.950000e-01    2.940000e+00
  C4vh TX3eq  1 3.950000e-01    2.940000e+00
  C4vh TX4eq  1 3.950000e-01    2.940000e+00
  C4vh TC1eq  1 3.950000e-01    2.700000e+00
  C4vh TC2eq  1 3.950000e-01    2.940000e+00
  C4vh TC3eq  1 3.950000e-01    3.190000e+00
  C4vh TC4eq  1 3.950000e-01    3.190000e+00
  C5eq TC4vh  1 3.950000e-01    3.190000e+00
  C6eq TC4vh  1 3.950000e-01    3.190000e+00
  C4vh TX1vq  1 3.950000e-01    2.500000e+00
  C4vh TX2vq  1 3.950000e-01    2.310000e+00
  C4vh TX3vq  1 3.950000e-01    2.310000e+00
  C4vh TX4vq  1 3.950000e-01    2.310000e+00
  C4vh TC1vq  1 3.950000e-01    2.110000e+00
  C4vh TC2vq  1 3.950000e-01    2.310000e+00
  C4vh TC3vq  1 3.950000e-01    2.500000e+00
   C3v TC3vh  1 3.950000e-01    2.110000e+00
  C3vh  TC2v  1 3.950000e-01    2.110000e+00
  C3vh  TC1v  1 3.950000e-01    2.110000e+00
  C3vh  TX4v  1 3.950000e-01    1.850000e+00
  C3vh  TX3v  1 3.950000e-01    1.850000e+00
  C3vh  TX2v  1 3.950000e-01    1.850000e+00
  C3vh  TX1v  1 3.950000e-01    2.110000e+00
   C6e TC3vh  1 3.950000e-01    2.500000e+00
   C5e TC3vh  1 3.950000e-01    2.500000e+00
   C4e TC3vh  1 3.950000e-01    2.700000e+00
  C3vh  TC3e  1 3.950000e-01    2.700000e+00
  C3vh  TC2e  1 3.950000e-01    2.700000e+00
  C3vh  TC1e  1 3.950000e-01    2.700000e+00
  C3vh  TX4e  1 3.950000e-01    2.500000e+00
  C3vh  TX3e  1 3.950000e-01    2.500000e+00
  C3vh  TX2e  1 3.950000e-01    2.500000e+00
  C3vh  TX1e  1 3.950000e-01    2.700000e+00
   P6q TC3vh  1 3.950000e-01    1.670000e+00
   P5q TC3vh  1 3.950000e-01    1.850000e+00
   P4q TC3vh  1 3.950000e-01    1.850000e+00
   P3q TC3vh  1 3.950000e-01    1.850000e+00
   P2q TC3vh  1 3.950000e-01    2.110000e+00
   P1q TC3vh  1 3.950000e-01    2.110000e+00
   N6q TC3vh  1 3.950000e-01    2.310000e+00
   N5q TC3vh  1 3.950000e-01    2.500000e+00
   N4q TC3vh  1 3.950000e-01    2.500000e+00
   N3q TC3vh  1 3.950000e-01    2.500000e+00
   N2q TC3vh  1 3.950000e-01    2.700000e+00
   N1q TC3vh  1 3.950000e-01    2.700000e+00
   C6q TC3vh  1 3.950000e-01    2.700000e+00
   C5q TC3vh  1 3.950000e-01    2.700000e+00
   C4q TC3vh  1 3.950000e-01    2.940000e+00
   C3q TC3vh  1 3.950000e-01    2.940000e+00
  C3vh  TC2q  1 3.950000e-01    2.940000e+00
  C3vh  TC1q  1 3.950000e-01    2.940000e+00
  C3vh  TX4q  1 3.950000e-01    2.700000e+00
  C3vh  TX3q  1 3.950000e-01    2.700000e+00
  C3vh  TX2q  1 3.950000e-01    2.700000e+00
  C3vh  TX1q  1 3.950000e-01    2.940000e+00
  P6dq TC3vh  1 3.990000e-01    1.180000e+00
  P5dq TC3vh  1 3.980000e-01    1.450000e+00
  P4dq TC3vh  1 3.980000e-01    1.450000e+00
  P3dq TC3vh  1 3.980000e-01    1.450000e+00
  P2dq TC3vh  1 3.950000e-01    1.670000e+00
  P1dq TC3vh  1 3.950000e-01    1.670000e+00
  N6dq TC3vh  1 3.950000e-01    1.850000e+00
  N5dq TC3vh  1 3.950000e-01    2.110000e+00
  N4dq TC3vh  1 3.950000e-01    2.110000e+00
  N3dq TC3vh  1 3.950000e-01    2.110000e+00
  N2dq TC3vh  1 3.950000e-01    2.310000e+00
  N1dq TC3vh  1 3.950000e-01    2.310000e+00
  P6aq TC3vh  1 3.950000e-01    1.670000e+00
  P5aq TC3vh  1 3.950000e-01    1.850000e+00
  P4aq TC3vh  1 3.950000e-01    1.850000e+00
  P3aq TC3vh  1 3.950000e-01    1.850000e+00
  P2aq TC3vh  1 3.950000e-01    2.110000e+00
  P1aq TC3vh  1 3.950000e-01    2.110000e+00
  N6aq TC3vh  1 3.950000e-01    2.310000e+00
  N5aq TC3vh  1 3.950000e-01    2.500000e+00
  N4aq TC3vh  1 3.950000e-01    2.500000e+00
  N3aq TC3vh  1 3.950000e-01    2.500000e+00
  N2aq TC3vh  1 3.950000e-01    2.700000e+00
  N1aq TC3vh  1 3.950000e-01    2.700000e+00
  C6vq TC3vh  1 3.950000e-01    2.310000e+00
  C5vq TC3vh  1 3.950000e-01    2.310000e+00
  C4vq TC3vh  1 3.950000e-01    2.500000e+00
  C3vh TC3vq  1 3.950000e-01    2.500000e+00
  C3vh TX1eq  1 3.950000e-01    3.190000e+00
  C3vh TX2eq  1 3.950000e-01    2.940000e+00
  C3vh TX3eq  1 3.950000e-01    2.940000e+00
  C3vh TX4eq  1 3.950000e-01    2.940000e+00
  C3vh TC1eq  1 3.950000e-01    3.190000e+00
  C3vh TC2eq  1 3.950000e-01    3.190000e+00
  C3vh TC3eq  1 3.950000e-01    3.190000e+00
  C4eq TC3vh  1 3.950000e-01    3.190000e+00
  C5eq TC3vh  1 3.950000e-01    2.940000e+00
  C6eq TC3vh  1 3.950000e-01    2.940000e+00
  C3vh TX1vq  1 3.950000e-01    2.500000e+00
  C3vh TX2vq  1 3.950000e-01    2.310000e+00
  C3vh TX3vq  1 3.950000e-01    2.310000e+00
  C3vh TX4vq  1 3.950000e-01    2.310000e+00
  C3vh TC1vq  1 3.950000e-01    2.500000e+00
  C3vh TC2vq  1 3.950000e-01    2.500000e+00
   C2v TC2vh  1 3.950000e-01    2.110000e+00
  C2vh  TC1v  1 3.950000e-01    2.310000e+00
  C2vh  TX4v  1 3.980000e-01    1.450000e+00
  C2vh  TX3v  1 3.950000e-01    1.850000e+00
  C2vh  TX2v  1 3.950000e-01    1.850000e+00
  C2vh  TX1v  1 3.950000e-01    1.850000e+00
   C6e TC2vh  1 3.950000e-01    2.310000e+00
   C5e TC2vh  1 3.950000e-01    2.310000e+00
   C4e TC2vh  1 3.950000e-01    2.500000e+00
   C3e TC2vh  1 3.950000e-01    2.700000e+00
  C2vh  TC2e  1 3.950000e-01    2.700000e+00
  C2vh  TC1e  1 3.950000e-01    2.940000e+00
  C2vh  TX4e  1 3.950000e-01    2.110000e+00
  C2vh  TX3e  1 3.950000e-01    2.500000e+00
  C2vh  TX2e  1 3.950000e-01    2.500000e+00
  C2vh  TX1e  1 3.950000e-01    2.500000e+00
   P6q TC2vh  1 3.950000e-01    1.670000e+00
   P5q TC2vh  1 3.950000e-01    1.850000e+00
   P4q TC2vh  1 3.950000e-01    1.850000e+00
   P3q TC2vh  1 3.950000e-01    1.850000e+00
   P2q TC2vh  1 3.950000e-01    2.110000e+00
   P1q TC2vh  1 3.950000e-01    2.110000e+00
   N6q TC2vh  1 3.950000e-01    2.310000e+00
   N5q TC2vh  1 3.950000e-01    2.310000e+00
   N4q TC2vh  1 3.950000e-01    2.310000e+00
   N3q TC2vh  1 3.950000e-01    2.500000e+00
   N2q TC2vh  1 3.950000e-01    2.500000e+00
   N1q TC2vh  1 3.950000e-01    2.500000e+00
   C6q TC2vh  1 3.950000e-01    2.500000e+00
   C5q TC2vh  1 3.950000e-01    2.500000e+00
   C4q TC2vh  1 3.950000e-01    2.700000e+00
   C3q TC2vh  1 3.950000e-01    2.940000e+00
   C2q TC2vh  1 3.950000e-01    2.940000e+00
  C2vh  TC1q  1 3.950000e-01    3.190000e+00
  C2vh  TX4q  1 3.950000e-01    2.310000e+00
  C2vh  TX3q  1 3.950000e-01    2.700000e+00
  C2vh  TX2q  1 3.950000e-01    2.700000e+00
  C2vh  TX1q  1 3.950000e-01    2.700000e+00
  P6dq TC2vh  1 3.990000e-01    1.180000e+00
  P5dq TC2vh  1 3.980000e-01    1.450000e+00
  P4dq TC2vh  1 3.980000e-01    1.450000e+00
  P3dq TC2vh  1 3.980000e-01    1.450000e+00
  P2dq TC2vh  1 3.950000e-01    1.670000e+00
  P1dq TC2vh  1 3.950000e-01    1.670000e+00
  N6dq TC2vh  1 3.950000e-01    1.850000e+00
  N5dq TC2vh  1 3.950000e-01    1.850000e+00
  N4dq TC2vh  1 3.950000e-01    1.850000e+00
  N3dq TC2vh  1 3.950000e-01    2.110000e+00
  N2dq TC2vh  1 3.950000e-01    2.110000e+00
  N1dq TC2vh  1 3.950000e-01    2.110000e+00
  P6aq TC2vh  1 3.950000e-01    1.670000e+00
  P5aq TC2vh  1 3.950000e-01    1.850000e+00
  P4aq TC2vh  1 3.950000e-01    1.850000e+00
  P3aq TC2vh  1 3.950000e-01    1.850000e+00
  P2aq TC2vh  1 3.950000e-01    2.110000e+00
  P1aq TC2vh  1 3.950000e-01    2.110000e+00
  N6aq TC2vh  1 3.950000e-01    2.310000e+00
  N5aq TC2vh  1 3.950000e-01    2.310000e+00
  N4aq TC2vh  1 3.950000e-01    2.310000e+00
  N3aq TC2vh  1 3.950000e-01    2.500000e+00
  N2aq TC2vh  1 3.950000e-01    2.500000e+00
  N1aq TC2vh  1 3.950000e-01    2.500000e+00
  C6vq TC2vh  1 3.950000e-01    2.110000e+00
  C5vq TC2vh  1 3.950000e-01    2.110000e+00
  C4vq TC2vh  1 3.950000e-01    2.310000e+00
  C3vq TC2vh  1 3.950000e-01    2.500000e+00
  C2vh TC2vq  1 3.950000e-01    2.500000e+00
  C2vh TX1eq  1 3.950000e-01    2.940000e+00
  C2vh TX2eq  1 3.950000e-01    2.940000e+00
  C2vh TX3eq  1 3.950000e-01    2.940000e+00
  C2vh TX4eq  1 3.950000e-01    2.500000e+00
  C2vh TC1eq  1 3.950000e-01    3.430000e+00
  C2vh TC2eq  1 3.950000e-01    3.190000e+00
  C3eq TC2vh  1 3.950000e-01    3.190000e+00
  C4eq TC2vh  1 3.950000e-01    2.940000e+00
  C5eq TC2vh  1 3.950000e-01    2.700000e+00
  C6eq TC2vh  1 3.950000e-01    2.700000e+00
  C2vh TX1vq  1 3.950000e-01    2.310000e+00
  C2vh TX2vq  1 3.950000e-01    2.310000e+00
  C2vh TX3vq  1 3.950000e-01    2.310000e+00
  C2vh TX4vq  1 3.950000e-01    1.850000e+00
  C2vh TC1vq  1 3.950000e-01    2.700000e+00
   C1v TC1vh  1 3.950000e-01    2.110000e+00
  C1vh  TX4v  1 3.980000e-01    1.450000e+00
  C1vh  TX3v  1 3.950000e-01    1.850000e+00
  C1vh  TX2v  1 3.950000e-01    1.850000e+00
  C1vh  TX1v  1 3.950000e-01    1.850000e+00
   C6e TC1vh  1 3.950000e-01    2.110000e+00
   C5e TC1vh  1 3.950000e-01    2.310000e+00
   C4e TC1vh  1 3.950000e-01    2.310000e+00
   C3e TC1vh  1 3.950000e-01    2.700000e+00
   C2e TC1vh  1 3.950000e-01    2.940000e+00
  C1vh  TC1e  1 3.950000e-01    2.700000e+00
  C1vh  TX4e  1 3.950000e-01    2.110000e+00
  C1vh  TX3e  1 3.950000e-01    2.500000e+00
  C1vh  TX2e  1 3.950000e-01    2.500000e+00
  C1vh  TX1e  1 3.950000e-01    2.500000e+00
   P6q TC1vh  1 3.990000e-01    1.180000e+00
   P5q TC1vh  1 3.950000e-01    1.670000e+00
   P4q TC1vh  1 3.950000e-01    1.670000e+00
   P3q TC1vh  1 3.950000e-01    1.670000e+00
   P2q TC1vh  1 3.950000e-01    1.850000e+00
   P1q TC1vh  1 3.950000e-01    1.850000e+00
   N6q TC1vh  1 3.950000e-01    2.110000e+00
   N5q TC1vh  1 3.950000e-01    2.110000e+00
   N4q TC1vh  1 3.950000e-01    2.110000e+00
   N3q TC1vh  1 3.950000e-01    2.310000e+00
   N2q TC1vh  1 3.950000e-01    2.310000e+00
   N1q TC1vh  1 3.950000e-01    2.310000e+00
   C6q TC1vh  1 3.950000e-01    2.310000e+00
   C5q TC1vh  1 3.950000e-01    2.500000e+00
   C4q TC1vh  1 3.950000e-01    2.500000e+00
   C3q TC1vh  1 3.950000e-01    2.940000e+00
   C2q TC1vh  1 3.950000e-01    3.190000e+00
   C1q TC1vh  1 3.950000e-01    2.940000e+00
  C1vh  TX4q  1 3.950000e-01    2.310000e+00
  C1vh  TX3q  1 3.950000e-01    2.700000e+00
  C1vh  TX2q  1 3.950000e-01    2.700000e+00
  C1vh  TX1q  1 3.950000e-01    2.700000e+00
  P6dq TC1vh  1 4.040000e-01    8.300000e-01
  P5dq TC1vh  1 3.990000e-01    1.180000e+00
  P4dq TC1vh  1 3.990000e-01    1.180000e+00
  P3dq TC1vh  1 3.990000e-01    1.180000e+00
  P2dq TC1vh  1 3.980000e-01    1.450000e+00
  P1dq TC1vh  1 3.980000e-01    1.450000e+00
  N6dq TC1vh  1 3.950000e-01    1.670000e+00
  N5dq TC1vh  1 3.950000e-01    1.670000e+00
  N4dq TC1vh  1 3.950000e-01    1.670000e+00
  N3dq TC1vh  1 3.950000e-01    1.850000e+00
  N2dq TC1vh  1 3.950000e-01    1.850000e+00
  N1dq TC1vh  1 3.950000e-01    1.850000e+00
  P6aq TC1vh  1 3.990000e-01    1.180000e+00
  P5aq TC1vh  1 3.950000e-01    1.670000e+00
  P4aq TC1vh  1 3.950000e-01    1.670000e+00
  P3aq TC1vh  1 3.950000e-01    1.670000e+00
  P2aq TC1vh  1 3.950000e-01    1.850000e+00
  P1aq TC1vh  1 3.950000e-01    1.850000e+00
  N6aq TC1vh  1 3.950000e-01    2.110000e+00
  N5aq TC1vh  1 3.950000e-01    2.110000e+00
  N4aq TC1vh  1 3.950000e-01    2.110000e+00
  N3aq TC1vh  1 3.950000e-01    2.310000e+00
  N2aq TC1vh  1 3.950000e-01    2.310000e+00
  N1aq TC1vh  1 3.950000e-01    2.310000e+00
  C6vq TC1vh  1 3.950000e-01    1.850000e+00
  C5vq TC1vh  1 3.950000e-01    2.110000e+00
  C4vq TC1vh  1 3.950000e-01    2.110000e+00
  C3vq TC1vh  1 3.950000e-01    2.500000e+00
  C2vq TC1vh  1 3.950000e-01    2.700000e+00
  C1vh TC1vq  1 3.950000e-01    2.500000e+00
  C1vh TX1eq  1 3.950000e-01    2.940000e+00
  C1vh TX2eq  1 3.950000e-01    2.940000e+00
  C1vh TX3eq  1 3.950000e-01    2.940000e+00
  C1vh TX4eq  1 3.950000e-01    2.500000e+00
  C1vh TC1eq  1 3.950000e-01    3.190000e+00
  C2eq TC1vh  1 3.950000e-01    3.430000e+00
  C3eq TC1vh  1 3.950000e-01    3.190000e+00
  C4eq TC1vh  1 3.950000e-01    2.700000e+00
  C5eq TC1vh  1 3.950000e-01    2.700000e+00
  C6eq TC1vh  1 3.950000e-01    2.500000e+00
  C1vh TX1vq  1 3.950000e-01    2.310000e+00
  C1vh TX2vq  1 3.950000e-01    2.310000e+00
  C1vh TX3vq  1 3.950000e-01    2.310000e+00
  C1vh TX4vq  1 3.950000e-01    1.850000e+00
   X4v TX4vh  1 3.950000e-01    2.110000e+00
  X4vh  TX3v  1 3.950000e-01    2.110000e+00
  X4vh  TX2v  1 3.950000e-01    2.110000e+00
  X4vh  TX1v  1 3.950000e-01    2.110000e+00
   C6e TX4vh  1 3.950000e-01    2.700000e+00
   C5e TX4vh  1 3.950000e-01    2.500000e+00
   C4e TX4vh  1 3.950000e-01    2.500000e+00
   C3e TX4vh  1 3.950000e-01    2.500000e+00
   C2e TX4vh  1 3.950000e-01    2.110000e+00
   C1e TX4vh  1 3.950000e-01    2.110000e+00
  X4vh  TX4e  1 3.950000e-01    2.700000e+00
  X4vh  TX3e  1 3.950000e-01    2.700000e+00
  X4vh  TX2e  1 3.950000e-01    2.700000e+00
  X4vh  TX1e  1 3.950000e-01    2.700000e+00
   P6q TX4vh  1 3.950000e-01    2.500000e+00
   P5q TX4vh  1 3.950000e-01    2.700000e+00
   P4q TX4vh  1 3.950000e-01    2.700000e+00
   P3q TX4vh  1 3.950000e-01    2.700000e+00
   P2q TX4vh  1 3.950000e-01    2.700000e+00
   P1q TX4vh  1 3.950000e-01    2.700000e+00
   N6q TX4vh  1 3.950000e-01    2.940000e+00
   N5q TX4vh  1 3.950000e-01    3.190000e+00
   N4q TX4vh  1 3.950000e-01    3.430000e+00
   N3q TX4vh  1 3.950000e-01    3.190000e+00
   N2q TX4vh  1 3.950000e-01    3.190000e+00
   N1q TX4vh  1 3.950000e-01    2.940000e+00
   C6q TX4vh  1 3.950000e-01    2.940000e+00
   C5q TX4vh  1 3.950000e-01    2.700000e+00
   C4q TX4vh  1 3.950000e-01    2.700000e+00
   C3q TX4vh  1 3.950000e-01    2.700000e+00
   C2q TX4vh  1 3.950000e-01    2.310000e+00
   C1q TX4vh  1 3.950000e-01    2.310000e+00
   X4q TX4vh  1 3.950000e-01    2.940000e+00
  X4vh  TX3q  1 3.950000e-01    2.940000e+00
  X4vh  TX2q  1 3.950000e-01    2.940000e+00
  X4vh  TX1q  1 3.950000e-01    2.940000e+00
  P6dq TX4vh  1 3.950000e-01    2.110000e+00
  P5dq TX4vh  1 3.950000e-01    2.310000e+00
  P4dq TX4vh  1 3.950000e-01    2.310000e+00
  P3dq TX4vh  1 3.950000e-01    2.310000e+00
  P2dq TX4vh  1 3.950000e-01    2.310000e+00
  P1dq TX4vh  1 3.950000e-01    2.310000e+00
  N6dq TX4vh  1 3.950000e-01    2.500000e+00
  N5dq TX4vh  1 3.950000e-01    2.700000e+00
  N4dq TX4vh  1 3.950000e-01    2.940000e+00
  N3dq TX4vh  1 3.950000e-01    2.700000e+00
  N2dq TX4vh  1 3.950000e-01    2.700000e+00
  N1dq TX4vh  1 3.950000e-01    2.500000e+00
  P6aq TX4vh  1 3.950000e-01    2.500000e+00
  P5aq TX4vh  1 3.950000e-01    2.700000e+00
  P4aq TX4vh  1 3.950000e-01    2.700000e+00
  P3aq TX4vh  1 3.950000e-01    2.700000e+00
  P2aq TX4vh  1 3.950000e-01    2.700000e+00
  P1aq TX4vh  1 3.950000e-01    2.700000e+00
  N6aq TX4vh  1 3.950000e-01    2.940000e+00
  N5aq TX4vh  1 3.950000e-01    3.190000e+00
  N4aq TX4vh  1 3.950000e-01    3.430000e+00
  N3aq TX4vh  1 3.950000e-01    3.190000e+00
  N2aq TX4vh  1 3.950000e-01    3.190000e+00
  N1aq TX4vh  1 3.950000e-01    2.940000e+00
  C6vq TX4vh  1 3.950000e-01    2.500000e+00
  C5vq TX4vh  1 3.950000e-01    2.310000e+00
  C4vq TX4vh  1 3.950000e-01    2.310000e+00
  C3vq TX4vh  1 3.950000e-01    2.310000e+00
  C2vq TX4vh  1 3.950000e-01    1.850000e+00
  C1vq TX4vh  1 3.950000e-01    1.850000e+00
  X4vh TX4vq  1 3.950000e-01    2.500000e+00
  X4vh TX1eq  1 3.950000e-01    3.190000e+00
  X4vh TX2eq  1 3.950000e-01    3.190000e+00
  X4vh TX3eq  1 3.950000e-01    3.190000e+00
  X4vh TX4eq  1 3.950000e-01    3.190000e+00
  C1eq TX4vh  1 3.950000e-01    2.500000e+00
  C2eq TX4vh  1 3.950000e-01    2.500000e+00
  C3eq TX4vh  1 3.950000e-01    2.940000e+00
  C4eq TX4vh  1 3.950000e-01    2.940000e+00
  C5eq TX4vh  1 3.950000e-01    2.940000e+00
  C6eq TX4vh  1 3.950000e-01    3.190000e+00
  X4vh TX1vq  1 3.950000e-01    2.500000e+00
  X4vh TX2vq  1 3.950000e-01    2.500000e+00
  X4vh TX3vq  1 3.950000e-01    2.500000e+00
   X3v TX3vh  1 3.950000e-01    2.110000e+00
  X3vh  TX2v  1 3.950000e-01    2.310000e+00
  X3vh  TX1v  1 3.950000e-01    2.310000e+00
   C6e TX3vh  1 3.950000e-01    2.700000e+00
   C5e TX3vh  1 3.950000e-01    2.500000e+00
   C4e TX3vh  1 3.950000e-01    2.500000e+00
   C3e TX3vh  1 3.950000e-01    2.500000e+00
   C2e TX3vh  1 3.950000e-01    2.500000e+00
   C1e TX3vh  1 3.950000e-01    2.500000e+00
   X4e TX3vh  1 3.950000e-01    2.700000e+00
  X3vh  TX3e  1 3.950000e-01    2.700000e+00
  X3vh  TX2e  1 3.950000e-01    2.940000e+00
  X3vh  TX1e  1 3.950000e-01    2.940000e+00
   P6q TX3vh  1 3.950000e-01    2.500000e+00
   P5q TX3vh  1 3.950000e-01    2.500000e+00
   P4q TX3vh  1 3.950000e-01    2.500000e+00
   P3q TX3vh  1 3.950000e-01    2.700000e+00
   P2q TX3vh  1 3.950000e-01    2.700000e+00
   P1q TX3vh  1 3.950000e-01    2.700000e+00
   N6q TX3vh  1 3.950000e-01    2.700000e+00
   N5q TX3vh  1 3.950000e-01    2.940000e+00
   N4q TX3vh  1 3.950000e-01    3.190000e+00
   N3q TX3vh  1 3.950000e-01    2.940000e+00
   N2q TX3vh  1 3.950000e-01    2.940000e+00
   N1q TX3vh  1 3.950000e-01    2.940000e+00
   C6q TX3vh  1 3.950000e-01    2.940000e+00
   C5q TX3vh  1 3.950000e-01    2.700000e+00
   C4q TX3vh  1 3.950000e-01    2.700000e+00
   C3q TX3vh  1 3.950000e-01    2.700000e+00
   C2q TX3vh  1 3.950000e-01    2.700000e+00
   C1q TX3vh  1 3.950000e-01    2.700000e+00
   X4q TX3vh  1 3.950000e-01    2.940000e+00
   X3q TX3vh  1 3.950000e-01    2.940000e+00
  X3vh  TX2q  1 3.950000e-01    3.190000e+00
  X3vh  TX1q  1 3.950000e-01    3.190000e+00
  P6dq TX3vh  1 3.950000e-01    2.110000e+00
  P5dq TX3vh  1 3.950000e-01    2.110000e+00
  P4dq TX3vh  1 3.950000e-01    2.110000e+00
  P3dq TX3vh  1 3.950000e-01    2.310000e+00
  P2dq TX3vh  1 3.950000e-01    2.310000e+00
  P1dq TX3vh  1 3.950000e-01    2.310000e+00
  N6dq TX3vh  1 3.950000e-01    2.310000e+00
  N5dq TX3vh  1 3.950000e-01    2.500000e+00
  N4dq TX3vh  1 3.950000e-01    2.700000e+00
  N3dq TX3vh  1 3.950000e-01    2.500000e+00
  N2dq TX3vh  1 3.950000e-01    2.500000e+00
  N1dq TX3vh  1 3.950000e-01    2.500000e+00
  P6aq TX3vh  1 3.950000e-01    2.500000e+00
  P5aq TX3vh  1 3.950000e-01    2.500000e+00
  P4aq TX3vh  1 3.950000e-01    2.500000e+00
  P3aq TX3vh  1 3.950000e-01    2.700000e+00
  P2aq TX3vh  1 3.950000e-01    2.700000e+00
  P1aq TX3vh  1 3.950000e-01    2.700000e+00
  N6aq TX3vh  1 3.950000e-01    2.700000e+00
  N5aq TX3vh  1 3.950000e-01    2.940000e+00
  N4aq TX3vh  1 3.950000e-01    3.190000e+00
  N3aq TX3vh  1 3.950000e-01    2.940000e+00
  N2aq TX3vh  1 3.950000e-01    2.940000e+00
  N1aq TX3vh  1 3.950000e-01    2.940000e+00
  C6vq TX3vh  1 3.950000e-01    2.500000e+00
  C5vq TX3vh  1 3.950000e-01    2.310000e+00
  C4vq TX3vh  1 3.950000e-01    2.310000e+00
  C3vq TX3vh  1 3.950000e-01    2.310000e+00
  C2vq TX3vh  1 3.950000e-01    2.310000e+00
  C1vq TX3vh  1 3.950000e-01    2.310000e+00
  X4vq TX3vh  1 3.950000e-01    2.500000e+00
  X3vh TX3vq  1 3.950000e-01    2.500000e+00
  X3vh TX1eq  1 3.950000e-01    3.430000e+00
  X3vh TX2eq  1 3.950000e-01    3.430000e+00
  X3vh TX3eq  1 3.950000e-01    3.190000e+00
  X4eq TX3vh  1 3.950000e-01    3.190000e+00
  C1eq TX3vh  1 3.950000e-01    2.940000e+00
  C2eq TX3vh  1 3.950000e-01    2.940000e+00
  C3eq TX3vh  1 3.950000e-01    2.940000e+00
  C4eq TX3vh  1 3.950000e-01    2.940000e+00
  C5eq TX3vh  1 3.950000e-01    2.940000e+00
  C6eq TX3vh  1 3.950000e-01    3.190000e+00
  X3vh TX1vq  1 3.950000e-01    2.700000e+00
  X3vh TX2vq  1 3.950000e-01    2.700000e+00
   X2v TX2vh  1 3.950000e-01    2.310000e+00
  X2vh  TX1v  1 3.950000e-01    2.310000e+00
   C6e TX2vh  1 3.950000e-01    2.700000e+00
   C5e TX2vh  1 3.950000e-01    2.500000e+00
   C4e TX2vh  1 3.950000e-01    2.500000e+00
   C3e TX2vh  1 3.950000e-01    2.500000e+00
   C2e TX2vh  1 3.950000e-01    2.500000e+00
   C1e TX2vh  1 3.950000e-01    2.500000e+00
   X4e TX2vh  1 3.950000e-01    2.700000e+00
   X3e TX2vh  1 3.950000e-01    2.940000e+00
  X2vh  TX2e  1 3.950000e-01    2.940000e+00
  X2vh  TX1e  1 3.950000e-01    2.940000e+00
   P6q TX2vh  1 3.950000e-01    2.310000e+00
   P5q TX2vh  1 3.950000e-01    2.500000e+00
   P4q TX2vh  1 3.950000e-01    2.500000e+00
   P3q TX2vh  1 3.950000e-01    2.500000e+00
   P2q TX2vh  1 3.950000e-01    2.500000e+00
   P1q TX2vh  1 3.950000e-01    2.500000e+00
   N6q TX2vh  1 3.950000e-01    2.500000e+00
   N5q TX2vh  1 3.950000e-01    2.700000e+00
   N4q TX2vh  1 3.950000e-01    2.700000e+00
   N3q TX2vh  1 3.950000e-01    2.700000e+00
   N2q TX2vh  1 3.950000e-01    2.700000e+00
   N1q TX2vh  1 3.950000e-01    2.700000e+00
   C6q TX2vh  1 3.950000e-01    2.940000e+00
   C5q TX2vh  1 3.950000e-01    2.700000e+00
   C4q TX2vh  1 3.950000e-01    2.700000e+00
   C3q TX2vh  1 3.950000e-01    2.700000e+00
   C2q TX2vh  1 3.950000e-01    2.700000e+00
   C1q TX2vh  1 3.950000e-01    2.700000e+00
   X4q TX2vh  1 3.950000e-01    2.940000e+00
   X3q TX2vh  1 3.950000e-01    3.190000e+00
   X2q TX2vh  1 3.950000e-01    3.190000e+00
  X2vh  TX1q  1 3.950000e-01    3.190000e+00
  P6dq TX2vh  1 3.950000e-01    1.850000e+00
  P5dq TX2vh  1 3.950000e-01    2.110000e+00
  P4dq TX2vh  1 3.950000e-01    2.110000e+00
  P3dq TX2vh  1 3.950000e-01    2.110000e+00
  P2dq TX2vh  1 3.950000e-01    2.110000e+00
  P1dq TX2vh  1 3.950000e-01    2.110000e+00
  N6dq TX2vh  1 3.950000e-01    2.110000e+00
  N5dq TX2vh  1 3.950000e-01    2.310000e+00
  N4dq TX2vh  1 3.950000e-01    2.310000e+00
  N3dq TX2vh  1 3.950000e-01    2.310000e+00
  N2dq TX2vh  1 3.950000e-01    2.310000e+00
  N1dq TX2vh  1 3.950000e-01    2.310000e+00
  P6aq TX2vh  1 3.950000e-01    2.310000e+00
  P5aq TX2vh  1 3.950000e-01    2.500000e+00
  P4aq TX2vh  1 3.950000e-01    2.500000e+00
  P3aq TX2vh  1 3.950000e-01    2.500000e+00
  P2aq TX2vh  1 3.950000e-01    2.500000e+00
  P1aq TX2vh  1 3.950000e-01    2.500000e+00
  N6aq TX2vh  1 3.950000e-01    2.500000e+00
  N5aq TX2vh  1 3.950000e-01    2.700000e+00
  N4aq TX2vh  1 3.950000e-01    2.700000e+00
  N3aq TX2vh  1 3.950000e-01    2.700000e+00
  N2aq TX2vh  1 3.950000e-01    2.700000e+00
  N1aq TX2vh  1 3.950000e-01    2.700000e+00
  C6vq TX2vh  1 3.950000e-01    2.500000e+00
  C5vq TX2vh  1 3.950000e-01    2.310000e+00
  C4vq TX2vh  1 3.950000e-01    2.310000e+00
  C3vq TX2vh  1 3.950000e-01    2.310000e+00
  C2vq TX2vh  1 3.950000e-01    2.310000e+00
  C1vq TX2vh  1 3.950000e-01    2.310000e+00
  X4vq TX2vh  1 3.950000e-01    2.500000e+00
  X3vq TX2vh  1 3.950000e-01    2.700000e+00
  X2vh TX2vq  1 3.950000e-01    2.700000e+00
  X2vh TX1eq  1 3.950000e-01    3.430000e+00
  X2vh TX2eq  1 3.950000e-01    3.430000e+00
  X3eq TX2vh  1 3.950000e-01    3.430000e+00
  X4eq TX2vh  1 3.950000e-01    3.190000e+00
  C1eq TX2vh  1 3.950000e-01    2.940000e+00
  C2eq TX2vh  1 3.950000e-01    2.940000e+00
  C3eq TX2vh  1 3.950000e-01    2.940000e+00
  C4eq TX2vh  1 3.950000e-01    2.940000e+00
  C5eq TX2vh  1 3.950000e-01    2.940000e+00
  C6eq TX2vh  1 3.950000e-01    3.190000e+00
  X2vh TX1vq  1 3.950000e-01    2.700000e+00
   X1v TX1vh  1 3.950000e-01    2.500000e+00
   C6e TX1vh  1 3.950000e-01    2.700000e+00
   C5e TX1vh  1 3.950000e-01    2.700000e+00
   C4e TX1vh  1 3.950000e-01    2.700000e+00
   C3e TX1vh  1 3.950000e-01    2.700000e+00
   C2e TX1vh  1 3.950000e-01    2.500000e+00
   C1e TX1vh  1 3.950000e-01    2.500000e+00
   X4e TX1vh  1 3.950000e-01    2.700000e+00
   X3e TX1vh  1 3.950000e-01    2.940000e+00
   X2e TX1vh  1 3.950000e-01    2.940000e+00
  X1vh  TX1e  1 3.950000e-01    3.190000e+00
   P6q TX1vh  1 3.950000e-01    2.110000e+00
   P5q TX1vh  1 3.950000e-01    2.110000e+00
   P4q TX1vh  1 3.950000e-01    2.310000e+00
   P3q TX1vh  1 3.950000e-01    2.310000e+00
   P2q TX1vh  1 3.950000e-01    2.310000e+00
   P1q TX1vh  1 3.950000e-01    2.310000e+00
   N6q TX1vh  1 3.950000e-01    2.310000e+00
   N5q TX1vh  1 3.950000e-01    2.500000e+00
   N4q TX1vh  1 3.950000e-01    2.500000e+00
   N3q TX1vh  1 3.950000e-01    2.700000e+00
   N2q TX1vh  1 3.950000e-01    2.700000e+00
   N1q TX1vh  1 3.950000e-01    2.700000e+00
   C6q TX1vh  1 3.950000e-01    2.940000e+00
   C5q TX1vh  1 3.950000e-01    2.940000e+00
   C4q TX1vh  1 3.950000e-01    2.940000e+00
   C3q TX1vh  1 3.950000e-01    2.940000e+00
   C2q TX1vh  1 3.950000e-01    2.700000e+00
   C1q TX1vh  1 3.950000e-01    2.700000e+00
   X4q TX1vh  1 3.950000e-01    2.940000e+00
   X3q TX1vh  1 3.950000e-01    3.190000e+00
   X2q TX1vh  1 3.950000e-01    3.190000e+00
   X1q TX1vh  1 3.950000e-01    3.430000e+00
  P6dq TX1vh  1 3.950000e-01    1.670000e+00
  P5dq TX1vh  1 3.950000e-01    1.670000e+00
  P4dq TX1vh  1 3.950000e-01    1.850000e+00
  P3dq TX1vh  1 3.950000e-01    1.850000e+00
  P2dq TX1vh  1 3.950000e-01    1.850000e+00
  P1dq TX1vh  1 3.950000e-01    1.850000e+00
  N6dq TX1vh  1 3.950000e-01    1.850000e+00
  N5dq TX1vh  1 3.950000e-01    2.110000e+00
  N4dq TX1vh  1 3.950000e-01    2.110000e+00
  N3dq TX1vh  1 3.950000e-01    2.310000e+00
  N2dq TX1vh  1 3.950000e-01    2.310000e+00
  N1dq TX1vh  1 3.950000e-01    2.310000e+00
  P6aq TX1vh  1 3.950000e-01    2.110000e+00
  P5aq TX1vh  1 3.950000e-01    2.110000e+00
  P4aq TX1vh  1 3.950000e-01    2.310000e+00
  P3aq TX1vh  1 3.950000e-01    2.310000e+00
  P2aq TX1vh  1 3.950000e-01    2.310000e+00
  P1aq TX1vh  1 3.950000e-01    2.310000e+00
  N6aq TX1vh  1 3.950000e-01    2.310000e+00
  N5aq TX1vh  1 3.950000e-01    2.500000e+00
  N4aq TX1vh  1 3.950000e-01    2.500000e+00
  N3aq TX1vh  1 3.950000e-01    2.700000e+00
  N2aq TX1vh  1 3.950000e-01    2.700000e+00
  N1aq TX1vh  1 3.950000e-01    2.700000e+00
  C6vq TX1vh  1 3.950000e-01    2.500000e+00
  C5vq TX1vh  1 3.950000e-01    2.500000e+00
  C4vq TX1vh  1 3.950000e-01    2.500000e+00
  C3vq TX1vh  1 3.950000e-01    2.500000e+00
  C2vq TX1vh  1 3.950000e-01    2.310000e+00
  C1vq TX1vh  1 3.950000e-01    2.310000e+00
  X4vq TX1vh  1 3.950000e-01    2.500000e+00
  X3vq TX1vh  1 3.950000e-01    2.700000e+00
  X2vq TX1vh  1 3.950000e-01    2.700000e+00
  X1vh TX1vq  1 3.950000e-01    2.940000e+00
  X1vh TX1eq  1 3.950000e-01    3.670000e+00
  X2eq TX1vh  1 3.950000e-01    3.430000e+00
  X3eq TX1vh  1 3.950000e-01    3.430000e+00
  X4eq TX1vh  1 3.950000e-01    3.190000e+00
  C1eq TX1vh  1 3.950000e-01    2.940000e+00
  C2eq TX1vh  1 3.950000e-01    2.940000e+00
  C3eq TX1vh  1 3.950000e-01    3.190000e+00
  C4eq TX1vh  1 3.950000e-01    3.190000e+00
  C5eq TX1vh  1 3.950000e-01    3.190000e+00
  C6eq TX1vh  1 3.950000e-01    3.190000e+00
   C6e TC6eh  1 3.950000e-01    2.310000e+00
  C6eh  TC5e  1 3.950000e-01    2.110000e+00
  C6eh  TC4e  1 3.950000e-01    2.110000e+00
  C6eh  TC3e  1 3.950000e-01    1.850000e+00
  C6eh  TC2e  1 3.950000e-01    1.670000e+00
  C6eh  TC1e  1 3.980000e-01    1.450000e+00
  C6eh  TX4e  1 3.950000e-01    2.110000e+00
  C6eh  TX3e  1 3.950000e-01    2.110000e+00
  C6eh  TX2e  1 3.950000e-01    2.110000e+00
  C6eh  TX1e  1 3.950000e-01    2.110000e+00
   P6q TC6eh  1 3.950000e-01    2.310000e+00
   P5q TC6eh  1 3.950000e-01    2.310000e+00
   P4q TC6eh  1 3.950000e-01    2.500000e+00
   P3q TC6eh  1 3.950000e-01    2.700000e+00
   P2q TC6eh  1 3.950000e-01    2.700000e+00
   P1q TC6eh  1 3.950000e-01    2.700000e+00
   N6q TC6eh  1 3.950000e-01    2.940000e+00
   N5q TC6eh  1 3.950000e-01    2.940000e+00
   N4q TC6eh  1 3.950000e-01    2.940000e+00
   N3q TC6eh  1 3.950000e-01    2.940000e+00
   N2q TC6eh  1 3.950000e-01    2.940000e+00
   N1q TC6eh  1 3.950000e-01    3.190000e+00
   C6q TC6eh  1 3.950000e-01    3.190000e+00
  C6eh  TC5q  1 3.950000e-01    2.940000e+00
  C6eh  TC4q  1 3.950000e-01    2.940000e+00
  C6eh  TC3q  1 3.950000e-01    2.700000e+00
  C6eh  TC2q  1 3.950000e-01    2.500000e+00
  C6eh  TC1q  1 3.950000e-01    2.310000e+00
  C6eh  TX4q  1 3.950000e-01    2.940000e+00
  C6eh  TX3q  1 3.950000e-01    2.940000e+00
  C6eh  TX2q  1 3.950000e-01    2.940000e+00
  C6eh  TX1q  1 3.950000e-01    2.940000e+00
  P6dq TC6eh  1 3.950000e-01    2.310000e+00
  P5dq TC6eh  1 3.950000e-01    2.310000e+00
  P4dq TC6eh  1 3.950000e-01    2.500000e+00
  P3dq TC6eh  1 3.950000e-01    2.700000e+00
  P2dq TC6eh  1 3.950000e-01    2.700000e+00
  P1dq TC6eh  1 3.950000e-01    2.700000e+00
  N6dq TC6eh  1 3.950000e-01    2.940000e+00
  N5dq TC6eh  1 3.950000e-01    2.940000e+00
  N4dq TC6eh  1 3.950000e-01    2.940000e+00
  N3dq TC6eh  1 3.950000e-01    2.940000e+00
  N2dq TC6eh  1 3.950000e-01    2.940000e+00
  N1dq TC6eh  1 3.950000e-01    3.190000e+00
  P6aq TC6eh  1 3.950000e-01    1.850000e+00
  P5aq TC6eh  1 3.950000e-01    1.850000e+00
  P4aq TC6eh  1 3.950000e-01    2.110000e+00
  P3aq TC6eh  1 3.950000e-01    2.310000e+00
  P2aq TC6eh  1 3.950000e-01    2.310000e+00
  P1aq TC6eh  1 3.950000e-01    2.310000e+00
  N6aq TC6eh  1 3.950000e-01    2.500000e+00
  N5aq TC6eh  1 3.950000e-01    2.500000e+00
  N4aq TC6eh  1 3.950000e-01    2.500000e+00
  N3aq TC6eh  1 3.950000e-01    2.500000e+00
  N2aq TC6eh  1 3.950000e-01    2.500000e+00
  N1aq TC6eh  1 3.950000e-01    2.700000e+00
  C6vq TC6eh  1 3.950000e-01    3.430000e+00
  C6eh TC5vq  1 3.950000e-01    3.190000e+00
  C6eh TC4vq  1 3.950000e-01    3.190000e+00
  C6eh TC3vq  1 3.950000e-01    2.940000e+00
  C6eh TC2vq  1 3.950000e-01    2.700000e+00
  C6eh TC1vq  1 3.950000e-01    2.500000e+00
  C6eh TX4vq  1 3.950000e-01    3.190000e+00
  C6eh TX3vq  1 3.950000e-01    3.190000e+00
  C6eh TX2vq  1 3.950000e-01    3.190000e+00
  C6eh TX1vq  1 3.950000e-01    3.190000e+00
  C6eh TC6eq  1 3.950000e-01    2.700000e+00
  C6eh TX1eq  1 3.950000e-01    2.500000e+00
  C6eh TX2eq  1 3.950000e-01    2.500000e+00
  C6eh TX3eq  1 3.950000e-01    2.500000e+00
  C6eh TX4eq  1 3.950000e-01    2.500000e+00
  C6eh TC1eq  1 3.950000e-01    1.850000e+00
  C6eh TC2eq  1 3.950000e-01    2.110000e+00
  C6eh TC3eq  1 3.950000e-01    2.310000e+00
  C6eh TC4eq  1 3.950000e-01    2.500000e+00
  C6eh TC5eq  1 3.950000e-01    2.500000e+00
   C5e TC5eh  1 3.950000e-01    2.110000e+00
  C5eh  TC4e  1 3.950000e-01    2.110000e+00
  C5eh  TC3e  1 3.950000e-01    1.850000e+00
  C5eh  TC2e  1 3.950000e-01    1.670000e+00
  C5eh  TC1e  1 3.950000e-01    1.670000e+00
  C5eh  TX4e  1 3.950000e-01    1.850000e+00
  C5eh  TX3e  1 3.950000e-01    1.850000e+00
  C5eh  TX2e  1 3.950000e-01    1.850000e+00
  C5eh  TX1e  1 3.950000e-01    2.110000e+00
   P6q TC5eh  1 3.950000e-01    2.110000e+00
   P5q TC5eh  1 3.950000e-01    2.310000e+00
   P4q TC5eh  1 3.950000e-01    2.310000e+00
   P3q TC5eh  1 3.950000e-01    2.500000e+00
   P2q TC5eh  1 3.950000e-01    2.500000e+00
   P1q TC5eh  1 3.950000e-01    2.500000e+00
   N6q TC5eh  1 3.950000e-01    2.700000e+00
   N5q TC5eh  1 3.950000e-01    2.700000e+00
   N4q TC5eh  1 3.950000e-01    2.700000e+00
   N3q TC5eh  1 3.950000e-01    2.700000e+00
   N2q TC5eh  1 3.950000e-01    2.700000e+00
   N1q TC5eh  1 3.950000e-01    2.940000e+00
   C6q TC5eh  1 3.950000e-01    2.940000e+00
   C5q TC5eh  1 3.950000e-01    2.940000e+00
  C5eh  TC4q  1 3.950000e-01    2.940000e+00
  C5eh  TC3q  1 3.950000e-01    2.700000e+00
  C5eh  TC2q  1 3.950000e-01    2.500000e+00
  C5eh  TC1q  1 3.950000e-01    2.500000e+00
  C5eh  TX4q  1 3.950000e-01    2.700000e+00
  C5eh  TX3q  1 3.950000e-01    2.700000e+00
  C5eh  TX2q  1 3.950000e-01    2.700000e+00
  C5eh  TX1q  1 3.950000e-01    2.940000e+00
  P6dq TC5eh  1 3.950000e-01    2.110000e+00
  P5dq TC5eh  1 3.950000e-01    2.310000e+00
  P4dq TC5eh  1 3.950000e-01    2.310000e+00
  P3dq TC5eh  1 3.950000e-01    2.500000e+00
  P2dq TC5eh  1 3.950000e-01    2.500000e+00
  P1dq TC5eh  1 3.950000e-01    2.500000e+00
  N6dq TC5eh  1 3.950000e-01    2.700000e+00
  N5dq TC5eh  1 3.950000e-01    2.700000e+00
  N4dq TC5eh  1 3.950000e-01    2.700000e+00
  N3dq TC5eh  1 3.950000e-01    2.700000e+00
  N2dq TC5eh  1 3.950000e-01    2.700000e+00
  N1dq TC5eh  1 3.950000e-01    2.940000e+00
  P6aq TC5eh  1 3.950000e-01    1.670000e+00
  P5aq TC5eh  1 3.950000e-01    1.850000e+00
  P4aq TC5eh  1 3.950000e-01    1.850000e+00
  P3aq TC5eh  1 3.950000e-01    2.110000e+00
  P2aq TC5eh  1 3.950000e-01    2.110000e+00
  P1aq TC5eh  1 3.950000e-01    2.110000e+00
  N6aq TC5eh  1 3.950000e-01    2.310000e+00
  N5aq TC5eh  1 3.950000e-01    2.310000e+00
  N4aq TC5eh  1 3.950000e-01    2.310000e+00
  N3aq TC5eh  1 3.950000e-01    2.310000e+00
  N2aq TC5eh  1 3.950000e-01    2.310000e+00
  N1aq TC5eh  1 3.950000e-01    2.500000e+00
  C6vq TC5eh  1 3.950000e-01    3.190000e+00
  C5vq TC5eh  1 3.950000e-01    3.190000e+00
  C5eh TC4vq  1 3.950000e-01    3.190000e+00
  C5eh TC3vq  1 3.950000e-01    2.940000e+00
  C5eh TC2vq  1 3.950000e-01    2.700000e+00
  C5eh TC1vq  1 3.950000e-01    2.700000e+00
  C5eh TX4vq  1 3.950000e-01    2.940000e+00
  C5eh TX3vq  1 3.950000e-01    2.940000e+00
  C5eh TX2vq  1 3.950000e-01    2.940000e+00
  C5eh TX1vq  1 3.950000e-01    3.190000e+00
  C6eq TC5eh  1 3.950000e-01    2.500000e+00
  C5eh TC5eq  1 3.950000e-01    2.500000e+00
  C5eh TX1eq  1 3.950000e-01    2.500000e+00
  C5eh TX2eq  1 3.950000e-01    2.310000e+00
  C5eh TX3eq  1 3.950000e-01    2.310000e+00
  C5eh TX4eq  1 3.950000e-01    2.310000e+00
  C5eh TC1eq  1 3.950000e-01    2.110000e+00
  C5eh TC2eq  1 3.950000e-01    2.110000e+00
  C5eh TC3eq  1 3.950000e-01    2.310000e+00
  C5eh TC4eq  1 3.950000e-01    2.500000e+00
   C4e TC4eh  1 3.950000e-01    2.110000e+00
  C4eh  TC3e  1 3.950000e-01    2.110000e+00
  C4eh  TC2e  1 3.950000e-01    1.850000e+00
  C4eh  TC1e  1 3.950000e-01    1.670000e+00
  C4eh  TX4e  1 3.950000e-01    1.850000e+00
  C4eh  TX3e  1 3.950000e-01    1.850000e+00
  C4eh  TX2e  1 3.950000e-01    1.850000e+00
  C4eh  TX1e  1 3.950000e-01    2.110000e+00
   P6q TC4eh  1 3.950000e-01    1.850000e+00
   P5q TC4eh  1 3.950000e-01    2.110000e+00
   P4q TC4eh  1 3.950000e-01    2.110000e+00
   P3q TC4eh  1 3.950000e-01    2.310000e+00
   P2q TC4eh  1 3.950000e-01    2.310000e+00
   P1q TC4eh  1 3.950000e-01    2.310000e+00
   N6q TC4eh  1 3.950000e-01    2.500000e+00
   N5q TC4eh  1 3.950000e-01    2.500000e+00
   N4q TC4eh  1 3.950000e-01    2.700000e+00
   N3q TC4eh  1 3.950000e-01    2.700000e+00
   N2q TC4eh  1 3.950000e-01    2.700000e+00
   N1q TC4eh  1 3.950000e-01    2.940000e+00
   C6q TC4eh  1 3.950000e-01    2.940000e+00
   C5q TC4eh  1 3.950000e-01    2.940000e+00
   C4q TC4eh  1 3.950000e-01    2.940000e+00
  C4eh  TC3q  1 3.950000e-01    2.940000e+00
  C4eh  TC2q  1 3.950000e-01    2.700000e+00
  C4eh  TC1q  1 3.950000e-01    2.500000e+00
  C4eh  TX4q  1 3.950000e-01    2.700000e+00
  C4eh  TX3q  1 3.950000e-01    2.700000e+00
  C4eh  TX2q  1 3.950000e-01    2.700000e+00
  C4eh  TX1q  1 3.950000e-01    2.940000e+00
  P6dq TC4eh  1 3.950000e-01    1.850000e+00
  P5dq TC4eh  1 3.950000e-01    2.110000e+00
  P4dq TC4eh  1 3.950000e-01    2.110000e+00
  P3dq TC4eh  1 3.950000e-01    2.310000e+00
  P2dq TC4eh  1 3.950000e-01    2.310000e+00
  P1dq TC4eh  1 3.950000e-01    2.310000e+00
  N6dq TC4eh  1 3.950000e-01    2.500000e+00
  N5dq TC4eh  1 3.950000e-01    2.500000e+00
  N4dq TC4eh  1 3.950000e-01    2.700000e+00
  N3dq TC4eh  1 3.950000e-01    2.700000e+00
  N2dq TC4eh  1 3.950000e-01    2.700000e+00
  N1dq TC4eh  1 3.950000e-01    2.940000e+00
  P6aq TC4eh  1 3.980000e-01    1.450000e+00
  P5aq TC4eh  1 3.950000e-01    1.670000e+00
  P4aq TC4eh  1 3.950000e-01    1.670000e+00
  P3aq TC4eh  1 3.950000e-01    1.850000e+00
  P2aq TC4eh  1 3.950000e-01    1.850000e+00
  P1aq TC4eh  1 3.950000e-01    1.850000e+00
  N6aq TC4eh  1 3.950000e-01    2.110000e+00
  N5aq TC4eh  1 3.950000e-01    2.110000e+00
  N4aq TC4eh  1 3.950000e-01    2.310000e+00
  N3aq TC4eh  1 3.950000e-01    2.310000e+00
  N2aq TC4eh  1 3.950000e-01    2.310000e+00
  N1aq TC4eh  1 3.950000e-01    2.500000e+00
  C6vq TC4eh  1 3.950000e-01    3.190000e+00
  C5vq TC4eh  1 3.950000e-01    3.190000e+00
  C4vq TC4eh  1 3.950000e-01    3.190000e+00
  C4eh TC3vq  1 3.950000e-01    3.190000e+00
  C4eh TC2vq  1 3.950000e-01    2.940000e+00
  C4eh TC1vq  1 3.950000e-01    2.700000e+00
  C4eh TX4vq  1 3.950000e-01    2.940000e+00
  C4eh TX3vq  1 3.950000e-01    2.940000e+00
  C4eh TX2vq  1 3.950000e-01    2.940000e+00
  C4eh TX1vq  1 3.950000e-01    3.190000e+00
  C6eq TC4eh  1 3.950000e-01    2.500000e+00
  C5eq TC4eh  1 3.950000e-01    2.500000e+00
  C4eh TC4eq  1 3.950000e-01    2.500000e+00
  C4eh TX1eq  1 3.950000e-01    2.500000e+00
  C4eh TX2eq  1 3.950000e-01    2.310000e+00
  C4eh TX3eq  1 3.950000e-01    2.310000e+00
  C4eh TX4eq  1 3.950000e-01    2.310000e+00
  C4eh TC1eq  1 3.950000e-01    2.110000e+00
  C4eh TC2eq  1 3.950000e-01    2.310000e+00
  C4eh TC3eq  1 3.950000e-01    2.500000e+00
   C3e TC3eh  1 3.950000e-01    2.110000e+00
  C3eh  TC2e  1 3.950000e-01    2.110000e+00
  C3eh  TC1e  1 3.950000e-01    2.110000e+00
  C3eh  TX4e  1 3.950000e-01    1.850000e+00
  C3eh  TX3e  1 3.950000e-01    1.850000e+00
  C3eh  TX2e  1 3.950000e-01    1.850000e+00
  C3eh  TX1e  1 3.950000e-01    2.110000e+00
   P6q TC3eh  1 3.950000e-01    1.670000e+00
   P5q TC3eh  1 3.950000e-01    1.850000e+00
   P4q TC3eh  1 3.950000e-01    1.850000e+00
   P3q TC3eh  1 3.950000e-01    1.850000e+00
   P2q TC3eh  1 3.950000e-01    2.110000e+00
   P1q TC3eh  1 3.950000e-01    2.110000e+00
   N6q TC3eh  1 3.950000e-01    2.310000e+00
   N5q TC3eh  1 3.950000e-01    2.500000e+00
   N4q TC3eh  1 3.950000e-01    2.500000e+00
   N3q TC3eh  1 3.950000e-01    2.500000e+00
   N2q TC3eh  1 3.950000e-01    2.700000e+00
   N1q TC3eh  1 3.950000e-01    2.700000e+00
   C6q TC3eh  1 3.950000e-01    2.700000e+00
   C5q TC3eh  1 3.950000e-01    2.700000e+00
   C4q TC3eh  1 3.950000e-01    2.940000e+00
   C3q TC3eh  1 3.950000e-01    2.940000e+00
  C3eh  TC2q  1 3.950000e-01    2.940000e+00
  C3eh  TC1q  1 3.950000e-01    2.940000e+00
  C3eh  TX4q  1 3.950000e-01    2.700000e+00
  C3eh  TX3q  1 3.950000e-01    2.700000e+00
  C3eh  TX2q  1 3.950000e-01    2.700000e+00
  C3eh  TX1q  1 3.950000e-01    2.940000e+00
  P6dq TC3eh  1 3.950000e-01    1.670000e+00
  P5dq TC3eh  1 3.950000e-01    1.850000e+00
  P4dq TC3eh  1 3.950000e-01    1.850000e+00
  P3dq TC3eh  1 3.950000e-01    1.850000e+00
  P2dq TC3eh  1 3.950000e-01    2.110000e+00
  P1dq TC3eh  1 3.950000e-01    2.110000e+00
  N6dq TC3eh  1 3.950000e-01    2.310000e+00
  N5dq TC3eh  1 3.950000e-01    2.500000e+00
  N4dq TC3eh  1 3.950000e-01    2.500000e+00
  N3dq TC3eh  1 3.950000e-01    2.500000e+00
  N2dq TC3eh  1 3.950000e-01    2.700000e+00
  N1dq TC3eh  1 3.950000e-01    2.700000e+00
  P6aq TC3eh  1 3.990000e-01    1.180000e+00
  P5aq TC3eh  1 3.980000e-01    1.450000e+00
  P4aq TC3eh  1 3.980000e-01    1.450000e+00
  P3aq TC3eh  1 3.980000e-01    1.450000e+00
  P2aq TC3eh  1 3.950000e-01    1.670000e+00
  P1aq TC3eh  1 3.950000e-01    1.670000e+00
  N6aq TC3eh  1 3.950000e-01    1.850000e+00
  N5aq TC3eh  1 3.950000e-01    2.110000e+00
  N4aq TC3eh  1 3.950000e-01    2.110000e+00
  N3aq TC3eh  1 3.950000e-01    2.110000e+00
  N2aq TC3eh  1 3.950000e-01    2.310000e+00
  N1aq TC3eh  1 3.950000e-01    2.310000e+00
  C6vq TC3eh  1 3.950000e-01    2.940000e+00
  C5vq TC3eh  1 3.950000e-01    2.940000e+00
  C4vq TC3eh  1 3.950000e-01    3.190000e+00
  C3vq TC3eh  1 3.950000e-01    3.190000e+00
  C3eh TC2vq  1 3.950000e-01    3.190000e+00
  C3eh TC1vq  1 3.950000e-01    3.190000e+00
  C3eh TX4vq  1 3.950000e-01    2.940000e+00
  C3eh TX3vq  1 3.950000e-01    2.940000e+00
  C3eh TX2vq  1 3.950000e-01    2.940000e+00
  C3eh TX1vq  1 3.950000e-01    3.190000e+00
  C6eq TC3eh  1 3.950000e-01    2.310000e+00
  C5eq TC3eh  1 3.950000e-01    2.310000e+00
  C4eq TC3eh  1 3.950000e-01    2.500000e+00
  C3eh TC3eq  1 3.950000e-01    2.500000e+00
  C3eh TX1eq  1 3.950000e-01    2.500000e+00
  C3eh TX2eq  1 3.950000e-01    2.310000e+00
  C3eh TX3eq  1 3.950000e-01    2.310000e+00
  C3eh TX4eq  1 3.950000e-01    2.310000e+00
  C3eh TC1eq  1 3.950000e-01    2.500000e+00
  C3eh TC2eq  1 3.950000e-01    2.500000e+00
   C2e TC2eh  1 3.950000e-01    2.110000e+00
  C2eh  TC1e  1 3.950000e-01    2.310000e+00
  C2eh  TX4e  1 3.980000e-01    1.450000e+00
  C2eh  TX3e  1 3.950000e-01    1.850000e+00
  C2eh  TX2e  1 3.950000e-01    1.850000e+00
  C2eh  TX1e  1 3.950000e-01    1.850000e+00
   P6q TC2eh  1 3.950000e-01    1.670000e+00
   P5q TC2eh  1 3.950000e-01    1.850000e+00
   P4q TC2eh  1 3.950000e-01    1.850000e+00
   P3q TC2eh  1 3.950000e-01    1.850000e+00
   P2q TC2eh  1 3.950000e-01    2.110000e+00
   P1q TC2eh  1 3.950000e-01    2.110000e+00
   N6q TC2eh  1 3.950000e-01    2.310000e+00
   N5q TC2eh  1 3.950000e-01    2.310000e+00
   N4q TC2eh  1 3.950000e-01    2.310000e+00
   N3q TC2eh  1 3.950000e-01    2.500000e+00
   N2q TC2eh  1 3.950000e-01    2.500000e+00
   N1q TC2eh  1 3.950000e-01    2.500000e+00
   C6q TC2eh  1 3.950000e-01    2.500000e+00
   C5q TC2eh  1 3.950000e-01    2.500000e+00
   C4q TC2eh  1 3.950000e-01    2.700000e+00
   C3q TC2eh  1 3.950000e-01    2.940000e+00
   C2q TC2eh  1 3.950000e-01    2.940000e+00
  C2eh  TC1q  1 3.950000e-01    3.190000e+00
  C2eh  TX4q  1 3.950000e-01    2.310000e+00
  C2eh  TX3q  1 3.950000e-01    2.700000e+00
  C2eh  TX2q  1 3.950000e-01    2.700000e+00
  C2eh  TX1q  1 3.950000e-01    2.700000e+00
  P6dq TC2eh  1 3.950000e-01    1.670000e+00
  P5dq TC2eh  1 3.950000e-01    1.850000e+00
  P4dq TC2eh  1 3.950000e-01    1.850000e+00
  P3dq TC2eh  1 3.950000e-01    1.850000e+00
  P2dq TC2eh  1 3.950000e-01    2.110000e+00
  P1dq TC2eh  1 3.950000e-01    2.110000e+00
  N6dq TC2eh  1 3.950000e-01    2.310000e+00
  N5dq TC2eh  1 3.950000e-01    2.310000e+00
  N4dq TC2eh  1 3.950000e-01    2.310000e+00
  N3dq TC2eh  1 3.950000e-01    2.500000e+00
  N2dq TC2eh  1 3.950000e-01    2.500000e+00
  N1dq TC2eh  1 3.950000e-01    2.500000e+00
  P6aq TC2eh  1 3.990000e-01    1.180000e+00
  P5aq TC2eh  1 3.980000e-01    1.450000e+00
  P4aq TC2eh  1 3.980000e-01    1.450000e+00
  P3aq TC2eh  1 3.980000e-01    1.450000e+00
  P2aq TC2eh  1 3.950000e-01    1.670000e+00
  P1aq TC2eh  1 3.950000e-01    1.670000e+00
  N6aq TC2eh  1 3.950000e-01    1.850000e+00
  N5aq TC2eh  1 3.950000e-01    1.850000e+00
  N4aq TC2eh  1 3.950000e-01    1.850000e+00
  N3aq TC2eh  1 3.950000e-01    2.110000e+00
  N2aq TC2eh  1 3.950000e-01    2.110000e+00
  N1aq TC2eh  1 3.950000e-01    2.110000e+00
  C6vq TC2eh  1 3.950000e-01    2.700000e+00
  C5vq TC2eh  1 3.950000e-01    2.700000e+00
  C4vq TC2eh  1 3.950000e-01    2.940000e+00
  C3vq TC2eh  1 3.950000e-01    3.190000e+00
  C2vq TC2eh  1 3.950000e-01    3.190000e+00
  C2eh TC1vq  1 3.950000e-01    3.430000e+00
  C2eh TX4vq  1 3.950000e-01    2.500000e+00
  C2eh TX3vq  1 3.950000e-01    2.940000e+00
  C2eh TX2vq  1 3.950000e-01    2.940000e+00
  C2eh TX1vq  1 3.950000e-01    2.940000e+00
  C6eq TC2eh  1 3.950000e-01    2.110000e+00
  C5eq TC2eh  1 3.950000e-01    2.110000e+00
  C4eq TC2eh  1 3.950000e-01    2.310000e+00
  C3eq TC2eh  1 3.950000e-01    2.500000e+00
  C2eh TC2eq  1 3.950000e-01    2.500000e+00
  C2eh TX1eq  1 3.950000e-01    2.310000e+00
  C2eh TX2eq  1 3.950000e-01    2.310000e+00
  C2eh TX3eq  1 3.950000e-01    2.310000e+00
  C2eh TX4eq  1 3.950000e-01    1.850000e+00
  C2eh TC1eq  1 3.950000e-01    2.700000e+00
   C1e TC1eh  1 3.950000e-01    2.110000e+00
  C1eh  TX4e  1 3.980000e-01    1.450000e+00
  C1eh  TX3e  1 3.950000e-01    1.850000e+00
  C1eh  TX2e  1 3.950000e-01    1.850000e+00
  C1eh  TX1e  1 3.950000e-01    1.850000e+00
   P6q TC1eh  1 3.990000e-01    1.180000e+00
   P5q TC1eh  1 3.950000e-01    1.670000e+00
   P4q TC1eh  1 3.950000e-01    1.670000e+00
   P3q TC1eh  1 3.950000e-01    1.670000e+00
   P2q TC1eh  1 3.950000e-01    1.850000e+00
   P1q TC1eh  1 3.950000e-01    1.850000e+00
   N6q TC1eh  1 3.950000e-01    2.110000e+00
   N5q TC1eh  1 3.950000e-01    2.110000e+00
   N4q TC1eh  1 3.950000e-01    2.110000e+00
   N3q TC1eh  1 3.950000e-01    2.310000e+00
   N2q TC1eh  1 3.950000e-01    2.310000e+00
   N1q TC1eh  1 3.950000e-01    2.310000e+00
   C6q TC1eh  1 3.950000e-01    2.310000e+00
   C5q TC1eh  1 3.950000e-01    2.500000e+00
   C4q TC1eh  1 3.950000e-01    2.500000e+00
   C3q TC1eh  1 3.950000e-01    2.940000e+00
   C2q TC1eh  1 3.950000e-01    3.190000e+00
   C1q TC1eh  1 3.950000e-01    2.940000e+00
  C1eh  TX4q  1 3.950000e-01    2.310000e+00
  C1eh  TX3q  1 3.950000e-01    2.700000e+00
  C1eh  TX2q  1 3.950000e-01    2.700000e+00
  C1eh  TX1q  1 3.950000e-01    2.700000e+00
  P6dq TC1eh  1 3.990000e-01    1.180000e+00
  P5dq TC1eh  1 3.950000e-01    1.670000e+00
  P4dq TC1eh  1 3.950000e-01    1.670000e+00
  P3dq TC1eh  1 3.950000e-01    1.670000e+00
  P2dq TC1eh  1 3.950000e-01    1.850000e+00
  P1dq TC1eh  1 3.950000e-01    1.850000e+00
  N6dq TC1eh  1 3.950000e-01    2.110000e+00
  N5dq TC1eh  1 3.950000e-01    2.110000e+00
  N4dq TC1eh  1 3.950000e-01    2.110000e+00
  N3dq TC1eh  1 3.950000e-01    2.310000e+00
  N2dq TC1eh  1 3.950000e-01    2.310000e+00
  N1dq TC1eh  1 3.950000e-01    2.310000e+00
  P6aq TC1eh  1 4.040000e-01    8.300000e-01
  P5aq TC1eh  1 3.990000e-01    1.180000e+00
  P4aq TC1eh  1 3.990000e-01    1.180000e+00
  P3aq TC1eh  1 3.990000e-01    1.180000e+00
  P2aq TC1eh  1 3.980000e-01    1.450000e+00
  P1aq TC1eh  1 3.980000e-01    1.450000e+00
  N6aq TC1eh  1 3.950000e-01    1.670000e+00
  N5aq TC1eh  1 3.950000e-01    1.670000e+00
  N4aq TC1eh  1 3.950000e-01    1.670000e+00
  N3aq TC1eh  1 3.950000e-01    1.850000e+00
  N2aq TC1eh  1 3.950000e-01    1.850000e+00
  N1aq TC1eh  1 3.950000e-01    1.850000e+00
  C6vq TC1eh  1 3.950000e-01    2.500000e+00
  C5vq TC1eh  1 3.950000e-01    2.700000e+00
  C4vq TC1eh  1 3.950000e-01    2.700000e+00
  C3vq TC1eh  1 3.950000e-01    3.190000e+00
  C2vq TC1eh  1 3.950000e-01    3.430000e+00
  C1vq TC1eh  1 3.950000e-01    3.190000e+00
  C1eh TX4vq  1 3.950000e-01    2.500000e+00
  C1eh TX3vq  1 3.950000e-01    2.940000e+00
  C1eh TX2vq  1 3.950000e-01    2.940000e+00
  C1eh TX1vq  1 3.950000e-01    2.940000e+00
  C6eq TC1eh  1 3.950000e-01    1.850000e+00
  C5eq TC1eh  1 3.950000e-01    2.110000e+00
  C4eq TC1eh  1 3.950000e-01    2.110000e+00
  C3eq TC1eh  1 3.950000e-01    2.500000e+00
  C2eq TC1eh  1 3.950000e-01    2.700000e+00
  C1eh TC1eq  1 3.950000e-01    2.500000e+00
  C1eh TX1eq  1 3.950000e-01    2.310000e+00
  C1eh TX2eq  1 3.950000e-01    2.310000e+00
  C1eh TX3eq  1 3.950000e-01    2.310000e+00
  C1eh TX4eq  1 3.950000e-01    1.850000e+00
   X4e TX4eh  1 3.950000e-01    2.110000e+00
  X4eh  TX3e  1 3.950000e-01    2.110000e+00
  X4eh  TX2e  1 3.950000e-01    2.110000e+00
  X4eh  TX1e  1 3.950000e-01    2.110000e+00
   P6q TX4eh  1 3.950000e-01    2.500000e+00
   P5q TX4eh  1 3.950000e-01    2.700000e+00
   P4q TX4eh  1 3.950000e-01    2.700000e+00
   P3q TX4eh  1 3.950000e-01    2.700000e+00
   P2q TX4eh  1 3.950000e-01    2.700000e+00
   P1q TX4eh  1 3.950000e-01    2.700000e+00
   N6q TX4eh  1 3.950000e-01    2.940000e+00
   N5q TX4eh  1 3.950000e-01    3.190000e+00
   N4q TX4eh  1 3.950000e-01    3.430000e+00
   N3q TX4eh  1 3.950000e-01    3.190000e+00
   N2q TX4eh  1 3.950000e-01    3.190000e+00
   N1q TX4eh  1 3.950000e-01    2.940000e+00
   C6q TX4eh  1 3.950000e-01    2.940000e+00
   C5q TX4eh  1 3.950000e-01    2.700000e+00
   C4q TX4eh  1 3.950000e-01    2.700000e+00
   C3q TX4eh  1 3.950000e-01    2.700000e+00
   C2q TX4eh  1 3.950000e-01    2.310000e+00
   C1q TX4eh  1 3.950000e-01    2.310000e+00
   X4q TX4eh  1 3.950000e-01    2.940000e+00
  X4eh  TX3q  1 3.950000e-01    2.940000e+00
  X4eh  TX2q  1 3.950000e-01    2.940000e+00
  X4eh  TX1q  1 3.950000e-01    2.940000e+00
  P6dq TX4eh  1 3.950000e-01    2.500000e+00
  P5dq TX4eh  1 3.950000e-01    2.700000e+00
  P4dq TX4eh  1 3.950000e-01    2.700000e+00
  P3dq TX4eh  1 3.950000e-01    2.700000e+00
  P2dq TX4eh  1 3.950000e-01    2.700000e+00
  P1dq TX4eh  1 3.950000e-01    2.700000e+00
  N6dq TX4eh  1 3.950000e-01    2.940000e+00
  N5dq TX4eh  1 3.950000e-01    3.190000e+00
  N4dq TX4eh  1 3.950000e-01    3.430000e+00
  N3dq TX4eh  1 3.950000e-01    3.190000e+00
  N2dq TX4eh  1 3.950000e-01    3.190000e+00
  N1dq TX4eh  1 3.950000e-01    2.940000e+00
  P6aq TX4eh  1 3.950000e-01    2.110000e+00
  P5aq TX4eh  1 3.950000e-01    2.310000e+00
  P4aq TX4eh  1 3.950000e-01    2.310000e+00
  P3aq TX4eh  1 3.950000e-01    2.310000e+00
  P2aq TX4eh  1 3.950000e-01    2.310000e+00
  P1aq TX4eh  1 3.950000e-01    2.310000e+00
  N6aq TX4eh  1 3.950000e-01    2.500000e+00
  N5aq TX4eh  1 3.950000e-01    2.700000e+00
  N4aq TX4eh  1 3.950000e-01    2.940000e+00
  N3aq TX4eh  1 3.950000e-01    2.700000e+00
  N2aq TX4eh  1 3.950000e-01    2.700000e+00
  N1aq TX4eh  1 3.950000e-01    2.500000e+00
  C6vq TX4eh  1 3.950000e-01    3.190000e+00
  C5vq TX4eh  1 3.950000e-01    2.940000e+00
  C4vq TX4eh  1 3.950000e-01    2.940000e+00
  C3vq TX4eh  1 3.950000e-01    2.940000e+00
  C2vq TX4eh  1 3.950000e-01    2.500000e+00
  C1vq TX4eh  1 3.950000e-01    2.500000e+00
  X4vq TX4eh  1 3.950000e-01    3.190000e+00
  X4eh TX3vq  1 3.950000e-01    3.190000e+00
  X4eh TX2vq  1 3.950000e-01    3.190000e+00
  X4eh TX1vq  1 3.950000e-01    3.190000e+00
  C6eq TX4eh  1 3.950000e-01    2.500000e+00
  C5eq TX4eh  1 3.950000e-01    2.310000e+00
  C4eq TX4eh  1 3.950000e-01    2.310000e+00
  C3eq TX4eh  1 3.950000e-01    2.310000e+00
  C2eq TX4eh  1 3.950000e-01    1.850000e+00
  C1eq TX4eh  1 3.950000e-01    1.850000e+00
  X4eh TX4eq  1 3.950000e-01    2.500000e+00
  X4eh TX1eq  1 3.950000e-01    2.500000e+00
  X4eh TX2eq  1 3.950000e-01    2.500000e+00
  X4eh TX3eq  1 3.950000e-01    2.500000e+00
   X3e TX3eh  1 3.950000e-01    2.110000e+00
  X3eh  TX2e  1 3.950000e-01    2.310000e+00
  X3eh  TX1e  1 3.950000e-01    2.310000e+00
   P6q TX3eh  1 3.950000e-01    2.500000e+00
   P5q TX3eh  1 3.950000e-01    2.500000e+00
   P4q TX3eh  1 3.950000e-01    2.500000e+00
   P3q TX3eh  1 3.950000e-01    2.700000e+00
   P2q TX3eh  1 3.950000e-01    2.700000e+00
   P1q TX3eh  1 3.950000e-01    2.700000e+00
   N6q TX3eh  1 3.950000e-01    2.700000e+00
   N5q TX3eh  1 3.950000e-01    2.940000e+00
   N4q TX3eh  1 3.950000e-01    3.190000e+00
   N3q TX3eh  1 3.950000e-01    2.940000e+00
   N2q TX3eh  1 3.950000e-01    2.940000e+00
   N1q TX3eh  1 3.950000e-01    2.940000e+00
   C6q TX3eh  1 3.950000e-01    2.940000e+00
   C5q TX3eh  1 3.950000e-01    2.700000e+00
   C4q TX3eh  1 3.950000e-01    2.700000e+00
   C3q TX3eh  1 3.950000e-01    2.700000e+00
   C2q TX3eh  1 3.950000e-01    2.700000e+00
   C1q TX3eh  1 3.950000e-01    2.700000e+00
   X4q TX3eh  1 3.950000e-01    2.940000e+00
   X3q TX3eh  1 3.950000e-01    2.940000e+00
  X3eh  TX2q  1 3.950000e-01    3.190000e+00
  X3eh  TX1q  1 3.950000e-01    3.190000e+00
  P6dq TX3eh  1 3.950000e-01    2.500000e+00
  P5dq TX3eh  1 3.950000e-01    2.500000e+00
  P4dq TX3eh  1 3.950000e-01    2.500000e+00
  P3dq TX3eh  1 3.950000e-01    2.700000e+00
  P2dq TX3eh  1 3.950000e-01    2.700000e+00
  P1dq TX3eh  1 3.950000e-01    2.700000e+00
  N6dq TX3eh  1 3.950000e-01    2.700000e+00
  N5dq TX3eh  1 3.950000e-01    2.940000e+00
  N4dq TX3eh  1 3.950000e-01    3.190000e+00
  N3dq TX3eh  1 3.950000e-01    2.940000e+00
  N2dq TX3eh  1 3.950000e-01    2.940000e+00
  N1dq TX3eh  1 3.950000e-01    2.940000e+00
  P6aq TX3eh  1 3.950000e-01    2.110000e+00
  P5aq TX3eh  1 3.950000e-01    2.110000e+00
  P4aq TX3eh  1 3.950000e-01    2.110000e+00
  P3aq TX3eh  1 3.950000e-01    2.310000e+00
  P2aq TX3eh  1 3.950000e-01    2.310000e+00
  P1aq TX3eh  1 3.950000e-01    2.310000e+00
  N6aq TX3eh  1 3.950000e-01    2.310000e+00
  N5aq TX3eh  1 3.950000e-01    2.500000e+00
  N4aq TX3eh  1 3.950000e-01    2.700000e+00
  N3aq TX3eh  1 3.950000e-01    2.500000e+00
  N2aq TX3eh  1 3.950000e-01    2.500000e+00
  N1aq TX3eh  1 3.950000e-01    2.500000e+00
  C6vq TX3eh  1 3.950000e-01    3.190000e+00
  C5vq TX3eh  1 3.950000e-01    2.940000e+00
  C4vq TX3eh  1 3.950000e-01    2.940000e+00
  C3vq TX3eh  1 3.950000e-01    2.940000e+00
  C2vq TX3eh  1 3.950000e-01    2.940000e+00
  C1vq TX3eh  1 3.950000e-01    2.940000e+00
  X4vq TX3eh  1 3.950000e-01    3.190000e+00
  X3vq TX3eh  1 3.950000e-01    3.190000e+00
  X3eh TX2vq  1 3.950000e-01    3.430000e+00
  X3eh TX1vq  1 3.950000e-01    3.430000e+00
  C6eq TX3eh  1 3.950000e-01    2.500000e+00
  C5eq TX3eh  1 3.950000e-01    2.310000e+00
  C4eq TX3eh  1 3.950000e-01    2.310000e+00
  C3eq TX3eh  1 3.950000e-01    2.310000e+00
  C2eq TX3eh  1 3.950000e-01    2.310000e+00
  C1eq TX3eh  1 3.950000e-01    2.310000e+00
  X4eq TX3eh  1 3.950000e-01    2.500000e+00
  X3eh TX3eq  1 3.950000e-01    2.500000e+00
  X3eh TX1eq  1 3.950000e-01    2.700000e+00
  X3eh TX2eq  1 3.950000e-01    2.700000e+00
   X2e TX2eh  1 3.950000e-01    2.310000e+00
  X2eh  TX1e  1 3.950000e-01    2.310000e+00
   P6q TX2eh  1 3.950000e-01    2.310000e+00
   P5q TX2eh  1 3.950000e-01    2.500000e+00
   P4q TX2eh  1 3.950000e-01    2.500000e+00
   P3q TX2eh  1 3.950000e-01    2.500000e+00
   P2q TX2eh  1 3.950000e-01    2.500000e+00
   P1q TX2eh  1 3.950000e-01    2.500000e+00
   N6q TX2eh  1 3.950000e-01    2.500000e+00
   N5q TX2eh  1 3.950000e-01    2.700000e+00
   N4q TX2eh  1 3.950000e-01    2.700000e+00
   N3q TX2eh  1 3.950000e-01    2.700000e+00
   N2q TX2eh  1 3.950000e-01    2.700000e+00
   N1q TX2eh  1 3.950000e-01    2.700000e+00
   C6q TX2eh  1 3.950000e-01    2.940000e+00
   C5q TX2eh  1 3.950000e-01    2.700000e+00
   C4q TX2eh  1 3.950000e-01    2.700000e+00
   C3q TX2eh  1 3.950000e-01    2.700000e+00
   C2q TX2eh  1 3.950000e-01    2.700000e+00
   C1q TX2eh  1 3.950000e-01    2.700000e+00
   X4q TX2eh  1 3.950000e-01    2.940000e+00
   X3q TX2eh  1 3.950000e-01    3.190000e+00
   X2q TX2eh  1 3.950000e-01    3.190000e+00
  X2eh  TX1q  1 3.950000e-01    3.190000e+00
  P6dq TX2eh  1 3.950000e-01    2.310000e+00
  P5dq TX2eh  1 3.950000e-01    2.500000e+00
  P4dq TX2eh  1 3.950000e-01    2.500000e+00
  P3dq TX2eh  1 3.950000e-01    2.500000e+00
  P2dq TX2eh  1 3.950000e-01    2.500000e+00
  P1dq TX2eh  1 3.950000e-01    2.500000e+00
  N6dq TX2eh  1 3.950000e-01    2.500000e+00
  N5dq TX2eh  1 3.950000e-01    2.700000e+00
  N4dq TX2eh  1 3.950000e-01    2.700000e+00
  N3dq TX2eh  1 3.950000e-01    2.700000e+00
  N2dq TX2eh  1 3.950000e-01    2.700000e+00
  N1dq TX2eh  1 3.950000e-01    2.700000e+00
  P6aq TX2eh  1 3.950000e-01    1.850000e+00
  P5aq TX2eh  1 3.950000e-01    2.110000e+00
  P4aq TX2eh  1 3.950000e-01    2.110000e+00
  P3aq TX2eh  1 3.950000e-01    2.110000e+00
  P2aq TX2eh  1 3.950000e-01    2.110000e+00
  P1aq TX2eh  1 3.950000e-01    2.110000e+00
  N6aq TX2eh  1 3.950000e-01    2.110000e+00
  N5aq TX2eh  1 3.950000e-01    2.310000e+00
  N4aq TX2eh  1 3.950000e-01    2.310000e+00
  N3aq TX2eh  1 3.950000e-01    2.310000e+00
  N2aq TX2eh  1 3.950000e-01    2.310000e+00
  N1aq TX2eh  1 3.950000e-01    2.310000e+00
  C6vq TX2eh  1 3.950000e-01    3.190000e+00
  C5vq TX2eh  1 3.950000e-01    2.940000e+00
  C4vq TX2eh  1 3.950000e-01    2.940000e+00
  C3vq TX2eh  1 3.950000e-01    2.940000e+00
  C2vq TX2eh  1 3.950000e-01    2.940000e+00
  C1vq TX2eh  1 3.950000e-01    2.940000e+00
  X4vq TX2eh  1 3.950000e-01    3.190000e+00
  X3vq TX2eh  1 3.950000e-01    3.430000e+00
  X2vq TX2eh  1 3.950000e-01    3.430000e+00
  X2eh TX1vq  1 3.950000e-01    3.430000e+00
  C6eq TX2eh  1 3.950000e-01    2.500000e+00
  C5eq TX2eh  1 3.950000e-01    2.310000e+00
  C4eq TX2eh  1 3.950000e-01    2.310000e+00
  C3eq TX2eh  1 3.950000e-01    2.310000e+00
  C2eq TX2eh  1 3.950000e-01    2.310000e+00
  C1eq TX2eh  1 3.950000e-01    2.310000e+00
  X4eq TX2eh  1 3.950000e-01    2.500000e+00
  X3eq TX2eh  1 3.950000e-01    2.700000e+00
  X2eh TX2eq  1 3.950000e-01    2.700000e+00
  X2eh TX1eq  1 3.950000e-01    2.700000e+00
   X1e TX1eh  1 3.950000e-01    2.500000e+00
   P6q TX1eh  1 3.950000e-01    2.110000e+00
   P5q TX1eh  1 3.950000e-01    2.110000e+00
   P4q TX1eh  1 3.950000e-01    2.310000e+00
   P3q TX1eh  1 3.950000e-01    2.310000e+00
   P2q TX1eh  1 3.950000e-01    2.310000e+00
   P1q TX1eh  1 3.950000e-01    2.310000e+00
   N6q TX1eh  1 3.950000e-01    2.310000e+00
   N5q TX1eh  1 3.950000e-01    2.500000e+00
   N4q TX1eh  1 3.950000e-01    2.500000e+00
   N3q TX1eh  1 3.950000e-01    2.700000e+00
   N2q TX1eh  1 3.950000e-01    2.700000e+00
   N1q TX1eh  1 3.950000e-01    2.700000e+00
   C6q TX1eh  1 3.950000e-01    2.940000e+00
   C5q TX1eh  1 3.950000e-01    2.940000e+00
   C4q TX1eh  1 3.950000e-01    2.940000e+00
   C3q TX1eh  1 3.950000e-01    2.940000e+00
   C2q TX1eh  1 3.950000e-01    2.700000e+00
   C1q TX1eh  1 3.950000e-01    2.700000e+00
   X4q TX1eh  1 3.950000e-01    2.940000e+00
   X3q TX1eh  1 3.950000e-01    3.190000e+00
   X2q TX1eh  1 3.950000e-01    3.190000e+00
   X1q TX1eh  1 3.950000e-01    3.430000e+00
  P6dq TX1eh  1 3.950000e-01    2.110000e+00
  P5dq TX1eh  1 3.950000e-01    2.110000e+00
  P4dq TX1eh  1 3.950000e-01    2.310000e+00
  P3dq TX1eh  1 3.950000e-01    2.310000e+00
  P2dq TX1eh  1 3.950000e-01    2.310000e+00
  P1dq TX1eh  1 3.950000e-01    2.310000e+00
  N6dq TX1eh  1 3.950000e-01    2.310000e+00
  N5dq TX1eh  1 3.950000e-01    2.500000e+00
  N4dq TX1eh  1 3.950000e-01    2.500000e+00
  N3dq TX1eh  1 3.950000e-01    2.700000e+00
  N2dq TX1eh  1 3.950000e-01    2.700000e+00
  N1dq TX1eh  1 3.950000e-01    2.700000e+00
  P6aq TX1eh  1 3.950000e-01    1.670000e+00
  P5aq TX1eh  1 3.950000e-01    1.670000e+00
  P4aq TX1eh  1 3.950000e-01    1.850000e+00
  P3aq TX1eh  1 3.950000e-01    1.850000e+00
  P2aq TX1eh  1 3.950000e-01    1.850000e+00
  P1aq TX1eh  1 3.950000e-01    1.850000e+00
  N6aq TX1eh  1 3.950000e-01    1.850000e+00
  N5aq TX1eh  1 3.950000e-01    2.110000e+00
  N4aq TX1eh  1 3.950000e-01    2.110000e+00
  N3aq TX1eh  1 3.950000e-01    2.310000e+00
  N2aq TX1eh  1 3.950000e-01    2.310000e+00
  N1aq TX1eh  1 3.950000e-01    2.310000e+00
  C6vq TX1eh  1 3.950000e-01    3.190000e+00
  C5vq TX1eh  1 3.950000e-01    3.190000e+00
  C4vq TX1eh  1 3.950000e-01    3.190000e+00
  C3vq TX1eh  1 3.950000e-01    3.190000e+00
  C2vq TX1eh  1 3.950000e-01    2.940000e+00
  C1vq TX1eh  1 3.950000e-01    2.940000e+00
  X4vq TX1eh  1 3.950000e-01    3.190000e+00
  X3vq TX1eh  1 3.950000e-01    3.430000e+00
  X2vq TX1eh  1 3.950000e-01    3.430000e+00
  X1vq TX1eh  1 3.950000e-01    3.670000e+00
  C6eq TX1eh  1 3.950000e-01    2.500000e+00
  C5eq TX1eh  1 3.950000e-01    2.500000e+00
  C4eq TX1eh  1 3.950000e-01    2.500000e+00
  C3eq TX1eh  1 3.950000e-01    2.500000e+00
  C2eq TX1eh  1 3.950000e-01    2.310000e+00
  C1eq TX1eh  1 3.950000e-01    2.310000e+00
  X4eq TX1eh  1 3.950000e-01    2.500000e+00
  X3eq TX1eh  1 3.950000e-01    2.700000e+00
  X2eq TX1eh  1 3.950000e-01    2.700000e+00
  X1eh TX1eq  1 3.950000e-01    2.940000e+00
   C6e TX1eh  1 3.950000e-01    2.110000e+00
   C5e TX1eh  1 3.950000e-01    2.110000e+00
   C4e TX1eh  1 3.950000e-01    2.110000e+00
   C3e TX1eh  1 3.950000e-01    2.110000e+00
   C2e TX1eh  1 3.950000e-01    1.850000e+00
   C1e TX1eh  1 3.950000e-01    1.850000e+00
   X4e TX1eh  1 3.950000e-01    2.110000e+00
   X3e TX1eh  1 3.950000e-01    2.310000e+00
   X2e TX1eh  1 3.950000e-01    2.310000e+00
   C6v TX1eh  1 3.950000e-01    2.700000e+00
   C5v TX1eh  1 3.950000e-01    2.700000e+00
   C4v TX1eh  1 3.950000e-01    2.700000e+00
   C3v TX1eh  1 3.950000e-01    2.700000e+00
   C2v TX1eh  1 3.950000e-01    2.500000e+00
   C1v TX1eh  1 3.950000e-01    2.500000e+00
   X4v TX1eh  1 3.950000e-01    2.700000e+00
   X3v TX1eh  1 3.950000e-01    2.940000e+00
   X2v TX1eh  1 3.950000e-01    2.940000e+00
   X1v TX1eh  1 3.950000e-01    3.190000e+00
   P6d TX1eh  1 3.950000e-01    1.670000e+00
   P5d TX1eh  1 3.950000e-01    1.670000e+00
   P4d TX1eh  1 3.950000e-01    1.850000e+00
   P3d TX1eh  1 3.950000e-01    1.850000e+00
   P2d TX1eh  1 3.950000e-01    1.850000e+00
   P1d TX1eh  1 3.950000e-01    1.850000e+00
   N6d TX1eh  1 3.950000e-01    1.850000e+00
   N5d TX1eh  1 3.950000e-01    2.110000e+00
   N4d TX1eh  1 3.950000e-01    2.110000e+00
   N3d TX1eh  1 3.950000e-01    2.310000e+00
   N2d TX1eh  1 3.950000e-01    2.310000e+00
   N1d TX1eh  1 3.950000e-01    2.310000e+00
   P6a TX1eh  1 3.990000e-01    1.180000e+00
   P5a TX1eh  1 3.990000e-01    1.180000e+00
   P4a TX1eh  1 3.980000e-01    1.450000e+00
   P3a TX1eh  1 3.980000e-01    1.450000e+00
   P2a TX1eh  1 3.980000e-01    1.450000e+00
   P1a TX1eh  1 3.980000e-01    1.450000e+00
   N6a TX1eh  1 3.980000e-01    1.450000e+00
   N5a TX1eh  1 3.950000e-01    1.670000e+00
   N4a TX1eh  1 3.950000e-01    1.670000e+00
   N3a TX1eh  1 3.950000e-01    1.850000e+00
   N2a TX1eh  1 3.950000e-01    1.850000e+00
   N1a TX1eh  1 3.950000e-01    1.850000e+00
   C6e TX2eh  1 3.950000e-01    2.110000e+00
   C5e TX2eh  1 3.950000e-01    1.850000e+00
   C4e TX2eh  1 3.950000e-01    1.850000e+00
   C3e TX2eh  1 3.950000e-01    1.850000e+00
   C2e TX2eh  1 3.950000e-01    1.850000e+00
   C1e TX2eh  1 3.950000e-01    1.850000e+00
   X4e TX2eh  1 3.950000e-01    2.110000e+00
   X3e TX2eh  1 3.950000e-01    2.310000e+00
   C6v TX2eh  1 3.950000e-01    2.700000e+00
   C5v TX2eh  1 3.950000e-01    2.500000e+00
   C4v TX2eh  1 3.950000e-01    2.500000e+00
   C3v TX2eh  1 3.950000e-01    2.500000e+00
   C2v TX2eh  1 3.950000e-01    2.500000e+00
   C1v TX2eh  1 3.950000e-01    2.500000e+00
   X4v TX2eh  1 3.950000e-01    2.700000e+00
   X3v TX2eh  1 3.950000e-01    2.940000e+00
   X2v TX2eh  1 3.950000e-01    2.940000e+00
  X2eh  TX1v  1 3.950000e-01    2.940000e+00
   P6d TX2eh  1 3.950000e-01    1.850000e+00
   P5d TX2eh  1 3.950000e-01    2.110000e+00
   P4d TX2eh  1 3.950000e-01    2.110000e+00
   P3d TX2eh  1 3.950000e-01    2.110000e+00
   P2d TX2eh  1 3.950000e-01    2.110000e+00
   P1d TX2eh  1 3.950000e-01    2.110000e+00
   N6d TX2eh  1 3.950000e-01    2.110000e+00
   N5d TX2eh  1 3.950000e-01    2.310000e+00
   N4d TX2eh  1 3.950000e-01    2.310000e+00
   N3d TX2eh  1 3.950000e-01    2.310000e+00
   N2d TX2eh  1 3.950000e-01    2.310000e+00
   N1d TX2eh  1 3.950000e-01    2.310000e+00
   P6a TX2eh  1 3.980000e-01    1.450000e+00
   P5a TX2eh  1 3.950000e-01    1.670000e+00
   P4a TX2eh  1 3.950000e-01    1.670000e+00
   P3a TX2eh  1 3.950000e-01    1.670000e+00
   P2a TX2eh  1 3.950000e-01    1.670000e+00
   P1a TX2eh  1 3.950000e-01    1.670000e+00
   N6a TX2eh  1 3.950000e-01    1.670000e+00
   N5a TX2eh  1 3.950000e-01    1.850000e+00
   N4a TX2eh  1 3.950000e-01    1.850000e+00
   N3a TX2eh  1 3.950000e-01    1.850000e+00
   N2a TX2eh  1 3.950000e-01    1.850000e+00
   N1a TX2eh  1 3.950000e-01    1.850000e+00
   C6e TX3eh  1 3.950000e-01    2.110000e+00
   C5e TX3eh  1 3.950000e-01    1.850000e+00
   C4e TX3eh  1 3.950000e-01    1.850000e+00
   C3e TX3eh  1 3.950000e-01    1.850000e+00
   C2e TX3eh  1 3.950000e-01    1.850000e+00
   C1e TX3eh  1 3.950000e-01    1.850000e+00
   X4e TX3eh  1 3.950000e-01    2.110000e+00
   C6v TX3eh  1 3.950000e-01    2.700000e+00
   C5v TX3eh  1 3.950000e-01    2.500000e+00
   C4v TX3eh  1 3.950000e-01    2.500000e+00
   C3v TX3eh  1 3.950000e-01    2.500000e+00
   C2v TX3eh  1 3.950000e-01    2.500000e+00
   C1v TX3eh  1 3.950000e-01    2.500000e+00
   X4v TX3eh  1 3.950000e-01    2.700000e+00
   X3v TX3eh  1 3.950000e-01    2.700000e+00
  X3eh  TX2v  1 3.950000e-01    2.940000e+00
  X3eh  TX1v  1 3.950000e-01    2.940000e+00
   P6d TX3eh  1 3.950000e-01    2.110000e+00
   P5d TX3eh  1 3.950000e-01    2.110000e+00
   P4d TX3eh  1 3.950000e-01    2.110000e+00
   P3d TX3eh  1 3.950000e-01    2.310000e+00
   P2d TX3eh  1 3.950000e-01    2.310000e+00
   P1d TX3eh  1 3.950000e-01    2.310000e+00
   N6d TX3eh  1 3.950000e-01    2.310000e+00
   N5d TX3eh  1 3.950000e-01    2.500000e+00
   N4d TX3eh  1 3.950000e-01    2.700000e+00
   N3d TX3eh  1 3.950000e-01    2.500000e+00
   N2d TX3eh  1 3.950000e-01    2.500000e+00
   N1d TX3eh  1 3.950000e-01    2.500000e+00
   P6a TX3eh  1 3.950000e-01    1.670000e+00
   P5a TX3eh  1 3.950000e-01    1.670000e+00
   P4a TX3eh  1 3.950000e-01    1.670000e+00
   P3a TX3eh  1 3.950000e-01    1.850000e+00
   P2a TX3eh  1 3.950000e-01    1.850000e+00
   P1a TX3eh  1 3.950000e-01    1.850000e+00
   N6a TX3eh  1 3.950000e-01    1.850000e+00
   N5a TX3eh  1 3.950000e-01    2.110000e+00
   N4a TX3eh  1 3.950000e-01    2.310000e+00
   N3a TX3eh  1 3.950000e-01    2.110000e+00
   N2a TX3eh  1 3.950000e-01    2.110000e+00
   N1a TX3eh  1 3.950000e-01    2.110000e+00
   C6e TX4eh  1 3.950000e-01    2.110000e+00
   C5e TX4eh  1 3.950000e-01    1.850000e+00
   C4e TX4eh  1 3.950000e-01    1.850000e+00
   C3e TX4eh  1 3.950000e-01    1.850000e+00
   C2e TX4eh  1 3.980000e-01    1.450000e+00
   C1e TX4eh  1 3.980000e-01    1.450000e+00
   C6v TX4eh  1 3.950000e-01    2.700000e+00
   C5v TX4eh  1 3.950000e-01    2.500000e+00
   C4v TX4eh  1 3.950000e-01    2.500000e+00
   C3v TX4eh  1 3.950000e-01    2.500000e+00
   C2v TX4eh  1 3.950000e-01    2.110000e+00
   C1v TX4eh  1 3.950000e-01    2.110000e+00
   X4v TX4eh  1 3.950000e-01    2.700000e+00
  X4eh  TX3v  1 3.950000e-01    2.700000e+00
  X4eh  TX2v  1 3.950000e-01    2.700000e+00
  X4eh  TX1v  1 3.950000e-01    2.700000e+00
   P6d TX4eh  1 3.950000e-01    2.110000e+00
   P5d TX4eh  1 3.950000e-01    2.310000e+00
   P4d TX4eh  1 3.950000e-01    2.310000e+00
   P3d TX4eh  1 3.950000e-01    2.310000e+00
   P2d TX4eh  1 3.950000e-01    2.310000e+00
   P1d TX4eh  1 3.950000e-01    2.310000e+00
   N6d TX4eh  1 3.950000e-01    2.500000e+00
   N5d TX4eh  1 3.950000e-01    2.700000e+00
   N4d TX4eh  1 3.950000e-01    2.940000e+00
   N3d TX4eh  1 3.950000e-01    2.700000e+00
   N2d TX4eh  1 3.950000e-01    2.700000e+00
   N1d TX4eh  1 3.950000e-01    2.500000e+00
   P6a TX4eh  1 3.950000e-01    1.670000e+00
   P5a TX4eh  1 3.950000e-01    1.850000e+00
   P4a TX4eh  1 3.950000e-01    1.850000e+00
   P3a TX4eh  1 3.950000e-01    1.850000e+00
   P2a TX4eh  1 3.950000e-01    1.850000e+00
   P1a TX4eh  1 3.950000e-01    1.850000e+00
   N6a TX4eh  1 3.950000e-01    2.110000e+00
   N5a TX4eh  1 3.950000e-01    2.310000e+00
   N4a TX4eh  1 3.950000e-01    2.500000e+00
   N3a TX4eh  1 3.950000e-01    2.310000e+00
   N2a TX4eh  1 3.950000e-01    2.310000e+00
   N1a TX4eh  1 3.950000e-01    2.110000e+00
   C6e TC1eh  1 3.980000e-01    1.450000e+00
   C5e TC1eh  1 3.950000e-01    1.670000e+00
   C4e TC1eh  1 3.950000e-01    1.670000e+00
   C3e TC1eh  1 3.950000e-01    2.110000e+00
   C2e TC1eh  1 3.950000e-01    2.310000e+00
   C6v TC1eh  1 3.950000e-01    2.110000e+00
   C5v TC1eh  1 3.950000e-01    2.310000e+00
   C4v TC1eh  1 3.950000e-01    2.310000e+00
   C3v TC1eh  1 3.950000e-01    2.700000e+00
   C2v TC1eh  1 3.950000e-01    2.940000e+00
   C1v TC1eh  1 3.950000e-01    2.700000e+00
  C1eh  TX4v  1 3.950000e-01    2.110000e+00
  C1eh  TX3v  1 3.950000e-01    2.500000e+00
  C1eh  TX2v  1 3.950000e-01    2.500000e+00
  C1eh  TX1v  1 3.950000e-01    2.500000e+00
   P6d TC1eh  1 4.040000e-01    8.300000e-01
   P5d TC1eh  1 3.990000e-01    1.180000e+00
   P4d TC1eh  1 3.990000e-01    1.180000e+00
   P3d TC1eh  1 3.990000e-01    1.180000e+00
   P2d TC1eh  1 3.980000e-01    1.450000e+00
   P1d TC1eh  1 3.980000e-01    1.450000e+00
   N6d TC1eh  1 3.950000e-01    1.670000e+00
   N5d TC1eh  1 3.950000e-01    1.670000e+00
   N4d TC1eh  1 3.950000e-01    1.670000e+00
   N3d TC1eh  1 3.950000e-01    1.850000e+00
   N2d TC1eh  1 3.950000e-01    1.850000e+00
   N1d TC1eh  1 3.950000e-01    1.850000e+00
   P6a TC1eh  1 5.110000e-01    6.590000e-01
   P5a TC1eh  1 4.040000e-01    8.300000e-01
   P4a TC1eh  1 4.040000e-01    8.300000e-01
   P3a TC1eh  1 4.040000e-01    8.300000e-01
   P2a TC1eh  1 4.010000e-01    9.830000e-01
   P1a TC1eh  1 4.010000e-01    9.830000e-01
   N6a TC1eh  1 3.990000e-01    1.180000e+00
   N5a TC1eh  1 3.990000e-01    1.180000e+00
   N4a TC1eh  1 3.990000e-01    1.180000e+00
   N3a TC1eh  1 3.980000e-01    1.450000e+00
   N2a TC1eh  1 3.980000e-01    1.450000e+00
   N1a TC1eh  1 3.980000e-01    1.450000e+00
   C6e TC2eh  1 3.950000e-01    1.670000e+00
   C5e TC2eh  1 3.950000e-01    1.670000e+00
   C4e TC2eh  1 3.950000e-01    1.850000e+00
   C3e TC2eh  1 3.950000e-01    2.110000e+00
   C6v TC2eh  1 3.950000e-01    2.310000e+00
   C5v TC2eh  1 3.950000e-01    2.310000e+00
   C4v TC2eh  1 3.950000e-01    2.500000e+00
   C3v TC2eh  1 3.950000e-01    2.700000e+00
   C2v TC2eh  1 3.950000e-01    2.700000e+00
  C2eh  TC1v  1 3.950000e-01    2.940000e+00
  C2eh  TX4v  1 3.950000e-01    2.110000e+00
  C2eh  TX3v  1 3.950000e-01    2.500000e+00
  C2eh  TX2v  1 3.950000e-01    2.500000e+00
  C2eh  TX1v  1 3.950000e-01    2.500000e+00
   P6d TC2eh  1 3.990000e-01    1.180000e+00
   P5d TC2eh  1 3.980000e-01    1.450000e+00
   P4d TC2eh  1 3.980000e-01    1.450000e+00
   P3d TC2eh  1 3.980000e-01    1.450000e+00
   P2d TC2eh  1 3.950000e-01    1.670000e+00
   P1d TC2eh  1 3.950000e-01    1.670000e+00
   N6d TC2eh  1 3.950000e-01    1.850000e+00
   N5d TC2eh  1 3.950000e-01    1.850000e+00
   N4d TC2eh  1 3.950000e-01    1.850000e+00
   N3d TC2eh  1 3.950000e-01    2.110000e+00
   N2d TC2eh  1 3.950000e-01    2.110000e+00
   N1d TC2eh  1 3.950000e-01    2.110000e+00
   P6a TC2eh  1 4.040000e-01    8.300000e-01
   P5a TC2eh  1 4.010000e-01    9.830000e-01
   P4a TC2eh  1 4.010000e-01    9.830000e-01
   P3a TC2eh  1 4.010000e-01    9.830000e-01
   P2a TC2eh  1 3.990000e-01    1.180000e+00
   P1a TC2eh  1 3.990000e-01    1.180000e+00
   N6a TC2eh  1 3.980000e-01    1.450000e+00
   N5a TC2eh  1 3.980000e-01    1.450000e+00
   N4a TC2eh  1 3.980000e-01    1.450000e+00
   N3a TC2eh  1 3.950000e-01    1.670000e+00
   N2a TC2eh  1 3.950000e-01    1.670000e+00
   N1a TC2eh  1 3.950000e-01    1.670000e+00
   C6e TC3eh  1 3.950000e-01    1.850000e+00
   C5e TC3eh  1 3.950000e-01    1.850000e+00
   C4e TC3eh  1 3.950000e-01    2.110000e+00
   C6v TC3eh  1 3.950000e-01    2.500000e+00
   C5v TC3eh  1 3.950000e-01    2.500000e+00
   C4v TC3eh  1 3.950000e-01    2.700000e+00
   C3v TC3eh  1 3.950000e-01    2.700000e+00
  C3eh  TC2v  1 3.950000e-01    2.700000e+00
  C3eh  TC1v  1 3.950000e-01    2.700000e+00
  C3eh  TX4v  1 3.950000e-01    2.500000e+00
  C3eh  TX3v  1 3.950000e-01    2.500000e+00
  C3eh  TX2v  1 3.950000e-01    2.500000e+00
  C3eh  TX1v  1 3.950000e-01    2.700000e+00
   P6d TC3eh  1 3.990000e-01    1.180000e+00
   P5d TC3eh  1 3.980000e-01    1.450000e+00
   P4d TC3eh  1 3.980000e-01    1.450000e+00
   P3d TC3eh  1 3.980000e-01    1.450000e+00
   P2d TC3eh  1 3.950000e-01    1.670000e+00
   P1d TC3eh  1 3.950000e-01    1.670000e+00
   N6d TC3eh  1 3.950000e-01    1.850000e+00
   N5d TC3eh  1 3.950000e-01    2.110000e+00
   N4d TC3eh  1 3.950000e-01    2.110000e+00
   N3d TC3eh  1 3.950000e-01    2.110000e+00
   N2d TC3eh  1 3.950000e-01    2.310000e+00
   N1d TC3eh  1 3.950000e-01    2.310000e+00
   P6a TC3eh  1 4.040000e-01    8.300000e-01
   P5a TC3eh  1 4.010000e-01    9.830000e-01
   P4a TC3eh  1 4.010000e-01    9.830000e-01
   P3a TC3eh  1 4.010000e-01    9.830000e-01
   P2a TC3eh  1 3.990000e-01    1.180000e+00
   P1a TC3eh  1 3.990000e-01    1.180000e+00
   N6a TC3eh  1 3.980000e-01    1.450000e+00
   N5a TC3eh  1 3.950000e-01    1.670000e+00
   N4a TC3eh  1 3.950000e-01    1.670000e+00
   N3a TC3eh  1 3.950000e-01    1.670000e+00
   N2a TC3eh  1 3.950000e-01    1.850000e+00
   N1a TC3eh  1 3.950000e-01    1.850000e+00
   C6e TC4eh  1 3.950000e-01    2.110000e+00
   C5e TC4eh  1 3.950000e-01    2.110000e+00
   C6v TC4eh  1 3.950000e-01    2.700000e+00
   C5v TC4eh  1 3.950000e-01    2.700000e+00
   C4v TC4eh  1 3.950000e-01    2.700000e+00
  C4eh  TC3v  1 3.950000e-01    2.700000e+00
  C4eh  TC2v  1 3.950000e-01    2.500000e+00
  C4eh  TC1v  1 3.950000e-01    2.310000e+00
  C4eh  TX4v  1 3.950000e-01    2.500000e+00
  C4eh  TX3v  1 3.950000e-01    2.500000e+00
  C4eh  TX2v  1 3.950000e-01    2.500000e+00
  C4eh  TX1v  1 3.950000e-01    2.700000e+00
   P6d TC4eh  1 3.980000e-01    1.450000e+00
   P5d TC4eh  1 3.950000e-01    1.670000e+00
   P4d TC4eh  1 3.950000e-01    1.670000e+00
   P3d TC4eh  1 3.950000e-01    1.850000e+00
   P2d TC4eh  1 3.950000e-01    1.850000e+00
   P1d TC4eh  1 3.950000e-01    1.850000e+00
   N6d TC4eh  1 3.950000e-01    2.110000e+00
   N5d TC4eh  1 3.950000e-01    2.110000e+00
   N4d TC4eh  1 3.950000e-01    2.310000e+00
   N3d TC4eh  1 3.950000e-01    2.310000e+00
   N2d TC4eh  1 3.950000e-01    2.310000e+00
   N1d TC4eh  1 3.950000e-01    2.500000e+00
   P6a TC4eh  1 4.010000e-01    9.830000e-01
   P5a TC4eh  1 3.990000e-01    1.180000e+00
   P4a TC4eh  1 3.990000e-01    1.180000e+00
   P3a TC4eh  1 3.980000e-01    1.450000e+00
   P2a TC4eh  1 3.980000e-01    1.450000e+00
   P1a TC4eh  1 3.980000e-01    1.450000e+00
   N6a TC4eh  1 3.950000e-01    1.670000e+00
   N5a TC4eh  1 3.950000e-01    1.670000e+00
   N4a TC4eh  1 3.950000e-01    1.850000e+00
   N3a TC4eh  1 3.950000e-01    1.850000e+00
   N2a TC4eh  1 3.950000e-01    1.850000e+00
   N1a TC4eh  1 3.950000e-01    2.110000e+00
   C6e TC5eh  1 3.950000e-01    2.110000e+00
   C6v TC5eh  1 3.950000e-01    2.700000e+00
   C5v TC5eh  1 3.950000e-01    2.700000e+00
  C5eh  TC4v  1 3.950000e-01    2.700000e+00
  C5eh  TC3v  1 3.950000e-01    2.500000e+00
  C5eh  TC2v  1 3.950000e-01    2.310000e+00
  C5eh  TC1v  1 3.950000e-01    2.310000e+00
  C5eh  TX4v  1 3.950000e-01    2.500000e+00
  C5eh  TX3v  1 3.950000e-01    2.500000e+00
  C5eh  TX2v  1 3.950000e-01    2.500000e+00
  C5eh  TX1v  1 3.950000e-01    2.700000e+00
   P6d TC5eh  1 3.950000e-01    1.670000e+00
   P5d TC5eh  1 3.950000e-01    1.850000e+00
   P4d TC5eh  1 3.950000e-01    1.850000e+00
   P3d TC5eh  1 3.950000e-01    2.110000e+00
   P2d TC5eh  1 3.950000e-01    2.110000e+00
   P1d TC5eh  1 3.950000e-01    2.110000e+00
   N6d TC5eh  1 3.950000e-01    2.310000e+00
   N5d TC5eh  1 3.950000e-01    2.310000e+00
   N4d TC5eh  1 3.950000e-01    2.310000e+00
   N3d TC5eh  1 3.950000e-01    2.310000e+00
   N2d TC5eh  1 3.950000e-01    2.310000e+00
   N1d TC5eh  1 3.950000e-01    2.500000e+00
   P6a TC5eh  1 3.990000e-01    1.180000e+00
   P5a TC5eh  1 3.980000e-01    1.450000e+00
   P4a TC5eh  1 3.980000e-01    1.450000e+00
   P3a TC5eh  1 3.950000e-01    1.670000e+00
   P2a TC5eh  1 3.950000e-01    1.670000e+00
   P1a TC5eh  1 3.950000e-01    1.670000e+00
   N6a TC5eh  1 3.950000e-01    1.850000e+00
   N5a TC5eh  1 3.950000e-01    1.850000e+00
   N4a TC5eh  1 3.950000e-01    1.850000e+00
   N3a TC5eh  1 3.950000e-01    1.850000e+00
   N2a TC5eh  1 3.950000e-01    1.850000e+00
   N1a TC5eh  1 3.950000e-01    2.110000e+00
   C6v TC6eh  1 3.950000e-01    2.940000e+00
  C6eh  TC5v  1 3.950000e-01    2.700000e+00
  C6eh  TC4v  1 3.950000e-01    2.700000e+00
  C6eh  TC3v  1 3.950000e-01    2.500000e+00
  C6eh  TC2v  1 3.950000e-01    2.310000e+00
  C6eh  TC1v  1 3.950000e-01    2.110000e+00
  C6eh  TX4v  1 3.950000e-01    2.700000e+00
  C6eh  TX3v  1 3.950000e-01    2.700000e+00
  C6eh  TX2v  1 3.950000e-01    2.700000e+00
  C6eh  TX1v  1 3.950000e-01    2.700000e+00
   P6d TC6eh  1 3.950000e-01    1.850000e+00
   P5d TC6eh  1 3.950000e-01    1.850000e+00
   P4d TC6eh  1 3.950000e-01    2.110000e+00
   P3d TC6eh  1 3.950000e-01    2.310000e+00
   P2d TC6eh  1 3.950000e-01    2.310000e+00
   P1d TC6eh  1 3.950000e-01    2.310000e+00
   N6d TC6eh  1 3.950000e-01    2.500000e+00
   N5d TC6eh  1 3.950000e-01    2.500000e+00
   N4d TC6eh  1 3.950000e-01    2.500000e+00
   N3d TC6eh  1 3.950000e-01    2.500000e+00
   N2d TC6eh  1 3.950000e-01    2.500000e+00
   N1d TC6eh  1 3.950000e-01    2.700000e+00
   P6a TC6eh  1 3.980000e-01    1.450000e+00
   P5a TC6eh  1 3.980000e-01    1.450000e+00
   P4a TC6eh  1 3.950000e-01    1.670000e+00
   P3a TC6eh  1 3.950000e-01    1.850000e+00
   P2a TC6eh  1 3.950000e-01    1.850000e+00
   P1a TC6eh  1 3.950000e-01    1.850000e+00
   N6a TC6eh  1 3.950000e-01    2.110000e+00
   N5a TC6eh  1 3.950000e-01    2.110000e+00
   N4a TC6eh  1 3.950000e-01    2.110000e+00
   N3a TC6eh  1 3.950000e-01    2.110000e+00
   N2a TC6eh  1 3.950000e-01    2.110000e+00
   N1a TC6eh  1 3.950000e-01    2.310000e+00
   C6v TX1vh  1 3.950000e-01    2.110000e+00
   C5v TX1vh  1 3.950000e-01    2.110000e+00
   C4v TX1vh  1 3.950000e-01    2.110000e+00
   C3v TX1vh  1 3.950000e-01    2.110000e+00
   C2v TX1vh  1 3.950000e-01    1.850000e+00
   C1v TX1vh  1 3.950000e-01    1.850000e+00
   X4v TX1vh  1 3.950000e-01    2.110000e+00
   X3v TX1vh  1 3.950000e-01    2.310000e+00
   X2v TX1vh  1 3.950000e-01    2.310000e+00
   P6a TX1vh  1 3.950000e-01    1.670000e+00
   P5a TX1vh  1 3.950000e-01    1.670000e+00
   P4a TX1vh  1 3.950000e-01    1.850000e+00
   P3a TX1vh  1 3.950000e-01    1.850000e+00
   P2a TX1vh  1 3.950000e-01    1.850000e+00
   P1a TX1vh  1 3.950000e-01    1.850000e+00
   N6a TX1vh  1 3.950000e-01    1.850000e+00
   N5a TX1vh  1 3.950000e-01    2.110000e+00
   N4a TX1vh  1 3.950000e-01    2.110000e+00
   N3a TX1vh  1 3.950000e-01    2.310000e+00
   N2a TX1vh  1 3.950000e-01    2.310000e+00
   N1a TX1vh  1 3.950000e-01    2.310000e+00
   P6d TX1vh  1 3.990000e-01    1.180000e+00
   P5d TX1vh  1 3.990000e-01    1.180000e+00
   P4d TX1vh  1 3.980000e-01    1.450000e+00
   P3d TX1vh  1 3.980000e-01    1.450000e+00
   P2d TX1vh  1 3.980000e-01    1.450000e+00
   P1d TX1vh  1 3.980000e-01    1.450000e+00
   N6d TX1vh  1 3.980000e-01    1.450000e+00
   N5d TX1vh  1 3.950000e-01    1.670000e+00
   N4d TX1vh  1 3.950000e-01    1.670000e+00
   N3d TX1vh  1 3.950000e-01    1.850000e+00
   N2d TX1vh  1 3.950000e-01    1.850000e+00
   N1d TX1vh  1 3.950000e-01    1.850000e+00
   C6v TX2vh  1 3.950000e-01    2.110000e+00
   C5v TX2vh  1 3.950000e-01    1.850000e+00
   C4v TX2vh  1 3.950000e-01    1.850000e+00
   C3v TX2vh  1 3.950000e-01    1.850000e+00
   C2v TX2vh  1 3.950000e-01    1.850000e+00
   C1v TX2vh  1 3.950000e-01    1.850000e+00
   X4v TX2vh  1 3.950000e-01    2.110000e+00
   X3v TX2vh  1 3.950000e-01    2.310000e+00
   P6a TX2vh  1 3.950000e-01    1.850000e+00
   P5a TX2vh  1 3.950000e-01    2.110000e+00
   P4a TX2vh  1 3.950000e-01    2.110000e+00
   P3a TX2vh  1 3.950000e-01    2.110000e+00
   P2a TX2vh  1 3.950000e-01    2.110000e+00
   P1a TX2vh  1 3.950000e-01    2.110000e+00
   N6a TX2vh  1 3.950000e-01    2.110000e+00
   N5a TX2vh  1 3.950000e-01    2.310000e+00
   N4a TX2vh  1 3.950000e-01    2.310000e+00
   N3a TX2vh  1 3.950000e-01    2.310000e+00
   N2a TX2vh  1 3.950000e-01    2.310000e+00
   N1a TX2vh  1 3.950000e-01    2.310000e+00
   P6d TX2vh  1 3.980000e-01    1.450000e+00
   P5d TX2vh  1 3.950000e-01    1.670000e+00
   P4d TX2vh  1 3.950000e-01    1.670000e+00
   P3d TX2vh  1 3.950000e-01    1.670000e+00
   P2d TX2vh  1 3.950000e-01    1.670000e+00
   P1d TX2vh  1 3.950000e-01    1.670000e+00
   N6d TX2vh  1 3.950000e-01    1.670000e+00
   N5d TX2vh  1 3.950000e-01    1.850000e+00
   N4d TX2vh  1 3.950000e-01    1.850000e+00
   N3d TX2vh  1 3.950000e-01    1.850000e+00
   N2d TX2vh  1 3.950000e-01    1.850000e+00
   N1d TX2vh  1 3.950000e-01    1.850000e+00
   C6v TX3vh  1 3.950000e-01    2.110000e+00
   C5v TX3vh  1 3.950000e-01    1.850000e+00
   C4v TX3vh  1 3.950000e-01    1.850000e+00
   C3v TX3vh  1 3.950000e-01    1.850000e+00
   C2v TX3vh  1 3.950000e-01    1.850000e+00
   C1v TX3vh  1 3.950000e-01    1.850000e+00
   X4v TX3vh  1 3.950000e-01    2.110000e+00
   P6a TX3vh  1 3.950000e-01    2.110000e+00
   P5a TX3vh  1 3.950000e-01    2.110000e+00
   P4a TX3vh  1 3.950000e-01    2.110000e+00
   P3a TX3vh  1 3.950000e-01    2.310000e+00
   P2a TX3vh  1 3.950000e-01    2.310000e+00
   P1a TX3vh  1 3.950000e-01    2.310000e+00
   N6a TX3vh  1 3.950000e-01    2.310000e+00
   N5a TX3vh  1 3.950000e-01    2.500000e+00
   N4a TX3vh  1 3.950000e-01    2.700000e+00
   N3a TX3vh  1 3.950000e-01    2.500000e+00
   N2a TX3vh  1 3.950000e-01    2.500000e+00
   N1a TX3vh  1 3.950000e-01    2.500000e+00
   P6d TX3vh  1 3.950000e-01    1.670000e+00
   P5d TX3vh  1 3.950000e-01    1.670000e+00
   P4d TX3vh  1 3.950000e-01    1.670000e+00
   P3d TX3vh  1 3.950000e-01    1.850000e+00
   P2d TX3vh  1 3.950000e-01    1.850000e+00
   P1d TX3vh  1 3.950000e-01    1.850000e+00
   N6d TX3vh  1 3.950000e-01    1.850000e+00
   N5d TX3vh  1 3.950000e-01    2.110000e+00
   N4d TX3vh  1 3.950000e-01    2.310000e+00
   N3d TX3vh  1 3.950000e-01    2.110000e+00
   N2d TX3vh  1 3.950000e-01    2.110000e+00
   N1d TX3vh  1 3.950000e-01    2.110000e+00
   C6v TX4vh  1 3.950000e-01    2.110000e+00
   C5v TX4vh  1 3.950000e-01    1.850000e+00
   C4v TX4vh  1 3.950000e-01    1.850000e+00
   C3v TX4vh  1 3.950000e-01    1.850000e+00
   C2v TX4vh  1 3.980000e-01    1.450000e+00
   C1v TX4vh  1 3.980000e-01    1.450000e+00
   P6a TX4vh  1 3.950000e-01    2.110000e+00
   P5a TX4vh  1 3.950000e-01    2.310000e+00
   P4a TX4vh  1 3.950000e-01    2.310000e+00
   P3a TX4vh  1 3.950000e-01    2.310000e+00
   P2a TX4vh  1 3.950000e-01    2.310000e+00
   P1a TX4vh  1 3.950000e-01    2.310000e+00
   N6a TX4vh  1 3.950000e-01    2.500000e+00
   N5a TX4vh  1 3.950000e-01    2.700000e+00
   N4a TX4vh  1 3.950000e-01    2.940000e+00
   N3a TX4vh  1 3.950000e-01    2.700000e+00
   N2a TX4vh  1 3.950000e-01    2.700000e+00
   N1a TX4vh  1 3.950000e-01    2.500000e+00
   P6d TX4vh  1 3.950000e-01    1.670000e+00
   P5d TX4vh  1 3.950000e-01    1.850000e+00
   P4d TX4vh  1 3.950000e-01    1.850000e+00
   P3d TX4vh  1 3.950000e-01    1.850000e+00
   P2d TX4vh  1 3.950000e-01    1.850000e+00
   P1d TX4vh  1 3.950000e-01    1.850000e+00
   N6d TX4vh  1 3.950000e-01    2.110000e+00
   N5d TX4vh  1 3.950000e-01    2.310000e+00
   N4d TX4vh  1 3.950000e-01    2.500000e+00
   N3d TX4vh  1 3.950000e-01    2.310000e+00
   N2d TX4vh  1 3.950000e-01    2.310000e+00
   N1d TX4vh  1 3.950000e-01    2.110000e+00
   C6v TC1vh  1 3.980000e-01    1.450000e+00
   C5v TC1vh  1 3.950000e-01    1.670000e+00
   C4v TC1vh  1 3.950000e-01    1.670000e+00
   C3v TC1vh  1 3.950000e-01    2.110000e+00
   C2v TC1vh  1 3.950000e-01    2.310000e+00
   P6a TC1vh  1 4.040000e-01    8.300000e-01
   P5a TC1vh  1 3.990000e-01    1.180000e+00
   P4a TC1vh  1 3.990000e-01    1.180000e+00
   P3a TC1vh  1 3.990000e-01    1.180000e+00
   P2a TC1vh  1 3.980000e-01    1.450000e+00
   P1a TC1vh  1 3.980000e-01    1.450000e+00
   N6a TC1vh  1 3.950000e-01    1.670000e+00
   N5a TC1vh  1 3.950000e-01    1.670000e+00
   N4a TC1vh  1 3.950000e-01    1.670000e+00
   N3a TC1vh  1 3.950000e-01    1.850000e+00
   N2a TC1vh  1 3.950000e-01    1.850000e+00
   N1a TC1vh  1 3.950000e-01    1.850000e+00
   P6d TC1vh  1 5.110000e-01    6.590000e-01
   P5d TC1vh  1 4.040000e-01    8.300000e-01
   P4d TC1vh  1 4.040000e-01    8.300000e-01
   P3d TC1vh  1 4.040000e-01    8.300000e-01
   P2d TC1vh  1 4.010000e-01    9.830000e-01
   P1d TC1vh  1 4.010000e-01    9.830000e-01
   N6d TC1vh  1 3.990000e-01    1.180000e+00
   N5d TC1vh  1 3.990000e-01    1.180000e+00
   N4d TC1vh  1 3.990000e-01    1.180000e+00
   N3d TC1vh  1 3.980000e-01    1.450000e+00
   N2d TC1vh  1 3.980000e-01    1.450000e+00
   N1d TC1vh  1 3.980000e-01    1.450000e+00
   C6v TC2vh  1 3.950000e-01    1.670000e+00
   C5v TC2vh  1 3.950000e-01    1.670000e+00
   C4v TC2vh  1 3.950000e-01    1.850000e+00
   C3v TC2vh  1 3.950000e-01    2.110000e+00
   P6a TC2vh  1 3.990000e-01    1.180000e+00
   P5a TC2vh  1 3.980000e-01    1.450000e+00
   P4a TC2vh  1 3.980000e-01    1.450000e+00
   P3a TC2vh  1 3.980000e-01    1.450000e+00
   P2a TC2vh  1 3.950000e-01    1.670000e+00
   P1a TC2vh  1 3.950000e-01    1.670000e+00
   N6a TC2vh  1 3.950000e-01    1.850000e+00
   N5a TC2vh  1 3.950000e-01    1.850000e+00
   N4a TC2vh  1 3.950000e-01    1.850000e+00
   N3a TC2vh  1 3.950000e-01    2.110000e+00
   N2a TC2vh  1 3.950000e-01    2.110000e+00
   N1a TC2vh  1 3.950000e-01    2.110000e+00
   P6d TC2vh  1 4.040000e-01    8.300000e-01
   P5d TC2vh  1 4.010000e-01    9.830000e-01
   P4d TC2vh  1 4.010000e-01    9.830000e-01
   P3d TC2vh  1 4.010000e-01    9.830000e-01
   P2d TC2vh  1 3.990000e-01    1.180000e+00
   P1d TC2vh  1 3.990000e-01    1.180000e+00
   N6d TC2vh  1 3.980000e-01    1.450000e+00
   N5d TC2vh  1 3.980000e-01    1.450000e+00
   N4d TC2vh  1 3.980000e-01    1.450000e+00
   N3d TC2vh  1 3.950000e-01    1.670000e+00
   N2d TC2vh  1 3.950000e-01    1.670000e+00
   N1d TC2vh  1 3.950000e-01    1.670000e+00
   C6v TC3vh  1 3.950000e-01    1.850000e+00
   C5v TC3vh  1 3.950000e-01    1.850000e+00
   C4v TC3vh  1 3.950000e-01    2.110000e+00
   P6a TC3vh  1 3.990000e-01    1.180000e+00
   P5a TC3vh  1 3.980000e-01    1.450000e+00
   P4a TC3vh  1 3.980000e-01    1.450000e+00
   P3a TC3vh  1 3.980000e-01    1.450000e+00
   P2a TC3vh  1 3.950000e-01    1.670000e+00
   P1a TC3vh  1 3.950000e-01    1.670000e+00
   N6a TC3vh  1 3.950000e-01    1.850000e+00
   N5a TC3vh  1 3.950000e-01    2.110000e+00
   N4a TC3vh  1 3.950000e-01    2.110000e+00
   N3a TC3vh  1 3.950000e-01    2.110000e+00
   N2a TC3vh  1 3.950000e-01    2.310000e+00
   N1a TC3vh  1 3.950000e-01    2.310000e+00
   P6d TC3vh  1 4.040000e-01    8.300000e-01
   P5d TC3vh  1 4.010000e-01    9.830000e-01
   P4d TC3vh  1 4.010000e-01    9.830000e-01
   P3d TC3vh  1 4.010000e-01    9.830000e-01
   P2d TC3vh  1 3.990000e-01    1.180000e+00
   P1d TC3vh  1 3.990000e-01    1.180000e+00
   N6d TC3vh  1 3.980000e-01    1.450000e+00
   N5d TC3vh  1 3.950000e-01    1.670000e+00
   N4d TC3vh  1 3.950000e-01    1.670000e+00
   N3d TC3vh  1 3.950000e-01    1.670000e+00
   N2d TC3vh  1 3.950000e-01    1.850000e+00
   N1d TC3vh  1 3.950000e-01    1.850000e+00
   C6v TC4vh  1 3.950000e-01    2.110000e+00
   C5v TC4vh  1 3.950000e-01    2.110000e+00
   P6a TC4vh  1 3.980000e-01    1.450000e+00
   P5a TC4vh  1 3.950000e-01    1.670000e+00
   P4a TC4vh  1 3.950000e-01    1.670000e+00
   P3a TC4vh  1 3.950000e-01    1.850000e+00
   P2a TC4vh  1 3.950000e-01    1.850000e+00
   P1a TC4vh  1 3.950000e-01    1.850000e+00
   N6a TC4vh  1 3.950000e-01    2.110000e+00
   N5a TC4vh  1 3.950000e-01    2.110000e+00
   N4a TC4vh  1 3.950000e-01    2.310000e+00
   N3a TC4vh  1 3.950000e-01    2.310000e+00
   N2a TC4vh  1 3.950000e-01    2.310000e+00
   N1a TC4vh  1 3.950000e-01    2.500000e+00
   P6d TC4vh  1 4.010000e-01    9.830000e-01
   P5d TC4vh  1 3.990000e-01    1.180000e+00
   P4d TC4vh  1 3.990000e-01    1.180000e+00
   P3d TC4vh  1 3.980000e-01    1.450000e+00
   P2d TC4vh  1 3.980000e-01    1.450000e+00
   P1d TC4vh  1 3.980000e-01    1.450000e+00
   N6d TC4vh  1 3.950000e-01    1.670000e+00
   N5d TC4vh  1 3.950000e-01    1.670000e+00
   N4d TC4vh  1 3.950000e-01    1.850000e+00
   N3d TC4vh  1 3.950000e-01    1.850000e+00
   N2d TC4vh  1 3.950000e-01    1.850000e+00
   N1d TC4vh  1 3.950000e-01    2.110000e+00
   C6v TC5vh  1 3.950000e-01    2.110000e+00
   P6a TC5vh  1 3.950000e-01    1.670000e+00
   P5a TC5vh  1 3.950000e-01    1.850000e+00
   P4a TC5vh  1 3.950000e-01    1.850000e+00
   P3a TC5vh  1 3.950000e-01    2.110000e+00
   P2a TC5vh  1 3.950000e-01    2.110000e+00
   P1a TC5vh  1 3.950000e-01    2.110000e+00
   N6a TC5vh  1 3.950000e-01    2.310000e+00
   N5a TC5vh  1 3.950000e-01    2.310000e+00
   N4a TC5vh  1 3.950000e-01    2.310000e+00
   N3a TC5vh  1 3.950000e-01    2.310000e+00
   N2a TC5vh  1 3.950000e-01    2.310000e+00
   N1a TC5vh  1 3.950000e-01    2.500000e+00
   P6d TC5vh  1 3.990000e-01    1.180000e+00
   P5d TC5vh  1 3.980000e-01    1.450000e+00
   P4d TC5vh  1 3.980000e-01    1.450000e+00
   P3d TC5vh  1 3.950000e-01    1.670000e+00
   P2d TC5vh  1 3.950000e-01    1.670000e+00
   P1d TC5vh  1 3.950000e-01    1.670000e+00
   N6d TC5vh  1 3.950000e-01    1.850000e+00
   N5d TC5vh  1 3.950000e-01    1.850000e+00
   N4d TC5vh  1 3.950000e-01    1.850000e+00
   N3d TC5vh  1 3.950000e-01    1.850000e+00
   N2d TC5vh  1 3.950000e-01    1.850000e+00
   N1d TC5vh  1 3.950000e-01    2.110000e+00
   P6a TC6vh  1 3.950000e-01    1.850000e+00
   P5a TC6vh  1 3.950000e-01    1.850000e+00
   P4a TC6vh  1 3.950000e-01    2.110000e+00
   P3a TC6vh  1 3.950000e-01    2.310000e+00
   P2a TC6vh  1 3.950000e-01    2.310000e+00
   P1a TC6vh  1 3.950000e-01    2.310000e+00
   N6a TC6vh  1 3.950000e-01    2.500000e+00
   N5a TC6vh  1 3.950000e-01    2.500000e+00
   N4a TC6vh  1 3.950000e-01    2.500000e+00
   N3a TC6vh  1 3.950000e-01    2.500000e+00
   N2a TC6vh  1 3.950000e-01    2.500000e+00
   N1a TC6vh  1 3.950000e-01    2.700000e+00
   P6d TC6vh  1 3.980000e-01    1.450000e+00
   P5d TC6vh  1 3.980000e-01    1.450000e+00
   P4d TC6vh  1 3.950000e-01    1.670000e+00
   P3d TC6vh  1 3.950000e-01    1.850000e+00
   P2d TC6vh  1 3.950000e-01    1.850000e+00
   P1d TC6vh  1 3.950000e-01    1.850000e+00
   N6d TC6vh  1 3.950000e-01    2.110000e+00
   N5d TC6vh  1 3.950000e-01    2.110000e+00
   N4d TC6vh  1 3.950000e-01    2.110000e+00
   N3d TC6vh  1 3.950000e-01    2.110000e+00
   N2d TC6vh  1 3.950000e-01    2.110000e+00
   N1d TC6vh  1 3.950000e-01    2.310000e+00
   P6a TN1ah  1 3.950000e-01    1.670000e+00
   P5a TN1ah  1 3.950000e-01    1.670000e+00
   P4a TN1ah  1 3.950000e-01    1.850000e+00
   P3a TN1ah  1 3.950000e-01    2.110000e+00
   P2a TN1ah  1 3.950000e-01    2.110000e+00
   P1a TN1ah  1 3.950000e-01    2.110000e+00
   N6a TN1ah  1 3.950000e-01    2.110000e+00
   N5a TN1ah  1 3.950000e-01    2.110000e+00
   N4a TN1ah  1 3.950000e-01    2.110000e+00
   N3a TN1ah  1 3.950000e-01    2.110000e+00
   N2a TN1ah  1 3.950000e-01    2.110000e+00
   P6d TN1ah  1 3.950000e-01    1.670000e+00
   P5d TN1ah  1 3.950000e-01    1.670000e+00
   P4d TN1ah  1 3.950000e-01    1.850000e+00
   P3d TN1ah  1 3.950000e-01    2.110000e+00
   P2d TN1ah  1 3.950000e-01    2.500000e+00
   P1d TN1ah  1 3.950000e-01    2.500000e+00
   N6d TN1ah  1 3.950000e-01    2.500000e+00
   N5d TN1ah  1 3.950000e-01    2.500000e+00
   N4d TN1ah  1 3.950000e-01    2.500000e+00
   N3d TN1ah  1 3.950000e-01    2.500000e+00
   N2d TN1ah  1 3.950000e-01    2.500000e+00
   N1d TN1ah  1 3.950000e-01    2.700000e+00
   P6a TN2ah  1 3.950000e-01    1.850000e+00
   P5a TN2ah  1 3.950000e-01    1.850000e+00
   P4a TN2ah  1 3.950000e-01    2.110000e+00
   P3a TN2ah  1 3.950000e-01    2.110000e+00
   P2a TN2ah  1 3.950000e-01    2.110000e+00
   P1a TN2ah  1 3.950000e-01    2.110000e+00
   N6a TN2ah  1 3.950000e-01    2.110000e+00
   N5a TN2ah  1 3.950000e-01    2.310000e+00
   N4a TN2ah  1 3.950000e-01    2.310000e+00
   N3a TN2ah  1 3.950000e-01    2.310000e+00
   P6d TN2ah  1 3.950000e-01    1.850000e+00
   P5d TN2ah  1 3.950000e-01    1.850000e+00
   P4d TN2ah  1 3.950000e-01    2.110000e+00
   P3d TN2ah  1 3.950000e-01    2.500000e+00
   P2d TN2ah  1 3.950000e-01    2.500000e+00
   P1d TN2ah  1 3.950000e-01    2.500000e+00
   N6d TN2ah  1 3.950000e-01    2.500000e+00
   N5d TN2ah  1 3.950000e-01    2.700000e+00
   N4d TN2ah  1 3.950000e-01    2.700000e+00
   N3d TN2ah  1 3.950000e-01    2.700000e+00
   N2d TN2ah  1 3.950000e-01    2.700000e+00
  N2ah  TN1d  1 3.950000e-01    2.500000e+00
   P6a TN3ah  1 3.950000e-01    2.110000e+00
   P5a TN3ah  1 3.950000e-01    2.110000e+00
   P4a TN3ah  1 3.950000e-01    2.110000e+00
   P3a TN3ah  1 3.950000e-01    2.110000e+00
   P2a TN3ah  1 3.950000e-01    2.110000e+00
   P1a TN3ah  1 3.950000e-01    2.110000e+00
   N6a TN3ah  1 3.950000e-01    2.310000e+00
   N5a TN3ah  1 3.950000e-01    2.310000e+00
   N4a TN3ah  1 3.950000e-01    2.310000e+00
   P6d TN3ah  1 3.950000e-01    2.110000e+00
   P5d TN3ah  1 3.950000e-01    2.110000e+00
   P4d TN3ah  1 3.950000e-01    2.500000e+00
   P3d TN3ah  1 3.950000e-01    2.500000e+00
   P2d TN3ah  1 3.950000e-01    2.500000e+00
   P1d TN3ah  1 3.950000e-01    2.500000e+00
   N6d TN3ah  1 3.950000e-01    2.700000e+00
   N5d TN3ah  1 3.950000e-01    2.700000e+00
   N4d TN3ah  1 3.950000e-01    2.700000e+00
   N3d TN3ah  1 3.950000e-01    2.700000e+00
  N3ah  TN2d  1 3.950000e-01    2.700000e+00
  N3ah  TN1d  1 3.950000e-01    2.500000e+00
   P6a TN4ah  1 3.950000e-01    2.110000e+00
   P5a TN4ah  1 3.950000e-01    2.310000e+00
   P4a TN4ah  1 3.950000e-01    2.310000e+00
   P3a TN4ah  1 3.950000e-01    2.310000e+00
   P2a TN4ah  1 3.950000e-01    2.310000e+00
   P1a TN4ah  1 3.950000e-01    2.500000e+00
   N6a TN4ah  1 3.950000e-01    2.700000e+00
   N5a TN4ah  1 3.950000e-01    2.500000e+00
   P6d TN4ah  1 3.950000e-01    2.500000e+00
   P5d TN4ah  1 3.950000e-01    2.700000e+00
   P4d TN4ah  1 3.950000e-01    2.700000e+00
   P3d TN4ah  1 3.950000e-01    2.700000e+00
   P2d TN4ah  1 3.950000e-01    2.700000e+00
   P1d TN4ah  1 3.950000e-01    2.940000e+00
   N6d TN4ah  1 3.950000e-01    3.190000e+00
   N5d TN4ah  1 3.950000e-01    2.940000e+00
   N4d TN4ah  1 3.950000e-01    2.940000e+00
  N4ah  TN3d  1 3.950000e-01    2.700000e+00
  N4ah  TN2d  1 3.950000e-01    2.700000e+00
  N4ah  TN1d  1 3.950000e-01    2.500000e+00
   P6a TN5ah  1 3.950000e-01    2.310000e+00
   P5a TN5ah  1 3.950000e-01    2.310000e+00
   P4a TN5ah  1 3.950000e-01    2.310000e+00
   P3a TN5ah  1 3.950000e-01    2.310000e+00
   P2a TN5ah  1 3.950000e-01    2.500000e+00
   P1a TN5ah  1 3.950000e-01    2.500000e+00
   N6a TN5ah  1 3.950000e-01    2.700000e+00
   P6d TN5ah  1 3.950000e-01    2.700000e+00
   P5d TN5ah  1 3.950000e-01    2.700000e+00
   P4d TN5ah  1 3.950000e-01    2.700000e+00
   P3d TN5ah  1 3.950000e-01    2.700000e+00
   P2d TN5ah  1 3.950000e-01    2.940000e+00
   P1d TN5ah  1 3.950000e-01    2.940000e+00
   N6d TN5ah  1 3.950000e-01    3.190000e+00
   N5d TN5ah  1 3.950000e-01    2.940000e+00
  N5ah  TN4d  1 3.950000e-01    2.940000e+00
  N5ah  TN3d  1 3.950000e-01    2.700000e+00
  N5ah  TN2d  1 3.950000e-01    2.700000e+00
  N5ah  TN1d  1 3.950000e-01    2.500000e+00
   P6a TN6ah  1 3.950000e-01    2.700000e+00
   P5a TN6ah  1 3.950000e-01    2.500000e+00
   P4a TN6ah  1 3.950000e-01    2.500000e+00
   P3a TN6ah  1 3.950000e-01    2.500000e+00
   P2a TN6ah  1 3.950000e-01    2.700000e+00
   P1a TN6ah  1 3.950000e-01    2.700000e+00
   P6d TN6ah  1 3.950000e-01    3.190000e+00
   P5d TN6ah  1 3.950000e-01    2.940000e+00
   P4d TN6ah  1 3.950000e-01    2.940000e+00
   P3d TN6ah  1 3.950000e-01    2.940000e+00
   P2d TN6ah  1 3.950000e-01    3.190000e+00
   P1d TN6ah  1 3.950000e-01    3.190000e+00
   N6d TN6ah  1 3.950000e-01    3.190000e+00
  N6ah  TN5d  1 3.950000e-01    3.190000e+00
  N6ah  TN4d  1 3.950000e-01    3.190000e+00
  N6ah  TN3d  1 3.950000e-01    2.700000e+00
  N6ah  TN2d  1 3.950000e-01    2.500000e+00
  N6ah  TN1d  1 3.950000e-01    2.500000e+00
   P6a TP1ah  1 3.950000e-01    2.940000e+00
   P5a TP1ah  1 3.950000e-01    2.700000e+00
   P4a TP1ah  1 3.950000e-01    2.700000e+00
   P3a TP1ah  1 3.950000e-01    2.700000e+00
   P2a TP1ah  1 3.950000e-01    2.700000e+00
   P6d TP1ah  1 3.950000e-01    3.430000e+00
   P5d TP1ah  1 3.950000e-01    3.190000e+00
   P4d TP1ah  1 3.950000e-01    3.190000e+00
   P3d TP1ah  1 3.950000e-01    3.190000e+00
   P2d TP1ah  1 3.950000e-01    3.190000e+00
   P1d TP1ah  1 3.950000e-01    3.190000e+00
  P1ah  TN6d  1 3.950000e-01    3.190000e+00
  P1ah  TN5d  1 3.950000e-01    2.940000e+00
  P1ah  TN4d  1 3.950000e-01    2.940000e+00
  P1ah  TN3d  1 3.950000e-01    2.500000e+00
  P1ah  TN2d  1 3.950000e-01    2.500000e+00
  P1ah  TN1d  1 3.950000e-01    2.500000e+00
   P6a TP2ah  1 3.950000e-01    3.190000e+00
   P5a TP2ah  1 3.950000e-01    2.940000e+00
   P4a TP2ah  1 3.950000e-01    2.940000e+00
   P3a TP2ah  1 3.950000e-01    2.940000e+00
   P6d TP2ah  1 3.950000e-01    3.670000e+00
   P5d TP2ah  1 3.950000e-01    3.430000e+00
   P4d TP2ah  1 3.950000e-01    3.430000e+00
   P3d TP2ah  1 3.950000e-01    3.430000e+00
   P2d TP2ah  1 3.950000e-01    3.430000e+00
  P2ah  TP1d  1 3.950000e-01    3.190000e+00
  P2ah  TN6d  1 3.950000e-01    3.190000e+00
  P2ah  TN5d  1 3.950000e-01    2.940000e+00
  P2ah  TN4d  1 3.950000e-01    2.700000e+00
  P2ah  TN3d  1 3.950000e-01    2.500000e+00
  P2ah  TN2d  1 3.950000e-01    2.500000e+00
  P2ah  TN1d  1 3.950000e-01    2.500000e+00
   P6a TP3ah  1 3.950000e-01    3.190000e+00
   P5a TP3ah  1 3.950000e-01    2.940000e+00
   P4a TP3ah  1 3.950000e-01    2.940000e+00
   P6d TP3ah  1 3.950000e-01    3.670000e+00
   P5d TP3ah  1 3.950000e-01    3.430000e+00
   P4d TP3ah  1 3.950000e-01    3.430000e+00
   P3d TP3ah  1 3.950000e-01    3.430000e+00
  P3ah  TP2d  1 3.950000e-01    3.430000e+00
  P3ah  TP1d  1 3.950000e-01    3.190000e+00
  P3ah  TN6d  1 3.950000e-01    2.940000e+00
  P3ah  TN5d  1 3.950000e-01    2.700000e+00
  P3ah  TN4d  1 3.950000e-01    2.700000e+00
  P3ah  TN3d  1 3.950000e-01    2.500000e+00
  P3ah  TN2d  1 3.950000e-01    2.500000e+00
  P3ah  TN1d  1 3.950000e-01    2.110000e+00
   P6a TP4ah  1 3.950000e-01    3.430000e+00
   P5a TP4ah  1 3.950000e-01    3.190000e+00
   P6d TP4ah  1 3.950000e-01    3.910000e+00
   P5d TP4ah  1 3.950000e-01    3.670000e+00
   P4d TP4ah  1 3.950000e-01    3.670000e+00
  P4ah  TP3d  1 3.950000e-01    3.430000e+00
  P4ah  TP2d  1 3.950000e-01    3.430000e+00
  P4ah  TP1d  1 3.950000e-01    3.190000e+00
  P4ah  TN6d  1 3.950000e-01    2.940000e+00
  P4ah  TN5d  1 3.950000e-01    2.700000e+00
  P4ah  TN4d  1 3.950000e-01    2.700000e+00
  P4ah  TN3d  1 3.950000e-01    2.500000e+00
  P4ah  TN2d  1 3.950000e-01    2.110000e+00
  P4ah  TN1d  1 3.950000e-01    1.850000e+00
   P6a TP5ah  1 3.950000e-01    3.670000e+00
   P6d TP5ah  1 3.950000e-01    4.230000e+00
   P5d TP5ah  1 3.950000e-01    3.910000e+00
  P5ah  TP4d  1 3.950000e-01    3.670000e+00
  P5ah  TP3d  1 3.950000e-01    3.430000e+00
  P5ah  TP2d  1 3.950000e-01    3.430000e+00
  P5ah  TP1d  1 3.950000e-01    3.190000e+00
  P5ah  TN6d  1 3.950000e-01    2.940000e+00
  P5ah  TN5d  1 3.950000e-01    2.700000e+00
  P5ah  TN4d  1 3.950000e-01    2.700000e+00
  P5ah  TN3d  1 3.950000e-01    2.110000e+00
  P5ah  TN2d  1 3.950000e-01    1.850000e+00
  P5ah  TN1d  1 3.950000e-01    1.670000e+00
   P6d TP6ah  1 3.950000e-01    4.540000e+00
  P6ah  TP5d  1 3.950000e-01    4.230000e+00
  P6ah  TP4d  1 3.950000e-01    3.910000e+00
  P6ah  TP3d  1 3.950000e-01    3.670000e+00
  P6ah  TP2d  1 3.950000e-01    3.670000e+00
  P6ah  TP1d  1 3.950000e-01    3.430000e+00
  P6ah  TN6d  1 3.950000e-01    3.190000e+00
  P6ah  TN5d  1 3.950000e-01    2.700000e+00
  P6ah  TN4d  1 3.950000e-01    2.500000e+00
  P6ah  TN3d  1 3.950000e-01    2.110000e+00
  P6ah  TN2d  1 3.950000e-01    1.850000e+00
  P6ah  TN1d  1 3.950000e-01    1.670000e+00
   P6d TN1dh  1 3.950000e-01    1.670000e+00
   P5d TN1dh  1 3.950000e-01    1.670000e+00
   P4d TN1dh  1 3.950000e-01    1.850000e+00
   P3d TN1dh  1 3.950000e-01    2.110000e+00
   P2d TN1dh  1 3.950000e-01    2.110000e+00
   P1d TN1dh  1 3.950000e-01    2.110000e+00
   N6d TN1dh  1 3.950000e-01    2.110000e+00
   N5d TN1dh  1 3.950000e-01    2.110000e+00
   N4d TN1dh  1 3.950000e-01    2.110000e+00
   N3d TN1dh  1 3.950000e-01    2.110000e+00
   N2d TN1dh  1 3.950000e-01    2.110000e+00
   P6d TN2dh  1 3.950000e-01    1.850000e+00
   P5d TN2dh  1 3.950000e-01    1.850000e+00
   P4d TN2dh  1 3.950000e-01    2.110000e+00
   P3d TN2dh  1 3.950000e-01    2.110000e+00
   P2d TN2dh  1 3.950000e-01    2.110000e+00
   P1d TN2dh  1 3.950000e-01    2.110000e+00
   N6d TN2dh  1 3.950000e-01    2.110000e+00
   N5d TN2dh  1 3.950000e-01    2.310000e+00
   N4d TN2dh  1 3.950000e-01    2.310000e+00
   N3d TN2dh  1 3.950000e-01    2.310000e+00
   P6d TN3dh  1 3.950000e-01    2.110000e+00
   P5d TN3dh  1 3.950000e-01    2.110000e+00
   P4d TN3dh  1 3.950000e-01    2.110000e+00
   P3d TN3dh  1 3.950000e-01    2.110000e+00
   P2d TN3dh  1 3.950000e-01    2.110000e+00
   P1d TN3dh  1 3.950000e-01    2.110000e+00
   N6d TN3dh  1 3.950000e-01    2.310000e+00
   N5d TN3dh  1 3.950000e-01    2.310000e+00
   N4d TN3dh  1 3.950000e-01    2.310000e+00
   P6d TN4dh  1 3.950000e-01    2.110000e+00
   P5d TN4dh  1 3.950000e-01    2.310000e+00
   P4d TN4dh  1 3.950000e-01    2.310000e+00
   P3d TN4dh  1 3.950000e-01    2.310000e+00
   P2d TN4dh  1 3.950000e-01    2.310000e+00
   P1d TN4dh  1 3.950000e-01    2.500000e+00
   N6d TN4dh  1 3.950000e-01    2.700000e+00
   N5d TN4dh  1 3.950000e-01    2.500000e+00
   P6d TN5dh  1 3.950000e-01    2.310000e+00
   P5d TN5dh  1 3.950000e-01    2.310000e+00
   P4d TN5dh  1 3.950000e-01    2.310000e+00
   P3d TN5dh  1 3.950000e-01    2.310000e+00
   P2d TN5dh  1 3.950000e-01    2.500000e+00
   P1d TN5dh  1 3.950000e-01    2.500000e+00
   N6d TN5dh  1 3.950000e-01    2.700000e+00
   P6d TN6dh  1 3.950000e-01    2.700000e+00
   P5d TN6dh  1 3.950000e-01    2.500000e+00
   P4d TN6dh  1 3.950000e-01    2.500000e+00
   P3d TN6dh  1 3.950000e-01    2.500000e+00
   P2d TN6dh  1 3.950000e-01    2.700000e+00
   P1d TN6dh  1 3.950000e-01    2.700000e+00
   P6d TP1dh  1 3.950000e-01    2.940000e+00
   P5d TP1dh  1 3.950000e-01    2.700000e+00
   P4d TP1dh  1 3.950000e-01    2.700000e+00
   P3d TP1dh  1 3.950000e-01    2.700000e+00
   P2d TP1dh  1 3.950000e-01    2.700000e+00
   P6d TP2dh  1 3.950000e-01    3.190000e+00
   P5d TP2dh  1 3.950000e-01    2.940000e+00
   P4d TP2dh  1 3.950000e-01    2.940000e+00
   P3d TP2dh  1 3.950000e-01    2.940000e+00
   P6d TP3dh  1 3.950000e-01    3.190000e+00
   P5d TP3dh  1 3.950000e-01    2.940000e+00
   P4d TP3dh  1 3.950000e-01    2.940000e+00
   P6d TP4dh  1 3.950000e-01    3.430000e+00
   P5d TP4dh  1 3.950000e-01    3.190000e+00
   P6d TP5dh  1 3.950000e-01    3.670000e+00
   P6r  TP6d  1 3.950000e-01    4.230000e+00
   P6r  TN1d  1 3.950000e-01    1.670000e+00
   P6r  TN2d  1 3.950000e-01    1.850000e+00
   P6r  TN3d  1 3.950000e-01    2.110000e+00
   P6r  TN4d  1 3.950000e-01    2.310000e+00
   P6r  TN5d  1 3.950000e-01    2.500000e+00
   P6r  TN6d  1 3.950000e-01    2.940000e+00
   P6r  TP1d  1 3.950000e-01    3.190000e+00
   P6r  TP2d  1 3.950000e-01    3.430000e+00
   P6r  TP3d  1 3.950000e-01    3.430000e+00
   P6r  TP4d  1 3.950000e-01    3.670000e+00
   P6r  TP5d  1 3.950000e-01    3.910000e+00
   P6r  TP6a  1 3.950000e-01    4.230000e+00
   P6r  TN1a  1 3.950000e-01    1.670000e+00
   P6r  TN2a  1 3.950000e-01    1.850000e+00
   P6r  TN3a  1 3.950000e-01    2.110000e+00
   P6r  TN4a  1 3.950000e-01    2.310000e+00
   P6r  TN5a  1 3.950000e-01    2.500000e+00
   P6r  TN6a  1 3.950000e-01    2.940000e+00
   P6r  TP1a  1 3.950000e-01    3.190000e+00
   P6r  TP2a  1 3.950000e-01    3.430000e+00
   P6r  TP3a  1 3.950000e-01    3.430000e+00
   P6r  TP4a  1 3.950000e-01    3.670000e+00
   P6r  TP5a  1 3.950000e-01    3.910000e+00
   P6r  TC6v  1 3.950000e-01    1.850000e+00
   P6r  TC5v  1 3.950000e-01    1.670000e+00
   P6r  TC4v  1 3.980000e-01    1.450000e+00
   P6r  TC3v  1 3.990000e-01    1.180000e+00
   P6r  TC2v  1 3.990000e-01    1.180000e+00
   P6r  TC1v  1 4.040000e-01    8.300000e-01
   P6r  TX4v  1 3.950000e-01    2.110000e+00
   P6r  TX3v  1 3.950000e-01    2.110000e+00
   P6r  TX2v  1 3.950000e-01    1.850000e+00
   P6r  TX1v  1 3.950000e-01    1.670000e+00
   P6r  TC6e  1 3.950000e-01    1.850000e+00
   P6r  TC5e  1 3.950000e-01    1.670000e+00
   P6r  TC4e  1 3.980000e-01    1.450000e+00
   P6r  TC3e  1 3.990000e-01    1.180000e+00
   P6r  TC2e  1 3.990000e-01    1.180000e+00
   P6r  TC1e  1 4.040000e-01    8.300000e-01
   P6r  TX4e  1 3.950000e-01    2.110000e+00
   P6r  TX3e  1 3.950000e-01    2.110000e+00
   P6r  TX2e  1 3.950000e-01    1.850000e+00
   P6r  TX1e  1 3.950000e-01    1.670000e+00
   P6r  TP6q  1 3.950000e-01    4.870000e+00
   P6r TX1eq  1 3.950000e-01    2.110000e+00
   P6r TX2eq  1 3.950000e-01    2.310000e+00
   P6r TX3eq  1 3.950000e-01    2.500000e+00
   P6r TX4eq  1 3.950000e-01    2.500000e+00
   P6r TC1eq  1 3.990000e-01    1.180000e+00
   P6r TC2eq  1 3.950000e-01    1.670000e+00
   P6r TC3eq  1 3.950000e-01    1.670000e+00
   P6r TC4eq  1 3.950000e-01    1.850000e+00
   P6r TC5eq  1 3.950000e-01    2.110000e+00
   P6r TC6eq  1 3.950000e-01    2.310000e+00
   P6r TX1vq  1 3.950000e-01    2.110000e+00
   P6r TX2vq  1 3.950000e-01    2.310000e+00
   P6r TX3vq  1 3.950000e-01    2.500000e+00
   P6r TX4vq  1 3.950000e-01    2.500000e+00
   P6r TC1vq  1 3.990000e-01    1.180000e+00
   P6r TC2vq  1 3.950000e-01    1.670000e+00
   P6r TC3vq  1 3.950000e-01    1.670000e+00
   P6r TC4vq  1 3.950000e-01    1.850000e+00
   P6r TC5vq  1 3.950000e-01    2.110000e+00
   P6r TC6vq  1 3.950000e-01    2.310000e+00
   P6r TN1aq  1 3.950000e-01    2.110000e+00
   P6r TN2aq  1 3.950000e-01    2.310000e+00
   P6r TN3aq  1 3.950000e-01    2.500000e+00
   P6r TN4aq  1 3.950000e-01    2.700000e+00
   P6r TN5aq  1 3.950000e-01    2.940000e+00
   P6r TN6aq  1 3.950000e-01    3.430000e+00
   P6r TP1aq  1 3.950000e-01    3.670000e+00
   P6r TP2aq  1 3.950000e-01    3.910000e+00
   P6r TP3aq  1 3.950000e-01    3.910000e+00
   P6r TP4aq  1 3.950000e-01    4.230000e+00
   P6r TP5aq  1 3.950000e-01    4.540000e+00
   P6r TP6aq  1 3.950000e-01    4.870000e+00
   P6r TN1dq  1 3.950000e-01    2.110000e+00
   P6r TN2dq  1 3.950000e-01    2.310000e+00
   P6r TN3dq  1 3.950000e-01    2.500000e+00
   P6r TN4dq  1 3.950000e-01    2.700000e+00
   P6r TN5dq  1 3.950000e-01    2.940000e+00
   P6r TN6dq  1 3.950000e-01    3.430000e+00
   P6r TP1dq  1 3.950000e-01    3.670000e+00
   P6r TP2dq  1 3.950000e-01    3.910000e+00
   P6r TP3dq  1 3.950000e-01    3.910000e+00
   P6r TP4dq  1 3.950000e-01    4.230000e+00
   P6r TP5dq  1 3.950000e-01    4.540000e+00
   P6r TP6dq  1 3.950000e-01    4.870000e+00
   P6r  TX1q  1 3.950000e-01    1.850000e+00
   P6r  TX2q  1 3.950000e-01    2.110000e+00
   P6r  TX3q  1 3.950000e-01    2.310000e+00
   P6r  TX4q  1 3.950000e-01    2.310000e+00
   P6r  TC1q  1 4.010000e-01    9.830000e-01
   P6r  TC2q  1 3.980000e-01    1.450000e+00
   P6r  TC3q  1 3.980000e-01    1.450000e+00
   P6r  TC4q  1 3.950000e-01    1.670000e+00
   P6r  TC5q  1 3.950000e-01    1.850000e+00
   P6r  TC6q  1 3.950000e-01    2.110000e+00
   P6r  TN1q  1 3.950000e-01    2.110000e+00
   P6r  TN2q  1 3.950000e-01    2.310000e+00
   P6r  TN3q  1 3.950000e-01    2.500000e+00
   P6r  TN4q  1 3.950000e-01    2.700000e+00
   P6r  TN5q  1 3.950000e-01    2.940000e+00
   P6r  TN6q  1 3.950000e-01    3.430000e+00
   P6r  TP1q  1 3.950000e-01    3.670000e+00
   P6r  TP2q  1 3.950000e-01    3.910000e+00
   P6r  TP3q  1 3.950000e-01    3.910000e+00
   P6r  TP4q  1 3.950000e-01    4.230000e+00
   P6r  TP5q  1 3.950000e-01    4.540000e+00
   P6d  TP5r  1 3.950000e-01    3.910000e+00
   P5r  TP5d  1 3.950000e-01    3.670000e+00
   P5r  TN1d  1 3.950000e-01    1.670000e+00
   P5r  TN2d  1 3.950000e-01    1.850000e+00
   P5r  TN3d  1 3.950000e-01    2.110000e+00
   P5r  TN4d  1 3.950000e-01    2.500000e+00
   P5r  TN5d  1 3.950000e-01    2.500000e+00
   P5r  TN6d  1 3.950000e-01    2.700000e+00
   P5r  TP1d  1 3.950000e-01    2.940000e+00
   P5r  TP2d  1 3.950000e-01    3.190000e+00
   P5r  TP3d  1 3.950000e-01    3.190000e+00
   P5r  TP4d  1 3.950000e-01    3.430000e+00
   P6a  TP5r  1 3.950000e-01    3.910000e+00
   P5r  TP5a  1 3.950000e-01    3.670000e+00
   P5r  TN1a  1 3.950000e-01    1.670000e+00
   P5r  TN2a  1 3.950000e-01    1.850000e+00
   P5r  TN3a  1 3.950000e-01    2.110000e+00
   P5r  TN4a  1 3.950000e-01    2.500000e+00
   P5r  TN5a  1 3.950000e-01    2.500000e+00
   P5r  TN6a  1 3.950000e-01    2.700000e+00
   P5r  TP1a  1 3.950000e-01    2.940000e+00
   P5r  TP2a  1 3.950000e-01    3.190000e+00
   P5r  TP3a  1 3.950000e-01    3.190000e+00
   P5r  TP4a  1 3.950000e-01    3.430000e+00
   P5r  TC6v  1 3.950000e-01    1.850000e+00
   P5r  TC5v  1 3.950000e-01    1.850000e+00
   P5r  TC4v  1 3.950000e-01    1.670000e+00
   P5r  TC3v  1 3.980000e-01    1.450000e+00
   P5r  TC2v  1 3.980000e-01    1.450000e+00
   P5r  TC1v  1 3.990000e-01    1.180000e+00
   P5r  TX4v  1 3.950000e-01    2.310000e+00
   P5r  TX3v  1 3.950000e-01    2.110000e+00
   P5r  TX2v  1 3.950000e-01    2.110000e+00
   P5r  TX1v  1 3.950000e-01    1.670000e+00
   P5r  TC6e  1 3.950000e-01    1.850000e+00
   P5r  TC5e  1 3.950000e-01    1.850000e+00
   P5r  TC4e  1 3.950000e-01    1.670000e+00
   P5r  TC3e  1 3.980000e-01    1.450000e+00
   P5r  TC2e  1 3.980000e-01    1.450000e+00
   P5r  TC1e  1 3.990000e-01    1.180000e+00
   P5r  TX4e  1 3.950000e-01    2.310000e+00
   P5r  TX3e  1 3.950000e-01    2.110000e+00
   P5r  TX2e  1 3.950000e-01    2.110000e+00
   P5r  TX1e  1 3.950000e-01    1.670000e+00
   P6q  TP5r  1 3.950000e-01    4.540000e+00
   P5r  TP5q  1 3.950000e-01    4.230000e+00
   P5r TX1eq  1 3.950000e-01    2.110000e+00
   P5r TX2eq  1 3.950000e-01    2.500000e+00
   P5r TX3eq  1 3.950000e-01    2.500000e+00
   P5r TX4eq  1 3.950000e-01    2.700000e+00
   P5r TC1eq  1 3.950000e-01    1.670000e+00
   P5r TC2eq  1 3.950000e-01    1.850000e+00
   P5r TC3eq  1 3.950000e-01    1.850000e+00
   P5r TC4eq  1 3.950000e-01    2.110000e+00
   P5r TC5eq  1 3.950000e-01    2.310000e+00
   P5r TC6eq  1 3.950000e-01    2.310000e+00
   P5r TX1vq  1 3.950000e-01    2.110000e+00
   P5r TX2vq  1 3.950000e-01    2.500000e+00
   P5r TX3vq  1 3.950000e-01    2.500000e+00
   P5r TX4vq  1 3.950000e-01    2.700000e+00
   P5r TC1vq  1 3.950000e-01    1.670000e+00
   P5r TC2vq  1 3.950000e-01    1.850000e+00
   P5r TC3vq  1 3.950000e-01    1.850000e+00
   P5r TC4vq  1 3.950000e-01    2.110000e+00
   P5r TC5vq  1 3.950000e-01    2.310000e+00
   P5r TC6vq  1 3.950000e-01    2.310000e+00
   P5r TN1aq  1 3.950000e-01    2.110000e+00
   P5r TN2aq  1 3.950000e-01    2.310000e+00
   P5r TN3aq  1 3.950000e-01    2.500000e+00
   P5r TN4aq  1 3.950000e-01    2.940000e+00
   P5r TN5aq  1 3.950000e-01    2.940000e+00
   P5r TN6aq  1 3.950000e-01    3.190000e+00
   P5r TP1aq  1 3.950000e-01    3.430000e+00
   P5r TP2aq  1 3.950000e-01    3.670000e+00
   P5r TP3aq  1 3.950000e-01    3.670000e+00
   P5r TP4aq  1 3.950000e-01    3.910000e+00
   P5r TP5aq  1 3.950000e-01    4.230000e+00
  P6aq  TP5r  1 3.950000e-01    4.540000e+00
   P5r TN1dq  1 3.950000e-01    2.110000e+00
   P5r TN2dq  1 3.950000e-01    2.310000e+00
   P5r TN3dq  1 3.950000e-01    2.500000e+00
   P5r TN4dq  1 3.950000e-01    2.940000e+00
   P5r TN5dq  1 3.950000e-01    2.940000e+00
   P5r TN6dq  1 3.950000e-01    3.190000e+00
   P5r TP1dq  1 3.950000e-01    3.430000e+00
   P5r TP2dq  1 3.950000e-01    3.670000e+00
   P5r TP3dq  1 3.950000e-01    3.670000e+00
   P5r TP4dq  1 3.950000e-01    3.910000e+00
   P5r TP5dq  1 3.950000e-01    4.230000e+00
  P6dq  TP5r  1 3.950000e-01    4.540000e+00
   P5r  TX1q  1 3.950000e-01    1.850000e+00
   P5r  TX2q  1 3.950000e-01    2.310000e+00
   P5r  TX3q  1 3.950000e-01    2.310000e+00
   P5r  TX4q  1 3.950000e-01    2.500000e+00
   P5r  TC1q  1 3.980000e-01    1.450000e+00
   P5r  TC2q  1 3.950000e-01    1.670000e+00
   P5r  TC3q  1 3.950000e-01    1.670000e+00
   P5r  TC4q  1 3.950000e-01    1.850000e+00
   P5r  TC5q  1 3.950000e-01    2.110000e+00
   P5r  TC6q  1 3.950000e-01    2.110000e+00
   P5r  TN1q  1 3.950000e-01    2.110000e+00
   P5r  TN2q  1 3.950000e-01    2.310000e+00
   P5r  TN3q  1 3.950000e-01    2.500000e+00
   P5r  TN4q  1 3.950000e-01    2.940000e+00
   P5r  TN5q  1 3.950000e-01    2.940000e+00
   P5r  TN6q  1 3.950000e-01    3.190000e+00
   P5r  TP1q  1 3.950000e-01    3.430000e+00
   P5r  TP2q  1 3.950000e-01    3.670000e+00
   P5r  TP3q  1 3.950000e-01    3.670000e+00
   P5r  TP4q  1 3.950000e-01    3.910000e+00
   P6d  TP4r  1 3.950000e-01    3.670000e+00
   P5d  TP4r  1 3.950000e-01    3.430000e+00
   P4r  TP4d  1 3.950000e-01    3.430000e+00
   P4r  TN1d  1 3.950000e-01    1.850000e+00
   P4r  TN2d  1 3.950000e-01    2.110000e+00
   P4r  TN3d  1 3.950000e-01    2.310000e+00
   P4r  TN4d  1 3.950000e-01    2.500000e+00
   P4r  TN5d  1 3.950000e-01    2.500000e+00
   P4r  TN6d  1 3.950000e-01    2.700000e+00
   P4r  TP1d  1 3.950000e-01    2.940000e+00
   P4r  TP2d  1 3.950000e-01    3.190000e+00
   P4r  TP3d  1 3.950000e-01    3.190000e+00
   P6a  TP4r  1 3.950000e-01    3.670000e+00
   P5a  TP4r  1 3.950000e-01    3.430000e+00
   P4r  TP4a  1 3.950000e-01    3.430000e+00
   P4r  TN1a  1 3.950000e-01    1.850000e+00
   P4r  TN2a  1 3.950000e-01    2.110000e+00
   P4r  TN3a  1 3.950000e-01    2.310000e+00
   P4r  TN4a  1 3.950000e-01    2.500000e+00
   P4r  TN5a  1 3.950000e-01    2.500000e+00
   P4r  TN6a  1 3.950000e-01    2.700000e+00
   P4r  TP1a  1 3.950000e-01    2.940000e+00
   P4r  TP2a  1 3.950000e-01    3.190000e+00
   P4r  TP3a  1 3.950000e-01    3.190000e+00
   P4r  TC6v  1 3.950000e-01    2.110000e+00
   P4r  TC5v  1 3.950000e-01    1.850000e+00
   P4r  TC4v  1 3.950000e-01    1.670000e+00
   P4r  TC3v  1 3.980000e-01    1.450000e+00
   P4r  TC2v  1 3.980000e-01    1.450000e+00
   P4r  TC1v  1 3.990000e-01    1.180000e+00
   P4r  TX4v  1 3.950000e-01    2.310000e+00
   P4r  TX3v  1 3.950000e-01    2.110000e+00
   P4r  TX2v  1 3.950000e-01    2.110000e+00
   P4r  TX1v  1 3.950000e-01    1.850000e+00
   P4r  TC6e  1 3.950000e-01    2.110000e+00
   P4r  TC5e  1 3.950000e-01    1.850000e+00
   P4r  TC4e  1 3.950000e-01    1.670000e+00
   P4r  TC3e  1 3.980000e-01    1.450000e+00
   P4r  TC2e  1 3.980000e-01    1.450000e+00
   P4r  TC1e  1 3.990000e-01    1.180000e+00
   P4r  TX4e  1 3.950000e-01    2.310000e+00
   P4r  TX3e  1 3.950000e-01    2.110000e+00
   P4r  TX2e  1 3.950000e-01    2.110000e+00
   P4r  TX1e  1 3.950000e-01    1.850000e+00
   P6q  TP4r  1 3.950000e-01    4.230000e+00
   P5q  TP4r  1 3.950000e-01    3.910000e+00
   P4r  TP4q  1 3.950000e-01    3.910000e+00
   P4r TX1eq  1 3.950000e-01    2.310000e+00
   P4r TX2eq  1 3.950000e-01    2.500000e+00
   P4r TX3eq  1 3.950000e-01    2.500000e+00
   P4r TX4eq  1 3.950000e-01    2.700000e+00
   P4r TC1eq  1 3.950000e-01    1.670000e+00
   P4r TC2eq  1 3.950000e-01    1.850000e+00
   P4r TC3eq  1 3.950000e-01    1.850000e+00
   P4r TC4eq  1 3.950000e-01    2.110000e+00
   P4r TC5eq  1 3.950000e-01    2.310000e+00
   P4r TC6eq  1 3.950000e-01    2.500000e+00
   P4r TX1vq  1 3.950000e-01    2.310000e+00
   P4r TX2vq  1 3.950000e-01    2.500000e+00
   P4r TX3vq  1 3.950000e-01    2.500000e+00
   P4r TX4vq  1 3.950000e-01    2.700000e+00
   P4r TC1vq  1 3.950000e-01    1.670000e+00
   P4r TC2vq  1 3.950000e-01    1.850000e+00
   P4r TC3vq  1 3.950000e-01    1.850000e+00
   P4r TC4vq  1 3.950000e-01    2.110000e+00
   P4r TC5vq  1 3.950000e-01    2.310000e+00
   P4r TC6vq  1 3.950000e-01    2.500000e+00
   P4r TN1aq  1 3.950000e-01    2.310000e+00
   P4r TN2aq  1 3.950000e-01    2.500000e+00
   P4r TN3aq  1 3.950000e-01    2.700000e+00
   P4r TN4aq  1 3.950000e-01    2.940000e+00
   P4r TN5aq  1 3.950000e-01    2.940000e+00
   P4r TN6aq  1 3.950000e-01    3.190000e+00
   P4r TP1aq  1 3.950000e-01    3.430000e+00
   P4r TP2aq  1 3.950000e-01    3.670000e+00
   P4r TP3aq  1 3.950000e-01    3.670000e+00
   P4r TP4aq  1 3.950000e-01    3.910000e+00
  P5aq  TP4r  1 3.950000e-01    3.910000e+00
  P6aq  TP4r  1 3.950000e-01    4.230000e+00
   P4r TN1dq  1 3.950000e-01    2.310000e+00
   P4r TN2dq  1 3.950000e-01    2.500000e+00
   P4r TN3dq  1 3.950000e-01    2.700000e+00
   P4r TN4dq  1 3.950000e-01    2.940000e+00
   P4r TN5dq  1 3.950000e-01    2.940000e+00
   P4r TN6dq  1 3.950000e-01    3.190000e+00
   P4r TP1dq  1 3.950000e-01    3.430000e+00
   P4r TP2dq  1 3.950000e-01    3.670000e+00
   P4r TP3dq  1 3.950000e-01    3.670000e+00
   P4r TP4dq  1 3.950000e-01    3.910000e+00
  P5dq  TP4r  1 3.950000e-01    3.910000e+00
  P6dq  TP4r  1 3.950000e-01    4.230000e+00
   P4r  TX1q  1 3.950000e-01    2.110000e+00
   P4r  TX2q  1 3.950000e-01    2.310000e+00
   P4r  TX3q  1 3.950000e-01    2.310000e+00
   P4r  TX4q  1 3.950000e-01    2.500000e+00
   P4r  TC1q  1 3.980000e-01    1.450000e+00
   P4r  TC2q  1 3.950000e-01    1.670000e+00
   P4r  TC3q  1 3.950000e-01    1.670000e+00
   P4r  TC4q  1 3.950000e-01    1.850000e+00
   P4r  TC5q  1 3.950000e-01    2.110000e+00
   P4r  TC6q  1 3.950000e-01    2.310000e+00
   P4r  TN1q  1 3.950000e-01    2.310000e+00
   P4r  TN2q  1 3.950000e-01    2.500000e+00
   P4r  TN3q  1 3.950000e-01    2.700000e+00
   P4r  TN4q  1 3.950000e-01    2.940000e+00
   P4r  TN5q  1 3.950000e-01    2.940000e+00
   P4r  TN6q  1 3.950000e-01    3.190000e+00
   P4r  TP1q  1 3.950000e-01    3.430000e+00
   P4r  TP2q  1 3.950000e-01    3.670000e+00
   P4r  TP3q  1 3.950000e-01    3.670000e+00
   P6d  TP3r  1 3.950000e-01    3.430000e+00
   P5d  TP3r  1 3.950000e-01    3.190000e+00
   P4d  TP3r  1 3.950000e-01    3.190000e+00
   P3r  TP3d  1 3.950000e-01    3.190000e+00
   P3r  TN1d  1 3.950000e-01    2.110000e+00
   P3r  TN2d  1 3.950000e-01    2.310000e+00
   P3r  TN3d  1 3.950000e-01    2.310000e+00
   P3r  TN4d  1 3.950000e-01    2.500000e+00
   P3r  TN5d  1 3.950000e-01    2.500000e+00
   P3r  TN6d  1 3.950000e-01    2.700000e+00
   P3r  TP1d  1 3.950000e-01    2.940000e+00
   P3r  TP2d  1 3.950000e-01    3.190000e+00
   P6a  TP3r  1 3.950000e-01    3.430000e+00
   P5a  TP3r  1 3.950000e-01    3.190000e+00
   P4a  TP3r  1 3.950000e-01    3.190000e+00
   P3r  TP3a  1 3.950000e-01    3.190000e+00
   P3r  TN1a  1 3.950000e-01    2.110000e+00
   P3r  TN2a  1 3.950000e-01    2.310000e+00
   P3r  TN3a  1 3.950000e-01    2.310000e+00
   P3r  TN4a  1 3.950000e-01    2.500000e+00
   P3r  TN5a  1 3.950000e-01    2.500000e+00
   P3r  TN6a  1 3.950000e-01    2.700000e+00
   P3r  TP1a  1 3.950000e-01    2.940000e+00
   P3r  TP2a  1 3.950000e-01    3.190000e+00
   P3r  TC6v  1 3.950000e-01    2.310000e+00
   P3r  TC5v  1 3.950000e-01    2.110000e+00
   P3r  TC4v  1 3.950000e-01    1.850000e+00
   P3r  TC3v  1 3.980000e-01    1.450000e+00
   P3r  TC2v  1 3.980000e-01    1.450000e+00
   P3r  TC1v  1 3.990000e-01    1.180000e+00
   P3r  TX4v  1 3.950000e-01    2.310000e+00
   P3r  TX3v  1 3.950000e-01    2.310000e+00
   P3r  TX2v  1 3.950000e-01    2.110000e+00
   P3r  TX1v  1 3.950000e-01    1.850000e+00
   P3r  TC6e  1 3.950000e-01    2.310000e+00
   P3r  TC5e  1 3.950000e-01    2.110000e+00
   P3r  TC4e  1 3.950000e-01    1.850000e+00
   P3r  TC3e  1 3.980000e-01    1.450000e+00
   P3r  TC2e  1 3.980000e-01    1.450000e+00
   P3r  TC1e  1 3.990000e-01    1.180000e+00
   P3r  TX4e  1 3.950000e-01    2.310000e+00
   P3r  TX3e  1 3.950000e-01    2.310000e+00
   P3r  TX2e  1 3.950000e-01    2.110000e+00
   P3r  TX1e  1 3.950000e-01    1.850000e+00
   P6q  TP3r  1 3.950000e-01    3.910000e+00
   P5q  TP3r  1 3.950000e-01    3.670000e+00
   P4q  TP3r  1 3.950000e-01    3.670000e+00
   P3r  TP3q  1 3.950000e-01    3.670000e+00
   P3r TX1eq  1 3.950000e-01    2.310000e+00
   P3r TX2eq  1 3.950000e-01    2.500000e+00
   P3r TX3eq  1 3.950000e-01    2.700000e+00
   P3r TX4eq  1 3.950000e-01    2.700000e+00
   P3r TC1eq  1 3.950000e-01    1.670000e+00
   P3r TC2eq  1 3.950000e-01    1.850000e+00
   P3r TC3eq  1 3.950000e-01    1.850000e+00
   P3r TC4eq  1 3.950000e-01    2.310000e+00
   P3r TC5eq  1 3.950000e-01    2.500000e+00
   P3r TC6eq  1 3.950000e-01    2.700000e+00
   P3r TX1vq  1 3.950000e-01    2.310000e+00
   P3r TX2vq  1 3.950000e-01    2.500000e+00
   P3r TX3vq  1 3.950000e-01    2.700000e+00
   P3r TX4vq  1 3.950000e-01    2.700000e+00
   P3r TC1vq  1 3.950000e-01    1.670000e+00
   P3r TC2vq  1 3.950000e-01    1.850000e+00
   P3r TC3vq  1 3.950000e-01    1.850000e+00
   P3r TC4vq  1 3.950000e-01    2.310000e+00
   P3r TC5vq  1 3.950000e-01    2.500000e+00
   P3r TC6vq  1 3.950000e-01    2.700000e+00
   P3r TN1aq  1 3.950000e-01    2.500000e+00
   P3r TN2aq  1 3.950000e-01    2.700000e+00
   P3r TN3aq  1 3.950000e-01    2.700000e+00
   P3r TN4aq  1 3.950000e-01    2.940000e+00
   P3r TN5aq  1 3.950000e-01    2.940000e+00
   P3r TN6aq  1 3.950000e-01    3.190000e+00
   P3r TP1aq  1 3.950000e-01    3.430000e+00
   P3r TP2aq  1 3.950000e-01    3.670000e+00
   P3r TP3aq  1 3.950000e-01    3.670000e+00
  P4aq  TP3r  1 3.950000e-01    3.670000e+00
  P5aq  TP3r  1 3.950000e-01    3.670000e+00
  P6aq  TP3r  1 3.950000e-01    3.910000e+00
   P3r TN1dq  1 3.950000e-01    2.500000e+00
   P3r TN2dq  1 3.950000e-01    2.700000e+00
   P3r TN3dq  1 3.950000e-01    2.700000e+00
   P3r TN4dq  1 3.950000e-01    2.940000e+00
   P3r TN5dq  1 3.950000e-01    2.940000e+00
   P3r TN6dq  1 3.950000e-01    3.190000e+00
   P3r TP1dq  1 3.950000e-01    3.430000e+00
   P3r TP2dq  1 3.950000e-01    3.670000e+00
   P3r TP3dq  1 3.950000e-01    3.670000e+00
  P4dq  TP3r  1 3.950000e-01    3.670000e+00
  P5dq  TP3r  1 3.950000e-01    3.670000e+00
  P6dq  TP3r  1 3.950000e-01    3.910000e+00
   P3r  TX1q  1 3.950000e-01    2.110000e+00
   P3r  TX2q  1 3.950000e-01    2.310000e+00
   P3r  TX3q  1 3.950000e-01    2.500000e+00
   P3r  TX4q  1 3.950000e-01    2.500000e+00
   P3r  TC1q  1 3.980000e-01    1.450000e+00
   P3r  TC2q  1 3.950000e-01    1.670000e+00
   P3r  TC3q  1 3.950000e-01    1.670000e+00
   P3r  TC4q  1 3.950000e-01    2.110000e+00
   P3r  TC5q  1 3.950000e-01    2.310000e+00
   P3r  TC6q  1 3.950000e-01    2.500000e+00
   P3r  TN1q  1 3.950000e-01    2.500000e+00
   P3r  TN2q  1 3.950000e-01    2.700000e+00
   P3r  TN3q  1 3.950000e-01    2.700000e+00
   P3r  TN4q  1 3.950000e-01    2.940000e+00
   P3r  TN5q  1 3.950000e-01    2.940000e+00
   P3r  TN6q  1 3.950000e-01    3.190000e+00
   P3r  TP1q  1 3.950000e-01    3.430000e+00
   P3r  TP2q  1 3.950000e-01    3.670000e+00
   P6d  TP2r  1 3.950000e-01    3.430000e+00
   P5d  TP2r  1 3.950000e-01    3.190000e+00
   P4d  TP2r  1 3.950000e-01    3.190000e+00
   P3d  TP2r  1 3.950000e-01    3.190000e+00
   P2r  TP2d  1 3.950000e-01    3.190000e+00
   P2r  TN1d  1 3.950000e-01    2.310000e+00
   P2r  TN2d  1 3.950000e-01    2.310000e+00
   P2r  TN3d  1 3.950000e-01    2.310000e+00
   P2r  TN4d  1 3.950000e-01    2.500000e+00
   P2r  TN5d  1 3.950000e-01    2.700000e+00
   P2r  TN6d  1 3.950000e-01    2.940000e+00
   P2r  TP1d  1 3.950000e-01    2.940000e+00
   P6a  TP2r  1 3.950000e-01    3.430000e+00
   P5a  TP2r  1 3.950000e-01    3.190000e+00
   P4a  TP2r  1 3.950000e-01    3.190000e+00
   P3a  TP2r  1 3.950000e-01    3.190000e+00
   P2r  TP2a  1 3.950000e-01    3.190000e+00
   P2r  TN1a  1 3.950000e-01    2.310000e+00
   P2r  TN2a  1 3.950000e-01    2.310000e+00
   P2r  TN3a  1 3.950000e-01    2.310000e+00
   P2r  TN4a  1 3.950000e-01    2.500000e+00
   P2r  TN5a  1 3.950000e-01    2.700000e+00
   P2r  TN6a  1 3.950000e-01    2.940000e+00
   P2r  TP1a  1 3.950000e-01    2.940000e+00
   P2r  TC6v  1 3.950000e-01    2.310000e+00
   P2r  TC5v  1 3.950000e-01    2.110000e+00
   P2r  TC4v  1 3.950000e-01    1.850000e+00
   P2r  TC3v  1 3.950000e-01    1.670000e+00
   P2r  TC2v  1 3.950000e-01    1.670000e+00
   P2r  TC1v  1 3.980000e-01    1.450000e+00
   P2r  TX4v  1 3.950000e-01    2.310000e+00
   P2r  TX3v  1 3.950000e-01    2.310000e+00
   P2r  TX2v  1 3.950000e-01    2.110000e+00
   P2r  TX1v  1 3.950000e-01    1.850000e+00
   P2r  TC6e  1 3.950000e-01    2.310000e+00
   P2r  TC5e  1 3.950000e-01    2.110000e+00
   P2r  TC4e  1 3.950000e-01    1.850000e+00
   P2r  TC3e  1 3.950000e-01    1.670000e+00
   P2r  TC2e  1 3.950000e-01    1.670000e+00
   P2r  TC1e  1 3.980000e-01    1.450000e+00
   P2r  TX4e  1 3.950000e-01    2.310000e+00
   P2r  TX3e  1 3.950000e-01    2.310000e+00
   P2r  TX2e  1 3.950000e-01    2.110000e+00
   P2r  TX1e  1 3.950000e-01    1.850000e+00
   P6q  TP2r  1 3.950000e-01    3.910000e+00
   P5q  TP2r  1 3.950000e-01    3.670000e+00
   P4q  TP2r  1 3.950000e-01    3.670000e+00
   P3q  TP2r  1 3.950000e-01    3.670000e+00
   P2r  TP2q  1 3.950000e-01    3.670000e+00
   P2r TX1eq  1 3.950000e-01    2.310000e+00
   P2r TX2eq  1 3.950000e-01    2.500000e+00
   P2r TX3eq  1 3.950000e-01    2.700000e+00
   P2r TX4eq  1 3.950000e-01    2.700000e+00
   P2r TC1eq  1 3.950000e-01    1.850000e+00
   P2r TC2eq  1 3.950000e-01    2.110000e+00
   P2r TC3eq  1 3.950000e-01    2.110000e+00
   P2r TC4eq  1 3.950000e-01    2.310000e+00
   P2r TC5eq  1 3.950000e-01    2.500000e+00
   P2r TC6eq  1 3.950000e-01    2.700000e+00
   P2r TX1vq  1 3.950000e-01    2.310000e+00
   P2r TX2vq  1 3.950000e-01    2.500000e+00
   P2r TX3vq  1 3.950000e-01    2.700000e+00
   P2r TX4vq  1 3.950000e-01    2.700000e+00
   P2r TC1vq  1 3.950000e-01    1.850000e+00
   P2r TC2vq  1 3.950000e-01    2.110000e+00
   P2r TC3vq  1 3.950000e-01    2.110000e+00
   P2r TC4vq  1 3.950000e-01    2.310000e+00
   P2r TC5vq  1 3.950000e-01    2.500000e+00
   P2r TC6vq  1 3.950000e-01    2.700000e+00
   P2r TN1aq  1 3.950000e-01    2.700000e+00
   P2r TN2aq  1 3.950000e-01    2.700000e+00
   P2r TN3aq  1 3.950000e-01    2.700000e+00
   P2r TN4aq  1 3.950000e-01    2.940000e+00
   P2r TN5aq  1 3.950000e-01    3.190000e+00
   P2r TN6aq  1 3.950000e-01    3.430000e+00
   P2r TP1aq  1 3.950000e-01    3.430000e+00
   P2r TP2aq  1 3.950000e-01    3.670000e+00
  P3aq  TP2r  1 3.950000e-01    3.670000e+00
  P4aq  TP2r  1 3.950000e-01    3.670000e+00
  P5aq  TP2r  1 3.950000e-01    3.670000e+00
  P6aq  TP2r  1 3.950000e-01    3.910000e+00
   P2r TN1dq  1 3.950000e-01    2.700000e+00
   P2r TN2dq  1 3.950000e-01    2.700000e+00
   P2r TN3dq  1 3.950000e-01    2.700000e+00
   P2r TN4dq  1 3.950000e-01    2.940000e+00
   P2r TN5dq  1 3.950000e-01    3.190000e+00
   P2r TN6dq  1 3.950000e-01    3.430000e+00
   P2r TP1dq  1 3.950000e-01    3.430000e+00
   P2r TP2dq  1 3.950000e-01    3.670000e+00
  P3dq  TP2r  1 3.950000e-01    3.670000e+00
  P4dq  TP2r  1 3.950000e-01    3.670000e+00
  P5dq  TP2r  1 3.950000e-01    3.670000e+00
  P6dq  TP2r  1 3.950000e-01    3.910000e+00
   P2r  TX1q  1 3.950000e-01    2.110000e+00
   P2r  TX2q  1 3.950000e-01    2.310000e+00
   P2r  TX3q  1 3.950000e-01    2.500000e+00
   P2r  TX4q  1 3.950000e-01    2.500000e+00
   P2r  TC1q  1 3.950000e-01    1.670000e+00
   P2r  TC2q  1 3.950000e-01    1.850000e+00
   P2r  TC3q  1 3.950000e-01    1.850000e+00
   P2r  TC4q  1 3.950000e-01    2.110000e+00
   P2r  TC5q  1 3.950000e-01    2.310000e+00
   P2r  TC6q  1 3.950000e-01    2.500000e+00
   P2r  TN1q  1 3.950000e-01    2.700000e+00
   P2r  TN2q  1 3.950000e-01    2.700000e+00
   P2r  TN3q  1 3.950000e-01    2.700000e+00
   P2r  TN4q  1 3.950000e-01    2.940000e+00
   P2r  TN5q  1 3.950000e-01    3.190000e+00
   P2r  TN6q  1 3.950000e-01    3.430000e+00
   P2r  TP1q  1 3.950000e-01    3.430000e+00
   P6d  TP1r  1 3.950000e-01    3.190000e+00
   P5d  TP1r  1 3.950000e-01    2.940000e+00
   P4d  TP1r  1 3.950000e-01    2.940000e+00
   P3d  TP1r  1 3.950000e-01    2.940000e+00
   P2d  TP1r  1 3.950000e-01    2.940000e+00
   P1r  TP1d  1 3.950000e-01    2.940000e+00
   P1r  TN1d  1 3.950000e-01    2.310000e+00
   P1r  TN2d  1 3.950000e-01    2.310000e+00
   P1r  TN3d  1 3.950000e-01    2.310000e+00
   P1r  TN4d  1 3.950000e-01    2.700000e+00
   P1r  TN5d  1 3.950000e-01    2.700000e+00
   P1r  TN6d  1 3.950000e-01    2.940000e+00
   P6a  TP1r  1 3.950000e-01    3.190000e+00
   P5a  TP1r  1 3.950000e-01    2.940000e+00
   P4a  TP1r  1 3.950000e-01    2.940000e+00
   P3a  TP1r  1 3.950000e-01    2.940000e+00
   P2a  TP1r  1 3.950000e-01    2.940000e+00
   P1r  TP1a  1 3.950000e-01    2.940000e+00
   P1r  TN1a  1 3.950000e-01    2.310000e+00
   P1r  TN2a  1 3.950000e-01    2.310000e+00
   P1r  TN3a  1 3.950000e-01    2.310000e+00
   P1r  TN4a  1 3.950000e-01    2.700000e+00
   P1r  TN5a  1 3.950000e-01    2.700000e+00
   P1r  TN6a  1 3.950000e-01    2.940000e+00
   P1r  TC6v  1 3.950000e-01    2.310000e+00
   P1r  TC5v  1 3.950000e-01    2.110000e+00
   P1r  TC4v  1 3.950000e-01    1.850000e+00
   P1r  TC3v  1 3.950000e-01    1.670000e+00
   P1r  TC2v  1 3.950000e-01    1.670000e+00
   P1r  TC1v  1 3.980000e-01    1.450000e+00
   P1r  TX4v  1 3.950000e-01    2.310000e+00
   P1r  TX3v  1 3.950000e-01    2.310000e+00
   P1r  TX2v  1 3.950000e-01    2.110000e+00
   P1r  TX1v  1 3.950000e-01    1.850000e+00
   P1r  TC6e  1 3.950000e-01    2.310000e+00
   P1r  TC5e  1 3.950000e-01    2.110000e+00
   P1r  TC4e  1 3.950000e-01    1.850000e+00
   P1r  TC3e  1 3.950000e-01    1.670000e+00
   P1r  TC2e  1 3.950000e-01    1.670000e+00
   P1r  TC1e  1 3.980000e-01    1.450000e+00
   P1r  TX4e  1 3.950000e-01    2.310000e+00
   P1r  TX3e  1 3.950000e-01    2.310000e+00
   P1r  TX2e  1 3.950000e-01    2.110000e+00
   P1r  TX1e  1 3.950000e-01    1.850000e+00
   P6q  TP1r  1 3.950000e-01    3.670000e+00
   P5q  TP1r  1 3.950000e-01    3.430000e+00
   P4q  TP1r  1 3.950000e-01    3.430000e+00
   P3q  TP1r  1 3.950000e-01    3.430000e+00
   P2q  TP1r  1 3.950000e-01    3.430000e+00
   P1r  TP1q  1 3.950000e-01    3.430000e+00
   P1r TX1eq  1 3.950000e-01    2.310000e+00
   P1r TX2eq  1 3.950000e-01    2.500000e+00
   P1r TX3eq  1 3.950000e-01    2.700000e+00
   P1r TX4eq  1 3.950000e-01    2.700000e+00
   P1r TC1eq  1 3.950000e-01    1.850000e+00
   P1r TC2eq  1 3.950000e-01    2.110000e+00
   P1r TC3eq  1 3.950000e-01    2.110000e+00
   P1r TC4eq  1 3.950000e-01    2.310000e+00
   P1r TC5eq  1 3.950000e-01    2.500000e+00
   P1r TC6eq  1 3.950000e-01    2.700000e+00
   P1r TX1vq  1 3.950000e-01    2.310000e+00
   P1r TX2vq  1 3.950000e-01    2.500000e+00
   P1r TX3vq  1 3.950000e-01    2.700000e+00
   P1r TX4vq  1 3.950000e-01    2.700000e+00
   P1r TC1vq  1 3.950000e-01    1.850000e+00
   P1r TC2vq  1 3.950000e-01    2.110000e+00
   P1r TC3vq  1 3.950000e-01    2.110000e+00
   P1r TC4vq  1 3.950000e-01    2.310000e+00
   P1r TC5vq  1 3.950000e-01    2.500000e+00
   P1r TC6vq  1 3.950000e-01    2.700000e+00
   P1r TN1aq  1 3.950000e-01    2.700000e+00
   P1r TN2aq  1 3.950000e-01    2.700000e+00
   P1r TN3aq  1 3.950000e-01    2.700000e+00
   P1r TN4aq  1 3.950000e-01    3.190000e+00
   P1r TN5aq  1 3.950000e-01    3.190000e+00
   P1r TN6aq  1 3.950000e-01    3.430000e+00
   P1r TP1aq  1 3.950000e-01    3.430000e+00
  P2aq  TP1r  1 3.950000e-01    3.430000e+00
  P3aq  TP1r  1 3.950000e-01    3.430000e+00
  P4aq  TP1r  1 3.950000e-01    3.430000e+00
  P5aq  TP1r  1 3.950000e-01    3.430000e+00
  P6aq  TP1r  1 3.950000e-01    3.670000e+00
   P1r TN1dq  1 3.950000e-01    2.700000e+00
   P1r TN2dq  1 3.950000e-01    2.700000e+00
   P1r TN3dq  1 3.950000e-01    2.700000e+00
   P1r TN4dq  1 3.950000e-01    3.190000e+00
   P1r TN5dq  1 3.950000e-01    3.190000e+00
   P1r TN6dq  1 3.950000e-01    3.430000e+00
   P1r TP1dq  1 3.950000e-01    3.430000e+00
  P2dq  TP1r  1 3.950000e-01    3.430000e+00
  P3dq  TP1r  1 3.950000e-01    3.430000e+00
  P4dq  TP1r  1 3.950000e-01    3.430000e+00
  P5dq  TP1r  1 3.950000e-01    3.430000e+00
  P6dq  TP1r  1 3.950000e-01    3.670000e+00
   P1r  TX1q  1 3.950000e-01    2.110000e+00
   P1r  TX2q  1 3.950000e-01    2.310000e+00
   P1r  TX3q  1 3.950000e-01    2.500000e+00
   P1r  TX4q  1 3.950000e-01    2.500000e+00
   P1r  TC1q  1 3.950000e-01    1.670000e+00
   P1r  TC2q  1 3.950000e-01    1.850000e+00
   P1r  TC3q  1 3.950000e-01    1.850000e+00
   P1r  TC4q  1 3.950000e-01    2.110000e+00
   P1r  TC5q  1 3.950000e-01    2.310000e+00
   P1r  TC6q  1 3.950000e-01    2.500000e+00
   P1r  TN1q  1 3.950000e-01    2.700000e+00
   P1r  TN2q  1 3.950000e-01    2.700000e+00
   P1r  TN3q  1 3.950000e-01    2.700000e+00
   P1r  TN4q  1 3.950000e-01    3.190000e+00
   P1r  TN5q  1 3.950000e-01    3.190000e+00
   P1r  TN6q  1 3.950000e-01    3.430000e+00
   P6d  TN6r  1 3.950000e-01    2.940000e+00
   P5d  TN6r  1 3.950000e-01    2.700000e+00
   P4d  TN6r  1 3.950000e-01    2.700000e+00
   P3d  TN6r  1 3.950000e-01    2.700000e+00
   P2d  TN6r  1 3.950000e-01    2.940000e+00
   P1d  TN6r  1 3.950000e-01    2.940000e+00
   N6r  TN6d  1 3.950000e-01    2.940000e+00
   N6r  TN1d  1 3.950000e-01    2.310000e+00
   N6r  TN2d  1 3.950000e-01    2.310000e+00
   N6r  TN3d  1 3.950000e-01    2.500000e+00
   N6r  TN4d  1 3.950000e-01    2.940000e+00
   N6r  TN5d  1 3.950000e-01    2.940000e+00
   P6a  TN6r  1 3.950000e-01    2.940000e+00
   P5a  TN6r  1 3.950000e-01    2.700000e+00
   P4a  TN6r  1 3.950000e-01    2.700000e+00
   P3a  TN6r  1 3.950000e-01    2.700000e+00
   P2a  TN6r  1 3.950000e-01    2.940000e+00
   P1a  TN6r  1 3.950000e-01    2.940000e+00
   N6r  TN6a  1 3.950000e-01    2.940000e+00
   N6r  TN1a  1 3.950000e-01    2.310000e+00
   N6r  TN2a  1 3.950000e-01    2.310000e+00
   N6r  TN3a  1 3.950000e-01    2.500000e+00
   N6r  TN4a  1 3.950000e-01    2.940000e+00
   N6r  TN5a  1 3.950000e-01    2.940000e+00
   N6r  TC6v  1 3.950000e-01    2.500000e+00
   N6r  TC5v  1 3.950000e-01    2.310000e+00
   N6r  TC4v  1 3.950000e-01    2.110000e+00
   N6r  TC3v  1 3.950000e-01    1.850000e+00
   N6r  TC2v  1 3.950000e-01    1.850000e+00
   N6r  TC1v  1 3.950000e-01    1.670000e+00
   N6r  TX4v  1 3.950000e-01    2.500000e+00
   N6r  TX3v  1 3.950000e-01    2.310000e+00
   N6r  TX2v  1 3.950000e-01    2.110000e+00
   N6r  TX1v  1 3.950000e-01    1.850000e+00
   N6r  TC6e  1 3.950000e-01    2.500000e+00
   N6r  TC5e  1 3.950000e-01    2.310000e+00
   N6r  TC4e  1 3.950000e-01    2.110000e+00
   N6r  TC3e  1 3.950000e-01    1.850000e+00
   N6r  TC2e  1 3.950000e-01    1.850000e+00
   N6r  TC1e  1 3.950000e-01    1.670000e+00
   N6r  TX4e  1 3.950000e-01    2.500000e+00
   N6r  TX3e  1 3.950000e-01    2.310000e+00
   N6r  TX2e  1 3.950000e-01    2.110000e+00
   N6r  TX1e  1 3.950000e-01    1.850000e+00
   P6q  TN6r  1 3.950000e-01    3.430000e+00
   P5q  TN6r  1 3.950000e-01    3.190000e+00
   P4q  TN6r  1 3.950000e-01    3.190000e+00
   P3q  TN6r  1 3.950000e-01    3.190000e+00
   P2q  TN6r  1 3.950000e-01    3.430000e+00
   P1q  TN6r  1 3.950000e-01    3.430000e+00
   N6r  TN6q  1 3.950000e-01    3.430000e+00
   N6r TX1eq  1 3.950000e-01    2.310000e+00
   N6r TX2eq  1 3.950000e-01    2.500000e+00
   N6r TX3eq  1 3.950000e-01    2.700000e+00
   N6r TX4eq  1 3.950000e-01    2.940000e+00
   N6r TC1eq  1 3.950000e-01    2.110000e+00
   N6r TC2eq  1 3.950000e-01    2.310000e+00
   N6r TC3eq  1 3.950000e-01    2.310000e+00
   N6r TC4eq  1 3.950000e-01    2.500000e+00
   N6r TC5eq  1 3.950000e-01    2.700000e+00
   N6r TC6eq  1 3.950000e-01    2.940000e+00
   N6r TX1vq  1 3.950000e-01    2.310000e+00
   N6r TX2vq  1 3.950000e-01    2.500000e+00
   N6r TX3vq  1 3.950000e-01    2.700000e+00
   N6r TX4vq  1 3.950000e-01    2.940000e+00
   N6r TC1vq  1 3.950000e-01    2.110000e+00
   N6r TC2vq  1 3.950000e-01    2.310000e+00
   N6r TC3vq  1 3.950000e-01    2.310000e+00
   N6r TC4vq  1 3.950000e-01    2.500000e+00
   N6r TC5vq  1 3.950000e-01    2.700000e+00
   N6r TC6vq  1 3.950000e-01    2.940000e+00
   N6r TN1aq  1 3.950000e-01    2.700000e+00
   N6r TN2aq  1 3.950000e-01    2.700000e+00
   N6r TN3aq  1 3.950000e-01    2.940000e+00
   N6r TN4aq  1 3.950000e-01    3.430000e+00
   N6r TN5aq  1 3.950000e-01    3.430000e+00
   N6r TN6aq  1 3.950000e-01    3.430000e+00
  P1aq  TN6r  1 3.950000e-01    3.430000e+00
  P2aq  TN6r  1 3.950000e-01    3.430000e+00
  P3aq  TN6r  1 3.950000e-01    3.190000e+00
  P4aq  TN6r  1 3.950000e-01    3.190000e+00
  P5aq  TN6r  1 3.950000e-01    3.190000e+00
  P6aq  TN6r  1 3.950000e-01    3.430000e+00
   N6r TN1dq  1 3.950000e-01    2.700000e+00
   N6r TN2dq  1 3.950000e-01    2.700000e+00
   N6r TN3dq  1 3.950000e-01    2.940000e+00
   N6r TN4dq  1 3.950000e-01    3.430000e+00
   N6r TN5dq  1 3.950000e-01    3.430000e+00
   N6r TN6dq  1 3.950000e-01    3.430000e+00
  P1dq  TN6r  1 3.950000e-01    3.430000e+00
  P2dq  TN6r  1 3.950000e-01    3.430000e+00
  P3dq  TN6r  1 3.950000e-01    3.190000e+00
  P4dq  TN6r  1 3.950000e-01    3.190000e+00
  P5dq  TN6r  1 3.950000e-01    3.190000e+00
  P6dq  TN6r  1 3.950000e-01    3.430000e+00
   N6r  TX1q  1 3.950000e-01    2.110000e+00
   N6r  TX2q  1 3.950000e-01    2.310000e+00
   N6r  TX3q  1 3.950000e-01    2.500000e+00
   N6r  TX4q  1 3.950000e-01    2.700000e+00
   N6r  TC1q  1 3.950000e-01    1.850000e+00
   N6r  TC2q  1 3.950000e-01    2.110000e+00
   N6r  TC3q  1 3.950000e-01    2.110000e+00
   N6r  TC4q  1 3.950000e-01    2.310000e+00
   N6r  TC5q  1 3.950000e-01    2.500000e+00
   N6r  TC6q  1 3.950000e-01    2.700000e+00
   N6r  TN1q  1 3.950000e-01    2.700000e+00
   N6r  TN2q  1 3.950000e-01    2.700000e+00
   N6r  TN3q  1 3.950000e-01    2.940000e+00
   N6r  TN4q  1 3.950000e-01    3.430000e+00
   N6r  TN5q  1 3.950000e-01    3.430000e+00
   P6d  TN5r  1 3.950000e-01    2.500000e+00
   P5d  TN5r  1 3.950000e-01    2.500000e+00
   P4d  TN5r  1 3.950000e-01    2.500000e+00
   P3d  TN5r  1 3.950000e-01    2.500000e+00
   P2d  TN5r  1 3.950000e-01    2.700000e+00
   P1d  TN5r  1 3.950000e-01    2.700000e+00
   N6d  TN5r  1 3.950000e-01    2.940000e+00
   N5r  TN5d  1 3.950000e-01    2.700000e+00
   N5r  TN1d  1 3.950000e-01    2.310000e+00
   N5r  TN2d  1 3.950000e-01    2.500000e+00
   N5r  TN3d  1 3.950000e-01    2.500000e+00
   N5r  TN4d  1 3.950000e-01    2.700000e+00
   P6a  TN5r  1 3.950000e-01    2.500000e+00
   P5a  TN5r  1 3.950000e-01    2.500000e+00
   P4a  TN5r  1 3.950000e-01    2.500000e+00
   P3a  TN5r  1 3.950000e-01    2.500000e+00
   P2a  TN5r  1 3.950000e-01    2.700000e+00
   P1a  TN5r  1 3.950000e-01    2.700000e+00
   N6a  TN5r  1 3.950000e-01    2.940000e+00
   N5r  TN5a  1 3.950000e-01    2.700000e+00
   N5r  TN1a  1 3.950000e-01    2.310000e+00
   N5r  TN2a  1 3.950000e-01    2.500000e+00
   N5r  TN3a  1 3.950000e-01    2.500000e+00
   N5r  TN4a  1 3.950000e-01    2.700000e+00
   N5r  TC6v  1 3.950000e-01    2.500000e+00
   N5r  TC5v  1 3.950000e-01    2.310000e+00
   N5r  TC4v  1 3.950000e-01    2.110000e+00
   N5r  TC3v  1 3.950000e-01    2.110000e+00
   N5r  TC2v  1 3.950000e-01    1.850000e+00
   N5r  TC1v  1 3.950000e-01    1.670000e+00
   N5r  TX4v  1 3.950000e-01    2.700000e+00
   N5r  TX3v  1 3.950000e-01    2.500000e+00
   N5r  TX2v  1 3.950000e-01    2.310000e+00
   N5r  TX1v  1 3.950000e-01    2.110000e+00
   N5r  TC6e  1 3.950000e-01    2.500000e+00
   N5r  TC5e  1 3.950000e-01    2.310000e+00
   N5r  TC4e  1 3.950000e-01    2.110000e+00
   N5r  TC3e  1 3.950000e-01    2.110000e+00
   N5r  TC2e  1 3.950000e-01    1.850000e+00
   N5r  TC1e  1 3.950000e-01    1.670000e+00
   N5r  TX4e  1 3.950000e-01    2.700000e+00
   N5r  TX3e  1 3.950000e-01    2.500000e+00
   N5r  TX2e  1 3.950000e-01    2.310000e+00
   N5r  TX1e  1 3.950000e-01    2.110000e+00
   P6q  TN5r  1 3.950000e-01    2.940000e+00
   P5q  TN5r  1 3.950000e-01    2.940000e+00
   P4q  TN5r  1 3.950000e-01    2.940000e+00
   P3q  TN5r  1 3.950000e-01    2.940000e+00
   P2q  TN5r  1 3.950000e-01    3.190000e+00
   P1q  TN5r  1 3.950000e-01    3.190000e+00
   N6q  TN5r  1 3.950000e-01    3.430000e+00
   N5r  TN5q  1 3.950000e-01    3.190000e+00
   N5r TX1eq  1 3.950000e-01    2.500000e+00
   N5r TX2eq  1 3.950000e-01    2.700000e+00
   N5r TX3eq  1 3.950000e-01    2.940000e+00
   N5r TX4eq  1 3.950000e-01    3.190000e+00
   N5r TC1eq  1 3.950000e-01    2.110000e+00
   N5r TC2eq  1 3.950000e-01    2.310000e+00
   N5r TC3eq  1 3.950000e-01    2.500000e+00
   N5r TC4eq  1 3.950000e-01    2.500000e+00
   N5r TC5eq  1 3.950000e-01    2.700000e+00
   N5r TC6eq  1 3.950000e-01    2.940000e+00
   N5r TX1vq  1 3.950000e-01    2.500000e+00
   N5r TX2vq  1 3.950000e-01    2.700000e+00
   N5r TX3vq  1 3.950000e-01    2.940000e+00
   N5r TX4vq  1 3.950000e-01    3.190000e+00
   N5r TC1vq  1 3.950000e-01    2.110000e+00
   N5r TC2vq  1 3.950000e-01    2.310000e+00
   N5r TC3vq  1 3.950000e-01    2.500000e+00
   N5r TC4vq  1 3.950000e-01    2.500000e+00
   N5r TC5vq  1 3.950000e-01    2.700000e+00
   N5r TC6vq  1 3.950000e-01    2.940000e+00
   N5r TN1aq  1 3.950000e-01    2.700000e+00
   N5r TN2aq  1 3.950000e-01    2.940000e+00
   N5r TN3aq  1 3.950000e-01    2.940000e+00
   N5r TN4aq  1 3.950000e-01    3.190000e+00
   N5r TN5aq  1 3.950000e-01    3.190000e+00
  N6aq  TN5r  1 3.950000e-01    3.430000e+00
  P1aq  TN5r  1 3.950000e-01    3.190000e+00
  P2aq  TN5r  1 3.950000e-01    3.190000e+00
  P3aq  TN5r  1 3.950000e-01    2.940000e+00
  P4aq  TN5r  1 3.950000e-01    2.940000e+00
  P5aq  TN5r  1 3.950000e-01    2.940000e+00
  P6aq  TN5r  1 3.950000e-01    2.940000e+00
   N5r TN1dq  1 3.950000e-01    2.700000e+00
   N5r TN2dq  1 3.950000e-01    2.940000e+00
   N5r TN3dq  1 3.950000e-01    2.940000e+00
   N5r TN4dq  1 3.950000e-01    3.190000e+00
   N5r TN5dq  1 3.950000e-01    3.190000e+00
  N6dq  TN5r  1 3.950000e-01    3.430000e+00
  P1dq  TN5r  1 3.950000e-01    3.190000e+00
  P2dq  TN5r  1 3.950000e-01    3.190000e+00
  P3dq  TN5r  1 3.950000e-01    2.940000e+00
  P4dq  TN5r  1 3.950000e-01    2.940000e+00
  P5dq  TN5r  1 3.950000e-01    2.940000e+00
  P6dq  TN5r  1 3.950000e-01    2.940000e+00
   N5r  TX1q  1 3.950000e-01    2.310000e+00
   N5r  TX2q  1 3.950000e-01    2.500000e+00
   N5r  TX3q  1 3.950000e-01    2.700000e+00
   N5r  TX4q  1 3.950000e-01    2.940000e+00
   N5r  TC1q  1 3.950000e-01    1.850000e+00
   N5r  TC2q  1 3.950000e-01    2.110000e+00
   N5r  TC3q  1 3.950000e-01    2.310000e+00
   N5r  TC4q  1 3.950000e-01    2.310000e+00
   N5r  TC5q  1 3.950000e-01    2.500000e+00
   N5r  TC6q  1 3.950000e-01    2.700000e+00
   N5r  TN1q  1 3.950000e-01    2.700000e+00
   N5r  TN2q  1 3.950000e-01    2.940000e+00
   N5r  TN3q  1 3.950000e-01    2.940000e+00
   N5r  TN4q  1 3.950000e-01    3.190000e+00
   P6d  TN4r  1 3.950000e-01    2.310000e+00
   P5d  TN4r  1 3.950000e-01    2.500000e+00
   P4d  TN4r  1 3.950000e-01    2.500000e+00
   P3d  TN4r  1 3.950000e-01    2.500000e+00
   P2d  TN4r  1 3.950000e-01    2.500000e+00
   P1d  TN4r  1 3.950000e-01    2.700000e+00
   N6d  TN4r  1 3.950000e-01    2.940000e+00
   N5d  TN4r  1 3.950000e-01    2.700000e+00
   N4r  TN4d  1 3.950000e-01    2.700000e+00
   N4r  TN1d  1 3.950000e-01    2.310000e+00
   N4r  TN2d  1 3.950000e-01    2.500000e+00
   N4r  TN3d  1 3.950000e-01    2.500000e+00
   P6a  TN4r  1 3.950000e-01    2.310000e+00
   P5a  TN4r  1 3.950000e-01    2.500000e+00
   P4a  TN4r  1 3.950000e-01    2.500000e+00
   P3a  TN4r  1 3.950000e-01    2.500000e+00
   P2a  TN4r  1 3.950000e-01    2.500000e+00
   P1a  TN4r  1 3.950000e-01    2.700000e+00
   N6a  TN4r  1 3.950000e-01    2.940000e+00
   N5a  TN4r  1 3.950000e-01    2.700000e+00
   N4r  TN4a  1 3.950000e-01    2.700000e+00
   N4r  TN1a  1 3.950000e-01    2.310000e+00
   N4r  TN2a  1 3.950000e-01    2.500000e+00
   N4r  TN3a  1 3.950000e-01    2.500000e+00
   N4r  TC6v  1 3.950000e-01    2.500000e+00
   N4r  TC5v  1 3.950000e-01    2.310000e+00
   N4r  TC4v  1 3.950000e-01    2.310000e+00
   N4r  TC3v  1 3.950000e-01    2.110000e+00
   N4r  TC2v  1 3.950000e-01    1.850000e+00
   N4r  TC1v  1 3.950000e-01    1.670000e+00
   N4r  TX4v  1 3.950000e-01    2.940000e+00
   N4r  TX3v  1 3.950000e-01    2.700000e+00
   N4r  TX2v  1 3.950000e-01    2.310000e+00
   N4r  TX1v  1 3.950000e-01    2.110000e+00
   N4r  TC6e  1 3.950000e-01    2.500000e+00
   N4r  TC5e  1 3.950000e-01    2.310000e+00
   N4r  TC4e  1 3.950000e-01    2.310000e+00
   N4r  TC3e  1 3.950000e-01    2.110000e+00
   N4r  TC2e  1 3.950000e-01    1.850000e+00
   N4r  TC1e  1 3.950000e-01    1.670000e+00
   N4r  TX4e  1 3.950000e-01    2.940000e+00
   N4r  TX3e  1 3.950000e-01    2.700000e+00
   N4r  TX2e  1 3.950000e-01    2.310000e+00
   N4r  TX1e  1 3.950000e-01    2.110000e+00
   P6q  TN4r  1 3.950000e-01    2.700000e+00
   P5q  TN4r  1 3.950000e-01    2.940000e+00
   P4q  TN4r  1 3.950000e-01    2.940000e+00
   P3q  TN4r  1 3.950000e-01    2.940000e+00
   P2q  TN4r  1 3.950000e-01    2.940000e+00
   P1q  TN4r  1 3.950000e-01    3.190000e+00
   N6q  TN4r  1 3.950000e-01    3.430000e+00
   N5q  TN4r  1 3.950000e-01    3.190000e+00
   N4r  TN4q  1 3.950000e-01    3.190000e+00
   N4r TX1eq  1 3.950000e-01    2.500000e+00
   N4r TX2eq  1 3.950000e-01    2.700000e+00
   N4r TX3eq  1 3.950000e-01    3.190000e+00
   N4r TX4eq  1 3.950000e-01    3.430000e+00
   N4r TC1eq  1 3.950000e-01    2.110000e+00
   N4r TC2eq  1 3.950000e-01    2.310000e+00
   N4r TC3eq  1 3.950000e-01    2.500000e+00
   N4r TC4eq  1 3.950000e-01    2.700000e+00
   N4r TC5eq  1 3.950000e-01    2.700000e+00
   N4r TC6eq  1 3.950000e-01    2.940000e+00
   N4r TX1vq  1 3.950000e-01    2.500000e+00
   N4r TX2vq  1 3.950000e-01    2.700000e+00
   N4r TX3vq  1 3.950000e-01    3.190000e+00
   N4r TX4vq  1 3.950000e-01    3.430000e+00
   N4r TC1vq  1 3.950000e-01    2.110000e+00
   N4r TC2vq  1 3.950000e-01    2.310000e+00
   N4r TC3vq  1 3.950000e-01    2.500000e+00
   N4r TC4vq  1 3.950000e-01    2.700000e+00
   N4r TC5vq  1 3.950000e-01    2.700000e+00
   N4r TC6vq  1 3.950000e-01    2.940000e+00
   N4r TN1aq  1 3.950000e-01    2.700000e+00
   N4r TN2aq  1 3.950000e-01    2.940000e+00
   N4r TN3aq  1 3.950000e-01    2.940000e+00
   N4r TN4aq  1 3.950000e-01    3.190000e+00
  N5aq  TN4r  1 3.950000e-01    3.190000e+00
  N6aq  TN4r  1 3.950000e-01    3.430000e+00
  P1aq  TN4r  1 3.950000e-01    3.190000e+00
  P2aq  TN4r  1 3.950000e-01    2.940000e+00
  P3aq  TN4r  1 3.950000e-01    2.940000e+00
  P4aq  TN4r  1 3.950000e-01    2.940000e+00
  P5aq  TN4r  1 3.950000e-01    2.940000e+00
  P6aq  TN4r  1 3.950000e-01    2.700000e+00
   N4r TN1dq  1 3.950000e-01    2.700000e+00
   N4r TN2dq  1 3.950000e-01    2.940000e+00
   N4r TN3dq  1 3.950000e-01    2.940000e+00
   N4r TN4dq  1 3.950000e-01    3.190000e+00
  N5dq  TN4r  1 3.950000e-01    3.190000e+00
  N6dq  TN4r  1 3.950000e-01    3.430000e+00
  P1dq  TN4r  1 3.950000e-01    3.190000e+00
  P2dq  TN4r  1 3.950000e-01    2.940000e+00
  P3dq  TN4r  1 3.950000e-01    2.940000e+00
  P4dq  TN4r  1 3.950000e-01    2.940000e+00
  P5dq  TN4r  1 3.950000e-01    2.940000e+00
  P6dq  TN4r  1 3.950000e-01    2.700000e+00
   N4r  TX1q  1 3.950000e-01    2.310000e+00
   N4r  TX2q  1 3.950000e-01    2.500000e+00
   N4r  TX3q  1 3.950000e-01    2.940000e+00
   N4r  TX4q  1 3.950000e-01    3.190000e+00
   N4r  TC1q  1 3.950000e-01    1.850000e+00
   N4r  TC2q  1 3.950000e-01    2.110000e+00
   N4r  TC3q  1 3.950000e-01    2.310000e+00
   N4r  TC4q  1 3.950000e-01    2.500000e+00
   N4r  TC5q  1 3.950000e-01    2.500000e+00
   N4r  TC6q  1 3.950000e-01    2.700000e+00
   N4r  TN1q  1 3.950000e-01    2.700000e+00
   N4r  TN2q  1 3.950000e-01    2.940000e+00
   N4r  TN3q  1 3.950000e-01    2.940000e+00
   P6d  TN3r  1 3.950000e-01    2.110000e+00
   P5d  TN3r  1 3.950000e-01    2.110000e+00
   P4d  TN3r  1 3.950000e-01    2.310000e+00
   P3d  TN3r  1 3.950000e-01    2.310000e+00
   P2d  TN3r  1 3.950000e-01    2.310000e+00
   P1d  TN3r  1 3.950000e-01    2.310000e+00
   N6d  TN3r  1 3.950000e-01    2.500000e+00
   N5d  TN3r  1 3.950000e-01    2.500000e+00
   N4d  TN3r  1 3.950000e-01    2.500000e+00
   N3r  TN3d  1 3.950000e-01    2.500000e+00
   N3r  TN1d  1 3.950000e-01    2.310000e+00
   N3r  TN2d  1 3.950000e-01    2.500000e+00
   P6a  TN3r  1 3.950000e-01    2.110000e+00
   P5a  TN3r  1 3.950000e-01    2.110000e+00
   P4a  TN3r  1 3.950000e-01    2.310000e+00
   P3a  TN3r  1 3.950000e-01    2.310000e+00
   P2a  TN3r  1 3.950000e-01    2.310000e+00
   P1a  TN3r  1 3.950000e-01    2.310000e+00
   N6a  TN3r  1 3.950000e-01    2.500000e+00
   N5a  TN3r  1 3.950000e-01    2.500000e+00
   N4a  TN3r  1 3.950000e-01    2.500000e+00
   N3r  TN3a  1 3.950000e-01    2.500000e+00
   N3r  TN1a  1 3.950000e-01    2.310000e+00
   N3r  TN2a  1 3.950000e-01    2.500000e+00
   N3r  TC6v  1 3.950000e-01    2.500000e+00
   N3r  TC5v  1 3.950000e-01    2.310000e+00
   N3r  TC4v  1 3.950000e-01    2.310000e+00
   N3r  TC3v  1 3.950000e-01    2.110000e+00
   N3r  TC2v  1 3.950000e-01    2.110000e+00
   N3r  TC1v  1 3.950000e-01    1.850000e+00
   N3r  TX4v  1 3.950000e-01    2.700000e+00
   N3r  TX3v  1 3.950000e-01    2.500000e+00
   N3r  TX2v  1 3.950000e-01    2.310000e+00
   N3r  TX1v  1 3.950000e-01    2.310000e+00
   N3r  TC6e  1 3.950000e-01    2.500000e+00
   N3r  TC5e  1 3.950000e-01    2.310000e+00
   N3r  TC4e  1 3.950000e-01    2.310000e+00
   N3r  TC3e  1 3.950000e-01    2.110000e+00
   N3r  TC2e  1 3.950000e-01    2.110000e+00
   N3r  TC1e  1 3.950000e-01    1.850000e+00
   N3r  TX4e  1 3.950000e-01    2.700000e+00
   N3r  TX3e  1 3.950000e-01    2.500000e+00
   N3r  TX2e  1 3.950000e-01    2.310000e+00
   N3r  TX1e  1 3.950000e-01    2.310000e+00
   P6q  TN3r  1 3.950000e-01    2.500000e+00
   P5q  TN3r  1 3.950000e-01    2.500000e+00
   P4q  TN3r  1 3.950000e-01    2.700000e+00
   P3q  TN3r  1 3.950000e-01    2.700000e+00
   P2q  TN3r  1 3.950000e-01    2.700000e+00
   P1q  TN3r  1 3.950000e-01    2.700000e+00
   N6q  TN3r  1 3.950000e-01    2.940000e+00
   N5q  TN3r  1 3.950000e-01    2.940000e+00
   N4q  TN3r  1 3.950000e-01    2.940000e+00
   N3r  TN3q  1 3.950000e-01    2.940000e+00
   N3r TX1eq  1 3.950000e-01    2.700000e+00
   N3r TX2eq  1 3.950000e-01    2.700000e+00
   N3r TX3eq  1 3.950000e-01    2.940000e+00
   N3r TX4eq  1 3.950000e-01    3.190000e+00
   N3r TC1eq  1 3.950000e-01    2.310000e+00
   N3r TC2eq  1 3.950000e-01    2.500000e+00
   N3r TC3eq  1 3.950000e-01    2.500000e+00
   N3r TC4eq  1 3.950000e-01    2.700000e+00
   N3r TC5eq  1 3.950000e-01    2.700000e+00
   N3r TC6eq  1 3.950000e-01    2.940000e+00
   N3r TX1vq  1 3.950000e-01    2.700000e+00
   N3r TX2vq  1 3.950000e-01    2.700000e+00
   N3r TX3vq  1 3.950000e-01    2.940000e+00
   N3r TX4vq  1 3.950000e-01    3.190000e+00
   N3r TC1vq  1 3.950000e-01    2.310000e+00
   N3r TC2vq  1 3.950000e-01    2.500000e+00
   N3r TC3vq  1 3.950000e-01    2.500000e+00
   N3r TC4vq  1 3.950000e-01    2.700000e+00
   N3r TC5vq  1 3.950000e-01    2.700000e+00
   N3r TC6vq  1 3.950000e-01    2.940000e+00
   N3r TN1aq  1 3.950000e-01    2.700000e+00
   N3r TN2aq  1 3.950000e-01    2.940000e+00
   N3r TN3aq  1 3.950000e-01    2.940000e+00
  N4aq  TN3r  1 3.950000e-01    2.940000e+00
  N5aq  TN3r  1 3.950000e-01    2.940000e+00
  N6aq  TN3r  1 3.950000e-01    2.940000e+00
  P1aq  TN3r  1 3.950000e-01    2.700000e+00
  P2aq  TN3r  1 3.950000e-01    2.700000e+00
  P3aq  TN3r  1 3.950000e-01    2.700000e+00
  P4aq  TN3r  1 3.950000e-01    2.700000e+00
  P5aq  TN3r  1 3.950000e-01    2.500000e+00
  P6aq  TN3r  1 3.950000e-01    2.500000e+00
   N3r TN1dq  1 3.950000e-01    2.700000e+00
   N3r TN2dq  1 3.950000e-01    2.940000e+00
   N3r TN3dq  1 3.950000e-01    2.940000e+00
  N4dq  TN3r  1 3.950000e-01    2.940000e+00
  N5dq  TN3r  1 3.950000e-01    2.940000e+00
  N6dq  TN3r  1 3.950000e-01    2.940000e+00
  P1dq  TN3r  1 3.950000e-01    2.700000e+00
  P2dq  TN3r  1 3.950000e-01    2.700000e+00
  P3dq  TN3r  1 3.950000e-01    2.700000e+00
  P4dq  TN3r  1 3.950000e-01    2.700000e+00
  P5dq  TN3r  1 3.950000e-01    2.500000e+00
  P6dq  TN3r  1 3.950000e-01    2.500000e+00
   N3r  TX1q  1 3.950000e-01    2.500000e+00
   N3r  TX2q  1 3.950000e-01    2.500000e+00
   N3r  TX3q  1 3.950000e-01    2.700000e+00
   N3r  TX4q  1 3.950000e-01    2.940000e+00
   N3r  TC1q  1 3.950000e-01    2.110000e+00
   N3r  TC2q  1 3.950000e-01    2.310000e+00
   N3r  TC3q  1 3.950000e-01    2.310000e+00
   N3r  TC4q  1 3.950000e-01    2.500000e+00
   N3r  TC5q  1 3.950000e-01    2.500000e+00
   N3r  TC6q  1 3.950000e-01    2.700000e+00
   N3r  TN1q  1 3.950000e-01    2.700000e+00
   N3r  TN2q  1 3.950000e-01    2.940000e+00
   P6d  TN2r  1 3.950000e-01    1.850000e+00
   P5d  TN2r  1 3.950000e-01    1.850000e+00
   P4d  TN2r  1 3.950000e-01    2.110000e+00
   P3d  TN2r  1 3.950000e-01    2.310000e+00
   P2d  TN2r  1 3.950000e-01    2.310000e+00
   P1d  TN2r  1 3.950000e-01    2.310000e+00
   N6d  TN2r  1 3.950000e-01    2.310000e+00
   N5d  TN2r  1 3.950000e-01    2.500000e+00
   N4d  TN2r  1 3.950000e-01    2.500000e+00
   N3d  TN2r  1 3.950000e-01    2.500000e+00
   N2r  TN2d  1 3.950000e-01    2.500000e+00
   N2r  TN1d  1 3.950000e-01    2.310000e+00
   P6a  TN2r  1 3.950000e-01    1.850000e+00
   P5a  TN2r  1 3.950000e-01    1.850000e+00
   P4a  TN2r  1 3.950000e-01    2.110000e+00
   P3a  TN2r  1 3.950000e-01    2.310000e+00
   P2a  TN2r  1 3.950000e-01    2.310000e+00
   P1a  TN2r  1 3.950000e-01    2.310000e+00
   N6a  TN2r  1 3.950000e-01    2.310000e+00
   N5a  TN2r  1 3.950000e-01    2.500000e+00
   N4a  TN2r  1 3.950000e-01    2.500000e+00
   N3a  TN2r  1 3.950000e-01    2.500000e+00
   N2r  TN2a  1 3.950000e-01    2.500000e+00
   N2r  TN1a  1 3.950000e-01    2.310000e+00
   N2r  TC6v  1 3.950000e-01    2.500000e+00
   N2r  TC5v  1 3.950000e-01    2.310000e+00
   N2r  TC4v  1 3.950000e-01    2.310000e+00
   N2r  TC3v  1 3.950000e-01    2.310000e+00
   N2r  TC2v  1 3.950000e-01    2.110000e+00
   N2r  TC1v  1 3.950000e-01    1.850000e+00
   N2r  TX4v  1 3.950000e-01    2.700000e+00
   N2r  TX3v  1 3.950000e-01    2.500000e+00
   N2r  TX2v  1 3.950000e-01    2.310000e+00
   N2r  TX1v  1 3.950000e-01    2.310000e+00
   N2r  TC6e  1 3.950000e-01    2.500000e+00
   N2r  TC5e  1 3.950000e-01    2.310000e+00
   N2r  TC4e  1 3.950000e-01    2.310000e+00
   N2r  TC3e  1 3.950000e-01    2.310000e+00
   N2r  TC2e  1 3.950000e-01    2.110000e+00
   N2r  TC1e  1 3.950000e-01    1.850000e+00
   N2r  TX4e  1 3.950000e-01    2.700000e+00
   N2r  TX3e  1 3.950000e-01    2.500000e+00
   N2r  TX2e  1 3.950000e-01    2.310000e+00
   N2r  TX1e  1 3.950000e-01    2.310000e+00
   P6q  TN2r  1 3.950000e-01    2.310000e+00
   P5q  TN2r  1 3.950000e-01    2.310000e+00
   P4q  TN2r  1 3.950000e-01    2.500000e+00
   P3q  TN2r  1 3.950000e-01    2.700000e+00
   P2q  TN2r  1 3.950000e-01    2.700000e+00
   P1q  TN2r  1 3.950000e-01    2.700000e+00
   N6q  TN2r  1 3.950000e-01    2.700000e+00
   N5q  TN2r  1 3.950000e-01    2.940000e+00
   N4q  TN2r  1 3.950000e-01    2.940000e+00
   N3q  TN2r  1 3.950000e-01    2.940000e+00
   N2r  TN2q  1 3.950000e-01    2.940000e+00
   N2r TX1eq  1 3.950000e-01    2.700000e+00
   N2r TX2eq  1 3.950000e-01    2.700000e+00
   N2r TX3eq  1 3.950000e-01    2.940000e+00
   N2r TX4eq  1 3.950000e-01    3.190000e+00
   N2r TC1eq  1 3.950000e-01    2.310000e+00
   N2r TC2eq  1 3.950000e-01    2.500000e+00
   N2r TC3eq  1 3.950000e-01    2.700000e+00
   N2r TC4eq  1 3.950000e-01    2.700000e+00
   N2r TC5eq  1 3.950000e-01    2.700000e+00
   N2r TC6eq  1 3.950000e-01    2.940000e+00
   N2r TX1vq  1 3.950000e-01    2.700000e+00
   N2r TX2vq  1 3.950000e-01    2.700000e+00
   N2r TX3vq  1 3.950000e-01    2.940000e+00
   N2r TX4vq  1 3.950000e-01    3.190000e+00
   N2r TC1vq  1 3.950000e-01    2.310000e+00
   N2r TC2vq  1 3.950000e-01    2.500000e+00
   N2r TC3vq  1 3.950000e-01    2.700000e+00
   N2r TC4vq  1 3.950000e-01    2.700000e+00
   N2r TC5vq  1 3.950000e-01    2.700000e+00
   N2r TC6vq  1 3.950000e-01    2.940000e+00
   N2r TN1aq  1 3.950000e-01    2.700000e+00
   N2r TN2aq  1 3.950000e-01    2.940000e+00
  N3aq  TN2r  1 3.950000e-01    2.940000e+00
  N4aq  TN2r  1 3.950000e-01    2.940000e+00
  N5aq  TN2r  1 3.950000e-01    2.940000e+00
  N6aq  TN2r  1 3.950000e-01    2.700000e+00
  P1aq  TN2r  1 3.950000e-01    2.700000e+00
  P2aq  TN2r  1 3.950000e-01    2.700000e+00
  P3aq  TN2r  1 3.950000e-01    2.700000e+00
  P4aq  TN2r  1 3.950000e-01    2.500000e+00
  P5aq  TN2r  1 3.950000e-01    2.310000e+00
  P6aq  TN2r  1 3.950000e-01    2.310000e+00
   N2r TN1dq  1 3.950000e-01    2.700000e+00
   N2r TN2dq  1 3.950000e-01    2.940000e+00
  N3dq  TN2r  1 3.950000e-01    2.940000e+00
  N4dq  TN2r  1 3.950000e-01    2.940000e+00
  N5dq  TN2r  1 3.950000e-01    2.940000e+00
  N6dq  TN2r  1 3.950000e-01    2.700000e+00
  P1dq  TN2r  1 3.950000e-01    2.700000e+00
  P2dq  TN2r  1 3.950000e-01    2.700000e+00
  P3dq  TN2r  1 3.950000e-01    2.700000e+00
  P4dq  TN2r  1 3.950000e-01    2.500000e+00
  P5dq  TN2r  1 3.950000e-01    2.310000e+00
  P6dq  TN2r  1 3.950000e-01    2.310000e+00
   N2r  TX1q  1 3.950000e-01    2.500000e+00
   N2r  TX2q  1 3.950000e-01    2.500000e+00
   N2r  TX3q  1 3.950000e-01    2.700000e+00
   N2r  TX4q  1 3.950000e-01    2.940000e+00
   N2r  TC1q  1 3.950000e-01    2.110000e+00
   N2r  TC2q  1 3.950000e-01    2.310000e+00
   N2r  TC3q  1 3.950000e-01    2.500000e+00
   N2r  TC4q  1 3.950000e-01    2.500000e+00
   N2r  TC5q  1 3.950000e-01    2.500000e+00
   N2r  TC6q  1 3.950000e-01    2.700000e+00
   N2r  TN1q  1 3.950000e-01    2.700000e+00
   P6d  TN1r  1 3.950000e-01    1.670000e+00
   P5d  TN1r  1 3.950000e-01    1.670000e+00
   P4d  TN1r  1 3.950000e-01    1.850000e+00
   P3d  TN1r  1 3.950000e-01    2.110000e+00
   P2d  TN1r  1 3.950000e-01    2.310000e+00
   P1d  TN1r  1 3.950000e-01    2.310000e+00
   N6d  TN1r  1 3.950000e-01    2.310000e+00
   N5d  TN1r  1 3.950000e-01    2.310000e+00
   N4d  TN1r  1 3.950000e-01    2.310000e+00
   N3d  TN1r  1 3.950000e-01    2.310000e+00
   N2d  TN1r  1 3.950000e-01    2.310000e+00
   N1r  TN1d  1 3.950000e-01    2.500000e+00
   P6a  TN1r  1 3.950000e-01    1.670000e+00
   P5a  TN1r  1 3.950000e-01    1.670000e+00
   P4a  TN1r  1 3.950000e-01    1.850000e+00
   P3a  TN1r  1 3.950000e-01    2.110000e+00
   P2a  TN1r  1 3.950000e-01    2.310000e+00
   P1a  TN1r  1 3.950000e-01    2.310000e+00
   N6a  TN1r  1 3.950000e-01    2.310000e+00
   N5a  TN1r  1 3.950000e-01    2.310000e+00
   N4a  TN1r  1 3.950000e-01    2.310000e+00
   N3a  TN1r  1 3.950000e-01    2.310000e+00
   N2a  TN1r  1 3.950000e-01    2.310000e+00
   N1r  TN1a  1 3.950000e-01    2.500000e+00
   N1r  TC6v  1 3.950000e-01    2.700000e+00
   N1r  TC5v  1 3.950000e-01    2.500000e+00
   N1r  TC4v  1 3.950000e-01    2.500000e+00
   N1r  TC3v  1 3.950000e-01    2.310000e+00
   N1r  TC2v  1 3.950000e-01    2.110000e+00
   N1r  TC1v  1 3.950000e-01    1.850000e+00
   N1r  TX4v  1 3.950000e-01    2.500000e+00
   N1r  TX3v  1 3.950000e-01    2.500000e+00
   N1r  TX2v  1 3.950000e-01    2.310000e+00
   N1r  TX1v  1 3.950000e-01    2.310000e+00
   N1r  TC6e  1 3.950000e-01    2.700000e+00
   N1r  TC5e  1 3.950000e-01    2.500000e+00
   N1r  TC4e  1 3.950000e-01    2.500000e+00
   N1r  TC3e  1 3.950000e-01    2.310000e+00
   N1r  TC2e  1 3.950000e-01    2.110000e+00
   N1r  TC1e  1 3.950000e-01    1.850000e+00
   N1r  TX4e  1 3.950000e-01    2.500000e+00
   N1r  TX3e  1 3.950000e-01    2.500000e+00
   N1r  TX2e  1 3.950000e-01    2.310000e+00
   N1r  TX1e  1 3.950000e-01    2.310000e+00
   P6q  TN1r  1 3.950000e-01    2.110000e+00
   P5q  TN1r  1 3.950000e-01    2.110000e+00
   P4q  TN1r  1 3.950000e-01    2.310000e+00
   P3q  TN1r  1 3.950000e-01    2.500000e+00
   P2q  TN1r  1 3.950000e-01    2.700000e+00
   P1q  TN1r  1 3.950000e-01    2.700000e+00
   N6q  TN1r  1 3.950000e-01    2.700000e+00
   N5q  TN1r  1 3.950000e-01    2.700000e+00
   N4q  TN1r  1 3.950000e-01    2.700000e+00
   N3q  TN1r  1 3.950000e-01    2.700000e+00
   N2q  TN1r  1 3.950000e-01    2.700000e+00
   N1r  TN1q  1 3.950000e-01    2.940000e+00
   N1r TX1eq  1 3.950000e-01    2.700000e+00
   N1r TX2eq  1 3.950000e-01    2.700000e+00
   N1r TX3eq  1 3.950000e-01    2.940000e+00
   N1r TX4eq  1 3.950000e-01    2.940000e+00
   N1r TC1eq  1 3.950000e-01    2.310000e+00
   N1r TC2eq  1 3.950000e-01    2.500000e+00
   N1r TC3eq  1 3.950000e-01    2.700000e+00
   N1r TC4eq  1 3.950000e-01    2.940000e+00
   N1r TC5eq  1 3.950000e-01    2.940000e+00
   N1r TC6eq  1 3.950000e-01    3.190000e+00
   N1r TX1vq  1 3.950000e-01    2.700000e+00
   N1r TX2vq  1 3.950000e-01    2.700000e+00
   N1r TX3vq  1 3.950000e-01    2.940000e+00
   N1r TX4vq  1 3.950000e-01    2.940000e+00
   N1r TC1vq  1 3.950000e-01    2.310000e+00
   N1r TC2vq  1 3.950000e-01    2.500000e+00
   N1r TC3vq  1 3.950000e-01    2.700000e+00
   N1r TC4vq  1 3.950000e-01    2.940000e+00
   N1r TC5vq  1 3.950000e-01    2.940000e+00
   N1r TC6vq  1 3.950000e-01    3.190000e+00
   N1r TN1aq  1 3.950000e-01    2.940000e+00
  N2aq  TN1r  1 3.950000e-01    2.700000e+00
  N3aq  TN1r  1 3.950000e-01    2.700000e+00
  N4aq  TN1r  1 3.950000e-01    2.700000e+00
  N5aq  TN1r  1 3.950000e-01    2.700000e+00
  N6aq  TN1r  1 3.950000e-01    2.700000e+00
  P1aq  TN1r  1 3.950000e-01    2.700000e+00
  P2aq  TN1r  1 3.950000e-01    2.700000e+00
  P3aq  TN1r  1 3.950000e-01    2.500000e+00
  P4aq  TN1r  1 3.950000e-01    2.310000e+00
  P5aq  TN1r  1 3.950000e-01    2.110000e+00
  P6aq  TN1r  1 3.950000e-01    2.110000e+00
   N1r TN1dq  1 3.950000e-01    2.940000e+00
  N2dq  TN1r  1 3.950000e-01    2.700000e+00
  N3dq  TN1r  1 3.950000e-01    2.700000e+00
  N4dq  TN1r  1 3.950000e-01    2.700000e+00
  N5dq  TN1r  1 3.950000e-01    2.700000e+00
  N6dq  TN1r  1 3.950000e-01    2.700000e+00
  P1dq  TN1r  1 3.950000e-01    2.700000e+00
  P2dq  TN1r  1 3.950000e-01    2.700000e+00
  P3dq  TN1r  1 3.950000e-01    2.500000e+00
  P4dq  TN1r  1 3.950000e-01    2.310000e+00
  P5dq  TN1r  1 3.950000e-01    2.110000e+00
  P6dq  TN1r  1 3.950000e-01    2.110000e+00
   N1r  TX1q  1 3.950000e-01    2.500000e+00
   N1r  TX2q  1 3.950000e-01    2.500000e+00
   N1r  TX3q  1 3.950000e-01    2.700000e+00
   N1r  TX4q  1 3.950000e-01    2.700000e+00
   N1r  TC1q  1 3.950000e-01    2.110000e+00
   N1r  TC2q  1 3.950000e-01    2.310000e+00
   N1r  TC3q  1 3.950000e-01    2.500000e+00
   N1r  TC4q  1 3.950000e-01    2.700000e+00
   N1r  TC5q  1 3.950000e-01    2.700000e+00
   N1r  TC6q  1 3.950000e-01    2.940000e+00
   P6d  TC6r  1 3.950000e-01    1.670000e+00
   P5d  TC6r  1 3.950000e-01    1.670000e+00
   P4d  TC6r  1 3.950000e-01    1.850000e+00
   P3d  TC6r  1 3.950000e-01    2.110000e+00
   P2d  TC6r  1 3.950000e-01    2.110000e+00
   P1d  TC6r  1 3.950000e-01    2.110000e+00
   N6d  TC6r  1 3.950000e-01    2.310000e+00
   N5d  TC6r  1 3.950000e-01    2.310000e+00
   N4d  TC6r  1 3.950000e-01    2.310000e+00
   N3d  TC6r  1 3.950000e-01    2.310000e+00
   N2d  TC6r  1 3.950000e-01    2.310000e+00
   N1d  TC6r  1 3.950000e-01    2.500000e+00
   P6a  TC6r  1 3.950000e-01    1.670000e+00
   P5a  TC6r  1 3.950000e-01    1.670000e+00
   P4a  TC6r  1 3.950000e-01    1.850000e+00
   P3a  TC6r  1 3.950000e-01    2.110000e+00
   P2a  TC6r  1 3.950000e-01    2.110000e+00
   P1a  TC6r  1 3.950000e-01    2.110000e+00
   N6a  TC6r  1 3.950000e-01    2.310000e+00
   N5a  TC6r  1 3.950000e-01    2.310000e+00
   N4a  TC6r  1 3.950000e-01    2.310000e+00
   N3a  TC6r  1 3.950000e-01    2.310000e+00
   N2a  TC6r  1 3.950000e-01    2.310000e+00
   N1a  TC6r  1 3.950000e-01    2.500000e+00
   C6r  TC6v  1 3.950000e-01    2.700000e+00
   C6r  TX1v  1 3.950000e-01    2.500000e+00
   C6r  TX2v  1 3.950000e-01    2.500000e+00
   C6r  TX3v  1 3.950000e-01    2.500000e+00
   C6r  TX4v  1 3.950000e-01    2.500000e+00
   C6r  TC1v  1 3.950000e-01    1.850000e+00
   C6r  TC2v  1 3.950000e-01    2.110000e+00
   C6r  TC3v  1 3.950000e-01    2.310000e+00
   C6r  TC4v  1 3.950000e-01    2.500000e+00
   C6r  TC5v  1 3.950000e-01    2.500000e+00
   C6r  TC6e  1 3.950000e-01    2.700000e+00
   C6r  TX1e  1 3.950000e-01    2.500000e+00
   C6r  TX2e  1 3.950000e-01    2.500000e+00
   C6r  TX3e  1 3.950000e-01    2.500000e+00
   C6r  TX4e  1 3.950000e-01    2.500000e+00
   C6r  TC1e  1 3.950000e-01    1.850000e+00
   C6r  TC2e  1 3.950000e-01    2.110000e+00
   C6r  TC3e  1 3.950000e-01    2.310000e+00
   C6r  TC4e  1 3.950000e-01    2.500000e+00
   C6r  TC5e  1 3.950000e-01    2.500000e+00
   P6q  TC6r  1 3.950000e-01    2.110000e+00
   P5q  TC6r  1 3.950000e-01    2.110000e+00
   P4q  TC6r  1 3.950000e-01    2.310000e+00
   P3q  TC6r  1 3.950000e-01    2.500000e+00
   P2q  TC6r  1 3.950000e-01    2.500000e+00
   P1q  TC6r  1 3.950000e-01    2.500000e+00
   N6q  TC6r  1 3.950000e-01    2.700000e+00
   N5q  TC6r  1 3.950000e-01    2.700000e+00
   N4q  TC6r  1 3.950000e-01    2.700000e+00
   N3q  TC6r  1 3.950000e-01    2.700000e+00
   N2q  TC6r  1 3.950000e-01    2.700000e+00
   N1q  TC6r  1 3.950000e-01    2.940000e+00
   C6r  TC6q  1 3.950000e-01    2.940000e+00
   C6r TX1eq  1 3.950000e-01    2.940000e+00
   C6r TX2eq  1 3.950000e-01    2.940000e+00
   C6r TX3eq  1 3.950000e-01    2.940000e+00
   C6r TX4eq  1 3.950000e-01    2.940000e+00
   C6r TC1eq  1 3.950000e-01    2.310000e+00
   C6r TC2eq  1 3.950000e-01    2.500000e+00
   C6r TC3eq  1 3.950000e-01    2.700000e+00
   C6r TC4eq  1 3.950000e-01    2.940000e+00
   C6r TC5eq  1 3.950000e-01    2.940000e+00
   C6r TC6eq  1 3.950000e-01    3.190000e+00
   C6r TX1vq  1 3.950000e-01    2.940000e+00
   C6r TX2vq  1 3.950000e-01    2.940000e+00
   C6r TX3vq  1 3.950000e-01    2.940000e+00
   C6r TX4vq  1 3.950000e-01    2.940000e+00
   C6r TC1vq  1 3.950000e-01    2.310000e+00
   C6r TC2vq  1 3.950000e-01    2.500000e+00
   C6r TC3vq  1 3.950000e-01    2.700000e+00
   C6r TC4vq  1 3.950000e-01    2.940000e+00
   C6r TC5vq  1 3.950000e-01    2.940000e+00
   C6r TC6vq  1 3.950000e-01    3.190000e+00
  N1aq  TC6r  1 3.950000e-01    2.940000e+00
  N2aq  TC6r  1 3.950000e-01    2.700000e+00
  N3aq  TC6r  1 3.950000e-01    2.700000e+00
  N4aq  TC6r  1 3.950000e-01    2.700000e+00
  N5aq  TC6r  1 3.950000e-01    2.700000e+00
  N6aq  TC6r  1 3.950000e-01    2.700000e+00
  P1aq  TC6r  1 3.950000e-01    2.500000e+00
  P2aq  TC6r  1 3.950000e-01    2.500000e+00
  P3aq  TC6r  1 3.950000e-01    2.500000e+00
  P4aq  TC6r  1 3.950000e-01    2.310000e+00
  P5aq  TC6r  1 3.950000e-01    2.110000e+00
  P6aq  TC6r  1 3.950000e-01    2.110000e+00
  N1dq  TC6r  1 3.950000e-01    2.940000e+00
  N2dq  TC6r  1 3.950000e-01    2.700000e+00
  N3dq  TC6r  1 3.950000e-01    2.700000e+00
  N4dq  TC6r  1 3.950000e-01    2.700000e+00
  N5dq  TC6r  1 3.950000e-01    2.700000e+00
  N6dq  TC6r  1 3.950000e-01    2.700000e+00
  P1dq  TC6r  1 3.950000e-01    2.500000e+00
  P2dq  TC6r  1 3.950000e-01    2.500000e+00
  P3dq  TC6r  1 3.950000e-01    2.500000e+00
  P4dq  TC6r  1 3.950000e-01    2.310000e+00
  P5dq  TC6r  1 3.950000e-01    2.110000e+00
  P6dq  TC6r  1 3.950000e-01    2.110000e+00
   C6r  TX1q  1 3.950000e-01    2.700000e+00
   C6r  TX2q  1 3.950000e-01    2.700000e+00
   C6r  TX3q  1 3.950000e-01    2.700000e+00
   C6r  TX4q  1 3.950000e-01    2.700000e+00
   C6r  TC1q  1 3.950000e-01    2.110000e+00
   C6r  TC2q  1 3.950000e-01    2.310000e+00
   C6r  TC3q  1 3.950000e-01    2.500000e+00
   C6r  TC4q  1 3.950000e-01    2.700000e+00
   C6r  TC5q  1 3.950000e-01    2.700000e+00
   P6d  TC5r  1 3.980000e-01    1.450000e+00
   P5d  TC5r  1 3.950000e-01    1.670000e+00
   P4d  TC5r  1 3.950000e-01    1.670000e+00
   P3d  TC5r  1 3.950000e-01    1.850000e+00
   P2d  TC5r  1 3.950000e-01    1.850000e+00
   P1d  TC5r  1 3.950000e-01    1.850000e+00
   N6d  TC5r  1 3.950000e-01    2.110000e+00
   N5d  TC5r  1 3.950000e-01    2.110000e+00
   N4d  TC5r  1 3.950000e-01    2.110000e+00
   N3d  TC5r  1 3.950000e-01    2.110000e+00
   N2d  TC5r  1 3.950000e-01    2.110000e+00
   N1d  TC5r  1 3.950000e-01    2.310000e+00
   P6a  TC5r  1 3.980000e-01    1.450000e+00
   P5a  TC5r  1 3.950000e-01    1.670000e+00
   P4a  TC5r  1 3.950000e-01    1.670000e+00
   P3a  TC5r  1 3.950000e-01    1.850000e+00
   P2a  TC5r  1 3.950000e-01    1.850000e+00
   P1a  TC5r  1 3.950000e-01    1.850000e+00
   N6a  TC5r  1 3.950000e-01    2.110000e+00
   N5a  TC5r  1 3.950000e-01    2.110000e+00
   N4a  TC5r  1 3.950000e-01    2.110000e+00
   N3a  TC5r  1 3.950000e-01    2.110000e+00
   N2a  TC5r  1 3.950000e-01    2.110000e+00
   N1a  TC5r  1 3.950000e-01    2.310000e+00
   C6v  TC5r  1 3.950000e-01    2.500000e+00
   C5r  TC5v  1 3.950000e-01    2.500000e+00
   C5r  TX1v  1 3.950000e-01    2.500000e+00
   C5r  TX2v  1 3.950000e-01    2.310000e+00
   C5r  TX3v  1 3.950000e-01    2.310000e+00
   C5r  TX4v  1 3.950000e-01    2.310000e+00
   C5r  TC1v  1 3.950000e-01    2.110000e+00
   C5r  TC2v  1 3.950000e-01    2.110000e+00
   C5r  TC3v  1 3.950000e-01    2.310000e+00
   C5r  TC4v  1 3.950000e-01    2.500000e+00
   C6e  TC5r  1 3.950000e-01    2.500000e+00
   C5r  TC5e  1 3.950000e-01    2.500000e+00
   C5r  TX1e  1 3.950000e-01    2.500000e+00
   C5r  TX2e  1 3.950000e-01    2.310000e+00
   C5r  TX3e  1 3.950000e-01    2.310000e+00
   C5r  TX4e  1 3.950000e-01    2.310000e+00
   C5r  TC1e  1 3.950000e-01    2.110000e+00
   C5r  TC2e  1 3.950000e-01    2.110000e+00
   C5r  TC3e  1 3.950000e-01    2.310000e+00
   C5r  TC4e  1 3.950000e-01    2.500000e+00
   P6q  TC5r  1 3.950000e-01    1.850000e+00
   P5q  TC5r  1 3.950000e-01    2.110000e+00
   P4q  TC5r  1 3.950000e-01    2.110000e+00
   P3q  TC5r  1 3.950000e-01    2.310000e+00
   P2q  TC5r  1 3.950000e-01    2.310000e+00
   P1q  TC5r  1 3.950000e-01    2.310000e+00
   N6q  TC5r  1 3.950000e-01    2.500000e+00
   N5q  TC5r  1 3.950000e-01    2.500000e+00
   N4q  TC5r  1 3.950000e-01    2.500000e+00
   N3q  TC5r  1 3.950000e-01    2.500000e+00
   N2q  TC5r  1 3.950000e-01    2.500000e+00
   N1q  TC5r  1 3.950000e-01    2.700000e+00
   C6q  TC5r  1 3.950000e-01    2.700000e+00
   C5r  TC5q  1 3.950000e-01    2.700000e+00
   C5r TX1eq  1 3.950000e-01    2.940000e+00
   C5r TX2eq  1 3.950000e-01    2.700000e+00
   C5r TX3eq  1 3.950000e-01    2.700000e+00
   C5r TX4eq  1 3.950000e-01    2.700000e+00
   C5r TC1eq  1 3.950000e-01    2.500000e+00
   C5r TC2eq  1 3.950000e-01    2.500000e+00
   C5r TC3eq  1 3.950000e-01    2.700000e+00
   C5r TC4eq  1 3.950000e-01    2.940000e+00
   C5r TC5eq  1 3.950000e-01    2.940000e+00
  C6eq  TC5r  1 3.950000e-01    2.940000e+00
   C5r TX1vq  1 3.950000e-01    2.940000e+00
   C5r TX2vq  1 3.950000e-01    2.700000e+00
   C5r TX3vq  1 3.950000e-01    2.700000e+00
   C5r TX4vq  1 3.950000e-01    2.700000e+00
   C5r TC1vq  1 3.950000e-01    2.500000e+00
   C5r TC2vq  1 3.950000e-01    2.500000e+00
   C5r TC3vq  1 3.950000e-01    2.700000e+00
   C5r TC4vq  1 3.950000e-01    2.940000e+00
   C5r TC5vq  1 3.950000e-01    2.940000e+00
  C6vq  TC5r  1 3.950000e-01    2.940000e+00
  N1aq  TC5r  1 3.950000e-01    2.700000e+00
  N2aq  TC5r  1 3.950000e-01    2.500000e+00
  N3aq  TC5r  1 3.950000e-01    2.500000e+00
  N4aq  TC5r  1 3.950000e-01    2.500000e+00
  N5aq  TC5r  1 3.950000e-01    2.500000e+00
  N6aq  TC5r  1 3.950000e-01    2.500000e+00
  P1aq  TC5r  1 3.950000e-01    2.310000e+00
  P2aq  TC5r  1 3.950000e-01    2.310000e+00
  P3aq  TC5r  1 3.950000e-01    2.310000e+00
  P4aq  TC5r  1 3.950000e-01    2.110000e+00
  P5aq  TC5r  1 3.950000e-01    2.110000e+00
  P6aq  TC5r  1 3.950000e-01    1.850000e+00
  N1dq  TC5r  1 3.950000e-01    2.700000e+00
  N2dq  TC5r  1 3.950000e-01    2.500000e+00
  N3dq  TC5r  1 3.950000e-01    2.500000e+00
  N4dq  TC5r  1 3.950000e-01    2.500000e+00
  N5dq  TC5r  1 3.950000e-01    2.500000e+00
  N6dq  TC5r  1 3.950000e-01    2.500000e+00
  P1dq  TC5r  1 3.950000e-01    2.310000e+00
  P2dq  TC5r  1 3.950000e-01    2.310000e+00
  P3dq  TC5r  1 3.950000e-01    2.310000e+00
  P4dq  TC5r  1 3.950000e-01    2.110000e+00
  P5dq  TC5r  1 3.950000e-01    2.110000e+00
  P6dq  TC5r  1 3.950000e-01    1.850000e+00
   C5r  TX1q  1 3.950000e-01    2.700000e+00
   C5r  TX2q  1 3.950000e-01    2.500000e+00
   C5r  TX3q  1 3.950000e-01    2.500000e+00
   C5r  TX4q  1 3.950000e-01    2.500000e+00
   C5r  TC1q  1 3.950000e-01    2.310000e+00
   C5r  TC2q  1 3.950000e-01    2.310000e+00
   C5r  TC3q  1 3.950000e-01    2.500000e+00
   C5r  TC4q  1 3.950000e-01    2.700000e+00
   P6d  TC4r  1 3.990000e-01    1.180000e+00
   P5d  TC4r  1 3.980000e-01    1.450000e+00
   P4d  TC4r  1 3.980000e-01    1.450000e+00
   P3d  TC4r  1 3.950000e-01    1.670000e+00
   P2d  TC4r  1 3.950000e-01    1.670000e+00
   P1d  TC4r  1 3.950000e-01    1.670000e+00
   N6d  TC4r  1 3.950000e-01    1.850000e+00
   N5d  TC4r  1 3.950000e-01    1.850000e+00
   N4d  TC4r  1 3.950000e-01    2.110000e+00
   N3d  TC4r  1 3.950000e-01    2.110000e+00
   N2d  TC4r  1 3.950000e-01    2.110000e+00
   N1d  TC4r  1 3.950000e-01    2.310000e+00
   P6a  TC4r  1 3.990000e-01    1.180000e+00
   P5a  TC4r  1 3.980000e-01    1.450000e+00
   P4a  TC4r  1 3.980000e-01    1.450000e+00
   P3a  TC4r  1 3.950000e-01    1.670000e+00
   P2a  TC4r  1 3.950000e-01    1.670000e+00
   P1a  TC4r  1 3.950000e-01    1.670000e+00
   N6a  TC4r  1 3.950000e-01    1.850000e+00
   N5a  TC4r  1 3.950000e-01    1.850000e+00
   N4a  TC4r  1 3.950000e-01    2.110000e+00
   N3a  TC4r  1 3.950000e-01    2.110000e+00
   N2a  TC4r  1 3.950000e-01    2.110000e+00
   N1a  TC4r  1 3.950000e-01    2.310000e+00
   C6v  TC4r  1 3.950000e-01    2.500000e+00
   C5v  TC4r  1 3.950000e-01    2.500000e+00
   C4r  TC4v  1 3.950000e-01    2.500000e+00
   C4r  TX1v  1 3.950000e-01    2.500000e+00
   C4r  TX2v  1 3.950000e-01    2.310000e+00
   C4r  TX3v  1 3.950000e-01    2.310000e+00
   C4r  TX4v  1 3.950000e-01    2.310000e+00
   C4r  TC1v  1 3.950000e-01    2.110000e+00
   C4r  TC2v  1 3.950000e-01    2.310000e+00
   C4r  TC3v  1 3.950000e-01    2.500000e+00
   C6e  TC4r  1 3.950000e-01    2.500000e+00
   C5e  TC4r  1 3.950000e-01    2.500000e+00
   C4r  TC4e  1 3.950000e-01    2.500000e+00
   C4r  TX1e  1 3.950000e-01    2.500000e+00
   C4r  TX2e  1 3.950000e-01    2.310000e+00
   C4r  TX3e  1 3.950000e-01    2.310000e+00
   C4r  TX4e  1 3.950000e-01    2.310000e+00
   C4r  TC1e  1 3.950000e-01    2.110000e+00
   C4r  TC2e  1 3.950000e-01    2.310000e+00
   C4r  TC3e  1 3.950000e-01    2.500000e+00
   P6q  TC4r  1 3.950000e-01    1.670000e+00
   P5q  TC4r  1 3.950000e-01    1.850000e+00
   P4q  TC4r  1 3.950000e-01    1.850000e+00
   P3q  TC4r  1 3.950000e-01    2.110000e+00
   P2q  TC4r  1 3.950000e-01    2.110000e+00
   P1q  TC4r  1 3.950000e-01    2.110000e+00
   N6q  TC4r  1 3.950000e-01    2.310000e+00
   N5q  TC4r  1 3.950000e-01    2.310000e+00
   N4q  TC4r  1 3.950000e-01    2.500000e+00
   N3q  TC4r  1 3.950000e-01    2.500000e+00
   N2q  TC4r  1 3.950000e-01    2.500000e+00
   N1q  TC4r  1 3.950000e-01    2.700000e+00
   C6q  TC4r  1 3.950000e-01    2.700000e+00
   C5q  TC4r  1 3.950000e-01    2.700000e+00
   C4r  TC4q  1 3.950000e-01    2.700000e+00
   C4r TX1eq  1 3.950000e-01    2.940000e+00
   C4r TX2eq  1 3.950000e-01    2.700000e+00
   C4r TX3eq  1 3.950000e-01    2.700000e+00
   C4r TX4eq  1 3.950000e-01    2.700000e+00
   C4r TC1eq  1 3.950000e-01    2.500000e+00
   C4r TC2eq  1 3.950000e-01    2.700000e+00
   C4r TC3eq  1 3.950000e-01    2.940000e+00
   C4r TC4eq  1 3.950000e-01    2.940000e+00
  C5eq  TC4r  1 3.950000e-01    2.940000e+00
  C6eq  TC4r  1 3.950000e-01    2.940000e+00
   C4r TX1vq  1 3.950000e-01    2.940000e+00
   C4r TX2vq  1 3.950000e-01    2.700000e+00
   C4r TX3vq  1 3.950000e-01    2.700000e+00
   C4r TX4vq  1 3.950000e-01    2.700000e+00
   C4r TC1vq  1 3.950000e-01    2.500000e+00
   C4r TC2vq  1 3.950000e-01    2.700000e+00
   C4r TC3vq  1 3.950000e-01    2.940000e+00
   C4r TC4vq  1 3.950000e-01    2.940000e+00
  C5vq  TC4r  1 3.950000e-01    2.940000e+00
  C6vq  TC4r  1 3.950000e-01    2.940000e+00
  N1aq  TC4r  1 3.950000e-01    2.700000e+00
  N2aq  TC4r  1 3.950000e-01    2.500000e+00
  N3aq  TC4r  1 3.950000e-01    2.500000e+00
  N4aq  TC4r  1 3.950000e-01    2.500000e+00
  N5aq  TC4r  1 3.950000e-01    2.310000e+00
  N6aq  TC4r  1 3.950000e-01    2.310000e+00
  P1aq  TC4r  1 3.950000e-01    2.110000e+00
  P2aq  TC4r  1 3.950000e-01    2.110000e+00
  P3aq  TC4r  1 3.950000e-01    2.110000e+00
  P4aq  TC4r  1 3.950000e-01    1.850000e+00
  P5aq  TC4r  1 3.950000e-01    1.850000e+00
  P6aq  TC4r  1 3.950000e-01    1.670000e+00
  N1dq  TC4r  1 3.950000e-01    2.700000e+00
  N2dq  TC4r  1 3.950000e-01    2.500000e+00
  N3dq  TC4r  1 3.950000e-01    2.500000e+00
  N4dq  TC4r  1 3.950000e-01    2.500000e+00
  N5dq  TC4r  1 3.950000e-01    2.310000e+00
  N6dq  TC4r  1 3.950000e-01    2.310000e+00
  P1dq  TC4r  1 3.950000e-01    2.110000e+00
  P2dq  TC4r  1 3.950000e-01    2.110000e+00
  P3dq  TC4r  1 3.950000e-01    2.110000e+00
  P4dq  TC4r  1 3.950000e-01    1.850000e+00
  P5dq  TC4r  1 3.950000e-01    1.850000e+00
  P6dq  TC4r  1 3.950000e-01    1.670000e+00
   C4r  TX1q  1 3.950000e-01    2.700000e+00
   C4r  TX2q  1 3.950000e-01    2.500000e+00
   C4r  TX3q  1 3.950000e-01    2.500000e+00
   C4r  TX4q  1 3.950000e-01    2.500000e+00
   C4r  TC1q  1 3.950000e-01    2.310000e+00
   C4r  TC2q  1 3.950000e-01    2.500000e+00
   C4r  TC3q  1 3.950000e-01    2.700000e+00
   P6d  TC3r  1 4.010000e-01    9.830000e-01
   P5d  TC3r  1 3.990000e-01    1.180000e+00
   P4d  TC3r  1 3.990000e-01    1.180000e+00
   P3d  TC3r  1 3.990000e-01    1.180000e+00
   P2d  TC3r  1 3.980000e-01    1.450000e+00
   P1d  TC3r  1 3.980000e-01    1.450000e+00
   N6d  TC3r  1 3.950000e-01    1.670000e+00
   N5d  TC3r  1 3.950000e-01    1.850000e+00
   N4d  TC3r  1 3.950000e-01    1.850000e+00
   N3d  TC3r  1 3.950000e-01    1.850000e+00
   N2d  TC3r  1 3.950000e-01    2.110000e+00
   N1d  TC3r  1 3.950000e-01    2.110000e+00
   P6a  TC3r  1 4.010000e-01    9.830000e-01
   P5a  TC3r  1 3.990000e-01    1.180000e+00
   P4a  TC3r  1 3.990000e-01    1.180000e+00
   P3a  TC3r  1 3.990000e-01    1.180000e+00
   P2a  TC3r  1 3.980000e-01    1.450000e+00
   P1a  TC3r  1 3.980000e-01    1.450000e+00
   N6a  TC3r  1 3.950000e-01    1.670000e+00
   N5a  TC3r  1 3.950000e-01    1.850000e+00
   N4a  TC3r  1 3.950000e-01    1.850000e+00
   N3a  TC3r  1 3.950000e-01    1.850000e+00
   N2a  TC3r  1 3.950000e-01    2.110000e+00
   N1a  TC3r  1 3.950000e-01    2.110000e+00
   C6v  TC3r  1 3.950000e-01    2.310000e+00
   C5v  TC3r  1 3.950000e-01    2.310000e+00
   C4v  TC3r  1 3.950000e-01    2.500000e+00
   C3r  TC3v  1 3.950000e-01    2.500000e+00
   C3r  TX1v  1 3.950000e-01    2.500000e+00
   C3r  TX2v  1 3.950000e-01    2.310000e+00
   C3r  TX3v  1 3.950000e-01    2.310000e+00
   C3r  TX4v  1 3.950000e-01    2.310000e+00
   C3r  TC1v  1 3.950000e-01    2.500000e+00
   C3r  TC2v  1 3.950000e-01    2.500000e+00
   C6e  TC3r  1 3.950000e-01    2.310000e+00
   C5e  TC3r  1 3.950000e-01    2.310000e+00
   C4e  TC3r  1 3.950000e-01    2.500000e+00
   C3r  TC3e  1 3.950000e-01    2.500000e+00
   C3r  TX1e  1 3.950000e-01    2.500000e+00
   C3r  TX2e  1 3.950000e-01    2.310000e+00
   C3r  TX3e  1 3.950000e-01    2.310000e+00
   C3r  TX4e  1 3.950000e-01    2.310000e+00
   C3r  TC1e  1 3.950000e-01    2.500000e+00
   C3r  TC2e  1 3.950000e-01    2.500000e+00
   P6q  TC3r  1 3.980000e-01    1.450000e+00
   P5q  TC3r  1 3.950000e-01    1.670000e+00
   P4q  TC3r  1 3.950000e-01    1.670000e+00
   P3q  TC3r  1 3.950000e-01    1.670000e+00
   P2q  TC3r  1 3.950000e-01    1.850000e+00
   P1q  TC3r  1 3.950000e-01    1.850000e+00
   N6q  TC3r  1 3.950000e-01    2.110000e+00
   N5q  TC3r  1 3.950000e-01    2.310000e+00
   N4q  TC3r  1 3.950000e-01    2.310000e+00
   N3q  TC3r  1 3.950000e-01    2.310000e+00
   N2q  TC3r  1 3.950000e-01    2.500000e+00
   N1q  TC3r  1 3.950000e-01    2.500000e+00
   C6q  TC3r  1 3.950000e-01    2.500000e+00
   C5q  TC3r  1 3.950000e-01    2.500000e+00
   C4q  TC3r  1 3.950000e-01    2.700000e+00
   C3r  TC3q  1 3.950000e-01    2.700000e+00
   C3r TX1eq  1 3.950000e-01    2.940000e+00
   C3r TX2eq  1 3.950000e-01    2.700000e+00
   C3r TX3eq  1 3.950000e-01    2.700000e+00
   C3r TX4eq  1 3.950000e-01    2.700000e+00
   C3r TC1eq  1 3.950000e-01    2.940000e+00
   C3r TC2eq  1 3.950000e-01    2.940000e+00
   C3r TC3eq  1 3.950000e-01    2.940000e+00
  C4eq  TC3r  1 3.950000e-01    2.940000e+00
  C5eq  TC3r  1 3.950000e-01    2.700000e+00
  C6eq  TC3r  1 3.950000e-01    2.700000e+00
   C3r TX1vq  1 3.950000e-01    2.940000e+00
   C3r TX2vq  1 3.950000e-01    2.700000e+00
   C3r TX3vq  1 3.950000e-01    2.700000e+00
   C3r TX4vq  1 3.950000e-01    2.700000e+00
   C3r TC1vq  1 3.950000e-01    2.940000e+00
   C3r TC2vq  1 3.950000e-01    2.940000e+00
   C3r TC3vq  1 3.950000e-01    2.940000e+00
  C4vq  TC3r  1 3.950000e-01    2.940000e+00
  C5vq  TC3r  1 3.950000e-01    2.700000e+00
  C6vq  TC3r  1 3.950000e-01    2.700000e+00
  N1aq  TC3r  1 3.950000e-01    2.500000e+00
  N2aq  TC3r  1 3.950000e-01    2.500000e+00
  N3aq  TC3r  1 3.950000e-01    2.310000e+00
  N4aq  TC3r  1 3.950000e-01    2.310000e+00
  N5aq  TC3r  1 3.950000e-01    2.310000e+00
  N6aq  TC3r  1 3.950000e-01    2.110000e+00
  P1aq  TC3r  1 3.950000e-01    1.850000e+00
  P2aq  TC3r  1 3.950000e-01    1.850000e+00
  P3aq  TC3r  1 3.950000e-01    1.670000e+00
  P4aq  TC3r  1 3.950000e-01    1.670000e+00
  P5aq  TC3r  1 3.950000e-01    1.670000e+00
  P6aq  TC3r  1 3.980000e-01    1.450000e+00
  N1dq  TC3r  1 3.950000e-01    2.500000e+00
  N2dq  TC3r  1 3.950000e-01    2.500000e+00
  N3dq  TC3r  1 3.950000e-01    2.310000e+00
  N4dq  TC3r  1 3.950000e-01    2.310000e+00
  N5dq  TC3r  1 3.950000e-01    2.310000e+00
  N6dq  TC3r  1 3.950000e-01    2.110000e+00
  P1dq  TC3r  1 3.950000e-01    1.850000e+00
  P2dq  TC3r  1 3.950000e-01    1.850000e+00
  P3dq  TC3r  1 3.950000e-01    1.670000e+00
  P4dq  TC3r  1 3.950000e-01    1.670000e+00
  P5dq  TC3r  1 3.950000e-01    1.670000e+00
  P6dq  TC3r  1 3.980000e-01    1.450000e+00
   C3r  TX1q  1 3.950000e-01    2.700000e+00
   C3r  TX2q  1 3.950000e-01    2.500000e+00
   C3r  TX3q  1 3.950000e-01    2.500000e+00
   C3r  TX4q  1 3.950000e-01    2.500000e+00
   C3r  TC1q  1 3.950000e-01    2.700000e+00
   C3r  TC2q  1 3.950000e-01    2.700000e+00
   P6d  TC2r  1 4.010000e-01    9.830000e-01
   P5d  TC2r  1 3.990000e-01    1.180000e+00
   P4d  TC2r  1 3.990000e-01    1.180000e+00
   P3d  TC2r  1 3.990000e-01    1.180000e+00
   P2d  TC2r  1 3.980000e-01    1.450000e+00
   P1d  TC2r  1 3.980000e-01    1.450000e+00
   N6d  TC2r  1 3.950000e-01    1.670000e+00
   N5d  TC2r  1 3.950000e-01    1.670000e+00
   N4d  TC2r  1 3.950000e-01    1.670000e+00
   N3d  TC2r  1 3.950000e-01    1.850000e+00
   N2d  TC2r  1 3.950000e-01    1.850000e+00
   N1d  TC2r  1 3.950000e-01    1.850000e+00
   P6a  TC2r  1 4.010000e-01    9.830000e-01
   P5a  TC2r  1 3.990000e-01    1.180000e+00
   P4a  TC2r  1 3.990000e-01    1.180000e+00
   P3a  TC2r  1 3.990000e-01    1.180000e+00
   P2a  TC2r  1 3.980000e-01    1.450000e+00
   P1a  TC2r  1 3.980000e-01    1.450000e+00
   N6a  TC2r  1 3.950000e-01    1.670000e+00
   N5a  TC2r  1 3.950000e-01    1.670000e+00
   N4a  TC2r  1 3.950000e-01    1.670000e+00
   N3a  TC2r  1 3.950000e-01    1.850000e+00
   N2a  TC2r  1 3.950000e-01    1.850000e+00
   N1a  TC2r  1 3.950000e-01    1.850000e+00
   C6v  TC2r  1 3.950000e-01    2.110000e+00
   C5v  TC2r  1 3.950000e-01    2.110000e+00
   C4v  TC2r  1 3.950000e-01    2.310000e+00
   C3v  TC2r  1 3.950000e-01    2.500000e+00
   C2r  TC2v  1 3.950000e-01    2.500000e+00
   C2r  TX1v  1 3.950000e-01    2.310000e+00
   C2r  TX2v  1 3.950000e-01    2.310000e+00
   C2r  TX3v  1 3.950000e-01    2.310000e+00
   C2r  TX4v  1 3.950000e-01    1.850000e+00
   C2r  TC1v  1 3.950000e-01    2.700000e+00
   C6e  TC2r  1 3.950000e-01    2.110000e+00
   C5e  TC2r  1 3.950000e-01    2.110000e+00
   C4e  TC2r  1 3.950000e-01    2.310000e+00
   C3e  TC2r  1 3.950000e-01    2.500000e+00
   C2r  TC2e  1 3.950000e-01    2.500000e+00
   C2r  TX1e  1 3.950000e-01    2.310000e+00
   C2r  TX2e  1 3.950000e-01    2.310000e+00
   C2r  TX3e  1 3.950000e-01    2.310000e+00
   C2r  TX4e  1 3.950000e-01    1.850000e+00
   C2r  TC1e  1 3.950000e-01    2.700000e+00
   P6q  TC2r  1 3.980000e-01    1.450000e+00
   P5q  TC2r  1 3.950000e-01    1.670000e+00
   P4q  TC2r  1 3.950000e-01    1.670000e+00
   P3q  TC2r  1 3.950000e-01    1.670000e+00
   P2q  TC2r  1 3.950000e-01    1.850000e+00
   P1q  TC2r  1 3.950000e-01    1.850000e+00
   N6q  TC2r  1 3.950000e-01    2.110000e+00
   N5q  TC2r  1 3.950000e-01    2.110000e+00
   N4q  TC2r  1 3.950000e-01    2.110000e+00
   N3q  TC2r  1 3.950000e-01    2.310000e+00
   N2q  TC2r  1 3.950000e-01    2.310000e+00
   N1q  TC2r  1 3.950000e-01    2.310000e+00
   C6q  TC2r  1 3.950000e-01    2.310000e+00
   C5q  TC2r  1 3.950000e-01    2.310000e+00
   C4q  TC2r  1 3.950000e-01    2.500000e+00
   C3q  TC2r  1 3.950000e-01    2.700000e+00
   C2r  TC2q  1 3.950000e-01    2.700000e+00
   C2r TX1eq  1 3.950000e-01    2.700000e+00
   C2r TX2eq  1 3.950000e-01    2.700000e+00
   C2r TX3eq  1 3.950000e-01    2.700000e+00
   C2r TX4eq  1 3.950000e-01    2.310000e+00
   C2r TC1eq  1 3.950000e-01    3.190000e+00
   C2r TC2eq  1 3.950000e-01    2.940000e+00
  C3eq  TC2r  1 3.950000e-01    2.940000e+00
  C4eq  TC2r  1 3.950000e-01    2.700000e+00
  C5eq  TC2r  1 3.950000e-01    2.500000e+00
  C6eq  TC2r  1 3.950000e-01    2.500000e+00
   C2r TX1vq  1 3.950000e-01    2.700000e+00
   C2r TX2vq  1 3.950000e-01    2.700000e+00
   C2r TX3vq  1 3.950000e-01    2.700000e+00
   C2r TX4vq  1 3.950000e-01    2.310000e+00
   C2r TC1vq  1 3.950000e-01    3.190000e+00
   C2r TC2vq  1 3.950000e-01    2.940000e+00
  C3vq  TC2r  1 3.950000e-01    2.940000e+00
  C4vq  TC2r  1 3.950000e-01    2.700000e+00
  C5vq  TC2r  1 3.950000e-01    2.500000e+00
  C6vq  TC2r  1 3.950000e-01    2.500000e+00
  N1aq  TC2r  1 3.950000e-01    2.310000e+00
  N2aq  TC2r  1 3.950000e-01    2.310000e+00
  N3aq  TC2r  1 3.950000e-01    2.310000e+00
  N4aq  TC2r  1 3.950000e-01    2.110000e+00
  N5aq  TC2r  1 3.950000e-01    2.110000e+00
  N6aq  TC2r  1 3.950000e-01    2.110000e+00
  P1aq  TC2r  1 3.950000e-01    1.850000e+00
  P2aq  TC2r  1 3.950000e-01    1.850000e+00
  P3aq  TC2r  1 3.950000e-01    1.670000e+00
  P4aq  TC2r  1 3.950000e-01    1.670000e+00
  P5aq  TC2r  1 3.950000e-01    1.670000e+00
  P6aq  TC2r  1 3.980000e-01    1.450000e+00
  N1dq  TC2r  1 3.950000e-01    2.310000e+00
  N2dq  TC2r  1 3.950000e-01    2.310000e+00
  N3dq  TC2r  1 3.950000e-01    2.310000e+00
  N4dq  TC2r  1 3.950000e-01    2.110000e+00
  N5dq  TC2r  1 3.950000e-01    2.110000e+00
  N6dq  TC2r  1 3.950000e-01    2.110000e+00
  P1dq  TC2r  1 3.950000e-01    1.850000e+00
  P2dq  TC2r  1 3.950000e-01    1.850000e+00
  P3dq  TC2r  1 3.950000e-01    1.670000e+00
  P4dq  TC2r  1 3.950000e-01    1.670000e+00
  P5dq  TC2r  1 3.950000e-01    1.670000e+00
  P6dq  TC2r  1 3.980000e-01    1.450000e+00
   C2r  TX1q  1 3.950000e-01    2.500000e+00
   C2r  TX2q  1 3.950000e-01    2.500000e+00
   C2r  TX3q  1 3.950000e-01    2.500000e+00
   C2r  TX4q  1 3.950000e-01    2.110000e+00
   C2r  TC1q  1 3.950000e-01    2.940000e+00
   P6d  TC1r  1 4.650000e-01    7.030000e-01
   P5d  TC1r  1 4.010000e-01    9.830000e-01
   P4d  TC1r  1 4.010000e-01    9.830000e-01
   P3d  TC1r  1 4.010000e-01    9.830000e-01
   P2d  TC1r  1 3.990000e-01    1.180000e+00
   P1d  TC1r  1 3.990000e-01    1.180000e+00
   N6d  TC1r  1 3.980000e-01    1.450000e+00
   N5d  TC1r  1 3.980000e-01    1.450000e+00
   N4d  TC1r  1 3.980000e-01    1.450000e+00
   N3d  TC1r  1 3.950000e-01    1.670000e+00
   N2d  TC1r  1 3.950000e-01    1.670000e+00
   N1d  TC1r  1 3.950000e-01    1.670000e+00
   P6a  TC1r  1 4.650000e-01    7.030000e-01
   P5a  TC1r  1 4.010000e-01    9.830000e-01
   P4a  TC1r  1 4.010000e-01    9.830000e-01
   P3a  TC1r  1 4.010000e-01    9.830000e-01
   P2a  TC1r  1 3.990000e-01    1.180000e+00
   P1a  TC1r  1 3.990000e-01    1.180000e+00
   N6a  TC1r  1 3.980000e-01    1.450000e+00
   N5a  TC1r  1 3.980000e-01    1.450000e+00
   N4a  TC1r  1 3.980000e-01    1.450000e+00
   N3a  TC1r  1 3.950000e-01    1.670000e+00
   N2a  TC1r  1 3.950000e-01    1.670000e+00
   N1a  TC1r  1 3.950000e-01    1.670000e+00
   C6v  TC1r  1 3.950000e-01    1.850000e+00
   C5v  TC1r  1 3.950000e-01    2.110000e+00
   C4v  TC1r  1 3.950000e-01    2.110000e+00
   C3v  TC1r  1 3.950000e-01    2.500000e+00
   C2v  TC1r  1 3.950000e-01    2.700000e+00
   C1r  TC1v  1 3.950000e-01    2.500000e+00
   C1r  TX1v  1 3.950000e-01    2.310000e+00
   C1r  TX2v  1 3.950000e-01    2.310000e+00
   C1r  TX3v  1 3.950000e-01    2.310000e+00
   C1r  TX4v  1 3.950000e-01    1.850000e+00
   C6e  TC1r  1 3.950000e-01    1.850000e+00
   C5e  TC1r  1 3.950000e-01    2.110000e+00
   C4e  TC1r  1 3.950000e-01    2.110000e+00
   C3e  TC1r  1 3.950000e-01    2.500000e+00
   C2e  TC1r  1 3.950000e-01    2.700000e+00
   C1r  TC1e  1 3.950000e-01    2.500000e+00
   C1r  TX1e  1 3.950000e-01    2.310000e+00
   C1r  TX2e  1 3.950000e-01    2.310000e+00
   C1r  TX3e  1 3.950000e-01    2.310000e+00
   C1r  TX4e  1 3.950000e-01    1.850000e+00
   P6q  TC1r  1 4.010000e-01    9.830000e-01
   P5q  TC1r  1 3.980000e-01    1.450000e+00
   P4q  TC1r  1 3.980000e-01    1.450000e+00
   P3q  TC1r  1 3.980000e-01    1.450000e+00
   P2q  TC1r  1 3.950000e-01    1.670000e+00
   P1q  TC1r  1 3.950000e-01    1.670000e+00
   N6q  TC1r  1 3.950000e-01    1.850000e+00
   N5q  TC1r  1 3.950000e-01    1.850000e+00
   N4q  TC1r  1 3.950000e-01    1.850000e+00
   N3q  TC1r  1 3.950000e-01    2.110000e+00
   N2q  TC1r  1 3.950000e-01    2.110000e+00
   N1q  TC1r  1 3.950000e-01    2.110000e+00
   C6q  TC1r  1 3.950000e-01    2.110000e+00
   C5q  TC1r  1 3.950000e-01    2.310000e+00
   C4q  TC1r  1 3.950000e-01    2.310000e+00
   C3q  TC1r  1 3.950000e-01    2.700000e+00
   C2q  TC1r  1 3.950000e-01    2.940000e+00
   C1r  TC1q  1 3.950000e-01    2.700000e+00
   C1r TX1eq  1 3.950000e-01    2.700000e+00
   C1r TX2eq  1 3.950000e-01    2.700000e+00
   C1r TX3eq  1 3.950000e-01    2.700000e+00
   C1r TX4eq  1 3.950000e-01    2.310000e+00
   C1r TC1eq  1 3.950000e-01    2.940000e+00
  C2eq  TC1r  1 3.950000e-01    3.190000e+00
  C3eq  TC1r  1 3.950000e-01    2.940000e+00
  C4eq  TC1r  1 3.950000e-01    2.500000e+00
  C5eq  TC1r  1 3.950000e-01    2.500000e+00
  C6eq  TC1r  1 3.950000e-01    2.310000e+00
   C1r TX1vq  1 3.950000e-01    2.700000e+00
   C1r TX2vq  1 3.950000e-01    2.700000e+00
   C1r TX3vq  1 3.950000e-01    2.700000e+00
   C1r TX4vq  1 3.950000e-01    2.310000e+00
   C1r TC1vq  1 3.950000e-01    2.940000e+00
  C2vq  TC1r  1 3.950000e-01    3.190000e+00
  C3vq  TC1r  1 3.950000e-01    2.940000e+00
  C4vq  TC1r  1 3.950000e-01    2.500000e+00
  C5vq  TC1r  1 3.950000e-01    2.500000e+00
  C6vq  TC1r  1 3.950000e-01    2.310000e+00
  N1aq  TC1r  1 3.950000e-01    2.110000e+00
  N2aq  TC1r  1 3.950000e-01    2.110000e+00
  N3aq  TC1r  1 3.950000e-01    2.110000e+00
  N4aq  TC1r  1 3.950000e-01    1.850000e+00
  N5aq  TC1r  1 3.950000e-01    1.850000e+00
  N6aq  TC1r  1 3.950000e-01    1.850000e+00
  P1aq  TC1r  1 3.950000e-01    1.670000e+00
  P2aq  TC1r  1 3.950000e-01    1.670000e+00
  P3aq  TC1r  1 3.980000e-01    1.450000e+00
  P4aq  TC1r  1 3.980000e-01    1.450000e+00
  P5aq  TC1r  1 3.980000e-01    1.450000e+00
  P6aq  TC1r  1 4.010000e-01    9.830000e-01
  N1dq  TC1r  1 3.950000e-01    2.110000e+00
  N2dq  TC1r  1 3.950000e-01    2.110000e+00
  N3dq  TC1r  1 3.950000e-01    2.110000e+00
  N4dq  TC1r  1 3.950000e-01    1.850000e+00
  N5dq  TC1r  1 3.950000e-01    1.850000e+00
  N6dq  TC1r  1 3.950000e-01    1.850000e+00
  P1dq  TC1r  1 3.950000e-01    1.670000e+00
  P2dq  TC1r  1 3.950000e-01    1.670000e+00
  P3dq  TC1r  1 3.980000e-01    1.450000e+00
  P4dq  TC1r  1 3.980000e-01    1.450000e+00
  P5dq  TC1r  1 3.980000e-01    1.450000e+00
  P6dq  TC1r  1 4.010000e-01    9.830000e-01
   C1r  TX1q  1 3.950000e-01    2.500000e+00
   C1r  TX2q  1 3.950000e-01    2.500000e+00
   C1r  TX3q  1 3.950000e-01    2.500000e+00
   C1r  TX4q  1 3.950000e-01    2.110000e+00
   P6d  TX4r  1 3.950000e-01    1.850000e+00
   P5d  TX4r  1 3.950000e-01    2.110000e+00
   P4d  TX4r  1 3.950000e-01    2.110000e+00
   P3d  TX4r  1 3.950000e-01    2.110000e+00
   P2d  TX4r  1 3.950000e-01    2.110000e+00
   P1d  TX4r  1 3.950000e-01    2.110000e+00
   N6d  TX4r  1 3.950000e-01    2.310000e+00
   N5d  TX4r  1 3.950000e-01    2.500000e+00
   N4d  TX4r  1 3.950000e-01    2.700000e+00
   N3d  TX4r  1 3.950000e-01    2.500000e+00
   N2d  TX4r  1 3.950000e-01    2.500000e+00
   N1d  TX4r  1 3.950000e-01    2.310000e+00
   P6a  TX4r  1 3.950000e-01    1.850000e+00
   P5a  TX4r  1 3.950000e-01    2.110000e+00
   P4a  TX4r  1 3.950000e-01    2.110000e+00
   P3a  TX4r  1 3.950000e-01    2.110000e+00
   P2a  TX4r  1 3.950000e-01    2.110000e+00
   P1a  TX4r  1 3.950000e-01    2.110000e+00
   N6a  TX4r  1 3.950000e-01    2.310000e+00
   N5a  TX4r  1 3.950000e-01    2.500000e+00
   N4a  TX4r  1 3.950000e-01    2.700000e+00
   N3a  TX4r  1 3.950000e-01    2.500000e+00
   N2a  TX4r  1 3.950000e-01    2.500000e+00
   N1a  TX4r  1 3.950000e-01    2.310000e+00
   C6v  TX4r  1 3.950000e-01    2.500000e+00
   C5v  TX4r  1 3.950000e-01    2.310000e+00
   C4v  TX4r  1 3.950000e-01    2.310000e+00
   C3v  TX4r  1 3.950000e-01    2.310000e+00
   C2v  TX4r  1 3.950000e-01    1.850000e+00
   C1v  TX4r  1 3.950000e-01    1.850000e+00
   X4r  TX4v  1 3.950000e-01    2.500000e+00
   X4r  TX1v  1 3.950000e-01    2.500000e+00
   X4r  TX2v  1 3.950000e-01    2.500000e+00
   X4r  TX3v  1 3.950000e-01    2.500000e+00
   C6e  TX4r  1 3.950000e-01    2.500000e+00
   C5e  TX4r  1 3.950000e-01    2.310000e+00
   C4e  TX4r  1 3.950000e-01    2.310000e+00
   C3e  TX4r  1 3.950000e-01    2.310000e+00
   C2e  TX4r  1 3.950000e-01    1.850000e+00
   C1e  TX4r  1 3.950000e-01    1.850000e+00
   X4r  TX4e  1 3.950000e-01    2.500000e+00
   X4r  TX1e  1 3.950000e-01    2.500000e+00
   X4r  TX2e  1 3.950000e-01    2.500000e+00
   X4r  TX3e  1 3.950000e-01    2.500000e+00
   P6q  TX4r  1 3.950000e-01    2.310000e+00
   P5q  TX4r  1 3.950000e-01    2.500000e+00
   P4q  TX4r  1 3.950000e-01    2.500000e+00
   P3q  TX4r  1 3.950000e-01    2.500000e+00
   P2q  TX4r  1 3.950000e-01    2.500000e+00
   P1q  TX4r  1 3.950000e-01    2.500000e+00
   N6q  TX4r  1 3.950000e-01    2.700000e+00
   N5q  TX4r  1 3.950000e-01    2.940000e+00
   N4q  TX4r  1 3.950000e-01    3.190000e+00
   N3q  TX4r  1 3.950000e-01    2.940000e+00
   N2q  TX4r  1 3.950000e-01    2.940000e+00
   N1q  TX4r  1 3.950000e-01    2.700000e+00
   C6q  TX4r  1 3.950000e-01    2.700000e+00
   C5q  TX4r  1 3.950000e-01    2.500000e+00
   C4q  TX4r  1 3.950000e-01    2.500000e+00
   C3q  TX4r  1 3.950000e-01    2.500000e+00
   C2q  TX4r  1 3.950000e-01    2.110000e+00
   C1q  TX4r  1 3.950000e-01    2.110000e+00
   X4r  TX4q  1 3.950000e-01    2.700000e+00
   X4r TX1eq  1 3.950000e-01    2.940000e+00
   X4r TX2eq  1 3.950000e-01    2.940000e+00
   X4r TX3eq  1 3.950000e-01    2.940000e+00
   X4r TX4eq  1 3.950000e-01    2.940000e+00
  C1eq  TX4r  1 3.950000e-01    2.310000e+00
  C2eq  TX4r  1 3.950000e-01    2.310000e+00
  C3eq  TX4r  1 3.950000e-01    2.700000e+00
  C4eq  TX4r  1 3.950000e-01    2.700000e+00
  C5eq  TX4r  1 3.950000e-01    2.700000e+00
  C6eq  TX4r  1 3.950000e-01    2.940000e+00
   X4r TX1vq  1 3.950000e-01    2.940000e+00
   X4r TX2vq  1 3.950000e-01    2.940000e+00
   X4r TX3vq  1 3.950000e-01    2.940000e+00
   X4r TX4vq  1 3.950000e-01    2.940000e+00
  C1vq  TX4r  1 3.950000e-01    2.310000e+00
  C2vq  TX4r  1 3.950000e-01    2.310000e+00
  C3vq  TX4r  1 3.950000e-01    2.700000e+00
  C4vq  TX4r  1 3.950000e-01    2.700000e+00
  C5vq  TX4r  1 3.950000e-01    2.700000e+00
  C6vq  TX4r  1 3.950000e-01    2.940000e+00
  N1aq  TX4r  1 3.950000e-01    2.700000e+00
  N2aq  TX4r  1 3.950000e-01    2.940000e+00
  N3aq  TX4r  1 3.950000e-01    2.940000e+00
  N4aq  TX4r  1 3.950000e-01    3.190000e+00
  N5aq  TX4r  1 3.950000e-01    2.940000e+00
  N6aq  TX4r  1 3.950000e-01    2.700000e+00
  P1aq  TX4r  1 3.950000e-01    2.500000e+00
  P2aq  TX4r  1 3.950000e-01    2.500000e+00
  P3aq  TX4r  1 3.950000e-01    2.500000e+00
  P4aq  TX4r  1 3.950000e-01    2.500000e+00
  P5aq  TX4r  1 3.950000e-01    2.500000e+00
  P6aq  TX4r  1 3.950000e-01    2.310000e+00
  N1dq  TX4r  1 3.950000e-01    2.700000e+00
  N2dq  TX4r  1 3.950000e-01    2.940000e+00
  N3dq  TX4r  1 3.950000e-01    2.940000e+00
  N4dq  TX4r  1 3.950000e-01    3.190000e+00
  N5dq  TX4r  1 3.950000e-01    2.940000e+00
  N6dq  TX4r  1 3.950000e-01    2.700000e+00
  P1dq  TX4r  1 3.950000e-01    2.500000e+00
  P2dq  TX4r  1 3.950000e-01    2.500000e+00
  P3dq  TX4r  1 3.950000e-01    2.500000e+00
  P4dq  TX4r  1 3.950000e-01    2.500000e+00
  P5dq  TX4r  1 3.950000e-01    2.500000e+00
  P6dq  TX4r  1 3.950000e-01    2.310000e+00
   X4r  TX1q  1 3.950000e-01    2.700000e+00
   X4r  TX2q  1 3.950000e-01    2.700000e+00
   X4r  TX3q  1 3.950000e-01    2.700000e+00
   P6d  TX3r  1 3.950000e-01    1.850000e+00
   P5d  TX3r  1 3.950000e-01    1.850000e+00
   P4d  TX3r  1 3.950000e-01    1.850000e+00
   P3d  TX3r  1 3.950000e-01    2.110000e+00
   P2d  TX3r  1 3.950000e-01    2.110000e+00
   P1d  TX3r  1 3.950000e-01    2.110000e+00
   N6d  TX3r  1 3.950000e-01    2.110000e+00
   N5d  TX3r  1 3.950000e-01    2.310000e+00
   N4d  TX3r  1 3.950000e-01    2.500000e+00
   N3d  TX3r  1 3.950000e-01    2.310000e+00
   N2d  TX3r  1 3.950000e-01    2.310000e+00
   N1d  TX3r  1 3.950000e-01    2.310000e+00
   P6a  TX3r  1 3.950000e-01    1.850000e+00
   P5a  TX3r  1 3.950000e-01    1.850000e+00
   P4a  TX3r  1 3.950000e-01    1.850000e+00
   P3a  TX3r  1 3.950000e-01    2.110000e+00
   P2a  TX3r  1 3.950000e-01    2.110000e+00
   P1a  TX3r  1 3.950000e-01    2.110000e+00
   N6a  TX3r  1 3.950000e-01    2.110000e+00
   N5a  TX3r  1 3.950000e-01    2.310000e+00
   N4a  TX3r  1 3.950000e-01    2.500000e+00
   N3a  TX3r  1 3.950000e-01    2.310000e+00
   N2a  TX3r  1 3.950000e-01    2.310000e+00
   N1a  TX3r  1 3.950000e-01    2.310000e+00
   C6v  TX3r  1 3.950000e-01    2.500000e+00
   C5v  TX3r  1 3.950000e-01    2.310000e+00
   C4v  TX3r  1 3.950000e-01    2.310000e+00
   C3v  TX3r  1 3.950000e-01    2.310000e+00
   C2v  TX3r  1 3.950000e-01    2.310000e+00
   C1v  TX3r  1 3.950000e-01    2.310000e+00
   X4v  TX3r  1 3.950000e-01    2.500000e+00
   X3r  TX3v  1 3.950000e-01    2.500000e+00
   X3r  TX1v  1 3.950000e-01    2.700000e+00
   X3r  TX2v  1 3.950000e-01    2.700000e+00
   C6e  TX3r  1 3.950000e-01    2.500000e+00
   C5e  TX3r  1 3.950000e-01    2.310000e+00
   C4e  TX3r  1 3.950000e-01    2.310000e+00
   C3e  TX3r  1 3.950000e-01    2.310000e+00
   C2e  TX3r  1 3.950000e-01    2.310000e+00
   C1e  TX3r  1 3.950000e-01    2.310000e+00
   X4e  TX3r  1 3.950000e-01    2.500000e+00
   X3r  TX3e  1 3.950000e-01    2.500000e+00
   X3r  TX1e  1 3.950000e-01    2.700000e+00
   X3r  TX2e  1 3.950000e-01    2.700000e+00
   P6q  TX3r  1 3.950000e-01    2.310000e+00
   P5q  TX3r  1 3.950000e-01    2.310000e+00
   P4q  TX3r  1 3.950000e-01    2.310000e+00
   P3q  TX3r  1 3.950000e-01    2.500000e+00
   P2q  TX3r  1 3.950000e-01    2.500000e+00
   P1q  TX3r  1 3.950000e-01    2.500000e+00
   N6q  TX3r  1 3.950000e-01    2.500000e+00
   N5q  TX3r  1 3.950000e-01    2.700000e+00
   N4q  TX3r  1 3.950000e-01    2.940000e+00
   N3q  TX3r  1 3.950000e-01    2.700000e+00
   N2q  TX3r  1 3.950000e-01    2.700000e+00
   N1q  TX3r  1 3.950000e-01    2.700000e+00
   C6q  TX3r  1 3.950000e-01    2.700000e+00
   C5q  TX3r  1 3.950000e-01    2.500000e+00
   C4q  TX3r  1 3.950000e-01    2.500000e+00
   C3q  TX3r  1 3.950000e-01    2.500000e+00
   C2q  TX3r  1 3.950000e-01    2.500000e+00
   C1q  TX3r  1 3.950000e-01    2.500000e+00
   X4q  TX3r  1 3.950000e-01    2.700000e+00
   X3r  TX3q  1 3.950000e-01    2.700000e+00
   X3r TX1eq  1 3.950000e-01    3.190000e+00
   X3r TX2eq  1 3.950000e-01    3.190000e+00
   X3r TX3eq  1 3.950000e-01    2.940000e+00
  X4eq  TX3r  1 3.950000e-01    2.940000e+00
  C1eq  TX3r  1 3.950000e-01    2.700000e+00
  C2eq  TX3r  1 3.950000e-01    2.700000e+00
  C3eq  TX3r  1 3.950000e-01    2.700000e+00
  C4eq  TX3r  1 3.950000e-01    2.700000e+00
  C5eq  TX3r  1 3.950000e-01    2.700000e+00
  C6eq  TX3r  1 3.950000e-01    2.940000e+00
   X3r TX1vq  1 3.950000e-01    3.190000e+00
   X3r TX2vq  1 3.950000e-01    3.190000e+00
   X3r TX3vq  1 3.950000e-01    2.940000e+00
  X4vq  TX3r  1 3.950000e-01    2.940000e+00
  C1vq  TX3r  1 3.950000e-01    2.700000e+00
  C2vq  TX3r  1 3.950000e-01    2.700000e+00
  C3vq  TX3r  1 3.950000e-01    2.700000e+00
  C4vq  TX3r  1 3.950000e-01    2.700000e+00
  C5vq  TX3r  1 3.950000e-01    2.700000e+00
  C6vq  TX3r  1 3.950000e-01    2.940000e+00
  N1aq  TX3r  1 3.950000e-01    2.700000e+00
  N2aq  TX3r  1 3.950000e-01    2.700000e+00
  N3aq  TX3r  1 3.950000e-01    2.700000e+00
  N4aq  TX3r  1 3.950000e-01    2.940000e+00
  N5aq  TX3r  1 3.950000e-01    2.700000e+00
  N6aq  TX3r  1 3.950000e-01    2.500000e+00
  P1aq  TX3r  1 3.950000e-01    2.500000e+00
  P2aq  TX3r  1 3.950000e-01    2.500000e+00
  P3aq  TX3r  1 3.950000e-01    2.500000e+00
  P4aq  TX3r  1 3.950000e-01    2.310000e+00
  P5aq  TX3r  1 3.950000e-01    2.310000e+00
  P6aq  TX3r  1 3.950000e-01    2.310000e+00
  N1dq  TX3r  1 3.950000e-01    2.700000e+00
  N2dq  TX3r  1 3.950000e-01    2.700000e+00
  N3dq  TX3r  1 3.950000e-01    2.700000e+00
  N4dq  TX3r  1 3.950000e-01    2.940000e+00
  N5dq  TX3r  1 3.950000e-01    2.700000e+00
  N6dq  TX3r  1 3.950000e-01    2.500000e+00
  P1dq  TX3r  1 3.950000e-01    2.500000e+00
  P2dq  TX3r  1 3.950000e-01    2.500000e+00
  P3dq  TX3r  1 3.950000e-01    2.500000e+00
  P4dq  TX3r  1 3.950000e-01    2.310000e+00
  P5dq  TX3r  1 3.950000e-01    2.310000e+00
  P6dq  TX3r  1 3.950000e-01    2.310000e+00
   X3r  TX1q  1 3.950000e-01    2.940000e+00
   X3r  TX2q  1 3.950000e-01    2.940000e+00
   P6d  TX2r  1 3.950000e-01    1.670000e+00
   P5d  TX2r  1 3.950000e-01    1.850000e+00
   P4d  TX2r  1 3.950000e-01    1.850000e+00
   P3d  TX2r  1 3.950000e-01    1.850000e+00
   P2d  TX2r  1 3.950000e-01    1.850000e+00
   P1d  TX2r  1 3.950000e-01    1.850000e+00
   N6d  TX2r  1 3.950000e-01    1.850000e+00
   N5d  TX2r  1 3.950000e-01    2.110000e+00
   N4d  TX2r  1 3.950000e-01    2.110000e+00
   N3d  TX2r  1 3.950000e-01    2.110000e+00
   N2d  TX2r  1 3.950000e-01    2.110000e+00
   N1d  TX2r  1 3.950000e-01    2.110000e+00
   P6a  TX2r  1 3.950000e-01    1.670000e+00
   P5a  TX2r  1 3.950000e-01    1.850000e+00
   P4a  TX2r  1 3.950000e-01    1.850000e+00
   P3a  TX2r  1 3.950000e-01    1.850000e+00
   P2a  TX2r  1 3.950000e-01    1.850000e+00
   P1a  TX2r  1 3.950000e-01    1.850000e+00
   N6a  TX2r  1 3.950000e-01    1.850000e+00
   N5a  TX2r  1 3.950000e-01    2.110000e+00
   N4a  TX2r  1 3.950000e-01    2.110000e+00
   N3a  TX2r  1 3.950000e-01    2.110000e+00
   N2a  TX2r  1 3.950000e-01    2.110000e+00
   N1a  TX2r  1 3.950000e-01    2.110000e+00
   C6v  TX2r  1 3.950000e-01    2.500000e+00
   C5v  TX2r  1 3.950000e-01    2.310000e+00
   C4v  TX2r  1 3.950000e-01    2.310000e+00
   C3v  TX2r  1 3.950000e-01    2.310000e+00
   C2v  TX2r  1 3.950000e-01    2.310000e+00
   C1v  TX2r  1 3.950000e-01    2.310000e+00
   X4v  TX2r  1 3.950000e-01    2.500000e+00
   X3v  TX2r  1 3.950000e-01    2.700000e+00
   X2r  TX2v  1 3.950000e-01    2.700000e+00
   X2r  TX1v  1 3.950000e-01    2.700000e+00
   C6e  TX2r  1 3.950000e-01    2.500000e+00
   C5e  TX2r  1 3.950000e-01    2.310000e+00
   C4e  TX2r  1 3.950000e-01    2.310000e+00
   C3e  TX2r  1 3.950000e-01    2.310000e+00
   C2e  TX2r  1 3.950000e-01    2.310000e+00
   C1e  TX2r  1 3.950000e-01    2.310000e+00
   X4e  TX2r  1 3.950000e-01    2.500000e+00
   X3e  TX2r  1 3.950000e-01    2.700000e+00
   X2r  TX2e  1 3.950000e-01    2.700000e+00
   X2r  TX1e  1 3.950000e-01    2.700000e+00
   P6q  TX2r  1 3.950000e-01    2.110000e+00
   P5q  TX2r  1 3.950000e-01    2.310000e+00
   P4q  TX2r  1 3.950000e-01    2.310000e+00
   P3q  TX2r  1 3.950000e-01    2.310000e+00
   P2q  TX2r  1 3.950000e-01    2.310000e+00
   P1q  TX2r  1 3.950000e-01    2.310000e+00
   N6q  TX2r  1 3.950000e-01    2.310000e+00
   N5q  TX2r  1 3.950000e-01    2.500000e+00
   N4q  TX2r  1 3.950000e-01    2.500000e+00
   N3q  TX2r  1 3.950000e-01    2.500000e+00
   N2q  TX2r  1 3.950000e-01    2.500000e+00
   N1q  TX2r  1 3.950000e-01    2.500000e+00
   C6q  TX2r  1 3.950000e-01    2.700000e+00
   C5q  TX2r  1 3.950000e-01    2.500000e+00
   C4q  TX2r  1 3.950000e-01    2.500000e+00
   C3q  TX2r  1 3.950000e-01    2.500000e+00
   C2q  TX2r  1 3.950000e-01    2.500000e+00
   C1q  TX2r  1 3.950000e-01    2.500000e+00
   X4q  TX2r  1 3.950000e-01    2.700000e+00
   X3q  TX2r  1 3.950000e-01    2.940000e+00
   X2r  TX2q  1 3.950000e-01    2.940000e+00
   X2r TX1eq  1 3.950000e-01    3.190000e+00
   X2r TX2eq  1 3.950000e-01    3.190000e+00
  X3eq  TX2r  1 3.950000e-01    3.190000e+00
  X4eq  TX2r  1 3.950000e-01    2.940000e+00
  C1eq  TX2r  1 3.950000e-01    2.700000e+00
  C2eq  TX2r  1 3.950000e-01    2.700000e+00
  C3eq  TX2r  1 3.950000e-01    2.700000e+00
  C4eq  TX2r  1 3.950000e-01    2.700000e+00
  C5eq  TX2r  1 3.950000e-01    2.700000e+00
  C6eq  TX2r  1 3.950000e-01    2.940000e+00
   X2r TX1vq  1 3.950000e-01    3.190000e+00
   X2r TX2vq  1 3.950000e-01    3.190000e+00
  X3vq  TX2r  1 3.950000e-01    3.190000e+00
  X4vq  TX2r  1 3.950000e-01    2.940000e+00
  C1vq  TX2r  1 3.950000e-01    2.700000e+00
  C2vq  TX2r  1 3.950000e-01    2.700000e+00
  C3vq  TX2r  1 3.950000e-01    2.700000e+00
  C4vq  TX2r  1 3.950000e-01    2.700000e+00
  C5vq  TX2r  1 3.950000e-01    2.700000e+00
  C6vq  TX2r  1 3.950000e-01    2.940000e+00
  N1aq  TX2r  1 3.950000e-01    2.500000e+00
  N2aq  TX2r  1 3.950000e-01    2.500000e+00
  N3aq  TX2r  1 3.950000e-01    2.500000e+00
  N4aq  TX2r  1 3.950000e-01    2.500000e+00
  N5aq  TX2r  1 3.950000e-01    2.500000e+00
  N6aq  TX2r  1 3.950000e-01    2.310000e+00
  P1aq  TX2r  1 3.950000e-01    2.310000e+00
  P2aq  TX2r  1 3.950000e-01    2.310000e+00
  P3aq  TX2r  1 3.950000e-01    2.310000e+00
  P4aq  TX2r  1 3.950000e-01    2.310000e+00
  P5aq  TX2r  1 3.950000e-01    2.310000e+00
  P6aq  TX2r  1 3.950000e-01    2.110000e+00
  N1dq  TX2r  1 3.950000e-01    2.500000e+00
  N2dq  TX2r  1 3.950000e-01    2.500000e+00
  N3dq  TX2r  1 3.950000e-01    2.500000e+00
  N4dq  TX2r  1 3.950000e-01    2.500000e+00
  N5dq  TX2r  1 3.950000e-01    2.500000e+00
  N6dq  TX2r  1 3.950000e-01    2.310000e+00
  P1dq  TX2r  1 3.950000e-01    2.310000e+00
  P2dq  TX2r  1 3.950000e-01    2.310000e+00
  P3dq  TX2r  1 3.950000e-01    2.310000e+00
  P4dq  TX2r  1 3.950000e-01    2.310000e+00
  P5dq  TX2r  1 3.950000e-01    2.310000e+00
  P6dq  TX2r  1 3.950000e-01    2.110000e+00
   X2r  TX1q  1 3.950000e-01    2.940000e+00
   P6d  TX1r  1 3.980000e-01    1.450000e+00
   P5d  TX1r  1 3.980000e-01    1.450000e+00
   P4d  TX1r  1 3.950000e-01    1.670000e+00
   P3d  TX1r  1 3.950000e-01    1.670000e+00
   P2d  TX1r  1 3.950000e-01    1.670000e+00
   P1d  TX1r  1 3.950000e-01    1.670000e+00
   N6d  TX1r  1 3.950000e-01    1.670000e+00
   N5d  TX1r  1 3.950000e-01    1.850000e+00
   N4d  TX1r  1 3.950000e-01    1.850000e+00
   N3d  TX1r  1 3.950000e-01    2.110000e+00
   N2d  TX1r  1 3.950000e-01    2.110000e+00
   N1d  TX1r  1 3.950000e-01    2.110000e+00
   P6a  TX1r  1 3.980000e-01    1.450000e+00
   P5a  TX1r  1 3.980000e-01    1.450000e+00
   P4a  TX1r  1 3.950000e-01    1.670000e+00
   P3a  TX1r  1 3.950000e-01    1.670000e+00
   P2a  TX1r  1 3.950000e-01    1.670000e+00
   P1a  TX1r  1 3.950000e-01    1.670000e+00
   N6a  TX1r  1 3.950000e-01    1.670000e+00
   N5a  TX1r  1 3.950000e-01    1.850000e+00
   N4a  TX1r  1 3.950000e-01    1.850000e+00
   N3a  TX1r  1 3.950000e-01    2.110000e+00
   N2a  TX1r  1 3.950000e-01    2.110000e+00
   N1a  TX1r  1 3.950000e-01    2.110000e+00
   C6v  TX1r  1 3.950000e-01    2.500000e+00
   C5v  TX1r  1 3.950000e-01    2.500000e+00
   C4v  TX1r  1 3.950000e-01    2.500000e+00
   C3v  TX1r  1 3.950000e-01    2.500000e+00
   C2v  TX1r  1 3.950000e-01    2.310000e+00
   C1v  TX1r  1 3.950000e-01    2.310000e+00
   X4v  TX1r  1 3.950000e-01    2.500000e+00
   X3v  TX1r  1 3.950000e-01    2.700000e+00
   X2v  TX1r  1 3.950000e-01    2.700000e+00
   X1r  TX1v  1 3.950000e-01    2.940000e+00
   C6e  TX1r  1 3.950000e-01    2.500000e+00
   C5e  TX1r  1 3.950000e-01    2.500000e+00
   C4e  TX1r  1 3.950000e-01    2.500000e+00
   C3e  TX1r  1 3.950000e-01    2.500000e+00
   C2e  TX1r  1 3.950000e-01    2.310000e+00
   C1e  TX1r  1 3.950000e-01    2.310000e+00
   X4e  TX1r  1 3.950000e-01    2.500000e+00
   X3e  TX1r  1 3.950000e-01    2.700000e+00
   X2e  TX1r  1 3.950000e-01    2.700000e+00
   X1r  TX1e  1 3.950000e-01    2.940000e+00
   P6q  TX1r  1 3.950000e-01    1.850000e+00
   P5q  TX1r  1 3.950000e-01    1.850000e+00
   P4q  TX1r  1 3.950000e-01    2.110000e+00
   P3q  TX1r  1 3.950000e-01    2.110000e+00
   P2q  TX1r  1 3.950000e-01    2.110000e+00
   P1q  TX1r  1 3.950000e-01    2.110000e+00
   N6q  TX1r  1 3.950000e-01    2.110000e+00
   N5q  TX1r  1 3.950000e-01    2.310000e+00
   N4q  TX1r  1 3.950000e-01    2.310000e+00
   N3q  TX1r  1 3.950000e-01    2.500000e+00
   N2q  TX1r  1 3.950000e-01    2.500000e+00
   N1q  TX1r  1 3.950000e-01    2.500000e+00
   C6q  TX1r  1 3.950000e-01    2.700000e+00
   C5q  TX1r  1 3.950000e-01    2.700000e+00
   C4q  TX1r  1 3.950000e-01    2.700000e+00
   C3q  TX1r  1 3.950000e-01    2.700000e+00
   C2q  TX1r  1 3.950000e-01    2.500000e+00
   C1q  TX1r  1 3.950000e-01    2.500000e+00
   X4q  TX1r  1 3.950000e-01    2.700000e+00
   X3q  TX1r  1 3.950000e-01    2.940000e+00
   X2q  TX1r  1 3.950000e-01    2.940000e+00
   X1r  TX1q  1 3.950000e-01    3.190000e+00
   X1r TX1eq  1 3.950000e-01    3.430000e+00
  X2eq  TX1r  1 3.950000e-01    3.190000e+00
  X3eq  TX1r  1 3.950000e-01    3.190000e+00
  X4eq  TX1r  1 3.950000e-01    2.940000e+00
  C1eq  TX1r  1 3.950000e-01    2.700000e+00
  C2eq  TX1r  1 3.950000e-01    2.700000e+00
  C3eq  TX1r  1 3.950000e-01    2.940000e+00
  C4eq  TX1r  1 3.950000e-01    2.940000e+00
  C5eq  TX1r  1 3.950000e-01    2.940000e+00
  C6eq  TX1r  1 3.950000e-01    2.940000e+00
   X1r TX1vq  1 3.950000e-01    3.430000e+00
  X2vq  TX1r  1 3.950000e-01    3.190000e+00
  X3vq  TX1r  1 3.950000e-01    3.190000e+00
  X4vq  TX1r  1 3.950000e-01    2.940000e+00
  C1vq  TX1r  1 3.950000e-01    2.700000e+00
  C2vq  TX1r  1 3.950000e-01    2.700000e+00
  C3vq  TX1r  1 3.950000e-01    2.940000e+00
  C4vq  TX1r  1 3.950000e-01    2.940000e+00
  C5vq  TX1r  1 3.950000e-01    2.940000e+00
  C6vq  TX1r  1 3.950000e-01    2.940000e+00
  N1aq  TX1r  1 3.950000e-01    2.500000e+00
  N2aq  TX1r  1 3.950000e-01    2.500000e+00
  N3aq  TX1r  1 3.950000e-01    2.500000e+00
  N4aq  TX1r  1 3.950000e-01    2.310000e+00
  N5aq  TX1r  1 3.950000e-01    2.310000e+00
  N6aq  TX1r  1 3.950000e-01    2.110000e+00
  P1aq  TX1r  1 3.950000e-01    2.110000e+00
  P2aq  TX1r  1 3.950000e-01    2.110000e+00
  P3aq  TX1r  1 3.950000e-01    2.110000e+00
  P4aq  TX1r  1 3.950000e-01    2.110000e+00
  P5aq  TX1r  1 3.950000e-01    1.850000e+00
  P6aq  TX1r  1 3.950000e-01    1.850000e+00
  N1dq  TX1r  1 3.950000e-01    2.500000e+00
  N2dq  TX1r  1 3.950000e-01    2.500000e+00
  N3dq  TX1r  1 3.950000e-01    2.500000e+00
  N4dq  TX1r  1 3.950000e-01    2.310000e+00
  N5dq  TX1r  1 3.950000e-01    2.310000e+00
  N6dq  TX1r  1 3.950000e-01    2.110000e+00
  P1dq  TX1r  1 3.950000e-01    2.110000e+00
  P2dq  TX1r  1 3.950000e-01    2.110000e+00
  P3dq  TX1r  1 3.950000e-01    2.110000e+00
  P4dq  TX1r  1 3.950000e-01    2.110000e+00
  P5dq  TX1r  1 3.950000e-01    1.850000e+00
  P6dq  TX1r  1 3.950000e-01    1.850000e+00
   P6d TP6dr  1 3.950000e-01    3.910000e+00
  P6dr  TP5d  1 3.950000e-01    3.670000e+00
  P6dr  TP4d  1 3.950000e-01    3.430000e+00
  P6dr  TP3d  1 3.950000e-01    3.190000e+00
  P6dr  TP2d  1 3.950000e-01    3.190000e+00
  P6dr  TP1d  1 3.950000e-01    2.940000e+00
  P6dr  TN6d  1 3.950000e-01    2.700000e+00
  P6dr  TN5d  1 3.950000e-01    2.310000e+00
  P6dr  TN4d  1 3.950000e-01    2.110000e+00
  P6dr  TN3d  1 3.950000e-01    2.110000e+00
  P6dr  TN2d  1 3.950000e-01    1.850000e+00
  P6dr  TN1d  1 3.950000e-01    1.670000e+00
  P6dr  TP6a  1 3.950000e-01    4.540000e+00
  P6dr  TP5a  1 3.950000e-01    4.230000e+00
  P6dr  TP4a  1 3.950000e-01    3.910000e+00
  P6dr  TP3a  1 3.950000e-01    3.670000e+00
  P6dr  TP2a  1 3.950000e-01    3.670000e+00
  P6dr  TP1a  1 3.950000e-01    3.430000e+00
  P6dr  TN6a  1 3.950000e-01    3.190000e+00
  P6dr  TN5a  1 3.950000e-01    2.700000e+00
  P6dr  TN4a  1 3.950000e-01    2.500000e+00
  P6dr  TN3a  1 3.950000e-01    2.110000e+00
  P6dr  TN2a  1 3.950000e-01    1.850000e+00
  P6dr  TN1a  1 3.950000e-01    1.670000e+00
  P6dr  TC6e  1 3.950000e-01    1.850000e+00
  P6dr  TC5e  1 3.950000e-01    1.670000e+00
  P6dr  TC4e  1 3.980000e-01    1.450000e+00
  P6dr  TC3e  1 3.990000e-01    1.180000e+00
  P6dr  TC2e  1 3.990000e-01    1.180000e+00
  P6dr  TC1e  1 4.040000e-01    8.300000e-01
  P6dr  TX4e  1 3.950000e-01    2.110000e+00
  P6dr  TX3e  1 3.950000e-01    2.110000e+00
  P6dr  TX2e  1 3.950000e-01    1.850000e+00
  P6dr  TX1e  1 3.950000e-01    1.670000e+00
  P6dr  TC6v  1 3.980000e-01    1.450000e+00
  P6dr  TC5v  1 3.990000e-01    1.180000e+00
  P6dr  TC4v  1 4.010000e-01    9.830000e-01
  P6dr  TC3v  1 4.040000e-01    8.300000e-01
  P6dr  TC2v  1 4.040000e-01    8.300000e-01
  P6dr  TC1v  1 5.110000e-01    6.590000e-01
  P6dr  TX4v  1 3.950000e-01    1.670000e+00
  P6dr  TX3v  1 3.950000e-01    1.670000e+00
  P6dr  TX2v  1 3.980000e-01    1.450000e+00
  P6dr  TX1v  1 3.990000e-01    1.180000e+00
   P6q TP6dr  1 3.950000e-01    4.870000e+00
  P6dr  TP5q  1 3.950000e-01    4.540000e+00
  P6dr  TP4q  1 3.950000e-01    4.230000e+00
  P6dr  TP3q  1 3.950000e-01    3.910000e+00
  P6dr  TP2q  1 3.950000e-01    3.910000e+00
  P6dr  TP1q  1 3.950000e-01    3.670000e+00
  P6dr  TN6q  1 3.950000e-01    3.430000e+00
  P6dr  TN5q  1 3.950000e-01    2.940000e+00
  P6dr  TN4q  1 3.950000e-01    2.700000e+00
  P6dr  TN3q  1 3.950000e-01    2.500000e+00
  P6dr  TN2q  1 3.950000e-01    2.310000e+00
  P6dr  TN1q  1 3.950000e-01    2.110000e+00
  P6dr  TC6q  1 3.950000e-01    2.110000e+00
  P6dr  TC5q  1 3.950000e-01    1.850000e+00
  P6dr  TC4q  1 3.950000e-01    1.670000e+00
  P6dr  TC3q  1 3.980000e-01    1.450000e+00
  P6dr  TC2q  1 3.980000e-01    1.450000e+00
  P6dr  TC1q  1 4.010000e-01    9.830000e-01
  P6dr  TX4q  1 3.950000e-01    2.310000e+00
  P6dr  TX3q  1 3.950000e-01    2.310000e+00
  P6dr  TX2q  1 3.950000e-01    2.110000e+00
  P6dr  TX1q  1 3.950000e-01    1.850000e+00
  P6dr TP6dq  1 3.950000e-01    4.540000e+00
  P6dr TX1eq  1 3.950000e-01    2.110000e+00
  P6dr TX2eq  1 3.950000e-01    2.310000e+00
  P6dr TX3eq  1 3.950000e-01    2.500000e+00
  P6dr TX4eq  1 3.950000e-01    2.500000e+00
  P6dr TC1eq  1 3.990000e-01    1.180000e+00
  P6dr TC2eq  1 3.950000e-01    1.670000e+00
  P6dr TC3eq  1 3.950000e-01    1.670000e+00
  P6dr TC4eq  1 3.950000e-01    1.850000e+00
  P6dr TC5eq  1 3.950000e-01    2.110000e+00
  P6dr TC6eq  1 3.950000e-01    2.310000e+00
  P6dr TX1vq  1 3.950000e-01    1.670000e+00
  P6dr TX2vq  1 3.950000e-01    1.850000e+00
  P6dr TX3vq  1 3.950000e-01    2.110000e+00
  P6dr TX4vq  1 3.950000e-01    2.110000e+00
  P6dr TC1vq  1 4.040000e-01    8.300000e-01
  P6dr TC2vq  1 3.990000e-01    1.180000e+00
  P6dr TC3vq  1 3.990000e-01    1.180000e+00
  P6dr TC4vq  1 3.980000e-01    1.450000e+00
  P6dr TC5vq  1 3.950000e-01    1.670000e+00
  P6dr TC6vq  1 3.950000e-01    1.850000e+00
  P6dr TN1aq  1 3.950000e-01    2.110000e+00
  P6dr TN2aq  1 3.950000e-01    2.310000e+00
  P6dr TN3aq  1 3.950000e-01    2.500000e+00
  P6dr TN4aq  1 3.950000e-01    2.940000e+00
  P6dr TN5aq  1 3.950000e-01    3.190000e+00
  P6dr TN6aq  1 3.950000e-01    3.670000e+00
  P6dr TP1aq  1 3.950000e-01    3.910000e+00
  P6dr TP2aq  1 3.950000e-01    4.230000e+00
  P6dr TP3aq  1 3.950000e-01    4.230000e+00
  P6dr TP4aq  1 3.950000e-01    4.540000e+00
  P6dr TP5aq  1 3.950000e-01    4.870000e+00
  P6dr TP6aq  1 3.950000e-01    5.270000e+00
  P6dr TN1dq  1 3.950000e-01    2.110000e+00
  P6dr TN2dq  1 3.950000e-01    2.310000e+00
  P6dr TN3dq  1 3.950000e-01    2.500000e+00
  P6dr TN4dq  1 3.950000e-01    2.500000e+00
  P6dr TN5dq  1 3.950000e-01    2.700000e+00
  P6dr TN6dq  1 3.950000e-01    3.190000e+00
  P6dr TP1dq  1 3.950000e-01    3.430000e+00
  P6dr TP2dq  1 3.950000e-01    3.670000e+00
  P6dr TP3dq  1 3.950000e-01    3.670000e+00
  P6dr TP4dq  1 3.950000e-01    3.910000e+00
  P6dr TP5dq  1 3.950000e-01    4.230000e+00
   P5d TP5dr  1 3.950000e-01    3.430000e+00
  P5dr  TP4d  1 3.950000e-01    3.190000e+00
  P5dr  TP3d  1 3.950000e-01    2.940000e+00
  P5dr  TP2d  1 3.950000e-01    2.940000e+00
  P5dr  TP1d  1 3.950000e-01    2.700000e+00
  P5dr  TN6d  1 3.950000e-01    2.500000e+00
  P5dr  TN5d  1 3.950000e-01    2.310000e+00
  P5dr  TN4d  1 3.950000e-01    2.310000e+00
  P5dr  TN3d  1 3.950000e-01    2.110000e+00
  P5dr  TN2d  1 3.950000e-01    1.850000e+00
  P5dr  TN1d  1 3.950000e-01    1.670000e+00
   P6a TP5dr  1 3.950000e-01    4.230000e+00
  P5dr  TP5a  1 3.950000e-01    3.910000e+00
  P5dr  TP4a  1 3.950000e-01    3.670000e+00
  P5dr  TP3a  1 3.950000e-01    3.430000e+00
  P5dr  TP2a  1 3.950000e-01    3.430000e+00
  P5dr  TP1a  1 3.950000e-01    3.190000e+00
  P5dr  TN6a  1 3.950000e-01    2.940000e+00
  P5dr  TN5a  1 3.950000e-01    2.700000e+00
  P5dr  TN4a  1 3.950000e-01    2.700000e+00
  P5dr  TN3a  1 3.950000e-01    2.110000e+00
  P5dr  TN2a  1 3.950000e-01    1.850000e+00
  P5dr  TN1a  1 3.950000e-01    1.670000e+00
  P5dr  TC6e  1 3.950000e-01    1.850000e+00
  P5dr  TC5e  1 3.950000e-01    1.850000e+00
  P5dr  TC4e  1 3.950000e-01    1.670000e+00
  P5dr  TC3e  1 3.980000e-01    1.450000e+00
  P5dr  TC2e  1 3.980000e-01    1.450000e+00
  P5dr  TC1e  1 3.990000e-01    1.180000e+00
  P5dr  TX4e  1 3.950000e-01    2.310000e+00
  P5dr  TX3e  1 3.950000e-01    2.110000e+00
  P5dr  TX2e  1 3.950000e-01    2.110000e+00
  P5dr  TX1e  1 3.950000e-01    1.670000e+00
  P5dr  TC6v  1 3.980000e-01    1.450000e+00
  P5dr  TC5v  1 3.980000e-01    1.450000e+00
  P5dr  TC4v  1 3.990000e-01    1.180000e+00
  P5dr  TC3v  1 4.010000e-01    9.830000e-01
  P5dr  TC2v  1 4.010000e-01    9.830000e-01
  P5dr  TC1v  1 4.040000e-01    8.300000e-01
  P5dr  TX4v  1 3.950000e-01    1.850000e+00
  P5dr  TX3v  1 3.950000e-01    1.670000e+00
  P5dr  TX2v  1 3.950000e-01    1.670000e+00
  P5dr  TX1v  1 3.990000e-01    1.180000e+00
   P6q TP5dr  1 3.950000e-01    4.540000e+00
   P5q TP5dr  1 3.950000e-01    4.230000e+00
  P5dr  TP4q  1 3.950000e-01    3.910000e+00
  P5dr  TP3q  1 3.950000e-01    3.670000e+00
  P5dr  TP2q  1 3.950000e-01    3.670000e+00
  P5dr  TP1q  1 3.950000e-01    3.430000e+00
  P5dr  TN6q  1 3.950000e-01    3.190000e+00
  P5dr  TN5q  1 3.950000e-01    2.940000e+00
  P5dr  TN4q  1 3.950000e-01    2.940000e+00
  P5dr  TN3q  1 3.950000e-01    2.500000e+00
  P5dr  TN2q  1 3.950000e-01    2.310000e+00
  P5dr  TN1q  1 3.950000e-01    2.110000e+00
  P5dr  TC6q  1 3.950000e-01    2.110000e+00
  P5dr  TC5q  1 3.950000e-01    2.110000e+00
  P5dr  TC4q  1 3.950000e-01    1.850000e+00
  P5dr  TC3q  1 3.950000e-01    1.670000e+00
  P5dr  TC2q  1 3.950000e-01    1.670000e+00
  P5dr  TC1q  1 3.980000e-01    1.450000e+00
  P5dr  TX4q  1 3.950000e-01    2.500000e+00
  P5dr  TX3q  1 3.950000e-01    2.310000e+00
  P5dr  TX2q  1 3.950000e-01    2.310000e+00
  P5dr  TX1q  1 3.950000e-01    1.850000e+00
  P6dq TP5dr  1 3.950000e-01    4.230000e+00
  P5dr TP5dq  1 3.950000e-01    3.910000e+00
  P5dr TX1eq  1 3.950000e-01    2.110000e+00
  P5dr TX2eq  1 3.950000e-01    2.500000e+00
  P5dr TX3eq  1 3.950000e-01    2.500000e+00
  P5dr TX4eq  1 3.950000e-01    2.700000e+00
  P5dr TC1eq  1 3.950000e-01    1.670000e+00
  P5dr TC2eq  1 3.950000e-01    1.850000e+00
  P5dr TC3eq  1 3.950000e-01    1.850000e+00
  P5dr TC4eq  1 3.950000e-01    2.110000e+00
  P5dr TC5eq  1 3.950000e-01    2.310000e+00
  P5dr TC6eq  1 3.950000e-01    2.310000e+00
  P5dr TX1vq  1 3.950000e-01    1.670000e+00
  P5dr TX2vq  1 3.950000e-01    2.110000e+00
  P5dr TX3vq  1 3.950000e-01    2.110000e+00
  P5dr TX4vq  1 3.950000e-01    2.310000e+00
  P5dr TC1vq  1 3.990000e-01    1.180000e+00
  P5dr TC2vq  1 3.980000e-01    1.450000e+00
  P5dr TC3vq  1 3.980000e-01    1.450000e+00
  P5dr TC4vq  1 3.950000e-01    1.670000e+00
  P5dr TC5vq  1 3.950000e-01    1.850000e+00
  P5dr TC6vq  1 3.950000e-01    1.850000e+00
  P5dr TN1aq  1 3.950000e-01    2.110000e+00
  P5dr TN2aq  1 3.950000e-01    2.310000e+00
  P5dr TN3aq  1 3.950000e-01    2.500000e+00
  P5dr TN4aq  1 3.950000e-01    3.190000e+00
  P5dr TN5aq  1 3.950000e-01    3.190000e+00
  P5dr TN6aq  1 3.950000e-01    3.430000e+00
  P5dr TP1aq  1 3.950000e-01    3.670000e+00
  P5dr TP2aq  1 3.950000e-01    3.910000e+00
  P5dr TP3aq  1 3.950000e-01    3.910000e+00
  P5dr TP4aq  1 3.950000e-01    4.230000e+00
  P5dr TP5aq  1 3.950000e-01    4.540000e+00
  P6aq TP5dr  1 3.950000e-01    4.870000e+00
  P5dr TN1dq  1 3.950000e-01    2.110000e+00
  P5dr TN2dq  1 3.950000e-01    2.310000e+00
  P5dr TN3dq  1 3.950000e-01    2.500000e+00
  P5dr TN4dq  1 3.950000e-01    2.700000e+00
  P5dr TN5dq  1 3.950000e-01    2.700000e+00
  P5dr TN6dq  1 3.950000e-01    2.940000e+00
  P5dr TP1dq  1 3.950000e-01    3.190000e+00
  P5dr TP2dq  1 3.950000e-01    3.430000e+00
  P5dr TP3dq  1 3.950000e-01    3.430000e+00
  P5dr TP4dq  1 3.950000e-01    3.670000e+00
   P4d TP4dr  1 3.950000e-01    3.190000e+00
  P4dr  TP3d  1 3.950000e-01    2.940000e+00
  P4dr  TP2d  1 3.950000e-01    2.940000e+00
  P4dr  TP1d  1 3.950000e-01    2.700000e+00
  P4dr  TN6d  1 3.950000e-01    2.500000e+00
  P4dr  TN5d  1 3.950000e-01    2.310000e+00
  P4dr  TN4d  1 3.950000e-01    2.310000e+00
  P4dr  TN3d  1 3.950000e-01    2.110000e+00
  P4dr  TN2d  1 3.950000e-01    2.110000e+00
  P4dr  TN1d  1 3.950000e-01    1.850000e+00
   P6a TP4dr  1 3.950000e-01    3.910000e+00
   P5a TP4dr  1 3.950000e-01    3.670000e+00
  P4dr  TP4a  1 3.950000e-01    3.670000e+00
  P4dr  TP3a  1 3.950000e-01    3.430000e+00
  P4dr  TP2a  1 3.950000e-01    3.430000e+00
  P4dr  TP1a  1 3.950000e-01    3.190000e+00
  P4dr  TN6a  1 3.950000e-01    2.940000e+00
  P4dr  TN5a  1 3.950000e-01    2.700000e+00
  P4dr  TN4a  1 3.950000e-01    2.700000e+00
  P4dr  TN3a  1 3.950000e-01    2.500000e+00
  P4dr  TN2a  1 3.950000e-01    2.110000e+00
  P4dr  TN1a  1 3.950000e-01    1.850000e+00
  P4dr  TC6e  1 3.950000e-01    2.110000e+00
  P4dr  TC5e  1 3.950000e-01    1.850000e+00
  P4dr  TC4e  1 3.950000e-01    1.670000e+00
  P4dr  TC3e  1 3.980000e-01    1.450000e+00
  P4dr  TC2e  1 3.980000e-01    1.450000e+00
  P4dr  TC1e  1 3.990000e-01    1.180000e+00
  P4dr  TX4e  1 3.950000e-01    2.310000e+00
  P4dr  TX3e  1 3.950000e-01    2.110000e+00
  P4dr  TX2e  1 3.950000e-01    2.110000e+00
  P4dr  TX1e  1 3.950000e-01    1.850000e+00
  P4dr  TC6v  1 3.950000e-01    1.670000e+00
  P4dr  TC5v  1 3.980000e-01    1.450000e+00
  P4dr  TC4v  1 3.990000e-01    1.180000e+00
  P4dr  TC3v  1 4.010000e-01    9.830000e-01
  P4dr  TC2v  1 4.010000e-01    9.830000e-01
  P4dr  TC1v  1 4.040000e-01    8.300000e-01
  P4dr  TX4v  1 3.950000e-01    1.850000e+00
  P4dr  TX3v  1 3.950000e-01    1.670000e+00
  P4dr  TX2v  1 3.950000e-01    1.670000e+00
  P4dr  TX1v  1 3.980000e-01    1.450000e+00
   P6q TP4dr  1 3.950000e-01    4.230000e+00
   P5q TP4dr  1 3.950000e-01    3.910000e+00
   P4q TP4dr  1 3.950000e-01    3.910000e+00
  P4dr  TP3q  1 3.950000e-01    3.670000e+00
  P4dr  TP2q  1 3.950000e-01    3.670000e+00
  P4dr  TP1q  1 3.950000e-01    3.430000e+00
  P4dr  TN6q  1 3.950000e-01    3.190000e+00
  P4dr  TN5q  1 3.950000e-01    2.940000e+00
  P4dr  TN4q  1 3.950000e-01    2.940000e+00
  P4dr  TN3q  1 3.950000e-01    2.700000e+00
  P4dr  TN2q  1 3.950000e-01    2.500000e+00
  P4dr  TN1q  1 3.950000e-01    2.310000e+00
  P4dr  TC6q  1 3.950000e-01    2.310000e+00
  P4dr  TC5q  1 3.950000e-01    2.110000e+00
  P4dr  TC4q  1 3.950000e-01    1.850000e+00
  P4dr  TC3q  1 3.950000e-01    1.670000e+00
  P4dr  TC2q  1 3.950000e-01    1.670000e+00
  P4dr  TC1q  1 3.980000e-01    1.450000e+00
  P4dr  TX4q  1 3.950000e-01    2.500000e+00
  P4dr  TX3q  1 3.950000e-01    2.310000e+00
  P4dr  TX2q  1 3.950000e-01    2.310000e+00
  P4dr  TX1q  1 3.950000e-01    2.110000e+00
  P6dq TP4dr  1 3.950000e-01    3.910000e+00
  P5dq TP4dr  1 3.950000e-01    3.670000e+00
  P4dr TP4dq  1 3.950000e-01    3.670000e+00
  P4dr TX1eq  1 3.950000e-01    2.310000e+00
  P4dr TX2eq  1 3.950000e-01    2.500000e+00
  P4dr TX3eq  1 3.950000e-01    2.500000e+00
  P4dr TX4eq  1 3.950000e-01    2.700000e+00
  P4dr TC1eq  1 3.950000e-01    1.670000e+00
  P4dr TC2eq  1 3.950000e-01    1.850000e+00
  P4dr TC3eq  1 3.950000e-01    1.850000e+00
  P4dr TC4eq  1 3.950000e-01    2.110000e+00
  P4dr TC5eq  1 3.950000e-01    2.310000e+00
  P4dr TC6eq  1 3.950000e-01    2.500000e+00
  P4dr TX1vq  1 3.950000e-01    1.850000e+00
  P4dr TX2vq  1 3.950000e-01    2.110000e+00
  P4dr TX3vq  1 3.950000e-01    2.110000e+00
  P4dr TX4vq  1 3.950000e-01    2.310000e+00
  P4dr TC1vq  1 3.990000e-01    1.180000e+00
  P4dr TC2vq  1 3.980000e-01    1.450000e+00
  P4dr TC3vq  1 3.980000e-01    1.450000e+00
  P4dr TC4vq  1 3.950000e-01    1.670000e+00
  P4dr TC5vq  1 3.950000e-01    1.850000e+00
  P4dr TC6vq  1 3.950000e-01    2.110000e+00
  P4dr TN1aq  1 3.950000e-01    2.310000e+00
  P4dr TN2aq  1 3.950000e-01    2.500000e+00
  P4dr TN3aq  1 3.950000e-01    2.940000e+00
  P4dr TN4aq  1 3.950000e-01    3.190000e+00
  P4dr TN5aq  1 3.950000e-01    3.190000e+00
  P4dr TN6aq  1 3.950000e-01    3.430000e+00
  P4dr TP1aq  1 3.950000e-01    3.670000e+00
  P4dr TP2aq  1 3.950000e-01    3.910000e+00
  P4dr TP3aq  1 3.950000e-01    3.910000e+00
  P4dr TP4aq  1 3.950000e-01    4.230000e+00
  P5aq TP4dr  1 3.950000e-01    4.230000e+00
  P6aq TP4dr  1 3.950000e-01    4.540000e+00
  P4dr TN1dq  1 3.950000e-01    2.310000e+00
  P4dr TN2dq  1 3.950000e-01    2.500000e+00
  P4dr TN3dq  1 3.950000e-01    2.500000e+00
  P4dr TN4dq  1 3.950000e-01    2.700000e+00
  P4dr TN5dq  1 3.950000e-01    2.700000e+00
  P4dr TN6dq  1 3.950000e-01    2.940000e+00
  P4dr TP1dq  1 3.950000e-01    3.190000e+00
  P4dr TP2dq  1 3.950000e-01    3.430000e+00
  P4dr TP3dq  1 3.950000e-01    3.430000e+00
   P3d TP3dr  1 3.950000e-01    2.940000e+00
  P3dr  TP2d  1 3.950000e-01    2.940000e+00
  P3dr  TP1d  1 3.950000e-01    2.700000e+00
  P3dr  TN6d  1 3.950000e-01    2.500000e+00
  P3dr  TN5d  1 3.950000e-01    2.310000e+00
  P3dr  TN4d  1 3.950000e-01    2.310000e+00
  P3dr  TN3d  1 3.950000e-01    2.110000e+00
  P3dr  TN2d  1 3.950000e-01    2.110000e+00
  P3dr  TN1d  1 3.950000e-01    2.110000e+00
   P6a TP3dr  1 3.950000e-01    3.670000e+00
   P5a TP3dr  1 3.950000e-01    3.430000e+00
   P4a TP3dr  1 3.950000e-01    3.430000e+00
  P3dr  TP3a  1 3.950000e-01    3.430000e+00
  P3dr  TP2a  1 3.950000e-01    3.430000e+00
  P3dr  TP1a  1 3.950000e-01    3.190000e+00
  P3dr  TN6a  1 3.950000e-01    2.940000e+00
  P3dr  TN5a  1 3.950000e-01    2.700000e+00
  P3dr  TN4a  1 3.950000e-01    2.700000e+00
  P3dr  TN3a  1 3.950000e-01    2.500000e+00
  P3dr  TN2a  1 3.950000e-01    2.500000e+00
  P3dr  TN1a  1 3.950000e-01    2.110000e+00
  P3dr  TC6e  1 3.950000e-01    2.310000e+00
  P3dr  TC5e  1 3.950000e-01    2.110000e+00
  P3dr  TC4e  1 3.950000e-01    1.850000e+00
  P3dr  TC3e  1 3.980000e-01    1.450000e+00
  P3dr  TC2e  1 3.980000e-01    1.450000e+00
  P3dr  TC1e  1 3.990000e-01    1.180000e+00
  P3dr  TX4e  1 3.950000e-01    2.310000e+00
  P3dr  TX3e  1 3.950000e-01    2.310000e+00
  P3dr  TX2e  1 3.950000e-01    2.110000e+00
  P3dr  TX1e  1 3.950000e-01    1.850000e+00
  P3dr  TC6v  1 3.950000e-01    1.850000e+00
  P3dr  TC5v  1 3.950000e-01    1.670000e+00
  P3dr  TC4v  1 3.980000e-01    1.450000e+00
  P3dr  TC3v  1 4.010000e-01    9.830000e-01
  P3dr  TC2v  1 4.010000e-01    9.830000e-01
  P3dr  TC1v  1 4.040000e-01    8.300000e-01
  P3dr  TX4v  1 3.950000e-01    1.850000e+00
  P3dr  TX3v  1 3.950000e-01    1.850000e+00
  P3dr  TX2v  1 3.950000e-01    1.670000e+00
  P3dr  TX1v  1 3.980000e-01    1.450000e+00
   P6q TP3dr  1 3.950000e-01    3.910000e+00
   P5q TP3dr  1 3.950000e-01    3.670000e+00
   P4q TP3dr  1 3.950000e-01    3.670000e+00
   P3q TP3dr  1 3.950000e-01    3.670000e+00
  P3dr  TP2q  1 3.950000e-01    3.670000e+00
  P3dr  TP1q  1 3.950000e-01    3.430000e+00
  P3dr  TN6q  1 3.950000e-01    3.190000e+00
  P3dr  TN5q  1 3.950000e-01    2.940000e+00
  P3dr  TN4q  1 3.950000e-01    2.940000e+00
  P3dr  TN3q  1 3.950000e-01    2.700000e+00
  P3dr  TN2q  1 3.950000e-01    2.700000e+00
  P3dr  TN1q  1 3.950000e-01    2.500000e+00
  P3dr  TC6q  1 3.950000e-01    2.500000e+00
  P3dr  TC5q  1 3.950000e-01    2.310000e+00
  P3dr  TC4q  1 3.950000e-01    2.110000e+00
  P3dr  TC3q  1 3.950000e-01    1.670000e+00
  P3dr  TC2q  1 3.950000e-01    1.670000e+00
  P3dr  TC1q  1 3.980000e-01    1.450000e+00
  P3dr  TX4q  1 3.950000e-01    2.500000e+00
  P3dr  TX3q  1 3.950000e-01    2.500000e+00
  P3dr  TX2q  1 3.950000e-01    2.310000e+00
  P3dr  TX1q  1 3.950000e-01    2.110000e+00
  P6dq TP3dr  1 3.950000e-01    3.670000e+00
  P5dq TP3dr  1 3.950000e-01    3.430000e+00
  P4dq TP3dr  1 3.950000e-01    3.430000e+00
  P3dr TP3dq  1 3.950000e-01    3.430000e+00
  P3dr TX1eq  1 3.950000e-01    2.310000e+00
  P3dr TX2eq  1 3.950000e-01    2.500000e+00
  P3dr TX3eq  1 3.950000e-01    2.700000e+00
  P3dr TX4eq  1 3.950000e-01    2.700000e+00
  P3dr TC1eq  1 3.950000e-01    1.670000e+00
  P3dr TC2eq  1 3.950000e-01    1.850000e+00
  P3dr TC3eq  1 3.950000e-01    1.850000e+00
  P3dr TC4eq  1 3.950000e-01    2.310000e+00
  P3dr TC5eq  1 3.950000e-01    2.500000e+00
  P3dr TC6eq  1 3.950000e-01    2.700000e+00
  P3dr TX1vq  1 3.950000e-01    1.850000e+00
  P3dr TX2vq  1 3.950000e-01    2.110000e+00
  P3dr TX3vq  1 3.950000e-01    2.310000e+00
  P3dr TX4vq  1 3.950000e-01    2.310000e+00
  P3dr TC1vq  1 3.990000e-01    1.180000e+00
  P3dr TC2vq  1 3.980000e-01    1.450000e+00
  P3dr TC3vq  1 3.980000e-01    1.450000e+00
  P3dr TC4vq  1 3.950000e-01    1.850000e+00
  P3dr TC5vq  1 3.950000e-01    2.110000e+00
  P3dr TC6vq  1 3.950000e-01    2.310000e+00
  P3dr TN1aq  1 3.950000e-01    2.500000e+00
  P3dr TN2aq  1 3.950000e-01    2.940000e+00
  P3dr TN3aq  1 3.950000e-01    2.940000e+00
  P3dr TN4aq  1 3.950000e-01    3.190000e+00
  P3dr TN5aq  1 3.950000e-01    3.190000e+00
  P3dr TN6aq  1 3.950000e-01    3.430000e+00
  P3dr TP1aq  1 3.950000e-01    3.670000e+00
  P3dr TP2aq  1 3.950000e-01    3.910000e+00
  P3dr TP3aq  1 3.950000e-01    3.910000e+00
  P4aq TP3dr  1 3.950000e-01    3.910000e+00
  P5aq TP3dr  1 3.950000e-01    3.910000e+00
  P6aq TP3dr  1 3.950000e-01    4.230000e+00
  P3dr TN1dq  1 3.950000e-01    2.500000e+00
  P3dr TN2dq  1 3.950000e-01    2.500000e+00
  P3dr TN3dq  1 3.950000e-01    2.500000e+00
  P3dr TN4dq  1 3.950000e-01    2.700000e+00
  P3dr TN5dq  1 3.950000e-01    2.700000e+00
  P3dr TN6dq  1 3.950000e-01    2.940000e+00
  P3dr TP1dq  1 3.950000e-01    3.190000e+00
  P3dr TP2dq  1 3.950000e-01    3.430000e+00
   P2d TP2dr  1 3.950000e-01    2.940000e+00
  P2dr  TP1d  1 3.950000e-01    2.700000e+00
  P2dr  TN6d  1 3.950000e-01    2.700000e+00
  P2dr  TN5d  1 3.950000e-01    2.500000e+00
  P2dr  TN4d  1 3.950000e-01    2.310000e+00
  P2dr  TN3d  1 3.950000e-01    2.110000e+00
  P2dr  TN2d  1 3.950000e-01    2.110000e+00
  P2dr  TN1d  1 3.950000e-01    2.110000e+00
   P6a TP2dr  1 3.950000e-01    3.670000e+00
   P5a TP2dr  1 3.950000e-01    3.430000e+00
   P4a TP2dr  1 3.950000e-01    3.430000e+00
   P3a TP2dr  1 3.950000e-01    3.430000e+00
  P2dr  TP2a  1 3.950000e-01    3.430000e+00
  P2dr  TP1a  1 3.950000e-01    3.190000e+00
  P2dr  TN6a  1 3.950000e-01    3.190000e+00
  P2dr  TN5a  1 3.950000e-01    2.940000e+00
  P2dr  TN4a  1 3.950000e-01    2.700000e+00
  P2dr  TN3a  1 3.950000e-01    2.500000e+00
  P2dr  TN2a  1 3.950000e-01    2.500000e+00
  P2dr  TN1a  1 3.950000e-01    2.500000e+00
  P2dr  TC6e  1 3.950000e-01    2.310000e+00
  P2dr  TC5e  1 3.950000e-01    2.110000e+00
  P2dr  TC4e  1 3.950000e-01    1.850000e+00
  P2dr  TC3e  1 3.950000e-01    1.670000e+00
  P2dr  TC2e  1 3.950000e-01    1.670000e+00
  P2dr  TC1e  1 3.980000e-01    1.450000e+00
  P2dr  TX4e  1 3.950000e-01    2.310000e+00
  P2dr  TX3e  1 3.950000e-01    2.310000e+00
  P2dr  TX2e  1 3.950000e-01    2.110000e+00
  P2dr  TX1e  1 3.950000e-01    1.850000e+00
  P2dr  TC6v  1 3.950000e-01    1.850000e+00
  P2dr  TC5v  1 3.950000e-01    1.670000e+00
  P2dr  TC4v  1 3.980000e-01    1.450000e+00
  P2dr  TC3v  1 3.990000e-01    1.180000e+00
  P2dr  TC2v  1 3.990000e-01    1.180000e+00
  P2dr  TC1v  1 4.010000e-01    9.830000e-01
  P2dr  TX4v  1 3.950000e-01    1.850000e+00
  P2dr  TX3v  1 3.950000e-01    1.850000e+00
  P2dr  TX2v  1 3.950000e-01    1.670000e+00
  P2dr  TX1v  1 3.980000e-01    1.450000e+00
   P6q TP2dr  1 3.950000e-01    3.910000e+00
   P5q TP2dr  1 3.950000e-01    3.670000e+00
   P4q TP2dr  1 3.950000e-01    3.670000e+00
   P3q TP2dr  1 3.950000e-01    3.670000e+00
   P2q TP2dr  1 3.950000e-01    3.670000e+00
  P2dr  TP1q  1 3.950000e-01    3.430000e+00
  P2dr  TN6q  1 3.950000e-01    3.430000e+00
  P2dr  TN5q  1 3.950000e-01    3.190000e+00
  P2dr  TN4q  1 3.950000e-01    2.940000e+00
  P2dr  TN3q  1 3.950000e-01    2.700000e+00
  P2dr  TN2q  1 3.950000e-01    2.700000e+00
  P2dr  TN1q  1 3.950000e-01    2.700000e+00
  P2dr  TC6q  1 3.950000e-01    2.500000e+00
  P2dr  TC5q  1 3.950000e-01    2.310000e+00
  P2dr  TC4q  1 3.950000e-01    2.110000e+00
  P2dr  TC3q  1 3.950000e-01    1.850000e+00
  P2dr  TC2q  1 3.950000e-01    1.850000e+00
  P2dr  TC1q  1 3.950000e-01    1.670000e+00
  P2dr  TX4q  1 3.950000e-01    2.500000e+00
  P2dr  TX3q  1 3.950000e-01    2.500000e+00
  P2dr  TX2q  1 3.950000e-01    2.310000e+00
  P2dr  TX1q  1 3.950000e-01    2.110000e+00
  P6dq TP2dr  1 3.950000e-01    3.670000e+00
  P5dq TP2dr  1 3.950000e-01    3.430000e+00
  P4dq TP2dr  1 3.950000e-01    3.430000e+00
  P3dq TP2dr  1 3.950000e-01    3.430000e+00
  P2dr TP2dq  1 3.950000e-01    3.430000e+00
  P2dr TX1eq  1 3.950000e-01    2.310000e+00
  P2dr TX2eq  1 3.950000e-01    2.500000e+00
  P2dr TX3eq  1 3.950000e-01    2.700000e+00
  P2dr TX4eq  1 3.950000e-01    2.700000e+00
  P2dr TC1eq  1 3.950000e-01    1.850000e+00
  P2dr TC2eq  1 3.950000e-01    2.110000e+00
  P2dr TC3eq  1 3.950000e-01    2.110000e+00
  P2dr TC4eq  1 3.950000e-01    2.310000e+00
  P2dr TC5eq  1 3.950000e-01    2.500000e+00
  P2dr TC6eq  1 3.950000e-01    2.700000e+00
  P2dr TX1vq  1 3.950000e-01    1.850000e+00
  P2dr TX2vq  1 3.950000e-01    2.110000e+00
  P2dr TX3vq  1 3.950000e-01    2.310000e+00
  P2dr TX4vq  1 3.950000e-01    2.310000e+00
  P2dr TC1vq  1 3.980000e-01    1.450000e+00
  P2dr TC2vq  1 3.950000e-01    1.670000e+00
  P2dr TC3vq  1 3.950000e-01    1.670000e+00
  P2dr TC4vq  1 3.950000e-01    1.850000e+00
  P2dr TC5vq  1 3.950000e-01    2.110000e+00
  P2dr TC6vq  1 3.950000e-01    2.310000e+00
  P2dr TN1aq  1 3.950000e-01    2.940000e+00
  P2dr TN2aq  1 3.950000e-01    2.940000e+00
  P2dr TN3aq  1 3.950000e-01    2.940000e+00
  P2dr TN4aq  1 3.950000e-01    3.190000e+00
  P2dr TN5aq  1 3.950000e-01    3.430000e+00
  P2dr TN6aq  1 3.950000e-01    3.670000e+00
  P2dr TP1aq  1 3.950000e-01    3.670000e+00
  P2dr TP2aq  1 3.950000e-01    3.910000e+00
  P3aq TP2dr  1 3.950000e-01    3.910000e+00
  P4aq TP2dr  1 3.950000e-01    3.910000e+00
  P5aq TP2dr  1 3.950000e-01    3.910000e+00
  P6aq TP2dr  1 3.950000e-01    4.230000e+00
  P2dr TN1dq  1 3.950000e-01    2.500000e+00
  P2dr TN2dq  1 3.950000e-01    2.500000e+00
  P2dr TN3dq  1 3.950000e-01    2.500000e+00
  P2dr TN4dq  1 3.950000e-01    2.700000e+00
  P2dr TN5dq  1 3.950000e-01    2.940000e+00
  P2dr TN6dq  1 3.950000e-01    3.190000e+00
  P2dr TP1dq  1 3.950000e-01    3.190000e+00
   P1d TP1dr  1 3.950000e-01    2.700000e+00
  P1dr  TN6d  1 3.950000e-01    2.700000e+00
  P1dr  TN5d  1 3.950000e-01    2.500000e+00
  P1dr  TN4d  1 3.950000e-01    2.500000e+00
  P1dr  TN3d  1 3.950000e-01    2.110000e+00
  P1dr  TN2d  1 3.950000e-01    2.110000e+00
  P1dr  TN1d  1 3.950000e-01    2.110000e+00
   P6a TP1dr  1 3.950000e-01    3.430000e+00
   P5a TP1dr  1 3.950000e-01    3.190000e+00
   P4a TP1dr  1 3.950000e-01    3.190000e+00
   P3a TP1dr  1 3.950000e-01    3.190000e+00
   P2a TP1dr  1 3.950000e-01    3.190000e+00
  P1dr  TP1a  1 3.950000e-01    3.190000e+00
  P1dr  TN6a  1 3.950000e-01    3.190000e+00
  P1dr  TN5a  1 3.950000e-01    2.940000e+00
  P1dr  TN4a  1 3.950000e-01    2.940000e+00
  P1dr  TN3a  1 3.950000e-01    2.500000e+00
  P1dr  TN2a  1 3.950000e-01    2.500000e+00
  P1dr  TN1a  1 3.950000e-01    2.500000e+00
  P1dr  TC6e  1 3.950000e-01    2.310000e+00
  P1dr  TC5e  1 3.950000e-01    2.110000e+00
  P1dr  TC4e  1 3.950000e-01    1.850000e+00
  P1dr  TC3e  1 3.950000e-01    1.670000e+00
  P1dr  TC2e  1 3.950000e-01    1.670000e+00
  P1dr  TC1e  1 3.980000e-01    1.450000e+00
  P1dr  TX4e  1 3.950000e-01    2.310000e+00
  P1dr  TX3e  1 3.950000e-01    2.310000e+00
  P1dr  TX2e  1 3.950000e-01    2.110000e+00
  P1dr  TX1e  1 3.950000e-01    1.850000e+00
  P1dr  TC6v  1 3.950000e-01    1.850000e+00
  P1dr  TC5v  1 3.950000e-01    1.670000e+00
  P1dr  TC4v  1 3.980000e-01    1.450000e+00
  P1dr  TC3v  1 3.990000e-01    1.180000e+00
  P1dr  TC2v  1 3.990000e-01    1.180000e+00
  P1dr  TC1v  1 4.010000e-01    9.830000e-01
  P1dr  TX4v  1 3.950000e-01    1.850000e+00
  P1dr  TX3v  1 3.950000e-01    1.850000e+00
  P1dr  TX2v  1 3.950000e-01    1.670000e+00
  P1dr  TX1v  1 3.980000e-01    1.450000e+00
   P6q TP1dr  1 3.950000e-01    3.670000e+00
   P5q TP1dr  1 3.950000e-01    3.430000e+00
   P4q TP1dr  1 3.950000e-01    3.430000e+00
   P3q TP1dr  1 3.950000e-01    3.430000e+00
   P2q TP1dr  1 3.950000e-01    3.430000e+00
   P1q TP1dr  1 3.950000e-01    3.430000e+00
  P1dr  TN6q  1 3.950000e-01    3.430000e+00
  P1dr  TN5q  1 3.950000e-01    3.190000e+00
  P1dr  TN4q  1 3.950000e-01    3.190000e+00
  P1dr  TN3q  1 3.950000e-01    2.700000e+00
  P1dr  TN2q  1 3.950000e-01    2.700000e+00
  P1dr  TN1q  1 3.950000e-01    2.700000e+00
  P1dr  TC6q  1 3.950000e-01    2.500000e+00
  P1dr  TC5q  1 3.950000e-01    2.310000e+00
  P1dr  TC4q  1 3.950000e-01    2.110000e+00
  P1dr  TC3q  1 3.950000e-01    1.850000e+00
  P1dr  TC2q  1 3.950000e-01    1.850000e+00
  P1dr  TC1q  1 3.950000e-01    1.670000e+00
  P1dr  TX4q  1 3.950000e-01    2.500000e+00
  P1dr  TX3q  1 3.950000e-01    2.500000e+00
  P1dr  TX2q  1 3.950000e-01    2.310000e+00
  P1dr  TX1q  1 3.950000e-01    2.110000e+00
  P6dq TP1dr  1 3.950000e-01    3.430000e+00
  P5dq TP1dr  1 3.950000e-01    3.190000e+00
  P4dq TP1dr  1 3.950000e-01    3.190000e+00
  P3dq TP1dr  1 3.950000e-01    3.190000e+00
  P2dq TP1dr  1 3.950000e-01    3.190000e+00
  P1dr TP1dq  1 3.950000e-01    3.190000e+00
  P1dr TX1eq  1 3.950000e-01    2.310000e+00
  P1dr TX2eq  1 3.950000e-01    2.500000e+00
  P1dr TX3eq  1 3.950000e-01    2.700000e+00
  P1dr TX4eq  1 3.950000e-01    2.700000e+00
  P1dr TC1eq  1 3.950000e-01    1.850000e+00
  P1dr TC2eq  1 3.950000e-01    2.110000e+00
  P1dr TC3eq  1 3.950000e-01    2.110000e+00
  P1dr TC4eq  1 3.950000e-01    2.310000e+00
  P1dr TC5eq  1 3.950000e-01    2.500000e+00
  P1dr TC6eq  1 3.950000e-01    2.700000e+00
  P1dr TX1vq  1 3.950000e-01    1.850000e+00
  P1dr TX2vq  1 3.950000e-01    2.110000e+00
  P1dr TX3vq  1 3.950000e-01    2.310000e+00
  P1dr TX4vq  1 3.950000e-01    2.310000e+00
  P1dr TC1vq  1 3.980000e-01    1.450000e+00
  P1dr TC2vq  1 3.950000e-01    1.670000e+00
  P1dr TC3vq  1 3.950000e-01    1.670000e+00
  P1dr TC4vq  1 3.950000e-01    1.850000e+00
  P1dr TC5vq  1 3.950000e-01    2.110000e+00
  P1dr TC6vq  1 3.950000e-01    2.310000e+00
  P1dr TN1aq  1 3.950000e-01    2.940000e+00
  P1dr TN2aq  1 3.950000e-01    2.940000e+00
  P1dr TN3aq  1 3.950000e-01    2.940000e+00
  P1dr TN4aq  1 3.950000e-01    3.430000e+00
  P1dr TN5aq  1 3.950000e-01    3.430000e+00
  P1dr TN6aq  1 3.950000e-01    3.670000e+00
  P1dr TP1aq  1 3.950000e-01    3.670000e+00
  P2aq TP1dr  1 3.950000e-01    3.670000e+00
  P3aq TP1dr  1 3.950000e-01    3.670000e+00
  P4aq TP1dr  1 3.950000e-01    3.670000e+00
  P5aq TP1dr  1 3.950000e-01    3.670000e+00
  P6aq TP1dr  1 3.950000e-01    3.910000e+00
  P1dr TN1dq  1 3.950000e-01    2.500000e+00
  P1dr TN2dq  1 3.950000e-01    2.500000e+00
  P1dr TN3dq  1 3.950000e-01    2.500000e+00
  P1dr TN4dq  1 3.950000e-01    2.940000e+00
  P1dr TN5dq  1 3.950000e-01    2.940000e+00
  P1dr TN6dq  1 3.950000e-01    3.190000e+00
   N6d TN6dr  1 3.950000e-01    2.700000e+00
  N6dr  TN5d  1 3.950000e-01    2.700000e+00
  N6dr  TN4d  1 3.950000e-01    2.700000e+00
  N6dr  TN3d  1 3.950000e-01    2.310000e+00
  N6dr  TN2d  1 3.950000e-01    2.110000e+00
  N6dr  TN1d  1 3.950000e-01    2.110000e+00
   P6a TN6dr  1 3.950000e-01    3.190000e+00
   P5a TN6dr  1 3.950000e-01    2.940000e+00
   P4a TN6dr  1 3.950000e-01    2.940000e+00
   P3a TN6dr  1 3.950000e-01    2.940000e+00
   P2a TN6dr  1 3.950000e-01    3.190000e+00
   P1a TN6dr  1 3.950000e-01    3.190000e+00
  N6dr  TN6a  1 3.950000e-01    3.190000e+00
  N6dr  TN5a  1 3.950000e-01    3.190000e+00
  N6dr  TN4a  1 3.950000e-01    3.190000e+00
  N6dr  TN3a  1 3.950000e-01    2.700000e+00
  N6dr  TN2a  1 3.950000e-01    2.500000e+00
  N6dr  TN1a  1 3.950000e-01    2.500000e+00
  N6dr  TC6e  1 3.950000e-01    2.500000e+00
  N6dr  TC5e  1 3.950000e-01    2.310000e+00
  N6dr  TC4e  1 3.950000e-01    2.110000e+00
  N6dr  TC3e  1 3.950000e-01    1.850000e+00
  N6dr  TC2e  1 3.950000e-01    1.850000e+00
  N6dr  TC1e  1 3.950000e-01    1.670000e+00
  N6dr  TX4e  1 3.950000e-01    2.500000e+00
  N6dr  TX3e  1 3.950000e-01    2.310000e+00
  N6dr  TX2e  1 3.950000e-01    2.110000e+00
  N6dr  TX1e  1 3.950000e-01    1.850000e+00
  N6dr  TC6v  1 3.950000e-01    2.110000e+00
  N6dr  TC5v  1 3.950000e-01    1.850000e+00
  N6dr  TC4v  1 3.950000e-01    1.670000e+00
  N6dr  TC3v  1 3.980000e-01    1.450000e+00
  N6dr  TC2v  1 3.980000e-01    1.450000e+00
  N6dr  TC1v  1 3.990000e-01    1.180000e+00
  N6dr  TX4v  1 3.950000e-01    2.110000e+00
  N6dr  TX3v  1 3.950000e-01    1.850000e+00
  N6dr  TX2v  1 3.950000e-01    1.670000e+00
  N6dr  TX1v  1 3.980000e-01    1.450000e+00
   P6q TN6dr  1 3.950000e-01    3.430000e+00
   P5q TN6dr  1 3.950000e-01    3.190000e+00
   P4q TN6dr  1 3.950000e-01    3.190000e+00
   P3q TN6dr  1 3.950000e-01    3.190000e+00
   P2q TN6dr  1 3.950000e-01    3.430000e+00
   P1q TN6dr  1 3.950000e-01    3.430000e+00
   N6q TN6dr  1 3.950000e-01    3.430000e+00
  N6dr  TN5q  1 3.950000e-01    3.430000e+00
  N6dr  TN4q  1 3.950000e-01    3.430000e+00
  N6dr  TN3q  1 3.950000e-01    2.940000e+00
  N6dr  TN2q  1 3.950000e-01    2.700000e+00
  N6dr  TN1q  1 3.950000e-01    2.700000e+00
  N6dr  TC6q  1 3.950000e-01    2.700000e+00
  N6dr  TC5q  1 3.950000e-01    2.500000e+00
  N6dr  TC4q  1 3.950000e-01    2.310000e+00
  N6dr  TC3q  1 3.950000e-01    2.110000e+00
  N6dr  TC2q  1 3.950000e-01    2.110000e+00
  N6dr  TC1q  1 3.950000e-01    1.850000e+00
  N6dr  TX4q  1 3.950000e-01    2.700000e+00
  N6dr  TX3q  1 3.950000e-01    2.500000e+00
  N6dr  TX2q  1 3.950000e-01    2.310000e+00
  N6dr  TX1q  1 3.950000e-01    2.110000e+00
  P6dq TN6dr  1 3.950000e-01    3.190000e+00
  P5dq TN6dr  1 3.950000e-01    2.940000e+00
  P4dq TN6dr  1 3.950000e-01    2.940000e+00
  P3dq TN6dr  1 3.950000e-01    2.940000e+00
  P2dq TN6dr  1 3.950000e-01    3.190000e+00
  P1dq TN6dr  1 3.950000e-01    3.190000e+00
  N6dr TN6dq  1 3.950000e-01    3.190000e+00
  N6dr TX1eq  1 3.950000e-01    2.310000e+00
  N6dr TX2eq  1 3.950000e-01    2.500000e+00
  N6dr TX3eq  1 3.950000e-01    2.700000e+00
  N6dr TX4eq  1 3.950000e-01    2.940000e+00
  N6dr TC1eq  1 3.950000e-01    2.110000e+00
  N6dr TC2eq  1 3.950000e-01    2.310000e+00
  N6dr TC3eq  1 3.950000e-01    2.310000e+00
  N6dr TC4eq  1 3.950000e-01    2.500000e+00
  N6dr TC5eq  1 3.950000e-01    2.700000e+00
  N6dr TC6eq  1 3.950000e-01    2.940000e+00
  N6dr TX1vq  1 3.950000e-01    1.850000e+00
  N6dr TX2vq  1 3.950000e-01    2.110000e+00
  N6dr TX3vq  1 3.950000e-01    2.310000e+00
  N6dr TX4vq  1 3.950000e-01    2.500000e+00
  N6dr TC1vq  1 3.950000e-01    1.670000e+00
  N6dr TC2vq  1 3.950000e-01    1.850000e+00
  N6dr TC3vq  1 3.950000e-01    1.850000e+00
  N6dr TC4vq  1 3.950000e-01    2.110000e+00
  N6dr TC5vq  1 3.950000e-01    2.310000e+00
  N6dr TC6vq  1 3.950000e-01    2.500000e+00
  N6dr TN1aq  1 3.950000e-01    2.940000e+00
  N6dr TN2aq  1 3.950000e-01    2.940000e+00
  N6dr TN3aq  1 3.950000e-01    3.190000e+00
  N6dr TN4aq  1 3.950000e-01    3.670000e+00
  N6dr TN5aq  1 3.950000e-01    3.670000e+00
  N6dr TN6aq  1 3.950000e-01    3.670000e+00
  P1aq TN6dr  1 3.950000e-01    3.670000e+00
  P2aq TN6dr  1 3.950000e-01    3.670000e+00
  P3aq TN6dr  1 3.950000e-01    3.430000e+00
  P4aq TN6dr  1 3.950000e-01    3.430000e+00
  P5aq TN6dr  1 3.950000e-01    3.430000e+00
  P6aq TN6dr  1 3.950000e-01    3.670000e+00
  N6dr TN1dq  1 3.950000e-01    2.500000e+00
  N6dr TN2dq  1 3.950000e-01    2.500000e+00
  N6dr TN3dq  1 3.950000e-01    2.700000e+00
  N6dr TN4dq  1 3.950000e-01    3.190000e+00
  N6dr TN5dq  1 3.950000e-01    3.190000e+00
   N5d TN5dr  1 3.950000e-01    2.500000e+00
  N5dr  TN4d  1 3.950000e-01    2.500000e+00
  N5dr  TN3d  1 3.950000e-01    2.310000e+00
  N5dr  TN2d  1 3.950000e-01    2.310000e+00
  N5dr  TN1d  1 3.950000e-01    2.110000e+00
   P6a TN5dr  1 3.950000e-01    2.700000e+00
   P5a TN5dr  1 3.950000e-01    2.700000e+00
   P4a TN5dr  1 3.950000e-01    2.700000e+00
   P3a TN5dr  1 3.950000e-01    2.700000e+00
   P2a TN5dr  1 3.950000e-01    2.940000e+00
   P1a TN5dr  1 3.950000e-01    2.940000e+00
   N6a TN5dr  1 3.950000e-01    3.190000e+00
  N5dr  TN5a  1 3.950000e-01    2.940000e+00
  N5dr  TN4a  1 3.950000e-01    2.940000e+00
  N5dr  TN3a  1 3.950000e-01    2.700000e+00
  N5dr  TN2a  1 3.950000e-01    2.700000e+00
  N5dr  TN1a  1 3.950000e-01    2.500000e+00
  N5dr  TC6e  1 3.950000e-01    2.500000e+00
  N5dr  TC5e  1 3.950000e-01    2.310000e+00
  N5dr  TC4e  1 3.950000e-01    2.110000e+00
  N5dr  TC3e  1 3.950000e-01    2.110000e+00
  N5dr  TC2e  1 3.950000e-01    1.850000e+00
  N5dr  TC1e  1 3.950000e-01    1.670000e+00
  N5dr  TX4e  1 3.950000e-01    2.700000e+00
  N5dr  TX3e  1 3.950000e-01    2.500000e+00
  N5dr  TX2e  1 3.950000e-01    2.310000e+00
  N5dr  TX1e  1 3.950000e-01    2.110000e+00
  N5dr  TC6v  1 3.950000e-01    2.110000e+00
  N5dr  TC5v  1 3.950000e-01    1.850000e+00
  N5dr  TC4v  1 3.950000e-01    1.670000e+00
  N5dr  TC3v  1 3.950000e-01    1.670000e+00
  N5dr  TC2v  1 3.980000e-01    1.450000e+00
  N5dr  TC1v  1 3.990000e-01    1.180000e+00
  N5dr  TX4v  1 3.950000e-01    2.310000e+00
  N5dr  TX3v  1 3.950000e-01    2.110000e+00
  N5dr  TX2v  1 3.950000e-01    1.850000e+00
  N5dr  TX1v  1 3.950000e-01    1.670000e+00
   P6q TN5dr  1 3.950000e-01    2.940000e+00
   P5q TN5dr  1 3.950000e-01    2.940000e+00
   P4q TN5dr  1 3.950000e-01    2.940000e+00
   P3q TN5dr  1 3.950000e-01    2.940000e+00
   P2q TN5dr  1 3.950000e-01    3.190000e+00
   P1q TN5dr  1 3.950000e-01    3.190000e+00
   N6q TN5dr  1 3.950000e-01    3.430000e+00
   N5q TN5dr  1 3.950000e-01    3.190000e+00
  N5dr  TN4q  1 3.950000e-01    3.190000e+00
  N5dr  TN3q  1 3.950000e-01    2.940000e+00
  N5dr  TN2q  1 3.950000e-01    2.940000e+00
  N5dr  TN1q  1 3.950000e-01    2.700000e+00
  N5dr  TC6q  1 3.950000e-01    2.700000e+00
  N5dr  TC5q  1 3.950000e-01    2.500000e+00
  N5dr  TC4q  1 3.950000e-01    2.310000e+00
  N5dr  TC3q  1 3.950000e-01    2.310000e+00
  N5dr  TC2q  1 3.950000e-01    2.110000e+00
  N5dr  TC1q  1 3.950000e-01    1.850000e+00
  N5dr  TX4q  1 3.950000e-01    2.940000e+00
  N5dr  TX3q  1 3.950000e-01    2.700000e+00
  N5dr  TX2q  1 3.950000e-01    2.500000e+00
  N5dr  TX1q  1 3.950000e-01    2.310000e+00
  P6dq TN5dr  1 3.950000e-01    2.700000e+00
  P5dq TN5dr  1 3.950000e-01    2.700000e+00
  P4dq TN5dr  1 3.950000e-01    2.700000e+00
  P3dq TN5dr  1 3.950000e-01    2.700000e+00
  P2dq TN5dr  1 3.950000e-01    2.940000e+00
  P1dq TN5dr  1 3.950000e-01    2.940000e+00
  N6dq TN5dr  1 3.950000e-01    3.190000e+00
  N5dr TN5dq  1 3.950000e-01    2.940000e+00
  N5dr TX1eq  1 3.950000e-01    2.500000e+00
  N5dr TX2eq  1 3.950000e-01    2.700000e+00
  N5dr TX3eq  1 3.950000e-01    2.940000e+00
  N5dr TX4eq  1 3.950000e-01    3.190000e+00
  N5dr TC1eq  1 3.950000e-01    2.110000e+00
  N5dr TC2eq  1 3.950000e-01    2.310000e+00
  N5dr TC3eq  1 3.950000e-01    2.500000e+00
  N5dr TC4eq  1 3.950000e-01    2.500000e+00
  N5dr TC5eq  1 3.950000e-01    2.700000e+00
  N5dr TC6eq  1 3.950000e-01    2.940000e+00
  N5dr TX1vq  1 3.950000e-01    2.110000e+00
  N5dr TX2vq  1 3.950000e-01    2.310000e+00
  N5dr TX3vq  1 3.950000e-01    2.500000e+00
  N5dr TX4vq  1 3.950000e-01    2.700000e+00
  N5dr TC1vq  1 3.950000e-01    1.670000e+00
  N5dr TC2vq  1 3.950000e-01    1.850000e+00
  N5dr TC3vq  1 3.950000e-01    2.110000e+00
  N5dr TC4vq  1 3.950000e-01    2.110000e+00
  N5dr TC5vq  1 3.950000e-01    2.310000e+00
  N5dr TC6vq  1 3.950000e-01    2.500000e+00
  N5dr TN1aq  1 3.950000e-01    2.940000e+00
  N5dr TN2aq  1 3.950000e-01    3.190000e+00
  N5dr TN3aq  1 3.950000e-01    3.190000e+00
  N5dr TN4aq  1 3.950000e-01    3.430000e+00
  N5dr TN5aq  1 3.950000e-01    3.430000e+00
  N6aq TN5dr  1 3.950000e-01    3.670000e+00
  P1aq TN5dr  1 3.950000e-01    3.430000e+00
  P2aq TN5dr  1 3.950000e-01    3.430000e+00
  P3aq TN5dr  1 3.950000e-01    3.190000e+00
  P4aq TN5dr  1 3.950000e-01    3.190000e+00
  P5aq TN5dr  1 3.950000e-01    3.190000e+00
  P6aq TN5dr  1 3.950000e-01    3.190000e+00
  N5dr TN1dq  1 3.950000e-01    2.500000e+00
  N5dr TN2dq  1 3.950000e-01    2.700000e+00
  N5dr TN3dq  1 3.950000e-01    2.700000e+00
  N5dr TN4dq  1 3.950000e-01    2.940000e+00
   N4d TN4dr  1 3.950000e-01    2.500000e+00
  N4dr  TN3d  1 3.950000e-01    2.310000e+00
  N4dr  TN2d  1 3.950000e-01    2.310000e+00
  N4dr  TN1d  1 3.950000e-01    2.110000e+00
   P6a TN4dr  1 3.950000e-01    2.500000e+00
   P5a TN4dr  1 3.950000e-01    2.700000e+00
   P4a TN4dr  1 3.950000e-01    2.700000e+00
   P3a TN4dr  1 3.950000e-01    2.700000e+00
   P2a TN4dr  1 3.950000e-01    2.700000e+00
   P1a TN4dr  1 3.950000e-01    2.940000e+00
   N6a TN4dr  1 3.950000e-01    3.190000e+00
   N5a TN4dr  1 3.950000e-01    2.940000e+00
  N4dr  TN4a  1 3.950000e-01    2.940000e+00
  N4dr  TN3a  1 3.950000e-01    2.700000e+00
  N4dr  TN2a  1 3.950000e-01    2.700000e+00
  N4dr  TN1a  1 3.950000e-01    2.500000e+00
  N4dr  TC6e  1 3.950000e-01    2.500000e+00
  N4dr  TC5e  1 3.950000e-01    2.310000e+00
  N4dr  TC4e  1 3.950000e-01    2.310000e+00
  N4dr  TC3e  1 3.950000e-01    2.110000e+00
  N4dr  TC2e  1 3.950000e-01    1.850000e+00
  N4dr  TC1e  1 3.950000e-01    1.670000e+00
  N4dr  TX4e  1 3.950000e-01    2.940000e+00
  N4dr  TX3e  1 3.950000e-01    2.700000e+00
  N4dr  TX2e  1 3.950000e-01    2.310000e+00
  N4dr  TX1e  1 3.950000e-01    2.110000e+00
  N4dr  TC6v  1 3.950000e-01    2.110000e+00
  N4dr  TC5v  1 3.950000e-01    1.850000e+00
  N4dr  TC4v  1 3.950000e-01    1.850000e+00
  N4dr  TC3v  1 3.950000e-01    1.670000e+00
  N4dr  TC2v  1 3.980000e-01    1.450000e+00
  N4dr  TC1v  1 3.990000e-01    1.180000e+00
  N4dr  TX4v  1 3.950000e-01    2.500000e+00
  N4dr  TX3v  1 3.950000e-01    2.310000e+00
  N4dr  TX2v  1 3.950000e-01    1.850000e+00
  N4dr  TX1v  1 3.950000e-01    1.670000e+00
   P6q TN4dr  1 3.950000e-01    2.700000e+00
   P5q TN4dr  1 3.950000e-01    2.940000e+00
   P4q TN4dr  1 3.950000e-01    2.940000e+00
   P3q TN4dr  1 3.950000e-01    2.940000e+00
   P2q TN4dr  1 3.950000e-01    2.940000e+00
   P1q TN4dr  1 3.950000e-01    3.190000e+00
   N6q TN4dr  1 3.950000e-01    3.430000e+00
   N5q TN4dr  1 3.950000e-01    3.190000e+00
   N4q TN4dr  1 3.950000e-01    3.190000e+00
  N4dr  TN3q  1 3.950000e-01    2.940000e+00
  N4dr  TN2q  1 3.950000e-01    2.940000e+00
  N4dr  TN1q  1 3.950000e-01    2.700000e+00
  N4dr  TC6q  1 3.950000e-01    2.700000e+00
  N4dr  TC5q  1 3.950000e-01    2.500000e+00
  N4dr  TC4q  1 3.950000e-01    2.500000e+00
  N4dr  TC3q  1 3.950000e-01    2.310000e+00
  N4dr  TC2q  1 3.950000e-01    2.110000e+00
  N4dr  TC1q  1 3.950000e-01    1.850000e+00
  N4dr  TX4q  1 3.950000e-01    3.190000e+00
  N4dr  TX3q  1 3.950000e-01    2.940000e+00
  N4dr  TX2q  1 3.950000e-01    2.500000e+00
  N4dr  TX1q  1 3.950000e-01    2.310000e+00
  P6dq TN4dr  1 3.950000e-01    2.500000e+00
  P5dq TN4dr  1 3.950000e-01    2.700000e+00
  P4dq TN4dr  1 3.950000e-01    2.700000e+00
  P3dq TN4dr  1 3.950000e-01    2.700000e+00
  P2dq TN4dr  1 3.950000e-01    2.700000e+00
  P1dq TN4dr  1 3.950000e-01    2.940000e+00
  N6dq TN4dr  1 3.950000e-01    3.190000e+00
  N5dq TN4dr  1 3.950000e-01    2.940000e+00
  N4dr TN4dq  1 3.950000e-01    2.940000e+00
  N4dr TX1eq  1 3.950000e-01    2.500000e+00
  N4dr TX2eq  1 3.950000e-01    2.700000e+00
  N4dr TX3eq  1 3.950000e-01    3.190000e+00
  N4dr TX4eq  1 3.950000e-01    3.430000e+00
  N4dr TC1eq  1 3.950000e-01    2.110000e+00
  N4dr TC2eq  1 3.950000e-01    2.310000e+00
  N4dr TC3eq  1 3.950000e-01    2.500000e+00
  N4dr TC4eq  1 3.950000e-01    2.700000e+00
  N4dr TC5eq  1 3.950000e-01    2.700000e+00
  N4dr TC6eq  1 3.950000e-01    2.940000e+00
  N4dr TX1vq  1 3.950000e-01    2.110000e+00
  N4dr TX2vq  1 3.950000e-01    2.310000e+00
  N4dr TX3vq  1 3.950000e-01    2.700000e+00
  N4dr TX4vq  1 3.950000e-01    2.940000e+00
  N4dr TC1vq  1 3.950000e-01    1.670000e+00
  N4dr TC2vq  1 3.950000e-01    1.850000e+00
  N4dr TC3vq  1 3.950000e-01    2.110000e+00
  N4dr TC4vq  1 3.950000e-01    2.310000e+00
  N4dr TC5vq  1 3.950000e-01    2.310000e+00
  N4dr TC6vq  1 3.950000e-01    2.500000e+00
  N4dr TN1aq  1 3.950000e-01    2.940000e+00
  N4dr TN2aq  1 3.950000e-01    3.190000e+00
  N4dr TN3aq  1 3.950000e-01    3.190000e+00
  N4dr TN4aq  1 3.950000e-01    3.430000e+00
  N5aq TN4dr  1 3.950000e-01    3.430000e+00
  N6aq TN4dr  1 3.950000e-01    3.670000e+00
  P1aq TN4dr  1 3.950000e-01    3.430000e+00
  P2aq TN4dr  1 3.950000e-01    3.190000e+00
  P3aq TN4dr  1 3.950000e-01    3.190000e+00
  P4aq TN4dr  1 3.950000e-01    3.190000e+00
  P5aq TN4dr  1 3.950000e-01    3.190000e+00
  P6aq TN4dr  1 3.950000e-01    2.940000e+00
  N4dr TN1dq  1 3.950000e-01    2.500000e+00
  N4dr TN2dq  1 3.950000e-01    2.700000e+00
  N4dr TN3dq  1 3.950000e-01    2.700000e+00
   N3d TN3dr  1 3.950000e-01    2.310000e+00
  N3dr  TN2d  1 3.950000e-01    2.310000e+00
  N3dr  TN1d  1 3.950000e-01    2.110000e+00
   P6a TN3dr  1 3.950000e-01    2.110000e+00
   P5a TN3dr  1 3.950000e-01    2.110000e+00
   P4a TN3dr  1 3.950000e-01    2.500000e+00
   P3a TN3dr  1 3.950000e-01    2.500000e+00
   P2a TN3dr  1 3.950000e-01    2.500000e+00
   P1a TN3dr  1 3.950000e-01    2.500000e+00
   N6a TN3dr  1 3.950000e-01    2.700000e+00
   N5a TN3dr  1 3.950000e-01    2.700000e+00
   N4a TN3dr  1 3.950000e-01    2.700000e+00
  N3dr  TN3a  1 3.950000e-01    2.700000e+00
  N3dr  TN2a  1 3.950000e-01    2.700000e+00
  N3dr  TN1a  1 3.950000e-01    2.500000e+00
  N3dr  TC6e  1 3.950000e-01    2.500000e+00
  N3dr  TC5e  1 3.950000e-01    2.310000e+00
  N3dr  TC4e  1 3.950000e-01    2.310000e+00
  N3dr  TC3e  1 3.950000e-01    2.110000e+00
  N3dr  TC2e  1 3.950000e-01    2.110000e+00
  N3dr  TC1e  1 3.950000e-01    1.850000e+00
  N3dr  TX4e  1 3.950000e-01    2.700000e+00
  N3dr  TX3e  1 3.950000e-01    2.500000e+00
  N3dr  TX2e  1 3.950000e-01    2.310000e+00
  N3dr  TX1e  1 3.950000e-01    2.310000e+00
  N3dr  TC6v  1 3.950000e-01    2.110000e+00
  N3dr  TC5v  1 3.950000e-01    1.850000e+00
  N3dr  TC4v  1 3.950000e-01    1.850000e+00
  N3dr  TC3v  1 3.950000e-01    1.670000e+00
  N3dr  TC2v  1 3.950000e-01    1.670000e+00
  N3dr  TC1v  1 3.980000e-01    1.450000e+00
  N3dr  TX4v  1 3.950000e-01    2.310000e+00
  N3dr  TX3v  1 3.950000e-01    2.110000e+00
  N3dr  TX2v  1 3.950000e-01    1.850000e+00
  N3dr  TX1v  1 3.950000e-01    1.850000e+00
   P6q TN3dr  1 3.950000e-01    2.500000e+00
   P5q TN3dr  1 3.950000e-01    2.500000e+00
   P4q TN3dr  1 3.950000e-01    2.700000e+00
   P3q TN3dr  1 3.950000e-01    2.700000e+00
   P2q TN3dr  1 3.950000e-01    2.700000e+00
   P1q TN3dr  1 3.950000e-01    2.700000e+00
   N6q TN3dr  1 3.950000e-01    2.940000e+00
   N5q TN3dr  1 3.950000e-01    2.940000e+00
   N4q TN3dr  1 3.950000e-01    2.940000e+00
   N3q TN3dr  1 3.950000e-01    2.940000e+00
  N3dr  TN2q  1 3.950000e-01    2.940000e+00
  N3dr  TN1q  1 3.950000e-01    2.700000e+00
  N3dr  TC6q  1 3.950000e-01    2.700000e+00
  N3dr  TC5q  1 3.950000e-01    2.500000e+00
  N3dr  TC4q  1 3.950000e-01    2.500000e+00
  N3dr  TC3q  1 3.950000e-01    2.310000e+00
  N3dr  TC2q  1 3.950000e-01    2.310000e+00
  N3dr  TC1q  1 3.950000e-01    2.110000e+00
  N3dr  TX4q  1 3.950000e-01    2.940000e+00
  N3dr  TX3q  1 3.950000e-01    2.700000e+00
  N3dr  TX2q  1 3.950000e-01    2.500000e+00
  N3dr  TX1q  1 3.950000e-01    2.500000e+00
  P6dq TN3dr  1 3.950000e-01    2.500000e+00
  P5dq TN3dr  1 3.950000e-01    2.500000e+00
  P4dq TN3dr  1 3.950000e-01    2.500000e+00
  P3dq TN3dr  1 3.950000e-01    2.500000e+00
  P2dq TN3dr  1 3.950000e-01    2.500000e+00
  P1dq TN3dr  1 3.950000e-01    2.500000e+00
  N6dq TN3dr  1 3.950000e-01    2.700000e+00
  N5dq TN3dr  1 3.950000e-01    2.700000e+00
  N4dq TN3dr  1 3.950000e-01    2.700000e+00
  N3dr TN3dq  1 3.950000e-01    2.700000e+00
  N3dr TX1eq  1 3.950000e-01    2.700000e+00
  N3dr TX2eq  1 3.950000e-01    2.700000e+00
  N3dr TX3eq  1 3.950000e-01    2.940000e+00
  N3dr TX4eq  1 3.950000e-01    3.190000e+00
  N3dr TC1eq  1 3.950000e-01    2.310000e+00
  N3dr TC2eq  1 3.950000e-01    2.500000e+00
  N3dr TC3eq  1 3.950000e-01    2.500000e+00
  N3dr TC4eq  1 3.950000e-01    2.700000e+00
  N3dr TC5eq  1 3.950000e-01    2.700000e+00
  N3dr TC6eq  1 3.950000e-01    2.940000e+00
  N3dr TX1vq  1 3.950000e-01    2.310000e+00
  N3dr TX2vq  1 3.950000e-01    2.310000e+00
  N3dr TX3vq  1 3.950000e-01    2.500000e+00
  N3dr TX4vq  1 3.950000e-01    2.700000e+00
  N3dr TC1vq  1 3.950000e-01    1.850000e+00
  N3dr TC2vq  1 3.950000e-01    2.110000e+00
  N3dr TC3vq  1 3.950000e-01    2.110000e+00
  N3dr TC4vq  1 3.950000e-01    2.310000e+00
  N3dr TC5vq  1 3.950000e-01    2.310000e+00
  N3dr TC6vq  1 3.950000e-01    2.500000e+00
  N3dr TN1aq  1 3.950000e-01    2.940000e+00
  N3dr TN2aq  1 3.950000e-01    3.190000e+00
  N3dr TN3aq  1 3.950000e-01    3.190000e+00
  N4aq TN3dr  1 3.950000e-01    3.190000e+00
  N5aq TN3dr  1 3.950000e-01    3.190000e+00
  N6aq TN3dr  1 3.950000e-01    3.190000e+00
  P1aq TN3dr  1 3.950000e-01    2.940000e+00
  P2aq TN3dr  1 3.950000e-01    2.940000e+00
  P3aq TN3dr  1 3.950000e-01    2.940000e+00
  P4aq TN3dr  1 3.950000e-01    2.940000e+00
  P5aq TN3dr  1 3.950000e-01    2.500000e+00
  P6aq TN3dr  1 3.950000e-01    2.500000e+00
  N3dr TN1dq  1 3.950000e-01    2.500000e+00
  N3dr TN2dq  1 3.950000e-01    2.700000e+00
   N2d TN2dr  1 3.950000e-01    2.310000e+00
  N2dr  TN1d  1 3.950000e-01    2.110000e+00
   P6a TN2dr  1 3.950000e-01    1.850000e+00
   P5a TN2dr  1 3.950000e-01    1.850000e+00
   P4a TN2dr  1 3.950000e-01    2.110000e+00
   P3a TN2dr  1 3.950000e-01    2.500000e+00
   P2a TN2dr  1 3.950000e-01    2.500000e+00
   P1a TN2dr  1 3.950000e-01    2.500000e+00
   N6a TN2dr  1 3.950000e-01    2.500000e+00
   N5a TN2dr  1 3.950000e-01    2.700000e+00
   N4a TN2dr  1 3.950000e-01    2.700000e+00
   N3a TN2dr  1 3.950000e-01    2.700000e+00
  N2dr  TN2a  1 3.950000e-01    2.700000e+00
  N2dr  TN1a  1 3.950000e-01    2.500000e+00
  N2dr  TC6e  1 3.950000e-01    2.500000e+00
  N2dr  TC5e  1 3.950000e-01    2.310000e+00
  N2dr  TC4e  1 3.950000e-01    2.310000e+00
  N2dr  TC3e  1 3.950000e-01    2.310000e+00
  N2dr  TC2e  1 3.950000e-01    2.110000e+00
  N2dr  TC1e  1 3.950000e-01    1.850000e+00
  N2dr  TX4e  1 3.950000e-01    2.700000e+00
  N2dr  TX3e  1 3.950000e-01    2.500000e+00
  N2dr  TX2e  1 3.950000e-01    2.310000e+00
  N2dr  TX1e  1 3.950000e-01    2.310000e+00
  N2dr  TC6v  1 3.950000e-01    2.110000e+00
  N2dr  TC5v  1 3.950000e-01    1.850000e+00
  N2dr  TC4v  1 3.950000e-01    1.850000e+00
  N2dr  TC3v  1 3.950000e-01    1.850000e+00
  N2dr  TC2v  1 3.950000e-01    1.670000e+00
  N2dr  TC1v  1 3.980000e-01    1.450000e+00
  N2dr  TX4v  1 3.950000e-01    2.310000e+00
  N2dr  TX3v  1 3.950000e-01    2.110000e+00
  N2dr  TX2v  1 3.950000e-01    1.850000e+00
  N2dr  TX1v  1 3.950000e-01    1.850000e+00
   P6q TN2dr  1 3.950000e-01    2.310000e+00
   P5q TN2dr  1 3.950000e-01    2.310000e+00
   P4q TN2dr  1 3.950000e-01    2.500000e+00
   P3q TN2dr  1 3.950000e-01    2.700000e+00
   P2q TN2dr  1 3.950000e-01    2.700000e+00
   P1q TN2dr  1 3.950000e-01    2.700000e+00
   N6q TN2dr  1 3.950000e-01    2.700000e+00
   N5q TN2dr  1 3.950000e-01    2.940000e+00
   N4q TN2dr  1 3.950000e-01    2.940000e+00
   N3q TN2dr  1 3.950000e-01    2.940000e+00
   N2q TN2dr  1 3.950000e-01    2.940000e+00
  N2dr  TN1q  1 3.950000e-01    2.700000e+00
  N2dr  TC6q  1 3.950000e-01    2.700000e+00
  N2dr  TC5q  1 3.950000e-01    2.500000e+00
  N2dr  TC4q  1 3.950000e-01    2.500000e+00
  N2dr  TC3q  1 3.950000e-01    2.500000e+00
  N2dr  TC2q  1 3.950000e-01    2.310000e+00
  N2dr  TC1q  1 3.950000e-01    2.110000e+00
  N2dr  TX4q  1 3.950000e-01    2.940000e+00
  N2dr  TX3q  1 3.950000e-01    2.700000e+00
  N2dr  TX2q  1 3.950000e-01    2.500000e+00
  N2dr  TX1q  1 3.950000e-01    2.500000e+00
  P6dq TN2dr  1 3.950000e-01    2.310000e+00
  P5dq TN2dr  1 3.950000e-01    2.310000e+00
  P4dq TN2dr  1 3.950000e-01    2.500000e+00
  P3dq TN2dr  1 3.950000e-01    2.500000e+00
  P2dq TN2dr  1 3.950000e-01    2.500000e+00
  P1dq TN2dr  1 3.950000e-01    2.500000e+00
  N6dq TN2dr  1 3.950000e-01    2.500000e+00
  N5dq TN2dr  1 3.950000e-01    2.700000e+00
  N4dq TN2dr  1 3.950000e-01    2.700000e+00
  N3dq TN2dr  1 3.950000e-01    2.700000e+00
  N2dr TN2dq  1 3.950000e-01    2.700000e+00
  N2dr TX1eq  1 3.950000e-01    2.700000e+00
  N2dr TX2eq  1 3.950000e-01    2.700000e+00
  N2dr TX3eq  1 3.950000e-01    2.940000e+00
  N2dr TX4eq  1 3.950000e-01    3.190000e+00
  N2dr TC1eq  1 3.950000e-01    2.310000e+00
  N2dr TC2eq  1 3.950000e-01    2.500000e+00
  N2dr TC3eq  1 3.950000e-01    2.700000e+00
  N2dr TC4eq  1 3.950000e-01    2.700000e+00
  N2dr TC5eq  1 3.950000e-01    2.700000e+00
  N2dr TC6eq  1 3.950000e-01    2.940000e+00
  N2dr TX1vq  1 3.950000e-01    2.310000e+00
  N2dr TX2vq  1 3.950000e-01    2.310000e+00
  N2dr TX3vq  1 3.950000e-01    2.500000e+00
  N2dr TX4vq  1 3.950000e-01    2.700000e+00
  N2dr TC1vq  1 3.950000e-01    1.850000e+00
  N2dr TC2vq  1 3.950000e-01    2.110000e+00
  N2dr TC3vq  1 3.950000e-01    2.310000e+00
  N2dr TC4vq  1 3.950000e-01    2.310000e+00
  N2dr TC5vq  1 3.950000e-01    2.310000e+00
  N2dr TC6vq  1 3.950000e-01    2.500000e+00
  N2dr TN1aq  1 3.950000e-01    2.940000e+00
  N2dr TN2aq  1 3.950000e-01    3.190000e+00
  N3aq TN2dr  1 3.950000e-01    3.190000e+00
  N4aq TN2dr  1 3.950000e-01    3.190000e+00
  N5aq TN2dr  1 3.950000e-01    3.190000e+00
  N6aq TN2dr  1 3.950000e-01    2.940000e+00
  P1aq TN2dr  1 3.950000e-01    2.940000e+00
  P2aq TN2dr  1 3.950000e-01    2.940000e+00
  P3aq TN2dr  1 3.950000e-01    2.940000e+00
  P4aq TN2dr  1 3.950000e-01    2.500000e+00
  P5aq TN2dr  1 3.950000e-01    2.310000e+00
  P6aq TN2dr  1 3.950000e-01    2.310000e+00
  N2dr TN1dq  1 3.950000e-01    2.500000e+00
   N1d TN1dr  1 3.950000e-01    2.310000e+00
   P6a TN1dr  1 3.950000e-01    1.670000e+00
   P5a TN1dr  1 3.950000e-01    1.670000e+00
   P4a TN1dr  1 3.950000e-01    1.850000e+00
   P3a TN1dr  1 3.950000e-01    2.110000e+00
   P2a TN1dr  1 3.950000e-01    2.500000e+00
   P1a TN1dr  1 3.950000e-01    2.500000e+00
   N6a TN1dr  1 3.950000e-01    2.500000e+00
   N5a TN1dr  1 3.950000e-01    2.500000e+00
   N4a TN1dr  1 3.950000e-01    2.500000e+00
   N3a TN1dr  1 3.950000e-01    2.500000e+00
   N2a TN1dr  1 3.950000e-01    2.500000e+00
  N1dr  TN1a  1 3.950000e-01    2.700000e+00
  N1dr  TC6e  1 3.950000e-01    2.700000e+00
  N1dr  TC5e  1 3.950000e-01    2.500000e+00
  N1dr  TC4e  1 3.950000e-01    2.500000e+00
  N1dr  TC3e  1 3.950000e-01    2.310000e+00
  N1dr  TC2e  1 3.950000e-01    2.110000e+00
  N1dr  TC1e  1 3.950000e-01    1.850000e+00
  N1dr  TX4e  1 3.950000e-01    2.500000e+00
  N1dr  TX3e  1 3.950000e-01    2.500000e+00
  N1dr  TX2e  1 3.950000e-01    2.310000e+00
  N1dr  TX1e  1 3.950000e-01    2.310000e+00
  N1dr  TC6v  1 3.950000e-01    2.310000e+00
  N1dr  TC5v  1 3.950000e-01    2.110000e+00
  N1dr  TC4v  1 3.950000e-01    2.110000e+00
  N1dr  TC3v  1 3.950000e-01    1.850000e+00
  N1dr  TC2v  1 3.950000e-01    1.670000e+00
  N1dr  TC1v  1 3.980000e-01    1.450000e+00
  N1dr  TX4v  1 3.950000e-01    2.110000e+00
  N1dr  TX3v  1 3.950000e-01    2.110000e+00
  N1dr  TX2v  1 3.950000e-01    1.850000e+00
  N1dr  TX1v  1 3.950000e-01    1.850000e+00
   P6q TN1dr  1 3.950000e-01    2.110000e+00
   P5q TN1dr  1 3.950000e-01    2.110000e+00
   P4q TN1dr  1 3.950000e-01    2.310000e+00
   P3q TN1dr  1 3.950000e-01    2.500000e+00
   P2q TN1dr  1 3.950000e-01    2.700000e+00
   P1q TN1dr  1 3.950000e-01    2.700000e+00
   N6q TN1dr  1 3.950000e-01    2.700000e+00
   N5q TN1dr  1 3.950000e-01    2.700000e+00
   N4q TN1dr  1 3.950000e-01    2.700000e+00
   N3q TN1dr  1 3.950000e-01    2.700000e+00
   N2q TN1dr  1 3.950000e-01    2.700000e+00
   N1q TN1dr  1 3.950000e-01    2.940000e+00
  N1dr  TC6q  1 3.950000e-01    2.940000e+00
  N1dr  TC5q  1 3.950000e-01    2.700000e+00
  N1dr  TC4q  1 3.950000e-01    2.700000e+00
  N1dr  TC3q  1 3.950000e-01    2.500000e+00
  N1dr  TC2q  1 3.950000e-01    2.310000e+00
  N1dr  TC1q  1 3.950000e-01    2.110000e+00
  N1dr  TX4q  1 3.950000e-01    2.700000e+00
  N1dr  TX3q  1 3.950000e-01    2.700000e+00
  N1dr  TX2q  1 3.950000e-01    2.500000e+00
  N1dr  TX1q  1 3.950000e-01    2.500000e+00
  P6dq TN1dr  1 3.950000e-01    2.110000e+00
  P5dq TN1dr  1 3.950000e-01    2.110000e+00
  P4dq TN1dr  1 3.950000e-01    2.310000e+00
  P3dq TN1dr  1 3.950000e-01    2.500000e+00
  P2dq TN1dr  1 3.950000e-01    2.500000e+00
  P1dq TN1dr  1 3.950000e-01    2.500000e+00
  N6dq TN1dr  1 3.950000e-01    2.500000e+00
  N5dq TN1dr  1 3.950000e-01    2.500000e+00
  N4dq TN1dr  1 3.950000e-01    2.500000e+00
  N3dq TN1dr  1 3.950000e-01    2.500000e+00
  N2dq TN1dr  1 3.950000e-01    2.500000e+00
  N1dr TN1dq  1 3.950000e-01    2.700000e+00
  N1dr TX1eq  1 3.950000e-01    2.700000e+00
  N1dr TX2eq  1 3.950000e-01    2.700000e+00
  N1dr TX3eq  1 3.950000e-01    2.940000e+00
  N1dr TX4eq  1 3.950000e-01    2.940000e+00
  N1dr TC1eq  1 3.950000e-01    2.310000e+00
  N1dr TC2eq  1 3.950000e-01    2.500000e+00
  N1dr TC3eq  1 3.950000e-01    2.700000e+00
  N1dr TC4eq  1 3.950000e-01    2.940000e+00
  N1dr TC5eq  1 3.950000e-01    2.940000e+00
  N1dr TC6eq  1 3.950000e-01    3.190000e+00
  N1dr TX1vq  1 3.950000e-01    2.310000e+00
  N1dr TX2vq  1 3.950000e-01    2.310000e+00
  N1dr TX3vq  1 3.950000e-01    2.500000e+00
  N1dr TX4vq  1 3.950000e-01    2.500000e+00
  N1dr TC1vq  1 3.950000e-01    1.850000e+00
  N1dr TC2vq  1 3.950000e-01    2.110000e+00
  N1dr TC3vq  1 3.950000e-01    2.310000e+00
  N1dr TC4vq  1 3.950000e-01    2.500000e+00
  N1dr TC5vq  1 3.950000e-01    2.500000e+00
  N1dr TC6vq  1 3.950000e-01    2.700000e+00
  N1dr TN1aq  1 3.950000e-01    3.190000e+00
  N2aq TN1dr  1 3.950000e-01    2.940000e+00
  N3aq TN1dr  1 3.950000e-01    2.940000e+00
  N4aq TN1dr  1 3.950000e-01    2.940000e+00
  N5aq TN1dr  1 3.950000e-01    2.940000e+00
  N6aq TN1dr  1 3.950000e-01    2.940000e+00
  P1aq TN1dr  1 3.950000e-01    2.940000e+00
  P2aq TN1dr  1 3.950000e-01    2.940000e+00
  P3aq TN1dr  1 3.950000e-01    2.500000e+00
  P4aq TN1dr  1 3.950000e-01    2.310000e+00
  P5aq TN1dr  1 3.950000e-01    2.110000e+00
  P6aq TN1dr  1 3.950000e-01    2.110000e+00
   P6a TP6ar  1 3.950000e-01    3.910000e+00
  P6ar  TP5a  1 3.950000e-01    3.670000e+00
  P6ar  TP4a  1 3.950000e-01    3.430000e+00
  P6ar  TP3a  1 3.950000e-01    3.190000e+00
  P6ar  TP2a  1 3.950000e-01    3.190000e+00
  P6ar  TP1a  1 3.950000e-01    2.940000e+00
  P6ar  TN6a  1 3.950000e-01    2.700000e+00
  P6ar  TN5a  1 3.950000e-01    2.310000e+00
  P6ar  TN4a  1 3.950000e-01    2.110000e+00
  P6ar  TN3a  1 3.950000e-01    2.110000e+00
  P6ar  TN2a  1 3.950000e-01    1.850000e+00
  P6ar  TN1a  1 3.950000e-01    1.670000e+00
  P6ar  TC6v  1 3.950000e-01    1.850000e+00
  P6ar  TC5v  1 3.950000e-01    1.670000e+00
  P6ar  TC4v  1 3.980000e-01    1.450000e+00
  P6ar  TC3v  1 3.990000e-01    1.180000e+00
  P6ar  TC2v  1 3.990000e-01    1.180000e+00
  P6ar  TC1v  1 4.040000e-01    8.300000e-01
  P6ar  TX4v  1 3.950000e-01    2.110000e+00
  P6ar  TX3v  1 3.950000e-01    2.110000e+00
  P6ar  TX2v  1 3.950000e-01    1.850000e+00
  P6ar  TX1v  1 3.950000e-01    1.670000e+00
  P6ar  TC6e  1 3.980000e-01    1.450000e+00
  P6ar  TC5e  1 3.990000e-01    1.180000e+00
  P6ar  TC4e  1 4.010000e-01    9.830000e-01
  P6ar  TC3e  1 4.040000e-01    8.300000e-01
  P6ar  TC2e  1 4.040000e-01    8.300000e-01
  P6ar  TC1e  1 5.110000e-01    6.590000e-01
  P6ar  TX4e  1 3.950000e-01    1.670000e+00
  P6ar  TX3e  1 3.950000e-01    1.670000e+00
  P6ar  TX2e  1 3.980000e-01    1.450000e+00
  P6ar  TX1e  1 3.990000e-01    1.180000e+00
   P6q TP6ar  1 3.950000e-01    4.870000e+00
  P6ar  TP5q  1 3.950000e-01    4.540000e+00
  P6ar  TP4q  1 3.950000e-01    4.230000e+00
  P6ar  TP3q  1 3.950000e-01    3.910000e+00
  P6ar  TP2q  1 3.950000e-01    3.910000e+00
  P6ar  TP1q  1 3.950000e-01    3.670000e+00
  P6ar  TN6q  1 3.950000e-01    3.430000e+00
  P6ar  TN5q  1 3.950000e-01    2.940000e+00
  P6ar  TN4q  1 3.950000e-01    2.700000e+00
  P6ar  TN3q  1 3.950000e-01    2.500000e+00
  P6ar  TN2q  1 3.950000e-01    2.310000e+00
  P6ar  TN1q  1 3.950000e-01    2.110000e+00
  P6ar  TC6q  1 3.950000e-01    2.110000e+00
  P6ar  TC5q  1 3.950000e-01    1.850000e+00
  P6ar  TC4q  1 3.950000e-01    1.670000e+00
  P6ar  TC3q  1 3.980000e-01    1.450000e+00
  P6ar  TC2q  1 3.980000e-01    1.450000e+00
  P6ar  TC1q  1 4.010000e-01    9.830000e-01
  P6ar  TX4q  1 3.950000e-01    2.310000e+00
  P6ar  TX3q  1 3.950000e-01    2.310000e+00
  P6ar  TX2q  1 3.950000e-01    2.110000e+00
  P6ar  TX1q  1 3.950000e-01    1.850000e+00
  P6dq TP6ar  1 3.950000e-01    5.270000e+00
  P6ar TP5dq  1 3.950000e-01    4.870000e+00
  P6ar TP4dq  1 3.950000e-01    4.540000e+00
  P6ar TP3dq  1 3.950000e-01    4.230000e+00
  P6ar TP2dq  1 3.950000e-01    4.230000e+00
  P6ar TP1dq  1 3.950000e-01    3.910000e+00
  P6ar TN6dq  1 3.950000e-01    3.670000e+00
  P6ar TN5dq  1 3.950000e-01    3.190000e+00
  P6ar TN4dq  1 3.950000e-01    2.940000e+00
  P6ar TN3dq  1 3.950000e-01    2.500000e+00
  P6ar TN2dq  1 3.950000e-01    2.310000e+00
  P6ar TN1dq  1 3.950000e-01    2.110000e+00
  P6ar TP6aq  1 3.950000e-01    4.540000e+00
  P6ar TX1eq  1 3.950000e-01    1.670000e+00
  P6ar TX2eq  1 3.950000e-01    1.850000e+00
  P6ar TX3eq  1 3.950000e-01    2.110000e+00
  P6ar TX4eq  1 3.950000e-01    2.110000e+00
  P6ar TC1eq  1 4.040000e-01    8.300000e-01
  P6ar TC2eq  1 3.990000e-01    1.180000e+00
  P6ar TC3eq  1 3.990000e-01    1.180000e+00
  P6ar TC4eq  1 3.980000e-01    1.450000e+00
  P6ar TC5eq  1 3.950000e-01    1.670000e+00
  P6ar TC6eq  1 3.950000e-01    1.850000e+00
  P6ar TX1vq  1 3.950000e-01    2.110000e+00
  P6ar TX2vq  1 3.950000e-01    2.310000e+00
  P6ar TX3vq  1 3.950000e-01    2.500000e+00
  P6ar TX4vq  1 3.950000e-01    2.500000e+00
  P6ar TC1vq  1 3.990000e-01    1.180000e+00
  P6ar TC2vq  1 3.950000e-01    1.670000e+00
  P6ar TC3vq  1 3.950000e-01    1.670000e+00
  P6ar TC4vq  1 3.950000e-01    1.850000e+00
  P6ar TC5vq  1 3.950000e-01    2.110000e+00
  P6ar TC6vq  1 3.950000e-01    2.310000e+00
  P6ar TN1aq  1 3.950000e-01    2.110000e+00
  P6ar TN2aq  1 3.950000e-01    2.310000e+00
  P6ar TN3aq  1 3.950000e-01    2.500000e+00
  P6ar TN4aq  1 3.950000e-01    2.500000e+00
  P6ar TN5aq  1 3.950000e-01    2.700000e+00
  P6ar TN6aq  1 3.950000e-01    3.190000e+00
  P6ar TP1aq  1 3.950000e-01    3.430000e+00
  P6ar TP2aq  1 3.950000e-01    3.670000e+00
  P6ar TP3aq  1 3.950000e-01    3.670000e+00
  P6ar TP4aq  1 3.950000e-01    3.910000e+00
  P6ar TP5aq  1 3.950000e-01    4.230000e+00
   P5a TP5ar  1 3.950000e-01    3.430000e+00
  P5ar  TP4a  1 3.950000e-01    3.190000e+00
  P5ar  TP3a  1 3.950000e-01    2.940000e+00
  P5ar  TP2a  1 3.950000e-01    2.940000e+00
  P5ar  TP1a  1 3.950000e-01    2.700000e+00
  P5ar  TN6a  1 3.950000e-01    2.500000e+00
  P5ar  TN5a  1 3.950000e-01    2.310000e+00
  P5ar  TN4a  1 3.950000e-01    2.310000e+00
  P5ar  TN3a  1 3.950000e-01    2.110000e+00
  P5ar  TN2a  1 3.950000e-01    1.850000e+00
  P5ar  TN1a  1 3.950000e-01    1.670000e+00
  P5ar  TC6v  1 3.950000e-01    1.850000e+00
  P5ar  TC5v  1 3.950000e-01    1.850000e+00
  P5ar  TC4v  1 3.950000e-01    1.670000e+00
  P5ar  TC3v  1 3.980000e-01    1.450000e+00
  P5ar  TC2v  1 3.980000e-01    1.450000e+00
  P5ar  TC1v  1 3.990000e-01    1.180000e+00
  P5ar  TX4v  1 3.950000e-01    2.310000e+00
  P5ar  TX3v  1 3.950000e-01    2.110000e+00
  P5ar  TX2v  1 3.950000e-01    2.110000e+00
  P5ar  TX1v  1 3.950000e-01    1.670000e+00
  P5ar  TC6e  1 3.980000e-01    1.450000e+00
  P5ar  TC5e  1 3.980000e-01    1.450000e+00
  P5ar  TC4e  1 3.990000e-01    1.180000e+00
  P5ar  TC3e  1 4.010000e-01    9.830000e-01
  P5ar  TC2e  1 4.010000e-01    9.830000e-01
  P5ar  TC1e  1 4.040000e-01    8.300000e-01
  P5ar  TX4e  1 3.950000e-01    1.850000e+00
  P5ar  TX3e  1 3.950000e-01    1.670000e+00
  P5ar  TX2e  1 3.950000e-01    1.670000e+00
  P5ar  TX1e  1 3.990000e-01    1.180000e+00
   P6q TP5ar  1 3.950000e-01    4.540000e+00
   P5q TP5ar  1 3.950000e-01    4.230000e+00
  P5ar  TP4q  1 3.950000e-01    3.910000e+00
  P5ar  TP3q  1 3.950000e-01    3.670000e+00
  P5ar  TP2q  1 3.950000e-01    3.670000e+00
  P5ar  TP1q  1 3.950000e-01    3.430000e+00
  P5ar  TN6q  1 3.950000e-01    3.190000e+00
  P5ar  TN5q  1 3.950000e-01    2.940000e+00
  P5ar  TN4q  1 3.950000e-01    2.940000e+00
  P5ar  TN3q  1 3.950000e-01    2.500000e+00
  P5ar  TN2q  1 3.950000e-01    2.310000e+00
  P5ar  TN1q  1 3.950000e-01    2.110000e+00
  P5ar  TC6q  1 3.950000e-01    2.110000e+00
  P5ar  TC5q  1 3.950000e-01    2.110000e+00
  P5ar  TC4q  1 3.950000e-01    1.850000e+00
  P5ar  TC3q  1 3.950000e-01    1.670000e+00
  P5ar  TC2q  1 3.950000e-01    1.670000e+00
  P5ar  TC1q  1 3.980000e-01    1.450000e+00
  P5ar  TX4q  1 3.950000e-01    2.500000e+00
  P5ar  TX3q  1 3.950000e-01    2.310000e+00
  P5ar  TX2q  1 3.950000e-01    2.310000e+00
  P5ar  TX1q  1 3.950000e-01    1.850000e+00
  P6dq TP5ar  1 3.950000e-01    4.870000e+00
  P5dq TP5ar  1 3.950000e-01    4.540000e+00
  P5ar TP4dq  1 3.950000e-01    4.230000e+00
  P5ar TP3dq  1 3.950000e-01    3.910000e+00
  P5ar TP2dq  1 3.950000e-01    3.910000e+00
  P5ar TP1dq  1 3.950000e-01    3.670000e+00
  P5ar TN6dq  1 3.950000e-01    3.430000e+00
  P5ar TN5dq  1 3.950000e-01    3.190000e+00
  P5ar TN4dq  1 3.950000e-01    3.190000e+00
  P5ar TN3dq  1 3.950000e-01    2.500000e+00
  P5ar TN2dq  1 3.950000e-01    2.310000e+00
  P5ar TN1dq  1 3.950000e-01    2.110000e+00
  P6aq TP5ar  1 3.950000e-01    4.230000e+00
  P5ar TP5aq  1 3.950000e-01    3.910000e+00
  P5ar TX1eq  1 3.950000e-01    1.670000e+00
  P5ar TX2eq  1 3.950000e-01    2.110000e+00
  P5ar TX3eq  1 3.950000e-01    2.110000e+00
  P5ar TX4eq  1 3.950000e-01    2.310000e+00
  P5ar TC1eq  1 3.990000e-01    1.180000e+00
  P5ar TC2eq  1 3.980000e-01    1.450000e+00
  P5ar TC3eq  1 3.980000e-01    1.450000e+00
  P5ar TC4eq  1 3.950000e-01    1.670000e+00
  P5ar TC5eq  1 3.950000e-01    1.850000e+00
  P5ar TC6eq  1 3.950000e-01    1.850000e+00
  P5ar TX1vq  1 3.950000e-01    2.110000e+00
  P5ar TX2vq  1 3.950000e-01    2.500000e+00
  P5ar TX3vq  1 3.950000e-01    2.500000e+00
  P5ar TX4vq  1 3.950000e-01    2.700000e+00
  P5ar TC1vq  1 3.950000e-01    1.670000e+00
  P5ar TC2vq  1 3.950000e-01    1.850000e+00
  P5ar TC3vq  1 3.950000e-01    1.850000e+00
  P5ar TC4vq  1 3.950000e-01    2.110000e+00
  P5ar TC5vq  1 3.950000e-01    2.310000e+00
  P5ar TC6vq  1 3.950000e-01    2.310000e+00
  P5ar TN1aq  1 3.950000e-01    2.110000e+00
  P5ar TN2aq  1 3.950000e-01    2.310000e+00
  P5ar TN3aq  1 3.950000e-01    2.500000e+00
  P5ar TN4aq  1 3.950000e-01    2.700000e+00
  P5ar TN5aq  1 3.950000e-01    2.700000e+00
  P5ar TN6aq  1 3.950000e-01    2.940000e+00
  P5ar TP1aq  1 3.950000e-01    3.190000e+00
  P5ar TP2aq  1 3.950000e-01    3.430000e+00
  P5ar TP3aq  1 3.950000e-01    3.430000e+00
  P5ar TP4aq  1 3.950000e-01    3.670000e+00
   P4a TP4ar  1 3.950000e-01    3.190000e+00
  P4ar  TP3a  1 3.950000e-01    2.940000e+00
  P4ar  TP2a  1 3.950000e-01    2.940000e+00
  P4ar  TP1a  1 3.950000e-01    2.700000e+00
  P4ar  TN6a  1 3.950000e-01    2.500000e+00
  P4ar  TN5a  1 3.950000e-01    2.310000e+00
  P4ar  TN4a  1 3.950000e-01    2.310000e+00
  P4ar  TN3a  1 3.950000e-01    2.110000e+00
  P4ar  TN2a  1 3.950000e-01    2.110000e+00
  P4ar  TN1a  1 3.950000e-01    1.850000e+00
  P4ar  TC6v  1 3.950000e-01    2.110000e+00
  P4ar  TC5v  1 3.950000e-01    1.850000e+00
  P4ar  TC4v  1 3.950000e-01    1.670000e+00
  P4ar  TC3v  1 3.980000e-01    1.450000e+00
  P4ar  TC2v  1 3.980000e-01    1.450000e+00
  P4ar  TC1v  1 3.990000e-01    1.180000e+00
  P4ar  TX4v  1 3.950000e-01    2.310000e+00
  P4ar  TX3v  1 3.950000e-01    2.110000e+00
  P4ar  TX2v  1 3.950000e-01    2.110000e+00
  P4ar  TX1v  1 3.950000e-01    1.850000e+00
  P4ar  TC6e  1 3.950000e-01    1.670000e+00
  P4ar  TC5e  1 3.980000e-01    1.450000e+00
  P4ar  TC4e  1 3.990000e-01    1.180000e+00
  P4ar  TC3e  1 4.010000e-01    9.830000e-01
  P4ar  TC2e  1 4.010000e-01    9.830000e-01
  P4ar  TC1e  1 4.040000e-01    8.300000e-01
  P4ar  TX4e  1 3.950000e-01    1.850000e+00
  P4ar  TX3e  1 3.950000e-01    1.670000e+00
  P4ar  TX2e  1 3.950000e-01    1.670000e+00
  P4ar  TX1e  1 3.980000e-01    1.450000e+00
   P6q TP4ar  1 3.950000e-01    4.230000e+00
   P5q TP4ar  1 3.950000e-01    3.910000e+00
   P4q TP4ar  1 3.950000e-01    3.910000e+00
  P4ar  TP3q  1 3.950000e-01    3.670000e+00
  P4ar  TP2q  1 3.950000e-01    3.670000e+00
  P4ar  TP1q  1 3.950000e-01    3.430000e+00
  P4ar  TN6q  1 3.950000e-01    3.190000e+00
  P4ar  TN5q  1 3.950000e-01    2.940000e+00
  P4ar  TN4q  1 3.950000e-01    2.940000e+00
  P4ar  TN3q  1 3.950000e-01    2.700000e+00
  P4ar  TN2q  1 3.950000e-01    2.500000e+00
  P4ar  TN1q  1 3.950000e-01    2.310000e+00
  P4ar  TC6q  1 3.950000e-01    2.310000e+00
  P4ar  TC5q  1 3.950000e-01    2.110000e+00
  P4ar  TC4q  1 3.950000e-01    1.850000e+00
  P4ar  TC3q  1 3.950000e-01    1.670000e+00
  P4ar  TC2q  1 3.950000e-01    1.670000e+00
  P4ar  TC1q  1 3.980000e-01    1.450000e+00
  P4ar  TX4q  1 3.950000e-01    2.500000e+00
  P4ar  TX3q  1 3.950000e-01    2.310000e+00
  P4ar  TX2q  1 3.950000e-01    2.310000e+00
  P4ar  TX1q  1 3.950000e-01    2.110000e+00
  P6dq TP4ar  1 3.950000e-01    4.540000e+00
  P5dq TP4ar  1 3.950000e-01    4.230000e+00
  P4dq TP4ar  1 3.950000e-01    4.230000e+00
  P4ar TP3dq  1 3.950000e-01    3.910000e+00
  P4ar TP2dq  1 3.950000e-01    3.910000e+00
  P4ar TP1dq  1 3.950000e-01    3.670000e+00
  P4ar TN6dq  1 3.950000e-01    3.430000e+00
  P4ar TN5dq  1 3.950000e-01    3.190000e+00
  P4ar TN4dq  1 3.950000e-01    3.190000e+00
  P4ar TN3dq  1 3.950000e-01    2.940000e+00
  P4ar TN2dq  1 3.950000e-01    2.500000e+00
  P4ar TN1dq  1 3.950000e-01    2.310000e+00
  P6aq TP4ar  1 3.950000e-01    3.910000e+00
  P5aq TP4ar  1 3.950000e-01    3.670000e+00
  P4ar TP4aq  1 3.950000e-01    3.670000e+00
  P4ar TX1eq  1 3.950000e-01    1.850000e+00
  P4ar TX2eq  1 3.950000e-01    2.110000e+00
  P4ar TX3eq  1 3.950000e-01    2.110000e+00
  P4ar TX4eq  1 3.950000e-01    2.310000e+00
  P4ar TC1eq  1 3.990000e-01    1.180000e+00
  P4ar TC2eq  1 3.980000e-01    1.450000e+00
  P4ar TC3eq  1 3.980000e-01    1.450000e+00
  P4ar TC4eq  1 3.950000e-01    1.670000e+00
  P4ar TC5eq  1 3.950000e-01    1.850000e+00
  P4ar TC6eq  1 3.950000e-01    2.110000e+00
  P4ar TX1vq  1 3.950000e-01    2.310000e+00
  P4ar TX2vq  1 3.950000e-01    2.500000e+00
  P4ar TX3vq  1 3.950000e-01    2.500000e+00
  P4ar TX4vq  1 3.950000e-01    2.700000e+00
  P4ar TC1vq  1 3.950000e-01    1.670000e+00
  P4ar TC2vq  1 3.950000e-01    1.850000e+00
  P4ar TC3vq  1 3.950000e-01    1.850000e+00
  P4ar TC4vq  1 3.950000e-01    2.110000e+00
  P4ar TC5vq  1 3.950000e-01    2.310000e+00
  P4ar TC6vq  1 3.950000e-01    2.500000e+00
  P4ar TN1aq  1 3.950000e-01    2.310000e+00
  P4ar TN2aq  1 3.950000e-01    2.500000e+00
  P4ar TN3aq  1 3.950000e-01    2.500000e+00
  P4ar TN4aq  1 3.950000e-01    2.700000e+00
  P4ar TN5aq  1 3.950000e-01    2.700000e+00
  P4ar TN6aq  1 3.950000e-01    2.940000e+00
  P4ar TP1aq  1 3.950000e-01    3.190000e+00
  P4ar TP2aq  1 3.950000e-01    3.430000e+00
  P4ar TP3aq  1 3.950000e-01    3.430000e+00
   P3a TP3ar  1 3.950000e-01    2.940000e+00
  P3ar  TP2a  1 3.950000e-01    2.940000e+00
  P3ar  TP1a  1 3.950000e-01    2.700000e+00
  P3ar  TN6a  1 3.950000e-01    2.500000e+00
  P3ar  TN5a  1 3.950000e-01    2.310000e+00
  P3ar  TN4a  1 3.950000e-01    2.310000e+00
  P3ar  TN3a  1 3.950000e-01    2.110000e+00
  P3ar  TN2a  1 3.950000e-01    2.110000e+00
  P3ar  TN1a  1 3.950000e-01    2.110000e+00
  P3ar  TC6v  1 3.950000e-01    2.310000e+00
  P3ar  TC5v  1 3.950000e-01    2.110000e+00
  P3ar  TC4v  1 3.950000e-01    1.850000e+00
  P3ar  TC3v  1 3.980000e-01    1.450000e+00
  P3ar  TC2v  1 3.980000e-01    1.450000e+00
  P3ar  TC1v  1 3.990000e-01    1.180000e+00
  P3ar  TX4v  1 3.950000e-01    2.310000e+00
  P3ar  TX3v  1 3.950000e-01    2.310000e+00
  P3ar  TX2v  1 3.950000e-01    2.110000e+00
  P3ar  TX1v  1 3.950000e-01    1.850000e+00
  P3ar  TC6e  1 3.950000e-01    1.850000e+00
  P3ar  TC5e  1 3.950000e-01    1.670000e+00
  P3ar  TC4e  1 3.980000e-01    1.450000e+00
  P3ar  TC3e  1 4.010000e-01    9.830000e-01
  P3ar  TC2e  1 4.010000e-01    9.830000e-01
  P3ar  TC1e  1 4.040000e-01    8.300000e-01
  P3ar  TX4e  1 3.950000e-01    1.850000e+00
  P3ar  TX3e  1 3.950000e-01    1.850000e+00
  P3ar  TX2e  1 3.950000e-01    1.670000e+00
  P3ar  TX1e  1 3.980000e-01    1.450000e+00
   P6q TP3ar  1 3.950000e-01    3.910000e+00
   P5q TP3ar  1 3.950000e-01    3.670000e+00
   P4q TP3ar  1 3.950000e-01    3.670000e+00
   P3q TP3ar  1 3.950000e-01    3.670000e+00
  P3ar  TP2q  1 3.950000e-01    3.670000e+00
  P3ar  TP1q  1 3.950000e-01    3.430000e+00
  P3ar  TN6q  1 3.950000e-01    3.190000e+00
  P3ar  TN5q  1 3.950000e-01    2.940000e+00
  P3ar  TN4q  1 3.950000e-01    2.940000e+00
  P3ar  TN3q  1 3.950000e-01    2.700000e+00
  P3ar  TN2q  1 3.950000e-01    2.700000e+00
  P3ar  TN1q  1 3.950000e-01    2.500000e+00
  P3ar  TC6q  1 3.950000e-01    2.500000e+00
  P3ar  TC5q  1 3.950000e-01    2.310000e+00
  P3ar  TC4q  1 3.950000e-01    2.110000e+00
  P3ar  TC3q  1 3.950000e-01    1.670000e+00
  P3ar  TC2q  1 3.950000e-01    1.670000e+00
  P3ar  TC1q  1 3.980000e-01    1.450000e+00
  P3ar  TX4q  1 3.950000e-01    2.500000e+00
  P3ar  TX3q  1 3.950000e-01    2.500000e+00
  P3ar  TX2q  1 3.950000e-01    2.310000e+00
  P3ar  TX1q  1 3.950000e-01    2.110000e+00
  P6dq TP3ar  1 3.950000e-01    4.230000e+00
  P5dq TP3ar  1 3.950000e-01    3.910000e+00
  P4dq TP3ar  1 3.950000e-01    3.910000e+00
  P3dq TP3ar  1 3.950000e-01    3.910000e+00
  P3ar TP2dq  1 3.950000e-01    3.910000e+00
  P3ar TP1dq  1 3.950000e-01    3.670000e+00
  P3ar TN6dq  1 3.950000e-01    3.430000e+00
  P3ar TN5dq  1 3.950000e-01    3.190000e+00
  P3ar TN4dq  1 3.950000e-01    3.190000e+00
  P3ar TN3dq  1 3.950000e-01    2.940000e+00
  P3ar TN2dq  1 3.950000e-01    2.940000e+00
  P3ar TN1dq  1 3.950000e-01    2.500000e+00
  P6aq TP3ar  1 3.950000e-01    3.670000e+00
  P5aq TP3ar  1 3.950000e-01    3.430000e+00
  P4aq TP3ar  1 3.950000e-01    3.430000e+00
  P3ar TP3aq  1 3.950000e-01    3.430000e+00
  P3ar TX1eq  1 3.950000e-01    1.850000e+00
  P3ar TX2eq  1 3.950000e-01    2.110000e+00
  P3ar TX3eq  1 3.950000e-01    2.310000e+00
  P3ar TX4eq  1 3.950000e-01    2.310000e+00
  P3ar TC1eq  1 3.990000e-01    1.180000e+00
  P3ar TC2eq  1 3.980000e-01    1.450000e+00
  P3ar TC3eq  1 3.980000e-01    1.450000e+00
  P3ar TC4eq  1 3.950000e-01    1.850000e+00
  P3ar TC5eq  1 3.950000e-01    2.110000e+00
  P3ar TC6eq  1 3.950000e-01    2.310000e+00
  P3ar TX1vq  1 3.950000e-01    2.310000e+00
  P3ar TX2vq  1 3.950000e-01    2.500000e+00
  P3ar TX3vq  1 3.950000e-01    2.700000e+00
  P3ar TX4vq  1 3.950000e-01    2.700000e+00
  P3ar TC1vq  1 3.950000e-01    1.670000e+00
  P3ar TC2vq  1 3.950000e-01    1.850000e+00
  P3ar TC3vq  1 3.950000e-01    1.850000e+00
  P3ar TC4vq  1 3.950000e-01    2.310000e+00
  P3ar TC5vq  1 3.950000e-01    2.500000e+00
  P3ar TC6vq  1 3.950000e-01    2.700000e+00
  P3ar TN1aq  1 3.950000e-01    2.500000e+00
  P3ar TN2aq  1 3.950000e-01    2.500000e+00
  P3ar TN3aq  1 3.950000e-01    2.500000e+00
  P3ar TN4aq  1 3.950000e-01    2.700000e+00
  P3ar TN5aq  1 3.950000e-01    2.700000e+00
  P3ar TN6aq  1 3.950000e-01    2.940000e+00
  P3ar TP1aq  1 3.950000e-01    3.190000e+00
  P3ar TP2aq  1 3.950000e-01    3.430000e+00
   P2a TP2ar  1 3.950000e-01    2.940000e+00
  P2ar  TP1a  1 3.950000e-01    2.700000e+00
  P2ar  TN6a  1 3.950000e-01    2.700000e+00
  P2ar  TN5a  1 3.950000e-01    2.500000e+00
  P2ar  TN4a  1 3.950000e-01    2.310000e+00
  P2ar  TN3a  1 3.950000e-01    2.110000e+00
  P2ar  TN2a  1 3.950000e-01    2.110000e+00
  P2ar  TN1a  1 3.950000e-01    2.110000e+00
  P2ar  TC6v  1 3.950000e-01    2.310000e+00
  P2ar  TC5v  1 3.950000e-01    2.110000e+00
  P2ar  TC4v  1 3.950000e-01    1.850000e+00
  P2ar  TC3v  1 3.950000e-01    1.670000e+00
  P2ar  TC2v  1 3.950000e-01    1.670000e+00
  P2ar  TC1v  1 3.980000e-01    1.450000e+00
  P2ar  TX4v  1 3.950000e-01    2.310000e+00
  P2ar  TX3v  1 3.950000e-01    2.310000e+00
  P2ar  TX2v  1 3.950000e-01    2.110000e+00
  P2ar  TX1v  1 3.950000e-01    1.850000e+00
  P2ar  TC6e  1 3.950000e-01    1.850000e+00
  P2ar  TC5e  1 3.950000e-01    1.670000e+00
  P2ar  TC4e  1 3.980000e-01    1.450000e+00
  P2ar  TC3e  1 3.990000e-01    1.180000e+00
  P2ar  TC2e  1 3.990000e-01    1.180000e+00
  P2ar  TC1e  1 4.010000e-01    9.830000e-01
  P2ar  TX4e  1 3.950000e-01    1.850000e+00
  P2ar  TX3e  1 3.950000e-01    1.850000e+00
  P2ar  TX2e  1 3.950000e-01    1.670000e+00
  P2ar  TX1e  1 3.980000e-01    1.450000e+00
   P6q TP2ar  1 3.950000e-01    3.910000e+00
   P5q TP2ar  1 3.950000e-01    3.670000e+00
   P4q TP2ar  1 3.950000e-01    3.670000e+00
   P3q TP2ar  1 3.950000e-01    3.670000e+00
   P2q TP2ar  1 3.950000e-01    3.670000e+00
  P2ar  TP1q  1 3.950000e-01    3.430000e+00
  P2ar  TN6q  1 3.950000e-01    3.430000e+00
  P2ar  TN5q  1 3.950000e-01    3.190000e+00
  P2ar  TN4q  1 3.950000e-01    2.940000e+00
  P2ar  TN3q  1 3.950000e-01    2.700000e+00
  P2ar  TN2q  1 3.950000e-01    2.700000e+00
  P2ar  TN1q  1 3.950000e-01    2.700000e+00
  P2ar  TC6q  1 3.950000e-01    2.500000e+00
  P2ar  TC5q  1 3.950000e-01    2.310000e+00
  P2ar  TC4q  1 3.950000e-01    2.110000e+00
  P2ar  TC3q  1 3.950000e-01    1.850000e+00
  P2ar  TC2q  1 3.950000e-01    1.850000e+00
  P2ar  TC1q  1 3.950000e-01    1.670000e+00
  P2ar  TX4q  1 3.950000e-01    2.500000e+00
  P2ar  TX3q  1 3.950000e-01    2.500000e+00
  P2ar  TX2q  1 3.950000e-01    2.310000e+00
  P2ar  TX1q  1 3.950000e-01    2.110000e+00
  P6dq TP2ar  1 3.950000e-01    4.230000e+00
  P5dq TP2ar  1 3.950000e-01    3.910000e+00
  P4dq TP2ar  1 3.950000e-01    3.910000e+00
  P3dq TP2ar  1 3.950000e-01    3.910000e+00
  P2dq TP2ar  1 3.950000e-01    3.910000e+00
  P2ar TP1dq  1 3.950000e-01    3.670000e+00
  P2ar TN6dq  1 3.950000e-01    3.670000e+00
  P2ar TN5dq  1 3.950000e-01    3.430000e+00
  P2ar TN4dq  1 3.950000e-01    3.190000e+00
  P2ar TN3dq  1 3.950000e-01    2.940000e+00
  P2ar TN2dq  1 3.950000e-01    2.940000e+00
  P2ar TN1dq  1 3.950000e-01    2.940000e+00
  P6aq TP2ar  1 3.950000e-01    3.670000e+00
  P5aq TP2ar  1 3.950000e-01    3.430000e+00
  P4aq TP2ar  1 3.950000e-01    3.430000e+00
  P3aq TP2ar  1 3.950000e-01    3.430000e+00
  P2ar TP2aq  1 3.950000e-01    3.430000e+00
  P2ar TX1eq  1 3.950000e-01    1.850000e+00
  P2ar TX2eq  1 3.950000e-01    2.110000e+00
  P2ar TX3eq  1 3.950000e-01    2.310000e+00
  P2ar TX4eq  1 3.950000e-01    2.310000e+00
  P2ar TC1eq  1 3.980000e-01    1.450000e+00
  P2ar TC2eq  1 3.950000e-01    1.670000e+00
  P2ar TC3eq  1 3.950000e-01    1.670000e+00
  P2ar TC4eq  1 3.950000e-01    1.850000e+00
  P2ar TC5eq  1 3.950000e-01    2.110000e+00
  P2ar TC6eq  1 3.950000e-01    2.310000e+00
  P2ar TX1vq  1 3.950000e-01    2.310000e+00
  P2ar TX2vq  1 3.950000e-01    2.500000e+00
  P2ar TX3vq  1 3.950000e-01    2.700000e+00
  P2ar TX4vq  1 3.950000e-01    2.700000e+00
  P2ar TC1vq  1 3.950000e-01    1.850000e+00
  P2ar TC2vq  1 3.950000e-01    2.110000e+00
  P2ar TC3vq  1 3.950000e-01    2.110000e+00
  P2ar TC4vq  1 3.950000e-01    2.310000e+00
  P2ar TC5vq  1 3.950000e-01    2.500000e+00
  P2ar TC6vq  1 3.950000e-01    2.700000e+00
  P2ar TN1aq  1 3.950000e-01    2.500000e+00
  P2ar TN2aq  1 3.950000e-01    2.500000e+00
  P2ar TN3aq  1 3.950000e-01    2.500000e+00
  P2ar TN4aq  1 3.950000e-01    2.700000e+00
  P2ar TN5aq  1 3.950000e-01    2.940000e+00
  P2ar TN6aq  1 3.950000e-01    3.190000e+00
  P2ar TP1aq  1 3.950000e-01    3.190000e+00
   P1a TP1ar  1 3.950000e-01    2.700000e+00
  P1ar  TN6a  1 3.950000e-01    2.700000e+00
  P1ar  TN5a  1 3.950000e-01    2.500000e+00
  P1ar  TN4a  1 3.950000e-01    2.500000e+00
  P1ar  TN3a  1 3.950000e-01    2.110000e+00
  P1ar  TN2a  1 3.950000e-01    2.110000e+00
  P1ar  TN1a  1 3.950000e-01    2.110000e+00
  P1ar  TC6v  1 3.950000e-01    2.310000e+00
  P1ar  TC5v  1 3.950000e-01    2.110000e+00
  P1ar  TC4v  1 3.950000e-01    1.850000e+00
  P1ar  TC3v  1 3.950000e-01    1.670000e+00
  P1ar  TC2v  1 3.950000e-01    1.670000e+00
  P1ar  TC1v  1 3.980000e-01    1.450000e+00
  P1ar  TX4v  1 3.950000e-01    2.310000e+00
  P1ar  TX3v  1 3.950000e-01    2.310000e+00
  P1ar  TX2v  1 3.950000e-01    2.110000e+00
  P1ar  TX1v  1 3.950000e-01    1.850000e+00
  P1ar  TC6e  1 3.950000e-01    1.850000e+00
  P1ar  TC5e  1 3.950000e-01    1.670000e+00
  P1ar  TC4e  1 3.980000e-01    1.450000e+00
  P1ar  TC3e  1 3.990000e-01    1.180000e+00
  P1ar  TC2e  1 3.990000e-01    1.180000e+00
  P1ar  TC1e  1 4.010000e-01    9.830000e-01
  P1ar  TX4e  1 3.950000e-01    1.850000e+00
  P1ar  TX3e  1 3.950000e-01    1.850000e+00
  P1ar  TX2e  1 3.950000e-01    1.670000e+00
  P1ar  TX1e  1 3.980000e-01    1.450000e+00
   P6q TP1ar  1 3.950000e-01    3.670000e+00
   P5q TP1ar  1 3.950000e-01    3.430000e+00
   P4q TP1ar  1 3.950000e-01    3.430000e+00
   P3q TP1ar  1 3.950000e-01    3.430000e+00
   P2q TP1ar  1 3.950000e-01    3.430000e+00
   P1q TP1ar  1 3.950000e-01    3.430000e+00
  P1ar  TN6q  1 3.950000e-01    3.430000e+00
  P1ar  TN5q  1 3.950000e-01    3.190000e+00
  P1ar  TN4q  1 3.950000e-01    3.190000e+00
  P1ar  TN3q  1 3.950000e-01    2.700000e+00
  P1ar  TN2q  1 3.950000e-01    2.700000e+00
  P1ar  TN1q  1 3.950000e-01    2.700000e+00
  P1ar  TC6q  1 3.950000e-01    2.500000e+00
  P1ar  TC5q  1 3.950000e-01    2.310000e+00
  P1ar  TC4q  1 3.950000e-01    2.110000e+00
  P1ar  TC3q  1 3.950000e-01    1.850000e+00
  P1ar  TC2q  1 3.950000e-01    1.850000e+00
  P1ar  TC1q  1 3.950000e-01    1.670000e+00
  P1ar  TX4q  1 3.950000e-01    2.500000e+00
  P1ar  TX3q  1 3.950000e-01    2.500000e+00
  P1ar  TX2q  1 3.950000e-01    2.310000e+00
  P1ar  TX1q  1 3.950000e-01    2.110000e+00
  P6dq TP1ar  1 3.950000e-01    3.910000e+00
  P5dq TP1ar  1 3.950000e-01    3.670000e+00
  P4dq TP1ar  1 3.950000e-01    3.670000e+00
  P3dq TP1ar  1 3.950000e-01    3.670000e+00
  P2dq TP1ar  1 3.950000e-01    3.670000e+00
  P1dq TP1ar  1 3.950000e-01    3.670000e+00
  P1ar TN6dq  1 3.950000e-01    3.670000e+00
  P1ar TN5dq  1 3.950000e-01    3.430000e+00
  P1ar TN4dq  1 3.950000e-01    3.430000e+00
  P1ar TN3dq  1 3.950000e-01    2.940000e+00
  P1ar TN2dq  1 3.950000e-01    2.940000e+00
  P1ar TN1dq  1 3.950000e-01    2.940000e+00
  P6aq TP1ar  1 3.950000e-01    3.430000e+00
  P5aq TP1ar  1 3.950000e-01    3.190000e+00
  P4aq TP1ar  1 3.950000e-01    3.190000e+00
  P3aq TP1ar  1 3.950000e-01    3.190000e+00
  P2aq TP1ar  1 3.950000e-01    3.190000e+00
  P1ar TP1aq  1 3.950000e-01    3.190000e+00
  P1ar TX1eq  1 3.950000e-01    1.850000e+00
  P1ar TX2eq  1 3.950000e-01    2.110000e+00
  P1ar TX3eq  1 3.950000e-01    2.310000e+00
  P1ar TX4eq  1 3.950000e-01    2.310000e+00
  P1ar TC1eq  1 3.980000e-01    1.450000e+00
  P1ar TC2eq  1 3.950000e-01    1.670000e+00
  P1ar TC3eq  1 3.950000e-01    1.670000e+00
  P1ar TC4eq  1 3.950000e-01    1.850000e+00
  P1ar TC5eq  1 3.950000e-01    2.110000e+00
  P1ar TC6eq  1 3.950000e-01    2.310000e+00
  P1ar TX1vq  1 3.950000e-01    2.310000e+00
  P1ar TX2vq  1 3.950000e-01    2.500000e+00
  P1ar TX3vq  1 3.950000e-01    2.700000e+00
  P1ar TX4vq  1 3.950000e-01    2.700000e+00
  P1ar TC1vq  1 3.950000e-01    1.850000e+00
  P1ar TC2vq  1 3.950000e-01    2.110000e+00
  P1ar TC3vq  1 3.950000e-01    2.110000e+00
  P1ar TC4vq  1 3.950000e-01    2.310000e+00
  P1ar TC5vq  1 3.950000e-01    2.500000e+00
  P1ar TC6vq  1 3.950000e-01    2.700000e+00
  P1ar TN1aq  1 3.950000e-01    2.500000e+00
  P1ar TN2aq  1 3.950000e-01    2.500000e+00
  P1ar TN3aq  1 3.950000e-01    2.500000e+00
  P1ar TN4aq  1 3.950000e-01    2.940000e+00
  P1ar TN5aq  1 3.950000e-01    2.940000e+00
  P1ar TN6aq  1 3.950000e-01    3.190000e+00
   N6a TN6ar  1 3.950000e-01    2.700000e+00
  N6ar  TN5a  1 3.950000e-01    2.700000e+00
  N6ar  TN4a  1 3.950000e-01    2.700000e+00
  N6ar  TN3a  1 3.950000e-01    2.310000e+00
  N6ar  TN2a  1 3.950000e-01    2.110000e+00
  N6ar  TN1a  1 3.950000e-01    2.110000e+00
  N6ar  TC6v  1 3.950000e-01    2.500000e+00
  N6ar  TC5v  1 3.950000e-01    2.310000e+00
  N6ar  TC4v  1 3.950000e-01    2.110000e+00
  N6ar  TC3v  1 3.950000e-01    1.850000e+00
  N6ar  TC2v  1 3.950000e-01    1.850000e+00
  N6ar  TC1v  1 3.950000e-01    1.670000e+00
  N6ar  TX4v  1 3.950000e-01    2.500000e+00
  N6ar  TX3v  1 3.950000e-01    2.310000e+00
  N6ar  TX2v  1 3.950000e-01    2.110000e+00
  N6ar  TX1v  1 3.950000e-01    1.850000e+00
  N6ar  TC6e  1 3.950000e-01    2.110000e+00
  N6ar  TC5e  1 3.950000e-01    1.850000e+00
  N6ar  TC4e  1 3.950000e-01    1.670000e+00
  N6ar  TC3e  1 3.980000e-01    1.450000e+00
  N6ar  TC2e  1 3.980000e-01    1.450000e+00
  N6ar  TC1e  1 3.990000e-01    1.180000e+00
  N6ar  TX4e  1 3.950000e-01    2.110000e+00
  N6ar  TX3e  1 3.950000e-01    1.850000e+00
  N6ar  TX2e  1 3.950000e-01    1.670000e+00
  N6ar  TX1e  1 3.980000e-01    1.450000e+00
   P6q TN6ar  1 3.950000e-01    3.430000e+00
   P5q TN6ar  1 3.950000e-01    3.190000e+00
   P4q TN6ar  1 3.950000e-01    3.190000e+00
   P3q TN6ar  1 3.950000e-01    3.190000e+00
   P2q TN6ar  1 3.950000e-01    3.430000e+00
   P1q TN6ar  1 3.950000e-01    3.430000e+00
   N6q TN6ar  1 3.950000e-01    3.430000e+00
  N6ar  TN5q  1 3.950000e-01    3.430000e+00
  N6ar  TN4q  1 3.950000e-01    3.430000e+00
  N6ar  TN3q  1 3.950000e-01    2.940000e+00
  N6ar  TN2q  1 3.950000e-01    2.700000e+00
  N6ar  TN1q  1 3.950000e-01    2.700000e+00
  N6ar  TC6q  1 3.950000e-01    2.700000e+00
  N6ar  TC5q  1 3.950000e-01    2.500000e+00
  N6ar  TC4q  1 3.950000e-01    2.310000e+00
  N6ar  TC3q  1 3.950000e-01    2.110000e+00
  N6ar  TC2q  1 3.950000e-01    2.110000e+00
  N6ar  TC1q  1 3.950000e-01    1.850000e+00
  N6ar  TX4q  1 3.950000e-01    2.700000e+00
  N6ar  TX3q  1 3.950000e-01    2.500000e+00
  N6ar  TX2q  1 3.950000e-01    2.310000e+00
  N6ar  TX1q  1 3.950000e-01    2.110000e+00
  P6dq TN6ar  1 3.950000e-01    3.670000e+00
  P5dq TN6ar  1 3.950000e-01    3.430000e+00
  P4dq TN6ar  1 3.950000e-01    3.430000e+00
  P3dq TN6ar  1 3.950000e-01    3.430000e+00
  P2dq TN6ar  1 3.950000e-01    3.670000e+00
  P1dq TN6ar  1 3.950000e-01    3.670000e+00
  N6dq TN6ar  1 3.950000e-01    3.670000e+00
  N6ar TN5dq  1 3.950000e-01    3.670000e+00
  N6ar TN4dq  1 3.950000e-01    3.670000e+00
  N6ar TN3dq  1 3.950000e-01    3.190000e+00
  N6ar TN2dq  1 3.950000e-01    2.940000e+00
  N6ar TN1dq  1 3.950000e-01    2.940000e+00
  P6aq TN6ar  1 3.950000e-01    3.190000e+00
  P5aq TN6ar  1 3.950000e-01    2.940000e+00
  P4aq TN6ar  1 3.950000e-01    2.940000e+00
  P3aq TN6ar  1 3.950000e-01    2.940000e+00
  P2aq TN6ar  1 3.950000e-01    3.190000e+00
  P1aq TN6ar  1 3.950000e-01    3.190000e+00
  N6ar TN6aq  1 3.950000e-01    3.190000e+00
  N6ar TX1eq  1 3.950000e-01    1.850000e+00
  N6ar TX2eq  1 3.950000e-01    2.110000e+00
  N6ar TX3eq  1 3.950000e-01    2.310000e+00
  N6ar TX4eq  1 3.950000e-01    2.500000e+00
  N6ar TC1eq  1 3.950000e-01    1.670000e+00
  N6ar TC2eq  1 3.950000e-01    1.850000e+00
  N6ar TC3eq  1 3.950000e-01    1.850000e+00
  N6ar TC4eq  1 3.950000e-01    2.110000e+00
  N6ar TC5eq  1 3.950000e-01    2.310000e+00
  N6ar TC6eq  1 3.950000e-01    2.500000e+00
  N6ar TX1vq  1 3.950000e-01    2.310000e+00
  N6ar TX2vq  1 3.950000e-01    2.500000e+00
  N6ar TX3vq  1 3.950000e-01    2.700000e+00
  N6ar TX4vq  1 3.950000e-01    2.940000e+00
  N6ar TC1vq  1 3.950000e-01    2.110000e+00
  N6ar TC2vq  1 3.950000e-01    2.310000e+00
  N6ar TC3vq  1 3.950000e-01    2.310000e+00
  N6ar TC4vq  1 3.950000e-01    2.500000e+00
  N6ar TC5vq  1 3.950000e-01    2.700000e+00
  N6ar TC6vq  1 3.950000e-01    2.940000e+00
  N6ar TN1aq  1 3.950000e-01    2.500000e+00
  N6ar TN2aq  1 3.950000e-01    2.500000e+00
  N6ar TN3aq  1 3.950000e-01    2.700000e+00
  N6ar TN4aq  1 3.950000e-01    3.190000e+00
  N6ar TN5aq  1 3.950000e-01    3.190000e+00
   N5a TN5ar  1 3.950000e-01    2.500000e+00
  N5ar  TN4a  1 3.950000e-01    2.500000e+00
  N5ar  TN3a  1 3.950000e-01    2.310000e+00
  N5ar  TN2a  1 3.950000e-01    2.310000e+00
  N5ar  TN1a  1 3.950000e-01    2.110000e+00
  N5ar  TC6v  1 3.950000e-01    2.500000e+00
  N5ar  TC5v  1 3.950000e-01    2.310000e+00
  N5ar  TC4v  1 3.950000e-01    2.110000e+00
  N5ar  TC3v  1 3.950000e-01    2.110000e+00
  N5ar  TC2v  1 3.950000e-01    1.850000e+00
  N5ar  TC1v  1 3.950000e-01    1.670000e+00
  N5ar  TX4v  1 3.950000e-01    2.700000e+00
  N5ar  TX3v  1 3.950000e-01    2.500000e+00
  N5ar  TX2v  1 3.950000e-01    2.310000e+00
  N5ar  TX1v  1 3.950000e-01    2.110000e+00
  N5ar  TC6e  1 3.950000e-01    2.110000e+00
  N5ar  TC5e  1 3.950000e-01    1.850000e+00
  N5ar  TC4e  1 3.950000e-01    1.670000e+00
  N5ar  TC3e  1 3.950000e-01    1.670000e+00
  N5ar  TC2e  1 3.980000e-01    1.450000e+00
  N5ar  TC1e  1 3.990000e-01    1.180000e+00
  N5ar  TX4e  1 3.950000e-01    2.310000e+00
  N5ar  TX3e  1 3.950000e-01    2.110000e+00
  N5ar  TX2e  1 3.950000e-01    1.850000e+00
  N5ar  TX1e  1 3.950000e-01    1.670000e+00
   P6q TN5ar  1 3.950000e-01    2.940000e+00
   P5q TN5ar  1 3.950000e-01    2.940000e+00
   P4q TN5ar  1 3.950000e-01    2.940000e+00
   P3q TN5ar  1 3.950000e-01    2.940000e+00
   P2q TN5ar  1 3.950000e-01    3.190000e+00
   P1q TN5ar  1 3.950000e-01    3.190000e+00
   N6q TN5ar  1 3.950000e-01    3.430000e+00
   N5q TN5ar  1 3.950000e-01    3.190000e+00
  N5ar  TN4q  1 3.950000e-01    3.190000e+00
  N5ar  TN3q  1 3.950000e-01    2.940000e+00
  N5ar  TN2q  1 3.950000e-01    2.940000e+00
  N5ar  TN1q  1 3.950000e-01    2.700000e+00
  N5ar  TC6q  1 3.950000e-01    2.700000e+00
  N5ar  TC5q  1 3.950000e-01    2.500000e+00
  N5ar  TC4q  1 3.950000e-01    2.310000e+00
  N5ar  TC3q  1 3.950000e-01    2.310000e+00
  N5ar  TC2q  1 3.950000e-01    2.110000e+00
  N5ar  TC1q  1 3.950000e-01    1.850000e+00
  N5ar  TX4q  1 3.950000e-01    2.940000e+00
  N5ar  TX3q  1 3.950000e-01    2.700000e+00
  N5ar  TX2q  1 3.950000e-01    2.500000e+00
  N5ar  TX1q  1 3.950000e-01    2.310000e+00
  P6dq TN5ar  1 3.950000e-01    3.190000e+00
  P5dq TN5ar  1 3.950000e-01    3.190000e+00
  P4dq TN5ar  1 3.950000e-01    3.190000e+00
  P3dq TN5ar  1 3.950000e-01    3.190000e+00
  P2dq TN5ar  1 3.950000e-01    3.430000e+00
  P1dq TN5ar  1 3.950000e-01    3.430000e+00
  N6dq TN5ar  1 3.950000e-01    3.670000e+00
  N5dq TN5ar  1 3.950000e-01    3.430000e+00
  N5ar TN4dq  1 3.950000e-01    3.430000e+00
  N5ar TN3dq  1 3.950000e-01    3.190000e+00
  N5ar TN2dq  1 3.950000e-01    3.190000e+00
  N5ar TN1dq  1 3.950000e-01    2.940000e+00
  P6aq TN5ar  1 3.950000e-01    2.700000e+00
  P5aq TN5ar  1 3.950000e-01    2.700000e+00
  P4aq TN5ar  1 3.950000e-01    2.700000e+00
  P3aq TN5ar  1 3.950000e-01    2.700000e+00
  P2aq TN5ar  1 3.950000e-01    2.940000e+00
  P1aq TN5ar  1 3.950000e-01    2.940000e+00
  N6aq TN5ar  1 3.950000e-01    3.190000e+00
  N5ar TN5aq  1 3.950000e-01    2.940000e+00
  N5ar TX1eq  1 3.950000e-01    2.110000e+00
  N5ar TX2eq  1 3.950000e-01    2.310000e+00
  N5ar TX3eq  1 3.950000e-01    2.500000e+00
  N5ar TX4eq  1 3.950000e-01    2.700000e+00
  N5ar TC1eq  1 3.950000e-01    1.670000e+00
  N5ar TC2eq  1 3.950000e-01    1.850000e+00
  N5ar TC3eq  1 3.950000e-01    2.110000e+00
  N5ar TC4eq  1 3.950000e-01    2.110000e+00
  N5ar TC5eq  1 3.950000e-01    2.310000e+00
  N5ar TC6eq  1 3.950000e-01    2.500000e+00
  N5ar TX1vq  1 3.950000e-01    2.500000e+00
  N5ar TX2vq  1 3.950000e-01    2.700000e+00
  N5ar TX3vq  1 3.950000e-01    2.940000e+00
  N5ar TX4vq  1 3.950000e-01    3.190000e+00
  N5ar TC1vq  1 3.950000e-01    2.110000e+00
  N5ar TC2vq  1 3.950000e-01    2.310000e+00
  N5ar TC3vq  1 3.950000e-01    2.500000e+00
  N5ar TC4vq  1 3.950000e-01    2.500000e+00
  N5ar TC5vq  1 3.950000e-01    2.700000e+00
  N5ar TC6vq  1 3.950000e-01    2.940000e+00
  N5ar TN1aq  1 3.950000e-01    2.500000e+00
  N5ar TN2aq  1 3.950000e-01    2.700000e+00
  N5ar TN3aq  1 3.950000e-01    2.700000e+00
  N5ar TN4aq  1 3.950000e-01    2.940000e+00
   N4a TN4ar  1 3.950000e-01    2.500000e+00
  N4ar  TN3a  1 3.950000e-01    2.310000e+00
  N4ar  TN2a  1 3.950000e-01    2.310000e+00
  N4ar  TN1a  1 3.950000e-01    2.110000e+00
  N4ar  TC6v  1 3.950000e-01    2.500000e+00
  N4ar  TC5v  1 3.950000e-01    2.310000e+00
  N4ar  TC4v  1 3.950000e-01    2.310000e+00
  N4ar  TC3v  1 3.950000e-01    2.110000e+00
  N4ar  TC2v  1 3.950000e-01    1.850000e+00
  N4ar  TC1v  1 3.950000e-01    1.670000e+00
  N4ar  TX4v  1 3.950000e-01    2.940000e+00
  N4ar  TX3v  1 3.950000e-01    2.700000e+00
  N4ar  TX2v  1 3.950000e-01    2.310000e+00
  N4ar  TX1v  1 3.950000e-01    2.110000e+00
  N4ar  TC6e  1 3.950000e-01    2.110000e+00
  N4ar  TC5e  1 3.950000e-01    1.850000e+00
  N4ar  TC4e  1 3.950000e-01    1.850000e+00
  N4ar  TC3e  1 3.950000e-01    1.670000e+00
  N4ar  TC2e  1 3.980000e-01    1.450000e+00
  N4ar  TC1e  1 3.990000e-01    1.180000e+00
  N4ar  TX4e  1 3.950000e-01    2.500000e+00
  N4ar  TX3e  1 3.950000e-01    2.310000e+00
  N4ar  TX2e  1 3.950000e-01    1.850000e+00
  N4ar  TX1e  1 3.950000e-01    1.670000e+00
   P6q TN4ar  1 3.950000e-01    2.700000e+00
   P5q TN4ar  1 3.950000e-01    2.940000e+00
   P4q TN4ar  1 3.950000e-01    2.940000e+00
   P3q TN4ar  1 3.950000e-01    2.940000e+00
   P2q TN4ar  1 3.950000e-01    2.940000e+00
   P1q TN4ar  1 3.950000e-01    3.190000e+00
   N6q TN4ar  1 3.950000e-01    3.430000e+00
   N5q TN4ar  1 3.950000e-01    3.190000e+00
   N4q TN4ar  1 3.950000e-01    3.190000e+00
  N4ar  TN3q  1 3.950000e-01    2.940000e+00
  N4ar  TN2q  1 3.950000e-01    2.940000e+00
  N4ar  TN1q  1 3.950000e-01    2.700000e+00
  N4ar  TC6q  1 3.950000e-01    2.700000e+00
  N4ar  TC5q  1 3.950000e-01    2.500000e+00
  N4ar  TC4q  1 3.950000e-01    2.500000e+00
  N4ar  TC3q  1 3.950000e-01    2.310000e+00
  N4ar  TC2q  1 3.950000e-01    2.110000e+00
  N4ar  TC1q  1 3.950000e-01    1.850000e+00
  N4ar  TX4q  1 3.950000e-01    3.190000e+00
  N4ar  TX3q  1 3.950000e-01    2.940000e+00
  N4ar  TX2q  1 3.950000e-01    2.500000e+00
  N4ar  TX1q  1 3.950000e-01    2.310000e+00
  P6dq TN4ar  1 3.950000e-01    2.940000e+00
  P5dq TN4ar  1 3.950000e-01    3.190000e+00
  P4dq TN4ar  1 3.950000e-01    3.190000e+00
  P3dq TN4ar  1 3.950000e-01    3.190000e+00
  P2dq TN4ar  1 3.950000e-01    3.190000e+00
  P1dq TN4ar  1 3.950000e-01    3.430000e+00
  N6dq TN4ar  1 3.950000e-01    3.670000e+00
  N5dq TN4ar  1 3.950000e-01    3.430000e+00
  N4dq TN4ar  1 3.950000e-01    3.430000e+00
  N4ar TN3dq  1 3.950000e-01    3.190000e+00
  N4ar TN2dq  1 3.950000e-01    3.190000e+00
  N4ar TN1dq  1 3.950000e-01    2.940000e+00
  P6aq TN4ar  1 3.950000e-01    2.500000e+00
  P5aq TN4ar  1 3.950000e-01    2.700000e+00
  P4aq TN4ar  1 3.950000e-01    2.700000e+00
  P3aq TN4ar  1 3.950000e-01    2.700000e+00
  P2aq TN4ar  1 3.950000e-01    2.700000e+00
  P1aq TN4ar  1 3.950000e-01    2.940000e+00
  N6aq TN4ar  1 3.950000e-01    3.190000e+00
  N5aq TN4ar  1 3.950000e-01    2.940000e+00
  N4ar TN4aq  1 3.950000e-01    2.940000e+00
  N4ar TX1eq  1 3.950000e-01    2.110000e+00
  N4ar TX2eq  1 3.950000e-01    2.310000e+00
  N4ar TX3eq  1 3.950000e-01    2.700000e+00
  N4ar TX4eq  1 3.950000e-01    2.940000e+00
  N4ar TC1eq  1 3.950000e-01    1.670000e+00
  N4ar TC2eq  1 3.950000e-01    1.850000e+00
  N4ar TC3eq  1 3.950000e-01    2.110000e+00
  N4ar TC4eq  1 3.950000e-01    2.310000e+00
  N4ar TC5eq  1 3.950000e-01    2.310000e+00
  N4ar TC6eq  1 3.950000e-01    2.500000e+00
  N4ar TX1vq  1 3.950000e-01    2.500000e+00
  N4ar TX2vq  1 3.950000e-01    2.700000e+00
  N4ar TX3vq  1 3.950000e-01    3.190000e+00
  N4ar TX4vq  1 3.950000e-01    3.430000e+00
  N4ar TC1vq  1 3.950000e-01    2.110000e+00
  N4ar TC2vq  1 3.950000e-01    2.310000e+00
  N4ar TC3vq  1 3.950000e-01    2.500000e+00
  N4ar TC4vq  1 3.950000e-01    2.700000e+00
  N4ar TC5vq  1 3.950000e-01    2.700000e+00
  N4ar TC6vq  1 3.950000e-01    2.940000e+00
  N4ar TN1aq  1 3.950000e-01    2.500000e+00
  N4ar TN2aq  1 3.950000e-01    2.700000e+00
  N4ar TN3aq  1 3.950000e-01    2.700000e+00
   N3a TN3ar  1 3.950000e-01    2.310000e+00
  N3ar  TN2a  1 3.950000e-01    2.310000e+00
  N3ar  TN1a  1 3.950000e-01    2.110000e+00
  N3ar  TC6v  1 3.950000e-01    2.500000e+00
  N3ar  TC5v  1 3.950000e-01    2.310000e+00
  N3ar  TC4v  1 3.950000e-01    2.310000e+00
  N3ar  TC3v  1 3.950000e-01    2.110000e+00
  N3ar  TC2v  1 3.950000e-01    2.110000e+00
  N3ar  TC1v  1 3.950000e-01    1.850000e+00
  N3ar  TX4v  1 3.950000e-01    2.700000e+00
  N3ar  TX3v  1 3.950000e-01    2.500000e+00
  N3ar  TX2v  1 3.950000e-01    2.310000e+00
  N3ar  TX1v  1 3.950000e-01    2.310000e+00
  N3ar  TC6e  1 3.950000e-01    2.110000e+00
  N3ar  TC5e  1 3.950000e-01    1.850000e+00
  N3ar  TC4e  1 3.950000e-01    1.850000e+00
  N3ar  TC3e  1 3.950000e-01    1.670000e+00
  N3ar  TC2e  1 3.950000e-01    1.670000e+00
  N3ar  TC1e  1 3.980000e-01    1.450000e+00
  N3ar  TX4e  1 3.950000e-01    2.310000e+00
  N3ar  TX3e  1 3.950000e-01    2.110000e+00
  N3ar  TX2e  1 3.950000e-01    1.850000e+00
  N3ar  TX1e  1 3.950000e-01    1.850000e+00
   P6q TN3ar  1 3.950000e-01    2.500000e+00
   P5q TN3ar  1 3.950000e-01    2.500000e+00
   P4q TN3ar  1 3.950000e-01    2.700000e+00
   P3q TN3ar  1 3.950000e-01    2.700000e+00
   P2q TN3ar  1 3.950000e-01    2.700000e+00
   P1q TN3ar  1 3.950000e-01    2.700000e+00
   N6q TN3ar  1 3.950000e-01    2.940000e+00
   N5q TN3ar  1 3.950000e-01    2.940000e+00
   N4q TN3ar  1 3.950000e-01    2.940000e+00
   N3q TN3ar  1 3.950000e-01    2.940000e+00
  N3ar  TN2q  1 3.950000e-01    2.940000e+00
  N3ar  TN1q  1 3.950000e-01    2.700000e+00
  N3ar  TC6q  1 3.950000e-01    2.700000e+00
  N3ar  TC5q  1 3.950000e-01    2.500000e+00
  N3ar  TC4q  1 3.950000e-01    2.500000e+00
  N3ar  TC3q  1 3.950000e-01    2.310000e+00
  N3ar  TC2q  1 3.950000e-01    2.310000e+00
  N3ar  TC1q  1 3.950000e-01    2.110000e+00
  N3ar  TX4q  1 3.950000e-01    2.940000e+00
  N3ar  TX3q  1 3.950000e-01    2.700000e+00
  N3ar  TX2q  1 3.950000e-01    2.500000e+00
  N3ar  TX1q  1 3.950000e-01    2.500000e+00
  P6dq TN3ar  1 3.950000e-01    2.500000e+00
  P5dq TN3ar  1 3.950000e-01    2.500000e+00
  P4dq TN3ar  1 3.950000e-01    2.940000e+00
  P3dq TN3ar  1 3.950000e-01    2.940000e+00
  P2dq TN3ar  1 3.950000e-01    2.940000e+00
  P1dq TN3ar  1 3.950000e-01    2.940000e+00
  N6dq TN3ar  1 3.950000e-01    3.190000e+00
  N5dq TN3ar  1 3.950000e-01    3.190000e+00
  N4dq TN3ar  1 3.950000e-01    3.190000e+00
  N3dq TN3ar  1 3.950000e-01    3.190000e+00
  N3ar TN2dq  1 3.950000e-01    3.190000e+00
  N3ar TN1dq  1 3.950000e-01    2.940000e+00
  P6aq TN3ar  1 3.950000e-01    2.500000e+00
  P5aq TN3ar  1 3.950000e-01    2.500000e+00
  P4aq TN3ar  1 3.950000e-01    2.500000e+00
  P3aq TN3ar  1 3.950000e-01    2.500000e+00
  P2aq TN3ar  1 3.950000e-01    2.500000e+00
  P1aq TN3ar  1 3.950000e-01    2.500000e+00
  N6aq TN3ar  1 3.950000e-01    2.700000e+00
  N5aq TN3ar  1 3.950000e-01    2.700000e+00
  N4aq TN3ar  1 3.950000e-01    2.700000e+00
  N3ar TN3aq  1 3.950000e-01    2.700000e+00
  N3ar TX1eq  1 3.950000e-01    2.310000e+00
  N3ar TX2eq  1 3.950000e-01    2.310000e+00
  N3ar TX3eq  1 3.950000e-01    2.500000e+00
  N3ar TX4eq  1 3.950000e-01    2.700000e+00
  N3ar TC1eq  1 3.950000e-01    1.850000e+00
  N3ar TC2eq  1 3.950000e-01    2.110000e+00
  N3ar TC3eq  1 3.950000e-01    2.110000e+00
  N3ar TC4eq  1 3.950000e-01    2.310000e+00
  N3ar TC5eq  1 3.950000e-01    2.310000e+00
  N3ar TC6eq  1 3.950000e-01    2.500000e+00
  N3ar TX1vq  1 3.950000e-01    2.700000e+00
  N3ar TX2vq  1 3.950000e-01    2.700000e+00
  N3ar TX3vq  1 3.950000e-01    2.940000e+00
  N3ar TX4vq  1 3.950000e-01    3.190000e+00
  N3ar TC1vq  1 3.950000e-01    2.310000e+00
  N3ar TC2vq  1 3.950000e-01    2.500000e+00
  N3ar TC3vq  1 3.950000e-01    2.500000e+00
  N3ar TC4vq  1 3.950000e-01    2.700000e+00
  N3ar TC5vq  1 3.950000e-01    2.700000e+00
  N3ar TC6vq  1 3.950000e-01    2.940000e+00
  N3ar TN1aq  1 3.950000e-01    2.500000e+00
  N3ar TN2aq  1 3.950000e-01    2.700000e+00
   N2a TN2ar  1 3.950000e-01    2.310000e+00
  N2ar  TN1a  1 3.950000e-01    2.110000e+00
  N2ar  TC6v  1 3.950000e-01    2.500000e+00
  N2ar  TC5v  1 3.950000e-01    2.310000e+00
  N2ar  TC4v  1 3.950000e-01    2.310000e+00
  N2ar  TC3v  1 3.950000e-01    2.310000e+00
  N2ar  TC2v  1 3.950000e-01    2.110000e+00
  N2ar  TC1v  1 3.950000e-01    1.850000e+00
  N2ar  TX4v  1 3.950000e-01    2.700000e+00
  N2ar  TX3v  1 3.950000e-01    2.500000e+00
  N2ar  TX2v  1 3.950000e-01    2.310000e+00
  N2ar  TX1v  1 3.950000e-01    2.310000e+00
  N2ar  TC6e  1 3.950000e-01    2.110000e+00
  N2ar  TC5e  1 3.950000e-01    1.850000e+00
  N2ar  TC4e  1 3.950000e-01    1.850000e+00
  N2ar  TC3e  1 3.950000e-01    1.850000e+00
  N2ar  TC2e  1 3.950000e-01    1.670000e+00
  N2ar  TC1e  1 3.980000e-01    1.450000e+00
  N2ar  TX4e  1 3.950000e-01    2.310000e+00
  N2ar  TX3e  1 3.950000e-01    2.110000e+00
  N2ar  TX2e  1 3.950000e-01    1.850000e+00
  N2ar  TX1e  1 3.950000e-01    1.850000e+00
   P6q TN2ar  1 3.950000e-01    2.310000e+00
   P5q TN2ar  1 3.950000e-01    2.310000e+00
   P4q TN2ar  1 3.950000e-01    2.500000e+00
   P3q TN2ar  1 3.950000e-01    2.700000e+00
   P2q TN2ar  1 3.950000e-01    2.700000e+00
   P1q TN2ar  1 3.950000e-01    2.700000e+00
   N6q TN2ar  1 3.950000e-01    2.700000e+00
   N5q TN2ar  1 3.950000e-01    2.940000e+00
   N4q TN2ar  1 3.950000e-01    2.940000e+00
   N3q TN2ar  1 3.950000e-01    2.940000e+00
   N2q TN2ar  1 3.950000e-01    2.940000e+00
  N2ar  TN1q  1 3.950000e-01    2.700000e+00
  N2ar  TC6q  1 3.950000e-01    2.700000e+00
  N2ar  TC5q  1 3.950000e-01    2.500000e+00
  N2ar  TC4q  1 3.950000e-01    2.500000e+00
  N2ar  TC3q  1 3.950000e-01    2.500000e+00
  N2ar  TC2q  1 3.950000e-01    2.310000e+00
  N2ar  TC1q  1 3.950000e-01    2.110000e+00
  N2ar  TX4q  1 3.950000e-01    2.940000e+00
  N2ar  TX3q  1 3.950000e-01    2.700000e+00
  N2ar  TX2q  1 3.950000e-01    2.500000e+00
  N2ar  TX1q  1 3.950000e-01    2.500000e+00
  P6dq TN2ar  1 3.950000e-01    2.310000e+00
  P5dq TN2ar  1 3.950000e-01    2.310000e+00
  P4dq TN2ar  1 3.950000e-01    2.500000e+00
  P3dq TN2ar  1 3.950000e-01    2.940000e+00
  P2dq TN2ar  1 3.950000e-01    2.940000e+00
  P1dq TN2ar  1 3.950000e-01    2.940000e+00
  N6dq TN2ar  1 3.950000e-01    2.940000e+00
  N5dq TN2ar  1 3.950000e-01    3.190000e+00
  N4dq TN2ar  1 3.950000e-01    3.190000e+00
  N3dq TN2ar  1 3.950000e-01    3.190000e+00
  N2dq TN2ar  1 3.950000e-01    3.190000e+00
  N2ar TN1dq  1 3.950000e-01    2.940000e+00
  P6aq TN2ar  1 3.950000e-01    2.310000e+00
  P5aq TN2ar  1 3.950000e-01    2.310000e+00
  P4aq TN2ar  1 3.950000e-01    2.500000e+00
  P3aq TN2ar  1 3.950000e-01    2.500000e+00
  P2aq TN2ar  1 3.950000e-01    2.500000e+00
  P1aq TN2ar  1 3.950000e-01    2.500000e+00
  N6aq TN2ar  1 3.950000e-01    2.500000e+00
  N5aq TN2ar  1 3.950000e-01    2.700000e+00
  N4aq TN2ar  1 3.950000e-01    2.700000e+00
  N3aq TN2ar  1 3.950000e-01    2.700000e+00
  N2ar TN2aq  1 3.950000e-01    2.700000e+00
  N2ar TX1eq  1 3.950000e-01    2.310000e+00
  N2ar TX2eq  1 3.950000e-01    2.310000e+00
  N2ar TX3eq  1 3.950000e-01    2.500000e+00
  N2ar TX4eq  1 3.950000e-01    2.700000e+00
  N2ar TC1eq  1 3.950000e-01    1.850000e+00
  N2ar TC2eq  1 3.950000e-01    2.110000e+00
  N2ar TC3eq  1 3.950000e-01    2.310000e+00
  N2ar TC4eq  1 3.950000e-01    2.310000e+00
  N2ar TC5eq  1 3.950000e-01    2.310000e+00
  N2ar TC6eq  1 3.950000e-01    2.500000e+00
  N2ar TX1vq  1 3.950000e-01    2.700000e+00
  N2ar TX2vq  1 3.950000e-01    2.700000e+00
  N2ar TX3vq  1 3.950000e-01    2.940000e+00
  N2ar TX4vq  1 3.950000e-01    3.190000e+00
  N2ar TC1vq  1 3.950000e-01    2.310000e+00
  N2ar TC2vq  1 3.950000e-01    2.500000e+00
  N2ar TC3vq  1 3.950000e-01    2.700000e+00
  N2ar TC4vq  1 3.950000e-01    2.700000e+00
  N2ar TC5vq  1 3.950000e-01    2.700000e+00
  N2ar TC6vq  1 3.950000e-01    2.940000e+00
  N2ar TN1aq  1 3.950000e-01    2.500000e+00
   N1a TN1ar  1 3.950000e-01    2.310000e+00
  N1ar  TC6v  1 3.950000e-01    2.700000e+00
  N1ar  TC5v  1 3.950000e-01    2.500000e+00
  N1ar  TC4v  1 3.950000e-01    2.500000e+00
  N1ar  TC3v  1 3.950000e-01    2.310000e+00
  N1ar  TC2v  1 3.950000e-01    2.110000e+00
  N1ar  TC1v  1 3.950000e-01    1.850000e+00
  N1ar  TX4v  1 3.950000e-01    2.500000e+00
  N1ar  TX3v  1 3.950000e-01    2.500000e+00
  N1ar  TX2v  1 3.950000e-01    2.310000e+00
  N1ar  TX1v  1 3.950000e-01    2.310000e+00
  N1ar  TC6e  1 3.950000e-01    2.310000e+00
  N1ar  TC5e  1 3.950000e-01    2.110000e+00
  N1ar  TC4e  1 3.950000e-01    2.110000e+00
  N1ar  TC3e  1 3.950000e-01    1.850000e+00
  N1ar  TC2e  1 3.950000e-01    1.670000e+00
  N1ar  TC1e  1 3.980000e-01    1.450000e+00
  N1ar  TX4e  1 3.950000e-01    2.110000e+00
  N1ar  TX3e  1 3.950000e-01    2.110000e+00
  N1ar  TX2e  1 3.950000e-01    1.850000e+00
  N1ar  TX1e  1 3.950000e-01    1.850000e+00
   P6q TN1ar  1 3.950000e-01    2.110000e+00
   P5q TN1ar  1 3.950000e-01    2.110000e+00
   P4q TN1ar  1 3.950000e-01    2.310000e+00
   P3q TN1ar  1 3.950000e-01    2.500000e+00
   P2q TN1ar  1 3.950000e-01    2.700000e+00
   P1q TN1ar  1 3.950000e-01    2.700000e+00
   N6q TN1ar  1 3.950000e-01    2.700000e+00
   N5q TN1ar  1 3.950000e-01    2.700000e+00
   N4q TN1ar  1 3.950000e-01    2.700000e+00
   N3q TN1ar  1 3.950000e-01    2.700000e+00
   N2q TN1ar  1 3.950000e-01    2.700000e+00
   N1q TN1ar  1 3.950000e-01    2.940000e+00
  N1ar  TC6q  1 3.950000e-01    2.940000e+00
  N1ar  TC5q  1 3.950000e-01    2.700000e+00
  N1ar  TC4q  1 3.950000e-01    2.700000e+00
  N1ar  TC3q  1 3.950000e-01    2.500000e+00
  N1ar  TC2q  1 3.950000e-01    2.310000e+00
  N1ar  TC1q  1 3.950000e-01    2.110000e+00
  N1ar  TX4q  1 3.950000e-01    2.700000e+00
  N1ar  TX3q  1 3.950000e-01    2.700000e+00
  N1ar  TX2q  1 3.950000e-01    2.500000e+00
  N1ar  TX1q  1 3.950000e-01    2.500000e+00
  P6dq TN1ar  1 3.950000e-01    2.110000e+00
  P5dq TN1ar  1 3.950000e-01    2.110000e+00
  P4dq TN1ar  1 3.950000e-01    2.310000e+00
  P3dq TN1ar  1 3.950000e-01    2.500000e+00
  P2dq TN1ar  1 3.950000e-01    2.940000e+00
  P1dq TN1ar  1 3.950000e-01    2.940000e+00
  N6dq TN1ar  1 3.950000e-01    2.940000e+00
  N5dq TN1ar  1 3.950000e-01    2.940000e+00
  N4dq TN1ar  1 3.950000e-01    2.940000e+00
  N3dq TN1ar  1 3.950000e-01    2.940000e+00
  N2dq TN1ar  1 3.950000e-01    2.940000e+00
  N1dq TN1ar  1 3.950000e-01    3.190000e+00
  P6aq TN1ar  1 3.950000e-01    2.110000e+00
  P5aq TN1ar  1 3.950000e-01    2.110000e+00
  P4aq TN1ar  1 3.950000e-01    2.310000e+00
  P3aq TN1ar  1 3.950000e-01    2.500000e+00
  P2aq TN1ar  1 3.950000e-01    2.500000e+00
  P1aq TN1ar  1 3.950000e-01    2.500000e+00
  N6aq TN1ar  1 3.950000e-01    2.500000e+00
  N5aq TN1ar  1 3.950000e-01    2.500000e+00
  N4aq TN1ar  1 3.950000e-01    2.500000e+00
  N3aq TN1ar  1 3.950000e-01    2.500000e+00
  N2aq TN1ar  1 3.950000e-01    2.500000e+00
  N1ar TN1aq  1 3.950000e-01    2.700000e+00
  N1ar TX1eq  1 3.950000e-01    2.310000e+00
  N1ar TX2eq  1 3.950000e-01    2.310000e+00
  N1ar TX3eq  1 3.950000e-01    2.500000e+00
  N1ar TX4eq  1 3.950000e-01    2.500000e+00
  N1ar TC1eq  1 3.950000e-01    1.850000e+00
  N1ar TC2eq  1 3.950000e-01    2.110000e+00
  N1ar TC3eq  1 3.950000e-01    2.310000e+00
  N1ar TC4eq  1 3.950000e-01    2.500000e+00
  N1ar TC5eq  1 3.950000e-01    2.500000e+00
  N1ar TC6eq  1 3.950000e-01    2.700000e+00
  N1ar TX1vq  1 3.950000e-01    2.700000e+00
  N1ar TX2vq  1 3.950000e-01    2.700000e+00
  N1ar TX3vq  1 3.950000e-01    2.940000e+00
  N1ar TX4vq  1 3.950000e-01    2.940000e+00
  N1ar TC1vq  1 3.950000e-01    2.310000e+00
  N1ar TC2vq  1 3.950000e-01    2.500000e+00
  N1ar TC3vq  1 3.950000e-01    2.700000e+00
  N1ar TC4vq  1 3.950000e-01    2.940000e+00
  N1ar TC5vq  1 3.950000e-01    2.940000e+00
  N1ar TC6vq  1 3.950000e-01    3.190000e+00
   C6v TC6vr  1 3.950000e-01    2.310000e+00
  C6vr  TC5v  1 3.950000e-01    2.110000e+00
  C6vr  TC4v  1 3.950000e-01    2.110000e+00
  C6vr  TC3v  1 3.950000e-01    1.850000e+00
  C6vr  TC2v  1 3.950000e-01    1.670000e+00
  C6vr  TC1v  1 3.980000e-01    1.450000e+00
  C6vr  TX4v  1 3.950000e-01    2.110000e+00
  C6vr  TX3v  1 3.950000e-01    2.110000e+00
  C6vr  TX2v  1 3.950000e-01    2.110000e+00
  C6vr  TX1v  1 3.950000e-01    2.110000e+00
  C6vr  TC6e  1 3.950000e-01    2.940000e+00
  C6vr  TC5e  1 3.950000e-01    2.700000e+00
  C6vr  TC4e  1 3.950000e-01    2.700000e+00
  C6vr  TC3e  1 3.950000e-01    2.500000e+00
  C6vr  TC2e  1 3.950000e-01    2.310000e+00
  C6vr  TC1e  1 3.950000e-01    2.110000e+00
  C6vr  TX4e  1 3.950000e-01    2.700000e+00
  C6vr  TX3e  1 3.950000e-01    2.700000e+00
  C6vr  TX2e  1 3.950000e-01    2.700000e+00
  C6vr  TX1e  1 3.950000e-01    2.700000e+00
   P6q TC6vr  1 3.950000e-01    2.310000e+00
   P5q TC6vr  1 3.950000e-01    2.310000e+00
   P4q TC6vr  1 3.950000e-01    2.500000e+00
   P3q TC6vr  1 3.950000e-01    2.700000e+00
   P2q TC6vr  1 3.950000e-01    2.700000e+00
   P1q TC6vr  1 3.950000e-01    2.700000e+00
   N6q TC6vr  1 3.950000e-01    2.940000e+00
   N5q TC6vr  1 3.950000e-01    2.940000e+00
   N4q TC6vr  1 3.950000e-01    2.940000e+00
   N3q TC6vr  1 3.950000e-01    2.940000e+00
   N2q TC6vr  1 3.950000e-01    2.940000e+00
   N1q TC6vr  1 3.950000e-01    3.190000e+00
   C6q TC6vr  1 3.950000e-01    3.190000e+00
  C6vr  TC5q  1 3.950000e-01    2.940000e+00
  C6vr  TC4q  1 3.950000e-01    2.940000e+00
  C6vr  TC3q  1 3.950000e-01    2.700000e+00
  C6vr  TC2q  1 3.950000e-01    2.500000e+00
  C6vr  TC1q  1 3.950000e-01    2.310000e+00
  C6vr  TX4q  1 3.950000e-01    2.940000e+00
  C6vr  TX3q  1 3.950000e-01    2.940000e+00
  C6vr  TX2q  1 3.950000e-01    2.940000e+00
  C6vr  TX1q  1 3.950000e-01    2.940000e+00
  P6dq TC6vr  1 3.950000e-01    1.850000e+00
  P5dq TC6vr  1 3.950000e-01    1.850000e+00
  P4dq TC6vr  1 3.950000e-01    2.110000e+00
  P3dq TC6vr  1 3.950000e-01    2.310000e+00
  P2dq TC6vr  1 3.950000e-01    2.310000e+00
  P1dq TC6vr  1 3.950000e-01    2.310000e+00
  N6dq TC6vr  1 3.950000e-01    2.500000e+00
  N5dq TC6vr  1 3.950000e-01    2.500000e+00
  N4dq TC6vr  1 3.950000e-01    2.500000e+00
  N3dq TC6vr  1 3.950000e-01    2.500000e+00
  N2dq TC6vr  1 3.950000e-01    2.500000e+00
  N1dq TC6vr  1 3.950000e-01    2.700000e+00
  P6aq TC6vr  1 3.950000e-01    2.310000e+00
  P5aq TC6vr  1 3.950000e-01    2.310000e+00
  P4aq TC6vr  1 3.950000e-01    2.500000e+00
  P3aq TC6vr  1 3.950000e-01    2.700000e+00
  P2aq TC6vr  1 3.950000e-01    2.700000e+00
  P1aq TC6vr  1 3.950000e-01    2.700000e+00
  N6aq TC6vr  1 3.950000e-01    2.940000e+00
  N5aq TC6vr  1 3.950000e-01    2.940000e+00
  N4aq TC6vr  1 3.950000e-01    2.940000e+00
  N3aq TC6vr  1 3.950000e-01    2.940000e+00
  N2aq TC6vr  1 3.950000e-01    2.940000e+00
  N1aq TC6vr  1 3.950000e-01    3.190000e+00
  C6vr TC6vq  1 3.950000e-01    2.700000e+00
  C6vr TX1eq  1 3.950000e-01    3.190000e+00
  C6vr TX2eq  1 3.950000e-01    3.190000e+00
  C6vr TX3eq  1 3.950000e-01    3.190000e+00
  C6vr TX4eq  1 3.950000e-01    3.190000e+00
  C6vr TC1eq  1 3.950000e-01    2.500000e+00
  C6vr TC2eq  1 3.950000e-01    2.700000e+00
  C6vr TC3eq  1 3.950000e-01    2.940000e+00
  C6vr TC4eq  1 3.950000e-01    3.190000e+00
  C6vr TC5eq  1 3.950000e-01    3.190000e+00
  C6vr TC6eq  1 3.950000e-01    3.430000e+00
  C6vr TX1vq  1 3.950000e-01    2.500000e+00
  C6vr TX2vq  1 3.950000e-01    2.500000e+00
  C6vr TX3vq  1 3.950000e-01    2.500000e+00
  C6vr TX4vq  1 3.950000e-01    2.500000e+00
  C6vr TC1vq  1 3.950000e-01    1.850000e+00
  C6vr TC2vq  1 3.950000e-01    2.110000e+00
  C6vr TC3vq  1 3.950000e-01    2.310000e+00
  C6vr TC4vq  1 3.950000e-01    2.500000e+00
  C6vr TC5vq  1 3.950000e-01    2.500000e+00
   C5v TC5vr  1 3.950000e-01    2.110000e+00
  C5vr  TC4v  1 3.950000e-01    2.110000e+00
  C5vr  TC3v  1 3.950000e-01    1.850000e+00
  C5vr  TC2v  1 3.950000e-01    1.670000e+00
  C5vr  TC1v  1 3.950000e-01    1.670000e+00
  C5vr  TX4v  1 3.950000e-01    1.850000e+00
  C5vr  TX3v  1 3.950000e-01    1.850000e+00
  C5vr  TX2v  1 3.950000e-01    1.850000e+00
  C5vr  TX1v  1 3.950000e-01    2.110000e+00
   C6e TC5vr  1 3.950000e-01    2.700000e+00
  C5vr  TC5e  1 3.950000e-01    2.700000e+00
  C5vr  TC4e  1 3.950000e-01    2.700000e+00
  C5vr  TC3e  1 3.950000e-01    2.500000e+00
  C5vr  TC2e  1 3.950000e-01    2.310000e+00
  C5vr  TC1e  1 3.950000e-01    2.310000e+00
  C5vr  TX4e  1 3.950000e-01    2.500000e+00
  C5vr  TX3e  1 3.950000e-01    2.500000e+00
  C5vr  TX2e  1 3.950000e-01    2.500000e+00
  C5vr  TX1e  1 3.950000e-01    2.700000e+00
   P6q TC5vr  1 3.950000e-01    2.110000e+00
   P5q TC5vr  1 3.950000e-01    2.310000e+00
   P4q TC5vr  1 3.950000e-01    2.310000e+00
   P3q TC5vr  1 3.950000e-01    2.500000e+00
   P2q TC5vr  1 3.950000e-01    2.500000e+00
   P1q TC5vr  1 3.950000e-01    2.500000e+00
   N6q TC5vr  1 3.950000e-01    2.700000e+00
   N5q TC5vr  1 3.950000e-01    2.700000e+00
   N4q TC5vr  1 3.950000e-01    2.700000e+00
   N3q TC5vr  1 3.950000e-01    2.700000e+00
   N2q TC5vr  1 3.950000e-01    2.700000e+00
   N1q TC5vr  1 3.950000e-01    2.940000e+00
   C6q TC5vr  1 3.950000e-01    2.940000e+00
   C5q TC5vr  1 3.950000e-01    2.940000e+00
  C5vr  TC4q  1 3.950000e-01    2.940000e+00
  C5vr  TC3q  1 3.950000e-01    2.700000e+00
  C5vr  TC2q  1 3.950000e-01    2.500000e+00
  C5vr  TC1q  1 3.950000e-01    2.500000e+00
  C5vr  TX4q  1 3.950000e-01    2.700000e+00
  C5vr  TX3q  1 3.950000e-01    2.700000e+00
  C5vr  TX2q  1 3.950000e-01    2.700000e+00
  C5vr  TX1q  1 3.950000e-01    2.940000e+00
  P6dq TC5vr  1 3.950000e-01    1.670000e+00
  P5dq TC5vr  1 3.950000e-01    1.850000e+00
  P4dq TC5vr  1 3.950000e-01    1.850000e+00
  P3dq TC5vr  1 3.950000e-01    2.110000e+00
  P2dq TC5vr  1 3.950000e-01    2.110000e+00
  P1dq TC5vr  1 3.950000e-01    2.110000e+00
  N6dq TC5vr  1 3.950000e-01    2.310000e+00
  N5dq TC5vr  1 3.950000e-01    2.310000e+00
  N4dq TC5vr  1 3.950000e-01    2.310000e+00
  N3dq TC5vr  1 3.950000e-01    2.310000e+00
  N2dq TC5vr  1 3.950000e-01    2.310000e+00
  N1dq TC5vr  1 3.950000e-01    2.500000e+00
  P6aq TC5vr  1 3.950000e-01    2.110000e+00
  P5aq TC5vr  1 3.950000e-01    2.310000e+00
  P4aq TC5vr  1 3.950000e-01    2.310000e+00
  P3aq TC5vr  1 3.950000e-01    2.500000e+00
  P2aq TC5vr  1 3.950000e-01    2.500000e+00
  P1aq TC5vr  1 3.950000e-01    2.500000e+00
  N6aq TC5vr  1 3.950000e-01    2.700000e+00
  N5aq TC5vr  1 3.950000e-01    2.700000e+00
  N4aq TC5vr  1 3.950000e-01    2.700000e+00
  N3aq TC5vr  1 3.950000e-01    2.700000e+00
  N2aq TC5vr  1 3.950000e-01    2.700000e+00
  N1aq TC5vr  1 3.950000e-01    2.940000e+00
  C6vq TC5vr  1 3.950000e-01    2.500000e+00
  C5vr TC5vq  1 3.950000e-01    2.500000e+00
  C5vr TX1eq  1 3.950000e-01    3.190000e+00
  C5vr TX2eq  1 3.950000e-01    2.940000e+00
  C5vr TX3eq  1 3.950000e-01    2.940000e+00
  C5vr TX4eq  1 3.950000e-01    2.940000e+00
  C5vr TC1eq  1 3.950000e-01    2.700000e+00
  C5vr TC2eq  1 3.950000e-01    2.700000e+00
  C5vr TC3eq  1 3.950000e-01    2.940000e+00
  C5vr TC4eq  1 3.950000e-01    3.190000e+00
  C5vr TC5eq  1 3.950000e-01    3.190000e+00
  C6eq TC5vr  1 3.950000e-01    3.190000e+00
  C5vr TX1vq  1 3.950000e-01    2.500000e+00
  C5vr TX2vq  1 3.950000e-01    2.310000e+00
  C5vr TX3vq  1 3.950000e-01    2.310000e+00
  C5vr TX4vq  1 3.950000e-01    2.310000e+00
  C5vr TC1vq  1 3.950000e-01    2.110000e+00
  C5vr TC2vq  1 3.950000e-01    2.110000e+00
  C5vr TC3vq  1 3.950000e-01    2.310000e+00
  C5vr TC4vq  1 3.950000e-01    2.500000e+00
   C4v TC4vr  1 3.950000e-01    2.110000e+00
  C4vr  TC3v  1 3.950000e-01    2.110000e+00
  C4vr  TC2v  1 3.950000e-01    1.850000e+00
  C4vr  TC1v  1 3.950000e-01    1.670000e+00
  C4vr  TX4v  1 3.950000e-01    1.850000e+00
  C4vr  TX3v  1 3.950000e-01    1.850000e+00
  C4vr  TX2v  1 3.950000e-01    1.850000e+00
  C4vr  TX1v  1 3.950000e-01    2.110000e+00
   C6e TC4vr  1 3.950000e-01    2.700000e+00
   C5e TC4vr  1 3.950000e-01    2.700000e+00
  C4vr  TC4e  1 3.950000e-01    2.700000e+00
  C4vr  TC3e  1 3.950000e-01    2.700000e+00
  C4vr  TC2e  1 3.950000e-01    2.500000e+00
  C4vr  TC1e  1 3.950000e-01    2.310000e+00
  C4vr  TX4e  1 3.950000e-01    2.500000e+00
  C4vr  TX3e  1 3.950000e-01    2.500000e+00
  C4vr  TX2e  1 3.950000e-01    2.500000e+00
  C4vr  TX1e  1 3.950000e-01    2.700000e+00
   P6q TC4vr  1 3.950000e-01    1.850000e+00
   P5q TC4vr  1 3.950000e-01    2.110000e+00
   P4q TC4vr  1 3.950000e-01    2.110000e+00
   P3q TC4vr  1 3.950000e-01    2.310000e+00
   P2q TC4vr  1 3.950000e-01    2.310000e+00
   P1q TC4vr  1 3.950000e-01    2.310000e+00
   N6q TC4vr  1 3.950000e-01    2.500000e+00
   N5q TC4vr  1 3.950000e-01    2.500000e+00
   N4q TC4vr  1 3.950000e-01    2.700000e+00
   N3q TC4vr  1 3.950000e-01    2.700000e+00
   N2q TC4vr  1 3.950000e-01    2.700000e+00
   N1q TC4vr  1 3.950000e-01    2.940000e+00
   C6q TC4vr  1 3.950000e-01    2.940000e+00
   C5q TC4vr  1 3.950000e-01    2.940000e+00
   C4q TC4vr  1 3.950000e-01    2.940000e+00
  C4vr  TC3q  1 3.950000e-01    2.940000e+00
  C4vr  TC2q  1 3.950000e-01    2.700000e+00
  C4vr  TC1q  1 3.950000e-01    2.500000e+00
  C4vr  TX4q  1 3.950000e-01    2.700000e+00
  C4vr  TX3q  1 3.950000e-01    2.700000e+00
  C4vr  TX2q  1 3.950000e-01    2.700000e+00
  C4vr  TX1q  1 3.950000e-01    2.940000e+00
  P6dq TC4vr  1 3.980000e-01    1.450000e+00
  P5dq TC4vr  1 3.950000e-01    1.670000e+00
  P4dq TC4vr  1 3.950000e-01    1.670000e+00
  P3dq TC4vr  1 3.950000e-01    1.850000e+00
  P2dq TC4vr  1 3.950000e-01    1.850000e+00
  P1dq TC4vr  1 3.950000e-01    1.850000e+00
  N6dq TC4vr  1 3.950000e-01    2.110000e+00
  N5dq TC4vr  1 3.950000e-01    2.110000e+00
  N4dq TC4vr  1 3.950000e-01    2.310000e+00
  N3dq TC4vr  1 3.950000e-01    2.310000e+00
  N2dq TC4vr  1 3.950000e-01    2.310000e+00
  N1dq TC4vr  1 3.950000e-01    2.500000e+00
  P6aq TC4vr  1 3.950000e-01    1.850000e+00
  P5aq TC4vr  1 3.950000e-01    2.110000e+00
  P4aq TC4vr  1 3.950000e-01    2.110000e+00
  P3aq TC4vr  1 3.950000e-01    2.310000e+00
  P2aq TC4vr  1 3.950000e-01    2.310000e+00
  P1aq TC4vr  1 3.950000e-01    2.310000e+00
  N6aq TC4vr  1 3.950000e-01    2.500000e+00
  N5aq TC4vr  1 3.950000e-01    2.500000e+00
  N4aq TC4vr  1 3.950000e-01    2.700000e+00
  N3aq TC4vr  1 3.950000e-01    2.700000e+00
  N2aq TC4vr  1 3.950000e-01    2.700000e+00
  N1aq TC4vr  1 3.950000e-01    2.940000e+00
  C6vq TC4vr  1 3.950000e-01    2.500000e+00
  C5vq TC4vr  1 3.950000e-01    2.500000e+00
  C4vr TC4vq  1 3.950000e-01    2.500000e+00
  C4vr TX1eq  1 3.950000e-01    3.190000e+00
  C4vr TX2eq  1 3.950000e-01    2.940000e+00
  C4vr TX3eq  1 3.950000e-01    2.940000e+00
  C4vr TX4eq  1 3.950000e-01    2.940000e+00
  C4vr TC1eq  1 3.950000e-01    2.700000e+00
  C4vr TC2eq  1 3.950000e-01    2.940000e+00
  C4vr TC3eq  1 3.950000e-01    3.190000e+00
  C4vr TC4eq  1 3.950000e-01    3.190000e+00
  C5eq TC4vr  1 3.950000e-01    3.190000e+00
  C6eq TC4vr  1 3.950000e-01    3.190000e+00
  C4vr TX1vq  1 3.950000e-01    2.500000e+00
  C4vr TX2vq  1 3.950000e-01    2.310000e+00
  C4vr TX3vq  1 3.950000e-01    2.310000e+00
  C4vr TX4vq  1 3.950000e-01    2.310000e+00
  C4vr TC1vq  1 3.950000e-01    2.110000e+00
  C4vr TC2vq  1 3.950000e-01    2.310000e+00
  C4vr TC3vq  1 3.950000e-01    2.500000e+00
   C3v TC3vr  1 3.950000e-01    2.110000e+00
  C3vr  TC2v  1 3.950000e-01    2.110000e+00
  C3vr  TC1v  1 3.950000e-01    2.110000e+00
  C3vr  TX4v  1 3.950000e-01    1.850000e+00
  C3vr  TX3v  1 3.950000e-01    1.850000e+00
  C3vr  TX2v  1 3.950000e-01    1.850000e+00
  C3vr  TX1v  1 3.950000e-01    2.110000e+00
   C6e TC3vr  1 3.950000e-01    2.500000e+00
   C5e TC3vr  1 3.950000e-01    2.500000e+00
   C4e TC3vr  1 3.950000e-01    2.700000e+00
  C3vr  TC3e  1 3.950000e-01    2.700000e+00
  C3vr  TC2e  1 3.950000e-01    2.700000e+00
  C3vr  TC1e  1 3.950000e-01    2.700000e+00
  C3vr  TX4e  1 3.950000e-01    2.500000e+00
  C3vr  TX3e  1 3.950000e-01    2.500000e+00
  C3vr  TX2e  1 3.950000e-01    2.500000e+00
  C3vr  TX1e  1 3.950000e-01    2.700000e+00
   P6q TC3vr  1 3.950000e-01    1.670000e+00
   P5q TC3vr  1 3.950000e-01    1.850000e+00
   P4q TC3vr  1 3.950000e-01    1.850000e+00
   P3q TC3vr  1 3.950000e-01    1.850000e+00
   P2q TC3vr  1 3.950000e-01    2.110000e+00
   P1q TC3vr  1 3.950000e-01    2.110000e+00
   N6q TC3vr  1 3.950000e-01    2.310000e+00
   N5q TC3vr  1 3.950000e-01    2.500000e+00
   N4q TC3vr  1 3.950000e-01    2.500000e+00
   N3q TC3vr  1 3.950000e-01    2.500000e+00
   N2q TC3vr  1 3.950000e-01    2.700000e+00
   N1q TC3vr  1 3.950000e-01    2.700000e+00
   C6q TC3vr  1 3.950000e-01    2.700000e+00
   C5q TC3vr  1 3.950000e-01    2.700000e+00
   C4q TC3vr  1 3.950000e-01    2.940000e+00
   C3q TC3vr  1 3.950000e-01    2.940000e+00
  C3vr  TC2q  1 3.950000e-01    2.940000e+00
  C3vr  TC1q  1 3.950000e-01    2.940000e+00
  C3vr  TX4q  1 3.950000e-01    2.700000e+00
  C3vr  TX3q  1 3.950000e-01    2.700000e+00
  C3vr  TX2q  1 3.950000e-01    2.700000e+00
  C3vr  TX1q  1 3.950000e-01    2.940000e+00
  P6dq TC3vr  1 3.990000e-01    1.180000e+00
  P5dq TC3vr  1 3.980000e-01    1.450000e+00
  P4dq TC3vr  1 3.980000e-01    1.450000e+00
  P3dq TC3vr  1 3.980000e-01    1.450000e+00
  P2dq TC3vr  1 3.950000e-01    1.670000e+00
  P1dq TC3vr  1 3.950000e-01    1.670000e+00
  N6dq TC3vr  1 3.950000e-01    1.850000e+00
  N5dq TC3vr  1 3.950000e-01    2.110000e+00
  N4dq TC3vr  1 3.950000e-01    2.110000e+00
  N3dq TC3vr  1 3.950000e-01    2.110000e+00
  N2dq TC3vr  1 3.950000e-01    2.310000e+00
  N1dq TC3vr  1 3.950000e-01    2.310000e+00
  P6aq TC3vr  1 3.950000e-01    1.670000e+00
  P5aq TC3vr  1 3.950000e-01    1.850000e+00
  P4aq TC3vr  1 3.950000e-01    1.850000e+00
  P3aq TC3vr  1 3.950000e-01    1.850000e+00
  P2aq TC3vr  1 3.950000e-01    2.110000e+00
  P1aq TC3vr  1 3.950000e-01    2.110000e+00
  N6aq TC3vr  1 3.950000e-01    2.310000e+00
  N5aq TC3vr  1 3.950000e-01    2.500000e+00
  N4aq TC3vr  1 3.950000e-01    2.500000e+00
  N3aq TC3vr  1 3.950000e-01    2.500000e+00
  N2aq TC3vr  1 3.950000e-01    2.700000e+00
  N1aq TC3vr  1 3.950000e-01    2.700000e+00
  C6vq TC3vr  1 3.950000e-01    2.310000e+00
  C5vq TC3vr  1 3.950000e-01    2.310000e+00
  C4vq TC3vr  1 3.950000e-01    2.500000e+00
  C3vr TC3vq  1 3.950000e-01    2.500000e+00
  C3vr TX1eq  1 3.950000e-01    3.190000e+00
  C3vr TX2eq  1 3.950000e-01    2.940000e+00
  C3vr TX3eq  1 3.950000e-01    2.940000e+00
  C3vr TX4eq  1 3.950000e-01    2.940000e+00
  C3vr TC1eq  1 3.950000e-01    3.190000e+00
  C3vr TC2eq  1 3.950000e-01    3.190000e+00
  C3vr TC3eq  1 3.950000e-01    3.190000e+00
  C4eq TC3vr  1 3.950000e-01    3.190000e+00
  C5eq TC3vr  1 3.950000e-01    2.940000e+00
  C6eq TC3vr  1 3.950000e-01    2.940000e+00
  C3vr TX1vq  1 3.950000e-01    2.500000e+00
  C3vr TX2vq  1 3.950000e-01    2.310000e+00
  C3vr TX3vq  1 3.950000e-01    2.310000e+00
  C3vr TX4vq  1 3.950000e-01    2.310000e+00
  C3vr TC1vq  1 3.950000e-01    2.500000e+00
  C3vr TC2vq  1 3.950000e-01    2.500000e+00
   C2v TC2vr  1 3.950000e-01    2.110000e+00
  C2vr  TC1v  1 3.950000e-01    2.310000e+00
  C2vr  TX4v  1 3.980000e-01    1.450000e+00
  C2vr  TX3v  1 3.950000e-01    1.850000e+00
  C2vr  TX2v  1 3.950000e-01    1.850000e+00
  C2vr  TX1v  1 3.950000e-01    1.850000e+00
   C6e TC2vr  1 3.950000e-01    2.310000e+00
   C5e TC2vr  1 3.950000e-01    2.310000e+00
   C4e TC2vr  1 3.950000e-01    2.500000e+00
   C3e TC2vr  1 3.950000e-01    2.700000e+00
  C2vr  TC2e  1 3.950000e-01    2.700000e+00
  C2vr  TC1e  1 3.950000e-01    2.940000e+00
  C2vr  TX4e  1 3.950000e-01    2.110000e+00
  C2vr  TX3e  1 3.950000e-01    2.500000e+00
  C2vr  TX2e  1 3.950000e-01    2.500000e+00
  C2vr  TX1e  1 3.950000e-01    2.500000e+00
   P6q TC2vr  1 3.950000e-01    1.670000e+00
   P5q TC2vr  1 3.950000e-01    1.850000e+00
   P4q TC2vr  1 3.950000e-01    1.850000e+00
   P3q TC2vr  1 3.950000e-01    1.850000e+00
   P2q TC2vr  1 3.950000e-01    2.110000e+00
   P1q TC2vr  1 3.950000e-01    2.110000e+00
   N6q TC2vr  1 3.950000e-01    2.310000e+00
   N5q TC2vr  1 3.950000e-01    2.310000e+00
   N4q TC2vr  1 3.950000e-01    2.310000e+00
   N3q TC2vr  1 3.950000e-01    2.500000e+00
   N2q TC2vr  1 3.950000e-01    2.500000e+00
   N1q TC2vr  1 3.950000e-01    2.500000e+00
   C6q TC2vr  1 3.950000e-01    2.500000e+00
   C5q TC2vr  1 3.950000e-01    2.500000e+00
   C4q TC2vr  1 3.950000e-01    2.700000e+00
   C3q TC2vr  1 3.950000e-01    2.940000e+00
   C2q TC2vr  1 3.950000e-01    2.940000e+00
  C2vr  TC1q  1 3.950000e-01    3.190000e+00
  C2vr  TX4q  1 3.950000e-01    2.310000e+00
  C2vr  TX3q  1 3.950000e-01    2.700000e+00
  C2vr  TX2q  1 3.950000e-01    2.700000e+00
  C2vr  TX1q  1 3.950000e-01    2.700000e+00
  P6dq TC2vr  1 3.990000e-01    1.180000e+00
  P5dq TC2vr  1 3.980000e-01    1.450000e+00
  P4dq TC2vr  1 3.980000e-01    1.450000e+00
  P3dq TC2vr  1 3.980000e-01    1.450000e+00
  P2dq TC2vr  1 3.950000e-01    1.670000e+00
  P1dq TC2vr  1 3.950000e-01    1.670000e+00
  N6dq TC2vr  1 3.950000e-01    1.850000e+00
  N5dq TC2vr  1 3.950000e-01    1.850000e+00
  N4dq TC2vr  1 3.950000e-01    1.850000e+00
  N3dq TC2vr  1 3.950000e-01    2.110000e+00
  N2dq TC2vr  1 3.950000e-01    2.110000e+00
  N1dq TC2vr  1 3.950000e-01    2.110000e+00
  P6aq TC2vr  1 3.950000e-01    1.670000e+00
  P5aq TC2vr  1 3.950000e-01    1.850000e+00
  P4aq TC2vr  1 3.950000e-01    1.850000e+00
  P3aq TC2vr  1 3.950000e-01    1.850000e+00
  P2aq TC2vr  1 3.950000e-01    2.110000e+00
  P1aq TC2vr  1 3.950000e-01    2.110000e+00
  N6aq TC2vr  1 3.950000e-01    2.310000e+00
  N5aq TC2vr  1 3.950000e-01    2.310000e+00
  N4aq TC2vr  1 3.950000e-01    2.310000e+00
  N3aq TC2vr  1 3.950000e-01    2.500000e+00
  N2aq TC2vr  1 3.950000e-01    2.500000e+00
  N1aq TC2vr  1 3.950000e-01    2.500000e+00
  C6vq TC2vr  1 3.950000e-01    2.110000e+00
  C5vq TC2vr  1 3.950000e-01    2.110000e+00
  C4vq TC2vr  1 3.950000e-01    2.310000e+00
  C3vq TC2vr  1 3.950000e-01    2.500000e+00
  C2vr TC2vq  1 3.950000e-01    2.500000e+00
  C2vr TX1eq  1 3.950000e-01    2.940000e+00
  C2vr TX2eq  1 3.950000e-01    2.940000e+00
  C2vr TX3eq  1 3.950000e-01    2.940000e+00
  C2vr TX4eq  1 3.950000e-01    2.500000e+00
  C2vr TC1eq  1 3.950000e-01    3.430000e+00
  C2vr TC2eq  1 3.950000e-01    3.190000e+00
  C3eq TC2vr  1 3.950000e-01    3.190000e+00
  C4eq TC2vr  1 3.950000e-01    2.940000e+00
  C5eq TC2vr  1 3.950000e-01    2.700000e+00
  C6eq TC2vr  1 3.950000e-01    2.700000e+00
  C2vr TX1vq  1 3.950000e-01    2.310000e+00
  C2vr TX2vq  1 3.950000e-01    2.310000e+00
  C2vr TX3vq  1 3.950000e-01    2.310000e+00
  C2vr TX4vq  1 3.950000e-01    1.850000e+00
  C2vr TC1vq  1 3.950000e-01    2.700000e+00
   C1v TC1vr  1 3.950000e-01    2.110000e+00
  C1vr  TX4v  1 3.980000e-01    1.450000e+00
  C1vr  TX3v  1 3.950000e-01    1.850000e+00
  C1vr  TX2v  1 3.950000e-01    1.850000e+00
  C1vr  TX1v  1 3.950000e-01    1.850000e+00
   C6e TC1vr  1 3.950000e-01    2.110000e+00
   C5e TC1vr  1 3.950000e-01    2.310000e+00
   C4e TC1vr  1 3.950000e-01    2.310000e+00
   C3e TC1vr  1 3.950000e-01    2.700000e+00
   C2e TC1vr  1 3.950000e-01    2.940000e+00
  C1vr  TC1e  1 3.950000e-01    2.700000e+00
  C1vr  TX4e  1 3.950000e-01    2.110000e+00
  C1vr  TX3e  1 3.950000e-01    2.500000e+00
  C1vr  TX2e  1 3.950000e-01    2.500000e+00
  C1vr  TX1e  1 3.950000e-01    2.500000e+00
   P6q TC1vr  1 3.990000e-01    1.180000e+00
   P5q TC1vr  1 3.950000e-01    1.670000e+00
   P4q TC1vr  1 3.950000e-01    1.670000e+00
   P3q TC1vr  1 3.950000e-01    1.670000e+00
   P2q TC1vr  1 3.950000e-01    1.850000e+00
   P1q TC1vr  1 3.950000e-01    1.850000e+00
   N6q TC1vr  1 3.950000e-01    2.110000e+00
   N5q TC1vr  1 3.950000e-01    2.110000e+00
   N4q TC1vr  1 3.950000e-01    2.110000e+00
   N3q TC1vr  1 3.950000e-01    2.310000e+00
   N2q TC1vr  1 3.950000e-01    2.310000e+00
   N1q TC1vr  1 3.950000e-01    2.310000e+00
   C6q TC1vr  1 3.950000e-01    2.310000e+00
   C5q TC1vr  1 3.950000e-01    2.500000e+00
   C4q TC1vr  1 3.950000e-01    2.500000e+00
   C3q TC1vr  1 3.950000e-01    2.940000e+00
   C2q TC1vr  1 3.950000e-01    3.190000e+00
   C1q TC1vr  1 3.950000e-01    2.940000e+00
  C1vr  TX4q  1 3.950000e-01    2.310000e+00
  C1vr  TX3q  1 3.950000e-01    2.700000e+00
  C1vr  TX2q  1 3.950000e-01    2.700000e+00
  C1vr  TX1q  1 3.950000e-01    2.700000e+00
  P6dq TC1vr  1 4.040000e-01    8.300000e-01
  P5dq TC1vr  1 3.990000e-01    1.180000e+00
  P4dq TC1vr  1 3.990000e-01    1.180000e+00
  P3dq TC1vr  1 3.990000e-01    1.180000e+00
  P2dq TC1vr  1 3.980000e-01    1.450000e+00
  P1dq TC1vr  1 3.980000e-01    1.450000e+00
  N6dq TC1vr  1 3.950000e-01    1.670000e+00
  N5dq TC1vr  1 3.950000e-01    1.670000e+00
  N4dq TC1vr  1 3.950000e-01    1.670000e+00
  N3dq TC1vr  1 3.950000e-01    1.850000e+00
  N2dq TC1vr  1 3.950000e-01    1.850000e+00
  N1dq TC1vr  1 3.950000e-01    1.850000e+00
  P6aq TC1vr  1 3.990000e-01    1.180000e+00
  P5aq TC1vr  1 3.950000e-01    1.670000e+00
  P4aq TC1vr  1 3.950000e-01    1.670000e+00
  P3aq TC1vr  1 3.950000e-01    1.670000e+00
  P2aq TC1vr  1 3.950000e-01    1.850000e+00
  P1aq TC1vr  1 3.950000e-01    1.850000e+00
  N6aq TC1vr  1 3.950000e-01    2.110000e+00
  N5aq TC1vr  1 3.950000e-01    2.110000e+00
  N4aq TC1vr  1 3.950000e-01    2.110000e+00
  N3aq TC1vr  1 3.950000e-01    2.310000e+00
  N2aq TC1vr  1 3.950000e-01    2.310000e+00
  N1aq TC1vr  1 3.950000e-01    2.310000e+00
  C6vq TC1vr  1 3.950000e-01    1.850000e+00
  C5vq TC1vr  1 3.950000e-01    2.110000e+00
  C4vq TC1vr  1 3.950000e-01    2.110000e+00
  C3vq TC1vr  1 3.950000e-01    2.500000e+00
  C2vq TC1vr  1 3.950000e-01    2.700000e+00
  C1vr TC1vq  1 3.950000e-01    2.500000e+00
  C1vr TX1eq  1 3.950000e-01    2.940000e+00
  C1vr TX2eq  1 3.950000e-01    2.940000e+00
  C1vr TX3eq  1 3.950000e-01    2.940000e+00
  C1vr TX4eq  1 3.950000e-01    2.500000e+00
  C1vr TC1eq  1 3.950000e-01    3.190000e+00
  C2eq TC1vr  1 3.950000e-01    3.430000e+00
  C3eq TC1vr  1 3.950000e-01    3.190000e+00
  C4eq TC1vr  1 3.950000e-01    2.700000e+00
  C5eq TC1vr  1 3.950000e-01    2.700000e+00
  C6eq TC1vr  1 3.950000e-01    2.500000e+00
  C1vr TX1vq  1 3.950000e-01    2.310000e+00
  C1vr TX2vq  1 3.950000e-01    2.310000e+00
  C1vr TX3vq  1 3.950000e-01    2.310000e+00
  C1vr TX4vq  1 3.950000e-01    1.850000e+00
   X4v TX4vr  1 3.950000e-01    2.110000e+00
  X4vr  TX3v  1 3.950000e-01    2.110000e+00
  X4vr  TX2v  1 3.950000e-01    2.110000e+00
  X4vr  TX1v  1 3.950000e-01    2.110000e+00
   C6e TX4vr  1 3.950000e-01    2.700000e+00
   C5e TX4vr  1 3.950000e-01    2.500000e+00
   C4e TX4vr  1 3.950000e-01    2.500000e+00
   C3e TX4vr  1 3.950000e-01    2.500000e+00
   C2e TX4vr  1 3.950000e-01    2.110000e+00
   C1e TX4vr  1 3.950000e-01    2.110000e+00
  X4vr  TX4e  1 3.950000e-01    2.700000e+00
  X4vr  TX3e  1 3.950000e-01    2.700000e+00
  X4vr  TX2e  1 3.950000e-01    2.700000e+00
  X4vr  TX1e  1 3.950000e-01    2.700000e+00
   P6q TX4vr  1 3.950000e-01    2.500000e+00
   P5q TX4vr  1 3.950000e-01    2.700000e+00
   P4q TX4vr  1 3.950000e-01    2.700000e+00
   P3q TX4vr  1 3.950000e-01    2.700000e+00
   P2q TX4vr  1 3.950000e-01    2.700000e+00
   P1q TX4vr  1 3.950000e-01    2.700000e+00
   N6q TX4vr  1 3.950000e-01    2.940000e+00
   N5q TX4vr  1 3.950000e-01    3.190000e+00
   N4q TX4vr  1 3.950000e-01    3.430000e+00
   N3q TX4vr  1 3.950000e-01    3.190000e+00
   N2q TX4vr  1 3.950000e-01    3.190000e+00
   N1q TX4vr  1 3.950000e-01    2.940000e+00
   C6q TX4vr  1 3.950000e-01    2.940000e+00
   C5q TX4vr  1 3.950000e-01    2.700000e+00
   C4q TX4vr  1 3.950000e-01    2.700000e+00
   C3q TX4vr  1 3.950000e-01    2.700000e+00
   C2q TX4vr  1 3.950000e-01    2.310000e+00
   C1q TX4vr  1 3.950000e-01    2.310000e+00
   X4q TX4vr  1 3.950000e-01    2.940000e+00
  X4vr  TX3q  1 3.950000e-01    2.940000e+00
  X4vr  TX2q  1 3.950000e-01    2.940000e+00
  X4vr  TX1q  1 3.950000e-01    2.940000e+00
  P6dq TX4vr  1 3.950000e-01    2.110000e+00
  P5dq TX4vr  1 3.950000e-01    2.310000e+00
  P4dq TX4vr  1 3.950000e-01    2.310000e+00
  P3dq TX4vr  1 3.950000e-01    2.310000e+00
  P2dq TX4vr  1 3.950000e-01    2.310000e+00
  P1dq TX4vr  1 3.950000e-01    2.310000e+00
  N6dq TX4vr  1 3.950000e-01    2.500000e+00
  N5dq TX4vr  1 3.950000e-01    2.700000e+00
  N4dq TX4vr  1 3.950000e-01    2.940000e+00
  N3dq TX4vr  1 3.950000e-01    2.700000e+00
  N2dq TX4vr  1 3.950000e-01    2.700000e+00
  N1dq TX4vr  1 3.950000e-01    2.500000e+00
  P6aq TX4vr  1 3.950000e-01    2.500000e+00
  P5aq TX4vr  1 3.950000e-01    2.700000e+00
  P4aq TX4vr  1 3.950000e-01    2.700000e+00
  P3aq TX4vr  1 3.950000e-01    2.700000e+00
  P2aq TX4vr  1 3.950000e-01    2.700000e+00
  P1aq TX4vr  1 3.950000e-01    2.700000e+00
  N6aq TX4vr  1 3.950000e-01    2.940000e+00
  N5aq TX4vr  1 3.950000e-01    3.190000e+00
  N4aq TX4vr  1 3.950000e-01    3.430000e+00
  N3aq TX4vr  1 3.950000e-01    3.190000e+00
  N2aq TX4vr  1 3.950000e-01    3.190000e+00
  N1aq TX4vr  1 3.950000e-01    2.940000e+00
  C6vq TX4vr  1 3.950000e-01    2.500000e+00
  C5vq TX4vr  1 3.950000e-01    2.310000e+00
  C4vq TX4vr  1 3.950000e-01    2.310000e+00
  C3vq TX4vr  1 3.950000e-01    2.310000e+00
  C2vq TX4vr  1 3.950000e-01    1.850000e+00
  C1vq TX4vr  1 3.950000e-01    1.850000e+00
  X4vr TX4vq  1 3.950000e-01    2.500000e+00
  X4vr TX1eq  1 3.950000e-01    3.190000e+00
  X4vr TX2eq  1 3.950000e-01    3.190000e+00
  X4vr TX3eq  1 3.950000e-01    3.190000e+00
  X4vr TX4eq  1 3.950000e-01    3.190000e+00
  C1eq TX4vr  1 3.950000e-01    2.500000e+00
  C2eq TX4vr  1 3.950000e-01    2.500000e+00
  C3eq TX4vr  1 3.950000e-01    2.940000e+00
  C4eq TX4vr  1 3.950000e-01    2.940000e+00
  C5eq TX4vr  1 3.950000e-01    2.940000e+00
  C6eq TX4vr  1 3.950000e-01    3.190000e+00
  X4vr TX1vq  1 3.950000e-01    2.500000e+00
  X4vr TX2vq  1 3.950000e-01    2.500000e+00
  X4vr TX3vq  1 3.950000e-01    2.500000e+00
   X3v TX3vr  1 3.950000e-01    2.110000e+00
  X3vr  TX2v  1 3.950000e-01    2.310000e+00
  X3vr  TX1v  1 3.950000e-01    2.310000e+00
   C6e TX3vr  1 3.950000e-01    2.700000e+00
   C5e TX3vr  1 3.950000e-01    2.500000e+00
   C4e TX3vr  1 3.950000e-01    2.500000e+00
   C3e TX3vr  1 3.950000e-01    2.500000e+00
   C2e TX3vr  1 3.950000e-01    2.500000e+00
   C1e TX3vr  1 3.950000e-01    2.500000e+00
   X4e TX3vr  1 3.950000e-01    2.700000e+00
  X3vr  TX3e  1 3.950000e-01    2.700000e+00
  X3vr  TX2e  1 3.950000e-01    2.940000e+00
  X3vr  TX1e  1 3.950000e-01    2.940000e+00
   P6q TX3vr  1 3.950000e-01    2.500000e+00
   P5q TX3vr  1 3.950000e-01    2.500000e+00
   P4q TX3vr  1 3.950000e-01    2.500000e+00
   P3q TX3vr  1 3.950000e-01    2.700000e+00
   P2q TX3vr  1 3.950000e-01    2.700000e+00
   P1q TX3vr  1 3.950000e-01    2.700000e+00
   N6q TX3vr  1 3.950000e-01    2.700000e+00
   N5q TX3vr  1 3.950000e-01    2.940000e+00
   N4q TX3vr  1 3.950000e-01    3.190000e+00
   N3q TX3vr  1 3.950000e-01    2.940000e+00
   N2q TX3vr  1 3.950000e-01    2.940000e+00
   N1q TX3vr  1 3.950000e-01    2.940000e+00
   C6q TX3vr  1 3.950000e-01    2.940000e+00
   C5q TX3vr  1 3.950000e-01    2.700000e+00
   C4q TX3vr  1 3.950000e-01    2.700000e+00
   C3q TX3vr  1 3.950000e-01    2.700000e+00
   C2q TX3vr  1 3.950000e-01    2.700000e+00
   C1q TX3vr  1 3.950000e-01    2.700000e+00
   X4q TX3vr  1 3.950000e-01    2.940000e+00
   X3q TX3vr  1 3.950000e-01    2.940000e+00
  X3vr  TX2q  1 3.950000e-01    3.190000e+00
  X3vr  TX1q  1 3.950000e-01    3.190000e+00
  P6dq TX3vr  1 3.950000e-01    2.110000e+00
  P5dq TX3vr  1 3.950000e-01    2.110000e+00
  P4dq TX3vr  1 3.950000e-01    2.110000e+00
  P3dq TX3vr  1 3.950000e-01    2.310000e+00
  P2dq TX3vr  1 3.950000e-01    2.310000e+00
  P1dq TX3vr  1 3.950000e-01    2.310000e+00
  N6dq TX3vr  1 3.950000e-01    2.310000e+00
  N5dq TX3vr  1 3.950000e-01    2.500000e+00
  N4dq TX3vr  1 3.950000e-01    2.700000e+00
  N3dq TX3vr  1 3.950000e-01    2.500000e+00
  N2dq TX3vr  1 3.950000e-01    2.500000e+00
  N1dq TX3vr  1 3.950000e-01    2.500000e+00
  P6aq TX3vr  1 3.950000e-01    2.500000e+00
  P5aq TX3vr  1 3.950000e-01    2.500000e+00
  P4aq TX3vr  1 3.950000e-01    2.500000e+00
  P3aq TX3vr  1 3.950000e-01    2.700000e+00
  P2aq TX3vr  1 3.950000e-01    2.700000e+00
  P1aq TX3vr  1 3.950000e-01    2.700000e+00
  N6aq TX3vr  1 3.950000e-01    2.700000e+00
  N5aq TX3vr  1 3.950000e-01    2.940000e+00
  N4aq TX3vr  1 3.950000e-01    3.190000e+00
  N3aq TX3vr  1 3.950000e-01    2.940000e+00
  N2aq TX3vr  1 3.950000e-01    2.940000e+00
  N1aq TX3vr  1 3.950000e-01    2.940000e+00
  C6vq TX3vr  1 3.950000e-01    2.500000e+00
  C5vq TX3vr  1 3.950000e-01    2.310000e+00
  C4vq TX3vr  1 3.950000e-01    2.310000e+00
  C3vq TX3vr  1 3.950000e-01    2.310000e+00
  C2vq TX3vr  1 3.950000e-01    2.310000e+00
  C1vq TX3vr  1 3.950000e-01    2.310000e+00
  X4vq TX3vr  1 3.950000e-01    2.500000e+00
  X3vr TX3vq  1 3.950000e-01    2.500000e+00
  X3vr TX1eq  1 3.950000e-01    3.430000e+00
  X3vr TX2eq  1 3.950000e-01    3.430000e+00
  X3vr TX3eq  1 3.950000e-01    3.190000e+00
  X4eq TX3vr  1 3.950000e-01    3.190000e+00
  C1eq TX3vr  1 3.950000e-01    2.940000e+00
  C2eq TX3vr  1 3.950000e-01    2.940000e+00
  C3eq TX3vr  1 3.950000e-01    2.940000e+00
  C4eq TX3vr  1 3.950000e-01    2.940000e+00
  C5eq TX3vr  1 3.950000e-01    2.940000e+00
  C6eq TX3vr  1 3.950000e-01    3.190000e+00
  X3vr TX1vq  1 3.950000e-01    2.700000e+00
  X3vr TX2vq  1 3.950000e-01    2.700000e+00
   X2v TX2vr  1 3.950000e-01    2.310000e+00
  X2vr  TX1v  1 3.950000e-01    2.310000e+00
   C6e TX2vr  1 3.950000e-01    2.700000e+00
   C5e TX2vr  1 3.950000e-01    2.500000e+00
   C4e TX2vr  1 3.950000e-01    2.500000e+00
   C3e TX2vr  1 3.950000e-01    2.500000e+00
   C2e TX2vr  1 3.950000e-01    2.500000e+00
   C1e TX2vr  1 3.950000e-01    2.500000e+00
   X4e TX2vr  1 3.950000e-01    2.700000e+00
   X3e TX2vr  1 3.950000e-01    2.940000e+00
  X2vr  TX2e  1 3.950000e-01    2.940000e+00
  X2vr  TX1e  1 3.950000e-01    2.940000e+00
   P6q TX2vr  1 3.950000e-01    2.310000e+00
   P5q TX2vr  1 3.950000e-01    2.500000e+00
   P4q TX2vr  1 3.950000e-01    2.500000e+00
   P3q TX2vr  1 3.950000e-01    2.500000e+00
   P2q TX2vr  1 3.950000e-01    2.500000e+00
   P1q TX2vr  1 3.950000e-01    2.500000e+00
   N6q TX2vr  1 3.950000e-01    2.500000e+00
   N5q TX2vr  1 3.950000e-01    2.700000e+00
   N4q TX2vr  1 3.950000e-01    2.700000e+00
   N3q TX2vr  1 3.950000e-01    2.700000e+00
   N2q TX2vr  1 3.950000e-01    2.700000e+00
   N1q TX2vr  1 3.950000e-01    2.700000e+00
   C6q TX2vr  1 3.950000e-01    2.940000e+00
   C5q TX2vr  1 3.950000e-01    2.700000e+00
   C4q TX2vr  1 3.950000e-01    2.700000e+00
   C3q TX2vr  1 3.950000e-01    2.700000e+00
   C2q TX2vr  1 3.950000e-01    2.700000e+00
   C1q TX2vr  1 3.950000e-01    2.700000e+00
   X4q TX2vr  1 3.950000e-01    2.940000e+00
   X3q TX2vr  1 3.950000e-01    3.190000e+00
   X2q TX2vr  1 3.950000e-01    3.190000e+00
  X2vr  TX1q  1 3.950000e-01    3.190000e+00
  P6dq TX2vr  1 3.950000e-01    1.850000e+00
  P5dq TX2vr  1 3.950000e-01    2.110000e+00
  P4dq TX2vr  1 3.950000e-01    2.110000e+00
  P3dq TX2vr  1 3.950000e-01    2.110000e+00
  P2dq TX2vr  1 3.950000e-01    2.110000e+00
  P1dq TX2vr  1 3.950000e-01    2.110000e+00
  N6dq TX2vr  1 3.950000e-01    2.110000e+00
  N5dq TX2vr  1 3.950000e-01    2.310000e+00
  N4dq TX2vr  1 3.950000e-01    2.310000e+00
  N3dq TX2vr  1 3.950000e-01    2.310000e+00
  N2dq TX2vr  1 3.950000e-01    2.310000e+00
  N1dq TX2vr  1 3.950000e-01    2.310000e+00
  P6aq TX2vr  1 3.950000e-01    2.310000e+00
  P5aq TX2vr  1 3.950000e-01    2.500000e+00
  P4aq TX2vr  1 3.950000e-01    2.500000e+00
  P3aq TX2vr  1 3.950000e-01    2.500000e+00
  P2aq TX2vr  1 3.950000e-01    2.500000e+00
  P1aq TX2vr  1 3.950000e-01    2.500000e+00
  N6aq TX2vr  1 3.950000e-01    2.500000e+00
  N5aq TX2vr  1 3.950000e-01    2.700000e+00
  N4aq TX2vr  1 3.950000e-01    2.700000e+00
  N3aq TX2vr  1 3.950000e-01    2.700000e+00
  N2aq TX2vr  1 3.950000e-01    2.700000e+00
  N1aq TX2vr  1 3.950000e-01    2.700000e+00
  C6vq TX2vr  1 3.950000e-01    2.500000e+00
  C5vq TX2vr  1 3.950000e-01    2.310000e+00
  C4vq TX2vr  1 3.950000e-01    2.310000e+00
  C3vq TX2vr  1 3.950000e-01    2.310000e+00
  C2vq TX2vr  1 3.950000e-01    2.310000e+00
  C1vq TX2vr  1 3.950000e-01    2.310000e+00
  X4vq TX2vr  1 3.950000e-01    2.500000e+00
  X3vq TX2vr  1 3.950000e-01    2.700000e+00
  X2vr TX2vq  1 3.950000e-01    2.700000e+00
  X2vr TX1eq  1 3.950000e-01    3.430000e+00
  X2vr TX2eq  1 3.950000e-01    3.430000e+00
  X3eq TX2vr  1 3.950000e-01    3.430000e+00
  X4eq TX2vr  1 3.950000e-01    3.190000e+00
  C1eq TX2vr  1 3.950000e-01    2.940000e+00
  C2eq TX2vr  1 3.950000e-01    2.940000e+00
  C3eq TX2vr  1 3.950000e-01    2.940000e+00
  C4eq TX2vr  1 3.950000e-01    2.940000e+00
  C5eq TX2vr  1 3.950000e-01    2.940000e+00
  C6eq TX2vr  1 3.950000e-01    3.190000e+00
  X2vr TX1vq  1 3.950000e-01    2.700000e+00
   X1v TX1vr  1 3.950000e-01    2.500000e+00
   C6e TX1vr  1 3.950000e-01    2.700000e+00
   C5e TX1vr  1 3.950000e-01    2.700000e+00
   C4e TX1vr  1 3.950000e-01    2.700000e+00
   C3e TX1vr  1 3.950000e-01    2.700000e+00
   C2e TX1vr  1 3.950000e-01    2.500000e+00
   C1e TX1vr  1 3.950000e-01    2.500000e+00
   X4e TX1vr  1 3.950000e-01    2.700000e+00
   X3e TX1vr  1 3.950000e-01    2.940000e+00
   X2e TX1vr  1 3.950000e-01    2.940000e+00
  X1vr  TX1e  1 3.950000e-01    3.190000e+00
   P6q TX1vr  1 3.950000e-01    2.110000e+00
   P5q TX1vr  1 3.950000e-01    2.110000e+00
   P4q TX1vr  1 3.950000e-01    2.310000e+00
   P3q TX1vr  1 3.950000e-01    2.310000e+00
   P2q TX1vr  1 3.950000e-01    2.310000e+00
   P1q TX1vr  1 3.950000e-01    2.310000e+00
   N6q TX1vr  1 3.950000e-01    2.310000e+00
   N5q TX1vr  1 3.950000e-01    2.500000e+00
   N4q TX1vr  1 3.950000e-01    2.500000e+00
   N3q TX1vr  1 3.950000e-01    2.700000e+00
   N2q TX1vr  1 3.950000e-01    2.700000e+00
   N1q TX1vr  1 3.950000e-01    2.700000e+00
   C6q TX1vr  1 3.950000e-01    2.940000e+00
   C5q TX1vr  1 3.950000e-01    2.940000e+00
   C4q TX1vr  1 3.950000e-01    2.940000e+00
   C3q TX1vr  1 3.950000e-01    2.940000e+00
   C2q TX1vr  1 3.950000e-01    2.700000e+00
   C1q TX1vr  1 3.950000e-01    2.700000e+00
   X4q TX1vr  1 3.950000e-01    2.940000e+00
   X3q TX1vr  1 3.950000e-01    3.190000e+00
   X2q TX1vr  1 3.950000e-01    3.190000e+00
   X1q TX1vr  1 3.950000e-01    3.430000e+00
  P6dq TX1vr  1 3.950000e-01    1.670000e+00
  P5dq TX1vr  1 3.950000e-01    1.670000e+00
  P4dq TX1vr  1 3.950000e-01    1.850000e+00
  P3dq TX1vr  1 3.950000e-01    1.850000e+00
  P2dq TX1vr  1 3.950000e-01    1.850000e+00
  P1dq TX1vr  1 3.950000e-01    1.850000e+00
  N6dq TX1vr  1 3.950000e-01    1.850000e+00
  N5dq TX1vr  1 3.950000e-01    2.110000e+00
  N4dq TX1vr  1 3.950000e-01    2.110000e+00
  N3dq TX1vr  1 3.950000e-01    2.310000e+00
  N2dq TX1vr  1 3.950000e-01    2.310000e+00
  N1dq TX1vr  1 3.950000e-01    2.310000e+00
  P6aq TX1vr  1 3.950000e-01    2.110000e+00
  P5aq TX1vr  1 3.950000e-01    2.110000e+00
  P4aq TX1vr  1 3.950000e-01    2.310000e+00
  P3aq TX1vr  1 3.950000e-01    2.310000e+00
  P2aq TX1vr  1 3.950000e-01    2.310000e+00
  P1aq TX1vr  1 3.950000e-01    2.310000e+00
  N6aq TX1vr  1 3.950000e-01    2.310000e+00
  N5aq TX1vr  1 3.950000e-01    2.500000e+00
  N4aq TX1vr  1 3.950000e-01    2.500000e+00
  N3aq TX1vr  1 3.950000e-01    2.700000e+00
  N2aq TX1vr  1 3.950000e-01    2.700000e+00
  N1aq TX1vr  1 3.950000e-01    2.700000e+00
  C6vq TX1vr  1 3.950000e-01    2.500000e+00
  C5vq TX1vr  1 3.950000e-01    2.500000e+00
  C4vq TX1vr  1 3.950000e-01    2.500000e+00
  C3vq TX1vr  1 3.950000e-01    2.500000e+00
  C2vq TX1vr  1 3.950000e-01    2.310000e+00
  C1vq TX1vr  1 3.950000e-01    2.310000e+00
  X4vq TX1vr  1 3.950000e-01    2.500000e+00
  X3vq TX1vr  1 3.950000e-01    2.700000e+00
  X2vq TX1vr  1 3.950000e-01    2.700000e+00
  X1vr TX1vq  1 3.950000e-01    2.940000e+00
  X1vr TX1eq  1 3.950000e-01    3.670000e+00
  X2eq TX1vr  1 3.950000e-01    3.430000e+00
  X3eq TX1vr  1 3.950000e-01    3.430000e+00
  X4eq TX1vr  1 3.950000e-01    3.190000e+00
  C1eq TX1vr  1 3.950000e-01    2.940000e+00
  C2eq TX1vr  1 3.950000e-01    2.940000e+00
  C3eq TX1vr  1 3.950000e-01    3.190000e+00
  C4eq TX1vr  1 3.950000e-01    3.190000e+00
  C5eq TX1vr  1 3.950000e-01    3.190000e+00
  C6eq TX1vr  1 3.950000e-01    3.190000e+00
   C6e TC6er  1 3.950000e-01    2.310000e+00
  C6er  TC5e  1 3.950000e-01    2.110000e+00
  C6er  TC4e  1 3.950000e-01    2.110000e+00
  C6er  TC3e  1 3.950000e-01    1.850000e+00
  C6er  TC2e  1 3.950000e-01    1.670000e+00
  C6er  TC1e  1 3.980000e-01    1.450000e+00
  C6er  TX4e  1 3.950000e-01    2.110000e+00
  C6er  TX3e  1 3.950000e-01    2.110000e+00
  C6er  TX2e  1 3.950000e-01    2.110000e+00
  C6er  TX1e  1 3.950000e-01    2.110000e+00
   P6q TC6er  1 3.950000e-01    2.310000e+00
   P5q TC6er  1 3.950000e-01    2.310000e+00
   P4q TC6er  1 3.950000e-01    2.500000e+00
   P3q TC6er  1 3.950000e-01    2.700000e+00
   P2q TC6er  1 3.950000e-01    2.700000e+00
   P1q TC6er  1 3.950000e-01    2.700000e+00
   N6q TC6er  1 3.950000e-01    2.940000e+00
   N5q TC6er  1 3.950000e-01    2.940000e+00
   N4q TC6er  1 3.950000e-01    2.940000e+00
   N3q TC6er  1 3.950000e-01    2.940000e+00
   N2q TC6er  1 3.950000e-01    2.940000e+00
   N1q TC6er  1 3.950000e-01    3.190000e+00
   C6q TC6er  1 3.950000e-01    3.190000e+00
  C6er  TC5q  1 3.950000e-01    2.940000e+00
  C6er  TC4q  1 3.950000e-01    2.940000e+00
  C6er  TC3q  1 3.950000e-01    2.700000e+00
  C6er  TC2q  1 3.950000e-01    2.500000e+00
  C6er  TC1q  1 3.950000e-01    2.310000e+00
  C6er  TX4q  1 3.950000e-01    2.940000e+00
  C6er  TX3q  1 3.950000e-01    2.940000e+00
  C6er  TX2q  1 3.950000e-01    2.940000e+00
  C6er  TX1q  1 3.950000e-01    2.940000e+00
  P6dq TC6er  1 3.950000e-01    2.310000e+00
  P5dq TC6er  1 3.950000e-01    2.310000e+00
  P4dq TC6er  1 3.950000e-01    2.500000e+00
  P3dq TC6er  1 3.950000e-01    2.700000e+00
  P2dq TC6er  1 3.950000e-01    2.700000e+00
  P1dq TC6er  1 3.950000e-01    2.700000e+00
  N6dq TC6er  1 3.950000e-01    2.940000e+00
  N5dq TC6er  1 3.950000e-01    2.940000e+00
  N4dq TC6er  1 3.950000e-01    2.940000e+00
  N3dq TC6er  1 3.950000e-01    2.940000e+00
  N2dq TC6er  1 3.950000e-01    2.940000e+00
  N1dq TC6er  1 3.950000e-01    3.190000e+00
  P6aq TC6er  1 3.950000e-01    1.850000e+00
  P5aq TC6er  1 3.950000e-01    1.850000e+00
  P4aq TC6er  1 3.950000e-01    2.110000e+00
  P3aq TC6er  1 3.950000e-01    2.310000e+00
  P2aq TC6er  1 3.950000e-01    2.310000e+00
  P1aq TC6er  1 3.950000e-01    2.310000e+00
  N6aq TC6er  1 3.950000e-01    2.500000e+00
  N5aq TC6er  1 3.950000e-01    2.500000e+00
  N4aq TC6er  1 3.950000e-01    2.500000e+00
  N3aq TC6er  1 3.950000e-01    2.500000e+00
  N2aq TC6er  1 3.950000e-01    2.500000e+00
  N1aq TC6er  1 3.950000e-01    2.700000e+00
  C6vq TC6er  1 3.950000e-01    3.430000e+00
  C6er TC5vq  1 3.950000e-01    3.190000e+00
  C6er TC4vq  1 3.950000e-01    3.190000e+00
  C6er TC3vq  1 3.950000e-01    2.940000e+00
  C6er TC2vq  1 3.950000e-01    2.700000e+00
  C6er TC1vq  1 3.950000e-01    2.500000e+00
  C6er TX4vq  1 3.950000e-01    3.190000e+00
  C6er TX3vq  1 3.950000e-01    3.190000e+00
  C6er TX2vq  1 3.950000e-01    3.190000e+00
  C6er TX1vq  1 3.950000e-01    3.190000e+00
  C6er TC6eq  1 3.950000e-01    2.700000e+00
  C6er TX1eq  1 3.950000e-01    2.500000e+00
  C6er TX2eq  1 3.950000e-01    2.500000e+00
  C6er TX3eq  1 3.950000e-01    2.500000e+00
  C6er TX4eq  1 3.950000e-01    2.500000e+00
  C6er TC1eq  1 3.950000e-01    1.850000e+00
  C6er TC2eq  1 3.950000e-01    2.110000e+00
  C6er TC3eq  1 3.950000e-01    2.310000e+00
  C6er TC4eq  1 3.950000e-01    2.500000e+00
  C6er TC5eq  1 3.950000e-01    2.500000e+00
   C5e TC5er  1 3.950000e-01    2.110000e+00
  C5er  TC4e  1 3.950000e-01    2.110000e+00
  C5er  TC3e  1 3.950000e-01    1.850000e+00
  C5er  TC2e  1 3.950000e-01    1.670000e+00
  C5er  TC1e  1 3.950000e-01    1.670000e+00
  C5er  TX4e  1 3.950000e-01    1.850000e+00
  C5er  TX3e  1 3.950000e-01    1.850000e+00
  C5er  TX2e  1 3.950000e-01    1.850000e+00
  C5er  TX1e  1 3.950000e-01    2.110000e+00
   P6q TC5er  1 3.950000e-01    2.110000e+00
   P5q TC5er  1 3.950000e-01    2.310000e+00
   P4q TC5er  1 3.950000e-01    2.310000e+00
   P3q TC5er  1 3.950000e-01    2.500000e+00
   P2q TC5er  1 3.950000e-01    2.500000e+00
   P1q TC5er  1 3.950000e-01    2.500000e+00
   N6q TC5er  1 3.950000e-01    2.700000e+00
   N5q TC5er  1 3.950000e-01    2.700000e+00
   N4q TC5er  1 3.950000e-01    2.700000e+00
   N3q TC5er  1 3.950000e-01    2.700000e+00
   N2q TC5er  1 3.950000e-01    2.700000e+00
   N1q TC5er  1 3.950000e-01    2.940000e+00
   C6q TC5er  1 3.950000e-01    2.940000e+00
   C5q TC5er  1 3.950000e-01    2.940000e+00
  C5er  TC4q  1 3.950000e-01    2.940000e+00
  C5er  TC3q  1 3.950000e-01    2.700000e+00
  C5er  TC2q  1 3.950000e-01    2.500000e+00
  C5er  TC1q  1 3.950000e-01    2.500000e+00
  C5er  TX4q  1 3.950000e-01    2.700000e+00
  C5er  TX3q  1 3.950000e-01    2.700000e+00
  C5er  TX2q  1 3.950000e-01    2.700000e+00
  C5er  TX1q  1 3.950000e-01    2.940000e+00
  P6dq TC5er  1 3.950000e-01    2.110000e+00
  P5dq TC5er  1 3.950000e-01    2.310000e+00
  P4dq TC5er  1 3.950000e-01    2.310000e+00
  P3dq TC5er  1 3.950000e-01    2.500000e+00
  P2dq TC5er  1 3.950000e-01    2.500000e+00
  P1dq TC5er  1 3.950000e-01    2.500000e+00
  N6dq TC5er  1 3.950000e-01    2.700000e+00
  N5dq TC5er  1 3.950000e-01    2.700000e+00
  N4dq TC5er  1 3.950000e-01    2.700000e+00
  N3dq TC5er  1 3.950000e-01    2.700000e+00
  N2dq TC5er  1 3.950000e-01    2.700000e+00
  N1dq TC5er  1 3.950000e-01    2.940000e+00
  P6aq TC5er  1 3.950000e-01    1.670000e+00
  P5aq TC5er  1 3.950000e-01    1.850000e+00
  P4aq TC5er  1 3.950000e-01    1.850000e+00
  P3aq TC5er  1 3.950000e-01    2.110000e+00
  P2aq TC5er  1 3.950000e-01    2.110000e+00
  P1aq TC5er  1 3.950000e-01    2.110000e+00
  N6aq TC5er  1 3.950000e-01    2.310000e+00
  N5aq TC5er  1 3.950000e-01    2.310000e+00
  N4aq TC5er  1 3.950000e-01    2.310000e+00
  N3aq TC5er  1 3.950000e-01    2.310000e+00
  N2aq TC5er  1 3.950000e-01    2.310000e+00
  N1aq TC5er  1 3.950000e-01    2.500000e+00
  C6vq TC5er  1 3.950000e-01    3.190000e+00
  C5vq TC5er  1 3.950000e-01    3.190000e+00
  C5er TC4vq  1 3.950000e-01    3.190000e+00
  C5er TC3vq  1 3.950000e-01    2.940000e+00
  C5er TC2vq  1 3.950000e-01    2.700000e+00
  C5er TC1vq  1 3.950000e-01    2.700000e+00
  C5er TX4vq  1 3.950000e-01    2.940000e+00
  C5er TX3vq  1 3.950000e-01    2.940000e+00
  C5er TX2vq  1 3.950000e-01    2.940000e+00
  C5er TX1vq  1 3.950000e-01    3.190000e+00
  C6eq TC5er  1 3.950000e-01    2.500000e+00
  C5er TC5eq  1 3.950000e-01    2.500000e+00
  C5er TX1eq  1 3.950000e-01    2.500000e+00
  C5er TX2eq  1 3.950000e-01    2.310000e+00
  C5er TX3eq  1 3.950000e-01    2.310000e+00
  C5er TX4eq  1 3.950000e-01    2.310000e+00
  C5er TC1eq  1 3.950000e-01    2.110000e+00
  C5er TC2eq  1 3.950000e-01    2.110000e+00
  C5er TC3eq  1 3.950000e-01    2.310000e+00
  C5er TC4eq  1 3.950000e-01    2.500000e+00
   C4e TC4er  1 3.950000e-01    2.110000e+00
  C4er  TC3e  1 3.950000e-01    2.110000e+00
  C4er  TC2e  1 3.950000e-01    1.850000e+00
  C4er  TC1e  1 3.950000e-01    1.670000e+00
  C4er  TX4e  1 3.950000e-01    1.850000e+00
  C4er  TX3e  1 3.950000e-01    1.850000e+00
  C4er  TX2e  1 3.950000e-01    1.850000e+00
  C4er  TX1e  1 3.950000e-01    2.110000e+00
   P6q TC4er  1 3.950000e-01    1.850000e+00
   P5q TC4er  1 3.950000e-01    2.110000e+00
   P4q TC4er  1 3.950000e-01    2.110000e+00
   P3q TC4er  1 3.950000e-01    2.310000e+00
   P2q TC4er  1 3.950000e-01    2.310000e+00
   P1q TC4er  1 3.950000e-01    2.310000e+00
   N6q TC4er  1 3.950000e-01    2.500000e+00
   N5q TC4er  1 3.950000e-01    2.500000e+00
   N4q TC4er  1 3.950000e-01    2.700000e+00
   N3q TC4er  1 3.950000e-01    2.700000e+00
   N2q TC4er  1 3.950000e-01    2.700000e+00
   N1q TC4er  1 3.950000e-01    2.940000e+00
   C6q TC4er  1 3.950000e-01    2.940000e+00
   C5q TC4er  1 3.950000e-01    2.940000e+00
   C4q TC4er  1 3.950000e-01    2.940000e+00
  C4er  TC3q  1 3.950000e-01    2.940000e+00
  C4er  TC2q  1 3.950000e-01    2.700000e+00
  C4er  TC1q  1 3.950000e-01    2.500000e+00
  C4er  TX4q  1 3.950000e-01    2.700000e+00
  C4er  TX3q  1 3.950000e-01    2.700000e+00
  C4er  TX2q  1 3.950000e-01    2.700000e+00
  C4er  TX1q  1 3.950000e-01    2.940000e+00
  P6dq TC4er  1 3.950000e-01    1.850000e+00
  P5dq TC4er  1 3.950000e-01    2.110000e+00
  P4dq TC4er  1 3.950000e-01    2.110000e+00
  P3dq TC4er  1 3.950000e-01    2.310000e+00
  P2dq TC4er  1 3.950000e-01    2.310000e+00
  P1dq TC4er  1 3.950000e-01    2.310000e+00
  N6dq TC4er  1 3.950000e-01    2.500000e+00
  N5dq TC4er  1 3.950000e-01    2.500000e+00
  N4dq TC4er  1 3.950000e-01    2.700000e+00
  N3dq TC4er  1 3.950000e-01    2.700000e+00
  N2dq TC4er  1 3.950000e-01    2.700000e+00
  N1dq TC4er  1 3.950000e-01    2.940000e+00
  P6aq TC4er  1 3.980000e-01    1.450000e+00
  P5aq TC4er  1 3.950000e-01    1.670000e+00
  P4aq TC4er  1 3.950000e-01    1.670000e+00
  P3aq TC4er  1 3.950000e-01    1.850000e+00
  P2aq TC4er  1 3.950000e-01    1.850000e+00
  P1aq TC4er  1 3.950000e-01    1.850000e+00
  N6aq TC4er  1 3.950000e-01    2.110000e+00
  N5aq TC4er  1 3.950000e-01    2.110000e+00
  N4aq TC4er  1 3.950000e-01    2.310000e+00
  N3aq TC4er  1 3.950000e-01    2.310000e+00
  N2aq TC4er  1 3.950000e-01    2.310000e+00
  N1aq TC4er  1 3.950000e-01    2.500000e+00
  C6vq TC4er  1 3.950000e-01    3.190000e+00
  C5vq TC4er  1 3.950000e-01    3.190000e+00
  C4vq TC4er  1 3.950000e-01    3.190000e+00
  C4er TC3vq  1 3.950000e-01    3.190000e+00
  C4er TC2vq  1 3.950000e-01    2.940000e+00
  C4er TC1vq  1 3.950000e-01    2.700000e+00
  C4er TX4vq  1 3.950000e-01    2.940000e+00
  C4er TX3vq  1 3.950000e-01    2.940000e+00
  C4er TX2vq  1 3.950000e-01    2.940000e+00
  C4er TX1vq  1 3.950000e-01    3.190000e+00
  C6eq TC4er  1 3.950000e-01    2.500000e+00
  C5eq TC4er  1 3.950000e-01    2.500000e+00
  C4er TC4eq  1 3.950000e-01    2.500000e+00
  C4er TX1eq  1 3.950000e-01    2.500000e+00
  C4er TX2eq  1 3.950000e-01    2.310000e+00
  C4er TX3eq  1 3.950000e-01    2.310000e+00
  C4er TX4eq  1 3.950000e-01    2.310000e+00
  C4er TC1eq  1 3.950000e-01    2.110000e+00
  C4er TC2eq  1 3.950000e-01    2.310000e+00
  C4er TC3eq  1 3.950000e-01    2.500000e+00
   C3e TC3er  1 3.950000e-01    2.110000e+00
  C3er  TC2e  1 3.950000e-01    2.110000e+00
  C3er  TC1e  1 3.950000e-01    2.110000e+00
  C3er  TX4e  1 3.950000e-01    1.850000e+00
  C3er  TX3e  1 3.950000e-01    1.850000e+00
  C3er  TX2e  1 3.950000e-01    1.850000e+00
  C3er  TX1e  1 3.950000e-01    2.110000e+00
   P6q TC3er  1 3.950000e-01    1.670000e+00
   P5q TC3er  1 3.950000e-01    1.850000e+00
   P4q TC3er  1 3.950000e-01    1.850000e+00
   P3q TC3er  1 3.950000e-01    1.850000e+00
   P2q TC3er  1 3.950000e-01    2.110000e+00
   P1q TC3er  1 3.950000e-01    2.110000e+00
   N6q TC3er  1 3.950000e-01    2.310000e+00
   N5q TC3er  1 3.950000e-01    2.500000e+00
   N4q TC3er  1 3.950000e-01    2.500000e+00
   N3q TC3er  1 3.950000e-01    2.500000e+00
   N2q TC3er  1 3.950000e-01    2.700000e+00
   N1q TC3er  1 3.950000e-01    2.700000e+00
   C6q TC3er  1 3.950000e-01    2.700000e+00
   C5q TC3er  1 3.950000e-01    2.700000e+00
   C4q TC3er  1 3.950000e-01    2.940000e+00
   C3q TC3er  1 3.950000e-01    2.940000e+00
  C3er  TC2q  1 3.950000e-01    2.940000e+00
  C3er  TC1q  1 3.950000e-01    2.940000e+00
  C3er  TX4q  1 3.950000e-01    2.700000e+00
  C3er  TX3q  1 3.950000e-01    2.700000e+00
  C3er  TX2q  1 3.950000e-01    2.700000e+00
  C3er  TX1q  1 3.950000e-01    2.940000e+00
  P6dq TC3er  1 3.950000e-01    1.670000e+00
  P5dq TC3er  1 3.950000e-01    1.850000e+00
  P4dq TC3er  1 3.950000e-01    1.850000e+00
  P3dq TC3er  1 3.950000e-01    1.850000e+00
  P2dq TC3er  1 3.950000e-01    2.110000e+00
  P1dq TC3er  1 3.950000e-01    2.110000e+00
  N6dq TC3er  1 3.950000e-01    2.310000e+00
  N5dq TC3er  1 3.950000e-01    2.500000e+00
  N4dq TC3er  1 3.950000e-01    2.500000e+00
  N3dq TC3er  1 3.950000e-01    2.500000e+00
  N2dq TC3er  1 3.950000e-01    2.700000e+00
  N1dq TC3er  1 3.950000e-01    2.700000e+00
  P6aq TC3er  1 3.990000e-01    1.180000e+00
  P5aq TC3er  1 3.980000e-01    1.450000e+00
  P4aq TC3er  1 3.980000e-01    1.450000e+00
  P3aq TC3er  1 3.980000e-01    1.450000e+00
  P2aq TC3er  1 3.950000e-01    1.670000e+00
  P1aq TC3er  1 3.950000e-01    1.670000e+00
  N6aq TC3er  1 3.950000e-01    1.850000e+00
  N5aq TC3er  1 3.950000e-01    2.110000e+00
  N4aq TC3er  1 3.950000e-01    2.110000e+00
  N3aq TC3er  1 3.950000e-01    2.110000e+00
  N2aq TC3er  1 3.950000e-01    2.310000e+00
  N1aq TC3er  1 3.950000e-01    2.310000e+00
  C6vq TC3er  1 3.950000e-01    2.940000e+00
  C5vq TC3er  1 3.950000e-01    2.940000e+00
  C4vq TC3er  1 3.950000e-01    3.190000e+00
  C3vq TC3er  1 3.950000e-01    3.190000e+00
  C3er TC2vq  1 3.950000e-01    3.190000e+00
  C3er TC1vq  1 3.950000e-01    3.190000e+00
  C3er TX4vq  1 3.950000e-01    2.940000e+00
  C3er TX3vq  1 3.950000e-01    2.940000e+00
  C3er TX2vq  1 3.950000e-01    2.940000e+00
  C3er TX1vq  1 3.950000e-01    3.190000e+00
  C6eq TC3er  1 3.950000e-01    2.310000e+00
  C5eq TC3er  1 3.950000e-01    2.310000e+00
  C4eq TC3er  1 3.950000e-01    2.500000e+00
  C3er TC3eq  1 3.950000e-01    2.500000e+00
  C3er TX1eq  1 3.950000e-01    2.500000e+00
  C3er TX2eq  1 3.950000e-01    2.310000e+00
  C3er TX3eq  1 3.950000e-01    2.310000e+00
  C3er TX4eq  1 3.950000e-01    2.310000e+00
  C3er TC1eq  1 3.950000e-01    2.500000e+00
  C3er TC2eq  1 3.950000e-01    2.500000e+00
   C2e TC2er  1 3.950000e-01    2.110000e+00
  C2er  TC1e  1 3.950000e-01    2.310000e+00
  C2er  TX4e  1 3.980000e-01    1.450000e+00
  C2er  TX3e  1 3.950000e-01    1.850000e+00
  C2er  TX2e  1 3.950000e-01    1.850000e+00
  C2er  TX1e  1 3.950000e-01    1.850000e+00
   P6q TC2er  1 3.950000e-01    1.670000e+00
   P5q TC2er  1 3.950000e-01    1.850000e+00
   P4q TC2er  1 3.950000e-01    1.850000e+00
   P3q TC2er  1 3.950000e-01    1.850000e+00
   P2q TC2er  1 3.950000e-01    2.110000e+00
   P1q TC2er  1 3.950000e-01    2.110000e+00
   N6q TC2er  1 3.950000e-01    2.310000e+00
   N5q TC2er  1 3.950000e-01    2.310000e+00
   N4q TC2er  1 3.950000e-01    2.310000e+00
   N3q TC2er  1 3.950000e-01    2.500000e+00
   N2q TC2er  1 3.950000e-01    2.500000e+00
   N1q TC2er  1 3.950000e-01    2.500000e+00
   C6q TC2er  1 3.950000e-01    2.500000e+00
   C5q TC2er  1 3.950000e-01    2.500000e+00
   C4q TC2er  1 3.950000e-01    2.700000e+00
   C3q TC2er  1 3.950000e-01    2.940000e+00
   C2q TC2er  1 3.950000e-01    2.940000e+00
  C2er  TC1q  1 3.950000e-01    3.190000e+00
  C2er  TX4q  1 3.950000e-01    2.310000e+00
  C2er  TX3q  1 3.950000e-01    2.700000e+00
  C2er  TX2q  1 3.950000e-01    2.700000e+00
  C2er  TX1q  1 3.950000e-01    2.700000e+00
  P6dq TC2er  1 3.950000e-01    1.670000e+00
  P5dq TC2er  1 3.950000e-01    1.850000e+00
  P4dq TC2er  1 3.950000e-01    1.850000e+00
  P3dq TC2er  1 3.950000e-01    1.850000e+00
  P2dq TC2er  1 3.950000e-01    2.110000e+00
  P1dq TC2er  1 3.950000e-01    2.110000e+00
  N6dq TC2er  1 3.950000e-01    2.310000e+00
  N5dq TC2er  1 3.950000e-01    2.310000e+00
  N4dq TC2er  1 3.950000e-01    2.310000e+00
  N3dq TC2er  1 3.950000e-01    2.500000e+00
  N2dq TC2er  1 3.950000e-01    2.500000e+00
  N1dq TC2er  1 3.950000e-01    2.500000e+00
  P6aq TC2er  1 3.990000e-01    1.180000e+00
  P5aq TC2er  1 3.980000e-01    1.450000e+00
  P4aq TC2er  1 3.980000e-01    1.450000e+00
  P3aq TC2er  1 3.980000e-01    1.450000e+00
  P2aq TC2er  1 3.950000e-01    1.670000e+00
  P1aq TC2er  1 3.950000e-01    1.670000e+00
  N6aq TC2er  1 3.950000e-01    1.850000e+00
  N5aq TC2er  1 3.950000e-01    1.850000e+00
  N4aq TC2er  1 3.950000e-01    1.850000e+00
  N3aq TC2er  1 3.950000e-01    2.110000e+00
  N2aq TC2er  1 3.950000e-01    2.110000e+00
  N1aq TC2er  1 3.950000e-01    2.110000e+00
  C6vq TC2er  1 3.950000e-01    2.700000e+00
  C5vq TC2er  1 3.950000e-01    2.700000e+00
  C4vq TC2er  1 3.950000e-01    2.940000e+00
  C3vq TC2er  1 3.950000e-01    3.190000e+00
  C2vq TC2er  1 3.950000e-01    3.190000e+00
  C2er TC1vq  1 3.950000e-01    3.430000e+00
  C2er TX4vq  1 3.950000e-01    2.500000e+00
  C2er TX3vq  1 3.950000e-01    2.940000e+00
  C2er TX2vq  1 3.950000e-01    2.940000e+00
  C2er TX1vq  1 3.950000e-01    2.940000e+00
  C6eq TC2er  1 3.950000e-01    2.110000e+00
  C5eq TC2er  1 3.950000e-01    2.110000e+00
  C4eq TC2er  1 3.950000e-01    2.310000e+00
  C3eq TC2er  1 3.950000e-01    2.500000e+00
  C2er TC2eq  1 3.950000e-01    2.500000e+00
  C2er TX1eq  1 3.950000e-01    2.310000e+00
  C2er TX2eq  1 3.950000e-01    2.310000e+00
  C2er TX3eq  1 3.950000e-01    2.310000e+00
  C2er TX4eq  1 3.950000e-01    1.850000e+00
  C2er TC1eq  1 3.950000e-01    2.700000e+00
   C1e TC1er  1 3.950000e-01    2.110000e+00
  C1er  TX4e  1 3.980000e-01    1.450000e+00
  C1er  TX3e  1 3.950000e-01    1.850000e+00
  C1er  TX2e  1 3.950000e-01    1.850000e+00
  C1er  TX1e  1 3.950000e-01    1.850000e+00
   P6q TC1er  1 3.990000e-01    1.180000e+00
   P5q TC1er  1 3.950000e-01    1.670000e+00
   P4q TC1er  1 3.950000e-01    1.670000e+00
   P3q TC1er  1 3.950000e-01    1.670000e+00
   P2q TC1er  1 3.950000e-01    1.850000e+00
   P1q TC1er  1 3.950000e-01    1.850000e+00
   N6q TC1er  1 3.950000e-01    2.110000e+00
   N5q TC1er  1 3.950000e-01    2.110000e+00
   N4q TC1er  1 3.950000e-01    2.110000e+00
   N3q TC1er  1 3.950000e-01    2.310000e+00
   N2q TC1er  1 3.950000e-01    2.310000e+00
   N1q TC1er  1 3.950000e-01    2.310000e+00
   C6q TC1er  1 3.950000e-01    2.310000e+00
   C5q TC1er  1 3.950000e-01    2.500000e+00
   C4q TC1er  1 3.950000e-01    2.500000e+00
   C3q TC1er  1 3.950000e-01    2.940000e+00
   C2q TC1er  1 3.950000e-01    3.190000e+00
   C1q TC1er  1 3.950000e-01    2.940000e+00
  C1er  TX4q  1 3.950000e-01    2.310000e+00
  C1er  TX3q  1 3.950000e-01    2.700000e+00
  C1er  TX2q  1 3.950000e-01    2.700000e+00
  C1er  TX1q  1 3.950000e-01    2.700000e+00
  P6dq TC1er  1 3.990000e-01    1.180000e+00
  P5dq TC1er  1 3.950000e-01    1.670000e+00
  P4dq TC1er  1 3.950000e-01    1.670000e+00
  P3dq TC1er  1 3.950000e-01    1.670000e+00
  P2dq TC1er  1 3.950000e-01    1.850000e+00
  P1dq TC1er  1 3.950000e-01    1.850000e+00
  N6dq TC1er  1 3.950000e-01    2.110000e+00
  N5dq TC1er  1 3.950000e-01    2.110000e+00
  N4dq TC1er  1 3.950000e-01    2.110000e+00
  N3dq TC1er  1 3.950000e-01    2.310000e+00
  N2dq TC1er  1 3.950000e-01    2.310000e+00
  N1dq TC1er  1 3.950000e-01    2.310000e+00
  P6aq TC1er  1 4.040000e-01    8.300000e-01
  P5aq TC1er  1 3.990000e-01    1.180000e+00
  P4aq TC1er  1 3.990000e-01    1.180000e+00
  P3aq TC1er  1 3.990000e-01    1.180000e+00
  P2aq TC1er  1 3.980000e-01    1.450000e+00
  P1aq TC1er  1 3.980000e-01    1.450000e+00
  N6aq TC1er  1 3.950000e-01    1.670000e+00
  N5aq TC1er  1 3.950000e-01    1.670000e+00
  N4aq TC1er  1 3.950000e-01    1.670000e+00
  N3aq TC1er  1 3.950000e-01    1.850000e+00
  N2aq TC1er  1 3.950000e-01    1.850000e+00
  N1aq TC1er  1 3.950000e-01    1.850000e+00
  C6vq TC1er  1 3.950000e-01    2.500000e+00
  C5vq TC1er  1 3.950000e-01    2.700000e+00
  C4vq TC1er  1 3.950000e-01    2.700000e+00
  C3vq TC1er  1 3.950000e-01    3.190000e+00
  C2vq TC1er  1 3.950000e-01    3.430000e+00
  C1vq TC1er  1 3.950000e-01    3.190000e+00
  C1er TX4vq  1 3.950000e-01    2.500000e+00
  C1er TX3vq  1 3.950000e-01    2.940000e+00
  C1er TX2vq  1 3.950000e-01    2.940000e+00
  C1er TX1vq  1 3.950000e-01    2.940000e+00
  C6eq TC1er  1 3.950000e-01    1.850000e+00
  C5eq TC1er  1 3.950000e-01    2.110000e+00
  C4eq TC1er  1 3.950000e-01    2.110000e+00
  C3eq TC1er  1 3.950000e-01    2.500000e+00
  C2eq TC1er  1 3.950000e-01    2.700000e+00
  C1er TC1eq  1 3.950000e-01    2.500000e+00
  C1er TX1eq  1 3.950000e-01    2.310000e+00
  C1er TX2eq  1 3.950000e-01    2.310000e+00
  C1er TX3eq  1 3.950000e-01    2.310000e+00
  C1er TX4eq  1 3.950000e-01    1.850000e+00
   X4e TX4er  1 3.950000e-01    2.110000e+00
  X4er  TX3e  1 3.950000e-01    2.110000e+00
  X4er  TX2e  1 3.950000e-01    2.110000e+00
  X4er  TX1e  1 3.950000e-01    2.110000e+00
   P6q TX4er  1 3.950000e-01    2.500000e+00
   P5q TX4er  1 3.950000e-01    2.700000e+00
   P4q TX4er  1 3.950000e-01    2.700000e+00
   P3q TX4er  1 3.950000e-01    2.700000e+00
   P2q TX4er  1 3.950000e-01    2.700000e+00
   P1q TX4er  1 3.950000e-01    2.700000e+00
   N6q TX4er  1 3.950000e-01    2.940000e+00
   N5q TX4er  1 3.950000e-01    3.190000e+00
   N4q TX4er  1 3.950000e-01    3.430000e+00
   N3q TX4er  1 3.950000e-01    3.190000e+00
   N2q TX4er  1 3.950000e-01    3.190000e+00
   N1q TX4er  1 3.950000e-01    2.940000e+00
   C6q TX4er  1 3.950000e-01    2.940000e+00
   C5q TX4er  1 3.950000e-01    2.700000e+00
   C4q TX4er  1 3.950000e-01    2.700000e+00
   C3q TX4er  1 3.950000e-01    2.700000e+00
   C2q TX4er  1 3.950000e-01    2.310000e+00
   C1q TX4er  1 3.950000e-01    2.310000e+00
   X4q TX4er  1 3.950000e-01    2.940000e+00
  X4er  TX3q  1 3.950000e-01    2.940000e+00
  X4er  TX2q  1 3.950000e-01    2.940000e+00
  X4er  TX1q  1 3.950000e-01    2.940000e+00
  P6dq TX4er  1 3.950000e-01    2.500000e+00
  P5dq TX4er  1 3.950000e-01    2.700000e+00
  P4dq TX4er  1 3.950000e-01    2.700000e+00
  P3dq TX4er  1 3.950000e-01    2.700000e+00
  P2dq TX4er  1 3.950000e-01    2.700000e+00
  P1dq TX4er  1 3.950000e-01    2.700000e+00
  N6dq TX4er  1 3.950000e-01    2.940000e+00
  N5dq TX4er  1 3.950000e-01    3.190000e+00
  N4dq TX4er  1 3.950000e-01    3.430000e+00
  N3dq TX4er  1 3.950000e-01    3.190000e+00
  N2dq TX4er  1 3.950000e-01    3.190000e+00
  N1dq TX4er  1 3.950000e-01    2.940000e+00
  P6aq TX4er  1 3.950000e-01    2.110000e+00
  P5aq TX4er  1 3.950000e-01    2.310000e+00
  P4aq TX4er  1 3.950000e-01    2.310000e+00
  P3aq TX4er  1 3.950000e-01    2.310000e+00
  P2aq TX4er  1 3.950000e-01    2.310000e+00
  P1aq TX4er  1 3.950000e-01    2.310000e+00
  N6aq TX4er  1 3.950000e-01    2.500000e+00
  N5aq TX4er  1 3.950000e-01    2.700000e+00
  N4aq TX4er  1 3.950000e-01    2.940000e+00
  N3aq TX4er  1 3.950000e-01    2.700000e+00
  N2aq TX4er  1 3.950000e-01    2.700000e+00
  N1aq TX4er  1 3.950000e-01    2.500000e+00
  C6vq TX4er  1 3.950000e-01    3.190000e+00
  C5vq TX4er  1 3.950000e-01    2.940000e+00
  C4vq TX4er  1 3.950000e-01    2.940000e+00
  C3vq TX4er  1 3.950000e-01    2.940000e+00
  C2vq TX4er  1 3.950000e-01    2.500000e+00
  C1vq TX4er  1 3.950000e-01    2.500000e+00
  X4vq TX4er  1 3.950000e-01    3.190000e+00
  X4er TX3vq  1 3.950000e-01    3.190000e+00
  X4er TX2vq  1 3.950000e-01    3.190000e+00
  X4er TX1vq  1 3.950000e-01    3.190000e+00
  C6eq TX4er  1 3.950000e-01    2.500000e+00
  C5eq TX4er  1 3.950000e-01    2.310000e+00
  C4eq TX4er  1 3.950000e-01    2.310000e+00
  C3eq TX4er  1 3.950000e-01    2.310000e+00
  C2eq TX4er  1 3.950000e-01    1.850000e+00
  C1eq TX4er  1 3.950000e-01    1.850000e+00
  X4er TX4eq  1 3.950000e-01    2.500000e+00
  X4er TX1eq  1 3.950000e-01    2.500000e+00
  X4er TX2eq  1 3.950000e-01    2.500000e+00
  X4er TX3eq  1 3.950000e-01    2.500000e+00
   X3e TX3er  1 3.950000e-01    2.110000e+00
  X3er  TX2e  1 3.950000e-01    2.310000e+00
  X3er  TX1e  1 3.950000e-01    2.310000e+00
   P6q TX3er  1 3.950000e-01    2.500000e+00
   P5q TX3er  1 3.950000e-01    2.500000e+00
   P4q TX3er  1 3.950000e-01    2.500000e+00
   P3q TX3er  1 3.950000e-01    2.700000e+00
   P2q TX3er  1 3.950000e-01    2.700000e+00
   P1q TX3er  1 3.950000e-01    2.700000e+00
   N6q TX3er  1 3.950000e-01    2.700000e+00
   N5q TX3er  1 3.950000e-01    2.940000e+00
   N4q TX3er  1 3.950000e-01    3.190000e+00
   N3q TX3er  1 3.950000e-01    2.940000e+00
   N2q TX3er  1 3.950000e-01    2.940000e+00
   N1q TX3er  1 3.950000e-01    2.940000e+00
   C6q TX3er  1 3.950000e-01    2.940000e+00
   C5q TX3er  1 3.950000e-01    2.700000e+00
   C4q TX3er  1 3.950000e-01    2.700000e+00
   C3q TX3er  1 3.950000e-01    2.700000e+00
   C2q TX3er  1 3.950000e-01    2.700000e+00
   C1q TX3er  1 3.950000e-01    2.700000e+00
   X4q TX3er  1 3.950000e-01    2.940000e+00
   X3q TX3er  1 3.950000e-01    2.940000e+00
  X3er  TX2q  1 3.950000e-01    3.190000e+00
  X3er  TX1q  1 3.950000e-01    3.190000e+00
  P6dq TX3er  1 3.950000e-01    2.500000e+00
  P5dq TX3er  1 3.950000e-01    2.500000e+00
  P4dq TX3er  1 3.950000e-01    2.500000e+00
  P3dq TX3er  1 3.950000e-01    2.700000e+00
  P2dq TX3er  1 3.950000e-01    2.700000e+00
  P1dq TX3er  1 3.950000e-01    2.700000e+00
  N6dq TX3er  1 3.950000e-01    2.700000e+00
  N5dq TX3er  1 3.950000e-01    2.940000e+00
  N4dq TX3er  1 3.950000e-01    3.190000e+00
  N3dq TX3er  1 3.950000e-01    2.940000e+00
  N2dq TX3er  1 3.950000e-01    2.940000e+00
  N1dq TX3er  1 3.950000e-01    2.940000e+00
  P6aq TX3er  1 3.950000e-01    2.110000e+00
  P5aq TX3er  1 3.950000e-01    2.110000e+00
  P4aq TX3er  1 3.950000e-01    2.110000e+00
  P3aq TX3er  1 3.950000e-01    2.310000e+00
  P2aq TX3er  1 3.950000e-01    2.310000e+00
  P1aq TX3er  1 3.950000e-01    2.310000e+00
  N6aq TX3er  1 3.950000e-01    2.310000e+00
  N5aq TX3er  1 3.950000e-01    2.500000e+00
  N4aq TX3er  1 3.950000e-01    2.700000e+00
  N3aq TX3er  1 3.950000e-01    2.500000e+00
  N2aq TX3er  1 3.950000e-01    2.500000e+00
  N1aq TX3er  1 3.950000e-01    2.500000e+00
  C6vq TX3er  1 3.950000e-01    3.190000e+00
  C5vq TX3er  1 3.950000e-01    2.940000e+00
  C4vq TX3er  1 3.950000e-01    2.940000e+00
  C3vq TX3er  1 3.950000e-01    2.940000e+00
  C2vq TX3er  1 3.950000e-01    2.940000e+00
  C1vq TX3er  1 3.950000e-01    2.940000e+00
  X4vq TX3er  1 3.950000e-01    3.190000e+00
  X3vq TX3er  1 3.950000e-01    3.190000e+00
  X3er TX2vq  1 3.950000e-01    3.430000e+00
  X3er TX1vq  1 3.950000e-01    3.430000e+00
  C6eq TX3er  1 3.950000e-01    2.500000e+00
  C5eq TX3er  1 3.950000e-01    2.310000e+00
  C4eq TX3er  1 3.950000e-01    2.310000e+00
  C3eq TX3er  1 3.950000e-01    2.310000e+00
  C2eq TX3er  1 3.950000e-01    2.310000e+00
  C1eq TX3er  1 3.950000e-01    2.310000e+00
  X4eq TX3er  1 3.950000e-01    2.500000e+00
  X3er TX3eq  1 3.950000e-01    2.500000e+00
  X3er TX1eq  1 3.950000e-01    2.700000e+00
  X3er TX2eq  1 3.950000e-01    2.700000e+00
   X2e TX2er  1 3.950000e-01    2.310000e+00
  X2er  TX1e  1 3.950000e-01    2.310000e+00
   P6q TX2er  1 3.950000e-01    2.310000e+00
   P5q TX2er  1 3.950000e-01    2.500000e+00
   P4q TX2er  1 3.950000e-01    2.500000e+00
   P3q TX2er  1 3.950000e-01    2.500000e+00
   P2q TX2er  1 3.950000e-01    2.500000e+00
   P1q TX2er  1 3.950000e-01    2.500000e+00
   N6q TX2er  1 3.950000e-01    2.500000e+00
   N5q TX2er  1 3.950000e-01    2.700000e+00
   N4q TX2er  1 3.950000e-01    2.700000e+00
   N3q TX2er  1 3.950000e-01    2.700000e+00
   N2q TX2er  1 3.950000e-01    2.700000e+00
   N1q TX2er  1 3.950000e-01    2.700000e+00
   C6q TX2er  1 3.950000e-01    2.940000e+00
   C5q TX2er  1 3.950000e-01    2.700000e+00
   C4q TX2er  1 3.950000e-01    2.700000e+00
   C3q TX2er  1 3.950000e-01    2.700000e+00
   C2q TX2er  1 3.950000e-01    2.700000e+00
   C1q TX2er  1 3.950000e-01    2.700000e+00
   X4q TX2er  1 3.950000e-01    2.940000e+00
   X3q TX2er  1 3.950000e-01    3.190000e+00
   X2q TX2er  1 3.950000e-01    3.190000e+00
  X2er  TX1q  1 3.950000e-01    3.190000e+00
  P6dq TX2er  1 3.950000e-01    2.310000e+00
  P5dq TX2er  1 3.950000e-01    2.500000e+00
  P4dq TX2er  1 3.950000e-01    2.500000e+00
  P3dq TX2er  1 3.950000e-01    2.500000e+00
  P2dq TX2er  1 3.950000e-01    2.500000e+00
  P1dq TX2er  1 3.950000e-01    2.500000e+00
  N6dq TX2er  1 3.950000e-01    2.500000e+00
  N5dq TX2er  1 3.950000e-01    2.700000e+00
  N4dq TX2er  1 3.950000e-01    2.700000e+00
  N3dq TX2er  1 3.950000e-01    2.700000e+00
  N2dq TX2er  1 3.950000e-01    2.700000e+00
  N1dq TX2er  1 3.950000e-01    2.700000e+00
  P6aq TX2er  1 3.950000e-01    1.850000e+00
  P5aq TX2er  1 3.950000e-01    2.110000e+00
  P4aq TX2er  1 3.950000e-01    2.110000e+00
  P3aq TX2er  1 3.950000e-01    2.110000e+00
  P2aq TX2er  1 3.950000e-01    2.110000e+00
  P1aq TX2er  1 3.950000e-01    2.110000e+00
  N6aq TX2er  1 3.950000e-01    2.110000e+00
  N5aq TX2er  1 3.950000e-01    2.310000e+00
  N4aq TX2er  1 3.950000e-01    2.310000e+00
  N3aq TX2er  1 3.950000e-01    2.310000e+00
  N2aq TX2er  1 3.950000e-01    2.310000e+00
  N1aq TX2er  1 3.950000e-01    2.310000e+00
  C6vq TX2er  1 3.950000e-01    3.190000e+00
  C5vq TX2er  1 3.950000e-01    2.940000e+00
  C4vq TX2er  1 3.950000e-01    2.940000e+00
  C3vq TX2er  1 3.950000e-01    2.940000e+00
  C2vq TX2er  1 3.950000e-01    2.940000e+00
  C1vq TX2er  1 3.950000e-01    2.940000e+00
  X4vq TX2er  1 3.950000e-01    3.190000e+00
  X3vq TX2er  1 3.950000e-01    3.430000e+00
  X2vq TX2er  1 3.950000e-01    3.430000e+00
  X2er TX1vq  1 3.950000e-01    3.430000e+00
  C6eq TX2er  1 3.950000e-01    2.500000e+00
  C5eq TX2er  1 3.950000e-01    2.310000e+00
  C4eq TX2er  1 3.950000e-01    2.310000e+00
  C3eq TX2er  1 3.950000e-01    2.310000e+00
  C2eq TX2er  1 3.950000e-01    2.310000e+00
  C1eq TX2er  1 3.950000e-01    2.310000e+00
  X4eq TX2er  1 3.950000e-01    2.500000e+00
  X3eq TX2er  1 3.950000e-01    2.700000e+00
  X2er TX2eq  1 3.950000e-01    2.700000e+00
  X2er TX1eq  1 3.950000e-01    2.700000e+00
   X1e TX1er  1 3.950000e-01    2.500000e+00
   P6q TX1er  1 3.950000e-01    2.110000e+00
   P5q TX1er  1 3.950000e-01    2.110000e+00
   P4q TX1er  1 3.950000e-01    2.310000e+00
   P3q TX1er  1 3.950000e-01    2.310000e+00
   P2q TX1er  1 3.950000e-01    2.310000e+00
   P1q TX1er  1 3.950000e-01    2.310000e+00
   N6q TX1er  1 3.950000e-01    2.310000e+00
   N5q TX1er  1 3.950000e-01    2.500000e+00
   N4q TX1er  1 3.950000e-01    2.500000e+00
   N3q TX1er  1 3.950000e-01    2.700000e+00
   N2q TX1er  1 3.950000e-01    2.700000e+00
   N1q TX1er  1 3.950000e-01    2.700000e+00
   C6q TX1er  1 3.950000e-01    2.940000e+00
   C5q TX1er  1 3.950000e-01    2.940000e+00
   C4q TX1er  1 3.950000e-01    2.940000e+00
   C3q TX1er  1 3.950000e-01    2.940000e+00
   C2q TX1er  1 3.950000e-01    2.700000e+00
   C1q TX1er  1 3.950000e-01    2.700000e+00
   X4q TX1er  1 3.950000e-01    2.940000e+00
   X3q TX1er  1 3.950000e-01    3.190000e+00
   X2q TX1er  1 3.950000e-01    3.190000e+00
   X1q TX1er  1 3.950000e-01    3.430000e+00
  P6dq TX1er  1 3.950000e-01    2.110000e+00
  P5dq TX1er  1 3.950000e-01    2.110000e+00
  P4dq TX1er  1 3.950000e-01    2.310000e+00
  P3dq TX1er  1 3.950000e-01    2.310000e+00
  P2dq TX1er  1 3.950000e-01    2.310000e+00
  P1dq TX1er  1 3.950000e-01    2.310000e+00
  N6dq TX1er  1 3.950000e-01    2.310000e+00
  N5dq TX1er  1 3.950000e-01    2.500000e+00
  N4dq TX1er  1 3.950000e-01    2.500000e+00
  N3dq TX1er  1 3.950000e-01    2.700000e+00
  N2dq TX1er  1 3.950000e-01    2.700000e+00
  N1dq TX1er  1 3.950000e-01    2.700000e+00
  P6aq TX1er  1 3.950000e-01    1.670000e+00
  P5aq TX1er  1 3.950000e-01    1.670000e+00
  P4aq TX1er  1 3.950000e-01    1.850000e+00
  P3aq TX1er  1 3.950000e-01    1.850000e+00
  P2aq TX1er  1 3.950000e-01    1.850000e+00
  P1aq TX1er  1 3.950000e-01    1.850000e+00
  N6aq TX1er  1 3.950000e-01    1.850000e+00
  N5aq TX1er  1 3.950000e-01    2.110000e+00
  N4aq TX1er  1 3.950000e-01    2.110000e+00
  N3aq TX1er  1 3.950000e-01    2.310000e+00
  N2aq TX1er  1 3.950000e-01    2.310000e+00
  N1aq TX1er  1 3.950000e-01    2.310000e+00
  C6vq TX1er  1 3.950000e-01    3.190000e+00
  C5vq TX1er  1 3.950000e-01    3.190000e+00
  C4vq TX1er  1 3.950000e-01    3.190000e+00
  C3vq TX1er  1 3.950000e-01    3.190000e+00
  C2vq TX1er  1 3.950000e-01    2.940000e+00
  C1vq TX1er  1 3.950000e-01    2.940000e+00
  X4vq TX1er  1 3.950000e-01    3.190000e+00
  X3vq TX1er  1 3.950000e-01    3.430000e+00
  X2vq TX1er  1 3.950000e-01    3.430000e+00
  X1vq TX1er  1 3.950000e-01    3.670000e+00
  C6eq TX1er  1 3.950000e-01    2.500000e+00
  C5eq TX1er  1 3.950000e-01    2.500000e+00
  C4eq TX1er  1 3.950000e-01    2.500000e+00
  C3eq TX1er  1 3.950000e-01    2.500000e+00
  C2eq TX1er  1 3.950000e-01    2.310000e+00
  C1eq TX1er  1 3.950000e-01    2.310000e+00
  X4eq TX1er  1 3.950000e-01    2.500000e+00
  X3eq TX1er  1 3.950000e-01    2.700000e+00
  X2eq TX1er  1 3.950000e-01    2.700000e+00
  X1er TX1eq  1 3.950000e-01    2.940000e+00
   C6e TX1er  1 3.950000e-01    2.110000e+00
   C5e TX1er  1 3.950000e-01    2.110000e+00
   C4e TX1er  1 3.950000e-01    2.110000e+00
   C3e TX1er  1 3.950000e-01    2.110000e+00
   C2e TX1er  1 3.950000e-01    1.850000e+00
   C1e TX1er  1 3.950000e-01    1.850000e+00
   X4e TX1er  1 3.950000e-01    2.110000e+00
   X3e TX1er  1 3.950000e-01    2.310000e+00
   X2e TX1er  1 3.950000e-01    2.310000e+00
   C6v TX1er  1 3.950000e-01    2.700000e+00
   C5v TX1er  1 3.950000e-01    2.700000e+00
   C4v TX1er  1 3.950000e-01    2.700000e+00
   C3v TX1er  1 3.950000e-01    2.700000e+00
   C2v TX1er  1 3.950000e-01    2.500000e+00
   C1v TX1er  1 3.950000e-01    2.500000e+00
   X4v TX1er  1 3.950000e-01    2.700000e+00
   X3v TX1er  1 3.950000e-01    2.940000e+00
   X2v TX1er  1 3.950000e-01    2.940000e+00
   X1v TX1er  1 3.950000e-01    3.190000e+00
   P6d TX1er  1 3.950000e-01    1.670000e+00
   P5d TX1er  1 3.950000e-01    1.670000e+00
   P4d TX1er  1 3.950000e-01    1.850000e+00
   P3d TX1er  1 3.950000e-01    1.850000e+00
   P2d TX1er  1 3.950000e-01    1.850000e+00
   P1d TX1er  1 3.950000e-01    1.850000e+00
   N6d TX1er  1 3.950000e-01    1.850000e+00
   N5d TX1er  1 3.950000e-01    2.110000e+00
   N4d TX1er  1 3.950000e-01    2.110000e+00
   N3d TX1er  1 3.950000e-01    2.310000e+00
   N2d TX1er  1 3.950000e-01    2.310000e+00
   N1d TX1er  1 3.950000e-01    2.310000e+00
   P6a TX1er  1 3.990000e-01    1.180000e+00
   P5a TX1er  1 3.990000e-01    1.180000e+00
   P4a TX1er  1 3.980000e-01    1.450000e+00
   P3a TX1er  1 3.980000e-01    1.450000e+00
   P2a TX1er  1 3.980000e-01    1.450000e+00
   P1a TX1er  1 3.980000e-01    1.450000e+00
   N6a TX1er  1 3.980000e-01    1.450000e+00
   N5a TX1er  1 3.950000e-01    1.670000e+00
   N4a TX1er  1 3.950000e-01    1.670000e+00
   N3a TX1er  1 3.950000e-01    1.850000e+00
   N2a TX1er  1 3.950000e-01    1.850000e+00
   N1a TX1er  1 3.950000e-01    1.850000e+00
   C6e TX2er  1 3.950000e-01    2.110000e+00
   C5e TX2er  1 3.950000e-01    1.850000e+00
   C4e TX2er  1 3.950000e-01    1.850000e+00
   C3e TX2er  1 3.950000e-01    1.850000e+00
   C2e TX2er  1 3.950000e-01    1.850000e+00
   C1e TX2er  1 3.950000e-01    1.850000e+00
   X4e TX2er  1 3.950000e-01    2.110000e+00
   X3e TX2er  1 3.950000e-01    2.310000e+00
   C6v TX2er  1 3.950000e-01    2.700000e+00
   C5v TX2er  1 3.950000e-01    2.500000e+00
   C4v TX2er  1 3.950000e-01    2.500000e+00
   C3v TX2er  1 3.950000e-01    2.500000e+00
   C2v TX2er  1 3.950000e-01    2.500000e+00
   C1v TX2er  1 3.950000e-01    2.500000e+00
   X4v TX2er  1 3.950000e-01    2.700000e+00
   X3v TX2er  1 3.950000e-01    2.940000e+00
   X2v TX2er  1 3.950000e-01    2.940000e+00
  X2er  TX1v  1 3.950000e-01    2.940000e+00
   P6d TX2er  1 3.950000e-01    1.850000e+00
   P5d TX2er  1 3.950000e-01    2.110000e+00
   P4d TX2er  1 3.950000e-01    2.110000e+00
   P3d TX2er  1 3.950000e-01    2.110000e+00
   P2d TX2er  1 3.950000e-01    2.110000e+00
   P1d TX2er  1 3.950000e-01    2.110000e+00
   N6d TX2er  1 3.950000e-01    2.110000e+00
   N5d TX2er  1 3.950000e-01    2.310000e+00
   N4d TX2er  1 3.950000e-01    2.310000e+00
   N3d TX2er  1 3.950000e-01    2.310000e+00
   N2d TX2er  1 3.950000e-01    2.310000e+00
   N1d TX2er  1 3.950000e-01    2.310000e+00
   P6a TX2er  1 3.980000e-01    1.450000e+00
   P5a TX2er  1 3.950000e-01    1.670000e+00
   P4a TX2er  1 3.950000e-01    1.670000e+00
   P3a TX2er  1 3.950000e-01    1.670000e+00
   P2a TX2er  1 3.950000e-01    1.670000e+00
   P1a TX2er  1 3.950000e-01    1.670000e+00
   N6a TX2er  1 3.950000e-01    1.670000e+00
   N5a TX2er  1 3.950000e-01    1.850000e+00
   N4a TX2er  1 3.950000e-01    1.850000e+00
   N3a TX2er  1 3.950000e-01    1.850000e+00
   N2a TX2er  1 3.950000e-01    1.850000e+00
   N1a TX2er  1 3.950000e-01    1.850000e+00
   C6e TX3er  1 3.950000e-01    2.110000e+00
   C5e TX3er  1 3.950000e-01    1.850000e+00
   C4e TX3er  1 3.950000e-01    1.850000e+00
   C3e TX3er  1 3.950000e-01    1.850000e+00
   C2e TX3er  1 3.950000e-01    1.850000e+00
   C1e TX3er  1 3.950000e-01    1.850000e+00
   X4e TX3er  1 3.950000e-01    2.110000e+00
   C6v TX3er  1 3.950000e-01    2.700000e+00
   C5v TX3er  1 3.950000e-01    2.500000e+00
   C4v TX3er  1 3.950000e-01    2.500000e+00
   C3v TX3er  1 3.950000e-01    2.500000e+00
   C2v TX3er  1 3.950000e-01    2.500000e+00
   C1v TX3er  1 3.950000e-01    2.500000e+00
   X4v TX3er  1 3.950000e-01    2.700000e+00
   X3v TX3er  1 3.950000e-01    2.700000e+00
  X3er  TX2v  1 3.950000e-01    2.940000e+00
  X3er  TX1v  1 3.950000e-01    2.940000e+00
   P6d TX3er  1 3.950000e-01    2.110000e+00
   P5d TX3er  1 3.950000e-01    2.110000e+00
   P4d TX3er  1 3.950000e-01    2.110000e+00
   P3d TX3er  1 3.950000e-01    2.310000e+00
   P2d TX3er  1 3.950000e-01    2.310000e+00
   P1d TX3er  1 3.950000e-01    2.310000e+00
   N6d TX3er  1 3.950000e-01    2.310000e+00
   N5d TX3er  1 3.950000e-01    2.500000e+00
   N4d TX3er  1 3.950000e-01    2.700000e+00
   N3d TX3er  1 3.950000e-01    2.500000e+00
   N2d TX3er  1 3.950000e-01    2.500000e+00
   N1d TX3er  1 3.950000e-01    2.500000e+00
   P6a TX3er  1 3.950000e-01    1.670000e+00
   P5a TX3er  1 3.950000e-01    1.670000e+00
   P4a TX3er  1 3.950000e-01    1.670000e+00
   P3a TX3er  1 3.950000e-01    1.850000e+00
   P2a TX3er  1 3.950000e-01    1.850000e+00
   P1a TX3er  1 3.950000e-01    1.850000e+00
   N6a TX3er  1 3.950000e-01    1.850000e+00
   N5a TX3er  1 3.950000e-01    2.110000e+00
   N4a TX3er  1 3.950000e-01    2.310000e+00
   N3a TX3er  1 3.950000e-01    2.110000e+00
   N2a TX3er  1 3.950000e-01    2.110000e+00
   N1a TX3er  1 3.950000e-01    2.110000e+00
   C6e TX4er  1 3.950000e-01    2.110000e+00
   C5e TX4er  1 3.950000e-01    1.850000e+00
   C4e TX4er  1 3.950000e-01    1.850000e+00
   C3e TX4er  1 3.950000e-01    1.850000e+00
   C2e TX4er  1 3.980000e-01    1.450000e+00
   C1e TX4er  1 3.980000e-01    1.450000e+00
   C6v TX4er  1 3.950000e-01    2.700000e+00
   C5v TX4er  1 3.950000e-01    2.500000e+00
   C4v TX4er  1 3.950000e-01    2.500000e+00
   C3v TX4er  1 3.950000e-01    2.500000e+00
   C2v TX4er  1 3.950000e-01    2.110000e+00
   C1v TX4er  1 3.950000e-01    2.110000e+00
   X4v TX4er  1 3.950000e-01    2.700000e+00
  X4er  TX3v  1 3.950000e-01    2.700000e+00
  X4er  TX2v  1 3.950000e-01    2.700000e+00
  X4er  TX1v  1 3.950000e-01    2.700000e+00
   P6d TX4er  1 3.950000e-01    2.110000e+00
   P5d TX4er  1 3.950000e-01    2.310000e+00
   P4d TX4er  1 3.950000e-01    2.310000e+00
   P3d TX4er  1 3.950000e-01    2.310000e+00
   P2d TX4er  1 3.950000e-01    2.310000e+00
   P1d TX4er  1 3.950000e-01    2.310000e+00
   N6d TX4er  1 3.950000e-01    2.500000e+00
   N5d TX4er  1 3.950000e-01    2.700000e+00
   N4d TX4er  1 3.950000e-01    2.940000e+00
   N3d TX4er  1 3.950000e-01    2.700000e+00
   N2d TX4er  1 3.950000e-01    2.700000e+00
   N1d TX4er  1 3.950000e-01    2.500000e+00
   P6a TX4er  1 3.950000e-01    1.670000e+00
   P5a TX4er  1 3.950000e-01    1.850000e+00
   P4a TX4er  1 3.950000e-01    1.850000e+00
   P3a TX4er  1 3.950000e-01    1.850000e+00
   P2a TX4er  1 3.950000e-01    1.850000e+00
   P1a TX4er  1 3.950000e-01    1.850000e+00
   N6a TX4er  1 3.950000e-01    2.110000e+00
   N5a TX4er  1 3.950000e-01    2.310000e+00
   N4a TX4er  1 3.950000e-01    2.500000e+00
   N3a TX4er  1 3.950000e-01    2.310000e+00
   N2a TX4er  1 3.950000e-01    2.310000e+00
   N1a TX4er  1 3.950000e-01    2.110000e+00
   C6e TC1er  1 3.980000e-01    1.450000e+00
   C5e TC1er  1 3.950000e-01    1.670000e+00
   C4e TC1er  1 3.950000e-01    1.670000e+00
   C3e TC1er  1 3.950000e-01    2.110000e+00
   C2e TC1er  1 3.950000e-01    2.310000e+00
   C6v TC1er  1 3.950000e-01    2.110000e+00
   C5v TC1er  1 3.950000e-01    2.310000e+00
   C4v TC1er  1 3.950000e-01    2.310000e+00
   C3v TC1er  1 3.950000e-01    2.700000e+00
   C2v TC1er  1 3.950000e-01    2.940000e+00
   C1v TC1er  1 3.950000e-01    2.700000e+00
  C1er  TX4v  1 3.950000e-01    2.110000e+00
  C1er  TX3v  1 3.950000e-01    2.500000e+00
  C1er  TX2v  1 3.950000e-01    2.500000e+00
  C1er  TX1v  1 3.950000e-01    2.500000e+00
   P6d TC1er  1 4.040000e-01    8.300000e-01
   P5d TC1er  1 3.990000e-01    1.180000e+00
   P4d TC1er  1 3.990000e-01    1.180000e+00
   P3d TC1er  1 3.990000e-01    1.180000e+00
   P2d TC1er  1 3.980000e-01    1.450000e+00
   P1d TC1er  1 3.980000e-01    1.450000e+00
   N6d TC1er  1 3.950000e-01    1.670000e+00
   N5d TC1er  1 3.950000e-01    1.670000e+00
   N4d TC1er  1 3.950000e-01    1.670000e+00
   N3d TC1er  1 3.950000e-01    1.850000e+00
   N2d TC1er  1 3.950000e-01    1.850000e+00
   N1d TC1er  1 3.950000e-01    1.850000e+00
   P6a TC1er  1 5.110000e-01    6.590000e-01
   P5a TC1er  1 4.040000e-01    8.300000e-01
   P4a TC1er  1 4.040000e-01    8.300000e-01
   P3a TC1er  1 4.040000e-01    8.300000e-01
   P2a TC1er  1 4.010000e-01    9.830000e-01
   P1a TC1er  1 4.010000e-01    9.830000e-01
   N6a TC1er  1 3.990000e-01    1.180000e+00
   N5a TC1er  1 3.990000e-01    1.180000e+00
   N4a TC1er  1 3.990000e-01    1.180000e+00
   N3a TC1er  1 3.980000e-01    1.450000e+00
   N2a TC1er  1 3.980000e-01    1.450000e+00
   N1a TC1er  1 3.980000e-01    1.450000e+00
   C6e TC2er  1 3.950000e-01    1.670000e+00
   C5e TC2er  1 3.950000e-01    1.670000e+00
   C4e TC2er  1 3.950000e-01    1.850000e+00
   C3e TC2er  1 3.950000e-01    2.110000e+00
   C6v TC2er  1 3.950000e-01    2.310000e+00
   C5v TC2er  1 3.950000e-01    2.310000e+00
   C4v TC2er  1 3.950000e-01    2.500000e+00
   C3v TC2er  1 3.950000e-01    2.700000e+00
   C2v TC2er  1 3.950000e-01    2.700000e+00
  C2er  TC1v  1 3.950000e-01    2.940000e+00
  C2er  TX4v  1 3.950000e-01    2.110000e+00
  C2er  TX3v  1 3.950000e-01    2.500000e+00
  C2er  TX2v  1 3.950000e-01    2.500000e+00
  C2er  TX1v  1 3.950000e-01    2.500000e+00
   P6d TC2er  1 3.990000e-01    1.180000e+00
   P5d TC2er  1 3.980000e-01    1.450000e+00
   P4d TC2er  1 3.980000e-01    1.450000e+00
   P3d TC2er  1 3.980000e-01    1.450000e+00
   P2d TC2er  1 3.950000e-01    1.670000e+00
   P1d TC2er  1 3.950000e-01    1.670000e+00
   N6d TC2er  1 3.950000e-01    1.850000e+00
   N5d TC2er  1 3.950000e-01    1.850000e+00
   N4d TC2er  1 3.950000e-01    1.850000e+00
   N3d TC2er  1 3.950000e-01    2.110000e+00
   N2d TC2er  1 3.950000e-01    2.110000e+00
   N1d TC2er  1 3.950000e-01    2.110000e+00
   P6a TC2er  1 4.040000e-01    8.300000e-01
   P5a TC2er  1 4.010000e-01    9.830000e-01
   P4a TC2er  1 4.010000e-01    9.830000e-01
   P3a TC2er  1 4.010000e-01    9.830000e-01
   P2a TC2er  1 3.990000e-01    1.180000e+00
   P1a TC2er  1 3.990000e-01    1.180000e+00
   N6a TC2er  1 3.980000e-01    1.450000e+00
   N5a TC2er  1 3.980000e-01    1.450000e+00
   N4a TC2er  1 3.980000e-01    1.450000e+00
   N3a TC2er  1 3.950000e-01    1.670000e+00
   N2a TC2er  1 3.950000e-01    1.670000e+00
   N1a TC2er  1 3.950000e-01    1.670000e+00
   C6e TC3er  1 3.950000e-01    1.850000e+00
   C5e TC3er  1 3.950000e-01    1.850000e+00
   C4e TC3er  1 3.950000e-01    2.110000e+00
   C6v TC3er  1 3.950000e-01    2.500000e+00
   C5v TC3er  1 3.950000e-01    2.500000e+00
   C4v TC3er  1 3.950000e-01    2.700000e+00
   C3v TC3er  1 3.950000e-01    2.700000e+00
  C3er  TC2v  1 3.950000e-01    2.700000e+00
  C3er  TC1v  1 3.950000e-01    2.700000e+00
  C3er  TX4v  1 3.950000e-01    2.500000e+00
  C3er  TX3v  1 3.950000e-01    2.500000e+00
  C3er  TX2v  1 3.950000e-01    2.500000e+00
  C3er  TX1v  1 3.950000e-01    2.700000e+00
   P6d TC3er  1 3.990000e-01    1.180000e+00
   P5d TC3er  1 3.980000e-01    1.450000e+00
   P4d TC3er  1 3.980000e-01    1.450000e+00
   P3d TC3er  1 3.980000e-01    1.450000e+00
   P2d TC3er  1 3.950000e-01    1.670000e+00
   P1d TC3er  1 3.950000e-01    1.670000e+00
   N6d TC3er  1 3.950000e-01    1.850000e+00
   N5d TC3er  1 3.950000e-01    2.110000e+00
   N4d TC3er  1 3.950000e-01    2.110000e+00
   N3d TC3er  1 3.950000e-01    2.110000e+00
   N2d TC3er  1 3.950000e-01    2.310000e+00
   N1d TC3er  1 3.950000e-01    2.310000e+00
   P6a TC3er  1 4.040000e-01    8.300000e-01
   P5a TC3er  1 4.010000e-01    9.830000e-01
   P4a TC3er  1 4.010000e-01    9.830000e-01
   P3a TC3er  1 4.010000e-01    9.830000e-01
   P2a TC3er  1 3.990000e-01    1.180000e+00
   P1a TC3er  1 3.990000e-01    1.180000e+00
   N6a TC3er  1 3.980000e-01    1.450000e+00
   N5a TC3er  1 3.950000e-01    1.670000e+00
   N4a TC3er  1 3.950000e-01    1.670000e+00
   N3a TC3er  1 3.950000e-01    1.670000e+00
   N2a TC3er  1 3.950000e-01    1.850000e+00
   N1a TC3er  1 3.950000e-01    1.850000e+00
   C6e TC4er  1 3.950000e-01    2.110000e+00
   C5e TC4er  1 3.950000e-01    2.110000e+00
   C6v TC4er  1 3.950000e-01    2.700000e+00
   C5v TC4er  1 3.950000e-01    2.700000e+00
   C4v TC4er  1 3.950000e-01    2.700000e+00
  C4er  TC3v  1 3.950000e-01    2.700000e+00
  C4er  TC2v  1 3.950000e-01    2.500000e+00
  C4er  TC1v  1 3.950000e-01    2.310000e+00
  C4er  TX4v  1 3.950000e-01    2.500000e+00
  C4er  TX3v  1 3.950000e-01    2.500000e+00
  C4er  TX2v  1 3.950000e-01    2.500000e+00
  C4er  TX1v  1 3.950000e-01    2.700000e+00
   P6d TC4er  1 3.980000e-01    1.450000e+00
   P5d TC4er  1 3.950000e-01    1.670000e+00
   P4d TC4er  1 3.950000e-01    1.670000e+00
   P3d TC4er  1 3.950000e-01    1.850000e+00
   P2d TC4er  1 3.950000e-01    1.850000e+00
   P1d TC4er  1 3.950000e-01    1.850000e+00
   N6d TC4er  1 3.950000e-01    2.110000e+00
   N5d TC4er  1 3.950000e-01    2.110000e+00
   N4d TC4er  1 3.950000e-01    2.310000e+00
   N3d TC4er  1 3.950000e-01    2.310000e+00
   N2d TC4er  1 3.950000e-01    2.310000e+00
   N1d TC4er  1 3.950000e-01    2.500000e+00
   P6a TC4er  1 4.010000e-01    9.830000e-01
   P5a TC4er  1 3.990000e-01    1.180000e+00
   P4a TC4er  1 3.990000e-01    1.180000e+00
   P3a TC4er  1 3.980000e-01    1.450000e+00
   P2a TC4er  1 3.980000e-01    1.450000e+00
   P1a TC4er  1 3.980000e-01    1.450000e+00
   N6a TC4er  1 3.950000e-01    1.670000e+00
   N5a TC4er  1 3.950000e-01    1.670000e+00
   N4a TC4er  1 3.950000e-01    1.850000e+00
   N3a TC4er  1 3.950000e-01    1.850000e+00
   N2a TC4er  1 3.950000e-01    1.850000e+00
   N1a TC4er  1 3.950000e-01    2.110000e+00
   C6e TC5er  1 3.950000e-01    2.110000e+00
   C6v TC5er  1 3.950000e-01    2.700000e+00
   C5v TC5er  1 3.950000e-01    2.700000e+00
  C5er  TC4v  1 3.950000e-01    2.700000e+00
  C5er  TC3v  1 3.950000e-01    2.500000e+00
  C5er  TC2v  1 3.950000e-01    2.310000e+00
  C5er  TC1v  1 3.950000e-01    2.310000e+00
  C5er  TX4v  1 3.950000e-01    2.500000e+00
  C5er  TX3v  1 3.950000e-01    2.500000e+00
  C5er  TX2v  1 3.950000e-01    2.500000e+00
  C5er  TX1v  1 3.950000e-01    2.700000e+00
   P6d TC5er  1 3.950000e-01    1.670000e+00
   P5d TC5er  1 3.950000e-01    1.850000e+00
   P4d TC5er  1 3.950000e-01    1.850000e+00
   P3d TC5er  1 3.950000e-01    2.110000e+00
   P2d TC5er  1 3.950000e-01    2.110000e+00
   P1d TC5er  1 3.950000e-01    2.110000e+00
   N6d TC5er  1 3.950000e-01    2.310000e+00
   N5d TC5er  1 3.950000e-01    2.310000e+00
   N4d TC5er  1 3.950000e-01    2.310000e+00
   N3d TC5er  1 3.950000e-01    2.310000e+00
   N2d TC5er  1 3.950000e-01    2.310000e+00
   N1d TC5er  1 3.950000e-01    2.500000e+00
   P6a TC5er  1 3.990000e-01    1.180000e+00
   P5a TC5er  1 3.980000e-01    1.450000e+00
   P4a TC5er  1 3.980000e-01    1.450000e+00
   P3a TC5er  1 3.950000e-01    1.670000e+00
   P2a TC5er  1 3.950000e-01    1.670000e+00
   P1a TC5er  1 3.950000e-01    1.670000e+00
   N6a TC5er  1 3.950000e-01    1.850000e+00
   N5a TC5er  1 3.950000e-01    1.850000e+00
   N4a TC5er  1 3.950000e-01    1.850000e+00
   N3a TC5er  1 3.950000e-01    1.850000e+00
   N2a TC5er  1 3.950000e-01    1.850000e+00
   N1a TC5er  1 3.950000e-01    2.110000e+00
   C6v TC6er  1 3.950000e-01    2.940000e+00
  C6er  TC5v  1 3.950000e-01    2.700000e+00
  C6er  TC4v  1 3.950000e-01    2.700000e+00
  C6er  TC3v  1 3.950000e-01    2.500000e+00
  C6er  TC2v  1 3.950000e-01    2.310000e+00
  C6er  TC1v  1 3.950000e-01    2.110000e+00
  C6er  TX4v  1 3.950000e-01    2.700000e+00
  C6er  TX3v  1 3.950000e-01    2.700000e+00
  C6er  TX2v  1 3.950000e-01    2.700000e+00
  C6er  TX1v  1 3.950000e-01    2.700000e+00
   P6d TC6er  1 3.950000e-01    1.850000e+00
   P5d TC6er  1 3.950000e-01    1.850000e+00
   P4d TC6er  1 3.950000e-01    2.110000e+00
   P3d TC6er  1 3.950000e-01    2.310000e+00
   P2d TC6er  1 3.950000e-01    2.310000e+00
   P1d TC6er  1 3.950000e-01    2.310000e+00
   N6d TC6er  1 3.950000e-01    2.500000e+00
   N5d TC6er  1 3.950000e-01    2.500000e+00
   N4d TC6er  1 3.950000e-01    2.500000e+00
   N3d TC6er  1 3.950000e-01    2.500000e+00
   N2d TC6er  1 3.950000e-01    2.500000e+00
   N1d TC6er  1 3.950000e-01    2.700000e+00
   P6a TC6er  1 3.980000e-01    1.450000e+00
   P5a TC6er  1 3.980000e-01    1.450000e+00
   P4a TC6er  1 3.950000e-01    1.670000e+00
   P3a TC6er  1 3.950000e-01    1.850000e+00
   P2a TC6er  1 3.950000e-01    1.850000e+00
   P1a TC6er  1 3.950000e-01    1.850000e+00
   N6a TC6er  1 3.950000e-01    2.110000e+00
   N5a TC6er  1 3.950000e-01    2.110000e+00
   N4a TC6er  1 3.950000e-01    2.110000e+00
   N3a TC6er  1 3.950000e-01    2.110000e+00
   N2a TC6er  1 3.950000e-01    2.110000e+00
   N1a TC6er  1 3.950000e-01    2.310000e+00
   C6v TX1vr  1 3.950000e-01    2.110000e+00
   C5v TX1vr  1 3.950000e-01    2.110000e+00
   C4v TX1vr  1 3.950000e-01    2.110000e+00
   C3v TX1vr  1 3.950000e-01    2.110000e+00
   C2v TX1vr  1 3.950000e-01    1.850000e+00
   C1v TX1vr  1 3.950000e-01    1.850000e+00
   X4v TX1vr  1 3.950000e-01    2.110000e+00
   X3v TX1vr  1 3.950000e-01    2.310000e+00
   X2v TX1vr  1 3.950000e-01    2.310000e+00
   P6a TX1vr  1 3.950000e-01    1.670000e+00
   P5a TX1vr  1 3.950000e-01    1.670000e+00
   P4a TX1vr  1 3.950000e-01    1.850000e+00
   P3a TX1vr  1 3.950000e-01    1.850000e+00
   P2a TX1vr  1 3.950000e-01    1.850000e+00
   P1a TX1vr  1 3.950000e-01    1.850000e+00
   N6a TX1vr  1 3.950000e-01    1.850000e+00
   N5a TX1vr  1 3.950000e-01    2.110000e+00
   N4a TX1vr  1 3.950000e-01    2.110000e+00
   N3a TX1vr  1 3.950000e-01    2.310000e+00
   N2a TX1vr  1 3.950000e-01    2.310000e+00
   N1a TX1vr  1 3.950000e-01    2.310000e+00
   P6d TX1vr  1 3.990000e-01    1.180000e+00
   P5d TX1vr  1 3.990000e-01    1.180000e+00
   P4d TX1vr  1 3.980000e-01    1.450000e+00
   P3d TX1vr  1 3.980000e-01    1.450000e+00
   P2d TX1vr  1 3.980000e-01    1.450000e+00
   P1d TX1vr  1 3.980000e-01    1.450000e+00
   N6d TX1vr  1 3.980000e-01    1.450000e+00
   N5d TX1vr  1 3.950000e-01    1.670000e+00
   N4d TX1vr  1 3.950000e-01    1.670000e+00
   N3d TX1vr  1 3.950000e-01    1.850000e+00
   N2d TX1vr  1 3.950000e-01    1.850000e+00
   N1d TX1vr  1 3.950000e-01    1.850000e+00
   C6v TX2vr  1 3.950000e-01    2.110000e+00
   C5v TX2vr  1 3.950000e-01    1.850000e+00
   C4v TX2vr  1 3.950000e-01    1.850000e+00
   C3v TX2vr  1 3.950000e-01    1.850000e+00
   C2v TX2vr  1 3.950000e-01    1.850000e+00
   C1v TX2vr  1 3.950000e-01    1.850000e+00
   X4v TX2vr  1 3.950000e-01    2.110000e+00
   X3v TX2vr  1 3.950000e-01    2.310000e+00
   P6a TX2vr  1 3.950000e-01    1.850000e+00
   P5a TX2vr  1 3.950000e-01    2.110000e+00
   P4a TX2vr  1 3.950000e-01    2.110000e+00
   P3a TX2vr  1 3.950000e-01    2.110000e+00
   P2a TX2vr  1 3.950000e-01    2.110000e+00
   P1a TX2vr  1 3.950000e-01    2.110000e+00
   N6a TX2vr  1 3.950000e-01    2.110000e+00
   N5a TX2vr  1 3.950000e-01    2.310000e+00
   N4a TX2vr  1 3.950000e-01    2.310000e+00
   N3a TX2vr  1 3.950000e-01    2.310000e+00
   N2a TX2vr  1 3.950000e-01    2.310000e+00
   N1a TX2vr  1 3.950000e-01    2.310000e+00
   P6d TX2vr  1 3.980000e-01    1.450000e+00
   P5d TX2vr  1 3.950000e-01    1.670000e+00
   P4d TX2vr  1 3.950000e-01    1.670000e+00
   P3d TX2vr  1 3.950000e-01    1.670000e+00
   P2d TX2vr  1 3.950000e-01    1.670000e+00
   P1d TX2vr  1 3.950000e-01    1.670000e+00
   N6d TX2vr  1 3.950000e-01    1.670000e+00
   N5d TX2vr  1 3.950000e-01    1.850000e+00
   N4d TX2vr  1 3.950000e-01    1.850000e+00
   N3d TX2vr  1 3.950000e-01    1.850000e+00
   N2d TX2vr  1 3.950000e-01    1.850000e+00
   N1d TX2vr  1 3.950000e-01    1.850000e+00
   C6v TX3vr  1 3.950000e-01    2.110000e+00
   C5v TX3vr  1 3.950000e-01    1.850000e+00
   C4v TX3vr  1 3.950000e-01    1.850000e+00
   C3v TX3vr  1 3.950000e-01    1.850000e+00
   C2v TX3vr  1 3.950000e-01    1.850000e+00
   C1v TX3vr  1 3.950000e-01    1.850000e+00
   X4v TX3vr  1 3.950000e-01    2.110000e+00
   P6a TX3vr  1 3.950000e-01    2.110000e+00
   P5a TX3vr  1 3.950000e-01    2.110000e+00
   P4a TX3vr  1 3.950000e-01    2.110000e+00
   P3a TX3vr  1 3.950000e-01    2.310000e+00
   P2a TX3vr  1 3.950000e-01    2.310000e+00
   P1a TX3vr  1 3.950000e-01    2.310000e+00
   N6a TX3vr  1 3.950000e-01    2.310000e+00
   N5a TX3vr  1 3.950000e-01    2.500000e+00
   N4a TX3vr  1 3.950000e-01    2.700000e+00
   N3a TX3vr  1 3.950000e-01    2.500000e+00
   N2a TX3vr  1 3.950000e-01    2.500000e+00
   N1a TX3vr  1 3.950000e-01    2.500000e+00
   P6d TX3vr  1 3.950000e-01    1.670000e+00
   P5d TX3vr  1 3.950000e-01    1.670000e+00
   P4d TX3vr  1 3.950000e-01    1.670000e+00
   P3d TX3vr  1 3.950000e-01    1.850000e+00
   P2d TX3vr  1 3.950000e-01    1.850000e+00
   P1d TX3vr  1 3.950000e-01    1.850000e+00
   N6d TX3vr  1 3.950000e-01    1.850000e+00
   N5d TX3vr  1 3.950000e-01    2.110000e+00
   N4d TX3vr  1 3.950000e-01    2.310000e+00
   N3d TX3vr  1 3.950000e-01    2.110000e+00
   N2d TX3vr  1 3.950000e-01    2.110000e+00
   N1d TX3vr  1 3.950000e-01    2.110000e+00
   C6v TX4vr  1 3.950000e-01    2.110000e+00
   C5v TX4vr  1 3.950000e-01    1.850000e+00
   C4v TX4vr  1 3.950000e-01    1.850000e+00
   C3v TX4vr  1 3.950000e-01    1.850000e+00
   C2v TX4vr  1 3.980000e-01    1.450000e+00
   C1v TX4vr  1 3.980000e-01    1.450000e+00
   P6a TX4vr  1 3.950000e-01    2.110000e+00
   P5a TX4vr  1 3.950000e-01    2.310000e+00
   P4a TX4vr  1 3.950000e-01    2.310000e+00
   P3a TX4vr  1 3.950000e-01    2.310000e+00
   P2a TX4vr  1 3.950000e-01    2.310000e+00
   P1a TX4vr  1 3.950000e-01    2.310000e+00
   N6a TX4vr  1 3.950000e-01    2.500000e+00
   N5a TX4vr  1 3.950000e-01    2.700000e+00
   N4a TX4vr  1 3.950000e-01    2.940000e+00
   N3a TX4vr  1 3.950000e-01    2.700000e+00
   N2a TX4vr  1 3.950000e-01    2.700000e+00
   N1a TX4vr  1 3.950000e-01    2.500000e+00
   P6d TX4vr  1 3.950000e-01    1.670000e+00
   P5d TX4vr  1 3.950000e-01    1.850000e+00
   P4d TX4vr  1 3.950000e-01    1.850000e+00
   P3d TX4vr  1 3.950000e-01    1.850000e+00
   P2d TX4vr  1 3.950000e-01    1.850000e+00
   P1d TX4vr  1 3.950000e-01    1.850000e+00
   N6d TX4vr  1 3.950000e-01    2.110000e+00
   N5d TX4vr  1 3.950000e-01    2.310000e+00
   N4d TX4vr  1 3.950000e-01    2.500000e+00
   N3d TX4vr  1 3.950000e-01    2.310000e+00
   N2d TX4vr  1 3.950000e-01    2.310000e+00
   N1d TX4vr  1 3.950000e-01    2.110000e+00
   C6v TC1vr  1 3.980000e-01    1.450000e+00
   C5v TC1vr  1 3.950000e-01    1.670000e+00
   C4v TC1vr  1 3.950000e-01    1.670000e+00
   C3v TC1vr  1 3.950000e-01    2.110000e+00
   C2v TC1vr  1 3.950000e-01    2.310000e+00
   P6a TC1vr  1 4.040000e-01    8.300000e-01
   P5a TC1vr  1 3.990000e-01    1.180000e+00
   P4a TC1vr  1 3.990000e-01    1.180000e+00
   P3a TC1vr  1 3.990000e-01    1.180000e+00
   P2a TC1vr  1 3.980000e-01    1.450000e+00
   P1a TC1vr  1 3.980000e-01    1.450000e+00
   N6a TC1vr  1 3.950000e-01    1.670000e+00
   N5a TC1vr  1 3.950000e-01    1.670000e+00
   N4a TC1vr  1 3.950000e-01    1.670000e+00
   N3a TC1vr  1 3.950000e-01    1.850000e+00
   N2a TC1vr  1 3.950000e-01    1.850000e+00
   N1a TC1vr  1 3.950000e-01    1.850000e+00
   P6d TC1vr  1 5.110000e-01    6.590000e-01
   P5d TC1vr  1 4.040000e-01    8.300000e-01
   P4d TC1vr  1 4.040000e-01    8.300000e-01
   P3d TC1vr  1 4.040000e-01    8.300000e-01
   P2d TC1vr  1 4.010000e-01    9.830000e-01
   P1d TC1vr  1 4.010000e-01    9.830000e-01
   N6d TC1vr  1 3.990000e-01    1.180000e+00
   N5d TC1vr  1 3.990000e-01    1.180000e+00
   N4d TC1vr  1 3.990000e-01    1.180000e+00
   N3d TC1vr  1 3.980000e-01    1.450000e+00
   N2d TC1vr  1 3.980000e-01    1.450000e+00
   N1d TC1vr  1 3.980000e-01    1.450000e+00
   C6v TC2vr  1 3.950000e-01    1.670000e+00
   C5v TC2vr  1 3.950000e-01    1.670000e+00
   C4v TC2vr  1 3.950000e-01    1.850000e+00
   C3v TC2vr  1 3.950000e-01    2.110000e+00
   P6a TC2vr  1 3.990000e-01    1.180000e+00
   P5a TC2vr  1 3.980000e-01    1.450000e+00
   P4a TC2vr  1 3.980000e-01    1.450000e+00
   P3a TC2vr  1 3.980000e-01    1.450000e+00
   P2a TC2vr  1 3.950000e-01    1.670000e+00
   P1a TC2vr  1 3.950000e-01    1.670000e+00
   N6a TC2vr  1 3.950000e-01    1.850000e+00
   N5a TC2vr  1 3.950000e-01    1.850000e+00
   N4a TC2vr  1 3.950000e-01    1.850000e+00
   N3a TC2vr  1 3.950000e-01    2.110000e+00
   N2a TC2vr  1 3.950000e-01    2.110000e+00
   N1a TC2vr  1 3.950000e-01    2.110000e+00
   P6d TC2vr  1 4.040000e-01    8.300000e-01
   P5d TC2vr  1 4.010000e-01    9.830000e-01
   P4d TC2vr  1 4.010000e-01    9.830000e-01
   P3d TC2vr  1 4.010000e-01    9.830000e-01
   P2d TC2vr  1 3.990000e-01    1.180000e+00
   P1d TC2vr  1 3.990000e-01    1.180000e+00
   N6d TC2vr  1 3.980000e-01    1.450000e+00
   N5d TC2vr  1 3.980000e-01    1.450000e+00
   N4d TC2vr  1 3.980000e-01    1.450000e+00
   N3d TC2vr  1 3.950000e-01    1.670000e+00
   N2d TC2vr  1 3.950000e-01    1.670000e+00
   N1d TC2vr  1 3.950000e-01    1.670000e+00
   C6v TC3vr  1 3.950000e-01    1.850000e+00
   C5v TC3vr  1 3.950000e-01    1.850000e+00
   C4v TC3vr  1 3.950000e-01    2.110000e+00
   P6a TC3vr  1 3.990000e-01    1.180000e+00
   P5a TC3vr  1 3.980000e-01    1.450000e+00
   P4a TC3vr  1 3.980000e-01    1.450000e+00
   P3a TC3vr  1 3.980000e-01    1.450000e+00
   P2a TC3vr  1 3.950000e-01    1.670000e+00
   P1a TC3vr  1 3.950000e-01    1.670000e+00
   N6a TC3vr  1 3.950000e-01    1.850000e+00
   N5a TC3vr  1 3.950000e-01    2.110000e+00
   N4a TC3vr  1 3.950000e-01    2.110000e+00
   N3a TC3vr  1 3.950000e-01    2.110000e+00
   N2a TC3vr  1 3.950000e-01    2.310000e+00
   N1a TC3vr  1 3.950000e-01    2.310000e+00
   P6d TC3vr  1 4.040000e-01    8.300000e-01
   P5d TC3vr  1 4.010000e-01    9.830000e-01
   P4d TC3vr  1 4.010000e-01    9.830000e-01
   P3d TC3vr  1 4.010000e-01    9.830000e-01
   P2d TC3vr  1 3.990000e-01    1.180000e+00
   P1d TC3vr  1 3.990000e-01    1.180000e+00
   N6d TC3vr  1 3.980000e-01    1.450000e+00
   N5d TC3vr  1 3.950000e-01    1.670000e+00
   N4d TC3vr  1 3.950000e-01    1.670000e+00
   N3d TC3vr  1 3.950000e-01    1.670000e+00
   N2d TC3vr  1 3.950000e-01    1.850000e+00
   N1d TC3vr  1 3.950000e-01    1.850000e+00
   C6v TC4vr  1 3.950000e-01    2.110000e+00
   C5v TC4vr  1 3.950000e-01    2.110000e+00
   P6a TC4vr  1 3.980000e-01    1.450000e+00
   P5a TC4vr  1 3.950000e-01    1.670000e+00
   P4a TC4vr  1 3.950000e-01    1.670000e+00
   P3a TC4vr  1 3.950000e-01    1.850000e+00
   P2a TC4vr  1 3.950000e-01    1.850000e+00
   P1a TC4vr  1 3.950000e-01    1.850000e+00
   N6a TC4vr  1 3.950000e-01    2.110000e+00
   N5a TC4vr  1 3.950000e-01    2.110000e+00
   N4a TC4vr  1 3.950000e-01    2.310000e+00
   N3a TC4vr  1 3.950000e-01    2.310000e+00
   N2a TC4vr  1 3.950000e-01    2.310000e+00
   N1a TC4vr  1 3.950000e-01    2.500000e+00
   P6d TC4vr  1 4.010000e-01    9.830000e-01
   P5d TC4vr  1 3.990000e-01    1.180000e+00
   P4d TC4vr  1 3.990000e-01    1.180000e+00
   P3d TC4vr  1 3.980000e-01    1.450000e+00
   P2d TC4vr  1 3.980000e-01    1.450000e+00
   P1d TC4vr  1 3.980000e-01    1.450000e+00
   N6d TC4vr  1 3.950000e-01    1.670000e+00
   N5d TC4vr  1 3.950000e-01    1.670000e+00
   N4d TC4vr  1 3.950000e-01    1.850000e+00
   N3d TC4vr  1 3.950000e-01    1.850000e+00
   N2d TC4vr  1 3.950000e-01    1.850000e+00
   N1d TC4vr  1 3.950000e-01    2.110000e+00
   C6v TC5vr  1 3.950000e-01    2.110000e+00
   P6a TC5vr  1 3.950000e-01    1.670000e+00
   P5a TC5vr  1 3.950000e-01    1.850000e+00
   P4a TC5vr  1 3.950000e-01    1.850000e+00
   P3a TC5vr  1 3.950000e-01    2.110000e+00
   P2a TC5vr  1 3.950000e-01    2.110000e+00
   P1a TC5vr  1 3.950000e-01    2.110000e+00
   N6a TC5vr  1 3.950000e-01    2.310000e+00
   N5a TC5vr  1 3.950000e-01    2.310000e+00
   N4a TC5vr  1 3.950000e-01    2.310000e+00
   N3a TC5vr  1 3.950000e-01    2.310000e+00
   N2a TC5vr  1 3.950000e-01    2.310000e+00
   N1a TC5vr  1 3.950000e-01    2.500000e+00
   P6d TC5vr  1 3.990000e-01    1.180000e+00
   P5d TC5vr  1 3.980000e-01    1.450000e+00
   P4d TC5vr  1 3.980000e-01    1.450000e+00
   P3d TC5vr  1 3.950000e-01    1.670000e+00
   P2d TC5vr  1 3.950000e-01    1.670000e+00
   P1d TC5vr  1 3.950000e-01    1.670000e+00
   N6d TC5vr  1 3.950000e-01    1.850000e+00
   N5d TC5vr  1 3.950000e-01    1.850000e+00
   N4d TC5vr  1 3.950000e-01    1.850000e+00
   N3d TC5vr  1 3.950000e-01    1.850000e+00
   N2d TC5vr  1 3.950000e-01    1.850000e+00
   N1d TC5vr  1 3.950000e-01    2.110000e+00
   P6a TC6vr  1 3.950000e-01    1.850000e+00
   P5a TC6vr  1 3.950000e-01    1.850000e+00
   P4a TC6vr  1 3.950000e-01    2.110000e+00
   P3a TC6vr  1 3.950000e-01    2.310000e+00
   P2a TC6vr  1 3.950000e-01    2.310000e+00
   P1a TC6vr  1 3.950000e-01    2.310000e+00
   N6a TC6vr  1 3.950000e-01    2.500000e+00
   N5a TC6vr  1 3.950000e-01    2.500000e+00
   N4a TC6vr  1 3.950000e-01    2.500000e+00
   N3a TC6vr  1 3.950000e-01    2.500000e+00
   N2a TC6vr  1 3.950000e-01    2.500000e+00
   N1a TC6vr  1 3.950000e-01    2.700000e+00
   P6d TC6vr  1 3.980000e-01    1.450000e+00
   P5d TC6vr  1 3.980000e-01    1.450000e+00
   P4d TC6vr  1 3.950000e-01    1.670000e+00
   P3d TC6vr  1 3.950000e-01    1.850000e+00
   P2d TC6vr  1 3.950000e-01    1.850000e+00
   P1d TC6vr  1 3.950000e-01    1.850000e+00
   N6d TC6vr  1 3.950000e-01    2.110000e+00
   N5d TC6vr  1 3.950000e-01    2.110000e+00
   N4d TC6vr  1 3.950000e-01    2.110000e+00
   N3d TC6vr  1 3.950000e-01    2.110000e+00
   N2d TC6vr  1 3.950000e-01    2.110000e+00
   N1d TC6vr  1 3.950000e-01    2.310000e+00
   P6a TN1ar  1 3.950000e-01    1.670000e+00
   P5a TN1ar  1 3.950000e-01    1.670000e+00
   P4a TN1ar  1 3.950000e-01    1.850000e+00
   P3a TN1ar  1 3.950000e-01    2.110000e+00
   P2a TN1ar  1 3.950000e-01    2.110000e+00
   P1a TN1ar  1 3.950000e-01    2.110000e+00
   N6a TN1ar  1 3.950000e-01    2.110000e+00
   N5a TN1ar  1 3.950000e-01    2.110000e+00
   N4a TN1ar  1 3.950000e-01    2.110000e+00
   N3a TN1ar  1 3.950000e-01    2.110000e+00
   N2a TN1ar  1 3.950000e-01    2.110000e+00
   P6d TN1ar  1 3.950000e-01    1.670000e+00
   P5d TN1ar  1 3.950000e-01    1.670000e+00
   P4d TN1ar  1 3.950000e-01    1.850000e+00
   P3d TN1ar  1 3.950000e-01    2.110000e+00
   P2d TN1ar  1 3.950000e-01    2.500000e+00
   P1d TN1ar  1 3.950000e-01    2.500000e+00
   N6d TN1ar  1 3.950000e-01    2.500000e+00
   N5d TN1ar  1 3.950000e-01    2.500000e+00
   N4d TN1ar  1 3.950000e-01    2.500000e+00
   N3d TN1ar  1 3.950000e-01    2.500000e+00
   N2d TN1ar  1 3.950000e-01    2.500000e+00
   N1d TN1ar  1 3.950000e-01    2.700000e+00
   P6a TN2ar  1 3.950000e-01    1.850000e+00
   P5a TN2ar  1 3.950000e-01    1.850000e+00
   P4a TN2ar  1 3.950000e-01    2.110000e+00
   P3a TN2ar  1 3.950000e-01    2.110000e+00
   P2a TN2ar  1 3.950000e-01    2.110000e+00
   P1a TN2ar  1 3.950000e-01    2.110000e+00
   N6a TN2ar  1 3.950000e-01    2.110000e+00
   N5a TN2ar  1 3.950000e-01    2.310000e+00
   N4a TN2ar  1 3.950000e-01    2.310000e+00
   N3a TN2ar  1 3.950000e-01    2.310000e+00
   P6d TN2ar  1 3.950000e-01    1.850000e+00
   P5d TN2ar  1 3.950000e-01    1.850000e+00
   P4d TN2ar  1 3.950000e-01    2.110000e+00
   P3d TN2ar  1 3.950000e-01    2.500000e+00
   P2d TN2ar  1 3.950000e-01    2.500000e+00
   P1d TN2ar  1 3.950000e-01    2.500000e+00
   N6d TN2ar  1 3.950000e-01    2.500000e+00
   N5d TN2ar  1 3.950000e-01    2.700000e+00
   N4d TN2ar  1 3.950000e-01    2.700000e+00
   N3d TN2ar  1 3.950000e-01    2.700000e+00
   N2d TN2ar  1 3.950000e-01    2.700000e+00
  N2ar  TN1d  1 3.950000e-01    2.500000e+00
   P6a TN3ar  1 3.950000e-01    2.110000e+00
   P5a TN3ar  1 3.950000e-01    2.110000e+00
   P4a TN3ar  1 3.950000e-01    2.110000e+00
   P3a TN3ar  1 3.950000e-01    2.110000e+00
   P2a TN3ar  1 3.950000e-01    2.110000e+00
   P1a TN3ar  1 3.950000e-01    2.110000e+00
   N6a TN3ar  1 3.950000e-01    2.310000e+00
   N5a TN3ar  1 3.950000e-01    2.310000e+00
   N4a TN3ar  1 3.950000e-01    2.310000e+00
   P6d TN3ar  1 3.950000e-01    2.110000e+00
   P5d TN3ar  1 3.950000e-01    2.110000e+00
   P4d TN3ar  1 3.950000e-01    2.500000e+00
   P3d TN3ar  1 3.950000e-01    2.500000e+00
   P2d TN3ar  1 3.950000e-01    2.500000e+00
   P1d TN3ar  1 3.950000e-01    2.500000e+00
   N6d TN3ar  1 3.950000e-01    2.700000e+00
   N5d TN3ar  1 3.950000e-01    2.700000e+00
   N4d TN3ar  1 3.950000e-01    2.700000e+00
   N3d TN3ar  1 3.950000e-01    2.700000e+00
  N3ar  TN2d  1 3.950000e-01    2.700000e+00
  N3ar  TN1d  1 3.950000e-01    2.500000e+00
   P6a TN4ar  1 3.950000e-01    2.110000e+00
   P5a TN4ar  1 3.950000e-01    2.310000e+00
   P4a TN4ar  1 3.950000e-01    2.310000e+00
   P3a TN4ar  1 3.950000e-01    2.310000e+00
   P2a TN4ar  1 3.950000e-01    2.310000e+00
   P1a TN4ar  1 3.950000e-01    2.500000e+00
   N6a TN4ar  1 3.950000e-01    2.700000e+00
   N5a TN4ar  1 3.950000e-01    2.500000e+00
   P6d TN4ar  1 3.950000e-01    2.500000e+00
   P5d TN4ar  1 3.950000e-01    2.700000e+00
   P4d TN4ar  1 3.950000e-01    2.700000e+00
   P3d TN4ar  1 3.950000e-01    2.700000e+00
   P2d TN4ar  1 3.950000e-01    2.700000e+00
   P1d TN4ar  1 3.950000e-01    2.940000e+00
   N6d TN4ar  1 3.950000e-01    3.190000e+00
   N5d TN4ar  1 3.950000e-01    2.940000e+00
   N4d TN4ar  1 3.950000e-01    2.940000e+00
  N4ar  TN3d  1 3.950000e-01    2.700000e+00
  N4ar  TN2d  1 3.950000e-01    2.700000e+00
  N4ar  TN1d  1 3.950000e-01    2.500000e+00
   P6a TN5ar  1 3.950000e-01    2.310000e+00
   P5a TN5ar  1 3.950000e-01    2.310000e+00
   P4a TN5ar  1 3.950000e-01    2.310000e+00
   P3a TN5ar  1 3.950000e-01    2.310000e+00
   P2a TN5ar  1 3.950000e-01    2.500000e+00
   P1a TN5ar  1 3.950000e-01    2.500000e+00
   N6a TN5ar  1 3.950000e-01    2.700000e+00
   P6d TN5ar  1 3.950000e-01    2.700000e+00
   P5d TN5ar  1 3.950000e-01    2.700000e+00
   P4d TN5ar  1 3.950000e-01    2.700000e+00
   P3d TN5ar  1 3.950000e-01    2.700000e+00
   P2d TN5ar  1 3.950000e-01    2.940000e+00
   P1d TN5ar  1 3.950000e-01    2.940000e+00
   N6d TN5ar  1 3.950000e-01    3.190000e+00
   N5d TN5ar  1 3.950000e-01    2.940000e+00
  N5ar  TN4d  1 3.950000e-01    2.940000e+00
  N5ar  TN3d  1 3.950000e-01    2.700000e+00
  N5ar  TN2d  1 3.950000e-01    2.700000e+00
  N5ar  TN1d  1 3.950000e-01    2.500000e+00
   P6a TN6ar  1 3.950000e-01    2.700000e+00
   P5a TN6ar  1 3.950000e-01    2.500000e+00
   P4a TN6ar  1 3.950000e-01    2.500000e+00
   P3a TN6ar  1 3.950000e-01    2.500000e+00
   P2a TN6ar  1 3.950000e-01    2.700000e+00
   P1a TN6ar  1 3.950000e-01    2.700000e+00
   P6d TN6ar  1 3.950000e-01    3.190000e+00
   P5d TN6ar  1 3.950000e-01    2.940000e+00
   P4d TN6ar  1 3.950000e-01    2.940000e+00
   P3d TN6ar  1 3.950000e-01    2.940000e+00
   P2d TN6ar  1 3.950000e-01    3.190000e+00
   P1d TN6ar  1 3.950000e-01    3.190000e+00
   N6d TN6ar  1 3.950000e-01    3.190000e+00
  N6ar  TN5d  1 3.950000e-01    3.190000e+00
  N6ar  TN4d  1 3.950000e-01    3.190000e+00
  N6ar  TN3d  1 3.950000e-01    2.700000e+00
  N6ar  TN2d  1 3.950000e-01    2.500000e+00
  N6ar  TN1d  1 3.950000e-01    2.500000e+00
   P6a TP1ar  1 3.950000e-01    2.940000e+00
   P5a TP1ar  1 3.950000e-01    2.700000e+00
   P4a TP1ar  1 3.950000e-01    2.700000e+00
   P3a TP1ar  1 3.950000e-01    2.700000e+00
   P2a TP1ar  1 3.950000e-01    2.700000e+00
   P6d TP1ar  1 3.950000e-01    3.430000e+00
   P5d TP1ar  1 3.950000e-01    3.190000e+00
   P4d TP1ar  1 3.950000e-01    3.190000e+00
   P3d TP1ar  1 3.950000e-01    3.190000e+00
   P2d TP1ar  1 3.950000e-01    3.190000e+00
   P1d TP1ar  1 3.950000e-01    3.190000e+00
  P1ar  TN6d  1 3.950000e-01    3.190000e+00
  P1ar  TN5d  1 3.950000e-01    2.940000e+00
  P1ar  TN4d  1 3.950000e-01    2.940000e+00
  P1ar  TN3d  1 3.950000e-01    2.500000e+00
  P1ar  TN2d  1 3.950000e-01    2.500000e+00
  P1ar  TN1d  1 3.950000e-01    2.500000e+00
   P6a TP2ar  1 3.950000e-01    3.190000e+00
   P5a TP2ar  1 3.950000e-01    2.940000e+00
   P4a TP2ar  1 3.950000e-01    2.940000e+00
   P3a TP2ar  1 3.950000e-01    2.940000e+00
   P6d TP2ar  1 3.950000e-01    3.670000e+00
   P5d TP2ar  1 3.950000e-01    3.430000e+00
   P4d TP2ar  1 3.950000e-01    3.430000e+00
   P3d TP2ar  1 3.950000e-01    3.430000e+00
   P2d TP2ar  1 3.950000e-01    3.430000e+00
  P2ar  TP1d  1 3.950000e-01    3.190000e+00
  P2ar  TN6d  1 3.950000e-01    3.190000e+00
  P2ar  TN5d  1 3.950000e-01    2.940000e+00
  P2ar  TN4d  1 3.950000e-01    2.700000e+00
  P2ar  TN3d  1 3.950000e-01    2.500000e+00
  P2ar  TN2d  1 3.950000e-01    2.500000e+00
  P2ar  TN1d  1 3.950000e-01    2.500000e+00
   P6a TP3ar  1 3.950000e-01    3.190000e+00
   P5a TP3ar  1 3.950000e-01    2.940000e+00
   P4a TP3ar  1 3.950000e-01    2.940000e+00
   P6d TP3ar  1 3.950000e-01    3.670000e+00
   P5d TP3ar  1 3.950000e-01    3.430000e+00
   P4d TP3ar  1 3.950000e-01    3.430000e+00
   P3d TP3ar  1 3.950000e-01    3.430000e+00
  P3ar  TP2d  1 3.950000e-01    3.430000e+00
  P3ar  TP1d  1 3.950000e-01    3.190000e+00
  P3ar  TN6d  1 3.950000e-01    2.940000e+00
  P3ar  TN5d  1 3.950000e-01    2.700000e+00
  P3ar  TN4d  1 3.950000e-01    2.700000e+00
  P3ar  TN3d  1 3.950000e-01    2.500000e+00
  P3ar  TN2d  1 3.950000e-01    2.500000e+00
  P3ar  TN1d  1 3.950000e-01    2.110000e+00
   P6a TP4ar  1 3.950000e-01    3.430000e+00
   P5a TP4ar  1 3.950000e-01    3.190000e+00
   P6d TP4ar  1 3.950000e-01    3.910000e+00
   P5d TP4ar  1 3.950000e-01    3.670000e+00
   P4d TP4ar  1 3.950000e-01    3.670000e+00
  P4ar  TP3d  1 3.950000e-01    3.430000e+00
  P4ar  TP2d  1 3.950000e-01    3.430000e+00
  P4ar  TP1d  1 3.950000e-01    3.190000e+00
  P4ar  TN6d  1 3.950000e-01    2.940000e+00
  P4ar  TN5d  1 3.950000e-01    2.700000e+00
  P4ar  TN4d  1 3.950000e-01    2.700000e+00
  P4ar  TN3d  1 3.950000e-01    2.500000e+00
  P4ar  TN2d  1 3.950000e-01    2.110000e+00
  P4ar  TN1d  1 3.950000e-01    1.850000e+00
   P6a TP5ar  1 3.950000e-01    3.670000e+00
   P6d TP5ar  1 3.950000e-01    4.230000e+00
   P5d TP5ar  1 3.950000e-01    3.910000e+00
  P5ar  TP4d  1 3.950000e-01    3.670000e+00
  P5ar  TP3d  1 3.950000e-01    3.430000e+00
  P5ar  TP2d  1 3.950000e-01    3.430000e+00
  P5ar  TP1d  1 3.950000e-01    3.190000e+00
  P5ar  TN6d  1 3.950000e-01    2.940000e+00
  P5ar  TN5d  1 3.950000e-01    2.700000e+00
  P5ar  TN4d  1 3.950000e-01    2.700000e+00
  P5ar  TN3d  1 3.950000e-01    2.110000e+00
  P5ar  TN2d  1 3.950000e-01    1.850000e+00
  P5ar  TN1d  1 3.950000e-01    1.670000e+00
   P6d TP6ar  1 3.950000e-01    4.540000e+00
  P6ar  TP5d  1 3.950000e-01    4.230000e+00
  P6ar  TP4d  1 3.950000e-01    3.910000e+00
  P6ar  TP3d  1 3.950000e-01    3.670000e+00
  P6ar  TP2d  1 3.950000e-01    3.670000e+00
  P6ar  TP1d  1 3.950000e-01    3.430000e+00
  P6ar  TN6d  1 3.950000e-01    3.190000e+00
  P6ar  TN5d  1 3.950000e-01    2.700000e+00
  P6ar  TN4d  1 3.950000e-01    2.500000e+00
  P6ar  TN3d  1 3.950000e-01    2.110000e+00
  P6ar  TN2d  1 3.950000e-01    1.850000e+00
  P6ar  TN1d  1 3.950000e-01    1.670000e+00
   P6d TN1dr  1 3.950000e-01    1.670000e+00
   P5d TN1dr  1 3.950000e-01    1.670000e+00
   P4d TN1dr  1 3.950000e-01    1.850000e+00
   P3d TN1dr  1 3.950000e-01    2.110000e+00
   P2d TN1dr  1 3.950000e-01    2.110000e+00
   P1d TN1dr  1 3.950000e-01    2.110000e+00
   N6d TN1dr  1 3.950000e-01    2.110000e+00
   N5d TN1dr  1 3.950000e-01    2.110000e+00
   N4d TN1dr  1 3.950000e-01    2.110000e+00
   N3d TN1dr  1 3.950000e-01    2.110000e+00
   N2d TN1dr  1 3.950000e-01    2.110000e+00
   P6d TN2dr  1 3.950000e-01    1.850000e+00
   P5d TN2dr  1 3.950000e-01    1.850000e+00
   P4d TN2dr  1 3.950000e-01    2.110000e+00
   P3d TN2dr  1 3.950000e-01    2.110000e+00
   P2d TN2dr  1 3.950000e-01    2.110000e+00
   P1d TN2dr  1 3.950000e-01    2.110000e+00
   N6d TN2dr  1 3.950000e-01    2.110000e+00
   N5d TN2dr  1 3.950000e-01    2.310000e+00
   N4d TN2dr  1 3.950000e-01    2.310000e+00
   N3d TN2dr  1 3.950000e-01    2.310000e+00
   P6d TN3dr  1 3.950000e-01    2.110000e+00
   P5d TN3dr  1 3.950000e-01    2.110000e+00
   P4d TN3dr  1 3.950000e-01    2.110000e+00
   P3d TN3dr  1 3.950000e-01    2.110000e+00
   P2d TN3dr  1 3.950000e-01    2.110000e+00
   P1d TN3dr  1 3.950000e-01    2.110000e+00
   N6d TN3dr  1 3.950000e-01    2.310000e+00
   N5d TN3dr  1 3.950000e-01    2.310000e+00
   N4d TN3dr  1 3.950000e-01    2.310000e+00
   P6d TN4dr  1 3.950000e-01    2.110000e+00
   P5d TN4dr  1 3.950000e-01    2.310000e+00
   P4d TN4dr  1 3.950000e-01    2.310000e+00
   P3d TN4dr  1 3.950000e-01    2.310000e+00
   P2d TN4dr  1 3.950000e-01    2.310000e+00
   P1d TN4dr  1 3.950000e-01    2.500000e+00
   N6d TN4dr  1 3.950000e-01    2.700000e+00
   N5d TN4dr  1 3.950000e-01    2.500000e+00
   P6d TN5dr  1 3.950000e-01    2.310000e+00
   P5d TN5dr  1 3.950000e-01    2.310000e+00
   P4d TN5dr  1 3.950000e-01    2.310000e+00
   P3d TN5dr  1 3.950000e-01    2.310000e+00
   P2d TN5dr  1 3.950000e-01    2.500000e+00
   P1d TN5dr  1 3.950000e-01    2.500000e+00
   N6d TN5dr  1 3.950000e-01    2.700000e+00
   P6d TN6dr  1 3.950000e-01    2.700000e+00
   P5d TN6dr  1 3.950000e-01    2.500000e+00
   P4d TN6dr  1 3.950000e-01    2.500000e+00
   P3d TN6dr  1 3.950000e-01    2.500000e+00
   P2d TN6dr  1 3.950000e-01    2.700000e+00
   P1d TN6dr  1 3.950000e-01    2.700000e+00
   P6d TP1dr  1 3.950000e-01    2.940000e+00
   P5d TP1dr  1 3.950000e-01    2.700000e+00
   P4d TP1dr  1 3.950000e-01    2.700000e+00
   P3d TP1dr  1 3.950000e-01    2.700000e+00
   P2d TP1dr  1 3.950000e-01    2.700000e+00
   P6d TP2dr  1 3.950000e-01    3.190000e+00
   P5d TP2dr  1 3.950000e-01    2.940000e+00
   P4d TP2dr  1 3.950000e-01    2.940000e+00
   P3d TP2dr  1 3.950000e-01    2.940000e+00
   P6d TP3dr  1 3.950000e-01    3.190000e+00
   P5d TP3dr  1 3.950000e-01    2.940000e+00
   P4d TP3dr  1 3.950000e-01    2.940000e+00
   P6d TP4dr  1 3.950000e-01    3.430000e+00
   P5d TP4dr  1 3.950000e-01    3.190000e+00
   P6d TP5dr  1 3.950000e-01    3.670000e+00
   P6r  TP6r  1 3.950000e-01    3.910000e+00
   P5r  TP5r  1 3.950000e-01    3.430000e+00
   P4r  TP4r  1 3.950000e-01    3.190000e+00
   P3r  TP3r  1 3.950000e-01    2.940000e+00
   P2r  TP2r  1 3.950000e-01    2.940000e+00
   P1r  TP1r  1 3.950000e-01    2.700000e+00
   N6r  TN6r  1 3.950000e-01    2.700000e+00
   N5r  TN5r  1 3.950000e-01    2.500000e+00
   N4r  TN4r  1 3.950000e-01    2.500000e+00
   N3r  TN3r  1 3.950000e-01    2.310000e+00
   N2r  TN2r  1 3.950000e-01    2.310000e+00
   N1r  TN1r  1 3.950000e-01    2.310000e+00
  P6dr TP6dr  1 3.950000e-01    3.670000e+00
  P5dr TP5dr  1 3.950000e-01    3.190000e+00
  P4dr TP4dr  1 3.950000e-01    2.940000e+00
  P3dr TP3dr  1 3.950000e-01    2.700000e+00
  P2dr TP2dr  1 3.950000e-01    2.700000e+00
  P1dr TP1dr  1 3.950000e-01    2.500000e+00
  N6dr TN6dr  1 3.950000e-01    2.500000e+00
  N5dr TN5dr  1 3.950000e-01    2.310000e+00
  N4dr TN4dr  1 3.950000e-01    2.310000e+00
  N3dr TN3dr  1 3.950000e-01    2.110000e+00
  N2dr TN2dr  1 3.950000e-01    2.110000e+00
  N1dr TN1dr  1 3.950000e-01    2.110000e+00
  P6ar TP6ar  1 3.950000e-01    3.670000e+00
  P5ar TP5ar  1 3.950000e-01    3.190000e+00
  P4ar TP4ar  1 3.950000e-01    2.940000e+00
  P3ar TP3ar  1 3.950000e-01    2.700000e+00
  P2ar TP2ar  1 3.950000e-01    2.700000e+00
  P1ar TP1ar  1 3.950000e-01    2.500000e+00
  N6ar TN6ar  1 3.950000e-01    2.500000e+00
  N5ar TN5ar  1 3.950000e-01    2.310000e+00
  N4ar TN4ar  1 3.950000e-01    2.310000e+00
  N3ar TN3ar  1 3.950000e-01    2.110000e+00
  N2ar TN2ar  1 3.950000e-01    2.110000e+00
  N1ar TN1ar  1 3.950000e-01    2.110000e+00
   P6r  TP5r  1 3.950000e-01    3.670000e+00
   P6r  TP4r  1 3.950000e-01    3.430000e+00
   P6r  TP3r  1 3.950000e-01    3.190000e+00
   P6r  TP2r  1 3.950000e-01    3.190000e+00
   P6r  TP1r  1 3.950000e-01    2.940000e+00
   P6r  TN6r  1 3.950000e-01    2.700000e+00
   P6r  TN5r  1 3.950000e-01    2.310000e+00
   P6r  TN4r  1 3.950000e-01    2.110000e+00
   P6r  TN3r  1 3.950000e-01    1.850000e+00
   P6r  TN2r  1 3.950000e-01    1.670000e+00
   P6r  TN1r  1 3.980000e-01    1.450000e+00
   P6r TP6dr  1 3.950000e-01    3.910000e+00
   P6r TP5dr  1 3.950000e-01    3.670000e+00
   P6r TP4dr  1 3.950000e-01    3.430000e+00
   P6r TP3dr  1 3.950000e-01    3.190000e+00
   P6r TP2dr  1 3.950000e-01    3.190000e+00
   P6r TP1dr  1 3.950000e-01    2.940000e+00
   P6r TN6dr  1 3.950000e-01    2.700000e+00
   P6r TN5dr  1 3.950000e-01    2.310000e+00
   P6r TN4dr  1 3.950000e-01    2.110000e+00
   P6r TN3dr  1 3.950000e-01    1.850000e+00
   P6r TN2dr  1 3.950000e-01    1.670000e+00
   P6r TN1dr  1 3.980000e-01    1.450000e+00
   P6r TP6ar  1 3.950000e-01    3.910000e+00
   P6r TP5ar  1 3.950000e-01    3.670000e+00
   P6r TP4ar  1 3.950000e-01    3.430000e+00
   P6r TP3ar  1 3.950000e-01    3.190000e+00
   P6r TP2ar  1 3.950000e-01    3.190000e+00
   P6r TP1ar  1 3.950000e-01    2.940000e+00
   P6r TN6ar  1 3.950000e-01    2.700000e+00
   P6r TN5ar  1 3.950000e-01    2.310000e+00
   P6r TN4ar  1 3.950000e-01    2.110000e+00
   P6r TN3ar  1 3.950000e-01    1.850000e+00
   P6r TN2ar  1 3.950000e-01    1.670000e+00
   P6r TN1ar  1 3.980000e-01    1.450000e+00
   P5r  TP4r  1 3.950000e-01    3.190000e+00
   P5r  TP3r  1 3.950000e-01    2.940000e+00
   P5r  TP2r  1 3.950000e-01    2.940000e+00
   P5r  TP1r  1 3.950000e-01    2.700000e+00
   P5r  TN6r  1 3.950000e-01    2.500000e+00
   P5r  TN5r  1 3.950000e-01    2.310000e+00
   P5r  TN4r  1 3.950000e-01    2.310000e+00
   P5r  TN3r  1 3.950000e-01    1.850000e+00
   P5r  TN2r  1 3.950000e-01    1.670000e+00
   P5r  TN1r  1 3.980000e-01    1.450000e+00
   P5r TP5dr  1 3.950000e-01    3.430000e+00
   P5r TP4dr  1 3.950000e-01    3.190000e+00
   P5r TP3dr  1 3.950000e-01    2.940000e+00
   P5r TP2dr  1 3.950000e-01    2.940000e+00
   P5r TP1dr  1 3.950000e-01    2.700000e+00
   P5r TN6dr  1 3.950000e-01    2.500000e+00
   P5r TN5dr  1 3.950000e-01    2.310000e+00
   P5r TN4dr  1 3.950000e-01    2.310000e+00
   P5r TN3dr  1 3.950000e-01    1.850000e+00
   P5r TN2dr  1 3.950000e-01    1.670000e+00
   P5r TN1dr  1 3.980000e-01    1.450000e+00
   P5r TP5ar  1 3.950000e-01    3.430000e+00
   P5r TP4ar  1 3.950000e-01    3.190000e+00
   P5r TP3ar  1 3.950000e-01    2.940000e+00
   P5r TP2ar  1 3.950000e-01    2.940000e+00
   P5r TP1ar  1 3.950000e-01    2.700000e+00
   P5r TN6ar  1 3.950000e-01    2.500000e+00
   P5r TN5ar  1 3.950000e-01    2.310000e+00
   P5r TN4ar  1 3.950000e-01    2.310000e+00
   P5r TN3ar  1 3.950000e-01    1.850000e+00
   P5r TN2ar  1 3.950000e-01    1.670000e+00
   P5r TN1ar  1 3.980000e-01    1.450000e+00
   P4r  TP3r  1 3.950000e-01    2.940000e+00
   P4r  TP2r  1 3.950000e-01    2.940000e+00
   P4r  TP1r  1 3.950000e-01    2.700000e+00
   P4r  TN6r  1 3.950000e-01    2.500000e+00
   P4r  TN5r  1 3.950000e-01    2.310000e+00
   P4r  TN4r  1 3.950000e-01    2.310000e+00
   P4r  TN3r  1 3.950000e-01    2.110000e+00
   P4r  TN2r  1 3.950000e-01    1.850000e+00
   P4r  TN1r  1 3.950000e-01    1.670000e+00
   P4r TP4dr  1 3.950000e-01    3.190000e+00
   P4r TP3dr  1 3.950000e-01    2.940000e+00
   P4r TP2dr  1 3.950000e-01    2.940000e+00
   P4r TP1dr  1 3.950000e-01    2.700000e+00
   P4r TN6dr  1 3.950000e-01    2.500000e+00
   P4r TN5dr  1 3.950000e-01    2.310000e+00
   P4r TN4dr  1 3.950000e-01    2.310000e+00
   P4r TN3dr  1 3.950000e-01    2.110000e+00
   P4r TN2dr  1 3.950000e-01    1.850000e+00
   P4r TN1dr  1 3.950000e-01    1.670000e+00
   P4r TP4ar  1 3.950000e-01    3.190000e+00
   P4r TP3ar  1 3.950000e-01    2.940000e+00
   P4r TP2ar  1 3.950000e-01    2.940000e+00
   P4r TP1ar  1 3.950000e-01    2.700000e+00
   P4r TN6ar  1 3.950000e-01    2.500000e+00
   P4r TN5ar  1 3.950000e-01    2.310000e+00
   P4r TN4ar  1 3.950000e-01    2.310000e+00
   P4r TN3ar  1 3.950000e-01    2.110000e+00
   P4r TN2ar  1 3.950000e-01    1.850000e+00
   P4r TN1ar  1 3.950000e-01    1.670000e+00
   P3r  TP2r  1 3.950000e-01    2.940000e+00
   P3r  TP1r  1 3.950000e-01    2.700000e+00
   P3r  TN6r  1 3.950000e-01    2.500000e+00
   P3r  TN5r  1 3.950000e-01    2.310000e+00
   P3r  TN4r  1 3.950000e-01    2.310000e+00
   P3r  TN3r  1 3.950000e-01    2.110000e+00
   P3r  TN2r  1 3.950000e-01    2.110000e+00
   P3r  TN1r  1 3.950000e-01    1.850000e+00
   P3r TP3dr  1 3.950000e-01    2.940000e+00
   P3r TP2dr  1 3.950000e-01    2.940000e+00
   P3r TP1dr  1 3.950000e-01    2.700000e+00
   P3r TN6dr  1 3.950000e-01    2.500000e+00
   P3r TN5dr  1 3.950000e-01    2.310000e+00
   P3r TN4dr  1 3.950000e-01    2.310000e+00
   P3r TN3dr  1 3.950000e-01    2.110000e+00
   P3r TN2dr  1 3.950000e-01    2.110000e+00
   P3r TN1dr  1 3.950000e-01    1.850000e+00
   P3r TP3ar  1 3.950000e-01    2.940000e+00
   P3r TP2ar  1 3.950000e-01    2.940000e+00
   P3r TP1ar  1 3.950000e-01    2.700000e+00
   P3r TN6ar  1 3.950000e-01    2.500000e+00
   P3r TN5ar  1 3.950000e-01    2.310000e+00
   P3r TN4ar  1 3.950000e-01    2.310000e+00
   P3r TN3ar  1 3.950000e-01    2.110000e+00
   P3r TN2ar  1 3.950000e-01    2.110000e+00
   P3r TN1ar  1 3.950000e-01    1.850000e+00
   P2r  TP1r  1 3.950000e-01    2.700000e+00
   P2r  TN6r  1 3.950000e-01    2.700000e+00
   P2r  TN5r  1 3.950000e-01    2.500000e+00
   P2r  TN4r  1 3.950000e-01    2.310000e+00
   P2r  TN3r  1 3.950000e-01    2.110000e+00
   P2r  TN2r  1 3.950000e-01    2.110000e+00
   P2r  TN1r  1 3.950000e-01    2.110000e+00
   P2r TP2dr  1 3.950000e-01    2.940000e+00
   P2r TP1dr  1 3.950000e-01    2.700000e+00
   P2r TN6dr  1 3.950000e-01    2.700000e+00
   P2r TN5dr  1 3.950000e-01    2.500000e+00
   P2r TN4dr  1 3.950000e-01    2.310000e+00
   P2r TN3dr  1 3.950000e-01    2.110000e+00
   P2r TN2dr  1 3.950000e-01    2.110000e+00
   P2r TN1dr  1 3.950000e-01    2.110000e+00
   P2r TP2ar  1 3.950000e-01    2.940000e+00
   P2r TP1ar  1 3.950000e-01    2.700000e+00
   P2r TN6ar  1 3.950000e-01    2.700000e+00
   P2r TN5ar  1 3.950000e-01    2.500000e+00
   P2r TN4ar  1 3.950000e-01    2.310000e+00
   P2r TN3ar  1 3.950000e-01    2.110000e+00
   P2r TN2ar  1 3.950000e-01    2.110000e+00
   P2r TN1ar  1 3.950000e-01    2.110000e+00
   P1r  TN6r  1 3.950000e-01    2.700000e+00
   P1r  TN5r  1 3.950000e-01    2.500000e+00
   P1r  TN4r  1 3.950000e-01    2.500000e+00
   P1r  TN3r  1 3.950000e-01    2.110000e+00
   P1r  TN2r  1 3.950000e-01    2.110000e+00
   P1r  TN1r  1 3.950000e-01    2.110000e+00
   P1r TP1dr  1 3.950000e-01    2.700000e+00
   P1r TN6dr  1 3.950000e-01    2.700000e+00
   P1r TN5dr  1 3.950000e-01    2.500000e+00
   P1r TN4dr  1 3.950000e-01    2.500000e+00
   P1r TN3dr  1 3.950000e-01    2.110000e+00
   P1r TN2dr  1 3.950000e-01    2.110000e+00
   P1r TN1dr  1 3.950000e-01    2.110000e+00
   P1r TP1ar  1 3.950000e-01    2.700000e+00
   P1r TN6ar  1 3.950000e-01    2.700000e+00
   P1r TN5ar  1 3.950000e-01    2.500000e+00
   P1r TN4ar  1 3.950000e-01    2.500000e+00
   P1r TN3ar  1 3.950000e-01    2.110000e+00
   P1r TN2ar  1 3.950000e-01    2.110000e+00
   P1r TN1ar  1 3.950000e-01    2.110000e+00
   N6r  TN5r  1 3.950000e-01    2.700000e+00
   N6r  TN4r  1 3.950000e-01    2.700000e+00
   N6r  TN3r  1 3.950000e-01    2.310000e+00
   N6r  TN2r  1 3.950000e-01    2.110000e+00
   N6r  TN1r  1 3.950000e-01    2.110000e+00
   N6r TN6dr  1 3.950000e-01    2.700000e+00
   N6r TN5dr  1 3.950000e-01    2.700000e+00
   N6r TN4dr  1 3.950000e-01    2.700000e+00
   N6r TN3dr  1 3.950000e-01    2.310000e+00
   N6r TN2dr  1 3.950000e-01    2.110000e+00
   N6r TN1dr  1 3.950000e-01    2.110000e+00
   N6r TN6ar  1 3.950000e-01    2.700000e+00
   N6r TN5ar  1 3.950000e-01    2.700000e+00
   N6r TN4ar  1 3.950000e-01    2.700000e+00
   N6r TN3ar  1 3.950000e-01    2.310000e+00
   N6r TN2ar  1 3.950000e-01    2.110000e+00
   N6r TN1ar  1 3.950000e-01    2.110000e+00
   N5r  TN4r  1 3.950000e-01    2.500000e+00
   N5r  TN3r  1 3.950000e-01    2.310000e+00
   N5r  TN2r  1 3.950000e-01    2.310000e+00
   N5r  TN1r  1 3.950000e-01    2.110000e+00
   N5r TN5dr  1 3.950000e-01    2.500000e+00
   N5r TN4dr  1 3.950000e-01    2.500000e+00
   N5r TN3dr  1 3.950000e-01    2.310000e+00
   N5r TN2dr  1 3.950000e-01    2.310000e+00
   N5r TN1dr  1 3.950000e-01    2.110000e+00
   N5r TN5ar  1 3.950000e-01    2.500000e+00
   N5r TN4ar  1 3.950000e-01    2.500000e+00
   N5r TN3ar  1 3.950000e-01    2.310000e+00
   N5r TN2ar  1 3.950000e-01    2.310000e+00
   N5r TN1ar  1 3.950000e-01    2.110000e+00
   N4r  TN3r  1 3.950000e-01    2.310000e+00
   N4r  TN2r  1 3.950000e-01    2.310000e+00
   N4r  TN1r  1 3.950000e-01    2.110000e+00
   N4r TN4dr  1 3.950000e-01    2.500000e+00
   N4r TN3dr  1 3.950000e-01    2.310000e+00
   N4r TN2dr  1 3.950000e-01    2.310000e+00
   N4r TN1dr  1 3.950000e-01    2.110000e+00
   N4r TN4ar  1 3.950000e-01    2.500000e+00
   N4r TN3ar  1 3.950000e-01    2.310000e+00
   N4r TN2ar  1 3.950000e-01    2.310000e+00
   N4r TN1ar  1 3.950000e-01    2.110000e+00
   N3r  TN2r  1 3.950000e-01    2.310000e+00
   N3r  TN1r  1 3.950000e-01    2.110000e+00
   N3r TN3dr  1 3.950000e-01    2.310000e+00
   N3r TN2dr  1 3.950000e-01    2.310000e+00
   N3r TN1dr  1 3.950000e-01    2.110000e+00
   N3r TN3ar  1 3.950000e-01    2.310000e+00
   N3r TN2ar  1 3.950000e-01    2.310000e+00
   N3r TN1ar  1 3.950000e-01    2.110000e+00
   N2r  TN1r  1 3.950000e-01    2.110000e+00
   N2r TN2dr  1 3.950000e-01    2.310000e+00
   N2r TN1dr  1 3.950000e-01    2.110000e+00
   N2r TN2ar  1 3.950000e-01    2.310000e+00
   N2r TN1ar  1 3.950000e-01    2.110000e+00
   N1r TN1dr  1 3.950000e-01    2.310000e+00
   N1r TN1ar  1 3.950000e-01    2.310000e+00
  P6dr  TP5r  1 3.950000e-01    3.670000e+00
  P6dr  TP4r  1 3.950000e-01    3.430000e+00
  P6dr  TP3r  1 3.950000e-01    3.190000e+00
  P6dr  TP2r  1 3.950000e-01    3.190000e+00
  P6dr  TP1r  1 3.950000e-01    2.940000e+00
  P6dr  TN6r  1 3.950000e-01    2.700000e+00
  P6dr  TN5r  1 3.950000e-01    2.310000e+00
  P6dr  TN4r  1 3.950000e-01    2.110000e+00
  P6dr  TN3r  1 3.950000e-01    1.850000e+00
  P6dr  TN2r  1 3.950000e-01    1.670000e+00
  P6dr  TN1r  1 3.980000e-01    1.450000e+00
  P6dr TP5dr  1 3.950000e-01    3.430000e+00
  P6dr TP4dr  1 3.950000e-01    3.190000e+00
  P6dr TP3dr  1 3.950000e-01    2.940000e+00
  P6dr TP2dr  1 3.950000e-01    2.940000e+00
  P6dr TP1dr  1 3.950000e-01    2.700000e+00
  P6dr TN6dr  1 3.950000e-01    2.500000e+00
  P6dr TN5dr  1 3.950000e-01    2.110000e+00
  P6dr TN4dr  1 3.950000e-01    1.850000e+00
  P6dr TN3dr  1 3.950000e-01    1.850000e+00
  P6dr TN2dr  1 3.950000e-01    1.670000e+00
  P6dr TN1dr  1 3.980000e-01    1.450000e+00
  P6dr TP6ar  1 3.950000e-01    4.230000e+00
  P6dr TP5ar  1 3.950000e-01    3.910000e+00
  P6dr TP4ar  1 3.950000e-01    3.670000e+00
  P6dr TP3ar  1 3.950000e-01    3.430000e+00
  P6dr TP2ar  1 3.950000e-01    3.430000e+00
  P6dr TP1ar  1 3.950000e-01    3.190000e+00
  P6dr TN6ar  1 3.950000e-01    2.940000e+00
  P6dr TN5ar  1 3.950000e-01    2.500000e+00
  P6dr TN4ar  1 3.950000e-01    2.310000e+00
  P6dr TN3ar  1 3.950000e-01    1.850000e+00
  P6dr TN2ar  1 3.950000e-01    1.670000e+00
  P6dr TN1ar  1 3.980000e-01    1.450000e+00
  P5dr  TP4r  1 3.950000e-01    3.190000e+00
  P5dr  TP3r  1 3.950000e-01    2.940000e+00
  P5dr  TP2r  1 3.950000e-01    2.940000e+00
  P5dr  TP1r  1 3.950000e-01    2.700000e+00
  P5dr  TN6r  1 3.950000e-01    2.500000e+00
  P5dr  TN5r  1 3.950000e-01    2.310000e+00
  P5dr  TN4r  1 3.950000e-01    2.310000e+00
  P5dr  TN3r  1 3.950000e-01    1.850000e+00
  P5dr  TN2r  1 3.950000e-01    1.670000e+00
  P5dr  TN1r  1 3.980000e-01    1.450000e+00
  P5dr TP4dr  1 3.950000e-01    2.940000e+00
  P5dr TP3dr  1 3.950000e-01    2.700000e+00
  P5dr TP2dr  1 3.950000e-01    2.700000e+00
  P5dr TP1dr  1 3.950000e-01    2.500000e+00
  P5dr TN6dr  1 3.950000e-01    2.310000e+00
  P5dr TN5dr  1 3.950000e-01    2.110000e+00
  P5dr TN4dr  1 3.950000e-01    2.110000e+00
  P5dr TN3dr  1 3.950000e-01    1.850000e+00
  P5dr TN2dr  1 3.950000e-01    1.670000e+00
  P5dr TN1dr  1 3.980000e-01    1.450000e+00
  P5dr TP5ar  1 3.950000e-01    3.670000e+00
  P5dr TP4ar  1 3.950000e-01    3.430000e+00
  P5dr TP3ar  1 3.950000e-01    3.190000e+00
  P5dr TP2ar  1 3.950000e-01    3.190000e+00
  P5dr TP1ar  1 3.950000e-01    2.940000e+00
  P5dr TN6ar  1 3.950000e-01    2.700000e+00
  P5dr TN5ar  1 3.950000e-01    2.500000e+00
  P5dr TN4ar  1 3.950000e-01    2.500000e+00
  P5dr TN3ar  1 3.950000e-01    1.850000e+00
  P5dr TN2ar  1 3.950000e-01    1.670000e+00
  P5dr TN1ar  1 3.980000e-01    1.450000e+00
  P4dr  TP3r  1 3.950000e-01    2.940000e+00
  P4dr  TP2r  1 3.950000e-01    2.940000e+00
  P4dr  TP1r  1 3.950000e-01    2.700000e+00
  P4dr  TN6r  1 3.950000e-01    2.500000e+00
  P4dr  TN5r  1 3.950000e-01    2.310000e+00
  P4dr  TN4r  1 3.950000e-01    2.310000e+00
  P4dr  TN3r  1 3.950000e-01    2.110000e+00
  P4dr  TN2r  1 3.950000e-01    1.850000e+00
  P4dr  TN1r  1 3.950000e-01    1.670000e+00
  P4dr TP3dr  1 3.950000e-01    2.700000e+00
  P4dr TP2dr  1 3.950000e-01    2.700000e+00
  P4dr TP1dr  1 3.950000e-01    2.500000e+00
  P4dr TN6dr  1 3.950000e-01    2.310000e+00
  P4dr TN5dr  1 3.950000e-01    2.110000e+00
  P4dr TN4dr  1 3.950000e-01    2.110000e+00
  P4dr TN3dr  1 3.950000e-01    1.850000e+00
  P4dr TN2dr  1 3.950000e-01    1.850000e+00
  P4dr TN1dr  1 3.950000e-01    1.670000e+00
  P4dr TP4ar  1 3.950000e-01    3.430000e+00
  P4dr TP3ar  1 3.950000e-01    3.190000e+00
  P4dr TP2ar  1 3.950000e-01    3.190000e+00
  P4dr TP1ar  1 3.950000e-01    2.940000e+00
  P4dr TN6ar  1 3.950000e-01    2.700000e+00
  P4dr TN5ar  1 3.950000e-01    2.500000e+00
  P4dr TN4ar  1 3.950000e-01    2.500000e+00
  P4dr TN3ar  1 3.950000e-01    2.310000e+00
  P4dr TN2ar  1 3.950000e-01    1.850000e+00
  P4dr TN1ar  1 3.950000e-01    1.670000e+00
  P3dr  TP2r  1 3.950000e-01    2.940000e+00
  P3dr  TP1r  1 3.950000e-01    2.700000e+00
  P3dr  TN6r  1 3.950000e-01    2.500000e+00
  P3dr  TN5r  1 3.950000e-01    2.310000e+00
  P3dr  TN4r  1 3.950000e-01    2.310000e+00
  P3dr  TN3r  1 3.950000e-01    2.110000e+00
  P3dr  TN2r  1 3.950000e-01    2.110000e+00
  P3dr  TN1r  1 3.950000e-01    1.850000e+00
  P3dr TP2dr  1 3.950000e-01    2.700000e+00
  P3dr TP1dr  1 3.950000e-01    2.500000e+00
  P3dr TN6dr  1 3.950000e-01    2.310000e+00
  P3dr TN5dr  1 3.950000e-01    2.110000e+00
  P3dr TN4dr  1 3.950000e-01    2.110000e+00
  P3dr TN3dr  1 3.950000e-01    1.850000e+00
  P3dr TN2dr  1 3.950000e-01    1.850000e+00
  P3dr TN1dr  1 3.950000e-01    1.850000e+00
  P3dr TP3ar  1 3.950000e-01    3.190000e+00
  P3dr TP2ar  1 3.950000e-01    3.190000e+00
  P3dr TP1ar  1 3.950000e-01    2.940000e+00
  P3dr TN6ar  1 3.950000e-01    2.700000e+00
  P3dr TN5ar  1 3.950000e-01    2.500000e+00
  P3dr TN4ar  1 3.950000e-01    2.500000e+00
  P3dr TN3ar  1 3.950000e-01    2.310000e+00
  P3dr TN2ar  1 3.950000e-01    2.310000e+00
  P3dr TN1ar  1 3.950000e-01    1.850000e+00
  P2dr  TP1r  1 3.950000e-01    2.700000e+00
  P2dr  TN6r  1 3.950000e-01    2.700000e+00
  P2dr  TN5r  1 3.950000e-01    2.500000e+00
  P2dr  TN4r  1 3.950000e-01    2.310000e+00
  P2dr  TN3r  1 3.950000e-01    2.110000e+00
  P2dr  TN2r  1 3.950000e-01    2.110000e+00
  P2dr  TN1r  1 3.950000e-01    2.110000e+00
  P2dr TP1dr  1 3.950000e-01    2.500000e+00
  P2dr TN6dr  1 3.950000e-01    2.500000e+00
  P2dr TN5dr  1 3.950000e-01    2.310000e+00
  P2dr TN4dr  1 3.950000e-01    2.110000e+00
  P2dr TN3dr  1 3.950000e-01    1.850000e+00
  P2dr TN2dr  1 3.950000e-01    1.850000e+00
  P2dr TN1dr  1 3.950000e-01    1.850000e+00
  P2dr TP2ar  1 3.950000e-01    3.190000e+00
  P2dr TP1ar  1 3.950000e-01    2.940000e+00
  P2dr TN6ar  1 3.950000e-01    2.940000e+00
  P2dr TN5ar  1 3.950000e-01    2.700000e+00
  P2dr TN4ar  1 3.950000e-01    2.500000e+00
  P2dr TN3ar  1 3.950000e-01    2.310000e+00
  P2dr TN2ar  1 3.950000e-01    2.310000e+00
  P2dr TN1ar  1 3.950000e-01    2.310000e+00
  P1dr  TN6r  1 3.950000e-01    2.700000e+00
  P1dr  TN5r  1 3.950000e-01    2.500000e+00
  P1dr  TN4r  1 3.950000e-01    2.500000e+00
  P1dr  TN3r  1 3.950000e-01    2.110000e+00
  P1dr  TN2r  1 3.950000e-01    2.110000e+00
  P1dr  TN1r  1 3.950000e-01    2.110000e+00
  P1dr TN6dr  1 3.950000e-01    2.500000e+00
  P1dr TN5dr  1 3.950000e-01    2.310000e+00
  P1dr TN4dr  1 3.950000e-01    2.310000e+00
  P1dr TN3dr  1 3.950000e-01    1.850000e+00
  P1dr TN2dr  1 3.950000e-01    1.850000e+00
  P1dr TN1dr  1 3.950000e-01    1.850000e+00
  P1dr TP1ar  1 3.950000e-01    2.940000e+00
  P1dr TN6ar  1 3.950000e-01    2.940000e+00
  P1dr TN5ar  1 3.950000e-01    2.700000e+00
  P1dr TN4ar  1 3.950000e-01    2.700000e+00
  P1dr TN3ar  1 3.950000e-01    2.310000e+00
  P1dr TN2ar  1 3.950000e-01    2.310000e+00
  P1dr TN1ar  1 3.950000e-01    2.310000e+00
  N6dr  TN5r  1 3.950000e-01    2.700000e+00
  N6dr  TN4r  1 3.950000e-01    2.700000e+00
  N6dr  TN3r  1 3.950000e-01    2.310000e+00
  N6dr  TN2r  1 3.950000e-01    2.110000e+00
  N6dr  TN1r  1 3.950000e-01    2.110000e+00
  N6dr TN5dr  1 3.950000e-01    2.500000e+00
  N6dr TN4dr  1 3.950000e-01    2.500000e+00
  N6dr TN3dr  1 3.950000e-01    2.110000e+00
  N6dr TN2dr  1 3.950000e-01    1.850000e+00
  N6dr TN1dr  1 3.950000e-01    1.850000e+00
  N6dr TN6ar  1 3.950000e-01    2.940000e+00
  N6dr TN5ar  1 3.950000e-01    2.940000e+00
  N6dr TN4ar  1 3.950000e-01    2.940000e+00
  N6dr TN3ar  1 3.950000e-01    2.500000e+00
  N6dr TN2ar  1 3.950000e-01    2.310000e+00
  N6dr TN1ar  1 3.950000e-01    2.310000e+00
  N5dr  TN4r  1 3.950000e-01    2.500000e+00
  N5dr  TN3r  1 3.950000e-01    2.310000e+00
  N5dr  TN2r  1 3.950000e-01    2.310000e+00
  N5dr  TN1r  1 3.950000e-01    2.110000e+00
  N5dr TN4dr  1 3.950000e-01    2.310000e+00
  N5dr TN3dr  1 3.950000e-01    2.110000e+00
  N5dr TN2dr  1 3.950000e-01    2.110000e+00
  N5dr TN1dr  1 3.950000e-01    1.850000e+00
  N5dr TN5ar  1 3.950000e-01    2.700000e+00
  N5dr TN4ar  1 3.950000e-01    2.700000e+00
  N5dr TN3ar  1 3.950000e-01    2.500000e+00
  N5dr TN2ar  1 3.950000e-01    2.500000e+00
  N5dr TN1ar  1 3.950000e-01    2.310000e+00
  N4dr  TN3r  1 3.950000e-01    2.310000e+00
  N4dr  TN2r  1 3.950000e-01    2.310000e+00
  N4dr  TN1r  1 3.950000e-01    2.110000e+00
  N4dr TN3dr  1 3.950000e-01    2.110000e+00
  N4dr TN2dr  1 3.950000e-01    2.110000e+00
  N4dr TN1dr  1 3.950000e-01    1.850000e+00
  N4dr TN4ar  1 3.950000e-01    2.700000e+00
  N4dr TN3ar  1 3.950000e-01    2.500000e+00
  N4dr TN2ar  1 3.950000e-01    2.500000e+00
  N4dr TN1ar  1 3.950000e-01    2.310000e+00
  N3dr  TN2r  1 3.950000e-01    2.310000e+00
  N3dr  TN1r  1 3.950000e-01    2.110000e+00
  N3dr TN2dr  1 3.950000e-01    2.110000e+00
  N3dr TN1dr  1 3.950000e-01    1.850000e+00
  N3dr TN3ar  1 3.950000e-01    2.500000e+00
  N3dr TN2ar  1 3.950000e-01    2.500000e+00
  N3dr TN1ar  1 3.950000e-01    2.310000e+00
  N2dr  TN1r  1 3.950000e-01    2.110000e+00
  N2dr TN1dr  1 3.950000e-01    1.850000e+00
  N2dr TN2ar  1 3.950000e-01    2.500000e+00
  N2dr TN1ar  1 3.950000e-01    2.310000e+00
  N1dr TN1ar  1 3.950000e-01    2.500000e+00
  P6ar  TP5r  1 3.950000e-01    3.670000e+00
  P6ar  TP4r  1 3.950000e-01    3.430000e+00
  P6ar  TP3r  1 3.950000e-01    3.190000e+00
  P6ar  TP2r  1 3.950000e-01    3.190000e+00
  P6ar  TP1r  1 3.950000e-01    2.940000e+00
  P6ar  TN6r  1 3.950000e-01    2.700000e+00
  P6ar  TN5r  1 3.950000e-01    2.310000e+00
  P6ar  TN4r  1 3.950000e-01    2.110000e+00
  P6ar  TN3r  1 3.950000e-01    1.850000e+00
  P6ar  TN2r  1 3.950000e-01    1.670000e+00
  P6ar  TN1r  1 3.980000e-01    1.450000e+00
  P6ar TP5dr  1 3.950000e-01    3.910000e+00
  P6ar TP4dr  1 3.950000e-01    3.670000e+00
  P6ar TP3dr  1 3.950000e-01    3.430000e+00
  P6ar TP2dr  1 3.950000e-01    3.430000e+00
  P6ar TP1dr  1 3.950000e-01    3.190000e+00
  P6ar TN6dr  1 3.950000e-01    2.940000e+00
  P6ar TN5dr  1 3.950000e-01    2.500000e+00
  P6ar TN4dr  1 3.950000e-01    2.310000e+00
  P6ar TN3dr  1 3.950000e-01    1.850000e+00
  P6ar TN2dr  1 3.950000e-01    1.670000e+00
  P6ar TN1dr  1 3.980000e-01    1.450000e+00
  P6ar TP5ar  1 3.950000e-01    3.430000e+00
  P6ar TP4ar  1 3.950000e-01    3.190000e+00
  P6ar TP3ar  1 3.950000e-01    2.940000e+00
  P6ar TP2ar  1 3.950000e-01    2.940000e+00
  P6ar TP1ar  1 3.950000e-01    2.700000e+00
  P6ar TN6ar  1 3.950000e-01    2.500000e+00
  P6ar TN5ar  1 3.950000e-01    2.110000e+00
  P6ar TN4ar  1 3.950000e-01    1.850000e+00
  P6ar TN3ar  1 3.950000e-01    1.850000e+00
  P6ar TN2ar  1 3.950000e-01    1.670000e+00
  P6ar TN1ar  1 3.980000e-01    1.450000e+00
  P5ar  TP4r  1 3.950000e-01    3.190000e+00
  P5ar  TP3r  1 3.950000e-01    2.940000e+00
  P5ar  TP2r  1 3.950000e-01    2.940000e+00
  P5ar  TP1r  1 3.950000e-01    2.700000e+00
  P5ar  TN6r  1 3.950000e-01    2.500000e+00
  P5ar  TN5r  1 3.950000e-01    2.310000e+00
  P5ar  TN4r  1 3.950000e-01    2.310000e+00
  P5ar  TN3r  1 3.950000e-01    1.850000e+00
  P5ar  TN2r  1 3.950000e-01    1.670000e+00
  P5ar  TN1r  1 3.980000e-01    1.450000e+00
  P5ar TP4dr  1 3.950000e-01    3.430000e+00
  P5ar TP3dr  1 3.950000e-01    3.190000e+00
  P5ar TP2dr  1 3.950000e-01    3.190000e+00
  P5ar TP1dr  1 3.950000e-01    2.940000e+00
  P5ar TN6dr  1 3.950000e-01    2.700000e+00
  P5ar TN5dr  1 3.950000e-01    2.500000e+00
  P5ar TN4dr  1 3.950000e-01    2.500000e+00
  P5ar TN3dr  1 3.950000e-01    1.850000e+00
  P5ar TN2dr  1 3.950000e-01    1.670000e+00
  P5ar TN1dr  1 3.980000e-01    1.450000e+00
  P5ar TP4ar  1 3.950000e-01    2.940000e+00
  P5ar TP3ar  1 3.950000e-01    2.700000e+00
  P5ar TP2ar  1 3.950000e-01    2.700000e+00
  P5ar TP1ar  1 3.950000e-01    2.500000e+00
  P5ar TN6ar  1 3.950000e-01    2.310000e+00
  P5ar TN5ar  1 3.950000e-01    2.110000e+00
  P5ar TN4ar  1 3.950000e-01    2.110000e+00
  P5ar TN3ar  1 3.950000e-01    1.850000e+00
  P5ar TN2ar  1 3.950000e-01    1.670000e+00
  P5ar TN1ar  1 3.980000e-01    1.450000e+00
  P4ar  TP3r  1 3.950000e-01    2.940000e+00
  P4ar  TP2r  1 3.950000e-01    2.940000e+00
  P4ar  TP1r  1 3.950000e-01    2.700000e+00
  P4ar  TN6r  1 3.950000e-01    2.500000e+00
  P4ar  TN5r  1 3.950000e-01    2.310000e+00
  P4ar  TN4r  1 3.950000e-01    2.310000e+00
  P4ar  TN3r  1 3.950000e-01    2.110000e+00
  P4ar  TN2r  1 3.950000e-01    1.850000e+00
  P4ar  TN1r  1 3.950000e-01    1.670000e+00
  P4ar TP3dr  1 3.950000e-01    3.190000e+00
  P4ar TP2dr  1 3.950000e-01    3.190000e+00
  P4ar TP1dr  1 3.950000e-01    2.940000e+00
  P4ar TN6dr  1 3.950000e-01    2.700000e+00
  P4ar TN5dr  1 3.950000e-01    2.500000e+00
  P4ar TN4dr  1 3.950000e-01    2.500000e+00
  P4ar TN3dr  1 3.950000e-01    2.310000e+00
  P4ar TN2dr  1 3.950000e-01    1.850000e+00
  P4ar TN1dr  1 3.950000e-01    1.670000e+00
  P4ar TP3ar  1 3.950000e-01    2.700000e+00
  P4ar TP2ar  1 3.950000e-01    2.700000e+00
  P4ar TP1ar  1 3.950000e-01    2.500000e+00
  P4ar TN6ar  1 3.950000e-01    2.310000e+00
  P4ar TN5ar  1 3.950000e-01    2.110000e+00
  P4ar TN4ar  1 3.950000e-01    2.110000e+00
  P4ar TN3ar  1 3.950000e-01    1.850000e+00
  P4ar TN2ar  1 3.950000e-01    1.850000e+00
  P4ar TN1ar  1 3.950000e-01    1.670000e+00
  P3ar  TP2r  1 3.950000e-01    2.940000e+00
  P3ar  TP1r  1 3.950000e-01    2.700000e+00
  P3ar  TN6r  1 3.950000e-01    2.500000e+00
  P3ar  TN5r  1 3.950000e-01    2.310000e+00
  P3ar  TN4r  1 3.950000e-01    2.310000e+00
  P3ar  TN3r  1 3.950000e-01    2.110000e+00
  P3ar  TN2r  1 3.950000e-01    2.110000e+00
  P3ar  TN1r  1 3.950000e-01    1.850000e+00
  P3ar TP2dr  1 3.950000e-01    3.190000e+00
  P3ar TP1dr  1 3.950000e-01    2.940000e+00
  P3ar TN6dr  1 3.950000e-01    2.700000e+00
  P3ar TN5dr  1 3.950000e-01    2.500000e+00
  P3ar TN4dr  1 3.950000e-01    2.500000e+00
  P3ar TN3dr  1 3.950000e-01    2.310000e+00
  P3ar TN2dr  1 3.950000e-01    2.310000e+00
  P3ar TN1dr  1 3.950000e-01    1.850000e+00
  P3ar TP2ar  1 3.950000e-01    2.700000e+00
  P3ar TP1ar  1 3.950000e-01    2.500000e+00
  P3ar TN6ar  1 3.950000e-01    2.310000e+00
  P3ar TN5ar  1 3.950000e-01    2.110000e+00
  P3ar TN4ar  1 3.950000e-01    2.110000e+00
  P3ar TN3ar  1 3.950000e-01    1.850000e+00
  P3ar TN2ar  1 3.950000e-01    1.850000e+00
  P3ar TN1ar  1 3.950000e-01    1.850000e+00
  P2ar  TP1r  1 3.950000e-01    2.700000e+00
  P2ar  TN6r  1 3.950000e-01    2.700000e+00
  P2ar  TN5r  1 3.950000e-01    2.500000e+00
  P2ar  TN4r  1 3.950000e-01    2.310000e+00
  P2ar  TN3r  1 3.950000e-01    2.110000e+00
  P2ar  TN2r  1 3.950000e-01    2.110000e+00
  P2ar  TN1r  1 3.950000e-01    2.110000e+00
  P2ar TP1dr  1 3.950000e-01    2.940000e+00
  P2ar TN6dr  1 3.950000e-01    2.940000e+00
  P2ar TN5dr  1 3.950000e-01    2.700000e+00
  P2ar TN4dr  1 3.950000e-01    2.500000e+00
  P2ar TN3dr  1 3.950000e-01    2.310000e+00
  P2ar TN2dr  1 3.950000e-01    2.310000e+00
  P2ar TN1dr  1 3.950000e-01    2.310000e+00
  P2ar TP1ar  1 3.950000e-01    2.500000e+00
  P2ar TN6ar  1 3.950000e-01    2.500000e+00
  P2ar TN5ar  1 3.950000e-01    2.310000e+00
  P2ar TN4ar  1 3.950000e-01    2.110000e+00
  P2ar TN3ar  1 3.950000e-01    1.850000e+00
  P2ar TN2ar  1 3.950000e-01    1.850000e+00
  P2ar TN1ar  1 3.950000e-01    1.850000e+00
  P1ar  TN6r  1 3.950000e-01    2.700000e+00
  P1ar  TN5r  1 3.950000e-01    2.500000e+00
  P1ar  TN4r  1 3.950000e-01    2.500000e+00
  P1ar  TN3r  1 3.950000e-01    2.110000e+00
  P1ar  TN2r  1 3.950000e-01    2.110000e+00
  P1ar  TN1r  1 3.950000e-01    2.110000e+00
  P1ar TN6dr  1 3.950000e-01    2.940000e+00
  P1ar TN5dr  1 3.950000e-01    2.700000e+00
  P1ar TN4dr  1 3.950000e-01    2.700000e+00
  P1ar TN3dr  1 3.950000e-01    2.310000e+00
  P1ar TN2dr  1 3.950000e-01    2.310000e+00
  P1ar TN1dr  1 3.950000e-01    2.310000e+00
  P1ar TN6ar  1 3.950000e-01    2.500000e+00
  P1ar TN5ar  1 3.950000e-01    2.310000e+00
  P1ar TN4ar  1 3.950000e-01    2.310000e+00
  P1ar TN3ar  1 3.950000e-01    1.850000e+00
  P1ar TN2ar  1 3.950000e-01    1.850000e+00
  P1ar TN1ar  1 3.950000e-01    1.850000e+00
  N6ar  TN5r  1 3.950000e-01    2.700000e+00
  N6ar  TN4r  1 3.950000e-01    2.700000e+00
  N6ar  TN3r  1 3.950000e-01    2.310000e+00
  N6ar  TN2r  1 3.950000e-01    2.110000e+00
  N6ar  TN1r  1 3.950000e-01    2.110000e+00
  N6ar TN5dr  1 3.950000e-01    2.940000e+00
  N6ar TN4dr  1 3.950000e-01    2.940000e+00
  N6ar TN3dr  1 3.950000e-01    2.500000e+00
  N6ar TN2dr  1 3.950000e-01    2.310000e+00
  N6ar TN1dr  1 3.950000e-01    2.310000e+00
  N6ar TN5ar  1 3.950000e-01    2.500000e+00
  N6ar TN4ar  1 3.950000e-01    2.500000e+00
  N6ar TN3ar  1 3.950000e-01    2.110000e+00
  N6ar TN2ar  1 3.950000e-01    1.850000e+00
  N6ar TN1ar  1 3.950000e-01    1.850000e+00
  N5ar  TN4r  1 3.950000e-01    2.500000e+00
  N5ar  TN3r  1 3.950000e-01    2.310000e+00
  N5ar  TN2r  1 3.950000e-01    2.310000e+00
  N5ar  TN1r  1 3.950000e-01    2.110000e+00
  N5ar TN4dr  1 3.950000e-01    2.700000e+00
  N5ar TN3dr  1 3.950000e-01    2.500000e+00
  N5ar TN2dr  1 3.950000e-01    2.500000e+00
  N5ar TN1dr  1 3.950000e-01    2.310000e+00
  N5ar TN4ar  1 3.950000e-01    2.310000e+00
  N5ar TN3ar  1 3.950000e-01    2.110000e+00
  N5ar TN2ar  1 3.950000e-01    2.110000e+00
  N5ar TN1ar  1 3.950000e-01    1.850000e+00
  N4ar  TN3r  1 3.950000e-01    2.310000e+00
  N4ar  TN2r  1 3.950000e-01    2.310000e+00
  N4ar  TN1r  1 3.950000e-01    2.110000e+00
  N4ar TN3dr  1 3.950000e-01    2.500000e+00
  N4ar TN2dr  1 3.950000e-01    2.500000e+00
  N4ar TN1dr  1 3.950000e-01    2.310000e+00
  N4ar TN3ar  1 3.950000e-01    2.110000e+00
  N4ar TN2ar  1 3.950000e-01    2.110000e+00
  N4ar TN1ar  1 3.950000e-01    1.850000e+00
  N3ar  TN2r  1 3.950000e-01    2.310000e+00
  N3ar  TN1r  1 3.950000e-01    2.110000e+00
  N3ar TN2dr  1 3.950000e-01    2.500000e+00
  N3ar TN1dr  1 3.950000e-01    2.310000e+00
  N3ar TN2ar  1 3.950000e-01    2.110000e+00
  N3ar TN1ar  1 3.950000e-01    1.850000e+00
  N2ar  TN1r  1 3.950000e-01    2.110000e+00
  N2ar TN1dr  1 3.950000e-01    2.310000e+00
  N2ar TN1ar  1 3.950000e-01    1.850000e+00
   C6r  TC6r  1 3.950000e-01    2.310000e+00
   C5r  TC5r  1 3.950000e-01    2.110000e+00
   C4r  TC4r  1 3.950000e-01    2.110000e+00
   C3r  TC3r  1 3.950000e-01    2.110000e+00
   C2r  TC2r  1 3.950000e-01    2.110000e+00
   C1r  TC1r  1 3.950000e-01    2.110000e+00
   X4r  TX4r  1 3.950000e-01    2.110000e+00
   X3r  TX3r  1 3.950000e-01    2.110000e+00
   X2r  TX2r  1 3.950000e-01    2.310000e+00
   X1r  TX1r  1 3.950000e-01    2.500000e+00
  C6vr TC6vr  1 3.950000e-01    2.110000e+00
  C5vr TC5vr  1 3.950000e-01    1.850000e+00
  C4vr TC4vr  1 3.950000e-01    1.850000e+00
  C3vr TC3vr  1 3.950000e-01    1.850000e+00
  C2vr TC2vr  1 3.950000e-01    1.850000e+00
  C1vr TC1vr  1 3.950000e-01    1.850000e+00
  X4vr TX4vr  1 3.950000e-01    1.850000e+00
  X3vr TX3vr  1 3.950000e-01    1.850000e+00
  X2vr TX2vr  1 3.950000e-01    2.110000e+00
  X1vr TX1vr  1 3.950000e-01    2.310000e+00
  C6er TC6er  1 3.950000e-01    2.110000e+00
  C5er TC5er  1 3.950000e-01    1.850000e+00
  C4er TC4er  1 3.950000e-01    1.850000e+00
  C3er TC3er  1 3.950000e-01    1.850000e+00
  C2er TC2er  1 3.950000e-01    1.850000e+00
  C1er TC1er  1 3.950000e-01    1.850000e+00
  X4er TX4er  1 3.950000e-01    1.850000e+00
  X3er TX3er  1 3.950000e-01    1.850000e+00
  X2er TX2er  1 3.950000e-01    2.110000e+00
  X1er TX1er  1 3.950000e-01    2.310000e+00
   C6r  TC5r  1 3.950000e-01    2.110000e+00
   C6r  TC4r  1 3.950000e-01    2.110000e+00
   C6r  TC3r  1 3.950000e-01    1.850000e+00
   C6r  TC2r  1 3.950000e-01    1.670000e+00
   C6r  TC1r  1 3.980000e-01    1.450000e+00
   C6r  TX4r  1 3.950000e-01    2.110000e+00
   C6r  TX3r  1 3.950000e-01    2.110000e+00
   C6r  TX2r  1 3.950000e-01    2.110000e+00
   C6r  TX1r  1 3.950000e-01    2.110000e+00
   C6r TC6vr  1 3.950000e-01    2.500000e+00
   C6r TC5vr  1 3.950000e-01    2.310000e+00
   C6r TC4vr  1 3.950000e-01    2.310000e+00
   C6r TC3vr  1 3.950000e-01    2.110000e+00
   C6r TC2vr  1 3.950000e-01    1.850000e+00
   C6r TC1vr  1 3.950000e-01    1.670000e+00
   C6r TX4vr  1 3.950000e-01    2.310000e+00
   C6r TX3vr  1 3.950000e-01    2.310000e+00
   C6r TX2vr  1 3.950000e-01    2.310000e+00
   C6r TX1vr  1 3.950000e-01    2.310000e+00
   C6r TC6er  1 3.950000e-01    2.500000e+00
   C6r TC5er  1 3.950000e-01    2.310000e+00
   C6r TC4er  1 3.950000e-01    2.310000e+00
   C6r TC3er  1 3.950000e-01    2.110000e+00
   C6r TC2er  1 3.950000e-01    1.850000e+00
   C6r TC1er  1 3.950000e-01    1.670000e+00
   C6r TX4er  1 3.950000e-01    2.310000e+00
   C6r TX3er  1 3.950000e-01    2.310000e+00
   C6r TX2er  1 3.950000e-01    2.310000e+00
   C6r TX1er  1 3.950000e-01    2.310000e+00
   C5r  TC4r  1 3.950000e-01    2.110000e+00
   C5r  TC3r  1 3.950000e-01    1.850000e+00
   C5r  TC2r  1 3.950000e-01    1.670000e+00
   C5r  TC1r  1 3.950000e-01    1.670000e+00
   C5r  TX4r  1 3.950000e-01    1.850000e+00
   C5r  TX3r  1 3.950000e-01    1.850000e+00
   C5r  TX2r  1 3.950000e-01    1.850000e+00
   C5r  TX1r  1 3.950000e-01    2.110000e+00
   C5r TC5vr  1 3.950000e-01    2.310000e+00
   C5r TC4vr  1 3.950000e-01    2.310000e+00
   C5r TC3vr  1 3.950000e-01    2.110000e+00
   C5r TC2vr  1 3.950000e-01    1.850000e+00
   C5r TC1vr  1 3.950000e-01    1.850000e+00
   C5r TX4vr  1 3.950000e-01    2.110000e+00
   C5r TX3vr  1 3.950000e-01    2.110000e+00
   C5r TX2vr  1 3.950000e-01    2.110000e+00
   C5r TX1vr  1 3.950000e-01    2.310000e+00
   C5r TC5er  1 3.950000e-01    2.310000e+00
   C5r TC4er  1 3.950000e-01    2.310000e+00
   C5r TC3er  1 3.950000e-01    2.110000e+00
   C5r TC2er  1 3.950000e-01    1.850000e+00
   C5r TC1er  1 3.950000e-01    1.850000e+00
   C5r TX4er  1 3.950000e-01    2.110000e+00
   C5r TX3er  1 3.950000e-01    2.110000e+00
   C5r TX2er  1 3.950000e-01    2.110000e+00
   C5r TX1er  1 3.950000e-01    2.310000e+00
   C4r  TC3r  1 3.950000e-01    2.110000e+00
   C4r  TC2r  1 3.950000e-01    1.850000e+00
   C4r  TC1r  1 3.950000e-01    1.670000e+00
   C4r  TX4r  1 3.950000e-01    1.850000e+00
   C4r  TX3r  1 3.950000e-01    1.850000e+00
   C4r  TX2r  1 3.950000e-01    1.850000e+00
   C4r  TX1r  1 3.950000e-01    2.110000e+00
   C4r TC4vr  1 3.950000e-01    2.310000e+00
   C4r TC3vr  1 3.950000e-01    2.310000e+00
   C4r TC2vr  1 3.950000e-01    2.110000e+00
   C4r TC1vr  1 3.950000e-01    1.850000e+00
   C4r TX4vr  1 3.950000e-01    2.110000e+00
   C4r TX3vr  1 3.950000e-01    2.110000e+00
   C4r TX2vr  1 3.950000e-01    2.110000e+00
   C4r TX1vr  1 3.950000e-01    2.310000e+00
   C4r TC4er  1 3.950000e-01    2.310000e+00
   C4r TC3er  1 3.950000e-01    2.310000e+00
   C4r TC2er  1 3.950000e-01    2.110000e+00
   C4r TC1er  1 3.950000e-01    1.850000e+00
   C4r TX4er  1 3.950000e-01    2.110000e+00
   C4r TX3er  1 3.950000e-01    2.110000e+00
   C4r TX2er  1 3.950000e-01    2.110000e+00
   C4r TX1er  1 3.950000e-01    2.310000e+00
   C3r  TC2r  1 3.950000e-01    2.110000e+00
   C3r  TC1r  1 3.950000e-01    2.110000e+00
   C3r  TX4r  1 3.950000e-01    1.850000e+00
   C3r  TX3r  1 3.950000e-01    1.850000e+00
   C3r  TX2r  1 3.950000e-01    1.850000e+00
   C3r  TX1r  1 3.950000e-01    2.110000e+00
   C3r TC3vr  1 3.950000e-01    2.310000e+00
   C3r TC2vr  1 3.950000e-01    2.310000e+00
   C3r TC1vr  1 3.950000e-01    2.310000e+00
   C3r TX4vr  1 3.950000e-01    2.110000e+00
   C3r TX3vr  1 3.950000e-01    2.110000e+00
   C3r TX2vr  1 3.950000e-01    2.110000e+00
   C3r TX1vr  1 3.950000e-01    2.310000e+00
   C3r TC3er  1 3.950000e-01    2.310000e+00
   C3r TC2er  1 3.950000e-01    2.310000e+00
   C3r TC1er  1 3.950000e-01    2.310000e+00
   C3r TX4er  1 3.950000e-01    2.110000e+00
   C3r TX3er  1 3.950000e-01    2.110000e+00
   C3r TX2er  1 3.950000e-01    2.110000e+00
   C3r TX1er  1 3.950000e-01    2.310000e+00
   C2r  TC1r  1 3.950000e-01    2.310000e+00
   C2r  TX4r  1 3.980000e-01    1.450000e+00
   C2r  TX3r  1 3.950000e-01    1.850000e+00
   C2r  TX2r  1 3.950000e-01    1.850000e+00
   C2r  TX1r  1 3.950000e-01    1.850000e+00
   C2r TC2vr  1 3.950000e-01    2.310000e+00
   C2r TC1vr  1 3.950000e-01    2.500000e+00
   C2r TX4vr  1 3.950000e-01    1.670000e+00
   C2r TX3vr  1 3.950000e-01    2.110000e+00
   C2r TX2vr  1 3.950000e-01    2.110000e+00
   C2r TX1vr  1 3.950000e-01    2.110000e+00
   C2r TC2er  1 3.950000e-01    2.310000e+00
   C2r TC1er  1 3.950000e-01    2.500000e+00
   C2r TX4er  1 3.950000e-01    1.670000e+00
   C2r TX3er  1 3.950000e-01    2.110000e+00
   C2r TX2er  1 3.950000e-01    2.110000e+00
   C2r TX1er  1 3.950000e-01    2.110000e+00
   C1r  TX4r  1 3.980000e-01    1.450000e+00
   C1r  TX3r  1 3.950000e-01    1.850000e+00
   C1r  TX2r  1 3.950000e-01    1.850000e+00
   C1r  TX1r  1 3.950000e-01    1.850000e+00
   C1r TC1vr  1 3.950000e-01    2.310000e+00
   C1r TX4vr  1 3.950000e-01    1.670000e+00
   C1r TX3vr  1 3.950000e-01    2.110000e+00
   C1r TX2vr  1 3.950000e-01    2.110000e+00
   C1r TX1vr  1 3.950000e-01    2.110000e+00
   C1r TC1er  1 3.950000e-01    2.310000e+00
   C1r TX4er  1 3.950000e-01    1.670000e+00
   C1r TX3er  1 3.950000e-01    2.110000e+00
   C1r TX2er  1 3.950000e-01    2.110000e+00
   C1r TX1er  1 3.950000e-01    2.110000e+00
   X4r  TX3r  1 3.950000e-01    2.110000e+00
   X4r  TX2r  1 3.950000e-01    2.110000e+00
   X4r  TX1r  1 3.950000e-01    2.110000e+00
   X4r TX4vr  1 3.950000e-01    2.310000e+00
   X4r TX3vr  1 3.950000e-01    2.310000e+00
   X4r TX2vr  1 3.950000e-01    2.310000e+00
   X4r TX1vr  1 3.950000e-01    2.310000e+00
   X4r TX4er  1 3.950000e-01    2.310000e+00
   X4r TX3er  1 3.950000e-01    2.310000e+00
   X4r TX2er  1 3.950000e-01    2.310000e+00
   X4r TX1er  1 3.950000e-01    2.310000e+00
   X3r  TX2r  1 3.950000e-01    2.310000e+00
   X3r  TX1r  1 3.950000e-01    2.310000e+00
   X3r TX3vr  1 3.950000e-01    2.310000e+00
   X3r TX2vr  1 3.950000e-01    2.500000e+00
   X3r TX1vr  1 3.950000e-01    2.500000e+00
   X3r TX3er  1 3.950000e-01    2.310000e+00
   X3r TX2er  1 3.950000e-01    2.500000e+00
   X3r TX1er  1 3.950000e-01    2.500000e+00
   X2r  TX1r  1 3.950000e-01    2.310000e+00
   X2r TX2vr  1 3.950000e-01    2.500000e+00
   X2r TX1vr  1 3.950000e-01    2.500000e+00
   X2r TX2er  1 3.950000e-01    2.500000e+00
   X2r TX1er  1 3.950000e-01    2.500000e+00
   X1r TX1vr  1 3.950000e-01    2.700000e+00
   X1r TX1er  1 3.950000e-01    2.700000e+00
  C6vr  TC5r  1 3.950000e-01    2.310000e+00
  C6vr  TC4r  1 3.950000e-01    2.310000e+00
  C6vr  TC3r  1 3.950000e-01    2.110000e+00
  C6vr  TC2r  1 3.950000e-01    1.850000e+00
  C6vr  TC1r  1 3.950000e-01    1.670000e+00
  C6vr  TX4r  1 3.950000e-01    2.310000e+00
  C6vr  TX3r  1 3.950000e-01    2.310000e+00
  C6vr  TX2r  1 3.950000e-01    2.310000e+00
  C6vr  TX1r  1 3.950000e-01    2.310000e+00
  C6vr TC5vr  1 3.950000e-01    1.850000e+00
  C6vr TC4vr  1 3.950000e-01    1.850000e+00
  C6vr TC3vr  1 3.950000e-01    1.670000e+00
  C6vr TC2vr  1 3.980000e-01    1.450000e+00
  C6vr TC1vr  1 3.990000e-01    1.180000e+00
  C6vr TX4vr  1 3.950000e-01    1.850000e+00
  C6vr TX3vr  1 3.950000e-01    1.850000e+00
  C6vr TX2vr  1 3.950000e-01    1.850000e+00
  C6vr TX1vr  1 3.950000e-01    1.850000e+00
  C6vr TC6er  1 3.950000e-01    2.700000e+00
  C6vr TC5er  1 3.950000e-01    2.500000e+00
  C6vr TC4er  1 3.950000e-01    2.500000e+00
  C6vr TC3er  1 3.950000e-01    2.310000e+00
  C6vr TC2er  1 3.950000e-01    2.110000e+00
  C6vr TC1er  1 3.950000e-01    1.850000e+00
  C6vr TX4er  1 3.950000e-01    2.500000e+00
  C6vr TX3er  1 3.950000e-01    2.500000e+00
  C6vr TX2er  1 3.950000e-01    2.500000e+00
  C6vr TX1er  1 3.950000e-01    2.500000e+00
  C5vr  TC4r  1 3.950000e-01    2.310000e+00
  C5vr  TC3r  1 3.950000e-01    2.110000e+00
  C5vr  TC2r  1 3.950000e-01    1.850000e+00
  C5vr  TC1r  1 3.950000e-01    1.850000e+00
  C5vr  TX4r  1 3.950000e-01    2.110000e+00
  C5vr  TX3r  1 3.950000e-01    2.110000e+00
  C5vr  TX2r  1 3.950000e-01    2.110000e+00
  C5vr  TX1r  1 3.950000e-01    2.310000e+00
  C5vr TC4vr  1 3.950000e-01    1.850000e+00
  C5vr TC3vr  1 3.950000e-01    1.670000e+00
  C5vr TC2vr  1 3.980000e-01    1.450000e+00
  C5vr TC1vr  1 3.980000e-01    1.450000e+00
  C5vr TX4vr  1 3.950000e-01    1.670000e+00
  C5vr TX3vr  1 3.950000e-01    1.670000e+00
  C5vr TX2vr  1 3.950000e-01    1.670000e+00
  C5vr TX1vr  1 3.950000e-01    1.850000e+00
  C5vr TC5er  1 3.950000e-01    2.500000e+00
  C5vr TC4er  1 3.950000e-01    2.500000e+00
  C5vr TC3er  1 3.950000e-01    2.310000e+00
  C5vr TC2er  1 3.950000e-01    2.110000e+00
  C5vr TC1er  1 3.950000e-01    2.110000e+00
  C5vr TX4er  1 3.950000e-01    2.310000e+00
  C5vr TX3er  1 3.950000e-01    2.310000e+00
  C5vr TX2er  1 3.950000e-01    2.310000e+00
  C5vr TX1er  1 3.950000e-01    2.500000e+00
  C4vr  TC3r  1 3.950000e-01    2.310000e+00
  C4vr  TC2r  1 3.950000e-01    2.110000e+00
  C4vr  TC1r  1 3.950000e-01    1.850000e+00
  C4vr  TX4r  1 3.950000e-01    2.110000e+00
  C4vr  TX3r  1 3.950000e-01    2.110000e+00
  C4vr  TX2r  1 3.950000e-01    2.110000e+00
  C4vr  TX1r  1 3.950000e-01    2.310000e+00
  C4vr TC3vr  1 3.950000e-01    1.850000e+00
  C4vr TC2vr  1 3.950000e-01    1.670000e+00
  C4vr TC1vr  1 3.980000e-01    1.450000e+00
  C4vr TX4vr  1 3.950000e-01    1.670000e+00
  C4vr TX3vr  1 3.950000e-01    1.670000e+00
  C4vr TX2vr  1 3.950000e-01    1.670000e+00
  C4vr TX1vr  1 3.950000e-01    1.850000e+00
  C4vr TC4er  1 3.950000e-01    2.500000e+00
  C4vr TC3er  1 3.950000e-01    2.500000e+00
  C4vr TC2er  1 3.950000e-01    2.310000e+00
  C4vr TC1er  1 3.950000e-01    2.110000e+00
  C4vr TX4er  1 3.950000e-01    2.310000e+00
  C4vr TX3er  1 3.950000e-01    2.310000e+00
  C4vr TX2er  1 3.950000e-01    2.310000e+00
  C4vr TX1er  1 3.950000e-01    2.500000e+00
  C3vr  TC2r  1 3.950000e-01    2.310000e+00
  C3vr  TC1r  1 3.950000e-01    2.310000e+00
  C3vr  TX4r  1 3.950000e-01    2.110000e+00
  C3vr  TX3r  1 3.950000e-01    2.110000e+00
  C3vr  TX2r  1 3.950000e-01    2.110000e+00
  C3vr  TX1r  1 3.950000e-01    2.310000e+00
  C3vr TC2vr  1 3.950000e-01    1.850000e+00
  C3vr TC1vr  1 3.950000e-01    1.850000e+00
  C3vr TX4vr  1 3.950000e-01    1.670000e+00
  C3vr TX3vr  1 3.950000e-01    1.670000e+00
  C3vr TX2vr  1 3.950000e-01    1.670000e+00
  C3vr TX1vr  1 3.950000e-01    1.850000e+00
  C3vr TC3er  1 3.950000e-01    2.500000e+00
  C3vr TC2er  1 3.950000e-01    2.500000e+00
  C3vr TC1er  1 3.950000e-01    2.500000e+00
  C3vr TX4er  1 3.950000e-01    2.310000e+00
  C3vr TX3er  1 3.950000e-01    2.310000e+00
  C3vr TX2er  1 3.950000e-01    2.310000e+00
  C3vr TX1er  1 3.950000e-01    2.500000e+00
  C2vr  TC1r  1 3.950000e-01    2.500000e+00
  C2vr  TX4r  1 3.950000e-01    1.670000e+00
  C2vr  TX3r  1 3.950000e-01    2.110000e+00
  C2vr  TX2r  1 3.950000e-01    2.110000e+00
  C2vr  TX1r  1 3.950000e-01    2.110000e+00
  C2vr TC1vr  1 3.950000e-01    2.110000e+00
  C2vr TX4vr  1 3.990000e-01    1.180000e+00
  C2vr TX3vr  1 3.950000e-01    1.670000e+00
  C2vr TX2vr  1 3.950000e-01    1.670000e+00
  C2vr TX1vr  1 3.950000e-01    1.670000e+00
  C2vr TC2er  1 3.950000e-01    2.500000e+00
  C2vr TC1er  1 3.950000e-01    2.700000e+00
  C2vr TX4er  1 3.950000e-01    1.850000e+00
  C2vr TX3er  1 3.950000e-01    2.310000e+00
  C2vr TX2er  1 3.950000e-01    2.310000e+00
  C2vr TX1er  1 3.950000e-01    2.310000e+00
  C1vr  TX4r  1 3.950000e-01    1.670000e+00
  C1vr  TX3r  1 3.950000e-01    2.110000e+00
  C1vr  TX2r  1 3.950000e-01    2.110000e+00
  C1vr  TX1r  1 3.950000e-01    2.110000e+00
  C1vr TX4vr  1 3.990000e-01    1.180000e+00
  C1vr TX3vr  1 3.950000e-01    1.670000e+00
  C1vr TX2vr  1 3.950000e-01    1.670000e+00
  C1vr TX1vr  1 3.950000e-01    1.670000e+00
  C1vr TC1er  1 3.950000e-01    2.500000e+00
  C1vr TX4er  1 3.950000e-01    1.850000e+00
  C1vr TX3er  1 3.950000e-01    2.310000e+00
  C1vr TX2er  1 3.950000e-01    2.310000e+00
  C1vr TX1er  1 3.950000e-01    2.310000e+00
  X4vr  TX3r  1 3.950000e-01    2.310000e+00
  X4vr  TX2r  1 3.950000e-01    2.310000e+00
  X4vr  TX1r  1 3.950000e-01    2.310000e+00
  X4vr TX3vr  1 3.950000e-01    1.850000e+00
  X4vr TX2vr  1 3.950000e-01    1.850000e+00
  X4vr TX1vr  1 3.950000e-01    1.850000e+00
  X4vr TX4er  1 3.950000e-01    2.500000e+00
  X4vr TX3er  1 3.950000e-01    2.500000e+00
  X4vr TX2er  1 3.950000e-01    2.500000e+00
  X4vr TX1er  1 3.950000e-01    2.500000e+00
  X3vr  TX2r  1 3.950000e-01    2.500000e+00
  X3vr  TX1r  1 3.950000e-01    2.500000e+00
  X3vr TX2vr  1 3.950000e-01    2.110000e+00
  X3vr TX1vr  1 3.950000e-01    2.110000e+00
  X3vr TX3er  1 3.950000e-01    2.500000e+00
  X3vr TX2er  1 3.950000e-01    2.700000e+00
  X3vr TX1er  1 3.950000e-01    2.700000e+00
  X2vr  TX1r  1 3.950000e-01    2.500000e+00
  X2vr TX1vr  1 3.950000e-01    2.110000e+00
  X2vr TX2er  1 3.950000e-01    2.700000e+00
  X2vr TX1er  1 3.950000e-01    2.700000e+00
  X1vr TX1er  1 3.950000e-01    2.940000e+00
  C6er  TC5r  1 3.950000e-01    2.310000e+00
  C6er  TC4r  1 3.950000e-01    2.310000e+00
  C6er  TC3r  1 3.950000e-01    2.110000e+00
  C6er  TC2r  1 3.950000e-01    1.850000e+00
  C6er  TC1r  1 3.950000e-01    1.670000e+00
  C6er  TX4r  1 3.950000e-01    2.310000e+00
  C6er  TX3r  1 3.950000e-01    2.310000e+00
  C6er  TX2r  1 3.950000e-01    2.310000e+00
  C6er  TX1r  1 3.950000e-01    2.310000e+00
  C6er TC5vr  1 3.950000e-01    2.500000e+00
  C6er TC4vr  1 3.950000e-01    2.500000e+00
  C6er TC3vr  1 3.950000e-01    2.310000e+00
  C6er TC2vr  1 3.950000e-01    2.110000e+00
  C6er TC1vr  1 3.950000e-01    1.850000e+00
  C6er TX4vr  1 3.950000e-01    2.500000e+00
  C6er TX3vr  1 3.950000e-01    2.500000e+00
  C6er TX2vr  1 3.950000e-01    2.500000e+00
  C6er TX1vr  1 3.950000e-01    2.500000e+00
  C6er TC5er  1 3.950000e-01    1.850000e+00
  C6er TC4er  1 3.950000e-01    1.850000e+00
  C6er TC3er  1 3.950000e-01    1.670000e+00
  C6er TC2er  1 3.980000e-01    1.450000e+00
  C6er TC1er  1 3.990000e-01    1.180000e+00
  C6er TX4er  1 3.950000e-01    1.850000e+00
  C6er TX3er  1 3.950000e-01    1.850000e+00
  C6er TX2er  1 3.950000e-01    1.850000e+00
  C6er TX1er  1 3.950000e-01    1.850000e+00
  C5er  TC4r  1 3.950000e-01    2.310000e+00
  C5er  TC3r  1 3.950000e-01    2.110000e+00
  C5er  TC2r  1 3.950000e-01    1.850000e+00
  C5er  TC1r  1 3.950000e-01    1.850000e+00
  C5er  TX4r  1 3.950000e-01    2.110000e+00
  C5er  TX3r  1 3.950000e-01    2.110000e+00
  C5er  TX2r  1 3.950000e-01    2.110000e+00
  C5er  TX1r  1 3.950000e-01    2.310000e+00
  C5er TC4vr  1 3.950000e-01    2.500000e+00
  C5er TC3vr  1 3.950000e-01    2.310000e+00
  C5er TC2vr  1 3.950000e-01    2.110000e+00
  C5er TC1vr  1 3.950000e-01    2.110000e+00
  C5er TX4vr  1 3.950000e-01    2.310000e+00
  C5er TX3vr  1 3.950000e-01    2.310000e+00
  C5er TX2vr  1 3.950000e-01    2.310000e+00
  C5er TX1vr  1 3.950000e-01    2.500000e+00
  C5er TC4er  1 3.950000e-01    1.850000e+00
  C5er TC3er  1 3.950000e-01    1.670000e+00
  C5er TC2er  1 3.980000e-01    1.450000e+00
  C5er TC1er  1 3.980000e-01    1.450000e+00
  C5er TX4er  1 3.950000e-01    1.670000e+00
  C5er TX3er  1 3.950000e-01    1.670000e+00
  C5er TX2er  1 3.950000e-01    1.670000e+00
  C5er TX1er  1 3.950000e-01    1.850000e+00
  C4er  TC3r  1 3.950000e-01    2.310000e+00
  C4er  TC2r  1 3.950000e-01    2.110000e+00
  C4er  TC1r  1 3.950000e-01    1.850000e+00
  C4er  TX4r  1 3.950000e-01    2.110000e+00
  C4er  TX3r  1 3.950000e-01    2.110000e+00
  C4er  TX2r  1 3.950000e-01    2.110000e+00
  C4er  TX1r  1 3.950000e-01    2.310000e+00
  C4er TC3vr  1 3.950000e-01    2.500000e+00
  C4er TC2vr  1 3.950000e-01    2.310000e+00
  C4er TC1vr  1 3.950000e-01    2.110000e+00
  C4er TX4vr  1 3.950000e-01    2.310000e+00
  C4er TX3vr  1 3.950000e-01    2.310000e+00
  C4er TX2vr  1 3.950000e-01    2.310000e+00
  C4er TX1vr  1 3.950000e-01    2.500000e+00
  C4er TC3er  1 3.950000e-01    1.850000e+00
  C4er TC2er  1 3.950000e-01    1.670000e+00
  C4er TC1er  1 3.980000e-01    1.450000e+00
  C4er TX4er  1 3.950000e-01    1.670000e+00
  C4er TX3er  1 3.950000e-01    1.670000e+00
  C4er TX2er  1 3.950000e-01    1.670000e+00
  C4er TX1er  1 3.950000e-01    1.850000e+00
  C3er  TC2r  1 3.950000e-01    2.310000e+00
  C3er  TC1r  1 3.950000e-01    2.310000e+00
  C3er  TX4r  1 3.950000e-01    2.110000e+00
  C3er  TX3r  1 3.950000e-01    2.110000e+00
  C3er  TX2r  1 3.950000e-01    2.110000e+00
  C3er  TX1r  1 3.950000e-01    2.310000e+00
  C3er TC2vr  1 3.950000e-01    2.500000e+00
  C3er TC1vr  1 3.950000e-01    2.500000e+00
  C3er TX4vr  1 3.950000e-01    2.310000e+00
  C3er TX3vr  1 3.950000e-01    2.310000e+00
  C3er TX2vr  1 3.950000e-01    2.310000e+00
  C3er TX1vr  1 3.950000e-01    2.500000e+00
  C3er TC2er  1 3.950000e-01    1.850000e+00
  C3er TC1er  1 3.950000e-01    1.850000e+00
  C3er TX4er  1 3.950000e-01    1.670000e+00
  C3er TX3er  1 3.950000e-01    1.670000e+00
  C3er TX2er  1 3.950000e-01    1.670000e+00
  C3er TX1er  1 3.950000e-01    1.850000e+00
  C2er  TC1r  1 3.950000e-01    2.500000e+00
  C2er  TX4r  1 3.950000e-01    1.670000e+00
  C2er  TX3r  1 3.950000e-01    2.110000e+00
  C2er  TX2r  1 3.950000e-01    2.110000e+00
  C2er  TX1r  1 3.950000e-01    2.110000e+00
  C2er TC1vr  1 3.950000e-01    2.700000e+00
  C2er TX4vr  1 3.950000e-01    1.850000e+00
  C2er TX3vr  1 3.950000e-01    2.310000e+00
  C2er TX2vr  1 3.950000e-01    2.310000e+00
  C2er TX1vr  1 3.950000e-01    2.310000e+00
  C2er TC1er  1 3.950000e-01    2.110000e+00
  C2er TX4er  1 3.990000e-01    1.180000e+00
  C2er TX3er  1 3.950000e-01    1.670000e+00
  C2er TX2er  1 3.950000e-01    1.670000e+00
  C2er TX1er  1 3.950000e-01    1.670000e+00
  C1er  TX4r  1 3.950000e-01    1.670000e+00
  C1er  TX3r  1 3.950000e-01    2.110000e+00
  C1er  TX2r  1 3.950000e-01    2.110000e+00
  C1er  TX1r  1 3.950000e-01    2.110000e+00
  C1er TX4vr  1 3.950000e-01    1.850000e+00
  C1er TX3vr  1 3.950000e-01    2.310000e+00
  C1er TX2vr  1 3.950000e-01    2.310000e+00
  C1er TX1vr  1 3.950000e-01    2.310000e+00
  C1er TX4er  1 3.990000e-01    1.180000e+00
  C1er TX3er  1 3.950000e-01    1.670000e+00
  C1er TX2er  1 3.950000e-01    1.670000e+00
  C1er TX1er  1 3.950000e-01    1.670000e+00
  X4er  TX3r  1 3.950000e-01    2.310000e+00
  X4er  TX2r  1 3.950000e-01    2.310000e+00
  X4er  TX1r  1 3.950000e-01    2.310000e+00
  X4er TX3vr  1 3.950000e-01    2.500000e+00
  X4er TX2vr  1 3.950000e-01    2.500000e+00
  X4er TX1vr  1 3.950000e-01    2.500000e+00
  X4er TX3er  1 3.950000e-01    1.850000e+00
  X4er TX2er  1 3.950000e-01    1.850000e+00
  X4er TX1er  1 3.950000e-01    1.850000e+00
  X3er  TX2r  1 3.950000e-01    2.500000e+00
  X3er  TX1r  1 3.950000e-01    2.500000e+00
  X3er TX2vr  1 3.950000e-01    2.700000e+00
  X3er TX1vr  1 3.950000e-01    2.700000e+00
  X3er TX2er  1 3.950000e-01    2.110000e+00
  X3er TX1er  1 3.950000e-01    2.110000e+00
  X2er  TX1r  1 3.950000e-01    2.500000e+00
  X2er TX1vr  1 3.950000e-01    2.700000e+00
  X2er TX1er  1 3.950000e-01    2.110000e+00
   P6r  TC6r  1 3.950000e-01    1.670000e+00
   P6r  TC5r  1 3.980000e-01    1.450000e+00
   P6r  TC4r  1 3.990000e-01    1.180000e+00
   P6r  TC3r  1 4.010000e-01    9.830000e-01
   P6r  TC2r  1 4.010000e-01    9.830000e-01
   P6r  TC1r  1 4.650000e-01    7.030000e-01
   P6r  TX4r  1 3.950000e-01    1.850000e+00
   P6r  TX3r  1 3.950000e-01    1.850000e+00
   P6r  TX2r  1 3.950000e-01    1.670000e+00
   P6r  TX1r  1 3.980000e-01    1.450000e+00
   P6r TC6vr  1 3.950000e-01    1.850000e+00
   P6r TC5vr  1 3.950000e-01    1.670000e+00
   P6r TC4vr  1 3.980000e-01    1.450000e+00
   P6r TC3vr  1 3.990000e-01    1.180000e+00
   P6r TC2vr  1 3.990000e-01    1.180000e+00
   P6r TC1vr  1 4.040000e-01    8.300000e-01
   P6r TX4vr  1 3.950000e-01    2.110000e+00
   P6r TX3vr  1 3.950000e-01    2.110000e+00
   P6r TX2vr  1 3.950000e-01    1.850000e+00
   P6r TX1vr  1 3.950000e-01    1.670000e+00
   P6r TC6er  1 3.950000e-01    1.850000e+00
   P6r TC5er  1 3.950000e-01    1.670000e+00
   P6r TC4er  1 3.980000e-01    1.450000e+00
   P6r TC3er  1 3.990000e-01    1.180000e+00
   P6r TC2er  1 3.990000e-01    1.180000e+00
   P6r TC1er  1 4.040000e-01    8.300000e-01
   P6r TX4er  1 3.950000e-01    2.110000e+00
   P6r TX3er  1 3.950000e-01    2.110000e+00
   P6r TX2er  1 3.950000e-01    1.850000e+00
   P6r TX1er  1 3.950000e-01    1.670000e+00
   P5r  TC6r  1 3.950000e-01    1.670000e+00
   P5r  TC5r  1 3.950000e-01    1.670000e+00
   P5r  TC4r  1 3.980000e-01    1.450000e+00
   P5r  TC3r  1 3.990000e-01    1.180000e+00
   P5r  TC2r  1 3.990000e-01    1.180000e+00
   P5r  TC1r  1 4.010000e-01    9.830000e-01
   P5r  TX4r  1 3.950000e-01    2.110000e+00
   P5r  TX3r  1 3.950000e-01    1.850000e+00
   P5r  TX2r  1 3.950000e-01    1.850000e+00
   P5r  TX1r  1 3.980000e-01    1.450000e+00
   P5r TC6vr  1 3.950000e-01    1.850000e+00
   P5r TC5vr  1 3.950000e-01    1.850000e+00
   P5r TC4vr  1 3.950000e-01    1.670000e+00
   P5r TC3vr  1 3.980000e-01    1.450000e+00
   P5r TC2vr  1 3.980000e-01    1.450000e+00
   P5r TC1vr  1 3.990000e-01    1.180000e+00
   P5r TX4vr  1 3.950000e-01    2.310000e+00
   P5r TX3vr  1 3.950000e-01    2.110000e+00
   P5r TX2vr  1 3.950000e-01    2.110000e+00
   P5r TX1vr  1 3.950000e-01    1.670000e+00
   P5r TC6er  1 3.950000e-01    1.850000e+00
   P5r TC5er  1 3.950000e-01    1.850000e+00
   P5r TC4er  1 3.950000e-01    1.670000e+00
   P5r TC3er  1 3.980000e-01    1.450000e+00
   P5r TC2er  1 3.980000e-01    1.450000e+00
   P5r TC1er  1 3.990000e-01    1.180000e+00
   P5r TX4er  1 3.950000e-01    2.310000e+00
   P5r TX3er  1 3.950000e-01    2.110000e+00
   P5r TX2er  1 3.950000e-01    2.110000e+00
   P5r TX1er  1 3.950000e-01    1.670000e+00
   P4r  TC6r  1 3.950000e-01    1.850000e+00
   P4r  TC5r  1 3.950000e-01    1.670000e+00
   P4r  TC4r  1 3.980000e-01    1.450000e+00
   P4r  TC3r  1 3.990000e-01    1.180000e+00
   P4r  TC2r  1 3.990000e-01    1.180000e+00
   P4r  TC1r  1 4.010000e-01    9.830000e-01
   P4r  TX4r  1 3.950000e-01    2.110000e+00
   P4r  TX3r  1 3.950000e-01    1.850000e+00
   P4r  TX2r  1 3.950000e-01    1.850000e+00
   P4r  TX1r  1 3.950000e-01    1.670000e+00
   P4r TC6vr  1 3.950000e-01    2.110000e+00
   P4r TC5vr  1 3.950000e-01    1.850000e+00
   P4r TC4vr  1 3.950000e-01    1.670000e+00
   P4r TC3vr  1 3.980000e-01    1.450000e+00
   P4r TC2vr  1 3.980000e-01    1.450000e+00
   P4r TC1vr  1 3.990000e-01    1.180000e+00
   P4r TX4vr  1 3.950000e-01    2.310000e+00
   P4r TX3vr  1 3.950000e-01    2.110000e+00
   P4r TX2vr  1 3.950000e-01    2.110000e+00
   P4r TX1vr  1 3.950000e-01    1.850000e+00
   P4r TC6er  1 3.950000e-01    2.110000e+00
   P4r TC5er  1 3.950000e-01    1.850000e+00
   P4r TC4er  1 3.950000e-01    1.670000e+00
   P4r TC3er  1 3.980000e-01    1.450000e+00
   P4r TC2er  1 3.980000e-01    1.450000e+00
   P4r TC1er  1 3.990000e-01    1.180000e+00
   P4r TX4er  1 3.950000e-01    2.310000e+00
   P4r TX3er  1 3.950000e-01    2.110000e+00
   P4r TX2er  1 3.950000e-01    2.110000e+00
   P4r TX1er  1 3.950000e-01    1.850000e+00
   P3r  TC6r  1 3.950000e-01    2.110000e+00
   P3r  TC5r  1 3.950000e-01    1.850000e+00
   P3r  TC4r  1 3.950000e-01    1.670000e+00
   P3r  TC3r  1 3.990000e-01    1.180000e+00
   P3r  TC2r  1 3.990000e-01    1.180000e+00
   P3r  TC1r  1 4.010000e-01    9.830000e-01
   P3r  TX4r  1 3.950000e-01    2.110000e+00
   P3r  TX3r  1 3.950000e-01    2.110000e+00
   P3r  TX2r  1 3.950000e-01    1.850000e+00
   P3r  TX1r  1 3.950000e-01    1.670000e+00
   P3r TC6vr  1 3.950000e-01    2.310000e+00
   P3r TC5vr  1 3.950000e-01    2.110000e+00
   P3r TC4vr  1 3.950000e-01    1.850000e+00
   P3r TC3vr  1 3.980000e-01    1.450000e+00
   P3r TC2vr  1 3.980000e-01    1.450000e+00
   P3r TC1vr  1 3.990000e-01    1.180000e+00
   P3r TX4vr  1 3.950000e-01    2.310000e+00
   P3r TX3vr  1 3.950000e-01    2.310000e+00
   P3r TX2vr  1 3.950000e-01    2.110000e+00
   P3r TX1vr  1 3.950000e-01    1.850000e+00
   P3r TC6er  1 3.950000e-01    2.310000e+00
   P3r TC5er  1 3.950000e-01    2.110000e+00
   P3r TC4er  1 3.950000e-01    1.850000e+00
   P3r TC3er  1 3.980000e-01    1.450000e+00
   P3r TC2er  1 3.980000e-01    1.450000e+00
   P3r TC1er  1 3.990000e-01    1.180000e+00
   P3r TX4er  1 3.950000e-01    2.310000e+00
   P3r TX3er  1 3.950000e-01    2.310000e+00
   P3r TX2er  1 3.950000e-01    2.110000e+00
   P3r TX1er  1 3.950000e-01    1.850000e+00
   P2r  TC6r  1 3.950000e-01    2.110000e+00
   P2r  TC5r  1 3.950000e-01    1.850000e+00
   P2r  TC4r  1 3.950000e-01    1.670000e+00
   P2r  TC3r  1 3.980000e-01    1.450000e+00
   P2r  TC2r  1 3.980000e-01    1.450000e+00
   P2r  TC1r  1 3.990000e-01    1.180000e+00
   P2r  TX4r  1 3.950000e-01    2.110000e+00
   P2r  TX3r  1 3.950000e-01    2.110000e+00
   P2r  TX2r  1 3.950000e-01    1.850000e+00
   P2r  TX1r  1 3.950000e-01    1.670000e+00
   P2r TC6vr  1 3.950000e-01    2.310000e+00
   P2r TC5vr  1 3.950000e-01    2.110000e+00
   P2r TC4vr  1 3.950000e-01    1.850000e+00
   P2r TC3vr  1 3.950000e-01    1.670000e+00
   P2r TC2vr  1 3.950000e-01    1.670000e+00
   P2r TC1vr  1 3.980000e-01    1.450000e+00
   P2r TX4vr  1 3.950000e-01    2.310000e+00
   P2r TX3vr  1 3.950000e-01    2.310000e+00
   P2r TX2vr  1 3.950000e-01    2.110000e+00
   P2r TX1vr  1 3.950000e-01    1.850000e+00
   P2r TC6er  1 3.950000e-01    2.310000e+00
   P2r TC5er  1 3.950000e-01    2.110000e+00
   P2r TC4er  1 3.950000e-01    1.850000e+00
   P2r TC3er  1 3.950000e-01    1.670000e+00
   P2r TC2er  1 3.950000e-01    1.670000e+00
   P2r TC1er  1 3.980000e-01    1.450000e+00
   P2r TX4er  1 3.950000e-01    2.310000e+00
   P2r TX3er  1 3.950000e-01    2.310000e+00
   P2r TX2er  1 3.950000e-01    2.110000e+00
   P2r TX1er  1 3.950000e-01    1.850000e+00
   P1r  TC6r  1 3.950000e-01    2.110000e+00
   P1r  TC5r  1 3.950000e-01    1.850000e+00
   P1r  TC4r  1 3.950000e-01    1.670000e+00
   P1r  TC3r  1 3.980000e-01    1.450000e+00
   P1r  TC2r  1 3.980000e-01    1.450000e+00
   P1r  TC1r  1 3.990000e-01    1.180000e+00
   P1r  TX4r  1 3.950000e-01    2.110000e+00
   P1r  TX3r  1 3.950000e-01    2.110000e+00
   P1r  TX2r  1 3.950000e-01    1.850000e+00
   P1r  TX1r  1 3.950000e-01    1.670000e+00
   P1r TC6vr  1 3.950000e-01    2.310000e+00
   P1r TC5vr  1 3.950000e-01    2.110000e+00
   P1r TC4vr  1 3.950000e-01    1.850000e+00
   P1r TC3vr  1 3.950000e-01    1.670000e+00
   P1r TC2vr  1 3.950000e-01    1.670000e+00
   P1r TC1vr  1 3.980000e-01    1.450000e+00
   P1r TX4vr  1 3.950000e-01    2.310000e+00
   P1r TX3vr  1 3.950000e-01    2.310000e+00
   P1r TX2vr  1 3.950000e-01    2.110000e+00
   P1r TX1vr  1 3.950000e-01    1.850000e+00
   P1r TC6er  1 3.950000e-01    2.310000e+00
   P1r TC5er  1 3.950000e-01    2.110000e+00
   P1r TC4er  1 3.950000e-01    1.850000e+00
   P1r TC3er  1 3.950000e-01    1.670000e+00
   P1r TC2er  1 3.950000e-01    1.670000e+00
   P1r TC1er  1 3.980000e-01    1.450000e+00
   P1r TX4er  1 3.950000e-01    2.310000e+00
   P1r TX3er  1 3.950000e-01    2.310000e+00
   P1r TX2er  1 3.950000e-01    2.110000e+00
   P1r TX1er  1 3.950000e-01    1.850000e+00
   N6r  TC6r  1 3.950000e-01    2.310000e+00
   N6r  TC5r  1 3.950000e-01    2.110000e+00
   N6r  TC4r  1 3.950000e-01    1.850000e+00
   N6r  TC3r  1 3.950000e-01    1.670000e+00
   N6r  TC2r  1 3.950000e-01    1.670000e+00
   N6r  TC1r  1 3.980000e-01    1.450000e+00
   N6r  TX4r  1 3.950000e-01    2.310000e+00
   N6r  TX3r  1 3.950000e-01    2.110000e+00
   N6r  TX2r  1 3.950000e-01    1.850000e+00
   N6r  TX1r  1 3.950000e-01    1.670000e+00
   N6r TC6vr  1 3.950000e-01    2.500000e+00
   N6r TC5vr  1 3.950000e-01    2.310000e+00
   N6r TC4vr  1 3.950000e-01    2.110000e+00
   N6r TC3vr  1 3.950000e-01    1.850000e+00
   N6r TC2vr  1 3.950000e-01    1.850000e+00
   N6r TC1vr  1 3.950000e-01    1.670000e+00
   N6r TX4vr  1 3.950000e-01    2.500000e+00
   N6r TX3vr  1 3.950000e-01    2.310000e+00
   N6r TX2vr  1 3.950000e-01    2.110000e+00
   N6r TX1vr  1 3.950000e-01    1.850000e+00
   N6r TC6er  1 3.950000e-01    2.500000e+00
   N6r TC5er  1 3.950000e-01    2.310000e+00
   N6r TC4er  1 3.950000e-01    2.110000e+00
   N6r TC3er  1 3.950000e-01    1.850000e+00
   N6r TC2er  1 3.950000e-01    1.850000e+00
   N6r TC1er  1 3.950000e-01    1.670000e+00
   N6r TX4er  1 3.950000e-01    2.500000e+00
   N6r TX3er  1 3.950000e-01    2.310000e+00
   N6r TX2er  1 3.950000e-01    2.110000e+00
   N6r TX1er  1 3.950000e-01    1.850000e+00
   N5r  TC6r  1 3.950000e-01    2.310000e+00
   N5r  TC5r  1 3.950000e-01    2.110000e+00
   N5r  TC4r  1 3.950000e-01    1.850000e+00
   N5r  TC3r  1 3.950000e-01    1.850000e+00
   N5r  TC2r  1 3.950000e-01    1.670000e+00
   N5r  TC1r  1 3.980000e-01    1.450000e+00
   N5r  TX4r  1 3.950000e-01    2.500000e+00
   N5r  TX3r  1 3.950000e-01    2.310000e+00
   N5r  TX2r  1 3.950000e-01    2.110000e+00
   N5r  TX1r  1 3.950000e-01    1.850000e+00
   N5r TC6vr  1 3.950000e-01    2.500000e+00
   N5r TC5vr  1 3.950000e-01    2.310000e+00
   N5r TC4vr  1 3.950000e-01    2.110000e+00
   N5r TC3vr  1 3.950000e-01    2.110000e+00
   N5r TC2vr  1 3.950000e-01    1.850000e+00
   N5r TC1vr  1 3.950000e-01    1.670000e+00
   N5r TX4vr  1 3.950000e-01    2.700000e+00
   N5r TX3vr  1 3.950000e-01    2.500000e+00
   N5r TX2vr  1 3.950000e-01    2.310000e+00
   N5r TX1vr  1 3.950000e-01    2.110000e+00
   N5r TC6er  1 3.950000e-01    2.500000e+00
   N5r TC5er  1 3.950000e-01    2.310000e+00
   N5r TC4er  1 3.950000e-01    2.110000e+00
   N5r TC3er  1 3.950000e-01    2.110000e+00
   N5r TC2er  1 3.950000e-01    1.850000e+00
   N5r TC1er  1 3.950000e-01    1.670000e+00
   N5r TX4er  1 3.950000e-01    2.700000e+00
   N5r TX3er  1 3.950000e-01    2.500000e+00
   N5r TX2er  1 3.950000e-01    2.310000e+00
   N5r TX1er  1 3.950000e-01    2.110000e+00
   N4r  TC6r  1 3.950000e-01    2.310000e+00
   N4r  TC5r  1 3.950000e-01    2.110000e+00
   N4r  TC4r  1 3.950000e-01    2.110000e+00
   N4r  TC3r  1 3.950000e-01    1.850000e+00
   N4r  TC2r  1 3.950000e-01    1.670000e+00
   N4r  TC1r  1 3.980000e-01    1.450000e+00
   N4r  TX4r  1 3.950000e-01    2.700000e+00
   N4r  TX3r  1 3.950000e-01    2.500000e+00
   N4r  TX2r  1 3.950000e-01    2.110000e+00
   N4r  TX1r  1 3.950000e-01    1.850000e+00
   N4r TC6vr  1 3.950000e-01    2.500000e+00
   N4r TC5vr  1 3.950000e-01    2.310000e+00
   N4r TC4vr  1 3.950000e-01    2.310000e+00
   N4r TC3vr  1 3.950000e-01    2.110000e+00
   N4r TC2vr  1 3.950000e-01    1.850000e+00
   N4r TC1vr  1 3.950000e-01    1.670000e+00
   N4r TX4vr  1 3.950000e-01    2.940000e+00
   N4r TX3vr  1 3.950000e-01    2.700000e+00
   N4r TX2vr  1 3.950000e-01    2.310000e+00
   N4r TX1vr  1 3.950000e-01    2.110000e+00
   N4r TC6er  1 3.950000e-01    2.500000e+00
   N4r TC5er  1 3.950000e-01    2.310000e+00
   N4r TC4er  1 3.950000e-01    2.310000e+00
   N4r TC3er  1 3.950000e-01    2.110000e+00
   N4r TC2er  1 3.950000e-01    1.850000e+00
   N4r TC1er  1 3.950000e-01    1.670000e+00
   N4r TX4er  1 3.950000e-01    2.940000e+00
   N4r TX3er  1 3.950000e-01    2.700000e+00
   N4r TX2er  1 3.950000e-01    2.310000e+00
   N4r TX1er  1 3.950000e-01    2.110000e+00
   N3r  TC6r  1 3.950000e-01    2.310000e+00
   N3r  TC5r  1 3.950000e-01    2.110000e+00
   N3r  TC4r  1 3.950000e-01    2.110000e+00
   N3r  TC3r  1 3.950000e-01    1.850000e+00
   N3r  TC2r  1 3.950000e-01    1.850000e+00
   N3r  TC1r  1 3.950000e-01    1.670000e+00
   N3r  TX4r  1 3.950000e-01    2.500000e+00
   N3r  TX3r  1 3.950000e-01    2.310000e+00
   N3r  TX2r  1 3.950000e-01    2.110000e+00
   N3r  TX1r  1 3.950000e-01    2.110000e+00
   N3r TC6vr  1 3.950000e-01    2.500000e+00
   N3r TC5vr  1 3.950000e-01    2.310000e+00
   N3r TC4vr  1 3.950000e-01    2.310000e+00
   N3r TC3vr  1 3.950000e-01    2.110000e+00
   N3r TC2vr  1 3.950000e-01    2.110000e+00
   N3r TC1vr  1 3.950000e-01    1.850000e+00
   N3r TX4vr  1 3.950000e-01    2.700000e+00
   N3r TX3vr  1 3.950000e-01    2.500000e+00
   N3r TX2vr  1 3.950000e-01    2.310000e+00
   N3r TX1vr  1 3.950000e-01    2.310000e+00
   N3r TC6er  1 3.950000e-01    2.500000e+00
   N3r TC5er  1 3.950000e-01    2.310000e+00
   N3r TC4er  1 3.950000e-01    2.310000e+00
   N3r TC3er  1 3.950000e-01    2.110000e+00
   N3r TC2er  1 3.950000e-01    2.110000e+00
   N3r TC1er  1 3.950000e-01    1.850000e+00
   N3r TX4er  1 3.950000e-01    2.700000e+00
   N3r TX3er  1 3.950000e-01    2.500000e+00
   N3r TX2er  1 3.950000e-01    2.310000e+00
   N3r TX1er  1 3.950000e-01    2.310000e+00
   N2r  TC6r  1 3.950000e-01    2.310000e+00
   N2r  TC5r  1 3.950000e-01    2.110000e+00
   N2r  TC4r  1 3.950000e-01    2.110000e+00
   N2r  TC3r  1 3.950000e-01    2.110000e+00
   N2r  TC2r  1 3.950000e-01    1.850000e+00
   N2r  TC1r  1 3.950000e-01    1.670000e+00
   N2r  TX4r  1 3.950000e-01    2.500000e+00
   N2r  TX3r  1 3.950000e-01    2.310000e+00
   N2r  TX2r  1 3.950000e-01    2.110000e+00
   N2r  TX1r  1 3.950000e-01    2.110000e+00
   N2r TC6vr  1 3.950000e-01    2.500000e+00
   N2r TC5vr  1 3.950000e-01    2.310000e+00
   N2r TC4vr  1 3.950000e-01    2.310000e+00
   N2r TC3vr  1 3.950000e-01    2.310000e+00
   N2r TC2vr  1 3.950000e-01    2.110000e+00
   N2r TC1vr  1 3.950000e-01    1.850000e+00
   N2r TX4vr  1 3.950000e-01    2.700000e+00
   N2r TX3vr  1 3.950000e-01    2.500000e+00
   N2r TX2vr  1 3.950000e-01    2.310000e+00
   N2r TX1vr  1 3.950000e-01    2.310000e+00
   N2r TC6er  1 3.950000e-01    2.500000e+00
   N2r TC5er  1 3.950000e-01    2.310000e+00
   N2r TC4er  1 3.950000e-01    2.310000e+00
   N2r TC3er  1 3.950000e-01    2.310000e+00
   N2r TC2er  1 3.950000e-01    2.110000e+00
   N2r TC1er  1 3.950000e-01    1.850000e+00
   N2r TX4er  1 3.950000e-01    2.700000e+00
   N2r TX3er  1 3.950000e-01    2.500000e+00
   N2r TX2er  1 3.950000e-01    2.310000e+00
   N2r TX1er  1 3.950000e-01    2.310000e+00
   N1r  TC6r  1 3.950000e-01    2.500000e+00
   N1r  TC5r  1 3.950000e-01    2.310000e+00
   N1r  TC4r  1 3.950000e-01    2.310000e+00
   N1r  TC3r  1 3.950000e-01    2.110000e+00
   N1r  TC2r  1 3.950000e-01    1.850000e+00
   N1r  TC1r  1 3.950000e-01    1.670000e+00
   N1r  TX4r  1 3.950000e-01    2.310000e+00
   N1r  TX3r  1 3.950000e-01    2.310000e+00
   N1r  TX2r  1 3.950000e-01    2.110000e+00
   N1r  TX1r  1 3.950000e-01    2.110000e+00
   N1r TC6vr  1 3.950000e-01    2.700000e+00
   N1r TC5vr  1 3.950000e-01    2.500000e+00
   N1r TC4vr  1 3.950000e-01    2.500000e+00
   N1r TC3vr  1 3.950000e-01    2.310000e+00
   N1r TC2vr  1 3.950000e-01    2.110000e+00
   N1r TC1vr  1 3.950000e-01    1.850000e+00
   N1r TX4vr  1 3.950000e-01    2.500000e+00
   N1r TX3vr  1 3.950000e-01    2.500000e+00
   N1r TX2vr  1 3.950000e-01    2.310000e+00
   N1r TX1vr  1 3.950000e-01    2.310000e+00
   N1r TC6er  1 3.950000e-01    2.700000e+00
   N1r TC5er  1 3.950000e-01    2.500000e+00
   N1r TC4er  1 3.950000e-01    2.500000e+00
   N1r TC3er  1 3.950000e-01    2.310000e+00
   N1r TC2er  1 3.950000e-01    2.110000e+00
   N1r TC1er  1 3.950000e-01    1.850000e+00
   N1r TX4er  1 3.950000e-01    2.500000e+00
   N1r TX3er  1 3.950000e-01    2.500000e+00
   N1r TX2er  1 3.950000e-01    2.310000e+00
   N1r TX1er  1 3.950000e-01    2.310000e+00
  P6dr  TC6r  1 3.950000e-01    1.670000e+00
  P6dr  TC5r  1 3.980000e-01    1.450000e+00
  P6dr  TC4r  1 3.990000e-01    1.180000e+00
  P6dr  TC3r  1 4.010000e-01    9.830000e-01
  P6dr  TC2r  1 4.010000e-01    9.830000e-01
  P6dr  TC1r  1 4.650000e-01    7.030000e-01
  P6dr  TX4r  1 3.950000e-01    1.850000e+00
  P6dr  TX3r  1 3.950000e-01    1.850000e+00
  P6dr  TX2r  1 3.950000e-01    1.670000e+00
  P6dr  TX1r  1 3.980000e-01    1.450000e+00
  P6dr TC6vr  1 3.980000e-01    1.450000e+00
  P6dr TC5vr  1 3.990000e-01    1.180000e+00
  P6dr TC4vr  1 4.010000e-01    9.830000e-01
  P6dr TC3vr  1 4.040000e-01    8.300000e-01
  P6dr TC2vr  1 4.040000e-01    8.300000e-01
  P6dr TC1vr  1 5.110000e-01    6.590000e-01
  P6dr TX4vr  1 3.950000e-01    1.670000e+00
  P6dr TX3vr  1 3.950000e-01    1.670000e+00
  P6dr TX2vr  1 3.980000e-01    1.450000e+00
  P6dr TX1vr  1 3.990000e-01    1.180000e+00
  P6dr TC6er  1 3.950000e-01    1.850000e+00
  P6dr TC5er  1 3.950000e-01    1.670000e+00
  P6dr TC4er  1 3.980000e-01    1.450000e+00
  P6dr TC3er  1 3.990000e-01    1.180000e+00
  P6dr TC2er  1 3.990000e-01    1.180000e+00
  P6dr TC1er  1 4.040000e-01    8.300000e-01
  P6dr TX4er  1 3.950000e-01    2.110000e+00
  P6dr TX3er  1 3.950000e-01    2.110000e+00
  P6dr TX2er  1 3.950000e-01    1.850000e+00
  P6dr TX1er  1 3.950000e-01    1.670000e+00
  P5dr  TC6r  1 3.950000e-01    1.670000e+00
  P5dr  TC5r  1 3.950000e-01    1.670000e+00
  P5dr  TC4r  1 3.980000e-01    1.450000e+00
  P5dr  TC3r  1 3.990000e-01    1.180000e+00
  P5dr  TC2r  1 3.990000e-01    1.180000e+00
  P5dr  TC1r  1 4.010000e-01    9.830000e-01
  P5dr  TX4r  1 3.950000e-01    2.110000e+00
  P5dr  TX3r  1 3.950000e-01    1.850000e+00
  P5dr  TX2r  1 3.950000e-01    1.850000e+00
  P5dr  TX1r  1 3.980000e-01    1.450000e+00
  P5dr TC6vr  1 3.980000e-01    1.450000e+00
  P5dr TC5vr  1 3.980000e-01    1.450000e+00
  P5dr TC4vr  1 3.990000e-01    1.180000e+00
  P5dr TC3vr  1 4.010000e-01    9.830000e-01
  P5dr TC2vr  1 4.010000e-01    9.830000e-01
  P5dr TC1vr  1 4.040000e-01    8.300000e-01
  P5dr TX4vr  1 3.950000e-01    1.850000e+00
  P5dr TX3vr  1 3.950000e-01    1.670000e+00
  P5dr TX2vr  1 3.950000e-01    1.670000e+00
  P5dr TX1vr  1 3.990000e-01    1.180000e+00
  P5dr TC6er  1 3.950000e-01    1.850000e+00
  P5dr TC5er  1 3.950000e-01    1.850000e+00
  P5dr TC4er  1 3.950000e-01    1.670000e+00
  P5dr TC3er  1 3.980000e-01    1.450000e+00
  P5dr TC2er  1 3.980000e-01    1.450000e+00
  P5dr TC1er  1 3.990000e-01    1.180000e+00
  P5dr TX4er  1 3.950000e-01    2.310000e+00
  P5dr TX3er  1 3.950000e-01    2.110000e+00
  P5dr TX2er  1 3.950000e-01    2.110000e+00
  P5dr TX1er  1 3.950000e-01    1.670000e+00
  P4dr  TC6r  1 3.950000e-01    1.850000e+00
  P4dr  TC5r  1 3.950000e-01    1.670000e+00
  P4dr  TC4r  1 3.980000e-01    1.450000e+00
  P4dr  TC3r  1 3.990000e-01    1.180000e+00
  P4dr  TC2r  1 3.990000e-01    1.180000e+00
  P4dr  TC1r  1 4.010000e-01    9.830000e-01
  P4dr  TX4r  1 3.950000e-01    2.110000e+00
  P4dr  TX3r  1 3.950000e-01    1.850000e+00
  P4dr  TX2r  1 3.950000e-01    1.850000e+00
  P4dr  TX1r  1 3.950000e-01    1.670000e+00
  P4dr TC6vr  1 3.950000e-01    1.670000e+00
  P4dr TC5vr  1 3.980000e-01    1.450000e+00
  P4dr TC4vr  1 3.990000e-01    1.180000e+00
  P4dr TC3vr  1 4.010000e-01    9.830000e-01
  P4dr TC2vr  1 4.010000e-01    9.830000e-01
  P4dr TC1vr  1 4.040000e-01    8.300000e-01
  P4dr TX4vr  1 3.950000e-01    1.850000e+00
  P4dr TX3vr  1 3.950000e-01    1.670000e+00
  P4dr TX2vr  1 3.950000e-01    1.670000e+00
  P4dr TX1vr  1 3.980000e-01    1.450000e+00
  P4dr TC6er  1 3.950000e-01    2.110000e+00
  P4dr TC5er  1 3.950000e-01    1.850000e+00
  P4dr TC4er  1 3.950000e-01    1.670000e+00
  P4dr TC3er  1 3.980000e-01    1.450000e+00
  P4dr TC2er  1 3.980000e-01    1.450000e+00
  P4dr TC1er  1 3.990000e-01    1.180000e+00
  P4dr TX4er  1 3.950000e-01    2.310000e+00
  P4dr TX3er  1 3.950000e-01    2.110000e+00
  P4dr TX2er  1 3.950000e-01    2.110000e+00
  P4dr TX1er  1 3.950000e-01    1.850000e+00
  P3dr  TC6r  1 3.950000e-01    2.110000e+00
  P3dr  TC5r  1 3.950000e-01    1.850000e+00
  P3dr  TC4r  1 3.950000e-01    1.670000e+00
  P3dr  TC3r  1 3.990000e-01    1.180000e+00
  P3dr  TC2r  1 3.990000e-01    1.180000e+00
  P3dr  TC1r  1 4.010000e-01    9.830000e-01
  P3dr  TX4r  1 3.950000e-01    2.110000e+00
  P3dr  TX3r  1 3.950000e-01    2.110000e+00
  P3dr  TX2r  1 3.950000e-01    1.850000e+00
  P3dr  TX1r  1 3.950000e-01    1.670000e+00
  P3dr TC6vr  1 3.950000e-01    1.850000e+00
  P3dr TC5vr  1 3.950000e-01    1.670000e+00
  P3dr TC4vr  1 3.980000e-01    1.450000e+00
  P3dr TC3vr  1 4.010000e-01    9.830000e-01
  P3dr TC2vr  1 4.010000e-01    9.830000e-01
  P3dr TC1vr  1 4.040000e-01    8.300000e-01
  P3dr TX4vr  1 3.950000e-01    1.850000e+00
  P3dr TX3vr  1 3.950000e-01    1.850000e+00
  P3dr TX2vr  1 3.950000e-01    1.670000e+00
  P3dr TX1vr  1 3.980000e-01    1.450000e+00
  P3dr TC6er  1 3.950000e-01    2.310000e+00
  P3dr TC5er  1 3.950000e-01    2.110000e+00
  P3dr TC4er  1 3.950000e-01    1.850000e+00
  P3dr TC3er  1 3.980000e-01    1.450000e+00
  P3dr TC2er  1 3.980000e-01    1.450000e+00
  P3dr TC1er  1 3.990000e-01    1.180000e+00
  P3dr TX4er  1 3.950000e-01    2.310000e+00
  P3dr TX3er  1 3.950000e-01    2.310000e+00
  P3dr TX2er  1 3.950000e-01    2.110000e+00
  P3dr TX1er  1 3.950000e-01    1.850000e+00
  P2dr  TC6r  1 3.950000e-01    2.110000e+00
  P2dr  TC5r  1 3.950000e-01    1.850000e+00
  P2dr  TC4r  1 3.950000e-01    1.670000e+00
  P2dr  TC3r  1 3.980000e-01    1.450000e+00
  P2dr  TC2r  1 3.980000e-01    1.450000e+00
  P2dr  TC1r  1 3.990000e-01    1.180000e+00
  P2dr  TX4r  1 3.950000e-01    2.110000e+00
  P2dr  TX3r  1 3.950000e-01    2.110000e+00
  P2dr  TX2r  1 3.950000e-01    1.850000e+00
  P2dr  TX1r  1 3.950000e-01    1.670000e+00
  P2dr TC6vr  1 3.950000e-01    1.850000e+00
  P2dr TC5vr  1 3.950000e-01    1.670000e+00
  P2dr TC4vr  1 3.980000e-01    1.450000e+00
  P2dr TC3vr  1 3.990000e-01    1.180000e+00
  P2dr TC2vr  1 3.990000e-01    1.180000e+00
  P2dr TC1vr  1 4.010000e-01    9.830000e-01
  P2dr TX4vr  1 3.950000e-01    1.850000e+00
  P2dr TX3vr  1 3.950000e-01    1.850000e+00
  P2dr TX2vr  1 3.950000e-01    1.670000e+00
  P2dr TX1vr  1 3.980000e-01    1.450000e+00
  P2dr TC6er  1 3.950000e-01    2.310000e+00
  P2dr TC5er  1 3.950000e-01    2.110000e+00
  P2dr TC4er  1 3.950000e-01    1.850000e+00
  P2dr TC3er  1 3.950000e-01    1.670000e+00
  P2dr TC2er  1 3.950000e-01    1.670000e+00
  P2dr TC1er  1 3.980000e-01    1.450000e+00
  P2dr TX4er  1 3.950000e-01    2.310000e+00
  P2dr TX3er  1 3.950000e-01    2.310000e+00
  P2dr TX2er  1 3.950000e-01    2.110000e+00
  P2dr TX1er  1 3.950000e-01    1.850000e+00
  P1dr  TC6r  1 3.950000e-01    2.110000e+00
  P1dr  TC5r  1 3.950000e-01    1.850000e+00
  P1dr  TC4r  1 3.950000e-01    1.670000e+00
  P1dr  TC3r  1 3.980000e-01    1.450000e+00
  P1dr  TC2r  1 3.980000e-01    1.450000e+00
  P1dr  TC1r  1 3.990000e-01    1.180000e+00
  P1dr  TX4r  1 3.950000e-01    2.110000e+00
  P1dr  TX3r  1 3.950000e-01    2.110000e+00
  P1dr  TX2r  1 3.950000e-01    1.850000e+00
  P1dr  TX1r  1 3.950000e-01    1.670000e+00
  P1dr TC6vr  1 3.950000e-01    1.850000e+00
  P1dr TC5vr  1 3.950000e-01    1.670000e+00
  P1dr TC4vr  1 3.980000e-01    1.450000e+00
  P1dr TC3vr  1 3.990000e-01    1.180000e+00
  P1dr TC2vr  1 3.990000e-01    1.180000e+00
  P1dr TC1vr  1 4.010000e-01    9.830000e-01
  P1dr TX4vr  1 3.950000e-01    1.850000e+00
  P1dr TX3vr  1 3.950000e-01    1.850000e+00
  P1dr TX2vr  1 3.950000e-01    1.670000e+00
  P1dr TX1vr  1 3.980000e-01    1.450000e+00
  P1dr TC6er  1 3.950000e-01    2.310000e+00
  P1dr TC5er  1 3.950000e-01    2.110000e+00
  P1dr TC4er  1 3.950000e-01    1.850000e+00
  P1dr TC3er  1 3.950000e-01    1.670000e+00
  P1dr TC2er  1 3.950000e-01    1.670000e+00
  P1dr TC1er  1 3.980000e-01    1.450000e+00
  P1dr TX4er  1 3.950000e-01    2.310000e+00
  P1dr TX3er  1 3.950000e-01    2.310000e+00
  P1dr TX2er  1 3.950000e-01    2.110000e+00
  P1dr TX1er  1 3.950000e-01    1.850000e+00
  N6dr  TC6r  1 3.950000e-01    2.310000e+00
  N6dr  TC5r  1 3.950000e-01    2.110000e+00
  N6dr  TC4r  1 3.950000e-01    1.850000e+00
  N6dr  TC3r  1 3.950000e-01    1.670000e+00
  N6dr  TC2r  1 3.950000e-01    1.670000e+00
  N6dr  TC1r  1 3.980000e-01    1.450000e+00
  N6dr  TX4r  1 3.950000e-01    2.310000e+00
  N6dr  TX3r  1 3.950000e-01    2.110000e+00
  N6dr  TX2r  1 3.950000e-01    1.850000e+00
  N6dr  TX1r  1 3.950000e-01    1.670000e+00
  N6dr TC6vr  1 3.950000e-01    2.110000e+00
  N6dr TC5vr  1 3.950000e-01    1.850000e+00
  N6dr TC4vr  1 3.950000e-01    1.670000e+00
  N6dr TC3vr  1 3.980000e-01    1.450000e+00
  N6dr TC2vr  1 3.980000e-01    1.450000e+00
  N6dr TC1vr  1 3.990000e-01    1.180000e+00
  N6dr TX4vr  1 3.950000e-01    2.110000e+00
  N6dr TX3vr  1 3.950000e-01    1.850000e+00
  N6dr TX2vr  1 3.950000e-01    1.670000e+00
  N6dr TX1vr  1 3.980000e-01    1.450000e+00
  N6dr TC6er  1 3.950000e-01    2.500000e+00
  N6dr TC5er  1 3.950000e-01    2.310000e+00
  N6dr TC4er  1 3.950000e-01    2.110000e+00
  N6dr TC3er  1 3.950000e-01    1.850000e+00
  N6dr TC2er  1 3.950000e-01    1.850000e+00
  N6dr TC1er  1 3.950000e-01    1.670000e+00
  N6dr TX4er  1 3.950000e-01    2.500000e+00
  N6dr TX3er  1 3.950000e-01    2.310000e+00
  N6dr TX2er  1 3.950000e-01    2.110000e+00
  N6dr TX1er  1 3.950000e-01    1.850000e+00
  N5dr  TC6r  1 3.950000e-01    2.310000e+00
  N5dr  TC5r  1 3.950000e-01    2.110000e+00
  N5dr  TC4r  1 3.950000e-01    1.850000e+00
  N5dr  TC3r  1 3.950000e-01    1.850000e+00
  N5dr  TC2r  1 3.950000e-01    1.670000e+00
  N5dr  TC1r  1 3.980000e-01    1.450000e+00
  N5dr  TX4r  1 3.950000e-01    2.500000e+00
  N5dr  TX3r  1 3.950000e-01    2.310000e+00
  N5dr  TX2r  1 3.950000e-01    2.110000e+00
  N5dr  TX1r  1 3.950000e-01    1.850000e+00
  N5dr TC6vr  1 3.950000e-01    2.110000e+00
  N5dr TC5vr  1 3.950000e-01    1.850000e+00
  N5dr TC4vr  1 3.950000e-01    1.670000e+00
  N5dr TC3vr  1 3.950000e-01    1.670000e+00
  N5dr TC2vr  1 3.980000e-01    1.450000e+00
  N5dr TC1vr  1 3.990000e-01    1.180000e+00
  N5dr TX4vr  1 3.950000e-01    2.310000e+00
  N5dr TX3vr  1 3.950000e-01    2.110000e+00
  N5dr TX2vr  1 3.950000e-01    1.850000e+00
  N5dr TX1vr  1 3.950000e-01    1.670000e+00
  N5dr TC6er  1 3.950000e-01    2.500000e+00
  N5dr TC5er  1 3.950000e-01    2.310000e+00
  N5dr TC4er  1 3.950000e-01    2.110000e+00
  N5dr TC3er  1 3.950000e-01    2.110000e+00
  N5dr TC2er  1 3.950000e-01    1.850000e+00
  N5dr TC1er  1 3.950000e-01    1.670000e+00
  N5dr TX4er  1 3.950000e-01    2.700000e+00
  N5dr TX3er  1 3.950000e-01    2.500000e+00
  N5dr TX2er  1 3.950000e-01    2.310000e+00
  N5dr TX1er  1 3.950000e-01    2.110000e+00
  N4dr  TC6r  1 3.950000e-01    2.310000e+00
  N4dr  TC5r  1 3.950000e-01    2.110000e+00
  N4dr  TC4r  1 3.950000e-01    2.110000e+00
  N4dr  TC3r  1 3.950000e-01    1.850000e+00
  N4dr  TC2r  1 3.950000e-01    1.670000e+00
  N4dr  TC1r  1 3.980000e-01    1.450000e+00
  N4dr  TX4r  1 3.950000e-01    2.700000e+00
  N4dr  TX3r  1 3.950000e-01    2.500000e+00
  N4dr  TX2r  1 3.950000e-01    2.110000e+00
  N4dr  TX1r  1 3.950000e-01    1.850000e+00
  N4dr TC6vr  1 3.950000e-01    2.110000e+00
  N4dr TC5vr  1 3.950000e-01    1.850000e+00
  N4dr TC4vr  1 3.950000e-01    1.850000e+00
  N4dr TC3vr  1 3.950000e-01    1.670000e+00
  N4dr TC2vr  1 3.980000e-01    1.450000e+00
  N4dr TC1vr  1 3.990000e-01    1.180000e+00
  N4dr TX4vr  1 3.950000e-01    2.500000e+00
  N4dr TX3vr  1 3.950000e-01    2.310000e+00
  N4dr TX2vr  1 3.950000e-01    1.850000e+00
  N4dr TX1vr  1 3.950000e-01    1.670000e+00
  N4dr TC6er  1 3.950000e-01    2.500000e+00
  N4dr TC5er  1 3.950000e-01    2.310000e+00
  N4dr TC4er  1 3.950000e-01    2.310000e+00
  N4dr TC3er  1 3.950000e-01    2.110000e+00
  N4dr TC2er  1 3.950000e-01    1.850000e+00
  N4dr TC1er  1 3.950000e-01    1.670000e+00
  N4dr TX4er  1 3.950000e-01    2.940000e+00
  N4dr TX3er  1 3.950000e-01    2.700000e+00
  N4dr TX2er  1 3.950000e-01    2.310000e+00
  N4dr TX1er  1 3.950000e-01    2.110000e+00
  N3dr  TC6r  1 3.950000e-01    2.310000e+00
  N3dr  TC5r  1 3.950000e-01    2.110000e+00
  N3dr  TC4r  1 3.950000e-01    2.110000e+00
  N3dr  TC3r  1 3.950000e-01    1.850000e+00
  N3dr  TC2r  1 3.950000e-01    1.850000e+00
  N3dr  TC1r  1 3.950000e-01    1.670000e+00
  N3dr  TX4r  1 3.950000e-01    2.500000e+00
  N3dr  TX3r  1 3.950000e-01    2.310000e+00
  N3dr  TX2r  1 3.950000e-01    2.110000e+00
  N3dr  TX1r  1 3.950000e-01    2.110000e+00
  N3dr TC6vr  1 3.950000e-01    2.110000e+00
  N3dr TC5vr  1 3.950000e-01    1.850000e+00
  N3dr TC4vr  1 3.950000e-01    1.850000e+00
  N3dr TC3vr  1 3.950000e-01    1.670000e+00
  N3dr TC2vr  1 3.950000e-01    1.670000e+00
  N3dr TC1vr  1 3.980000e-01    1.450000e+00
  N3dr TX4vr  1 3.950000e-01    2.310000e+00
  N3dr TX3vr  1 3.950000e-01    2.110000e+00
  N3dr TX2vr  1 3.950000e-01    1.850000e+00
  N3dr TX1vr  1 3.950000e-01    1.850000e+00
  N3dr TC6er  1 3.950000e-01    2.500000e+00
  N3dr TC5er  1 3.950000e-01    2.310000e+00
  N3dr TC4er  1 3.950000e-01    2.310000e+00
  N3dr TC3er  1 3.950000e-01    2.110000e+00
  N3dr TC2er  1 3.950000e-01    2.110000e+00
  N3dr TC1er  1 3.950000e-01    1.850000e+00
  N3dr TX4er  1 3.950000e-01    2.700000e+00
  N3dr TX3er  1 3.950000e-01    2.500000e+00
  N3dr TX2er  1 3.950000e-01    2.310000e+00
  N3dr TX1er  1 3.950000e-01    2.310000e+00
  N2dr  TC6r  1 3.950000e-01    2.310000e+00
  N2dr  TC5r  1 3.950000e-01    2.110000e+00
  N2dr  TC4r  1 3.950000e-01    2.110000e+00
  N2dr  TC3r  1 3.950000e-01    2.110000e+00
  N2dr  TC2r  1 3.950000e-01    1.850000e+00
  N2dr  TC1r  1 3.950000e-01    1.670000e+00
  N2dr  TX4r  1 3.950000e-01    2.500000e+00
  N2dr  TX3r  1 3.950000e-01    2.310000e+00
  N2dr  TX2r  1 3.950000e-01    2.110000e+00
  N2dr  TX1r  1 3.950000e-01    2.110000e+00
  N2dr TC6vr  1 3.950000e-01    2.110000e+00
  N2dr TC5vr  1 3.950000e-01    1.850000e+00
  N2dr TC4vr  1 3.950000e-01    1.850000e+00
  N2dr TC3vr  1 3.950000e-01    1.850000e+00
  N2dr TC2vr  1 3.950000e-01    1.670000e+00
  N2dr TC1vr  1 3.980000e-01    1.450000e+00
  N2dr TX4vr  1 3.950000e-01    2.310000e+00
  N2dr TX3vr  1 3.950000e-01    2.110000e+00
  N2dr TX2vr  1 3.950000e-01    1.850000e+00
  N2dr TX1vr  1 3.950000e-01    1.850000e+00
  N2dr TC6er  1 3.950000e-01    2.500000e+00
  N2dr TC5er  1 3.950000e-01    2.310000e+00
  N2dr TC4er  1 3.950000e-01    2.310000e+00
  N2dr TC3er  1 3.950000e-01    2.310000e+00
  N2dr TC2er  1 3.950000e-01    2.110000e+00
  N2dr TC1er  1 3.950000e-01    1.850000e+00
  N2dr TX4er  1 3.950000e-01    2.700000e+00
  N2dr TX3er  1 3.950000e-01    2.500000e+00
  N2dr TX2er  1 3.950000e-01    2.310000e+00
  N2dr TX1er  1 3.950000e-01    2.310000e+00
  N1dr  TC6r  1 3.950000e-01    2.500000e+00
  N1dr  TC5r  1 3.950000e-01    2.310000e+00
  N1dr  TC4r  1 3.950000e-01    2.310000e+00
  N1dr  TC3r  1 3.950000e-01    2.110000e+00
  N1dr  TC2r  1 3.950000e-01    1.850000e+00
  N1dr  TC1r  1 3.950000e-01    1.670000e+00
  N1dr  TX4r  1 3.950000e-01    2.310000e+00
  N1dr  TX3r  1 3.950000e-01    2.310000e+00
  N1dr  TX2r  1 3.950000e-01    2.110000e+00
  N1dr  TX1r  1 3.950000e-01    2.110000e+00
  N1dr TC6vr  1 3.950000e-01    2.310000e+00
  N1dr TC5vr  1 3.950000e-01    2.110000e+00
  N1dr TC4vr  1 3.950000e-01    2.110000e+00
  N1dr TC3vr  1 3.950000e-01    1.850000e+00
  N1dr TC2vr  1 3.950000e-01    1.670000e+00
  N1dr TC1vr  1 3.980000e-01    1.450000e+00
  N1dr TX4vr  1 3.950000e-01    2.110000e+00
  N1dr TX3vr  1 3.950000e-01    2.110000e+00
  N1dr TX2vr  1 3.950000e-01    1.850000e+00
  N1dr TX1vr  1 3.950000e-01    1.850000e+00
  N1dr TC6er  1 3.950000e-01    2.700000e+00
  N1dr TC5er  1 3.950000e-01    2.500000e+00
  N1dr TC4er  1 3.950000e-01    2.500000e+00
  N1dr TC3er  1 3.950000e-01    2.310000e+00
  N1dr TC2er  1 3.950000e-01    2.110000e+00
  N1dr TC1er  1 3.950000e-01    1.850000e+00
  N1dr TX4er  1 3.950000e-01    2.500000e+00
  N1dr TX3er  1 3.950000e-01    2.500000e+00
  N1dr TX2er  1 3.950000e-01    2.310000e+00
  N1dr TX1er  1 3.950000e-01    2.310000e+00
  P6ar  TC6r  1 3.950000e-01    1.670000e+00
  P6ar  TC5r  1 3.980000e-01    1.450000e+00
  P6ar  TC4r  1 3.990000e-01    1.180000e+00
  P6ar  TC3r  1 4.010000e-01    9.830000e-01
  P6ar  TC2r  1 4.010000e-01    9.830000e-01
  P6ar  TC1r  1 4.650000e-01    7.030000e-01
  P6ar  TX4r  1 3.950000e-01    1.850000e+00
  P6ar  TX3r  1 3.950000e-01    1.850000e+00
  P6ar  TX2r  1 3.950000e-01    1.670000e+00
  P6ar  TX1r  1 3.980000e-01    1.450000e+00
  P6ar TC6vr  1 3.950000e-01    1.850000e+00
  P6ar TC5vr  1 3.950000e-01    1.670000e+00
  P6ar TC4vr  1 3.980000e-01    1.450000e+00
  P6ar TC3vr  1 3.990000e-01    1.180000e+00
  P6ar TC2vr  1 3.990000e-01    1.180000e+00
  P6ar TC1vr  1 4.040000e-01    8.300000e-01
  P6ar TX4vr  1 3.950000e-01    2.110000e+00
  P6ar TX3vr  1 3.950000e-01    2.110000e+00
  P6ar TX2vr  1 3.950000e-01    1.850000e+00
  P6ar TX1vr  1 3.950000e-01    1.670000e+00
  P6ar TC6er  1 3.980000e-01    1.450000e+00
  P6ar TC5er  1 3.990000e-01    1.180000e+00
  P6ar TC4er  1 4.010000e-01    9.830000e-01
  P6ar TC3er  1 4.040000e-01    8.300000e-01
  P6ar TC2er  1 4.040000e-01    8.300000e-01
  P6ar TC1er  1 5.110000e-01    6.590000e-01
  P6ar TX4er  1 3.950000e-01    1.670000e+00
  P6ar TX3er  1 3.950000e-01    1.670000e+00
  P6ar TX2er  1 3.980000e-01    1.450000e+00
  P6ar TX1er  1 3.990000e-01    1.180000e+00
  P5ar  TC6r  1 3.950000e-01    1.670000e+00
  P5ar  TC5r  1 3.950000e-01    1.670000e+00
  P5ar  TC4r  1 3.980000e-01    1.450000e+00
  P5ar  TC3r  1 3.990000e-01    1.180000e+00
  P5ar  TC2r  1 3.990000e-01    1.180000e+00
  P5ar  TC1r  1 4.010000e-01    9.830000e-01
  P5ar  TX4r  1 3.950000e-01    2.110000e+00
  P5ar  TX3r  1 3.950000e-01    1.850000e+00
  P5ar  TX2r  1 3.950000e-01    1.850000e+00
  P5ar  TX1r  1 3.980000e-01    1.450000e+00
  P5ar TC6vr  1 3.950000e-01    1.850000e+00
  P5ar TC5vr  1 3.950000e-01    1.850000e+00
  P5ar TC4vr  1 3.950000e-01    1.670000e+00
  P5ar TC3vr  1 3.980000e-01    1.450000e+00
  P5ar TC2vr  1 3.980000e-01    1.450000e+00
  P5ar TC1vr  1 3.990000e-01    1.180000e+00
  P5ar TX4vr  1 3.950000e-01    2.310000e+00
  P5ar TX3vr  1 3.950000e-01    2.110000e+00
  P5ar TX2vr  1 3.950000e-01    2.110000e+00
  P5ar TX1vr  1 3.950000e-01    1.670000e+00
  P5ar TC6er  1 3.980000e-01    1.450000e+00
  P5ar TC5er  1 3.980000e-01    1.450000e+00
  P5ar TC4er  1 3.990000e-01    1.180000e+00
  P5ar TC3er  1 4.010000e-01    9.830000e-01
  P5ar TC2er  1 4.010000e-01    9.830000e-01
  P5ar TC1er  1 4.040000e-01    8.300000e-01
  P5ar TX4er  1 3.950000e-01    1.850000e+00
  P5ar TX3er  1 3.950000e-01    1.670000e+00
  P5ar TX2er  1 3.950000e-01    1.670000e+00
  P5ar TX1er  1 3.990000e-01    1.180000e+00
  P4ar  TC6r  1 3.950000e-01    1.850000e+00
  P4ar  TC5r  1 3.950000e-01    1.670000e+00
  P4ar  TC4r  1 3.980000e-01    1.450000e+00
  P4ar  TC3r  1 3.990000e-01    1.180000e+00
  P4ar  TC2r  1 3.990000e-01    1.180000e+00
  P4ar  TC1r  1 4.010000e-01    9.830000e-01
  P4ar  TX4r  1 3.950000e-01    2.110000e+00
  P4ar  TX3r  1 3.950000e-01    1.850000e+00
  P4ar  TX2r  1 3.950000e-01    1.850000e+00
  P4ar  TX1r  1 3.950000e-01    1.670000e+00
  P4ar TC6vr  1 3.950000e-01    2.110000e+00
  P4ar TC5vr  1 3.950000e-01    1.850000e+00
  P4ar TC4vr  1 3.950000e-01    1.670000e+00
  P4ar TC3vr  1 3.980000e-01    1.450000e+00
  P4ar TC2vr  1 3.980000e-01    1.450000e+00
  P4ar TC1vr  1 3.990000e-01    1.180000e+00
  P4ar TX4vr  1 3.950000e-01    2.310000e+00
  P4ar TX3vr  1 3.950000e-01    2.110000e+00
  P4ar TX2vr  1 3.950000e-01    2.110000e+00
  P4ar TX1vr  1 3.950000e-01    1.850000e+00
  P4ar TC6er  1 3.950000e-01    1.670000e+00
  P4ar TC5er  1 3.980000e-01    1.450000e+00
  P4ar TC4er  1 3.990000e-01    1.180000e+00
  P4ar TC3er  1 4.010000e-01    9.830000e-01
  P4ar TC2er  1 4.010000e-01    9.830000e-01
  P4ar TC1er  1 4.040000e-01    8.300000e-01
  P4ar TX4er  1 3.950000e-01    1.850000e+00
  P4ar TX3er  1 3.950000e-01    1.670000e+00
  P4ar TX2er  1 3.950000e-01    1.670000e+00
  P4ar TX1er  1 3.980000e-01    1.450000e+00
  P3ar  TC6r  1 3.950000e-01    2.110000e+00
  P3ar  TC5r  1 3.950000e-01    1.850000e+00
  P3ar  TC4r  1 3.950000e-01    1.670000e+00
  P3ar  TC3r  1 3.990000e-01    1.180000e+00
  P3ar  TC2r  1 3.990000e-01    1.180000e+00
  P3ar  TC1r  1 4.010000e-01    9.830000e-01
  P3ar  TX4r  1 3.950000e-01    2.110000e+00
  P3ar  TX3r  1 3.950000e-01    2.110000e+00
  P3ar  TX2r  1 3.950000e-01    1.850000e+00
  P3ar  TX1r  1 3.950000e-01    1.670000e+00
  P3ar TC6vr  1 3.950000e-01    2.310000e+00
  P3ar TC5vr  1 3.950000e-01    2.110000e+00
  P3ar TC4vr  1 3.950000e-01    1.850000e+00
  P3ar TC3vr  1 3.980000e-01    1.450000e+00
  P3ar TC2vr  1 3.980000e-01    1.450000e+00
  P3ar TC1vr  1 3.990000e-01    1.180000e+00
  P3ar TX4vr  1 3.950000e-01    2.310000e+00
  P3ar TX3vr  1 3.950000e-01    2.310000e+00
  P3ar TX2vr  1 3.950000e-01    2.110000e+00
  P3ar TX1vr  1 3.950000e-01    1.850000e+00
  P3ar TC6er  1 3.950000e-01    1.850000e+00
  P3ar TC5er  1 3.950000e-01    1.670000e+00
  P3ar TC4er  1 3.980000e-01    1.450000e+00
  P3ar TC3er  1 4.010000e-01    9.830000e-01
  P3ar TC2er  1 4.010000e-01    9.830000e-01
  P3ar TC1er  1 4.040000e-01    8.300000e-01
  P3ar TX4er  1 3.950000e-01    1.850000e+00
  P3ar TX3er  1 3.950000e-01    1.850000e+00
  P3ar TX2er  1 3.950000e-01    1.670000e+00
  P3ar TX1er  1 3.980000e-01    1.450000e+00
  P2ar  TC6r  1 3.950000e-01    2.110000e+00
  P2ar  TC5r  1 3.950000e-01    1.850000e+00
  P2ar  TC4r  1 3.950000e-01    1.670000e+00
  P2ar  TC3r  1 3.980000e-01    1.450000e+00
  P2ar  TC2r  1 3.980000e-01    1.450000e+00
  P2ar  TC1r  1 3.990000e-01    1.180000e+00
  P2ar  TX4r  1 3.950000e-01    2.110000e+00
  P2ar  TX3r  1 3.950000e-01    2.110000e+00
  P2ar  TX2r  1 3.950000e-01    1.850000e+00
  P2ar  TX1r  1 3.950000e-01    1.670000e+00
  P2ar TC6vr  1 3.950000e-01    2.310000e+00
  P2ar TC5vr  1 3.950000e-01    2.110000e+00
  P2ar TC4vr  1 3.950000e-01    1.850000e+00
  P2ar TC3vr  1 3.950000e-01    1.670000e+00
  P2ar TC2vr  1 3.950000e-01    1.670000e+00
  P2ar TC1vr  1 3.980000e-01    1.450000e+00
  P2ar TX4vr  1 3.950000e-01    2.310000e+00
  P2ar TX3vr  1 3.950000e-01    2.310000e+00
  P2ar TX2vr  1 3.950000e-01    2.110000e+00
  P2ar TX1vr  1 3.950000e-01    1.850000e+00
  P2ar TC6er  1 3.950000e-01    1.850000e+00
  P2ar TC5er  1 3.950000e-01    1.670000e+00
  P2ar TC4er  1 3.980000e-01    1.450000e+00
  P2ar TC3er  1 3.990000e-01    1.180000e+00
  P2ar TC2er  1 3.990000e-01    1.180000e+00
  P2ar TC1er  1 4.010000e-01    9.830000e-01
  P2ar TX4er  1 3.950000e-01    1.850000e+00
  P2ar TX3er  1 3.950000e-01    1.850000e+00
  P2ar TX2er  1 3.950000e-01    1.670000e+00
  P2ar TX1er  1 3.980000e-01    1.450000e+00
  P1ar  TC6r  1 3.950000e-01    2.110000e+00
  P1ar  TC5r  1 3.950000e-01    1.850000e+00
  P1ar  TC4r  1 3.950000e-01    1.670000e+00
  P1ar  TC3r  1 3.980000e-01    1.450000e+00
  P1ar  TC2r  1 3.980000e-01    1.450000e+00
  P1ar  TC1r  1 3.990000e-01    1.180000e+00
  P1ar  TX4r  1 3.950000e-01    2.110000e+00
  P1ar  TX3r  1 3.950000e-01    2.110000e+00
  P1ar  TX2r  1 3.950000e-01    1.850000e+00
  P1ar  TX1r  1 3.950000e-01    1.670000e+00
  P1ar TC6vr  1 3.950000e-01    2.310000e+00
  P1ar TC5vr  1 3.950000e-01    2.110000e+00
  P1ar TC4vr  1 3.950000e-01    1.850000e+00
  P1ar TC3vr  1 3.950000e-01    1.670000e+00
  P1ar TC2vr  1 3.950000e-01    1.670000e+00
  P1ar TC1vr  1 3.980000e-01    1.450000e+00
  P1ar TX4vr  1 3.950000e-01    2.310000e+00
  P1ar TX3vr  1 3.950000e-01    2.310000e+00
  P1ar TX2vr  1 3.950000e-01    2.110000e+00
  P1ar TX1vr  1 3.950000e-01    1.850000e+00
  P1ar TC6er  1 3.950000e-01    1.850000e+00
  P1ar TC5er  1 3.950000e-01    1.670000e+00
  P1ar TC4er  1 3.980000e-01    1.450000e+00
  P1ar TC3er  1 3.990000e-01    1.180000e+00
  P1ar TC2er  1 3.990000e-01    1.180000e+00
  P1ar TC1er  1 4.010000e-01    9.830000e-01
  P1ar TX4er  1 3.950000e-01    1.850000e+00
  P1ar TX3er  1 3.950000e-01    1.850000e+00
  P1ar TX2er  1 3.950000e-01    1.670000e+00
  P1ar TX1er  1 3.980000e-01    1.450000e+00
  N6ar  TC6r  1 3.950000e-01    2.310000e+00
  N6ar  TC5r  1 3.950000e-01    2.110000e+00
  N6ar  TC4r  1 3.950000e-01    1.850000e+00
  N6ar  TC3r  1 3.950000e-01    1.670000e+00
  N6ar  TC2r  1 3.950000e-01    1.670000e+00
  N6ar  TC1r  1 3.980000e-01    1.450000e+00
  N6ar  TX4r  1 3.950000e-01    2.310000e+00
  N6ar  TX3r  1 3.950000e-01    2.110000e+00
  N6ar  TX2r  1 3.950000e-01    1.850000e+00
  N6ar  TX1r  1 3.950000e-01    1.670000e+00
  N6ar TC6vr  1 3.950000e-01    2.500000e+00
  N6ar TC5vr  1 3.950000e-01    2.310000e+00
  N6ar TC4vr  1 3.950000e-01    2.110000e+00
  N6ar TC3vr  1 3.950000e-01    1.850000e+00
  N6ar TC2vr  1 3.950000e-01    1.850000e+00
  N6ar TC1vr  1 3.950000e-01    1.670000e+00
  N6ar TX4vr  1 3.950000e-01    2.500000e+00
  N6ar TX3vr  1 3.950000e-01    2.310000e+00
  N6ar TX2vr  1 3.950000e-01    2.110000e+00
  N6ar TX1vr  1 3.950000e-01    1.850000e+00
  N6ar TC6er  1 3.950000e-01    2.110000e+00
  N6ar TC5er  1 3.950000e-01    1.850000e+00
  N6ar TC4er  1 3.950000e-01    1.670000e+00
  N6ar TC3er  1 3.980000e-01    1.450000e+00
  N6ar TC2er  1 3.980000e-01    1.450000e+00
  N6ar TC1er  1 3.990000e-01    1.180000e+00
  N6ar TX4er  1 3.950000e-01    2.110000e+00
  N6ar TX3er  1 3.950000e-01    1.850000e+00
  N6ar TX2er  1 3.950000e-01    1.670000e+00
  N6ar TX1er  1 3.980000e-01    1.450000e+00
  N5ar  TC6r  1 3.950000e-01    2.310000e+00
  N5ar  TC5r  1 3.950000e-01    2.110000e+00
  N5ar  TC4r  1 3.950000e-01    1.850000e+00
  N5ar  TC3r  1 3.950000e-01    1.850000e+00
  N5ar  TC2r  1 3.950000e-01    1.670000e+00
  N5ar  TC1r  1 3.980000e-01    1.450000e+00
  N5ar  TX4r  1 3.950000e-01    2.500000e+00
  N5ar  TX3r  1 3.950000e-01    2.310000e+00
  N5ar  TX2r  1 3.950000e-01    2.110000e+00
  N5ar  TX1r  1 3.950000e-01    1.850000e+00
  N5ar TC6vr  1 3.950000e-01    2.500000e+00
  N5ar TC5vr  1 3.950000e-01    2.310000e+00
  N5ar TC4vr  1 3.950000e-01    2.110000e+00
  N5ar TC3vr  1 3.950000e-01    2.110000e+00
  N5ar TC2vr  1 3.950000e-01    1.850000e+00
  N5ar TC1vr  1 3.950000e-01    1.670000e+00
  N5ar TX4vr  1 3.950000e-01    2.700000e+00
  N5ar TX3vr  1 3.950000e-01    2.500000e+00
  N5ar TX2vr  1 3.950000e-01    2.310000e+00
  N5ar TX1vr  1 3.950000e-01    2.110000e+00
  N5ar TC6er  1 3.950000e-01    2.110000e+00
  N5ar TC5er  1 3.950000e-01    1.850000e+00
  N5ar TC4er  1 3.950000e-01    1.670000e+00
  N5ar TC3er  1 3.950000e-01    1.670000e+00
  N5ar TC2er  1 3.980000e-01    1.450000e+00
  N5ar TC1er  1 3.990000e-01    1.180000e+00
  N5ar TX4er  1 3.950000e-01    2.310000e+00
  N5ar TX3er  1 3.950000e-01    2.110000e+00
  N5ar TX2er  1 3.950000e-01    1.850000e+00
  N5ar TX1er  1 3.950000e-01    1.670000e+00
  N4ar  TC6r  1 3.950000e-01    2.310000e+00
  N4ar  TC5r  1 3.950000e-01    2.110000e+00
  N4ar  TC4r  1 3.950000e-01    2.110000e+00
  N4ar  TC3r  1 3.950000e-01    1.850000e+00
  N4ar  TC2r  1 3.950000e-01    1.670000e+00
  N4ar  TC1r  1 3.980000e-01    1.450000e+00
  N4ar  TX4r  1 3.950000e-01    2.700000e+00
  N4ar  TX3r  1 3.950000e-01    2.500000e+00
  N4ar  TX2r  1 3.950000e-01    2.110000e+00
  N4ar  TX1r  1 3.950000e-01    1.850000e+00
  N4ar TC6vr  1 3.950000e-01    2.500000e+00
  N4ar TC5vr  1 3.950000e-01    2.310000e+00
  N4ar TC4vr  1 3.950000e-01    2.310000e+00
  N4ar TC3vr  1 3.950000e-01    2.110000e+00
  N4ar TC2vr  1 3.950000e-01    1.850000e+00
  N4ar TC1vr  1 3.950000e-01    1.670000e+00
  N4ar TX4vr  1 3.950000e-01    2.940000e+00
  N4ar TX3vr  1 3.950000e-01    2.700000e+00
  N4ar TX2vr  1 3.950000e-01    2.310000e+00
  N4ar TX1vr  1 3.950000e-01    2.110000e+00
  N4ar TC6er  1 3.950000e-01    2.110000e+00
  N4ar TC5er  1 3.950000e-01    1.850000e+00
  N4ar TC4er  1 3.950000e-01    1.850000e+00
  N4ar TC3er  1 3.950000e-01    1.670000e+00
  N4ar TC2er  1 3.980000e-01    1.450000e+00
  N4ar TC1er  1 3.990000e-01    1.180000e+00
  N4ar TX4er  1 3.950000e-01    2.500000e+00
  N4ar TX3er  1 3.950000e-01    2.310000e+00
  N4ar TX2er  1 3.950000e-01    1.850000e+00
  N4ar TX1er  1 3.950000e-01    1.670000e+00
  N3ar  TC6r  1 3.950000e-01    2.310000e+00
  N3ar  TC5r  1 3.950000e-01    2.110000e+00
  N3ar  TC4r  1 3.950000e-01    2.110000e+00
  N3ar  TC3r  1 3.950000e-01    1.850000e+00
  N3ar  TC2r  1 3.950000e-01    1.850000e+00
  N3ar  TC1r  1 3.950000e-01    1.670000e+00
  N3ar  TX4r  1 3.950000e-01    2.500000e+00
  N3ar  TX3r  1 3.950000e-01    2.310000e+00
  N3ar  TX2r  1 3.950000e-01    2.110000e+00
  N3ar  TX1r  1 3.950000e-01    2.110000e+00
  N3ar TC6vr  1 3.950000e-01    2.500000e+00
  N3ar TC5vr  1 3.950000e-01    2.310000e+00
  N3ar TC4vr  1 3.950000e-01    2.310000e+00
  N3ar TC3vr  1 3.950000e-01    2.110000e+00
  N3ar TC2vr  1 3.950000e-01    2.110000e+00
  N3ar TC1vr  1 3.950000e-01    1.850000e+00
  N3ar TX4vr  1 3.950000e-01    2.700000e+00
  N3ar TX3vr  1 3.950000e-01    2.500000e+00
  N3ar TX2vr  1 3.950000e-01    2.310000e+00
  N3ar TX1vr  1 3.950000e-01    2.310000e+00
  N3ar TC6er  1 3.950000e-01    2.110000e+00
  N3ar TC5er  1 3.950000e-01    1.850000e+00
  N3ar TC4er  1 3.950000e-01    1.850000e+00
  N3ar TC3er  1 3.950000e-01    1.670000e+00
  N3ar TC2er  1 3.950000e-01    1.670000e+00
  N3ar TC1er  1 3.980000e-01    1.450000e+00
  N3ar TX4er  1 3.950000e-01    2.310000e+00
  N3ar TX3er  1 3.950000e-01    2.110000e+00
  N3ar TX2er  1 3.950000e-01    1.850000e+00
  N3ar TX1er  1 3.950000e-01    1.850000e+00
  N2ar  TC6r  1 3.950000e-01    2.310000e+00
  N2ar  TC5r  1 3.950000e-01    2.110000e+00
  N2ar  TC4r  1 3.950000e-01    2.110000e+00
  N2ar  TC3r  1 3.950000e-01    2.110000e+00
  N2ar  TC2r  1 3.950000e-01    1.850000e+00
  N2ar  TC1r  1 3.950000e-01    1.670000e+00
  N2ar  TX4r  1 3.950000e-01    2.500000e+00
  N2ar  TX3r  1 3.950000e-01    2.310000e+00
  N2ar  TX2r  1 3.950000e-01    2.110000e+00
  N2ar  TX1r  1 3.950000e-01    2.110000e+00
  N2ar TC6vr  1 3.950000e-01    2.500000e+00
  N2ar TC5vr  1 3.950000e-01    2.310000e+00
  N2ar TC4vr  1 3.950000e-01    2.310000e+00
  N2ar TC3vr  1 3.950000e-01    2.310000e+00
  N2ar TC2vr  1 3.950000e-01    2.110000e+00
  N2ar TC1vr  1 3.950000e-01    1.850000e+00
  N2ar TX4vr  1 3.950000e-01    2.700000e+00
  N2ar TX3vr  1 3.950000e-01    2.500000e+00
  N2ar TX2vr  1 3.950000e-01    2.310000e+00
  N2ar TX1vr  1 3.950000e-01    2.310000e+00
  N2ar TC6er  1 3.950000e-01    2.110000e+00
  N2ar TC5er  1 3.950000e-01    1.850000e+00
  N2ar TC4er  1 3.950000e-01    1.850000e+00
  N2ar TC3er  1 3.950000e-01    1.850000e+00
  N2ar TC2er  1 3.950000e-01    1.670000e+00
  N2ar TC1er  1 3.980000e-01    1.450000e+00
  N2ar TX4er  1 3.950000e-01    2.310000e+00
  N2ar TX3er  1 3.950000e-01    2.110000e+00
  N2ar TX2er  1 3.950000e-01    1.850000e+00
  N2ar TX1er  1 3.950000e-01    1.850000e+00
  N1ar  TC6r  1 3.950000e-01    2.500000e+00
  N1ar  TC5r  1 3.950000e-01    2.310000e+00
  N1ar  TC4r  1 3.950000e-01    2.310000e+00
  N1ar  TC3r  1 3.950000e-01    2.110000e+00
  N1ar  TC2r  1 3.950000e-01    1.850000e+00
  N1ar  TC1r  1 3.950000e-01    1.670000e+00
  N1ar  TX4r  1 3.950000e-01    2.310000e+00
  N1ar  TX3r  1 3.950000e-01    2.310000e+00
  N1ar  TX2r  1 3.950000e-01    2.110000e+00
  N1ar  TX1r  1 3.950000e-01    2.110000e+00
  N1ar TC6vr  1 3.950000e-01    2.700000e+00
  N1ar TC5vr  1 3.950000e-01    2.500000e+00
  N1ar TC4vr  1 3.950000e-01    2.500000e+00
  N1ar TC3vr  1 3.950000e-01    2.310000e+00
  N1ar TC2vr  1 3.950000e-01    2.110000e+00
  N1ar TC1vr  1 3.950000e-01    1.850000e+00
  N1ar TX4vr  1 3.950000e-01    2.500000e+00
  N1ar TX3vr  1 3.950000e-01    2.500000e+00
  N1ar TX2vr  1 3.950000e-01    2.310000e+00
  N1ar TX1vr  1 3.950000e-01    2.310000e+00
  N1ar TC6er  1 3.950000e-01    2.310000e+00
  N1ar TC5er  1 3.950000e-01    2.110000e+00
  N1ar TC4er  1 3.950000e-01    2.110000e+00
  N1ar TC3er  1 3.950000e-01    1.850000e+00
  N1ar TC2er  1 3.950000e-01    1.670000e+00
  N1ar TC1er  1 3.980000e-01    1.450000e+00
  N1ar TX4er  1 3.950000e-01    2.110000e+00
  N1ar TX3er  1 3.950000e-01    2.110000e+00
  N1ar TX2er  1 3.950000e-01    1.850000e+00
  N1ar TX1er  1 3.950000e-01    1.850000e+00
   P6h  TP6h  1 3.950000e-01    4.540000e+00
   P5h  TP5h  1 3.950000e-01    3.910000e+00
   P4h  TP4h  1 3.950000e-01    3.670000e+00
   P3h  TP3h  1 3.950000e-01    3.430000e+00
   P2h  TP2h  1 3.950000e-01    3.430000e+00
   P1h  TP1h  1 3.950000e-01    3.190000e+00
   N6h  TN6h  1 3.950000e-01    3.190000e+00
   N5h  TN5h  1 3.950000e-01    2.940000e+00
   N4h  TN4h  1 3.950000e-01    2.940000e+00
   N3h  TN3h  1 3.950000e-01    2.700000e+00
   N2h  TN2h  1 3.950000e-01    2.700000e+00
   N1h  TN1h  1 3.950000e-01    2.700000e+00
  P6dh TP6dh  1 3.950000e-01    4.230000e+00
  P5dh TP5dh  1 3.950000e-01    3.670000e+00
  P4dh TP4dh  1 3.950000e-01    3.430000e+00
  P3dh TP3dh  1 3.950000e-01    3.190000e+00
  P2dh TP2dh  1 3.950000e-01    3.190000e+00
  P1dh TP1dh  1 3.950000e-01    2.940000e+00
  N6dh TN6dh  1 3.950000e-01    2.940000e+00
  N5dh TN5dh  1 3.950000e-01    2.700000e+00
  N4dh TN4dh  1 3.950000e-01    2.700000e+00
  N3dh TN3dh  1 3.950000e-01    2.500000e+00
  N2dh TN2dh  1 3.950000e-01    2.500000e+00
  N1dh TN1dh  1 3.950000e-01    2.500000e+00
  P6ah TP6ah  1 3.950000e-01    4.230000e+00
  P5ah TP5ah  1 3.950000e-01    3.670000e+00
  P4ah TP4ah  1 3.950000e-01    3.430000e+00
  P3ah TP3ah  1 3.950000e-01    3.190000e+00
  P2ah TP2ah  1 3.950000e-01    3.190000e+00
  P1ah TP1ah  1 3.950000e-01    2.940000e+00
  N6ah TN6ah  1 3.950000e-01    2.940000e+00
  N5ah TN5ah  1 3.950000e-01    2.700000e+00
  N4ah TN4ah  1 3.950000e-01    2.700000e+00
  N3ah TN3ah  1 3.950000e-01    2.500000e+00
  N2ah TN2ah  1 3.950000e-01    2.500000e+00
  N1ah TN1ah  1 3.950000e-01    2.500000e+00
   P6h  TP5h  1 3.950000e-01    4.230000e+00
   P6h  TP4h  1 3.950000e-01    3.910000e+00
   P6h  TP3h  1 3.950000e-01    3.670000e+00
   P6h  TP2h  1 3.950000e-01    3.670000e+00
   P6h  TP1h  1 3.950000e-01    3.430000e+00
   P6h  TN6h  1 3.950000e-01    3.190000e+00
   P6h  TN5h  1 3.950000e-01    2.700000e+00
   P6h  TN4h  1 3.950000e-01    2.500000e+00
   P6h  TN3h  1 3.950000e-01    2.310000e+00
   P6h  TN2h  1 3.950000e-01    2.110000e+00
   P6h  TN1h  1 3.950000e-01    1.850000e+00
   P6h TP6dh  1 3.950000e-01    4.540000e+00
   P6h TP5dh  1 3.950000e-01    4.230000e+00
   P6h TP4dh  1 3.950000e-01    3.910000e+00
   P6h TP3dh  1 3.950000e-01    3.670000e+00
   P6h TP2dh  1 3.950000e-01    3.670000e+00
   P6h TP1dh  1 3.950000e-01    3.430000e+00
   P6h TN6dh  1 3.950000e-01    3.190000e+00
   P6h TN5dh  1 3.950000e-01    2.700000e+00
   P6h TN4dh  1 3.950000e-01    2.500000e+00
   P6h TN3dh  1 3.950000e-01    2.310000e+00
   P6h TN2dh  1 3.950000e-01    2.110000e+00
   P6h TN1dh  1 3.950000e-01    1.850000e+00
   P6h TP6ah  1 3.950000e-01    4.540000e+00
   P6h TP5ah  1 3.950000e-01    4.230000e+00
   P6h TP4ah  1 3.950000e-01    3.910000e+00
   P6h TP3ah  1 3.950000e-01    3.670000e+00
   P6h TP2ah  1 3.950000e-01    3.670000e+00
   P6h TP1ah  1 3.950000e-01    3.430000e+00
   P6h TN6ah  1 3.950000e-01    3.190000e+00
   P6h TN5ah  1 3.950000e-01    2.700000e+00
   P6h TN4ah  1 3.950000e-01    2.500000e+00
   P6h TN3ah  1 3.950000e-01    2.310000e+00
   P6h TN2ah  1 3.950000e-01    2.110000e+00
   P6h TN1ah  1 3.950000e-01    1.850000e+00
   P5h  TP4h  1 3.950000e-01    3.670000e+00
   P5h  TP3h  1 3.950000e-01    3.430000e+00
   P5h  TP2h  1 3.950000e-01    3.430000e+00
   P5h  TP1h  1 3.950000e-01    3.190000e+00
   P5h  TN6h  1 3.950000e-01    2.940000e+00
   P5h  TN5h  1 3.950000e-01    2.700000e+00
   P5h  TN4h  1 3.950000e-01    2.700000e+00
   P5h  TN3h  1 3.950000e-01    2.310000e+00
   P5h  TN2h  1 3.950000e-01    2.110000e+00
   P5h  TN1h  1 3.950000e-01    1.850000e+00
   P5h TP5dh  1 3.950000e-01    3.910000e+00
   P5h TP4dh  1 3.950000e-01    3.670000e+00
   P5h TP3dh  1 3.950000e-01    3.430000e+00
   P5h TP2dh  1 3.950000e-01    3.430000e+00
   P5h TP1dh  1 3.950000e-01    3.190000e+00
   P5h TN6dh  1 3.950000e-01    2.940000e+00
   P5h TN5dh  1 3.950000e-01    2.700000e+00
   P5h TN4dh  1 3.950000e-01    2.700000e+00
   P5h TN3dh  1 3.950000e-01    2.310000e+00
   P5h TN2dh  1 3.950000e-01    2.110000e+00
   P5h TN1dh  1 3.950000e-01    1.850000e+00
   P5h TP5ah  1 3.950000e-01    3.910000e+00
   P5h TP4ah  1 3.950000e-01    3.670000e+00
   P5h TP3ah  1 3.950000e-01    3.430000e+00
   P5h TP2ah  1 3.950000e-01    3.430000e+00
   P5h TP1ah  1 3.950000e-01    3.190000e+00
   P5h TN6ah  1 3.950000e-01    2.940000e+00
   P5h TN5ah  1 3.950000e-01    2.700000e+00
   P5h TN4ah  1 3.950000e-01    2.700000e+00
   P5h TN3ah  1 3.950000e-01    2.310000e+00
   P5h TN2ah  1 3.950000e-01    2.110000e+00
   P5h TN1ah  1 3.950000e-01    1.850000e+00
   P4h  TP3h  1 3.950000e-01    3.430000e+00
   P4h  TP2h  1 3.950000e-01    3.430000e+00
   P4h  TP1h  1 3.950000e-01    3.190000e+00
   P4h  TN6h  1 3.950000e-01    2.940000e+00
   P4h  TN5h  1 3.950000e-01    2.700000e+00
   P4h  TN4h  1 3.950000e-01    2.700000e+00
   P4h  TN3h  1 3.950000e-01    2.500000e+00
   P4h  TN2h  1 3.950000e-01    2.310000e+00
   P4h  TN1h  1 3.950000e-01    2.110000e+00
   P4h TP4dh  1 3.950000e-01    3.670000e+00
   P4h TP3dh  1 3.950000e-01    3.430000e+00
   P4h TP2dh  1 3.950000e-01    3.430000e+00
   P4h TP1dh  1 3.950000e-01    3.190000e+00
   P4h TN6dh  1 3.950000e-01    2.940000e+00
   P4h TN5dh  1 3.950000e-01    2.700000e+00
   P4h TN4dh  1 3.950000e-01    2.700000e+00
   P4h TN3dh  1 3.950000e-01    2.500000e+00
   P4h TN2dh  1 3.950000e-01    2.310000e+00
   P4h TN1dh  1 3.950000e-01    2.110000e+00
   P4h TP4ah  1 3.950000e-01    3.670000e+00
   P4h TP3ah  1 3.950000e-01    3.430000e+00
   P4h TP2ah  1 3.950000e-01    3.430000e+00
   P4h TP1ah  1 3.950000e-01    3.190000e+00
   P4h TN6ah  1 3.950000e-01    2.940000e+00
   P4h TN5ah  1 3.950000e-01    2.700000e+00
   P4h TN4ah  1 3.950000e-01    2.700000e+00
   P4h TN3ah  1 3.950000e-01    2.500000e+00
   P4h TN2ah  1 3.950000e-01    2.310000e+00
   P4h TN1ah  1 3.950000e-01    2.110000e+00
   P3h  TP2h  1 3.950000e-01    3.430000e+00
   P3h  TP1h  1 3.950000e-01    3.190000e+00
   P3h  TN6h  1 3.950000e-01    2.940000e+00
   P3h  TN5h  1 3.950000e-01    2.700000e+00
   P3h  TN4h  1 3.950000e-01    2.700000e+00
   P3h  TN3h  1 3.950000e-01    2.500000e+00
   P3h  TN2h  1 3.950000e-01    2.500000e+00
   P3h  TN1h  1 3.950000e-01    2.310000e+00
   P3h TP3dh  1 3.950000e-01    3.430000e+00
   P3h TP2dh  1 3.950000e-01    3.430000e+00
   P3h TP1dh  1 3.950000e-01    3.190000e+00
   P3h TN6dh  1 3.950000e-01    2.940000e+00
   P3h TN5dh  1 3.950000e-01    2.700000e+00
   P3h TN4dh  1 3.950000e-01    2.700000e+00
   P3h TN3dh  1 3.950000e-01    2.500000e+00
   P3h TN2dh  1 3.950000e-01    2.500000e+00
   P3h TN1dh  1 3.950000e-01    2.310000e+00
   P3h TP3ah  1 3.950000e-01    3.430000e+00
   P3h TP2ah  1 3.950000e-01    3.430000e+00
   P3h TP1ah  1 3.950000e-01    3.190000e+00
   P3h TN6ah  1 3.950000e-01    2.940000e+00
   P3h TN5ah  1 3.950000e-01    2.700000e+00
   P3h TN4ah  1 3.950000e-01    2.700000e+00
   P3h TN3ah  1 3.950000e-01    2.500000e+00
   P3h TN2ah  1 3.950000e-01    2.500000e+00
   P3h TN1ah  1 3.950000e-01    2.310000e+00
   P2h  TP1h  1 3.950000e-01    3.190000e+00
   P2h  TN6h  1 3.950000e-01    3.190000e+00
   P2h  TN5h  1 3.950000e-01    2.940000e+00
   P2h  TN4h  1 3.950000e-01    2.700000e+00
   P2h  TN3h  1 3.950000e-01    2.500000e+00
   P2h  TN2h  1 3.950000e-01    2.500000e+00
   P2h  TN1h  1 3.950000e-01    2.500000e+00
   P2h TP2dh  1 3.950000e-01    3.430000e+00
   P2h TP1dh  1 3.950000e-01    3.190000e+00
   P2h TN6dh  1 3.950000e-01    3.190000e+00
   P2h TN5dh  1 3.950000e-01    2.940000e+00
   P2h TN4dh  1 3.950000e-01    2.700000e+00
   P2h TN3dh  1 3.950000e-01    2.500000e+00
   P2h TN2dh  1 3.950000e-01    2.500000e+00
   P2h TN1dh  1 3.950000e-01    2.500000e+00
   P2h TP2ah  1 3.950000e-01    3.430000e+00
   P2h TP1ah  1 3.950000e-01    3.190000e+00
   P2h TN6ah  1 3.950000e-01    3.190000e+00
   P2h TN5ah  1 3.950000e-01    2.940000e+00
   P2h TN4ah  1 3.950000e-01    2.700000e+00
   P2h TN3ah  1 3.950000e-01    2.500000e+00
   P2h TN2ah  1 3.950000e-01    2.500000e+00
   P2h TN1ah  1 3.950000e-01    2.500000e+00
   P1h  TN6h  1 3.950000e-01    3.190000e+00
   P1h  TN5h  1 3.950000e-01    2.940000e+00
   P1h  TN4h  1 3.950000e-01    2.940000e+00
   P1h  TN3h  1 3.950000e-01    2.500000e+00
   P1h  TN2h  1 3.950000e-01    2.500000e+00
   P1h  TN1h  1 3.950000e-01    2.500000e+00
   P1h TP1dh  1 3.950000e-01    3.190000e+00
   P1h TN6dh  1 3.950000e-01    3.190000e+00
   P1h TN5dh  1 3.950000e-01    2.940000e+00
   P1h TN4dh  1 3.950000e-01    2.940000e+00
   P1h TN3dh  1 3.950000e-01    2.500000e+00
   P1h TN2dh  1 3.950000e-01    2.500000e+00
   P1h TN1dh  1 3.950000e-01    2.500000e+00
   P1h TP1ah  1 3.950000e-01    3.190000e+00
   P1h TN6ah  1 3.950000e-01    3.190000e+00
   P1h TN5ah  1 3.950000e-01    2.940000e+00
   P1h TN4ah  1 3.950000e-01    2.940000e+00
   P1h TN3ah  1 3.950000e-01    2.500000e+00
   P1h TN2ah  1 3.950000e-01    2.500000e+00
   P1h TN1ah  1 3.950000e-01    2.500000e+00
   N6h  TN5h  1 3.950000e-01    3.190000e+00
   N6h  TN4h  1 3.950000e-01    3.190000e+00
   N6h  TN3h  1 3.950000e-01    2.700000e+00
   N6h  TN2h  1 3.950000e-01    2.500000e+00
   N6h  TN1h  1 3.950000e-01    2.500000e+00
   N6h TN6dh  1 3.950000e-01    3.190000e+00
   N6h TN5dh  1 3.950000e-01    3.190000e+00
   N6h TN4dh  1 3.950000e-01    3.190000e+00
   N6h TN3dh  1 3.950000e-01    2.700000e+00
   N6h TN2dh  1 3.950000e-01    2.500000e+00
   N6h TN1dh  1 3.950000e-01    2.500000e+00
   N6h TN6ah  1 3.950000e-01    3.190000e+00
   N6h TN5ah  1 3.950000e-01    3.190000e+00
   N6h TN4ah  1 3.950000e-01    3.190000e+00
   N6h TN3ah  1 3.950000e-01    2.700000e+00
   N6h TN2ah  1 3.950000e-01    2.500000e+00
   N6h TN1ah  1 3.950000e-01    2.500000e+00
   N5h  TN4h  1 3.950000e-01    2.940000e+00
   N5h  TN3h  1 3.950000e-01    2.700000e+00
   N5h  TN2h  1 3.950000e-01    2.700000e+00
   N5h  TN1h  1 3.950000e-01    2.500000e+00
   N5h TN5dh  1 3.950000e-01    2.940000e+00
   N5h TN4dh  1 3.950000e-01    2.940000e+00
   N5h TN3dh  1 3.950000e-01    2.700000e+00
   N5h TN2dh  1 3.950000e-01    2.700000e+00
   N5h TN1dh  1 3.950000e-01    2.500000e+00
   N5h TN5ah  1 3.950000e-01    2.940000e+00
   N5h TN4ah  1 3.950000e-01    2.940000e+00
   N5h TN3ah  1 3.950000e-01    2.700000e+00
   N5h TN2ah  1 3.950000e-01    2.700000e+00
   N5h TN1ah  1 3.950000e-01    2.500000e+00
   N4h  TN3h  1 3.950000e-01    2.700000e+00
   N4h  TN2h  1 3.950000e-01    2.700000e+00
   N4h  TN1h  1 3.950000e-01    2.500000e+00
   N4h TN4dh  1 3.950000e-01    2.940000e+00
   N4h TN3dh  1 3.950000e-01    2.700000e+00
   N4h TN2dh  1 3.950000e-01    2.700000e+00
   N4h TN1dh  1 3.950000e-01    2.500000e+00
   N4h TN4ah  1 3.950000e-01    2.940000e+00
   N4h TN3ah  1 3.950000e-01    2.700000e+00
   N4h TN2ah  1 3.950000e-01    2.700000e+00
   N4h TN1ah  1 3.950000e-01    2.500000e+00
   N3h  TN2h  1 3.950000e-01    2.700000e+00
   N3h  TN1h  1 3.950000e-01    2.500000e+00
   N3h TN3dh  1 3.950000e-01    2.700000e+00
   N3h TN2dh  1 3.950000e-01    2.700000e+00
   N3h TN1dh  1 3.950000e-01    2.500000e+00
   N3h TN3ah  1 3.950000e-01    2.700000e+00
   N3h TN2ah  1 3.950000e-01    2.700000e+00
   N3h TN1ah  1 3.950000e-01    2.500000e+00
   N2h  TN1h  1 3.950000e-01    2.500000e+00
   N2h TN2dh  1 3.950000e-01    2.700000e+00
   N2h TN1dh  1 3.950000e-01    2.500000e+00
   N2h TN2ah  1 3.950000e-01    2.700000e+00
   N2h TN1ah  1 3.950000e-01    2.500000e+00
   N1h TN1dh  1 3.950000e-01    2.700000e+00
   N1h TN1ah  1 3.950000e-01    2.700000e+00
  P6dh  TP5h  1 3.950000e-01    4.230000e+00
  P6dh  TP4h  1 3.950000e-01    3.910000e+00
  P6dh  TP3h  1 3.950000e-01    3.670000e+00
  P6dh  TP2h  1 3.950000e-01    3.670000e+00
  P6dh  TP1h  1 3.950000e-01    3.430000e+00
  P6dh  TN6h  1 3.950000e-01    3.190000e+00
  P6dh  TN5h  1 3.950000e-01    2.700000e+00
  P6dh  TN4h  1 3.950000e-01    2.500000e+00
  P6dh  TN3h  1 3.950000e-01    2.310000e+00
  P6dh  TN2h  1 3.950000e-01    2.110000e+00
  P6dh  TN1h  1 3.950000e-01    1.850000e+00
  P6dh TP5dh  1 3.950000e-01    3.910000e+00
  P6dh TP4dh  1 3.950000e-01    3.670000e+00
  P6dh TP3dh  1 3.950000e-01    3.430000e+00
  P6dh TP2dh  1 3.950000e-01    3.430000e+00
  P6dh TP1dh  1 3.950000e-01    3.190000e+00
  P6dh TN6dh  1 3.950000e-01    2.940000e+00
  P6dh TN5dh  1 3.950000e-01    2.500000e+00
  P6dh TN4dh  1 3.950000e-01    2.310000e+00
  P6dh TN3dh  1 3.950000e-01    2.310000e+00
  P6dh TN2dh  1 3.950000e-01    2.110000e+00
  P6dh TN1dh  1 3.950000e-01    1.850000e+00
  P6dh TP6ah  1 3.950000e-01    4.870000e+00
  P6dh TP5ah  1 3.950000e-01    4.540000e+00
  P6dh TP4ah  1 3.950000e-01    4.230000e+00
  P6dh TP3ah  1 3.950000e-01    3.910000e+00
  P6dh TP2ah  1 3.950000e-01    3.910000e+00
  P6dh TP1ah  1 3.950000e-01    3.670000e+00
  P6dh TN6ah  1 3.950000e-01    3.430000e+00
  P6dh TN5ah  1 3.950000e-01    2.940000e+00
  P6dh TN4ah  1 3.950000e-01    2.700000e+00
  P6dh TN3ah  1 3.950000e-01    2.310000e+00
  P6dh TN2ah  1 3.950000e-01    2.110000e+00
  P6dh TN1ah  1 3.950000e-01    1.850000e+00
  P5dh  TP4h  1 3.950000e-01    3.670000e+00
  P5dh  TP3h  1 3.950000e-01    3.430000e+00
  P5dh  TP2h  1 3.950000e-01    3.430000e+00
  P5dh  TP1h  1 3.950000e-01    3.190000e+00
  P5dh  TN6h  1 3.950000e-01    2.940000e+00
  P5dh  TN5h  1 3.950000e-01    2.700000e+00
  P5dh  TN4h  1 3.950000e-01    2.700000e+00
  P5dh  TN3h  1 3.950000e-01    2.310000e+00
  P5dh  TN2h  1 3.950000e-01    2.110000e+00
  P5dh  TN1h  1 3.950000e-01    1.850000e+00
  P5dh TP4dh  1 3.950000e-01    3.430000e+00
  P5dh TP3dh  1 3.950000e-01    3.190000e+00
  P5dh TP2dh  1 3.950000e-01    3.190000e+00
  P5dh TP1dh  1 3.950000e-01    2.940000e+00
  P5dh TN6dh  1 3.950000e-01    2.700000e+00
  P5dh TN5dh  1 3.950000e-01    2.500000e+00
  P5dh TN4dh  1 3.950000e-01    2.500000e+00
  P5dh TN3dh  1 3.950000e-01    2.310000e+00
  P5dh TN2dh  1 3.950000e-01    2.110000e+00
  P5dh TN1dh  1 3.950000e-01    1.850000e+00
  P5dh TP5ah  1 3.950000e-01    4.230000e+00
  P5dh TP4ah  1 3.950000e-01    3.910000e+00
  P5dh TP3ah  1 3.950000e-01    3.670000e+00
  P5dh TP2ah  1 3.950000e-01    3.670000e+00
  P5dh TP1ah  1 3.950000e-01    3.430000e+00
  P5dh TN6ah  1 3.950000e-01    3.190000e+00
  P5dh TN5ah  1 3.950000e-01    2.940000e+00
  P5dh TN4ah  1 3.950000e-01    2.940000e+00
  P5dh TN3ah  1 3.950000e-01    2.310000e+00
  P5dh TN2ah  1 3.950000e-01    2.110000e+00
  P5dh TN1ah  1 3.950000e-01    1.850000e+00
  P4dh  TP3h  1 3.950000e-01    3.430000e+00
  P4dh  TP2h  1 3.950000e-01    3.430000e+00
  P4dh  TP1h  1 3.950000e-01    3.190000e+00
  P4dh  TN6h  1 3.950000e-01    2.940000e+00
  P4dh  TN5h  1 3.950000e-01    2.700000e+00
  P4dh  TN4h  1 3.950000e-01    2.700000e+00
  P4dh  TN3h  1 3.950000e-01    2.500000e+00
  P4dh  TN2h  1 3.950000e-01    2.310000e+00
  P4dh  TN1h  1 3.950000e-01    2.110000e+00
  P4dh TP3dh  1 3.950000e-01    3.190000e+00
  P4dh TP2dh  1 3.950000e-01    3.190000e+00
  P4dh TP1dh  1 3.950000e-01    2.940000e+00
  P4dh TN6dh  1 3.950000e-01    2.700000e+00
  P4dh TN5dh  1 3.950000e-01    2.500000e+00
  P4dh TN4dh  1 3.950000e-01    2.500000e+00
  P4dh TN3dh  1 3.950000e-01    2.310000e+00
  P4dh TN2dh  1 3.950000e-01    2.310000e+00
  P4dh TN1dh  1 3.950000e-01    2.110000e+00
  P4dh TP4ah  1 3.950000e-01    3.910000e+00
  P4dh TP3ah  1 3.950000e-01    3.670000e+00
  P4dh TP2ah  1 3.950000e-01    3.670000e+00
  P4dh TP1ah  1 3.950000e-01    3.430000e+00
  P4dh TN6ah  1 3.950000e-01    3.190000e+00
  P4dh TN5ah  1 3.950000e-01    2.940000e+00
  P4dh TN4ah  1 3.950000e-01    2.940000e+00
  P4dh TN3ah  1 3.950000e-01    2.700000e+00
  P4dh TN2ah  1 3.950000e-01    2.310000e+00
  P4dh TN1ah  1 3.950000e-01    2.110000e+00
  P3dh  TP2h  1 3.950000e-01    3.430000e+00
  P3dh  TP1h  1 3.950000e-01    3.190000e+00
  P3dh  TN6h  1 3.950000e-01    2.940000e+00
  P3dh  TN5h  1 3.950000e-01    2.700000e+00
  P3dh  TN4h  1 3.950000e-01    2.700000e+00
  P3dh  TN3h  1 3.950000e-01    2.500000e+00
  P3dh  TN2h  1 3.950000e-01    2.500000e+00
  P3dh  TN1h  1 3.950000e-01    2.310000e+00
  P3dh TP2dh  1 3.950000e-01    3.190000e+00
  P3dh TP1dh  1 3.950000e-01    2.940000e+00
  P3dh TN6dh  1 3.950000e-01    2.700000e+00
  P3dh TN5dh  1 3.950000e-01    2.500000e+00
  P3dh TN4dh  1 3.950000e-01    2.500000e+00
  P3dh TN3dh  1 3.950000e-01    2.310000e+00
  P3dh TN2dh  1 3.950000e-01    2.310000e+00
  P3dh TN1dh  1 3.950000e-01    2.310000e+00
  P3dh TP3ah  1 3.950000e-01    3.670000e+00
  P3dh TP2ah  1 3.950000e-01    3.670000e+00
  P3dh TP1ah  1 3.950000e-01    3.430000e+00
  P3dh TN6ah  1 3.950000e-01    3.190000e+00
  P3dh TN5ah  1 3.950000e-01    2.940000e+00
  P3dh TN4ah  1 3.950000e-01    2.940000e+00
  P3dh TN3ah  1 3.950000e-01    2.700000e+00
  P3dh TN2ah  1 3.950000e-01    2.700000e+00
  P3dh TN1ah  1 3.950000e-01    2.310000e+00
  P2dh  TP1h  1 3.950000e-01    3.190000e+00
  P2dh  TN6h  1 3.950000e-01    3.190000e+00
  P2dh  TN5h  1 3.950000e-01    2.940000e+00
  P2dh  TN4h  1 3.950000e-01    2.700000e+00
  P2dh  TN3h  1 3.950000e-01    2.500000e+00
  P2dh  TN2h  1 3.950000e-01    2.500000e+00
  P2dh  TN1h  1 3.950000e-01    2.500000e+00
  P2dh TP1dh  1 3.950000e-01    2.940000e+00
  P2dh TN6dh  1 3.950000e-01    2.940000e+00
  P2dh TN5dh  1 3.950000e-01    2.700000e+00
  P2dh TN4dh  1 3.950000e-01    2.500000e+00
  P2dh TN3dh  1 3.950000e-01    2.310000e+00
  P2dh TN2dh  1 3.950000e-01    2.310000e+00
  P2dh TN1dh  1 3.950000e-01    2.310000e+00
  P2dh TP2ah  1 3.950000e-01    3.670000e+00
  P2dh TP1ah  1 3.950000e-01    3.430000e+00
  P2dh TN6ah  1 3.950000e-01    3.430000e+00
  P2dh TN5ah  1 3.950000e-01    3.190000e+00
  P2dh TN4ah  1 3.950000e-01    2.940000e+00
  P2dh TN3ah  1 3.950000e-01    2.700000e+00
  P2dh TN2ah  1 3.950000e-01    2.700000e+00
  P2dh TN1ah  1 3.950000e-01    2.700000e+00
  P1dh  TN6h  1 3.950000e-01    3.190000e+00
  P1dh  TN5h  1 3.950000e-01    2.940000e+00
  P1dh  TN4h  1 3.950000e-01    2.940000e+00
  P1dh  TN3h  1 3.950000e-01    2.500000e+00
  P1dh  TN2h  1 3.950000e-01    2.500000e+00
  P1dh  TN1h  1 3.950000e-01    2.500000e+00
  P1dh TN6dh  1 3.950000e-01    2.940000e+00
  P1dh TN5dh  1 3.950000e-01    2.700000e+00
  P1dh TN4dh  1 3.950000e-01    2.700000e+00
  P1dh TN3dh  1 3.950000e-01    2.310000e+00
  P1dh TN2dh  1 3.950000e-01    2.310000e+00
  P1dh TN1dh  1 3.950000e-01    2.310000e+00
  P1dh TP1ah  1 3.950000e-01    3.430000e+00
  P1dh TN6ah  1 3.950000e-01    3.430000e+00
  P1dh TN5ah  1 3.950000e-01    3.190000e+00
  P1dh TN4ah  1 3.950000e-01    3.190000e+00
  P1dh TN3ah  1 3.950000e-01    2.700000e+00
  P1dh TN2ah  1 3.950000e-01    2.700000e+00
  P1dh TN1ah  1 3.950000e-01    2.700000e+00
  N6dh  TN5h  1 3.950000e-01    3.190000e+00
  N6dh  TN4h  1 3.950000e-01    3.190000e+00
  N6dh  TN3h  1 3.950000e-01    2.700000e+00
  N6dh  TN2h  1 3.950000e-01    2.500000e+00
  N6dh  TN1h  1 3.950000e-01    2.500000e+00
  N6dh TN5dh  1 3.950000e-01    2.940000e+00
  N6dh TN4dh  1 3.950000e-01    2.940000e+00
  N6dh TN3dh  1 3.950000e-01    2.500000e+00
  N6dh TN2dh  1 3.950000e-01    2.310000e+00
  N6dh TN1dh  1 3.950000e-01    2.310000e+00
  N6dh TN6ah  1 3.950000e-01    3.430000e+00
  N6dh TN5ah  1 3.950000e-01    3.430000e+00
  N6dh TN4ah  1 3.950000e-01    3.430000e+00
  N6dh TN3ah  1 3.950000e-01    2.940000e+00
  N6dh TN2ah  1 3.950000e-01    2.700000e+00
  N6dh TN1ah  1 3.950000e-01    2.700000e+00
  N5dh  TN4h  1 3.950000e-01    2.940000e+00
  N5dh  TN3h  1 3.950000e-01    2.700000e+00
  N5dh  TN2h  1 3.950000e-01    2.700000e+00
  N5dh  TN1h  1 3.950000e-01    2.500000e+00
  N5dh TN4dh  1 3.950000e-01    2.700000e+00
  N5dh TN3dh  1 3.950000e-01    2.500000e+00
  N5dh TN2dh  1 3.950000e-01    2.500000e+00
  N5dh TN1dh  1 3.950000e-01    2.310000e+00
  N5dh TN5ah  1 3.950000e-01    3.190000e+00
  N5dh TN4ah  1 3.950000e-01    3.190000e+00
  N5dh TN3ah  1 3.950000e-01    2.940000e+00
  N5dh TN2ah  1 3.950000e-01    2.940000e+00
  N5dh TN1ah  1 3.950000e-01    2.700000e+00
  N4dh  TN3h  1 3.950000e-01    2.700000e+00
  N4dh  TN2h  1 3.950000e-01    2.700000e+00
  N4dh  TN1h  1 3.950000e-01    2.500000e+00
  N4dh TN3dh  1 3.950000e-01    2.500000e+00
  N4dh TN2dh  1 3.950000e-01    2.500000e+00
  N4dh TN1dh  1 3.950000e-01    2.310000e+00
  N4dh TN4ah  1 3.950000e-01    3.190000e+00
  N4dh TN3ah  1 3.950000e-01    2.940000e+00
  N4dh TN2ah  1 3.950000e-01    2.940000e+00
  N4dh TN1ah  1 3.950000e-01    2.700000e+00
  N3dh  TN2h  1 3.950000e-01    2.700000e+00
  N3dh  TN1h  1 3.950000e-01    2.500000e+00
  N3dh TN2dh  1 3.950000e-01    2.500000e+00
  N3dh TN1dh  1 3.950000e-01    2.310000e+00
  N3dh TN3ah  1 3.950000e-01    2.940000e+00
  N3dh TN2ah  1 3.950000e-01    2.940000e+00
  N3dh TN1ah  1 3.950000e-01    2.700000e+00
  N2dh  TN1h  1 3.950000e-01    2.500000e+00
  N2dh TN1dh  1 3.950000e-01    2.310000e+00
  N2dh TN2ah  1 3.950000e-01    2.940000e+00
  N2dh TN1ah  1 3.950000e-01    2.700000e+00
  N1dh TN1ah  1 3.950000e-01    2.940000e+00
  P6ah  TP5h  1 3.950000e-01    4.230000e+00
  P6ah  TP4h  1 3.950000e-01    3.910000e+00
  P6ah  TP3h  1 3.950000e-01    3.670000e+00
  P6ah  TP2h  1 3.950000e-01    3.670000e+00
  P6ah  TP1h  1 3.950000e-01    3.430000e+00
  P6ah  TN6h  1 3.950000e-01    3.190000e+00
  P6ah  TN5h  1 3.950000e-01    2.700000e+00
  P6ah  TN4h  1 3.950000e-01    2.500000e+00
  P6ah  TN3h  1 3.950000e-01    2.310000e+00
  P6ah  TN2h  1 3.950000e-01    2.110000e+00
  P6ah  TN1h  1 3.950000e-01    1.850000e+00
  P6ah TP5dh  1 3.950000e-01    4.540000e+00
  P6ah TP4dh  1 3.950000e-01    4.230000e+00
  P6ah TP3dh  1 3.950000e-01    3.910000e+00
  P6ah TP2dh  1 3.950000e-01    3.910000e+00
  P6ah TP1dh  1 3.950000e-01    3.670000e+00
  P6ah TN6dh  1 3.950000e-01    3.430000e+00
  P6ah TN5dh  1 3.950000e-01    2.940000e+00
  P6ah TN4dh  1 3.950000e-01    2.700000e+00
  P6ah TN3dh  1 3.950000e-01    2.310000e+00
  P6ah TN2dh  1 3.950000e-01    2.110000e+00
  P6ah TN1dh  1 3.950000e-01    1.850000e+00
  P6ah TP5ah  1 3.950000e-01    3.910000e+00
  P6ah TP4ah  1 3.950000e-01    3.670000e+00
  P6ah TP3ah  1 3.950000e-01    3.430000e+00
  P6ah TP2ah  1 3.950000e-01    3.430000e+00
  P6ah TP1ah  1 3.950000e-01    3.190000e+00
  P6ah TN6ah  1 3.950000e-01    2.940000e+00
  P6ah TN5ah  1 3.950000e-01    2.500000e+00
  P6ah TN4ah  1 3.950000e-01    2.310000e+00
  P6ah TN3ah  1 3.950000e-01    2.310000e+00
  P6ah TN2ah  1 3.950000e-01    2.110000e+00
  P6ah TN1ah  1 3.950000e-01    1.850000e+00
  P5ah  TP4h  1 3.950000e-01    3.670000e+00
  P5ah  TP3h  1 3.950000e-01    3.430000e+00
  P5ah  TP2h  1 3.950000e-01    3.430000e+00
  P5ah  TP1h  1 3.950000e-01    3.190000e+00
  P5ah  TN6h  1 3.950000e-01    2.940000e+00
  P5ah  TN5h  1 3.950000e-01    2.700000e+00
  P5ah  TN4h  1 3.950000e-01    2.700000e+00
  P5ah  TN3h  1 3.950000e-01    2.310000e+00
  P5ah  TN2h  1 3.950000e-01    2.110000e+00
  P5ah  TN1h  1 3.950000e-01    1.850000e+00
  P5ah TP4dh  1 3.950000e-01    3.910000e+00
  P5ah TP3dh  1 3.950000e-01    3.670000e+00
  P5ah TP2dh  1 3.950000e-01    3.670000e+00
  P5ah TP1dh  1 3.950000e-01    3.430000e+00
  P5ah TN6dh  1 3.950000e-01    3.190000e+00
  P5ah TN5dh  1 3.950000e-01    2.940000e+00
  P5ah TN4dh  1 3.950000e-01    2.940000e+00
  P5ah TN3dh  1 3.950000e-01    2.310000e+00
  P5ah TN2dh  1 3.950000e-01    2.110000e+00
  P5ah TN1dh  1 3.950000e-01    1.850000e+00
  P5ah TP4ah  1 3.950000e-01    3.430000e+00
  P5ah TP3ah  1 3.950000e-01    3.190000e+00
  P5ah TP2ah  1 3.950000e-01    3.190000e+00
  P5ah TP1ah  1 3.950000e-01    2.940000e+00
  P5ah TN6ah  1 3.950000e-01    2.700000e+00
  P5ah TN5ah  1 3.950000e-01    2.500000e+00
  P5ah TN4ah  1 3.950000e-01    2.500000e+00
  P5ah TN3ah  1 3.950000e-01    2.310000e+00
  P5ah TN2ah  1 3.950000e-01    2.110000e+00
  P5ah TN1ah  1 3.950000e-01    1.850000e+00
  P4ah  TP3h  1 3.950000e-01    3.430000e+00
  P4ah  TP2h  1 3.950000e-01    3.430000e+00
  P4ah  TP1h  1 3.950000e-01    3.190000e+00
  P4ah  TN6h  1 3.950000e-01    2.940000e+00
  P4ah  TN5h  1 3.950000e-01    2.700000e+00
  P4ah  TN4h  1 3.950000e-01    2.700000e+00
  P4ah  TN3h  1 3.950000e-01    2.500000e+00
  P4ah  TN2h  1 3.950000e-01    2.310000e+00
  P4ah  TN1h  1 3.950000e-01    2.110000e+00
  P4ah TP3dh  1 3.950000e-01    3.670000e+00
  P4ah TP2dh  1 3.950000e-01    3.670000e+00
  P4ah TP1dh  1 3.950000e-01    3.430000e+00
  P4ah TN6dh  1 3.950000e-01    3.190000e+00
  P4ah TN5dh  1 3.950000e-01    2.940000e+00
  P4ah TN4dh  1 3.950000e-01    2.940000e+00
  P4ah TN3dh  1 3.950000e-01    2.700000e+00
  P4ah TN2dh  1 3.950000e-01    2.310000e+00
  P4ah TN1dh  1 3.950000e-01    2.110000e+00
  P4ah TP3ah  1 3.950000e-01    3.190000e+00
  P4ah TP2ah  1 3.950000e-01    3.190000e+00
  P4ah TP1ah  1 3.950000e-01    2.940000e+00
  P4ah TN6ah  1 3.950000e-01    2.700000e+00
  P4ah TN5ah  1 3.950000e-01    2.500000e+00
  P4ah TN4ah  1 3.950000e-01    2.500000e+00
  P4ah TN3ah  1 3.950000e-01    2.310000e+00
  P4ah TN2ah  1 3.950000e-01    2.310000e+00
  P4ah TN1ah  1 3.950000e-01    2.110000e+00
  P3ah  TP2h  1 3.950000e-01    3.430000e+00
  P3ah  TP1h  1 3.950000e-01    3.190000e+00
  P3ah  TN6h  1 3.950000e-01    2.940000e+00
  P3ah  TN5h  1 3.950000e-01    2.700000e+00
  P3ah  TN4h  1 3.950000e-01    2.700000e+00
  P3ah  TN3h  1 3.950000e-01    2.500000e+00
  P3ah  TN2h  1 3.950000e-01    2.500000e+00
  P3ah  TN1h  1 3.950000e-01    2.310000e+00
  P3ah TP2dh  1 3.950000e-01    3.670000e+00
  P3ah TP1dh  1 3.950000e-01    3.430000e+00
  P3ah TN6dh  1 3.950000e-01    3.190000e+00
  P3ah TN5dh  1 3.950000e-01    2.940000e+00
  P3ah TN4dh  1 3.950000e-01    2.940000e+00
  P3ah TN3dh  1 3.950000e-01    2.700000e+00
  P3ah TN2dh  1 3.950000e-01    2.700000e+00
  P3ah TN1dh  1 3.950000e-01    2.310000e+00
  P3ah TP2ah  1 3.950000e-01    3.190000e+00
  P3ah TP1ah  1 3.950000e-01    2.940000e+00
  P3ah TN6ah  1 3.950000e-01    2.700000e+00
  P3ah TN5ah  1 3.950000e-01    2.500000e+00
  P3ah TN4ah  1 3.950000e-01    2.500000e+00
  P3ah TN3ah  1 3.950000e-01    2.310000e+00
  P3ah TN2ah  1 3.950000e-01    2.310000e+00
  P3ah TN1ah  1 3.950000e-01    2.310000e+00
  P2ah  TP1h  1 3.950000e-01    3.190000e+00
  P2ah  TN6h  1 3.950000e-01    3.190000e+00
  P2ah  TN5h  1 3.950000e-01    2.940000e+00
  P2ah  TN4h  1 3.950000e-01    2.700000e+00
  P2ah  TN3h  1 3.950000e-01    2.500000e+00
  P2ah  TN2h  1 3.950000e-01    2.500000e+00
  P2ah  TN1h  1 3.950000e-01    2.500000e+00
  P2ah TP1dh  1 3.950000e-01    3.430000e+00
  P2ah TN6dh  1 3.950000e-01    3.430000e+00
  P2ah TN5dh  1 3.950000e-01    3.190000e+00
  P2ah TN4dh  1 3.950000e-01    2.940000e+00
  P2ah TN3dh  1 3.950000e-01    2.700000e+00
  P2ah TN2dh  1 3.950000e-01    2.700000e+00
  P2ah TN1dh  1 3.950000e-01    2.700000e+00
  P2ah TP1ah  1 3.950000e-01    2.940000e+00
  P2ah TN6ah  1 3.950000e-01    2.940000e+00
  P2ah TN5ah  1 3.950000e-01    2.700000e+00
  P2ah TN4ah  1 3.950000e-01    2.500000e+00
  P2ah TN3ah  1 3.950000e-01    2.310000e+00
  P2ah TN2ah  1 3.950000e-01    2.310000e+00
  P2ah TN1ah  1 3.950000e-01    2.310000e+00
  P1ah  TN6h  1 3.950000e-01    3.190000e+00
  P1ah  TN5h  1 3.950000e-01    2.940000e+00
  P1ah  TN4h  1 3.950000e-01    2.940000e+00
  P1ah  TN3h  1 3.950000e-01    2.500000e+00
  P1ah  TN2h  1 3.950000e-01    2.500000e+00
  P1ah  TN1h  1 3.950000e-01    2.500000e+00
  P1ah TN6dh  1 3.950000e-01    3.430000e+00
  P1ah TN5dh  1 3.950000e-01    3.190000e+00
  P1ah TN4dh  1 3.950000e-01    3.190000e+00
  P1ah TN3dh  1 3.950000e-01    2.700000e+00
  P1ah TN2dh  1 3.950000e-01    2.700000e+00
  P1ah TN1dh  1 3.950000e-01    2.700000e+00
  P1ah TN6ah  1 3.950000e-01    2.940000e+00
  P1ah TN5ah  1 3.950000e-01    2.700000e+00
  P1ah TN4ah  1 3.950000e-01    2.700000e+00
  P1ah TN3ah  1 3.950000e-01    2.310000e+00
  P1ah TN2ah  1 3.950000e-01    2.310000e+00
  P1ah TN1ah  1 3.950000e-01    2.310000e+00
  N6ah  TN5h  1 3.950000e-01    3.190000e+00
  N6ah  TN4h  1 3.950000e-01    3.190000e+00
  N6ah  TN3h  1 3.950000e-01    2.700000e+00
  N6ah  TN2h  1 3.950000e-01    2.500000e+00
  N6ah  TN1h  1 3.950000e-01    2.500000e+00
  N6ah TN5dh  1 3.950000e-01    3.430000e+00
  N6ah TN4dh  1 3.950000e-01    3.430000e+00
  N6ah TN3dh  1 3.950000e-01    2.940000e+00
  N6ah TN2dh  1 3.950000e-01    2.700000e+00
  N6ah TN1dh  1 3.950000e-01    2.700000e+00
  N6ah TN5ah  1 3.950000e-01    2.940000e+00
  N6ah TN4ah  1 3.950000e-01    2.940000e+00
  N6ah TN3ah  1 3.950000e-01    2.500000e+00
  N6ah TN2ah  1 3.950000e-01    2.310000e+00
  N6ah TN1ah  1 3.950000e-01    2.310000e+00
  N5ah  TN4h  1 3.950000e-01    2.940000e+00
  N5ah  TN3h  1 3.950000e-01    2.700000e+00
  N5ah  TN2h  1 3.950000e-01    2.700000e+00
  N5ah  TN1h  1 3.950000e-01    2.500000e+00
  N5ah TN4dh  1 3.950000e-01    3.190000e+00
  N5ah TN3dh  1 3.950000e-01    2.940000e+00
  N5ah TN2dh  1 3.950000e-01    2.940000e+00
  N5ah TN1dh  1 3.950000e-01    2.700000e+00
  N5ah TN4ah  1 3.950000e-01    2.700000e+00
  N5ah TN3ah  1 3.950000e-01    2.500000e+00
  N5ah TN2ah  1 3.950000e-01    2.500000e+00
  N5ah TN1ah  1 3.950000e-01    2.310000e+00
  N4ah  TN3h  1 3.950000e-01    2.700000e+00
  N4ah  TN2h  1 3.950000e-01    2.700000e+00
  N4ah  TN1h  1 3.950000e-01    2.500000e+00
  N4ah TN3dh  1 3.950000e-01    2.940000e+00
  N4ah TN2dh  1 3.950000e-01    2.940000e+00
  N4ah TN1dh  1 3.950000e-01    2.700000e+00
  N4ah TN3ah  1 3.950000e-01    2.500000e+00
  N4ah TN2ah  1 3.950000e-01    2.500000e+00
  N4ah TN1ah  1 3.950000e-01    2.310000e+00
  N3ah  TN2h  1 3.950000e-01    2.700000e+00
  N3ah  TN1h  1 3.950000e-01    2.500000e+00
  N3ah TN2dh  1 3.950000e-01    2.940000e+00
  N3ah TN1dh  1 3.950000e-01    2.700000e+00
  N3ah TN2ah  1 3.950000e-01    2.500000e+00
  N3ah TN1ah  1 3.950000e-01    2.310000e+00
  N2ah  TN1h  1 3.950000e-01    2.500000e+00
  N2ah TN1dh  1 3.950000e-01    2.700000e+00
  N2ah TN1ah  1 3.950000e-01    2.310000e+00
   C6h  TC6h  1 3.950000e-01    2.700000e+00
   C5h  TC5h  1 3.950000e-01    2.500000e+00
   C4h  TC4h  1 3.950000e-01    2.500000e+00
   C3h  TC3h  1 3.950000e-01    2.500000e+00
   C2h  TC2h  1 3.950000e-01    2.500000e+00
   C1h  TC1h  1 3.950000e-01    2.500000e+00
   X4h  TX4h  1 3.950000e-01    2.500000e+00
   X3h  TX3h  1 3.950000e-01    2.500000e+00
   X2h  TX2h  1 3.950000e-01    2.700000e+00
   X1h  TX1h  1 3.950000e-01    2.940000e+00
  C6vh TC6vh  1 3.950000e-01    2.500000e+00
  C5vh TC5vh  1 3.950000e-01    2.310000e+00
  C4vh TC4vh  1 3.950000e-01    2.310000e+00
  C3vh TC3vh  1 3.950000e-01    2.310000e+00
  C2vh TC2vh  1 3.950000e-01    2.310000e+00
  C1vh TC1vh  1 3.950000e-01    2.310000e+00
  X4vh TX4vh  1 3.950000e-01    2.310000e+00
  X3vh TX3vh  1 3.950000e-01    2.310000e+00
  X2vh TX2vh  1 3.950000e-01    2.500000e+00
  X1vh TX1vh  1 3.950000e-01    2.700000e+00
  C6eh TC6eh  1 3.950000e-01    2.500000e+00
  C5eh TC5eh  1 3.950000e-01    2.310000e+00
  C4eh TC4eh  1 3.950000e-01    2.310000e+00
  C3eh TC3eh  1 3.950000e-01    2.310000e+00
  C2eh TC2eh  1 3.950000e-01    2.310000e+00
  C1eh TC1eh  1 3.950000e-01    2.310000e+00
  X4eh TX4eh  1 3.950000e-01    2.310000e+00
  X3eh TX3eh  1 3.950000e-01    2.310000e+00
  X2eh TX2eh  1 3.950000e-01    2.500000e+00
  X1eh TX1eh  1 3.950000e-01    2.700000e+00
   C6h  TC5h  1 3.950000e-01    2.500000e+00
   C6h  TC4h  1 3.950000e-01    2.500000e+00
   C6h  TC3h  1 3.950000e-01    2.310000e+00
   C6h  TC2h  1 3.950000e-01    2.110000e+00
   C6h  TC1h  1 3.950000e-01    1.850000e+00
   C6h  TX4h  1 3.950000e-01    2.500000e+00
   C6h  TX3h  1 3.950000e-01    2.500000e+00
   C6h  TX2h  1 3.950000e-01    2.500000e+00
   C6h  TX1h  1 3.950000e-01    2.500000e+00
   C6h TC6vh  1 3.950000e-01    2.940000e+00
   C6h TC5vh  1 3.950000e-01    2.700000e+00
   C6h TC4vh  1 3.950000e-01    2.700000e+00
   C6h TC3vh  1 3.950000e-01    2.500000e+00
   C6h TC2vh  1 3.950000e-01    2.310000e+00
   C6h TC1vh  1 3.950000e-01    2.110000e+00
   C6h TX4vh  1 3.950000e-01    2.700000e+00
   C6h TX3vh  1 3.950000e-01    2.700000e+00
   C6h TX2vh  1 3.950000e-01    2.700000e+00
   C6h TX1vh  1 3.950000e-01    2.700000e+00
   C6h TC6eh  1 3.950000e-01    2.940000e+00
   C6h TC5eh  1 3.950000e-01    2.700000e+00
   C6h TC4eh  1 3.950000e-01    2.700000e+00
   C6h TC3eh  1 3.950000e-01    2.500000e+00
   C6h TC2eh  1 3.950000e-01    2.310000e+00
   C6h TC1eh  1 3.950000e-01    2.110000e+00
   C6h TX4eh  1 3.950000e-01    2.700000e+00
   C6h TX3eh  1 3.950000e-01    2.700000e+00
   C6h TX2eh  1 3.950000e-01    2.700000e+00
   C6h TX1eh  1 3.950000e-01    2.700000e+00
   C5h  TC4h  1 3.950000e-01    2.500000e+00
   C5h  TC3h  1 3.950000e-01    2.310000e+00
   C5h  TC2h  1 3.950000e-01    2.110000e+00
   C5h  TC1h  1 3.950000e-01    2.110000e+00
   C5h  TX4h  1 3.950000e-01    2.310000e+00
   C5h  TX3h  1 3.950000e-01    2.310000e+00
   C5h  TX2h  1 3.950000e-01    2.310000e+00
   C5h  TX1h  1 3.950000e-01    2.500000e+00
   C5h TC5vh  1 3.950000e-01    2.700000e+00
   C5h TC4vh  1 3.950000e-01    2.700000e+00
   C5h TC3vh  1 3.950000e-01    2.500000e+00
   C5h TC2vh  1 3.950000e-01    2.310000e+00
   C5h TC1vh  1 3.950000e-01    2.310000e+00
   C5h TX4vh  1 3.950000e-01    2.500000e+00
   C5h TX3vh  1 3.950000e-01    2.500000e+00
   C5h TX2vh  1 3.950000e-01    2.500000e+00
   C5h TX1vh  1 3.950000e-01    2.700000e+00
   C5h TC5eh  1 3.950000e-01    2.700000e+00
   C5h TC4eh  1 3.950000e-01    2.700000e+00
   C5h TC3eh  1 3.950000e-01    2.500000e+00
   C5h TC2eh  1 3.950000e-01    2.310000e+00
   C5h TC1eh  1 3.950000e-01    2.310000e+00
   C5h TX4eh  1 3.950000e-01    2.500000e+00
   C5h TX3eh  1 3.950000e-01    2.500000e+00
   C5h TX2eh  1 3.950000e-01    2.500000e+00
   C5h TX1eh  1 3.950000e-01    2.700000e+00
   C4h  TC3h  1 3.950000e-01    2.500000e+00
   C4h  TC2h  1 3.950000e-01    2.310000e+00
   C4h  TC1h  1 3.950000e-01    2.110000e+00
   C4h  TX4h  1 3.950000e-01    2.310000e+00
   C4h  TX3h  1 3.950000e-01    2.310000e+00
   C4h  TX2h  1 3.950000e-01    2.310000e+00
   C4h  TX1h  1 3.950000e-01    2.500000e+00
   C4h TC4vh  1 3.950000e-01    2.700000e+00
   C4h TC3vh  1 3.950000e-01    2.700000e+00
   C4h TC2vh  1 3.950000e-01    2.500000e+00
   C4h TC1vh  1 3.950000e-01    2.310000e+00
   C4h TX4vh  1 3.950000e-01    2.500000e+00
   C4h TX3vh  1 3.950000e-01    2.500000e+00
   C4h TX2vh  1 3.950000e-01    2.500000e+00
   C4h TX1vh  1 3.950000e-01    2.700000e+00
   C4h TC4eh  1 3.950000e-01    2.700000e+00
   C4h TC3eh  1 3.950000e-01    2.700000e+00
   C4h TC2eh  1 3.950000e-01    2.500000e+00
   C4h TC1eh  1 3.950000e-01    2.310000e+00
   C4h TX4eh  1 3.950000e-01    2.500000e+00
   C4h TX3eh  1 3.950000e-01    2.500000e+00
   C4h TX2eh  1 3.950000e-01    2.500000e+00
   C4h TX1eh  1 3.950000e-01    2.700000e+00
   C3h  TC2h  1 3.950000e-01    2.500000e+00
   C3h  TC1h  1 3.950000e-01    2.500000e+00
   C3h  TX4h  1 3.950000e-01    2.310000e+00
   C3h  TX3h  1 3.950000e-01    2.310000e+00
   C3h  TX2h  1 3.950000e-01    2.310000e+00
   C3h  TX1h  1 3.950000e-01    2.500000e+00
   C3h TC3vh  1 3.950000e-01    2.700000e+00
   C3h TC2vh  1 3.950000e-01    2.700000e+00
   C3h TC1vh  1 3.950000e-01    2.700000e+00
   C3h TX4vh  1 3.950000e-01    2.500000e+00
   C3h TX3vh  1 3.950000e-01    2.500000e+00
   C3h TX2vh  1 3.950000e-01    2.500000e+00
   C3h TX1vh  1 3.950000e-01    2.700000e+00
   C3h TC3eh  1 3.950000e-01    2.700000e+00
   C3h TC2eh  1 3.950000e-01    2.700000e+00
   C3h TC1eh  1 3.950000e-01    2.700000e+00
   C3h TX4eh  1 3.950000e-01    2.500000e+00
   C3h TX3eh  1 3.950000e-01    2.500000e+00
   C3h TX2eh  1 3.950000e-01    2.500000e+00
   C3h TX1eh  1 3.950000e-01    2.700000e+00
   C2h  TC1h  1 3.950000e-01    2.700000e+00
   C2h  TX4h  1 3.950000e-01    1.850000e+00
   C2h  TX3h  1 3.950000e-01    2.310000e+00
   C2h  TX2h  1 3.950000e-01    2.310000e+00
   C2h  TX1h  1 3.950000e-01    2.310000e+00
   C2h TC2vh  1 3.950000e-01    2.700000e+00
   C2h TC1vh  1 3.950000e-01    2.940000e+00
   C2h TX4vh  1 3.950000e-01    2.110000e+00
   C2h TX3vh  1 3.950000e-01    2.500000e+00
   C2h TX2vh  1 3.950000e-01    2.500000e+00
   C2h TX1vh  1 3.950000e-01    2.500000e+00
   C2h TC2eh  1 3.950000e-01    2.700000e+00
   C2h TC1eh  1 3.950000e-01    2.940000e+00
   C2h TX4eh  1 3.950000e-01    2.110000e+00
   C2h TX3eh  1 3.950000e-01    2.500000e+00
   C2h TX2eh  1 3.950000e-01    2.500000e+00
   C2h TX1eh  1 3.950000e-01    2.500000e+00
   C1h  TX4h  1 3.950000e-01    1.850000e+00
   C1h  TX3h  1 3.950000e-01    2.310000e+00
   C1h  TX2h  1 3.950000e-01    2.310000e+00
   C1h  TX1h  1 3.950000e-01    2.310000e+00
   C1h TC1vh  1 3.950000e-01    2.700000e+00
   C1h TX4vh  1 3.950000e-01    2.110000e+00
   C1h TX3vh  1 3.950000e-01    2.500000e+00
   C1h TX2vh  1 3.950000e-01    2.500000e+00
   C1h TX1vh  1 3.950000e-01    2.500000e+00
   C1h TC1eh  1 3.950000e-01    2.700000e+00
   C1h TX4eh  1 3.950000e-01    2.110000e+00
   C1h TX3eh  1 3.950000e-01    2.500000e+00
   C1h TX2eh  1 3.950000e-01    2.500000e+00
   C1h TX1eh  1 3.950000e-01    2.500000e+00
   X4h  TX3h  1 3.950000e-01    2.500000e+00
   X4h  TX2h  1 3.950000e-01    2.500000e+00
   X4h  TX1h  1 3.950000e-01    2.500000e+00
   X4h TX4vh  1 3.950000e-01    2.700000e+00
   X4h TX3vh  1 3.950000e-01    2.700000e+00
   X4h TX2vh  1 3.950000e-01    2.700000e+00
   X4h TX1vh  1 3.950000e-01    2.700000e+00
   X4h TX4eh  1 3.950000e-01    2.700000e+00
   X4h TX3eh  1 3.950000e-01    2.700000e+00
   X4h TX2eh  1 3.950000e-01    2.700000e+00
   X4h TX1eh  1 3.950000e-01    2.700000e+00
   X3h  TX2h  1 3.950000e-01    2.700000e+00
   X3h  TX1h  1 3.950000e-01    2.700000e+00
   X3h TX3vh  1 3.950000e-01    2.700000e+00
   X3h TX2vh  1 3.950000e-01    2.940000e+00
   X3h TX1vh  1 3.950000e-01    2.940000e+00
   X3h TX3eh  1 3.950000e-01    2.700000e+00
   X3h TX2eh  1 3.950000e-01    2.940000e+00
   X3h TX1eh  1 3.950000e-01    2.940000e+00
   X2h  TX1h  1 3.950000e-01    2.700000e+00
   X2h TX2vh  1 3.950000e-01    2.940000e+00
   X2h TX1vh  1 3.950000e-01    2.940000e+00
   X2h TX2eh  1 3.950000e-01    2.940000e+00
   X2h TX1eh  1 3.950000e-01    2.940000e+00
   X1h TX1vh  1 3.950000e-01    3.190000e+00
   X1h TX1eh  1 3.950000e-01    3.190000e+00
  C6vh  TC5h  1 3.950000e-01    2.700000e+00
  C6vh  TC4h  1 3.950000e-01    2.700000e+00
  C6vh  TC3h  1 3.950000e-01    2.500000e+00
  C6vh  TC2h  1 3.950000e-01    2.310000e+00
  C6vh  TC1h  1 3.950000e-01    2.110000e+00
  C6vh  TX4h  1 3.950000e-01    2.700000e+00
  C6vh  TX3h  1 3.950000e-01    2.700000e+00
  C6vh  TX2h  1 3.950000e-01    2.700000e+00
  C6vh  TX1h  1 3.950000e-01    2.700000e+00
  C6vh TC5vh  1 3.950000e-01    2.310000e+00
  C6vh TC4vh  1 3.950000e-01    2.310000e+00
  C6vh TC3vh  1 3.950000e-01    2.110000e+00
  C6vh TC2vh  1 3.950000e-01    1.850000e+00
  C6vh TC1vh  1 3.950000e-01    1.670000e+00
  C6vh TX4vh  1 3.950000e-01    2.310000e+00
  C6vh TX3vh  1 3.950000e-01    2.310000e+00
  C6vh TX2vh  1 3.950000e-01    2.310000e+00
  C6vh TX1vh  1 3.950000e-01    2.310000e+00
  C6vh TC6eh  1 3.950000e-01    3.190000e+00
  C6vh TC5eh  1 3.950000e-01    2.940000e+00
  C6vh TC4eh  1 3.950000e-01    2.940000e+00
  C6vh TC3eh  1 3.950000e-01    2.700000e+00
  C6vh TC2eh  1 3.950000e-01    2.500000e+00
  C6vh TC1eh  1 3.950000e-01    2.310000e+00
  C6vh TX4eh  1 3.950000e-01    2.940000e+00
  C6vh TX3eh  1 3.950000e-01    2.940000e+00
  C6vh TX2eh  1 3.950000e-01    2.940000e+00
  C6vh TX1eh  1 3.950000e-01    2.940000e+00
  C5vh  TC4h  1 3.950000e-01    2.700000e+00
  C5vh  TC3h  1 3.950000e-01    2.500000e+00
  C5vh  TC2h  1 3.950000e-01    2.310000e+00
  C5vh  TC1h  1 3.950000e-01    2.310000e+00
  C5vh  TX4h  1 3.950000e-01    2.500000e+00
  C5vh  TX3h  1 3.950000e-01    2.500000e+00
  C5vh  TX2h  1 3.950000e-01    2.500000e+00
  C5vh  TX1h  1 3.950000e-01    2.700000e+00
  C5vh TC4vh  1 3.950000e-01    2.310000e+00
  C5vh TC3vh  1 3.950000e-01    2.110000e+00
  C5vh TC2vh  1 3.950000e-01    1.850000e+00
  C5vh TC1vh  1 3.950000e-01    1.850000e+00
  C5vh TX4vh  1 3.950000e-01    2.110000e+00
  C5vh TX3vh  1 3.950000e-01    2.110000e+00
  C5vh TX2vh  1 3.950000e-01    2.110000e+00
  C5vh TX1vh  1 3.950000e-01    2.310000e+00
  C5vh TC5eh  1 3.950000e-01    2.940000e+00
  C5vh TC4eh  1 3.950000e-01    2.940000e+00
  C5vh TC3eh  1 3.950000e-01    2.700000e+00
  C5vh TC2eh  1 3.950000e-01    2.500000e+00
  C5vh TC1eh  1 3.950000e-01    2.500000e+00
  C5vh TX4eh  1 3.950000e-01    2.700000e+00
  C5vh TX3eh  1 3.950000e-01    2.700000e+00
  C5vh TX2eh  1 3.950000e-01    2.700000e+00
  C5vh TX1eh  1 3.950000e-01    2.940000e+00
  C4vh  TC3h  1 3.950000e-01    2.700000e+00
  C4vh  TC2h  1 3.950000e-01    2.500000e+00
  C4vh  TC1h  1 3.950000e-01    2.310000e+00
  C4vh  TX4h  1 3.950000e-01    2.500000e+00
  C4vh  TX3h  1 3.950000e-01    2.500000e+00
  C4vh  TX2h  1 3.950000e-01    2.500000e+00
  C4vh  TX1h  1 3.950000e-01    2.700000e+00
  C4vh TC3vh  1 3.950000e-01    2.310000e+00
  C4vh TC2vh  1 3.950000e-01    2.110000e+00
  C4vh TC1vh  1 3.950000e-01    1.850000e+00
  C4vh TX4vh  1 3.950000e-01    2.110000e+00
  C4vh TX3vh  1 3.950000e-01    2.110000e+00
  C4vh TX2vh  1 3.950000e-01    2.110000e+00
  C4vh TX1vh  1 3.950000e-01    2.310000e+00
  C4vh TC4eh  1 3.950000e-01    2.940000e+00
  C4vh TC3eh  1 3.950000e-01    2.940000e+00
  C4vh TC2eh  1 3.950000e-01    2.700000e+00
  C4vh TC1eh  1 3.950000e-01    2.500000e+00
  C4vh TX4eh  1 3.950000e-01    2.700000e+00
  C4vh TX3eh  1 3.950000e-01    2.700000e+00
  C4vh TX2eh  1 3.950000e-01    2.700000e+00
  C4vh TX1eh  1 3.950000e-01    2.940000e+00
  C3vh  TC2h  1 3.950000e-01    2.700000e+00
  C3vh  TC1h  1 3.950000e-01    2.700000e+00
  C3vh  TX4h  1 3.950000e-01    2.500000e+00
  C3vh  TX3h  1 3.950000e-01    2.500000e+00
  C3vh  TX2h  1 3.950000e-01    2.500000e+00
  C3vh  TX1h  1 3.950000e-01    2.700000e+00
  C3vh TC2vh  1 3.950000e-01    2.310000e+00
  C3vh TC1vh  1 3.950000e-01    2.310000e+00
  C3vh TX4vh  1 3.950000e-01    2.110000e+00
  C3vh TX3vh  1 3.950000e-01    2.110000e+00
  C3vh TX2vh  1 3.950000e-01    2.110000e+00
  C3vh TX1vh  1 3.950000e-01    2.310000e+00
  C3vh TC3eh  1 3.950000e-01    2.940000e+00
  C3vh TC2eh  1 3.950000e-01    2.940000e+00
  C3vh TC1eh  1 3.950000e-01    2.940000e+00
  C3vh TX4eh  1 3.950000e-01    2.700000e+00
  C3vh TX3eh  1 3.950000e-01    2.700000e+00
  C3vh TX2eh  1 3.950000e-01    2.700000e+00
  C3vh TX1eh  1 3.950000e-01    2.940000e+00
  C2vh  TC1h  1 3.950000e-01    2.940000e+00
  C2vh  TX4h  1 3.950000e-01    2.110000e+00
  C2vh  TX3h  1 3.950000e-01    2.500000e+00
  C2vh  TX2h  1 3.950000e-01    2.500000e+00
  C2vh  TX1h  1 3.950000e-01    2.500000e+00
  C2vh TC1vh  1 3.950000e-01    2.500000e+00
  C2vh TX4vh  1 3.950000e-01    1.670000e+00
  C2vh TX3vh  1 3.950000e-01    2.110000e+00
  C2vh TX2vh  1 3.950000e-01    2.110000e+00
  C2vh TX1vh  1 3.950000e-01    2.110000e+00
  C2vh TC2eh  1 3.950000e-01    2.940000e+00
  C2vh TC1eh  1 3.950000e-01    3.190000e+00
  C2vh TX4eh  1 3.950000e-01    2.310000e+00
  C2vh TX3eh  1 3.950000e-01    2.700000e+00
  C2vh TX2eh  1 3.950000e-01    2.700000e+00
  C2vh TX1eh  1 3.950000e-01    2.700000e+00
  C1vh  TX4h  1 3.950000e-01    2.110000e+00
  C1vh  TX3h  1 3.950000e-01    2.500000e+00
  C1vh  TX2h  1 3.950000e-01    2.500000e+00
  C1vh  TX1h  1 3.950000e-01    2.500000e+00
  C1vh TX4vh  1 3.950000e-01    1.670000e+00
  C1vh TX3vh  1 3.950000e-01    2.110000e+00
  C1vh TX2vh  1 3.950000e-01    2.110000e+00
  C1vh TX1vh  1 3.950000e-01    2.110000e+00
  C1vh TC1eh  1 3.950000e-01    2.940000e+00
  C1vh TX4eh  1 3.950000e-01    2.310000e+00
  C1vh TX3eh  1 3.950000e-01    2.700000e+00
  C1vh TX2eh  1 3.950000e-01    2.700000e+00
  C1vh TX1eh  1 3.950000e-01    2.700000e+00
  X4vh  TX3h  1 3.950000e-01    2.700000e+00
  X4vh  TX2h  1 3.950000e-01    2.700000e+00
  X4vh  TX1h  1 3.950000e-01    2.700000e+00
  X4vh TX3vh  1 3.950000e-01    2.310000e+00
  X4vh TX2vh  1 3.950000e-01    2.310000e+00
  X4vh TX1vh  1 3.950000e-01    2.310000e+00
  X4vh TX4eh  1 3.950000e-01    2.940000e+00
  X4vh TX3eh  1 3.950000e-01    2.940000e+00
  X4vh TX2eh  1 3.950000e-01    2.940000e+00
  X4vh TX1eh  1 3.950000e-01    2.940000e+00
  X3vh  TX2h  1 3.950000e-01    2.940000e+00
  X3vh  TX1h  1 3.950000e-01    2.940000e+00
  X3vh TX2vh  1 3.950000e-01    2.500000e+00
  X3vh TX1vh  1 3.950000e-01    2.500000e+00
  X3vh TX3eh  1 3.950000e-01    2.940000e+00
  X3vh TX2eh  1 3.950000e-01    3.190000e+00
  X3vh TX1eh  1 3.950000e-01    3.190000e+00
  X2vh  TX1h  1 3.950000e-01    2.940000e+00
  X2vh TX1vh  1 3.950000e-01    2.500000e+00
  X2vh TX2eh  1 3.950000e-01    3.190000e+00
  X2vh TX1eh  1 3.950000e-01    3.190000e+00
  X1vh TX1eh  1 3.950000e-01    3.430000e+00
  C6eh  TC5h  1 3.950000e-01    2.700000e+00
  C6eh  TC4h  1 3.950000e-01    2.700000e+00
  C6eh  TC3h  1 3.950000e-01    2.500000e+00
  C6eh  TC2h  1 3.950000e-01    2.310000e+00
  C6eh  TC1h  1 3.950000e-01    2.110000e+00
  C6eh  TX4h  1 3.950000e-01    2.700000e+00
  C6eh  TX3h  1 3.950000e-01    2.700000e+00
  C6eh  TX2h  1 3.950000e-01    2.700000e+00
  C6eh  TX1h  1 3.950000e-01    2.700000e+00
  C6eh TC5vh  1 3.950000e-01    2.940000e+00
  C6eh TC4vh  1 3.950000e-01    2.940000e+00
  C6eh TC3vh  1 3.950000e-01    2.700000e+00
  C6eh TC2vh  1 3.950000e-01    2.500000e+00
  C6eh TC1vh  1 3.950000e-01    2.310000e+00
  C6eh TX4vh  1 3.950000e-01    2.940000e+00
  C6eh TX3vh  1 3.950000e-01    2.940000e+00
  C6eh TX2vh  1 3.950000e-01    2.940000e+00
  C6eh TX1vh  1 3.950000e-01    2.940000e+00
  C6eh TC5eh  1 3.950000e-01    2.310000e+00
  C6eh TC4eh  1 3.950000e-01    2.310000e+00
  C6eh TC3eh  1 3.950000e-01    2.110000e+00
  C6eh TC2eh  1 3.950000e-01    1.850000e+00
  C6eh TC1eh  1 3.950000e-01    1.670000e+00
  C6eh TX4eh  1 3.950000e-01    2.310000e+00
  C6eh TX3eh  1 3.950000e-01    2.310000e+00
  C6eh TX2eh  1 3.950000e-01    2.310000e+00
  C6eh TX1eh  1 3.950000e-01    2.310000e+00
  C5eh  TC4h  1 3.950000e-01    2.700000e+00
  C5eh  TC3h  1 3.950000e-01    2.500000e+00
  C5eh  TC2h  1 3.950000e-01    2.310000e+00
  C5eh  TC1h  1 3.950000e-01    2.310000e+00
  C5eh  TX4h  1 3.950000e-01    2.500000e+00
  C5eh  TX3h  1 3.950000e-01    2.500000e+00
  C5eh  TX2h  1 3.950000e-01    2.500000e+00
  C5eh  TX1h  1 3.950000e-01    2.700000e+00
  C5eh TC4vh  1 3.950000e-01    2.940000e+00
  C5eh TC3vh  1 3.950000e-01    2.700000e+00
  C5eh TC2vh  1 3.950000e-01    2.500000e+00
  C5eh TC1vh  1 3.950000e-01    2.500000e+00
  C5eh TX4vh  1 3.950000e-01    2.700000e+00
  C5eh TX3vh  1 3.950000e-01    2.700000e+00
  C5eh TX2vh  1 3.950000e-01    2.700000e+00
  C5eh TX1vh  1 3.950000e-01    2.940000e+00
  C5eh TC4eh  1 3.950000e-01    2.310000e+00
  C5eh TC3eh  1 3.950000e-01    2.110000e+00
  C5eh TC2eh  1 3.950000e-01    1.850000e+00
  C5eh TC1eh  1 3.950000e-01    1.850000e+00
  C5eh TX4eh  1 3.950000e-01    2.110000e+00
  C5eh TX3eh  1 3.950000e-01    2.110000e+00
  C5eh TX2eh  1 3.950000e-01    2.110000e+00
  C5eh TX1eh  1 3.950000e-01    2.310000e+00
  C4eh  TC3h  1 3.950000e-01    2.700000e+00
  C4eh  TC2h  1 3.950000e-01    2.500000e+00
  C4eh  TC1h  1 3.950000e-01    2.310000e+00
  C4eh  TX4h  1 3.950000e-01    2.500000e+00
  C4eh  TX3h  1 3.950000e-01    2.500000e+00
  C4eh  TX2h  1 3.950000e-01    2.500000e+00
  C4eh  TX1h  1 3.950000e-01    2.700000e+00
  C4eh TC3vh  1 3.950000e-01    2.940000e+00
  C4eh TC2vh  1 3.950000e-01    2.700000e+00
  C4eh TC1vh  1 3.950000e-01    2.500000e+00
  C4eh TX4vh  1 3.950000e-01    2.700000e+00
  C4eh TX3vh  1 3.950000e-01    2.700000e+00
  C4eh TX2vh  1 3.950000e-01    2.700000e+00
  C4eh TX1vh  1 3.950000e-01    2.940000e+00
  C4eh TC3eh  1 3.950000e-01    2.310000e+00
  C4eh TC2eh  1 3.950000e-01    2.110000e+00
  C4eh TC1eh  1 3.950000e-01    1.850000e+00
  C4eh TX4eh  1 3.950000e-01    2.110000e+00
  C4eh TX3eh  1 3.950000e-01    2.110000e+00
  C4eh TX2eh  1 3.950000e-01    2.110000e+00
  C4eh TX1eh  1 3.950000e-01    2.310000e+00
  C3eh  TC2h  1 3.950000e-01    2.700000e+00
  C3eh  TC1h  1 3.950000e-01    2.700000e+00
  C3eh  TX4h  1 3.950000e-01    2.500000e+00
  C3eh  TX3h  1 3.950000e-01    2.500000e+00
  C3eh  TX2h  1 3.950000e-01    2.500000e+00
  C3eh  TX1h  1 3.950000e-01    2.700000e+00
  C3eh TC2vh  1 3.950000e-01    2.940000e+00
  C3eh TC1vh  1 3.950000e-01    2.940000e+00
  C3eh TX4vh  1 3.950000e-01    2.700000e+00
  C3eh TX3vh  1 3.950000e-01    2.700000e+00
  C3eh TX2vh  1 3.950000e-01    2.700000e+00
  C3eh TX1vh  1 3.950000e-01    2.940000e+00
  C3eh TC2eh  1 3.950000e-01    2.310000e+00
  C3eh TC1eh  1 3.950000e-01    2.310000e+00
  C3eh TX4eh  1 3.950000e-01    2.110000e+00
  C3eh TX3eh  1 3.950000e-01    2.110000e+00
  C3eh TX2eh  1 3.950000e-01    2.110000e+00
  C3eh TX1eh  1 3.950000e-01    2.310000e+00
  C2eh  TC1h  1 3.950000e-01    2.940000e+00
  C2eh  TX4h  1 3.950000e-01    2.110000e+00
  C2eh  TX3h  1 3.950000e-01    2.500000e+00
  C2eh  TX2h  1 3.950000e-01    2.500000e+00
  C2eh  TX1h  1 3.950000e-01    2.500000e+00
  C2eh TC1vh  1 3.950000e-01    3.190000e+00
  C2eh TX4vh  1 3.950000e-01    2.310000e+00
  C2eh TX3vh  1 3.950000e-01    2.700000e+00
  C2eh TX2vh  1 3.950000e-01    2.700000e+00
  C2eh TX1vh  1 3.950000e-01    2.700000e+00
  C2eh TC1eh  1 3.950000e-01    2.500000e+00
  C2eh TX4eh  1 3.950000e-01    1.670000e+00
  C2eh TX3eh  1 3.950000e-01    2.110000e+00
  C2eh TX2eh  1 3.950000e-01    2.110000e+00
  C2eh TX1eh  1 3.950000e-01    2.110000e+00
  C1eh  TX4h  1 3.950000e-01    2.110000e+00
  C1eh  TX3h  1 3.950000e-01    2.500000e+00
  C1eh  TX2h  1 3.950000e-01    2.500000e+00
  C1eh  TX1h  1 3.950000e-01    2.500000e+00
  C1eh TX4vh  1 3.950000e-01    2.310000e+00
  C1eh TX3vh  1 3.950000e-01    2.700000e+00
  C1eh TX2vh  1 3.950000e-01    2.700000e+00
  C1eh TX1vh  1 3.950000e-01    2.700000e+00
  C1eh TX4eh  1 3.950000e-01    1.670000e+00
  C1eh TX3eh  1 3.950000e-01    2.110000e+00
  C1eh TX2eh  1 3.950000e-01    2.110000e+00
  C1eh TX1eh  1 3.950000e-01    2.110000e+00
  X4eh  TX3h  1 3.950000e-01    2.700000e+00
  X4eh  TX2h  1 3.950000e-01    2.700000e+00
  X4eh  TX1h  1 3.950000e-01    2.700000e+00
  X4eh TX3vh  1 3.950000e-01    2.940000e+00
  X4eh TX2vh  1 3.950000e-01    2.940000e+00
  X4eh TX1vh  1 3.950000e-01    2.940000e+00
  X4eh TX3eh  1 3.950000e-01    2.310000e+00
  X4eh TX2eh  1 3.950000e-01    2.310000e+00
  X4eh TX1eh  1 3.950000e-01    2.310000e+00
  X3eh  TX2h  1 3.950000e-01    2.940000e+00
  X3eh  TX1h  1 3.950000e-01    2.940000e+00
  X3eh TX2vh  1 3.950000e-01    3.190000e+00
  X3eh TX1vh  1 3.950000e-01    3.190000e+00
  X3eh TX2eh  1 3.950000e-01    2.500000e+00
  X3eh TX1eh  1 3.950000e-01    2.500000e+00
  X2eh  TX1h  1 3.950000e-01    2.940000e+00
  X2eh TX1vh  1 3.950000e-01    3.190000e+00
  X2eh TX1eh  1 3.950000e-01    2.500000e+00
   P6h  TC6h  1 3.950000e-01    1.670000e+00
   P6h  TC5h  1 3.980000e-01    1.450000e+00
   P6h  TC4h  1 3.990000e-01    1.180000e+00
   P6h  TC3h  1 4.010000e-01    9.830000e-01
   P6h  TC2h  1 4.010000e-01    9.830000e-01
   P6h  TC1h  1 4.650000e-01    7.030000e-01
   P6h  TX4h  1 3.950000e-01    1.850000e+00
   P6h  TX3h  1 3.950000e-01    1.850000e+00
   P6h  TX2h  1 3.950000e-01    1.670000e+00
   P6h  TX1h  1 3.980000e-01    1.450000e+00
   P6h TC6vh  1 3.950000e-01    1.850000e+00
   P6h TC5vh  1 3.950000e-01    1.670000e+00
   P6h TC4vh  1 3.980000e-01    1.450000e+00
   P6h TC3vh  1 3.990000e-01    1.180000e+00
   P6h TC2vh  1 3.990000e-01    1.180000e+00
   P6h TC1vh  1 4.040000e-01    8.300000e-01
   P6h TX4vh  1 3.950000e-01    2.110000e+00
   P6h TX3vh  1 3.950000e-01    2.110000e+00
   P6h TX2vh  1 3.950000e-01    1.850000e+00
   P6h TX1vh  1 3.950000e-01    1.670000e+00
   P6h TC6eh  1 3.950000e-01    1.850000e+00
   P6h TC5eh  1 3.950000e-01    1.670000e+00
   P6h TC4eh  1 3.980000e-01    1.450000e+00
   P6h TC3eh  1 3.990000e-01    1.180000e+00
   P6h TC2eh  1 3.990000e-01    1.180000e+00
   P6h TC1eh  1 4.040000e-01    8.300000e-01
   P6h TX4eh  1 3.950000e-01    2.110000e+00
   P6h TX3eh  1 3.950000e-01    2.110000e+00
   P6h TX2eh  1 3.950000e-01    1.850000e+00
   P6h TX1eh  1 3.950000e-01    1.670000e+00
   P5h  TC6h  1 3.950000e-01    1.670000e+00
   P5h  TC5h  1 3.950000e-01    1.670000e+00
   P5h  TC4h  1 3.980000e-01    1.450000e+00
   P5h  TC3h  1 3.990000e-01    1.180000e+00
   P5h  TC2h  1 3.990000e-01    1.180000e+00
   P5h  TC1h  1 4.010000e-01    9.830000e-01
   P5h  TX4h  1 3.950000e-01    2.110000e+00
   P5h  TX3h  1 3.950000e-01    1.850000e+00
   P5h  TX2h  1 3.950000e-01    1.850000e+00
   P5h  TX1h  1 3.980000e-01    1.450000e+00
   P5h TC6vh  1 3.950000e-01    1.850000e+00
   P5h TC5vh  1 3.950000e-01    1.850000e+00
   P5h TC4vh  1 3.950000e-01    1.670000e+00
   P5h TC3vh  1 3.980000e-01    1.450000e+00
   P5h TC2vh  1 3.980000e-01    1.450000e+00
   P5h TC1vh  1 3.990000e-01    1.180000e+00
   P5h TX4vh  1 3.950000e-01    2.310000e+00
   P5h TX3vh  1 3.950000e-01    2.110000e+00
   P5h TX2vh  1 3.950000e-01    2.110000e+00
   P5h TX1vh  1 3.950000e-01    1.670000e+00
   P5h TC6eh  1 3.950000e-01    1.850000e+00
   P5h TC5eh  1 3.950000e-01    1.850000e+00
   P5h TC4eh  1 3.950000e-01    1.670000e+00
   P5h TC3eh  1 3.980000e-01    1.450000e+00
   P5h TC2eh  1 3.980000e-01    1.450000e+00
   P5h TC1eh  1 3.990000e-01    1.180000e+00
   P5h TX4eh  1 3.950000e-01    2.310000e+00
   P5h TX3eh  1 3.950000e-01    2.110000e+00
   P5h TX2eh  1 3.950000e-01    2.110000e+00
   P5h TX1eh  1 3.950000e-01    1.670000e+00
   P4h  TC6h  1 3.950000e-01    1.850000e+00
   P4h  TC5h  1 3.950000e-01    1.670000e+00
   P4h  TC4h  1 3.980000e-01    1.450000e+00
   P4h  TC3h  1 3.990000e-01    1.180000e+00
   P4h  TC2h  1 3.990000e-01    1.180000e+00
   P4h  TC1h  1 4.010000e-01    9.830000e-01
   P4h  TX4h  1 3.950000e-01    2.110000e+00
   P4h  TX3h  1 3.950000e-01    1.850000e+00
   P4h  TX2h  1 3.950000e-01    1.850000e+00
   P4h  TX1h  1 3.950000e-01    1.670000e+00
   P4h TC6vh  1 3.950000e-01    2.110000e+00
   P4h TC5vh  1 3.950000e-01    1.850000e+00
   P4h TC4vh  1 3.950000e-01    1.670000e+00
   P4h TC3vh  1 3.980000e-01    1.450000e+00
   P4h TC2vh  1 3.980000e-01    1.450000e+00
   P4h TC1vh  1 3.990000e-01    1.180000e+00
   P4h TX4vh  1 3.950000e-01    2.310000e+00
   P4h TX3vh  1 3.950000e-01    2.110000e+00
   P4h TX2vh  1 3.950000e-01    2.110000e+00
   P4h TX1vh  1 3.950000e-01    1.850000e+00
   P4h TC6eh  1 3.950000e-01    2.110000e+00
   P4h TC5eh  1 3.950000e-01    1.850000e+00
   P4h TC4eh  1 3.950000e-01    1.670000e+00
   P4h TC3eh  1 3.980000e-01    1.450000e+00
   P4h TC2eh  1 3.980000e-01    1.450000e+00
   P4h TC1eh  1 3.990000e-01    1.180000e+00
   P4h TX4eh  1 3.950000e-01    2.310000e+00
   P4h TX3eh  1 3.950000e-01    2.110000e+00
   P4h TX2eh  1 3.950000e-01    2.110000e+00
   P4h TX1eh  1 3.950000e-01    1.850000e+00
   P3h  TC6h  1 3.950000e-01    2.110000e+00
   P3h  TC5h  1 3.950000e-01    1.850000e+00
   P3h  TC4h  1 3.950000e-01    1.670000e+00
   P3h  TC3h  1 3.990000e-01    1.180000e+00
   P3h  TC2h  1 3.990000e-01    1.180000e+00
   P3h  TC1h  1 4.010000e-01    9.830000e-01
   P3h  TX4h  1 3.950000e-01    2.110000e+00
   P3h  TX3h  1 3.950000e-01    2.110000e+00
   P3h  TX2h  1 3.950000e-01    1.850000e+00
   P3h  TX1h  1 3.950000e-01    1.670000e+00
   P3h TC6vh  1 3.950000e-01    2.310000e+00
   P3h TC5vh  1 3.950000e-01    2.110000e+00
   P3h TC4vh  1 3.950000e-01    1.850000e+00
   P3h TC3vh  1 3.980000e-01    1.450000e+00
   P3h TC2vh  1 3.980000e-01    1.450000e+00
   P3h TC1vh  1 3.990000e-01    1.180000e+00
   P3h TX4vh  1 3.950000e-01    2.310000e+00
   P3h TX3vh  1 3.950000e-01    2.310000e+00
   P3h TX2vh  1 3.950000e-01    2.110000e+00
   P3h TX1vh  1 3.950000e-01    1.850000e+00
   P3h TC6eh  1 3.950000e-01    2.310000e+00
   P3h TC5eh  1 3.950000e-01    2.110000e+00
   P3h TC4eh  1 3.950000e-01    1.850000e+00
   P3h TC3eh  1 3.980000e-01    1.450000e+00
   P3h TC2eh  1 3.980000e-01    1.450000e+00
   P3h TC1eh  1 3.990000e-01    1.180000e+00
   P3h TX4eh  1 3.950000e-01    2.310000e+00
   P3h TX3eh  1 3.950000e-01    2.310000e+00
   P3h TX2eh  1 3.950000e-01    2.110000e+00
   P3h TX1eh  1 3.950000e-01    1.850000e+00
   P2h  TC6h  1 3.950000e-01    2.110000e+00
   P2h  TC5h  1 3.950000e-01    1.850000e+00
   P2h  TC4h  1 3.950000e-01    1.670000e+00
   P2h  TC3h  1 3.980000e-01    1.450000e+00
   P2h  TC2h  1 3.980000e-01    1.450000e+00
   P2h  TC1h  1 3.990000e-01    1.180000e+00
   P2h  TX4h  1 3.950000e-01    2.110000e+00
   P2h  TX3h  1 3.950000e-01    2.110000e+00
   P2h  TX2h  1 3.950000e-01    1.850000e+00
   P2h  TX1h  1 3.950000e-01    1.670000e+00
   P2h TC6vh  1 3.950000e-01    2.310000e+00
   P2h TC5vh  1 3.950000e-01    2.110000e+00
   P2h TC4vh  1 3.950000e-01    1.850000e+00
   P2h TC3vh  1 3.950000e-01    1.670000e+00
   P2h TC2vh  1 3.950000e-01    1.670000e+00
   P2h TC1vh  1 3.980000e-01    1.450000e+00
   P2h TX4vh  1 3.950000e-01    2.310000e+00
   P2h TX3vh  1 3.950000e-01    2.310000e+00
   P2h TX2vh  1 3.950000e-01    2.110000e+00
   P2h TX1vh  1 3.950000e-01    1.850000e+00
   P2h TC6eh  1 3.950000e-01    2.310000e+00
   P2h TC5eh  1 3.950000e-01    2.110000e+00
   P2h TC4eh  1 3.950000e-01    1.850000e+00
   P2h TC3eh  1 3.950000e-01    1.670000e+00
   P2h TC2eh  1 3.950000e-01    1.670000e+00
   P2h TC1eh  1 3.980000e-01    1.450000e+00
   P2h TX4eh  1 3.950000e-01    2.310000e+00
   P2h TX3eh  1 3.950000e-01    2.310000e+00
   P2h TX2eh  1 3.950000e-01    2.110000e+00
   P2h TX1eh  1 3.950000e-01    1.850000e+00
   P1h  TC6h  1 3.950000e-01    2.110000e+00
   P1h  TC5h  1 3.950000e-01    1.850000e+00
   P1h  TC4h  1 3.950000e-01    1.670000e+00
   P1h  TC3h  1 3.980000e-01    1.450000e+00
   P1h  TC2h  1 3.980000e-01    1.450000e+00
   P1h  TC1h  1 3.990000e-01    1.180000e+00
   P1h  TX4h  1 3.950000e-01    2.110000e+00
   P1h  TX3h  1 3.950000e-01    2.110000e+00
   P1h  TX2h  1 3.950000e-01    1.850000e+00
   P1h  TX1h  1 3.950000e-01    1.670000e+00
   P1h TC6vh  1 3.950000e-01    2.310000e+00
   P1h TC5vh  1 3.950000e-01    2.110000e+00
   P1h TC4vh  1 3.950000e-01    1.850000e+00
   P1h TC3vh  1 3.950000e-01    1.670000e+00
   P1h TC2vh  1 3.950000e-01    1.670000e+00
   P1h TC1vh  1 3.980000e-01    1.450000e+00
   P1h TX4vh  1 3.950000e-01    2.310000e+00
   P1h TX3vh  1 3.950000e-01    2.310000e+00
   P1h TX2vh  1 3.950000e-01    2.110000e+00
   P1h TX1vh  1 3.950000e-01    1.850000e+00
   P1h TC6eh  1 3.950000e-01    2.310000e+00
   P1h TC5eh  1 3.950000e-01    2.110000e+00
   P1h TC4eh  1 3.950000e-01    1.850000e+00
   P1h TC3eh  1 3.950000e-01    1.670000e+00
   P1h TC2eh  1 3.950000e-01    1.670000e+00
   P1h TC1eh  1 3.980000e-01    1.450000e+00
   P1h TX4eh  1 3.950000e-01    2.310000e+00
   P1h TX3eh  1 3.950000e-01    2.310000e+00
   P1h TX2eh  1 3.950000e-01    2.110000e+00
   P1h TX1eh  1 3.950000e-01    1.850000e+00
   N6h  TC6h  1 3.950000e-01    2.310000e+00
   N6h  TC5h  1 3.950000e-01    2.110000e+00
   N6h  TC4h  1 3.950000e-01    1.850000e+00
   N6h  TC3h  1 3.950000e-01    1.670000e+00
   N6h  TC2h  1 3.950000e-01    1.670000e+00
   N6h  TC1h  1 3.980000e-01    1.450000e+00
   N6h  TX4h  1 3.950000e-01    2.310000e+00
   N6h  TX3h  1 3.950000e-01    2.110000e+00
   N6h  TX2h  1 3.950000e-01    1.850000e+00
   N6h  TX1h  1 3.950000e-01    1.670000e+00
   N6h TC6vh  1 3.950000e-01    2.500000e+00
   N6h TC5vh  1 3.950000e-01    2.310000e+00
   N6h TC4vh  1 3.950000e-01    2.110000e+00
   N6h TC3vh  1 3.950000e-01    1.850000e+00
   N6h TC2vh  1 3.950000e-01    1.850000e+00
   N6h TC1vh  1 3.950000e-01    1.670000e+00
   N6h TX4vh  1 3.950000e-01    2.500000e+00
   N6h TX3vh  1 3.950000e-01    2.310000e+00
   N6h TX2vh  1 3.950000e-01    2.110000e+00
   N6h TX1vh  1 3.950000e-01    1.850000e+00
   N6h TC6eh  1 3.950000e-01    2.500000e+00
   N6h TC5eh  1 3.950000e-01    2.310000e+00
   N6h TC4eh  1 3.950000e-01    2.110000e+00
   N6h TC3eh  1 3.950000e-01    1.850000e+00
   N6h TC2eh  1 3.950000e-01    1.850000e+00
   N6h TC1eh  1 3.950000e-01    1.670000e+00
   N6h TX4eh  1 3.950000e-01    2.500000e+00
   N6h TX3eh  1 3.950000e-01    2.310000e+00
   N6h TX2eh  1 3.950000e-01    2.110000e+00
   N6h TX1eh  1 3.950000e-01    1.850000e+00
   N5h  TC6h  1 3.950000e-01    2.310000e+00
   N5h  TC5h  1 3.950000e-01    2.110000e+00
   N5h  TC4h  1 3.950000e-01    1.850000e+00
   N5h  TC3h  1 3.950000e-01    1.850000e+00
   N5h  TC2h  1 3.950000e-01    1.670000e+00
   N5h  TC1h  1 3.980000e-01    1.450000e+00
   N5h  TX4h  1 3.950000e-01    2.500000e+00
   N5h  TX3h  1 3.950000e-01    2.310000e+00
   N5h  TX2h  1 3.950000e-01    2.110000e+00
   N5h  TX1h  1 3.950000e-01    1.850000e+00
   N5h TC6vh  1 3.950000e-01    2.500000e+00
   N5h TC5vh  1 3.950000e-01    2.310000e+00
   N5h TC4vh  1 3.950000e-01    2.110000e+00
   N5h TC3vh  1 3.950000e-01    2.110000e+00
   N5h TC2vh  1 3.950000e-01    1.850000e+00
   N5h TC1vh  1 3.950000e-01    1.670000e+00
   N5h TX4vh  1 3.950000e-01    2.700000e+00
   N5h TX3vh  1 3.950000e-01    2.500000e+00
   N5h TX2vh  1 3.950000e-01    2.310000e+00
   N5h TX1vh  1 3.950000e-01    2.110000e+00
   N5h TC6eh  1 3.950000e-01    2.500000e+00
   N5h TC5eh  1 3.950000e-01    2.310000e+00
   N5h TC4eh  1 3.950000e-01    2.110000e+00
   N5h TC3eh  1 3.950000e-01    2.110000e+00
   N5h TC2eh  1 3.950000e-01    1.850000e+00
   N5h TC1eh  1 3.950000e-01    1.670000e+00
   N5h TX4eh  1 3.950000e-01    2.700000e+00
   N5h TX3eh  1 3.950000e-01    2.500000e+00
   N5h TX2eh  1 3.950000e-01    2.310000e+00
   N5h TX1eh  1 3.950000e-01    2.110000e+00
   N4h  TC6h  1 3.950000e-01    2.310000e+00
   N4h  TC5h  1 3.950000e-01    2.110000e+00
   N4h  TC4h  1 3.950000e-01    2.110000e+00
   N4h  TC3h  1 3.950000e-01    1.850000e+00
   N4h  TC2h  1 3.950000e-01    1.670000e+00
   N4h  TC1h  1 3.980000e-01    1.450000e+00
   N4h  TX4h  1 3.950000e-01    2.700000e+00
   N4h  TX3h  1 3.950000e-01    2.500000e+00
   N4h  TX2h  1 3.950000e-01    2.110000e+00
   N4h  TX1h  1 3.950000e-01    1.850000e+00
   N4h TC6vh  1 3.950000e-01    2.500000e+00
   N4h TC5vh  1 3.950000e-01    2.310000e+00
   N4h TC4vh  1 3.950000e-01    2.310000e+00
   N4h TC3vh  1 3.950000e-01    2.110000e+00
   N4h TC2vh  1 3.950000e-01    1.850000e+00
   N4h TC1vh  1 3.950000e-01    1.670000e+00
   N4h TX4vh  1 3.950000e-01    2.940000e+00
   N4h TX3vh  1 3.950000e-01    2.700000e+00
   N4h TX2vh  1 3.950000e-01    2.310000e+00
   N4h TX1vh  1 3.950000e-01    2.110000e+00
   N4h TC6eh  1 3.950000e-01    2.500000e+00
   N4h TC5eh  1 3.950000e-01    2.310000e+00
   N4h TC4eh  1 3.950000e-01    2.310000e+00
   N4h TC3eh  1 3.950000e-01    2.110000e+00
   N4h TC2eh  1 3.950000e-01    1.850000e+00
   N4h TC1eh  1 3.950000e-01    1.670000e+00
   N4h TX4eh  1 3.950000e-01    2.940000e+00
   N4h TX3eh  1 3.950000e-01    2.700000e+00
   N4h TX2eh  1 3.950000e-01    2.310000e+00
   N4h TX1eh  1 3.950000e-01    2.110000e+00
   N3h  TC6h  1 3.950000e-01    2.310000e+00
   N3h  TC5h  1 3.950000e-01    2.110000e+00
   N3h  TC4h  1 3.950000e-01    2.110000e+00
   N3h  TC3h  1 3.950000e-01    1.850000e+00
   N3h  TC2h  1 3.950000e-01    1.850000e+00
   N3h  TC1h  1 3.950000e-01    1.670000e+00
   N3h  TX4h  1 3.950000e-01    2.500000e+00
   N3h  TX3h  1 3.950000e-01    2.310000e+00
   N3h  TX2h  1 3.950000e-01    2.110000e+00
   N3h  TX1h  1 3.950000e-01    2.110000e+00
   N3h TC6vh  1 3.950000e-01    2.500000e+00
   N3h TC5vh  1 3.950000e-01    2.310000e+00
   N3h TC4vh  1 3.950000e-01    2.310000e+00
   N3h TC3vh  1 3.950000e-01    2.110000e+00
   N3h TC2vh  1 3.950000e-01    2.110000e+00
   N3h TC1vh  1 3.950000e-01    1.850000e+00
   N3h TX4vh  1 3.950000e-01    2.700000e+00
   N3h TX3vh  1 3.950000e-01    2.500000e+00
   N3h TX2vh  1 3.950000e-01    2.310000e+00
   N3h TX1vh  1 3.950000e-01    2.310000e+00
   N3h TC6eh  1 3.950000e-01    2.500000e+00
   N3h TC5eh  1 3.950000e-01    2.310000e+00
   N3h TC4eh  1 3.950000e-01    2.310000e+00
   N3h TC3eh  1 3.950000e-01    2.110000e+00
   N3h TC2eh  1 3.950000e-01    2.110000e+00
   N3h TC1eh  1 3.950000e-01    1.850000e+00
   N3h TX4eh  1 3.950000e-01    2.700000e+00
   N3h TX3eh  1 3.950000e-01    2.500000e+00
   N3h TX2eh  1 3.950000e-01    2.310000e+00
   N3h TX1eh  1 3.950000e-01    2.310000e+00
   N2h  TC6h  1 3.950000e-01    2.310000e+00
   N2h  TC5h  1 3.950000e-01    2.110000e+00
   N2h  TC4h  1 3.950000e-01    2.110000e+00
   N2h  TC3h  1 3.950000e-01    2.110000e+00
   N2h  TC2h  1 3.950000e-01    1.850000e+00
   N2h  TC1h  1 3.950000e-01    1.670000e+00
   N2h  TX4h  1 3.950000e-01    2.500000e+00
   N2h  TX3h  1 3.950000e-01    2.310000e+00
   N2h  TX2h  1 3.950000e-01    2.110000e+00
   N2h  TX1h  1 3.950000e-01    2.110000e+00
   N2h TC6vh  1 3.950000e-01    2.500000e+00
   N2h TC5vh  1 3.950000e-01    2.310000e+00
   N2h TC4vh  1 3.950000e-01    2.310000e+00
   N2h TC3vh  1 3.950000e-01    2.310000e+00
   N2h TC2vh  1 3.950000e-01    2.110000e+00
   N2h TC1vh  1 3.950000e-01    1.850000e+00
   N2h TX4vh  1 3.950000e-01    2.700000e+00
   N2h TX3vh  1 3.950000e-01    2.500000e+00
   N2h TX2vh  1 3.950000e-01    2.310000e+00
   N2h TX1vh  1 3.950000e-01    2.310000e+00
   N2h TC6eh  1 3.950000e-01    2.500000e+00
   N2h TC5eh  1 3.950000e-01    2.310000e+00
   N2h TC4eh  1 3.950000e-01    2.310000e+00
   N2h TC3eh  1 3.950000e-01    2.310000e+00
   N2h TC2eh  1 3.950000e-01    2.110000e+00
   N2h TC1eh  1 3.950000e-01    1.850000e+00
   N2h TX4eh  1 3.950000e-01    2.700000e+00
   N2h TX3eh  1 3.950000e-01    2.500000e+00
   N2h TX2eh  1 3.950000e-01    2.310000e+00
   N2h TX1eh  1 3.950000e-01    2.310000e+00
   N1h  TC6h  1 3.950000e-01    2.500000e+00
   N1h  TC5h  1 3.950000e-01    2.310000e+00
   N1h  TC4h  1 3.950000e-01    2.310000e+00
   N1h  TC3h  1 3.950000e-01    2.110000e+00
   N1h  TC2h  1 3.950000e-01    1.850000e+00
   N1h  TC1h  1 3.950000e-01    1.670000e+00
   N1h  TX4h  1 3.950000e-01    2.310000e+00
   N1h  TX3h  1 3.950000e-01    2.310000e+00
   N1h  TX2h  1 3.950000e-01    2.110000e+00
   N1h  TX1h  1 3.950000e-01    2.110000e+00
   N1h TC6vh  1 3.950000e-01    2.700000e+00
   N1h TC5vh  1 3.950000e-01    2.500000e+00
   N1h TC4vh  1 3.950000e-01    2.500000e+00
   N1h TC3vh  1 3.950000e-01    2.310000e+00
   N1h TC2vh  1 3.950000e-01    2.110000e+00
   N1h TC1vh  1 3.950000e-01    1.850000e+00
   N1h TX4vh  1 3.950000e-01    2.500000e+00
   N1h TX3vh  1 3.950000e-01    2.500000e+00
   N1h TX2vh  1 3.950000e-01    2.310000e+00
   N1h TX1vh  1 3.950000e-01    2.310000e+00
   N1h TC6eh  1 3.950000e-01    2.700000e+00
   N1h TC5eh  1 3.950000e-01    2.500000e+00
   N1h TC4eh  1 3.950000e-01    2.500000e+00
   N1h TC3eh  1 3.950000e-01    2.310000e+00
   N1h TC2eh  1 3.950000e-01    2.110000e+00
   N1h TC1eh  1 3.950000e-01    1.850000e+00
   N1h TX4eh  1 3.950000e-01    2.500000e+00
   N1h TX3eh  1 3.950000e-01    2.500000e+00
   N1h TX2eh  1 3.950000e-01    2.310000e+00
   N1h TX1eh  1 3.950000e-01    2.310000e+00
  P6dh  TC6h  1 3.950000e-01    1.670000e+00
  P6dh  TC5h  1 3.980000e-01    1.450000e+00
  P6dh  TC4h  1 3.990000e-01    1.180000e+00
  P6dh  TC3h  1 4.010000e-01    9.830000e-01
  P6dh  TC2h  1 4.010000e-01    9.830000e-01
  P6dh  TC1h  1 4.650000e-01    7.030000e-01
  P6dh  TX4h  1 3.950000e-01    1.850000e+00
  P6dh  TX3h  1 3.950000e-01    1.850000e+00
  P6dh  TX2h  1 3.950000e-01    1.670000e+00
  P6dh  TX1h  1 3.980000e-01    1.450000e+00
  P6dh TC6vh  1 3.980000e-01    1.450000e+00
  P6dh TC5vh  1 3.990000e-01    1.180000e+00
  P6dh TC4vh  1 4.010000e-01    9.830000e-01
  P6dh TC3vh  1 4.040000e-01    8.300000e-01
  P6dh TC2vh  1 4.040000e-01    8.300000e-01
  P6dh TC1vh  1 5.110000e-01    6.590000e-01
  P6dh TX4vh  1 3.950000e-01    1.670000e+00
  P6dh TX3vh  1 3.950000e-01    1.670000e+00
  P6dh TX2vh  1 3.980000e-01    1.450000e+00
  P6dh TX1vh  1 3.990000e-01    1.180000e+00
  P6dh TC6eh  1 3.950000e-01    1.850000e+00
  P6dh TC5eh  1 3.950000e-01    1.670000e+00
  P6dh TC4eh  1 3.980000e-01    1.450000e+00
  P6dh TC3eh  1 3.990000e-01    1.180000e+00
  P6dh TC2eh  1 3.990000e-01    1.180000e+00
  P6dh TC1eh  1 4.040000e-01    8.300000e-01
  P6dh TX4eh  1 3.950000e-01    2.110000e+00
  P6dh TX3eh  1 3.950000e-01    2.110000e+00
  P6dh TX2eh  1 3.950000e-01    1.850000e+00
  P6dh TX1eh  1 3.950000e-01    1.670000e+00
  P5dh  TC6h  1 3.950000e-01    1.670000e+00
  P5dh  TC5h  1 3.950000e-01    1.670000e+00
  P5dh  TC4h  1 3.980000e-01    1.450000e+00
  P5dh  TC3h  1 3.990000e-01    1.180000e+00
  P5dh  TC2h  1 3.990000e-01    1.180000e+00
  P5dh  TC1h  1 4.010000e-01    9.830000e-01
  P5dh  TX4h  1 3.950000e-01    2.110000e+00
  P5dh  TX3h  1 3.950000e-01    1.850000e+00
  P5dh  TX2h  1 3.950000e-01    1.850000e+00
  P5dh  TX1h  1 3.980000e-01    1.450000e+00
  P5dh TC6vh  1 3.980000e-01    1.450000e+00
  P5dh TC5vh  1 3.980000e-01    1.450000e+00
  P5dh TC4vh  1 3.990000e-01    1.180000e+00
  P5dh TC3vh  1 4.010000e-01    9.830000e-01
  P5dh TC2vh  1 4.010000e-01    9.830000e-01
  P5dh TC1vh  1 4.040000e-01    8.300000e-01
  P5dh TX4vh  1 3.950000e-01    1.850000e+00
  P5dh TX3vh  1 3.950000e-01    1.670000e+00
  P5dh TX2vh  1 3.950000e-01    1.670000e+00
  P5dh TX1vh  1 3.990000e-01    1.180000e+00
  P5dh TC6eh  1 3.950000e-01    1.850000e+00
  P5dh TC5eh  1 3.950000e-01    1.850000e+00
  P5dh TC4eh  1 3.950000e-01    1.670000e+00
  P5dh TC3eh  1 3.980000e-01    1.450000e+00
  P5dh TC2eh  1 3.980000e-01    1.450000e+00
  P5dh TC1eh  1 3.990000e-01    1.180000e+00
  P5dh TX4eh  1 3.950000e-01    2.310000e+00
  P5dh TX3eh  1 3.950000e-01    2.110000e+00
  P5dh TX2eh  1 3.950000e-01    2.110000e+00
  P5dh TX1eh  1 3.950000e-01    1.670000e+00
  P4dh  TC6h  1 3.950000e-01    1.850000e+00
  P4dh  TC5h  1 3.950000e-01    1.670000e+00
  P4dh  TC4h  1 3.980000e-01    1.450000e+00
  P4dh  TC3h  1 3.990000e-01    1.180000e+00
  P4dh  TC2h  1 3.990000e-01    1.180000e+00
  P4dh  TC1h  1 4.010000e-01    9.830000e-01
  P4dh  TX4h  1 3.950000e-01    2.110000e+00
  P4dh  TX3h  1 3.950000e-01    1.850000e+00
  P4dh  TX2h  1 3.950000e-01    1.850000e+00
  P4dh  TX1h  1 3.950000e-01    1.670000e+00
  P4dh TC6vh  1 3.950000e-01    1.670000e+00
  P4dh TC5vh  1 3.980000e-01    1.450000e+00
  P4dh TC4vh  1 3.990000e-01    1.180000e+00
  P4dh TC3vh  1 4.010000e-01    9.830000e-01
  P4dh TC2vh  1 4.010000e-01    9.830000e-01
  P4dh TC1vh  1 4.040000e-01    8.300000e-01
  P4dh TX4vh  1 3.950000e-01    1.850000e+00
  P4dh TX3vh  1 3.950000e-01    1.670000e+00
  P4dh TX2vh  1 3.950000e-01    1.670000e+00
  P4dh TX1vh  1 3.980000e-01    1.450000e+00
  P4dh TC6eh  1 3.950000e-01    2.110000e+00
  P4dh TC5eh  1 3.950000e-01    1.850000e+00
  P4dh TC4eh  1 3.950000e-01    1.670000e+00
  P4dh TC3eh  1 3.980000e-01    1.450000e+00
  P4dh TC2eh  1 3.980000e-01    1.450000e+00
  P4dh TC1eh  1 3.990000e-01    1.180000e+00
  P4dh TX4eh  1 3.950000e-01    2.310000e+00
  P4dh TX3eh  1 3.950000e-01    2.110000e+00
  P4dh TX2eh  1 3.950000e-01    2.110000e+00
  P4dh TX1eh  1 3.950000e-01    1.850000e+00
  P3dh  TC6h  1 3.950000e-01    2.110000e+00
  P3dh  TC5h  1 3.950000e-01    1.850000e+00
  P3dh  TC4h  1 3.950000e-01    1.670000e+00
  P3dh  TC3h  1 3.990000e-01    1.180000e+00
  P3dh  TC2h  1 3.990000e-01    1.180000e+00
  P3dh  TC1h  1 4.010000e-01    9.830000e-01
  P3dh  TX4h  1 3.950000e-01    2.110000e+00
  P3dh  TX3h  1 3.950000e-01    2.110000e+00
  P3dh  TX2h  1 3.950000e-01    1.850000e+00
  P3dh  TX1h  1 3.950000e-01    1.670000e+00
  P3dh TC6vh  1 3.950000e-01    1.850000e+00
  P3dh TC5vh  1 3.950000e-01    1.670000e+00
  P3dh TC4vh  1 3.980000e-01    1.450000e+00
  P3dh TC3vh  1 4.010000e-01    9.830000e-01
  P3dh TC2vh  1 4.010000e-01    9.830000e-01
  P3dh TC1vh  1 4.040000e-01    8.300000e-01
  P3dh TX4vh  1 3.950000e-01    1.850000e+00
  P3dh TX3vh  1 3.950000e-01    1.850000e+00
  P3dh TX2vh  1 3.950000e-01    1.670000e+00
  P3dh TX1vh  1 3.980000e-01    1.450000e+00
  P3dh TC6eh  1 3.950000e-01    2.310000e+00
  P3dh TC5eh  1 3.950000e-01    2.110000e+00
  P3dh TC4eh  1 3.950000e-01    1.850000e+00
  P3dh TC3eh  1 3.980000e-01    1.450000e+00
  P3dh TC2eh  1 3.980000e-01    1.450000e+00
  P3dh TC1eh  1 3.990000e-01    1.180000e+00
  P3dh TX4eh  1 3.950000e-01    2.310000e+00
  P3dh TX3eh  1 3.950000e-01    2.310000e+00
  P3dh TX2eh  1 3.950000e-01    2.110000e+00
  P3dh TX1eh  1 3.950000e-01    1.850000e+00
  P2dh  TC6h  1 3.950000e-01    2.110000e+00
  P2dh  TC5h  1 3.950000e-01    1.850000e+00
  P2dh  TC4h  1 3.950000e-01    1.670000e+00
  P2dh  TC3h  1 3.980000e-01    1.450000e+00
  P2dh  TC2h  1 3.980000e-01    1.450000e+00
  P2dh  TC1h  1 3.990000e-01    1.180000e+00
  P2dh  TX4h  1 3.950000e-01    2.110000e+00
  P2dh  TX3h  1 3.950000e-01    2.110000e+00
  P2dh  TX2h  1 3.950000e-01    1.850000e+00
  P2dh  TX1h  1 3.950000e-01    1.670000e+00
  P2dh TC6vh  1 3.950000e-01    1.850000e+00
  P2dh TC5vh  1 3.950000e-01    1.670000e+00
  P2dh TC4vh  1 3.980000e-01    1.450000e+00
  P2dh TC3vh  1 3.990000e-01    1.180000e+00
  P2dh TC2vh  1 3.990000e-01    1.180000e+00
  P2dh TC1vh  1 4.010000e-01    9.830000e-01
  P2dh TX4vh  1 3.950000e-01    1.850000e+00
  P2dh TX3vh  1 3.950000e-01    1.850000e+00
  P2dh TX2vh  1 3.950000e-01    1.670000e+00
  P2dh TX1vh  1 3.980000e-01    1.450000e+00
  P2dh TC6eh  1 3.950000e-01    2.310000e+00
  P2dh TC5eh  1 3.950000e-01    2.110000e+00
  P2dh TC4eh  1 3.950000e-01    1.850000e+00
  P2dh TC3eh  1 3.950000e-01    1.670000e+00
  P2dh TC2eh  1 3.950000e-01    1.670000e+00
  P2dh TC1eh  1 3.980000e-01    1.450000e+00
  P2dh TX4eh  1 3.950000e-01    2.310000e+00
  P2dh TX3eh  1 3.950000e-01    2.310000e+00
  P2dh TX2eh  1 3.950000e-01    2.110000e+00
  P2dh TX1eh  1 3.950000e-01    1.850000e+00
  P1dh  TC6h  1 3.950000e-01    2.110000e+00
  P1dh  TC5h  1 3.950000e-01    1.850000e+00
  P1dh  TC4h  1 3.950000e-01    1.670000e+00
  P1dh  TC3h  1 3.980000e-01    1.450000e+00
  P1dh  TC2h  1 3.980000e-01    1.450000e+00
  P1dh  TC1h  1 3.990000e-01    1.180000e+00
  P1dh  TX4h  1 3.950000e-01    2.110000e+00
  P1dh  TX3h  1 3.950000e-01    2.110000e+00
  P1dh  TX2h  1 3.950000e-01    1.850000e+00
  P1dh  TX1h  1 3.950000e-01    1.670000e+00
  P1dh TC6vh  1 3.950000e-01    1.850000e+00
  P1dh TC5vh  1 3.950000e-01    1.670000e+00
  P1dh TC4vh  1 3.980000e-01    1.450000e+00
  P1dh TC3vh  1 3.990000e-01    1.180000e+00
  P1dh TC2vh  1 3.990000e-01    1.180000e+00
  P1dh TC1vh  1 4.010000e-01    9.830000e-01
  P1dh TX4vh  1 3.950000e-01    1.850000e+00
  P1dh TX3vh  1 3.950000e-01    1.850000e+00
  P1dh TX2vh  1 3.950000e-01    1.670000e+00
  P1dh TX1vh  1 3.980000e-01    1.450000e+00
  P1dh TC6eh  1 3.950000e-01    2.310000e+00
  P1dh TC5eh  1 3.950000e-01    2.110000e+00
  P1dh TC4eh  1 3.950000e-01    1.850000e+00
  P1dh TC3eh  1 3.950000e-01    1.670000e+00
  P1dh TC2eh  1 3.950000e-01    1.670000e+00
  P1dh TC1eh  1 3.980000e-01    1.450000e+00
  P1dh TX4eh  1 3.950000e-01    2.310000e+00
  P1dh TX3eh  1 3.950000e-01    2.310000e+00
  P1dh TX2eh  1 3.950000e-01    2.110000e+00
  P1dh TX1eh  1 3.950000e-01    1.850000e+00
  N6dh  TC6h  1 3.950000e-01    2.310000e+00
  N6dh  TC5h  1 3.950000e-01    2.110000e+00
  N6dh  TC4h  1 3.950000e-01    1.850000e+00
  N6dh  TC3h  1 3.950000e-01    1.670000e+00
  N6dh  TC2h  1 3.950000e-01    1.670000e+00
  N6dh  TC1h  1 3.980000e-01    1.450000e+00
  N6dh  TX4h  1 3.950000e-01    2.310000e+00
  N6dh  TX3h  1 3.950000e-01    2.110000e+00
  N6dh  TX2h  1 3.950000e-01    1.850000e+00
  N6dh  TX1h  1 3.950000e-01    1.670000e+00
  N6dh TC6vh  1 3.950000e-01    2.110000e+00
  N6dh TC5vh  1 3.950000e-01    1.850000e+00
  N6dh TC4vh  1 3.950000e-01    1.670000e+00
  N6dh TC3vh  1 3.980000e-01    1.450000e+00
  N6dh TC2vh  1 3.980000e-01    1.450000e+00
  N6dh TC1vh  1 3.990000e-01    1.180000e+00
  N6dh TX4vh  1 3.950000e-01    2.110000e+00
  N6dh TX3vh  1 3.950000e-01    1.850000e+00
  N6dh TX2vh  1 3.950000e-01    1.670000e+00
  N6dh TX1vh  1 3.980000e-01    1.450000e+00
  N6dh TC6eh  1 3.950000e-01    2.500000e+00
  N6dh TC5eh  1 3.950000e-01    2.310000e+00
  N6dh TC4eh  1 3.950000e-01    2.110000e+00
  N6dh TC3eh  1 3.950000e-01    1.850000e+00
  N6dh TC2eh  1 3.950000e-01    1.850000e+00
  N6dh TC1eh  1 3.950000e-01    1.670000e+00
  N6dh TX4eh  1 3.950000e-01    2.500000e+00
  N6dh TX3eh  1 3.950000e-01    2.310000e+00
  N6dh TX2eh  1 3.950000e-01    2.110000e+00
  N6dh TX1eh  1 3.950000e-01    1.850000e+00
  N5dh  TC6h  1 3.950000e-01    2.310000e+00
  N5dh  TC5h  1 3.950000e-01    2.110000e+00
  N5dh  TC4h  1 3.950000e-01    1.850000e+00
  N5dh  TC3h  1 3.950000e-01    1.850000e+00
  N5dh  TC2h  1 3.950000e-01    1.670000e+00
  N5dh  TC1h  1 3.980000e-01    1.450000e+00
  N5dh  TX4h  1 3.950000e-01    2.500000e+00
  N5dh  TX3h  1 3.950000e-01    2.310000e+00
  N5dh  TX2h  1 3.950000e-01    2.110000e+00
  N5dh  TX1h  1 3.950000e-01    1.850000e+00
  N5dh TC6vh  1 3.950000e-01    2.110000e+00
  N5dh TC5vh  1 3.950000e-01    1.850000e+00
  N5dh TC4vh  1 3.950000e-01    1.670000e+00
  N5dh TC3vh  1 3.950000e-01    1.670000e+00
  N5dh TC2vh  1 3.980000e-01    1.450000e+00
  N5dh TC1vh  1 3.990000e-01    1.180000e+00
  N5dh TX4vh  1 3.950000e-01    2.310000e+00
  N5dh TX3vh  1 3.950000e-01    2.110000e+00
  N5dh TX2vh  1 3.950000e-01    1.850000e+00
  N5dh TX1vh  1 3.950000e-01    1.670000e+00
  N5dh TC6eh  1 3.950000e-01    2.500000e+00
  N5dh TC5eh  1 3.950000e-01    2.310000e+00
  N5dh TC4eh  1 3.950000e-01    2.110000e+00
  N5dh TC3eh  1 3.950000e-01    2.110000e+00
  N5dh TC2eh  1 3.950000e-01    1.850000e+00
  N5dh TC1eh  1 3.950000e-01    1.670000e+00
  N5dh TX4eh  1 3.950000e-01    2.700000e+00
  N5dh TX3eh  1 3.950000e-01    2.500000e+00
  N5dh TX2eh  1 3.950000e-01    2.310000e+00
  N5dh TX1eh  1 3.950000e-01    2.110000e+00
  N4dh  TC6h  1 3.950000e-01    2.310000e+00
  N4dh  TC5h  1 3.950000e-01    2.110000e+00
  N4dh  TC4h  1 3.950000e-01    2.110000e+00
  N4dh  TC3h  1 3.950000e-01    1.850000e+00
  N4dh  TC2h  1 3.950000e-01    1.670000e+00
  N4dh  TC1h  1 3.980000e-01    1.450000e+00
  N4dh  TX4h  1 3.950000e-01    2.700000e+00
  N4dh  TX3h  1 3.950000e-01    2.500000e+00
  N4dh  TX2h  1 3.950000e-01    2.110000e+00
  N4dh  TX1h  1 3.950000e-01    1.850000e+00
  N4dh TC6vh  1 3.950000e-01    2.110000e+00
  N4dh TC5vh  1 3.950000e-01    1.850000e+00
  N4dh TC4vh  1 3.950000e-01    1.850000e+00
  N4dh TC3vh  1 3.950000e-01    1.670000e+00
  N4dh TC2vh  1 3.980000e-01    1.450000e+00
  N4dh TC1vh  1 3.990000e-01    1.180000e+00
  N4dh TX4vh  1 3.950000e-01    2.500000e+00
  N4dh TX3vh  1 3.950000e-01    2.310000e+00
  N4dh TX2vh  1 3.950000e-01    1.850000e+00
  N4dh TX1vh  1 3.950000e-01    1.670000e+00
  N4dh TC6eh  1 3.950000e-01    2.500000e+00
  N4dh TC5eh  1 3.950000e-01    2.310000e+00
  N4dh TC4eh  1 3.950000e-01    2.310000e+00
  N4dh TC3eh  1 3.950000e-01    2.110000e+00
  N4dh TC2eh  1 3.950000e-01    1.850000e+00
  N4dh TC1eh  1 3.950000e-01    1.670000e+00
  N4dh TX4eh  1 3.950000e-01    2.940000e+00
  N4dh TX3eh  1 3.950000e-01    2.700000e+00
  N4dh TX2eh  1 3.950000e-01    2.310000e+00
  N4dh TX1eh  1 3.950000e-01    2.110000e+00
  N3dh  TC6h  1 3.950000e-01    2.310000e+00
  N3dh  TC5h  1 3.950000e-01    2.110000e+00
  N3dh  TC4h  1 3.950000e-01    2.110000e+00
  N3dh  TC3h  1 3.950000e-01    1.850000e+00
  N3dh  TC2h  1 3.950000e-01    1.850000e+00
  N3dh  TC1h  1 3.950000e-01    1.670000e+00
  N3dh  TX4h  1 3.950000e-01    2.500000e+00
  N3dh  TX3h  1 3.950000e-01    2.310000e+00
  N3dh  TX2h  1 3.950000e-01    2.110000e+00
  N3dh  TX1h  1 3.950000e-01    2.110000e+00
  N3dh TC6vh  1 3.950000e-01    2.110000e+00
  N3dh TC5vh  1 3.950000e-01    1.850000e+00
  N3dh TC4vh  1 3.950000e-01    1.850000e+00
  N3dh TC3vh  1 3.950000e-01    1.670000e+00
  N3dh TC2vh  1 3.950000e-01    1.670000e+00
  N3dh TC1vh  1 3.980000e-01    1.450000e+00
  N3dh TX4vh  1 3.950000e-01    2.310000e+00
  N3dh TX3vh  1 3.950000e-01    2.110000e+00
  N3dh TX2vh  1 3.950000e-01    1.850000e+00
  N3dh TX1vh  1 3.950000e-01    1.850000e+00
  N3dh TC6eh  1 3.950000e-01    2.500000e+00
  N3dh TC5eh  1 3.950000e-01    2.310000e+00
  N3dh TC4eh  1 3.950000e-01    2.310000e+00
  N3dh TC3eh  1 3.950000e-01    2.110000e+00
  N3dh TC2eh  1 3.950000e-01    2.110000e+00
  N3dh TC1eh  1 3.950000e-01    1.850000e+00
  N3dh TX4eh  1 3.950000e-01    2.700000e+00
  N3dh TX3eh  1 3.950000e-01    2.500000e+00
  N3dh TX2eh  1 3.950000e-01    2.310000e+00
  N3dh TX1eh  1 3.950000e-01    2.310000e+00
  N2dh  TC6h  1 3.950000e-01    2.310000e+00
  N2dh  TC5h  1 3.950000e-01    2.110000e+00
  N2dh  TC4h  1 3.950000e-01    2.110000e+00
  N2dh  TC3h  1 3.950000e-01    2.110000e+00
  N2dh  TC2h  1 3.950000e-01    1.850000e+00
  N2dh  TC1h  1 3.950000e-01    1.670000e+00
  N2dh  TX4h  1 3.950000e-01    2.500000e+00
  N2dh  TX3h  1 3.950000e-01    2.310000e+00
  N2dh  TX2h  1 3.950000e-01    2.110000e+00
  N2dh  TX1h  1 3.950000e-01    2.110000e+00
  N2dh TC6vh  1 3.950000e-01    2.110000e+00
  N2dh TC5vh  1 3.950000e-01    1.850000e+00
  N2dh TC4vh  1 3.950000e-01    1.850000e+00
  N2dh TC3vh  1 3.950000e-01    1.850000e+00
  N2dh TC2vh  1 3.950000e-01    1.670000e+00
  N2dh TC1vh  1 3.980000e-01    1.450000e+00
  N2dh TX4vh  1 3.950000e-01    2.310000e+00
  N2dh TX3vh  1 3.950000e-01    2.110000e+00
  N2dh TX2vh  1 3.950000e-01    1.850000e+00
  N2dh TX1vh  1 3.950000e-01    1.850000e+00
  N2dh TC6eh  1 3.950000e-01    2.500000e+00
  N2dh TC5eh  1 3.950000e-01    2.310000e+00
  N2dh TC4eh  1 3.950000e-01    2.310000e+00
  N2dh TC3eh  1 3.950000e-01    2.310000e+00
  N2dh TC2eh  1 3.950000e-01    2.110000e+00
  N2dh TC1eh  1 3.950000e-01    1.850000e+00
  N2dh TX4eh  1 3.950000e-01    2.700000e+00
  N2dh TX3eh  1 3.950000e-01    2.500000e+00
  N2dh TX2eh  1 3.950000e-01    2.310000e+00
  N2dh TX1eh  1 3.950000e-01    2.310000e+00
  N1dh  TC6h  1 3.950000e-01    2.500000e+00
  N1dh  TC5h  1 3.950000e-01    2.310000e+00
  N1dh  TC4h  1 3.950000e-01    2.310000e+00
  N1dh  TC3h  1 3.950000e-01    2.110000e+00
  N1dh  TC2h  1 3.950000e-01    1.850000e+00
  N1dh  TC1h  1 3.950000e-01    1.670000e+00
  N1dh  TX4h  1 3.950000e-01    2.310000e+00
  N1dh  TX3h  1 3.950000e-01    2.310000e+00
  N1dh  TX2h  1 3.950000e-01    2.110000e+00
  N1dh  TX1h  1 3.950000e-01    2.110000e+00
  N1dh TC6vh  1 3.950000e-01    2.310000e+00
  N1dh TC5vh  1 3.950000e-01    2.110000e+00
  N1dh TC4vh  1 3.950000e-01    2.110000e+00
  N1dh TC3vh  1 3.950000e-01    1.850000e+00
  N1dh TC2vh  1 3.950000e-01    1.670000e+00
  N1dh TC1vh  1 3.980000e-01    1.450000e+00
  N1dh TX4vh  1 3.950000e-01    2.110000e+00
  N1dh TX3vh  1 3.950000e-01    2.110000e+00
  N1dh TX2vh  1 3.950000e-01    1.850000e+00
  N1dh TX1vh  1 3.950000e-01    1.850000e+00
  N1dh TC6eh  1 3.950000e-01    2.700000e+00
  N1dh TC5eh  1 3.950000e-01    2.500000e+00
  N1dh TC4eh  1 3.950000e-01    2.500000e+00
  N1dh TC3eh  1 3.950000e-01    2.310000e+00
  N1dh TC2eh  1 3.950000e-01    2.110000e+00
  N1dh TC1eh  1 3.950000e-01    1.850000e+00
  N1dh TX4eh  1 3.950000e-01    2.500000e+00
  N1dh TX3eh  1 3.950000e-01    2.500000e+00
  N1dh TX2eh  1 3.950000e-01    2.310000e+00
  N1dh TX1eh  1 3.950000e-01    2.310000e+00
  P6ah  TC6h  1 3.950000e-01    1.670000e+00
  P6ah  TC5h  1 3.980000e-01    1.450000e+00
  P6ah  TC4h  1 3.990000e-01    1.180000e+00
  P6ah  TC3h  1 4.010000e-01    9.830000e-01
  P6ah  TC2h  1 4.010000e-01    9.830000e-01
  P6ah  TC1h  1 4.650000e-01    7.030000e-01
  P6ah  TX4h  1 3.950000e-01    1.850000e+00
  P6ah  TX3h  1 3.950000e-01    1.850000e+00
  P6ah  TX2h  1 3.950000e-01    1.670000e+00
  P6ah  TX1h  1 3.980000e-01    1.450000e+00
  P6ah TC6vh  1 3.950000e-01    1.850000e+00
  P6ah TC5vh  1 3.950000e-01    1.670000e+00
  P6ah TC4vh  1 3.980000e-01    1.450000e+00
  P6ah TC3vh  1 3.990000e-01    1.180000e+00
  P6ah TC2vh  1 3.990000e-01    1.180000e+00
  P6ah TC1vh  1 4.040000e-01    8.300000e-01
  P6ah TX4vh  1 3.950000e-01    2.110000e+00
  P6ah TX3vh  1 3.950000e-01    2.110000e+00
  P6ah TX2vh  1 3.950000e-01    1.850000e+00
  P6ah TX1vh  1 3.950000e-01    1.670000e+00
  P6ah TC6eh  1 3.980000e-01    1.450000e+00
  P6ah TC5eh  1 3.990000e-01    1.180000e+00
  P6ah TC4eh  1 4.010000e-01    9.830000e-01
  P6ah TC3eh  1 4.040000e-01    8.300000e-01
  P6ah TC2eh  1 4.040000e-01    8.300000e-01
  P6ah TC1eh  1 5.110000e-01    6.590000e-01
  P6ah TX4eh  1 3.950000e-01    1.670000e+00
  P6ah TX3eh  1 3.950000e-01    1.670000e+00
  P6ah TX2eh  1 3.980000e-01    1.450000e+00
  P6ah TX1eh  1 3.990000e-01    1.180000e+00
  P5ah  TC6h  1 3.950000e-01    1.670000e+00
  P5ah  TC5h  1 3.950000e-01    1.670000e+00
  P5ah  TC4h  1 3.980000e-01    1.450000e+00
  P5ah  TC3h  1 3.990000e-01    1.180000e+00
  P5ah  TC2h  1 3.990000e-01    1.180000e+00
  P5ah  TC1h  1 4.010000e-01    9.830000e-01
  P5ah  TX4h  1 3.950000e-01    2.110000e+00
  P5ah  TX3h  1 3.950000e-01    1.850000e+00
  P5ah  TX2h  1 3.950000e-01    1.850000e+00
  P5ah  TX1h  1 3.980000e-01    1.450000e+00
  P5ah TC6vh  1 3.950000e-01    1.850000e+00
  P5ah TC5vh  1 3.950000e-01    1.850000e+00
  P5ah TC4vh  1 3.950000e-01    1.670000e+00
  P5ah TC3vh  1 3.980000e-01    1.450000e+00
  P5ah TC2vh  1 3.980000e-01    1.450000e+00
  P5ah TC1vh  1 3.990000e-01    1.180000e+00
  P5ah TX4vh  1 3.950000e-01    2.310000e+00
  P5ah TX3vh  1 3.950000e-01    2.110000e+00
  P5ah TX2vh  1 3.950000e-01    2.110000e+00
  P5ah TX1vh  1 3.950000e-01    1.670000e+00
  P5ah TC6eh  1 3.980000e-01    1.450000e+00
  P5ah TC5eh  1 3.980000e-01    1.450000e+00
  P5ah TC4eh  1 3.990000e-01    1.180000e+00
  P5ah TC3eh  1 4.010000e-01    9.830000e-01
  P5ah TC2eh  1 4.010000e-01    9.830000e-01
  P5ah TC1eh  1 4.040000e-01    8.300000e-01
  P5ah TX4eh  1 3.950000e-01    1.850000e+00
  P5ah TX3eh  1 3.950000e-01    1.670000e+00
  P5ah TX2eh  1 3.950000e-01    1.670000e+00
  P5ah TX1eh  1 3.990000e-01    1.180000e+00
  P4ah  TC6h  1 3.950000e-01    1.850000e+00
  P4ah  TC5h  1 3.950000e-01    1.670000e+00
  P4ah  TC4h  1 3.980000e-01    1.450000e+00
  P4ah  TC3h  1 3.990000e-01    1.180000e+00
  P4ah  TC2h  1 3.990000e-01    1.180000e+00
  P4ah  TC1h  1 4.010000e-01    9.830000e-01
  P4ah  TX4h  1 3.950000e-01    2.110000e+00
  P4ah  TX3h  1 3.950000e-01    1.850000e+00
  P4ah  TX2h  1 3.950000e-01    1.850000e+00
  P4ah  TX1h  1 3.950000e-01    1.670000e+00
  P4ah TC6vh  1 3.950000e-01    2.110000e+00
  P4ah TC5vh  1 3.950000e-01    1.850000e+00
  P4ah TC4vh  1 3.950000e-01    1.670000e+00
  P4ah TC3vh  1 3.980000e-01    1.450000e+00
  P4ah TC2vh  1 3.980000e-01    1.450000e+00
  P4ah TC1vh  1 3.990000e-01    1.180000e+00
  P4ah TX4vh  1 3.950000e-01    2.310000e+00
  P4ah TX3vh  1 3.950000e-01    2.110000e+00
  P4ah TX2vh  1 3.950000e-01    2.110000e+00
  P4ah TX1vh  1 3.950000e-01    1.850000e+00
  P4ah TC6eh  1 3.950000e-01    1.670000e+00
  P4ah TC5eh  1 3.980000e-01    1.450000e+00
  P4ah TC4eh  1 3.990000e-01    1.180000e+00
  P4ah TC3eh  1 4.010000e-01    9.830000e-01
  P4ah TC2eh  1 4.010000e-01    9.830000e-01
  P4ah TC1eh  1 4.040000e-01    8.300000e-01
  P4ah TX4eh  1 3.950000e-01    1.850000e+00
  P4ah TX3eh  1 3.950000e-01    1.670000e+00
  P4ah TX2eh  1 3.950000e-01    1.670000e+00
  P4ah TX1eh  1 3.980000e-01    1.450000e+00
  P3ah  TC6h  1 3.950000e-01    2.110000e+00
  P3ah  TC5h  1 3.950000e-01    1.850000e+00
  P3ah  TC4h  1 3.950000e-01    1.670000e+00
  P3ah  TC3h  1 3.990000e-01    1.180000e+00
  P3ah  TC2h  1 3.990000e-01    1.180000e+00
  P3ah  TC1h  1 4.010000e-01    9.830000e-01
  P3ah  TX4h  1 3.950000e-01    2.110000e+00
  P3ah  TX3h  1 3.950000e-01    2.110000e+00
  P3ah  TX2h  1 3.950000e-01    1.850000e+00
  P3ah  TX1h  1 3.950000e-01    1.670000e+00
  P3ah TC6vh  1 3.950000e-01    2.310000e+00
  P3ah TC5vh  1 3.950000e-01    2.110000e+00
  P3ah TC4vh  1 3.950000e-01    1.850000e+00
  P3ah TC3vh  1 3.980000e-01    1.450000e+00
  P3ah TC2vh  1 3.980000e-01    1.450000e+00
  P3ah TC1vh  1 3.990000e-01    1.180000e+00
  P3ah TX4vh  1 3.950000e-01    2.310000e+00
  P3ah TX3vh  1 3.950000e-01    2.310000e+00
  P3ah TX2vh  1 3.950000e-01    2.110000e+00
  P3ah TX1vh  1 3.950000e-01    1.850000e+00
  P3ah TC6eh  1 3.950000e-01    1.850000e+00
  P3ah TC5eh  1 3.950000e-01    1.670000e+00
  P3ah TC4eh  1 3.980000e-01    1.450000e+00
  P3ah TC3eh  1 4.010000e-01    9.830000e-01
  P3ah TC2eh  1 4.010000e-01    9.830000e-01
  P3ah TC1eh  1 4.040000e-01    8.300000e-01
  P3ah TX4eh  1 3.950000e-01    1.850000e+00
  P3ah TX3eh  1 3.950000e-01    1.850000e+00
  P3ah TX2eh  1 3.950000e-01    1.670000e+00
  P3ah TX1eh  1 3.980000e-01    1.450000e+00
  P2ah  TC6h  1 3.950000e-01    2.110000e+00
  P2ah  TC5h  1 3.950000e-01    1.850000e+00
  P2ah  TC4h  1 3.950000e-01    1.670000e+00
  P2ah  TC3h  1 3.980000e-01    1.450000e+00
  P2ah  TC2h  1 3.980000e-01    1.450000e+00
  P2ah  TC1h  1 3.990000e-01    1.180000e+00
  P2ah  TX4h  1 3.950000e-01    2.110000e+00
  P2ah  TX3h  1 3.950000e-01    2.110000e+00
  P2ah  TX2h  1 3.950000e-01    1.850000e+00
  P2ah  TX1h  1 3.950000e-01    1.670000e+00
  P2ah TC6vh  1 3.950000e-01    2.310000e+00
  P2ah TC5vh  1 3.950000e-01    2.110000e+00
  P2ah TC4vh  1 3.950000e-01    1.850000e+00
  P2ah TC3vh  1 3.950000e-01    1.670000e+00
  P2ah TC2vh  1 3.950000e-01    1.670000e+00
  P2ah TC1vh  1 3.980000e-01    1.450000e+00
  P2ah TX4vh  1 3.950000e-01    2.310000e+00
  P2ah TX3vh  1 3.950000e-01    2.310000e+00
  P2ah TX2vh  1 3.950000e-01    2.110000e+00
  P2ah TX1vh  1 3.950000e-01    1.850000e+00
  P2ah TC6eh  1 3.950000e-01    1.850000e+00
  P2ah TC5eh  1 3.950000e-01    1.670000e+00
  P2ah TC4eh  1 3.980000e-01    1.450000e+00
  P2ah TC3eh  1 3.990000e-01    1.180000e+00
  P2ah TC2eh  1 3.990000e-01    1.180000e+00
  P2ah TC1eh  1 4.010000e-01    9.830000e-01
  P2ah TX4eh  1 3.950000e-01    1.850000e+00
  P2ah TX3eh  1 3.950000e-01    1.850000e+00
  P2ah TX2eh  1 3.950000e-01    1.670000e+00
  P2ah TX1eh  1 3.980000e-01    1.450000e+00
  P1ah  TC6h  1 3.950000e-01    2.110000e+00
  P1ah  TC5h  1 3.950000e-01    1.850000e+00
  P1ah  TC4h  1 3.950000e-01    1.670000e+00
  P1ah  TC3h  1 3.980000e-01    1.450000e+00
  P1ah  TC2h  1 3.980000e-01    1.450000e+00
  P1ah  TC1h  1 3.990000e-01    1.180000e+00
  P1ah  TX4h  1 3.950000e-01    2.110000e+00
  P1ah  TX3h  1 3.950000e-01    2.110000e+00
  P1ah  TX2h  1 3.950000e-01    1.850000e+00
  P1ah  TX1h  1 3.950000e-01    1.670000e+00
  P1ah TC6vh  1 3.950000e-01    2.310000e+00
  P1ah TC5vh  1 3.950000e-01    2.110000e+00
  P1ah TC4vh  1 3.950000e-01    1.850000e+00
  P1ah TC3vh  1 3.950000e-01    1.670000e+00
  P1ah TC2vh  1 3.950000e-01    1.670000e+00
  P1ah TC1vh  1 3.980000e-01    1.450000e+00
  P1ah TX4vh  1 3.950000e-01    2.310000e+00
  P1ah TX3vh  1 3.950000e-01    2.310000e+00
  P1ah TX2vh  1 3.950000e-01    2.110000e+00
  P1ah TX1vh  1 3.950000e-01    1.850000e+00
  P1ah TC6eh  1 3.950000e-01    1.850000e+00
  P1ah TC5eh  1 3.950000e-01    1.670000e+00
  P1ah TC4eh  1 3.980000e-01    1.450000e+00
  P1ah TC3eh  1 3.990000e-01    1.180000e+00
  P1ah TC2eh  1 3.990000e-01    1.180000e+00
  P1ah TC1eh  1 4.010000e-01    9.830000e-01
  P1ah TX4eh  1 3.950000e-01    1.850000e+00
  P1ah TX3eh  1 3.950000e-01    1.850000e+00
  P1ah TX2eh  1 3.950000e-01    1.670000e+00
  P1ah TX1eh  1 3.980000e-01    1.450000e+00
  N6ah  TC6h  1 3.950000e-01    2.310000e+00
  N6ah  TC5h  1 3.950000e-01    2.110000e+00
  N6ah  TC4h  1 3.950000e-01    1.850000e+00
  N6ah  TC3h  1 3.950000e-01    1.670000e+00
  N6ah  TC2h  1 3.950000e-01    1.670000e+00
  N6ah  TC1h  1 3.980000e-01    1.450000e+00
  N6ah  TX4h  1 3.950000e-01    2.310000e+00
  N6ah  TX3h  1 3.950000e-01    2.110000e+00
  N6ah  TX2h  1 3.950000e-01    1.850000e+00
  N6ah  TX1h  1 3.950000e-01    1.670000e+00
  N6ah TC6vh  1 3.950000e-01    2.500000e+00
  N6ah TC5vh  1 3.950000e-01    2.310000e+00
  N6ah TC4vh  1 3.950000e-01    2.110000e+00
  N6ah TC3vh  1 3.950000e-01    1.850000e+00
  N6ah TC2vh  1 3.950000e-01    1.850000e+00
  N6ah TC1vh  1 3.950000e-01    1.670000e+00
  N6ah TX4vh  1 3.950000e-01    2.500000e+00
  N6ah TX3vh  1 3.950000e-01    2.310000e+00
  N6ah TX2vh  1 3.950000e-01    2.110000e+00
  N6ah TX1vh  1 3.950000e-01    1.850000e+00
  N6ah TC6eh  1 3.950000e-01    2.110000e+00
  N6ah TC5eh  1 3.950000e-01    1.850000e+00
  N6ah TC4eh  1 3.950000e-01    1.670000e+00
  N6ah TC3eh  1 3.980000e-01    1.450000e+00
  N6ah TC2eh  1 3.980000e-01    1.450000e+00
  N6ah TC1eh  1 3.990000e-01    1.180000e+00
  N6ah TX4eh  1 3.950000e-01    2.110000e+00
  N6ah TX3eh  1 3.950000e-01    1.850000e+00
  N6ah TX2eh  1 3.950000e-01    1.670000e+00
  N6ah TX1eh  1 3.980000e-01    1.450000e+00
  N5ah  TC6h  1 3.950000e-01    2.310000e+00
  N5ah  TC5h  1 3.950000e-01    2.110000e+00
  N5ah  TC4h  1 3.950000e-01    1.850000e+00
  N5ah  TC3h  1 3.950000e-01    1.850000e+00
  N5ah  TC2h  1 3.950000e-01    1.670000e+00
  N5ah  TC1h  1 3.980000e-01    1.450000e+00
  N5ah  TX4h  1 3.950000e-01    2.500000e+00
  N5ah  TX3h  1 3.950000e-01    2.310000e+00
  N5ah  TX2h  1 3.950000e-01    2.110000e+00
  N5ah  TX1h  1 3.950000e-01    1.850000e+00
  N5ah TC6vh  1 3.950000e-01    2.500000e+00
  N5ah TC5vh  1 3.950000e-01    2.310000e+00
  N5ah TC4vh  1 3.950000e-01    2.110000e+00
  N5ah TC3vh  1 3.950000e-01    2.110000e+00
  N5ah TC2vh  1 3.950000e-01    1.850000e+00
  N5ah TC1vh  1 3.950000e-01    1.670000e+00
  N5ah TX4vh  1 3.950000e-01    2.700000e+00
  N5ah TX3vh  1 3.950000e-01    2.500000e+00
  N5ah TX2vh  1 3.950000e-01    2.310000e+00
  N5ah TX1vh  1 3.950000e-01    2.110000e+00
  N5ah TC6eh  1 3.950000e-01    2.110000e+00
  N5ah TC5eh  1 3.950000e-01    1.850000e+00
  N5ah TC4eh  1 3.950000e-01    1.670000e+00
  N5ah TC3eh  1 3.950000e-01    1.670000e+00
  N5ah TC2eh  1 3.980000e-01    1.450000e+00
  N5ah TC1eh  1 3.990000e-01    1.180000e+00
  N5ah TX4eh  1 3.950000e-01    2.310000e+00
  N5ah TX3eh  1 3.950000e-01    2.110000e+00
  N5ah TX2eh  1 3.950000e-01    1.850000e+00
  N5ah TX1eh  1 3.950000e-01    1.670000e+00
  N4ah  TC6h  1 3.950000e-01    2.310000e+00
  N4ah  TC5h  1 3.950000e-01    2.110000e+00
  N4ah  TC4h  1 3.950000e-01    2.110000e+00
  N4ah  TC3h  1 3.950000e-01    1.850000e+00
  N4ah  TC2h  1 3.950000e-01    1.670000e+00
  N4ah  TC1h  1 3.980000e-01    1.450000e+00
  N4ah  TX4h  1 3.950000e-01    2.700000e+00
  N4ah  TX3h  1 3.950000e-01    2.500000e+00
  N4ah  TX2h  1 3.950000e-01    2.110000e+00
  N4ah  TX1h  1 3.950000e-01    1.850000e+00
  N4ah TC6vh  1 3.950000e-01    2.500000e+00
  N4ah TC5vh  1 3.950000e-01    2.310000e+00
  N4ah TC4vh  1 3.950000e-01    2.310000e+00
  N4ah TC3vh  1 3.950000e-01    2.110000e+00
  N4ah TC2vh  1 3.950000e-01    1.850000e+00
  N4ah TC1vh  1 3.950000e-01    1.670000e+00
  N4ah TX4vh  1 3.950000e-01    2.940000e+00
  N4ah TX3vh  1 3.950000e-01    2.700000e+00
  N4ah TX2vh  1 3.950000e-01    2.310000e+00
  N4ah TX1vh  1 3.950000e-01    2.110000e+00
  N4ah TC6eh  1 3.950000e-01    2.110000e+00
  N4ah TC5eh  1 3.950000e-01    1.850000e+00
  N4ah TC4eh  1 3.950000e-01    1.850000e+00
  N4ah TC3eh  1 3.950000e-01    1.670000e+00
  N4ah TC2eh  1 3.980000e-01    1.450000e+00
  N4ah TC1eh  1 3.990000e-01    1.180000e+00
  N4ah TX4eh  1 3.950000e-01    2.500000e+00
  N4ah TX3eh  1 3.950000e-01    2.310000e+00
  N4ah TX2eh  1 3.950000e-01    1.850000e+00
  N4ah TX1eh  1 3.950000e-01    1.670000e+00
  N3ah  TC6h  1 3.950000e-01    2.310000e+00
  N3ah  TC5h  1 3.950000e-01    2.110000e+00
  N3ah  TC4h  1 3.950000e-01    2.110000e+00
  N3ah  TC3h  1 3.950000e-01    1.850000e+00
  N3ah  TC2h  1 3.950000e-01    1.850000e+00
  N3ah  TC1h  1 3.950000e-01    1.670000e+00
  N3ah  TX4h  1 3.950000e-01    2.500000e+00
  N3ah  TX3h  1 3.950000e-01    2.310000e+00
  N3ah  TX2h  1 3.950000e-01    2.110000e+00
  N3ah  TX1h  1 3.950000e-01    2.110000e+00
  N3ah TC6vh  1 3.950000e-01    2.500000e+00
  N3ah TC5vh  1 3.950000e-01    2.310000e+00
  N3ah TC4vh  1 3.950000e-01    2.310000e+00
  N3ah TC3vh  1 3.950000e-01    2.110000e+00
  N3ah TC2vh  1 3.950000e-01    2.110000e+00
  N3ah TC1vh  1 3.950000e-01    1.850000e+00
  N3ah TX4vh  1 3.950000e-01    2.700000e+00
  N3ah TX3vh  1 3.950000e-01    2.500000e+00
  N3ah TX2vh  1 3.950000e-01    2.310000e+00
  N3ah TX1vh  1 3.950000e-01    2.310000e+00
  N3ah TC6eh  1 3.950000e-01    2.110000e+00
  N3ah TC5eh  1 3.950000e-01    1.850000e+00
  N3ah TC4eh  1 3.950000e-01    1.850000e+00
  N3ah TC3eh  1 3.950000e-01    1.670000e+00
  N3ah TC2eh  1 3.950000e-01    1.670000e+00
  N3ah TC1eh  1 3.980000e-01    1.450000e+00
  N3ah TX4eh  1 3.950000e-01    2.310000e+00
  N3ah TX3eh  1 3.950000e-01    2.110000e+00
  N3ah TX2eh  1 3.950000e-01    1.850000e+00
  N3ah TX1eh  1 3.950000e-01    1.850000e+00
  N2ah  TC6h  1 3.950000e-01    2.310000e+00
  N2ah  TC5h  1 3.950000e-01    2.110000e+00
  N2ah  TC4h  1 3.950000e-01    2.110000e+00
  N2ah  TC3h  1 3.950000e-01    2.110000e+00
  N2ah  TC2h  1 3.950000e-01    1.850000e+00
  N2ah  TC1h  1 3.950000e-01    1.670000e+00
  N2ah  TX4h  1 3.950000e-01    2.500000e+00
  N2ah  TX3h  1 3.950000e-01    2.310000e+00
  N2ah  TX2h  1 3.950000e-01    2.110000e+00
  N2ah  TX1h  1 3.950000e-01    2.110000e+00
  N2ah TC6vh  1 3.950000e-01    2.500000e+00
  N2ah TC5vh  1 3.950000e-01    2.310000e+00
  N2ah TC4vh  1 3.950000e-01    2.310000e+00
  N2ah TC3vh  1 3.950000e-01    2.310000e+00
  N2ah TC2vh  1 3.950000e-01    2.110000e+00
  N2ah TC1vh  1 3.950000e-01    1.850000e+00
  N2ah TX4vh  1 3.950000e-01    2.700000e+00
  N2ah TX3vh  1 3.950000e-01    2.500000e+00
  N2ah TX2vh  1 3.950000e-01    2.310000e+00
  N2ah TX1vh  1 3.950000e-01    2.310000e+00
  N2ah TC6eh  1 3.950000e-01    2.110000e+00
  N2ah TC5eh  1 3.950000e-01    1.850000e+00
  N2ah TC4eh  1 3.950000e-01    1.850000e+00
  N2ah TC3eh  1 3.950000e-01    1.850000e+00
  N2ah TC2eh  1 3.950000e-01    1.670000e+00
  N2ah TC1eh  1 3.980000e-01    1.450000e+00
  N2ah TX4eh  1 3.950000e-01    2.310000e+00
  N2ah TX3eh  1 3.950000e-01    2.110000e+00
  N2ah TX2eh  1 3.950000e-01    1.850000e+00
  N2ah TX1eh  1 3.950000e-01    1.850000e+00
  N1ah  TC6h  1 3.950000e-01    2.500000e+00
  N1ah  TC5h  1 3.950000e-01    2.310000e+00
  N1ah  TC4h  1 3.950000e-01    2.310000e+00
  N1ah  TC3h  1 3.950000e-01    2.110000e+00
  N1ah  TC2h  1 3.950000e-01    1.850000e+00
  N1ah  TC1h  1 3.950000e-01    1.670000e+00
  N1ah  TX4h  1 3.950000e-01    2.310000e+00
  N1ah  TX3h  1 3.950000e-01    2.310000e+00
  N1ah  TX2h  1 3.950000e-01    2.110000e+00
  N1ah  TX1h  1 3.950000e-01    2.110000e+00
  N1ah TC6vh  1 3.950000e-01    2.700000e+00
  N1ah TC5vh  1 3.950000e-01    2.500000e+00
  N1ah TC4vh  1 3.950000e-01    2.500000e+00
  N1ah TC3vh  1 3.950000e-01    2.310000e+00
  N1ah TC2vh  1 3.950000e-01    2.110000e+00
  N1ah TC1vh  1 3.950000e-01    1.850000e+00
  N1ah TX4vh  1 3.950000e-01    2.500000e+00
  N1ah TX3vh  1 3.950000e-01    2.500000e+00
  N1ah TX2vh  1 3.950000e-01    2.310000e+00
  N1ah TX1vh  1 3.950000e-01    2.310000e+00
  N1ah TC6eh  1 3.950000e-01    2.310000e+00
  N1ah TC5eh  1 3.950000e-01    2.110000e+00
  N1ah TC4eh  1 3.950000e-01    2.110000e+00
  N1ah TC3eh  1 3.950000e-01    1.850000e+00
  N1ah TC2eh  1 3.950000e-01    1.670000e+00
  N1ah TC1eh  1 3.980000e-01    1.450000e+00
  N1ah TX4eh  1 3.950000e-01    2.110000e+00
  N1ah TX3eh  1 3.950000e-01    2.110000e+00
  N1ah TX2eh  1 3.950000e-01    1.850000e+00
  N1ah TX1eh  1 3.950000e-01    1.850000e+00
   P6h  TP6r  1 3.950000e-01    4.230000e+00
   P6h  TP5r  1 3.950000e-01    3.910000e+00
   P6r  TP5h  1 3.950000e-01    3.910000e+00
   P6h  TP4r  1 3.950000e-01    3.670000e+00
   P6r  TP4h  1 3.950000e-01    3.670000e+00
   P6h  TP3r  1 3.950000e-01    3.430000e+00
   P6r  TP3h  1 3.950000e-01    3.430000e+00
   P6h  TP2r  1 3.950000e-01    3.430000e+00
   P6r  TP2h  1 3.950000e-01    3.430000e+00
   P6h  TP1r  1 3.950000e-01    3.190000e+00
   P6r  TP1h  1 3.950000e-01    3.190000e+00
   P6h  TN6r  1 3.950000e-01    2.940000e+00
   P6r  TN6h  1 3.950000e-01    2.940000e+00
   P6h  TN5r  1 3.950000e-01    2.500000e+00
   P6r  TN5h  1 3.950000e-01    2.500000e+00
   P6h  TN4r  1 3.950000e-01    2.310000e+00
   P6r  TN4h  1 3.950000e-01    2.310000e+00
   P6h  TN3r  1 3.950000e-01    2.110000e+00
   P6r  TN3h  1 3.950000e-01    2.110000e+00
   P6h  TN2r  1 3.950000e-01    1.850000e+00
   P6r  TN2h  1 3.950000e-01    1.850000e+00
   P6h  TN1r  1 3.950000e-01    1.670000e+00
   P6r  TN1h  1 3.950000e-01    1.670000e+00
   P6h TP6dr  1 3.950000e-01    4.230000e+00
   P6r TP6dh  1 3.950000e-01    4.230000e+00
   P6h TP5dr  1 3.950000e-01    3.910000e+00
   P6r TP5dh  1 3.950000e-01    3.910000e+00
   P6h TP4dr  1 3.950000e-01    3.670000e+00
   P6r TP4dh  1 3.950000e-01    3.670000e+00
   P6h TP3dr  1 3.950000e-01    3.430000e+00
   P6r TP3dh  1 3.950000e-01    3.430000e+00
   P6h TP2dr  1 3.950000e-01    3.430000e+00
   P6r TP2dh  1 3.950000e-01    3.430000e+00
   P6h TP1dr  1 3.950000e-01    3.190000e+00
   P6r TP1dh  1 3.950000e-01    3.190000e+00
   P6h TN6dr  1 3.950000e-01    2.940000e+00
   P6r TN6dh  1 3.950000e-01    2.940000e+00
   P6h TN5dr  1 3.950000e-01    2.500000e+00
   P6r TN5dh  1 3.950000e-01    2.500000e+00
   P6h TN4dr  1 3.950000e-01    2.310000e+00
   P6r TN4dh  1 3.950000e-01    2.310000e+00
   P6h TN3dr  1 3.950000e-01    2.110000e+00
   P6r TN3dh  1 3.950000e-01    2.110000e+00
   P6h TN2dr  1 3.950000e-01    1.850000e+00
   P6r TN2dh  1 3.950000e-01    1.850000e+00
   P6h TN1dr  1 3.950000e-01    1.670000e+00
   P6r TN1dh  1 3.950000e-01    1.670000e+00
   P6h TP6ar  1 3.950000e-01    4.230000e+00
   P6r TP6ah  1 3.950000e-01    4.230000e+00
   P6h TP5ar  1 3.950000e-01    3.910000e+00
   P6r TP5ah  1 3.950000e-01    3.910000e+00
   P6h TP4ar  1 3.950000e-01    3.670000e+00
   P6r TP4ah  1 3.950000e-01    3.670000e+00
   P6h TP3ar  1 3.950000e-01    3.430000e+00
   P6r TP3ah  1 3.950000e-01    3.430000e+00
   P6h TP2ar  1 3.950000e-01    3.430000e+00
   P6r TP2ah  1 3.950000e-01    3.430000e+00
   P6h TP1ar  1 3.950000e-01    3.190000e+00
   P6r TP1ah  1 3.950000e-01    3.190000e+00
   P6h TN6ar  1 3.950000e-01    2.940000e+00
   P6r TN6ah  1 3.950000e-01    2.940000e+00
   P6h TN5ar  1 3.950000e-01    2.500000e+00
   P6r TN5ah  1 3.950000e-01    2.500000e+00
   P6h TN4ar  1 3.950000e-01    2.310000e+00
   P6r TN4ah  1 3.950000e-01    2.310000e+00
   P6h TN3ar  1 3.950000e-01    2.110000e+00
   P6r TN3ah  1 3.950000e-01    2.110000e+00
   P6h TN2ar  1 3.950000e-01    1.850000e+00
   P6r TN2ah  1 3.950000e-01    1.850000e+00
   P6h TN1ar  1 3.950000e-01    1.670000e+00
   P6r TN1ah  1 3.950000e-01    1.670000e+00
   P5h  TP5r  1 3.950000e-01    3.670000e+00
   P5h  TP4r  1 3.950000e-01    3.430000e+00
   P5r  TP4h  1 3.950000e-01    3.430000e+00
   P5h  TP3r  1 3.950000e-01    3.190000e+00
   P5r  TP3h  1 3.950000e-01    3.190000e+00
   P5h  TP2r  1 3.950000e-01    3.190000e+00
   P5r  TP2h  1 3.950000e-01    3.190000e+00
   P5h  TP1r  1 3.950000e-01    2.940000e+00
   P5r  TP1h  1 3.950000e-01    2.940000e+00
   P5h  TN6r  1 3.950000e-01    2.700000e+00
   P5r  TN6h  1 3.950000e-01    2.700000e+00
   P5h  TN5r  1 3.950000e-01    2.500000e+00
   P5r  TN5h  1 3.950000e-01    2.500000e+00
   P5h  TN4r  1 3.950000e-01    2.500000e+00
   P5r  TN4h  1 3.950000e-01    2.500000e+00
   P5h  TN3r  1 3.950000e-01    2.110000e+00
   P5r  TN3h  1 3.950000e-01    2.110000e+00
   P5h  TN2r  1 3.950000e-01    1.850000e+00
   P5r  TN2h  1 3.950000e-01    1.850000e+00
   P5h  TN1r  1 3.950000e-01    1.670000e+00
   P5r  TN1h  1 3.950000e-01    1.670000e+00
   P5h TP5dr  1 3.950000e-01    3.670000e+00
   P5r TP5dh  1 3.950000e-01    3.670000e+00
   P5h TP4dr  1 3.950000e-01    3.430000e+00
   P5r TP4dh  1 3.950000e-01    3.430000e+00
   P5h TP3dr  1 3.950000e-01    3.190000e+00
   P5r TP3dh  1 3.950000e-01    3.190000e+00
   P5h TP2dr  1 3.950000e-01    3.190000e+00
   P5r TP2dh  1 3.950000e-01    3.190000e+00
   P5h TP1dr  1 3.950000e-01    2.940000e+00
   P5r TP1dh  1 3.950000e-01    2.940000e+00
   P5h TN6dr  1 3.950000e-01    2.700000e+00
   P5r TN6dh  1 3.950000e-01    2.700000e+00
   P5h TN5dr  1 3.950000e-01    2.500000e+00
   P5r TN5dh  1 3.950000e-01    2.500000e+00
   P5h TN4dr  1 3.950000e-01    2.500000e+00
   P5r TN4dh  1 3.950000e-01    2.500000e+00
   P5h TN3dr  1 3.950000e-01    2.110000e+00
   P5r TN3dh  1 3.950000e-01    2.110000e+00
   P5h TN2dr  1 3.950000e-01    1.850000e+00
   P5r TN2dh  1 3.950000e-01    1.850000e+00
   P5h TN1dr  1 3.950000e-01    1.670000e+00
   P5r TN1dh  1 3.950000e-01    1.670000e+00
   P5h TP5ar  1 3.950000e-01    3.670000e+00
   P5r TP5ah  1 3.950000e-01    3.670000e+00
   P5h TP4ar  1 3.950000e-01    3.430000e+00
   P5r TP4ah  1 3.950000e-01    3.430000e+00
   P5h TP3ar  1 3.950000e-01    3.190000e+00
   P5r TP3ah  1 3.950000e-01    3.190000e+00
   P5h TP2ar  1 3.950000e-01    3.190000e+00
   P5r TP2ah  1 3.950000e-01    3.190000e+00
   P5h TP1ar  1 3.950000e-01    2.940000e+00
   P5r TP1ah  1 3.950000e-01    2.940000e+00
   P5h TN6ar  1 3.950000e-01    2.700000e+00
   P5r TN6ah  1 3.950000e-01    2.700000e+00
   P5h TN5ar  1 3.950000e-01    2.500000e+00
   P5r TN5ah  1 3.950000e-01    2.500000e+00
   P5h TN4ar  1 3.950000e-01    2.500000e+00
   P5r TN4ah  1 3.950000e-01    2.500000e+00
   P5h TN3ar  1 3.950000e-01    2.110000e+00
   P5r TN3ah  1 3.950000e-01    2.110000e+00
   P5h TN2ar  1 3.950000e-01    1.850000e+00
   P5r TN2ah  1 3.950000e-01    1.850000e+00
   P5h TN1ar  1 3.950000e-01    1.670000e+00
   P5r TN1ah  1 3.950000e-01    1.670000e+00
   P4h  TP4r  1 3.950000e-01    3.430000e+00
   P4h  TP3r  1 3.950000e-01    3.190000e+00
   P4r  TP3h  1 3.950000e-01    3.190000e+00
   P4h  TP2r  1 3.950000e-01    3.190000e+00
   P4r  TP2h  1 3.950000e-01    3.190000e+00
   P4h  TP1r  1 3.950000e-01    2.940000e+00
   P4r  TP1h  1 3.950000e-01    2.940000e+00
   P4h  TN6r  1 3.950000e-01    2.700000e+00
   P4r  TN6h  1 3.950000e-01    2.700000e+00
   P4h  TN5r  1 3.950000e-01    2.500000e+00
   P4r  TN5h  1 3.950000e-01    2.500000e+00
   P4h  TN4r  1 3.950000e-01    2.500000e+00
   P4r  TN4h  1 3.950000e-01    2.500000e+00
   P4h  TN3r  1 3.950000e-01    2.310000e+00
   P4r  TN3h  1 3.950000e-01    2.310000e+00
   P4h  TN2r  1 3.950000e-01    2.110000e+00
   P4r  TN2h  1 3.950000e-01    2.110000e+00
   P4h  TN1r  1 3.950000e-01    1.850000e+00
   P4r  TN1h  1 3.950000e-01    1.850000e+00
   P4h TP4dr  1 3.950000e-01    3.430000e+00
   P4r TP4dh  1 3.950000e-01    3.430000e+00
   P4h TP3dr  1 3.950000e-01    3.190000e+00
   P4r TP3dh  1 3.950000e-01    3.190000e+00
   P4h TP2dr  1 3.950000e-01    3.190000e+00
   P4r TP2dh  1 3.950000e-01    3.190000e+00
   P4h TP1dr  1 3.950000e-01    2.940000e+00
   P4r TP1dh  1 3.950000e-01    2.940000e+00
   P4h TN6dr  1 3.950000e-01    2.700000e+00
   P4r TN6dh  1 3.950000e-01    2.700000e+00
   P4h TN5dr  1 3.950000e-01    2.500000e+00
   P4r TN5dh  1 3.950000e-01    2.500000e+00
   P4h TN4dr  1 3.950000e-01    2.500000e+00
   P4r TN4dh  1 3.950000e-01    2.500000e+00
   P4h TN3dr  1 3.950000e-01    2.310000e+00
   P4r TN3dh  1 3.950000e-01    2.310000e+00
   P4h TN2dr  1 3.950000e-01    2.110000e+00
   P4r TN2dh  1 3.950000e-01    2.110000e+00
   P4h TN1dr  1 3.950000e-01    1.850000e+00
   P4r TN1dh  1 3.950000e-01    1.850000e+00
   P4h TP4ar  1 3.950000e-01    3.430000e+00
   P4r TP4ah  1 3.950000e-01    3.430000e+00
   P4h TP3ar  1 3.950000e-01    3.190000e+00
   P4r TP3ah  1 3.950000e-01    3.190000e+00
   P4h TP2ar  1 3.950000e-01    3.190000e+00
   P4r TP2ah  1 3.950000e-01    3.190000e+00
   P4h TP1ar  1 3.950000e-01    2.940000e+00
   P4r TP1ah  1 3.950000e-01    2.940000e+00
   P4h TN6ar  1 3.950000e-01    2.700000e+00
   P4r TN6ah  1 3.950000e-01    2.700000e+00
   P4h TN5ar  1 3.950000e-01    2.500000e+00
   P4r TN5ah  1 3.950000e-01    2.500000e+00
   P4h TN4ar  1 3.950000e-01    2.500000e+00
   P4r TN4ah  1 3.950000e-01    2.500000e+00
   P4h TN3ar  1 3.950000e-01    2.310000e+00
   P4r TN3ah  1 3.950000e-01    2.310000e+00
   P4h TN2ar  1 3.950000e-01    2.110000e+00
   P4r TN2ah  1 3.950000e-01    2.110000e+00
   P4h TN1ar  1 3.950000e-01    1.850000e+00
   P4r TN1ah  1 3.950000e-01    1.850000e+00
   P3h  TP3r  1 3.950000e-01    3.190000e+00
   P3h  TP2r  1 3.950000e-01    3.190000e+00
   P3r  TP2h  1 3.950000e-01    3.190000e+00
   P3h  TP1r  1 3.950000e-01    2.940000e+00
   P3r  TP1h  1 3.950000e-01    2.940000e+00
   P3h  TN6r  1 3.950000e-01    2.700000e+00
   P3r  TN6h  1 3.950000e-01    2.700000e+00
   P3h  TN5r  1 3.950000e-01    2.500000e+00
   P3r  TN5h  1 3.950000e-01    2.500000e+00
   P3h  TN4r  1 3.950000e-01    2.500000e+00
   P3r  TN4h  1 3.950000e-01    2.500000e+00
   P3h  TN3r  1 3.950000e-01    2.310000e+00
   P3r  TN3h  1 3.950000e-01    2.310000e+00
   P3h  TN2r  1 3.950000e-01    2.310000e+00
   P3r  TN2h  1 3.950000e-01    2.310000e+00
   P3h  TN1r  1 3.950000e-01    2.110000e+00
   P3r  TN1h  1 3.950000e-01    2.110000e+00
   P3h TP3dr  1 3.950000e-01    3.190000e+00
   P3r TP3dh  1 3.950000e-01    3.190000e+00
   P3h TP2dr  1 3.950000e-01    3.190000e+00
   P3r TP2dh  1 3.950000e-01    3.190000e+00
   P3h TP1dr  1 3.950000e-01    2.940000e+00
   P3r TP1dh  1 3.950000e-01    2.940000e+00
   P3h TN6dr  1 3.950000e-01    2.700000e+00
   P3r TN6dh  1 3.950000e-01    2.700000e+00
   P3h TN5dr  1 3.950000e-01    2.500000e+00
   P3r TN5dh  1 3.950000e-01    2.500000e+00
   P3h TN4dr  1 3.950000e-01    2.500000e+00
   P3r TN4dh  1 3.950000e-01    2.500000e+00
   P3h TN3dr  1 3.950000e-01    2.310000e+00
   P3r TN3dh  1 3.950000e-01    2.310000e+00
   P3h TN2dr  1 3.950000e-01    2.310000e+00
   P3r TN2dh  1 3.950000e-01    2.310000e+00
   P3h TN1dr  1 3.950000e-01    2.110000e+00
   P3r TN1dh  1 3.950000e-01    2.110000e+00
   P3h TP3ar  1 3.950000e-01    3.190000e+00
   P3r TP3ah  1 3.950000e-01    3.190000e+00
   P3h TP2ar  1 3.950000e-01    3.190000e+00
   P3r TP2ah  1 3.950000e-01    3.190000e+00
   P3h TP1ar  1 3.950000e-01    2.940000e+00
   P3r TP1ah  1 3.950000e-01    2.940000e+00
   P3h TN6ar  1 3.950000e-01    2.700000e+00
   P3r TN6ah  1 3.950000e-01    2.700000e+00
   P3h TN5ar  1 3.950000e-01    2.500000e+00
   P3r TN5ah  1 3.950000e-01    2.500000e+00
   P3h TN4ar  1 3.950000e-01    2.500000e+00
   P3r TN4ah  1 3.950000e-01    2.500000e+00
   P3h TN3ar  1 3.950000e-01    2.310000e+00
   P3r TN3ah  1 3.950000e-01    2.310000e+00
   P3h TN2ar  1 3.950000e-01    2.310000e+00
   P3r TN2ah  1 3.950000e-01    2.310000e+00
   P3h TN1ar  1 3.950000e-01    2.110000e+00
   P3r TN1ah  1 3.950000e-01    2.110000e+00
   P2h  TP2r  1 3.950000e-01    3.190000e+00
   P2h  TP1r  1 3.950000e-01    2.940000e+00
   P2r  TP1h  1 3.950000e-01    2.940000e+00
   P2h  TN6r  1 3.950000e-01    2.940000e+00
   P2r  TN6h  1 3.950000e-01    2.940000e+00
   P2h  TN5r  1 3.950000e-01    2.700000e+00
   P2r  TN5h  1 3.950000e-01    2.700000e+00
   P2h  TN4r  1 3.950000e-01    2.500000e+00
   P2r  TN4h  1 3.950000e-01    2.500000e+00
   P2h  TN3r  1 3.950000e-01    2.310000e+00
   P2r  TN3h  1 3.950000e-01    2.310000e+00
   P2h  TN2r  1 3.950000e-01    2.310000e+00
   P2r  TN2h  1 3.950000e-01    2.310000e+00
   P2h  TN1r  1 3.950000e-01    2.310000e+00
   P2r  TN1h  1 3.950000e-01    2.310000e+00
   P2h TP2dr  1 3.950000e-01    3.190000e+00
   P2r TP2dh  1 3.950000e-01    3.190000e+00
   P2h TP1dr  1 3.950000e-01    2.940000e+00
   P2r TP1dh  1 3.950000e-01    2.940000e+00
   P2h TN6dr  1 3.950000e-01    2.940000e+00
   P2r TN6dh  1 3.950000e-01    2.940000e+00
   P2h TN5dr  1 3.950000e-01    2.700000e+00
   P2r TN5dh  1 3.950000e-01    2.700000e+00
   P2h TN4dr  1 3.950000e-01    2.500000e+00
   P2r TN4dh  1 3.950000e-01    2.500000e+00
   P2h TN3dr  1 3.950000e-01    2.310000e+00
   P2r TN3dh  1 3.950000e-01    2.310000e+00
   P2h TN2dr  1 3.950000e-01    2.310000e+00
   P2r TN2dh  1 3.950000e-01    2.310000e+00
   P2h TN1dr  1 3.950000e-01    2.310000e+00
   P2r TN1dh  1 3.950000e-01    2.310000e+00
   P2h TP2ar  1 3.950000e-01    3.190000e+00
   P2r TP2ah  1 3.950000e-01    3.190000e+00
   P2h TP1ar  1 3.950000e-01    2.940000e+00
   P2r TP1ah  1 3.950000e-01    2.940000e+00
   P2h TN6ar  1 3.950000e-01    2.940000e+00
   P2r TN6ah  1 3.950000e-01    2.940000e+00
   P2h TN5ar  1 3.950000e-01    2.700000e+00
   P2r TN5ah  1 3.950000e-01    2.700000e+00
   P2h TN4ar  1 3.950000e-01    2.500000e+00
   P2r TN4ah  1 3.950000e-01    2.500000e+00
   P2h TN3ar  1 3.950000e-01    2.310000e+00
   P2r TN3ah  1 3.950000e-01    2.310000e+00
   P2h TN2ar  1 3.950000e-01    2.310000e+00
   P2r TN2ah  1 3.950000e-01    2.310000e+00
   P2h TN1ar  1 3.950000e-01    2.310000e+00
   P2r TN1ah  1 3.950000e-01    2.310000e+00
   P1h  TP1r  1 3.950000e-01    2.940000e+00
   P1h  TN6r  1 3.950000e-01    2.940000e+00
   P1r  TN6h  1 3.950000e-01    2.940000e+00
   P1h  TN5r  1 3.950000e-01    2.700000e+00
   P1r  TN5h  1 3.950000e-01    2.700000e+00
   P1h  TN4r  1 3.950000e-01    2.700000e+00
   P1r  TN4h  1 3.950000e-01    2.700000e+00
   P1h  TN3r  1 3.950000e-01    2.310000e+00
   P1r  TN3h  1 3.950000e-01    2.310000e+00
   P1h  TN2r  1 3.950000e-01    2.310000e+00
   P1r  TN2h  1 3.950000e-01    2.310000e+00
   P1h  TN1r  1 3.950000e-01    2.310000e+00
   P1r  TN1h  1 3.950000e-01    2.310000e+00
   P1h TP1dr  1 3.950000e-01    2.940000e+00
   P1r TP1dh  1 3.950000e-01    2.940000e+00
   P1h TN6dr  1 3.950000e-01    2.940000e+00
   P1r TN6dh  1 3.950000e-01    2.940000e+00
   P1h TN5dr  1 3.950000e-01    2.700000e+00
   P1r TN5dh  1 3.950000e-01    2.700000e+00
   P1h TN4dr  1 3.950000e-01    2.700000e+00
   P1r TN4dh  1 3.950000e-01    2.700000e+00
   P1h TN3dr  1 3.950000e-01    2.310000e+00
   P1r TN3dh  1 3.950000e-01    2.310000e+00
   P1h TN2dr  1 3.950000e-01    2.310000e+00
   P1r TN2dh  1 3.950000e-01    2.310000e+00
   P1h TN1dr  1 3.950000e-01    2.310000e+00
   P1r TN1dh  1 3.950000e-01    2.310000e+00
   P1h TP1ar  1 3.950000e-01    2.940000e+00
   P1r TP1ah  1 3.950000e-01    2.940000e+00
   P1h TN6ar  1 3.950000e-01    2.940000e+00
   P1r TN6ah  1 3.950000e-01    2.940000e+00
   P1h TN5ar  1 3.950000e-01    2.700000e+00
   P1r TN5ah  1 3.950000e-01    2.700000e+00
   P1h TN4ar  1 3.950000e-01    2.700000e+00
   P1r TN4ah  1 3.950000e-01    2.700000e+00
   P1h TN3ar  1 3.950000e-01    2.310000e+00
   P1r TN3ah  1 3.950000e-01    2.310000e+00
   P1h TN2ar  1 3.950000e-01    2.310000e+00
   P1r TN2ah  1 3.950000e-01    2.310000e+00
   P1h TN1ar  1 3.950000e-01    2.310000e+00
   P1r TN1ah  1 3.950000e-01    2.310000e+00
   N6h  TN6r  1 3.950000e-01    2.940000e+00
   N6h  TN5r  1 3.950000e-01    2.940000e+00
   N6r  TN5h  1 3.950000e-01    2.940000e+00
   N6h  TN4r  1 3.950000e-01    2.940000e+00
   N6r  TN4h  1 3.950000e-01    2.940000e+00
   N6h  TN3r  1 3.950000e-01    2.500000e+00
   N6r  TN3h  1 3.950000e-01    2.500000e+00
   N6h  TN2r  1 3.950000e-01    2.310000e+00
   N6r  TN2h  1 3.950000e-01    2.310000e+00
   N6h  TN1r  1 3.950000e-01    2.310000e+00
   N6r  TN1h  1 3.950000e-01    2.310000e+00
   N6h TN6dr  1 3.950000e-01    2.940000e+00
   N6r TN6dh  1 3.950000e-01    2.940000e+00
   N6h TN5dr  1 3.950000e-01    2.940000e+00
   N6r TN5dh  1 3.950000e-01    2.940000e+00
   N6h TN4dr  1 3.950000e-01    2.940000e+00
   N6r TN4dh  1 3.950000e-01    2.940000e+00
   N6h TN3dr  1 3.950000e-01    2.500000e+00
   N6r TN3dh  1 3.950000e-01    2.500000e+00
   N6h TN2dr  1 3.950000e-01    2.310000e+00
   N6r TN2dh  1 3.950000e-01    2.310000e+00
   N6h TN1dr  1 3.950000e-01    2.310000e+00
   N6r TN1dh  1 3.950000e-01    2.310000e+00
   N6h TN6ar  1 3.950000e-01    2.940000e+00
   N6r TN6ah  1 3.950000e-01    2.940000e+00
   N6h TN5ar  1 3.950000e-01    2.940000e+00
   N6r TN5ah  1 3.950000e-01    2.940000e+00
   N6h TN4ar  1 3.950000e-01    2.940000e+00
   N6r TN4ah  1 3.950000e-01    2.940000e+00
   N6h TN3ar  1 3.950000e-01    2.500000e+00
   N6r TN3ah  1 3.950000e-01    2.500000e+00
   N6h TN2ar  1 3.950000e-01    2.310000e+00
   N6r TN2ah  1 3.950000e-01    2.310000e+00
   N6h TN1ar  1 3.950000e-01    2.310000e+00
   N6r TN1ah  1 3.950000e-01    2.310000e+00
   N5h  TN5r  1 3.950000e-01    2.700000e+00
   N5h  TN4r  1 3.950000e-01    2.700000e+00
   N5r  TN4h  1 3.950000e-01    2.700000e+00
   N5h  TN3r  1 3.950000e-01    2.500000e+00
   N5r  TN3h  1 3.950000e-01    2.500000e+00
   N5h  TN2r  1 3.950000e-01    2.500000e+00
   N5r  TN2h  1 3.950000e-01    2.500000e+00
   N5h  TN1r  1 3.950000e-01    2.310000e+00
   N5r  TN1h  1 3.950000e-01    2.310000e+00
   N5h TN5dr  1 3.950000e-01    2.700000e+00
   N5r TN5dh  1 3.950000e-01    2.700000e+00
   N5h TN4dr  1 3.950000e-01    2.700000e+00
   N5r TN4dh  1 3.950000e-01    2.700000e+00
   N5h TN3dr  1 3.950000e-01    2.500000e+00
   N5r TN3dh  1 3.950000e-01    2.500000e+00
   N5h TN2dr  1 3.950000e-01    2.500000e+00
   N5r TN2dh  1 3.950000e-01    2.500000e+00
   N5h TN1dr  1 3.950000e-01    2.310000e+00
   N5r TN1dh  1 3.950000e-01    2.310000e+00
   N5h TN5ar  1 3.950000e-01    2.700000e+00
   N5r TN5ah  1 3.950000e-01    2.700000e+00
   N5h TN4ar  1 3.950000e-01    2.700000e+00
   N5r TN4ah  1 3.950000e-01    2.700000e+00
   N5h TN3ar  1 3.950000e-01    2.500000e+00
   N5r TN3ah  1 3.950000e-01    2.500000e+00
   N5h TN2ar  1 3.950000e-01    2.500000e+00
   N5r TN2ah  1 3.950000e-01    2.500000e+00
   N5h TN1ar  1 3.950000e-01    2.310000e+00
   N5r TN1ah  1 3.950000e-01    2.310000e+00
   N4h  TN4r  1 3.950000e-01    2.700000e+00
   N4h  TN3r  1 3.950000e-01    2.500000e+00
   N4r  TN3h  1 3.950000e-01    2.500000e+00
   N4h  TN2r  1 3.950000e-01    2.500000e+00
   N4r  TN2h  1 3.950000e-01    2.500000e+00
   N4h  TN1r  1 3.950000e-01    2.310000e+00
   N4r  TN1h  1 3.950000e-01    2.310000e+00
   N4h TN4dr  1 3.950000e-01    2.700000e+00
   N4r TN4dh  1 3.950000e-01    2.700000e+00
   N4h TN3dr  1 3.950000e-01    2.500000e+00
   N4r TN3dh  1 3.950000e-01    2.500000e+00
   N4h TN2dr  1 3.950000e-01    2.500000e+00
   N4r TN2dh  1 3.950000e-01    2.500000e+00
   N4h TN1dr  1 3.950000e-01    2.310000e+00
   N4r TN1dh  1 3.950000e-01    2.310000e+00
   N4h TN4ar  1 3.950000e-01    2.700000e+00
   N4r TN4ah  1 3.950000e-01    2.700000e+00
   N4h TN3ar  1 3.950000e-01    2.500000e+00
   N4r TN3ah  1 3.950000e-01    2.500000e+00
   N4h TN2ar  1 3.950000e-01    2.500000e+00
   N4r TN2ah  1 3.950000e-01    2.500000e+00
   N4h TN1ar  1 3.950000e-01    2.310000e+00
   N4r TN1ah  1 3.950000e-01    2.310000e+00
   N3h  TN3r  1 3.950000e-01    2.500000e+00
   N3h  TN2r  1 3.950000e-01    2.500000e+00
   N3r  TN2h  1 3.950000e-01    2.500000e+00
   N3h  TN1r  1 3.950000e-01    2.310000e+00
   N3r  TN1h  1 3.950000e-01    2.310000e+00
   N3h TN3dr  1 3.950000e-01    2.500000e+00
   N3r TN3dh  1 3.950000e-01    2.500000e+00
   N3h TN2dr  1 3.950000e-01    2.500000e+00
   N3r TN2dh  1 3.950000e-01    2.500000e+00
   N3h TN1dr  1 3.950000e-01    2.310000e+00
   N3r TN1dh  1 3.950000e-01    2.310000e+00
   N3h TN3ar  1 3.950000e-01    2.500000e+00
   N3r TN3ah  1 3.950000e-01    2.500000e+00
   N3h TN2ar  1 3.950000e-01    2.500000e+00
   N3r TN2ah  1 3.950000e-01    2.500000e+00
   N3h TN1ar  1 3.950000e-01    2.310000e+00
   N3r TN1ah  1 3.950000e-01    2.310000e+00
   N2h  TN2r  1 3.950000e-01    2.500000e+00
   N2h  TN1r  1 3.950000e-01    2.310000e+00
   N2r  TN1h  1 3.950000e-01    2.310000e+00
   N2h TN2dr  1 3.950000e-01    2.500000e+00
   N2r TN2dh  1 3.950000e-01    2.500000e+00
   N2h TN1dr  1 3.950000e-01    2.310000e+00
   N2r TN1dh  1 3.950000e-01    2.310000e+00
   N2h TN2ar  1 3.950000e-01    2.500000e+00
   N2r TN2ah  1 3.950000e-01    2.500000e+00
   N2h TN1ar  1 3.950000e-01    2.310000e+00
   N2r TN1ah  1 3.950000e-01    2.310000e+00
   N1h  TN1r  1 3.950000e-01    2.500000e+00
   N1h TN1dr  1 3.950000e-01    2.500000e+00
   N1r TN1dh  1 3.950000e-01    2.500000e+00
   N1h TN1ar  1 3.950000e-01    2.500000e+00
   N1r TN1ah  1 3.950000e-01    2.500000e+00
  P6dh TP6dr  1 3.950000e-01    3.910000e+00
  P6dh  TP5r  1 3.950000e-01    3.910000e+00
  P6dr  TP5h  1 3.950000e-01    3.910000e+00
  P6dh  TP4r  1 3.950000e-01    3.670000e+00
  P6dr  TP4h  1 3.950000e-01    3.670000e+00
  P6dh  TP3r  1 3.950000e-01    3.430000e+00
  P6dr  TP3h  1 3.950000e-01    3.430000e+00
  P6dh  TP2r  1 3.950000e-01    3.430000e+00
  P6dr  TP2h  1 3.950000e-01    3.430000e+00
  P6dh  TP1r  1 3.950000e-01    3.190000e+00
  P6dr  TP1h  1 3.950000e-01    3.190000e+00
  P6dh  TN6r  1 3.950000e-01    2.940000e+00
  P6dr  TN6h  1 3.950000e-01    2.940000e+00
  P6dh  TN5r  1 3.950000e-01    2.500000e+00
  P6dr  TN5h  1 3.950000e-01    2.500000e+00
  P6dh  TN4r  1 3.950000e-01    2.310000e+00
  P6dr  TN4h  1 3.950000e-01    2.310000e+00
  P6dh  TN3r  1 3.950000e-01    2.110000e+00
  P6dr  TN3h  1 3.950000e-01    2.110000e+00
  P6dh  TN2r  1 3.950000e-01    1.850000e+00
  P6dr  TN2h  1 3.950000e-01    1.850000e+00
  P6dh  TN1r  1 3.950000e-01    1.670000e+00
  P6dr  TN1h  1 3.950000e-01    1.670000e+00
  P6dh TP5dr  1 3.950000e-01    3.670000e+00
  P6dr TP5dh  1 3.950000e-01    3.670000e+00
  P6dh TP4dr  1 3.950000e-01    3.430000e+00
  P6dr TP4dh  1 3.950000e-01    3.430000e+00
  P6dh TP3dr  1 3.950000e-01    3.190000e+00
  P6dr TP3dh  1 3.950000e-01    3.190000e+00
  P6dh TP2dr  1 3.950000e-01    3.190000e+00
  P6dr TP2dh  1 3.950000e-01    3.190000e+00
  P6dh TP1dr  1 3.950000e-01    2.940000e+00
  P6dr TP1dh  1 3.950000e-01    2.940000e+00
  P6dh TN6dr  1 3.950000e-01    2.700000e+00
  P6dr TN6dh  1 3.950000e-01    2.700000e+00
  P6dh TN5dr  1 3.950000e-01    2.310000e+00
  P6dr TN5dh  1 3.950000e-01    2.310000e+00
  P6dh TN4dr  1 3.950000e-01    2.110000e+00
  P6dr TN4dh  1 3.950000e-01    2.110000e+00
  P6dh TN3dr  1 3.950000e-01    2.110000e+00
  P6dr TN3dh  1 3.950000e-01    2.110000e+00
  P6dh TN2dr  1 3.950000e-01    1.850000e+00
  P6dr TN2dh  1 3.950000e-01    1.850000e+00
  P6dh TN1dr  1 3.950000e-01    1.670000e+00
  P6dr TN1dh  1 3.950000e-01    1.670000e+00
  P6dh TP6ar  1 3.950000e-01    4.540000e+00
  P6dr TP6ah  1 3.950000e-01    4.540000e+00
  P6dh TP5ar  1 3.950000e-01    4.230000e+00
  P6dr TP5ah  1 3.950000e-01    4.230000e+00
  P6dh TP4ar  1 3.950000e-01    3.910000e+00
  P6dr TP4ah  1 3.950000e-01    3.910000e+00
  P6dh TP3ar  1 3.950000e-01    3.670000e+00
  P6dr TP3ah  1 3.950000e-01    3.670000e+00
  P6dh TP2ar  1 3.950000e-01    3.670000e+00
  P6dr TP2ah  1 3.950000e-01    3.670000e+00
  P6dh TP1ar  1 3.950000e-01    3.430000e+00
  P6dr TP1ah  1 3.950000e-01    3.430000e+00
  P6dh TN6ar  1 3.950000e-01    3.190000e+00
  P6dr TN6ah  1 3.950000e-01    3.190000e+00
  P6dh TN5ar  1 3.950000e-01    2.700000e+00
  P6dr TN5ah  1 3.950000e-01    2.700000e+00
  P6dh TN4ar  1 3.950000e-01    2.500000e+00
  P6dr TN4ah  1 3.950000e-01    2.500000e+00
  P6dh TN3ar  1 3.950000e-01    2.110000e+00
  P6dr TN3ah  1 3.950000e-01    2.110000e+00
  P6dh TN2ar  1 3.950000e-01    1.850000e+00
  P6dr TN2ah  1 3.950000e-01    1.850000e+00
  P6dh TN1ar  1 3.950000e-01    1.670000e+00
  P6dr TN1ah  1 3.950000e-01    1.670000e+00
  P5dh TP5dr  1 3.950000e-01    3.430000e+00
  P5dh  TP4r  1 3.950000e-01    3.430000e+00
  P5dr  TP4h  1 3.950000e-01    3.430000e+00
  P5dh  TP3r  1 3.950000e-01    3.190000e+00
  P5dr  TP3h  1 3.950000e-01    3.190000e+00
  P5dh  TP2r  1 3.950000e-01    3.190000e+00
  P5dr  TP2h  1 3.950000e-01    3.190000e+00
  P5dh  TP1r  1 3.950000e-01    2.940000e+00
  P5dr  TP1h  1 3.950000e-01    2.940000e+00
  P5dh  TN6r  1 3.950000e-01    2.700000e+00
  P5dr  TN6h  1 3.950000e-01    2.700000e+00
  P5dh  TN5r  1 3.950000e-01    2.500000e+00
  P5dr  TN5h  1 3.950000e-01    2.500000e+00
  P5dh  TN4r  1 3.950000e-01    2.500000e+00
  P5dr  TN4h  1 3.950000e-01    2.500000e+00
  P5dh  TN3r  1 3.950000e-01    2.110000e+00
  P5dr  TN3h  1 3.950000e-01    2.110000e+00
  P5dh  TN2r  1 3.950000e-01    1.850000e+00
  P5dr  TN2h  1 3.950000e-01    1.850000e+00
  P5dh  TN1r  1 3.950000e-01    1.670000e+00
  P5dr  TN1h  1 3.950000e-01    1.670000e+00
  P5dh TP4dr  1 3.950000e-01    3.190000e+00
  P5dr TP4dh  1 3.950000e-01    3.190000e+00
  P5dh TP3dr  1 3.950000e-01    2.940000e+00
  P5dr TP3dh  1 3.950000e-01    2.940000e+00
  P5dh TP2dr  1 3.950000e-01    2.940000e+00
  P5dr TP2dh  1 3.950000e-01    2.940000e+00
  P5dh TP1dr  1 3.950000e-01    2.700000e+00
  P5dr TP1dh  1 3.950000e-01    2.700000e+00
  P5dh TN6dr  1 3.950000e-01    2.500000e+00
  P5dr TN6dh  1 3.950000e-01    2.500000e+00
  P5dh TN5dr  1 3.950000e-01    2.310000e+00
  P5dr TN5dh  1 3.950000e-01    2.310000e+00
  P5dh TN4dr  1 3.950000e-01    2.310000e+00
  P5dr TN4dh  1 3.950000e-01    2.310000e+00
  P5dh TN3dr  1 3.950000e-01    2.110000e+00
  P5dr TN3dh  1 3.950000e-01    2.110000e+00
  P5dh TN2dr  1 3.950000e-01    1.850000e+00
  P5dr TN2dh  1 3.950000e-01    1.850000e+00
  P5dh TN1dr  1 3.950000e-01    1.670000e+00
  P5dr TN1dh  1 3.950000e-01    1.670000e+00
  P5dh TP5ar  1 3.950000e-01    3.910000e+00
  P5dr TP5ah  1 3.950000e-01    3.910000e+00
  P5dh TP4ar  1 3.950000e-01    3.670000e+00
  P5dr TP4ah  1 3.950000e-01    3.670000e+00
  P5dh TP3ar  1 3.950000e-01    3.430000e+00
  P5dr TP3ah  1 3.950000e-01    3.430000e+00
  P5dh TP2ar  1 3.950000e-01    3.430000e+00
  P5dr TP2ah  1 3.950000e-01    3.430000e+00
  P5dh TP1ar  1 3.950000e-01    3.190000e+00
  P5dr TP1ah  1 3.950000e-01    3.190000e+00
  P5dh TN6ar  1 3.950000e-01    2.940000e+00
  P5dr TN6ah  1 3.950000e-01    2.940000e+00
  P5dh TN5ar  1 3.950000e-01    2.700000e+00
  P5dr TN5ah  1 3.950000e-01    2.700000e+00
  P5dh TN4ar  1 3.950000e-01    2.700000e+00
  P5dr TN4ah  1 3.950000e-01    2.700000e+00
  P5dh TN3ar  1 3.950000e-01    2.110000e+00
  P5dr TN3ah  1 3.950000e-01    2.110000e+00
  P5dh TN2ar  1 3.950000e-01    1.850000e+00
  P5dr TN2ah  1 3.950000e-01    1.850000e+00
  P5dh TN1ar  1 3.950000e-01    1.670000e+00
  P5dr TN1ah  1 3.950000e-01    1.670000e+00
  P4dh TP4dr  1 3.950000e-01    3.190000e+00
  P4dh  TP3r  1 3.950000e-01    3.190000e+00
  P4dr  TP3h  1 3.950000e-01    3.190000e+00
  P4dh  TP2r  1 3.950000e-01    3.190000e+00
  P4dr  TP2h  1 3.950000e-01    3.190000e+00
  P4dh  TP1r  1 3.950000e-01    2.940000e+00
  P4dr  TP1h  1 3.950000e-01    2.940000e+00
  P4dh  TN6r  1 3.950000e-01    2.700000e+00
  P4dr  TN6h  1 3.950000e-01    2.700000e+00
  P4dh  TN5r  1 3.950000e-01    2.500000e+00
  P4dr  TN5h  1 3.950000e-01    2.500000e+00
  P4dh  TN4r  1 3.950000e-01    2.500000e+00
  P4dr  TN4h  1 3.950000e-01    2.500000e+00
  P4dh  TN3r  1 3.950000e-01    2.310000e+00
  P4dr  TN3h  1 3.950000e-01    2.310000e+00
  P4dh  TN2r  1 3.950000e-01    2.110000e+00
  P4dr  TN2h  1 3.950000e-01    2.110000e+00
  P4dh  TN1r  1 3.950000e-01    1.850000e+00
  P4dr  TN1h  1 3.950000e-01    1.850000e+00
  P4dh TP3dr  1 3.950000e-01    2.940000e+00
  P4dr TP3dh  1 3.950000e-01    2.940000e+00
  P4dh TP2dr  1 3.950000e-01    2.940000e+00
  P4dr TP2dh  1 3.950000e-01    2.940000e+00
  P4dh TP1dr  1 3.950000e-01    2.700000e+00
  P4dr TP1dh  1 3.950000e-01    2.700000e+00
  P4dh TN6dr  1 3.950000e-01    2.500000e+00
  P4dr TN6dh  1 3.950000e-01    2.500000e+00
  P4dh TN5dr  1 3.950000e-01    2.310000e+00
  P4dr TN5dh  1 3.950000e-01    2.310000e+00
  P4dh TN4dr  1 3.950000e-01    2.310000e+00
  P4dr TN4dh  1 3.950000e-01    2.310000e+00
  P4dh TN3dr  1 3.950000e-01    2.110000e+00
  P4dr TN3dh  1 3.950000e-01    2.110000e+00
  P4dh TN2dr  1 3.950000e-01    2.110000e+00
  P4dr TN2dh  1 3.950000e-01    2.110000e+00
  P4dh TN1dr  1 3.950000e-01    1.850000e+00
  P4dr TN1dh  1 3.950000e-01    1.850000e+00
  P4dh TP4ar  1 3.950000e-01    3.670000e+00
  P4dr TP4ah  1 3.950000e-01    3.670000e+00
  P4dh TP3ar  1 3.950000e-01    3.430000e+00
  P4dr TP3ah  1 3.950000e-01    3.430000e+00
  P4dh TP2ar  1 3.950000e-01    3.430000e+00
  P4dr TP2ah  1 3.950000e-01    3.430000e+00
  P4dh TP1ar  1 3.950000e-01    3.190000e+00
  P4dr TP1ah  1 3.950000e-01    3.190000e+00
  P4dh TN6ar  1 3.950000e-01    2.940000e+00
  P4dr TN6ah  1 3.950000e-01    2.940000e+00
  P4dh TN5ar  1 3.950000e-01    2.700000e+00
  P4dr TN5ah  1 3.950000e-01    2.700000e+00
  P4dh TN4ar  1 3.950000e-01    2.700000e+00
  P4dr TN4ah  1 3.950000e-01    2.700000e+00
  P4dh TN3ar  1 3.950000e-01    2.500000e+00
  P4dr TN3ah  1 3.950000e-01    2.500000e+00
  P4dh TN2ar  1 3.950000e-01    2.110000e+00
  P4dr TN2ah  1 3.950000e-01    2.110000e+00
  P4dh TN1ar  1 3.950000e-01    1.850000e+00
  P4dr TN1ah  1 3.950000e-01    1.850000e+00
  P3dh TP3dr  1 3.950000e-01    2.940000e+00
  P3dh  TP2r  1 3.950000e-01    3.190000e+00
  P3dr  TP2h  1 3.950000e-01    3.190000e+00
  P3dh  TP1r  1 3.950000e-01    2.940000e+00
  P3dr  TP1h  1 3.950000e-01    2.940000e+00
  P3dh  TN6r  1 3.950000e-01    2.700000e+00
  P3dr  TN6h  1 3.950000e-01    2.700000e+00
  P3dh  TN5r  1 3.950000e-01    2.500000e+00
  P3dr  TN5h  1 3.950000e-01    2.500000e+00
  P3dh  TN4r  1 3.950000e-01    2.500000e+00
  P3dr  TN4h  1 3.950000e-01    2.500000e+00
  P3dh  TN3r  1 3.950000e-01    2.310000e+00
  P3dr  TN3h  1 3.950000e-01    2.310000e+00
  P3dh  TN2r  1 3.950000e-01    2.310000e+00
  P3dr  TN2h  1 3.950000e-01    2.310000e+00
  P3dh  TN1r  1 3.950000e-01    2.110000e+00
  P3dr  TN1h  1 3.950000e-01    2.110000e+00
  P3dh TP2dr  1 3.950000e-01    2.940000e+00
  P3dr TP2dh  1 3.950000e-01    2.940000e+00
  P3dh TP1dr  1 3.950000e-01    2.700000e+00
  P3dr TP1dh  1 3.950000e-01    2.700000e+00
  P3dh TN6dr  1 3.950000e-01    2.500000e+00
  P3dr TN6dh  1 3.950000e-01    2.500000e+00
  P3dh TN5dr  1 3.950000e-01    2.310000e+00
  P3dr TN5dh  1 3.950000e-01    2.310000e+00
  P3dh TN4dr  1 3.950000e-01    2.310000e+00
  P3dr TN4dh  1 3.950000e-01    2.310000e+00
  P3dh TN3dr  1 3.950000e-01    2.110000e+00
  P3dr TN3dh  1 3.950000e-01    2.110000e+00
  P3dh TN2dr  1 3.950000e-01    2.110000e+00
  P3dr TN2dh  1 3.950000e-01    2.110000e+00
  P3dh TN1dr  1 3.950000e-01    2.110000e+00
  P3dr TN1dh  1 3.950000e-01    2.110000e+00
  P3dh TP3ar  1 3.950000e-01    3.430000e+00
  P3dr TP3ah  1 3.950000e-01    3.430000e+00
  P3dh TP2ar  1 3.950000e-01    3.430000e+00
  P3dr TP2ah  1 3.950000e-01    3.430000e+00
  P3dh TP1ar  1 3.950000e-01    3.190000e+00
  P3dr TP1ah  1 3.950000e-01    3.190000e+00
  P3dh TN6ar  1 3.950000e-01    2.940000e+00
  P3dr TN6ah  1 3.950000e-01    2.940000e+00
  P3dh TN5ar  1 3.950000e-01    2.700000e+00
  P3dr TN5ah  1 3.950000e-01    2.700000e+00
  P3dh TN4ar  1 3.950000e-01    2.700000e+00
  P3dr TN4ah  1 3.950000e-01    2.700000e+00
  P3dh TN3ar  1 3.950000e-01    2.500000e+00
  P3dr TN3ah  1 3.950000e-01    2.500000e+00
  P3dh TN2ar  1 3.950000e-01    2.500000e+00
  P3dr TN2ah  1 3.950000e-01    2.500000e+00
  P3dh TN1ar  1 3.950000e-01    2.110000e+00
  P3dr TN1ah  1 3.950000e-01    2.110000e+00
  P2dh TP2dr  1 3.950000e-01    2.940000e+00
  P2dh  TP1r  1 3.950000e-01    2.940000e+00
  P2dr  TP1h  1 3.950000e-01    2.940000e+00
  P2dh  TN6r  1 3.950000e-01    2.940000e+00
  P2dr  TN6h  1 3.950000e-01    2.940000e+00
  P2dh  TN5r  1 3.950000e-01    2.700000e+00
  P2dr  TN5h  1 3.950000e-01    2.700000e+00
  P2dh  TN4r  1 3.950000e-01    2.500000e+00
  P2dr  TN4h  1 3.950000e-01    2.500000e+00
  P2dh  TN3r  1 3.950000e-01    2.310000e+00
  P2dr  TN3h  1 3.950000e-01    2.310000e+00
  P2dh  TN2r  1 3.950000e-01    2.310000e+00
  P2dr  TN2h  1 3.950000e-01    2.310000e+00
  P2dh  TN1r  1 3.950000e-01    2.310000e+00
  P2dr  TN1h  1 3.950000e-01    2.310000e+00
  P2dh TP1dr  1 3.950000e-01    2.700000e+00
  P2dr TP1dh  1 3.950000e-01    2.700000e+00
  P2dh TN6dr  1 3.950000e-01    2.700000e+00
  P2dr TN6dh  1 3.950000e-01    2.700000e+00
  P2dh TN5dr  1 3.950000e-01    2.500000e+00
  P2dr TN5dh  1 3.950000e-01    2.500000e+00
  P2dh TN4dr  1 3.950000e-01    2.310000e+00
  P2dr TN4dh  1 3.950000e-01    2.310000e+00
  P2dh TN3dr  1 3.950000e-01    2.110000e+00
  P2dr TN3dh  1 3.950000e-01    2.110000e+00
  P2dh TN2dr  1 3.950000e-01    2.110000e+00
  P2dr TN2dh  1 3.950000e-01    2.110000e+00
  P2dh TN1dr  1 3.950000e-01    2.110000e+00
  P2dr TN1dh  1 3.950000e-01    2.110000e+00
  P2dh TP2ar  1 3.950000e-01    3.430000e+00
  P2dr TP2ah  1 3.950000e-01    3.430000e+00
  P2dh TP1ar  1 3.950000e-01    3.190000e+00
  P2dr TP1ah  1 3.950000e-01    3.190000e+00
  P2dh TN6ar  1 3.950000e-01    3.190000e+00
  P2dr TN6ah  1 3.950000e-01    3.190000e+00
  P2dh TN5ar  1 3.950000e-01    2.940000e+00
  P2dr TN5ah  1 3.950000e-01    2.940000e+00
  P2dh TN4ar  1 3.950000e-01    2.700000e+00
  P2dr TN4ah  1 3.950000e-01    2.700000e+00
  P2dh TN3ar  1 3.950000e-01    2.500000e+00
  P2dr TN3ah  1 3.950000e-01    2.500000e+00
  P2dh TN2ar  1 3.950000e-01    2.500000e+00
  P2dr TN2ah  1 3.950000e-01    2.500000e+00
  P2dh TN1ar  1 3.950000e-01    2.500000e+00
  P2dr TN1ah  1 3.950000e-01    2.500000e+00
  P1dh TP1dr  1 3.950000e-01    2.700000e+00
  P1dh  TN6r  1 3.950000e-01    2.940000e+00
  P1dr  TN6h  1 3.950000e-01    2.940000e+00
  P1dh  TN5r  1 3.950000e-01    2.700000e+00
  P1dr  TN5h  1 3.950000e-01    2.700000e+00
  P1dh  TN4r  1 3.950000e-01    2.700000e+00
  P1dr  TN4h  1 3.950000e-01    2.700000e+00
  P1dh  TN3r  1 3.950000e-01    2.310000e+00
  P1dr  TN3h  1 3.950000e-01    2.310000e+00
  P1dh  TN2r  1 3.950000e-01    2.310000e+00
  P1dr  TN2h  1 3.950000e-01    2.310000e+00
  P1dh  TN1r  1 3.950000e-01    2.310000e+00
  P1dr  TN1h  1 3.950000e-01    2.310000e+00
  P1dh TN6dr  1 3.950000e-01    2.700000e+00
  P1dr TN6dh  1 3.950000e-01    2.700000e+00
  P1dh TN5dr  1 3.950000e-01    2.500000e+00
  P1dr TN5dh  1 3.950000e-01    2.500000e+00
  P1dh TN4dr  1 3.950000e-01    2.500000e+00
  P1dr TN4dh  1 3.950000e-01    2.500000e+00
  P1dh TN3dr  1 3.950000e-01    2.110000e+00
  P1dr TN3dh  1 3.950000e-01    2.110000e+00
  P1dh TN2dr  1 3.950000e-01    2.110000e+00
  P1dr TN2dh  1 3.950000e-01    2.110000e+00
  P1dh TN1dr  1 3.950000e-01    2.110000e+00
  P1dr TN1dh  1 3.950000e-01    2.110000e+00
  P1dh TP1ar  1 3.950000e-01    3.190000e+00
  P1dr TP1ah  1 3.950000e-01    3.190000e+00
  P1dh TN6ar  1 3.950000e-01    3.190000e+00
  P1dr TN6ah  1 3.950000e-01    3.190000e+00
  P1dh TN5ar  1 3.950000e-01    2.940000e+00
  P1dr TN5ah  1 3.950000e-01    2.940000e+00
  P1dh TN4ar  1 3.950000e-01    2.940000e+00
  P1dr TN4ah  1 3.950000e-01    2.940000e+00
  P1dh TN3ar  1 3.950000e-01    2.500000e+00
  P1dr TN3ah  1 3.950000e-01    2.500000e+00
  P1dh TN2ar  1 3.950000e-01    2.500000e+00
  P1dr TN2ah  1 3.950000e-01    2.500000e+00
  P1dh TN1ar  1 3.950000e-01    2.500000e+00
  P1dr TN1ah  1 3.950000e-01    2.500000e+00
  N6dh TN6dr  1 3.950000e-01    2.700000e+00
  N6dh  TN5r  1 3.950000e-01    2.940000e+00
  N6dr  TN5h  1 3.950000e-01    2.940000e+00
  N6dh  TN4r  1 3.950000e-01    2.940000e+00
  N6dr  TN4h  1 3.950000e-01    2.940000e+00
  N6dh  TN3r  1 3.950000e-01    2.500000e+00
  N6dr  TN3h  1 3.950000e-01    2.500000e+00
  N6dh  TN2r  1 3.950000e-01    2.310000e+00
  N6dr  TN2h  1 3.950000e-01    2.310000e+00
  N6dh  TN1r  1 3.950000e-01    2.310000e+00
  N6dr  TN1h  1 3.950000e-01    2.310000e+00
  N6dh TN5dr  1 3.950000e-01    2.700000e+00
  N6dr TN5dh  1 3.950000e-01    2.700000e+00
  N6dh TN4dr  1 3.950000e-01    2.700000e+00
  N6dr TN4dh  1 3.950000e-01    2.700000e+00
  N6dh TN3dr  1 3.950000e-01    2.310000e+00
  N6dr TN3dh  1 3.950000e-01    2.310000e+00
  N6dh TN2dr  1 3.950000e-01    2.110000e+00
  N6dr TN2dh  1 3.950000e-01    2.110000e+00
  N6dh TN1dr  1 3.950000e-01    2.110000e+00
  N6dr TN1dh  1 3.950000e-01    2.110000e+00
  N6dh TN6ar  1 3.950000e-01    3.190000e+00
  N6dr TN6ah  1 3.950000e-01    3.190000e+00
  N6dh TN5ar  1 3.950000e-01    3.190000e+00
  N6dr TN5ah  1 3.950000e-01    3.190000e+00
  N6dh TN4ar  1 3.950000e-01    3.190000e+00
  N6dr TN4ah  1 3.950000e-01    3.190000e+00
  N6dh TN3ar  1 3.950000e-01    2.700000e+00
  N6dr TN3ah  1 3.950000e-01    2.700000e+00
  N6dh TN2ar  1 3.950000e-01    2.500000e+00
  N6dr TN2ah  1 3.950000e-01    2.500000e+00
  N6dh TN1ar  1 3.950000e-01    2.500000e+00
  N6dr TN1ah  1 3.950000e-01    2.500000e+00
  N5dh TN5dr  1 3.950000e-01    2.500000e+00
  N5dh  TN4r  1 3.950000e-01    2.700000e+00
  N5dr  TN4h  1 3.950000e-01    2.700000e+00
  N5dh  TN3r  1 3.950000e-01    2.500000e+00
  N5dr  TN3h  1 3.950000e-01    2.500000e+00
  N5dh  TN2r  1 3.950000e-01    2.500000e+00
  N5dr  TN2h  1 3.950000e-01    2.500000e+00
  N5dh  TN1r  1 3.950000e-01    2.310000e+00
  N5dr  TN1h  1 3.950000e-01    2.310000e+00
  N5dh TN4dr  1 3.950000e-01    2.500000e+00
  N5dr TN4dh  1 3.950000e-01    2.500000e+00
  N5dh TN3dr  1 3.950000e-01    2.310000e+00
  N5dr TN3dh  1 3.950000e-01    2.310000e+00
  N5dh TN2dr  1 3.950000e-01    2.310000e+00
  N5dr TN2dh  1 3.950000e-01    2.310000e+00
  N5dh TN1dr  1 3.950000e-01    2.110000e+00
  N5dr TN1dh  1 3.950000e-01    2.110000e+00
  N5dh TN5ar  1 3.950000e-01    2.940000e+00
  N5dr TN5ah  1 3.950000e-01    2.940000e+00
  N5dh TN4ar  1 3.950000e-01    2.940000e+00
  N5dr TN4ah  1 3.950000e-01    2.940000e+00
  N5dh TN3ar  1 3.950000e-01    2.700000e+00
  N5dr TN3ah  1 3.950000e-01    2.700000e+00
  N5dh TN2ar  1 3.950000e-01    2.700000e+00
  N5dr TN2ah  1 3.950000e-01    2.700000e+00
  N5dh TN1ar  1 3.950000e-01    2.500000e+00
  N5dr TN1ah  1 3.950000e-01    2.500000e+00
  N4dh TN4dr  1 3.950000e-01    2.500000e+00
  N4dh  TN3r  1 3.950000e-01    2.500000e+00
  N4dr  TN3h  1 3.950000e-01    2.500000e+00
  N4dh  TN2r  1 3.950000e-01    2.500000e+00
  N4dr  TN2h  1 3.950000e-01    2.500000e+00
  N4dh  TN1r  1 3.950000e-01    2.310000e+00
  N4dr  TN1h  1 3.950000e-01    2.310000e+00
  N4dh TN3dr  1 3.950000e-01    2.310000e+00
  N4dr TN3dh  1 3.950000e-01    2.310000e+00
  N4dh TN2dr  1 3.950000e-01    2.310000e+00
  N4dr TN2dh  1 3.950000e-01    2.310000e+00
  N4dh TN1dr  1 3.950000e-01    2.110000e+00
  N4dr TN1dh  1 3.950000e-01    2.110000e+00
  N4dh TN4ar  1 3.950000e-01    2.940000e+00
  N4dr TN4ah  1 3.950000e-01    2.940000e+00
  N4dh TN3ar  1 3.950000e-01    2.700000e+00
  N4dr TN3ah  1 3.950000e-01    2.700000e+00
  N4dh TN2ar  1 3.950000e-01    2.700000e+00
  N4dr TN2ah  1 3.950000e-01    2.700000e+00
  N4dh TN1ar  1 3.950000e-01    2.500000e+00
  N4dr TN1ah  1 3.950000e-01    2.500000e+00
  N3dh TN3dr  1 3.950000e-01    2.310000e+00
  N3dh  TN2r  1 3.950000e-01    2.500000e+00
  N3dr  TN2h  1 3.950000e-01    2.500000e+00
  N3dh  TN1r  1 3.950000e-01    2.310000e+00
  N3dr  TN1h  1 3.950000e-01    2.310000e+00
  N3dh TN2dr  1 3.950000e-01    2.310000e+00
  N3dr TN2dh  1 3.950000e-01    2.310000e+00
  N3dh TN1dr  1 3.950000e-01    2.110000e+00
  N3dr TN1dh  1 3.950000e-01    2.110000e+00
  N3dh TN3ar  1 3.950000e-01    2.700000e+00
  N3dr TN3ah  1 3.950000e-01    2.700000e+00
  N3dh TN2ar  1 3.950000e-01    2.700000e+00
  N3dr TN2ah  1 3.950000e-01    2.700000e+00
  N3dh TN1ar  1 3.950000e-01    2.500000e+00
  N3dr TN1ah  1 3.950000e-01    2.500000e+00
  N2dh TN2dr  1 3.950000e-01    2.310000e+00
  N2dh  TN1r  1 3.950000e-01    2.310000e+00
  N2dr  TN1h  1 3.950000e-01    2.310000e+00
  N2dh TN1dr  1 3.950000e-01    2.110000e+00
  N2dr TN1dh  1 3.950000e-01    2.110000e+00
  N2dh TN2ar  1 3.950000e-01    2.700000e+00
  N2dr TN2ah  1 3.950000e-01    2.700000e+00
  N2dh TN1ar  1 3.950000e-01    2.500000e+00
  N2dr TN1ah  1 3.950000e-01    2.500000e+00
  N1dh TN1dr  1 3.950000e-01    2.310000e+00
  N1dh TN1ar  1 3.950000e-01    2.700000e+00
  N1dr TN1ah  1 3.950000e-01    2.700000e+00
  P6ah TP6ar  1 3.950000e-01    3.910000e+00
  P6ah  TP5r  1 3.950000e-01    3.910000e+00
  P6ar  TP5h  1 3.950000e-01    3.910000e+00
  P6ah  TP4r  1 3.950000e-01    3.670000e+00
  P6ar  TP4h  1 3.950000e-01    3.670000e+00
  P6ah  TP3r  1 3.950000e-01    3.430000e+00
  P6ar  TP3h  1 3.950000e-01    3.430000e+00
  P6ah  TP2r  1 3.950000e-01    3.430000e+00
  P6ar  TP2h  1 3.950000e-01    3.430000e+00
  P6ah  TP1r  1 3.950000e-01    3.190000e+00
  P6ar  TP1h  1 3.950000e-01    3.190000e+00
  P6ah  TN6r  1 3.950000e-01    2.940000e+00
  P6ar  TN6h  1 3.950000e-01    2.940000e+00
  P6ah  TN5r  1 3.950000e-01    2.500000e+00
  P6ar  TN5h  1 3.950000e-01    2.500000e+00
  P6ah  TN4r  1 3.950000e-01    2.310000e+00
  P6ar  TN4h  1 3.950000e-01    2.310000e+00
  P6ah  TN3r  1 3.950000e-01    2.110000e+00
  P6ar  TN3h  1 3.950000e-01    2.110000e+00
  P6ah  TN2r  1 3.950000e-01    1.850000e+00
  P6ar  TN2h  1 3.950000e-01    1.850000e+00
  P6ah  TN1r  1 3.950000e-01    1.670000e+00
  P6ar  TN1h  1 3.950000e-01    1.670000e+00
  P6ah TP5dr  1 3.950000e-01    4.230000e+00
  P6ar TP5dh  1 3.950000e-01    4.230000e+00
  P6ah TP4dr  1 3.950000e-01    3.910000e+00
  P6ar TP4dh  1 3.950000e-01    3.910000e+00
  P6ah TP3dr  1 3.950000e-01    3.670000e+00
  P6ar TP3dh  1 3.950000e-01    3.670000e+00
  P6ah TP2dr  1 3.950000e-01    3.670000e+00
  P6ar TP2dh  1 3.950000e-01    3.670000e+00
  P6ah TP1dr  1 3.950000e-01    3.430000e+00
  P6ar TP1dh  1 3.950000e-01    3.430000e+00
  P6ah TN6dr  1 3.950000e-01    3.190000e+00
  P6ar TN6dh  1 3.950000e-01    3.190000e+00
  P6ah TN5dr  1 3.950000e-01    2.700000e+00
  P6ar TN5dh  1 3.950000e-01    2.700000e+00
  P6ah TN4dr  1 3.950000e-01    2.500000e+00
  P6ar TN4dh  1 3.950000e-01    2.500000e+00
  P6ah TN3dr  1 3.950000e-01    2.110000e+00
  P6ar TN3dh  1 3.950000e-01    2.110000e+00
  P6ah TN2dr  1 3.950000e-01    1.850000e+00
  P6ar TN2dh  1 3.950000e-01    1.850000e+00
  P6ah TN1dr  1 3.950000e-01    1.670000e+00
  P6ar TN1dh  1 3.950000e-01    1.670000e+00
  P6ah TP5ar  1 3.950000e-01    3.670000e+00
  P6ar TP5ah  1 3.950000e-01    3.670000e+00
  P6ah TP4ar  1 3.950000e-01    3.430000e+00
  P6ar TP4ah  1 3.950000e-01    3.430000e+00
  P6ah TP3ar  1 3.950000e-01    3.190000e+00
  P6ar TP3ah  1 3.950000e-01    3.190000e+00
  P6ah TP2ar  1 3.950000e-01    3.190000e+00
  P6ar TP2ah  1 3.950000e-01    3.190000e+00
  P6ah TP1ar  1 3.950000e-01    2.940000e+00
  P6ar TP1ah  1 3.950000e-01    2.940000e+00
  P6ah TN6ar  1 3.950000e-01    2.700000e+00
  P6ar TN6ah  1 3.950000e-01    2.700000e+00
  P6ah TN5ar  1 3.950000e-01    2.310000e+00
  P6ar TN5ah  1 3.950000e-01    2.310000e+00
  P6ah TN4ar  1 3.950000e-01    2.110000e+00
  P6ar TN4ah  1 3.950000e-01    2.110000e+00
  P6ah TN3ar  1 3.950000e-01    2.110000e+00
  P6ar TN3ah  1 3.950000e-01    2.110000e+00
  P6ah TN2ar  1 3.950000e-01    1.850000e+00
  P6ar TN2ah  1 3.950000e-01    1.850000e+00
  P6ah TN1ar  1 3.950000e-01    1.670000e+00
  P6ar TN1ah  1 3.950000e-01    1.670000e+00
  P5ah TP5ar  1 3.950000e-01    3.430000e+00
  P5ah  TP4r  1 3.950000e-01    3.430000e+00
  P5ar  TP4h  1 3.950000e-01    3.430000e+00
  P5ah  TP3r  1 3.950000e-01    3.190000e+00
  P5ar  TP3h  1 3.950000e-01    3.190000e+00
  P5ah  TP2r  1 3.950000e-01    3.190000e+00
  P5ar  TP2h  1 3.950000e-01    3.190000e+00
  P5ah  TP1r  1 3.950000e-01    2.940000e+00
  P5ar  TP1h  1 3.950000e-01    2.940000e+00
  P5ah  TN6r  1 3.950000e-01    2.700000e+00
  P5ar  TN6h  1 3.950000e-01    2.700000e+00
  P5ah  TN5r  1 3.950000e-01    2.500000e+00
  P5ar  TN5h  1 3.950000e-01    2.500000e+00
  P5ah  TN4r  1 3.950000e-01    2.500000e+00
  P5ar  TN4h  1 3.950000e-01    2.500000e+00
  P5ah  TN3r  1 3.950000e-01    2.110000e+00
  P5ar  TN3h  1 3.950000e-01    2.110000e+00
  P5ah  TN2r  1 3.950000e-01    1.850000e+00
  P5ar  TN2h  1 3.950000e-01    1.850000e+00
  P5ah  TN1r  1 3.950000e-01    1.670000e+00
  P5ar  TN1h  1 3.950000e-01    1.670000e+00
  P5ah TP4dr  1 3.950000e-01    3.670000e+00
  P5ar TP4dh  1 3.950000e-01    3.670000e+00
  P5ah TP3dr  1 3.950000e-01    3.430000e+00
  P5ar TP3dh  1 3.950000e-01    3.430000e+00
  P5ah TP2dr  1 3.950000e-01    3.430000e+00
  P5ar TP2dh  1 3.950000e-01    3.430000e+00
  P5ah TP1dr  1 3.950000e-01    3.190000e+00
  P5ar TP1dh  1 3.950000e-01    3.190000e+00
  P5ah TN6dr  1 3.950000e-01    2.940000e+00
  P5ar TN6dh  1 3.950000e-01    2.940000e+00
  P5ah TN5dr  1 3.950000e-01    2.700000e+00
  P5ar TN5dh  1 3.950000e-01    2.700000e+00
  P5ah TN4dr  1 3.950000e-01    2.700000e+00
  P5ar TN4dh  1 3.950000e-01    2.700000e+00
  P5ah TN3dr  1 3.950000e-01    2.110000e+00
  P5ar TN3dh  1 3.950000e-01    2.110000e+00
  P5ah TN2dr  1 3.950000e-01    1.850000e+00
  P5ar TN2dh  1 3.950000e-01    1.850000e+00
  P5ah TN1dr  1 3.950000e-01    1.670000e+00
  P5ar TN1dh  1 3.950000e-01    1.670000e+00
  P5ah TP4ar  1 3.950000e-01    3.190000e+00
  P5ar TP4ah  1 3.950000e-01    3.190000e+00
  P5ah TP3ar  1 3.950000e-01    2.940000e+00
  P5ar TP3ah  1 3.950000e-01    2.940000e+00
  P5ah TP2ar  1 3.950000e-01    2.940000e+00
  P5ar TP2ah  1 3.950000e-01    2.940000e+00
  P5ah TP1ar  1 3.950000e-01    2.700000e+00
  P5ar TP1ah  1 3.950000e-01    2.700000e+00
  P5ah TN6ar  1 3.950000e-01    2.500000e+00
  P5ar TN6ah  1 3.950000e-01    2.500000e+00
  P5ah TN5ar  1 3.950000e-01    2.310000e+00
  P5ar TN5ah  1 3.950000e-01    2.310000e+00
  P5ah TN4ar  1 3.950000e-01    2.310000e+00
  P5ar TN4ah  1 3.950000e-01    2.310000e+00
  P5ah TN3ar  1 3.950000e-01    2.110000e+00
  P5ar TN3ah  1 3.950000e-01    2.110000e+00
  P5ah TN2ar  1 3.950000e-01    1.850000e+00
  P5ar TN2ah  1 3.950000e-01    1.850000e+00
  P5ah TN1ar  1 3.950000e-01    1.670000e+00
  P5ar TN1ah  1 3.950000e-01    1.670000e+00
  P4ah TP4ar  1 3.950000e-01    3.190000e+00
  P4ah  TP3r  1 3.950000e-01    3.190000e+00
  P4ar  TP3h  1 3.950000e-01    3.190000e+00
  P4ah  TP2r  1 3.950000e-01    3.190000e+00
  P4ar  TP2h  1 3.950000e-01    3.190000e+00
  P4ah  TP1r  1 3.950000e-01    2.940000e+00
  P4ar  TP1h  1 3.950000e-01    2.940000e+00
  P4ah  TN6r  1 3.950000e-01    2.700000e+00
  P4ar  TN6h  1 3.950000e-01    2.700000e+00
  P4ah  TN5r  1 3.950000e-01    2.500000e+00
  P4ar  TN5h  1 3.950000e-01    2.500000e+00
  P4ah  TN4r  1 3.950000e-01    2.500000e+00
  P4ar  TN4h  1 3.950000e-01    2.500000e+00
  P4ah  TN3r  1 3.950000e-01    2.310000e+00
  P4ar  TN3h  1 3.950000e-01    2.310000e+00
  P4ah  TN2r  1 3.950000e-01    2.110000e+00
  P4ar  TN2h  1 3.950000e-01    2.110000e+00
  P4ah  TN1r  1 3.950000e-01    1.850000e+00
  P4ar  TN1h  1 3.950000e-01    1.850000e+00
  P4ah TP3dr  1 3.950000e-01    3.430000e+00
  P4ar TP3dh  1 3.950000e-01    3.430000e+00
  P4ah TP2dr  1 3.950000e-01    3.430000e+00
  P4ar TP2dh  1 3.950000e-01    3.430000e+00
  P4ah TP1dr  1 3.950000e-01    3.190000e+00
  P4ar TP1dh  1 3.950000e-01    3.190000e+00
  P4ah TN6dr  1 3.950000e-01    2.940000e+00
  P4ar TN6dh  1 3.950000e-01    2.940000e+00
  P4ah TN5dr  1 3.950000e-01    2.700000e+00
  P4ar TN5dh  1 3.950000e-01    2.700000e+00
  P4ah TN4dr  1 3.950000e-01    2.700000e+00
  P4ar TN4dh  1 3.950000e-01    2.700000e+00
  P4ah TN3dr  1 3.950000e-01    2.500000e+00
  P4ar TN3dh  1 3.950000e-01    2.500000e+00
  P4ah TN2dr  1 3.950000e-01    2.110000e+00
  P4ar TN2dh  1 3.950000e-01    2.110000e+00
  P4ah TN1dr  1 3.950000e-01    1.850000e+00
  P4ar TN1dh  1 3.950000e-01    1.850000e+00
  P4ah TP3ar  1 3.950000e-01    2.940000e+00
  P4ar TP3ah  1 3.950000e-01    2.940000e+00
  P4ah TP2ar  1 3.950000e-01    2.940000e+00
  P4ar TP2ah  1 3.950000e-01    2.940000e+00
  P4ah TP1ar  1 3.950000e-01    2.700000e+00
  P4ar TP1ah  1 3.950000e-01    2.700000e+00
  P4ah TN6ar  1 3.950000e-01    2.500000e+00
  P4ar TN6ah  1 3.950000e-01    2.500000e+00
  P4ah TN5ar  1 3.950000e-01    2.310000e+00
  P4ar TN5ah  1 3.950000e-01    2.310000e+00
  P4ah TN4ar  1 3.950000e-01    2.310000e+00
  P4ar TN4ah  1 3.950000e-01    2.310000e+00
  P4ah TN3ar  1 3.950000e-01    2.110000e+00
  P4ar TN3ah  1 3.950000e-01    2.110000e+00
  P4ah TN2ar  1 3.950000e-01    2.110000e+00
  P4ar TN2ah  1 3.950000e-01    2.110000e+00
  P4ah TN1ar  1 3.950000e-01    1.850000e+00
  P4ar TN1ah  1 3.950000e-01    1.850000e+00
  P3ah TP3ar  1 3.950000e-01    2.940000e+00
  P3ah  TP2r  1 3.950000e-01    3.190000e+00
  P3ar  TP2h  1 3.950000e-01    3.190000e+00
  P3ah  TP1r  1 3.950000e-01    2.940000e+00
  P3ar  TP1h  1 3.950000e-01    2.940000e+00
  P3ah  TN6r  1 3.950000e-01    2.700000e+00
  P3ar  TN6h  1 3.950000e-01    2.700000e+00
  P3ah  TN5r  1 3.950000e-01    2.500000e+00
  P3ar  TN5h  1 3.950000e-01    2.500000e+00
  P3ah  TN4r  1 3.950000e-01    2.500000e+00
  P3ar  TN4h  1 3.950000e-01    2.500000e+00
  P3ah  TN3r  1 3.950000e-01    2.310000e+00
  P3ar  TN3h  1 3.950000e-01    2.310000e+00
  P3ah  TN2r  1 3.950000e-01    2.310000e+00
  P3ar  TN2h  1 3.950000e-01    2.310000e+00
  P3ah  TN1r  1 3.950000e-01    2.110000e+00
  P3ar  TN1h  1 3.950000e-01    2.110000e+00
  P3ah TP2dr  1 3.950000e-01    3.430000e+00
  P3ar TP2dh  1 3.950000e-01    3.430000e+00
  P3ah TP1dr  1 3.950000e-01    3.190000e+00
  P3ar TP1dh  1 3.950000e-01    3.190000e+00
  P3ah TN6dr  1 3.950000e-01    2.940000e+00
  P3ar TN6dh  1 3.950000e-01    2.940000e+00
  P3ah TN5dr  1 3.950000e-01    2.700000e+00
  P3ar TN5dh  1 3.950000e-01    2.700000e+00
  P3ah TN4dr  1 3.950000e-01    2.700000e+00
  P3ar TN4dh  1 3.950000e-01    2.700000e+00
  P3ah TN3dr  1 3.950000e-01    2.500000e+00
  P3ar TN3dh  1 3.950000e-01    2.500000e+00
  P3ah TN2dr  1 3.950000e-01    2.500000e+00
  P3ar TN2dh  1 3.950000e-01    2.500000e+00
  P3ah TN1dr  1 3.950000e-01    2.110000e+00
  P3ar TN1dh  1 3.950000e-01    2.110000e+00
  P3ah TP2ar  1 3.950000e-01    2.940000e+00
  P3ar TP2ah  1 3.950000e-01    2.940000e+00
  P3ah TP1ar  1 3.950000e-01    2.700000e+00
  P3ar TP1ah  1 3.950000e-01    2.700000e+00
  P3ah TN6ar  1 3.950000e-01    2.500000e+00
  P3ar TN6ah  1 3.950000e-01    2.500000e+00
  P3ah TN5ar  1 3.950000e-01    2.310000e+00
  P3ar TN5ah  1 3.950000e-01    2.310000e+00
  P3ah TN4ar  1 3.950000e-01    2.310000e+00
  P3ar TN4ah  1 3.950000e-01    2.310000e+00
  P3ah TN3ar  1 3.950000e-01    2.110000e+00
  P3ar TN3ah  1 3.950000e-01    2.110000e+00
  P3ah TN2ar  1 3.950000e-01    2.110000e+00
  P3ar TN2ah  1 3.950000e-01    2.110000e+00
  P3ah TN1ar  1 3.950000e-01    2.110000e+00
  P3ar TN1ah  1 3.950000e-01    2.110000e+00
  P2ah TP2ar  1 3.950000e-01    2.940000e+00
  P2ah  TP1r  1 3.950000e-01    2.940000e+00
  P2ar  TP1h  1 3.950000e-01    2.940000e+00
  P2ah  TN6r  1 3.950000e-01    2.940000e+00
  P2ar  TN6h  1 3.950000e-01    2.940000e+00
  P2ah  TN5r  1 3.950000e-01    2.700000e+00
  P2ar  TN5h  1 3.950000e-01    2.700000e+00
  P2ah  TN4r  1 3.950000e-01    2.500000e+00
  P2ar  TN4h  1 3.950000e-01    2.500000e+00
  P2ah  TN3r  1 3.950000e-01    2.310000e+00
  P2ar  TN3h  1 3.950000e-01    2.310000e+00
  P2ah  TN2r  1 3.950000e-01    2.310000e+00
  P2ar  TN2h  1 3.950000e-01    2.310000e+00
  P2ah  TN1r  1 3.950000e-01    2.310000e+00
  P2ar  TN1h  1 3.950000e-01    2.310000e+00
  P2ah TP1dr  1 3.950000e-01    3.190000e+00
  P2ar TP1dh  1 3.950000e-01    3.190000e+00
  P2ah TN6dr  1 3.950000e-01    3.190000e+00
  P2ar TN6dh  1 3.950000e-01    3.190000e+00
  P2ah TN5dr  1 3.950000e-01    2.940000e+00
  P2ar TN5dh  1 3.950000e-01    2.940000e+00
  P2ah TN4dr  1 3.950000e-01    2.700000e+00
  P2ar TN4dh  1 3.950000e-01    2.700000e+00
  P2ah TN3dr  1 3.950000e-01    2.500000e+00
  P2ar TN3dh  1 3.950000e-01    2.500000e+00
  P2ah TN2dr  1 3.950000e-01    2.500000e+00
  P2ar TN2dh  1 3.950000e-01    2.500000e+00
  P2ah TN1dr  1 3.950000e-01    2.500000e+00
  P2ar TN1dh  1 3.950000e-01    2.500000e+00
  P2ah TP1ar  1 3.950000e-01    2.700000e+00
  P2ar TP1ah  1 3.950000e-01    2.700000e+00
  P2ah TN6ar  1 3.950000e-01    2.700000e+00
  P2ar TN6ah  1 3.950000e-01    2.700000e+00
  P2ah TN5ar  1 3.950000e-01    2.500000e+00
  P2ar TN5ah  1 3.950000e-01    2.500000e+00
  P2ah TN4ar  1 3.950000e-01    2.310000e+00
  P2ar TN4ah  1 3.950000e-01    2.310000e+00
  P2ah TN3ar  1 3.950000e-01    2.110000e+00
  P2ar TN3ah  1 3.950000e-01    2.110000e+00
  P2ah TN2ar  1 3.950000e-01    2.110000e+00
  P2ar TN2ah  1 3.950000e-01    2.110000e+00
  P2ah TN1ar  1 3.950000e-01    2.110000e+00
  P2ar TN1ah  1 3.950000e-01    2.110000e+00
  P1ah TP1ar  1 3.950000e-01    2.700000e+00
  P1ah  TN6r  1 3.950000e-01    2.940000e+00
  P1ar  TN6h  1 3.950000e-01    2.940000e+00
  P1ah  TN5r  1 3.950000e-01    2.700000e+00
  P1ar  TN5h  1 3.950000e-01    2.700000e+00
  P1ah  TN4r  1 3.950000e-01    2.700000e+00
  P1ar  TN4h  1 3.950000e-01    2.700000e+00
  P1ah  TN3r  1 3.950000e-01    2.310000e+00
  P1ar  TN3h  1 3.950000e-01    2.310000e+00
  P1ah  TN2r  1 3.950000e-01    2.310000e+00
  P1ar  TN2h  1 3.950000e-01    2.310000e+00
  P1ah  TN1r  1 3.950000e-01    2.310000e+00
  P1ar  TN1h  1 3.950000e-01    2.310000e+00
  P1ah TN6dr  1 3.950000e-01    3.190000e+00
  P1ar TN6dh  1 3.950000e-01    3.190000e+00
  P1ah TN5dr  1 3.950000e-01    2.940000e+00
  P1ar TN5dh  1 3.950000e-01    2.940000e+00
  P1ah TN4dr  1 3.950000e-01    2.940000e+00
  P1ar TN4dh  1 3.950000e-01    2.940000e+00
  P1ah TN3dr  1 3.950000e-01    2.500000e+00
  P1ar TN3dh  1 3.950000e-01    2.500000e+00
  P1ah TN2dr  1 3.950000e-01    2.500000e+00
  P1ar TN2dh  1 3.950000e-01    2.500000e+00
  P1ah TN1dr  1 3.950000e-01    2.500000e+00
  P1ar TN1dh  1 3.950000e-01    2.500000e+00
  P1ah TN6ar  1 3.950000e-01    2.700000e+00
  P1ar TN6ah  1 3.950000e-01    2.700000e+00
  P1ah TN5ar  1 3.950000e-01    2.500000e+00
  P1ar TN5ah  1 3.950000e-01    2.500000e+00
  P1ah TN4ar  1 3.950000e-01    2.500000e+00
  P1ar TN4ah  1 3.950000e-01    2.500000e+00
  P1ah TN3ar  1 3.950000e-01    2.110000e+00
  P1ar TN3ah  1 3.950000e-01    2.110000e+00
  P1ah TN2ar  1 3.950000e-01    2.110000e+00
  P1ar TN2ah  1 3.950000e-01    2.110000e+00
  P1ah TN1ar  1 3.950000e-01    2.110000e+00
  P1ar TN1ah  1 3.950000e-01    2.110000e+00
  N6ah TN6ar  1 3.950000e-01    2.700000e+00
  N6ah  TN5r  1 3.950000e-01    2.940000e+00
  N6ar  TN5h  1 3.950000e-01    2.940000e+00
  N6ah  TN4r  1 3.950000e-01    2.940000e+00
  N6ar  TN4h  1 3.950000e-01    2.940000e+00
  N6ah  TN3r  1 3.950000e-01    2.500000e+00
  N6ar  TN3h  1 3.950000e-01    2.500000e+00
  N6ah  TN2r  1 3.950000e-01    2.310000e+00
  N6ar  TN2h  1 3.950000e-01    2.310000e+00
  N6ah  TN1r  1 3.950000e-01    2.310000e+00
  N6ar  TN1h  1 3.950000e-01    2.310000e+00
  N6ah TN5dr  1 3.950000e-01    3.190000e+00
  N6ar TN5dh  1 3.950000e-01    3.190000e+00
  N6ah TN4dr  1 3.950000e-01    3.190000e+00
  N6ar TN4dh  1 3.950000e-01    3.190000e+00
  N6ah TN3dr  1 3.950000e-01    2.700000e+00
  N6ar TN3dh  1 3.950000e-01    2.700000e+00
  N6ah TN2dr  1 3.950000e-01    2.500000e+00
  N6ar TN2dh  1 3.950000e-01    2.500000e+00
  N6ah TN1dr  1 3.950000e-01    2.500000e+00
  N6ar TN1dh  1 3.950000e-01    2.500000e+00
  N6ah TN5ar  1 3.950000e-01    2.700000e+00
  N6ar TN5ah  1 3.950000e-01    2.700000e+00
  N6ah TN4ar  1 3.950000e-01    2.700000e+00
  N6ar TN4ah  1 3.950000e-01    2.700000e+00
  N6ah TN3ar  1 3.950000e-01    2.310000e+00
  N6ar TN3ah  1 3.950000e-01    2.310000e+00
  N6ah TN2ar  1 3.950000e-01    2.110000e+00
  N6ar TN2ah  1 3.950000e-01    2.110000e+00
  N6ah TN1ar  1 3.950000e-01    2.110000e+00
  N6ar TN1ah  1 3.950000e-01    2.110000e+00
  N5ah TN5ar  1 3.950000e-01    2.500000e+00
  N5ah  TN4r  1 3.950000e-01    2.700000e+00
  N5ar  TN4h  1 3.950000e-01    2.700000e+00
  N5ah  TN3r  1 3.950000e-01    2.500000e+00
  N5ar  TN3h  1 3.950000e-01    2.500000e+00
  N5ah  TN2r  1 3.950000e-01    2.500000e+00
  N5ar  TN2h  1 3.950000e-01    2.500000e+00
  N5ah  TN1r  1 3.950000e-01    2.310000e+00
  N5ar  TN1h  1 3.950000e-01    2.310000e+00
  N5ah TN4dr  1 3.950000e-01    2.940000e+00
  N5ar TN4dh  1 3.950000e-01    2.940000e+00
  N5ah TN3dr  1 3.950000e-01    2.700000e+00
  N5ar TN3dh  1 3.950000e-01    2.700000e+00
  N5ah TN2dr  1 3.950000e-01    2.700000e+00
  N5ar TN2dh  1 3.950000e-01    2.700000e+00
  N5ah TN1dr  1 3.950000e-01    2.500000e+00
  N5ar TN1dh  1 3.950000e-01    2.500000e+00
  N5ah TN4ar  1 3.950000e-01    2.500000e+00
  N5ar TN4ah  1 3.950000e-01    2.500000e+00
  N5ah TN3ar  1 3.950000e-01    2.310000e+00
  N5ar TN3ah  1 3.950000e-01    2.310000e+00
  N5ah TN2ar  1 3.950000e-01    2.310000e+00
  N5ar TN2ah  1 3.950000e-01    2.310000e+00
  N5ah TN1ar  1 3.950000e-01    2.110000e+00
  N5ar TN1ah  1 3.950000e-01    2.110000e+00
  N4ah TN4ar  1 3.950000e-01    2.500000e+00
  N4ah  TN3r  1 3.950000e-01    2.500000e+00
  N4ar  TN3h  1 3.950000e-01    2.500000e+00
  N4ah  TN2r  1 3.950000e-01    2.500000e+00
  N4ar  TN2h  1 3.950000e-01    2.500000e+00
  N4ah  TN1r  1 3.950000e-01    2.310000e+00
  N4ar  TN1h  1 3.950000e-01    2.310000e+00
  N4ah TN3dr  1 3.950000e-01    2.700000e+00
  N4ar TN3dh  1 3.950000e-01    2.700000e+00
  N4ah TN2dr  1 3.950000e-01    2.700000e+00
  N4ar TN2dh  1 3.950000e-01    2.700000e+00
  N4ah TN1dr  1 3.950000e-01    2.500000e+00
  N4ar TN1dh  1 3.950000e-01    2.500000e+00
  N4ah TN3ar  1 3.950000e-01    2.310000e+00
  N4ar TN3ah  1 3.950000e-01    2.310000e+00
  N4ah TN2ar  1 3.950000e-01    2.310000e+00
  N4ar TN2ah  1 3.950000e-01    2.310000e+00
  N4ah TN1ar  1 3.950000e-01    2.110000e+00
  N4ar TN1ah  1 3.950000e-01    2.110000e+00
  N3ah TN3ar  1 3.950000e-01    2.310000e+00
  N3ah  TN2r  1 3.950000e-01    2.500000e+00
  N3ar  TN2h  1 3.950000e-01    2.500000e+00
  N3ah  TN1r  1 3.950000e-01    2.310000e+00
  N3ar  TN1h  1 3.950000e-01    2.310000e+00
  N3ah TN2dr  1 3.950000e-01    2.700000e+00
  N3ar TN2dh  1 3.950000e-01    2.700000e+00
  N3ah TN1dr  1 3.950000e-01    2.500000e+00
  N3ar TN1dh  1 3.950000e-01    2.500000e+00
  N3ah TN2ar  1 3.950000e-01    2.310000e+00
  N3ar TN2ah  1 3.950000e-01    2.310000e+00
  N3ah TN1ar  1 3.950000e-01    2.110000e+00
  N3ar TN1ah  1 3.950000e-01    2.110000e+00
  N2ah TN2ar  1 3.950000e-01    2.310000e+00
  N2ah  TN1r  1 3.950000e-01    2.310000e+00
  N2ar  TN1h  1 3.950000e-01    2.310000e+00
  N2ah TN1dr  1 3.950000e-01    2.500000e+00
  N2ar TN1dh  1 3.950000e-01    2.500000e+00
  N2ah TN1ar  1 3.950000e-01    2.110000e+00
  N2ar TN1ah  1 3.950000e-01    2.110000e+00
  N1ah TN1ar  1 3.950000e-01    2.310000e+00
   C6h  TC6r  1 3.950000e-01    2.500000e+00
   C6h  TC5r  1 3.950000e-01    2.310000e+00
   C6r  TC5h  1 3.950000e-01    2.310000e+00
   C6h  TC4r  1 3.950000e-01    2.310000e+00
   C6r  TC4h  1 3.950000e-01    2.310000e+00
   C6h  TC3r  1 3.950000e-01    2.110000e+00
   C6r  TC3h  1 3.950000e-01    2.110000e+00
   C6h  TC2r  1 3.950000e-01    1.850000e+00
   C6r  TC2h  1 3.950000e-01    1.850000e+00
   C6h  TC1r  1 3.950000e-01    1.670000e+00
   C6r  TC1h  1 3.950000e-01    1.670000e+00
   C6h  TX4r  1 3.950000e-01    2.310000e+00
   C6r  TX4h  1 3.950000e-01    2.310000e+00
   C6h  TX3r  1 3.950000e-01    2.310000e+00
   C6r  TX3h  1 3.950000e-01    2.310000e+00
   C6h  TX2r  1 3.950000e-01    2.310000e+00
   C6r  TX2h  1 3.950000e-01    2.310000e+00
   C6h  TX1r  1 3.950000e-01    2.310000e+00
   C6r  TX1h  1 3.950000e-01    2.310000e+00
   C6h TC6vr  1 3.950000e-01    2.700000e+00
   C6r TC6vh  1 3.950000e-01    2.700000e+00
   C6h TC5vr  1 3.950000e-01    2.500000e+00
   C6r TC5vh  1 3.950000e-01    2.500000e+00
   C6h TC4vr  1 3.950000e-01    2.500000e+00
   C6r TC4vh  1 3.950000e-01    2.500000e+00
   C6h TC3vr  1 3.950000e-01    2.310000e+00
   C6r TC3vh  1 3.950000e-01    2.310000e+00
   C6h TC2vr  1 3.950000e-01    2.110000e+00
   C6r TC2vh  1 3.950000e-01    2.110000e+00
   C6h TC1vr  1 3.950000e-01    1.850000e+00
   C6r TC1vh  1 3.950000e-01    1.850000e+00
   C6h TX4vr  1 3.950000e-01    2.500000e+00
   C6r TX4vh  1 3.950000e-01    2.500000e+00
   C6h TX3vr  1 3.950000e-01    2.500000e+00
   C6r TX3vh  1 3.950000e-01    2.500000e+00
   C6h TX2vr  1 3.950000e-01    2.500000e+00
   C6r TX2vh  1 3.950000e-01    2.500000e+00
   C6h TX1vr  1 3.950000e-01    2.500000e+00
   C6r TX1vh  1 3.950000e-01    2.500000e+00
   C6h TC6er  1 3.950000e-01    2.700000e+00
   C6r TC6eh  1 3.950000e-01    2.700000e+00
   C6h TC5er  1 3.950000e-01    2.500000e+00
   C6r TC5eh  1 3.950000e-01    2.500000e+00
   C6h TC4er  1 3.950000e-01    2.500000e+00
   C6r TC4eh  1 3.950000e-01    2.500000e+00
   C6h TC3er  1 3.950000e-01    2.310000e+00
   C6r TC3eh  1 3.950000e-01    2.310000e+00
   C6h TC2er  1 3.950000e-01    2.110000e+00
   C6r TC2eh  1 3.950000e-01    2.110000e+00
   C6h TC1er  1 3.950000e-01    1.850000e+00
   C6r TC1eh  1 3.950000e-01    1.850000e+00
   C6h TX4er  1 3.950000e-01    2.500000e+00
   C6r TX4eh  1 3.950000e-01    2.500000e+00
   C6h TX3er  1 3.950000e-01    2.500000e+00
   C6r TX3eh  1 3.950000e-01    2.500000e+00
   C6h TX2er  1 3.950000e-01    2.500000e+00
   C6r TX2eh  1 3.950000e-01    2.500000e+00
   C6h TX1er  1 3.950000e-01    2.500000e+00
   C6r TX1eh  1 3.950000e-01    2.500000e+00
   C5h  TC5r  1 3.950000e-01    2.310000e+00
   C5h  TC4r  1 3.950000e-01    2.310000e+00
   C5r  TC4h  1 3.950000e-01    2.310000e+00
   C5h  TC3r  1 3.950000e-01    2.110000e+00
   C5r  TC3h  1 3.950000e-01    2.110000e+00
   C5h  TC2r  1 3.950000e-01    1.850000e+00
   C5r  TC2h  1 3.950000e-01    1.850000e+00
   C5h  TC1r  1 3.950000e-01    1.850000e+00
   C5r  TC1h  1 3.950000e-01    1.850000e+00
   C5h  TX4r  1 3.950000e-01    2.110000e+00
   C5r  TX4h  1 3.950000e-01    2.110000e+00
   C5h  TX3r  1 3.950000e-01    2.110000e+00
   C5r  TX3h  1 3.950000e-01    2.110000e+00
   C5h  TX2r  1 3.950000e-01    2.110000e+00
   C5r  TX2h  1 3.950000e-01    2.110000e+00
   C5h  TX1r  1 3.950000e-01    2.310000e+00
   C5r  TX1h  1 3.950000e-01    2.310000e+00
   C5h TC5vr  1 3.950000e-01    2.500000e+00
   C5r TC5vh  1 3.950000e-01    2.500000e+00
   C5h TC4vr  1 3.950000e-01    2.500000e+00
   C5r TC4vh  1 3.950000e-01    2.500000e+00
   C5h TC3vr  1 3.950000e-01    2.310000e+00
   C5r TC3vh  1 3.950000e-01    2.310000e+00
   C5h TC2vr  1 3.950000e-01    2.110000e+00
   C5r TC2vh  1 3.950000e-01    2.110000e+00
   C5h TC1vr  1 3.950000e-01    2.110000e+00
   C5r TC1vh  1 3.950000e-01    2.110000e+00
   C5h TX4vr  1 3.950000e-01    2.310000e+00
   C5r TX4vh  1 3.950000e-01    2.310000e+00
   C5h TX3vr  1 3.950000e-01    2.310000e+00
   C5r TX3vh  1 3.950000e-01    2.310000e+00
   C5h TX2vr  1 3.950000e-01    2.310000e+00
   C5r TX2vh  1 3.950000e-01    2.310000e+00
   C5h TX1vr  1 3.950000e-01    2.500000e+00
   C5r TX1vh  1 3.950000e-01    2.500000e+00
   C5h TC5er  1 3.950000e-01    2.500000e+00
   C5r TC5eh  1 3.950000e-01    2.500000e+00
   C5h TC4er  1 3.950000e-01    2.500000e+00
   C5r TC4eh  1 3.950000e-01    2.500000e+00
   C5h TC3er  1 3.950000e-01    2.310000e+00
   C5r TC3eh  1 3.950000e-01    2.310000e+00
   C5h TC2er  1 3.950000e-01    2.110000e+00
   C5r TC2eh  1 3.950000e-01    2.110000e+00
   C5h TC1er  1 3.950000e-01    2.110000e+00
   C5r TC1eh  1 3.950000e-01    2.110000e+00
   C5h TX4er  1 3.950000e-01    2.310000e+00
   C5r TX4eh  1 3.950000e-01    2.310000e+00
   C5h TX3er  1 3.950000e-01    2.310000e+00
   C5r TX3eh  1 3.950000e-01    2.310000e+00
   C5h TX2er  1 3.950000e-01    2.310000e+00
   C5r TX2eh  1 3.950000e-01    2.310000e+00
   C5h TX1er  1 3.950000e-01    2.500000e+00
   C5r TX1eh  1 3.950000e-01    2.500000e+00
   C4h  TC4r  1 3.950000e-01    2.310000e+00
   C4h  TC3r  1 3.950000e-01    2.310000e+00
   C4r  TC3h  1 3.950000e-01    2.310000e+00
   C4h  TC2r  1 3.950000e-01    2.110000e+00
   C4r  TC2h  1 3.950000e-01    2.110000e+00
   C4h  TC1r  1 3.950000e-01    1.850000e+00
   C4r  TC1h  1 3.950000e-01    1.850000e+00
   C4h  TX4r  1 3.950000e-01    2.110000e+00
   C4r  TX4h  1 3.950000e-01    2.110000e+00
   C4h  TX3r  1 3.950000e-01    2.110000e+00
   C4r  TX3h  1 3.950000e-01    2.110000e+00
   C4h  TX2r  1 3.950000e-01    2.110000e+00
   C4r  TX2h  1 3.950000e-01    2.110000e+00
   C4h  TX1r  1 3.950000e-01    2.310000e+00
   C4r  TX1h  1 3.950000e-01    2.310000e+00
   C4h TC4vr  1 3.950000e-01    2.500000e+00
   C4r TC4vh  1 3.950000e-01    2.500000e+00
   C4h TC3vr  1 3.950000e-01    2.500000e+00
   C4r TC3vh  1 3.950000e-01    2.500000e+00
   C4h TC2vr  1 3.950000e-01    2.310000e+00
   C4r TC2vh  1 3.950000e-01    2.310000e+00
   C4h TC1vr  1 3.950000e-01    2.110000e+00
   C4r TC1vh  1 3.950000e-01    2.110000e+00
   C4h TX4vr  1 3.950000e-01    2.310000e+00
   C4r TX4vh  1 3.950000e-01    2.310000e+00
   C4h TX3vr  1 3.950000e-01    2.310000e+00
   C4r TX3vh  1 3.950000e-01    2.310000e+00
   C4h TX2vr  1 3.950000e-01    2.310000e+00
   C4r TX2vh  1 3.950000e-01    2.310000e+00
   C4h TX1vr  1 3.950000e-01    2.500000e+00
   C4r TX1vh  1 3.950000e-01    2.500000e+00
   C4h TC4er  1 3.950000e-01    2.500000e+00
   C4r TC4eh  1 3.950000e-01    2.500000e+00
   C4h TC3er  1 3.950000e-01    2.500000e+00
   C4r TC3eh  1 3.950000e-01    2.500000e+00
   C4h TC2er  1 3.950000e-01    2.310000e+00
   C4r TC2eh  1 3.950000e-01    2.310000e+00
   C4h TC1er  1 3.950000e-01    2.110000e+00
   C4r TC1eh  1 3.950000e-01    2.110000e+00
   C4h TX4er  1 3.950000e-01    2.310000e+00
   C4r TX4eh  1 3.950000e-01    2.310000e+00
   C4h TX3er  1 3.950000e-01    2.310000e+00
   C4r TX3eh  1 3.950000e-01    2.310000e+00
   C4h TX2er  1 3.950000e-01    2.310000e+00
   C4r TX2eh  1 3.950000e-01    2.310000e+00
   C4h TX1er  1 3.950000e-01    2.500000e+00
   C4r TX1eh  1 3.950000e-01    2.500000e+00
   C3h  TC3r  1 3.950000e-01    2.310000e+00
   C3h  TC2r  1 3.950000e-01    2.310000e+00
   C3r  TC2h  1 3.950000e-01    2.310000e+00
   C3h  TC1r  1 3.950000e-01    2.310000e+00
   C3r  TC1h  1 3.950000e-01    2.310000e+00
   C3h  TX4r  1 3.950000e-01    2.110000e+00
   C3r  TX4h  1 3.950000e-01    2.110000e+00
   C3h  TX3r  1 3.950000e-01    2.110000e+00
   C3r  TX3h  1 3.950000e-01    2.110000e+00
   C3h  TX2r  1 3.950000e-01    2.110000e+00
   C3r  TX2h  1 3.950000e-01    2.110000e+00
   C3h  TX1r  1 3.950000e-01    2.310000e+00
   C3r  TX1h  1 3.950000e-01    2.310000e+00
   C3h TC3vr  1 3.950000e-01    2.500000e+00
   C3r TC3vh  1 3.950000e-01    2.500000e+00
   C3h TC2vr  1 3.950000e-01    2.500000e+00
   C3r TC2vh  1 3.950000e-01    2.500000e+00
   C3h TC1vr  1 3.950000e-01    2.500000e+00
   C3r TC1vh  1 3.950000e-01    2.500000e+00
   C3h TX4vr  1 3.950000e-01    2.310000e+00
   C3r TX4vh  1 3.950000e-01    2.310000e+00
   C3h TX3vr  1 3.950000e-01    2.310000e+00
   C3r TX3vh  1 3.950000e-01    2.310000e+00
   C3h TX2vr  1 3.950000e-01    2.310000e+00
   C3r TX2vh  1 3.950000e-01    2.310000e+00
   C3h TX1vr  1 3.950000e-01    2.500000e+00
   C3r TX1vh  1 3.950000e-01    2.500000e+00
   C3h TC3er  1 3.950000e-01    2.500000e+00
   C3r TC3eh  1 3.950000e-01    2.500000e+00
   C3h TC2er  1 3.950000e-01    2.500000e+00
   C3r TC2eh  1 3.950000e-01    2.500000e+00
   C3h TC1er  1 3.950000e-01    2.500000e+00
   C3r TC1eh  1 3.950000e-01    2.500000e+00
   C3h TX4er  1 3.950000e-01    2.310000e+00
   C3r TX4eh  1 3.950000e-01    2.310000e+00
   C3h TX3er  1 3.950000e-01    2.310000e+00
   C3r TX3eh  1 3.950000e-01    2.310000e+00
   C3h TX2er  1 3.950000e-01    2.310000e+00
   C3r TX2eh  1 3.950000e-01    2.310000e+00
   C3h TX1er  1 3.950000e-01    2.500000e+00
   C3r TX1eh  1 3.950000e-01    2.500000e+00
   C2h  TC2r  1 3.950000e-01    2.310000e+00
   C2h  TC1r  1 3.950000e-01    2.500000e+00
   C2r  TC1h  1 3.950000e-01    2.500000e+00
   C2h  TX4r  1 3.950000e-01    1.670000e+00
   C2r  TX4h  1 3.950000e-01    1.670000e+00
   C2h  TX3r  1 3.950000e-01    2.110000e+00
   C2r  TX3h  1 3.950000e-01    2.110000e+00
   C2h  TX2r  1 3.950000e-01    2.110000e+00
   C2r  TX2h  1 3.950000e-01    2.110000e+00
   C2h  TX1r  1 3.950000e-01    2.110000e+00
   C2r  TX1h  1 3.950000e-01    2.110000e+00
   C2h TC2vr  1 3.950000e-01    2.500000e+00
   C2r TC2vh  1 3.950000e-01    2.500000e+00
   C2h TC1vr  1 3.950000e-01    2.700000e+00
   C2r TC1vh  1 3.950000e-01    2.700000e+00
   C2h TX4vr  1 3.950000e-01    1.850000e+00
   C2r TX4vh  1 3.950000e-01    1.850000e+00
   C2h TX3vr  1 3.950000e-01    2.310000e+00
   C2r TX3vh  1 3.950000e-01    2.310000e+00
   C2h TX2vr  1 3.950000e-01    2.310000e+00
   C2r TX2vh  1 3.950000e-01    2.310000e+00
   C2h TX1vr  1 3.950000e-01    2.310000e+00
   C2r TX1vh  1 3.950000e-01    2.310000e+00
   C2h TC2er  1 3.950000e-01    2.500000e+00
   C2r TC2eh  1 3.950000e-01    2.500000e+00
   C2h TC1er  1 3.950000e-01    2.700000e+00
   C2r TC1eh  1 3.950000e-01    2.700000e+00
   C2h TX4er  1 3.950000e-01    1.850000e+00
   C2r TX4eh  1 3.950000e-01    1.850000e+00
   C2h TX3er  1 3.950000e-01    2.310000e+00
   C2r TX3eh  1 3.950000e-01    2.310000e+00
   C2h TX2er  1 3.950000e-01    2.310000e+00
   C2r TX2eh  1 3.950000e-01    2.310000e+00
   C2h TX1er  1 3.950000e-01    2.310000e+00
   C2r TX1eh  1 3.950000e-01    2.310000e+00
   C1h  TC1r  1 3.950000e-01    2.310000e+00
   C1h  TX4r  1 3.950000e-01    1.670000e+00
   C1r  TX4h  1 3.950000e-01    1.670000e+00
   C1h  TX3r  1 3.950000e-01    2.110000e+00
   C1r  TX3h  1 3.950000e-01    2.110000e+00
   C1h  TX2r  1 3.950000e-01    2.110000e+00
   C1r  TX2h  1 3.950000e-01    2.110000e+00
   C1h  TX1r  1 3.950000e-01    2.110000e+00
   C1r  TX1h  1 3.950000e-01    2.110000e+00
   C1h TC1vr  1 3.950000e-01    2.500000e+00
   C1r TC1vh  1 3.950000e-01    2.500000e+00
   C1h TX4vr  1 3.950000e-01    1.850000e+00
   C1r TX4vh  1 3.950000e-01    1.850000e+00
   C1h TX3vr  1 3.950000e-01    2.310000e+00
   C1r TX3vh  1 3.950000e-01    2.310000e+00
   C1h TX2vr  1 3.950000e-01    2.310000e+00
   C1r TX2vh  1 3.950000e-01    2.310000e+00
   C1h TX1vr  1 3.950000e-01    2.310000e+00
   C1r TX1vh  1 3.950000e-01    2.310000e+00
   C1h TC1er  1 3.950000e-01    2.500000e+00
   C1r TC1eh  1 3.950000e-01    2.500000e+00
   C1h TX4er  1 3.950000e-01    1.850000e+00
   C1r TX4eh  1 3.950000e-01    1.850000e+00
   C1h TX3er  1 3.950000e-01    2.310000e+00
   C1r TX3eh  1 3.950000e-01    2.310000e+00
   C1h TX2er  1 3.950000e-01    2.310000e+00
   C1r TX2eh  1 3.950000e-01    2.310000e+00
   C1h TX1er  1 3.950000e-01    2.310000e+00
   C1r TX1eh  1 3.950000e-01    2.310000e+00
   X4h  TX4r  1 3.950000e-01    2.310000e+00
   X4h  TX3r  1 3.950000e-01    2.310000e+00
   X4r  TX3h  1 3.950000e-01    2.310000e+00
   X4h  TX2r  1 3.950000e-01    2.310000e+00
   X4r  TX2h  1 3.950000e-01    2.310000e+00
   X4h  TX1r  1 3.950000e-01    2.310000e+00
   X4r  TX1h  1 3.950000e-01    2.310000e+00
   X4h TX4vr  1 3.950000e-01    2.500000e+00
   X4r TX4vh  1 3.950000e-01    2.500000e+00
   X4h TX3vr  1 3.950000e-01    2.500000e+00
   X4r TX3vh  1 3.950000e-01    2.500000e+00
   X4h TX2vr  1 3.950000e-01    2.500000e+00
   X4r TX2vh  1 3.950000e-01    2.500000e+00
   X4h TX1vr  1 3.950000e-01    2.500000e+00
   X4r TX1vh  1 3.950000e-01    2.500000e+00
   X4h TX4er  1 3.950000e-01    2.500000e+00
   X4r TX4eh  1 3.950000e-01    2.500000e+00
   X4h TX3er  1 3.950000e-01    2.500000e+00
   X4r TX3eh  1 3.950000e-01    2.500000e+00
   X4h TX2er  1 3.950000e-01    2.500000e+00
   X4r TX2eh  1 3.950000e-01    2.500000e+00
   X4h TX1er  1 3.950000e-01    2.500000e+00
   X4r TX1eh  1 3.950000e-01    2.500000e+00
   X3h  TX3r  1 3.950000e-01    2.310000e+00
   X3h  TX2r  1 3.950000e-01    2.500000e+00
   X3r  TX2h  1 3.950000e-01    2.500000e+00
   X3h  TX1r  1 3.950000e-01    2.500000e+00
   X3r  TX1h  1 3.950000e-01    2.500000e+00
   X3h TX3vr  1 3.950000e-01    2.500000e+00
   X3r TX3vh  1 3.950000e-01    2.500000e+00
   X3h TX2vr  1 3.950000e-01    2.700000e+00
   X3r TX2vh  1 3.950000e-01    2.700000e+00
   X3h TX1vr  1 3.950000e-01    2.700000e+00
   X3r TX1vh  1 3.950000e-01    2.700000e+00
   X3h TX3er  1 3.950000e-01    2.500000e+00
   X3r TX3eh  1 3.950000e-01    2.500000e+00
   X3h TX2er  1 3.950000e-01    2.700000e+00
   X3r TX2eh  1 3.950000e-01    2.700000e+00
   X3h TX1er  1 3.950000e-01    2.700000e+00
   X3r TX1eh  1 3.950000e-01    2.700000e+00
   X2h  TX2r  1 3.950000e-01    2.500000e+00
   X2h  TX1r  1 3.950000e-01    2.500000e+00
   X2r  TX1h  1 3.950000e-01    2.500000e+00
   X2h TX2vr  1 3.950000e-01    2.700000e+00
   X2r TX2vh  1 3.950000e-01    2.700000e+00
   X2h TX1vr  1 3.950000e-01    2.700000e+00
   X2r TX1vh  1 3.950000e-01    2.700000e+00
   X2h TX2er  1 3.950000e-01    2.700000e+00
   X2r TX2eh  1 3.950000e-01    2.700000e+00
   X2h TX1er  1 3.950000e-01    2.700000e+00
   X2r TX1eh  1 3.950000e-01    2.700000e+00
   X1h  TX1r  1 3.950000e-01    2.700000e+00
   X1h TX1vr  1 3.950000e-01    2.940000e+00
   X1r TX1vh  1 3.950000e-01    2.940000e+00
   X1h TX1er  1 3.950000e-01    2.940000e+00
   X1r TX1eh  1 3.950000e-01    2.940000e+00
  C6vh TC6vr  1 3.950000e-01    2.310000e+00
  C6vh  TC5r  1 3.950000e-01    2.500000e+00
  C6vr  TC5h  1 3.950000e-01    2.500000e+00
  C6vh  TC4r  1 3.950000e-01    2.500000e+00
  C6vr  TC4h  1 3.950000e-01    2.500000e+00
  C6vh  TC3r  1 3.950000e-01    2.310000e+00
  C6vr  TC3h  1 3.950000e-01    2.310000e+00
  C6vh  TC2r  1 3.950000e-01    2.110000e+00
  C6vr  TC2h  1 3.950000e-01    2.110000e+00
  C6vh  TC1r  1 3.950000e-01    1.850000e+00
  C6vr  TC1h  1 3.950000e-01    1.850000e+00
  C6vh  TX4r  1 3.950000e-01    2.500000e+00
  C6vr  TX4h  1 3.950000e-01    2.500000e+00
  C6vh  TX3r  1 3.950000e-01    2.500000e+00
  C6vr  TX3h  1 3.950000e-01    2.500000e+00
  C6vh  TX2r  1 3.950000e-01    2.500000e+00
  C6vr  TX2h  1 3.950000e-01    2.500000e+00
  C6vh  TX1r  1 3.950000e-01    2.500000e+00
  C6vr  TX1h  1 3.950000e-01    2.500000e+00
  C6vh TC5vr  1 3.950000e-01    2.110000e+00
  C6vr TC5vh  1 3.950000e-01    2.110000e+00
  C6vh TC4vr  1 3.950000e-01    2.110000e+00
  C6vr TC4vh  1 3.950000e-01    2.110000e+00
  C6vh TC3vr  1 3.950000e-01    1.850000e+00
  C6vr TC3vh  1 3.950000e-01    1.850000e+00
  C6vh TC2vr  1 3.950000e-01    1.670000e+00
  C6vr TC2vh  1 3.950000e-01    1.670000e+00
  C6vh TC1vr  1 3.980000e-01    1.450000e+00
  C6vr TC1vh  1 3.980000e-01    1.450000e+00
  C6vh TX4vr  1 3.950000e-01    2.110000e+00
  C6vr TX4vh  1 3.950000e-01    2.110000e+00
  C6vh TX3vr  1 3.950000e-01    2.110000e+00
  C6vr TX3vh  1 3.950000e-01    2.110000e+00
  C6vh TX2vr  1 3.950000e-01    2.110000e+00
  C6vr TX2vh  1 3.950000e-01    2.110000e+00
  C6vh TX1vr  1 3.950000e-01    2.110000e+00
  C6vr TX1vh  1 3.950000e-01    2.110000e+00
  C6vh TC6er  1 3.950000e-01    2.940000e+00
  C6vr TC6eh  1 3.950000e-01    2.940000e+00
  C6vh TC5er  1 3.950000e-01    2.700000e+00
  C6vr TC5eh  1 3.950000e-01    2.700000e+00
  C6vh TC4er  1 3.950000e-01    2.700000e+00
  C6vr TC4eh  1 3.950000e-01    2.700000e+00
  C6vh TC3er  1 3.950000e-01    2.500000e+00
  C6vr TC3eh  1 3.950000e-01    2.500000e+00
  C6vh TC2er  1 3.950000e-01    2.310000e+00
  C6vr TC2eh  1 3.950000e-01    2.310000e+00
  C6vh TC1er  1 3.950000e-01    2.110000e+00
  C6vr TC1eh  1 3.950000e-01    2.110000e+00
  C6vh TX4er  1 3.950000e-01    2.700000e+00
  C6vr TX4eh  1 3.950000e-01    2.700000e+00
  C6vh TX3er  1 3.950000e-01    2.700000e+00
  C6vr TX3eh  1 3.950000e-01    2.700000e+00
  C6vh TX2er  1 3.950000e-01    2.700000e+00
  C6vr TX2eh  1 3.950000e-01    2.700000e+00
  C6vh TX1er  1 3.950000e-01    2.700000e+00
  C6vr TX1eh  1 3.950000e-01    2.700000e+00
  C5vh TC5vr  1 3.950000e-01    2.110000e+00
  C5vh  TC4r  1 3.950000e-01    2.500000e+00
  C5vr  TC4h  1 3.950000e-01    2.500000e+00
  C5vh  TC3r  1 3.950000e-01    2.310000e+00
  C5vr  TC3h  1 3.950000e-01    2.310000e+00
  C5vh  TC2r  1 3.950000e-01    2.110000e+00
  C5vr  TC2h  1 3.950000e-01    2.110000e+00
  C5vh  TC1r  1 3.950000e-01    2.110000e+00
  C5vr  TC1h  1 3.950000e-01    2.110000e+00
  C5vh  TX4r  1 3.950000e-01    2.310000e+00
  C5vr  TX4h  1 3.950000e-01    2.310000e+00
  C5vh  TX3r  1 3.950000e-01    2.310000e+00
  C5vr  TX3h  1 3.950000e-01    2.310000e+00
  C5vh  TX2r  1 3.950000e-01    2.310000e+00
  C5vr  TX2h  1 3.950000e-01    2.310000e+00
  C5vh  TX1r  1 3.950000e-01    2.500000e+00
  C5vr  TX1h  1 3.950000e-01    2.500000e+00
  C5vh TC4vr  1 3.950000e-01    2.110000e+00
  C5vr TC4vh  1 3.950000e-01    2.110000e+00
  C5vh TC3vr  1 3.950000e-01    1.850000e+00
  C5vr TC3vh  1 3.950000e-01    1.850000e+00
  C5vh TC2vr  1 3.950000e-01    1.670000e+00
  C5vr TC2vh  1 3.950000e-01    1.670000e+00
  C5vh TC1vr  1 3.950000e-01    1.670000e+00
  C5vr TC1vh  1 3.950000e-01    1.670000e+00
  C5vh TX4vr  1 3.950000e-01    1.850000e+00
  C5vr TX4vh  1 3.950000e-01    1.850000e+00
  C5vh TX3vr  1 3.950000e-01    1.850000e+00
  C5vr TX3vh  1 3.950000e-01    1.850000e+00
  C5vh TX2vr  1 3.950000e-01    1.850000e+00
  C5vr TX2vh  1 3.950000e-01    1.850000e+00
  C5vh TX1vr  1 3.950000e-01    2.110000e+00
  C5vr TX1vh  1 3.950000e-01    2.110000e+00
  C5vh TC5er  1 3.950000e-01    2.700000e+00
  C5vr TC5eh  1 3.950000e-01    2.700000e+00
  C5vh TC4er  1 3.950000e-01    2.700000e+00
  C5vr TC4eh  1 3.950000e-01    2.700000e+00
  C5vh TC3er  1 3.950000e-01    2.500000e+00
  C5vr TC3eh  1 3.950000e-01    2.500000e+00
  C5vh TC2er  1 3.950000e-01    2.310000e+00
  C5vr TC2eh  1 3.950000e-01    2.310000e+00
  C5vh TC1er  1 3.950000e-01    2.310000e+00
  C5vr TC1eh  1 3.950000e-01    2.310000e+00
  C5vh TX4er  1 3.950000e-01    2.500000e+00
  C5vr TX4eh  1 3.950000e-01    2.500000e+00
  C5vh TX3er  1 3.950000e-01    2.500000e+00
  C5vr TX3eh  1 3.950000e-01    2.500000e+00
  C5vh TX2er  1 3.950000e-01    2.500000e+00
  C5vr TX2eh  1 3.950000e-01    2.500000e+00
  C5vh TX1er  1 3.950000e-01    2.700000e+00
  C5vr TX1eh  1 3.950000e-01    2.700000e+00
  C4vh TC4vr  1 3.950000e-01    2.110000e+00
  C4vh  TC3r  1 3.950000e-01    2.500000e+00
  C4vr  TC3h  1 3.950000e-01    2.500000e+00
  C4vh  TC2r  1 3.950000e-01    2.310000e+00
  C4vr  TC2h  1 3.950000e-01    2.310000e+00
  C4vh  TC1r  1 3.950000e-01    2.110000e+00
  C4vr  TC1h  1 3.950000e-01    2.110000e+00
  C4vh  TX4r  1 3.950000e-01    2.310000e+00
  C4vr  TX4h  1 3.950000e-01    2.310000e+00
  C4vh  TX3r  1 3.950000e-01    2.310000e+00
  C4vr  TX3h  1 3.950000e-01    2.310000e+00
  C4vh  TX2r  1 3.950000e-01    2.310000e+00
  C4vr  TX2h  1 3.950000e-01    2.310000e+00
  C4vh  TX1r  1 3.950000e-01    2.500000e+00
  C4vr  TX1h  1 3.950000e-01    2.500000e+00
  C4vh TC3vr  1 3.950000e-01    2.110000e+00
  C4vr TC3vh  1 3.950000e-01    2.110000e+00
  C4vh TC2vr  1 3.950000e-01    1.850000e+00
  C4vr TC2vh  1 3.950000e-01    1.850000e+00
  C4vh TC1vr  1 3.950000e-01    1.670000e+00
  C4vr TC1vh  1 3.950000e-01    1.670000e+00
  C4vh TX4vr  1 3.950000e-01    1.850000e+00
  C4vr TX4vh  1 3.950000e-01    1.850000e+00
  C4vh TX3vr  1 3.950000e-01    1.850000e+00
  C4vr TX3vh  1 3.950000e-01    1.850000e+00
  C4vh TX2vr  1 3.950000e-01    1.850000e+00
  C4vr TX2vh  1 3.950000e-01    1.850000e+00
  C4vh TX1vr  1 3.950000e-01    2.110000e+00
  C4vr TX1vh  1 3.950000e-01    2.110000e+00
  C4vh TC4er  1 3.950000e-01    2.700000e+00
  C4vr TC4eh  1 3.950000e-01    2.700000e+00
  C4vh TC3er  1 3.950000e-01    2.700000e+00
  C4vr TC3eh  1 3.950000e-01    2.700000e+00
  C4vh TC2er  1 3.950000e-01    2.500000e+00
  C4vr TC2eh  1 3.950000e-01    2.500000e+00
  C4vh TC1er  1 3.950000e-01    2.310000e+00
  C4vr TC1eh  1 3.950000e-01    2.310000e+00
  C4vh TX4er  1 3.950000e-01    2.500000e+00
  C4vr TX4eh  1 3.950000e-01    2.500000e+00
  C4vh TX3er  1 3.950000e-01    2.500000e+00
  C4vr TX3eh  1 3.950000e-01    2.500000e+00
  C4vh TX2er  1 3.950000e-01    2.500000e+00
  C4vr TX2eh  1 3.950000e-01    2.500000e+00
  C4vh TX1er  1 3.950000e-01    2.700000e+00
  C4vr TX1eh  1 3.950000e-01    2.700000e+00
  C3vh TC3vr  1 3.950000e-01    2.110000e+00
  C3vh  TC2r  1 3.950000e-01    2.500000e+00
  C3vr  TC2h  1 3.950000e-01    2.500000e+00
  C3vh  TC1r  1 3.950000e-01    2.500000e+00
  C3vr  TC1h  1 3.950000e-01    2.500000e+00
  C3vh  TX4r  1 3.950000e-01    2.310000e+00
  C3vr  TX4h  1 3.950000e-01    2.310000e+00
  C3vh  TX3r  1 3.950000e-01    2.310000e+00
  C3vr  TX3h  1 3.950000e-01    2.310000e+00
  C3vh  TX2r  1 3.950000e-01    2.310000e+00
  C3vr  TX2h  1 3.950000e-01    2.310000e+00
  C3vh  TX1r  1 3.950000e-01    2.500000e+00
  C3vr  TX1h  1 3.950000e-01    2.500000e+00
  C3vh TC2vr  1 3.950000e-01    2.110000e+00
  C3vr TC2vh  1 3.950000e-01    2.110000e+00
  C3vh TC1vr  1 3.950000e-01    2.110000e+00
  C3vr TC1vh  1 3.950000e-01    2.110000e+00
  C3vh TX4vr  1 3.950000e-01    1.850000e+00
  C3vr TX4vh  1 3.950000e-01    1.850000e+00
  C3vh TX3vr  1 3.950000e-01    1.850000e+00
  C3vr TX3vh  1 3.950000e-01    1.850000e+00
  C3vh TX2vr  1 3.950000e-01    1.850000e+00
  C3vr TX2vh  1 3.950000e-01    1.850000e+00
  C3vh TX1vr  1 3.950000e-01    2.110000e+00
  C3vr TX1vh  1 3.950000e-01    2.110000e+00
  C3vh TC3er  1 3.950000e-01    2.700000e+00
  C3vr TC3eh  1 3.950000e-01    2.700000e+00
  C3vh TC2er  1 3.950000e-01    2.700000e+00
  C3vr TC2eh  1 3.950000e-01    2.700000e+00
  C3vh TC1er  1 3.950000e-01    2.700000e+00
  C3vr TC1eh  1 3.950000e-01    2.700000e+00
  C3vh TX4er  1 3.950000e-01    2.500000e+00
  C3vr TX4eh  1 3.950000e-01    2.500000e+00
  C3vh TX3er  1 3.950000e-01    2.500000e+00
  C3vr TX3eh  1 3.950000e-01    2.500000e+00
  C3vh TX2er  1 3.950000e-01    2.500000e+00
  C3vr TX2eh  1 3.950000e-01    2.500000e+00
  C3vh TX1er  1 3.950000e-01    2.700000e+00
  C3vr TX1eh  1 3.950000e-01    2.700000e+00
  C2vh TC2vr  1 3.950000e-01    2.110000e+00
  C2vh  TC1r  1 3.950000e-01    2.700000e+00
  C2vr  TC1h  1 3.950000e-01    2.700000e+00
  C2vh  TX4r  1 3.950000e-01    1.850000e+00
  C2vr  TX4h  1 3.950000e-01    1.850000e+00
  C2vh  TX3r  1 3.950000e-01    2.310000e+00
  C2vr  TX3h  1 3.950000e-01    2.310000e+00
  C2vh  TX2r  1 3.950000e-01    2.310000e+00
  C2vr  TX2h  1 3.950000e-01    2.310000e+00
  C2vh  TX1r  1 3.950000e-01    2.310000e+00
  C2vr  TX1h  1 3.950000e-01    2.310000e+00
  C2vh TC1vr  1 3.950000e-01    2.310000e+00
  C2vr TC1vh  1 3.950000e-01    2.310000e+00
  C2vh TX4vr  1 3.980000e-01    1.450000e+00
  C2vr TX4vh  1 3.980000e-01    1.450000e+00
  C2vh TX3vr  1 3.950000e-01    1.850000e+00
  C2vr TX3vh  1 3.950000e-01    1.850000e+00
  C2vh TX2vr  1 3.950000e-01    1.850000e+00
  C2vr TX2vh  1 3.950000e-01    1.850000e+00
  C2vh TX1vr  1 3.950000e-01    1.850000e+00
  C2vr TX1vh  1 3.950000e-01    1.850000e+00
  C2vh TC2er  1 3.950000e-01    2.700000e+00
  C2vr TC2eh  1 3.950000e-01    2.700000e+00
  C2vh TC1er  1 3.950000e-01    2.940000e+00
  C2vr TC1eh  1 3.950000e-01    2.940000e+00
  C2vh TX4er  1 3.950000e-01    2.110000e+00
  C2vr TX4eh  1 3.950000e-01    2.110000e+00
  C2vh TX3er  1 3.950000e-01    2.500000e+00
  C2vr TX3eh  1 3.950000e-01    2.500000e+00
  C2vh TX2er  1 3.950000e-01    2.500000e+00
  C2vr TX2eh  1 3.950000e-01    2.500000e+00
  C2vh TX1er  1 3.950000e-01    2.500000e+00
  C2vr TX1eh  1 3.950000e-01    2.500000e+00
  C1vh TC1vr  1 3.950000e-01    2.110000e+00
  C1vh  TX4r  1 3.950000e-01    1.850000e+00
  C1vr  TX4h  1 3.950000e-01    1.850000e+00
  C1vh  TX3r  1 3.950000e-01    2.310000e+00
  C1vr  TX3h  1 3.950000e-01    2.310000e+00
  C1vh  TX2r  1 3.950000e-01    2.310000e+00
  C1vr  TX2h  1 3.950000e-01    2.310000e+00
  C1vh  TX1r  1 3.950000e-01    2.310000e+00
  C1vr  TX1h  1 3.950000e-01    2.310000e+00
  C1vh TX4vr  1 3.980000e-01    1.450000e+00
  C1vr TX4vh  1 3.980000e-01    1.450000e+00
  C1vh TX3vr  1 3.950000e-01    1.850000e+00
  C1vr TX3vh  1 3.950000e-01    1.850000e+00
  C1vh TX2vr  1 3.950000e-01    1.850000e+00
  C1vr TX2vh  1 3.950000e-01    1.850000e+00
  C1vh TX1vr  1 3.950000e-01    1.850000e+00
  C1vr TX1vh  1 3.950000e-01    1.850000e+00
  C1vh TC1er  1 3.950000e-01    2.700000e+00
  C1vr TC1eh  1 3.950000e-01    2.700000e+00
  C1vh TX4er  1 3.950000e-01    2.110000e+00
  C1vr TX4eh  1 3.950000e-01    2.110000e+00
  C1vh TX3er  1 3.950000e-01    2.500000e+00
  C1vr TX3eh  1 3.950000e-01    2.500000e+00
  C1vh TX2er  1 3.950000e-01    2.500000e+00
  C1vr TX2eh  1 3.950000e-01    2.500000e+00
  C1vh TX1er  1 3.950000e-01    2.500000e+00
  C1vr TX1eh  1 3.950000e-01    2.500000e+00
  X4vh TX4vr  1 3.950000e-01    2.110000e+00
  X4vh  TX3r  1 3.950000e-01    2.500000e+00
  X4vr  TX3h  1 3.950000e-01    2.500000e+00
  X4vh  TX2r  1 3.950000e-01    2.500000e+00
  X4vr  TX2h  1 3.950000e-01    2.500000e+00
  X4vh  TX1r  1 3.950000e-01    2.500000e+00
  X4vr  TX1h  1 3.950000e-01    2.500000e+00
  X4vh TX3vr  1 3.950000e-01    2.110000e+00
  X4vr TX3vh  1 3.950000e-01    2.110000e+00
  X4vh TX2vr  1 3.950000e-01    2.110000e+00
  X4vr TX2vh  1 3.950000e-01    2.110000e+00
  X4vh TX1vr  1 3.950000e-01    2.110000e+00
  X4vr TX1vh  1 3.950000e-01    2.110000e+00
  X4vh TX4er  1 3.950000e-01    2.700000e+00
  X4vr TX4eh  1 3.950000e-01    2.700000e+00
  X4vh TX3er  1 3.950000e-01    2.700000e+00
  X4vr TX3eh  1 3.950000e-01    2.700000e+00
  X4vh TX2er  1 3.950000e-01    2.700000e+00
  X4vr TX2eh  1 3.950000e-01    2.700000e+00
  X4vh TX1er  1 3.950000e-01    2.700000e+00
  X4vr TX1eh  1 3.950000e-01    2.700000e+00
  X3vh TX3vr  1 3.950000e-01    2.110000e+00
  X3vh  TX2r  1 3.950000e-01    2.700000e+00
  X3vr  TX2h  1 3.950000e-01    2.700000e+00
  X3vh  TX1r  1 3.950000e-01    2.700000e+00
  X3vr  TX1h  1 3.950000e-01    2.700000e+00
  X3vh TX2vr  1 3.950000e-01    2.310000e+00
  X3vr TX2vh  1 3.950000e-01    2.310000e+00
  X3vh TX1vr  1 3.950000e-01    2.310000e+00
  X3vr TX1vh  1 3.950000e-01    2.310000e+00
  X3vh TX3er  1 3.950000e-01    2.700000e+00
  X3vr TX3eh  1 3.950000e-01    2.700000e+00
  X3vh TX2er  1 3.950000e-01    2.940000e+00
  X3vr TX2eh  1 3.950000e-01    2.940000e+00
  X3vh TX1er  1 3.950000e-01    2.940000e+00
  X3vr TX1eh  1 3.950000e-01    2.940000e+00
  X2vh TX2vr  1 3.950000e-01    2.310000e+00
  X2vh  TX1r  1 3.950000e-01    2.700000e+00
  X2vr  TX1h  1 3.950000e-01    2.700000e+00
  X2vh TX1vr  1 3.950000e-01    2.310000e+00
  X2vr TX1vh  1 3.950000e-01    2.310000e+00
  X2vh TX2er  1 3.950000e-01    2.940000e+00
  X2vr TX2eh  1 3.950000e-01    2.940000e+00
  X2vh TX1er  1 3.950000e-01    2.940000e+00
  X2vr TX1eh  1 3.950000e-01    2.940000e+00
  X1vh TX1vr  1 3.950000e-01    2.500000e+00
  X1vh TX1er  1 3.950000e-01    3.190000e+00
  X1vr TX1eh  1 3.950000e-01    3.190000e+00
  C6eh TC6er  1 3.950000e-01    2.310000e+00
  C6eh  TC5r  1 3.950000e-01    2.500000e+00
  C6er  TC5h  1 3.950000e-01    2.500000e+00
  C6eh  TC4r  1 3.950000e-01    2.500000e+00
  C6er  TC4h  1 3.950000e-01    2.500000e+00
  C6eh  TC3r  1 3.950000e-01    2.310000e+00
  C6er  TC3h  1 3.950000e-01    2.310000e+00
  C6eh  TC2r  1 3.950000e-01    2.110000e+00
  C6er  TC2h  1 3.950000e-01    2.110000e+00
  C6eh  TC1r  1 3.950000e-01    1.850000e+00
  C6er  TC1h  1 3.950000e-01    1.850000e+00
  C6eh  TX4r  1 3.950000e-01    2.500000e+00
  C6er  TX4h  1 3.950000e-01    2.500000e+00
  C6eh  TX3r  1 3.950000e-01    2.500000e+00
  C6er  TX3h  1 3.950000e-01    2.500000e+00
  C6eh  TX2r  1 3.950000e-01    2.500000e+00
  C6er  TX2h  1 3.950000e-01    2.500000e+00
  C6eh  TX1r  1 3.950000e-01    2.500000e+00
  C6er  TX1h  1 3.950000e-01    2.500000e+00
  C6eh TC5vr  1 3.950000e-01    2.700000e+00
  C6er TC5vh  1 3.950000e-01    2.700000e+00
  C6eh TC4vr  1 3.950000e-01    2.700000e+00
  C6er TC4vh  1 3.950000e-01    2.700000e+00
  C6eh TC3vr  1 3.950000e-01    2.500000e+00
  C6er TC3vh  1 3.950000e-01    2.500000e+00
  C6eh TC2vr  1 3.950000e-01    2.310000e+00
  C6er TC2vh  1 3.950000e-01    2.310000e+00
  C6eh TC1vr  1 3.950000e-01    2.110000e+00
  C6er TC1vh  1 3.950000e-01    2.110000e+00
  C6eh TX4vr  1 3.950000e-01    2.700000e+00
  C6er TX4vh  1 3.950000e-01    2.700000e+00
  C6eh TX3vr  1 3.950000e-01    2.700000e+00
  C6er TX3vh  1 3.950000e-01    2.700000e+00
  C6eh TX2vr  1 3.950000e-01    2.700000e+00
  C6er TX2vh  1 3.950000e-01    2.700000e+00
  C6eh TX1vr  1 3.950000e-01    2.700000e+00
  C6er TX1vh  1 3.950000e-01    2.700000e+00
  C6eh TC5er  1 3.950000e-01    2.110000e+00
  C6er TC5eh  1 3.950000e-01    2.110000e+00
  C6eh TC4er  1 3.950000e-01    2.110000e+00
  C6er TC4eh  1 3.950000e-01    2.110000e+00
  C6eh TC3er  1 3.950000e-01    1.850000e+00
  C6er TC3eh  1 3.950000e-01    1.850000e+00
  C6eh TC2er  1 3.950000e-01    1.670000e+00
  C6er TC2eh  1 3.950000e-01    1.670000e+00
  C6eh TC1er  1 3.980000e-01    1.450000e+00
  C6er TC1eh  1 3.980000e-01    1.450000e+00
  C6eh TX4er  1 3.950000e-01    2.110000e+00
  C6er TX4eh  1 3.950000e-01    2.110000e+00
  C6eh TX3er  1 3.950000e-01    2.110000e+00
  C6er TX3eh  1 3.950000e-01    2.110000e+00
  C6eh TX2er  1 3.950000e-01    2.110000e+00
  C6er TX2eh  1 3.950000e-01    2.110000e+00
  C6eh TX1er  1 3.950000e-01    2.110000e+00
  C6er TX1eh  1 3.950000e-01    2.110000e+00
  C5eh TC5er  1 3.950000e-01    2.110000e+00
  C5eh  TC4r  1 3.950000e-01    2.500000e+00
  C5er  TC4h  1 3.950000e-01    2.500000e+00
  C5eh  TC3r  1 3.950000e-01    2.310000e+00
  C5er  TC3h  1 3.950000e-01    2.310000e+00
  C5eh  TC2r  1 3.950000e-01    2.110000e+00
  C5er  TC2h  1 3.950000e-01    2.110000e+00
  C5eh  TC1r  1 3.950000e-01    2.110000e+00
  C5er  TC1h  1 3.950000e-01    2.110000e+00
  C5eh  TX4r  1 3.950000e-01    2.310000e+00
  C5er  TX4h  1 3.950000e-01    2.310000e+00
  C5eh  TX3r  1 3.950000e-01    2.310000e+00
  C5er  TX3h  1 3.950000e-01    2.310000e+00
  C5eh  TX2r  1 3.950000e-01    2.310000e+00
  C5er  TX2h  1 3.950000e-01    2.310000e+00
  C5eh  TX1r  1 3.950000e-01    2.500000e+00
  C5er  TX1h  1 3.950000e-01    2.500000e+00
  C5eh TC4vr  1 3.950000e-01    2.700000e+00
  C5er TC4vh  1 3.950000e-01    2.700000e+00
  C5eh TC3vr  1 3.950000e-01    2.500000e+00
  C5er TC3vh  1 3.950000e-01    2.500000e+00
  C5eh TC2vr  1 3.950000e-01    2.310000e+00
  C5er TC2vh  1 3.950000e-01    2.310000e+00
  C5eh TC1vr  1 3.950000e-01    2.310000e+00
  C5er TC1vh  1 3.950000e-01    2.310000e+00
  C5eh TX4vr  1 3.950000e-01    2.500000e+00
  C5er TX4vh  1 3.950000e-01    2.500000e+00
  C5eh TX3vr  1 3.950000e-01    2.500000e+00
  C5er TX3vh  1 3.950000e-01    2.500000e+00
  C5eh TX2vr  1 3.950000e-01    2.500000e+00
  C5er TX2vh  1 3.950000e-01    2.500000e+00
  C5eh TX1vr  1 3.950000e-01    2.700000e+00
  C5er TX1vh  1 3.950000e-01    2.700000e+00
  C5eh TC4er  1 3.950000e-01    2.110000e+00
  C5er TC4eh  1 3.950000e-01    2.110000e+00
  C5eh TC3er  1 3.950000e-01    1.850000e+00
  C5er TC3eh  1 3.950000e-01    1.850000e+00
  C5eh TC2er  1 3.950000e-01    1.670000e+00
  C5er TC2eh  1 3.950000e-01    1.670000e+00
  C5eh TC1er  1 3.950000e-01    1.670000e+00
  C5er TC1eh  1 3.950000e-01    1.670000e+00
  C5eh TX4er  1 3.950000e-01    1.850000e+00
  C5er TX4eh  1 3.950000e-01    1.850000e+00
  C5eh TX3er  1 3.950000e-01    1.850000e+00
  C5er TX3eh  1 3.950000e-01    1.850000e+00
  C5eh TX2er  1 3.950000e-01    1.850000e+00
  C5er TX2eh  1 3.950000e-01    1.850000e+00
  C5eh TX1er  1 3.950000e-01    2.110000e+00
  C5er TX1eh  1 3.950000e-01    2.110000e+00
  C4eh TC4er  1 3.950000e-01    2.110000e+00
  C4eh  TC3r  1 3.950000e-01    2.500000e+00
  C4er  TC3h  1 3.950000e-01    2.500000e+00
  C4eh  TC2r  1 3.950000e-01    2.310000e+00
  C4er  TC2h  1 3.950000e-01    2.310000e+00
  C4eh  TC1r  1 3.950000e-01    2.110000e+00
  C4er  TC1h  1 3.950000e-01    2.110000e+00
  C4eh  TX4r  1 3.950000e-01    2.310000e+00
  C4er  TX4h  1 3.950000e-01    2.310000e+00
  C4eh  TX3r  1 3.950000e-01    2.310000e+00
  C4er  TX3h  1 3.950000e-01    2.310000e+00
  C4eh  TX2r  1 3.950000e-01    2.310000e+00
  C4er  TX2h  1 3.950000e-01    2.310000e+00
  C4eh  TX1r  1 3.950000e-01    2.500000e+00
  C4er  TX1h  1 3.950000e-01    2.500000e+00
  C4eh TC3vr  1 3.950000e-01    2.700000e+00
  C4er TC3vh  1 3.950000e-01    2.700000e+00
  C4eh TC2vr  1 3.950000e-01    2.500000e+00
  C4er TC2vh  1 3.950000e-01    2.500000e+00
  C4eh TC1vr  1 3.950000e-01    2.310000e+00
  C4er TC1vh  1 3.950000e-01    2.310000e+00
  C4eh TX4vr  1 3.950000e-01    2.500000e+00
  C4er TX4vh  1 3.950000e-01    2.500000e+00
  C4eh TX3vr  1 3.950000e-01    2.500000e+00
  C4er TX3vh  1 3.950000e-01    2.500000e+00
  C4eh TX2vr  1 3.950000e-01    2.500000e+00
  C4er TX2vh  1 3.950000e-01    2.500000e+00
  C4eh TX1vr  1 3.950000e-01    2.700000e+00
  C4er TX1vh  1 3.950000e-01    2.700000e+00
  C4eh TC3er  1 3.950000e-01    2.110000e+00
  C4er TC3eh  1 3.950000e-01    2.110000e+00
  C4eh TC2er  1 3.950000e-01    1.850000e+00
  C4er TC2eh  1 3.950000e-01    1.850000e+00
  C4eh TC1er  1 3.950000e-01    1.670000e+00
  C4er TC1eh  1 3.950000e-01    1.670000e+00
  C4eh TX4er  1 3.950000e-01    1.850000e+00
  C4er TX4eh  1 3.950000e-01    1.850000e+00
  C4eh TX3er  1 3.950000e-01    1.850000e+00
  C4er TX3eh  1 3.950000e-01    1.850000e+00
  C4eh TX2er  1 3.950000e-01    1.850000e+00
  C4er TX2eh  1 3.950000e-01    1.850000e+00
  C4eh TX1er  1 3.950000e-01    2.110000e+00
  C4er TX1eh  1 3.950000e-01    2.110000e+00
  C3eh TC3er  1 3.950000e-01    2.110000e+00
  C3eh  TC2r  1 3.950000e-01    2.500000e+00
  C3er  TC2h  1 3.950000e-01    2.500000e+00
  C3eh  TC1r  1 3.950000e-01    2.500000e+00
  C3er  TC1h  1 3.950000e-01    2.500000e+00
  C3eh  TX4r  1 3.950000e-01    2.310000e+00
  C3er  TX4h  1 3.950000e-01    2.310000e+00
  C3eh  TX3r  1 3.950000e-01    2.310000e+00
  C3er  TX3h  1 3.950000e-01    2.310000e+00
  C3eh  TX2r  1 3.950000e-01    2.310000e+00
  C3er  TX2h  1 3.950000e-01    2.310000e+00
  C3eh  TX1r  1 3.950000e-01    2.500000e+00
  C3er  TX1h  1 3.950000e-01    2.500000e+00
  C3eh TC2vr  1 3.950000e-01    2.700000e+00
  C3er TC2vh  1 3.950000e-01    2.700000e+00
  C3eh TC1vr  1 3.950000e-01    2.700000e+00
  C3er TC1vh  1 3.950000e-01    2.700000e+00
  C3eh TX4vr  1 3.950000e-01    2.500000e+00
  C3er TX4vh  1 3.950000e-01    2.500000e+00
  C3eh TX3vr  1 3.950000e-01    2.500000e+00
  C3er TX3vh  1 3.950000e-01    2.500000e+00
  C3eh TX2vr  1 3.950000e-01    2.500000e+00
  C3er TX2vh  1 3.950000e-01    2.500000e+00
  C3eh TX1vr  1 3.950000e-01    2.700000e+00
  C3er TX1vh  1 3.950000e-01    2.700000e+00
  C3eh TC2er  1 3.950000e-01    2.110000e+00
  C3er TC2eh  1 3.950000e-01    2.110000e+00
  C3eh TC1er  1 3.950000e-01    2.110000e+00
  C3er TC1eh  1 3.950000e-01    2.110000e+00
  C3eh TX4er  1 3.950000e-01    1.850000e+00
  C3er TX4eh  1 3.950000e-01    1.850000e+00
  C3eh TX3er  1 3.950000e-01    1.850000e+00
  C3er TX3eh  1 3.950000e-01    1.850000e+00
  C3eh TX2er  1 3.950000e-01    1.850000e+00
  C3er TX2eh  1 3.950000e-01    1.850000e+00
  C3eh TX1er  1 3.950000e-01    2.110000e+00
  C3er TX1eh  1 3.950000e-01    2.110000e+00
  C2eh TC2er  1 3.950000e-01    2.110000e+00
  C2eh  TC1r  1 3.950000e-01    2.700000e+00
  C2er  TC1h  1 3.950000e-01    2.700000e+00
  C2eh  TX4r  1 3.950000e-01    1.850000e+00
  C2er  TX4h  1 3.950000e-01    1.850000e+00
  C2eh  TX3r  1 3.950000e-01    2.310000e+00
  C2er  TX3h  1 3.950000e-01    2.310000e+00
  C2eh  TX2r  1 3.950000e-01    2.310000e+00
  C2er  TX2h  1 3.950000e-01    2.310000e+00
  C2eh  TX1r  1 3.950000e-01    2.310000e+00
  C2er  TX1h  1 3.950000e-01    2.310000e+00
  C2eh TC1vr  1 3.950000e-01    2.940000e+00
  C2er TC1vh  1 3.950000e-01    2.940000e+00
  C2eh TX4vr  1 3.950000e-01    2.110000e+00
  C2er TX4vh  1 3.950000e-01    2.110000e+00
  C2eh TX3vr  1 3.950000e-01    2.500000e+00
  C2er TX3vh  1 3.950000e-01    2.500000e+00
  C2eh TX2vr  1 3.950000e-01    2.500000e+00
  C2er TX2vh  1 3.950000e-01    2.500000e+00
  C2eh TX1vr  1 3.950000e-01    2.500000e+00
  C2er TX1vh  1 3.950000e-01    2.500000e+00
  C2eh TC1er  1 3.950000e-01    2.310000e+00
  C2er TC1eh  1 3.950000e-01    2.310000e+00
  C2eh TX4er  1 3.980000e-01    1.450000e+00
  C2er TX4eh  1 3.980000e-01    1.450000e+00
  C2eh TX3er  1 3.950000e-01    1.850000e+00
  C2er TX3eh  1 3.950000e-01    1.850000e+00
  C2eh TX2er  1 3.950000e-01    1.850000e+00
  C2er TX2eh  1 3.950000e-01    1.850000e+00
  C2eh TX1er  1 3.950000e-01    1.850000e+00
  C2er TX1eh  1 3.950000e-01    1.850000e+00
  C1eh TC1er  1 3.950000e-01    2.110000e+00
  C1eh  TX4r  1 3.950000e-01    1.850000e+00
  C1er  TX4h  1 3.950000e-01    1.850000e+00
  C1eh  TX3r  1 3.950000e-01    2.310000e+00
  C1er  TX3h  1 3.950000e-01    2.310000e+00
  C1eh  TX2r  1 3.950000e-01    2.310000e+00
  C1er  TX2h  1 3.950000e-01    2.310000e+00
  C1eh  TX1r  1 3.950000e-01    2.310000e+00
  C1er  TX1h  1 3.950000e-01    2.310000e+00
  C1eh TX4vr  1 3.950000e-01    2.110000e+00
  C1er TX4vh  1 3.950000e-01    2.110000e+00
  C1eh TX3vr  1 3.950000e-01    2.500000e+00
  C1er TX3vh  1 3.950000e-01    2.500000e+00
  C1eh TX2vr  1 3.950000e-01    2.500000e+00
  C1er TX2vh  1 3.950000e-01    2.500000e+00
  C1eh TX1vr  1 3.950000e-01    2.500000e+00
  C1er TX1vh  1 3.950000e-01    2.500000e+00
  C1eh TX4er  1 3.980000e-01    1.450000e+00
  C1er TX4eh  1 3.980000e-01    1.450000e+00
  C1eh TX3er  1 3.950000e-01    1.850000e+00
  C1er TX3eh  1 3.950000e-01    1.850000e+00
  C1eh TX2er  1 3.950000e-01    1.850000e+00
  C1er TX2eh  1 3.950000e-01    1.850000e+00
  C1eh TX1er  1 3.950000e-01    1.850000e+00
  C1er TX1eh  1 3.950000e-01    1.850000e+00
  X4eh TX4er  1 3.950000e-01    2.110000e+00
  X4eh  TX3r  1 3.950000e-01    2.500000e+00
  X4er  TX3h  1 3.950000e-01    2.500000e+00
  X4eh  TX2r  1 3.950000e-01    2.500000e+00
  X4er  TX2h  1 3.950000e-01    2.500000e+00
  X4eh  TX1r  1 3.950000e-01    2.500000e+00
  X4er  TX1h  1 3.950000e-01    2.500000e+00
  X4eh TX3vr  1 3.950000e-01    2.700000e+00
  X4er TX3vh  1 3.950000e-01    2.700000e+00
  X4eh TX2vr  1 3.950000e-01    2.700000e+00
  X4er TX2vh  1 3.950000e-01    2.700000e+00
  X4eh TX1vr  1 3.950000e-01    2.700000e+00
  X4er TX1vh  1 3.950000e-01    2.700000e+00
  X4eh TX3er  1 3.950000e-01    2.110000e+00
  X4er TX3eh  1 3.950000e-01    2.110000e+00
  X4eh TX2er  1 3.950000e-01    2.110000e+00
  X4er TX2eh  1 3.950000e-01    2.110000e+00
  X4eh TX1er  1 3.950000e-01    2.110000e+00
  X4er TX1eh  1 3.950000e-01    2.110000e+00
  X3eh TX3er  1 3.950000e-01    2.110000e+00
  X3eh  TX2r  1 3.950000e-01    2.700000e+00
  X3er  TX2h  1 3.950000e-01    2.700000e+00
  X3eh  TX1r  1 3.950000e-01    2.700000e+00
  X3er  TX1h  1 3.950000e-01    2.700000e+00
  X3eh TX2vr  1 3.950000e-01    2.940000e+00
  X3er TX2vh  1 3.950000e-01    2.940000e+00
  X3eh TX1vr  1 3.950000e-01    2.940000e+00
  X3er TX1vh  1 3.950000e-01    2.940000e+00
  X3eh TX2er  1 3.950000e-01    2.310000e+00
  X3er TX2eh  1 3.950000e-01    2.310000e+00
  X3eh TX1er  1 3.950000e-01    2.310000e+00
  X3er TX1eh  1 3.950000e-01    2.310000e+00
  X2eh TX2er  1 3.950000e-01    2.310000e+00
  X2eh  TX1r  1 3.950000e-01    2.700000e+00
  X2er  TX1h  1 3.950000e-01    2.700000e+00
  X2eh TX1vr  1 3.950000e-01    2.940000e+00
  X2er TX1vh  1 3.950000e-01    2.940000e+00
  X2eh TX1er  1 3.950000e-01    2.310000e+00
  X2er TX1eh  1 3.950000e-01    2.310000e+00
  X1eh TX1er  1 3.950000e-01    2.500000e+00
   P6h  TC6r  1 3.950000e-01    1.670000e+00
   P6r  TC6h  1 3.950000e-01    1.670000e+00
   P6h  TC5r  1 3.980000e-01    1.450000e+00
   P6r  TC5h  1 3.980000e-01    1.450000e+00
   P6h  TC4r  1 3.990000e-01    1.180000e+00
   P6r  TC4h  1 3.990000e-01    1.180000e+00
   P6h  TC3r  1 4.010000e-01    9.830000e-01
   P6r  TC3h  1 4.010000e-01    9.830000e-01
   P6h  TC2r  1 4.010000e-01    9.830000e-01
   P6r  TC2h  1 4.010000e-01    9.830000e-01
   P6h  TC1r  1 4.650000e-01    7.030000e-01
   P6r  TC1h  1 4.650000e-01    7.030000e-01
   P6h  TX4r  1 3.950000e-01    1.850000e+00
   P6r  TX4h  1 3.950000e-01    1.850000e+00
   P6h  TX3r  1 3.950000e-01    1.850000e+00
   P6r  TX3h  1 3.950000e-01    1.850000e+00
   P6h  TX2r  1 3.950000e-01    1.670000e+00
   P6r  TX2h  1 3.950000e-01    1.670000e+00
   P6h  TX1r  1 3.980000e-01    1.450000e+00
   P6r  TX1h  1 3.980000e-01    1.450000e+00
   P6h TC6vr  1 3.950000e-01    1.850000e+00
   P6r TC6vh  1 3.950000e-01    1.850000e+00
   P6h TC5vr  1 3.950000e-01    1.670000e+00
   P6r TC5vh  1 3.950000e-01    1.670000e+00
   P6h TC4vr  1 3.980000e-01    1.450000e+00
   P6r TC4vh  1 3.980000e-01    1.450000e+00
   P6h TC3vr  1 3.990000e-01    1.180000e+00
   P6r TC3vh  1 3.990000e-01    1.180000e+00
   P6h TC2vr  1 3.990000e-01    1.180000e+00
   P6r TC2vh  1 3.990000e-01    1.180000e+00
   P6h TC1vr  1 4.040000e-01    8.300000e-01
   P6r TC1vh  1 4.040000e-01    8.300000e-01
   P6h TX4vr  1 3.950000e-01    2.110000e+00
   P6r TX4vh  1 3.950000e-01    2.110000e+00
   P6h TX3vr  1 3.950000e-01    2.110000e+00
   P6r TX3vh  1 3.950000e-01    2.110000e+00
   P6h TX2vr  1 3.950000e-01    1.850000e+00
   P6r TX2vh  1 3.950000e-01    1.850000e+00
   P6h TX1vr  1 3.950000e-01    1.670000e+00
   P6r TX1vh  1 3.950000e-01    1.670000e+00
   P6h TC6er  1 3.950000e-01    1.850000e+00
   P6r TC6eh  1 3.950000e-01    1.850000e+00
   P6h TC5er  1 3.950000e-01    1.670000e+00
   P6r TC5eh  1 3.950000e-01    1.670000e+00
   P6h TC4er  1 3.980000e-01    1.450000e+00
   P6r TC4eh  1 3.980000e-01    1.450000e+00
   P6h TC3er  1 3.990000e-01    1.180000e+00
   P6r TC3eh  1 3.990000e-01    1.180000e+00
   P6h TC2er  1 3.990000e-01    1.180000e+00
   P6r TC2eh  1 3.990000e-01    1.180000e+00
   P6h TC1er  1 4.040000e-01    8.300000e-01
   P6r TC1eh  1 4.040000e-01    8.300000e-01
   P6h TX4er  1 3.950000e-01    2.110000e+00
   P6r TX4eh  1 3.950000e-01    2.110000e+00
   P6h TX3er  1 3.950000e-01    2.110000e+00
   P6r TX3eh  1 3.950000e-01    2.110000e+00
   P6h TX2er  1 3.950000e-01    1.850000e+00
   P6r TX2eh  1 3.950000e-01    1.850000e+00
   P6h TX1er  1 3.950000e-01    1.670000e+00
   P6r TX1eh  1 3.950000e-01    1.670000e+00
   P5h  TC6r  1 3.950000e-01    1.670000e+00
   P5r  TC6h  1 3.950000e-01    1.670000e+00
   P5h  TC5r  1 3.950000e-01    1.670000e+00
   P5r  TC5h  1 3.950000e-01    1.670000e+00
   P5h  TC4r  1 3.980000e-01    1.450000e+00
   P5r  TC4h  1 3.980000e-01    1.450000e+00
   P5h  TC3r  1 3.990000e-01    1.180000e+00
   P5r  TC3h  1 3.990000e-01    1.180000e+00
   P5h  TC2r  1 3.990000e-01    1.180000e+00
   P5r  TC2h  1 3.990000e-01    1.180000e+00
   P5h  TC1r  1 4.010000e-01    9.830000e-01
   P5r  TC1h  1 4.010000e-01    9.830000e-01
   P5h  TX4r  1 3.950000e-01    2.110000e+00
   P5r  TX4h  1 3.950000e-01    2.110000e+00
   P5h  TX3r  1 3.950000e-01    1.850000e+00
   P5r  TX3h  1 3.950000e-01    1.850000e+00
   P5h  TX2r  1 3.950000e-01    1.850000e+00
   P5r  TX2h  1 3.950000e-01    1.850000e+00
   P5h  TX1r  1 3.980000e-01    1.450000e+00
   P5r  TX1h  1 3.980000e-01    1.450000e+00
   P5h TC6vr  1 3.950000e-01    1.850000e+00
   P5r TC6vh  1 3.950000e-01    1.850000e+00
   P5h TC5vr  1 3.950000e-01    1.850000e+00
   P5r TC5vh  1 3.950000e-01    1.850000e+00
   P5h TC4vr  1 3.950000e-01    1.670000e+00
   P5r TC4vh  1 3.950000e-01    1.670000e+00
   P5h TC3vr  1 3.980000e-01    1.450000e+00
   P5r TC3vh  1 3.980000e-01    1.450000e+00
   P5h TC2vr  1 3.980000e-01    1.450000e+00
   P5r TC2vh  1 3.980000e-01    1.450000e+00
   P5h TC1vr  1 3.990000e-01    1.180000e+00
   P5r TC1vh  1 3.990000e-01    1.180000e+00
   P5h TX4vr  1 3.950000e-01    2.310000e+00
   P5r TX4vh  1 3.950000e-01    2.310000e+00
   P5h TX3vr  1 3.950000e-01    2.110000e+00
   P5r TX3vh  1 3.950000e-01    2.110000e+00
   P5h TX2vr  1 3.950000e-01    2.110000e+00
   P5r TX2vh  1 3.950000e-01    2.110000e+00
   P5h TX1vr  1 3.950000e-01    1.670000e+00
   P5r TX1vh  1 3.950000e-01    1.670000e+00
   P5h TC6er  1 3.950000e-01    1.850000e+00
   P5r TC6eh  1 3.950000e-01    1.850000e+00
   P5h TC5er  1 3.950000e-01    1.850000e+00
   P5r TC5eh  1 3.950000e-01    1.850000e+00
   P5h TC4er  1 3.950000e-01    1.670000e+00
   P5r TC4eh  1 3.950000e-01    1.670000e+00
   P5h TC3er  1 3.980000e-01    1.450000e+00
   P5r TC3eh  1 3.980000e-01    1.450000e+00
   P5h TC2er  1 3.980000e-01    1.450000e+00
   P5r TC2eh  1 3.980000e-01    1.450000e+00
   P5h TC1er  1 3.990000e-01    1.180000e+00
   P5r TC1eh  1 3.990000e-01    1.180000e+00
   P5h TX4er  1 3.950000e-01    2.310000e+00
   P5r TX4eh  1 3.950000e-01    2.310000e+00
   P5h TX3er  1 3.950000e-01    2.110000e+00
   P5r TX3eh  1 3.950000e-01    2.110000e+00
   P5h TX2er  1 3.950000e-01    2.110000e+00
   P5r TX2eh  1 3.950000e-01    2.110000e+00
   P5h TX1er  1 3.950000e-01    1.670000e+00
   P5r TX1eh  1 3.950000e-01    1.670000e+00
   P4h  TC6r  1 3.950000e-01    1.850000e+00
   P4r  TC6h  1 3.950000e-01    1.850000e+00
   P4h  TC5r  1 3.950000e-01    1.670000e+00
   P4r  TC5h  1 3.950000e-01    1.670000e+00
   P4h  TC4r  1 3.980000e-01    1.450000e+00
   P4r  TC4h  1 3.980000e-01    1.450000e+00
   P4h  TC3r  1 3.990000e-01    1.180000e+00
   P4r  TC3h  1 3.990000e-01    1.180000e+00
   P4h  TC2r  1 3.990000e-01    1.180000e+00
   P4r  TC2h  1 3.990000e-01    1.180000e+00
   P4h  TC1r  1 4.010000e-01    9.830000e-01
   P4r  TC1h  1 4.010000e-01    9.830000e-01
   P4h  TX4r  1 3.950000e-01    2.110000e+00
   P4r  TX4h  1 3.950000e-01    2.110000e+00
   P4h  TX3r  1 3.950000e-01    1.850000e+00
   P4r  TX3h  1 3.950000e-01    1.850000e+00
   P4h  TX2r  1 3.950000e-01    1.850000e+00
   P4r  TX2h  1 3.950000e-01    1.850000e+00
   P4h  TX1r  1 3.950000e-01    1.670000e+00
   P4r  TX1h  1 3.950000e-01    1.670000e+00
   P4h TC6vr  1 3.950000e-01    2.110000e+00
   P4r TC6vh  1 3.950000e-01    2.110000e+00
   P4h TC5vr  1 3.950000e-01    1.850000e+00
   P4r TC5vh  1 3.950000e-01    1.850000e+00
   P4h TC4vr  1 3.950000e-01    1.670000e+00
   P4r TC4vh  1 3.950000e-01    1.670000e+00
   P4h TC3vr  1 3.980000e-01    1.450000e+00
   P4r TC3vh  1 3.980000e-01    1.450000e+00
   P4h TC2vr  1 3.980000e-01    1.450000e+00
   P4r TC2vh  1 3.980000e-01    1.450000e+00
   P4h TC1vr  1 3.990000e-01    1.180000e+00
   P4r TC1vh  1 3.990000e-01    1.180000e+00
   P4h TX4vr  1 3.950000e-01    2.310000e+00
   P4r TX4vh  1 3.950000e-01    2.310000e+00
   P4h TX3vr  1 3.950000e-01    2.110000e+00
   P4r TX3vh  1 3.950000e-01    2.110000e+00
   P4h TX2vr  1 3.950000e-01    2.110000e+00
   P4r TX2vh  1 3.950000e-01    2.110000e+00
   P4h TX1vr  1 3.950000e-01    1.850000e+00
   P4r TX1vh  1 3.950000e-01    1.850000e+00
   P4h TC6er  1 3.950000e-01    2.110000e+00
   P4r TC6eh  1 3.950000e-01    2.110000e+00
   P4h TC5er  1 3.950000e-01    1.850000e+00
   P4r TC5eh  1 3.950000e-01    1.850000e+00
   P4h TC4er  1 3.950000e-01    1.670000e+00
   P4r TC4eh  1 3.950000e-01    1.670000e+00
   P4h TC3er  1 3.980000e-01    1.450000e+00
   P4r TC3eh  1 3.980000e-01    1.450000e+00
   P4h TC2er  1 3.980000e-01    1.450000e+00
   P4r TC2eh  1 3.980000e-01    1.450000e+00
   P4h TC1er  1 3.990000e-01    1.180000e+00
   P4r TC1eh  1 3.990000e-01    1.180000e+00
   P4h TX4er  1 3.950000e-01    2.310000e+00
   P4r TX4eh  1 3.950000e-01    2.310000e+00
   P4h TX3er  1 3.950000e-01    2.110000e+00
   P4r TX3eh  1 3.950000e-01    2.110000e+00
   P4h TX2er  1 3.950000e-01    2.110000e+00
   P4r TX2eh  1 3.950000e-01    2.110000e+00
   P4h TX1er  1 3.950000e-01    1.850000e+00
   P4r TX1eh  1 3.950000e-01    1.850000e+00
   P3h  TC6r  1 3.950000e-01    2.110000e+00
   P3r  TC6h  1 3.950000e-01    2.110000e+00
   P3h  TC5r  1 3.950000e-01    1.850000e+00
   P3r  TC5h  1 3.950000e-01    1.850000e+00
   P3h  TC4r  1 3.950000e-01    1.670000e+00
   P3r  TC4h  1 3.950000e-01    1.670000e+00
   P3h  TC3r  1 3.990000e-01    1.180000e+00
   P3r  TC3h  1 3.990000e-01    1.180000e+00
   P3h  TC2r  1 3.990000e-01    1.180000e+00
   P3r  TC2h  1 3.990000e-01    1.180000e+00
   P3h  TC1r  1 4.010000e-01    9.830000e-01
   P3r  TC1h  1 4.010000e-01    9.830000e-01
   P3h  TX4r  1 3.950000e-01    2.110000e+00
   P3r  TX4h  1 3.950000e-01    2.110000e+00
   P3h  TX3r  1 3.950000e-01    2.110000e+00
   P3r  TX3h  1 3.950000e-01    2.110000e+00
   P3h  TX2r  1 3.950000e-01    1.850000e+00
   P3r  TX2h  1 3.950000e-01    1.850000e+00
   P3h  TX1r  1 3.950000e-01    1.670000e+00
   P3r  TX1h  1 3.950000e-01    1.670000e+00
   P3h TC6vr  1 3.950000e-01    2.310000e+00
   P3r TC6vh  1 3.950000e-01    2.310000e+00
   P3h TC5vr  1 3.950000e-01    2.110000e+00
   P3r TC5vh  1 3.950000e-01    2.110000e+00
   P3h TC4vr  1 3.950000e-01    1.850000e+00
   P3r TC4vh  1 3.950000e-01    1.850000e+00
   P3h TC3vr  1 3.980000e-01    1.450000e+00
   P3r TC3vh  1 3.980000e-01    1.450000e+00
   P3h TC2vr  1 3.980000e-01    1.450000e+00
   P3r TC2vh  1 3.980000e-01    1.450000e+00
   P3h TC1vr  1 3.990000e-01    1.180000e+00
   P3r TC1vh  1 3.990000e-01    1.180000e+00
   P3h TX4vr  1 3.950000e-01    2.310000e+00
   P3r TX4vh  1 3.950000e-01    2.310000e+00
   P3h TX3vr  1 3.950000e-01    2.310000e+00
   P3r TX3vh  1 3.950000e-01    2.310000e+00
   P3h TX2vr  1 3.950000e-01    2.110000e+00
   P3r TX2vh  1 3.950000e-01    2.110000e+00
   P3h TX1vr  1 3.950000e-01    1.850000e+00
   P3r TX1vh  1 3.950000e-01    1.850000e+00
   P3h TC6er  1 3.950000e-01    2.310000e+00
   P3r TC6eh  1 3.950000e-01    2.310000e+00
   P3h TC5er  1 3.950000e-01    2.110000e+00
   P3r TC5eh  1 3.950000e-01    2.110000e+00
   P3h TC4er  1 3.950000e-01    1.850000e+00
   P3r TC4eh  1 3.950000e-01    1.850000e+00
   P3h TC3er  1 3.980000e-01    1.450000e+00
   P3r TC3eh  1 3.980000e-01    1.450000e+00
   P3h TC2er  1 3.980000e-01    1.450000e+00
   P3r TC2eh  1 3.980000e-01    1.450000e+00
   P3h TC1er  1 3.990000e-01    1.180000e+00
   P3r TC1eh  1 3.990000e-01    1.180000e+00
   P3h TX4er  1 3.950000e-01    2.310000e+00
   P3r TX4eh  1 3.950000e-01    2.310000e+00
   P3h TX3er  1 3.950000e-01    2.310000e+00
   P3r TX3eh  1 3.950000e-01    2.310000e+00
   P3h TX2er  1 3.950000e-01    2.110000e+00
   P3r TX2eh  1 3.950000e-01    2.110000e+00
   P3h TX1er  1 3.950000e-01    1.850000e+00
   P3r TX1eh  1 3.950000e-01    1.850000e+00
   P2h  TC6r  1 3.950000e-01    2.110000e+00
   P2r  TC6h  1 3.950000e-01    2.110000e+00
   P2h  TC5r  1 3.950000e-01    1.850000e+00
   P2r  TC5h  1 3.950000e-01    1.850000e+00
   P2h  TC4r  1 3.950000e-01    1.670000e+00
   P2r  TC4h  1 3.950000e-01    1.670000e+00
   P2h  TC3r  1 3.980000e-01    1.450000e+00
   P2r  TC3h  1 3.980000e-01    1.450000e+00
   P2h  TC2r  1 3.980000e-01    1.450000e+00
   P2r  TC2h  1 3.980000e-01    1.450000e+00
   P2h  TC1r  1 3.990000e-01    1.180000e+00
   P2r  TC1h  1 3.990000e-01    1.180000e+00
   P2h  TX4r  1 3.950000e-01    2.110000e+00
   P2r  TX4h  1 3.950000e-01    2.110000e+00
   P2h  TX3r  1 3.950000e-01    2.110000e+00
   P2r  TX3h  1 3.950000e-01    2.110000e+00
   P2h  TX2r  1 3.950000e-01    1.850000e+00
   P2r  TX2h  1 3.950000e-01    1.850000e+00
   P2h  TX1r  1 3.950000e-01    1.670000e+00
   P2r  TX1h  1 3.950000e-01    1.670000e+00
   P2h TC6vr  1 3.950000e-01    2.310000e+00
   P2r TC6vh  1 3.950000e-01    2.310000e+00
   P2h TC5vr  1 3.950000e-01    2.110000e+00
   P2r TC5vh  1 3.950000e-01    2.110000e+00
   P2h TC4vr  1 3.950000e-01    1.850000e+00
   P2r TC4vh  1 3.950000e-01    1.850000e+00
   P2h TC3vr  1 3.950000e-01    1.670000e+00
   P2r TC3vh  1 3.950000e-01    1.670000e+00
   P2h TC2vr  1 3.950000e-01    1.670000e+00
   P2r TC2vh  1 3.950000e-01    1.670000e+00
   P2h TC1vr  1 3.980000e-01    1.450000e+00
   P2r TC1vh  1 3.980000e-01    1.450000e+00
   P2h TX4vr  1 3.950000e-01    2.310000e+00
   P2r TX4vh  1 3.950000e-01    2.310000e+00
   P2h TX3vr  1 3.950000e-01    2.310000e+00
   P2r TX3vh  1 3.950000e-01    2.310000e+00
   P2h TX2vr  1 3.950000e-01    2.110000e+00
   P2r TX2vh  1 3.950000e-01    2.110000e+00
   P2h TX1vr  1 3.950000e-01    1.850000e+00
   P2r TX1vh  1 3.950000e-01    1.850000e+00
   P2h TC6er  1 3.950000e-01    2.310000e+00
   P2r TC6eh  1 3.950000e-01    2.310000e+00
   P2h TC5er  1 3.950000e-01    2.110000e+00
   P2r TC5eh  1 3.950000e-01    2.110000e+00
   P2h TC4er  1 3.950000e-01    1.850000e+00
   P2r TC4eh  1 3.950000e-01    1.850000e+00
   P2h TC3er  1 3.950000e-01    1.670000e+00
   P2r TC3eh  1 3.950000e-01    1.670000e+00
   P2h TC2er  1 3.950000e-01    1.670000e+00
   P2r TC2eh  1 3.950000e-01    1.670000e+00
   P2h TC1er  1 3.980000e-01    1.450000e+00
   P2r TC1eh  1 3.980000e-01    1.450000e+00
   P2h TX4er  1 3.950000e-01    2.310000e+00
   P2r TX4eh  1 3.950000e-01    2.310000e+00
   P2h TX3er  1 3.950000e-01    2.310000e+00
   P2r TX3eh  1 3.950000e-01    2.310000e+00
   P2h TX2er  1 3.950000e-01    2.110000e+00
   P2r TX2eh  1 3.950000e-01    2.110000e+00
   P2h TX1er  1 3.950000e-01    1.850000e+00
   P2r TX1eh  1 3.950000e-01    1.850000e+00
   P1h  TC6r  1 3.950000e-01    2.110000e+00
   P1r  TC6h  1 3.950000e-01    2.110000e+00
   P1h  TC5r  1 3.950000e-01    1.850000e+00
   P1r  TC5h  1 3.950000e-01    1.850000e+00
   P1h  TC4r  1 3.950000e-01    1.670000e+00
   P1r  TC4h  1 3.950000e-01    1.670000e+00
   P1h  TC3r  1 3.980000e-01    1.450000e+00
   P1r  TC3h  1 3.980000e-01    1.450000e+00
   P1h  TC2r  1 3.980000e-01    1.450000e+00
   P1r  TC2h  1 3.980000e-01    1.450000e+00
   P1h  TC1r  1 3.990000e-01    1.180000e+00
   P1r  TC1h  1 3.990000e-01    1.180000e+00
   P1h  TX4r  1 3.950000e-01    2.110000e+00
   P1r  TX4h  1 3.950000e-01    2.110000e+00
   P1h  TX3r  1 3.950000e-01    2.110000e+00
   P1r  TX3h  1 3.950000e-01    2.110000e+00
   P1h  TX2r  1 3.950000e-01    1.850000e+00
   P1r  TX2h  1 3.950000e-01    1.850000e+00
   P1h  TX1r  1 3.950000e-01    1.670000e+00
   P1r  TX1h  1 3.950000e-01    1.670000e+00
   P1h TC6vr  1 3.950000e-01    2.310000e+00
   P1r TC6vh  1 3.950000e-01    2.310000e+00
   P1h TC5vr  1 3.950000e-01    2.110000e+00
   P1r TC5vh  1 3.950000e-01    2.110000e+00
   P1h TC4vr  1 3.950000e-01    1.850000e+00
   P1r TC4vh  1 3.950000e-01    1.850000e+00
   P1h TC3vr  1 3.950000e-01    1.670000e+00
   P1r TC3vh  1 3.950000e-01    1.670000e+00
   P1h TC2vr  1 3.950000e-01    1.670000e+00
   P1r TC2vh  1 3.950000e-01    1.670000e+00
   P1h TC1vr  1 3.980000e-01    1.450000e+00
   P1r TC1vh  1 3.980000e-01    1.450000e+00
   P1h TX4vr  1 3.950000e-01    2.310000e+00
   P1r TX4vh  1 3.950000e-01    2.310000e+00
   P1h TX3vr  1 3.950000e-01    2.310000e+00
   P1r TX3vh  1 3.950000e-01    2.310000e+00
   P1h TX2vr  1 3.950000e-01    2.110000e+00
   P1r TX2vh  1 3.950000e-01    2.110000e+00
   P1h TX1vr  1 3.950000e-01    1.850000e+00
   P1r TX1vh  1 3.950000e-01    1.850000e+00
   P1h TC6er  1 3.950000e-01    2.310000e+00
   P1r TC6eh  1 3.950000e-01    2.310000e+00
   P1h TC5er  1 3.950000e-01    2.110000e+00
   P1r TC5eh  1 3.950000e-01    2.110000e+00
   P1h TC4er  1 3.950000e-01    1.850000e+00
   P1r TC4eh  1 3.950000e-01    1.850000e+00
   P1h TC3er  1 3.950000e-01    1.670000e+00
   P1r TC3eh  1 3.950000e-01    1.670000e+00
   P1h TC2er  1 3.950000e-01    1.670000e+00
   P1r TC2eh  1 3.950000e-01    1.670000e+00
   P1h TC1er  1 3.980000e-01    1.450000e+00
   P1r TC1eh  1 3.980000e-01    1.450000e+00
   P1h TX4er  1 3.950000e-01    2.310000e+00
   P1r TX4eh  1 3.950000e-01    2.310000e+00
   P1h TX3er  1 3.950000e-01    2.310000e+00
   P1r TX3eh  1 3.950000e-01    2.310000e+00
   P1h TX2er  1 3.950000e-01    2.110000e+00
   P1r TX2eh  1 3.950000e-01    2.110000e+00
   P1h TX1er  1 3.950000e-01    1.850000e+00
   P1r TX1eh  1 3.950000e-01    1.850000e+00
   N6h  TC6r  1 3.950000e-01    2.310000e+00
   N6r  TC6h  1 3.950000e-01    2.310000e+00
   N6h  TC5r  1 3.950000e-01    2.110000e+00
   N6r  TC5h  1 3.950000e-01    2.110000e+00
   N6h  TC4r  1 3.950000e-01    1.850000e+00
   N6r  TC4h  1 3.950000e-01    1.850000e+00
   N6h  TC3r  1 3.950000e-01    1.670000e+00
   N6r  TC3h  1 3.950000e-01    1.670000e+00
   N6h  TC2r  1 3.950000e-01    1.670000e+00
   N6r  TC2h  1 3.950000e-01    1.670000e+00
   N6h  TC1r  1 3.980000e-01    1.450000e+00
   N6r  TC1h  1 3.980000e-01    1.450000e+00
   N6h  TX4r  1 3.950000e-01    2.310000e+00
   N6r  TX4h  1 3.950000e-01    2.310000e+00
   N6h  TX3r  1 3.950000e-01    2.110000e+00
   N6r  TX3h  1 3.950000e-01    2.110000e+00
   N6h  TX2r  1 3.950000e-01    1.850000e+00
   N6r  TX2h  1 3.950000e-01    1.850000e+00
   N6h  TX1r  1 3.950000e-01    1.670000e+00
   N6r  TX1h  1 3.950000e-01    1.670000e+00
   N6h TC6vr  1 3.950000e-01    2.500000e+00
   N6r TC6vh  1 3.950000e-01    2.500000e+00
   N6h TC5vr  1 3.950000e-01    2.310000e+00
   N6r TC5vh  1 3.950000e-01    2.310000e+00
   N6h TC4vr  1 3.950000e-01    2.110000e+00
   N6r TC4vh  1 3.950000e-01    2.110000e+00
   N6h TC3vr  1 3.950000e-01    1.850000e+00
   N6r TC3vh  1 3.950000e-01    1.850000e+00
   N6h TC2vr  1 3.950000e-01    1.850000e+00
   N6r TC2vh  1 3.950000e-01    1.850000e+00
   N6h TC1vr  1 3.950000e-01    1.670000e+00
   N6r TC1vh  1 3.950000e-01    1.670000e+00
   N6h TX4vr  1 3.950000e-01    2.500000e+00
   N6r TX4vh  1 3.950000e-01    2.500000e+00
   N6h TX3vr  1 3.950000e-01    2.310000e+00
   N6r TX3vh  1 3.950000e-01    2.310000e+00
   N6h TX2vr  1 3.950000e-01    2.110000e+00
   N6r TX2vh  1 3.950000e-01    2.110000e+00
   N6h TX1vr  1 3.950000e-01    1.850000e+00
   N6r TX1vh  1 3.950000e-01    1.850000e+00
   N6h TC6er  1 3.950000e-01    2.500000e+00
   N6r TC6eh  1 3.950000e-01    2.500000e+00
   N6h TC5er  1 3.950000e-01    2.310000e+00
   N6r TC5eh  1 3.950000e-01    2.310000e+00
   N6h TC4er  1 3.950000e-01    2.110000e+00
   N6r TC4eh  1 3.950000e-01    2.110000e+00
   N6h TC3er  1 3.950000e-01    1.850000e+00
   N6r TC3eh  1 3.950000e-01    1.850000e+00
   N6h TC2er  1 3.950000e-01    1.850000e+00
   N6r TC2eh  1 3.950000e-01    1.850000e+00
   N6h TC1er  1 3.950000e-01    1.670000e+00
   N6r TC1eh  1 3.950000e-01    1.670000e+00
   N6h TX4er  1 3.950000e-01    2.500000e+00
   N6r TX4eh  1 3.950000e-01    2.500000e+00
   N6h TX3er  1 3.950000e-01    2.310000e+00
   N6r TX3eh  1 3.950000e-01    2.310000e+00
   N6h TX2er  1 3.950000e-01    2.110000e+00
   N6r TX2eh  1 3.950000e-01    2.110000e+00
   N6h TX1er  1 3.950000e-01    1.850000e+00
   N6r TX1eh  1 3.950000e-01    1.850000e+00
   N5h  TC6r  1 3.950000e-01    2.310000e+00
   N5r  TC6h  1 3.950000e-01    2.310000e+00
   N5h  TC5r  1 3.950000e-01    2.110000e+00
   N5r  TC5h  1 3.950000e-01    2.110000e+00
   N5h  TC4r  1 3.950000e-01    1.850000e+00
   N5r  TC4h  1 3.950000e-01    1.850000e+00
   N5h  TC3r  1 3.950000e-01    1.850000e+00
   N5r  TC3h  1 3.950000e-01    1.850000e+00
   N5h  TC2r  1 3.950000e-01    1.670000e+00
   N5r  TC2h  1 3.950000e-01    1.670000e+00
   N5h  TC1r  1 3.980000e-01    1.450000e+00
   N5r  TC1h  1 3.980000e-01    1.450000e+00
   N5h  TX4r  1 3.950000e-01    2.500000e+00
   N5r  TX4h  1 3.950000e-01    2.500000e+00
   N5h  TX3r  1 3.950000e-01    2.310000e+00
   N5r  TX3h  1 3.950000e-01    2.310000e+00
   N5h  TX2r  1 3.950000e-01    2.110000e+00
   N5r  TX2h  1 3.950000e-01    2.110000e+00
   N5h  TX1r  1 3.950000e-01    1.850000e+00
   N5r  TX1h  1 3.950000e-01    1.850000e+00
   N5h TC6vr  1 3.950000e-01    2.500000e+00
   N5r TC6vh  1 3.950000e-01    2.500000e+00
   N5h TC5vr  1 3.950000e-01    2.310000e+00
   N5r TC5vh  1 3.950000e-01    2.310000e+00
   N5h TC4vr  1 3.950000e-01    2.110000e+00
   N5r TC4vh  1 3.950000e-01    2.110000e+00
   N5h TC3vr  1 3.950000e-01    2.110000e+00
   N5r TC3vh  1 3.950000e-01    2.110000e+00
   N5h TC2vr  1 3.950000e-01    1.850000e+00
   N5r TC2vh  1 3.950000e-01    1.850000e+00
   N5h TC1vr  1 3.950000e-01    1.670000e+00
   N5r TC1vh  1 3.950000e-01    1.670000e+00
   N5h TX4vr  1 3.950000e-01    2.700000e+00
   N5r TX4vh  1 3.950000e-01    2.700000e+00
   N5h TX3vr  1 3.950000e-01    2.500000e+00
   N5r TX3vh  1 3.950000e-01    2.500000e+00
   N5h TX2vr  1 3.950000e-01    2.310000e+00
   N5r TX2vh  1 3.950000e-01    2.310000e+00
   N5h TX1vr  1 3.950000e-01    2.110000e+00
   N5r TX1vh  1 3.950000e-01    2.110000e+00
   N5h TC6er  1 3.950000e-01    2.500000e+00
   N5r TC6eh  1 3.950000e-01    2.500000e+00
   N5h TC5er  1 3.950000e-01    2.310000e+00
   N5r TC5eh  1 3.950000e-01    2.310000e+00
   N5h TC4er  1 3.950000e-01    2.110000e+00
   N5r TC4eh  1 3.950000e-01    2.110000e+00
   N5h TC3er  1 3.950000e-01    2.110000e+00
   N5r TC3eh  1 3.950000e-01    2.110000e+00
   N5h TC2er  1 3.950000e-01    1.850000e+00
   N5r TC2eh  1 3.950000e-01    1.850000e+00
   N5h TC1er  1 3.950000e-01    1.670000e+00
   N5r TC1eh  1 3.950000e-01    1.670000e+00
   N5h TX4er  1 3.950000e-01    2.700000e+00
   N5r TX4eh  1 3.950000e-01    2.700000e+00
   N5h TX3er  1 3.950000e-01    2.500000e+00
   N5r TX3eh  1 3.950000e-01    2.500000e+00
   N5h TX2er  1 3.950000e-01    2.310000e+00
   N5r TX2eh  1 3.950000e-01    2.310000e+00
   N5h TX1er  1 3.950000e-01    2.110000e+00
   N5r TX1eh  1 3.950000e-01    2.110000e+00
   N4h  TC6r  1 3.950000e-01    2.310000e+00
   N4r  TC6h  1 3.950000e-01    2.310000e+00
   N4h  TC5r  1 3.950000e-01    2.110000e+00
   N4r  TC5h  1 3.950000e-01    2.110000e+00
   N4h  TC4r  1 3.950000e-01    2.110000e+00
   N4r  TC4h  1 3.950000e-01    2.110000e+00
   N4h  TC3r  1 3.950000e-01    1.850000e+00
   N4r  TC3h  1 3.950000e-01    1.850000e+00
   N4h  TC2r  1 3.950000e-01    1.670000e+00
   N4r  TC2h  1 3.950000e-01    1.670000e+00
   N4h  TC1r  1 3.980000e-01    1.450000e+00
   N4r  TC1h  1 3.980000e-01    1.450000e+00
   N4h  TX4r  1 3.950000e-01    2.700000e+00
   N4r  TX4h  1 3.950000e-01    2.700000e+00
   N4h  TX3r  1 3.950000e-01    2.500000e+00
   N4r  TX3h  1 3.950000e-01    2.500000e+00
   N4h  TX2r  1 3.950000e-01    2.110000e+00
   N4r  TX2h  1 3.950000e-01    2.110000e+00
   N4h  TX1r  1 3.950000e-01    1.850000e+00
   N4r  TX1h  1 3.950000e-01    1.850000e+00
   N4h TC6vr  1 3.950000e-01    2.500000e+00
   N4r TC6vh  1 3.950000e-01    2.500000e+00
   N4h TC5vr  1 3.950000e-01    2.310000e+00
   N4r TC5vh  1 3.950000e-01    2.310000e+00
   N4h TC4vr  1 3.950000e-01    2.310000e+00
   N4r TC4vh  1 3.950000e-01    2.310000e+00
   N4h TC3vr  1 3.950000e-01    2.110000e+00
   N4r TC3vh  1 3.950000e-01    2.110000e+00
   N4h TC2vr  1 3.950000e-01    1.850000e+00
   N4r TC2vh  1 3.950000e-01    1.850000e+00
   N4h TC1vr  1 3.950000e-01    1.670000e+00
   N4r TC1vh  1 3.950000e-01    1.670000e+00
   N4h TX4vr  1 3.950000e-01    2.940000e+00
   N4r TX4vh  1 3.950000e-01    2.940000e+00
   N4h TX3vr  1 3.950000e-01    2.700000e+00
   N4r TX3vh  1 3.950000e-01    2.700000e+00
   N4h TX2vr  1 3.950000e-01    2.310000e+00
   N4r TX2vh  1 3.950000e-01    2.310000e+00
   N4h TX1vr  1 3.950000e-01    2.110000e+00
   N4r TX1vh  1 3.950000e-01    2.110000e+00
   N4h TC6er  1 3.950000e-01    2.500000e+00
   N4r TC6eh  1 3.950000e-01    2.500000e+00
   N4h TC5er  1 3.950000e-01    2.310000e+00
   N4r TC5eh  1 3.950000e-01    2.310000e+00
   N4h TC4er  1 3.950000e-01    2.310000e+00
   N4r TC4eh  1 3.950000e-01    2.310000e+00
   N4h TC3er  1 3.950000e-01    2.110000e+00
   N4r TC3eh  1 3.950000e-01    2.110000e+00
   N4h TC2er  1 3.950000e-01    1.850000e+00
   N4r TC2eh  1 3.950000e-01    1.850000e+00
   N4h TC1er  1 3.950000e-01    1.670000e+00
   N4r TC1eh  1 3.950000e-01    1.670000e+00
   N4h TX4er  1 3.950000e-01    2.940000e+00
   N4r TX4eh  1 3.950000e-01    2.940000e+00
   N4h TX3er  1 3.950000e-01    2.700000e+00
   N4r TX3eh  1 3.950000e-01    2.700000e+00
   N4h TX2er  1 3.950000e-01    2.310000e+00
   N4r TX2eh  1 3.950000e-01    2.310000e+00
   N4h TX1er  1 3.950000e-01    2.110000e+00
   N4r TX1eh  1 3.950000e-01    2.110000e+00
   N3h  TC6r  1 3.950000e-01    2.310000e+00
   N3r  TC6h  1 3.950000e-01    2.310000e+00
   N3h  TC5r  1 3.950000e-01    2.110000e+00
   N3r  TC5h  1 3.950000e-01    2.110000e+00
   N3h  TC4r  1 3.950000e-01    2.110000e+00
   N3r  TC4h  1 3.950000e-01    2.110000e+00
   N3h  TC3r  1 3.950000e-01    1.850000e+00
   N3r  TC3h  1 3.950000e-01    1.850000e+00
   N3h  TC2r  1 3.950000e-01    1.850000e+00
   N3r  TC2h  1 3.950000e-01    1.850000e+00
   N3h  TC1r  1 3.950000e-01    1.670000e+00
   N3r  TC1h  1 3.950000e-01    1.670000e+00
   N3h  TX4r  1 3.950000e-01    2.500000e+00
   N3r  TX4h  1 3.950000e-01    2.500000e+00
   N3h  TX3r  1 3.950000e-01    2.310000e+00
   N3r  TX3h  1 3.950000e-01    2.310000e+00
   N3h  TX2r  1 3.950000e-01    2.110000e+00
   N3r  TX2h  1 3.950000e-01    2.110000e+00
   N3h  TX1r  1 3.950000e-01    2.110000e+00
   N3r  TX1h  1 3.950000e-01    2.110000e+00
   N3h TC6vr  1 3.950000e-01    2.500000e+00
   N3r TC6vh  1 3.950000e-01    2.500000e+00
   N3h TC5vr  1 3.950000e-01    2.310000e+00
   N3r TC5vh  1 3.950000e-01    2.310000e+00
   N3h TC4vr  1 3.950000e-01    2.310000e+00
   N3r TC4vh  1 3.950000e-01    2.310000e+00
   N3h TC3vr  1 3.950000e-01    2.110000e+00
   N3r TC3vh  1 3.950000e-01    2.110000e+00
   N3h TC2vr  1 3.950000e-01    2.110000e+00
   N3r TC2vh  1 3.950000e-01    2.110000e+00
   N3h TC1vr  1 3.950000e-01    1.850000e+00
   N3r TC1vh  1 3.950000e-01    1.850000e+00
   N3h TX4vr  1 3.950000e-01    2.700000e+00
   N3r TX4vh  1 3.950000e-01    2.700000e+00
   N3h TX3vr  1 3.950000e-01    2.500000e+00
   N3r TX3vh  1 3.950000e-01    2.500000e+00
   N3h TX2vr  1 3.950000e-01    2.310000e+00
   N3r TX2vh  1 3.950000e-01    2.310000e+00
   N3h TX1vr  1 3.950000e-01    2.310000e+00
   N3r TX1vh  1 3.950000e-01    2.310000e+00
   N3h TC6er  1 3.950000e-01    2.500000e+00
   N3r TC6eh  1 3.950000e-01    2.500000e+00
   N3h TC5er  1 3.950000e-01    2.310000e+00
   N3r TC5eh  1 3.950000e-01    2.310000e+00
   N3h TC4er  1 3.950000e-01    2.310000e+00
   N3r TC4eh  1 3.950000e-01    2.310000e+00
   N3h TC3er  1 3.950000e-01    2.110000e+00
   N3r TC3eh  1 3.950000e-01    2.110000e+00
   N3h TC2er  1 3.950000e-01    2.110000e+00
   N3r TC2eh  1 3.950000e-01    2.110000e+00
   N3h TC1er  1 3.950000e-01    1.850000e+00
   N3r TC1eh  1 3.950000e-01    1.850000e+00
   N3h TX4er  1 3.950000e-01    2.700000e+00
   N3r TX4eh  1 3.950000e-01    2.700000e+00
   N3h TX3er  1 3.950000e-01    2.500000e+00
   N3r TX3eh  1 3.950000e-01    2.500000e+00
   N3h TX2er  1 3.950000e-01    2.310000e+00
   N3r TX2eh  1 3.950000e-01    2.310000e+00
   N3h TX1er  1 3.950000e-01    2.310000e+00
   N3r TX1eh  1 3.950000e-01    2.310000e+00
   N2h  TC6r  1 3.950000e-01    2.310000e+00
   N2r  TC6h  1 3.950000e-01    2.310000e+00
   N2h  TC5r  1 3.950000e-01    2.110000e+00
   N2r  TC5h  1 3.950000e-01    2.110000e+00
   N2h  TC4r  1 3.950000e-01    2.110000e+00
   N2r  TC4h  1 3.950000e-01    2.110000e+00
   N2h  TC3r  1 3.950000e-01    2.110000e+00
   N2r  TC3h  1 3.950000e-01    2.110000e+00
   N2h  TC2r  1 3.950000e-01    1.850000e+00
   N2r  TC2h  1 3.950000e-01    1.850000e+00
   N2h  TC1r  1 3.950000e-01    1.670000e+00
   N2r  TC1h  1 3.950000e-01    1.670000e+00
   N2h  TX4r  1 3.950000e-01    2.500000e+00
   N2r  TX4h  1 3.950000e-01    2.500000e+00
   N2h  TX3r  1 3.950000e-01    2.310000e+00
   N2r  TX3h  1 3.950000e-01    2.310000e+00
   N2h  TX2r  1 3.950000e-01    2.110000e+00
   N2r  TX2h  1 3.950000e-01    2.110000e+00
   N2h  TX1r  1 3.950000e-01    2.110000e+00
   N2r  TX1h  1 3.950000e-01    2.110000e+00
   N2h TC6vr  1 3.950000e-01    2.500000e+00
   N2r TC6vh  1 3.950000e-01    2.500000e+00
   N2h TC5vr  1 3.950000e-01    2.310000e+00
   N2r TC5vh  1 3.950000e-01    2.310000e+00
   N2h TC4vr  1 3.950000e-01    2.310000e+00
   N2r TC4vh  1 3.950000e-01    2.310000e+00
   N2h TC3vr  1 3.950000e-01    2.310000e+00
   N2r TC3vh  1 3.950000e-01    2.310000e+00
   N2h TC2vr  1 3.950000e-01    2.110000e+00
   N2r TC2vh  1 3.950000e-01    2.110000e+00
   N2h TC1vr  1 3.950000e-01    1.850000e+00
   N2r TC1vh  1 3.950000e-01    1.850000e+00
   N2h TX4vr  1 3.950000e-01    2.700000e+00
   N2r TX4vh  1 3.950000e-01    2.700000e+00
   N2h TX3vr  1 3.950000e-01    2.500000e+00
   N2r TX3vh  1 3.950000e-01    2.500000e+00
   N2h TX2vr  1 3.950000e-01    2.310000e+00
   N2r TX2vh  1 3.950000e-01    2.310000e+00
   N2h TX1vr  1 3.950000e-01    2.310000e+00
   N2r TX1vh  1 3.950000e-01    2.310000e+00
   N2h TC6er  1 3.950000e-01    2.500000e+00
   N2r TC6eh  1 3.950000e-01    2.500000e+00
   N2h TC5er  1 3.950000e-01    2.310000e+00
   N2r TC5eh  1 3.950000e-01    2.310000e+00
   N2h TC4er  1 3.950000e-01    2.310000e+00
   N2r TC4eh  1 3.950000e-01    2.310000e+00
   N2h TC3er  1 3.950000e-01    2.310000e+00
   N2r TC3eh  1 3.950000e-01    2.310000e+00
   N2h TC2er  1 3.950000e-01    2.110000e+00
   N2r TC2eh  1 3.950000e-01    2.110000e+00
   N2h TC1er  1 3.950000e-01    1.850000e+00
   N2r TC1eh  1 3.950000e-01    1.850000e+00
   N2h TX4er  1 3.950000e-01    2.700000e+00
   N2r TX4eh  1 3.950000e-01    2.700000e+00
   N2h TX3er  1 3.950000e-01    2.500000e+00
   N2r TX3eh  1 3.950000e-01    2.500000e+00
   N2h TX2er  1 3.950000e-01    2.310000e+00
   N2r TX2eh  1 3.950000e-01    2.310000e+00
   N2h TX1er  1 3.950000e-01    2.310000e+00
   N2r TX1eh  1 3.950000e-01    2.310000e+00
   N1h  TC6r  1 3.950000e-01    2.500000e+00
   N1r  TC6h  1 3.950000e-01    2.500000e+00
   N1h  TC5r  1 3.950000e-01    2.310000e+00
   N1r  TC5h  1 3.950000e-01    2.310000e+00
   N1h  TC4r  1 3.950000e-01    2.310000e+00
   N1r  TC4h  1 3.950000e-01    2.310000e+00
   N1h  TC3r  1 3.950000e-01    2.110000e+00
   N1r  TC3h  1 3.950000e-01    2.110000e+00
   N1h  TC2r  1 3.950000e-01    1.850000e+00
   N1r  TC2h  1 3.950000e-01    1.850000e+00
   N1h  TC1r  1 3.950000e-01    1.670000e+00
   N1r  TC1h  1 3.950000e-01    1.670000e+00
   N1h  TX4r  1 3.950000e-01    2.310000e+00
   N1r  TX4h  1 3.950000e-01    2.310000e+00
   N1h  TX3r  1 3.950000e-01    2.310000e+00
   N1r  TX3h  1 3.950000e-01    2.310000e+00
   N1h  TX2r  1 3.950000e-01    2.110000e+00
   N1r  TX2h  1 3.950000e-01    2.110000e+00
   N1h  TX1r  1 3.950000e-01    2.110000e+00
   N1r  TX1h  1 3.950000e-01    2.110000e+00
   N1h TC6vr  1 3.950000e-01    2.700000e+00
   N1r TC6vh  1 3.950000e-01    2.700000e+00
   N1h TC5vr  1 3.950000e-01    2.500000e+00
   N1r TC5vh  1 3.950000e-01    2.500000e+00
   N1h TC4vr  1 3.950000e-01    2.500000e+00
   N1r TC4vh  1 3.950000e-01    2.500000e+00
   N1h TC3vr  1 3.950000e-01    2.310000e+00
   N1r TC3vh  1 3.950000e-01    2.310000e+00
   N1h TC2vr  1 3.950000e-01    2.110000e+00
   N1r TC2vh  1 3.950000e-01    2.110000e+00
   N1h TC1vr  1 3.950000e-01    1.850000e+00
   N1r TC1vh  1 3.950000e-01    1.850000e+00
   N1h TX4vr  1 3.950000e-01    2.500000e+00
   N1r TX4vh  1 3.950000e-01    2.500000e+00
   N1h TX3vr  1 3.950000e-01    2.500000e+00
   N1r TX3vh  1 3.950000e-01    2.500000e+00
   N1h TX2vr  1 3.950000e-01    2.310000e+00
   N1r TX2vh  1 3.950000e-01    2.310000e+00
   N1h TX1vr  1 3.950000e-01    2.310000e+00
   N1r TX1vh  1 3.950000e-01    2.310000e+00
   N1h TC6er  1 3.950000e-01    2.700000e+00
   N1r TC6eh  1 3.950000e-01    2.700000e+00
   N1h TC5er  1 3.950000e-01    2.500000e+00
   N1r TC5eh  1 3.950000e-01    2.500000e+00
   N1h TC4er  1 3.950000e-01    2.500000e+00
   N1r TC4eh  1 3.950000e-01    2.500000e+00
   N1h TC3er  1 3.950000e-01    2.310000e+00
   N1r TC3eh  1 3.950000e-01    2.310000e+00
   N1h TC2er  1 3.950000e-01    2.110000e+00
   N1r TC2eh  1 3.950000e-01    2.110000e+00
   N1h TC1er  1 3.950000e-01    1.850000e+00
   N1r TC1eh  1 3.950000e-01    1.850000e+00
   N1h TX4er  1 3.950000e-01    2.500000e+00
   N1r TX4eh  1 3.950000e-01    2.500000e+00
   N1h TX3er  1 3.950000e-01    2.500000e+00
   N1r TX3eh  1 3.950000e-01    2.500000e+00
   N1h TX2er  1 3.950000e-01    2.310000e+00
   N1r TX2eh  1 3.950000e-01    2.310000e+00
   N1h TX1er  1 3.950000e-01    2.310000e+00
   N1r TX1eh  1 3.950000e-01    2.310000e+00
  P6dh  TC6r  1 3.950000e-01    1.670000e+00
  P6dr  TC6h  1 3.950000e-01    1.670000e+00
  P6dh  TC5r  1 3.980000e-01    1.450000e+00
  P6dr  TC5h  1 3.980000e-01    1.450000e+00
  P6dh  TC4r  1 3.990000e-01    1.180000e+00
  P6dr  TC4h  1 3.990000e-01    1.180000e+00
  P6dh  TC3r  1 4.010000e-01    9.830000e-01
  P6dr  TC3h  1 4.010000e-01    9.830000e-01
  P6dh  TC2r  1 4.010000e-01    9.830000e-01
  P6dr  TC2h  1 4.010000e-01    9.830000e-01
  P6dh  TC1r  1 4.650000e-01    7.030000e-01
  P6dr  TC1h  1 4.650000e-01    7.030000e-01
  P6dh  TX4r  1 3.950000e-01    1.850000e+00
  P6dr  TX4h  1 3.950000e-01    1.850000e+00
  P6dh  TX3r  1 3.950000e-01    1.850000e+00
  P6dr  TX3h  1 3.950000e-01    1.850000e+00
  P6dh  TX2r  1 3.950000e-01    1.670000e+00
  P6dr  TX2h  1 3.950000e-01    1.670000e+00
  P6dh  TX1r  1 3.980000e-01    1.450000e+00
  P6dr  TX1h  1 3.980000e-01    1.450000e+00
  P6dh TC6vr  1 3.980000e-01    1.450000e+00
  P6dr TC6vh  1 3.980000e-01    1.450000e+00
  P6dh TC5vr  1 3.990000e-01    1.180000e+00
  P6dr TC5vh  1 3.990000e-01    1.180000e+00
  P6dh TC4vr  1 4.010000e-01    9.830000e-01
  P6dr TC4vh  1 4.010000e-01    9.830000e-01
  P6dh TC3vr  1 4.040000e-01    8.300000e-01
  P6dr TC3vh  1 4.040000e-01    8.300000e-01
  P6dh TC2vr  1 4.040000e-01    8.300000e-01
  P6dr TC2vh  1 4.040000e-01    8.300000e-01
  P6dh TC1vr  1 5.110000e-01    6.590000e-01
  P6dr TC1vh  1 5.110000e-01    6.590000e-01
  P6dh TX4vr  1 3.950000e-01    1.670000e+00
  P6dr TX4vh  1 3.950000e-01    1.670000e+00
  P6dh TX3vr  1 3.950000e-01    1.670000e+00
  P6dr TX3vh  1 3.950000e-01    1.670000e+00
  P6dh TX2vr  1 3.980000e-01    1.450000e+00
  P6dr TX2vh  1 3.980000e-01    1.450000e+00
  P6dh TX1vr  1 3.990000e-01    1.180000e+00
  P6dr TX1vh  1 3.990000e-01    1.180000e+00
  P6dh TC6er  1 3.950000e-01    1.850000e+00
  P6dr TC6eh  1 3.950000e-01    1.850000e+00
  P6dh TC5er  1 3.950000e-01    1.670000e+00
  P6dr TC5eh  1 3.950000e-01    1.670000e+00
  P6dh TC4er  1 3.980000e-01    1.450000e+00
  P6dr TC4eh  1 3.980000e-01    1.450000e+00
  P6dh TC3er  1 3.990000e-01    1.180000e+00
  P6dr TC3eh  1 3.990000e-01    1.180000e+00
  P6dh TC2er  1 3.990000e-01    1.180000e+00
  P6dr TC2eh  1 3.990000e-01    1.180000e+00
  P6dh TC1er  1 4.040000e-01    8.300000e-01
  P6dr TC1eh  1 4.040000e-01    8.300000e-01
  P6dh TX4er  1 3.950000e-01    2.110000e+00
  P6dr TX4eh  1 3.950000e-01    2.110000e+00
  P6dh TX3er  1 3.950000e-01    2.110000e+00
  P6dr TX3eh  1 3.950000e-01    2.110000e+00
  P6dh TX2er  1 3.950000e-01    1.850000e+00
  P6dr TX2eh  1 3.950000e-01    1.850000e+00
  P6dh TX1er  1 3.950000e-01    1.670000e+00
  P6dr TX1eh  1 3.950000e-01    1.670000e+00
  P5dh  TC6r  1 3.950000e-01    1.670000e+00
  P5dr  TC6h  1 3.950000e-01    1.670000e+00
  P5dh  TC5r  1 3.950000e-01    1.670000e+00
  P5dr  TC5h  1 3.950000e-01    1.670000e+00
  P5dh  TC4r  1 3.980000e-01    1.450000e+00
  P5dr  TC4h  1 3.980000e-01    1.450000e+00
  P5dh  TC3r  1 3.990000e-01    1.180000e+00
  P5dr  TC3h  1 3.990000e-01    1.180000e+00
  P5dh  TC2r  1 3.990000e-01    1.180000e+00
  P5dr  TC2h  1 3.990000e-01    1.180000e+00
  P5dh  TC1r  1 4.010000e-01    9.830000e-01
  P5dr  TC1h  1 4.010000e-01    9.830000e-01
  P5dh  TX4r  1 3.950000e-01    2.110000e+00
  P5dr  TX4h  1 3.950000e-01    2.110000e+00
  P5dh  TX3r  1 3.950000e-01    1.850000e+00
  P5dr  TX3h  1 3.950000e-01    1.850000e+00
  P5dh  TX2r  1 3.950000e-01    1.850000e+00
  P5dr  TX2h  1 3.950000e-01    1.850000e+00
  P5dh  TX1r  1 3.980000e-01    1.450000e+00
  P5dr  TX1h  1 3.980000e-01    1.450000e+00
  P5dh TC6vr  1 3.980000e-01    1.450000e+00
  P5dr TC6vh  1 3.980000e-01    1.450000e+00
  P5dh TC5vr  1 3.980000e-01    1.450000e+00
  P5dr TC5vh  1 3.980000e-01    1.450000e+00
  P5dh TC4vr  1 3.990000e-01    1.180000e+00
  P5dr TC4vh  1 3.990000e-01    1.180000e+00
  P5dh TC3vr  1 4.010000e-01    9.830000e-01
  P5dr TC3vh  1 4.010000e-01    9.830000e-01
  P5dh TC2vr  1 4.010000e-01    9.830000e-01
  P5dr TC2vh  1 4.010000e-01    9.830000e-01
  P5dh TC1vr  1 4.040000e-01    8.300000e-01
  P5dr TC1vh  1 4.040000e-01    8.300000e-01
  P5dh TX4vr  1 3.950000e-01    1.850000e+00
  P5dr TX4vh  1 3.950000e-01    1.850000e+00
  P5dh TX3vr  1 3.950000e-01    1.670000e+00
  P5dr TX3vh  1 3.950000e-01    1.670000e+00
  P5dh TX2vr  1 3.950000e-01    1.670000e+00
  P5dr TX2vh  1 3.950000e-01    1.670000e+00
  P5dh TX1vr  1 3.990000e-01    1.180000e+00
  P5dr TX1vh  1 3.990000e-01    1.180000e+00
  P5dh TC6er  1 3.950000e-01    1.850000e+00
  P5dr TC6eh  1 3.950000e-01    1.850000e+00
  P5dh TC5er  1 3.950000e-01    1.850000e+00
  P5dr TC5eh  1 3.950000e-01    1.850000e+00
  P5dh TC4er  1 3.950000e-01    1.670000e+00
  P5dr TC4eh  1 3.950000e-01    1.670000e+00
  P5dh TC3er  1 3.980000e-01    1.450000e+00
  P5dr TC3eh  1 3.980000e-01    1.450000e+00
  P5dh TC2er  1 3.980000e-01    1.450000e+00
  P5dr TC2eh  1 3.980000e-01    1.450000e+00
  P5dh TC1er  1 3.990000e-01    1.180000e+00
  P5dr TC1eh  1 3.990000e-01    1.180000e+00
  P5dh TX4er  1 3.950000e-01    2.310000e+00
  P5dr TX4eh  1 3.950000e-01    2.310000e+00
  P5dh TX3er  1 3.950000e-01    2.110000e+00
  P5dr TX3eh  1 3.950000e-01    2.110000e+00
  P5dh TX2er  1 3.950000e-01    2.110000e+00
  P5dr TX2eh  1 3.950000e-01    2.110000e+00
  P5dh TX1er  1 3.950000e-01    1.670000e+00
  P5dr TX1eh  1 3.950000e-01    1.670000e+00
  P4dh  TC6r  1 3.950000e-01    1.850000e+00
  P4dr  TC6h  1 3.950000e-01    1.850000e+00
  P4dh  TC5r  1 3.950000e-01    1.670000e+00
  P4dr  TC5h  1 3.950000e-01    1.670000e+00
  P4dh  TC4r  1 3.980000e-01    1.450000e+00
  P4dr  TC4h  1 3.980000e-01    1.450000e+00
  P4dh  TC3r  1 3.990000e-01    1.180000e+00
  P4dr  TC3h  1 3.990000e-01    1.180000e+00
  P4dh  TC2r  1 3.990000e-01    1.180000e+00
  P4dr  TC2h  1 3.990000e-01    1.180000e+00
  P4dh  TC1r  1 4.010000e-01    9.830000e-01
  P4dr  TC1h  1 4.010000e-01    9.830000e-01
  P4dh  TX4r  1 3.950000e-01    2.110000e+00
  P4dr  TX4h  1 3.950000e-01    2.110000e+00
  P4dh  TX3r  1 3.950000e-01    1.850000e+00
  P4dr  TX3h  1 3.950000e-01    1.850000e+00
  P4dh  TX2r  1 3.950000e-01    1.850000e+00
  P4dr  TX2h  1 3.950000e-01    1.850000e+00
  P4dh  TX1r  1 3.950000e-01    1.670000e+00
  P4dr  TX1h  1 3.950000e-01    1.670000e+00
  P4dh TC6vr  1 3.950000e-01    1.670000e+00
  P4dr TC6vh  1 3.950000e-01    1.670000e+00
  P4dh TC5vr  1 3.980000e-01    1.450000e+00
  P4dr TC5vh  1 3.980000e-01    1.450000e+00
  P4dh TC4vr  1 3.990000e-01    1.180000e+00
  P4dr TC4vh  1 3.990000e-01    1.180000e+00
  P4dh TC3vr  1 4.010000e-01    9.830000e-01
  P4dr TC3vh  1 4.010000e-01    9.830000e-01
  P4dh TC2vr  1 4.010000e-01    9.830000e-01
  P4dr TC2vh  1 4.010000e-01    9.830000e-01
  P4dh TC1vr  1 4.040000e-01    8.300000e-01
  P4dr TC1vh  1 4.040000e-01    8.300000e-01
  P4dh TX4vr  1 3.950000e-01    1.850000e+00
  P4dr TX4vh  1 3.950000e-01    1.850000e+00
  P4dh TX3vr  1 3.950000e-01    1.670000e+00
  P4dr TX3vh  1 3.950000e-01    1.670000e+00
  P4dh TX2vr  1 3.950000e-01    1.670000e+00
  P4dr TX2vh  1 3.950000e-01    1.670000e+00
  P4dh TX1vr  1 3.980000e-01    1.450000e+00
  P4dr TX1vh  1 3.980000e-01    1.450000e+00
  P4dh TC6er  1 3.950000e-01    2.110000e+00
  P4dr TC6eh  1 3.950000e-01    2.110000e+00
  P4dh TC5er  1 3.950000e-01    1.850000e+00
  P4dr TC5eh  1 3.950000e-01    1.850000e+00
  P4dh TC4er  1 3.950000e-01    1.670000e+00
  P4dr TC4eh  1 3.950000e-01    1.670000e+00
  P4dh TC3er  1 3.980000e-01    1.450000e+00
  P4dr TC3eh  1 3.980000e-01    1.450000e+00
  P4dh TC2er  1 3.980000e-01    1.450000e+00
  P4dr TC2eh  1 3.980000e-01    1.450000e+00
  P4dh TC1er  1 3.990000e-01    1.180000e+00
  P4dr TC1eh  1 3.990000e-01    1.180000e+00
  P4dh TX4er  1 3.950000e-01    2.310000e+00
  P4dr TX4eh  1 3.950000e-01    2.310000e+00
  P4dh TX3er  1 3.950000e-01    2.110000e+00
  P4dr TX3eh  1 3.950000e-01    2.110000e+00
  P4dh TX2er  1 3.950000e-01    2.110000e+00
  P4dr TX2eh  1 3.950000e-01    2.110000e+00
  P4dh TX1er  1 3.950000e-01    1.850000e+00
  P4dr TX1eh  1 3.950000e-01    1.850000e+00
  P3dh  TC6r  1 3.950000e-01    2.110000e+00
  P3dr  TC6h  1 3.950000e-01    2.110000e+00
  P3dh  TC5r  1 3.950000e-01    1.850000e+00
  P3dr  TC5h  1 3.950000e-01    1.850000e+00
  P3dh  TC4r  1 3.950000e-01    1.670000e+00
  P3dr  TC4h  1 3.950000e-01    1.670000e+00
  P3dh  TC3r  1 3.990000e-01    1.180000e+00
  P3dr  TC3h  1 3.990000e-01    1.180000e+00
  P3dh  TC2r  1 3.990000e-01    1.180000e+00
  P3dr  TC2h  1 3.990000e-01    1.180000e+00
  P3dh  TC1r  1 4.010000e-01    9.830000e-01
  P3dr  TC1h  1 4.010000e-01    9.830000e-01
  P3dh  TX4r  1 3.950000e-01    2.110000e+00
  P3dr  TX4h  1 3.950000e-01    2.110000e+00
  P3dh  TX3r  1 3.950000e-01    2.110000e+00
  P3dr  TX3h  1 3.950000e-01    2.110000e+00
  P3dh  TX2r  1 3.950000e-01    1.850000e+00
  P3dr  TX2h  1 3.950000e-01    1.850000e+00
  P3dh  TX1r  1 3.950000e-01    1.670000e+00
  P3dr  TX1h  1 3.950000e-01    1.670000e+00
  P3dh TC6vr  1 3.950000e-01    1.850000e+00
  P3dr TC6vh  1 3.950000e-01    1.850000e+00
  P3dh TC5vr  1 3.950000e-01    1.670000e+00
  P3dr TC5vh  1 3.950000e-01    1.670000e+00
  P3dh TC4vr  1 3.980000e-01    1.450000e+00
  P3dr TC4vh  1 3.980000e-01    1.450000e+00
  P3dh TC3vr  1 4.010000e-01    9.830000e-01
  P3dr TC3vh  1 4.010000e-01    9.830000e-01
  P3dh TC2vr  1 4.010000e-01    9.830000e-01
  P3dr TC2vh  1 4.010000e-01    9.830000e-01
  P3dh TC1vr  1 4.040000e-01    8.300000e-01
  P3dr TC1vh  1 4.040000e-01    8.300000e-01
  P3dh TX4vr  1 3.950000e-01    1.850000e+00
  P3dr TX4vh  1 3.950000e-01    1.850000e+00
  P3dh TX3vr  1 3.950000e-01    1.850000e+00
  P3dr TX3vh  1 3.950000e-01    1.850000e+00
  P3dh TX2vr  1 3.950000e-01    1.670000e+00
  P3dr TX2vh  1 3.950000e-01    1.670000e+00
  P3dh TX1vr  1 3.980000e-01    1.450000e+00
  P3dr TX1vh  1 3.980000e-01    1.450000e+00
  P3dh TC6er  1 3.950000e-01    2.310000e+00
  P3dr TC6eh  1 3.950000e-01    2.310000e+00
  P3dh TC5er  1 3.950000e-01    2.110000e+00
  P3dr TC5eh  1 3.950000e-01    2.110000e+00
  P3dh TC4er  1 3.950000e-01    1.850000e+00
  P3dr TC4eh  1 3.950000e-01    1.850000e+00
  P3dh TC3er  1 3.980000e-01    1.450000e+00
  P3dr TC3eh  1 3.980000e-01    1.450000e+00
  P3dh TC2er  1 3.980000e-01    1.450000e+00
  P3dr TC2eh  1 3.980000e-01    1.450000e+00
  P3dh TC1er  1 3.990000e-01    1.180000e+00
  P3dr TC1eh  1 3.990000e-01    1.180000e+00
  P3dh TX4er  1 3.950000e-01    2.310000e+00
  P3dr TX4eh  1 3.950000e-01    2.310000e+00
  P3dh TX3er  1 3.950000e-01    2.310000e+00
  P3dr TX3eh  1 3.950000e-01    2.310000e+00
  P3dh TX2er  1 3.950000e-01    2.110000e+00
  P3dr TX2eh  1 3.950000e-01    2.110000e+00
  P3dh TX1er  1 3.950000e-01    1.850000e+00
  P3dr TX1eh  1 3.950000e-01    1.850000e+00
  P2dh  TC6r  1 3.950000e-01    2.110000e+00
  P2dr  TC6h  1 3.950000e-01    2.110000e+00
  P2dh  TC5r  1 3.950000e-01    1.850000e+00
  P2dr  TC5h  1 3.950000e-01    1.850000e+00
  P2dh  TC4r  1 3.950000e-01    1.670000e+00
  P2dr  TC4h  1 3.950000e-01    1.670000e+00
  P2dh  TC3r  1 3.980000e-01    1.450000e+00
  P2dr  TC3h  1 3.980000e-01    1.450000e+00
  P2dh  TC2r  1 3.980000e-01    1.450000e+00
  P2dr  TC2h  1 3.980000e-01    1.450000e+00
  P2dh  TC1r  1 3.990000e-01    1.180000e+00
  P2dr  TC1h  1 3.990000e-01    1.180000e+00
  P2dh  TX4r  1 3.950000e-01    2.110000e+00
  P2dr  TX4h  1 3.950000e-01    2.110000e+00
  P2dh  TX3r  1 3.950000e-01    2.110000e+00
  P2dr  TX3h  1 3.950000e-01    2.110000e+00
  P2dh  TX2r  1 3.950000e-01    1.850000e+00
  P2dr  TX2h  1 3.950000e-01    1.850000e+00
  P2dh  TX1r  1 3.950000e-01    1.670000e+00
  P2dr  TX1h  1 3.950000e-01    1.670000e+00
  P2dh TC6vr  1 3.950000e-01    1.850000e+00
  P2dr TC6vh  1 3.950000e-01    1.850000e+00
  P2dh TC5vr  1 3.950000e-01    1.670000e+00
  P2dr TC5vh  1 3.950000e-01    1.670000e+00
  P2dh TC4vr  1 3.980000e-01    1.450000e+00
  P2dr TC4vh  1 3.980000e-01    1.450000e+00
  P2dh TC3vr  1 3.990000e-01    1.180000e+00
  P2dr TC3vh  1 3.990000e-01    1.180000e+00
  P2dh TC2vr  1 3.990000e-01    1.180000e+00
  P2dr TC2vh  1 3.990000e-01    1.180000e+00
  P2dh TC1vr  1 4.010000e-01    9.830000e-01
  P2dr TC1vh  1 4.010000e-01    9.830000e-01
  P2dh TX4vr  1 3.950000e-01    1.850000e+00
  P2dr TX4vh  1 3.950000e-01    1.850000e+00
  P2dh TX3vr  1 3.950000e-01    1.850000e+00
  P2dr TX3vh  1 3.950000e-01    1.850000e+00
  P2dh TX2vr  1 3.950000e-01    1.670000e+00
  P2dr TX2vh  1 3.950000e-01    1.670000e+00
  P2dh TX1vr  1 3.980000e-01    1.450000e+00
  P2dr TX1vh  1 3.980000e-01    1.450000e+00
  P2dh TC6er  1 3.950000e-01    2.310000e+00
  P2dr TC6eh  1 3.950000e-01    2.310000e+00
  P2dh TC5er  1 3.950000e-01    2.110000e+00
  P2dr TC5eh  1 3.950000e-01    2.110000e+00
  P2dh TC4er  1 3.950000e-01    1.850000e+00
  P2dr TC4eh  1 3.950000e-01    1.850000e+00
  P2dh TC3er  1 3.950000e-01    1.670000e+00
  P2dr TC3eh  1 3.950000e-01    1.670000e+00
  P2dh TC2er  1 3.950000e-01    1.670000e+00
  P2dr TC2eh  1 3.950000e-01    1.670000e+00
  P2dh TC1er  1 3.980000e-01    1.450000e+00
  P2dr TC1eh  1 3.980000e-01    1.450000e+00
  P2dh TX4er  1 3.950000e-01    2.310000e+00
  P2dr TX4eh  1 3.950000e-01    2.310000e+00
  P2dh TX3er  1 3.950000e-01    2.310000e+00
  P2dr TX3eh  1 3.950000e-01    2.310000e+00
  P2dh TX2er  1 3.950000e-01    2.110000e+00
  P2dr TX2eh  1 3.950000e-01    2.110000e+00
  P2dh TX1er  1 3.950000e-01    1.850000e+00
  P2dr TX1eh  1 3.950000e-01    1.850000e+00
  P1dh  TC6r  1 3.950000e-01    2.110000e+00
  P1dr  TC6h  1 3.950000e-01    2.110000e+00
  P1dh  TC5r  1 3.950000e-01    1.850000e+00
  P1dr  TC5h  1 3.950000e-01    1.850000e+00
  P1dh  TC4r  1 3.950000e-01    1.670000e+00
  P1dr  TC4h  1 3.950000e-01    1.670000e+00
  P1dh  TC3r  1 3.980000e-01    1.450000e+00
  P1dr  TC3h  1 3.980000e-01    1.450000e+00
  P1dh  TC2r  1 3.980000e-01    1.450000e+00
  P1dr  TC2h  1 3.980000e-01    1.450000e+00
  P1dh  TC1r  1 3.990000e-01    1.180000e+00
  P1dr  TC1h  1 3.990000e-01    1.180000e+00
  P1dh  TX4r  1 3.950000e-01    2.110000e+00
  P1dr  TX4h  1 3.950000e-01    2.110000e+00
  P1dh  TX3r  1 3.950000e-01    2.110000e+00
  P1dr  TX3h  1 3.950000e-01    2.110000e+00
  P1dh  TX2r  1 3.950000e-01    1.850000e+00
  P1dr  TX2h  1 3.950000e-01    1.850000e+00
  P1dh  TX1r  1 3.950000e-01    1.670000e+00
  P1dr  TX1h  1 3.950000e-01    1.670000e+00
  P1dh TC6vr  1 3.950000e-01    1.850000e+00
  P1dr TC6vh  1 3.950000e-01    1.850000e+00
  P1dh TC5vr  1 3.950000e-01    1.670000e+00
  P1dr TC5vh  1 3.950000e-01    1.670000e+00
  P1dh TC4vr  1 3.980000e-01    1.450000e+00
  P1dr TC4vh  1 3.980000e-01    1.450000e+00
  P1dh TC3vr  1 3.990000e-01    1.180000e+00
  P1dr TC3vh  1 3.990000e-01    1.180000e+00
  P1dh TC2vr  1 3.990000e-01    1.180000e+00
  P1dr TC2vh  1 3.990000e-01    1.180000e+00
  P1dh TC1vr  1 4.010000e-01    9.830000e-01
  P1dr TC1vh  1 4.010000e-01    9.830000e-01
  P1dh TX4vr  1 3.950000e-01    1.850000e+00
  P1dr TX4vh  1 3.950000e-01    1.850000e+00
  P1dh TX3vr  1 3.950000e-01    1.850000e+00
  P1dr TX3vh  1 3.950000e-01    1.850000e+00
  P1dh TX2vr  1 3.950000e-01    1.670000e+00
  P1dr TX2vh  1 3.950000e-01    1.670000e+00
  P1dh TX1vr  1 3.980000e-01    1.450000e+00
  P1dr TX1vh  1 3.980000e-01    1.450000e+00
  P1dh TC6er  1 3.950000e-01    2.310000e+00
  P1dr TC6eh  1 3.950000e-01    2.310000e+00
  P1dh TC5er  1 3.950000e-01    2.110000e+00
  P1dr TC5eh  1 3.950000e-01    2.110000e+00
  P1dh TC4er  1 3.950000e-01    1.850000e+00
  P1dr TC4eh  1 3.950000e-01    1.850000e+00
  P1dh TC3er  1 3.950000e-01    1.670000e+00
  P1dr TC3eh  1 3.950000e-01    1.670000e+00
  P1dh TC2er  1 3.950000e-01    1.670000e+00
  P1dr TC2eh  1 3.950000e-01    1.670000e+00
  P1dh TC1er  1 3.980000e-01    1.450000e+00
  P1dr TC1eh  1 3.980000e-01    1.450000e+00
  P1dh TX4er  1 3.950000e-01    2.310000e+00
  P1dr TX4eh  1 3.950000e-01    2.310000e+00
  P1dh TX3er  1 3.950000e-01    2.310000e+00
  P1dr TX3eh  1 3.950000e-01    2.310000e+00
  P1dh TX2er  1 3.950000e-01    2.110000e+00
  P1dr TX2eh  1 3.950000e-01    2.110000e+00
  P1dh TX1er  1 3.950000e-01    1.850000e+00
  P1dr TX1eh  1 3.950000e-01    1.850000e+00
  N6dh  TC6r  1 3.950000e-01    2.310000e+00
  N6dr  TC6h  1 3.950000e-01    2.310000e+00
  N6dh  TC5r  1 3.950000e-01    2.110000e+00
  N6dr  TC5h  1 3.950000e-01    2.110000e+00
  N6dh  TC4r  1 3.950000e-01    1.850000e+00
  N6dr  TC4h  1 3.950000e-01    1.850000e+00
  N6dh  TC3r  1 3.950000e-01    1.670000e+00
  N6dr  TC3h  1 3.950000e-01    1.670000e+00
  N6dh  TC2r  1 3.950000e-01    1.670000e+00
  N6dr  TC2h  1 3.950000e-01    1.670000e+00
  N6dh  TC1r  1 3.980000e-01    1.450000e+00
  N6dr  TC1h  1 3.980000e-01    1.450000e+00
  N6dh  TX4r  1 3.950000e-01    2.310000e+00
  N6dr  TX4h  1 3.950000e-01    2.310000e+00
  N6dh  TX3r  1 3.950000e-01    2.110000e+00
  N6dr  TX3h  1 3.950000e-01    2.110000e+00
  N6dh  TX2r  1 3.950000e-01    1.850000e+00
  N6dr  TX2h  1 3.950000e-01    1.850000e+00
  N6dh  TX1r  1 3.950000e-01    1.670000e+00
  N6dr  TX1h  1 3.950000e-01    1.670000e+00
  N6dh TC6vr  1 3.950000e-01    2.110000e+00
  N6dr TC6vh  1 3.950000e-01    2.110000e+00
  N6dh TC5vr  1 3.950000e-01    1.850000e+00
  N6dr TC5vh  1 3.950000e-01    1.850000e+00
  N6dh TC4vr  1 3.950000e-01    1.670000e+00
  N6dr TC4vh  1 3.950000e-01    1.670000e+00
  N6dh TC3vr  1 3.980000e-01    1.450000e+00
  N6dr TC3vh  1 3.980000e-01    1.450000e+00
  N6dh TC2vr  1 3.980000e-01    1.450000e+00
  N6dr TC2vh  1 3.980000e-01    1.450000e+00
  N6dh TC1vr  1 3.990000e-01    1.180000e+00
  N6dr TC1vh  1 3.990000e-01    1.180000e+00
  N6dh TX4vr  1 3.950000e-01    2.110000e+00
  N6dr TX4vh  1 3.950000e-01    2.110000e+00
  N6dh TX3vr  1 3.950000e-01    1.850000e+00
  N6dr TX3vh  1 3.950000e-01    1.850000e+00
  N6dh TX2vr  1 3.950000e-01    1.670000e+00
  N6dr TX2vh  1 3.950000e-01    1.670000e+00
  N6dh TX1vr  1 3.980000e-01    1.450000e+00
  N6dr TX1vh  1 3.980000e-01    1.450000e+00
  N6dh TC6er  1 3.950000e-01    2.500000e+00
  N6dr TC6eh  1 3.950000e-01    2.500000e+00
  N6dh TC5er  1 3.950000e-01    2.310000e+00
  N6dr TC5eh  1 3.950000e-01    2.310000e+00
  N6dh TC4er  1 3.950000e-01    2.110000e+00
  N6dr TC4eh  1 3.950000e-01    2.110000e+00
  N6dh TC3er  1 3.950000e-01    1.850000e+00
  N6dr TC3eh  1 3.950000e-01    1.850000e+00
  N6dh TC2er  1 3.950000e-01    1.850000e+00
  N6dr TC2eh  1 3.950000e-01    1.850000e+00
  N6dh TC1er  1 3.950000e-01    1.670000e+00
  N6dr TC1eh  1 3.950000e-01    1.670000e+00
  N6dh TX4er  1 3.950000e-01    2.500000e+00
  N6dr TX4eh  1 3.950000e-01    2.500000e+00
  N6dh TX3er  1 3.950000e-01    2.310000e+00
  N6dr TX3eh  1 3.950000e-01    2.310000e+00
  N6dh TX2er  1 3.950000e-01    2.110000e+00
  N6dr TX2eh  1 3.950000e-01    2.110000e+00
  N6dh TX1er  1 3.950000e-01    1.850000e+00
  N6dr TX1eh  1 3.950000e-01    1.850000e+00
  N5dh  TC6r  1 3.950000e-01    2.310000e+00
  N5dr  TC6h  1 3.950000e-01    2.310000e+00
  N5dh  TC5r  1 3.950000e-01    2.110000e+00
  N5dr  TC5h  1 3.950000e-01    2.110000e+00
  N5dh  TC4r  1 3.950000e-01    1.850000e+00
  N5dr  TC4h  1 3.950000e-01    1.850000e+00
  N5dh  TC3r  1 3.950000e-01    1.850000e+00
  N5dr  TC3h  1 3.950000e-01    1.850000e+00
  N5dh  TC2r  1 3.950000e-01    1.670000e+00
  N5dr  TC2h  1 3.950000e-01    1.670000e+00
  N5dh  TC1r  1 3.980000e-01    1.450000e+00
  N5dr  TC1h  1 3.980000e-01    1.450000e+00
  N5dh  TX4r  1 3.950000e-01    2.500000e+00
  N5dr  TX4h  1 3.950000e-01    2.500000e+00
  N5dh  TX3r  1 3.950000e-01    2.310000e+00
  N5dr  TX3h  1 3.950000e-01    2.310000e+00
  N5dh  TX2r  1 3.950000e-01    2.110000e+00
  N5dr  TX2h  1 3.950000e-01    2.110000e+00
  N5dh  TX1r  1 3.950000e-01    1.850000e+00
  N5dr  TX1h  1 3.950000e-01    1.850000e+00
  N5dh TC6vr  1 3.950000e-01    2.110000e+00
  N5dr TC6vh  1 3.950000e-01    2.110000e+00
  N5dh TC5vr  1 3.950000e-01    1.850000e+00
  N5dr TC5vh  1 3.950000e-01    1.850000e+00
  N5dh TC4vr  1 3.950000e-01    1.670000e+00
  N5dr TC4vh  1 3.950000e-01    1.670000e+00
  N5dh TC3vr  1 3.950000e-01    1.670000e+00
  N5dr TC3vh  1 3.950000e-01    1.670000e+00
  N5dh TC2vr  1 3.980000e-01    1.450000e+00
  N5dr TC2vh  1 3.980000e-01    1.450000e+00
  N5dh TC1vr  1 3.990000e-01    1.180000e+00
  N5dr TC1vh  1 3.990000e-01    1.180000e+00
  N5dh TX4vr  1 3.950000e-01    2.310000e+00
  N5dr TX4vh  1 3.950000e-01    2.310000e+00
  N5dh TX3vr  1 3.950000e-01    2.110000e+00
  N5dr TX3vh  1 3.950000e-01    2.110000e+00
  N5dh TX2vr  1 3.950000e-01    1.850000e+00
  N5dr TX2vh  1 3.950000e-01    1.850000e+00
  N5dh TX1vr  1 3.950000e-01    1.670000e+00
  N5dr TX1vh  1 3.950000e-01    1.670000e+00
  N5dh TC6er  1 3.950000e-01    2.500000e+00
  N5dr TC6eh  1 3.950000e-01    2.500000e+00
  N5dh TC5er  1 3.950000e-01    2.310000e+00
  N5dr TC5eh  1 3.950000e-01    2.310000e+00
  N5dh TC4er  1 3.950000e-01    2.110000e+00
  N5dr TC4eh  1 3.950000e-01    2.110000e+00
  N5dh TC3er  1 3.950000e-01    2.110000e+00
  N5dr TC3eh  1 3.950000e-01    2.110000e+00
  N5dh TC2er  1 3.950000e-01    1.850000e+00
  N5dr TC2eh  1 3.950000e-01    1.850000e+00
  N5dh TC1er  1 3.950000e-01    1.670000e+00
  N5dr TC1eh  1 3.950000e-01    1.670000e+00
  N5dh TX4er  1 3.950000e-01    2.700000e+00
  N5dr TX4eh  1 3.950000e-01    2.700000e+00
  N5dh TX3er  1 3.950000e-01    2.500000e+00
  N5dr TX3eh  1 3.950000e-01    2.500000e+00
  N5dh TX2er  1 3.950000e-01    2.310000e+00
  N5dr TX2eh  1 3.950000e-01    2.310000e+00
  N5dh TX1er  1 3.950000e-01    2.110000e+00
  N5dr TX1eh  1 3.950000e-01    2.110000e+00
  N4dh  TC6r  1 3.950000e-01    2.310000e+00
  N4dr  TC6h  1 3.950000e-01    2.310000e+00
  N4dh  TC5r  1 3.950000e-01    2.110000e+00
  N4dr  TC5h  1 3.950000e-01    2.110000e+00
  N4dh  TC4r  1 3.950000e-01    2.110000e+00
  N4dr  TC4h  1 3.950000e-01    2.110000e+00
  N4dh  TC3r  1 3.950000e-01    1.850000e+00
  N4dr  TC3h  1 3.950000e-01    1.850000e+00
  N4dh  TC2r  1 3.950000e-01    1.670000e+00
  N4dr  TC2h  1 3.950000e-01    1.670000e+00
  N4dh  TC1r  1 3.980000e-01    1.450000e+00
  N4dr  TC1h  1 3.980000e-01    1.450000e+00
  N4dh  TX4r  1 3.950000e-01    2.700000e+00
  N4dr  TX4h  1 3.950000e-01    2.700000e+00
  N4dh  TX3r  1 3.950000e-01    2.500000e+00
  N4dr  TX3h  1 3.950000e-01    2.500000e+00
  N4dh  TX2r  1 3.950000e-01    2.110000e+00
  N4dr  TX2h  1 3.950000e-01    2.110000e+00
  N4dh  TX1r  1 3.950000e-01    1.850000e+00
  N4dr  TX1h  1 3.950000e-01    1.850000e+00
  N4dh TC6vr  1 3.950000e-01    2.110000e+00
  N4dr TC6vh  1 3.950000e-01    2.110000e+00
  N4dh TC5vr  1 3.950000e-01    1.850000e+00
  N4dr TC5vh  1 3.950000e-01    1.850000e+00
  N4dh TC4vr  1 3.950000e-01    1.850000e+00
  N4dr TC4vh  1 3.950000e-01    1.850000e+00
  N4dh TC3vr  1 3.950000e-01    1.670000e+00
  N4dr TC3vh  1 3.950000e-01    1.670000e+00
  N4dh TC2vr  1 3.980000e-01    1.450000e+00
  N4dr TC2vh  1 3.980000e-01    1.450000e+00
  N4dh TC1vr  1 3.990000e-01    1.180000e+00
  N4dr TC1vh  1 3.990000e-01    1.180000e+00
  N4dh TX4vr  1 3.950000e-01    2.500000e+00
  N4dr TX4vh  1 3.950000e-01    2.500000e+00
  N4dh TX3vr  1 3.950000e-01    2.310000e+00
  N4dr TX3vh  1 3.950000e-01    2.310000e+00
  N4dh TX2vr  1 3.950000e-01    1.850000e+00
  N4dr TX2vh  1 3.950000e-01    1.850000e+00
  N4dh TX1vr  1 3.950000e-01    1.670000e+00
  N4dr TX1vh  1 3.950000e-01    1.670000e+00
  N4dh TC6er  1 3.950000e-01    2.500000e+00
  N4dr TC6eh  1 3.950000e-01    2.500000e+00
  N4dh TC5er  1 3.950000e-01    2.310000e+00
  N4dr TC5eh  1 3.950000e-01    2.310000e+00
  N4dh TC4er  1 3.950000e-01    2.310000e+00
  N4dr TC4eh  1 3.950000e-01    2.310000e+00
  N4dh TC3er  1 3.950000e-01    2.110000e+00
  N4dr TC3eh  1 3.950000e-01    2.110000e+00
  N4dh TC2er  1 3.950000e-01    1.850000e+00
  N4dr TC2eh  1 3.950000e-01    1.850000e+00
  N4dh TC1er  1 3.950000e-01    1.670000e+00
  N4dr TC1eh  1 3.950000e-01    1.670000e+00
  N4dh TX4er  1 3.950000e-01    2.940000e+00
  N4dr TX4eh  1 3.950000e-01    2.940000e+00
  N4dh TX3er  1 3.950000e-01    2.700000e+00
  N4dr TX3eh  1 3.950000e-01    2.700000e+00
  N4dh TX2er  1 3.950000e-01    2.310000e+00
  N4dr TX2eh  1 3.950000e-01    2.310000e+00
  N4dh TX1er  1 3.950000e-01    2.110000e+00
  N4dr TX1eh  1 3.950000e-01    2.110000e+00
  N3dh  TC6r  1 3.950000e-01    2.310000e+00
  N3dr  TC6h  1 3.950000e-01    2.310000e+00
  N3dh  TC5r  1 3.950000e-01    2.110000e+00
  N3dr  TC5h  1 3.950000e-01    2.110000e+00
  N3dh  TC4r  1 3.950000e-01    2.110000e+00
  N3dr  TC4h  1 3.950000e-01    2.110000e+00
  N3dh  TC3r  1 3.950000e-01    1.850000e+00
  N3dr  TC3h  1 3.950000e-01    1.850000e+00
  N3dh  TC2r  1 3.950000e-01    1.850000e+00
  N3dr  TC2h  1 3.950000e-01    1.850000e+00
  N3dh  TC1r  1 3.950000e-01    1.670000e+00
  N3dr  TC1h  1 3.950000e-01    1.670000e+00
  N3dh  TX4r  1 3.950000e-01    2.500000e+00
  N3dr  TX4h  1 3.950000e-01    2.500000e+00
  N3dh  TX3r  1 3.950000e-01    2.310000e+00
  N3dr  TX3h  1 3.950000e-01    2.310000e+00
  N3dh  TX2r  1 3.950000e-01    2.110000e+00
  N3dr  TX2h  1 3.950000e-01    2.110000e+00
  N3dh  TX1r  1 3.950000e-01    2.110000e+00
  N3dr  TX1h  1 3.950000e-01    2.110000e+00
  N3dh TC6vr  1 3.950000e-01    2.110000e+00
  N3dr TC6vh  1 3.950000e-01    2.110000e+00
  N3dh TC5vr  1 3.950000e-01    1.850000e+00
  N3dr TC5vh  1 3.950000e-01    1.850000e+00
  N3dh TC4vr  1 3.950000e-01    1.850000e+00
  N3dr TC4vh  1 3.950000e-01    1.850000e+00
  N3dh TC3vr  1 3.950000e-01    1.670000e+00
  N3dr TC3vh  1 3.950000e-01    1.670000e+00
  N3dh TC2vr  1 3.950000e-01    1.670000e+00
  N3dr TC2vh  1 3.950000e-01    1.670000e+00
  N3dh TC1vr  1 3.980000e-01    1.450000e+00
  N3dr TC1vh  1 3.980000e-01    1.450000e+00
  N3dh TX4vr  1 3.950000e-01    2.310000e+00
  N3dr TX4vh  1 3.950000e-01    2.310000e+00
  N3dh TX3vr  1 3.950000e-01    2.110000e+00
  N3dr TX3vh  1 3.950000e-01    2.110000e+00
  N3dh TX2vr  1 3.950000e-01    1.850000e+00
  N3dr TX2vh  1 3.950000e-01    1.850000e+00
  N3dh TX1vr  1 3.950000e-01    1.850000e+00
  N3dr TX1vh  1 3.950000e-01    1.850000e+00
  N3dh TC6er  1 3.950000e-01    2.500000e+00
  N3dr TC6eh  1 3.950000e-01    2.500000e+00
  N3dh TC5er  1 3.950000e-01    2.310000e+00
  N3dr TC5eh  1 3.950000e-01    2.310000e+00
  N3dh TC4er  1 3.950000e-01    2.310000e+00
  N3dr TC4eh  1 3.950000e-01    2.310000e+00
  N3dh TC3er  1 3.950000e-01    2.110000e+00
  N3dr TC3eh  1 3.950000e-01    2.110000e+00
  N3dh TC2er  1 3.950000e-01    2.110000e+00
  N3dr TC2eh  1 3.950000e-01    2.110000e+00
  N3dh TC1er  1 3.950000e-01    1.850000e+00
  N3dr TC1eh  1 3.950000e-01    1.850000e+00
  N3dh TX4er  1 3.950000e-01    2.700000e+00
  N3dr TX4eh  1 3.950000e-01    2.700000e+00
  N3dh TX3er  1 3.950000e-01    2.500000e+00
  N3dr TX3eh  1 3.950000e-01    2.500000e+00
  N3dh TX2er  1 3.950000e-01    2.310000e+00
  N3dr TX2eh  1 3.950000e-01    2.310000e+00
  N3dh TX1er  1 3.950000e-01    2.310000e+00
  N3dr TX1eh  1 3.950000e-01    2.310000e+00
  N2dh  TC6r  1 3.950000e-01    2.310000e+00
  N2dr  TC6h  1 3.950000e-01    2.310000e+00
  N2dh  TC5r  1 3.950000e-01    2.110000e+00
  N2dr  TC5h  1 3.950000e-01    2.110000e+00
  N2dh  TC4r  1 3.950000e-01    2.110000e+00
  N2dr  TC4h  1 3.950000e-01    2.110000e+00
  N2dh  TC3r  1 3.950000e-01    2.110000e+00
  N2dr  TC3h  1 3.950000e-01    2.110000e+00
  N2dh  TC2r  1 3.950000e-01    1.850000e+00
  N2dr  TC2h  1 3.950000e-01    1.850000e+00
  N2dh  TC1r  1 3.950000e-01    1.670000e+00
  N2dr  TC1h  1 3.950000e-01    1.670000e+00
  N2dh  TX4r  1 3.950000e-01    2.500000e+00
  N2dr  TX4h  1 3.950000e-01    2.500000e+00
  N2dh  TX3r  1 3.950000e-01    2.310000e+00
  N2dr  TX3h  1 3.950000e-01    2.310000e+00
  N2dh  TX2r  1 3.950000e-01    2.110000e+00
  N2dr  TX2h  1 3.950000e-01    2.110000e+00
  N2dh  TX1r  1 3.950000e-01    2.110000e+00
  N2dr  TX1h  1 3.950000e-01    2.110000e+00
  N2dh TC6vr  1 3.950000e-01    2.110000e+00
  N2dr TC6vh  1 3.950000e-01    2.110000e+00
  N2dh TC5vr  1 3.950000e-01    1.850000e+00
  N2dr TC5vh  1 3.950000e-01    1.850000e+00
  N2dh TC4vr  1 3.950000e-01    1.850000e+00
  N2dr TC4vh  1 3.950000e-01    1.850000e+00
  N2dh TC3vr  1 3.950000e-01    1.850000e+00
  N2dr TC3vh  1 3.950000e-01    1.850000e+00
  N2dh TC2vr  1 3.950000e-01    1.670000e+00
  N2dr TC2vh  1 3.950000e-01    1.670000e+00
  N2dh TC1vr  1 3.980000e-01    1.450000e+00
  N2dr TC1vh  1 3.980000e-01    1.450000e+00
  N2dh TX4vr  1 3.950000e-01    2.310000e+00
  N2dr TX4vh  1 3.950000e-01    2.310000e+00
  N2dh TX3vr  1 3.950000e-01    2.110000e+00
  N2dr TX3vh  1 3.950000e-01    2.110000e+00
  N2dh TX2vr  1 3.950000e-01    1.850000e+00
  N2dr TX2vh  1 3.950000e-01    1.850000e+00
  N2dh TX1vr  1 3.950000e-01    1.850000e+00
  N2dr TX1vh  1 3.950000e-01    1.850000e+00
  N2dh TC6er  1 3.950000e-01    2.500000e+00
  N2dr TC6eh  1 3.950000e-01    2.500000e+00
  N2dh TC5er  1 3.950000e-01    2.310000e+00
  N2dr TC5eh  1 3.950000e-01    2.310000e+00
  N2dh TC4er  1 3.950000e-01    2.310000e+00
  N2dr TC4eh  1 3.950000e-01    2.310000e+00
  N2dh TC3er  1 3.950000e-01    2.310000e+00
  N2dr TC3eh  1 3.950000e-01    2.310000e+00
  N2dh TC2er  1 3.950000e-01    2.110000e+00
  N2dr TC2eh  1 3.950000e-01    2.110000e+00
  N2dh TC1er  1 3.950000e-01    1.850000e+00
  N2dr TC1eh  1 3.950000e-01    1.850000e+00
  N2dh TX4er  1 3.950000e-01    2.700000e+00
  N2dr TX4eh  1 3.950000e-01    2.700000e+00
  N2dh TX3er  1 3.950000e-01    2.500000e+00
  N2dr TX3eh  1 3.950000e-01    2.500000e+00
  N2dh TX2er  1 3.950000e-01    2.310000e+00
  N2dr TX2eh  1 3.950000e-01    2.310000e+00
  N2dh TX1er  1 3.950000e-01    2.310000e+00
  N2dr TX1eh  1 3.950000e-01    2.310000e+00
  N1dh  TC6r  1 3.950000e-01    2.500000e+00
  N1dr  TC6h  1 3.950000e-01    2.500000e+00
  N1dh  TC5r  1 3.950000e-01    2.310000e+00
  N1dr  TC5h  1 3.950000e-01    2.310000e+00
  N1dh  TC4r  1 3.950000e-01    2.310000e+00
  N1dr  TC4h  1 3.950000e-01    2.310000e+00
  N1dh  TC3r  1 3.950000e-01    2.110000e+00
  N1dr  TC3h  1 3.950000e-01    2.110000e+00
  N1dh  TC2r  1 3.950000e-01    1.850000e+00
  N1dr  TC2h  1 3.950000e-01    1.850000e+00
  N1dh  TC1r  1 3.950000e-01    1.670000e+00
  N1dr  TC1h  1 3.950000e-01    1.670000e+00
  N1dh  TX4r  1 3.950000e-01    2.310000e+00
  N1dr  TX4h  1 3.950000e-01    2.310000e+00
  N1dh  TX3r  1 3.950000e-01    2.310000e+00
  N1dr  TX3h  1 3.950000e-01    2.310000e+00
  N1dh  TX2r  1 3.950000e-01    2.110000e+00
  N1dr  TX2h  1 3.950000e-01    2.110000e+00
  N1dh  TX1r  1 3.950000e-01    2.110000e+00
  N1dr  TX1h  1 3.950000e-01    2.110000e+00
  N1dh TC6vr  1 3.950000e-01    2.310000e+00
  N1dr TC6vh  1 3.950000e-01    2.310000e+00
  N1dh TC5vr  1 3.950000e-01    2.110000e+00
  N1dr TC5vh  1 3.950000e-01    2.110000e+00
  N1dh TC4vr  1 3.950000e-01    2.110000e+00
  N1dr TC4vh  1 3.950000e-01    2.110000e+00
  N1dh TC3vr  1 3.950000e-01    1.850000e+00
  N1dr TC3vh  1 3.950000e-01    1.850000e+00
  N1dh TC2vr  1 3.950000e-01    1.670000e+00
  N1dr TC2vh  1 3.950000e-01    1.670000e+00
  N1dh TC1vr  1 3.980000e-01    1.450000e+00
  N1dr TC1vh  1 3.980000e-01    1.450000e+00
  N1dh TX4vr  1 3.950000e-01    2.110000e+00
  N1dr TX4vh  1 3.950000e-01    2.110000e+00
  N1dh TX3vr  1 3.950000e-01    2.110000e+00
  N1dr TX3vh  1 3.950000e-01    2.110000e+00
  N1dh TX2vr  1 3.950000e-01    1.850000e+00
  N1dr TX2vh  1 3.950000e-01    1.850000e+00
  N1dh TX1vr  1 3.950000e-01    1.850000e+00
  N1dr TX1vh  1 3.950000e-01    1.850000e+00
  N1dh TC6er  1 3.950000e-01    2.700000e+00
  N1dr TC6eh  1 3.950000e-01    2.700000e+00
  N1dh TC5er  1 3.950000e-01    2.500000e+00
  N1dr TC5eh  1 3.950000e-01    2.500000e+00
  N1dh TC4er  1 3.950000e-01    2.500000e+00
  N1dr TC4eh  1 3.950000e-01    2.500000e+00
  N1dh TC3er  1 3.950000e-01    2.310000e+00
  N1dr TC3eh  1 3.950000e-01    2.310000e+00
  N1dh TC2er  1 3.950000e-01    2.110000e+00
  N1dr TC2eh  1 3.950000e-01    2.110000e+00
  N1dh TC1er  1 3.950000e-01    1.850000e+00
  N1dr TC1eh  1 3.950000e-01    1.850000e+00
  N1dh TX4er  1 3.950000e-01    2.500000e+00
  N1dr TX4eh  1 3.950000e-01    2.500000e+00
  N1dh TX3er  1 3.950000e-01    2.500000e+00
  N1dr TX3eh  1 3.950000e-01    2.500000e+00
  N1dh TX2er  1 3.950000e-01    2.310000e+00
  N1dr TX2eh  1 3.950000e-01    2.310000e+00
  N1dh TX1er  1 3.950000e-01    2.310000e+00
  N1dr TX1eh  1 3.950000e-01    2.310000e+00
  P6ah  TC6r  1 3.950000e-01    1.670000e+00
  P6ar  TC6h  1 3.950000e-01    1.670000e+00
  P6ah  TC5r  1 3.980000e-01    1.450000e+00
  P6ar  TC5h  1 3.980000e-01    1.450000e+00
  P6ah  TC4r  1 3.990000e-01    1.180000e+00
  P6ar  TC4h  1 3.990000e-01    1.180000e+00
  P6ah  TC3r  1 4.010000e-01    9.830000e-01
  P6ar  TC3h  1 4.010000e-01    9.830000e-01
  P6ah  TC2r  1 4.010000e-01    9.830000e-01
  P6ar  TC2h  1 4.010000e-01    9.830000e-01
  P6ah  TC1r  1 4.650000e-01    7.030000e-01
  P6ar  TC1h  1 4.650000e-01    7.030000e-01
  P6ah  TX4r  1 3.950000e-01    1.850000e+00
  P6ar  TX4h  1 3.950000e-01    1.850000e+00
  P6ah  TX3r  1 3.950000e-01    1.850000e+00
  P6ar  TX3h  1 3.950000e-01    1.850000e+00
  P6ah  TX2r  1 3.950000e-01    1.670000e+00
  P6ar  TX2h  1 3.950000e-01    1.670000e+00
  P6ah  TX1r  1 3.980000e-01    1.450000e+00
  P6ar  TX1h  1 3.980000e-01    1.450000e+00
  P6ah TC6vr  1 3.950000e-01    1.850000e+00
  P6ar TC6vh  1 3.950000e-01    1.850000e+00
  P6ah TC5vr  1 3.950000e-01    1.670000e+00
  P6ar TC5vh  1 3.950000e-01    1.670000e+00
  P6ah TC4vr  1 3.980000e-01    1.450000e+00
  P6ar TC4vh  1 3.980000e-01    1.450000e+00
  P6ah TC3vr  1 3.990000e-01    1.180000e+00
  P6ar TC3vh  1 3.990000e-01    1.180000e+00
  P6ah TC2vr  1 3.990000e-01    1.180000e+00
  P6ar TC2vh  1 3.990000e-01    1.180000e+00
  P6ah TC1vr  1 4.040000e-01    8.300000e-01
  P6ar TC1vh  1 4.040000e-01    8.300000e-01
  P6ah TX4vr  1 3.950000e-01    2.110000e+00
  P6ar TX4vh  1 3.950000e-01    2.110000e+00
  P6ah TX3vr  1 3.950000e-01    2.110000e+00
  P6ar TX3vh  1 3.950000e-01    2.110000e+00
  P6ah TX2vr  1 3.950000e-01    1.850000e+00
  P6ar TX2vh  1 3.950000e-01    1.850000e+00
  P6ah TX1vr  1 3.950000e-01    1.670000e+00
  P6ar TX1vh  1 3.950000e-01    1.670000e+00
  P6ah TC6er  1 3.980000e-01    1.450000e+00
  P6ar TC6eh  1 3.980000e-01    1.450000e+00
  P6ah TC5er  1 3.990000e-01    1.180000e+00
  P6ar TC5eh  1 3.990000e-01    1.180000e+00
  P6ah TC4er  1 4.010000e-01    9.830000e-01
  P6ar TC4eh  1 4.010000e-01    9.830000e-01
  P6ah TC3er  1 4.040000e-01    8.300000e-01
  P6ar TC3eh  1 4.040000e-01    8.300000e-01
  P6ah TC2er  1 4.040000e-01    8.300000e-01
  P6ar TC2eh  1 4.040000e-01    8.300000e-01
  P6ah TC1er  1 5.110000e-01    6.590000e-01
  P6ar TC1eh  1 5.110000e-01    6.590000e-01
  P6ah TX4er  1 3.950000e-01    1.670000e+00
  P6ar TX4eh  1 3.950000e-01    1.670000e+00
  P6ah TX3er  1 3.950000e-01    1.670000e+00
  P6ar TX3eh  1 3.950000e-01    1.670000e+00
  P6ah TX2er  1 3.980000e-01    1.450000e+00
  P6ar TX2eh  1 3.980000e-01    1.450000e+00
  P6ah TX1er  1 3.990000e-01    1.180000e+00
  P6ar TX1eh  1 3.990000e-01    1.180000e+00
  P5ah  TC6r  1 3.950000e-01    1.670000e+00
  P5ar  TC6h  1 3.950000e-01    1.670000e+00
  P5ah  TC5r  1 3.950000e-01    1.670000e+00
  P5ar  TC5h  1 3.950000e-01    1.670000e+00
  P5ah  TC4r  1 3.980000e-01    1.450000e+00
  P5ar  TC4h  1 3.980000e-01    1.450000e+00
  P5ah  TC3r  1 3.990000e-01    1.180000e+00
  P5ar  TC3h  1 3.990000e-01    1.180000e+00
  P5ah  TC2r  1 3.990000e-01    1.180000e+00
  P5ar  TC2h  1 3.990000e-01    1.180000e+00
  P5ah  TC1r  1 4.010000e-01    9.830000e-01
  P5ar  TC1h  1 4.010000e-01    9.830000e-01
  P5ah  TX4r  1 3.950000e-01    2.110000e+00
  P5ar  TX4h  1 3.950000e-01    2.110000e+00
  P5ah  TX3r  1 3.950000e-01    1.850000e+00
  P5ar  TX3h  1 3.950000e-01    1.850000e+00
  P5ah  TX2r  1 3.950000e-01    1.850000e+00
  P5ar  TX2h  1 3.950000e-01    1.850000e+00
  P5ah  TX1r  1 3.980000e-01    1.450000e+00
  P5ar  TX1h  1 3.980000e-01    1.450000e+00
  P5ah TC6vr  1 3.950000e-01    1.850000e+00
  P5ar TC6vh  1 3.950000e-01    1.850000e+00
  P5ah TC5vr  1 3.950000e-01    1.850000e+00
  P5ar TC5vh  1 3.950000e-01    1.850000e+00
  P5ah TC4vr  1 3.950000e-01    1.670000e+00
  P5ar TC4vh  1 3.950000e-01    1.670000e+00
  P5ah TC3vr  1 3.980000e-01    1.450000e+00
  P5ar TC3vh  1 3.980000e-01    1.450000e+00
  P5ah TC2vr  1 3.980000e-01    1.450000e+00
  P5ar TC2vh  1 3.980000e-01    1.450000e+00
  P5ah TC1vr  1 3.990000e-01    1.180000e+00
  P5ar TC1vh  1 3.990000e-01    1.180000e+00
  P5ah TX4vr  1 3.950000e-01    2.310000e+00
  P5ar TX4vh  1 3.950000e-01    2.310000e+00
  P5ah TX3vr  1 3.950000e-01    2.110000e+00
  P5ar TX3vh  1 3.950000e-01    2.110000e+00
  P5ah TX2vr  1 3.950000e-01    2.110000e+00
  P5ar TX2vh  1 3.950000e-01    2.110000e+00
  P5ah TX1vr  1 3.950000e-01    1.670000e+00
  P5ar TX1vh  1 3.950000e-01    1.670000e+00
  P5ah TC6er  1 3.980000e-01    1.450000e+00
  P5ar TC6eh  1 3.980000e-01    1.450000e+00
  P5ah TC5er  1 3.980000e-01    1.450000e+00
  P5ar TC5eh  1 3.980000e-01    1.450000e+00
  P5ah TC4er  1 3.990000e-01    1.180000e+00
  P5ar TC4eh  1 3.990000e-01    1.180000e+00
  P5ah TC3er  1 4.010000e-01    9.830000e-01
  P5ar TC3eh  1 4.010000e-01    9.830000e-01
  P5ah TC2er  1 4.010000e-01    9.830000e-01
  P5ar TC2eh  1 4.010000e-01    9.830000e-01
  P5ah TC1er  1 4.040000e-01    8.300000e-01
  P5ar TC1eh  1 4.040000e-01    8.300000e-01
  P5ah TX4er  1 3.950000e-01    1.850000e+00
  P5ar TX4eh  1 3.950000e-01    1.850000e+00
  P5ah TX3er  1 3.950000e-01    1.670000e+00
  P5ar TX3eh  1 3.950000e-01    1.670000e+00
  P5ah TX2er  1 3.950000e-01    1.670000e+00
  P5ar TX2eh  1 3.950000e-01    1.670000e+00
  P5ah TX1er  1 3.990000e-01    1.180000e+00
  P5ar TX1eh  1 3.990000e-01    1.180000e+00
  P4ah  TC6r  1 3.950000e-01    1.850000e+00
  P4ar  TC6h  1 3.950000e-01    1.850000e+00
  P4ah  TC5r  1 3.950000e-01    1.670000e+00
  P4ar  TC5h  1 3.950000e-01    1.670000e+00
  P4ah  TC4r  1 3.980000e-01    1.450000e+00
  P4ar  TC4h  1 3.980000e-01    1.450000e+00
  P4ah  TC3r  1 3.990000e-01    1.180000e+00
  P4ar  TC3h  1 3.990000e-01    1.180000e+00
  P4ah  TC2r  1 3.990000e-01    1.180000e+00
  P4ar  TC2h  1 3.990000e-01    1.180000e+00
  P4ah  TC1r  1 4.010000e-01    9.830000e-01
  P4ar  TC1h  1 4.010000e-01    9.830000e-01
  P4ah  TX4r  1 3.950000e-01    2.110000e+00
  P4ar  TX4h  1 3.950000e-01    2.110000e+00
  P4ah  TX3r  1 3.950000e-01    1.850000e+00
  P4ar  TX3h  1 3.950000e-01    1.850000e+00
  P4ah  TX2r  1 3.950000e-01    1.850000e+00
  P4ar  TX2h  1 3.950000e-01    1.850000e+00
  P4ah  TX1r  1 3.950000e-01    1.670000e+00
  P4ar  TX1h  1 3.950000e-01    1.670000e+00
  P4ah TC6vr  1 3.950000e-01    2.110000e+00
  P4ar TC6vh  1 3.950000e-01    2.110000e+00
  P4ah TC5vr  1 3.950000e-01    1.850000e+00
  P4ar TC5vh  1 3.950000e-01    1.850000e+00
  P4ah TC4vr  1 3.950000e-01    1.670000e+00
  P4ar TC4vh  1 3.950000e-01    1.670000e+00
  P4ah TC3vr  1 3.980000e-01    1.450000e+00
  P4ar TC3vh  1 3.980000e-01    1.450000e+00
  P4ah TC2vr  1 3.980000e-01    1.450000e+00
  P4ar TC2vh  1 3.980000e-01    1.450000e+00
  P4ah TC1vr  1 3.990000e-01    1.180000e+00
  P4ar TC1vh  1 3.990000e-01    1.180000e+00
  P4ah TX4vr  1 3.950000e-01    2.310000e+00
  P4ar TX4vh  1 3.950000e-01    2.310000e+00
  P4ah TX3vr  1 3.950000e-01    2.110000e+00
  P4ar TX3vh  1 3.950000e-01    2.110000e+00
  P4ah TX2vr  1 3.950000e-01    2.110000e+00
  P4ar TX2vh  1 3.950000e-01    2.110000e+00
  P4ah TX1vr  1 3.950000e-01    1.850000e+00
  P4ar TX1vh  1 3.950000e-01    1.850000e+00
  P4ah TC6er  1 3.950000e-01    1.670000e+00
  P4ar TC6eh  1 3.950000e-01    1.670000e+00
  P4ah TC5er  1 3.980000e-01    1.450000e+00
  P4ar TC5eh  1 3.980000e-01    1.450000e+00
  P4ah TC4er  1 3.990000e-01    1.180000e+00
  P4ar TC4eh  1 3.990000e-01    1.180000e+00
  P4ah TC3er  1 4.010000e-01    9.830000e-01
  P4ar TC3eh  1 4.010000e-01    9.830000e-01
  P4ah TC2er  1 4.010000e-01    9.830000e-01
  P4ar TC2eh  1 4.010000e-01    9.830000e-01
  P4ah TC1er  1 4.040000e-01    8.300000e-01
  P4ar TC1eh  1 4.040000e-01    8.300000e-01
  P4ah TX4er  1 3.950000e-01    1.850000e+00
  P4ar TX4eh  1 3.950000e-01    1.850000e+00
  P4ah TX3er  1 3.950000e-01    1.670000e+00
  P4ar TX3eh  1 3.950000e-01    1.670000e+00
  P4ah TX2er  1 3.950000e-01    1.670000e+00
  P4ar TX2eh  1 3.950000e-01    1.670000e+00
  P4ah TX1er  1 3.980000e-01    1.450000e+00
  P4ar TX1eh  1 3.980000e-01    1.450000e+00
  P3ah  TC6r  1 3.950000e-01    2.110000e+00
  P3ar  TC6h  1 3.950000e-01    2.110000e+00
  P3ah  TC5r  1 3.950000e-01    1.850000e+00
  P3ar  TC5h  1 3.950000e-01    1.850000e+00
  P3ah  TC4r  1 3.950000e-01    1.670000e+00
  P3ar  TC4h  1 3.950000e-01    1.670000e+00
  P3ah  TC3r  1 3.990000e-01    1.180000e+00
  P3ar  TC3h  1 3.990000e-01    1.180000e+00
  P3ah  TC2r  1 3.990000e-01    1.180000e+00
  P3ar  TC2h  1 3.990000e-01    1.180000e+00
  P3ah  TC1r  1 4.010000e-01    9.830000e-01
  P3ar  TC1h  1 4.010000e-01    9.830000e-01
  P3ah  TX4r  1 3.950000e-01    2.110000e+00
  P3ar  TX4h  1 3.950000e-01    2.110000e+00
  P3ah  TX3r  1 3.950000e-01    2.110000e+00
  P3ar  TX3h  1 3.950000e-01    2.110000e+00
  P3ah  TX2r  1 3.950000e-01    1.850000e+00
  P3ar  TX2h  1 3.950000e-01    1.850000e+00
  P3ah  TX1r  1 3.950000e-01    1.670000e+00
  P3ar  TX1h  1 3.950000e-01    1.670000e+00
  P3ah TC6vr  1 3.950000e-01    2.310000e+00
  P3ar TC6vh  1 3.950000e-01    2.310000e+00
  P3ah TC5vr  1 3.950000e-01    2.110000e+00
  P3ar TC5vh  1 3.950000e-01    2.110000e+00
  P3ah TC4vr  1 3.950000e-01    1.850000e+00
  P3ar TC4vh  1 3.950000e-01    1.850000e+00
  P3ah TC3vr  1 3.980000e-01    1.450000e+00
  P3ar TC3vh  1 3.980000e-01    1.450000e+00
  P3ah TC2vr  1 3.980000e-01    1.450000e+00
  P3ar TC2vh  1 3.980000e-01    1.450000e+00
  P3ah TC1vr  1 3.990000e-01    1.180000e+00
  P3ar TC1vh  1 3.990000e-01    1.180000e+00
  P3ah TX4vr  1 3.950000e-01    2.310000e+00
  P3ar TX4vh  1 3.950000e-01    2.310000e+00
  P3ah TX3vr  1 3.950000e-01    2.310000e+00
  P3ar TX3vh  1 3.950000e-01    2.310000e+00
  P3ah TX2vr  1 3.950000e-01    2.110000e+00
  P3ar TX2vh  1 3.950000e-01    2.110000e+00
  P3ah TX1vr  1 3.950000e-01    1.850000e+00
  P3ar TX1vh  1 3.950000e-01    1.850000e+00
  P3ah TC6er  1 3.950000e-01    1.850000e+00
  P3ar TC6eh  1 3.950000e-01    1.850000e+00
  P3ah TC5er  1 3.950000e-01    1.670000e+00
  P3ar TC5eh  1 3.950000e-01    1.670000e+00
  P3ah TC4er  1 3.980000e-01    1.450000e+00
  P3ar TC4eh  1 3.980000e-01    1.450000e+00
  P3ah TC3er  1 4.010000e-01    9.830000e-01
  P3ar TC3eh  1 4.010000e-01    9.830000e-01
  P3ah TC2er  1 4.010000e-01    9.830000e-01
  P3ar TC2eh  1 4.010000e-01    9.830000e-01
  P3ah TC1er  1 4.040000e-01    8.300000e-01
  P3ar TC1eh  1 4.040000e-01    8.300000e-01
  P3ah TX4er  1 3.950000e-01    1.850000e+00
  P3ar TX4eh  1 3.950000e-01    1.850000e+00
  P3ah TX3er  1 3.950000e-01    1.850000e+00
  P3ar TX3eh  1 3.950000e-01    1.850000e+00
  P3ah TX2er  1 3.950000e-01    1.670000e+00
  P3ar TX2eh  1 3.950000e-01    1.670000e+00
  P3ah TX1er  1 3.980000e-01    1.450000e+00
  P3ar TX1eh  1 3.980000e-01    1.450000e+00
  P2ah  TC6r  1 3.950000e-01    2.110000e+00
  P2ar  TC6h  1 3.950000e-01    2.110000e+00
  P2ah  TC5r  1 3.950000e-01    1.850000e+00
  P2ar  TC5h  1 3.950000e-01    1.850000e+00
  P2ah  TC4r  1 3.950000e-01    1.670000e+00
  P2ar  TC4h  1 3.950000e-01    1.670000e+00
  P2ah  TC3r  1 3.980000e-01    1.450000e+00
  P2ar  TC3h  1 3.980000e-01    1.450000e+00
  P2ah  TC2r  1 3.980000e-01    1.450000e+00
  P2ar  TC2h  1 3.980000e-01    1.450000e+00
  P2ah  TC1r  1 3.990000e-01    1.180000e+00
  P2ar  TC1h  1 3.990000e-01    1.180000e+00
  P2ah  TX4r  1 3.950000e-01    2.110000e+00
  P2ar  TX4h  1 3.950000e-01    2.110000e+00
  P2ah  TX3r  1 3.950000e-01    2.110000e+00
  P2ar  TX3h  1 3.950000e-01    2.110000e+00
  P2ah  TX2r  1 3.950000e-01    1.850000e+00
  P2ar  TX2h  1 3.950000e-01    1.850000e+00
  P2ah  TX1r  1 3.950000e-01    1.670000e+00
  P2ar  TX1h  1 3.950000e-01    1.670000e+00
  P2ah TC6vr  1 3.950000e-01    2.310000e+00
  P2ar TC6vh  1 3.950000e-01    2.310000e+00
  P2ah TC5vr  1 3.950000e-01    2.110000e+00
  P2ar TC5vh  1 3.950000e-01    2.110000e+00
  P2ah TC4vr  1 3.950000e-01    1.850000e+00
  P2ar TC4vh  1 3.950000e-01    1.850000e+00
  P2ah TC3vr  1 3.950000e-01    1.670000e+00
  P2ar TC3vh  1 3.950000e-01    1.670000e+00
  P2ah TC2vr  1 3.950000e-01    1.670000e+00
  P2ar TC2vh  1 3.950000e-01    1.670000e+00
  P2ah TC1vr  1 3.980000e-01    1.450000e+00
  P2ar TC1vh  1 3.980000e-01    1.450000e+00
  P2ah TX4vr  1 3.950000e-01    2.310000e+00
  P2ar TX4vh  1 3.950000e-01    2.310000e+00
  P2ah TX3vr  1 3.950000e-01    2.310000e+00
  P2ar TX3vh  1 3.950000e-01    2.310000e+00
  P2ah TX2vr  1 3.950000e-01    2.110000e+00
  P2ar TX2vh  1 3.950000e-01    2.110000e+00
  P2ah TX1vr  1 3.950000e-01    1.850000e+00
  P2ar TX1vh  1 3.950000e-01    1.850000e+00
  P2ah TC6er  1 3.950000e-01    1.850000e+00
  P2ar TC6eh  1 3.950000e-01    1.850000e+00
  P2ah TC5er  1 3.950000e-01    1.670000e+00
  P2ar TC5eh  1 3.950000e-01    1.670000e+00
  P2ah TC4er  1 3.980000e-01    1.450000e+00
  P2ar TC4eh  1 3.980000e-01    1.450000e+00
  P2ah TC3er  1 3.990000e-01    1.180000e+00
  P2ar TC3eh  1 3.990000e-01    1.180000e+00
  P2ah TC2er  1 3.990000e-01    1.180000e+00
  P2ar TC2eh  1 3.990000e-01    1.180000e+00
  P2ah TC1er  1 4.010000e-01    9.830000e-01
  P2ar TC1eh  1 4.010000e-01    9.830000e-01
  P2ah TX4er  1 3.950000e-01    1.850000e+00
  P2ar TX4eh  1 3.950000e-01    1.850000e+00
  P2ah TX3er  1 3.950000e-01    1.850000e+00
  P2ar TX3eh  1 3.950000e-01    1.850000e+00
  P2ah TX2er  1 3.950000e-01    1.670000e+00
  P2ar TX2eh  1 3.950000e-01    1.670000e+00
  P2ah TX1er  1 3.980000e-01    1.450000e+00
  P2ar TX1eh  1 3.980000e-01    1.450000e+00
  P1ah  TC6r  1 3.950000e-01    2.110000e+00
  P1ar  TC6h  1 3.950000e-01    2.110000e+00
  P1ah  TC5r  1 3.950000e-01    1.850000e+00
  P1ar  TC5h  1 3.950000e-01    1.850000e+00
  P1ah  TC4r  1 3.950000e-01    1.670000e+00
  P1ar  TC4h  1 3.950000e-01    1.670000e+00
  P1ah  TC3r  1 3.980000e-01    1.450000e+00
  P1ar  TC3h  1 3.980000e-01    1.450000e+00
  P1ah  TC2r  1 3.980000e-01    1.450000e+00
  P1ar  TC2h  1 3.980000e-01    1.450000e+00
  P1ah  TC1r  1 3.990000e-01    1.180000e+00
  P1ar  TC1h  1 3.990000e-01    1.180000e+00
  P1ah  TX4r  1 3.950000e-01    2.110000e+00
  P1ar  TX4h  1 3.950000e-01    2.110000e+00
  P1ah  TX3r  1 3.950000e-01    2.110000e+00
  P1ar  TX3h  1 3.950000e-01    2.110000e+00
  P1ah  TX2r  1 3.950000e-01    1.850000e+00
  P1ar  TX2h  1 3.950000e-01    1.850000e+00
  P1ah  TX1r  1 3.950000e-01    1.670000e+00
  P1ar  TX1h  1 3.950000e-01    1.670000e+00
  P1ah TC6vr  1 3.950000e-01    2.310000e+00
  P1ar TC6vh  1 3.950000e-01    2.310000e+00
  P1ah TC5vr  1 3.950000e-01    2.110000e+00
  P1ar TC5vh  1 3.950000e-01    2.110000e+00
  P1ah TC4vr  1 3.950000e-01    1.850000e+00
  P1ar TC4vh  1 3.950000e-01    1.850000e+00
  P1ah TC3vr  1 3.950000e-01    1.670000e+00
  P1ar TC3vh  1 3.950000e-01    1.670000e+00
  P1ah TC2vr  1 3.950000e-01    1.670000e+00
  P1ar TC2vh  1 3.950000e-01    1.670000e+00
  P1ah TC1vr  1 3.980000e-01    1.450000e+00
  P1ar TC1vh  1 3.980000e-01    1.450000e+00
  P1ah TX4vr  1 3.950000e-01    2.310000e+00
  P1ar TX4vh  1 3.950000e-01    2.310000e+00
  P1ah TX3vr  1 3.950000e-01    2.310000e+00
  P1ar TX3vh  1 3.950000e-01    2.310000e+00
  P1ah TX2vr  1 3.950000e-01    2.110000e+00
  P1ar TX2vh  1 3.950000e-01    2.110000e+00
  P1ah TX1vr  1 3.950000e-01    1.850000e+00
  P1ar TX1vh  1 3.950000e-01    1.850000e+00
  P1ah TC6er  1 3.950000e-01    1.850000e+00
  P1ar TC6eh  1 3.950000e-01    1.850000e+00
  P1ah TC5er  1 3.950000e-01    1.670000e+00
  P1ar TC5eh  1 3.950000e-01    1.670000e+00
  P1ah TC4er  1 3.980000e-01    1.450000e+00
  P1ar TC4eh  1 3.980000e-01    1.450000e+00
  P1ah TC3er  1 3.990000e-01    1.180000e+00
  P1ar TC3eh  1 3.990000e-01    1.180000e+00
  P1ah TC2er  1 3.990000e-01    1.180000e+00
  P1ar TC2eh  1 3.990000e-01    1.180000e+00
  P1ah TC1er  1 4.010000e-01    9.830000e-01
  P1ar TC1eh  1 4.010000e-01    9.830000e-01
  P1ah TX4er  1 3.950000e-01    1.850000e+00
  P1ar TX4eh  1 3.950000e-01    1.850000e+00
  P1ah TX3er  1 3.950000e-01    1.850000e+00
  P1ar TX3eh  1 3.950000e-01    1.850000e+00
  P1ah TX2er  1 3.950000e-01    1.670000e+00
  P1ar TX2eh  1 3.950000e-01    1.670000e+00
  P1ah TX1er  1 3.980000e-01    1.450000e+00
  P1ar TX1eh  1 3.980000e-01    1.450000e+00
  N6ah  TC6r  1 3.950000e-01    2.310000e+00
  N6ar  TC6h  1 3.950000e-01    2.310000e+00
  N6ah  TC5r  1 3.950000e-01    2.110000e+00
  N6ar  TC5h  1 3.950000e-01    2.110000e+00
  N6ah  TC4r  1 3.950000e-01    1.850000e+00
  N6ar  TC4h  1 3.950000e-01    1.850000e+00
  N6ah  TC3r  1 3.950000e-01    1.670000e+00
  N6ar  TC3h  1 3.950000e-01    1.670000e+00
  N6ah  TC2r  1 3.950000e-01    1.670000e+00
  N6ar  TC2h  1 3.950000e-01    1.670000e+00
  N6ah  TC1r  1 3.980000e-01    1.450000e+00
  N6ar  TC1h  1 3.980000e-01    1.450000e+00
  N6ah  TX4r  1 3.950000e-01    2.310000e+00
  N6ar  TX4h  1 3.950000e-01    2.310000e+00
  N6ah  TX3r  1 3.950000e-01    2.110000e+00
  N6ar  TX3h  1 3.950000e-01    2.110000e+00
  N6ah  TX2r  1 3.950000e-01    1.850000e+00
  N6ar  TX2h  1 3.950000e-01    1.850000e+00
  N6ah  TX1r  1 3.950000e-01    1.670000e+00
  N6ar  TX1h  1 3.950000e-01    1.670000e+00
  N6ah TC6vr  1 3.950000e-01    2.500000e+00
  N6ar TC6vh  1 3.950000e-01    2.500000e+00
  N6ah TC5vr  1 3.950000e-01    2.310000e+00
  N6ar TC5vh  1 3.950000e-01    2.310000e+00
  N6ah TC4vr  1 3.950000e-01    2.110000e+00
  N6ar TC4vh  1 3.950000e-01    2.110000e+00
  N6ah TC3vr  1 3.950000e-01    1.850000e+00
  N6ar TC3vh  1 3.950000e-01    1.850000e+00
  N6ah TC2vr  1 3.950000e-01    1.850000e+00
  N6ar TC2vh  1 3.950000e-01    1.850000e+00
  N6ah TC1vr  1 3.950000e-01    1.670000e+00
  N6ar TC1vh  1 3.950000e-01    1.670000e+00
  N6ah TX4vr  1 3.950000e-01    2.500000e+00
  N6ar TX4vh  1 3.950000e-01    2.500000e+00
  N6ah TX3vr  1 3.950000e-01    2.310000e+00
  N6ar TX3vh  1 3.950000e-01    2.310000e+00
  N6ah TX2vr  1 3.950000e-01    2.110000e+00
  N6ar TX2vh  1 3.950000e-01    2.110000e+00
  N6ah TX1vr  1 3.950000e-01    1.850000e+00
  N6ar TX1vh  1 3.950000e-01    1.850000e+00
  N6ah TC6er  1 3.950000e-01    2.110000e+00
  N6ar TC6eh  1 3.950000e-01    2.110000e+00
  N6ah TC5er  1 3.950000e-01    1.850000e+00
  N6ar TC5eh  1 3.950000e-01    1.850000e+00
  N6ah TC4er  1 3.950000e-01    1.670000e+00
  N6ar TC4eh  1 3.950000e-01    1.670000e+00
  N6ah TC3er  1 3.980000e-01    1.450000e+00
  N6ar TC3eh  1 3.980000e-01    1.450000e+00
  N6ah TC2er  1 3.980000e-01    1.450000e+00
  N6ar TC2eh  1 3.980000e-01    1.450000e+00
  N6ah TC1er  1 3.990000e-01    1.180000e+00
  N6ar TC1eh  1 3.990000e-01    1.180000e+00
  N6ah TX4er  1 3.950000e-01    2.110000e+00
  N6ar TX4eh  1 3.950000e-01    2.110000e+00
  N6ah TX3er  1 3.950000e-01    1.850000e+00
  N6ar TX3eh  1 3.950000e-01    1.850000e+00
  N6ah TX2er  1 3.950000e-01    1.670000e+00
  N6ar TX2eh  1 3.950000e-01    1.670000e+00
  N6ah TX1er  1 3.980000e-01    1.450000e+00
  N6ar TX1eh  1 3.980000e-01    1.450000e+00
  N5ah  TC6r  1 3.950000e-01    2.310000e+00
  N5ar  TC6h  1 3.950000e-01    2.310000e+00
  N5ah  TC5r  1 3.950000e-01    2.110000e+00
  N5ar  TC5h  1 3.950000e-01    2.110000e+00
  N5ah  TC4r  1 3.950000e-01    1.850000e+00
  N5ar  TC4h  1 3.950000e-01    1.850000e+00
  N5ah  TC3r  1 3.950000e-01    1.850000e+00
  N5ar  TC3h  1 3.950000e-01    1.850000e+00
  N5ah  TC2r  1 3.950000e-01    1.670000e+00
  N5ar  TC2h  1 3.950000e-01    1.670000e+00
  N5ah  TC1r  1 3.980000e-01    1.450000e+00
  N5ar  TC1h  1 3.980000e-01    1.450000e+00
  N5ah  TX4r  1 3.950000e-01    2.500000e+00
  N5ar  TX4h  1 3.950000e-01    2.500000e+00
  N5ah  TX3r  1 3.950000e-01    2.310000e+00
  N5ar  TX3h  1 3.950000e-01    2.310000e+00
  N5ah  TX2r  1 3.950000e-01    2.110000e+00
  N5ar  TX2h  1 3.950000e-01    2.110000e+00
  N5ah  TX1r  1 3.950000e-01    1.850000e+00
  N5ar  TX1h  1 3.950000e-01    1.850000e+00
  N5ah TC6vr  1 3.950000e-01    2.500000e+00
  N5ar TC6vh  1 3.950000e-01    2.500000e+00
  N5ah TC5vr  1 3.950000e-01    2.310000e+00
  N5ar TC5vh  1 3.950000e-01    2.310000e+00
  N5ah TC4vr  1 3.950000e-01    2.110000e+00
  N5ar TC4vh  1 3.950000e-01    2.110000e+00
  N5ah TC3vr  1 3.950000e-01    2.110000e+00
  N5ar TC3vh  1 3.950000e-01    2.110000e+00
  N5ah TC2vr  1 3.950000e-01    1.850000e+00
  N5ar TC2vh  1 3.950000e-01    1.850000e+00
  N5ah TC1vr  1 3.950000e-01    1.670000e+00
  N5ar TC1vh  1 3.950000e-01    1.670000e+00
  N5ah TX4vr  1 3.950000e-01    2.700000e+00
  N5ar TX4vh  1 3.950000e-01    2.700000e+00
  N5ah TX3vr  1 3.950000e-01    2.500000e+00
  N5ar TX3vh  1 3.950000e-01    2.500000e+00
  N5ah TX2vr  1 3.950000e-01    2.310000e+00
  N5ar TX2vh  1 3.950000e-01    2.310000e+00
  N5ah TX1vr  1 3.950000e-01    2.110000e+00
  N5ar TX1vh  1 3.950000e-01    2.110000e+00
  N5ah TC6er  1 3.950000e-01    2.110000e+00
  N5ar TC6eh  1 3.950000e-01    2.110000e+00
  N5ah TC5er  1 3.950000e-01    1.850000e+00
  N5ar TC5eh  1 3.950000e-01    1.850000e+00
  N5ah TC4er  1 3.950000e-01    1.670000e+00
  N5ar TC4eh  1 3.950000e-01    1.670000e+00
  N5ah TC3er  1 3.950000e-01    1.670000e+00
  N5ar TC3eh  1 3.950000e-01    1.670000e+00
  N5ah TC2er  1 3.980000e-01    1.450000e+00
  N5ar TC2eh  1 3.980000e-01    1.450000e+00
  N5ah TC1er  1 3.990000e-01    1.180000e+00
  N5ar TC1eh  1 3.990000e-01    1.180000e+00
  N5ah TX4er  1 3.950000e-01    2.310000e+00
  N5ar TX4eh  1 3.950000e-01    2.310000e+00
  N5ah TX3er  1 3.950000e-01    2.110000e+00
  N5ar TX3eh  1 3.950000e-01    2.110000e+00
  N5ah TX2er  1 3.950000e-01    1.850000e+00
  N5ar TX2eh  1 3.950000e-01    1.850000e+00
  N5ah TX1er  1 3.950000e-01    1.670000e+00
  N5ar TX1eh  1 3.950000e-01    1.670000e+00
  N4ah  TC6r  1 3.950000e-01    2.310000e+00
  N4ar  TC6h  1 3.950000e-01    2.310000e+00
  N4ah  TC5r  1 3.950000e-01    2.110000e+00
  N4ar  TC5h  1 3.950000e-01    2.110000e+00
  N4ah  TC4r  1 3.950000e-01    2.110000e+00
  N4ar  TC4h  1 3.950000e-01    2.110000e+00
  N4ah  TC3r  1 3.950000e-01    1.850000e+00
  N4ar  TC3h  1 3.950000e-01    1.850000e+00
  N4ah  TC2r  1 3.950000e-01    1.670000e+00
  N4ar  TC2h  1 3.950000e-01    1.670000e+00
  N4ah  TC1r  1 3.980000e-01    1.450000e+00
  N4ar  TC1h  1 3.980000e-01    1.450000e+00
  N4ah  TX4r  1 3.950000e-01    2.700000e+00
  N4ar  TX4h  1 3.950000e-01    2.700000e+00
  N4ah  TX3r  1 3.950000e-01    2.500000e+00
  N4ar  TX3h  1 3.950000e-01    2.500000e+00
  N4ah  TX2r  1 3.950000e-01    2.110000e+00
  N4ar  TX2h  1 3.950000e-01    2.110000e+00
  N4ah  TX1r  1 3.950000e-01    1.850000e+00
  N4ar  TX1h  1 3.950000e-01    1.850000e+00
  N4ah TC6vr  1 3.950000e-01    2.500000e+00
  N4ar TC6vh  1 3.950000e-01    2.500000e+00
  N4ah TC5vr  1 3.950000e-01    2.310000e+00
  N4ar TC5vh  1 3.950000e-01    2.310000e+00
  N4ah TC4vr  1 3.950000e-01    2.310000e+00
  N4ar TC4vh  1 3.950000e-01    2.310000e+00
  N4ah TC3vr  1 3.950000e-01    2.110000e+00
  N4ar TC3vh  1 3.950000e-01    2.110000e+00
  N4ah TC2vr  1 3.950000e-01    1.850000e+00
  N4ar TC2vh  1 3.950000e-01    1.850000e+00
  N4ah TC1vr  1 3.950000e-01    1.670000e+00
  N4ar TC1vh  1 3.950000e-01    1.670000e+00
  N4ah TX4vr  1 3.950000e-01    2.940000e+00
  N4ar TX4vh  1 3.950000e-01    2.940000e+00
  N4ah TX3vr  1 3.950000e-01    2.700000e+00
  N4ar TX3vh  1 3.950000e-01    2.700000e+00
  N4ah TX2vr  1 3.950000e-01    2.310000e+00
  N4ar TX2vh  1 3.950000e-01    2.310000e+00
  N4ah TX1vr  1 3.950000e-01    2.110000e+00
  N4ar TX1vh  1 3.950000e-01    2.110000e+00
  N4ah TC6er  1 3.950000e-01    2.110000e+00
  N4ar TC6eh  1 3.950000e-01    2.110000e+00
  N4ah TC5er  1 3.950000e-01    1.850000e+00
  N4ar TC5eh  1 3.950000e-01    1.850000e+00
  N4ah TC4er  1 3.950000e-01    1.850000e+00
  N4ar TC4eh  1 3.950000e-01    1.850000e+00
  N4ah TC3er  1 3.950000e-01    1.670000e+00
  N4ar TC3eh  1 3.950000e-01    1.670000e+00
  N4ah TC2er  1 3.980000e-01    1.450000e+00
  N4ar TC2eh  1 3.980000e-01    1.450000e+00
  N4ah TC1er  1 3.990000e-01    1.180000e+00
  N4ar TC1eh  1 3.990000e-01    1.180000e+00
  N4ah TX4er  1 3.950000e-01    2.500000e+00
  N4ar TX4eh  1 3.950000e-01    2.500000e+00
  N4ah TX3er  1 3.950000e-01    2.310000e+00
  N4ar TX3eh  1 3.950000e-01    2.310000e+00
  N4ah TX2er  1 3.950000e-01    1.850000e+00
  N4ar TX2eh  1 3.950000e-01    1.850000e+00
  N4ah TX1er  1 3.950000e-01    1.670000e+00
  N4ar TX1eh  1 3.950000e-01    1.670000e+00
  N3ah  TC6r  1 3.950000e-01    2.310000e+00
  N3ar  TC6h  1 3.950000e-01    2.310000e+00
  N3ah  TC5r  1 3.950000e-01    2.110000e+00
  N3ar  TC5h  1 3.950000e-01    2.110000e+00
  N3ah  TC4r  1 3.950000e-01    2.110000e+00
  N3ar  TC4h  1 3.950000e-01    2.110000e+00
  N3ah  TC3r  1 3.950000e-01    1.850000e+00
  N3ar  TC3h  1 3.950000e-01    1.850000e+00
  N3ah  TC2r  1 3.950000e-01    1.850000e+00
  N3ar  TC2h  1 3.950000e-01    1.850000e+00
  N3ah  TC1r  1 3.950000e-01    1.670000e+00
  N3ar  TC1h  1 3.950000e-01    1.670000e+00
  N3ah  TX4r  1 3.950000e-01    2.500000e+00
  N3ar  TX4h  1 3.950000e-01    2.500000e+00
  N3ah  TX3r  1 3.950000e-01    2.310000e+00
  N3ar  TX3h  1 3.950000e-01    2.310000e+00
  N3ah  TX2r  1 3.950000e-01    2.110000e+00
  N3ar  TX2h  1 3.950000e-01    2.110000e+00
  N3ah  TX1r  1 3.950000e-01    2.110000e+00
  N3ar  TX1h  1 3.950000e-01    2.110000e+00
  N3ah TC6vr  1 3.950000e-01    2.500000e+00
  N3ar TC6vh  1 3.950000e-01    2.500000e+00
  N3ah TC5vr  1 3.950000e-01    2.310000e+00
  N3ar TC5vh  1 3.950000e-01    2.310000e+00
  N3ah TC4vr  1 3.950000e-01    2.310000e+00
  N3ar TC4vh  1 3.950000e-01    2.310000e+00
  N3ah TC3vr  1 3.950000e-01    2.110000e+00
  N3ar TC3vh  1 3.950000e-01    2.110000e+00
  N3ah TC2vr  1 3.950000e-01    2.110000e+00
  N3ar TC2vh  1 3.950000e-01    2.110000e+00
  N3ah TC1vr  1 3.950000e-01    1.850000e+00
  N3ar TC1vh  1 3.950000e-01    1.850000e+00
  N3ah TX4vr  1 3.950000e-01    2.700000e+00
  N3ar TX4vh  1 3.950000e-01    2.700000e+00
  N3ah TX3vr  1 3.950000e-01    2.500000e+00
  N3ar TX3vh  1 3.950000e-01    2.500000e+00
  N3ah TX2vr  1 3.950000e-01    2.310000e+00
  N3ar TX2vh  1 3.950000e-01    2.310000e+00
  N3ah TX1vr  1 3.950000e-01    2.310000e+00
  N3ar TX1vh  1 3.950000e-01    2.310000e+00
  N3ah TC6er  1 3.950000e-01    2.110000e+00
  N3ar TC6eh  1 3.950000e-01    2.110000e+00
  N3ah TC5er  1 3.950000e-01    1.850000e+00
  N3ar TC5eh  1 3.950000e-01    1.850000e+00
  N3ah TC4er  1 3.950000e-01    1.850000e+00
  N3ar TC4eh  1 3.950000e-01    1.850000e+00
  N3ah TC3er  1 3.950000e-01    1.670000e+00
  N3ar TC3eh  1 3.950000e-01    1.670000e+00
  N3ah TC2er  1 3.950000e-01    1.670000e+00
  N3ar TC2eh  1 3.950000e-01    1.670000e+00
  N3ah TC1er  1 3.980000e-01    1.450000e+00
  N3ar TC1eh  1 3.980000e-01    1.450000e+00
  N3ah TX4er  1 3.950000e-01    2.310000e+00
  N3ar TX4eh  1 3.950000e-01    2.310000e+00
  N3ah TX3er  1 3.950000e-01    2.110000e+00
  N3ar TX3eh  1 3.950000e-01    2.110000e+00
  N3ah TX2er  1 3.950000e-01    1.850000e+00
  N3ar TX2eh  1 3.950000e-01    1.850000e+00
  N3ah TX1er  1 3.950000e-01    1.850000e+00
  N3ar TX1eh  1 3.950000e-01    1.850000e+00
  N2ah  TC6r  1 3.950000e-01    2.310000e+00
  N2ar  TC6h  1 3.950000e-01    2.310000e+00
  N2ah  TC5r  1 3.950000e-01    2.110000e+00
  N2ar  TC5h  1 3.950000e-01    2.110000e+00
  N2ah  TC4r  1 3.950000e-01    2.110000e+00
  N2ar  TC4h  1 3.950000e-01    2.110000e+00
  N2ah  TC3r  1 3.950000e-01    2.110000e+00
  N2ar  TC3h  1 3.950000e-01    2.110000e+00
  N2ah  TC2r  1 3.950000e-01    1.850000e+00
  N2ar  TC2h  1 3.950000e-01    1.850000e+00
  N2ah  TC1r  1 3.950000e-01    1.670000e+00
  N2ar  TC1h  1 3.950000e-01    1.670000e+00
  N2ah  TX4r  1 3.950000e-01    2.500000e+00
  N2ar  TX4h  1 3.950000e-01    2.500000e+00
  N2ah  TX3r  1 3.950000e-01    2.310000e+00
  N2ar  TX3h  1 3.950000e-01    2.310000e+00
  N2ah  TX2r  1 3.950000e-01    2.110000e+00
  N2ar  TX2h  1 3.950000e-01    2.110000e+00
  N2ah  TX1r  1 3.950000e-01    2.110000e+00
  N2ar  TX1h  1 3.950000e-01    2.110000e+00
  N2ah TC6vr  1 3.950000e-01    2.500000e+00
  N2ar TC6vh  1 3.950000e-01    2.500000e+00
  N2ah TC5vr  1 3.950000e-01    2.310000e+00
  N2ar TC5vh  1 3.950000e-01    2.310000e+00
  N2ah TC4vr  1 3.950000e-01    2.310000e+00
  N2ar TC4vh  1 3.950000e-01    2.310000e+00
  N2ah TC3vr  1 3.950000e-01    2.310000e+00
  N2ar TC3vh  1 3.950000e-01    2.310000e+00
  N2ah TC2vr  1 3.950000e-01    2.110000e+00
  N2ar TC2vh  1 3.950000e-01    2.110000e+00
  N2ah TC1vr  1 3.950000e-01    1.850000e+00
  N2ar TC1vh  1 3.950000e-01    1.850000e+00
  N2ah TX4vr  1 3.950000e-01    2.700000e+00
  N2ar TX4vh  1 3.950000e-01    2.700000e+00
  N2ah TX3vr  1 3.950000e-01    2.500000e+00
  N2ar TX3vh  1 3.950000e-01    2.500000e+00
  N2ah TX2vr  1 3.950000e-01    2.310000e+00
  N2ar TX2vh  1 3.950000e-01    2.310000e+00
  N2ah TX1vr  1 3.950000e-01    2.310000e+00
  N2ar TX1vh  1 3.950000e-01    2.310000e+00
  N2ah TC6er  1 3.950000e-01    2.110000e+00
  N2ar TC6eh  1 3.950000e-01    2.110000e+00
  N2ah TC5er  1 3.950000e-01    1.850000e+00
  N2ar TC5eh  1 3.950000e-01    1.850000e+00
  N2ah TC4er  1 3.950000e-01    1.850000e+00
  N2ar TC4eh  1 3.950000e-01    1.850000e+00
  N2ah TC3er  1 3.950000e-01    1.850000e+00
  N2ar TC3eh  1 3.950000e-01    1.850000e+00
  N2ah TC2er  1 3.950000e-01    1.670000e+00
  N2ar TC2eh  1 3.950000e-01    1.670000e+00
  N2ah TC1er  1 3.980000e-01    1.450000e+00
  N2ar TC1eh  1 3.980000e-01    1.450000e+00
  N2ah TX4er  1 3.950000e-01    2.310000e+00
  N2ar TX4eh  1 3.950000e-01    2.310000e+00
  N2ah TX3er  1 3.950000e-01    2.110000e+00
  N2ar TX3eh  1 3.950000e-01    2.110000e+00
  N2ah TX2er  1 3.950000e-01    1.850000e+00
  N2ar TX2eh  1 3.950000e-01    1.850000e+00
  N2ah TX1er  1 3.950000e-01    1.850000e+00
  N2ar TX1eh  1 3.950000e-01    1.850000e+00
  N1ah  TC6r  1 3.950000e-01    2.500000e+00
  N1ar  TC6h  1 3.950000e-01    2.500000e+00
  N1ah  TC5r  1 3.950000e-01    2.310000e+00
  N1ar  TC5h  1 3.950000e-01    2.310000e+00
  N1ah  TC4r  1 3.950000e-01    2.310000e+00
  N1ar  TC4h  1 3.950000e-01    2.310000e+00
  N1ah  TC3r  1 3.950000e-01    2.110000e+00
  N1ar  TC3h  1 3.950000e-01    2.110000e+00
  N1ah  TC2r  1 3.950000e-01    1.850000e+00
  N1ar  TC2h  1 3.950000e-01    1.850000e+00
  N1ah  TC1r  1 3.950000e-01    1.670000e+00
  N1ar  TC1h  1 3.950000e-01    1.670000e+00
  N1ah  TX4r  1 3.950000e-01    2.310000e+00
  N1ar  TX4h  1 3.950000e-01    2.310000e+00
  N1ah  TX3r  1 3.950000e-01    2.310000e+00
  N1ar  TX3h  1 3.950000e-01    2.310000e+00
  N1ah  TX2r  1 3.950000e-01    2.110000e+00
  N1ar  TX2h  1 3.950000e-01    2.110000e+00
  N1ah  TX1r  1 3.950000e-01    2.110000e+00
  N1ar  TX1h  1 3.950000e-01    2.110000e+00
  N1ah TC6vr  1 3.950000e-01    2.700000e+00
  N1ar TC6vh  1 3.950000e-01    2.700000e+00
  N1ah TC5vr  1 3.950000e-01    2.500000e+00
  N1ar TC5vh  1 3.950000e-01    2.500000e+00
  N1ah TC4vr  1 3.950000e-01    2.500000e+00
  N1ar TC4vh  1 3.950000e-01    2.500000e+00
  N1ah TC3vr  1 3.950000e-01    2.310000e+00
  N1ar TC3vh  1 3.950000e-01    2.310000e+00
  N1ah TC2vr  1 3.950000e-01    2.110000e+00
  N1ar TC2vh  1 3.950000e-01    2.110000e+00
  N1ah TC1vr  1 3.950000e-01    1.850000e+00
  N1ar TC1vh  1 3.950000e-01    1.850000e+00
  N1ah TX4vr  1 3.950000e-01    2.500000e+00
  N1ar TX4vh  1 3.950000e-01    2.500000e+00
  N1ah TX3vr  1 3.950000e-01    2.500000e+00
  N1ar TX3vh  1 3.950000e-01    2.500000e+00
  N1ah TX2vr  1 3.950000e-01    2.310000e+00
  N1ar TX2vh  1 3.950000e-01    2.310000e+00
  N1ah TX1vr  1 3.950000e-01    2.310000e+00
  N1ar TX1vh  1 3.950000e-01    2.310000e+00
  N1ah TC6er  1 3.950000e-01    2.310000e+00
  N1ar TC6eh  1 3.950000e-01    2.310000e+00
  N1ah TC5er  1 3.950000e-01    2.110000e+00
  N1ar TC5eh  1 3.950000e-01    2.110000e+00
  N1ah TC4er  1 3.950000e-01    2.110000e+00
  N1ar TC4eh  1 3.950000e-01    2.110000e+00
  N1ah TC3er  1 3.950000e-01    1.850000e+00
  N1ar TC3eh  1 3.950000e-01    1.850000e+00
  N1ah TC2er  1 3.950000e-01    1.670000e+00
  N1ar TC2eh  1 3.950000e-01    1.670000e+00
  N1ah TC1er  1 3.980000e-01    1.450000e+00
  N1ar TC1eh  1 3.980000e-01    1.450000e+00
  N1ah TX4er  1 3.950000e-01    2.110000e+00
  N1ar TX4eh  1 3.950000e-01    2.110000e+00
  N1ah TX3er  1 3.950000e-01    2.110000e+00
  N1ar TX3eh  1 3.950000e-01    2.110000e+00
  N1ah TX2er  1 3.950000e-01    1.850000e+00
  N1ar TX2eh  1 3.950000e-01    1.850000e+00
  N1ah TX1er  1 3.950000e-01    1.850000e+00
  N1ar TX1eh  1 3.950000e-01    1.850000e+00
  TP6a   P5a  1 3.950000e-01    3.670000e+00
  TP6a   P4a  1 3.950000e-01    3.430000e+00
  TP6a   P3a  1 3.950000e-01    3.190000e+00
  TP6a   P2a  1 3.950000e-01    3.190000e+00
  TP6a   P1a  1 3.950000e-01    2.940000e+00
  TP6a   N6a  1 3.950000e-01    2.700000e+00
  TP6a   N5a  1 3.950000e-01    2.310000e+00
  TP6a   N4a  1 3.950000e-01    2.110000e+00
  TP6a   N3a  1 3.950000e-01    2.110000e+00
  TP6a   N2a  1 3.950000e-01    1.850000e+00
  TP6a   N1a  1 3.950000e-01    1.670000e+00
  TP5a   P4a  1 3.950000e-01    3.190000e+00
  TP5a   P3a  1 3.950000e-01    2.940000e+00
  TP5a   P2a  1 3.950000e-01    2.940000e+00
  TP5a   P1a  1 3.950000e-01    2.700000e+00
  TP5a   N6a  1 3.950000e-01    2.500000e+00
  TP5a   N5a  1 3.950000e-01    2.310000e+00
  TP5a   N4a  1 3.950000e-01    2.310000e+00
  TP5a   N3a  1 3.950000e-01    2.110000e+00
  TP5a   N2a  1 3.950000e-01    1.850000e+00
  TP5a   N1a  1 3.950000e-01    1.670000e+00
  TP4a   P3a  1 3.950000e-01    2.940000e+00
  TP4a   P2a  1 3.950000e-01    2.940000e+00
  TP4a   P1a  1 3.950000e-01    2.700000e+00
  TP4a   N6a  1 3.950000e-01    2.500000e+00
  TP4a   N5a  1 3.950000e-01    2.310000e+00
  TP4a   N4a  1 3.950000e-01    2.310000e+00
  TP4a   N3a  1 3.950000e-01    2.110000e+00
  TP4a   N2a  1 3.950000e-01    2.110000e+00
  TP4a   N1a  1 3.950000e-01    1.850000e+00
  TP3a   P2a  1 3.950000e-01    2.940000e+00
  TP3a   P1a  1 3.950000e-01    2.700000e+00
  TP3a   N6a  1 3.950000e-01    2.500000e+00
  TP3a   N5a  1 3.950000e-01    2.310000e+00
  TP3a   N4a  1 3.950000e-01    2.310000e+00
  TP3a   N3a  1 3.950000e-01    2.110000e+00
  TP3a   N2a  1 3.950000e-01    2.110000e+00
  TP3a   N1a  1 3.950000e-01    2.110000e+00
  TP2a   P1a  1 3.950000e-01    2.700000e+00
  TP2a   N6a  1 3.950000e-01    2.700000e+00
  TP2a   N5a  1 3.950000e-01    2.500000e+00
  TP2a   N4a  1 3.950000e-01    2.310000e+00
  TP2a   N3a  1 3.950000e-01    2.110000e+00
  TP2a   N2a  1 3.950000e-01    2.110000e+00
  TP2a   N1a  1 3.950000e-01    2.110000e+00
  TP1a   N6a  1 3.950000e-01    2.700000e+00
  TP1a   N5a  1 3.950000e-01    2.500000e+00
  TP1a   N4a  1 3.950000e-01    2.500000e+00
  TP1a   N3a  1 3.950000e-01    2.110000e+00
  TP1a   N2a  1 3.950000e-01    2.110000e+00
  TP1a   N1a  1 3.950000e-01    2.110000e+00
  TN6a   N5a  1 3.950000e-01    2.700000e+00
  TN6a   N4a  1 3.950000e-01    2.700000e+00
  TN6a   N3a  1 3.950000e-01    2.310000e+00
  TN6a   N2a  1 3.950000e-01    2.110000e+00
  TN6a   N1a  1 3.950000e-01    2.110000e+00
  TN5a   N4a  1 3.950000e-01    2.500000e+00
  TN5a   N3a  1 3.950000e-01    2.310000e+00
  TN5a   N2a  1 3.950000e-01    2.310000e+00
  TN5a   N1a  1 3.950000e-01    2.110000e+00
  TN4a   N3a  1 3.950000e-01    2.310000e+00
  TN4a   N2a  1 3.950000e-01    2.310000e+00
  TN4a   N1a  1 3.950000e-01    2.110000e+00
  TN3a   N2a  1 3.950000e-01    2.310000e+00
  TN3a   N1a  1 3.950000e-01    2.110000e+00
  TN2a   N1a  1 3.950000e-01    2.110000e+00
  TP6d   P5d  1 3.950000e-01    3.670000e+00
  TP6d   P4d  1 3.950000e-01    3.430000e+00
  TP6d   P3d  1 3.950000e-01    3.190000e+00
  TP6d   P2d  1 3.950000e-01    3.190000e+00
  TP6d   P1d  1 3.950000e-01    2.940000e+00
  TP6d   N6d  1 3.950000e-01    2.700000e+00
  TP6d   N5d  1 3.950000e-01    2.310000e+00
  TP6d   N4d  1 3.950000e-01    2.110000e+00
  TP6d   N3d  1 3.950000e-01    2.110000e+00
  TP6d   N2d  1 3.950000e-01    1.850000e+00
  TP6d   N1d  1 3.950000e-01    1.670000e+00
  TP5d   P4d  1 3.950000e-01    3.190000e+00
  TP5d   P3d  1 3.950000e-01    2.940000e+00
  TP5d   P2d  1 3.950000e-01    2.940000e+00
  TP5d   P1d  1 3.950000e-01    2.700000e+00
  TP5d   N6d  1 3.950000e-01    2.500000e+00
  TP5d   N5d  1 3.950000e-01    2.310000e+00
  TP5d   N4d  1 3.950000e-01    2.310000e+00
  TP5d   N3d  1 3.950000e-01    2.110000e+00
  TP5d   N2d  1 3.950000e-01    1.850000e+00
  TP5d   N1d  1 3.950000e-01    1.670000e+00
  TP4d   P3d  1 3.950000e-01    2.940000e+00
  TP4d   P2d  1 3.950000e-01    2.940000e+00
  TP4d   P1d  1 3.950000e-01    2.700000e+00
  TP4d   N6d  1 3.950000e-01    2.500000e+00
  TP4d   N5d  1 3.950000e-01    2.310000e+00
  TP4d   N4d  1 3.950000e-01    2.310000e+00
  TP4d   N3d  1 3.950000e-01    2.110000e+00
  TP4d   N2d  1 3.950000e-01    2.110000e+00
  TP4d   N1d  1 3.950000e-01    1.850000e+00
  TP3d   P2d  1 3.950000e-01    2.940000e+00
  TP3d   P1d  1 3.950000e-01    2.700000e+00
  TP3d   N6d  1 3.950000e-01    2.500000e+00
  TP3d   N5d  1 3.950000e-01    2.310000e+00
  TP3d   N4d  1 3.950000e-01    2.310000e+00
  TP3d   N3d  1 3.950000e-01    2.110000e+00
  TP3d   N2d  1 3.950000e-01    2.110000e+00
  TP3d   N1d  1 3.950000e-01    2.110000e+00
  TP2d   P1d  1 3.950000e-01    2.700000e+00
  TP2d   N6d  1 3.950000e-01    2.700000e+00
  TP2d   N5d  1 3.950000e-01    2.500000e+00
  TP2d   N4d  1 3.950000e-01    2.310000e+00
  TP2d   N3d  1 3.950000e-01    2.110000e+00
  TP2d   N2d  1 3.950000e-01    2.110000e+00
  TP2d   N1d  1 3.950000e-01    2.110000e+00
  TP1d   N6d  1 3.950000e-01    2.700000e+00
  TP1d   N5d  1 3.950000e-01    2.500000e+00
  TP1d   N4d  1 3.950000e-01    2.500000e+00
  TP1d   N3d  1 3.950000e-01    2.110000e+00
  TP1d   N2d  1 3.950000e-01    2.110000e+00
  TP1d   N1d  1 3.950000e-01    2.110000e+00
  TN6d   N5d  1 3.950000e-01    2.700000e+00
  TN6d   N4d  1 3.950000e-01    2.700000e+00
  TN6d   N3d  1 3.950000e-01    2.310000e+00
  TN6d   N2d  1 3.950000e-01    2.110000e+00
  TN6d   N1d  1 3.950000e-01    2.110000e+00
  TN5d   N4d  1 3.950000e-01    2.500000e+00
  TN5d   N3d  1 3.950000e-01    2.310000e+00
  TN5d   N2d  1 3.950000e-01    2.310000e+00
  TN5d   N1d  1 3.950000e-01    2.110000e+00
  TN4d   N3d  1 3.950000e-01    2.310000e+00
  TN4d   N2d  1 3.950000e-01    2.310000e+00
  TN4d   N1d  1 3.950000e-01    2.110000e+00
  TN3d   N2d  1 3.950000e-01    2.310000e+00
  TN3d   N1d  1 3.950000e-01    2.110000e+00
  TN2d   N1d  1 3.950000e-01    2.110000e+00
  TP6d   P6a  1 3.950000e-01    4.540000e+00
  TP6d   P5a  1 3.950000e-01    4.230000e+00
  TP6a   P5d  1 3.950000e-01    4.230000e+00
  TP6d   P4a  1 3.950000e-01    3.910000e+00
  TP6a   P4d  1 3.950000e-01    3.910000e+00
  TP6d   P3a  1 3.950000e-01    3.670000e+00
  TP6a   P3d  1 3.950000e-01    3.670000e+00
  TP6d   P2a  1 3.950000e-01    3.670000e+00
  TP6a   P2d  1 3.950000e-01    3.670000e+00
  TP6d   P1a  1 3.950000e-01    3.430000e+00
  TP6a   P1d  1 3.950000e-01    3.430000e+00
  TP6d   N6a  1 3.950000e-01    3.190000e+00
  TP6a   N6d  1 3.950000e-01    3.190000e+00
  TP6d   N5a  1 3.950000e-01    2.700000e+00
  TP6a   N5d  1 3.950000e-01    2.700000e+00
  TP6d   N4a  1 3.950000e-01    2.500000e+00
  TP6a   N4d  1 3.950000e-01    2.500000e+00
  TP6d   N3a  1 3.950000e-01    2.110000e+00
  TP6a   N3d  1 3.950000e-01    2.110000e+00
  TP6d   N2a  1 3.950000e-01    1.850000e+00
  TP6a   N2d  1 3.950000e-01    1.850000e+00
  TP6d   N1a  1 3.950000e-01    1.670000e+00
  TP6a   N1d  1 3.950000e-01    1.670000e+00
  TP5d   P5a  1 3.950000e-01    3.910000e+00
  TP5d   P4a  1 3.950000e-01    3.670000e+00
  TP5a   P4d  1 3.950000e-01    3.670000e+00
  TP5d   P3a  1 3.950000e-01    3.430000e+00
  TP5a   P3d  1 3.950000e-01    3.430000e+00
  TP5d   P2a  1 3.950000e-01    3.430000e+00
  TP5a   P2d  1 3.950000e-01    3.430000e+00
  TP5d   P1a  1 3.950000e-01    3.190000e+00
  TP5a   P1d  1 3.950000e-01    3.190000e+00
  TP5d   N6a  1 3.950000e-01    2.940000e+00
  TP5a   N6d  1 3.950000e-01    2.940000e+00
  TP5d   N5a  1 3.950000e-01    2.700000e+00
  TP5a   N5d  1 3.950000e-01    2.700000e+00
  TP5d   N4a  1 3.950000e-01    2.700000e+00
  TP5a   N4d  1 3.950000e-01    2.700000e+00
  TP5d   N3a  1 3.950000e-01    2.110000e+00
  TP5a   N3d  1 3.950000e-01    2.110000e+00
  TP5d   N2a  1 3.950000e-01    1.850000e+00
  TP5a   N2d  1 3.950000e-01    1.850000e+00
  TP5d   N1a  1 3.950000e-01    1.670000e+00
  TP5a   N1d  1 3.950000e-01    1.670000e+00
  TP4d   P4a  1 3.950000e-01    3.670000e+00
  TP4d   P3a  1 3.950000e-01    3.430000e+00
  TP4a   P3d  1 3.950000e-01    3.430000e+00
  TP4d   P2a  1 3.950000e-01    3.430000e+00
  TP4a   P2d  1 3.950000e-01    3.430000e+00
  TP4d   P1a  1 3.950000e-01    3.190000e+00
  TP4a   P1d  1 3.950000e-01    3.190000e+00
  TP4d   N6a  1 3.950000e-01    2.940000e+00
  TP4a   N6d  1 3.950000e-01    2.940000e+00
  TP4d   N5a  1 3.950000e-01    2.700000e+00
  TP4a   N5d  1 3.950000e-01    2.700000e+00
  TP4d   N4a  1 3.950000e-01    2.700000e+00
  TP4a   N4d  1 3.950000e-01    2.700000e+00
  TP4d   N3a  1 3.950000e-01    2.500000e+00
  TP4a   N3d  1 3.950000e-01    2.500000e+00
  TP4d   N2a  1 3.950000e-01    2.110000e+00
  TP4a   N2d  1 3.950000e-01    2.110000e+00
  TP4d   N1a  1 3.950000e-01    1.850000e+00
  TP4a   N1d  1 3.950000e-01    1.850000e+00
  TP3d   P3a  1 3.950000e-01    3.430000e+00
  TP3d   P2a  1 3.950000e-01    3.430000e+00
  TP3a   P2d  1 3.950000e-01    3.430000e+00
  TP3d   P1a  1 3.950000e-01    3.190000e+00
  TP3a   P1d  1 3.950000e-01    3.190000e+00
  TP3d   N6a  1 3.950000e-01    2.940000e+00
  TP3a   N6d  1 3.950000e-01    2.940000e+00
  TP3d   N5a  1 3.950000e-01    2.700000e+00
  TP3a   N5d  1 3.950000e-01    2.700000e+00
  TP3d   N4a  1 3.950000e-01    2.700000e+00
  TP3a   N4d  1 3.950000e-01    2.700000e+00
  TP3d   N3a  1 3.950000e-01    2.500000e+00
  TP3a   N3d  1 3.950000e-01    2.500000e+00
  TP3d   N2a  1 3.950000e-01    2.500000e+00
  TP3a   N2d  1 3.950000e-01    2.500000e+00
  TP3d   N1a  1 3.950000e-01    2.110000e+00
  TP3a   N1d  1 3.950000e-01    2.110000e+00
  TP2d   P2a  1 3.950000e-01    3.430000e+00
  TP2d   P1a  1 3.950000e-01    3.190000e+00
  TP2a   P1d  1 3.950000e-01    3.190000e+00
  TP2d   N6a  1 3.950000e-01    3.190000e+00
  TP2a   N6d  1 3.950000e-01    3.190000e+00
  TP2d   N5a  1 3.950000e-01    2.940000e+00
  TP2a   N5d  1 3.950000e-01    2.940000e+00
  TP2d   N4a  1 3.950000e-01    2.700000e+00
  TP2a   N4d  1 3.950000e-01    2.700000e+00
  TP2d   N3a  1 3.950000e-01    2.500000e+00
  TP2a   N3d  1 3.950000e-01    2.500000e+00
  TP2d   N2a  1 3.950000e-01    2.500000e+00
  TP2a   N2d  1 3.950000e-01    2.500000e+00
  TP2d   N1a  1 3.950000e-01    2.500000e+00
  TP2a   N1d  1 3.950000e-01    2.500000e+00
  TP1d   P1a  1 3.950000e-01    3.190000e+00
  TP1d   N6a  1 3.950000e-01    3.190000e+00
  TP1a   N6d  1 3.950000e-01    3.190000e+00
  TP1d   N5a  1 3.950000e-01    2.940000e+00
  TP1a   N5d  1 3.950000e-01    2.940000e+00
  TP1d   N4a  1 3.950000e-01    2.940000e+00
  TP1a   N4d  1 3.950000e-01    2.940000e+00
  TP1d   N3a  1 3.950000e-01    2.500000e+00
  TP1a   N3d  1 3.950000e-01    2.500000e+00
  TP1d   N2a  1 3.950000e-01    2.500000e+00
  TP1a   N2d  1 3.950000e-01    2.500000e+00
  TP1d   N1a  1 3.950000e-01    2.500000e+00
  TP1a   N1d  1 3.950000e-01    2.500000e+00
  TN6d   N6a  1 3.950000e-01    3.190000e+00
  TN6d   N5a  1 3.950000e-01    3.190000e+00
  TN6a   N5d  1 3.950000e-01    3.190000e+00
  TN6d   N4a  1 3.950000e-01    3.190000e+00
  TN6a   N4d  1 3.950000e-01    3.190000e+00
  TN6d   N3a  1 3.950000e-01    2.700000e+00
  TN6a   N3d  1 3.950000e-01    2.700000e+00
  TN6d   N2a  1 3.950000e-01    2.500000e+00
  TN6a   N2d  1 3.950000e-01    2.500000e+00
  TN6d   N1a  1 3.950000e-01    2.500000e+00
  TN6a   N1d  1 3.950000e-01    2.500000e+00
  TN5d   N5a  1 3.950000e-01    2.940000e+00
  TN5d   N4a  1 3.950000e-01    2.940000e+00
  TN5a   N4d  1 3.950000e-01    2.940000e+00
  TN5d   N3a  1 3.950000e-01    2.700000e+00
  TN5a   N3d  1 3.950000e-01    2.700000e+00
  TN5d   N2a  1 3.950000e-01    2.700000e+00
  TN5a   N2d  1 3.950000e-01    2.700000e+00
  TN5d   N1a  1 3.950000e-01    2.500000e+00
  TN5a   N1d  1 3.950000e-01    2.500000e+00
  TN4d   N4a  1 3.950000e-01    2.940000e+00
  TN4d   N3a  1 3.950000e-01    2.700000e+00
  TN4a   N3d  1 3.950000e-01    2.700000e+00
  TN4d   N2a  1 3.950000e-01    2.700000e+00
  TN4a   N2d  1 3.950000e-01    2.700000e+00
  TN4d   N1a  1 3.950000e-01    2.500000e+00
  TN4a   N1d  1 3.950000e-01    2.500000e+00
  TN3d   N3a  1 3.950000e-01    2.700000e+00
  TN3d   N2a  1 3.950000e-01    2.700000e+00
  TN3a   N2d  1 3.950000e-01    2.700000e+00
  TN3d   N1a  1 3.950000e-01    2.500000e+00
  TN3a   N1d  1 3.950000e-01    2.500000e+00
  TN2d   N2a  1 3.950000e-01    2.700000e+00
  TN2d   N1a  1 3.950000e-01    2.500000e+00
  TN2a   N1d  1 3.950000e-01    2.500000e+00
  TN1d   N1a  1 3.950000e-01    2.700000e+00
  TC6v   C5v  1 3.950000e-01    2.110000e+00
  TC6v   C4v  1 3.950000e-01    2.110000e+00
  TC6v   C3v  1 3.950000e-01    1.850000e+00
  TC6v   C2v  1 3.950000e-01    1.670000e+00
  TC6v   C1v  1 3.980000e-01    1.450000e+00
  TC6v   X4v  1 3.950000e-01    2.110000e+00
  TC6v   X3v  1 3.950000e-01    2.110000e+00
  TC6v   X2v  1 3.950000e-01    2.110000e+00
  TC6v   X1v  1 3.950000e-01    2.110000e+00
  TC5v   C4v  1 3.950000e-01    2.110000e+00
  TC5v   C3v  1 3.950000e-01    1.850000e+00
  TC5v   C2v  1 3.950000e-01    1.670000e+00
  TC5v   C1v  1 3.950000e-01    1.670000e+00
  TC5v   X4v  1 3.950000e-01    1.850000e+00
  TC5v   X3v  1 3.950000e-01    1.850000e+00
  TC5v   X2v  1 3.950000e-01    1.850000e+00
  TC5v   X1v  1 3.950000e-01    2.110000e+00
  TC4v   C3v  1 3.950000e-01    2.110000e+00
  TC4v   C2v  1 3.950000e-01    1.850000e+00
  TC4v   C1v  1 3.950000e-01    1.670000e+00
  TC4v   X4v  1 3.950000e-01    1.850000e+00
  TC4v   X3v  1 3.950000e-01    1.850000e+00
  TC4v   X2v  1 3.950000e-01    1.850000e+00
  TC4v   X1v  1 3.950000e-01    2.110000e+00
  TC3v   C2v  1 3.950000e-01    2.110000e+00
  TC3v   C1v  1 3.950000e-01    2.110000e+00
  TC3v   X4v  1 3.950000e-01    1.850000e+00
  TC3v   X3v  1 3.950000e-01    1.850000e+00
  TC3v   X2v  1 3.950000e-01    1.850000e+00
  TC3v   X1v  1 3.950000e-01    2.110000e+00
  TC2v   C1v  1 3.950000e-01    2.310000e+00
  TC2v   X4v  1 3.980000e-01    1.450000e+00
  TC2v   X3v  1 3.950000e-01    1.850000e+00
  TC2v   X2v  1 3.950000e-01    1.850000e+00
  TC2v   X1v  1 3.950000e-01    1.850000e+00
  TC1v   X4v  1 3.980000e-01    1.450000e+00
  TC1v   X3v  1 3.950000e-01    1.850000e+00
  TC1v   X2v  1 3.950000e-01    1.850000e+00
  TC1v   X1v  1 3.950000e-01    1.850000e+00
  TX4v   X3v  1 3.950000e-01    2.110000e+00
  TX4v   X2v  1 3.950000e-01    2.110000e+00
  TX4v   X1v  1 3.950000e-01    2.110000e+00
  TX3v   X2v  1 3.950000e-01    2.310000e+00
  TX3v   X1v  1 3.950000e-01    2.310000e+00
  TX2v   X1v  1 3.950000e-01    2.310000e+00
  TC6e   C5e  1 3.950000e-01    2.110000e+00
  TC6e   C4e  1 3.950000e-01    2.110000e+00
  TC6e   C3e  1 3.950000e-01    1.850000e+00
  TC6e   C2e  1 3.950000e-01    1.670000e+00
  TC6e   C1e  1 3.980000e-01    1.450000e+00
  TC6e   X4e  1 3.950000e-01    2.110000e+00
  TC6e   X3e  1 3.950000e-01    2.110000e+00
  TC6e   X2e  1 3.950000e-01    2.110000e+00
  TC6e   X1e  1 3.950000e-01    2.110000e+00
  TC5e   C4e  1 3.950000e-01    2.110000e+00
  TC5e   C3e  1 3.950000e-01    1.850000e+00
  TC5e   C2e  1 3.950000e-01    1.670000e+00
  TC5e   C1e  1 3.950000e-01    1.670000e+00
  TC5e   X4e  1 3.950000e-01    1.850000e+00
  TC5e   X3e  1 3.950000e-01    1.850000e+00
  TC5e   X2e  1 3.950000e-01    1.850000e+00
  TC5e   X1e  1 3.950000e-01    2.110000e+00
  TC4e   C3e  1 3.950000e-01    2.110000e+00
  TC4e   C2e  1 3.950000e-01    1.850000e+00
  TC4e   C1e  1 3.950000e-01    1.670000e+00
  TC4e   X4e  1 3.950000e-01    1.850000e+00
  TC4e   X3e  1 3.950000e-01    1.850000e+00
  TC4e   X2e  1 3.950000e-01    1.850000e+00
  TC4e   X1e  1 3.950000e-01    2.110000e+00
  TC3e   C2e  1 3.950000e-01    2.110000e+00
  TC3e   C1e  1 3.950000e-01    2.110000e+00
  TC3e   X4e  1 3.950000e-01    1.850000e+00
  TC3e   X3e  1 3.950000e-01    1.850000e+00
  TC3e   X2e  1 3.950000e-01    1.850000e+00
  TC3e   X1e  1 3.950000e-01    2.110000e+00
  TC2e   C1e  1 3.950000e-01    2.310000e+00
  TC2e   X4e  1 3.980000e-01    1.450000e+00
  TC2e   X3e  1 3.950000e-01    1.850000e+00
  TC2e   X2e  1 3.950000e-01    1.850000e+00
  TC2e   X1e  1 3.950000e-01    1.850000e+00
  TC1e   X4e  1 3.980000e-01    1.450000e+00
  TC1e   X3e  1 3.950000e-01    1.850000e+00
  TC1e   X2e  1 3.950000e-01    1.850000e+00
  TC1e   X1e  1 3.950000e-01    1.850000e+00
  TX4e   X3e  1 3.950000e-01    2.110000e+00
  TX4e   X2e  1 3.950000e-01    2.110000e+00
  TX4e   X1e  1 3.950000e-01    2.110000e+00
  TX3e   X2e  1 3.950000e-01    2.310000e+00
  TX3e   X1e  1 3.950000e-01    2.310000e+00
  TX2e   X1e  1 3.950000e-01    2.310000e+00
  TC6v   C6e  1 3.950000e-01    2.940000e+00
  TC6v   C5e  1 3.950000e-01    2.700000e+00
  TC6e   C5v  1 3.950000e-01    2.700000e+00
  TC6v   C4e  1 3.950000e-01    2.700000e+00
  TC6e   C4v  1 3.950000e-01    2.700000e+00
  TC6v   C3e  1 3.950000e-01    2.500000e+00
  TC6e   C3v  1 3.950000e-01    2.500000e+00
  TC6v   C2e  1 3.950000e-01    2.310000e+00
  TC6e   C2v  1 3.950000e-01    2.310000e+00
  TC6v   C1e  1 3.950000e-01    2.110000e+00
  TC6e   C1v  1 3.950000e-01    2.110000e+00
  TC6v   X4e  1 3.950000e-01    2.700000e+00
  TC6e   X4v  1 3.950000e-01    2.700000e+00
  TC6v   X3e  1 3.950000e-01    2.700000e+00
  TC6e   X3v  1 3.950000e-01    2.700000e+00
  TC6v   X2e  1 3.950000e-01    2.700000e+00
  TC6e   X2v  1 3.950000e-01    2.700000e+00
  TC6v   X1e  1 3.950000e-01    2.700000e+00
  TC6e   X1v  1 3.950000e-01    2.700000e+00
  TC5v   C5e  1 3.950000e-01    2.700000e+00
  TC5v   C4e  1 3.950000e-01    2.700000e+00
  TC5e   C4v  1 3.950000e-01    2.700000e+00
  TC5v   C3e  1 3.950000e-01    2.500000e+00
  TC5e   C3v  1 3.950000e-01    2.500000e+00
  TC5v   C2e  1 3.950000e-01    2.310000e+00
  TC5e   C2v  1 3.950000e-01    2.310000e+00
  TC5v   C1e  1 3.950000e-01    2.310000e+00
  TC5e   C1v  1 3.950000e-01    2.310000e+00
  TC5v   X4e  1 3.950000e-01    2.500000e+00
  TC5e   X4v  1 3.950000e-01    2.500000e+00
  TC5v   X3e  1 3.950000e-01    2.500000e+00
  TC5e   X3v  1 3.950000e-01    2.500000e+00
  TC5v   X2e  1 3.950000e-01    2.500000e+00
  TC5e   X2v  1 3.950000e-01    2.500000e+00
  TC5v   X1e  1 3.950000e-01    2.700000e+00
  TC5e   X1v  1 3.950000e-01    2.700000e+00
  TC4v   C4e  1 3.950000e-01    2.700000e+00
  TC4v   C3e  1 3.950000e-01    2.700000e+00
  TC4e   C3v  1 3.950000e-01    2.700000e+00
  TC4v   C2e  1 3.950000e-01    2.500000e+00
  TC4e   C2v  1 3.950000e-01    2.500000e+00
  TC4v   C1e  1 3.950000e-01    2.310000e+00
  TC4e   C1v  1 3.950000e-01    2.310000e+00
  TC4v   X4e  1 3.950000e-01    2.500000e+00
  TC4e   X4v  1 3.950000e-01    2.500000e+00
  TC4v   X3e  1 3.950000e-01    2.500000e+00
  TC4e   X3v  1 3.950000e-01    2.500000e+00
  TC4v   X2e  1 3.950000e-01    2.500000e+00
  TC4e   X2v  1 3.950000e-01    2.500000e+00
  TC4v   X1e  1 3.950000e-01    2.700000e+00
  TC4e   X1v  1 3.950000e-01    2.700000e+00
  TC3v   C3e  1 3.950000e-01    2.700000e+00
  TC3v   C2e  1 3.950000e-01    2.700000e+00
  TC3e   C2v  1 3.950000e-01    2.700000e+00
  TC3v   C1e  1 3.950000e-01    2.700000e+00
  TC3e   C1v  1 3.950000e-01    2.700000e+00
  TC3v   X4e  1 3.950000e-01    2.500000e+00
  TC3e   X4v  1 3.950000e-01    2.500000e+00
  TC3v   X3e  1 3.950000e-01    2.500000e+00
  TC3e   X3v  1 3.950000e-01    2.500000e+00
  TC3v   X2e  1 3.950000e-01    2.500000e+00
  TC3e   X2v  1 3.950000e-01    2.500000e+00
  TC3v   X1e  1 3.950000e-01    2.700000e+00
  TC3e   X1v  1 3.950000e-01    2.700000e+00
  TC2v   C2e  1 3.950000e-01    2.700000e+00
  TC2v   C1e  1 3.950000e-01    2.940000e+00
  TC2e   C1v  1 3.950000e-01    2.940000e+00
  TC2v   X4e  1 3.950000e-01    2.110000e+00
  TC2e   X4v  1 3.950000e-01    2.110000e+00
  TC2v   X3e  1 3.950000e-01    2.500000e+00
  TC2e   X3v  1 3.950000e-01    2.500000e+00
  TC2v   X2e  1 3.950000e-01    2.500000e+00
  TC2e   X2v  1 3.950000e-01    2.500000e+00
  TC2v   X1e  1 3.950000e-01    2.500000e+00
  TC2e   X1v  1 3.950000e-01    2.500000e+00
  TC1v   C1e  1 3.950000e-01    2.700000e+00
  TC1v   X4e  1 3.950000e-01    2.110000e+00
  TC1e   X4v  1 3.950000e-01    2.110000e+00
  TC1v   X3e  1 3.950000e-01    2.500000e+00
  TC1e   X3v  1 3.950000e-01    2.500000e+00
  TC1v   X2e  1 3.950000e-01    2.500000e+00
  TC1e   X2v  1 3.950000e-01    2.500000e+00
  TC1v   X1e  1 3.950000e-01    2.500000e+00
  TC1e   X1v  1 3.950000e-01    2.500000e+00
  TX4v   X4e  1 3.950000e-01    2.700000e+00
  TX4v   X3e  1 3.950000e-01    2.700000e+00
  TX4e   X3v  1 3.950000e-01    2.700000e+00
  TX4v   X2e  1 3.950000e-01    2.700000e+00
  TX4e   X2v  1 3.950000e-01    2.700000e+00
  TX4v   X1e  1 3.950000e-01    2.700000e+00
  TX4e   X1v  1 3.950000e-01    2.700000e+00
  TX3v   X3e  1 3.950000e-01    2.700000e+00
  TX3v   X2e  1 3.950000e-01    2.940000e+00
  TX3e   X2v  1 3.950000e-01    2.940000e+00
  TX3v   X1e  1 3.950000e-01    2.940000e+00
  TX3e   X1v  1 3.950000e-01    2.940000e+00
  TX2v   X2e  1 3.950000e-01    2.940000e+00
  TX2v   X1e  1 3.950000e-01    2.940000e+00
  TX2e   X1v  1 3.950000e-01    2.940000e+00
  TX1v   X1e  1 3.950000e-01    3.190000e+00
  TP6d   C6e  1 3.950000e-01    1.850000e+00
  TP6d   C5e  1 3.950000e-01    1.670000e+00
  TP6d   C4e  1 3.980000e-01    1.450000e+00
  TP6d   C3e  1 3.990000e-01    1.180000e+00
  TP6d   C2e  1 3.990000e-01    1.180000e+00
  TP6d   C1e  1 4.040000e-01    8.300000e-01
  TP6d   X4e  1 3.950000e-01    2.110000e+00
  TP6d   X3e  1 3.950000e-01    2.110000e+00
  TP6d   X2e  1 3.950000e-01    1.850000e+00
  TP6d   X1e  1 3.950000e-01    1.670000e+00
  TP5d   C6e  1 3.950000e-01    1.850000e+00
  TP5d   C5e  1 3.950000e-01    1.850000e+00
  TP5d   C4e  1 3.950000e-01    1.670000e+00
  TP5d   C3e  1 3.980000e-01    1.450000e+00
  TP5d   C2e  1 3.980000e-01    1.450000e+00
  TP5d   C1e  1 3.990000e-01    1.180000e+00
  TP5d   X4e  1 3.950000e-01    2.310000e+00
  TP5d   X3e  1 3.950000e-01    2.110000e+00
  TP5d   X2e  1 3.950000e-01    2.110000e+00
  TP5d   X1e  1 3.950000e-01    1.670000e+00
  TP4d   C6e  1 3.950000e-01    2.110000e+00
  TP4d   C5e  1 3.950000e-01    1.850000e+00
  TP4d   C4e  1 3.950000e-01    1.670000e+00
  TP4d   C3e  1 3.980000e-01    1.450000e+00
  TP4d   C2e  1 3.980000e-01    1.450000e+00
  TP4d   C1e  1 3.990000e-01    1.180000e+00
  TP4d   X4e  1 3.950000e-01    2.310000e+00
  TP4d   X3e  1 3.950000e-01    2.110000e+00
  TP4d   X2e  1 3.950000e-01    2.110000e+00
  TP4d   X1e  1 3.950000e-01    1.850000e+00
  TP3d   C6e  1 3.950000e-01    2.310000e+00
  TP3d   C5e  1 3.950000e-01    2.110000e+00
  TP3d   C4e  1 3.950000e-01    1.850000e+00
  TP3d   C3e  1 3.980000e-01    1.450000e+00
  TP3d   C2e  1 3.980000e-01    1.450000e+00
  TP3d   C1e  1 3.990000e-01    1.180000e+00
  TP3d   X4e  1 3.950000e-01    2.310000e+00
  TP3d   X3e  1 3.950000e-01    2.310000e+00
  TP3d   X2e  1 3.950000e-01    2.110000e+00
  TP3d   X1e  1 3.950000e-01    1.850000e+00
  TP2d   C6e  1 3.950000e-01    2.310000e+00
  TP2d   C5e  1 3.950000e-01    2.110000e+00
  TP2d   C4e  1 3.950000e-01    1.850000e+00
  TP2d   C3e  1 3.950000e-01    1.670000e+00
  TP2d   C2e  1 3.950000e-01    1.670000e+00
  TP2d   C1e  1 3.980000e-01    1.450000e+00
  TP2d   X4e  1 3.950000e-01    2.310000e+00
  TP2d   X3e  1 3.950000e-01    2.310000e+00
  TP2d   X2e  1 3.950000e-01    2.110000e+00
  TP2d   X1e  1 3.950000e-01    1.850000e+00
  TP1d   C6e  1 3.950000e-01    2.310000e+00
  TP1d   C5e  1 3.950000e-01    2.110000e+00
  TP1d   C4e  1 3.950000e-01    1.850000e+00
  TP1d   C3e  1 3.950000e-01    1.670000e+00
  TP1d   C2e  1 3.950000e-01    1.670000e+00
  TP1d   C1e  1 3.980000e-01    1.450000e+00
  TP1d   X4e  1 3.950000e-01    2.310000e+00
  TP1d   X3e  1 3.950000e-01    2.310000e+00
  TP1d   X2e  1 3.950000e-01    2.110000e+00
  TP1d   X1e  1 3.950000e-01    1.850000e+00
  TN6d   C6e  1 3.950000e-01    2.500000e+00
  TN6d   C5e  1 3.950000e-01    2.310000e+00
  TN6d   C4e  1 3.950000e-01    2.110000e+00
  TN6d   C3e  1 3.950000e-01    1.850000e+00
  TN6d   C2e  1 3.950000e-01    1.850000e+00
  TN6d   C1e  1 3.950000e-01    1.670000e+00
  TN6d   X4e  1 3.950000e-01    2.500000e+00
  TN6d   X3e  1 3.950000e-01    2.310000e+00
  TN6d   X2e  1 3.950000e-01    2.110000e+00
  TN6d   X1e  1 3.950000e-01    1.850000e+00
  TN5d   C6e  1 3.950000e-01    2.500000e+00
  TN5d   C5e  1 3.950000e-01    2.310000e+00
  TN5d   C4e  1 3.950000e-01    2.110000e+00
  TN5d   C3e  1 3.950000e-01    2.110000e+00
  TN5d   C2e  1 3.950000e-01    1.850000e+00
  TN5d   C1e  1 3.950000e-01    1.670000e+00
  TN5d   X4e  1 3.950000e-01    2.700000e+00
  TN5d   X3e  1 3.950000e-01    2.500000e+00
  TN5d   X2e  1 3.950000e-01    2.310000e+00
  TN5d   X1e  1 3.950000e-01    2.110000e+00
  TN4d   C6e  1 3.950000e-01    2.500000e+00
  TN4d   C5e  1 3.950000e-01    2.310000e+00
  TN4d   C4e  1 3.950000e-01    2.310000e+00
  TN4d   C3e  1 3.950000e-01    2.110000e+00
  TN4d   C2e  1 3.950000e-01    1.850000e+00
  TN4d   C1e  1 3.950000e-01    1.670000e+00
  TN4d   X4e  1 3.950000e-01    2.940000e+00
  TN4d   X3e  1 3.950000e-01    2.700000e+00
  TN4d   X2e  1 3.950000e-01    2.310000e+00
  TN4d   X1e  1 3.950000e-01    2.110000e+00
  TN3d   C6e  1 3.950000e-01    2.500000e+00
  TN3d   C5e  1 3.950000e-01    2.310000e+00
  TN3d   C4e  1 3.950000e-01    2.310000e+00
  TN3d   C3e  1 3.950000e-01    2.110000e+00
  TN3d   C2e  1 3.950000e-01    2.110000e+00
  TN3d   C1e  1 3.950000e-01    1.850000e+00
  TN3d   X4e  1 3.950000e-01    2.700000e+00
  TN3d   X3e  1 3.950000e-01    2.500000e+00
  TN3d   X2e  1 3.950000e-01    2.310000e+00
  TN3d   X1e  1 3.950000e-01    2.310000e+00
  TN2d   C6e  1 3.950000e-01    2.500000e+00
  TN2d   C5e  1 3.950000e-01    2.310000e+00
  TN2d   C4e  1 3.950000e-01    2.310000e+00
  TN2d   C3e  1 3.950000e-01    2.310000e+00
  TN2d   C2e  1 3.950000e-01    2.110000e+00
  TN2d   C1e  1 3.950000e-01    1.850000e+00
  TN2d   X4e  1 3.950000e-01    2.700000e+00
  TN2d   X3e  1 3.950000e-01    2.500000e+00
  TN2d   X2e  1 3.950000e-01    2.310000e+00
  TN2d   X1e  1 3.950000e-01    2.310000e+00
  TN1d   C6e  1 3.950000e-01    2.700000e+00
  TN1d   C5e  1 3.950000e-01    2.500000e+00
  TN1d   C4e  1 3.950000e-01    2.500000e+00
  TN1d   C3e  1 3.950000e-01    2.310000e+00
  TN1d   C2e  1 3.950000e-01    2.110000e+00
  TN1d   C1e  1 3.950000e-01    1.850000e+00
  TN1d   X4e  1 3.950000e-01    2.500000e+00
  TN1d   X3e  1 3.950000e-01    2.500000e+00
  TN1d   X2e  1 3.950000e-01    2.310000e+00
  TN1d   X1e  1 3.950000e-01    2.310000e+00
  TP6a   C6v  1 3.950000e-01    1.850000e+00
  TP6a   C5v  1 3.950000e-01    1.670000e+00
  TP6a   C4v  1 3.980000e-01    1.450000e+00
  TP6a   C3v  1 3.990000e-01    1.180000e+00
  TP6a   C2v  1 3.990000e-01    1.180000e+00
  TP6a   C1v  1 4.040000e-01    8.300000e-01
  TP6a   X4v  1 3.950000e-01    2.110000e+00
  TP6a   X3v  1 3.950000e-01    2.110000e+00
  TP6a   X2v  1 3.950000e-01    1.850000e+00
  TP6a   X1v  1 3.950000e-01    1.670000e+00
  TP5a   C6v  1 3.950000e-01    1.850000e+00
  TP5a   C5v  1 3.950000e-01    1.850000e+00
  TP5a   C4v  1 3.950000e-01    1.670000e+00
  TP5a   C3v  1 3.980000e-01    1.450000e+00
  TP5a   C2v  1 3.980000e-01    1.450000e+00
  TP5a   C1v  1 3.990000e-01    1.180000e+00
  TP5a   X4v  1 3.950000e-01    2.310000e+00
  TP5a   X3v  1 3.950000e-01    2.110000e+00
  TP5a   X2v  1 3.950000e-01    2.110000e+00
  TP5a   X1v  1 3.950000e-01    1.670000e+00
  TP4a   C6v  1 3.950000e-01    2.110000e+00
  TP4a   C5v  1 3.950000e-01    1.850000e+00
  TP4a   C4v  1 3.950000e-01    1.670000e+00
  TP4a   C3v  1 3.980000e-01    1.450000e+00
  TP4a   C2v  1 3.980000e-01    1.450000e+00
  TP4a   C1v  1 3.990000e-01    1.180000e+00
  TP4a   X4v  1 3.950000e-01    2.310000e+00
  TP4a   X3v  1 3.950000e-01    2.110000e+00
  TP4a   X2v  1 3.950000e-01    2.110000e+00
  TP4a   X1v  1 3.950000e-01    1.850000e+00
  TP3a   C6v  1 3.950000e-01    2.310000e+00
  TP3a   C5v  1 3.950000e-01    2.110000e+00
  TP3a   C4v  1 3.950000e-01    1.850000e+00
  TP3a   C3v  1 3.980000e-01    1.450000e+00
  TP3a   C2v  1 3.980000e-01    1.450000e+00
  TP3a   C1v  1 3.990000e-01    1.180000e+00
  TP3a   X4v  1 3.950000e-01    2.310000e+00
  TP3a   X3v  1 3.950000e-01    2.310000e+00
  TP3a   X2v  1 3.950000e-01    2.110000e+00
  TP3a   X1v  1 3.950000e-01    1.850000e+00
  TP2a   C6v  1 3.950000e-01    2.310000e+00
  TP2a   C5v  1 3.950000e-01    2.110000e+00
  TP2a   C4v  1 3.950000e-01    1.850000e+00
  TP2a   C3v  1 3.950000e-01    1.670000e+00
  TP2a   C2v  1 3.950000e-01    1.670000e+00
  TP2a   C1v  1 3.980000e-01    1.450000e+00
  TP2a   X4v  1 3.950000e-01    2.310000e+00
  TP2a   X3v  1 3.950000e-01    2.310000e+00
  TP2a   X2v  1 3.950000e-01    2.110000e+00
  TP2a   X1v  1 3.950000e-01    1.850000e+00
  TP1a   C6v  1 3.950000e-01    2.310000e+00
  TP1a   C5v  1 3.950000e-01    2.110000e+00
  TP1a   C4v  1 3.950000e-01    1.850000e+00
  TP1a   C3v  1 3.950000e-01    1.670000e+00
  TP1a   C2v  1 3.950000e-01    1.670000e+00
  TP1a   C1v  1 3.980000e-01    1.450000e+00
  TP1a   X4v  1 3.950000e-01    2.310000e+00
  TP1a   X3v  1 3.950000e-01    2.310000e+00
  TP1a   X2v  1 3.950000e-01    2.110000e+00
  TP1a   X1v  1 3.950000e-01    1.850000e+00
  TN6a   C6v  1 3.950000e-01    2.500000e+00
  TN6a   C5v  1 3.950000e-01    2.310000e+00
  TN6a   C4v  1 3.950000e-01    2.110000e+00
  TN6a   C3v  1 3.950000e-01    1.850000e+00
  TN6a   C2v  1 3.950000e-01    1.850000e+00
  TN6a   C1v  1 3.950000e-01    1.670000e+00
  TN6a   X4v  1 3.950000e-01    2.500000e+00
  TN6a   X3v  1 3.950000e-01    2.310000e+00
  TN6a   X2v  1 3.950000e-01    2.110000e+00
  TN6a   X1v  1 3.950000e-01    1.850000e+00
  TN5a   C6v  1 3.950000e-01    2.500000e+00
  TN5a   C5v  1 3.950000e-01    2.310000e+00
  TN5a   C4v  1 3.950000e-01    2.110000e+00
  TN5a   C3v  1 3.950000e-01    2.110000e+00
  TN5a   C2v  1 3.950000e-01    1.850000e+00
  TN5a   C1v  1 3.950000e-01    1.670000e+00
  TN5a   X4v  1 3.950000e-01    2.700000e+00
  TN5a   X3v  1 3.950000e-01    2.500000e+00
  TN5a   X2v  1 3.950000e-01    2.310000e+00
  TN5a   X1v  1 3.950000e-01    2.110000e+00
  TN4a   C6v  1 3.950000e-01    2.500000e+00
  TN4a   C5v  1 3.950000e-01    2.310000e+00
  TN4a   C4v  1 3.950000e-01    2.310000e+00
  TN4a   C3v  1 3.950000e-01    2.110000e+00
  TN4a   C2v  1 3.950000e-01    1.850000e+00
  TN4a   C1v  1 3.950000e-01    1.670000e+00
  TN4a   X4v  1 3.950000e-01    2.940000e+00
  TN4a   X3v  1 3.950000e-01    2.700000e+00
  TN4a   X2v  1 3.950000e-01    2.310000e+00
  TN4a   X1v  1 3.950000e-01    2.110000e+00
  TN3a   C6v  1 3.950000e-01    2.500000e+00
  TN3a   C5v  1 3.950000e-01    2.310000e+00
  TN3a   C4v  1 3.950000e-01    2.310000e+00
  TN3a   C3v  1 3.950000e-01    2.110000e+00
  TN3a   C2v  1 3.950000e-01    2.110000e+00
  TN3a   C1v  1 3.950000e-01    1.850000e+00
  TN3a   X4v  1 3.950000e-01    2.700000e+00
  TN3a   X3v  1 3.950000e-01    2.500000e+00
  TN3a   X2v  1 3.950000e-01    2.310000e+00
  TN3a   X1v  1 3.950000e-01    2.310000e+00
  TN2a   C6v  1 3.950000e-01    2.500000e+00
  TN2a   C5v  1 3.950000e-01    2.310000e+00
  TN2a   C4v  1 3.950000e-01    2.310000e+00
  TN2a   C3v  1 3.950000e-01    2.310000e+00
  TN2a   C2v  1 3.950000e-01    2.110000e+00
  TN2a   C1v  1 3.950000e-01    1.850000e+00
  TN2a   X4v  1 3.950000e-01    2.700000e+00
  TN2a   X3v  1 3.950000e-01    2.500000e+00
  TN2a   X2v  1 3.950000e-01    2.310000e+00
  TN2a   X1v  1 3.950000e-01    2.310000e+00
  TN1a   C6v  1 3.950000e-01    2.700000e+00
  TN1a   C5v  1 3.950000e-01    2.500000e+00
  TN1a   C4v  1 3.950000e-01    2.500000e+00
  TN1a   C3v  1 3.950000e-01    2.310000e+00
  TN1a   C2v  1 3.950000e-01    2.110000e+00
  TN1a   C1v  1 3.950000e-01    1.850000e+00
  TN1a   X4v  1 3.950000e-01    2.500000e+00
  TN1a   X3v  1 3.950000e-01    2.500000e+00
  TN1a   X2v  1 3.950000e-01    2.310000e+00
  TN1a   X1v  1 3.950000e-01    2.310000e+00
  TP6d   C6v  1 3.980000e-01    1.450000e+00
  TP6d   C5v  1 3.990000e-01    1.180000e+00
  TP6d   C4v  1 4.010000e-01    9.830000e-01
  TP6d   C3v  1 4.040000e-01    8.300000e-01
  TP6d   C2v  1 4.040000e-01    8.300000e-01
  TP6d   C1v  1 5.110000e-01    6.590000e-01
  TP6d   X4v  1 3.950000e-01    1.670000e+00
  TP6d   X3v  1 3.950000e-01    1.670000e+00
  TP6d   X2v  1 3.980000e-01    1.450000e+00
  TP6d   X1v  1 3.990000e-01    1.180000e+00
  TP5d   C6v  1 3.980000e-01    1.450000e+00
  TP5d   C5v  1 3.980000e-01    1.450000e+00
  TP5d   C4v  1 3.990000e-01    1.180000e+00
  TP5d   C3v  1 4.010000e-01    9.830000e-01
  TP5d   C2v  1 4.010000e-01    9.830000e-01
  TP5d   C1v  1 4.040000e-01    8.300000e-01
  TP5d   X4v  1 3.950000e-01    1.850000e+00
  TP5d   X3v  1 3.950000e-01    1.670000e+00
  TP5d   X2v  1 3.950000e-01    1.670000e+00
  TP5d   X1v  1 3.990000e-01    1.180000e+00
  TP4d   C6v  1 3.950000e-01    1.670000e+00
  TP4d   C5v  1 3.980000e-01    1.450000e+00
  TP4d   C4v  1 3.990000e-01    1.180000e+00
  TP4d   C3v  1 4.010000e-01    9.830000e-01
  TP4d   C2v  1 4.010000e-01    9.830000e-01
  TP4d   C1v  1 4.040000e-01    8.300000e-01
  TP4d   X4v  1 3.950000e-01    1.850000e+00
  TP4d   X3v  1 3.950000e-01    1.670000e+00
  TP4d   X2v  1 3.950000e-01    1.670000e+00
  TP4d   X1v  1 3.980000e-01    1.450000e+00
  TP3d   C6v  1 3.950000e-01    1.850000e+00
  TP3d   C5v  1 3.950000e-01    1.670000e+00
  TP3d   C4v  1 3.980000e-01    1.450000e+00
  TP3d   C3v  1 4.010000e-01    9.830000e-01
  TP3d   C2v  1 4.010000e-01    9.830000e-01
  TP3d   C1v  1 4.040000e-01    8.300000e-01
  TP3d   X4v  1 3.950000e-01    1.850000e+00
  TP3d   X3v  1 3.950000e-01    1.850000e+00
  TP3d   X2v  1 3.950000e-01    1.670000e+00
  TP3d   X1v  1 3.980000e-01    1.450000e+00
  TP2d   C6v  1 3.950000e-01    1.850000e+00
  TP2d   C5v  1 3.950000e-01    1.670000e+00
  TP2d   C4v  1 3.980000e-01    1.450000e+00
  TP2d   C3v  1 3.990000e-01    1.180000e+00
  TP2d   C2v  1 3.990000e-01    1.180000e+00
  TP2d   C1v  1 4.010000e-01    9.830000e-01
  TP2d   X4v  1 3.950000e-01    1.850000e+00
  TP2d   X3v  1 3.950000e-01    1.850000e+00
  TP2d   X2v  1 3.950000e-01    1.670000e+00
  TP2d   X1v  1 3.980000e-01    1.450000e+00
  TP1d   C6v  1 3.950000e-01    1.850000e+00
  TP1d   C5v  1 3.950000e-01    1.670000e+00
  TP1d   C4v  1 3.980000e-01    1.450000e+00
  TP1d   C3v  1 3.990000e-01    1.180000e+00
  TP1d   C2v  1 3.990000e-01    1.180000e+00
  TP1d   C1v  1 4.010000e-01    9.830000e-01
  TP1d   X4v  1 3.950000e-01    1.850000e+00
  TP1d   X3v  1 3.950000e-01    1.850000e+00
  TP1d   X2v  1 3.950000e-01    1.670000e+00
  TP1d   X1v  1 3.980000e-01    1.450000e+00
  TN6d   C6v  1 3.950000e-01    2.110000e+00
  TN6d   C5v  1 3.950000e-01    1.850000e+00
  TN6d   C4v  1 3.950000e-01    1.670000e+00
  TN6d   C3v  1 3.980000e-01    1.450000e+00
  TN6d   C2v  1 3.980000e-01    1.450000e+00
  TN6d   C1v  1 3.990000e-01    1.180000e+00
  TN6d   X4v  1 3.950000e-01    2.110000e+00
  TN6d   X3v  1 3.950000e-01    1.850000e+00
  TN6d   X2v  1 3.950000e-01    1.670000e+00
  TN6d   X1v  1 3.980000e-01    1.450000e+00
  TN5d   C6v  1 3.950000e-01    2.110000e+00
  TN5d   C5v  1 3.950000e-01    1.850000e+00
  TN5d   C4v  1 3.950000e-01    1.670000e+00
  TN5d   C3v  1 3.950000e-01    1.670000e+00
  TN5d   C2v  1 3.980000e-01    1.450000e+00
  TN5d   C1v  1 3.990000e-01    1.180000e+00
  TN5d   X4v  1 3.950000e-01    2.310000e+00
  TN5d   X3v  1 3.950000e-01    2.110000e+00
  TN5d   X2v  1 3.950000e-01    1.850000e+00
  TN5d   X1v  1 3.950000e-01    1.670000e+00
  TN4d   C6v  1 3.950000e-01    2.110000e+00
  TN4d   C5v  1 3.950000e-01    1.850000e+00
  TN4d   C4v  1 3.950000e-01    1.850000e+00
  TN4d   C3v  1 3.950000e-01    1.670000e+00
  TN4d   C2v  1 3.980000e-01    1.450000e+00
  TN4d   C1v  1 3.990000e-01    1.180000e+00
  TN4d   X4v  1 3.950000e-01    2.500000e+00
  TN4d   X3v  1 3.950000e-01    2.310000e+00
  TN4d   X2v  1 3.950000e-01    1.850000e+00
  TN4d   X1v  1 3.950000e-01    1.670000e+00
  TN3d   C6v  1 3.950000e-01    2.110000e+00
  TN3d   C5v  1 3.950000e-01    1.850000e+00
  TN3d   C4v  1 3.950000e-01    1.850000e+00
  TN3d   C3v  1 3.950000e-01    1.670000e+00
  TN3d   C2v  1 3.950000e-01    1.670000e+00
  TN3d   C1v  1 3.980000e-01    1.450000e+00
  TN3d   X4v  1 3.950000e-01    2.310000e+00
  TN3d   X3v  1 3.950000e-01    2.110000e+00
  TN3d   X2v  1 3.950000e-01    1.850000e+00
  TN3d   X1v  1 3.950000e-01    1.850000e+00
  TN2d   C6v  1 3.950000e-01    2.110000e+00
  TN2d   C5v  1 3.950000e-01    1.850000e+00
  TN2d   C4v  1 3.950000e-01    1.850000e+00
  TN2d   C3v  1 3.950000e-01    1.850000e+00
  TN2d   C2v  1 3.950000e-01    1.670000e+00
  TN2d   C1v  1 3.980000e-01    1.450000e+00
  TN2d   X4v  1 3.950000e-01    2.310000e+00
  TN2d   X3v  1 3.950000e-01    2.110000e+00
  TN2d   X2v  1 3.950000e-01    1.850000e+00
  TN2d   X1v  1 3.950000e-01    1.850000e+00
  TN1d   C6v  1 3.950000e-01    2.310000e+00
  TN1d   C5v  1 3.950000e-01    2.110000e+00
  TN1d   C4v  1 3.950000e-01    2.110000e+00
  TN1d   C3v  1 3.950000e-01    1.850000e+00
  TN1d   C2v  1 3.950000e-01    1.670000e+00
  TN1d   C1v  1 3.980000e-01    1.450000e+00
  TN1d   X4v  1 3.950000e-01    2.110000e+00
  TN1d   X3v  1 3.950000e-01    2.110000e+00
  TN1d   X2v  1 3.950000e-01    1.850000e+00
  TN1d   X1v  1 3.950000e-01    1.850000e+00
  TP6a   C6e  1 3.980000e-01    1.450000e+00
  TP6a   C5e  1 3.990000e-01    1.180000e+00
  TP6a   C4e  1 4.010000e-01    9.830000e-01
  TP6a   C3e  1 4.040000e-01    8.300000e-01
  TP6a   C2e  1 4.040000e-01    8.300000e-01
  TP6a   C1e  1 5.110000e-01    6.590000e-01
  TP6a   X4e  1 3.950000e-01    1.670000e+00
  TP6a   X3e  1 3.950000e-01    1.670000e+00
  TP6a   X2e  1 3.980000e-01    1.450000e+00
  TP6a   X1e  1 3.990000e-01    1.180000e+00
  TP5a   C6e  1 3.980000e-01    1.450000e+00
  TP5a   C5e  1 3.980000e-01    1.450000e+00
  TP5a   C4e  1 3.990000e-01    1.180000e+00
  TP5a   C3e  1 4.010000e-01    9.830000e-01
  TP5a   C2e  1 4.010000e-01    9.830000e-01
  TP5a   C1e  1 4.040000e-01    8.300000e-01
  TP5a   X4e  1 3.950000e-01    1.850000e+00
  TP5a   X3e  1 3.950000e-01    1.670000e+00
  TP5a   X2e  1 3.950000e-01    1.670000e+00
  TP5a   X1e  1 3.990000e-01    1.180000e+00
  TP4a   C6e  1 3.950000e-01    1.670000e+00
  TP4a   C5e  1 3.980000e-01    1.450000e+00
  TP4a   C4e  1 3.990000e-01    1.180000e+00
  TP4a   C3e  1 4.010000e-01    9.830000e-01
  TP4a   C2e  1 4.010000e-01    9.830000e-01
  TP4a   C1e  1 4.040000e-01    8.300000e-01
  TP4a   X4e  1 3.950000e-01    1.850000e+00
  TP4a   X3e  1 3.950000e-01    1.670000e+00
  TP4a   X2e  1 3.950000e-01    1.670000e+00
  TP4a   X1e  1 3.980000e-01    1.450000e+00
  TP3a   C6e  1 3.950000e-01    1.850000e+00
  TP3a   C5e  1 3.950000e-01    1.670000e+00
  TP3a   C4e  1 3.980000e-01    1.450000e+00
  TP3a   C3e  1 4.010000e-01    9.830000e-01
  TP3a   C2e  1 4.010000e-01    9.830000e-01
  TP3a   C1e  1 4.040000e-01    8.300000e-01
  TP3a   X4e  1 3.950000e-01    1.850000e+00
  TP3a   X3e  1 3.950000e-01    1.850000e+00
  TP3a   X2e  1 3.950000e-01    1.670000e+00
  TP3a   X1e  1 3.980000e-01    1.450000e+00
  TP2a   C6e  1 3.950000e-01    1.850000e+00
  TP2a   C5e  1 3.950000e-01    1.670000e+00
  TP2a   C4e  1 3.980000e-01    1.450000e+00
  TP2a   C3e  1 3.990000e-01    1.180000e+00
  TP2a   C2e  1 3.990000e-01    1.180000e+00
  TP2a   C1e  1 4.010000e-01    9.830000e-01
  TP2a   X4e  1 3.950000e-01    1.850000e+00
  TP2a   X3e  1 3.950000e-01    1.850000e+00
  TP2a   X2e  1 3.950000e-01    1.670000e+00
  TP2a   X1e  1 3.980000e-01    1.450000e+00
  TP1a   C6e  1 3.950000e-01    1.850000e+00
  TP1a   C5e  1 3.950000e-01    1.670000e+00
  TP1a   C4e  1 3.980000e-01    1.450000e+00
  TP1a   C3e  1 3.990000e-01    1.180000e+00
  TP1a   C2e  1 3.990000e-01    1.180000e+00
  TP1a   C1e  1 4.010000e-01    9.830000e-01
  TP1a   X4e  1 3.950000e-01    1.850000e+00
  TP1a   X3e  1 3.950000e-01    1.850000e+00
  TP1a   X2e  1 3.950000e-01    1.670000e+00
  TP1a   X1e  1 3.980000e-01    1.450000e+00
  TN6a   C6e  1 3.950000e-01    2.110000e+00
  TN6a   C5e  1 3.950000e-01    1.850000e+00
  TN6a   C4e  1 3.950000e-01    1.670000e+00
  TN6a   C3e  1 3.980000e-01    1.450000e+00
  TN6a   C2e  1 3.980000e-01    1.450000e+00
  TN6a   C1e  1 3.990000e-01    1.180000e+00
  TN6a   X4e  1 3.950000e-01    2.110000e+00
  TN6a   X3e  1 3.950000e-01    1.850000e+00
  TN6a   X2e  1 3.950000e-01    1.670000e+00
  TN6a   X1e  1 3.980000e-01    1.450000e+00
  TN5a   C6e  1 3.950000e-01    2.110000e+00
  TN5a   C5e  1 3.950000e-01    1.850000e+00
  TN5a   C4e  1 3.950000e-01    1.670000e+00
  TN5a   C3e  1 3.950000e-01    1.670000e+00
  TN5a   C2e  1 3.980000e-01    1.450000e+00
  TN5a   C1e  1 3.990000e-01    1.180000e+00
  TN5a   X4e  1 3.950000e-01    2.310000e+00
  TN5a   X3e  1 3.950000e-01    2.110000e+00
  TN5a   X2e  1 3.950000e-01    1.850000e+00
  TN5a   X1e  1 3.950000e-01    1.670000e+00
  TN4a   C6e  1 3.950000e-01    2.110000e+00
  TN4a   C5e  1 3.950000e-01    1.850000e+00
  TN4a   C4e  1 3.950000e-01    1.850000e+00
  TN4a   C3e  1 3.950000e-01    1.670000e+00
  TN4a   C2e  1 3.980000e-01    1.450000e+00
  TN4a   C1e  1 3.990000e-01    1.180000e+00
  TN4a   X4e  1 3.950000e-01    2.500000e+00
  TN4a   X3e  1 3.950000e-01    2.310000e+00
  TN4a   X2e  1 3.950000e-01    1.850000e+00
  TN4a   X1e  1 3.950000e-01    1.670000e+00
  TN3a   C6e  1 3.950000e-01    2.110000e+00
  TN3a   C5e  1 3.950000e-01    1.850000e+00
  TN3a   C4e  1 3.950000e-01    1.850000e+00
  TN3a   C3e  1 3.950000e-01    1.670000e+00
  TN3a   C2e  1 3.950000e-01    1.670000e+00
  TN3a   C1e  1 3.980000e-01    1.450000e+00
  TN3a   X4e  1 3.950000e-01    2.310000e+00
  TN3a   X3e  1 3.950000e-01    2.110000e+00
  TN3a   X2e  1 3.950000e-01    1.850000e+00
  TN3a   X1e  1 3.950000e-01    1.850000e+00
  TN2a   C6e  1 3.950000e-01    2.110000e+00
  TN2a   C5e  1 3.950000e-01    1.850000e+00
  TN2a   C4e  1 3.950000e-01    1.850000e+00
  TN2a   C3e  1 3.950000e-01    1.850000e+00
  TN2a   C2e  1 3.950000e-01    1.670000e+00
  TN2a   C1e  1 3.980000e-01    1.450000e+00
  TN2a   X4e  1 3.950000e-01    2.310000e+00
  TN2a   X3e  1 3.950000e-01    2.110000e+00
  TN2a   X2e  1 3.950000e-01    1.850000e+00
  TN2a   X1e  1 3.950000e-01    1.850000e+00
  TN1a   C6e  1 3.950000e-01    2.310000e+00
  TN1a   C5e  1 3.950000e-01    2.110000e+00
  TN1a   C4e  1 3.950000e-01    2.110000e+00
  TN1a   C3e  1 3.950000e-01    1.850000e+00
  TN1a   C2e  1 3.950000e-01    1.670000e+00
  TN1a   C1e  1 3.980000e-01    1.450000e+00
  TN1a   X4e  1 3.950000e-01    2.110000e+00
  TN1a   X3e  1 3.950000e-01    2.110000e+00
  TN1a   X2e  1 3.950000e-01    1.850000e+00
  TN1a   X1e  1 3.950000e-01    1.850000e+00
  TP6q   P6d  1 3.950000e-01    4.870000e+00
  TP6q   N1d  1 3.950000e-01    2.110000e+00
  TP6q   N2d  1 3.950000e-01    2.310000e+00
  TP6q   N3d  1 3.950000e-01    2.500000e+00
  TP6q   N4d  1 3.950000e-01    2.700000e+00
  TP6q   N5d  1 3.950000e-01    2.940000e+00
  TP6q   N6d  1 3.950000e-01    3.430000e+00
  TP6q   P1d  1 3.950000e-01    3.670000e+00
  TP6q   P2d  1 3.950000e-01    3.910000e+00
  TP6q   P3d  1 3.950000e-01    3.910000e+00
  TP6q   P4d  1 3.950000e-01    4.230000e+00
  TP6q   P5d  1 3.950000e-01    4.540000e+00
  TP6q   P6a  1 3.950000e-01    4.870000e+00
  TP6q   N1a  1 3.950000e-01    2.110000e+00
  TP6q   N2a  1 3.950000e-01    2.310000e+00
  TP6q   N3a  1 3.950000e-01    2.500000e+00
  TP6q   N4a  1 3.950000e-01    2.700000e+00
  TP6q   N5a  1 3.950000e-01    2.940000e+00
  TP6q   N6a  1 3.950000e-01    3.430000e+00
  TP6q   P1a  1 3.950000e-01    3.670000e+00
  TP6q   P2a  1 3.950000e-01    3.910000e+00
  TP6q   P3a  1 3.950000e-01    3.910000e+00
  TP6q   P4a  1 3.950000e-01    4.230000e+00
  TP6q   P5a  1 3.950000e-01    4.540000e+00
  TP6q   C6v  1 3.950000e-01    2.310000e+00
  TP6q   C5v  1 3.950000e-01    2.110000e+00
  TP6q   C4v  1 3.950000e-01    1.850000e+00
  TP6q   C3v  1 3.950000e-01    1.670000e+00
  TP6q   C2v  1 3.950000e-01    1.670000e+00
  TP6q   C1v  1 3.990000e-01    1.180000e+00
  TP6q   X4v  1 3.950000e-01    2.500000e+00
  TP6q   X3v  1 3.950000e-01    2.500000e+00
  TP6q   X2v  1 3.950000e-01    2.310000e+00
  TP6q   X1v  1 3.950000e-01    2.110000e+00
  TP6q   C6e  1 3.950000e-01    2.310000e+00
  TP6q   C5e  1 3.950000e-01    2.110000e+00
  TP6q   C4e  1 3.950000e-01    1.850000e+00
  TP6q   C3e  1 3.950000e-01    1.670000e+00
  TP6q   C2e  1 3.950000e-01    1.670000e+00
  TP6q   C1e  1 3.990000e-01    1.180000e+00
  TP6q   X4e  1 3.950000e-01    2.500000e+00
  TP6q   X3e  1 3.950000e-01    2.500000e+00
  TP6q   X2e  1 3.950000e-01    2.310000e+00
  TP6q   X1e  1 3.950000e-01    2.110000e+00
  TP6d   P5q  1 3.950000e-01    4.540000e+00
  TP5q   P5d  1 3.950000e-01    4.230000e+00
  TP5q   N1d  1 3.950000e-01    2.110000e+00
  TP5q   N2d  1 3.950000e-01    2.310000e+00
  TP5q   N3d  1 3.950000e-01    2.500000e+00
  TP5q   N4d  1 3.950000e-01    2.940000e+00
  TP5q   N5d  1 3.950000e-01    2.940000e+00
  TP5q   N6d  1 3.950000e-01    3.190000e+00
  TP5q   P1d  1 3.950000e-01    3.430000e+00
  TP5q   P2d  1 3.950000e-01    3.670000e+00
  TP5q   P3d  1 3.950000e-01    3.670000e+00
  TP5q   P4d  1 3.950000e-01    3.910000e+00
  TP6a   P5q  1 3.950000e-01    4.540000e+00
  TP5q   P5a  1 3.950000e-01    4.230000e+00
  TP5q   N1a  1 3.950000e-01    2.110000e+00
  TP5q   N2a  1 3.950000e-01    2.310000e+00
  TP5q   N3a  1 3.950000e-01    2.500000e+00
  TP5q   N4a  1 3.950000e-01    2.940000e+00
  TP5q   N5a  1 3.950000e-01    2.940000e+00
  TP5q   N6a  1 3.950000e-01    3.190000e+00
  TP5q   P1a  1 3.950000e-01    3.430000e+00
  TP5q   P2a  1 3.950000e-01    3.670000e+00
  TP5q   P3a  1 3.950000e-01    3.670000e+00
  TP5q   P4a  1 3.950000e-01    3.910000e+00
  TP5q   C6v  1 3.950000e-01    2.310000e+00
  TP5q   C5v  1 3.950000e-01    2.310000e+00
  TP5q   C4v  1 3.950000e-01    2.110000e+00
  TP5q   C3v  1 3.950000e-01    1.850000e+00
  TP5q   C2v  1 3.950000e-01    1.850000e+00
  TP5q   C1v  1 3.950000e-01    1.670000e+00
  TP5q   X4v  1 3.950000e-01    2.700000e+00
  TP5q   X3v  1 3.950000e-01    2.500000e+00
  TP5q   X2v  1 3.950000e-01    2.500000e+00
  TP5q   X1v  1 3.950000e-01    2.110000e+00
  TP5q   C6e  1 3.950000e-01    2.310000e+00
  TP5q   C5e  1 3.950000e-01    2.310000e+00
  TP5q   C4e  1 3.950000e-01    2.110000e+00
  TP5q   C3e  1 3.950000e-01    1.850000e+00
  TP5q   C2e  1 3.950000e-01    1.850000e+00
  TP5q   C1e  1 3.950000e-01    1.670000e+00
  TP5q   X4e  1 3.950000e-01    2.700000e+00
  TP5q   X3e  1 3.950000e-01    2.500000e+00
  TP5q   X2e  1 3.950000e-01    2.500000e+00
  TP5q   X1e  1 3.950000e-01    2.110000e+00
  TP6d   P4q  1 3.950000e-01    4.230000e+00
  TP5d   P4q  1 3.950000e-01    3.910000e+00
  TP4q   P4d  1 3.950000e-01    3.910000e+00
  TP4q   N1d  1 3.950000e-01    2.310000e+00
  TP4q   N2d  1 3.950000e-01    2.500000e+00
  TP4q   N3d  1 3.950000e-01    2.700000e+00
  TP4q   N4d  1 3.950000e-01    2.940000e+00
  TP4q   N5d  1 3.950000e-01    2.940000e+00
  TP4q   N6d  1 3.950000e-01    3.190000e+00
  TP4q   P1d  1 3.950000e-01    3.430000e+00
  TP4q   P2d  1 3.950000e-01    3.670000e+00
  TP4q   P3d  1 3.950000e-01    3.670000e+00
  TP6a   P4q  1 3.950000e-01    4.230000e+00
  TP5a   P4q  1 3.950000e-01    3.910000e+00
  TP4q   P4a  1 3.950000e-01    3.910000e+00
  TP4q   N1a  1 3.950000e-01    2.310000e+00
  TP4q   N2a  1 3.950000e-01    2.500000e+00
  TP4q   N3a  1 3.950000e-01    2.700000e+00
  TP4q   N4a  1 3.950000e-01    2.940000e+00
  TP4q   N5a  1 3.950000e-01    2.940000e+00
  TP4q   N6a  1 3.950000e-01    3.190000e+00
  TP4q   P1a  1 3.950000e-01    3.430000e+00
  TP4q   P2a  1 3.950000e-01    3.670000e+00
  TP4q   P3a  1 3.950000e-01    3.670000e+00
  TP4q   C6v  1 3.950000e-01    2.500000e+00
  TP4q   C5v  1 3.950000e-01    2.310000e+00
  TP4q   C4v  1 3.950000e-01    2.110000e+00
  TP4q   C3v  1 3.950000e-01    1.850000e+00
  TP4q   C2v  1 3.950000e-01    1.850000e+00
  TP4q   C1v  1 3.950000e-01    1.670000e+00
  TP4q   X4v  1 3.950000e-01    2.700000e+00
  TP4q   X3v  1 3.950000e-01    2.500000e+00
  TP4q   X2v  1 3.950000e-01    2.500000e+00
  TP4q   X1v  1 3.950000e-01    2.310000e+00
  TP4q   C6e  1 3.950000e-01    2.500000e+00
  TP4q   C5e  1 3.950000e-01    2.310000e+00
  TP4q   C4e  1 3.950000e-01    2.110000e+00
  TP4q   C3e  1 3.950000e-01    1.850000e+00
  TP4q   C2e  1 3.950000e-01    1.850000e+00
  TP4q   C1e  1 3.950000e-01    1.670000e+00
  TP4q   X4e  1 3.950000e-01    2.700000e+00
  TP4q   X3e  1 3.950000e-01    2.500000e+00
  TP4q   X2e  1 3.950000e-01    2.500000e+00
  TP4q   X1e  1 3.950000e-01    2.310000e+00
  TP6d   P3q  1 3.950000e-01    3.910000e+00
  TP5d   P3q  1 3.950000e-01    3.670000e+00
  TP4d   P3q  1 3.950000e-01    3.670000e+00
  TP3q   P3d  1 3.950000e-01    3.670000e+00
  TP3q   N1d  1 3.950000e-01    2.500000e+00
  TP3q   N2d  1 3.950000e-01    2.700000e+00
  TP3q   N3d  1 3.950000e-01    2.700000e+00
  TP3q   N4d  1 3.950000e-01    2.940000e+00
  TP3q   N5d  1 3.950000e-01    2.940000e+00
  TP3q   N6d  1 3.950000e-01    3.190000e+00
  TP3q   P1d  1 3.950000e-01    3.430000e+00
  TP3q   P2d  1 3.950000e-01    3.670000e+00
  TP6a   P3q  1 3.950000e-01    3.910000e+00
  TP5a   P3q  1 3.950000e-01    3.670000e+00
  TP4a   P3q  1 3.950000e-01    3.670000e+00
  TP3q   P3a  1 3.950000e-01    3.670000e+00
  TP3q   N1a  1 3.950000e-01    2.500000e+00
  TP3q   N2a  1 3.950000e-01    2.700000e+00
  TP3q   N3a  1 3.950000e-01    2.700000e+00
  TP3q   N4a  1 3.950000e-01    2.940000e+00
  TP3q   N5a  1 3.950000e-01    2.940000e+00
  TP3q   N6a  1 3.950000e-01    3.190000e+00
  TP3q   P1a  1 3.950000e-01    3.430000e+00
  TP3q   P2a  1 3.950000e-01    3.670000e+00
  TP3q   C6v  1 3.950000e-01    2.700000e+00
  TP3q   C5v  1 3.950000e-01    2.500000e+00
  TP3q   C4v  1 3.950000e-01    2.310000e+00
  TP3q   C3v  1 3.950000e-01    1.850000e+00
  TP3q   C2v  1 3.950000e-01    1.850000e+00
  TP3q   C1v  1 3.950000e-01    1.670000e+00
  TP3q   X4v  1 3.950000e-01    2.700000e+00
  TP3q   X3v  1 3.950000e-01    2.700000e+00
  TP3q   X2v  1 3.950000e-01    2.500000e+00
  TP3q   X1v  1 3.950000e-01    2.310000e+00
  TP3q   C6e  1 3.950000e-01    2.700000e+00
  TP3q   C5e  1 3.950000e-01    2.500000e+00
  TP3q   C4e  1 3.950000e-01    2.310000e+00
  TP3q   C3e  1 3.950000e-01    1.850000e+00
  TP3q   C2e  1 3.950000e-01    1.850000e+00
  TP3q   C1e  1 3.950000e-01    1.670000e+00
  TP3q   X4e  1 3.950000e-01    2.700000e+00
  TP3q   X3e  1 3.950000e-01    2.700000e+00
  TP3q   X2e  1 3.950000e-01    2.500000e+00
  TP3q   X1e  1 3.950000e-01    2.310000e+00
  TP6d   P2q  1 3.950000e-01    3.910000e+00
  TP5d   P2q  1 3.950000e-01    3.670000e+00
  TP4d   P2q  1 3.950000e-01    3.670000e+00
  TP3d   P2q  1 3.950000e-01    3.670000e+00
  TP2q   P2d  1 3.950000e-01    3.670000e+00
  TP2q   N1d  1 3.950000e-01    2.700000e+00
  TP2q   N2d  1 3.950000e-01    2.700000e+00
  TP2q   N3d  1 3.950000e-01    2.700000e+00
  TP2q   N4d  1 3.950000e-01    2.940000e+00
  TP2q   N5d  1 3.950000e-01    3.190000e+00
  TP2q   N6d  1 3.950000e-01    3.430000e+00
  TP2q   P1d  1 3.950000e-01    3.430000e+00
  TP6a   P2q  1 3.950000e-01    3.910000e+00
  TP5a   P2q  1 3.950000e-01    3.670000e+00
  TP4a   P2q  1 3.950000e-01    3.670000e+00
  TP3a   P2q  1 3.950000e-01    3.670000e+00
  TP2q   P2a  1 3.950000e-01    3.670000e+00
  TP2q   N1a  1 3.950000e-01    2.700000e+00
  TP2q   N2a  1 3.950000e-01    2.700000e+00
  TP2q   N3a  1 3.950000e-01    2.700000e+00
  TP2q   N4a  1 3.950000e-01    2.940000e+00
  TP2q   N5a  1 3.950000e-01    3.190000e+00
  TP2q   N6a  1 3.950000e-01    3.430000e+00
  TP2q   P1a  1 3.950000e-01    3.430000e+00
  TP2q   C6v  1 3.950000e-01    2.700000e+00
  TP2q   C5v  1 3.950000e-01    2.500000e+00
  TP2q   C4v  1 3.950000e-01    2.310000e+00
  TP2q   C3v  1 3.950000e-01    2.110000e+00
  TP2q   C2v  1 3.950000e-01    2.110000e+00
  TP2q   C1v  1 3.950000e-01    1.850000e+00
  TP2q   X4v  1 3.950000e-01    2.700000e+00
  TP2q   X3v  1 3.950000e-01    2.700000e+00
  TP2q   X2v  1 3.950000e-01    2.500000e+00
  TP2q   X1v  1 3.950000e-01    2.310000e+00
  TP2q   C6e  1 3.950000e-01    2.700000e+00
  TP2q   C5e  1 3.950000e-01    2.500000e+00
  TP2q   C4e  1 3.950000e-01    2.310000e+00
  TP2q   C3e  1 3.950000e-01    2.110000e+00
  TP2q   C2e  1 3.950000e-01    2.110000e+00
  TP2q   C1e  1 3.950000e-01    1.850000e+00
  TP2q   X4e  1 3.950000e-01    2.700000e+00
  TP2q   X3e  1 3.950000e-01    2.700000e+00
  TP2q   X2e  1 3.950000e-01    2.500000e+00
  TP2q   X1e  1 3.950000e-01    2.310000e+00
  TP6d   P1q  1 3.950000e-01    3.670000e+00
  TP5d   P1q  1 3.950000e-01    3.430000e+00
  TP4d   P1q  1 3.950000e-01    3.430000e+00
  TP3d   P1q  1 3.950000e-01    3.430000e+00
  TP2d   P1q  1 3.950000e-01    3.430000e+00
  TP1q   P1d  1 3.950000e-01    3.430000e+00
  TP1q   N1d  1 3.950000e-01    2.700000e+00
  TP1q   N2d  1 3.950000e-01    2.700000e+00
  TP1q   N3d  1 3.950000e-01    2.700000e+00
  TP1q   N4d  1 3.950000e-01    3.190000e+00
  TP1q   N5d  1 3.950000e-01    3.190000e+00
  TP1q   N6d  1 3.950000e-01    3.430000e+00
  TP6a   P1q  1 3.950000e-01    3.670000e+00
  TP5a   P1q  1 3.950000e-01    3.430000e+00
  TP4a   P1q  1 3.950000e-01    3.430000e+00
  TP3a   P1q  1 3.950000e-01    3.430000e+00
  TP2a   P1q  1 3.950000e-01    3.430000e+00
  TP1q   P1a  1 3.950000e-01    3.430000e+00
  TP1q   N1a  1 3.950000e-01    2.700000e+00
  TP1q   N2a  1 3.950000e-01    2.700000e+00
  TP1q   N3a  1 3.950000e-01    2.700000e+00
  TP1q   N4a  1 3.950000e-01    3.190000e+00
  TP1q   N5a  1 3.950000e-01    3.190000e+00
  TP1q   N6a  1 3.950000e-01    3.430000e+00
  TP1q   C6v  1 3.950000e-01    2.700000e+00
  TP1q   C5v  1 3.950000e-01    2.500000e+00
  TP1q   C4v  1 3.950000e-01    2.310000e+00
  TP1q   C3v  1 3.950000e-01    2.110000e+00
  TP1q   C2v  1 3.950000e-01    2.110000e+00
  TP1q   C1v  1 3.950000e-01    1.850000e+00
  TP1q   X4v  1 3.950000e-01    2.700000e+00
  TP1q   X3v  1 3.950000e-01    2.700000e+00
  TP1q   X2v  1 3.950000e-01    2.500000e+00
  TP1q   X1v  1 3.950000e-01    2.310000e+00
  TP1q   C6e  1 3.950000e-01    2.700000e+00
  TP1q   C5e  1 3.950000e-01    2.500000e+00
  TP1q   C4e  1 3.950000e-01    2.310000e+00
  TP1q   C3e  1 3.950000e-01    2.110000e+00
  TP1q   C2e  1 3.950000e-01    2.110000e+00
  TP1q   C1e  1 3.950000e-01    1.850000e+00
  TP1q   X4e  1 3.950000e-01    2.700000e+00
  TP1q   X3e  1 3.950000e-01    2.700000e+00
  TP1q   X2e  1 3.950000e-01    2.500000e+00
  TP1q   X1e  1 3.950000e-01    2.310000e+00
  TP6d   N6q  1 3.950000e-01    3.430000e+00
  TP5d   N6q  1 3.950000e-01    3.190000e+00
  TP4d   N6q  1 3.950000e-01    3.190000e+00
  TP3d   N6q  1 3.950000e-01    3.190000e+00
  TP2d   N6q  1 3.950000e-01    3.430000e+00
  TP1d   N6q  1 3.950000e-01    3.430000e+00
  TN6q   N6d  1 3.950000e-01    3.430000e+00
  TN6q   N1d  1 3.950000e-01    2.700000e+00
  TN6q   N2d  1 3.950000e-01    2.700000e+00
  TN6q   N3d  1 3.950000e-01    2.940000e+00
  TN6q   N4d  1 3.950000e-01    3.430000e+00
  TN6q   N5d  1 3.950000e-01    3.430000e+00
  TP6a   N6q  1 3.950000e-01    3.430000e+00
  TP5a   N6q  1 3.950000e-01    3.190000e+00
  TP4a   N6q  1 3.950000e-01    3.190000e+00
  TP3a   N6q  1 3.950000e-01    3.190000e+00
  TP2a   N6q  1 3.950000e-01    3.430000e+00
  TP1a   N6q  1 3.950000e-01    3.430000e+00
  TN6q   N6a  1 3.950000e-01    3.430000e+00
  TN6q   N1a  1 3.950000e-01    2.700000e+00
  TN6q   N2a  1 3.950000e-01    2.700000e+00
  TN6q   N3a  1 3.950000e-01    2.940000e+00
  TN6q   N4a  1 3.950000e-01    3.430000e+00
  TN6q   N5a  1 3.950000e-01    3.430000e+00
  TN6q   C6v  1 3.950000e-01    2.940000e+00
  TN6q   C5v  1 3.950000e-01    2.700000e+00
  TN6q   C4v  1 3.950000e-01    2.500000e+00
  TN6q   C3v  1 3.950000e-01    2.310000e+00
  TN6q   C2v  1 3.950000e-01    2.310000e+00
  TN6q   C1v  1 3.950000e-01    2.110000e+00
  TN6q   X4v  1 3.950000e-01    2.940000e+00
  TN6q   X3v  1 3.950000e-01    2.700000e+00
  TN6q   X2v  1 3.950000e-01    2.500000e+00
  TN6q   X1v  1 3.950000e-01    2.310000e+00
  TN6q   C6e  1 3.950000e-01    2.940000e+00
  TN6q   C5e  1 3.950000e-01    2.700000e+00
  TN6q   C4e  1 3.950000e-01    2.500000e+00
  TN6q   C3e  1 3.950000e-01    2.310000e+00
  TN6q   C2e  1 3.950000e-01    2.310000e+00
  TN6q   C1e  1 3.950000e-01    2.110000e+00
  TN6q   X4e  1 3.950000e-01    2.940000e+00
  TN6q   X3e  1 3.950000e-01    2.700000e+00
  TN6q   X2e  1 3.950000e-01    2.500000e+00
  TN6q   X1e  1 3.950000e-01    2.310000e+00
  TP6d   N5q  1 3.950000e-01    2.940000e+00
  TP5d   N5q  1 3.950000e-01    2.940000e+00
  TP4d   N5q  1 3.950000e-01    2.940000e+00
  TP3d   N5q  1 3.950000e-01    2.940000e+00
  TP2d   N5q  1 3.950000e-01    3.190000e+00
  TP1d   N5q  1 3.950000e-01    3.190000e+00
  TN6d   N5q  1 3.950000e-01    3.430000e+00
  TN5q   N5d  1 3.950000e-01    3.190000e+00
  TN5q   N1d  1 3.950000e-01    2.700000e+00
  TN5q   N2d  1 3.950000e-01    2.940000e+00
  TN5q   N3d  1 3.950000e-01    2.940000e+00
  TN5q   N4d  1 3.950000e-01    3.190000e+00
  TP6a   N5q  1 3.950000e-01    2.940000e+00
  TP5a   N5q  1 3.950000e-01    2.940000e+00
  TP4a   N5q  1 3.950000e-01    2.940000e+00
  TP3a   N5q  1 3.950000e-01    2.940000e+00
  TP2a   N5q  1 3.950000e-01    3.190000e+00
  TP1a   N5q  1 3.950000e-01    3.190000e+00
  TN6a   N5q  1 3.950000e-01    3.430000e+00
  TN5q   N5a  1 3.950000e-01    3.190000e+00
  TN5q   N1a  1 3.950000e-01    2.700000e+00
  TN5q   N2a  1 3.950000e-01    2.940000e+00
  TN5q   N3a  1 3.950000e-01    2.940000e+00
  TN5q   N4a  1 3.950000e-01    3.190000e+00
  TN5q   C6v  1 3.950000e-01    2.940000e+00
  TN5q   C5v  1 3.950000e-01    2.700000e+00
  TN5q   C4v  1 3.950000e-01    2.500000e+00
  TN5q   C3v  1 3.950000e-01    2.500000e+00
  TN5q   C2v  1 3.950000e-01    2.310000e+00
  TN5q   C1v  1 3.950000e-01    2.110000e+00
  TN5q   X4v  1 3.950000e-01    3.190000e+00
  TN5q   X3v  1 3.950000e-01    2.940000e+00
  TN5q   X2v  1 3.950000e-01    2.700000e+00
  TN5q   X1v  1 3.950000e-01    2.500000e+00
  TN5q   C6e  1 3.950000e-01    2.940000e+00
  TN5q   C5e  1 3.950000e-01    2.700000e+00
  TN5q   C4e  1 3.950000e-01    2.500000e+00
  TN5q   C3e  1 3.950000e-01    2.500000e+00
  TN5q   C2e  1 3.950000e-01    2.310000e+00
  TN5q   C1e  1 3.950000e-01    2.110000e+00
  TN5q   X4e  1 3.950000e-01    3.190000e+00
  TN5q   X3e  1 3.950000e-01    2.940000e+00
  TN5q   X2e  1 3.950000e-01    2.700000e+00
  TN5q   X1e  1 3.950000e-01    2.500000e+00
  TP6d   N4q  1 3.950000e-01    2.700000e+00
  TP5d   N4q  1 3.950000e-01    2.940000e+00
  TP4d   N4q  1 3.950000e-01    2.940000e+00
  TP3d   N4q  1 3.950000e-01    2.940000e+00
  TP2d   N4q  1 3.950000e-01    2.940000e+00
  TP1d   N4q  1 3.950000e-01    3.190000e+00
  TN6d   N4q  1 3.950000e-01    3.430000e+00
  TN5d   N4q  1 3.950000e-01    3.190000e+00
  TN4q   N4d  1 3.950000e-01    3.190000e+00
  TN4q   N1d  1 3.950000e-01    2.700000e+00
  TN4q   N2d  1 3.950000e-01    2.940000e+00
  TN4q   N3d  1 3.950000e-01    2.940000e+00
  TP6a   N4q  1 3.950000e-01    2.700000e+00
  TP5a   N4q  1 3.950000e-01    2.940000e+00
  TP4a   N4q  1 3.950000e-01    2.940000e+00
  TP3a   N4q  1 3.950000e-01    2.940000e+00
  TP2a   N4q  1 3.950000e-01    2.940000e+00
  TP1a   N4q  1 3.950000e-01    3.190000e+00
  TN6a   N4q  1 3.950000e-01    3.430000e+00
  TN5a   N4q  1 3.950000e-01    3.190000e+00
  TN4q   N4a  1 3.950000e-01    3.190000e+00
  TN4q   N1a  1 3.950000e-01    2.700000e+00
  TN4q   N2a  1 3.950000e-01    2.940000e+00
  TN4q   N3a  1 3.950000e-01    2.940000e+00
  TN4q   C6v  1 3.950000e-01    2.940000e+00
  TN4q   C5v  1 3.950000e-01    2.700000e+00
  TN4q   C4v  1 3.950000e-01    2.700000e+00
  TN4q   C3v  1 3.950000e-01    2.500000e+00
  TN4q   C2v  1 3.950000e-01    2.310000e+00
  TN4q   C1v  1 3.950000e-01    2.110000e+00
  TN4q   X4v  1 3.950000e-01    3.430000e+00
  TN4q   X3v  1 3.950000e-01    3.190000e+00
  TN4q   X2v  1 3.950000e-01    2.700000e+00
  TN4q   X1v  1 3.950000e-01    2.500000e+00
  TN4q   C6e  1 3.950000e-01    2.940000e+00
  TN4q   C5e  1 3.950000e-01    2.700000e+00
  TN4q   C4e  1 3.950000e-01    2.700000e+00
  TN4q   C3e  1 3.950000e-01    2.500000e+00
  TN4q   C2e  1 3.950000e-01    2.310000e+00
  TN4q   C1e  1 3.950000e-01    2.110000e+00
  TN4q   X4e  1 3.950000e-01    3.430000e+00
  TN4q   X3e  1 3.950000e-01    3.190000e+00
  TN4q   X2e  1 3.950000e-01    2.700000e+00
  TN4q   X1e  1 3.950000e-01    2.500000e+00
  TP6d   N3q  1 3.950000e-01    2.500000e+00
  TP5d   N3q  1 3.950000e-01    2.500000e+00
  TP4d   N3q  1 3.950000e-01    2.700000e+00
  TP3d   N3q  1 3.950000e-01    2.700000e+00
  TP2d   N3q  1 3.950000e-01    2.700000e+00
  TP1d   N3q  1 3.950000e-01    2.700000e+00
  TN6d   N3q  1 3.950000e-01    2.940000e+00
  TN5d   N3q  1 3.950000e-01    2.940000e+00
  TN4d   N3q  1 3.950000e-01    2.940000e+00
  TN3q   N3d  1 3.950000e-01    2.940000e+00
  TN3q   N1d  1 3.950000e-01    2.700000e+00
  TN3q   N2d  1 3.950000e-01    2.940000e+00
  TP6a   N3q  1 3.950000e-01    2.500000e+00
  TP5a   N3q  1 3.950000e-01    2.500000e+00
  TP4a   N3q  1 3.950000e-01    2.700000e+00
  TP3a   N3q  1 3.950000e-01    2.700000e+00
  TP2a   N3q  1 3.950000e-01    2.700000e+00
  TP1a   N3q  1 3.950000e-01    2.700000e+00
  TN6a   N3q  1 3.950000e-01    2.940000e+00
  TN5a   N3q  1 3.950000e-01    2.940000e+00
  TN4a   N3q  1 3.950000e-01    2.940000e+00
  TN3q   N3a  1 3.950000e-01    2.940000e+00
  TN3q   N1a  1 3.950000e-01    2.700000e+00
  TN3q   N2a  1 3.950000e-01    2.940000e+00
  TN3q   C6v  1 3.950000e-01    2.940000e+00
  TN3q   C5v  1 3.950000e-01    2.700000e+00
  TN3q   C4v  1 3.950000e-01    2.700000e+00
  TN3q   C3v  1 3.950000e-01    2.500000e+00
  TN3q   C2v  1 3.950000e-01    2.500000e+00
  TN3q   C1v  1 3.950000e-01    2.310000e+00
  TN3q   X4v  1 3.950000e-01    3.190000e+00
  TN3q   X3v  1 3.950000e-01    2.940000e+00
  TN3q   X2v  1 3.950000e-01    2.700000e+00
  TN3q   X1v  1 3.950000e-01    2.700000e+00
  TN3q   C6e  1 3.950000e-01    2.940000e+00
  TN3q   C5e  1 3.950000e-01    2.700000e+00
  TN3q   C4e  1 3.950000e-01    2.700000e+00
  TN3q   C3e  1 3.950000e-01    2.500000e+00
  TN3q   C2e  1 3.950000e-01    2.500000e+00
  TN3q   C1e  1 3.950000e-01    2.310000e+00
  TN3q   X4e  1 3.950000e-01    3.190000e+00
  TN3q   X3e  1 3.950000e-01    2.940000e+00
  TN3q   X2e  1 3.950000e-01    2.700000e+00
  TN3q   X1e  1 3.950000e-01    2.700000e+00
  TP6d   N2q  1 3.950000e-01    2.310000e+00
  TP5d   N2q  1 3.950000e-01    2.310000e+00
  TP4d   N2q  1 3.950000e-01    2.500000e+00
  TP3d   N2q  1 3.950000e-01    2.700000e+00
  TP2d   N2q  1 3.950000e-01    2.700000e+00
  TP1d   N2q  1 3.950000e-01    2.700000e+00
  TN6d   N2q  1 3.950000e-01    2.700000e+00
  TN5d   N2q  1 3.950000e-01    2.940000e+00
  TN4d   N2q  1 3.950000e-01    2.940000e+00
  TN3d   N2q  1 3.950000e-01    2.940000e+00
  TN2q   N2d  1 3.950000e-01    2.940000e+00
  TN2q   N1d  1 3.950000e-01    2.700000e+00
  TP6a   N2q  1 3.950000e-01    2.310000e+00
  TP5a   N2q  1 3.950000e-01    2.310000e+00
  TP4a   N2q  1 3.950000e-01    2.500000e+00
  TP3a   N2q  1 3.950000e-01    2.700000e+00
  TP2a   N2q  1 3.950000e-01    2.700000e+00
  TP1a   N2q  1 3.950000e-01    2.700000e+00
  TN6a   N2q  1 3.950000e-01    2.700000e+00
  TN5a   N2q  1 3.950000e-01    2.940000e+00
  TN4a   N2q  1 3.950000e-01    2.940000e+00
  TN3a   N2q  1 3.950000e-01    2.940000e+00
  TN2q   N2a  1 3.950000e-01    2.940000e+00
  TN2q   N1a  1 3.950000e-01    2.700000e+00
  TN2q   C6v  1 3.950000e-01    2.940000e+00
  TN2q   C5v  1 3.950000e-01    2.700000e+00
  TN2q   C4v  1 3.950000e-01    2.700000e+00
  TN2q   C3v  1 3.950000e-01    2.700000e+00
  TN2q   C2v  1 3.950000e-01    2.500000e+00
  TN2q   C1v  1 3.950000e-01    2.310000e+00
  TN2q   X4v  1 3.950000e-01    3.190000e+00
  TN2q   X3v  1 3.950000e-01    2.940000e+00
  TN2q   X2v  1 3.950000e-01    2.700000e+00
  TN2q   X1v  1 3.950000e-01    2.700000e+00
  TN2q   C6e  1 3.950000e-01    2.940000e+00
  TN2q   C5e  1 3.950000e-01    2.700000e+00
  TN2q   C4e  1 3.950000e-01    2.700000e+00
  TN2q   C3e  1 3.950000e-01    2.700000e+00
  TN2q   C2e  1 3.950000e-01    2.500000e+00
  TN2q   C1e  1 3.950000e-01    2.310000e+00
  TN2q   X4e  1 3.950000e-01    3.190000e+00
  TN2q   X3e  1 3.950000e-01    2.940000e+00
  TN2q   X2e  1 3.950000e-01    2.700000e+00
  TN2q   X1e  1 3.950000e-01    2.700000e+00
  TP6d   N1q  1 3.950000e-01    2.110000e+00
  TP5d   N1q  1 3.950000e-01    2.110000e+00
  TP4d   N1q  1 3.950000e-01    2.310000e+00
  TP3d   N1q  1 3.950000e-01    2.500000e+00
  TP2d   N1q  1 3.950000e-01    2.700000e+00
  TP1d   N1q  1 3.950000e-01    2.700000e+00
  TN6d   N1q  1 3.950000e-01    2.700000e+00
  TN5d   N1q  1 3.950000e-01    2.700000e+00
  TN4d   N1q  1 3.950000e-01    2.700000e+00
  TN3d   N1q  1 3.950000e-01    2.700000e+00
  TN2d   N1q  1 3.950000e-01    2.700000e+00
  TN1q   N1d  1 3.950000e-01    2.940000e+00
  TP6a   N1q  1 3.950000e-01    2.110000e+00
  TP5a   N1q  1 3.950000e-01    2.110000e+00
  TP4a   N1q  1 3.950000e-01    2.310000e+00
  TP3a   N1q  1 3.950000e-01    2.500000e+00
  TP2a   N1q  1 3.950000e-01    2.700000e+00
  TP1a   N1q  1 3.950000e-01    2.700000e+00
  TN6a   N1q  1 3.950000e-01    2.700000e+00
  TN5a   N1q  1 3.950000e-01    2.700000e+00
  TN4a   N1q  1 3.950000e-01    2.700000e+00
  TN3a   N1q  1 3.950000e-01    2.700000e+00
  TN2a   N1q  1 3.950000e-01    2.700000e+00
  TN1q   N1a  1 3.950000e-01    2.940000e+00
  TN1q   C6v  1 3.950000e-01    3.190000e+00
  TN1q   C5v  1 3.950000e-01    2.940000e+00
  TN1q   C4v  1 3.950000e-01    2.940000e+00
  TN1q   C3v  1 3.950000e-01    2.700000e+00
  TN1q   C2v  1 3.950000e-01    2.500000e+00
  TN1q   C1v  1 3.950000e-01    2.310000e+00
  TN1q   X4v  1 3.950000e-01    2.940000e+00
  TN1q   X3v  1 3.950000e-01    2.940000e+00
  TN1q   X2v  1 3.950000e-01    2.700000e+00
  TN1q   X1v  1 3.950000e-01    2.700000e+00
  TN1q   C6e  1 3.950000e-01    3.190000e+00
  TN1q   C5e  1 3.950000e-01    2.940000e+00
  TN1q   C4e  1 3.950000e-01    2.940000e+00
  TN1q   C3e  1 3.950000e-01    2.700000e+00
  TN1q   C2e  1 3.950000e-01    2.500000e+00
  TN1q   C1e  1 3.950000e-01    2.310000e+00
  TN1q   X4e  1 3.950000e-01    2.940000e+00
  TN1q   X3e  1 3.950000e-01    2.940000e+00
  TN1q   X2e  1 3.950000e-01    2.700000e+00
  TN1q   X1e  1 3.950000e-01    2.700000e+00
  TP6d   C6q  1 3.950000e-01    2.110000e+00
  TP5d   C6q  1 3.950000e-01    2.110000e+00
  TP4d   C6q  1 3.950000e-01    2.310000e+00
  TP3d   C6q  1 3.950000e-01    2.500000e+00
  TP2d   C6q  1 3.950000e-01    2.500000e+00
  TP1d   C6q  1 3.950000e-01    2.500000e+00
  TN6d   C6q  1 3.950000e-01    2.700000e+00
  TN5d   C6q  1 3.950000e-01    2.700000e+00
  TN4d   C6q  1 3.950000e-01    2.700000e+00
  TN3d   C6q  1 3.950000e-01    2.700000e+00
  TN2d   C6q  1 3.950000e-01    2.700000e+00
  TN1d   C6q  1 3.950000e-01    2.940000e+00
  TP6a   C6q  1 3.950000e-01    2.110000e+00
  TP5a   C6q  1 3.950000e-01    2.110000e+00
  TP4a   C6q  1 3.950000e-01    2.310000e+00
  TP3a   C6q  1 3.950000e-01    2.500000e+00
  TP2a   C6q  1 3.950000e-01    2.500000e+00
  TP1a   C6q  1 3.950000e-01    2.500000e+00
  TN6a   C6q  1 3.950000e-01    2.700000e+00
  TN5a   C6q  1 3.950000e-01    2.700000e+00
  TN4a   C6q  1 3.950000e-01    2.700000e+00
  TN3a   C6q  1 3.950000e-01    2.700000e+00
  TN2a   C6q  1 3.950000e-01    2.700000e+00
  TN1a   C6q  1 3.950000e-01    2.940000e+00
  TC6q   C6v  1 3.950000e-01    3.190000e+00
  TC6q   X1v  1 3.950000e-01    2.940000e+00
  TC6q   X2v  1 3.950000e-01    2.940000e+00
  TC6q   X3v  1 3.950000e-01    2.940000e+00
  TC6q   X4v  1 3.950000e-01    2.940000e+00
  TC6q   C1v  1 3.950000e-01    2.310000e+00
  TC6q   C2v  1 3.950000e-01    2.500000e+00
  TC6q   C3v  1 3.950000e-01    2.700000e+00
  TC6q   C4v  1 3.950000e-01    2.940000e+00
  TC6q   C5v  1 3.950000e-01    2.940000e+00
  TC6q   C6e  1 3.950000e-01    3.190000e+00
  TC6q   X1e  1 3.950000e-01    2.940000e+00
  TC6q   X2e  1 3.950000e-01    2.940000e+00
  TC6q   X3e  1 3.950000e-01    2.940000e+00
  TC6q   X4e  1 3.950000e-01    2.940000e+00
  TC6q   C1e  1 3.950000e-01    2.310000e+00
  TC6q   C2e  1 3.950000e-01    2.500000e+00
  TC6q   C3e  1 3.950000e-01    2.700000e+00
  TC6q   C4e  1 3.950000e-01    2.940000e+00
  TC6q   C5e  1 3.950000e-01    2.940000e+00
  TP6d   C5q  1 3.950000e-01    1.850000e+00
  TP5d   C5q  1 3.950000e-01    2.110000e+00
  TP4d   C5q  1 3.950000e-01    2.110000e+00
  TP3d   C5q  1 3.950000e-01    2.310000e+00
  TP2d   C5q  1 3.950000e-01    2.310000e+00
  TP1d   C5q  1 3.950000e-01    2.310000e+00
  TN6d   C5q  1 3.950000e-01    2.500000e+00
  TN5d   C5q  1 3.950000e-01    2.500000e+00
  TN4d   C5q  1 3.950000e-01    2.500000e+00
  TN3d   C5q  1 3.950000e-01    2.500000e+00
  TN2d   C5q  1 3.950000e-01    2.500000e+00
  TN1d   C5q  1 3.950000e-01    2.700000e+00
  TP6a   C5q  1 3.950000e-01    1.850000e+00
  TP5a   C5q  1 3.950000e-01    2.110000e+00
  TP4a   C5q  1 3.950000e-01    2.110000e+00
  TP3a   C5q  1 3.950000e-01    2.310000e+00
  TP2a   C5q  1 3.950000e-01    2.310000e+00
  TP1a   C5q  1 3.950000e-01    2.310000e+00
  TN6a   C5q  1 3.950000e-01    2.500000e+00
  TN5a   C5q  1 3.950000e-01    2.500000e+00
  TN4a   C5q  1 3.950000e-01    2.500000e+00
  TN3a   C5q  1 3.950000e-01    2.500000e+00
  TN2a   C5q  1 3.950000e-01    2.500000e+00
  TN1a   C5q  1 3.950000e-01    2.700000e+00
  TC6v   C5q  1 3.950000e-01    2.940000e+00
  TC5q   C5v  1 3.950000e-01    2.940000e+00
  TC5q   X1v  1 3.950000e-01    2.940000e+00
  TC5q   X2v  1 3.950000e-01    2.700000e+00
  TC5q   X3v  1 3.950000e-01    2.700000e+00
  TC5q   X4v  1 3.950000e-01    2.700000e+00
  TC5q   C1v  1 3.950000e-01    2.500000e+00
  TC5q   C2v  1 3.950000e-01    2.500000e+00
  TC5q   C3v  1 3.950000e-01    2.700000e+00
  TC5q   C4v  1 3.950000e-01    2.940000e+00
  TC6e   C5q  1 3.950000e-01    2.940000e+00
  TC5q   C5e  1 3.950000e-01    2.940000e+00
  TC5q   X1e  1 3.950000e-01    2.940000e+00
  TC5q   X2e  1 3.950000e-01    2.700000e+00
  TC5q   X3e  1 3.950000e-01    2.700000e+00
  TC5q   X4e  1 3.950000e-01    2.700000e+00
  TC5q   C1e  1 3.950000e-01    2.500000e+00
  TC5q   C2e  1 3.950000e-01    2.500000e+00
  TC5q   C3e  1 3.950000e-01    2.700000e+00
  TC5q   C4e  1 3.950000e-01    2.940000e+00
  TP6d   C4q  1 3.950000e-01    1.670000e+00
  TP5d   C4q  1 3.950000e-01    1.850000e+00
  TP4d   C4q  1 3.950000e-01    1.850000e+00
  TP3d   C4q  1 3.950000e-01    2.110000e+00
  TP2d   C4q  1 3.950000e-01    2.110000e+00
  TP1d   C4q  1 3.950000e-01    2.110000e+00
  TN6d   C4q  1 3.950000e-01    2.310000e+00
  TN5d   C4q  1 3.950000e-01    2.310000e+00
  TN4d   C4q  1 3.950000e-01    2.500000e+00
  TN3d   C4q  1 3.950000e-01    2.500000e+00
  TN2d   C4q  1 3.950000e-01    2.500000e+00
  TN1d   C4q  1 3.950000e-01    2.700000e+00
  TP6a   C4q  1 3.950000e-01    1.670000e+00
  TP5a   C4q  1 3.950000e-01    1.850000e+00
  TP4a   C4q  1 3.950000e-01    1.850000e+00
  TP3a   C4q  1 3.950000e-01    2.110000e+00
  TP2a   C4q  1 3.950000e-01    2.110000e+00
  TP1a   C4q  1 3.950000e-01    2.110000e+00
  TN6a   C4q  1 3.950000e-01    2.310000e+00
  TN5a   C4q  1 3.950000e-01    2.310000e+00
  TN4a   C4q  1 3.950000e-01    2.500000e+00
  TN3a   C4q  1 3.950000e-01    2.500000e+00
  TN2a   C4q  1 3.950000e-01    2.500000e+00
  TN1a   C4q  1 3.950000e-01    2.700000e+00
  TC6v   C4q  1 3.950000e-01    2.940000e+00
  TC5v   C4q  1 3.950000e-01    2.940000e+00
  TC4q   C4v  1 3.950000e-01    2.940000e+00
  TC4q   X1v  1 3.950000e-01    2.940000e+00
  TC4q   X2v  1 3.950000e-01    2.700000e+00
  TC4q   X3v  1 3.950000e-01    2.700000e+00
  TC4q   X4v  1 3.950000e-01    2.700000e+00
  TC4q   C1v  1 3.950000e-01    2.500000e+00
  TC4q   C2v  1 3.950000e-01    2.700000e+00
  TC4q   C3v  1 3.950000e-01    2.940000e+00
  TC6e   C4q  1 3.950000e-01    2.940000e+00
  TC5e   C4q  1 3.950000e-01    2.940000e+00
  TC4q   C4e  1 3.950000e-01    2.940000e+00
  TC4q   X1e  1 3.950000e-01    2.940000e+00
  TC4q   X2e  1 3.950000e-01    2.700000e+00
  TC4q   X3e  1 3.950000e-01    2.700000e+00
  TC4q   X4e  1 3.950000e-01    2.700000e+00
  TC4q   C1e  1 3.950000e-01    2.500000e+00
  TC4q   C2e  1 3.950000e-01    2.700000e+00
  TC4q   C3e  1 3.950000e-01    2.940000e+00
  TP6d   C3q  1 3.980000e-01    1.450000e+00
  TP5d   C3q  1 3.950000e-01    1.670000e+00
  TP4d   C3q  1 3.950000e-01    1.670000e+00
  TP3d   C3q  1 3.950000e-01    1.670000e+00
  TP2d   C3q  1 3.950000e-01    1.850000e+00
  TP1d   C3q  1 3.950000e-01    1.850000e+00
  TN6d   C3q  1 3.950000e-01    2.110000e+00
  TN5d   C3q  1 3.950000e-01    2.310000e+00
  TN4d   C3q  1 3.950000e-01    2.310000e+00
  TN3d   C3q  1 3.950000e-01    2.310000e+00
  TN2d   C3q  1 3.950000e-01    2.500000e+00
  TN1d   C3q  1 3.950000e-01    2.500000e+00
  TP6a   C3q  1 3.980000e-01    1.450000e+00
  TP5a   C3q  1 3.950000e-01    1.670000e+00
  TP4a   C3q  1 3.950000e-01    1.670000e+00
  TP3a   C3q  1 3.950000e-01    1.670000e+00
  TP2a   C3q  1 3.950000e-01    1.850000e+00
  TP1a   C3q  1 3.950000e-01    1.850000e+00
  TN6a   C3q  1 3.950000e-01    2.110000e+00
  TN5a   C3q  1 3.950000e-01    2.310000e+00
  TN4a   C3q  1 3.950000e-01    2.310000e+00
  TN3a   C3q  1 3.950000e-01    2.310000e+00
  TN2a   C3q  1 3.950000e-01    2.500000e+00
  TN1a   C3q  1 3.950000e-01    2.500000e+00
  TC6v   C3q  1 3.950000e-01    2.700000e+00
  TC5v   C3q  1 3.950000e-01    2.700000e+00
  TC4v   C3q  1 3.950000e-01    2.940000e+00
  TC3q   C3v  1 3.950000e-01    2.940000e+00
  TC3q   X1v  1 3.950000e-01    2.940000e+00
  TC3q   X2v  1 3.950000e-01    2.700000e+00
  TC3q   X3v  1 3.950000e-01    2.700000e+00
  TC3q   X4v  1 3.950000e-01    2.700000e+00
  TC3q   C1v  1 3.950000e-01    2.940000e+00
  TC3q   C2v  1 3.950000e-01    2.940000e+00
  TC6e   C3q  1 3.950000e-01    2.700000e+00
  TC5e   C3q  1 3.950000e-01    2.700000e+00
  TC4e   C3q  1 3.950000e-01    2.940000e+00
  TC3q   C3e  1 3.950000e-01    2.940000e+00
  TC3q   X1e  1 3.950000e-01    2.940000e+00
  TC3q   X2e  1 3.950000e-01    2.700000e+00
  TC3q   X3e  1 3.950000e-01    2.700000e+00
  TC3q   X4e  1 3.950000e-01    2.700000e+00
  TC3q   C1e  1 3.950000e-01    2.940000e+00
  TC3q   C2e  1 3.950000e-01    2.940000e+00
  TP6d   C2q  1 3.980000e-01    1.450000e+00
  TP5d   C2q  1 3.950000e-01    1.670000e+00
  TP4d   C2q  1 3.950000e-01    1.670000e+00
  TP3d   C2q  1 3.950000e-01    1.670000e+00
  TP2d   C2q  1 3.950000e-01    1.850000e+00
  TP1d   C2q  1 3.950000e-01    1.850000e+00
  TN6d   C2q  1 3.950000e-01    2.110000e+00
  TN5d   C2q  1 3.950000e-01    2.110000e+00
  TN4d   C2q  1 3.950000e-01    2.110000e+00
  TN3d   C2q  1 3.950000e-01    2.310000e+00
  TN2d   C2q  1 3.950000e-01    2.310000e+00
  TN1d   C2q  1 3.950000e-01    2.310000e+00
  TP6a   C2q  1 3.980000e-01    1.450000e+00
  TP5a   C2q  1 3.950000e-01    1.670000e+00
  TP4a   C2q  1 3.950000e-01    1.670000e+00
  TP3a   C2q  1 3.950000e-01    1.670000e+00
  TP2a   C2q  1 3.950000e-01    1.850000e+00
  TP1a   C2q  1 3.950000e-01    1.850000e+00
  TN6a   C2q  1 3.950000e-01    2.110000e+00
  TN5a   C2q  1 3.950000e-01    2.110000e+00
  TN4a   C2q  1 3.950000e-01    2.110000e+00
  TN3a   C2q  1 3.950000e-01    2.310000e+00
  TN2a   C2q  1 3.950000e-01    2.310000e+00
  TN1a   C2q  1 3.950000e-01    2.310000e+00
  TC6v   C2q  1 3.950000e-01    2.500000e+00
  TC5v   C2q  1 3.950000e-01    2.500000e+00
  TC4v   C2q  1 3.950000e-01    2.700000e+00
  TC3v   C2q  1 3.950000e-01    2.940000e+00
  TC2q   C2v  1 3.950000e-01    2.940000e+00
  TC2q   X1v  1 3.950000e-01    2.700000e+00
  TC2q   X2v  1 3.950000e-01    2.700000e+00
  TC2q   X3v  1 3.950000e-01    2.700000e+00
  TC2q   X4v  1 3.950000e-01    2.310000e+00
  TC2q   C1v  1 3.950000e-01    3.190000e+00
  TC6e   C2q  1 3.950000e-01    2.500000e+00
  TC5e   C2q  1 3.950000e-01    2.500000e+00
  TC4e   C2q  1 3.950000e-01    2.700000e+00
  TC3e   C2q  1 3.950000e-01    2.940000e+00
  TC2q   C2e  1 3.950000e-01    2.940000e+00
  TC2q   X1e  1 3.950000e-01    2.700000e+00
  TC2q   X2e  1 3.950000e-01    2.700000e+00
  TC2q   X3e  1 3.950000e-01    2.700000e+00
  TC2q   X4e  1 3.950000e-01    2.310000e+00
  TC2q   C1e  1 3.950000e-01    3.190000e+00
  TP6d   C1q  1 4.010000e-01    9.830000e-01
  TP5d   C1q  1 3.980000e-01    1.450000e+00
  TP4d   C1q  1 3.980000e-01    1.450000e+00
  TP3d   C1q  1 3.980000e-01    1.450000e+00
  TP2d   C1q  1 3.950000e-01    1.670000e+00
  TP1d   C1q  1 3.950000e-01    1.670000e+00
  TN6d   C1q  1 3.950000e-01    1.850000e+00
  TN5d   C1q  1 3.950000e-01    1.850000e+00
  TN4d   C1q  1 3.950000e-01    1.850000e+00
  TN3d   C1q  1 3.950000e-01    2.110000e+00
  TN2d   C1q  1 3.950000e-01    2.110000e+00
  TN1d   C1q  1 3.950000e-01    2.110000e+00
  TP6a   C1q  1 4.010000e-01    9.830000e-01
  TP5a   C1q  1 3.980000e-01    1.450000e+00
  TP4a   C1q  1 3.980000e-01    1.450000e+00
  TP3a   C1q  1 3.980000e-01    1.450000e+00
  TP2a   C1q  1 3.950000e-01    1.670000e+00
  TP1a   C1q  1 3.950000e-01    1.670000e+00
  TN6a   C1q  1 3.950000e-01    1.850000e+00
  TN5a   C1q  1 3.950000e-01    1.850000e+00
  TN4a   C1q  1 3.950000e-01    1.850000e+00
  TN3a   C1q  1 3.950000e-01    2.110000e+00
  TN2a   C1q  1 3.950000e-01    2.110000e+00
  TN1a   C1q  1 3.950000e-01    2.110000e+00
  TC6v   C1q  1 3.950000e-01    2.310000e+00
  TC5v   C1q  1 3.950000e-01    2.500000e+00
  TC4v   C1q  1 3.950000e-01    2.500000e+00
  TC3v   C1q  1 3.950000e-01    2.940000e+00
  TC2v   C1q  1 3.950000e-01    3.190000e+00
  TC1q   C1v  1 3.950000e-01    2.940000e+00
  TC1q   X1v  1 3.950000e-01    2.700000e+00
  TC1q   X2v  1 3.950000e-01    2.700000e+00
  TC1q   X3v  1 3.950000e-01    2.700000e+00
  TC1q   X4v  1 3.950000e-01    2.310000e+00
  TC6e   C1q  1 3.950000e-01    2.310000e+00
  TC5e   C1q  1 3.950000e-01    2.500000e+00
  TC4e   C1q  1 3.950000e-01    2.500000e+00
  TC3e   C1q  1 3.950000e-01    2.940000e+00
  TC2e   C1q  1 3.950000e-01    3.190000e+00
  TC1q   C1e  1 3.950000e-01    2.940000e+00
  TC1q   X1e  1 3.950000e-01    2.700000e+00
  TC1q   X2e  1 3.950000e-01    2.700000e+00
  TC1q   X3e  1 3.950000e-01    2.700000e+00
  TC1q   X4e  1 3.950000e-01    2.310000e+00
  TP6d   X4q  1 3.950000e-01    2.310000e+00
  TP5d   X4q  1 3.950000e-01    2.500000e+00
  TP4d   X4q  1 3.950000e-01    2.500000e+00
  TP3d   X4q  1 3.950000e-01    2.500000e+00
  TP2d   X4q  1 3.950000e-01    2.500000e+00
  TP1d   X4q  1 3.950000e-01    2.500000e+00
  TN6d   X4q  1 3.950000e-01    2.700000e+00
  TN5d   X4q  1 3.950000e-01    2.940000e+00
  TN4d   X4q  1 3.950000e-01    3.190000e+00
  TN3d   X4q  1 3.950000e-01    2.940000e+00
  TN2d   X4q  1 3.950000e-01    2.940000e+00
  TN1d   X4q  1 3.950000e-01    2.700000e+00
  TP6a   X4q  1 3.950000e-01    2.310000e+00
  TP5a   X4q  1 3.950000e-01    2.500000e+00
  TP4a   X4q  1 3.950000e-01    2.500000e+00
  TP3a   X4q  1 3.950000e-01    2.500000e+00
  TP2a   X4q  1 3.950000e-01    2.500000e+00
  TP1a   X4q  1 3.950000e-01    2.500000e+00
  TN6a   X4q  1 3.950000e-01    2.700000e+00
  TN5a   X4q  1 3.950000e-01    2.940000e+00
  TN4a   X4q  1 3.950000e-01    3.190000e+00
  TN3a   X4q  1 3.950000e-01    2.940000e+00
  TN2a   X4q  1 3.950000e-01    2.940000e+00
  TN1a   X4q  1 3.950000e-01    2.700000e+00
  TC6v   X4q  1 3.950000e-01    2.940000e+00
  TC5v   X4q  1 3.950000e-01    2.700000e+00
  TC4v   X4q  1 3.950000e-01    2.700000e+00
  TC3v   X4q  1 3.950000e-01    2.700000e+00
  TC2v   X4q  1 3.950000e-01    2.310000e+00
  TC1v   X4q  1 3.950000e-01    2.310000e+00
  TX4q   X4v  1 3.950000e-01    2.940000e+00
  TX4q   X1v  1 3.950000e-01    2.940000e+00
  TX4q   X2v  1 3.950000e-01    2.940000e+00
  TX4q   X3v  1 3.950000e-01    2.940000e+00
  TC6e   X4q  1 3.950000e-01    2.940000e+00
  TC5e   X4q  1 3.950000e-01    2.700000e+00
  TC4e   X4q  1 3.950000e-01    2.700000e+00
  TC3e   X4q  1 3.950000e-01    2.700000e+00
  TC2e   X4q  1 3.950000e-01    2.310000e+00
  TC1e   X4q  1 3.950000e-01    2.310000e+00
  TX4q   X4e  1 3.950000e-01    2.940000e+00
  TX4q   X1e  1 3.950000e-01    2.940000e+00
  TX4q   X2e  1 3.950000e-01    2.940000e+00
  TX4q   X3e  1 3.950000e-01    2.940000e+00
  TP6d   X3q  1 3.950000e-01    2.310000e+00
  TP5d   X3q  1 3.950000e-01    2.310000e+00
  TP4d   X3q  1 3.950000e-01    2.310000e+00
  TP3d   X3q  1 3.950000e-01    2.500000e+00
  TP2d   X3q  1 3.950000e-01    2.500000e+00
  TP1d   X3q  1 3.950000e-01    2.500000e+00
  TN6d   X3q  1 3.950000e-01    2.500000e+00
  TN5d   X3q  1 3.950000e-01    2.700000e+00
  TN4d   X3q  1 3.950000e-01    2.940000e+00
  TN3d   X3q  1 3.950000e-01    2.700000e+00
  TN2d   X3q  1 3.950000e-01    2.700000e+00
  TN1d   X3q  1 3.950000e-01    2.700000e+00
  TP6a   X3q  1 3.950000e-01    2.310000e+00
  TP5a   X3q  1 3.950000e-01    2.310000e+00
  TP4a   X3q  1 3.950000e-01    2.310000e+00
  TP3a   X3q  1 3.950000e-01    2.500000e+00
  TP2a   X3q  1 3.950000e-01    2.500000e+00
  TP1a   X3q  1 3.950000e-01    2.500000e+00
  TN6a   X3q  1 3.950000e-01    2.500000e+00
  TN5a   X3q  1 3.950000e-01    2.700000e+00
  TN4a   X3q  1 3.950000e-01    2.940000e+00
  TN3a   X3q  1 3.950000e-01    2.700000e+00
  TN2a   X3q  1 3.950000e-01    2.700000e+00
  TN1a   X3q  1 3.950000e-01    2.700000e+00
  TC6v   X3q  1 3.950000e-01    2.940000e+00
  TC5v   X3q  1 3.950000e-01    2.700000e+00
  TC4v   X3q  1 3.950000e-01    2.700000e+00
  TC3v   X3q  1 3.950000e-01    2.700000e+00
  TC2v   X3q  1 3.950000e-01    2.700000e+00
  TC1v   X3q  1 3.950000e-01    2.700000e+00
  TX4v   X3q  1 3.950000e-01    2.940000e+00
  TX3q   X3v  1 3.950000e-01    2.940000e+00
  TX3q   X1v  1 3.950000e-01    3.190000e+00
  TX3q   X2v  1 3.950000e-01    3.190000e+00
  TC6e   X3q  1 3.950000e-01    2.940000e+00
  TC5e   X3q  1 3.950000e-01    2.700000e+00
  TC4e   X3q  1 3.950000e-01    2.700000e+00
  TC3e   X3q  1 3.950000e-01    2.700000e+00
  TC2e   X3q  1 3.950000e-01    2.700000e+00
  TC1e   X3q  1 3.950000e-01    2.700000e+00
  TX4e   X3q  1 3.950000e-01    2.940000e+00
  TX3q   X3e  1 3.950000e-01    2.940000e+00
  TX3q   X1e  1 3.950000e-01    3.190000e+00
  TX3q   X2e  1 3.950000e-01    3.190000e+00
  TP6d   X2q  1 3.950000e-01    2.110000e+00
  TP5d   X2q  1 3.950000e-01    2.310000e+00
  TP4d   X2q  1 3.950000e-01    2.310000e+00
  TP3d   X2q  1 3.950000e-01    2.310000e+00
  TP2d   X2q  1 3.950000e-01    2.310000e+00
  TP1d   X2q  1 3.950000e-01    2.310000e+00
  TN6d   X2q  1 3.950000e-01    2.310000e+00
  TN5d   X2q  1 3.950000e-01    2.500000e+00
  TN4d   X2q  1 3.950000e-01    2.500000e+00
  TN3d   X2q  1 3.950000e-01    2.500000e+00
  TN2d   X2q  1 3.950000e-01    2.500000e+00
  TN1d   X2q  1 3.950000e-01    2.500000e+00
  TP6a   X2q  1 3.950000e-01    2.110000e+00
  TP5a   X2q  1 3.950000e-01    2.310000e+00
  TP4a   X2q  1 3.950000e-01    2.310000e+00
  TP3a   X2q  1 3.950000e-01    2.310000e+00
  TP2a   X2q  1 3.950000e-01    2.310000e+00
  TP1a   X2q  1 3.950000e-01    2.310000e+00
  TN6a   X2q  1 3.950000e-01    2.310000e+00
  TN5a   X2q  1 3.950000e-01    2.500000e+00
  TN4a   X2q  1 3.950000e-01    2.500000e+00
  TN3a   X2q  1 3.950000e-01    2.500000e+00
  TN2a   X2q  1 3.950000e-01    2.500000e+00
  TN1a   X2q  1 3.950000e-01    2.500000e+00
  TC6v   X2q  1 3.950000e-01    2.940000e+00
  TC5v   X2q  1 3.950000e-01    2.700000e+00
  TC4v   X2q  1 3.950000e-01    2.700000e+00
  TC3v   X2q  1 3.950000e-01    2.700000e+00
  TC2v   X2q  1 3.950000e-01    2.700000e+00
  TC1v   X2q  1 3.950000e-01    2.700000e+00
  TX4v   X2q  1 3.950000e-01    2.940000e+00
  TX3v   X2q  1 3.950000e-01    3.190000e+00
  TX2q   X2v  1 3.950000e-01    3.190000e+00
  TX2q   X1v  1 3.950000e-01    3.190000e+00
  TC6e   X2q  1 3.950000e-01    2.940000e+00
  TC5e   X2q  1 3.950000e-01    2.700000e+00
  TC4e   X2q  1 3.950000e-01    2.700000e+00
  TC3e   X2q  1 3.950000e-01    2.700000e+00
  TC2e   X2q  1 3.950000e-01    2.700000e+00
  TC1e   X2q  1 3.950000e-01    2.700000e+00
  TX4e   X2q  1 3.950000e-01    2.940000e+00
  TX3e   X2q  1 3.950000e-01    3.190000e+00
  TX2q   X2e  1 3.950000e-01    3.190000e+00
  TX2q   X1e  1 3.950000e-01    3.190000e+00
  TP6d   X1q  1 3.950000e-01    1.850000e+00
  TP5d   X1q  1 3.950000e-01    1.850000e+00
  TP4d   X1q  1 3.950000e-01    2.110000e+00
  TP3d   X1q  1 3.950000e-01    2.110000e+00
  TP2d   X1q  1 3.950000e-01    2.110000e+00
  TP1d   X1q  1 3.950000e-01    2.110000e+00
  TN6d   X1q  1 3.950000e-01    2.110000e+00
  TN5d   X1q  1 3.950000e-01    2.310000e+00
  TN4d   X1q  1 3.950000e-01    2.310000e+00
  TN3d   X1q  1 3.950000e-01    2.500000e+00
  TN2d   X1q  1 3.950000e-01    2.500000e+00
  TN1d   X1q  1 3.950000e-01    2.500000e+00
  TP6a   X1q  1 3.950000e-01    1.850000e+00
  TP5a   X1q  1 3.950000e-01    1.850000e+00
  TP4a   X1q  1 3.950000e-01    2.110000e+00
  TP3a   X1q  1 3.950000e-01    2.110000e+00
  TP2a   X1q  1 3.950000e-01    2.110000e+00
  TP1a   X1q  1 3.950000e-01    2.110000e+00
  TN6a   X1q  1 3.950000e-01    2.110000e+00
  TN5a   X1q  1 3.950000e-01    2.310000e+00
  TN4a   X1q  1 3.950000e-01    2.310000e+00
  TN3a   X1q  1 3.950000e-01    2.500000e+00
  TN2a   X1q  1 3.950000e-01    2.500000e+00
  TN1a   X1q  1 3.950000e-01    2.500000e+00
  TC6v   X1q  1 3.950000e-01    2.940000e+00
  TC5v   X1q  1 3.950000e-01    2.940000e+00
  TC4v   X1q  1 3.950000e-01    2.940000e+00
  TC3v   X1q  1 3.950000e-01    2.940000e+00
  TC2v   X1q  1 3.950000e-01    2.700000e+00
  TC1v   X1q  1 3.950000e-01    2.700000e+00
  TX4v   X1q  1 3.950000e-01    2.940000e+00
  TX3v   X1q  1 3.950000e-01    3.190000e+00
  TX2v   X1q  1 3.950000e-01    3.190000e+00
  TX1q   X1v  1 3.950000e-01    3.430000e+00
  TC6e   X1q  1 3.950000e-01    2.940000e+00
  TC5e   X1q  1 3.950000e-01    2.940000e+00
  TC4e   X1q  1 3.950000e-01    2.940000e+00
  TC3e   X1q  1 3.950000e-01    2.940000e+00
  TC2e   X1q  1 3.950000e-01    2.700000e+00
  TC1e   X1q  1 3.950000e-01    2.700000e+00
  TX4e   X1q  1 3.950000e-01    2.940000e+00
  TX3e   X1q  1 3.950000e-01    3.190000e+00
  TX2e   X1q  1 3.950000e-01    3.190000e+00
  TX1q   X1e  1 3.950000e-01    3.430000e+00
  TP6d  P6dq  1 3.950000e-01    4.540000e+00
 TP6dq   P5d  1 3.950000e-01    4.230000e+00
 TP6dq   P4d  1 3.950000e-01    3.910000e+00
 TP6dq   P3d  1 3.950000e-01    3.670000e+00
 TP6dq   P2d  1 3.950000e-01    3.670000e+00
 TP6dq   P1d  1 3.950000e-01    3.430000e+00
 TP6dq   N6d  1 3.950000e-01    3.190000e+00
 TP6dq   N5d  1 3.950000e-01    2.700000e+00
 TP6dq   N4d  1 3.950000e-01    2.500000e+00
 TP6dq   N3d  1 3.950000e-01    2.500000e+00
 TP6dq   N2d  1 3.950000e-01    2.310000e+00
 TP6dq   N1d  1 3.950000e-01    2.110000e+00
 TP6dq   P6a  1 3.950000e-01    5.270000e+00
 TP6dq   P5a  1 3.950000e-01    4.870000e+00
 TP6dq   P4a  1 3.950000e-01    4.540000e+00
 TP6dq   P3a  1 3.950000e-01    4.230000e+00
 TP6dq   P2a  1 3.950000e-01    4.230000e+00
 TP6dq   P1a  1 3.950000e-01    3.910000e+00
 TP6dq   N6a  1 3.950000e-01    3.670000e+00
 TP6dq   N5a  1 3.950000e-01    3.190000e+00
 TP6dq   N4a  1 3.950000e-01    2.940000e+00
 TP6dq   N3a  1 3.950000e-01    2.500000e+00
 TP6dq   N2a  1 3.950000e-01    2.310000e+00
 TP6dq   N1a  1 3.950000e-01    2.110000e+00
 TP6dq   C6e  1 3.950000e-01    2.310000e+00
 TP6dq   C5e  1 3.950000e-01    2.110000e+00
 TP6dq   C4e  1 3.950000e-01    1.850000e+00
 TP6dq   C3e  1 3.950000e-01    1.670000e+00
 TP6dq   C2e  1 3.950000e-01    1.670000e+00
 TP6dq   C1e  1 3.990000e-01    1.180000e+00
 TP6dq   X4e  1 3.950000e-01    2.500000e+00
 TP6dq   X3e  1 3.950000e-01    2.500000e+00
 TP6dq   X2e  1 3.950000e-01    2.310000e+00
 TP6dq   X1e  1 3.950000e-01    2.110000e+00
 TP6dq   C6v  1 3.950000e-01    1.850000e+00
 TP6dq   C5v  1 3.950000e-01    1.670000e+00
 TP6dq   C4v  1 3.980000e-01    1.450000e+00
 TP6dq   C3v  1 3.990000e-01    1.180000e+00
 TP6dq   C2v  1 3.990000e-01    1.180000e+00
 TP6dq   C1v  1 4.040000e-01    8.300000e-01
 TP6dq   X4v  1 3.950000e-01    2.110000e+00
 TP6dq   X3v  1 3.950000e-01    2.110000e+00
 TP6dq   X2v  1 3.950000e-01    1.850000e+00
 TP6dq   X1v  1 3.950000e-01    1.670000e+00
  TP5d  P5dq  1 3.950000e-01    3.910000e+00
 TP5dq   P4d  1 3.950000e-01    3.670000e+00
 TP5dq   P3d  1 3.950000e-01    3.430000e+00
 TP5dq   P2d  1 3.950000e-01    3.430000e+00
 TP5dq   P1d  1 3.950000e-01    3.190000e+00
 TP5dq   N6d  1 3.950000e-01    2.940000e+00
 TP5dq   N5d  1 3.950000e-01    2.700000e+00
 TP5dq   N4d  1 3.950000e-01    2.700000e+00
 TP5dq   N3d  1 3.950000e-01    2.500000e+00
 TP5dq   N2d  1 3.950000e-01    2.310000e+00
 TP5dq   N1d  1 3.950000e-01    2.110000e+00
  TP6a  P5dq  1 3.950000e-01    4.870000e+00
 TP5dq   P5a  1 3.950000e-01    4.540000e+00
 TP5dq   P4a  1 3.950000e-01    4.230000e+00
 TP5dq   P3a  1 3.950000e-01    3.910000e+00
 TP5dq   P2a  1 3.950000e-01    3.910000e+00
 TP5dq   P1a  1 3.950000e-01    3.670000e+00
 TP5dq   N6a  1 3.950000e-01    3.430000e+00
 TP5dq   N5a  1 3.950000e-01    3.190000e+00
 TP5dq   N4a  1 3.950000e-01    3.190000e+00
 TP5dq   N3a  1 3.950000e-01    2.500000e+00
 TP5dq   N2a  1 3.950000e-01    2.310000e+00
 TP5dq   N1a  1 3.950000e-01    2.110000e+00
 TP5dq   C6e  1 3.950000e-01    2.310000e+00
 TP5dq   C5e  1 3.950000e-01    2.310000e+00
 TP5dq   C4e  1 3.950000e-01    2.110000e+00
 TP5dq   C3e  1 3.950000e-01    1.850000e+00
 TP5dq   C2e  1 3.950000e-01    1.850000e+00
 TP5dq   C1e  1 3.950000e-01    1.670000e+00
 TP5dq   X4e  1 3.950000e-01    2.700000e+00
 TP5dq   X3e  1 3.950000e-01    2.500000e+00
 TP5dq   X2e  1 3.950000e-01    2.500000e+00
 TP5dq   X1e  1 3.950000e-01    2.110000e+00
 TP5dq   C6v  1 3.950000e-01    1.850000e+00
 TP5dq   C5v  1 3.950000e-01    1.850000e+00
 TP5dq   C4v  1 3.950000e-01    1.670000e+00
 TP5dq   C3v  1 3.980000e-01    1.450000e+00
 TP5dq   C2v  1 3.980000e-01    1.450000e+00
 TP5dq   C1v  1 3.990000e-01    1.180000e+00
 TP5dq   X4v  1 3.950000e-01    2.310000e+00
 TP5dq   X3v  1 3.950000e-01    2.110000e+00
 TP5dq   X2v  1 3.950000e-01    2.110000e+00
 TP5dq   X1v  1 3.950000e-01    1.670000e+00
  TP4d  P4dq  1 3.950000e-01    3.670000e+00
 TP4dq   P3d  1 3.950000e-01    3.430000e+00
 TP4dq   P2d  1 3.950000e-01    3.430000e+00
 TP4dq   P1d  1 3.950000e-01    3.190000e+00
 TP4dq   N6d  1 3.950000e-01    2.940000e+00
 TP4dq   N5d  1 3.950000e-01    2.700000e+00
 TP4dq   N4d  1 3.950000e-01    2.700000e+00
 TP4dq   N3d  1 3.950000e-01    2.500000e+00
 TP4dq   N2d  1 3.950000e-01    2.500000e+00
 TP4dq   N1d  1 3.950000e-01    2.310000e+00
  TP6a  P4dq  1 3.950000e-01    4.540000e+00
  TP5a  P4dq  1 3.950000e-01    4.230000e+00
 TP4dq   P4a  1 3.950000e-01    4.230000e+00
 TP4dq   P3a  1 3.950000e-01    3.910000e+00
 TP4dq   P2a  1 3.950000e-01    3.910000e+00
 TP4dq   P1a  1 3.950000e-01    3.670000e+00
 TP4dq   N6a  1 3.950000e-01    3.430000e+00
 TP4dq   N5a  1 3.950000e-01    3.190000e+00
 TP4dq   N4a  1 3.950000e-01    3.190000e+00
 TP4dq   N3a  1 3.950000e-01    2.940000e+00
 TP4dq   N2a  1 3.950000e-01    2.500000e+00
 TP4dq   N1a  1 3.950000e-01    2.310000e+00
 TP4dq   C6e  1 3.950000e-01    2.500000e+00
 TP4dq   C5e  1 3.950000e-01    2.310000e+00
 TP4dq   C4e  1 3.950000e-01    2.110000e+00
 TP4dq   C3e  1 3.950000e-01    1.850000e+00
 TP4dq   C2e  1 3.950000e-01    1.850000e+00
 TP4dq   C1e  1 3.950000e-01    1.670000e+00
 TP4dq   X4e  1 3.950000e-01    2.700000e+00
 TP4dq   X3e  1 3.950000e-01    2.500000e+00
 TP4dq   X2e  1 3.950000e-01    2.500000e+00
 TP4dq   X1e  1 3.950000e-01    2.310000e+00
 TP4dq   C6v  1 3.950000e-01    2.110000e+00
 TP4dq   C5v  1 3.950000e-01    1.850000e+00
 TP4dq   C4v  1 3.950000e-01    1.670000e+00
 TP4dq   C3v  1 3.980000e-01    1.450000e+00
 TP4dq   C2v  1 3.980000e-01    1.450000e+00
 TP4dq   C1v  1 3.990000e-01    1.180000e+00
 TP4dq   X4v  1 3.950000e-01    2.310000e+00
 TP4dq   X3v  1 3.950000e-01    2.110000e+00
 TP4dq   X2v  1 3.950000e-01    2.110000e+00
 TP4dq   X1v  1 3.950000e-01    1.850000e+00
  TP3d  P3dq  1 3.950000e-01    3.430000e+00
 TP3dq   P2d  1 3.950000e-01    3.430000e+00
 TP3dq   P1d  1 3.950000e-01    3.190000e+00
 TP3dq   N6d  1 3.950000e-01    2.940000e+00
 TP3dq   N5d  1 3.950000e-01    2.700000e+00
 TP3dq   N4d  1 3.950000e-01    2.700000e+00
 TP3dq   N3d  1 3.950000e-01    2.500000e+00
 TP3dq   N2d  1 3.950000e-01    2.500000e+00
 TP3dq   N1d  1 3.950000e-01    2.500000e+00
  TP6a  P3dq  1 3.950000e-01    4.230000e+00
  TP5a  P3dq  1 3.950000e-01    3.910000e+00
  TP4a  P3dq  1 3.950000e-01    3.910000e+00
 TP3dq   P3a  1 3.950000e-01    3.910000e+00
 TP3dq   P2a  1 3.950000e-01    3.910000e+00
 TP3dq   P1a  1 3.950000e-01    3.670000e+00
 TP3dq   N6a  1 3.950000e-01    3.430000e+00
 TP3dq   N5a  1 3.950000e-01    3.190000e+00
 TP3dq   N4a  1 3.950000e-01    3.190000e+00
 TP3dq   N3a  1 3.950000e-01    2.940000e+00
 TP3dq   N2a  1 3.950000e-01    2.940000e+00
 TP3dq   N1a  1 3.950000e-01    2.500000e+00
 TP3dq   C6e  1 3.950000e-01    2.700000e+00
 TP3dq   C5e  1 3.950000e-01    2.500000e+00
 TP3dq   C4e  1 3.950000e-01    2.310000e+00
 TP3dq   C3e  1 3.950000e-01    1.850000e+00
 TP3dq   C2e  1 3.950000e-01    1.850000e+00
 TP3dq   C1e  1 3.950000e-01    1.670000e+00
 TP3dq   X4e  1 3.950000e-01    2.700000e+00
 TP3dq   X3e  1 3.950000e-01    2.700000e+00
 TP3dq   X2e  1 3.950000e-01    2.500000e+00
 TP3dq   X1e  1 3.950000e-01    2.310000e+00
 TP3dq   C6v  1 3.950000e-01    2.310000e+00
 TP3dq   C5v  1 3.950000e-01    2.110000e+00
 TP3dq   C4v  1 3.950000e-01    1.850000e+00
 TP3dq   C3v  1 3.980000e-01    1.450000e+00
 TP3dq   C2v  1 3.980000e-01    1.450000e+00
 TP3dq   C1v  1 3.990000e-01    1.180000e+00
 TP3dq   X4v  1 3.950000e-01    2.310000e+00
 TP3dq   X3v  1 3.950000e-01    2.310000e+00
 TP3dq   X2v  1 3.950000e-01    2.110000e+00
 TP3dq   X1v  1 3.950000e-01    1.850000e+00
  TP2d  P2dq  1 3.950000e-01    3.430000e+00
 TP2dq   P1d  1 3.950000e-01    3.190000e+00
 TP2dq   N6d  1 3.950000e-01    3.190000e+00
 TP2dq   N5d  1 3.950000e-01    2.940000e+00
 TP2dq   N4d  1 3.950000e-01    2.700000e+00
 TP2dq   N3d  1 3.950000e-01    2.500000e+00
 TP2dq   N2d  1 3.950000e-01    2.500000e+00
 TP2dq   N1d  1 3.950000e-01    2.500000e+00
  TP6a  P2dq  1 3.950000e-01    4.230000e+00
  TP5a  P2dq  1 3.950000e-01    3.910000e+00
  TP4a  P2dq  1 3.950000e-01    3.910000e+00
  TP3a  P2dq  1 3.950000e-01    3.910000e+00
 TP2dq   P2a  1 3.950000e-01    3.910000e+00
 TP2dq   P1a  1 3.950000e-01    3.670000e+00
 TP2dq   N6a  1 3.950000e-01    3.670000e+00
 TP2dq   N5a  1 3.950000e-01    3.430000e+00
 TP2dq   N4a  1 3.950000e-01    3.190000e+00
 TP2dq   N3a  1 3.950000e-01    2.940000e+00
 TP2dq   N2a  1 3.950000e-01    2.940000e+00
 TP2dq   N1a  1 3.950000e-01    2.940000e+00
 TP2dq   C6e  1 3.950000e-01    2.700000e+00
 TP2dq   C5e  1 3.950000e-01    2.500000e+00
 TP2dq   C4e  1 3.950000e-01    2.310000e+00
 TP2dq   C3e  1 3.950000e-01    2.110000e+00
 TP2dq   C2e  1 3.950000e-01    2.110000e+00
 TP2dq   C1e  1 3.950000e-01    1.850000e+00
 TP2dq   X4e  1 3.950000e-01    2.700000e+00
 TP2dq   X3e  1 3.950000e-01    2.700000e+00
 TP2dq   X2e  1 3.950000e-01    2.500000e+00
 TP2dq   X1e  1 3.950000e-01    2.310000e+00
 TP2dq   C6v  1 3.950000e-01    2.310000e+00
 TP2dq   C5v  1 3.950000e-01    2.110000e+00
 TP2dq   C4v  1 3.950000e-01    1.850000e+00
 TP2dq   C3v  1 3.950000e-01    1.670000e+00
 TP2dq   C2v  1 3.950000e-01    1.670000e+00
 TP2dq   C1v  1 3.980000e-01    1.450000e+00
 TP2dq   X4v  1 3.950000e-01    2.310000e+00
 TP2dq   X3v  1 3.950000e-01    2.310000e+00
 TP2dq   X2v  1 3.950000e-01    2.110000e+00
 TP2dq   X1v  1 3.950000e-01    1.850000e+00
  TP1d  P1dq  1 3.950000e-01    3.190000e+00
 TP1dq   N6d  1 3.950000e-01    3.190000e+00
 TP1dq   N5d  1 3.950000e-01    2.940000e+00
 TP1dq   N4d  1 3.950000e-01    2.940000e+00
 TP1dq   N3d  1 3.950000e-01    2.500000e+00
 TP1dq   N2d  1 3.950000e-01    2.500000e+00
 TP1dq   N1d  1 3.950000e-01    2.500000e+00
  TP6a  P1dq  1 3.950000e-01    3.910000e+00
  TP5a  P1dq  1 3.950000e-01    3.670000e+00
  TP4a  P1dq  1 3.950000e-01    3.670000e+00
  TP3a  P1dq  1 3.950000e-01    3.670000e+00
  TP2a  P1dq  1 3.950000e-01    3.670000e+00
 TP1dq   P1a  1 3.950000e-01    3.670000e+00
 TP1dq   N6a  1 3.950000e-01    3.670000e+00
 TP1dq   N5a  1 3.950000e-01    3.430000e+00
 TP1dq   N4a  1 3.950000e-01    3.430000e+00
 TP1dq   N3a  1 3.950000e-01    2.940000e+00
 TP1dq   N2a  1 3.950000e-01    2.940000e+00
 TP1dq   N1a  1 3.950000e-01    2.940000e+00
 TP1dq   C6e  1 3.950000e-01    2.700000e+00
 TP1dq   C5e  1 3.950000e-01    2.500000e+00
 TP1dq   C4e  1 3.950000e-01    2.310000e+00
 TP1dq   C3e  1 3.950000e-01    2.110000e+00
 TP1dq   C2e  1 3.950000e-01    2.110000e+00
 TP1dq   C1e  1 3.950000e-01    1.850000e+00
 TP1dq   X4e  1 3.950000e-01    2.700000e+00
 TP1dq   X3e  1 3.950000e-01    2.700000e+00
 TP1dq   X2e  1 3.950000e-01    2.500000e+00
 TP1dq   X1e  1 3.950000e-01    2.310000e+00
 TP1dq   C6v  1 3.950000e-01    2.310000e+00
 TP1dq   C5v  1 3.950000e-01    2.110000e+00
 TP1dq   C4v  1 3.950000e-01    1.850000e+00
 TP1dq   C3v  1 3.950000e-01    1.670000e+00
 TP1dq   C2v  1 3.950000e-01    1.670000e+00
 TP1dq   C1v  1 3.980000e-01    1.450000e+00
 TP1dq   X4v  1 3.950000e-01    2.310000e+00
 TP1dq   X3v  1 3.950000e-01    2.310000e+00
 TP1dq   X2v  1 3.950000e-01    2.110000e+00
 TP1dq   X1v  1 3.950000e-01    1.850000e+00
  TN6d  N6dq  1 3.950000e-01    3.190000e+00
 TN6dq   N5d  1 3.950000e-01    3.190000e+00
 TN6dq   N4d  1 3.950000e-01    3.190000e+00
 TN6dq   N3d  1 3.950000e-01    2.700000e+00
 TN6dq   N2d  1 3.950000e-01    2.500000e+00
 TN6dq   N1d  1 3.950000e-01    2.500000e+00
  TP6a  N6dq  1 3.950000e-01    3.670000e+00
  TP5a  N6dq  1 3.950000e-01    3.430000e+00
  TP4a  N6dq  1 3.950000e-01    3.430000e+00
  TP3a  N6dq  1 3.950000e-01    3.430000e+00
  TP2a  N6dq  1 3.950000e-01    3.670000e+00
  TP1a  N6dq  1 3.950000e-01    3.670000e+00
 TN6dq   N6a  1 3.950000e-01    3.670000e+00
 TN6dq   N5a  1 3.950000e-01    3.670000e+00
 TN6dq   N4a  1 3.950000e-01    3.670000e+00
 TN6dq   N3a  1 3.950000e-01    3.190000e+00
 TN6dq   N2a  1 3.950000e-01    2.940000e+00
 TN6dq   N1a  1 3.950000e-01    2.940000e+00
 TN6dq   C6e  1 3.950000e-01    2.940000e+00
 TN6dq   C5e  1 3.950000e-01    2.700000e+00
 TN6dq   C4e  1 3.950000e-01    2.500000e+00
 TN6dq   C3e  1 3.950000e-01    2.310000e+00
 TN6dq   C2e  1 3.950000e-01    2.310000e+00
 TN6dq   C1e  1 3.950000e-01    2.110000e+00
 TN6dq   X4e  1 3.950000e-01    2.940000e+00
 TN6dq   X3e  1 3.950000e-01    2.700000e+00
 TN6dq   X2e  1 3.950000e-01    2.500000e+00
 TN6dq   X1e  1 3.950000e-01    2.310000e+00
 TN6dq   C6v  1 3.950000e-01    2.500000e+00
 TN6dq   C5v  1 3.950000e-01    2.310000e+00
 TN6dq   C4v  1 3.950000e-01    2.110000e+00
 TN6dq   C3v  1 3.950000e-01    1.850000e+00
 TN6dq   C2v  1 3.950000e-01    1.850000e+00
 TN6dq   C1v  1 3.950000e-01    1.670000e+00
 TN6dq   X4v  1 3.950000e-01    2.500000e+00
 TN6dq   X3v  1 3.950000e-01    2.310000e+00
 TN6dq   X2v  1 3.950000e-01    2.110000e+00
 TN6dq   X1v  1 3.950000e-01    1.850000e+00
  TN5d  N5dq  1 3.950000e-01    2.940000e+00
 TN5dq   N4d  1 3.950000e-01    2.940000e+00
 TN5dq   N3d  1 3.950000e-01    2.700000e+00
 TN5dq   N2d  1 3.950000e-01    2.700000e+00
 TN5dq   N1d  1 3.950000e-01    2.500000e+00
  TP6a  N5dq  1 3.950000e-01    3.190000e+00
  TP5a  N5dq  1 3.950000e-01    3.190000e+00
  TP4a  N5dq  1 3.950000e-01    3.190000e+00
  TP3a  N5dq  1 3.950000e-01    3.190000e+00
  TP2a  N5dq  1 3.950000e-01    3.430000e+00
  TP1a  N5dq  1 3.950000e-01    3.430000e+00
  TN6a  N5dq  1 3.950000e-01    3.670000e+00
 TN5dq   N5a  1 3.950000e-01    3.430000e+00
 TN5dq   N4a  1 3.950000e-01    3.430000e+00
 TN5dq   N3a  1 3.950000e-01    3.190000e+00
 TN5dq   N2a  1 3.950000e-01    3.190000e+00
 TN5dq   N1a  1 3.950000e-01    2.940000e+00
 TN5dq   C6e  1 3.950000e-01    2.940000e+00
 TN5dq   C5e  1 3.950000e-01    2.700000e+00
 TN5dq   C4e  1 3.950000e-01    2.500000e+00
 TN5dq   C3e  1 3.950000e-01    2.500000e+00
 TN5dq   C2e  1 3.950000e-01    2.310000e+00
 TN5dq   C1e  1 3.950000e-01    2.110000e+00
 TN5dq   X4e  1 3.950000e-01    3.190000e+00
 TN5dq   X3e  1 3.950000e-01    2.940000e+00
 TN5dq   X2e  1 3.950000e-01    2.700000e+00
 TN5dq   X1e  1 3.950000e-01    2.500000e+00
 TN5dq   C6v  1 3.950000e-01    2.500000e+00
 TN5dq   C5v  1 3.950000e-01    2.310000e+00
 TN5dq   C4v  1 3.950000e-01    2.110000e+00
 TN5dq   C3v  1 3.950000e-01    2.110000e+00
 TN5dq   C2v  1 3.950000e-01    1.850000e+00
 TN5dq   C1v  1 3.950000e-01    1.670000e+00
 TN5dq   X4v  1 3.950000e-01    2.700000e+00
 TN5dq   X3v  1 3.950000e-01    2.500000e+00
 TN5dq   X2v  1 3.950000e-01    2.310000e+00
 TN5dq   X1v  1 3.950000e-01    2.110000e+00
  TN4d  N4dq  1 3.950000e-01    2.940000e+00
 TN4dq   N3d  1 3.950000e-01    2.700000e+00
 TN4dq   N2d  1 3.950000e-01    2.700000e+00
 TN4dq   N1d  1 3.950000e-01    2.500000e+00
  TP6a  N4dq  1 3.950000e-01    2.940000e+00
  TP5a  N4dq  1 3.950000e-01    3.190000e+00
  TP4a  N4dq  1 3.950000e-01    3.190000e+00
  TP3a  N4dq  1 3.950000e-01    3.190000e+00
  TP2a  N4dq  1 3.950000e-01    3.190000e+00
  TP1a  N4dq  1 3.950000e-01    3.430000e+00
  TN6a  N4dq  1 3.950000e-01    3.670000e+00
  TN5a  N4dq  1 3.950000e-01    3.430000e+00
 TN4dq   N4a  1 3.950000e-01    3.430000e+00
 TN4dq   N3a  1 3.950000e-01    3.190000e+00
 TN4dq   N2a  1 3.950000e-01    3.190000e+00
 TN4dq   N1a  1 3.950000e-01    2.940000e+00
 TN4dq   C6e  1 3.950000e-01    2.940000e+00
 TN4dq   C5e  1 3.950000e-01    2.700000e+00
 TN4dq   C4e  1 3.950000e-01    2.700000e+00
 TN4dq   C3e  1 3.950000e-01    2.500000e+00
 TN4dq   C2e  1 3.950000e-01    2.310000e+00
 TN4dq   C1e  1 3.950000e-01    2.110000e+00
 TN4dq   X4e  1 3.950000e-01    3.430000e+00
 TN4dq   X3e  1 3.950000e-01    3.190000e+00
 TN4dq   X2e  1 3.950000e-01    2.700000e+00
 TN4dq   X1e  1 3.950000e-01    2.500000e+00
 TN4dq   C6v  1 3.950000e-01    2.500000e+00
 TN4dq   C5v  1 3.950000e-01    2.310000e+00
 TN4dq   C4v  1 3.950000e-01    2.310000e+00
 TN4dq   C3v  1 3.950000e-01    2.110000e+00
 TN4dq   C2v  1 3.950000e-01    1.850000e+00
 TN4dq   C1v  1 3.950000e-01    1.670000e+00
 TN4dq   X4v  1 3.950000e-01    2.940000e+00
 TN4dq   X3v  1 3.950000e-01    2.700000e+00
 TN4dq   X2v  1 3.950000e-01    2.310000e+00
 TN4dq   X1v  1 3.950000e-01    2.110000e+00
  TN3d  N3dq  1 3.950000e-01    2.700000e+00
 TN3dq   N2d  1 3.950000e-01    2.700000e+00
 TN3dq   N1d  1 3.950000e-01    2.500000e+00
  TP6a  N3dq  1 3.950000e-01    2.500000e+00
  TP5a  N3dq  1 3.950000e-01    2.500000e+00
  TP4a  N3dq  1 3.950000e-01    2.940000e+00
  TP3a  N3dq  1 3.950000e-01    2.940000e+00
  TP2a  N3dq  1 3.950000e-01    2.940000e+00
  TP1a  N3dq  1 3.950000e-01    2.940000e+00
  TN6a  N3dq  1 3.950000e-01    3.190000e+00
  TN5a  N3dq  1 3.950000e-01    3.190000e+00
  TN4a  N3dq  1 3.950000e-01    3.190000e+00
 TN3dq   N3a  1 3.950000e-01    3.190000e+00
 TN3dq   N2a  1 3.950000e-01    3.190000e+00
 TN3dq   N1a  1 3.950000e-01    2.940000e+00
 TN3dq   C6e  1 3.950000e-01    2.940000e+00
 TN3dq   C5e  1 3.950000e-01    2.700000e+00
 TN3dq   C4e  1 3.950000e-01    2.700000e+00
 TN3dq   C3e  1 3.950000e-01    2.500000e+00
 TN3dq   C2e  1 3.950000e-01    2.500000e+00
 TN3dq   C1e  1 3.950000e-01    2.310000e+00
 TN3dq   X4e  1 3.950000e-01    3.190000e+00
 TN3dq   X3e  1 3.950000e-01    2.940000e+00
 TN3dq   X2e  1 3.950000e-01    2.700000e+00
 TN3dq   X1e  1 3.950000e-01    2.700000e+00
 TN3dq   C6v  1 3.950000e-01    2.500000e+00
 TN3dq   C5v  1 3.950000e-01    2.310000e+00
 TN3dq   C4v  1 3.950000e-01    2.310000e+00
 TN3dq   C3v  1 3.950000e-01    2.110000e+00
 TN3dq   C2v  1 3.950000e-01    2.110000e+00
 TN3dq   C1v  1 3.950000e-01    1.850000e+00
 TN3dq   X4v  1 3.950000e-01    2.700000e+00
 TN3dq   X3v  1 3.950000e-01    2.500000e+00
 TN3dq   X2v  1 3.950000e-01    2.310000e+00
 TN3dq   X1v  1 3.950000e-01    2.310000e+00
  TN2d  N2dq  1 3.950000e-01    2.700000e+00
 TN2dq   N1d  1 3.950000e-01    2.500000e+00
  TP6a  N2dq  1 3.950000e-01    2.310000e+00
  TP5a  N2dq  1 3.950000e-01    2.310000e+00
  TP4a  N2dq  1 3.950000e-01    2.500000e+00
  TP3a  N2dq  1 3.950000e-01    2.940000e+00
  TP2a  N2dq  1 3.950000e-01    2.940000e+00
  TP1a  N2dq  1 3.950000e-01    2.940000e+00
  TN6a  N2dq  1 3.950000e-01    2.940000e+00
  TN5a  N2dq  1 3.950000e-01    3.190000e+00
  TN4a  N2dq  1 3.950000e-01    3.190000e+00
  TN3a  N2dq  1 3.950000e-01    3.190000e+00
 TN2dq   N2a  1 3.950000e-01    3.190000e+00
 TN2dq   N1a  1 3.950000e-01    2.940000e+00
 TN2dq   C6e  1 3.950000e-01    2.940000e+00
 TN2dq   C5e  1 3.950000e-01    2.700000e+00
 TN2dq   C4e  1 3.950000e-01    2.700000e+00
 TN2dq   C3e  1 3.950000e-01    2.700000e+00
 TN2dq   C2e  1 3.950000e-01    2.500000e+00
 TN2dq   C1e  1 3.950000e-01    2.310000e+00
 TN2dq   X4e  1 3.950000e-01    3.190000e+00
 TN2dq   X3e  1 3.950000e-01    2.940000e+00
 TN2dq   X2e  1 3.950000e-01    2.700000e+00
 TN2dq   X1e  1 3.950000e-01    2.700000e+00
 TN2dq   C6v  1 3.950000e-01    2.500000e+00
 TN2dq   C5v  1 3.950000e-01    2.310000e+00
 TN2dq   C4v  1 3.950000e-01    2.310000e+00
 TN2dq   C3v  1 3.950000e-01    2.310000e+00
 TN2dq   C2v  1 3.950000e-01    2.110000e+00
 TN2dq   C1v  1 3.950000e-01    1.850000e+00
 TN2dq   X4v  1 3.950000e-01    2.700000e+00
 TN2dq   X3v  1 3.950000e-01    2.500000e+00
 TN2dq   X2v  1 3.950000e-01    2.310000e+00
 TN2dq   X1v  1 3.950000e-01    2.310000e+00
  TN1d  N1dq  1 3.950000e-01    2.700000e+00
  TP6a  N1dq  1 3.950000e-01    2.110000e+00
  TP5a  N1dq  1 3.950000e-01    2.110000e+00
  TP4a  N1dq  1 3.950000e-01    2.310000e+00
  TP3a  N1dq  1 3.950000e-01    2.500000e+00
  TP2a  N1dq  1 3.950000e-01    2.940000e+00
  TP1a  N1dq  1 3.950000e-01    2.940000e+00
  TN6a  N1dq  1 3.950000e-01    2.940000e+00
  TN5a  N1dq  1 3.950000e-01    2.940000e+00
  TN4a  N1dq  1 3.950000e-01    2.940000e+00
  TN3a  N1dq  1 3.950000e-01    2.940000e+00
  TN2a  N1dq  1 3.950000e-01    2.940000e+00
 TN1dq   N1a  1 3.950000e-01    3.190000e+00
 TN1dq   C6e  1 3.950000e-01    3.190000e+00
 TN1dq   C5e  1 3.950000e-01    2.940000e+00
 TN1dq   C4e  1 3.950000e-01    2.940000e+00
 TN1dq   C3e  1 3.950000e-01    2.700000e+00
 TN1dq   C2e  1 3.950000e-01    2.500000e+00
 TN1dq   C1e  1 3.950000e-01    2.310000e+00
 TN1dq   X4e  1 3.950000e-01    2.940000e+00
 TN1dq   X3e  1 3.950000e-01    2.940000e+00
 TN1dq   X2e  1 3.950000e-01    2.700000e+00
 TN1dq   X1e  1 3.950000e-01    2.700000e+00
 TN1dq   C6v  1 3.950000e-01    2.700000e+00
 TN1dq   C5v  1 3.950000e-01    2.500000e+00
 TN1dq   C4v  1 3.950000e-01    2.500000e+00
 TN1dq   C3v  1 3.950000e-01    2.310000e+00
 TN1dq   C2v  1 3.950000e-01    2.110000e+00
 TN1dq   C1v  1 3.950000e-01    1.850000e+00
 TN1dq   X4v  1 3.950000e-01    2.500000e+00
 TN1dq   X3v  1 3.950000e-01    2.500000e+00
 TN1dq   X2v  1 3.950000e-01    2.310000e+00
 TN1dq   X1v  1 3.950000e-01    2.310000e+00
  TP6a  P6aq  1 3.950000e-01    4.540000e+00
 TP6aq   P5a  1 3.950000e-01    4.230000e+00
 TP6aq   P4a  1 3.950000e-01    3.910000e+00
 TP6aq   P3a  1 3.950000e-01    3.670000e+00
 TP6aq   P2a  1 3.950000e-01    3.670000e+00
 TP6aq   P1a  1 3.950000e-01    3.430000e+00
 TP6aq   N6a  1 3.950000e-01    3.190000e+00
 TP6aq   N5a  1 3.950000e-01    2.700000e+00
 TP6aq   N4a  1 3.950000e-01    2.500000e+00
 TP6aq   N3a  1 3.950000e-01    2.500000e+00
 TP6aq   N2a  1 3.950000e-01    2.310000e+00
 TP6aq   N1a  1 3.950000e-01    2.110000e+00
 TP6aq   C6v  1 3.950000e-01    2.310000e+00
 TP6aq   C5v  1 3.950000e-01    2.110000e+00
 TP6aq   C4v  1 3.950000e-01    1.850000e+00
 TP6aq   C3v  1 3.950000e-01    1.670000e+00
 TP6aq   C2v  1 3.950000e-01    1.670000e+00
 TP6aq   C1v  1 3.990000e-01    1.180000e+00
 TP6aq   X4v  1 3.950000e-01    2.500000e+00
 TP6aq   X3v  1 3.950000e-01    2.500000e+00
 TP6aq   X2v  1 3.950000e-01    2.310000e+00
 TP6aq   X1v  1 3.950000e-01    2.110000e+00
 TP6aq   C6e  1 3.950000e-01    1.850000e+00
 TP6aq   C5e  1 3.950000e-01    1.670000e+00
 TP6aq   C4e  1 3.980000e-01    1.450000e+00
 TP6aq   C3e  1 3.990000e-01    1.180000e+00
 TP6aq   C2e  1 3.990000e-01    1.180000e+00
 TP6aq   C1e  1 4.040000e-01    8.300000e-01
 TP6aq   X4e  1 3.950000e-01    2.110000e+00
 TP6aq   X3e  1 3.950000e-01    2.110000e+00
 TP6aq   X2e  1 3.950000e-01    1.850000e+00
 TP6aq   X1e  1 3.950000e-01    1.670000e+00
  TP5a  P5aq  1 3.950000e-01    3.910000e+00
 TP5aq   P4a  1 3.950000e-01    3.670000e+00
 TP5aq   P3a  1 3.950000e-01    3.430000e+00
 TP5aq   P2a  1 3.950000e-01    3.430000e+00
 TP5aq   P1a  1 3.950000e-01    3.190000e+00
 TP5aq   N6a  1 3.950000e-01    2.940000e+00
 TP5aq   N5a  1 3.950000e-01    2.700000e+00
 TP5aq   N4a  1 3.950000e-01    2.700000e+00
 TP5aq   N3a  1 3.950000e-01    2.500000e+00
 TP5aq   N2a  1 3.950000e-01    2.310000e+00
 TP5aq   N1a  1 3.950000e-01    2.110000e+00
 TP5aq   C6v  1 3.950000e-01    2.310000e+00
 TP5aq   C5v  1 3.950000e-01    2.310000e+00
 TP5aq   C4v  1 3.950000e-01    2.110000e+00
 TP5aq   C3v  1 3.950000e-01    1.850000e+00
 TP5aq   C2v  1 3.950000e-01    1.850000e+00
 TP5aq   C1v  1 3.950000e-01    1.670000e+00
 TP5aq   X4v  1 3.950000e-01    2.700000e+00
 TP5aq   X3v  1 3.950000e-01    2.500000e+00
 TP5aq   X2v  1 3.950000e-01    2.500000e+00
 TP5aq   X1v  1 3.950000e-01    2.110000e+00
 TP5aq   C6e  1 3.950000e-01    1.850000e+00
 TP5aq   C5e  1 3.950000e-01    1.850000e+00
 TP5aq   C4e  1 3.950000e-01    1.670000e+00
 TP5aq   C3e  1 3.980000e-01    1.450000e+00
 TP5aq   C2e  1 3.980000e-01    1.450000e+00
 TP5aq   C1e  1 3.990000e-01    1.180000e+00
 TP5aq   X4e  1 3.950000e-01    2.310000e+00
 TP5aq   X3e  1 3.950000e-01    2.110000e+00
 TP5aq   X2e  1 3.950000e-01    2.110000e+00
 TP5aq   X1e  1 3.950000e-01    1.670000e+00
  TP4a  P4aq  1 3.950000e-01    3.670000e+00
 TP4aq   P3a  1 3.950000e-01    3.430000e+00
 TP4aq   P2a  1 3.950000e-01    3.430000e+00
 TP4aq   P1a  1 3.950000e-01    3.190000e+00
 TP4aq   N6a  1 3.950000e-01    2.940000e+00
 TP4aq   N5a  1 3.950000e-01    2.700000e+00
 TP4aq   N4a  1 3.950000e-01    2.700000e+00
 TP4aq   N3a  1 3.950000e-01    2.500000e+00
 TP4aq   N2a  1 3.950000e-01    2.500000e+00
 TP4aq   N1a  1 3.950000e-01    2.310000e+00
 TP4aq   C6v  1 3.950000e-01    2.500000e+00
 TP4aq   C5v  1 3.950000e-01    2.310000e+00
 TP4aq   C4v  1 3.950000e-01    2.110000e+00
 TP4aq   C3v  1 3.950000e-01    1.850000e+00
 TP4aq   C2v  1 3.950000e-01    1.850000e+00
 TP4aq   C1v  1 3.950000e-01    1.670000e+00
 TP4aq   X4v  1 3.950000e-01    2.700000e+00
 TP4aq   X3v  1 3.950000e-01    2.500000e+00
 TP4aq   X2v  1 3.950000e-01    2.500000e+00
 TP4aq   X1v  1 3.950000e-01    2.310000e+00
 TP4aq   C6e  1 3.950000e-01    2.110000e+00
 TP4aq   C5e  1 3.950000e-01    1.850000e+00
 TP4aq   C4e  1 3.950000e-01    1.670000e+00
 TP4aq   C3e  1 3.980000e-01    1.450000e+00
 TP4aq   C2e  1 3.980000e-01    1.450000e+00
 TP4aq   C1e  1 3.990000e-01    1.180000e+00
 TP4aq   X4e  1 3.950000e-01    2.310000e+00
 TP4aq   X3e  1 3.950000e-01    2.110000e+00
 TP4aq   X2e  1 3.950000e-01    2.110000e+00
 TP4aq   X1e  1 3.950000e-01    1.850000e+00
  TP3a  P3aq  1 3.950000e-01    3.430000e+00
 TP3aq   P2a  1 3.950000e-01    3.430000e+00
 TP3aq   P1a  1 3.950000e-01    3.190000e+00
 TP3aq   N6a  1 3.950000e-01    2.940000e+00
 TP3aq   N5a  1 3.950000e-01    2.700000e+00
 TP3aq   N4a  1 3.950000e-01    2.700000e+00
 TP3aq   N3a  1 3.950000e-01    2.500000e+00
 TP3aq   N2a  1 3.950000e-01    2.500000e+00
 TP3aq   N1a  1 3.950000e-01    2.500000e+00
 TP3aq   C6v  1 3.950000e-01    2.700000e+00
 TP3aq   C5v  1 3.950000e-01    2.500000e+00
 TP3aq   C4v  1 3.950000e-01    2.310000e+00
 TP3aq   C3v  1 3.950000e-01    1.850000e+00
 TP3aq   C2v  1 3.950000e-01    1.850000e+00
 TP3aq   C1v  1 3.950000e-01    1.670000e+00
 TP3aq   X4v  1 3.950000e-01    2.700000e+00
 TP3aq   X3v  1 3.950000e-01    2.700000e+00
 TP3aq   X2v  1 3.950000e-01    2.500000e+00
 TP3aq   X1v  1 3.950000e-01    2.310000e+00
 TP3aq   C6e  1 3.950000e-01    2.310000e+00
 TP3aq   C5e  1 3.950000e-01    2.110000e+00
 TP3aq   C4e  1 3.950000e-01    1.850000e+00
 TP3aq   C3e  1 3.980000e-01    1.450000e+00
 TP3aq   C2e  1 3.980000e-01    1.450000e+00
 TP3aq   C1e  1 3.990000e-01    1.180000e+00
 TP3aq   X4e  1 3.950000e-01    2.310000e+00
 TP3aq   X3e  1 3.950000e-01    2.310000e+00
 TP3aq   X2e  1 3.950000e-01    2.110000e+00
 TP3aq   X1e  1 3.950000e-01    1.850000e+00
  TP2a  P2aq  1 3.950000e-01    3.430000e+00
 TP2aq   P1a  1 3.950000e-01    3.190000e+00
 TP2aq   N6a  1 3.950000e-01    3.190000e+00
 TP2aq   N5a  1 3.950000e-01    2.940000e+00
 TP2aq   N4a  1 3.950000e-01    2.700000e+00
 TP2aq   N3a  1 3.950000e-01    2.500000e+00
 TP2aq   N2a  1 3.950000e-01    2.500000e+00
 TP2aq   N1a  1 3.950000e-01    2.500000e+00
 TP2aq   C6v  1 3.950000e-01    2.700000e+00
 TP2aq   C5v  1 3.950000e-01    2.500000e+00
 TP2aq   C4v  1 3.950000e-01    2.310000e+00
 TP2aq   C3v  1 3.950000e-01    2.110000e+00
 TP2aq   C2v  1 3.950000e-01    2.110000e+00
 TP2aq   C1v  1 3.950000e-01    1.850000e+00
 TP2aq   X4v  1 3.950000e-01    2.700000e+00
 TP2aq   X3v  1 3.950000e-01    2.700000e+00
 TP2aq   X2v  1 3.950000e-01    2.500000e+00
 TP2aq   X1v  1 3.950000e-01    2.310000e+00
 TP2aq   C6e  1 3.950000e-01    2.310000e+00
 TP2aq   C5e  1 3.950000e-01    2.110000e+00
 TP2aq   C4e  1 3.950000e-01    1.850000e+00
 TP2aq   C3e  1 3.950000e-01    1.670000e+00
 TP2aq   C2e  1 3.950000e-01    1.670000e+00
 TP2aq   C1e  1 3.980000e-01    1.450000e+00
 TP2aq   X4e  1 3.950000e-01    2.310000e+00
 TP2aq   X3e  1 3.950000e-01    2.310000e+00
 TP2aq   X2e  1 3.950000e-01    2.110000e+00
 TP2aq   X1e  1 3.950000e-01    1.850000e+00
  TP1a  P1aq  1 3.950000e-01    3.190000e+00
 TP1aq   N6a  1 3.950000e-01    3.190000e+00
 TP1aq   N5a  1 3.950000e-01    2.940000e+00
 TP1aq   N4a  1 3.950000e-01    2.940000e+00
 TP1aq   N3a  1 3.950000e-01    2.500000e+00
 TP1aq   N2a  1 3.950000e-01    2.500000e+00
 TP1aq   N1a  1 3.950000e-01    2.500000e+00
 TP1aq   C6v  1 3.950000e-01    2.700000e+00
 TP1aq   C5v  1 3.950000e-01    2.500000e+00
 TP1aq   C4v  1 3.950000e-01    2.310000e+00
 TP1aq   C3v  1 3.950000e-01    2.110000e+00
 TP1aq   C2v  1 3.950000e-01    2.110000e+00
 TP1aq   C1v  1 3.950000e-01    1.850000e+00
 TP1aq   X4v  1 3.950000e-01    2.700000e+00
 TP1aq   X3v  1 3.950000e-01    2.700000e+00
 TP1aq   X2v  1 3.950000e-01    2.500000e+00
 TP1aq   X1v  1 3.950000e-01    2.310000e+00
 TP1aq   C6e  1 3.950000e-01    2.310000e+00
 TP1aq   C5e  1 3.950000e-01    2.110000e+00
 TP1aq   C4e  1 3.950000e-01    1.850000e+00
 TP1aq   C3e  1 3.950000e-01    1.670000e+00
 TP1aq   C2e  1 3.950000e-01    1.670000e+00
 TP1aq   C1e  1 3.980000e-01    1.450000e+00
 TP1aq   X4e  1 3.950000e-01    2.310000e+00
 TP1aq   X3e  1 3.950000e-01    2.310000e+00
 TP1aq   X2e  1 3.950000e-01    2.110000e+00
 TP1aq   X1e  1 3.950000e-01    1.850000e+00
  TN6a  N6aq  1 3.950000e-01    3.190000e+00
 TN6aq   N5a  1 3.950000e-01    3.190000e+00
 TN6aq   N4a  1 3.950000e-01    3.190000e+00
 TN6aq   N3a  1 3.950000e-01    2.700000e+00
 TN6aq   N2a  1 3.950000e-01    2.500000e+00
 TN6aq   N1a  1 3.950000e-01    2.500000e+00
 TN6aq   C6v  1 3.950000e-01    2.940000e+00
 TN6aq   C5v  1 3.950000e-01    2.700000e+00
 TN6aq   C4v  1 3.950000e-01    2.500000e+00
 TN6aq   C3v  1 3.950000e-01    2.310000e+00
 TN6aq   C2v  1 3.950000e-01    2.310000e+00
 TN6aq   C1v  1 3.950000e-01    2.110000e+00
 TN6aq   X4v  1 3.950000e-01    2.940000e+00
 TN6aq   X3v  1 3.950000e-01    2.700000e+00
 TN6aq   X2v  1 3.950000e-01    2.500000e+00
 TN6aq   X1v  1 3.950000e-01    2.310000e+00
 TN6aq   C6e  1 3.950000e-01    2.500000e+00
 TN6aq   C5e  1 3.950000e-01    2.310000e+00
 TN6aq   C4e  1 3.950000e-01    2.110000e+00
 TN6aq   C3e  1 3.950000e-01    1.850000e+00
 TN6aq   C2e  1 3.950000e-01    1.850000e+00
 TN6aq   C1e  1 3.950000e-01    1.670000e+00
 TN6aq   X4e  1 3.950000e-01    2.500000e+00
 TN6aq   X3e  1 3.950000e-01    2.310000e+00
 TN6aq   X2e  1 3.950000e-01    2.110000e+00
 TN6aq   X1e  1 3.950000e-01    1.850000e+00
  TN5a  N5aq  1 3.950000e-01    2.940000e+00
 TN5aq   N4a  1 3.950000e-01    2.940000e+00
 TN5aq   N3a  1 3.950000e-01    2.700000e+00
 TN5aq   N2a  1 3.950000e-01    2.700000e+00
 TN5aq   N1a  1 3.950000e-01    2.500000e+00
 TN5aq   C6v  1 3.950000e-01    2.940000e+00
 TN5aq   C5v  1 3.950000e-01    2.700000e+00
 TN5aq   C4v  1 3.950000e-01    2.500000e+00
 TN5aq   C3v  1 3.950000e-01    2.500000e+00
 TN5aq   C2v  1 3.950000e-01    2.310000e+00
 TN5aq   C1v  1 3.950000e-01    2.110000e+00
 TN5aq   X4v  1 3.950000e-01    3.190000e+00
 TN5aq   X3v  1 3.950000e-01    2.940000e+00
 TN5aq   X2v  1 3.950000e-01    2.700000e+00
 TN5aq   X1v  1 3.950000e-01    2.500000e+00
 TN5aq   C6e  1 3.950000e-01    2.500000e+00
 TN5aq   C5e  1 3.950000e-01    2.310000e+00
 TN5aq   C4e  1 3.950000e-01    2.110000e+00
 TN5aq   C3e  1 3.950000e-01    2.110000e+00
 TN5aq   C2e  1 3.950000e-01    1.850000e+00
 TN5aq   C1e  1 3.950000e-01    1.670000e+00
 TN5aq   X4e  1 3.950000e-01    2.700000e+00
 TN5aq   X3e  1 3.950000e-01    2.500000e+00
 TN5aq   X2e  1 3.950000e-01    2.310000e+00
 TN5aq   X1e  1 3.950000e-01    2.110000e+00
  TN4a  N4aq  1 3.950000e-01    2.940000e+00
 TN4aq   N3a  1 3.950000e-01    2.700000e+00
 TN4aq   N2a  1 3.950000e-01    2.700000e+00
 TN4aq   N1a  1 3.950000e-01    2.500000e+00
 TN4aq   C6v  1 3.950000e-01    2.940000e+00
 TN4aq   C5v  1 3.950000e-01    2.700000e+00
 TN4aq   C4v  1 3.950000e-01    2.700000e+00
 TN4aq   C3v  1 3.950000e-01    2.500000e+00
 TN4aq   C2v  1 3.950000e-01    2.310000e+00
 TN4aq   C1v  1 3.950000e-01    2.110000e+00
 TN4aq   X4v  1 3.950000e-01    3.430000e+00
 TN4aq   X3v  1 3.950000e-01    3.190000e+00
 TN4aq   X2v  1 3.950000e-01    2.700000e+00
 TN4aq   X1v  1 3.950000e-01    2.500000e+00
 TN4aq   C6e  1 3.950000e-01    2.500000e+00
 TN4aq   C5e  1 3.950000e-01    2.310000e+00
 TN4aq   C4e  1 3.950000e-01    2.310000e+00
 TN4aq   C3e  1 3.950000e-01    2.110000e+00
 TN4aq   C2e  1 3.950000e-01    1.850000e+00
 TN4aq   C1e  1 3.950000e-01    1.670000e+00
 TN4aq   X4e  1 3.950000e-01    2.940000e+00
 TN4aq   X3e  1 3.950000e-01    2.700000e+00
 TN4aq   X2e  1 3.950000e-01    2.310000e+00
 TN4aq   X1e  1 3.950000e-01    2.110000e+00
  TN3a  N3aq  1 3.950000e-01    2.700000e+00
 TN3aq   N2a  1 3.950000e-01    2.700000e+00
 TN3aq   N1a  1 3.950000e-01    2.500000e+00
 TN3aq   C6v  1 3.950000e-01    2.940000e+00
 TN3aq   C5v  1 3.950000e-01    2.700000e+00
 TN3aq   C4v  1 3.950000e-01    2.700000e+00
 TN3aq   C3v  1 3.950000e-01    2.500000e+00
 TN3aq   C2v  1 3.950000e-01    2.500000e+00
 TN3aq   C1v  1 3.950000e-01    2.310000e+00
 TN3aq   X4v  1 3.950000e-01    3.190000e+00
 TN3aq   X3v  1 3.950000e-01    2.940000e+00
 TN3aq   X2v  1 3.950000e-01    2.700000e+00
 TN3aq   X1v  1 3.950000e-01    2.700000e+00
 TN3aq   C6e  1 3.950000e-01    2.500000e+00
 TN3aq   C5e  1 3.950000e-01    2.310000e+00
 TN3aq   C4e  1 3.950000e-01    2.310000e+00
 TN3aq   C3e  1 3.950000e-01    2.110000e+00
 TN3aq   C2e  1 3.950000e-01    2.110000e+00
 TN3aq   C1e  1 3.950000e-01    1.850000e+00
 TN3aq   X4e  1 3.950000e-01    2.700000e+00
 TN3aq   X3e  1 3.950000e-01    2.500000e+00
 TN3aq   X2e  1 3.950000e-01    2.310000e+00
 TN3aq   X1e  1 3.950000e-01    2.310000e+00
  TN2a  N2aq  1 3.950000e-01    2.700000e+00
 TN2aq   N1a  1 3.950000e-01    2.500000e+00
 TN2aq   C6v  1 3.950000e-01    2.940000e+00
 TN2aq   C5v  1 3.950000e-01    2.700000e+00
 TN2aq   C4v  1 3.950000e-01    2.700000e+00
 TN2aq   C3v  1 3.950000e-01    2.700000e+00
 TN2aq   C2v  1 3.950000e-01    2.500000e+00
 TN2aq   C1v  1 3.950000e-01    2.310000e+00
 TN2aq   X4v  1 3.950000e-01    3.190000e+00
 TN2aq   X3v  1 3.950000e-01    2.940000e+00
 TN2aq   X2v  1 3.950000e-01    2.700000e+00
 TN2aq   X1v  1 3.950000e-01    2.700000e+00
 TN2aq   C6e  1 3.950000e-01    2.500000e+00
 TN2aq   C5e  1 3.950000e-01    2.310000e+00
 TN2aq   C4e  1 3.950000e-01    2.310000e+00
 TN2aq   C3e  1 3.950000e-01    2.310000e+00
 TN2aq   C2e  1 3.950000e-01    2.110000e+00
 TN2aq   C1e  1 3.950000e-01    1.850000e+00
 TN2aq   X4e  1 3.950000e-01    2.700000e+00
 TN2aq   X3e  1 3.950000e-01    2.500000e+00
 TN2aq   X2e  1 3.950000e-01    2.310000e+00
 TN2aq   X1e  1 3.950000e-01    2.310000e+00
  TN1a  N1aq  1 3.950000e-01    2.700000e+00
 TN1aq   C6v  1 3.950000e-01    3.190000e+00
 TN1aq   C5v  1 3.950000e-01    2.940000e+00
 TN1aq   C4v  1 3.950000e-01    2.940000e+00
 TN1aq   C3v  1 3.950000e-01    2.700000e+00
 TN1aq   C2v  1 3.950000e-01    2.500000e+00
 TN1aq   C1v  1 3.950000e-01    2.310000e+00
 TN1aq   X4v  1 3.950000e-01    2.940000e+00
 TN1aq   X3v  1 3.950000e-01    2.940000e+00
 TN1aq   X2v  1 3.950000e-01    2.700000e+00
 TN1aq   X1v  1 3.950000e-01    2.700000e+00
 TN1aq   C6e  1 3.950000e-01    2.700000e+00
 TN1aq   C5e  1 3.950000e-01    2.500000e+00
 TN1aq   C4e  1 3.950000e-01    2.500000e+00
 TN1aq   C3e  1 3.950000e-01    2.310000e+00
 TN1aq   C2e  1 3.950000e-01    2.110000e+00
 TN1aq   C1e  1 3.950000e-01    1.850000e+00
 TN1aq   X4e  1 3.950000e-01    2.500000e+00
 TN1aq   X3e  1 3.950000e-01    2.500000e+00
 TN1aq   X2e  1 3.950000e-01    2.310000e+00
 TN1aq   X1e  1 3.950000e-01    2.310000e+00
  TC6v  C6vq  1 3.950000e-01    2.700000e+00
 TC6vq   C5v  1 3.950000e-01    2.500000e+00
 TC6vq   C4v  1 3.950000e-01    2.500000e+00
 TC6vq   C3v  1 3.950000e-01    2.310000e+00
 TC6vq   C2v  1 3.950000e-01    2.110000e+00
 TC6vq   C1v  1 3.950000e-01    1.850000e+00
 TC6vq   X4v  1 3.950000e-01    2.500000e+00
 TC6vq   X3v  1 3.950000e-01    2.500000e+00
 TC6vq   X2v  1 3.950000e-01    2.500000e+00
 TC6vq   X1v  1 3.950000e-01    2.500000e+00
 TC6vq   C6e  1 3.950000e-01    3.430000e+00
 TC6vq   C5e  1 3.950000e-01    3.190000e+00
 TC6vq   C4e  1 3.950000e-01    3.190000e+00
 TC6vq   C3e  1 3.950000e-01    2.940000e+00
 TC6vq   C2e  1 3.950000e-01    2.700000e+00
 TC6vq   C1e  1 3.950000e-01    2.500000e+00
 TC6vq   X4e  1 3.950000e-01    3.190000e+00
 TC6vq   X3e  1 3.950000e-01    3.190000e+00
 TC6vq   X2e  1 3.950000e-01    3.190000e+00
 TC6vq   X1e  1 3.950000e-01    3.190000e+00
  TC5v  C5vq  1 3.950000e-01    2.500000e+00
 TC5vq   C4v  1 3.950000e-01    2.500000e+00
 TC5vq   C3v  1 3.950000e-01    2.310000e+00
 TC5vq   C2v  1 3.950000e-01    2.110000e+00
 TC5vq   C1v  1 3.950000e-01    2.110000e+00
 TC5vq   X4v  1 3.950000e-01    2.310000e+00
 TC5vq   X3v  1 3.950000e-01    2.310000e+00
 TC5vq   X2v  1 3.950000e-01    2.310000e+00
 TC5vq   X1v  1 3.950000e-01    2.500000e+00
  TC6e  C5vq  1 3.950000e-01    3.190000e+00
 TC5vq   C5e  1 3.950000e-01    3.190000e+00
 TC5vq   C4e  1 3.950000e-01    3.190000e+00
 TC5vq   C3e  1 3.950000e-01    2.940000e+00
 TC5vq   C2e  1 3.950000e-01    2.700000e+00
 TC5vq   C1e  1 3.950000e-01    2.700000e+00
 TC5vq   X4e  1 3.950000e-01    2.940000e+00
 TC5vq   X3e  1 3.950000e-01    2.940000e+00
 TC5vq   X2e  1 3.950000e-01    2.940000e+00
 TC5vq   X1e  1 3.950000e-01    3.190000e+00
  TC4v  C4vq  1 3.950000e-01    2.500000e+00
 TC4vq   C3v  1 3.950000e-01    2.500000e+00
 TC4vq   C2v  1 3.950000e-01    2.310000e+00
 TC4vq   C1v  1 3.950000e-01    2.110000e+00
 TC4vq   X4v  1 3.950000e-01    2.310000e+00
 TC4vq   X3v  1 3.950000e-01    2.310000e+00
 TC4vq   X2v  1 3.950000e-01    2.310000e+00
 TC4vq   X1v  1 3.950000e-01    2.500000e+00
  TC6e  C4vq  1 3.950000e-01    3.190000e+00
  TC5e  C4vq  1 3.950000e-01    3.190000e+00
 TC4vq   C4e  1 3.950000e-01    3.190000e+00
 TC4vq   C3e  1 3.950000e-01    3.190000e+00
 TC4vq   C2e  1 3.950000e-01    2.940000e+00
 TC4vq   C1e  1 3.950000e-01    2.700000e+00
 TC4vq   X4e  1 3.950000e-01    2.940000e+00
 TC4vq   X3e  1 3.950000e-01    2.940000e+00
 TC4vq   X2e  1 3.950000e-01    2.940000e+00
 TC4vq   X1e  1 3.950000e-01    3.190000e+00
  TC3v  C3vq  1 3.950000e-01    2.500000e+00
 TC3vq   C2v  1 3.950000e-01    2.500000e+00
 TC3vq   C1v  1 3.950000e-01    2.500000e+00
 TC3vq   X4v  1 3.950000e-01    2.310000e+00
 TC3vq   X3v  1 3.950000e-01    2.310000e+00
 TC3vq   X2v  1 3.950000e-01    2.310000e+00
 TC3vq   X1v  1 3.950000e-01    2.500000e+00
  TC6e  C3vq  1 3.950000e-01    2.940000e+00
  TC5e  C3vq  1 3.950000e-01    2.940000e+00
  TC4e  C3vq  1 3.950000e-01    3.190000e+00
 TC3vq   C3e  1 3.950000e-01    3.190000e+00
 TC3vq   C2e  1 3.950000e-01    3.190000e+00
 TC3vq   C1e  1 3.950000e-01    3.190000e+00
 TC3vq   X4e  1 3.950000e-01    2.940000e+00
 TC3vq   X3e  1 3.950000e-01    2.940000e+00
 TC3vq   X2e  1 3.950000e-01    2.940000e+00
 TC3vq   X1e  1 3.950000e-01    3.190000e+00
  TC2v  C2vq  1 3.950000e-01    2.500000e+00
 TC2vq   C1v  1 3.950000e-01    2.700000e+00
 TC2vq   X4v  1 3.950000e-01    1.850000e+00
 TC2vq   X3v  1 3.950000e-01    2.310000e+00
 TC2vq   X2v  1 3.950000e-01    2.310000e+00
 TC2vq   X1v  1 3.950000e-01    2.310000e+00
  TC6e  C2vq  1 3.950000e-01    2.700000e+00
  TC5e  C2vq  1 3.950000e-01    2.700000e+00
  TC4e  C2vq  1 3.950000e-01    2.940000e+00
  TC3e  C2vq  1 3.950000e-01    3.190000e+00
 TC2vq   C2e  1 3.950000e-01    3.190000e+00
 TC2vq   C1e  1 3.950000e-01    3.430000e+00
 TC2vq   X4e  1 3.950000e-01    2.500000e+00
 TC2vq   X3e  1 3.950000e-01    2.940000e+00
 TC2vq   X2e  1 3.950000e-01    2.940000e+00
 TC2vq   X1e  1 3.950000e-01    2.940000e+00
  TC1v  C1vq  1 3.950000e-01    2.500000e+00
 TC1vq   X4v  1 3.950000e-01    1.850000e+00
 TC1vq   X3v  1 3.950000e-01    2.310000e+00
 TC1vq   X2v  1 3.950000e-01    2.310000e+00
 TC1vq   X1v  1 3.950000e-01    2.310000e+00
  TC6e  C1vq  1 3.950000e-01    2.500000e+00
  TC5e  C1vq  1 3.950000e-01    2.700000e+00
  TC4e  C1vq  1 3.950000e-01    2.700000e+00
  TC3e  C1vq  1 3.950000e-01    3.190000e+00
  TC2e  C1vq  1 3.950000e-01    3.430000e+00
 TC1vq   C1e  1 3.950000e-01    3.190000e+00
 TC1vq   X4e  1 3.950000e-01    2.500000e+00
 TC1vq   X3e  1 3.950000e-01    2.940000e+00
 TC1vq   X2e  1 3.950000e-01    2.940000e+00
 TC1vq   X1e  1 3.950000e-01    2.940000e+00
  TX4v  X4vq  1 3.950000e-01    2.500000e+00
 TX4vq   X3v  1 3.950000e-01    2.500000e+00
 TX4vq   X2v  1 3.950000e-01    2.500000e+00
 TX4vq   X1v  1 3.950000e-01    2.500000e+00
  TC6e  X4vq  1 3.950000e-01    3.190000e+00
  TC5e  X4vq  1 3.950000e-01    2.940000e+00
  TC4e  X4vq  1 3.950000e-01    2.940000e+00
  TC3e  X4vq  1 3.950000e-01    2.940000e+00
  TC2e  X4vq  1 3.950000e-01    2.500000e+00
  TC1e  X4vq  1 3.950000e-01    2.500000e+00
 TX4vq   X4e  1 3.950000e-01    3.190000e+00
 TX4vq   X3e  1 3.950000e-01    3.190000e+00
 TX4vq   X2e  1 3.950000e-01    3.190000e+00
 TX4vq   X1e  1 3.950000e-01    3.190000e+00
  TX3v  X3vq  1 3.950000e-01    2.500000e+00
 TX3vq   X2v  1 3.950000e-01    2.700000e+00
 TX3vq   X1v  1 3.950000e-01    2.700000e+00
  TC6e  X3vq  1 3.950000e-01    3.190000e+00
  TC5e  X3vq  1 3.950000e-01    2.940000e+00
  TC4e  X3vq  1 3.950000e-01    2.940000e+00
  TC3e  X3vq  1 3.950000e-01    2.940000e+00
  TC2e  X3vq  1 3.950000e-01    2.940000e+00
  TC1e  X3vq  1 3.950000e-01    2.940000e+00
  TX4e  X3vq  1 3.950000e-01    3.190000e+00
 TX3vq   X3e  1 3.950000e-01    3.190000e+00
 TX3vq   X2e  1 3.950000e-01    3.430000e+00
 TX3vq   X1e  1 3.950000e-01    3.430000e+00
  TX2v  X2vq  1 3.950000e-01    2.700000e+00
 TX2vq   X1v  1 3.950000e-01    2.700000e+00
  TC6e  X2vq  1 3.950000e-01    3.190000e+00
  TC5e  X2vq  1 3.950000e-01    2.940000e+00
  TC4e  X2vq  1 3.950000e-01    2.940000e+00
  TC3e  X2vq  1 3.950000e-01    2.940000e+00
  TC2e  X2vq  1 3.950000e-01    2.940000e+00
  TC1e  X2vq  1 3.950000e-01    2.940000e+00
  TX4e  X2vq  1 3.950000e-01    3.190000e+00
  TX3e  X2vq  1 3.950000e-01    3.430000e+00
 TX2vq   X2e  1 3.950000e-01    3.430000e+00
 TX2vq   X1e  1 3.950000e-01    3.430000e+00
  TX1v  X1vq  1 3.950000e-01    2.940000e+00
  TC6e  X1vq  1 3.950000e-01    3.190000e+00
  TC5e  X1vq  1 3.950000e-01    3.190000e+00
  TC4e  X1vq  1 3.950000e-01    3.190000e+00
  TC3e  X1vq  1 3.950000e-01    3.190000e+00
  TC2e  X1vq  1 3.950000e-01    2.940000e+00
  TC1e  X1vq  1 3.950000e-01    2.940000e+00
  TX4e  X1vq  1 3.950000e-01    3.190000e+00
  TX3e  X1vq  1 3.950000e-01    3.430000e+00
  TX2e  X1vq  1 3.950000e-01    3.430000e+00
 TX1vq   X1e  1 3.950000e-01    3.670000e+00
  TC6e  C6eq  1 3.950000e-01    2.700000e+00
 TC6eq   C5e  1 3.950000e-01    2.500000e+00
 TC6eq   C4e  1 3.950000e-01    2.500000e+00
 TC6eq   C3e  1 3.950000e-01    2.310000e+00
 TC6eq   C2e  1 3.950000e-01    2.110000e+00
 TC6eq   C1e  1 3.950000e-01    1.850000e+00
 TC6eq   X4e  1 3.950000e-01    2.500000e+00
 TC6eq   X3e  1 3.950000e-01    2.500000e+00
 TC6eq   X2e  1 3.950000e-01    2.500000e+00
 TC6eq   X1e  1 3.950000e-01    2.500000e+00
  TC5e  C5eq  1 3.950000e-01    2.500000e+00
 TC5eq   C4e  1 3.950000e-01    2.500000e+00
 TC5eq   C3e  1 3.950000e-01    2.310000e+00
 TC5eq   C2e  1 3.950000e-01    2.110000e+00
 TC5eq   C1e  1 3.950000e-01    2.110000e+00
 TC5eq   X4e  1 3.950000e-01    2.310000e+00
 TC5eq   X3e  1 3.950000e-01    2.310000e+00
 TC5eq   X2e  1 3.950000e-01    2.310000e+00
 TC5eq   X1e  1 3.950000e-01    2.500000e+00
  TC4e  C4eq  1 3.950000e-01    2.500000e+00
 TC4eq   C3e  1 3.950000e-01    2.500000e+00
 TC4eq   C2e  1 3.950000e-01    2.310000e+00
 TC4eq   C1e  1 3.950000e-01    2.110000e+00
 TC4eq   X4e  1 3.950000e-01    2.310000e+00
 TC4eq   X3e  1 3.950000e-01    2.310000e+00
 TC4eq   X2e  1 3.950000e-01    2.310000e+00
 TC4eq   X1e  1 3.950000e-01    2.500000e+00
  TC3e  C3eq  1 3.950000e-01    2.500000e+00
 TC3eq   C2e  1 3.950000e-01    2.500000e+00
 TC3eq   C1e  1 3.950000e-01    2.500000e+00
 TC3eq   X4e  1 3.950000e-01    2.310000e+00
 TC3eq   X3e  1 3.950000e-01    2.310000e+00
 TC3eq   X2e  1 3.950000e-01    2.310000e+00
 TC3eq   X1e  1 3.950000e-01    2.500000e+00
  TC2e  C2eq  1 3.950000e-01    2.500000e+00
 TC2eq   C1e  1 3.950000e-01    2.700000e+00
 TC2eq   X4e  1 3.950000e-01    1.850000e+00
 TC2eq   X3e  1 3.950000e-01    2.310000e+00
 TC2eq   X2e  1 3.950000e-01    2.310000e+00
 TC2eq   X1e  1 3.950000e-01    2.310000e+00
  TC1e  C1eq  1 3.950000e-01    2.500000e+00
 TC1eq   X4e  1 3.950000e-01    1.850000e+00
 TC1eq   X3e  1 3.950000e-01    2.310000e+00
 TC1eq   X2e  1 3.950000e-01    2.310000e+00
 TC1eq   X1e  1 3.950000e-01    2.310000e+00
  TX4e  X4eq  1 3.950000e-01    2.500000e+00
 TX4eq   X3e  1 3.950000e-01    2.500000e+00
 TX4eq   X2e  1 3.950000e-01    2.500000e+00
 TX4eq   X1e  1 3.950000e-01    2.500000e+00
  TX3e  X3eq  1 3.950000e-01    2.500000e+00
 TX3eq   X2e  1 3.950000e-01    2.700000e+00
 TX3eq   X1e  1 3.950000e-01    2.700000e+00
  TX2e  X2eq  1 3.950000e-01    2.700000e+00
 TX2eq   X1e  1 3.950000e-01    2.700000e+00
  TX1e  X1eq  1 3.950000e-01    2.940000e+00
  TC6e  X1eq  1 3.950000e-01    2.500000e+00
  TC5e  X1eq  1 3.950000e-01    2.500000e+00
  TC4e  X1eq  1 3.950000e-01    2.500000e+00
  TC3e  X1eq  1 3.950000e-01    2.500000e+00
  TC2e  X1eq  1 3.950000e-01    2.310000e+00
  TC1e  X1eq  1 3.950000e-01    2.310000e+00
  TX4e  X1eq  1 3.950000e-01    2.500000e+00
  TX3e  X1eq  1 3.950000e-01    2.700000e+00
  TX2e  X1eq  1 3.950000e-01    2.700000e+00
  TC6v  X1eq  1 3.950000e-01    3.190000e+00
  TC5v  X1eq  1 3.950000e-01    3.190000e+00
  TC4v  X1eq  1 3.950000e-01    3.190000e+00
  TC3v  X1eq  1 3.950000e-01    3.190000e+00
  TC2v  X1eq  1 3.950000e-01    2.940000e+00
  TC1v  X1eq  1 3.950000e-01    2.940000e+00
  TX4v  X1eq  1 3.950000e-01    3.190000e+00
  TX3v  X1eq  1 3.950000e-01    3.430000e+00
  TX2v  X1eq  1 3.950000e-01    3.430000e+00
  TX1v  X1eq  1 3.950000e-01    3.670000e+00
  TP6d  X1eq  1 3.950000e-01    2.110000e+00
  TP5d  X1eq  1 3.950000e-01    2.110000e+00
  TP4d  X1eq  1 3.950000e-01    2.310000e+00
  TP3d  X1eq  1 3.950000e-01    2.310000e+00
  TP2d  X1eq  1 3.950000e-01    2.310000e+00
  TP1d  X1eq  1 3.950000e-01    2.310000e+00
  TN6d  X1eq  1 3.950000e-01    2.310000e+00
  TN5d  X1eq  1 3.950000e-01    2.500000e+00
  TN4d  X1eq  1 3.950000e-01    2.500000e+00
  TN3d  X1eq  1 3.950000e-01    2.700000e+00
  TN2d  X1eq  1 3.950000e-01    2.700000e+00
  TN1d  X1eq  1 3.950000e-01    2.700000e+00
  TP6a  X1eq  1 3.950000e-01    1.670000e+00
  TP5a  X1eq  1 3.950000e-01    1.670000e+00
  TP4a  X1eq  1 3.950000e-01    1.850000e+00
  TP3a  X1eq  1 3.950000e-01    1.850000e+00
  TP2a  X1eq  1 3.950000e-01    1.850000e+00
  TP1a  X1eq  1 3.950000e-01    1.850000e+00
  TN6a  X1eq  1 3.950000e-01    1.850000e+00
  TN5a  X1eq  1 3.950000e-01    2.110000e+00
  TN4a  X1eq  1 3.950000e-01    2.110000e+00
  TN3a  X1eq  1 3.950000e-01    2.310000e+00
  TN2a  X1eq  1 3.950000e-01    2.310000e+00
  TN1a  X1eq  1 3.950000e-01    2.310000e+00
  TC6e  X2eq  1 3.950000e-01    2.500000e+00
  TC5e  X2eq  1 3.950000e-01    2.310000e+00
  TC4e  X2eq  1 3.950000e-01    2.310000e+00
  TC3e  X2eq  1 3.950000e-01    2.310000e+00
  TC2e  X2eq  1 3.950000e-01    2.310000e+00
  TC1e  X2eq  1 3.950000e-01    2.310000e+00
  TX4e  X2eq  1 3.950000e-01    2.500000e+00
  TX3e  X2eq  1 3.950000e-01    2.700000e+00
  TC6v  X2eq  1 3.950000e-01    3.190000e+00
  TC5v  X2eq  1 3.950000e-01    2.940000e+00
  TC4v  X2eq  1 3.950000e-01    2.940000e+00
  TC3v  X2eq  1 3.950000e-01    2.940000e+00
  TC2v  X2eq  1 3.950000e-01    2.940000e+00
  TC1v  X2eq  1 3.950000e-01    2.940000e+00
  TX4v  X2eq  1 3.950000e-01    3.190000e+00
  TX3v  X2eq  1 3.950000e-01    3.430000e+00
  TX2v  X2eq  1 3.950000e-01    3.430000e+00
 TX2eq   X1v  1 3.950000e-01    3.430000e+00
  TP6d  X2eq  1 3.950000e-01    2.310000e+00
  TP5d  X2eq  1 3.950000e-01    2.500000e+00
  TP4d  X2eq  1 3.950000e-01    2.500000e+00
  TP3d  X2eq  1 3.950000e-01    2.500000e+00
  TP2d  X2eq  1 3.950000e-01    2.500000e+00
  TP1d  X2eq  1 3.950000e-01    2.500000e+00
  TN6d  X2eq  1 3.950000e-01    2.500000e+00
  TN5d  X2eq  1 3.950000e-01    2.700000e+00
  TN4d  X2eq  1 3.950000e-01    2.700000e+00
  TN3d  X2eq  1 3.950000e-01    2.700000e+00
  TN2d  X2eq  1 3.950000e-01    2.700000e+00
  TN1d  X2eq  1 3.950000e-01    2.700000e+00
  TP6a  X2eq  1 3.950000e-01    1.850000e+00
  TP5a  X2eq  1 3.950000e-01    2.110000e+00
  TP4a  X2eq  1 3.950000e-01    2.110000e+00
  TP3a  X2eq  1 3.950000e-01    2.110000e+00
  TP2a  X2eq  1 3.950000e-01    2.110000e+00
  TP1a  X2eq  1 3.950000e-01    2.110000e+00
  TN6a  X2eq  1 3.950000e-01    2.110000e+00
  TN5a  X2eq  1 3.950000e-01    2.310000e+00
  TN4a  X2eq  1 3.950000e-01    2.310000e+00
  TN3a  X2eq  1 3.950000e-01    2.310000e+00
  TN2a  X2eq  1 3.950000e-01    2.310000e+00
  TN1a  X2eq  1 3.950000e-01    2.310000e+00
  TC6e  X3eq  1 3.950000e-01    2.500000e+00
  TC5e  X3eq  1 3.950000e-01    2.310000e+00
  TC4e  X3eq  1 3.950000e-01    2.310000e+00
  TC3e  X3eq  1 3.950000e-01    2.310000e+00
  TC2e  X3eq  1 3.950000e-01    2.310000e+00
  TC1e  X3eq  1 3.950000e-01    2.310000e+00
  TX4e  X3eq  1 3.950000e-01    2.500000e+00
  TC6v  X3eq  1 3.950000e-01    3.190000e+00
  TC5v  X3eq  1 3.950000e-01    2.940000e+00
  TC4v  X3eq  1 3.950000e-01    2.940000e+00
  TC3v  X3eq  1 3.950000e-01    2.940000e+00
  TC2v  X3eq  1 3.950000e-01    2.940000e+00
  TC1v  X3eq  1 3.950000e-01    2.940000e+00
  TX4v  X3eq  1 3.950000e-01    3.190000e+00
  TX3v  X3eq  1 3.950000e-01    3.190000e+00
 TX3eq   X2v  1 3.950000e-01    3.430000e+00
 TX3eq   X1v  1 3.950000e-01    3.430000e+00
  TP6d  X3eq  1 3.950000e-01    2.500000e+00
  TP5d  X3eq  1 3.950000e-01    2.500000e+00
  TP4d  X3eq  1 3.950000e-01    2.500000e+00
  TP3d  X3eq  1 3.950000e-01    2.700000e+00
  TP2d  X3eq  1 3.950000e-01    2.700000e+00
  TP1d  X3eq  1 3.950000e-01    2.700000e+00
  TN6d  X3eq  1 3.950000e-01    2.700000e+00
  TN5d  X3eq  1 3.950000e-01    2.940000e+00
  TN4d  X3eq  1 3.950000e-01    3.190000e+00
  TN3d  X3eq  1 3.950000e-01    2.940000e+00
  TN2d  X3eq  1 3.950000e-01    2.940000e+00
  TN1d  X3eq  1 3.950000e-01    2.940000e+00
  TP6a  X3eq  1 3.950000e-01    2.110000e+00
  TP5a  X3eq  1 3.950000e-01    2.110000e+00
  TP4a  X3eq  1 3.950000e-01    2.110000e+00
  TP3a  X3eq  1 3.950000e-01    2.310000e+00
  TP2a  X3eq  1 3.950000e-01    2.310000e+00
  TP1a  X3eq  1 3.950000e-01    2.310000e+00
  TN6a  X3eq  1 3.950000e-01    2.310000e+00
  TN5a  X3eq  1 3.950000e-01    2.500000e+00
  TN4a  X3eq  1 3.950000e-01    2.700000e+00
  TN3a  X3eq  1 3.950000e-01    2.500000e+00
  TN2a  X3eq  1 3.950000e-01    2.500000e+00
  TN1a  X3eq  1 3.950000e-01    2.500000e+00
  TC6e  X4eq  1 3.950000e-01    2.500000e+00
  TC5e  X4eq  1 3.950000e-01    2.310000e+00
  TC4e  X4eq  1 3.950000e-01    2.310000e+00
  TC3e  X4eq  1 3.950000e-01    2.310000e+00
  TC2e  X4eq  1 3.950000e-01    1.850000e+00
  TC1e  X4eq  1 3.950000e-01    1.850000e+00
  TC6v  X4eq  1 3.950000e-01    3.190000e+00
  TC5v  X4eq  1 3.950000e-01    2.940000e+00
  TC4v  X4eq  1 3.950000e-01    2.940000e+00
  TC3v  X4eq  1 3.950000e-01    2.940000e+00
  TC2v  X4eq  1 3.950000e-01    2.500000e+00
  TC1v  X4eq  1 3.950000e-01    2.500000e+00
  TX4v  X4eq  1 3.950000e-01    3.190000e+00
 TX4eq   X3v  1 3.950000e-01    3.190000e+00
 TX4eq   X2v  1 3.950000e-01    3.190000e+00
 TX4eq   X1v  1 3.950000e-01    3.190000e+00
  TP6d  X4eq  1 3.950000e-01    2.500000e+00
  TP5d  X4eq  1 3.950000e-01    2.700000e+00
  TP4d  X4eq  1 3.950000e-01    2.700000e+00
  TP3d  X4eq  1 3.950000e-01    2.700000e+00
  TP2d  X4eq  1 3.950000e-01    2.700000e+00
  TP1d  X4eq  1 3.950000e-01    2.700000e+00
  TN6d  X4eq  1 3.950000e-01    2.940000e+00
  TN5d  X4eq  1 3.950000e-01    3.190000e+00
  TN4d  X4eq  1 3.950000e-01    3.430000e+00
  TN3d  X4eq  1 3.950000e-01    3.190000e+00
  TN2d  X4eq  1 3.950000e-01    3.190000e+00
  TN1d  X4eq  1 3.950000e-01    2.940000e+00
  TP6a  X4eq  1 3.950000e-01    2.110000e+00
  TP5a  X4eq  1 3.950000e-01    2.310000e+00
  TP4a  X4eq  1 3.950000e-01    2.310000e+00
  TP3a  X4eq  1 3.950000e-01    2.310000e+00
  TP2a  X4eq  1 3.950000e-01    2.310000e+00
  TP1a  X4eq  1 3.950000e-01    2.310000e+00
  TN6a  X4eq  1 3.950000e-01    2.500000e+00
  TN5a  X4eq  1 3.950000e-01    2.700000e+00
  TN4a  X4eq  1 3.950000e-01    2.940000e+00
  TN3a  X4eq  1 3.950000e-01    2.700000e+00
  TN2a  X4eq  1 3.950000e-01    2.700000e+00
  TN1a  X4eq  1 3.950000e-01    2.500000e+00
  TC6e  C1eq  1 3.950000e-01    1.850000e+00
  TC5e  C1eq  1 3.950000e-01    2.110000e+00
  TC4e  C1eq  1 3.950000e-01    2.110000e+00
  TC3e  C1eq  1 3.950000e-01    2.500000e+00
  TC2e  C1eq  1 3.950000e-01    2.700000e+00
  TC6v  C1eq  1 3.950000e-01    2.500000e+00
  TC5v  C1eq  1 3.950000e-01    2.700000e+00
  TC4v  C1eq  1 3.950000e-01    2.700000e+00
  TC3v  C1eq  1 3.950000e-01    3.190000e+00
  TC2v  C1eq  1 3.950000e-01    3.430000e+00
  TC1v  C1eq  1 3.950000e-01    3.190000e+00
 TC1eq   X4v  1 3.950000e-01    2.500000e+00
 TC1eq   X3v  1 3.950000e-01    2.940000e+00
 TC1eq   X2v  1 3.950000e-01    2.940000e+00
 TC1eq   X1v  1 3.950000e-01    2.940000e+00
  TP6d  C1eq  1 3.990000e-01    1.180000e+00
  TP5d  C1eq  1 3.950000e-01    1.670000e+00
  TP4d  C1eq  1 3.950000e-01    1.670000e+00
  TP3d  C1eq  1 3.950000e-01    1.670000e+00
  TP2d  C1eq  1 3.950000e-01    1.850000e+00
  TP1d  C1eq  1 3.950000e-01    1.850000e+00
  TN6d  C1eq  1 3.950000e-01    2.110000e+00
  TN5d  C1eq  1 3.950000e-01    2.110000e+00
  TN4d  C1eq  1 3.950000e-01    2.110000e+00
  TN3d  C1eq  1 3.950000e-01    2.310000e+00
  TN2d  C1eq  1 3.950000e-01    2.310000e+00
  TN1d  C1eq  1 3.950000e-01    2.310000e+00
  TP6a  C1eq  1 4.040000e-01    8.300000e-01
  TP5a  C1eq  1 3.990000e-01    1.180000e+00
  TP4a  C1eq  1 3.990000e-01    1.180000e+00
  TP3a  C1eq  1 3.990000e-01    1.180000e+00
  TP2a  C1eq  1 3.980000e-01    1.450000e+00
  TP1a  C1eq  1 3.980000e-01    1.450000e+00
  TN6a  C1eq  1 3.950000e-01    1.670000e+00
  TN5a  C1eq  1 3.950000e-01    1.670000e+00
  TN4a  C1eq  1 3.950000e-01    1.670000e+00
  TN3a  C1eq  1 3.950000e-01    1.850000e+00
  TN2a  C1eq  1 3.950000e-01    1.850000e+00
  TN1a  C1eq  1 3.950000e-01    1.850000e+00
  TC6e  C2eq  1 3.950000e-01    2.110000e+00
  TC5e  C2eq  1 3.950000e-01    2.110000e+00
  TC4e  C2eq  1 3.950000e-01    2.310000e+00
  TC3e  C2eq  1 3.950000e-01    2.500000e+00
  TC6v  C2eq  1 3.950000e-01    2.700000e+00
  TC5v  C2eq  1 3.950000e-01    2.700000e+00
  TC4v  C2eq  1 3.950000e-01    2.940000e+00
  TC3v  C2eq  1 3.950000e-01    3.190000e+00
  TC2v  C2eq  1 3.950000e-01    3.190000e+00
 TC2eq   C1v  1 3.950000e-01    3.430000e+00
 TC2eq   X4v  1 3.950000e-01    2.500000e+00
 TC2eq   X3v  1 3.950000e-01    2.940000e+00
 TC2eq   X2v  1 3.950000e-01    2.940000e+00
 TC2eq   X1v  1 3.950000e-01    2.940000e+00
  TP6d  C2eq  1 3.950000e-01    1.670000e+00
  TP5d  C2eq  1 3.950000e-01    1.850000e+00
  TP4d  C2eq  1 3.950000e-01    1.850000e+00
  TP3d  C2eq  1 3.950000e-01    1.850000e+00
  TP2d  C2eq  1 3.950000e-01    2.110000e+00
  TP1d  C2eq  1 3.950000e-01    2.110000e+00
  TN6d  C2eq  1 3.950000e-01    2.310000e+00
  TN5d  C2eq  1 3.950000e-01    2.310000e+00
  TN4d  C2eq  1 3.950000e-01    2.310000e+00
  TN3d  C2eq  1 3.950000e-01    2.500000e+00
  TN2d  C2eq  1 3.950000e-01    2.500000e+00
  TN1d  C2eq  1 3.950000e-01    2.500000e+00
  TP6a  C2eq  1 3.990000e-01    1.180000e+00
  TP5a  C2eq  1 3.980000e-01    1.450000e+00
  TP4a  C2eq  1 3.980000e-01    1.450000e+00
  TP3a  C2eq  1 3.980000e-01    1.450000e+00
  TP2a  C2eq  1 3.950000e-01    1.670000e+00
  TP1a  C2eq  1 3.950000e-01    1.670000e+00
  TN6a  C2eq  1 3.950000e-01    1.850000e+00
  TN5a  C2eq  1 3.950000e-01    1.850000e+00
  TN4a  C2eq  1 3.950000e-01    1.850000e+00
  TN3a  C2eq  1 3.950000e-01    2.110000e+00
  TN2a  C2eq  1 3.950000e-01    2.110000e+00
  TN1a  C2eq  1 3.950000e-01    2.110000e+00
  TC6e  C3eq  1 3.950000e-01    2.310000e+00
  TC5e  C3eq  1 3.950000e-01    2.310000e+00
  TC4e  C3eq  1 3.950000e-01    2.500000e+00
  TC6v  C3eq  1 3.950000e-01    2.940000e+00
  TC5v  C3eq  1 3.950000e-01    2.940000e+00
  TC4v  C3eq  1 3.950000e-01    3.190000e+00
  TC3v  C3eq  1 3.950000e-01    3.190000e+00
 TC3eq   C2v  1 3.950000e-01    3.190000e+00
 TC3eq   C1v  1 3.950000e-01    3.190000e+00
 TC3eq   X4v  1 3.950000e-01    2.940000e+00
 TC3eq   X3v  1 3.950000e-01    2.940000e+00
 TC3eq   X2v  1 3.950000e-01    2.940000e+00
 TC3eq   X1v  1 3.950000e-01    3.190000e+00
  TP6d  C3eq  1 3.950000e-01    1.670000e+00
  TP5d  C3eq  1 3.950000e-01    1.850000e+00
  TP4d  C3eq  1 3.950000e-01    1.850000e+00
  TP3d  C3eq  1 3.950000e-01    1.850000e+00
  TP2d  C3eq  1 3.950000e-01    2.110000e+00
  TP1d  C3eq  1 3.950000e-01    2.110000e+00
  TN6d  C3eq  1 3.950000e-01    2.310000e+00
  TN5d  C3eq  1 3.950000e-01    2.500000e+00
  TN4d  C3eq  1 3.950000e-01    2.500000e+00
  TN3d  C3eq  1 3.950000e-01    2.500000e+00
  TN2d  C3eq  1 3.950000e-01    2.700000e+00
  TN1d  C3eq  1 3.950000e-01    2.700000e+00
  TP6a  C3eq  1 3.990000e-01    1.180000e+00
  TP5a  C3eq  1 3.980000e-01    1.450000e+00
  TP4a  C3eq  1 3.980000e-01    1.450000e+00
  TP3a  C3eq  1 3.980000e-01    1.450000e+00
  TP2a  C3eq  1 3.950000e-01    1.670000e+00
  TP1a  C3eq  1 3.950000e-01    1.670000e+00
  TN6a  C3eq  1 3.950000e-01    1.850000e+00
  TN5a  C3eq  1 3.950000e-01    2.110000e+00
  TN4a  C3eq  1 3.950000e-01    2.110000e+00
  TN3a  C3eq  1 3.950000e-01    2.110000e+00
  TN2a  C3eq  1 3.950000e-01    2.310000e+00
  TN1a  C3eq  1 3.950000e-01    2.310000e+00
  TC6e  C4eq  1 3.950000e-01    2.500000e+00
  TC5e  C4eq  1 3.950000e-01    2.500000e+00
  TC6v  C4eq  1 3.950000e-01    3.190000e+00
  TC5v  C4eq  1 3.950000e-01    3.190000e+00
  TC4v  C4eq  1 3.950000e-01    3.190000e+00
 TC4eq   C3v  1 3.950000e-01    3.190000e+00
 TC4eq   C2v  1 3.950000e-01    2.940000e+00
 TC4eq   C1v  1 3.950000e-01    2.700000e+00
 TC4eq   X4v  1 3.950000e-01    2.940000e+00
 TC4eq   X3v  1 3.950000e-01    2.940000e+00
 TC4eq   X2v  1 3.950000e-01    2.940000e+00
 TC4eq   X1v  1 3.950000e-01    3.190000e+00
  TP6d  C4eq  1 3.950000e-01    1.850000e+00
  TP5d  C4eq  1 3.950000e-01    2.110000e+00
  TP4d  C4eq  1 3.950000e-01    2.110000e+00
  TP3d  C4eq  1 3.950000e-01    2.310000e+00
  TP2d  C4eq  1 3.950000e-01    2.310000e+00
  TP1d  C4eq  1 3.950000e-01    2.310000e+00
  TN6d  C4eq  1 3.950000e-01    2.500000e+00
  TN5d  C4eq  1 3.950000e-01    2.500000e+00
  TN4d  C4eq  1 3.950000e-01    2.700000e+00
  TN3d  C4eq  1 3.950000e-01    2.700000e+00
  TN2d  C4eq  1 3.950000e-01    2.700000e+00
  TN1d  C4eq  1 3.950000e-01    2.940000e+00
  TP6a  C4eq  1 3.980000e-01    1.450000e+00
  TP5a  C4eq  1 3.950000e-01    1.670000e+00
  TP4a  C4eq  1 3.950000e-01    1.670000e+00
  TP3a  C4eq  1 3.950000e-01    1.850000e+00
  TP2a  C4eq  1 3.950000e-01    1.850000e+00
  TP1a  C4eq  1 3.950000e-01    1.850000e+00
  TN6a  C4eq  1 3.950000e-01    2.110000e+00
  TN5a  C4eq  1 3.950000e-01    2.110000e+00
  TN4a  C4eq  1 3.950000e-01    2.310000e+00
  TN3a  C4eq  1 3.950000e-01    2.310000e+00
  TN2a  C4eq  1 3.950000e-01    2.310000e+00
  TN1a  C4eq  1 3.950000e-01    2.500000e+00
  TC6e  C5eq  1 3.950000e-01    2.500000e+00
  TC6v  C5eq  1 3.950000e-01    3.190000e+00
  TC5v  C5eq  1 3.950000e-01    3.190000e+00
 TC5eq   C4v  1 3.950000e-01    3.190000e+00
 TC5eq   C3v  1 3.950000e-01    2.940000e+00
 TC5eq   C2v  1 3.950000e-01    2.700000e+00
 TC5eq   C1v  1 3.950000e-01    2.700000e+00
 TC5eq   X4v  1 3.950000e-01    2.940000e+00
 TC5eq   X3v  1 3.950000e-01    2.940000e+00
 TC5eq   X2v  1 3.950000e-01    2.940000e+00
 TC5eq   X1v  1 3.950000e-01    3.190000e+00
  TP6d  C5eq  1 3.950000e-01    2.110000e+00
  TP5d  C5eq  1 3.950000e-01    2.310000e+00
  TP4d  C5eq  1 3.950000e-01    2.310000e+00
  TP3d  C5eq  1 3.950000e-01    2.500000e+00
  TP2d  C5eq  1 3.950000e-01    2.500000e+00
  TP1d  C5eq  1 3.950000e-01    2.500000e+00
  TN6d  C5eq  1 3.950000e-01    2.700000e+00
  TN5d  C5eq  1 3.950000e-01    2.700000e+00
  TN4d  C5eq  1 3.950000e-01    2.700000e+00
  TN3d  C5eq  1 3.950000e-01    2.700000e+00
  TN2d  C5eq  1 3.950000e-01    2.700000e+00
  TN1d  C5eq  1 3.950000e-01    2.940000e+00
  TP6a  C5eq  1 3.950000e-01    1.670000e+00
  TP5a  C5eq  1 3.950000e-01    1.850000e+00
  TP4a  C5eq  1 3.950000e-01    1.850000e+00
  TP3a  C5eq  1 3.950000e-01    2.110000e+00
  TP2a  C5eq  1 3.950000e-01    2.110000e+00
  TP1a  C5eq  1 3.950000e-01    2.110000e+00
  TN6a  C5eq  1 3.950000e-01    2.310000e+00
  TN5a  C5eq  1 3.950000e-01    2.310000e+00
  TN4a  C5eq  1 3.950000e-01    2.310000e+00
  TN3a  C5eq  1 3.950000e-01    2.310000e+00
  TN2a  C5eq  1 3.950000e-01    2.310000e+00
  TN1a  C5eq  1 3.950000e-01    2.500000e+00
  TC6v  C6eq  1 3.950000e-01    3.430000e+00
 TC6eq   C5v  1 3.950000e-01    3.190000e+00
 TC6eq   C4v  1 3.950000e-01    3.190000e+00
 TC6eq   C3v  1 3.950000e-01    2.940000e+00
 TC6eq   C2v  1 3.950000e-01    2.700000e+00
 TC6eq   C1v  1 3.950000e-01    2.500000e+00
 TC6eq   X4v  1 3.950000e-01    3.190000e+00
 TC6eq   X3v  1 3.950000e-01    3.190000e+00
 TC6eq   X2v  1 3.950000e-01    3.190000e+00
 TC6eq   X1v  1 3.950000e-01    3.190000e+00
  TP6d  C6eq  1 3.950000e-01    2.310000e+00
  TP5d  C6eq  1 3.950000e-01    2.310000e+00
  TP4d  C6eq  1 3.950000e-01    2.500000e+00
  TP3d  C6eq  1 3.950000e-01    2.700000e+00
  TP2d  C6eq  1 3.950000e-01    2.700000e+00
  TP1d  C6eq  1 3.950000e-01    2.700000e+00
  TN6d  C6eq  1 3.950000e-01    2.940000e+00
  TN5d  C6eq  1 3.950000e-01    2.940000e+00
  TN4d  C6eq  1 3.950000e-01    2.940000e+00
  TN3d  C6eq  1 3.950000e-01    2.940000e+00
  TN2d  C6eq  1 3.950000e-01    2.940000e+00
  TN1d  C6eq  1 3.950000e-01    3.190000e+00
  TP6a  C6eq  1 3.950000e-01    1.850000e+00
  TP5a  C6eq  1 3.950000e-01    1.850000e+00
  TP4a  C6eq  1 3.950000e-01    2.110000e+00
  TP3a  C6eq  1 3.950000e-01    2.310000e+00
  TP2a  C6eq  1 3.950000e-01    2.310000e+00
  TP1a  C6eq  1 3.950000e-01    2.310000e+00
  TN6a  C6eq  1 3.950000e-01    2.500000e+00
  TN5a  C6eq  1 3.950000e-01    2.500000e+00
  TN4a  C6eq  1 3.950000e-01    2.500000e+00
  TN3a  C6eq  1 3.950000e-01    2.500000e+00
  TN2a  C6eq  1 3.950000e-01    2.500000e+00
  TN1a  C6eq  1 3.950000e-01    2.700000e+00
  TC6v  X1vq  1 3.950000e-01    2.500000e+00
  TC5v  X1vq  1 3.950000e-01    2.500000e+00
  TC4v  X1vq  1 3.950000e-01    2.500000e+00
  TC3v  X1vq  1 3.950000e-01    2.500000e+00
  TC2v  X1vq  1 3.950000e-01    2.310000e+00
  TC1v  X1vq  1 3.950000e-01    2.310000e+00
  TX4v  X1vq  1 3.950000e-01    2.500000e+00
  TX3v  X1vq  1 3.950000e-01    2.700000e+00
  TX2v  X1vq  1 3.950000e-01    2.700000e+00
  TP6a  X1vq  1 3.950000e-01    2.110000e+00
  TP5a  X1vq  1 3.950000e-01    2.110000e+00
  TP4a  X1vq  1 3.950000e-01    2.310000e+00
  TP3a  X1vq  1 3.950000e-01    2.310000e+00
  TP2a  X1vq  1 3.950000e-01    2.310000e+00
  TP1a  X1vq  1 3.950000e-01    2.310000e+00
  TN6a  X1vq  1 3.950000e-01    2.310000e+00
  TN5a  X1vq  1 3.950000e-01    2.500000e+00
  TN4a  X1vq  1 3.950000e-01    2.500000e+00
  TN3a  X1vq  1 3.950000e-01    2.700000e+00
  TN2a  X1vq  1 3.950000e-01    2.700000e+00
  TN1a  X1vq  1 3.950000e-01    2.700000e+00
  TP6d  X1vq  1 3.950000e-01    1.670000e+00
  TP5d  X1vq  1 3.950000e-01    1.670000e+00
  TP4d  X1vq  1 3.950000e-01    1.850000e+00
  TP3d  X1vq  1 3.950000e-01    1.850000e+00
  TP2d  X1vq  1 3.950000e-01    1.850000e+00
  TP1d  X1vq  1 3.950000e-01    1.850000e+00
  TN6d  X1vq  1 3.950000e-01    1.850000e+00
  TN5d  X1vq  1 3.950000e-01    2.110000e+00
  TN4d  X1vq  1 3.950000e-01    2.110000e+00
  TN3d  X1vq  1 3.950000e-01    2.310000e+00
  TN2d  X1vq  1 3.950000e-01    2.310000e+00
  TN1d  X1vq  1 3.950000e-01    2.310000e+00
  TC6v  X2vq  1 3.950000e-01    2.500000e+00
  TC5v  X2vq  1 3.950000e-01    2.310000e+00
  TC4v  X2vq  1 3.950000e-01    2.310000e+00
  TC3v  X2vq  1 3.950000e-01    2.310000e+00
  TC2v  X2vq  1 3.950000e-01    2.310000e+00
  TC1v  X2vq  1 3.950000e-01    2.310000e+00
  TX4v  X2vq  1 3.950000e-01    2.500000e+00
  TX3v  X2vq  1 3.950000e-01    2.700000e+00
  TP6a  X2vq  1 3.950000e-01    2.310000e+00
  TP5a  X2vq  1 3.950000e-01    2.500000e+00
  TP4a  X2vq  1 3.950000e-01    2.500000e+00
  TP3a  X2vq  1 3.950000e-01    2.500000e+00
  TP2a  X2vq  1 3.950000e-01    2.500000e+00
  TP1a  X2vq  1 3.950000e-01    2.500000e+00
  TN6a  X2vq  1 3.950000e-01    2.500000e+00
  TN5a  X2vq  1 3.950000e-01    2.700000e+00
  TN4a  X2vq  1 3.950000e-01    2.700000e+00
  TN3a  X2vq  1 3.950000e-01    2.700000e+00
  TN2a  X2vq  1 3.950000e-01    2.700000e+00
  TN1a  X2vq  1 3.950000e-01    2.700000e+00
  TP6d  X2vq  1 3.950000e-01    1.850000e+00
  TP5d  X2vq  1 3.950000e-01    2.110000e+00
  TP4d  X2vq  1 3.950000e-01    2.110000e+00
  TP3d  X2vq  1 3.950000e-01    2.110000e+00
  TP2d  X2vq  1 3.950000e-01    2.110000e+00
  TP1d  X2vq  1 3.950000e-01    2.110000e+00
  TN6d  X2vq  1 3.950000e-01    2.110000e+00
  TN5d  X2vq  1 3.950000e-01    2.310000e+00
  TN4d  X2vq  1 3.950000e-01    2.310000e+00
  TN3d  X2vq  1 3.950000e-01    2.310000e+00
  TN2d  X2vq  1 3.950000e-01    2.310000e+00
  TN1d  X2vq  1 3.950000e-01    2.310000e+00
  TC6v  X3vq  1 3.950000e-01    2.500000e+00
  TC5v  X3vq  1 3.950000e-01    2.310000e+00
  TC4v  X3vq  1 3.950000e-01    2.310000e+00
  TC3v  X3vq  1 3.950000e-01    2.310000e+00
  TC2v  X3vq  1 3.950000e-01    2.310000e+00
  TC1v  X3vq  1 3.950000e-01    2.310000e+00
  TX4v  X3vq  1 3.950000e-01    2.500000e+00
  TP6a  X3vq  1 3.950000e-01    2.500000e+00
  TP5a  X3vq  1 3.950000e-01    2.500000e+00
  TP4a  X3vq  1 3.950000e-01    2.500000e+00
  TP3a  X3vq  1 3.950000e-01    2.700000e+00
  TP2a  X3vq  1 3.950000e-01    2.700000e+00
  TP1a  X3vq  1 3.950000e-01    2.700000e+00
  TN6a  X3vq  1 3.950000e-01    2.700000e+00
  TN5a  X3vq  1 3.950000e-01    2.940000e+00
  TN4a  X3vq  1 3.950000e-01    3.190000e+00
  TN3a  X3vq  1 3.950000e-01    2.940000e+00
  TN2a  X3vq  1 3.950000e-01    2.940000e+00
  TN1a  X3vq  1 3.950000e-01    2.940000e+00
  TP6d  X3vq  1 3.950000e-01    2.110000e+00
  TP5d  X3vq  1 3.950000e-01    2.110000e+00
  TP4d  X3vq  1 3.950000e-01    2.110000e+00
  TP3d  X3vq  1 3.950000e-01    2.310000e+00
  TP2d  X3vq  1 3.950000e-01    2.310000e+00
  TP1d  X3vq  1 3.950000e-01    2.310000e+00
  TN6d  X3vq  1 3.950000e-01    2.310000e+00
  TN5d  X3vq  1 3.950000e-01    2.500000e+00
  TN4d  X3vq  1 3.950000e-01    2.700000e+00
  TN3d  X3vq  1 3.950000e-01    2.500000e+00
  TN2d  X3vq  1 3.950000e-01    2.500000e+00
  TN1d  X3vq  1 3.950000e-01    2.500000e+00
  TC6v  X4vq  1 3.950000e-01    2.500000e+00
  TC5v  X4vq  1 3.950000e-01    2.310000e+00
  TC4v  X4vq  1 3.950000e-01    2.310000e+00
  TC3v  X4vq  1 3.950000e-01    2.310000e+00
  TC2v  X4vq  1 3.950000e-01    1.850000e+00
  TC1v  X4vq  1 3.950000e-01    1.850000e+00
  TP6a  X4vq  1 3.950000e-01    2.500000e+00
  TP5a  X4vq  1 3.950000e-01    2.700000e+00
  TP4a  X4vq  1 3.950000e-01    2.700000e+00
  TP3a  X4vq  1 3.950000e-01    2.700000e+00
  TP2a  X4vq  1 3.950000e-01    2.700000e+00
  TP1a  X4vq  1 3.950000e-01    2.700000e+00
  TN6a  X4vq  1 3.950000e-01    2.940000e+00
  TN5a  X4vq  1 3.950000e-01    3.190000e+00
  TN4a  X4vq  1 3.950000e-01    3.430000e+00
  TN3a  X4vq  1 3.950000e-01    3.190000e+00
  TN2a  X4vq  1 3.950000e-01    3.190000e+00
  TN1a  X4vq  1 3.950000e-01    2.940000e+00
  TP6d  X4vq  1 3.950000e-01    2.110000e+00
  TP5d  X4vq  1 3.950000e-01    2.310000e+00
  TP4d  X4vq  1 3.950000e-01    2.310000e+00
  TP3d  X4vq  1 3.950000e-01    2.310000e+00
  TP2d  X4vq  1 3.950000e-01    2.310000e+00
  TP1d  X4vq  1 3.950000e-01    2.310000e+00
  TN6d  X4vq  1 3.950000e-01    2.500000e+00
  TN5d  X4vq  1 3.950000e-01    2.700000e+00
  TN4d  X4vq  1 3.950000e-01    2.940000e+00
  TN3d  X4vq  1 3.950000e-01    2.700000e+00
  TN2d  X4vq  1 3.950000e-01    2.700000e+00
  TN1d  X4vq  1 3.950000e-01    2.500000e+00
  TC6v  C1vq  1 3.950000e-01    1.850000e+00
  TC5v  C1vq  1 3.950000e-01    2.110000e+00
  TC4v  C1vq  1 3.950000e-01    2.110000e+00
  TC3v  C1vq  1 3.950000e-01    2.500000e+00
  TC2v  C1vq  1 3.950000e-01    2.700000e+00
  TP6a  C1vq  1 3.990000e-01    1.180000e+00
  TP5a  C1vq  1 3.950000e-01    1.670000e+00
  TP4a  C1vq  1 3.950000e-01    1.670000e+00
  TP3a  C1vq  1 3.950000e-01    1.670000e+00
  TP2a  C1vq  1 3.950000e-01    1.850000e+00
  TP1a  C1vq  1 3.950000e-01    1.850000e+00
  TN6a  C1vq  1 3.950000e-01    2.110000e+00
  TN5a  C1vq  1 3.950000e-01    2.110000e+00
  TN4a  C1vq  1 3.950000e-01    2.110000e+00
  TN3a  C1vq  1 3.950000e-01    2.310000e+00
  TN2a  C1vq  1 3.950000e-01    2.310000e+00
  TN1a  C1vq  1 3.950000e-01    2.310000e+00
  TP6d  C1vq  1 4.040000e-01    8.300000e-01
  TP5d  C1vq  1 3.990000e-01    1.180000e+00
  TP4d  C1vq  1 3.990000e-01    1.180000e+00
  TP3d  C1vq  1 3.990000e-01    1.180000e+00
  TP2d  C1vq  1 3.980000e-01    1.450000e+00
  TP1d  C1vq  1 3.980000e-01    1.450000e+00
  TN6d  C1vq  1 3.950000e-01    1.670000e+00
  TN5d  C1vq  1 3.950000e-01    1.670000e+00
  TN4d  C1vq  1 3.950000e-01    1.670000e+00
  TN3d  C1vq  1 3.950000e-01    1.850000e+00
  TN2d  C1vq  1 3.950000e-01    1.850000e+00
  TN1d  C1vq  1 3.950000e-01    1.850000e+00
  TC6v  C2vq  1 3.950000e-01    2.110000e+00
  TC5v  C2vq  1 3.950000e-01    2.110000e+00
  TC4v  C2vq  1 3.950000e-01    2.310000e+00
  TC3v  C2vq  1 3.950000e-01    2.500000e+00
  TP6a  C2vq  1 3.950000e-01    1.670000e+00
  TP5a  C2vq  1 3.950000e-01    1.850000e+00
  TP4a  C2vq  1 3.950000e-01    1.850000e+00
  TP3a  C2vq  1 3.950000e-01    1.850000e+00
  TP2a  C2vq  1 3.950000e-01    2.110000e+00
  TP1a  C2vq  1 3.950000e-01    2.110000e+00
  TN6a  C2vq  1 3.950000e-01    2.310000e+00
  TN5a  C2vq  1 3.950000e-01    2.310000e+00
  TN4a  C2vq  1 3.950000e-01    2.310000e+00
  TN3a  C2vq  1 3.950000e-01    2.500000e+00
  TN2a  C2vq  1 3.950000e-01    2.500000e+00
  TN1a  C2vq  1 3.950000e-01    2.500000e+00
  TP6d  C2vq  1 3.990000e-01    1.180000e+00
  TP5d  C2vq  1 3.980000e-01    1.450000e+00
  TP4d  C2vq  1 3.980000e-01    1.450000e+00
  TP3d  C2vq  1 3.980000e-01    1.450000e+00
  TP2d  C2vq  1 3.950000e-01    1.670000e+00
  TP1d  C2vq  1 3.950000e-01    1.670000e+00
  TN6d  C2vq  1 3.950000e-01    1.850000e+00
  TN5d  C2vq  1 3.950000e-01    1.850000e+00
  TN4d  C2vq  1 3.950000e-01    1.850000e+00
  TN3d  C2vq  1 3.950000e-01    2.110000e+00
  TN2d  C2vq  1 3.950000e-01    2.110000e+00
  TN1d  C2vq  1 3.950000e-01    2.110000e+00
  TC6v  C3vq  1 3.950000e-01    2.310000e+00
  TC5v  C3vq  1 3.950000e-01    2.310000e+00
  TC4v  C3vq  1 3.950000e-01    2.500000e+00
  TP6a  C3vq  1 3.950000e-01    1.670000e+00
  TP5a  C3vq  1 3.950000e-01    1.850000e+00
  TP4a  C3vq  1 3.950000e-01    1.850000e+00
  TP3a  C3vq  1 3.950000e-01    1.850000e+00
  TP2a  C3vq  1 3.950000e-01    2.110000e+00
  TP1a  C3vq  1 3.950000e-01    2.110000e+00
  TN6a  C3vq  1 3.950000e-01    2.310000e+00
  TN5a  C3vq  1 3.950000e-01    2.500000e+00
  TN4a  C3vq  1 3.950000e-01    2.500000e+00
  TN3a  C3vq  1 3.950000e-01    2.500000e+00
  TN2a  C3vq  1 3.950000e-01    2.700000e+00
  TN1a  C3vq  1 3.950000e-01    2.700000e+00
  TP6d  C3vq  1 3.990000e-01    1.180000e+00
  TP5d  C3vq  1 3.980000e-01    1.450000e+00
  TP4d  C3vq  1 3.980000e-01    1.450000e+00
  TP3d  C3vq  1 3.980000e-01    1.450000e+00
  TP2d  C3vq  1 3.950000e-01    1.670000e+00
  TP1d  C3vq  1 3.950000e-01    1.670000e+00
  TN6d  C3vq  1 3.950000e-01    1.850000e+00
  TN5d  C3vq  1 3.950000e-01    2.110000e+00
  TN4d  C3vq  1 3.950000e-01    2.110000e+00
  TN3d  C3vq  1 3.950000e-01    2.110000e+00
  TN2d  C3vq  1 3.950000e-01    2.310000e+00
  TN1d  C3vq  1 3.950000e-01    2.310000e+00
  TC6v  C4vq  1 3.950000e-01    2.500000e+00
  TC5v  C4vq  1 3.950000e-01    2.500000e+00
  TP6a  C4vq  1 3.950000e-01    1.850000e+00
  TP5a  C4vq  1 3.950000e-01    2.110000e+00
  TP4a  C4vq  1 3.950000e-01    2.110000e+00
  TP3a  C4vq  1 3.950000e-01    2.310000e+00
  TP2a  C4vq  1 3.950000e-01    2.310000e+00
  TP1a  C4vq  1 3.950000e-01    2.310000e+00
  TN6a  C4vq  1 3.950000e-01    2.500000e+00
  TN5a  C4vq  1 3.950000e-01    2.500000e+00
  TN4a  C4vq  1 3.950000e-01    2.700000e+00
  TN3a  C4vq  1 3.950000e-01    2.700000e+00
  TN2a  C4vq  1 3.950000e-01    2.700000e+00
  TN1a  C4vq  1 3.950000e-01    2.940000e+00
  TP6d  C4vq  1 3.980000e-01    1.450000e+00
  TP5d  C4vq  1 3.950000e-01    1.670000e+00
  TP4d  C4vq  1 3.950000e-01    1.670000e+00
  TP3d  C4vq  1 3.950000e-01    1.850000e+00
  TP2d  C4vq  1 3.950000e-01    1.850000e+00
  TP1d  C4vq  1 3.950000e-01    1.850000e+00
  TN6d  C4vq  1 3.950000e-01    2.110000e+00
  TN5d  C4vq  1 3.950000e-01    2.110000e+00
  TN4d  C4vq  1 3.950000e-01    2.310000e+00
  TN3d  C4vq  1 3.950000e-01    2.310000e+00
  TN2d  C4vq  1 3.950000e-01    2.310000e+00
  TN1d  C4vq  1 3.950000e-01    2.500000e+00
  TC6v  C5vq  1 3.950000e-01    2.500000e+00
  TP6a  C5vq  1 3.950000e-01    2.110000e+00
  TP5a  C5vq  1 3.950000e-01    2.310000e+00
  TP4a  C5vq  1 3.950000e-01    2.310000e+00
  TP3a  C5vq  1 3.950000e-01    2.500000e+00
  TP2a  C5vq  1 3.950000e-01    2.500000e+00
  TP1a  C5vq  1 3.950000e-01    2.500000e+00
  TN6a  C5vq  1 3.950000e-01    2.700000e+00
  TN5a  C5vq  1 3.950000e-01    2.700000e+00
  TN4a  C5vq  1 3.950000e-01    2.700000e+00
  TN3a  C5vq  1 3.950000e-01    2.700000e+00
  TN2a  C5vq  1 3.950000e-01    2.700000e+00
  TN1a  C5vq  1 3.950000e-01    2.940000e+00
  TP6d  C5vq  1 3.950000e-01    1.670000e+00
  TP5d  C5vq  1 3.950000e-01    1.850000e+00
  TP4d  C5vq  1 3.950000e-01    1.850000e+00
  TP3d  C5vq  1 3.950000e-01    2.110000e+00
  TP2d  C5vq  1 3.950000e-01    2.110000e+00
  TP1d  C5vq  1 3.950000e-01    2.110000e+00
  TN6d  C5vq  1 3.950000e-01    2.310000e+00
  TN5d  C5vq  1 3.950000e-01    2.310000e+00
  TN4d  C5vq  1 3.950000e-01    2.310000e+00
  TN3d  C5vq  1 3.950000e-01    2.310000e+00
  TN2d  C5vq  1 3.950000e-01    2.310000e+00
  TN1d  C5vq  1 3.950000e-01    2.500000e+00
  TP6a  C6vq  1 3.950000e-01    2.310000e+00
  TP5a  C6vq  1 3.950000e-01    2.310000e+00
  TP4a  C6vq  1 3.950000e-01    2.500000e+00
  TP3a  C6vq  1 3.950000e-01    2.700000e+00
  TP2a  C6vq  1 3.950000e-01    2.700000e+00
  TP1a  C6vq  1 3.950000e-01    2.700000e+00
  TN6a  C6vq  1 3.950000e-01    2.940000e+00
  TN5a  C6vq  1 3.950000e-01    2.940000e+00
  TN4a  C6vq  1 3.950000e-01    2.940000e+00
  TN3a  C6vq  1 3.950000e-01    2.940000e+00
  TN2a  C6vq  1 3.950000e-01    2.940000e+00
  TN1a  C6vq  1 3.950000e-01    3.190000e+00
  TP6d  C6vq  1 3.950000e-01    1.850000e+00
  TP5d  C6vq  1 3.950000e-01    1.850000e+00
  TP4d  C6vq  1 3.950000e-01    2.110000e+00
  TP3d  C6vq  1 3.950000e-01    2.310000e+00
  TP2d  C6vq  1 3.950000e-01    2.310000e+00
  TP1d  C6vq  1 3.950000e-01    2.310000e+00
  TN6d  C6vq  1 3.950000e-01    2.500000e+00
  TN5d  C6vq  1 3.950000e-01    2.500000e+00
  TN4d  C6vq  1 3.950000e-01    2.500000e+00
  TN3d  C6vq  1 3.950000e-01    2.500000e+00
  TN2d  C6vq  1 3.950000e-01    2.500000e+00
  TN1d  C6vq  1 3.950000e-01    2.700000e+00
  TP6a  N1aq  1 3.950000e-01    2.110000e+00
  TP5a  N1aq  1 3.950000e-01    2.110000e+00
  TP4a  N1aq  1 3.950000e-01    2.310000e+00
  TP3a  N1aq  1 3.950000e-01    2.500000e+00
  TP2a  N1aq  1 3.950000e-01    2.500000e+00
  TP1a  N1aq  1 3.950000e-01    2.500000e+00
  TN6a  N1aq  1 3.950000e-01    2.500000e+00
  TN5a  N1aq  1 3.950000e-01    2.500000e+00
  TN4a  N1aq  1 3.950000e-01    2.500000e+00
  TN3a  N1aq  1 3.950000e-01    2.500000e+00
  TN2a  N1aq  1 3.950000e-01    2.500000e+00
  TP6d  N1aq  1 3.950000e-01    2.110000e+00
  TP5d  N1aq  1 3.950000e-01    2.110000e+00
  TP4d  N1aq  1 3.950000e-01    2.310000e+00
  TP3d  N1aq  1 3.950000e-01    2.500000e+00
  TP2d  N1aq  1 3.950000e-01    2.940000e+00
  TP1d  N1aq  1 3.950000e-01    2.940000e+00
  TN6d  N1aq  1 3.950000e-01    2.940000e+00
  TN5d  N1aq  1 3.950000e-01    2.940000e+00
  TN4d  N1aq  1 3.950000e-01    2.940000e+00
  TN3d  N1aq  1 3.950000e-01    2.940000e+00
  TN2d  N1aq  1 3.950000e-01    2.940000e+00
  TN1d  N1aq  1 3.950000e-01    3.190000e+00
  TP6a  N2aq  1 3.950000e-01    2.310000e+00
  TP5a  N2aq  1 3.950000e-01    2.310000e+00
  TP4a  N2aq  1 3.950000e-01    2.500000e+00
  TP3a  N2aq  1 3.950000e-01    2.500000e+00
  TP2a  N2aq  1 3.950000e-01    2.500000e+00
  TP1a  N2aq  1 3.950000e-01    2.500000e+00
  TN6a  N2aq  1 3.950000e-01    2.500000e+00
  TN5a  N2aq  1 3.950000e-01    2.700000e+00
  TN4a  N2aq  1 3.950000e-01    2.700000e+00
  TN3a  N2aq  1 3.950000e-01    2.700000e+00
  TP6d  N2aq  1 3.950000e-01    2.310000e+00
  TP5d  N2aq  1 3.950000e-01    2.310000e+00
  TP4d  N2aq  1 3.950000e-01    2.500000e+00
  TP3d  N2aq  1 3.950000e-01    2.940000e+00
  TP2d  N2aq  1 3.950000e-01    2.940000e+00
  TP1d  N2aq  1 3.950000e-01    2.940000e+00
  TN6d  N2aq  1 3.950000e-01    2.940000e+00
  TN5d  N2aq  1 3.950000e-01    3.190000e+00
  TN4d  N2aq  1 3.950000e-01    3.190000e+00
  TN3d  N2aq  1 3.950000e-01    3.190000e+00
  TN2d  N2aq  1 3.950000e-01    3.190000e+00
 TN2aq   N1d  1 3.950000e-01    2.940000e+00
  TP6a  N3aq  1 3.950000e-01    2.500000e+00
  TP5a  N3aq  1 3.950000e-01    2.500000e+00
  TP4a  N3aq  1 3.950000e-01    2.500000e+00
  TP3a  N3aq  1 3.950000e-01    2.500000e+00
  TP2a  N3aq  1 3.950000e-01    2.500000e+00
  TP1a  N3aq  1 3.950000e-01    2.500000e+00
  TN6a  N3aq  1 3.950000e-01    2.700000e+00
  TN5a  N3aq  1 3.950000e-01    2.700000e+00
  TN4a  N3aq  1 3.950000e-01    2.700000e+00
  TP6d  N3aq  1 3.950000e-01    2.500000e+00
  TP5d  N3aq  1 3.950000e-01    2.500000e+00
  TP4d  N3aq  1 3.950000e-01    2.940000e+00
  TP3d  N3aq  1 3.950000e-01    2.940000e+00
  TP2d  N3aq  1 3.950000e-01    2.940000e+00
  TP1d  N3aq  1 3.950000e-01    2.940000e+00
  TN6d  N3aq  1 3.950000e-01    3.190000e+00
  TN5d  N3aq  1 3.950000e-01    3.190000e+00
  TN4d  N3aq  1 3.950000e-01    3.190000e+00
  TN3d  N3aq  1 3.950000e-01    3.190000e+00
 TN3aq   N2d  1 3.950000e-01    3.190000e+00
 TN3aq   N1d  1 3.950000e-01    2.940000e+00
  TP6a  N4aq  1 3.950000e-01    2.500000e+00
  TP5a  N4aq  1 3.950000e-01    2.700000e+00
  TP4a  N4aq  1 3.950000e-01    2.700000e+00
  TP3a  N4aq  1 3.950000e-01    2.700000e+00
  TP2a  N4aq  1 3.950000e-01    2.700000e+00
  TP1a  N4aq  1 3.950000e-01    2.940000e+00
  TN6a  N4aq  1 3.950000e-01    3.190000e+00
  TN5a  N4aq  1 3.950000e-01    2.940000e+00
  TP6d  N4aq  1 3.950000e-01    2.940000e+00
  TP5d  N4aq  1 3.950000e-01    3.190000e+00
  TP4d  N4aq  1 3.950000e-01    3.190000e+00
  TP3d  N4aq  1 3.950000e-01    3.190000e+00
  TP2d  N4aq  1 3.950000e-01    3.190000e+00
  TP1d  N4aq  1 3.950000e-01    3.430000e+00
  TN6d  N4aq  1 3.950000e-01    3.670000e+00
  TN5d  N4aq  1 3.950000e-01    3.430000e+00
  TN4d  N4aq  1 3.950000e-01    3.430000e+00
 TN4aq   N3d  1 3.950000e-01    3.190000e+00
 TN4aq   N2d  1 3.950000e-01    3.190000e+00
 TN4aq   N1d  1 3.950000e-01    2.940000e+00
  TP6a  N5aq  1 3.950000e-01    2.700000e+00
  TP5a  N5aq  1 3.950000e-01    2.700000e+00
  TP4a  N5aq  1 3.950000e-01    2.700000e+00
  TP3a  N5aq  1 3.950000e-01    2.700000e+00
  TP2a  N5aq  1 3.950000e-01    2.940000e+00
  TP1a  N5aq  1 3.950000e-01    2.940000e+00
  TN6a  N5aq  1 3.950000e-01    3.190000e+00
  TP6d  N5aq  1 3.950000e-01    3.190000e+00
  TP5d  N5aq  1 3.950000e-01    3.190000e+00
  TP4d  N5aq  1 3.950000e-01    3.190000e+00
  TP3d  N5aq  1 3.950000e-01    3.190000e+00
  TP2d  N5aq  1 3.950000e-01    3.430000e+00
  TP1d  N5aq  1 3.950000e-01    3.430000e+00
  TN6d  N5aq  1 3.950000e-01    3.670000e+00
  TN5d  N5aq  1 3.950000e-01    3.430000e+00
 TN5aq   N4d  1 3.950000e-01    3.430000e+00
 TN5aq   N3d  1 3.950000e-01    3.190000e+00
 TN5aq   N2d  1 3.950000e-01    3.190000e+00
 TN5aq   N1d  1 3.950000e-01    2.940000e+00
  TP6a  N6aq  1 3.950000e-01    3.190000e+00
  TP5a  N6aq  1 3.950000e-01    2.940000e+00
  TP4a  N6aq  1 3.950000e-01    2.940000e+00
  TP3a  N6aq  1 3.950000e-01    2.940000e+00
  TP2a  N6aq  1 3.950000e-01    3.190000e+00
  TP1a  N6aq  1 3.950000e-01    3.190000e+00
  TP6d  N6aq  1 3.950000e-01    3.670000e+00
  TP5d  N6aq  1 3.950000e-01    3.430000e+00
  TP4d  N6aq  1 3.950000e-01    3.430000e+00
  TP3d  N6aq  1 3.950000e-01    3.430000e+00
  TP2d  N6aq  1 3.950000e-01    3.670000e+00
  TP1d  N6aq  1 3.950000e-01    3.670000e+00
  TN6d  N6aq  1 3.950000e-01    3.670000e+00
 TN6aq   N5d  1 3.950000e-01    3.670000e+00
 TN6aq   N4d  1 3.950000e-01    3.670000e+00
 TN6aq   N3d  1 3.950000e-01    3.190000e+00
 TN6aq   N2d  1 3.950000e-01    2.940000e+00
 TN6aq   N1d  1 3.950000e-01    2.940000e+00
  TP6a  P1aq  1 3.950000e-01    3.430000e+00
  TP5a  P1aq  1 3.950000e-01    3.190000e+00
  TP4a  P1aq  1 3.950000e-01    3.190000e+00
  TP3a  P1aq  1 3.950000e-01    3.190000e+00
  TP2a  P1aq  1 3.950000e-01    3.190000e+00
  TP6d  P1aq  1 3.950000e-01    3.910000e+00
  TP5d  P1aq  1 3.950000e-01    3.670000e+00
  TP4d  P1aq  1 3.950000e-01    3.670000e+00
  TP3d  P1aq  1 3.950000e-01    3.670000e+00
  TP2d  P1aq  1 3.950000e-01    3.670000e+00
  TP1d  P1aq  1 3.950000e-01    3.670000e+00
 TP1aq   N6d  1 3.950000e-01    3.670000e+00
 TP1aq   N5d  1 3.950000e-01    3.430000e+00
 TP1aq   N4d  1 3.950000e-01    3.430000e+00
 TP1aq   N3d  1 3.950000e-01    2.940000e+00
 TP1aq   N2d  1 3.950000e-01    2.940000e+00
 TP1aq   N1d  1 3.950000e-01    2.940000e+00
  TP6a  P2aq  1 3.950000e-01    3.670000e+00
  TP5a  P2aq  1 3.950000e-01    3.430000e+00
  TP4a  P2aq  1 3.950000e-01    3.430000e+00
  TP3a  P2aq  1 3.950000e-01    3.430000e+00
  TP6d  P2aq  1 3.950000e-01    4.230000e+00
  TP5d  P2aq  1 3.950000e-01    3.910000e+00
  TP4d  P2aq  1 3.950000e-01    3.910000e+00
  TP3d  P2aq  1 3.950000e-01    3.910000e+00
  TP2d  P2aq  1 3.950000e-01    3.910000e+00
 TP2aq   P1d  1 3.950000e-01    3.670000e+00
 TP2aq   N6d  1 3.950000e-01    3.670000e+00
 TP2aq   N5d  1 3.950000e-01    3.430000e+00
 TP2aq   N4d  1 3.950000e-01    3.190000e+00
 TP2aq   N3d  1 3.950000e-01    2.940000e+00
 TP2aq   N2d  1 3.950000e-01    2.940000e+00
 TP2aq   N1d  1 3.950000e-01    2.940000e+00
  TP6a  P3aq  1 3.950000e-01    3.670000e+00
  TP5a  P3aq  1 3.950000e-01    3.430000e+00
  TP4a  P3aq  1 3.950000e-01    3.430000e+00
  TP6d  P3aq  1 3.950000e-01    4.230000e+00
  TP5d  P3aq  1 3.950000e-01    3.910000e+00
  TP4d  P3aq  1 3.950000e-01    3.910000e+00
  TP3d  P3aq  1 3.950000e-01    3.910000e+00
 TP3aq   P2d  1 3.950000e-01    3.910000e+00
 TP3aq   P1d  1 3.950000e-01    3.670000e+00
 TP3aq   N6d  1 3.950000e-01    3.430000e+00
 TP3aq   N5d  1 3.950000e-01    3.190000e+00
 TP3aq   N4d  1 3.950000e-01    3.190000e+00
 TP3aq   N3d  1 3.950000e-01    2.940000e+00
 TP3aq   N2d  1 3.950000e-01    2.940000e+00
 TP3aq   N1d  1 3.950000e-01    2.500000e+00
  TP6a  P4aq  1 3.950000e-01    3.910000e+00
  TP5a  P4aq  1 3.950000e-01    3.670000e+00
  TP6d  P4aq  1 3.950000e-01    4.540000e+00
  TP5d  P4aq  1 3.950000e-01    4.230000e+00
  TP4d  P4aq  1 3.950000e-01    4.230000e+00
 TP4aq   P3d  1 3.950000e-01    3.910000e+00
 TP4aq   P2d  1 3.950000e-01    3.910000e+00
 TP4aq   P1d  1 3.950000e-01    3.670000e+00
 TP4aq   N6d  1 3.950000e-01    3.430000e+00
 TP4aq   N5d  1 3.950000e-01    3.190000e+00
 TP4aq   N4d  1 3.950000e-01    3.190000e+00
 TP4aq   N3d  1 3.950000e-01    2.940000e+00
 TP4aq   N2d  1 3.950000e-01    2.500000e+00
 TP4aq   N1d  1 3.950000e-01    2.310000e+00
  TP6a  P5aq  1 3.950000e-01    4.230000e+00
  TP6d  P5aq  1 3.950000e-01    4.870000e+00
  TP5d  P5aq  1 3.950000e-01    4.540000e+00
 TP5aq   P4d  1 3.950000e-01    4.230000e+00
 TP5aq   P3d  1 3.950000e-01    3.910000e+00
 TP5aq   P2d  1 3.950000e-01    3.910000e+00
 TP5aq   P1d  1 3.950000e-01    3.670000e+00
 TP5aq   N6d  1 3.950000e-01    3.430000e+00
 TP5aq   N5d  1 3.950000e-01    3.190000e+00
 TP5aq   N4d  1 3.950000e-01    3.190000e+00
 TP5aq   N3d  1 3.950000e-01    2.500000e+00
 TP5aq   N2d  1 3.950000e-01    2.310000e+00
 TP5aq   N1d  1 3.950000e-01    2.110000e+00
  TP6d  P6aq  1 3.950000e-01    5.270000e+00
 TP6aq   P5d  1 3.950000e-01    4.870000e+00
 TP6aq   P4d  1 3.950000e-01    4.540000e+00
 TP6aq   P3d  1 3.950000e-01    4.230000e+00
 TP6aq   P2d  1 3.950000e-01    4.230000e+00
 TP6aq   P1d  1 3.950000e-01    3.910000e+00
 TP6aq   N6d  1 3.950000e-01    3.670000e+00
 TP6aq   N5d  1 3.950000e-01    3.190000e+00
 TP6aq   N4d  1 3.950000e-01    2.940000e+00
 TP6aq   N3d  1 3.950000e-01    2.500000e+00
 TP6aq   N2d  1 3.950000e-01    2.310000e+00
 TP6aq   N1d  1 3.950000e-01    2.110000e+00
  TP6d  N1dq  1 3.950000e-01    2.110000e+00
  TP5d  N1dq  1 3.950000e-01    2.110000e+00
  TP4d  N1dq  1 3.950000e-01    2.310000e+00
  TP3d  N1dq  1 3.950000e-01    2.500000e+00
  TP2d  N1dq  1 3.950000e-01    2.500000e+00
  TP1d  N1dq  1 3.950000e-01    2.500000e+00
  TN6d  N1dq  1 3.950000e-01    2.500000e+00
  TN5d  N1dq  1 3.950000e-01    2.500000e+00
  TN4d  N1dq  1 3.950000e-01    2.500000e+00
  TN3d  N1dq  1 3.950000e-01    2.500000e+00
  TN2d  N1dq  1 3.950000e-01    2.500000e+00
  TP6d  N2dq  1 3.950000e-01    2.310000e+00
  TP5d  N2dq  1 3.950000e-01    2.310000e+00
  TP4d  N2dq  1 3.950000e-01    2.500000e+00
  TP3d  N2dq  1 3.950000e-01    2.500000e+00
  TP2d  N2dq  1 3.950000e-01    2.500000e+00
  TP1d  N2dq  1 3.950000e-01    2.500000e+00
  TN6d  N2dq  1 3.950000e-01    2.500000e+00
  TN5d  N2dq  1 3.950000e-01    2.700000e+00
  TN4d  N2dq  1 3.950000e-01    2.700000e+00
  TN3d  N2dq  1 3.950000e-01    2.700000e+00
  TP6d  N3dq  1 3.950000e-01    2.500000e+00
  TP5d  N3dq  1 3.950000e-01    2.500000e+00
  TP4d  N3dq  1 3.950000e-01    2.500000e+00
  TP3d  N3dq  1 3.950000e-01    2.500000e+00
  TP2d  N3dq  1 3.950000e-01    2.500000e+00
  TP1d  N3dq  1 3.950000e-01    2.500000e+00
  TN6d  N3dq  1 3.950000e-01    2.700000e+00
  TN5d  N3dq  1 3.950000e-01    2.700000e+00
  TN4d  N3dq  1 3.950000e-01    2.700000e+00
  TP6d  N4dq  1 3.950000e-01    2.500000e+00
  TP5d  N4dq  1 3.950000e-01    2.700000e+00
  TP4d  N4dq  1 3.950000e-01    2.700000e+00
  TP3d  N4dq  1 3.950000e-01    2.700000e+00
  TP2d  N4dq  1 3.950000e-01    2.700000e+00
  TP1d  N4dq  1 3.950000e-01    2.940000e+00
  TN6d  N4dq  1 3.950000e-01    3.190000e+00
  TN5d  N4dq  1 3.950000e-01    2.940000e+00
  TP6d  N5dq  1 3.950000e-01    2.700000e+00
  TP5d  N5dq  1 3.950000e-01    2.700000e+00
  TP4d  N5dq  1 3.950000e-01    2.700000e+00
  TP3d  N5dq  1 3.950000e-01    2.700000e+00
  TP2d  N5dq  1 3.950000e-01    2.940000e+00
  TP1d  N5dq  1 3.950000e-01    2.940000e+00
  TN6d  N5dq  1 3.950000e-01    3.190000e+00
  TP6d  N6dq  1 3.950000e-01    3.190000e+00
  TP5d  N6dq  1 3.950000e-01    2.940000e+00
  TP4d  N6dq  1 3.950000e-01    2.940000e+00
  TP3d  N6dq  1 3.950000e-01    2.940000e+00
  TP2d  N6dq  1 3.950000e-01    3.190000e+00
  TP1d  N6dq  1 3.950000e-01    3.190000e+00
  TP6d  P1dq  1 3.950000e-01    3.430000e+00
  TP5d  P1dq  1 3.950000e-01    3.190000e+00
  TP4d  P1dq  1 3.950000e-01    3.190000e+00
  TP3d  P1dq  1 3.950000e-01    3.190000e+00
  TP2d  P1dq  1 3.950000e-01    3.190000e+00
  TP6d  P2dq  1 3.950000e-01    3.670000e+00
  TP5d  P2dq  1 3.950000e-01    3.430000e+00
  TP4d  P2dq  1 3.950000e-01    3.430000e+00
  TP3d  P2dq  1 3.950000e-01    3.430000e+00
  TP6d  P3dq  1 3.950000e-01    3.670000e+00
  TP5d  P3dq  1 3.950000e-01    3.430000e+00
  TP4d  P3dq  1 3.950000e-01    3.430000e+00
  TP6d  P4dq  1 3.950000e-01    3.910000e+00
  TP5d  P4dq  1 3.950000e-01    3.670000e+00
  TP6d  P5dq  1 3.950000e-01    4.230000e+00
  TP6q   P5q  1 3.950000e-01    4.540000e+00
  TP6q   P4q  1 3.950000e-01    4.230000e+00
  TP6q   P3q  1 3.950000e-01    3.910000e+00
  TP6q   P2q  1 3.950000e-01    3.910000e+00
  TP6q   P1q  1 3.950000e-01    3.670000e+00
  TP6q   N6q  1 3.950000e-01    3.430000e+00
  TP6q   N5q  1 3.950000e-01    2.940000e+00
  TP6q   N4q  1 3.950000e-01    2.700000e+00
  TP6q   N3q  1 3.950000e-01    2.500000e+00
  TP6q   N2q  1 3.950000e-01    2.310000e+00
  TP6q   N1q  1 3.950000e-01    2.110000e+00
  TP6q   C6q  1 3.950000e-01    2.110000e+00
  TP6q   C5q  1 3.950000e-01    1.850000e+00
  TP6q   C4q  1 3.950000e-01    1.670000e+00
  TP6q   C3q  1 3.980000e-01    1.450000e+00
  TP6q   C2q  1 3.980000e-01    1.450000e+00
  TP6q   C1q  1 4.010000e-01    9.830000e-01
  TP6q   X4q  1 3.950000e-01    2.310000e+00
  TP6q   X3q  1 3.950000e-01    2.310000e+00
  TP6q   X2q  1 3.950000e-01    2.110000e+00
  TP6q   X1q  1 3.950000e-01    1.850000e+00
  TP6q  P6dq  1 3.950000e-01    4.870000e+00
  TP6q  P5dq  1 3.950000e-01    4.540000e+00
  TP6q  P4dq  1 3.950000e-01    4.230000e+00
  TP6q  P3dq  1 3.950000e-01    3.910000e+00
  TP6q  P2dq  1 3.950000e-01    3.910000e+00
  TP6q  P1dq  1 3.950000e-01    3.670000e+00
  TP6q  N6dq  1 3.950000e-01    3.430000e+00
  TP6q  N5dq  1 3.950000e-01    2.940000e+00
  TP6q  N4dq  1 3.950000e-01    2.700000e+00
  TP6q  N3dq  1 3.950000e-01    2.500000e+00
  TP6q  N2dq  1 3.950000e-01    2.310000e+00
  TP6q  N1dq  1 3.950000e-01    2.110000e+00
  TP6q  P6aq  1 3.950000e-01    4.870000e+00
  TP6q  P5aq  1 3.950000e-01    4.540000e+00
  TP6q  P4aq  1 3.950000e-01    4.230000e+00
  TP6q  P3aq  1 3.950000e-01    3.910000e+00
  TP6q  P2aq  1 3.950000e-01    3.910000e+00
  TP6q  P1aq  1 3.950000e-01    3.670000e+00
  TP6q  N6aq  1 3.950000e-01    3.430000e+00
  TP6q  N5aq  1 3.950000e-01    2.940000e+00
  TP6q  N4aq  1 3.950000e-01    2.700000e+00
  TP6q  N3aq  1 3.950000e-01    2.500000e+00
  TP6q  N2aq  1 3.950000e-01    2.310000e+00
  TP6q  N1aq  1 3.950000e-01    2.110000e+00
  TP6q  C6vq  1 3.950000e-01    2.310000e+00
  TP6q  C5vq  1 3.950000e-01    2.110000e+00
  TP6q  C4vq  1 3.950000e-01    1.850000e+00
  TP6q  C3vq  1 3.950000e-01    1.670000e+00
  TP6q  C2vq  1 3.950000e-01    1.670000e+00
  TP6q  C1vq  1 3.990000e-01    1.180000e+00
  TP6q  X4vq  1 3.950000e-01    2.500000e+00
  TP6q  X3vq  1 3.950000e-01    2.500000e+00
  TP6q  X2vq  1 3.950000e-01    2.310000e+00
  TP6q  X1vq  1 3.950000e-01    2.110000e+00
  TP6q  C6eq  1 3.950000e-01    2.310000e+00
  TP6q  C5eq  1 3.950000e-01    2.110000e+00
  TP6q  C4eq  1 3.950000e-01    1.850000e+00
  TP6q  C3eq  1 3.950000e-01    1.670000e+00
  TP6q  C2eq  1 3.950000e-01    1.670000e+00
  TP6q  C1eq  1 3.990000e-01    1.180000e+00
  TP6q  X4eq  1 3.950000e-01    2.500000e+00
  TP6q  X3eq  1 3.950000e-01    2.500000e+00
  TP6q  X2eq  1 3.950000e-01    2.310000e+00
  TP6q  X1eq  1 3.950000e-01    2.110000e+00
  TP5q   P4q  1 3.950000e-01    3.910000e+00
  TP5q   P3q  1 3.950000e-01    3.670000e+00
  TP5q   P2q  1 3.950000e-01    3.670000e+00
  TP5q   P1q  1 3.950000e-01    3.430000e+00
  TP5q   N6q  1 3.950000e-01    3.190000e+00
  TP5q   N5q  1 3.950000e-01    2.940000e+00
  TP5q   N4q  1 3.950000e-01    2.940000e+00
  TP5q   N3q  1 3.950000e-01    2.500000e+00
  TP5q   N2q  1 3.950000e-01    2.310000e+00
  TP5q   N1q  1 3.950000e-01    2.110000e+00
  TP5q   C6q  1 3.950000e-01    2.110000e+00
  TP5q   C5q  1 3.950000e-01    2.110000e+00
  TP5q   C4q  1 3.950000e-01    1.850000e+00
  TP5q   C3q  1 3.950000e-01    1.670000e+00
  TP5q   C2q  1 3.950000e-01    1.670000e+00
  TP5q   C1q  1 3.980000e-01    1.450000e+00
  TP5q   X4q  1 3.950000e-01    2.500000e+00
  TP5q   X3q  1 3.950000e-01    2.310000e+00
  TP5q   X2q  1 3.950000e-01    2.310000e+00
  TP5q   X1q  1 3.950000e-01    1.850000e+00
  TP5q  P5dq  1 3.950000e-01    4.230000e+00
  TP5q  P4dq  1 3.950000e-01    3.910000e+00
  TP5q  P3dq  1 3.950000e-01    3.670000e+00
  TP5q  P2dq  1 3.950000e-01    3.670000e+00
  TP5q  P1dq  1 3.950000e-01    3.430000e+00
  TP5q  N6dq  1 3.950000e-01    3.190000e+00
  TP5q  N5dq  1 3.950000e-01    2.940000e+00
  TP5q  N4dq  1 3.950000e-01    2.940000e+00
  TP5q  N3dq  1 3.950000e-01    2.500000e+00
  TP5q  N2dq  1 3.950000e-01    2.310000e+00
  TP5q  N1dq  1 3.950000e-01    2.110000e+00
  TP5q  P5aq  1 3.950000e-01    4.230000e+00
  TP5q  P4aq  1 3.950000e-01    3.910000e+00
  TP5q  P3aq  1 3.950000e-01    3.670000e+00
  TP5q  P2aq  1 3.950000e-01    3.670000e+00
  TP5q  P1aq  1 3.950000e-01    3.430000e+00
  TP5q  N6aq  1 3.950000e-01    3.190000e+00
  TP5q  N5aq  1 3.950000e-01    2.940000e+00
  TP5q  N4aq  1 3.950000e-01    2.940000e+00
  TP5q  N3aq  1 3.950000e-01    2.500000e+00
  TP5q  N2aq  1 3.950000e-01    2.310000e+00
  TP5q  N1aq  1 3.950000e-01    2.110000e+00
  TP5q  C6vq  1 3.950000e-01    2.310000e+00
  TP5q  C5vq  1 3.950000e-01    2.310000e+00
  TP5q  C4vq  1 3.950000e-01    2.110000e+00
  TP5q  C3vq  1 3.950000e-01    1.850000e+00
  TP5q  C2vq  1 3.950000e-01    1.850000e+00
  TP5q  C1vq  1 3.950000e-01    1.670000e+00
  TP5q  X4vq  1 3.950000e-01    2.700000e+00
  TP5q  X3vq  1 3.950000e-01    2.500000e+00
  TP5q  X2vq  1 3.950000e-01    2.500000e+00
  TP5q  X1vq  1 3.950000e-01    2.110000e+00
  TP5q  C6eq  1 3.950000e-01    2.310000e+00
  TP5q  C5eq  1 3.950000e-01    2.310000e+00
  TP5q  C4eq  1 3.950000e-01    2.110000e+00
  TP5q  C3eq  1 3.950000e-01    1.850000e+00
  TP5q  C2eq  1 3.950000e-01    1.850000e+00
  TP5q  C1eq  1 3.950000e-01    1.670000e+00
  TP5q  X4eq  1 3.950000e-01    2.700000e+00
  TP5q  X3eq  1 3.950000e-01    2.500000e+00
  TP5q  X2eq  1 3.950000e-01    2.500000e+00
  TP5q  X1eq  1 3.950000e-01    2.110000e+00
  TP4q   P3q  1 3.950000e-01    3.670000e+00
  TP4q   P2q  1 3.950000e-01    3.670000e+00
  TP4q   P1q  1 3.950000e-01    3.430000e+00
  TP4q   N6q  1 3.950000e-01    3.190000e+00
  TP4q   N5q  1 3.950000e-01    2.940000e+00
  TP4q   N4q  1 3.950000e-01    2.940000e+00
  TP4q   N3q  1 3.950000e-01    2.700000e+00
  TP4q   N2q  1 3.950000e-01    2.500000e+00
  TP4q   N1q  1 3.950000e-01    2.310000e+00
  TP4q   C6q  1 3.950000e-01    2.310000e+00
  TP4q   C5q  1 3.950000e-01    2.110000e+00
  TP4q   C4q  1 3.950000e-01    1.850000e+00
  TP4q   C3q  1 3.950000e-01    1.670000e+00
  TP4q   C2q  1 3.950000e-01    1.670000e+00
  TP4q   C1q  1 3.980000e-01    1.450000e+00
  TP4q   X4q  1 3.950000e-01    2.500000e+00
  TP4q   X3q  1 3.950000e-01    2.310000e+00
  TP4q   X2q  1 3.950000e-01    2.310000e+00
  TP4q   X1q  1 3.950000e-01    2.110000e+00
  TP4q  P4dq  1 3.950000e-01    3.910000e+00
  TP4q  P3dq  1 3.950000e-01    3.670000e+00
  TP4q  P2dq  1 3.950000e-01    3.670000e+00
  TP4q  P1dq  1 3.950000e-01    3.430000e+00
  TP4q  N6dq  1 3.950000e-01    3.190000e+00
  TP4q  N5dq  1 3.950000e-01    2.940000e+00
  TP4q  N4dq  1 3.950000e-01    2.940000e+00
  TP4q  N3dq  1 3.950000e-01    2.700000e+00
  TP4q  N2dq  1 3.950000e-01    2.500000e+00
  TP4q  N1dq  1 3.950000e-01    2.310000e+00
  TP4q  P4aq  1 3.950000e-01    3.910000e+00
  TP4q  P3aq  1 3.950000e-01    3.670000e+00
  TP4q  P2aq  1 3.950000e-01    3.670000e+00
  TP4q  P1aq  1 3.950000e-01    3.430000e+00
  TP4q  N6aq  1 3.950000e-01    3.190000e+00
  TP4q  N5aq  1 3.950000e-01    2.940000e+00
  TP4q  N4aq  1 3.950000e-01    2.940000e+00
  TP4q  N3aq  1 3.950000e-01    2.700000e+00
  TP4q  N2aq  1 3.950000e-01    2.500000e+00
  TP4q  N1aq  1 3.950000e-01    2.310000e+00
  TP4q  C6vq  1 3.950000e-01    2.500000e+00
  TP4q  C5vq  1 3.950000e-01    2.310000e+00
  TP4q  C4vq  1 3.950000e-01    2.110000e+00
  TP4q  C3vq  1 3.950000e-01    1.850000e+00
  TP4q  C2vq  1 3.950000e-01    1.850000e+00
  TP4q  C1vq  1 3.950000e-01    1.670000e+00
  TP4q  X4vq  1 3.950000e-01    2.700000e+00
  TP4q  X3vq  1 3.950000e-01    2.500000e+00
  TP4q  X2vq  1 3.950000e-01    2.500000e+00
  TP4q  X1vq  1 3.950000e-01    2.310000e+00
  TP4q  C6eq  1 3.950000e-01    2.500000e+00
  TP4q  C5eq  1 3.950000e-01    2.310000e+00
  TP4q  C4eq  1 3.950000e-01    2.110000e+00
  TP4q  C3eq  1 3.950000e-01    1.850000e+00
  TP4q  C2eq  1 3.950000e-01    1.850000e+00
  TP4q  C1eq  1 3.950000e-01    1.670000e+00
  TP4q  X4eq  1 3.950000e-01    2.700000e+00
  TP4q  X3eq  1 3.950000e-01    2.500000e+00
  TP4q  X2eq  1 3.950000e-01    2.500000e+00
  TP4q  X1eq  1 3.950000e-01    2.310000e+00
  TP3q   P2q  1 3.950000e-01    3.670000e+00
  TP3q   P1q  1 3.950000e-01    3.430000e+00
  TP3q   N6q  1 3.950000e-01    3.190000e+00
  TP3q   N5q  1 3.950000e-01    2.940000e+00
  TP3q   N4q  1 3.950000e-01    2.940000e+00
  TP3q   N3q  1 3.950000e-01    2.700000e+00
  TP3q   N2q  1 3.950000e-01    2.700000e+00
  TP3q   N1q  1 3.950000e-01    2.500000e+00
  TP3q   C6q  1 3.950000e-01    2.500000e+00
  TP3q   C5q  1 3.950000e-01    2.310000e+00
  TP3q   C4q  1 3.950000e-01    2.110000e+00
  TP3q   C3q  1 3.950000e-01    1.670000e+00
  TP3q   C2q  1 3.950000e-01    1.670000e+00
  TP3q   C1q  1 3.980000e-01    1.450000e+00
  TP3q   X4q  1 3.950000e-01    2.500000e+00
  TP3q   X3q  1 3.950000e-01    2.500000e+00
  TP3q   X2q  1 3.950000e-01    2.310000e+00
  TP3q   X1q  1 3.950000e-01    2.110000e+00
  TP3q  P3dq  1 3.950000e-01    3.670000e+00
  TP3q  P2dq  1 3.950000e-01    3.670000e+00
  TP3q  P1dq  1 3.950000e-01    3.430000e+00
  TP3q  N6dq  1 3.950000e-01    3.190000e+00
  TP3q  N5dq  1 3.950000e-01    2.940000e+00
  TP3q  N4dq  1 3.950000e-01    2.940000e+00
  TP3q  N3dq  1 3.950000e-01    2.700000e+00
  TP3q  N2dq  1 3.950000e-01    2.700000e+00
  TP3q  N1dq  1 3.950000e-01    2.500000e+00
  TP3q  P3aq  1 3.950000e-01    3.670000e+00
  TP3q  P2aq  1 3.950000e-01    3.670000e+00
  TP3q  P1aq  1 3.950000e-01    3.430000e+00
  TP3q  N6aq  1 3.950000e-01    3.190000e+00
  TP3q  N5aq  1 3.950000e-01    2.940000e+00
  TP3q  N4aq  1 3.950000e-01    2.940000e+00
  TP3q  N3aq  1 3.950000e-01    2.700000e+00
  TP3q  N2aq  1 3.950000e-01    2.700000e+00
  TP3q  N1aq  1 3.950000e-01    2.500000e+00
  TP3q  C6vq  1 3.950000e-01    2.700000e+00
  TP3q  C5vq  1 3.950000e-01    2.500000e+00
  TP3q  C4vq  1 3.950000e-01    2.310000e+00
  TP3q  C3vq  1 3.950000e-01    1.850000e+00
  TP3q  C2vq  1 3.950000e-01    1.850000e+00
  TP3q  C1vq  1 3.950000e-01    1.670000e+00
  TP3q  X4vq  1 3.950000e-01    2.700000e+00
  TP3q  X3vq  1 3.950000e-01    2.700000e+00
  TP3q  X2vq  1 3.950000e-01    2.500000e+00
  TP3q  X1vq  1 3.950000e-01    2.310000e+00
  TP3q  C6eq  1 3.950000e-01    2.700000e+00
  TP3q  C5eq  1 3.950000e-01    2.500000e+00
  TP3q  C4eq  1 3.950000e-01    2.310000e+00
  TP3q  C3eq  1 3.950000e-01    1.850000e+00
  TP3q  C2eq  1 3.950000e-01    1.850000e+00
  TP3q  C1eq  1 3.950000e-01    1.670000e+00
  TP3q  X4eq  1 3.950000e-01    2.700000e+00
  TP3q  X3eq  1 3.950000e-01    2.700000e+00
  TP3q  X2eq  1 3.950000e-01    2.500000e+00
  TP3q  X1eq  1 3.950000e-01    2.310000e+00
  TP2q   P1q  1 3.950000e-01    3.430000e+00
  TP2q   N6q  1 3.950000e-01    3.430000e+00
  TP2q   N5q  1 3.950000e-01    3.190000e+00
  TP2q   N4q  1 3.950000e-01    2.940000e+00
  TP2q   N3q  1 3.950000e-01    2.700000e+00
  TP2q   N2q  1 3.950000e-01    2.700000e+00
  TP2q   N1q  1 3.950000e-01    2.700000e+00
  TP2q   C6q  1 3.950000e-01    2.500000e+00
  TP2q   C5q  1 3.950000e-01    2.310000e+00
  TP2q   C4q  1 3.950000e-01    2.110000e+00
  TP2q   C3q  1 3.950000e-01    1.850000e+00
  TP2q   C2q  1 3.950000e-01    1.850000e+00
  TP2q   C1q  1 3.950000e-01    1.670000e+00
  TP2q   X4q  1 3.950000e-01    2.500000e+00
  TP2q   X3q  1 3.950000e-01    2.500000e+00
  TP2q   X2q  1 3.950000e-01    2.310000e+00
  TP2q   X1q  1 3.950000e-01    2.110000e+00
  TP2q  P2dq  1 3.950000e-01    3.670000e+00
  TP2q  P1dq  1 3.950000e-01    3.430000e+00
  TP2q  N6dq  1 3.950000e-01    3.430000e+00
  TP2q  N5dq  1 3.950000e-01    3.190000e+00
  TP2q  N4dq  1 3.950000e-01    2.940000e+00
  TP2q  N3dq  1 3.950000e-01    2.700000e+00
  TP2q  N2dq  1 3.950000e-01    2.700000e+00
  TP2q  N1dq  1 3.950000e-01    2.700000e+00
  TP2q  P2aq  1 3.950000e-01    3.670000e+00
  TP2q  P1aq  1 3.950000e-01    3.430000e+00
  TP2q  N6aq  1 3.950000e-01    3.430000e+00
  TP2q  N5aq  1 3.950000e-01    3.190000e+00
  TP2q  N4aq  1 3.950000e-01    2.940000e+00
  TP2q  N3aq  1 3.950000e-01    2.700000e+00
  TP2q  N2aq  1 3.950000e-01    2.700000e+00
  TP2q  N1aq  1 3.950000e-01    2.700000e+00
  TP2q  C6vq  1 3.950000e-01    2.700000e+00
  TP2q  C5vq  1 3.950000e-01    2.500000e+00
  TP2q  C4vq  1 3.950000e-01    2.310000e+00
  TP2q  C3vq  1 3.950000e-01    2.110000e+00
  TP2q  C2vq  1 3.950000e-01    2.110000e+00
  TP2q  C1vq  1 3.950000e-01    1.850000e+00
  TP2q  X4vq  1 3.950000e-01    2.700000e+00
  TP2q  X3vq  1 3.950000e-01    2.700000e+00
  TP2q  X2vq  1 3.950000e-01    2.500000e+00
  TP2q  X1vq  1 3.950000e-01    2.310000e+00
  TP2q  C6eq  1 3.950000e-01    2.700000e+00
  TP2q  C5eq  1 3.950000e-01    2.500000e+00
  TP2q  C4eq  1 3.950000e-01    2.310000e+00
  TP2q  C3eq  1 3.950000e-01    2.110000e+00
  TP2q  C2eq  1 3.950000e-01    2.110000e+00
  TP2q  C1eq  1 3.950000e-01    1.850000e+00
  TP2q  X4eq  1 3.950000e-01    2.700000e+00
  TP2q  X3eq  1 3.950000e-01    2.700000e+00
  TP2q  X2eq  1 3.950000e-01    2.500000e+00
  TP2q  X1eq  1 3.950000e-01    2.310000e+00
  TP1q   N6q  1 3.950000e-01    3.430000e+00
  TP1q   N5q  1 3.950000e-01    3.190000e+00
  TP1q   N4q  1 3.950000e-01    3.190000e+00
  TP1q   N3q  1 3.950000e-01    2.700000e+00
  TP1q   N2q  1 3.950000e-01    2.700000e+00
  TP1q   N1q  1 3.950000e-01    2.700000e+00
  TP1q   C6q  1 3.950000e-01    2.500000e+00
  TP1q   C5q  1 3.950000e-01    2.310000e+00
  TP1q   C4q  1 3.950000e-01    2.110000e+00
  TP1q   C3q  1 3.950000e-01    1.850000e+00
  TP1q   C2q  1 3.950000e-01    1.850000e+00
  TP1q   C1q  1 3.950000e-01    1.670000e+00
  TP1q   X4q  1 3.950000e-01    2.500000e+00
  TP1q   X3q  1 3.950000e-01    2.500000e+00
  TP1q   X2q  1 3.950000e-01    2.310000e+00
  TP1q   X1q  1 3.950000e-01    2.110000e+00
  TP1q  P1dq  1 3.950000e-01    3.430000e+00
  TP1q  N6dq  1 3.950000e-01    3.430000e+00
  TP1q  N5dq  1 3.950000e-01    3.190000e+00
  TP1q  N4dq  1 3.950000e-01    3.190000e+00
  TP1q  N3dq  1 3.950000e-01    2.700000e+00
  TP1q  N2dq  1 3.950000e-01    2.700000e+00
  TP1q  N1dq  1 3.950000e-01    2.700000e+00
  TP1q  P1aq  1 3.950000e-01    3.430000e+00
  TP1q  N6aq  1 3.950000e-01    3.430000e+00
  TP1q  N5aq  1 3.950000e-01    3.190000e+00
  TP1q  N4aq  1 3.950000e-01    3.190000e+00
  TP1q  N3aq  1 3.950000e-01    2.700000e+00
  TP1q  N2aq  1 3.950000e-01    2.700000e+00
  TP1q  N1aq  1 3.950000e-01    2.700000e+00
  TP1q  C6vq  1 3.950000e-01    2.700000e+00
  TP1q  C5vq  1 3.950000e-01    2.500000e+00
  TP1q  C4vq  1 3.950000e-01    2.310000e+00
  TP1q  C3vq  1 3.950000e-01    2.110000e+00
  TP1q  C2vq  1 3.950000e-01    2.110000e+00
  TP1q  C1vq  1 3.950000e-01    1.850000e+00
  TP1q  X4vq  1 3.950000e-01    2.700000e+00
  TP1q  X3vq  1 3.950000e-01    2.700000e+00
  TP1q  X2vq  1 3.950000e-01    2.500000e+00
  TP1q  X1vq  1 3.950000e-01    2.310000e+00
  TP1q  C6eq  1 3.950000e-01    2.700000e+00
  TP1q  C5eq  1 3.950000e-01    2.500000e+00
  TP1q  C4eq  1 3.950000e-01    2.310000e+00
  TP1q  C3eq  1 3.950000e-01    2.110000e+00
  TP1q  C2eq  1 3.950000e-01    2.110000e+00
  TP1q  C1eq  1 3.950000e-01    1.850000e+00
  TP1q  X4eq  1 3.950000e-01    2.700000e+00
  TP1q  X3eq  1 3.950000e-01    2.700000e+00
  TP1q  X2eq  1 3.950000e-01    2.500000e+00
  TP1q  X1eq  1 3.950000e-01    2.310000e+00
  TN6q   N5q  1 3.950000e-01    3.430000e+00
  TN6q   N4q  1 3.950000e-01    3.430000e+00
  TN6q   N3q  1 3.950000e-01    2.940000e+00
  TN6q   N2q  1 3.950000e-01    2.700000e+00
  TN6q   N1q  1 3.950000e-01    2.700000e+00
  TN6q   C6q  1 3.950000e-01    2.700000e+00
  TN6q   C5q  1 3.950000e-01    2.500000e+00
  TN6q   C4q  1 3.950000e-01    2.310000e+00
  TN6q   C3q  1 3.950000e-01    2.110000e+00
  TN6q   C2q  1 3.950000e-01    2.110000e+00
  TN6q   C1q  1 3.950000e-01    1.850000e+00
  TN6q   X4q  1 3.950000e-01    2.700000e+00
  TN6q   X3q  1 3.950000e-01    2.500000e+00
  TN6q   X2q  1 3.950000e-01    2.310000e+00
  TN6q   X1q  1 3.950000e-01    2.110000e+00
  TN6q  N6dq  1 3.950000e-01    3.430000e+00
  TN6q  N5dq  1 3.950000e-01    3.430000e+00
  TN6q  N4dq  1 3.950000e-01    3.430000e+00
  TN6q  N3dq  1 3.950000e-01    2.940000e+00
  TN6q  N2dq  1 3.950000e-01    2.700000e+00
  TN6q  N1dq  1 3.950000e-01    2.700000e+00
  TN6q  N6aq  1 3.950000e-01    3.430000e+00
  TN6q  N5aq  1 3.950000e-01    3.430000e+00
  TN6q  N4aq  1 3.950000e-01    3.430000e+00
  TN6q  N3aq  1 3.950000e-01    2.940000e+00
  TN6q  N2aq  1 3.950000e-01    2.700000e+00
  TN6q  N1aq  1 3.950000e-01    2.700000e+00
  TN6q  C6vq  1 3.950000e-01    2.940000e+00
  TN6q  C5vq  1 3.950000e-01    2.700000e+00
  TN6q  C4vq  1 3.950000e-01    2.500000e+00
  TN6q  C3vq  1 3.950000e-01    2.310000e+00
  TN6q  C2vq  1 3.950000e-01    2.310000e+00
  TN6q  C1vq  1 3.950000e-01    2.110000e+00
  TN6q  X4vq  1 3.950000e-01    2.940000e+00
  TN6q  X3vq  1 3.950000e-01    2.700000e+00
  TN6q  X2vq  1 3.950000e-01    2.500000e+00
  TN6q  X1vq  1 3.950000e-01    2.310000e+00
  TN6q  C6eq  1 3.950000e-01    2.940000e+00
  TN6q  C5eq  1 3.950000e-01    2.700000e+00
  TN6q  C4eq  1 3.950000e-01    2.500000e+00
  TN6q  C3eq  1 3.950000e-01    2.310000e+00
  TN6q  C2eq  1 3.950000e-01    2.310000e+00
  TN6q  C1eq  1 3.950000e-01    2.110000e+00
  TN6q  X4eq  1 3.950000e-01    2.940000e+00
  TN6q  X3eq  1 3.950000e-01    2.700000e+00
  TN6q  X2eq  1 3.950000e-01    2.500000e+00
  TN6q  X1eq  1 3.950000e-01    2.310000e+00
  TN5q   N4q  1 3.950000e-01    3.190000e+00
  TN5q   N3q  1 3.950000e-01    2.940000e+00
  TN5q   N2q  1 3.950000e-01    2.940000e+00
  TN5q   N1q  1 3.950000e-01    2.700000e+00
  TN5q   C6q  1 3.950000e-01    2.700000e+00
  TN5q   C5q  1 3.950000e-01    2.500000e+00
  TN5q   C4q  1 3.950000e-01    2.310000e+00
  TN5q   C3q  1 3.950000e-01    2.310000e+00
  TN5q   C2q  1 3.950000e-01    2.110000e+00
  TN5q   C1q  1 3.950000e-01    1.850000e+00
  TN5q   X4q  1 3.950000e-01    2.940000e+00
  TN5q   X3q  1 3.950000e-01    2.700000e+00
  TN5q   X2q  1 3.950000e-01    2.500000e+00
  TN5q   X1q  1 3.950000e-01    2.310000e+00
  TN5q  N5dq  1 3.950000e-01    3.190000e+00
  TN5q  N4dq  1 3.950000e-01    3.190000e+00
  TN5q  N3dq  1 3.950000e-01    2.940000e+00
  TN5q  N2dq  1 3.950000e-01    2.940000e+00
  TN5q  N1dq  1 3.950000e-01    2.700000e+00
  TN5q  N5aq  1 3.950000e-01    3.190000e+00
  TN5q  N4aq  1 3.950000e-01    3.190000e+00
  TN5q  N3aq  1 3.950000e-01    2.940000e+00
  TN5q  N2aq  1 3.950000e-01    2.940000e+00
  TN5q  N1aq  1 3.950000e-01    2.700000e+00
  TN5q  C6vq  1 3.950000e-01    2.940000e+00
  TN5q  C5vq  1 3.950000e-01    2.700000e+00
  TN5q  C4vq  1 3.950000e-01    2.500000e+00
  TN5q  C3vq  1 3.950000e-01    2.500000e+00
  TN5q  C2vq  1 3.950000e-01    2.310000e+00
  TN5q  C1vq  1 3.950000e-01    2.110000e+00
  TN5q  X4vq  1 3.950000e-01    3.190000e+00
  TN5q  X3vq  1 3.950000e-01    2.940000e+00
  TN5q  X2vq  1 3.950000e-01    2.700000e+00
  TN5q  X1vq  1 3.950000e-01    2.500000e+00
  TN5q  C6eq  1 3.950000e-01    2.940000e+00
  TN5q  C5eq  1 3.950000e-01    2.700000e+00
  TN5q  C4eq  1 3.950000e-01    2.500000e+00
  TN5q  C3eq  1 3.950000e-01    2.500000e+00
  TN5q  C2eq  1 3.950000e-01    2.310000e+00
  TN5q  C1eq  1 3.950000e-01    2.110000e+00
  TN5q  X4eq  1 3.950000e-01    3.190000e+00
  TN5q  X3eq  1 3.950000e-01    2.940000e+00
  TN5q  X2eq  1 3.950000e-01    2.700000e+00
  TN5q  X1eq  1 3.950000e-01    2.500000e+00
  TN4q   N3q  1 3.950000e-01    2.940000e+00
  TN4q   N2q  1 3.950000e-01    2.940000e+00
  TN4q   N1q  1 3.950000e-01    2.700000e+00
  TN4q   C6q  1 3.950000e-01    2.700000e+00
  TN4q   C5q  1 3.950000e-01    2.500000e+00
  TN4q   C4q  1 3.950000e-01    2.500000e+00
  TN4q   C3q  1 3.950000e-01    2.310000e+00
  TN4q   C2q  1 3.950000e-01    2.110000e+00
  TN4q   C1q  1 3.950000e-01    1.850000e+00
  TN4q   X4q  1 3.950000e-01    3.190000e+00
  TN4q   X3q  1 3.950000e-01    2.940000e+00
  TN4q   X2q  1 3.950000e-01    2.500000e+00
  TN4q   X1q  1 3.950000e-01    2.310000e+00
  TN4q  N4dq  1 3.950000e-01    3.190000e+00
  TN4q  N3dq  1 3.950000e-01    2.940000e+00
  TN4q  N2dq  1 3.950000e-01    2.940000e+00
  TN4q  N1dq  1 3.950000e-01    2.700000e+00
  TN4q  N4aq  1 3.950000e-01    3.190000e+00
  TN4q  N3aq  1 3.950000e-01    2.940000e+00
  TN4q  N2aq  1 3.950000e-01    2.940000e+00
  TN4q  N1aq  1 3.950000e-01    2.700000e+00
  TN4q  C6vq  1 3.950000e-01    2.940000e+00
  TN4q  C5vq  1 3.950000e-01    2.700000e+00
  TN4q  C4vq  1 3.950000e-01    2.700000e+00
  TN4q  C3vq  1 3.950000e-01    2.500000e+00
  TN4q  C2vq  1 3.950000e-01    2.310000e+00
  TN4q  C1vq  1 3.950000e-01    2.110000e+00
  TN4q  X4vq  1 3.950000e-01    3.430000e+00
  TN4q  X3vq  1 3.950000e-01    3.190000e+00
  TN4q  X2vq  1 3.950000e-01    2.700000e+00
  TN4q  X1vq  1 3.950000e-01    2.500000e+00
  TN4q  C6eq  1 3.950000e-01    2.940000e+00
  TN4q  C5eq  1 3.950000e-01    2.700000e+00
  TN4q  C4eq  1 3.950000e-01    2.700000e+00
  TN4q  C3eq  1 3.950000e-01    2.500000e+00
  TN4q  C2eq  1 3.950000e-01    2.310000e+00
  TN4q  C1eq  1 3.950000e-01    2.110000e+00
  TN4q  X4eq  1 3.950000e-01    3.430000e+00
  TN4q  X3eq  1 3.950000e-01    3.190000e+00
  TN4q  X2eq  1 3.950000e-01    2.700000e+00
  TN4q  X1eq  1 3.950000e-01    2.500000e+00
  TN3q   N2q  1 3.950000e-01    2.940000e+00
  TN3q   N1q  1 3.950000e-01    2.700000e+00
  TN3q   C6q  1 3.950000e-01    2.700000e+00
  TN3q   C5q  1 3.950000e-01    2.500000e+00
  TN3q   C4q  1 3.950000e-01    2.500000e+00
  TN3q   C3q  1 3.950000e-01    2.310000e+00
  TN3q   C2q  1 3.950000e-01    2.310000e+00
  TN3q   C1q  1 3.950000e-01    2.110000e+00
  TN3q   X4q  1 3.950000e-01    2.940000e+00
  TN3q   X3q  1 3.950000e-01    2.700000e+00
  TN3q   X2q  1 3.950000e-01    2.500000e+00
  TN3q   X1q  1 3.950000e-01    2.500000e+00
  TN3q  N3dq  1 3.950000e-01    2.940000e+00
  TN3q  N2dq  1 3.950000e-01    2.940000e+00
  TN3q  N1dq  1 3.950000e-01    2.700000e+00
  TN3q  N3aq  1 3.950000e-01    2.940000e+00
  TN3q  N2aq  1 3.950000e-01    2.940000e+00
  TN3q  N1aq  1 3.950000e-01    2.700000e+00
  TN3q  C6vq  1 3.950000e-01    2.940000e+00
  TN3q  C5vq  1 3.950000e-01    2.700000e+00
  TN3q  C4vq  1 3.950000e-01    2.700000e+00
  TN3q  C3vq  1 3.950000e-01    2.500000e+00
  TN3q  C2vq  1 3.950000e-01    2.500000e+00
  TN3q  C1vq  1 3.950000e-01    2.310000e+00
  TN3q  X4vq  1 3.950000e-01    3.190000e+00
  TN3q  X3vq  1 3.950000e-01    2.940000e+00
  TN3q  X2vq  1 3.950000e-01    2.700000e+00
  TN3q  X1vq  1 3.950000e-01    2.700000e+00
  TN3q  C6eq  1 3.950000e-01    2.940000e+00
  TN3q  C5eq  1 3.950000e-01    2.700000e+00
  TN3q  C4eq  1 3.950000e-01    2.700000e+00
  TN3q  C3eq  1 3.950000e-01    2.500000e+00
  TN3q  C2eq  1 3.950000e-01    2.500000e+00
  TN3q  C1eq  1 3.950000e-01    2.310000e+00
  TN3q  X4eq  1 3.950000e-01    3.190000e+00
  TN3q  X3eq  1 3.950000e-01    2.940000e+00
  TN3q  X2eq  1 3.950000e-01    2.700000e+00
  TN3q  X1eq  1 3.950000e-01    2.700000e+00
  TN2q   N1q  1 3.950000e-01    2.700000e+00
  TN2q   C6q  1 3.950000e-01    2.700000e+00
  TN2q   C5q  1 3.950000e-01    2.500000e+00
  TN2q   C4q  1 3.950000e-01    2.500000e+00
  TN2q   C3q  1 3.950000e-01    2.500000e+00
  TN2q   C2q  1 3.950000e-01    2.310000e+00
  TN2q   C1q  1 3.950000e-01    2.110000e+00
  TN2q   X4q  1 3.950000e-01    2.940000e+00
  TN2q   X3q  1 3.950000e-01    2.700000e+00
  TN2q   X2q  1 3.950000e-01    2.500000e+00
  TN2q   X1q  1 3.950000e-01    2.500000e+00
  TN2q  N2dq  1 3.950000e-01    2.940000e+00
  TN2q  N1dq  1 3.950000e-01    2.700000e+00
  TN2q  N2aq  1 3.950000e-01    2.940000e+00
  TN2q  N1aq  1 3.950000e-01    2.700000e+00
  TN2q  C6vq  1 3.950000e-01    2.940000e+00
  TN2q  C5vq  1 3.950000e-01    2.700000e+00
  TN2q  C4vq  1 3.950000e-01    2.700000e+00
  TN2q  C3vq  1 3.950000e-01    2.700000e+00
  TN2q  C2vq  1 3.950000e-01    2.500000e+00
  TN2q  C1vq  1 3.950000e-01    2.310000e+00
  TN2q  X4vq  1 3.950000e-01    3.190000e+00
  TN2q  X3vq  1 3.950000e-01    2.940000e+00
  TN2q  X2vq  1 3.950000e-01    2.700000e+00
  TN2q  X1vq  1 3.950000e-01    2.700000e+00
  TN2q  C6eq  1 3.950000e-01    2.940000e+00
  TN2q  C5eq  1 3.950000e-01    2.700000e+00
  TN2q  C4eq  1 3.950000e-01    2.700000e+00
  TN2q  C3eq  1 3.950000e-01    2.700000e+00
  TN2q  C2eq  1 3.950000e-01    2.500000e+00
  TN2q  C1eq  1 3.950000e-01    2.310000e+00
  TN2q  X4eq  1 3.950000e-01    3.190000e+00
  TN2q  X3eq  1 3.950000e-01    2.940000e+00
  TN2q  X2eq  1 3.950000e-01    2.700000e+00
  TN2q  X1eq  1 3.950000e-01    2.700000e+00
  TN1q   C6q  1 3.950000e-01    2.940000e+00
  TN1q   C5q  1 3.950000e-01    2.700000e+00
  TN1q   C4q  1 3.950000e-01    2.700000e+00
  TN1q   C3q  1 3.950000e-01    2.500000e+00
  TN1q   C2q  1 3.950000e-01    2.310000e+00
  TN1q   C1q  1 3.950000e-01    2.110000e+00
  TN1q   X4q  1 3.950000e-01    2.700000e+00
  TN1q   X3q  1 3.950000e-01    2.700000e+00
  TN1q   X2q  1 3.950000e-01    2.500000e+00
  TN1q   X1q  1 3.950000e-01    2.500000e+00
  TN1q  N1dq  1 3.950000e-01    2.940000e+00
  TN1q  N1aq  1 3.950000e-01    2.940000e+00
  TN1q  C6vq  1 3.950000e-01    3.190000e+00
  TN1q  C5vq  1 3.950000e-01    2.940000e+00
  TN1q  C4vq  1 3.950000e-01    2.940000e+00
  TN1q  C3vq  1 3.950000e-01    2.700000e+00
  TN1q  C2vq  1 3.950000e-01    2.500000e+00
  TN1q  C1vq  1 3.950000e-01    2.310000e+00
  TN1q  X4vq  1 3.950000e-01    2.940000e+00
  TN1q  X3vq  1 3.950000e-01    2.940000e+00
  TN1q  X2vq  1 3.950000e-01    2.700000e+00
  TN1q  X1vq  1 3.950000e-01    2.700000e+00
  TN1q  C6eq  1 3.950000e-01    3.190000e+00
  TN1q  C5eq  1 3.950000e-01    2.940000e+00
  TN1q  C4eq  1 3.950000e-01    2.940000e+00
  TN1q  C3eq  1 3.950000e-01    2.700000e+00
  TN1q  C2eq  1 3.950000e-01    2.500000e+00
  TN1q  C1eq  1 3.950000e-01    2.310000e+00
  TN1q  X4eq  1 3.950000e-01    2.940000e+00
  TN1q  X3eq  1 3.950000e-01    2.940000e+00
  TN1q  X2eq  1 3.950000e-01    2.700000e+00
  TN1q  X1eq  1 3.950000e-01    2.700000e+00
  TC6q   C5q  1 3.950000e-01    2.700000e+00
  TC6q   C4q  1 3.950000e-01    2.700000e+00
  TC6q   C3q  1 3.950000e-01    2.500000e+00
  TC6q   C2q  1 3.950000e-01    2.310000e+00
  TC6q   C1q  1 3.950000e-01    2.110000e+00
  TC6q   X4q  1 3.950000e-01    2.700000e+00
  TC6q   X3q  1 3.950000e-01    2.700000e+00
  TC6q   X2q  1 3.950000e-01    2.700000e+00
  TC6q   X1q  1 3.950000e-01    2.700000e+00
  TC6q  C6vq  1 3.950000e-01    3.190000e+00
  TC6q  C5vq  1 3.950000e-01    2.940000e+00
  TC6q  C4vq  1 3.950000e-01    2.940000e+00
  TC6q  C3vq  1 3.950000e-01    2.700000e+00
  TC6q  C2vq  1 3.950000e-01    2.500000e+00
  TC6q  C1vq  1 3.950000e-01    2.310000e+00
  TC6q  X4vq  1 3.950000e-01    2.940000e+00
  TC6q  X3vq  1 3.950000e-01    2.940000e+00
  TC6q  X2vq  1 3.950000e-01    2.940000e+00
  TC6q  X1vq  1 3.950000e-01    2.940000e+00
  TC6q  C6eq  1 3.950000e-01    3.190000e+00
  TC6q  C5eq  1 3.950000e-01    2.940000e+00
  TC6q  C4eq  1 3.950000e-01    2.940000e+00
  TC6q  C3eq  1 3.950000e-01    2.700000e+00
  TC6q  C2eq  1 3.950000e-01    2.500000e+00
  TC6q  C1eq  1 3.950000e-01    2.310000e+00
  TC6q  X4eq  1 3.950000e-01    2.940000e+00
  TC6q  X3eq  1 3.950000e-01    2.940000e+00
  TC6q  X2eq  1 3.950000e-01    2.940000e+00
  TC6q  X1eq  1 3.950000e-01    2.940000e+00
  TC5q   C4q  1 3.950000e-01    2.700000e+00
  TC5q   C3q  1 3.950000e-01    2.500000e+00
  TC5q   C2q  1 3.950000e-01    2.310000e+00
  TC5q   C1q  1 3.950000e-01    2.310000e+00
  TC5q   X4q  1 3.950000e-01    2.500000e+00
  TC5q   X3q  1 3.950000e-01    2.500000e+00
  TC5q   X2q  1 3.950000e-01    2.500000e+00
  TC5q   X1q  1 3.950000e-01    2.700000e+00
  TC5q  C5vq  1 3.950000e-01    2.940000e+00
  TC5q  C4vq  1 3.950000e-01    2.940000e+00
  TC5q  C3vq  1 3.950000e-01    2.700000e+00
  TC5q  C2vq  1 3.950000e-01    2.500000e+00
  TC5q  C1vq  1 3.950000e-01    2.500000e+00
  TC5q  X4vq  1 3.950000e-01    2.700000e+00
  TC5q  X3vq  1 3.950000e-01    2.700000e+00
  TC5q  X2vq  1 3.950000e-01    2.700000e+00
  TC5q  X1vq  1 3.950000e-01    2.940000e+00
  TC5q  C5eq  1 3.950000e-01    2.940000e+00
  TC5q  C4eq  1 3.950000e-01    2.940000e+00
  TC5q  C3eq  1 3.950000e-01    2.700000e+00
  TC5q  C2eq  1 3.950000e-01    2.500000e+00
  TC5q  C1eq  1 3.950000e-01    2.500000e+00
  TC5q  X4eq  1 3.950000e-01    2.700000e+00
  TC5q  X3eq  1 3.950000e-01    2.700000e+00
  TC5q  X2eq  1 3.950000e-01    2.700000e+00
  TC5q  X1eq  1 3.950000e-01    2.940000e+00
  TC4q   C3q  1 3.950000e-01    2.700000e+00
  TC4q   C2q  1 3.950000e-01    2.500000e+00
  TC4q   C1q  1 3.950000e-01    2.310000e+00
  TC4q   X4q  1 3.950000e-01    2.500000e+00
  TC4q   X3q  1 3.950000e-01    2.500000e+00
  TC4q   X2q  1 3.950000e-01    2.500000e+00
  TC4q   X1q  1 3.950000e-01    2.700000e+00
  TC4q  C4vq  1 3.950000e-01    2.940000e+00
  TC4q  C3vq  1 3.950000e-01    2.940000e+00
  TC4q  C2vq  1 3.950000e-01    2.700000e+00
  TC4q  C1vq  1 3.950000e-01    2.500000e+00
  TC4q  X4vq  1 3.950000e-01    2.700000e+00
  TC4q  X3vq  1 3.950000e-01    2.700000e+00
  TC4q  X2vq  1 3.950000e-01    2.700000e+00
  TC4q  X1vq  1 3.950000e-01    2.940000e+00
  TC4q  C4eq  1 3.950000e-01    2.940000e+00
  TC4q  C3eq  1 3.950000e-01    2.940000e+00
  TC4q  C2eq  1 3.950000e-01    2.700000e+00
  TC4q  C1eq  1 3.950000e-01    2.500000e+00
  TC4q  X4eq  1 3.950000e-01    2.700000e+00
  TC4q  X3eq  1 3.950000e-01    2.700000e+00
  TC4q  X2eq  1 3.950000e-01    2.700000e+00
  TC4q  X1eq  1 3.950000e-01    2.940000e+00
  TC3q   C2q  1 3.950000e-01    2.700000e+00
  TC3q   C1q  1 3.950000e-01    2.700000e+00
  TC3q   X4q  1 3.950000e-01    2.500000e+00
  TC3q   X3q  1 3.950000e-01    2.500000e+00
  TC3q   X2q  1 3.950000e-01    2.500000e+00
  TC3q   X1q  1 3.950000e-01    2.700000e+00
  TC3q  C3vq  1 3.950000e-01    2.940000e+00
  TC3q  C2vq  1 3.950000e-01    2.940000e+00
  TC3q  C1vq  1 3.950000e-01    2.940000e+00
  TC3q  X4vq  1 3.950000e-01    2.700000e+00
  TC3q  X3vq  1 3.950000e-01    2.700000e+00
  TC3q  X2vq  1 3.950000e-01    2.700000e+00
  TC3q  X1vq  1 3.950000e-01    2.940000e+00
  TC3q  C3eq  1 3.950000e-01    2.940000e+00
  TC3q  C2eq  1 3.950000e-01    2.940000e+00
  TC3q  C1eq  1 3.950000e-01    2.940000e+00
  TC3q  X4eq  1 3.950000e-01    2.700000e+00
  TC3q  X3eq  1 3.950000e-01    2.700000e+00
  TC3q  X2eq  1 3.950000e-01    2.700000e+00
  TC3q  X1eq  1 3.950000e-01    2.940000e+00
  TC2q   C1q  1 3.950000e-01    2.940000e+00
  TC2q   X4q  1 3.950000e-01    2.110000e+00
  TC2q   X3q  1 3.950000e-01    2.500000e+00
  TC2q   X2q  1 3.950000e-01    2.500000e+00
  TC2q   X1q  1 3.950000e-01    2.500000e+00
  TC2q  C2vq  1 3.950000e-01    2.940000e+00
  TC2q  C1vq  1 3.950000e-01    3.190000e+00
  TC2q  X4vq  1 3.950000e-01    2.310000e+00
  TC2q  X3vq  1 3.950000e-01    2.700000e+00
  TC2q  X2vq  1 3.950000e-01    2.700000e+00
  TC2q  X1vq  1 3.950000e-01    2.700000e+00
  TC2q  C2eq  1 3.950000e-01    2.940000e+00
  TC2q  C1eq  1 3.950000e-01    3.190000e+00
  TC2q  X4eq  1 3.950000e-01    2.310000e+00
  TC2q  X3eq  1 3.950000e-01    2.700000e+00
  TC2q  X2eq  1 3.950000e-01    2.700000e+00
  TC2q  X1eq  1 3.950000e-01    2.700000e+00
  TC1q   X4q  1 3.950000e-01    2.110000e+00
  TC1q   X3q  1 3.950000e-01    2.500000e+00
  TC1q   X2q  1 3.950000e-01    2.500000e+00
  TC1q   X1q  1 3.950000e-01    2.500000e+00
  TC1q  C1vq  1 3.950000e-01    2.940000e+00
  TC1q  X4vq  1 3.950000e-01    2.310000e+00
  TC1q  X3vq  1 3.950000e-01    2.700000e+00
  TC1q  X2vq  1 3.950000e-01    2.700000e+00
  TC1q  X1vq  1 3.950000e-01    2.700000e+00
  TC1q  C1eq  1 3.950000e-01    2.940000e+00
  TC1q  X4eq  1 3.950000e-01    2.310000e+00
  TC1q  X3eq  1 3.950000e-01    2.700000e+00
  TC1q  X2eq  1 3.950000e-01    2.700000e+00
  TC1q  X1eq  1 3.950000e-01    2.700000e+00
  TX4q   X3q  1 3.950000e-01    2.700000e+00
  TX4q   X2q  1 3.950000e-01    2.700000e+00
  TX4q   X1q  1 3.950000e-01    2.700000e+00
  TX4q  X4vq  1 3.950000e-01    2.940000e+00
  TX4q  X3vq  1 3.950000e-01    2.940000e+00
  TX4q  X2vq  1 3.950000e-01    2.940000e+00
  TX4q  X1vq  1 3.950000e-01    2.940000e+00
  TX4q  X4eq  1 3.950000e-01    2.940000e+00
  TX4q  X3eq  1 3.950000e-01    2.940000e+00
  TX4q  X2eq  1 3.950000e-01    2.940000e+00
  TX4q  X1eq  1 3.950000e-01    2.940000e+00
  TX3q   X2q  1 3.950000e-01    2.940000e+00
  TX3q   X1q  1 3.950000e-01    2.940000e+00
  TX3q  X3vq  1 3.950000e-01    2.940000e+00
  TX3q  X2vq  1 3.950000e-01    3.190000e+00
  TX3q  X1vq  1 3.950000e-01    3.190000e+00
  TX3q  X3eq  1 3.950000e-01    2.940000e+00
  TX3q  X2eq  1 3.950000e-01    3.190000e+00
  TX3q  X1eq  1 3.950000e-01    3.190000e+00
  TX2q   X1q  1 3.950000e-01    2.940000e+00
  TX2q  X2vq  1 3.950000e-01    3.190000e+00
  TX2q  X1vq  1 3.950000e-01    3.190000e+00
  TX2q  X2eq  1 3.950000e-01    3.190000e+00
  TX2q  X1eq  1 3.950000e-01    3.190000e+00
  TX1q  X1vq  1 3.950000e-01    3.430000e+00
  TX1q  X1eq  1 3.950000e-01    3.430000e+00
 TP6dq   P5q  1 3.950000e-01    4.540000e+00
 TP6dq   P4q  1 3.950000e-01    4.230000e+00
 TP6dq   P3q  1 3.950000e-01    3.910000e+00
 TP6dq   P2q  1 3.950000e-01    3.910000e+00
 TP6dq   P1q  1 3.950000e-01    3.670000e+00
 TP6dq   N6q  1 3.950000e-01    3.430000e+00
 TP6dq   N5q  1 3.950000e-01    2.940000e+00
 TP6dq   N4q  1 3.950000e-01    2.700000e+00
 TP6dq   N3q  1 3.950000e-01    2.500000e+00
 TP6dq   N2q  1 3.950000e-01    2.310000e+00
 TP6dq   N1q  1 3.950000e-01    2.110000e+00
 TP6dq   C6q  1 3.950000e-01    2.110000e+00
 TP6dq   C5q  1 3.950000e-01    1.850000e+00
 TP6dq   C4q  1 3.950000e-01    1.670000e+00
 TP6dq   C3q  1 3.980000e-01    1.450000e+00
 TP6dq   C2q  1 3.980000e-01    1.450000e+00
 TP6dq   C1q  1 4.010000e-01    9.830000e-01
 TP6dq   X4q  1 3.950000e-01    2.310000e+00
 TP6dq   X3q  1 3.950000e-01    2.310000e+00
 TP6dq   X2q  1 3.950000e-01    2.110000e+00
 TP6dq   X1q  1 3.950000e-01    1.850000e+00
 TP6dq  P5dq  1 3.950000e-01    4.230000e+00
 TP6dq  P4dq  1 3.950000e-01    3.910000e+00
 TP6dq  P3dq  1 3.950000e-01    3.670000e+00
 TP6dq  P2dq  1 3.950000e-01    3.670000e+00
 TP6dq  P1dq  1 3.950000e-01    3.430000e+00
 TP6dq  N6dq  1 3.950000e-01    3.190000e+00
 TP6dq  N5dq  1 3.950000e-01    2.700000e+00
 TP6dq  N4dq  1 3.950000e-01    2.500000e+00
 TP6dq  N3dq  1 3.950000e-01    2.500000e+00
 TP6dq  N2dq  1 3.950000e-01    2.310000e+00
 TP6dq  N1dq  1 3.950000e-01    2.110000e+00
 TP6dq  P6aq  1 3.950000e-01    5.270000e+00
 TP6dq  P5aq  1 3.950000e-01    4.870000e+00
 TP6dq  P4aq  1 3.950000e-01    4.540000e+00
 TP6dq  P3aq  1 3.950000e-01    4.230000e+00
 TP6dq  P2aq  1 3.950000e-01    4.230000e+00
 TP6dq  P1aq  1 3.950000e-01    3.910000e+00
 TP6dq  N6aq  1 3.950000e-01    3.670000e+00
 TP6dq  N5aq  1 3.950000e-01    3.190000e+00
 TP6dq  N4aq  1 3.950000e-01    2.940000e+00
 TP6dq  N3aq  1 3.950000e-01    2.500000e+00
 TP6dq  N2aq  1 3.950000e-01    2.310000e+00
 TP6dq  N1aq  1 3.950000e-01    2.110000e+00
 TP6dq  C6vq  1 3.950000e-01    1.850000e+00
 TP6dq  C5vq  1 3.950000e-01    1.670000e+00
 TP6dq  C4vq  1 3.980000e-01    1.450000e+00
 TP6dq  C3vq  1 3.990000e-01    1.180000e+00
 TP6dq  C2vq  1 3.990000e-01    1.180000e+00
 TP6dq  C1vq  1 4.040000e-01    8.300000e-01
 TP6dq  X4vq  1 3.950000e-01    2.110000e+00
 TP6dq  X3vq  1 3.950000e-01    2.110000e+00
 TP6dq  X2vq  1 3.950000e-01    1.850000e+00
 TP6dq  X1vq  1 3.950000e-01    1.670000e+00
 TP6dq  C6eq  1 3.950000e-01    2.310000e+00
 TP6dq  C5eq  1 3.950000e-01    2.110000e+00
 TP6dq  C4eq  1 3.950000e-01    1.850000e+00
 TP6dq  C3eq  1 3.950000e-01    1.670000e+00
 TP6dq  C2eq  1 3.950000e-01    1.670000e+00
 TP6dq  C1eq  1 3.990000e-01    1.180000e+00
 TP6dq  X4eq  1 3.950000e-01    2.500000e+00
 TP6dq  X3eq  1 3.950000e-01    2.500000e+00
 TP6dq  X2eq  1 3.950000e-01    2.310000e+00
 TP6dq  X1eq  1 3.950000e-01    2.110000e+00
 TP5dq   P4q  1 3.950000e-01    3.910000e+00
 TP5dq   P3q  1 3.950000e-01    3.670000e+00
 TP5dq   P2q  1 3.950000e-01    3.670000e+00
 TP5dq   P1q  1 3.950000e-01    3.430000e+00
 TP5dq   N6q  1 3.950000e-01    3.190000e+00
 TP5dq   N5q  1 3.950000e-01    2.940000e+00
 TP5dq   N4q  1 3.950000e-01    2.940000e+00
 TP5dq   N3q  1 3.950000e-01    2.500000e+00
 TP5dq   N2q  1 3.950000e-01    2.310000e+00
 TP5dq   N1q  1 3.950000e-01    2.110000e+00
 TP5dq   C6q  1 3.950000e-01    2.110000e+00
 TP5dq   C5q  1 3.950000e-01    2.110000e+00
 TP5dq   C4q  1 3.950000e-01    1.850000e+00
 TP5dq   C3q  1 3.950000e-01    1.670000e+00
 TP5dq   C2q  1 3.950000e-01    1.670000e+00
 TP5dq   C1q  1 3.980000e-01    1.450000e+00
 TP5dq   X4q  1 3.950000e-01    2.500000e+00
 TP5dq   X3q  1 3.950000e-01    2.310000e+00
 TP5dq   X2q  1 3.950000e-01    2.310000e+00
 TP5dq   X1q  1 3.950000e-01    1.850000e+00
 TP5dq  P4dq  1 3.950000e-01    3.670000e+00
 TP5dq  P3dq  1 3.950000e-01    3.430000e+00
 TP5dq  P2dq  1 3.950000e-01    3.430000e+00
 TP5dq  P1dq  1 3.950000e-01    3.190000e+00
 TP5dq  N6dq  1 3.950000e-01    2.940000e+00
 TP5dq  N5dq  1 3.950000e-01    2.700000e+00
 TP5dq  N4dq  1 3.950000e-01    2.700000e+00
 TP5dq  N3dq  1 3.950000e-01    2.500000e+00
 TP5dq  N2dq  1 3.950000e-01    2.310000e+00
 TP5dq  N1dq  1 3.950000e-01    2.110000e+00
 TP5dq  P5aq  1 3.950000e-01    4.540000e+00
 TP5dq  P4aq  1 3.950000e-01    4.230000e+00
 TP5dq  P3aq  1 3.950000e-01    3.910000e+00
 TP5dq  P2aq  1 3.950000e-01    3.910000e+00
 TP5dq  P1aq  1 3.950000e-01    3.670000e+00
 TP5dq  N6aq  1 3.950000e-01    3.430000e+00
 TP5dq  N5aq  1 3.950000e-01    3.190000e+00
 TP5dq  N4aq  1 3.950000e-01    3.190000e+00
 TP5dq  N3aq  1 3.950000e-01    2.500000e+00
 TP5dq  N2aq  1 3.950000e-01    2.310000e+00
 TP5dq  N1aq  1 3.950000e-01    2.110000e+00
 TP5dq  C6vq  1 3.950000e-01    1.850000e+00
 TP5dq  C5vq  1 3.950000e-01    1.850000e+00
 TP5dq  C4vq  1 3.950000e-01    1.670000e+00
 TP5dq  C3vq  1 3.980000e-01    1.450000e+00
 TP5dq  C2vq  1 3.980000e-01    1.450000e+00
 TP5dq  C1vq  1 3.990000e-01    1.180000e+00
 TP5dq  X4vq  1 3.950000e-01    2.310000e+00
 TP5dq  X3vq  1 3.950000e-01    2.110000e+00
 TP5dq  X2vq  1 3.950000e-01    2.110000e+00
 TP5dq  X1vq  1 3.950000e-01    1.670000e+00
 TP5dq  C6eq  1 3.950000e-01    2.310000e+00
 TP5dq  C5eq  1 3.950000e-01    2.310000e+00
 TP5dq  C4eq  1 3.950000e-01    2.110000e+00
 TP5dq  C3eq  1 3.950000e-01    1.850000e+00
 TP5dq  C2eq  1 3.950000e-01    1.850000e+00
 TP5dq  C1eq  1 3.950000e-01    1.670000e+00
 TP5dq  X4eq  1 3.950000e-01    2.700000e+00
 TP5dq  X3eq  1 3.950000e-01    2.500000e+00
 TP5dq  X2eq  1 3.950000e-01    2.500000e+00
 TP5dq  X1eq  1 3.950000e-01    2.110000e+00
 TP4dq   P3q  1 3.950000e-01    3.670000e+00
 TP4dq   P2q  1 3.950000e-01    3.670000e+00
 TP4dq   P1q  1 3.950000e-01    3.430000e+00
 TP4dq   N6q  1 3.950000e-01    3.190000e+00
 TP4dq   N5q  1 3.950000e-01    2.940000e+00
 TP4dq   N4q  1 3.950000e-01    2.940000e+00
 TP4dq   N3q  1 3.950000e-01    2.700000e+00
 TP4dq   N2q  1 3.950000e-01    2.500000e+00
 TP4dq   N1q  1 3.950000e-01    2.310000e+00
 TP4dq   C6q  1 3.950000e-01    2.310000e+00
 TP4dq   C5q  1 3.950000e-01    2.110000e+00
 TP4dq   C4q  1 3.950000e-01    1.850000e+00
 TP4dq   C3q  1 3.950000e-01    1.670000e+00
 TP4dq   C2q  1 3.950000e-01    1.670000e+00
 TP4dq   C1q  1 3.980000e-01    1.450000e+00
 TP4dq   X4q  1 3.950000e-01    2.500000e+00
 TP4dq   X3q  1 3.950000e-01    2.310000e+00
 TP4dq   X2q  1 3.950000e-01    2.310000e+00
 TP4dq   X1q  1 3.950000e-01    2.110000e+00
 TP4dq  P3dq  1 3.950000e-01    3.430000e+00
 TP4dq  P2dq  1 3.950000e-01    3.430000e+00
 TP4dq  P1dq  1 3.950000e-01    3.190000e+00
 TP4dq  N6dq  1 3.950000e-01    2.940000e+00
 TP4dq  N5dq  1 3.950000e-01    2.700000e+00
 TP4dq  N4dq  1 3.950000e-01    2.700000e+00
 TP4dq  N3dq  1 3.950000e-01    2.500000e+00
 TP4dq  N2dq  1 3.950000e-01    2.500000e+00
 TP4dq  N1dq  1 3.950000e-01    2.310000e+00
 TP4dq  P4aq  1 3.950000e-01    4.230000e+00
 TP4dq  P3aq  1 3.950000e-01    3.910000e+00
 TP4dq  P2aq  1 3.950000e-01    3.910000e+00
 TP4dq  P1aq  1 3.950000e-01    3.670000e+00
 TP4dq  N6aq  1 3.950000e-01    3.430000e+00
 TP4dq  N5aq  1 3.950000e-01    3.190000e+00
 TP4dq  N4aq  1 3.950000e-01    3.190000e+00
 TP4dq  N3aq  1 3.950000e-01    2.940000e+00
 TP4dq  N2aq  1 3.950000e-01    2.500000e+00
 TP4dq  N1aq  1 3.950000e-01    2.310000e+00
 TP4dq  C6vq  1 3.950000e-01    2.110000e+00
 TP4dq  C5vq  1 3.950000e-01    1.850000e+00
 TP4dq  C4vq  1 3.950000e-01    1.670000e+00
 TP4dq  C3vq  1 3.980000e-01    1.450000e+00
 TP4dq  C2vq  1 3.980000e-01    1.450000e+00
 TP4dq  C1vq  1 3.990000e-01    1.180000e+00
 TP4dq  X4vq  1 3.950000e-01    2.310000e+00
 TP4dq  X3vq  1 3.950000e-01    2.110000e+00
 TP4dq  X2vq  1 3.950000e-01    2.110000e+00
 TP4dq  X1vq  1 3.950000e-01    1.850000e+00
 TP4dq  C6eq  1 3.950000e-01    2.500000e+00
 TP4dq  C5eq  1 3.950000e-01    2.310000e+00
 TP4dq  C4eq  1 3.950000e-01    2.110000e+00
 TP4dq  C3eq  1 3.950000e-01    1.850000e+00
 TP4dq  C2eq  1 3.950000e-01    1.850000e+00
 TP4dq  C1eq  1 3.950000e-01    1.670000e+00
 TP4dq  X4eq  1 3.950000e-01    2.700000e+00
 TP4dq  X3eq  1 3.950000e-01    2.500000e+00
 TP4dq  X2eq  1 3.950000e-01    2.500000e+00
 TP4dq  X1eq  1 3.950000e-01    2.310000e+00
 TP3dq   P2q  1 3.950000e-01    3.670000e+00
 TP3dq   P1q  1 3.950000e-01    3.430000e+00
 TP3dq   N6q  1 3.950000e-01    3.190000e+00
 TP3dq   N5q  1 3.950000e-01    2.940000e+00
 TP3dq   N4q  1 3.950000e-01    2.940000e+00
 TP3dq   N3q  1 3.950000e-01    2.700000e+00
 TP3dq   N2q  1 3.950000e-01    2.700000e+00
 TP3dq   N1q  1 3.950000e-01    2.500000e+00
 TP3dq   C6q  1 3.950000e-01    2.500000e+00
 TP3dq   C5q  1 3.950000e-01    2.310000e+00
 TP3dq   C4q  1 3.950000e-01    2.110000e+00
 TP3dq   C3q  1 3.950000e-01    1.670000e+00
 TP3dq   C2q  1 3.950000e-01    1.670000e+00
 TP3dq   C1q  1 3.980000e-01    1.450000e+00
 TP3dq   X4q  1 3.950000e-01    2.500000e+00
 TP3dq   X3q  1 3.950000e-01    2.500000e+00
 TP3dq   X2q  1 3.950000e-01    2.310000e+00
 TP3dq   X1q  1 3.950000e-01    2.110000e+00
 TP3dq  P2dq  1 3.950000e-01    3.430000e+00
 TP3dq  P1dq  1 3.950000e-01    3.190000e+00
 TP3dq  N6dq  1 3.950000e-01    2.940000e+00
 TP3dq  N5dq  1 3.950000e-01    2.700000e+00
 TP3dq  N4dq  1 3.950000e-01    2.700000e+00
 TP3dq  N3dq  1 3.950000e-01    2.500000e+00
 TP3dq  N2dq  1 3.950000e-01    2.500000e+00
 TP3dq  N1dq  1 3.950000e-01    2.500000e+00
 TP3dq  P3aq  1 3.950000e-01    3.910000e+00
 TP3dq  P2aq  1 3.950000e-01    3.910000e+00
 TP3dq  P1aq  1 3.950000e-01    3.670000e+00
 TP3dq  N6aq  1 3.950000e-01    3.430000e+00
 TP3dq  N5aq  1 3.950000e-01    3.190000e+00
 TP3dq  N4aq  1 3.950000e-01    3.190000e+00
 TP3dq  N3aq  1 3.950000e-01    2.940000e+00
 TP3dq  N2aq  1 3.950000e-01    2.940000e+00
 TP3dq  N1aq  1 3.950000e-01    2.500000e+00
 TP3dq  C6vq  1 3.950000e-01    2.310000e+00
 TP3dq  C5vq  1 3.950000e-01    2.110000e+00
 TP3dq  C4vq  1 3.950000e-01    1.850000e+00
 TP3dq  C3vq  1 3.980000e-01    1.450000e+00
 TP3dq  C2vq  1 3.980000e-01    1.450000e+00
 TP3dq  C1vq  1 3.990000e-01    1.180000e+00
 TP3dq  X4vq  1 3.950000e-01    2.310000e+00
 TP3dq  X3vq  1 3.950000e-01    2.310000e+00
 TP3dq  X2vq  1 3.950000e-01    2.110000e+00
 TP3dq  X1vq  1 3.950000e-01    1.850000e+00
 TP3dq  C6eq  1 3.950000e-01    2.700000e+00
 TP3dq  C5eq  1 3.950000e-01    2.500000e+00
 TP3dq  C4eq  1 3.950000e-01    2.310000e+00
 TP3dq  C3eq  1 3.950000e-01    1.850000e+00
 TP3dq  C2eq  1 3.950000e-01    1.850000e+00
 TP3dq  C1eq  1 3.950000e-01    1.670000e+00
 TP3dq  X4eq  1 3.950000e-01    2.700000e+00
 TP3dq  X3eq  1 3.950000e-01    2.700000e+00
 TP3dq  X2eq  1 3.950000e-01    2.500000e+00
 TP3dq  X1eq  1 3.950000e-01    2.310000e+00
 TP2dq   P1q  1 3.950000e-01    3.430000e+00
 TP2dq   N6q  1 3.950000e-01    3.430000e+00
 TP2dq   N5q  1 3.950000e-01    3.190000e+00
 TP2dq   N4q  1 3.950000e-01    2.940000e+00
 TP2dq   N3q  1 3.950000e-01    2.700000e+00
 TP2dq   N2q  1 3.950000e-01    2.700000e+00
 TP2dq   N1q  1 3.950000e-01    2.700000e+00
 TP2dq   C6q  1 3.950000e-01    2.500000e+00
 TP2dq   C5q  1 3.950000e-01    2.310000e+00
 TP2dq   C4q  1 3.950000e-01    2.110000e+00
 TP2dq   C3q  1 3.950000e-01    1.850000e+00
 TP2dq   C2q  1 3.950000e-01    1.850000e+00
 TP2dq   C1q  1 3.950000e-01    1.670000e+00
 TP2dq   X4q  1 3.950000e-01    2.500000e+00
 TP2dq   X3q  1 3.950000e-01    2.500000e+00
 TP2dq   X2q  1 3.950000e-01    2.310000e+00
 TP2dq   X1q  1 3.950000e-01    2.110000e+00
 TP2dq  P1dq  1 3.950000e-01    3.190000e+00
 TP2dq  N6dq  1 3.950000e-01    3.190000e+00
 TP2dq  N5dq  1 3.950000e-01    2.940000e+00
 TP2dq  N4dq  1 3.950000e-01    2.700000e+00
 TP2dq  N3dq  1 3.950000e-01    2.500000e+00
 TP2dq  N2dq  1 3.950000e-01    2.500000e+00
 TP2dq  N1dq  1 3.950000e-01    2.500000e+00
 TP2dq  P2aq  1 3.950000e-01    3.910000e+00
 TP2dq  P1aq  1 3.950000e-01    3.670000e+00
 TP2dq  N6aq  1 3.950000e-01    3.670000e+00
 TP2dq  N5aq  1 3.950000e-01    3.430000e+00
 TP2dq  N4aq  1 3.950000e-01    3.190000e+00
 TP2dq  N3aq  1 3.950000e-01    2.940000e+00
 TP2dq  N2aq  1 3.950000e-01    2.940000e+00
 TP2dq  N1aq  1 3.950000e-01    2.940000e+00
 TP2dq  C6vq  1 3.950000e-01    2.310000e+00
 TP2dq  C5vq  1 3.950000e-01    2.110000e+00
 TP2dq  C4vq  1 3.950000e-01    1.850000e+00
 TP2dq  C3vq  1 3.950000e-01    1.670000e+00
 TP2dq  C2vq  1 3.950000e-01    1.670000e+00
 TP2dq  C1vq  1 3.980000e-01    1.450000e+00
 TP2dq  X4vq  1 3.950000e-01    2.310000e+00
 TP2dq  X3vq  1 3.950000e-01    2.310000e+00
 TP2dq  X2vq  1 3.950000e-01    2.110000e+00
 TP2dq  X1vq  1 3.950000e-01    1.850000e+00
 TP2dq  C6eq  1 3.950000e-01    2.700000e+00
 TP2dq  C5eq  1 3.950000e-01    2.500000e+00
 TP2dq  C4eq  1 3.950000e-01    2.310000e+00
 TP2dq  C3eq  1 3.950000e-01    2.110000e+00
 TP2dq  C2eq  1 3.950000e-01    2.110000e+00
 TP2dq  C1eq  1 3.950000e-01    1.850000e+00
 TP2dq  X4eq  1 3.950000e-01    2.700000e+00
 TP2dq  X3eq  1 3.950000e-01    2.700000e+00
 TP2dq  X2eq  1 3.950000e-01    2.500000e+00
 TP2dq  X1eq  1 3.950000e-01    2.310000e+00
 TP1dq   N6q  1 3.950000e-01    3.430000e+00
 TP1dq   N5q  1 3.950000e-01    3.190000e+00
 TP1dq   N4q  1 3.950000e-01    3.190000e+00
 TP1dq   N3q  1 3.950000e-01    2.700000e+00
 TP1dq   N2q  1 3.950000e-01    2.700000e+00
 TP1dq   N1q  1 3.950000e-01    2.700000e+00
 TP1dq   C6q  1 3.950000e-01    2.500000e+00
 TP1dq   C5q  1 3.950000e-01    2.310000e+00
 TP1dq   C4q  1 3.950000e-01    2.110000e+00
 TP1dq   C3q  1 3.950000e-01    1.850000e+00
 TP1dq   C2q  1 3.950000e-01    1.850000e+00
 TP1dq   C1q  1 3.950000e-01    1.670000e+00
 TP1dq   X4q  1 3.950000e-01    2.500000e+00
 TP1dq   X3q  1 3.950000e-01    2.500000e+00
 TP1dq   X2q  1 3.950000e-01    2.310000e+00
 TP1dq   X1q  1 3.950000e-01    2.110000e+00
 TP1dq  N6dq  1 3.950000e-01    3.190000e+00
 TP1dq  N5dq  1 3.950000e-01    2.940000e+00
 TP1dq  N4dq  1 3.950000e-01    2.940000e+00
 TP1dq  N3dq  1 3.950000e-01    2.500000e+00
 TP1dq  N2dq  1 3.950000e-01    2.500000e+00
 TP1dq  N1dq  1 3.950000e-01    2.500000e+00
 TP1dq  P1aq  1 3.950000e-01    3.670000e+00
 TP1dq  N6aq  1 3.950000e-01    3.670000e+00
 TP1dq  N5aq  1 3.950000e-01    3.430000e+00
 TP1dq  N4aq  1 3.950000e-01    3.430000e+00
 TP1dq  N3aq  1 3.950000e-01    2.940000e+00
 TP1dq  N2aq  1 3.950000e-01    2.940000e+00
 TP1dq  N1aq  1 3.950000e-01    2.940000e+00
 TP1dq  C6vq  1 3.950000e-01    2.310000e+00
 TP1dq  C5vq  1 3.950000e-01    2.110000e+00
 TP1dq  C4vq  1 3.950000e-01    1.850000e+00
 TP1dq  C3vq  1 3.950000e-01    1.670000e+00
 TP1dq  C2vq  1 3.950000e-01    1.670000e+00
 TP1dq  C1vq  1 3.980000e-01    1.450000e+00
 TP1dq  X4vq  1 3.950000e-01    2.310000e+00
 TP1dq  X3vq  1 3.950000e-01    2.310000e+00
 TP1dq  X2vq  1 3.950000e-01    2.110000e+00
 TP1dq  X1vq  1 3.950000e-01    1.850000e+00
 TP1dq  C6eq  1 3.950000e-01    2.700000e+00
 TP1dq  C5eq  1 3.950000e-01    2.500000e+00
 TP1dq  C4eq  1 3.950000e-01    2.310000e+00
 TP1dq  C3eq  1 3.950000e-01    2.110000e+00
 TP1dq  C2eq  1 3.950000e-01    2.110000e+00
 TP1dq  C1eq  1 3.950000e-01    1.850000e+00
 TP1dq  X4eq  1 3.950000e-01    2.700000e+00
 TP1dq  X3eq  1 3.950000e-01    2.700000e+00
 TP1dq  X2eq  1 3.950000e-01    2.500000e+00
 TP1dq  X1eq  1 3.950000e-01    2.310000e+00
 TN6dq   N5q  1 3.950000e-01    3.430000e+00
 TN6dq   N4q  1 3.950000e-01    3.430000e+00
 TN6dq   N3q  1 3.950000e-01    2.940000e+00
 TN6dq   N2q  1 3.950000e-01    2.700000e+00
 TN6dq   N1q  1 3.950000e-01    2.700000e+00
 TN6dq   C6q  1 3.950000e-01    2.700000e+00
 TN6dq   C5q  1 3.950000e-01    2.500000e+00
 TN6dq   C4q  1 3.950000e-01    2.310000e+00
 TN6dq   C3q  1 3.950000e-01    2.110000e+00
 TN6dq   C2q  1 3.950000e-01    2.110000e+00
 TN6dq   C1q  1 3.950000e-01    1.850000e+00
 TN6dq   X4q  1 3.950000e-01    2.700000e+00
 TN6dq   X3q  1 3.950000e-01    2.500000e+00
 TN6dq   X2q  1 3.950000e-01    2.310000e+00
 TN6dq   X1q  1 3.950000e-01    2.110000e+00
 TN6dq  N5dq  1 3.950000e-01    3.190000e+00
 TN6dq  N4dq  1 3.950000e-01    3.190000e+00
 TN6dq  N3dq  1 3.950000e-01    2.700000e+00
 TN6dq  N2dq  1 3.950000e-01    2.500000e+00
 TN6dq  N1dq  1 3.950000e-01    2.500000e+00
 TN6dq  N6aq  1 3.950000e-01    3.670000e+00
 TN6dq  N5aq  1 3.950000e-01    3.670000e+00
 TN6dq  N4aq  1 3.950000e-01    3.670000e+00
 TN6dq  N3aq  1 3.950000e-01    3.190000e+00
 TN6dq  N2aq  1 3.950000e-01    2.940000e+00
 TN6dq  N1aq  1 3.950000e-01    2.940000e+00
 TN6dq  C6vq  1 3.950000e-01    2.500000e+00
 TN6dq  C5vq  1 3.950000e-01    2.310000e+00
 TN6dq  C4vq  1 3.950000e-01    2.110000e+00
 TN6dq  C3vq  1 3.950000e-01    1.850000e+00
 TN6dq  C2vq  1 3.950000e-01    1.850000e+00
 TN6dq  C1vq  1 3.950000e-01    1.670000e+00
 TN6dq  X4vq  1 3.950000e-01    2.500000e+00
 TN6dq  X3vq  1 3.950000e-01    2.310000e+00
 TN6dq  X2vq  1 3.950000e-01    2.110000e+00
 TN6dq  X1vq  1 3.950000e-01    1.850000e+00
 TN6dq  C6eq  1 3.950000e-01    2.940000e+00
 TN6dq  C5eq  1 3.950000e-01    2.700000e+00
 TN6dq  C4eq  1 3.950000e-01    2.500000e+00
 TN6dq  C3eq  1 3.950000e-01    2.310000e+00
 TN6dq  C2eq  1 3.950000e-01    2.310000e+00
 TN6dq  C1eq  1 3.950000e-01    2.110000e+00
 TN6dq  X4eq  1 3.950000e-01    2.940000e+00
 TN6dq  X3eq  1 3.950000e-01    2.700000e+00
 TN6dq  X2eq  1 3.950000e-01    2.500000e+00
 TN6dq  X1eq  1 3.950000e-01    2.310000e+00
 TN5dq   N4q  1 3.950000e-01    3.190000e+00
 TN5dq   N3q  1 3.950000e-01    2.940000e+00
 TN5dq   N2q  1 3.950000e-01    2.940000e+00
 TN5dq   N1q  1 3.950000e-01    2.700000e+00
 TN5dq   C6q  1 3.950000e-01    2.700000e+00
 TN5dq   C5q  1 3.950000e-01    2.500000e+00
 TN5dq   C4q  1 3.950000e-01    2.310000e+00
 TN5dq   C3q  1 3.950000e-01    2.310000e+00
 TN5dq   C2q  1 3.950000e-01    2.110000e+00
 TN5dq   C1q  1 3.950000e-01    1.850000e+00
 TN5dq   X4q  1 3.950000e-01    2.940000e+00
 TN5dq   X3q  1 3.950000e-01    2.700000e+00
 TN5dq   X2q  1 3.950000e-01    2.500000e+00
 TN5dq   X1q  1 3.950000e-01    2.310000e+00
 TN5dq  N4dq  1 3.950000e-01    2.940000e+00
 TN5dq  N3dq  1 3.950000e-01    2.700000e+00
 TN5dq  N2dq  1 3.950000e-01    2.700000e+00
 TN5dq  N1dq  1 3.950000e-01    2.500000e+00
 TN5dq  N5aq  1 3.950000e-01    3.430000e+00
 TN5dq  N4aq  1 3.950000e-01    3.430000e+00
 TN5dq  N3aq  1 3.950000e-01    3.190000e+00
 TN5dq  N2aq  1 3.950000e-01    3.190000e+00
 TN5dq  N1aq  1 3.950000e-01    2.940000e+00
 TN5dq  C6vq  1 3.950000e-01    2.500000e+00
 TN5dq  C5vq  1 3.950000e-01    2.310000e+00
 TN5dq  C4vq  1 3.950000e-01    2.110000e+00
 TN5dq  C3vq  1 3.950000e-01    2.110000e+00
 TN5dq  C2vq  1 3.950000e-01    1.850000e+00
 TN5dq  C1vq  1 3.950000e-01    1.670000e+00
 TN5dq  X4vq  1 3.950000e-01    2.700000e+00
 TN5dq  X3vq  1 3.950000e-01    2.500000e+00
 TN5dq  X2vq  1 3.950000e-01    2.310000e+00
 TN5dq  X1vq  1 3.950000e-01    2.110000e+00
 TN5dq  C6eq  1 3.950000e-01    2.940000e+00
 TN5dq  C5eq  1 3.950000e-01    2.700000e+00
 TN5dq  C4eq  1 3.950000e-01    2.500000e+00
 TN5dq  C3eq  1 3.950000e-01    2.500000e+00
 TN5dq  C2eq  1 3.950000e-01    2.310000e+00
 TN5dq  C1eq  1 3.950000e-01    2.110000e+00
 TN5dq  X4eq  1 3.950000e-01    3.190000e+00
 TN5dq  X3eq  1 3.950000e-01    2.940000e+00
 TN5dq  X2eq  1 3.950000e-01    2.700000e+00
 TN5dq  X1eq  1 3.950000e-01    2.500000e+00
 TN4dq   N3q  1 3.950000e-01    2.940000e+00
 TN4dq   N2q  1 3.950000e-01    2.940000e+00
 TN4dq   N1q  1 3.950000e-01    2.700000e+00
 TN4dq   C6q  1 3.950000e-01    2.700000e+00
 TN4dq   C5q  1 3.950000e-01    2.500000e+00
 TN4dq   C4q  1 3.950000e-01    2.500000e+00
 TN4dq   C3q  1 3.950000e-01    2.310000e+00
 TN4dq   C2q  1 3.950000e-01    2.110000e+00
 TN4dq   C1q  1 3.950000e-01    1.850000e+00
 TN4dq   X4q  1 3.950000e-01    3.190000e+00
 TN4dq   X3q  1 3.950000e-01    2.940000e+00
 TN4dq   X2q  1 3.950000e-01    2.500000e+00
 TN4dq   X1q  1 3.950000e-01    2.310000e+00
 TN4dq  N3dq  1 3.950000e-01    2.700000e+00
 TN4dq  N2dq  1 3.950000e-01    2.700000e+00
 TN4dq  N1dq  1 3.950000e-01    2.500000e+00
 TN4dq  N4aq  1 3.950000e-01    3.430000e+00
 TN4dq  N3aq  1 3.950000e-01    3.190000e+00
 TN4dq  N2aq  1 3.950000e-01    3.190000e+00
 TN4dq  N1aq  1 3.950000e-01    2.940000e+00
 TN4dq  C6vq  1 3.950000e-01    2.500000e+00
 TN4dq  C5vq  1 3.950000e-01    2.310000e+00
 TN4dq  C4vq  1 3.950000e-01    2.310000e+00
 TN4dq  C3vq  1 3.950000e-01    2.110000e+00
 TN4dq  C2vq  1 3.950000e-01    1.850000e+00
 TN4dq  C1vq  1 3.950000e-01    1.670000e+00
 TN4dq  X4vq  1 3.950000e-01    2.940000e+00
 TN4dq  X3vq  1 3.950000e-01    2.700000e+00
 TN4dq  X2vq  1 3.950000e-01    2.310000e+00
 TN4dq  X1vq  1 3.950000e-01    2.110000e+00
 TN4dq  C6eq  1 3.950000e-01    2.940000e+00
 TN4dq  C5eq  1 3.950000e-01    2.700000e+00
 TN4dq  C4eq  1 3.950000e-01    2.700000e+00
 TN4dq  C3eq  1 3.950000e-01    2.500000e+00
 TN4dq  C2eq  1 3.950000e-01    2.310000e+00
 TN4dq  C1eq  1 3.950000e-01    2.110000e+00
 TN4dq  X4eq  1 3.950000e-01    3.430000e+00
 TN4dq  X3eq  1 3.950000e-01    3.190000e+00
 TN4dq  X2eq  1 3.950000e-01    2.700000e+00
 TN4dq  X1eq  1 3.950000e-01    2.500000e+00
 TN3dq   N2q  1 3.950000e-01    2.940000e+00
 TN3dq   N1q  1 3.950000e-01    2.700000e+00
 TN3dq   C6q  1 3.950000e-01    2.700000e+00
 TN3dq   C5q  1 3.950000e-01    2.500000e+00
 TN3dq   C4q  1 3.950000e-01    2.500000e+00
 TN3dq   C3q  1 3.950000e-01    2.310000e+00
 TN3dq   C2q  1 3.950000e-01    2.310000e+00
 TN3dq   C1q  1 3.950000e-01    2.110000e+00
 TN3dq   X4q  1 3.950000e-01    2.940000e+00
 TN3dq   X3q  1 3.950000e-01    2.700000e+00
 TN3dq   X2q  1 3.950000e-01    2.500000e+00
 TN3dq   X1q  1 3.950000e-01    2.500000e+00
 TN3dq  N2dq  1 3.950000e-01    2.700000e+00
 TN3dq  N1dq  1 3.950000e-01    2.500000e+00
 TN3dq  N3aq  1 3.950000e-01    3.190000e+00
 TN3dq  N2aq  1 3.950000e-01    3.190000e+00
 TN3dq  N1aq  1 3.950000e-01    2.940000e+00
 TN3dq  C6vq  1 3.950000e-01    2.500000e+00
 TN3dq  C5vq  1 3.950000e-01    2.310000e+00
 TN3dq  C4vq  1 3.950000e-01    2.310000e+00
 TN3dq  C3vq  1 3.950000e-01    2.110000e+00
 TN3dq  C2vq  1 3.950000e-01    2.110000e+00
 TN3dq  C1vq  1 3.950000e-01    1.850000e+00
 TN3dq  X4vq  1 3.950000e-01    2.700000e+00
 TN3dq  X3vq  1 3.950000e-01    2.500000e+00
 TN3dq  X2vq  1 3.950000e-01    2.310000e+00
 TN3dq  X1vq  1 3.950000e-01    2.310000e+00
 TN3dq  C6eq  1 3.950000e-01    2.940000e+00
 TN3dq  C5eq  1 3.950000e-01    2.700000e+00
 TN3dq  C4eq  1 3.950000e-01    2.700000e+00
 TN3dq  C3eq  1 3.950000e-01    2.500000e+00
 TN3dq  C2eq  1 3.950000e-01    2.500000e+00
 TN3dq  C1eq  1 3.950000e-01    2.310000e+00
 TN3dq  X4eq  1 3.950000e-01    3.190000e+00
 TN3dq  X3eq  1 3.950000e-01    2.940000e+00
 TN3dq  X2eq  1 3.950000e-01    2.700000e+00
 TN3dq  X1eq  1 3.950000e-01    2.700000e+00
 TN2dq   N1q  1 3.950000e-01    2.700000e+00
 TN2dq   C6q  1 3.950000e-01    2.700000e+00
 TN2dq   C5q  1 3.950000e-01    2.500000e+00
 TN2dq   C4q  1 3.950000e-01    2.500000e+00
 TN2dq   C3q  1 3.950000e-01    2.500000e+00
 TN2dq   C2q  1 3.950000e-01    2.310000e+00
 TN2dq   C1q  1 3.950000e-01    2.110000e+00
 TN2dq   X4q  1 3.950000e-01    2.940000e+00
 TN2dq   X3q  1 3.950000e-01    2.700000e+00
 TN2dq   X2q  1 3.950000e-01    2.500000e+00
 TN2dq   X1q  1 3.950000e-01    2.500000e+00
 TN2dq  N1dq  1 3.950000e-01    2.500000e+00
 TN2dq  N2aq  1 3.950000e-01    3.190000e+00
 TN2dq  N1aq  1 3.950000e-01    2.940000e+00
 TN2dq  C6vq  1 3.950000e-01    2.500000e+00
 TN2dq  C5vq  1 3.950000e-01    2.310000e+00
 TN2dq  C4vq  1 3.950000e-01    2.310000e+00
 TN2dq  C3vq  1 3.950000e-01    2.310000e+00
 TN2dq  C2vq  1 3.950000e-01    2.110000e+00
 TN2dq  C1vq  1 3.950000e-01    1.850000e+00
 TN2dq  X4vq  1 3.950000e-01    2.700000e+00
 TN2dq  X3vq  1 3.950000e-01    2.500000e+00
 TN2dq  X2vq  1 3.950000e-01    2.310000e+00
 TN2dq  X1vq  1 3.950000e-01    2.310000e+00
 TN2dq  C6eq  1 3.950000e-01    2.940000e+00
 TN2dq  C5eq  1 3.950000e-01    2.700000e+00
 TN2dq  C4eq  1 3.950000e-01    2.700000e+00
 TN2dq  C3eq  1 3.950000e-01    2.700000e+00
 TN2dq  C2eq  1 3.950000e-01    2.500000e+00
 TN2dq  C1eq  1 3.950000e-01    2.310000e+00
 TN2dq  X4eq  1 3.950000e-01    3.190000e+00
 TN2dq  X3eq  1 3.950000e-01    2.940000e+00
 TN2dq  X2eq  1 3.950000e-01    2.700000e+00
 TN2dq  X1eq  1 3.950000e-01    2.700000e+00
 TN1dq   C6q  1 3.950000e-01    2.940000e+00
 TN1dq   C5q  1 3.950000e-01    2.700000e+00
 TN1dq   C4q  1 3.950000e-01    2.700000e+00
 TN1dq   C3q  1 3.950000e-01    2.500000e+00
 TN1dq   C2q  1 3.950000e-01    2.310000e+00
 TN1dq   C1q  1 3.950000e-01    2.110000e+00
 TN1dq   X4q  1 3.950000e-01    2.700000e+00
 TN1dq   X3q  1 3.950000e-01    2.700000e+00
 TN1dq   X2q  1 3.950000e-01    2.500000e+00
 TN1dq   X1q  1 3.950000e-01    2.500000e+00
 TN1dq  N1aq  1 3.950000e-01    3.190000e+00
 TN1dq  C6vq  1 3.950000e-01    2.700000e+00
 TN1dq  C5vq  1 3.950000e-01    2.500000e+00
 TN1dq  C4vq  1 3.950000e-01    2.500000e+00
 TN1dq  C3vq  1 3.950000e-01    2.310000e+00
 TN1dq  C2vq  1 3.950000e-01    2.110000e+00
 TN1dq  C1vq  1 3.950000e-01    1.850000e+00
 TN1dq  X4vq  1 3.950000e-01    2.500000e+00
 TN1dq  X3vq  1 3.950000e-01    2.500000e+00
 TN1dq  X2vq  1 3.950000e-01    2.310000e+00
 TN1dq  X1vq  1 3.950000e-01    2.310000e+00
 TN1dq  C6eq  1 3.950000e-01    3.190000e+00
 TN1dq  C5eq  1 3.950000e-01    2.940000e+00
 TN1dq  C4eq  1 3.950000e-01    2.940000e+00
 TN1dq  C3eq  1 3.950000e-01    2.700000e+00
 TN1dq  C2eq  1 3.950000e-01    2.500000e+00
 TN1dq  C1eq  1 3.950000e-01    2.310000e+00
 TN1dq  X4eq  1 3.950000e-01    2.940000e+00
 TN1dq  X3eq  1 3.950000e-01    2.940000e+00
 TN1dq  X2eq  1 3.950000e-01    2.700000e+00
 TN1dq  X1eq  1 3.950000e-01    2.700000e+00
 TP6aq   P5q  1 3.950000e-01    4.540000e+00
 TP6aq   P4q  1 3.950000e-01    4.230000e+00
 TP6aq   P3q  1 3.950000e-01    3.910000e+00
 TP6aq   P2q  1 3.950000e-01    3.910000e+00
 TP6aq   P1q  1 3.950000e-01    3.670000e+00
 TP6aq   N6q  1 3.950000e-01    3.430000e+00
 TP6aq   N5q  1 3.950000e-01    2.940000e+00
 TP6aq   N4q  1 3.950000e-01    2.700000e+00
 TP6aq   N3q  1 3.950000e-01    2.500000e+00
 TP6aq   N2q  1 3.950000e-01    2.310000e+00
 TP6aq   N1q  1 3.950000e-01    2.110000e+00
 TP6aq   C6q  1 3.950000e-01    2.110000e+00
 TP6aq   C5q  1 3.950000e-01    1.850000e+00
 TP6aq   C4q  1 3.950000e-01    1.670000e+00
 TP6aq   C3q  1 3.980000e-01    1.450000e+00
 TP6aq   C2q  1 3.980000e-01    1.450000e+00
 TP6aq   C1q  1 4.010000e-01    9.830000e-01
 TP6aq   X4q  1 3.950000e-01    2.310000e+00
 TP6aq   X3q  1 3.950000e-01    2.310000e+00
 TP6aq   X2q  1 3.950000e-01    2.110000e+00
 TP6aq   X1q  1 3.950000e-01    1.850000e+00
 TP6aq  P5dq  1 3.950000e-01    4.870000e+00
 TP6aq  P4dq  1 3.950000e-01    4.540000e+00
 TP6aq  P3dq  1 3.950000e-01    4.230000e+00
 TP6aq  P2dq  1 3.950000e-01    4.230000e+00
 TP6aq  P1dq  1 3.950000e-01    3.910000e+00
 TP6aq  N6dq  1 3.950000e-01    3.670000e+00
 TP6aq  N5dq  1 3.950000e-01    3.190000e+00
 TP6aq  N4dq  1 3.950000e-01    2.940000e+00
 TP6aq  N3dq  1 3.950000e-01    2.500000e+00
 TP6aq  N2dq  1 3.950000e-01    2.310000e+00
 TP6aq  N1dq  1 3.950000e-01    2.110000e+00
 TP6aq  P5aq  1 3.950000e-01    4.230000e+00
 TP6aq  P4aq  1 3.950000e-01    3.910000e+00
 TP6aq  P3aq  1 3.950000e-01    3.670000e+00
 TP6aq  P2aq  1 3.950000e-01    3.670000e+00
 TP6aq  P1aq  1 3.950000e-01    3.430000e+00
 TP6aq  N6aq  1 3.950000e-01    3.190000e+00
 TP6aq  N5aq  1 3.950000e-01    2.700000e+00
 TP6aq  N4aq  1 3.950000e-01    2.500000e+00
 TP6aq  N3aq  1 3.950000e-01    2.500000e+00
 TP6aq  N2aq  1 3.950000e-01    2.310000e+00
 TP6aq  N1aq  1 3.950000e-01    2.110000e+00
 TP6aq  C6vq  1 3.950000e-01    2.310000e+00
 TP6aq  C5vq  1 3.950000e-01    2.110000e+00
 TP6aq  C4vq  1 3.950000e-01    1.850000e+00
 TP6aq  C3vq  1 3.950000e-01    1.670000e+00
 TP6aq  C2vq  1 3.950000e-01    1.670000e+00
 TP6aq  C1vq  1 3.990000e-01    1.180000e+00
 TP6aq  X4vq  1 3.950000e-01    2.500000e+00
 TP6aq  X3vq  1 3.950000e-01    2.500000e+00
 TP6aq  X2vq  1 3.950000e-01    2.310000e+00
 TP6aq  X1vq  1 3.950000e-01    2.110000e+00
 TP6aq  C6eq  1 3.950000e-01    1.850000e+00
 TP6aq  C5eq  1 3.950000e-01    1.670000e+00
 TP6aq  C4eq  1 3.980000e-01    1.450000e+00
 TP6aq  C3eq  1 3.990000e-01    1.180000e+00
 TP6aq  C2eq  1 3.990000e-01    1.180000e+00
 TP6aq  C1eq  1 4.040000e-01    8.300000e-01
 TP6aq  X4eq  1 3.950000e-01    2.110000e+00
 TP6aq  X3eq  1 3.950000e-01    2.110000e+00
 TP6aq  X2eq  1 3.950000e-01    1.850000e+00
 TP6aq  X1eq  1 3.950000e-01    1.670000e+00
 TP5aq   P4q  1 3.950000e-01    3.910000e+00
 TP5aq   P3q  1 3.950000e-01    3.670000e+00
 TP5aq   P2q  1 3.950000e-01    3.670000e+00
 TP5aq   P1q  1 3.950000e-01    3.430000e+00
 TP5aq   N6q  1 3.950000e-01    3.190000e+00
 TP5aq   N5q  1 3.950000e-01    2.940000e+00
 TP5aq   N4q  1 3.950000e-01    2.940000e+00
 TP5aq   N3q  1 3.950000e-01    2.500000e+00
 TP5aq   N2q  1 3.950000e-01    2.310000e+00
 TP5aq   N1q  1 3.950000e-01    2.110000e+00
 TP5aq   C6q  1 3.950000e-01    2.110000e+00
 TP5aq   C5q  1 3.950000e-01    2.110000e+00
 TP5aq   C4q  1 3.950000e-01    1.850000e+00
 TP5aq   C3q  1 3.950000e-01    1.670000e+00
 TP5aq   C2q  1 3.950000e-01    1.670000e+00
 TP5aq   C1q  1 3.980000e-01    1.450000e+00
 TP5aq   X4q  1 3.950000e-01    2.500000e+00
 TP5aq   X3q  1 3.950000e-01    2.310000e+00
 TP5aq   X2q  1 3.950000e-01    2.310000e+00
 TP5aq   X1q  1 3.950000e-01    1.850000e+00
 TP5aq  P4dq  1 3.950000e-01    4.230000e+00
 TP5aq  P3dq  1 3.950000e-01    3.910000e+00
 TP5aq  P2dq  1 3.950000e-01    3.910000e+00
 TP5aq  P1dq  1 3.950000e-01    3.670000e+00
 TP5aq  N6dq  1 3.950000e-01    3.430000e+00
 TP5aq  N5dq  1 3.950000e-01    3.190000e+00
 TP5aq  N4dq  1 3.950000e-01    3.190000e+00
 TP5aq  N3dq  1 3.950000e-01    2.500000e+00
 TP5aq  N2dq  1 3.950000e-01    2.310000e+00
 TP5aq  N1dq  1 3.950000e-01    2.110000e+00
 TP5aq  P4aq  1 3.950000e-01    3.670000e+00
 TP5aq  P3aq  1 3.950000e-01    3.430000e+00
 TP5aq  P2aq  1 3.950000e-01    3.430000e+00
 TP5aq  P1aq  1 3.950000e-01    3.190000e+00
 TP5aq  N6aq  1 3.950000e-01    2.940000e+00
 TP5aq  N5aq  1 3.950000e-01    2.700000e+00
 TP5aq  N4aq  1 3.950000e-01    2.700000e+00
 TP5aq  N3aq  1 3.950000e-01    2.500000e+00
 TP5aq  N2aq  1 3.950000e-01    2.310000e+00
 TP5aq  N1aq  1 3.950000e-01    2.110000e+00
 TP5aq  C6vq  1 3.950000e-01    2.310000e+00
 TP5aq  C5vq  1 3.950000e-01    2.310000e+00
 TP5aq  C4vq  1 3.950000e-01    2.110000e+00
 TP5aq  C3vq  1 3.950000e-01    1.850000e+00
 TP5aq  C2vq  1 3.950000e-01    1.850000e+00
 TP5aq  C1vq  1 3.950000e-01    1.670000e+00
 TP5aq  X4vq  1 3.950000e-01    2.700000e+00
 TP5aq  X3vq  1 3.950000e-01    2.500000e+00
 TP5aq  X2vq  1 3.950000e-01    2.500000e+00
 TP5aq  X1vq  1 3.950000e-01    2.110000e+00
 TP5aq  C6eq  1 3.950000e-01    1.850000e+00
 TP5aq  C5eq  1 3.950000e-01    1.850000e+00
 TP5aq  C4eq  1 3.950000e-01    1.670000e+00
 TP5aq  C3eq  1 3.980000e-01    1.450000e+00
 TP5aq  C2eq  1 3.980000e-01    1.450000e+00
 TP5aq  C1eq  1 3.990000e-01    1.180000e+00
 TP5aq  X4eq  1 3.950000e-01    2.310000e+00
 TP5aq  X3eq  1 3.950000e-01    2.110000e+00
 TP5aq  X2eq  1 3.950000e-01    2.110000e+00
 TP5aq  X1eq  1 3.950000e-01    1.670000e+00
 TP4aq   P3q  1 3.950000e-01    3.670000e+00
 TP4aq   P2q  1 3.950000e-01    3.670000e+00
 TP4aq   P1q  1 3.950000e-01    3.430000e+00
 TP4aq   N6q  1 3.950000e-01    3.190000e+00
 TP4aq   N5q  1 3.950000e-01    2.940000e+00
 TP4aq   N4q  1 3.950000e-01    2.940000e+00
 TP4aq   N3q  1 3.950000e-01    2.700000e+00
 TP4aq   N2q  1 3.950000e-01    2.500000e+00
 TP4aq   N1q  1 3.950000e-01    2.310000e+00
 TP4aq   C6q  1 3.950000e-01    2.310000e+00
 TP4aq   C5q  1 3.950000e-01    2.110000e+00
 TP4aq   C4q  1 3.950000e-01    1.850000e+00
 TP4aq   C3q  1 3.950000e-01    1.670000e+00
 TP4aq   C2q  1 3.950000e-01    1.670000e+00
 TP4aq   C1q  1 3.980000e-01    1.450000e+00
 TP4aq   X4q  1 3.950000e-01    2.500000e+00
 TP4aq   X3q  1 3.950000e-01    2.310000e+00
 TP4aq   X2q  1 3.950000e-01    2.310000e+00
 TP4aq   X1q  1 3.950000e-01    2.110000e+00
 TP4aq  P3dq  1 3.950000e-01    3.910000e+00
 TP4aq  P2dq  1 3.950000e-01    3.910000e+00
 TP4aq  P1dq  1 3.950000e-01    3.670000e+00
 TP4aq  N6dq  1 3.950000e-01    3.430000e+00
 TP4aq  N5dq  1 3.950000e-01    3.190000e+00
 TP4aq  N4dq  1 3.950000e-01    3.190000e+00
 TP4aq  N3dq  1 3.950000e-01    2.940000e+00
 TP4aq  N2dq  1 3.950000e-01    2.500000e+00
 TP4aq  N1dq  1 3.950000e-01    2.310000e+00
 TP4aq  P3aq  1 3.950000e-01    3.430000e+00
 TP4aq  P2aq  1 3.950000e-01    3.430000e+00
 TP4aq  P1aq  1 3.950000e-01    3.190000e+00
 TP4aq  N6aq  1 3.950000e-01    2.940000e+00
 TP4aq  N5aq  1 3.950000e-01    2.700000e+00
 TP4aq  N4aq  1 3.950000e-01    2.700000e+00
 TP4aq  N3aq  1 3.950000e-01    2.500000e+00
 TP4aq  N2aq  1 3.950000e-01    2.500000e+00
 TP4aq  N1aq  1 3.950000e-01    2.310000e+00
 TP4aq  C6vq  1 3.950000e-01    2.500000e+00
 TP4aq  C5vq  1 3.950000e-01    2.310000e+00
 TP4aq  C4vq  1 3.950000e-01    2.110000e+00
 TP4aq  C3vq  1 3.950000e-01    1.850000e+00
 TP4aq  C2vq  1 3.950000e-01    1.850000e+00
 TP4aq  C1vq  1 3.950000e-01    1.670000e+00
 TP4aq  X4vq  1 3.950000e-01    2.700000e+00
 TP4aq  X3vq  1 3.950000e-01    2.500000e+00
 TP4aq  X2vq  1 3.950000e-01    2.500000e+00
 TP4aq  X1vq  1 3.950000e-01    2.310000e+00
 TP4aq  C6eq  1 3.950000e-01    2.110000e+00
 TP4aq  C5eq  1 3.950000e-01    1.850000e+00
 TP4aq  C4eq  1 3.950000e-01    1.670000e+00
 TP4aq  C3eq  1 3.980000e-01    1.450000e+00
 TP4aq  C2eq  1 3.980000e-01    1.450000e+00
 TP4aq  C1eq  1 3.990000e-01    1.180000e+00
 TP4aq  X4eq  1 3.950000e-01    2.310000e+00
 TP4aq  X3eq  1 3.950000e-01    2.110000e+00
 TP4aq  X2eq  1 3.950000e-01    2.110000e+00
 TP4aq  X1eq  1 3.950000e-01    1.850000e+00
 TP3aq   P2q  1 3.950000e-01    3.670000e+00
 TP3aq   P1q  1 3.950000e-01    3.430000e+00
 TP3aq   N6q  1 3.950000e-01    3.190000e+00
 TP3aq   N5q  1 3.950000e-01    2.940000e+00
 TP3aq   N4q  1 3.950000e-01    2.940000e+00
 TP3aq   N3q  1 3.950000e-01    2.700000e+00
 TP3aq   N2q  1 3.950000e-01    2.700000e+00
 TP3aq   N1q  1 3.950000e-01    2.500000e+00
 TP3aq   C6q  1 3.950000e-01    2.500000e+00
 TP3aq   C5q  1 3.950000e-01    2.310000e+00
 TP3aq   C4q  1 3.950000e-01    2.110000e+00
 TP3aq   C3q  1 3.950000e-01    1.670000e+00
 TP3aq   C2q  1 3.950000e-01    1.670000e+00
 TP3aq   C1q  1 3.980000e-01    1.450000e+00
 TP3aq   X4q  1 3.950000e-01    2.500000e+00
 TP3aq   X3q  1 3.950000e-01    2.500000e+00
 TP3aq   X2q  1 3.950000e-01    2.310000e+00
 TP3aq   X1q  1 3.950000e-01    2.110000e+00
 TP3aq  P2dq  1 3.950000e-01    3.910000e+00
 TP3aq  P1dq  1 3.950000e-01    3.670000e+00
 TP3aq  N6dq  1 3.950000e-01    3.430000e+00
 TP3aq  N5dq  1 3.950000e-01    3.190000e+00
 TP3aq  N4dq  1 3.950000e-01    3.190000e+00
 TP3aq  N3dq  1 3.950000e-01    2.940000e+00
 TP3aq  N2dq  1 3.950000e-01    2.940000e+00
 TP3aq  N1dq  1 3.950000e-01    2.500000e+00
 TP3aq  P2aq  1 3.950000e-01    3.430000e+00
 TP3aq  P1aq  1 3.950000e-01    3.190000e+00
 TP3aq  N6aq  1 3.950000e-01    2.940000e+00
 TP3aq  N5aq  1 3.950000e-01    2.700000e+00
 TP3aq  N4aq  1 3.950000e-01    2.700000e+00
 TP3aq  N3aq  1 3.950000e-01    2.500000e+00
 TP3aq  N2aq  1 3.950000e-01    2.500000e+00
 TP3aq  N1aq  1 3.950000e-01    2.500000e+00
 TP3aq  C6vq  1 3.950000e-01    2.700000e+00
 TP3aq  C5vq  1 3.950000e-01    2.500000e+00
 TP3aq  C4vq  1 3.950000e-01    2.310000e+00
 TP3aq  C3vq  1 3.950000e-01    1.850000e+00
 TP3aq  C2vq  1 3.950000e-01    1.850000e+00
 TP3aq  C1vq  1 3.950000e-01    1.670000e+00
 TP3aq  X4vq  1 3.950000e-01    2.700000e+00
 TP3aq  X3vq  1 3.950000e-01    2.700000e+00
 TP3aq  X2vq  1 3.950000e-01    2.500000e+00
 TP3aq  X1vq  1 3.950000e-01    2.310000e+00
 TP3aq  C6eq  1 3.950000e-01    2.310000e+00
 TP3aq  C5eq  1 3.950000e-01    2.110000e+00
 TP3aq  C4eq  1 3.950000e-01    1.850000e+00
 TP3aq  C3eq  1 3.980000e-01    1.450000e+00
 TP3aq  C2eq  1 3.980000e-01    1.450000e+00
 TP3aq  C1eq  1 3.990000e-01    1.180000e+00
 TP3aq  X4eq  1 3.950000e-01    2.310000e+00
 TP3aq  X3eq  1 3.950000e-01    2.310000e+00
 TP3aq  X2eq  1 3.950000e-01    2.110000e+00
 TP3aq  X1eq  1 3.950000e-01    1.850000e+00
 TP2aq   P1q  1 3.950000e-01    3.430000e+00
 TP2aq   N6q  1 3.950000e-01    3.430000e+00
 TP2aq   N5q  1 3.950000e-01    3.190000e+00
 TP2aq   N4q  1 3.950000e-01    2.940000e+00
 TP2aq   N3q  1 3.950000e-01    2.700000e+00
 TP2aq   N2q  1 3.950000e-01    2.700000e+00
 TP2aq   N1q  1 3.950000e-01    2.700000e+00
 TP2aq   C6q  1 3.950000e-01    2.500000e+00
 TP2aq   C5q  1 3.950000e-01    2.310000e+00
 TP2aq   C4q  1 3.950000e-01    2.110000e+00
 TP2aq   C3q  1 3.950000e-01    1.850000e+00
 TP2aq   C2q  1 3.950000e-01    1.850000e+00
 TP2aq   C1q  1 3.950000e-01    1.670000e+00
 TP2aq   X4q  1 3.950000e-01    2.500000e+00
 TP2aq   X3q  1 3.950000e-01    2.500000e+00
 TP2aq   X2q  1 3.950000e-01    2.310000e+00
 TP2aq   X1q  1 3.950000e-01    2.110000e+00
 TP2aq  P1dq  1 3.950000e-01    3.670000e+00
 TP2aq  N6dq  1 3.950000e-01    3.670000e+00
 TP2aq  N5dq  1 3.950000e-01    3.430000e+00
 TP2aq  N4dq  1 3.950000e-01    3.190000e+00
 TP2aq  N3dq  1 3.950000e-01    2.940000e+00
 TP2aq  N2dq  1 3.950000e-01    2.940000e+00
 TP2aq  N1dq  1 3.950000e-01    2.940000e+00
 TP2aq  P1aq  1 3.950000e-01    3.190000e+00
 TP2aq  N6aq  1 3.950000e-01    3.190000e+00
 TP2aq  N5aq  1 3.950000e-01    2.940000e+00
 TP2aq  N4aq  1 3.950000e-01    2.700000e+00
 TP2aq  N3aq  1 3.950000e-01    2.500000e+00
 TP2aq  N2aq  1 3.950000e-01    2.500000e+00
 TP2aq  N1aq  1 3.950000e-01    2.500000e+00
 TP2aq  C6vq  1 3.950000e-01    2.700000e+00
 TP2aq  C5vq  1 3.950000e-01    2.500000e+00
 TP2aq  C4vq  1 3.950000e-01    2.310000e+00
 TP2aq  C3vq  1 3.950000e-01    2.110000e+00
 TP2aq  C2vq  1 3.950000e-01    2.110000e+00
 TP2aq  C1vq  1 3.950000e-01    1.850000e+00
 TP2aq  X4vq  1 3.950000e-01    2.700000e+00
 TP2aq  X3vq  1 3.950000e-01    2.700000e+00
 TP2aq  X2vq  1 3.950000e-01    2.500000e+00
 TP2aq  X1vq  1 3.950000e-01    2.310000e+00
 TP2aq  C6eq  1 3.950000e-01    2.310000e+00
 TP2aq  C5eq  1 3.950000e-01    2.110000e+00
 TP2aq  C4eq  1 3.950000e-01    1.850000e+00
 TP2aq  C3eq  1 3.950000e-01    1.670000e+00
 TP2aq  C2eq  1 3.950000e-01    1.670000e+00
 TP2aq  C1eq  1 3.980000e-01    1.450000e+00
 TP2aq  X4eq  1 3.950000e-01    2.310000e+00
 TP2aq  X3eq  1 3.950000e-01    2.310000e+00
 TP2aq  X2eq  1 3.950000e-01    2.110000e+00
 TP2aq  X1eq  1 3.950000e-01    1.850000e+00
 TP1aq   N6q  1 3.950000e-01    3.430000e+00
 TP1aq   N5q  1 3.950000e-01    3.190000e+00
 TP1aq   N4q  1 3.950000e-01    3.190000e+00
 TP1aq   N3q  1 3.950000e-01    2.700000e+00
 TP1aq   N2q  1 3.950000e-01    2.700000e+00
 TP1aq   N1q  1 3.950000e-01    2.700000e+00
 TP1aq   C6q  1 3.950000e-01    2.500000e+00
 TP1aq   C5q  1 3.950000e-01    2.310000e+00
 TP1aq   C4q  1 3.950000e-01    2.110000e+00
 TP1aq   C3q  1 3.950000e-01    1.850000e+00
 TP1aq   C2q  1 3.950000e-01    1.850000e+00
 TP1aq   C1q  1 3.950000e-01    1.670000e+00
 TP1aq   X4q  1 3.950000e-01    2.500000e+00
 TP1aq   X3q  1 3.950000e-01    2.500000e+00
 TP1aq   X2q  1 3.950000e-01    2.310000e+00
 TP1aq   X1q  1 3.950000e-01    2.110000e+00
 TP1aq  N6dq  1 3.950000e-01    3.670000e+00
 TP1aq  N5dq  1 3.950000e-01    3.430000e+00
 TP1aq  N4dq  1 3.950000e-01    3.430000e+00
 TP1aq  N3dq  1 3.950000e-01    2.940000e+00
 TP1aq  N2dq  1 3.950000e-01    2.940000e+00
 TP1aq  N1dq  1 3.950000e-01    2.940000e+00
 TP1aq  N6aq  1 3.950000e-01    3.190000e+00
 TP1aq  N5aq  1 3.950000e-01    2.940000e+00
 TP1aq  N4aq  1 3.950000e-01    2.940000e+00
 TP1aq  N3aq  1 3.950000e-01    2.500000e+00
 TP1aq  N2aq  1 3.950000e-01    2.500000e+00
 TP1aq  N1aq  1 3.950000e-01    2.500000e+00
 TP1aq  C6vq  1 3.950000e-01    2.700000e+00
 TP1aq  C5vq  1 3.950000e-01    2.500000e+00
 TP1aq  C4vq  1 3.950000e-01    2.310000e+00
 TP1aq  C3vq  1 3.950000e-01    2.110000e+00
 TP1aq  C2vq  1 3.950000e-01    2.110000e+00
 TP1aq  C1vq  1 3.950000e-01    1.850000e+00
 TP1aq  X4vq  1 3.950000e-01    2.700000e+00
 TP1aq  X3vq  1 3.950000e-01    2.700000e+00
 TP1aq  X2vq  1 3.950000e-01    2.500000e+00
 TP1aq  X1vq  1 3.950000e-01    2.310000e+00
 TP1aq  C6eq  1 3.950000e-01    2.310000e+00
 TP1aq  C5eq  1 3.950000e-01    2.110000e+00
 TP1aq  C4eq  1 3.950000e-01    1.850000e+00
 TP1aq  C3eq  1 3.950000e-01    1.670000e+00
 TP1aq  C2eq  1 3.950000e-01    1.670000e+00
 TP1aq  C1eq  1 3.980000e-01    1.450000e+00
 TP1aq  X4eq  1 3.950000e-01    2.310000e+00
 TP1aq  X3eq  1 3.950000e-01    2.310000e+00
 TP1aq  X2eq  1 3.950000e-01    2.110000e+00
 TP1aq  X1eq  1 3.950000e-01    1.850000e+00
 TN6aq   N5q  1 3.950000e-01    3.430000e+00
 TN6aq   N4q  1 3.950000e-01    3.430000e+00
 TN6aq   N3q  1 3.950000e-01    2.940000e+00
 TN6aq   N2q  1 3.950000e-01    2.700000e+00
 TN6aq   N1q  1 3.950000e-01    2.700000e+00
 TN6aq   C6q  1 3.950000e-01    2.700000e+00
 TN6aq   C5q  1 3.950000e-01    2.500000e+00
 TN6aq   C4q  1 3.950000e-01    2.310000e+00
 TN6aq   C3q  1 3.950000e-01    2.110000e+00
 TN6aq   C2q  1 3.950000e-01    2.110000e+00
 TN6aq   C1q  1 3.950000e-01    1.850000e+00
 TN6aq   X4q  1 3.950000e-01    2.700000e+00
 TN6aq   X3q  1 3.950000e-01    2.500000e+00
 TN6aq   X2q  1 3.950000e-01    2.310000e+00
 TN6aq   X1q  1 3.950000e-01    2.110000e+00
 TN6aq  N5dq  1 3.950000e-01    3.670000e+00
 TN6aq  N4dq  1 3.950000e-01    3.670000e+00
 TN6aq  N3dq  1 3.950000e-01    3.190000e+00
 TN6aq  N2dq  1 3.950000e-01    2.940000e+00
 TN6aq  N1dq  1 3.950000e-01    2.940000e+00
 TN6aq  N5aq  1 3.950000e-01    3.190000e+00
 TN6aq  N4aq  1 3.950000e-01    3.190000e+00
 TN6aq  N3aq  1 3.950000e-01    2.700000e+00
 TN6aq  N2aq  1 3.950000e-01    2.500000e+00
 TN6aq  N1aq  1 3.950000e-01    2.500000e+00
 TN6aq  C6vq  1 3.950000e-01    2.940000e+00
 TN6aq  C5vq  1 3.950000e-01    2.700000e+00
 TN6aq  C4vq  1 3.950000e-01    2.500000e+00
 TN6aq  C3vq  1 3.950000e-01    2.310000e+00
 TN6aq  C2vq  1 3.950000e-01    2.310000e+00
 TN6aq  C1vq  1 3.950000e-01    2.110000e+00
 TN6aq  X4vq  1 3.950000e-01    2.940000e+00
 TN6aq  X3vq  1 3.950000e-01    2.700000e+00
 TN6aq  X2vq  1 3.950000e-01    2.500000e+00
 TN6aq  X1vq  1 3.950000e-01    2.310000e+00
 TN6aq  C6eq  1 3.950000e-01    2.500000e+00
 TN6aq  C5eq  1 3.950000e-01    2.310000e+00
 TN6aq  C4eq  1 3.950000e-01    2.110000e+00
 TN6aq  C3eq  1 3.950000e-01    1.850000e+00
 TN6aq  C2eq  1 3.950000e-01    1.850000e+00
 TN6aq  C1eq  1 3.950000e-01    1.670000e+00
 TN6aq  X4eq  1 3.950000e-01    2.500000e+00
 TN6aq  X3eq  1 3.950000e-01    2.310000e+00
 TN6aq  X2eq  1 3.950000e-01    2.110000e+00
 TN6aq  X1eq  1 3.950000e-01    1.850000e+00
 TN5aq   N4q  1 3.950000e-01    3.190000e+00
 TN5aq   N3q  1 3.950000e-01    2.940000e+00
 TN5aq   N2q  1 3.950000e-01    2.940000e+00
 TN5aq   N1q  1 3.950000e-01    2.700000e+00
 TN5aq   C6q  1 3.950000e-01    2.700000e+00
 TN5aq   C5q  1 3.950000e-01    2.500000e+00
 TN5aq   C4q  1 3.950000e-01    2.310000e+00
 TN5aq   C3q  1 3.950000e-01    2.310000e+00
 TN5aq   C2q  1 3.950000e-01    2.110000e+00
 TN5aq   C1q  1 3.950000e-01    1.850000e+00
 TN5aq   X4q  1 3.950000e-01    2.940000e+00
 TN5aq   X3q  1 3.950000e-01    2.700000e+00
 TN5aq   X2q  1 3.950000e-01    2.500000e+00
 TN5aq   X1q  1 3.950000e-01    2.310000e+00
 TN5aq  N4dq  1 3.950000e-01    3.430000e+00
 TN5aq  N3dq  1 3.950000e-01    3.190000e+00
 TN5aq  N2dq  1 3.950000e-01    3.190000e+00
 TN5aq  N1dq  1 3.950000e-01    2.940000e+00
 TN5aq  N4aq  1 3.950000e-01    2.940000e+00
 TN5aq  N3aq  1 3.950000e-01    2.700000e+00
 TN5aq  N2aq  1 3.950000e-01    2.700000e+00
 TN5aq  N1aq  1 3.950000e-01    2.500000e+00
 TN5aq  C6vq  1 3.950000e-01    2.940000e+00
 TN5aq  C5vq  1 3.950000e-01    2.700000e+00
 TN5aq  C4vq  1 3.950000e-01    2.500000e+00
 TN5aq  C3vq  1 3.950000e-01    2.500000e+00
 TN5aq  C2vq  1 3.950000e-01    2.310000e+00
 TN5aq  C1vq  1 3.950000e-01    2.110000e+00
 TN5aq  X4vq  1 3.950000e-01    3.190000e+00
 TN5aq  X3vq  1 3.950000e-01    2.940000e+00
 TN5aq  X2vq  1 3.950000e-01    2.700000e+00
 TN5aq  X1vq  1 3.950000e-01    2.500000e+00
 TN5aq  C6eq  1 3.950000e-01    2.500000e+00
 TN5aq  C5eq  1 3.950000e-01    2.310000e+00
 TN5aq  C4eq  1 3.950000e-01    2.110000e+00
 TN5aq  C3eq  1 3.950000e-01    2.110000e+00
 TN5aq  C2eq  1 3.950000e-01    1.850000e+00
 TN5aq  C1eq  1 3.950000e-01    1.670000e+00
 TN5aq  X4eq  1 3.950000e-01    2.700000e+00
 TN5aq  X3eq  1 3.950000e-01    2.500000e+00
 TN5aq  X2eq  1 3.950000e-01    2.310000e+00
 TN5aq  X1eq  1 3.950000e-01    2.110000e+00
 TN4aq   N3q  1 3.950000e-01    2.940000e+00
 TN4aq   N2q  1 3.950000e-01    2.940000e+00
 TN4aq   N1q  1 3.950000e-01    2.700000e+00
 TN4aq   C6q  1 3.950000e-01    2.700000e+00
 TN4aq   C5q  1 3.950000e-01    2.500000e+00
 TN4aq   C4q  1 3.950000e-01    2.500000e+00
 TN4aq   C3q  1 3.950000e-01    2.310000e+00
 TN4aq   C2q  1 3.950000e-01    2.110000e+00
 TN4aq   C1q  1 3.950000e-01    1.850000e+00
 TN4aq   X4q  1 3.950000e-01    3.190000e+00
 TN4aq   X3q  1 3.950000e-01    2.940000e+00
 TN4aq   X2q  1 3.950000e-01    2.500000e+00
 TN4aq   X1q  1 3.950000e-01    2.310000e+00
 TN4aq  N3dq  1 3.950000e-01    3.190000e+00
 TN4aq  N2dq  1 3.950000e-01    3.190000e+00
 TN4aq  N1dq  1 3.950000e-01    2.940000e+00
 TN4aq  N3aq  1 3.950000e-01    2.700000e+00
 TN4aq  N2aq  1 3.950000e-01    2.700000e+00
 TN4aq  N1aq  1 3.950000e-01    2.500000e+00
 TN4aq  C6vq  1 3.950000e-01    2.940000e+00
 TN4aq  C5vq  1 3.950000e-01    2.700000e+00
 TN4aq  C4vq  1 3.950000e-01    2.700000e+00
 TN4aq  C3vq  1 3.950000e-01    2.500000e+00
 TN4aq  C2vq  1 3.950000e-01    2.310000e+00
 TN4aq  C1vq  1 3.950000e-01    2.110000e+00
 TN4aq  X4vq  1 3.950000e-01    3.430000e+00
 TN4aq  X3vq  1 3.950000e-01    3.190000e+00
 TN4aq  X2vq  1 3.950000e-01    2.700000e+00
 TN4aq  X1vq  1 3.950000e-01    2.500000e+00
 TN4aq  C6eq  1 3.950000e-01    2.500000e+00
 TN4aq  C5eq  1 3.950000e-01    2.310000e+00
 TN4aq  C4eq  1 3.950000e-01    2.310000e+00
 TN4aq  C3eq  1 3.950000e-01    2.110000e+00
 TN4aq  C2eq  1 3.950000e-01    1.850000e+00
 TN4aq  C1eq  1 3.950000e-01    1.670000e+00
 TN4aq  X4eq  1 3.950000e-01    2.940000e+00
 TN4aq  X3eq  1 3.950000e-01    2.700000e+00
 TN4aq  X2eq  1 3.950000e-01    2.310000e+00
 TN4aq  X1eq  1 3.950000e-01    2.110000e+00
 TN3aq   N2q  1 3.950000e-01    2.940000e+00
 TN3aq   N1q  1 3.950000e-01    2.700000e+00
 TN3aq   C6q  1 3.950000e-01    2.700000e+00
 TN3aq   C5q  1 3.950000e-01    2.500000e+00
 TN3aq   C4q  1 3.950000e-01    2.500000e+00
 TN3aq   C3q  1 3.950000e-01    2.310000e+00
 TN3aq   C2q  1 3.950000e-01    2.310000e+00
 TN3aq   C1q  1 3.950000e-01    2.110000e+00
 TN3aq   X4q  1 3.950000e-01    2.940000e+00
 TN3aq   X3q  1 3.950000e-01    2.700000e+00
 TN3aq   X2q  1 3.950000e-01    2.500000e+00
 TN3aq   X1q  1 3.950000e-01    2.500000e+00
 TN3aq  N2dq  1 3.950000e-01    3.190000e+00
 TN3aq  N1dq  1 3.950000e-01    2.940000e+00
 TN3aq  N2aq  1 3.950000e-01    2.700000e+00
 TN3aq  N1aq  1 3.950000e-01    2.500000e+00
 TN3aq  C6vq  1 3.950000e-01    2.940000e+00
 TN3aq  C5vq  1 3.950000e-01    2.700000e+00
 TN3aq  C4vq  1 3.950000e-01    2.700000e+00
 TN3aq  C3vq  1 3.950000e-01    2.500000e+00
 TN3aq  C2vq  1 3.950000e-01    2.500000e+00
 TN3aq  C1vq  1 3.950000e-01    2.310000e+00
 TN3aq  X4vq  1 3.950000e-01    3.190000e+00
 TN3aq  X3vq  1 3.950000e-01    2.940000e+00
 TN3aq  X2vq  1 3.950000e-01    2.700000e+00
 TN3aq  X1vq  1 3.950000e-01    2.700000e+00
 TN3aq  C6eq  1 3.950000e-01    2.500000e+00
 TN3aq  C5eq  1 3.950000e-01    2.310000e+00
 TN3aq  C4eq  1 3.950000e-01    2.310000e+00
 TN3aq  C3eq  1 3.950000e-01    2.110000e+00
 TN3aq  C2eq  1 3.950000e-01    2.110000e+00
 TN3aq  C1eq  1 3.950000e-01    1.850000e+00
 TN3aq  X4eq  1 3.950000e-01    2.700000e+00
 TN3aq  X3eq  1 3.950000e-01    2.500000e+00
 TN3aq  X2eq  1 3.950000e-01    2.310000e+00
 TN3aq  X1eq  1 3.950000e-01    2.310000e+00
 TN2aq   N1q  1 3.950000e-01    2.700000e+00
 TN2aq   C6q  1 3.950000e-01    2.700000e+00
 TN2aq   C5q  1 3.950000e-01    2.500000e+00
 TN2aq   C4q  1 3.950000e-01    2.500000e+00
 TN2aq   C3q  1 3.950000e-01    2.500000e+00
 TN2aq   C2q  1 3.950000e-01    2.310000e+00
 TN2aq   C1q  1 3.950000e-01    2.110000e+00
 TN2aq   X4q  1 3.950000e-01    2.940000e+00
 TN2aq   X3q  1 3.950000e-01    2.700000e+00
 TN2aq   X2q  1 3.950000e-01    2.500000e+00
 TN2aq   X1q  1 3.950000e-01    2.500000e+00
 TN2aq  N1dq  1 3.950000e-01    2.940000e+00
 TN2aq  N1aq  1 3.950000e-01    2.500000e+00
 TN2aq  C6vq  1 3.950000e-01    2.940000e+00
 TN2aq  C5vq  1 3.950000e-01    2.700000e+00
 TN2aq  C4vq  1 3.950000e-01    2.700000e+00
 TN2aq  C3vq  1 3.950000e-01    2.700000e+00
 TN2aq  C2vq  1 3.950000e-01    2.500000e+00
 TN2aq  C1vq  1 3.950000e-01    2.310000e+00
 TN2aq  X4vq  1 3.950000e-01    3.190000e+00
 TN2aq  X3vq  1 3.950000e-01    2.940000e+00
 TN2aq  X2vq  1 3.950000e-01    2.700000e+00
 TN2aq  X1vq  1 3.950000e-01    2.700000e+00
 TN2aq  C6eq  1 3.950000e-01    2.500000e+00
 TN2aq  C5eq  1 3.950000e-01    2.310000e+00
 TN2aq  C4eq  1 3.950000e-01    2.310000e+00
 TN2aq  C3eq  1 3.950000e-01    2.310000e+00
 TN2aq  C2eq  1 3.950000e-01    2.110000e+00
 TN2aq  C1eq  1 3.950000e-01    1.850000e+00
 TN2aq  X4eq  1 3.950000e-01    2.700000e+00
 TN2aq  X3eq  1 3.950000e-01    2.500000e+00
 TN2aq  X2eq  1 3.950000e-01    2.310000e+00
 TN2aq  X1eq  1 3.950000e-01    2.310000e+00
 TN1aq   C6q  1 3.950000e-01    2.940000e+00
 TN1aq   C5q  1 3.950000e-01    2.700000e+00
 TN1aq   C4q  1 3.950000e-01    2.700000e+00
 TN1aq   C3q  1 3.950000e-01    2.500000e+00
 TN1aq   C2q  1 3.950000e-01    2.310000e+00
 TN1aq   C1q  1 3.950000e-01    2.110000e+00
 TN1aq   X4q  1 3.950000e-01    2.700000e+00
 TN1aq   X3q  1 3.950000e-01    2.700000e+00
 TN1aq   X2q  1 3.950000e-01    2.500000e+00
 TN1aq   X1q  1 3.950000e-01    2.500000e+00
 TN1aq  C6vq  1 3.950000e-01    3.190000e+00
 TN1aq  C5vq  1 3.950000e-01    2.940000e+00
 TN1aq  C4vq  1 3.950000e-01    2.940000e+00
 TN1aq  C3vq  1 3.950000e-01    2.700000e+00
 TN1aq  C2vq  1 3.950000e-01    2.500000e+00
 TN1aq  C1vq  1 3.950000e-01    2.310000e+00
 TN1aq  X4vq  1 3.950000e-01    2.940000e+00
 TN1aq  X3vq  1 3.950000e-01    2.940000e+00
 TN1aq  X2vq  1 3.950000e-01    2.700000e+00
 TN1aq  X1vq  1 3.950000e-01    2.700000e+00
 TN1aq  C6eq  1 3.950000e-01    2.700000e+00
 TN1aq  C5eq  1 3.950000e-01    2.500000e+00
 TN1aq  C4eq  1 3.950000e-01    2.500000e+00
 TN1aq  C3eq  1 3.950000e-01    2.310000e+00
 TN1aq  C2eq  1 3.950000e-01    2.110000e+00
 TN1aq  C1eq  1 3.950000e-01    1.850000e+00
 TN1aq  X4eq  1 3.950000e-01    2.500000e+00
 TN1aq  X3eq  1 3.950000e-01    2.500000e+00
 TN1aq  X2eq  1 3.950000e-01    2.310000e+00
 TN1aq  X1eq  1 3.950000e-01    2.310000e+00
 TC6vq   C5q  1 3.950000e-01    2.940000e+00
 TC6vq   C4q  1 3.950000e-01    2.940000e+00
 TC6vq   C3q  1 3.950000e-01    2.700000e+00
 TC6vq   C2q  1 3.950000e-01    2.500000e+00
 TC6vq   C1q  1 3.950000e-01    2.310000e+00
 TC6vq   X4q  1 3.950000e-01    2.940000e+00
 TC6vq   X3q  1 3.950000e-01    2.940000e+00
 TC6vq   X2q  1 3.950000e-01    2.940000e+00
 TC6vq   X1q  1 3.950000e-01    2.940000e+00
 TC6vq  C5vq  1 3.950000e-01    2.500000e+00
 TC6vq  C4vq  1 3.950000e-01    2.500000e+00
 TC6vq  C3vq  1 3.950000e-01    2.310000e+00
 TC6vq  C2vq  1 3.950000e-01    2.110000e+00
 TC6vq  C1vq  1 3.950000e-01    1.850000e+00
 TC6vq  X4vq  1 3.950000e-01    2.500000e+00
 TC6vq  X3vq  1 3.950000e-01    2.500000e+00
 TC6vq  X2vq  1 3.950000e-01    2.500000e+00
 TC6vq  X1vq  1 3.950000e-01    2.500000e+00
 TC6vq  C6eq  1 3.950000e-01    3.430000e+00
 TC6vq  C5eq  1 3.950000e-01    3.190000e+00
 TC6vq  C4eq  1 3.950000e-01    3.190000e+00
 TC6vq  C3eq  1 3.950000e-01    2.940000e+00
 TC6vq  C2eq  1 3.950000e-01    2.700000e+00
 TC6vq  C1eq  1 3.950000e-01    2.500000e+00
 TC6vq  X4eq  1 3.950000e-01    3.190000e+00
 TC6vq  X3eq  1 3.950000e-01    3.190000e+00
 TC6vq  X2eq  1 3.950000e-01    3.190000e+00
 TC6vq  X1eq  1 3.950000e-01    3.190000e+00
 TC5vq   C4q  1 3.950000e-01    2.940000e+00
 TC5vq   C3q  1 3.950000e-01    2.700000e+00
 TC5vq   C2q  1 3.950000e-01    2.500000e+00
 TC5vq   C1q  1 3.950000e-01    2.500000e+00
 TC5vq   X4q  1 3.950000e-01    2.700000e+00
 TC5vq   X3q  1 3.950000e-01    2.700000e+00
 TC5vq   X2q  1 3.950000e-01    2.700000e+00
 TC5vq   X1q  1 3.950000e-01    2.940000e+00
 TC5vq  C4vq  1 3.950000e-01    2.500000e+00
 TC5vq  C3vq  1 3.950000e-01    2.310000e+00
 TC5vq  C2vq  1 3.950000e-01    2.110000e+00
 TC5vq  C1vq  1 3.950000e-01    2.110000e+00
 TC5vq  X4vq  1 3.950000e-01    2.310000e+00
 TC5vq  X3vq  1 3.950000e-01    2.310000e+00
 TC5vq  X2vq  1 3.950000e-01    2.310000e+00
 TC5vq  X1vq  1 3.950000e-01    2.500000e+00
 TC5vq  C5eq  1 3.950000e-01    3.190000e+00
 TC5vq  C4eq  1 3.950000e-01    3.190000e+00
 TC5vq  C3eq  1 3.950000e-01    2.940000e+00
 TC5vq  C2eq  1 3.950000e-01    2.700000e+00
 TC5vq  C1eq  1 3.950000e-01    2.700000e+00
 TC5vq  X4eq  1 3.950000e-01    2.940000e+00
 TC5vq  X3eq  1 3.950000e-01    2.940000e+00
 TC5vq  X2eq  1 3.950000e-01    2.940000e+00
 TC5vq  X1eq  1 3.950000e-01    3.190000e+00
 TC4vq   C3q  1 3.950000e-01    2.940000e+00
 TC4vq   C2q  1 3.950000e-01    2.700000e+00
 TC4vq   C1q  1 3.950000e-01    2.500000e+00
 TC4vq   X4q  1 3.950000e-01    2.700000e+00
 TC4vq   X3q  1 3.950000e-01    2.700000e+00
 TC4vq   X2q  1 3.950000e-01    2.700000e+00
 TC4vq   X1q  1 3.950000e-01    2.940000e+00
 TC4vq  C3vq  1 3.950000e-01    2.500000e+00
 TC4vq  C2vq  1 3.950000e-01    2.310000e+00
 TC4vq  C1vq  1 3.950000e-01    2.110000e+00
 TC4vq  X4vq  1 3.950000e-01    2.310000e+00
 TC4vq  X3vq  1 3.950000e-01    2.310000e+00
 TC4vq  X2vq  1 3.950000e-01    2.310000e+00
 TC4vq  X1vq  1 3.950000e-01    2.500000e+00
 TC4vq  C4eq  1 3.950000e-01    3.190000e+00
 TC4vq  C3eq  1 3.950000e-01    3.190000e+00
 TC4vq  C2eq  1 3.950000e-01    2.940000e+00
 TC4vq  C1eq  1 3.950000e-01    2.700000e+00
 TC4vq  X4eq  1 3.950000e-01    2.940000e+00
 TC4vq  X3eq  1 3.950000e-01    2.940000e+00
 TC4vq  X2eq  1 3.950000e-01    2.940000e+00
 TC4vq  X1eq  1 3.950000e-01    3.190000e+00
 TC3vq   C2q  1 3.950000e-01    2.940000e+00
 TC3vq   C1q  1 3.950000e-01    2.940000e+00
 TC3vq   X4q  1 3.950000e-01    2.700000e+00
 TC3vq   X3q  1 3.950000e-01    2.700000e+00
 TC3vq   X2q  1 3.950000e-01    2.700000e+00
 TC3vq   X1q  1 3.950000e-01    2.940000e+00
 TC3vq  C2vq  1 3.950000e-01    2.500000e+00
 TC3vq  C1vq  1 3.950000e-01    2.500000e+00
 TC3vq  X4vq  1 3.950000e-01    2.310000e+00
 TC3vq  X3vq  1 3.950000e-01    2.310000e+00
 TC3vq  X2vq  1 3.950000e-01    2.310000e+00
 TC3vq  X1vq  1 3.950000e-01    2.500000e+00
 TC3vq  C3eq  1 3.950000e-01    3.190000e+00
 TC3vq  C2eq  1 3.950000e-01    3.190000e+00
 TC3vq  C1eq  1 3.950000e-01    3.190000e+00
 TC3vq  X4eq  1 3.950000e-01    2.940000e+00
 TC3vq  X3eq  1 3.950000e-01    2.940000e+00
 TC3vq  X2eq  1 3.950000e-01    2.940000e+00
 TC3vq  X1eq  1 3.950000e-01    3.190000e+00
 TC2vq   C1q  1 3.950000e-01    3.190000e+00
 TC2vq   X4q  1 3.950000e-01    2.310000e+00
 TC2vq   X3q  1 3.950000e-01    2.700000e+00
 TC2vq   X2q  1 3.950000e-01    2.700000e+00
 TC2vq   X1q  1 3.950000e-01    2.700000e+00
 TC2vq  C1vq  1 3.950000e-01    2.700000e+00
 TC2vq  X4vq  1 3.950000e-01    1.850000e+00
 TC2vq  X3vq  1 3.950000e-01    2.310000e+00
 TC2vq  X2vq  1 3.950000e-01    2.310000e+00
 TC2vq  X1vq  1 3.950000e-01    2.310000e+00
 TC2vq  C2eq  1 3.950000e-01    3.190000e+00
 TC2vq  C1eq  1 3.950000e-01    3.430000e+00
 TC2vq  X4eq  1 3.950000e-01    2.500000e+00
 TC2vq  X3eq  1 3.950000e-01    2.940000e+00
 TC2vq  X2eq  1 3.950000e-01    2.940000e+00
 TC2vq  X1eq  1 3.950000e-01    2.940000e+00
 TC1vq   X4q  1 3.950000e-01    2.310000e+00
 TC1vq   X3q  1 3.950000e-01    2.700000e+00
 TC1vq   X2q  1 3.950000e-01    2.700000e+00
 TC1vq   X1q  1 3.950000e-01    2.700000e+00
 TC1vq  X4vq  1 3.950000e-01    1.850000e+00
 TC1vq  X3vq  1 3.950000e-01    2.310000e+00
 TC1vq  X2vq  1 3.950000e-01    2.310000e+00
 TC1vq  X1vq  1 3.950000e-01    2.310000e+00
 TC1vq  C1eq  1 3.950000e-01    3.190000e+00
 TC1vq  X4eq  1 3.950000e-01    2.500000e+00
 TC1vq  X3eq  1 3.950000e-01    2.940000e+00
 TC1vq  X2eq  1 3.950000e-01    2.940000e+00
 TC1vq  X1eq  1 3.950000e-01    2.940000e+00
 TX4vq   X3q  1 3.950000e-01    2.940000e+00
 TX4vq   X2q  1 3.950000e-01    2.940000e+00
 TX4vq   X1q  1 3.950000e-01    2.940000e+00
 TX4vq  X3vq  1 3.950000e-01    2.500000e+00
 TX4vq  X2vq  1 3.950000e-01    2.500000e+00
 TX4vq  X1vq  1 3.950000e-01    2.500000e+00
 TX4vq  X4eq  1 3.950000e-01    3.190000e+00
 TX4vq  X3eq  1 3.950000e-01    3.190000e+00
 TX4vq  X2eq  1 3.950000e-01    3.190000e+00
 TX4vq  X1eq  1 3.950000e-01    3.190000e+00
 TX3vq   X2q  1 3.950000e-01    3.190000e+00
 TX3vq   X1q  1 3.950000e-01    3.190000e+00
 TX3vq  X2vq  1 3.950000e-01    2.700000e+00
 TX3vq  X1vq  1 3.950000e-01    2.700000e+00
 TX3vq  X3eq  1 3.950000e-01    3.190000e+00
 TX3vq  X2eq  1 3.950000e-01    3.430000e+00
 TX3vq  X1eq  1 3.950000e-01    3.430000e+00
 TX2vq   X1q  1 3.950000e-01    3.190000e+00
 TX2vq  X1vq  1 3.950000e-01    2.700000e+00
 TX2vq  X2eq  1 3.950000e-01    3.430000e+00
 TX2vq  X1eq  1 3.950000e-01    3.430000e+00
 TX1vq  X1eq  1 3.950000e-01    3.670000e+00
 TC6eq   C5q  1 3.950000e-01    2.940000e+00
 TC6eq   C4q  1 3.950000e-01    2.940000e+00
 TC6eq   C3q  1 3.950000e-01    2.700000e+00
 TC6eq   C2q  1 3.950000e-01    2.500000e+00
 TC6eq   C1q  1 3.950000e-01    2.310000e+00
 TC6eq   X4q  1 3.950000e-01    2.940000e+00
 TC6eq   X3q  1 3.950000e-01    2.940000e+00
 TC6eq   X2q  1 3.950000e-01    2.940000e+00
 TC6eq   X1q  1 3.950000e-01    2.940000e+00
 TC6eq  C5vq  1 3.950000e-01    3.190000e+00
 TC6eq  C4vq  1 3.950000e-01    3.190000e+00
 TC6eq  C3vq  1 3.950000e-01    2.940000e+00
 TC6eq  C2vq  1 3.950000e-01    2.700000e+00
 TC6eq  C1vq  1 3.950000e-01    2.500000e+00
 TC6eq  X4vq  1 3.950000e-01    3.190000e+00
 TC6eq  X3vq  1 3.950000e-01    3.190000e+00
 TC6eq  X2vq  1 3.950000e-01    3.190000e+00
 TC6eq  X1vq  1 3.950000e-01    3.190000e+00
 TC6eq  C5eq  1 3.950000e-01    2.500000e+00
 TC6eq  C4eq  1 3.950000e-01    2.500000e+00
 TC6eq  C3eq  1 3.950000e-01    2.310000e+00
 TC6eq  C2eq  1 3.950000e-01    2.110000e+00
 TC6eq  C1eq  1 3.950000e-01    1.850000e+00
 TC6eq  X4eq  1 3.950000e-01    2.500000e+00
 TC6eq  X3eq  1 3.950000e-01    2.500000e+00
 TC6eq  X2eq  1 3.950000e-01    2.500000e+00
 TC6eq  X1eq  1 3.950000e-01    2.500000e+00
 TC5eq   C4q  1 3.950000e-01    2.940000e+00
 TC5eq   C3q  1 3.950000e-01    2.700000e+00
 TC5eq   C2q  1 3.950000e-01    2.500000e+00
 TC5eq   C1q  1 3.950000e-01    2.500000e+00
 TC5eq   X4q  1 3.950000e-01    2.700000e+00
 TC5eq   X3q  1 3.950000e-01    2.700000e+00
 TC5eq   X2q  1 3.950000e-01    2.700000e+00
 TC5eq   X1q  1 3.950000e-01    2.940000e+00
 TC5eq  C4vq  1 3.950000e-01    3.190000e+00
 TC5eq  C3vq  1 3.950000e-01    2.940000e+00
 TC5eq  C2vq  1 3.950000e-01    2.700000e+00
 TC5eq  C1vq  1 3.950000e-01    2.700000e+00
 TC5eq  X4vq  1 3.950000e-01    2.940000e+00
 TC5eq  X3vq  1 3.950000e-01    2.940000e+00
 TC5eq  X2vq  1 3.950000e-01    2.940000e+00
 TC5eq  X1vq  1 3.950000e-01    3.190000e+00
 TC5eq  C4eq  1 3.950000e-01    2.500000e+00
 TC5eq  C3eq  1 3.950000e-01    2.310000e+00
 TC5eq  C2eq  1 3.950000e-01    2.110000e+00
 TC5eq  C1eq  1 3.950000e-01    2.110000e+00
 TC5eq  X4eq  1 3.950000e-01    2.310000e+00
 TC5eq  X3eq  1 3.950000e-01    2.310000e+00
 TC5eq  X2eq  1 3.950000e-01    2.310000e+00
 TC5eq  X1eq  1 3.950000e-01    2.500000e+00
 TC4eq   C3q  1 3.950000e-01    2.940000e+00
 TC4eq   C2q  1 3.950000e-01    2.700000e+00
 TC4eq   C1q  1 3.950000e-01    2.500000e+00
 TC4eq   X4q  1 3.950000e-01    2.700000e+00
 TC4eq   X3q  1 3.950000e-01    2.700000e+00
 TC4eq   X2q  1 3.950000e-01    2.700000e+00
 TC4eq   X1q  1 3.950000e-01    2.940000e+00
 TC4eq  C3vq  1 3.950000e-01    3.190000e+00
 TC4eq  C2vq  1 3.950000e-01    2.940000e+00
 TC4eq  C1vq  1 3.950000e-01    2.700000e+00
 TC4eq  X4vq  1 3.950000e-01    2.940000e+00
 TC4eq  X3vq  1 3.950000e-01    2.940000e+00
 TC4eq  X2vq  1 3.950000e-01    2.940000e+00
 TC4eq  X1vq  1 3.950000e-01    3.190000e+00
 TC4eq  C3eq  1 3.950000e-01    2.500000e+00
 TC4eq  C2eq  1 3.950000e-01    2.310000e+00
 TC4eq  C1eq  1 3.950000e-01    2.110000e+00
 TC4eq  X4eq  1 3.950000e-01    2.310000e+00
 TC4eq  X3eq  1 3.950000e-01    2.310000e+00
 TC4eq  X2eq  1 3.950000e-01    2.310000e+00
 TC4eq  X1eq  1 3.950000e-01    2.500000e+00
 TC3eq   C2q  1 3.950000e-01    2.940000e+00
 TC3eq   C1q  1 3.950000e-01    2.940000e+00
 TC3eq   X4q  1 3.950000e-01    2.700000e+00
 TC3eq   X3q  1 3.950000e-01    2.700000e+00
 TC3eq   X2q  1 3.950000e-01    2.700000e+00
 TC3eq   X1q  1 3.950000e-01    2.940000e+00
 TC3eq  C2vq  1 3.950000e-01    3.190000e+00
 TC3eq  C1vq  1 3.950000e-01    3.190000e+00
 TC3eq  X4vq  1 3.950000e-01    2.940000e+00
 TC3eq  X3vq  1 3.950000e-01    2.940000e+00
 TC3eq  X2vq  1 3.950000e-01    2.940000e+00
 TC3eq  X1vq  1 3.950000e-01    3.190000e+00
 TC3eq  C2eq  1 3.950000e-01    2.500000e+00
 TC3eq  C1eq  1 3.950000e-01    2.500000e+00
 TC3eq  X4eq  1 3.950000e-01    2.310000e+00
 TC3eq  X3eq  1 3.950000e-01    2.310000e+00
 TC3eq  X2eq  1 3.950000e-01    2.310000e+00
 TC3eq  X1eq  1 3.950000e-01    2.500000e+00
 TC2eq   C1q  1 3.950000e-01    3.190000e+00
 TC2eq   X4q  1 3.950000e-01    2.310000e+00
 TC2eq   X3q  1 3.950000e-01    2.700000e+00
 TC2eq   X2q  1 3.950000e-01    2.700000e+00
 TC2eq   X1q  1 3.950000e-01    2.700000e+00
 TC2eq  C1vq  1 3.950000e-01    3.430000e+00
 TC2eq  X4vq  1 3.950000e-01    2.500000e+00
 TC2eq  X3vq  1 3.950000e-01    2.940000e+00
 TC2eq  X2vq  1 3.950000e-01    2.940000e+00
 TC2eq  X1vq  1 3.950000e-01    2.940000e+00
 TC2eq  C1eq  1 3.950000e-01    2.700000e+00
 TC2eq  X4eq  1 3.950000e-01    1.850000e+00
 TC2eq  X3eq  1 3.950000e-01    2.310000e+00
 TC2eq  X2eq  1 3.950000e-01    2.310000e+00
 TC2eq  X1eq  1 3.950000e-01    2.310000e+00
 TC1eq   X4q  1 3.950000e-01    2.310000e+00
 TC1eq   X3q  1 3.950000e-01    2.700000e+00
 TC1eq   X2q  1 3.950000e-01    2.700000e+00
 TC1eq   X1q  1 3.950000e-01    2.700000e+00
 TC1eq  X4vq  1 3.950000e-01    2.500000e+00
 TC1eq  X3vq  1 3.950000e-01    2.940000e+00
 TC1eq  X2vq  1 3.950000e-01    2.940000e+00
 TC1eq  X1vq  1 3.950000e-01    2.940000e+00
 TC1eq  X4eq  1 3.950000e-01    1.850000e+00
 TC1eq  X3eq  1 3.950000e-01    2.310000e+00
 TC1eq  X2eq  1 3.950000e-01    2.310000e+00
 TC1eq  X1eq  1 3.950000e-01    2.310000e+00
 TX4eq   X3q  1 3.950000e-01    2.940000e+00
 TX4eq   X2q  1 3.950000e-01    2.940000e+00
 TX4eq   X1q  1 3.950000e-01    2.940000e+00
 TX4eq  X3vq  1 3.950000e-01    3.190000e+00
 TX4eq  X2vq  1 3.950000e-01    3.190000e+00
 TX4eq  X1vq  1 3.950000e-01    3.190000e+00
 TX4eq  X3eq  1 3.950000e-01    2.500000e+00
 TX4eq  X2eq  1 3.950000e-01    2.500000e+00
 TX4eq  X1eq  1 3.950000e-01    2.500000e+00
 TX3eq   X2q  1 3.950000e-01    3.190000e+00
 TX3eq   X1q  1 3.950000e-01    3.190000e+00
 TX3eq  X2vq  1 3.950000e-01    3.430000e+00
 TX3eq  X1vq  1 3.950000e-01    3.430000e+00
 TX3eq  X2eq  1 3.950000e-01    2.700000e+00
 TX3eq  X1eq  1 3.950000e-01    2.700000e+00
 TX2eq   X1q  1 3.950000e-01    3.190000e+00
 TX2eq  X1vq  1 3.950000e-01    3.430000e+00
 TX2eq  X1eq  1 3.950000e-01    2.700000e+00
  TP6h   P6d  1 3.950000e-01    4.230000e+00
  TP6h   N1d  1 3.950000e-01    1.670000e+00
  TP6h   N2d  1 3.950000e-01    1.850000e+00
  TP6h   N3d  1 3.950000e-01    2.110000e+00
  TP6h   N4d  1 3.950000e-01    2.310000e+00
  TP6h   N5d  1 3.950000e-01    2.500000e+00
  TP6h   N6d  1 3.950000e-01    2.940000e+00
  TP6h   P1d  1 3.950000e-01    3.190000e+00
  TP6h   P2d  1 3.950000e-01    3.430000e+00
  TP6h   P3d  1 3.950000e-01    3.430000e+00
  TP6h   P4d  1 3.950000e-01    3.670000e+00
  TP6h   P5d  1 3.950000e-01    3.910000e+00
  TP6h   P6a  1 3.950000e-01    4.230000e+00
  TP6h   N1a  1 3.950000e-01    1.670000e+00
  TP6h   N2a  1 3.950000e-01    1.850000e+00
  TP6h   N3a  1 3.950000e-01    2.110000e+00
  TP6h   N4a  1 3.950000e-01    2.310000e+00
  TP6h   N5a  1 3.950000e-01    2.500000e+00
  TP6h   N6a  1 3.950000e-01    2.940000e+00
  TP6h   P1a  1 3.950000e-01    3.190000e+00
  TP6h   P2a  1 3.950000e-01    3.430000e+00
  TP6h   P3a  1 3.950000e-01    3.430000e+00
  TP6h   P4a  1 3.950000e-01    3.670000e+00
  TP6h   P5a  1 3.950000e-01    3.910000e+00
  TP6h   C6v  1 3.950000e-01    1.850000e+00
  TP6h   C5v  1 3.950000e-01    1.670000e+00
  TP6h   C4v  1 3.980000e-01    1.450000e+00
  TP6h   C3v  1 3.990000e-01    1.180000e+00
  TP6h   C2v  1 3.990000e-01    1.180000e+00
  TP6h   C1v  1 4.040000e-01    8.300000e-01
  TP6h   X4v  1 3.950000e-01    2.110000e+00
  TP6h   X3v  1 3.950000e-01    2.110000e+00
  TP6h   X2v  1 3.950000e-01    1.850000e+00
  TP6h   X1v  1 3.950000e-01    1.670000e+00
  TP6h   C6e  1 3.950000e-01    1.850000e+00
  TP6h   C5e  1 3.950000e-01    1.670000e+00
  TP6h   C4e  1 3.980000e-01    1.450000e+00
  TP6h   C3e  1 3.990000e-01    1.180000e+00
  TP6h   C2e  1 3.990000e-01    1.180000e+00
  TP6h   C1e  1 4.040000e-01    8.300000e-01
  TP6h   X4e  1 3.950000e-01    2.110000e+00
  TP6h   X3e  1 3.950000e-01    2.110000e+00
  TP6h   X2e  1 3.950000e-01    1.850000e+00
  TP6h   X1e  1 3.950000e-01    1.670000e+00
  TP6h   P6q  1 3.950000e-01    4.870000e+00
  TP6h  X1eq  1 3.950000e-01    2.110000e+00
  TP6h  X2eq  1 3.950000e-01    2.310000e+00
  TP6h  X3eq  1 3.950000e-01    2.500000e+00
  TP6h  X4eq  1 3.950000e-01    2.500000e+00
  TP6h  C1eq  1 3.990000e-01    1.180000e+00
  TP6h  C2eq  1 3.950000e-01    1.670000e+00
  TP6h  C3eq  1 3.950000e-01    1.670000e+00
  TP6h  C4eq  1 3.950000e-01    1.850000e+00
  TP6h  C5eq  1 3.950000e-01    2.110000e+00
  TP6h  C6eq  1 3.950000e-01    2.310000e+00
  TP6h  X1vq  1 3.950000e-01    2.110000e+00
  TP6h  X2vq  1 3.950000e-01    2.310000e+00
  TP6h  X3vq  1 3.950000e-01    2.500000e+00
  TP6h  X4vq  1 3.950000e-01    2.500000e+00
  TP6h  C1vq  1 3.990000e-01    1.180000e+00
  TP6h  C2vq  1 3.950000e-01    1.670000e+00
  TP6h  C3vq  1 3.950000e-01    1.670000e+00
  TP6h  C4vq  1 3.950000e-01    1.850000e+00
  TP6h  C5vq  1 3.950000e-01    2.110000e+00
  TP6h  C6vq  1 3.950000e-01    2.310000e+00
  TP6h  N1aq  1 3.950000e-01    2.110000e+00
  TP6h  N2aq  1 3.950000e-01    2.310000e+00
  TP6h  N3aq  1 3.950000e-01    2.500000e+00
  TP6h  N4aq  1 3.950000e-01    2.700000e+00
  TP6h  N5aq  1 3.950000e-01    2.940000e+00
  TP6h  N6aq  1 3.950000e-01    3.430000e+00
  TP6h  P1aq  1 3.950000e-01    3.670000e+00
  TP6h  P2aq  1 3.950000e-01    3.910000e+00
  TP6h  P3aq  1 3.950000e-01    3.910000e+00
  TP6h  P4aq  1 3.950000e-01    4.230000e+00
  TP6h  P5aq  1 3.950000e-01    4.540000e+00
  TP6h  P6aq  1 3.950000e-01    4.870000e+00
  TP6h  N1dq  1 3.950000e-01    2.110000e+00
  TP6h  N2dq  1 3.950000e-01    2.310000e+00
  TP6h  N3dq  1 3.950000e-01    2.500000e+00
  TP6h  N4dq  1 3.950000e-01    2.700000e+00
  TP6h  N5dq  1 3.950000e-01    2.940000e+00
  TP6h  N6dq  1 3.950000e-01    3.430000e+00
  TP6h  P1dq  1 3.950000e-01    3.670000e+00
  TP6h  P2dq  1 3.950000e-01    3.910000e+00
  TP6h  P3dq  1 3.950000e-01    3.910000e+00
  TP6h  P4dq  1 3.950000e-01    4.230000e+00
  TP6h  P5dq  1 3.950000e-01    4.540000e+00
  TP6h  P6dq  1 3.950000e-01    4.870000e+00
  TP6h   X1q  1 3.950000e-01    1.850000e+00
  TP6h   X2q  1 3.950000e-01    2.110000e+00
  TP6h   X3q  1 3.950000e-01    2.310000e+00
  TP6h   X4q  1 3.950000e-01    2.310000e+00
  TP6h   C1q  1 4.010000e-01    9.830000e-01
  TP6h   C2q  1 3.980000e-01    1.450000e+00
  TP6h   C3q  1 3.980000e-01    1.450000e+00
  TP6h   C4q  1 3.950000e-01    1.670000e+00
  TP6h   C5q  1 3.950000e-01    1.850000e+00
  TP6h   C6q  1 3.950000e-01    2.110000e+00
  TP6h   N1q  1 3.950000e-01    2.110000e+00
  TP6h   N2q  1 3.950000e-01    2.310000e+00
  TP6h   N3q  1 3.950000e-01    2.500000e+00
  TP6h   N4q  1 3.950000e-01    2.700000e+00
  TP6h   N5q  1 3.950000e-01    2.940000e+00
  TP6h   N6q  1 3.950000e-01    3.430000e+00
  TP6h   P1q  1 3.950000e-01    3.670000e+00
  TP6h   P2q  1 3.950000e-01    3.910000e+00
  TP6h   P3q  1 3.950000e-01    3.910000e+00
  TP6h   P4q  1 3.950000e-01    4.230000e+00
  TP6h   P5q  1 3.950000e-01    4.540000e+00
  TP6d   P5h  1 3.950000e-01    3.910000e+00
  TP5h   P5d  1 3.950000e-01    3.670000e+00
  TP5h   N1d  1 3.950000e-01    1.670000e+00
  TP5h   N2d  1 3.950000e-01    1.850000e+00
  TP5h   N3d  1 3.950000e-01    2.110000e+00
  TP5h   N4d  1 3.950000e-01    2.500000e+00
  TP5h   N5d  1 3.950000e-01    2.500000e+00
  TP5h   N6d  1 3.950000e-01    2.700000e+00
  TP5h   P1d  1 3.950000e-01    2.940000e+00
  TP5h   P2d  1 3.950000e-01    3.190000e+00
  TP5h   P3d  1 3.950000e-01    3.190000e+00
  TP5h   P4d  1 3.950000e-01    3.430000e+00
  TP6a   P5h  1 3.950000e-01    3.910000e+00
  TP5h   P5a  1 3.950000e-01    3.670000e+00
  TP5h   N1a  1 3.950000e-01    1.670000e+00
  TP5h   N2a  1 3.950000e-01    1.850000e+00
  TP5h   N3a  1 3.950000e-01    2.110000e+00
  TP5h   N4a  1 3.950000e-01    2.500000e+00
  TP5h   N5a  1 3.950000e-01    2.500000e+00
  TP5h   N6a  1 3.950000e-01    2.700000e+00
  TP5h   P1a  1 3.950000e-01    2.940000e+00
  TP5h   P2a  1 3.950000e-01    3.190000e+00
  TP5h   P3a  1 3.950000e-01    3.190000e+00
  TP5h   P4a  1 3.950000e-01    3.430000e+00
  TP5h   C6v  1 3.950000e-01    1.850000e+00
  TP5h   C5v  1 3.950000e-01    1.850000e+00
  TP5h   C4v  1 3.950000e-01    1.670000e+00
  TP5h   C3v  1 3.980000e-01    1.450000e+00
  TP5h   C2v  1 3.980000e-01    1.450000e+00
  TP5h   C1v  1 3.990000e-01    1.180000e+00
  TP5h   X4v  1 3.950000e-01    2.310000e+00
  TP5h   X3v  1 3.950000e-01    2.110000e+00
  TP5h   X2v  1 3.950000e-01    2.110000e+00
  TP5h   X1v  1 3.950000e-01    1.670000e+00
  TP5h   C6e  1 3.950000e-01    1.850000e+00
  TP5h   C5e  1 3.950000e-01    1.850000e+00
  TP5h   C4e  1 3.950000e-01    1.670000e+00
  TP5h   C3e  1 3.980000e-01    1.450000e+00
  TP5h   C2e  1 3.980000e-01    1.450000e+00
  TP5h   C1e  1 3.990000e-01    1.180000e+00
  TP5h   X4e  1 3.950000e-01    2.310000e+00
  TP5h   X3e  1 3.950000e-01    2.110000e+00
  TP5h   X2e  1 3.950000e-01    2.110000e+00
  TP5h   X1e  1 3.950000e-01    1.670000e+00
  TP6q   P5h  1 3.950000e-01    4.540000e+00
  TP5h   P5q  1 3.950000e-01    4.230000e+00
  TP5h  X1eq  1 3.950000e-01    2.110000e+00
  TP5h  X2eq  1 3.950000e-01    2.500000e+00
  TP5h  X3eq  1 3.950000e-01    2.500000e+00
  TP5h  X4eq  1 3.950000e-01    2.700000e+00
  TP5h  C1eq  1 3.950000e-01    1.670000e+00
  TP5h  C2eq  1 3.950000e-01    1.850000e+00
  TP5h  C3eq  1 3.950000e-01    1.850000e+00
  TP5h  C4eq  1 3.950000e-01    2.110000e+00
  TP5h  C5eq  1 3.950000e-01    2.310000e+00
  TP5h  C6eq  1 3.950000e-01    2.310000e+00
  TP5h  X1vq  1 3.950000e-01    2.110000e+00
  TP5h  X2vq  1 3.950000e-01    2.500000e+00
  TP5h  X3vq  1 3.950000e-01    2.500000e+00
  TP5h  X4vq  1 3.950000e-01    2.700000e+00
  TP5h  C1vq  1 3.950000e-01    1.670000e+00
  TP5h  C2vq  1 3.950000e-01    1.850000e+00
  TP5h  C3vq  1 3.950000e-01    1.850000e+00
  TP5h  C4vq  1 3.950000e-01    2.110000e+00
  TP5h  C5vq  1 3.950000e-01    2.310000e+00
  TP5h  C6vq  1 3.950000e-01    2.310000e+00
  TP5h  N1aq  1 3.950000e-01    2.110000e+00
  TP5h  N2aq  1 3.950000e-01    2.310000e+00
  TP5h  N3aq  1 3.950000e-01    2.500000e+00
  TP5h  N4aq  1 3.950000e-01    2.940000e+00
  TP5h  N5aq  1 3.950000e-01    2.940000e+00
  TP5h  N6aq  1 3.950000e-01    3.190000e+00
  TP5h  P1aq  1 3.950000e-01    3.430000e+00
  TP5h  P2aq  1 3.950000e-01    3.670000e+00
  TP5h  P3aq  1 3.950000e-01    3.670000e+00
  TP5h  P4aq  1 3.950000e-01    3.910000e+00
  TP5h  P5aq  1 3.950000e-01    4.230000e+00
 TP6aq   P5h  1 3.950000e-01    4.540000e+00
  TP5h  N1dq  1 3.950000e-01    2.110000e+00
  TP5h  N2dq  1 3.950000e-01    2.310000e+00
  TP5h  N3dq  1 3.950000e-01    2.500000e+00
  TP5h  N4dq  1 3.950000e-01    2.940000e+00
  TP5h  N5dq  1 3.950000e-01    2.940000e+00
  TP5h  N6dq  1 3.950000e-01    3.190000e+00
  TP5h  P1dq  1 3.950000e-01    3.430000e+00
  TP5h  P2dq  1 3.950000e-01    3.670000e+00
  TP5h  P3dq  1 3.950000e-01    3.670000e+00
  TP5h  P4dq  1 3.950000e-01    3.910000e+00
  TP5h  P5dq  1 3.950000e-01    4.230000e+00
 TP6dq   P5h  1 3.950000e-01    4.540000e+00
  TP5h   X1q  1 3.950000e-01    1.850000e+00
  TP5h   X2q  1 3.950000e-01    2.310000e+00
  TP5h   X3q  1 3.950000e-01    2.310000e+00
  TP5h   X4q  1 3.950000e-01    2.500000e+00
  TP5h   C1q  1 3.980000e-01    1.450000e+00
  TP5h   C2q  1 3.950000e-01    1.670000e+00
  TP5h   C3q  1 3.950000e-01    1.670000e+00
  TP5h   C4q  1 3.950000e-01    1.850000e+00
  TP5h   C5q  1 3.950000e-01    2.110000e+00
  TP5h   C6q  1 3.950000e-01    2.110000e+00
  TP5h   N1q  1 3.950000e-01    2.110000e+00
  TP5h   N2q  1 3.950000e-01    2.310000e+00
  TP5h   N3q  1 3.950000e-01    2.500000e+00
  TP5h   N4q  1 3.950000e-01    2.940000e+00
  TP5h   N5q  1 3.950000e-01    2.940000e+00
  TP5h   N6q  1 3.950000e-01    3.190000e+00
  TP5h   P1q  1 3.950000e-01    3.430000e+00
  TP5h   P2q  1 3.950000e-01    3.670000e+00
  TP5h   P3q  1 3.950000e-01    3.670000e+00
  TP5h   P4q  1 3.950000e-01    3.910000e+00
  TP6d   P4h  1 3.950000e-01    3.670000e+00
  TP5d   P4h  1 3.950000e-01    3.430000e+00
  TP4h   P4d  1 3.950000e-01    3.430000e+00
  TP4h   N1d  1 3.950000e-01    1.850000e+00
  TP4h   N2d  1 3.950000e-01    2.110000e+00
  TP4h   N3d  1 3.950000e-01    2.310000e+00
  TP4h   N4d  1 3.950000e-01    2.500000e+00
  TP4h   N5d  1 3.950000e-01    2.500000e+00
  TP4h   N6d  1 3.950000e-01    2.700000e+00
  TP4h   P1d  1 3.950000e-01    2.940000e+00
  TP4h   P2d  1 3.950000e-01    3.190000e+00
  TP4h   P3d  1 3.950000e-01    3.190000e+00
  TP6a   P4h  1 3.950000e-01    3.670000e+00
  TP5a   P4h  1 3.950000e-01    3.430000e+00
  TP4h   P4a  1 3.950000e-01    3.430000e+00
  TP4h   N1a  1 3.950000e-01    1.850000e+00
  TP4h   N2a  1 3.950000e-01    2.110000e+00
  TP4h   N3a  1 3.950000e-01    2.310000e+00
  TP4h   N4a  1 3.950000e-01    2.500000e+00
  TP4h   N5a  1 3.950000e-01    2.500000e+00
  TP4h   N6a  1 3.950000e-01    2.700000e+00
  TP4h   P1a  1 3.950000e-01    2.940000e+00
  TP4h   P2a  1 3.950000e-01    3.190000e+00
  TP4h   P3a  1 3.950000e-01    3.190000e+00
  TP4h   C6v  1 3.950000e-01    2.110000e+00
  TP4h   C5v  1 3.950000e-01    1.850000e+00
  TP4h   C4v  1 3.950000e-01    1.670000e+00
  TP4h   C3v  1 3.980000e-01    1.450000e+00
  TP4h   C2v  1 3.980000e-01    1.450000e+00
  TP4h   C1v  1 3.990000e-01    1.180000e+00
  TP4h   X4v  1 3.950000e-01    2.310000e+00
  TP4h   X3v  1 3.950000e-01    2.110000e+00
  TP4h   X2v  1 3.950000e-01    2.110000e+00
  TP4h   X1v  1 3.950000e-01    1.850000e+00
  TP4h   C6e  1 3.950000e-01    2.110000e+00
  TP4h   C5e  1 3.950000e-01    1.850000e+00
  TP4h   C4e  1 3.950000e-01    1.670000e+00
  TP4h   C3e  1 3.980000e-01    1.450000e+00
  TP4h   C2e  1 3.980000e-01    1.450000e+00
  TP4h   C1e  1 3.990000e-01    1.180000e+00
  TP4h   X4e  1 3.950000e-01    2.310000e+00
  TP4h   X3e  1 3.950000e-01    2.110000e+00
  TP4h   X2e  1 3.950000e-01    2.110000e+00
  TP4h   X1e  1 3.950000e-01    1.850000e+00
  TP6q   P4h  1 3.950000e-01    4.230000e+00
  TP5q   P4h  1 3.950000e-01    3.910000e+00
  TP4h   P4q  1 3.950000e-01    3.910000e+00
  TP4h  X1eq  1 3.950000e-01    2.310000e+00
  TP4h  X2eq  1 3.950000e-01    2.500000e+00
  TP4h  X3eq  1 3.950000e-01    2.500000e+00
  TP4h  X4eq  1 3.950000e-01    2.700000e+00
  TP4h  C1eq  1 3.950000e-01    1.670000e+00
  TP4h  C2eq  1 3.950000e-01    1.850000e+00
  TP4h  C3eq  1 3.950000e-01    1.850000e+00
  TP4h  C4eq  1 3.950000e-01    2.110000e+00
  TP4h  C5eq  1 3.950000e-01    2.310000e+00
  TP4h  C6eq  1 3.950000e-01    2.500000e+00
  TP4h  X1vq  1 3.950000e-01    2.310000e+00
  TP4h  X2vq  1 3.950000e-01    2.500000e+00
  TP4h  X3vq  1 3.950000e-01    2.500000e+00
  TP4h  X4vq  1 3.950000e-01    2.700000e+00
  TP4h  C1vq  1 3.950000e-01    1.670000e+00
  TP4h  C2vq  1 3.950000e-01    1.850000e+00
  TP4h  C3vq  1 3.950000e-01    1.850000e+00
  TP4h  C4vq  1 3.950000e-01    2.110000e+00
  TP4h  C5vq  1 3.950000e-01    2.310000e+00
  TP4h  C6vq  1 3.950000e-01    2.500000e+00
  TP4h  N1aq  1 3.950000e-01    2.310000e+00
  TP4h  N2aq  1 3.950000e-01    2.500000e+00
  TP4h  N3aq  1 3.950000e-01    2.700000e+00
  TP4h  N4aq  1 3.950000e-01    2.940000e+00
  TP4h  N5aq  1 3.950000e-01    2.940000e+00
  TP4h  N6aq  1 3.950000e-01    3.190000e+00
  TP4h  P1aq  1 3.950000e-01    3.430000e+00
  TP4h  P2aq  1 3.950000e-01    3.670000e+00
  TP4h  P3aq  1 3.950000e-01    3.670000e+00
  TP4h  P4aq  1 3.950000e-01    3.910000e+00
 TP5aq   P4h  1 3.950000e-01    3.910000e+00
 TP6aq   P4h  1 3.950000e-01    4.230000e+00
  TP4h  N1dq  1 3.950000e-01    2.310000e+00
  TP4h  N2dq  1 3.950000e-01    2.500000e+00
  TP4h  N3dq  1 3.950000e-01    2.700000e+00
  TP4h  N4dq  1 3.950000e-01    2.940000e+00
  TP4h  N5dq  1 3.950000e-01    2.940000e+00
  TP4h  N6dq  1 3.950000e-01    3.190000e+00
  TP4h  P1dq  1 3.950000e-01    3.430000e+00
  TP4h  P2dq  1 3.950000e-01    3.670000e+00
  TP4h  P3dq  1 3.950000e-01    3.670000e+00
  TP4h  P4dq  1 3.950000e-01    3.910000e+00
 TP5dq   P4h  1 3.950000e-01    3.910000e+00
 TP6dq   P4h  1 3.950000e-01    4.230000e+00
  TP4h   X1q  1 3.950000e-01    2.110000e+00
  TP4h   X2q  1 3.950000e-01    2.310000e+00
  TP4h   X3q  1 3.950000e-01    2.310000e+00
  TP4h   X4q  1 3.950000e-01    2.500000e+00
  TP4h   C1q  1 3.980000e-01    1.450000e+00
  TP4h   C2q  1 3.950000e-01    1.670000e+00
  TP4h   C3q  1 3.950000e-01    1.670000e+00
  TP4h   C4q  1 3.950000e-01    1.850000e+00
  TP4h   C5q  1 3.950000e-01    2.110000e+00
  TP4h   C6q  1 3.950000e-01    2.310000e+00
  TP4h   N1q  1 3.950000e-01    2.310000e+00
  TP4h   N2q  1 3.950000e-01    2.500000e+00
  TP4h   N3q  1 3.950000e-01    2.700000e+00
  TP4h   N4q  1 3.950000e-01    2.940000e+00
  TP4h   N5q  1 3.950000e-01    2.940000e+00
  TP4h   N6q  1 3.950000e-01    3.190000e+00
  TP4h   P1q  1 3.950000e-01    3.430000e+00
  TP4h   P2q  1 3.950000e-01    3.670000e+00
  TP4h   P3q  1 3.950000e-01    3.670000e+00
  TP6d   P3h  1 3.950000e-01    3.430000e+00
  TP5d   P3h  1 3.950000e-01    3.190000e+00
  TP4d   P3h  1 3.950000e-01    3.190000e+00
  TP3h   P3d  1 3.950000e-01    3.190000e+00
  TP3h   N1d  1 3.950000e-01    2.110000e+00
  TP3h   N2d  1 3.950000e-01    2.310000e+00
  TP3h   N3d  1 3.950000e-01    2.310000e+00
  TP3h   N4d  1 3.950000e-01    2.500000e+00
  TP3h   N5d  1 3.950000e-01    2.500000e+00
  TP3h   N6d  1 3.950000e-01    2.700000e+00
  TP3h   P1d  1 3.950000e-01    2.940000e+00
  TP3h   P2d  1 3.950000e-01    3.190000e+00
  TP6a   P3h  1 3.950000e-01    3.430000e+00
  TP5a   P3h  1 3.950000e-01    3.190000e+00
  TP4a   P3h  1 3.950000e-01    3.190000e+00
  TP3h   P3a  1 3.950000e-01    3.190000e+00
  TP3h   N1a  1 3.950000e-01    2.110000e+00
  TP3h   N2a  1 3.950000e-01    2.310000e+00
  TP3h   N3a  1 3.950000e-01    2.310000e+00
  TP3h   N4a  1 3.950000e-01    2.500000e+00
  TP3h   N5a  1 3.950000e-01    2.500000e+00
  TP3h   N6a  1 3.950000e-01    2.700000e+00
  TP3h   P1a  1 3.950000e-01    2.940000e+00
  TP3h   P2a  1 3.950000e-01    3.190000e+00
  TP3h   C6v  1 3.950000e-01    2.310000e+00
  TP3h   C5v  1 3.950000e-01    2.110000e+00
  TP3h   C4v  1 3.950000e-01    1.850000e+00
  TP3h   C3v  1 3.980000e-01    1.450000e+00
  TP3h   C2v  1 3.980000e-01    1.450000e+00
  TP3h   C1v  1 3.990000e-01    1.180000e+00
  TP3h   X4v  1 3.950000e-01    2.310000e+00
  TP3h   X3v  1 3.950000e-01    2.310000e+00
  TP3h   X2v  1 3.950000e-01    2.110000e+00
  TP3h   X1v  1 3.950000e-01    1.850000e+00
  TP3h   C6e  1 3.950000e-01    2.310000e+00
  TP3h   C5e  1 3.950000e-01    2.110000e+00
  TP3h   C4e  1 3.950000e-01    1.850000e+00
  TP3h   C3e  1 3.980000e-01    1.450000e+00
  TP3h   C2e  1 3.980000e-01    1.450000e+00
  TP3h   C1e  1 3.990000e-01    1.180000e+00
  TP3h   X4e  1 3.950000e-01    2.310000e+00
  TP3h   X3e  1 3.950000e-01    2.310000e+00
  TP3h   X2e  1 3.950000e-01    2.110000e+00
  TP3h   X1e  1 3.950000e-01    1.850000e+00
  TP6q   P3h  1 3.950000e-01    3.910000e+00
  TP5q   P3h  1 3.950000e-01    3.670000e+00
  TP4q   P3h  1 3.950000e-01    3.670000e+00
  TP3h   P3q  1 3.950000e-01    3.670000e+00
  TP3h  X1eq  1 3.950000e-01    2.310000e+00
  TP3h  X2eq  1 3.950000e-01    2.500000e+00
  TP3h  X3eq  1 3.950000e-01    2.700000e+00
  TP3h  X4eq  1 3.950000e-01    2.700000e+00
  TP3h  C1eq  1 3.950000e-01    1.670000e+00
  TP3h  C2eq  1 3.950000e-01    1.850000e+00
  TP3h  C3eq  1 3.950000e-01    1.850000e+00
  TP3h  C4eq  1 3.950000e-01    2.310000e+00
  TP3h  C5eq  1 3.950000e-01    2.500000e+00
  TP3h  C6eq  1 3.950000e-01    2.700000e+00
  TP3h  X1vq  1 3.950000e-01    2.310000e+00
  TP3h  X2vq  1 3.950000e-01    2.500000e+00
  TP3h  X3vq  1 3.950000e-01    2.700000e+00
  TP3h  X4vq  1 3.950000e-01    2.700000e+00
  TP3h  C1vq  1 3.950000e-01    1.670000e+00
  TP3h  C2vq  1 3.950000e-01    1.850000e+00
  TP3h  C3vq  1 3.950000e-01    1.850000e+00
  TP3h  C4vq  1 3.950000e-01    2.310000e+00
  TP3h  C5vq  1 3.950000e-01    2.500000e+00
  TP3h  C6vq  1 3.950000e-01    2.700000e+00
  TP3h  N1aq  1 3.950000e-01    2.500000e+00
  TP3h  N2aq  1 3.950000e-01    2.700000e+00
  TP3h  N3aq  1 3.950000e-01    2.700000e+00
  TP3h  N4aq  1 3.950000e-01    2.940000e+00
  TP3h  N5aq  1 3.950000e-01    2.940000e+00
  TP3h  N6aq  1 3.950000e-01    3.190000e+00
  TP3h  P1aq  1 3.950000e-01    3.430000e+00
  TP3h  P2aq  1 3.950000e-01    3.670000e+00
  TP3h  P3aq  1 3.950000e-01    3.670000e+00
 TP4aq   P3h  1 3.950000e-01    3.670000e+00
 TP5aq   P3h  1 3.950000e-01    3.670000e+00
 TP6aq   P3h  1 3.950000e-01    3.910000e+00
  TP3h  N1dq  1 3.950000e-01    2.500000e+00
  TP3h  N2dq  1 3.950000e-01    2.700000e+00
  TP3h  N3dq  1 3.950000e-01    2.700000e+00
  TP3h  N4dq  1 3.950000e-01    2.940000e+00
  TP3h  N5dq  1 3.950000e-01    2.940000e+00
  TP3h  N6dq  1 3.950000e-01    3.190000e+00
  TP3h  P1dq  1 3.950000e-01    3.430000e+00
  TP3h  P2dq  1 3.950000e-01    3.670000e+00
  TP3h  P3dq  1 3.950000e-01    3.670000e+00
 TP4dq   P3h  1 3.950000e-01    3.670000e+00
 TP5dq   P3h  1 3.950000e-01    3.670000e+00
 TP6dq   P3h  1 3.950000e-01    3.910000e+00
  TP3h   X1q  1 3.950000e-01    2.110000e+00
  TP3h   X2q  1 3.950000e-01    2.310000e+00
  TP3h   X3q  1 3.950000e-01    2.500000e+00
  TP3h   X4q  1 3.950000e-01    2.500000e+00
  TP3h   C1q  1 3.980000e-01    1.450000e+00
  TP3h   C2q  1 3.950000e-01    1.670000e+00
  TP3h   C3q  1 3.950000e-01    1.670000e+00
  TP3h   C4q  1 3.950000e-01    2.110000e+00
  TP3h   C5q  1 3.950000e-01    2.310000e+00
  TP3h   C6q  1 3.950000e-01    2.500000e+00
  TP3h   N1q  1 3.950000e-01    2.500000e+00
  TP3h   N2q  1 3.950000e-01    2.700000e+00
  TP3h   N3q  1 3.950000e-01    2.700000e+00
  TP3h   N4q  1 3.950000e-01    2.940000e+00
  TP3h   N5q  1 3.950000e-01    2.940000e+00
  TP3h   N6q  1 3.950000e-01    3.190000e+00
  TP3h   P1q  1 3.950000e-01    3.430000e+00
  TP3h   P2q  1 3.950000e-01    3.670000e+00
  TP6d   P2h  1 3.950000e-01    3.430000e+00
  TP5d   P2h  1 3.950000e-01    3.190000e+00
  TP4d   P2h  1 3.950000e-01    3.190000e+00
  TP3d   P2h  1 3.950000e-01    3.190000e+00
  TP2h   P2d  1 3.950000e-01    3.190000e+00
  TP2h   N1d  1 3.950000e-01    2.310000e+00
  TP2h   N2d  1 3.950000e-01    2.310000e+00
  TP2h   N3d  1 3.950000e-01    2.310000e+00
  TP2h   N4d  1 3.950000e-01    2.500000e+00
  TP2h   N5d  1 3.950000e-01    2.700000e+00
  TP2h   N6d  1 3.950000e-01    2.940000e+00
  TP2h   P1d  1 3.950000e-01    2.940000e+00
  TP6a   P2h  1 3.950000e-01    3.430000e+00
  TP5a   P2h  1 3.950000e-01    3.190000e+00
  TP4a   P2h  1 3.950000e-01    3.190000e+00
  TP3a   P2h  1 3.950000e-01    3.190000e+00
  TP2h   P2a  1 3.950000e-01    3.190000e+00
  TP2h   N1a  1 3.950000e-01    2.310000e+00
  TP2h   N2a  1 3.950000e-01    2.310000e+00
  TP2h   N3a  1 3.950000e-01    2.310000e+00
  TP2h   N4a  1 3.950000e-01    2.500000e+00
  TP2h   N5a  1 3.950000e-01    2.700000e+00
  TP2h   N6a  1 3.950000e-01    2.940000e+00
  TP2h   P1a  1 3.950000e-01    2.940000e+00
  TP2h   C6v  1 3.950000e-01    2.310000e+00
  TP2h   C5v  1 3.950000e-01    2.110000e+00
  TP2h   C4v  1 3.950000e-01    1.850000e+00
  TP2h   C3v  1 3.950000e-01    1.670000e+00
  TP2h   C2v  1 3.950000e-01    1.670000e+00
  TP2h   C1v  1 3.980000e-01    1.450000e+00
  TP2h   X4v  1 3.950000e-01    2.310000e+00
  TP2h   X3v  1 3.950000e-01    2.310000e+00
  TP2h   X2v  1 3.950000e-01    2.110000e+00
  TP2h   X1v  1 3.950000e-01    1.850000e+00
  TP2h   C6e  1 3.950000e-01    2.310000e+00
  TP2h   C5e  1 3.950000e-01    2.110000e+00
  TP2h   C4e  1 3.950000e-01    1.850000e+00
  TP2h   C3e  1 3.950000e-01    1.670000e+00
  TP2h   C2e  1 3.950000e-01    1.670000e+00
  TP2h   C1e  1 3.980000e-01    1.450000e+00
  TP2h   X4e  1 3.950000e-01    2.310000e+00
  TP2h   X3e  1 3.950000e-01    2.310000e+00
  TP2h   X2e  1 3.950000e-01    2.110000e+00
  TP2h   X1e  1 3.950000e-01    1.850000e+00
  TP6q   P2h  1 3.950000e-01    3.910000e+00
  TP5q   P2h  1 3.950000e-01    3.670000e+00
  TP4q   P2h  1 3.950000e-01    3.670000e+00
  TP3q   P2h  1 3.950000e-01    3.670000e+00
  TP2h   P2q  1 3.950000e-01    3.670000e+00
  TP2h  X1eq  1 3.950000e-01    2.310000e+00
  TP2h  X2eq  1 3.950000e-01    2.500000e+00
  TP2h  X3eq  1 3.950000e-01    2.700000e+00
  TP2h  X4eq  1 3.950000e-01    2.700000e+00
  TP2h  C1eq  1 3.950000e-01    1.850000e+00
  TP2h  C2eq  1 3.950000e-01    2.110000e+00
  TP2h  C3eq  1 3.950000e-01    2.110000e+00
  TP2h  C4eq  1 3.950000e-01    2.310000e+00
  TP2h  C5eq  1 3.950000e-01    2.500000e+00
  TP2h  C6eq  1 3.950000e-01    2.700000e+00
  TP2h  X1vq  1 3.950000e-01    2.310000e+00
  TP2h  X2vq  1 3.950000e-01    2.500000e+00
  TP2h  X3vq  1 3.950000e-01    2.700000e+00
  TP2h  X4vq  1 3.950000e-01    2.700000e+00
  TP2h  C1vq  1 3.950000e-01    1.850000e+00
  TP2h  C2vq  1 3.950000e-01    2.110000e+00
  TP2h  C3vq  1 3.950000e-01    2.110000e+00
  TP2h  C4vq  1 3.950000e-01    2.310000e+00
  TP2h  C5vq  1 3.950000e-01    2.500000e+00
  TP2h  C6vq  1 3.950000e-01    2.700000e+00
  TP2h  N1aq  1 3.950000e-01    2.700000e+00
  TP2h  N2aq  1 3.950000e-01    2.700000e+00
  TP2h  N3aq  1 3.950000e-01    2.700000e+00
  TP2h  N4aq  1 3.950000e-01    2.940000e+00
  TP2h  N5aq  1 3.950000e-01    3.190000e+00
  TP2h  N6aq  1 3.950000e-01    3.430000e+00
  TP2h  P1aq  1 3.950000e-01    3.430000e+00
  TP2h  P2aq  1 3.950000e-01    3.670000e+00
 TP3aq   P2h  1 3.950000e-01    3.670000e+00
 TP4aq   P2h  1 3.950000e-01    3.670000e+00
 TP5aq   P2h  1 3.950000e-01    3.670000e+00
 TP6aq   P2h  1 3.950000e-01    3.910000e+00
  TP2h  N1dq  1 3.950000e-01    2.700000e+00
  TP2h  N2dq  1 3.950000e-01    2.700000e+00
  TP2h  N3dq  1 3.950000e-01    2.700000e+00
  TP2h  N4dq  1 3.950000e-01    2.940000e+00
  TP2h  N5dq  1 3.950000e-01    3.190000e+00
  TP2h  N6dq  1 3.950000e-01    3.430000e+00
  TP2h  P1dq  1 3.950000e-01    3.430000e+00
  TP2h  P2dq  1 3.950000e-01    3.670000e+00
 TP3dq   P2h  1 3.950000e-01    3.670000e+00
 TP4dq   P2h  1 3.950000e-01    3.670000e+00
 TP5dq   P2h  1 3.950000e-01    3.670000e+00
 TP6dq   P2h  1 3.950000e-01    3.910000e+00
  TP2h   X1q  1 3.950000e-01    2.110000e+00
  TP2h   X2q  1 3.950000e-01    2.310000e+00
  TP2h   X3q  1 3.950000e-01    2.500000e+00
  TP2h   X4q  1 3.950000e-01    2.500000e+00
  TP2h   C1q  1 3.950000e-01    1.670000e+00
  TP2h   C2q  1 3.950000e-01    1.850000e+00
  TP2h   C3q  1 3.950000e-01    1.850000e+00
  TP2h   C4q  1 3.950000e-01    2.110000e+00
  TP2h   C5q  1 3.950000e-01    2.310000e+00
  TP2h   C6q  1 3.950000e-01    2.500000e+00
  TP2h   N1q  1 3.950000e-01    2.700000e+00
  TP2h   N2q  1 3.950000e-01    2.700000e+00
  TP2h   N3q  1 3.950000e-01    2.700000e+00
  TP2h   N4q  1 3.950000e-01    2.940000e+00
  TP2h   N5q  1 3.950000e-01    3.190000e+00
  TP2h   N6q  1 3.950000e-01    3.430000e+00
  TP2h   P1q  1 3.950000e-01    3.430000e+00
  TP6d   P1h  1 3.950000e-01    3.190000e+00
  TP5d   P1h  1 3.950000e-01    2.940000e+00
  TP4d   P1h  1 3.950000e-01    2.940000e+00
  TP3d   P1h  1 3.950000e-01    2.940000e+00
  TP2d   P1h  1 3.950000e-01    2.940000e+00
  TP1h   P1d  1 3.950000e-01    2.940000e+00
  TP1h   N1d  1 3.950000e-01    2.310000e+00
  TP1h   N2d  1 3.950000e-01    2.310000e+00
  TP1h   N3d  1 3.950000e-01    2.310000e+00
  TP1h   N4d  1 3.950000e-01    2.700000e+00
  TP1h   N5d  1 3.950000e-01    2.700000e+00
  TP1h   N6d  1 3.950000e-01    2.940000e+00
  TP6a   P1h  1 3.950000e-01    3.190000e+00
  TP5a   P1h  1 3.950000e-01    2.940000e+00
  TP4a   P1h  1 3.950000e-01    2.940000e+00
  TP3a   P1h  1 3.950000e-01    2.940000e+00
  TP2a   P1h  1 3.950000e-01    2.940000e+00
  TP1h   P1a  1 3.950000e-01    2.940000e+00
  TP1h   N1a  1 3.950000e-01    2.310000e+00
  TP1h   N2a  1 3.950000e-01    2.310000e+00
  TP1h   N3a  1 3.950000e-01    2.310000e+00
  TP1h   N4a  1 3.950000e-01    2.700000e+00
  TP1h   N5a  1 3.950000e-01    2.700000e+00
  TP1h   N6a  1 3.950000e-01    2.940000e+00
  TP1h   C6v  1 3.950000e-01    2.310000e+00
  TP1h   C5v  1 3.950000e-01    2.110000e+00
  TP1h   C4v  1 3.950000e-01    1.850000e+00
  TP1h   C3v  1 3.950000e-01    1.670000e+00
  TP1h   C2v  1 3.950000e-01    1.670000e+00
  TP1h   C1v  1 3.980000e-01    1.450000e+00
  TP1h   X4v  1 3.950000e-01    2.310000e+00
  TP1h   X3v  1 3.950000e-01    2.310000e+00
  TP1h   X2v  1 3.950000e-01    2.110000e+00
  TP1h   X1v  1 3.950000e-01    1.850000e+00
  TP1h   C6e  1 3.950000e-01    2.310000e+00
  TP1h   C5e  1 3.950000e-01    2.110000e+00
  TP1h   C4e  1 3.950000e-01    1.850000e+00
  TP1h   C3e  1 3.950000e-01    1.670000e+00
  TP1h   C2e  1 3.950000e-01    1.670000e+00
  TP1h   C1e  1 3.980000e-01    1.450000e+00
  TP1h   X4e  1 3.950000e-01    2.310000e+00
  TP1h   X3e  1 3.950000e-01    2.310000e+00
  TP1h   X2e  1 3.950000e-01    2.110000e+00
  TP1h   X1e  1 3.950000e-01    1.850000e+00
  TP6q   P1h  1 3.950000e-01    3.670000e+00
  TP5q   P1h  1 3.950000e-01    3.430000e+00
  TP4q   P1h  1 3.950000e-01    3.430000e+00
  TP3q   P1h  1 3.950000e-01    3.430000e+00
  TP2q   P1h  1 3.950000e-01    3.430000e+00
  TP1h   P1q  1 3.950000e-01    3.430000e+00
  TP1h  X1eq  1 3.950000e-01    2.310000e+00
  TP1h  X2eq  1 3.950000e-01    2.500000e+00
  TP1h  X3eq  1 3.950000e-01    2.700000e+00
  TP1h  X4eq  1 3.950000e-01    2.700000e+00
  TP1h  C1eq  1 3.950000e-01    1.850000e+00
  TP1h  C2eq  1 3.950000e-01    2.110000e+00
  TP1h  C3eq  1 3.950000e-01    2.110000e+00
  TP1h  C4eq  1 3.950000e-01    2.310000e+00
  TP1h  C5eq  1 3.950000e-01    2.500000e+00
  TP1h  C6eq  1 3.950000e-01    2.700000e+00
  TP1h  X1vq  1 3.950000e-01    2.310000e+00
  TP1h  X2vq  1 3.950000e-01    2.500000e+00
  TP1h  X3vq  1 3.950000e-01    2.700000e+00
  TP1h  X4vq  1 3.950000e-01    2.700000e+00
  TP1h  C1vq  1 3.950000e-01    1.850000e+00
  TP1h  C2vq  1 3.950000e-01    2.110000e+00
  TP1h  C3vq  1 3.950000e-01    2.110000e+00
  TP1h  C4vq  1 3.950000e-01    2.310000e+00
  TP1h  C5vq  1 3.950000e-01    2.500000e+00
  TP1h  C6vq  1 3.950000e-01    2.700000e+00
  TP1h  N1aq  1 3.950000e-01    2.700000e+00
  TP1h  N2aq  1 3.950000e-01    2.700000e+00
  TP1h  N3aq  1 3.950000e-01    2.700000e+00
  TP1h  N4aq  1 3.950000e-01    3.190000e+00
  TP1h  N5aq  1 3.950000e-01    3.190000e+00
  TP1h  N6aq  1 3.950000e-01    3.430000e+00
  TP1h  P1aq  1 3.950000e-01    3.430000e+00
 TP2aq   P1h  1 3.950000e-01    3.430000e+00
 TP3aq   P1h  1 3.950000e-01    3.430000e+00
 TP4aq   P1h  1 3.950000e-01    3.430000e+00
 TP5aq   P1h  1 3.950000e-01    3.430000e+00
 TP6aq   P1h  1 3.950000e-01    3.670000e+00
  TP1h  N1dq  1 3.950000e-01    2.700000e+00
  TP1h  N2dq  1 3.950000e-01    2.700000e+00
  TP1h  N3dq  1 3.950000e-01    2.700000e+00
  TP1h  N4dq  1 3.950000e-01    3.190000e+00
  TP1h  N5dq  1 3.950000e-01    3.190000e+00
  TP1h  N6dq  1 3.950000e-01    3.430000e+00
  TP1h  P1dq  1 3.950000e-01    3.430000e+00
 TP2dq   P1h  1 3.950000e-01    3.430000e+00
 TP3dq   P1h  1 3.950000e-01    3.430000e+00
 TP4dq   P1h  1 3.950000e-01    3.430000e+00
 TP5dq   P1h  1 3.950000e-01    3.430000e+00
 TP6dq   P1h  1 3.950000e-01    3.670000e+00
  TP1h   X1q  1 3.950000e-01    2.110000e+00
  TP1h   X2q  1 3.950000e-01    2.310000e+00
  TP1h   X3q  1 3.950000e-01    2.500000e+00
  TP1h   X4q  1 3.950000e-01    2.500000e+00
  TP1h   C1q  1 3.950000e-01    1.670000e+00
  TP1h   C2q  1 3.950000e-01    1.850000e+00
  TP1h   C3q  1 3.950000e-01    1.850000e+00
  TP1h   C4q  1 3.950000e-01    2.110000e+00
  TP1h   C5q  1 3.950000e-01    2.310000e+00
  TP1h   C6q  1 3.950000e-01    2.500000e+00
  TP1h   N1q  1 3.950000e-01    2.700000e+00
  TP1h   N2q  1 3.950000e-01    2.700000e+00
  TP1h   N3q  1 3.950000e-01    2.700000e+00
  TP1h   N4q  1 3.950000e-01    3.190000e+00
  TP1h   N5q  1 3.950000e-01    3.190000e+00
  TP1h   N6q  1 3.950000e-01    3.430000e+00
  TP6d   N6h  1 3.950000e-01    2.940000e+00
  TP5d   N6h  1 3.950000e-01    2.700000e+00
  TP4d   N6h  1 3.950000e-01    2.700000e+00
  TP3d   N6h  1 3.950000e-01    2.700000e+00
  TP2d   N6h  1 3.950000e-01    2.940000e+00
  TP1d   N6h  1 3.950000e-01    2.940000e+00
  TN6h   N6d  1 3.950000e-01    2.940000e+00
  TN6h   N1d  1 3.950000e-01    2.310000e+00
  TN6h   N2d  1 3.950000e-01    2.310000e+00
  TN6h   N3d  1 3.950000e-01    2.500000e+00
  TN6h   N4d  1 3.950000e-01    2.940000e+00
  TN6h   N5d  1 3.950000e-01    2.940000e+00
  TP6a   N6h  1 3.950000e-01    2.940000e+00
  TP5a   N6h  1 3.950000e-01    2.700000e+00
  TP4a   N6h  1 3.950000e-01    2.700000e+00
  TP3a   N6h  1 3.950000e-01    2.700000e+00
  TP2a   N6h  1 3.950000e-01    2.940000e+00
  TP1a   N6h  1 3.950000e-01    2.940000e+00
  TN6h   N6a  1 3.950000e-01    2.940000e+00
  TN6h   N1a  1 3.950000e-01    2.310000e+00
  TN6h   N2a  1 3.950000e-01    2.310000e+00
  TN6h   N3a  1 3.950000e-01    2.500000e+00
  TN6h   N4a  1 3.950000e-01    2.940000e+00
  TN6h   N5a  1 3.950000e-01    2.940000e+00
  TN6h   C6v  1 3.950000e-01    2.500000e+00
  TN6h   C5v  1 3.950000e-01    2.310000e+00
  TN6h   C4v  1 3.950000e-01    2.110000e+00
  TN6h   C3v  1 3.950000e-01    1.850000e+00
  TN6h   C2v  1 3.950000e-01    1.850000e+00
  TN6h   C1v  1 3.950000e-01    1.670000e+00
  TN6h   X4v  1 3.950000e-01    2.500000e+00
  TN6h   X3v  1 3.950000e-01    2.310000e+00
  TN6h   X2v  1 3.950000e-01    2.110000e+00
  TN6h   X1v  1 3.950000e-01    1.850000e+00
  TN6h   C6e  1 3.950000e-01    2.500000e+00
  TN6h   C5e  1 3.950000e-01    2.310000e+00
  TN6h   C4e  1 3.950000e-01    2.110000e+00
  TN6h   C3e  1 3.950000e-01    1.850000e+00
  TN6h   C2e  1 3.950000e-01    1.850000e+00
  TN6h   C1e  1 3.950000e-01    1.670000e+00
  TN6h   X4e  1 3.950000e-01    2.500000e+00
  TN6h   X3e  1 3.950000e-01    2.310000e+00
  TN6h   X2e  1 3.950000e-01    2.110000e+00
  TN6h   X1e  1 3.950000e-01    1.850000e+00
  TP6q   N6h  1 3.950000e-01    3.430000e+00
  TP5q   N6h  1 3.950000e-01    3.190000e+00
  TP4q   N6h  1 3.950000e-01    3.190000e+00
  TP3q   N6h  1 3.950000e-01    3.190000e+00
  TP2q   N6h  1 3.950000e-01    3.430000e+00
  TP1q   N6h  1 3.950000e-01    3.430000e+00
  TN6h   N6q  1 3.950000e-01    3.430000e+00
  TN6h  X1eq  1 3.950000e-01    2.310000e+00
  TN6h  X2eq  1 3.950000e-01    2.500000e+00
  TN6h  X3eq  1 3.950000e-01    2.700000e+00
  TN6h  X4eq  1 3.950000e-01    2.940000e+00
  TN6h  C1eq  1 3.950000e-01    2.110000e+00
  TN6h  C2eq  1 3.950000e-01    2.310000e+00
  TN6h  C3eq  1 3.950000e-01    2.310000e+00
  TN6h  C4eq  1 3.950000e-01    2.500000e+00
  TN6h  C5eq  1 3.950000e-01    2.700000e+00
  TN6h  C6eq  1 3.950000e-01    2.940000e+00
  TN6h  X1vq  1 3.950000e-01    2.310000e+00
  TN6h  X2vq  1 3.950000e-01    2.500000e+00
  TN6h  X3vq  1 3.950000e-01    2.700000e+00
  TN6h  X4vq  1 3.950000e-01    2.940000e+00
  TN6h  C1vq  1 3.950000e-01    2.110000e+00
  TN6h  C2vq  1 3.950000e-01    2.310000e+00
  TN6h  C3vq  1 3.950000e-01    2.310000e+00
  TN6h  C4vq  1 3.950000e-01    2.500000e+00
  TN6h  C5vq  1 3.950000e-01    2.700000e+00
  TN6h  C6vq  1 3.950000e-01    2.940000e+00
  TN6h  N1aq  1 3.950000e-01    2.700000e+00
  TN6h  N2aq  1 3.950000e-01    2.700000e+00
  TN6h  N3aq  1 3.950000e-01    2.940000e+00
  TN6h  N4aq  1 3.950000e-01    3.430000e+00
  TN6h  N5aq  1 3.950000e-01    3.430000e+00
  TN6h  N6aq  1 3.950000e-01    3.430000e+00
 TP1aq   N6h  1 3.950000e-01    3.430000e+00
 TP2aq   N6h  1 3.950000e-01    3.430000e+00
 TP3aq   N6h  1 3.950000e-01    3.190000e+00
 TP4aq   N6h  1 3.950000e-01    3.190000e+00
 TP5aq   N6h  1 3.950000e-01    3.190000e+00
 TP6aq   N6h  1 3.950000e-01    3.430000e+00
  TN6h  N1dq  1 3.950000e-01    2.700000e+00
  TN6h  N2dq  1 3.950000e-01    2.700000e+00
  TN6h  N3dq  1 3.950000e-01    2.940000e+00
  TN6h  N4dq  1 3.950000e-01    3.430000e+00
  TN6h  N5dq  1 3.950000e-01    3.430000e+00
  TN6h  N6dq  1 3.950000e-01    3.430000e+00
 TP1dq   N6h  1 3.950000e-01    3.430000e+00
 TP2dq   N6h  1 3.950000e-01    3.430000e+00
 TP3dq   N6h  1 3.950000e-01    3.190000e+00
 TP4dq   N6h  1 3.950000e-01    3.190000e+00
 TP5dq   N6h  1 3.950000e-01    3.190000e+00
 TP6dq   N6h  1 3.950000e-01    3.430000e+00
  TN6h   X1q  1 3.950000e-01    2.110000e+00
  TN6h   X2q  1 3.950000e-01    2.310000e+00
  TN6h   X3q  1 3.950000e-01    2.500000e+00
  TN6h   X4q  1 3.950000e-01    2.700000e+00
  TN6h   C1q  1 3.950000e-01    1.850000e+00
  TN6h   C2q  1 3.950000e-01    2.110000e+00
  TN6h   C3q  1 3.950000e-01    2.110000e+00
  TN6h   C4q  1 3.950000e-01    2.310000e+00
  TN6h   C5q  1 3.950000e-01    2.500000e+00
  TN6h   C6q  1 3.950000e-01    2.700000e+00
  TN6h   N1q  1 3.950000e-01    2.700000e+00
  TN6h   N2q  1 3.950000e-01    2.700000e+00
  TN6h   N3q  1 3.950000e-01    2.940000e+00
  TN6h   N4q  1 3.950000e-01    3.430000e+00
  TN6h   N5q  1 3.950000e-01    3.430000e+00
  TP6d   N5h  1 3.950000e-01    2.500000e+00
  TP5d   N5h  1 3.950000e-01    2.500000e+00
  TP4d   N5h  1 3.950000e-01    2.500000e+00
  TP3d   N5h  1 3.950000e-01    2.500000e+00
  TP2d   N5h  1 3.950000e-01    2.700000e+00
  TP1d   N5h  1 3.950000e-01    2.700000e+00
  TN6d   N5h  1 3.950000e-01    2.940000e+00
  TN5h   N5d  1 3.950000e-01    2.700000e+00
  TN5h   N1d  1 3.950000e-01    2.310000e+00
  TN5h   N2d  1 3.950000e-01    2.500000e+00
  TN5h   N3d  1 3.950000e-01    2.500000e+00
  TN5h   N4d  1 3.950000e-01    2.700000e+00
  TP6a   N5h  1 3.950000e-01    2.500000e+00
  TP5a   N5h  1 3.950000e-01    2.500000e+00
  TP4a   N5h  1 3.950000e-01    2.500000e+00
  TP3a   N5h  1 3.950000e-01    2.500000e+00
  TP2a   N5h  1 3.950000e-01    2.700000e+00
  TP1a   N5h  1 3.950000e-01    2.700000e+00
  TN6a   N5h  1 3.950000e-01    2.940000e+00
  TN5h   N5a  1 3.950000e-01    2.700000e+00
  TN5h   N1a  1 3.950000e-01    2.310000e+00
  TN5h   N2a  1 3.950000e-01    2.500000e+00
  TN5h   N3a  1 3.950000e-01    2.500000e+00
  TN5h   N4a  1 3.950000e-01    2.700000e+00
  TN5h   C6v  1 3.950000e-01    2.500000e+00
  TN5h   C5v  1 3.950000e-01    2.310000e+00
  TN5h   C4v  1 3.950000e-01    2.110000e+00
  TN5h   C3v  1 3.950000e-01    2.110000e+00
  TN5h   C2v  1 3.950000e-01    1.850000e+00
  TN5h   C1v  1 3.950000e-01    1.670000e+00
  TN5h   X4v  1 3.950000e-01    2.700000e+00
  TN5h   X3v  1 3.950000e-01    2.500000e+00
  TN5h   X2v  1 3.950000e-01    2.310000e+00
  TN5h   X1v  1 3.950000e-01    2.110000e+00
  TN5h   C6e  1 3.950000e-01    2.500000e+00
  TN5h   C5e  1 3.950000e-01    2.310000e+00
  TN5h   C4e  1 3.950000e-01    2.110000e+00
  TN5h   C3e  1 3.950000e-01    2.110000e+00
  TN5h   C2e  1 3.950000e-01    1.850000e+00
  TN5h   C1e  1 3.950000e-01    1.670000e+00
  TN5h   X4e  1 3.950000e-01    2.700000e+00
  TN5h   X3e  1 3.950000e-01    2.500000e+00
  TN5h   X2e  1 3.950000e-01    2.310000e+00
  TN5h   X1e  1 3.950000e-01    2.110000e+00
  TP6q   N5h  1 3.950000e-01    2.940000e+00
  TP5q   N5h  1 3.950000e-01    2.940000e+00
  TP4q   N5h  1 3.950000e-01    2.940000e+00
  TP3q   N5h  1 3.950000e-01    2.940000e+00
  TP2q   N5h  1 3.950000e-01    3.190000e+00
  TP1q   N5h  1 3.950000e-01    3.190000e+00
  TN6q   N5h  1 3.950000e-01    3.430000e+00
  TN5h   N5q  1 3.950000e-01    3.190000e+00
  TN5h  X1eq  1 3.950000e-01    2.500000e+00
  TN5h  X2eq  1 3.950000e-01    2.700000e+00
  TN5h  X3eq  1 3.950000e-01    2.940000e+00
  TN5h  X4eq  1 3.950000e-01    3.190000e+00
  TN5h  C1eq  1 3.950000e-01    2.110000e+00
  TN5h  C2eq  1 3.950000e-01    2.310000e+00
  TN5h  C3eq  1 3.950000e-01    2.500000e+00
  TN5h  C4eq  1 3.950000e-01    2.500000e+00
  TN5h  C5eq  1 3.950000e-01    2.700000e+00
  TN5h  C6eq  1 3.950000e-01    2.940000e+00
  TN5h  X1vq  1 3.950000e-01    2.500000e+00
  TN5h  X2vq  1 3.950000e-01    2.700000e+00
  TN5h  X3vq  1 3.950000e-01    2.940000e+00
  TN5h  X4vq  1 3.950000e-01    3.190000e+00
  TN5h  C1vq  1 3.950000e-01    2.110000e+00
  TN5h  C2vq  1 3.950000e-01    2.310000e+00
  TN5h  C3vq  1 3.950000e-01    2.500000e+00
  TN5h  C4vq  1 3.950000e-01    2.500000e+00
  TN5h  C5vq  1 3.950000e-01    2.700000e+00
  TN5h  C6vq  1 3.950000e-01    2.940000e+00
  TN5h  N1aq  1 3.950000e-01    2.700000e+00
  TN5h  N2aq  1 3.950000e-01    2.940000e+00
  TN5h  N3aq  1 3.950000e-01    2.940000e+00
  TN5h  N4aq  1 3.950000e-01    3.190000e+00
  TN5h  N5aq  1 3.950000e-01    3.190000e+00
 TN6aq   N5h  1 3.950000e-01    3.430000e+00
 TP1aq   N5h  1 3.950000e-01    3.190000e+00
 TP2aq   N5h  1 3.950000e-01    3.190000e+00
 TP3aq   N5h  1 3.950000e-01    2.940000e+00
 TP4aq   N5h  1 3.950000e-01    2.940000e+00
 TP5aq   N5h  1 3.950000e-01    2.940000e+00
 TP6aq   N5h  1 3.950000e-01    2.940000e+00
  TN5h  N1dq  1 3.950000e-01    2.700000e+00
  TN5h  N2dq  1 3.950000e-01    2.940000e+00
  TN5h  N3dq  1 3.950000e-01    2.940000e+00
  TN5h  N4dq  1 3.950000e-01    3.190000e+00
  TN5h  N5dq  1 3.950000e-01    3.190000e+00
 TN6dq   N5h  1 3.950000e-01    3.430000e+00
 TP1dq   N5h  1 3.950000e-01    3.190000e+00
 TP2dq   N5h  1 3.950000e-01    3.190000e+00
 TP3dq   N5h  1 3.950000e-01    2.940000e+00
 TP4dq   N5h  1 3.950000e-01    2.940000e+00
 TP5dq   N5h  1 3.950000e-01    2.940000e+00
 TP6dq   N5h  1 3.950000e-01    2.940000e+00
  TN5h   X1q  1 3.950000e-01    2.310000e+00
  TN5h   X2q  1 3.950000e-01    2.500000e+00
  TN5h   X3q  1 3.950000e-01    2.700000e+00
  TN5h   X4q  1 3.950000e-01    2.940000e+00
  TN5h   C1q  1 3.950000e-01    1.850000e+00
  TN5h   C2q  1 3.950000e-01    2.110000e+00
  TN5h   C3q  1 3.950000e-01    2.310000e+00
  TN5h   C4q  1 3.950000e-01    2.310000e+00
  TN5h   C5q  1 3.950000e-01    2.500000e+00
  TN5h   C6q  1 3.950000e-01    2.700000e+00
  TN5h   N1q  1 3.950000e-01    2.700000e+00
  TN5h   N2q  1 3.950000e-01    2.940000e+00
  TN5h   N3q  1 3.950000e-01    2.940000e+00
  TN5h   N4q  1 3.950000e-01    3.190000e+00
  TP6d   N4h  1 3.950000e-01    2.310000e+00
  TP5d   N4h  1 3.950000e-01    2.500000e+00
  TP4d   N4h  1 3.950000e-01    2.500000e+00
  TP3d   N4h  1 3.950000e-01    2.500000e+00
  TP2d   N4h  1 3.950000e-01    2.500000e+00
  TP1d   N4h  1 3.950000e-01    2.700000e+00
  TN6d   N4h  1 3.950000e-01    2.940000e+00
  TN5d   N4h  1 3.950000e-01    2.700000e+00
  TN4h   N4d  1 3.950000e-01    2.700000e+00
  TN4h   N1d  1 3.950000e-01    2.310000e+00
  TN4h   N2d  1 3.950000e-01    2.500000e+00
  TN4h   N3d  1 3.950000e-01    2.500000e+00
  TP6a   N4h  1 3.950000e-01    2.310000e+00
  TP5a   N4h  1 3.950000e-01    2.500000e+00
  TP4a   N4h  1 3.950000e-01    2.500000e+00
  TP3a   N4h  1 3.950000e-01    2.500000e+00
  TP2a   N4h  1 3.950000e-01    2.500000e+00
  TP1a   N4h  1 3.950000e-01    2.700000e+00
  TN6a   N4h  1 3.950000e-01    2.940000e+00
  TN5a   N4h  1 3.950000e-01    2.700000e+00
  TN4h   N4a  1 3.950000e-01    2.700000e+00
  TN4h   N1a  1 3.950000e-01    2.310000e+00
  TN4h   N2a  1 3.950000e-01    2.500000e+00
  TN4h   N3a  1 3.950000e-01    2.500000e+00
  TN4h   C6v  1 3.950000e-01    2.500000e+00
  TN4h   C5v  1 3.950000e-01    2.310000e+00
  TN4h   C4v  1 3.950000e-01    2.310000e+00
  TN4h   C3v  1 3.950000e-01    2.110000e+00
  TN4h   C2v  1 3.950000e-01    1.850000e+00
  TN4h   C1v  1 3.950000e-01    1.670000e+00
  TN4h   X4v  1 3.950000e-01    2.940000e+00
  TN4h   X3v  1 3.950000e-01    2.700000e+00
  TN4h   X2v  1 3.950000e-01    2.310000e+00
  TN4h   X1v  1 3.950000e-01    2.110000e+00
  TN4h   C6e  1 3.950000e-01    2.500000e+00
  TN4h   C5e  1 3.950000e-01    2.310000e+00
  TN4h   C4e  1 3.950000e-01    2.310000e+00
  TN4h   C3e  1 3.950000e-01    2.110000e+00
  TN4h   C2e  1 3.950000e-01    1.850000e+00
  TN4h   C1e  1 3.950000e-01    1.670000e+00
  TN4h   X4e  1 3.950000e-01    2.940000e+00
  TN4h   X3e  1 3.950000e-01    2.700000e+00
  TN4h   X2e  1 3.950000e-01    2.310000e+00
  TN4h   X1e  1 3.950000e-01    2.110000e+00
  TP6q   N4h  1 3.950000e-01    2.700000e+00
  TP5q   N4h  1 3.950000e-01    2.940000e+00
  TP4q   N4h  1 3.950000e-01    2.940000e+00
  TP3q   N4h  1 3.950000e-01    2.940000e+00
  TP2q   N4h  1 3.950000e-01    2.940000e+00
  TP1q   N4h  1 3.950000e-01    3.190000e+00
  TN6q   N4h  1 3.950000e-01    3.430000e+00
  TN5q   N4h  1 3.950000e-01    3.190000e+00
  TN4h   N4q  1 3.950000e-01    3.190000e+00
  TN4h  X1eq  1 3.950000e-01    2.500000e+00
  TN4h  X2eq  1 3.950000e-01    2.700000e+00
  TN4h  X3eq  1 3.950000e-01    3.190000e+00
  TN4h  X4eq  1 3.950000e-01    3.430000e+00
  TN4h  C1eq  1 3.950000e-01    2.110000e+00
  TN4h  C2eq  1 3.950000e-01    2.310000e+00
  TN4h  C3eq  1 3.950000e-01    2.500000e+00
  TN4h  C4eq  1 3.950000e-01    2.700000e+00
  TN4h  C5eq  1 3.950000e-01    2.700000e+00
  TN4h  C6eq  1 3.950000e-01    2.940000e+00
  TN4h  X1vq  1 3.950000e-01    2.500000e+00
  TN4h  X2vq  1 3.950000e-01    2.700000e+00
  TN4h  X3vq  1 3.950000e-01    3.190000e+00
  TN4h  X4vq  1 3.950000e-01    3.430000e+00
  TN4h  C1vq  1 3.950000e-01    2.110000e+00
  TN4h  C2vq  1 3.950000e-01    2.310000e+00
  TN4h  C3vq  1 3.950000e-01    2.500000e+00
  TN4h  C4vq  1 3.950000e-01    2.700000e+00
  TN4h  C5vq  1 3.950000e-01    2.700000e+00
  TN4h  C6vq  1 3.950000e-01    2.940000e+00
  TN4h  N1aq  1 3.950000e-01    2.700000e+00
  TN4h  N2aq  1 3.950000e-01    2.940000e+00
  TN4h  N3aq  1 3.950000e-01    2.940000e+00
  TN4h  N4aq  1 3.950000e-01    3.190000e+00
 TN5aq   N4h  1 3.950000e-01    3.190000e+00
 TN6aq   N4h  1 3.950000e-01    3.430000e+00
 TP1aq   N4h  1 3.950000e-01    3.190000e+00
 TP2aq   N4h  1 3.950000e-01    2.940000e+00
 TP3aq   N4h  1 3.950000e-01    2.940000e+00
 TP4aq   N4h  1 3.950000e-01    2.940000e+00
 TP5aq   N4h  1 3.950000e-01    2.940000e+00
 TP6aq   N4h  1 3.950000e-01    2.700000e+00
  TN4h  N1dq  1 3.950000e-01    2.700000e+00
  TN4h  N2dq  1 3.950000e-01    2.940000e+00
  TN4h  N3dq  1 3.950000e-01    2.940000e+00
  TN4h  N4dq  1 3.950000e-01    3.190000e+00
 TN5dq   N4h  1 3.950000e-01    3.190000e+00
 TN6dq   N4h  1 3.950000e-01    3.430000e+00
 TP1dq   N4h  1 3.950000e-01    3.190000e+00
 TP2dq   N4h  1 3.950000e-01    2.940000e+00
 TP3dq   N4h  1 3.950000e-01    2.940000e+00
 TP4dq   N4h  1 3.950000e-01    2.940000e+00
 TP5dq   N4h  1 3.950000e-01    2.940000e+00
 TP6dq   N4h  1 3.950000e-01    2.700000e+00
  TN4h   X1q  1 3.950000e-01    2.310000e+00
  TN4h   X2q  1 3.950000e-01    2.500000e+00
  TN4h   X3q  1 3.950000e-01    2.940000e+00
  TN4h   X4q  1 3.950000e-01    3.190000e+00
  TN4h   C1q  1 3.950000e-01    1.850000e+00
  TN4h   C2q  1 3.950000e-01    2.110000e+00
  TN4h   C3q  1 3.950000e-01    2.310000e+00
  TN4h   C4q  1 3.950000e-01    2.500000e+00
  TN4h   C5q  1 3.950000e-01    2.500000e+00
  TN4h   C6q  1 3.950000e-01    2.700000e+00
  TN4h   N1q  1 3.950000e-01    2.700000e+00
  TN4h   N2q  1 3.950000e-01    2.940000e+00
  TN4h   N3q  1 3.950000e-01    2.940000e+00
  TP6d   N3h  1 3.950000e-01    2.110000e+00
  TP5d   N3h  1 3.950000e-01    2.110000e+00
  TP4d   N3h  1 3.950000e-01    2.310000e+00
  TP3d   N3h  1 3.950000e-01    2.310000e+00
  TP2d   N3h  1 3.950000e-01    2.310000e+00
  TP1d   N3h  1 3.950000e-01    2.310000e+00
  TN6d   N3h  1 3.950000e-01    2.500000e+00
  TN5d   N3h  1 3.950000e-01    2.500000e+00
  TN4d   N3h  1 3.950000e-01    2.500000e+00
  TN3h   N3d  1 3.950000e-01    2.500000e+00
  TN3h   N1d  1 3.950000e-01    2.310000e+00
  TN3h   N2d  1 3.950000e-01    2.500000e+00
  TP6a   N3h  1 3.950000e-01    2.110000e+00
  TP5a   N3h  1 3.950000e-01    2.110000e+00
  TP4a   N3h  1 3.950000e-01    2.310000e+00
  TP3a   N3h  1 3.950000e-01    2.310000e+00
  TP2a   N3h  1 3.950000e-01    2.310000e+00
  TP1a   N3h  1 3.950000e-01    2.310000e+00
  TN6a   N3h  1 3.950000e-01    2.500000e+00
  TN5a   N3h  1 3.950000e-01    2.500000e+00
  TN4a   N3h  1 3.950000e-01    2.500000e+00
  TN3h   N3a  1 3.950000e-01    2.500000e+00
  TN3h   N1a  1 3.950000e-01    2.310000e+00
  TN3h   N2a  1 3.950000e-01    2.500000e+00
  TN3h   C6v  1 3.950000e-01    2.500000e+00
  TN3h   C5v  1 3.950000e-01    2.310000e+00
  TN3h   C4v  1 3.950000e-01    2.310000e+00
  TN3h   C3v  1 3.950000e-01    2.110000e+00
  TN3h   C2v  1 3.950000e-01    2.110000e+00
  TN3h   C1v  1 3.950000e-01    1.850000e+00
  TN3h   X4v  1 3.950000e-01    2.700000e+00
  TN3h   X3v  1 3.950000e-01    2.500000e+00
  TN3h   X2v  1 3.950000e-01    2.310000e+00
  TN3h   X1v  1 3.950000e-01    2.310000e+00
  TN3h   C6e  1 3.950000e-01    2.500000e+00
  TN3h   C5e  1 3.950000e-01    2.310000e+00
  TN3h   C4e  1 3.950000e-01    2.310000e+00
  TN3h   C3e  1 3.950000e-01    2.110000e+00
  TN3h   C2e  1 3.950000e-01    2.110000e+00
  TN3h   C1e  1 3.950000e-01    1.850000e+00
  TN3h   X4e  1 3.950000e-01    2.700000e+00
  TN3h   X3e  1 3.950000e-01    2.500000e+00
  TN3h   X2e  1 3.950000e-01    2.310000e+00
  TN3h   X1e  1 3.950000e-01    2.310000e+00
  TP6q   N3h  1 3.950000e-01    2.500000e+00
  TP5q   N3h  1 3.950000e-01    2.500000e+00
  TP4q   N3h  1 3.950000e-01    2.700000e+00
  TP3q   N3h  1 3.950000e-01    2.700000e+00
  TP2q   N3h  1 3.950000e-01    2.700000e+00
  TP1q   N3h  1 3.950000e-01    2.700000e+00
  TN6q   N3h  1 3.950000e-01    2.940000e+00
  TN5q   N3h  1 3.950000e-01    2.940000e+00
  TN4q   N3h  1 3.950000e-01    2.940000e+00
  TN3h   N3q  1 3.950000e-01    2.940000e+00
  TN3h  X1eq  1 3.950000e-01    2.700000e+00
  TN3h  X2eq  1 3.950000e-01    2.700000e+00
  TN3h  X3eq  1 3.950000e-01    2.940000e+00
  TN3h  X4eq  1 3.950000e-01    3.190000e+00
  TN3h  C1eq  1 3.950000e-01    2.310000e+00
  TN3h  C2eq  1 3.950000e-01    2.500000e+00
  TN3h  C3eq  1 3.950000e-01    2.500000e+00
  TN3h  C4eq  1 3.950000e-01    2.700000e+00
  TN3h  C5eq  1 3.950000e-01    2.700000e+00
  TN3h  C6eq  1 3.950000e-01    2.940000e+00
  TN3h  X1vq  1 3.950000e-01    2.700000e+00
  TN3h  X2vq  1 3.950000e-01    2.700000e+00
  TN3h  X3vq  1 3.950000e-01    2.940000e+00
  TN3h  X4vq  1 3.950000e-01    3.190000e+00
  TN3h  C1vq  1 3.950000e-01    2.310000e+00
  TN3h  C2vq  1 3.950000e-01    2.500000e+00
  TN3h  C3vq  1 3.950000e-01    2.500000e+00
  TN3h  C4vq  1 3.950000e-01    2.700000e+00
  TN3h  C5vq  1 3.950000e-01    2.700000e+00
  TN3h  C6vq  1 3.950000e-01    2.940000e+00
  TN3h  N1aq  1 3.950000e-01    2.700000e+00
  TN3h  N2aq  1 3.950000e-01    2.940000e+00
  TN3h  N3aq  1 3.950000e-01    2.940000e+00
 TN4aq   N3h  1 3.950000e-01    2.940000e+00
 TN5aq   N3h  1 3.950000e-01    2.940000e+00
 TN6aq   N3h  1 3.950000e-01    2.940000e+00
 TP1aq   N3h  1 3.950000e-01    2.700000e+00
 TP2aq   N3h  1 3.950000e-01    2.700000e+00
 TP3aq   N3h  1 3.950000e-01    2.700000e+00
 TP4aq   N3h  1 3.950000e-01    2.700000e+00
 TP5aq   N3h  1 3.950000e-01    2.500000e+00
 TP6aq   N3h  1 3.950000e-01    2.500000e+00
  TN3h  N1dq  1 3.950000e-01    2.700000e+00
  TN3h  N2dq  1 3.950000e-01    2.940000e+00
  TN3h  N3dq  1 3.950000e-01    2.940000e+00
 TN4dq   N3h  1 3.950000e-01    2.940000e+00
 TN5dq   N3h  1 3.950000e-01    2.940000e+00
 TN6dq   N3h  1 3.950000e-01    2.940000e+00
 TP1dq   N3h  1 3.950000e-01    2.700000e+00
 TP2dq   N3h  1 3.950000e-01    2.700000e+00
 TP3dq   N3h  1 3.950000e-01    2.700000e+00
 TP4dq   N3h  1 3.950000e-01    2.700000e+00
 TP5dq   N3h  1 3.950000e-01    2.500000e+00
 TP6dq   N3h  1 3.950000e-01    2.500000e+00
  TN3h   X1q  1 3.950000e-01    2.500000e+00
  TN3h   X2q  1 3.950000e-01    2.500000e+00
  TN3h   X3q  1 3.950000e-01    2.700000e+00
  TN3h   X4q  1 3.950000e-01    2.940000e+00
  TN3h   C1q  1 3.950000e-01    2.110000e+00
  TN3h   C2q  1 3.950000e-01    2.310000e+00
  TN3h   C3q  1 3.950000e-01    2.310000e+00
  TN3h   C4q  1 3.950000e-01    2.500000e+00
  TN3h   C5q  1 3.950000e-01    2.500000e+00
  TN3h   C6q  1 3.950000e-01    2.700000e+00
  TN3h   N1q  1 3.950000e-01    2.700000e+00
  TN3h   N2q  1 3.950000e-01    2.940000e+00
  TP6d   N2h  1 3.950000e-01    1.850000e+00
  TP5d   N2h  1 3.950000e-01    1.850000e+00
  TP4d   N2h  1 3.950000e-01    2.110000e+00
  TP3d   N2h  1 3.950000e-01    2.310000e+00
  TP2d   N2h  1 3.950000e-01    2.310000e+00
  TP1d   N2h  1 3.950000e-01    2.310000e+00
  TN6d   N2h  1 3.950000e-01    2.310000e+00
  TN5d   N2h  1 3.950000e-01    2.500000e+00
  TN4d   N2h  1 3.950000e-01    2.500000e+00
  TN3d   N2h  1 3.950000e-01    2.500000e+00
  TN2h   N2d  1 3.950000e-01    2.500000e+00
  TN2h   N1d  1 3.950000e-01    2.310000e+00
  TP6a   N2h  1 3.950000e-01    1.850000e+00
  TP5a   N2h  1 3.950000e-01    1.850000e+00
  TP4a   N2h  1 3.950000e-01    2.110000e+00
  TP3a   N2h  1 3.950000e-01    2.310000e+00
  TP2a   N2h  1 3.950000e-01    2.310000e+00
  TP1a   N2h  1 3.950000e-01    2.310000e+00
  TN6a   N2h  1 3.950000e-01    2.310000e+00
  TN5a   N2h  1 3.950000e-01    2.500000e+00
  TN4a   N2h  1 3.950000e-01    2.500000e+00
  TN3a   N2h  1 3.950000e-01    2.500000e+00
  TN2h   N2a  1 3.950000e-01    2.500000e+00
  TN2h   N1a  1 3.950000e-01    2.310000e+00
  TN2h   C6v  1 3.950000e-01    2.500000e+00
  TN2h   C5v  1 3.950000e-01    2.310000e+00
  TN2h   C4v  1 3.950000e-01    2.310000e+00
  TN2h   C3v  1 3.950000e-01    2.310000e+00
  TN2h   C2v  1 3.950000e-01    2.110000e+00
  TN2h   C1v  1 3.950000e-01    1.850000e+00
  TN2h   X4v  1 3.950000e-01    2.700000e+00
  TN2h   X3v  1 3.950000e-01    2.500000e+00
  TN2h   X2v  1 3.950000e-01    2.310000e+00
  TN2h   X1v  1 3.950000e-01    2.310000e+00
  TN2h   C6e  1 3.950000e-01    2.500000e+00
  TN2h   C5e  1 3.950000e-01    2.310000e+00
  TN2h   C4e  1 3.950000e-01    2.310000e+00
  TN2h   C3e  1 3.950000e-01    2.310000e+00
  TN2h   C2e  1 3.950000e-01    2.110000e+00
  TN2h   C1e  1 3.950000e-01    1.850000e+00
  TN2h   X4e  1 3.950000e-01    2.700000e+00
  TN2h   X3e  1 3.950000e-01    2.500000e+00
  TN2h   X2e  1 3.950000e-01    2.310000e+00
  TN2h   X1e  1 3.950000e-01    2.310000e+00
  TP6q   N2h  1 3.950000e-01    2.310000e+00
  TP5q   N2h  1 3.950000e-01    2.310000e+00
  TP4q   N2h  1 3.950000e-01    2.500000e+00
  TP3q   N2h  1 3.950000e-01    2.700000e+00
  TP2q   N2h  1 3.950000e-01    2.700000e+00
  TP1q   N2h  1 3.950000e-01    2.700000e+00
  TN6q   N2h  1 3.950000e-01    2.700000e+00
  TN5q   N2h  1 3.950000e-01    2.940000e+00
  TN4q   N2h  1 3.950000e-01    2.940000e+00
  TN3q   N2h  1 3.950000e-01    2.940000e+00
  TN2h   N2q  1 3.950000e-01    2.940000e+00
  TN2h  X1eq  1 3.950000e-01    2.700000e+00
  TN2h  X2eq  1 3.950000e-01    2.700000e+00
  TN2h  X3eq  1 3.950000e-01    2.940000e+00
  TN2h  X4eq  1 3.950000e-01    3.190000e+00
  TN2h  C1eq  1 3.950000e-01    2.310000e+00
  TN2h  C2eq  1 3.950000e-01    2.500000e+00
  TN2h  C3eq  1 3.950000e-01    2.700000e+00
  TN2h  C4eq  1 3.950000e-01    2.700000e+00
  TN2h  C5eq  1 3.950000e-01    2.700000e+00
  TN2h  C6eq  1 3.950000e-01    2.940000e+00
  TN2h  X1vq  1 3.950000e-01    2.700000e+00
  TN2h  X2vq  1 3.950000e-01    2.700000e+00
  TN2h  X3vq  1 3.950000e-01    2.940000e+00
  TN2h  X4vq  1 3.950000e-01    3.190000e+00
  TN2h  C1vq  1 3.950000e-01    2.310000e+00
  TN2h  C2vq  1 3.950000e-01    2.500000e+00
  TN2h  C3vq  1 3.950000e-01    2.700000e+00
  TN2h  C4vq  1 3.950000e-01    2.700000e+00
  TN2h  C5vq  1 3.950000e-01    2.700000e+00
  TN2h  C6vq  1 3.950000e-01    2.940000e+00
  TN2h  N1aq  1 3.950000e-01    2.700000e+00
  TN2h  N2aq  1 3.950000e-01    2.940000e+00
 TN3aq   N2h  1 3.950000e-01    2.940000e+00
 TN4aq   N2h  1 3.950000e-01    2.940000e+00
 TN5aq   N2h  1 3.950000e-01    2.940000e+00
 TN6aq   N2h  1 3.950000e-01    2.700000e+00
 TP1aq   N2h  1 3.950000e-01    2.700000e+00
 TP2aq   N2h  1 3.950000e-01    2.700000e+00
 TP3aq   N2h  1 3.950000e-01    2.700000e+00
 TP4aq   N2h  1 3.950000e-01    2.500000e+00
 TP5aq   N2h  1 3.950000e-01    2.310000e+00
 TP6aq   N2h  1 3.950000e-01    2.310000e+00
  TN2h  N1dq  1 3.950000e-01    2.700000e+00
  TN2h  N2dq  1 3.950000e-01    2.940000e+00
 TN3dq   N2h  1 3.950000e-01    2.940000e+00
 TN4dq   N2h  1 3.950000e-01    2.940000e+00
 TN5dq   N2h  1 3.950000e-01    2.940000e+00
 TN6dq   N2h  1 3.950000e-01    2.700000e+00
 TP1dq   N2h  1 3.950000e-01    2.700000e+00
 TP2dq   N2h  1 3.950000e-01    2.700000e+00
 TP3dq   N2h  1 3.950000e-01    2.700000e+00
 TP4dq   N2h  1 3.950000e-01    2.500000e+00
 TP5dq   N2h  1 3.950000e-01    2.310000e+00
 TP6dq   N2h  1 3.950000e-01    2.310000e+00
  TN2h   X1q  1 3.950000e-01    2.500000e+00
  TN2h   X2q  1 3.950000e-01    2.500000e+00
  TN2h   X3q  1 3.950000e-01    2.700000e+00
  TN2h   X4q  1 3.950000e-01    2.940000e+00
  TN2h   C1q  1 3.950000e-01    2.110000e+00
  TN2h   C2q  1 3.950000e-01    2.310000e+00
  TN2h   C3q  1 3.950000e-01    2.500000e+00
  TN2h   C4q  1 3.950000e-01    2.500000e+00
  TN2h   C5q  1 3.950000e-01    2.500000e+00
  TN2h   C6q  1 3.950000e-01    2.700000e+00
  TN2h   N1q  1 3.950000e-01    2.700000e+00
  TP6d   N1h  1 3.950000e-01    1.670000e+00
  TP5d   N1h  1 3.950000e-01    1.670000e+00
  TP4d   N1h  1 3.950000e-01    1.850000e+00
  TP3d   N1h  1 3.950000e-01    2.110000e+00
  TP2d   N1h  1 3.950000e-01    2.310000e+00
  TP1d   N1h  1 3.950000e-01    2.310000e+00
  TN6d   N1h  1 3.950000e-01    2.310000e+00
  TN5d   N1h  1 3.950000e-01    2.310000e+00
  TN4d   N1h  1 3.950000e-01    2.310000e+00
  TN3d   N1h  1 3.950000e-01    2.310000e+00
  TN2d   N1h  1 3.950000e-01    2.310000e+00
  TN1h   N1d  1 3.950000e-01    2.500000e+00
  TP6a   N1h  1 3.950000e-01    1.670000e+00
  TP5a   N1h  1 3.950000e-01    1.670000e+00
  TP4a   N1h  1 3.950000e-01    1.850000e+00
  TP3a   N1h  1 3.950000e-01    2.110000e+00
  TP2a   N1h  1 3.950000e-01    2.310000e+00
  TP1a   N1h  1 3.950000e-01    2.310000e+00
  TN6a   N1h  1 3.950000e-01    2.310000e+00
  TN5a   N1h  1 3.950000e-01    2.310000e+00
  TN4a   N1h  1 3.950000e-01    2.310000e+00
  TN3a   N1h  1 3.950000e-01    2.310000e+00
  TN2a   N1h  1 3.950000e-01    2.310000e+00
  TN1h   N1a  1 3.950000e-01    2.500000e+00
  TN1h   C6v  1 3.950000e-01    2.700000e+00
  TN1h   C5v  1 3.950000e-01    2.500000e+00
  TN1h   C4v  1 3.950000e-01    2.500000e+00
  TN1h   C3v  1 3.950000e-01    2.310000e+00
  TN1h   C2v  1 3.950000e-01    2.110000e+00
  TN1h   C1v  1 3.950000e-01    1.850000e+00
  TN1h   X4v  1 3.950000e-01    2.500000e+00
  TN1h   X3v  1 3.950000e-01    2.500000e+00
  TN1h   X2v  1 3.950000e-01    2.310000e+00
  TN1h   X1v  1 3.950000e-01    2.310000e+00
  TN1h   C6e  1 3.950000e-01    2.700000e+00
  TN1h   C5e  1 3.950000e-01    2.500000e+00
  TN1h   C4e  1 3.950000e-01    2.500000e+00
  TN1h   C3e  1 3.950000e-01    2.310000e+00
  TN1h   C2e  1 3.950000e-01    2.110000e+00
  TN1h   C1e  1 3.950000e-01    1.850000e+00
  TN1h   X4e  1 3.950000e-01    2.500000e+00
  TN1h   X3e  1 3.950000e-01    2.500000e+00
  TN1h   X2e  1 3.950000e-01    2.310000e+00
  TN1h   X1e  1 3.950000e-01    2.310000e+00
  TP6q   N1h  1 3.950000e-01    2.110000e+00
  TP5q   N1h  1 3.950000e-01    2.110000e+00
  TP4q   N1h  1 3.950000e-01    2.310000e+00
  TP3q   N1h  1 3.950000e-01    2.500000e+00
  TP2q   N1h  1 3.950000e-01    2.700000e+00
  TP1q   N1h  1 3.950000e-01    2.700000e+00
  TN6q   N1h  1 3.950000e-01    2.700000e+00
  TN5q   N1h  1 3.950000e-01    2.700000e+00
  TN4q   N1h  1 3.950000e-01    2.700000e+00
  TN3q   N1h  1 3.950000e-01    2.700000e+00
  TN2q   N1h  1 3.950000e-01    2.700000e+00
  TN1h   N1q  1 3.950000e-01    2.940000e+00
  TN1h  X1eq  1 3.950000e-01    2.700000e+00
  TN1h  X2eq  1 3.950000e-01    2.700000e+00
  TN1h  X3eq  1 3.950000e-01    2.940000e+00
  TN1h  X4eq  1 3.950000e-01    2.940000e+00
  TN1h  C1eq  1 3.950000e-01    2.310000e+00
  TN1h  C2eq  1 3.950000e-01    2.500000e+00
  TN1h  C3eq  1 3.950000e-01    2.700000e+00
  TN1h  C4eq  1 3.950000e-01    2.940000e+00
  TN1h  C5eq  1 3.950000e-01    2.940000e+00
  TN1h  C6eq  1 3.950000e-01    3.190000e+00
  TN1h  X1vq  1 3.950000e-01    2.700000e+00
  TN1h  X2vq  1 3.950000e-01    2.700000e+00
  TN1h  X3vq  1 3.950000e-01    2.940000e+00
  TN1h  X4vq  1 3.950000e-01    2.940000e+00
  TN1h  C1vq  1 3.950000e-01    2.310000e+00
  TN1h  C2vq  1 3.950000e-01    2.500000e+00
  TN1h  C3vq  1 3.950000e-01    2.700000e+00
  TN1h  C4vq  1 3.950000e-01    2.940000e+00
  TN1h  C5vq  1 3.950000e-01    2.940000e+00
  TN1h  C6vq  1 3.950000e-01    3.190000e+00
  TN1h  N1aq  1 3.950000e-01    2.940000e+00
 TN2aq   N1h  1 3.950000e-01    2.700000e+00
 TN3aq   N1h  1 3.950000e-01    2.700000e+00
 TN4aq   N1h  1 3.950000e-01    2.700000e+00
 TN5aq   N1h  1 3.950000e-01    2.700000e+00
 TN6aq   N1h  1 3.950000e-01    2.700000e+00
 TP1aq   N1h  1 3.950000e-01    2.700000e+00
 TP2aq   N1h  1 3.950000e-01    2.700000e+00
 TP3aq   N1h  1 3.950000e-01    2.500000e+00
 TP4aq   N1h  1 3.950000e-01    2.310000e+00
 TP5aq   N1h  1 3.950000e-01    2.110000e+00
 TP6aq   N1h  1 3.950000e-01    2.110000e+00
  TN1h  N1dq  1 3.950000e-01    2.940000e+00
 TN2dq   N1h  1 3.950000e-01    2.700000e+00
 TN3dq   N1h  1 3.950000e-01    2.700000e+00
 TN4dq   N1h  1 3.950000e-01    2.700000e+00
 TN5dq   N1h  1 3.950000e-01    2.700000e+00
 TN6dq   N1h  1 3.950000e-01    2.700000e+00
 TP1dq   N1h  1 3.950000e-01    2.700000e+00
 TP2dq   N1h  1 3.950000e-01    2.700000e+00
 TP3dq   N1h  1 3.950000e-01    2.500000e+00
 TP4dq   N1h  1 3.950000e-01    2.310000e+00
 TP5dq   N1h  1 3.950000e-01    2.110000e+00
 TP6dq   N1h  1 3.950000e-01    2.110000e+00
  TN1h   X1q  1 3.950000e-01    2.500000e+00
  TN1h   X2q  1 3.950000e-01    2.500000e+00
  TN1h   X3q  1 3.950000e-01    2.700000e+00
  TN1h   X4q  1 3.950000e-01    2.700000e+00
  TN1h   C1q  1 3.950000e-01    2.110000e+00
  TN1h   C2q  1 3.950000e-01    2.310000e+00
  TN1h   C3q  1 3.950000e-01    2.500000e+00
  TN1h   C4q  1 3.950000e-01    2.700000e+00
  TN1h   C5q  1 3.950000e-01    2.700000e+00
  TN1h   C6q  1 3.950000e-01    2.940000e+00
  TP6d   C6h  1 3.950000e-01    1.670000e+00
  TP5d   C6h  1 3.950000e-01    1.670000e+00
  TP4d   C6h  1 3.950000e-01    1.850000e+00
  TP3d   C6h  1 3.950000e-01    2.110000e+00
  TP2d   C6h  1 3.950000e-01    2.110000e+00
  TP1d   C6h  1 3.950000e-01    2.110000e+00
  TN6d   C6h  1 3.950000e-01    2.310000e+00
  TN5d   C6h  1 3.950000e-01    2.310000e+00
  TN4d   C6h  1 3.950000e-01    2.310000e+00
  TN3d   C6h  1 3.950000e-01    2.310000e+00
  TN2d   C6h  1 3.950000e-01    2.310000e+00
  TN1d   C6h  1 3.950000e-01    2.500000e+00
  TP6a   C6h  1 3.950000e-01    1.670000e+00
  TP5a   C6h  1 3.950000e-01    1.670000e+00
  TP4a   C6h  1 3.950000e-01    1.850000e+00
  TP3a   C6h  1 3.950000e-01    2.110000e+00
  TP2a   C6h  1 3.950000e-01    2.110000e+00
  TP1a   C6h  1 3.950000e-01    2.110000e+00
  TN6a   C6h  1 3.950000e-01    2.310000e+00
  TN5a   C6h  1 3.950000e-01    2.310000e+00
  TN4a   C6h  1 3.950000e-01    2.310000e+00
  TN3a   C6h  1 3.950000e-01    2.310000e+00
  TN2a   C6h  1 3.950000e-01    2.310000e+00
  TN1a   C6h  1 3.950000e-01    2.500000e+00
  TC6h   C6v  1 3.950000e-01    2.700000e+00
  TC6h   X1v  1 3.950000e-01    2.500000e+00
  TC6h   X2v  1 3.950000e-01    2.500000e+00
  TC6h   X3v  1 3.950000e-01    2.500000e+00
  TC6h   X4v  1 3.950000e-01    2.500000e+00
  TC6h   C1v  1 3.950000e-01    1.850000e+00
  TC6h   C2v  1 3.950000e-01    2.110000e+00
  TC6h   C3v  1 3.950000e-01    2.310000e+00
  TC6h   C4v  1 3.950000e-01    2.500000e+00
  TC6h   C5v  1 3.950000e-01    2.500000e+00
  TC6h   C6e  1 3.950000e-01    2.700000e+00
  TC6h   X1e  1 3.950000e-01    2.500000e+00
  TC6h   X2e  1 3.950000e-01    2.500000e+00
  TC6h   X3e  1 3.950000e-01    2.500000e+00
  TC6h   X4e  1 3.950000e-01    2.500000e+00
  TC6h   C1e  1 3.950000e-01    1.850000e+00
  TC6h   C2e  1 3.950000e-01    2.110000e+00
  TC6h   C3e  1 3.950000e-01    2.310000e+00
  TC6h   C4e  1 3.950000e-01    2.500000e+00
  TC6h   C5e  1 3.950000e-01    2.500000e+00
  TP6q   C6h  1 3.950000e-01    2.110000e+00
  TP5q   C6h  1 3.950000e-01    2.110000e+00
  TP4q   C6h  1 3.950000e-01    2.310000e+00
  TP3q   C6h  1 3.950000e-01    2.500000e+00
  TP2q   C6h  1 3.950000e-01    2.500000e+00
  TP1q   C6h  1 3.950000e-01    2.500000e+00
  TN6q   C6h  1 3.950000e-01    2.700000e+00
  TN5q   C6h  1 3.950000e-01    2.700000e+00
  TN4q   C6h  1 3.950000e-01    2.700000e+00
  TN3q   C6h  1 3.950000e-01    2.700000e+00
  TN2q   C6h  1 3.950000e-01    2.700000e+00
  TN1q   C6h  1 3.950000e-01    2.940000e+00
  TC6h   C6q  1 3.950000e-01    2.940000e+00
  TC6h  X1eq  1 3.950000e-01    2.940000e+00
  TC6h  X2eq  1 3.950000e-01    2.940000e+00
  TC6h  X3eq  1 3.950000e-01    2.940000e+00
  TC6h  X4eq  1 3.950000e-01    2.940000e+00
  TC6h  C1eq  1 3.950000e-01    2.310000e+00
  TC6h  C2eq  1 3.950000e-01    2.500000e+00
  TC6h  C3eq  1 3.950000e-01    2.700000e+00
  TC6h  C4eq  1 3.950000e-01    2.940000e+00
  TC6h  C5eq  1 3.950000e-01    2.940000e+00
  TC6h  C6eq  1 3.950000e-01    3.190000e+00
  TC6h  X1vq  1 3.950000e-01    2.940000e+00
  TC6h  X2vq  1 3.950000e-01    2.940000e+00
  TC6h  X3vq  1 3.950000e-01    2.940000e+00
  TC6h  X4vq  1 3.950000e-01    2.940000e+00
  TC6h  C1vq  1 3.950000e-01    2.310000e+00
  TC6h  C2vq  1 3.950000e-01    2.500000e+00
  TC6h  C3vq  1 3.950000e-01    2.700000e+00
  TC6h  C4vq  1 3.950000e-01    2.940000e+00
  TC6h  C5vq  1 3.950000e-01    2.940000e+00
  TC6h  C6vq  1 3.950000e-01    3.190000e+00
 TN1aq   C6h  1 3.950000e-01    2.940000e+00
 TN2aq   C6h  1 3.950000e-01    2.700000e+00
 TN3aq   C6h  1 3.950000e-01    2.700000e+00
 TN4aq   C6h  1 3.950000e-01    2.700000e+00
 TN5aq   C6h  1 3.950000e-01    2.700000e+00
 TN6aq   C6h  1 3.950000e-01    2.700000e+00
 TP1aq   C6h  1 3.950000e-01    2.500000e+00
 TP2aq   C6h  1 3.950000e-01    2.500000e+00
 TP3aq   C6h  1 3.950000e-01    2.500000e+00
 TP4aq   C6h  1 3.950000e-01    2.310000e+00
 TP5aq   C6h  1 3.950000e-01    2.110000e+00
 TP6aq   C6h  1 3.950000e-01    2.110000e+00
 TN1dq   C6h  1 3.950000e-01    2.940000e+00
 TN2dq   C6h  1 3.950000e-01    2.700000e+00
 TN3dq   C6h  1 3.950000e-01    2.700000e+00
 TN4dq   C6h  1 3.950000e-01    2.700000e+00
 TN5dq   C6h  1 3.950000e-01    2.700000e+00
 TN6dq   C6h  1 3.950000e-01    2.700000e+00
 TP1dq   C6h  1 3.950000e-01    2.500000e+00
 TP2dq   C6h  1 3.950000e-01    2.500000e+00
 TP3dq   C6h  1 3.950000e-01    2.500000e+00
 TP4dq   C6h  1 3.950000e-01    2.310000e+00
 TP5dq   C6h  1 3.950000e-01    2.110000e+00
 TP6dq   C6h  1 3.950000e-01    2.110000e+00
  TC6h   X1q  1 3.950000e-01    2.700000e+00
  TC6h   X2q  1 3.950000e-01    2.700000e+00
  TC6h   X3q  1 3.950000e-01    2.700000e+00
  TC6h   X4q  1 3.950000e-01    2.700000e+00
  TC6h   C1q  1 3.950000e-01    2.110000e+00
  TC6h   C2q  1 3.950000e-01    2.310000e+00
  TC6h   C3q  1 3.950000e-01    2.500000e+00
  TC6h   C4q  1 3.950000e-01    2.700000e+00
  TC6h   C5q  1 3.950000e-01    2.700000e+00
  TP6d   C5h  1 3.980000e-01    1.450000e+00
  TP5d   C5h  1 3.950000e-01    1.670000e+00
  TP4d   C5h  1 3.950000e-01    1.670000e+00
  TP3d   C5h  1 3.950000e-01    1.850000e+00
  TP2d   C5h  1 3.950000e-01    1.850000e+00
  TP1d   C5h  1 3.950000e-01    1.850000e+00
  TN6d   C5h  1 3.950000e-01    2.110000e+00
  TN5d   C5h  1 3.950000e-01    2.110000e+00
  TN4d   C5h  1 3.950000e-01    2.110000e+00
  TN3d   C5h  1 3.950000e-01    2.110000e+00
  TN2d   C5h  1 3.950000e-01    2.110000e+00
  TN1d   C5h  1 3.950000e-01    2.310000e+00
  TP6a   C5h  1 3.980000e-01    1.450000e+00
  TP5a   C5h  1 3.950000e-01    1.670000e+00
  TP4a   C5h  1 3.950000e-01    1.670000e+00
  TP3a   C5h  1 3.950000e-01    1.850000e+00
  TP2a   C5h  1 3.950000e-01    1.850000e+00
  TP1a   C5h  1 3.950000e-01    1.850000e+00
  TN6a   C5h  1 3.950000e-01    2.110000e+00
  TN5a   C5h  1 3.950000e-01    2.110000e+00
  TN4a   C5h  1 3.950000e-01    2.110000e+00
  TN3a   C5h  1 3.950000e-01    2.110000e+00
  TN2a   C5h  1 3.950000e-01    2.110000e+00
  TN1a   C5h  1 3.950000e-01    2.310000e+00
  TC6v   C5h  1 3.950000e-01    2.500000e+00
  TC5h   C5v  1 3.950000e-01    2.500000e+00
  TC5h   X1v  1 3.950000e-01    2.500000e+00
  TC5h   X2v  1 3.950000e-01    2.310000e+00
  TC5h   X3v  1 3.950000e-01    2.310000e+00
  TC5h   X4v  1 3.950000e-01    2.310000e+00
  TC5h   C1v  1 3.950000e-01    2.110000e+00
  TC5h   C2v  1 3.950000e-01    2.110000e+00
  TC5h   C3v  1 3.950000e-01    2.310000e+00
  TC5h   C4v  1 3.950000e-01    2.500000e+00
  TC6e   C5h  1 3.950000e-01    2.500000e+00
  TC5h   C5e  1 3.950000e-01    2.500000e+00
  TC5h   X1e  1 3.950000e-01    2.500000e+00
  TC5h   X2e  1 3.950000e-01    2.310000e+00
  TC5h   X3e  1 3.950000e-01    2.310000e+00
  TC5h   X4e  1 3.950000e-01    2.310000e+00
  TC5h   C1e  1 3.950000e-01    2.110000e+00
  TC5h   C2e  1 3.950000e-01    2.110000e+00
  TC5h   C3e  1 3.950000e-01    2.310000e+00
  TC5h   C4e  1 3.950000e-01    2.500000e+00
  TP6q   C5h  1 3.950000e-01    1.850000e+00
  TP5q   C5h  1 3.950000e-01    2.110000e+00
  TP4q   C5h  1 3.950000e-01    2.110000e+00
  TP3q   C5h  1 3.950000e-01    2.310000e+00
  TP2q   C5h  1 3.950000e-01    2.310000e+00
  TP1q   C5h  1 3.950000e-01    2.310000e+00
  TN6q   C5h  1 3.950000e-01    2.500000e+00
  TN5q   C5h  1 3.950000e-01    2.500000e+00
  TN4q   C5h  1 3.950000e-01    2.500000e+00
  TN3q   C5h  1 3.950000e-01    2.500000e+00
  TN2q   C5h  1 3.950000e-01    2.500000e+00
  TN1q   C5h  1 3.950000e-01    2.700000e+00
  TC6q   C5h  1 3.950000e-01    2.700000e+00
  TC5h   C5q  1 3.950000e-01    2.700000e+00
  TC5h  X1eq  1 3.950000e-01    2.940000e+00
  TC5h  X2eq  1 3.950000e-01    2.700000e+00
  TC5h  X3eq  1 3.950000e-01    2.700000e+00
  TC5h  X4eq  1 3.950000e-01    2.700000e+00
  TC5h  C1eq  1 3.950000e-01    2.500000e+00
  TC5h  C2eq  1 3.950000e-01    2.500000e+00
  TC5h  C3eq  1 3.950000e-01    2.700000e+00
  TC5h  C4eq  1 3.950000e-01    2.940000e+00
  TC5h  C5eq  1 3.950000e-01    2.940000e+00
 TC6eq   C5h  1 3.950000e-01    2.940000e+00
  TC5h  X1vq  1 3.950000e-01    2.940000e+00
  TC5h  X2vq  1 3.950000e-01    2.700000e+00
  TC5h  X3vq  1 3.950000e-01    2.700000e+00
  TC5h  X4vq  1 3.950000e-01    2.700000e+00
  TC5h  C1vq  1 3.950000e-01    2.500000e+00
  TC5h  C2vq  1 3.950000e-01    2.500000e+00
  TC5h  C3vq  1 3.950000e-01    2.700000e+00
  TC5h  C4vq  1 3.950000e-01    2.940000e+00
  TC5h  C5vq  1 3.950000e-01    2.940000e+00
 TC6vq   C5h  1 3.950000e-01    2.940000e+00
 TN1aq   C5h  1 3.950000e-01    2.700000e+00
 TN2aq   C5h  1 3.950000e-01    2.500000e+00
 TN3aq   C5h  1 3.950000e-01    2.500000e+00
 TN4aq   C5h  1 3.950000e-01    2.500000e+00
 TN5aq   C5h  1 3.950000e-01    2.500000e+00
 TN6aq   C5h  1 3.950000e-01    2.500000e+00
 TP1aq   C5h  1 3.950000e-01    2.310000e+00
 TP2aq   C5h  1 3.950000e-01    2.310000e+00
 TP3aq   C5h  1 3.950000e-01    2.310000e+00
 TP4aq   C5h  1 3.950000e-01    2.110000e+00
 TP5aq   C5h  1 3.950000e-01    2.110000e+00
 TP6aq   C5h  1 3.950000e-01    1.850000e+00
 TN1dq   C5h  1 3.950000e-01    2.700000e+00
 TN2dq   C5h  1 3.950000e-01    2.500000e+00
 TN3dq   C5h  1 3.950000e-01    2.500000e+00
 TN4dq   C5h  1 3.950000e-01    2.500000e+00
 TN5dq   C5h  1 3.950000e-01    2.500000e+00
 TN6dq   C5h  1 3.950000e-01    2.500000e+00
 TP1dq   C5h  1 3.950000e-01    2.310000e+00
 TP2dq   C5h  1 3.950000e-01    2.310000e+00
 TP3dq   C5h  1 3.950000e-01    2.310000e+00
 TP4dq   C5h  1 3.950000e-01    2.110000e+00
 TP5dq   C5h  1 3.950000e-01    2.110000e+00
 TP6dq   C5h  1 3.950000e-01    1.850000e+00
  TC5h   X1q  1 3.950000e-01    2.700000e+00
  TC5h   X2q  1 3.950000e-01    2.500000e+00
  TC5h   X3q  1 3.950000e-01    2.500000e+00
  TC5h   X4q  1 3.950000e-01    2.500000e+00
  TC5h   C1q  1 3.950000e-01    2.310000e+00
  TC5h   C2q  1 3.950000e-01    2.310000e+00
  TC5h   C3q  1 3.950000e-01    2.500000e+00
  TC5h   C4q  1 3.950000e-01    2.700000e+00
  TP6d   C4h  1 3.990000e-01    1.180000e+00
  TP5d   C4h  1 3.980000e-01    1.450000e+00
  TP4d   C4h  1 3.980000e-01    1.450000e+00
  TP3d   C4h  1 3.950000e-01    1.670000e+00
  TP2d   C4h  1 3.950000e-01    1.670000e+00
  TP1d   C4h  1 3.950000e-01    1.670000e+00
  TN6d   C4h  1 3.950000e-01    1.850000e+00
  TN5d   C4h  1 3.950000e-01    1.850000e+00
  TN4d   C4h  1 3.950000e-01    2.110000e+00
  TN3d   C4h  1 3.950000e-01    2.110000e+00
  TN2d   C4h  1 3.950000e-01    2.110000e+00
  TN1d   C4h  1 3.950000e-01    2.310000e+00
  TP6a   C4h  1 3.990000e-01    1.180000e+00
  TP5a   C4h  1 3.980000e-01    1.450000e+00
  TP4a   C4h  1 3.980000e-01    1.450000e+00
  TP3a   C4h  1 3.950000e-01    1.670000e+00
  TP2a   C4h  1 3.950000e-01    1.670000e+00
  TP1a   C4h  1 3.950000e-01    1.670000e+00
  TN6a   C4h  1 3.950000e-01    1.850000e+00
  TN5a   C4h  1 3.950000e-01    1.850000e+00
  TN4a   C4h  1 3.950000e-01    2.110000e+00
  TN3a   C4h  1 3.950000e-01    2.110000e+00
  TN2a   C4h  1 3.950000e-01    2.110000e+00
  TN1a   C4h  1 3.950000e-01    2.310000e+00
  TC6v   C4h  1 3.950000e-01    2.500000e+00
  TC5v   C4h  1 3.950000e-01    2.500000e+00
  TC4h   C4v  1 3.950000e-01    2.500000e+00
  TC4h   X1v  1 3.950000e-01    2.500000e+00
  TC4h   X2v  1 3.950000e-01    2.310000e+00
  TC4h   X3v  1 3.950000e-01    2.310000e+00
  TC4h   X4v  1 3.950000e-01    2.310000e+00
  TC4h   C1v  1 3.950000e-01    2.110000e+00
  TC4h   C2v  1 3.950000e-01    2.310000e+00
  TC4h   C3v  1 3.950000e-01    2.500000e+00
  TC6e   C4h  1 3.950000e-01    2.500000e+00
  TC5e   C4h  1 3.950000e-01    2.500000e+00
  TC4h   C4e  1 3.950000e-01    2.500000e+00
  TC4h   X1e  1 3.950000e-01    2.500000e+00
  TC4h   X2e  1 3.950000e-01    2.310000e+00
  TC4h   X3e  1 3.950000e-01    2.310000e+00
  TC4h   X4e  1 3.950000e-01    2.310000e+00
  TC4h   C1e  1 3.950000e-01    2.110000e+00
  TC4h   C2e  1 3.950000e-01    2.310000e+00
  TC4h   C3e  1 3.950000e-01    2.500000e+00
  TP6q   C4h  1 3.950000e-01    1.670000e+00
  TP5q   C4h  1 3.950000e-01    1.850000e+00
  TP4q   C4h  1 3.950000e-01    1.850000e+00
  TP3q   C4h  1 3.950000e-01    2.110000e+00
  TP2q   C4h  1 3.950000e-01    2.110000e+00
  TP1q   C4h  1 3.950000e-01    2.110000e+00
  TN6q   C4h  1 3.950000e-01    2.310000e+00
  TN5q   C4h  1 3.950000e-01    2.310000e+00
  TN4q   C4h  1 3.950000e-01    2.500000e+00
  TN3q   C4h  1 3.950000e-01    2.500000e+00
  TN2q   C4h  1 3.950000e-01    2.500000e+00
  TN1q   C4h  1 3.950000e-01    2.700000e+00
  TC6q   C4h  1 3.950000e-01    2.700000e+00
  TC5q   C4h  1 3.950000e-01    2.700000e+00
  TC4h   C4q  1 3.950000e-01    2.700000e+00
  TC4h  X1eq  1 3.950000e-01    2.940000e+00
  TC4h  X2eq  1 3.950000e-01    2.700000e+00
  TC4h  X3eq  1 3.950000e-01    2.700000e+00
  TC4h  X4eq  1 3.950000e-01    2.700000e+00
  TC4h  C1eq  1 3.950000e-01    2.500000e+00
  TC4h  C2eq  1 3.950000e-01    2.700000e+00
  TC4h  C3eq  1 3.950000e-01    2.940000e+00
  TC4h  C4eq  1 3.950000e-01    2.940000e+00
 TC5eq   C4h  1 3.950000e-01    2.940000e+00
 TC6eq   C4h  1 3.950000e-01    2.940000e+00
  TC4h  X1vq  1 3.950000e-01    2.940000e+00
  TC4h  X2vq  1 3.950000e-01    2.700000e+00
  TC4h  X3vq  1 3.950000e-01    2.700000e+00
  TC4h  X4vq  1 3.950000e-01    2.700000e+00
  TC4h  C1vq  1 3.950000e-01    2.500000e+00
  TC4h  C2vq  1 3.950000e-01    2.700000e+00
  TC4h  C3vq  1 3.950000e-01    2.940000e+00
  TC4h  C4vq  1 3.950000e-01    2.940000e+00
 TC5vq   C4h  1 3.950000e-01    2.940000e+00
 TC6vq   C4h  1 3.950000e-01    2.940000e+00
 TN1aq   C4h  1 3.950000e-01    2.700000e+00
 TN2aq   C4h  1 3.950000e-01    2.500000e+00
 TN3aq   C4h  1 3.950000e-01    2.500000e+00
 TN4aq   C4h  1 3.950000e-01    2.500000e+00
 TN5aq   C4h  1 3.950000e-01    2.310000e+00
 TN6aq   C4h  1 3.950000e-01    2.310000e+00
 TP1aq   C4h  1 3.950000e-01    2.110000e+00
 TP2aq   C4h  1 3.950000e-01    2.110000e+00
 TP3aq   C4h  1 3.950000e-01    2.110000e+00
 TP4aq   C4h  1 3.950000e-01    1.850000e+00
 TP5aq   C4h  1 3.950000e-01    1.850000e+00
 TP6aq   C4h  1 3.950000e-01    1.670000e+00
 TN1dq   C4h  1 3.950000e-01    2.700000e+00
 TN2dq   C4h  1 3.950000e-01    2.500000e+00
 TN3dq   C4h  1 3.950000e-01    2.500000e+00
 TN4dq   C4h  1 3.950000e-01    2.500000e+00
 TN5dq   C4h  1 3.950000e-01    2.310000e+00
 TN6dq   C4h  1 3.950000e-01    2.310000e+00
 TP1dq   C4h  1 3.950000e-01    2.110000e+00
 TP2dq   C4h  1 3.950000e-01    2.110000e+00
 TP3dq   C4h  1 3.950000e-01    2.110000e+00
 TP4dq   C4h  1 3.950000e-01    1.850000e+00
 TP5dq   C4h  1 3.950000e-01    1.850000e+00
 TP6dq   C4h  1 3.950000e-01    1.670000e+00
  TC4h   X1q  1 3.950000e-01    2.700000e+00
  TC4h   X2q  1 3.950000e-01    2.500000e+00
  TC4h   X3q  1 3.950000e-01    2.500000e+00
  TC4h   X4q  1 3.950000e-01    2.500000e+00
  TC4h   C1q  1 3.950000e-01    2.310000e+00
  TC4h   C2q  1 3.950000e-01    2.500000e+00
  TC4h   C3q  1 3.950000e-01    2.700000e+00
  TP6d   C3h  1 4.010000e-01    9.830000e-01
  TP5d   C3h  1 3.990000e-01    1.180000e+00
  TP4d   C3h  1 3.990000e-01    1.180000e+00
  TP3d   C3h  1 3.990000e-01    1.180000e+00
  TP2d   C3h  1 3.980000e-01    1.450000e+00
  TP1d   C3h  1 3.980000e-01    1.450000e+00
  TN6d   C3h  1 3.950000e-01    1.670000e+00
  TN5d   C3h  1 3.950000e-01    1.850000e+00
  TN4d   C3h  1 3.950000e-01    1.850000e+00
  TN3d   C3h  1 3.950000e-01    1.850000e+00
  TN2d   C3h  1 3.950000e-01    2.110000e+00
  TN1d   C3h  1 3.950000e-01    2.110000e+00
  TP6a   C3h  1 4.010000e-01    9.830000e-01
  TP5a   C3h  1 3.990000e-01    1.180000e+00
  TP4a   C3h  1 3.990000e-01    1.180000e+00
  TP3a   C3h  1 3.990000e-01    1.180000e+00
  TP2a   C3h  1 3.980000e-01    1.450000e+00
  TP1a   C3h  1 3.980000e-01    1.450000e+00
  TN6a   C3h  1 3.950000e-01    1.670000e+00
  TN5a   C3h  1 3.950000e-01    1.850000e+00
  TN4a   C3h  1 3.950000e-01    1.850000e+00
  TN3a   C3h  1 3.950000e-01    1.850000e+00
  TN2a   C3h  1 3.950000e-01    2.110000e+00
  TN1a   C3h  1 3.950000e-01    2.110000e+00
  TC6v   C3h  1 3.950000e-01    2.310000e+00
  TC5v   C3h  1 3.950000e-01    2.310000e+00
  TC4v   C3h  1 3.950000e-01    2.500000e+00
  TC3h   C3v  1 3.950000e-01    2.500000e+00
  TC3h   X1v  1 3.950000e-01    2.500000e+00
  TC3h   X2v  1 3.950000e-01    2.310000e+00
  TC3h   X3v  1 3.950000e-01    2.310000e+00
  TC3h   X4v  1 3.950000e-01    2.310000e+00
  TC3h   C1v  1 3.950000e-01    2.500000e+00
  TC3h   C2v  1 3.950000e-01    2.500000e+00
  TC6e   C3h  1 3.950000e-01    2.310000e+00
  TC5e   C3h  1 3.950000e-01    2.310000e+00
  TC4e   C3h  1 3.950000e-01    2.500000e+00
  TC3h   C3e  1 3.950000e-01    2.500000e+00
  TC3h   X1e  1 3.950000e-01    2.500000e+00
  TC3h   X2e  1 3.950000e-01    2.310000e+00
  TC3h   X3e  1 3.950000e-01    2.310000e+00
  TC3h   X4e  1 3.950000e-01    2.310000e+00
  TC3h   C1e  1 3.950000e-01    2.500000e+00
  TC3h   C2e  1 3.950000e-01    2.500000e+00
  TP6q   C3h  1 3.980000e-01    1.450000e+00
  TP5q   C3h  1 3.950000e-01    1.670000e+00
  TP4q   C3h  1 3.950000e-01    1.670000e+00
  TP3q   C3h  1 3.950000e-01    1.670000e+00
  TP2q   C3h  1 3.950000e-01    1.850000e+00
  TP1q   C3h  1 3.950000e-01    1.850000e+00
  TN6q   C3h  1 3.950000e-01    2.110000e+00
  TN5q   C3h  1 3.950000e-01    2.310000e+00
  TN4q   C3h  1 3.950000e-01    2.310000e+00
  TN3q   C3h  1 3.950000e-01    2.310000e+00
  TN2q   C3h  1 3.950000e-01    2.500000e+00
  TN1q   C3h  1 3.950000e-01    2.500000e+00
  TC6q   C3h  1 3.950000e-01    2.500000e+00
  TC5q   C3h  1 3.950000e-01    2.500000e+00
  TC4q   C3h  1 3.950000e-01    2.700000e+00
  TC3h   C3q  1 3.950000e-01    2.700000e+00
  TC3h  X1eq  1 3.950000e-01    2.940000e+00
  TC3h  X2eq  1 3.950000e-01    2.700000e+00
  TC3h  X3eq  1 3.950000e-01    2.700000e+00
  TC3h  X4eq  1 3.950000e-01    2.700000e+00
  TC3h  C1eq  1 3.950000e-01    2.940000e+00
  TC3h  C2eq  1 3.950000e-01    2.940000e+00
  TC3h  C3eq  1 3.950000e-01    2.940000e+00
 TC4eq   C3h  1 3.950000e-01    2.940000e+00
 TC5eq   C3h  1 3.950000e-01    2.700000e+00
 TC6eq   C3h  1 3.950000e-01    2.700000e+00
  TC3h  X1vq  1 3.950000e-01    2.940000e+00
  TC3h  X2vq  1 3.950000e-01    2.700000e+00
  TC3h  X3vq  1 3.950000e-01    2.700000e+00
  TC3h  X4vq  1 3.950000e-01    2.700000e+00
  TC3h  C1vq  1 3.950000e-01    2.940000e+00
  TC3h  C2vq  1 3.950000e-01    2.940000e+00
  TC3h  C3vq  1 3.950000e-01    2.940000e+00
 TC4vq   C3h  1 3.950000e-01    2.940000e+00
 TC5vq   C3h  1 3.950000e-01    2.700000e+00
 TC6vq   C3h  1 3.950000e-01    2.700000e+00
 TN1aq   C3h  1 3.950000e-01    2.500000e+00
 TN2aq   C3h  1 3.950000e-01    2.500000e+00
 TN3aq   C3h  1 3.950000e-01    2.310000e+00
 TN4aq   C3h  1 3.950000e-01    2.310000e+00
 TN5aq   C3h  1 3.950000e-01    2.310000e+00
 TN6aq   C3h  1 3.950000e-01    2.110000e+00
 TP1aq   C3h  1 3.950000e-01    1.850000e+00
 TP2aq   C3h  1 3.950000e-01    1.850000e+00
 TP3aq   C3h  1 3.950000e-01    1.670000e+00
 TP4aq   C3h  1 3.950000e-01    1.670000e+00
 TP5aq   C3h  1 3.950000e-01    1.670000e+00
 TP6aq   C3h  1 3.980000e-01    1.450000e+00
 TN1dq   C3h  1 3.950000e-01    2.500000e+00
 TN2dq   C3h  1 3.950000e-01    2.500000e+00
 TN3dq   C3h  1 3.950000e-01    2.310000e+00
 TN4dq   C3h  1 3.950000e-01    2.310000e+00
 TN5dq   C3h  1 3.950000e-01    2.310000e+00
 TN6dq   C3h  1 3.950000e-01    2.110000e+00
 TP1dq   C3h  1 3.950000e-01    1.850000e+00
 TP2dq   C3h  1 3.950000e-01    1.850000e+00
 TP3dq   C3h  1 3.950000e-01    1.670000e+00
 TP4dq   C3h  1 3.950000e-01    1.670000e+00
 TP5dq   C3h  1 3.950000e-01    1.670000e+00
 TP6dq   C3h  1 3.980000e-01    1.450000e+00
  TC3h   X1q  1 3.950000e-01    2.700000e+00
  TC3h   X2q  1 3.950000e-01    2.500000e+00
  TC3h   X3q  1 3.950000e-01    2.500000e+00
  TC3h   X4q  1 3.950000e-01    2.500000e+00
  TC3h   C1q  1 3.950000e-01    2.700000e+00
  TC3h   C2q  1 3.950000e-01    2.700000e+00
  TP6d   C2h  1 4.010000e-01    9.830000e-01
  TP5d   C2h  1 3.990000e-01    1.180000e+00
  TP4d   C2h  1 3.990000e-01    1.180000e+00
  TP3d   C2h  1 3.990000e-01    1.180000e+00
  TP2d   C2h  1 3.980000e-01    1.450000e+00
  TP1d   C2h  1 3.980000e-01    1.450000e+00
  TN6d   C2h  1 3.950000e-01    1.670000e+00
  TN5d   C2h  1 3.950000e-01    1.670000e+00
  TN4d   C2h  1 3.950000e-01    1.670000e+00
  TN3d   C2h  1 3.950000e-01    1.850000e+00
  TN2d   C2h  1 3.950000e-01    1.850000e+00
  TN1d   C2h  1 3.950000e-01    1.850000e+00
  TP6a   C2h  1 4.010000e-01    9.830000e-01
  TP5a   C2h  1 3.990000e-01    1.180000e+00
  TP4a   C2h  1 3.990000e-01    1.180000e+00
  TP3a   C2h  1 3.990000e-01    1.180000e+00
  TP2a   C2h  1 3.980000e-01    1.450000e+00
  TP1a   C2h  1 3.980000e-01    1.450000e+00
  TN6a   C2h  1 3.950000e-01    1.670000e+00
  TN5a   C2h  1 3.950000e-01    1.670000e+00
  TN4a   C2h  1 3.950000e-01    1.670000e+00
  TN3a   C2h  1 3.950000e-01    1.850000e+00
  TN2a   C2h  1 3.950000e-01    1.850000e+00
  TN1a   C2h  1 3.950000e-01    1.850000e+00
  TC6v   C2h  1 3.950000e-01    2.110000e+00
  TC5v   C2h  1 3.950000e-01    2.110000e+00
  TC4v   C2h  1 3.950000e-01    2.310000e+00
  TC3v   C2h  1 3.950000e-01    2.500000e+00
  TC2h   C2v  1 3.950000e-01    2.500000e+00
  TC2h   X1v  1 3.950000e-01    2.310000e+00
  TC2h   X2v  1 3.950000e-01    2.310000e+00
  TC2h   X3v  1 3.950000e-01    2.310000e+00
  TC2h   X4v  1 3.950000e-01    1.850000e+00
  TC2h   C1v  1 3.950000e-01    2.700000e+00
  TC6e   C2h  1 3.950000e-01    2.110000e+00
  TC5e   C2h  1 3.950000e-01    2.110000e+00
  TC4e   C2h  1 3.950000e-01    2.310000e+00
  TC3e   C2h  1 3.950000e-01    2.500000e+00
  TC2h   C2e  1 3.950000e-01    2.500000e+00
  TC2h   X1e  1 3.950000e-01    2.310000e+00
  TC2h   X2e  1 3.950000e-01    2.310000e+00
  TC2h   X3e  1 3.950000e-01    2.310000e+00
  TC2h   X4e  1 3.950000e-01    1.850000e+00
  TC2h   C1e  1 3.950000e-01    2.700000e+00
  TP6q   C2h  1 3.980000e-01    1.450000e+00
  TP5q   C2h  1 3.950000e-01    1.670000e+00
  TP4q   C2h  1 3.950000e-01    1.670000e+00
  TP3q   C2h  1 3.950000e-01    1.670000e+00
  TP2q   C2h  1 3.950000e-01    1.850000e+00
  TP1q   C2h  1 3.950000e-01    1.850000e+00
  TN6q   C2h  1 3.950000e-01    2.110000e+00
  TN5q   C2h  1 3.950000e-01    2.110000e+00
  TN4q   C2h  1 3.950000e-01    2.110000e+00
  TN3q   C2h  1 3.950000e-01    2.310000e+00
  TN2q   C2h  1 3.950000e-01    2.310000e+00
  TN1q   C2h  1 3.950000e-01    2.310000e+00
  TC6q   C2h  1 3.950000e-01    2.310000e+00
  TC5q   C2h  1 3.950000e-01    2.310000e+00
  TC4q   C2h  1 3.950000e-01    2.500000e+00
  TC3q   C2h  1 3.950000e-01    2.700000e+00
  TC2h   C2q  1 3.950000e-01    2.700000e+00
  TC2h  X1eq  1 3.950000e-01    2.700000e+00
  TC2h  X2eq  1 3.950000e-01    2.700000e+00
  TC2h  X3eq  1 3.950000e-01    2.700000e+00
  TC2h  X4eq  1 3.950000e-01    2.310000e+00
  TC2h  C1eq  1 3.950000e-01    3.190000e+00
  TC2h  C2eq  1 3.950000e-01    2.940000e+00
 TC3eq   C2h  1 3.950000e-01    2.940000e+00
 TC4eq   C2h  1 3.950000e-01    2.700000e+00
 TC5eq   C2h  1 3.950000e-01    2.500000e+00
 TC6eq   C2h  1 3.950000e-01    2.500000e+00
  TC2h  X1vq  1 3.950000e-01    2.700000e+00
  TC2h  X2vq  1 3.950000e-01    2.700000e+00
  TC2h  X3vq  1 3.950000e-01    2.700000e+00
  TC2h  X4vq  1 3.950000e-01    2.310000e+00
  TC2h  C1vq  1 3.950000e-01    3.190000e+00
  TC2h  C2vq  1 3.950000e-01    2.940000e+00
 TC3vq   C2h  1 3.950000e-01    2.940000e+00
 TC4vq   C2h  1 3.950000e-01    2.700000e+00
 TC5vq   C2h  1 3.950000e-01    2.500000e+00
 TC6vq   C2h  1 3.950000e-01    2.500000e+00
 TN1aq   C2h  1 3.950000e-01    2.310000e+00
 TN2aq   C2h  1 3.950000e-01    2.310000e+00
 TN3aq   C2h  1 3.950000e-01    2.310000e+00
 TN4aq   C2h  1 3.950000e-01    2.110000e+00
 TN5aq   C2h  1 3.950000e-01    2.110000e+00
 TN6aq   C2h  1 3.950000e-01    2.110000e+00
 TP1aq   C2h  1 3.950000e-01    1.850000e+00
 TP2aq   C2h  1 3.950000e-01    1.850000e+00
 TP3aq   C2h  1 3.950000e-01    1.670000e+00
 TP4aq   C2h  1 3.950000e-01    1.670000e+00
 TP5aq   C2h  1 3.950000e-01    1.670000e+00
 TP6aq   C2h  1 3.980000e-01    1.450000e+00
 TN1dq   C2h  1 3.950000e-01    2.310000e+00
 TN2dq   C2h  1 3.950000e-01    2.310000e+00
 TN3dq   C2h  1 3.950000e-01    2.310000e+00
 TN4dq   C2h  1 3.950000e-01    2.110000e+00
 TN5dq   C2h  1 3.950000e-01    2.110000e+00
 TN6dq   C2h  1 3.950000e-01    2.110000e+00
 TP1dq   C2h  1 3.950000e-01    1.850000e+00
 TP2dq   C2h  1 3.950000e-01    1.850000e+00
 TP3dq   C2h  1 3.950000e-01    1.670000e+00
 TP4dq   C2h  1 3.950000e-01    1.670000e+00
 TP5dq   C2h  1 3.950000e-01    1.670000e+00
 TP6dq   C2h  1 3.980000e-01    1.450000e+00
  TC2h   X1q  1 3.950000e-01    2.500000e+00
  TC2h   X2q  1 3.950000e-01    2.500000e+00
  TC2h   X3q  1 3.950000e-01    2.500000e+00
  TC2h   X4q  1 3.950000e-01    2.110000e+00
  TC2h   C1q  1 3.950000e-01    2.940000e+00
  TP6d   C1h  1 4.650000e-01    7.030000e-01
  TP5d   C1h  1 4.010000e-01    9.830000e-01
  TP4d   C1h  1 4.010000e-01    9.830000e-01
  TP3d   C1h  1 4.010000e-01    9.830000e-01
  TP2d   C1h  1 3.990000e-01    1.180000e+00
  TP1d   C1h  1 3.990000e-01    1.180000e+00
  TN6d   C1h  1 3.980000e-01    1.450000e+00
  TN5d   C1h  1 3.980000e-01    1.450000e+00
  TN4d   C1h  1 3.980000e-01    1.450000e+00
  TN3d   C1h  1 3.950000e-01    1.670000e+00
  TN2d   C1h  1 3.950000e-01    1.670000e+00
  TN1d   C1h  1 3.950000e-01    1.670000e+00
  TP6a   C1h  1 4.650000e-01    7.030000e-01
  TP5a   C1h  1 4.010000e-01    9.830000e-01
  TP4a   C1h  1 4.010000e-01    9.830000e-01
  TP3a   C1h  1 4.010000e-01    9.830000e-01
  TP2a   C1h  1 3.990000e-01    1.180000e+00
  TP1a   C1h  1 3.990000e-01    1.180000e+00
  TN6a   C1h  1 3.980000e-01    1.450000e+00
  TN5a   C1h  1 3.980000e-01    1.450000e+00
  TN4a   C1h  1 3.980000e-01    1.450000e+00
  TN3a   C1h  1 3.950000e-01    1.670000e+00
  TN2a   C1h  1 3.950000e-01    1.670000e+00
  TN1a   C1h  1 3.950000e-01    1.670000e+00
  TC6v   C1h  1 3.950000e-01    1.850000e+00
  TC5v   C1h  1 3.950000e-01    2.110000e+00
  TC4v   C1h  1 3.950000e-01    2.110000e+00
  TC3v   C1h  1 3.950000e-01    2.500000e+00
  TC2v   C1h  1 3.950000e-01    2.700000e+00
  TC1h   C1v  1 3.950000e-01    2.500000e+00
  TC1h   X1v  1 3.950000e-01    2.310000e+00
  TC1h   X2v  1 3.950000e-01    2.310000e+00
  TC1h   X3v  1 3.950000e-01    2.310000e+00
  TC1h   X4v  1 3.950000e-01    1.850000e+00
  TC6e   C1h  1 3.950000e-01    1.850000e+00
  TC5e   C1h  1 3.950000e-01    2.110000e+00
  TC4e   C1h  1 3.950000e-01    2.110000e+00
  TC3e   C1h  1 3.950000e-01    2.500000e+00
  TC2e   C1h  1 3.950000e-01    2.700000e+00
  TC1h   C1e  1 3.950000e-01    2.500000e+00
  TC1h   X1e  1 3.950000e-01    2.310000e+00
  TC1h   X2e  1 3.950000e-01    2.310000e+00
  TC1h   X3e  1 3.950000e-01    2.310000e+00
  TC1h   X4e  1 3.950000e-01    1.850000e+00
  TP6q   C1h  1 4.010000e-01    9.830000e-01
  TP5q   C1h  1 3.980000e-01    1.450000e+00
  TP4q   C1h  1 3.980000e-01    1.450000e+00
  TP3q   C1h  1 3.980000e-01    1.450000e+00
  TP2q   C1h  1 3.950000e-01    1.670000e+00
  TP1q   C1h  1 3.950000e-01    1.670000e+00
  TN6q   C1h  1 3.950000e-01    1.850000e+00
  TN5q   C1h  1 3.950000e-01    1.850000e+00
  TN4q   C1h  1 3.950000e-01    1.850000e+00
  TN3q   C1h  1 3.950000e-01    2.110000e+00
  TN2q   C1h  1 3.950000e-01    2.110000e+00
  TN1q   C1h  1 3.950000e-01    2.110000e+00
  TC6q   C1h  1 3.950000e-01    2.110000e+00
  TC5q   C1h  1 3.950000e-01    2.310000e+00
  TC4q   C1h  1 3.950000e-01    2.310000e+00
  TC3q   C1h  1 3.950000e-01    2.700000e+00
  TC2q   C1h  1 3.950000e-01    2.940000e+00
  TC1h   C1q  1 3.950000e-01    2.700000e+00
  TC1h  X1eq  1 3.950000e-01    2.700000e+00
  TC1h  X2eq  1 3.950000e-01    2.700000e+00
  TC1h  X3eq  1 3.950000e-01    2.700000e+00
  TC1h  X4eq  1 3.950000e-01    2.310000e+00
  TC1h  C1eq  1 3.950000e-01    2.940000e+00
 TC2eq   C1h  1 3.950000e-01    3.190000e+00
 TC3eq   C1h  1 3.950000e-01    2.940000e+00
 TC4eq   C1h  1 3.950000e-01    2.500000e+00
 TC5eq   C1h  1 3.950000e-01    2.500000e+00
 TC6eq   C1h  1 3.950000e-01    2.310000e+00
  TC1h  X1vq  1 3.950000e-01    2.700000e+00
  TC1h  X2vq  1 3.950000e-01    2.700000e+00
  TC1h  X3vq  1 3.950000e-01    2.700000e+00
  TC1h  X4vq  1 3.950000e-01    2.310000e+00
  TC1h  C1vq  1 3.950000e-01    2.940000e+00
 TC2vq   C1h  1 3.950000e-01    3.190000e+00
 TC3vq   C1h  1 3.950000e-01    2.940000e+00
 TC4vq   C1h  1 3.950000e-01    2.500000e+00
 TC5vq   C1h  1 3.950000e-01    2.500000e+00
 TC6vq   C1h  1 3.950000e-01    2.310000e+00
 TN1aq   C1h  1 3.950000e-01    2.110000e+00
 TN2aq   C1h  1 3.950000e-01    2.110000e+00
 TN3aq   C1h  1 3.950000e-01    2.110000e+00
 TN4aq   C1h  1 3.950000e-01    1.850000e+00
 TN5aq   C1h  1 3.950000e-01    1.850000e+00
 TN6aq   C1h  1 3.950000e-01    1.850000e+00
 TP1aq   C1h  1 3.950000e-01    1.670000e+00
 TP2aq   C1h  1 3.950000e-01    1.670000e+00
 TP3aq   C1h  1 3.980000e-01    1.450000e+00
 TP4aq   C1h  1 3.980000e-01    1.450000e+00
 TP5aq   C1h  1 3.980000e-01    1.450000e+00
 TP6aq   C1h  1 4.010000e-01    9.830000e-01
 TN1dq   C1h  1 3.950000e-01    2.110000e+00
 TN2dq   C1h  1 3.950000e-01    2.110000e+00
 TN3dq   C1h  1 3.950000e-01    2.110000e+00
 TN4dq   C1h  1 3.950000e-01    1.850000e+00
 TN5dq   C1h  1 3.950000e-01    1.850000e+00
 TN6dq   C1h  1 3.950000e-01    1.850000e+00
 TP1dq   C1h  1 3.950000e-01    1.670000e+00
 TP2dq   C1h  1 3.950000e-01    1.670000e+00
 TP3dq   C1h  1 3.980000e-01    1.450000e+00
 TP4dq   C1h  1 3.980000e-01    1.450000e+00
 TP5dq   C1h  1 3.980000e-01    1.450000e+00
 TP6dq   C1h  1 4.010000e-01    9.830000e-01
  TC1h   X1q  1 3.950000e-01    2.500000e+00
  TC1h   X2q  1 3.950000e-01    2.500000e+00
  TC1h   X3q  1 3.950000e-01    2.500000e+00
  TC1h   X4q  1 3.950000e-01    2.110000e+00
  TP6d   X4h  1 3.950000e-01    1.850000e+00
  TP5d   X4h  1 3.950000e-01    2.110000e+00
  TP4d   X4h  1 3.950000e-01    2.110000e+00
  TP3d   X4h  1 3.950000e-01    2.110000e+00
  TP2d   X4h  1 3.950000e-01    2.110000e+00
  TP1d   X4h  1 3.950000e-01    2.110000e+00
  TN6d   X4h  1 3.950000e-01    2.310000e+00
  TN5d   X4h  1 3.950000e-01    2.500000e+00
  TN4d   X4h  1 3.950000e-01    2.700000e+00
  TN3d   X4h  1 3.950000e-01    2.500000e+00
  TN2d   X4h  1 3.950000e-01    2.500000e+00
  TN1d   X4h  1 3.950000e-01    2.310000e+00
  TP6a   X4h  1 3.950000e-01    1.850000e+00
  TP5a   X4h  1 3.950000e-01    2.110000e+00
  TP4a   X4h  1 3.950000e-01    2.110000e+00
  TP3a   X4h  1 3.950000e-01    2.110000e+00
  TP2a   X4h  1 3.950000e-01    2.110000e+00
  TP1a   X4h  1 3.950000e-01    2.110000e+00
  TN6a   X4h  1 3.950000e-01    2.310000e+00
  TN5a   X4h  1 3.950000e-01    2.500000e+00
  TN4a   X4h  1 3.950000e-01    2.700000e+00
  TN3a   X4h  1 3.950000e-01    2.500000e+00
  TN2a   X4h  1 3.950000e-01    2.500000e+00
  TN1a   X4h  1 3.950000e-01    2.310000e+00
  TC6v   X4h  1 3.950000e-01    2.500000e+00
  TC5v   X4h  1 3.950000e-01    2.310000e+00
  TC4v   X4h  1 3.950000e-01    2.310000e+00
  TC3v   X4h  1 3.950000e-01    2.310000e+00
  TC2v   X4h  1 3.950000e-01    1.850000e+00
  TC1v   X4h  1 3.950000e-01    1.850000e+00
  TX4h   X4v  1 3.950000e-01    2.500000e+00
  TX4h   X1v  1 3.950000e-01    2.500000e+00
  TX4h   X2v  1 3.950000e-01    2.500000e+00
  TX4h   X3v  1 3.950000e-01    2.500000e+00
  TC6e   X4h  1 3.950000e-01    2.500000e+00
  TC5e   X4h  1 3.950000e-01    2.310000e+00
  TC4e   X4h  1 3.950000e-01    2.310000e+00
  TC3e   X4h  1 3.950000e-01    2.310000e+00
  TC2e   X4h  1 3.950000e-01    1.850000e+00
  TC1e   X4h  1 3.950000e-01    1.850000e+00
  TX4h   X4e  1 3.950000e-01    2.500000e+00
  TX4h   X1e  1 3.950000e-01    2.500000e+00
  TX4h   X2e  1 3.950000e-01    2.500000e+00
  TX4h   X3e  1 3.950000e-01    2.500000e+00
  TP6q   X4h  1 3.950000e-01    2.310000e+00
  TP5q   X4h  1 3.950000e-01    2.500000e+00
  TP4q   X4h  1 3.950000e-01    2.500000e+00
  TP3q   X4h  1 3.950000e-01    2.500000e+00
  TP2q   X4h  1 3.950000e-01    2.500000e+00
  TP1q   X4h  1 3.950000e-01    2.500000e+00
  TN6q   X4h  1 3.950000e-01    2.700000e+00
  TN5q   X4h  1 3.950000e-01    2.940000e+00
  TN4q   X4h  1 3.950000e-01    3.190000e+00
  TN3q   X4h  1 3.950000e-01    2.940000e+00
  TN2q   X4h  1 3.950000e-01    2.940000e+00
  TN1q   X4h  1 3.950000e-01    2.700000e+00
  TC6q   X4h  1 3.950000e-01    2.700000e+00
  TC5q   X4h  1 3.950000e-01    2.500000e+00
  TC4q   X4h  1 3.950000e-01    2.500000e+00
  TC3q   X4h  1 3.950000e-01    2.500000e+00
  TC2q   X4h  1 3.950000e-01    2.110000e+00
  TC1q   X4h  1 3.950000e-01    2.110000e+00
  TX4h   X4q  1 3.950000e-01    2.700000e+00
  TX4h  X1eq  1 3.950000e-01    2.940000e+00
  TX4h  X2eq  1 3.950000e-01    2.940000e+00
  TX4h  X3eq  1 3.950000e-01    2.940000e+00
  TX4h  X4eq  1 3.950000e-01    2.940000e+00
 TC1eq   X4h  1 3.950000e-01    2.310000e+00
 TC2eq   X4h  1 3.950000e-01    2.310000e+00
 TC3eq   X4h  1 3.950000e-01    2.700000e+00
 TC4eq   X4h  1 3.950000e-01    2.700000e+00
 TC5eq   X4h  1 3.950000e-01    2.700000e+00
 TC6eq   X4h  1 3.950000e-01    2.940000e+00
  TX4h  X1vq  1 3.950000e-01    2.940000e+00
  TX4h  X2vq  1 3.950000e-01    2.940000e+00
  TX4h  X3vq  1 3.950000e-01    2.940000e+00
  TX4h  X4vq  1 3.950000e-01    2.940000e+00
 TC1vq   X4h  1 3.950000e-01    2.310000e+00
 TC2vq   X4h  1 3.950000e-01    2.310000e+00
 TC3vq   X4h  1 3.950000e-01    2.700000e+00
 TC4vq   X4h  1 3.950000e-01    2.700000e+00
 TC5vq   X4h  1 3.950000e-01    2.700000e+00
 TC6vq   X4h  1 3.950000e-01    2.940000e+00
 TN1aq   X4h  1 3.950000e-01    2.700000e+00
 TN2aq   X4h  1 3.950000e-01    2.940000e+00
 TN3aq   X4h  1 3.950000e-01    2.940000e+00
 TN4aq   X4h  1 3.950000e-01    3.190000e+00
 TN5aq   X4h  1 3.950000e-01    2.940000e+00
 TN6aq   X4h  1 3.950000e-01    2.700000e+00
 TP1aq   X4h  1 3.950000e-01    2.500000e+00
 TP2aq   X4h  1 3.950000e-01    2.500000e+00
 TP3aq   X4h  1 3.950000e-01    2.500000e+00
 TP4aq   X4h  1 3.950000e-01    2.500000e+00
 TP5aq   X4h  1 3.950000e-01    2.500000e+00
 TP6aq   X4h  1 3.950000e-01    2.310000e+00
 TN1dq   X4h  1 3.950000e-01    2.700000e+00
 TN2dq   X4h  1 3.950000e-01    2.940000e+00
 TN3dq   X4h  1 3.950000e-01    2.940000e+00
 TN4dq   X4h  1 3.950000e-01    3.190000e+00
 TN5dq   X4h  1 3.950000e-01    2.940000e+00
 TN6dq   X4h  1 3.950000e-01    2.700000e+00
 TP1dq   X4h  1 3.950000e-01    2.500000e+00
 TP2dq   X4h  1 3.950000e-01    2.500000e+00
 TP3dq   X4h  1 3.950000e-01    2.500000e+00
 TP4dq   X4h  1 3.950000e-01    2.500000e+00
 TP5dq   X4h  1 3.950000e-01    2.500000e+00
 TP6dq   X4h  1 3.950000e-01    2.310000e+00
  TX4h   X1q  1 3.950000e-01    2.700000e+00
  TX4h   X2q  1 3.950000e-01    2.700000e+00
  TX4h   X3q  1 3.950000e-01    2.700000e+00
  TP6d   X3h  1 3.950000e-01    1.850000e+00
  TP5d   X3h  1 3.950000e-01    1.850000e+00
  TP4d   X3h  1 3.950000e-01    1.850000e+00
  TP3d   X3h  1 3.950000e-01    2.110000e+00
  TP2d   X3h  1 3.950000e-01    2.110000e+00
  TP1d   X3h  1 3.950000e-01    2.110000e+00
  TN6d   X3h  1 3.950000e-01    2.110000e+00
  TN5d   X3h  1 3.950000e-01    2.310000e+00
  TN4d   X3h  1 3.950000e-01    2.500000e+00
  TN3d   X3h  1 3.950000e-01    2.310000e+00
  TN2d   X3h  1 3.950000e-01    2.310000e+00
  TN1d   X3h  1 3.950000e-01    2.310000e+00
  TP6a   X3h  1 3.950000e-01    1.850000e+00
  TP5a   X3h  1 3.950000e-01    1.850000e+00
  TP4a   X3h  1 3.950000e-01    1.850000e+00
  TP3a   X3h  1 3.950000e-01    2.110000e+00
  TP2a   X3h  1 3.950000e-01    2.110000e+00
  TP1a   X3h  1 3.950000e-01    2.110000e+00
  TN6a   X3h  1 3.950000e-01    2.110000e+00
  TN5a   X3h  1 3.950000e-01    2.310000e+00
  TN4a   X3h  1 3.950000e-01    2.500000e+00
  TN3a   X3h  1 3.950000e-01    2.310000e+00
  TN2a   X3h  1 3.950000e-01    2.310000e+00
  TN1a   X3h  1 3.950000e-01    2.310000e+00
  TC6v   X3h  1 3.950000e-01    2.500000e+00
  TC5v   X3h  1 3.950000e-01    2.310000e+00
  TC4v   X3h  1 3.950000e-01    2.310000e+00
  TC3v   X3h  1 3.950000e-01    2.310000e+00
  TC2v   X3h  1 3.950000e-01    2.310000e+00
  TC1v   X3h  1 3.950000e-01    2.310000e+00
  TX4v   X3h  1 3.950000e-01    2.500000e+00
  TX3h   X3v  1 3.950000e-01    2.500000e+00
  TX3h   X1v  1 3.950000e-01    2.700000e+00
  TX3h   X2v  1 3.950000e-01    2.700000e+00
  TC6e   X3h  1 3.950000e-01    2.500000e+00
  TC5e   X3h  1 3.950000e-01    2.310000e+00
  TC4e   X3h  1 3.950000e-01    2.310000e+00
  TC3e   X3h  1 3.950000e-01    2.310000e+00
  TC2e   X3h  1 3.950000e-01    2.310000e+00
  TC1e   X3h  1 3.950000e-01    2.310000e+00
  TX4e   X3h  1 3.950000e-01    2.500000e+00
  TX3h   X3e  1 3.950000e-01    2.500000e+00
  TX3h   X1e  1 3.950000e-01    2.700000e+00
  TX3h   X2e  1 3.950000e-01    2.700000e+00
  TP6q   X3h  1 3.950000e-01    2.310000e+00
  TP5q   X3h  1 3.950000e-01    2.310000e+00
  TP4q   X3h  1 3.950000e-01    2.310000e+00
  TP3q   X3h  1 3.950000e-01    2.500000e+00
  TP2q   X3h  1 3.950000e-01    2.500000e+00
  TP1q   X3h  1 3.950000e-01    2.500000e+00
  TN6q   X3h  1 3.950000e-01    2.500000e+00
  TN5q   X3h  1 3.950000e-01    2.700000e+00
  TN4q   X3h  1 3.950000e-01    2.940000e+00
  TN3q   X3h  1 3.950000e-01    2.700000e+00
  TN2q   X3h  1 3.950000e-01    2.700000e+00
  TN1q   X3h  1 3.950000e-01    2.700000e+00
  TC6q   X3h  1 3.950000e-01    2.700000e+00
  TC5q   X3h  1 3.950000e-01    2.500000e+00
  TC4q   X3h  1 3.950000e-01    2.500000e+00
  TC3q   X3h  1 3.950000e-01    2.500000e+00
  TC2q   X3h  1 3.950000e-01    2.500000e+00
  TC1q   X3h  1 3.950000e-01    2.500000e+00
  TX4q   X3h  1 3.950000e-01    2.700000e+00
  TX3h   X3q  1 3.950000e-01    2.700000e+00
  TX3h  X1eq  1 3.950000e-01    3.190000e+00
  TX3h  X2eq  1 3.950000e-01    3.190000e+00
  TX3h  X3eq  1 3.950000e-01    2.940000e+00
 TX4eq   X3h  1 3.950000e-01    2.940000e+00
 TC1eq   X3h  1 3.950000e-01    2.700000e+00
 TC2eq   X3h  1 3.950000e-01    2.700000e+00
 TC3eq   X3h  1 3.950000e-01    2.700000e+00
 TC4eq   X3h  1 3.950000e-01    2.700000e+00
 TC5eq   X3h  1 3.950000e-01    2.700000e+00
 TC6eq   X3h  1 3.950000e-01    2.940000e+00
  TX3h  X1vq  1 3.950000e-01    3.190000e+00
  TX3h  X2vq  1 3.950000e-01    3.190000e+00
  TX3h  X3vq  1 3.950000e-01    2.940000e+00
 TX4vq   X3h  1 3.950000e-01    2.940000e+00
 TC1vq   X3h  1 3.950000e-01    2.700000e+00
 TC2vq   X3h  1 3.950000e-01    2.700000e+00
 TC3vq   X3h  1 3.950000e-01    2.700000e+00
 TC4vq   X3h  1 3.950000e-01    2.700000e+00
 TC5vq   X3h  1 3.950000e-01    2.700000e+00
 TC6vq   X3h  1 3.950000e-01    2.940000e+00
 TN1aq   X3h  1 3.950000e-01    2.700000e+00
 TN2aq   X3h  1 3.950000e-01    2.700000e+00
 TN3aq   X3h  1 3.950000e-01    2.700000e+00
 TN4aq   X3h  1 3.950000e-01    2.940000e+00
 TN5aq   X3h  1 3.950000e-01    2.700000e+00
 TN6aq   X3h  1 3.950000e-01    2.500000e+00
 TP1aq   X3h  1 3.950000e-01    2.500000e+00
 TP2aq   X3h  1 3.950000e-01    2.500000e+00
 TP3aq   X3h  1 3.950000e-01    2.500000e+00
 TP4aq   X3h  1 3.950000e-01    2.310000e+00
 TP5aq   X3h  1 3.950000e-01    2.310000e+00
 TP6aq   X3h  1 3.950000e-01    2.310000e+00
 TN1dq   X3h  1 3.950000e-01    2.700000e+00
 TN2dq   X3h  1 3.950000e-01    2.700000e+00
 TN3dq   X3h  1 3.950000e-01    2.700000e+00
 TN4dq   X3h  1 3.950000e-01    2.940000e+00
 TN5dq   X3h  1 3.950000e-01    2.700000e+00
 TN6dq   X3h  1 3.950000e-01    2.500000e+00
 TP1dq   X3h  1 3.950000e-01    2.500000e+00
 TP2dq   X3h  1 3.950000e-01    2.500000e+00
 TP3dq   X3h  1 3.950000e-01    2.500000e+00
 TP4dq   X3h  1 3.950000e-01    2.310000e+00
 TP5dq   X3h  1 3.950000e-01    2.310000e+00
 TP6dq   X3h  1 3.950000e-01    2.310000e+00
  TX3h   X1q  1 3.950000e-01    2.940000e+00
  TX3h   X2q  1 3.950000e-01    2.940000e+00
  TP6d   X2h  1 3.950000e-01    1.670000e+00
  TP5d   X2h  1 3.950000e-01    1.850000e+00
  TP4d   X2h  1 3.950000e-01    1.850000e+00
  TP3d   X2h  1 3.950000e-01    1.850000e+00
  TP2d   X2h  1 3.950000e-01    1.850000e+00
  TP1d   X2h  1 3.950000e-01    1.850000e+00
  TN6d   X2h  1 3.950000e-01    1.850000e+00
  TN5d   X2h  1 3.950000e-01    2.110000e+00
  TN4d   X2h  1 3.950000e-01    2.110000e+00
  TN3d   X2h  1 3.950000e-01    2.110000e+00
  TN2d   X2h  1 3.950000e-01    2.110000e+00
  TN1d   X2h  1 3.950000e-01    2.110000e+00
  TP6a   X2h  1 3.950000e-01    1.670000e+00
  TP5a   X2h  1 3.950000e-01    1.850000e+00
  TP4a   X2h  1 3.950000e-01    1.850000e+00
  TP3a   X2h  1 3.950000e-01    1.850000e+00
  TP2a   X2h  1 3.950000e-01    1.850000e+00
  TP1a   X2h  1 3.950000e-01    1.850000e+00
  TN6a   X2h  1 3.950000e-01    1.850000e+00
  TN5a   X2h  1 3.950000e-01    2.110000e+00
  TN4a   X2h  1 3.950000e-01    2.110000e+00
  TN3a   X2h  1 3.950000e-01    2.110000e+00
  TN2a   X2h  1 3.950000e-01    2.110000e+00
  TN1a   X2h  1 3.950000e-01    2.110000e+00
  TC6v   X2h  1 3.950000e-01    2.500000e+00
  TC5v   X2h  1 3.950000e-01    2.310000e+00
  TC4v   X2h  1 3.950000e-01    2.310000e+00
  TC3v   X2h  1 3.950000e-01    2.310000e+00
  TC2v   X2h  1 3.950000e-01    2.310000e+00
  TC1v   X2h  1 3.950000e-01    2.310000e+00
  TX4v   X2h  1 3.950000e-01    2.500000e+00
  TX3v   X2h  1 3.950000e-01    2.700000e+00
  TX2h   X2v  1 3.950000e-01    2.700000e+00
  TX2h   X1v  1 3.950000e-01    2.700000e+00
  TC6e   X2h  1 3.950000e-01    2.500000e+00
  TC5e   X2h  1 3.950000e-01    2.310000e+00
  TC4e   X2h  1 3.950000e-01    2.310000e+00
  TC3e   X2h  1 3.950000e-01    2.310000e+00
  TC2e   X2h  1 3.950000e-01    2.310000e+00
  TC1e   X2h  1 3.950000e-01    2.310000e+00
  TX4e   X2h  1 3.950000e-01    2.500000e+00
  TX3e   X2h  1 3.950000e-01    2.700000e+00
  TX2h   X2e  1 3.950000e-01    2.700000e+00
  TX2h   X1e  1 3.950000e-01    2.700000e+00
  TP6q   X2h  1 3.950000e-01    2.110000e+00
  TP5q   X2h  1 3.950000e-01    2.310000e+00
  TP4q   X2h  1 3.950000e-01    2.310000e+00
  TP3q   X2h  1 3.950000e-01    2.310000e+00
  TP2q   X2h  1 3.950000e-01    2.310000e+00
  TP1q   X2h  1 3.950000e-01    2.310000e+00
  TN6q   X2h  1 3.950000e-01    2.310000e+00
  TN5q   X2h  1 3.950000e-01    2.500000e+00
  TN4q   X2h  1 3.950000e-01    2.500000e+00
  TN3q   X2h  1 3.950000e-01    2.500000e+00
  TN2q   X2h  1 3.950000e-01    2.500000e+00
  TN1q   X2h  1 3.950000e-01    2.500000e+00
  TC6q   X2h  1 3.950000e-01    2.700000e+00
  TC5q   X2h  1 3.950000e-01    2.500000e+00
  TC4q   X2h  1 3.950000e-01    2.500000e+00
  TC3q   X2h  1 3.950000e-01    2.500000e+00
  TC2q   X2h  1 3.950000e-01    2.500000e+00
  TC1q   X2h  1 3.950000e-01    2.500000e+00
  TX4q   X2h  1 3.950000e-01    2.700000e+00
  TX3q   X2h  1 3.950000e-01    2.940000e+00
  TX2h   X2q  1 3.950000e-01    2.940000e+00
  TX2h  X1eq  1 3.950000e-01    3.190000e+00
  TX2h  X2eq  1 3.950000e-01    3.190000e+00
 TX3eq   X2h  1 3.950000e-01    3.190000e+00
 TX4eq   X2h  1 3.950000e-01    2.940000e+00
 TC1eq   X2h  1 3.950000e-01    2.700000e+00
 TC2eq   X2h  1 3.950000e-01    2.700000e+00
 TC3eq   X2h  1 3.950000e-01    2.700000e+00
 TC4eq   X2h  1 3.950000e-01    2.700000e+00
 TC5eq   X2h  1 3.950000e-01    2.700000e+00
 TC6eq   X2h  1 3.950000e-01    2.940000e+00
  TX2h  X1vq  1 3.950000e-01    3.190000e+00
  TX2h  X2vq  1 3.950000e-01    3.190000e+00
 TX3vq   X2h  1 3.950000e-01    3.190000e+00
 TX4vq   X2h  1 3.950000e-01    2.940000e+00
 TC1vq   X2h  1 3.950000e-01    2.700000e+00
 TC2vq   X2h  1 3.950000e-01    2.700000e+00
 TC3vq   X2h  1 3.950000e-01    2.700000e+00
 TC4vq   X2h  1 3.950000e-01    2.700000e+00
 TC5vq   X2h  1 3.950000e-01    2.700000e+00
 TC6vq   X2h  1 3.950000e-01    2.940000e+00
 TN1aq   X2h  1 3.950000e-01    2.500000e+00
 TN2aq   X2h  1 3.950000e-01    2.500000e+00
 TN3aq   X2h  1 3.950000e-01    2.500000e+00
 TN4aq   X2h  1 3.950000e-01    2.500000e+00
 TN5aq   X2h  1 3.950000e-01    2.500000e+00
 TN6aq   X2h  1 3.950000e-01    2.310000e+00
 TP1aq   X2h  1 3.950000e-01    2.310000e+00
 TP2aq   X2h  1 3.950000e-01    2.310000e+00
 TP3aq   X2h  1 3.950000e-01    2.310000e+00
 TP4aq   X2h  1 3.950000e-01    2.310000e+00
 TP5aq   X2h  1 3.950000e-01    2.310000e+00
 TP6aq   X2h  1 3.950000e-01    2.110000e+00
 TN1dq   X2h  1 3.950000e-01    2.500000e+00
 TN2dq   X2h  1 3.950000e-01    2.500000e+00
 TN3dq   X2h  1 3.950000e-01    2.500000e+00
 TN4dq   X2h  1 3.950000e-01    2.500000e+00
 TN5dq   X2h  1 3.950000e-01    2.500000e+00
 TN6dq   X2h  1 3.950000e-01    2.310000e+00
 TP1dq   X2h  1 3.950000e-01    2.310000e+00
 TP2dq   X2h  1 3.950000e-01    2.310000e+00
 TP3dq   X2h  1 3.950000e-01    2.310000e+00
 TP4dq   X2h  1 3.950000e-01    2.310000e+00
 TP5dq   X2h  1 3.950000e-01    2.310000e+00
 TP6dq   X2h  1 3.950000e-01    2.110000e+00
  TX2h   X1q  1 3.950000e-01    2.940000e+00
  TP6d   X1h  1 3.980000e-01    1.450000e+00
  TP5d   X1h  1 3.980000e-01    1.450000e+00
  TP4d   X1h  1 3.950000e-01    1.670000e+00
  TP3d   X1h  1 3.950000e-01    1.670000e+00
  TP2d   X1h  1 3.950000e-01    1.670000e+00
  TP1d   X1h  1 3.950000e-01    1.670000e+00
  TN6d   X1h  1 3.950000e-01    1.670000e+00
  TN5d   X1h  1 3.950000e-01    1.850000e+00
  TN4d   X1h  1 3.950000e-01    1.850000e+00
  TN3d   X1h  1 3.950000e-01    2.110000e+00
  TN2d   X1h  1 3.950000e-01    2.110000e+00
  TN1d   X1h  1 3.950000e-01    2.110000e+00
  TP6a   X1h  1 3.980000e-01    1.450000e+00
  TP5a   X1h  1 3.980000e-01    1.450000e+00
  TP4a   X1h  1 3.950000e-01    1.670000e+00
  TP3a   X1h  1 3.950000e-01    1.670000e+00
  TP2a   X1h  1 3.950000e-01    1.670000e+00
  TP1a   X1h  1 3.950000e-01    1.670000e+00
  TN6a   X1h  1 3.950000e-01    1.670000e+00
  TN5a   X1h  1 3.950000e-01    1.850000e+00
  TN4a   X1h  1 3.950000e-01    1.850000e+00
  TN3a   X1h  1 3.950000e-01    2.110000e+00
  TN2a   X1h  1 3.950000e-01    2.110000e+00
  TN1a   X1h  1 3.950000e-01    2.110000e+00
  TC6v   X1h  1 3.950000e-01    2.500000e+00
  TC5v   X1h  1 3.950000e-01    2.500000e+00
  TC4v   X1h  1 3.950000e-01    2.500000e+00
  TC3v   X1h  1 3.950000e-01    2.500000e+00
  TC2v   X1h  1 3.950000e-01    2.310000e+00
  TC1v   X1h  1 3.950000e-01    2.310000e+00
  TX4v   X1h  1 3.950000e-01    2.500000e+00
  TX3v   X1h  1 3.950000e-01    2.700000e+00
  TX2v   X1h  1 3.950000e-01    2.700000e+00
  TX1h   X1v  1 3.950000e-01    2.940000e+00
  TC6e   X1h  1 3.950000e-01    2.500000e+00
  TC5e   X1h  1 3.950000e-01    2.500000e+00
  TC4e   X1h  1 3.950000e-01    2.500000e+00
  TC3e   X1h  1 3.950000e-01    2.500000e+00
  TC2e   X1h  1 3.950000e-01    2.310000e+00
  TC1e   X1h  1 3.950000e-01    2.310000e+00
  TX4e   X1h  1 3.950000e-01    2.500000e+00
  TX3e   X1h  1 3.950000e-01    2.700000e+00
  TX2e   X1h  1 3.950000e-01    2.700000e+00
  TX1h   X1e  1 3.950000e-01    2.940000e+00
  TP6q   X1h  1 3.950000e-01    1.850000e+00
  TP5q   X1h  1 3.950000e-01    1.850000e+00
  TP4q   X1h  1 3.950000e-01    2.110000e+00
  TP3q   X1h  1 3.950000e-01    2.110000e+00
  TP2q   X1h  1 3.950000e-01    2.110000e+00
  TP1q   X1h  1 3.950000e-01    2.110000e+00
  TN6q   X1h  1 3.950000e-01    2.110000e+00
  TN5q   X1h  1 3.950000e-01    2.310000e+00
  TN4q   X1h  1 3.950000e-01    2.310000e+00
  TN3q   X1h  1 3.950000e-01    2.500000e+00
  TN2q   X1h  1 3.950000e-01    2.500000e+00
  TN1q   X1h  1 3.950000e-01    2.500000e+00
  TC6q   X1h  1 3.950000e-01    2.700000e+00
  TC5q   X1h  1 3.950000e-01    2.700000e+00
  TC4q   X1h  1 3.950000e-01    2.700000e+00
  TC3q   X1h  1 3.950000e-01    2.700000e+00
  TC2q   X1h  1 3.950000e-01    2.500000e+00
  TC1q   X1h  1 3.950000e-01    2.500000e+00
  TX4q   X1h  1 3.950000e-01    2.700000e+00
  TX3q   X1h  1 3.950000e-01    2.940000e+00
  TX2q   X1h  1 3.950000e-01    2.940000e+00
  TX1h   X1q  1 3.950000e-01    3.190000e+00
  TX1h  X1eq  1 3.950000e-01    3.430000e+00
 TX2eq   X1h  1 3.950000e-01    3.190000e+00
 TX3eq   X1h  1 3.950000e-01    3.190000e+00
 TX4eq   X1h  1 3.950000e-01    2.940000e+00
 TC1eq   X1h  1 3.950000e-01    2.700000e+00
 TC2eq   X1h  1 3.950000e-01    2.700000e+00
 TC3eq   X1h  1 3.950000e-01    2.940000e+00
 TC4eq   X1h  1 3.950000e-01    2.940000e+00
 TC5eq   X1h  1 3.950000e-01    2.940000e+00
 TC6eq   X1h  1 3.950000e-01    2.940000e+00
  TX1h  X1vq  1 3.950000e-01    3.430000e+00
 TX2vq   X1h  1 3.950000e-01    3.190000e+00
 TX3vq   X1h  1 3.950000e-01    3.190000e+00
 TX4vq   X1h  1 3.950000e-01    2.940000e+00
 TC1vq   X1h  1 3.950000e-01    2.700000e+00
 TC2vq   X1h  1 3.950000e-01    2.700000e+00
 TC3vq   X1h  1 3.950000e-01    2.940000e+00
 TC4vq   X1h  1 3.950000e-01    2.940000e+00
 TC5vq   X1h  1 3.950000e-01    2.940000e+00
 TC6vq   X1h  1 3.950000e-01    2.940000e+00
 TN1aq   X1h  1 3.950000e-01    2.500000e+00
 TN2aq   X1h  1 3.950000e-01    2.500000e+00
 TN3aq   X1h  1 3.950000e-01    2.500000e+00
 TN4aq   X1h  1 3.950000e-01    2.310000e+00
 TN5aq   X1h  1 3.950000e-01    2.310000e+00
 TN6aq   X1h  1 3.950000e-01    2.110000e+00
 TP1aq   X1h  1 3.950000e-01    2.110000e+00
 TP2aq   X1h  1 3.950000e-01    2.110000e+00
 TP3aq   X1h  1 3.950000e-01    2.110000e+00
 TP4aq   X1h  1 3.950000e-01    2.110000e+00
 TP5aq   X1h  1 3.950000e-01    1.850000e+00
 TP6aq   X1h  1 3.950000e-01    1.850000e+00
 TN1dq   X1h  1 3.950000e-01    2.500000e+00
 TN2dq   X1h  1 3.950000e-01    2.500000e+00
 TN3dq   X1h  1 3.950000e-01    2.500000e+00
 TN4dq   X1h  1 3.950000e-01    2.310000e+00
 TN5dq   X1h  1 3.950000e-01    2.310000e+00
 TN6dq   X1h  1 3.950000e-01    2.110000e+00
 TP1dq   X1h  1 3.950000e-01    2.110000e+00
 TP2dq   X1h  1 3.950000e-01    2.110000e+00
 TP3dq   X1h  1 3.950000e-01    2.110000e+00
 TP4dq   X1h  1 3.950000e-01    2.110000e+00
 TP5dq   X1h  1 3.950000e-01    1.850000e+00
 TP6dq   X1h  1 3.950000e-01    1.850000e+00
  TP6d  P6dh  1 3.950000e-01    3.910000e+00
 TP6dh   P5d  1 3.950000e-01    3.670000e+00
 TP6dh   P4d  1 3.950000e-01    3.430000e+00
 TP6dh   P3d  1 3.950000e-01    3.190000e+00
 TP6dh   P2d  1 3.950000e-01    3.190000e+00
 TP6dh   P1d  1 3.950000e-01    2.940000e+00
 TP6dh   N6d  1 3.950000e-01    2.700000e+00
 TP6dh   N5d  1 3.950000e-01    2.310000e+00
 TP6dh   N4d  1 3.950000e-01    2.110000e+00
 TP6dh   N3d  1 3.950000e-01    2.110000e+00
 TP6dh   N2d  1 3.950000e-01    1.850000e+00
 TP6dh   N1d  1 3.950000e-01    1.670000e+00
 TP6dh   P6a  1 3.950000e-01    4.540000e+00
 TP6dh   P5a  1 3.950000e-01    4.230000e+00
 TP6dh   P4a  1 3.950000e-01    3.910000e+00
 TP6dh   P3a  1 3.950000e-01    3.670000e+00
 TP6dh   P2a  1 3.950000e-01    3.670000e+00
 TP6dh   P1a  1 3.950000e-01    3.430000e+00
 TP6dh   N6a  1 3.950000e-01    3.190000e+00
 TP6dh   N5a  1 3.950000e-01    2.700000e+00
 TP6dh   N4a  1 3.950000e-01    2.500000e+00
 TP6dh   N3a  1 3.950000e-01    2.110000e+00
 TP6dh   N2a  1 3.950000e-01    1.850000e+00
 TP6dh   N1a  1 3.950000e-01    1.670000e+00
 TP6dh   C6e  1 3.950000e-01    1.850000e+00
 TP6dh   C5e  1 3.950000e-01    1.670000e+00
 TP6dh   C4e  1 3.980000e-01    1.450000e+00
 TP6dh   C3e  1 3.990000e-01    1.180000e+00
 TP6dh   C2e  1 3.990000e-01    1.180000e+00
 TP6dh   C1e  1 4.040000e-01    8.300000e-01
 TP6dh   X4e  1 3.950000e-01    2.110000e+00
 TP6dh   X3e  1 3.950000e-01    2.110000e+00
 TP6dh   X2e  1 3.950000e-01    1.850000e+00
 TP6dh   X1e  1 3.950000e-01    1.670000e+00
 TP6dh   C6v  1 3.980000e-01    1.450000e+00
 TP6dh   C5v  1 3.990000e-01    1.180000e+00
 TP6dh   C4v  1 4.010000e-01    9.830000e-01
 TP6dh   C3v  1 4.040000e-01    8.300000e-01
 TP6dh   C2v  1 4.040000e-01    8.300000e-01
 TP6dh   C1v  1 5.110000e-01    6.590000e-01
 TP6dh   X4v  1 3.950000e-01    1.670000e+00
 TP6dh   X3v  1 3.950000e-01    1.670000e+00
 TP6dh   X2v  1 3.980000e-01    1.450000e+00
 TP6dh   X1v  1 3.990000e-01    1.180000e+00
  TP6q  P6dh  1 3.950000e-01    4.870000e+00
 TP6dh   P5q  1 3.950000e-01    4.540000e+00
 TP6dh   P4q  1 3.950000e-01    4.230000e+00
 TP6dh   P3q  1 3.950000e-01    3.910000e+00
 TP6dh   P2q  1 3.950000e-01    3.910000e+00
 TP6dh   P1q  1 3.950000e-01    3.670000e+00
 TP6dh   N6q  1 3.950000e-01    3.430000e+00
 TP6dh   N5q  1 3.950000e-01    2.940000e+00
 TP6dh   N4q  1 3.950000e-01    2.700000e+00
 TP6dh   N3q  1 3.950000e-01    2.500000e+00
 TP6dh   N2q  1 3.950000e-01    2.310000e+00
 TP6dh   N1q  1 3.950000e-01    2.110000e+00
 TP6dh   C6q  1 3.950000e-01    2.110000e+00
 TP6dh   C5q  1 3.950000e-01    1.850000e+00
 TP6dh   C4q  1 3.950000e-01    1.670000e+00
 TP6dh   C3q  1 3.980000e-01    1.450000e+00
 TP6dh   C2q  1 3.980000e-01    1.450000e+00
 TP6dh   C1q  1 4.010000e-01    9.830000e-01
 TP6dh   X4q  1 3.950000e-01    2.310000e+00
 TP6dh   X3q  1 3.950000e-01    2.310000e+00
 TP6dh   X2q  1 3.950000e-01    2.110000e+00
 TP6dh   X1q  1 3.950000e-01    1.850000e+00
 TP6dh  P6dq  1 3.950000e-01    4.540000e+00
 TP6dh  X1eq  1 3.950000e-01    2.110000e+00
 TP6dh  X2eq  1 3.950000e-01    2.310000e+00
 TP6dh  X3eq  1 3.950000e-01    2.500000e+00
 TP6dh  X4eq  1 3.950000e-01    2.500000e+00
 TP6dh  C1eq  1 3.990000e-01    1.180000e+00
 TP6dh  C2eq  1 3.950000e-01    1.670000e+00
 TP6dh  C3eq  1 3.950000e-01    1.670000e+00
 TP6dh  C4eq  1 3.950000e-01    1.850000e+00
 TP6dh  C5eq  1 3.950000e-01    2.110000e+00
 TP6dh  C6eq  1 3.950000e-01    2.310000e+00
 TP6dh  X1vq  1 3.950000e-01    1.670000e+00
 TP6dh  X2vq  1 3.950000e-01    1.850000e+00
 TP6dh  X3vq  1 3.950000e-01    2.110000e+00
 TP6dh  X4vq  1 3.950000e-01    2.110000e+00
 TP6dh  C1vq  1 4.040000e-01    8.300000e-01
 TP6dh  C2vq  1 3.990000e-01    1.180000e+00
 TP6dh  C3vq  1 3.990000e-01    1.180000e+00
 TP6dh  C4vq  1 3.980000e-01    1.450000e+00
 TP6dh  C5vq  1 3.950000e-01    1.670000e+00
 TP6dh  C6vq  1 3.950000e-01    1.850000e+00
 TP6dh  N1aq  1 3.950000e-01    2.110000e+00
 TP6dh  N2aq  1 3.950000e-01    2.310000e+00
 TP6dh  N3aq  1 3.950000e-01    2.500000e+00
 TP6dh  N4aq  1 3.950000e-01    2.940000e+00
 TP6dh  N5aq  1 3.950000e-01    3.190000e+00
 TP6dh  N6aq  1 3.950000e-01    3.670000e+00
 TP6dh  P1aq  1 3.950000e-01    3.910000e+00
 TP6dh  P2aq  1 3.950000e-01    4.230000e+00
 TP6dh  P3aq  1 3.950000e-01    4.230000e+00
 TP6dh  P4aq  1 3.950000e-01    4.540000e+00
 TP6dh  P5aq  1 3.950000e-01    4.870000e+00
 TP6dh  P6aq  1 3.950000e-01    5.270000e+00
 TP6dh  N1dq  1 3.950000e-01    2.110000e+00
 TP6dh  N2dq  1 3.950000e-01    2.310000e+00
 TP6dh  N3dq  1 3.950000e-01    2.500000e+00
 TP6dh  N4dq  1 3.950000e-01    2.500000e+00
 TP6dh  N5dq  1 3.950000e-01    2.700000e+00
 TP6dh  N6dq  1 3.950000e-01    3.190000e+00
 TP6dh  P1dq  1 3.950000e-01    3.430000e+00
 TP6dh  P2dq  1 3.950000e-01    3.670000e+00
 TP6dh  P3dq  1 3.950000e-01    3.670000e+00
 TP6dh  P4dq  1 3.950000e-01    3.910000e+00
 TP6dh  P5dq  1 3.950000e-01    4.230000e+00
  TP5d  P5dh  1 3.950000e-01    3.430000e+00
 TP5dh   P4d  1 3.950000e-01    3.190000e+00
 TP5dh   P3d  1 3.950000e-01    2.940000e+00
 TP5dh   P2d  1 3.950000e-01    2.940000e+00
 TP5dh   P1d  1 3.950000e-01    2.700000e+00
 TP5dh   N6d  1 3.950000e-01    2.500000e+00
 TP5dh   N5d  1 3.950000e-01    2.310000e+00
 TP5dh   N4d  1 3.950000e-01    2.310000e+00
 TP5dh   N3d  1 3.950000e-01    2.110000e+00
 TP5dh   N2d  1 3.950000e-01    1.850000e+00
 TP5dh   N1d  1 3.950000e-01    1.670000e+00
  TP6a  P5dh  1 3.950000e-01    4.230000e+00
 TP5dh   P5a  1 3.950000e-01    3.910000e+00
 TP5dh   P4a  1 3.950000e-01    3.670000e+00
 TP5dh   P3a  1 3.950000e-01    3.430000e+00
 TP5dh   P2a  1 3.950000e-01    3.430000e+00
 TP5dh   P1a  1 3.950000e-01    3.190000e+00
 TP5dh   N6a  1 3.950000e-01    2.940000e+00
 TP5dh   N5a  1 3.950000e-01    2.700000e+00
 TP5dh   N4a  1 3.950000e-01    2.700000e+00
 TP5dh   N3a  1 3.950000e-01    2.110000e+00
 TP5dh   N2a  1 3.950000e-01    1.850000e+00
 TP5dh   N1a  1 3.950000e-01    1.670000e+00
 TP5dh   C6e  1 3.950000e-01    1.850000e+00
 TP5dh   C5e  1 3.950000e-01    1.850000e+00
 TP5dh   C4e  1 3.950000e-01    1.670000e+00
 TP5dh   C3e  1 3.980000e-01    1.450000e+00
 TP5dh   C2e  1 3.980000e-01    1.450000e+00
 TP5dh   C1e  1 3.990000e-01    1.180000e+00
 TP5dh   X4e  1 3.950000e-01    2.310000e+00
 TP5dh   X3e  1 3.950000e-01    2.110000e+00
 TP5dh   X2e  1 3.950000e-01    2.110000e+00
 TP5dh   X1e  1 3.950000e-01    1.670000e+00
 TP5dh   C6v  1 3.980000e-01    1.450000e+00
 TP5dh   C5v  1 3.980000e-01    1.450000e+00
 TP5dh   C4v  1 3.990000e-01    1.180000e+00
 TP5dh   C3v  1 4.010000e-01    9.830000e-01
 TP5dh   C2v  1 4.010000e-01    9.830000e-01
 TP5dh   C1v  1 4.040000e-01    8.300000e-01
 TP5dh   X4v  1 3.950000e-01    1.850000e+00
 TP5dh   X3v  1 3.950000e-01    1.670000e+00
 TP5dh   X2v  1 3.950000e-01    1.670000e+00
 TP5dh   X1v  1 3.990000e-01    1.180000e+00
  TP6q  P5dh  1 3.950000e-01    4.540000e+00
  TP5q  P5dh  1 3.950000e-01    4.230000e+00
 TP5dh   P4q  1 3.950000e-01    3.910000e+00
 TP5dh   P3q  1 3.950000e-01    3.670000e+00
 TP5dh   P2q  1 3.950000e-01    3.670000e+00
 TP5dh   P1q  1 3.950000e-01    3.430000e+00
 TP5dh   N6q  1 3.950000e-01    3.190000e+00
 TP5dh   N5q  1 3.950000e-01    2.940000e+00
 TP5dh   N4q  1 3.950000e-01    2.940000e+00
 TP5dh   N3q  1 3.950000e-01    2.500000e+00
 TP5dh   N2q  1 3.950000e-01    2.310000e+00
 TP5dh   N1q  1 3.950000e-01    2.110000e+00
 TP5dh   C6q  1 3.950000e-01    2.110000e+00
 TP5dh   C5q  1 3.950000e-01    2.110000e+00
 TP5dh   C4q  1 3.950000e-01    1.850000e+00
 TP5dh   C3q  1 3.950000e-01    1.670000e+00
 TP5dh   C2q  1 3.950000e-01    1.670000e+00
 TP5dh   C1q  1 3.980000e-01    1.450000e+00
 TP5dh   X4q  1 3.950000e-01    2.500000e+00
 TP5dh   X3q  1 3.950000e-01    2.310000e+00
 TP5dh   X2q  1 3.950000e-01    2.310000e+00
 TP5dh   X1q  1 3.950000e-01    1.850000e+00
 TP6dq  P5dh  1 3.950000e-01    4.230000e+00
 TP5dh  P5dq  1 3.950000e-01    3.910000e+00
 TP5dh  X1eq  1 3.950000e-01    2.110000e+00
 TP5dh  X2eq  1 3.950000e-01    2.500000e+00
 TP5dh  X3eq  1 3.950000e-01    2.500000e+00
 TP5dh  X4eq  1 3.950000e-01    2.700000e+00
 TP5dh  C1eq  1 3.950000e-01    1.670000e+00
 TP5dh  C2eq  1 3.950000e-01    1.850000e+00
 TP5dh  C3eq  1 3.950000e-01    1.850000e+00
 TP5dh  C4eq  1 3.950000e-01    2.110000e+00
 TP5dh  C5eq  1 3.950000e-01    2.310000e+00
 TP5dh  C6eq  1 3.950000e-01    2.310000e+00
 TP5dh  X1vq  1 3.950000e-01    1.670000e+00
 TP5dh  X2vq  1 3.950000e-01    2.110000e+00
 TP5dh  X3vq  1 3.950000e-01    2.110000e+00
 TP5dh  X4vq  1 3.950000e-01    2.310000e+00
 TP5dh  C1vq  1 3.990000e-01    1.180000e+00
 TP5dh  C2vq  1 3.980000e-01    1.450000e+00
 TP5dh  C3vq  1 3.980000e-01    1.450000e+00
 TP5dh  C4vq  1 3.950000e-01    1.670000e+00
 TP5dh  C5vq  1 3.950000e-01    1.850000e+00
 TP5dh  C6vq  1 3.950000e-01    1.850000e+00
 TP5dh  N1aq  1 3.950000e-01    2.110000e+00
 TP5dh  N2aq  1 3.950000e-01    2.310000e+00
 TP5dh  N3aq  1 3.950000e-01    2.500000e+00
 TP5dh  N4aq  1 3.950000e-01    3.190000e+00
 TP5dh  N5aq  1 3.950000e-01    3.190000e+00
 TP5dh  N6aq  1 3.950000e-01    3.430000e+00
 TP5dh  P1aq  1 3.950000e-01    3.670000e+00
 TP5dh  P2aq  1 3.950000e-01    3.910000e+00
 TP5dh  P3aq  1 3.950000e-01    3.910000e+00
 TP5dh  P4aq  1 3.950000e-01    4.230000e+00
 TP5dh  P5aq  1 3.950000e-01    4.540000e+00
 TP6aq  P5dh  1 3.950000e-01    4.870000e+00
 TP5dh  N1dq  1 3.950000e-01    2.110000e+00
 TP5dh  N2dq  1 3.950000e-01    2.310000e+00
 TP5dh  N3dq  1 3.950000e-01    2.500000e+00
 TP5dh  N4dq  1 3.950000e-01    2.700000e+00
 TP5dh  N5dq  1 3.950000e-01    2.700000e+00
 TP5dh  N6dq  1 3.950000e-01    2.940000e+00
 TP5dh  P1dq  1 3.950000e-01    3.190000e+00
 TP5dh  P2dq  1 3.950000e-01    3.430000e+00
 TP5dh  P3dq  1 3.950000e-01    3.430000e+00
 TP5dh  P4dq  1 3.950000e-01    3.670000e+00
  TP4d  P4dh  1 3.950000e-01    3.190000e+00
 TP4dh   P3d  1 3.950000e-01    2.940000e+00
 TP4dh   P2d  1 3.950000e-01    2.940000e+00
 TP4dh   P1d  1 3.950000e-01    2.700000e+00
 TP4dh   N6d  1 3.950000e-01    2.500000e+00
 TP4dh   N5d  1 3.950000e-01    2.310000e+00
 TP4dh   N4d  1 3.950000e-01    2.310000e+00
 TP4dh   N3d  1 3.950000e-01    2.110000e+00
 TP4dh   N2d  1 3.950000e-01    2.110000e+00
 TP4dh   N1d  1 3.950000e-01    1.850000e+00
  TP6a  P4dh  1 3.950000e-01    3.910000e+00
  TP5a  P4dh  1 3.950000e-01    3.670000e+00
 TP4dh   P4a  1 3.950000e-01    3.670000e+00
 TP4dh   P3a  1 3.950000e-01    3.430000e+00
 TP4dh   P2a  1 3.950000e-01    3.430000e+00
 TP4dh   P1a  1 3.950000e-01    3.190000e+00
 TP4dh   N6a  1 3.950000e-01    2.940000e+00
 TP4dh   N5a  1 3.950000e-01    2.700000e+00
 TP4dh   N4a  1 3.950000e-01    2.700000e+00
 TP4dh   N3a  1 3.950000e-01    2.500000e+00
 TP4dh   N2a  1 3.950000e-01    2.110000e+00
 TP4dh   N1a  1 3.950000e-01    1.850000e+00
 TP4dh   C6e  1 3.950000e-01    2.110000e+00
 TP4dh   C5e  1 3.950000e-01    1.850000e+00
 TP4dh   C4e  1 3.950000e-01    1.670000e+00
 TP4dh   C3e  1 3.980000e-01    1.450000e+00
 TP4dh   C2e  1 3.980000e-01    1.450000e+00
 TP4dh   C1e  1 3.990000e-01    1.180000e+00
 TP4dh   X4e  1 3.950000e-01    2.310000e+00
 TP4dh   X3e  1 3.950000e-01    2.110000e+00
 TP4dh   X2e  1 3.950000e-01    2.110000e+00
 TP4dh   X1e  1 3.950000e-01    1.850000e+00
 TP4dh   C6v  1 3.950000e-01    1.670000e+00
 TP4dh   C5v  1 3.980000e-01    1.450000e+00
 TP4dh   C4v  1 3.990000e-01    1.180000e+00
 TP4dh   C3v  1 4.010000e-01    9.830000e-01
 TP4dh   C2v  1 4.010000e-01    9.830000e-01
 TP4dh   C1v  1 4.040000e-01    8.300000e-01
 TP4dh   X4v  1 3.950000e-01    1.850000e+00
 TP4dh   X3v  1 3.950000e-01    1.670000e+00
 TP4dh   X2v  1 3.950000e-01    1.670000e+00
 TP4dh   X1v  1 3.980000e-01    1.450000e+00
  TP6q  P4dh  1 3.950000e-01    4.230000e+00
  TP5q  P4dh  1 3.950000e-01    3.910000e+00
  TP4q  P4dh  1 3.950000e-01    3.910000e+00
 TP4dh   P3q  1 3.950000e-01    3.670000e+00
 TP4dh   P2q  1 3.950000e-01    3.670000e+00
 TP4dh   P1q  1 3.950000e-01    3.430000e+00
 TP4dh   N6q  1 3.950000e-01    3.190000e+00
 TP4dh   N5q  1 3.950000e-01    2.940000e+00
 TP4dh   N4q  1 3.950000e-01    2.940000e+00
 TP4dh   N3q  1 3.950000e-01    2.700000e+00
 TP4dh   N2q  1 3.950000e-01    2.500000e+00
 TP4dh   N1q  1 3.950000e-01    2.310000e+00
 TP4dh   C6q  1 3.950000e-01    2.310000e+00
 TP4dh   C5q  1 3.950000e-01    2.110000e+00
 TP4dh   C4q  1 3.950000e-01    1.850000e+00
 TP4dh   C3q  1 3.950000e-01    1.670000e+00
 TP4dh   C2q  1 3.950000e-01    1.670000e+00
 TP4dh   C1q  1 3.980000e-01    1.450000e+00
 TP4dh   X4q  1 3.950000e-01    2.500000e+00
 TP4dh   X3q  1 3.950000e-01    2.310000e+00
 TP4dh   X2q  1 3.950000e-01    2.310000e+00
 TP4dh   X1q  1 3.950000e-01    2.110000e+00
 TP6dq  P4dh  1 3.950000e-01    3.910000e+00
 TP5dq  P4dh  1 3.950000e-01    3.670000e+00
 TP4dh  P4dq  1 3.950000e-01    3.670000e+00
 TP4dh  X1eq  1 3.950000e-01    2.310000e+00
 TP4dh  X2eq  1 3.950000e-01    2.500000e+00
 TP4dh  X3eq  1 3.950000e-01    2.500000e+00
 TP4dh  X4eq  1 3.950000e-01    2.700000e+00
 TP4dh  C1eq  1 3.950000e-01    1.670000e+00
 TP4dh  C2eq  1 3.950000e-01    1.850000e+00
 TP4dh  C3eq  1 3.950000e-01    1.850000e+00
 TP4dh  C4eq  1 3.950000e-01    2.110000e+00
 TP4dh  C5eq  1 3.950000e-01    2.310000e+00
 TP4dh  C6eq  1 3.950000e-01    2.500000e+00
 TP4dh  X1vq  1 3.950000e-01    1.850000e+00
 TP4dh  X2vq  1 3.950000e-01    2.110000e+00
 TP4dh  X3vq  1 3.950000e-01    2.110000e+00
 TP4dh  X4vq  1 3.950000e-01    2.310000e+00
 TP4dh  C1vq  1 3.990000e-01    1.180000e+00
 TP4dh  C2vq  1 3.980000e-01    1.450000e+00
 TP4dh  C3vq  1 3.980000e-01    1.450000e+00
 TP4dh  C4vq  1 3.950000e-01    1.670000e+00
 TP4dh  C5vq  1 3.950000e-01    1.850000e+00
 TP4dh  C6vq  1 3.950000e-01    2.110000e+00
 TP4dh  N1aq  1 3.950000e-01    2.310000e+00
 TP4dh  N2aq  1 3.950000e-01    2.500000e+00
 TP4dh  N3aq  1 3.950000e-01    2.940000e+00
 TP4dh  N4aq  1 3.950000e-01    3.190000e+00
 TP4dh  N5aq  1 3.950000e-01    3.190000e+00
 TP4dh  N6aq  1 3.950000e-01    3.430000e+00
 TP4dh  P1aq  1 3.950000e-01    3.670000e+00
 TP4dh  P2aq  1 3.950000e-01    3.910000e+00
 TP4dh  P3aq  1 3.950000e-01    3.910000e+00
 TP4dh  P4aq  1 3.950000e-01    4.230000e+00
 TP5aq  P4dh  1 3.950000e-01    4.230000e+00
 TP6aq  P4dh  1 3.950000e-01    4.540000e+00
 TP4dh  N1dq  1 3.950000e-01    2.310000e+00
 TP4dh  N2dq  1 3.950000e-01    2.500000e+00
 TP4dh  N3dq  1 3.950000e-01    2.500000e+00
 TP4dh  N4dq  1 3.950000e-01    2.700000e+00
 TP4dh  N5dq  1 3.950000e-01    2.700000e+00
 TP4dh  N6dq  1 3.950000e-01    2.940000e+00
 TP4dh  P1dq  1 3.950000e-01    3.190000e+00
 TP4dh  P2dq  1 3.950000e-01    3.430000e+00
 TP4dh  P3dq  1 3.950000e-01    3.430000e+00
  TP3d  P3dh  1 3.950000e-01    2.940000e+00
 TP3dh   P2d  1 3.950000e-01    2.940000e+00
 TP3dh   P1d  1 3.950000e-01    2.700000e+00
 TP3dh   N6d  1 3.950000e-01    2.500000e+00
 TP3dh   N5d  1 3.950000e-01    2.310000e+00
 TP3dh   N4d  1 3.950000e-01    2.310000e+00
 TP3dh   N3d  1 3.950000e-01    2.110000e+00
 TP3dh   N2d  1 3.950000e-01    2.110000e+00
 TP3dh   N1d  1 3.950000e-01    2.110000e+00
  TP6a  P3dh  1 3.950000e-01    3.670000e+00
  TP5a  P3dh  1 3.950000e-01    3.430000e+00
  TP4a  P3dh  1 3.950000e-01    3.430000e+00
 TP3dh   P3a  1 3.950000e-01    3.430000e+00
 TP3dh   P2a  1 3.950000e-01    3.430000e+00
 TP3dh   P1a  1 3.950000e-01    3.190000e+00
 TP3dh   N6a  1 3.950000e-01    2.940000e+00
 TP3dh   N5a  1 3.950000e-01    2.700000e+00
 TP3dh   N4a  1 3.950000e-01    2.700000e+00
 TP3dh   N3a  1 3.950000e-01    2.500000e+00
 TP3dh   N2a  1 3.950000e-01    2.500000e+00
 TP3dh   N1a  1 3.950000e-01    2.110000e+00
 TP3dh   C6e  1 3.950000e-01    2.310000e+00
 TP3dh   C5e  1 3.950000e-01    2.110000e+00
 TP3dh   C4e  1 3.950000e-01    1.850000e+00
 TP3dh   C3e  1 3.980000e-01    1.450000e+00
 TP3dh   C2e  1 3.980000e-01    1.450000e+00
 TP3dh   C1e  1 3.990000e-01    1.180000e+00
 TP3dh   X4e  1 3.950000e-01    2.310000e+00
 TP3dh   X3e  1 3.950000e-01    2.310000e+00
 TP3dh   X2e  1 3.950000e-01    2.110000e+00
 TP3dh   X1e  1 3.950000e-01    1.850000e+00
 TP3dh   C6v  1 3.950000e-01    1.850000e+00
 TP3dh   C5v  1 3.950000e-01    1.670000e+00
 TP3dh   C4v  1 3.980000e-01    1.450000e+00
 TP3dh   C3v  1 4.010000e-01    9.830000e-01
 TP3dh   C2v  1 4.010000e-01    9.830000e-01
 TP3dh   C1v  1 4.040000e-01    8.300000e-01
 TP3dh   X4v  1 3.950000e-01    1.850000e+00
 TP3dh   X3v  1 3.950000e-01    1.850000e+00
 TP3dh   X2v  1 3.950000e-01    1.670000e+00
 TP3dh   X1v  1 3.980000e-01    1.450000e+00
  TP6q  P3dh  1 3.950000e-01    3.910000e+00
  TP5q  P3dh  1 3.950000e-01    3.670000e+00
  TP4q  P3dh  1 3.950000e-01    3.670000e+00
  TP3q  P3dh  1 3.950000e-01    3.670000e+00
 TP3dh   P2q  1 3.950000e-01    3.670000e+00
 TP3dh   P1q  1 3.950000e-01    3.430000e+00
 TP3dh   N6q  1 3.950000e-01    3.190000e+00
 TP3dh   N5q  1 3.950000e-01    2.940000e+00
 TP3dh   N4q  1 3.950000e-01    2.940000e+00
 TP3dh   N3q  1 3.950000e-01    2.700000e+00
 TP3dh   N2q  1 3.950000e-01    2.700000e+00
 TP3dh   N1q  1 3.950000e-01    2.500000e+00
 TP3dh   C6q  1 3.950000e-01    2.500000e+00
 TP3dh   C5q  1 3.950000e-01    2.310000e+00
 TP3dh   C4q  1 3.950000e-01    2.110000e+00
 TP3dh   C3q  1 3.950000e-01    1.670000e+00
 TP3dh   C2q  1 3.950000e-01    1.670000e+00
 TP3dh   C1q  1 3.980000e-01    1.450000e+00
 TP3dh   X4q  1 3.950000e-01    2.500000e+00
 TP3dh   X3q  1 3.950000e-01    2.500000e+00
 TP3dh   X2q  1 3.950000e-01    2.310000e+00
 TP3dh   X1q  1 3.950000e-01    2.110000e+00
 TP6dq  P3dh  1 3.950000e-01    3.670000e+00
 TP5dq  P3dh  1 3.950000e-01    3.430000e+00
 TP4dq  P3dh  1 3.950000e-01    3.430000e+00
 TP3dh  P3dq  1 3.950000e-01    3.430000e+00
 TP3dh  X1eq  1 3.950000e-01    2.310000e+00
 TP3dh  X2eq  1 3.950000e-01    2.500000e+00
 TP3dh  X3eq  1 3.950000e-01    2.700000e+00
 TP3dh  X4eq  1 3.950000e-01    2.700000e+00
 TP3dh  C1eq  1 3.950000e-01    1.670000e+00
 TP3dh  C2eq  1 3.950000e-01    1.850000e+00
 TP3dh  C3eq  1 3.950000e-01    1.850000e+00
 TP3dh  C4eq  1 3.950000e-01    2.310000e+00
 TP3dh  C5eq  1 3.950000e-01    2.500000e+00
 TP3dh  C6eq  1 3.950000e-01    2.700000e+00
 TP3dh  X1vq  1 3.950000e-01    1.850000e+00
 TP3dh  X2vq  1 3.950000e-01    2.110000e+00
 TP3dh  X3vq  1 3.950000e-01    2.310000e+00
 TP3dh  X4vq  1 3.950000e-01    2.310000e+00
 TP3dh  C1vq  1 3.990000e-01    1.180000e+00
 TP3dh  C2vq  1 3.980000e-01    1.450000e+00
 TP3dh  C3vq  1 3.980000e-01    1.450000e+00
 TP3dh  C4vq  1 3.950000e-01    1.850000e+00
 TP3dh  C5vq  1 3.950000e-01    2.110000e+00
 TP3dh  C6vq  1 3.950000e-01    2.310000e+00
 TP3dh  N1aq  1 3.950000e-01    2.500000e+00
 TP3dh  N2aq  1 3.950000e-01    2.940000e+00
 TP3dh  N3aq  1 3.950000e-01    2.940000e+00
 TP3dh  N4aq  1 3.950000e-01    3.190000e+00
 TP3dh  N5aq  1 3.950000e-01    3.190000e+00
 TP3dh  N6aq  1 3.950000e-01    3.430000e+00
 TP3dh  P1aq  1 3.950000e-01    3.670000e+00
 TP3dh  P2aq  1 3.950000e-01    3.910000e+00
 TP3dh  P3aq  1 3.950000e-01    3.910000e+00
 TP4aq  P3dh  1 3.950000e-01    3.910000e+00
 TP5aq  P3dh  1 3.950000e-01    3.910000e+00
 TP6aq  P3dh  1 3.950000e-01    4.230000e+00
 TP3dh  N1dq  1 3.950000e-01    2.500000e+00
 TP3dh  N2dq  1 3.950000e-01    2.500000e+00
 TP3dh  N3dq  1 3.950000e-01    2.500000e+00
 TP3dh  N4dq  1 3.950000e-01    2.700000e+00
 TP3dh  N5dq  1 3.950000e-01    2.700000e+00
 TP3dh  N6dq  1 3.950000e-01    2.940000e+00
 TP3dh  P1dq  1 3.950000e-01    3.190000e+00
 TP3dh  P2dq  1 3.950000e-01    3.430000e+00
  TP2d  P2dh  1 3.950000e-01    2.940000e+00
 TP2dh   P1d  1 3.950000e-01    2.700000e+00
 TP2dh   N6d  1 3.950000e-01    2.700000e+00
 TP2dh   N5d  1 3.950000e-01    2.500000e+00
 TP2dh   N4d  1 3.950000e-01    2.310000e+00
 TP2dh   N3d  1 3.950000e-01    2.110000e+00
 TP2dh   N2d  1 3.950000e-01    2.110000e+00
 TP2dh   N1d  1 3.950000e-01    2.110000e+00
  TP6a  P2dh  1 3.950000e-01    3.670000e+00
  TP5a  P2dh  1 3.950000e-01    3.430000e+00
  TP4a  P2dh  1 3.950000e-01    3.430000e+00
  TP3a  P2dh  1 3.950000e-01    3.430000e+00
 TP2dh   P2a  1 3.950000e-01    3.430000e+00
 TP2dh   P1a  1 3.950000e-01    3.190000e+00
 TP2dh   N6a  1 3.950000e-01    3.190000e+00
 TP2dh   N5a  1 3.950000e-01    2.940000e+00
 TP2dh   N4a  1 3.950000e-01    2.700000e+00
 TP2dh   N3a  1 3.950000e-01    2.500000e+00
 TP2dh   N2a  1 3.950000e-01    2.500000e+00
 TP2dh   N1a  1 3.950000e-01    2.500000e+00
 TP2dh   C6e  1 3.950000e-01    2.310000e+00
 TP2dh   C5e  1 3.950000e-01    2.110000e+00
 TP2dh   C4e  1 3.950000e-01    1.850000e+00
 TP2dh   C3e  1 3.950000e-01    1.670000e+00
 TP2dh   C2e  1 3.950000e-01    1.670000e+00
 TP2dh   C1e  1 3.980000e-01    1.450000e+00
 TP2dh   X4e  1 3.950000e-01    2.310000e+00
 TP2dh   X3e  1 3.950000e-01    2.310000e+00
 TP2dh   X2e  1 3.950000e-01    2.110000e+00
 TP2dh   X1e  1 3.950000e-01    1.850000e+00
 TP2dh   C6v  1 3.950000e-01    1.850000e+00
 TP2dh   C5v  1 3.950000e-01    1.670000e+00
 TP2dh   C4v  1 3.980000e-01    1.450000e+00
 TP2dh   C3v  1 3.990000e-01    1.180000e+00
 TP2dh   C2v  1 3.990000e-01    1.180000e+00
 TP2dh   C1v  1 4.010000e-01    9.830000e-01
 TP2dh   X4v  1 3.950000e-01    1.850000e+00
 TP2dh   X3v  1 3.950000e-01    1.850000e+00
 TP2dh   X2v  1 3.950000e-01    1.670000e+00
 TP2dh   X1v  1 3.980000e-01    1.450000e+00
  TP6q  P2dh  1 3.950000e-01    3.910000e+00
  TP5q  P2dh  1 3.950000e-01    3.670000e+00
  TP4q  P2dh  1 3.950000e-01    3.670000e+00
  TP3q  P2dh  1 3.950000e-01    3.670000e+00
  TP2q  P2dh  1 3.950000e-01    3.670000e+00
 TP2dh   P1q  1 3.950000e-01    3.430000e+00
 TP2dh   N6q  1 3.950000e-01    3.430000e+00
 TP2dh   N5q  1 3.950000e-01    3.190000e+00
 TP2dh   N4q  1 3.950000e-01    2.940000e+00
 TP2dh   N3q  1 3.950000e-01    2.700000e+00
 TP2dh   N2q  1 3.950000e-01    2.700000e+00
 TP2dh   N1q  1 3.950000e-01    2.700000e+00
 TP2dh   C6q  1 3.950000e-01    2.500000e+00
 TP2dh   C5q  1 3.950000e-01    2.310000e+00
 TP2dh   C4q  1 3.950000e-01    2.110000e+00
 TP2dh   C3q  1 3.950000e-01    1.850000e+00
 TP2dh   C2q  1 3.950000e-01    1.850000e+00
 TP2dh   C1q  1 3.950000e-01    1.670000e+00
 TP2dh   X4q  1 3.950000e-01    2.500000e+00
 TP2dh   X3q  1 3.950000e-01    2.500000e+00
 TP2dh   X2q  1 3.950000e-01    2.310000e+00
 TP2dh   X1q  1 3.950000e-01    2.110000e+00
 TP6dq  P2dh  1 3.950000e-01    3.670000e+00
 TP5dq  P2dh  1 3.950000e-01    3.430000e+00
 TP4dq  P2dh  1 3.950000e-01    3.430000e+00
 TP3dq  P2dh  1 3.950000e-01    3.430000e+00
 TP2dh  P2dq  1 3.950000e-01    3.430000e+00
 TP2dh  X1eq  1 3.950000e-01    2.310000e+00
 TP2dh  X2eq  1 3.950000e-01    2.500000e+00
 TP2dh  X3eq  1 3.950000e-01    2.700000e+00
 TP2dh  X4eq  1 3.950000e-01    2.700000e+00
 TP2dh  C1eq  1 3.950000e-01    1.850000e+00
 TP2dh  C2eq  1 3.950000e-01    2.110000e+00
 TP2dh  C3eq  1 3.950000e-01    2.110000e+00
 TP2dh  C4eq  1 3.950000e-01    2.310000e+00
 TP2dh  C5eq  1 3.950000e-01    2.500000e+00
 TP2dh  C6eq  1 3.950000e-01    2.700000e+00
 TP2dh  X1vq  1 3.950000e-01    1.850000e+00
 TP2dh  X2vq  1 3.950000e-01    2.110000e+00
 TP2dh  X3vq  1 3.950000e-01    2.310000e+00
 TP2dh  X4vq  1 3.950000e-01    2.310000e+00
 TP2dh  C1vq  1 3.980000e-01    1.450000e+00
 TP2dh  C2vq  1 3.950000e-01    1.670000e+00
 TP2dh  C3vq  1 3.950000e-01    1.670000e+00
 TP2dh  C4vq  1 3.950000e-01    1.850000e+00
 TP2dh  C5vq  1 3.950000e-01    2.110000e+00
 TP2dh  C6vq  1 3.950000e-01    2.310000e+00
 TP2dh  N1aq  1 3.950000e-01    2.940000e+00
 TP2dh  N2aq  1 3.950000e-01    2.940000e+00
 TP2dh  N3aq  1 3.950000e-01    2.940000e+00
 TP2dh  N4aq  1 3.950000e-01    3.190000e+00
 TP2dh  N5aq  1 3.950000e-01    3.430000e+00
 TP2dh  N6aq  1 3.950000e-01    3.670000e+00
 TP2dh  P1aq  1 3.950000e-01    3.670000e+00
 TP2dh  P2aq  1 3.950000e-01    3.910000e+00
 TP3aq  P2dh  1 3.950000e-01    3.910000e+00
 TP4aq  P2dh  1 3.950000e-01    3.910000e+00
 TP5aq  P2dh  1 3.950000e-01    3.910000e+00
 TP6aq  P2dh  1 3.950000e-01    4.230000e+00
 TP2dh  N1dq  1 3.950000e-01    2.500000e+00
 TP2dh  N2dq  1 3.950000e-01    2.500000e+00
 TP2dh  N3dq  1 3.950000e-01    2.500000e+00
 TP2dh  N4dq  1 3.950000e-01    2.700000e+00
 TP2dh  N5dq  1 3.950000e-01    2.940000e+00
 TP2dh  N6dq  1 3.950000e-01    3.190000e+00
 TP2dh  P1dq  1 3.950000e-01    3.190000e+00
  TP1d  P1dh  1 3.950000e-01    2.700000e+00
 TP1dh   N6d  1 3.950000e-01    2.700000e+00
 TP1dh   N5d  1 3.950000e-01    2.500000e+00
 TP1dh   N4d  1 3.950000e-01    2.500000e+00
 TP1dh   N3d  1 3.950000e-01    2.110000e+00
 TP1dh   N2d  1 3.950000e-01    2.110000e+00
 TP1dh   N1d  1 3.950000e-01    2.110000e+00
  TP6a  P1dh  1 3.950000e-01    3.430000e+00
  TP5a  P1dh  1 3.950000e-01    3.190000e+00
  TP4a  P1dh  1 3.950000e-01    3.190000e+00
  TP3a  P1dh  1 3.950000e-01    3.190000e+00
  TP2a  P1dh  1 3.950000e-01    3.190000e+00
 TP1dh   P1a  1 3.950000e-01    3.190000e+00
 TP1dh   N6a  1 3.950000e-01    3.190000e+00
 TP1dh   N5a  1 3.950000e-01    2.940000e+00
 TP1dh   N4a  1 3.950000e-01    2.940000e+00
 TP1dh   N3a  1 3.950000e-01    2.500000e+00
 TP1dh   N2a  1 3.950000e-01    2.500000e+00
 TP1dh   N1a  1 3.950000e-01    2.500000e+00
 TP1dh   C6e  1 3.950000e-01    2.310000e+00
 TP1dh   C5e  1 3.950000e-01    2.110000e+00
 TP1dh   C4e  1 3.950000e-01    1.850000e+00
 TP1dh   C3e  1 3.950000e-01    1.670000e+00
 TP1dh   C2e  1 3.950000e-01    1.670000e+00
 TP1dh   C1e  1 3.980000e-01    1.450000e+00
 TP1dh   X4e  1 3.950000e-01    2.310000e+00
 TP1dh   X3e  1 3.950000e-01    2.310000e+00
 TP1dh   X2e  1 3.950000e-01    2.110000e+00
 TP1dh   X1e  1 3.950000e-01    1.850000e+00
 TP1dh   C6v  1 3.950000e-01    1.850000e+00
 TP1dh   C5v  1 3.950000e-01    1.670000e+00
 TP1dh   C4v  1 3.980000e-01    1.450000e+00
 TP1dh   C3v  1 3.990000e-01    1.180000e+00
 TP1dh   C2v  1 3.990000e-01    1.180000e+00
 TP1dh   C1v  1 4.010000e-01    9.830000e-01
 TP1dh   X4v  1 3.950000e-01    1.850000e+00
 TP1dh   X3v  1 3.950000e-01    1.850000e+00
 TP1dh   X2v  1 3.950000e-01    1.670000e+00
 TP1dh   X1v  1 3.980000e-01    1.450000e+00
  TP6q  P1dh  1 3.950000e-01    3.670000e+00
  TP5q  P1dh  1 3.950000e-01    3.430000e+00
  TP4q  P1dh  1 3.950000e-01    3.430000e+00
  TP3q  P1dh  1 3.950000e-01    3.430000e+00
  TP2q  P1dh  1 3.950000e-01    3.430000e+00
  TP1q  P1dh  1 3.950000e-01    3.430000e+00
 TP1dh   N6q  1 3.950000e-01    3.430000e+00
 TP1dh   N5q  1 3.950000e-01    3.190000e+00
 TP1dh   N4q  1 3.950000e-01    3.190000e+00
 TP1dh   N3q  1 3.950000e-01    2.700000e+00
 TP1dh   N2q  1 3.950000e-01    2.700000e+00
 TP1dh   N1q  1 3.950000e-01    2.700000e+00
 TP1dh   C6q  1 3.950000e-01    2.500000e+00
 TP1dh   C5q  1 3.950000e-01    2.310000e+00
 TP1dh   C4q  1 3.950000e-01    2.110000e+00
 TP1dh   C3q  1 3.950000e-01    1.850000e+00
 TP1dh   C2q  1 3.950000e-01    1.850000e+00
 TP1dh   C1q  1 3.950000e-01    1.670000e+00
 TP1dh   X4q  1 3.950000e-01    2.500000e+00
 TP1dh   X3q  1 3.950000e-01    2.500000e+00
 TP1dh   X2q  1 3.950000e-01    2.310000e+00
 TP1dh   X1q  1 3.950000e-01    2.110000e+00
 TP6dq  P1dh  1 3.950000e-01    3.430000e+00
 TP5dq  P1dh  1 3.950000e-01    3.190000e+00
 TP4dq  P1dh  1 3.950000e-01    3.190000e+00
 TP3dq  P1dh  1 3.950000e-01    3.190000e+00
 TP2dq  P1dh  1 3.950000e-01    3.190000e+00
 TP1dh  P1dq  1 3.950000e-01    3.190000e+00
 TP1dh  X1eq  1 3.950000e-01    2.310000e+00
 TP1dh  X2eq  1 3.950000e-01    2.500000e+00
 TP1dh  X3eq  1 3.950000e-01    2.700000e+00
 TP1dh  X4eq  1 3.950000e-01    2.700000e+00
 TP1dh  C1eq  1 3.950000e-01    1.850000e+00
 TP1dh  C2eq  1 3.950000e-01    2.110000e+00
 TP1dh  C3eq  1 3.950000e-01    2.110000e+00
 TP1dh  C4eq  1 3.950000e-01    2.310000e+00
 TP1dh  C5eq  1 3.950000e-01    2.500000e+00
 TP1dh  C6eq  1 3.950000e-01    2.700000e+00
 TP1dh  X1vq  1 3.950000e-01    1.850000e+00
 TP1dh  X2vq  1 3.950000e-01    2.110000e+00
 TP1dh  X3vq  1 3.950000e-01    2.310000e+00
 TP1dh  X4vq  1 3.950000e-01    2.310000e+00
 TP1dh  C1vq  1 3.980000e-01    1.450000e+00
 TP1dh  C2vq  1 3.950000e-01    1.670000e+00
 TP1dh  C3vq  1 3.950000e-01    1.670000e+00
 TP1dh  C4vq  1 3.950000e-01    1.850000e+00
 TP1dh  C5vq  1 3.950000e-01    2.110000e+00
 TP1dh  C6vq  1 3.950000e-01    2.310000e+00
 TP1dh  N1aq  1 3.950000e-01    2.940000e+00
 TP1dh  N2aq  1 3.950000e-01    2.940000e+00
 TP1dh  N3aq  1 3.950000e-01    2.940000e+00
 TP1dh  N4aq  1 3.950000e-01    3.430000e+00
 TP1dh  N5aq  1 3.950000e-01    3.430000e+00
 TP1dh  N6aq  1 3.950000e-01    3.670000e+00
 TP1dh  P1aq  1 3.950000e-01    3.670000e+00
 TP2aq  P1dh  1 3.950000e-01    3.670000e+00
 TP3aq  P1dh  1 3.950000e-01    3.670000e+00
 TP4aq  P1dh  1 3.950000e-01    3.670000e+00
 TP5aq  P1dh  1 3.950000e-01    3.670000e+00
 TP6aq  P1dh  1 3.950000e-01    3.910000e+00
 TP1dh  N1dq  1 3.950000e-01    2.500000e+00
 TP1dh  N2dq  1 3.950000e-01    2.500000e+00
 TP1dh  N3dq  1 3.950000e-01    2.500000e+00
 TP1dh  N4dq  1 3.950000e-01    2.940000e+00
 TP1dh  N5dq  1 3.950000e-01    2.940000e+00
 TP1dh  N6dq  1 3.950000e-01    3.190000e+00
  TN6d  N6dh  1 3.950000e-01    2.700000e+00
 TN6dh   N5d  1 3.950000e-01    2.700000e+00
 TN6dh   N4d  1 3.950000e-01    2.700000e+00
 TN6dh   N3d  1 3.950000e-01    2.310000e+00
 TN6dh   N2d  1 3.950000e-01    2.110000e+00
 TN6dh   N1d  1 3.950000e-01    2.110000e+00
  TP6a  N6dh  1 3.950000e-01    3.190000e+00
  TP5a  N6dh  1 3.950000e-01    2.940000e+00
  TP4a  N6dh  1 3.950000e-01    2.940000e+00
  TP3a  N6dh  1 3.950000e-01    2.940000e+00
  TP2a  N6dh  1 3.950000e-01    3.190000e+00
  TP1a  N6dh  1 3.950000e-01    3.190000e+00
 TN6dh   N6a  1 3.950000e-01    3.190000e+00
 TN6dh   N5a  1 3.950000e-01    3.190000e+00
 TN6dh   N4a  1 3.950000e-01    3.190000e+00
 TN6dh   N3a  1 3.950000e-01    2.700000e+00
 TN6dh   N2a  1 3.950000e-01    2.500000e+00
 TN6dh   N1a  1 3.950000e-01    2.500000e+00
 TN6dh   C6e  1 3.950000e-01    2.500000e+00
 TN6dh   C5e  1 3.950000e-01    2.310000e+00
 TN6dh   C4e  1 3.950000e-01    2.110000e+00
 TN6dh   C3e  1 3.950000e-01    1.850000e+00
 TN6dh   C2e  1 3.950000e-01    1.850000e+00
 TN6dh   C1e  1 3.950000e-01    1.670000e+00
 TN6dh   X4e  1 3.950000e-01    2.500000e+00
 TN6dh   X3e  1 3.950000e-01    2.310000e+00
 TN6dh   X2e  1 3.950000e-01    2.110000e+00
 TN6dh   X1e  1 3.950000e-01    1.850000e+00
 TN6dh   C6v  1 3.950000e-01    2.110000e+00
 TN6dh   C5v  1 3.950000e-01    1.850000e+00
 TN6dh   C4v  1 3.950000e-01    1.670000e+00
 TN6dh   C3v  1 3.980000e-01    1.450000e+00
 TN6dh   C2v  1 3.980000e-01    1.450000e+00
 TN6dh   C1v  1 3.990000e-01    1.180000e+00
 TN6dh   X4v  1 3.950000e-01    2.110000e+00
 TN6dh   X3v  1 3.950000e-01    1.850000e+00
 TN6dh   X2v  1 3.950000e-01    1.670000e+00
 TN6dh   X1v  1 3.980000e-01    1.450000e+00
  TP6q  N6dh  1 3.950000e-01    3.430000e+00
  TP5q  N6dh  1 3.950000e-01    3.190000e+00
  TP4q  N6dh  1 3.950000e-01    3.190000e+00
  TP3q  N6dh  1 3.950000e-01    3.190000e+00
  TP2q  N6dh  1 3.950000e-01    3.430000e+00
  TP1q  N6dh  1 3.950000e-01    3.430000e+00
  TN6q  N6dh  1 3.950000e-01    3.430000e+00
 TN6dh   N5q  1 3.950000e-01    3.430000e+00
 TN6dh   N4q  1 3.950000e-01    3.430000e+00
 TN6dh   N3q  1 3.950000e-01    2.940000e+00
 TN6dh   N2q  1 3.950000e-01    2.700000e+00
 TN6dh   N1q  1 3.950000e-01    2.700000e+00
 TN6dh   C6q  1 3.950000e-01    2.700000e+00
 TN6dh   C5q  1 3.950000e-01    2.500000e+00
 TN6dh   C4q  1 3.950000e-01    2.310000e+00
 TN6dh   C3q  1 3.950000e-01    2.110000e+00
 TN6dh   C2q  1 3.950000e-01    2.110000e+00
 TN6dh   C1q  1 3.950000e-01    1.850000e+00
 TN6dh   X4q  1 3.950000e-01    2.700000e+00
 TN6dh   X3q  1 3.950000e-01    2.500000e+00
 TN6dh   X2q  1 3.950000e-01    2.310000e+00
 TN6dh   X1q  1 3.950000e-01    2.110000e+00
 TP6dq  N6dh  1 3.950000e-01    3.190000e+00
 TP5dq  N6dh  1 3.950000e-01    2.940000e+00
 TP4dq  N6dh  1 3.950000e-01    2.940000e+00
 TP3dq  N6dh  1 3.950000e-01    2.940000e+00
 TP2dq  N6dh  1 3.950000e-01    3.190000e+00
 TP1dq  N6dh  1 3.950000e-01    3.190000e+00
 TN6dh  N6dq  1 3.950000e-01    3.190000e+00
 TN6dh  X1eq  1 3.950000e-01    2.310000e+00
 TN6dh  X2eq  1 3.950000e-01    2.500000e+00
 TN6dh  X3eq  1 3.950000e-01    2.700000e+00
 TN6dh  X4eq  1 3.950000e-01    2.940000e+00
 TN6dh  C1eq  1 3.950000e-01    2.110000e+00
 TN6dh  C2eq  1 3.950000e-01    2.310000e+00
 TN6dh  C3eq  1 3.950000e-01    2.310000e+00
 TN6dh  C4eq  1 3.950000e-01    2.500000e+00
 TN6dh  C5eq  1 3.950000e-01    2.700000e+00
 TN6dh  C6eq  1 3.950000e-01    2.940000e+00
 TN6dh  X1vq  1 3.950000e-01    1.850000e+00
 TN6dh  X2vq  1 3.950000e-01    2.110000e+00
 TN6dh  X3vq  1 3.950000e-01    2.310000e+00
 TN6dh  X4vq  1 3.950000e-01    2.500000e+00
 TN6dh  C1vq  1 3.950000e-01    1.670000e+00
 TN6dh  C2vq  1 3.950000e-01    1.850000e+00
 TN6dh  C3vq  1 3.950000e-01    1.850000e+00
 TN6dh  C4vq  1 3.950000e-01    2.110000e+00
 TN6dh  C5vq  1 3.950000e-01    2.310000e+00
 TN6dh  C6vq  1 3.950000e-01    2.500000e+00
 TN6dh  N1aq  1 3.950000e-01    2.940000e+00
 TN6dh  N2aq  1 3.950000e-01    2.940000e+00
 TN6dh  N3aq  1 3.950000e-01    3.190000e+00
 TN6dh  N4aq  1 3.950000e-01    3.670000e+00
 TN6dh  N5aq  1 3.950000e-01    3.670000e+00
 TN6dh  N6aq  1 3.950000e-01    3.670000e+00
 TP1aq  N6dh  1 3.950000e-01    3.670000e+00
 TP2aq  N6dh  1 3.950000e-01    3.670000e+00
 TP3aq  N6dh  1 3.950000e-01    3.430000e+00
 TP4aq  N6dh  1 3.950000e-01    3.430000e+00
 TP5aq  N6dh  1 3.950000e-01    3.430000e+00
 TP6aq  N6dh  1 3.950000e-01    3.670000e+00
 TN6dh  N1dq  1 3.950000e-01    2.500000e+00
 TN6dh  N2dq  1 3.950000e-01    2.500000e+00
 TN6dh  N3dq  1 3.950000e-01    2.700000e+00
 TN6dh  N4dq  1 3.950000e-01    3.190000e+00
 TN6dh  N5dq  1 3.950000e-01    3.190000e+00
  TN5d  N5dh  1 3.950000e-01    2.500000e+00
 TN5dh   N4d  1 3.950000e-01    2.500000e+00
 TN5dh   N3d  1 3.950000e-01    2.310000e+00
 TN5dh   N2d  1 3.950000e-01    2.310000e+00
 TN5dh   N1d  1 3.950000e-01    2.110000e+00
  TP6a  N5dh  1 3.950000e-01    2.700000e+00
  TP5a  N5dh  1 3.950000e-01    2.700000e+00
  TP4a  N5dh  1 3.950000e-01    2.700000e+00
  TP3a  N5dh  1 3.950000e-01    2.700000e+00
  TP2a  N5dh  1 3.950000e-01    2.940000e+00
  TP1a  N5dh  1 3.950000e-01    2.940000e+00
  TN6a  N5dh  1 3.950000e-01    3.190000e+00
 TN5dh   N5a  1 3.950000e-01    2.940000e+00
 TN5dh   N4a  1 3.950000e-01    2.940000e+00
 TN5dh   N3a  1 3.950000e-01    2.700000e+00
 TN5dh   N2a  1 3.950000e-01    2.700000e+00
 TN5dh   N1a  1 3.950000e-01    2.500000e+00
 TN5dh   C6e  1 3.950000e-01    2.500000e+00
 TN5dh   C5e  1 3.950000e-01    2.310000e+00
 TN5dh   C4e  1 3.950000e-01    2.110000e+00
 TN5dh   C3e  1 3.950000e-01    2.110000e+00
 TN5dh   C2e  1 3.950000e-01    1.850000e+00
 TN5dh   C1e  1 3.950000e-01    1.670000e+00
 TN5dh   X4e  1 3.950000e-01    2.700000e+00
 TN5dh   X3e  1 3.950000e-01    2.500000e+00
 TN5dh   X2e  1 3.950000e-01    2.310000e+00
 TN5dh   X1e  1 3.950000e-01    2.110000e+00
 TN5dh   C6v  1 3.950000e-01    2.110000e+00
 TN5dh   C5v  1 3.950000e-01    1.850000e+00
 TN5dh   C4v  1 3.950000e-01    1.670000e+00
 TN5dh   C3v  1 3.950000e-01    1.670000e+00
 TN5dh   C2v  1 3.980000e-01    1.450000e+00
 TN5dh   C1v  1 3.990000e-01    1.180000e+00
 TN5dh   X4v  1 3.950000e-01    2.310000e+00
 TN5dh   X3v  1 3.950000e-01    2.110000e+00
 TN5dh   X2v  1 3.950000e-01    1.850000e+00
 TN5dh   X1v  1 3.950000e-01    1.670000e+00
  TP6q  N5dh  1 3.950000e-01    2.940000e+00
  TP5q  N5dh  1 3.950000e-01    2.940000e+00
  TP4q  N5dh  1 3.950000e-01    2.940000e+00
  TP3q  N5dh  1 3.950000e-01    2.940000e+00
  TP2q  N5dh  1 3.950000e-01    3.190000e+00
  TP1q  N5dh  1 3.950000e-01    3.190000e+00
  TN6q  N5dh  1 3.950000e-01    3.430000e+00
  TN5q  N5dh  1 3.950000e-01    3.190000e+00
 TN5dh   N4q  1 3.950000e-01    3.190000e+00
 TN5dh   N3q  1 3.950000e-01    2.940000e+00
 TN5dh   N2q  1 3.950000e-01    2.940000e+00
 TN5dh   N1q  1 3.950000e-01    2.700000e+00
 TN5dh   C6q  1 3.950000e-01    2.700000e+00
 TN5dh   C5q  1 3.950000e-01    2.500000e+00
 TN5dh   C4q  1 3.950000e-01    2.310000e+00
 TN5dh   C3q  1 3.950000e-01    2.310000e+00
 TN5dh   C2q  1 3.950000e-01    2.110000e+00
 TN5dh   C1q  1 3.950000e-01    1.850000e+00
 TN5dh   X4q  1 3.950000e-01    2.940000e+00
 TN5dh   X3q  1 3.950000e-01    2.700000e+00
 TN5dh   X2q  1 3.950000e-01    2.500000e+00
 TN5dh   X1q  1 3.950000e-01    2.310000e+00
 TP6dq  N5dh  1 3.950000e-01    2.700000e+00
 TP5dq  N5dh  1 3.950000e-01    2.700000e+00
 TP4dq  N5dh  1 3.950000e-01    2.700000e+00
 TP3dq  N5dh  1 3.950000e-01    2.700000e+00
 TP2dq  N5dh  1 3.950000e-01    2.940000e+00
 TP1dq  N5dh  1 3.950000e-01    2.940000e+00
 TN6dq  N5dh  1 3.950000e-01    3.190000e+00
 TN5dh  N5dq  1 3.950000e-01    2.940000e+00
 TN5dh  X1eq  1 3.950000e-01    2.500000e+00
 TN5dh  X2eq  1 3.950000e-01    2.700000e+00
 TN5dh  X3eq  1 3.950000e-01    2.940000e+00
 TN5dh  X4eq  1 3.950000e-01    3.190000e+00
 TN5dh  C1eq  1 3.950000e-01    2.110000e+00
 TN5dh  C2eq  1 3.950000e-01    2.310000e+00
 TN5dh  C3eq  1 3.950000e-01    2.500000e+00
 TN5dh  C4eq  1 3.950000e-01    2.500000e+00
 TN5dh  C5eq  1 3.950000e-01    2.700000e+00
 TN5dh  C6eq  1 3.950000e-01    2.940000e+00
 TN5dh  X1vq  1 3.950000e-01    2.110000e+00
 TN5dh  X2vq  1 3.950000e-01    2.310000e+00
 TN5dh  X3vq  1 3.950000e-01    2.500000e+00
 TN5dh  X4vq  1 3.950000e-01    2.700000e+00
 TN5dh  C1vq  1 3.950000e-01    1.670000e+00
 TN5dh  C2vq  1 3.950000e-01    1.850000e+00
 TN5dh  C3vq  1 3.950000e-01    2.110000e+00
 TN5dh  C4vq  1 3.950000e-01    2.110000e+00
 TN5dh  C5vq  1 3.950000e-01    2.310000e+00
 TN5dh  C6vq  1 3.950000e-01    2.500000e+00
 TN5dh  N1aq  1 3.950000e-01    2.940000e+00
 TN5dh  N2aq  1 3.950000e-01    3.190000e+00
 TN5dh  N3aq  1 3.950000e-01    3.190000e+00
 TN5dh  N4aq  1 3.950000e-01    3.430000e+00
 TN5dh  N5aq  1 3.950000e-01    3.430000e+00
 TN6aq  N5dh  1 3.950000e-01    3.670000e+00
 TP1aq  N5dh  1 3.950000e-01    3.430000e+00
 TP2aq  N5dh  1 3.950000e-01    3.430000e+00
 TP3aq  N5dh  1 3.950000e-01    3.190000e+00
 TP4aq  N5dh  1 3.950000e-01    3.190000e+00
 TP5aq  N5dh  1 3.950000e-01    3.190000e+00
 TP6aq  N5dh  1 3.950000e-01    3.190000e+00
 TN5dh  N1dq  1 3.950000e-01    2.500000e+00
 TN5dh  N2dq  1 3.950000e-01    2.700000e+00
 TN5dh  N3dq  1 3.950000e-01    2.700000e+00
 TN5dh  N4dq  1 3.950000e-01    2.940000e+00
  TN4d  N4dh  1 3.950000e-01    2.500000e+00
 TN4dh   N3d  1 3.950000e-01    2.310000e+00
 TN4dh   N2d  1 3.950000e-01    2.310000e+00
 TN4dh   N1d  1 3.950000e-01    2.110000e+00
  TP6a  N4dh  1 3.950000e-01    2.500000e+00
  TP5a  N4dh  1 3.950000e-01    2.700000e+00
  TP4a  N4dh  1 3.950000e-01    2.700000e+00
  TP3a  N4dh  1 3.950000e-01    2.700000e+00
  TP2a  N4dh  1 3.950000e-01    2.700000e+00
  TP1a  N4dh  1 3.950000e-01    2.940000e+00
  TN6a  N4dh  1 3.950000e-01    3.190000e+00
  TN5a  N4dh  1 3.950000e-01    2.940000e+00
 TN4dh   N4a  1 3.950000e-01    2.940000e+00
 TN4dh   N3a  1 3.950000e-01    2.700000e+00
 TN4dh   N2a  1 3.950000e-01    2.700000e+00
 TN4dh   N1a  1 3.950000e-01    2.500000e+00
 TN4dh   C6e  1 3.950000e-01    2.500000e+00
 TN4dh   C5e  1 3.950000e-01    2.310000e+00
 TN4dh   C4e  1 3.950000e-01    2.310000e+00
 TN4dh   C3e  1 3.950000e-01    2.110000e+00
 TN4dh   C2e  1 3.950000e-01    1.850000e+00
 TN4dh   C1e  1 3.950000e-01    1.670000e+00
 TN4dh   X4e  1 3.950000e-01    2.940000e+00
 TN4dh   X3e  1 3.950000e-01    2.700000e+00
 TN4dh   X2e  1 3.950000e-01    2.310000e+00
 TN4dh   X1e  1 3.950000e-01    2.110000e+00
 TN4dh   C6v  1 3.950000e-01    2.110000e+00
 TN4dh   C5v  1 3.950000e-01    1.850000e+00
 TN4dh   C4v  1 3.950000e-01    1.850000e+00
 TN4dh   C3v  1 3.950000e-01    1.670000e+00
 TN4dh   C2v  1 3.980000e-01    1.450000e+00
 TN4dh   C1v  1 3.990000e-01    1.180000e+00
 TN4dh   X4v  1 3.950000e-01    2.500000e+00
 TN4dh   X3v  1 3.950000e-01    2.310000e+00
 TN4dh   X2v  1 3.950000e-01    1.850000e+00
 TN4dh   X1v  1 3.950000e-01    1.670000e+00
  TP6q  N4dh  1 3.950000e-01    2.700000e+00
  TP5q  N4dh  1 3.950000e-01    2.940000e+00
  TP4q  N4dh  1 3.950000e-01    2.940000e+00
  TP3q  N4dh  1 3.950000e-01    2.940000e+00
  TP2q  N4dh  1 3.950000e-01    2.940000e+00
  TP1q  N4dh  1 3.950000e-01    3.190000e+00
  TN6q  N4dh  1 3.950000e-01    3.430000e+00
  TN5q  N4dh  1 3.950000e-01    3.190000e+00
  TN4q  N4dh  1 3.950000e-01    3.190000e+00
 TN4dh   N3q  1 3.950000e-01    2.940000e+00
 TN4dh   N2q  1 3.950000e-01    2.940000e+00
 TN4dh   N1q  1 3.950000e-01    2.700000e+00
 TN4dh   C6q  1 3.950000e-01    2.700000e+00
 TN4dh   C5q  1 3.950000e-01    2.500000e+00
 TN4dh   C4q  1 3.950000e-01    2.500000e+00
 TN4dh   C3q  1 3.950000e-01    2.310000e+00
 TN4dh   C2q  1 3.950000e-01    2.110000e+00
 TN4dh   C1q  1 3.950000e-01    1.850000e+00
 TN4dh   X4q  1 3.950000e-01    3.190000e+00
 TN4dh   X3q  1 3.950000e-01    2.940000e+00
 TN4dh   X2q  1 3.950000e-01    2.500000e+00
 TN4dh   X1q  1 3.950000e-01    2.310000e+00
 TP6dq  N4dh  1 3.950000e-01    2.500000e+00
 TP5dq  N4dh  1 3.950000e-01    2.700000e+00
 TP4dq  N4dh  1 3.950000e-01    2.700000e+00
 TP3dq  N4dh  1 3.950000e-01    2.700000e+00
 TP2dq  N4dh  1 3.950000e-01    2.700000e+00
 TP1dq  N4dh  1 3.950000e-01    2.940000e+00
 TN6dq  N4dh  1 3.950000e-01    3.190000e+00
 TN5dq  N4dh  1 3.950000e-01    2.940000e+00
 TN4dh  N4dq  1 3.950000e-01    2.940000e+00
 TN4dh  X1eq  1 3.950000e-01    2.500000e+00
 TN4dh  X2eq  1 3.950000e-01    2.700000e+00
 TN4dh  X3eq  1 3.950000e-01    3.190000e+00
 TN4dh  X4eq  1 3.950000e-01    3.430000e+00
 TN4dh  C1eq  1 3.950000e-01    2.110000e+00
 TN4dh  C2eq  1 3.950000e-01    2.310000e+00
 TN4dh  C3eq  1 3.950000e-01    2.500000e+00
 TN4dh  C4eq  1 3.950000e-01    2.700000e+00
 TN4dh  C5eq  1 3.950000e-01    2.700000e+00
 TN4dh  C6eq  1 3.950000e-01    2.940000e+00
 TN4dh  X1vq  1 3.950000e-01    2.110000e+00
 TN4dh  X2vq  1 3.950000e-01    2.310000e+00
 TN4dh  X3vq  1 3.950000e-01    2.700000e+00
 TN4dh  X4vq  1 3.950000e-01    2.940000e+00
 TN4dh  C1vq  1 3.950000e-01    1.670000e+00
 TN4dh  C2vq  1 3.950000e-01    1.850000e+00
 TN4dh  C3vq  1 3.950000e-01    2.110000e+00
 TN4dh  C4vq  1 3.950000e-01    2.310000e+00
 TN4dh  C5vq  1 3.950000e-01    2.310000e+00
 TN4dh  C6vq  1 3.950000e-01    2.500000e+00
 TN4dh  N1aq  1 3.950000e-01    2.940000e+00
 TN4dh  N2aq  1 3.950000e-01    3.190000e+00
 TN4dh  N3aq  1 3.950000e-01    3.190000e+00
 TN4dh  N4aq  1 3.950000e-01    3.430000e+00
 TN5aq  N4dh  1 3.950000e-01    3.430000e+00
 TN6aq  N4dh  1 3.950000e-01    3.670000e+00
 TP1aq  N4dh  1 3.950000e-01    3.430000e+00
 TP2aq  N4dh  1 3.950000e-01    3.190000e+00
 TP3aq  N4dh  1 3.950000e-01    3.190000e+00
 TP4aq  N4dh  1 3.950000e-01    3.190000e+00
 TP5aq  N4dh  1 3.950000e-01    3.190000e+00
 TP6aq  N4dh  1 3.950000e-01    2.940000e+00
 TN4dh  N1dq  1 3.950000e-01    2.500000e+00
 TN4dh  N2dq  1 3.950000e-01    2.700000e+00
 TN4dh  N3dq  1 3.950000e-01    2.700000e+00
  TN3d  N3dh  1 3.950000e-01    2.310000e+00
 TN3dh   N2d  1 3.950000e-01    2.310000e+00
 TN3dh   N1d  1 3.950000e-01    2.110000e+00
  TP6a  N3dh  1 3.950000e-01    2.110000e+00
  TP5a  N3dh  1 3.950000e-01    2.110000e+00
  TP4a  N3dh  1 3.950000e-01    2.500000e+00
  TP3a  N3dh  1 3.950000e-01    2.500000e+00
  TP2a  N3dh  1 3.950000e-01    2.500000e+00
  TP1a  N3dh  1 3.950000e-01    2.500000e+00
  TN6a  N3dh  1 3.950000e-01    2.700000e+00
  TN5a  N3dh  1 3.950000e-01    2.700000e+00
  TN4a  N3dh  1 3.950000e-01    2.700000e+00
 TN3dh   N3a  1 3.950000e-01    2.700000e+00
 TN3dh   N2a  1 3.950000e-01    2.700000e+00
 TN3dh   N1a  1 3.950000e-01    2.500000e+00
 TN3dh   C6e  1 3.950000e-01    2.500000e+00
 TN3dh   C5e  1 3.950000e-01    2.310000e+00
 TN3dh   C4e  1 3.950000e-01    2.310000e+00
 TN3dh   C3e  1 3.950000e-01    2.110000e+00
 TN3dh   C2e  1 3.950000e-01    2.110000e+00
 TN3dh   C1e  1 3.950000e-01    1.850000e+00
 TN3dh   X4e  1 3.950000e-01    2.700000e+00
 TN3dh   X3e  1 3.950000e-01    2.500000e+00
 TN3dh   X2e  1 3.950000e-01    2.310000e+00
 TN3dh   X1e  1 3.950000e-01    2.310000e+00
 TN3dh   C6v  1 3.950000e-01    2.110000e+00
 TN3dh   C5v  1 3.950000e-01    1.850000e+00
 TN3dh   C4v  1 3.950000e-01    1.850000e+00
 TN3dh   C3v  1 3.950000e-01    1.670000e+00
 TN3dh   C2v  1 3.950000e-01    1.670000e+00
 TN3dh   C1v  1 3.980000e-01    1.450000e+00
 TN3dh   X4v  1 3.950000e-01    2.310000e+00
 TN3dh   X3v  1 3.950000e-01    2.110000e+00
 TN3dh   X2v  1 3.950000e-01    1.850000e+00
 TN3dh   X1v  1 3.950000e-01    1.850000e+00
  TP6q  N3dh  1 3.950000e-01    2.500000e+00
  TP5q  N3dh  1 3.950000e-01    2.500000e+00
  TP4q  N3dh  1 3.950000e-01    2.700000e+00
  TP3q  N3dh  1 3.950000e-01    2.700000e+00
  TP2q  N3dh  1 3.950000e-01    2.700000e+00
  TP1q  N3dh  1 3.950000e-01    2.700000e+00
  TN6q  N3dh  1 3.950000e-01    2.940000e+00
  TN5q  N3dh  1 3.950000e-01    2.940000e+00
  TN4q  N3dh  1 3.950000e-01    2.940000e+00
  TN3q  N3dh  1 3.950000e-01    2.940000e+00
 TN3dh   N2q  1 3.950000e-01    2.940000e+00
 TN3dh   N1q  1 3.950000e-01    2.700000e+00
 TN3dh   C6q  1 3.950000e-01    2.700000e+00
 TN3dh   C5q  1 3.950000e-01    2.500000e+00
 TN3dh   C4q  1 3.950000e-01    2.500000e+00
 TN3dh   C3q  1 3.950000e-01    2.310000e+00
 TN3dh   C2q  1 3.950000e-01    2.310000e+00
 TN3dh   C1q  1 3.950000e-01    2.110000e+00
 TN3dh   X4q  1 3.950000e-01    2.940000e+00
 TN3dh   X3q  1 3.950000e-01    2.700000e+00
 TN3dh   X2q  1 3.950000e-01    2.500000e+00
 TN3dh   X1q  1 3.950000e-01    2.500000e+00
 TP6dq  N3dh  1 3.950000e-01    2.500000e+00
 TP5dq  N3dh  1 3.950000e-01    2.500000e+00
 TP4dq  N3dh  1 3.950000e-01    2.500000e+00
 TP3dq  N3dh  1 3.950000e-01    2.500000e+00
 TP2dq  N3dh  1 3.950000e-01    2.500000e+00
 TP1dq  N3dh  1 3.950000e-01    2.500000e+00
 TN6dq  N3dh  1 3.950000e-01    2.700000e+00
 TN5dq  N3dh  1 3.950000e-01    2.700000e+00
 TN4dq  N3dh  1 3.950000e-01    2.700000e+00
 TN3dh  N3dq  1 3.950000e-01    2.700000e+00
 TN3dh  X1eq  1 3.950000e-01    2.700000e+00
 TN3dh  X2eq  1 3.950000e-01    2.700000e+00
 TN3dh  X3eq  1 3.950000e-01    2.940000e+00
 TN3dh  X4eq  1 3.950000e-01    3.190000e+00
 TN3dh  C1eq  1 3.950000e-01    2.310000e+00
 TN3dh  C2eq  1 3.950000e-01    2.500000e+00
 TN3dh  C3eq  1 3.950000e-01    2.500000e+00
 TN3dh  C4eq  1 3.950000e-01    2.700000e+00
 TN3dh  C5eq  1 3.950000e-01    2.700000e+00
 TN3dh  C6eq  1 3.950000e-01    2.940000e+00
 TN3dh  X1vq  1 3.950000e-01    2.310000e+00
 TN3dh  X2vq  1 3.950000e-01    2.310000e+00
 TN3dh  X3vq  1 3.950000e-01    2.500000e+00
 TN3dh  X4vq  1 3.950000e-01    2.700000e+00
 TN3dh  C1vq  1 3.950000e-01    1.850000e+00
 TN3dh  C2vq  1 3.950000e-01    2.110000e+00
 TN3dh  C3vq  1 3.950000e-01    2.110000e+00
 TN3dh  C4vq  1 3.950000e-01    2.310000e+00
 TN3dh  C5vq  1 3.950000e-01    2.310000e+00
 TN3dh  C6vq  1 3.950000e-01    2.500000e+00
 TN3dh  N1aq  1 3.950000e-01    2.940000e+00
 TN3dh  N2aq  1 3.950000e-01    3.190000e+00
 TN3dh  N3aq  1 3.950000e-01    3.190000e+00
 TN4aq  N3dh  1 3.950000e-01    3.190000e+00
 TN5aq  N3dh  1 3.950000e-01    3.190000e+00
 TN6aq  N3dh  1 3.950000e-01    3.190000e+00
 TP1aq  N3dh  1 3.950000e-01    2.940000e+00
 TP2aq  N3dh  1 3.950000e-01    2.940000e+00
 TP3aq  N3dh  1 3.950000e-01    2.940000e+00
 TP4aq  N3dh  1 3.950000e-01    2.940000e+00
 TP5aq  N3dh  1 3.950000e-01    2.500000e+00
 TP6aq  N3dh  1 3.950000e-01    2.500000e+00
 TN3dh  N1dq  1 3.950000e-01    2.500000e+00
 TN3dh  N2dq  1 3.950000e-01    2.700000e+00
  TN2d  N2dh  1 3.950000e-01    2.310000e+00
 TN2dh   N1d  1 3.950000e-01    2.110000e+00
  TP6a  N2dh  1 3.950000e-01    1.850000e+00
  TP5a  N2dh  1 3.950000e-01    1.850000e+00
  TP4a  N2dh  1 3.950000e-01    2.110000e+00
  TP3a  N2dh  1 3.950000e-01    2.500000e+00
  TP2a  N2dh  1 3.950000e-01    2.500000e+00
  TP1a  N2dh  1 3.950000e-01    2.500000e+00
  TN6a  N2dh  1 3.950000e-01    2.500000e+00
  TN5a  N2dh  1 3.950000e-01    2.700000e+00
  TN4a  N2dh  1 3.950000e-01    2.700000e+00
  TN3a  N2dh  1 3.950000e-01    2.700000e+00
 TN2dh   N2a  1 3.950000e-01    2.700000e+00
 TN2dh   N1a  1 3.950000e-01    2.500000e+00
 TN2dh   C6e  1 3.950000e-01    2.500000e+00
 TN2dh   C5e  1 3.950000e-01    2.310000e+00
 TN2dh   C4e  1 3.950000e-01    2.310000e+00
 TN2dh   C3e  1 3.950000e-01    2.310000e+00
 TN2dh   C2e  1 3.950000e-01    2.110000e+00
 TN2dh   C1e  1 3.950000e-01    1.850000e+00
 TN2dh   X4e  1 3.950000e-01    2.700000e+00
 TN2dh   X3e  1 3.950000e-01    2.500000e+00
 TN2dh   X2e  1 3.950000e-01    2.310000e+00
 TN2dh   X1e  1 3.950000e-01    2.310000e+00
 TN2dh   C6v  1 3.950000e-01    2.110000e+00
 TN2dh   C5v  1 3.950000e-01    1.850000e+00
 TN2dh   C4v  1 3.950000e-01    1.850000e+00
 TN2dh   C3v  1 3.950000e-01    1.850000e+00
 TN2dh   C2v  1 3.950000e-01    1.670000e+00
 TN2dh   C1v  1 3.980000e-01    1.450000e+00
 TN2dh   X4v  1 3.950000e-01    2.310000e+00
 TN2dh   X3v  1 3.950000e-01    2.110000e+00
 TN2dh   X2v  1 3.950000e-01    1.850000e+00
 TN2dh   X1v  1 3.950000e-01    1.850000e+00
  TP6q  N2dh  1 3.950000e-01    2.310000e+00
  TP5q  N2dh  1 3.950000e-01    2.310000e+00
  TP4q  N2dh  1 3.950000e-01    2.500000e+00
  TP3q  N2dh  1 3.950000e-01    2.700000e+00
  TP2q  N2dh  1 3.950000e-01    2.700000e+00
  TP1q  N2dh  1 3.950000e-01    2.700000e+00
  TN6q  N2dh  1 3.950000e-01    2.700000e+00
  TN5q  N2dh  1 3.950000e-01    2.940000e+00
  TN4q  N2dh  1 3.950000e-01    2.940000e+00
  TN3q  N2dh  1 3.950000e-01    2.940000e+00
  TN2q  N2dh  1 3.950000e-01    2.940000e+00
 TN2dh   N1q  1 3.950000e-01    2.700000e+00
 TN2dh   C6q  1 3.950000e-01    2.700000e+00
 TN2dh   C5q  1 3.950000e-01    2.500000e+00
 TN2dh   C4q  1 3.950000e-01    2.500000e+00
 TN2dh   C3q  1 3.950000e-01    2.500000e+00
 TN2dh   C2q  1 3.950000e-01    2.310000e+00
 TN2dh   C1q  1 3.950000e-01    2.110000e+00
 TN2dh   X4q  1 3.950000e-01    2.940000e+00
 TN2dh   X3q  1 3.950000e-01    2.700000e+00
 TN2dh   X2q  1 3.950000e-01    2.500000e+00
 TN2dh   X1q  1 3.950000e-01    2.500000e+00
 TP6dq  N2dh  1 3.950000e-01    2.310000e+00
 TP5dq  N2dh  1 3.950000e-01    2.310000e+00
 TP4dq  N2dh  1 3.950000e-01    2.500000e+00
 TP3dq  N2dh  1 3.950000e-01    2.500000e+00
 TP2dq  N2dh  1 3.950000e-01    2.500000e+00
 TP1dq  N2dh  1 3.950000e-01    2.500000e+00
 TN6dq  N2dh  1 3.950000e-01    2.500000e+00
 TN5dq  N2dh  1 3.950000e-01    2.700000e+00
 TN4dq  N2dh  1 3.950000e-01    2.700000e+00
 TN3dq  N2dh  1 3.950000e-01    2.700000e+00
 TN2dh  N2dq  1 3.950000e-01    2.700000e+00
 TN2dh  X1eq  1 3.950000e-01    2.700000e+00
 TN2dh  X2eq  1 3.950000e-01    2.700000e+00
 TN2dh  X3eq  1 3.950000e-01    2.940000e+00
 TN2dh  X4eq  1 3.950000e-01    3.190000e+00
 TN2dh  C1eq  1 3.950000e-01    2.310000e+00
 TN2dh  C2eq  1 3.950000e-01    2.500000e+00
 TN2dh  C3eq  1 3.950000e-01    2.700000e+00
 TN2dh  C4eq  1 3.950000e-01    2.700000e+00
 TN2dh  C5eq  1 3.950000e-01    2.700000e+00
 TN2dh  C6eq  1 3.950000e-01    2.940000e+00
 TN2dh  X1vq  1 3.950000e-01    2.310000e+00
 TN2dh  X2vq  1 3.950000e-01    2.310000e+00
 TN2dh  X3vq  1 3.950000e-01    2.500000e+00
 TN2dh  X4vq  1 3.950000e-01    2.700000e+00
 TN2dh  C1vq  1 3.950000e-01    1.850000e+00
 TN2dh  C2vq  1 3.950000e-01    2.110000e+00
 TN2dh  C3vq  1 3.950000e-01    2.310000e+00
 TN2dh  C4vq  1 3.950000e-01    2.310000e+00
 TN2dh  C5vq  1 3.950000e-01    2.310000e+00
 TN2dh  C6vq  1 3.950000e-01    2.500000e+00
 TN2dh  N1aq  1 3.950000e-01    2.940000e+00
 TN2dh  N2aq  1 3.950000e-01    3.190000e+00
 TN3aq  N2dh  1 3.950000e-01    3.190000e+00
 TN4aq  N2dh  1 3.950000e-01    3.190000e+00
 TN5aq  N2dh  1 3.950000e-01    3.190000e+00
 TN6aq  N2dh  1 3.950000e-01    2.940000e+00
 TP1aq  N2dh  1 3.950000e-01    2.940000e+00
 TP2aq  N2dh  1 3.950000e-01    2.940000e+00
 TP3aq  N2dh  1 3.950000e-01    2.940000e+00
 TP4aq  N2dh  1 3.950000e-01    2.500000e+00
 TP5aq  N2dh  1 3.950000e-01    2.310000e+00
 TP6aq  N2dh  1 3.950000e-01    2.310000e+00
 TN2dh  N1dq  1 3.950000e-01    2.500000e+00
  TN1d  N1dh  1 3.950000e-01    2.310000e+00
  TP6a  N1dh  1 3.950000e-01    1.670000e+00
  TP5a  N1dh  1 3.950000e-01    1.670000e+00
  TP4a  N1dh  1 3.950000e-01    1.850000e+00
  TP3a  N1dh  1 3.950000e-01    2.110000e+00
  TP2a  N1dh  1 3.950000e-01    2.500000e+00
  TP1a  N1dh  1 3.950000e-01    2.500000e+00
  TN6a  N1dh  1 3.950000e-01    2.500000e+00
  TN5a  N1dh  1 3.950000e-01    2.500000e+00
  TN4a  N1dh  1 3.950000e-01    2.500000e+00
  TN3a  N1dh  1 3.950000e-01    2.500000e+00
  TN2a  N1dh  1 3.950000e-01    2.500000e+00
 TN1dh   N1a  1 3.950000e-01    2.700000e+00
 TN1dh   C6e  1 3.950000e-01    2.700000e+00
 TN1dh   C5e  1 3.950000e-01    2.500000e+00
 TN1dh   C4e  1 3.950000e-01    2.500000e+00
 TN1dh   C3e  1 3.950000e-01    2.310000e+00
 TN1dh   C2e  1 3.950000e-01    2.110000e+00
 TN1dh   C1e  1 3.950000e-01    1.850000e+00
 TN1dh   X4e  1 3.950000e-01    2.500000e+00
 TN1dh   X3e  1 3.950000e-01    2.500000e+00
 TN1dh   X2e  1 3.950000e-01    2.310000e+00
 TN1dh   X1e  1 3.950000e-01    2.310000e+00
 TN1dh   C6v  1 3.950000e-01    2.310000e+00
 TN1dh   C5v  1 3.950000e-01    2.110000e+00
 TN1dh   C4v  1 3.950000e-01    2.110000e+00
 TN1dh   C3v  1 3.950000e-01    1.850000e+00
 TN1dh   C2v  1 3.950000e-01    1.670000e+00
 TN1dh   C1v  1 3.980000e-01    1.450000e+00
 TN1dh   X4v  1 3.950000e-01    2.110000e+00
 TN1dh   X3v  1 3.950000e-01    2.110000e+00
 TN1dh   X2v  1 3.950000e-01    1.850000e+00
 TN1dh   X1v  1 3.950000e-01    1.850000e+00
  TP6q  N1dh  1 3.950000e-01    2.110000e+00
  TP5q  N1dh  1 3.950000e-01    2.110000e+00
  TP4q  N1dh  1 3.950000e-01    2.310000e+00
  TP3q  N1dh  1 3.950000e-01    2.500000e+00
  TP2q  N1dh  1 3.950000e-01    2.700000e+00
  TP1q  N1dh  1 3.950000e-01    2.700000e+00
  TN6q  N1dh  1 3.950000e-01    2.700000e+00
  TN5q  N1dh  1 3.950000e-01    2.700000e+00
  TN4q  N1dh  1 3.950000e-01    2.700000e+00
  TN3q  N1dh  1 3.950000e-01    2.700000e+00
  TN2q  N1dh  1 3.950000e-01    2.700000e+00
  TN1q  N1dh  1 3.950000e-01    2.940000e+00
 TN1dh   C6q  1 3.950000e-01    2.940000e+00
 TN1dh   C5q  1 3.950000e-01    2.700000e+00
 TN1dh   C4q  1 3.950000e-01    2.700000e+00
 TN1dh   C3q  1 3.950000e-01    2.500000e+00
 TN1dh   C2q  1 3.950000e-01    2.310000e+00
 TN1dh   C1q  1 3.950000e-01    2.110000e+00
 TN1dh   X4q  1 3.950000e-01    2.700000e+00
 TN1dh   X3q  1 3.950000e-01    2.700000e+00
 TN1dh   X2q  1 3.950000e-01    2.500000e+00
 TN1dh   X1q  1 3.950000e-01    2.500000e+00
 TP6dq  N1dh  1 3.950000e-01    2.110000e+00
 TP5dq  N1dh  1 3.950000e-01    2.110000e+00
 TP4dq  N1dh  1 3.950000e-01    2.310000e+00
 TP3dq  N1dh  1 3.950000e-01    2.500000e+00
 TP2dq  N1dh  1 3.950000e-01    2.500000e+00
 TP1dq  N1dh  1 3.950000e-01    2.500000e+00
 TN6dq  N1dh  1 3.950000e-01    2.500000e+00
 TN5dq  N1dh  1 3.950000e-01    2.500000e+00
 TN4dq  N1dh  1 3.950000e-01    2.500000e+00
 TN3dq  N1dh  1 3.950000e-01    2.500000e+00
 TN2dq  N1dh  1 3.950000e-01    2.500000e+00
 TN1dh  N1dq  1 3.950000e-01    2.700000e+00
 TN1dh  X1eq  1 3.950000e-01    2.700000e+00
 TN1dh  X2eq  1 3.950000e-01    2.700000e+00
 TN1dh  X3eq  1 3.950000e-01    2.940000e+00
 TN1dh  X4eq  1 3.950000e-01    2.940000e+00
 TN1dh  C1eq  1 3.950000e-01    2.310000e+00
 TN1dh  C2eq  1 3.950000e-01    2.500000e+00
 TN1dh  C3eq  1 3.950000e-01    2.700000e+00
 TN1dh  C4eq  1 3.950000e-01    2.940000e+00
 TN1dh  C5eq  1 3.950000e-01    2.940000e+00
 TN1dh  C6eq  1 3.950000e-01    3.190000e+00
 TN1dh  X1vq  1 3.950000e-01    2.310000e+00
 TN1dh  X2vq  1 3.950000e-01    2.310000e+00
 TN1dh  X3vq  1 3.950000e-01    2.500000e+00
 TN1dh  X4vq  1 3.950000e-01    2.500000e+00
 TN1dh  C1vq  1 3.950000e-01    1.850000e+00
 TN1dh  C2vq  1 3.950000e-01    2.110000e+00
 TN1dh  C3vq  1 3.950000e-01    2.310000e+00
 TN1dh  C4vq  1 3.950000e-01    2.500000e+00
 TN1dh  C5vq  1 3.950000e-01    2.500000e+00
 TN1dh  C6vq  1 3.950000e-01    2.700000e+00
 TN1dh  N1aq  1 3.950000e-01    3.190000e+00
 TN2aq  N1dh  1 3.950000e-01    2.940000e+00
 TN3aq  N1dh  1 3.950000e-01    2.940000e+00
 TN4aq  N1dh  1 3.950000e-01    2.940000e+00
 TN5aq  N1dh  1 3.950000e-01    2.940000e+00
 TN6aq  N1dh  1 3.950000e-01    2.940000e+00
 TP1aq  N1dh  1 3.950000e-01    2.940000e+00
 TP2aq  N1dh  1 3.950000e-01    2.940000e+00
 TP3aq  N1dh  1 3.950000e-01    2.500000e+00
 TP4aq  N1dh  1 3.950000e-01    2.310000e+00
 TP5aq  N1dh  1 3.950000e-01    2.110000e+00
 TP6aq  N1dh  1 3.950000e-01    2.110000e+00
  TP6a  P6ah  1 3.950000e-01    3.910000e+00
 TP6ah   P5a  1 3.950000e-01    3.670000e+00
 TP6ah   P4a  1 3.950000e-01    3.430000e+00
 TP6ah   P3a  1 3.950000e-01    3.190000e+00
 TP6ah   P2a  1 3.950000e-01    3.190000e+00
 TP6ah   P1a  1 3.950000e-01    2.940000e+00
 TP6ah   N6a  1 3.950000e-01    2.700000e+00
 TP6ah   N5a  1 3.950000e-01    2.310000e+00
 TP6ah   N4a  1 3.950000e-01    2.110000e+00
 TP6ah   N3a  1 3.950000e-01    2.110000e+00
 TP6ah   N2a  1 3.950000e-01    1.850000e+00
 TP6ah   N1a  1 3.950000e-01    1.670000e+00
 TP6ah   C6v  1 3.950000e-01    1.850000e+00
 TP6ah   C5v  1 3.950000e-01    1.670000e+00
 TP6ah   C4v  1 3.980000e-01    1.450000e+00
 TP6ah   C3v  1 3.990000e-01    1.180000e+00
 TP6ah   C2v  1 3.990000e-01    1.180000e+00
 TP6ah   C1v  1 4.040000e-01    8.300000e-01
 TP6ah   X4v  1 3.950000e-01    2.110000e+00
 TP6ah   X3v  1 3.950000e-01    2.110000e+00
 TP6ah   X2v  1 3.950000e-01    1.850000e+00
 TP6ah   X1v  1 3.950000e-01    1.670000e+00
 TP6ah   C6e  1 3.980000e-01    1.450000e+00
 TP6ah   C5e  1 3.990000e-01    1.180000e+00
 TP6ah   C4e  1 4.010000e-01    9.830000e-01
 TP6ah   C3e  1 4.040000e-01    8.300000e-01
 TP6ah   C2e  1 4.040000e-01    8.300000e-01
 TP6ah   C1e  1 5.110000e-01    6.590000e-01
 TP6ah   X4e  1 3.950000e-01    1.670000e+00
 TP6ah   X3e  1 3.950000e-01    1.670000e+00
 TP6ah   X2e  1 3.980000e-01    1.450000e+00
 TP6ah   X1e  1 3.990000e-01    1.180000e+00
  TP6q  P6ah  1 3.950000e-01    4.870000e+00
 TP6ah   P5q  1 3.950000e-01    4.540000e+00
 TP6ah   P4q  1 3.950000e-01    4.230000e+00
 TP6ah   P3q  1 3.950000e-01    3.910000e+00
 TP6ah   P2q  1 3.950000e-01    3.910000e+00
 TP6ah   P1q  1 3.950000e-01    3.670000e+00
 TP6ah   N6q  1 3.950000e-01    3.430000e+00
 TP6ah   N5q  1 3.950000e-01    2.940000e+00
 TP6ah   N4q  1 3.950000e-01    2.700000e+00
 TP6ah   N3q  1 3.950000e-01    2.500000e+00
 TP6ah   N2q  1 3.950000e-01    2.310000e+00
 TP6ah   N1q  1 3.950000e-01    2.110000e+00
 TP6ah   C6q  1 3.950000e-01    2.110000e+00
 TP6ah   C5q  1 3.950000e-01    1.850000e+00
 TP6ah   C4q  1 3.950000e-01    1.670000e+00
 TP6ah   C3q  1 3.980000e-01    1.450000e+00
 TP6ah   C2q  1 3.980000e-01    1.450000e+00
 TP6ah   C1q  1 4.010000e-01    9.830000e-01
 TP6ah   X4q  1 3.950000e-01    2.310000e+00
 TP6ah   X3q  1 3.950000e-01    2.310000e+00
 TP6ah   X2q  1 3.950000e-01    2.110000e+00
 TP6ah   X1q  1 3.950000e-01    1.850000e+00
 TP6dq  P6ah  1 3.950000e-01    5.270000e+00
 TP6ah  P5dq  1 3.950000e-01    4.870000e+00
 TP6ah  P4dq  1 3.950000e-01    4.540000e+00
 TP6ah  P3dq  1 3.950000e-01    4.230000e+00
 TP6ah  P2dq  1 3.950000e-01    4.230000e+00
 TP6ah  P1dq  1 3.950000e-01    3.910000e+00
 TP6ah  N6dq  1 3.950000e-01    3.670000e+00
 TP6ah  N5dq  1 3.950000e-01    3.190000e+00
 TP6ah  N4dq  1 3.950000e-01    2.940000e+00
 TP6ah  N3dq  1 3.950000e-01    2.500000e+00
 TP6ah  N2dq  1 3.950000e-01    2.310000e+00
 TP6ah  N1dq  1 3.950000e-01    2.110000e+00
 TP6ah  P6aq  1 3.950000e-01    4.540000e+00
 TP6ah  X1eq  1 3.950000e-01    1.670000e+00
 TP6ah  X2eq  1 3.950000e-01    1.850000e+00
 TP6ah  X3eq  1 3.950000e-01    2.110000e+00
 TP6ah  X4eq  1 3.950000e-01    2.110000e+00
 TP6ah  C1eq  1 4.040000e-01    8.300000e-01
 TP6ah  C2eq  1 3.990000e-01    1.180000e+00
 TP6ah  C3eq  1 3.990000e-01    1.180000e+00
 TP6ah  C4eq  1 3.980000e-01    1.450000e+00
 TP6ah  C5eq  1 3.950000e-01    1.670000e+00
 TP6ah  C6eq  1 3.950000e-01    1.850000e+00
 TP6ah  X1vq  1 3.950000e-01    2.110000e+00
 TP6ah  X2vq  1 3.950000e-01    2.310000e+00
 TP6ah  X3vq  1 3.950000e-01    2.500000e+00
 TP6ah  X4vq  1 3.950000e-01    2.500000e+00
 TP6ah  C1vq  1 3.990000e-01    1.180000e+00
 TP6ah  C2vq  1 3.950000e-01    1.670000e+00
 TP6ah  C3vq  1 3.950000e-01    1.670000e+00
 TP6ah  C4vq  1 3.950000e-01    1.850000e+00
 TP6ah  C5vq  1 3.950000e-01    2.110000e+00
 TP6ah  C6vq  1 3.950000e-01    2.310000e+00
 TP6ah  N1aq  1 3.950000e-01    2.110000e+00
 TP6ah  N2aq  1 3.950000e-01    2.310000e+00
 TP6ah  N3aq  1 3.950000e-01    2.500000e+00
 TP6ah  N4aq  1 3.950000e-01    2.500000e+00
 TP6ah  N5aq  1 3.950000e-01    2.700000e+00
 TP6ah  N6aq  1 3.950000e-01    3.190000e+00
 TP6ah  P1aq  1 3.950000e-01    3.430000e+00
 TP6ah  P2aq  1 3.950000e-01    3.670000e+00
 TP6ah  P3aq  1 3.950000e-01    3.670000e+00
 TP6ah  P4aq  1 3.950000e-01    3.910000e+00
 TP6ah  P5aq  1 3.950000e-01    4.230000e+00
  TP5a  P5ah  1 3.950000e-01    3.430000e+00
 TP5ah   P4a  1 3.950000e-01    3.190000e+00
 TP5ah   P3a  1 3.950000e-01    2.940000e+00
 TP5ah   P2a  1 3.950000e-01    2.940000e+00
 TP5ah   P1a  1 3.950000e-01    2.700000e+00
 TP5ah   N6a  1 3.950000e-01    2.500000e+00
 TP5ah   N5a  1 3.950000e-01    2.310000e+00
 TP5ah   N4a  1 3.950000e-01    2.310000e+00
 TP5ah   N3a  1 3.950000e-01    2.110000e+00
 TP5ah   N2a  1 3.950000e-01    1.850000e+00
 TP5ah   N1a  1 3.950000e-01    1.670000e+00
 TP5ah   C6v  1 3.950000e-01    1.850000e+00
 TP5ah   C5v  1 3.950000e-01    1.850000e+00
 TP5ah   C4v  1 3.950000e-01    1.670000e+00
 TP5ah   C3v  1 3.980000e-01    1.450000e+00
 TP5ah   C2v  1 3.980000e-01    1.450000e+00
 TP5ah   C1v  1 3.990000e-01    1.180000e+00
 TP5ah   X4v  1 3.950000e-01    2.310000e+00
 TP5ah   X3v  1 3.950000e-01    2.110000e+00
 TP5ah   X2v  1 3.950000e-01    2.110000e+00
 TP5ah   X1v  1 3.950000e-01    1.670000e+00
 TP5ah   C6e  1 3.980000e-01    1.450000e+00
 TP5ah   C5e  1 3.980000e-01    1.450000e+00
 TP5ah   C4e  1 3.990000e-01    1.180000e+00
 TP5ah   C3e  1 4.010000e-01    9.830000e-01
 TP5ah   C2e  1 4.010000e-01    9.830000e-01
 TP5ah   C1e  1 4.040000e-01    8.300000e-01
 TP5ah   X4e  1 3.950000e-01    1.850000e+00
 TP5ah   X3e  1 3.950000e-01    1.670000e+00
 TP5ah   X2e  1 3.950000e-01    1.670000e+00
 TP5ah   X1e  1 3.990000e-01    1.180000e+00
  TP6q  P5ah  1 3.950000e-01    4.540000e+00
  TP5q  P5ah  1 3.950000e-01    4.230000e+00
 TP5ah   P4q  1 3.950000e-01    3.910000e+00
 TP5ah   P3q  1 3.950000e-01    3.670000e+00
 TP5ah   P2q  1 3.950000e-01    3.670000e+00
 TP5ah   P1q  1 3.950000e-01    3.430000e+00
 TP5ah   N6q  1 3.950000e-01    3.190000e+00
 TP5ah   N5q  1 3.950000e-01    2.940000e+00
 TP5ah   N4q  1 3.950000e-01    2.940000e+00
 TP5ah   N3q  1 3.950000e-01    2.500000e+00
 TP5ah   N2q  1 3.950000e-01    2.310000e+00
 TP5ah   N1q  1 3.950000e-01    2.110000e+00
 TP5ah   C6q  1 3.950000e-01    2.110000e+00
 TP5ah   C5q  1 3.950000e-01    2.110000e+00
 TP5ah   C4q  1 3.950000e-01    1.850000e+00
 TP5ah   C3q  1 3.950000e-01    1.670000e+00
 TP5ah   C2q  1 3.950000e-01    1.670000e+00
 TP5ah   C1q  1 3.980000e-01    1.450000e+00
 TP5ah   X4q  1 3.950000e-01    2.500000e+00
 TP5ah   X3q  1 3.950000e-01    2.310000e+00
 TP5ah   X2q  1 3.950000e-01    2.310000e+00
 TP5ah   X1q  1 3.950000e-01    1.850000e+00
 TP6dq  P5ah  1 3.950000e-01    4.870000e+00
 TP5dq  P5ah  1 3.950000e-01    4.540000e+00
 TP5ah  P4dq  1 3.950000e-01    4.230000e+00
 TP5ah  P3dq  1 3.950000e-01    3.910000e+00
 TP5ah  P2dq  1 3.950000e-01    3.910000e+00
 TP5ah  P1dq  1 3.950000e-01    3.670000e+00
 TP5ah  N6dq  1 3.950000e-01    3.430000e+00
 TP5ah  N5dq  1 3.950000e-01    3.190000e+00
 TP5ah  N4dq  1 3.950000e-01    3.190000e+00
 TP5ah  N3dq  1 3.950000e-01    2.500000e+00
 TP5ah  N2dq  1 3.950000e-01    2.310000e+00
 TP5ah  N1dq  1 3.950000e-01    2.110000e+00
 TP6aq  P5ah  1 3.950000e-01    4.230000e+00
 TP5ah  P5aq  1 3.950000e-01    3.910000e+00
 TP5ah  X1eq  1 3.950000e-01    1.670000e+00
 TP5ah  X2eq  1 3.950000e-01    2.110000e+00
 TP5ah  X3eq  1 3.950000e-01    2.110000e+00
 TP5ah  X4eq  1 3.950000e-01    2.310000e+00
 TP5ah  C1eq  1 3.990000e-01    1.180000e+00
 TP5ah  C2eq  1 3.980000e-01    1.450000e+00
 TP5ah  C3eq  1 3.980000e-01    1.450000e+00
 TP5ah  C4eq  1 3.950000e-01    1.670000e+00
 TP5ah  C5eq  1 3.950000e-01    1.850000e+00
 TP5ah  C6eq  1 3.950000e-01    1.850000e+00
 TP5ah  X1vq  1 3.950000e-01    2.110000e+00
 TP5ah  X2vq  1 3.950000e-01    2.500000e+00
 TP5ah  X3vq  1 3.950000e-01    2.500000e+00
 TP5ah  X4vq  1 3.950000e-01    2.700000e+00
 TP5ah  C1vq  1 3.950000e-01    1.670000e+00
 TP5ah  C2vq  1 3.950000e-01    1.850000e+00
 TP5ah  C3vq  1 3.950000e-01    1.850000e+00
 TP5ah  C4vq  1 3.950000e-01    2.110000e+00
 TP5ah  C5vq  1 3.950000e-01    2.310000e+00
 TP5ah  C6vq  1 3.950000e-01    2.310000e+00
 TP5ah  N1aq  1 3.950000e-01    2.110000e+00
 TP5ah  N2aq  1 3.950000e-01    2.310000e+00
 TP5ah  N3aq  1 3.950000e-01    2.500000e+00
 TP5ah  N4aq  1 3.950000e-01    2.700000e+00
 TP5ah  N5aq  1 3.950000e-01    2.700000e+00
 TP5ah  N6aq  1 3.950000e-01    2.940000e+00
 TP5ah  P1aq  1 3.950000e-01    3.190000e+00
 TP5ah  P2aq  1 3.950000e-01    3.430000e+00
 TP5ah  P3aq  1 3.950000e-01    3.430000e+00
 TP5ah  P4aq  1 3.950000e-01    3.670000e+00
  TP4a  P4ah  1 3.950000e-01    3.190000e+00
 TP4ah   P3a  1 3.950000e-01    2.940000e+00
 TP4ah   P2a  1 3.950000e-01    2.940000e+00
 TP4ah   P1a  1 3.950000e-01    2.700000e+00
 TP4ah   N6a  1 3.950000e-01    2.500000e+00
 TP4ah   N5a  1 3.950000e-01    2.310000e+00
 TP4ah   N4a  1 3.950000e-01    2.310000e+00
 TP4ah   N3a  1 3.950000e-01    2.110000e+00
 TP4ah   N2a  1 3.950000e-01    2.110000e+00
 TP4ah   N1a  1 3.950000e-01    1.850000e+00
 TP4ah   C6v  1 3.950000e-01    2.110000e+00
 TP4ah   C5v  1 3.950000e-01    1.850000e+00
 TP4ah   C4v  1 3.950000e-01    1.670000e+00
 TP4ah   C3v  1 3.980000e-01    1.450000e+00
 TP4ah   C2v  1 3.980000e-01    1.450000e+00
 TP4ah   C1v  1 3.990000e-01    1.180000e+00
 TP4ah   X4v  1 3.950000e-01    2.310000e+00
 TP4ah   X3v  1 3.950000e-01    2.110000e+00
 TP4ah   X2v  1 3.950000e-01    2.110000e+00
 TP4ah   X1v  1 3.950000e-01    1.850000e+00
 TP4ah   C6e  1 3.950000e-01    1.670000e+00
 TP4ah   C5e  1 3.980000e-01    1.450000e+00
 TP4ah   C4e  1 3.990000e-01    1.180000e+00
 TP4ah   C3e  1 4.010000e-01    9.830000e-01
 TP4ah   C2e  1 4.010000e-01    9.830000e-01
 TP4ah   C1e  1 4.040000e-01    8.300000e-01
 TP4ah   X4e  1 3.950000e-01    1.850000e+00
 TP4ah   X3e  1 3.950000e-01    1.670000e+00
 TP4ah   X2e  1 3.950000e-01    1.670000e+00
 TP4ah   X1e  1 3.980000e-01    1.450000e+00
  TP6q  P4ah  1 3.950000e-01    4.230000e+00
  TP5q  P4ah  1 3.950000e-01    3.910000e+00
  TP4q  P4ah  1 3.950000e-01    3.910000e+00
 TP4ah   P3q  1 3.950000e-01    3.670000e+00
 TP4ah   P2q  1 3.950000e-01    3.670000e+00
 TP4ah   P1q  1 3.950000e-01    3.430000e+00
 TP4ah   N6q  1 3.950000e-01    3.190000e+00
 TP4ah   N5q  1 3.950000e-01    2.940000e+00
 TP4ah   N4q  1 3.950000e-01    2.940000e+00
 TP4ah   N3q  1 3.950000e-01    2.700000e+00
 TP4ah   N2q  1 3.950000e-01    2.500000e+00
 TP4ah   N1q  1 3.950000e-01    2.310000e+00
 TP4ah   C6q  1 3.950000e-01    2.310000e+00
 TP4ah   C5q  1 3.950000e-01    2.110000e+00
 TP4ah   C4q  1 3.950000e-01    1.850000e+00
 TP4ah   C3q  1 3.950000e-01    1.670000e+00
 TP4ah   C2q  1 3.950000e-01    1.670000e+00
 TP4ah   C1q  1 3.980000e-01    1.450000e+00
 TP4ah   X4q  1 3.950000e-01    2.500000e+00
 TP4ah   X3q  1 3.950000e-01    2.310000e+00
 TP4ah   X2q  1 3.950000e-01    2.310000e+00
 TP4ah   X1q  1 3.950000e-01    2.110000e+00
 TP6dq  P4ah  1 3.950000e-01    4.540000e+00
 TP5dq  P4ah  1 3.950000e-01    4.230000e+00
 TP4dq  P4ah  1 3.950000e-01    4.230000e+00
 TP4ah  P3dq  1 3.950000e-01    3.910000e+00
 TP4ah  P2dq  1 3.950000e-01    3.910000e+00
 TP4ah  P1dq  1 3.950000e-01    3.670000e+00
 TP4ah  N6dq  1 3.950000e-01    3.430000e+00
 TP4ah  N5dq  1 3.950000e-01    3.190000e+00
 TP4ah  N4dq  1 3.950000e-01    3.190000e+00
 TP4ah  N3dq  1 3.950000e-01    2.940000e+00
 TP4ah  N2dq  1 3.950000e-01    2.500000e+00
 TP4ah  N1dq  1 3.950000e-01    2.310000e+00
 TP6aq  P4ah  1 3.950000e-01    3.910000e+00
 TP5aq  P4ah  1 3.950000e-01    3.670000e+00
 TP4ah  P4aq  1 3.950000e-01    3.670000e+00
 TP4ah  X1eq  1 3.950000e-01    1.850000e+00
 TP4ah  X2eq  1 3.950000e-01    2.110000e+00
 TP4ah  X3eq  1 3.950000e-01    2.110000e+00
 TP4ah  X4eq  1 3.950000e-01    2.310000e+00
 TP4ah  C1eq  1 3.990000e-01    1.180000e+00
 TP4ah  C2eq  1 3.980000e-01    1.450000e+00
 TP4ah  C3eq  1 3.980000e-01    1.450000e+00
 TP4ah  C4eq  1 3.950000e-01    1.670000e+00
 TP4ah  C5eq  1 3.950000e-01    1.850000e+00
 TP4ah  C6eq  1 3.950000e-01    2.110000e+00
 TP4ah  X1vq  1 3.950000e-01    2.310000e+00
 TP4ah  X2vq  1 3.950000e-01    2.500000e+00
 TP4ah  X3vq  1 3.950000e-01    2.500000e+00
 TP4ah  X4vq  1 3.950000e-01    2.700000e+00
 TP4ah  C1vq  1 3.950000e-01    1.670000e+00
 TP4ah  C2vq  1 3.950000e-01    1.850000e+00
 TP4ah  C3vq  1 3.950000e-01    1.850000e+00
 TP4ah  C4vq  1 3.950000e-01    2.110000e+00
 TP4ah  C5vq  1 3.950000e-01    2.310000e+00
 TP4ah  C6vq  1 3.950000e-01    2.500000e+00
 TP4ah  N1aq  1 3.950000e-01    2.310000e+00
 TP4ah  N2aq  1 3.950000e-01    2.500000e+00
 TP4ah  N3aq  1 3.950000e-01    2.500000e+00
 TP4ah  N4aq  1 3.950000e-01    2.700000e+00
 TP4ah  N5aq  1 3.950000e-01    2.700000e+00
 TP4ah  N6aq  1 3.950000e-01    2.940000e+00
 TP4ah  P1aq  1 3.950000e-01    3.190000e+00
 TP4ah  P2aq  1 3.950000e-01    3.430000e+00
 TP4ah  P3aq  1 3.950000e-01    3.430000e+00
  TP3a  P3ah  1 3.950000e-01    2.940000e+00
 TP3ah   P2a  1 3.950000e-01    2.940000e+00
 TP3ah   P1a  1 3.950000e-01    2.700000e+00
 TP3ah   N6a  1 3.950000e-01    2.500000e+00
 TP3ah   N5a  1 3.950000e-01    2.310000e+00
 TP3ah   N4a  1 3.950000e-01    2.310000e+00
 TP3ah   N3a  1 3.950000e-01    2.110000e+00
 TP3ah   N2a  1 3.950000e-01    2.110000e+00
 TP3ah   N1a  1 3.950000e-01    2.110000e+00
 TP3ah   C6v  1 3.950000e-01    2.310000e+00
 TP3ah   C5v  1 3.950000e-01    2.110000e+00
 TP3ah   C4v  1 3.950000e-01    1.850000e+00
 TP3ah   C3v  1 3.980000e-01    1.450000e+00
 TP3ah   C2v  1 3.980000e-01    1.450000e+00
 TP3ah   C1v  1 3.990000e-01    1.180000e+00
 TP3ah   X4v  1 3.950000e-01    2.310000e+00
 TP3ah   X3v  1 3.950000e-01    2.310000e+00
 TP3ah   X2v  1 3.950000e-01    2.110000e+00
 TP3ah   X1v  1 3.950000e-01    1.850000e+00
 TP3ah   C6e  1 3.950000e-01    1.850000e+00
 TP3ah   C5e  1 3.950000e-01    1.670000e+00
 TP3ah   C4e  1 3.980000e-01    1.450000e+00
 TP3ah   C3e  1 4.010000e-01    9.830000e-01
 TP3ah   C2e  1 4.010000e-01    9.830000e-01
 TP3ah   C1e  1 4.040000e-01    8.300000e-01
 TP3ah   X4e  1 3.950000e-01    1.850000e+00
 TP3ah   X3e  1 3.950000e-01    1.850000e+00
 TP3ah   X2e  1 3.950000e-01    1.670000e+00
 TP3ah   X1e  1 3.980000e-01    1.450000e+00
  TP6q  P3ah  1 3.950000e-01    3.910000e+00
  TP5q  P3ah  1 3.950000e-01    3.670000e+00
  TP4q  P3ah  1 3.950000e-01    3.670000e+00
  TP3q  P3ah  1 3.950000e-01    3.670000e+00
 TP3ah   P2q  1 3.950000e-01    3.670000e+00
 TP3ah   P1q  1 3.950000e-01    3.430000e+00
 TP3ah   N6q  1 3.950000e-01    3.190000e+00
 TP3ah   N5q  1 3.950000e-01    2.940000e+00
 TP3ah   N4q  1 3.950000e-01    2.940000e+00
 TP3ah   N3q  1 3.950000e-01    2.700000e+00
 TP3ah   N2q  1 3.950000e-01    2.700000e+00
 TP3ah   N1q  1 3.950000e-01    2.500000e+00
 TP3ah   C6q  1 3.950000e-01    2.500000e+00
 TP3ah   C5q  1 3.950000e-01    2.310000e+00
 TP3ah   C4q  1 3.950000e-01    2.110000e+00
 TP3ah   C3q  1 3.950000e-01    1.670000e+00
 TP3ah   C2q  1 3.950000e-01    1.670000e+00
 TP3ah   C1q  1 3.980000e-01    1.450000e+00
 TP3ah   X4q  1 3.950000e-01    2.500000e+00
 TP3ah   X3q  1 3.950000e-01    2.500000e+00
 TP3ah   X2q  1 3.950000e-01    2.310000e+00
 TP3ah   X1q  1 3.950000e-01    2.110000e+00
 TP6dq  P3ah  1 3.950000e-01    4.230000e+00
 TP5dq  P3ah  1 3.950000e-01    3.910000e+00
 TP4dq  P3ah  1 3.950000e-01    3.910000e+00
 TP3dq  P3ah  1 3.950000e-01    3.910000e+00
 TP3ah  P2dq  1 3.950000e-01    3.910000e+00
 TP3ah  P1dq  1 3.950000e-01    3.670000e+00
 TP3ah  N6dq  1 3.950000e-01    3.430000e+00
 TP3ah  N5dq  1 3.950000e-01    3.190000e+00
 TP3ah  N4dq  1 3.950000e-01    3.190000e+00
 TP3ah  N3dq  1 3.950000e-01    2.940000e+00
 TP3ah  N2dq  1 3.950000e-01    2.940000e+00
 TP3ah  N1dq  1 3.950000e-01    2.500000e+00
 TP6aq  P3ah  1 3.950000e-01    3.670000e+00
 TP5aq  P3ah  1 3.950000e-01    3.430000e+00
 TP4aq  P3ah  1 3.950000e-01    3.430000e+00
 TP3ah  P3aq  1 3.950000e-01    3.430000e+00
 TP3ah  X1eq  1 3.950000e-01    1.850000e+00
 TP3ah  X2eq  1 3.950000e-01    2.110000e+00
 TP3ah  X3eq  1 3.950000e-01    2.310000e+00
 TP3ah  X4eq  1 3.950000e-01    2.310000e+00
 TP3ah  C1eq  1 3.990000e-01    1.180000e+00
 TP3ah  C2eq  1 3.980000e-01    1.450000e+00
 TP3ah  C3eq  1 3.980000e-01    1.450000e+00
 TP3ah  C4eq  1 3.950000e-01    1.850000e+00
 TP3ah  C5eq  1 3.950000e-01    2.110000e+00
 TP3ah  C6eq  1 3.950000e-01    2.310000e+00
 TP3ah  X1vq  1 3.950000e-01    2.310000e+00
 TP3ah  X2vq  1 3.950000e-01    2.500000e+00
 TP3ah  X3vq  1 3.950000e-01    2.700000e+00
 TP3ah  X4vq  1 3.950000e-01    2.700000e+00
 TP3ah  C1vq  1 3.950000e-01    1.670000e+00
 TP3ah  C2vq  1 3.950000e-01    1.850000e+00
 TP3ah  C3vq  1 3.950000e-01    1.850000e+00
 TP3ah  C4vq  1 3.950000e-01    2.310000e+00
 TP3ah  C5vq  1 3.950000e-01    2.500000e+00
 TP3ah  C6vq  1 3.950000e-01    2.700000e+00
 TP3ah  N1aq  1 3.950000e-01    2.500000e+00
 TP3ah  N2aq  1 3.950000e-01    2.500000e+00
 TP3ah  N3aq  1 3.950000e-01    2.500000e+00
 TP3ah  N4aq  1 3.950000e-01    2.700000e+00
 TP3ah  N5aq  1 3.950000e-01    2.700000e+00
 TP3ah  N6aq  1 3.950000e-01    2.940000e+00
 TP3ah  P1aq  1 3.950000e-01    3.190000e+00
 TP3ah  P2aq  1 3.950000e-01    3.430000e+00
  TP2a  P2ah  1 3.950000e-01    2.940000e+00
 TP2ah   P1a  1 3.950000e-01    2.700000e+00
 TP2ah   N6a  1 3.950000e-01    2.700000e+00
 TP2ah   N5a  1 3.950000e-01    2.500000e+00
 TP2ah   N4a  1 3.950000e-01    2.310000e+00
 TP2ah   N3a  1 3.950000e-01    2.110000e+00
 TP2ah   N2a  1 3.950000e-01    2.110000e+00
 TP2ah   N1a  1 3.950000e-01    2.110000e+00
 TP2ah   C6v  1 3.950000e-01    2.310000e+00
 TP2ah   C5v  1 3.950000e-01    2.110000e+00
 TP2ah   C4v  1 3.950000e-01    1.850000e+00
 TP2ah   C3v  1 3.950000e-01    1.670000e+00
 TP2ah   C2v  1 3.950000e-01    1.670000e+00
 TP2ah   C1v  1 3.980000e-01    1.450000e+00
 TP2ah   X4v  1 3.950000e-01    2.310000e+00
 TP2ah   X3v  1 3.950000e-01    2.310000e+00
 TP2ah   X2v  1 3.950000e-01    2.110000e+00
 TP2ah   X1v  1 3.950000e-01    1.850000e+00
 TP2ah   C6e  1 3.950000e-01    1.850000e+00
 TP2ah   C5e  1 3.950000e-01    1.670000e+00
 TP2ah   C4e  1 3.980000e-01    1.450000e+00
 TP2ah   C3e  1 3.990000e-01    1.180000e+00
 TP2ah   C2e  1 3.990000e-01    1.180000e+00
 TP2ah   C1e  1 4.010000e-01    9.830000e-01
 TP2ah   X4e  1 3.950000e-01    1.850000e+00
 TP2ah   X3e  1 3.950000e-01    1.850000e+00
 TP2ah   X2e  1 3.950000e-01    1.670000e+00
 TP2ah   X1e  1 3.980000e-01    1.450000e+00
  TP6q  P2ah  1 3.950000e-01    3.910000e+00
  TP5q  P2ah  1 3.950000e-01    3.670000e+00
  TP4q  P2ah  1 3.950000e-01    3.670000e+00
  TP3q  P2ah  1 3.950000e-01    3.670000e+00
  TP2q  P2ah  1 3.950000e-01    3.670000e+00
 TP2ah   P1q  1 3.950000e-01    3.430000e+00
 TP2ah   N6q  1 3.950000e-01    3.430000e+00
 TP2ah   N5q  1 3.950000e-01    3.190000e+00
 TP2ah   N4q  1 3.950000e-01    2.940000e+00
 TP2ah   N3q  1 3.950000e-01    2.700000e+00
 TP2ah   N2q  1 3.950000e-01    2.700000e+00
 TP2ah   N1q  1 3.950000e-01    2.700000e+00
 TP2ah   C6q  1 3.950000e-01    2.500000e+00
 TP2ah   C5q  1 3.950000e-01    2.310000e+00
 TP2ah   C4q  1 3.950000e-01    2.110000e+00
 TP2ah   C3q  1 3.950000e-01    1.850000e+00
 TP2ah   C2q  1 3.950000e-01    1.850000e+00
 TP2ah   C1q  1 3.950000e-01    1.670000e+00
 TP2ah   X4q  1 3.950000e-01    2.500000e+00
 TP2ah   X3q  1 3.950000e-01    2.500000e+00
 TP2ah   X2q  1 3.950000e-01    2.310000e+00
 TP2ah   X1q  1 3.950000e-01    2.110000e+00
 TP6dq  P2ah  1 3.950000e-01    4.230000e+00
 TP5dq  P2ah  1 3.950000e-01    3.910000e+00
 TP4dq  P2ah  1 3.950000e-01    3.910000e+00
 TP3dq  P2ah  1 3.950000e-01    3.910000e+00
 TP2dq  P2ah  1 3.950000e-01    3.910000e+00
 TP2ah  P1dq  1 3.950000e-01    3.670000e+00
 TP2ah  N6dq  1 3.950000e-01    3.670000e+00
 TP2ah  N5dq  1 3.950000e-01    3.430000e+00
 TP2ah  N4dq  1 3.950000e-01    3.190000e+00
 TP2ah  N3dq  1 3.950000e-01    2.940000e+00
 TP2ah  N2dq  1 3.950000e-01    2.940000e+00
 TP2ah  N1dq  1 3.950000e-01    2.940000e+00
 TP6aq  P2ah  1 3.950000e-01    3.670000e+00
 TP5aq  P2ah  1 3.950000e-01    3.430000e+00
 TP4aq  P2ah  1 3.950000e-01    3.430000e+00
 TP3aq  P2ah  1 3.950000e-01    3.430000e+00
 TP2ah  P2aq  1 3.950000e-01    3.430000e+00
 TP2ah  X1eq  1 3.950000e-01    1.850000e+00
 TP2ah  X2eq  1 3.950000e-01    2.110000e+00
 TP2ah  X3eq  1 3.950000e-01    2.310000e+00
 TP2ah  X4eq  1 3.950000e-01    2.310000e+00
 TP2ah  C1eq  1 3.980000e-01    1.450000e+00
 TP2ah  C2eq  1 3.950000e-01    1.670000e+00
 TP2ah  C3eq  1 3.950000e-01    1.670000e+00
 TP2ah  C4eq  1 3.950000e-01    1.850000e+00
 TP2ah  C5eq  1 3.950000e-01    2.110000e+00
 TP2ah  C6eq  1 3.950000e-01    2.310000e+00
 TP2ah  X1vq  1 3.950000e-01    2.310000e+00
 TP2ah  X2vq  1 3.950000e-01    2.500000e+00
 TP2ah  X3vq  1 3.950000e-01    2.700000e+00
 TP2ah  X4vq  1 3.950000e-01    2.700000e+00
 TP2ah  C1vq  1 3.950000e-01    1.850000e+00
 TP2ah  C2vq  1 3.950000e-01    2.110000e+00
 TP2ah  C3vq  1 3.950000e-01    2.110000e+00
 TP2ah  C4vq  1 3.950000e-01    2.310000e+00
 TP2ah  C5vq  1 3.950000e-01    2.500000e+00
 TP2ah  C6vq  1 3.950000e-01    2.700000e+00
 TP2ah  N1aq  1 3.950000e-01    2.500000e+00
 TP2ah  N2aq  1 3.950000e-01    2.500000e+00
 TP2ah  N3aq  1 3.950000e-01    2.500000e+00
 TP2ah  N4aq  1 3.950000e-01    2.700000e+00
 TP2ah  N5aq  1 3.950000e-01    2.940000e+00
 TP2ah  N6aq  1 3.950000e-01    3.190000e+00
 TP2ah  P1aq  1 3.950000e-01    3.190000e+00
  TP1a  P1ah  1 3.950000e-01    2.700000e+00
 TP1ah   N6a  1 3.950000e-01    2.700000e+00
 TP1ah   N5a  1 3.950000e-01    2.500000e+00
 TP1ah   N4a  1 3.950000e-01    2.500000e+00
 TP1ah   N3a  1 3.950000e-01    2.110000e+00
 TP1ah   N2a  1 3.950000e-01    2.110000e+00
 TP1ah   N1a  1 3.950000e-01    2.110000e+00
 TP1ah   C6v  1 3.950000e-01    2.310000e+00
 TP1ah   C5v  1 3.950000e-01    2.110000e+00
 TP1ah   C4v  1 3.950000e-01    1.850000e+00
 TP1ah   C3v  1 3.950000e-01    1.670000e+00
 TP1ah   C2v  1 3.950000e-01    1.670000e+00
 TP1ah   C1v  1 3.980000e-01    1.450000e+00
 TP1ah   X4v  1 3.950000e-01    2.310000e+00
 TP1ah   X3v  1 3.950000e-01    2.310000e+00
 TP1ah   X2v  1 3.950000e-01    2.110000e+00
 TP1ah   X1v  1 3.950000e-01    1.850000e+00
 TP1ah   C6e  1 3.950000e-01    1.850000e+00
 TP1ah   C5e  1 3.950000e-01    1.670000e+00
 TP1ah   C4e  1 3.980000e-01    1.450000e+00
 TP1ah   C3e  1 3.990000e-01    1.180000e+00
 TP1ah   C2e  1 3.990000e-01    1.180000e+00
 TP1ah   C1e  1 4.010000e-01    9.830000e-01
 TP1ah   X4e  1 3.950000e-01    1.850000e+00
 TP1ah   X3e  1 3.950000e-01    1.850000e+00
 TP1ah   X2e  1 3.950000e-01    1.670000e+00
 TP1ah   X1e  1 3.980000e-01    1.450000e+00
  TP6q  P1ah  1 3.950000e-01    3.670000e+00
  TP5q  P1ah  1 3.950000e-01    3.430000e+00
  TP4q  P1ah  1 3.950000e-01    3.430000e+00
  TP3q  P1ah  1 3.950000e-01    3.430000e+00
  TP2q  P1ah  1 3.950000e-01    3.430000e+00
  TP1q  P1ah  1 3.950000e-01    3.430000e+00
 TP1ah   N6q  1 3.950000e-01    3.430000e+00
 TP1ah   N5q  1 3.950000e-01    3.190000e+00
 TP1ah   N4q  1 3.950000e-01    3.190000e+00
 TP1ah   N3q  1 3.950000e-01    2.700000e+00
 TP1ah   N2q  1 3.950000e-01    2.700000e+00
 TP1ah   N1q  1 3.950000e-01    2.700000e+00
 TP1ah   C6q  1 3.950000e-01    2.500000e+00
 TP1ah   C5q  1 3.950000e-01    2.310000e+00
 TP1ah   C4q  1 3.950000e-01    2.110000e+00
 TP1ah   C3q  1 3.950000e-01    1.850000e+00
 TP1ah   C2q  1 3.950000e-01    1.850000e+00
 TP1ah   C1q  1 3.950000e-01    1.670000e+00
 TP1ah   X4q  1 3.950000e-01    2.500000e+00
 TP1ah   X3q  1 3.950000e-01    2.500000e+00
 TP1ah   X2q  1 3.950000e-01    2.310000e+00
 TP1ah   X1q  1 3.950000e-01    2.110000e+00
 TP6dq  P1ah  1 3.950000e-01    3.910000e+00
 TP5dq  P1ah  1 3.950000e-01    3.670000e+00
 TP4dq  P1ah  1 3.950000e-01    3.670000e+00
 TP3dq  P1ah  1 3.950000e-01    3.670000e+00
 TP2dq  P1ah  1 3.950000e-01    3.670000e+00
 TP1dq  P1ah  1 3.950000e-01    3.670000e+00
 TP1ah  N6dq  1 3.950000e-01    3.670000e+00
 TP1ah  N5dq  1 3.950000e-01    3.430000e+00
 TP1ah  N4dq  1 3.950000e-01    3.430000e+00
 TP1ah  N3dq  1 3.950000e-01    2.940000e+00
 TP1ah  N2dq  1 3.950000e-01    2.940000e+00
 TP1ah  N1dq  1 3.950000e-01    2.940000e+00
 TP6aq  P1ah  1 3.950000e-01    3.430000e+00
 TP5aq  P1ah  1 3.950000e-01    3.190000e+00
 TP4aq  P1ah  1 3.950000e-01    3.190000e+00
 TP3aq  P1ah  1 3.950000e-01    3.190000e+00
 TP2aq  P1ah  1 3.950000e-01    3.190000e+00
 TP1ah  P1aq  1 3.950000e-01    3.190000e+00
 TP1ah  X1eq  1 3.950000e-01    1.850000e+00
 TP1ah  X2eq  1 3.950000e-01    2.110000e+00
 TP1ah  X3eq  1 3.950000e-01    2.310000e+00
 TP1ah  X4eq  1 3.950000e-01    2.310000e+00
 TP1ah  C1eq  1 3.980000e-01    1.450000e+00
 TP1ah  C2eq  1 3.950000e-01    1.670000e+00
 TP1ah  C3eq  1 3.950000e-01    1.670000e+00
 TP1ah  C4eq  1 3.950000e-01    1.850000e+00
 TP1ah  C5eq  1 3.950000e-01    2.110000e+00
 TP1ah  C6eq  1 3.950000e-01    2.310000e+00
 TP1ah  X1vq  1 3.950000e-01    2.310000e+00
 TP1ah  X2vq  1 3.950000e-01    2.500000e+00
 TP1ah  X3vq  1 3.950000e-01    2.700000e+00
 TP1ah  X4vq  1 3.950000e-01    2.700000e+00
 TP1ah  C1vq  1 3.950000e-01    1.850000e+00
 TP1ah  C2vq  1 3.950000e-01    2.110000e+00
 TP1ah  C3vq  1 3.950000e-01    2.110000e+00
 TP1ah  C4vq  1 3.950000e-01    2.310000e+00
 TP1ah  C5vq  1 3.950000e-01    2.500000e+00
 TP1ah  C6vq  1 3.950000e-01    2.700000e+00
 TP1ah  N1aq  1 3.950000e-01    2.500000e+00
 TP1ah  N2aq  1 3.950000e-01    2.500000e+00
 TP1ah  N3aq  1 3.950000e-01    2.500000e+00
 TP1ah  N4aq  1 3.950000e-01    2.940000e+00
 TP1ah  N5aq  1 3.950000e-01    2.940000e+00
 TP1ah  N6aq  1 3.950000e-01    3.190000e+00
  TN6a  N6ah  1 3.950000e-01    2.700000e+00
 TN6ah   N5a  1 3.950000e-01    2.700000e+00
 TN6ah   N4a  1 3.950000e-01    2.700000e+00
 TN6ah   N3a  1 3.950000e-01    2.310000e+00
 TN6ah   N2a  1 3.950000e-01    2.110000e+00
 TN6ah   N1a  1 3.950000e-01    2.110000e+00
 TN6ah   C6v  1 3.950000e-01    2.500000e+00
 TN6ah   C5v  1 3.950000e-01    2.310000e+00
 TN6ah   C4v  1 3.950000e-01    2.110000e+00
 TN6ah   C3v  1 3.950000e-01    1.850000e+00
 TN6ah   C2v  1 3.950000e-01    1.850000e+00
 TN6ah   C1v  1 3.950000e-01    1.670000e+00
 TN6ah   X4v  1 3.950000e-01    2.500000e+00
 TN6ah   X3v  1 3.950000e-01    2.310000e+00
 TN6ah   X2v  1 3.950000e-01    2.110000e+00
 TN6ah   X1v  1 3.950000e-01    1.850000e+00
 TN6ah   C6e  1 3.950000e-01    2.110000e+00
 TN6ah   C5e  1 3.950000e-01    1.850000e+00
 TN6ah   C4e  1 3.950000e-01    1.670000e+00
 TN6ah   C3e  1 3.980000e-01    1.450000e+00
 TN6ah   C2e  1 3.980000e-01    1.450000e+00
 TN6ah   C1e  1 3.990000e-01    1.180000e+00
 TN6ah   X4e  1 3.950000e-01    2.110000e+00
 TN6ah   X3e  1 3.950000e-01    1.850000e+00
 TN6ah   X2e  1 3.950000e-01    1.670000e+00
 TN6ah   X1e  1 3.980000e-01    1.450000e+00
  TP6q  N6ah  1 3.950000e-01    3.430000e+00
  TP5q  N6ah  1 3.950000e-01    3.190000e+00
  TP4q  N6ah  1 3.950000e-01    3.190000e+00
  TP3q  N6ah  1 3.950000e-01    3.190000e+00
  TP2q  N6ah  1 3.950000e-01    3.430000e+00
  TP1q  N6ah  1 3.950000e-01    3.430000e+00
  TN6q  N6ah  1 3.950000e-01    3.430000e+00
 TN6ah   N5q  1 3.950000e-01    3.430000e+00
 TN6ah   N4q  1 3.950000e-01    3.430000e+00
 TN6ah   N3q  1 3.950000e-01    2.940000e+00
 TN6ah   N2q  1 3.950000e-01    2.700000e+00
 TN6ah   N1q  1 3.950000e-01    2.700000e+00
 TN6ah   C6q  1 3.950000e-01    2.700000e+00
 TN6ah   C5q  1 3.950000e-01    2.500000e+00
 TN6ah   C4q  1 3.950000e-01    2.310000e+00
 TN6ah   C3q  1 3.950000e-01    2.110000e+00
 TN6ah   C2q  1 3.950000e-01    2.110000e+00
 TN6ah   C1q  1 3.950000e-01    1.850000e+00
 TN6ah   X4q  1 3.950000e-01    2.700000e+00
 TN6ah   X3q  1 3.950000e-01    2.500000e+00
 TN6ah   X2q  1 3.950000e-01    2.310000e+00
 TN6ah   X1q  1 3.950000e-01    2.110000e+00
 TP6dq  N6ah  1 3.950000e-01    3.670000e+00
 TP5dq  N6ah  1 3.950000e-01    3.430000e+00
 TP4dq  N6ah  1 3.950000e-01    3.430000e+00
 TP3dq  N6ah  1 3.950000e-01    3.430000e+00
 TP2dq  N6ah  1 3.950000e-01    3.670000e+00
 TP1dq  N6ah  1 3.950000e-01    3.670000e+00
 TN6dq  N6ah  1 3.950000e-01    3.670000e+00
 TN6ah  N5dq  1 3.950000e-01    3.670000e+00
 TN6ah  N4dq  1 3.950000e-01    3.670000e+00
 TN6ah  N3dq  1 3.950000e-01    3.190000e+00
 TN6ah  N2dq  1 3.950000e-01    2.940000e+00
 TN6ah  N1dq  1 3.950000e-01    2.940000e+00
 TP6aq  N6ah  1 3.950000e-01    3.190000e+00
 TP5aq  N6ah  1 3.950000e-01    2.940000e+00
 TP4aq  N6ah  1 3.950000e-01    2.940000e+00
 TP3aq  N6ah  1 3.950000e-01    2.940000e+00
 TP2aq  N6ah  1 3.950000e-01    3.190000e+00
 TP1aq  N6ah  1 3.950000e-01    3.190000e+00
 TN6ah  N6aq  1 3.950000e-01    3.190000e+00
 TN6ah  X1eq  1 3.950000e-01    1.850000e+00
 TN6ah  X2eq  1 3.950000e-01    2.110000e+00
 TN6ah  X3eq  1 3.950000e-01    2.310000e+00
 TN6ah  X4eq  1 3.950000e-01    2.500000e+00
 TN6ah  C1eq  1 3.950000e-01    1.670000e+00
 TN6ah  C2eq  1 3.950000e-01    1.850000e+00
 TN6ah  C3eq  1 3.950000e-01    1.850000e+00
 TN6ah  C4eq  1 3.950000e-01    2.110000e+00
 TN6ah  C5eq  1 3.950000e-01    2.310000e+00
 TN6ah  C6eq  1 3.950000e-01    2.500000e+00
 TN6ah  X1vq  1 3.950000e-01    2.310000e+00
 TN6ah  X2vq  1 3.950000e-01    2.500000e+00
 TN6ah  X3vq  1 3.950000e-01    2.700000e+00
 TN6ah  X4vq  1 3.950000e-01    2.940000e+00
 TN6ah  C1vq  1 3.950000e-01    2.110000e+00
 TN6ah  C2vq  1 3.950000e-01    2.310000e+00
 TN6ah  C3vq  1 3.950000e-01    2.310000e+00
 TN6ah  C4vq  1 3.950000e-01    2.500000e+00
 TN6ah  C5vq  1 3.950000e-01    2.700000e+00
 TN6ah  C6vq  1 3.950000e-01    2.940000e+00
 TN6ah  N1aq  1 3.950000e-01    2.500000e+00
 TN6ah  N2aq  1 3.950000e-01    2.500000e+00
 TN6ah  N3aq  1 3.950000e-01    2.700000e+00
 TN6ah  N4aq  1 3.950000e-01    3.190000e+00
 TN6ah  N5aq  1 3.950000e-01    3.190000e+00
  TN5a  N5ah  1 3.950000e-01    2.500000e+00
 TN5ah   N4a  1 3.950000e-01    2.500000e+00
 TN5ah   N3a  1 3.950000e-01    2.310000e+00
 TN5ah   N2a  1 3.950000e-01    2.310000e+00
 TN5ah   N1a  1 3.950000e-01    2.110000e+00
 TN5ah   C6v  1 3.950000e-01    2.500000e+00
 TN5ah   C5v  1 3.950000e-01    2.310000e+00
 TN5ah   C4v  1 3.950000e-01    2.110000e+00
 TN5ah   C3v  1 3.950000e-01    2.110000e+00
 TN5ah   C2v  1 3.950000e-01    1.850000e+00
 TN5ah   C1v  1 3.950000e-01    1.670000e+00
 TN5ah   X4v  1 3.950000e-01    2.700000e+00
 TN5ah   X3v  1 3.950000e-01    2.500000e+00
 TN5ah   X2v  1 3.950000e-01    2.310000e+00
 TN5ah   X1v  1 3.950000e-01    2.110000e+00
 TN5ah   C6e  1 3.950000e-01    2.110000e+00
 TN5ah   C5e  1 3.950000e-01    1.850000e+00
 TN5ah   C4e  1 3.950000e-01    1.670000e+00
 TN5ah   C3e  1 3.950000e-01    1.670000e+00
 TN5ah   C2e  1 3.980000e-01    1.450000e+00
 TN5ah   C1e  1 3.990000e-01    1.180000e+00
 TN5ah   X4e  1 3.950000e-01    2.310000e+00
 TN5ah   X3e  1 3.950000e-01    2.110000e+00
 TN5ah   X2e  1 3.950000e-01    1.850000e+00
 TN5ah   X1e  1 3.950000e-01    1.670000e+00
  TP6q  N5ah  1 3.950000e-01    2.940000e+00
  TP5q  N5ah  1 3.950000e-01    2.940000e+00
  TP4q  N5ah  1 3.950000e-01    2.940000e+00
  TP3q  N5ah  1 3.950000e-01    2.940000e+00
  TP2q  N5ah  1 3.950000e-01    3.190000e+00
  TP1q  N5ah  1 3.950000e-01    3.190000e+00
  TN6q  N5ah  1 3.950000e-01    3.430000e+00
  TN5q  N5ah  1 3.950000e-01    3.190000e+00
 TN5ah   N4q  1 3.950000e-01    3.190000e+00
 TN5ah   N3q  1 3.950000e-01    2.940000e+00
 TN5ah   N2q  1 3.950000e-01    2.940000e+00
 TN5ah   N1q  1 3.950000e-01    2.700000e+00
 TN5ah   C6q  1 3.950000e-01    2.700000e+00
 TN5ah   C5q  1 3.950000e-01    2.500000e+00
 TN5ah   C4q  1 3.950000e-01    2.310000e+00
 TN5ah   C3q  1 3.950000e-01    2.310000e+00
 TN5ah   C2q  1 3.950000e-01    2.110000e+00
 TN5ah   C1q  1 3.950000e-01    1.850000e+00
 TN5ah   X4q  1 3.950000e-01    2.940000e+00
 TN5ah   X3q  1 3.950000e-01    2.700000e+00
 TN5ah   X2q  1 3.950000e-01    2.500000e+00
 TN5ah   X1q  1 3.950000e-01    2.310000e+00
 TP6dq  N5ah  1 3.950000e-01    3.190000e+00
 TP5dq  N5ah  1 3.950000e-01    3.190000e+00
 TP4dq  N5ah  1 3.950000e-01    3.190000e+00
 TP3dq  N5ah  1 3.950000e-01    3.190000e+00
 TP2dq  N5ah  1 3.950000e-01    3.430000e+00
 TP1dq  N5ah  1 3.950000e-01    3.430000e+00
 TN6dq  N5ah  1 3.950000e-01    3.670000e+00
 TN5dq  N5ah  1 3.950000e-01    3.430000e+00
 TN5ah  N4dq  1 3.950000e-01    3.430000e+00
 TN5ah  N3dq  1 3.950000e-01    3.190000e+00
 TN5ah  N2dq  1 3.950000e-01    3.190000e+00
 TN5ah  N1dq  1 3.950000e-01    2.940000e+00
 TP6aq  N5ah  1 3.950000e-01    2.700000e+00
 TP5aq  N5ah  1 3.950000e-01    2.700000e+00
 TP4aq  N5ah  1 3.950000e-01    2.700000e+00
 TP3aq  N5ah  1 3.950000e-01    2.700000e+00
 TP2aq  N5ah  1 3.950000e-01    2.940000e+00
 TP1aq  N5ah  1 3.950000e-01    2.940000e+00
 TN6aq  N5ah  1 3.950000e-01    3.190000e+00
 TN5ah  N5aq  1 3.950000e-01    2.940000e+00
 TN5ah  X1eq  1 3.950000e-01    2.110000e+00
 TN5ah  X2eq  1 3.950000e-01    2.310000e+00
 TN5ah  X3eq  1 3.950000e-01    2.500000e+00
 TN5ah  X4eq  1 3.950000e-01    2.700000e+00
 TN5ah  C1eq  1 3.950000e-01    1.670000e+00
 TN5ah  C2eq  1 3.950000e-01    1.850000e+00
 TN5ah  C3eq  1 3.950000e-01    2.110000e+00
 TN5ah  C4eq  1 3.950000e-01    2.110000e+00
 TN5ah  C5eq  1 3.950000e-01    2.310000e+00
 TN5ah  C6eq  1 3.950000e-01    2.500000e+00
 TN5ah  X1vq  1 3.950000e-01    2.500000e+00
 TN5ah  X2vq  1 3.950000e-01    2.700000e+00
 TN5ah  X3vq  1 3.950000e-01    2.940000e+00
 TN5ah  X4vq  1 3.950000e-01    3.190000e+00
 TN5ah  C1vq  1 3.950000e-01    2.110000e+00
 TN5ah  C2vq  1 3.950000e-01    2.310000e+00
 TN5ah  C3vq  1 3.950000e-01    2.500000e+00
 TN5ah  C4vq  1 3.950000e-01    2.500000e+00
 TN5ah  C5vq  1 3.950000e-01    2.700000e+00
 TN5ah  C6vq  1 3.950000e-01    2.940000e+00
 TN5ah  N1aq  1 3.950000e-01    2.500000e+00
 TN5ah  N2aq  1 3.950000e-01    2.700000e+00
 TN5ah  N3aq  1 3.950000e-01    2.700000e+00
 TN5ah  N4aq  1 3.950000e-01    2.940000e+00
  TN4a  N4ah  1 3.950000e-01    2.500000e+00
 TN4ah   N3a  1 3.950000e-01    2.310000e+00
 TN4ah   N2a  1 3.950000e-01    2.310000e+00
 TN4ah   N1a  1 3.950000e-01    2.110000e+00
 TN4ah   C6v  1 3.950000e-01    2.500000e+00
 TN4ah   C5v  1 3.950000e-01    2.310000e+00
 TN4ah   C4v  1 3.950000e-01    2.310000e+00
 TN4ah   C3v  1 3.950000e-01    2.110000e+00
 TN4ah   C2v  1 3.950000e-01    1.850000e+00
 TN4ah   C1v  1 3.950000e-01    1.670000e+00
 TN4ah   X4v  1 3.950000e-01    2.940000e+00
 TN4ah   X3v  1 3.950000e-01    2.700000e+00
 TN4ah   X2v  1 3.950000e-01    2.310000e+00
 TN4ah   X1v  1 3.950000e-01    2.110000e+00
 TN4ah   C6e  1 3.950000e-01    2.110000e+00
 TN4ah   C5e  1 3.950000e-01    1.850000e+00
 TN4ah   C4e  1 3.950000e-01    1.850000e+00
 TN4ah   C3e  1 3.950000e-01    1.670000e+00
 TN4ah   C2e  1 3.980000e-01    1.450000e+00
 TN4ah   C1e  1 3.990000e-01    1.180000e+00
 TN4ah   X4e  1 3.950000e-01    2.500000e+00
 TN4ah   X3e  1 3.950000e-01    2.310000e+00
 TN4ah   X2e  1 3.950000e-01    1.850000e+00
 TN4ah   X1e  1 3.950000e-01    1.670000e+00
  TP6q  N4ah  1 3.950000e-01    2.700000e+00
  TP5q  N4ah  1 3.950000e-01    2.940000e+00
  TP4q  N4ah  1 3.950000e-01    2.940000e+00
  TP3q  N4ah  1 3.950000e-01    2.940000e+00
  TP2q  N4ah  1 3.950000e-01    2.940000e+00
  TP1q  N4ah  1 3.950000e-01    3.190000e+00
  TN6q  N4ah  1 3.950000e-01    3.430000e+00
  TN5q  N4ah  1 3.950000e-01    3.190000e+00
  TN4q  N4ah  1 3.950000e-01    3.190000e+00
 TN4ah   N3q  1 3.950000e-01    2.940000e+00
 TN4ah   N2q  1 3.950000e-01    2.940000e+00
 TN4ah   N1q  1 3.950000e-01    2.700000e+00
 TN4ah   C6q  1 3.950000e-01    2.700000e+00
 TN4ah   C5q  1 3.950000e-01    2.500000e+00
 TN4ah   C4q  1 3.950000e-01    2.500000e+00
 TN4ah   C3q  1 3.950000e-01    2.310000e+00
 TN4ah   C2q  1 3.950000e-01    2.110000e+00
 TN4ah   C1q  1 3.950000e-01    1.850000e+00
 TN4ah   X4q  1 3.950000e-01    3.190000e+00
 TN4ah   X3q  1 3.950000e-01    2.940000e+00
 TN4ah   X2q  1 3.950000e-01    2.500000e+00
 TN4ah   X1q  1 3.950000e-01    2.310000e+00
 TP6dq  N4ah  1 3.950000e-01    2.940000e+00
 TP5dq  N4ah  1 3.950000e-01    3.190000e+00
 TP4dq  N4ah  1 3.950000e-01    3.190000e+00
 TP3dq  N4ah  1 3.950000e-01    3.190000e+00
 TP2dq  N4ah  1 3.950000e-01    3.190000e+00
 TP1dq  N4ah  1 3.950000e-01    3.430000e+00
 TN6dq  N4ah  1 3.950000e-01    3.670000e+00
 TN5dq  N4ah  1 3.950000e-01    3.430000e+00
 TN4dq  N4ah  1 3.950000e-01    3.430000e+00
 TN4ah  N3dq  1 3.950000e-01    3.190000e+00
 TN4ah  N2dq  1 3.950000e-01    3.190000e+00
 TN4ah  N1dq  1 3.950000e-01    2.940000e+00
 TP6aq  N4ah  1 3.950000e-01    2.500000e+00
 TP5aq  N4ah  1 3.950000e-01    2.700000e+00
 TP4aq  N4ah  1 3.950000e-01    2.700000e+00
 TP3aq  N4ah  1 3.950000e-01    2.700000e+00
 TP2aq  N4ah  1 3.950000e-01    2.700000e+00
 TP1aq  N4ah  1 3.950000e-01    2.940000e+00
 TN6aq  N4ah  1 3.950000e-01    3.190000e+00
 TN5aq  N4ah  1 3.950000e-01    2.940000e+00
 TN4ah  N4aq  1 3.950000e-01    2.940000e+00
 TN4ah  X1eq  1 3.950000e-01    2.110000e+00
 TN4ah  X2eq  1 3.950000e-01    2.310000e+00
 TN4ah  X3eq  1 3.950000e-01    2.700000e+00
 TN4ah  X4eq  1 3.950000e-01    2.940000e+00
 TN4ah  C1eq  1 3.950000e-01    1.670000e+00
 TN4ah  C2eq  1 3.950000e-01    1.850000e+00
 TN4ah  C3eq  1 3.950000e-01    2.110000e+00
 TN4ah  C4eq  1 3.950000e-01    2.310000e+00
 TN4ah  C5eq  1 3.950000e-01    2.310000e+00
 TN4ah  C6eq  1 3.950000e-01    2.500000e+00
 TN4ah  X1vq  1 3.950000e-01    2.500000e+00
 TN4ah  X2vq  1 3.950000e-01    2.700000e+00
 TN4ah  X3vq  1 3.950000e-01    3.190000e+00
 TN4ah  X4vq  1 3.950000e-01    3.430000e+00
 TN4ah  C1vq  1 3.950000e-01    2.110000e+00
 TN4ah  C2vq  1 3.950000e-01    2.310000e+00
 TN4ah  C3vq  1 3.950000e-01    2.500000e+00
 TN4ah  C4vq  1 3.950000e-01    2.700000e+00
 TN4ah  C5vq  1 3.950000e-01    2.700000e+00
 TN4ah  C6vq  1 3.950000e-01    2.940000e+00
 TN4ah  N1aq  1 3.950000e-01    2.500000e+00
 TN4ah  N2aq  1 3.950000e-01    2.700000e+00
 TN4ah  N3aq  1 3.950000e-01    2.700000e+00
  TN3a  N3ah  1 3.950000e-01    2.310000e+00
 TN3ah   N2a  1 3.950000e-01    2.310000e+00
 TN3ah   N1a  1 3.950000e-01    2.110000e+00
 TN3ah   C6v  1 3.950000e-01    2.500000e+00
 TN3ah   C5v  1 3.950000e-01    2.310000e+00
 TN3ah   C4v  1 3.950000e-01    2.310000e+00
 TN3ah   C3v  1 3.950000e-01    2.110000e+00
 TN3ah   C2v  1 3.950000e-01    2.110000e+00
 TN3ah   C1v  1 3.950000e-01    1.850000e+00
 TN3ah   X4v  1 3.950000e-01    2.700000e+00
 TN3ah   X3v  1 3.950000e-01    2.500000e+00
 TN3ah   X2v  1 3.950000e-01    2.310000e+00
 TN3ah   X1v  1 3.950000e-01    2.310000e+00
 TN3ah   C6e  1 3.950000e-01    2.110000e+00
 TN3ah   C5e  1 3.950000e-01    1.850000e+00
 TN3ah   C4e  1 3.950000e-01    1.850000e+00
 TN3ah   C3e  1 3.950000e-01    1.670000e+00
 TN3ah   C2e  1 3.950000e-01    1.670000e+00
 TN3ah   C1e  1 3.980000e-01    1.450000e+00
 TN3ah   X4e  1 3.950000e-01    2.310000e+00
 TN3ah   X3e  1 3.950000e-01    2.110000e+00
 TN3ah   X2e  1 3.950000e-01    1.850000e+00
 TN3ah   X1e  1 3.950000e-01    1.850000e+00
  TP6q  N3ah  1 3.950000e-01    2.500000e+00
  TP5q  N3ah  1 3.950000e-01    2.500000e+00
  TP4q  N3ah  1 3.950000e-01    2.700000e+00
  TP3q  N3ah  1 3.950000e-01    2.700000e+00
  TP2q  N3ah  1 3.950000e-01    2.700000e+00
  TP1q  N3ah  1 3.950000e-01    2.700000e+00
  TN6q  N3ah  1 3.950000e-01    2.940000e+00
  TN5q  N3ah  1 3.950000e-01    2.940000e+00
  TN4q  N3ah  1 3.950000e-01    2.940000e+00
  TN3q  N3ah  1 3.950000e-01    2.940000e+00
 TN3ah   N2q  1 3.950000e-01    2.940000e+00
 TN3ah   N1q  1 3.950000e-01    2.700000e+00
 TN3ah   C6q  1 3.950000e-01    2.700000e+00
 TN3ah   C5q  1 3.950000e-01    2.500000e+00
 TN3ah   C4q  1 3.950000e-01    2.500000e+00
 TN3ah   C3q  1 3.950000e-01    2.310000e+00
 TN3ah   C2q  1 3.950000e-01    2.310000e+00
 TN3ah   C1q  1 3.950000e-01    2.110000e+00
 TN3ah   X4q  1 3.950000e-01    2.940000e+00
 TN3ah   X3q  1 3.950000e-01    2.700000e+00
 TN3ah   X2q  1 3.950000e-01    2.500000e+00
 TN3ah   X1q  1 3.950000e-01    2.500000e+00
 TP6dq  N3ah  1 3.950000e-01    2.500000e+00
 TP5dq  N3ah  1 3.950000e-01    2.500000e+00
 TP4dq  N3ah  1 3.950000e-01    2.940000e+00
 TP3dq  N3ah  1 3.950000e-01    2.940000e+00
 TP2dq  N3ah  1 3.950000e-01    2.940000e+00
 TP1dq  N3ah  1 3.950000e-01    2.940000e+00
 TN6dq  N3ah  1 3.950000e-01    3.190000e+00
 TN5dq  N3ah  1 3.950000e-01    3.190000e+00
 TN4dq  N3ah  1 3.950000e-01    3.190000e+00
 TN3dq  N3ah  1 3.950000e-01    3.190000e+00
 TN3ah  N2dq  1 3.950000e-01    3.190000e+00
 TN3ah  N1dq  1 3.950000e-01    2.940000e+00
 TP6aq  N3ah  1 3.950000e-01    2.500000e+00
 TP5aq  N3ah  1 3.950000e-01    2.500000e+00
 TP4aq  N3ah  1 3.950000e-01    2.500000e+00
 TP3aq  N3ah  1 3.950000e-01    2.500000e+00
 TP2aq  N3ah  1 3.950000e-01    2.500000e+00
 TP1aq  N3ah  1 3.950000e-01    2.500000e+00
 TN6aq  N3ah  1 3.950000e-01    2.700000e+00
 TN5aq  N3ah  1 3.950000e-01    2.700000e+00
 TN4aq  N3ah  1 3.950000e-01    2.700000e+00
 TN3ah  N3aq  1 3.950000e-01    2.700000e+00
 TN3ah  X1eq  1 3.950000e-01    2.310000e+00
 TN3ah  X2eq  1 3.950000e-01    2.310000e+00
 TN3ah  X3eq  1 3.950000e-01    2.500000e+00
 TN3ah  X4eq  1 3.950000e-01    2.700000e+00
 TN3ah  C1eq  1 3.950000e-01    1.850000e+00
 TN3ah  C2eq  1 3.950000e-01    2.110000e+00
 TN3ah  C3eq  1 3.950000e-01    2.110000e+00
 TN3ah  C4eq  1 3.950000e-01    2.310000e+00
 TN3ah  C5eq  1 3.950000e-01    2.310000e+00
 TN3ah  C6eq  1 3.950000e-01    2.500000e+00
 TN3ah  X1vq  1 3.950000e-01    2.700000e+00
 TN3ah  X2vq  1 3.950000e-01    2.700000e+00
 TN3ah  X3vq  1 3.950000e-01    2.940000e+00
 TN3ah  X4vq  1 3.950000e-01    3.190000e+00
 TN3ah  C1vq  1 3.950000e-01    2.310000e+00
 TN3ah  C2vq  1 3.950000e-01    2.500000e+00
 TN3ah  C3vq  1 3.950000e-01    2.500000e+00
 TN3ah  C4vq  1 3.950000e-01    2.700000e+00
 TN3ah  C5vq  1 3.950000e-01    2.700000e+00
 TN3ah  C6vq  1 3.950000e-01    2.940000e+00
 TN3ah  N1aq  1 3.950000e-01    2.500000e+00
 TN3ah  N2aq  1 3.950000e-01    2.700000e+00
  TN2a  N2ah  1 3.950000e-01    2.310000e+00
 TN2ah   N1a  1 3.950000e-01    2.110000e+00
 TN2ah   C6v  1 3.950000e-01    2.500000e+00
 TN2ah   C5v  1 3.950000e-01    2.310000e+00
 TN2ah   C4v  1 3.950000e-01    2.310000e+00
 TN2ah   C3v  1 3.950000e-01    2.310000e+00
 TN2ah   C2v  1 3.950000e-01    2.110000e+00
 TN2ah   C1v  1 3.950000e-01    1.850000e+00
 TN2ah   X4v  1 3.950000e-01    2.700000e+00
 TN2ah   X3v  1 3.950000e-01    2.500000e+00
 TN2ah   X2v  1 3.950000e-01    2.310000e+00
 TN2ah   X1v  1 3.950000e-01    2.310000e+00
 TN2ah   C6e  1 3.950000e-01    2.110000e+00
 TN2ah   C5e  1 3.950000e-01    1.850000e+00
 TN2ah   C4e  1 3.950000e-01    1.850000e+00
 TN2ah   C3e  1 3.950000e-01    1.850000e+00
 TN2ah   C2e  1 3.950000e-01    1.670000e+00
 TN2ah   C1e  1 3.980000e-01    1.450000e+00
 TN2ah   X4e  1 3.950000e-01    2.310000e+00
 TN2ah   X3e  1 3.950000e-01    2.110000e+00
 TN2ah   X2e  1 3.950000e-01    1.850000e+00
 TN2ah   X1e  1 3.950000e-01    1.850000e+00
  TP6q  N2ah  1 3.950000e-01    2.310000e+00
  TP5q  N2ah  1 3.950000e-01    2.310000e+00
  TP4q  N2ah  1 3.950000e-01    2.500000e+00
  TP3q  N2ah  1 3.950000e-01    2.700000e+00
  TP2q  N2ah  1 3.950000e-01    2.700000e+00
  TP1q  N2ah  1 3.950000e-01    2.700000e+00
  TN6q  N2ah  1 3.950000e-01    2.700000e+00
  TN5q  N2ah  1 3.950000e-01    2.940000e+00
  TN4q  N2ah  1 3.950000e-01    2.940000e+00
  TN3q  N2ah  1 3.950000e-01    2.940000e+00
  TN2q  N2ah  1 3.950000e-01    2.940000e+00
 TN2ah   N1q  1 3.950000e-01    2.700000e+00
 TN2ah   C6q  1 3.950000e-01    2.700000e+00
 TN2ah   C5q  1 3.950000e-01    2.500000e+00
 TN2ah   C4q  1 3.950000e-01    2.500000e+00
 TN2ah   C3q  1 3.950000e-01    2.500000e+00
 TN2ah   C2q  1 3.950000e-01    2.310000e+00
 TN2ah   C1q  1 3.950000e-01    2.110000e+00
 TN2ah   X4q  1 3.950000e-01    2.940000e+00
 TN2ah   X3q  1 3.950000e-01    2.700000e+00
 TN2ah   X2q  1 3.950000e-01    2.500000e+00
 TN2ah   X1q  1 3.950000e-01    2.500000e+00
 TP6dq  N2ah  1 3.950000e-01    2.310000e+00
 TP5dq  N2ah  1 3.950000e-01    2.310000e+00
 TP4dq  N2ah  1 3.950000e-01    2.500000e+00
 TP3dq  N2ah  1 3.950000e-01    2.940000e+00
 TP2dq  N2ah  1 3.950000e-01    2.940000e+00
 TP1dq  N2ah  1 3.950000e-01    2.940000e+00
 TN6dq  N2ah  1 3.950000e-01    2.940000e+00
 TN5dq  N2ah  1 3.950000e-01    3.190000e+00
 TN4dq  N2ah  1 3.950000e-01    3.190000e+00
 TN3dq  N2ah  1 3.950000e-01    3.190000e+00
 TN2dq  N2ah  1 3.950000e-01    3.190000e+00
 TN2ah  N1dq  1 3.950000e-01    2.940000e+00
 TP6aq  N2ah  1 3.950000e-01    2.310000e+00
 TP5aq  N2ah  1 3.950000e-01    2.310000e+00
 TP4aq  N2ah  1 3.950000e-01    2.500000e+00
 TP3aq  N2ah  1 3.950000e-01    2.500000e+00
 TP2aq  N2ah  1 3.950000e-01    2.500000e+00
 TP1aq  N2ah  1 3.950000e-01    2.500000e+00
 TN6aq  N2ah  1 3.950000e-01    2.500000e+00
 TN5aq  N2ah  1 3.950000e-01    2.700000e+00
 TN4aq  N2ah  1 3.950000e-01    2.700000e+00
 TN3aq  N2ah  1 3.950000e-01    2.700000e+00
 TN2ah  N2aq  1 3.950000e-01    2.700000e+00
 TN2ah  X1eq  1 3.950000e-01    2.310000e+00
 TN2ah  X2eq  1 3.950000e-01    2.310000e+00
 TN2ah  X3eq  1 3.950000e-01    2.500000e+00
 TN2ah  X4eq  1 3.950000e-01    2.700000e+00
 TN2ah  C1eq  1 3.950000e-01    1.850000e+00
 TN2ah  C2eq  1 3.950000e-01    2.110000e+00
 TN2ah  C3eq  1 3.950000e-01    2.310000e+00
 TN2ah  C4eq  1 3.950000e-01    2.310000e+00
 TN2ah  C5eq  1 3.950000e-01    2.310000e+00
 TN2ah  C6eq  1 3.950000e-01    2.500000e+00
 TN2ah  X1vq  1 3.950000e-01    2.700000e+00
 TN2ah  X2vq  1 3.950000e-01    2.700000e+00
 TN2ah  X3vq  1 3.950000e-01    2.940000e+00
 TN2ah  X4vq  1 3.950000e-01    3.190000e+00
 TN2ah  C1vq  1 3.950000e-01    2.310000e+00
 TN2ah  C2vq  1 3.950000e-01    2.500000e+00
 TN2ah  C3vq  1 3.950000e-01    2.700000e+00
 TN2ah  C4vq  1 3.950000e-01    2.700000e+00
 TN2ah  C5vq  1 3.950000e-01    2.700000e+00
 TN2ah  C6vq  1 3.950000e-01    2.940000e+00
 TN2ah  N1aq  1 3.950000e-01    2.500000e+00
  TN1a  N1ah  1 3.950000e-01    2.310000e+00
 TN1ah   C6v  1 3.950000e-01    2.700000e+00
 TN1ah   C5v  1 3.950000e-01    2.500000e+00
 TN1ah   C4v  1 3.950000e-01    2.500000e+00
 TN1ah   C3v  1 3.950000e-01    2.310000e+00
 TN1ah   C2v  1 3.950000e-01    2.110000e+00
 TN1ah   C1v  1 3.950000e-01    1.850000e+00
 TN1ah   X4v  1 3.950000e-01    2.500000e+00
 TN1ah   X3v  1 3.950000e-01    2.500000e+00
 TN1ah   X2v  1 3.950000e-01    2.310000e+00
 TN1ah   X1v  1 3.950000e-01    2.310000e+00
 TN1ah   C6e  1 3.950000e-01    2.310000e+00
 TN1ah   C5e  1 3.950000e-01    2.110000e+00
 TN1ah   C4e  1 3.950000e-01    2.110000e+00
 TN1ah   C3e  1 3.950000e-01    1.850000e+00
 TN1ah   C2e  1 3.950000e-01    1.670000e+00
 TN1ah   C1e  1 3.980000e-01    1.450000e+00
 TN1ah   X4e  1 3.950000e-01    2.110000e+00
 TN1ah   X3e  1 3.950000e-01    2.110000e+00
 TN1ah   X2e  1 3.950000e-01    1.850000e+00
 TN1ah   X1e  1 3.950000e-01    1.850000e+00
  TP6q  N1ah  1 3.950000e-01    2.110000e+00
  TP5q  N1ah  1 3.950000e-01    2.110000e+00
  TP4q  N1ah  1 3.950000e-01    2.310000e+00
  TP3q  N1ah  1 3.950000e-01    2.500000e+00
  TP2q  N1ah  1 3.950000e-01    2.700000e+00
  TP1q  N1ah  1 3.950000e-01    2.700000e+00
  TN6q  N1ah  1 3.950000e-01    2.700000e+00
  TN5q  N1ah  1 3.950000e-01    2.700000e+00
  TN4q  N1ah  1 3.950000e-01    2.700000e+00
  TN3q  N1ah  1 3.950000e-01    2.700000e+00
  TN2q  N1ah  1 3.950000e-01    2.700000e+00
  TN1q  N1ah  1 3.950000e-01    2.940000e+00
 TN1ah   C6q  1 3.950000e-01    2.940000e+00
 TN1ah   C5q  1 3.950000e-01    2.700000e+00
 TN1ah   C4q  1 3.950000e-01    2.700000e+00
 TN1ah   C3q  1 3.950000e-01    2.500000e+00
 TN1ah   C2q  1 3.950000e-01    2.310000e+00
 TN1ah   C1q  1 3.950000e-01    2.110000e+00
 TN1ah   X4q  1 3.950000e-01    2.700000e+00
 TN1ah   X3q  1 3.950000e-01    2.700000e+00
 TN1ah   X2q  1 3.950000e-01    2.500000e+00
 TN1ah   X1q  1 3.950000e-01    2.500000e+00
 TP6dq  N1ah  1 3.950000e-01    2.110000e+00
 TP5dq  N1ah  1 3.950000e-01    2.110000e+00
 TP4dq  N1ah  1 3.950000e-01    2.310000e+00
 TP3dq  N1ah  1 3.950000e-01    2.500000e+00
 TP2dq  N1ah  1 3.950000e-01    2.940000e+00
 TP1dq  N1ah  1 3.950000e-01    2.940000e+00
 TN6dq  N1ah  1 3.950000e-01    2.940000e+00
 TN5dq  N1ah  1 3.950000e-01    2.940000e+00
 TN4dq  N1ah  1 3.950000e-01    2.940000e+00
 TN3dq  N1ah  1 3.950000e-01    2.940000e+00
 TN2dq  N1ah  1 3.950000e-01    2.940000e+00
 TN1dq  N1ah  1 3.950000e-01    3.190000e+00
 TP6aq  N1ah  1 3.950000e-01    2.110000e+00
 TP5aq  N1ah  1 3.950000e-01    2.110000e+00
 TP4aq  N1ah  1 3.950000e-01    2.310000e+00
 TP3aq  N1ah  1 3.950000e-01    2.500000e+00
 TP2aq  N1ah  1 3.950000e-01    2.500000e+00
 TP1aq  N1ah  1 3.950000e-01    2.500000e+00
 TN6aq  N1ah  1 3.950000e-01    2.500000e+00
 TN5aq  N1ah  1 3.950000e-01    2.500000e+00
 TN4aq  N1ah  1 3.950000e-01    2.500000e+00
 TN3aq  N1ah  1 3.950000e-01    2.500000e+00
 TN2aq  N1ah  1 3.950000e-01    2.500000e+00
 TN1ah  N1aq  1 3.950000e-01    2.700000e+00
 TN1ah  X1eq  1 3.950000e-01    2.310000e+00
 TN1ah  X2eq  1 3.950000e-01    2.310000e+00
 TN1ah  X3eq  1 3.950000e-01    2.500000e+00
 TN1ah  X4eq  1 3.950000e-01    2.500000e+00
 TN1ah  C1eq  1 3.950000e-01    1.850000e+00
 TN1ah  C2eq  1 3.950000e-01    2.110000e+00
 TN1ah  C3eq  1 3.950000e-01    2.310000e+00
 TN1ah  C4eq  1 3.950000e-01    2.500000e+00
 TN1ah  C5eq  1 3.950000e-01    2.500000e+00
 TN1ah  C6eq  1 3.950000e-01    2.700000e+00
 TN1ah  X1vq  1 3.950000e-01    2.700000e+00
 TN1ah  X2vq  1 3.950000e-01    2.700000e+00
 TN1ah  X3vq  1 3.950000e-01    2.940000e+00
 TN1ah  X4vq  1 3.950000e-01    2.940000e+00
 TN1ah  C1vq  1 3.950000e-01    2.310000e+00
 TN1ah  C2vq  1 3.950000e-01    2.500000e+00
 TN1ah  C3vq  1 3.950000e-01    2.700000e+00
 TN1ah  C4vq  1 3.950000e-01    2.940000e+00
 TN1ah  C5vq  1 3.950000e-01    2.940000e+00
 TN1ah  C6vq  1 3.950000e-01    3.190000e+00
  TC6v  C6vh  1 3.950000e-01    2.310000e+00
 TC6vh   C5v  1 3.950000e-01    2.110000e+00
 TC6vh   C4v  1 3.950000e-01    2.110000e+00
 TC6vh   C3v  1 3.950000e-01    1.850000e+00
 TC6vh   C2v  1 3.950000e-01    1.670000e+00
 TC6vh   C1v  1 3.980000e-01    1.450000e+00
 TC6vh   X4v  1 3.950000e-01    2.110000e+00
 TC6vh   X3v  1 3.950000e-01    2.110000e+00
 TC6vh   X2v  1 3.950000e-01    2.110000e+00
 TC6vh   X1v  1 3.950000e-01    2.110000e+00
 TC6vh   C6e  1 3.950000e-01    2.940000e+00
 TC6vh   C5e  1 3.950000e-01    2.700000e+00
 TC6vh   C4e  1 3.950000e-01    2.700000e+00
 TC6vh   C3e  1 3.950000e-01    2.500000e+00
 TC6vh   C2e  1 3.950000e-01    2.310000e+00
 TC6vh   C1e  1 3.950000e-01    2.110000e+00
 TC6vh   X4e  1 3.950000e-01    2.700000e+00
 TC6vh   X3e  1 3.950000e-01    2.700000e+00
 TC6vh   X2e  1 3.950000e-01    2.700000e+00
 TC6vh   X1e  1 3.950000e-01    2.700000e+00
  TP6q  C6vh  1 3.950000e-01    2.310000e+00
  TP5q  C6vh  1 3.950000e-01    2.310000e+00
  TP4q  C6vh  1 3.950000e-01    2.500000e+00
  TP3q  C6vh  1 3.950000e-01    2.700000e+00
  TP2q  C6vh  1 3.950000e-01    2.700000e+00
  TP1q  C6vh  1 3.950000e-01    2.700000e+00
  TN6q  C6vh  1 3.950000e-01    2.940000e+00
  TN5q  C6vh  1 3.950000e-01    2.940000e+00
  TN4q  C6vh  1 3.950000e-01    2.940000e+00
  TN3q  C6vh  1 3.950000e-01    2.940000e+00
  TN2q  C6vh  1 3.950000e-01    2.940000e+00
  TN1q  C6vh  1 3.950000e-01    3.190000e+00
  TC6q  C6vh  1 3.950000e-01    3.190000e+00
 TC6vh   C5q  1 3.950000e-01    2.940000e+00
 TC6vh   C4q  1 3.950000e-01    2.940000e+00
 TC6vh   C3q  1 3.950000e-01    2.700000e+00
 TC6vh   C2q  1 3.950000e-01    2.500000e+00
 TC6vh   C1q  1 3.950000e-01    2.310000e+00
 TC6vh   X4q  1 3.950000e-01    2.940000e+00
 TC6vh   X3q  1 3.950000e-01    2.940000e+00
 TC6vh   X2q  1 3.950000e-01    2.940000e+00
 TC6vh   X1q  1 3.950000e-01    2.940000e+00
 TP6dq  C6vh  1 3.950000e-01    1.850000e+00
 TP5dq  C6vh  1 3.950000e-01    1.850000e+00
 TP4dq  C6vh  1 3.950000e-01    2.110000e+00
 TP3dq  C6vh  1 3.950000e-01    2.310000e+00
 TP2dq  C6vh  1 3.950000e-01    2.310000e+00
 TP1dq  C6vh  1 3.950000e-01    2.310000e+00
 TN6dq  C6vh  1 3.950000e-01    2.500000e+00
 TN5dq  C6vh  1 3.950000e-01    2.500000e+00
 TN4dq  C6vh  1 3.950000e-01    2.500000e+00
 TN3dq  C6vh  1 3.950000e-01    2.500000e+00
 TN2dq  C6vh  1 3.950000e-01    2.500000e+00
 TN1dq  C6vh  1 3.950000e-01    2.700000e+00
 TP6aq  C6vh  1 3.950000e-01    2.310000e+00
 TP5aq  C6vh  1 3.950000e-01    2.310000e+00
 TP4aq  C6vh  1 3.950000e-01    2.500000e+00
 TP3aq  C6vh  1 3.950000e-01    2.700000e+00
 TP2aq  C6vh  1 3.950000e-01    2.700000e+00
 TP1aq  C6vh  1 3.950000e-01    2.700000e+00
 TN6aq  C6vh  1 3.950000e-01    2.940000e+00
 TN5aq  C6vh  1 3.950000e-01    2.940000e+00
 TN4aq  C6vh  1 3.950000e-01    2.940000e+00
 TN3aq  C6vh  1 3.950000e-01    2.940000e+00
 TN2aq  C6vh  1 3.950000e-01    2.940000e+00
 TN1aq  C6vh  1 3.950000e-01    3.190000e+00
 TC6vh  C6vq  1 3.950000e-01    2.700000e+00
 TC6vh  X1eq  1 3.950000e-01    3.190000e+00
 TC6vh  X2eq  1 3.950000e-01    3.190000e+00
 TC6vh  X3eq  1 3.950000e-01    3.190000e+00
 TC6vh  X4eq  1 3.950000e-01    3.190000e+00
 TC6vh  C1eq  1 3.950000e-01    2.500000e+00
 TC6vh  C2eq  1 3.950000e-01    2.700000e+00
 TC6vh  C3eq  1 3.950000e-01    2.940000e+00
 TC6vh  C4eq  1 3.950000e-01    3.190000e+00
 TC6vh  C5eq  1 3.950000e-01    3.190000e+00
 TC6vh  C6eq  1 3.950000e-01    3.430000e+00
 TC6vh  X1vq  1 3.950000e-01    2.500000e+00
 TC6vh  X2vq  1 3.950000e-01    2.500000e+00
 TC6vh  X3vq  1 3.950000e-01    2.500000e+00
 TC6vh  X4vq  1 3.950000e-01    2.500000e+00
 TC6vh  C1vq  1 3.950000e-01    1.850000e+00
 TC6vh  C2vq  1 3.950000e-01    2.110000e+00
 TC6vh  C3vq  1 3.950000e-01    2.310000e+00
 TC6vh  C4vq  1 3.950000e-01    2.500000e+00
 TC6vh  C5vq  1 3.950000e-01    2.500000e+00
  TC5v  C5vh  1 3.950000e-01    2.110000e+00
 TC5vh   C4v  1 3.950000e-01    2.110000e+00
 TC5vh   C3v  1 3.950000e-01    1.850000e+00
 TC5vh   C2v  1 3.950000e-01    1.670000e+00
 TC5vh   C1v  1 3.950000e-01    1.670000e+00
 TC5vh   X4v  1 3.950000e-01    1.850000e+00
 TC5vh   X3v  1 3.950000e-01    1.850000e+00
 TC5vh   X2v  1 3.950000e-01    1.850000e+00
 TC5vh   X1v  1 3.950000e-01    2.110000e+00
  TC6e  C5vh  1 3.950000e-01    2.700000e+00
 TC5vh   C5e  1 3.950000e-01    2.700000e+00
 TC5vh   C4e  1 3.950000e-01    2.700000e+00
 TC5vh   C3e  1 3.950000e-01    2.500000e+00
 TC5vh   C2e  1 3.950000e-01    2.310000e+00
 TC5vh   C1e  1 3.950000e-01    2.310000e+00
 TC5vh   X4e  1 3.950000e-01    2.500000e+00
 TC5vh   X3e  1 3.950000e-01    2.500000e+00
 TC5vh   X2e  1 3.950000e-01    2.500000e+00
 TC5vh   X1e  1 3.950000e-01    2.700000e+00
  TP6q  C5vh  1 3.950000e-01    2.110000e+00
  TP5q  C5vh  1 3.950000e-01    2.310000e+00
  TP4q  C5vh  1 3.950000e-01    2.310000e+00
  TP3q  C5vh  1 3.950000e-01    2.500000e+00
  TP2q  C5vh  1 3.950000e-01    2.500000e+00
  TP1q  C5vh  1 3.950000e-01    2.500000e+00
  TN6q  C5vh  1 3.950000e-01    2.700000e+00
  TN5q  C5vh  1 3.950000e-01    2.700000e+00
  TN4q  C5vh  1 3.950000e-01    2.700000e+00
  TN3q  C5vh  1 3.950000e-01    2.700000e+00
  TN2q  C5vh  1 3.950000e-01    2.700000e+00
  TN1q  C5vh  1 3.950000e-01    2.940000e+00
  TC6q  C5vh  1 3.950000e-01    2.940000e+00
  TC5q  C5vh  1 3.950000e-01    2.940000e+00
 TC5vh   C4q  1 3.950000e-01    2.940000e+00
 TC5vh   C3q  1 3.950000e-01    2.700000e+00
 TC5vh   C2q  1 3.950000e-01    2.500000e+00
 TC5vh   C1q  1 3.950000e-01    2.500000e+00
 TC5vh   X4q  1 3.950000e-01    2.700000e+00
 TC5vh   X3q  1 3.950000e-01    2.700000e+00
 TC5vh   X2q  1 3.950000e-01    2.700000e+00
 TC5vh   X1q  1 3.950000e-01    2.940000e+00
 TP6dq  C5vh  1 3.950000e-01    1.670000e+00
 TP5dq  C5vh  1 3.950000e-01    1.850000e+00
 TP4dq  C5vh  1 3.950000e-01    1.850000e+00
 TP3dq  C5vh  1 3.950000e-01    2.110000e+00
 TP2dq  C5vh  1 3.950000e-01    2.110000e+00
 TP1dq  C5vh  1 3.950000e-01    2.110000e+00
 TN6dq  C5vh  1 3.950000e-01    2.310000e+00
 TN5dq  C5vh  1 3.950000e-01    2.310000e+00
 TN4dq  C5vh  1 3.950000e-01    2.310000e+00
 TN3dq  C5vh  1 3.950000e-01    2.310000e+00
 TN2dq  C5vh  1 3.950000e-01    2.310000e+00
 TN1dq  C5vh  1 3.950000e-01    2.500000e+00
 TP6aq  C5vh  1 3.950000e-01    2.110000e+00
 TP5aq  C5vh  1 3.950000e-01    2.310000e+00
 TP4aq  C5vh  1 3.950000e-01    2.310000e+00
 TP3aq  C5vh  1 3.950000e-01    2.500000e+00
 TP2aq  C5vh  1 3.950000e-01    2.500000e+00
 TP1aq  C5vh  1 3.950000e-01    2.500000e+00
 TN6aq  C5vh  1 3.950000e-01    2.700000e+00
 TN5aq  C5vh  1 3.950000e-01    2.700000e+00
 TN4aq  C5vh  1 3.950000e-01    2.700000e+00
 TN3aq  C5vh  1 3.950000e-01    2.700000e+00
 TN2aq  C5vh  1 3.950000e-01    2.700000e+00
 TN1aq  C5vh  1 3.950000e-01    2.940000e+00
 TC6vq  C5vh  1 3.950000e-01    2.500000e+00
 TC5vh  C5vq  1 3.950000e-01    2.500000e+00
 TC5vh  X1eq  1 3.950000e-01    3.190000e+00
 TC5vh  X2eq  1 3.950000e-01    2.940000e+00
 TC5vh  X3eq  1 3.950000e-01    2.940000e+00
 TC5vh  X4eq  1 3.950000e-01    2.940000e+00
 TC5vh  C1eq  1 3.950000e-01    2.700000e+00
 TC5vh  C2eq  1 3.950000e-01    2.700000e+00
 TC5vh  C3eq  1 3.950000e-01    2.940000e+00
 TC5vh  C4eq  1 3.950000e-01    3.190000e+00
 TC5vh  C5eq  1 3.950000e-01    3.190000e+00
 TC6eq  C5vh  1 3.950000e-01    3.190000e+00
 TC5vh  X1vq  1 3.950000e-01    2.500000e+00
 TC5vh  X2vq  1 3.950000e-01    2.310000e+00
 TC5vh  X3vq  1 3.950000e-01    2.310000e+00
 TC5vh  X4vq  1 3.950000e-01    2.310000e+00
 TC5vh  C1vq  1 3.950000e-01    2.110000e+00
 TC5vh  C2vq  1 3.950000e-01    2.110000e+00
 TC5vh  C3vq  1 3.950000e-01    2.310000e+00
 TC5vh  C4vq  1 3.950000e-01    2.500000e+00
  TC4v  C4vh  1 3.950000e-01    2.110000e+00
 TC4vh   C3v  1 3.950000e-01    2.110000e+00
 TC4vh   C2v  1 3.950000e-01    1.850000e+00
 TC4vh   C1v  1 3.950000e-01    1.670000e+00
 TC4vh   X4v  1 3.950000e-01    1.850000e+00
 TC4vh   X3v  1 3.950000e-01    1.850000e+00
 TC4vh   X2v  1 3.950000e-01    1.850000e+00
 TC4vh   X1v  1 3.950000e-01    2.110000e+00
  TC6e  C4vh  1 3.950000e-01    2.700000e+00
  TC5e  C4vh  1 3.950000e-01    2.700000e+00
 TC4vh   C4e  1 3.950000e-01    2.700000e+00
 TC4vh   C3e  1 3.950000e-01    2.700000e+00
 TC4vh   C2e  1 3.950000e-01    2.500000e+00
 TC4vh   C1e  1 3.950000e-01    2.310000e+00
 TC4vh   X4e  1 3.950000e-01    2.500000e+00
 TC4vh   X3e  1 3.950000e-01    2.500000e+00
 TC4vh   X2e  1 3.950000e-01    2.500000e+00
 TC4vh   X1e  1 3.950000e-01    2.700000e+00
  TP6q  C4vh  1 3.950000e-01    1.850000e+00
  TP5q  C4vh  1 3.950000e-01    2.110000e+00
  TP4q  C4vh  1 3.950000e-01    2.110000e+00
  TP3q  C4vh  1 3.950000e-01    2.310000e+00
  TP2q  C4vh  1 3.950000e-01    2.310000e+00
  TP1q  C4vh  1 3.950000e-01    2.310000e+00
  TN6q  C4vh  1 3.950000e-01    2.500000e+00
  TN5q  C4vh  1 3.950000e-01    2.500000e+00
  TN4q  C4vh  1 3.950000e-01    2.700000e+00
  TN3q  C4vh  1 3.950000e-01    2.700000e+00
  TN2q  C4vh  1 3.950000e-01    2.700000e+00
  TN1q  C4vh  1 3.950000e-01    2.940000e+00
  TC6q  C4vh  1 3.950000e-01    2.940000e+00
  TC5q  C4vh  1 3.950000e-01    2.940000e+00
  TC4q  C4vh  1 3.950000e-01    2.940000e+00
 TC4vh   C3q  1 3.950000e-01    2.940000e+00
 TC4vh   C2q  1 3.950000e-01    2.700000e+00
 TC4vh   C1q  1 3.950000e-01    2.500000e+00
 TC4vh   X4q  1 3.950000e-01    2.700000e+00
 TC4vh   X3q  1 3.950000e-01    2.700000e+00
 TC4vh   X2q  1 3.950000e-01    2.700000e+00
 TC4vh   X1q  1 3.950000e-01    2.940000e+00
 TP6dq  C4vh  1 3.980000e-01    1.450000e+00
 TP5dq  C4vh  1 3.950000e-01    1.670000e+00
 TP4dq  C4vh  1 3.950000e-01    1.670000e+00
 TP3dq  C4vh  1 3.950000e-01    1.850000e+00
 TP2dq  C4vh  1 3.950000e-01    1.850000e+00
 TP1dq  C4vh  1 3.950000e-01    1.850000e+00
 TN6dq  C4vh  1 3.950000e-01    2.110000e+00
 TN5dq  C4vh  1 3.950000e-01    2.110000e+00
 TN4dq  C4vh  1 3.950000e-01    2.310000e+00
 TN3dq  C4vh  1 3.950000e-01    2.310000e+00
 TN2dq  C4vh  1 3.950000e-01    2.310000e+00
 TN1dq  C4vh  1 3.950000e-01    2.500000e+00
 TP6aq  C4vh  1 3.950000e-01    1.850000e+00
 TP5aq  C4vh  1 3.950000e-01    2.110000e+00
 TP4aq  C4vh  1 3.950000e-01    2.110000e+00
 TP3aq  C4vh  1 3.950000e-01    2.310000e+00
 TP2aq  C4vh  1 3.950000e-01    2.310000e+00
 TP1aq  C4vh  1 3.950000e-01    2.310000e+00
 TN6aq  C4vh  1 3.950000e-01    2.500000e+00
 TN5aq  C4vh  1 3.950000e-01    2.500000e+00
 TN4aq  C4vh  1 3.950000e-01    2.700000e+00
 TN3aq  C4vh  1 3.950000e-01    2.700000e+00
 TN2aq  C4vh  1 3.950000e-01    2.700000e+00
 TN1aq  C4vh  1 3.950000e-01    2.940000e+00
 TC6vq  C4vh  1 3.950000e-01    2.500000e+00
 TC5vq  C4vh  1 3.950000e-01    2.500000e+00
 TC4vh  C4vq  1 3.950000e-01    2.500000e+00
 TC4vh  X1eq  1 3.950000e-01    3.190000e+00
 TC4vh  X2eq  1 3.950000e-01    2.940000e+00
 TC4vh  X3eq  1 3.950000e-01    2.940000e+00
 TC4vh  X4eq  1 3.950000e-01    2.940000e+00
 TC4vh  C1eq  1 3.950000e-01    2.700000e+00
 TC4vh  C2eq  1 3.950000e-01    2.940000e+00
 TC4vh  C3eq  1 3.950000e-01    3.190000e+00
 TC4vh  C4eq  1 3.950000e-01    3.190000e+00
 TC5eq  C4vh  1 3.950000e-01    3.190000e+00
 TC6eq  C4vh  1 3.950000e-01    3.190000e+00
 TC4vh  X1vq  1 3.950000e-01    2.500000e+00
 TC4vh  X2vq  1 3.950000e-01    2.310000e+00
 TC4vh  X3vq  1 3.950000e-01    2.310000e+00
 TC4vh  X4vq  1 3.950000e-01    2.310000e+00
 TC4vh  C1vq  1 3.950000e-01    2.110000e+00
 TC4vh  C2vq  1 3.950000e-01    2.310000e+00
 TC4vh  C3vq  1 3.950000e-01    2.500000e+00
  TC3v  C3vh  1 3.950000e-01    2.110000e+00
 TC3vh   C2v  1 3.950000e-01    2.110000e+00
 TC3vh   C1v  1 3.950000e-01    2.110000e+00
 TC3vh   X4v  1 3.950000e-01    1.850000e+00
 TC3vh   X3v  1 3.950000e-01    1.850000e+00
 TC3vh   X2v  1 3.950000e-01    1.850000e+00
 TC3vh   X1v  1 3.950000e-01    2.110000e+00
  TC6e  C3vh  1 3.950000e-01    2.500000e+00
  TC5e  C3vh  1 3.950000e-01    2.500000e+00
  TC4e  C3vh  1 3.950000e-01    2.700000e+00
 TC3vh   C3e  1 3.950000e-01    2.700000e+00
 TC3vh   C2e  1 3.950000e-01    2.700000e+00
 TC3vh   C1e  1 3.950000e-01    2.700000e+00
 TC3vh   X4e  1 3.950000e-01    2.500000e+00
 TC3vh   X3e  1 3.950000e-01    2.500000e+00
 TC3vh   X2e  1 3.950000e-01    2.500000e+00
 TC3vh   X1e  1 3.950000e-01    2.700000e+00
  TP6q  C3vh  1 3.950000e-01    1.670000e+00
  TP5q  C3vh  1 3.950000e-01    1.850000e+00
  TP4q  C3vh  1 3.950000e-01    1.850000e+00
  TP3q  C3vh  1 3.950000e-01    1.850000e+00
  TP2q  C3vh  1 3.950000e-01    2.110000e+00
  TP1q  C3vh  1 3.950000e-01    2.110000e+00
  TN6q  C3vh  1 3.950000e-01    2.310000e+00
  TN5q  C3vh  1 3.950000e-01    2.500000e+00
  TN4q  C3vh  1 3.950000e-01    2.500000e+00
  TN3q  C3vh  1 3.950000e-01    2.500000e+00
  TN2q  C3vh  1 3.950000e-01    2.700000e+00
  TN1q  C3vh  1 3.950000e-01    2.700000e+00
  TC6q  C3vh  1 3.950000e-01    2.700000e+00
  TC5q  C3vh  1 3.950000e-01    2.700000e+00
  TC4q  C3vh  1 3.950000e-01    2.940000e+00
  TC3q  C3vh  1 3.950000e-01    2.940000e+00
 TC3vh   C2q  1 3.950000e-01    2.940000e+00
 TC3vh   C1q  1 3.950000e-01    2.940000e+00
 TC3vh   X4q  1 3.950000e-01    2.700000e+00
 TC3vh   X3q  1 3.950000e-01    2.700000e+00
 TC3vh   X2q  1 3.950000e-01    2.700000e+00
 TC3vh   X1q  1 3.950000e-01    2.940000e+00
 TP6dq  C3vh  1 3.990000e-01    1.180000e+00
 TP5dq  C3vh  1 3.980000e-01    1.450000e+00
 TP4dq  C3vh  1 3.980000e-01    1.450000e+00
 TP3dq  C3vh  1 3.980000e-01    1.450000e+00
 TP2dq  C3vh  1 3.950000e-01    1.670000e+00
 TP1dq  C3vh  1 3.950000e-01    1.670000e+00
 TN6dq  C3vh  1 3.950000e-01    1.850000e+00
 TN5dq  C3vh  1 3.950000e-01    2.110000e+00
 TN4dq  C3vh  1 3.950000e-01    2.110000e+00
 TN3dq  C3vh  1 3.950000e-01    2.110000e+00
 TN2dq  C3vh  1 3.950000e-01    2.310000e+00
 TN1dq  C3vh  1 3.950000e-01    2.310000e+00
 TP6aq  C3vh  1 3.950000e-01    1.670000e+00
 TP5aq  C3vh  1 3.950000e-01    1.850000e+00
 TP4aq  C3vh  1 3.950000e-01    1.850000e+00
 TP3aq  C3vh  1 3.950000e-01    1.850000e+00
 TP2aq  C3vh  1 3.950000e-01    2.110000e+00
 TP1aq  C3vh  1 3.950000e-01    2.110000e+00
 TN6aq  C3vh  1 3.950000e-01    2.310000e+00
 TN5aq  C3vh  1 3.950000e-01    2.500000e+00
 TN4aq  C3vh  1 3.950000e-01    2.500000e+00
 TN3aq  C3vh  1 3.950000e-01    2.500000e+00
 TN2aq  C3vh  1 3.950000e-01    2.700000e+00
 TN1aq  C3vh  1 3.950000e-01    2.700000e+00
 TC6vq  C3vh  1 3.950000e-01    2.310000e+00
 TC5vq  C3vh  1 3.950000e-01    2.310000e+00
 TC4vq  C3vh  1 3.950000e-01    2.500000e+00
 TC3vh  C3vq  1 3.950000e-01    2.500000e+00
 TC3vh  X1eq  1 3.950000e-01    3.190000e+00
 TC3vh  X2eq  1 3.950000e-01    2.940000e+00
 TC3vh  X3eq  1 3.950000e-01    2.940000e+00
 TC3vh  X4eq  1 3.950000e-01    2.940000e+00
 TC3vh  C1eq  1 3.950000e-01    3.190000e+00
 TC3vh  C2eq  1 3.950000e-01    3.190000e+00
 TC3vh  C3eq  1 3.950000e-01    3.190000e+00
 TC4eq  C3vh  1 3.950000e-01    3.190000e+00
 TC5eq  C3vh  1 3.950000e-01    2.940000e+00
 TC6eq  C3vh  1 3.950000e-01    2.940000e+00
 TC3vh  X1vq  1 3.950000e-01    2.500000e+00
 TC3vh  X2vq  1 3.950000e-01    2.310000e+00
 TC3vh  X3vq  1 3.950000e-01    2.310000e+00
 TC3vh  X4vq  1 3.950000e-01    2.310000e+00
 TC3vh  C1vq  1 3.950000e-01    2.500000e+00
 TC3vh  C2vq  1 3.950000e-01    2.500000e+00
  TC2v  C2vh  1 3.950000e-01    2.110000e+00
 TC2vh   C1v  1 3.950000e-01    2.310000e+00
 TC2vh   X4v  1 3.980000e-01    1.450000e+00
 TC2vh   X3v  1 3.950000e-01    1.850000e+00
 TC2vh   X2v  1 3.950000e-01    1.850000e+00
 TC2vh   X1v  1 3.950000e-01    1.850000e+00
  TC6e  C2vh  1 3.950000e-01    2.310000e+00
  TC5e  C2vh  1 3.950000e-01    2.310000e+00
  TC4e  C2vh  1 3.950000e-01    2.500000e+00
  TC3e  C2vh  1 3.950000e-01    2.700000e+00
 TC2vh   C2e  1 3.950000e-01    2.700000e+00
 TC2vh   C1e  1 3.950000e-01    2.940000e+00
 TC2vh   X4e  1 3.950000e-01    2.110000e+00
 TC2vh   X3e  1 3.950000e-01    2.500000e+00
 TC2vh   X2e  1 3.950000e-01    2.500000e+00
 TC2vh   X1e  1 3.950000e-01    2.500000e+00
  TP6q  C2vh  1 3.950000e-01    1.670000e+00
  TP5q  C2vh  1 3.950000e-01    1.850000e+00
  TP4q  C2vh  1 3.950000e-01    1.850000e+00
  TP3q  C2vh  1 3.950000e-01    1.850000e+00
  TP2q  C2vh  1 3.950000e-01    2.110000e+00
  TP1q  C2vh  1 3.950000e-01    2.110000e+00
  TN6q  C2vh  1 3.950000e-01    2.310000e+00
  TN5q  C2vh  1 3.950000e-01    2.310000e+00
  TN4q  C2vh  1 3.950000e-01    2.310000e+00
  TN3q  C2vh  1 3.950000e-01    2.500000e+00
  TN2q  C2vh  1 3.950000e-01    2.500000e+00
  TN1q  C2vh  1 3.950000e-01    2.500000e+00
  TC6q  C2vh  1 3.950000e-01    2.500000e+00
  TC5q  C2vh  1 3.950000e-01    2.500000e+00
  TC4q  C2vh  1 3.950000e-01    2.700000e+00
  TC3q  C2vh  1 3.950000e-01    2.940000e+00
  TC2q  C2vh  1 3.950000e-01    2.940000e+00
 TC2vh   C1q  1 3.950000e-01    3.190000e+00
 TC2vh   X4q  1 3.950000e-01    2.310000e+00
 TC2vh   X3q  1 3.950000e-01    2.700000e+00
 TC2vh   X2q  1 3.950000e-01    2.700000e+00
 TC2vh   X1q  1 3.950000e-01    2.700000e+00
 TP6dq  C2vh  1 3.990000e-01    1.180000e+00
 TP5dq  C2vh  1 3.980000e-01    1.450000e+00
 TP4dq  C2vh  1 3.980000e-01    1.450000e+00
 TP3dq  C2vh  1 3.980000e-01    1.450000e+00
 TP2dq  C2vh  1 3.950000e-01    1.670000e+00
 TP1dq  C2vh  1 3.950000e-01    1.670000e+00
 TN6dq  C2vh  1 3.950000e-01    1.850000e+00
 TN5dq  C2vh  1 3.950000e-01    1.850000e+00
 TN4dq  C2vh  1 3.950000e-01    1.850000e+00
 TN3dq  C2vh  1 3.950000e-01    2.110000e+00
 TN2dq  C2vh  1 3.950000e-01    2.110000e+00
 TN1dq  C2vh  1 3.950000e-01    2.110000e+00
 TP6aq  C2vh  1 3.950000e-01    1.670000e+00
 TP5aq  C2vh  1 3.950000e-01    1.850000e+00
 TP4aq  C2vh  1 3.950000e-01    1.850000e+00
 TP3aq  C2vh  1 3.950000e-01    1.850000e+00
 TP2aq  C2vh  1 3.950000e-01    2.110000e+00
 TP1aq  C2vh  1 3.950000e-01    2.110000e+00
 TN6aq  C2vh  1 3.950000e-01    2.310000e+00
 TN5aq  C2vh  1 3.950000e-01    2.310000e+00
 TN4aq  C2vh  1 3.950000e-01    2.310000e+00
 TN3aq  C2vh  1 3.950000e-01    2.500000e+00
 TN2aq  C2vh  1 3.950000e-01    2.500000e+00
 TN1aq  C2vh  1 3.950000e-01    2.500000e+00
 TC6vq  C2vh  1 3.950000e-01    2.110000e+00
 TC5vq  C2vh  1 3.950000e-01    2.110000e+00
 TC4vq  C2vh  1 3.950000e-01    2.310000e+00
 TC3vq  C2vh  1 3.950000e-01    2.500000e+00
 TC2vh  C2vq  1 3.950000e-01    2.500000e+00
 TC2vh  X1eq  1 3.950000e-01    2.940000e+00
 TC2vh  X2eq  1 3.950000e-01    2.940000e+00
 TC2vh  X3eq  1 3.950000e-01    2.940000e+00
 TC2vh  X4eq  1 3.950000e-01    2.500000e+00
 TC2vh  C1eq  1 3.950000e-01    3.430000e+00
 TC2vh  C2eq  1 3.950000e-01    3.190000e+00
 TC3eq  C2vh  1 3.950000e-01    3.190000e+00
 TC4eq  C2vh  1 3.950000e-01    2.940000e+00
 TC5eq  C2vh  1 3.950000e-01    2.700000e+00
 TC6eq  C2vh  1 3.950000e-01    2.700000e+00
 TC2vh  X1vq  1 3.950000e-01    2.310000e+00
 TC2vh  X2vq  1 3.950000e-01    2.310000e+00
 TC2vh  X3vq  1 3.950000e-01    2.310000e+00
 TC2vh  X4vq  1 3.950000e-01    1.850000e+00
 TC2vh  C1vq  1 3.950000e-01    2.700000e+00
  TC1v  C1vh  1 3.950000e-01    2.110000e+00
 TC1vh   X4v  1 3.980000e-01    1.450000e+00
 TC1vh   X3v  1 3.950000e-01    1.850000e+00
 TC1vh   X2v  1 3.950000e-01    1.850000e+00
 TC1vh   X1v  1 3.950000e-01    1.850000e+00
  TC6e  C1vh  1 3.950000e-01    2.110000e+00
  TC5e  C1vh  1 3.950000e-01    2.310000e+00
  TC4e  C1vh  1 3.950000e-01    2.310000e+00
  TC3e  C1vh  1 3.950000e-01    2.700000e+00
  TC2e  C1vh  1 3.950000e-01    2.940000e+00
 TC1vh   C1e  1 3.950000e-01    2.700000e+00
 TC1vh   X4e  1 3.950000e-01    2.110000e+00
 TC1vh   X3e  1 3.950000e-01    2.500000e+00
 TC1vh   X2e  1 3.950000e-01    2.500000e+00
 TC1vh   X1e  1 3.950000e-01    2.500000e+00
  TP6q  C1vh  1 3.990000e-01    1.180000e+00
  TP5q  C1vh  1 3.950000e-01    1.670000e+00
  TP4q  C1vh  1 3.950000e-01    1.670000e+00
  TP3q  C1vh  1 3.950000e-01    1.670000e+00
  TP2q  C1vh  1 3.950000e-01    1.850000e+00
  TP1q  C1vh  1 3.950000e-01    1.850000e+00
  TN6q  C1vh  1 3.950000e-01    2.110000e+00
  TN5q  C1vh  1 3.950000e-01    2.110000e+00
  TN4q  C1vh  1 3.950000e-01    2.110000e+00
  TN3q  C1vh  1 3.950000e-01    2.310000e+00
  TN2q  C1vh  1 3.950000e-01    2.310000e+00
  TN1q  C1vh  1 3.950000e-01    2.310000e+00
  TC6q  C1vh  1 3.950000e-01    2.310000e+00
  TC5q  C1vh  1 3.950000e-01    2.500000e+00
  TC4q  C1vh  1 3.950000e-01    2.500000e+00
  TC3q  C1vh  1 3.950000e-01    2.940000e+00
  TC2q  C1vh  1 3.950000e-01    3.190000e+00
  TC1q  C1vh  1 3.950000e-01    2.940000e+00
 TC1vh   X4q  1 3.950000e-01    2.310000e+00
 TC1vh   X3q  1 3.950000e-01    2.700000e+00
 TC1vh   X2q  1 3.950000e-01    2.700000e+00
 TC1vh   X1q  1 3.950000e-01    2.700000e+00
 TP6dq  C1vh  1 4.040000e-01    8.300000e-01
 TP5dq  C1vh  1 3.990000e-01    1.180000e+00
 TP4dq  C1vh  1 3.990000e-01    1.180000e+00
 TP3dq  C1vh  1 3.990000e-01    1.180000e+00
 TP2dq  C1vh  1 3.980000e-01    1.450000e+00
 TP1dq  C1vh  1 3.980000e-01    1.450000e+00
 TN6dq  C1vh  1 3.950000e-01    1.670000e+00
 TN5dq  C1vh  1 3.950000e-01    1.670000e+00
 TN4dq  C1vh  1 3.950000e-01    1.670000e+00
 TN3dq  C1vh  1 3.950000e-01    1.850000e+00
 TN2dq  C1vh  1 3.950000e-01    1.850000e+00
 TN1dq  C1vh  1 3.950000e-01    1.850000e+00
 TP6aq  C1vh  1 3.990000e-01    1.180000e+00
 TP5aq  C1vh  1 3.950000e-01    1.670000e+00
 TP4aq  C1vh  1 3.950000e-01    1.670000e+00
 TP3aq  C1vh  1 3.950000e-01    1.670000e+00
 TP2aq  C1vh  1 3.950000e-01    1.850000e+00
 TP1aq  C1vh  1 3.950000e-01    1.850000e+00
 TN6aq  C1vh  1 3.950000e-01    2.110000e+00
 TN5aq  C1vh  1 3.950000e-01    2.110000e+00
 TN4aq  C1vh  1 3.950000e-01    2.110000e+00
 TN3aq  C1vh  1 3.950000e-01    2.310000e+00
 TN2aq  C1vh  1 3.950000e-01    2.310000e+00
 TN1aq  C1vh  1 3.950000e-01    2.310000e+00
 TC6vq  C1vh  1 3.950000e-01    1.850000e+00
 TC5vq  C1vh  1 3.950000e-01    2.110000e+00
 TC4vq  C1vh  1 3.950000e-01    2.110000e+00
 TC3vq  C1vh  1 3.950000e-01    2.500000e+00
 TC2vq  C1vh  1 3.950000e-01    2.700000e+00
 TC1vh  C1vq  1 3.950000e-01    2.500000e+00
 TC1vh  X1eq  1 3.950000e-01    2.940000e+00
 TC1vh  X2eq  1 3.950000e-01    2.940000e+00
 TC1vh  X3eq  1 3.950000e-01    2.940000e+00
 TC1vh  X4eq  1 3.950000e-01    2.500000e+00
 TC1vh  C1eq  1 3.950000e-01    3.190000e+00
 TC2eq  C1vh  1 3.950000e-01    3.430000e+00
 TC3eq  C1vh  1 3.950000e-01    3.190000e+00
 TC4eq  C1vh  1 3.950000e-01    2.700000e+00
 TC5eq  C1vh  1 3.950000e-01    2.700000e+00
 TC6eq  C1vh  1 3.950000e-01    2.500000e+00
 TC1vh  X1vq  1 3.950000e-01    2.310000e+00
 TC1vh  X2vq  1 3.950000e-01    2.310000e+00
 TC1vh  X3vq  1 3.950000e-01    2.310000e+00
 TC1vh  X4vq  1 3.950000e-01    1.850000e+00
  TX4v  X4vh  1 3.950000e-01    2.110000e+00
 TX4vh   X3v  1 3.950000e-01    2.110000e+00
 TX4vh   X2v  1 3.950000e-01    2.110000e+00
 TX4vh   X1v  1 3.950000e-01    2.110000e+00
  TC6e  X4vh  1 3.950000e-01    2.700000e+00
  TC5e  X4vh  1 3.950000e-01    2.500000e+00
  TC4e  X4vh  1 3.950000e-01    2.500000e+00
  TC3e  X4vh  1 3.950000e-01    2.500000e+00
  TC2e  X4vh  1 3.950000e-01    2.110000e+00
  TC1e  X4vh  1 3.950000e-01    2.110000e+00
 TX4vh   X4e  1 3.950000e-01    2.700000e+00
 TX4vh   X3e  1 3.950000e-01    2.700000e+00
 TX4vh   X2e  1 3.950000e-01    2.700000e+00
 TX4vh   X1e  1 3.950000e-01    2.700000e+00
  TP6q  X4vh  1 3.950000e-01    2.500000e+00
  TP5q  X4vh  1 3.950000e-01    2.700000e+00
  TP4q  X4vh  1 3.950000e-01    2.700000e+00
  TP3q  X4vh  1 3.950000e-01    2.700000e+00
  TP2q  X4vh  1 3.950000e-01    2.700000e+00
  TP1q  X4vh  1 3.950000e-01    2.700000e+00
  TN6q  X4vh  1 3.950000e-01    2.940000e+00
  TN5q  X4vh  1 3.950000e-01    3.190000e+00
  TN4q  X4vh  1 3.950000e-01    3.430000e+00
  TN3q  X4vh  1 3.950000e-01    3.190000e+00
  TN2q  X4vh  1 3.950000e-01    3.190000e+00
  TN1q  X4vh  1 3.950000e-01    2.940000e+00
  TC6q  X4vh  1 3.950000e-01    2.940000e+00
  TC5q  X4vh  1 3.950000e-01    2.700000e+00
  TC4q  X4vh  1 3.950000e-01    2.700000e+00
  TC3q  X4vh  1 3.950000e-01    2.700000e+00
  TC2q  X4vh  1 3.950000e-01    2.310000e+00
  TC1q  X4vh  1 3.950000e-01    2.310000e+00
  TX4q  X4vh  1 3.950000e-01    2.940000e+00
 TX4vh   X3q  1 3.950000e-01    2.940000e+00
 TX4vh   X2q  1 3.950000e-01    2.940000e+00
 TX4vh   X1q  1 3.950000e-01    2.940000e+00
 TP6dq  X4vh  1 3.950000e-01    2.110000e+00
 TP5dq  X4vh  1 3.950000e-01    2.310000e+00
 TP4dq  X4vh  1 3.950000e-01    2.310000e+00
 TP3dq  X4vh  1 3.950000e-01    2.310000e+00
 TP2dq  X4vh  1 3.950000e-01    2.310000e+00
 TP1dq  X4vh  1 3.950000e-01    2.310000e+00
 TN6dq  X4vh  1 3.950000e-01    2.500000e+00
 TN5dq  X4vh  1 3.950000e-01    2.700000e+00
 TN4dq  X4vh  1 3.950000e-01    2.940000e+00
 TN3dq  X4vh  1 3.950000e-01    2.700000e+00
 TN2dq  X4vh  1 3.950000e-01    2.700000e+00
 TN1dq  X4vh  1 3.950000e-01    2.500000e+00
 TP6aq  X4vh  1 3.950000e-01    2.500000e+00
 TP5aq  X4vh  1 3.950000e-01    2.700000e+00
 TP4aq  X4vh  1 3.950000e-01    2.700000e+00
 TP3aq  X4vh  1 3.950000e-01    2.700000e+00
 TP2aq  X4vh  1 3.950000e-01    2.700000e+00
 TP1aq  X4vh  1 3.950000e-01    2.700000e+00
 TN6aq  X4vh  1 3.950000e-01    2.940000e+00
 TN5aq  X4vh  1 3.950000e-01    3.190000e+00
 TN4aq  X4vh  1 3.950000e-01    3.430000e+00
 TN3aq  X4vh  1 3.950000e-01    3.190000e+00
 TN2aq  X4vh  1 3.950000e-01    3.190000e+00
 TN1aq  X4vh  1 3.950000e-01    2.940000e+00
 TC6vq  X4vh  1 3.950000e-01    2.500000e+00
 TC5vq  X4vh  1 3.950000e-01    2.310000e+00
 TC4vq  X4vh  1 3.950000e-01    2.310000e+00
 TC3vq  X4vh  1 3.950000e-01    2.310000e+00
 TC2vq  X4vh  1 3.950000e-01    1.850000e+00
 TC1vq  X4vh  1 3.950000e-01    1.850000e+00
 TX4vh  X4vq  1 3.950000e-01    2.500000e+00
 TX4vh  X1eq  1 3.950000e-01    3.190000e+00
 TX4vh  X2eq  1 3.950000e-01    3.190000e+00
 TX4vh  X3eq  1 3.950000e-01    3.190000e+00
 TX4vh  X4eq  1 3.950000e-01    3.190000e+00
 TC1eq  X4vh  1 3.950000e-01    2.500000e+00
 TC2eq  X4vh  1 3.950000e-01    2.500000e+00
 TC3eq  X4vh  1 3.950000e-01    2.940000e+00
 TC4eq  X4vh  1 3.950000e-01    2.940000e+00
 TC5eq  X4vh  1 3.950000e-01    2.940000e+00
 TC6eq  X4vh  1 3.950000e-01    3.190000e+00
 TX4vh  X1vq  1 3.950000e-01    2.500000e+00
 TX4vh  X2vq  1 3.950000e-01    2.500000e+00
 TX4vh  X3vq  1 3.950000e-01    2.500000e+00
  TX3v  X3vh  1 3.950000e-01    2.110000e+00
 TX3vh   X2v  1 3.950000e-01    2.310000e+00
 TX3vh   X1v  1 3.950000e-01    2.310000e+00
  TC6e  X3vh  1 3.950000e-01    2.700000e+00
  TC5e  X3vh  1 3.950000e-01    2.500000e+00
  TC4e  X3vh  1 3.950000e-01    2.500000e+00
  TC3e  X3vh  1 3.950000e-01    2.500000e+00
  TC2e  X3vh  1 3.950000e-01    2.500000e+00
  TC1e  X3vh  1 3.950000e-01    2.500000e+00
  TX4e  X3vh  1 3.950000e-01    2.700000e+00
 TX3vh   X3e  1 3.950000e-01    2.700000e+00
 TX3vh   X2e  1 3.950000e-01    2.940000e+00
 TX3vh   X1e  1 3.950000e-01    2.940000e+00
  TP6q  X3vh  1 3.950000e-01    2.500000e+00
  TP5q  X3vh  1 3.950000e-01    2.500000e+00
  TP4q  X3vh  1 3.950000e-01    2.500000e+00
  TP3q  X3vh  1 3.950000e-01    2.700000e+00
  TP2q  X3vh  1 3.950000e-01    2.700000e+00
  TP1q  X3vh  1 3.950000e-01    2.700000e+00
  TN6q  X3vh  1 3.950000e-01    2.700000e+00
  TN5q  X3vh  1 3.950000e-01    2.940000e+00
  TN4q  X3vh  1 3.950000e-01    3.190000e+00
  TN3q  X3vh  1 3.950000e-01    2.940000e+00
  TN2q  X3vh  1 3.950000e-01    2.940000e+00
  TN1q  X3vh  1 3.950000e-01    2.940000e+00
  TC6q  X3vh  1 3.950000e-01    2.940000e+00
  TC5q  X3vh  1 3.950000e-01    2.700000e+00
  TC4q  X3vh  1 3.950000e-01    2.700000e+00
  TC3q  X3vh  1 3.950000e-01    2.700000e+00
  TC2q  X3vh  1 3.950000e-01    2.700000e+00
  TC1q  X3vh  1 3.950000e-01    2.700000e+00
  TX4q  X3vh  1 3.950000e-01    2.940000e+00
  TX3q  X3vh  1 3.950000e-01    2.940000e+00
 TX3vh   X2q  1 3.950000e-01    3.190000e+00
 TX3vh   X1q  1 3.950000e-01    3.190000e+00
 TP6dq  X3vh  1 3.950000e-01    2.110000e+00
 TP5dq  X3vh  1 3.950000e-01    2.110000e+00
 TP4dq  X3vh  1 3.950000e-01    2.110000e+00
 TP3dq  X3vh  1 3.950000e-01    2.310000e+00
 TP2dq  X3vh  1 3.950000e-01    2.310000e+00
 TP1dq  X3vh  1 3.950000e-01    2.310000e+00
 TN6dq  X3vh  1 3.950000e-01    2.310000e+00
 TN5dq  X3vh  1 3.950000e-01    2.500000e+00
 TN4dq  X3vh  1 3.950000e-01    2.700000e+00
 TN3dq  X3vh  1 3.950000e-01    2.500000e+00
 TN2dq  X3vh  1 3.950000e-01    2.500000e+00
 TN1dq  X3vh  1 3.950000e-01    2.500000e+00
 TP6aq  X3vh  1 3.950000e-01    2.500000e+00
 TP5aq  X3vh  1 3.950000e-01    2.500000e+00
 TP4aq  X3vh  1 3.950000e-01    2.500000e+00
 TP3aq  X3vh  1 3.950000e-01    2.700000e+00
 TP2aq  X3vh  1 3.950000e-01    2.700000e+00
 TP1aq  X3vh  1 3.950000e-01    2.700000e+00
 TN6aq  X3vh  1 3.950000e-01    2.700000e+00
 TN5aq  X3vh  1 3.950000e-01    2.940000e+00
 TN4aq  X3vh  1 3.950000e-01    3.190000e+00
 TN3aq  X3vh  1 3.950000e-01    2.940000e+00
 TN2aq  X3vh  1 3.950000e-01    2.940000e+00
 TN1aq  X3vh  1 3.950000e-01    2.940000e+00
 TC6vq  X3vh  1 3.950000e-01    2.500000e+00
 TC5vq  X3vh  1 3.950000e-01    2.310000e+00
 TC4vq  X3vh  1 3.950000e-01    2.310000e+00
 TC3vq  X3vh  1 3.950000e-01    2.310000e+00
 TC2vq  X3vh  1 3.950000e-01    2.310000e+00
 TC1vq  X3vh  1 3.950000e-01    2.310000e+00
 TX4vq  X3vh  1 3.950000e-01    2.500000e+00
 TX3vh  X3vq  1 3.950000e-01    2.500000e+00
 TX3vh  X1eq  1 3.950000e-01    3.430000e+00
 TX3vh  X2eq  1 3.950000e-01    3.430000e+00
 TX3vh  X3eq  1 3.950000e-01    3.190000e+00
 TX4eq  X3vh  1 3.950000e-01    3.190000e+00
 TC1eq  X3vh  1 3.950000e-01    2.940000e+00
 TC2eq  X3vh  1 3.950000e-01    2.940000e+00
 TC3eq  X3vh  1 3.950000e-01    2.940000e+00
 TC4eq  X3vh  1 3.950000e-01    2.940000e+00
 TC5eq  X3vh  1 3.950000e-01    2.940000e+00
 TC6eq  X3vh  1 3.950000e-01    3.190000e+00
 TX3vh  X1vq  1 3.950000e-01    2.700000e+00
 TX3vh  X2vq  1 3.950000e-01    2.700000e+00
  TX2v  X2vh  1 3.950000e-01    2.310000e+00
 TX2vh   X1v  1 3.950000e-01    2.310000e+00
  TC6e  X2vh  1 3.950000e-01    2.700000e+00
  TC5e  X2vh  1 3.950000e-01    2.500000e+00
  TC4e  X2vh  1 3.950000e-01    2.500000e+00
  TC3e  X2vh  1 3.950000e-01    2.500000e+00
  TC2e  X2vh  1 3.950000e-01    2.500000e+00
  TC1e  X2vh  1 3.950000e-01    2.500000e+00
  TX4e  X2vh  1 3.950000e-01    2.700000e+00
  TX3e  X2vh  1 3.950000e-01    2.940000e+00
 TX2vh   X2e  1 3.950000e-01    2.940000e+00
 TX2vh   X1e  1 3.950000e-01    2.940000e+00
  TP6q  X2vh  1 3.950000e-01    2.310000e+00
  TP5q  X2vh  1 3.950000e-01    2.500000e+00
  TP4q  X2vh  1 3.950000e-01    2.500000e+00
  TP3q  X2vh  1 3.950000e-01    2.500000e+00
  TP2q  X2vh  1 3.950000e-01    2.500000e+00
  TP1q  X2vh  1 3.950000e-01    2.500000e+00
  TN6q  X2vh  1 3.950000e-01    2.500000e+00
  TN5q  X2vh  1 3.950000e-01    2.700000e+00
  TN4q  X2vh  1 3.950000e-01    2.700000e+00
  TN3q  X2vh  1 3.950000e-01    2.700000e+00
  TN2q  X2vh  1 3.950000e-01    2.700000e+00
  TN1q  X2vh  1 3.950000e-01    2.700000e+00
  TC6q  X2vh  1 3.950000e-01    2.940000e+00
  TC5q  X2vh  1 3.950000e-01    2.700000e+00
  TC4q  X2vh  1 3.950000e-01    2.700000e+00
  TC3q  X2vh  1 3.950000e-01    2.700000e+00
  TC2q  X2vh  1 3.950000e-01    2.700000e+00
  TC1q  X2vh  1 3.950000e-01    2.700000e+00
  TX4q  X2vh  1 3.950000e-01    2.940000e+00
  TX3q  X2vh  1 3.950000e-01    3.190000e+00
  TX2q  X2vh  1 3.950000e-01    3.190000e+00
 TX2vh   X1q  1 3.950000e-01    3.190000e+00
 TP6dq  X2vh  1 3.950000e-01    1.850000e+00
 TP5dq  X2vh  1 3.950000e-01    2.110000e+00
 TP4dq  X2vh  1 3.950000e-01    2.110000e+00
 TP3dq  X2vh  1 3.950000e-01    2.110000e+00
 TP2dq  X2vh  1 3.950000e-01    2.110000e+00
 TP1dq  X2vh  1 3.950000e-01    2.110000e+00
 TN6dq  X2vh  1 3.950000e-01    2.110000e+00
 TN5dq  X2vh  1 3.950000e-01    2.310000e+00
 TN4dq  X2vh  1 3.950000e-01    2.310000e+00
 TN3dq  X2vh  1 3.950000e-01    2.310000e+00
 TN2dq  X2vh  1 3.950000e-01    2.310000e+00
 TN1dq  X2vh  1 3.950000e-01    2.310000e+00
 TP6aq  X2vh  1 3.950000e-01    2.310000e+00
 TP5aq  X2vh  1 3.950000e-01    2.500000e+00
 TP4aq  X2vh  1 3.950000e-01    2.500000e+00
 TP3aq  X2vh  1 3.950000e-01    2.500000e+00
 TP2aq  X2vh  1 3.950000e-01    2.500000e+00
 TP1aq  X2vh  1 3.950000e-01    2.500000e+00
 TN6aq  X2vh  1 3.950000e-01    2.500000e+00
 TN5aq  X2vh  1 3.950000e-01    2.700000e+00
 TN4aq  X2vh  1 3.950000e-01    2.700000e+00
 TN3aq  X2vh  1 3.950000e-01    2.700000e+00
 TN2aq  X2vh  1 3.950000e-01    2.700000e+00
 TN1aq  X2vh  1 3.950000e-01    2.700000e+00
 TC6vq  X2vh  1 3.950000e-01    2.500000e+00
 TC5vq  X2vh  1 3.950000e-01    2.310000e+00
 TC4vq  X2vh  1 3.950000e-01    2.310000e+00
 TC3vq  X2vh  1 3.950000e-01    2.310000e+00
 TC2vq  X2vh  1 3.950000e-01    2.310000e+00
 TC1vq  X2vh  1 3.950000e-01    2.310000e+00
 TX4vq  X2vh  1 3.950000e-01    2.500000e+00
 TX3vq  X2vh  1 3.950000e-01    2.700000e+00
 TX2vh  X2vq  1 3.950000e-01    2.700000e+00
 TX2vh  X1eq  1 3.950000e-01    3.430000e+00
 TX2vh  X2eq  1 3.950000e-01    3.430000e+00
 TX3eq  X2vh  1 3.950000e-01    3.430000e+00
 TX4eq  X2vh  1 3.950000e-01    3.190000e+00
 TC1eq  X2vh  1 3.950000e-01    2.940000e+00
 TC2eq  X2vh  1 3.950000e-01    2.940000e+00
 TC3eq  X2vh  1 3.950000e-01    2.940000e+00
 TC4eq  X2vh  1 3.950000e-01    2.940000e+00
 TC5eq  X2vh  1 3.950000e-01    2.940000e+00
 TC6eq  X2vh  1 3.950000e-01    3.190000e+00
 TX2vh  X1vq  1 3.950000e-01    2.700000e+00
  TX1v  X1vh  1 3.950000e-01    2.500000e+00
  TC6e  X1vh  1 3.950000e-01    2.700000e+00
  TC5e  X1vh  1 3.950000e-01    2.700000e+00
  TC4e  X1vh  1 3.950000e-01    2.700000e+00
  TC3e  X1vh  1 3.950000e-01    2.700000e+00
  TC2e  X1vh  1 3.950000e-01    2.500000e+00
  TC1e  X1vh  1 3.950000e-01    2.500000e+00
  TX4e  X1vh  1 3.950000e-01    2.700000e+00
  TX3e  X1vh  1 3.950000e-01    2.940000e+00
  TX2e  X1vh  1 3.950000e-01    2.940000e+00
 TX1vh   X1e  1 3.950000e-01    3.190000e+00
  TP6q  X1vh  1 3.950000e-01    2.110000e+00
  TP5q  X1vh  1 3.950000e-01    2.110000e+00
  TP4q  X1vh  1 3.950000e-01    2.310000e+00
  TP3q  X1vh  1 3.950000e-01    2.310000e+00
  TP2q  X1vh  1 3.950000e-01    2.310000e+00
  TP1q  X1vh  1 3.950000e-01    2.310000e+00
  TN6q  X1vh  1 3.950000e-01    2.310000e+00
  TN5q  X1vh  1 3.950000e-01    2.500000e+00
  TN4q  X1vh  1 3.950000e-01    2.500000e+00
  TN3q  X1vh  1 3.950000e-01    2.700000e+00
  TN2q  X1vh  1 3.950000e-01    2.700000e+00
  TN1q  X1vh  1 3.950000e-01    2.700000e+00
  TC6q  X1vh  1 3.950000e-01    2.940000e+00
  TC5q  X1vh  1 3.950000e-01    2.940000e+00
  TC4q  X1vh  1 3.950000e-01    2.940000e+00
  TC3q  X1vh  1 3.950000e-01    2.940000e+00
  TC2q  X1vh  1 3.950000e-01    2.700000e+00
  TC1q  X1vh  1 3.950000e-01    2.700000e+00
  TX4q  X1vh  1 3.950000e-01    2.940000e+00
  TX3q  X1vh  1 3.950000e-01    3.190000e+00
  TX2q  X1vh  1 3.950000e-01    3.190000e+00
  TX1q  X1vh  1 3.950000e-01    3.430000e+00
 TP6dq  X1vh  1 3.950000e-01    1.670000e+00
 TP5dq  X1vh  1 3.950000e-01    1.670000e+00
 TP4dq  X1vh  1 3.950000e-01    1.850000e+00
 TP3dq  X1vh  1 3.950000e-01    1.850000e+00
 TP2dq  X1vh  1 3.950000e-01    1.850000e+00
 TP1dq  X1vh  1 3.950000e-01    1.850000e+00
 TN6dq  X1vh  1 3.950000e-01    1.850000e+00
 TN5dq  X1vh  1 3.950000e-01    2.110000e+00
 TN4dq  X1vh  1 3.950000e-01    2.110000e+00
 TN3dq  X1vh  1 3.950000e-01    2.310000e+00
 TN2dq  X1vh  1 3.950000e-01    2.310000e+00
 TN1dq  X1vh  1 3.950000e-01    2.310000e+00
 TP6aq  X1vh  1 3.950000e-01    2.110000e+00
 TP5aq  X1vh  1 3.950000e-01    2.110000e+00
 TP4aq  X1vh  1 3.950000e-01    2.310000e+00
 TP3aq  X1vh  1 3.950000e-01    2.310000e+00
 TP2aq  X1vh  1 3.950000e-01    2.310000e+00
 TP1aq  X1vh  1 3.950000e-01    2.310000e+00
 TN6aq  X1vh  1 3.950000e-01    2.310000e+00
 TN5aq  X1vh  1 3.950000e-01    2.500000e+00
 TN4aq  X1vh  1 3.950000e-01    2.500000e+00
 TN3aq  X1vh  1 3.950000e-01    2.700000e+00
 TN2aq  X1vh  1 3.950000e-01    2.700000e+00
 TN1aq  X1vh  1 3.950000e-01    2.700000e+00
 TC6vq  X1vh  1 3.950000e-01    2.500000e+00
 TC5vq  X1vh  1 3.950000e-01    2.500000e+00
 TC4vq  X1vh  1 3.950000e-01    2.500000e+00
 TC3vq  X1vh  1 3.950000e-01    2.500000e+00
 TC2vq  X1vh  1 3.950000e-01    2.310000e+00
 TC1vq  X1vh  1 3.950000e-01    2.310000e+00
 TX4vq  X1vh  1 3.950000e-01    2.500000e+00
 TX3vq  X1vh  1 3.950000e-01    2.700000e+00
 TX2vq  X1vh  1 3.950000e-01    2.700000e+00
 TX1vh  X1vq  1 3.950000e-01    2.940000e+00
 TX1vh  X1eq  1 3.950000e-01    3.670000e+00
 TX2eq  X1vh  1 3.950000e-01    3.430000e+00
 TX3eq  X1vh  1 3.950000e-01    3.430000e+00
 TX4eq  X1vh  1 3.950000e-01    3.190000e+00
 TC1eq  X1vh  1 3.950000e-01    2.940000e+00
 TC2eq  X1vh  1 3.950000e-01    2.940000e+00
 TC3eq  X1vh  1 3.950000e-01    3.190000e+00
 TC4eq  X1vh  1 3.950000e-01    3.190000e+00
 TC5eq  X1vh  1 3.950000e-01    3.190000e+00
 TC6eq  X1vh  1 3.950000e-01    3.190000e+00
  TC6e  C6eh  1 3.950000e-01    2.310000e+00
 TC6eh   C5e  1 3.950000e-01    2.110000e+00
 TC6eh   C4e  1 3.950000e-01    2.110000e+00
 TC6eh   C3e  1 3.950000e-01    1.850000e+00
 TC6eh   C2e  1 3.950000e-01    1.670000e+00
 TC6eh   C1e  1 3.980000e-01    1.450000e+00
 TC6eh   X4e  1 3.950000e-01    2.110000e+00
 TC6eh   X3e  1 3.950000e-01    2.110000e+00
 TC6eh   X2e  1 3.950000e-01    2.110000e+00
 TC6eh   X1e  1 3.950000e-01    2.110000e+00
  TP6q  C6eh  1 3.950000e-01    2.310000e+00
  TP5q  C6eh  1 3.950000e-01    2.310000e+00
  TP4q  C6eh  1 3.950000e-01    2.500000e+00
  TP3q  C6eh  1 3.950000e-01    2.700000e+00
  TP2q  C6eh  1 3.950000e-01    2.700000e+00
  TP1q  C6eh  1 3.950000e-01    2.700000e+00
  TN6q  C6eh  1 3.950000e-01    2.940000e+00
  TN5q  C6eh  1 3.950000e-01    2.940000e+00
  TN4q  C6eh  1 3.950000e-01    2.940000e+00
  TN3q  C6eh  1 3.950000e-01    2.940000e+00
  TN2q  C6eh  1 3.950000e-01    2.940000e+00
  TN1q  C6eh  1 3.950000e-01    3.190000e+00
  TC6q  C6eh  1 3.950000e-01    3.190000e+00
 TC6eh   C5q  1 3.950000e-01    2.940000e+00
 TC6eh   C4q  1 3.950000e-01    2.940000e+00
 TC6eh   C3q  1 3.950000e-01    2.700000e+00
 TC6eh   C2q  1 3.950000e-01    2.500000e+00
 TC6eh   C1q  1 3.950000e-01    2.310000e+00
 TC6eh   X4q  1 3.950000e-01    2.940000e+00
 TC6eh   X3q  1 3.950000e-01    2.940000e+00
 TC6eh   X2q  1 3.950000e-01    2.940000e+00
 TC6eh   X1q  1 3.950000e-01    2.940000e+00
 TP6dq  C6eh  1 3.950000e-01    2.310000e+00
 TP5dq  C6eh  1 3.950000e-01    2.310000e+00
 TP4dq  C6eh  1 3.950000e-01    2.500000e+00
 TP3dq  C6eh  1 3.950000e-01    2.700000e+00
 TP2dq  C6eh  1 3.950000e-01    2.700000e+00
 TP1dq  C6eh  1 3.950000e-01    2.700000e+00
 TN6dq  C6eh  1 3.950000e-01    2.940000e+00
 TN5dq  C6eh  1 3.950000e-01    2.940000e+00
 TN4dq  C6eh  1 3.950000e-01    2.940000e+00
 TN3dq  C6eh  1 3.950000e-01    2.940000e+00
 TN2dq  C6eh  1 3.950000e-01    2.940000e+00
 TN1dq  C6eh  1 3.950000e-01    3.190000e+00
 TP6aq  C6eh  1 3.950000e-01    1.850000e+00
 TP5aq  C6eh  1 3.950000e-01    1.850000e+00
 TP4aq  C6eh  1 3.950000e-01    2.110000e+00
 TP3aq  C6eh  1 3.950000e-01    2.310000e+00
 TP2aq  C6eh  1 3.950000e-01    2.310000e+00
 TP1aq  C6eh  1 3.950000e-01    2.310000e+00
 TN6aq  C6eh  1 3.950000e-01    2.500000e+00
 TN5aq  C6eh  1 3.950000e-01    2.500000e+00
 TN4aq  C6eh  1 3.950000e-01    2.500000e+00
 TN3aq  C6eh  1 3.950000e-01    2.500000e+00
 TN2aq  C6eh  1 3.950000e-01    2.500000e+00
 TN1aq  C6eh  1 3.950000e-01    2.700000e+00
 TC6vq  C6eh  1 3.950000e-01    3.430000e+00
 TC6eh  C5vq  1 3.950000e-01    3.190000e+00
 TC6eh  C4vq  1 3.950000e-01    3.190000e+00
 TC6eh  C3vq  1 3.950000e-01    2.940000e+00
 TC6eh  C2vq  1 3.950000e-01    2.700000e+00
 TC6eh  C1vq  1 3.950000e-01    2.500000e+00
 TC6eh  X4vq  1 3.950000e-01    3.190000e+00
 TC6eh  X3vq  1 3.950000e-01    3.190000e+00
 TC6eh  X2vq  1 3.950000e-01    3.190000e+00
 TC6eh  X1vq  1 3.950000e-01    3.190000e+00
 TC6eh  C6eq  1 3.950000e-01    2.700000e+00
 TC6eh  X1eq  1 3.950000e-01    2.500000e+00
 TC6eh  X2eq  1 3.950000e-01    2.500000e+00
 TC6eh  X3eq  1 3.950000e-01    2.500000e+00
 TC6eh  X4eq  1 3.950000e-01    2.500000e+00
 TC6eh  C1eq  1 3.950000e-01    1.850000e+00
 TC6eh  C2eq  1 3.950000e-01    2.110000e+00
 TC6eh  C3eq  1 3.950000e-01    2.310000e+00
 TC6eh  C4eq  1 3.950000e-01    2.500000e+00
 TC6eh  C5eq  1 3.950000e-01    2.500000e+00
  TC5e  C5eh  1 3.950000e-01    2.110000e+00
 TC5eh   C4e  1 3.950000e-01    2.110000e+00
 TC5eh   C3e  1 3.950000e-01    1.850000e+00
 TC5eh   C2e  1 3.950000e-01    1.670000e+00
 TC5eh   C1e  1 3.950000e-01    1.670000e+00
 TC5eh   X4e  1 3.950000e-01    1.850000e+00
 TC5eh   X3e  1 3.950000e-01    1.850000e+00
 TC5eh   X2e  1 3.950000e-01    1.850000e+00
 TC5eh   X1e  1 3.950000e-01    2.110000e+00
  TP6q  C5eh  1 3.950000e-01    2.110000e+00
  TP5q  C5eh  1 3.950000e-01    2.310000e+00
  TP4q  C5eh  1 3.950000e-01    2.310000e+00
  TP3q  C5eh  1 3.950000e-01    2.500000e+00
  TP2q  C5eh  1 3.950000e-01    2.500000e+00
  TP1q  C5eh  1 3.950000e-01    2.500000e+00
  TN6q  C5eh  1 3.950000e-01    2.700000e+00
  TN5q  C5eh  1 3.950000e-01    2.700000e+00
  TN4q  C5eh  1 3.950000e-01    2.700000e+00
  TN3q  C5eh  1 3.950000e-01    2.700000e+00
  TN2q  C5eh  1 3.950000e-01    2.700000e+00
  TN1q  C5eh  1 3.950000e-01    2.940000e+00
  TC6q  C5eh  1 3.950000e-01    2.940000e+00
  TC5q  C5eh  1 3.950000e-01    2.940000e+00
 TC5eh   C4q  1 3.950000e-01    2.940000e+00
 TC5eh   C3q  1 3.950000e-01    2.700000e+00
 TC5eh   C2q  1 3.950000e-01    2.500000e+00
 TC5eh   C1q  1 3.950000e-01    2.500000e+00
 TC5eh   X4q  1 3.950000e-01    2.700000e+00
 TC5eh   X3q  1 3.950000e-01    2.700000e+00
 TC5eh   X2q  1 3.950000e-01    2.700000e+00
 TC5eh   X1q  1 3.950000e-01    2.940000e+00
 TP6dq  C5eh  1 3.950000e-01    2.110000e+00
 TP5dq  C5eh  1 3.950000e-01    2.310000e+00
 TP4dq  C5eh  1 3.950000e-01    2.310000e+00
 TP3dq  C5eh  1 3.950000e-01    2.500000e+00
 TP2dq  C5eh  1 3.950000e-01    2.500000e+00
 TP1dq  C5eh  1 3.950000e-01    2.500000e+00
 TN6dq  C5eh  1 3.950000e-01    2.700000e+00
 TN5dq  C5eh  1 3.950000e-01    2.700000e+00
 TN4dq  C5eh  1 3.950000e-01    2.700000e+00
 TN3dq  C5eh  1 3.950000e-01    2.700000e+00
 TN2dq  C5eh  1 3.950000e-01    2.700000e+00
 TN1dq  C5eh  1 3.950000e-01    2.940000e+00
 TP6aq  C5eh  1 3.950000e-01    1.670000e+00
 TP5aq  C5eh  1 3.950000e-01    1.850000e+00
 TP4aq  C5eh  1 3.950000e-01    1.850000e+00
 TP3aq  C5eh  1 3.950000e-01    2.110000e+00
 TP2aq  C5eh  1 3.950000e-01    2.110000e+00
 TP1aq  C5eh  1 3.950000e-01    2.110000e+00
 TN6aq  C5eh  1 3.950000e-01    2.310000e+00
 TN5aq  C5eh  1 3.950000e-01    2.310000e+00
 TN4aq  C5eh  1 3.950000e-01    2.310000e+00
 TN3aq  C5eh  1 3.950000e-01    2.310000e+00
 TN2aq  C5eh  1 3.950000e-01    2.310000e+00
 TN1aq  C5eh  1 3.950000e-01    2.500000e+00
 TC6vq  C5eh  1 3.950000e-01    3.190000e+00
 TC5vq  C5eh  1 3.950000e-01    3.190000e+00
 TC5eh  C4vq  1 3.950000e-01    3.190000e+00
 TC5eh  C3vq  1 3.950000e-01    2.940000e+00
 TC5eh  C2vq  1 3.950000e-01    2.700000e+00
 TC5eh  C1vq  1 3.950000e-01    2.700000e+00
 TC5eh  X4vq  1 3.950000e-01    2.940000e+00
 TC5eh  X3vq  1 3.950000e-01    2.940000e+00
 TC5eh  X2vq  1 3.950000e-01    2.940000e+00
 TC5eh  X1vq  1 3.950000e-01    3.190000e+00
 TC6eq  C5eh  1 3.950000e-01    2.500000e+00
 TC5eh  C5eq  1 3.950000e-01    2.500000e+00
 TC5eh  X1eq  1 3.950000e-01    2.500000e+00
 TC5eh  X2eq  1 3.950000e-01    2.310000e+00
 TC5eh  X3eq  1 3.950000e-01    2.310000e+00
 TC5eh  X4eq  1 3.950000e-01    2.310000e+00
 TC5eh  C1eq  1 3.950000e-01    2.110000e+00
 TC5eh  C2eq  1 3.950000e-01    2.110000e+00
 TC5eh  C3eq  1 3.950000e-01    2.310000e+00
 TC5eh  C4eq  1 3.950000e-01    2.500000e+00
  TC4e  C4eh  1 3.950000e-01    2.110000e+00
 TC4eh   C3e  1 3.950000e-01    2.110000e+00
 TC4eh   C2e  1 3.950000e-01    1.850000e+00
 TC4eh   C1e  1 3.950000e-01    1.670000e+00
 TC4eh   X4e  1 3.950000e-01    1.850000e+00
 TC4eh   X3e  1 3.950000e-01    1.850000e+00
 TC4eh   X2e  1 3.950000e-01    1.850000e+00
 TC4eh   X1e  1 3.950000e-01    2.110000e+00
  TP6q  C4eh  1 3.950000e-01    1.850000e+00
  TP5q  C4eh  1 3.950000e-01    2.110000e+00
  TP4q  C4eh  1 3.950000e-01    2.110000e+00
  TP3q  C4eh  1 3.950000e-01    2.310000e+00
  TP2q  C4eh  1 3.950000e-01    2.310000e+00
  TP1q  C4eh  1 3.950000e-01    2.310000e+00
  TN6q  C4eh  1 3.950000e-01    2.500000e+00
  TN5q  C4eh  1 3.950000e-01    2.500000e+00
  TN4q  C4eh  1 3.950000e-01    2.700000e+00
  TN3q  C4eh  1 3.950000e-01    2.700000e+00
  TN2q  C4eh  1 3.950000e-01    2.700000e+00
  TN1q  C4eh  1 3.950000e-01    2.940000e+00
  TC6q  C4eh  1 3.950000e-01    2.940000e+00
  TC5q  C4eh  1 3.950000e-01    2.940000e+00
  TC4q  C4eh  1 3.950000e-01    2.940000e+00
 TC4eh   C3q  1 3.950000e-01    2.940000e+00
 TC4eh   C2q  1 3.950000e-01    2.700000e+00
 TC4eh   C1q  1 3.950000e-01    2.500000e+00
 TC4eh   X4q  1 3.950000e-01    2.700000e+00
 TC4eh   X3q  1 3.950000e-01    2.700000e+00
 TC4eh   X2q  1 3.950000e-01    2.700000e+00
 TC4eh   X1q  1 3.950000e-01    2.940000e+00
 TP6dq  C4eh  1 3.950000e-01    1.850000e+00
 TP5dq  C4eh  1 3.950000e-01    2.110000e+00
 TP4dq  C4eh  1 3.950000e-01    2.110000e+00
 TP3dq  C4eh  1 3.950000e-01    2.310000e+00
 TP2dq  C4eh  1 3.950000e-01    2.310000e+00
 TP1dq  C4eh  1 3.950000e-01    2.310000e+00
 TN6dq  C4eh  1 3.950000e-01    2.500000e+00
 TN5dq  C4eh  1 3.950000e-01    2.500000e+00
 TN4dq  C4eh  1 3.950000e-01    2.700000e+00
 TN3dq  C4eh  1 3.950000e-01    2.700000e+00
 TN2dq  C4eh  1 3.950000e-01    2.700000e+00
 TN1dq  C4eh  1 3.950000e-01    2.940000e+00
 TP6aq  C4eh  1 3.980000e-01    1.450000e+00
 TP5aq  C4eh  1 3.950000e-01    1.670000e+00
 TP4aq  C4eh  1 3.950000e-01    1.670000e+00
 TP3aq  C4eh  1 3.950000e-01    1.850000e+00
 TP2aq  C4eh  1 3.950000e-01    1.850000e+00
 TP1aq  C4eh  1 3.950000e-01    1.850000e+00
 TN6aq  C4eh  1 3.950000e-01    2.110000e+00
 TN5aq  C4eh  1 3.950000e-01    2.110000e+00
 TN4aq  C4eh  1 3.950000e-01    2.310000e+00
 TN3aq  C4eh  1 3.950000e-01    2.310000e+00
 TN2aq  C4eh  1 3.950000e-01    2.310000e+00
 TN1aq  C4eh  1 3.950000e-01    2.500000e+00
 TC6vq  C4eh  1 3.950000e-01    3.190000e+00
 TC5vq  C4eh  1 3.950000e-01    3.190000e+00
 TC4vq  C4eh  1 3.950000e-01    3.190000e+00
 TC4eh  C3vq  1 3.950000e-01    3.190000e+00
 TC4eh  C2vq  1 3.950000e-01    2.940000e+00
 TC4eh  C1vq  1 3.950000e-01    2.700000e+00
 TC4eh  X4vq  1 3.950000e-01    2.940000e+00
 TC4eh  X3vq  1 3.950000e-01    2.940000e+00
 TC4eh  X2vq  1 3.950000e-01    2.940000e+00
 TC4eh  X1vq  1 3.950000e-01    3.190000e+00
 TC6eq  C4eh  1 3.950000e-01    2.500000e+00
 TC5eq  C4eh  1 3.950000e-01    2.500000e+00
 TC4eh  C4eq  1 3.950000e-01    2.500000e+00
 TC4eh  X1eq  1 3.950000e-01    2.500000e+00
 TC4eh  X2eq  1 3.950000e-01    2.310000e+00
 TC4eh  X3eq  1 3.950000e-01    2.310000e+00
 TC4eh  X4eq  1 3.950000e-01    2.310000e+00
 TC4eh  C1eq  1 3.950000e-01    2.110000e+00
 TC4eh  C2eq  1 3.950000e-01    2.310000e+00
 TC4eh  C3eq  1 3.950000e-01    2.500000e+00
  TC3e  C3eh  1 3.950000e-01    2.110000e+00
 TC3eh   C2e  1 3.950000e-01    2.110000e+00
 TC3eh   C1e  1 3.950000e-01    2.110000e+00
 TC3eh   X4e  1 3.950000e-01    1.850000e+00
 TC3eh   X3e  1 3.950000e-01    1.850000e+00
 TC3eh   X2e  1 3.950000e-01    1.850000e+00
 TC3eh   X1e  1 3.950000e-01    2.110000e+00
  TP6q  C3eh  1 3.950000e-01    1.670000e+00
  TP5q  C3eh  1 3.950000e-01    1.850000e+00
  TP4q  C3eh  1 3.950000e-01    1.850000e+00
  TP3q  C3eh  1 3.950000e-01    1.850000e+00
  TP2q  C3eh  1 3.950000e-01    2.110000e+00
  TP1q  C3eh  1 3.950000e-01    2.110000e+00
  TN6q  C3eh  1 3.950000e-01    2.310000e+00
  TN5q  C3eh  1 3.950000e-01    2.500000e+00
  TN4q  C3eh  1 3.950000e-01    2.500000e+00
  TN3q  C3eh  1 3.950000e-01    2.500000e+00
  TN2q  C3eh  1 3.950000e-01    2.700000e+00
  TN1q  C3eh  1 3.950000e-01    2.700000e+00
  TC6q  C3eh  1 3.950000e-01    2.700000e+00
  TC5q  C3eh  1 3.950000e-01    2.700000e+00
  TC4q  C3eh  1 3.950000e-01    2.940000e+00
  TC3q  C3eh  1 3.950000e-01    2.940000e+00
 TC3eh   C2q  1 3.950000e-01    2.940000e+00
 TC3eh   C1q  1 3.950000e-01    2.940000e+00
 TC3eh   X4q  1 3.950000e-01    2.700000e+00
 TC3eh   X3q  1 3.950000e-01    2.700000e+00
 TC3eh   X2q  1 3.950000e-01    2.700000e+00
 TC3eh   X1q  1 3.950000e-01    2.940000e+00
 TP6dq  C3eh  1 3.950000e-01    1.670000e+00
 TP5dq  C3eh  1 3.950000e-01    1.850000e+00
 TP4dq  C3eh  1 3.950000e-01    1.850000e+00
 TP3dq  C3eh  1 3.950000e-01    1.850000e+00
 TP2dq  C3eh  1 3.950000e-01    2.110000e+00
 TP1dq  C3eh  1 3.950000e-01    2.110000e+00
 TN6dq  C3eh  1 3.950000e-01    2.310000e+00
 TN5dq  C3eh  1 3.950000e-01    2.500000e+00
 TN4dq  C3eh  1 3.950000e-01    2.500000e+00
 TN3dq  C3eh  1 3.950000e-01    2.500000e+00
 TN2dq  C3eh  1 3.950000e-01    2.700000e+00
 TN1dq  C3eh  1 3.950000e-01    2.700000e+00
 TP6aq  C3eh  1 3.990000e-01    1.180000e+00
 TP5aq  C3eh  1 3.980000e-01    1.450000e+00
 TP4aq  C3eh  1 3.980000e-01    1.450000e+00
 TP3aq  C3eh  1 3.980000e-01    1.450000e+00
 TP2aq  C3eh  1 3.950000e-01    1.670000e+00
 TP1aq  C3eh  1 3.950000e-01    1.670000e+00
 TN6aq  C3eh  1 3.950000e-01    1.850000e+00
 TN5aq  C3eh  1 3.950000e-01    2.110000e+00
 TN4aq  C3eh  1 3.950000e-01    2.110000e+00
 TN3aq  C3eh  1 3.950000e-01    2.110000e+00
 TN2aq  C3eh  1 3.950000e-01    2.310000e+00
 TN1aq  C3eh  1 3.950000e-01    2.310000e+00
 TC6vq  C3eh  1 3.950000e-01    2.940000e+00
 TC5vq  C3eh  1 3.950000e-01    2.940000e+00
 TC4vq  C3eh  1 3.950000e-01    3.190000e+00
 TC3vq  C3eh  1 3.950000e-01    3.190000e+00
 TC3eh  C2vq  1 3.950000e-01    3.190000e+00
 TC3eh  C1vq  1 3.950000e-01    3.190000e+00
 TC3eh  X4vq  1 3.950000e-01    2.940000e+00
 TC3eh  X3vq  1 3.950000e-01    2.940000e+00
 TC3eh  X2vq  1 3.950000e-01    2.940000e+00
 TC3eh  X1vq  1 3.950000e-01    3.190000e+00
 TC6eq  C3eh  1 3.950000e-01    2.310000e+00
 TC5eq  C3eh  1 3.950000e-01    2.310000e+00
 TC4eq  C3eh  1 3.950000e-01    2.500000e+00
 TC3eh  C3eq  1 3.950000e-01    2.500000e+00
 TC3eh  X1eq  1 3.950000e-01    2.500000e+00
 TC3eh  X2eq  1 3.950000e-01    2.310000e+00
 TC3eh  X3eq  1 3.950000e-01    2.310000e+00
 TC3eh  X4eq  1 3.950000e-01    2.310000e+00
 TC3eh  C1eq  1 3.950000e-01    2.500000e+00
 TC3eh  C2eq  1 3.950000e-01    2.500000e+00
  TC2e  C2eh  1 3.950000e-01    2.110000e+00
 TC2eh   C1e  1 3.950000e-01    2.310000e+00
 TC2eh   X4e  1 3.980000e-01    1.450000e+00
 TC2eh   X3e  1 3.950000e-01    1.850000e+00
 TC2eh   X2e  1 3.950000e-01    1.850000e+00
 TC2eh   X1e  1 3.950000e-01    1.850000e+00
  TP6q  C2eh  1 3.950000e-01    1.670000e+00
  TP5q  C2eh  1 3.950000e-01    1.850000e+00
  TP4q  C2eh  1 3.950000e-01    1.850000e+00
  TP3q  C2eh  1 3.950000e-01    1.850000e+00
  TP2q  C2eh  1 3.950000e-01    2.110000e+00
  TP1q  C2eh  1 3.950000e-01    2.110000e+00
  TN6q  C2eh  1 3.950000e-01    2.310000e+00
  TN5q  C2eh  1 3.950000e-01    2.310000e+00
  TN4q  C2eh  1 3.950000e-01    2.310000e+00
  TN3q  C2eh  1 3.950000e-01    2.500000e+00
  TN2q  C2eh  1 3.950000e-01    2.500000e+00
  TN1q  C2eh  1 3.950000e-01    2.500000e+00
  TC6q  C2eh  1 3.950000e-01    2.500000e+00
  TC5q  C2eh  1 3.950000e-01    2.500000e+00
  TC4q  C2eh  1 3.950000e-01    2.700000e+00
  TC3q  C2eh  1 3.950000e-01    2.940000e+00
  TC2q  C2eh  1 3.950000e-01    2.940000e+00
 TC2eh   C1q  1 3.950000e-01    3.190000e+00
 TC2eh   X4q  1 3.950000e-01    2.310000e+00
 TC2eh   X3q  1 3.950000e-01    2.700000e+00
 TC2eh   X2q  1 3.950000e-01    2.700000e+00
 TC2eh   X1q  1 3.950000e-01    2.700000e+00
 TP6dq  C2eh  1 3.950000e-01    1.670000e+00
 TP5dq  C2eh  1 3.950000e-01    1.850000e+00
 TP4dq  C2eh  1 3.950000e-01    1.850000e+00
 TP3dq  C2eh  1 3.950000e-01    1.850000e+00
 TP2dq  C2eh  1 3.950000e-01    2.110000e+00
 TP1dq  C2eh  1 3.950000e-01    2.110000e+00
 TN6dq  C2eh  1 3.950000e-01    2.310000e+00
 TN5dq  C2eh  1 3.950000e-01    2.310000e+00
 TN4dq  C2eh  1 3.950000e-01    2.310000e+00
 TN3dq  C2eh  1 3.950000e-01    2.500000e+00
 TN2dq  C2eh  1 3.950000e-01    2.500000e+00
 TN1dq  C2eh  1 3.950000e-01    2.500000e+00
 TP6aq  C2eh  1 3.990000e-01    1.180000e+00
 TP5aq  C2eh  1 3.980000e-01    1.450000e+00
 TP4aq  C2eh  1 3.980000e-01    1.450000e+00
 TP3aq  C2eh  1 3.980000e-01    1.450000e+00
 TP2aq  C2eh  1 3.950000e-01    1.670000e+00
 TP1aq  C2eh  1 3.950000e-01    1.670000e+00
 TN6aq  C2eh  1 3.950000e-01    1.850000e+00
 TN5aq  C2eh  1 3.950000e-01    1.850000e+00
 TN4aq  C2eh  1 3.950000e-01    1.850000e+00
 TN3aq  C2eh  1 3.950000e-01    2.110000e+00
 TN2aq  C2eh  1 3.950000e-01    2.110000e+00
 TN1aq  C2eh  1 3.950000e-01    2.110000e+00
 TC6vq  C2eh  1 3.950000e-01    2.700000e+00
 TC5vq  C2eh  1 3.950000e-01    2.700000e+00
 TC4vq  C2eh  1 3.950000e-01    2.940000e+00
 TC3vq  C2eh  1 3.950000e-01    3.190000e+00
 TC2vq  C2eh  1 3.950000e-01    3.190000e+00
 TC2eh  C1vq  1 3.950000e-01    3.430000e+00
 TC2eh  X4vq  1 3.950000e-01    2.500000e+00
 TC2eh  X3vq  1 3.950000e-01    2.940000e+00
 TC2eh  X2vq  1 3.950000e-01    2.940000e+00
 TC2eh  X1vq  1 3.950000e-01    2.940000e+00
 TC6eq  C2eh  1 3.950000e-01    2.110000e+00
 TC5eq  C2eh  1 3.950000e-01    2.110000e+00
 TC4eq  C2eh  1 3.950000e-01    2.310000e+00
 TC3eq  C2eh  1 3.950000e-01    2.500000e+00
 TC2eh  C2eq  1 3.950000e-01    2.500000e+00
 TC2eh  X1eq  1 3.950000e-01    2.310000e+00
 TC2eh  X2eq  1 3.950000e-01    2.310000e+00
 TC2eh  X3eq  1 3.950000e-01    2.310000e+00
 TC2eh  X4eq  1 3.950000e-01    1.850000e+00
 TC2eh  C1eq  1 3.950000e-01    2.700000e+00
  TC1e  C1eh  1 3.950000e-01    2.110000e+00
 TC1eh   X4e  1 3.980000e-01    1.450000e+00
 TC1eh   X3e  1 3.950000e-01    1.850000e+00
 TC1eh   X2e  1 3.950000e-01    1.850000e+00
 TC1eh   X1e  1 3.950000e-01    1.850000e+00
  TP6q  C1eh  1 3.990000e-01    1.180000e+00
  TP5q  C1eh  1 3.950000e-01    1.670000e+00
  TP4q  C1eh  1 3.950000e-01    1.670000e+00
  TP3q  C1eh  1 3.950000e-01    1.670000e+00
  TP2q  C1eh  1 3.950000e-01    1.850000e+00
  TP1q  C1eh  1 3.950000e-01    1.850000e+00
  TN6q  C1eh  1 3.950000e-01    2.110000e+00
  TN5q  C1eh  1 3.950000e-01    2.110000e+00
  TN4q  C1eh  1 3.950000e-01    2.110000e+00
  TN3q  C1eh  1 3.950000e-01    2.310000e+00
  TN2q  C1eh  1 3.950000e-01    2.310000e+00
  TN1q  C1eh  1 3.950000e-01    2.310000e+00
  TC6q  C1eh  1 3.950000e-01    2.310000e+00
  TC5q  C1eh  1 3.950000e-01    2.500000e+00
  TC4q  C1eh  1 3.950000e-01    2.500000e+00
  TC3q  C1eh  1 3.950000e-01    2.940000e+00
  TC2q  C1eh  1 3.950000e-01    3.190000e+00
  TC1q  C1eh  1 3.950000e-01    2.940000e+00
 TC1eh   X4q  1 3.950000e-01    2.310000e+00
 TC1eh   X3q  1 3.950000e-01    2.700000e+00
 TC1eh   X2q  1 3.950000e-01    2.700000e+00
 TC1eh   X1q  1 3.950000e-01    2.700000e+00
 TP6dq  C1eh  1 3.990000e-01    1.180000e+00
 TP5dq  C1eh  1 3.950000e-01    1.670000e+00
 TP4dq  C1eh  1 3.950000e-01    1.670000e+00
 TP3dq  C1eh  1 3.950000e-01    1.670000e+00
 TP2dq  C1eh  1 3.950000e-01    1.850000e+00
 TP1dq  C1eh  1 3.950000e-01    1.850000e+00
 TN6dq  C1eh  1 3.950000e-01    2.110000e+00
 TN5dq  C1eh  1 3.950000e-01    2.110000e+00
 TN4dq  C1eh  1 3.950000e-01    2.110000e+00
 TN3dq  C1eh  1 3.950000e-01    2.310000e+00
 TN2dq  C1eh  1 3.950000e-01    2.310000e+00
 TN1dq  C1eh  1 3.950000e-01    2.310000e+00
 TP6aq  C1eh  1 4.040000e-01    8.300000e-01
 TP5aq  C1eh  1 3.990000e-01    1.180000e+00
 TP4aq  C1eh  1 3.990000e-01    1.180000e+00
 TP3aq  C1eh  1 3.990000e-01    1.180000e+00
 TP2aq  C1eh  1 3.980000e-01    1.450000e+00
 TP1aq  C1eh  1 3.980000e-01    1.450000e+00
 TN6aq  C1eh  1 3.950000e-01    1.670000e+00
 TN5aq  C1eh  1 3.950000e-01    1.670000e+00
 TN4aq  C1eh  1 3.950000e-01    1.670000e+00
 TN3aq  C1eh  1 3.950000e-01    1.850000e+00
 TN2aq  C1eh  1 3.950000e-01    1.850000e+00
 TN1aq  C1eh  1 3.950000e-01    1.850000e+00
 TC6vq  C1eh  1 3.950000e-01    2.500000e+00
 TC5vq  C1eh  1 3.950000e-01    2.700000e+00
 TC4vq  C1eh  1 3.950000e-01    2.700000e+00
 TC3vq  C1eh  1 3.950000e-01    3.190000e+00
 TC2vq  C1eh  1 3.950000e-01    3.430000e+00
 TC1vq  C1eh  1 3.950000e-01    3.190000e+00
 TC1eh  X4vq  1 3.950000e-01    2.500000e+00
 TC1eh  X3vq  1 3.950000e-01    2.940000e+00
 TC1eh  X2vq  1 3.950000e-01    2.940000e+00
 TC1eh  X1vq  1 3.950000e-01    2.940000e+00
 TC6eq  C1eh  1 3.950000e-01    1.850000e+00
 TC5eq  C1eh  1 3.950000e-01    2.110000e+00
 TC4eq  C1eh  1 3.950000e-01    2.110000e+00
 TC3eq  C1eh  1 3.950000e-01    2.500000e+00
 TC2eq  C1eh  1 3.950000e-01    2.700000e+00
 TC1eh  C1eq  1 3.950000e-01    2.500000e+00
 TC1eh  X1eq  1 3.950000e-01    2.310000e+00
 TC1eh  X2eq  1 3.950000e-01    2.310000e+00
 TC1eh  X3eq  1 3.950000e-01    2.310000e+00
 TC1eh  X4eq  1 3.950000e-01    1.850000e+00
  TX4e  X4eh  1 3.950000e-01    2.110000e+00
 TX4eh   X3e  1 3.950000e-01    2.110000e+00
 TX4eh   X2e  1 3.950000e-01    2.110000e+00
 TX4eh   X1e  1 3.950000e-01    2.110000e+00
  TP6q  X4eh  1 3.950000e-01    2.500000e+00
  TP5q  X4eh  1 3.950000e-01    2.700000e+00
  TP4q  X4eh  1 3.950000e-01    2.700000e+00
  TP3q  X4eh  1 3.950000e-01    2.700000e+00
  TP2q  X4eh  1 3.950000e-01    2.700000e+00
  TP1q  X4eh  1 3.950000e-01    2.700000e+00
  TN6q  X4eh  1 3.950000e-01    2.940000e+00
  TN5q  X4eh  1 3.950000e-01    3.190000e+00
  TN4q  X4eh  1 3.950000e-01    3.430000e+00
  TN3q  X4eh  1 3.950000e-01    3.190000e+00
  TN2q  X4eh  1 3.950000e-01    3.190000e+00
  TN1q  X4eh  1 3.950000e-01    2.940000e+00
  TC6q  X4eh  1 3.950000e-01    2.940000e+00
  TC5q  X4eh  1 3.950000e-01    2.700000e+00
  TC4q  X4eh  1 3.950000e-01    2.700000e+00
  TC3q  X4eh  1 3.950000e-01    2.700000e+00
  TC2q  X4eh  1 3.950000e-01    2.310000e+00
  TC1q  X4eh  1 3.950000e-01    2.310000e+00
  TX4q  X4eh  1 3.950000e-01    2.940000e+00
 TX4eh   X3q  1 3.950000e-01    2.940000e+00
 TX4eh   X2q  1 3.950000e-01    2.940000e+00
 TX4eh   X1q  1 3.950000e-01    2.940000e+00
 TP6dq  X4eh  1 3.950000e-01    2.500000e+00
 TP5dq  X4eh  1 3.950000e-01    2.700000e+00
 TP4dq  X4eh  1 3.950000e-01    2.700000e+00
 TP3dq  X4eh  1 3.950000e-01    2.700000e+00
 TP2dq  X4eh  1 3.950000e-01    2.700000e+00
 TP1dq  X4eh  1 3.950000e-01    2.700000e+00
 TN6dq  X4eh  1 3.950000e-01    2.940000e+00
 TN5dq  X4eh  1 3.950000e-01    3.190000e+00
 TN4dq  X4eh  1 3.950000e-01    3.430000e+00
 TN3dq  X4eh  1 3.950000e-01    3.190000e+00
 TN2dq  X4eh  1 3.950000e-01    3.190000e+00
 TN1dq  X4eh  1 3.950000e-01    2.940000e+00
 TP6aq  X4eh  1 3.950000e-01    2.110000e+00
 TP5aq  X4eh  1 3.950000e-01    2.310000e+00
 TP4aq  X4eh  1 3.950000e-01    2.310000e+00
 TP3aq  X4eh  1 3.950000e-01    2.310000e+00
 TP2aq  X4eh  1 3.950000e-01    2.310000e+00
 TP1aq  X4eh  1 3.950000e-01    2.310000e+00
 TN6aq  X4eh  1 3.950000e-01    2.500000e+00
 TN5aq  X4eh  1 3.950000e-01    2.700000e+00
 TN4aq  X4eh  1 3.950000e-01    2.940000e+00
 TN3aq  X4eh  1 3.950000e-01    2.700000e+00
 TN2aq  X4eh  1 3.950000e-01    2.700000e+00
 TN1aq  X4eh  1 3.950000e-01    2.500000e+00
 TC6vq  X4eh  1 3.950000e-01    3.190000e+00
 TC5vq  X4eh  1 3.950000e-01    2.940000e+00
 TC4vq  X4eh  1 3.950000e-01    2.940000e+00
 TC3vq  X4eh  1 3.950000e-01    2.940000e+00
 TC2vq  X4eh  1 3.950000e-01    2.500000e+00
 TC1vq  X4eh  1 3.950000e-01    2.500000e+00
 TX4vq  X4eh  1 3.950000e-01    3.190000e+00
 TX4eh  X3vq  1 3.950000e-01    3.190000e+00
 TX4eh  X2vq  1 3.950000e-01    3.190000e+00
 TX4eh  X1vq  1 3.950000e-01    3.190000e+00
 TC6eq  X4eh  1 3.950000e-01    2.500000e+00
 TC5eq  X4eh  1 3.950000e-01    2.310000e+00
 TC4eq  X4eh  1 3.950000e-01    2.310000e+00
 TC3eq  X4eh  1 3.950000e-01    2.310000e+00
 TC2eq  X4eh  1 3.950000e-01    1.850000e+00
 TC1eq  X4eh  1 3.950000e-01    1.850000e+00
 TX4eh  X4eq  1 3.950000e-01    2.500000e+00
 TX4eh  X1eq  1 3.950000e-01    2.500000e+00
 TX4eh  X2eq  1 3.950000e-01    2.500000e+00
 TX4eh  X3eq  1 3.950000e-01    2.500000e+00
  TX3e  X3eh  1 3.950000e-01    2.110000e+00
 TX3eh   X2e  1 3.950000e-01    2.310000e+00
 TX3eh   X1e  1 3.950000e-01    2.310000e+00
  TP6q  X3eh  1 3.950000e-01    2.500000e+00
  TP5q  X3eh  1 3.950000e-01    2.500000e+00
  TP4q  X3eh  1 3.950000e-01    2.500000e+00
  TP3q  X3eh  1 3.950000e-01    2.700000e+00
  TP2q  X3eh  1 3.950000e-01    2.700000e+00
  TP1q  X3eh  1 3.950000e-01    2.700000e+00
  TN6q  X3eh  1 3.950000e-01    2.700000e+00
  TN5q  X3eh  1 3.950000e-01    2.940000e+00
  TN4q  X3eh  1 3.950000e-01    3.190000e+00
  TN3q  X3eh  1 3.950000e-01    2.940000e+00
  TN2q  X3eh  1 3.950000e-01    2.940000e+00
  TN1q  X3eh  1 3.950000e-01    2.940000e+00
  TC6q  X3eh  1 3.950000e-01    2.940000e+00
  TC5q  X3eh  1 3.950000e-01    2.700000e+00
  TC4q  X3eh  1 3.950000e-01    2.700000e+00
  TC3q  X3eh  1 3.950000e-01    2.700000e+00
  TC2q  X3eh  1 3.950000e-01    2.700000e+00
  TC1q  X3eh  1 3.950000e-01    2.700000e+00
  TX4q  X3eh  1 3.950000e-01    2.940000e+00
  TX3q  X3eh  1 3.950000e-01    2.940000e+00
 TX3eh   X2q  1 3.950000e-01    3.190000e+00
 TX3eh   X1q  1 3.950000e-01    3.190000e+00
 TP6dq  X3eh  1 3.950000e-01    2.500000e+00
 TP5dq  X3eh  1 3.950000e-01    2.500000e+00
 TP4dq  X3eh  1 3.950000e-01    2.500000e+00
 TP3dq  X3eh  1 3.950000e-01    2.700000e+00
 TP2dq  X3eh  1 3.950000e-01    2.700000e+00
 TP1dq  X3eh  1 3.950000e-01    2.700000e+00
 TN6dq  X3eh  1 3.950000e-01    2.700000e+00
 TN5dq  X3eh  1 3.950000e-01    2.940000e+00
 TN4dq  X3eh  1 3.950000e-01    3.190000e+00
 TN3dq  X3eh  1 3.950000e-01    2.940000e+00
 TN2dq  X3eh  1 3.950000e-01    2.940000e+00
 TN1dq  X3eh  1 3.950000e-01    2.940000e+00
 TP6aq  X3eh  1 3.950000e-01    2.110000e+00
 TP5aq  X3eh  1 3.950000e-01    2.110000e+00
 TP4aq  X3eh  1 3.950000e-01    2.110000e+00
 TP3aq  X3eh  1 3.950000e-01    2.310000e+00
 TP2aq  X3eh  1 3.950000e-01    2.310000e+00
 TP1aq  X3eh  1 3.950000e-01    2.310000e+00
 TN6aq  X3eh  1 3.950000e-01    2.310000e+00
 TN5aq  X3eh  1 3.950000e-01    2.500000e+00
 TN4aq  X3eh  1 3.950000e-01    2.700000e+00
 TN3aq  X3eh  1 3.950000e-01    2.500000e+00
 TN2aq  X3eh  1 3.950000e-01    2.500000e+00
 TN1aq  X3eh  1 3.950000e-01    2.500000e+00
 TC6vq  X3eh  1 3.950000e-01    3.190000e+00
 TC5vq  X3eh  1 3.950000e-01    2.940000e+00
 TC4vq  X3eh  1 3.950000e-01    2.940000e+00
 TC3vq  X3eh  1 3.950000e-01    2.940000e+00
 TC2vq  X3eh  1 3.950000e-01    2.940000e+00
 TC1vq  X3eh  1 3.950000e-01    2.940000e+00
 TX4vq  X3eh  1 3.950000e-01    3.190000e+00
 TX3vq  X3eh  1 3.950000e-01    3.190000e+00
 TX3eh  X2vq  1 3.950000e-01    3.430000e+00
 TX3eh  X1vq  1 3.950000e-01    3.430000e+00
 TC6eq  X3eh  1 3.950000e-01    2.500000e+00
 TC5eq  X3eh  1 3.950000e-01    2.310000e+00
 TC4eq  X3eh  1 3.950000e-01    2.310000e+00
 TC3eq  X3eh  1 3.950000e-01    2.310000e+00
 TC2eq  X3eh  1 3.950000e-01    2.310000e+00
 TC1eq  X3eh  1 3.950000e-01    2.310000e+00
 TX4eq  X3eh  1 3.950000e-01    2.500000e+00
 TX3eh  X3eq  1 3.950000e-01    2.500000e+00
 TX3eh  X1eq  1 3.950000e-01    2.700000e+00
 TX3eh  X2eq  1 3.950000e-01    2.700000e+00
  TX2e  X2eh  1 3.950000e-01    2.310000e+00
 TX2eh   X1e  1 3.950000e-01    2.310000e+00
  TP6q  X2eh  1 3.950000e-01    2.310000e+00
  TP5q  X2eh  1 3.950000e-01    2.500000e+00
  TP4q  X2eh  1 3.950000e-01    2.500000e+00
  TP3q  X2eh  1 3.950000e-01    2.500000e+00
  TP2q  X2eh  1 3.950000e-01    2.500000e+00
  TP1q  X2eh  1 3.950000e-01    2.500000e+00
  TN6q  X2eh  1 3.950000e-01    2.500000e+00
  TN5q  X2eh  1 3.950000e-01    2.700000e+00
  TN4q  X2eh  1 3.950000e-01    2.700000e+00
  TN3q  X2eh  1 3.950000e-01    2.700000e+00
  TN2q  X2eh  1 3.950000e-01    2.700000e+00
  TN1q  X2eh  1 3.950000e-01    2.700000e+00
  TC6q  X2eh  1 3.950000e-01    2.940000e+00
  TC5q  X2eh  1 3.950000e-01    2.700000e+00
  TC4q  X2eh  1 3.950000e-01    2.700000e+00
  TC3q  X2eh  1 3.950000e-01    2.700000e+00
  TC2q  X2eh  1 3.950000e-01    2.700000e+00
  TC1q  X2eh  1 3.950000e-01    2.700000e+00
  TX4q  X2eh  1 3.950000e-01    2.940000e+00
  TX3q  X2eh  1 3.950000e-01    3.190000e+00
  TX2q  X2eh  1 3.950000e-01    3.190000e+00
 TX2eh   X1q  1 3.950000e-01    3.190000e+00
 TP6dq  X2eh  1 3.950000e-01    2.310000e+00
 TP5dq  X2eh  1 3.950000e-01    2.500000e+00
 TP4dq  X2eh  1 3.950000e-01    2.500000e+00
 TP3dq  X2eh  1 3.950000e-01    2.500000e+00
 TP2dq  X2eh  1 3.950000e-01    2.500000e+00
 TP1dq  X2eh  1 3.950000e-01    2.500000e+00
 TN6dq  X2eh  1 3.950000e-01    2.500000e+00
 TN5dq  X2eh  1 3.950000e-01    2.700000e+00
 TN4dq  X2eh  1 3.950000e-01    2.700000e+00
 TN3dq  X2eh  1 3.950000e-01    2.700000e+00
 TN2dq  X2eh  1 3.950000e-01    2.700000e+00
 TN1dq  X2eh  1 3.950000e-01    2.700000e+00
 TP6aq  X2eh  1 3.950000e-01    1.850000e+00
 TP5aq  X2eh  1 3.950000e-01    2.110000e+00
 TP4aq  X2eh  1 3.950000e-01    2.110000e+00
 TP3aq  X2eh  1 3.950000e-01    2.110000e+00
 TP2aq  X2eh  1 3.950000e-01    2.110000e+00
 TP1aq  X2eh  1 3.950000e-01    2.110000e+00
 TN6aq  X2eh  1 3.950000e-01    2.110000e+00
 TN5aq  X2eh  1 3.950000e-01    2.310000e+00
 TN4aq  X2eh  1 3.950000e-01    2.310000e+00
 TN3aq  X2eh  1 3.950000e-01    2.310000e+00
 TN2aq  X2eh  1 3.950000e-01    2.310000e+00
 TN1aq  X2eh  1 3.950000e-01    2.310000e+00
 TC6vq  X2eh  1 3.950000e-01    3.190000e+00
 TC5vq  X2eh  1 3.950000e-01    2.940000e+00
 TC4vq  X2eh  1 3.950000e-01    2.940000e+00
 TC3vq  X2eh  1 3.950000e-01    2.940000e+00
 TC2vq  X2eh  1 3.950000e-01    2.940000e+00
 TC1vq  X2eh  1 3.950000e-01    2.940000e+00
 TX4vq  X2eh  1 3.950000e-01    3.190000e+00
 TX3vq  X2eh  1 3.950000e-01    3.430000e+00
 TX2vq  X2eh  1 3.950000e-01    3.430000e+00
 TX2eh  X1vq  1 3.950000e-01    3.430000e+00
 TC6eq  X2eh  1 3.950000e-01    2.500000e+00
 TC5eq  X2eh  1 3.950000e-01    2.310000e+00
 TC4eq  X2eh  1 3.950000e-01    2.310000e+00
 TC3eq  X2eh  1 3.950000e-01    2.310000e+00
 TC2eq  X2eh  1 3.950000e-01    2.310000e+00
 TC1eq  X2eh  1 3.950000e-01    2.310000e+00
 TX4eq  X2eh  1 3.950000e-01    2.500000e+00
 TX3eq  X2eh  1 3.950000e-01    2.700000e+00
 TX2eh  X2eq  1 3.950000e-01    2.700000e+00
 TX2eh  X1eq  1 3.950000e-01    2.700000e+00
  TX1e  X1eh  1 3.950000e-01    2.500000e+00
  TP6q  X1eh  1 3.950000e-01    2.110000e+00
  TP5q  X1eh  1 3.950000e-01    2.110000e+00
  TP4q  X1eh  1 3.950000e-01    2.310000e+00
  TP3q  X1eh  1 3.950000e-01    2.310000e+00
  TP2q  X1eh  1 3.950000e-01    2.310000e+00
  TP1q  X1eh  1 3.950000e-01    2.310000e+00
  TN6q  X1eh  1 3.950000e-01    2.310000e+00
  TN5q  X1eh  1 3.950000e-01    2.500000e+00
  TN4q  X1eh  1 3.950000e-01    2.500000e+00
  TN3q  X1eh  1 3.950000e-01    2.700000e+00
  TN2q  X1eh  1 3.950000e-01    2.700000e+00
  TN1q  X1eh  1 3.950000e-01    2.700000e+00
  TC6q  X1eh  1 3.950000e-01    2.940000e+00
  TC5q  X1eh  1 3.950000e-01    2.940000e+00
  TC4q  X1eh  1 3.950000e-01    2.940000e+00
  TC3q  X1eh  1 3.950000e-01    2.940000e+00
  TC2q  X1eh  1 3.950000e-01    2.700000e+00
  TC1q  X1eh  1 3.950000e-01    2.700000e+00
  TX4q  X1eh  1 3.950000e-01    2.940000e+00
  TX3q  X1eh  1 3.950000e-01    3.190000e+00
  TX2q  X1eh  1 3.950000e-01    3.190000e+00
  TX1q  X1eh  1 3.950000e-01    3.430000e+00
 TP6dq  X1eh  1 3.950000e-01    2.110000e+00
 TP5dq  X1eh  1 3.950000e-01    2.110000e+00
 TP4dq  X1eh  1 3.950000e-01    2.310000e+00
 TP3dq  X1eh  1 3.950000e-01    2.310000e+00
 TP2dq  X1eh  1 3.950000e-01    2.310000e+00
 TP1dq  X1eh  1 3.950000e-01    2.310000e+00
 TN6dq  X1eh  1 3.950000e-01    2.310000e+00
 TN5dq  X1eh  1 3.950000e-01    2.500000e+00
 TN4dq  X1eh  1 3.950000e-01    2.500000e+00
 TN3dq  X1eh  1 3.950000e-01    2.700000e+00
 TN2dq  X1eh  1 3.950000e-01    2.700000e+00
 TN1dq  X1eh  1 3.950000e-01    2.700000e+00
 TP6aq  X1eh  1 3.950000e-01    1.670000e+00
 TP5aq  X1eh  1 3.950000e-01    1.670000e+00
 TP4aq  X1eh  1 3.950000e-01    1.850000e+00
 TP3aq  X1eh  1 3.950000e-01    1.850000e+00
 TP2aq  X1eh  1 3.950000e-01    1.850000e+00
 TP1aq  X1eh  1 3.950000e-01    1.850000e+00
 TN6aq  X1eh  1 3.950000e-01    1.850000e+00
 TN5aq  X1eh  1 3.950000e-01    2.110000e+00
 TN4aq  X1eh  1 3.950000e-01    2.110000e+00
 TN3aq  X1eh  1 3.950000e-01    2.310000e+00
 TN2aq  X1eh  1 3.950000e-01    2.310000e+00
 TN1aq  X1eh  1 3.950000e-01    2.310000e+00
 TC6vq  X1eh  1 3.950000e-01    3.190000e+00
 TC5vq  X1eh  1 3.950000e-01    3.190000e+00
 TC4vq  X1eh  1 3.950000e-01    3.190000e+00
 TC3vq  X1eh  1 3.950000e-01    3.190000e+00
 TC2vq  X1eh  1 3.950000e-01    2.940000e+00
 TC1vq  X1eh  1 3.950000e-01    2.940000e+00
 TX4vq  X1eh  1 3.950000e-01    3.190000e+00
 TX3vq  X1eh  1 3.950000e-01    3.430000e+00
 TX2vq  X1eh  1 3.950000e-01    3.430000e+00
 TX1vq  X1eh  1 3.950000e-01    3.670000e+00
 TC6eq  X1eh  1 3.950000e-01    2.500000e+00
 TC5eq  X1eh  1 3.950000e-01    2.500000e+00
 TC4eq  X1eh  1 3.950000e-01    2.500000e+00
 TC3eq  X1eh  1 3.950000e-01    2.500000e+00
 TC2eq  X1eh  1 3.950000e-01    2.310000e+00
 TC1eq  X1eh  1 3.950000e-01    2.310000e+00
 TX4eq  X1eh  1 3.950000e-01    2.500000e+00
 TX3eq  X1eh  1 3.950000e-01    2.700000e+00
 TX2eq  X1eh  1 3.950000e-01    2.700000e+00
 TX1eh  X1eq  1 3.950000e-01    2.940000e+00
  TC6e  X1eh  1 3.950000e-01    2.110000e+00
  TC5e  X1eh  1 3.950000e-01    2.110000e+00
  TC4e  X1eh  1 3.950000e-01    2.110000e+00
  TC3e  X1eh  1 3.950000e-01    2.110000e+00
  TC2e  X1eh  1 3.950000e-01    1.850000e+00
  TC1e  X1eh  1 3.950000e-01    1.850000e+00
  TX4e  X1eh  1 3.950000e-01    2.110000e+00
  TX3e  X1eh  1 3.950000e-01    2.310000e+00
  TX2e  X1eh  1 3.950000e-01    2.310000e+00
  TC6v  X1eh  1 3.950000e-01    2.700000e+00
  TC5v  X1eh  1 3.950000e-01    2.700000e+00
  TC4v  X1eh  1 3.950000e-01    2.700000e+00
  TC3v  X1eh  1 3.950000e-01    2.700000e+00
  TC2v  X1eh  1 3.950000e-01    2.500000e+00
  TC1v  X1eh  1 3.950000e-01    2.500000e+00
  TX4v  X1eh  1 3.950000e-01    2.700000e+00
  TX3v  X1eh  1 3.950000e-01    2.940000e+00
  TX2v  X1eh  1 3.950000e-01    2.940000e+00
  TX1v  X1eh  1 3.950000e-01    3.190000e+00
  TP6d  X1eh  1 3.950000e-01    1.670000e+00
  TP5d  X1eh  1 3.950000e-01    1.670000e+00
  TP4d  X1eh  1 3.950000e-01    1.850000e+00
  TP3d  X1eh  1 3.950000e-01    1.850000e+00
  TP2d  X1eh  1 3.950000e-01    1.850000e+00
  TP1d  X1eh  1 3.950000e-01    1.850000e+00
  TN6d  X1eh  1 3.950000e-01    1.850000e+00
  TN5d  X1eh  1 3.950000e-01    2.110000e+00
  TN4d  X1eh  1 3.950000e-01    2.110000e+00
  TN3d  X1eh  1 3.950000e-01    2.310000e+00
  TN2d  X1eh  1 3.950000e-01    2.310000e+00
  TN1d  X1eh  1 3.950000e-01    2.310000e+00
  TP6a  X1eh  1 3.990000e-01    1.180000e+00
  TP5a  X1eh  1 3.990000e-01    1.180000e+00
  TP4a  X1eh  1 3.980000e-01    1.450000e+00
  TP3a  X1eh  1 3.980000e-01    1.450000e+00
  TP2a  X1eh  1 3.980000e-01    1.450000e+00
  TP1a  X1eh  1 3.980000e-01    1.450000e+00
  TN6a  X1eh  1 3.980000e-01    1.450000e+00
  TN5a  X1eh  1 3.950000e-01    1.670000e+00
  TN4a  X1eh  1 3.950000e-01    1.670000e+00
  TN3a  X1eh  1 3.950000e-01    1.850000e+00
  TN2a  X1eh  1 3.950000e-01    1.850000e+00
  TN1a  X1eh  1 3.950000e-01    1.850000e+00
  TC6e  X2eh  1 3.950000e-01    2.110000e+00
  TC5e  X2eh  1 3.950000e-01    1.850000e+00
  TC4e  X2eh  1 3.950000e-01    1.850000e+00
  TC3e  X2eh  1 3.950000e-01    1.850000e+00
  TC2e  X2eh  1 3.950000e-01    1.850000e+00
  TC1e  X2eh  1 3.950000e-01    1.850000e+00
  TX4e  X2eh  1 3.950000e-01    2.110000e+00
  TX3e  X2eh  1 3.950000e-01    2.310000e+00
  TC6v  X2eh  1 3.950000e-01    2.700000e+00
  TC5v  X2eh  1 3.950000e-01    2.500000e+00
  TC4v  X2eh  1 3.950000e-01    2.500000e+00
  TC3v  X2eh  1 3.950000e-01    2.500000e+00
  TC2v  X2eh  1 3.950000e-01    2.500000e+00
  TC1v  X2eh  1 3.950000e-01    2.500000e+00
  TX4v  X2eh  1 3.950000e-01    2.700000e+00
  TX3v  X2eh  1 3.950000e-01    2.940000e+00
  TX2v  X2eh  1 3.950000e-01    2.940000e+00
 TX2eh   X1v  1 3.950000e-01    2.940000e+00
  TP6d  X2eh  1 3.950000e-01    1.850000e+00
  TP5d  X2eh  1 3.950000e-01    2.110000e+00
  TP4d  X2eh  1 3.950000e-01    2.110000e+00
  TP3d  X2eh  1 3.950000e-01    2.110000e+00
  TP2d  X2eh  1 3.950000e-01    2.110000e+00
  TP1d  X2eh  1 3.950000e-01    2.110000e+00
  TN6d  X2eh  1 3.950000e-01    2.110000e+00
  TN5d  X2eh  1 3.950000e-01    2.310000e+00
  TN4d  X2eh  1 3.950000e-01    2.310000e+00
  TN3d  X2eh  1 3.950000e-01    2.310000e+00
  TN2d  X2eh  1 3.950000e-01    2.310000e+00
  TN1d  X2eh  1 3.950000e-01    2.310000e+00
  TP6a  X2eh  1 3.980000e-01    1.450000e+00
  TP5a  X2eh  1 3.950000e-01    1.670000e+00
  TP4a  X2eh  1 3.950000e-01    1.670000e+00
  TP3a  X2eh  1 3.950000e-01    1.670000e+00
  TP2a  X2eh  1 3.950000e-01    1.670000e+00
  TP1a  X2eh  1 3.950000e-01    1.670000e+00
  TN6a  X2eh  1 3.950000e-01    1.670000e+00
  TN5a  X2eh  1 3.950000e-01    1.850000e+00
  TN4a  X2eh  1 3.950000e-01    1.850000e+00
  TN3a  X2eh  1 3.950000e-01    1.850000e+00
  TN2a  X2eh  1 3.950000e-01    1.850000e+00
  TN1a  X2eh  1 3.950000e-01    1.850000e+00
  TC6e  X3eh  1 3.950000e-01    2.110000e+00
  TC5e  X3eh  1 3.950000e-01    1.850000e+00
  TC4e  X3eh  1 3.950000e-01    1.850000e+00
  TC3e  X3eh  1 3.950000e-01    1.850000e+00
  TC2e  X3eh  1 3.950000e-01    1.850000e+00
  TC1e  X3eh  1 3.950000e-01    1.850000e+00
  TX4e  X3eh  1 3.950000e-01    2.110000e+00
  TC6v  X3eh  1 3.950000e-01    2.700000e+00
  TC5v  X3eh  1 3.950000e-01    2.500000e+00
  TC4v  X3eh  1 3.950000e-01    2.500000e+00
  TC3v  X3eh  1 3.950000e-01    2.500000e+00
  TC2v  X3eh  1 3.950000e-01    2.500000e+00
  TC1v  X3eh  1 3.950000e-01    2.500000e+00
  TX4v  X3eh  1 3.950000e-01    2.700000e+00
  TX3v  X3eh  1 3.950000e-01    2.700000e+00
 TX3eh   X2v  1 3.950000e-01    2.940000e+00
 TX3eh   X1v  1 3.950000e-01    2.940000e+00
  TP6d  X3eh  1 3.950000e-01    2.110000e+00
  TP5d  X3eh  1 3.950000e-01    2.110000e+00
  TP4d  X3eh  1 3.950000e-01    2.110000e+00
  TP3d  X3eh  1 3.950000e-01    2.310000e+00
  TP2d  X3eh  1 3.950000e-01    2.310000e+00
  TP1d  X3eh  1 3.950000e-01    2.310000e+00
  TN6d  X3eh  1 3.950000e-01    2.310000e+00
  TN5d  X3eh  1 3.950000e-01    2.500000e+00
  TN4d  X3eh  1 3.950000e-01    2.700000e+00
  TN3d  X3eh  1 3.950000e-01    2.500000e+00
  TN2d  X3eh  1 3.950000e-01    2.500000e+00
  TN1d  X3eh  1 3.950000e-01    2.500000e+00
  TP6a  X3eh  1 3.950000e-01    1.670000e+00
  TP5a  X3eh  1 3.950000e-01    1.670000e+00
  TP4a  X3eh  1 3.950000e-01    1.670000e+00
  TP3a  X3eh  1 3.950000e-01    1.850000e+00
  TP2a  X3eh  1 3.950000e-01    1.850000e+00
  TP1a  X3eh  1 3.950000e-01    1.850000e+00
  TN6a  X3eh  1 3.950000e-01    1.850000e+00
  TN5a  X3eh  1 3.950000e-01    2.110000e+00
  TN4a  X3eh  1 3.950000e-01    2.310000e+00
  TN3a  X3eh  1 3.950000e-01    2.110000e+00
  TN2a  X3eh  1 3.950000e-01    2.110000e+00
  TN1a  X3eh  1 3.950000e-01    2.110000e+00
  TC6e  X4eh  1 3.950000e-01    2.110000e+00
  TC5e  X4eh  1 3.950000e-01    1.850000e+00
  TC4e  X4eh  1 3.950000e-01    1.850000e+00
  TC3e  X4eh  1 3.950000e-01    1.850000e+00
  TC2e  X4eh  1 3.980000e-01    1.450000e+00
  TC1e  X4eh  1 3.980000e-01    1.450000e+00
  TC6v  X4eh  1 3.950000e-01    2.700000e+00
  TC5v  X4eh  1 3.950000e-01    2.500000e+00
  TC4v  X4eh  1 3.950000e-01    2.500000e+00
  TC3v  X4eh  1 3.950000e-01    2.500000e+00
  TC2v  X4eh  1 3.950000e-01    2.110000e+00
  TC1v  X4eh  1 3.950000e-01    2.110000e+00
  TX4v  X4eh  1 3.950000e-01    2.700000e+00
 TX4eh   X3v  1 3.950000e-01    2.700000e+00
 TX4eh   X2v  1 3.950000e-01    2.700000e+00
 TX4eh   X1v  1 3.950000e-01    2.700000e+00
  TP6d  X4eh  1 3.950000e-01    2.110000e+00
  TP5d  X4eh  1 3.950000e-01    2.310000e+00
  TP4d  X4eh  1 3.950000e-01    2.310000e+00
  TP3d  X4eh  1 3.950000e-01    2.310000e+00
  TP2d  X4eh  1 3.950000e-01    2.310000e+00
  TP1d  X4eh  1 3.950000e-01    2.310000e+00
  TN6d  X4eh  1 3.950000e-01    2.500000e+00
  TN5d  X4eh  1 3.950000e-01    2.700000e+00
  TN4d  X4eh  1 3.950000e-01    2.940000e+00
  TN3d  X4eh  1 3.950000e-01    2.700000e+00
  TN2d  X4eh  1 3.950000e-01    2.700000e+00
  TN1d  X4eh  1 3.950000e-01    2.500000e+00
  TP6a  X4eh  1 3.950000e-01    1.670000e+00
  TP5a  X4eh  1 3.950000e-01    1.850000e+00
  TP4a  X4eh  1 3.950000e-01    1.850000e+00
  TP3a  X4eh  1 3.950000e-01    1.850000e+00
  TP2a  X4eh  1 3.950000e-01    1.850000e+00
  TP1a  X4eh  1 3.950000e-01    1.850000e+00
  TN6a  X4eh  1 3.950000e-01    2.110000e+00
  TN5a  X4eh  1 3.950000e-01    2.310000e+00
  TN4a  X4eh  1 3.950000e-01    2.500000e+00
  TN3a  X4eh  1 3.950000e-01    2.310000e+00
  TN2a  X4eh  1 3.950000e-01    2.310000e+00
  TN1a  X4eh  1 3.950000e-01    2.110000e+00
  TC6e  C1eh  1 3.980000e-01    1.450000e+00
  TC5e  C1eh  1 3.950000e-01    1.670000e+00
  TC4e  C1eh  1 3.950000e-01    1.670000e+00
  TC3e  C1eh  1 3.950000e-01    2.110000e+00
  TC2e  C1eh  1 3.950000e-01    2.310000e+00
  TC6v  C1eh  1 3.950000e-01    2.110000e+00
  TC5v  C1eh  1 3.950000e-01    2.310000e+00
  TC4v  C1eh  1 3.950000e-01    2.310000e+00
  TC3v  C1eh  1 3.950000e-01    2.700000e+00
  TC2v  C1eh  1 3.950000e-01    2.940000e+00
  TC1v  C1eh  1 3.950000e-01    2.700000e+00
 TC1eh   X4v  1 3.950000e-01    2.110000e+00
 TC1eh   X3v  1 3.950000e-01    2.500000e+00
 TC1eh   X2v  1 3.950000e-01    2.500000e+00
 TC1eh   X1v  1 3.950000e-01    2.500000e+00
  TP6d  C1eh  1 4.040000e-01    8.300000e-01
  TP5d  C1eh  1 3.990000e-01    1.180000e+00
  TP4d  C1eh  1 3.990000e-01    1.180000e+00
  TP3d  C1eh  1 3.990000e-01    1.180000e+00
  TP2d  C1eh  1 3.980000e-01    1.450000e+00
  TP1d  C1eh  1 3.980000e-01    1.450000e+00
  TN6d  C1eh  1 3.950000e-01    1.670000e+00
  TN5d  C1eh  1 3.950000e-01    1.670000e+00
  TN4d  C1eh  1 3.950000e-01    1.670000e+00
  TN3d  C1eh  1 3.950000e-01    1.850000e+00
  TN2d  C1eh  1 3.950000e-01    1.850000e+00
  TN1d  C1eh  1 3.950000e-01    1.850000e+00
  TP6a  C1eh  1 5.110000e-01    6.590000e-01
  TP5a  C1eh  1 4.040000e-01    8.300000e-01
  TP4a  C1eh  1 4.040000e-01    8.300000e-01
  TP3a  C1eh  1 4.040000e-01    8.300000e-01
  TP2a  C1eh  1 4.010000e-01    9.830000e-01
  TP1a  C1eh  1 4.010000e-01    9.830000e-01
  TN6a  C1eh  1 3.990000e-01    1.180000e+00
  TN5a  C1eh  1 3.990000e-01    1.180000e+00
  TN4a  C1eh  1 3.990000e-01    1.180000e+00
  TN3a  C1eh  1 3.980000e-01    1.450000e+00
  TN2a  C1eh  1 3.980000e-01    1.450000e+00
  TN1a  C1eh  1 3.980000e-01    1.450000e+00
  TC6e  C2eh  1 3.950000e-01    1.670000e+00
  TC5e  C2eh  1 3.950000e-01    1.670000e+00
  TC4e  C2eh  1 3.950000e-01    1.850000e+00
  TC3e  C2eh  1 3.950000e-01    2.110000e+00
  TC6v  C2eh  1 3.950000e-01    2.310000e+00
  TC5v  C2eh  1 3.950000e-01    2.310000e+00
  TC4v  C2eh  1 3.950000e-01    2.500000e+00
  TC3v  C2eh  1 3.950000e-01    2.700000e+00
  TC2v  C2eh  1 3.950000e-01    2.700000e+00
 TC2eh   C1v  1 3.950000e-01    2.940000e+00
 TC2eh   X4v  1 3.950000e-01    2.110000e+00
 TC2eh   X3v  1 3.950000e-01    2.500000e+00
 TC2eh   X2v  1 3.950000e-01    2.500000e+00
 TC2eh   X1v  1 3.950000e-01    2.500000e+00
  TP6d  C2eh  1 3.990000e-01    1.180000e+00
  TP5d  C2eh  1 3.980000e-01    1.450000e+00
  TP4d  C2eh  1 3.980000e-01    1.450000e+00
  TP3d  C2eh  1 3.980000e-01    1.450000e+00
  TP2d  C2eh  1 3.950000e-01    1.670000e+00
  TP1d  C2eh  1 3.950000e-01    1.670000e+00
  TN6d  C2eh  1 3.950000e-01    1.850000e+00
  TN5d  C2eh  1 3.950000e-01    1.850000e+00
  TN4d  C2eh  1 3.950000e-01    1.850000e+00
  TN3d  C2eh  1 3.950000e-01    2.110000e+00
  TN2d  C2eh  1 3.950000e-01    2.110000e+00
  TN1d  C2eh  1 3.950000e-01    2.110000e+00
  TP6a  C2eh  1 4.040000e-01    8.300000e-01
  TP5a  C2eh  1 4.010000e-01    9.830000e-01
  TP4a  C2eh  1 4.010000e-01    9.830000e-01
  TP3a  C2eh  1 4.010000e-01    9.830000e-01
  TP2a  C2eh  1 3.990000e-01    1.180000e+00
  TP1a  C2eh  1 3.990000e-01    1.180000e+00
  TN6a  C2eh  1 3.980000e-01    1.450000e+00
  TN5a  C2eh  1 3.980000e-01    1.450000e+00
  TN4a  C2eh  1 3.980000e-01    1.450000e+00
  TN3a  C2eh  1 3.950000e-01    1.670000e+00
  TN2a  C2eh  1 3.950000e-01    1.670000e+00
  TN1a  C2eh  1 3.950000e-01    1.670000e+00
  TC6e  C3eh  1 3.950000e-01    1.850000e+00
  TC5e  C3eh  1 3.950000e-01    1.850000e+00
  TC4e  C3eh  1 3.950000e-01    2.110000e+00
  TC6v  C3eh  1 3.950000e-01    2.500000e+00
  TC5v  C3eh  1 3.950000e-01    2.500000e+00
  TC4v  C3eh  1 3.950000e-01    2.700000e+00
  TC3v  C3eh  1 3.950000e-01    2.700000e+00
 TC3eh   C2v  1 3.950000e-01    2.700000e+00
 TC3eh   C1v  1 3.950000e-01    2.700000e+00
 TC3eh   X4v  1 3.950000e-01    2.500000e+00
 TC3eh   X3v  1 3.950000e-01    2.500000e+00
 TC3eh   X2v  1 3.950000e-01    2.500000e+00
 TC3eh   X1v  1 3.950000e-01    2.700000e+00
  TP6d  C3eh  1 3.990000e-01    1.180000e+00
  TP5d  C3eh  1 3.980000e-01    1.450000e+00
  TP4d  C3eh  1 3.980000e-01    1.450000e+00
  TP3d  C3eh  1 3.980000e-01    1.450000e+00
  TP2d  C3eh  1 3.950000e-01    1.670000e+00
  TP1d  C3eh  1 3.950000e-01    1.670000e+00
  TN6d  C3eh  1 3.950000e-01    1.850000e+00
  TN5d  C3eh  1 3.950000e-01    2.110000e+00
  TN4d  C3eh  1 3.950000e-01    2.110000e+00
  TN3d  C3eh  1 3.950000e-01    2.110000e+00
  TN2d  C3eh  1 3.950000e-01    2.310000e+00
  TN1d  C3eh  1 3.950000e-01    2.310000e+00
  TP6a  C3eh  1 4.040000e-01    8.300000e-01
  TP5a  C3eh  1 4.010000e-01    9.830000e-01
  TP4a  C3eh  1 4.010000e-01    9.830000e-01
  TP3a  C3eh  1 4.010000e-01    9.830000e-01
  TP2a  C3eh  1 3.990000e-01    1.180000e+00
  TP1a  C3eh  1 3.990000e-01    1.180000e+00
  TN6a  C3eh  1 3.980000e-01    1.450000e+00
  TN5a  C3eh  1 3.950000e-01    1.670000e+00
  TN4a  C3eh  1 3.950000e-01    1.670000e+00
  TN3a  C3eh  1 3.950000e-01    1.670000e+00
  TN2a  C3eh  1 3.950000e-01    1.850000e+00
  TN1a  C3eh  1 3.950000e-01    1.850000e+00
  TC6e  C4eh  1 3.950000e-01    2.110000e+00
  TC5e  C4eh  1 3.950000e-01    2.110000e+00
  TC6v  C4eh  1 3.950000e-01    2.700000e+00
  TC5v  C4eh  1 3.950000e-01    2.700000e+00
  TC4v  C4eh  1 3.950000e-01    2.700000e+00
 TC4eh   C3v  1 3.950000e-01    2.700000e+00
 TC4eh   C2v  1 3.950000e-01    2.500000e+00
 TC4eh   C1v  1 3.950000e-01    2.310000e+00
 TC4eh   X4v  1 3.950000e-01    2.500000e+00
 TC4eh   X3v  1 3.950000e-01    2.500000e+00
 TC4eh   X2v  1 3.950000e-01    2.500000e+00
 TC4eh   X1v  1 3.950000e-01    2.700000e+00
  TP6d  C4eh  1 3.980000e-01    1.450000e+00
  TP5d  C4eh  1 3.950000e-01    1.670000e+00
  TP4d  C4eh  1 3.950000e-01    1.670000e+00
  TP3d  C4eh  1 3.950000e-01    1.850000e+00
  TP2d  C4eh  1 3.950000e-01    1.850000e+00
  TP1d  C4eh  1 3.950000e-01    1.850000e+00
  TN6d  C4eh  1 3.950000e-01    2.110000e+00
  TN5d  C4eh  1 3.950000e-01    2.110000e+00
  TN4d  C4eh  1 3.950000e-01    2.310000e+00
  TN3d  C4eh  1 3.950000e-01    2.310000e+00
  TN2d  C4eh  1 3.950000e-01    2.310000e+00
  TN1d  C4eh  1 3.950000e-01    2.500000e+00
  TP6a  C4eh  1 4.010000e-01    9.830000e-01
  TP5a  C4eh  1 3.990000e-01    1.180000e+00
  TP4a  C4eh  1 3.990000e-01    1.180000e+00
  TP3a  C4eh  1 3.980000e-01    1.450000e+00
  TP2a  C4eh  1 3.980000e-01    1.450000e+00
  TP1a  C4eh  1 3.980000e-01    1.450000e+00
  TN6a  C4eh  1 3.950000e-01    1.670000e+00
  TN5a  C4eh  1 3.950000e-01    1.670000e+00
  TN4a  C4eh  1 3.950000e-01    1.850000e+00
  TN3a  C4eh  1 3.950000e-01    1.850000e+00
  TN2a  C4eh  1 3.950000e-01    1.850000e+00
  TN1a  C4eh  1 3.950000e-01    2.110000e+00
  TC6e  C5eh  1 3.950000e-01    2.110000e+00
  TC6v  C5eh  1 3.950000e-01    2.700000e+00
  TC5v  C5eh  1 3.950000e-01    2.700000e+00
 TC5eh   C4v  1 3.950000e-01    2.700000e+00
 TC5eh   C3v  1 3.950000e-01    2.500000e+00
 TC5eh   C2v  1 3.950000e-01    2.310000e+00
 TC5eh   C1v  1 3.950000e-01    2.310000e+00
 TC5eh   X4v  1 3.950000e-01    2.500000e+00
 TC5eh   X3v  1 3.950000e-01    2.500000e+00
 TC5eh   X2v  1 3.950000e-01    2.500000e+00
 TC5eh   X1v  1 3.950000e-01    2.700000e+00
  TP6d  C5eh  1 3.950000e-01    1.670000e+00
  TP5d  C5eh  1 3.950000e-01    1.850000e+00
  TP4d  C5eh  1 3.950000e-01    1.850000e+00
  TP3d  C5eh  1 3.950000e-01    2.110000e+00
  TP2d  C5eh  1 3.950000e-01    2.110000e+00
  TP1d  C5eh  1 3.950000e-01    2.110000e+00
  TN6d  C5eh  1 3.950000e-01    2.310000e+00
  TN5d  C5eh  1 3.950000e-01    2.310000e+00
  TN4d  C5eh  1 3.950000e-01    2.310000e+00
  TN3d  C5eh  1 3.950000e-01    2.310000e+00
  TN2d  C5eh  1 3.950000e-01    2.310000e+00
  TN1d  C5eh  1 3.950000e-01    2.500000e+00
  TP6a  C5eh  1 3.990000e-01    1.180000e+00
  TP5a  C5eh  1 3.980000e-01    1.450000e+00
  TP4a  C5eh  1 3.980000e-01    1.450000e+00
  TP3a  C5eh  1 3.950000e-01    1.670000e+00
  TP2a  C5eh  1 3.950000e-01    1.670000e+00
  TP1a  C5eh  1 3.950000e-01    1.670000e+00
  TN6a  C5eh  1 3.950000e-01    1.850000e+00
  TN5a  C5eh  1 3.950000e-01    1.850000e+00
  TN4a  C5eh  1 3.950000e-01    1.850000e+00
  TN3a  C5eh  1 3.950000e-01    1.850000e+00
  TN2a  C5eh  1 3.950000e-01    1.850000e+00
  TN1a  C5eh  1 3.950000e-01    2.110000e+00
  TC6v  C6eh  1 3.950000e-01    2.940000e+00
 TC6eh   C5v  1 3.950000e-01    2.700000e+00
 TC6eh   C4v  1 3.950000e-01    2.700000e+00
 TC6eh   C3v  1 3.950000e-01    2.500000e+00
 TC6eh   C2v  1 3.950000e-01    2.310000e+00
 TC6eh   C1v  1 3.950000e-01    2.110000e+00
 TC6eh   X4v  1 3.950000e-01    2.700000e+00
 TC6eh   X3v  1 3.950000e-01    2.700000e+00
 TC6eh   X2v  1 3.950000e-01    2.700000e+00
 TC6eh   X1v  1 3.950000e-01    2.700000e+00
  TP6d  C6eh  1 3.950000e-01    1.850000e+00
  TP5d  C6eh  1 3.950000e-01    1.850000e+00
  TP4d  C6eh  1 3.950000e-01    2.110000e+00
  TP3d  C6eh  1 3.950000e-01    2.310000e+00
  TP2d  C6eh  1 3.950000e-01    2.310000e+00
  TP1d  C6eh  1 3.950000e-01    2.310000e+00
  TN6d  C6eh  1 3.950000e-01    2.500000e+00
  TN5d  C6eh  1 3.950000e-01    2.500000e+00
  TN4d  C6eh  1 3.950000e-01    2.500000e+00
  TN3d  C6eh  1 3.950000e-01    2.500000e+00
  TN2d  C6eh  1 3.950000e-01    2.500000e+00
  TN1d  C6eh  1 3.950000e-01    2.700000e+00
  TP6a  C6eh  1 3.980000e-01    1.450000e+00
  TP5a  C6eh  1 3.980000e-01    1.450000e+00
  TP4a  C6eh  1 3.950000e-01    1.670000e+00
  TP3a  C6eh  1 3.950000e-01    1.850000e+00
  TP2a  C6eh  1 3.950000e-01    1.850000e+00
  TP1a  C6eh  1 3.950000e-01    1.850000e+00
  TN6a  C6eh  1 3.950000e-01    2.110000e+00
  TN5a  C6eh  1 3.950000e-01    2.110000e+00
  TN4a  C6eh  1 3.950000e-01    2.110000e+00
  TN3a  C6eh  1 3.950000e-01    2.110000e+00
  TN2a  C6eh  1 3.950000e-01    2.110000e+00
  TN1a  C6eh  1 3.950000e-01    2.310000e+00
  TC6v  X1vh  1 3.950000e-01    2.110000e+00
  TC5v  X1vh  1 3.950000e-01    2.110000e+00
  TC4v  X1vh  1 3.950000e-01    2.110000e+00
  TC3v  X1vh  1 3.950000e-01    2.110000e+00
  TC2v  X1vh  1 3.950000e-01    1.850000e+00
  TC1v  X1vh  1 3.950000e-01    1.850000e+00
  TX4v  X1vh  1 3.950000e-01    2.110000e+00
  TX3v  X1vh  1 3.950000e-01    2.310000e+00
  TX2v  X1vh  1 3.950000e-01    2.310000e+00
  TP6a  X1vh  1 3.950000e-01    1.670000e+00
  TP5a  X1vh  1 3.950000e-01    1.670000e+00
  TP4a  X1vh  1 3.950000e-01    1.850000e+00
  TP3a  X1vh  1 3.950000e-01    1.850000e+00
  TP2a  X1vh  1 3.950000e-01    1.850000e+00
  TP1a  X1vh  1 3.950000e-01    1.850000e+00
  TN6a  X1vh  1 3.950000e-01    1.850000e+00
  TN5a  X1vh  1 3.950000e-01    2.110000e+00
  TN4a  X1vh  1 3.950000e-01    2.110000e+00
  TN3a  X1vh  1 3.950000e-01    2.310000e+00
  TN2a  X1vh  1 3.950000e-01    2.310000e+00
  TN1a  X1vh  1 3.950000e-01    2.310000e+00
  TP6d  X1vh  1 3.990000e-01    1.180000e+00
  TP5d  X1vh  1 3.990000e-01    1.180000e+00
  TP4d  X1vh  1 3.980000e-01    1.450000e+00
  TP3d  X1vh  1 3.980000e-01    1.450000e+00
  TP2d  X1vh  1 3.980000e-01    1.450000e+00
  TP1d  X1vh  1 3.980000e-01    1.450000e+00
  TN6d  X1vh  1 3.980000e-01    1.450000e+00
  TN5d  X1vh  1 3.950000e-01    1.670000e+00
  TN4d  X1vh  1 3.950000e-01    1.670000e+00
  TN3d  X1vh  1 3.950000e-01    1.850000e+00
  TN2d  X1vh  1 3.950000e-01    1.850000e+00
  TN1d  X1vh  1 3.950000e-01    1.850000e+00
  TC6v  X2vh  1 3.950000e-01    2.110000e+00
  TC5v  X2vh  1 3.950000e-01    1.850000e+00
  TC4v  X2vh  1 3.950000e-01    1.850000e+00
  TC3v  X2vh  1 3.950000e-01    1.850000e+00
  TC2v  X2vh  1 3.950000e-01    1.850000e+00
  TC1v  X2vh  1 3.950000e-01    1.850000e+00
  TX4v  X2vh  1 3.950000e-01    2.110000e+00
  TX3v  X2vh  1 3.950000e-01    2.310000e+00
  TP6a  X2vh  1 3.950000e-01    1.850000e+00
  TP5a  X2vh  1 3.950000e-01    2.110000e+00
  TP4a  X2vh  1 3.950000e-01    2.110000e+00
  TP3a  X2vh  1 3.950000e-01    2.110000e+00
  TP2a  X2vh  1 3.950000e-01    2.110000e+00
  TP1a  X2vh  1 3.950000e-01    2.110000e+00
  TN6a  X2vh  1 3.950000e-01    2.110000e+00
  TN5a  X2vh  1 3.950000e-01    2.310000e+00
  TN4a  X2vh  1 3.950000e-01    2.310000e+00
  TN3a  X2vh  1 3.950000e-01    2.310000e+00
  TN2a  X2vh  1 3.950000e-01    2.310000e+00
  TN1a  X2vh  1 3.950000e-01    2.310000e+00
  TP6d  X2vh  1 3.980000e-01    1.450000e+00
  TP5d  X2vh  1 3.950000e-01    1.670000e+00
  TP4d  X2vh  1 3.950000e-01    1.670000e+00
  TP3d  X2vh  1 3.950000e-01    1.670000e+00
  TP2d  X2vh  1 3.950000e-01    1.670000e+00
  TP1d  X2vh  1 3.950000e-01    1.670000e+00
  TN6d  X2vh  1 3.950000e-01    1.670000e+00
  TN5d  X2vh  1 3.950000e-01    1.850000e+00
  TN4d  X2vh  1 3.950000e-01    1.850000e+00
  TN3d  X2vh  1 3.950000e-01    1.850000e+00
  TN2d  X2vh  1 3.950000e-01    1.850000e+00
  TN1d  X2vh  1 3.950000e-01    1.850000e+00
  TC6v  X3vh  1 3.950000e-01    2.110000e+00
  TC5v  X3vh  1 3.950000e-01    1.850000e+00
  TC4v  X3vh  1 3.950000e-01    1.850000e+00
  TC3v  X3vh  1 3.950000e-01    1.850000e+00
  TC2v  X3vh  1 3.950000e-01    1.850000e+00
  TC1v  X3vh  1 3.950000e-01    1.850000e+00
  TX4v  X3vh  1 3.950000e-01    2.110000e+00
  TP6a  X3vh  1 3.950000e-01    2.110000e+00
  TP5a  X3vh  1 3.950000e-01    2.110000e+00
  TP4a  X3vh  1 3.950000e-01    2.110000e+00
  TP3a  X3vh  1 3.950000e-01    2.310000e+00
  TP2a  X3vh  1 3.950000e-01    2.310000e+00
  TP1a  X3vh  1 3.950000e-01    2.310000e+00
  TN6a  X3vh  1 3.950000e-01    2.310000e+00
  TN5a  X3vh  1 3.950000e-01    2.500000e+00
  TN4a  X3vh  1 3.950000e-01    2.700000e+00
  TN3a  X3vh  1 3.950000e-01    2.500000e+00
  TN2a  X3vh  1 3.950000e-01    2.500000e+00
  TN1a  X3vh  1 3.950000e-01    2.500000e+00
  TP6d  X3vh  1 3.950000e-01    1.670000e+00
  TP5d  X3vh  1 3.950000e-01    1.670000e+00
  TP4d  X3vh  1 3.950000e-01    1.670000e+00
  TP3d  X3vh  1 3.950000e-01    1.850000e+00
  TP2d  X3vh  1 3.950000e-01    1.850000e+00
  TP1d  X3vh  1 3.950000e-01    1.850000e+00
  TN6d  X3vh  1 3.950000e-01    1.850000e+00
  TN5d  X3vh  1 3.950000e-01    2.110000e+00
  TN4d  X3vh  1 3.950000e-01    2.310000e+00
  TN3d  X3vh  1 3.950000e-01    2.110000e+00
  TN2d  X3vh  1 3.950000e-01    2.110000e+00
  TN1d  X3vh  1 3.950000e-01    2.110000e+00
  TC6v  X4vh  1 3.950000e-01    2.110000e+00
  TC5v  X4vh  1 3.950000e-01    1.850000e+00
  TC4v  X4vh  1 3.950000e-01    1.850000e+00
  TC3v  X4vh  1 3.950000e-01    1.850000e+00
  TC2v  X4vh  1 3.980000e-01    1.450000e+00
  TC1v  X4vh  1 3.980000e-01    1.450000e+00
  TP6a  X4vh  1 3.950000e-01    2.110000e+00
  TP5a  X4vh  1 3.950000e-01    2.310000e+00
  TP4a  X4vh  1 3.950000e-01    2.310000e+00
  TP3a  X4vh  1 3.950000e-01    2.310000e+00
  TP2a  X4vh  1 3.950000e-01    2.310000e+00
  TP1a  X4vh  1 3.950000e-01    2.310000e+00
  TN6a  X4vh  1 3.950000e-01    2.500000e+00
  TN5a  X4vh  1 3.950000e-01    2.700000e+00
  TN4a  X4vh  1 3.950000e-01    2.940000e+00
  TN3a  X4vh  1 3.950000e-01    2.700000e+00
  TN2a  X4vh  1 3.950000e-01    2.700000e+00
  TN1a  X4vh  1 3.950000e-01    2.500000e+00
  TP6d  X4vh  1 3.950000e-01    1.670000e+00
  TP5d  X4vh  1 3.950000e-01    1.850000e+00
  TP4d  X4vh  1 3.950000e-01    1.850000e+00
  TP3d  X4vh  1 3.950000e-01    1.850000e+00
  TP2d  X4vh  1 3.950000e-01    1.850000e+00
  TP1d  X4vh  1 3.950000e-01    1.850000e+00
  TN6d  X4vh  1 3.950000e-01    2.110000e+00
  TN5d  X4vh  1 3.950000e-01    2.310000e+00
  TN4d  X4vh  1 3.950000e-01    2.500000e+00
  TN3d  X4vh  1 3.950000e-01    2.310000e+00
  TN2d  X4vh  1 3.950000e-01    2.310000e+00
  TN1d  X4vh  1 3.950000e-01    2.110000e+00
  TC6v  C1vh  1 3.980000e-01    1.450000e+00
  TC5v  C1vh  1 3.950000e-01    1.670000e+00
  TC4v  C1vh  1 3.950000e-01    1.670000e+00
  TC3v  C1vh  1 3.950000e-01    2.110000e+00
  TC2v  C1vh  1 3.950000e-01    2.310000e+00
  TP6a  C1vh  1 4.040000e-01    8.300000e-01
  TP5a  C1vh  1 3.990000e-01    1.180000e+00
  TP4a  C1vh  1 3.990000e-01    1.180000e+00
  TP3a  C1vh  1 3.990000e-01    1.180000e+00
  TP2a  C1vh  1 3.980000e-01    1.450000e+00
  TP1a  C1vh  1 3.980000e-01    1.450000e+00
  TN6a  C1vh  1 3.950000e-01    1.670000e+00
  TN5a  C1vh  1 3.950000e-01    1.670000e+00
  TN4a  C1vh  1 3.950000e-01    1.670000e+00
  TN3a  C1vh  1 3.950000e-01    1.850000e+00
  TN2a  C1vh  1 3.950000e-01    1.850000e+00
  TN1a  C1vh  1 3.950000e-01    1.850000e+00
  TP6d  C1vh  1 5.110000e-01    6.590000e-01
  TP5d  C1vh  1 4.040000e-01    8.300000e-01
  TP4d  C1vh  1 4.040000e-01    8.300000e-01
  TP3d  C1vh  1 4.040000e-01    8.300000e-01
  TP2d  C1vh  1 4.010000e-01    9.830000e-01
  TP1d  C1vh  1 4.010000e-01    9.830000e-01
  TN6d  C1vh  1 3.990000e-01    1.180000e+00
  TN5d  C1vh  1 3.990000e-01    1.180000e+00
  TN4d  C1vh  1 3.990000e-01    1.180000e+00
  TN3d  C1vh  1 3.980000e-01    1.450000e+00
  TN2d  C1vh  1 3.980000e-01    1.450000e+00
  TN1d  C1vh  1 3.980000e-01    1.450000e+00
  TC6v  C2vh  1 3.950000e-01    1.670000e+00
  TC5v  C2vh  1 3.950000e-01    1.670000e+00
  TC4v  C2vh  1 3.950000e-01    1.850000e+00
  TC3v  C2vh  1 3.950000e-01    2.110000e+00
  TP6a  C2vh  1 3.990000e-01    1.180000e+00
  TP5a  C2vh  1 3.980000e-01    1.450000e+00
  TP4a  C2vh  1 3.980000e-01    1.450000e+00
  TP3a  C2vh  1 3.980000e-01    1.450000e+00
  TP2a  C2vh  1 3.950000e-01    1.670000e+00
  TP1a  C2vh  1 3.950000e-01    1.670000e+00
  TN6a  C2vh  1 3.950000e-01    1.850000e+00
  TN5a  C2vh  1 3.950000e-01    1.850000e+00
  TN4a  C2vh  1 3.950000e-01    1.850000e+00
  TN3a  C2vh  1 3.950000e-01    2.110000e+00
  TN2a  C2vh  1 3.950000e-01    2.110000e+00
  TN1a  C2vh  1 3.950000e-01    2.110000e+00
  TP6d  C2vh  1 4.040000e-01    8.300000e-01
  TP5d  C2vh  1 4.010000e-01    9.830000e-01
  TP4d  C2vh  1 4.010000e-01    9.830000e-01
  TP3d  C2vh  1 4.010000e-01    9.830000e-01
  TP2d  C2vh  1 3.990000e-01    1.180000e+00
  TP1d  C2vh  1 3.990000e-01    1.180000e+00
  TN6d  C2vh  1 3.980000e-01    1.450000e+00
  TN5d  C2vh  1 3.980000e-01    1.450000e+00
  TN4d  C2vh  1 3.980000e-01    1.450000e+00
  TN3d  C2vh  1 3.950000e-01    1.670000e+00
  TN2d  C2vh  1 3.950000e-01    1.670000e+00
  TN1d  C2vh  1 3.950000e-01    1.670000e+00
  TC6v  C3vh  1 3.950000e-01    1.850000e+00
  TC5v  C3vh  1 3.950000e-01    1.850000e+00
  TC4v  C3vh  1 3.950000e-01    2.110000e+00
  TP6a  C3vh  1 3.990000e-01    1.180000e+00
  TP5a  C3vh  1 3.980000e-01    1.450000e+00
  TP4a  C3vh  1 3.980000e-01    1.450000e+00
  TP3a  C3vh  1 3.980000e-01    1.450000e+00
  TP2a  C3vh  1 3.950000e-01    1.670000e+00
  TP1a  C3vh  1 3.950000e-01    1.670000e+00
  TN6a  C3vh  1 3.950000e-01    1.850000e+00
  TN5a  C3vh  1 3.950000e-01    2.110000e+00
  TN4a  C3vh  1 3.950000e-01    2.110000e+00
  TN3a  C3vh  1 3.950000e-01    2.110000e+00
  TN2a  C3vh  1 3.950000e-01    2.310000e+00
  TN1a  C3vh  1 3.950000e-01    2.310000e+00
  TP6d  C3vh  1 4.040000e-01    8.300000e-01
  TP5d  C3vh  1 4.010000e-01    9.830000e-01
  TP4d  C3vh  1 4.010000e-01    9.830000e-01
  TP3d  C3vh  1 4.010000e-01    9.830000e-01
  TP2d  C3vh  1 3.990000e-01    1.180000e+00
  TP1d  C3vh  1 3.990000e-01    1.180000e+00
  TN6d  C3vh  1 3.980000e-01    1.450000e+00
  TN5d  C3vh  1 3.950000e-01    1.670000e+00
  TN4d  C3vh  1 3.950000e-01    1.670000e+00
  TN3d  C3vh  1 3.950000e-01    1.670000e+00
  TN2d  C3vh  1 3.950000e-01    1.850000e+00
  TN1d  C3vh  1 3.950000e-01    1.850000e+00
  TC6v  C4vh  1 3.950000e-01    2.110000e+00
  TC5v  C4vh  1 3.950000e-01    2.110000e+00
  TP6a  C4vh  1 3.980000e-01    1.450000e+00
  TP5a  C4vh  1 3.950000e-01    1.670000e+00
  TP4a  C4vh  1 3.950000e-01    1.670000e+00
  TP3a  C4vh  1 3.950000e-01    1.850000e+00
  TP2a  C4vh  1 3.950000e-01    1.850000e+00
  TP1a  C4vh  1 3.950000e-01    1.850000e+00
  TN6a  C4vh  1 3.950000e-01    2.110000e+00
  TN5a  C4vh  1 3.950000e-01    2.110000e+00
  TN4a  C4vh  1 3.950000e-01    2.310000e+00
  TN3a  C4vh  1 3.950000e-01    2.310000e+00
  TN2a  C4vh  1 3.950000e-01    2.310000e+00
  TN1a  C4vh  1 3.950000e-01    2.500000e+00
  TP6d  C4vh  1 4.010000e-01    9.830000e-01
  TP5d  C4vh  1 3.990000e-01    1.180000e+00
  TP4d  C4vh  1 3.990000e-01    1.180000e+00
  TP3d  C4vh  1 3.980000e-01    1.450000e+00
  TP2d  C4vh  1 3.980000e-01    1.450000e+00
  TP1d  C4vh  1 3.980000e-01    1.450000e+00
  TN6d  C4vh  1 3.950000e-01    1.670000e+00
  TN5d  C4vh  1 3.950000e-01    1.670000e+00
  TN4d  C4vh  1 3.950000e-01    1.850000e+00
  TN3d  C4vh  1 3.950000e-01    1.850000e+00
  TN2d  C4vh  1 3.950000e-01    1.850000e+00
  TN1d  C4vh  1 3.950000e-01    2.110000e+00
  TC6v  C5vh  1 3.950000e-01    2.110000e+00
  TP6a  C5vh  1 3.950000e-01    1.670000e+00
  TP5a  C5vh  1 3.950000e-01    1.850000e+00
  TP4a  C5vh  1 3.950000e-01    1.850000e+00
  TP3a  C5vh  1 3.950000e-01    2.110000e+00
  TP2a  C5vh  1 3.950000e-01    2.110000e+00
  TP1a  C5vh  1 3.950000e-01    2.110000e+00
  TN6a  C5vh  1 3.950000e-01    2.310000e+00
  TN5a  C5vh  1 3.950000e-01    2.310000e+00
  TN4a  C5vh  1 3.950000e-01    2.310000e+00
  TN3a  C5vh  1 3.950000e-01    2.310000e+00
  TN2a  C5vh  1 3.950000e-01    2.310000e+00
  TN1a  C5vh  1 3.950000e-01    2.500000e+00
  TP6d  C5vh  1 3.990000e-01    1.180000e+00
  TP5d  C5vh  1 3.980000e-01    1.450000e+00
  TP4d  C5vh  1 3.980000e-01    1.450000e+00
  TP3d  C5vh  1 3.950000e-01    1.670000e+00
  TP2d  C5vh  1 3.950000e-01    1.670000e+00
  TP1d  C5vh  1 3.950000e-01    1.670000e+00
  TN6d  C5vh  1 3.950000e-01    1.850000e+00
  TN5d  C5vh  1 3.950000e-01    1.850000e+00
  TN4d  C5vh  1 3.950000e-01    1.850000e+00
  TN3d  C5vh  1 3.950000e-01    1.850000e+00
  TN2d  C5vh  1 3.950000e-01    1.850000e+00
  TN1d  C5vh  1 3.950000e-01    2.110000e+00
  TP6a  C6vh  1 3.950000e-01    1.850000e+00
  TP5a  C6vh  1 3.950000e-01    1.850000e+00
  TP4a  C6vh  1 3.950000e-01    2.110000e+00
  TP3a  C6vh  1 3.950000e-01    2.310000e+00
  TP2a  C6vh  1 3.950000e-01    2.310000e+00
  TP1a  C6vh  1 3.950000e-01    2.310000e+00
  TN6a  C6vh  1 3.950000e-01    2.500000e+00
  TN5a  C6vh  1 3.950000e-01    2.500000e+00
  TN4a  C6vh  1 3.950000e-01    2.500000e+00
  TN3a  C6vh  1 3.950000e-01    2.500000e+00
  TN2a  C6vh  1 3.950000e-01    2.500000e+00
  TN1a  C6vh  1 3.950000e-01    2.700000e+00
  TP6d  C6vh  1 3.980000e-01    1.450000e+00
  TP5d  C6vh  1 3.980000e-01    1.450000e+00
  TP4d  C6vh  1 3.950000e-01    1.670000e+00
  TP3d  C6vh  1 3.950000e-01    1.850000e+00
  TP2d  C6vh  1 3.950000e-01    1.850000e+00
  TP1d  C6vh  1 3.950000e-01    1.850000e+00
  TN6d  C6vh  1 3.950000e-01    2.110000e+00
  TN5d  C6vh  1 3.950000e-01    2.110000e+00
  TN4d  C6vh  1 3.950000e-01    2.110000e+00
  TN3d  C6vh  1 3.950000e-01    2.110000e+00
  TN2d  C6vh  1 3.950000e-01    2.110000e+00
  TN1d  C6vh  1 3.950000e-01    2.310000e+00
  TP6a  N1ah  1 3.950000e-01    1.670000e+00
  TP5a  N1ah  1 3.950000e-01    1.670000e+00
  TP4a  N1ah  1 3.950000e-01    1.850000e+00
  TP3a  N1ah  1 3.950000e-01    2.110000e+00
  TP2a  N1ah  1 3.950000e-01    2.110000e+00
  TP1a  N1ah  1 3.950000e-01    2.110000e+00
  TN6a  N1ah  1 3.950000e-01    2.110000e+00
  TN5a  N1ah  1 3.950000e-01    2.110000e+00
  TN4a  N1ah  1 3.950000e-01    2.110000e+00
  TN3a  N1ah  1 3.950000e-01    2.110000e+00
  TN2a  N1ah  1 3.950000e-01    2.110000e+00
  TP6d  N1ah  1 3.950000e-01    1.670000e+00
  TP5d  N1ah  1 3.950000e-01    1.670000e+00
  TP4d  N1ah  1 3.950000e-01    1.850000e+00
  TP3d  N1ah  1 3.950000e-01    2.110000e+00
  TP2d  N1ah  1 3.950000e-01    2.500000e+00
  TP1d  N1ah  1 3.950000e-01    2.500000e+00
  TN6d  N1ah  1 3.950000e-01    2.500000e+00
  TN5d  N1ah  1 3.950000e-01    2.500000e+00
  TN4d  N1ah  1 3.950000e-01    2.500000e+00
  TN3d  N1ah  1 3.950000e-01    2.500000e+00
  TN2d  N1ah  1 3.950000e-01    2.500000e+00
  TN1d  N1ah  1 3.950000e-01    2.700000e+00
  TP6a  N2ah  1 3.950000e-01    1.850000e+00
  TP5a  N2ah  1 3.950000e-01    1.850000e+00
  TP4a  N2ah  1 3.950000e-01    2.110000e+00
  TP3a  N2ah  1 3.950000e-01    2.110000e+00
  TP2a  N2ah  1 3.950000e-01    2.110000e+00
  TP1a  N2ah  1 3.950000e-01    2.110000e+00
  TN6a  N2ah  1 3.950000e-01    2.110000e+00
  TN5a  N2ah  1 3.950000e-01    2.310000e+00
  TN4a  N2ah  1 3.950000e-01    2.310000e+00
  TN3a  N2ah  1 3.950000e-01    2.310000e+00
  TP6d  N2ah  1 3.950000e-01    1.850000e+00
  TP5d  N2ah  1 3.950000e-01    1.850000e+00
  TP4d  N2ah  1 3.950000e-01    2.110000e+00
  TP3d  N2ah  1 3.950000e-01    2.500000e+00
  TP2d  N2ah  1 3.950000e-01    2.500000e+00
  TP1d  N2ah  1 3.950000e-01    2.500000e+00
  TN6d  N2ah  1 3.950000e-01    2.500000e+00
  TN5d  N2ah  1 3.950000e-01    2.700000e+00
  TN4d  N2ah  1 3.950000e-01    2.700000e+00
  TN3d  N2ah  1 3.950000e-01    2.700000e+00
  TN2d  N2ah  1 3.950000e-01    2.700000e+00
 TN2ah   N1d  1 3.950000e-01    2.500000e+00
  TP6a  N3ah  1 3.950000e-01    2.110000e+00
  TP5a  N3ah  1 3.950000e-01    2.110000e+00
  TP4a  N3ah  1 3.950000e-01    2.110000e+00
  TP3a  N3ah  1 3.950000e-01    2.110000e+00
  TP2a  N3ah  1 3.950000e-01    2.110000e+00
  TP1a  N3ah  1 3.950000e-01    2.110000e+00
  TN6a  N3ah  1 3.950000e-01    2.310000e+00
  TN5a  N3ah  1 3.950000e-01    2.310000e+00
  TN4a  N3ah  1 3.950000e-01    2.310000e+00
  TP6d  N3ah  1 3.950000e-01    2.110000e+00
  TP5d  N3ah  1 3.950000e-01    2.110000e+00
  TP4d  N3ah  1 3.950000e-01    2.500000e+00
  TP3d  N3ah  1 3.950000e-01    2.500000e+00
  TP2d  N3ah  1 3.950000e-01    2.500000e+00
  TP1d  N3ah  1 3.950000e-01    2.500000e+00
  TN6d  N3ah  1 3.950000e-01    2.700000e+00
  TN5d  N3ah  1 3.950000e-01    2.700000e+00
  TN4d  N3ah  1 3.950000e-01    2.700000e+00
  TN3d  N3ah  1 3.950000e-01    2.700000e+00
 TN3ah   N2d  1 3.950000e-01    2.700000e+00
 TN3ah   N1d  1 3.950000e-01    2.500000e+00
  TP6a  N4ah  1 3.950000e-01    2.110000e+00
  TP5a  N4ah  1 3.950000e-01    2.310000e+00
  TP4a  N4ah  1 3.950000e-01    2.310000e+00
  TP3a  N4ah  1 3.950000e-01    2.310000e+00
  TP2a  N4ah  1 3.950000e-01    2.310000e+00
  TP1a  N4ah  1 3.950000e-01    2.500000e+00
  TN6a  N4ah  1 3.950000e-01    2.700000e+00
  TN5a  N4ah  1 3.950000e-01    2.500000e+00
  TP6d  N4ah  1 3.950000e-01    2.500000e+00
  TP5d  N4ah  1 3.950000e-01    2.700000e+00
  TP4d  N4ah  1 3.950000e-01    2.700000e+00
  TP3d  N4ah  1 3.950000e-01    2.700000e+00
  TP2d  N4ah  1 3.950000e-01    2.700000e+00
  TP1d  N4ah  1 3.950000e-01    2.940000e+00
  TN6d  N4ah  1 3.950000e-01    3.190000e+00
  TN5d  N4ah  1 3.950000e-01    2.940000e+00
  TN4d  N4ah  1 3.950000e-01    2.940000e+00
 TN4ah   N3d  1 3.950000e-01    2.700000e+00
 TN4ah   N2d  1 3.950000e-01    2.700000e+00
 TN4ah   N1d  1 3.950000e-01    2.500000e+00
  TP6a  N5ah  1 3.950000e-01    2.310000e+00
  TP5a  N5ah  1 3.950000e-01    2.310000e+00
  TP4a  N5ah  1 3.950000e-01    2.310000e+00
  TP3a  N5ah  1 3.950000e-01    2.310000e+00
  TP2a  N5ah  1 3.950000e-01    2.500000e+00
  TP1a  N5ah  1 3.950000e-01    2.500000e+00
  TN6a  N5ah  1 3.950000e-01    2.700000e+00
  TP6d  N5ah  1 3.950000e-01    2.700000e+00
  TP5d  N5ah  1 3.950000e-01    2.700000e+00
  TP4d  N5ah  1 3.950000e-01    2.700000e+00
  TP3d  N5ah  1 3.950000e-01    2.700000e+00
  TP2d  N5ah  1 3.950000e-01    2.940000e+00
  TP1d  N5ah  1 3.950000e-01    2.940000e+00
  TN6d  N5ah  1 3.950000e-01    3.190000e+00
  TN5d  N5ah  1 3.950000e-01    2.940000e+00
 TN5ah   N4d  1 3.950000e-01    2.940000e+00
 TN5ah   N3d  1 3.950000e-01    2.700000e+00
 TN5ah   N2d  1 3.950000e-01    2.700000e+00
 TN5ah   N1d  1 3.950000e-01    2.500000e+00
  TP6a  N6ah  1 3.950000e-01    2.700000e+00
  TP5a  N6ah  1 3.950000e-01    2.500000e+00
  TP4a  N6ah  1 3.950000e-01    2.500000e+00
  TP3a  N6ah  1 3.950000e-01    2.500000e+00
  TP2a  N6ah  1 3.950000e-01    2.700000e+00
  TP1a  N6ah  1 3.950000e-01    2.700000e+00
  TP6d  N6ah  1 3.950000e-01    3.190000e+00
  TP5d  N6ah  1 3.950000e-01    2.940000e+00
  TP4d  N6ah  1 3.950000e-01    2.940000e+00
  TP3d  N6ah  1 3.950000e-01    2.940000e+00
  TP2d  N6ah  1 3.950000e-01    3.190000e+00
  TP1d  N6ah  1 3.950000e-01    3.190000e+00
  TN6d  N6ah  1 3.950000e-01    3.190000e+00
 TN6ah   N5d  1 3.950000e-01    3.190000e+00
 TN6ah   N4d  1 3.950000e-01    3.190000e+00
 TN6ah   N3d  1 3.950000e-01    2.700000e+00
 TN6ah   N2d  1 3.950000e-01    2.500000e+00
 TN6ah   N1d  1 3.950000e-01    2.500000e+00
  TP6a  P1ah  1 3.950000e-01    2.940000e+00
  TP5a  P1ah  1 3.950000e-01    2.700000e+00
  TP4a  P1ah  1 3.950000e-01    2.700000e+00
  TP3a  P1ah  1 3.950000e-01    2.700000e+00
  TP2a  P1ah  1 3.950000e-01    2.700000e+00
  TP6d  P1ah  1 3.950000e-01    3.430000e+00
  TP5d  P1ah  1 3.950000e-01    3.190000e+00
  TP4d  P1ah  1 3.950000e-01    3.190000e+00
  TP3d  P1ah  1 3.950000e-01    3.190000e+00
  TP2d  P1ah  1 3.950000e-01    3.190000e+00
  TP1d  P1ah  1 3.950000e-01    3.190000e+00
 TP1ah   N6d  1 3.950000e-01    3.190000e+00
 TP1ah   N5d  1 3.950000e-01    2.940000e+00
 TP1ah   N4d  1 3.950000e-01    2.940000e+00
 TP1ah   N3d  1 3.950000e-01    2.500000e+00
 TP1ah   N2d  1 3.950000e-01    2.500000e+00
 TP1ah   N1d  1 3.950000e-01    2.500000e+00
  TP6a  P2ah  1 3.950000e-01    3.190000e+00
  TP5a  P2ah  1 3.950000e-01    2.940000e+00
  TP4a  P2ah  1 3.950000e-01    2.940000e+00
  TP3a  P2ah  1 3.950000e-01    2.940000e+00
  TP6d  P2ah  1 3.950000e-01    3.670000e+00
  TP5d  P2ah  1 3.950000e-01    3.430000e+00
  TP4d  P2ah  1 3.950000e-01    3.430000e+00
  TP3d  P2ah  1 3.950000e-01    3.430000e+00
  TP2d  P2ah  1 3.950000e-01    3.430000e+00
 TP2ah   P1d  1 3.950000e-01    3.190000e+00
 TP2ah   N6d  1 3.950000e-01    3.190000e+00
 TP2ah   N5d  1 3.950000e-01    2.940000e+00
 TP2ah   N4d  1 3.950000e-01    2.700000e+00
 TP2ah   N3d  1 3.950000e-01    2.500000e+00
 TP2ah   N2d  1 3.950000e-01    2.500000e+00
 TP2ah   N1d  1 3.950000e-01    2.500000e+00
  TP6a  P3ah  1 3.950000e-01    3.190000e+00
  TP5a  P3ah  1 3.950000e-01    2.940000e+00
  TP4a  P3ah  1 3.950000e-01    2.940000e+00
  TP6d  P3ah  1 3.950000e-01    3.670000e+00
  TP5d  P3ah  1 3.950000e-01    3.430000e+00
  TP4d  P3ah  1 3.950000e-01    3.430000e+00
  TP3d  P3ah  1 3.950000e-01    3.430000e+00
 TP3ah   P2d  1 3.950000e-01    3.430000e+00
 TP3ah   P1d  1 3.950000e-01    3.190000e+00
 TP3ah   N6d  1 3.950000e-01    2.940000e+00
 TP3ah   N5d  1 3.950000e-01    2.700000e+00
 TP3ah   N4d  1 3.950000e-01    2.700000e+00
 TP3ah   N3d  1 3.950000e-01    2.500000e+00
 TP3ah   N2d  1 3.950000e-01    2.500000e+00
 TP3ah   N1d  1 3.950000e-01    2.110000e+00
  TP6a  P4ah  1 3.950000e-01    3.430000e+00
  TP5a  P4ah  1 3.950000e-01    3.190000e+00
  TP6d  P4ah  1 3.950000e-01    3.910000e+00
  TP5d  P4ah  1 3.950000e-01    3.670000e+00
  TP4d  P4ah  1 3.950000e-01    3.670000e+00
 TP4ah   P3d  1 3.950000e-01    3.430000e+00
 TP4ah   P2d  1 3.950000e-01    3.430000e+00
 TP4ah   P1d  1 3.950000e-01    3.190000e+00
 TP4ah   N6d  1 3.950000e-01    2.940000e+00
 TP4ah   N5d  1 3.950000e-01    2.700000e+00
 TP4ah   N4d  1 3.950000e-01    2.700000e+00
 TP4ah   N3d  1 3.950000e-01    2.500000e+00
 TP4ah   N2d  1 3.950000e-01    2.110000e+00
 TP4ah   N1d  1 3.950000e-01    1.850000e+00
  TP6a  P5ah  1 3.950000e-01    3.670000e+00
  TP6d  P5ah  1 3.950000e-01    4.230000e+00
  TP5d  P5ah  1 3.950000e-01    3.910000e+00
 TP5ah   P4d  1 3.950000e-01    3.670000e+00
 TP5ah   P3d  1 3.950000e-01    3.430000e+00
 TP5ah   P2d  1 3.950000e-01    3.430000e+00
 TP5ah   P1d  1 3.950000e-01    3.190000e+00
 TP5ah   N6d  1 3.950000e-01    2.940000e+00
 TP5ah   N5d  1 3.950000e-01    2.700000e+00
 TP5ah   N4d  1 3.950000e-01    2.700000e+00
 TP5ah   N3d  1 3.950000e-01    2.110000e+00
 TP5ah   N2d  1 3.950000e-01    1.850000e+00
 TP5ah   N1d  1 3.950000e-01    1.670000e+00
  TP6d  P6ah  1 3.950000e-01    4.540000e+00
 TP6ah   P5d  1 3.950000e-01    4.230000e+00
 TP6ah   P4d  1 3.950000e-01    3.910000e+00
 TP6ah   P3d  1 3.950000e-01    3.670000e+00
 TP6ah   P2d  1 3.950000e-01    3.670000e+00
 TP6ah   P1d  1 3.950000e-01    3.430000e+00
 TP6ah   N6d  1 3.950000e-01    3.190000e+00
 TP6ah   N5d  1 3.950000e-01    2.700000e+00
 TP6ah   N4d  1 3.950000e-01    2.500000e+00
 TP6ah   N3d  1 3.950000e-01    2.110000e+00
 TP6ah   N2d  1 3.950000e-01    1.850000e+00
 TP6ah   N1d  1 3.950000e-01    1.670000e+00
  TP6d  N1dh  1 3.950000e-01    1.670000e+00
  TP5d  N1dh  1 3.950000e-01    1.670000e+00
  TP4d  N1dh  1 3.950000e-01    1.850000e+00
  TP3d  N1dh  1 3.950000e-01    2.110000e+00
  TP2d  N1dh  1 3.950000e-01    2.110000e+00
  TP1d  N1dh  1 3.950000e-01    2.110000e+00
  TN6d  N1dh  1 3.950000e-01    2.110000e+00
  TN5d  N1dh  1 3.950000e-01    2.110000e+00
  TN4d  N1dh  1 3.950000e-01    2.110000e+00
  TN3d  N1dh  1 3.950000e-01    2.110000e+00
  TN2d  N1dh  1 3.950000e-01    2.110000e+00
  TP6d  N2dh  1 3.950000e-01    1.850000e+00
  TP5d  N2dh  1 3.950000e-01    1.850000e+00
  TP4d  N2dh  1 3.950000e-01    2.110000e+00
  TP3d  N2dh  1 3.950000e-01    2.110000e+00
  TP2d  N2dh  1 3.950000e-01    2.110000e+00
  TP1d  N2dh  1 3.950000e-01    2.110000e+00
  TN6d  N2dh  1 3.950000e-01    2.110000e+00
  TN5d  N2dh  1 3.950000e-01    2.310000e+00
  TN4d  N2dh  1 3.950000e-01    2.310000e+00
  TN3d  N2dh  1 3.950000e-01    2.310000e+00
  TP6d  N3dh  1 3.950000e-01    2.110000e+00
  TP5d  N3dh  1 3.950000e-01    2.110000e+00
  TP4d  N3dh  1 3.950000e-01    2.110000e+00
  TP3d  N3dh  1 3.950000e-01    2.110000e+00
  TP2d  N3dh  1 3.950000e-01    2.110000e+00
  TP1d  N3dh  1 3.950000e-01    2.110000e+00
  TN6d  N3dh  1 3.950000e-01    2.310000e+00
  TN5d  N3dh  1 3.950000e-01    2.310000e+00
  TN4d  N3dh  1 3.950000e-01    2.310000e+00
  TP6d  N4dh  1 3.950000e-01    2.110000e+00
  TP5d  N4dh  1 3.950000e-01    2.310000e+00
  TP4d  N4dh  1 3.950000e-01    2.310000e+00
  TP3d  N4dh  1 3.950000e-01    2.310000e+00
  TP2d  N4dh  1 3.950000e-01    2.310000e+00
  TP1d  N4dh  1 3.950000e-01    2.500000e+00
  TN6d  N4dh  1 3.950000e-01    2.700000e+00
  TN5d  N4dh  1 3.950000e-01    2.500000e+00
  TP6d  N5dh  1 3.950000e-01    2.310000e+00
  TP5d  N5dh  1 3.950000e-01    2.310000e+00
  TP4d  N5dh  1 3.950000e-01    2.310000e+00
  TP3d  N5dh  1 3.950000e-01    2.310000e+00
  TP2d  N5dh  1 3.950000e-01    2.500000e+00
  TP1d  N5dh  1 3.950000e-01    2.500000e+00
  TN6d  N5dh  1 3.950000e-01    2.700000e+00
  TP6d  N6dh  1 3.950000e-01    2.700000e+00
  TP5d  N6dh  1 3.950000e-01    2.500000e+00
  TP4d  N6dh  1 3.950000e-01    2.500000e+00
  TP3d  N6dh  1 3.950000e-01    2.500000e+00
  TP2d  N6dh  1 3.950000e-01    2.700000e+00
  TP1d  N6dh  1 3.950000e-01    2.700000e+00
  TP6d  P1dh  1 3.950000e-01    2.940000e+00
  TP5d  P1dh  1 3.950000e-01    2.700000e+00
  TP4d  P1dh  1 3.950000e-01    2.700000e+00
  TP3d  P1dh  1 3.950000e-01    2.700000e+00
  TP2d  P1dh  1 3.950000e-01    2.700000e+00
  TP6d  P2dh  1 3.950000e-01    3.190000e+00
  TP5d  P2dh  1 3.950000e-01    2.940000e+00
  TP4d  P2dh  1 3.950000e-01    2.940000e+00
  TP3d  P2dh  1 3.950000e-01    2.940000e+00
  TP6d  P3dh  1 3.950000e-01    3.190000e+00
  TP5d  P3dh  1 3.950000e-01    2.940000e+00
  TP4d  P3dh  1 3.950000e-01    2.940000e+00
  TP6d  P4dh  1 3.950000e-01    3.430000e+00
  TP5d  P4dh  1 3.950000e-01    3.190000e+00
  TP6d  P5dh  1 3.950000e-01    3.670000e+00
  TP6r   P6d  1 3.950000e-01    4.230000e+00
  TP6r   N1d  1 3.950000e-01    1.670000e+00
  TP6r   N2d  1 3.950000e-01    1.850000e+00
  TP6r   N3d  1 3.950000e-01    2.110000e+00
  TP6r   N4d  1 3.950000e-01    2.310000e+00
  TP6r   N5d  1 3.950000e-01    2.500000e+00
  TP6r   N6d  1 3.950000e-01    2.940000e+00
  TP6r   P1d  1 3.950000e-01    3.190000e+00
  TP6r   P2d  1 3.950000e-01    3.430000e+00
  TP6r   P3d  1 3.950000e-01    3.430000e+00
  TP6r   P4d  1 3.950000e-01    3.670000e+00
  TP6r   P5d  1 3.950000e-01    3.910000e+00
  TP6r   P6a  1 3.950000e-01    4.230000e+00
  TP6r   N1a  1 3.950000e-01    1.670000e+00
  TP6r   N2a  1 3.950000e-01    1.850000e+00
  TP6r   N3a  1 3.950000e-01    2.110000e+00
  TP6r   N4a  1 3.950000e-01    2.310000e+00
  TP6r   N5a  1 3.950000e-01    2.500000e+00
  TP6r   N6a  1 3.950000e-01    2.940000e+00
  TP6r   P1a  1 3.950000e-01    3.190000e+00
  TP6r   P2a  1 3.950000e-01    3.430000e+00
  TP6r   P3a  1 3.950000e-01    3.430000e+00
  TP6r   P4a  1 3.950000e-01    3.670000e+00
  TP6r   P5a  1 3.950000e-01    3.910000e+00
  TP6r   C6v  1 3.950000e-01    1.850000e+00
  TP6r   C5v  1 3.950000e-01    1.670000e+00
  TP6r   C4v  1 3.980000e-01    1.450000e+00
  TP6r   C3v  1 3.990000e-01    1.180000e+00
  TP6r   C2v  1 3.990000e-01    1.180000e+00
  TP6r   C1v  1 4.040000e-01    8.300000e-01
  TP6r   X4v  1 3.950000e-01    2.110000e+00
  TP6r   X3v  1 3.950000e-01    2.110000e+00
  TP6r   X2v  1 3.950000e-01    1.850000e+00
  TP6r   X1v  1 3.950000e-01    1.670000e+00
  TP6r   C6e  1 3.950000e-01    1.850000e+00
  TP6r   C5e  1 3.950000e-01    1.670000e+00
  TP6r   C4e  1 3.980000e-01    1.450000e+00
  TP6r   C3e  1 3.990000e-01    1.180000e+00
  TP6r   C2e  1 3.990000e-01    1.180000e+00
  TP6r   C1e  1 4.040000e-01    8.300000e-01
  TP6r   X4e  1 3.950000e-01    2.110000e+00
  TP6r   X3e  1 3.950000e-01    2.110000e+00
  TP6r   X2e  1 3.950000e-01    1.850000e+00
  TP6r   X1e  1 3.950000e-01    1.670000e+00
  TP6r   P6q  1 3.950000e-01    4.870000e+00
  TP6r  X1eq  1 3.950000e-01    2.110000e+00
  TP6r  X2eq  1 3.950000e-01    2.310000e+00
  TP6r  X3eq  1 3.950000e-01    2.500000e+00
  TP6r  X4eq  1 3.950000e-01    2.500000e+00
  TP6r  C1eq  1 3.990000e-01    1.180000e+00
  TP6r  C2eq  1 3.950000e-01    1.670000e+00
  TP6r  C3eq  1 3.950000e-01    1.670000e+00
  TP6r  C4eq  1 3.950000e-01    1.850000e+00
  TP6r  C5eq  1 3.950000e-01    2.110000e+00
  TP6r  C6eq  1 3.950000e-01    2.310000e+00
  TP6r  X1vq  1 3.950000e-01    2.110000e+00
  TP6r  X2vq  1 3.950000e-01    2.310000e+00
  TP6r  X3vq  1 3.950000e-01    2.500000e+00
  TP6r  X4vq  1 3.950000e-01    2.500000e+00
  TP6r  C1vq  1 3.990000e-01    1.180000e+00
  TP6r  C2vq  1 3.950000e-01    1.670000e+00
  TP6r  C3vq  1 3.950000e-01    1.670000e+00
  TP6r  C4vq  1 3.950000e-01    1.850000e+00
  TP6r  C5vq  1 3.950000e-01    2.110000e+00
  TP6r  C6vq  1 3.950000e-01    2.310000e+00
  TP6r  N1aq  1 3.950000e-01    2.110000e+00
  TP6r  N2aq  1 3.950000e-01    2.310000e+00
  TP6r  N3aq  1 3.950000e-01    2.500000e+00
  TP6r  N4aq  1 3.950000e-01    2.700000e+00
  TP6r  N5aq  1 3.950000e-01    2.940000e+00
  TP6r  N6aq  1 3.950000e-01    3.430000e+00
  TP6r  P1aq  1 3.950000e-01    3.670000e+00
  TP6r  P2aq  1 3.950000e-01    3.910000e+00
  TP6r  P3aq  1 3.950000e-01    3.910000e+00
  TP6r  P4aq  1 3.950000e-01    4.230000e+00
  TP6r  P5aq  1 3.950000e-01    4.540000e+00
  TP6r  P6aq  1 3.950000e-01    4.870000e+00
  TP6r  N1dq  1 3.950000e-01    2.110000e+00
  TP6r  N2dq  1 3.950000e-01    2.310000e+00
  TP6r  N3dq  1 3.950000e-01    2.500000e+00
  TP6r  N4dq  1 3.950000e-01    2.700000e+00
  TP6r  N5dq  1 3.950000e-01    2.940000e+00
  TP6r  N6dq  1 3.950000e-01    3.430000e+00
  TP6r  P1dq  1 3.950000e-01    3.670000e+00
  TP6r  P2dq  1 3.950000e-01    3.910000e+00
  TP6r  P3dq  1 3.950000e-01    3.910000e+00
  TP6r  P4dq  1 3.950000e-01    4.230000e+00
  TP6r  P5dq  1 3.950000e-01    4.540000e+00
  TP6r  P6dq  1 3.950000e-01    4.870000e+00
  TP6r   X1q  1 3.950000e-01    1.850000e+00
  TP6r   X2q  1 3.950000e-01    2.110000e+00
  TP6r   X3q  1 3.950000e-01    2.310000e+00
  TP6r   X4q  1 3.950000e-01    2.310000e+00
  TP6r   C1q  1 4.010000e-01    9.830000e-01
  TP6r   C2q  1 3.980000e-01    1.450000e+00
  TP6r   C3q  1 3.980000e-01    1.450000e+00
  TP6r   C4q  1 3.950000e-01    1.670000e+00
  TP6r   C5q  1 3.950000e-01    1.850000e+00
  TP6r   C6q  1 3.950000e-01    2.110000e+00
  TP6r   N1q  1 3.950000e-01    2.110000e+00
  TP6r   N2q  1 3.950000e-01    2.310000e+00
  TP6r   N3q  1 3.950000e-01    2.500000e+00
  TP6r   N4q  1 3.950000e-01    2.700000e+00
  TP6r   N5q  1 3.950000e-01    2.940000e+00
  TP6r   N6q  1 3.950000e-01    3.430000e+00
  TP6r   P1q  1 3.950000e-01    3.670000e+00
  TP6r   P2q  1 3.950000e-01    3.910000e+00
  TP6r   P3q  1 3.950000e-01    3.910000e+00
  TP6r   P4q  1 3.950000e-01    4.230000e+00
  TP6r   P5q  1 3.950000e-01    4.540000e+00
  TP6d   P5r  1 3.950000e-01    3.910000e+00
  TP5r   P5d  1 3.950000e-01    3.670000e+00
  TP5r   N1d  1 3.950000e-01    1.670000e+00
  TP5r   N2d  1 3.950000e-01    1.850000e+00
  TP5r   N3d  1 3.950000e-01    2.110000e+00
  TP5r   N4d  1 3.950000e-01    2.500000e+00
  TP5r   N5d  1 3.950000e-01    2.500000e+00
  TP5r   N6d  1 3.950000e-01    2.700000e+00
  TP5r   P1d  1 3.950000e-01    2.940000e+00
  TP5r   P2d  1 3.950000e-01    3.190000e+00
  TP5r   P3d  1 3.950000e-01    3.190000e+00
  TP5r   P4d  1 3.950000e-01    3.430000e+00
  TP6a   P5r  1 3.950000e-01    3.910000e+00
  TP5r   P5a  1 3.950000e-01    3.670000e+00
  TP5r   N1a  1 3.950000e-01    1.670000e+00
  TP5r   N2a  1 3.950000e-01    1.850000e+00
  TP5r   N3a  1 3.950000e-01    2.110000e+00
  TP5r   N4a  1 3.950000e-01    2.500000e+00
  TP5r   N5a  1 3.950000e-01    2.500000e+00
  TP5r   N6a  1 3.950000e-01    2.700000e+00
  TP5r   P1a  1 3.950000e-01    2.940000e+00
  TP5r   P2a  1 3.950000e-01    3.190000e+00
  TP5r   P3a  1 3.950000e-01    3.190000e+00
  TP5r   P4a  1 3.950000e-01    3.430000e+00
  TP5r   C6v  1 3.950000e-01    1.850000e+00
  TP5r   C5v  1 3.950000e-01    1.850000e+00
  TP5r   C4v  1 3.950000e-01    1.670000e+00
  TP5r   C3v  1 3.980000e-01    1.450000e+00
  TP5r   C2v  1 3.980000e-01    1.450000e+00
  TP5r   C1v  1 3.990000e-01    1.180000e+00
  TP5r   X4v  1 3.950000e-01    2.310000e+00
  TP5r   X3v  1 3.950000e-01    2.110000e+00
  TP5r   X2v  1 3.950000e-01    2.110000e+00
  TP5r   X1v  1 3.950000e-01    1.670000e+00
  TP5r   C6e  1 3.950000e-01    1.850000e+00
  TP5r   C5e  1 3.950000e-01    1.850000e+00
  TP5r   C4e  1 3.950000e-01    1.670000e+00
  TP5r   C3e  1 3.980000e-01    1.450000e+00
  TP5r   C2e  1 3.980000e-01    1.450000e+00
  TP5r   C1e  1 3.990000e-01    1.180000e+00
  TP5r   X4e  1 3.950000e-01    2.310000e+00
  TP5r   X3e  1 3.950000e-01    2.110000e+00
  TP5r   X2e  1 3.950000e-01    2.110000e+00
  TP5r   X1e  1 3.950000e-01    1.670000e+00
  TP6q   P5r  1 3.950000e-01    4.540000e+00
  TP5r   P5q  1 3.950000e-01    4.230000e+00
  TP5r  X1eq  1 3.950000e-01    2.110000e+00
  TP5r  X2eq  1 3.950000e-01    2.500000e+00
  TP5r  X3eq  1 3.950000e-01    2.500000e+00
  TP5r  X4eq  1 3.950000e-01    2.700000e+00
  TP5r  C1eq  1 3.950000e-01    1.670000e+00
  TP5r  C2eq  1 3.950000e-01    1.850000e+00
  TP5r  C3eq  1 3.950000e-01    1.850000e+00
  TP5r  C4eq  1 3.950000e-01    2.110000e+00
  TP5r  C5eq  1 3.950000e-01    2.310000e+00
  TP5r  C6eq  1 3.950000e-01    2.310000e+00
  TP5r  X1vq  1 3.950000e-01    2.110000e+00
  TP5r  X2vq  1 3.950000e-01    2.500000e+00
  TP5r  X3vq  1 3.950000e-01    2.500000e+00
  TP5r  X4vq  1 3.950000e-01    2.700000e+00
  TP5r  C1vq  1 3.950000e-01    1.670000e+00
  TP5r  C2vq  1 3.950000e-01    1.850000e+00
  TP5r  C3vq  1 3.950000e-01    1.850000e+00
  TP5r  C4vq  1 3.950000e-01    2.110000e+00
  TP5r  C5vq  1 3.950000e-01    2.310000e+00
  TP5r  C6vq  1 3.950000e-01    2.310000e+00
  TP5r  N1aq  1 3.950000e-01    2.110000e+00
  TP5r  N2aq  1 3.950000e-01    2.310000e+00
  TP5r  N3aq  1 3.950000e-01    2.500000e+00
  TP5r  N4aq  1 3.950000e-01    2.940000e+00
  TP5r  N5aq  1 3.950000e-01    2.940000e+00
  TP5r  N6aq  1 3.950000e-01    3.190000e+00
  TP5r  P1aq  1 3.950000e-01    3.430000e+00
  TP5r  P2aq  1 3.950000e-01    3.670000e+00
  TP5r  P3aq  1 3.950000e-01    3.670000e+00
  TP5r  P4aq  1 3.950000e-01    3.910000e+00
  TP5r  P5aq  1 3.950000e-01    4.230000e+00
 TP6aq   P5r  1 3.950000e-01    4.540000e+00
  TP5r  N1dq  1 3.950000e-01    2.110000e+00
  TP5r  N2dq  1 3.950000e-01    2.310000e+00
  TP5r  N3dq  1 3.950000e-01    2.500000e+00
  TP5r  N4dq  1 3.950000e-01    2.940000e+00
  TP5r  N5dq  1 3.950000e-01    2.940000e+00
  TP5r  N6dq  1 3.950000e-01    3.190000e+00
  TP5r  P1dq  1 3.950000e-01    3.430000e+00
  TP5r  P2dq  1 3.950000e-01    3.670000e+00
  TP5r  P3dq  1 3.950000e-01    3.670000e+00
  TP5r  P4dq  1 3.950000e-01    3.910000e+00
  TP5r  P5dq  1 3.950000e-01    4.230000e+00
 TP6dq   P5r  1 3.950000e-01    4.540000e+00
  TP5r   X1q  1 3.950000e-01    1.850000e+00
  TP5r   X2q  1 3.950000e-01    2.310000e+00
  TP5r   X3q  1 3.950000e-01    2.310000e+00
  TP5r   X4q  1 3.950000e-01    2.500000e+00
  TP5r   C1q  1 3.980000e-01    1.450000e+00
  TP5r   C2q  1 3.950000e-01    1.670000e+00
  TP5r   C3q  1 3.950000e-01    1.670000e+00
  TP5r   C4q  1 3.950000e-01    1.850000e+00
  TP5r   C5q  1 3.950000e-01    2.110000e+00
  TP5r   C6q  1 3.950000e-01    2.110000e+00
  TP5r   N1q  1 3.950000e-01    2.110000e+00
  TP5r   N2q  1 3.950000e-01    2.310000e+00
  TP5r   N3q  1 3.950000e-01    2.500000e+00
  TP5r   N4q  1 3.950000e-01    2.940000e+00
  TP5r   N5q  1 3.950000e-01    2.940000e+00
  TP5r   N6q  1 3.950000e-01    3.190000e+00
  TP5r   P1q  1 3.950000e-01    3.430000e+00
  TP5r   P2q  1 3.950000e-01    3.670000e+00
  TP5r   P3q  1 3.950000e-01    3.670000e+00
  TP5r   P4q  1 3.950000e-01    3.910000e+00
  TP6d   P4r  1 3.950000e-01    3.670000e+00
  TP5d   P4r  1 3.950000e-01    3.430000e+00
  TP4r   P4d  1 3.950000e-01    3.430000e+00
  TP4r   N1d  1 3.950000e-01    1.850000e+00
  TP4r   N2d  1 3.950000e-01    2.110000e+00
  TP4r   N3d  1 3.950000e-01    2.310000e+00
  TP4r   N4d  1 3.950000e-01    2.500000e+00
  TP4r   N5d  1 3.950000e-01    2.500000e+00
  TP4r   N6d  1 3.950000e-01    2.700000e+00
  TP4r   P1d  1 3.950000e-01    2.940000e+00
  TP4r   P2d  1 3.950000e-01    3.190000e+00
  TP4r   P3d  1 3.950000e-01    3.190000e+00
  TP6a   P4r  1 3.950000e-01    3.670000e+00
  TP5a   P4r  1 3.950000e-01    3.430000e+00
  TP4r   P4a  1 3.950000e-01    3.430000e+00
  TP4r   N1a  1 3.950000e-01    1.850000e+00
  TP4r   N2a  1 3.950000e-01    2.110000e+00
  TP4r   N3a  1 3.950000e-01    2.310000e+00
  TP4r   N4a  1 3.950000e-01    2.500000e+00
  TP4r   N5a  1 3.950000e-01    2.500000e+00
  TP4r   N6a  1 3.950000e-01    2.700000e+00
  TP4r   P1a  1 3.950000e-01    2.940000e+00
  TP4r   P2a  1 3.950000e-01    3.190000e+00
  TP4r   P3a  1 3.950000e-01    3.190000e+00
  TP4r   C6v  1 3.950000e-01    2.110000e+00
  TP4r   C5v  1 3.950000e-01    1.850000e+00
  TP4r   C4v  1 3.950000e-01    1.670000e+00
  TP4r   C3v  1 3.980000e-01    1.450000e+00
  TP4r   C2v  1 3.980000e-01    1.450000e+00
  TP4r   C1v  1 3.990000e-01    1.180000e+00
  TP4r   X4v  1 3.950000e-01    2.310000e+00
  TP4r   X3v  1 3.950000e-01    2.110000e+00
  TP4r   X2v  1 3.950000e-01    2.110000e+00
  TP4r   X1v  1 3.950000e-01    1.850000e+00
  TP4r   C6e  1 3.950000e-01    2.110000e+00
  TP4r   C5e  1 3.950000e-01    1.850000e+00
  TP4r   C4e  1 3.950000e-01    1.670000e+00
  TP4r   C3e  1 3.980000e-01    1.450000e+00
  TP4r   C2e  1 3.980000e-01    1.450000e+00
  TP4r   C1e  1 3.990000e-01    1.180000e+00
  TP4r   X4e  1 3.950000e-01    2.310000e+00
  TP4r   X3e  1 3.950000e-01    2.110000e+00
  TP4r   X2e  1 3.950000e-01    2.110000e+00
  TP4r   X1e  1 3.950000e-01    1.850000e+00
  TP6q   P4r  1 3.950000e-01    4.230000e+00
  TP5q   P4r  1 3.950000e-01    3.910000e+00
  TP4r   P4q  1 3.950000e-01    3.910000e+00
  TP4r  X1eq  1 3.950000e-01    2.310000e+00
  TP4r  X2eq  1 3.950000e-01    2.500000e+00
  TP4r  X3eq  1 3.950000e-01    2.500000e+00
  TP4r  X4eq  1 3.950000e-01    2.700000e+00
  TP4r  C1eq  1 3.950000e-01    1.670000e+00
  TP4r  C2eq  1 3.950000e-01    1.850000e+00
  TP4r  C3eq  1 3.950000e-01    1.850000e+00
  TP4r  C4eq  1 3.950000e-01    2.110000e+00
  TP4r  C5eq  1 3.950000e-01    2.310000e+00
  TP4r  C6eq  1 3.950000e-01    2.500000e+00
  TP4r  X1vq  1 3.950000e-01    2.310000e+00
  TP4r  X2vq  1 3.950000e-01    2.500000e+00
  TP4r  X3vq  1 3.950000e-01    2.500000e+00
  TP4r  X4vq  1 3.950000e-01    2.700000e+00
  TP4r  C1vq  1 3.950000e-01    1.670000e+00
  TP4r  C2vq  1 3.950000e-01    1.850000e+00
  TP4r  C3vq  1 3.950000e-01    1.850000e+00
  TP4r  C4vq  1 3.950000e-01    2.110000e+00
  TP4r  C5vq  1 3.950000e-01    2.310000e+00
  TP4r  C6vq  1 3.950000e-01    2.500000e+00
  TP4r  N1aq  1 3.950000e-01    2.310000e+00
  TP4r  N2aq  1 3.950000e-01    2.500000e+00
  TP4r  N3aq  1 3.950000e-01    2.700000e+00
  TP4r  N4aq  1 3.950000e-01    2.940000e+00
  TP4r  N5aq  1 3.950000e-01    2.940000e+00
  TP4r  N6aq  1 3.950000e-01    3.190000e+00
  TP4r  P1aq  1 3.950000e-01    3.430000e+00
  TP4r  P2aq  1 3.950000e-01    3.670000e+00
  TP4r  P3aq  1 3.950000e-01    3.670000e+00
  TP4r  P4aq  1 3.950000e-01    3.910000e+00
 TP5aq   P4r  1 3.950000e-01    3.910000e+00
 TP6aq   P4r  1 3.950000e-01    4.230000e+00
  TP4r  N1dq  1 3.950000e-01    2.310000e+00
  TP4r  N2dq  1 3.950000e-01    2.500000e+00
  TP4r  N3dq  1 3.950000e-01    2.700000e+00
  TP4r  N4dq  1 3.950000e-01    2.940000e+00
  TP4r  N5dq  1 3.950000e-01    2.940000e+00
  TP4r  N6dq  1 3.950000e-01    3.190000e+00
  TP4r  P1dq  1 3.950000e-01    3.430000e+00
  TP4r  P2dq  1 3.950000e-01    3.670000e+00
  TP4r  P3dq  1 3.950000e-01    3.670000e+00
  TP4r  P4dq  1 3.950000e-01    3.910000e+00
 TP5dq   P4r  1 3.950000e-01    3.910000e+00
 TP6dq   P4r  1 3.950000e-01    4.230000e+00
  TP4r   X1q  1 3.950000e-01    2.110000e+00
  TP4r   X2q  1 3.950000e-01    2.310000e+00
  TP4r   X3q  1 3.950000e-01    2.310000e+00
  TP4r   X4q  1 3.950000e-01    2.500000e+00
  TP4r   C1q  1 3.980000e-01    1.450000e+00
  TP4r   C2q  1 3.950000e-01    1.670000e+00
  TP4r   C3q  1 3.950000e-01    1.670000e+00
  TP4r   C4q  1 3.950000e-01    1.850000e+00
  TP4r   C5q  1 3.950000e-01    2.110000e+00
  TP4r   C6q  1 3.950000e-01    2.310000e+00
  TP4r   N1q  1 3.950000e-01    2.310000e+00
  TP4r   N2q  1 3.950000e-01    2.500000e+00
  TP4r   N3q  1 3.950000e-01    2.700000e+00
  TP4r   N4q  1 3.950000e-01    2.940000e+00
  TP4r   N5q  1 3.950000e-01    2.940000e+00
  TP4r   N6q  1 3.950000e-01    3.190000e+00
  TP4r   P1q  1 3.950000e-01    3.430000e+00
  TP4r   P2q  1 3.950000e-01    3.670000e+00
  TP4r   P3q  1 3.950000e-01    3.670000e+00
  TP6d   P3r  1 3.950000e-01    3.430000e+00
  TP5d   P3r  1 3.950000e-01    3.190000e+00
  TP4d   P3r  1 3.950000e-01    3.190000e+00
  TP3r   P3d  1 3.950000e-01    3.190000e+00
  TP3r   N1d  1 3.950000e-01    2.110000e+00
  TP3r   N2d  1 3.950000e-01    2.310000e+00
  TP3r   N3d  1 3.950000e-01    2.310000e+00
  TP3r   N4d  1 3.950000e-01    2.500000e+00
  TP3r   N5d  1 3.950000e-01    2.500000e+00
  TP3r   N6d  1 3.950000e-01    2.700000e+00
  TP3r   P1d  1 3.950000e-01    2.940000e+00
  TP3r   P2d  1 3.950000e-01    3.190000e+00
  TP6a   P3r  1 3.950000e-01    3.430000e+00
  TP5a   P3r  1 3.950000e-01    3.190000e+00
  TP4a   P3r  1 3.950000e-01    3.190000e+00
  TP3r   P3a  1 3.950000e-01    3.190000e+00
  TP3r   N1a  1 3.950000e-01    2.110000e+00
  TP3r   N2a  1 3.950000e-01    2.310000e+00
  TP3r   N3a  1 3.950000e-01    2.310000e+00
  TP3r   N4a  1 3.950000e-01    2.500000e+00
  TP3r   N5a  1 3.950000e-01    2.500000e+00
  TP3r   N6a  1 3.950000e-01    2.700000e+00
  TP3r   P1a  1 3.950000e-01    2.940000e+00
  TP3r   P2a  1 3.950000e-01    3.190000e+00
  TP3r   C6v  1 3.950000e-01    2.310000e+00
  TP3r   C5v  1 3.950000e-01    2.110000e+00
  TP3r   C4v  1 3.950000e-01    1.850000e+00
  TP3r   C3v  1 3.980000e-01    1.450000e+00
  TP3r   C2v  1 3.980000e-01    1.450000e+00
  TP3r   C1v  1 3.990000e-01    1.180000e+00
  TP3r   X4v  1 3.950000e-01    2.310000e+00
  TP3r   X3v  1 3.950000e-01    2.310000e+00
  TP3r   X2v  1 3.950000e-01    2.110000e+00
  TP3r   X1v  1 3.950000e-01    1.850000e+00
  TP3r   C6e  1 3.950000e-01    2.310000e+00
  TP3r   C5e  1 3.950000e-01    2.110000e+00
  TP3r   C4e  1 3.950000e-01    1.850000e+00
  TP3r   C3e  1 3.980000e-01    1.450000e+00
  TP3r   C2e  1 3.980000e-01    1.450000e+00
  TP3r   C1e  1 3.990000e-01    1.180000e+00
  TP3r   X4e  1 3.950000e-01    2.310000e+00
  TP3r   X3e  1 3.950000e-01    2.310000e+00
  TP3r   X2e  1 3.950000e-01    2.110000e+00
  TP3r   X1e  1 3.950000e-01    1.850000e+00
  TP6q   P3r  1 3.950000e-01    3.910000e+00
  TP5q   P3r  1 3.950000e-01    3.670000e+00
  TP4q   P3r  1 3.950000e-01    3.670000e+00
  TP3r   P3q  1 3.950000e-01    3.670000e+00
  TP3r  X1eq  1 3.950000e-01    2.310000e+00
  TP3r  X2eq  1 3.950000e-01    2.500000e+00
  TP3r  X3eq  1 3.950000e-01    2.700000e+00
  TP3r  X4eq  1 3.950000e-01    2.700000e+00
  TP3r  C1eq  1 3.950000e-01    1.670000e+00
  TP3r  C2eq  1 3.950000e-01    1.850000e+00
  TP3r  C3eq  1 3.950000e-01    1.850000e+00
  TP3r  C4eq  1 3.950000e-01    2.310000e+00
  TP3r  C5eq  1 3.950000e-01    2.500000e+00
  TP3r  C6eq  1 3.950000e-01    2.700000e+00
  TP3r  X1vq  1 3.950000e-01    2.310000e+00
  TP3r  X2vq  1 3.950000e-01    2.500000e+00
  TP3r  X3vq  1 3.950000e-01    2.700000e+00
  TP3r  X4vq  1 3.950000e-01    2.700000e+00
  TP3r  C1vq  1 3.950000e-01    1.670000e+00
  TP3r  C2vq  1 3.950000e-01    1.850000e+00
  TP3r  C3vq  1 3.950000e-01    1.850000e+00
  TP3r  C4vq  1 3.950000e-01    2.310000e+00
  TP3r  C5vq  1 3.950000e-01    2.500000e+00
  TP3r  C6vq  1 3.950000e-01    2.700000e+00
  TP3r  N1aq  1 3.950000e-01    2.500000e+00
  TP3r  N2aq  1 3.950000e-01    2.700000e+00
  TP3r  N3aq  1 3.950000e-01    2.700000e+00
  TP3r  N4aq  1 3.950000e-01    2.940000e+00
  TP3r  N5aq  1 3.950000e-01    2.940000e+00
  TP3r  N6aq  1 3.950000e-01    3.190000e+00
  TP3r  P1aq  1 3.950000e-01    3.430000e+00
  TP3r  P2aq  1 3.950000e-01    3.670000e+00
  TP3r  P3aq  1 3.950000e-01    3.670000e+00
 TP4aq   P3r  1 3.950000e-01    3.670000e+00
 TP5aq   P3r  1 3.950000e-01    3.670000e+00
 TP6aq   P3r  1 3.950000e-01    3.910000e+00
  TP3r  N1dq  1 3.950000e-01    2.500000e+00
  TP3r  N2dq  1 3.950000e-01    2.700000e+00
  TP3r  N3dq  1 3.950000e-01    2.700000e+00
  TP3r  N4dq  1 3.950000e-01    2.940000e+00
  TP3r  N5dq  1 3.950000e-01    2.940000e+00
  TP3r  N6dq  1 3.950000e-01    3.190000e+00
  TP3r  P1dq  1 3.950000e-01    3.430000e+00
  TP3r  P2dq  1 3.950000e-01    3.670000e+00
  TP3r  P3dq  1 3.950000e-01    3.670000e+00
 TP4dq   P3r  1 3.950000e-01    3.670000e+00
 TP5dq   P3r  1 3.950000e-01    3.670000e+00
 TP6dq   P3r  1 3.950000e-01    3.910000e+00
  TP3r   X1q  1 3.950000e-01    2.110000e+00
  TP3r   X2q  1 3.950000e-01    2.310000e+00
  TP3r   X3q  1 3.950000e-01    2.500000e+00
  TP3r   X4q  1 3.950000e-01    2.500000e+00
  TP3r   C1q  1 3.980000e-01    1.450000e+00
  TP3r   C2q  1 3.950000e-01    1.670000e+00
  TP3r   C3q  1 3.950000e-01    1.670000e+00
  TP3r   C4q  1 3.950000e-01    2.110000e+00
  TP3r   C5q  1 3.950000e-01    2.310000e+00
  TP3r   C6q  1 3.950000e-01    2.500000e+00
  TP3r   N1q  1 3.950000e-01    2.500000e+00
  TP3r   N2q  1 3.950000e-01    2.700000e+00
  TP3r   N3q  1 3.950000e-01    2.700000e+00
  TP3r   N4q  1 3.950000e-01    2.940000e+00
  TP3r   N5q  1 3.950000e-01    2.940000e+00
  TP3r   N6q  1 3.950000e-01    3.190000e+00
  TP3r   P1q  1 3.950000e-01    3.430000e+00
  TP3r   P2q  1 3.950000e-01    3.670000e+00
  TP6d   P2r  1 3.950000e-01    3.430000e+00
  TP5d   P2r  1 3.950000e-01    3.190000e+00
  TP4d   P2r  1 3.950000e-01    3.190000e+00
  TP3d   P2r  1 3.950000e-01    3.190000e+00
  TP2r   P2d  1 3.950000e-01    3.190000e+00
  TP2r   N1d  1 3.950000e-01    2.310000e+00
  TP2r   N2d  1 3.950000e-01    2.310000e+00
  TP2r   N3d  1 3.950000e-01    2.310000e+00
  TP2r   N4d  1 3.950000e-01    2.500000e+00
  TP2r   N5d  1 3.950000e-01    2.700000e+00
  TP2r   N6d  1 3.950000e-01    2.940000e+00
  TP2r   P1d  1 3.950000e-01    2.940000e+00
  TP6a   P2r  1 3.950000e-01    3.430000e+00
  TP5a   P2r  1 3.950000e-01    3.190000e+00
  TP4a   P2r  1 3.950000e-01    3.190000e+00
  TP3a   P2r  1 3.950000e-01    3.190000e+00
  TP2r   P2a  1 3.950000e-01    3.190000e+00
  TP2r   N1a  1 3.950000e-01    2.310000e+00
  TP2r   N2a  1 3.950000e-01    2.310000e+00
  TP2r   N3a  1 3.950000e-01    2.310000e+00
  TP2r   N4a  1 3.950000e-01    2.500000e+00
  TP2r   N5a  1 3.950000e-01    2.700000e+00
  TP2r   N6a  1 3.950000e-01    2.940000e+00
  TP2r   P1a  1 3.950000e-01    2.940000e+00
  TP2r   C6v  1 3.950000e-01    2.310000e+00
  TP2r   C5v  1 3.950000e-01    2.110000e+00
  TP2r   C4v  1 3.950000e-01    1.850000e+00
  TP2r   C3v  1 3.950000e-01    1.670000e+00
  TP2r   C2v  1 3.950000e-01    1.670000e+00
  TP2r   C1v  1 3.980000e-01    1.450000e+00
  TP2r   X4v  1 3.950000e-01    2.310000e+00
  TP2r   X3v  1 3.950000e-01    2.310000e+00
  TP2r   X2v  1 3.950000e-01    2.110000e+00
  TP2r   X1v  1 3.950000e-01    1.850000e+00
  TP2r   C6e  1 3.950000e-01    2.310000e+00
  TP2r   C5e  1 3.950000e-01    2.110000e+00
  TP2r   C4e  1 3.950000e-01    1.850000e+00
  TP2r   C3e  1 3.950000e-01    1.670000e+00
  TP2r   C2e  1 3.950000e-01    1.670000e+00
  TP2r   C1e  1 3.980000e-01    1.450000e+00
  TP2r   X4e  1 3.950000e-01    2.310000e+00
  TP2r   X3e  1 3.950000e-01    2.310000e+00
  TP2r   X2e  1 3.950000e-01    2.110000e+00
  TP2r   X1e  1 3.950000e-01    1.850000e+00
  TP6q   P2r  1 3.950000e-01    3.910000e+00
  TP5q   P2r  1 3.950000e-01    3.670000e+00
  TP4q   P2r  1 3.950000e-01    3.670000e+00
  TP3q   P2r  1 3.950000e-01    3.670000e+00
  TP2r   P2q  1 3.950000e-01    3.670000e+00
  TP2r  X1eq  1 3.950000e-01    2.310000e+00
  TP2r  X2eq  1 3.950000e-01    2.500000e+00
  TP2r  X3eq  1 3.950000e-01    2.700000e+00
  TP2r  X4eq  1 3.950000e-01    2.700000e+00
  TP2r  C1eq  1 3.950000e-01    1.850000e+00
  TP2r  C2eq  1 3.950000e-01    2.110000e+00
  TP2r  C3eq  1 3.950000e-01    2.110000e+00
  TP2r  C4eq  1 3.950000e-01    2.310000e+00
  TP2r  C5eq  1 3.950000e-01    2.500000e+00
  TP2r  C6eq  1 3.950000e-01    2.700000e+00
  TP2r  X1vq  1 3.950000e-01    2.310000e+00
  TP2r  X2vq  1 3.950000e-01    2.500000e+00
  TP2r  X3vq  1 3.950000e-01    2.700000e+00
  TP2r  X4vq  1 3.950000e-01    2.700000e+00
  TP2r  C1vq  1 3.950000e-01    1.850000e+00
  TP2r  C2vq  1 3.950000e-01    2.110000e+00
  TP2r  C3vq  1 3.950000e-01    2.110000e+00
  TP2r  C4vq  1 3.950000e-01    2.310000e+00
  TP2r  C5vq  1 3.950000e-01    2.500000e+00
  TP2r  C6vq  1 3.950000e-01    2.700000e+00
  TP2r  N1aq  1 3.950000e-01    2.700000e+00
  TP2r  N2aq  1 3.950000e-01    2.700000e+00
  TP2r  N3aq  1 3.950000e-01    2.700000e+00
  TP2r  N4aq  1 3.950000e-01    2.940000e+00
  TP2r  N5aq  1 3.950000e-01    3.190000e+00
  TP2r  N6aq  1 3.950000e-01    3.430000e+00
  TP2r  P1aq  1 3.950000e-01    3.430000e+00
  TP2r  P2aq  1 3.950000e-01    3.670000e+00
 TP3aq   P2r  1 3.950000e-01    3.670000e+00
 TP4aq   P2r  1 3.950000e-01    3.670000e+00
 TP5aq   P2r  1 3.950000e-01    3.670000e+00
 TP6aq   P2r  1 3.950000e-01    3.910000e+00
  TP2r  N1dq  1 3.950000e-01    2.700000e+00
  TP2r  N2dq  1 3.950000e-01    2.700000e+00
  TP2r  N3dq  1 3.950000e-01    2.700000e+00
  TP2r  N4dq  1 3.950000e-01    2.940000e+00
  TP2r  N5dq  1 3.950000e-01    3.190000e+00
  TP2r  N6dq  1 3.950000e-01    3.430000e+00
  TP2r  P1dq  1 3.950000e-01    3.430000e+00
  TP2r  P2dq  1 3.950000e-01    3.670000e+00
 TP3dq   P2r  1 3.950000e-01    3.670000e+00
 TP4dq   P2r  1 3.950000e-01    3.670000e+00
 TP5dq   P2r  1 3.950000e-01    3.670000e+00
 TP6dq   P2r  1 3.950000e-01    3.910000e+00
  TP2r   X1q  1 3.950000e-01    2.110000e+00
  TP2r   X2q  1 3.950000e-01    2.310000e+00
  TP2r   X3q  1 3.950000e-01    2.500000e+00
  TP2r   X4q  1 3.950000e-01    2.500000e+00
  TP2r   C1q  1 3.950000e-01    1.670000e+00
  TP2r   C2q  1 3.950000e-01    1.850000e+00
  TP2r   C3q  1 3.950000e-01    1.850000e+00
  TP2r   C4q  1 3.950000e-01    2.110000e+00
  TP2r   C5q  1 3.950000e-01    2.310000e+00
  TP2r   C6q  1 3.950000e-01    2.500000e+00
  TP2r   N1q  1 3.950000e-01    2.700000e+00
  TP2r   N2q  1 3.950000e-01    2.700000e+00
  TP2r   N3q  1 3.950000e-01    2.700000e+00
  TP2r   N4q  1 3.950000e-01    2.940000e+00
  TP2r   N5q  1 3.950000e-01    3.190000e+00
  TP2r   N6q  1 3.950000e-01    3.430000e+00
  TP2r   P1q  1 3.950000e-01    3.430000e+00
  TP6d   P1r  1 3.950000e-01    3.190000e+00
  TP5d   P1r  1 3.950000e-01    2.940000e+00
  TP4d   P1r  1 3.950000e-01    2.940000e+00
  TP3d   P1r  1 3.950000e-01    2.940000e+00
  TP2d   P1r  1 3.950000e-01    2.940000e+00
  TP1r   P1d  1 3.950000e-01    2.940000e+00
  TP1r   N1d  1 3.950000e-01    2.310000e+00
  TP1r   N2d  1 3.950000e-01    2.310000e+00
  TP1r   N3d  1 3.950000e-01    2.310000e+00
  TP1r   N4d  1 3.950000e-01    2.700000e+00
  TP1r   N5d  1 3.950000e-01    2.700000e+00
  TP1r   N6d  1 3.950000e-01    2.940000e+00
  TP6a   P1r  1 3.950000e-01    3.190000e+00
  TP5a   P1r  1 3.950000e-01    2.940000e+00
  TP4a   P1r  1 3.950000e-01    2.940000e+00
  TP3a   P1r  1 3.950000e-01    2.940000e+00
  TP2a   P1r  1 3.950000e-01    2.940000e+00
  TP1r   P1a  1 3.950000e-01    2.940000e+00
  TP1r   N1a  1 3.950000e-01    2.310000e+00
  TP1r   N2a  1 3.950000e-01    2.310000e+00
  TP1r   N3a  1 3.950000e-01    2.310000e+00
  TP1r   N4a  1 3.950000e-01    2.700000e+00
  TP1r   N5a  1 3.950000e-01    2.700000e+00
  TP1r   N6a  1 3.950000e-01    2.940000e+00
  TP1r   C6v  1 3.950000e-01    2.310000e+00
  TP1r   C5v  1 3.950000e-01    2.110000e+00
  TP1r   C4v  1 3.950000e-01    1.850000e+00
  TP1r   C3v  1 3.950000e-01    1.670000e+00
  TP1r   C2v  1 3.950000e-01    1.670000e+00
  TP1r   C1v  1 3.980000e-01    1.450000e+00
  TP1r   X4v  1 3.950000e-01    2.310000e+00
  TP1r   X3v  1 3.950000e-01    2.310000e+00
  TP1r   X2v  1 3.950000e-01    2.110000e+00
  TP1r   X1v  1 3.950000e-01    1.850000e+00
  TP1r   C6e  1 3.950000e-01    2.310000e+00
  TP1r   C5e  1 3.950000e-01    2.110000e+00
  TP1r   C4e  1 3.950000e-01    1.850000e+00
  TP1r   C3e  1 3.950000e-01    1.670000e+00
  TP1r   C2e  1 3.950000e-01    1.670000e+00
  TP1r   C1e  1 3.980000e-01    1.450000e+00
  TP1r   X4e  1 3.950000e-01    2.310000e+00
  TP1r   X3e  1 3.950000e-01    2.310000e+00
  TP1r   X2e  1 3.950000e-01    2.110000e+00
  TP1r   X1e  1 3.950000e-01    1.850000e+00
  TP6q   P1r  1 3.950000e-01    3.670000e+00
  TP5q   P1r  1 3.950000e-01    3.430000e+00
  TP4q   P1r  1 3.950000e-01    3.430000e+00
  TP3q   P1r  1 3.950000e-01    3.430000e+00
  TP2q   P1r  1 3.950000e-01    3.430000e+00
  TP1r   P1q  1 3.950000e-01    3.430000e+00
  TP1r  X1eq  1 3.950000e-01    2.310000e+00
  TP1r  X2eq  1 3.950000e-01    2.500000e+00
  TP1r  X3eq  1 3.950000e-01    2.700000e+00
  TP1r  X4eq  1 3.950000e-01    2.700000e+00
  TP1r  C1eq  1 3.950000e-01    1.850000e+00
  TP1r  C2eq  1 3.950000e-01    2.110000e+00
  TP1r  C3eq  1 3.950000e-01    2.110000e+00
  TP1r  C4eq  1 3.950000e-01    2.310000e+00
  TP1r  C5eq  1 3.950000e-01    2.500000e+00
  TP1r  C6eq  1 3.950000e-01    2.700000e+00
  TP1r  X1vq  1 3.950000e-01    2.310000e+00
  TP1r  X2vq  1 3.950000e-01    2.500000e+00
  TP1r  X3vq  1 3.950000e-01    2.700000e+00
  TP1r  X4vq  1 3.950000e-01    2.700000e+00
  TP1r  C1vq  1 3.950000e-01    1.850000e+00
  TP1r  C2vq  1 3.950000e-01    2.110000e+00
  TP1r  C3vq  1 3.950000e-01    2.110000e+00
  TP1r  C4vq  1 3.950000e-01    2.310000e+00
  TP1r  C5vq  1 3.950000e-01    2.500000e+00
  TP1r  C6vq  1 3.950000e-01    2.700000e+00
  TP1r  N1aq  1 3.950000e-01    2.700000e+00
  TP1r  N2aq  1 3.950000e-01    2.700000e+00
  TP1r  N3aq  1 3.950000e-01    2.700000e+00
  TP1r  N4aq  1 3.950000e-01    3.190000e+00
  TP1r  N5aq  1 3.950000e-01    3.190000e+00
  TP1r  N6aq  1 3.950000e-01    3.430000e+00
  TP1r  P1aq  1 3.950000e-01    3.430000e+00
 TP2aq   P1r  1 3.950000e-01    3.430000e+00
 TP3aq   P1r  1 3.950000e-01    3.430000e+00
 TP4aq   P1r  1 3.950000e-01    3.430000e+00
 TP5aq   P1r  1 3.950000e-01    3.430000e+00
 TP6aq   P1r  1 3.950000e-01    3.670000e+00
  TP1r  N1dq  1 3.950000e-01    2.700000e+00
  TP1r  N2dq  1 3.950000e-01    2.700000e+00
  TP1r  N3dq  1 3.950000e-01    2.700000e+00
  TP1r  N4dq  1 3.950000e-01    3.190000e+00
  TP1r  N5dq  1 3.950000e-01    3.190000e+00
  TP1r  N6dq  1 3.950000e-01    3.430000e+00
  TP1r  P1dq  1 3.950000e-01    3.430000e+00
 TP2dq   P1r  1 3.950000e-01    3.430000e+00
 TP3dq   P1r  1 3.950000e-01    3.430000e+00
 TP4dq   P1r  1 3.950000e-01    3.430000e+00
 TP5dq   P1r  1 3.950000e-01    3.430000e+00
 TP6dq   P1r  1 3.950000e-01    3.670000e+00
  TP1r   X1q  1 3.950000e-01    2.110000e+00
  TP1r   X2q  1 3.950000e-01    2.310000e+00
  TP1r   X3q  1 3.950000e-01    2.500000e+00
  TP1r   X4q  1 3.950000e-01    2.500000e+00
  TP1r   C1q  1 3.950000e-01    1.670000e+00
  TP1r   C2q  1 3.950000e-01    1.850000e+00
  TP1r   C3q  1 3.950000e-01    1.850000e+00
  TP1r   C4q  1 3.950000e-01    2.110000e+00
  TP1r   C5q  1 3.950000e-01    2.310000e+00
  TP1r   C6q  1 3.950000e-01    2.500000e+00
  TP1r   N1q  1 3.950000e-01    2.700000e+00
  TP1r   N2q  1 3.950000e-01    2.700000e+00
  TP1r   N3q  1 3.950000e-01    2.700000e+00
  TP1r   N4q  1 3.950000e-01    3.190000e+00
  TP1r   N5q  1 3.950000e-01    3.190000e+00
  TP1r   N6q  1 3.950000e-01    3.430000e+00
  TP6d   N6r  1 3.950000e-01    2.940000e+00
  TP5d   N6r  1 3.950000e-01    2.700000e+00
  TP4d   N6r  1 3.950000e-01    2.700000e+00
  TP3d   N6r  1 3.950000e-01    2.700000e+00
  TP2d   N6r  1 3.950000e-01    2.940000e+00
  TP1d   N6r  1 3.950000e-01    2.940000e+00
  TN6r   N6d  1 3.950000e-01    2.940000e+00
  TN6r   N1d  1 3.950000e-01    2.310000e+00
  TN6r   N2d  1 3.950000e-01    2.310000e+00
  TN6r   N3d  1 3.950000e-01    2.500000e+00
  TN6r   N4d  1 3.950000e-01    2.940000e+00
  TN6r   N5d  1 3.950000e-01    2.940000e+00
  TP6a   N6r  1 3.950000e-01    2.940000e+00
  TP5a   N6r  1 3.950000e-01    2.700000e+00
  TP4a   N6r  1 3.950000e-01    2.700000e+00
  TP3a   N6r  1 3.950000e-01    2.700000e+00
  TP2a   N6r  1 3.950000e-01    2.940000e+00
  TP1a   N6r  1 3.950000e-01    2.940000e+00
  TN6r   N6a  1 3.950000e-01    2.940000e+00
  TN6r   N1a  1 3.950000e-01    2.310000e+00
  TN6r   N2a  1 3.950000e-01    2.310000e+00
  TN6r   N3a  1 3.950000e-01    2.500000e+00
  TN6r   N4a  1 3.950000e-01    2.940000e+00
  TN6r   N5a  1 3.950000e-01    2.940000e+00
  TN6r   C6v  1 3.950000e-01    2.500000e+00
  TN6r   C5v  1 3.950000e-01    2.310000e+00
  TN6r   C4v  1 3.950000e-01    2.110000e+00
  TN6r   C3v  1 3.950000e-01    1.850000e+00
  TN6r   C2v  1 3.950000e-01    1.850000e+00
  TN6r   C1v  1 3.950000e-01    1.670000e+00
  TN6r   X4v  1 3.950000e-01    2.500000e+00
  TN6r   X3v  1 3.950000e-01    2.310000e+00
  TN6r   X2v  1 3.950000e-01    2.110000e+00
  TN6r   X1v  1 3.950000e-01    1.850000e+00
  TN6r   C6e  1 3.950000e-01    2.500000e+00
  TN6r   C5e  1 3.950000e-01    2.310000e+00
  TN6r   C4e  1 3.950000e-01    2.110000e+00
  TN6r   C3e  1 3.950000e-01    1.850000e+00
  TN6r   C2e  1 3.950000e-01    1.850000e+00
  TN6r   C1e  1 3.950000e-01    1.670000e+00
  TN6r   X4e  1 3.950000e-01    2.500000e+00
  TN6r   X3e  1 3.950000e-01    2.310000e+00
  TN6r   X2e  1 3.950000e-01    2.110000e+00
  TN6r   X1e  1 3.950000e-01    1.850000e+00
  TP6q   N6r  1 3.950000e-01    3.430000e+00
  TP5q   N6r  1 3.950000e-01    3.190000e+00
  TP4q   N6r  1 3.950000e-01    3.190000e+00
  TP3q   N6r  1 3.950000e-01    3.190000e+00
  TP2q   N6r  1 3.950000e-01    3.430000e+00
  TP1q   N6r  1 3.950000e-01    3.430000e+00
  TN6r   N6q  1 3.950000e-01    3.430000e+00
  TN6r  X1eq  1 3.950000e-01    2.310000e+00
  TN6r  X2eq  1 3.950000e-01    2.500000e+00
  TN6r  X3eq  1 3.950000e-01    2.700000e+00
  TN6r  X4eq  1 3.950000e-01    2.940000e+00
  TN6r  C1eq  1 3.950000e-01    2.110000e+00
  TN6r  C2eq  1 3.950000e-01    2.310000e+00
  TN6r  C3eq  1 3.950000e-01    2.310000e+00
  TN6r  C4eq  1 3.950000e-01    2.500000e+00
  TN6r  C5eq  1 3.950000e-01    2.700000e+00
  TN6r  C6eq  1 3.950000e-01    2.940000e+00
  TN6r  X1vq  1 3.950000e-01    2.310000e+00
  TN6r  X2vq  1 3.950000e-01    2.500000e+00
  TN6r  X3vq  1 3.950000e-01    2.700000e+00
  TN6r  X4vq  1 3.950000e-01    2.940000e+00
  TN6r  C1vq  1 3.950000e-01    2.110000e+00
  TN6r  C2vq  1 3.950000e-01    2.310000e+00
  TN6r  C3vq  1 3.950000e-01    2.310000e+00
  TN6r  C4vq  1 3.950000e-01    2.500000e+00
  TN6r  C5vq  1 3.950000e-01    2.700000e+00
  TN6r  C6vq  1 3.950000e-01    2.940000e+00
  TN6r  N1aq  1 3.950000e-01    2.700000e+00
  TN6r  N2aq  1 3.950000e-01    2.700000e+00
  TN6r  N3aq  1 3.950000e-01    2.940000e+00
  TN6r  N4aq  1 3.950000e-01    3.430000e+00
  TN6r  N5aq  1 3.950000e-01    3.430000e+00
  TN6r  N6aq  1 3.950000e-01    3.430000e+00
 TP1aq   N6r  1 3.950000e-01    3.430000e+00
 TP2aq   N6r  1 3.950000e-01    3.430000e+00
 TP3aq   N6r  1 3.950000e-01    3.190000e+00
 TP4aq   N6r  1 3.950000e-01    3.190000e+00
 TP5aq   N6r  1 3.950000e-01    3.190000e+00
 TP6aq   N6r  1 3.950000e-01    3.430000e+00
  TN6r  N1dq  1 3.950000e-01    2.700000e+00
  TN6r  N2dq  1 3.950000e-01    2.700000e+00
  TN6r  N3dq  1 3.950000e-01    2.940000e+00
  TN6r  N4dq  1 3.950000e-01    3.430000e+00
  TN6r  N5dq  1 3.950000e-01    3.430000e+00
  TN6r  N6dq  1 3.950000e-01    3.430000e+00
 TP1dq   N6r  1 3.950000e-01    3.430000e+00
 TP2dq   N6r  1 3.950000e-01    3.430000e+00
 TP3dq   N6r  1 3.950000e-01    3.190000e+00
 TP4dq   N6r  1 3.950000e-01    3.190000e+00
 TP5dq   N6r  1 3.950000e-01    3.190000e+00
 TP6dq   N6r  1 3.950000e-01    3.430000e+00
  TN6r   X1q  1 3.950000e-01    2.110000e+00
  TN6r   X2q  1 3.950000e-01    2.310000e+00
  TN6r   X3q  1 3.950000e-01    2.500000e+00
  TN6r   X4q  1 3.950000e-01    2.700000e+00
  TN6r   C1q  1 3.950000e-01    1.850000e+00
  TN6r   C2q  1 3.950000e-01    2.110000e+00
  TN6r   C3q  1 3.950000e-01    2.110000e+00
  TN6r   C4q  1 3.950000e-01    2.310000e+00
  TN6r   C5q  1 3.950000e-01    2.500000e+00
  TN6r   C6q  1 3.950000e-01    2.700000e+00
  TN6r   N1q  1 3.950000e-01    2.700000e+00
  TN6r   N2q  1 3.950000e-01    2.700000e+00
  TN6r   N3q  1 3.950000e-01    2.940000e+00
  TN6r   N4q  1 3.950000e-01    3.430000e+00
  TN6r   N5q  1 3.950000e-01    3.430000e+00
  TP6d   N5r  1 3.950000e-01    2.500000e+00
  TP5d   N5r  1 3.950000e-01    2.500000e+00
  TP4d   N5r  1 3.950000e-01    2.500000e+00
  TP3d   N5r  1 3.950000e-01    2.500000e+00
  TP2d   N5r  1 3.950000e-01    2.700000e+00
  TP1d   N5r  1 3.950000e-01    2.700000e+00
  TN6d   N5r  1 3.950000e-01    2.940000e+00
  TN5r   N5d  1 3.950000e-01    2.700000e+00
  TN5r   N1d  1 3.950000e-01    2.310000e+00
  TN5r   N2d  1 3.950000e-01    2.500000e+00
  TN5r   N3d  1 3.950000e-01    2.500000e+00
  TN5r   N4d  1 3.950000e-01    2.700000e+00
  TP6a   N5r  1 3.950000e-01    2.500000e+00
  TP5a   N5r  1 3.950000e-01    2.500000e+00
  TP4a   N5r  1 3.950000e-01    2.500000e+00
  TP3a   N5r  1 3.950000e-01    2.500000e+00
  TP2a   N5r  1 3.950000e-01    2.700000e+00
  TP1a   N5r  1 3.950000e-01    2.700000e+00
  TN6a   N5r  1 3.950000e-01    2.940000e+00
  TN5r   N5a  1 3.950000e-01    2.700000e+00
  TN5r   N1a  1 3.950000e-01    2.310000e+00
  TN5r   N2a  1 3.950000e-01    2.500000e+00
  TN5r   N3a  1 3.950000e-01    2.500000e+00
  TN5r   N4a  1 3.950000e-01    2.700000e+00
  TN5r   C6v  1 3.950000e-01    2.500000e+00
  TN5r   C5v  1 3.950000e-01    2.310000e+00
  TN5r   C4v  1 3.950000e-01    2.110000e+00
  TN5r   C3v  1 3.950000e-01    2.110000e+00
  TN5r   C2v  1 3.950000e-01    1.850000e+00
  TN5r   C1v  1 3.950000e-01    1.670000e+00
  TN5r   X4v  1 3.950000e-01    2.700000e+00
  TN5r   X3v  1 3.950000e-01    2.500000e+00
  TN5r   X2v  1 3.950000e-01    2.310000e+00
  TN5r   X1v  1 3.950000e-01    2.110000e+00
  TN5r   C6e  1 3.950000e-01    2.500000e+00
  TN5r   C5e  1 3.950000e-01    2.310000e+00
  TN5r   C4e  1 3.950000e-01    2.110000e+00
  TN5r   C3e  1 3.950000e-01    2.110000e+00
  TN5r   C2e  1 3.950000e-01    1.850000e+00
  TN5r   C1e  1 3.950000e-01    1.670000e+00
  TN5r   X4e  1 3.950000e-01    2.700000e+00
  TN5r   X3e  1 3.950000e-01    2.500000e+00
  TN5r   X2e  1 3.950000e-01    2.310000e+00
  TN5r   X1e  1 3.950000e-01    2.110000e+00
  TP6q   N5r  1 3.950000e-01    2.940000e+00
  TP5q   N5r  1 3.950000e-01    2.940000e+00
  TP4q   N5r  1 3.950000e-01    2.940000e+00
  TP3q   N5r  1 3.950000e-01    2.940000e+00
  TP2q   N5r  1 3.950000e-01    3.190000e+00
  TP1q   N5r  1 3.950000e-01    3.190000e+00
  TN6q   N5r  1 3.950000e-01    3.430000e+00
  TN5r   N5q  1 3.950000e-01    3.190000e+00
  TN5r  X1eq  1 3.950000e-01    2.500000e+00
  TN5r  X2eq  1 3.950000e-01    2.700000e+00
  TN5r  X3eq  1 3.950000e-01    2.940000e+00
  TN5r  X4eq  1 3.950000e-01    3.190000e+00
  TN5r  C1eq  1 3.950000e-01    2.110000e+00
  TN5r  C2eq  1 3.950000e-01    2.310000e+00
  TN5r  C3eq  1 3.950000e-01    2.500000e+00
  TN5r  C4eq  1 3.950000e-01    2.500000e+00
  TN5r  C5eq  1 3.950000e-01    2.700000e+00
  TN5r  C6eq  1 3.950000e-01    2.940000e+00
  TN5r  X1vq  1 3.950000e-01    2.500000e+00
  TN5r  X2vq  1 3.950000e-01    2.700000e+00
  TN5r  X3vq  1 3.950000e-01    2.940000e+00
  TN5r  X4vq  1 3.950000e-01    3.190000e+00
  TN5r  C1vq  1 3.950000e-01    2.110000e+00
  TN5r  C2vq  1 3.950000e-01    2.310000e+00
  TN5r  C3vq  1 3.950000e-01    2.500000e+00
  TN5r  C4vq  1 3.950000e-01    2.500000e+00
  TN5r  C5vq  1 3.950000e-01    2.700000e+00
  TN5r  C6vq  1 3.950000e-01    2.940000e+00
  TN5r  N1aq  1 3.950000e-01    2.700000e+00
  TN5r  N2aq  1 3.950000e-01    2.940000e+00
  TN5r  N3aq  1 3.950000e-01    2.940000e+00
  TN5r  N4aq  1 3.950000e-01    3.190000e+00
  TN5r  N5aq  1 3.950000e-01    3.190000e+00
 TN6aq   N5r  1 3.950000e-01    3.430000e+00
 TP1aq   N5r  1 3.950000e-01    3.190000e+00
 TP2aq   N5r  1 3.950000e-01    3.190000e+00
 TP3aq   N5r  1 3.950000e-01    2.940000e+00
 TP4aq   N5r  1 3.950000e-01    2.940000e+00
 TP5aq   N5r  1 3.950000e-01    2.940000e+00
 TP6aq   N5r  1 3.950000e-01    2.940000e+00
  TN5r  N1dq  1 3.950000e-01    2.700000e+00
  TN5r  N2dq  1 3.950000e-01    2.940000e+00
  TN5r  N3dq  1 3.950000e-01    2.940000e+00
  TN5r  N4dq  1 3.950000e-01    3.190000e+00
  TN5r  N5dq  1 3.950000e-01    3.190000e+00
 TN6dq   N5r  1 3.950000e-01    3.430000e+00
 TP1dq   N5r  1 3.950000e-01    3.190000e+00
 TP2dq   N5r  1 3.950000e-01    3.190000e+00
 TP3dq   N5r  1 3.950000e-01    2.940000e+00
 TP4dq   N5r  1 3.950000e-01    2.940000e+00
 TP5dq   N5r  1 3.950000e-01    2.940000e+00
 TP6dq   N5r  1 3.950000e-01    2.940000e+00
  TN5r   X1q  1 3.950000e-01    2.310000e+00
  TN5r   X2q  1 3.950000e-01    2.500000e+00
  TN5r   X3q  1 3.950000e-01    2.700000e+00
  TN5r   X4q  1 3.950000e-01    2.940000e+00
  TN5r   C1q  1 3.950000e-01    1.850000e+00
  TN5r   C2q  1 3.950000e-01    2.110000e+00
  TN5r   C3q  1 3.950000e-01    2.310000e+00
  TN5r   C4q  1 3.950000e-01    2.310000e+00
  TN5r   C5q  1 3.950000e-01    2.500000e+00
  TN5r   C6q  1 3.950000e-01    2.700000e+00
  TN5r   N1q  1 3.950000e-01    2.700000e+00
  TN5r   N2q  1 3.950000e-01    2.940000e+00
  TN5r   N3q  1 3.950000e-01    2.940000e+00
  TN5r   N4q  1 3.950000e-01    3.190000e+00
  TP6d   N4r  1 3.950000e-01    2.310000e+00
  TP5d   N4r  1 3.950000e-01    2.500000e+00
  TP4d   N4r  1 3.950000e-01    2.500000e+00
  TP3d   N4r  1 3.950000e-01    2.500000e+00
  TP2d   N4r  1 3.950000e-01    2.500000e+00
  TP1d   N4r  1 3.950000e-01    2.700000e+00
  TN6d   N4r  1 3.950000e-01    2.940000e+00
  TN5d   N4r  1 3.950000e-01    2.700000e+00
  TN4r   N4d  1 3.950000e-01    2.700000e+00
  TN4r   N1d  1 3.950000e-01    2.310000e+00
  TN4r   N2d  1 3.950000e-01    2.500000e+00
  TN4r   N3d  1 3.950000e-01    2.500000e+00
  TP6a   N4r  1 3.950000e-01    2.310000e+00
  TP5a   N4r  1 3.950000e-01    2.500000e+00
  TP4a   N4r  1 3.950000e-01    2.500000e+00
  TP3a   N4r  1 3.950000e-01    2.500000e+00
  TP2a   N4r  1 3.950000e-01    2.500000e+00
  TP1a   N4r  1 3.950000e-01    2.700000e+00
  TN6a   N4r  1 3.950000e-01    2.940000e+00
  TN5a   N4r  1 3.950000e-01    2.700000e+00
  TN4r   N4a  1 3.950000e-01    2.700000e+00
  TN4r   N1a  1 3.950000e-01    2.310000e+00
  TN4r   N2a  1 3.950000e-01    2.500000e+00
  TN4r   N3a  1 3.950000e-01    2.500000e+00
  TN4r   C6v  1 3.950000e-01    2.500000e+00
  TN4r   C5v  1 3.950000e-01    2.310000e+00
  TN4r   C4v  1 3.950000e-01    2.310000e+00
  TN4r   C3v  1 3.950000e-01    2.110000e+00
  TN4r   C2v  1 3.950000e-01    1.850000e+00
  TN4r   C1v  1 3.950000e-01    1.670000e+00
  TN4r   X4v  1 3.950000e-01    2.940000e+00
  TN4r   X3v  1 3.950000e-01    2.700000e+00
  TN4r   X2v  1 3.950000e-01    2.310000e+00
  TN4r   X1v  1 3.950000e-01    2.110000e+00
  TN4r   C6e  1 3.950000e-01    2.500000e+00
  TN4r   C5e  1 3.950000e-01    2.310000e+00
  TN4r   C4e  1 3.950000e-01    2.310000e+00
  TN4r   C3e  1 3.950000e-01    2.110000e+00
  TN4r   C2e  1 3.950000e-01    1.850000e+00
  TN4r   C1e  1 3.950000e-01    1.670000e+00
  TN4r   X4e  1 3.950000e-01    2.940000e+00
  TN4r   X3e  1 3.950000e-01    2.700000e+00
  TN4r   X2e  1 3.950000e-01    2.310000e+00
  TN4r   X1e  1 3.950000e-01    2.110000e+00
  TP6q   N4r  1 3.950000e-01    2.700000e+00
  TP5q   N4r  1 3.950000e-01    2.940000e+00
  TP4q   N4r  1 3.950000e-01    2.940000e+00
  TP3q   N4r  1 3.950000e-01    2.940000e+00
  TP2q   N4r  1 3.950000e-01    2.940000e+00
  TP1q   N4r  1 3.950000e-01    3.190000e+00
  TN6q   N4r  1 3.950000e-01    3.430000e+00
  TN5q   N4r  1 3.950000e-01    3.190000e+00
  TN4r   N4q  1 3.950000e-01    3.190000e+00
  TN4r  X1eq  1 3.950000e-01    2.500000e+00
  TN4r  X2eq  1 3.950000e-01    2.700000e+00
  TN4r  X3eq  1 3.950000e-01    3.190000e+00
  TN4r  X4eq  1 3.950000e-01    3.430000e+00
  TN4r  C1eq  1 3.950000e-01    2.110000e+00
  TN4r  C2eq  1 3.950000e-01    2.310000e+00
  TN4r  C3eq  1 3.950000e-01    2.500000e+00
  TN4r  C4eq  1 3.950000e-01    2.700000e+00
  TN4r  C5eq  1 3.950000e-01    2.700000e+00
  TN4r  C6eq  1 3.950000e-01    2.940000e+00
  TN4r  X1vq  1 3.950000e-01    2.500000e+00
  TN4r  X2vq  1 3.950000e-01    2.700000e+00
  TN4r  X3vq  1 3.950000e-01    3.190000e+00
  TN4r  X4vq  1 3.950000e-01    3.430000e+00
  TN4r  C1vq  1 3.950000e-01    2.110000e+00
  TN4r  C2vq  1 3.950000e-01    2.310000e+00
  TN4r  C3vq  1 3.950000e-01    2.500000e+00
  TN4r  C4vq  1 3.950000e-01    2.700000e+00
  TN4r  C5vq  1 3.950000e-01    2.700000e+00
  TN4r  C6vq  1 3.950000e-01    2.940000e+00
  TN4r  N1aq  1 3.950000e-01    2.700000e+00
  TN4r  N2aq  1 3.950000e-01    2.940000e+00
  TN4r  N3aq  1 3.950000e-01    2.940000e+00
  TN4r  N4aq  1 3.950000e-01    3.190000e+00
 TN5aq   N4r  1 3.950000e-01    3.190000e+00
 TN6aq   N4r  1 3.950000e-01    3.430000e+00
 TP1aq   N4r  1 3.950000e-01    3.190000e+00
 TP2aq   N4r  1 3.950000e-01    2.940000e+00
 TP3aq   N4r  1 3.950000e-01    2.940000e+00
 TP4aq   N4r  1 3.950000e-01    2.940000e+00
 TP5aq   N4r  1 3.950000e-01    2.940000e+00
 TP6aq   N4r  1 3.950000e-01    2.700000e+00
  TN4r  N1dq  1 3.950000e-01    2.700000e+00
  TN4r  N2dq  1 3.950000e-01    2.940000e+00
  TN4r  N3dq  1 3.950000e-01    2.940000e+00
  TN4r  N4dq  1 3.950000e-01    3.190000e+00
 TN5dq   N4r  1 3.950000e-01    3.190000e+00
 TN6dq   N4r  1 3.950000e-01    3.430000e+00
 TP1dq   N4r  1 3.950000e-01    3.190000e+00
 TP2dq   N4r  1 3.950000e-01    2.940000e+00
 TP3dq   N4r  1 3.950000e-01    2.940000e+00
 TP4dq   N4r  1 3.950000e-01    2.940000e+00
 TP5dq   N4r  1 3.950000e-01    2.940000e+00
 TP6dq   N4r  1 3.950000e-01    2.700000e+00
  TN4r   X1q  1 3.950000e-01    2.310000e+00
  TN4r   X2q  1 3.950000e-01    2.500000e+00
  TN4r   X3q  1 3.950000e-01    2.940000e+00
  TN4r   X4q  1 3.950000e-01    3.190000e+00
  TN4r   C1q  1 3.950000e-01    1.850000e+00
  TN4r   C2q  1 3.950000e-01    2.110000e+00
  TN4r   C3q  1 3.950000e-01    2.310000e+00
  TN4r   C4q  1 3.950000e-01    2.500000e+00
  TN4r   C5q  1 3.950000e-01    2.500000e+00
  TN4r   C6q  1 3.950000e-01    2.700000e+00
  TN4r   N1q  1 3.950000e-01    2.700000e+00
  TN4r   N2q  1 3.950000e-01    2.940000e+00
  TN4r   N3q  1 3.950000e-01    2.940000e+00
  TP6d   N3r  1 3.950000e-01    2.110000e+00
  TP5d   N3r  1 3.950000e-01    2.110000e+00
  TP4d   N3r  1 3.950000e-01    2.310000e+00
  TP3d   N3r  1 3.950000e-01    2.310000e+00
  TP2d   N3r  1 3.950000e-01    2.310000e+00
  TP1d   N3r  1 3.950000e-01    2.310000e+00
  TN6d   N3r  1 3.950000e-01    2.500000e+00
  TN5d   N3r  1 3.950000e-01    2.500000e+00
  TN4d   N3r  1 3.950000e-01    2.500000e+00
  TN3r   N3d  1 3.950000e-01    2.500000e+00
  TN3r   N1d  1 3.950000e-01    2.310000e+00
  TN3r   N2d  1 3.950000e-01    2.500000e+00
  TP6a   N3r  1 3.950000e-01    2.110000e+00
  TP5a   N3r  1 3.950000e-01    2.110000e+00
  TP4a   N3r  1 3.950000e-01    2.310000e+00
  TP3a   N3r  1 3.950000e-01    2.310000e+00
  TP2a   N3r  1 3.950000e-01    2.310000e+00
  TP1a   N3r  1 3.950000e-01    2.310000e+00
  TN6a   N3r  1 3.950000e-01    2.500000e+00
  TN5a   N3r  1 3.950000e-01    2.500000e+00
  TN4a   N3r  1 3.950000e-01    2.500000e+00
  TN3r   N3a  1 3.950000e-01    2.500000e+00
  TN3r   N1a  1 3.950000e-01    2.310000e+00
  TN3r   N2a  1 3.950000e-01    2.500000e+00
  TN3r   C6v  1 3.950000e-01    2.500000e+00
  TN3r   C5v  1 3.950000e-01    2.310000e+00
  TN3r   C4v  1 3.950000e-01    2.310000e+00
  TN3r   C3v  1 3.950000e-01    2.110000e+00
  TN3r   C2v  1 3.950000e-01    2.110000e+00
  TN3r   C1v  1 3.950000e-01    1.850000e+00
  TN3r   X4v  1 3.950000e-01    2.700000e+00
  TN3r   X3v  1 3.950000e-01    2.500000e+00
  TN3r   X2v  1 3.950000e-01    2.310000e+00
  TN3r   X1v  1 3.950000e-01    2.310000e+00
  TN3r   C6e  1 3.950000e-01    2.500000e+00
  TN3r   C5e  1 3.950000e-01    2.310000e+00
  TN3r   C4e  1 3.950000e-01    2.310000e+00
  TN3r   C3e  1 3.950000e-01    2.110000e+00
  TN3r   C2e  1 3.950000e-01    2.110000e+00
  TN3r   C1e  1 3.950000e-01    1.850000e+00
  TN3r   X4e  1 3.950000e-01    2.700000e+00
  TN3r   X3e  1 3.950000e-01    2.500000e+00
  TN3r   X2e  1 3.950000e-01    2.310000e+00
  TN3r   X1e  1 3.950000e-01    2.310000e+00
  TP6q   N3r  1 3.950000e-01    2.500000e+00
  TP5q   N3r  1 3.950000e-01    2.500000e+00
  TP4q   N3r  1 3.950000e-01    2.700000e+00
  TP3q   N3r  1 3.950000e-01    2.700000e+00
  TP2q   N3r  1 3.950000e-01    2.700000e+00
  TP1q   N3r  1 3.950000e-01    2.700000e+00
  TN6q   N3r  1 3.950000e-01    2.940000e+00
  TN5q   N3r  1 3.950000e-01    2.940000e+00
  TN4q   N3r  1 3.950000e-01    2.940000e+00
  TN3r   N3q  1 3.950000e-01    2.940000e+00
  TN3r  X1eq  1 3.950000e-01    2.700000e+00
  TN3r  X2eq  1 3.950000e-01    2.700000e+00
  TN3r  X3eq  1 3.950000e-01    2.940000e+00
  TN3r  X4eq  1 3.950000e-01    3.190000e+00
  TN3r  C1eq  1 3.950000e-01    2.310000e+00
  TN3r  C2eq  1 3.950000e-01    2.500000e+00
  TN3r  C3eq  1 3.950000e-01    2.500000e+00
  TN3r  C4eq  1 3.950000e-01    2.700000e+00
  TN3r  C5eq  1 3.950000e-01    2.700000e+00
  TN3r  C6eq  1 3.950000e-01    2.940000e+00
  TN3r  X1vq  1 3.950000e-01    2.700000e+00
  TN3r  X2vq  1 3.950000e-01    2.700000e+00
  TN3r  X3vq  1 3.950000e-01    2.940000e+00
  TN3r  X4vq  1 3.950000e-01    3.190000e+00
  TN3r  C1vq  1 3.950000e-01    2.310000e+00
  TN3r  C2vq  1 3.950000e-01    2.500000e+00
  TN3r  C3vq  1 3.950000e-01    2.500000e+00
  TN3r  C4vq  1 3.950000e-01    2.700000e+00
  TN3r  C5vq  1 3.950000e-01    2.700000e+00
  TN3r  C6vq  1 3.950000e-01    2.940000e+00
  TN3r  N1aq  1 3.950000e-01    2.700000e+00
  TN3r  N2aq  1 3.950000e-01    2.940000e+00
  TN3r  N3aq  1 3.950000e-01    2.940000e+00
 TN4aq   N3r  1 3.950000e-01    2.940000e+00
 TN5aq   N3r  1 3.950000e-01    2.940000e+00
 TN6aq   N3r  1 3.950000e-01    2.940000e+00
 TP1aq   N3r  1 3.950000e-01    2.700000e+00
 TP2aq   N3r  1 3.950000e-01    2.700000e+00
 TP3aq   N3r  1 3.950000e-01    2.700000e+00
 TP4aq   N3r  1 3.950000e-01    2.700000e+00
 TP5aq   N3r  1 3.950000e-01    2.500000e+00
 TP6aq   N3r  1 3.950000e-01    2.500000e+00
  TN3r  N1dq  1 3.950000e-01    2.700000e+00
  TN3r  N2dq  1 3.950000e-01    2.940000e+00
  TN3r  N3dq  1 3.950000e-01    2.940000e+00
 TN4dq   N3r  1 3.950000e-01    2.940000e+00
 TN5dq   N3r  1 3.950000e-01    2.940000e+00
 TN6dq   N3r  1 3.950000e-01    2.940000e+00
 TP1dq   N3r  1 3.950000e-01    2.700000e+00
 TP2dq   N3r  1 3.950000e-01    2.700000e+00
 TP3dq   N3r  1 3.950000e-01    2.700000e+00
 TP4dq   N3r  1 3.950000e-01    2.700000e+00
 TP5dq   N3r  1 3.950000e-01    2.500000e+00
 TP6dq   N3r  1 3.950000e-01    2.500000e+00
  TN3r   X1q  1 3.950000e-01    2.500000e+00
  TN3r   X2q  1 3.950000e-01    2.500000e+00
  TN3r   X3q  1 3.950000e-01    2.700000e+00
  TN3r   X4q  1 3.950000e-01    2.940000e+00
  TN3r   C1q  1 3.950000e-01    2.110000e+00
  TN3r   C2q  1 3.950000e-01    2.310000e+00
  TN3r   C3q  1 3.950000e-01    2.310000e+00
  TN3r   C4q  1 3.950000e-01    2.500000e+00
  TN3r   C5q  1 3.950000e-01    2.500000e+00
  TN3r   C6q  1 3.950000e-01    2.700000e+00
  TN3r   N1q  1 3.950000e-01    2.700000e+00
  TN3r   N2q  1 3.950000e-01    2.940000e+00
  TP6d   N2r  1 3.950000e-01    1.850000e+00
  TP5d   N2r  1 3.950000e-01    1.850000e+00
  TP4d   N2r  1 3.950000e-01    2.110000e+00
  TP3d   N2r  1 3.950000e-01    2.310000e+00
  TP2d   N2r  1 3.950000e-01    2.310000e+00
  TP1d   N2r  1 3.950000e-01    2.310000e+00
  TN6d   N2r  1 3.950000e-01    2.310000e+00
  TN5d   N2r  1 3.950000e-01    2.500000e+00
  TN4d   N2r  1 3.950000e-01    2.500000e+00
  TN3d   N2r  1 3.950000e-01    2.500000e+00
  TN2r   N2d  1 3.950000e-01    2.500000e+00
  TN2r   N1d  1 3.950000e-01    2.310000e+00
  TP6a   N2r  1 3.950000e-01    1.850000e+00
  TP5a   N2r  1 3.950000e-01    1.850000e+00
  TP4a   N2r  1 3.950000e-01    2.110000e+00
  TP3a   N2r  1 3.950000e-01    2.310000e+00
  TP2a   N2r  1 3.950000e-01    2.310000e+00
  TP1a   N2r  1 3.950000e-01    2.310000e+00
  TN6a   N2r  1 3.950000e-01    2.310000e+00
  TN5a   N2r  1 3.950000e-01    2.500000e+00
  TN4a   N2r  1 3.950000e-01    2.500000e+00
  TN3a   N2r  1 3.950000e-01    2.500000e+00
  TN2r   N2a  1 3.950000e-01    2.500000e+00
  TN2r   N1a  1 3.950000e-01    2.310000e+00
  TN2r   C6v  1 3.950000e-01    2.500000e+00
  TN2r   C5v  1 3.950000e-01    2.310000e+00
  TN2r   C4v  1 3.950000e-01    2.310000e+00
  TN2r   C3v  1 3.950000e-01    2.310000e+00
  TN2r   C2v  1 3.950000e-01    2.110000e+00
  TN2r   C1v  1 3.950000e-01    1.850000e+00
  TN2r   X4v  1 3.950000e-01    2.700000e+00
  TN2r   X3v  1 3.950000e-01    2.500000e+00
  TN2r   X2v  1 3.950000e-01    2.310000e+00
  TN2r   X1v  1 3.950000e-01    2.310000e+00
  TN2r   C6e  1 3.950000e-01    2.500000e+00
  TN2r   C5e  1 3.950000e-01    2.310000e+00
  TN2r   C4e  1 3.950000e-01    2.310000e+00
  TN2r   C3e  1 3.950000e-01    2.310000e+00
  TN2r   C2e  1 3.950000e-01    2.110000e+00
  TN2r   C1e  1 3.950000e-01    1.850000e+00
  TN2r   X4e  1 3.950000e-01    2.700000e+00
  TN2r   X3e  1 3.950000e-01    2.500000e+00
  TN2r   X2e  1 3.950000e-01    2.310000e+00
  TN2r   X1e  1 3.950000e-01    2.310000e+00
  TP6q   N2r  1 3.950000e-01    2.310000e+00
  TP5q   N2r  1 3.950000e-01    2.310000e+00
  TP4q   N2r  1 3.950000e-01    2.500000e+00
  TP3q   N2r  1 3.950000e-01    2.700000e+00
  TP2q   N2r  1 3.950000e-01    2.700000e+00
  TP1q   N2r  1 3.950000e-01    2.700000e+00
  TN6q   N2r  1 3.950000e-01    2.700000e+00
  TN5q   N2r  1 3.950000e-01    2.940000e+00
  TN4q   N2r  1 3.950000e-01    2.940000e+00
  TN3q   N2r  1 3.950000e-01    2.940000e+00
  TN2r   N2q  1 3.950000e-01    2.940000e+00
  TN2r  X1eq  1 3.950000e-01    2.700000e+00
  TN2r  X2eq  1 3.950000e-01    2.700000e+00
  TN2r  X3eq  1 3.950000e-01    2.940000e+00
  TN2r  X4eq  1 3.950000e-01    3.190000e+00
  TN2r  C1eq  1 3.950000e-01    2.310000e+00
  TN2r  C2eq  1 3.950000e-01    2.500000e+00
  TN2r  C3eq  1 3.950000e-01    2.700000e+00
  TN2r  C4eq  1 3.950000e-01    2.700000e+00
  TN2r  C5eq  1 3.950000e-01    2.700000e+00
  TN2r  C6eq  1 3.950000e-01    2.940000e+00
  TN2r  X1vq  1 3.950000e-01    2.700000e+00
  TN2r  X2vq  1 3.950000e-01    2.700000e+00
  TN2r  X3vq  1 3.950000e-01    2.940000e+00
  TN2r  X4vq  1 3.950000e-01    3.190000e+00
  TN2r  C1vq  1 3.950000e-01    2.310000e+00
  TN2r  C2vq  1 3.950000e-01    2.500000e+00
  TN2r  C3vq  1 3.950000e-01    2.700000e+00
  TN2r  C4vq  1 3.950000e-01    2.700000e+00
  TN2r  C5vq  1 3.950000e-01    2.700000e+00
  TN2r  C6vq  1 3.950000e-01    2.940000e+00
  TN2r  N1aq  1 3.950000e-01    2.700000e+00
  TN2r  N2aq  1 3.950000e-01    2.940000e+00
 TN3aq   N2r  1 3.950000e-01    2.940000e+00
 TN4aq   N2r  1 3.950000e-01    2.940000e+00
 TN5aq   N2r  1 3.950000e-01    2.940000e+00
 TN6aq   N2r  1 3.950000e-01    2.700000e+00
 TP1aq   N2r  1 3.950000e-01    2.700000e+00
 TP2aq   N2r  1 3.950000e-01    2.700000e+00
 TP3aq   N2r  1 3.950000e-01    2.700000e+00
 TP4aq   N2r  1 3.950000e-01    2.500000e+00
 TP5aq   N2r  1 3.950000e-01    2.310000e+00
 TP6aq   N2r  1 3.950000e-01    2.310000e+00
  TN2r  N1dq  1 3.950000e-01    2.700000e+00
  TN2r  N2dq  1 3.950000e-01    2.940000e+00
 TN3dq   N2r  1 3.950000e-01    2.940000e+00
 TN4dq   N2r  1 3.950000e-01    2.940000e+00
 TN5dq   N2r  1 3.950000e-01    2.940000e+00
 TN6dq   N2r  1 3.950000e-01    2.700000e+00
 TP1dq   N2r  1 3.950000e-01    2.700000e+00
 TP2dq   N2r  1 3.950000e-01    2.700000e+00
 TP3dq   N2r  1 3.950000e-01    2.700000e+00
 TP4dq   N2r  1 3.950000e-01    2.500000e+00
 TP5dq   N2r  1 3.950000e-01    2.310000e+00
 TP6dq   N2r  1 3.950000e-01    2.310000e+00
  TN2r   X1q  1 3.950000e-01    2.500000e+00
  TN2r   X2q  1 3.950000e-01    2.500000e+00
  TN2r   X3q  1 3.950000e-01    2.700000e+00
  TN2r   X4q  1 3.950000e-01    2.940000e+00
  TN2r   C1q  1 3.950000e-01    2.110000e+00
  TN2r   C2q  1 3.950000e-01    2.310000e+00
  TN2r   C3q  1 3.950000e-01    2.500000e+00
  TN2r   C4q  1 3.950000e-01    2.500000e+00
  TN2r   C5q  1 3.950000e-01    2.500000e+00
  TN2r   C6q  1 3.950000e-01    2.700000e+00
  TN2r   N1q  1 3.950000e-01    2.700000e+00
  TP6d   N1r  1 3.950000e-01    1.670000e+00
  TP5d   N1r  1 3.950000e-01    1.670000e+00
  TP4d   N1r  1 3.950000e-01    1.850000e+00
  TP3d   N1r  1 3.950000e-01    2.110000e+00
  TP2d   N1r  1 3.950000e-01    2.310000e+00
  TP1d   N1r  1 3.950000e-01    2.310000e+00
  TN6d   N1r  1 3.950000e-01    2.310000e+00
  TN5d   N1r  1 3.950000e-01    2.310000e+00
  TN4d   N1r  1 3.950000e-01    2.310000e+00
  TN3d   N1r  1 3.950000e-01    2.310000e+00
  TN2d   N1r  1 3.950000e-01    2.310000e+00
  TN1r   N1d  1 3.950000e-01    2.500000e+00
  TP6a   N1r  1 3.950000e-01    1.670000e+00
  TP5a   N1r  1 3.950000e-01    1.670000e+00
  TP4a   N1r  1 3.950000e-01    1.850000e+00
  TP3a   N1r  1 3.950000e-01    2.110000e+00
  TP2a   N1r  1 3.950000e-01    2.310000e+00
  TP1a   N1r  1 3.950000e-01    2.310000e+00
  TN6a   N1r  1 3.950000e-01    2.310000e+00
  TN5a   N1r  1 3.950000e-01    2.310000e+00
  TN4a   N1r  1 3.950000e-01    2.310000e+00
  TN3a   N1r  1 3.950000e-01    2.310000e+00
  TN2a   N1r  1 3.950000e-01    2.310000e+00
  TN1r   N1a  1 3.950000e-01    2.500000e+00
  TN1r   C6v  1 3.950000e-01    2.700000e+00
  TN1r   C5v  1 3.950000e-01    2.500000e+00
  TN1r   C4v  1 3.950000e-01    2.500000e+00
  TN1r   C3v  1 3.950000e-01    2.310000e+00
  TN1r   C2v  1 3.950000e-01    2.110000e+00
  TN1r   C1v  1 3.950000e-01    1.850000e+00
  TN1r   X4v  1 3.950000e-01    2.500000e+00
  TN1r   X3v  1 3.950000e-01    2.500000e+00
  TN1r   X2v  1 3.950000e-01    2.310000e+00
  TN1r   X1v  1 3.950000e-01    2.310000e+00
  TN1r   C6e  1 3.950000e-01    2.700000e+00
  TN1r   C5e  1 3.950000e-01    2.500000e+00
  TN1r   C4e  1 3.950000e-01    2.500000e+00
  TN1r   C3e  1 3.950000e-01    2.310000e+00
  TN1r   C2e  1 3.950000e-01    2.110000e+00
  TN1r   C1e  1 3.950000e-01    1.850000e+00
  TN1r   X4e  1 3.950000e-01    2.500000e+00
  TN1r   X3e  1 3.950000e-01    2.500000e+00
  TN1r   X2e  1 3.950000e-01    2.310000e+00
  TN1r   X1e  1 3.950000e-01    2.310000e+00
  TP6q   N1r  1 3.950000e-01    2.110000e+00
  TP5q   N1r  1 3.950000e-01    2.110000e+00
  TP4q   N1r  1 3.950000e-01    2.310000e+00
  TP3q   N1r  1 3.950000e-01    2.500000e+00
  TP2q   N1r  1 3.950000e-01    2.700000e+00
  TP1q   N1r  1 3.950000e-01    2.700000e+00
  TN6q   N1r  1 3.950000e-01    2.700000e+00
  TN5q   N1r  1 3.950000e-01    2.700000e+00
  TN4q   N1r  1 3.950000e-01    2.700000e+00
  TN3q   N1r  1 3.950000e-01    2.700000e+00
  TN2q   N1r  1 3.950000e-01    2.700000e+00
  TN1r   N1q  1 3.950000e-01    2.940000e+00
  TN1r  X1eq  1 3.950000e-01    2.700000e+00
  TN1r  X2eq  1 3.950000e-01    2.700000e+00
  TN1r  X3eq  1 3.950000e-01    2.940000e+00
  TN1r  X4eq  1 3.950000e-01    2.940000e+00
  TN1r  C1eq  1 3.950000e-01    2.310000e+00
  TN1r  C2eq  1 3.950000e-01    2.500000e+00
  TN1r  C3eq  1 3.950000e-01    2.700000e+00
  TN1r  C4eq  1 3.950000e-01    2.940000e+00
  TN1r  C5eq  1 3.950000e-01    2.940000e+00
  TN1r  C6eq  1 3.950000e-01    3.190000e+00
  TN1r  X1vq  1 3.950000e-01    2.700000e+00
  TN1r  X2vq  1 3.950000e-01    2.700000e+00
  TN1r  X3vq  1 3.950000e-01    2.940000e+00
  TN1r  X4vq  1 3.950000e-01    2.940000e+00
  TN1r  C1vq  1 3.950000e-01    2.310000e+00
  TN1r  C2vq  1 3.950000e-01    2.500000e+00
  TN1r  C3vq  1 3.950000e-01    2.700000e+00
  TN1r  C4vq  1 3.950000e-01    2.940000e+00
  TN1r  C5vq  1 3.950000e-01    2.940000e+00
  TN1r  C6vq  1 3.950000e-01    3.190000e+00
  TN1r  N1aq  1 3.950000e-01    2.940000e+00
 TN2aq   N1r  1 3.950000e-01    2.700000e+00
 TN3aq   N1r  1 3.950000e-01    2.700000e+00
 TN4aq   N1r  1 3.950000e-01    2.700000e+00
 TN5aq   N1r  1 3.950000e-01    2.700000e+00
 TN6aq   N1r  1 3.950000e-01    2.700000e+00
 TP1aq   N1r  1 3.950000e-01    2.700000e+00
 TP2aq   N1r  1 3.950000e-01    2.700000e+00
 TP3aq   N1r  1 3.950000e-01    2.500000e+00
 TP4aq   N1r  1 3.950000e-01    2.310000e+00
 TP5aq   N1r  1 3.950000e-01    2.110000e+00
 TP6aq   N1r  1 3.950000e-01    2.110000e+00
  TN1r  N1dq  1 3.950000e-01    2.940000e+00
 TN2dq   N1r  1 3.950000e-01    2.700000e+00
 TN3dq   N1r  1 3.950000e-01    2.700000e+00
 TN4dq   N1r  1 3.950000e-01    2.700000e+00
 TN5dq   N1r  1 3.950000e-01    2.700000e+00
 TN6dq   N1r  1 3.950000e-01    2.700000e+00
 TP1dq   N1r  1 3.950000e-01    2.700000e+00
 TP2dq   N1r  1 3.950000e-01    2.700000e+00
 TP3dq   N1r  1 3.950000e-01    2.500000e+00
 TP4dq   N1r  1 3.950000e-01    2.310000e+00
 TP5dq   N1r  1 3.950000e-01    2.110000e+00
 TP6dq   N1r  1 3.950000e-01    2.110000e+00
  TN1r   X1q  1 3.950000e-01    2.500000e+00
  TN1r   X2q  1 3.950000e-01    2.500000e+00
  TN1r   X3q  1 3.950000e-01    2.700000e+00
  TN1r   X4q  1 3.950000e-01    2.700000e+00
  TN1r   C1q  1 3.950000e-01    2.110000e+00
  TN1r   C2q  1 3.950000e-01    2.310000e+00
  TN1r   C3q  1 3.950000e-01    2.500000e+00
  TN1r   C4q  1 3.950000e-01    2.700000e+00
  TN1r   C5q  1 3.950000e-01    2.700000e+00
  TN1r   C6q  1 3.950000e-01    2.940000e+00
  TP6d   C6r  1 3.950000e-01    1.670000e+00
  TP5d   C6r  1 3.950000e-01    1.670000e+00
  TP4d   C6r  1 3.950000e-01    1.850000e+00
  TP3d   C6r  1 3.950000e-01    2.110000e+00
  TP2d   C6r  1 3.950000e-01    2.110000e+00
  TP1d   C6r  1 3.950000e-01    2.110000e+00
  TN6d   C6r  1 3.950000e-01    2.310000e+00
  TN5d   C6r  1 3.950000e-01    2.310000e+00
  TN4d   C6r  1 3.950000e-01    2.310000e+00
  TN3d   C6r  1 3.950000e-01    2.310000e+00
  TN2d   C6r  1 3.950000e-01    2.310000e+00
  TN1d   C6r  1 3.950000e-01    2.500000e+00
  TP6a   C6r  1 3.950000e-01    1.670000e+00
  TP5a   C6r  1 3.950000e-01    1.670000e+00
  TP4a   C6r  1 3.950000e-01    1.850000e+00
  TP3a   C6r  1 3.950000e-01    2.110000e+00
  TP2a   C6r  1 3.950000e-01    2.110000e+00
  TP1a   C6r  1 3.950000e-01    2.110000e+00
  TN6a   C6r  1 3.950000e-01    2.310000e+00
  TN5a   C6r  1 3.950000e-01    2.310000e+00
  TN4a   C6r  1 3.950000e-01    2.310000e+00
  TN3a   C6r  1 3.950000e-01    2.310000e+00
  TN2a   C6r  1 3.950000e-01    2.310000e+00
  TN1a   C6r  1 3.950000e-01    2.500000e+00
  TC6r   C6v  1 3.950000e-01    2.700000e+00
  TC6r   X1v  1 3.950000e-01    2.500000e+00
  TC6r   X2v  1 3.950000e-01    2.500000e+00
  TC6r   X3v  1 3.950000e-01    2.500000e+00
  TC6r   X4v  1 3.950000e-01    2.500000e+00
  TC6r   C1v  1 3.950000e-01    1.850000e+00
  TC6r   C2v  1 3.950000e-01    2.110000e+00
  TC6r   C3v  1 3.950000e-01    2.310000e+00
  TC6r   C4v  1 3.950000e-01    2.500000e+00
  TC6r   C5v  1 3.950000e-01    2.500000e+00
  TC6r   C6e  1 3.950000e-01    2.700000e+00
  TC6r   X1e  1 3.950000e-01    2.500000e+00
  TC6r   X2e  1 3.950000e-01    2.500000e+00
  TC6r   X3e  1 3.950000e-01    2.500000e+00
  TC6r   X4e  1 3.950000e-01    2.500000e+00
  TC6r   C1e  1 3.950000e-01    1.850000e+00
  TC6r   C2e  1 3.950000e-01    2.110000e+00
  TC6r   C3e  1 3.950000e-01    2.310000e+00
  TC6r   C4e  1 3.950000e-01    2.500000e+00
  TC6r   C5e  1 3.950000e-01    2.500000e+00
  TP6q   C6r  1 3.950000e-01    2.110000e+00
  TP5q   C6r  1 3.950000e-01    2.110000e+00
  TP4q   C6r  1 3.950000e-01    2.310000e+00
  TP3q   C6r  1 3.950000e-01    2.500000e+00
  TP2q   C6r  1 3.950000e-01    2.500000e+00
  TP1q   C6r  1 3.950000e-01    2.500000e+00
  TN6q   C6r  1 3.950000e-01    2.700000e+00
  TN5q   C6r  1 3.950000e-01    2.700000e+00
  TN4q   C6r  1 3.950000e-01    2.700000e+00
  TN3q   C6r  1 3.950000e-01    2.700000e+00
  TN2q   C6r  1 3.950000e-01    2.700000e+00
  TN1q   C6r  1 3.950000e-01    2.940000e+00
  TC6r   C6q  1 3.950000e-01    2.940000e+00
  TC6r  X1eq  1 3.950000e-01    2.940000e+00
  TC6r  X2eq  1 3.950000e-01    2.940000e+00
  TC6r  X3eq  1 3.950000e-01    2.940000e+00
  TC6r  X4eq  1 3.950000e-01    2.940000e+00
  TC6r  C1eq  1 3.950000e-01    2.310000e+00
  TC6r  C2eq  1 3.950000e-01    2.500000e+00
  TC6r  C3eq  1 3.950000e-01    2.700000e+00
  TC6r  C4eq  1 3.950000e-01    2.940000e+00
  TC6r  C5eq  1 3.950000e-01    2.940000e+00
  TC6r  C6eq  1 3.950000e-01    3.190000e+00
  TC6r  X1vq  1 3.950000e-01    2.940000e+00
  TC6r  X2vq  1 3.950000e-01    2.940000e+00
  TC6r  X3vq  1 3.950000e-01    2.940000e+00
  TC6r  X4vq  1 3.950000e-01    2.940000e+00
  TC6r  C1vq  1 3.950000e-01    2.310000e+00
  TC6r  C2vq  1 3.950000e-01    2.500000e+00
  TC6r  C3vq  1 3.950000e-01    2.700000e+00
  TC6r  C4vq  1 3.950000e-01    2.940000e+00
  TC6r  C5vq  1 3.950000e-01    2.940000e+00
  TC6r  C6vq  1 3.950000e-01    3.190000e+00
 TN1aq   C6r  1 3.950000e-01    2.940000e+00
 TN2aq   C6r  1 3.950000e-01    2.700000e+00
 TN3aq   C6r  1 3.950000e-01    2.700000e+00
 TN4aq   C6r  1 3.950000e-01    2.700000e+00
 TN5aq   C6r  1 3.950000e-01    2.700000e+00
 TN6aq   C6r  1 3.950000e-01    2.700000e+00
 TP1aq   C6r  1 3.950000e-01    2.500000e+00
 TP2aq   C6r  1 3.950000e-01    2.500000e+00
 TP3aq   C6r  1 3.950000e-01    2.500000e+00
 TP4aq   C6r  1 3.950000e-01    2.310000e+00
 TP5aq   C6r  1 3.950000e-01    2.110000e+00
 TP6aq   C6r  1 3.950000e-01    2.110000e+00
 TN1dq   C6r  1 3.950000e-01    2.940000e+00
 TN2dq   C6r  1 3.950000e-01    2.700000e+00
 TN3dq   C6r  1 3.950000e-01    2.700000e+00
 TN4dq   C6r  1 3.950000e-01    2.700000e+00
 TN5dq   C6r  1 3.950000e-01    2.700000e+00
 TN6dq   C6r  1 3.950000e-01    2.700000e+00
 TP1dq   C6r  1 3.950000e-01    2.500000e+00
 TP2dq   C6r  1 3.950000e-01    2.500000e+00
 TP3dq   C6r  1 3.950000e-01    2.500000e+00
 TP4dq   C6r  1 3.950000e-01    2.310000e+00
 TP5dq   C6r  1 3.950000e-01    2.110000e+00
 TP6dq   C6r  1 3.950000e-01    2.110000e+00
  TC6r   X1q  1 3.950000e-01    2.700000e+00
  TC6r   X2q  1 3.950000e-01    2.700000e+00
  TC6r   X3q  1 3.950000e-01    2.700000e+00
  TC6r   X4q  1 3.950000e-01    2.700000e+00
  TC6r   C1q  1 3.950000e-01    2.110000e+00
  TC6r   C2q  1 3.950000e-01    2.310000e+00
  TC6r   C3q  1 3.950000e-01    2.500000e+00
  TC6r   C4q  1 3.950000e-01    2.700000e+00
  TC6r   C5q  1 3.950000e-01    2.700000e+00
  TP6d   C5r  1 3.980000e-01    1.450000e+00
  TP5d   C5r  1 3.950000e-01    1.670000e+00
  TP4d   C5r  1 3.950000e-01    1.670000e+00
  TP3d   C5r  1 3.950000e-01    1.850000e+00
  TP2d   C5r  1 3.950000e-01    1.850000e+00
  TP1d   C5r  1 3.950000e-01    1.850000e+00
  TN6d   C5r  1 3.950000e-01    2.110000e+00
  TN5d   C5r  1 3.950000e-01    2.110000e+00
  TN4d   C5r  1 3.950000e-01    2.110000e+00
  TN3d   C5r  1 3.950000e-01    2.110000e+00
  TN2d   C5r  1 3.950000e-01    2.110000e+00
  TN1d   C5r  1 3.950000e-01    2.310000e+00
  TP6a   C5r  1 3.980000e-01    1.450000e+00
  TP5a   C5r  1 3.950000e-01    1.670000e+00
  TP4a   C5r  1 3.950000e-01    1.670000e+00
  TP3a   C5r  1 3.950000e-01    1.850000e+00
  TP2a   C5r  1 3.950000e-01    1.850000e+00
  TP1a   C5r  1 3.950000e-01    1.850000e+00
  TN6a   C5r  1 3.950000e-01    2.110000e+00
  TN5a   C5r  1 3.950000e-01    2.110000e+00
  TN4a   C5r  1 3.950000e-01    2.110000e+00
  TN3a   C5r  1 3.950000e-01    2.110000e+00
  TN2a   C5r  1 3.950000e-01    2.110000e+00
  TN1a   C5r  1 3.950000e-01    2.310000e+00
  TC6v   C5r  1 3.950000e-01    2.500000e+00
  TC5r   C5v  1 3.950000e-01    2.500000e+00
  TC5r   X1v  1 3.950000e-01    2.500000e+00
  TC5r   X2v  1 3.950000e-01    2.310000e+00
  TC5r   X3v  1 3.950000e-01    2.310000e+00
  TC5r   X4v  1 3.950000e-01    2.310000e+00
  TC5r   C1v  1 3.950000e-01    2.110000e+00
  TC5r   C2v  1 3.950000e-01    2.110000e+00
  TC5r   C3v  1 3.950000e-01    2.310000e+00
  TC5r   C4v  1 3.950000e-01    2.500000e+00
  TC6e   C5r  1 3.950000e-01    2.500000e+00
  TC5r   C5e  1 3.950000e-01    2.500000e+00
  TC5r   X1e  1 3.950000e-01    2.500000e+00
  TC5r   X2e  1 3.950000e-01    2.310000e+00
  TC5r   X3e  1 3.950000e-01    2.310000e+00
  TC5r   X4e  1 3.950000e-01    2.310000e+00
  TC5r   C1e  1 3.950000e-01    2.110000e+00
  TC5r   C2e  1 3.950000e-01    2.110000e+00
  TC5r   C3e  1 3.950000e-01    2.310000e+00
  TC5r   C4e  1 3.950000e-01    2.500000e+00
  TP6q   C5r  1 3.950000e-01    1.850000e+00
  TP5q   C5r  1 3.950000e-01    2.110000e+00
  TP4q   C5r  1 3.950000e-01    2.110000e+00
  TP3q   C5r  1 3.950000e-01    2.310000e+00
  TP2q   C5r  1 3.950000e-01    2.310000e+00
  TP1q   C5r  1 3.950000e-01    2.310000e+00
  TN6q   C5r  1 3.950000e-01    2.500000e+00
  TN5q   C5r  1 3.950000e-01    2.500000e+00
  TN4q   C5r  1 3.950000e-01    2.500000e+00
  TN3q   C5r  1 3.950000e-01    2.500000e+00
  TN2q   C5r  1 3.950000e-01    2.500000e+00
  TN1q   C5r  1 3.950000e-01    2.700000e+00
  TC6q   C5r  1 3.950000e-01    2.700000e+00
  TC5r   C5q  1 3.950000e-01    2.700000e+00
  TC5r  X1eq  1 3.950000e-01    2.940000e+00
  TC5r  X2eq  1 3.950000e-01    2.700000e+00
  TC5r  X3eq  1 3.950000e-01    2.700000e+00
  TC5r  X4eq  1 3.950000e-01    2.700000e+00
  TC5r  C1eq  1 3.950000e-01    2.500000e+00
  TC5r  C2eq  1 3.950000e-01    2.500000e+00
  TC5r  C3eq  1 3.950000e-01    2.700000e+00
  TC5r  C4eq  1 3.950000e-01    2.940000e+00
  TC5r  C5eq  1 3.950000e-01    2.940000e+00
 TC6eq   C5r  1 3.950000e-01    2.940000e+00
  TC5r  X1vq  1 3.950000e-01    2.940000e+00
  TC5r  X2vq  1 3.950000e-01    2.700000e+00
  TC5r  X3vq  1 3.950000e-01    2.700000e+00
  TC5r  X4vq  1 3.950000e-01    2.700000e+00
  TC5r  C1vq  1 3.950000e-01    2.500000e+00
  TC5r  C2vq  1 3.950000e-01    2.500000e+00
  TC5r  C3vq  1 3.950000e-01    2.700000e+00
  TC5r  C4vq  1 3.950000e-01    2.940000e+00
  TC5r  C5vq  1 3.950000e-01    2.940000e+00
 TC6vq   C5r  1 3.950000e-01    2.940000e+00
 TN1aq   C5r  1 3.950000e-01    2.700000e+00
 TN2aq   C5r  1 3.950000e-01    2.500000e+00
 TN3aq   C5r  1 3.950000e-01    2.500000e+00
 TN4aq   C5r  1 3.950000e-01    2.500000e+00
 TN5aq   C5r  1 3.950000e-01    2.500000e+00
 TN6aq   C5r  1 3.950000e-01    2.500000e+00
 TP1aq   C5r  1 3.950000e-01    2.310000e+00
 TP2aq   C5r  1 3.950000e-01    2.310000e+00
 TP3aq   C5r  1 3.950000e-01    2.310000e+00
 TP4aq   C5r  1 3.950000e-01    2.110000e+00
 TP5aq   C5r  1 3.950000e-01    2.110000e+00
 TP6aq   C5r  1 3.950000e-01    1.850000e+00
 TN1dq   C5r  1 3.950000e-01    2.700000e+00
 TN2dq   C5r  1 3.950000e-01    2.500000e+00
 TN3dq   C5r  1 3.950000e-01    2.500000e+00
 TN4dq   C5r  1 3.950000e-01    2.500000e+00
 TN5dq   C5r  1 3.950000e-01    2.500000e+00
 TN6dq   C5r  1 3.950000e-01    2.500000e+00
 TP1dq   C5r  1 3.950000e-01    2.310000e+00
 TP2dq   C5r  1 3.950000e-01    2.310000e+00
 TP3dq   C5r  1 3.950000e-01    2.310000e+00
 TP4dq   C5r  1 3.950000e-01    2.110000e+00
 TP5dq   C5r  1 3.950000e-01    2.110000e+00
 TP6dq   C5r  1 3.950000e-01    1.850000e+00
  TC5r   X1q  1 3.950000e-01    2.700000e+00
  TC5r   X2q  1 3.950000e-01    2.500000e+00
  TC5r   X3q  1 3.950000e-01    2.500000e+00
  TC5r   X4q  1 3.950000e-01    2.500000e+00
  TC5r   C1q  1 3.950000e-01    2.310000e+00
  TC5r   C2q  1 3.950000e-01    2.310000e+00
  TC5r   C3q  1 3.950000e-01    2.500000e+00
  TC5r   C4q  1 3.950000e-01    2.700000e+00
  TP6d   C4r  1 3.990000e-01    1.180000e+00
  TP5d   C4r  1 3.980000e-01    1.450000e+00
  TP4d   C4r  1 3.980000e-01    1.450000e+00
  TP3d   C4r  1 3.950000e-01    1.670000e+00
  TP2d   C4r  1 3.950000e-01    1.670000e+00
  TP1d   C4r  1 3.950000e-01    1.670000e+00
  TN6d   C4r  1 3.950000e-01    1.850000e+00
  TN5d   C4r  1 3.950000e-01    1.850000e+00
  TN4d   C4r  1 3.950000e-01    2.110000e+00
  TN3d   C4r  1 3.950000e-01    2.110000e+00
  TN2d   C4r  1 3.950000e-01    2.110000e+00
  TN1d   C4r  1 3.950000e-01    2.310000e+00
  TP6a   C4r  1 3.990000e-01    1.180000e+00
  TP5a   C4r  1 3.980000e-01    1.450000e+00
  TP4a   C4r  1 3.980000e-01    1.450000e+00
  TP3a   C4r  1 3.950000e-01    1.670000e+00
  TP2a   C4r  1 3.950000e-01    1.670000e+00
  TP1a   C4r  1 3.950000e-01    1.670000e+00
  TN6a   C4r  1 3.950000e-01    1.850000e+00
  TN5a   C4r  1 3.950000e-01    1.850000e+00
  TN4a   C4r  1 3.950000e-01    2.110000e+00
  TN3a   C4r  1 3.950000e-01    2.110000e+00
  TN2a   C4r  1 3.950000e-01    2.110000e+00
  TN1a   C4r  1 3.950000e-01    2.310000e+00
  TC6v   C4r  1 3.950000e-01    2.500000e+00
  TC5v   C4r  1 3.950000e-01    2.500000e+00
  TC4r   C4v  1 3.950000e-01    2.500000e+00
  TC4r   X1v  1 3.950000e-01    2.500000e+00
  TC4r   X2v  1 3.950000e-01    2.310000e+00
  TC4r   X3v  1 3.950000e-01    2.310000e+00
  TC4r   X4v  1 3.950000e-01    2.310000e+00
  TC4r   C1v  1 3.950000e-01    2.110000e+00
  TC4r   C2v  1 3.950000e-01    2.310000e+00
  TC4r   C3v  1 3.950000e-01    2.500000e+00
  TC6e   C4r  1 3.950000e-01    2.500000e+00
  TC5e   C4r  1 3.950000e-01    2.500000e+00
  TC4r   C4e  1 3.950000e-01    2.500000e+00
  TC4r   X1e  1 3.950000e-01    2.500000e+00
  TC4r   X2e  1 3.950000e-01    2.310000e+00
  TC4r   X3e  1 3.950000e-01    2.310000e+00
  TC4r   X4e  1 3.950000e-01    2.310000e+00
  TC4r   C1e  1 3.950000e-01    2.110000e+00
  TC4r   C2e  1 3.950000e-01    2.310000e+00
  TC4r   C3e  1 3.950000e-01    2.500000e+00
  TP6q   C4r  1 3.950000e-01    1.670000e+00
  TP5q   C4r  1 3.950000e-01    1.850000e+00
  TP4q   C4r  1 3.950000e-01    1.850000e+00
  TP3q   C4r  1 3.950000e-01    2.110000e+00
  TP2q   C4r  1 3.950000e-01    2.110000e+00
  TP1q   C4r  1 3.950000e-01    2.110000e+00
  TN6q   C4r  1 3.950000e-01    2.310000e+00
  TN5q   C4r  1 3.950000e-01    2.310000e+00
  TN4q   C4r  1 3.950000e-01    2.500000e+00
  TN3q   C4r  1 3.950000e-01    2.500000e+00
  TN2q   C4r  1 3.950000e-01    2.500000e+00
  TN1q   C4r  1 3.950000e-01    2.700000e+00
  TC6q   C4r  1 3.950000e-01    2.700000e+00
  TC5q   C4r  1 3.950000e-01    2.700000e+00
  TC4r   C4q  1 3.950000e-01    2.700000e+00
  TC4r  X1eq  1 3.950000e-01    2.940000e+00
  TC4r  X2eq  1 3.950000e-01    2.700000e+00
  TC4r  X3eq  1 3.950000e-01    2.700000e+00
  TC4r  X4eq  1 3.950000e-01    2.700000e+00
  TC4r  C1eq  1 3.950000e-01    2.500000e+00
  TC4r  C2eq  1 3.950000e-01    2.700000e+00
  TC4r  C3eq  1 3.950000e-01    2.940000e+00
  TC4r  C4eq  1 3.950000e-01    2.940000e+00
 TC5eq   C4r  1 3.950000e-01    2.940000e+00
 TC6eq   C4r  1 3.950000e-01    2.940000e+00
  TC4r  X1vq  1 3.950000e-01    2.940000e+00
  TC4r  X2vq  1 3.950000e-01    2.700000e+00
  TC4r  X3vq  1 3.950000e-01    2.700000e+00
  TC4r  X4vq  1 3.950000e-01    2.700000e+00
  TC4r  C1vq  1 3.950000e-01    2.500000e+00
  TC4r  C2vq  1 3.950000e-01    2.700000e+00
  TC4r  C3vq  1 3.950000e-01    2.940000e+00
  TC4r  C4vq  1 3.950000e-01    2.940000e+00
 TC5vq   C4r  1 3.950000e-01    2.940000e+00
 TC6vq   C4r  1 3.950000e-01    2.940000e+00
 TN1aq   C4r  1 3.950000e-01    2.700000e+00
 TN2aq   C4r  1 3.950000e-01    2.500000e+00
 TN3aq   C4r  1 3.950000e-01    2.500000e+00
 TN4aq   C4r  1 3.950000e-01    2.500000e+00
 TN5aq   C4r  1 3.950000e-01    2.310000e+00
 TN6aq   C4r  1 3.950000e-01    2.310000e+00
 TP1aq   C4r  1 3.950000e-01    2.110000e+00
 TP2aq   C4r  1 3.950000e-01    2.110000e+00
 TP3aq   C4r  1 3.950000e-01    2.110000e+00
 TP4aq   C4r  1 3.950000e-01    1.850000e+00
 TP5aq   C4r  1 3.950000e-01    1.850000e+00
 TP6aq   C4r  1 3.950000e-01    1.670000e+00
 TN1dq   C4r  1 3.950000e-01    2.700000e+00
 TN2dq   C4r  1 3.950000e-01    2.500000e+00
 TN3dq   C4r  1 3.950000e-01    2.500000e+00
 TN4dq   C4r  1 3.950000e-01    2.500000e+00
 TN5dq   C4r  1 3.950000e-01    2.310000e+00
 TN6dq   C4r  1 3.950000e-01    2.310000e+00
 TP1dq   C4r  1 3.950000e-01    2.110000e+00
 TP2dq   C4r  1 3.950000e-01    2.110000e+00
 TP3dq   C4r  1 3.950000e-01    2.110000e+00
 TP4dq   C4r  1 3.950000e-01    1.850000e+00
 TP5dq   C4r  1 3.950000e-01    1.850000e+00
 TP6dq   C4r  1 3.950000e-01    1.670000e+00
  TC4r   X1q  1 3.950000e-01    2.700000e+00
  TC4r   X2q  1 3.950000e-01    2.500000e+00
  TC4r   X3q  1 3.950000e-01    2.500000e+00
  TC4r   X4q  1 3.950000e-01    2.500000e+00
  TC4r   C1q  1 3.950000e-01    2.310000e+00
  TC4r   C2q  1 3.950000e-01    2.500000e+00
  TC4r   C3q  1 3.950000e-01    2.700000e+00
  TP6d   C3r  1 4.010000e-01    9.830000e-01
  TP5d   C3r  1 3.990000e-01    1.180000e+00
  TP4d   C3r  1 3.990000e-01    1.180000e+00
  TP3d   C3r  1 3.990000e-01    1.180000e+00
  TP2d   C3r  1 3.980000e-01    1.450000e+00
  TP1d   C3r  1 3.980000e-01    1.450000e+00
  TN6d   C3r  1 3.950000e-01    1.670000e+00
  TN5d   C3r  1 3.950000e-01    1.850000e+00
  TN4d   C3r  1 3.950000e-01    1.850000e+00
  TN3d   C3r  1 3.950000e-01    1.850000e+00
  TN2d   C3r  1 3.950000e-01    2.110000e+00
  TN1d   C3r  1 3.950000e-01    2.110000e+00
  TP6a   C3r  1 4.010000e-01    9.830000e-01
  TP5a   C3r  1 3.990000e-01    1.180000e+00
  TP4a   C3r  1 3.990000e-01    1.180000e+00
  TP3a   C3r  1 3.990000e-01    1.180000e+00
  TP2a   C3r  1 3.980000e-01    1.450000e+00
  TP1a   C3r  1 3.980000e-01    1.450000e+00
  TN6a   C3r  1 3.950000e-01    1.670000e+00
  TN5a   C3r  1 3.950000e-01    1.850000e+00
  TN4a   C3r  1 3.950000e-01    1.850000e+00
  TN3a   C3r  1 3.950000e-01    1.850000e+00
  TN2a   C3r  1 3.950000e-01    2.110000e+00
  TN1a   C3r  1 3.950000e-01    2.110000e+00
  TC6v   C3r  1 3.950000e-01    2.310000e+00
  TC5v   C3r  1 3.950000e-01    2.310000e+00
  TC4v   C3r  1 3.950000e-01    2.500000e+00
  TC3r   C3v  1 3.950000e-01    2.500000e+00
  TC3r   X1v  1 3.950000e-01    2.500000e+00
  TC3r   X2v  1 3.950000e-01    2.310000e+00
  TC3r   X3v  1 3.950000e-01    2.310000e+00
  TC3r   X4v  1 3.950000e-01    2.310000e+00
  TC3r   C1v  1 3.950000e-01    2.500000e+00
  TC3r   C2v  1 3.950000e-01    2.500000e+00
  TC6e   C3r  1 3.950000e-01    2.310000e+00
  TC5e   C3r  1 3.950000e-01    2.310000e+00
  TC4e   C3r  1 3.950000e-01    2.500000e+00
  TC3r   C3e  1 3.950000e-01    2.500000e+00
  TC3r   X1e  1 3.950000e-01    2.500000e+00
  TC3r   X2e  1 3.950000e-01    2.310000e+00
  TC3r   X3e  1 3.950000e-01    2.310000e+00
  TC3r   X4e  1 3.950000e-01    2.310000e+00
  TC3r   C1e  1 3.950000e-01    2.500000e+00
  TC3r   C2e  1 3.950000e-01    2.500000e+00
  TP6q   C3r  1 3.980000e-01    1.450000e+00
  TP5q   C3r  1 3.950000e-01    1.670000e+00
  TP4q   C3r  1 3.950000e-01    1.670000e+00
  TP3q   C3r  1 3.950000e-01    1.670000e+00
  TP2q   C3r  1 3.950000e-01    1.850000e+00
  TP1q   C3r  1 3.950000e-01    1.850000e+00
  TN6q   C3r  1 3.950000e-01    2.110000e+00
  TN5q   C3r  1 3.950000e-01    2.310000e+00
  TN4q   C3r  1 3.950000e-01    2.310000e+00
  TN3q   C3r  1 3.950000e-01    2.310000e+00
  TN2q   C3r  1 3.950000e-01    2.500000e+00
  TN1q   C3r  1 3.950000e-01    2.500000e+00
  TC6q   C3r  1 3.950000e-01    2.500000e+00
  TC5q   C3r  1 3.950000e-01    2.500000e+00
  TC4q   C3r  1 3.950000e-01    2.700000e+00
  TC3r   C3q  1 3.950000e-01    2.700000e+00
  TC3r  X1eq  1 3.950000e-01    2.940000e+00
  TC3r  X2eq  1 3.950000e-01    2.700000e+00
  TC3r  X3eq  1 3.950000e-01    2.700000e+00
  TC3r  X4eq  1 3.950000e-01    2.700000e+00
  TC3r  C1eq  1 3.950000e-01    2.940000e+00
  TC3r  C2eq  1 3.950000e-01    2.940000e+00
  TC3r  C3eq  1 3.950000e-01    2.940000e+00
 TC4eq   C3r  1 3.950000e-01    2.940000e+00
 TC5eq   C3r  1 3.950000e-01    2.700000e+00
 TC6eq   C3r  1 3.950000e-01    2.700000e+00
  TC3r  X1vq  1 3.950000e-01    2.940000e+00
  TC3r  X2vq  1 3.950000e-01    2.700000e+00
  TC3r  X3vq  1 3.950000e-01    2.700000e+00
  TC3r  X4vq  1 3.950000e-01    2.700000e+00
  TC3r  C1vq  1 3.950000e-01    2.940000e+00
  TC3r  C2vq  1 3.950000e-01    2.940000e+00
  TC3r  C3vq  1 3.950000e-01    2.940000e+00
 TC4vq   C3r  1 3.950000e-01    2.940000e+00
 TC5vq   C3r  1 3.950000e-01    2.700000e+00
 TC6vq   C3r  1 3.950000e-01    2.700000e+00
 TN1aq   C3r  1 3.950000e-01    2.500000e+00
 TN2aq   C3r  1 3.950000e-01    2.500000e+00
 TN3aq   C3r  1 3.950000e-01    2.310000e+00
 TN4aq   C3r  1 3.950000e-01    2.310000e+00
 TN5aq   C3r  1 3.950000e-01    2.310000e+00
 TN6aq   C3r  1 3.950000e-01    2.110000e+00
 TP1aq   C3r  1 3.950000e-01    1.850000e+00
 TP2aq   C3r  1 3.950000e-01    1.850000e+00
 TP3aq   C3r  1 3.950000e-01    1.670000e+00
 TP4aq   C3r  1 3.950000e-01    1.670000e+00
 TP5aq   C3r  1 3.950000e-01    1.670000e+00
 TP6aq   C3r  1 3.980000e-01    1.450000e+00
 TN1dq   C3r  1 3.950000e-01    2.500000e+00
 TN2dq   C3r  1 3.950000e-01    2.500000e+00
 TN3dq   C3r  1 3.950000e-01    2.310000e+00
 TN4dq   C3r  1 3.950000e-01    2.310000e+00
 TN5dq   C3r  1 3.950000e-01    2.310000e+00
 TN6dq   C3r  1 3.950000e-01    2.110000e+00
 TP1dq   C3r  1 3.950000e-01    1.850000e+00
 TP2dq   C3r  1 3.950000e-01    1.850000e+00
 TP3dq   C3r  1 3.950000e-01    1.670000e+00
 TP4dq   C3r  1 3.950000e-01    1.670000e+00
 TP5dq   C3r  1 3.950000e-01    1.670000e+00
 TP6dq   C3r  1 3.980000e-01    1.450000e+00
  TC3r   X1q  1 3.950000e-01    2.700000e+00
  TC3r   X2q  1 3.950000e-01    2.500000e+00
  TC3r   X3q  1 3.950000e-01    2.500000e+00
  TC3r   X4q  1 3.950000e-01    2.500000e+00
  TC3r   C1q  1 3.950000e-01    2.700000e+00
  TC3r   C2q  1 3.950000e-01    2.700000e+00
  TP6d   C2r  1 4.010000e-01    9.830000e-01
  TP5d   C2r  1 3.990000e-01    1.180000e+00
  TP4d   C2r  1 3.990000e-01    1.180000e+00
  TP3d   C2r  1 3.990000e-01    1.180000e+00
  TP2d   C2r  1 3.980000e-01    1.450000e+00
  TP1d   C2r  1 3.980000e-01    1.450000e+00
  TN6d   C2r  1 3.950000e-01    1.670000e+00
  TN5d   C2r  1 3.950000e-01    1.670000e+00
  TN4d   C2r  1 3.950000e-01    1.670000e+00
  TN3d   C2r  1 3.950000e-01    1.850000e+00
  TN2d   C2r  1 3.950000e-01    1.850000e+00
  TN1d   C2r  1 3.950000e-01    1.850000e+00
  TP6a   C2r  1 4.010000e-01    9.830000e-01
  TP5a   C2r  1 3.990000e-01    1.180000e+00
  TP4a   C2r  1 3.990000e-01    1.180000e+00
  TP3a   C2r  1 3.990000e-01    1.180000e+00
  TP2a   C2r  1 3.980000e-01    1.450000e+00
  TP1a   C2r  1 3.980000e-01    1.450000e+00
  TN6a   C2r  1 3.950000e-01    1.670000e+00
  TN5a   C2r  1 3.950000e-01    1.670000e+00
  TN4a   C2r  1 3.950000e-01    1.670000e+00
  TN3a   C2r  1 3.950000e-01    1.850000e+00
  TN2a   C2r  1 3.950000e-01    1.850000e+00
  TN1a   C2r  1 3.950000e-01    1.850000e+00
  TC6v   C2r  1 3.950000e-01    2.110000e+00
  TC5v   C2r  1 3.950000e-01    2.110000e+00
  TC4v   C2r  1 3.950000e-01    2.310000e+00
  TC3v   C2r  1 3.950000e-01    2.500000e+00
  TC2r   C2v  1 3.950000e-01    2.500000e+00
  TC2r   X1v  1 3.950000e-01    2.310000e+00
  TC2r   X2v  1 3.950000e-01    2.310000e+00
  TC2r   X3v  1 3.950000e-01    2.310000e+00
  TC2r   X4v  1 3.950000e-01    1.850000e+00
  TC2r   C1v  1 3.950000e-01    2.700000e+00
  TC6e   C2r  1 3.950000e-01    2.110000e+00
  TC5e   C2r  1 3.950000e-01    2.110000e+00
  TC4e   C2r  1 3.950000e-01    2.310000e+00
  TC3e   C2r  1 3.950000e-01    2.500000e+00
  TC2r   C2e  1 3.950000e-01    2.500000e+00
  TC2r   X1e  1 3.950000e-01    2.310000e+00
  TC2r   X2e  1 3.950000e-01    2.310000e+00
  TC2r   X3e  1 3.950000e-01    2.310000e+00
  TC2r   X4e  1 3.950000e-01    1.850000e+00
  TC2r   C1e  1 3.950000e-01    2.700000e+00
  TP6q   C2r  1 3.980000e-01    1.450000e+00
  TP5q   C2r  1 3.950000e-01    1.670000e+00
  TP4q   C2r  1 3.950000e-01    1.670000e+00
  TP3q   C2r  1 3.950000e-01    1.670000e+00
  TP2q   C2r  1 3.950000e-01    1.850000e+00
  TP1q   C2r  1 3.950000e-01    1.850000e+00
  TN6q   C2r  1 3.950000e-01    2.110000e+00
  TN5q   C2r  1 3.950000e-01    2.110000e+00
  TN4q   C2r  1 3.950000e-01    2.110000e+00
  TN3q   C2r  1 3.950000e-01    2.310000e+00
  TN2q   C2r  1 3.950000e-01    2.310000e+00
  TN1q   C2r  1 3.950000e-01    2.310000e+00
  TC6q   C2r  1 3.950000e-01    2.310000e+00
  TC5q   C2r  1 3.950000e-01    2.310000e+00
  TC4q   C2r  1 3.950000e-01    2.500000e+00
  TC3q   C2r  1 3.950000e-01    2.700000e+00
  TC2r   C2q  1 3.950000e-01    2.700000e+00
  TC2r  X1eq  1 3.950000e-01    2.700000e+00
  TC2r  X2eq  1 3.950000e-01    2.700000e+00
  TC2r  X3eq  1 3.950000e-01    2.700000e+00
  TC2r  X4eq  1 3.950000e-01    2.310000e+00
  TC2r  C1eq  1 3.950000e-01    3.190000e+00
  TC2r  C2eq  1 3.950000e-01    2.940000e+00
 TC3eq   C2r  1 3.950000e-01    2.940000e+00
 TC4eq   C2r  1 3.950000e-01    2.700000e+00
 TC5eq   C2r  1 3.950000e-01    2.500000e+00
 TC6eq   C2r  1 3.950000e-01    2.500000e+00
  TC2r  X1vq  1 3.950000e-01    2.700000e+00
  TC2r  X2vq  1 3.950000e-01    2.700000e+00
  TC2r  X3vq  1 3.950000e-01    2.700000e+00
  TC2r  X4vq  1 3.950000e-01    2.310000e+00
  TC2r  C1vq  1 3.950000e-01    3.190000e+00
  TC2r  C2vq  1 3.950000e-01    2.940000e+00
 TC3vq   C2r  1 3.950000e-01    2.940000e+00
 TC4vq   C2r  1 3.950000e-01    2.700000e+00
 TC5vq   C2r  1 3.950000e-01    2.500000e+00
 TC6vq   C2r  1 3.950000e-01    2.500000e+00
 TN1aq   C2r  1 3.950000e-01    2.310000e+00
 TN2aq   C2r  1 3.950000e-01    2.310000e+00
 TN3aq   C2r  1 3.950000e-01    2.310000e+00
 TN4aq   C2r  1 3.950000e-01    2.110000e+00
 TN5aq   C2r  1 3.950000e-01    2.110000e+00
 TN6aq   C2r  1 3.950000e-01    2.110000e+00
 TP1aq   C2r  1 3.950000e-01    1.850000e+00
 TP2aq   C2r  1 3.950000e-01    1.850000e+00
 TP3aq   C2r  1 3.950000e-01    1.670000e+00
 TP4aq   C2r  1 3.950000e-01    1.670000e+00
 TP5aq   C2r  1 3.950000e-01    1.670000e+00
 TP6aq   C2r  1 3.980000e-01    1.450000e+00
 TN1dq   C2r  1 3.950000e-01    2.310000e+00
 TN2dq   C2r  1 3.950000e-01    2.310000e+00
 TN3dq   C2r  1 3.950000e-01    2.310000e+00
 TN4dq   C2r  1 3.950000e-01    2.110000e+00
 TN5dq   C2r  1 3.950000e-01    2.110000e+00
 TN6dq   C2r  1 3.950000e-01    2.110000e+00
 TP1dq   C2r  1 3.950000e-01    1.850000e+00
 TP2dq   C2r  1 3.950000e-01    1.850000e+00
 TP3dq   C2r  1 3.950000e-01    1.670000e+00
 TP4dq   C2r  1 3.950000e-01    1.670000e+00
 TP5dq   C2r  1 3.950000e-01    1.670000e+00
 TP6dq   C2r  1 3.980000e-01    1.450000e+00
  TC2r   X1q  1 3.950000e-01    2.500000e+00
  TC2r   X2q  1 3.950000e-01    2.500000e+00
  TC2r   X3q  1 3.950000e-01    2.500000e+00
  TC2r   X4q  1 3.950000e-01    2.110000e+00
  TC2r   C1q  1 3.950000e-01    2.940000e+00
  TP6d   C1r  1 4.650000e-01    7.030000e-01
  TP5d   C1r  1 4.010000e-01    9.830000e-01
  TP4d   C1r  1 4.010000e-01    9.830000e-01
  TP3d   C1r  1 4.010000e-01    9.830000e-01
  TP2d   C1r  1 3.990000e-01    1.180000e+00
  TP1d   C1r  1 3.990000e-01    1.180000e+00
  TN6d   C1r  1 3.980000e-01    1.450000e+00
  TN5d   C1r  1 3.980000e-01    1.450000e+00
  TN4d   C1r  1 3.980000e-01    1.450000e+00
  TN3d   C1r  1 3.950000e-01    1.670000e+00
  TN2d   C1r  1 3.950000e-01    1.670000e+00
  TN1d   C1r  1 3.950000e-01    1.670000e+00
  TP6a   C1r  1 4.650000e-01    7.030000e-01
  TP5a   C1r  1 4.010000e-01    9.830000e-01
  TP4a   C1r  1 4.010000e-01    9.830000e-01
  TP3a   C1r  1 4.010000e-01    9.830000e-01
  TP2a   C1r  1 3.990000e-01    1.180000e+00
  TP1a   C1r  1 3.990000e-01    1.180000e+00
  TN6a   C1r  1 3.980000e-01    1.450000e+00
  TN5a   C1r  1 3.980000e-01    1.450000e+00
  TN4a   C1r  1 3.980000e-01    1.450000e+00
  TN3a   C1r  1 3.950000e-01    1.670000e+00
  TN2a   C1r  1 3.950000e-01    1.670000e+00
  TN1a   C1r  1 3.950000e-01    1.670000e+00
  TC6v   C1r  1 3.950000e-01    1.850000e+00
  TC5v   C1r  1 3.950000e-01    2.110000e+00
  TC4v   C1r  1 3.950000e-01    2.110000e+00
  TC3v   C1r  1 3.950000e-01    2.500000e+00
  TC2v   C1r  1 3.950000e-01    2.700000e+00
  TC1r   C1v  1 3.950000e-01    2.500000e+00
  TC1r   X1v  1 3.950000e-01    2.310000e+00
  TC1r   X2v  1 3.950000e-01    2.310000e+00
  TC1r   X3v  1 3.950000e-01    2.310000e+00
  TC1r   X4v  1 3.950000e-01    1.850000e+00
  TC6e   C1r  1 3.950000e-01    1.850000e+00
  TC5e   C1r  1 3.950000e-01    2.110000e+00
  TC4e   C1r  1 3.950000e-01    2.110000e+00
  TC3e   C1r  1 3.950000e-01    2.500000e+00
  TC2e   C1r  1 3.950000e-01    2.700000e+00
  TC1r   C1e  1 3.950000e-01    2.500000e+00
  TC1r   X1e  1 3.950000e-01    2.310000e+00
  TC1r   X2e  1 3.950000e-01    2.310000e+00
  TC1r   X3e  1 3.950000e-01    2.310000e+00
  TC1r   X4e  1 3.950000e-01    1.850000e+00
  TP6q   C1r  1 4.010000e-01    9.830000e-01
  TP5q   C1r  1 3.980000e-01    1.450000e+00
  TP4q   C1r  1 3.980000e-01    1.450000e+00
  TP3q   C1r  1 3.980000e-01    1.450000e+00
  TP2q   C1r  1 3.950000e-01    1.670000e+00
  TP1q   C1r  1 3.950000e-01    1.670000e+00
  TN6q   C1r  1 3.950000e-01    1.850000e+00
  TN5q   C1r  1 3.950000e-01    1.850000e+00
  TN4q   C1r  1 3.950000e-01    1.850000e+00
  TN3q   C1r  1 3.950000e-01    2.110000e+00
  TN2q   C1r  1 3.950000e-01    2.110000e+00
  TN1q   C1r  1 3.950000e-01    2.110000e+00
  TC6q   C1r  1 3.950000e-01    2.110000e+00
  TC5q   C1r  1 3.950000e-01    2.310000e+00
  TC4q   C1r  1 3.950000e-01    2.310000e+00
  TC3q   C1r  1 3.950000e-01    2.700000e+00
  TC2q   C1r  1 3.950000e-01    2.940000e+00
  TC1r   C1q  1 3.950000e-01    2.700000e+00
  TC1r  X1eq  1 3.950000e-01    2.700000e+00
  TC1r  X2eq  1 3.950000e-01    2.700000e+00
  TC1r  X3eq  1 3.950000e-01    2.700000e+00
  TC1r  X4eq  1 3.950000e-01    2.310000e+00
  TC1r  C1eq  1 3.950000e-01    2.940000e+00
 TC2eq   C1r  1 3.950000e-01    3.190000e+00
 TC3eq   C1r  1 3.950000e-01    2.940000e+00
 TC4eq   C1r  1 3.950000e-01    2.500000e+00
 TC5eq   C1r  1 3.950000e-01    2.500000e+00
 TC6eq   C1r  1 3.950000e-01    2.310000e+00
  TC1r  X1vq  1 3.950000e-01    2.700000e+00
  TC1r  X2vq  1 3.950000e-01    2.700000e+00
  TC1r  X3vq  1 3.950000e-01    2.700000e+00
  TC1r  X4vq  1 3.950000e-01    2.310000e+00
  TC1r  C1vq  1 3.950000e-01    2.940000e+00
 TC2vq   C1r  1 3.950000e-01    3.190000e+00
 TC3vq   C1r  1 3.950000e-01    2.940000e+00
 TC4vq   C1r  1 3.950000e-01    2.500000e+00
 TC5vq   C1r  1 3.950000e-01    2.500000e+00
 TC6vq   C1r  1 3.950000e-01    2.310000e+00
 TN1aq   C1r  1 3.950000e-01    2.110000e+00
 TN2aq   C1r  1 3.950000e-01    2.110000e+00
 TN3aq   C1r  1 3.950000e-01    2.110000e+00
 TN4aq   C1r  1 3.950000e-01    1.850000e+00
 TN5aq   C1r  1 3.950000e-01    1.850000e+00
 TN6aq   C1r  1 3.950000e-01    1.850000e+00
 TP1aq   C1r  1 3.950000e-01    1.670000e+00
 TP2aq   C1r  1 3.950000e-01    1.670000e+00
 TP3aq   C1r  1 3.980000e-01    1.450000e+00
 TP4aq   C1r  1 3.980000e-01    1.450000e+00
 TP5aq   C1r  1 3.980000e-01    1.450000e+00
 TP6aq   C1r  1 4.010000e-01    9.830000e-01
 TN1dq   C1r  1 3.950000e-01    2.110000e+00
 TN2dq   C1r  1 3.950000e-01    2.110000e+00
 TN3dq   C1r  1 3.950000e-01    2.110000e+00
 TN4dq   C1r  1 3.950000e-01    1.850000e+00
 TN5dq   C1r  1 3.950000e-01    1.850000e+00
 TN6dq   C1r  1 3.950000e-01    1.850000e+00
 TP1dq   C1r  1 3.950000e-01    1.670000e+00
 TP2dq   C1r  1 3.950000e-01    1.670000e+00
 TP3dq   C1r  1 3.980000e-01    1.450000e+00
 TP4dq   C1r  1 3.980000e-01    1.450000e+00
 TP5dq   C1r  1 3.980000e-01    1.450000e+00
 TP6dq   C1r  1 4.010000e-01    9.830000e-01
  TC1r   X1q  1 3.950000e-01    2.500000e+00
  TC1r   X2q  1 3.950000e-01    2.500000e+00
  TC1r   X3q  1 3.950000e-01    2.500000e+00
  TC1r   X4q  1 3.950000e-01    2.110000e+00
  TP6d   X4r  1 3.950000e-01    1.850000e+00
  TP5d   X4r  1 3.950000e-01    2.110000e+00
  TP4d   X4r  1 3.950000e-01    2.110000e+00
  TP3d   X4r  1 3.950000e-01    2.110000e+00
  TP2d   X4r  1 3.950000e-01    2.110000e+00
  TP1d   X4r  1 3.950000e-01    2.110000e+00
  TN6d   X4r  1 3.950000e-01    2.310000e+00
  TN5d   X4r  1 3.950000e-01    2.500000e+00
  TN4d   X4r  1 3.950000e-01    2.700000e+00
  TN3d   X4r  1 3.950000e-01    2.500000e+00
  TN2d   X4r  1 3.950000e-01    2.500000e+00
  TN1d   X4r  1 3.950000e-01    2.310000e+00
  TP6a   X4r  1 3.950000e-01    1.850000e+00
  TP5a   X4r  1 3.950000e-01    2.110000e+00
  TP4a   X4r  1 3.950000e-01    2.110000e+00
  TP3a   X4r  1 3.950000e-01    2.110000e+00
  TP2a   X4r  1 3.950000e-01    2.110000e+00
  TP1a   X4r  1 3.950000e-01    2.110000e+00
  TN6a   X4r  1 3.950000e-01    2.310000e+00
  TN5a   X4r  1 3.950000e-01    2.500000e+00
  TN4a   X4r  1 3.950000e-01    2.700000e+00
  TN3a   X4r  1 3.950000e-01    2.500000e+00
  TN2a   X4r  1 3.950000e-01    2.500000e+00
  TN1a   X4r  1 3.950000e-01    2.310000e+00
  TC6v   X4r  1 3.950000e-01    2.500000e+00
  TC5v   X4r  1 3.950000e-01    2.310000e+00
  TC4v   X4r  1 3.950000e-01    2.310000e+00
  TC3v   X4r  1 3.950000e-01    2.310000e+00
  TC2v   X4r  1 3.950000e-01    1.850000e+00
  TC1v   X4r  1 3.950000e-01    1.850000e+00
  TX4r   X4v  1 3.950000e-01    2.500000e+00
  TX4r   X1v  1 3.950000e-01    2.500000e+00
  TX4r   X2v  1 3.950000e-01    2.500000e+00
  TX4r   X3v  1 3.950000e-01    2.500000e+00
  TC6e   X4r  1 3.950000e-01    2.500000e+00
  TC5e   X4r  1 3.950000e-01    2.310000e+00
  TC4e   X4r  1 3.950000e-01    2.310000e+00
  TC3e   X4r  1 3.950000e-01    2.310000e+00
  TC2e   X4r  1 3.950000e-01    1.850000e+00
  TC1e   X4r  1 3.950000e-01    1.850000e+00
  TX4r   X4e  1 3.950000e-01    2.500000e+00
  TX4r   X1e  1 3.950000e-01    2.500000e+00
  TX4r   X2e  1 3.950000e-01    2.500000e+00
  TX4r   X3e  1 3.950000e-01    2.500000e+00
  TP6q   X4r  1 3.950000e-01    2.310000e+00
  TP5q   X4r  1 3.950000e-01    2.500000e+00
  TP4q   X4r  1 3.950000e-01    2.500000e+00
  TP3q   X4r  1 3.950000e-01    2.500000e+00
  TP2q   X4r  1 3.950000e-01    2.500000e+00
  TP1q   X4r  1 3.950000e-01    2.500000e+00
  TN6q   X4r  1 3.950000e-01    2.700000e+00
  TN5q   X4r  1 3.950000e-01    2.940000e+00
  TN4q   X4r  1 3.950000e-01    3.190000e+00
  TN3q   X4r  1 3.950000e-01    2.940000e+00
  TN2q   X4r  1 3.950000e-01    2.940000e+00
  TN1q   X4r  1 3.950000e-01    2.700000e+00
  TC6q   X4r  1 3.950000e-01    2.700000e+00
  TC5q   X4r  1 3.950000e-01    2.500000e+00
  TC4q   X4r  1 3.950000e-01    2.500000e+00
  TC3q   X4r  1 3.950000e-01    2.500000e+00
  TC2q   X4r  1 3.950000e-01    2.110000e+00
  TC1q   X4r  1 3.950000e-01    2.110000e+00
  TX4r   X4q  1 3.950000e-01    2.700000e+00
  TX4r  X1eq  1 3.950000e-01    2.940000e+00
  TX4r  X2eq  1 3.950000e-01    2.940000e+00
  TX4r  X3eq  1 3.950000e-01    2.940000e+00
  TX4r  X4eq  1 3.950000e-01    2.940000e+00
 TC1eq   X4r  1 3.950000e-01    2.310000e+00
 TC2eq   X4r  1 3.950000e-01    2.310000e+00
 TC3eq   X4r  1 3.950000e-01    2.700000e+00
 TC4eq   X4r  1 3.950000e-01    2.700000e+00
 TC5eq   X4r  1 3.950000e-01    2.700000e+00
 TC6eq   X4r  1 3.950000e-01    2.940000e+00
  TX4r  X1vq  1 3.950000e-01    2.940000e+00
  TX4r  X2vq  1 3.950000e-01    2.940000e+00
  TX4r  X3vq  1 3.950000e-01    2.940000e+00
  TX4r  X4vq  1 3.950000e-01    2.940000e+00
 TC1vq   X4r  1 3.950000e-01    2.310000e+00
 TC2vq   X4r  1 3.950000e-01    2.310000e+00
 TC3vq   X4r  1 3.950000e-01    2.700000e+00
 TC4vq   X4r  1 3.950000e-01    2.700000e+00
 TC5vq   X4r  1 3.950000e-01    2.700000e+00
 TC6vq   X4r  1 3.950000e-01    2.940000e+00
 TN1aq   X4r  1 3.950000e-01    2.700000e+00
 TN2aq   X4r  1 3.950000e-01    2.940000e+00
 TN3aq   X4r  1 3.950000e-01    2.940000e+00
 TN4aq   X4r  1 3.950000e-01    3.190000e+00
 TN5aq   X4r  1 3.950000e-01    2.940000e+00
 TN6aq   X4r  1 3.950000e-01    2.700000e+00
 TP1aq   X4r  1 3.950000e-01    2.500000e+00
 TP2aq   X4r  1 3.950000e-01    2.500000e+00
 TP3aq   X4r  1 3.950000e-01    2.500000e+00
 TP4aq   X4r  1 3.950000e-01    2.500000e+00
 TP5aq   X4r  1 3.950000e-01    2.500000e+00
 TP6aq   X4r  1 3.950000e-01    2.310000e+00
 TN1dq   X4r  1 3.950000e-01    2.700000e+00
 TN2dq   X4r  1 3.950000e-01    2.940000e+00
 TN3dq   X4r  1 3.950000e-01    2.940000e+00
 TN4dq   X4r  1 3.950000e-01    3.190000e+00
 TN5dq   X4r  1 3.950000e-01    2.940000e+00
 TN6dq   X4r  1 3.950000e-01    2.700000e+00
 TP1dq   X4r  1 3.950000e-01    2.500000e+00
 TP2dq   X4r  1 3.950000e-01    2.500000e+00
 TP3dq   X4r  1 3.950000e-01    2.500000e+00
 TP4dq   X4r  1 3.950000e-01    2.500000e+00
 TP5dq   X4r  1 3.950000e-01    2.500000e+00
 TP6dq   X4r  1 3.950000e-01    2.310000e+00
  TX4r   X1q  1 3.950000e-01    2.700000e+00
  TX4r   X2q  1 3.950000e-01    2.700000e+00
  TX4r   X3q  1 3.950000e-01    2.700000e+00
  TP6d   X3r  1 3.950000e-01    1.850000e+00
  TP5d   X3r  1 3.950000e-01    1.850000e+00
  TP4d   X3r  1 3.950000e-01    1.850000e+00
  TP3d   X3r  1 3.950000e-01    2.110000e+00
  TP2d   X3r  1 3.950000e-01    2.110000e+00
  TP1d   X3r  1 3.950000e-01    2.110000e+00
  TN6d   X3r  1 3.950000e-01    2.110000e+00
  TN5d   X3r  1 3.950000e-01    2.310000e+00
  TN4d   X3r  1 3.950000e-01    2.500000e+00
  TN3d   X3r  1 3.950000e-01    2.310000e+00
  TN2d   X3r  1 3.950000e-01    2.310000e+00
  TN1d   X3r  1 3.950000e-01    2.310000e+00
  TP6a   X3r  1 3.950000e-01    1.850000e+00
  TP5a   X3r  1 3.950000e-01    1.850000e+00
  TP4a   X3r  1 3.950000e-01    1.850000e+00
  TP3a   X3r  1 3.950000e-01    2.110000e+00
  TP2a   X3r  1 3.950000e-01    2.110000e+00
  TP1a   X3r  1 3.950000e-01    2.110000e+00
  TN6a   X3r  1 3.950000e-01    2.110000e+00
  TN5a   X3r  1 3.950000e-01    2.310000e+00
  TN4a   X3r  1 3.950000e-01    2.500000e+00
  TN3a   X3r  1 3.950000e-01    2.310000e+00
  TN2a   X3r  1 3.950000e-01    2.310000e+00
  TN1a   X3r  1 3.950000e-01    2.310000e+00
  TC6v   X3r  1 3.950000e-01    2.500000e+00
  TC5v   X3r  1 3.950000e-01    2.310000e+00
  TC4v   X3r  1 3.950000e-01    2.310000e+00
  TC3v   X3r  1 3.950000e-01    2.310000e+00
  TC2v   X3r  1 3.950000e-01    2.310000e+00
  TC1v   X3r  1 3.950000e-01    2.310000e+00
  TX4v   X3r  1 3.950000e-01    2.500000e+00
  TX3r   X3v  1 3.950000e-01    2.500000e+00
  TX3r   X1v  1 3.950000e-01    2.700000e+00
  TX3r   X2v  1 3.950000e-01    2.700000e+00
  TC6e   X3r  1 3.950000e-01    2.500000e+00
  TC5e   X3r  1 3.950000e-01    2.310000e+00
  TC4e   X3r  1 3.950000e-01    2.310000e+00
  TC3e   X3r  1 3.950000e-01    2.310000e+00
  TC2e   X3r  1 3.950000e-01    2.310000e+00
  TC1e   X3r  1 3.950000e-01    2.310000e+00
  TX4e   X3r  1 3.950000e-01    2.500000e+00
  TX3r   X3e  1 3.950000e-01    2.500000e+00
  TX3r   X1e  1 3.950000e-01    2.700000e+00
  TX3r   X2e  1 3.950000e-01    2.700000e+00
  TP6q   X3r  1 3.950000e-01    2.310000e+00
  TP5q   X3r  1 3.950000e-01    2.310000e+00
  TP4q   X3r  1 3.950000e-01    2.310000e+00
  TP3q   X3r  1 3.950000e-01    2.500000e+00
  TP2q   X3r  1 3.950000e-01    2.500000e+00
  TP1q   X3r  1 3.950000e-01    2.500000e+00
  TN6q   X3r  1 3.950000e-01    2.500000e+00
  TN5q   X3r  1 3.950000e-01    2.700000e+00
  TN4q   X3r  1 3.950000e-01    2.940000e+00
  TN3q   X3r  1 3.950000e-01    2.700000e+00
  TN2q   X3r  1 3.950000e-01    2.700000e+00
  TN1q   X3r  1 3.950000e-01    2.700000e+00
  TC6q   X3r  1 3.950000e-01    2.700000e+00
  TC5q   X3r  1 3.950000e-01    2.500000e+00
  TC4q   X3r  1 3.950000e-01    2.500000e+00
  TC3q   X3r  1 3.950000e-01    2.500000e+00
  TC2q   X3r  1 3.950000e-01    2.500000e+00
  TC1q   X3r  1 3.950000e-01    2.500000e+00
  TX4q   X3r  1 3.950000e-01    2.700000e+00
  TX3r   X3q  1 3.950000e-01    2.700000e+00
  TX3r  X1eq  1 3.950000e-01    3.190000e+00
  TX3r  X2eq  1 3.950000e-01    3.190000e+00
  TX3r  X3eq  1 3.950000e-01    2.940000e+00
 TX4eq   X3r  1 3.950000e-01    2.940000e+00
 TC1eq   X3r  1 3.950000e-01    2.700000e+00
 TC2eq   X3r  1 3.950000e-01    2.700000e+00
 TC3eq   X3r  1 3.950000e-01    2.700000e+00
 TC4eq   X3r  1 3.950000e-01    2.700000e+00
 TC5eq   X3r  1 3.950000e-01    2.700000e+00
 TC6eq   X3r  1 3.950000e-01    2.940000e+00
  TX3r  X1vq  1 3.950000e-01    3.190000e+00
  TX3r  X2vq  1 3.950000e-01    3.190000e+00
  TX3r  X3vq  1 3.950000e-01    2.940000e+00
 TX4vq   X3r  1 3.950000e-01    2.940000e+00
 TC1vq   X3r  1 3.950000e-01    2.700000e+00
 TC2vq   X3r  1 3.950000e-01    2.700000e+00
 TC3vq   X3r  1 3.950000e-01    2.700000e+00
 TC4vq   X3r  1 3.950000e-01    2.700000e+00
 TC5vq   X3r  1 3.950000e-01    2.700000e+00
 TC6vq   X3r  1 3.950000e-01    2.940000e+00
 TN1aq   X3r  1 3.950000e-01    2.700000e+00
 TN2aq   X3r  1 3.950000e-01    2.700000e+00
 TN3aq   X3r  1 3.950000e-01    2.700000e+00
 TN4aq   X3r  1 3.950000e-01    2.940000e+00
 TN5aq   X3r  1 3.950000e-01    2.700000e+00
 TN6aq   X3r  1 3.950000e-01    2.500000e+00
 TP1aq   X3r  1 3.950000e-01    2.500000e+00
 TP2aq   X3r  1 3.950000e-01    2.500000e+00
 TP3aq   X3r  1 3.950000e-01    2.500000e+00
 TP4aq   X3r  1 3.950000e-01    2.310000e+00
 TP5aq   X3r  1 3.950000e-01    2.310000e+00
 TP6aq   X3r  1 3.950000e-01    2.310000e+00
 TN1dq   X3r  1 3.950000e-01    2.700000e+00
 TN2dq   X3r  1 3.950000e-01    2.700000e+00
 TN3dq   X3r  1 3.950000e-01    2.700000e+00
 TN4dq   X3r  1 3.950000e-01    2.940000e+00
 TN5dq   X3r  1 3.950000e-01    2.700000e+00
 TN6dq   X3r  1 3.950000e-01    2.500000e+00
 TP1dq   X3r  1 3.950000e-01    2.500000e+00
 TP2dq   X3r  1 3.950000e-01    2.500000e+00
 TP3dq   X3r  1 3.950000e-01    2.500000e+00
 TP4dq   X3r  1 3.950000e-01    2.310000e+00
 TP5dq   X3r  1 3.950000e-01    2.310000e+00
 TP6dq   X3r  1 3.950000e-01    2.310000e+00
  TX3r   X1q  1 3.950000e-01    2.940000e+00
  TX3r   X2q  1 3.950000e-01    2.940000e+00
  TP6d   X2r  1 3.950000e-01    1.670000e+00
  TP5d   X2r  1 3.950000e-01    1.850000e+00
  TP4d   X2r  1 3.950000e-01    1.850000e+00
  TP3d   X2r  1 3.950000e-01    1.850000e+00
  TP2d   X2r  1 3.950000e-01    1.850000e+00
  TP1d   X2r  1 3.950000e-01    1.850000e+00
  TN6d   X2r  1 3.950000e-01    1.850000e+00
  TN5d   X2r  1 3.950000e-01    2.110000e+00
  TN4d   X2r  1 3.950000e-01    2.110000e+00
  TN3d   X2r  1 3.950000e-01    2.110000e+00
  TN2d   X2r  1 3.950000e-01    2.110000e+00
  TN1d   X2r  1 3.950000e-01    2.110000e+00
  TP6a   X2r  1 3.950000e-01    1.670000e+00
  TP5a   X2r  1 3.950000e-01    1.850000e+00
  TP4a   X2r  1 3.950000e-01    1.850000e+00
  TP3a   X2r  1 3.950000e-01    1.850000e+00
  TP2a   X2r  1 3.950000e-01    1.850000e+00
  TP1a   X2r  1 3.950000e-01    1.850000e+00
  TN6a   X2r  1 3.950000e-01    1.850000e+00
  TN5a   X2r  1 3.950000e-01    2.110000e+00
  TN4a   X2r  1 3.950000e-01    2.110000e+00
  TN3a   X2r  1 3.950000e-01    2.110000e+00
  TN2a   X2r  1 3.950000e-01    2.110000e+00
  TN1a   X2r  1 3.950000e-01    2.110000e+00
  TC6v   X2r  1 3.950000e-01    2.500000e+00
  TC5v   X2r  1 3.950000e-01    2.310000e+00
  TC4v   X2r  1 3.950000e-01    2.310000e+00
  TC3v   X2r  1 3.950000e-01    2.310000e+00
  TC2v   X2r  1 3.950000e-01    2.310000e+00
  TC1v   X2r  1 3.950000e-01    2.310000e+00
  TX4v   X2r  1 3.950000e-01    2.500000e+00
  TX3v   X2r  1 3.950000e-01    2.700000e+00
  TX2r   X2v  1 3.950000e-01    2.700000e+00
  TX2r   X1v  1 3.950000e-01    2.700000e+00
  TC6e   X2r  1 3.950000e-01    2.500000e+00
  TC5e   X2r  1 3.950000e-01    2.310000e+00
  TC4e   X2r  1 3.950000e-01    2.310000e+00
  TC3e   X2r  1 3.950000e-01    2.310000e+00
  TC2e   X2r  1 3.950000e-01    2.310000e+00
  TC1e   X2r  1 3.950000e-01    2.310000e+00
  TX4e   X2r  1 3.950000e-01    2.500000e+00
  TX3e   X2r  1 3.950000e-01    2.700000e+00
  TX2r   X2e  1 3.950000e-01    2.700000e+00
  TX2r   X1e  1 3.950000e-01    2.700000e+00
  TP6q   X2r  1 3.950000e-01    2.110000e+00
  TP5q   X2r  1 3.950000e-01    2.310000e+00
  TP4q   X2r  1 3.950000e-01    2.310000e+00
  TP3q   X2r  1 3.950000e-01    2.310000e+00
  TP2q   X2r  1 3.950000e-01    2.310000e+00
  TP1q   X2r  1 3.950000e-01    2.310000e+00
  TN6q   X2r  1 3.950000e-01    2.310000e+00
  TN5q   X2r  1 3.950000e-01    2.500000e+00
  TN4q   X2r  1 3.950000e-01    2.500000e+00
  TN3q   X2r  1 3.950000e-01    2.500000e+00
  TN2q   X2r  1 3.950000e-01    2.500000e+00
  TN1q   X2r  1 3.950000e-01    2.500000e+00
  TC6q   X2r  1 3.950000e-01    2.700000e+00
  TC5q   X2r  1 3.950000e-01    2.500000e+00
  TC4q   X2r  1 3.950000e-01    2.500000e+00
  TC3q   X2r  1 3.950000e-01    2.500000e+00
  TC2q   X2r  1 3.950000e-01    2.500000e+00
  TC1q   X2r  1 3.950000e-01    2.500000e+00
  TX4q   X2r  1 3.950000e-01    2.700000e+00
  TX3q   X2r  1 3.950000e-01    2.940000e+00
  TX2r   X2q  1 3.950000e-01    2.940000e+00
  TX2r  X1eq  1 3.950000e-01    3.190000e+00
  TX2r  X2eq  1 3.950000e-01    3.190000e+00
 TX3eq   X2r  1 3.950000e-01    3.190000e+00
 TX4eq   X2r  1 3.950000e-01    2.940000e+00
 TC1eq   X2r  1 3.950000e-01    2.700000e+00
 TC2eq   X2r  1 3.950000e-01    2.700000e+00
 TC3eq   X2r  1 3.950000e-01    2.700000e+00
 TC4eq   X2r  1 3.950000e-01    2.700000e+00
 TC5eq   X2r  1 3.950000e-01    2.700000e+00
 TC6eq   X2r  1 3.950000e-01    2.940000e+00
  TX2r  X1vq  1 3.950000e-01    3.190000e+00
  TX2r  X2vq  1 3.950000e-01    3.190000e+00
 TX3vq   X2r  1 3.950000e-01    3.190000e+00
 TX4vq   X2r  1 3.950000e-01    2.940000e+00
 TC1vq   X2r  1 3.950000e-01    2.700000e+00
 TC2vq   X2r  1 3.950000e-01    2.700000e+00
 TC3vq   X2r  1 3.950000e-01    2.700000e+00
 TC4vq   X2r  1 3.950000e-01    2.700000e+00
 TC5vq   X2r  1 3.950000e-01    2.700000e+00
 TC6vq   X2r  1 3.950000e-01    2.940000e+00
 TN1aq   X2r  1 3.950000e-01    2.500000e+00
 TN2aq   X2r  1 3.950000e-01    2.500000e+00
 TN3aq   X2r  1 3.950000e-01    2.500000e+00
 TN4aq   X2r  1 3.950000e-01    2.500000e+00
 TN5aq   X2r  1 3.950000e-01    2.500000e+00
 TN6aq   X2r  1 3.950000e-01    2.310000e+00
 TP1aq   X2r  1 3.950000e-01    2.310000e+00
 TP2aq   X2r  1 3.950000e-01    2.310000e+00
 TP3aq   X2r  1 3.950000e-01    2.310000e+00
 TP4aq   X2r  1 3.950000e-01    2.310000e+00
 TP5aq   X2r  1 3.950000e-01    2.310000e+00
 TP6aq   X2r  1 3.950000e-01    2.110000e+00
 TN1dq   X2r  1 3.950000e-01    2.500000e+00
 TN2dq   X2r  1 3.950000e-01    2.500000e+00
 TN3dq   X2r  1 3.950000e-01    2.500000e+00
 TN4dq   X2r  1 3.950000e-01    2.500000e+00
 TN5dq   X2r  1 3.950000e-01    2.500000e+00
 TN6dq   X2r  1 3.950000e-01    2.310000e+00
 TP1dq   X2r  1 3.950000e-01    2.310000e+00
 TP2dq   X2r  1 3.950000e-01    2.310000e+00
 TP3dq   X2r  1 3.950000e-01    2.310000e+00
 TP4dq   X2r  1 3.950000e-01    2.310000e+00
 TP5dq   X2r  1 3.950000e-01    2.310000e+00
 TP6dq   X2r  1 3.950000e-01    2.110000e+00
  TX2r   X1q  1 3.950000e-01    2.940000e+00
  TP6d   X1r  1 3.980000e-01    1.450000e+00
  TP5d   X1r  1 3.980000e-01    1.450000e+00
  TP4d   X1r  1 3.950000e-01    1.670000e+00
  TP3d   X1r  1 3.950000e-01    1.670000e+00
  TP2d   X1r  1 3.950000e-01    1.670000e+00
  TP1d   X1r  1 3.950000e-01    1.670000e+00
  TN6d   X1r  1 3.950000e-01    1.670000e+00
  TN5d   X1r  1 3.950000e-01    1.850000e+00
  TN4d   X1r  1 3.950000e-01    1.850000e+00
  TN3d   X1r  1 3.950000e-01    2.110000e+00
  TN2d   X1r  1 3.950000e-01    2.110000e+00
  TN1d   X1r  1 3.950000e-01    2.110000e+00
  TP6a   X1r  1 3.980000e-01    1.450000e+00
  TP5a   X1r  1 3.980000e-01    1.450000e+00
  TP4a   X1r  1 3.950000e-01    1.670000e+00
  TP3a   X1r  1 3.950000e-01    1.670000e+00
  TP2a   X1r  1 3.950000e-01    1.670000e+00
  TP1a   X1r  1 3.950000e-01    1.670000e+00
  TN6a   X1r  1 3.950000e-01    1.670000e+00
  TN5a   X1r  1 3.950000e-01    1.850000e+00
  TN4a   X1r  1 3.950000e-01    1.850000e+00
  TN3a   X1r  1 3.950000e-01    2.110000e+00
  TN2a   X1r  1 3.950000e-01    2.110000e+00
  TN1a   X1r  1 3.950000e-01    2.110000e+00
  TC6v   X1r  1 3.950000e-01    2.500000e+00
  TC5v   X1r  1 3.950000e-01    2.500000e+00
  TC4v   X1r  1 3.950000e-01    2.500000e+00
  TC3v   X1r  1 3.950000e-01    2.500000e+00
  TC2v   X1r  1 3.950000e-01    2.310000e+00
  TC1v   X1r  1 3.950000e-01    2.310000e+00
  TX4v   X1r  1 3.950000e-01    2.500000e+00
  TX3v   X1r  1 3.950000e-01    2.700000e+00
  TX2v   X1r  1 3.950000e-01    2.700000e+00
  TX1r   X1v  1 3.950000e-01    2.940000e+00
  TC6e   X1r  1 3.950000e-01    2.500000e+00
  TC5e   X1r  1 3.950000e-01    2.500000e+00
  TC4e   X1r  1 3.950000e-01    2.500000e+00
  TC3e   X1r  1 3.950000e-01    2.500000e+00
  TC2e   X1r  1 3.950000e-01    2.310000e+00
  TC1e   X1r  1 3.950000e-01    2.310000e+00
  TX4e   X1r  1 3.950000e-01    2.500000e+00
  TX3e   X1r  1 3.950000e-01    2.700000e+00
  TX2e   X1r  1 3.950000e-01    2.700000e+00
  TX1r   X1e  1 3.950000e-01    2.940000e+00
  TP6q   X1r  1 3.950000e-01    1.850000e+00
  TP5q   X1r  1 3.950000e-01    1.850000e+00
  TP4q   X1r  1 3.950000e-01    2.110000e+00
  TP3q   X1r  1 3.950000e-01    2.110000e+00
  TP2q   X1r  1 3.950000e-01    2.110000e+00
  TP1q   X1r  1 3.950000e-01    2.110000e+00
  TN6q   X1r  1 3.950000e-01    2.110000e+00
  TN5q   X1r  1 3.950000e-01    2.310000e+00
  TN4q   X1r  1 3.950000e-01    2.310000e+00
  TN3q   X1r  1 3.950000e-01    2.500000e+00
  TN2q   X1r  1 3.950000e-01    2.500000e+00
  TN1q   X1r  1 3.950000e-01    2.500000e+00
  TC6q   X1r  1 3.950000e-01    2.700000e+00
  TC5q   X1r  1 3.950000e-01    2.700000e+00
  TC4q   X1r  1 3.950000e-01    2.700000e+00
  TC3q   X1r  1 3.950000e-01    2.700000e+00
  TC2q   X1r  1 3.950000e-01    2.500000e+00
  TC1q   X1r  1 3.950000e-01    2.500000e+00
  TX4q   X1r  1 3.950000e-01    2.700000e+00
  TX3q   X1r  1 3.950000e-01    2.940000e+00
  TX2q   X1r  1 3.950000e-01    2.940000e+00
  TX1r   X1q  1 3.950000e-01    3.190000e+00
  TX1r  X1eq  1 3.950000e-01    3.430000e+00
 TX2eq   X1r  1 3.950000e-01    3.190000e+00
 TX3eq   X1r  1 3.950000e-01    3.190000e+00
 TX4eq   X1r  1 3.950000e-01    2.940000e+00
 TC1eq   X1r  1 3.950000e-01    2.700000e+00
 TC2eq   X1r  1 3.950000e-01    2.700000e+00
 TC3eq   X1r  1 3.950000e-01    2.940000e+00
 TC4eq   X1r  1 3.950000e-01    2.940000e+00
 TC5eq   X1r  1 3.950000e-01    2.940000e+00
 TC6eq   X1r  1 3.950000e-01    2.940000e+00
  TX1r  X1vq  1 3.950000e-01    3.430000e+00
 TX2vq   X1r  1 3.950000e-01    3.190000e+00
 TX3vq   X1r  1 3.950000e-01    3.190000e+00
 TX4vq   X1r  1 3.950000e-01    2.940000e+00
 TC1vq   X1r  1 3.950000e-01    2.700000e+00
 TC2vq   X1r  1 3.950000e-01    2.700000e+00
 TC3vq   X1r  1 3.950000e-01    2.940000e+00
 TC4vq   X1r  1 3.950000e-01    2.940000e+00
 TC5vq   X1r  1 3.950000e-01    2.940000e+00
 TC6vq   X1r  1 3.950000e-01    2.940000e+00
 TN1aq   X1r  1 3.950000e-01    2.500000e+00
 TN2aq   X1r  1 3.950000e-01    2.500000e+00
 TN3aq   X1r  1 3.950000e-01    2.500000e+00
 TN4aq   X1r  1 3.950000e-01    2.310000e+00
 TN5aq   X1r  1 3.950000e-01    2.310000e+00
 TN6aq   X1r  1 3.950000e-01    2.110000e+00
 TP1aq   X1r  1 3.950000e-01    2.110000e+00
 TP2aq   X1r  1 3.950000e-01    2.110000e+00
 TP3aq   X1r  1 3.950000e-01    2.110000e+00
 TP4aq   X1r  1 3.950000e-01    2.110000e+00
 TP5aq   X1r  1 3.950000e-01    1.850000e+00
 TP6aq   X1r  1 3.950000e-01    1.850000e+00
 TN1dq   X1r  1 3.950000e-01    2.500000e+00
 TN2dq   X1r  1 3.950000e-01    2.500000e+00
 TN3dq   X1r  1 3.950000e-01    2.500000e+00
 TN4dq   X1r  1 3.950000e-01    2.310000e+00
 TN5dq   X1r  1 3.950000e-01    2.310000e+00
 TN6dq   X1r  1 3.950000e-01    2.110000e+00
 TP1dq   X1r  1 3.950000e-01    2.110000e+00
 TP2dq   X1r  1 3.950000e-01    2.110000e+00
 TP3dq   X1r  1 3.950000e-01    2.110000e+00
 TP4dq   X1r  1 3.950000e-01    2.110000e+00
 TP5dq   X1r  1 3.950000e-01    1.850000e+00
 TP6dq   X1r  1 3.950000e-01    1.850000e+00
  TP6d  P6dr  1 3.950000e-01    3.910000e+00
 TP6dr   P5d  1 3.950000e-01    3.670000e+00
 TP6dr   P4d  1 3.950000e-01    3.430000e+00
 TP6dr   P3d  1 3.950000e-01    3.190000e+00
 TP6dr   P2d  1 3.950000e-01    3.190000e+00
 TP6dr   P1d  1 3.950000e-01    2.940000e+00
 TP6dr   N6d  1 3.950000e-01    2.700000e+00
 TP6dr   N5d  1 3.950000e-01    2.310000e+00
 TP6dr   N4d  1 3.950000e-01    2.110000e+00
 TP6dr   N3d  1 3.950000e-01    2.110000e+00
 TP6dr   N2d  1 3.950000e-01    1.850000e+00
 TP6dr   N1d  1 3.950000e-01    1.670000e+00
 TP6dr   P6a  1 3.950000e-01    4.540000e+00
 TP6dr   P5a  1 3.950000e-01    4.230000e+00
 TP6dr   P4a  1 3.950000e-01    3.910000e+00
 TP6dr   P3a  1 3.950000e-01    3.670000e+00
 TP6dr   P2a  1 3.950000e-01    3.670000e+00
 TP6dr   P1a  1 3.950000e-01    3.430000e+00
 TP6dr   N6a  1 3.950000e-01    3.190000e+00
 TP6dr   N5a  1 3.950000e-01    2.700000e+00
 TP6dr   N4a  1 3.950000e-01    2.500000e+00
 TP6dr   N3a  1 3.950000e-01    2.110000e+00
 TP6dr   N2a  1 3.950000e-01    1.850000e+00
 TP6dr   N1a  1 3.950000e-01    1.670000e+00
 TP6dr   C6e  1 3.950000e-01    1.850000e+00
 TP6dr   C5e  1 3.950000e-01    1.670000e+00
 TP6dr   C4e  1 3.980000e-01    1.450000e+00
 TP6dr   C3e  1 3.990000e-01    1.180000e+00
 TP6dr   C2e  1 3.990000e-01    1.180000e+00
 TP6dr   C1e  1 4.040000e-01    8.300000e-01
 TP6dr   X4e  1 3.950000e-01    2.110000e+00
 TP6dr   X3e  1 3.950000e-01    2.110000e+00
 TP6dr   X2e  1 3.950000e-01    1.850000e+00
 TP6dr   X1e  1 3.950000e-01    1.670000e+00
 TP6dr   C6v  1 3.980000e-01    1.450000e+00
 TP6dr   C5v  1 3.990000e-01    1.180000e+00
 TP6dr   C4v  1 4.010000e-01    9.830000e-01
 TP6dr   C3v  1 4.040000e-01    8.300000e-01
 TP6dr   C2v  1 4.040000e-01    8.300000e-01
 TP6dr   C1v  1 5.110000e-01    6.590000e-01
 TP6dr   X4v  1 3.950000e-01    1.670000e+00
 TP6dr   X3v  1 3.950000e-01    1.670000e+00
 TP6dr   X2v  1 3.980000e-01    1.450000e+00
 TP6dr   X1v  1 3.990000e-01    1.180000e+00
  TP6q  P6dr  1 3.950000e-01    4.870000e+00
 TP6dr   P5q  1 3.950000e-01    4.540000e+00
 TP6dr   P4q  1 3.950000e-01    4.230000e+00
 TP6dr   P3q  1 3.950000e-01    3.910000e+00
 TP6dr   P2q  1 3.950000e-01    3.910000e+00
 TP6dr   P1q  1 3.950000e-01    3.670000e+00
 TP6dr   N6q  1 3.950000e-01    3.430000e+00
 TP6dr   N5q  1 3.950000e-01    2.940000e+00
 TP6dr   N4q  1 3.950000e-01    2.700000e+00
 TP6dr   N3q  1 3.950000e-01    2.500000e+00
 TP6dr   N2q  1 3.950000e-01    2.310000e+00
 TP6dr   N1q  1 3.950000e-01    2.110000e+00
 TP6dr   C6q  1 3.950000e-01    2.110000e+00
 TP6dr   C5q  1 3.950000e-01    1.850000e+00
 TP6dr   C4q  1 3.950000e-01    1.670000e+00
 TP6dr   C3q  1 3.980000e-01    1.450000e+00
 TP6dr   C2q  1 3.980000e-01    1.450000e+00
 TP6dr   C1q  1 4.010000e-01    9.830000e-01
 TP6dr   X4q  1 3.950000e-01    2.310000e+00
 TP6dr   X3q  1 3.950000e-01    2.310000e+00
 TP6dr   X2q  1 3.950000e-01    2.110000e+00
 TP6dr   X1q  1 3.950000e-01    1.850000e+00
 TP6dr  P6dq  1 3.950000e-01    4.540000e+00
 TP6dr  X1eq  1 3.950000e-01    2.110000e+00
 TP6dr  X2eq  1 3.950000e-01    2.310000e+00
 TP6dr  X3eq  1 3.950000e-01    2.500000e+00
 TP6dr  X4eq  1 3.950000e-01    2.500000e+00
 TP6dr  C1eq  1 3.990000e-01    1.180000e+00
 TP6dr  C2eq  1 3.950000e-01    1.670000e+00
 TP6dr  C3eq  1 3.950000e-01    1.670000e+00
 TP6dr  C4eq  1 3.950000e-01    1.850000e+00
 TP6dr  C5eq  1 3.950000e-01    2.110000e+00
 TP6dr  C6eq  1 3.950000e-01    2.310000e+00
 TP6dr  X1vq  1 3.950000e-01    1.670000e+00
 TP6dr  X2vq  1 3.950000e-01    1.850000e+00
 TP6dr  X3vq  1 3.950000e-01    2.110000e+00
 TP6dr  X4vq  1 3.950000e-01    2.110000e+00
 TP6dr  C1vq  1 4.040000e-01    8.300000e-01
 TP6dr  C2vq  1 3.990000e-01    1.180000e+00
 TP6dr  C3vq  1 3.990000e-01    1.180000e+00
 TP6dr  C4vq  1 3.980000e-01    1.450000e+00
 TP6dr  C5vq  1 3.950000e-01    1.670000e+00
 TP6dr  C6vq  1 3.950000e-01    1.850000e+00
 TP6dr  N1aq  1 3.950000e-01    2.110000e+00
 TP6dr  N2aq  1 3.950000e-01    2.310000e+00
 TP6dr  N3aq  1 3.950000e-01    2.500000e+00
 TP6dr  N4aq  1 3.950000e-01    2.940000e+00
 TP6dr  N5aq  1 3.950000e-01    3.190000e+00
 TP6dr  N6aq  1 3.950000e-01    3.670000e+00
 TP6dr  P1aq  1 3.950000e-01    3.910000e+00
 TP6dr  P2aq  1 3.950000e-01    4.230000e+00
 TP6dr  P3aq  1 3.950000e-01    4.230000e+00
 TP6dr  P4aq  1 3.950000e-01    4.540000e+00
 TP6dr  P5aq  1 3.950000e-01    4.870000e+00
 TP6dr  P6aq  1 3.950000e-01    5.270000e+00
 TP6dr  N1dq  1 3.950000e-01    2.110000e+00
 TP6dr  N2dq  1 3.950000e-01    2.310000e+00
 TP6dr  N3dq  1 3.950000e-01    2.500000e+00
 TP6dr  N4dq  1 3.950000e-01    2.500000e+00
 TP6dr  N5dq  1 3.950000e-01    2.700000e+00
 TP6dr  N6dq  1 3.950000e-01    3.190000e+00
 TP6dr  P1dq  1 3.950000e-01    3.430000e+00
 TP6dr  P2dq  1 3.950000e-01    3.670000e+00
 TP6dr  P3dq  1 3.950000e-01    3.670000e+00
 TP6dr  P4dq  1 3.950000e-01    3.910000e+00
 TP6dr  P5dq  1 3.950000e-01    4.230000e+00
  TP5d  P5dr  1 3.950000e-01    3.430000e+00
 TP5dr   P4d  1 3.950000e-01    3.190000e+00
 TP5dr   P3d  1 3.950000e-01    2.940000e+00
 TP5dr   P2d  1 3.950000e-01    2.940000e+00
 TP5dr   P1d  1 3.950000e-01    2.700000e+00
 TP5dr   N6d  1 3.950000e-01    2.500000e+00
 TP5dr   N5d  1 3.950000e-01    2.310000e+00
 TP5dr   N4d  1 3.950000e-01    2.310000e+00
 TP5dr   N3d  1 3.950000e-01    2.110000e+00
 TP5dr   N2d  1 3.950000e-01    1.850000e+00
 TP5dr   N1d  1 3.950000e-01    1.670000e+00
  TP6a  P5dr  1 3.950000e-01    4.230000e+00
 TP5dr   P5a  1 3.950000e-01    3.910000e+00
 TP5dr   P4a  1 3.950000e-01    3.670000e+00
 TP5dr   P3a  1 3.950000e-01    3.430000e+00
 TP5dr   P2a  1 3.950000e-01    3.430000e+00
 TP5dr   P1a  1 3.950000e-01    3.190000e+00
 TP5dr   N6a  1 3.950000e-01    2.940000e+00
 TP5dr   N5a  1 3.950000e-01    2.700000e+00
 TP5dr   N4a  1 3.950000e-01    2.700000e+00
 TP5dr   N3a  1 3.950000e-01    2.110000e+00
 TP5dr   N2a  1 3.950000e-01    1.850000e+00
 TP5dr   N1a  1 3.950000e-01    1.670000e+00
 TP5dr   C6e  1 3.950000e-01    1.850000e+00
 TP5dr   C5e  1 3.950000e-01    1.850000e+00
 TP5dr   C4e  1 3.950000e-01    1.670000e+00
 TP5dr   C3e  1 3.980000e-01    1.450000e+00
 TP5dr   C2e  1 3.980000e-01    1.450000e+00
 TP5dr   C1e  1 3.990000e-01    1.180000e+00
 TP5dr   X4e  1 3.950000e-01    2.310000e+00
 TP5dr   X3e  1 3.950000e-01    2.110000e+00
 TP5dr   X2e  1 3.950000e-01    2.110000e+00
 TP5dr   X1e  1 3.950000e-01    1.670000e+00
 TP5dr   C6v  1 3.980000e-01    1.450000e+00
 TP5dr   C5v  1 3.980000e-01    1.450000e+00
 TP5dr   C4v  1 3.990000e-01    1.180000e+00
 TP5dr   C3v  1 4.010000e-01    9.830000e-01
 TP5dr   C2v  1 4.010000e-01    9.830000e-01
 TP5dr   C1v  1 4.040000e-01    8.300000e-01
 TP5dr   X4v  1 3.950000e-01    1.850000e+00
 TP5dr   X3v  1 3.950000e-01    1.670000e+00
 TP5dr   X2v  1 3.950000e-01    1.670000e+00
 TP5dr   X1v  1 3.990000e-01    1.180000e+00
  TP6q  P5dr  1 3.950000e-01    4.540000e+00
  TP5q  P5dr  1 3.950000e-01    4.230000e+00
 TP5dr   P4q  1 3.950000e-01    3.910000e+00
 TP5dr   P3q  1 3.950000e-01    3.670000e+00
 TP5dr   P2q  1 3.950000e-01    3.670000e+00
 TP5dr   P1q  1 3.950000e-01    3.430000e+00
 TP5dr   N6q  1 3.950000e-01    3.190000e+00
 TP5dr   N5q  1 3.950000e-01    2.940000e+00
 TP5dr   N4q  1 3.950000e-01    2.940000e+00
 TP5dr   N3q  1 3.950000e-01    2.500000e+00
 TP5dr   N2q  1 3.950000e-01    2.310000e+00
 TP5dr   N1q  1 3.950000e-01    2.110000e+00
 TP5dr   C6q  1 3.950000e-01    2.110000e+00
 TP5dr   C5q  1 3.950000e-01    2.110000e+00
 TP5dr   C4q  1 3.950000e-01    1.850000e+00
 TP5dr   C3q  1 3.950000e-01    1.670000e+00
 TP5dr   C2q  1 3.950000e-01    1.670000e+00
 TP5dr   C1q  1 3.980000e-01    1.450000e+00
 TP5dr   X4q  1 3.950000e-01    2.500000e+00
 TP5dr   X3q  1 3.950000e-01    2.310000e+00
 TP5dr   X2q  1 3.950000e-01    2.310000e+00
 TP5dr   X1q  1 3.950000e-01    1.850000e+00
 TP6dq  P5dr  1 3.950000e-01    4.230000e+00
 TP5dr  P5dq  1 3.950000e-01    3.910000e+00
 TP5dr  X1eq  1 3.950000e-01    2.110000e+00
 TP5dr  X2eq  1 3.950000e-01    2.500000e+00
 TP5dr  X3eq  1 3.950000e-01    2.500000e+00
 TP5dr  X4eq  1 3.950000e-01    2.700000e+00
 TP5dr  C1eq  1 3.950000e-01    1.670000e+00
 TP5dr  C2eq  1 3.950000e-01    1.850000e+00
 TP5dr  C3eq  1 3.950000e-01    1.850000e+00
 TP5dr  C4eq  1 3.950000e-01    2.110000e+00
 TP5dr  C5eq  1 3.950000e-01    2.310000e+00
 TP5dr  C6eq  1 3.950000e-01    2.310000e+00
 TP5dr  X1vq  1 3.950000e-01    1.670000e+00
 TP5dr  X2vq  1 3.950000e-01    2.110000e+00
 TP5dr  X3vq  1 3.950000e-01    2.110000e+00
 TP5dr  X4vq  1 3.950000e-01    2.310000e+00
 TP5dr  C1vq  1 3.990000e-01    1.180000e+00
 TP5dr  C2vq  1 3.980000e-01    1.450000e+00
 TP5dr  C3vq  1 3.980000e-01    1.450000e+00
 TP5dr  C4vq  1 3.950000e-01    1.670000e+00
 TP5dr  C5vq  1 3.950000e-01    1.850000e+00
 TP5dr  C6vq  1 3.950000e-01    1.850000e+00
 TP5dr  N1aq  1 3.950000e-01    2.110000e+00
 TP5dr  N2aq  1 3.950000e-01    2.310000e+00
 TP5dr  N3aq  1 3.950000e-01    2.500000e+00
 TP5dr  N4aq  1 3.950000e-01    3.190000e+00
 TP5dr  N5aq  1 3.950000e-01    3.190000e+00
 TP5dr  N6aq  1 3.950000e-01    3.430000e+00
 TP5dr  P1aq  1 3.950000e-01    3.670000e+00
 TP5dr  P2aq  1 3.950000e-01    3.910000e+00
 TP5dr  P3aq  1 3.950000e-01    3.910000e+00
 TP5dr  P4aq  1 3.950000e-01    4.230000e+00
 TP5dr  P5aq  1 3.950000e-01    4.540000e+00
 TP6aq  P5dr  1 3.950000e-01    4.870000e+00
 TP5dr  N1dq  1 3.950000e-01    2.110000e+00
 TP5dr  N2dq  1 3.950000e-01    2.310000e+00
 TP5dr  N3dq  1 3.950000e-01    2.500000e+00
 TP5dr  N4dq  1 3.950000e-01    2.700000e+00
 TP5dr  N5dq  1 3.950000e-01    2.700000e+00
 TP5dr  N6dq  1 3.950000e-01    2.940000e+00
 TP5dr  P1dq  1 3.950000e-01    3.190000e+00
 TP5dr  P2dq  1 3.950000e-01    3.430000e+00
 TP5dr  P3dq  1 3.950000e-01    3.430000e+00
 TP5dr  P4dq  1 3.950000e-01    3.670000e+00
  TP4d  P4dr  1 3.950000e-01    3.190000e+00
 TP4dr   P3d  1 3.950000e-01    2.940000e+00
 TP4dr   P2d  1 3.950000e-01    2.940000e+00
 TP4dr   P1d  1 3.950000e-01    2.700000e+00
 TP4dr   N6d  1 3.950000e-01    2.500000e+00
 TP4dr   N5d  1 3.950000e-01    2.310000e+00
 TP4dr   N4d  1 3.950000e-01    2.310000e+00
 TP4dr   N3d  1 3.950000e-01    2.110000e+00
 TP4dr   N2d  1 3.950000e-01    2.110000e+00
 TP4dr   N1d  1 3.950000e-01    1.850000e+00
  TP6a  P4dr  1 3.950000e-01    3.910000e+00
  TP5a  P4dr  1 3.950000e-01    3.670000e+00
 TP4dr   P4a  1 3.950000e-01    3.670000e+00
 TP4dr   P3a  1 3.950000e-01    3.430000e+00
 TP4dr   P2a  1 3.950000e-01    3.430000e+00
 TP4dr   P1a  1 3.950000e-01    3.190000e+00
 TP4dr   N6a  1 3.950000e-01    2.940000e+00
 TP4dr   N5a  1 3.950000e-01    2.700000e+00
 TP4dr   N4a  1 3.950000e-01    2.700000e+00
 TP4dr   N3a  1 3.950000e-01    2.500000e+00
 TP4dr   N2a  1 3.950000e-01    2.110000e+00
 TP4dr   N1a  1 3.950000e-01    1.850000e+00
 TP4dr   C6e  1 3.950000e-01    2.110000e+00
 TP4dr   C5e  1 3.950000e-01    1.850000e+00
 TP4dr   C4e  1 3.950000e-01    1.670000e+00
 TP4dr   C3e  1 3.980000e-01    1.450000e+00
 TP4dr   C2e  1 3.980000e-01    1.450000e+00
 TP4dr   C1e  1 3.990000e-01    1.180000e+00
 TP4dr   X4e  1 3.950000e-01    2.310000e+00
 TP4dr   X3e  1 3.950000e-01    2.110000e+00
 TP4dr   X2e  1 3.950000e-01    2.110000e+00
 TP4dr   X1e  1 3.950000e-01    1.850000e+00
 TP4dr   C6v  1 3.950000e-01    1.670000e+00
 TP4dr   C5v  1 3.980000e-01    1.450000e+00
 TP4dr   C4v  1 3.990000e-01    1.180000e+00
 TP4dr   C3v  1 4.010000e-01    9.830000e-01
 TP4dr   C2v  1 4.010000e-01    9.830000e-01
 TP4dr   C1v  1 4.040000e-01    8.300000e-01
 TP4dr   X4v  1 3.950000e-01    1.850000e+00
 TP4dr   X3v  1 3.950000e-01    1.670000e+00
 TP4dr   X2v  1 3.950000e-01    1.670000e+00
 TP4dr   X1v  1 3.980000e-01    1.450000e+00
  TP6q  P4dr  1 3.950000e-01    4.230000e+00
  TP5q  P4dr  1 3.950000e-01    3.910000e+00
  TP4q  P4dr  1 3.950000e-01    3.910000e+00
 TP4dr   P3q  1 3.950000e-01    3.670000e+00
 TP4dr   P2q  1 3.950000e-01    3.670000e+00
 TP4dr   P1q  1 3.950000e-01    3.430000e+00
 TP4dr   N6q  1 3.950000e-01    3.190000e+00
 TP4dr   N5q  1 3.950000e-01    2.940000e+00
 TP4dr   N4q  1 3.950000e-01    2.940000e+00
 TP4dr   N3q  1 3.950000e-01    2.700000e+00
 TP4dr   N2q  1 3.950000e-01    2.500000e+00
 TP4dr   N1q  1 3.950000e-01    2.310000e+00
 TP4dr   C6q  1 3.950000e-01    2.310000e+00
 TP4dr   C5q  1 3.950000e-01    2.110000e+00
 TP4dr   C4q  1 3.950000e-01    1.850000e+00
 TP4dr   C3q  1 3.950000e-01    1.670000e+00
 TP4dr   C2q  1 3.950000e-01    1.670000e+00
 TP4dr   C1q  1 3.980000e-01    1.450000e+00
 TP4dr   X4q  1 3.950000e-01    2.500000e+00
 TP4dr   X3q  1 3.950000e-01    2.310000e+00
 TP4dr   X2q  1 3.950000e-01    2.310000e+00
 TP4dr   X1q  1 3.950000e-01    2.110000e+00
 TP6dq  P4dr  1 3.950000e-01    3.910000e+00
 TP5dq  P4dr  1 3.950000e-01    3.670000e+00
 TP4dr  P4dq  1 3.950000e-01    3.670000e+00
 TP4dr  X1eq  1 3.950000e-01    2.310000e+00
 TP4dr  X2eq  1 3.950000e-01    2.500000e+00
 TP4dr  X3eq  1 3.950000e-01    2.500000e+00
 TP4dr  X4eq  1 3.950000e-01    2.700000e+00
 TP4dr  C1eq  1 3.950000e-01    1.670000e+00
 TP4dr  C2eq  1 3.950000e-01    1.850000e+00
 TP4dr  C3eq  1 3.950000e-01    1.850000e+00
 TP4dr  C4eq  1 3.950000e-01    2.110000e+00
 TP4dr  C5eq  1 3.950000e-01    2.310000e+00
 TP4dr  C6eq  1 3.950000e-01    2.500000e+00
 TP4dr  X1vq  1 3.950000e-01    1.850000e+00
 TP4dr  X2vq  1 3.950000e-01    2.110000e+00
 TP4dr  X3vq  1 3.950000e-01    2.110000e+00
 TP4dr  X4vq  1 3.950000e-01    2.310000e+00
 TP4dr  C1vq  1 3.990000e-01    1.180000e+00
 TP4dr  C2vq  1 3.980000e-01    1.450000e+00
 TP4dr  C3vq  1 3.980000e-01    1.450000e+00
 TP4dr  C4vq  1 3.950000e-01    1.670000e+00
 TP4dr  C5vq  1 3.950000e-01    1.850000e+00
 TP4dr  C6vq  1 3.950000e-01    2.110000e+00
 TP4dr  N1aq  1 3.950000e-01    2.310000e+00
 TP4dr  N2aq  1 3.950000e-01    2.500000e+00
 TP4dr  N3aq  1 3.950000e-01    2.940000e+00
 TP4dr  N4aq  1 3.950000e-01    3.190000e+00
 TP4dr  N5aq  1 3.950000e-01    3.190000e+00
 TP4dr  N6aq  1 3.950000e-01    3.430000e+00
 TP4dr  P1aq  1 3.950000e-01    3.670000e+00
 TP4dr  P2aq  1 3.950000e-01    3.910000e+00
 TP4dr  P3aq  1 3.950000e-01    3.910000e+00
 TP4dr  P4aq  1 3.950000e-01    4.230000e+00
 TP5aq  P4dr  1 3.950000e-01    4.230000e+00
 TP6aq  P4dr  1 3.950000e-01    4.540000e+00
 TP4dr  N1dq  1 3.950000e-01    2.310000e+00
 TP4dr  N2dq  1 3.950000e-01    2.500000e+00
 TP4dr  N3dq  1 3.950000e-01    2.500000e+00
 TP4dr  N4dq  1 3.950000e-01    2.700000e+00
 TP4dr  N5dq  1 3.950000e-01    2.700000e+00
 TP4dr  N6dq  1 3.950000e-01    2.940000e+00
 TP4dr  P1dq  1 3.950000e-01    3.190000e+00
 TP4dr  P2dq  1 3.950000e-01    3.430000e+00
 TP4dr  P3dq  1 3.950000e-01    3.430000e+00
  TP3d  P3dr  1 3.950000e-01    2.940000e+00
 TP3dr   P2d  1 3.950000e-01    2.940000e+00
 TP3dr   P1d  1 3.950000e-01    2.700000e+00
 TP3dr   N6d  1 3.950000e-01    2.500000e+00
 TP3dr   N5d  1 3.950000e-01    2.310000e+00
 TP3dr   N4d  1 3.950000e-01    2.310000e+00
 TP3dr   N3d  1 3.950000e-01    2.110000e+00
 TP3dr   N2d  1 3.950000e-01    2.110000e+00
 TP3dr   N1d  1 3.950000e-01    2.110000e+00
  TP6a  P3dr  1 3.950000e-01    3.670000e+00
  TP5a  P3dr  1 3.950000e-01    3.430000e+00
  TP4a  P3dr  1 3.950000e-01    3.430000e+00
 TP3dr   P3a  1 3.950000e-01    3.430000e+00
 TP3dr   P2a  1 3.950000e-01    3.430000e+00
 TP3dr   P1a  1 3.950000e-01    3.190000e+00
 TP3dr   N6a  1 3.950000e-01    2.940000e+00
 TP3dr   N5a  1 3.950000e-01    2.700000e+00
 TP3dr   N4a  1 3.950000e-01    2.700000e+00
 TP3dr   N3a  1 3.950000e-01    2.500000e+00
 TP3dr   N2a  1 3.950000e-01    2.500000e+00
 TP3dr   N1a  1 3.950000e-01    2.110000e+00
 TP3dr   C6e  1 3.950000e-01    2.310000e+00
 TP3dr   C5e  1 3.950000e-01    2.110000e+00
 TP3dr   C4e  1 3.950000e-01    1.850000e+00
 TP3dr   C3e  1 3.980000e-01    1.450000e+00
 TP3dr   C2e  1 3.980000e-01    1.450000e+00
 TP3dr   C1e  1 3.990000e-01    1.180000e+00
 TP3dr   X4e  1 3.950000e-01    2.310000e+00
 TP3dr   X3e  1 3.950000e-01    2.310000e+00
 TP3dr   X2e  1 3.950000e-01    2.110000e+00
 TP3dr   X1e  1 3.950000e-01    1.850000e+00
 TP3dr   C6v  1 3.950000e-01    1.850000e+00
 TP3dr   C5v  1 3.950000e-01    1.670000e+00
 TP3dr   C4v  1 3.980000e-01    1.450000e+00
 TP3dr   C3v  1 4.010000e-01    9.830000e-01
 TP3dr   C2v  1 4.010000e-01    9.830000e-01
 TP3dr   C1v  1 4.040000e-01    8.300000e-01
 TP3dr   X4v  1 3.950000e-01    1.850000e+00
 TP3dr   X3v  1 3.950000e-01    1.850000e+00
 TP3dr   X2v  1 3.950000e-01    1.670000e+00
 TP3dr   X1v  1 3.980000e-01    1.450000e+00
  TP6q  P3dr  1 3.950000e-01    3.910000e+00
  TP5q  P3dr  1 3.950000e-01    3.670000e+00
  TP4q  P3dr  1 3.950000e-01    3.670000e+00
  TP3q  P3dr  1 3.950000e-01    3.670000e+00
 TP3dr   P2q  1 3.950000e-01    3.670000e+00
 TP3dr   P1q  1 3.950000e-01    3.430000e+00
 TP3dr   N6q  1 3.950000e-01    3.190000e+00
 TP3dr   N5q  1 3.950000e-01    2.940000e+00
 TP3dr   N4q  1 3.950000e-01    2.940000e+00
 TP3dr   N3q  1 3.950000e-01    2.700000e+00
 TP3dr   N2q  1 3.950000e-01    2.700000e+00
 TP3dr   N1q  1 3.950000e-01    2.500000e+00
 TP3dr   C6q  1 3.950000e-01    2.500000e+00
 TP3dr   C5q  1 3.950000e-01    2.310000e+00
 TP3dr   C4q  1 3.950000e-01    2.110000e+00
 TP3dr   C3q  1 3.950000e-01    1.670000e+00
 TP3dr   C2q  1 3.950000e-01    1.670000e+00
 TP3dr   C1q  1 3.980000e-01    1.450000e+00
 TP3dr   X4q  1 3.950000e-01    2.500000e+00
 TP3dr   X3q  1 3.950000e-01    2.500000e+00
 TP3dr   X2q  1 3.950000e-01    2.310000e+00
 TP3dr   X1q  1 3.950000e-01    2.110000e+00
 TP6dq  P3dr  1 3.950000e-01    3.670000e+00
 TP5dq  P3dr  1 3.950000e-01    3.430000e+00
 TP4dq  P3dr  1 3.950000e-01    3.430000e+00
 TP3dr  P3dq  1 3.950000e-01    3.430000e+00
 TP3dr  X1eq  1 3.950000e-01    2.310000e+00
 TP3dr  X2eq  1 3.950000e-01    2.500000e+00
 TP3dr  X3eq  1 3.950000e-01    2.700000e+00
 TP3dr  X4eq  1 3.950000e-01    2.700000e+00
 TP3dr  C1eq  1 3.950000e-01    1.670000e+00
 TP3dr  C2eq  1 3.950000e-01    1.850000e+00
 TP3dr  C3eq  1 3.950000e-01    1.850000e+00
 TP3dr  C4eq  1 3.950000e-01    2.310000e+00
 TP3dr  C5eq  1 3.950000e-01    2.500000e+00
 TP3dr  C6eq  1 3.950000e-01    2.700000e+00
 TP3dr  X1vq  1 3.950000e-01    1.850000e+00
 TP3dr  X2vq  1 3.950000e-01    2.110000e+00
 TP3dr  X3vq  1 3.950000e-01    2.310000e+00
 TP3dr  X4vq  1 3.950000e-01    2.310000e+00
 TP3dr  C1vq  1 3.990000e-01    1.180000e+00
 TP3dr  C2vq  1 3.980000e-01    1.450000e+00
 TP3dr  C3vq  1 3.980000e-01    1.450000e+00
 TP3dr  C4vq  1 3.950000e-01    1.850000e+00
 TP3dr  C5vq  1 3.950000e-01    2.110000e+00
 TP3dr  C6vq  1 3.950000e-01    2.310000e+00
 TP3dr  N1aq  1 3.950000e-01    2.500000e+00
 TP3dr  N2aq  1 3.950000e-01    2.940000e+00
 TP3dr  N3aq  1 3.950000e-01    2.940000e+00
 TP3dr  N4aq  1 3.950000e-01    3.190000e+00
 TP3dr  N5aq  1 3.950000e-01    3.190000e+00
 TP3dr  N6aq  1 3.950000e-01    3.430000e+00
 TP3dr  P1aq  1 3.950000e-01    3.670000e+00
 TP3dr  P2aq  1 3.950000e-01    3.910000e+00
 TP3dr  P3aq  1 3.950000e-01    3.910000e+00
 TP4aq  P3dr  1 3.950000e-01    3.910000e+00
 TP5aq  P3dr  1 3.950000e-01    3.910000e+00
 TP6aq  P3dr  1 3.950000e-01    4.230000e+00
 TP3dr  N1dq  1 3.950000e-01    2.500000e+00
 TP3dr  N2dq  1 3.950000e-01    2.500000e+00
 TP3dr  N3dq  1 3.950000e-01    2.500000e+00
 TP3dr  N4dq  1 3.950000e-01    2.700000e+00
 TP3dr  N5dq  1 3.950000e-01    2.700000e+00
 TP3dr  N6dq  1 3.950000e-01    2.940000e+00
 TP3dr  P1dq  1 3.950000e-01    3.190000e+00
 TP3dr  P2dq  1 3.950000e-01    3.430000e+00
  TP2d  P2dr  1 3.950000e-01    2.940000e+00
 TP2dr   P1d  1 3.950000e-01    2.700000e+00
 TP2dr   N6d  1 3.950000e-01    2.700000e+00
 TP2dr   N5d  1 3.950000e-01    2.500000e+00
 TP2dr   N4d  1 3.950000e-01    2.310000e+00
 TP2dr   N3d  1 3.950000e-01    2.110000e+00
 TP2dr   N2d  1 3.950000e-01    2.110000e+00
 TP2dr   N1d  1 3.950000e-01    2.110000e+00
  TP6a  P2dr  1 3.950000e-01    3.670000e+00
  TP5a  P2dr  1 3.950000e-01    3.430000e+00
  TP4a  P2dr  1 3.950000e-01    3.430000e+00
  TP3a  P2dr  1 3.950000e-01    3.430000e+00
 TP2dr   P2a  1 3.950000e-01    3.430000e+00
 TP2dr   P1a  1 3.950000e-01    3.190000e+00
 TP2dr   N6a  1 3.950000e-01    3.190000e+00
 TP2dr   N5a  1 3.950000e-01    2.940000e+00
 TP2dr   N4a  1 3.950000e-01    2.700000e+00
 TP2dr   N3a  1 3.950000e-01    2.500000e+00
 TP2dr   N2a  1 3.950000e-01    2.500000e+00
 TP2dr   N1a  1 3.950000e-01    2.500000e+00
 TP2dr   C6e  1 3.950000e-01    2.310000e+00
 TP2dr   C5e  1 3.950000e-01    2.110000e+00
 TP2dr   C4e  1 3.950000e-01    1.850000e+00
 TP2dr   C3e  1 3.950000e-01    1.670000e+00
 TP2dr   C2e  1 3.950000e-01    1.670000e+00
 TP2dr   C1e  1 3.980000e-01    1.450000e+00
 TP2dr   X4e  1 3.950000e-01    2.310000e+00
 TP2dr   X3e  1 3.950000e-01    2.310000e+00
 TP2dr   X2e  1 3.950000e-01    2.110000e+00
 TP2dr   X1e  1 3.950000e-01    1.850000e+00
 TP2dr   C6v  1 3.950000e-01    1.850000e+00
 TP2dr   C5v  1 3.950000e-01    1.670000e+00
 TP2dr   C4v  1 3.980000e-01    1.450000e+00
 TP2dr   C3v  1 3.990000e-01    1.180000e+00
 TP2dr   C2v  1 3.990000e-01    1.180000e+00
 TP2dr   C1v  1 4.010000e-01    9.830000e-01
 TP2dr   X4v  1 3.950000e-01    1.850000e+00
 TP2dr   X3v  1 3.950000e-01    1.850000e+00
 TP2dr   X2v  1 3.950000e-01    1.670000e+00
 TP2dr   X1v  1 3.980000e-01    1.450000e+00
  TP6q  P2dr  1 3.950000e-01    3.910000e+00
  TP5q  P2dr  1 3.950000e-01    3.670000e+00
  TP4q  P2dr  1 3.950000e-01    3.670000e+00
  TP3q  P2dr  1 3.950000e-01    3.670000e+00
  TP2q  P2dr  1 3.950000e-01    3.670000e+00
 TP2dr   P1q  1 3.950000e-01    3.430000e+00
 TP2dr   N6q  1 3.950000e-01    3.430000e+00
 TP2dr   N5q  1 3.950000e-01    3.190000e+00
 TP2dr   N4q  1 3.950000e-01    2.940000e+00
 TP2dr   N3q  1 3.950000e-01    2.700000e+00
 TP2dr   N2q  1 3.950000e-01    2.700000e+00
 TP2dr   N1q  1 3.950000e-01    2.700000e+00
 TP2dr   C6q  1 3.950000e-01    2.500000e+00
 TP2dr   C5q  1 3.950000e-01    2.310000e+00
 TP2dr   C4q  1 3.950000e-01    2.110000e+00
 TP2dr   C3q  1 3.950000e-01    1.850000e+00
 TP2dr   C2q  1 3.950000e-01    1.850000e+00
 TP2dr   C1q  1 3.950000e-01    1.670000e+00
 TP2dr   X4q  1 3.950000e-01    2.500000e+00
 TP2dr   X3q  1 3.950000e-01    2.500000e+00
 TP2dr   X2q  1 3.950000e-01    2.310000e+00
 TP2dr   X1q  1 3.950000e-01    2.110000e+00
 TP6dq  P2dr  1 3.950000e-01    3.670000e+00
 TP5dq  P2dr  1 3.950000e-01    3.430000e+00
 TP4dq  P2dr  1 3.950000e-01    3.430000e+00
 TP3dq  P2dr  1 3.950000e-01    3.430000e+00
 TP2dr  P2dq  1 3.950000e-01    3.430000e+00
 TP2dr  X1eq  1 3.950000e-01    2.310000e+00
 TP2dr  X2eq  1 3.950000e-01    2.500000e+00
 TP2dr  X3eq  1 3.950000e-01    2.700000e+00
 TP2dr  X4eq  1 3.950000e-01    2.700000e+00
 TP2dr  C1eq  1 3.950000e-01    1.850000e+00
 TP2dr  C2eq  1 3.950000e-01    2.110000e+00
 TP2dr  C3eq  1 3.950000e-01    2.110000e+00
 TP2dr  C4eq  1 3.950000e-01    2.310000e+00
 TP2dr  C5eq  1 3.950000e-01    2.500000e+00
 TP2dr  C6eq  1 3.950000e-01    2.700000e+00
 TP2dr  X1vq  1 3.950000e-01    1.850000e+00
 TP2dr  X2vq  1 3.950000e-01    2.110000e+00
 TP2dr  X3vq  1 3.950000e-01    2.310000e+00
 TP2dr  X4vq  1 3.950000e-01    2.310000e+00
 TP2dr  C1vq  1 3.980000e-01    1.450000e+00
 TP2dr  C2vq  1 3.950000e-01    1.670000e+00
 TP2dr  C3vq  1 3.950000e-01    1.670000e+00
 TP2dr  C4vq  1 3.950000e-01    1.850000e+00
 TP2dr  C5vq  1 3.950000e-01    2.110000e+00
 TP2dr  C6vq  1 3.950000e-01    2.310000e+00
 TP2dr  N1aq  1 3.950000e-01    2.940000e+00
 TP2dr  N2aq  1 3.950000e-01    2.940000e+00
 TP2dr  N3aq  1 3.950000e-01    2.940000e+00
 TP2dr  N4aq  1 3.950000e-01    3.190000e+00
 TP2dr  N5aq  1 3.950000e-01    3.430000e+00
 TP2dr  N6aq  1 3.950000e-01    3.670000e+00
 TP2dr  P1aq  1 3.950000e-01    3.670000e+00
 TP2dr  P2aq  1 3.950000e-01    3.910000e+00
 TP3aq  P2dr  1 3.950000e-01    3.910000e+00
 TP4aq  P2dr  1 3.950000e-01    3.910000e+00
 TP5aq  P2dr  1 3.950000e-01    3.910000e+00
 TP6aq  P2dr  1 3.950000e-01    4.230000e+00
 TP2dr  N1dq  1 3.950000e-01    2.500000e+00
 TP2dr  N2dq  1 3.950000e-01    2.500000e+00
 TP2dr  N3dq  1 3.950000e-01    2.500000e+00
 TP2dr  N4dq  1 3.950000e-01    2.700000e+00
 TP2dr  N5dq  1 3.950000e-01    2.940000e+00
 TP2dr  N6dq  1 3.950000e-01    3.190000e+00
 TP2dr  P1dq  1 3.950000e-01    3.190000e+00
  TP1d  P1dr  1 3.950000e-01    2.700000e+00
 TP1dr   N6d  1 3.950000e-01    2.700000e+00
 TP1dr   N5d  1 3.950000e-01    2.500000e+00
 TP1dr   N4d  1 3.950000e-01    2.500000e+00
 TP1dr   N3d  1 3.950000e-01    2.110000e+00
 TP1dr   N2d  1 3.950000e-01    2.110000e+00
 TP1dr   N1d  1 3.950000e-01    2.110000e+00
  TP6a  P1dr  1 3.950000e-01    3.430000e+00
  TP5a  P1dr  1 3.950000e-01    3.190000e+00
  TP4a  P1dr  1 3.950000e-01    3.190000e+00
  TP3a  P1dr  1 3.950000e-01    3.190000e+00
  TP2a  P1dr  1 3.950000e-01    3.190000e+00
 TP1dr   P1a  1 3.950000e-01    3.190000e+00
 TP1dr   N6a  1 3.950000e-01    3.190000e+00
 TP1dr   N5a  1 3.950000e-01    2.940000e+00
 TP1dr   N4a  1 3.950000e-01    2.940000e+00
 TP1dr   N3a  1 3.950000e-01    2.500000e+00
 TP1dr   N2a  1 3.950000e-01    2.500000e+00
 TP1dr   N1a  1 3.950000e-01    2.500000e+00
 TP1dr   C6e  1 3.950000e-01    2.310000e+00
 TP1dr   C5e  1 3.950000e-01    2.110000e+00
 TP1dr   C4e  1 3.950000e-01    1.850000e+00
 TP1dr   C3e  1 3.950000e-01    1.670000e+00
 TP1dr   C2e  1 3.950000e-01    1.670000e+00
 TP1dr   C1e  1 3.980000e-01    1.450000e+00
 TP1dr   X4e  1 3.950000e-01    2.310000e+00
 TP1dr   X3e  1 3.950000e-01    2.310000e+00
 TP1dr   X2e  1 3.950000e-01    2.110000e+00
 TP1dr   X1e  1 3.950000e-01    1.850000e+00
 TP1dr   C6v  1 3.950000e-01    1.850000e+00
 TP1dr   C5v  1 3.950000e-01    1.670000e+00
 TP1dr   C4v  1 3.980000e-01    1.450000e+00
 TP1dr   C3v  1 3.990000e-01    1.180000e+00
 TP1dr   C2v  1 3.990000e-01    1.180000e+00
 TP1dr   C1v  1 4.010000e-01    9.830000e-01
 TP1dr   X4v  1 3.950000e-01    1.850000e+00
 TP1dr   X3v  1 3.950000e-01    1.850000e+00
 TP1dr   X2v  1 3.950000e-01    1.670000e+00
 TP1dr   X1v  1 3.980000e-01    1.450000e+00
  TP6q  P1dr  1 3.950000e-01    3.670000e+00
  TP5q  P1dr  1 3.950000e-01    3.430000e+00
  TP4q  P1dr  1 3.950000e-01    3.430000e+00
  TP3q  P1dr  1 3.950000e-01    3.430000e+00
  TP2q  P1dr  1 3.950000e-01    3.430000e+00
  TP1q  P1dr  1 3.950000e-01    3.430000e+00
 TP1dr   N6q  1 3.950000e-01    3.430000e+00
 TP1dr   N5q  1 3.950000e-01    3.190000e+00
 TP1dr   N4q  1 3.950000e-01    3.190000e+00
 TP1dr   N3q  1 3.950000e-01    2.700000e+00
 TP1dr   N2q  1 3.950000e-01    2.700000e+00
 TP1dr   N1q  1 3.950000e-01    2.700000e+00
 TP1dr   C6q  1 3.950000e-01    2.500000e+00
 TP1dr   C5q  1 3.950000e-01    2.310000e+00
 TP1dr   C4q  1 3.950000e-01    2.110000e+00
 TP1dr   C3q  1 3.950000e-01    1.850000e+00
 TP1dr   C2q  1 3.950000e-01    1.850000e+00
 TP1dr   C1q  1 3.950000e-01    1.670000e+00
 TP1dr   X4q  1 3.950000e-01    2.500000e+00
 TP1dr   X3q  1 3.950000e-01    2.500000e+00
 TP1dr   X2q  1 3.950000e-01    2.310000e+00
 TP1dr   X1q  1 3.950000e-01    2.110000e+00
 TP6dq  P1dr  1 3.950000e-01    3.430000e+00
 TP5dq  P1dr  1 3.950000e-01    3.190000e+00
 TP4dq  P1dr  1 3.950000e-01    3.190000e+00
 TP3dq  P1dr  1 3.950000e-01    3.190000e+00
 TP2dq  P1dr  1 3.950000e-01    3.190000e+00
 TP1dr  P1dq  1 3.950000e-01    3.190000e+00
 TP1dr  X1eq  1 3.950000e-01    2.310000e+00
 TP1dr  X2eq  1 3.950000e-01    2.500000e+00
 TP1dr  X3eq  1 3.950000e-01    2.700000e+00
 TP1dr  X4eq  1 3.950000e-01    2.700000e+00
 TP1dr  C1eq  1 3.950000e-01    1.850000e+00
 TP1dr  C2eq  1 3.950000e-01    2.110000e+00
 TP1dr  C3eq  1 3.950000e-01    2.110000e+00
 TP1dr  C4eq  1 3.950000e-01    2.310000e+00
 TP1dr  C5eq  1 3.950000e-01    2.500000e+00
 TP1dr  C6eq  1 3.950000e-01    2.700000e+00
 TP1dr  X1vq  1 3.950000e-01    1.850000e+00
 TP1dr  X2vq  1 3.950000e-01    2.110000e+00
 TP1dr  X3vq  1 3.950000e-01    2.310000e+00
 TP1dr  X4vq  1 3.950000e-01    2.310000e+00
 TP1dr  C1vq  1 3.980000e-01    1.450000e+00
 TP1dr  C2vq  1 3.950000e-01    1.670000e+00
 TP1dr  C3vq  1 3.950000e-01    1.670000e+00
 TP1dr  C4vq  1 3.950000e-01    1.850000e+00
 TP1dr  C5vq  1 3.950000e-01    2.110000e+00
 TP1dr  C6vq  1 3.950000e-01    2.310000e+00
 TP1dr  N1aq  1 3.950000e-01    2.940000e+00
 TP1dr  N2aq  1 3.950000e-01    2.940000e+00
 TP1dr  N3aq  1 3.950000e-01    2.940000e+00
 TP1dr  N4aq  1 3.950000e-01    3.430000e+00
 TP1dr  N5aq  1 3.950000e-01    3.430000e+00
 TP1dr  N6aq  1 3.950000e-01    3.670000e+00
 TP1dr  P1aq  1 3.950000e-01    3.670000e+00
 TP2aq  P1dr  1 3.950000e-01    3.670000e+00
 TP3aq  P1dr  1 3.950000e-01    3.670000e+00
 TP4aq  P1dr  1 3.950000e-01    3.670000e+00
 TP5aq  P1dr  1 3.950000e-01    3.670000e+00
 TP6aq  P1dr  1 3.950000e-01    3.910000e+00
 TP1dr  N1dq  1 3.950000e-01    2.500000e+00
 TP1dr  N2dq  1 3.950000e-01    2.500000e+00
 TP1dr  N3dq  1 3.950000e-01    2.500000e+00
 TP1dr  N4dq  1 3.950000e-01    2.940000e+00
 TP1dr  N5dq  1 3.950000e-01    2.940000e+00
 TP1dr  N6dq  1 3.950000e-01    3.190000e+00
  TN6d  N6dr  1 3.950000e-01    2.700000e+00
 TN6dr   N5d  1 3.950000e-01    2.700000e+00
 TN6dr   N4d  1 3.950000e-01    2.700000e+00
 TN6dr   N3d  1 3.950000e-01    2.310000e+00
 TN6dr   N2d  1 3.950000e-01    2.110000e+00
 TN6dr   N1d  1 3.950000e-01    2.110000e+00
  TP6a  N6dr  1 3.950000e-01    3.190000e+00
  TP5a  N6dr  1 3.950000e-01    2.940000e+00
  TP4a  N6dr  1 3.950000e-01    2.940000e+00
  TP3a  N6dr  1 3.950000e-01    2.940000e+00
  TP2a  N6dr  1 3.950000e-01    3.190000e+00
  TP1a  N6dr  1 3.950000e-01    3.190000e+00
 TN6dr   N6a  1 3.950000e-01    3.190000e+00
 TN6dr   N5a  1 3.950000e-01    3.190000e+00
 TN6dr   N4a  1 3.950000e-01    3.190000e+00
 TN6dr   N3a  1 3.950000e-01    2.700000e+00
 TN6dr   N2a  1 3.950000e-01    2.500000e+00
 TN6dr   N1a  1 3.950000e-01    2.500000e+00
 TN6dr   C6e  1 3.950000e-01    2.500000e+00
 TN6dr   C5e  1 3.950000e-01    2.310000e+00
 TN6dr   C4e  1 3.950000e-01    2.110000e+00
 TN6dr   C3e  1 3.950000e-01    1.850000e+00
 TN6dr   C2e  1 3.950000e-01    1.850000e+00
 TN6dr   C1e  1 3.950000e-01    1.670000e+00
 TN6dr   X4e  1 3.950000e-01    2.500000e+00
 TN6dr   X3e  1 3.950000e-01    2.310000e+00
 TN6dr   X2e  1 3.950000e-01    2.110000e+00
 TN6dr   X1e  1 3.950000e-01    1.850000e+00
 TN6dr   C6v  1 3.950000e-01    2.110000e+00
 TN6dr   C5v  1 3.950000e-01    1.850000e+00
 TN6dr   C4v  1 3.950000e-01    1.670000e+00
 TN6dr   C3v  1 3.980000e-01    1.450000e+00
 TN6dr   C2v  1 3.980000e-01    1.450000e+00
 TN6dr   C1v  1 3.990000e-01    1.180000e+00
 TN6dr   X4v  1 3.950000e-01    2.110000e+00
 TN6dr   X3v  1 3.950000e-01    1.850000e+00
 TN6dr   X2v  1 3.950000e-01    1.670000e+00
 TN6dr   X1v  1 3.980000e-01    1.450000e+00
  TP6q  N6dr  1 3.950000e-01    3.430000e+00
  TP5q  N6dr  1 3.950000e-01    3.190000e+00
  TP4q  N6dr  1 3.950000e-01    3.190000e+00
  TP3q  N6dr  1 3.950000e-01    3.190000e+00
  TP2q  N6dr  1 3.950000e-01    3.430000e+00
  TP1q  N6dr  1 3.950000e-01    3.430000e+00
  TN6q  N6dr  1 3.950000e-01    3.430000e+00
 TN6dr   N5q  1 3.950000e-01    3.430000e+00
 TN6dr   N4q  1 3.950000e-01    3.430000e+00
 TN6dr   N3q  1 3.950000e-01    2.940000e+00
 TN6dr   N2q  1 3.950000e-01    2.700000e+00
 TN6dr   N1q  1 3.950000e-01    2.700000e+00
 TN6dr   C6q  1 3.950000e-01    2.700000e+00
 TN6dr   C5q  1 3.950000e-01    2.500000e+00
 TN6dr   C4q  1 3.950000e-01    2.310000e+00
 TN6dr   C3q  1 3.950000e-01    2.110000e+00
 TN6dr   C2q  1 3.950000e-01    2.110000e+00
 TN6dr   C1q  1 3.950000e-01    1.850000e+00
 TN6dr   X4q  1 3.950000e-01    2.700000e+00
 TN6dr   X3q  1 3.950000e-01    2.500000e+00
 TN6dr   X2q  1 3.950000e-01    2.310000e+00
 TN6dr   X1q  1 3.950000e-01    2.110000e+00
 TP6dq  N6dr  1 3.950000e-01    3.190000e+00
 TP5dq  N6dr  1 3.950000e-01    2.940000e+00
 TP4dq  N6dr  1 3.950000e-01    2.940000e+00
 TP3dq  N6dr  1 3.950000e-01    2.940000e+00
 TP2dq  N6dr  1 3.950000e-01    3.190000e+00
 TP1dq  N6dr  1 3.950000e-01    3.190000e+00
 TN6dr  N6dq  1 3.950000e-01    3.190000e+00
 TN6dr  X1eq  1 3.950000e-01    2.310000e+00
 TN6dr  X2eq  1 3.950000e-01    2.500000e+00
 TN6dr  X3eq  1 3.950000e-01    2.700000e+00
 TN6dr  X4eq  1 3.950000e-01    2.940000e+00
 TN6dr  C1eq  1 3.950000e-01    2.110000e+00
 TN6dr  C2eq  1 3.950000e-01    2.310000e+00
 TN6dr  C3eq  1 3.950000e-01    2.310000e+00
 TN6dr  C4eq  1 3.950000e-01    2.500000e+00
 TN6dr  C5eq  1 3.950000e-01    2.700000e+00
 TN6dr  C6eq  1 3.950000e-01    2.940000e+00
 TN6dr  X1vq  1 3.950000e-01    1.850000e+00
 TN6dr  X2vq  1 3.950000e-01    2.110000e+00
 TN6dr  X3vq  1 3.950000e-01    2.310000e+00
 TN6dr  X4vq  1 3.950000e-01    2.500000e+00
 TN6dr  C1vq  1 3.950000e-01    1.670000e+00
 TN6dr  C2vq  1 3.950000e-01    1.850000e+00
 TN6dr  C3vq  1 3.950000e-01    1.850000e+00
 TN6dr  C4vq  1 3.950000e-01    2.110000e+00
 TN6dr  C5vq  1 3.950000e-01    2.310000e+00
 TN6dr  C6vq  1 3.950000e-01    2.500000e+00
 TN6dr  N1aq  1 3.950000e-01    2.940000e+00
 TN6dr  N2aq  1 3.950000e-01    2.940000e+00
 TN6dr  N3aq  1 3.950000e-01    3.190000e+00
 TN6dr  N4aq  1 3.950000e-01    3.670000e+00
 TN6dr  N5aq  1 3.950000e-01    3.670000e+00
 TN6dr  N6aq  1 3.950000e-01    3.670000e+00
 TP1aq  N6dr  1 3.950000e-01    3.670000e+00
 TP2aq  N6dr  1 3.950000e-01    3.670000e+00
 TP3aq  N6dr  1 3.950000e-01    3.430000e+00
 TP4aq  N6dr  1 3.950000e-01    3.430000e+00
 TP5aq  N6dr  1 3.950000e-01    3.430000e+00
 TP6aq  N6dr  1 3.950000e-01    3.670000e+00
 TN6dr  N1dq  1 3.950000e-01    2.500000e+00
 TN6dr  N2dq  1 3.950000e-01    2.500000e+00
 TN6dr  N3dq  1 3.950000e-01    2.700000e+00
 TN6dr  N4dq  1 3.950000e-01    3.190000e+00
 TN6dr  N5dq  1 3.950000e-01    3.190000e+00
  TN5d  N5dr  1 3.950000e-01    2.500000e+00
 TN5dr   N4d  1 3.950000e-01    2.500000e+00
 TN5dr   N3d  1 3.950000e-01    2.310000e+00
 TN5dr   N2d  1 3.950000e-01    2.310000e+00
 TN5dr   N1d  1 3.950000e-01    2.110000e+00
  TP6a  N5dr  1 3.950000e-01    2.700000e+00
  TP5a  N5dr  1 3.950000e-01    2.700000e+00
  TP4a  N5dr  1 3.950000e-01    2.700000e+00
  TP3a  N5dr  1 3.950000e-01    2.700000e+00
  TP2a  N5dr  1 3.950000e-01    2.940000e+00
  TP1a  N5dr  1 3.950000e-01    2.940000e+00
  TN6a  N5dr  1 3.950000e-01    3.190000e+00
 TN5dr   N5a  1 3.950000e-01    2.940000e+00
 TN5dr   N4a  1 3.950000e-01    2.940000e+00
 TN5dr   N3a  1 3.950000e-01    2.700000e+00
 TN5dr   N2a  1 3.950000e-01    2.700000e+00
 TN5dr   N1a  1 3.950000e-01    2.500000e+00
 TN5dr   C6e  1 3.950000e-01    2.500000e+00
 TN5dr   C5e  1 3.950000e-01    2.310000e+00
 TN5dr   C4e  1 3.950000e-01    2.110000e+00
 TN5dr   C3e  1 3.950000e-01    2.110000e+00
 TN5dr   C2e  1 3.950000e-01    1.850000e+00
 TN5dr   C1e  1 3.950000e-01    1.670000e+00
 TN5dr   X4e  1 3.950000e-01    2.700000e+00
 TN5dr   X3e  1 3.950000e-01    2.500000e+00
 TN5dr   X2e  1 3.950000e-01    2.310000e+00
 TN5dr   X1e  1 3.950000e-01    2.110000e+00
 TN5dr   C6v  1 3.950000e-01    2.110000e+00
 TN5dr   C5v  1 3.950000e-01    1.850000e+00
 TN5dr   C4v  1 3.950000e-01    1.670000e+00
 TN5dr   C3v  1 3.950000e-01    1.670000e+00
 TN5dr   C2v  1 3.980000e-01    1.450000e+00
 TN5dr   C1v  1 3.990000e-01    1.180000e+00
 TN5dr   X4v  1 3.950000e-01    2.310000e+00
 TN5dr   X3v  1 3.950000e-01    2.110000e+00
 TN5dr   X2v  1 3.950000e-01    1.850000e+00
 TN5dr   X1v  1 3.950000e-01    1.670000e+00
  TP6q  N5dr  1 3.950000e-01    2.940000e+00
  TP5q  N5dr  1 3.950000e-01    2.940000e+00
  TP4q  N5dr  1 3.950000e-01    2.940000e+00
  TP3q  N5dr  1 3.950000e-01    2.940000e+00
  TP2q  N5dr  1 3.950000e-01    3.190000e+00
  TP1q  N5dr  1 3.950000e-01    3.190000e+00
  TN6q  N5dr  1 3.950000e-01    3.430000e+00
  TN5q  N5dr  1 3.950000e-01    3.190000e+00
 TN5dr   N4q  1 3.950000e-01    3.190000e+00
 TN5dr   N3q  1 3.950000e-01    2.940000e+00
 TN5dr   N2q  1 3.950000e-01    2.940000e+00
 TN5dr   N1q  1 3.950000e-01    2.700000e+00
 TN5dr   C6q  1 3.950000e-01    2.700000e+00
 TN5dr   C5q  1 3.950000e-01    2.500000e+00
 TN5dr   C4q  1 3.950000e-01    2.310000e+00
 TN5dr   C3q  1 3.950000e-01    2.310000e+00
 TN5dr   C2q  1 3.950000e-01    2.110000e+00
 TN5dr   C1q  1 3.950000e-01    1.850000e+00
 TN5dr   X4q  1 3.950000e-01    2.940000e+00
 TN5dr   X3q  1 3.950000e-01    2.700000e+00
 TN5dr   X2q  1 3.950000e-01    2.500000e+00
 TN5dr   X1q  1 3.950000e-01    2.310000e+00
 TP6dq  N5dr  1 3.950000e-01    2.700000e+00
 TP5dq  N5dr  1 3.950000e-01    2.700000e+00
 TP4dq  N5dr  1 3.950000e-01    2.700000e+00
 TP3dq  N5dr  1 3.950000e-01    2.700000e+00
 TP2dq  N5dr  1 3.950000e-01    2.940000e+00
 TP1dq  N5dr  1 3.950000e-01    2.940000e+00
 TN6dq  N5dr  1 3.950000e-01    3.190000e+00
 TN5dr  N5dq  1 3.950000e-01    2.940000e+00
 TN5dr  X1eq  1 3.950000e-01    2.500000e+00
 TN5dr  X2eq  1 3.950000e-01    2.700000e+00
 TN5dr  X3eq  1 3.950000e-01    2.940000e+00
 TN5dr  X4eq  1 3.950000e-01    3.190000e+00
 TN5dr  C1eq  1 3.950000e-01    2.110000e+00
 TN5dr  C2eq  1 3.950000e-01    2.310000e+00
 TN5dr  C3eq  1 3.950000e-01    2.500000e+00
 TN5dr  C4eq  1 3.950000e-01    2.500000e+00
 TN5dr  C5eq  1 3.950000e-01    2.700000e+00
 TN5dr  C6eq  1 3.950000e-01    2.940000e+00
 TN5dr  X1vq  1 3.950000e-01    2.110000e+00
 TN5dr  X2vq  1 3.950000e-01    2.310000e+00
 TN5dr  X3vq  1 3.950000e-01    2.500000e+00
 TN5dr  X4vq  1 3.950000e-01    2.700000e+00
 TN5dr  C1vq  1 3.950000e-01    1.670000e+00
 TN5dr  C2vq  1 3.950000e-01    1.850000e+00
 TN5dr  C3vq  1 3.950000e-01    2.110000e+00
 TN5dr  C4vq  1 3.950000e-01    2.110000e+00
 TN5dr  C5vq  1 3.950000e-01    2.310000e+00
 TN5dr  C6vq  1 3.950000e-01    2.500000e+00
 TN5dr  N1aq  1 3.950000e-01    2.940000e+00
 TN5dr  N2aq  1 3.950000e-01    3.190000e+00
 TN5dr  N3aq  1 3.950000e-01    3.190000e+00
 TN5dr  N4aq  1 3.950000e-01    3.430000e+00
 TN5dr  N5aq  1 3.950000e-01    3.430000e+00
 TN6aq  N5dr  1 3.950000e-01    3.670000e+00
 TP1aq  N5dr  1 3.950000e-01    3.430000e+00
 TP2aq  N5dr  1 3.950000e-01    3.430000e+00
 TP3aq  N5dr  1 3.950000e-01    3.190000e+00
 TP4aq  N5dr  1 3.950000e-01    3.190000e+00
 TP5aq  N5dr  1 3.950000e-01    3.190000e+00
 TP6aq  N5dr  1 3.950000e-01    3.190000e+00
 TN5dr  N1dq  1 3.950000e-01    2.500000e+00
 TN5dr  N2dq  1 3.950000e-01    2.700000e+00
 TN5dr  N3dq  1 3.950000e-01    2.700000e+00
 TN5dr  N4dq  1 3.950000e-01    2.940000e+00
  TN4d  N4dr  1 3.950000e-01    2.500000e+00
 TN4dr   N3d  1 3.950000e-01    2.310000e+00
 TN4dr   N2d  1 3.950000e-01    2.310000e+00
 TN4dr   N1d  1 3.950000e-01    2.110000e+00
  TP6a  N4dr  1 3.950000e-01    2.500000e+00
  TP5a  N4dr  1 3.950000e-01    2.700000e+00
  TP4a  N4dr  1 3.950000e-01    2.700000e+00
  TP3a  N4dr  1 3.950000e-01    2.700000e+00
  TP2a  N4dr  1 3.950000e-01    2.700000e+00
  TP1a  N4dr  1 3.950000e-01    2.940000e+00
  TN6a  N4dr  1 3.950000e-01    3.190000e+00
  TN5a  N4dr  1 3.950000e-01    2.940000e+00
 TN4dr   N4a  1 3.950000e-01    2.940000e+00
 TN4dr   N3a  1 3.950000e-01    2.700000e+00
 TN4dr   N2a  1 3.950000e-01    2.700000e+00
 TN4dr   N1a  1 3.950000e-01    2.500000e+00
 TN4dr   C6e  1 3.950000e-01    2.500000e+00
 TN4dr   C5e  1 3.950000e-01    2.310000e+00
 TN4dr   C4e  1 3.950000e-01    2.310000e+00
 TN4dr   C3e  1 3.950000e-01    2.110000e+00
 TN4dr   C2e  1 3.950000e-01    1.850000e+00
 TN4dr   C1e  1 3.950000e-01    1.670000e+00
 TN4dr   X4e  1 3.950000e-01    2.940000e+00
 TN4dr   X3e  1 3.950000e-01    2.700000e+00
 TN4dr   X2e  1 3.950000e-01    2.310000e+00
 TN4dr   X1e  1 3.950000e-01    2.110000e+00
 TN4dr   C6v  1 3.950000e-01    2.110000e+00
 TN4dr   C5v  1 3.950000e-01    1.850000e+00
 TN4dr   C4v  1 3.950000e-01    1.850000e+00
 TN4dr   C3v  1 3.950000e-01    1.670000e+00
 TN4dr   C2v  1 3.980000e-01    1.450000e+00
 TN4dr   C1v  1 3.990000e-01    1.180000e+00
 TN4dr   X4v  1 3.950000e-01    2.500000e+00
 TN4dr   X3v  1 3.950000e-01    2.310000e+00
 TN4dr   X2v  1 3.950000e-01    1.850000e+00
 TN4dr   X1v  1 3.950000e-01    1.670000e+00
  TP6q  N4dr  1 3.950000e-01    2.700000e+00
  TP5q  N4dr  1 3.950000e-01    2.940000e+00
  TP4q  N4dr  1 3.950000e-01    2.940000e+00
  TP3q  N4dr  1 3.950000e-01    2.940000e+00
  TP2q  N4dr  1 3.950000e-01    2.940000e+00
  TP1q  N4dr  1 3.950000e-01    3.190000e+00
  TN6q  N4dr  1 3.950000e-01    3.430000e+00
  TN5q  N4dr  1 3.950000e-01    3.190000e+00
  TN4q  N4dr  1 3.950000e-01    3.190000e+00
 TN4dr   N3q  1 3.950000e-01    2.940000e+00
 TN4dr   N2q  1 3.950000e-01    2.940000e+00
 TN4dr   N1q  1 3.950000e-01    2.700000e+00
 TN4dr   C6q  1 3.950000e-01    2.700000e+00
 TN4dr   C5q  1 3.950000e-01    2.500000e+00
 TN4dr   C4q  1 3.950000e-01    2.500000e+00
 TN4dr   C3q  1 3.950000e-01    2.310000e+00
 TN4dr   C2q  1 3.950000e-01    2.110000e+00
 TN4dr   C1q  1 3.950000e-01    1.850000e+00
 TN4dr   X4q  1 3.950000e-01    3.190000e+00
 TN4dr   X3q  1 3.950000e-01    2.940000e+00
 TN4dr   X2q  1 3.950000e-01    2.500000e+00
 TN4dr   X1q  1 3.950000e-01    2.310000e+00
 TP6dq  N4dr  1 3.950000e-01    2.500000e+00
 TP5dq  N4dr  1 3.950000e-01    2.700000e+00
 TP4dq  N4dr  1 3.950000e-01    2.700000e+00
 TP3dq  N4dr  1 3.950000e-01    2.700000e+00
 TP2dq  N4dr  1 3.950000e-01    2.700000e+00
 TP1dq  N4dr  1 3.950000e-01    2.940000e+00
 TN6dq  N4dr  1 3.950000e-01    3.190000e+00
 TN5dq  N4dr  1 3.950000e-01    2.940000e+00
 TN4dr  N4dq  1 3.950000e-01    2.940000e+00
 TN4dr  X1eq  1 3.950000e-01    2.500000e+00
 TN4dr  X2eq  1 3.950000e-01    2.700000e+00
 TN4dr  X3eq  1 3.950000e-01    3.190000e+00
 TN4dr  X4eq  1 3.950000e-01    3.430000e+00
 TN4dr  C1eq  1 3.950000e-01    2.110000e+00
 TN4dr  C2eq  1 3.950000e-01    2.310000e+00
 TN4dr  C3eq  1 3.950000e-01    2.500000e+00
 TN4dr  C4eq  1 3.950000e-01    2.700000e+00
 TN4dr  C5eq  1 3.950000e-01    2.700000e+00
 TN4dr  C6eq  1 3.950000e-01    2.940000e+00
 TN4dr  X1vq  1 3.950000e-01    2.110000e+00
 TN4dr  X2vq  1 3.950000e-01    2.310000e+00
 TN4dr  X3vq  1 3.950000e-01    2.700000e+00
 TN4dr  X4vq  1 3.950000e-01    2.940000e+00
 TN4dr  C1vq  1 3.950000e-01    1.670000e+00
 TN4dr  C2vq  1 3.950000e-01    1.850000e+00
 TN4dr  C3vq  1 3.950000e-01    2.110000e+00
 TN4dr  C4vq  1 3.950000e-01    2.310000e+00
 TN4dr  C5vq  1 3.950000e-01    2.310000e+00
 TN4dr  C6vq  1 3.950000e-01    2.500000e+00
 TN4dr  N1aq  1 3.950000e-01    2.940000e+00
 TN4dr  N2aq  1 3.950000e-01    3.190000e+00
 TN4dr  N3aq  1 3.950000e-01    3.190000e+00
 TN4dr  N4aq  1 3.950000e-01    3.430000e+00
 TN5aq  N4dr  1 3.950000e-01    3.430000e+00
 TN6aq  N4dr  1 3.950000e-01    3.670000e+00
 TP1aq  N4dr  1 3.950000e-01    3.430000e+00
 TP2aq  N4dr  1 3.950000e-01    3.190000e+00
 TP3aq  N4dr  1 3.950000e-01    3.190000e+00
 TP4aq  N4dr  1 3.950000e-01    3.190000e+00
 TP5aq  N4dr  1 3.950000e-01    3.190000e+00
 TP6aq  N4dr  1 3.950000e-01    2.940000e+00
 TN4dr  N1dq  1 3.950000e-01    2.500000e+00
 TN4dr  N2dq  1 3.950000e-01    2.700000e+00
 TN4dr  N3dq  1 3.950000e-01    2.700000e+00
  TN3d  N3dr  1 3.950000e-01    2.310000e+00
 TN3dr   N2d  1 3.950000e-01    2.310000e+00
 TN3dr   N1d  1 3.950000e-01    2.110000e+00
  TP6a  N3dr  1 3.950000e-01    2.110000e+00
  TP5a  N3dr  1 3.950000e-01    2.110000e+00
  TP4a  N3dr  1 3.950000e-01    2.500000e+00
  TP3a  N3dr  1 3.950000e-01    2.500000e+00
  TP2a  N3dr  1 3.950000e-01    2.500000e+00
  TP1a  N3dr  1 3.950000e-01    2.500000e+00
  TN6a  N3dr  1 3.950000e-01    2.700000e+00
  TN5a  N3dr  1 3.950000e-01    2.700000e+00
  TN4a  N3dr  1 3.950000e-01    2.700000e+00
 TN3dr   N3a  1 3.950000e-01    2.700000e+00
 TN3dr   N2a  1 3.950000e-01    2.700000e+00
 TN3dr   N1a  1 3.950000e-01    2.500000e+00
 TN3dr   C6e  1 3.950000e-01    2.500000e+00
 TN3dr   C5e  1 3.950000e-01    2.310000e+00
 TN3dr   C4e  1 3.950000e-01    2.310000e+00
 TN3dr   C3e  1 3.950000e-01    2.110000e+00
 TN3dr   C2e  1 3.950000e-01    2.110000e+00
 TN3dr   C1e  1 3.950000e-01    1.850000e+00
 TN3dr   X4e  1 3.950000e-01    2.700000e+00
 TN3dr   X3e  1 3.950000e-01    2.500000e+00
 TN3dr   X2e  1 3.950000e-01    2.310000e+00
 TN3dr   X1e  1 3.950000e-01    2.310000e+00
 TN3dr   C6v  1 3.950000e-01    2.110000e+00
 TN3dr   C5v  1 3.950000e-01    1.850000e+00
 TN3dr   C4v  1 3.950000e-01    1.850000e+00
 TN3dr   C3v  1 3.950000e-01    1.670000e+00
 TN3dr   C2v  1 3.950000e-01    1.670000e+00
 TN3dr   C1v  1 3.980000e-01    1.450000e+00
 TN3dr   X4v  1 3.950000e-01    2.310000e+00
 TN3dr   X3v  1 3.950000e-01    2.110000e+00
 TN3dr   X2v  1 3.950000e-01    1.850000e+00
 TN3dr   X1v  1 3.950000e-01    1.850000e+00
  TP6q  N3dr  1 3.950000e-01    2.500000e+00
  TP5q  N3dr  1 3.950000e-01    2.500000e+00
  TP4q  N3dr  1 3.950000e-01    2.700000e+00
  TP3q  N3dr  1 3.950000e-01    2.700000e+00
  TP2q  N3dr  1 3.950000e-01    2.700000e+00
  TP1q  N3dr  1 3.950000e-01    2.700000e+00
  TN6q  N3dr  1 3.950000e-01    2.940000e+00
  TN5q  N3dr  1 3.950000e-01    2.940000e+00
  TN4q  N3dr  1 3.950000e-01    2.940000e+00
  TN3q  N3dr  1 3.950000e-01    2.940000e+00
 TN3dr   N2q  1 3.950000e-01    2.940000e+00
 TN3dr   N1q  1 3.950000e-01    2.700000e+00
 TN3dr   C6q  1 3.950000e-01    2.700000e+00
 TN3dr   C5q  1 3.950000e-01    2.500000e+00
 TN3dr   C4q  1 3.950000e-01    2.500000e+00
 TN3dr   C3q  1 3.950000e-01    2.310000e+00
 TN3dr   C2q  1 3.950000e-01    2.310000e+00
 TN3dr   C1q  1 3.950000e-01    2.110000e+00
 TN3dr   X4q  1 3.950000e-01    2.940000e+00
 TN3dr   X3q  1 3.950000e-01    2.700000e+00
 TN3dr   X2q  1 3.950000e-01    2.500000e+00
 TN3dr   X1q  1 3.950000e-01    2.500000e+00
 TP6dq  N3dr  1 3.950000e-01    2.500000e+00
 TP5dq  N3dr  1 3.950000e-01    2.500000e+00
 TP4dq  N3dr  1 3.950000e-01    2.500000e+00
 TP3dq  N3dr  1 3.950000e-01    2.500000e+00
 TP2dq  N3dr  1 3.950000e-01    2.500000e+00
 TP1dq  N3dr  1 3.950000e-01    2.500000e+00
 TN6dq  N3dr  1 3.950000e-01    2.700000e+00
 TN5dq  N3dr  1 3.950000e-01    2.700000e+00
 TN4dq  N3dr  1 3.950000e-01    2.700000e+00
 TN3dr  N3dq  1 3.950000e-01    2.700000e+00
 TN3dr  X1eq  1 3.950000e-01    2.700000e+00
 TN3dr  X2eq  1 3.950000e-01    2.700000e+00
 TN3dr  X3eq  1 3.950000e-01    2.940000e+00
 TN3dr  X4eq  1 3.950000e-01    3.190000e+00
 TN3dr  C1eq  1 3.950000e-01    2.310000e+00
 TN3dr  C2eq  1 3.950000e-01    2.500000e+00
 TN3dr  C3eq  1 3.950000e-01    2.500000e+00
 TN3dr  C4eq  1 3.950000e-01    2.700000e+00
 TN3dr  C5eq  1 3.950000e-01    2.700000e+00
 TN3dr  C6eq  1 3.950000e-01    2.940000e+00
 TN3dr  X1vq  1 3.950000e-01    2.310000e+00
 TN3dr  X2vq  1 3.950000e-01    2.310000e+00
 TN3dr  X3vq  1 3.950000e-01    2.500000e+00
 TN3dr  X4vq  1 3.950000e-01    2.700000e+00
 TN3dr  C1vq  1 3.950000e-01    1.850000e+00
 TN3dr  C2vq  1 3.950000e-01    2.110000e+00
 TN3dr  C3vq  1 3.950000e-01    2.110000e+00
 TN3dr  C4vq  1 3.950000e-01    2.310000e+00
 TN3dr  C5vq  1 3.950000e-01    2.310000e+00
 TN3dr  C6vq  1 3.950000e-01    2.500000e+00
 TN3dr  N1aq  1 3.950000e-01    2.940000e+00
 TN3dr  N2aq  1 3.950000e-01    3.190000e+00
 TN3dr  N3aq  1 3.950000e-01    3.190000e+00
 TN4aq  N3dr  1 3.950000e-01    3.190000e+00
 TN5aq  N3dr  1 3.950000e-01    3.190000e+00
 TN6aq  N3dr  1 3.950000e-01    3.190000e+00
 TP1aq  N3dr  1 3.950000e-01    2.940000e+00
 TP2aq  N3dr  1 3.950000e-01    2.940000e+00
 TP3aq  N3dr  1 3.950000e-01    2.940000e+00
 TP4aq  N3dr  1 3.950000e-01    2.940000e+00
 TP5aq  N3dr  1 3.950000e-01    2.500000e+00
 TP6aq  N3dr  1 3.950000e-01    2.500000e+00
 TN3dr  N1dq  1 3.950000e-01    2.500000e+00
 TN3dr  N2dq  1 3.950000e-01    2.700000e+00
  TN2d  N2dr  1 3.950000e-01    2.310000e+00
 TN2dr   N1d  1 3.950000e-01    2.110000e+00
  TP6a  N2dr  1 3.950000e-01    1.850000e+00
  TP5a  N2dr  1 3.950000e-01    1.850000e+00
  TP4a  N2dr  1 3.950000e-01    2.110000e+00
  TP3a  N2dr  1 3.950000e-01    2.500000e+00
  TP2a  N2dr  1 3.950000e-01    2.500000e+00
  TP1a  N2dr  1 3.950000e-01    2.500000e+00
  TN6a  N2dr  1 3.950000e-01    2.500000e+00
  TN5a  N2dr  1 3.950000e-01    2.700000e+00
  TN4a  N2dr  1 3.950000e-01    2.700000e+00
  TN3a  N2dr  1 3.950000e-01    2.700000e+00
 TN2dr   N2a  1 3.950000e-01    2.700000e+00
 TN2dr   N1a  1 3.950000e-01    2.500000e+00
 TN2dr   C6e  1 3.950000e-01    2.500000e+00
 TN2dr   C5e  1 3.950000e-01    2.310000e+00
 TN2dr   C4e  1 3.950000e-01    2.310000e+00
 TN2dr   C3e  1 3.950000e-01    2.310000e+00
 TN2dr   C2e  1 3.950000e-01    2.110000e+00
 TN2dr   C1e  1 3.950000e-01    1.850000e+00
 TN2dr   X4e  1 3.950000e-01    2.700000e+00
 TN2dr   X3e  1 3.950000e-01    2.500000e+00
 TN2dr   X2e  1 3.950000e-01    2.310000e+00
 TN2dr   X1e  1 3.950000e-01    2.310000e+00
 TN2dr   C6v  1 3.950000e-01    2.110000e+00
 TN2dr   C5v  1 3.950000e-01    1.850000e+00
 TN2dr   C4v  1 3.950000e-01    1.850000e+00
 TN2dr   C3v  1 3.950000e-01    1.850000e+00
 TN2dr   C2v  1 3.950000e-01    1.670000e+00
 TN2dr   C1v  1 3.980000e-01    1.450000e+00
 TN2dr   X4v  1 3.950000e-01    2.310000e+00
 TN2dr   X3v  1 3.950000e-01    2.110000e+00
 TN2dr   X2v  1 3.950000e-01    1.850000e+00
 TN2dr   X1v  1 3.950000e-01    1.850000e+00
  TP6q  N2dr  1 3.950000e-01    2.310000e+00
  TP5q  N2dr  1 3.950000e-01    2.310000e+00
  TP4q  N2dr  1 3.950000e-01    2.500000e+00
  TP3q  N2dr  1 3.950000e-01    2.700000e+00
  TP2q  N2dr  1 3.950000e-01    2.700000e+00
  TP1q  N2dr  1 3.950000e-01    2.700000e+00
  TN6q  N2dr  1 3.950000e-01    2.700000e+00
  TN5q  N2dr  1 3.950000e-01    2.940000e+00
  TN4q  N2dr  1 3.950000e-01    2.940000e+00
  TN3q  N2dr  1 3.950000e-01    2.940000e+00
  TN2q  N2dr  1 3.950000e-01    2.940000e+00
 TN2dr   N1q  1 3.950000e-01    2.700000e+00
 TN2dr   C6q  1 3.950000e-01    2.700000e+00
 TN2dr   C5q  1 3.950000e-01    2.500000e+00
 TN2dr   C4q  1 3.950000e-01    2.500000e+00
 TN2dr   C3q  1 3.950000e-01    2.500000e+00
 TN2dr   C2q  1 3.950000e-01    2.310000e+00
 TN2dr   C1q  1 3.950000e-01    2.110000e+00
 TN2dr   X4q  1 3.950000e-01    2.940000e+00
 TN2dr   X3q  1 3.950000e-01    2.700000e+00
 TN2dr   X2q  1 3.950000e-01    2.500000e+00
 TN2dr   X1q  1 3.950000e-01    2.500000e+00
 TP6dq  N2dr  1 3.950000e-01    2.310000e+00
 TP5dq  N2dr  1 3.950000e-01    2.310000e+00
 TP4dq  N2dr  1 3.950000e-01    2.500000e+00
 TP3dq  N2dr  1 3.950000e-01    2.500000e+00
 TP2dq  N2dr  1 3.950000e-01    2.500000e+00
 TP1dq  N2dr  1 3.950000e-01    2.500000e+00
 TN6dq  N2dr  1 3.950000e-01    2.500000e+00
 TN5dq  N2dr  1 3.950000e-01    2.700000e+00
 TN4dq  N2dr  1 3.950000e-01    2.700000e+00
 TN3dq  N2dr  1 3.950000e-01    2.700000e+00
 TN2dr  N2dq  1 3.950000e-01    2.700000e+00
 TN2dr  X1eq  1 3.950000e-01    2.700000e+00
 TN2dr  X2eq  1 3.950000e-01    2.700000e+00
 TN2dr  X3eq  1 3.950000e-01    2.940000e+00
 TN2dr  X4eq  1 3.950000e-01    3.190000e+00
 TN2dr  C1eq  1 3.950000e-01    2.310000e+00
 TN2dr  C2eq  1 3.950000e-01    2.500000e+00
 TN2dr  C3eq  1 3.950000e-01    2.700000e+00
 TN2dr  C4eq  1 3.950000e-01    2.700000e+00
 TN2dr  C5eq  1 3.950000e-01    2.700000e+00
 TN2dr  C6eq  1 3.950000e-01    2.940000e+00
 TN2dr  X1vq  1 3.950000e-01    2.310000e+00
 TN2dr  X2vq  1 3.950000e-01    2.310000e+00
 TN2dr  X3vq  1 3.950000e-01    2.500000e+00
 TN2dr  X4vq  1 3.950000e-01    2.700000e+00
 TN2dr  C1vq  1 3.950000e-01    1.850000e+00
 TN2dr  C2vq  1 3.950000e-01    2.110000e+00
 TN2dr  C3vq  1 3.950000e-01    2.310000e+00
 TN2dr  C4vq  1 3.950000e-01    2.310000e+00
 TN2dr  C5vq  1 3.950000e-01    2.310000e+00
 TN2dr  C6vq  1 3.950000e-01    2.500000e+00
 TN2dr  N1aq  1 3.950000e-01    2.940000e+00
 TN2dr  N2aq  1 3.950000e-01    3.190000e+00
 TN3aq  N2dr  1 3.950000e-01    3.190000e+00
 TN4aq  N2dr  1 3.950000e-01    3.190000e+00
 TN5aq  N2dr  1 3.950000e-01    3.190000e+00
 TN6aq  N2dr  1 3.950000e-01    2.940000e+00
 TP1aq  N2dr  1 3.950000e-01    2.940000e+00
 TP2aq  N2dr  1 3.950000e-01    2.940000e+00
 TP3aq  N2dr  1 3.950000e-01    2.940000e+00
 TP4aq  N2dr  1 3.950000e-01    2.500000e+00
 TP5aq  N2dr  1 3.950000e-01    2.310000e+00
 TP6aq  N2dr  1 3.950000e-01    2.310000e+00
 TN2dr  N1dq  1 3.950000e-01    2.500000e+00
  TN1d  N1dr  1 3.950000e-01    2.310000e+00
  TP6a  N1dr  1 3.950000e-01    1.670000e+00
  TP5a  N1dr  1 3.950000e-01    1.670000e+00
  TP4a  N1dr  1 3.950000e-01    1.850000e+00
  TP3a  N1dr  1 3.950000e-01    2.110000e+00
  TP2a  N1dr  1 3.950000e-01    2.500000e+00
  TP1a  N1dr  1 3.950000e-01    2.500000e+00
  TN6a  N1dr  1 3.950000e-01    2.500000e+00
  TN5a  N1dr  1 3.950000e-01    2.500000e+00
  TN4a  N1dr  1 3.950000e-01    2.500000e+00
  TN3a  N1dr  1 3.950000e-01    2.500000e+00
  TN2a  N1dr  1 3.950000e-01    2.500000e+00
 TN1dr   N1a  1 3.950000e-01    2.700000e+00
 TN1dr   C6e  1 3.950000e-01    2.700000e+00
 TN1dr   C5e  1 3.950000e-01    2.500000e+00
 TN1dr   C4e  1 3.950000e-01    2.500000e+00
 TN1dr   C3e  1 3.950000e-01    2.310000e+00
 TN1dr   C2e  1 3.950000e-01    2.110000e+00
 TN1dr   C1e  1 3.950000e-01    1.850000e+00
 TN1dr   X4e  1 3.950000e-01    2.500000e+00
 TN1dr   X3e  1 3.950000e-01    2.500000e+00
 TN1dr   X2e  1 3.950000e-01    2.310000e+00
 TN1dr   X1e  1 3.950000e-01    2.310000e+00
 TN1dr   C6v  1 3.950000e-01    2.310000e+00
 TN1dr   C5v  1 3.950000e-01    2.110000e+00
 TN1dr   C4v  1 3.950000e-01    2.110000e+00
 TN1dr   C3v  1 3.950000e-01    1.850000e+00
 TN1dr   C2v  1 3.950000e-01    1.670000e+00
 TN1dr   C1v  1 3.980000e-01    1.450000e+00
 TN1dr   X4v  1 3.950000e-01    2.110000e+00
 TN1dr   X3v  1 3.950000e-01    2.110000e+00
 TN1dr   X2v  1 3.950000e-01    1.850000e+00
 TN1dr   X1v  1 3.950000e-01    1.850000e+00
  TP6q  N1dr  1 3.950000e-01    2.110000e+00
  TP5q  N1dr  1 3.950000e-01    2.110000e+00
  TP4q  N1dr  1 3.950000e-01    2.310000e+00
  TP3q  N1dr  1 3.950000e-01    2.500000e+00
  TP2q  N1dr  1 3.950000e-01    2.700000e+00
  TP1q  N1dr  1 3.950000e-01    2.700000e+00
  TN6q  N1dr  1 3.950000e-01    2.700000e+00
  TN5q  N1dr  1 3.950000e-01    2.700000e+00
  TN4q  N1dr  1 3.950000e-01    2.700000e+00
  TN3q  N1dr  1 3.950000e-01    2.700000e+00
  TN2q  N1dr  1 3.950000e-01    2.700000e+00
  TN1q  N1dr  1 3.950000e-01    2.940000e+00
 TN1dr   C6q  1 3.950000e-01    2.940000e+00
 TN1dr   C5q  1 3.950000e-01    2.700000e+00
 TN1dr   C4q  1 3.950000e-01    2.700000e+00
 TN1dr   C3q  1 3.950000e-01    2.500000e+00
 TN1dr   C2q  1 3.950000e-01    2.310000e+00
 TN1dr   C1q  1 3.950000e-01    2.110000e+00
 TN1dr   X4q  1 3.950000e-01    2.700000e+00
 TN1dr   X3q  1 3.950000e-01    2.700000e+00
 TN1dr   X2q  1 3.950000e-01    2.500000e+00
 TN1dr   X1q  1 3.950000e-01    2.500000e+00
 TP6dq  N1dr  1 3.950000e-01    2.110000e+00
 TP5dq  N1dr  1 3.950000e-01    2.110000e+00
 TP4dq  N1dr  1 3.950000e-01    2.310000e+00
 TP3dq  N1dr  1 3.950000e-01    2.500000e+00
 TP2dq  N1dr  1 3.950000e-01    2.500000e+00
 TP1dq  N1dr  1 3.950000e-01    2.500000e+00
 TN6dq  N1dr  1 3.950000e-01    2.500000e+00
 TN5dq  N1dr  1 3.950000e-01    2.500000e+00
 TN4dq  N1dr  1 3.950000e-01    2.500000e+00
 TN3dq  N1dr  1 3.950000e-01    2.500000e+00
 TN2dq  N1dr  1 3.950000e-01    2.500000e+00
 TN1dr  N1dq  1 3.950000e-01    2.700000e+00
 TN1dr  X1eq  1 3.950000e-01    2.700000e+00
 TN1dr  X2eq  1 3.950000e-01    2.700000e+00
 TN1dr  X3eq  1 3.950000e-01    2.940000e+00
 TN1dr  X4eq  1 3.950000e-01    2.940000e+00
 TN1dr  C1eq  1 3.950000e-01    2.310000e+00
 TN1dr  C2eq  1 3.950000e-01    2.500000e+00
 TN1dr  C3eq  1 3.950000e-01    2.700000e+00
 TN1dr  C4eq  1 3.950000e-01    2.940000e+00
 TN1dr  C5eq  1 3.950000e-01    2.940000e+00
 TN1dr  C6eq  1 3.950000e-01    3.190000e+00
 TN1dr  X1vq  1 3.950000e-01    2.310000e+00
 TN1dr  X2vq  1 3.950000e-01    2.310000e+00
 TN1dr  X3vq  1 3.950000e-01    2.500000e+00
 TN1dr  X4vq  1 3.950000e-01    2.500000e+00
 TN1dr  C1vq  1 3.950000e-01    1.850000e+00
 TN1dr  C2vq  1 3.950000e-01    2.110000e+00
 TN1dr  C3vq  1 3.950000e-01    2.310000e+00
 TN1dr  C4vq  1 3.950000e-01    2.500000e+00
 TN1dr  C5vq  1 3.950000e-01    2.500000e+00
 TN1dr  C6vq  1 3.950000e-01    2.700000e+00
 TN1dr  N1aq  1 3.950000e-01    3.190000e+00
 TN2aq  N1dr  1 3.950000e-01    2.940000e+00
 TN3aq  N1dr  1 3.950000e-01    2.940000e+00
 TN4aq  N1dr  1 3.950000e-01    2.940000e+00
 TN5aq  N1dr  1 3.950000e-01    2.940000e+00
 TN6aq  N1dr  1 3.950000e-01    2.940000e+00
 TP1aq  N1dr  1 3.950000e-01    2.940000e+00
 TP2aq  N1dr  1 3.950000e-01    2.940000e+00
 TP3aq  N1dr  1 3.950000e-01    2.500000e+00
 TP4aq  N1dr  1 3.950000e-01    2.310000e+00
 TP5aq  N1dr  1 3.950000e-01    2.110000e+00
 TP6aq  N1dr  1 3.950000e-01    2.110000e+00
  TP6a  P6ar  1 3.950000e-01    3.910000e+00
 TP6ar   P5a  1 3.950000e-01    3.670000e+00
 TP6ar   P4a  1 3.950000e-01    3.430000e+00
 TP6ar   P3a  1 3.950000e-01    3.190000e+00
 TP6ar   P2a  1 3.950000e-01    3.190000e+00
 TP6ar   P1a  1 3.950000e-01    2.940000e+00
 TP6ar   N6a  1 3.950000e-01    2.700000e+00
 TP6ar   N5a  1 3.950000e-01    2.310000e+00
 TP6ar   N4a  1 3.950000e-01    2.110000e+00
 TP6ar   N3a  1 3.950000e-01    2.110000e+00
 TP6ar   N2a  1 3.950000e-01    1.850000e+00
 TP6ar   N1a  1 3.950000e-01    1.670000e+00
 TP6ar   C6v  1 3.950000e-01    1.850000e+00
 TP6ar   C5v  1 3.950000e-01    1.670000e+00
 TP6ar   C4v  1 3.980000e-01    1.450000e+00
 TP6ar   C3v  1 3.990000e-01    1.180000e+00
 TP6ar   C2v  1 3.990000e-01    1.180000e+00
 TP6ar   C1v  1 4.040000e-01    8.300000e-01
 TP6ar   X4v  1 3.950000e-01    2.110000e+00
 TP6ar   X3v  1 3.950000e-01    2.110000e+00
 TP6ar   X2v  1 3.950000e-01    1.850000e+00
 TP6ar   X1v  1 3.950000e-01    1.670000e+00
 TP6ar   C6e  1 3.980000e-01    1.450000e+00
 TP6ar   C5e  1 3.990000e-01    1.180000e+00
 TP6ar   C4e  1 4.010000e-01    9.830000e-01
 TP6ar   C3e  1 4.040000e-01    8.300000e-01
 TP6ar   C2e  1 4.040000e-01    8.300000e-01
 TP6ar   C1e  1 5.110000e-01    6.590000e-01
 TP6ar   X4e  1 3.950000e-01    1.670000e+00
 TP6ar   X3e  1 3.950000e-01    1.670000e+00
 TP6ar   X2e  1 3.980000e-01    1.450000e+00
 TP6ar   X1e  1 3.990000e-01    1.180000e+00
  TP6q  P6ar  1 3.950000e-01    4.870000e+00
 TP6ar   P5q  1 3.950000e-01    4.540000e+00
 TP6ar   P4q  1 3.950000e-01    4.230000e+00
 TP6ar   P3q  1 3.950000e-01    3.910000e+00
 TP6ar   P2q  1 3.950000e-01    3.910000e+00
 TP6ar   P1q  1 3.950000e-01    3.670000e+00
 TP6ar   N6q  1 3.950000e-01    3.430000e+00
 TP6ar   N5q  1 3.950000e-01    2.940000e+00
 TP6ar   N4q  1 3.950000e-01    2.700000e+00
 TP6ar   N3q  1 3.950000e-01    2.500000e+00
 TP6ar   N2q  1 3.950000e-01    2.310000e+00
 TP6ar   N1q  1 3.950000e-01    2.110000e+00
 TP6ar   C6q  1 3.950000e-01    2.110000e+00
 TP6ar   C5q  1 3.950000e-01    1.850000e+00
 TP6ar   C4q  1 3.950000e-01    1.670000e+00
 TP6ar   C3q  1 3.980000e-01    1.450000e+00
 TP6ar   C2q  1 3.980000e-01    1.450000e+00
 TP6ar   C1q  1 4.010000e-01    9.830000e-01
 TP6ar   X4q  1 3.950000e-01    2.310000e+00
 TP6ar   X3q  1 3.950000e-01    2.310000e+00
 TP6ar   X2q  1 3.950000e-01    2.110000e+00
 TP6ar   X1q  1 3.950000e-01    1.850000e+00
 TP6dq  P6ar  1 3.950000e-01    5.270000e+00
 TP6ar  P5dq  1 3.950000e-01    4.870000e+00
 TP6ar  P4dq  1 3.950000e-01    4.540000e+00
 TP6ar  P3dq  1 3.950000e-01    4.230000e+00
 TP6ar  P2dq  1 3.950000e-01    4.230000e+00
 TP6ar  P1dq  1 3.950000e-01    3.910000e+00
 TP6ar  N6dq  1 3.950000e-01    3.670000e+00
 TP6ar  N5dq  1 3.950000e-01    3.190000e+00
 TP6ar  N4dq  1 3.950000e-01    2.940000e+00
 TP6ar  N3dq  1 3.950000e-01    2.500000e+00
 TP6ar  N2dq  1 3.950000e-01    2.310000e+00
 TP6ar  N1dq  1 3.950000e-01    2.110000e+00
 TP6ar  P6aq  1 3.950000e-01    4.540000e+00
 TP6ar  X1eq  1 3.950000e-01    1.670000e+00
 TP6ar  X2eq  1 3.950000e-01    1.850000e+00
 TP6ar  X3eq  1 3.950000e-01    2.110000e+00
 TP6ar  X4eq  1 3.950000e-01    2.110000e+00
 TP6ar  C1eq  1 4.040000e-01    8.300000e-01
 TP6ar  C2eq  1 3.990000e-01    1.180000e+00
 TP6ar  C3eq  1 3.990000e-01    1.180000e+00
 TP6ar  C4eq  1 3.980000e-01    1.450000e+00
 TP6ar  C5eq  1 3.950000e-01    1.670000e+00
 TP6ar  C6eq  1 3.950000e-01    1.850000e+00
 TP6ar  X1vq  1 3.950000e-01    2.110000e+00
 TP6ar  X2vq  1 3.950000e-01    2.310000e+00
 TP6ar  X3vq  1 3.950000e-01    2.500000e+00
 TP6ar  X4vq  1 3.950000e-01    2.500000e+00
 TP6ar  C1vq  1 3.990000e-01    1.180000e+00
 TP6ar  C2vq  1 3.950000e-01    1.670000e+00
 TP6ar  C3vq  1 3.950000e-01    1.670000e+00
 TP6ar  C4vq  1 3.950000e-01    1.850000e+00
 TP6ar  C5vq  1 3.950000e-01    2.110000e+00
 TP6ar  C6vq  1 3.950000e-01    2.310000e+00
 TP6ar  N1aq  1 3.950000e-01    2.110000e+00
 TP6ar  N2aq  1 3.950000e-01    2.310000e+00
 TP6ar  N3aq  1 3.950000e-01    2.500000e+00
 TP6ar  N4aq  1 3.950000e-01    2.500000e+00
 TP6ar  N5aq  1 3.950000e-01    2.700000e+00
 TP6ar  N6aq  1 3.950000e-01    3.190000e+00
 TP6ar  P1aq  1 3.950000e-01    3.430000e+00
 TP6ar  P2aq  1 3.950000e-01    3.670000e+00
 TP6ar  P3aq  1 3.950000e-01    3.670000e+00
 TP6ar  P4aq  1 3.950000e-01    3.910000e+00
 TP6ar  P5aq  1 3.950000e-01    4.230000e+00
  TP5a  P5ar  1 3.950000e-01    3.430000e+00
 TP5ar   P4a  1 3.950000e-01    3.190000e+00
 TP5ar   P3a  1 3.950000e-01    2.940000e+00
 TP5ar   P2a  1 3.950000e-01    2.940000e+00
 TP5ar   P1a  1 3.950000e-01    2.700000e+00
 TP5ar   N6a  1 3.950000e-01    2.500000e+00
 TP5ar   N5a  1 3.950000e-01    2.310000e+00
 TP5ar   N4a  1 3.950000e-01    2.310000e+00
 TP5ar   N3a  1 3.950000e-01    2.110000e+00
 TP5ar   N2a  1 3.950000e-01    1.850000e+00
 TP5ar   N1a  1 3.950000e-01    1.670000e+00
 TP5ar   C6v  1 3.950000e-01    1.850000e+00
 TP5ar   C5v  1 3.950000e-01    1.850000e+00
 TP5ar   C4v  1 3.950000e-01    1.670000e+00
 TP5ar   C3v  1 3.980000e-01    1.450000e+00
 TP5ar   C2v  1 3.980000e-01    1.450000e+00
 TP5ar   C1v  1 3.990000e-01    1.180000e+00
 TP5ar   X4v  1 3.950000e-01    2.310000e+00
 TP5ar   X3v  1 3.950000e-01    2.110000e+00
 TP5ar   X2v  1 3.950000e-01    2.110000e+00
 TP5ar   X1v  1 3.950000e-01    1.670000e+00
 TP5ar   C6e  1 3.980000e-01    1.450000e+00
 TP5ar   C5e  1 3.980000e-01    1.450000e+00
 TP5ar   C4e  1 3.990000e-01    1.180000e+00
 TP5ar   C3e  1 4.010000e-01    9.830000e-01
 TP5ar   C2e  1 4.010000e-01    9.830000e-01
 TP5ar   C1e  1 4.040000e-01    8.300000e-01
 TP5ar   X4e  1 3.950000e-01    1.850000e+00
 TP5ar   X3e  1 3.950000e-01    1.670000e+00
 TP5ar   X2e  1 3.950000e-01    1.670000e+00
 TP5ar   X1e  1 3.990000e-01    1.180000e+00
  TP6q  P5ar  1 3.950000e-01    4.540000e+00
  TP5q  P5ar  1 3.950000e-01    4.230000e+00
 TP5ar   P4q  1 3.950000e-01    3.910000e+00
 TP5ar   P3q  1 3.950000e-01    3.670000e+00
 TP5ar   P2q  1 3.950000e-01    3.670000e+00
 TP5ar   P1q  1 3.950000e-01    3.430000e+00
 TP5ar   N6q  1 3.950000e-01    3.190000e+00
 TP5ar   N5q  1 3.950000e-01    2.940000e+00
 TP5ar   N4q  1 3.950000e-01    2.940000e+00
 TP5ar   N3q  1 3.950000e-01    2.500000e+00
 TP5ar   N2q  1 3.950000e-01    2.310000e+00
 TP5ar   N1q  1 3.950000e-01    2.110000e+00
 TP5ar   C6q  1 3.950000e-01    2.110000e+00
 TP5ar   C5q  1 3.950000e-01    2.110000e+00
 TP5ar   C4q  1 3.950000e-01    1.850000e+00
 TP5ar   C3q  1 3.950000e-01    1.670000e+00
 TP5ar   C2q  1 3.950000e-01    1.670000e+00
 TP5ar   C1q  1 3.980000e-01    1.450000e+00
 TP5ar   X4q  1 3.950000e-01    2.500000e+00
 TP5ar   X3q  1 3.950000e-01    2.310000e+00
 TP5ar   X2q  1 3.950000e-01    2.310000e+00
 TP5ar   X1q  1 3.950000e-01    1.850000e+00
 TP6dq  P5ar  1 3.950000e-01    4.870000e+00
 TP5dq  P5ar  1 3.950000e-01    4.540000e+00
 TP5ar  P4dq  1 3.950000e-01    4.230000e+00
 TP5ar  P3dq  1 3.950000e-01    3.910000e+00
 TP5ar  P2dq  1 3.950000e-01    3.910000e+00
 TP5ar  P1dq  1 3.950000e-01    3.670000e+00
 TP5ar  N6dq  1 3.950000e-01    3.430000e+00
 TP5ar  N5dq  1 3.950000e-01    3.190000e+00
 TP5ar  N4dq  1 3.950000e-01    3.190000e+00
 TP5ar  N3dq  1 3.950000e-01    2.500000e+00
 TP5ar  N2dq  1 3.950000e-01    2.310000e+00
 TP5ar  N1dq  1 3.950000e-01    2.110000e+00
 TP6aq  P5ar  1 3.950000e-01    4.230000e+00
 TP5ar  P5aq  1 3.950000e-01    3.910000e+00
 TP5ar  X1eq  1 3.950000e-01    1.670000e+00
 TP5ar  X2eq  1 3.950000e-01    2.110000e+00
 TP5ar  X3eq  1 3.950000e-01    2.110000e+00
 TP5ar  X4eq  1 3.950000e-01    2.310000e+00
 TP5ar  C1eq  1 3.990000e-01    1.180000e+00
 TP5ar  C2eq  1 3.980000e-01    1.450000e+00
 TP5ar  C3eq  1 3.980000e-01    1.450000e+00
 TP5ar  C4eq  1 3.950000e-01    1.670000e+00
 TP5ar  C5eq  1 3.950000e-01    1.850000e+00
 TP5ar  C6eq  1 3.950000e-01    1.850000e+00
 TP5ar  X1vq  1 3.950000e-01    2.110000e+00
 TP5ar  X2vq  1 3.950000e-01    2.500000e+00
 TP5ar  X3vq  1 3.950000e-01    2.500000e+00
 TP5ar  X4vq  1 3.950000e-01    2.700000e+00
 TP5ar  C1vq  1 3.950000e-01    1.670000e+00
 TP5ar  C2vq  1 3.950000e-01    1.850000e+00
 TP5ar  C3vq  1 3.950000e-01    1.850000e+00
 TP5ar  C4vq  1 3.950000e-01    2.110000e+00
 TP5ar  C5vq  1 3.950000e-01    2.310000e+00
 TP5ar  C6vq  1 3.950000e-01    2.310000e+00
 TP5ar  N1aq  1 3.950000e-01    2.110000e+00
 TP5ar  N2aq  1 3.950000e-01    2.310000e+00
 TP5ar  N3aq  1 3.950000e-01    2.500000e+00
 TP5ar  N4aq  1 3.950000e-01    2.700000e+00
 TP5ar  N5aq  1 3.950000e-01    2.700000e+00
 TP5ar  N6aq  1 3.950000e-01    2.940000e+00
 TP5ar  P1aq  1 3.950000e-01    3.190000e+00
 TP5ar  P2aq  1 3.950000e-01    3.430000e+00
 TP5ar  P3aq  1 3.950000e-01    3.430000e+00
 TP5ar  P4aq  1 3.950000e-01    3.670000e+00
  TP4a  P4ar  1 3.950000e-01    3.190000e+00
 TP4ar   P3a  1 3.950000e-01    2.940000e+00
 TP4ar   P2a  1 3.950000e-01    2.940000e+00
 TP4ar   P1a  1 3.950000e-01    2.700000e+00
 TP4ar   N6a  1 3.950000e-01    2.500000e+00
 TP4ar   N5a  1 3.950000e-01    2.310000e+00
 TP4ar   N4a  1 3.950000e-01    2.310000e+00
 TP4ar   N3a  1 3.950000e-01    2.110000e+00
 TP4ar   N2a  1 3.950000e-01    2.110000e+00
 TP4ar   N1a  1 3.950000e-01    1.850000e+00
 TP4ar   C6v  1 3.950000e-01    2.110000e+00
 TP4ar   C5v  1 3.950000e-01    1.850000e+00
 TP4ar   C4v  1 3.950000e-01    1.670000e+00
 TP4ar   C3v  1 3.980000e-01    1.450000e+00
 TP4ar   C2v  1 3.980000e-01    1.450000e+00
 TP4ar   C1v  1 3.990000e-01    1.180000e+00
 TP4ar   X4v  1 3.950000e-01    2.310000e+00
 TP4ar   X3v  1 3.950000e-01    2.110000e+00
 TP4ar   X2v  1 3.950000e-01    2.110000e+00
 TP4ar   X1v  1 3.950000e-01    1.850000e+00
 TP4ar   C6e  1 3.950000e-01    1.670000e+00
 TP4ar   C5e  1 3.980000e-01    1.450000e+00
 TP4ar   C4e  1 3.990000e-01    1.180000e+00
 TP4ar   C3e  1 4.010000e-01    9.830000e-01
 TP4ar   C2e  1 4.010000e-01    9.830000e-01
 TP4ar   C1e  1 4.040000e-01    8.300000e-01
 TP4ar   X4e  1 3.950000e-01    1.850000e+00
 TP4ar   X3e  1 3.950000e-01    1.670000e+00
 TP4ar   X2e  1 3.950000e-01    1.670000e+00
 TP4ar   X1e  1 3.980000e-01    1.450000e+00
  TP6q  P4ar  1 3.950000e-01    4.230000e+00
  TP5q  P4ar  1 3.950000e-01    3.910000e+00
  TP4q  P4ar  1 3.950000e-01    3.910000e+00
 TP4ar   P3q  1 3.950000e-01    3.670000e+00
 TP4ar   P2q  1 3.950000e-01    3.670000e+00
 TP4ar   P1q  1 3.950000e-01    3.430000e+00
 TP4ar   N6q  1 3.950000e-01    3.190000e+00
 TP4ar   N5q  1 3.950000e-01    2.940000e+00
 TP4ar   N4q  1 3.950000e-01    2.940000e+00
 TP4ar   N3q  1 3.950000e-01    2.700000e+00
 TP4ar   N2q  1 3.950000e-01    2.500000e+00
 TP4ar   N1q  1 3.950000e-01    2.310000e+00
 TP4ar   C6q  1 3.950000e-01    2.310000e+00
 TP4ar   C5q  1 3.950000e-01    2.110000e+00
 TP4ar   C4q  1 3.950000e-01    1.850000e+00
 TP4ar   C3q  1 3.950000e-01    1.670000e+00
 TP4ar   C2q  1 3.950000e-01    1.670000e+00
 TP4ar   C1q  1 3.980000e-01    1.450000e+00
 TP4ar   X4q  1 3.950000e-01    2.500000e+00
 TP4ar   X3q  1 3.950000e-01    2.310000e+00
 TP4ar   X2q  1 3.950000e-01    2.310000e+00
 TP4ar   X1q  1 3.950000e-01    2.110000e+00
 TP6dq  P4ar  1 3.950000e-01    4.540000e+00
 TP5dq  P4ar  1 3.950000e-01    4.230000e+00
 TP4dq  P4ar  1 3.950000e-01    4.230000e+00
 TP4ar  P3dq  1 3.950000e-01    3.910000e+00
 TP4ar  P2dq  1 3.950000e-01    3.910000e+00
 TP4ar  P1dq  1 3.950000e-01    3.670000e+00
 TP4ar  N6dq  1 3.950000e-01    3.430000e+00
 TP4ar  N5dq  1 3.950000e-01    3.190000e+00
 TP4ar  N4dq  1 3.950000e-01    3.190000e+00
 TP4ar  N3dq  1 3.950000e-01    2.940000e+00
 TP4ar  N2dq  1 3.950000e-01    2.500000e+00
 TP4ar  N1dq  1 3.950000e-01    2.310000e+00
 TP6aq  P4ar  1 3.950000e-01    3.910000e+00
 TP5aq  P4ar  1 3.950000e-01    3.670000e+00
 TP4ar  P4aq  1 3.950000e-01    3.670000e+00
 TP4ar  X1eq  1 3.950000e-01    1.850000e+00
 TP4ar  X2eq  1 3.950000e-01    2.110000e+00
 TP4ar  X3eq  1 3.950000e-01    2.110000e+00
 TP4ar  X4eq  1 3.950000e-01    2.310000e+00
 TP4ar  C1eq  1 3.990000e-01    1.180000e+00
 TP4ar  C2eq  1 3.980000e-01    1.450000e+00
 TP4ar  C3eq  1 3.980000e-01    1.450000e+00
 TP4ar  C4eq  1 3.950000e-01    1.670000e+00
 TP4ar  C5eq  1 3.950000e-01    1.850000e+00
 TP4ar  C6eq  1 3.950000e-01    2.110000e+00
 TP4ar  X1vq  1 3.950000e-01    2.310000e+00
 TP4ar  X2vq  1 3.950000e-01    2.500000e+00
 TP4ar  X3vq  1 3.950000e-01    2.500000e+00
 TP4ar  X4vq  1 3.950000e-01    2.700000e+00
 TP4ar  C1vq  1 3.950000e-01    1.670000e+00
 TP4ar  C2vq  1 3.950000e-01    1.850000e+00
 TP4ar  C3vq  1 3.950000e-01    1.850000e+00
 TP4ar  C4vq  1 3.950000e-01    2.110000e+00
 TP4ar  C5vq  1 3.950000e-01    2.310000e+00
 TP4ar  C6vq  1 3.950000e-01    2.500000e+00
 TP4ar  N1aq  1 3.950000e-01    2.310000e+00
 TP4ar  N2aq  1 3.950000e-01    2.500000e+00
 TP4ar  N3aq  1 3.950000e-01    2.500000e+00
 TP4ar  N4aq  1 3.950000e-01    2.700000e+00
 TP4ar  N5aq  1 3.950000e-01    2.700000e+00
 TP4ar  N6aq  1 3.950000e-01    2.940000e+00
 TP4ar  P1aq  1 3.950000e-01    3.190000e+00
 TP4ar  P2aq  1 3.950000e-01    3.430000e+00
 TP4ar  P3aq  1 3.950000e-01    3.430000e+00
  TP3a  P3ar  1 3.950000e-01    2.940000e+00
 TP3ar   P2a  1 3.950000e-01    2.940000e+00
 TP3ar   P1a  1 3.950000e-01    2.700000e+00
 TP3ar   N6a  1 3.950000e-01    2.500000e+00
 TP3ar   N5a  1 3.950000e-01    2.310000e+00
 TP3ar   N4a  1 3.950000e-01    2.310000e+00
 TP3ar   N3a  1 3.950000e-01    2.110000e+00
 TP3ar   N2a  1 3.950000e-01    2.110000e+00
 TP3ar   N1a  1 3.950000e-01    2.110000e+00
 TP3ar   C6v  1 3.950000e-01    2.310000e+00
 TP3ar   C5v  1 3.950000e-01    2.110000e+00
 TP3ar   C4v  1 3.950000e-01    1.850000e+00
 TP3ar   C3v  1 3.980000e-01    1.450000e+00
 TP3ar   C2v  1 3.980000e-01    1.450000e+00
 TP3ar   C1v  1 3.990000e-01    1.180000e+00
 TP3ar   X4v  1 3.950000e-01    2.310000e+00
 TP3ar   X3v  1 3.950000e-01    2.310000e+00
 TP3ar   X2v  1 3.950000e-01    2.110000e+00
 TP3ar   X1v  1 3.950000e-01    1.850000e+00
 TP3ar   C6e  1 3.950000e-01    1.850000e+00
 TP3ar   C5e  1 3.950000e-01    1.670000e+00
 TP3ar   C4e  1 3.980000e-01    1.450000e+00
 TP3ar   C3e  1 4.010000e-01    9.830000e-01
 TP3ar   C2e  1 4.010000e-01    9.830000e-01
 TP3ar   C1e  1 4.040000e-01    8.300000e-01
 TP3ar   X4e  1 3.950000e-01    1.850000e+00
 TP3ar   X3e  1 3.950000e-01    1.850000e+00
 TP3ar   X2e  1 3.950000e-01    1.670000e+00
 TP3ar   X1e  1 3.980000e-01    1.450000e+00
  TP6q  P3ar  1 3.950000e-01    3.910000e+00
  TP5q  P3ar  1 3.950000e-01    3.670000e+00
  TP4q  P3ar  1 3.950000e-01    3.670000e+00
  TP3q  P3ar  1 3.950000e-01    3.670000e+00
 TP3ar   P2q  1 3.950000e-01    3.670000e+00
 TP3ar   P1q  1 3.950000e-01    3.430000e+00
 TP3ar   N6q  1 3.950000e-01    3.190000e+00
 TP3ar   N5q  1 3.950000e-01    2.940000e+00
 TP3ar   N4q  1 3.950000e-01    2.940000e+00
 TP3ar   N3q  1 3.950000e-01    2.700000e+00
 TP3ar   N2q  1 3.950000e-01    2.700000e+00
 TP3ar   N1q  1 3.950000e-01    2.500000e+00
 TP3ar   C6q  1 3.950000e-01    2.500000e+00
 TP3ar   C5q  1 3.950000e-01    2.310000e+00
 TP3ar   C4q  1 3.950000e-01    2.110000e+00
 TP3ar   C3q  1 3.950000e-01    1.670000e+00
 TP3ar   C2q  1 3.950000e-01    1.670000e+00
 TP3ar   C1q  1 3.980000e-01    1.450000e+00
 TP3ar   X4q  1 3.950000e-01    2.500000e+00
 TP3ar   X3q  1 3.950000e-01    2.500000e+00
 TP3ar   X2q  1 3.950000e-01    2.310000e+00
 TP3ar   X1q  1 3.950000e-01    2.110000e+00
 TP6dq  P3ar  1 3.950000e-01    4.230000e+00
 TP5dq  P3ar  1 3.950000e-01    3.910000e+00
 TP4dq  P3ar  1 3.950000e-01    3.910000e+00
 TP3dq  P3ar  1 3.950000e-01    3.910000e+00
 TP3ar  P2dq  1 3.950000e-01    3.910000e+00
 TP3ar  P1dq  1 3.950000e-01    3.670000e+00
 TP3ar  N6dq  1 3.950000e-01    3.430000e+00
 TP3ar  N5dq  1 3.950000e-01    3.190000e+00
 TP3ar  N4dq  1 3.950000e-01    3.190000e+00
 TP3ar  N3dq  1 3.950000e-01    2.940000e+00
 TP3ar  N2dq  1 3.950000e-01    2.940000e+00
 TP3ar  N1dq  1 3.950000e-01    2.500000e+00
 TP6aq  P3ar  1 3.950000e-01    3.670000e+00
 TP5aq  P3ar  1 3.950000e-01    3.430000e+00
 TP4aq  P3ar  1 3.950000e-01    3.430000e+00
 TP3ar  P3aq  1 3.950000e-01    3.430000e+00
 TP3ar  X1eq  1 3.950000e-01    1.850000e+00
 TP3ar  X2eq  1 3.950000e-01    2.110000e+00
 TP3ar  X3eq  1 3.950000e-01    2.310000e+00
 TP3ar  X4eq  1 3.950000e-01    2.310000e+00
 TP3ar  C1eq  1 3.990000e-01    1.180000e+00
 TP3ar  C2eq  1 3.980000e-01    1.450000e+00
 TP3ar  C3eq  1 3.980000e-01    1.450000e+00
 TP3ar  C4eq  1 3.950000e-01    1.850000e+00
 TP3ar  C5eq  1 3.950000e-01    2.110000e+00
 TP3ar  C6eq  1 3.950000e-01    2.310000e+00
 TP3ar  X1vq  1 3.950000e-01    2.310000e+00
 TP3ar  X2vq  1 3.950000e-01    2.500000e+00
 TP3ar  X3vq  1 3.950000e-01    2.700000e+00
 TP3ar  X4vq  1 3.950000e-01    2.700000e+00
 TP3ar  C1vq  1 3.950000e-01    1.670000e+00
 TP3ar  C2vq  1 3.950000e-01    1.850000e+00
 TP3ar  C3vq  1 3.950000e-01    1.850000e+00
 TP3ar  C4vq  1 3.950000e-01    2.310000e+00
 TP3ar  C5vq  1 3.950000e-01    2.500000e+00
 TP3ar  C6vq  1 3.950000e-01    2.700000e+00
 TP3ar  N1aq  1 3.950000e-01    2.500000e+00
 TP3ar  N2aq  1 3.950000e-01    2.500000e+00
 TP3ar  N3aq  1 3.950000e-01    2.500000e+00
 TP3ar  N4aq  1 3.950000e-01    2.700000e+00
 TP3ar  N5aq  1 3.950000e-01    2.700000e+00
 TP3ar  N6aq  1 3.950000e-01    2.940000e+00
 TP3ar  P1aq  1 3.950000e-01    3.190000e+00
 TP3ar  P2aq  1 3.950000e-01    3.430000e+00
  TP2a  P2ar  1 3.950000e-01    2.940000e+00
 TP2ar   P1a  1 3.950000e-01    2.700000e+00
 TP2ar   N6a  1 3.950000e-01    2.700000e+00
 TP2ar   N5a  1 3.950000e-01    2.500000e+00
 TP2ar   N4a  1 3.950000e-01    2.310000e+00
 TP2ar   N3a  1 3.950000e-01    2.110000e+00
 TP2ar   N2a  1 3.950000e-01    2.110000e+00
 TP2ar   N1a  1 3.950000e-01    2.110000e+00
 TP2ar   C6v  1 3.950000e-01    2.310000e+00
 TP2ar   C5v  1 3.950000e-01    2.110000e+00
 TP2ar   C4v  1 3.950000e-01    1.850000e+00
 TP2ar   C3v  1 3.950000e-01    1.670000e+00
 TP2ar   C2v  1 3.950000e-01    1.670000e+00
 TP2ar   C1v  1 3.980000e-01    1.450000e+00
 TP2ar   X4v  1 3.950000e-01    2.310000e+00
 TP2ar   X3v  1 3.950000e-01    2.310000e+00
 TP2ar   X2v  1 3.950000e-01    2.110000e+00
 TP2ar   X1v  1 3.950000e-01    1.850000e+00
 TP2ar   C6e  1 3.950000e-01    1.850000e+00
 TP2ar   C5e  1 3.950000e-01    1.670000e+00
 TP2ar   C4e  1 3.980000e-01    1.450000e+00
 TP2ar   C3e  1 3.990000e-01    1.180000e+00
 TP2ar   C2e  1 3.990000e-01    1.180000e+00
 TP2ar   C1e  1 4.010000e-01    9.830000e-01
 TP2ar   X4e  1 3.950000e-01    1.850000e+00
 TP2ar   X3e  1 3.950000e-01    1.850000e+00
 TP2ar   X2e  1 3.950000e-01    1.670000e+00
 TP2ar   X1e  1 3.980000e-01    1.450000e+00
  TP6q  P2ar  1 3.950000e-01    3.910000e+00
  TP5q  P2ar  1 3.950000e-01    3.670000e+00
  TP4q  P2ar  1 3.950000e-01    3.670000e+00
  TP3q  P2ar  1 3.950000e-01    3.670000e+00
  TP2q  P2ar  1 3.950000e-01    3.670000e+00
 TP2ar   P1q  1 3.950000e-01    3.430000e+00
 TP2ar   N6q  1 3.950000e-01    3.430000e+00
 TP2ar   N5q  1 3.950000e-01    3.190000e+00
 TP2ar   N4q  1 3.950000e-01    2.940000e+00
 TP2ar   N3q  1 3.950000e-01    2.700000e+00
 TP2ar   N2q  1 3.950000e-01    2.700000e+00
 TP2ar   N1q  1 3.950000e-01    2.700000e+00
 TP2ar   C6q  1 3.950000e-01    2.500000e+00
 TP2ar   C5q  1 3.950000e-01    2.310000e+00
 TP2ar   C4q  1 3.950000e-01    2.110000e+00
 TP2ar   C3q  1 3.950000e-01    1.850000e+00
 TP2ar   C2q  1 3.950000e-01    1.850000e+00
 TP2ar   C1q  1 3.950000e-01    1.670000e+00
 TP2ar   X4q  1 3.950000e-01    2.500000e+00
 TP2ar   X3q  1 3.950000e-01    2.500000e+00
 TP2ar   X2q  1 3.950000e-01    2.310000e+00
 TP2ar   X1q  1 3.950000e-01    2.110000e+00
 TP6dq  P2ar  1 3.950000e-01    4.230000e+00
 TP5dq  P2ar  1 3.950000e-01    3.910000e+00
 TP4dq  P2ar  1 3.950000e-01    3.910000e+00
 TP3dq  P2ar  1 3.950000e-01    3.910000e+00
 TP2dq  P2ar  1 3.950000e-01    3.910000e+00
 TP2ar  P1dq  1 3.950000e-01    3.670000e+00
 TP2ar  N6dq  1 3.950000e-01    3.670000e+00
 TP2ar  N5dq  1 3.950000e-01    3.430000e+00
 TP2ar  N4dq  1 3.950000e-01    3.190000e+00
 TP2ar  N3dq  1 3.950000e-01    2.940000e+00
 TP2ar  N2dq  1 3.950000e-01    2.940000e+00
 TP2ar  N1dq  1 3.950000e-01    2.940000e+00
 TP6aq  P2ar  1 3.950000e-01    3.670000e+00
 TP5aq  P2ar  1 3.950000e-01    3.430000e+00
 TP4aq  P2ar  1 3.950000e-01    3.430000e+00
 TP3aq  P2ar  1 3.950000e-01    3.430000e+00
 TP2ar  P2aq  1 3.950000e-01    3.430000e+00
 TP2ar  X1eq  1 3.950000e-01    1.850000e+00
 TP2ar  X2eq  1 3.950000e-01    2.110000e+00
 TP2ar  X3eq  1 3.950000e-01    2.310000e+00
 TP2ar  X4eq  1 3.950000e-01    2.310000e+00
 TP2ar  C1eq  1 3.980000e-01    1.450000e+00
 TP2ar  C2eq  1 3.950000e-01    1.670000e+00
 TP2ar  C3eq  1 3.950000e-01    1.670000e+00
 TP2ar  C4eq  1 3.950000e-01    1.850000e+00
 TP2ar  C5eq  1 3.950000e-01    2.110000e+00
 TP2ar  C6eq  1 3.950000e-01    2.310000e+00
 TP2ar  X1vq  1 3.950000e-01    2.310000e+00
 TP2ar  X2vq  1 3.950000e-01    2.500000e+00
 TP2ar  X3vq  1 3.950000e-01    2.700000e+00
 TP2ar  X4vq  1 3.950000e-01    2.700000e+00
 TP2ar  C1vq  1 3.950000e-01    1.850000e+00
 TP2ar  C2vq  1 3.950000e-01    2.110000e+00
 TP2ar  C3vq  1 3.950000e-01    2.110000e+00
 TP2ar  C4vq  1 3.950000e-01    2.310000e+00
 TP2ar  C5vq  1 3.950000e-01    2.500000e+00
 TP2ar  C6vq  1 3.950000e-01    2.700000e+00
 TP2ar  N1aq  1 3.950000e-01    2.500000e+00
 TP2ar  N2aq  1 3.950000e-01    2.500000e+00
 TP2ar  N3aq  1 3.950000e-01    2.500000e+00
 TP2ar  N4aq  1 3.950000e-01    2.700000e+00
 TP2ar  N5aq  1 3.950000e-01    2.940000e+00
 TP2ar  N6aq  1 3.950000e-01    3.190000e+00
 TP2ar  P1aq  1 3.950000e-01    3.190000e+00
  TP1a  P1ar  1 3.950000e-01    2.700000e+00
 TP1ar   N6a  1 3.950000e-01    2.700000e+00
 TP1ar   N5a  1 3.950000e-01    2.500000e+00
 TP1ar   N4a  1 3.950000e-01    2.500000e+00
 TP1ar   N3a  1 3.950000e-01    2.110000e+00
 TP1ar   N2a  1 3.950000e-01    2.110000e+00
 TP1ar   N1a  1 3.950000e-01    2.110000e+00
 TP1ar   C6v  1 3.950000e-01    2.310000e+00
 TP1ar   C5v  1 3.950000e-01    2.110000e+00
 TP1ar   C4v  1 3.950000e-01    1.850000e+00
 TP1ar   C3v  1 3.950000e-01    1.670000e+00
 TP1ar   C2v  1 3.950000e-01    1.670000e+00
 TP1ar   C1v  1 3.980000e-01    1.450000e+00
 TP1ar   X4v  1 3.950000e-01    2.310000e+00
 TP1ar   X3v  1 3.950000e-01    2.310000e+00
 TP1ar   X2v  1 3.950000e-01    2.110000e+00
 TP1ar   X1v  1 3.950000e-01    1.850000e+00
 TP1ar   C6e  1 3.950000e-01    1.850000e+00
 TP1ar   C5e  1 3.950000e-01    1.670000e+00
 TP1ar   C4e  1 3.980000e-01    1.450000e+00
 TP1ar   C3e  1 3.990000e-01    1.180000e+00
 TP1ar   C2e  1 3.990000e-01    1.180000e+00
 TP1ar   C1e  1 4.010000e-01    9.830000e-01
 TP1ar   X4e  1 3.950000e-01    1.850000e+00
 TP1ar   X3e  1 3.950000e-01    1.850000e+00
 TP1ar   X2e  1 3.950000e-01    1.670000e+00
 TP1ar   X1e  1 3.980000e-01    1.450000e+00
  TP6q  P1ar  1 3.950000e-01    3.670000e+00
  TP5q  P1ar  1 3.950000e-01    3.430000e+00
  TP4q  P1ar  1 3.950000e-01    3.430000e+00
  TP3q  P1ar  1 3.950000e-01    3.430000e+00
  TP2q  P1ar  1 3.950000e-01    3.430000e+00
  TP1q  P1ar  1 3.950000e-01    3.430000e+00
 TP1ar   N6q  1 3.950000e-01    3.430000e+00
 TP1ar   N5q  1 3.950000e-01    3.190000e+00
 TP1ar   N4q  1 3.950000e-01    3.190000e+00
 TP1ar   N3q  1 3.950000e-01    2.700000e+00
 TP1ar   N2q  1 3.950000e-01    2.700000e+00
 TP1ar   N1q  1 3.950000e-01    2.700000e+00
 TP1ar   C6q  1 3.950000e-01    2.500000e+00
 TP1ar   C5q  1 3.950000e-01    2.310000e+00
 TP1ar   C4q  1 3.950000e-01    2.110000e+00
 TP1ar   C3q  1 3.950000e-01    1.850000e+00
 TP1ar   C2q  1 3.950000e-01    1.850000e+00
 TP1ar   C1q  1 3.950000e-01    1.670000e+00
 TP1ar   X4q  1 3.950000e-01    2.500000e+00
 TP1ar   X3q  1 3.950000e-01    2.500000e+00
 TP1ar   X2q  1 3.950000e-01    2.310000e+00
 TP1ar   X1q  1 3.950000e-01    2.110000e+00
 TP6dq  P1ar  1 3.950000e-01    3.910000e+00
 TP5dq  P1ar  1 3.950000e-01    3.670000e+00
 TP4dq  P1ar  1 3.950000e-01    3.670000e+00
 TP3dq  P1ar  1 3.950000e-01    3.670000e+00
 TP2dq  P1ar  1 3.950000e-01    3.670000e+00
 TP1dq  P1ar  1 3.950000e-01    3.670000e+00
 TP1ar  N6dq  1 3.950000e-01    3.670000e+00
 TP1ar  N5dq  1 3.950000e-01    3.430000e+00
 TP1ar  N4dq  1 3.950000e-01    3.430000e+00
 TP1ar  N3dq  1 3.950000e-01    2.940000e+00
 TP1ar  N2dq  1 3.950000e-01    2.940000e+00
 TP1ar  N1dq  1 3.950000e-01    2.940000e+00
 TP6aq  P1ar  1 3.950000e-01    3.430000e+00
 TP5aq  P1ar  1 3.950000e-01    3.190000e+00
 TP4aq  P1ar  1 3.950000e-01    3.190000e+00
 TP3aq  P1ar  1 3.950000e-01    3.190000e+00
 TP2aq  P1ar  1 3.950000e-01    3.190000e+00
 TP1ar  P1aq  1 3.950000e-01    3.190000e+00
 TP1ar  X1eq  1 3.950000e-01    1.850000e+00
 TP1ar  X2eq  1 3.950000e-01    2.110000e+00
 TP1ar  X3eq  1 3.950000e-01    2.310000e+00
 TP1ar  X4eq  1 3.950000e-01    2.310000e+00
 TP1ar  C1eq  1 3.980000e-01    1.450000e+00
 TP1ar  C2eq  1 3.950000e-01    1.670000e+00
 TP1ar  C3eq  1 3.950000e-01    1.670000e+00
 TP1ar  C4eq  1 3.950000e-01    1.850000e+00
 TP1ar  C5eq  1 3.950000e-01    2.110000e+00
 TP1ar  C6eq  1 3.950000e-01    2.310000e+00
 TP1ar  X1vq  1 3.950000e-01    2.310000e+00
 TP1ar  X2vq  1 3.950000e-01    2.500000e+00
 TP1ar  X3vq  1 3.950000e-01    2.700000e+00
 TP1ar  X4vq  1 3.950000e-01    2.700000e+00
 TP1ar  C1vq  1 3.950000e-01    1.850000e+00
 TP1ar  C2vq  1 3.950000e-01    2.110000e+00
 TP1ar  C3vq  1 3.950000e-01    2.110000e+00
 TP1ar  C4vq  1 3.950000e-01    2.310000e+00
 TP1ar  C5vq  1 3.950000e-01    2.500000e+00
 TP1ar  C6vq  1 3.950000e-01    2.700000e+00
 TP1ar  N1aq  1 3.950000e-01    2.500000e+00
 TP1ar  N2aq  1 3.950000e-01    2.500000e+00
 TP1ar  N3aq  1 3.950000e-01    2.500000e+00
 TP1ar  N4aq  1 3.950000e-01    2.940000e+00
 TP1ar  N5aq  1 3.950000e-01    2.940000e+00
 TP1ar  N6aq  1 3.950000e-01    3.190000e+00
  TN6a  N6ar  1 3.950000e-01    2.700000e+00
 TN6ar   N5a  1 3.950000e-01    2.700000e+00
 TN6ar   N4a  1 3.950000e-01    2.700000e+00
 TN6ar   N3a  1 3.950000e-01    2.310000e+00
 TN6ar   N2a  1 3.950000e-01    2.110000e+00
 TN6ar   N1a  1 3.950000e-01    2.110000e+00
 TN6ar   C6v  1 3.950000e-01    2.500000e+00
 TN6ar   C5v  1 3.950000e-01    2.310000e+00
 TN6ar   C4v  1 3.950000e-01    2.110000e+00
 TN6ar   C3v  1 3.950000e-01    1.850000e+00
 TN6ar   C2v  1 3.950000e-01    1.850000e+00
 TN6ar   C1v  1 3.950000e-01    1.670000e+00
 TN6ar   X4v  1 3.950000e-01    2.500000e+00
 TN6ar   X3v  1 3.950000e-01    2.310000e+00
 TN6ar   X2v  1 3.950000e-01    2.110000e+00
 TN6ar   X1v  1 3.950000e-01    1.850000e+00
 TN6ar   C6e  1 3.950000e-01    2.110000e+00
 TN6ar   C5e  1 3.950000e-01    1.850000e+00
 TN6ar   C4e  1 3.950000e-01    1.670000e+00
 TN6ar   C3e  1 3.980000e-01    1.450000e+00
 TN6ar   C2e  1 3.980000e-01    1.450000e+00
 TN6ar   C1e  1 3.990000e-01    1.180000e+00
 TN6ar   X4e  1 3.950000e-01    2.110000e+00
 TN6ar   X3e  1 3.950000e-01    1.850000e+00
 TN6ar   X2e  1 3.950000e-01    1.670000e+00
 TN6ar   X1e  1 3.980000e-01    1.450000e+00
  TP6q  N6ar  1 3.950000e-01    3.430000e+00
  TP5q  N6ar  1 3.950000e-01    3.190000e+00
  TP4q  N6ar  1 3.950000e-01    3.190000e+00
  TP3q  N6ar  1 3.950000e-01    3.190000e+00
  TP2q  N6ar  1 3.950000e-01    3.430000e+00
  TP1q  N6ar  1 3.950000e-01    3.430000e+00
  TN6q  N6ar  1 3.950000e-01    3.430000e+00
 TN6ar   N5q  1 3.950000e-01    3.430000e+00
 TN6ar   N4q  1 3.950000e-01    3.430000e+00
 TN6ar   N3q  1 3.950000e-01    2.940000e+00
 TN6ar   N2q  1 3.950000e-01    2.700000e+00
 TN6ar   N1q  1 3.950000e-01    2.700000e+00
 TN6ar   C6q  1 3.950000e-01    2.700000e+00
 TN6ar   C5q  1 3.950000e-01    2.500000e+00
 TN6ar   C4q  1 3.950000e-01    2.310000e+00
 TN6ar   C3q  1 3.950000e-01    2.110000e+00
 TN6ar   C2q  1 3.950000e-01    2.110000e+00
 TN6ar   C1q  1 3.950000e-01    1.850000e+00
 TN6ar   X4q  1 3.950000e-01    2.700000e+00
 TN6ar   X3q  1 3.950000e-01    2.500000e+00
 TN6ar   X2q  1 3.950000e-01    2.310000e+00
 TN6ar   X1q  1 3.950000e-01    2.110000e+00
 TP6dq  N6ar  1 3.950000e-01    3.670000e+00
 TP5dq  N6ar  1 3.950000e-01    3.430000e+00
 TP4dq  N6ar  1 3.950000e-01    3.430000e+00
 TP3dq  N6ar  1 3.950000e-01    3.430000e+00
 TP2dq  N6ar  1 3.950000e-01    3.670000e+00
 TP1dq  N6ar  1 3.950000e-01    3.670000e+00
 TN6dq  N6ar  1 3.950000e-01    3.670000e+00
 TN6ar  N5dq  1 3.950000e-01    3.670000e+00
 TN6ar  N4dq  1 3.950000e-01    3.670000e+00
 TN6ar  N3dq  1 3.950000e-01    3.190000e+00
 TN6ar  N2dq  1 3.950000e-01    2.940000e+00
 TN6ar  N1dq  1 3.950000e-01    2.940000e+00
 TP6aq  N6ar  1 3.950000e-01    3.190000e+00
 TP5aq  N6ar  1 3.950000e-01    2.940000e+00
 TP4aq  N6ar  1 3.950000e-01    2.940000e+00
 TP3aq  N6ar  1 3.950000e-01    2.940000e+00
 TP2aq  N6ar  1 3.950000e-01    3.190000e+00
 TP1aq  N6ar  1 3.950000e-01    3.190000e+00
 TN6ar  N6aq  1 3.950000e-01    3.190000e+00
 TN6ar  X1eq  1 3.950000e-01    1.850000e+00
 TN6ar  X2eq  1 3.950000e-01    2.110000e+00
 TN6ar  X3eq  1 3.950000e-01    2.310000e+00
 TN6ar  X4eq  1 3.950000e-01    2.500000e+00
 TN6ar  C1eq  1 3.950000e-01    1.670000e+00
 TN6ar  C2eq  1 3.950000e-01    1.850000e+00
 TN6ar  C3eq  1 3.950000e-01    1.850000e+00
 TN6ar  C4eq  1 3.950000e-01    2.110000e+00
 TN6ar  C5eq  1 3.950000e-01    2.310000e+00
 TN6ar  C6eq  1 3.950000e-01    2.500000e+00
 TN6ar  X1vq  1 3.950000e-01    2.310000e+00
 TN6ar  X2vq  1 3.950000e-01    2.500000e+00
 TN6ar  X3vq  1 3.950000e-01    2.700000e+00
 TN6ar  X4vq  1 3.950000e-01    2.940000e+00
 TN6ar  C1vq  1 3.950000e-01    2.110000e+00
 TN6ar  C2vq  1 3.950000e-01    2.310000e+00
 TN6ar  C3vq  1 3.950000e-01    2.310000e+00
 TN6ar  C4vq  1 3.950000e-01    2.500000e+00
 TN6ar  C5vq  1 3.950000e-01    2.700000e+00
 TN6ar  C6vq  1 3.950000e-01    2.940000e+00
 TN6ar  N1aq  1 3.950000e-01    2.500000e+00
 TN6ar  N2aq  1 3.950000e-01    2.500000e+00
 TN6ar  N3aq  1 3.950000e-01    2.700000e+00
 TN6ar  N4aq  1 3.950000e-01    3.190000e+00
 TN6ar  N5aq  1 3.950000e-01    3.190000e+00
  TN5a  N5ar  1 3.950000e-01    2.500000e+00
 TN5ar   N4a  1 3.950000e-01    2.500000e+00
 TN5ar   N3a  1 3.950000e-01    2.310000e+00
 TN5ar   N2a  1 3.950000e-01    2.310000e+00
 TN5ar   N1a  1 3.950000e-01    2.110000e+00
 TN5ar   C6v  1 3.950000e-01    2.500000e+00
 TN5ar   C5v  1 3.950000e-01    2.310000e+00
 TN5ar   C4v  1 3.950000e-01    2.110000e+00
 TN5ar   C3v  1 3.950000e-01    2.110000e+00
 TN5ar   C2v  1 3.950000e-01    1.850000e+00
 TN5ar   C1v  1 3.950000e-01    1.670000e+00
 TN5ar   X4v  1 3.950000e-01    2.700000e+00
 TN5ar   X3v  1 3.950000e-01    2.500000e+00
 TN5ar   X2v  1 3.950000e-01    2.310000e+00
 TN5ar   X1v  1 3.950000e-01    2.110000e+00
 TN5ar   C6e  1 3.950000e-01    2.110000e+00
 TN5ar   C5e  1 3.950000e-01    1.850000e+00
 TN5ar   C4e  1 3.950000e-01    1.670000e+00
 TN5ar   C3e  1 3.950000e-01    1.670000e+00
 TN5ar   C2e  1 3.980000e-01    1.450000e+00
 TN5ar   C1e  1 3.990000e-01    1.180000e+00
 TN5ar   X4e  1 3.950000e-01    2.310000e+00
 TN5ar   X3e  1 3.950000e-01    2.110000e+00
 TN5ar   X2e  1 3.950000e-01    1.850000e+00
 TN5ar   X1e  1 3.950000e-01    1.670000e+00
  TP6q  N5ar  1 3.950000e-01    2.940000e+00
  TP5q  N5ar  1 3.950000e-01    2.940000e+00
  TP4q  N5ar  1 3.950000e-01    2.940000e+00
  TP3q  N5ar  1 3.950000e-01    2.940000e+00
  TP2q  N5ar  1 3.950000e-01    3.190000e+00
  TP1q  N5ar  1 3.950000e-01    3.190000e+00
  TN6q  N5ar  1 3.950000e-01    3.430000e+00
  TN5q  N5ar  1 3.950000e-01    3.190000e+00
 TN5ar   N4q  1 3.950000e-01    3.190000e+00
 TN5ar   N3q  1 3.950000e-01    2.940000e+00
 TN5ar   N2q  1 3.950000e-01    2.940000e+00
 TN5ar   N1q  1 3.950000e-01    2.700000e+00
 TN5ar   C6q  1 3.950000e-01    2.700000e+00
 TN5ar   C5q  1 3.950000e-01    2.500000e+00
 TN5ar   C4q  1 3.950000e-01    2.310000e+00
 TN5ar   C3q  1 3.950000e-01    2.310000e+00
 TN5ar   C2q  1 3.950000e-01    2.110000e+00
 TN5ar   C1q  1 3.950000e-01    1.850000e+00
 TN5ar   X4q  1 3.950000e-01    2.940000e+00
 TN5ar   X3q  1 3.950000e-01    2.700000e+00
 TN5ar   X2q  1 3.950000e-01    2.500000e+00
 TN5ar   X1q  1 3.950000e-01    2.310000e+00
 TP6dq  N5ar  1 3.950000e-01    3.190000e+00
 TP5dq  N5ar  1 3.950000e-01    3.190000e+00
 TP4dq  N5ar  1 3.950000e-01    3.190000e+00
 TP3dq  N5ar  1 3.950000e-01    3.190000e+00
 TP2dq  N5ar  1 3.950000e-01    3.430000e+00
 TP1dq  N5ar  1 3.950000e-01    3.430000e+00
 TN6dq  N5ar  1 3.950000e-01    3.670000e+00
 TN5dq  N5ar  1 3.950000e-01    3.430000e+00
 TN5ar  N4dq  1 3.950000e-01    3.430000e+00
 TN5ar  N3dq  1 3.950000e-01    3.190000e+00
 TN5ar  N2dq  1 3.950000e-01    3.190000e+00
 TN5ar  N1dq  1 3.950000e-01    2.940000e+00
 TP6aq  N5ar  1 3.950000e-01    2.700000e+00
 TP5aq  N5ar  1 3.950000e-01    2.700000e+00
 TP4aq  N5ar  1 3.950000e-01    2.700000e+00
 TP3aq  N5ar  1 3.950000e-01    2.700000e+00
 TP2aq  N5ar  1 3.950000e-01    2.940000e+00
 TP1aq  N5ar  1 3.950000e-01    2.940000e+00
 TN6aq  N5ar  1 3.950000e-01    3.190000e+00
 TN5ar  N5aq  1 3.950000e-01    2.940000e+00
 TN5ar  X1eq  1 3.950000e-01    2.110000e+00
 TN5ar  X2eq  1 3.950000e-01    2.310000e+00
 TN5ar  X3eq  1 3.950000e-01    2.500000e+00
 TN5ar  X4eq  1 3.950000e-01    2.700000e+00
 TN5ar  C1eq  1 3.950000e-01    1.670000e+00
 TN5ar  C2eq  1 3.950000e-01    1.850000e+00
 TN5ar  C3eq  1 3.950000e-01    2.110000e+00
 TN5ar  C4eq  1 3.950000e-01    2.110000e+00
 TN5ar  C5eq  1 3.950000e-01    2.310000e+00
 TN5ar  C6eq  1 3.950000e-01    2.500000e+00
 TN5ar  X1vq  1 3.950000e-01    2.500000e+00
 TN5ar  X2vq  1 3.950000e-01    2.700000e+00
 TN5ar  X3vq  1 3.950000e-01    2.940000e+00
 TN5ar  X4vq  1 3.950000e-01    3.190000e+00
 TN5ar  C1vq  1 3.950000e-01    2.110000e+00
 TN5ar  C2vq  1 3.950000e-01    2.310000e+00
 TN5ar  C3vq  1 3.950000e-01    2.500000e+00
 TN5ar  C4vq  1 3.950000e-01    2.500000e+00
 TN5ar  C5vq  1 3.950000e-01    2.700000e+00
 TN5ar  C6vq  1 3.950000e-01    2.940000e+00
 TN5ar  N1aq  1 3.950000e-01    2.500000e+00
 TN5ar  N2aq  1 3.950000e-01    2.700000e+00
 TN5ar  N3aq  1 3.950000e-01    2.700000e+00
 TN5ar  N4aq  1 3.950000e-01    2.940000e+00
  TN4a  N4ar  1 3.950000e-01    2.500000e+00
 TN4ar   N3a  1 3.950000e-01    2.310000e+00
 TN4ar   N2a  1 3.950000e-01    2.310000e+00
 TN4ar   N1a  1 3.950000e-01    2.110000e+00
 TN4ar   C6v  1 3.950000e-01    2.500000e+00
 TN4ar   C5v  1 3.950000e-01    2.310000e+00
 TN4ar   C4v  1 3.950000e-01    2.310000e+00
 TN4ar   C3v  1 3.950000e-01    2.110000e+00
 TN4ar   C2v  1 3.950000e-01    1.850000e+00
 TN4ar   C1v  1 3.950000e-01    1.670000e+00
 TN4ar   X4v  1 3.950000e-01    2.940000e+00
 TN4ar   X3v  1 3.950000e-01    2.700000e+00
 TN4ar   X2v  1 3.950000e-01    2.310000e+00
 TN4ar   X1v  1 3.950000e-01    2.110000e+00
 TN4ar   C6e  1 3.950000e-01    2.110000e+00
 TN4ar   C5e  1 3.950000e-01    1.850000e+00
 TN4ar   C4e  1 3.950000e-01    1.850000e+00
 TN4ar   C3e  1 3.950000e-01    1.670000e+00
 TN4ar   C2e  1 3.980000e-01    1.450000e+00
 TN4ar   C1e  1 3.990000e-01    1.180000e+00
 TN4ar   X4e  1 3.950000e-01    2.500000e+00
 TN4ar   X3e  1 3.950000e-01    2.310000e+00
 TN4ar   X2e  1 3.950000e-01    1.850000e+00
 TN4ar   X1e  1 3.950000e-01    1.670000e+00
  TP6q  N4ar  1 3.950000e-01    2.700000e+00
  TP5q  N4ar  1 3.950000e-01    2.940000e+00
  TP4q  N4ar  1 3.950000e-01    2.940000e+00
  TP3q  N4ar  1 3.950000e-01    2.940000e+00
  TP2q  N4ar  1 3.950000e-01    2.940000e+00
  TP1q  N4ar  1 3.950000e-01    3.190000e+00
  TN6q  N4ar  1 3.950000e-01    3.430000e+00
  TN5q  N4ar  1 3.950000e-01    3.190000e+00
  TN4q  N4ar  1 3.950000e-01    3.190000e+00
 TN4ar   N3q  1 3.950000e-01    2.940000e+00
 TN4ar   N2q  1 3.950000e-01    2.940000e+00
 TN4ar   N1q  1 3.950000e-01    2.700000e+00
 TN4ar   C6q  1 3.950000e-01    2.700000e+00
 TN4ar   C5q  1 3.950000e-01    2.500000e+00
 TN4ar   C4q  1 3.950000e-01    2.500000e+00
 TN4ar   C3q  1 3.950000e-01    2.310000e+00
 TN4ar   C2q  1 3.950000e-01    2.110000e+00
 TN4ar   C1q  1 3.950000e-01    1.850000e+00
 TN4ar   X4q  1 3.950000e-01    3.190000e+00
 TN4ar   X3q  1 3.950000e-01    2.940000e+00
 TN4ar   X2q  1 3.950000e-01    2.500000e+00
 TN4ar   X1q  1 3.950000e-01    2.310000e+00
 TP6dq  N4ar  1 3.950000e-01    2.940000e+00
 TP5dq  N4ar  1 3.950000e-01    3.190000e+00
 TP4dq  N4ar  1 3.950000e-01    3.190000e+00
 TP3dq  N4ar  1 3.950000e-01    3.190000e+00
 TP2dq  N4ar  1 3.950000e-01    3.190000e+00
 TP1dq  N4ar  1 3.950000e-01    3.430000e+00
 TN6dq  N4ar  1 3.950000e-01    3.670000e+00
 TN5dq  N4ar  1 3.950000e-01    3.430000e+00
 TN4dq  N4ar  1 3.950000e-01    3.430000e+00
 TN4ar  N3dq  1 3.950000e-01    3.190000e+00
 TN4ar  N2dq  1 3.950000e-01    3.190000e+00
 TN4ar  N1dq  1 3.950000e-01    2.940000e+00
 TP6aq  N4ar  1 3.950000e-01    2.500000e+00
 TP5aq  N4ar  1 3.950000e-01    2.700000e+00
 TP4aq  N4ar  1 3.950000e-01    2.700000e+00
 TP3aq  N4ar  1 3.950000e-01    2.700000e+00
 TP2aq  N4ar  1 3.950000e-01    2.700000e+00
 TP1aq  N4ar  1 3.950000e-01    2.940000e+00
 TN6aq  N4ar  1 3.950000e-01    3.190000e+00
 TN5aq  N4ar  1 3.950000e-01    2.940000e+00
 TN4ar  N4aq  1 3.950000e-01    2.940000e+00
 TN4ar  X1eq  1 3.950000e-01    2.110000e+00
 TN4ar  X2eq  1 3.950000e-01    2.310000e+00
 TN4ar  X3eq  1 3.950000e-01    2.700000e+00
 TN4ar  X4eq  1 3.950000e-01    2.940000e+00
 TN4ar  C1eq  1 3.950000e-01    1.670000e+00
 TN4ar  C2eq  1 3.950000e-01    1.850000e+00
 TN4ar  C3eq  1 3.950000e-01    2.110000e+00
 TN4ar  C4eq  1 3.950000e-01    2.310000e+00
 TN4ar  C5eq  1 3.950000e-01    2.310000e+00
 TN4ar  C6eq  1 3.950000e-01    2.500000e+00
 TN4ar  X1vq  1 3.950000e-01    2.500000e+00
 TN4ar  X2vq  1 3.950000e-01    2.700000e+00
 TN4ar  X3vq  1 3.950000e-01    3.190000e+00
 TN4ar  X4vq  1 3.950000e-01    3.430000e+00
 TN4ar  C1vq  1 3.950000e-01    2.110000e+00
 TN4ar  C2vq  1 3.950000e-01    2.310000e+00
 TN4ar  C3vq  1 3.950000e-01    2.500000e+00
 TN4ar  C4vq  1 3.950000e-01    2.700000e+00
 TN4ar  C5vq  1 3.950000e-01    2.700000e+00
 TN4ar  C6vq  1 3.950000e-01    2.940000e+00
 TN4ar  N1aq  1 3.950000e-01    2.500000e+00
 TN4ar  N2aq  1 3.950000e-01    2.700000e+00
 TN4ar  N3aq  1 3.950000e-01    2.700000e+00
  TN3a  N3ar  1 3.950000e-01    2.310000e+00
 TN3ar   N2a  1 3.950000e-01    2.310000e+00
 TN3ar   N1a  1 3.950000e-01    2.110000e+00
 TN3ar   C6v  1 3.950000e-01    2.500000e+00
 TN3ar   C5v  1 3.950000e-01    2.310000e+00
 TN3ar   C4v  1 3.950000e-01    2.310000e+00
 TN3ar   C3v  1 3.950000e-01    2.110000e+00
 TN3ar   C2v  1 3.950000e-01    2.110000e+00
 TN3ar   C1v  1 3.950000e-01    1.850000e+00
 TN3ar   X4v  1 3.950000e-01    2.700000e+00
 TN3ar   X3v  1 3.950000e-01    2.500000e+00
 TN3ar   X2v  1 3.950000e-01    2.310000e+00
 TN3ar   X1v  1 3.950000e-01    2.310000e+00
 TN3ar   C6e  1 3.950000e-01    2.110000e+00
 TN3ar   C5e  1 3.950000e-01    1.850000e+00
 TN3ar   C4e  1 3.950000e-01    1.850000e+00
 TN3ar   C3e  1 3.950000e-01    1.670000e+00
 TN3ar   C2e  1 3.950000e-01    1.670000e+00
 TN3ar   C1e  1 3.980000e-01    1.450000e+00
 TN3ar   X4e  1 3.950000e-01    2.310000e+00
 TN3ar   X3e  1 3.950000e-01    2.110000e+00
 TN3ar   X2e  1 3.950000e-01    1.850000e+00
 TN3ar   X1e  1 3.950000e-01    1.850000e+00
  TP6q  N3ar  1 3.950000e-01    2.500000e+00
  TP5q  N3ar  1 3.950000e-01    2.500000e+00
  TP4q  N3ar  1 3.950000e-01    2.700000e+00
  TP3q  N3ar  1 3.950000e-01    2.700000e+00
  TP2q  N3ar  1 3.950000e-01    2.700000e+00
  TP1q  N3ar  1 3.950000e-01    2.700000e+00
  TN6q  N3ar  1 3.950000e-01    2.940000e+00
  TN5q  N3ar  1 3.950000e-01    2.940000e+00
  TN4q  N3ar  1 3.950000e-01    2.940000e+00
  TN3q  N3ar  1 3.950000e-01    2.940000e+00
 TN3ar   N2q  1 3.950000e-01    2.940000e+00
 TN3ar   N1q  1 3.950000e-01    2.700000e+00
 TN3ar   C6q  1 3.950000e-01    2.700000e+00
 TN3ar   C5q  1 3.950000e-01    2.500000e+00
 TN3ar   C4q  1 3.950000e-01    2.500000e+00
 TN3ar   C3q  1 3.950000e-01    2.310000e+00
 TN3ar   C2q  1 3.950000e-01    2.310000e+00
 TN3ar   C1q  1 3.950000e-01    2.110000e+00
 TN3ar   X4q  1 3.950000e-01    2.940000e+00
 TN3ar   X3q  1 3.950000e-01    2.700000e+00
 TN3ar   X2q  1 3.950000e-01    2.500000e+00
 TN3ar   X1q  1 3.950000e-01    2.500000e+00
 TP6dq  N3ar  1 3.950000e-01    2.500000e+00
 TP5dq  N3ar  1 3.950000e-01    2.500000e+00
 TP4dq  N3ar  1 3.950000e-01    2.940000e+00
 TP3dq  N3ar  1 3.950000e-01    2.940000e+00
 TP2dq  N3ar  1 3.950000e-01    2.940000e+00
 TP1dq  N3ar  1 3.950000e-01    2.940000e+00
 TN6dq  N3ar  1 3.950000e-01    3.190000e+00
 TN5dq  N3ar  1 3.950000e-01    3.190000e+00
 TN4dq  N3ar  1 3.950000e-01    3.190000e+00
 TN3dq  N3ar  1 3.950000e-01    3.190000e+00
 TN3ar  N2dq  1 3.950000e-01    3.190000e+00
 TN3ar  N1dq  1 3.950000e-01    2.940000e+00
 TP6aq  N3ar  1 3.950000e-01    2.500000e+00
 TP5aq  N3ar  1 3.950000e-01    2.500000e+00
 TP4aq  N3ar  1 3.950000e-01    2.500000e+00
 TP3aq  N3ar  1 3.950000e-01    2.500000e+00
 TP2aq  N3ar  1 3.950000e-01    2.500000e+00
 TP1aq  N3ar  1 3.950000e-01    2.500000e+00
 TN6aq  N3ar  1 3.950000e-01    2.700000e+00
 TN5aq  N3ar  1 3.950000e-01    2.700000e+00
 TN4aq  N3ar  1 3.950000e-01    2.700000e+00
 TN3ar  N3aq  1 3.950000e-01    2.700000e+00
 TN3ar  X1eq  1 3.950000e-01    2.310000e+00
 TN3ar  X2eq  1 3.950000e-01    2.310000e+00
 TN3ar  X3eq  1 3.950000e-01    2.500000e+00
 TN3ar  X4eq  1 3.950000e-01    2.700000e+00
 TN3ar  C1eq  1 3.950000e-01    1.850000e+00
 TN3ar  C2eq  1 3.950000e-01    2.110000e+00
 TN3ar  C3eq  1 3.950000e-01    2.110000e+00
 TN3ar  C4eq  1 3.950000e-01    2.310000e+00
 TN3ar  C5eq  1 3.950000e-01    2.310000e+00
 TN3ar  C6eq  1 3.950000e-01    2.500000e+00
 TN3ar  X1vq  1 3.950000e-01    2.700000e+00
 TN3ar  X2vq  1 3.950000e-01    2.700000e+00
 TN3ar  X3vq  1 3.950000e-01    2.940000e+00
 TN3ar  X4vq  1 3.950000e-01    3.190000e+00
 TN3ar  C1vq  1 3.950000e-01    2.310000e+00
 TN3ar  C2vq  1 3.950000e-01    2.500000e+00
 TN3ar  C3vq  1 3.950000e-01    2.500000e+00
 TN3ar  C4vq  1 3.950000e-01    2.700000e+00
 TN3ar  C5vq  1 3.950000e-01    2.700000e+00
 TN3ar  C6vq  1 3.950000e-01    2.940000e+00
 TN3ar  N1aq  1 3.950000e-01    2.500000e+00
 TN3ar  N2aq  1 3.950000e-01    2.700000e+00
  TN2a  N2ar  1 3.950000e-01    2.310000e+00
 TN2ar   N1a  1 3.950000e-01    2.110000e+00
 TN2ar   C6v  1 3.950000e-01    2.500000e+00
 TN2ar   C5v  1 3.950000e-01    2.310000e+00
 TN2ar   C4v  1 3.950000e-01    2.310000e+00
 TN2ar   C3v  1 3.950000e-01    2.310000e+00
 TN2ar   C2v  1 3.950000e-01    2.110000e+00
 TN2ar   C1v  1 3.950000e-01    1.850000e+00
 TN2ar   X4v  1 3.950000e-01    2.700000e+00
 TN2ar   X3v  1 3.950000e-01    2.500000e+00
 TN2ar   X2v  1 3.950000e-01    2.310000e+00
 TN2ar   X1v  1 3.950000e-01    2.310000e+00
 TN2ar   C6e  1 3.950000e-01    2.110000e+00
 TN2ar   C5e  1 3.950000e-01    1.850000e+00
 TN2ar   C4e  1 3.950000e-01    1.850000e+00
 TN2ar   C3e  1 3.950000e-01    1.850000e+00
 TN2ar   C2e  1 3.950000e-01    1.670000e+00
 TN2ar   C1e  1 3.980000e-01    1.450000e+00
 TN2ar   X4e  1 3.950000e-01    2.310000e+00
 TN2ar   X3e  1 3.950000e-01    2.110000e+00
 TN2ar   X2e  1 3.950000e-01    1.850000e+00
 TN2ar   X1e  1 3.950000e-01    1.850000e+00
  TP6q  N2ar  1 3.950000e-01    2.310000e+00
  TP5q  N2ar  1 3.950000e-01    2.310000e+00
  TP4q  N2ar  1 3.950000e-01    2.500000e+00
  TP3q  N2ar  1 3.950000e-01    2.700000e+00
  TP2q  N2ar  1 3.950000e-01    2.700000e+00
  TP1q  N2ar  1 3.950000e-01    2.700000e+00
  TN6q  N2ar  1 3.950000e-01    2.700000e+00
  TN5q  N2ar  1 3.950000e-01    2.940000e+00
  TN4q  N2ar  1 3.950000e-01    2.940000e+00
  TN3q  N2ar  1 3.950000e-01    2.940000e+00
  TN2q  N2ar  1 3.950000e-01    2.940000e+00
 TN2ar   N1q  1 3.950000e-01    2.700000e+00
 TN2ar   C6q  1 3.950000e-01    2.700000e+00
 TN2ar   C5q  1 3.950000e-01    2.500000e+00
 TN2ar   C4q  1 3.950000e-01    2.500000e+00
 TN2ar   C3q  1 3.950000e-01    2.500000e+00
 TN2ar   C2q  1 3.950000e-01    2.310000e+00
 TN2ar   C1q  1 3.950000e-01    2.110000e+00
 TN2ar   X4q  1 3.950000e-01    2.940000e+00
 TN2ar   X3q  1 3.950000e-01    2.700000e+00
 TN2ar   X2q  1 3.950000e-01    2.500000e+00
 TN2ar   X1q  1 3.950000e-01    2.500000e+00
 TP6dq  N2ar  1 3.950000e-01    2.310000e+00
 TP5dq  N2ar  1 3.950000e-01    2.310000e+00
 TP4dq  N2ar  1 3.950000e-01    2.500000e+00
 TP3dq  N2ar  1 3.950000e-01    2.940000e+00
 TP2dq  N2ar  1 3.950000e-01    2.940000e+00
 TP1dq  N2ar  1 3.950000e-01    2.940000e+00
 TN6dq  N2ar  1 3.950000e-01    2.940000e+00
 TN5dq  N2ar  1 3.950000e-01    3.190000e+00
 TN4dq  N2ar  1 3.950000e-01    3.190000e+00
 TN3dq  N2ar  1 3.950000e-01    3.190000e+00
 TN2dq  N2ar  1 3.950000e-01    3.190000e+00
 TN2ar  N1dq  1 3.950000e-01    2.940000e+00
 TP6aq  N2ar  1 3.950000e-01    2.310000e+00
 TP5aq  N2ar  1 3.950000e-01    2.310000e+00
 TP4aq  N2ar  1 3.950000e-01    2.500000e+00
 TP3aq  N2ar  1 3.950000e-01    2.500000e+00
 TP2aq  N2ar  1 3.950000e-01    2.500000e+00
 TP1aq  N2ar  1 3.950000e-01    2.500000e+00
 TN6aq  N2ar  1 3.950000e-01    2.500000e+00
 TN5aq  N2ar  1 3.950000e-01    2.700000e+00
 TN4aq  N2ar  1 3.950000e-01    2.700000e+00
 TN3aq  N2ar  1 3.950000e-01    2.700000e+00
 TN2ar  N2aq  1 3.950000e-01    2.700000e+00
 TN2ar  X1eq  1 3.950000e-01    2.310000e+00
 TN2ar  X2eq  1 3.950000e-01    2.310000e+00
 TN2ar  X3eq  1 3.950000e-01    2.500000e+00
 TN2ar  X4eq  1 3.950000e-01    2.700000e+00
 TN2ar  C1eq  1 3.950000e-01    1.850000e+00
 TN2ar  C2eq  1 3.950000e-01    2.110000e+00
 TN2ar  C3eq  1 3.950000e-01    2.310000e+00
 TN2ar  C4eq  1 3.950000e-01    2.310000e+00
 TN2ar  C5eq  1 3.950000e-01    2.310000e+00
 TN2ar  C6eq  1 3.950000e-01    2.500000e+00
 TN2ar  X1vq  1 3.950000e-01    2.700000e+00
 TN2ar  X2vq  1 3.950000e-01    2.700000e+00
 TN2ar  X3vq  1 3.950000e-01    2.940000e+00
 TN2ar  X4vq  1 3.950000e-01    3.190000e+00
 TN2ar  C1vq  1 3.950000e-01    2.310000e+00
 TN2ar  C2vq  1 3.950000e-01    2.500000e+00
 TN2ar  C3vq  1 3.950000e-01    2.700000e+00
 TN2ar  C4vq  1 3.950000e-01    2.700000e+00
 TN2ar  C5vq  1 3.950000e-01    2.700000e+00
 TN2ar  C6vq  1 3.950000e-01    2.940000e+00
 TN2ar  N1aq  1 3.950000e-01    2.500000e+00
  TN1a  N1ar  1 3.950000e-01    2.310000e+00
 TN1ar   C6v  1 3.950000e-01    2.700000e+00
 TN1ar   C5v  1 3.950000e-01    2.500000e+00
 TN1ar   C4v  1 3.950000e-01    2.500000e+00
 TN1ar   C3v  1 3.950000e-01    2.310000e+00
 TN1ar   C2v  1 3.950000e-01    2.110000e+00
 TN1ar   C1v  1 3.950000e-01    1.850000e+00
 TN1ar   X4v  1 3.950000e-01    2.500000e+00
 TN1ar   X3v  1 3.950000e-01    2.500000e+00
 TN1ar   X2v  1 3.950000e-01    2.310000e+00
 TN1ar   X1v  1 3.950000e-01    2.310000e+00
 TN1ar   C6e  1 3.950000e-01    2.310000e+00
 TN1ar   C5e  1 3.950000e-01    2.110000e+00
 TN1ar   C4e  1 3.950000e-01    2.110000e+00
 TN1ar   C3e  1 3.950000e-01    1.850000e+00
 TN1ar   C2e  1 3.950000e-01    1.670000e+00
 TN1ar   C1e  1 3.980000e-01    1.450000e+00
 TN1ar   X4e  1 3.950000e-01    2.110000e+00
 TN1ar   X3e  1 3.950000e-01    2.110000e+00
 TN1ar   X2e  1 3.950000e-01    1.850000e+00
 TN1ar   X1e  1 3.950000e-01    1.850000e+00
  TP6q  N1ar  1 3.950000e-01    2.110000e+00
  TP5q  N1ar  1 3.950000e-01    2.110000e+00
  TP4q  N1ar  1 3.950000e-01    2.310000e+00
  TP3q  N1ar  1 3.950000e-01    2.500000e+00
  TP2q  N1ar  1 3.950000e-01    2.700000e+00
  TP1q  N1ar  1 3.950000e-01    2.700000e+00
  TN6q  N1ar  1 3.950000e-01    2.700000e+00
  TN5q  N1ar  1 3.950000e-01    2.700000e+00
  TN4q  N1ar  1 3.950000e-01    2.700000e+00
  TN3q  N1ar  1 3.950000e-01    2.700000e+00
  TN2q  N1ar  1 3.950000e-01    2.700000e+00
  TN1q  N1ar  1 3.950000e-01    2.940000e+00
 TN1ar   C6q  1 3.950000e-01    2.940000e+00
 TN1ar   C5q  1 3.950000e-01    2.700000e+00
 TN1ar   C4q  1 3.950000e-01    2.700000e+00
 TN1ar   C3q  1 3.950000e-01    2.500000e+00
 TN1ar   C2q  1 3.950000e-01    2.310000e+00
 TN1ar   C1q  1 3.950000e-01    2.110000e+00
 TN1ar   X4q  1 3.950000e-01    2.700000e+00
 TN1ar   X3q  1 3.950000e-01    2.700000e+00
 TN1ar   X2q  1 3.950000e-01    2.500000e+00
 TN1ar   X1q  1 3.950000e-01    2.500000e+00
 TP6dq  N1ar  1 3.950000e-01    2.110000e+00
 TP5dq  N1ar  1 3.950000e-01    2.110000e+00
 TP4dq  N1ar  1 3.950000e-01    2.310000e+00
 TP3dq  N1ar  1 3.950000e-01    2.500000e+00
 TP2dq  N1ar  1 3.950000e-01    2.940000e+00
 TP1dq  N1ar  1 3.950000e-01    2.940000e+00
 TN6dq  N1ar  1 3.950000e-01    2.940000e+00
 TN5dq  N1ar  1 3.950000e-01    2.940000e+00
 TN4dq  N1ar  1 3.950000e-01    2.940000e+00
 TN3dq  N1ar  1 3.950000e-01    2.940000e+00
 TN2dq  N1ar  1 3.950000e-01    2.940000e+00
 TN1dq  N1ar  1 3.950000e-01    3.190000e+00
 TP6aq  N1ar  1 3.950000e-01    2.110000e+00
 TP5aq  N1ar  1 3.950000e-01    2.110000e+00
 TP4aq  N1ar  1 3.950000e-01    2.310000e+00
 TP3aq  N1ar  1 3.950000e-01    2.500000e+00
 TP2aq  N1ar  1 3.950000e-01    2.500000e+00
 TP1aq  N1ar  1 3.950000e-01    2.500000e+00
 TN6aq  N1ar  1 3.950000e-01    2.500000e+00
 TN5aq  N1ar  1 3.950000e-01    2.500000e+00
 TN4aq  N1ar  1 3.950000e-01    2.500000e+00
 TN3aq  N1ar  1 3.950000e-01    2.500000e+00
 TN2aq  N1ar  1 3.950000e-01    2.500000e+00
 TN1ar  N1aq  1 3.950000e-01    2.700000e+00
 TN1ar  X1eq  1 3.950000e-01    2.310000e+00
 TN1ar  X2eq  1 3.950000e-01    2.310000e+00
 TN1ar  X3eq  1 3.950000e-01    2.500000e+00
 TN1ar  X4eq  1 3.950000e-01    2.500000e+00
 TN1ar  C1eq  1 3.950000e-01    1.850000e+00
 TN1ar  C2eq  1 3.950000e-01    2.110000e+00
 TN1ar  C3eq  1 3.950000e-01    2.310000e+00
 TN1ar  C4eq  1 3.950000e-01    2.500000e+00
 TN1ar  C5eq  1 3.950000e-01    2.500000e+00
 TN1ar  C6eq  1 3.950000e-01    2.700000e+00
 TN1ar  X1vq  1 3.950000e-01    2.700000e+00
 TN1ar  X2vq  1 3.950000e-01    2.700000e+00
 TN1ar  X3vq  1 3.950000e-01    2.940000e+00
 TN1ar  X4vq  1 3.950000e-01    2.940000e+00
 TN1ar  C1vq  1 3.950000e-01    2.310000e+00
 TN1ar  C2vq  1 3.950000e-01    2.500000e+00
 TN1ar  C3vq  1 3.950000e-01    2.700000e+00
 TN1ar  C4vq  1 3.950000e-01    2.940000e+00
 TN1ar  C5vq  1 3.950000e-01    2.940000e+00
 TN1ar  C6vq  1 3.950000e-01    3.190000e+00
  TC6v  C6vr  1 3.950000e-01    2.310000e+00
 TC6vr   C5v  1 3.950000e-01    2.110000e+00
 TC6vr   C4v  1 3.950000e-01    2.110000e+00
 TC6vr   C3v  1 3.950000e-01    1.850000e+00
 TC6vr   C2v  1 3.950000e-01    1.670000e+00
 TC6vr   C1v  1 3.980000e-01    1.450000e+00
 TC6vr   X4v  1 3.950000e-01    2.110000e+00
 TC6vr   X3v  1 3.950000e-01    2.110000e+00
 TC6vr   X2v  1 3.950000e-01    2.110000e+00
 TC6vr   X1v  1 3.950000e-01    2.110000e+00
 TC6vr   C6e  1 3.950000e-01    2.940000e+00
 TC6vr   C5e  1 3.950000e-01    2.700000e+00
 TC6vr   C4e  1 3.950000e-01    2.700000e+00
 TC6vr   C3e  1 3.950000e-01    2.500000e+00
 TC6vr   C2e  1 3.950000e-01    2.310000e+00
 TC6vr   C1e  1 3.950000e-01    2.110000e+00
 TC6vr   X4e  1 3.950000e-01    2.700000e+00
 TC6vr   X3e  1 3.950000e-01    2.700000e+00
 TC6vr   X2e  1 3.950000e-01    2.700000e+00
 TC6vr   X1e  1 3.950000e-01    2.700000e+00
  TP6q  C6vr  1 3.950000e-01    2.310000e+00
  TP5q  C6vr  1 3.950000e-01    2.310000e+00
  TP4q  C6vr  1 3.950000e-01    2.500000e+00
  TP3q  C6vr  1 3.950000e-01    2.700000e+00
  TP2q  C6vr  1 3.950000e-01    2.700000e+00
  TP1q  C6vr  1 3.950000e-01    2.700000e+00
  TN6q  C6vr  1 3.950000e-01    2.940000e+00
  TN5q  C6vr  1 3.950000e-01    2.940000e+00
  TN4q  C6vr  1 3.950000e-01    2.940000e+00
  TN3q  C6vr  1 3.950000e-01    2.940000e+00
  TN2q  C6vr  1 3.950000e-01    2.940000e+00
  TN1q  C6vr  1 3.950000e-01    3.190000e+00
  TC6q  C6vr  1 3.950000e-01    3.190000e+00
 TC6vr   C5q  1 3.950000e-01    2.940000e+00
 TC6vr   C4q  1 3.950000e-01    2.940000e+00
 TC6vr   C3q  1 3.950000e-01    2.700000e+00
 TC6vr   C2q  1 3.950000e-01    2.500000e+00
 TC6vr   C1q  1 3.950000e-01    2.310000e+00
 TC6vr   X4q  1 3.950000e-01    2.940000e+00
 TC6vr   X3q  1 3.950000e-01    2.940000e+00
 TC6vr   X2q  1 3.950000e-01    2.940000e+00
 TC6vr   X1q  1 3.950000e-01    2.940000e+00
 TP6dq  C6vr  1 3.950000e-01    1.850000e+00
 TP5dq  C6vr  1 3.950000e-01    1.850000e+00
 TP4dq  C6vr  1 3.950000e-01    2.110000e+00
 TP3dq  C6vr  1 3.950000e-01    2.310000e+00
 TP2dq  C6vr  1 3.950000e-01    2.310000e+00
 TP1dq  C6vr  1 3.950000e-01    2.310000e+00
 TN6dq  C6vr  1 3.950000e-01    2.500000e+00
 TN5dq  C6vr  1 3.950000e-01    2.500000e+00
 TN4dq  C6vr  1 3.950000e-01    2.500000e+00
 TN3dq  C6vr  1 3.950000e-01    2.500000e+00
 TN2dq  C6vr  1 3.950000e-01    2.500000e+00
 TN1dq  C6vr  1 3.950000e-01    2.700000e+00
 TP6aq  C6vr  1 3.950000e-01    2.310000e+00
 TP5aq  C6vr  1 3.950000e-01    2.310000e+00
 TP4aq  C6vr  1 3.950000e-01    2.500000e+00
 TP3aq  C6vr  1 3.950000e-01    2.700000e+00
 TP2aq  C6vr  1 3.950000e-01    2.700000e+00
 TP1aq  C6vr  1 3.950000e-01    2.700000e+00
 TN6aq  C6vr  1 3.950000e-01    2.940000e+00
 TN5aq  C6vr  1 3.950000e-01    2.940000e+00
 TN4aq  C6vr  1 3.950000e-01    2.940000e+00
 TN3aq  C6vr  1 3.950000e-01    2.940000e+00
 TN2aq  C6vr  1 3.950000e-01    2.940000e+00
 TN1aq  C6vr  1 3.950000e-01    3.190000e+00
 TC6vr  C6vq  1 3.950000e-01    2.700000e+00
 TC6vr  X1eq  1 3.950000e-01    3.190000e+00
 TC6vr  X2eq  1 3.950000e-01    3.190000e+00
 TC6vr  X3eq  1 3.950000e-01    3.190000e+00
 TC6vr  X4eq  1 3.950000e-01    3.190000e+00
 TC6vr  C1eq  1 3.950000e-01    2.500000e+00
 TC6vr  C2eq  1 3.950000e-01    2.700000e+00
 TC6vr  C3eq  1 3.950000e-01    2.940000e+00
 TC6vr  C4eq  1 3.950000e-01    3.190000e+00
 TC6vr  C5eq  1 3.950000e-01    3.190000e+00
 TC6vr  C6eq  1 3.950000e-01    3.430000e+00
 TC6vr  X1vq  1 3.950000e-01    2.500000e+00
 TC6vr  X2vq  1 3.950000e-01    2.500000e+00
 TC6vr  X3vq  1 3.950000e-01    2.500000e+00
 TC6vr  X4vq  1 3.950000e-01    2.500000e+00
 TC6vr  C1vq  1 3.950000e-01    1.850000e+00
 TC6vr  C2vq  1 3.950000e-01    2.110000e+00
 TC6vr  C3vq  1 3.950000e-01    2.310000e+00
 TC6vr  C4vq  1 3.950000e-01    2.500000e+00
 TC6vr  C5vq  1 3.950000e-01    2.500000e+00
  TC5v  C5vr  1 3.950000e-01    2.110000e+00
 TC5vr   C4v  1 3.950000e-01    2.110000e+00
 TC5vr   C3v  1 3.950000e-01    1.850000e+00
 TC5vr   C2v  1 3.950000e-01    1.670000e+00
 TC5vr   C1v  1 3.950000e-01    1.670000e+00
 TC5vr   X4v  1 3.950000e-01    1.850000e+00
 TC5vr   X3v  1 3.950000e-01    1.850000e+00
 TC5vr   X2v  1 3.950000e-01    1.850000e+00
 TC5vr   X1v  1 3.950000e-01    2.110000e+00
  TC6e  C5vr  1 3.950000e-01    2.700000e+00
 TC5vr   C5e  1 3.950000e-01    2.700000e+00
 TC5vr   C4e  1 3.950000e-01    2.700000e+00
 TC5vr   C3e  1 3.950000e-01    2.500000e+00
 TC5vr   C2e  1 3.950000e-01    2.310000e+00
 TC5vr   C1e  1 3.950000e-01    2.310000e+00
 TC5vr   X4e  1 3.950000e-01    2.500000e+00
 TC5vr   X3e  1 3.950000e-01    2.500000e+00
 TC5vr   X2e  1 3.950000e-01    2.500000e+00
 TC5vr   X1e  1 3.950000e-01    2.700000e+00
  TP6q  C5vr  1 3.950000e-01    2.110000e+00
  TP5q  C5vr  1 3.950000e-01    2.310000e+00
  TP4q  C5vr  1 3.950000e-01    2.310000e+00
  TP3q  C5vr  1 3.950000e-01    2.500000e+00
  TP2q  C5vr  1 3.950000e-01    2.500000e+00
  TP1q  C5vr  1 3.950000e-01    2.500000e+00
  TN6q  C5vr  1 3.950000e-01    2.700000e+00
  TN5q  C5vr  1 3.950000e-01    2.700000e+00
  TN4q  C5vr  1 3.950000e-01    2.700000e+00
  TN3q  C5vr  1 3.950000e-01    2.700000e+00
  TN2q  C5vr  1 3.950000e-01    2.700000e+00
  TN1q  C5vr  1 3.950000e-01    2.940000e+00
  TC6q  C5vr  1 3.950000e-01    2.940000e+00
  TC5q  C5vr  1 3.950000e-01    2.940000e+00
 TC5vr   C4q  1 3.950000e-01    2.940000e+00
 TC5vr   C3q  1 3.950000e-01    2.700000e+00
 TC5vr   C2q  1 3.950000e-01    2.500000e+00
 TC5vr   C1q  1 3.950000e-01    2.500000e+00
 TC5vr   X4q  1 3.950000e-01    2.700000e+00
 TC5vr   X3q  1 3.950000e-01    2.700000e+00
 TC5vr   X2q  1 3.950000e-01    2.700000e+00
 TC5vr   X1q  1 3.950000e-01    2.940000e+00
 TP6dq  C5vr  1 3.950000e-01    1.670000e+00
 TP5dq  C5vr  1 3.950000e-01    1.850000e+00
 TP4dq  C5vr  1 3.950000e-01    1.850000e+00
 TP3dq  C5vr  1 3.950000e-01    2.110000e+00
 TP2dq  C5vr  1 3.950000e-01    2.110000e+00
 TP1dq  C5vr  1 3.950000e-01    2.110000e+00
 TN6dq  C5vr  1 3.950000e-01    2.310000e+00
 TN5dq  C5vr  1 3.950000e-01    2.310000e+00
 TN4dq  C5vr  1 3.950000e-01    2.310000e+00
 TN3dq  C5vr  1 3.950000e-01    2.310000e+00
 TN2dq  C5vr  1 3.950000e-01    2.310000e+00
 TN1dq  C5vr  1 3.950000e-01    2.500000e+00
 TP6aq  C5vr  1 3.950000e-01    2.110000e+00
 TP5aq  C5vr  1 3.950000e-01    2.310000e+00
 TP4aq  C5vr  1 3.950000e-01    2.310000e+00
 TP3aq  C5vr  1 3.950000e-01    2.500000e+00
 TP2aq  C5vr  1 3.950000e-01    2.500000e+00
 TP1aq  C5vr  1 3.950000e-01    2.500000e+00
 TN6aq  C5vr  1 3.950000e-01    2.700000e+00
 TN5aq  C5vr  1 3.950000e-01    2.700000e+00
 TN4aq  C5vr  1 3.950000e-01    2.700000e+00
 TN3aq  C5vr  1 3.950000e-01    2.700000e+00
 TN2aq  C5vr  1 3.950000e-01    2.700000e+00
 TN1aq  C5vr  1 3.950000e-01    2.940000e+00
 TC6vq  C5vr  1 3.950000e-01    2.500000e+00
 TC5vr  C5vq  1 3.950000e-01    2.500000e+00
 TC5vr  X1eq  1 3.950000e-01    3.190000e+00
 TC5vr  X2eq  1 3.950000e-01    2.940000e+00
 TC5vr  X3eq  1 3.950000e-01    2.940000e+00
 TC5vr  X4eq  1 3.950000e-01    2.940000e+00
 TC5vr  C1eq  1 3.950000e-01    2.700000e+00
 TC5vr  C2eq  1 3.950000e-01    2.700000e+00
 TC5vr  C3eq  1 3.950000e-01    2.940000e+00
 TC5vr  C4eq  1 3.950000e-01    3.190000e+00
 TC5vr  C5eq  1 3.950000e-01    3.190000e+00
 TC6eq  C5vr  1 3.950000e-01    3.190000e+00
 TC5vr  X1vq  1 3.950000e-01    2.500000e+00
 TC5vr  X2vq  1 3.950000e-01    2.310000e+00
 TC5vr  X3vq  1 3.950000e-01    2.310000e+00
 TC5vr  X4vq  1 3.950000e-01    2.310000e+00
 TC5vr  C1vq  1 3.950000e-01    2.110000e+00
 TC5vr  C2vq  1 3.950000e-01    2.110000e+00
 TC5vr  C3vq  1 3.950000e-01    2.310000e+00
 TC5vr  C4vq  1 3.950000e-01    2.500000e+00
  TC4v  C4vr  1 3.950000e-01    2.110000e+00
 TC4vr   C3v  1 3.950000e-01    2.110000e+00
 TC4vr   C2v  1 3.950000e-01    1.850000e+00
 TC4vr   C1v  1 3.950000e-01    1.670000e+00
 TC4vr   X4v  1 3.950000e-01    1.850000e+00
 TC4vr   X3v  1 3.950000e-01    1.850000e+00
 TC4vr   X2v  1 3.950000e-01    1.850000e+00
 TC4vr   X1v  1 3.950000e-01    2.110000e+00
  TC6e  C4vr  1 3.950000e-01    2.700000e+00
  TC5e  C4vr  1 3.950000e-01    2.700000e+00
 TC4vr   C4e  1 3.950000e-01    2.700000e+00
 TC4vr   C3e  1 3.950000e-01    2.700000e+00
 TC4vr   C2e  1 3.950000e-01    2.500000e+00
 TC4vr   C1e  1 3.950000e-01    2.310000e+00
 TC4vr   X4e  1 3.950000e-01    2.500000e+00
 TC4vr   X3e  1 3.950000e-01    2.500000e+00
 TC4vr   X2e  1 3.950000e-01    2.500000e+00
 TC4vr   X1e  1 3.950000e-01    2.700000e+00
  TP6q  C4vr  1 3.950000e-01    1.850000e+00
  TP5q  C4vr  1 3.950000e-01    2.110000e+00
  TP4q  C4vr  1 3.950000e-01    2.110000e+00
  TP3q  C4vr  1 3.950000e-01    2.310000e+00
  TP2q  C4vr  1 3.950000e-01    2.310000e+00
  TP1q  C4vr  1 3.950000e-01    2.310000e+00
  TN6q  C4vr  1 3.950000e-01    2.500000e+00
  TN5q  C4vr  1 3.950000e-01    2.500000e+00
  TN4q  C4vr  1 3.950000e-01    2.700000e+00
  TN3q  C4vr  1 3.950000e-01    2.700000e+00
  TN2q  C4vr  1 3.950000e-01    2.700000e+00
  TN1q  C4vr  1 3.950000e-01    2.940000e+00
  TC6q  C4vr  1 3.950000e-01    2.940000e+00
  TC5q  C4vr  1 3.950000e-01    2.940000e+00
  TC4q  C4vr  1 3.950000e-01    2.940000e+00
 TC4vr   C3q  1 3.950000e-01    2.940000e+00
 TC4vr   C2q  1 3.950000e-01    2.700000e+00
 TC4vr   C1q  1 3.950000e-01    2.500000e+00
 TC4vr   X4q  1 3.950000e-01    2.700000e+00
 TC4vr   X3q  1 3.950000e-01    2.700000e+00
 TC4vr   X2q  1 3.950000e-01    2.700000e+00
 TC4vr   X1q  1 3.950000e-01    2.940000e+00
 TP6dq  C4vr  1 3.980000e-01    1.450000e+00
 TP5dq  C4vr  1 3.950000e-01    1.670000e+00
 TP4dq  C4vr  1 3.950000e-01    1.670000e+00
 TP3dq  C4vr  1 3.950000e-01    1.850000e+00
 TP2dq  C4vr  1 3.950000e-01    1.850000e+00
 TP1dq  C4vr  1 3.950000e-01    1.850000e+00
 TN6dq  C4vr  1 3.950000e-01    2.110000e+00
 TN5dq  C4vr  1 3.950000e-01    2.110000e+00
 TN4dq  C4vr  1 3.950000e-01    2.310000e+00
 TN3dq  C4vr  1 3.950000e-01    2.310000e+00
 TN2dq  C4vr  1 3.950000e-01    2.310000e+00
 TN1dq  C4vr  1 3.950000e-01    2.500000e+00
 TP6aq  C4vr  1 3.950000e-01    1.850000e+00
 TP5aq  C4vr  1 3.950000e-01    2.110000e+00
 TP4aq  C4vr  1 3.950000e-01    2.110000e+00
 TP3aq  C4vr  1 3.950000e-01    2.310000e+00
 TP2aq  C4vr  1 3.950000e-01    2.310000e+00
 TP1aq  C4vr  1 3.950000e-01    2.310000e+00
 TN6aq  C4vr  1 3.950000e-01    2.500000e+00
 TN5aq  C4vr  1 3.950000e-01    2.500000e+00
 TN4aq  C4vr  1 3.950000e-01    2.700000e+00
 TN3aq  C4vr  1 3.950000e-01    2.700000e+00
 TN2aq  C4vr  1 3.950000e-01    2.700000e+00
 TN1aq  C4vr  1 3.950000e-01    2.940000e+00
 TC6vq  C4vr  1 3.950000e-01    2.500000e+00
 TC5vq  C4vr  1 3.950000e-01    2.500000e+00
 TC4vr  C4vq  1 3.950000e-01    2.500000e+00
 TC4vr  X1eq  1 3.950000e-01    3.190000e+00
 TC4vr  X2eq  1 3.950000e-01    2.940000e+00
 TC4vr  X3eq  1 3.950000e-01    2.940000e+00
 TC4vr  X4eq  1 3.950000e-01    2.940000e+00
 TC4vr  C1eq  1 3.950000e-01    2.700000e+00
 TC4vr  C2eq  1 3.950000e-01    2.940000e+00
 TC4vr  C3eq  1 3.950000e-01    3.190000e+00
 TC4vr  C4eq  1 3.950000e-01    3.190000e+00
 TC5eq  C4vr  1 3.950000e-01    3.190000e+00
 TC6eq  C4vr  1 3.950000e-01    3.190000e+00
 TC4vr  X1vq  1 3.950000e-01    2.500000e+00
 TC4vr  X2vq  1 3.950000e-01    2.310000e+00
 TC4vr  X3vq  1 3.950000e-01    2.310000e+00
 TC4vr  X4vq  1 3.950000e-01    2.310000e+00
 TC4vr  C1vq  1 3.950000e-01    2.110000e+00
 TC4vr  C2vq  1 3.950000e-01    2.310000e+00
 TC4vr  C3vq  1 3.950000e-01    2.500000e+00
  TC3v  C3vr  1 3.950000e-01    2.110000e+00
 TC3vr   C2v  1 3.950000e-01    2.110000e+00
 TC3vr   C1v  1 3.950000e-01    2.110000e+00
 TC3vr   X4v  1 3.950000e-01    1.850000e+00
 TC3vr   X3v  1 3.950000e-01    1.850000e+00
 TC3vr   X2v  1 3.950000e-01    1.850000e+00
 TC3vr   X1v  1 3.950000e-01    2.110000e+00
  TC6e  C3vr  1 3.950000e-01    2.500000e+00
  TC5e  C3vr  1 3.950000e-01    2.500000e+00
  TC4e  C3vr  1 3.950000e-01    2.700000e+00
 TC3vr   C3e  1 3.950000e-01    2.700000e+00
 TC3vr   C2e  1 3.950000e-01    2.700000e+00
 TC3vr   C1e  1 3.950000e-01    2.700000e+00
 TC3vr   X4e  1 3.950000e-01    2.500000e+00
 TC3vr   X3e  1 3.950000e-01    2.500000e+00
 TC3vr   X2e  1 3.950000e-01    2.500000e+00
 TC3vr   X1e  1 3.950000e-01    2.700000e+00
  TP6q  C3vr  1 3.950000e-01    1.670000e+00
  TP5q  C3vr  1 3.950000e-01    1.850000e+00
  TP4q  C3vr  1 3.950000e-01    1.850000e+00
  TP3q  C3vr  1 3.950000e-01    1.850000e+00
  TP2q  C3vr  1 3.950000e-01    2.110000e+00
  TP1q  C3vr  1 3.950000e-01    2.110000e+00
  TN6q  C3vr  1 3.950000e-01    2.310000e+00
  TN5q  C3vr  1 3.950000e-01    2.500000e+00
  TN4q  C3vr  1 3.950000e-01    2.500000e+00
  TN3q  C3vr  1 3.950000e-01    2.500000e+00
  TN2q  C3vr  1 3.950000e-01    2.700000e+00
  TN1q  C3vr  1 3.950000e-01    2.700000e+00
  TC6q  C3vr  1 3.950000e-01    2.700000e+00
  TC5q  C3vr  1 3.950000e-01    2.700000e+00
  TC4q  C3vr  1 3.950000e-01    2.940000e+00
  TC3q  C3vr  1 3.950000e-01    2.940000e+00
 TC3vr   C2q  1 3.950000e-01    2.940000e+00
 TC3vr   C1q  1 3.950000e-01    2.940000e+00
 TC3vr   X4q  1 3.950000e-01    2.700000e+00
 TC3vr   X3q  1 3.950000e-01    2.700000e+00
 TC3vr   X2q  1 3.950000e-01    2.700000e+00
 TC3vr   X1q  1 3.950000e-01    2.940000e+00
 TP6dq  C3vr  1 3.990000e-01    1.180000e+00
 TP5dq  C3vr  1 3.980000e-01    1.450000e+00
 TP4dq  C3vr  1 3.980000e-01    1.450000e+00
 TP3dq  C3vr  1 3.980000e-01    1.450000e+00
 TP2dq  C3vr  1 3.950000e-01    1.670000e+00
 TP1dq  C3vr  1 3.950000e-01    1.670000e+00
 TN6dq  C3vr  1 3.950000e-01    1.850000e+00
 TN5dq  C3vr  1 3.950000e-01    2.110000e+00
 TN4dq  C3vr  1 3.950000e-01    2.110000e+00
 TN3dq  C3vr  1 3.950000e-01    2.110000e+00
 TN2dq  C3vr  1 3.950000e-01    2.310000e+00
 TN1dq  C3vr  1 3.950000e-01    2.310000e+00
 TP6aq  C3vr  1 3.950000e-01    1.670000e+00
 TP5aq  C3vr  1 3.950000e-01    1.850000e+00
 TP4aq  C3vr  1 3.950000e-01    1.850000e+00
 TP3aq  C3vr  1 3.950000e-01    1.850000e+00
 TP2aq  C3vr  1 3.950000e-01    2.110000e+00
 TP1aq  C3vr  1 3.950000e-01    2.110000e+00
 TN6aq  C3vr  1 3.950000e-01    2.310000e+00
 TN5aq  C3vr  1 3.950000e-01    2.500000e+00
 TN4aq  C3vr  1 3.950000e-01    2.500000e+00
 TN3aq  C3vr  1 3.950000e-01    2.500000e+00
 TN2aq  C3vr  1 3.950000e-01    2.700000e+00
 TN1aq  C3vr  1 3.950000e-01    2.700000e+00
 TC6vq  C3vr  1 3.950000e-01    2.310000e+00
 TC5vq  C3vr  1 3.950000e-01    2.310000e+00
 TC4vq  C3vr  1 3.950000e-01    2.500000e+00
 TC3vr  C3vq  1 3.950000e-01    2.500000e+00
 TC3vr  X1eq  1 3.950000e-01    3.190000e+00
 TC3vr  X2eq  1 3.950000e-01    2.940000e+00
 TC3vr  X3eq  1 3.950000e-01    2.940000e+00
 TC3vr  X4eq  1 3.950000e-01    2.940000e+00
 TC3vr  C1eq  1 3.950000e-01    3.190000e+00
 TC3vr  C2eq  1 3.950000e-01    3.190000e+00
 TC3vr  C3eq  1 3.950000e-01    3.190000e+00
 TC4eq  C3vr  1 3.950000e-01    3.190000e+00
 TC5eq  C3vr  1 3.950000e-01    2.940000e+00
 TC6eq  C3vr  1 3.950000e-01    2.940000e+00
 TC3vr  X1vq  1 3.950000e-01    2.500000e+00
 TC3vr  X2vq  1 3.950000e-01    2.310000e+00
 TC3vr  X3vq  1 3.950000e-01    2.310000e+00
 TC3vr  X4vq  1 3.950000e-01    2.310000e+00
 TC3vr  C1vq  1 3.950000e-01    2.500000e+00
 TC3vr  C2vq  1 3.950000e-01    2.500000e+00
  TC2v  C2vr  1 3.950000e-01    2.110000e+00
 TC2vr   C1v  1 3.950000e-01    2.310000e+00
 TC2vr   X4v  1 3.980000e-01    1.450000e+00
 TC2vr   X3v  1 3.950000e-01    1.850000e+00
 TC2vr   X2v  1 3.950000e-01    1.850000e+00
 TC2vr   X1v  1 3.950000e-01    1.850000e+00
  TC6e  C2vr  1 3.950000e-01    2.310000e+00
  TC5e  C2vr  1 3.950000e-01    2.310000e+00
  TC4e  C2vr  1 3.950000e-01    2.500000e+00
  TC3e  C2vr  1 3.950000e-01    2.700000e+00
 TC2vr   C2e  1 3.950000e-01    2.700000e+00
 TC2vr   C1e  1 3.950000e-01    2.940000e+00
 TC2vr   X4e  1 3.950000e-01    2.110000e+00
 TC2vr   X3e  1 3.950000e-01    2.500000e+00
 TC2vr   X2e  1 3.950000e-01    2.500000e+00
 TC2vr   X1e  1 3.950000e-01    2.500000e+00
  TP6q  C2vr  1 3.950000e-01    1.670000e+00
  TP5q  C2vr  1 3.950000e-01    1.850000e+00
  TP4q  C2vr  1 3.950000e-01    1.850000e+00
  TP3q  C2vr  1 3.950000e-01    1.850000e+00
  TP2q  C2vr  1 3.950000e-01    2.110000e+00
  TP1q  C2vr  1 3.950000e-01    2.110000e+00
  TN6q  C2vr  1 3.950000e-01    2.310000e+00
  TN5q  C2vr  1 3.950000e-01    2.310000e+00
  TN4q  C2vr  1 3.950000e-01    2.310000e+00
  TN3q  C2vr  1 3.950000e-01    2.500000e+00
  TN2q  C2vr  1 3.950000e-01    2.500000e+00
  TN1q  C2vr  1 3.950000e-01    2.500000e+00
  TC6q  C2vr  1 3.950000e-01    2.500000e+00
  TC5q  C2vr  1 3.950000e-01    2.500000e+00
  TC4q  C2vr  1 3.950000e-01    2.700000e+00
  TC3q  C2vr  1 3.950000e-01    2.940000e+00
  TC2q  C2vr  1 3.950000e-01    2.940000e+00
 TC2vr   C1q  1 3.950000e-01    3.190000e+00
 TC2vr   X4q  1 3.950000e-01    2.310000e+00
 TC2vr   X3q  1 3.950000e-01    2.700000e+00
 TC2vr   X2q  1 3.950000e-01    2.700000e+00
 TC2vr   X1q  1 3.950000e-01    2.700000e+00
 TP6dq  C2vr  1 3.990000e-01    1.180000e+00
 TP5dq  C2vr  1 3.980000e-01    1.450000e+00
 TP4dq  C2vr  1 3.980000e-01    1.450000e+00
 TP3dq  C2vr  1 3.980000e-01    1.450000e+00
 TP2dq  C2vr  1 3.950000e-01    1.670000e+00
 TP1dq  C2vr  1 3.950000e-01    1.670000e+00
 TN6dq  C2vr  1 3.950000e-01    1.850000e+00
 TN5dq  C2vr  1 3.950000e-01    1.850000e+00
 TN4dq  C2vr  1 3.950000e-01    1.850000e+00
 TN3dq  C2vr  1 3.950000e-01    2.110000e+00
 TN2dq  C2vr  1 3.950000e-01    2.110000e+00
 TN1dq  C2vr  1 3.950000e-01    2.110000e+00
 TP6aq  C2vr  1 3.950000e-01    1.670000e+00
 TP5aq  C2vr  1 3.950000e-01    1.850000e+00
 TP4aq  C2vr  1 3.950000e-01    1.850000e+00
 TP3aq  C2vr  1 3.950000e-01    1.850000e+00
 TP2aq  C2vr  1 3.950000e-01    2.110000e+00
 TP1aq  C2vr  1 3.950000e-01    2.110000e+00
 TN6aq  C2vr  1 3.950000e-01    2.310000e+00
 TN5aq  C2vr  1 3.950000e-01    2.310000e+00
 TN4aq  C2vr  1 3.950000e-01    2.310000e+00
 TN3aq  C2vr  1 3.950000e-01    2.500000e+00
 TN2aq  C2vr  1 3.950000e-01    2.500000e+00
 TN1aq  C2vr  1 3.950000e-01    2.500000e+00
 TC6vq  C2vr  1 3.950000e-01    2.110000e+00
 TC5vq  C2vr  1 3.950000e-01    2.110000e+00
 TC4vq  C2vr  1 3.950000e-01    2.310000e+00
 TC3vq  C2vr  1 3.950000e-01    2.500000e+00
 TC2vr  C2vq  1 3.950000e-01    2.500000e+00
 TC2vr  X1eq  1 3.950000e-01    2.940000e+00
 TC2vr  X2eq  1 3.950000e-01    2.940000e+00
 TC2vr  X3eq  1 3.950000e-01    2.940000e+00
 TC2vr  X4eq  1 3.950000e-01    2.500000e+00
 TC2vr  C1eq  1 3.950000e-01    3.430000e+00
 TC2vr  C2eq  1 3.950000e-01    3.190000e+00
 TC3eq  C2vr  1 3.950000e-01    3.190000e+00
 TC4eq  C2vr  1 3.950000e-01    2.940000e+00
 TC5eq  C2vr  1 3.950000e-01    2.700000e+00
 TC6eq  C2vr  1 3.950000e-01    2.700000e+00
 TC2vr  X1vq  1 3.950000e-01    2.310000e+00
 TC2vr  X2vq  1 3.950000e-01    2.310000e+00
 TC2vr  X3vq  1 3.950000e-01    2.310000e+00
 TC2vr  X4vq  1 3.950000e-01    1.850000e+00
 TC2vr  C1vq  1 3.950000e-01    2.700000e+00
  TC1v  C1vr  1 3.950000e-01    2.110000e+00
 TC1vr   X4v  1 3.980000e-01    1.450000e+00
 TC1vr   X3v  1 3.950000e-01    1.850000e+00
 TC1vr   X2v  1 3.950000e-01    1.850000e+00
 TC1vr   X1v  1 3.950000e-01    1.850000e+00
  TC6e  C1vr  1 3.950000e-01    2.110000e+00
  TC5e  C1vr  1 3.950000e-01    2.310000e+00
  TC4e  C1vr  1 3.950000e-01    2.310000e+00
  TC3e  C1vr  1 3.950000e-01    2.700000e+00
  TC2e  C1vr  1 3.950000e-01    2.940000e+00
 TC1vr   C1e  1 3.950000e-01    2.700000e+00
 TC1vr   X4e  1 3.950000e-01    2.110000e+00
 TC1vr   X3e  1 3.950000e-01    2.500000e+00
 TC1vr   X2e  1 3.950000e-01    2.500000e+00
 TC1vr   X1e  1 3.950000e-01    2.500000e+00
  TP6q  C1vr  1 3.990000e-01    1.180000e+00
  TP5q  C1vr  1 3.950000e-01    1.670000e+00
  TP4q  C1vr  1 3.950000e-01    1.670000e+00
  TP3q  C1vr  1 3.950000e-01    1.670000e+00
  TP2q  C1vr  1 3.950000e-01    1.850000e+00
  TP1q  C1vr  1 3.950000e-01    1.850000e+00
  TN6q  C1vr  1 3.950000e-01    2.110000e+00
  TN5q  C1vr  1 3.950000e-01    2.110000e+00
  TN4q  C1vr  1 3.950000e-01    2.110000e+00
  TN3q  C1vr  1 3.950000e-01    2.310000e+00
  TN2q  C1vr  1 3.950000e-01    2.310000e+00
  TN1q  C1vr  1 3.950000e-01    2.310000e+00
  TC6q  C1vr  1 3.950000e-01    2.310000e+00
  TC5q  C1vr  1 3.950000e-01    2.500000e+00
  TC4q  C1vr  1 3.950000e-01    2.500000e+00
  TC3q  C1vr  1 3.950000e-01    2.940000e+00
  TC2q  C1vr  1 3.950000e-01    3.190000e+00
  TC1q  C1vr  1 3.950000e-01    2.940000e+00
 TC1vr   X4q  1 3.950000e-01    2.310000e+00
 TC1vr   X3q  1 3.950000e-01    2.700000e+00
 TC1vr   X2q  1 3.950000e-01    2.700000e+00
 TC1vr   X1q  1 3.950000e-01    2.700000e+00
 TP6dq  C1vr  1 4.040000e-01    8.300000e-01
 TP5dq  C1vr  1 3.990000e-01    1.180000e+00
 TP4dq  C1vr  1 3.990000e-01    1.180000e+00
 TP3dq  C1vr  1 3.990000e-01    1.180000e+00
 TP2dq  C1vr  1 3.980000e-01    1.450000e+00
 TP1dq  C1vr  1 3.980000e-01    1.450000e+00
 TN6dq  C1vr  1 3.950000e-01    1.670000e+00
 TN5dq  C1vr  1 3.950000e-01    1.670000e+00
 TN4dq  C1vr  1 3.950000e-01    1.670000e+00
 TN3dq  C1vr  1 3.950000e-01    1.850000e+00
 TN2dq  C1vr  1 3.950000e-01    1.850000e+00
 TN1dq  C1vr  1 3.950000e-01    1.850000e+00
 TP6aq  C1vr  1 3.990000e-01    1.180000e+00
 TP5aq  C1vr  1 3.950000e-01    1.670000e+00
 TP4aq  C1vr  1 3.950000e-01    1.670000e+00
 TP3aq  C1vr  1 3.950000e-01    1.670000e+00
 TP2aq  C1vr  1 3.950000e-01    1.850000e+00
 TP1aq  C1vr  1 3.950000e-01    1.850000e+00
 TN6aq  C1vr  1 3.950000e-01    2.110000e+00
 TN5aq  C1vr  1 3.950000e-01    2.110000e+00
 TN4aq  C1vr  1 3.950000e-01    2.110000e+00
 TN3aq  C1vr  1 3.950000e-01    2.310000e+00
 TN2aq  C1vr  1 3.950000e-01    2.310000e+00
 TN1aq  C1vr  1 3.950000e-01    2.310000e+00
 TC6vq  C1vr  1 3.950000e-01    1.850000e+00
 TC5vq  C1vr  1 3.950000e-01    2.110000e+00
 TC4vq  C1vr  1 3.950000e-01    2.110000e+00
 TC3vq  C1vr  1 3.950000e-01    2.500000e+00
 TC2vq  C1vr  1 3.950000e-01    2.700000e+00
 TC1vr  C1vq  1 3.950000e-01    2.500000e+00
 TC1vr  X1eq  1 3.950000e-01    2.940000e+00
 TC1vr  X2eq  1 3.950000e-01    2.940000e+00
 TC1vr  X3eq  1 3.950000e-01    2.940000e+00
 TC1vr  X4eq  1 3.950000e-01    2.500000e+00
 TC1vr  C1eq  1 3.950000e-01    3.190000e+00
 TC2eq  C1vr  1 3.950000e-01    3.430000e+00
 TC3eq  C1vr  1 3.950000e-01    3.190000e+00
 TC4eq  C1vr  1 3.950000e-01    2.700000e+00
 TC5eq  C1vr  1 3.950000e-01    2.700000e+00
 TC6eq  C1vr  1 3.950000e-01    2.500000e+00
 TC1vr  X1vq  1 3.950000e-01    2.310000e+00
 TC1vr  X2vq  1 3.950000e-01    2.310000e+00
 TC1vr  X3vq  1 3.950000e-01    2.310000e+00
 TC1vr  X4vq  1 3.950000e-01    1.850000e+00
  TX4v  X4vr  1 3.950000e-01    2.110000e+00
 TX4vr   X3v  1 3.950000e-01    2.110000e+00
 TX4vr   X2v  1 3.950000e-01    2.110000e+00
 TX4vr   X1v  1 3.950000e-01    2.110000e+00
  TC6e  X4vr  1 3.950000e-01    2.700000e+00
  TC5e  X4vr  1 3.950000e-01    2.500000e+00
  TC4e  X4vr  1 3.950000e-01    2.500000e+00
  TC3e  X4vr  1 3.950000e-01    2.500000e+00
  TC2e  X4vr  1 3.950000e-01    2.110000e+00
  TC1e  X4vr  1 3.950000e-01    2.110000e+00
 TX4vr   X4e  1 3.950000e-01    2.700000e+00
 TX4vr   X3e  1 3.950000e-01    2.700000e+00
 TX4vr   X2e  1 3.950000e-01    2.700000e+00
 TX4vr   X1e  1 3.950000e-01    2.700000e+00
  TP6q  X4vr  1 3.950000e-01    2.500000e+00
  TP5q  X4vr  1 3.950000e-01    2.700000e+00
  TP4q  X4vr  1 3.950000e-01    2.700000e+00
  TP3q  X4vr  1 3.950000e-01    2.700000e+00
  TP2q  X4vr  1 3.950000e-01    2.700000e+00
  TP1q  X4vr  1 3.950000e-01    2.700000e+00
  TN6q  X4vr  1 3.950000e-01    2.940000e+00
  TN5q  X4vr  1 3.950000e-01    3.190000e+00
  TN4q  X4vr  1 3.950000e-01    3.430000e+00
  TN3q  X4vr  1 3.950000e-01    3.190000e+00
  TN2q  X4vr  1 3.950000e-01    3.190000e+00
  TN1q  X4vr  1 3.950000e-01    2.940000e+00
  TC6q  X4vr  1 3.950000e-01    2.940000e+00
  TC5q  X4vr  1 3.950000e-01    2.700000e+00
  TC4q  X4vr  1 3.950000e-01    2.700000e+00
  TC3q  X4vr  1 3.950000e-01    2.700000e+00
  TC2q  X4vr  1 3.950000e-01    2.310000e+00
  TC1q  X4vr  1 3.950000e-01    2.310000e+00
  TX4q  X4vr  1 3.950000e-01    2.940000e+00
 TX4vr   X3q  1 3.950000e-01    2.940000e+00
 TX4vr   X2q  1 3.950000e-01    2.940000e+00
 TX4vr   X1q  1 3.950000e-01    2.940000e+00
 TP6dq  X4vr  1 3.950000e-01    2.110000e+00
 TP5dq  X4vr  1 3.950000e-01    2.310000e+00
 TP4dq  X4vr  1 3.950000e-01    2.310000e+00
 TP3dq  X4vr  1 3.950000e-01    2.310000e+00
 TP2dq  X4vr  1 3.950000e-01    2.310000e+00
 TP1dq  X4vr  1 3.950000e-01    2.310000e+00
 TN6dq  X4vr  1 3.950000e-01    2.500000e+00
 TN5dq  X4vr  1 3.950000e-01    2.700000e+00
 TN4dq  X4vr  1 3.950000e-01    2.940000e+00
 TN3dq  X4vr  1 3.950000e-01    2.700000e+00
 TN2dq  X4vr  1 3.950000e-01    2.700000e+00
 TN1dq  X4vr  1 3.950000e-01    2.500000e+00
 TP6aq  X4vr  1 3.950000e-01    2.500000e+00
 TP5aq  X4vr  1 3.950000e-01    2.700000e+00
 TP4aq  X4vr  1 3.950000e-01    2.700000e+00
 TP3aq  X4vr  1 3.950000e-01    2.700000e+00
 TP2aq  X4vr  1 3.950000e-01    2.700000e+00
 TP1aq  X4vr  1 3.950000e-01    2.700000e+00
 TN6aq  X4vr  1 3.950000e-01    2.940000e+00
 TN5aq  X4vr  1 3.950000e-01    3.190000e+00
 TN4aq  X4vr  1 3.950000e-01    3.430000e+00
 TN3aq  X4vr  1 3.950000e-01    3.190000e+00
 TN2aq  X4vr  1 3.950000e-01    3.190000e+00
 TN1aq  X4vr  1 3.950000e-01    2.940000e+00
 TC6vq  X4vr  1 3.950000e-01    2.500000e+00
 TC5vq  X4vr  1 3.950000e-01    2.310000e+00
 TC4vq  X4vr  1 3.950000e-01    2.310000e+00
 TC3vq  X4vr  1 3.950000e-01    2.310000e+00
 TC2vq  X4vr  1 3.950000e-01    1.850000e+00
 TC1vq  X4vr  1 3.950000e-01    1.850000e+00
 TX4vr  X4vq  1 3.950000e-01    2.500000e+00
 TX4vr  X1eq  1 3.950000e-01    3.190000e+00
 TX4vr  X2eq  1 3.950000e-01    3.190000e+00
 TX4vr  X3eq  1 3.950000e-01    3.190000e+00
 TX4vr  X4eq  1 3.950000e-01    3.190000e+00
 TC1eq  X4vr  1 3.950000e-01    2.500000e+00
 TC2eq  X4vr  1 3.950000e-01    2.500000e+00
 TC3eq  X4vr  1 3.950000e-01    2.940000e+00
 TC4eq  X4vr  1 3.950000e-01    2.940000e+00
 TC5eq  X4vr  1 3.950000e-01    2.940000e+00
 TC6eq  X4vr  1 3.950000e-01    3.190000e+00
 TX4vr  X1vq  1 3.950000e-01    2.500000e+00
 TX4vr  X2vq  1 3.950000e-01    2.500000e+00
 TX4vr  X3vq  1 3.950000e-01    2.500000e+00
  TX3v  X3vr  1 3.950000e-01    2.110000e+00
 TX3vr   X2v  1 3.950000e-01    2.310000e+00
 TX3vr   X1v  1 3.950000e-01    2.310000e+00
  TC6e  X3vr  1 3.950000e-01    2.700000e+00
  TC5e  X3vr  1 3.950000e-01    2.500000e+00
  TC4e  X3vr  1 3.950000e-01    2.500000e+00
  TC3e  X3vr  1 3.950000e-01    2.500000e+00
  TC2e  X3vr  1 3.950000e-01    2.500000e+00
  TC1e  X3vr  1 3.950000e-01    2.500000e+00
  TX4e  X3vr  1 3.950000e-01    2.700000e+00
 TX3vr   X3e  1 3.950000e-01    2.700000e+00
 TX3vr   X2e  1 3.950000e-01    2.940000e+00
 TX3vr   X1e  1 3.950000e-01    2.940000e+00
  TP6q  X3vr  1 3.950000e-01    2.500000e+00
  TP5q  X3vr  1 3.950000e-01    2.500000e+00
  TP4q  X3vr  1 3.950000e-01    2.500000e+00
  TP3q  X3vr  1 3.950000e-01    2.700000e+00
  TP2q  X3vr  1 3.950000e-01    2.700000e+00
  TP1q  X3vr  1 3.950000e-01    2.700000e+00
  TN6q  X3vr  1 3.950000e-01    2.700000e+00
  TN5q  X3vr  1 3.950000e-01    2.940000e+00
  TN4q  X3vr  1 3.950000e-01    3.190000e+00
  TN3q  X3vr  1 3.950000e-01    2.940000e+00
  TN2q  X3vr  1 3.950000e-01    2.940000e+00
  TN1q  X3vr  1 3.950000e-01    2.940000e+00
  TC6q  X3vr  1 3.950000e-01    2.940000e+00
  TC5q  X3vr  1 3.950000e-01    2.700000e+00
  TC4q  X3vr  1 3.950000e-01    2.700000e+00
  TC3q  X3vr  1 3.950000e-01    2.700000e+00
  TC2q  X3vr  1 3.950000e-01    2.700000e+00
  TC1q  X3vr  1 3.950000e-01    2.700000e+00
  TX4q  X3vr  1 3.950000e-01    2.940000e+00
  TX3q  X3vr  1 3.950000e-01    2.940000e+00
 TX3vr   X2q  1 3.950000e-01    3.190000e+00
 TX3vr   X1q  1 3.950000e-01    3.190000e+00
 TP6dq  X3vr  1 3.950000e-01    2.110000e+00
 TP5dq  X3vr  1 3.950000e-01    2.110000e+00
 TP4dq  X3vr  1 3.950000e-01    2.110000e+00
 TP3dq  X3vr  1 3.950000e-01    2.310000e+00
 TP2dq  X3vr  1 3.950000e-01    2.310000e+00
 TP1dq  X3vr  1 3.950000e-01    2.310000e+00
 TN6dq  X3vr  1 3.950000e-01    2.310000e+00
 TN5dq  X3vr  1 3.950000e-01    2.500000e+00
 TN4dq  X3vr  1 3.950000e-01    2.700000e+00
 TN3dq  X3vr  1 3.950000e-01    2.500000e+00
 TN2dq  X3vr  1 3.950000e-01    2.500000e+00
 TN1dq  X3vr  1 3.950000e-01    2.500000e+00
 TP6aq  X3vr  1 3.950000e-01    2.500000e+00
 TP5aq  X3vr  1 3.950000e-01    2.500000e+00
 TP4aq  X3vr  1 3.950000e-01    2.500000e+00
 TP3aq  X3vr  1 3.950000e-01    2.700000e+00
 TP2aq  X3vr  1 3.950000e-01    2.700000e+00
 TP1aq  X3vr  1 3.950000e-01    2.700000e+00
 TN6aq  X3vr  1 3.950000e-01    2.700000e+00
 TN5aq  X3vr  1 3.950000e-01    2.940000e+00
 TN4aq  X3vr  1 3.950000e-01    3.190000e+00
 TN3aq  X3vr  1 3.950000e-01    2.940000e+00
 TN2aq  X3vr  1 3.950000e-01    2.940000e+00
 TN1aq  X3vr  1 3.950000e-01    2.940000e+00
 TC6vq  X3vr  1 3.950000e-01    2.500000e+00
 TC5vq  X3vr  1 3.950000e-01    2.310000e+00
 TC4vq  X3vr  1 3.950000e-01    2.310000e+00
 TC3vq  X3vr  1 3.950000e-01    2.310000e+00
 TC2vq  X3vr  1 3.950000e-01    2.310000e+00
 TC1vq  X3vr  1 3.950000e-01    2.310000e+00
 TX4vq  X3vr  1 3.950000e-01    2.500000e+00
 TX3vr  X3vq  1 3.950000e-01    2.500000e+00
 TX3vr  X1eq  1 3.950000e-01    3.430000e+00
 TX3vr  X2eq  1 3.950000e-01    3.430000e+00
 TX3vr  X3eq  1 3.950000e-01    3.190000e+00
 TX4eq  X3vr  1 3.950000e-01    3.190000e+00
 TC1eq  X3vr  1 3.950000e-01    2.940000e+00
 TC2eq  X3vr  1 3.950000e-01    2.940000e+00
 TC3eq  X3vr  1 3.950000e-01    2.940000e+00
 TC4eq  X3vr  1 3.950000e-01    2.940000e+00
 TC5eq  X3vr  1 3.950000e-01    2.940000e+00
 TC6eq  X3vr  1 3.950000e-01    3.190000e+00
 TX3vr  X1vq  1 3.950000e-01    2.700000e+00
 TX3vr  X2vq  1 3.950000e-01    2.700000e+00
  TX2v  X2vr  1 3.950000e-01    2.310000e+00
 TX2vr   X1v  1 3.950000e-01    2.310000e+00
  TC6e  X2vr  1 3.950000e-01    2.700000e+00
  TC5e  X2vr  1 3.950000e-01    2.500000e+00
  TC4e  X2vr  1 3.950000e-01    2.500000e+00
  TC3e  X2vr  1 3.950000e-01    2.500000e+00
  TC2e  X2vr  1 3.950000e-01    2.500000e+00
  TC1e  X2vr  1 3.950000e-01    2.500000e+00
  TX4e  X2vr  1 3.950000e-01    2.700000e+00
  TX3e  X2vr  1 3.950000e-01    2.940000e+00
 TX2vr   X2e  1 3.950000e-01    2.940000e+00
 TX2vr   X1e  1 3.950000e-01    2.940000e+00
  TP6q  X2vr  1 3.950000e-01    2.310000e+00
  TP5q  X2vr  1 3.950000e-01    2.500000e+00
  TP4q  X2vr  1 3.950000e-01    2.500000e+00
  TP3q  X2vr  1 3.950000e-01    2.500000e+00
  TP2q  X2vr  1 3.950000e-01    2.500000e+00
  TP1q  X2vr  1 3.950000e-01    2.500000e+00
  TN6q  X2vr  1 3.950000e-01    2.500000e+00
  TN5q  X2vr  1 3.950000e-01    2.700000e+00
  TN4q  X2vr  1 3.950000e-01    2.700000e+00
  TN3q  X2vr  1 3.950000e-01    2.700000e+00
  TN2q  X2vr  1 3.950000e-01    2.700000e+00
  TN1q  X2vr  1 3.950000e-01    2.700000e+00
  TC6q  X2vr  1 3.950000e-01    2.940000e+00
  TC5q  X2vr  1 3.950000e-01    2.700000e+00
  TC4q  X2vr  1 3.950000e-01    2.700000e+00
  TC3q  X2vr  1 3.950000e-01    2.700000e+00
  TC2q  X2vr  1 3.950000e-01    2.700000e+00
  TC1q  X2vr  1 3.950000e-01    2.700000e+00
  TX4q  X2vr  1 3.950000e-01    2.940000e+00
  TX3q  X2vr  1 3.950000e-01    3.190000e+00
  TX2q  X2vr  1 3.950000e-01    3.190000e+00
 TX2vr   X1q  1 3.950000e-01    3.190000e+00
 TP6dq  X2vr  1 3.950000e-01    1.850000e+00
 TP5dq  X2vr  1 3.950000e-01    2.110000e+00
 TP4dq  X2vr  1 3.950000e-01    2.110000e+00
 TP3dq  X2vr  1 3.950000e-01    2.110000e+00
 TP2dq  X2vr  1 3.950000e-01    2.110000e+00
 TP1dq  X2vr  1 3.950000e-01    2.110000e+00
 TN6dq  X2vr  1 3.950000e-01    2.110000e+00
 TN5dq  X2vr  1 3.950000e-01    2.310000e+00
 TN4dq  X2vr  1 3.950000e-01    2.310000e+00
 TN3dq  X2vr  1 3.950000e-01    2.310000e+00
 TN2dq  X2vr  1 3.950000e-01    2.310000e+00
 TN1dq  X2vr  1 3.950000e-01    2.310000e+00
 TP6aq  X2vr  1 3.950000e-01    2.310000e+00
 TP5aq  X2vr  1 3.950000e-01    2.500000e+00
 TP4aq  X2vr  1 3.950000e-01    2.500000e+00
 TP3aq  X2vr  1 3.950000e-01    2.500000e+00
 TP2aq  X2vr  1 3.950000e-01    2.500000e+00
 TP1aq  X2vr  1 3.950000e-01    2.500000e+00
 TN6aq  X2vr  1 3.950000e-01    2.500000e+00
 TN5aq  X2vr  1 3.950000e-01    2.700000e+00
 TN4aq  X2vr  1 3.950000e-01    2.700000e+00
 TN3aq  X2vr  1 3.950000e-01    2.700000e+00
 TN2aq  X2vr  1 3.950000e-01    2.700000e+00
 TN1aq  X2vr  1 3.950000e-01    2.700000e+00
 TC6vq  X2vr  1 3.950000e-01    2.500000e+00
 TC5vq  X2vr  1 3.950000e-01    2.310000e+00
 TC4vq  X2vr  1 3.950000e-01    2.310000e+00
 TC3vq  X2vr  1 3.950000e-01    2.310000e+00
 TC2vq  X2vr  1 3.950000e-01    2.310000e+00
 TC1vq  X2vr  1 3.950000e-01    2.310000e+00
 TX4vq  X2vr  1 3.950000e-01    2.500000e+00
 TX3vq  X2vr  1 3.950000e-01    2.700000e+00
 TX2vr  X2vq  1 3.950000e-01    2.700000e+00
 TX2vr  X1eq  1 3.950000e-01    3.430000e+00
 TX2vr  X2eq  1 3.950000e-01    3.430000e+00
 TX3eq  X2vr  1 3.950000e-01    3.430000e+00
 TX4eq  X2vr  1 3.950000e-01    3.190000e+00
 TC1eq  X2vr  1 3.950000e-01    2.940000e+00
 TC2eq  X2vr  1 3.950000e-01    2.940000e+00
 TC3eq  X2vr  1 3.950000e-01    2.940000e+00
 TC4eq  X2vr  1 3.950000e-01    2.940000e+00
 TC5eq  X2vr  1 3.950000e-01    2.940000e+00
 TC6eq  X2vr  1 3.950000e-01    3.190000e+00
 TX2vr  X1vq  1 3.950000e-01    2.700000e+00
  TX1v  X1vr  1 3.950000e-01    2.500000e+00
  TC6e  X1vr  1 3.950000e-01    2.700000e+00
  TC5e  X1vr  1 3.950000e-01    2.700000e+00
  TC4e  X1vr  1 3.950000e-01    2.700000e+00
  TC3e  X1vr  1 3.950000e-01    2.700000e+00
  TC2e  X1vr  1 3.950000e-01    2.500000e+00
  TC1e  X1vr  1 3.950000e-01    2.500000e+00
  TX4e  X1vr  1 3.950000e-01    2.700000e+00
  TX3e  X1vr  1 3.950000e-01    2.940000e+00
  TX2e  X1vr  1 3.950000e-01    2.940000e+00
 TX1vr   X1e  1 3.950000e-01    3.190000e+00
  TP6q  X1vr  1 3.950000e-01    2.110000e+00
  TP5q  X1vr  1 3.950000e-01    2.110000e+00
  TP4q  X1vr  1 3.950000e-01    2.310000e+00
  TP3q  X1vr  1 3.950000e-01    2.310000e+00
  TP2q  X1vr  1 3.950000e-01    2.310000e+00
  TP1q  X1vr  1 3.950000e-01    2.310000e+00
  TN6q  X1vr  1 3.950000e-01    2.310000e+00
  TN5q  X1vr  1 3.950000e-01    2.500000e+00
  TN4q  X1vr  1 3.950000e-01    2.500000e+00
  TN3q  X1vr  1 3.950000e-01    2.700000e+00
  TN2q  X1vr  1 3.950000e-01    2.700000e+00
  TN1q  X1vr  1 3.950000e-01    2.700000e+00
  TC6q  X1vr  1 3.950000e-01    2.940000e+00
  TC5q  X1vr  1 3.950000e-01    2.940000e+00
  TC4q  X1vr  1 3.950000e-01    2.940000e+00
  TC3q  X1vr  1 3.950000e-01    2.940000e+00
  TC2q  X1vr  1 3.950000e-01    2.700000e+00
  TC1q  X1vr  1 3.950000e-01    2.700000e+00
  TX4q  X1vr  1 3.950000e-01    2.940000e+00
  TX3q  X1vr  1 3.950000e-01    3.190000e+00
  TX2q  X1vr  1 3.950000e-01    3.190000e+00
  TX1q  X1vr  1 3.950000e-01    3.430000e+00
 TP6dq  X1vr  1 3.950000e-01    1.670000e+00
 TP5dq  X1vr  1 3.950000e-01    1.670000e+00
 TP4dq  X1vr  1 3.950000e-01    1.850000e+00
 TP3dq  X1vr  1 3.950000e-01    1.850000e+00
 TP2dq  X1vr  1 3.950000e-01    1.850000e+00
 TP1dq  X1vr  1 3.950000e-01    1.850000e+00
 TN6dq  X1vr  1 3.950000e-01    1.850000e+00
 TN5dq  X1vr  1 3.950000e-01    2.110000e+00
 TN4dq  X1vr  1 3.950000e-01    2.110000e+00
 TN3dq  X1vr  1 3.950000e-01    2.310000e+00
 TN2dq  X1vr  1 3.950000e-01    2.310000e+00
 TN1dq  X1vr  1 3.950000e-01    2.310000e+00
 TP6aq  X1vr  1 3.950000e-01    2.110000e+00
 TP5aq  X1vr  1 3.950000e-01    2.110000e+00
 TP4aq  X1vr  1 3.950000e-01    2.310000e+00
 TP3aq  X1vr  1 3.950000e-01    2.310000e+00
 TP2aq  X1vr  1 3.950000e-01    2.310000e+00
 TP1aq  X1vr  1 3.950000e-01    2.310000e+00
 TN6aq  X1vr  1 3.950000e-01    2.310000e+00
 TN5aq  X1vr  1 3.950000e-01    2.500000e+00
 TN4aq  X1vr  1 3.950000e-01    2.500000e+00
 TN3aq  X1vr  1 3.950000e-01    2.700000e+00
 TN2aq  X1vr  1 3.950000e-01    2.700000e+00
 TN1aq  X1vr  1 3.950000e-01    2.700000e+00
 TC6vq  X1vr  1 3.950000e-01    2.500000e+00
 TC5vq  X1vr  1 3.950000e-01    2.500000e+00
 TC4vq  X1vr  1 3.950000e-01    2.500000e+00
 TC3vq  X1vr  1 3.950000e-01    2.500000e+00
 TC2vq  X1vr  1 3.950000e-01    2.310000e+00
 TC1vq  X1vr  1 3.950000e-01    2.310000e+00
 TX4vq  X1vr  1 3.950000e-01    2.500000e+00
 TX3vq  X1vr  1 3.950000e-01    2.700000e+00
 TX2vq  X1vr  1 3.950000e-01    2.700000e+00
 TX1vr  X1vq  1 3.950000e-01    2.940000e+00
 TX1vr  X1eq  1 3.950000e-01    3.670000e+00
 TX2eq  X1vr  1 3.950000e-01    3.430000e+00
 TX3eq  X1vr  1 3.950000e-01    3.430000e+00
 TX4eq  X1vr  1 3.950000e-01    3.190000e+00
 TC1eq  X1vr  1 3.950000e-01    2.940000e+00
 TC2eq  X1vr  1 3.950000e-01    2.940000e+00
 TC3eq  X1vr  1 3.950000e-01    3.190000e+00
 TC4eq  X1vr  1 3.950000e-01    3.190000e+00
 TC5eq  X1vr  1 3.950000e-01    3.190000e+00
 TC6eq  X1vr  1 3.950000e-01    3.190000e+00
  TC6e  C6er  1 3.950000e-01    2.310000e+00
 TC6er   C5e  1 3.950000e-01    2.110000e+00
 TC6er   C4e  1 3.950000e-01    2.110000e+00
 TC6er   C3e  1 3.950000e-01    1.850000e+00
 TC6er   C2e  1 3.950000e-01    1.670000e+00
 TC6er   C1e  1 3.980000e-01    1.450000e+00
 TC6er   X4e  1 3.950000e-01    2.110000e+00
 TC6er   X3e  1 3.950000e-01    2.110000e+00
 TC6er   X2e  1 3.950000e-01    2.110000e+00
 TC6er   X1e  1 3.950000e-01    2.110000e+00
  TP6q  C6er  1 3.950000e-01    2.310000e+00
  TP5q  C6er  1 3.950000e-01    2.310000e+00
  TP4q  C6er  1 3.950000e-01    2.500000e+00
  TP3q  C6er  1 3.950000e-01    2.700000e+00
  TP2q  C6er  1 3.950000e-01    2.700000e+00
  TP1q  C6er  1 3.950000e-01    2.700000e+00
  TN6q  C6er  1 3.950000e-01    2.940000e+00
  TN5q  C6er  1 3.950000e-01    2.940000e+00
  TN4q  C6er  1 3.950000e-01    2.940000e+00
  TN3q  C6er  1 3.950000e-01    2.940000e+00
  TN2q  C6er  1 3.950000e-01    2.940000e+00
  TN1q  C6er  1 3.950000e-01    3.190000e+00
  TC6q  C6er  1 3.950000e-01    3.190000e+00
 TC6er   C5q  1 3.950000e-01    2.940000e+00
 TC6er   C4q  1 3.950000e-01    2.940000e+00
 TC6er   C3q  1 3.950000e-01    2.700000e+00
 TC6er   C2q  1 3.950000e-01    2.500000e+00
 TC6er   C1q  1 3.950000e-01    2.310000e+00
 TC6er   X4q  1 3.950000e-01    2.940000e+00
 TC6er   X3q  1 3.950000e-01    2.940000e+00
 TC6er   X2q  1 3.950000e-01    2.940000e+00
 TC6er   X1q  1 3.950000e-01    2.940000e+00
 TP6dq  C6er  1 3.950000e-01    2.310000e+00
 TP5dq  C6er  1 3.950000e-01    2.310000e+00
 TP4dq  C6er  1 3.950000e-01    2.500000e+00
 TP3dq  C6er  1 3.950000e-01    2.700000e+00
 TP2dq  C6er  1 3.950000e-01    2.700000e+00
 TP1dq  C6er  1 3.950000e-01    2.700000e+00
 TN6dq  C6er  1 3.950000e-01    2.940000e+00
 TN5dq  C6er  1 3.950000e-01    2.940000e+00
 TN4dq  C6er  1 3.950000e-01    2.940000e+00
 TN3dq  C6er  1 3.950000e-01    2.940000e+00
 TN2dq  C6er  1 3.950000e-01    2.940000e+00
 TN1dq  C6er  1 3.950000e-01    3.190000e+00
 TP6aq  C6er  1 3.950000e-01    1.850000e+00
 TP5aq  C6er  1 3.950000e-01    1.850000e+00
 TP4aq  C6er  1 3.950000e-01    2.110000e+00
 TP3aq  C6er  1 3.950000e-01    2.310000e+00
 TP2aq  C6er  1 3.950000e-01    2.310000e+00
 TP1aq  C6er  1 3.950000e-01    2.310000e+00
 TN6aq  C6er  1 3.950000e-01    2.500000e+00
 TN5aq  C6er  1 3.950000e-01    2.500000e+00
 TN4aq  C6er  1 3.950000e-01    2.500000e+00
 TN3aq  C6er  1 3.950000e-01    2.500000e+00
 TN2aq  C6er  1 3.950000e-01    2.500000e+00
 TN1aq  C6er  1 3.950000e-01    2.700000e+00
 TC6vq  C6er  1 3.950000e-01    3.430000e+00
 TC6er  C5vq  1 3.950000e-01    3.190000e+00
 TC6er  C4vq  1 3.950000e-01    3.190000e+00
 TC6er  C3vq  1 3.950000e-01    2.940000e+00
 TC6er  C2vq  1 3.950000e-01    2.700000e+00
 TC6er  C1vq  1 3.950000e-01    2.500000e+00
 TC6er  X4vq  1 3.950000e-01    3.190000e+00
 TC6er  X3vq  1 3.950000e-01    3.190000e+00
 TC6er  X2vq  1 3.950000e-01    3.190000e+00
 TC6er  X1vq  1 3.950000e-01    3.190000e+00
 TC6er  C6eq  1 3.950000e-01    2.700000e+00
 TC6er  X1eq  1 3.950000e-01    2.500000e+00
 TC6er  X2eq  1 3.950000e-01    2.500000e+00
 TC6er  X3eq  1 3.950000e-01    2.500000e+00
 TC6er  X4eq  1 3.950000e-01    2.500000e+00
 TC6er  C1eq  1 3.950000e-01    1.850000e+00
 TC6er  C2eq  1 3.950000e-01    2.110000e+00
 TC6er  C3eq  1 3.950000e-01    2.310000e+00
 TC6er  C4eq  1 3.950000e-01    2.500000e+00
 TC6er  C5eq  1 3.950000e-01    2.500000e+00
  TC5e  C5er  1 3.950000e-01    2.110000e+00
 TC5er   C4e  1 3.950000e-01    2.110000e+00
 TC5er   C3e  1 3.950000e-01    1.850000e+00
 TC5er   C2e  1 3.950000e-01    1.670000e+00
 TC5er   C1e  1 3.950000e-01    1.670000e+00
 TC5er   X4e  1 3.950000e-01    1.850000e+00
 TC5er   X3e  1 3.950000e-01    1.850000e+00
 TC5er   X2e  1 3.950000e-01    1.850000e+00
 TC5er   X1e  1 3.950000e-01    2.110000e+00
  TP6q  C5er  1 3.950000e-01    2.110000e+00
  TP5q  C5er  1 3.950000e-01    2.310000e+00
  TP4q  C5er  1 3.950000e-01    2.310000e+00
  TP3q  C5er  1 3.950000e-01    2.500000e+00
  TP2q  C5er  1 3.950000e-01    2.500000e+00
  TP1q  C5er  1 3.950000e-01    2.500000e+00
  TN6q  C5er  1 3.950000e-01    2.700000e+00
  TN5q  C5er  1 3.950000e-01    2.700000e+00
  TN4q  C5er  1 3.950000e-01    2.700000e+00
  TN3q  C5er  1 3.950000e-01    2.700000e+00
  TN2q  C5er  1 3.950000e-01    2.700000e+00
  TN1q  C5er  1 3.950000e-01    2.940000e+00
  TC6q  C5er  1 3.950000e-01    2.940000e+00
  TC5q  C5er  1 3.950000e-01    2.940000e+00
 TC5er   C4q  1 3.950000e-01    2.940000e+00
 TC5er   C3q  1 3.950000e-01    2.700000e+00
 TC5er   C2q  1 3.950000e-01    2.500000e+00
 TC5er   C1q  1 3.950000e-01    2.500000e+00
 TC5er   X4q  1 3.950000e-01    2.700000e+00
 TC5er   X3q  1 3.950000e-01    2.700000e+00
 TC5er   X2q  1 3.950000e-01    2.700000e+00
 TC5er   X1q  1 3.950000e-01    2.940000e+00
 TP6dq  C5er  1 3.950000e-01    2.110000e+00
 TP5dq  C5er  1 3.950000e-01    2.310000e+00
 TP4dq  C5er  1 3.950000e-01    2.310000e+00
 TP3dq  C5er  1 3.950000e-01    2.500000e+00
 TP2dq  C5er  1 3.950000e-01    2.500000e+00
 TP1dq  C5er  1 3.950000e-01    2.500000e+00
 TN6dq  C5er  1 3.950000e-01    2.700000e+00
 TN5dq  C5er  1 3.950000e-01    2.700000e+00
 TN4dq  C5er  1 3.950000e-01    2.700000e+00
 TN3dq  C5er  1 3.950000e-01    2.700000e+00
 TN2dq  C5er  1 3.950000e-01    2.700000e+00
 TN1dq  C5er  1 3.950000e-01    2.940000e+00
 TP6aq  C5er  1 3.950000e-01    1.670000e+00
 TP5aq  C5er  1 3.950000e-01    1.850000e+00
 TP4aq  C5er  1 3.950000e-01    1.850000e+00
 TP3aq  C5er  1 3.950000e-01    2.110000e+00
 TP2aq  C5er  1 3.950000e-01    2.110000e+00
 TP1aq  C5er  1 3.950000e-01    2.110000e+00
 TN6aq  C5er  1 3.950000e-01    2.310000e+00
 TN5aq  C5er  1 3.950000e-01    2.310000e+00
 TN4aq  C5er  1 3.950000e-01    2.310000e+00
 TN3aq  C5er  1 3.950000e-01    2.310000e+00
 TN2aq  C5er  1 3.950000e-01    2.310000e+00
 TN1aq  C5er  1 3.950000e-01    2.500000e+00
 TC6vq  C5er  1 3.950000e-01    3.190000e+00
 TC5vq  C5er  1 3.950000e-01    3.190000e+00
 TC5er  C4vq  1 3.950000e-01    3.190000e+00
 TC5er  C3vq  1 3.950000e-01    2.940000e+00
 TC5er  C2vq  1 3.950000e-01    2.700000e+00
 TC5er  C1vq  1 3.950000e-01    2.700000e+00
 TC5er  X4vq  1 3.950000e-01    2.940000e+00
 TC5er  X3vq  1 3.950000e-01    2.940000e+00
 TC5er  X2vq  1 3.950000e-01    2.940000e+00
 TC5er  X1vq  1 3.950000e-01    3.190000e+00
 TC6eq  C5er  1 3.950000e-01    2.500000e+00
 TC5er  C5eq  1 3.950000e-01    2.500000e+00
 TC5er  X1eq  1 3.950000e-01    2.500000e+00
 TC5er  X2eq  1 3.950000e-01    2.310000e+00
 TC5er  X3eq  1 3.950000e-01    2.310000e+00
 TC5er  X4eq  1 3.950000e-01    2.310000e+00
 TC5er  C1eq  1 3.950000e-01    2.110000e+00
 TC5er  C2eq  1 3.950000e-01    2.110000e+00
 TC5er  C3eq  1 3.950000e-01    2.310000e+00
 TC5er  C4eq  1 3.950000e-01    2.500000e+00
  TC4e  C4er  1 3.950000e-01    2.110000e+00
 TC4er   C3e  1 3.950000e-01    2.110000e+00
 TC4er   C2e  1 3.950000e-01    1.850000e+00
 TC4er   C1e  1 3.950000e-01    1.670000e+00
 TC4er   X4e  1 3.950000e-01    1.850000e+00
 TC4er   X3e  1 3.950000e-01    1.850000e+00
 TC4er   X2e  1 3.950000e-01    1.850000e+00
 TC4er   X1e  1 3.950000e-01    2.110000e+00
  TP6q  C4er  1 3.950000e-01    1.850000e+00
  TP5q  C4er  1 3.950000e-01    2.110000e+00
  TP4q  C4er  1 3.950000e-01    2.110000e+00
  TP3q  C4er  1 3.950000e-01    2.310000e+00
  TP2q  C4er  1 3.950000e-01    2.310000e+00
  TP1q  C4er  1 3.950000e-01    2.310000e+00
  TN6q  C4er  1 3.950000e-01    2.500000e+00
  TN5q  C4er  1 3.950000e-01    2.500000e+00
  TN4q  C4er  1 3.950000e-01    2.700000e+00
  TN3q  C4er  1 3.950000e-01    2.700000e+00
  TN2q  C4er  1 3.950000e-01    2.700000e+00
  TN1q  C4er  1 3.950000e-01    2.940000e+00
  TC6q  C4er  1 3.950000e-01    2.940000e+00
  TC5q  C4er  1 3.950000e-01    2.940000e+00
  TC4q  C4er  1 3.950000e-01    2.940000e+00
 TC4er   C3q  1 3.950000e-01    2.940000e+00
 TC4er   C2q  1 3.950000e-01    2.700000e+00
 TC4er   C1q  1 3.950000e-01    2.500000e+00
 TC4er   X4q  1 3.950000e-01    2.700000e+00
 TC4er   X3q  1 3.950000e-01    2.700000e+00
 TC4er   X2q  1 3.950000e-01    2.700000e+00
 TC4er   X1q  1 3.950000e-01    2.940000e+00
 TP6dq  C4er  1 3.950000e-01    1.850000e+00
 TP5dq  C4er  1 3.950000e-01    2.110000e+00
 TP4dq  C4er  1 3.950000e-01    2.110000e+00
 TP3dq  C4er  1 3.950000e-01    2.310000e+00
 TP2dq  C4er  1 3.950000e-01    2.310000e+00
 TP1dq  C4er  1 3.950000e-01    2.310000e+00
 TN6dq  C4er  1 3.950000e-01    2.500000e+00
 TN5dq  C4er  1 3.950000e-01    2.500000e+00
 TN4dq  C4er  1 3.950000e-01    2.700000e+00
 TN3dq  C4er  1 3.950000e-01    2.700000e+00
 TN2dq  C4er  1 3.950000e-01    2.700000e+00
 TN1dq  C4er  1 3.950000e-01    2.940000e+00
 TP6aq  C4er  1 3.980000e-01    1.450000e+00
 TP5aq  C4er  1 3.950000e-01    1.670000e+00
 TP4aq  C4er  1 3.950000e-01    1.670000e+00
 TP3aq  C4er  1 3.950000e-01    1.850000e+00
 TP2aq  C4er  1 3.950000e-01    1.850000e+00
 TP1aq  C4er  1 3.950000e-01    1.850000e+00
 TN6aq  C4er  1 3.950000e-01    2.110000e+00
 TN5aq  C4er  1 3.950000e-01    2.110000e+00
 TN4aq  C4er  1 3.950000e-01    2.310000e+00
 TN3aq  C4er  1 3.950000e-01    2.310000e+00
 TN2aq  C4er  1 3.950000e-01    2.310000e+00
 TN1aq  C4er  1 3.950000e-01    2.500000e+00
 TC6vq  C4er  1 3.950000e-01    3.190000e+00
 TC5vq  C4er  1 3.950000e-01    3.190000e+00
 TC4vq  C4er  1 3.950000e-01    3.190000e+00
 TC4er  C3vq  1 3.950000e-01    3.190000e+00
 TC4er  C2vq  1 3.950000e-01    2.940000e+00
 TC4er  C1vq  1 3.950000e-01    2.700000e+00
 TC4er  X4vq  1 3.950000e-01    2.940000e+00
 TC4er  X3vq  1 3.950000e-01    2.940000e+00
 TC4er  X2vq  1 3.950000e-01    2.940000e+00
 TC4er  X1vq  1 3.950000e-01    3.190000e+00
 TC6eq  C4er  1 3.950000e-01    2.500000e+00
 TC5eq  C4er  1 3.950000e-01    2.500000e+00
 TC4er  C4eq  1 3.950000e-01    2.500000e+00
 TC4er  X1eq  1 3.950000e-01    2.500000e+00
 TC4er  X2eq  1 3.950000e-01    2.310000e+00
 TC4er  X3eq  1 3.950000e-01    2.310000e+00
 TC4er  X4eq  1 3.950000e-01    2.310000e+00
 TC4er  C1eq  1 3.950000e-01    2.110000e+00
 TC4er  C2eq  1 3.950000e-01    2.310000e+00
 TC4er  C3eq  1 3.950000e-01    2.500000e+00
  TC3e  C3er  1 3.950000e-01    2.110000e+00
 TC3er   C2e  1 3.950000e-01    2.110000e+00
 TC3er   C1e  1 3.950000e-01    2.110000e+00
 TC3er   X4e  1 3.950000e-01    1.850000e+00
 TC3er   X3e  1 3.950000e-01    1.850000e+00
 TC3er   X2e  1 3.950000e-01    1.850000e+00
 TC3er   X1e  1 3.950000e-01    2.110000e+00
  TP6q  C3er  1 3.950000e-01    1.670000e+00
  TP5q  C3er  1 3.950000e-01    1.850000e+00
  TP4q  C3er  1 3.950000e-01    1.850000e+00
  TP3q  C3er  1 3.950000e-01    1.850000e+00
  TP2q  C3er  1 3.950000e-01    2.110000e+00
  TP1q  C3er  1 3.950000e-01    2.110000e+00
  TN6q  C3er  1 3.950000e-01    2.310000e+00
  TN5q  C3er  1 3.950000e-01    2.500000e+00
  TN4q  C3er  1 3.950000e-01    2.500000e+00
  TN3q  C3er  1 3.950000e-01    2.500000e+00
  TN2q  C3er  1 3.950000e-01    2.700000e+00
  TN1q  C3er  1 3.950000e-01    2.700000e+00
  TC6q  C3er  1 3.950000e-01    2.700000e+00
  TC5q  C3er  1 3.950000e-01    2.700000e+00
  TC4q  C3er  1 3.950000e-01    2.940000e+00
  TC3q  C3er  1 3.950000e-01    2.940000e+00
 TC3er   C2q  1 3.950000e-01    2.940000e+00
 TC3er   C1q  1 3.950000e-01    2.940000e+00
 TC3er   X4q  1 3.950000e-01    2.700000e+00
 TC3er   X3q  1 3.950000e-01    2.700000e+00
 TC3er   X2q  1 3.950000e-01    2.700000e+00
 TC3er   X1q  1 3.950000e-01    2.940000e+00
 TP6dq  C3er  1 3.950000e-01    1.670000e+00
 TP5dq  C3er  1 3.950000e-01    1.850000e+00
 TP4dq  C3er  1 3.950000e-01    1.850000e+00
 TP3dq  C3er  1 3.950000e-01    1.850000e+00
 TP2dq  C3er  1 3.950000e-01    2.110000e+00
 TP1dq  C3er  1 3.950000e-01    2.110000e+00
 TN6dq  C3er  1 3.950000e-01    2.310000e+00
 TN5dq  C3er  1 3.950000e-01    2.500000e+00
 TN4dq  C3er  1 3.950000e-01    2.500000e+00
 TN3dq  C3er  1 3.950000e-01    2.500000e+00
 TN2dq  C3er  1 3.950000e-01    2.700000e+00
 TN1dq  C3er  1 3.950000e-01    2.700000e+00
 TP6aq  C3er  1 3.990000e-01    1.180000e+00
 TP5aq  C3er  1 3.980000e-01    1.450000e+00
 TP4aq  C3er  1 3.980000e-01    1.450000e+00
 TP3aq  C3er  1 3.980000e-01    1.450000e+00
 TP2aq  C3er  1 3.950000e-01    1.670000e+00
 TP1aq  C3er  1 3.950000e-01    1.670000e+00
 TN6aq  C3er  1 3.950000e-01    1.850000e+00
 TN5aq  C3er  1 3.950000e-01    2.110000e+00
 TN4aq  C3er  1 3.950000e-01    2.110000e+00
 TN3aq  C3er  1 3.950000e-01    2.110000e+00
 TN2aq  C3er  1 3.950000e-01    2.310000e+00
 TN1aq  C3er  1 3.950000e-01    2.310000e+00
 TC6vq  C3er  1 3.950000e-01    2.940000e+00
 TC5vq  C3er  1 3.950000e-01    2.940000e+00
 TC4vq  C3er  1 3.950000e-01    3.190000e+00
 TC3vq  C3er  1 3.950000e-01    3.190000e+00
 TC3er  C2vq  1 3.950000e-01    3.190000e+00
 TC3er  C1vq  1 3.950000e-01    3.190000e+00
 TC3er  X4vq  1 3.950000e-01    2.940000e+00
 TC3er  X3vq  1 3.950000e-01    2.940000e+00
 TC3er  X2vq  1 3.950000e-01    2.940000e+00
 TC3er  X1vq  1 3.950000e-01    3.190000e+00
 TC6eq  C3er  1 3.950000e-01    2.310000e+00
 TC5eq  C3er  1 3.950000e-01    2.310000e+00
 TC4eq  C3er  1 3.950000e-01    2.500000e+00
 TC3er  C3eq  1 3.950000e-01    2.500000e+00
 TC3er  X1eq  1 3.950000e-01    2.500000e+00
 TC3er  X2eq  1 3.950000e-01    2.310000e+00
 TC3er  X3eq  1 3.950000e-01    2.310000e+00
 TC3er  X4eq  1 3.950000e-01    2.310000e+00
 TC3er  C1eq  1 3.950000e-01    2.500000e+00
 TC3er  C2eq  1 3.950000e-01    2.500000e+00
  TC2e  C2er  1 3.950000e-01    2.110000e+00
 TC2er   C1e  1 3.950000e-01    2.310000e+00
 TC2er   X4e  1 3.980000e-01    1.450000e+00
 TC2er   X3e  1 3.950000e-01    1.850000e+00
 TC2er   X2e  1 3.950000e-01    1.850000e+00
 TC2er   X1e  1 3.950000e-01    1.850000e+00
  TP6q  C2er  1 3.950000e-01    1.670000e+00
  TP5q  C2er  1 3.950000e-01    1.850000e+00
  TP4q  C2er  1 3.950000e-01    1.850000e+00
  TP3q  C2er  1 3.950000e-01    1.850000e+00
  TP2q  C2er  1 3.950000e-01    2.110000e+00
  TP1q  C2er  1 3.950000e-01    2.110000e+00
  TN6q  C2er  1 3.950000e-01    2.310000e+00
  TN5q  C2er  1 3.950000e-01    2.310000e+00
  TN4q  C2er  1 3.950000e-01    2.310000e+00
  TN3q  C2er  1 3.950000e-01    2.500000e+00
  TN2q  C2er  1 3.950000e-01    2.500000e+00
  TN1q  C2er  1 3.950000e-01    2.500000e+00
  TC6q  C2er  1 3.950000e-01    2.500000e+00
  TC5q  C2er  1 3.950000e-01    2.500000e+00
  TC4q  C2er  1 3.950000e-01    2.700000e+00
  TC3q  C2er  1 3.950000e-01    2.940000e+00
  TC2q  C2er  1 3.950000e-01    2.940000e+00
 TC2er   C1q  1 3.950000e-01    3.190000e+00
 TC2er   X4q  1 3.950000e-01    2.310000e+00
 TC2er   X3q  1 3.950000e-01    2.700000e+00
 TC2er   X2q  1 3.950000e-01    2.700000e+00
 TC2er   X1q  1 3.950000e-01    2.700000e+00
 TP6dq  C2er  1 3.950000e-01    1.670000e+00
 TP5dq  C2er  1 3.950000e-01    1.850000e+00
 TP4dq  C2er  1 3.950000e-01    1.850000e+00
 TP3dq  C2er  1 3.950000e-01    1.850000e+00
 TP2dq  C2er  1 3.950000e-01    2.110000e+00
 TP1dq  C2er  1 3.950000e-01    2.110000e+00
 TN6dq  C2er  1 3.950000e-01    2.310000e+00
 TN5dq  C2er  1 3.950000e-01    2.310000e+00
 TN4dq  C2er  1 3.950000e-01    2.310000e+00
 TN3dq  C2er  1 3.950000e-01    2.500000e+00
 TN2dq  C2er  1 3.950000e-01    2.500000e+00
 TN1dq  C2er  1 3.950000e-01    2.500000e+00
 TP6aq  C2er  1 3.990000e-01    1.180000e+00
 TP5aq  C2er  1 3.980000e-01    1.450000e+00
 TP4aq  C2er  1 3.980000e-01    1.450000e+00
 TP3aq  C2er  1 3.980000e-01    1.450000e+00
 TP2aq  C2er  1 3.950000e-01    1.670000e+00
 TP1aq  C2er  1 3.950000e-01    1.670000e+00
 TN6aq  C2er  1 3.950000e-01    1.850000e+00
 TN5aq  C2er  1 3.950000e-01    1.850000e+00
 TN4aq  C2er  1 3.950000e-01    1.850000e+00
 TN3aq  C2er  1 3.950000e-01    2.110000e+00
 TN2aq  C2er  1 3.950000e-01    2.110000e+00
 TN1aq  C2er  1 3.950000e-01    2.110000e+00
 TC6vq  C2er  1 3.950000e-01    2.700000e+00
 TC5vq  C2er  1 3.950000e-01    2.700000e+00
 TC4vq  C2er  1 3.950000e-01    2.940000e+00
 TC3vq  C2er  1 3.950000e-01    3.190000e+00
 TC2vq  C2er  1 3.950000e-01    3.190000e+00
 TC2er  C1vq  1 3.950000e-01    3.430000e+00
 TC2er  X4vq  1 3.950000e-01    2.500000e+00
 TC2er  X3vq  1 3.950000e-01    2.940000e+00
 TC2er  X2vq  1 3.950000e-01    2.940000e+00
 TC2er  X1vq  1 3.950000e-01    2.940000e+00
 TC6eq  C2er  1 3.950000e-01    2.110000e+00
 TC5eq  C2er  1 3.950000e-01    2.110000e+00
 TC4eq  C2er  1 3.950000e-01    2.310000e+00
 TC3eq  C2er  1 3.950000e-01    2.500000e+00
 TC2er  C2eq  1 3.950000e-01    2.500000e+00
 TC2er  X1eq  1 3.950000e-01    2.310000e+00
 TC2er  X2eq  1 3.950000e-01    2.310000e+00
 TC2er  X3eq  1 3.950000e-01    2.310000e+00
 TC2er  X4eq  1 3.950000e-01    1.850000e+00
 TC2er  C1eq  1 3.950000e-01    2.700000e+00
  TC1e  C1er  1 3.950000e-01    2.110000e+00
 TC1er   X4e  1 3.980000e-01    1.450000e+00
 TC1er   X3e  1 3.950000e-01    1.850000e+00
 TC1er   X2e  1 3.950000e-01    1.850000e+00
 TC1er   X1e  1 3.950000e-01    1.850000e+00
  TP6q  C1er  1 3.990000e-01    1.180000e+00
  TP5q  C1er  1 3.950000e-01    1.670000e+00
  TP4q  C1er  1 3.950000e-01    1.670000e+00
  TP3q  C1er  1 3.950000e-01    1.670000e+00
  TP2q  C1er  1 3.950000e-01    1.850000e+00
  TP1q  C1er  1 3.950000e-01    1.850000e+00
  TN6q  C1er  1 3.950000e-01    2.110000e+00
  TN5q  C1er  1 3.950000e-01    2.110000e+00
  TN4q  C1er  1 3.950000e-01    2.110000e+00
  TN3q  C1er  1 3.950000e-01    2.310000e+00
  TN2q  C1er  1 3.950000e-01    2.310000e+00
  TN1q  C1er  1 3.950000e-01    2.310000e+00
  TC6q  C1er  1 3.950000e-01    2.310000e+00
  TC5q  C1er  1 3.950000e-01    2.500000e+00
  TC4q  C1er  1 3.950000e-01    2.500000e+00
  TC3q  C1er  1 3.950000e-01    2.940000e+00
  TC2q  C1er  1 3.950000e-01    3.190000e+00
  TC1q  C1er  1 3.950000e-01    2.940000e+00
 TC1er   X4q  1 3.950000e-01    2.310000e+00
 TC1er   X3q  1 3.950000e-01    2.700000e+00
 TC1er   X2q  1 3.950000e-01    2.700000e+00
 TC1er   X1q  1 3.950000e-01    2.700000e+00
 TP6dq  C1er  1 3.990000e-01    1.180000e+00
 TP5dq  C1er  1 3.950000e-01    1.670000e+00
 TP4dq  C1er  1 3.950000e-01    1.670000e+00
 TP3dq  C1er  1 3.950000e-01    1.670000e+00
 TP2dq  C1er  1 3.950000e-01    1.850000e+00
 TP1dq  C1er  1 3.950000e-01    1.850000e+00
 TN6dq  C1er  1 3.950000e-01    2.110000e+00
 TN5dq  C1er  1 3.950000e-01    2.110000e+00
 TN4dq  C1er  1 3.950000e-01    2.110000e+00
 TN3dq  C1er  1 3.950000e-01    2.310000e+00
 TN2dq  C1er  1 3.950000e-01    2.310000e+00
 TN1dq  C1er  1 3.950000e-01    2.310000e+00
 TP6aq  C1er  1 4.040000e-01    8.300000e-01
 TP5aq  C1er  1 3.990000e-01    1.180000e+00
 TP4aq  C1er  1 3.990000e-01    1.180000e+00
 TP3aq  C1er  1 3.990000e-01    1.180000e+00
 TP2aq  C1er  1 3.980000e-01    1.450000e+00
 TP1aq  C1er  1 3.980000e-01    1.450000e+00
 TN6aq  C1er  1 3.950000e-01    1.670000e+00
 TN5aq  C1er  1 3.950000e-01    1.670000e+00
 TN4aq  C1er  1 3.950000e-01    1.670000e+00
 TN3aq  C1er  1 3.950000e-01    1.850000e+00
 TN2aq  C1er  1 3.950000e-01    1.850000e+00
 TN1aq  C1er  1 3.950000e-01    1.850000e+00
 TC6vq  C1er  1 3.950000e-01    2.500000e+00
 TC5vq  C1er  1 3.950000e-01    2.700000e+00
 TC4vq  C1er  1 3.950000e-01    2.700000e+00
 TC3vq  C1er  1 3.950000e-01    3.190000e+00
 TC2vq  C1er  1 3.950000e-01    3.430000e+00
 TC1vq  C1er  1 3.950000e-01    3.190000e+00
 TC1er  X4vq  1 3.950000e-01    2.500000e+00
 TC1er  X3vq  1 3.950000e-01    2.940000e+00
 TC1er  X2vq  1 3.950000e-01    2.940000e+00
 TC1er  X1vq  1 3.950000e-01    2.940000e+00
 TC6eq  C1er  1 3.950000e-01    1.850000e+00
 TC5eq  C1er  1 3.950000e-01    2.110000e+00
 TC4eq  C1er  1 3.950000e-01    2.110000e+00
 TC3eq  C1er  1 3.950000e-01    2.500000e+00
 TC2eq  C1er  1 3.950000e-01    2.700000e+00
 TC1er  C1eq  1 3.950000e-01    2.500000e+00
 TC1er  X1eq  1 3.950000e-01    2.310000e+00
 TC1er  X2eq  1 3.950000e-01    2.310000e+00
 TC1er  X3eq  1 3.950000e-01    2.310000e+00
 TC1er  X4eq  1 3.950000e-01    1.850000e+00
  TX4e  X4er  1 3.950000e-01    2.110000e+00
 TX4er   X3e  1 3.950000e-01    2.110000e+00
 TX4er   X2e  1 3.950000e-01    2.110000e+00
 TX4er   X1e  1 3.950000e-01    2.110000e+00
  TP6q  X4er  1 3.950000e-01    2.500000e+00
  TP5q  X4er  1 3.950000e-01    2.700000e+00
  TP4q  X4er  1 3.950000e-01    2.700000e+00
  TP3q  X4er  1 3.950000e-01    2.700000e+00
  TP2q  X4er  1 3.950000e-01    2.700000e+00
  TP1q  X4er  1 3.950000e-01    2.700000e+00
  TN6q  X4er  1 3.950000e-01    2.940000e+00
  TN5q  X4er  1 3.950000e-01    3.190000e+00
  TN4q  X4er  1 3.950000e-01    3.430000e+00
  TN3q  X4er  1 3.950000e-01    3.190000e+00
  TN2q  X4er  1 3.950000e-01    3.190000e+00
  TN1q  X4er  1 3.950000e-01    2.940000e+00
  TC6q  X4er  1 3.950000e-01    2.940000e+00
  TC5q  X4er  1 3.950000e-01    2.700000e+00
  TC4q  X4er  1 3.950000e-01    2.700000e+00
  TC3q  X4er  1 3.950000e-01    2.700000e+00
  TC2q  X4er  1 3.950000e-01    2.310000e+00
  TC1q  X4er  1 3.950000e-01    2.310000e+00
  TX4q  X4er  1 3.950000e-01    2.940000e+00
 TX4er   X3q  1 3.950000e-01    2.940000e+00
 TX4er   X2q  1 3.950000e-01    2.940000e+00
 TX4er   X1q  1 3.950000e-01    2.940000e+00
 TP6dq  X4er  1 3.950000e-01    2.500000e+00
 TP5dq  X4er  1 3.950000e-01    2.700000e+00
 TP4dq  X4er  1 3.950000e-01    2.700000e+00
 TP3dq  X4er  1 3.950000e-01    2.700000e+00
 TP2dq  X4er  1 3.950000e-01    2.700000e+00
 TP1dq  X4er  1 3.950000e-01    2.700000e+00
 TN6dq  X4er  1 3.950000e-01    2.940000e+00
 TN5dq  X4er  1 3.950000e-01    3.190000e+00
 TN4dq  X4er  1 3.950000e-01    3.430000e+00
 TN3dq  X4er  1 3.950000e-01    3.190000e+00
 TN2dq  X4er  1 3.950000e-01    3.190000e+00
 TN1dq  X4er  1 3.950000e-01    2.940000e+00
 TP6aq  X4er  1 3.950000e-01    2.110000e+00
 TP5aq  X4er  1 3.950000e-01    2.310000e+00
 TP4aq  X4er  1 3.950000e-01    2.310000e+00
 TP3aq  X4er  1 3.950000e-01    2.310000e+00
 TP2aq  X4er  1 3.950000e-01    2.310000e+00
 TP1aq  X4er  1 3.950000e-01    2.310000e+00
 TN6aq  X4er  1 3.950000e-01    2.500000e+00
 TN5aq  X4er  1 3.950000e-01    2.700000e+00
 TN4aq  X4er  1 3.950000e-01    2.940000e+00
 TN3aq  X4er  1 3.950000e-01    2.700000e+00
 TN2aq  X4er  1 3.950000e-01    2.700000e+00
 TN1aq  X4er  1 3.950000e-01    2.500000e+00
 TC6vq  X4er  1 3.950000e-01    3.190000e+00
 TC5vq  X4er  1 3.950000e-01    2.940000e+00
 TC4vq  X4er  1 3.950000e-01    2.940000e+00
 TC3vq  X4er  1 3.950000e-01    2.940000e+00
 TC2vq  X4er  1 3.950000e-01    2.500000e+00
 TC1vq  X4er  1 3.950000e-01    2.500000e+00
 TX4vq  X4er  1 3.950000e-01    3.190000e+00
 TX4er  X3vq  1 3.950000e-01    3.190000e+00
 TX4er  X2vq  1 3.950000e-01    3.190000e+00
 TX4er  X1vq  1 3.950000e-01    3.190000e+00
 TC6eq  X4er  1 3.950000e-01    2.500000e+00
 TC5eq  X4er  1 3.950000e-01    2.310000e+00
 TC4eq  X4er  1 3.950000e-01    2.310000e+00
 TC3eq  X4er  1 3.950000e-01    2.310000e+00
 TC2eq  X4er  1 3.950000e-01    1.850000e+00
 TC1eq  X4er  1 3.950000e-01    1.850000e+00
 TX4er  X4eq  1 3.950000e-01    2.500000e+00
 TX4er  X1eq  1 3.950000e-01    2.500000e+00
 TX4er  X2eq  1 3.950000e-01    2.500000e+00
 TX4er  X3eq  1 3.950000e-01    2.500000e+00
  TX3e  X3er  1 3.950000e-01    2.110000e+00
 TX3er   X2e  1 3.950000e-01    2.310000e+00
 TX3er   X1e  1 3.950000e-01    2.310000e+00
  TP6q  X3er  1 3.950000e-01    2.500000e+00
  TP5q  X3er  1 3.950000e-01    2.500000e+00
  TP4q  X3er  1 3.950000e-01    2.500000e+00
  TP3q  X3er  1 3.950000e-01    2.700000e+00
  TP2q  X3er  1 3.950000e-01    2.700000e+00
  TP1q  X3er  1 3.950000e-01    2.700000e+00
  TN6q  X3er  1 3.950000e-01    2.700000e+00
  TN5q  X3er  1 3.950000e-01    2.940000e+00
  TN4q  X3er  1 3.950000e-01    3.190000e+00
  TN3q  X3er  1 3.950000e-01    2.940000e+00
  TN2q  X3er  1 3.950000e-01    2.940000e+00
  TN1q  X3er  1 3.950000e-01    2.940000e+00
  TC6q  X3er  1 3.950000e-01    2.940000e+00
  TC5q  X3er  1 3.950000e-01    2.700000e+00
  TC4q  X3er  1 3.950000e-01    2.700000e+00
  TC3q  X3er  1 3.950000e-01    2.700000e+00
  TC2q  X3er  1 3.950000e-01    2.700000e+00
  TC1q  X3er  1 3.950000e-01    2.700000e+00
  TX4q  X3er  1 3.950000e-01    2.940000e+00
  TX3q  X3er  1 3.950000e-01    2.940000e+00
 TX3er   X2q  1 3.950000e-01    3.190000e+00
 TX3er   X1q  1 3.950000e-01    3.190000e+00
 TP6dq  X3er  1 3.950000e-01    2.500000e+00
 TP5dq  X3er  1 3.950000e-01    2.500000e+00
 TP4dq  X3er  1 3.950000e-01    2.500000e+00
 TP3dq  X3er  1 3.950000e-01    2.700000e+00
 TP2dq  X3er  1 3.950000e-01    2.700000e+00
 TP1dq  X3er  1 3.950000e-01    2.700000e+00
 TN6dq  X3er  1 3.950000e-01    2.700000e+00
 TN5dq  X3er  1 3.950000e-01    2.940000e+00
 TN4dq  X3er  1 3.950000e-01    3.190000e+00
 TN3dq  X3er  1 3.950000e-01    2.940000e+00
 TN2dq  X3er  1 3.950000e-01    2.940000e+00
 TN1dq  X3er  1 3.950000e-01    2.940000e+00
 TP6aq  X3er  1 3.950000e-01    2.110000e+00
 TP5aq  X3er  1 3.950000e-01    2.110000e+00
 TP4aq  X3er  1 3.950000e-01    2.110000e+00
 TP3aq  X3er  1 3.950000e-01    2.310000e+00
 TP2aq  X3er  1 3.950000e-01    2.310000e+00
 TP1aq  X3er  1 3.950000e-01    2.310000e+00
 TN6aq  X3er  1 3.950000e-01    2.310000e+00
 TN5aq  X3er  1 3.950000e-01    2.500000e+00
 TN4aq  X3er  1 3.950000e-01    2.700000e+00
 TN3aq  X3er  1 3.950000e-01    2.500000e+00
 TN2aq  X3er  1 3.950000e-01    2.500000e+00
 TN1aq  X3er  1 3.950000e-01    2.500000e+00
 TC6vq  X3er  1 3.950000e-01    3.190000e+00
 TC5vq  X3er  1 3.950000e-01    2.940000e+00
 TC4vq  X3er  1 3.950000e-01    2.940000e+00
 TC3vq  X3er  1 3.950000e-01    2.940000e+00
 TC2vq  X3er  1 3.950000e-01    2.940000e+00
 TC1vq  X3er  1 3.950000e-01    2.940000e+00
 TX4vq  X3er  1 3.950000e-01    3.190000e+00
 TX3vq  X3er  1 3.950000e-01    3.190000e+00
 TX3er  X2vq  1 3.950000e-01    3.430000e+00
 TX3er  X1vq  1 3.950000e-01    3.430000e+00
 TC6eq  X3er  1 3.950000e-01    2.500000e+00
 TC5eq  X3er  1 3.950000e-01    2.310000e+00
 TC4eq  X3er  1 3.950000e-01    2.310000e+00
 TC3eq  X3er  1 3.950000e-01    2.310000e+00
 TC2eq  X3er  1 3.950000e-01    2.310000e+00
 TC1eq  X3er  1 3.950000e-01    2.310000e+00
 TX4eq  X3er  1 3.950000e-01    2.500000e+00
 TX3er  X3eq  1 3.950000e-01    2.500000e+00
 TX3er  X1eq  1 3.950000e-01    2.700000e+00
 TX3er  X2eq  1 3.950000e-01    2.700000e+00
  TX2e  X2er  1 3.950000e-01    2.310000e+00
 TX2er   X1e  1 3.950000e-01    2.310000e+00
  TP6q  X2er  1 3.950000e-01    2.310000e+00
  TP5q  X2er  1 3.950000e-01    2.500000e+00
  TP4q  X2er  1 3.950000e-01    2.500000e+00
  TP3q  X2er  1 3.950000e-01    2.500000e+00
  TP2q  X2er  1 3.950000e-01    2.500000e+00
  TP1q  X2er  1 3.950000e-01    2.500000e+00
  TN6q  X2er  1 3.950000e-01    2.500000e+00
  TN5q  X2er  1 3.950000e-01    2.700000e+00
  TN4q  X2er  1 3.950000e-01    2.700000e+00
  TN3q  X2er  1 3.950000e-01    2.700000e+00
  TN2q  X2er  1 3.950000e-01    2.700000e+00
  TN1q  X2er  1 3.950000e-01    2.700000e+00
  TC6q  X2er  1 3.950000e-01    2.940000e+00
  TC5q  X2er  1 3.950000e-01    2.700000e+00
  TC4q  X2er  1 3.950000e-01    2.700000e+00
  TC3q  X2er  1 3.950000e-01    2.700000e+00
  TC2q  X2er  1 3.950000e-01    2.700000e+00
  TC1q  X2er  1 3.950000e-01    2.700000e+00
  TX4q  X2er  1 3.950000e-01    2.940000e+00
  TX3q  X2er  1 3.950000e-01    3.190000e+00
  TX2q  X2er  1 3.950000e-01    3.190000e+00
 TX2er   X1q  1 3.950000e-01    3.190000e+00
 TP6dq  X2er  1 3.950000e-01    2.310000e+00
 TP5dq  X2er  1 3.950000e-01    2.500000e+00
 TP4dq  X2er  1 3.950000e-01    2.500000e+00
 TP3dq  X2er  1 3.950000e-01    2.500000e+00
 TP2dq  X2er  1 3.950000e-01    2.500000e+00
 TP1dq  X2er  1 3.950000e-01    2.500000e+00
 TN6dq  X2er  1 3.950000e-01    2.500000e+00
 TN5dq  X2er  1 3.950000e-01    2.700000e+00
 TN4dq  X2er  1 3.950000e-01    2.700000e+00
 TN3dq  X2er  1 3.950000e-01    2.700000e+00
 TN2dq  X2er  1 3.950000e-01    2.700000e+00
 TN1dq  X2er  1 3.950000e-01    2.700000e+00
 TP6aq  X2er  1 3.950000e-01    1.850000e+00
 TP5aq  X2er  1 3.950000e-01    2.110000e+00
 TP4aq  X2er  1 3.950000e-01    2.110000e+00
 TP3aq  X2er  1 3.950000e-01    2.110000e+00
 TP2aq  X2er  1 3.950000e-01    2.110000e+00
 TP1aq  X2er  1 3.950000e-01    2.110000e+00
 TN6aq  X2er  1 3.950000e-01    2.110000e+00
 TN5aq  X2er  1 3.950000e-01    2.310000e+00
 TN4aq  X2er  1 3.950000e-01    2.310000e+00
 TN3aq  X2er  1 3.950000e-01    2.310000e+00
 TN2aq  X2er  1 3.950000e-01    2.310000e+00
 TN1aq  X2er  1 3.950000e-01    2.310000e+00
 TC6vq  X2er  1 3.950000e-01    3.190000e+00
 TC5vq  X2er  1 3.950000e-01    2.940000e+00
 TC4vq  X2er  1 3.950000e-01    2.940000e+00
 TC3vq  X2er  1 3.950000e-01    2.940000e+00
 TC2vq  X2er  1 3.950000e-01    2.940000e+00
 TC1vq  X2er  1 3.950000e-01    2.940000e+00
 TX4vq  X2er  1 3.950000e-01    3.190000e+00
 TX3vq  X2er  1 3.950000e-01    3.430000e+00
 TX2vq  X2er  1 3.950000e-01    3.430000e+00
 TX2er  X1vq  1 3.950000e-01    3.430000e+00
 TC6eq  X2er  1 3.950000e-01    2.500000e+00
 TC5eq  X2er  1 3.950000e-01    2.310000e+00
 TC4eq  X2er  1 3.950000e-01    2.310000e+00
 TC3eq  X2er  1 3.950000e-01    2.310000e+00
 TC2eq  X2er  1 3.950000e-01    2.310000e+00
 TC1eq  X2er  1 3.950000e-01    2.310000e+00
 TX4eq  X2er  1 3.950000e-01    2.500000e+00
 TX3eq  X2er  1 3.950000e-01    2.700000e+00
 TX2er  X2eq  1 3.950000e-01    2.700000e+00
 TX2er  X1eq  1 3.950000e-01    2.700000e+00
  TX1e  X1er  1 3.950000e-01    2.500000e+00
  TP6q  X1er  1 3.950000e-01    2.110000e+00
  TP5q  X1er  1 3.950000e-01    2.110000e+00
  TP4q  X1er  1 3.950000e-01    2.310000e+00
  TP3q  X1er  1 3.950000e-01    2.310000e+00
  TP2q  X1er  1 3.950000e-01    2.310000e+00
  TP1q  X1er  1 3.950000e-01    2.310000e+00
  TN6q  X1er  1 3.950000e-01    2.310000e+00
  TN5q  X1er  1 3.950000e-01    2.500000e+00
  TN4q  X1er  1 3.950000e-01    2.500000e+00
  TN3q  X1er  1 3.950000e-01    2.700000e+00
  TN2q  X1er  1 3.950000e-01    2.700000e+00
  TN1q  X1er  1 3.950000e-01    2.700000e+00
  TC6q  X1er  1 3.950000e-01    2.940000e+00
  TC5q  X1er  1 3.950000e-01    2.940000e+00
  TC4q  X1er  1 3.950000e-01    2.940000e+00
  TC3q  X1er  1 3.950000e-01    2.940000e+00
  TC2q  X1er  1 3.950000e-01    2.700000e+00
  TC1q  X1er  1 3.950000e-01    2.700000e+00
  TX4q  X1er  1 3.950000e-01    2.940000e+00
  TX3q  X1er  1 3.950000e-01    3.190000e+00
  TX2q  X1er  1 3.950000e-01    3.190000e+00
  TX1q  X1er  1 3.950000e-01    3.430000e+00
 TP6dq  X1er  1 3.950000e-01    2.110000e+00
 TP5dq  X1er  1 3.950000e-01    2.110000e+00
 TP4dq  X1er  1 3.950000e-01    2.310000e+00
 TP3dq  X1er  1 3.950000e-01    2.310000e+00
 TP2dq  X1er  1 3.950000e-01    2.310000e+00
 TP1dq  X1er  1 3.950000e-01    2.310000e+00
 TN6dq  X1er  1 3.950000e-01    2.310000e+00
 TN5dq  X1er  1 3.950000e-01    2.500000e+00
 TN4dq  X1er  1 3.950000e-01    2.500000e+00
 TN3dq  X1er  1 3.950000e-01    2.700000e+00
 TN2dq  X1er  1 3.950000e-01    2.700000e+00
 TN1dq  X1er  1 3.950000e-01    2.700000e+00
 TP6aq  X1er  1 3.950000e-01    1.670000e+00
 TP5aq  X1er  1 3.950000e-01    1.670000e+00
 TP4aq  X1er  1 3.950000e-01    1.850000e+00
 TP3aq  X1er  1 3.950000e-01    1.850000e+00
 TP2aq  X1er  1 3.950000e-01    1.850000e+00
 TP1aq  X1er  1 3.950000e-01    1.850000e+00
 TN6aq  X1er  1 3.950000e-01    1.850000e+00
 TN5aq  X1er  1 3.950000e-01    2.110000e+00
 TN4aq  X1er  1 3.950000e-01    2.110000e+00
 TN3aq  X1er  1 3.950000e-01    2.310000e+00
 TN2aq  X1er  1 3.950000e-01    2.310000e+00
 TN1aq  X1er  1 3.950000e-01    2.310000e+00
 TC6vq  X1er  1 3.950000e-01    3.190000e+00
 TC5vq  X1er  1 3.950000e-01    3.190000e+00
 TC4vq  X1er  1 3.950000e-01    3.190000e+00
 TC3vq  X1er  1 3.950000e-01    3.190000e+00
 TC2vq  X1er  1 3.950000e-01    2.940000e+00
 TC1vq  X1er  1 3.950000e-01    2.940000e+00
 TX4vq  X1er  1 3.950000e-01    3.190000e+00
 TX3vq  X1er  1 3.950000e-01    3.430000e+00
 TX2vq  X1er  1 3.950000e-01    3.430000e+00
 TX1vq  X1er  1 3.950000e-01    3.670000e+00
 TC6eq  X1er  1 3.950000e-01    2.500000e+00
 TC5eq  X1er  1 3.950000e-01    2.500000e+00
 TC4eq  X1er  1 3.950000e-01    2.500000e+00
 TC3eq  X1er  1 3.950000e-01    2.500000e+00
 TC2eq  X1er  1 3.950000e-01    2.310000e+00
 TC1eq  X1er  1 3.950000e-01    2.310000e+00
 TX4eq  X1er  1 3.950000e-01    2.500000e+00
 TX3eq  X1er  1 3.950000e-01    2.700000e+00
 TX2eq  X1er  1 3.950000e-01    2.700000e+00
 TX1er  X1eq  1 3.950000e-01    2.940000e+00
  TC6e  X1er  1 3.950000e-01    2.110000e+00
  TC5e  X1er  1 3.950000e-01    2.110000e+00
  TC4e  X1er  1 3.950000e-01    2.110000e+00
  TC3e  X1er  1 3.950000e-01    2.110000e+00
  TC2e  X1er  1 3.950000e-01    1.850000e+00
  TC1e  X1er  1 3.950000e-01    1.850000e+00
  TX4e  X1er  1 3.950000e-01    2.110000e+00
  TX3e  X1er  1 3.950000e-01    2.310000e+00
  TX2e  X1er  1 3.950000e-01    2.310000e+00
  TC6v  X1er  1 3.950000e-01    2.700000e+00
  TC5v  X1er  1 3.950000e-01    2.700000e+00
  TC4v  X1er  1 3.950000e-01    2.700000e+00
  TC3v  X1er  1 3.950000e-01    2.700000e+00
  TC2v  X1er  1 3.950000e-01    2.500000e+00
  TC1v  X1er  1 3.950000e-01    2.500000e+00
  TX4v  X1er  1 3.950000e-01    2.700000e+00
  TX3v  X1er  1 3.950000e-01    2.940000e+00
  TX2v  X1er  1 3.950000e-01    2.940000e+00
  TX1v  X1er  1 3.950000e-01    3.190000e+00
  TP6d  X1er  1 3.950000e-01    1.670000e+00
  TP5d  X1er  1 3.950000e-01    1.670000e+00
  TP4d  X1er  1 3.950000e-01    1.850000e+00
  TP3d  X1er  1 3.950000e-01    1.850000e+00
  TP2d  X1er  1 3.950000e-01    1.850000e+00
  TP1d  X1er  1 3.950000e-01    1.850000e+00
  TN6d  X1er  1 3.950000e-01    1.850000e+00
  TN5d  X1er  1 3.950000e-01    2.110000e+00
  TN4d  X1er  1 3.950000e-01    2.110000e+00
  TN3d  X1er  1 3.950000e-01    2.310000e+00
  TN2d  X1er  1 3.950000e-01    2.310000e+00
  TN1d  X1er  1 3.950000e-01    2.310000e+00
  TP6a  X1er  1 3.990000e-01    1.180000e+00
  TP5a  X1er  1 3.990000e-01    1.180000e+00
  TP4a  X1er  1 3.980000e-01    1.450000e+00
  TP3a  X1er  1 3.980000e-01    1.450000e+00
  TP2a  X1er  1 3.980000e-01    1.450000e+00
  TP1a  X1er  1 3.980000e-01    1.450000e+00
  TN6a  X1er  1 3.980000e-01    1.450000e+00
  TN5a  X1er  1 3.950000e-01    1.670000e+00
  TN4a  X1er  1 3.950000e-01    1.670000e+00
  TN3a  X1er  1 3.950000e-01    1.850000e+00
  TN2a  X1er  1 3.950000e-01    1.850000e+00
  TN1a  X1er  1 3.950000e-01    1.850000e+00
  TC6e  X2er  1 3.950000e-01    2.110000e+00
  TC5e  X2er  1 3.950000e-01    1.850000e+00
  TC4e  X2er  1 3.950000e-01    1.850000e+00
  TC3e  X2er  1 3.950000e-01    1.850000e+00
  TC2e  X2er  1 3.950000e-01    1.850000e+00
  TC1e  X2er  1 3.950000e-01    1.850000e+00
  TX4e  X2er  1 3.950000e-01    2.110000e+00
  TX3e  X2er  1 3.950000e-01    2.310000e+00
  TC6v  X2er  1 3.950000e-01    2.700000e+00
  TC5v  X2er  1 3.950000e-01    2.500000e+00
  TC4v  X2er  1 3.950000e-01    2.500000e+00
  TC3v  X2er  1 3.950000e-01    2.500000e+00
  TC2v  X2er  1 3.950000e-01    2.500000e+00
  TC1v  X2er  1 3.950000e-01    2.500000e+00
  TX4v  X2er  1 3.950000e-01    2.700000e+00
  TX3v  X2er  1 3.950000e-01    2.940000e+00
  TX2v  X2er  1 3.950000e-01    2.940000e+00
 TX2er   X1v  1 3.950000e-01    2.940000e+00
  TP6d  X2er  1 3.950000e-01    1.850000e+00
  TP5d  X2er  1 3.950000e-01    2.110000e+00
  TP4d  X2er  1 3.950000e-01    2.110000e+00
  TP3d  X2er  1 3.950000e-01    2.110000e+00
  TP2d  X2er  1 3.950000e-01    2.110000e+00
  TP1d  X2er  1 3.950000e-01    2.110000e+00
  TN6d  X2er  1 3.950000e-01    2.110000e+00
  TN5d  X2er  1 3.950000e-01    2.310000e+00
  TN4d  X2er  1 3.950000e-01    2.310000e+00
  TN3d  X2er  1 3.950000e-01    2.310000e+00
  TN2d  X2er  1 3.950000e-01    2.310000e+00
  TN1d  X2er  1 3.950000e-01    2.310000e+00
  TP6a  X2er  1 3.980000e-01    1.450000e+00
  TP5a  X2er  1 3.950000e-01    1.670000e+00
  TP4a  X2er  1 3.950000e-01    1.670000e+00
  TP3a  X2er  1 3.950000e-01    1.670000e+00
  TP2a  X2er  1 3.950000e-01    1.670000e+00
  TP1a  X2er  1 3.950000e-01    1.670000e+00
  TN6a  X2er  1 3.950000e-01    1.670000e+00
  TN5a  X2er  1 3.950000e-01    1.850000e+00
  TN4a  X2er  1 3.950000e-01    1.850000e+00
  TN3a  X2er  1 3.950000e-01    1.850000e+00
  TN2a  X2er  1 3.950000e-01    1.850000e+00
  TN1a  X2er  1 3.950000e-01    1.850000e+00
  TC6e  X3er  1 3.950000e-01    2.110000e+00
  TC5e  X3er  1 3.950000e-01    1.850000e+00
  TC4e  X3er  1 3.950000e-01    1.850000e+00
  TC3e  X3er  1 3.950000e-01    1.850000e+00
  TC2e  X3er  1 3.950000e-01    1.850000e+00
  TC1e  X3er  1 3.950000e-01    1.850000e+00
  TX4e  X3er  1 3.950000e-01    2.110000e+00
  TC6v  X3er  1 3.950000e-01    2.700000e+00
  TC5v  X3er  1 3.950000e-01    2.500000e+00
  TC4v  X3er  1 3.950000e-01    2.500000e+00
  TC3v  X3er  1 3.950000e-01    2.500000e+00
  TC2v  X3er  1 3.950000e-01    2.500000e+00
  TC1v  X3er  1 3.950000e-01    2.500000e+00
  TX4v  X3er  1 3.950000e-01    2.700000e+00
  TX3v  X3er  1 3.950000e-01    2.700000e+00
 TX3er   X2v  1 3.950000e-01    2.940000e+00
 TX3er   X1v  1 3.950000e-01    2.940000e+00
  TP6d  X3er  1 3.950000e-01    2.110000e+00
  TP5d  X3er  1 3.950000e-01    2.110000e+00
  TP4d  X3er  1 3.950000e-01    2.110000e+00
  TP3d  X3er  1 3.950000e-01    2.310000e+00
  TP2d  X3er  1 3.950000e-01    2.310000e+00
  TP1d  X3er  1 3.950000e-01    2.310000e+00
  TN6d  X3er  1 3.950000e-01    2.310000e+00
  TN5d  X3er  1 3.950000e-01    2.500000e+00
  TN4d  X3er  1 3.950000e-01    2.700000e+00
  TN3d  X3er  1 3.950000e-01    2.500000e+00
  TN2d  X3er  1 3.950000e-01    2.500000e+00
  TN1d  X3er  1 3.950000e-01    2.500000e+00
  TP6a  X3er  1 3.950000e-01    1.670000e+00
  TP5a  X3er  1 3.950000e-01    1.670000e+00
  TP4a  X3er  1 3.950000e-01    1.670000e+00
  TP3a  X3er  1 3.950000e-01    1.850000e+00
  TP2a  X3er  1 3.950000e-01    1.850000e+00
  TP1a  X3er  1 3.950000e-01    1.850000e+00
  TN6a  X3er  1 3.950000e-01    1.850000e+00
  TN5a  X3er  1 3.950000e-01    2.110000e+00
  TN4a  X3er  1 3.950000e-01    2.310000e+00
  TN3a  X3er  1 3.950000e-01    2.110000e+00
  TN2a  X3er  1 3.950000e-01    2.110000e+00
  TN1a  X3er  1 3.950000e-01    2.110000e+00
  TC6e  X4er  1 3.950000e-01    2.110000e+00
  TC5e  X4er  1 3.950000e-01    1.850000e+00
  TC4e  X4er  1 3.950000e-01    1.850000e+00
  TC3e  X4er  1 3.950000e-01    1.850000e+00
  TC2e  X4er  1 3.980000e-01    1.450000e+00
  TC1e  X4er  1 3.980000e-01    1.450000e+00
  TC6v  X4er  1 3.950000e-01    2.700000e+00
  TC5v  X4er  1 3.950000e-01    2.500000e+00
  TC4v  X4er  1 3.950000e-01    2.500000e+00
  TC3v  X4er  1 3.950000e-01    2.500000e+00
  TC2v  X4er  1 3.950000e-01    2.110000e+00
  TC1v  X4er  1 3.950000e-01    2.110000e+00
  TX4v  X4er  1 3.950000e-01    2.700000e+00
 TX4er   X3v  1 3.950000e-01    2.700000e+00
 TX4er   X2v  1 3.950000e-01    2.700000e+00
 TX4er   X1v  1 3.950000e-01    2.700000e+00
  TP6d  X4er  1 3.950000e-01    2.110000e+00
  TP5d  X4er  1 3.950000e-01    2.310000e+00
  TP4d  X4er  1 3.950000e-01    2.310000e+00
  TP3d  X4er  1 3.950000e-01    2.310000e+00
  TP2d  X4er  1 3.950000e-01    2.310000e+00
  TP1d  X4er  1 3.950000e-01    2.310000e+00
  TN6d  X4er  1 3.950000e-01    2.500000e+00
  TN5d  X4er  1 3.950000e-01    2.700000e+00
  TN4d  X4er  1 3.950000e-01    2.940000e+00
  TN3d  X4er  1 3.950000e-01    2.700000e+00
  TN2d  X4er  1 3.950000e-01    2.700000e+00
  TN1d  X4er  1 3.950000e-01    2.500000e+00
  TP6a  X4er  1 3.950000e-01    1.670000e+00
  TP5a  X4er  1 3.950000e-01    1.850000e+00
  TP4a  X4er  1 3.950000e-01    1.850000e+00
  TP3a  X4er  1 3.950000e-01    1.850000e+00
  TP2a  X4er  1 3.950000e-01    1.850000e+00
  TP1a  X4er  1 3.950000e-01    1.850000e+00
  TN6a  X4er  1 3.950000e-01    2.110000e+00
  TN5a  X4er  1 3.950000e-01    2.310000e+00
  TN4a  X4er  1 3.950000e-01    2.500000e+00
  TN3a  X4er  1 3.950000e-01    2.310000e+00
  TN2a  X4er  1 3.950000e-01    2.310000e+00
  TN1a  X4er  1 3.950000e-01    2.110000e+00
  TC6e  C1er  1 3.980000e-01    1.450000e+00
  TC5e  C1er  1 3.950000e-01    1.670000e+00
  TC4e  C1er  1 3.950000e-01    1.670000e+00
  TC3e  C1er  1 3.950000e-01    2.110000e+00
  TC2e  C1er  1 3.950000e-01    2.310000e+00
  TC6v  C1er  1 3.950000e-01    2.110000e+00
  TC5v  C1er  1 3.950000e-01    2.310000e+00
  TC4v  C1er  1 3.950000e-01    2.310000e+00
  TC3v  C1er  1 3.950000e-01    2.700000e+00
  TC2v  C1er  1 3.950000e-01    2.940000e+00
  TC1v  C1er  1 3.950000e-01    2.700000e+00
 TC1er   X4v  1 3.950000e-01    2.110000e+00
 TC1er   X3v  1 3.950000e-01    2.500000e+00
 TC1er   X2v  1 3.950000e-01    2.500000e+00
 TC1er   X1v  1 3.950000e-01    2.500000e+00
  TP6d  C1er  1 4.040000e-01    8.300000e-01
  TP5d  C1er  1 3.990000e-01    1.180000e+00
  TP4d  C1er  1 3.990000e-01    1.180000e+00
  TP3d  C1er  1 3.990000e-01    1.180000e+00
  TP2d  C1er  1 3.980000e-01    1.450000e+00
  TP1d  C1er  1 3.980000e-01    1.450000e+00
  TN6d  C1er  1 3.950000e-01    1.670000e+00
  TN5d  C1er  1 3.950000e-01    1.670000e+00
  TN4d  C1er  1 3.950000e-01    1.670000e+00
  TN3d  C1er  1 3.950000e-01    1.850000e+00
  TN2d  C1er  1 3.950000e-01    1.850000e+00
  TN1d  C1er  1 3.950000e-01    1.850000e+00
  TP6a  C1er  1 5.110000e-01    6.590000e-01
  TP5a  C1er  1 4.040000e-01    8.300000e-01
  TP4a  C1er  1 4.040000e-01    8.300000e-01
  TP3a  C1er  1 4.040000e-01    8.300000e-01
  TP2a  C1er  1 4.010000e-01    9.830000e-01
  TP1a  C1er  1 4.010000e-01    9.830000e-01
  TN6a  C1er  1 3.990000e-01    1.180000e+00
  TN5a  C1er  1 3.990000e-01    1.180000e+00
  TN4a  C1er  1 3.990000e-01    1.180000e+00
  TN3a  C1er  1 3.980000e-01    1.450000e+00
  TN2a  C1er  1 3.980000e-01    1.450000e+00
  TN1a  C1er  1 3.980000e-01    1.450000e+00
  TC6e  C2er  1 3.950000e-01    1.670000e+00
  TC5e  C2er  1 3.950000e-01    1.670000e+00
  TC4e  C2er  1 3.950000e-01    1.850000e+00
  TC3e  C2er  1 3.950000e-01    2.110000e+00
  TC6v  C2er  1 3.950000e-01    2.310000e+00
  TC5v  C2er  1 3.950000e-01    2.310000e+00
  TC4v  C2er  1 3.950000e-01    2.500000e+00
  TC3v  C2er  1 3.950000e-01    2.700000e+00
  TC2v  C2er  1 3.950000e-01    2.700000e+00
 TC2er   C1v  1 3.950000e-01    2.940000e+00
 TC2er   X4v  1 3.950000e-01    2.110000e+00
 TC2er   X3v  1 3.950000e-01    2.500000e+00
 TC2er   X2v  1 3.950000e-01    2.500000e+00
 TC2er   X1v  1 3.950000e-01    2.500000e+00
  TP6d  C2er  1 3.990000e-01    1.180000e+00
  TP5d  C2er  1 3.980000e-01    1.450000e+00
  TP4d  C2er  1 3.980000e-01    1.450000e+00
  TP3d  C2er  1 3.980000e-01    1.450000e+00
  TP2d  C2er  1 3.950000e-01    1.670000e+00
  TP1d  C2er  1 3.950000e-01    1.670000e+00
  TN6d  C2er  1 3.950000e-01    1.850000e+00
  TN5d  C2er  1 3.950000e-01    1.850000e+00
  TN4d  C2er  1 3.950000e-01    1.850000e+00
  TN3d  C2er  1 3.950000e-01    2.110000e+00
  TN2d  C2er  1 3.950000e-01    2.110000e+00
  TN1d  C2er  1 3.950000e-01    2.110000e+00
  TP6a  C2er  1 4.040000e-01    8.300000e-01
  TP5a  C2er  1 4.010000e-01    9.830000e-01
  TP4a  C2er  1 4.010000e-01    9.830000e-01
  TP3a  C2er  1 4.010000e-01    9.830000e-01
  TP2a  C2er  1 3.990000e-01    1.180000e+00
  TP1a  C2er  1 3.990000e-01    1.180000e+00
  TN6a  C2er  1 3.980000e-01    1.450000e+00
  TN5a  C2er  1 3.980000e-01    1.450000e+00
  TN4a  C2er  1 3.980000e-01    1.450000e+00
  TN3a  C2er  1 3.950000e-01    1.670000e+00
  TN2a  C2er  1 3.950000e-01    1.670000e+00
  TN1a  C2er  1 3.950000e-01    1.670000e+00
  TC6e  C3er  1 3.950000e-01    1.850000e+00
  TC5e  C3er  1 3.950000e-01    1.850000e+00
  TC4e  C3er  1 3.950000e-01    2.110000e+00
  TC6v  C3er  1 3.950000e-01    2.500000e+00
  TC5v  C3er  1 3.950000e-01    2.500000e+00
  TC4v  C3er  1 3.950000e-01    2.700000e+00
  TC3v  C3er  1 3.950000e-01    2.700000e+00
 TC3er   C2v  1 3.950000e-01    2.700000e+00
 TC3er   C1v  1 3.950000e-01    2.700000e+00
 TC3er   X4v  1 3.950000e-01    2.500000e+00
 TC3er   X3v  1 3.950000e-01    2.500000e+00
 TC3er   X2v  1 3.950000e-01    2.500000e+00
 TC3er   X1v  1 3.950000e-01    2.700000e+00
  TP6d  C3er  1 3.990000e-01    1.180000e+00
  TP5d  C3er  1 3.980000e-01    1.450000e+00
  TP4d  C3er  1 3.980000e-01    1.450000e+00
  TP3d  C3er  1 3.980000e-01    1.450000e+00
  TP2d  C3er  1 3.950000e-01    1.670000e+00
  TP1d  C3er  1 3.950000e-01    1.670000e+00
  TN6d  C3er  1 3.950000e-01    1.850000e+00
  TN5d  C3er  1 3.950000e-01    2.110000e+00
  TN4d  C3er  1 3.950000e-01    2.110000e+00
  TN3d  C3er  1 3.950000e-01    2.110000e+00
  TN2d  C3er  1 3.950000e-01    2.310000e+00
  TN1d  C3er  1 3.950000e-01    2.310000e+00
  TP6a  C3er  1 4.040000e-01    8.300000e-01
  TP5a  C3er  1 4.010000e-01    9.830000e-01
  TP4a  C3er  1 4.010000e-01    9.830000e-01
  TP3a  C3er  1 4.010000e-01    9.830000e-01
  TP2a  C3er  1 3.990000e-01    1.180000e+00
  TP1a  C3er  1 3.990000e-01    1.180000e+00
  TN6a  C3er  1 3.980000e-01    1.450000e+00
  TN5a  C3er  1 3.950000e-01    1.670000e+00
  TN4a  C3er  1 3.950000e-01    1.670000e+00
  TN3a  C3er  1 3.950000e-01    1.670000e+00
  TN2a  C3er  1 3.950000e-01    1.850000e+00
  TN1a  C3er  1 3.950000e-01    1.850000e+00
  TC6e  C4er  1 3.950000e-01    2.110000e+00
  TC5e  C4er  1 3.950000e-01    2.110000e+00
  TC6v  C4er  1 3.950000e-01    2.700000e+00
  TC5v  C4er  1 3.950000e-01    2.700000e+00
  TC4v  C4er  1 3.950000e-01    2.700000e+00
 TC4er   C3v  1 3.950000e-01    2.700000e+00
 TC4er   C2v  1 3.950000e-01    2.500000e+00
 TC4er   C1v  1 3.950000e-01    2.310000e+00
 TC4er   X4v  1 3.950000e-01    2.500000e+00
 TC4er   X3v  1 3.950000e-01    2.500000e+00
 TC4er   X2v  1 3.950000e-01    2.500000e+00
 TC4er   X1v  1 3.950000e-01    2.700000e+00
  TP6d  C4er  1 3.980000e-01    1.450000e+00
  TP5d  C4er  1 3.950000e-01    1.670000e+00
  TP4d  C4er  1 3.950000e-01    1.670000e+00
  TP3d  C4er  1 3.950000e-01    1.850000e+00
  TP2d  C4er  1 3.950000e-01    1.850000e+00
  TP1d  C4er  1 3.950000e-01    1.850000e+00
  TN6d  C4er  1 3.950000e-01    2.110000e+00
  TN5d  C4er  1 3.950000e-01    2.110000e+00
  TN4d  C4er  1 3.950000e-01    2.310000e+00
  TN3d  C4er  1 3.950000e-01    2.310000e+00
  TN2d  C4er  1 3.950000e-01    2.310000e+00
  TN1d  C4er  1 3.950000e-01    2.500000e+00
  TP6a  C4er  1 4.010000e-01    9.830000e-01
  TP5a  C4er  1 3.990000e-01    1.180000e+00
  TP4a  C4er  1 3.990000e-01    1.180000e+00
  TP3a  C4er  1 3.980000e-01    1.450000e+00
  TP2a  C4er  1 3.980000e-01    1.450000e+00
  TP1a  C4er  1 3.980000e-01    1.450000e+00
  TN6a  C4er  1 3.950000e-01    1.670000e+00
  TN5a  C4er  1 3.950000e-01    1.670000e+00
  TN4a  C4er  1 3.950000e-01    1.850000e+00
  TN3a  C4er  1 3.950000e-01    1.850000e+00
  TN2a  C4er  1 3.950000e-01    1.850000e+00
  TN1a  C4er  1 3.950000e-01    2.110000e+00
  TC6e  C5er  1 3.950000e-01    2.110000e+00
  TC6v  C5er  1 3.950000e-01    2.700000e+00
  TC5v  C5er  1 3.950000e-01    2.700000e+00
 TC5er   C4v  1 3.950000e-01    2.700000e+00
 TC5er   C3v  1 3.950000e-01    2.500000e+00
 TC5er   C2v  1 3.950000e-01    2.310000e+00
 TC5er   C1v  1 3.950000e-01    2.310000e+00
 TC5er   X4v  1 3.950000e-01    2.500000e+00
 TC5er   X3v  1 3.950000e-01    2.500000e+00
 TC5er   X2v  1 3.950000e-01    2.500000e+00
 TC5er   X1v  1 3.950000e-01    2.700000e+00
  TP6d  C5er  1 3.950000e-01    1.670000e+00
  TP5d  C5er  1 3.950000e-01    1.850000e+00
  TP4d  C5er  1 3.950000e-01    1.850000e+00
  TP3d  C5er  1 3.950000e-01    2.110000e+00
  TP2d  C5er  1 3.950000e-01    2.110000e+00
  TP1d  C5er  1 3.950000e-01    2.110000e+00
  TN6d  C5er  1 3.950000e-01    2.310000e+00
  TN5d  C5er  1 3.950000e-01    2.310000e+00
  TN4d  C5er  1 3.950000e-01    2.310000e+00
  TN3d  C5er  1 3.950000e-01    2.310000e+00
  TN2d  C5er  1 3.950000e-01    2.310000e+00
  TN1d  C5er  1 3.950000e-01    2.500000e+00
  TP6a  C5er  1 3.990000e-01    1.180000e+00
  TP5a  C5er  1 3.980000e-01    1.450000e+00
  TP4a  C5er  1 3.980000e-01    1.450000e+00
  TP3a  C5er  1 3.950000e-01    1.670000e+00
  TP2a  C5er  1 3.950000e-01    1.670000e+00
  TP1a  C5er  1 3.950000e-01    1.670000e+00
  TN6a  C5er  1 3.950000e-01    1.850000e+00
  TN5a  C5er  1 3.950000e-01    1.850000e+00
  TN4a  C5er  1 3.950000e-01    1.850000e+00
  TN3a  C5er  1 3.950000e-01    1.850000e+00
  TN2a  C5er  1 3.950000e-01    1.850000e+00
  TN1a  C5er  1 3.950000e-01    2.110000e+00
  TC6v  C6er  1 3.950000e-01    2.940000e+00
 TC6er   C5v  1 3.950000e-01    2.700000e+00
 TC6er   C4v  1 3.950000e-01    2.700000e+00
 TC6er   C3v  1 3.950000e-01    2.500000e+00
 TC6er   C2v  1 3.950000e-01    2.310000e+00
 TC6er   C1v  1 3.950000e-01    2.110000e+00
 TC6er   X4v  1 3.950000e-01    2.700000e+00
 TC6er   X3v  1 3.950000e-01    2.700000e+00
 TC6er   X2v  1 3.950000e-01    2.700000e+00
 TC6er   X1v  1 3.950000e-01    2.700000e+00
  TP6d  C6er  1 3.950000e-01    1.850000e+00
  TP5d  C6er  1 3.950000e-01    1.850000e+00
  TP4d  C6er  1 3.950000e-01    2.110000e+00
  TP3d  C6er  1 3.950000e-01    2.310000e+00
  TP2d  C6er  1 3.950000e-01    2.310000e+00
  TP1d  C6er  1 3.950000e-01    2.310000e+00
  TN6d  C6er  1 3.950000e-01    2.500000e+00
  TN5d  C6er  1 3.950000e-01    2.500000e+00
  TN4d  C6er  1 3.950000e-01    2.500000e+00
  TN3d  C6er  1 3.950000e-01    2.500000e+00
  TN2d  C6er  1 3.950000e-01    2.500000e+00
  TN1d  C6er  1 3.950000e-01    2.700000e+00
  TP6a  C6er  1 3.980000e-01    1.450000e+00
  TP5a  C6er  1 3.980000e-01    1.450000e+00
  TP4a  C6er  1 3.950000e-01    1.670000e+00
  TP3a  C6er  1 3.950000e-01    1.850000e+00
  TP2a  C6er  1 3.950000e-01    1.850000e+00
  TP1a  C6er  1 3.950000e-01    1.850000e+00
  TN6a  C6er  1 3.950000e-01    2.110000e+00
  TN5a  C6er  1 3.950000e-01    2.110000e+00
  TN4a  C6er  1 3.950000e-01    2.110000e+00
  TN3a  C6er  1 3.950000e-01    2.110000e+00
  TN2a  C6er  1 3.950000e-01    2.110000e+00
  TN1a  C6er  1 3.950000e-01    2.310000e+00
  TC6v  X1vr  1 3.950000e-01    2.110000e+00
  TC5v  X1vr  1 3.950000e-01    2.110000e+00
  TC4v  X1vr  1 3.950000e-01    2.110000e+00
  TC3v  X1vr  1 3.950000e-01    2.110000e+00
  TC2v  X1vr  1 3.950000e-01    1.850000e+00
  TC1v  X1vr  1 3.950000e-01    1.850000e+00
  TX4v  X1vr  1 3.950000e-01    2.110000e+00
  TX3v  X1vr  1 3.950000e-01    2.310000e+00
  TX2v  X1vr  1 3.950000e-01    2.310000e+00
  TP6a  X1vr  1 3.950000e-01    1.670000e+00
  TP5a  X1vr  1 3.950000e-01    1.670000e+00
  TP4a  X1vr  1 3.950000e-01    1.850000e+00
  TP3a  X1vr  1 3.950000e-01    1.850000e+00
  TP2a  X1vr  1 3.950000e-01    1.850000e+00
  TP1a  X1vr  1 3.950000e-01    1.850000e+00
  TN6a  X1vr  1 3.950000e-01    1.850000e+00
  TN5a  X1vr  1 3.950000e-01    2.110000e+00
  TN4a  X1vr  1 3.950000e-01    2.110000e+00
  TN3a  X1vr  1 3.950000e-01    2.310000e+00
  TN2a  X1vr  1 3.950000e-01    2.310000e+00
  TN1a  X1vr  1 3.950000e-01    2.310000e+00
  TP6d  X1vr  1 3.990000e-01    1.180000e+00
  TP5d  X1vr  1 3.990000e-01    1.180000e+00
  TP4d  X1vr  1 3.980000e-01    1.450000e+00
  TP3d  X1vr  1 3.980000e-01    1.450000e+00
  TP2d  X1vr  1 3.980000e-01    1.450000e+00
  TP1d  X1vr  1 3.980000e-01    1.450000e+00
  TN6d  X1vr  1 3.980000e-01    1.450000e+00
  TN5d  X1vr  1 3.950000e-01    1.670000e+00
  TN4d  X1vr  1 3.950000e-01    1.670000e+00
  TN3d  X1vr  1 3.950000e-01    1.850000e+00
  TN2d  X1vr  1 3.950000e-01    1.850000e+00
  TN1d  X1vr  1 3.950000e-01    1.850000e+00
  TC6v  X2vr  1 3.950000e-01    2.110000e+00
  TC5v  X2vr  1 3.950000e-01    1.850000e+00
  TC4v  X2vr  1 3.950000e-01    1.850000e+00
  TC3v  X2vr  1 3.950000e-01    1.850000e+00
  TC2v  X2vr  1 3.950000e-01    1.850000e+00
  TC1v  X2vr  1 3.950000e-01    1.850000e+00
  TX4v  X2vr  1 3.950000e-01    2.110000e+00
  TX3v  X2vr  1 3.950000e-01    2.310000e+00
  TP6a  X2vr  1 3.950000e-01    1.850000e+00
  TP5a  X2vr  1 3.950000e-01    2.110000e+00
  TP4a  X2vr  1 3.950000e-01    2.110000e+00
  TP3a  X2vr  1 3.950000e-01    2.110000e+00
  TP2a  X2vr  1 3.950000e-01    2.110000e+00
  TP1a  X2vr  1 3.950000e-01    2.110000e+00
  TN6a  X2vr  1 3.950000e-01    2.110000e+00
  TN5a  X2vr  1 3.950000e-01    2.310000e+00
  TN4a  X2vr  1 3.950000e-01    2.310000e+00
  TN3a  X2vr  1 3.950000e-01    2.310000e+00
  TN2a  X2vr  1 3.950000e-01    2.310000e+00
  TN1a  X2vr  1 3.950000e-01    2.310000e+00
  TP6d  X2vr  1 3.980000e-01    1.450000e+00
  TP5d  X2vr  1 3.950000e-01    1.670000e+00
  TP4d  X2vr  1 3.950000e-01    1.670000e+00
  TP3d  X2vr  1 3.950000e-01    1.670000e+00
  TP2d  X2vr  1 3.950000e-01    1.670000e+00
  TP1d  X2vr  1 3.950000e-01    1.670000e+00
  TN6d  X2vr  1 3.950000e-01    1.670000e+00
  TN5d  X2vr  1 3.950000e-01    1.850000e+00
  TN4d  X2vr  1 3.950000e-01    1.850000e+00
  TN3d  X2vr  1 3.950000e-01    1.850000e+00
  TN2d  X2vr  1 3.950000e-01    1.850000e+00
  TN1d  X2vr  1 3.950000e-01    1.850000e+00
  TC6v  X3vr  1 3.950000e-01    2.110000e+00
  TC5v  X3vr  1 3.950000e-01    1.850000e+00
  TC4v  X3vr  1 3.950000e-01    1.850000e+00
  TC3v  X3vr  1 3.950000e-01    1.850000e+00
  TC2v  X3vr  1 3.950000e-01    1.850000e+00
  TC1v  X3vr  1 3.950000e-01    1.850000e+00
  TX4v  X3vr  1 3.950000e-01    2.110000e+00
  TP6a  X3vr  1 3.950000e-01    2.110000e+00
  TP5a  X3vr  1 3.950000e-01    2.110000e+00
  TP4a  X3vr  1 3.950000e-01    2.110000e+00
  TP3a  X3vr  1 3.950000e-01    2.310000e+00
  TP2a  X3vr  1 3.950000e-01    2.310000e+00
  TP1a  X3vr  1 3.950000e-01    2.310000e+00
  TN6a  X3vr  1 3.950000e-01    2.310000e+00
  TN5a  X3vr  1 3.950000e-01    2.500000e+00
  TN4a  X3vr  1 3.950000e-01    2.700000e+00
  TN3a  X3vr  1 3.950000e-01    2.500000e+00
  TN2a  X3vr  1 3.950000e-01    2.500000e+00
  TN1a  X3vr  1 3.950000e-01    2.500000e+00
  TP6d  X3vr  1 3.950000e-01    1.670000e+00
  TP5d  X3vr  1 3.950000e-01    1.670000e+00
  TP4d  X3vr  1 3.950000e-01    1.670000e+00
  TP3d  X3vr  1 3.950000e-01    1.850000e+00
  TP2d  X3vr  1 3.950000e-01    1.850000e+00
  TP1d  X3vr  1 3.950000e-01    1.850000e+00
  TN6d  X3vr  1 3.950000e-01    1.850000e+00
  TN5d  X3vr  1 3.950000e-01    2.110000e+00
  TN4d  X3vr  1 3.950000e-01    2.310000e+00
  TN3d  X3vr  1 3.950000e-01    2.110000e+00
  TN2d  X3vr  1 3.950000e-01    2.110000e+00
  TN1d  X3vr  1 3.950000e-01    2.110000e+00
  TC6v  X4vr  1 3.950000e-01    2.110000e+00
  TC5v  X4vr  1 3.950000e-01    1.850000e+00
  TC4v  X4vr  1 3.950000e-01    1.850000e+00
  TC3v  X4vr  1 3.950000e-01    1.850000e+00
  TC2v  X4vr  1 3.980000e-01    1.450000e+00
  TC1v  X4vr  1 3.980000e-01    1.450000e+00
  TP6a  X4vr  1 3.950000e-01    2.110000e+00
  TP5a  X4vr  1 3.950000e-01    2.310000e+00
  TP4a  X4vr  1 3.950000e-01    2.310000e+00
  TP3a  X4vr  1 3.950000e-01    2.310000e+00
  TP2a  X4vr  1 3.950000e-01    2.310000e+00
  TP1a  X4vr  1 3.950000e-01    2.310000e+00
  TN6a  X4vr  1 3.950000e-01    2.500000e+00
  TN5a  X4vr  1 3.950000e-01    2.700000e+00
  TN4a  X4vr  1 3.950000e-01    2.940000e+00
  TN3a  X4vr  1 3.950000e-01    2.700000e+00
  TN2a  X4vr  1 3.950000e-01    2.700000e+00
  TN1a  X4vr  1 3.950000e-01    2.500000e+00
  TP6d  X4vr  1 3.950000e-01    1.670000e+00
  TP5d  X4vr  1 3.950000e-01    1.850000e+00
  TP4d  X4vr  1 3.950000e-01    1.850000e+00
  TP3d  X4vr  1 3.950000e-01    1.850000e+00
  TP2d  X4vr  1 3.950000e-01    1.850000e+00
  TP1d  X4vr  1 3.950000e-01    1.850000e+00
  TN6d  X4vr  1 3.950000e-01    2.110000e+00
  TN5d  X4vr  1 3.950000e-01    2.310000e+00
  TN4d  X4vr  1 3.950000e-01    2.500000e+00
  TN3d  X4vr  1 3.950000e-01    2.310000e+00
  TN2d  X4vr  1 3.950000e-01    2.310000e+00
  TN1d  X4vr  1 3.950000e-01    2.110000e+00
  TC6v  C1vr  1 3.980000e-01    1.450000e+00
  TC5v  C1vr  1 3.950000e-01    1.670000e+00
  TC4v  C1vr  1 3.950000e-01    1.670000e+00
  TC3v  C1vr  1 3.950000e-01    2.110000e+00
  TC2v  C1vr  1 3.950000e-01    2.310000e+00
  TP6a  C1vr  1 4.040000e-01    8.300000e-01
  TP5a  C1vr  1 3.990000e-01    1.180000e+00
  TP4a  C1vr  1 3.990000e-01    1.180000e+00
  TP3a  C1vr  1 3.990000e-01    1.180000e+00
  TP2a  C1vr  1 3.980000e-01    1.450000e+00
  TP1a  C1vr  1 3.980000e-01    1.450000e+00
  TN6a  C1vr  1 3.950000e-01    1.670000e+00
  TN5a  C1vr  1 3.950000e-01    1.670000e+00
  TN4a  C1vr  1 3.950000e-01    1.670000e+00
  TN3a  C1vr  1 3.950000e-01    1.850000e+00
  TN2a  C1vr  1 3.950000e-01    1.850000e+00
  TN1a  C1vr  1 3.950000e-01    1.850000e+00
  TP6d  C1vr  1 5.110000e-01    6.590000e-01
  TP5d  C1vr  1 4.040000e-01    8.300000e-01
  TP4d  C1vr  1 4.040000e-01    8.300000e-01
  TP3d  C1vr  1 4.040000e-01    8.300000e-01
  TP2d  C1vr  1 4.010000e-01    9.830000e-01
  TP1d  C1vr  1 4.010000e-01    9.830000e-01
  TN6d  C1vr  1 3.990000e-01    1.180000e+00
  TN5d  C1vr  1 3.990000e-01    1.180000e+00
  TN4d  C1vr  1 3.990000e-01    1.180000e+00
  TN3d  C1vr  1 3.980000e-01    1.450000e+00
  TN2d  C1vr  1 3.980000e-01    1.450000e+00
  TN1d  C1vr  1 3.980000e-01    1.450000e+00
  TC6v  C2vr  1 3.950000e-01    1.670000e+00
  TC5v  C2vr  1 3.950000e-01    1.670000e+00
  TC4v  C2vr  1 3.950000e-01    1.850000e+00
  TC3v  C2vr  1 3.950000e-01    2.110000e+00
  TP6a  C2vr  1 3.990000e-01    1.180000e+00
  TP5a  C2vr  1 3.980000e-01    1.450000e+00
  TP4a  C2vr  1 3.980000e-01    1.450000e+00
  TP3a  C2vr  1 3.980000e-01    1.450000e+00
  TP2a  C2vr  1 3.950000e-01    1.670000e+00
  TP1a  C2vr  1 3.950000e-01    1.670000e+00
  TN6a  C2vr  1 3.950000e-01    1.850000e+00
  TN5a  C2vr  1 3.950000e-01    1.850000e+00
  TN4a  C2vr  1 3.950000e-01    1.850000e+00
  TN3a  C2vr  1 3.950000e-01    2.110000e+00
  TN2a  C2vr  1 3.950000e-01    2.110000e+00
  TN1a  C2vr  1 3.950000e-01    2.110000e+00
  TP6d  C2vr  1 4.040000e-01    8.300000e-01
  TP5d  C2vr  1 4.010000e-01    9.830000e-01
  TP4d  C2vr  1 4.010000e-01    9.830000e-01
  TP3d  C2vr  1 4.010000e-01    9.830000e-01
  TP2d  C2vr  1 3.990000e-01    1.180000e+00
  TP1d  C2vr  1 3.990000e-01    1.180000e+00
  TN6d  C2vr  1 3.980000e-01    1.450000e+00
  TN5d  C2vr  1 3.980000e-01    1.450000e+00
  TN4d  C2vr  1 3.980000e-01    1.450000e+00
  TN3d  C2vr  1 3.950000e-01    1.670000e+00
  TN2d  C2vr  1 3.950000e-01    1.670000e+00
  TN1d  C2vr  1 3.950000e-01    1.670000e+00
  TC6v  C3vr  1 3.950000e-01    1.850000e+00
  TC5v  C3vr  1 3.950000e-01    1.850000e+00
  TC4v  C3vr  1 3.950000e-01    2.110000e+00
  TP6a  C3vr  1 3.990000e-01    1.180000e+00
  TP5a  C3vr  1 3.980000e-01    1.450000e+00
  TP4a  C3vr  1 3.980000e-01    1.450000e+00
  TP3a  C3vr  1 3.980000e-01    1.450000e+00
  TP2a  C3vr  1 3.950000e-01    1.670000e+00
  TP1a  C3vr  1 3.950000e-01    1.670000e+00
  TN6a  C3vr  1 3.950000e-01    1.850000e+00
  TN5a  C3vr  1 3.950000e-01    2.110000e+00
  TN4a  C3vr  1 3.950000e-01    2.110000e+00
  TN3a  C3vr  1 3.950000e-01    2.110000e+00
  TN2a  C3vr  1 3.950000e-01    2.310000e+00
  TN1a  C3vr  1 3.950000e-01    2.310000e+00
  TP6d  C3vr  1 4.040000e-01    8.300000e-01
  TP5d  C3vr  1 4.010000e-01    9.830000e-01
  TP4d  C3vr  1 4.010000e-01    9.830000e-01
  TP3d  C3vr  1 4.010000e-01    9.830000e-01
  TP2d  C3vr  1 3.990000e-01    1.180000e+00
  TP1d  C3vr  1 3.990000e-01    1.180000e+00
  TN6d  C3vr  1 3.980000e-01    1.450000e+00
  TN5d  C3vr  1 3.950000e-01    1.670000e+00
  TN4d  C3vr  1 3.950000e-01    1.670000e+00
  TN3d  C3vr  1 3.950000e-01    1.670000e+00
  TN2d  C3vr  1 3.950000e-01    1.850000e+00
  TN1d  C3vr  1 3.950000e-01    1.850000e+00
  TC6v  C4vr  1 3.950000e-01    2.110000e+00
  TC5v  C4vr  1 3.950000e-01    2.110000e+00
  TP6a  C4vr  1 3.980000e-01    1.450000e+00
  TP5a  C4vr  1 3.950000e-01    1.670000e+00
  TP4a  C4vr  1 3.950000e-01    1.670000e+00
  TP3a  C4vr  1 3.950000e-01    1.850000e+00
  TP2a  C4vr  1 3.950000e-01    1.850000e+00
  TP1a  C4vr  1 3.950000e-01    1.850000e+00
  TN6a  C4vr  1 3.950000e-01    2.110000e+00
  TN5a  C4vr  1 3.950000e-01    2.110000e+00
  TN4a  C4vr  1 3.950000e-01    2.310000e+00
  TN3a  C4vr  1 3.950000e-01    2.310000e+00
  TN2a  C4vr  1 3.950000e-01    2.310000e+00
  TN1a  C4vr  1 3.950000e-01    2.500000e+00
  TP6d  C4vr  1 4.010000e-01    9.830000e-01
  TP5d  C4vr  1 3.990000e-01    1.180000e+00
  TP4d  C4vr  1 3.990000e-01    1.180000e+00
  TP3d  C4vr  1 3.980000e-01    1.450000e+00
  TP2d  C4vr  1 3.980000e-01    1.450000e+00
  TP1d  C4vr  1 3.980000e-01    1.450000e+00
  TN6d  C4vr  1 3.950000e-01    1.670000e+00
  TN5d  C4vr  1 3.950000e-01    1.670000e+00
  TN4d  C4vr  1 3.950000e-01    1.850000e+00
  TN3d  C4vr  1 3.950000e-01    1.850000e+00
  TN2d  C4vr  1 3.950000e-01    1.850000e+00
  TN1d  C4vr  1 3.950000e-01    2.110000e+00
  TC6v  C5vr  1 3.950000e-01    2.110000e+00
  TP6a  C5vr  1 3.950000e-01    1.670000e+00
  TP5a  C5vr  1 3.950000e-01    1.850000e+00
  TP4a  C5vr  1 3.950000e-01    1.850000e+00
  TP3a  C5vr  1 3.950000e-01    2.110000e+00
  TP2a  C5vr  1 3.950000e-01    2.110000e+00
  TP1a  C5vr  1 3.950000e-01    2.110000e+00
  TN6a  C5vr  1 3.950000e-01    2.310000e+00
  TN5a  C5vr  1 3.950000e-01    2.310000e+00
  TN4a  C5vr  1 3.950000e-01    2.310000e+00
  TN3a  C5vr  1 3.950000e-01    2.310000e+00
  TN2a  C5vr  1 3.950000e-01    2.310000e+00
  TN1a  C5vr  1 3.950000e-01    2.500000e+00
  TP6d  C5vr  1 3.990000e-01    1.180000e+00
  TP5d  C5vr  1 3.980000e-01    1.450000e+00
  TP4d  C5vr  1 3.980000e-01    1.450000e+00
  TP3d  C5vr  1 3.950000e-01    1.670000e+00
  TP2d  C5vr  1 3.950000e-01    1.670000e+00
  TP1d  C5vr  1 3.950000e-01    1.670000e+00
  TN6d  C5vr  1 3.950000e-01    1.850000e+00
  TN5d  C5vr  1 3.950000e-01    1.850000e+00
  TN4d  C5vr  1 3.950000e-01    1.850000e+00
  TN3d  C5vr  1 3.950000e-01    1.850000e+00
  TN2d  C5vr  1 3.950000e-01    1.850000e+00
  TN1d  C5vr  1 3.950000e-01    2.110000e+00
  TP6a  C6vr  1 3.950000e-01    1.850000e+00
  TP5a  C6vr  1 3.950000e-01    1.850000e+00
  TP4a  C6vr  1 3.950000e-01    2.110000e+00
  TP3a  C6vr  1 3.950000e-01    2.310000e+00
  TP2a  C6vr  1 3.950000e-01    2.310000e+00
  TP1a  C6vr  1 3.950000e-01    2.310000e+00
  TN6a  C6vr  1 3.950000e-01    2.500000e+00
  TN5a  C6vr  1 3.950000e-01    2.500000e+00
  TN4a  C6vr  1 3.950000e-01    2.500000e+00
  TN3a  C6vr  1 3.950000e-01    2.500000e+00
  TN2a  C6vr  1 3.950000e-01    2.500000e+00
  TN1a  C6vr  1 3.950000e-01    2.700000e+00
  TP6d  C6vr  1 3.980000e-01    1.450000e+00
  TP5d  C6vr  1 3.980000e-01    1.450000e+00
  TP4d  C6vr  1 3.950000e-01    1.670000e+00
  TP3d  C6vr  1 3.950000e-01    1.850000e+00
  TP2d  C6vr  1 3.950000e-01    1.850000e+00
  TP1d  C6vr  1 3.950000e-01    1.850000e+00
  TN6d  C6vr  1 3.950000e-01    2.110000e+00
  TN5d  C6vr  1 3.950000e-01    2.110000e+00
  TN4d  C6vr  1 3.950000e-01    2.110000e+00
  TN3d  C6vr  1 3.950000e-01    2.110000e+00
  TN2d  C6vr  1 3.950000e-01    2.110000e+00
  TN1d  C6vr  1 3.950000e-01    2.310000e+00
  TP6a  N1ar  1 3.950000e-01    1.670000e+00
  TP5a  N1ar  1 3.950000e-01    1.670000e+00
  TP4a  N1ar  1 3.950000e-01    1.850000e+00
  TP3a  N1ar  1 3.950000e-01    2.110000e+00
  TP2a  N1ar  1 3.950000e-01    2.110000e+00
  TP1a  N1ar  1 3.950000e-01    2.110000e+00
  TN6a  N1ar  1 3.950000e-01    2.110000e+00
  TN5a  N1ar  1 3.950000e-01    2.110000e+00
  TN4a  N1ar  1 3.950000e-01    2.110000e+00
  TN3a  N1ar  1 3.950000e-01    2.110000e+00
  TN2a  N1ar  1 3.950000e-01    2.110000e+00
  TP6d  N1ar  1 3.950000e-01    1.670000e+00
  TP5d  N1ar  1 3.950000e-01    1.670000e+00
  TP4d  N1ar  1 3.950000e-01    1.850000e+00
  TP3d  N1ar  1 3.950000e-01    2.110000e+00
  TP2d  N1ar  1 3.950000e-01    2.500000e+00
  TP1d  N1ar  1 3.950000e-01    2.500000e+00
  TN6d  N1ar  1 3.950000e-01    2.500000e+00
  TN5d  N1ar  1 3.950000e-01    2.500000e+00
  TN4d  N1ar  1 3.950000e-01    2.500000e+00
  TN3d  N1ar  1 3.950000e-01    2.500000e+00
  TN2d  N1ar  1 3.950000e-01    2.500000e+00
  TN1d  N1ar  1 3.950000e-01    2.700000e+00
  TP6a  N2ar  1 3.950000e-01    1.850000e+00
  TP5a  N2ar  1 3.950000e-01    1.850000e+00
  TP4a  N2ar  1 3.950000e-01    2.110000e+00
  TP3a  N2ar  1 3.950000e-01    2.110000e+00
  TP2a  N2ar  1 3.950000e-01    2.110000e+00
  TP1a  N2ar  1 3.950000e-01    2.110000e+00
  TN6a  N2ar  1 3.950000e-01    2.110000e+00
  TN5a  N2ar  1 3.950000e-01    2.310000e+00
  TN4a  N2ar  1 3.950000e-01    2.310000e+00
  TN3a  N2ar  1 3.950000e-01    2.310000e+00
  TP6d  N2ar  1 3.950000e-01    1.850000e+00
  TP5d  N2ar  1 3.950000e-01    1.850000e+00
  TP4d  N2ar  1 3.950000e-01    2.110000e+00
  TP3d  N2ar  1 3.950000e-01    2.500000e+00
  TP2d  N2ar  1 3.950000e-01    2.500000e+00
  TP1d  N2ar  1 3.950000e-01    2.500000e+00
  TN6d  N2ar  1 3.950000e-01    2.500000e+00
  TN5d  N2ar  1 3.950000e-01    2.700000e+00
  TN4d  N2ar  1 3.950000e-01    2.700000e+00
  TN3d  N2ar  1 3.950000e-01    2.700000e+00
  TN2d  N2ar  1 3.950000e-01    2.700000e+00
 TN2ar   N1d  1 3.950000e-01    2.500000e+00
  TP6a  N3ar  1 3.950000e-01    2.110000e+00
  TP5a  N3ar  1 3.950000e-01    2.110000e+00
  TP4a  N3ar  1 3.950000e-01    2.110000e+00
  TP3a  N3ar  1 3.950000e-01    2.110000e+00
  TP2a  N3ar  1 3.950000e-01    2.110000e+00
  TP1a  N3ar  1 3.950000e-01    2.110000e+00
  TN6a  N3ar  1 3.950000e-01    2.310000e+00
  TN5a  N3ar  1 3.950000e-01    2.310000e+00
  TN4a  N3ar  1 3.950000e-01    2.310000e+00
  TP6d  N3ar  1 3.950000e-01    2.110000e+00
  TP5d  N3ar  1 3.950000e-01    2.110000e+00
  TP4d  N3ar  1 3.950000e-01    2.500000e+00
  TP3d  N3ar  1 3.950000e-01    2.500000e+00
  TP2d  N3ar  1 3.950000e-01    2.500000e+00
  TP1d  N3ar  1 3.950000e-01    2.500000e+00
  TN6d  N3ar  1 3.950000e-01    2.700000e+00
  TN5d  N3ar  1 3.950000e-01    2.700000e+00
  TN4d  N3ar  1 3.950000e-01    2.700000e+00
  TN3d  N3ar  1 3.950000e-01    2.700000e+00
 TN3ar   N2d  1 3.950000e-01    2.700000e+00
 TN3ar   N1d  1 3.950000e-01    2.500000e+00
  TP6a  N4ar  1 3.950000e-01    2.110000e+00
  TP5a  N4ar  1 3.950000e-01    2.310000e+00
  TP4a  N4ar  1 3.950000e-01    2.310000e+00
  TP3a  N4ar  1 3.950000e-01    2.310000e+00
  TP2a  N4ar  1 3.950000e-01    2.310000e+00
  TP1a  N4ar  1 3.950000e-01    2.500000e+00
  TN6a  N4ar  1 3.950000e-01    2.700000e+00
  TN5a  N4ar  1 3.950000e-01    2.500000e+00
  TP6d  N4ar  1 3.950000e-01    2.500000e+00
  TP5d  N4ar  1 3.950000e-01    2.700000e+00
  TP4d  N4ar  1 3.950000e-01    2.700000e+00
  TP3d  N4ar  1 3.950000e-01    2.700000e+00
  TP2d  N4ar  1 3.950000e-01    2.700000e+00
  TP1d  N4ar  1 3.950000e-01    2.940000e+00
  TN6d  N4ar  1 3.950000e-01    3.190000e+00
  TN5d  N4ar  1 3.950000e-01    2.940000e+00
  TN4d  N4ar  1 3.950000e-01    2.940000e+00
 TN4ar   N3d  1 3.950000e-01    2.700000e+00
 TN4ar   N2d  1 3.950000e-01    2.700000e+00
 TN4ar   N1d  1 3.950000e-01    2.500000e+00
  TP6a  N5ar  1 3.950000e-01    2.310000e+00
  TP5a  N5ar  1 3.950000e-01    2.310000e+00
  TP4a  N5ar  1 3.950000e-01    2.310000e+00
  TP3a  N5ar  1 3.950000e-01    2.310000e+00
  TP2a  N5ar  1 3.950000e-01    2.500000e+00
  TP1a  N5ar  1 3.950000e-01    2.500000e+00
  TN6a  N5ar  1 3.950000e-01    2.700000e+00
  TP6d  N5ar  1 3.950000e-01    2.700000e+00
  TP5d  N5ar  1 3.950000e-01    2.700000e+00
  TP4d  N5ar  1 3.950000e-01    2.700000e+00
  TP3d  N5ar  1 3.950000e-01    2.700000e+00
  TP2d  N5ar  1 3.950000e-01    2.940000e+00
  TP1d  N5ar  1 3.950000e-01    2.940000e+00
  TN6d  N5ar  1 3.950000e-01    3.190000e+00
  TN5d  N5ar  1 3.950000e-01    2.940000e+00
 TN5ar   N4d  1 3.950000e-01    2.940000e+00
 TN5ar   N3d  1 3.950000e-01    2.700000e+00
 TN5ar   N2d  1 3.950000e-01    2.700000e+00
 TN5ar   N1d  1 3.950000e-01    2.500000e+00
  TP6a  N6ar  1 3.950000e-01    2.700000e+00
  TP5a  N6ar  1 3.950000e-01    2.500000e+00
  TP4a  N6ar  1 3.950000e-01    2.500000e+00
  TP3a  N6ar  1 3.950000e-01    2.500000e+00
  TP2a  N6ar  1 3.950000e-01    2.700000e+00
  TP1a  N6ar  1 3.950000e-01    2.700000e+00
  TP6d  N6ar  1 3.950000e-01    3.190000e+00
  TP5d  N6ar  1 3.950000e-01    2.940000e+00
  TP4d  N6ar  1 3.950000e-01    2.940000e+00
  TP3d  N6ar  1 3.950000e-01    2.940000e+00
  TP2d  N6ar  1 3.950000e-01    3.190000e+00
  TP1d  N6ar  1 3.950000e-01    3.190000e+00
  TN6d  N6ar  1 3.950000e-01    3.190000e+00
 TN6ar   N5d  1 3.950000e-01    3.190000e+00
 TN6ar   N4d  1 3.950000e-01    3.190000e+00
 TN6ar   N3d  1 3.950000e-01    2.700000e+00
 TN6ar   N2d  1 3.950000e-01    2.500000e+00
 TN6ar   N1d  1 3.950000e-01    2.500000e+00
  TP6a  P1ar  1 3.950000e-01    2.940000e+00
  TP5a  P1ar  1 3.950000e-01    2.700000e+00
  TP4a  P1ar  1 3.950000e-01    2.700000e+00
  TP3a  P1ar  1 3.950000e-01    2.700000e+00
  TP2a  P1ar  1 3.950000e-01    2.700000e+00
  TP6d  P1ar  1 3.950000e-01    3.430000e+00
  TP5d  P1ar  1 3.950000e-01    3.190000e+00
  TP4d  P1ar  1 3.950000e-01    3.190000e+00
  TP3d  P1ar  1 3.950000e-01    3.190000e+00
  TP2d  P1ar  1 3.950000e-01    3.190000e+00
  TP1d  P1ar  1 3.950000e-01    3.190000e+00
 TP1ar   N6d  1 3.950000e-01    3.190000e+00
 TP1ar   N5d  1 3.950000e-01    2.940000e+00
 TP1ar   N4d  1 3.950000e-01    2.940000e+00
 TP1ar   N3d  1 3.950000e-01    2.500000e+00
 TP1ar   N2d  1 3.950000e-01    2.500000e+00
 TP1ar   N1d  1 3.950000e-01    2.500000e+00
  TP6a  P2ar  1 3.950000e-01    3.190000e+00
  TP5a  P2ar  1 3.950000e-01    2.940000e+00
  TP4a  P2ar  1 3.950000e-01    2.940000e+00
  TP3a  P2ar  1 3.950000e-01    2.940000e+00
  TP6d  P2ar  1 3.950000e-01    3.670000e+00
  TP5d  P2ar  1 3.950000e-01    3.430000e+00
  TP4d  P2ar  1 3.950000e-01    3.430000e+00
  TP3d  P2ar  1 3.950000e-01    3.430000e+00
  TP2d  P2ar  1 3.950000e-01    3.430000e+00
 TP2ar   P1d  1 3.950000e-01    3.190000e+00
 TP2ar   N6d  1 3.950000e-01    3.190000e+00
 TP2ar   N5d  1 3.950000e-01    2.940000e+00
 TP2ar   N4d  1 3.950000e-01    2.700000e+00
 TP2ar   N3d  1 3.950000e-01    2.500000e+00
 TP2ar   N2d  1 3.950000e-01    2.500000e+00
 TP2ar   N1d  1 3.950000e-01    2.500000e+00
  TP6a  P3ar  1 3.950000e-01    3.190000e+00
  TP5a  P3ar  1 3.950000e-01    2.940000e+00
  TP4a  P3ar  1 3.950000e-01    2.940000e+00
  TP6d  P3ar  1 3.950000e-01    3.670000e+00
  TP5d  P3ar  1 3.950000e-01    3.430000e+00
  TP4d  P3ar  1 3.950000e-01    3.430000e+00
  TP3d  P3ar  1 3.950000e-01    3.430000e+00
 TP3ar   P2d  1 3.950000e-01    3.430000e+00
 TP3ar   P1d  1 3.950000e-01    3.190000e+00
 TP3ar   N6d  1 3.950000e-01    2.940000e+00
 TP3ar   N5d  1 3.950000e-01    2.700000e+00
 TP3ar   N4d  1 3.950000e-01    2.700000e+00
 TP3ar   N3d  1 3.950000e-01    2.500000e+00
 TP3ar   N2d  1 3.950000e-01    2.500000e+00
 TP3ar   N1d  1 3.950000e-01    2.110000e+00
  TP6a  P4ar  1 3.950000e-01    3.430000e+00
  TP5a  P4ar  1 3.950000e-01    3.190000e+00
  TP6d  P4ar  1 3.950000e-01    3.910000e+00
  TP5d  P4ar  1 3.950000e-01    3.670000e+00
  TP4d  P4ar  1 3.950000e-01    3.670000e+00
 TP4ar   P3d  1 3.950000e-01    3.430000e+00
 TP4ar   P2d  1 3.950000e-01    3.430000e+00
 TP4ar   P1d  1 3.950000e-01    3.190000e+00
 TP4ar   N6d  1 3.950000e-01    2.940000e+00
 TP4ar   N5d  1 3.950000e-01    2.700000e+00
 TP4ar   N4d  1 3.950000e-01    2.700000e+00
 TP4ar   N3d  1 3.950000e-01    2.500000e+00
 TP4ar   N2d  1 3.950000e-01    2.110000e+00
 TP4ar   N1d  1 3.950000e-01    1.850000e+00
  TP6a  P5ar  1 3.950000e-01    3.670000e+00
  TP6d  P5ar  1 3.950000e-01    4.230000e+00
  TP5d  P5ar  1 3.950000e-01    3.910000e+00
 TP5ar   P4d  1 3.950000e-01    3.670000e+00
 TP5ar   P3d  1 3.950000e-01    3.430000e+00
 TP5ar   P2d  1 3.950000e-01    3.430000e+00
 TP5ar   P1d  1 3.950000e-01    3.190000e+00
 TP5ar   N6d  1 3.950000e-01    2.940000e+00
 TP5ar   N5d  1 3.950000e-01    2.700000e+00
 TP5ar   N4d  1 3.950000e-01    2.700000e+00
 TP5ar   N3d  1 3.950000e-01    2.110000e+00
 TP5ar   N2d  1 3.950000e-01    1.850000e+00
 TP5ar   N1d  1 3.950000e-01    1.670000e+00
  TP6d  P6ar  1 3.950000e-01    4.540000e+00
 TP6ar   P5d  1 3.950000e-01    4.230000e+00
 TP6ar   P4d  1 3.950000e-01    3.910000e+00
 TP6ar   P3d  1 3.950000e-01    3.670000e+00
 TP6ar   P2d  1 3.950000e-01    3.670000e+00
 TP6ar   P1d  1 3.950000e-01    3.430000e+00
 TP6ar   N6d  1 3.950000e-01    3.190000e+00
 TP6ar   N5d  1 3.950000e-01    2.700000e+00
 TP6ar   N4d  1 3.950000e-01    2.500000e+00
 TP6ar   N3d  1 3.950000e-01    2.110000e+00
 TP6ar   N2d  1 3.950000e-01    1.850000e+00
 TP6ar   N1d  1 3.950000e-01    1.670000e+00
  TP6d  N1dr  1 3.950000e-01    1.670000e+00
  TP5d  N1dr  1 3.950000e-01    1.670000e+00
  TP4d  N1dr  1 3.950000e-01    1.850000e+00
  TP3d  N1dr  1 3.950000e-01    2.110000e+00
  TP2d  N1dr  1 3.950000e-01    2.110000e+00
  TP1d  N1dr  1 3.950000e-01    2.110000e+00
  TN6d  N1dr  1 3.950000e-01    2.110000e+00
  TN5d  N1dr  1 3.950000e-01    2.110000e+00
  TN4d  N1dr  1 3.950000e-01    2.110000e+00
  TN3d  N1dr  1 3.950000e-01    2.110000e+00
  TN2d  N1dr  1 3.950000e-01    2.110000e+00
  TP6d  N2dr  1 3.950000e-01    1.850000e+00
  TP5d  N2dr  1 3.950000e-01    1.850000e+00
  TP4d  N2dr  1 3.950000e-01    2.110000e+00
  TP3d  N2dr  1 3.950000e-01    2.110000e+00
  TP2d  N2dr  1 3.950000e-01    2.110000e+00
  TP1d  N2dr  1 3.950000e-01    2.110000e+00
  TN6d  N2dr  1 3.950000e-01    2.110000e+00
  TN5d  N2dr  1 3.950000e-01    2.310000e+00
  TN4d  N2dr  1 3.950000e-01    2.310000e+00
  TN3d  N2dr  1 3.950000e-01    2.310000e+00
  TP6d  N3dr  1 3.950000e-01    2.110000e+00
  TP5d  N3dr  1 3.950000e-01    2.110000e+00
  TP4d  N3dr  1 3.950000e-01    2.110000e+00
  TP3d  N3dr  1 3.950000e-01    2.110000e+00
  TP2d  N3dr  1 3.950000e-01    2.110000e+00
  TP1d  N3dr  1 3.950000e-01    2.110000e+00
  TN6d  N3dr  1 3.950000e-01    2.310000e+00
  TN5d  N3dr  1 3.950000e-01    2.310000e+00
  TN4d  N3dr  1 3.950000e-01    2.310000e+00
  TP6d  N4dr  1 3.950000e-01    2.110000e+00
  TP5d  N4dr  1 3.950000e-01    2.310000e+00
  TP4d  N4dr  1 3.950000e-01    2.310000e+00
  TP3d  N4dr  1 3.950000e-01    2.310000e+00
  TP2d  N4dr  1 3.950000e-01    2.310000e+00
  TP1d  N4dr  1 3.950000e-01    2.500000e+00
  TN6d  N4dr  1 3.950000e-01    2.700000e+00
  TN5d  N4dr  1 3.950000e-01    2.500000e+00
  TP6d  N5dr  1 3.950000e-01    2.310000e+00
  TP5d  N5dr  1 3.950000e-01    2.310000e+00
  TP4d  N5dr  1 3.950000e-01    2.310000e+00
  TP3d  N5dr  1 3.950000e-01    2.310000e+00
  TP2d  N5dr  1 3.950000e-01    2.500000e+00
  TP1d  N5dr  1 3.950000e-01    2.500000e+00
  TN6d  N5dr  1 3.950000e-01    2.700000e+00
  TP6d  N6dr  1 3.950000e-01    2.700000e+00
  TP5d  N6dr  1 3.950000e-01    2.500000e+00
  TP4d  N6dr  1 3.950000e-01    2.500000e+00
  TP3d  N6dr  1 3.950000e-01    2.500000e+00
  TP2d  N6dr  1 3.950000e-01    2.700000e+00
  TP1d  N6dr  1 3.950000e-01    2.700000e+00
  TP6d  P1dr  1 3.950000e-01    2.940000e+00
  TP5d  P1dr  1 3.950000e-01    2.700000e+00
  TP4d  P1dr  1 3.950000e-01    2.700000e+00
  TP3d  P1dr  1 3.950000e-01    2.700000e+00
  TP2d  P1dr  1 3.950000e-01    2.700000e+00
  TP6d  P2dr  1 3.950000e-01    3.190000e+00
  TP5d  P2dr  1 3.950000e-01    2.940000e+00
  TP4d  P2dr  1 3.950000e-01    2.940000e+00
  TP3d  P2dr  1 3.950000e-01    2.940000e+00
  TP6d  P3dr  1 3.950000e-01    3.190000e+00
  TP5d  P3dr  1 3.950000e-01    2.940000e+00
  TP4d  P3dr  1 3.950000e-01    2.940000e+00
  TP6d  P4dr  1 3.950000e-01    3.430000e+00
  TP5d  P4dr  1 3.950000e-01    3.190000e+00
  TP6d  P5dr  1 3.950000e-01    3.670000e+00
  TP6r   P5r  1 3.950000e-01    3.670000e+00
  TP6r   P4r  1 3.950000e-01    3.430000e+00
  TP6r   P3r  1 3.950000e-01    3.190000e+00
  TP6r   P2r  1 3.950000e-01    3.190000e+00
  TP6r   P1r  1 3.950000e-01    2.940000e+00
  TP6r   N6r  1 3.950000e-01    2.700000e+00
  TP6r   N5r  1 3.950000e-01    2.310000e+00
  TP6r   N4r  1 3.950000e-01    2.110000e+00
  TP6r   N3r  1 3.950000e-01    1.850000e+00
  TP6r   N2r  1 3.950000e-01    1.670000e+00
  TP6r   N1r  1 3.980000e-01    1.450000e+00
  TP6r  P6dr  1 3.950000e-01    3.910000e+00
  TP6r  P5dr  1 3.950000e-01    3.670000e+00
  TP6r  P4dr  1 3.950000e-01    3.430000e+00
  TP6r  P3dr  1 3.950000e-01    3.190000e+00
  TP6r  P2dr  1 3.950000e-01    3.190000e+00
  TP6r  P1dr  1 3.950000e-01    2.940000e+00
  TP6r  N6dr  1 3.950000e-01    2.700000e+00
  TP6r  N5dr  1 3.950000e-01    2.310000e+00
  TP6r  N4dr  1 3.950000e-01    2.110000e+00
  TP6r  N3dr  1 3.950000e-01    1.850000e+00
  TP6r  N2dr  1 3.950000e-01    1.670000e+00
  TP6r  N1dr  1 3.980000e-01    1.450000e+00
  TP6r  P6ar  1 3.950000e-01    3.910000e+00
  TP6r  P5ar  1 3.950000e-01    3.670000e+00
  TP6r  P4ar  1 3.950000e-01    3.430000e+00
  TP6r  P3ar  1 3.950000e-01    3.190000e+00
  TP6r  P2ar  1 3.950000e-01    3.190000e+00
  TP6r  P1ar  1 3.950000e-01    2.940000e+00
  TP6r  N6ar  1 3.950000e-01    2.700000e+00
  TP6r  N5ar  1 3.950000e-01    2.310000e+00
  TP6r  N4ar  1 3.950000e-01    2.110000e+00
  TP6r  N3ar  1 3.950000e-01    1.850000e+00
  TP6r  N2ar  1 3.950000e-01    1.670000e+00
  TP6r  N1ar  1 3.980000e-01    1.450000e+00
  TP5r   P4r  1 3.950000e-01    3.190000e+00
  TP5r   P3r  1 3.950000e-01    2.940000e+00
  TP5r   P2r  1 3.950000e-01    2.940000e+00
  TP5r   P1r  1 3.950000e-01    2.700000e+00
  TP5r   N6r  1 3.950000e-01    2.500000e+00
  TP5r   N5r  1 3.950000e-01    2.310000e+00
  TP5r   N4r  1 3.950000e-01    2.310000e+00
  TP5r   N3r  1 3.950000e-01    1.850000e+00
  TP5r   N2r  1 3.950000e-01    1.670000e+00
  TP5r   N1r  1 3.980000e-01    1.450000e+00
  TP5r  P5dr  1 3.950000e-01    3.430000e+00
  TP5r  P4dr  1 3.950000e-01    3.190000e+00
  TP5r  P3dr  1 3.950000e-01    2.940000e+00
  TP5r  P2dr  1 3.950000e-01    2.940000e+00
  TP5r  P1dr  1 3.950000e-01    2.700000e+00
  TP5r  N6dr  1 3.950000e-01    2.500000e+00
  TP5r  N5dr  1 3.950000e-01    2.310000e+00
  TP5r  N4dr  1 3.950000e-01    2.310000e+00
  TP5r  N3dr  1 3.950000e-01    1.850000e+00
  TP5r  N2dr  1 3.950000e-01    1.670000e+00
  TP5r  N1dr  1 3.980000e-01    1.450000e+00
  TP5r  P5ar  1 3.950000e-01    3.430000e+00
  TP5r  P4ar  1 3.950000e-01    3.190000e+00
  TP5r  P3ar  1 3.950000e-01    2.940000e+00
  TP5r  P2ar  1 3.950000e-01    2.940000e+00
  TP5r  P1ar  1 3.950000e-01    2.700000e+00
  TP5r  N6ar  1 3.950000e-01    2.500000e+00
  TP5r  N5ar  1 3.950000e-01    2.310000e+00
  TP5r  N4ar  1 3.950000e-01    2.310000e+00
  TP5r  N3ar  1 3.950000e-01    1.850000e+00
  TP5r  N2ar  1 3.950000e-01    1.670000e+00
  TP5r  N1ar  1 3.980000e-01    1.450000e+00
  TP4r   P3r  1 3.950000e-01    2.940000e+00
  TP4r   P2r  1 3.950000e-01    2.940000e+00
  TP4r   P1r  1 3.950000e-01    2.700000e+00
  TP4r   N6r  1 3.950000e-01    2.500000e+00
  TP4r   N5r  1 3.950000e-01    2.310000e+00
  TP4r   N4r  1 3.950000e-01    2.310000e+00
  TP4r   N3r  1 3.950000e-01    2.110000e+00
  TP4r   N2r  1 3.950000e-01    1.850000e+00
  TP4r   N1r  1 3.950000e-01    1.670000e+00
  TP4r  P4dr  1 3.950000e-01    3.190000e+00
  TP4r  P3dr  1 3.950000e-01    2.940000e+00
  TP4r  P2dr  1 3.950000e-01    2.940000e+00
  TP4r  P1dr  1 3.950000e-01    2.700000e+00
  TP4r  N6dr  1 3.950000e-01    2.500000e+00
  TP4r  N5dr  1 3.950000e-01    2.310000e+00
  TP4r  N4dr  1 3.950000e-01    2.310000e+00
  TP4r  N3dr  1 3.950000e-01    2.110000e+00
  TP4r  N2dr  1 3.950000e-01    1.850000e+00
  TP4r  N1dr  1 3.950000e-01    1.670000e+00
  TP4r  P4ar  1 3.950000e-01    3.190000e+00
  TP4r  P3ar  1 3.950000e-01    2.940000e+00
  TP4r  P2ar  1 3.950000e-01    2.940000e+00
  TP4r  P1ar  1 3.950000e-01    2.700000e+00
  TP4r  N6ar  1 3.950000e-01    2.500000e+00
  TP4r  N5ar  1 3.950000e-01    2.310000e+00
  TP4r  N4ar  1 3.950000e-01    2.310000e+00
  TP4r  N3ar  1 3.950000e-01    2.110000e+00
  TP4r  N2ar  1 3.950000e-01    1.850000e+00
  TP4r  N1ar  1 3.950000e-01    1.670000e+00
  TP3r   P2r  1 3.950000e-01    2.940000e+00
  TP3r   P1r  1 3.950000e-01    2.700000e+00
  TP3r   N6r  1 3.950000e-01    2.500000e+00
  TP3r   N5r  1 3.950000e-01    2.310000e+00
  TP3r   N4r  1 3.950000e-01    2.310000e+00
  TP3r   N3r  1 3.950000e-01    2.110000e+00
  TP3r   N2r  1 3.950000e-01    2.110000e+00
  TP3r   N1r  1 3.950000e-01    1.850000e+00
  TP3r  P3dr  1 3.950000e-01    2.940000e+00
  TP3r  P2dr  1 3.950000e-01    2.940000e+00
  TP3r  P1dr  1 3.950000e-01    2.700000e+00
  TP3r  N6dr  1 3.950000e-01    2.500000e+00
  TP3r  N5dr  1 3.950000e-01    2.310000e+00
  TP3r  N4dr  1 3.950000e-01    2.310000e+00
  TP3r  N3dr  1 3.950000e-01    2.110000e+00
  TP3r  N2dr  1 3.950000e-01    2.110000e+00
  TP3r  N1dr  1 3.950000e-01    1.850000e+00
  TP3r  P3ar  1 3.950000e-01    2.940000e+00
  TP3r  P2ar  1 3.950000e-01    2.940000e+00
  TP3r  P1ar  1 3.950000e-01    2.700000e+00
  TP3r  N6ar  1 3.950000e-01    2.500000e+00
  TP3r  N5ar  1 3.950000e-01    2.310000e+00
  TP3r  N4ar  1 3.950000e-01    2.310000e+00
  TP3r  N3ar  1 3.950000e-01    2.110000e+00
  TP3r  N2ar  1 3.950000e-01    2.110000e+00
  TP3r  N1ar  1 3.950000e-01    1.850000e+00
  TP2r   P1r  1 3.950000e-01    2.700000e+00
  TP2r   N6r  1 3.950000e-01    2.700000e+00
  TP2r   N5r  1 3.950000e-01    2.500000e+00
  TP2r   N4r  1 3.950000e-01    2.310000e+00
  TP2r   N3r  1 3.950000e-01    2.110000e+00
  TP2r   N2r  1 3.950000e-01    2.110000e+00
  TP2r   N1r  1 3.950000e-01    2.110000e+00
  TP2r  P2dr  1 3.950000e-01    2.940000e+00
  TP2r  P1dr  1 3.950000e-01    2.700000e+00
  TP2r  N6dr  1 3.950000e-01    2.700000e+00
  TP2r  N5dr  1 3.950000e-01    2.500000e+00
  TP2r  N4dr  1 3.950000e-01    2.310000e+00
  TP2r  N3dr  1 3.950000e-01    2.110000e+00
  TP2r  N2dr  1 3.950000e-01    2.110000e+00
  TP2r  N1dr  1 3.950000e-01    2.110000e+00
  TP2r  P2ar  1 3.950000e-01    2.940000e+00
  TP2r  P1ar  1 3.950000e-01    2.700000e+00
  TP2r  N6ar  1 3.950000e-01    2.700000e+00
  TP2r  N5ar  1 3.950000e-01    2.500000e+00
  TP2r  N4ar  1 3.950000e-01    2.310000e+00
  TP2r  N3ar  1 3.950000e-01    2.110000e+00
  TP2r  N2ar  1 3.950000e-01    2.110000e+00
  TP2r  N1ar  1 3.950000e-01    2.110000e+00
  TP1r   N6r  1 3.950000e-01    2.700000e+00
  TP1r   N5r  1 3.950000e-01    2.500000e+00
  TP1r   N4r  1 3.950000e-01    2.500000e+00
  TP1r   N3r  1 3.950000e-01    2.110000e+00
  TP1r   N2r  1 3.950000e-01    2.110000e+00
  TP1r   N1r  1 3.950000e-01    2.110000e+00
  TP1r  P1dr  1 3.950000e-01    2.700000e+00
  TP1r  N6dr  1 3.950000e-01    2.700000e+00
  TP1r  N5dr  1 3.950000e-01    2.500000e+00
  TP1r  N4dr  1 3.950000e-01    2.500000e+00
  TP1r  N3dr  1 3.950000e-01    2.110000e+00
  TP1r  N2dr  1 3.950000e-01    2.110000e+00
  TP1r  N1dr  1 3.950000e-01    2.110000e+00
  TP1r  P1ar  1 3.950000e-01    2.700000e+00
  TP1r  N6ar  1 3.950000e-01    2.700000e+00
  TP1r  N5ar  1 3.950000e-01    2.500000e+00
  TP1r  N4ar  1 3.950000e-01    2.500000e+00
  TP1r  N3ar  1 3.950000e-01    2.110000e+00
  TP1r  N2ar  1 3.950000e-01    2.110000e+00
  TP1r  N1ar  1 3.950000e-01    2.110000e+00
  TN6r   N5r  1 3.950000e-01    2.700000e+00
  TN6r   N4r  1 3.950000e-01    2.700000e+00
  TN6r   N3r  1 3.950000e-01    2.310000e+00
  TN6r   N2r  1 3.950000e-01    2.110000e+00
  TN6r   N1r  1 3.950000e-01    2.110000e+00
  TN6r  N6dr  1 3.950000e-01    2.700000e+00
  TN6r  N5dr  1 3.950000e-01    2.700000e+00
  TN6r  N4dr  1 3.950000e-01    2.700000e+00
  TN6r  N3dr  1 3.950000e-01    2.310000e+00
  TN6r  N2dr  1 3.950000e-01    2.110000e+00
  TN6r  N1dr  1 3.950000e-01    2.110000e+00
  TN6r  N6ar  1 3.950000e-01    2.700000e+00
  TN6r  N5ar  1 3.950000e-01    2.700000e+00
  TN6r  N4ar  1 3.950000e-01    2.700000e+00
  TN6r  N3ar  1 3.950000e-01    2.310000e+00
  TN6r  N2ar  1 3.950000e-01    2.110000e+00
  TN6r  N1ar  1 3.950000e-01    2.110000e+00
  TN5r   N4r  1 3.950000e-01    2.500000e+00
  TN5r   N3r  1 3.950000e-01    2.310000e+00
  TN5r   N2r  1 3.950000e-01    2.310000e+00
  TN5r   N1r  1 3.950000e-01    2.110000e+00
  TN5r  N5dr  1 3.950000e-01    2.500000e+00
  TN5r  N4dr  1 3.950000e-01    2.500000e+00
  TN5r  N3dr  1 3.950000e-01    2.310000e+00
  TN5r  N2dr  1 3.950000e-01    2.310000e+00
  TN5r  N1dr  1 3.950000e-01    2.110000e+00
  TN5r  N5ar  1 3.950000e-01    2.500000e+00
  TN5r  N4ar  1 3.950000e-01    2.500000e+00
  TN5r  N3ar  1 3.950000e-01    2.310000e+00
  TN5r  N2ar  1 3.950000e-01    2.310000e+00
  TN5r  N1ar  1 3.950000e-01    2.110000e+00
  TN4r   N3r  1 3.950000e-01    2.310000e+00
  TN4r   N2r  1 3.950000e-01    2.310000e+00
  TN4r   N1r  1 3.950000e-01    2.110000e+00
  TN4r  N4dr  1 3.950000e-01    2.500000e+00
  TN4r  N3dr  1 3.950000e-01    2.310000e+00
  TN4r  N2dr  1 3.950000e-01    2.310000e+00
  TN4r  N1dr  1 3.950000e-01    2.110000e+00
  TN4r  N4ar  1 3.950000e-01    2.500000e+00
  TN4r  N3ar  1 3.950000e-01    2.310000e+00
  TN4r  N2ar  1 3.950000e-01    2.310000e+00
  TN4r  N1ar  1 3.950000e-01    2.110000e+00
  TN3r   N2r  1 3.950000e-01    2.310000e+00
  TN3r   N1r  1 3.950000e-01    2.110000e+00
  TN3r  N3dr  1 3.950000e-01    2.310000e+00
  TN3r  N2dr  1 3.950000e-01    2.310000e+00
  TN3r  N1dr  1 3.950000e-01    2.110000e+00
  TN3r  N3ar  1 3.950000e-01    2.310000e+00
  TN3r  N2ar  1 3.950000e-01    2.310000e+00
  TN3r  N1ar  1 3.950000e-01    2.110000e+00
  TN2r   N1r  1 3.950000e-01    2.110000e+00
  TN2r  N2dr  1 3.950000e-01    2.310000e+00
  TN2r  N1dr  1 3.950000e-01    2.110000e+00
  TN2r  N2ar  1 3.950000e-01    2.310000e+00
  TN2r  N1ar  1 3.950000e-01    2.110000e+00
  TN1r  N1dr  1 3.950000e-01    2.310000e+00
  TN1r  N1ar  1 3.950000e-01    2.310000e+00
 TP6dr   P5r  1 3.950000e-01    3.670000e+00
 TP6dr   P4r  1 3.950000e-01    3.430000e+00
 TP6dr   P3r  1 3.950000e-01    3.190000e+00
 TP6dr   P2r  1 3.950000e-01    3.190000e+00
 TP6dr   P1r  1 3.950000e-01    2.940000e+00
 TP6dr   N6r  1 3.950000e-01    2.700000e+00
 TP6dr   N5r  1 3.950000e-01    2.310000e+00
 TP6dr   N4r  1 3.950000e-01    2.110000e+00
 TP6dr   N3r  1 3.950000e-01    1.850000e+00
 TP6dr   N2r  1 3.950000e-01    1.670000e+00
 TP6dr   N1r  1 3.980000e-01    1.450000e+00
 TP6dr  P5dr  1 3.950000e-01    3.430000e+00
 TP6dr  P4dr  1 3.950000e-01    3.190000e+00
 TP6dr  P3dr  1 3.950000e-01    2.940000e+00
 TP6dr  P2dr  1 3.950000e-01    2.940000e+00
 TP6dr  P1dr  1 3.950000e-01    2.700000e+00
 TP6dr  N6dr  1 3.950000e-01    2.500000e+00
 TP6dr  N5dr  1 3.950000e-01    2.110000e+00
 TP6dr  N4dr  1 3.950000e-01    1.850000e+00
 TP6dr  N3dr  1 3.950000e-01    1.850000e+00
 TP6dr  N2dr  1 3.950000e-01    1.670000e+00
 TP6dr  N1dr  1 3.980000e-01    1.450000e+00
 TP6dr  P6ar  1 3.950000e-01    4.230000e+00
 TP6dr  P5ar  1 3.950000e-01    3.910000e+00
 TP6dr  P4ar  1 3.950000e-01    3.670000e+00
 TP6dr  P3ar  1 3.950000e-01    3.430000e+00
 TP6dr  P2ar  1 3.950000e-01    3.430000e+00
 TP6dr  P1ar  1 3.950000e-01    3.190000e+00
 TP6dr  N6ar  1 3.950000e-01    2.940000e+00
 TP6dr  N5ar  1 3.950000e-01    2.500000e+00
 TP6dr  N4ar  1 3.950000e-01    2.310000e+00
 TP6dr  N3ar  1 3.950000e-01    1.850000e+00
 TP6dr  N2ar  1 3.950000e-01    1.670000e+00
 TP6dr  N1ar  1 3.980000e-01    1.450000e+00
 TP5dr   P4r  1 3.950000e-01    3.190000e+00
 TP5dr   P3r  1 3.950000e-01    2.940000e+00
 TP5dr   P2r  1 3.950000e-01    2.940000e+00
 TP5dr   P1r  1 3.950000e-01    2.700000e+00
 TP5dr   N6r  1 3.950000e-01    2.500000e+00
 TP5dr   N5r  1 3.950000e-01    2.310000e+00
 TP5dr   N4r  1 3.950000e-01    2.310000e+00
 TP5dr   N3r  1 3.950000e-01    1.850000e+00
 TP5dr   N2r  1 3.950000e-01    1.670000e+00
 TP5dr   N1r  1 3.980000e-01    1.450000e+00
 TP5dr  P4dr  1 3.950000e-01    2.940000e+00
 TP5dr  P3dr  1 3.950000e-01    2.700000e+00
 TP5dr  P2dr  1 3.950000e-01    2.700000e+00
 TP5dr  P1dr  1 3.950000e-01    2.500000e+00
 TP5dr  N6dr  1 3.950000e-01    2.310000e+00
 TP5dr  N5dr  1 3.950000e-01    2.110000e+00
 TP5dr  N4dr  1 3.950000e-01    2.110000e+00
 TP5dr  N3dr  1 3.950000e-01    1.850000e+00
 TP5dr  N2dr  1 3.950000e-01    1.670000e+00
 TP5dr  N1dr  1 3.980000e-01    1.450000e+00
 TP5dr  P5ar  1 3.950000e-01    3.670000e+00
 TP5dr  P4ar  1 3.950000e-01    3.430000e+00
 TP5dr  P3ar  1 3.950000e-01    3.190000e+00
 TP5dr  P2ar  1 3.950000e-01    3.190000e+00
 TP5dr  P1ar  1 3.950000e-01    2.940000e+00
 TP5dr  N6ar  1 3.950000e-01    2.700000e+00
 TP5dr  N5ar  1 3.950000e-01    2.500000e+00
 TP5dr  N4ar  1 3.950000e-01    2.500000e+00
 TP5dr  N3ar  1 3.950000e-01    1.850000e+00
 TP5dr  N2ar  1 3.950000e-01    1.670000e+00
 TP5dr  N1ar  1 3.980000e-01    1.450000e+00
 TP4dr   P3r  1 3.950000e-01    2.940000e+00
 TP4dr   P2r  1 3.950000e-01    2.940000e+00
 TP4dr   P1r  1 3.950000e-01    2.700000e+00
 TP4dr   N6r  1 3.950000e-01    2.500000e+00
 TP4dr   N5r  1 3.950000e-01    2.310000e+00
 TP4dr   N4r  1 3.950000e-01    2.310000e+00
 TP4dr   N3r  1 3.950000e-01    2.110000e+00
 TP4dr   N2r  1 3.950000e-01    1.850000e+00
 TP4dr   N1r  1 3.950000e-01    1.670000e+00
 TP4dr  P3dr  1 3.950000e-01    2.700000e+00
 TP4dr  P2dr  1 3.950000e-01    2.700000e+00
 TP4dr  P1dr  1 3.950000e-01    2.500000e+00
 TP4dr  N6dr  1 3.950000e-01    2.310000e+00
 TP4dr  N5dr  1 3.950000e-01    2.110000e+00
 TP4dr  N4dr  1 3.950000e-01    2.110000e+00
 TP4dr  N3dr  1 3.950000e-01    1.850000e+00
 TP4dr  N2dr  1 3.950000e-01    1.850000e+00
 TP4dr  N1dr  1 3.950000e-01    1.670000e+00
 TP4dr  P4ar  1 3.950000e-01    3.430000e+00
 TP4dr  P3ar  1 3.950000e-01    3.190000e+00
 TP4dr  P2ar  1 3.950000e-01    3.190000e+00
 TP4dr  P1ar  1 3.950000e-01    2.940000e+00
 TP4dr  N6ar  1 3.950000e-01    2.700000e+00
 TP4dr  N5ar  1 3.950000e-01    2.500000e+00
 TP4dr  N4ar  1 3.950000e-01    2.500000e+00
 TP4dr  N3ar  1 3.950000e-01    2.310000e+00
 TP4dr  N2ar  1 3.950000e-01    1.850000e+00
 TP4dr  N1ar  1 3.950000e-01    1.670000e+00
 TP3dr   P2r  1 3.950000e-01    2.940000e+00
 TP3dr   P1r  1 3.950000e-01    2.700000e+00
 TP3dr   N6r  1 3.950000e-01    2.500000e+00
 TP3dr   N5r  1 3.950000e-01    2.310000e+00
 TP3dr   N4r  1 3.950000e-01    2.310000e+00
 TP3dr   N3r  1 3.950000e-01    2.110000e+00
 TP3dr   N2r  1 3.950000e-01    2.110000e+00
 TP3dr   N1r  1 3.950000e-01    1.850000e+00
 TP3dr  P2dr  1 3.950000e-01    2.700000e+00
 TP3dr  P1dr  1 3.950000e-01    2.500000e+00
 TP3dr  N6dr  1 3.950000e-01    2.310000e+00
 TP3dr  N5dr  1 3.950000e-01    2.110000e+00
 TP3dr  N4dr  1 3.950000e-01    2.110000e+00
 TP3dr  N3dr  1 3.950000e-01    1.850000e+00
 TP3dr  N2dr  1 3.950000e-01    1.850000e+00
 TP3dr  N1dr  1 3.950000e-01    1.850000e+00
 TP3dr  P3ar  1 3.950000e-01    3.190000e+00
 TP3dr  P2ar  1 3.950000e-01    3.190000e+00
 TP3dr  P1ar  1 3.950000e-01    2.940000e+00
 TP3dr  N6ar  1 3.950000e-01    2.700000e+00
 TP3dr  N5ar  1 3.950000e-01    2.500000e+00
 TP3dr  N4ar  1 3.950000e-01    2.500000e+00
 TP3dr  N3ar  1 3.950000e-01    2.310000e+00
 TP3dr  N2ar  1 3.950000e-01    2.310000e+00
 TP3dr  N1ar  1 3.950000e-01    1.850000e+00
 TP2dr   P1r  1 3.950000e-01    2.700000e+00
 TP2dr   N6r  1 3.950000e-01    2.700000e+00
 TP2dr   N5r  1 3.950000e-01    2.500000e+00
 TP2dr   N4r  1 3.950000e-01    2.310000e+00
 TP2dr   N3r  1 3.950000e-01    2.110000e+00
 TP2dr   N2r  1 3.950000e-01    2.110000e+00
 TP2dr   N1r  1 3.950000e-01    2.110000e+00
 TP2dr  P1dr  1 3.950000e-01    2.500000e+00
 TP2dr  N6dr  1 3.950000e-01    2.500000e+00
 TP2dr  N5dr  1 3.950000e-01    2.310000e+00
 TP2dr  N4dr  1 3.950000e-01    2.110000e+00
 TP2dr  N3dr  1 3.950000e-01    1.850000e+00
 TP2dr  N2dr  1 3.950000e-01    1.850000e+00
 TP2dr  N1dr  1 3.950000e-01    1.850000e+00
 TP2dr  P2ar  1 3.950000e-01    3.190000e+00
 TP2dr  P1ar  1 3.950000e-01    2.940000e+00
 TP2dr  N6ar  1 3.950000e-01    2.940000e+00
 TP2dr  N5ar  1 3.950000e-01    2.700000e+00
 TP2dr  N4ar  1 3.950000e-01    2.500000e+00
 TP2dr  N3ar  1 3.950000e-01    2.310000e+00
 TP2dr  N2ar  1 3.950000e-01    2.310000e+00
 TP2dr  N1ar  1 3.950000e-01    2.310000e+00
 TP1dr   N6r  1 3.950000e-01    2.700000e+00
 TP1dr   N5r  1 3.950000e-01    2.500000e+00
 TP1dr   N4r  1 3.950000e-01    2.500000e+00
 TP1dr   N3r  1 3.950000e-01    2.110000e+00
 TP1dr   N2r  1 3.950000e-01    2.110000e+00
 TP1dr   N1r  1 3.950000e-01    2.110000e+00
 TP1dr  N6dr  1 3.950000e-01    2.500000e+00
 TP1dr  N5dr  1 3.950000e-01    2.310000e+00
 TP1dr  N4dr  1 3.950000e-01    2.310000e+00
 TP1dr  N3dr  1 3.950000e-01    1.850000e+00
 TP1dr  N2dr  1 3.950000e-01    1.850000e+00
 TP1dr  N1dr  1 3.950000e-01    1.850000e+00
 TP1dr  P1ar  1 3.950000e-01    2.940000e+00
 TP1dr  N6ar  1 3.950000e-01    2.940000e+00
 TP1dr  N5ar  1 3.950000e-01    2.700000e+00
 TP1dr  N4ar  1 3.950000e-01    2.700000e+00
 TP1dr  N3ar  1 3.950000e-01    2.310000e+00
 TP1dr  N2ar  1 3.950000e-01    2.310000e+00
 TP1dr  N1ar  1 3.950000e-01    2.310000e+00
 TN6dr   N5r  1 3.950000e-01    2.700000e+00
 TN6dr   N4r  1 3.950000e-01    2.700000e+00
 TN6dr   N3r  1 3.950000e-01    2.310000e+00
 TN6dr   N2r  1 3.950000e-01    2.110000e+00
 TN6dr   N1r  1 3.950000e-01    2.110000e+00
 TN6dr  N5dr  1 3.950000e-01    2.500000e+00
 TN6dr  N4dr  1 3.950000e-01    2.500000e+00
 TN6dr  N3dr  1 3.950000e-01    2.110000e+00
 TN6dr  N2dr  1 3.950000e-01    1.850000e+00
 TN6dr  N1dr  1 3.950000e-01    1.850000e+00
 TN6dr  N6ar  1 3.950000e-01    2.940000e+00
 TN6dr  N5ar  1 3.950000e-01    2.940000e+00
 TN6dr  N4ar  1 3.950000e-01    2.940000e+00
 TN6dr  N3ar  1 3.950000e-01    2.500000e+00
 TN6dr  N2ar  1 3.950000e-01    2.310000e+00
 TN6dr  N1ar  1 3.950000e-01    2.310000e+00
 TN5dr   N4r  1 3.950000e-01    2.500000e+00
 TN5dr   N3r  1 3.950000e-01    2.310000e+00
 TN5dr   N2r  1 3.950000e-01    2.310000e+00
 TN5dr   N1r  1 3.950000e-01    2.110000e+00
 TN5dr  N4dr  1 3.950000e-01    2.310000e+00
 TN5dr  N3dr  1 3.950000e-01    2.110000e+00
 TN5dr  N2dr  1 3.950000e-01    2.110000e+00
 TN5dr  N1dr  1 3.950000e-01    1.850000e+00
 TN5dr  N5ar  1 3.950000e-01    2.700000e+00
 TN5dr  N4ar  1 3.950000e-01    2.700000e+00
 TN5dr  N3ar  1 3.950000e-01    2.500000e+00
 TN5dr  N2ar  1 3.950000e-01    2.500000e+00
 TN5dr  N1ar  1 3.950000e-01    2.310000e+00
 TN4dr   N3r  1 3.950000e-01    2.310000e+00
 TN4dr   N2r  1 3.950000e-01    2.310000e+00
 TN4dr   N1r  1 3.950000e-01    2.110000e+00
 TN4dr  N3dr  1 3.950000e-01    2.110000e+00
 TN4dr  N2dr  1 3.950000e-01    2.110000e+00
 TN4dr  N1dr  1 3.950000e-01    1.850000e+00
 TN4dr  N4ar  1 3.950000e-01    2.700000e+00
 TN4dr  N3ar  1 3.950000e-01    2.500000e+00
 TN4dr  N2ar  1 3.950000e-01    2.500000e+00
 TN4dr  N1ar  1 3.950000e-01    2.310000e+00
 TN3dr   N2r  1 3.950000e-01    2.310000e+00
 TN3dr   N1r  1 3.950000e-01    2.110000e+00
 TN3dr  N2dr  1 3.950000e-01    2.110000e+00
 TN3dr  N1dr  1 3.950000e-01    1.850000e+00
 TN3dr  N3ar  1 3.950000e-01    2.500000e+00
 TN3dr  N2ar  1 3.950000e-01    2.500000e+00
 TN3dr  N1ar  1 3.950000e-01    2.310000e+00
 TN2dr   N1r  1 3.950000e-01    2.110000e+00
 TN2dr  N1dr  1 3.950000e-01    1.850000e+00
 TN2dr  N2ar  1 3.950000e-01    2.500000e+00
 TN2dr  N1ar  1 3.950000e-01    2.310000e+00
 TN1dr  N1ar  1 3.950000e-01    2.500000e+00
 TP6ar   P5r  1 3.950000e-01    3.670000e+00
 TP6ar   P4r  1 3.950000e-01    3.430000e+00
 TP6ar   P3r  1 3.950000e-01    3.190000e+00
 TP6ar   P2r  1 3.950000e-01    3.190000e+00
 TP6ar   P1r  1 3.950000e-01    2.940000e+00
 TP6ar   N6r  1 3.950000e-01    2.700000e+00
 TP6ar   N5r  1 3.950000e-01    2.310000e+00
 TP6ar   N4r  1 3.950000e-01    2.110000e+00
 TP6ar   N3r  1 3.950000e-01    1.850000e+00
 TP6ar   N2r  1 3.950000e-01    1.670000e+00
 TP6ar   N1r  1 3.980000e-01    1.450000e+00
 TP6ar  P5dr  1 3.950000e-01    3.910000e+00
 TP6ar  P4dr  1 3.950000e-01    3.670000e+00
 TP6ar  P3dr  1 3.950000e-01    3.430000e+00
 TP6ar  P2dr  1 3.950000e-01    3.430000e+00
 TP6ar  P1dr  1 3.950000e-01    3.190000e+00
 TP6ar  N6dr  1 3.950000e-01    2.940000e+00
 TP6ar  N5dr  1 3.950000e-01    2.500000e+00
 TP6ar  N4dr  1 3.950000e-01    2.310000e+00
 TP6ar  N3dr  1 3.950000e-01    1.850000e+00
 TP6ar  N2dr  1 3.950000e-01    1.670000e+00
 TP6ar  N1dr  1 3.980000e-01    1.450000e+00
 TP6ar  P5ar  1 3.950000e-01    3.430000e+00
 TP6ar  P4ar  1 3.950000e-01    3.190000e+00
 TP6ar  P3ar  1 3.950000e-01    2.940000e+00
 TP6ar  P2ar  1 3.950000e-01    2.940000e+00
 TP6ar  P1ar  1 3.950000e-01    2.700000e+00
 TP6ar  N6ar  1 3.950000e-01    2.500000e+00
 TP6ar  N5ar  1 3.950000e-01    2.110000e+00
 TP6ar  N4ar  1 3.950000e-01    1.850000e+00
 TP6ar  N3ar  1 3.950000e-01    1.850000e+00
 TP6ar  N2ar  1 3.950000e-01    1.670000e+00
 TP6ar  N1ar  1 3.980000e-01    1.450000e+00
 TP5ar   P4r  1 3.950000e-01    3.190000e+00
 TP5ar   P3r  1 3.950000e-01    2.940000e+00
 TP5ar   P2r  1 3.950000e-01    2.940000e+00
 TP5ar   P1r  1 3.950000e-01    2.700000e+00
 TP5ar   N6r  1 3.950000e-01    2.500000e+00
 TP5ar   N5r  1 3.950000e-01    2.310000e+00
 TP5ar   N4r  1 3.950000e-01    2.310000e+00
 TP5ar   N3r  1 3.950000e-01    1.850000e+00
 TP5ar   N2r  1 3.950000e-01    1.670000e+00
 TP5ar   N1r  1 3.980000e-01    1.450000e+00
 TP5ar  P4dr  1 3.950000e-01    3.430000e+00
 TP5ar  P3dr  1 3.950000e-01    3.190000e+00
 TP5ar  P2dr  1 3.950000e-01    3.190000e+00
 TP5ar  P1dr  1 3.950000e-01    2.940000e+00
 TP5ar  N6dr  1 3.950000e-01    2.700000e+00
 TP5ar  N5dr  1 3.950000e-01    2.500000e+00
 TP5ar  N4dr  1 3.950000e-01    2.500000e+00
 TP5ar  N3dr  1 3.950000e-01    1.850000e+00
 TP5ar  N2dr  1 3.950000e-01    1.670000e+00
 TP5ar  N1dr  1 3.980000e-01    1.450000e+00
 TP5ar  P4ar  1 3.950000e-01    2.940000e+00
 TP5ar  P3ar  1 3.950000e-01    2.700000e+00
 TP5ar  P2ar  1 3.950000e-01    2.700000e+00
 TP5ar  P1ar  1 3.950000e-01    2.500000e+00
 TP5ar  N6ar  1 3.950000e-01    2.310000e+00
 TP5ar  N5ar  1 3.950000e-01    2.110000e+00
 TP5ar  N4ar  1 3.950000e-01    2.110000e+00
 TP5ar  N3ar  1 3.950000e-01    1.850000e+00
 TP5ar  N2ar  1 3.950000e-01    1.670000e+00
 TP5ar  N1ar  1 3.980000e-01    1.450000e+00
 TP4ar   P3r  1 3.950000e-01    2.940000e+00
 TP4ar   P2r  1 3.950000e-01    2.940000e+00
 TP4ar   P1r  1 3.950000e-01    2.700000e+00
 TP4ar   N6r  1 3.950000e-01    2.500000e+00
 TP4ar   N5r  1 3.950000e-01    2.310000e+00
 TP4ar   N4r  1 3.950000e-01    2.310000e+00
 TP4ar   N3r  1 3.950000e-01    2.110000e+00
 TP4ar   N2r  1 3.950000e-01    1.850000e+00
 TP4ar   N1r  1 3.950000e-01    1.670000e+00
 TP4ar  P3dr  1 3.950000e-01    3.190000e+00
 TP4ar  P2dr  1 3.950000e-01    3.190000e+00
 TP4ar  P1dr  1 3.950000e-01    2.940000e+00
 TP4ar  N6dr  1 3.950000e-01    2.700000e+00
 TP4ar  N5dr  1 3.950000e-01    2.500000e+00
 TP4ar  N4dr  1 3.950000e-01    2.500000e+00
 TP4ar  N3dr  1 3.950000e-01    2.310000e+00
 TP4ar  N2dr  1 3.950000e-01    1.850000e+00
 TP4ar  N1dr  1 3.950000e-01    1.670000e+00
 TP4ar  P3ar  1 3.950000e-01    2.700000e+00
 TP4ar  P2ar  1 3.950000e-01    2.700000e+00
 TP4ar  P1ar  1 3.950000e-01    2.500000e+00
 TP4ar  N6ar  1 3.950000e-01    2.310000e+00
 TP4ar  N5ar  1 3.950000e-01    2.110000e+00
 TP4ar  N4ar  1 3.950000e-01    2.110000e+00
 TP4ar  N3ar  1 3.950000e-01    1.850000e+00
 TP4ar  N2ar  1 3.950000e-01    1.850000e+00
 TP4ar  N1ar  1 3.950000e-01    1.670000e+00
 TP3ar   P2r  1 3.950000e-01    2.940000e+00
 TP3ar   P1r  1 3.950000e-01    2.700000e+00
 TP3ar   N6r  1 3.950000e-01    2.500000e+00
 TP3ar   N5r  1 3.950000e-01    2.310000e+00
 TP3ar   N4r  1 3.950000e-01    2.310000e+00
 TP3ar   N3r  1 3.950000e-01    2.110000e+00
 TP3ar   N2r  1 3.950000e-01    2.110000e+00
 TP3ar   N1r  1 3.950000e-01    1.850000e+00
 TP3ar  P2dr  1 3.950000e-01    3.190000e+00
 TP3ar  P1dr  1 3.950000e-01    2.940000e+00
 TP3ar  N6dr  1 3.950000e-01    2.700000e+00
 TP3ar  N5dr  1 3.950000e-01    2.500000e+00
 TP3ar  N4dr  1 3.950000e-01    2.500000e+00
 TP3ar  N3dr  1 3.950000e-01    2.310000e+00
 TP3ar  N2dr  1 3.950000e-01    2.310000e+00
 TP3ar  N1dr  1 3.950000e-01    1.850000e+00
 TP3ar  P2ar  1 3.950000e-01    2.700000e+00
 TP3ar  P1ar  1 3.950000e-01    2.500000e+00
 TP3ar  N6ar  1 3.950000e-01    2.310000e+00
 TP3ar  N5ar  1 3.950000e-01    2.110000e+00
 TP3ar  N4ar  1 3.950000e-01    2.110000e+00
 TP3ar  N3ar  1 3.950000e-01    1.850000e+00
 TP3ar  N2ar  1 3.950000e-01    1.850000e+00
 TP3ar  N1ar  1 3.950000e-01    1.850000e+00
 TP2ar   P1r  1 3.950000e-01    2.700000e+00
 TP2ar   N6r  1 3.950000e-01    2.700000e+00
 TP2ar   N5r  1 3.950000e-01    2.500000e+00
 TP2ar   N4r  1 3.950000e-01    2.310000e+00
 TP2ar   N3r  1 3.950000e-01    2.110000e+00
 TP2ar   N2r  1 3.950000e-01    2.110000e+00
 TP2ar   N1r  1 3.950000e-01    2.110000e+00
 TP2ar  P1dr  1 3.950000e-01    2.940000e+00
 TP2ar  N6dr  1 3.950000e-01    2.940000e+00
 TP2ar  N5dr  1 3.950000e-01    2.700000e+00
 TP2ar  N4dr  1 3.950000e-01    2.500000e+00
 TP2ar  N3dr  1 3.950000e-01    2.310000e+00
 TP2ar  N2dr  1 3.950000e-01    2.310000e+00
 TP2ar  N1dr  1 3.950000e-01    2.310000e+00
 TP2ar  P1ar  1 3.950000e-01    2.500000e+00
 TP2ar  N6ar  1 3.950000e-01    2.500000e+00
 TP2ar  N5ar  1 3.950000e-01    2.310000e+00
 TP2ar  N4ar  1 3.950000e-01    2.110000e+00
 TP2ar  N3ar  1 3.950000e-01    1.850000e+00
 TP2ar  N2ar  1 3.950000e-01    1.850000e+00
 TP2ar  N1ar  1 3.950000e-01    1.850000e+00
 TP1ar   N6r  1 3.950000e-01    2.700000e+00
 TP1ar   N5r  1 3.950000e-01    2.500000e+00
 TP1ar   N4r  1 3.950000e-01    2.500000e+00
 TP1ar   N3r  1 3.950000e-01    2.110000e+00
 TP1ar   N2r  1 3.950000e-01    2.110000e+00
 TP1ar   N1r  1 3.950000e-01    2.110000e+00
 TP1ar  N6dr  1 3.950000e-01    2.940000e+00
 TP1ar  N5dr  1 3.950000e-01    2.700000e+00
 TP1ar  N4dr  1 3.950000e-01    2.700000e+00
 TP1ar  N3dr  1 3.950000e-01    2.310000e+00
 TP1ar  N2dr  1 3.950000e-01    2.310000e+00
 TP1ar  N1dr  1 3.950000e-01    2.310000e+00
 TP1ar  N6ar  1 3.950000e-01    2.500000e+00
 TP1ar  N5ar  1 3.950000e-01    2.310000e+00
 TP1ar  N4ar  1 3.950000e-01    2.310000e+00
 TP1ar  N3ar  1 3.950000e-01    1.850000e+00
 TP1ar  N2ar  1 3.950000e-01    1.850000e+00
 TP1ar  N1ar  1 3.950000e-01    1.850000e+00
 TN6ar   N5r  1 3.950000e-01    2.700000e+00
 TN6ar   N4r  1 3.950000e-01    2.700000e+00
 TN6ar   N3r  1 3.950000e-01    2.310000e+00
 TN6ar   N2r  1 3.950000e-01    2.110000e+00
 TN6ar   N1r  1 3.950000e-01    2.110000e+00
 TN6ar  N5dr  1 3.950000e-01    2.940000e+00
 TN6ar  N4dr  1 3.950000e-01    2.940000e+00
 TN6ar  N3dr  1 3.950000e-01    2.500000e+00
 TN6ar  N2dr  1 3.950000e-01    2.310000e+00
 TN6ar  N1dr  1 3.950000e-01    2.310000e+00
 TN6ar  N5ar  1 3.950000e-01    2.500000e+00
 TN6ar  N4ar  1 3.950000e-01    2.500000e+00
 TN6ar  N3ar  1 3.950000e-01    2.110000e+00
 TN6ar  N2ar  1 3.950000e-01    1.850000e+00
 TN6ar  N1ar  1 3.950000e-01    1.850000e+00
 TN5ar   N4r  1 3.950000e-01    2.500000e+00
 TN5ar   N3r  1 3.950000e-01    2.310000e+00
 TN5ar   N2r  1 3.950000e-01    2.310000e+00
 TN5ar   N1r  1 3.950000e-01    2.110000e+00
 TN5ar  N4dr  1 3.950000e-01    2.700000e+00
 TN5ar  N3dr  1 3.950000e-01    2.500000e+00
 TN5ar  N2dr  1 3.950000e-01    2.500000e+00
 TN5ar  N1dr  1 3.950000e-01    2.310000e+00
 TN5ar  N4ar  1 3.950000e-01    2.310000e+00
 TN5ar  N3ar  1 3.950000e-01    2.110000e+00
 TN5ar  N2ar  1 3.950000e-01    2.110000e+00
 TN5ar  N1ar  1 3.950000e-01    1.850000e+00
 TN4ar   N3r  1 3.950000e-01    2.310000e+00
 TN4ar   N2r  1 3.950000e-01    2.310000e+00
 TN4ar   N1r  1 3.950000e-01    2.110000e+00
 TN4ar  N3dr  1 3.950000e-01    2.500000e+00
 TN4ar  N2dr  1 3.950000e-01    2.500000e+00
 TN4ar  N1dr  1 3.950000e-01    2.310000e+00
 TN4ar  N3ar  1 3.950000e-01    2.110000e+00
 TN4ar  N2ar  1 3.950000e-01    2.110000e+00
 TN4ar  N1ar  1 3.950000e-01    1.850000e+00
 TN3ar   N2r  1 3.950000e-01    2.310000e+00
 TN3ar   N1r  1 3.950000e-01    2.110000e+00
 TN3ar  N2dr  1 3.950000e-01    2.500000e+00
 TN3ar  N1dr  1 3.950000e-01    2.310000e+00
 TN3ar  N2ar  1 3.950000e-01    2.110000e+00
 TN3ar  N1ar  1 3.950000e-01    1.850000e+00
 TN2ar   N1r  1 3.950000e-01    2.110000e+00
 TN2ar  N1dr  1 3.950000e-01    2.310000e+00
 TN2ar  N1ar  1 3.950000e-01    1.850000e+00
  TC6r   C5r  1 3.950000e-01    2.110000e+00
  TC6r   C4r  1 3.950000e-01    2.110000e+00
  TC6r   C3r  1 3.950000e-01    1.850000e+00
  TC6r   C2r  1 3.950000e-01    1.670000e+00
  TC6r   C1r  1 3.980000e-01    1.450000e+00
  TC6r   X4r  1 3.950000e-01    2.110000e+00
  TC6r   X3r  1 3.950000e-01    2.110000e+00
  TC6r   X2r  1 3.950000e-01    2.110000e+00
  TC6r   X1r  1 3.950000e-01    2.110000e+00
  TC6r  C6vr  1 3.950000e-01    2.500000e+00
  TC6r  C5vr  1 3.950000e-01    2.310000e+00
  TC6r  C4vr  1 3.950000e-01    2.310000e+00
  TC6r  C3vr  1 3.950000e-01    2.110000e+00
  TC6r  C2vr  1 3.950000e-01    1.850000e+00
  TC6r  C1vr  1 3.950000e-01    1.670000e+00
  TC6r  X4vr  1 3.950000e-01    2.310000e+00
  TC6r  X3vr  1 3.950000e-01    2.310000e+00
  TC6r  X2vr  1 3.950000e-01    2.310000e+00
  TC6r  X1vr  1 3.950000e-01    2.310000e+00
  TC6r  C6er  1 3.950000e-01    2.500000e+00
  TC6r  C5er  1 3.950000e-01    2.310000e+00
  TC6r  C4er  1 3.950000e-01    2.310000e+00
  TC6r  C3er  1 3.950000e-01    2.110000e+00
  TC6r  C2er  1 3.950000e-01    1.850000e+00
  TC6r  C1er  1 3.950000e-01    1.670000e+00
  TC6r  X4er  1 3.950000e-01    2.310000e+00
  TC6r  X3er  1 3.950000e-01    2.310000e+00
  TC6r  X2er  1 3.950000e-01    2.310000e+00
  TC6r  X1er  1 3.950000e-01    2.310000e+00
  TC5r   C4r  1 3.950000e-01    2.110000e+00
  TC5r   C3r  1 3.950000e-01    1.850000e+00
  TC5r   C2r  1 3.950000e-01    1.670000e+00
  TC5r   C1r  1 3.950000e-01    1.670000e+00
  TC5r   X4r  1 3.950000e-01    1.850000e+00
  TC5r   X3r  1 3.950000e-01    1.850000e+00
  TC5r   X2r  1 3.950000e-01    1.850000e+00
  TC5r   X1r  1 3.950000e-01    2.110000e+00
  TC5r  C5vr  1 3.950000e-01    2.310000e+00
  TC5r  C4vr  1 3.950000e-01    2.310000e+00
  TC5r  C3vr  1 3.950000e-01    2.110000e+00
  TC5r  C2vr  1 3.950000e-01    1.850000e+00
  TC5r  C1vr  1 3.950000e-01    1.850000e+00
  TC5r  X4vr  1 3.950000e-01    2.110000e+00
  TC5r  X3vr  1 3.950000e-01    2.110000e+00
  TC5r  X2vr  1 3.950000e-01    2.110000e+00
  TC5r  X1vr  1 3.950000e-01    2.310000e+00
  TC5r  C5er  1 3.950000e-01    2.310000e+00
  TC5r  C4er  1 3.950000e-01    2.310000e+00
  TC5r  C3er  1 3.950000e-01    2.110000e+00
  TC5r  C2er  1 3.950000e-01    1.850000e+00
  TC5r  C1er  1 3.950000e-01    1.850000e+00
  TC5r  X4er  1 3.950000e-01    2.110000e+00
  TC5r  X3er  1 3.950000e-01    2.110000e+00
  TC5r  X2er  1 3.950000e-01    2.110000e+00
  TC5r  X1er  1 3.950000e-01    2.310000e+00
  TC4r   C3r  1 3.950000e-01    2.110000e+00
  TC4r   C2r  1 3.950000e-01    1.850000e+00
  TC4r   C1r  1 3.950000e-01    1.670000e+00
  TC4r   X4r  1 3.950000e-01    1.850000e+00
  TC4r   X3r  1 3.950000e-01    1.850000e+00
  TC4r   X2r  1 3.950000e-01    1.850000e+00
  TC4r   X1r  1 3.950000e-01    2.110000e+00
  TC4r  C4vr  1 3.950000e-01    2.310000e+00
  TC4r  C3vr  1 3.950000e-01    2.310000e+00
  TC4r  C2vr  1 3.950000e-01    2.110000e+00
  TC4r  C1vr  1 3.950000e-01    1.850000e+00
  TC4r  X4vr  1 3.950000e-01    2.110000e+00
  TC4r  X3vr  1 3.950000e-01    2.110000e+00
  TC4r  X2vr  1 3.950000e-01    2.110000e+00
  TC4r  X1vr  1 3.950000e-01    2.310000e+00
  TC4r  C4er  1 3.950000e-01    2.310000e+00
  TC4r  C3er  1 3.950000e-01    2.310000e+00
  TC4r  C2er  1 3.950000e-01    2.110000e+00
  TC4r  C1er  1 3.950000e-01    1.850000e+00
  TC4r  X4er  1 3.950000e-01    2.110000e+00
  TC4r  X3er  1 3.950000e-01    2.110000e+00
  TC4r  X2er  1 3.950000e-01    2.110000e+00
  TC4r  X1er  1 3.950000e-01    2.310000e+00
  TC3r   C2r  1 3.950000e-01    2.110000e+00
  TC3r   C1r  1 3.950000e-01    2.110000e+00
  TC3r   X4r  1 3.950000e-01    1.850000e+00
  TC3r   X3r  1 3.950000e-01    1.850000e+00
  TC3r   X2r  1 3.950000e-01    1.850000e+00
  TC3r   X1r  1 3.950000e-01    2.110000e+00
  TC3r  C3vr  1 3.950000e-01    2.310000e+00
  TC3r  C2vr  1 3.950000e-01    2.310000e+00
  TC3r  C1vr  1 3.950000e-01    2.310000e+00
  TC3r  X4vr  1 3.950000e-01    2.110000e+00
  TC3r  X3vr  1 3.950000e-01    2.110000e+00
  TC3r  X2vr  1 3.950000e-01    2.110000e+00
  TC3r  X1vr  1 3.950000e-01    2.310000e+00
  TC3r  C3er  1 3.950000e-01    2.310000e+00
  TC3r  C2er  1 3.950000e-01    2.310000e+00
  TC3r  C1er  1 3.950000e-01    2.310000e+00
  TC3r  X4er  1 3.950000e-01    2.110000e+00
  TC3r  X3er  1 3.950000e-01    2.110000e+00
  TC3r  X2er  1 3.950000e-01    2.110000e+00
  TC3r  X1er  1 3.950000e-01    2.310000e+00
  TC2r   C1r  1 3.950000e-01    2.310000e+00
  TC2r   X4r  1 3.980000e-01    1.450000e+00
  TC2r   X3r  1 3.950000e-01    1.850000e+00
  TC2r   X2r  1 3.950000e-01    1.850000e+00
  TC2r   X1r  1 3.950000e-01    1.850000e+00
  TC2r  C2vr  1 3.950000e-01    2.310000e+00
  TC2r  C1vr  1 3.950000e-01    2.500000e+00
  TC2r  X4vr  1 3.950000e-01    1.670000e+00
  TC2r  X3vr  1 3.950000e-01    2.110000e+00
  TC2r  X2vr  1 3.950000e-01    2.110000e+00
  TC2r  X1vr  1 3.950000e-01    2.110000e+00
  TC2r  C2er  1 3.950000e-01    2.310000e+00
  TC2r  C1er  1 3.950000e-01    2.500000e+00
  TC2r  X4er  1 3.950000e-01    1.670000e+00
  TC2r  X3er  1 3.950000e-01    2.110000e+00
  TC2r  X2er  1 3.950000e-01    2.110000e+00
  TC2r  X1er  1 3.950000e-01    2.110000e+00
  TC1r   X4r  1 3.980000e-01    1.450000e+00
  TC1r   X3r  1 3.950000e-01    1.850000e+00
  TC1r   X2r  1 3.950000e-01    1.850000e+00
  TC1r   X1r  1 3.950000e-01    1.850000e+00
  TC1r  C1vr  1 3.950000e-01    2.310000e+00
  TC1r  X4vr  1 3.950000e-01    1.670000e+00
  TC1r  X3vr  1 3.950000e-01    2.110000e+00
  TC1r  X2vr  1 3.950000e-01    2.110000e+00
  TC1r  X1vr  1 3.950000e-01    2.110000e+00
  TC1r  C1er  1 3.950000e-01    2.310000e+00
  TC1r  X4er  1 3.950000e-01    1.670000e+00
  TC1r  X3er  1 3.950000e-01    2.110000e+00
  TC1r  X2er  1 3.950000e-01    2.110000e+00
  TC1r  X1er  1 3.950000e-01    2.110000e+00
  TX4r   X3r  1 3.950000e-01    2.110000e+00
  TX4r   X2r  1 3.950000e-01    2.110000e+00
  TX4r   X1r  1 3.950000e-01    2.110000e+00
  TX4r  X4vr  1 3.950000e-01    2.310000e+00
  TX4r  X3vr  1 3.950000e-01    2.310000e+00
  TX4r  X2vr  1 3.950000e-01    2.310000e+00
  TX4r  X1vr  1 3.950000e-01    2.310000e+00
  TX4r  X4er  1 3.950000e-01    2.310000e+00
  TX4r  X3er  1 3.950000e-01    2.310000e+00
  TX4r  X2er  1 3.950000e-01    2.310000e+00
  TX4r  X1er  1 3.950000e-01    2.310000e+00
  TX3r   X2r  1 3.950000e-01    2.310000e+00
  TX3r   X1r  1 3.950000e-01    2.310000e+00
  TX3r  X3vr  1 3.950000e-01    2.310000e+00
  TX3r  X2vr  1 3.950000e-01    2.500000e+00
  TX3r  X1vr  1 3.950000e-01    2.500000e+00
  TX3r  X3er  1 3.950000e-01    2.310000e+00
  TX3r  X2er  1 3.950000e-01    2.500000e+00
  TX3r  X1er  1 3.950000e-01    2.500000e+00
  TX2r   X1r  1 3.950000e-01    2.310000e+00
  TX2r  X2vr  1 3.950000e-01    2.500000e+00
  TX2r  X1vr  1 3.950000e-01    2.500000e+00
  TX2r  X2er  1 3.950000e-01    2.500000e+00
  TX2r  X1er  1 3.950000e-01    2.500000e+00
  TX1r  X1vr  1 3.950000e-01    2.700000e+00
  TX1r  X1er  1 3.950000e-01    2.700000e+00
 TC6vr   C5r  1 3.950000e-01    2.310000e+00
 TC6vr   C4r  1 3.950000e-01    2.310000e+00
 TC6vr   C3r  1 3.950000e-01    2.110000e+00
 TC6vr   C2r  1 3.950000e-01    1.850000e+00
 TC6vr   C1r  1 3.950000e-01    1.670000e+00
 TC6vr   X4r  1 3.950000e-01    2.310000e+00
 TC6vr   X3r  1 3.950000e-01    2.310000e+00
 TC6vr   X2r  1 3.950000e-01    2.310000e+00
 TC6vr   X1r  1 3.950000e-01    2.310000e+00
 TC6vr  C5vr  1 3.950000e-01    1.850000e+00
 TC6vr  C4vr  1 3.950000e-01    1.850000e+00
 TC6vr  C3vr  1 3.950000e-01    1.670000e+00
 TC6vr  C2vr  1 3.980000e-01    1.450000e+00
 TC6vr  C1vr  1 3.990000e-01    1.180000e+00
 TC6vr  X4vr  1 3.950000e-01    1.850000e+00
 TC6vr  X3vr  1 3.950000e-01    1.850000e+00
 TC6vr  X2vr  1 3.950000e-01    1.850000e+00
 TC6vr  X1vr  1 3.950000e-01    1.850000e+00
 TC6vr  C6er  1 3.950000e-01    2.700000e+00
 TC6vr  C5er  1 3.950000e-01    2.500000e+00
 TC6vr  C4er  1 3.950000e-01    2.500000e+00
 TC6vr  C3er  1 3.950000e-01    2.310000e+00
 TC6vr  C2er  1 3.950000e-01    2.110000e+00
 TC6vr  C1er  1 3.950000e-01    1.850000e+00
 TC6vr  X4er  1 3.950000e-01    2.500000e+00
 TC6vr  X3er  1 3.950000e-01    2.500000e+00
 TC6vr  X2er  1 3.950000e-01    2.500000e+00
 TC6vr  X1er  1 3.950000e-01    2.500000e+00
 TC5vr   C4r  1 3.950000e-01    2.310000e+00
 TC5vr   C3r  1 3.950000e-01    2.110000e+00
 TC5vr   C2r  1 3.950000e-01    1.850000e+00
 TC5vr   C1r  1 3.950000e-01    1.850000e+00
 TC5vr   X4r  1 3.950000e-01    2.110000e+00
 TC5vr   X3r  1 3.950000e-01    2.110000e+00
 TC5vr   X2r  1 3.950000e-01    2.110000e+00
 TC5vr   X1r  1 3.950000e-01    2.310000e+00
 TC5vr  C4vr  1 3.950000e-01    1.850000e+00
 TC5vr  C3vr  1 3.950000e-01    1.670000e+00
 TC5vr  C2vr  1 3.980000e-01    1.450000e+00
 TC5vr  C1vr  1 3.980000e-01    1.450000e+00
 TC5vr  X4vr  1 3.950000e-01    1.670000e+00
 TC5vr  X3vr  1 3.950000e-01    1.670000e+00
 TC5vr  X2vr  1 3.950000e-01    1.670000e+00
 TC5vr  X1vr  1 3.950000e-01    1.850000e+00
 TC5vr  C5er  1 3.950000e-01    2.500000e+00
 TC5vr  C4er  1 3.950000e-01    2.500000e+00
 TC5vr  C3er  1 3.950000e-01    2.310000e+00
 TC5vr  C2er  1 3.950000e-01    2.110000e+00
 TC5vr  C1er  1 3.950000e-01    2.110000e+00
 TC5vr  X4er  1 3.950000e-01    2.310000e+00
 TC5vr  X3er  1 3.950000e-01    2.310000e+00
 TC5vr  X2er  1 3.950000e-01    2.310000e+00
 TC5vr  X1er  1 3.950000e-01    2.500000e+00
 TC4vr   C3r  1 3.950000e-01    2.310000e+00
 TC4vr   C2r  1 3.950000e-01    2.110000e+00
 TC4vr   C1r  1 3.950000e-01    1.850000e+00
 TC4vr   X4r  1 3.950000e-01    2.110000e+00
 TC4vr   X3r  1 3.950000e-01    2.110000e+00
 TC4vr   X2r  1 3.950000e-01    2.110000e+00
 TC4vr   X1r  1 3.950000e-01    2.310000e+00
 TC4vr  C3vr  1 3.950000e-01    1.850000e+00
 TC4vr  C2vr  1 3.950000e-01    1.670000e+00
 TC4vr  C1vr  1 3.980000e-01    1.450000e+00
 TC4vr  X4vr  1 3.950000e-01    1.670000e+00
 TC4vr  X3vr  1 3.950000e-01    1.670000e+00
 TC4vr  X2vr  1 3.950000e-01    1.670000e+00
 TC4vr  X1vr  1 3.950000e-01    1.850000e+00
 TC4vr  C4er  1 3.950000e-01    2.500000e+00
 TC4vr  C3er  1 3.950000e-01    2.500000e+00
 TC4vr  C2er  1 3.950000e-01    2.310000e+00
 TC4vr  C1er  1 3.950000e-01    2.110000e+00
 TC4vr  X4er  1 3.950000e-01    2.310000e+00
 TC4vr  X3er  1 3.950000e-01    2.310000e+00
 TC4vr  X2er  1 3.950000e-01    2.310000e+00
 TC4vr  X1er  1 3.950000e-01    2.500000e+00
 TC3vr   C2r  1 3.950000e-01    2.310000e+00
 TC3vr   C1r  1 3.950000e-01    2.310000e+00
 TC3vr   X4r  1 3.950000e-01    2.110000e+00
 TC3vr   X3r  1 3.950000e-01    2.110000e+00
 TC3vr   X2r  1 3.950000e-01    2.110000e+00
 TC3vr   X1r  1 3.950000e-01    2.310000e+00
 TC3vr  C2vr  1 3.950000e-01    1.850000e+00
 TC3vr  C1vr  1 3.950000e-01    1.850000e+00
 TC3vr  X4vr  1 3.950000e-01    1.670000e+00
 TC3vr  X3vr  1 3.950000e-01    1.670000e+00
 TC3vr  X2vr  1 3.950000e-01    1.670000e+00
 TC3vr  X1vr  1 3.950000e-01    1.850000e+00
 TC3vr  C3er  1 3.950000e-01    2.500000e+00
 TC3vr  C2er  1 3.950000e-01    2.500000e+00
 TC3vr  C1er  1 3.950000e-01    2.500000e+00
 TC3vr  X4er  1 3.950000e-01    2.310000e+00
 TC3vr  X3er  1 3.950000e-01    2.310000e+00
 TC3vr  X2er  1 3.950000e-01    2.310000e+00
 TC3vr  X1er  1 3.950000e-01    2.500000e+00
 TC2vr   C1r  1 3.950000e-01    2.500000e+00
 TC2vr   X4r  1 3.950000e-01    1.670000e+00
 TC2vr   X3r  1 3.950000e-01    2.110000e+00
 TC2vr   X2r  1 3.950000e-01    2.110000e+00
 TC2vr   X1r  1 3.950000e-01    2.110000e+00
 TC2vr  C1vr  1 3.950000e-01    2.110000e+00
 TC2vr  X4vr  1 3.990000e-01    1.180000e+00
 TC2vr  X3vr  1 3.950000e-01    1.670000e+00
 TC2vr  X2vr  1 3.950000e-01    1.670000e+00
 TC2vr  X1vr  1 3.950000e-01    1.670000e+00
 TC2vr  C2er  1 3.950000e-01    2.500000e+00
 TC2vr  C1er  1 3.950000e-01    2.700000e+00
 TC2vr  X4er  1 3.950000e-01    1.850000e+00
 TC2vr  X3er  1 3.950000e-01    2.310000e+00
 TC2vr  X2er  1 3.950000e-01    2.310000e+00
 TC2vr  X1er  1 3.950000e-01    2.310000e+00
 TC1vr   X4r  1 3.950000e-01    1.670000e+00
 TC1vr   X3r  1 3.950000e-01    2.110000e+00
 TC1vr   X2r  1 3.950000e-01    2.110000e+00
 TC1vr   X1r  1 3.950000e-01    2.110000e+00
 TC1vr  X4vr  1 3.990000e-01    1.180000e+00
 TC1vr  X3vr  1 3.950000e-01    1.670000e+00
 TC1vr  X2vr  1 3.950000e-01    1.670000e+00
 TC1vr  X1vr  1 3.950000e-01    1.670000e+00
 TC1vr  C1er  1 3.950000e-01    2.500000e+00
 TC1vr  X4er  1 3.950000e-01    1.850000e+00
 TC1vr  X3er  1 3.950000e-01    2.310000e+00
 TC1vr  X2er  1 3.950000e-01    2.310000e+00
 TC1vr  X1er  1 3.950000e-01    2.310000e+00
 TX4vr   X3r  1 3.950000e-01    2.310000e+00
 TX4vr   X2r  1 3.950000e-01    2.310000e+00
 TX4vr   X1r  1 3.950000e-01    2.310000e+00
 TX4vr  X3vr  1 3.950000e-01    1.850000e+00
 TX4vr  X2vr  1 3.950000e-01    1.850000e+00
 TX4vr  X1vr  1 3.950000e-01    1.850000e+00
 TX4vr  X4er  1 3.950000e-01    2.500000e+00
 TX4vr  X3er  1 3.950000e-01    2.500000e+00
 TX4vr  X2er  1 3.950000e-01    2.500000e+00
 TX4vr  X1er  1 3.950000e-01    2.500000e+00
 TX3vr   X2r  1 3.950000e-01    2.500000e+00
 TX3vr   X1r  1 3.950000e-01    2.500000e+00
 TX3vr  X2vr  1 3.950000e-01    2.110000e+00
 TX3vr  X1vr  1 3.950000e-01    2.110000e+00
 TX3vr  X3er  1 3.950000e-01    2.500000e+00
 TX3vr  X2er  1 3.950000e-01    2.700000e+00
 TX3vr  X1er  1 3.950000e-01    2.700000e+00
 TX2vr   X1r  1 3.950000e-01    2.500000e+00
 TX2vr  X1vr  1 3.950000e-01    2.110000e+00
 TX2vr  X2er  1 3.950000e-01    2.700000e+00
 TX2vr  X1er  1 3.950000e-01    2.700000e+00
 TX1vr  X1er  1 3.950000e-01    2.940000e+00
 TC6er   C5r  1 3.950000e-01    2.310000e+00
 TC6er   C4r  1 3.950000e-01    2.310000e+00
 TC6er   C3r  1 3.950000e-01    2.110000e+00
 TC6er   C2r  1 3.950000e-01    1.850000e+00
 TC6er   C1r  1 3.950000e-01    1.670000e+00
 TC6er   X4r  1 3.950000e-01    2.310000e+00
 TC6er   X3r  1 3.950000e-01    2.310000e+00
 TC6er   X2r  1 3.950000e-01    2.310000e+00
 TC6er   X1r  1 3.950000e-01    2.310000e+00
 TC6er  C5vr  1 3.950000e-01    2.500000e+00
 TC6er  C4vr  1 3.950000e-01    2.500000e+00
 TC6er  C3vr  1 3.950000e-01    2.310000e+00
 TC6er  C2vr  1 3.950000e-01    2.110000e+00
 TC6er  C1vr  1 3.950000e-01    1.850000e+00
 TC6er  X4vr  1 3.950000e-01    2.500000e+00
 TC6er  X3vr  1 3.950000e-01    2.500000e+00
 TC6er  X2vr  1 3.950000e-01    2.500000e+00
 TC6er  X1vr  1 3.950000e-01    2.500000e+00
 TC6er  C5er  1 3.950000e-01    1.850000e+00
 TC6er  C4er  1 3.950000e-01    1.850000e+00
 TC6er  C3er  1 3.950000e-01    1.670000e+00
 TC6er  C2er  1 3.980000e-01    1.450000e+00
 TC6er  C1er  1 3.990000e-01    1.180000e+00
 TC6er  X4er  1 3.950000e-01    1.850000e+00
 TC6er  X3er  1 3.950000e-01    1.850000e+00
 TC6er  X2er  1 3.950000e-01    1.850000e+00
 TC6er  X1er  1 3.950000e-01    1.850000e+00
 TC5er   C4r  1 3.950000e-01    2.310000e+00
 TC5er   C3r  1 3.950000e-01    2.110000e+00
 TC5er   C2r  1 3.950000e-01    1.850000e+00
 TC5er   C1r  1 3.950000e-01    1.850000e+00
 TC5er   X4r  1 3.950000e-01    2.110000e+00
 TC5er   X3r  1 3.950000e-01    2.110000e+00
 TC5er   X2r  1 3.950000e-01    2.110000e+00
 TC5er   X1r  1 3.950000e-01    2.310000e+00
 TC5er  C4vr  1 3.950000e-01    2.500000e+00
 TC5er  C3vr  1 3.950000e-01    2.310000e+00
 TC5er  C2vr  1 3.950000e-01    2.110000e+00
 TC5er  C1vr  1 3.950000e-01    2.110000e+00
 TC5er  X4vr  1 3.950000e-01    2.310000e+00
 TC5er  X3vr  1 3.950000e-01    2.310000e+00
 TC5er  X2vr  1 3.950000e-01    2.310000e+00
 TC5er  X1vr  1 3.950000e-01    2.500000e+00
 TC5er  C4er  1 3.950000e-01    1.850000e+00
 TC5er  C3er  1 3.950000e-01    1.670000e+00
 TC5er  C2er  1 3.980000e-01    1.450000e+00
 TC5er  C1er  1 3.980000e-01    1.450000e+00
 TC5er  X4er  1 3.950000e-01    1.670000e+00
 TC5er  X3er  1 3.950000e-01    1.670000e+00
 TC5er  X2er  1 3.950000e-01    1.670000e+00
 TC5er  X1er  1 3.950000e-01    1.850000e+00
 TC4er   C3r  1 3.950000e-01    2.310000e+00
 TC4er   C2r  1 3.950000e-01    2.110000e+00
 TC4er   C1r  1 3.950000e-01    1.850000e+00
 TC4er   X4r  1 3.950000e-01    2.110000e+00
 TC4er   X3r  1 3.950000e-01    2.110000e+00
 TC4er   X2r  1 3.950000e-01    2.110000e+00
 TC4er   X1r  1 3.950000e-01    2.310000e+00
 TC4er  C3vr  1 3.950000e-01    2.500000e+00
 TC4er  C2vr  1 3.950000e-01    2.310000e+00
 TC4er  C1vr  1 3.950000e-01    2.110000e+00
 TC4er  X4vr  1 3.950000e-01    2.310000e+00
 TC4er  X3vr  1 3.950000e-01    2.310000e+00
 TC4er  X2vr  1 3.950000e-01    2.310000e+00
 TC4er  X1vr  1 3.950000e-01    2.500000e+00
 TC4er  C3er  1 3.950000e-01    1.850000e+00
 TC4er  C2er  1 3.950000e-01    1.670000e+00
 TC4er  C1er  1 3.980000e-01    1.450000e+00
 TC4er  X4er  1 3.950000e-01    1.670000e+00
 TC4er  X3er  1 3.950000e-01    1.670000e+00
 TC4er  X2er  1 3.950000e-01    1.670000e+00
 TC4er  X1er  1 3.950000e-01    1.850000e+00
 TC3er   C2r  1 3.950000e-01    2.310000e+00
 TC3er   C1r  1 3.950000e-01    2.310000e+00
 TC3er   X4r  1 3.950000e-01    2.110000e+00
 TC3er   X3r  1 3.950000e-01    2.110000e+00
 TC3er   X2r  1 3.950000e-01    2.110000e+00
 TC3er   X1r  1 3.950000e-01    2.310000e+00
 TC3er  C2vr  1 3.950000e-01    2.500000e+00
 TC3er  C1vr  1 3.950000e-01    2.500000e+00
 TC3er  X4vr  1 3.950000e-01    2.310000e+00
 TC3er  X3vr  1 3.950000e-01    2.310000e+00
 TC3er  X2vr  1 3.950000e-01    2.310000e+00
 TC3er  X1vr  1 3.950000e-01    2.500000e+00
 TC3er  C2er  1 3.950000e-01    1.850000e+00
 TC3er  C1er  1 3.950000e-01    1.850000e+00
 TC3er  X4er  1 3.950000e-01    1.670000e+00
 TC3er  X3er  1 3.950000e-01    1.670000e+00
 TC3er  X2er  1 3.950000e-01    1.670000e+00
 TC3er  X1er  1 3.950000e-01    1.850000e+00
 TC2er   C1r  1 3.950000e-01    2.500000e+00
 TC2er   X4r  1 3.950000e-01    1.670000e+00
 TC2er   X3r  1 3.950000e-01    2.110000e+00
 TC2er   X2r  1 3.950000e-01    2.110000e+00
 TC2er   X1r  1 3.950000e-01    2.110000e+00
 TC2er  C1vr  1 3.950000e-01    2.700000e+00
 TC2er  X4vr  1 3.950000e-01    1.850000e+00
 TC2er  X3vr  1 3.950000e-01    2.310000e+00
 TC2er  X2vr  1 3.950000e-01    2.310000e+00
 TC2er  X1vr  1 3.950000e-01    2.310000e+00
 TC2er  C1er  1 3.950000e-01    2.110000e+00
 TC2er  X4er  1 3.990000e-01    1.180000e+00
 TC2er  X3er  1 3.950000e-01    1.670000e+00
 TC2er  X2er  1 3.950000e-01    1.670000e+00
 TC2er  X1er  1 3.950000e-01    1.670000e+00
 TC1er   X4r  1 3.950000e-01    1.670000e+00
 TC1er   X3r  1 3.950000e-01    2.110000e+00
 TC1er   X2r  1 3.950000e-01    2.110000e+00
 TC1er   X1r  1 3.950000e-01    2.110000e+00
 TC1er  X4vr  1 3.950000e-01    1.850000e+00
 TC1er  X3vr  1 3.950000e-01    2.310000e+00
 TC1er  X2vr  1 3.950000e-01    2.310000e+00
 TC1er  X1vr  1 3.950000e-01    2.310000e+00
 TC1er  X4er  1 3.990000e-01    1.180000e+00
 TC1er  X3er  1 3.950000e-01    1.670000e+00
 TC1er  X2er  1 3.950000e-01    1.670000e+00
 TC1er  X1er  1 3.950000e-01    1.670000e+00
 TX4er   X3r  1 3.950000e-01    2.310000e+00
 TX4er   X2r  1 3.950000e-01    2.310000e+00
 TX4er   X1r  1 3.950000e-01    2.310000e+00
 TX4er  X3vr  1 3.950000e-01    2.500000e+00
 TX4er  X2vr  1 3.950000e-01    2.500000e+00
 TX4er  X1vr  1 3.950000e-01    2.500000e+00
 TX4er  X3er  1 3.950000e-01    1.850000e+00
 TX4er  X2er  1 3.950000e-01    1.850000e+00
 TX4er  X1er  1 3.950000e-01    1.850000e+00
 TX3er   X2r  1 3.950000e-01    2.500000e+00
 TX3er   X1r  1 3.950000e-01    2.500000e+00
 TX3er  X2vr  1 3.950000e-01    2.700000e+00
 TX3er  X1vr  1 3.950000e-01    2.700000e+00
 TX3er  X2er  1 3.950000e-01    2.110000e+00
 TX3er  X1er  1 3.950000e-01    2.110000e+00
 TX2er   X1r  1 3.950000e-01    2.500000e+00
 TX2er  X1vr  1 3.950000e-01    2.700000e+00
 TX2er  X1er  1 3.950000e-01    2.110000e+00
  TP6r   C6r  1 3.950000e-01    1.670000e+00
  TP6r   C5r  1 3.980000e-01    1.450000e+00
  TP6r   C4r  1 3.990000e-01    1.180000e+00
  TP6r   C3r  1 4.010000e-01    9.830000e-01
  TP6r   C2r  1 4.010000e-01    9.830000e-01
  TP6r   C1r  1 4.650000e-01    7.030000e-01
  TP6r   X4r  1 3.950000e-01    1.850000e+00
  TP6r   X3r  1 3.950000e-01    1.850000e+00
  TP6r   X2r  1 3.950000e-01    1.670000e+00
  TP6r   X1r  1 3.980000e-01    1.450000e+00
  TP6r  C6vr  1 3.950000e-01    1.850000e+00
  TP6r  C5vr  1 3.950000e-01    1.670000e+00
  TP6r  C4vr  1 3.980000e-01    1.450000e+00
  TP6r  C3vr  1 3.990000e-01    1.180000e+00
  TP6r  C2vr  1 3.990000e-01    1.180000e+00
  TP6r  C1vr  1 4.040000e-01    8.300000e-01
  TP6r  X4vr  1 3.950000e-01    2.110000e+00
  TP6r  X3vr  1 3.950000e-01    2.110000e+00
  TP6r  X2vr  1 3.950000e-01    1.850000e+00
  TP6r  X1vr  1 3.950000e-01    1.670000e+00
  TP6r  C6er  1 3.950000e-01    1.850000e+00
  TP6r  C5er  1 3.950000e-01    1.670000e+00
  TP6r  C4er  1 3.980000e-01    1.450000e+00
  TP6r  C3er  1 3.990000e-01    1.180000e+00
  TP6r  C2er  1 3.990000e-01    1.180000e+00
  TP6r  C1er  1 4.040000e-01    8.300000e-01
  TP6r  X4er  1 3.950000e-01    2.110000e+00
  TP6r  X3er  1 3.950000e-01    2.110000e+00
  TP6r  X2er  1 3.950000e-01    1.850000e+00
  TP6r  X1er  1 3.950000e-01    1.670000e+00
  TP5r   C6r  1 3.950000e-01    1.670000e+00
  TP5r   C5r  1 3.950000e-01    1.670000e+00
  TP5r   C4r  1 3.980000e-01    1.450000e+00
  TP5r   C3r  1 3.990000e-01    1.180000e+00
  TP5r   C2r  1 3.990000e-01    1.180000e+00
  TP5r   C1r  1 4.010000e-01    9.830000e-01
  TP5r   X4r  1 3.950000e-01    2.110000e+00
  TP5r   X3r  1 3.950000e-01    1.850000e+00
  TP5r   X2r  1 3.950000e-01    1.850000e+00
  TP5r   X1r  1 3.980000e-01    1.450000e+00
  TP5r  C6vr  1 3.950000e-01    1.850000e+00
  TP5r  C5vr  1 3.950000e-01    1.850000e+00
  TP5r  C4vr  1 3.950000e-01    1.670000e+00
  TP5r  C3vr  1 3.980000e-01    1.450000e+00
  TP5r  C2vr  1 3.980000e-01    1.450000e+00
  TP5r  C1vr  1 3.990000e-01    1.180000e+00
  TP5r  X4vr  1 3.950000e-01    2.310000e+00
  TP5r  X3vr  1 3.950000e-01    2.110000e+00
  TP5r  X2vr  1 3.950000e-01    2.110000e+00
  TP5r  X1vr  1 3.950000e-01    1.670000e+00
  TP5r  C6er  1 3.950000e-01    1.850000e+00
  TP5r  C5er  1 3.950000e-01    1.850000e+00
  TP5r  C4er  1 3.950000e-01    1.670000e+00
  TP5r  C3er  1 3.980000e-01    1.450000e+00
  TP5r  C2er  1 3.980000e-01    1.450000e+00
  TP5r  C1er  1 3.990000e-01    1.180000e+00
  TP5r  X4er  1 3.950000e-01    2.310000e+00
  TP5r  X3er  1 3.950000e-01    2.110000e+00
  TP5r  X2er  1 3.950000e-01    2.110000e+00
  TP5r  X1er  1 3.950000e-01    1.670000e+00
  TP4r   C6r  1 3.950000e-01    1.850000e+00
  TP4r   C5r  1 3.950000e-01    1.670000e+00
  TP4r   C4r  1 3.980000e-01    1.450000e+00
  TP4r   C3r  1 3.990000e-01    1.180000e+00
  TP4r   C2r  1 3.990000e-01    1.180000e+00
  TP4r   C1r  1 4.010000e-01    9.830000e-01
  TP4r   X4r  1 3.950000e-01    2.110000e+00
  TP4r   X3r  1 3.950000e-01    1.850000e+00
  TP4r   X2r  1 3.950000e-01    1.850000e+00
  TP4r   X1r  1 3.950000e-01    1.670000e+00
  TP4r  C6vr  1 3.950000e-01    2.110000e+00
  TP4r  C5vr  1 3.950000e-01    1.850000e+00
  TP4r  C4vr  1 3.950000e-01    1.670000e+00
  TP4r  C3vr  1 3.980000e-01    1.450000e+00
  TP4r  C2vr  1 3.980000e-01    1.450000e+00
  TP4r  C1vr  1 3.990000e-01    1.180000e+00
  TP4r  X4vr  1 3.950000e-01    2.310000e+00
  TP4r  X3vr  1 3.950000e-01    2.110000e+00
  TP4r  X2vr  1 3.950000e-01    2.110000e+00
  TP4r  X1vr  1 3.950000e-01    1.850000e+00
  TP4r  C6er  1 3.950000e-01    2.110000e+00
  TP4r  C5er  1 3.950000e-01    1.850000e+00
  TP4r  C4er  1 3.950000e-01    1.670000e+00
  TP4r  C3er  1 3.980000e-01    1.450000e+00
  TP4r  C2er  1 3.980000e-01    1.450000e+00
  TP4r  C1er  1 3.990000e-01    1.180000e+00
  TP4r  X4er  1 3.950000e-01    2.310000e+00
  TP4r  X3er  1 3.950000e-01    2.110000e+00
  TP4r  X2er  1 3.950000e-01    2.110000e+00
  TP4r  X1er  1 3.950000e-01    1.850000e+00
  TP3r   C6r  1 3.950000e-01    2.110000e+00
  TP3r   C5r  1 3.950000e-01    1.850000e+00
  TP3r   C4r  1 3.950000e-01    1.670000e+00
  TP3r   C3r  1 3.990000e-01    1.180000e+00
  TP3r   C2r  1 3.990000e-01    1.180000e+00
  TP3r   C1r  1 4.010000e-01    9.830000e-01
  TP3r   X4r  1 3.950000e-01    2.110000e+00
  TP3r   X3r  1 3.950000e-01    2.110000e+00
  TP3r   X2r  1 3.950000e-01    1.850000e+00
  TP3r   X1r  1 3.950000e-01    1.670000e+00
  TP3r  C6vr  1 3.950000e-01    2.310000e+00
  TP3r  C5vr  1 3.950000e-01    2.110000e+00
  TP3r  C4vr  1 3.950000e-01    1.850000e+00
  TP3r  C3vr  1 3.980000e-01    1.450000e+00
  TP3r  C2vr  1 3.980000e-01    1.450000e+00
  TP3r  C1vr  1 3.990000e-01    1.180000e+00
  TP3r  X4vr  1 3.950000e-01    2.310000e+00
  TP3r  X3vr  1 3.950000e-01    2.310000e+00
  TP3r  X2vr  1 3.950000e-01    2.110000e+00
  TP3r  X1vr  1 3.950000e-01    1.850000e+00
  TP3r  C6er  1 3.950000e-01    2.310000e+00
  TP3r  C5er  1 3.950000e-01    2.110000e+00
  TP3r  C4er  1 3.950000e-01    1.850000e+00
  TP3r  C3er  1 3.980000e-01    1.450000e+00
  TP3r  C2er  1 3.980000e-01    1.450000e+00
  TP3r  C1er  1 3.990000e-01    1.180000e+00
  TP3r  X4er  1 3.950000e-01    2.310000e+00
  TP3r  X3er  1 3.950000e-01    2.310000e+00
  TP3r  X2er  1 3.950000e-01    2.110000e+00
  TP3r  X1er  1 3.950000e-01    1.850000e+00
  TP2r   C6r  1 3.950000e-01    2.110000e+00
  TP2r   C5r  1 3.950000e-01    1.850000e+00
  TP2r   C4r  1 3.950000e-01    1.670000e+00
  TP2r   C3r  1 3.980000e-01    1.450000e+00
  TP2r   C2r  1 3.980000e-01    1.450000e+00
  TP2r   C1r  1 3.990000e-01    1.180000e+00
  TP2r   X4r  1 3.950000e-01    2.110000e+00
  TP2r   X3r  1 3.950000e-01    2.110000e+00
  TP2r   X2r  1 3.950000e-01    1.850000e+00
  TP2r   X1r  1 3.950000e-01    1.670000e+00
  TP2r  C6vr  1 3.950000e-01    2.310000e+00
  TP2r  C5vr  1 3.950000e-01    2.110000e+00
  TP2r  C4vr  1 3.950000e-01    1.850000e+00
  TP2r  C3vr  1 3.950000e-01    1.670000e+00
  TP2r  C2vr  1 3.950000e-01    1.670000e+00
  TP2r  C1vr  1 3.980000e-01    1.450000e+00
  TP2r  X4vr  1 3.950000e-01    2.310000e+00
  TP2r  X3vr  1 3.950000e-01    2.310000e+00
  TP2r  X2vr  1 3.950000e-01    2.110000e+00
  TP2r  X1vr  1 3.950000e-01    1.850000e+00
  TP2r  C6er  1 3.950000e-01    2.310000e+00
  TP2r  C5er  1 3.950000e-01    2.110000e+00
  TP2r  C4er  1 3.950000e-01    1.850000e+00
  TP2r  C3er  1 3.950000e-01    1.670000e+00
  TP2r  C2er  1 3.950000e-01    1.670000e+00
  TP2r  C1er  1 3.980000e-01    1.450000e+00
  TP2r  X4er  1 3.950000e-01    2.310000e+00
  TP2r  X3er  1 3.950000e-01    2.310000e+00
  TP2r  X2er  1 3.950000e-01    2.110000e+00
  TP2r  X1er  1 3.950000e-01    1.850000e+00
  TP1r   C6r  1 3.950000e-01    2.110000e+00
  TP1r   C5r  1 3.950000e-01    1.850000e+00
  TP1r   C4r  1 3.950000e-01    1.670000e+00
  TP1r   C3r  1 3.980000e-01    1.450000e+00
  TP1r   C2r  1 3.980000e-01    1.450000e+00
  TP1r   C1r  1 3.990000e-01    1.180000e+00
  TP1r   X4r  1 3.950000e-01    2.110000e+00
  TP1r   X3r  1 3.950000e-01    2.110000e+00
  TP1r   X2r  1 3.950000e-01    1.850000e+00
  TP1r   X1r  1 3.950000e-01    1.670000e+00
  TP1r  C6vr  1 3.950000e-01    2.310000e+00
  TP1r  C5vr  1 3.950000e-01    2.110000e+00
  TP1r  C4vr  1 3.950000e-01    1.850000e+00
  TP1r  C3vr  1 3.950000e-01    1.670000e+00
  TP1r  C2vr  1 3.950000e-01    1.670000e+00
  TP1r  C1vr  1 3.980000e-01    1.450000e+00
  TP1r  X4vr  1 3.950000e-01    2.310000e+00
  TP1r  X3vr  1 3.950000e-01    2.310000e+00
  TP1r  X2vr  1 3.950000e-01    2.110000e+00
  TP1r  X1vr  1 3.950000e-01    1.850000e+00
  TP1r  C6er  1 3.950000e-01    2.310000e+00
  TP1r  C5er  1 3.950000e-01    2.110000e+00
  TP1r  C4er  1 3.950000e-01    1.850000e+00
  TP1r  C3er  1 3.950000e-01    1.670000e+00
  TP1r  C2er  1 3.950000e-01    1.670000e+00
  TP1r  C1er  1 3.980000e-01    1.450000e+00
  TP1r  X4er  1 3.950000e-01    2.310000e+00
  TP1r  X3er  1 3.950000e-01    2.310000e+00
  TP1r  X2er  1 3.950000e-01    2.110000e+00
  TP1r  X1er  1 3.950000e-01    1.850000e+00
  TN6r   C6r  1 3.950000e-01    2.310000e+00
  TN6r   C5r  1 3.950000e-01    2.110000e+00
  TN6r   C4r  1 3.950000e-01    1.850000e+00
  TN6r   C3r  1 3.950000e-01    1.670000e+00
  TN6r   C2r  1 3.950000e-01    1.670000e+00
  TN6r   C1r  1 3.980000e-01    1.450000e+00
  TN6r   X4r  1 3.950000e-01    2.310000e+00
  TN6r   X3r  1 3.950000e-01    2.110000e+00
  TN6r   X2r  1 3.950000e-01    1.850000e+00
  TN6r   X1r  1 3.950000e-01    1.670000e+00
  TN6r  C6vr  1 3.950000e-01    2.500000e+00
  TN6r  C5vr  1 3.950000e-01    2.310000e+00
  TN6r  C4vr  1 3.950000e-01    2.110000e+00
  TN6r  C3vr  1 3.950000e-01    1.850000e+00
  TN6r  C2vr  1 3.950000e-01    1.850000e+00
  TN6r  C1vr  1 3.950000e-01    1.670000e+00
  TN6r  X4vr  1 3.950000e-01    2.500000e+00
  TN6r  X3vr  1 3.950000e-01    2.310000e+00
  TN6r  X2vr  1 3.950000e-01    2.110000e+00
  TN6r  X1vr  1 3.950000e-01    1.850000e+00
  TN6r  C6er  1 3.950000e-01    2.500000e+00
  TN6r  C5er  1 3.950000e-01    2.310000e+00
  TN6r  C4er  1 3.950000e-01    2.110000e+00
  TN6r  C3er  1 3.950000e-01    1.850000e+00
  TN6r  C2er  1 3.950000e-01    1.850000e+00
  TN6r  C1er  1 3.950000e-01    1.670000e+00
  TN6r  X4er  1 3.950000e-01    2.500000e+00
  TN6r  X3er  1 3.950000e-01    2.310000e+00
  TN6r  X2er  1 3.950000e-01    2.110000e+00
  TN6r  X1er  1 3.950000e-01    1.850000e+00
  TN5r   C6r  1 3.950000e-01    2.310000e+00
  TN5r   C5r  1 3.950000e-01    2.110000e+00
  TN5r   C4r  1 3.950000e-01    1.850000e+00
  TN5r   C3r  1 3.950000e-01    1.850000e+00
  TN5r   C2r  1 3.950000e-01    1.670000e+00
  TN5r   C1r  1 3.980000e-01    1.450000e+00
  TN5r   X4r  1 3.950000e-01    2.500000e+00
  TN5r   X3r  1 3.950000e-01    2.310000e+00
  TN5r   X2r  1 3.950000e-01    2.110000e+00
  TN5r   X1r  1 3.950000e-01    1.850000e+00
  TN5r  C6vr  1 3.950000e-01    2.500000e+00
  TN5r  C5vr  1 3.950000e-01    2.310000e+00
  TN5r  C4vr  1 3.950000e-01    2.110000e+00
  TN5r  C3vr  1 3.950000e-01    2.110000e+00
  TN5r  C2vr  1 3.950000e-01    1.850000e+00
  TN5r  C1vr  1 3.950000e-01    1.670000e+00
  TN5r  X4vr  1 3.950000e-01    2.700000e+00
  TN5r  X3vr  1 3.950000e-01    2.500000e+00
  TN5r  X2vr  1 3.950000e-01    2.310000e+00
  TN5r  X1vr  1 3.950000e-01    2.110000e+00
  TN5r  C6er  1 3.950000e-01    2.500000e+00
  TN5r  C5er  1 3.950000e-01    2.310000e+00
  TN5r  C4er  1 3.950000e-01    2.110000e+00
  TN5r  C3er  1 3.950000e-01    2.110000e+00
  TN5r  C2er  1 3.950000e-01    1.850000e+00
  TN5r  C1er  1 3.950000e-01    1.670000e+00
  TN5r  X4er  1 3.950000e-01    2.700000e+00
  TN5r  X3er  1 3.950000e-01    2.500000e+00
  TN5r  X2er  1 3.950000e-01    2.310000e+00
  TN5r  X1er  1 3.950000e-01    2.110000e+00
  TN4r   C6r  1 3.950000e-01    2.310000e+00
  TN4r   C5r  1 3.950000e-01    2.110000e+00
  TN4r   C4r  1 3.950000e-01    2.110000e+00
  TN4r   C3r  1 3.950000e-01    1.850000e+00
  TN4r   C2r  1 3.950000e-01    1.670000e+00
  TN4r   C1r  1 3.980000e-01    1.450000e+00
  TN4r   X4r  1 3.950000e-01    2.700000e+00
  TN4r   X3r  1 3.950000e-01    2.500000e+00
  TN4r   X2r  1 3.950000e-01    2.110000e+00
  TN4r   X1r  1 3.950000e-01    1.850000e+00
  TN4r  C6vr  1 3.950000e-01    2.500000e+00
  TN4r  C5vr  1 3.950000e-01    2.310000e+00
  TN4r  C4vr  1 3.950000e-01    2.310000e+00
  TN4r  C3vr  1 3.950000e-01    2.110000e+00
  TN4r  C2vr  1 3.950000e-01    1.850000e+00
  TN4r  C1vr  1 3.950000e-01    1.670000e+00
  TN4r  X4vr  1 3.950000e-01    2.940000e+00
  TN4r  X3vr  1 3.950000e-01    2.700000e+00
  TN4r  X2vr  1 3.950000e-01    2.310000e+00
  TN4r  X1vr  1 3.950000e-01    2.110000e+00
  TN4r  C6er  1 3.950000e-01    2.500000e+00
  TN4r  C5er  1 3.950000e-01    2.310000e+00
  TN4r  C4er  1 3.950000e-01    2.310000e+00
  TN4r  C3er  1 3.950000e-01    2.110000e+00
  TN4r  C2er  1 3.950000e-01    1.850000e+00
  TN4r  C1er  1 3.950000e-01    1.670000e+00
  TN4r  X4er  1 3.950000e-01    2.940000e+00
  TN4r  X3er  1 3.950000e-01    2.700000e+00
  TN4r  X2er  1 3.950000e-01    2.310000e+00
  TN4r  X1er  1 3.950000e-01    2.110000e+00
  TN3r   C6r  1 3.950000e-01    2.310000e+00
  TN3r   C5r  1 3.950000e-01    2.110000e+00
  TN3r   C4r  1 3.950000e-01    2.110000e+00
  TN3r   C3r  1 3.950000e-01    1.850000e+00
  TN3r   C2r  1 3.950000e-01    1.850000e+00
  TN3r   C1r  1 3.950000e-01    1.670000e+00
  TN3r   X4r  1 3.950000e-01    2.500000e+00
  TN3r   X3r  1 3.950000e-01    2.310000e+00
  TN3r   X2r  1 3.950000e-01    2.110000e+00
  TN3r   X1r  1 3.950000e-01    2.110000e+00
  TN3r  C6vr  1 3.950000e-01    2.500000e+00
  TN3r  C5vr  1 3.950000e-01    2.310000e+00
  TN3r  C4vr  1 3.950000e-01    2.310000e+00
  TN3r  C3vr  1 3.950000e-01    2.110000e+00
  TN3r  C2vr  1 3.950000e-01    2.110000e+00
  TN3r  C1vr  1 3.950000e-01    1.850000e+00
  TN3r  X4vr  1 3.950000e-01    2.700000e+00
  TN3r  X3vr  1 3.950000e-01    2.500000e+00
  TN3r  X2vr  1 3.950000e-01    2.310000e+00
  TN3r  X1vr  1 3.950000e-01    2.310000e+00
  TN3r  C6er  1 3.950000e-01    2.500000e+00
  TN3r  C5er  1 3.950000e-01    2.310000e+00
  TN3r  C4er  1 3.950000e-01    2.310000e+00
  TN3r  C3er  1 3.950000e-01    2.110000e+00
  TN3r  C2er  1 3.950000e-01    2.110000e+00
  TN3r  C1er  1 3.950000e-01    1.850000e+00
  TN3r  X4er  1 3.950000e-01    2.700000e+00
  TN3r  X3er  1 3.950000e-01    2.500000e+00
  TN3r  X2er  1 3.950000e-01    2.310000e+00
  TN3r  X1er  1 3.950000e-01    2.310000e+00
  TN2r   C6r  1 3.950000e-01    2.310000e+00
  TN2r   C5r  1 3.950000e-01    2.110000e+00
  TN2r   C4r  1 3.950000e-01    2.110000e+00
  TN2r   C3r  1 3.950000e-01    2.110000e+00
  TN2r   C2r  1 3.950000e-01    1.850000e+00
  TN2r   C1r  1 3.950000e-01    1.670000e+00
  TN2r   X4r  1 3.950000e-01    2.500000e+00
  TN2r   X3r  1 3.950000e-01    2.310000e+00
  TN2r   X2r  1 3.950000e-01    2.110000e+00
  TN2r   X1r  1 3.950000e-01    2.110000e+00
  TN2r  C6vr  1 3.950000e-01    2.500000e+00
  TN2r  C5vr  1 3.950000e-01    2.310000e+00
  TN2r  C4vr  1 3.950000e-01    2.310000e+00
  TN2r  C3vr  1 3.950000e-01    2.310000e+00
  TN2r  C2vr  1 3.950000e-01    2.110000e+00
  TN2r  C1vr  1 3.950000e-01    1.850000e+00
  TN2r  X4vr  1 3.950000e-01    2.700000e+00
  TN2r  X3vr  1 3.950000e-01    2.500000e+00
  TN2r  X2vr  1 3.950000e-01    2.310000e+00
  TN2r  X1vr  1 3.950000e-01    2.310000e+00
  TN2r  C6er  1 3.950000e-01    2.500000e+00
  TN2r  C5er  1 3.950000e-01    2.310000e+00
  TN2r  C4er  1 3.950000e-01    2.310000e+00
  TN2r  C3er  1 3.950000e-01    2.310000e+00
  TN2r  C2er  1 3.950000e-01    2.110000e+00
  TN2r  C1er  1 3.950000e-01    1.850000e+00
  TN2r  X4er  1 3.950000e-01    2.700000e+00
  TN2r  X3er  1 3.950000e-01    2.500000e+00
  TN2r  X2er  1 3.950000e-01    2.310000e+00
  TN2r  X1er  1 3.950000e-01    2.310000e+00
  TN1r   C6r  1 3.950000e-01    2.500000e+00
  TN1r   C5r  1 3.950000e-01    2.310000e+00
  TN1r   C4r  1 3.950000e-01    2.310000e+00
  TN1r   C3r  1 3.950000e-01    2.110000e+00
  TN1r   C2r  1 3.950000e-01    1.850000e+00
  TN1r   C1r  1 3.950000e-01    1.670000e+00
  TN1r   X4r  1 3.950000e-01    2.310000e+00
  TN1r   X3r  1 3.950000e-01    2.310000e+00
  TN1r   X2r  1 3.950000e-01    2.110000e+00
  TN1r   X1r  1 3.950000e-01    2.110000e+00
  TN1r  C6vr  1 3.950000e-01    2.700000e+00
  TN1r  C5vr  1 3.950000e-01    2.500000e+00
  TN1r  C4vr  1 3.950000e-01    2.500000e+00
  TN1r  C3vr  1 3.950000e-01    2.310000e+00
  TN1r  C2vr  1 3.950000e-01    2.110000e+00
  TN1r  C1vr  1 3.950000e-01    1.850000e+00
  TN1r  X4vr  1 3.950000e-01    2.500000e+00
  TN1r  X3vr  1 3.950000e-01    2.500000e+00
  TN1r  X2vr  1 3.950000e-01    2.310000e+00
  TN1r  X1vr  1 3.950000e-01    2.310000e+00
  TN1r  C6er  1 3.950000e-01    2.700000e+00
  TN1r  C5er  1 3.950000e-01    2.500000e+00
  TN1r  C4er  1 3.950000e-01    2.500000e+00
  TN1r  C3er  1 3.950000e-01    2.310000e+00
  TN1r  C2er  1 3.950000e-01    2.110000e+00
  TN1r  C1er  1 3.950000e-01    1.850000e+00
  TN1r  X4er  1 3.950000e-01    2.500000e+00
  TN1r  X3er  1 3.950000e-01    2.500000e+00
  TN1r  X2er  1 3.950000e-01    2.310000e+00
  TN1r  X1er  1 3.950000e-01    2.310000e+00
 TP6dr   C6r  1 3.950000e-01    1.670000e+00
 TP6dr   C5r  1 3.980000e-01    1.450000e+00
 TP6dr   C4r  1 3.990000e-01    1.180000e+00
 TP6dr   C3r  1 4.010000e-01    9.830000e-01
 TP6dr   C2r  1 4.010000e-01    9.830000e-01
 TP6dr   C1r  1 4.650000e-01    7.030000e-01
 TP6dr   X4r  1 3.950000e-01    1.850000e+00
 TP6dr   X3r  1 3.950000e-01    1.850000e+00
 TP6dr   X2r  1 3.950000e-01    1.670000e+00
 TP6dr   X1r  1 3.980000e-01    1.450000e+00
 TP6dr  C6vr  1 3.980000e-01    1.450000e+00
 TP6dr  C5vr  1 3.990000e-01    1.180000e+00
 TP6dr  C4vr  1 4.010000e-01    9.830000e-01
 TP6dr  C3vr  1 4.040000e-01    8.300000e-01
 TP6dr  C2vr  1 4.040000e-01    8.300000e-01
 TP6dr  C1vr  1 5.110000e-01    6.590000e-01
 TP6dr  X4vr  1 3.950000e-01    1.670000e+00
 TP6dr  X3vr  1 3.950000e-01    1.670000e+00
 TP6dr  X2vr  1 3.980000e-01    1.450000e+00
 TP6dr  X1vr  1 3.990000e-01    1.180000e+00
 TP6dr  C6er  1 3.950000e-01    1.850000e+00
 TP6dr  C5er  1 3.950000e-01    1.670000e+00
 TP6dr  C4er  1 3.980000e-01    1.450000e+00
 TP6dr  C3er  1 3.990000e-01    1.180000e+00
 TP6dr  C2er  1 3.990000e-01    1.180000e+00
 TP6dr  C1er  1 4.040000e-01    8.300000e-01
 TP6dr  X4er  1 3.950000e-01    2.110000e+00
 TP6dr  X3er  1 3.950000e-01    2.110000e+00
 TP6dr  X2er  1 3.950000e-01    1.850000e+00
 TP6dr  X1er  1 3.950000e-01    1.670000e+00
 TP5dr   C6r  1 3.950000e-01    1.670000e+00
 TP5dr   C5r  1 3.950000e-01    1.670000e+00
 TP5dr   C4r  1 3.980000e-01    1.450000e+00
 TP5dr   C3r  1 3.990000e-01    1.180000e+00
 TP5dr   C2r  1 3.990000e-01    1.180000e+00
 TP5dr   C1r  1 4.010000e-01    9.830000e-01
 TP5dr   X4r  1 3.950000e-01    2.110000e+00
 TP5dr   X3r  1 3.950000e-01    1.850000e+00
 TP5dr   X2r  1 3.950000e-01    1.850000e+00
 TP5dr   X1r  1 3.980000e-01    1.450000e+00
 TP5dr  C6vr  1 3.980000e-01    1.450000e+00
 TP5dr  C5vr  1 3.980000e-01    1.450000e+00
 TP5dr  C4vr  1 3.990000e-01    1.180000e+00
 TP5dr  C3vr  1 4.010000e-01    9.830000e-01
 TP5dr  C2vr  1 4.010000e-01    9.830000e-01
 TP5dr  C1vr  1 4.040000e-01    8.300000e-01
 TP5dr  X4vr  1 3.950000e-01    1.850000e+00
 TP5dr  X3vr  1 3.950000e-01    1.670000e+00
 TP5dr  X2vr  1 3.950000e-01    1.670000e+00
 TP5dr  X1vr  1 3.990000e-01    1.180000e+00
 TP5dr  C6er  1 3.950000e-01    1.850000e+00
 TP5dr  C5er  1 3.950000e-01    1.850000e+00
 TP5dr  C4er  1 3.950000e-01    1.670000e+00
 TP5dr  C3er  1 3.980000e-01    1.450000e+00
 TP5dr  C2er  1 3.980000e-01    1.450000e+00
 TP5dr  C1er  1 3.990000e-01    1.180000e+00
 TP5dr  X4er  1 3.950000e-01    2.310000e+00
 TP5dr  X3er  1 3.950000e-01    2.110000e+00
 TP5dr  X2er  1 3.950000e-01    2.110000e+00
 TP5dr  X1er  1 3.950000e-01    1.670000e+00
 TP4dr   C6r  1 3.950000e-01    1.850000e+00
 TP4dr   C5r  1 3.950000e-01    1.670000e+00
 TP4dr   C4r  1 3.980000e-01    1.450000e+00
 TP4dr   C3r  1 3.990000e-01    1.180000e+00
 TP4dr   C2r  1 3.990000e-01    1.180000e+00
 TP4dr   C1r  1 4.010000e-01    9.830000e-01
 TP4dr   X4r  1 3.950000e-01    2.110000e+00
 TP4dr   X3r  1 3.950000e-01    1.850000e+00
 TP4dr   X2r  1 3.950000e-01    1.850000e+00
 TP4dr   X1r  1 3.950000e-01    1.670000e+00
 TP4dr  C6vr  1 3.950000e-01    1.670000e+00
 TP4dr  C5vr  1 3.980000e-01    1.450000e+00
 TP4dr  C4vr  1 3.990000e-01    1.180000e+00
 TP4dr  C3vr  1 4.010000e-01    9.830000e-01
 TP4dr  C2vr  1 4.010000e-01    9.830000e-01
 TP4dr  C1vr  1 4.040000e-01    8.300000e-01
 TP4dr  X4vr  1 3.950000e-01    1.850000e+00
 TP4dr  X3vr  1 3.950000e-01    1.670000e+00
 TP4dr  X2vr  1 3.950000e-01    1.670000e+00
 TP4dr  X1vr  1 3.980000e-01    1.450000e+00
 TP4dr  C6er  1 3.950000e-01    2.110000e+00
 TP4dr  C5er  1 3.950000e-01    1.850000e+00
 TP4dr  C4er  1 3.950000e-01    1.670000e+00
 TP4dr  C3er  1 3.980000e-01    1.450000e+00
 TP4dr  C2er  1 3.980000e-01    1.450000e+00
 TP4dr  C1er  1 3.990000e-01    1.180000e+00
 TP4dr  X4er  1 3.950000e-01    2.310000e+00
 TP4dr  X3er  1 3.950000e-01    2.110000e+00
 TP4dr  X2er  1 3.950000e-01    2.110000e+00
 TP4dr  X1er  1 3.950000e-01    1.850000e+00
 TP3dr   C6r  1 3.950000e-01    2.110000e+00
 TP3dr   C5r  1 3.950000e-01    1.850000e+00
 TP3dr   C4r  1 3.950000e-01    1.670000e+00
 TP3dr   C3r  1 3.990000e-01    1.180000e+00
 TP3dr   C2r  1 3.990000e-01    1.180000e+00
 TP3dr   C1r  1 4.010000e-01    9.830000e-01
 TP3dr   X4r  1 3.950000e-01    2.110000e+00
 TP3dr   X3r  1 3.950000e-01    2.110000e+00
 TP3dr   X2r  1 3.950000e-01    1.850000e+00
 TP3dr   X1r  1 3.950000e-01    1.670000e+00
 TP3dr  C6vr  1 3.950000e-01    1.850000e+00
 TP3dr  C5vr  1 3.950000e-01    1.670000e+00
 TP3dr  C4vr  1 3.980000e-01    1.450000e+00
 TP3dr  C3vr  1 4.010000e-01    9.830000e-01
 TP3dr  C2vr  1 4.010000e-01    9.830000e-01
 TP3dr  C1vr  1 4.040000e-01    8.300000e-01
 TP3dr  X4vr  1 3.950000e-01    1.850000e+00
 TP3dr  X3vr  1 3.950000e-01    1.850000e+00
 TP3dr  X2vr  1 3.950000e-01    1.670000e+00
 TP3dr  X1vr  1 3.980000e-01    1.450000e+00
 TP3dr  C6er  1 3.950000e-01    2.310000e+00
 TP3dr  C5er  1 3.950000e-01    2.110000e+00
 TP3dr  C4er  1 3.950000e-01    1.850000e+00
 TP3dr  C3er  1 3.980000e-01    1.450000e+00
 TP3dr  C2er  1 3.980000e-01    1.450000e+00
 TP3dr  C1er  1 3.990000e-01    1.180000e+00
 TP3dr  X4er  1 3.950000e-01    2.310000e+00
 TP3dr  X3er  1 3.950000e-01    2.310000e+00
 TP3dr  X2er  1 3.950000e-01    2.110000e+00
 TP3dr  X1er  1 3.950000e-01    1.850000e+00
 TP2dr   C6r  1 3.950000e-01    2.110000e+00
 TP2dr   C5r  1 3.950000e-01    1.850000e+00
 TP2dr   C4r  1 3.950000e-01    1.670000e+00
 TP2dr   C3r  1 3.980000e-01    1.450000e+00
 TP2dr   C2r  1 3.980000e-01    1.450000e+00
 TP2dr   C1r  1 3.990000e-01    1.180000e+00
 TP2dr   X4r  1 3.950000e-01    2.110000e+00
 TP2dr   X3r  1 3.950000e-01    2.110000e+00
 TP2dr   X2r  1 3.950000e-01    1.850000e+00
 TP2dr   X1r  1 3.950000e-01    1.670000e+00
 TP2dr  C6vr  1 3.950000e-01    1.850000e+00
 TP2dr  C5vr  1 3.950000e-01    1.670000e+00
 TP2dr  C4vr  1 3.980000e-01    1.450000e+00
 TP2dr  C3vr  1 3.990000e-01    1.180000e+00
 TP2dr  C2vr  1 3.990000e-01    1.180000e+00
 TP2dr  C1vr  1 4.010000e-01    9.830000e-01
 TP2dr  X4vr  1 3.950000e-01    1.850000e+00
 TP2dr  X3vr  1 3.950000e-01    1.850000e+00
 TP2dr  X2vr  1 3.950000e-01    1.670000e+00
 TP2dr  X1vr  1 3.980000e-01    1.450000e+00
 TP2dr  C6er  1 3.950000e-01    2.310000e+00
 TP2dr  C5er  1 3.950000e-01    2.110000e+00
 TP2dr  C4er  1 3.950000e-01    1.850000e+00
 TP2dr  C3er  1 3.950000e-01    1.670000e+00
 TP2dr  C2er  1 3.950000e-01    1.670000e+00
 TP2dr  C1er  1 3.980000e-01    1.450000e+00
 TP2dr  X4er  1 3.950000e-01    2.310000e+00
 TP2dr  X3er  1 3.950000e-01    2.310000e+00
 TP2dr  X2er  1 3.950000e-01    2.110000e+00
 TP2dr  X1er  1 3.950000e-01    1.850000e+00
 TP1dr   C6r  1 3.950000e-01    2.110000e+00
 TP1dr   C5r  1 3.950000e-01    1.850000e+00
 TP1dr   C4r  1 3.950000e-01    1.670000e+00
 TP1dr   C3r  1 3.980000e-01    1.450000e+00
 TP1dr   C2r  1 3.980000e-01    1.450000e+00
 TP1dr   C1r  1 3.990000e-01    1.180000e+00
 TP1dr   X4r  1 3.950000e-01    2.110000e+00
 TP1dr   X3r  1 3.950000e-01    2.110000e+00
 TP1dr   X2r  1 3.950000e-01    1.850000e+00
 TP1dr   X1r  1 3.950000e-01    1.670000e+00
 TP1dr  C6vr  1 3.950000e-01    1.850000e+00
 TP1dr  C5vr  1 3.950000e-01    1.670000e+00
 TP1dr  C4vr  1 3.980000e-01    1.450000e+00
 TP1dr  C3vr  1 3.990000e-01    1.180000e+00
 TP1dr  C2vr  1 3.990000e-01    1.180000e+00
 TP1dr  C1vr  1 4.010000e-01    9.830000e-01
 TP1dr  X4vr  1 3.950000e-01    1.850000e+00
 TP1dr  X3vr  1 3.950000e-01    1.850000e+00
 TP1dr  X2vr  1 3.950000e-01    1.670000e+00
 TP1dr  X1vr  1 3.980000e-01    1.450000e+00
 TP1dr  C6er  1 3.950000e-01    2.310000e+00
 TP1dr  C5er  1 3.950000e-01    2.110000e+00
 TP1dr  C4er  1 3.950000e-01    1.850000e+00
 TP1dr  C3er  1 3.950000e-01    1.670000e+00
 TP1dr  C2er  1 3.950000e-01    1.670000e+00
 TP1dr  C1er  1 3.980000e-01    1.450000e+00
 TP1dr  X4er  1 3.950000e-01    2.310000e+00
 TP1dr  X3er  1 3.950000e-01    2.310000e+00
 TP1dr  X2er  1 3.950000e-01    2.110000e+00
 TP1dr  X1er  1 3.950000e-01    1.850000e+00
 TN6dr   C6r  1 3.950000e-01    2.310000e+00
 TN6dr   C5r  1 3.950000e-01    2.110000e+00
 TN6dr   C4r  1 3.950000e-01    1.850000e+00
 TN6dr   C3r  1 3.950000e-01    1.670000e+00
 TN6dr   C2r  1 3.950000e-01    1.670000e+00
 TN6dr   C1r  1 3.980000e-01    1.450000e+00
 TN6dr   X4r  1 3.950000e-01    2.310000e+00
 TN6dr   X3r  1 3.950000e-01    2.110000e+00
 TN6dr   X2r  1 3.950000e-01    1.850000e+00
 TN6dr   X1r  1 3.950000e-01    1.670000e+00
 TN6dr  C6vr  1 3.950000e-01    2.110000e+00
 TN6dr  C5vr  1 3.950000e-01    1.850000e+00
 TN6dr  C4vr  1 3.950000e-01    1.670000e+00
 TN6dr  C3vr  1 3.980000e-01    1.450000e+00
 TN6dr  C2vr  1 3.980000e-01    1.450000e+00
 TN6dr  C1vr  1 3.990000e-01    1.180000e+00
 TN6dr  X4vr  1 3.950000e-01    2.110000e+00
 TN6dr  X3vr  1 3.950000e-01    1.850000e+00
 TN6dr  X2vr  1 3.950000e-01    1.670000e+00
 TN6dr  X1vr  1 3.980000e-01    1.450000e+00
 TN6dr  C6er  1 3.950000e-01    2.500000e+00
 TN6dr  C5er  1 3.950000e-01    2.310000e+00
 TN6dr  C4er  1 3.950000e-01    2.110000e+00
 TN6dr  C3er  1 3.950000e-01    1.850000e+00
 TN6dr  C2er  1 3.950000e-01    1.850000e+00
 TN6dr  C1er  1 3.950000e-01    1.670000e+00
 TN6dr  X4er  1 3.950000e-01    2.500000e+00
 TN6dr  X3er  1 3.950000e-01    2.310000e+00
 TN6dr  X2er  1 3.950000e-01    2.110000e+00
 TN6dr  X1er  1 3.950000e-01    1.850000e+00
 TN5dr   C6r  1 3.950000e-01    2.310000e+00
 TN5dr   C5r  1 3.950000e-01    2.110000e+00
 TN5dr   C4r  1 3.950000e-01    1.850000e+00
 TN5dr   C3r  1 3.950000e-01    1.850000e+00
 TN5dr   C2r  1 3.950000e-01    1.670000e+00
 TN5dr   C1r  1 3.980000e-01    1.450000e+00
 TN5dr   X4r  1 3.950000e-01    2.500000e+00
 TN5dr   X3r  1 3.950000e-01    2.310000e+00
 TN5dr   X2r  1 3.950000e-01    2.110000e+00
 TN5dr   X1r  1 3.950000e-01    1.850000e+00
 TN5dr  C6vr  1 3.950000e-01    2.110000e+00
 TN5dr  C5vr  1 3.950000e-01    1.850000e+00
 TN5dr  C4vr  1 3.950000e-01    1.670000e+00
 TN5dr  C3vr  1 3.950000e-01    1.670000e+00
 TN5dr  C2vr  1 3.980000e-01    1.450000e+00
 TN5dr  C1vr  1 3.990000e-01    1.180000e+00
 TN5dr  X4vr  1 3.950000e-01    2.310000e+00
 TN5dr  X3vr  1 3.950000e-01    2.110000e+00
 TN5dr  X2vr  1 3.950000e-01    1.850000e+00
 TN5dr  X1vr  1 3.950000e-01    1.670000e+00
 TN5dr  C6er  1 3.950000e-01    2.500000e+00
 TN5dr  C5er  1 3.950000e-01    2.310000e+00
 TN5dr  C4er  1 3.950000e-01    2.110000e+00
 TN5dr  C3er  1 3.950000e-01    2.110000e+00
 TN5dr  C2er  1 3.950000e-01    1.850000e+00
 TN5dr  C1er  1 3.950000e-01    1.670000e+00
 TN5dr  X4er  1 3.950000e-01    2.700000e+00
 TN5dr  X3er  1 3.950000e-01    2.500000e+00
 TN5dr  X2er  1 3.950000e-01    2.310000e+00
 TN5dr  X1er  1 3.950000e-01    2.110000e+00
 TN4dr   C6r  1 3.950000e-01    2.310000e+00
 TN4dr   C5r  1 3.950000e-01    2.110000e+00
 TN4dr   C4r  1 3.950000e-01    2.110000e+00
 TN4dr   C3r  1 3.950000e-01    1.850000e+00
 TN4dr   C2r  1 3.950000e-01    1.670000e+00
 TN4dr   C1r  1 3.980000e-01    1.450000e+00
 TN4dr   X4r  1 3.950000e-01    2.700000e+00
 TN4dr   X3r  1 3.950000e-01    2.500000e+00
 TN4dr   X2r  1 3.950000e-01    2.110000e+00
 TN4dr   X1r  1 3.950000e-01    1.850000e+00
 TN4dr  C6vr  1 3.950000e-01    2.110000e+00
 TN4dr  C5vr  1 3.950000e-01    1.850000e+00
 TN4dr  C4vr  1 3.950000e-01    1.850000e+00
 TN4dr  C3vr  1 3.950000e-01    1.670000e+00
 TN4dr  C2vr  1 3.980000e-01    1.450000e+00
 TN4dr  C1vr  1 3.990000e-01    1.180000e+00
 TN4dr  X4vr  1 3.950000e-01    2.500000e+00
 TN4dr  X3vr  1 3.950000e-01    2.310000e+00
 TN4dr  X2vr  1 3.950000e-01    1.850000e+00
 TN4dr  X1vr  1 3.950000e-01    1.670000e+00
 TN4dr  C6er  1 3.950000e-01    2.500000e+00
 TN4dr  C5er  1 3.950000e-01    2.310000e+00
 TN4dr  C4er  1 3.950000e-01    2.310000e+00
 TN4dr  C3er  1 3.950000e-01    2.110000e+00
 TN4dr  C2er  1 3.950000e-01    1.850000e+00
 TN4dr  C1er  1 3.950000e-01    1.670000e+00
 TN4dr  X4er  1 3.950000e-01    2.940000e+00
 TN4dr  X3er  1 3.950000e-01    2.700000e+00
 TN4dr  X2er  1 3.950000e-01    2.310000e+00
 TN4dr  X1er  1 3.950000e-01    2.110000e+00
 TN3dr   C6r  1 3.950000e-01    2.310000e+00
 TN3dr   C5r  1 3.950000e-01    2.110000e+00
 TN3dr   C4r  1 3.950000e-01    2.110000e+00
 TN3dr   C3r  1 3.950000e-01    1.850000e+00
 TN3dr   C2r  1 3.950000e-01    1.850000e+00
 TN3dr   C1r  1 3.950000e-01    1.670000e+00
 TN3dr   X4r  1 3.950000e-01    2.500000e+00
 TN3dr   X3r  1 3.950000e-01    2.310000e+00
 TN3dr   X2r  1 3.950000e-01    2.110000e+00
 TN3dr   X1r  1 3.950000e-01    2.110000e+00
 TN3dr  C6vr  1 3.950000e-01    2.110000e+00
 TN3dr  C5vr  1 3.950000e-01    1.850000e+00
 TN3dr  C4vr  1 3.950000e-01    1.850000e+00
 TN3dr  C3vr  1 3.950000e-01    1.670000e+00
 TN3dr  C2vr  1 3.950000e-01    1.670000e+00
 TN3dr  C1vr  1 3.980000e-01    1.450000e+00
 TN3dr  X4vr  1 3.950000e-01    2.310000e+00
 TN3dr  X3vr  1 3.950000e-01    2.110000e+00
 TN3dr  X2vr  1 3.950000e-01    1.850000e+00
 TN3dr  X1vr  1 3.950000e-01    1.850000e+00
 TN3dr  C6er  1 3.950000e-01    2.500000e+00
 TN3dr  C5er  1 3.950000e-01    2.310000e+00
 TN3dr  C4er  1 3.950000e-01    2.310000e+00
 TN3dr  C3er  1 3.950000e-01    2.110000e+00
 TN3dr  C2er  1 3.950000e-01    2.110000e+00
 TN3dr  C1er  1 3.950000e-01    1.850000e+00
 TN3dr  X4er  1 3.950000e-01    2.700000e+00
 TN3dr  X3er  1 3.950000e-01    2.500000e+00
 TN3dr  X2er  1 3.950000e-01    2.310000e+00
 TN3dr  X1er  1 3.950000e-01    2.310000e+00
 TN2dr   C6r  1 3.950000e-01    2.310000e+00
 TN2dr   C5r  1 3.950000e-01    2.110000e+00
 TN2dr   C4r  1 3.950000e-01    2.110000e+00
 TN2dr   C3r  1 3.950000e-01    2.110000e+00
 TN2dr   C2r  1 3.950000e-01    1.850000e+00
 TN2dr   C1r  1 3.950000e-01    1.670000e+00
 TN2dr   X4r  1 3.950000e-01    2.500000e+00
 TN2dr   X3r  1 3.950000e-01    2.310000e+00
 TN2dr   X2r  1 3.950000e-01    2.110000e+00
 TN2dr   X1r  1 3.950000e-01    2.110000e+00
 TN2dr  C6vr  1 3.950000e-01    2.110000e+00
 TN2dr  C5vr  1 3.950000e-01    1.850000e+00
 TN2dr  C4vr  1 3.950000e-01    1.850000e+00
 TN2dr  C3vr  1 3.950000e-01    1.850000e+00
 TN2dr  C2vr  1 3.950000e-01    1.670000e+00
 TN2dr  C1vr  1 3.980000e-01    1.450000e+00
 TN2dr  X4vr  1 3.950000e-01    2.310000e+00
 TN2dr  X3vr  1 3.950000e-01    2.110000e+00
 TN2dr  X2vr  1 3.950000e-01    1.850000e+00
 TN2dr  X1vr  1 3.950000e-01    1.850000e+00
 TN2dr  C6er  1 3.950000e-01    2.500000e+00
 TN2dr  C5er  1 3.950000e-01    2.310000e+00
 TN2dr  C4er  1 3.950000e-01    2.310000e+00
 TN2dr  C3er  1 3.950000e-01    2.310000e+00
 TN2dr  C2er  1 3.950000e-01    2.110000e+00
 TN2dr  C1er  1 3.950000e-01    1.850000e+00
 TN2dr  X4er  1 3.950000e-01    2.700000e+00
 TN2dr  X3er  1 3.950000e-01    2.500000e+00
 TN2dr  X2er  1 3.950000e-01    2.310000e+00
 TN2dr  X1er  1 3.950000e-01    2.310000e+00
 TN1dr   C6r  1 3.950000e-01    2.500000e+00
 TN1dr   C5r  1 3.950000e-01    2.310000e+00
 TN1dr   C4r  1 3.950000e-01    2.310000e+00
 TN1dr   C3r  1 3.950000e-01    2.110000e+00
 TN1dr   C2r  1 3.950000e-01    1.850000e+00
 TN1dr   C1r  1 3.950000e-01    1.670000e+00
 TN1dr   X4r  1 3.950000e-01    2.310000e+00
 TN1dr   X3r  1 3.950000e-01    2.310000e+00
 TN1dr   X2r  1 3.950000e-01    2.110000e+00
 TN1dr   X1r  1 3.950000e-01    2.110000e+00
 TN1dr  C6vr  1 3.950000e-01    2.310000e+00
 TN1dr  C5vr  1 3.950000e-01    2.110000e+00
 TN1dr  C4vr  1 3.950000e-01    2.110000e+00
 TN1dr  C3vr  1 3.950000e-01    1.850000e+00
 TN1dr  C2vr  1 3.950000e-01    1.670000e+00
 TN1dr  C1vr  1 3.980000e-01    1.450000e+00
 TN1dr  X4vr  1 3.950000e-01    2.110000e+00
 TN1dr  X3vr  1 3.950000e-01    2.110000e+00
 TN1dr  X2vr  1 3.950000e-01    1.850000e+00
 TN1dr  X1vr  1 3.950000e-01    1.850000e+00
 TN1dr  C6er  1 3.950000e-01    2.700000e+00
 TN1dr  C5er  1 3.950000e-01    2.500000e+00
 TN1dr  C4er  1 3.950000e-01    2.500000e+00
 TN1dr  C3er  1 3.950000e-01    2.310000e+00
 TN1dr  C2er  1 3.950000e-01    2.110000e+00
 TN1dr  C1er  1 3.950000e-01    1.850000e+00
 TN1dr  X4er  1 3.950000e-01    2.500000e+00
 TN1dr  X3er  1 3.950000e-01    2.500000e+00
 TN1dr  X2er  1 3.950000e-01    2.310000e+00
 TN1dr  X1er  1 3.950000e-01    2.310000e+00
 TP6ar   C6r  1 3.950000e-01    1.670000e+00
 TP6ar   C5r  1 3.980000e-01    1.450000e+00
 TP6ar   C4r  1 3.990000e-01    1.180000e+00
 TP6ar   C3r  1 4.010000e-01    9.830000e-01
 TP6ar   C2r  1 4.010000e-01    9.830000e-01
 TP6ar   C1r  1 4.650000e-01    7.030000e-01
 TP6ar   X4r  1 3.950000e-01    1.850000e+00
 TP6ar   X3r  1 3.950000e-01    1.850000e+00
 TP6ar   X2r  1 3.950000e-01    1.670000e+00
 TP6ar   X1r  1 3.980000e-01    1.450000e+00
 TP6ar  C6vr  1 3.950000e-01    1.850000e+00
 TP6ar  C5vr  1 3.950000e-01    1.670000e+00
 TP6ar  C4vr  1 3.980000e-01    1.450000e+00
 TP6ar  C3vr  1 3.990000e-01    1.180000e+00
 TP6ar  C2vr  1 3.990000e-01    1.180000e+00
 TP6ar  C1vr  1 4.040000e-01    8.300000e-01
 TP6ar  X4vr  1 3.950000e-01    2.110000e+00
 TP6ar  X3vr  1 3.950000e-01    2.110000e+00
 TP6ar  X2vr  1 3.950000e-01    1.850000e+00
 TP6ar  X1vr  1 3.950000e-01    1.670000e+00
 TP6ar  C6er  1 3.980000e-01    1.450000e+00
 TP6ar  C5er  1 3.990000e-01    1.180000e+00
 TP6ar  C4er  1 4.010000e-01    9.830000e-01
 TP6ar  C3er  1 4.040000e-01    8.300000e-01
 TP6ar  C2er  1 4.040000e-01    8.300000e-01
 TP6ar  C1er  1 5.110000e-01    6.590000e-01
 TP6ar  X4er  1 3.950000e-01    1.670000e+00
 TP6ar  X3er  1 3.950000e-01    1.670000e+00
 TP6ar  X2er  1 3.980000e-01    1.450000e+00
 TP6ar  X1er  1 3.990000e-01    1.180000e+00
 TP5ar   C6r  1 3.950000e-01    1.670000e+00
 TP5ar   C5r  1 3.950000e-01    1.670000e+00
 TP5ar   C4r  1 3.980000e-01    1.450000e+00
 TP5ar   C3r  1 3.990000e-01    1.180000e+00
 TP5ar   C2r  1 3.990000e-01    1.180000e+00
 TP5ar   C1r  1 4.010000e-01    9.830000e-01
 TP5ar   X4r  1 3.950000e-01    2.110000e+00
 TP5ar   X3r  1 3.950000e-01    1.850000e+00
 TP5ar   X2r  1 3.950000e-01    1.850000e+00
 TP5ar   X1r  1 3.980000e-01    1.450000e+00
 TP5ar  C6vr  1 3.950000e-01    1.850000e+00
 TP5ar  C5vr  1 3.950000e-01    1.850000e+00
 TP5ar  C4vr  1 3.950000e-01    1.670000e+00
 TP5ar  C3vr  1 3.980000e-01    1.450000e+00
 TP5ar  C2vr  1 3.980000e-01    1.450000e+00
 TP5ar  C1vr  1 3.990000e-01    1.180000e+00
 TP5ar  X4vr  1 3.950000e-01    2.310000e+00
 TP5ar  X3vr  1 3.950000e-01    2.110000e+00
 TP5ar  X2vr  1 3.950000e-01    2.110000e+00
 TP5ar  X1vr  1 3.950000e-01    1.670000e+00
 TP5ar  C6er  1 3.980000e-01    1.450000e+00
 TP5ar  C5er  1 3.980000e-01    1.450000e+00
 TP5ar  C4er  1 3.990000e-01    1.180000e+00
 TP5ar  C3er  1 4.010000e-01    9.830000e-01
 TP5ar  C2er  1 4.010000e-01    9.830000e-01
 TP5ar  C1er  1 4.040000e-01    8.300000e-01
 TP5ar  X4er  1 3.950000e-01    1.850000e+00
 TP5ar  X3er  1 3.950000e-01    1.670000e+00
 TP5ar  X2er  1 3.950000e-01    1.670000e+00
 TP5ar  X1er  1 3.990000e-01    1.180000e+00
 TP4ar   C6r  1 3.950000e-01    1.850000e+00
 TP4ar   C5r  1 3.950000e-01    1.670000e+00
 TP4ar   C4r  1 3.980000e-01    1.450000e+00
 TP4ar   C3r  1 3.990000e-01    1.180000e+00
 TP4ar   C2r  1 3.990000e-01    1.180000e+00
 TP4ar   C1r  1 4.010000e-01    9.830000e-01
 TP4ar   X4r  1 3.950000e-01    2.110000e+00
 TP4ar   X3r  1 3.950000e-01    1.850000e+00
 TP4ar   X2r  1 3.950000e-01    1.850000e+00
 TP4ar   X1r  1 3.950000e-01    1.670000e+00
 TP4ar  C6vr  1 3.950000e-01    2.110000e+00
 TP4ar  C5vr  1 3.950000e-01    1.850000e+00
 TP4ar  C4vr  1 3.950000e-01    1.670000e+00
 TP4ar  C3vr  1 3.980000e-01    1.450000e+00
 TP4ar  C2vr  1 3.980000e-01    1.450000e+00
 TP4ar  C1vr  1 3.990000e-01    1.180000e+00
 TP4ar  X4vr  1 3.950000e-01    2.310000e+00
 TP4ar  X3vr  1 3.950000e-01    2.110000e+00
 TP4ar  X2vr  1 3.950000e-01    2.110000e+00
 TP4ar  X1vr  1 3.950000e-01    1.850000e+00
 TP4ar  C6er  1 3.950000e-01    1.670000e+00
 TP4ar  C5er  1 3.980000e-01    1.450000e+00
 TP4ar  C4er  1 3.990000e-01    1.180000e+00
 TP4ar  C3er  1 4.010000e-01    9.830000e-01
 TP4ar  C2er  1 4.010000e-01    9.830000e-01
 TP4ar  C1er  1 4.040000e-01    8.300000e-01
 TP4ar  X4er  1 3.950000e-01    1.850000e+00
 TP4ar  X3er  1 3.950000e-01    1.670000e+00
 TP4ar  X2er  1 3.950000e-01    1.670000e+00
 TP4ar  X1er  1 3.980000e-01    1.450000e+00
 TP3ar   C6r  1 3.950000e-01    2.110000e+00
 TP3ar   C5r  1 3.950000e-01    1.850000e+00
 TP3ar   C4r  1 3.950000e-01    1.670000e+00
 TP3ar   C3r  1 3.990000e-01    1.180000e+00
 TP3ar   C2r  1 3.990000e-01    1.180000e+00
 TP3ar   C1r  1 4.010000e-01    9.830000e-01
 TP3ar   X4r  1 3.950000e-01    2.110000e+00
 TP3ar   X3r  1 3.950000e-01    2.110000e+00
 TP3ar   X2r  1 3.950000e-01    1.850000e+00
 TP3ar   X1r  1 3.950000e-01    1.670000e+00
 TP3ar  C6vr  1 3.950000e-01    2.310000e+00
 TP3ar  C5vr  1 3.950000e-01    2.110000e+00
 TP3ar  C4vr  1 3.950000e-01    1.850000e+00
 TP3ar  C3vr  1 3.980000e-01    1.450000e+00
 TP3ar  C2vr  1 3.980000e-01    1.450000e+00
 TP3ar  C1vr  1 3.990000e-01    1.180000e+00
 TP3ar  X4vr  1 3.950000e-01    2.310000e+00
 TP3ar  X3vr  1 3.950000e-01    2.310000e+00
 TP3ar  X2vr  1 3.950000e-01    2.110000e+00
 TP3ar  X1vr  1 3.950000e-01    1.850000e+00
 TP3ar  C6er  1 3.950000e-01    1.850000e+00
 TP3ar  C5er  1 3.950000e-01    1.670000e+00
 TP3ar  C4er  1 3.980000e-01    1.450000e+00
 TP3ar  C3er  1 4.010000e-01    9.830000e-01
 TP3ar  C2er  1 4.010000e-01    9.830000e-01
 TP3ar  C1er  1 4.040000e-01    8.300000e-01
 TP3ar  X4er  1 3.950000e-01    1.850000e+00
 TP3ar  X3er  1 3.950000e-01    1.850000e+00
 TP3ar  X2er  1 3.950000e-01    1.670000e+00
 TP3ar  X1er  1 3.980000e-01    1.450000e+00
 TP2ar   C6r  1 3.950000e-01    2.110000e+00
 TP2ar   C5r  1 3.950000e-01    1.850000e+00
 TP2ar   C4r  1 3.950000e-01    1.670000e+00
 TP2ar   C3r  1 3.980000e-01    1.450000e+00
 TP2ar   C2r  1 3.980000e-01    1.450000e+00
 TP2ar   C1r  1 3.990000e-01    1.180000e+00
 TP2ar   X4r  1 3.950000e-01    2.110000e+00
 TP2ar   X3r  1 3.950000e-01    2.110000e+00
 TP2ar   X2r  1 3.950000e-01    1.850000e+00
 TP2ar   X1r  1 3.950000e-01    1.670000e+00
 TP2ar  C6vr  1 3.950000e-01    2.310000e+00
 TP2ar  C5vr  1 3.950000e-01    2.110000e+00
 TP2ar  C4vr  1 3.950000e-01    1.850000e+00
 TP2ar  C3vr  1 3.950000e-01    1.670000e+00
 TP2ar  C2vr  1 3.950000e-01    1.670000e+00
 TP2ar  C1vr  1 3.980000e-01    1.450000e+00
 TP2ar  X4vr  1 3.950000e-01    2.310000e+00
 TP2ar  X3vr  1 3.950000e-01    2.310000e+00
 TP2ar  X2vr  1 3.950000e-01    2.110000e+00
 TP2ar  X1vr  1 3.950000e-01    1.850000e+00
 TP2ar  C6er  1 3.950000e-01    1.850000e+00
 TP2ar  C5er  1 3.950000e-01    1.670000e+00
 TP2ar  C4er  1 3.980000e-01    1.450000e+00
 TP2ar  C3er  1 3.990000e-01    1.180000e+00
 TP2ar  C2er  1 3.990000e-01    1.180000e+00
 TP2ar  C1er  1 4.010000e-01    9.830000e-01
 TP2ar  X4er  1 3.950000e-01    1.850000e+00
 TP2ar  X3er  1 3.950000e-01    1.850000e+00
 TP2ar  X2er  1 3.950000e-01    1.670000e+00
 TP2ar  X1er  1 3.980000e-01    1.450000e+00
 TP1ar   C6r  1 3.950000e-01    2.110000e+00
 TP1ar   C5r  1 3.950000e-01    1.850000e+00
 TP1ar   C4r  1 3.950000e-01    1.670000e+00
 TP1ar   C3r  1 3.980000e-01    1.450000e+00
 TP1ar   C2r  1 3.980000e-01    1.450000e+00
 TP1ar   C1r  1 3.990000e-01    1.180000e+00
 TP1ar   X4r  1 3.950000e-01    2.110000e+00
 TP1ar   X3r  1 3.950000e-01    2.110000e+00
 TP1ar   X2r  1 3.950000e-01    1.850000e+00
 TP1ar   X1r  1 3.950000e-01    1.670000e+00
 TP1ar  C6vr  1 3.950000e-01    2.310000e+00
 TP1ar  C5vr  1 3.950000e-01    2.110000e+00
 TP1ar  C4vr  1 3.950000e-01    1.850000e+00
 TP1ar  C3vr  1 3.950000e-01    1.670000e+00
 TP1ar  C2vr  1 3.950000e-01    1.670000e+00
 TP1ar  C1vr  1 3.980000e-01    1.450000e+00
 TP1ar  X4vr  1 3.950000e-01    2.310000e+00
 TP1ar  X3vr  1 3.950000e-01    2.310000e+00
 TP1ar  X2vr  1 3.950000e-01    2.110000e+00
 TP1ar  X1vr  1 3.950000e-01    1.850000e+00
 TP1ar  C6er  1 3.950000e-01    1.850000e+00
 TP1ar  C5er  1 3.950000e-01    1.670000e+00
 TP1ar  C4er  1 3.980000e-01    1.450000e+00
 TP1ar  C3er  1 3.990000e-01    1.180000e+00
 TP1ar  C2er  1 3.990000e-01    1.180000e+00
 TP1ar  C1er  1 4.010000e-01    9.830000e-01
 TP1ar  X4er  1 3.950000e-01    1.850000e+00
 TP1ar  X3er  1 3.950000e-01    1.850000e+00
 TP1ar  X2er  1 3.950000e-01    1.670000e+00
 TP1ar  X1er  1 3.980000e-01    1.450000e+00
 TN6ar   C6r  1 3.950000e-01    2.310000e+00
 TN6ar   C5r  1 3.950000e-01    2.110000e+00
 TN6ar   C4r  1 3.950000e-01    1.850000e+00
 TN6ar   C3r  1 3.950000e-01    1.670000e+00
 TN6ar   C2r  1 3.950000e-01    1.670000e+00
 TN6ar   C1r  1 3.980000e-01    1.450000e+00
 TN6ar   X4r  1 3.950000e-01    2.310000e+00
 TN6ar   X3r  1 3.950000e-01    2.110000e+00
 TN6ar   X2r  1 3.950000e-01    1.850000e+00
 TN6ar   X1r  1 3.950000e-01    1.670000e+00
 TN6ar  C6vr  1 3.950000e-01    2.500000e+00
 TN6ar  C5vr  1 3.950000e-01    2.310000e+00
 TN6ar  C4vr  1 3.950000e-01    2.110000e+00
 TN6ar  C3vr  1 3.950000e-01    1.850000e+00
 TN6ar  C2vr  1 3.950000e-01    1.850000e+00
 TN6ar  C1vr  1 3.950000e-01    1.670000e+00
 TN6ar  X4vr  1 3.950000e-01    2.500000e+00
 TN6ar  X3vr  1 3.950000e-01    2.310000e+00
 TN6ar  X2vr  1 3.950000e-01    2.110000e+00
 TN6ar  X1vr  1 3.950000e-01    1.850000e+00
 TN6ar  C6er  1 3.950000e-01    2.110000e+00
 TN6ar  C5er  1 3.950000e-01    1.850000e+00
 TN6ar  C4er  1 3.950000e-01    1.670000e+00
 TN6ar  C3er  1 3.980000e-01    1.450000e+00
 TN6ar  C2er  1 3.980000e-01    1.450000e+00
 TN6ar  C1er  1 3.990000e-01    1.180000e+00
 TN6ar  X4er  1 3.950000e-01    2.110000e+00
 TN6ar  X3er  1 3.950000e-01    1.850000e+00
 TN6ar  X2er  1 3.950000e-01    1.670000e+00
 TN6ar  X1er  1 3.980000e-01    1.450000e+00
 TN5ar   C6r  1 3.950000e-01    2.310000e+00
 TN5ar   C5r  1 3.950000e-01    2.110000e+00
 TN5ar   C4r  1 3.950000e-01    1.850000e+00
 TN5ar   C3r  1 3.950000e-01    1.850000e+00
 TN5ar   C2r  1 3.950000e-01    1.670000e+00
 TN5ar   C1r  1 3.980000e-01    1.450000e+00
 TN5ar   X4r  1 3.950000e-01    2.500000e+00
 TN5ar   X3r  1 3.950000e-01    2.310000e+00
 TN5ar   X2r  1 3.950000e-01    2.110000e+00
 TN5ar   X1r  1 3.950000e-01    1.850000e+00
 TN5ar  C6vr  1 3.950000e-01    2.500000e+00
 TN5ar  C5vr  1 3.950000e-01    2.310000e+00
 TN5ar  C4vr  1 3.950000e-01    2.110000e+00
 TN5ar  C3vr  1 3.950000e-01    2.110000e+00
 TN5ar  C2vr  1 3.950000e-01    1.850000e+00
 TN5ar  C1vr  1 3.950000e-01    1.670000e+00
 TN5ar  X4vr  1 3.950000e-01    2.700000e+00
 TN5ar  X3vr  1 3.950000e-01    2.500000e+00
 TN5ar  X2vr  1 3.950000e-01    2.310000e+00
 TN5ar  X1vr  1 3.950000e-01    2.110000e+00
 TN5ar  C6er  1 3.950000e-01    2.110000e+00
 TN5ar  C5er  1 3.950000e-01    1.850000e+00
 TN5ar  C4er  1 3.950000e-01    1.670000e+00
 TN5ar  C3er  1 3.950000e-01    1.670000e+00
 TN5ar  C2er  1 3.980000e-01    1.450000e+00
 TN5ar  C1er  1 3.990000e-01    1.180000e+00
 TN5ar  X4er  1 3.950000e-01    2.310000e+00
 TN5ar  X3er  1 3.950000e-01    2.110000e+00
 TN5ar  X2er  1 3.950000e-01    1.850000e+00
 TN5ar  X1er  1 3.950000e-01    1.670000e+00
 TN4ar   C6r  1 3.950000e-01    2.310000e+00
 TN4ar   C5r  1 3.950000e-01    2.110000e+00
 TN4ar   C4r  1 3.950000e-01    2.110000e+00
 TN4ar   C3r  1 3.950000e-01    1.850000e+00
 TN4ar   C2r  1 3.950000e-01    1.670000e+00
 TN4ar   C1r  1 3.980000e-01    1.450000e+00
 TN4ar   X4r  1 3.950000e-01    2.700000e+00
 TN4ar   X3r  1 3.950000e-01    2.500000e+00
 TN4ar   X2r  1 3.950000e-01    2.110000e+00
 TN4ar   X1r  1 3.950000e-01    1.850000e+00
 TN4ar  C6vr  1 3.950000e-01    2.500000e+00
 TN4ar  C5vr  1 3.950000e-01    2.310000e+00
 TN4ar  C4vr  1 3.950000e-01    2.310000e+00
 TN4ar  C3vr  1 3.950000e-01    2.110000e+00
 TN4ar  C2vr  1 3.950000e-01    1.850000e+00
 TN4ar  C1vr  1 3.950000e-01    1.670000e+00
 TN4ar  X4vr  1 3.950000e-01    2.940000e+00
 TN4ar  X3vr  1 3.950000e-01    2.700000e+00
 TN4ar  X2vr  1 3.950000e-01    2.310000e+00
 TN4ar  X1vr  1 3.950000e-01    2.110000e+00
 TN4ar  C6er  1 3.950000e-01    2.110000e+00
 TN4ar  C5er  1 3.950000e-01    1.850000e+00
 TN4ar  C4er  1 3.950000e-01    1.850000e+00
 TN4ar  C3er  1 3.950000e-01    1.670000e+00
 TN4ar  C2er  1 3.980000e-01    1.450000e+00
 TN4ar  C1er  1 3.990000e-01    1.180000e+00
 TN4ar  X4er  1 3.950000e-01    2.500000e+00
 TN4ar  X3er  1 3.950000e-01    2.310000e+00
 TN4ar  X2er  1 3.950000e-01    1.850000e+00
 TN4ar  X1er  1 3.950000e-01    1.670000e+00
 TN3ar   C6r  1 3.950000e-01    2.310000e+00
 TN3ar   C5r  1 3.950000e-01    2.110000e+00
 TN3ar   C4r  1 3.950000e-01    2.110000e+00
 TN3ar   C3r  1 3.950000e-01    1.850000e+00
 TN3ar   C2r  1 3.950000e-01    1.850000e+00
 TN3ar   C1r  1 3.950000e-01    1.670000e+00
 TN3ar   X4r  1 3.950000e-01    2.500000e+00
 TN3ar   X3r  1 3.950000e-01    2.310000e+00
 TN3ar   X2r  1 3.950000e-01    2.110000e+00
 TN3ar   X1r  1 3.950000e-01    2.110000e+00
 TN3ar  C6vr  1 3.950000e-01    2.500000e+00
 TN3ar  C5vr  1 3.950000e-01    2.310000e+00
 TN3ar  C4vr  1 3.950000e-01    2.310000e+00
 TN3ar  C3vr  1 3.950000e-01    2.110000e+00
 TN3ar  C2vr  1 3.950000e-01    2.110000e+00
 TN3ar  C1vr  1 3.950000e-01    1.850000e+00
 TN3ar  X4vr  1 3.950000e-01    2.700000e+00
 TN3ar  X3vr  1 3.950000e-01    2.500000e+00
 TN3ar  X2vr  1 3.950000e-01    2.310000e+00
 TN3ar  X1vr  1 3.950000e-01    2.310000e+00
 TN3ar  C6er  1 3.950000e-01    2.110000e+00
 TN3ar  C5er  1 3.950000e-01    1.850000e+00
 TN3ar  C4er  1 3.950000e-01    1.850000e+00
 TN3ar  C3er  1 3.950000e-01    1.670000e+00
 TN3ar  C2er  1 3.950000e-01    1.670000e+00
 TN3ar  C1er  1 3.980000e-01    1.450000e+00
 TN3ar  X4er  1 3.950000e-01    2.310000e+00
 TN3ar  X3er  1 3.950000e-01    2.110000e+00
 TN3ar  X2er  1 3.950000e-01    1.850000e+00
 TN3ar  X1er  1 3.950000e-01    1.850000e+00
 TN2ar   C6r  1 3.950000e-01    2.310000e+00
 TN2ar   C5r  1 3.950000e-01    2.110000e+00
 TN2ar   C4r  1 3.950000e-01    2.110000e+00
 TN2ar   C3r  1 3.950000e-01    2.110000e+00
 TN2ar   C2r  1 3.950000e-01    1.850000e+00
 TN2ar   C1r  1 3.950000e-01    1.670000e+00
 TN2ar   X4r  1 3.950000e-01    2.500000e+00
 TN2ar   X3r  1 3.950000e-01    2.310000e+00
 TN2ar   X2r  1 3.950000e-01    2.110000e+00
 TN2ar   X1r  1 3.950000e-01    2.110000e+00
 TN2ar  C6vr  1 3.950000e-01    2.500000e+00
 TN2ar  C5vr  1 3.950000e-01    2.310000e+00
 TN2ar  C4vr  1 3.950000e-01    2.310000e+00
 TN2ar  C3vr  1 3.950000e-01    2.310000e+00
 TN2ar  C2vr  1 3.950000e-01    2.110000e+00
 TN2ar  C1vr  1 3.950000e-01    1.850000e+00
 TN2ar  X4vr  1 3.950000e-01    2.700000e+00
 TN2ar  X3vr  1 3.950000e-01    2.500000e+00
 TN2ar  X2vr  1 3.950000e-01    2.310000e+00
 TN2ar  X1vr  1 3.950000e-01    2.310000e+00
 TN2ar  C6er  1 3.950000e-01    2.110000e+00
 TN2ar  C5er  1 3.950000e-01    1.850000e+00
 TN2ar  C4er  1 3.950000e-01    1.850000e+00
 TN2ar  C3er  1 3.950000e-01    1.850000e+00
 TN2ar  C2er  1 3.950000e-01    1.670000e+00
 TN2ar  C1er  1 3.980000e-01    1.450000e+00
 TN2ar  X4er  1 3.950000e-01    2.310000e+00
 TN2ar  X3er  1 3.950000e-01    2.110000e+00
 TN2ar  X2er  1 3.950000e-01    1.850000e+00
 TN2ar  X1er  1 3.950000e-01    1.850000e+00
 TN1ar   C6r  1 3.950000e-01    2.500000e+00
 TN1ar   C5r  1 3.950000e-01    2.310000e+00
 TN1ar   C4r  1 3.950000e-01    2.310000e+00
 TN1ar   C3r  1 3.950000e-01    2.110000e+00
 TN1ar   C2r  1 3.950000e-01    1.850000e+00
 TN1ar   C1r  1 3.950000e-01    1.670000e+00
 TN1ar   X4r  1 3.950000e-01    2.310000e+00
 TN1ar   X3r  1 3.950000e-01    2.310000e+00
 TN1ar   X2r  1 3.950000e-01    2.110000e+00
 TN1ar   X1r  1 3.950000e-01    2.110000e+00
 TN1ar  C6vr  1 3.950000e-01    2.700000e+00
 TN1ar  C5vr  1 3.950000e-01    2.500000e+00
 TN1ar  C4vr  1 3.950000e-01    2.500000e+00
 TN1ar  C3vr  1 3.950000e-01    2.310000e+00
 TN1ar  C2vr  1 3.950000e-01    2.110000e+00
 TN1ar  C1vr  1 3.950000e-01    1.850000e+00
 TN1ar  X4vr  1 3.950000e-01    2.500000e+00
 TN1ar  X3vr  1 3.950000e-01    2.500000e+00
 TN1ar  X2vr  1 3.950000e-01    2.310000e+00
 TN1ar  X1vr  1 3.950000e-01    2.310000e+00
 TN1ar  C6er  1 3.950000e-01    2.310000e+00
 TN1ar  C5er  1 3.950000e-01    2.110000e+00
 TN1ar  C4er  1 3.950000e-01    2.110000e+00
 TN1ar  C3er  1 3.950000e-01    1.850000e+00
 TN1ar  C2er  1 3.950000e-01    1.670000e+00
 TN1ar  C1er  1 3.980000e-01    1.450000e+00
 TN1ar  X4er  1 3.950000e-01    2.110000e+00
 TN1ar  X3er  1 3.950000e-01    2.110000e+00
 TN1ar  X2er  1 3.950000e-01    1.850000e+00
 TN1ar  X1er  1 3.950000e-01    1.850000e+00
  TP6h   P5h  1 3.950000e-01    4.230000e+00
  TP6h   P4h  1 3.950000e-01    3.910000e+00
  TP6h   P3h  1 3.950000e-01    3.670000e+00
  TP6h   P2h  1 3.950000e-01    3.670000e+00
  TP6h   P1h  1 3.950000e-01    3.430000e+00
  TP6h   N6h  1 3.950000e-01    3.190000e+00
  TP6h   N5h  1 3.950000e-01    2.700000e+00
  TP6h   N4h  1 3.950000e-01    2.500000e+00
  TP6h   N3h  1 3.950000e-01    2.310000e+00
  TP6h   N2h  1 3.950000e-01    2.110000e+00
  TP6h   N1h  1 3.950000e-01    1.850000e+00
  TP6h  P6dh  1 3.950000e-01    4.540000e+00
  TP6h  P5dh  1 3.950000e-01    4.230000e+00
  TP6h  P4dh  1 3.950000e-01    3.910000e+00
  TP6h  P3dh  1 3.950000e-01    3.670000e+00
  TP6h  P2dh  1 3.950000e-01    3.670000e+00
  TP6h  P1dh  1 3.950000e-01    3.430000e+00
  TP6h  N6dh  1 3.950000e-01    3.190000e+00
  TP6h  N5dh  1 3.950000e-01    2.700000e+00
  TP6h  N4dh  1 3.950000e-01    2.500000e+00
  TP6h  N3dh  1 3.950000e-01    2.310000e+00
  TP6h  N2dh  1 3.950000e-01    2.110000e+00
  TP6h  N1dh  1 3.950000e-01    1.850000e+00
  TP6h  P6ah  1 3.950000e-01    4.540000e+00
  TP6h  P5ah  1 3.950000e-01    4.230000e+00
  TP6h  P4ah  1 3.950000e-01    3.910000e+00
  TP6h  P3ah  1 3.950000e-01    3.670000e+00
  TP6h  P2ah  1 3.950000e-01    3.670000e+00
  TP6h  P1ah  1 3.950000e-01    3.430000e+00
  TP6h  N6ah  1 3.950000e-01    3.190000e+00
  TP6h  N5ah  1 3.950000e-01    2.700000e+00
  TP6h  N4ah  1 3.950000e-01    2.500000e+00
  TP6h  N3ah  1 3.950000e-01    2.310000e+00
  TP6h  N2ah  1 3.950000e-01    2.110000e+00
  TP6h  N1ah  1 3.950000e-01    1.850000e+00
  TP5h   P4h  1 3.950000e-01    3.670000e+00
  TP5h   P3h  1 3.950000e-01    3.430000e+00
  TP5h   P2h  1 3.950000e-01    3.430000e+00
  TP5h   P1h  1 3.950000e-01    3.190000e+00
  TP5h   N6h  1 3.950000e-01    2.940000e+00
  TP5h   N5h  1 3.950000e-01    2.700000e+00
  TP5h   N4h  1 3.950000e-01    2.700000e+00
  TP5h   N3h  1 3.950000e-01    2.310000e+00
  TP5h   N2h  1 3.950000e-01    2.110000e+00
  TP5h   N1h  1 3.950000e-01    1.850000e+00
  TP5h  P5dh  1 3.950000e-01    3.910000e+00
  TP5h  P4dh  1 3.950000e-01    3.670000e+00
  TP5h  P3dh  1 3.950000e-01    3.430000e+00
  TP5h  P2dh  1 3.950000e-01    3.430000e+00
  TP5h  P1dh  1 3.950000e-01    3.190000e+00
  TP5h  N6dh  1 3.950000e-01    2.940000e+00
  TP5h  N5dh  1 3.950000e-01    2.700000e+00
  TP5h  N4dh  1 3.950000e-01    2.700000e+00
  TP5h  N3dh  1 3.950000e-01    2.310000e+00
  TP5h  N2dh  1 3.950000e-01    2.110000e+00
  TP5h  N1dh  1 3.950000e-01    1.850000e+00
  TP5h  P5ah  1 3.950000e-01    3.910000e+00
  TP5h  P4ah  1 3.950000e-01    3.670000e+00
  TP5h  P3ah  1 3.950000e-01    3.430000e+00
  TP5h  P2ah  1 3.950000e-01    3.430000e+00
  TP5h  P1ah  1 3.950000e-01    3.190000e+00
  TP5h  N6ah  1 3.950000e-01    2.940000e+00
  TP5h  N5ah  1 3.950000e-01    2.700000e+00
  TP5h  N4ah  1 3.950000e-01    2.700000e+00
  TP5h  N3ah  1 3.950000e-01    2.310000e+00
  TP5h  N2ah  1 3.950000e-01    2.110000e+00
  TP5h  N1ah  1 3.950000e-01    1.850000e+00
  TP4h   P3h  1 3.950000e-01    3.430000e+00
  TP4h   P2h  1 3.950000e-01    3.430000e+00
  TP4h   P1h  1 3.950000e-01    3.190000e+00
  TP4h   N6h  1 3.950000e-01    2.940000e+00
  TP4h   N5h  1 3.950000e-01    2.700000e+00
  TP4h   N4h  1 3.950000e-01    2.700000e+00
  TP4h   N3h  1 3.950000e-01    2.500000e+00
  TP4h   N2h  1 3.950000e-01    2.310000e+00
  TP4h   N1h  1 3.950000e-01    2.110000e+00
  TP4h  P4dh  1 3.950000e-01    3.670000e+00
  TP4h  P3dh  1 3.950000e-01    3.430000e+00
  TP4h  P2dh  1 3.950000e-01    3.430000e+00
  TP4h  P1dh  1 3.950000e-01    3.190000e+00
  TP4h  N6dh  1 3.950000e-01    2.940000e+00
  TP4h  N5dh  1 3.950000e-01    2.700000e+00
  TP4h  N4dh  1 3.950000e-01    2.700000e+00
  TP4h  N3dh  1 3.950000e-01    2.500000e+00
  TP4h  N2dh  1 3.950000e-01    2.310000e+00
  TP4h  N1dh  1 3.950000e-01    2.110000e+00
  TP4h  P4ah  1 3.950000e-01    3.670000e+00
  TP4h  P3ah  1 3.950000e-01    3.430000e+00
  TP4h  P2ah  1 3.950000e-01    3.430000e+00
  TP4h  P1ah  1 3.950000e-01    3.190000e+00
  TP4h  N6ah  1 3.950000e-01    2.940000e+00
  TP4h  N5ah  1 3.950000e-01    2.700000e+00
  TP4h  N4ah  1 3.950000e-01    2.700000e+00
  TP4h  N3ah  1 3.950000e-01    2.500000e+00
  TP4h  N2ah  1 3.950000e-01    2.310000e+00
  TP4h  N1ah  1 3.950000e-01    2.110000e+00
  TP3h   P2h  1 3.950000e-01    3.430000e+00
  TP3h   P1h  1 3.950000e-01    3.190000e+00
  TP3h   N6h  1 3.950000e-01    2.940000e+00
  TP3h   N5h  1 3.950000e-01    2.700000e+00
  TP3h   N4h  1 3.950000e-01    2.700000e+00
  TP3h   N3h  1 3.950000e-01    2.500000e+00
  TP3h   N2h  1 3.950000e-01    2.500000e+00
  TP3h   N1h  1 3.950000e-01    2.310000e+00
  TP3h  P3dh  1 3.950000e-01    3.430000e+00
  TP3h  P2dh  1 3.950000e-01    3.430000e+00
  TP3h  P1dh  1 3.950000e-01    3.190000e+00
  TP3h  N6dh  1 3.950000e-01    2.940000e+00
  TP3h  N5dh  1 3.950000e-01    2.700000e+00
  TP3h  N4dh  1 3.950000e-01    2.700000e+00
  TP3h  N3dh  1 3.950000e-01    2.500000e+00
  TP3h  N2dh  1 3.950000e-01    2.500000e+00
  TP3h  N1dh  1 3.950000e-01    2.310000e+00
  TP3h  P3ah  1 3.950000e-01    3.430000e+00
  TP3h  P2ah  1 3.950000e-01    3.430000e+00
  TP3h  P1ah  1 3.950000e-01    3.190000e+00
  TP3h  N6ah  1 3.950000e-01    2.940000e+00
  TP3h  N5ah  1 3.950000e-01    2.700000e+00
  TP3h  N4ah  1 3.950000e-01    2.700000e+00
  TP3h  N3ah  1 3.950000e-01    2.500000e+00
  TP3h  N2ah  1 3.950000e-01    2.500000e+00
  TP3h  N1ah  1 3.950000e-01    2.310000e+00
  TP2h   P1h  1 3.950000e-01    3.190000e+00
  TP2h   N6h  1 3.950000e-01    3.190000e+00
  TP2h   N5h  1 3.950000e-01    2.940000e+00
  TP2h   N4h  1 3.950000e-01    2.700000e+00
  TP2h   N3h  1 3.950000e-01    2.500000e+00
  TP2h   N2h  1 3.950000e-01    2.500000e+00
  TP2h   N1h  1 3.950000e-01    2.500000e+00
  TP2h  P2dh  1 3.950000e-01    3.430000e+00
  TP2h  P1dh  1 3.950000e-01    3.190000e+00
  TP2h  N6dh  1 3.950000e-01    3.190000e+00
  TP2h  N5dh  1 3.950000e-01    2.940000e+00
  TP2h  N4dh  1 3.950000e-01    2.700000e+00
  TP2h  N3dh  1 3.950000e-01    2.500000e+00
  TP2h  N2dh  1 3.950000e-01    2.500000e+00
  TP2h  N1dh  1 3.950000e-01    2.500000e+00
  TP2h  P2ah  1 3.950000e-01    3.430000e+00
  TP2h  P1ah  1 3.950000e-01    3.190000e+00
  TP2h  N6ah  1 3.950000e-01    3.190000e+00
  TP2h  N5ah  1 3.950000e-01    2.940000e+00
  TP2h  N4ah  1 3.950000e-01    2.700000e+00
  TP2h  N3ah  1 3.950000e-01    2.500000e+00
  TP2h  N2ah  1 3.950000e-01    2.500000e+00
  TP2h  N1ah  1 3.950000e-01    2.500000e+00
  TP1h   N6h  1 3.950000e-01    3.190000e+00
  TP1h   N5h  1 3.950000e-01    2.940000e+00
  TP1h   N4h  1 3.950000e-01    2.940000e+00
  TP1h   N3h  1 3.950000e-01    2.500000e+00
  TP1h   N2h  1 3.950000e-01    2.500000e+00
  TP1h   N1h  1 3.950000e-01    2.500000e+00
  TP1h  P1dh  1 3.950000e-01    3.190000e+00
  TP1h  N6dh  1 3.950000e-01    3.190000e+00
  TP1h  N5dh  1 3.950000e-01    2.940000e+00
  TP1h  N4dh  1 3.950000e-01    2.940000e+00
  TP1h  N3dh  1 3.950000e-01    2.500000e+00
  TP1h  N2dh  1 3.950000e-01    2.500000e+00
  TP1h  N1dh  1 3.950000e-01    2.500000e+00
  TP1h  P1ah  1 3.950000e-01    3.190000e+00
  TP1h  N6ah  1 3.950000e-01    3.190000e+00
  TP1h  N5ah  1 3.950000e-01    2.940000e+00
  TP1h  N4ah  1 3.950000e-01    2.940000e+00
  TP1h  N3ah  1 3.950000e-01    2.500000e+00
  TP1h  N2ah  1 3.950000e-01    2.500000e+00
  TP1h  N1ah  1 3.950000e-01    2.500000e+00
  TN6h   N5h  1 3.950000e-01    3.190000e+00
  TN6h   N4h  1 3.950000e-01    3.190000e+00
  TN6h   N3h  1 3.950000e-01    2.700000e+00
  TN6h   N2h  1 3.950000e-01    2.500000e+00
  TN6h   N1h  1 3.950000e-01    2.500000e+00
  TN6h  N6dh  1 3.950000e-01    3.190000e+00
  TN6h  N5dh  1 3.950000e-01    3.190000e+00
  TN6h  N4dh  1 3.950000e-01    3.190000e+00
  TN6h  N3dh  1 3.950000e-01    2.700000e+00
  TN6h  N2dh  1 3.950000e-01    2.500000e+00
  TN6h  N1dh  1 3.950000e-01    2.500000e+00
  TN6h  N6ah  1 3.950000e-01    3.190000e+00
  TN6h  N5ah  1 3.950000e-01    3.190000e+00
  TN6h  N4ah  1 3.950000e-01    3.190000e+00
  TN6h  N3ah  1 3.950000e-01    2.700000e+00
  TN6h  N2ah  1 3.950000e-01    2.500000e+00
  TN6h  N1ah  1 3.950000e-01    2.500000e+00
  TN5h   N4h  1 3.950000e-01    2.940000e+00
  TN5h   N3h  1 3.950000e-01    2.700000e+00
  TN5h   N2h  1 3.950000e-01    2.700000e+00
  TN5h   N1h  1 3.950000e-01    2.500000e+00
  TN5h  N5dh  1 3.950000e-01    2.940000e+00
  TN5h  N4dh  1 3.950000e-01    2.940000e+00
  TN5h  N3dh  1 3.950000e-01    2.700000e+00
  TN5h  N2dh  1 3.950000e-01    2.700000e+00
  TN5h  N1dh  1 3.950000e-01    2.500000e+00
  TN5h  N5ah  1 3.950000e-01    2.940000e+00
  TN5h  N4ah  1 3.950000e-01    2.940000e+00
  TN5h  N3ah  1 3.950000e-01    2.700000e+00
  TN5h  N2ah  1 3.950000e-01    2.700000e+00
  TN5h  N1ah  1 3.950000e-01    2.500000e+00
  TN4h   N3h  1 3.950000e-01    2.700000e+00
  TN4h   N2h  1 3.950000e-01    2.700000e+00
  TN4h   N1h  1 3.950000e-01    2.500000e+00
  TN4h  N4dh  1 3.950000e-01    2.940000e+00
  TN4h  N3dh  1 3.950000e-01    2.700000e+00
  TN4h  N2dh  1 3.950000e-01    2.700000e+00
  TN4h  N1dh  1 3.950000e-01    2.500000e+00
  TN4h  N4ah  1 3.950000e-01    2.940000e+00
  TN4h  N3ah  1 3.950000e-01    2.700000e+00
  TN4h  N2ah  1 3.950000e-01    2.700000e+00
  TN4h  N1ah  1 3.950000e-01    2.500000e+00
  TN3h   N2h  1 3.950000e-01    2.700000e+00
  TN3h   N1h  1 3.950000e-01    2.500000e+00
  TN3h  N3dh  1 3.950000e-01    2.700000e+00
  TN3h  N2dh  1 3.950000e-01    2.700000e+00
  TN3h  N1dh  1 3.950000e-01    2.500000e+00
  TN3h  N3ah  1 3.950000e-01    2.700000e+00
  TN3h  N2ah  1 3.950000e-01    2.700000e+00
  TN3h  N1ah  1 3.950000e-01    2.500000e+00
  TN2h   N1h  1 3.950000e-01    2.500000e+00
  TN2h  N2dh  1 3.950000e-01    2.700000e+00
  TN2h  N1dh  1 3.950000e-01    2.500000e+00
  TN2h  N2ah  1 3.950000e-01    2.700000e+00
  TN2h  N1ah  1 3.950000e-01    2.500000e+00
  TN1h  N1dh  1 3.950000e-01    2.700000e+00
  TN1h  N1ah  1 3.950000e-01    2.700000e+00
 TP6dh   P5h  1 3.950000e-01    4.230000e+00
 TP6dh   P4h  1 3.950000e-01    3.910000e+00
 TP6dh   P3h  1 3.950000e-01    3.670000e+00
 TP6dh   P2h  1 3.950000e-01    3.670000e+00
 TP6dh   P1h  1 3.950000e-01    3.430000e+00
 TP6dh   N6h  1 3.950000e-01    3.190000e+00
 TP6dh   N5h  1 3.950000e-01    2.700000e+00
 TP6dh   N4h  1 3.950000e-01    2.500000e+00
 TP6dh   N3h  1 3.950000e-01    2.310000e+00
 TP6dh   N2h  1 3.950000e-01    2.110000e+00
 TP6dh   N1h  1 3.950000e-01    1.850000e+00
 TP6dh  P5dh  1 3.950000e-01    3.910000e+00
 TP6dh  P4dh  1 3.950000e-01    3.670000e+00
 TP6dh  P3dh  1 3.950000e-01    3.430000e+00
 TP6dh  P2dh  1 3.950000e-01    3.430000e+00
 TP6dh  P1dh  1 3.950000e-01    3.190000e+00
 TP6dh  N6dh  1 3.950000e-01    2.940000e+00
 TP6dh  N5dh  1 3.950000e-01    2.500000e+00
 TP6dh  N4dh  1 3.950000e-01    2.310000e+00
 TP6dh  N3dh  1 3.950000e-01    2.310000e+00
 TP6dh  N2dh  1 3.950000e-01    2.110000e+00
 TP6dh  N1dh  1 3.950000e-01    1.850000e+00
 TP6dh  P6ah  1 3.950000e-01    4.870000e+00
 TP6dh  P5ah  1 3.950000e-01    4.540000e+00
 TP6dh  P4ah  1 3.950000e-01    4.230000e+00
 TP6dh  P3ah  1 3.950000e-01    3.910000e+00
 TP6dh  P2ah  1 3.950000e-01    3.910000e+00
 TP6dh  P1ah  1 3.950000e-01    3.670000e+00
 TP6dh  N6ah  1 3.950000e-01    3.430000e+00
 TP6dh  N5ah  1 3.950000e-01    2.940000e+00
 TP6dh  N4ah  1 3.950000e-01    2.700000e+00
 TP6dh  N3ah  1 3.950000e-01    2.310000e+00
 TP6dh  N2ah  1 3.950000e-01    2.110000e+00
 TP6dh  N1ah  1 3.950000e-01    1.850000e+00
 TP5dh   P4h  1 3.950000e-01    3.670000e+00
 TP5dh   P3h  1 3.950000e-01    3.430000e+00
 TP5dh   P2h  1 3.950000e-01    3.430000e+00
 TP5dh   P1h  1 3.950000e-01    3.190000e+00
 TP5dh   N6h  1 3.950000e-01    2.940000e+00
 TP5dh   N5h  1 3.950000e-01    2.700000e+00
 TP5dh   N4h  1 3.950000e-01    2.700000e+00
 TP5dh   N3h  1 3.950000e-01    2.310000e+00
 TP5dh   N2h  1 3.950000e-01    2.110000e+00
 TP5dh   N1h  1 3.950000e-01    1.850000e+00
 TP5dh  P4dh  1 3.950000e-01    3.430000e+00
 TP5dh  P3dh  1 3.950000e-01    3.190000e+00
 TP5dh  P2dh  1 3.950000e-01    3.190000e+00
 TP5dh  P1dh  1 3.950000e-01    2.940000e+00
 TP5dh  N6dh  1 3.950000e-01    2.700000e+00
 TP5dh  N5dh  1 3.950000e-01    2.500000e+00
 TP5dh  N4dh  1 3.950000e-01    2.500000e+00
 TP5dh  N3dh  1 3.950000e-01    2.310000e+00
 TP5dh  N2dh  1 3.950000e-01    2.110000e+00
 TP5dh  N1dh  1 3.950000e-01    1.850000e+00
 TP5dh  P5ah  1 3.950000e-01    4.230000e+00
 TP5dh  P4ah  1 3.950000e-01    3.910000e+00
 TP5dh  P3ah  1 3.950000e-01    3.670000e+00
 TP5dh  P2ah  1 3.950000e-01    3.670000e+00
 TP5dh  P1ah  1 3.950000e-01    3.430000e+00
 TP5dh  N6ah  1 3.950000e-01    3.190000e+00
 TP5dh  N5ah  1 3.950000e-01    2.940000e+00
 TP5dh  N4ah  1 3.950000e-01    2.940000e+00
 TP5dh  N3ah  1 3.950000e-01    2.310000e+00
 TP5dh  N2ah  1 3.950000e-01    2.110000e+00
 TP5dh  N1ah  1 3.950000e-01    1.850000e+00
 TP4dh   P3h  1 3.950000e-01    3.430000e+00
 TP4dh   P2h  1 3.950000e-01    3.430000e+00
 TP4dh   P1h  1 3.950000e-01    3.190000e+00
 TP4dh   N6h  1 3.950000e-01    2.940000e+00
 TP4dh   N5h  1 3.950000e-01    2.700000e+00
 TP4dh   N4h  1 3.950000e-01    2.700000e+00
 TP4dh   N3h  1 3.950000e-01    2.500000e+00
 TP4dh   N2h  1 3.950000e-01    2.310000e+00
 TP4dh   N1h  1 3.950000e-01    2.110000e+00
 TP4dh  P3dh  1 3.950000e-01    3.190000e+00
 TP4dh  P2dh  1 3.950000e-01    3.190000e+00
 TP4dh  P1dh  1 3.950000e-01    2.940000e+00
 TP4dh  N6dh  1 3.950000e-01    2.700000e+00
 TP4dh  N5dh  1 3.950000e-01    2.500000e+00
 TP4dh  N4dh  1 3.950000e-01    2.500000e+00
 TP4dh  N3dh  1 3.950000e-01    2.310000e+00
 TP4dh  N2dh  1 3.950000e-01    2.310000e+00
 TP4dh  N1dh  1 3.950000e-01    2.110000e+00
 TP4dh  P4ah  1 3.950000e-01    3.910000e+00
 TP4dh  P3ah  1 3.950000e-01    3.670000e+00
 TP4dh  P2ah  1 3.950000e-01    3.670000e+00
 TP4dh  P1ah  1 3.950000e-01    3.430000e+00
 TP4dh  N6ah  1 3.950000e-01    3.190000e+00
 TP4dh  N5ah  1 3.950000e-01    2.940000e+00
 TP4dh  N4ah  1 3.950000e-01    2.940000e+00
 TP4dh  N3ah  1 3.950000e-01    2.700000e+00
 TP4dh  N2ah  1 3.950000e-01    2.310000e+00
 TP4dh  N1ah  1 3.950000e-01    2.110000e+00
 TP3dh   P2h  1 3.950000e-01    3.430000e+00
 TP3dh   P1h  1 3.950000e-01    3.190000e+00
 TP3dh   N6h  1 3.950000e-01    2.940000e+00
 TP3dh   N5h  1 3.950000e-01    2.700000e+00
 TP3dh   N4h  1 3.950000e-01    2.700000e+00
 TP3dh   N3h  1 3.950000e-01    2.500000e+00
 TP3dh   N2h  1 3.950000e-01    2.500000e+00
 TP3dh   N1h  1 3.950000e-01    2.310000e+00
 TP3dh  P2dh  1 3.950000e-01    3.190000e+00
 TP3dh  P1dh  1 3.950000e-01    2.940000e+00
 TP3dh  N6dh  1 3.950000e-01    2.700000e+00
 TP3dh  N5dh  1 3.950000e-01    2.500000e+00
 TP3dh  N4dh  1 3.950000e-01    2.500000e+00
 TP3dh  N3dh  1 3.950000e-01    2.310000e+00
 TP3dh  N2dh  1 3.950000e-01    2.310000e+00
 TP3dh  N1dh  1 3.950000e-01    2.310000e+00
 TP3dh  P3ah  1 3.950000e-01    3.670000e+00
 TP3dh  P2ah  1 3.950000e-01    3.670000e+00
 TP3dh  P1ah  1 3.950000e-01    3.430000e+00
 TP3dh  N6ah  1 3.950000e-01    3.190000e+00
 TP3dh  N5ah  1 3.950000e-01    2.940000e+00
 TP3dh  N4ah  1 3.950000e-01    2.940000e+00
 TP3dh  N3ah  1 3.950000e-01    2.700000e+00
 TP3dh  N2ah  1 3.950000e-01    2.700000e+00
 TP3dh  N1ah  1 3.950000e-01    2.310000e+00
 TP2dh   P1h  1 3.950000e-01    3.190000e+00
 TP2dh   N6h  1 3.950000e-01    3.190000e+00
 TP2dh   N5h  1 3.950000e-01    2.940000e+00
 TP2dh   N4h  1 3.950000e-01    2.700000e+00
 TP2dh   N3h  1 3.950000e-01    2.500000e+00
 TP2dh   N2h  1 3.950000e-01    2.500000e+00
 TP2dh   N1h  1 3.950000e-01    2.500000e+00
 TP2dh  P1dh  1 3.950000e-01    2.940000e+00
 TP2dh  N6dh  1 3.950000e-01    2.940000e+00
 TP2dh  N5dh  1 3.950000e-01    2.700000e+00
 TP2dh  N4dh  1 3.950000e-01    2.500000e+00
 TP2dh  N3dh  1 3.950000e-01    2.310000e+00
 TP2dh  N2dh  1 3.950000e-01    2.310000e+00
 TP2dh  N1dh  1 3.950000e-01    2.310000e+00
 TP2dh  P2ah  1 3.950000e-01    3.670000e+00
 TP2dh  P1ah  1 3.950000e-01    3.430000e+00
 TP2dh  N6ah  1 3.950000e-01    3.430000e+00
 TP2dh  N5ah  1 3.950000e-01    3.190000e+00
 TP2dh  N4ah  1 3.950000e-01    2.940000e+00
 TP2dh  N3ah  1 3.950000e-01    2.700000e+00
 TP2dh  N2ah  1 3.950000e-01    2.700000e+00
 TP2dh  N1ah  1 3.950000e-01    2.700000e+00
 TP1dh   N6h  1 3.950000e-01    3.190000e+00
 TP1dh   N5h  1 3.950000e-01    2.940000e+00
 TP1dh   N4h  1 3.950000e-01    2.940000e+00
 TP1dh   N3h  1 3.950000e-01    2.500000e+00
 TP1dh   N2h  1 3.950000e-01    2.500000e+00
 TP1dh   N1h  1 3.950000e-01    2.500000e+00
 TP1dh  N6dh  1 3.950000e-01    2.940000e+00
 TP1dh  N5dh  1 3.950000e-01    2.700000e+00
 TP1dh  N4dh  1 3.950000e-01    2.700000e+00
 TP1dh  N3dh  1 3.950000e-01    2.310000e+00
 TP1dh  N2dh  1 3.950000e-01    2.310000e+00
 TP1dh  N1dh  1 3.950000e-01    2.310000e+00
 TP1dh  P1ah  1 3.950000e-01    3.430000e+00
 TP1dh  N6ah  1 3.950000e-01    3.430000e+00
 TP1dh  N5ah  1 3.950000e-01    3.190000e+00
 TP1dh  N4ah  1 3.950000e-01    3.190000e+00
 TP1dh  N3ah  1 3.950000e-01    2.700000e+00
 TP1dh  N2ah  1 3.950000e-01    2.700000e+00
 TP1dh  N1ah  1 3.950000e-01    2.700000e+00
 TN6dh   N5h  1 3.950000e-01    3.190000e+00
 TN6dh   N4h  1 3.950000e-01    3.190000e+00
 TN6dh   N3h  1 3.950000e-01    2.700000e+00
 TN6dh   N2h  1 3.950000e-01    2.500000e+00
 TN6dh   N1h  1 3.950000e-01    2.500000e+00
 TN6dh  N5dh  1 3.950000e-01    2.940000e+00
 TN6dh  N4dh  1 3.950000e-01    2.940000e+00
 TN6dh  N3dh  1 3.950000e-01    2.500000e+00
 TN6dh  N2dh  1 3.950000e-01    2.310000e+00
 TN6dh  N1dh  1 3.950000e-01    2.310000e+00
 TN6dh  N6ah  1 3.950000e-01    3.430000e+00
 TN6dh  N5ah  1 3.950000e-01    3.430000e+00
 TN6dh  N4ah  1 3.950000e-01    3.430000e+00
 TN6dh  N3ah  1 3.950000e-01    2.940000e+00
 TN6dh  N2ah  1 3.950000e-01    2.700000e+00
 TN6dh  N1ah  1 3.950000e-01    2.700000e+00
 TN5dh   N4h  1 3.950000e-01    2.940000e+00
 TN5dh   N3h  1 3.950000e-01    2.700000e+00
 TN5dh   N2h  1 3.950000e-01    2.700000e+00
 TN5dh   N1h  1 3.950000e-01    2.500000e+00
 TN5dh  N4dh  1 3.950000e-01    2.700000e+00
 TN5dh  N3dh  1 3.950000e-01    2.500000e+00
 TN5dh  N2dh  1 3.950000e-01    2.500000e+00
 TN5dh  N1dh  1 3.950000e-01    2.310000e+00
 TN5dh  N5ah  1 3.950000e-01    3.190000e+00
 TN5dh  N4ah  1 3.950000e-01    3.190000e+00
 TN5dh  N3ah  1 3.950000e-01    2.940000e+00
 TN5dh  N2ah  1 3.950000e-01    2.940000e+00
 TN5dh  N1ah  1 3.950000e-01    2.700000e+00
 TN4dh   N3h  1 3.950000e-01    2.700000e+00
 TN4dh   N2h  1 3.950000e-01    2.700000e+00
 TN4dh   N1h  1 3.950000e-01    2.500000e+00
 TN4dh  N3dh  1 3.950000e-01    2.500000e+00
 TN4dh  N2dh  1 3.950000e-01    2.500000e+00
 TN4dh  N1dh  1 3.950000e-01    2.310000e+00
 TN4dh  N4ah  1 3.950000e-01    3.190000e+00
 TN4dh  N3ah  1 3.950000e-01    2.940000e+00
 TN4dh  N2ah  1 3.950000e-01    2.940000e+00
 TN4dh  N1ah  1 3.950000e-01    2.700000e+00
 TN3dh   N2h  1 3.950000e-01    2.700000e+00
 TN3dh   N1h  1 3.950000e-01    2.500000e+00
 TN3dh  N2dh  1 3.950000e-01    2.500000e+00
 TN3dh  N1dh  1 3.950000e-01    2.310000e+00
 TN3dh  N3ah  1 3.950000e-01    2.940000e+00
 TN3dh  N2ah  1 3.950000e-01    2.940000e+00
 TN3dh  N1ah  1 3.950000e-01    2.700000e+00
 TN2dh   N1h  1 3.950000e-01    2.500000e+00
 TN2dh  N1dh  1 3.950000e-01    2.310000e+00
 TN2dh  N2ah  1 3.950000e-01    2.940000e+00
 TN2dh  N1ah  1 3.950000e-01    2.700000e+00
 TN1dh  N1ah  1 3.950000e-01    2.940000e+00
 TP6ah   P5h  1 3.950000e-01    4.230000e+00
 TP6ah   P4h  1 3.950000e-01    3.910000e+00
 TP6ah   P3h  1 3.950000e-01    3.670000e+00
 TP6ah   P2h  1 3.950000e-01    3.670000e+00
 TP6ah   P1h  1 3.950000e-01    3.430000e+00
 TP6ah   N6h  1 3.950000e-01    3.190000e+00
 TP6ah   N5h  1 3.950000e-01    2.700000e+00
 TP6ah   N4h  1 3.950000e-01    2.500000e+00
 TP6ah   N3h  1 3.950000e-01    2.310000e+00
 TP6ah   N2h  1 3.950000e-01    2.110000e+00
 TP6ah   N1h  1 3.950000e-01    1.850000e+00
 TP6ah  P5dh  1 3.950000e-01    4.540000e+00
 TP6ah  P4dh  1 3.950000e-01    4.230000e+00
 TP6ah  P3dh  1 3.950000e-01    3.910000e+00
 TP6ah  P2dh  1 3.950000e-01    3.910000e+00
 TP6ah  P1dh  1 3.950000e-01    3.670000e+00
 TP6ah  N6dh  1 3.950000e-01    3.430000e+00
 TP6ah  N5dh  1 3.950000e-01    2.940000e+00
 TP6ah  N4dh  1 3.950000e-01    2.700000e+00
 TP6ah  N3dh  1 3.950000e-01    2.310000e+00
 TP6ah  N2dh  1 3.950000e-01    2.110000e+00
 TP6ah  N1dh  1 3.950000e-01    1.850000e+00
 TP6ah  P5ah  1 3.950000e-01    3.910000e+00
 TP6ah  P4ah  1 3.950000e-01    3.670000e+00
 TP6ah  P3ah  1 3.950000e-01    3.430000e+00
 TP6ah  P2ah  1 3.950000e-01    3.430000e+00
 TP6ah  P1ah  1 3.950000e-01    3.190000e+00
 TP6ah  N6ah  1 3.950000e-01    2.940000e+00
 TP6ah  N5ah  1 3.950000e-01    2.500000e+00
 TP6ah  N4ah  1 3.950000e-01    2.310000e+00
 TP6ah  N3ah  1 3.950000e-01    2.310000e+00
 TP6ah  N2ah  1 3.950000e-01    2.110000e+00
 TP6ah  N1ah  1 3.950000e-01    1.850000e+00
 TP5ah   P4h  1 3.950000e-01    3.670000e+00
 TP5ah   P3h  1 3.950000e-01    3.430000e+00
 TP5ah   P2h  1 3.950000e-01    3.430000e+00
 TP5ah   P1h  1 3.950000e-01    3.190000e+00
 TP5ah   N6h  1 3.950000e-01    2.940000e+00
 TP5ah   N5h  1 3.950000e-01    2.700000e+00
 TP5ah   N4h  1 3.950000e-01    2.700000e+00
 TP5ah   N3h  1 3.950000e-01    2.310000e+00
 TP5ah   N2h  1 3.950000e-01    2.110000e+00
 TP5ah   N1h  1 3.950000e-01    1.850000e+00
 TP5ah  P4dh  1 3.950000e-01    3.910000e+00
 TP5ah  P3dh  1 3.950000e-01    3.670000e+00
 TP5ah  P2dh  1 3.950000e-01    3.670000e+00
 TP5ah  P1dh  1 3.950000e-01    3.430000e+00
 TP5ah  N6dh  1 3.950000e-01    3.190000e+00
 TP5ah  N5dh  1 3.950000e-01    2.940000e+00
 TP5ah  N4dh  1 3.950000e-01    2.940000e+00
 TP5ah  N3dh  1 3.950000e-01    2.310000e+00
 TP5ah  N2dh  1 3.950000e-01    2.110000e+00
 TP5ah  N1dh  1 3.950000e-01    1.850000e+00
 TP5ah  P4ah  1 3.950000e-01    3.430000e+00
 TP5ah  P3ah  1 3.950000e-01    3.190000e+00
 TP5ah  P2ah  1 3.950000e-01    3.190000e+00
 TP5ah  P1ah  1 3.950000e-01    2.940000e+00
 TP5ah  N6ah  1 3.950000e-01    2.700000e+00
 TP5ah  N5ah  1 3.950000e-01    2.500000e+00
 TP5ah  N4ah  1 3.950000e-01    2.500000e+00
 TP5ah  N3ah  1 3.950000e-01    2.310000e+00
 TP5ah  N2ah  1 3.950000e-01    2.110000e+00
 TP5ah  N1ah  1 3.950000e-01    1.850000e+00
 TP4ah   P3h  1 3.950000e-01    3.430000e+00
 TP4ah   P2h  1 3.950000e-01    3.430000e+00
 TP4ah   P1h  1 3.950000e-01    3.190000e+00
 TP4ah   N6h  1 3.950000e-01    2.940000e+00
 TP4ah   N5h  1 3.950000e-01    2.700000e+00
 TP4ah   N4h  1 3.950000e-01    2.700000e+00
 TP4ah   N3h  1 3.950000e-01    2.500000e+00
 TP4ah   N2h  1 3.950000e-01    2.310000e+00
 TP4ah   N1h  1 3.950000e-01    2.110000e+00
 TP4ah  P3dh  1 3.950000e-01    3.670000e+00
 TP4ah  P2dh  1 3.950000e-01    3.670000e+00
 TP4ah  P1dh  1 3.950000e-01    3.430000e+00
 TP4ah  N6dh  1 3.950000e-01    3.190000e+00
 TP4ah  N5dh  1 3.950000e-01    2.940000e+00
 TP4ah  N4dh  1 3.950000e-01    2.940000e+00
 TP4ah  N3dh  1 3.950000e-01    2.700000e+00
 TP4ah  N2dh  1 3.950000e-01    2.310000e+00
 TP4ah  N1dh  1 3.950000e-01    2.110000e+00
 TP4ah  P3ah  1 3.950000e-01    3.190000e+00
 TP4ah  P2ah  1 3.950000e-01    3.190000e+00
 TP4ah  P1ah  1 3.950000e-01    2.940000e+00
 TP4ah  N6ah  1 3.950000e-01    2.700000e+00
 TP4ah  N5ah  1 3.950000e-01    2.500000e+00
 TP4ah  N4ah  1 3.950000e-01    2.500000e+00
 TP4ah  N3ah  1 3.950000e-01    2.310000e+00
 TP4ah  N2ah  1 3.950000e-01    2.310000e+00
 TP4ah  N1ah  1 3.950000e-01    2.110000e+00
 TP3ah   P2h  1 3.950000e-01    3.430000e+00
 TP3ah   P1h  1 3.950000e-01    3.190000e+00
 TP3ah   N6h  1 3.950000e-01    2.940000e+00
 TP3ah   N5h  1 3.950000e-01    2.700000e+00
 TP3ah   N4h  1 3.950000e-01    2.700000e+00
 TP3ah   N3h  1 3.950000e-01    2.500000e+00
 TP3ah   N2h  1 3.950000e-01    2.500000e+00
 TP3ah   N1h  1 3.950000e-01    2.310000e+00
 TP3ah  P2dh  1 3.950000e-01    3.670000e+00
 TP3ah  P1dh  1 3.950000e-01    3.430000e+00
 TP3ah  N6dh  1 3.950000e-01    3.190000e+00
 TP3ah  N5dh  1 3.950000e-01    2.940000e+00
 TP3ah  N4dh  1 3.950000e-01    2.940000e+00
 TP3ah  N3dh  1 3.950000e-01    2.700000e+00
 TP3ah  N2dh  1 3.950000e-01    2.700000e+00
 TP3ah  N1dh  1 3.950000e-01    2.310000e+00
 TP3ah  P2ah  1 3.950000e-01    3.190000e+00
 TP3ah  P1ah  1 3.950000e-01    2.940000e+00
 TP3ah  N6ah  1 3.950000e-01    2.700000e+00
 TP3ah  N5ah  1 3.950000e-01    2.500000e+00
 TP3ah  N4ah  1 3.950000e-01    2.500000e+00
 TP3ah  N3ah  1 3.950000e-01    2.310000e+00
 TP3ah  N2ah  1 3.950000e-01    2.310000e+00
 TP3ah  N1ah  1 3.950000e-01    2.310000e+00
 TP2ah   P1h  1 3.950000e-01    3.190000e+00
 TP2ah   N6h  1 3.950000e-01    3.190000e+00
 TP2ah   N5h  1 3.950000e-01    2.940000e+00
 TP2ah   N4h  1 3.950000e-01    2.700000e+00
 TP2ah   N3h  1 3.950000e-01    2.500000e+00
 TP2ah   N2h  1 3.950000e-01    2.500000e+00
 TP2ah   N1h  1 3.950000e-01    2.500000e+00
 TP2ah  P1dh  1 3.950000e-01    3.430000e+00
 TP2ah  N6dh  1 3.950000e-01    3.430000e+00
 TP2ah  N5dh  1 3.950000e-01    3.190000e+00
 TP2ah  N4dh  1 3.950000e-01    2.940000e+00
 TP2ah  N3dh  1 3.950000e-01    2.700000e+00
 TP2ah  N2dh  1 3.950000e-01    2.700000e+00
 TP2ah  N1dh  1 3.950000e-01    2.700000e+00
 TP2ah  P1ah  1 3.950000e-01    2.940000e+00
 TP2ah  N6ah  1 3.950000e-01    2.940000e+00
 TP2ah  N5ah  1 3.950000e-01    2.700000e+00
 TP2ah  N4ah  1 3.950000e-01    2.500000e+00
 TP2ah  N3ah  1 3.950000e-01    2.310000e+00
 TP2ah  N2ah  1 3.950000e-01    2.310000e+00
 TP2ah  N1ah  1 3.950000e-01    2.310000e+00
 TP1ah   N6h  1 3.950000e-01    3.190000e+00
 TP1ah   N5h  1 3.950000e-01    2.940000e+00
 TP1ah   N4h  1 3.950000e-01    2.940000e+00
 TP1ah   N3h  1 3.950000e-01    2.500000e+00
 TP1ah   N2h  1 3.950000e-01    2.500000e+00
 TP1ah   N1h  1 3.950000e-01    2.500000e+00
 TP1ah  N6dh  1 3.950000e-01    3.430000e+00
 TP1ah  N5dh  1 3.950000e-01    3.190000e+00
 TP1ah  N4dh  1 3.950000e-01    3.190000e+00
 TP1ah  N3dh  1 3.950000e-01    2.700000e+00
 TP1ah  N2dh  1 3.950000e-01    2.700000e+00
 TP1ah  N1dh  1 3.950000e-01    2.700000e+00
 TP1ah  N6ah  1 3.950000e-01    2.940000e+00
 TP1ah  N5ah  1 3.950000e-01    2.700000e+00
 TP1ah  N4ah  1 3.950000e-01    2.700000e+00
 TP1ah  N3ah  1 3.950000e-01    2.310000e+00
 TP1ah  N2ah  1 3.950000e-01    2.310000e+00
 TP1ah  N1ah  1 3.950000e-01    2.310000e+00
 TN6ah   N5h  1 3.950000e-01    3.190000e+00
 TN6ah   N4h  1 3.950000e-01    3.190000e+00
 TN6ah   N3h  1 3.950000e-01    2.700000e+00
 TN6ah   N2h  1 3.950000e-01    2.500000e+00
 TN6ah   N1h  1 3.950000e-01    2.500000e+00
 TN6ah  N5dh  1 3.950000e-01    3.430000e+00
 TN6ah  N4dh  1 3.950000e-01    3.430000e+00
 TN6ah  N3dh  1 3.950000e-01    2.940000e+00
 TN6ah  N2dh  1 3.950000e-01    2.700000e+00
 TN6ah  N1dh  1 3.950000e-01    2.700000e+00
 TN6ah  N5ah  1 3.950000e-01    2.940000e+00
 TN6ah  N4ah  1 3.950000e-01    2.940000e+00
 TN6ah  N3ah  1 3.950000e-01    2.500000e+00
 TN6ah  N2ah  1 3.950000e-01    2.310000e+00
 TN6ah  N1ah  1 3.950000e-01    2.310000e+00
 TN5ah   N4h  1 3.950000e-01    2.940000e+00
 TN5ah   N3h  1 3.950000e-01    2.700000e+00
 TN5ah   N2h  1 3.950000e-01    2.700000e+00
 TN5ah   N1h  1 3.950000e-01    2.500000e+00
 TN5ah  N4dh  1 3.950000e-01    3.190000e+00
 TN5ah  N3dh  1 3.950000e-01    2.940000e+00
 TN5ah  N2dh  1 3.950000e-01    2.940000e+00
 TN5ah  N1dh  1 3.950000e-01    2.700000e+00
 TN5ah  N4ah  1 3.950000e-01    2.700000e+00
 TN5ah  N3ah  1 3.950000e-01    2.500000e+00
 TN5ah  N2ah  1 3.950000e-01    2.500000e+00
 TN5ah  N1ah  1 3.950000e-01    2.310000e+00
 TN4ah   N3h  1 3.950000e-01    2.700000e+00
 TN4ah   N2h  1 3.950000e-01    2.700000e+00
 TN4ah   N1h  1 3.950000e-01    2.500000e+00
 TN4ah  N3dh  1 3.950000e-01    2.940000e+00
 TN4ah  N2dh  1 3.950000e-01    2.940000e+00
 TN4ah  N1dh  1 3.950000e-01    2.700000e+00
 TN4ah  N3ah  1 3.950000e-01    2.500000e+00
 TN4ah  N2ah  1 3.950000e-01    2.500000e+00
 TN4ah  N1ah  1 3.950000e-01    2.310000e+00
 TN3ah   N2h  1 3.950000e-01    2.700000e+00
 TN3ah   N1h  1 3.950000e-01    2.500000e+00
 TN3ah  N2dh  1 3.950000e-01    2.940000e+00
 TN3ah  N1dh  1 3.950000e-01    2.700000e+00
 TN3ah  N2ah  1 3.950000e-01    2.500000e+00
 TN3ah  N1ah  1 3.950000e-01    2.310000e+00
 TN2ah   N1h  1 3.950000e-01    2.500000e+00
 TN2ah  N1dh  1 3.950000e-01    2.700000e+00
 TN2ah  N1ah  1 3.950000e-01    2.310000e+00
  TC6h   C5h  1 3.950000e-01    2.500000e+00
  TC6h   C4h  1 3.950000e-01    2.500000e+00
  TC6h   C3h  1 3.950000e-01    2.310000e+00
  TC6h   C2h  1 3.950000e-01    2.110000e+00
  TC6h   C1h  1 3.950000e-01    1.850000e+00
  TC6h   X4h  1 3.950000e-01    2.500000e+00
  TC6h   X3h  1 3.950000e-01    2.500000e+00
  TC6h   X2h  1 3.950000e-01    2.500000e+00
  TC6h   X1h  1 3.950000e-01    2.500000e+00
  TC6h  C6vh  1 3.950000e-01    2.940000e+00
  TC6h  C5vh  1 3.950000e-01    2.700000e+00
  TC6h  C4vh  1 3.950000e-01    2.700000e+00
  TC6h  C3vh  1 3.950000e-01    2.500000e+00
  TC6h  C2vh  1 3.950000e-01    2.310000e+00
  TC6h  C1vh  1 3.950000e-01    2.110000e+00
  TC6h  X4vh  1 3.950000e-01    2.700000e+00
  TC6h  X3vh  1 3.950000e-01    2.700000e+00
  TC6h  X2vh  1 3.950000e-01    2.700000e+00
  TC6h  X1vh  1 3.950000e-01    2.700000e+00
  TC6h  C6eh  1 3.950000e-01    2.940000e+00
  TC6h  C5eh  1 3.950000e-01    2.700000e+00
  TC6h  C4eh  1 3.950000e-01    2.700000e+00
  TC6h  C3eh  1 3.950000e-01    2.500000e+00
  TC6h  C2eh  1 3.950000e-01    2.310000e+00
  TC6h  C1eh  1 3.950000e-01    2.110000e+00
  TC6h  X4eh  1 3.950000e-01    2.700000e+00
  TC6h  X3eh  1 3.950000e-01    2.700000e+00
  TC6h  X2eh  1 3.950000e-01    2.700000e+00
  TC6h  X1eh  1 3.950000e-01    2.700000e+00
  TC5h   C4h  1 3.950000e-01    2.500000e+00
  TC5h   C3h  1 3.950000e-01    2.310000e+00
  TC5h   C2h  1 3.950000e-01    2.110000e+00
  TC5h   C1h  1 3.950000e-01    2.110000e+00
  TC5h   X4h  1 3.950000e-01    2.310000e+00
  TC5h   X3h  1 3.950000e-01    2.310000e+00
  TC5h   X2h  1 3.950000e-01    2.310000e+00
  TC5h   X1h  1 3.950000e-01    2.500000e+00
  TC5h  C5vh  1 3.950000e-01    2.700000e+00
  TC5h  C4vh  1 3.950000e-01    2.700000e+00
  TC5h  C3vh  1 3.950000e-01    2.500000e+00
  TC5h  C2vh  1 3.950000e-01    2.310000e+00
  TC5h  C1vh  1 3.950000e-01    2.310000e+00
  TC5h  X4vh  1 3.950000e-01    2.500000e+00
  TC5h  X3vh  1 3.950000e-01    2.500000e+00
  TC5h  X2vh  1 3.950000e-01    2.500000e+00
  TC5h  X1vh  1 3.950000e-01    2.700000e+00
  TC5h  C5eh  1 3.950000e-01    2.700000e+00
  TC5h  C4eh  1 3.950000e-01    2.700000e+00
  TC5h  C3eh  1 3.950000e-01    2.500000e+00
  TC5h  C2eh  1 3.950000e-01    2.310000e+00
  TC5h  C1eh  1 3.950000e-01    2.310000e+00
  TC5h  X4eh  1 3.950000e-01    2.500000e+00
  TC5h  X3eh  1 3.950000e-01    2.500000e+00
  TC5h  X2eh  1 3.950000e-01    2.500000e+00
  TC5h  X1eh  1 3.950000e-01    2.700000e+00
  TC4h   C3h  1 3.950000e-01    2.500000e+00
  TC4h   C2h  1 3.950000e-01    2.310000e+00
  TC4h   C1h  1 3.950000e-01    2.110000e+00
  TC4h   X4h  1 3.950000e-01    2.310000e+00
  TC4h   X3h  1 3.950000e-01    2.310000e+00
  TC4h   X2h  1 3.950000e-01    2.310000e+00
  TC4h   X1h  1 3.950000e-01    2.500000e+00
  TC4h  C4vh  1 3.950000e-01    2.700000e+00
  TC4h  C3vh  1 3.950000e-01    2.700000e+00
  TC4h  C2vh  1 3.950000e-01    2.500000e+00
  TC4h  C1vh  1 3.950000e-01    2.310000e+00
  TC4h  X4vh  1 3.950000e-01    2.500000e+00
  TC4h  X3vh  1 3.950000e-01    2.500000e+00
  TC4h  X2vh  1 3.950000e-01    2.500000e+00
  TC4h  X1vh  1 3.950000e-01    2.700000e+00
  TC4h  C4eh  1 3.950000e-01    2.700000e+00
  TC4h  C3eh  1 3.950000e-01    2.700000e+00
  TC4h  C2eh  1 3.950000e-01    2.500000e+00
  TC4h  C1eh  1 3.950000e-01    2.310000e+00
  TC4h  X4eh  1 3.950000e-01    2.500000e+00
  TC4h  X3eh  1 3.950000e-01    2.500000e+00
  TC4h  X2eh  1 3.950000e-01    2.500000e+00
  TC4h  X1eh  1 3.950000e-01    2.700000e+00
  TC3h   C2h  1 3.950000e-01    2.500000e+00
  TC3h   C1h  1 3.950000e-01    2.500000e+00
  TC3h   X4h  1 3.950000e-01    2.310000e+00
  TC3h   X3h  1 3.950000e-01    2.310000e+00
  TC3h   X2h  1 3.950000e-01    2.310000e+00
  TC3h   X1h  1 3.950000e-01    2.500000e+00
  TC3h  C3vh  1 3.950000e-01    2.700000e+00
  TC3h  C2vh  1 3.950000e-01    2.700000e+00
  TC3h  C1vh  1 3.950000e-01    2.700000e+00
  TC3h  X4vh  1 3.950000e-01    2.500000e+00
  TC3h  X3vh  1 3.950000e-01    2.500000e+00
  TC3h  X2vh  1 3.950000e-01    2.500000e+00
  TC3h  X1vh  1 3.950000e-01    2.700000e+00
  TC3h  C3eh  1 3.950000e-01    2.700000e+00
  TC3h  C2eh  1 3.950000e-01    2.700000e+00
  TC3h  C1eh  1 3.950000e-01    2.700000e+00
  TC3h  X4eh  1 3.950000e-01    2.500000e+00
  TC3h  X3eh  1 3.950000e-01    2.500000e+00
  TC3h  X2eh  1 3.950000e-01    2.500000e+00
  TC3h  X1eh  1 3.950000e-01    2.700000e+00
  TC2h   C1h  1 3.950000e-01    2.700000e+00
  TC2h   X4h  1 3.950000e-01    1.850000e+00
  TC2h   X3h  1 3.950000e-01    2.310000e+00
  TC2h   X2h  1 3.950000e-01    2.310000e+00
  TC2h   X1h  1 3.950000e-01    2.310000e+00
  TC2h  C2vh  1 3.950000e-01    2.700000e+00
  TC2h  C1vh  1 3.950000e-01    2.940000e+00
  TC2h  X4vh  1 3.950000e-01    2.110000e+00
  TC2h  X3vh  1 3.950000e-01    2.500000e+00
  TC2h  X2vh  1 3.950000e-01    2.500000e+00
  TC2h  X1vh  1 3.950000e-01    2.500000e+00
  TC2h  C2eh  1 3.950000e-01    2.700000e+00
  TC2h  C1eh  1 3.950000e-01    2.940000e+00
  TC2h  X4eh  1 3.950000e-01    2.110000e+00
  TC2h  X3eh  1 3.950000e-01    2.500000e+00
  TC2h  X2eh  1 3.950000e-01    2.500000e+00
  TC2h  X1eh  1 3.950000e-01    2.500000e+00
  TC1h   X4h  1 3.950000e-01    1.850000e+00
  TC1h   X3h  1 3.950000e-01    2.310000e+00
  TC1h   X2h  1 3.950000e-01    2.310000e+00
  TC1h   X1h  1 3.950000e-01    2.310000e+00
  TC1h  C1vh  1 3.950000e-01    2.700000e+00
  TC1h  X4vh  1 3.950000e-01    2.110000e+00
  TC1h  X3vh  1 3.950000e-01    2.500000e+00
  TC1h  X2vh  1 3.950000e-01    2.500000e+00
  TC1h  X1vh  1 3.950000e-01    2.500000e+00
  TC1h  C1eh  1 3.950000e-01    2.700000e+00
  TC1h  X4eh  1 3.950000e-01    2.110000e+00
  TC1h  X3eh  1 3.950000e-01    2.500000e+00
  TC1h  X2eh  1 3.950000e-01    2.500000e+00
  TC1h  X1eh  1 3.950000e-01    2.500000e+00
  TX4h   X3h  1 3.950000e-01    2.500000e+00
  TX4h   X2h  1 3.950000e-01    2.500000e+00
  TX4h   X1h  1 3.950000e-01    2.500000e+00
  TX4h  X4vh  1 3.950000e-01    2.700000e+00
  TX4h  X3vh  1 3.950000e-01    2.700000e+00
  TX4h  X2vh  1 3.950000e-01    2.700000e+00
  TX4h  X1vh  1 3.950000e-01    2.700000e+00
  TX4h  X4eh  1 3.950000e-01    2.700000e+00
  TX4h  X3eh  1 3.950000e-01    2.700000e+00
  TX4h  X2eh  1 3.950000e-01    2.700000e+00
  TX4h  X1eh  1 3.950000e-01    2.700000e+00
  TX3h   X2h  1 3.950000e-01    2.700000e+00
  TX3h   X1h  1 3.950000e-01    2.700000e+00
  TX3h  X3vh  1 3.950000e-01    2.700000e+00
  TX3h  X2vh  1 3.950000e-01    2.940000e+00
  TX3h  X1vh  1 3.950000e-01    2.940000e+00
  TX3h  X3eh  1 3.950000e-01    2.700000e+00
  TX3h  X2eh  1 3.950000e-01    2.940000e+00
  TX3h  X1eh  1 3.950000e-01    2.940000e+00
  TX2h   X1h  1 3.950000e-01    2.700000e+00
  TX2h  X2vh  1 3.950000e-01    2.940000e+00
  TX2h  X1vh  1 3.950000e-01    2.940000e+00
  TX2h  X2eh  1 3.950000e-01    2.940000e+00
  TX2h  X1eh  1 3.950000e-01    2.940000e+00
  TX1h  X1vh  1 3.950000e-01    3.190000e+00
  TX1h  X1eh  1 3.950000e-01    3.190000e+00
 TC6vh   C5h  1 3.950000e-01    2.700000e+00
 TC6vh   C4h  1 3.950000e-01    2.700000e+00
 TC6vh   C3h  1 3.950000e-01    2.500000e+00
 TC6vh   C2h  1 3.950000e-01    2.310000e+00
 TC6vh   C1h  1 3.950000e-01    2.110000e+00
 TC6vh   X4h  1 3.950000e-01    2.700000e+00
 TC6vh   X3h  1 3.950000e-01    2.700000e+00
 TC6vh   X2h  1 3.950000e-01    2.700000e+00
 TC6vh   X1h  1 3.950000e-01    2.700000e+00
 TC6vh  C5vh  1 3.950000e-01    2.310000e+00
 TC6vh  C4vh  1 3.950000e-01    2.310000e+00
 TC6vh  C3vh  1 3.950000e-01    2.110000e+00
 TC6vh  C2vh  1 3.950000e-01    1.850000e+00
 TC6vh  C1vh  1 3.950000e-01    1.670000e+00
 TC6vh  X4vh  1 3.950000e-01    2.310000e+00
 TC6vh  X3vh  1 3.950000e-01    2.310000e+00
 TC6vh  X2vh  1 3.950000e-01    2.310000e+00
 TC6vh  X1vh  1 3.950000e-01    2.310000e+00
 TC6vh  C6eh  1 3.950000e-01    3.190000e+00
 TC6vh  C5eh  1 3.950000e-01    2.940000e+00
 TC6vh  C4eh  1 3.950000e-01    2.940000e+00
 TC6vh  C3eh  1 3.950000e-01    2.700000e+00
 TC6vh  C2eh  1 3.950000e-01    2.500000e+00
 TC6vh  C1eh  1 3.950000e-01    2.310000e+00
 TC6vh  X4eh  1 3.950000e-01    2.940000e+00
 TC6vh  X3eh  1 3.950000e-01    2.940000e+00
 TC6vh  X2eh  1 3.950000e-01    2.940000e+00
 TC6vh  X1eh  1 3.950000e-01    2.940000e+00
 TC5vh   C4h  1 3.950000e-01    2.700000e+00
 TC5vh   C3h  1 3.950000e-01    2.500000e+00
 TC5vh   C2h  1 3.950000e-01    2.310000e+00
 TC5vh   C1h  1 3.950000e-01    2.310000e+00
 TC5vh   X4h  1 3.950000e-01    2.500000e+00
 TC5vh   X3h  1 3.950000e-01    2.500000e+00
 TC5vh   X2h  1 3.950000e-01    2.500000e+00
 TC5vh   X1h  1 3.950000e-01    2.700000e+00
 TC5vh  C4vh  1 3.950000e-01    2.310000e+00
 TC5vh  C3vh  1 3.950000e-01    2.110000e+00
 TC5vh  C2vh  1 3.950000e-01    1.850000e+00
 TC5vh  C1vh  1 3.950000e-01    1.850000e+00
 TC5vh  X4vh  1 3.950000e-01    2.110000e+00
 TC5vh  X3vh  1 3.950000e-01    2.110000e+00
 TC5vh  X2vh  1 3.950000e-01    2.110000e+00
 TC5vh  X1vh  1 3.950000e-01    2.310000e+00
 TC5vh  C5eh  1 3.950000e-01    2.940000e+00
 TC5vh  C4eh  1 3.950000e-01    2.940000e+00
 TC5vh  C3eh  1 3.950000e-01    2.700000e+00
 TC5vh  C2eh  1 3.950000e-01    2.500000e+00
 TC5vh  C1eh  1 3.950000e-01    2.500000e+00
 TC5vh  X4eh  1 3.950000e-01    2.700000e+00
 TC5vh  X3eh  1 3.950000e-01    2.700000e+00
 TC5vh  X2eh  1 3.950000e-01    2.700000e+00
 TC5vh  X1eh  1 3.950000e-01    2.940000e+00
 TC4vh   C3h  1 3.950000e-01    2.700000e+00
 TC4vh   C2h  1 3.950000e-01    2.500000e+00
 TC4vh   C1h  1 3.950000e-01    2.310000e+00
 TC4vh   X4h  1 3.950000e-01    2.500000e+00
 TC4vh   X3h  1 3.950000e-01    2.500000e+00
 TC4vh   X2h  1 3.950000e-01    2.500000e+00
 TC4vh   X1h  1 3.950000e-01    2.700000e+00
 TC4vh  C3vh  1 3.950000e-01    2.310000e+00
 TC4vh  C2vh  1 3.950000e-01    2.110000e+00
 TC4vh  C1vh  1 3.950000e-01    1.850000e+00
 TC4vh  X4vh  1 3.950000e-01    2.110000e+00
 TC4vh  X3vh  1 3.950000e-01    2.110000e+00
 TC4vh  X2vh  1 3.950000e-01    2.110000e+00
 TC4vh  X1vh  1 3.950000e-01    2.310000e+00
 TC4vh  C4eh  1 3.950000e-01    2.940000e+00
 TC4vh  C3eh  1 3.950000e-01    2.940000e+00
 TC4vh  C2eh  1 3.950000e-01    2.700000e+00
 TC4vh  C1eh  1 3.950000e-01    2.500000e+00
 TC4vh  X4eh  1 3.950000e-01    2.700000e+00
 TC4vh  X3eh  1 3.950000e-01    2.700000e+00
 TC4vh  X2eh  1 3.950000e-01    2.700000e+00
 TC4vh  X1eh  1 3.950000e-01    2.940000e+00
 TC3vh   C2h  1 3.950000e-01    2.700000e+00
 TC3vh   C1h  1 3.950000e-01    2.700000e+00
 TC3vh   X4h  1 3.950000e-01    2.500000e+00
 TC3vh   X3h  1 3.950000e-01    2.500000e+00
 TC3vh   X2h  1 3.950000e-01    2.500000e+00
 TC3vh   X1h  1 3.950000e-01    2.700000e+00
 TC3vh  C2vh  1 3.950000e-01    2.310000e+00
 TC3vh  C1vh  1 3.950000e-01    2.310000e+00
 TC3vh  X4vh  1 3.950000e-01    2.110000e+00
 TC3vh  X3vh  1 3.950000e-01    2.110000e+00
 TC3vh  X2vh  1 3.950000e-01    2.110000e+00
 TC3vh  X1vh  1 3.950000e-01    2.310000e+00
 TC3vh  C3eh  1 3.950000e-01    2.940000e+00
 TC3vh  C2eh  1 3.950000e-01    2.940000e+00
 TC3vh  C1eh  1 3.950000e-01    2.940000e+00
 TC3vh  X4eh  1 3.950000e-01    2.700000e+00
 TC3vh  X3eh  1 3.950000e-01    2.700000e+00
 TC3vh  X2eh  1 3.950000e-01    2.700000e+00
 TC3vh  X1eh  1 3.950000e-01    2.940000e+00
 TC2vh   C1h  1 3.950000e-01    2.940000e+00
 TC2vh   X4h  1 3.950000e-01    2.110000e+00
 TC2vh   X3h  1 3.950000e-01    2.500000e+00
 TC2vh   X2h  1 3.950000e-01    2.500000e+00
 TC2vh   X1h  1 3.950000e-01    2.500000e+00
 TC2vh  C1vh  1 3.950000e-01    2.500000e+00
 TC2vh  X4vh  1 3.950000e-01    1.670000e+00
 TC2vh  X3vh  1 3.950000e-01    2.110000e+00
 TC2vh  X2vh  1 3.950000e-01    2.110000e+00
 TC2vh  X1vh  1 3.950000e-01    2.110000e+00
 TC2vh  C2eh  1 3.950000e-01    2.940000e+00
 TC2vh  C1eh  1 3.950000e-01    3.190000e+00
 TC2vh  X4eh  1 3.950000e-01    2.310000e+00
 TC2vh  X3eh  1 3.950000e-01    2.700000e+00
 TC2vh  X2eh  1 3.950000e-01    2.700000e+00
 TC2vh  X1eh  1 3.950000e-01    2.700000e+00
 TC1vh   X4h  1 3.950000e-01    2.110000e+00
 TC1vh   X3h  1 3.950000e-01    2.500000e+00
 TC1vh   X2h  1 3.950000e-01    2.500000e+00
 TC1vh   X1h  1 3.950000e-01    2.500000e+00
 TC1vh  X4vh  1 3.950000e-01    1.670000e+00
 TC1vh  X3vh  1 3.950000e-01    2.110000e+00
 TC1vh  X2vh  1 3.950000e-01    2.110000e+00
 TC1vh  X1vh  1 3.950000e-01    2.110000e+00
 TC1vh  C1eh  1 3.950000e-01    2.940000e+00
 TC1vh  X4eh  1 3.950000e-01    2.310000e+00
 TC1vh  X3eh  1 3.950000e-01    2.700000e+00
 TC1vh  X2eh  1 3.950000e-01    2.700000e+00
 TC1vh  X1eh  1 3.950000e-01    2.700000e+00
 TX4vh   X3h  1 3.950000e-01    2.700000e+00
 TX4vh   X2h  1 3.950000e-01    2.700000e+00
 TX4vh   X1h  1 3.950000e-01    2.700000e+00
 TX4vh  X3vh  1 3.950000e-01    2.310000e+00
 TX4vh  X2vh  1 3.950000e-01    2.310000e+00
 TX4vh  X1vh  1 3.950000e-01    2.310000e+00
 TX4vh  X4eh  1 3.950000e-01    2.940000e+00
 TX4vh  X3eh  1 3.950000e-01    2.940000e+00
 TX4vh  X2eh  1 3.950000e-01    2.940000e+00
 TX4vh  X1eh  1 3.950000e-01    2.940000e+00
 TX3vh   X2h  1 3.950000e-01    2.940000e+00
 TX3vh   X1h  1 3.950000e-01    2.940000e+00
 TX3vh  X2vh  1 3.950000e-01    2.500000e+00
 TX3vh  X1vh  1 3.950000e-01    2.500000e+00
 TX3vh  X3eh  1 3.950000e-01    2.940000e+00
 TX3vh  X2eh  1 3.950000e-01    3.190000e+00
 TX3vh  X1eh  1 3.950000e-01    3.190000e+00
 TX2vh   X1h  1 3.950000e-01    2.940000e+00
 TX2vh  X1vh  1 3.950000e-01    2.500000e+00
 TX2vh  X2eh  1 3.950000e-01    3.190000e+00
 TX2vh  X1eh  1 3.950000e-01    3.190000e+00
 TX1vh  X1eh  1 3.950000e-01    3.430000e+00
 TC6eh   C5h  1 3.950000e-01    2.700000e+00
 TC6eh   C4h  1 3.950000e-01    2.700000e+00
 TC6eh   C3h  1 3.950000e-01    2.500000e+00
 TC6eh   C2h  1 3.950000e-01    2.310000e+00
 TC6eh   C1h  1 3.950000e-01    2.110000e+00
 TC6eh   X4h  1 3.950000e-01    2.700000e+00
 TC6eh   X3h  1 3.950000e-01    2.700000e+00
 TC6eh   X2h  1 3.950000e-01    2.700000e+00
 TC6eh   X1h  1 3.950000e-01    2.700000e+00
 TC6eh  C5vh  1 3.950000e-01    2.940000e+00
 TC6eh  C4vh  1 3.950000e-01    2.940000e+00
 TC6eh  C3vh  1 3.950000e-01    2.700000e+00
 TC6eh  C2vh  1 3.950000e-01    2.500000e+00
 TC6eh  C1vh  1 3.950000e-01    2.310000e+00
 TC6eh  X4vh  1 3.950000e-01    2.940000e+00
 TC6eh  X3vh  1 3.950000e-01    2.940000e+00
 TC6eh  X2vh  1 3.950000e-01    2.940000e+00
 TC6eh  X1vh  1 3.950000e-01    2.940000e+00
 TC6eh  C5eh  1 3.950000e-01    2.310000e+00
 TC6eh  C4eh  1 3.950000e-01    2.310000e+00
 TC6eh  C3eh  1 3.950000e-01    2.110000e+00
 TC6eh  C2eh  1 3.950000e-01    1.850000e+00
 TC6eh  C1eh  1 3.950000e-01    1.670000e+00
 TC6eh  X4eh  1 3.950000e-01    2.310000e+00
 TC6eh  X3eh  1 3.950000e-01    2.310000e+00
 TC6eh  X2eh  1 3.950000e-01    2.310000e+00
 TC6eh  X1eh  1 3.950000e-01    2.310000e+00
 TC5eh   C4h  1 3.950000e-01    2.700000e+00
 TC5eh   C3h  1 3.950000e-01    2.500000e+00
 TC5eh   C2h  1 3.950000e-01    2.310000e+00
 TC5eh   C1h  1 3.950000e-01    2.310000e+00
 TC5eh   X4h  1 3.950000e-01    2.500000e+00
 TC5eh   X3h  1 3.950000e-01    2.500000e+00
 TC5eh   X2h  1 3.950000e-01    2.500000e+00
 TC5eh   X1h  1 3.950000e-01    2.700000e+00
 TC5eh  C4vh  1 3.950000e-01    2.940000e+00
 TC5eh  C3vh  1 3.950000e-01    2.700000e+00
 TC5eh  C2vh  1 3.950000e-01    2.500000e+00
 TC5eh  C1vh  1 3.950000e-01    2.500000e+00
 TC5eh  X4vh  1 3.950000e-01    2.700000e+00
 TC5eh  X3vh  1 3.950000e-01    2.700000e+00
 TC5eh  X2vh  1 3.950000e-01    2.700000e+00
 TC5eh  X1vh  1 3.950000e-01    2.940000e+00
 TC5eh  C4eh  1 3.950000e-01    2.310000e+00
 TC5eh  C3eh  1 3.950000e-01    2.110000e+00
 TC5eh  C2eh  1 3.950000e-01    1.850000e+00
 TC5eh  C1eh  1 3.950000e-01    1.850000e+00
 TC5eh  X4eh  1 3.950000e-01    2.110000e+00
 TC5eh  X3eh  1 3.950000e-01    2.110000e+00
 TC5eh  X2eh  1 3.950000e-01    2.110000e+00
 TC5eh  X1eh  1 3.950000e-01    2.310000e+00
 TC4eh   C3h  1 3.950000e-01    2.700000e+00
 TC4eh   C2h  1 3.950000e-01    2.500000e+00
 TC4eh   C1h  1 3.950000e-01    2.310000e+00
 TC4eh   X4h  1 3.950000e-01    2.500000e+00
 TC4eh   X3h  1 3.950000e-01    2.500000e+00
 TC4eh   X2h  1 3.950000e-01    2.500000e+00
 TC4eh   X1h  1 3.950000e-01    2.700000e+00
 TC4eh  C3vh  1 3.950000e-01    2.940000e+00
 TC4eh  C2vh  1 3.950000e-01    2.700000e+00
 TC4eh  C1vh  1 3.950000e-01    2.500000e+00
 TC4eh  X4vh  1 3.950000e-01    2.700000e+00
 TC4eh  X3vh  1 3.950000e-01    2.700000e+00
 TC4eh  X2vh  1 3.950000e-01    2.700000e+00
 TC4eh  X1vh  1 3.950000e-01    2.940000e+00
 TC4eh  C3eh  1 3.950000e-01    2.310000e+00
 TC4eh  C2eh  1 3.950000e-01    2.110000e+00
 TC4eh  C1eh  1 3.950000e-01    1.850000e+00
 TC4eh  X4eh  1 3.950000e-01    2.110000e+00
 TC4eh  X3eh  1 3.950000e-01    2.110000e+00
 TC4eh  X2eh  1 3.950000e-01    2.110000e+00
 TC4eh  X1eh  1 3.950000e-01    2.310000e+00
 TC3eh   C2h  1 3.950000e-01    2.700000e+00
 TC3eh   C1h  1 3.950000e-01    2.700000e+00
 TC3eh   X4h  1 3.950000e-01    2.500000e+00
 TC3eh   X3h  1 3.950000e-01    2.500000e+00
 TC3eh   X2h  1 3.950000e-01    2.500000e+00
 TC3eh   X1h  1 3.950000e-01    2.700000e+00
 TC3eh  C2vh  1 3.950000e-01    2.940000e+00
 TC3eh  C1vh  1 3.950000e-01    2.940000e+00
 TC3eh  X4vh  1 3.950000e-01    2.700000e+00
 TC3eh  X3vh  1 3.950000e-01    2.700000e+00
 TC3eh  X2vh  1 3.950000e-01    2.700000e+00
 TC3eh  X1vh  1 3.950000e-01    2.940000e+00
 TC3eh  C2eh  1 3.950000e-01    2.310000e+00
 TC3eh  C1eh  1 3.950000e-01    2.310000e+00
 TC3eh  X4eh  1 3.950000e-01    2.110000e+00
 TC3eh  X3eh  1 3.950000e-01    2.110000e+00
 TC3eh  X2eh  1 3.950000e-01    2.110000e+00
 TC3eh  X1eh  1 3.950000e-01    2.310000e+00
 TC2eh   C1h  1 3.950000e-01    2.940000e+00
 TC2eh   X4h  1 3.950000e-01    2.110000e+00
 TC2eh   X3h  1 3.950000e-01    2.500000e+00
 TC2eh   X2h  1 3.950000e-01    2.500000e+00
 TC2eh   X1h  1 3.950000e-01    2.500000e+00
 TC2eh  C1vh  1 3.950000e-01    3.190000e+00
 TC2eh  X4vh  1 3.950000e-01    2.310000e+00
 TC2eh  X3vh  1 3.950000e-01    2.700000e+00
 TC2eh  X2vh  1 3.950000e-01    2.700000e+00
 TC2eh  X1vh  1 3.950000e-01    2.700000e+00
 TC2eh  C1eh  1 3.950000e-01    2.500000e+00
 TC2eh  X4eh  1 3.950000e-01    1.670000e+00
 TC2eh  X3eh  1 3.950000e-01    2.110000e+00
 TC2eh  X2eh  1 3.950000e-01    2.110000e+00
 TC2eh  X1eh  1 3.950000e-01    2.110000e+00
 TC1eh   X4h  1 3.950000e-01    2.110000e+00
 TC1eh   X3h  1 3.950000e-01    2.500000e+00
 TC1eh   X2h  1 3.950000e-01    2.500000e+00
 TC1eh   X1h  1 3.950000e-01    2.500000e+00
 TC1eh  X4vh  1 3.950000e-01    2.310000e+00
 TC1eh  X3vh  1 3.950000e-01    2.700000e+00
 TC1eh  X2vh  1 3.950000e-01    2.700000e+00
 TC1eh  X1vh  1 3.950000e-01    2.700000e+00
 TC1eh  X4eh  1 3.950000e-01    1.670000e+00
 TC1eh  X3eh  1 3.950000e-01    2.110000e+00
 TC1eh  X2eh  1 3.950000e-01    2.110000e+00
 TC1eh  X1eh  1 3.950000e-01    2.110000e+00
 TX4eh   X3h  1 3.950000e-01    2.700000e+00
 TX4eh   X2h  1 3.950000e-01    2.700000e+00
 TX4eh   X1h  1 3.950000e-01    2.700000e+00
 TX4eh  X3vh  1 3.950000e-01    2.940000e+00
 TX4eh  X2vh  1 3.950000e-01    2.940000e+00
 TX4eh  X1vh  1 3.950000e-01    2.940000e+00
 TX4eh  X3eh  1 3.950000e-01    2.310000e+00
 TX4eh  X2eh  1 3.950000e-01    2.310000e+00
 TX4eh  X1eh  1 3.950000e-01    2.310000e+00
 TX3eh   X2h  1 3.950000e-01    2.940000e+00
 TX3eh   X1h  1 3.950000e-01    2.940000e+00
 TX3eh  X2vh  1 3.950000e-01    3.190000e+00
 TX3eh  X1vh  1 3.950000e-01    3.190000e+00
 TX3eh  X2eh  1 3.950000e-01    2.500000e+00
 TX3eh  X1eh  1 3.950000e-01    2.500000e+00
 TX2eh   X1h  1 3.950000e-01    2.940000e+00
 TX2eh  X1vh  1 3.950000e-01    3.190000e+00
 TX2eh  X1eh  1 3.950000e-01    2.500000e+00
  TP6h   C6h  1 3.950000e-01    1.670000e+00
  TP6h   C5h  1 3.980000e-01    1.450000e+00
  TP6h   C4h  1 3.990000e-01    1.180000e+00
  TP6h   C3h  1 4.010000e-01    9.830000e-01
  TP6h   C2h  1 4.010000e-01    9.830000e-01
  TP6h   C1h  1 4.650000e-01    7.030000e-01
  TP6h   X4h  1 3.950000e-01    1.850000e+00
  TP6h   X3h  1 3.950000e-01    1.850000e+00
  TP6h   X2h  1 3.950000e-01    1.670000e+00
  TP6h   X1h  1 3.980000e-01    1.450000e+00
  TP6h  C6vh  1 3.950000e-01    1.850000e+00
  TP6h  C5vh  1 3.950000e-01    1.670000e+00
  TP6h  C4vh  1 3.980000e-01    1.450000e+00
  TP6h  C3vh  1 3.990000e-01    1.180000e+00
  TP6h  C2vh  1 3.990000e-01    1.180000e+00
  TP6h  C1vh  1 4.040000e-01    8.300000e-01
  TP6h  X4vh  1 3.950000e-01    2.110000e+00
  TP6h  X3vh  1 3.950000e-01    2.110000e+00
  TP6h  X2vh  1 3.950000e-01    1.850000e+00
  TP6h  X1vh  1 3.950000e-01    1.670000e+00
  TP6h  C6eh  1 3.950000e-01    1.850000e+00
  TP6h  C5eh  1 3.950000e-01    1.670000e+00
  TP6h  C4eh  1 3.980000e-01    1.450000e+00
  TP6h  C3eh  1 3.990000e-01    1.180000e+00
  TP6h  C2eh  1 3.990000e-01    1.180000e+00
  TP6h  C1eh  1 4.040000e-01    8.300000e-01
  TP6h  X4eh  1 3.950000e-01    2.110000e+00
  TP6h  X3eh  1 3.950000e-01    2.110000e+00
  TP6h  X2eh  1 3.950000e-01    1.850000e+00
  TP6h  X1eh  1 3.950000e-01    1.670000e+00
  TP5h   C6h  1 3.950000e-01    1.670000e+00
  TP5h   C5h  1 3.950000e-01    1.670000e+00
  TP5h   C4h  1 3.980000e-01    1.450000e+00
  TP5h   C3h  1 3.990000e-01    1.180000e+00
  TP5h   C2h  1 3.990000e-01    1.180000e+00
  TP5h   C1h  1 4.010000e-01    9.830000e-01
  TP5h   X4h  1 3.950000e-01    2.110000e+00
  TP5h   X3h  1 3.950000e-01    1.850000e+00
  TP5h   X2h  1 3.950000e-01    1.850000e+00
  TP5h   X1h  1 3.980000e-01    1.450000e+00
  TP5h  C6vh  1 3.950000e-01    1.850000e+00
  TP5h  C5vh  1 3.950000e-01    1.850000e+00
  TP5h  C4vh  1 3.950000e-01    1.670000e+00
  TP5h  C3vh  1 3.980000e-01    1.450000e+00
  TP5h  C2vh  1 3.980000e-01    1.450000e+00
  TP5h  C1vh  1 3.990000e-01    1.180000e+00
  TP5h  X4vh  1 3.950000e-01    2.310000e+00
  TP5h  X3vh  1 3.950000e-01    2.110000e+00
  TP5h  X2vh  1 3.950000e-01    2.110000e+00
  TP5h  X1vh  1 3.950000e-01    1.670000e+00
  TP5h  C6eh  1 3.950000e-01    1.850000e+00
  TP5h  C5eh  1 3.950000e-01    1.850000e+00
  TP5h  C4eh  1 3.950000e-01    1.670000e+00
  TP5h  C3eh  1 3.980000e-01    1.450000e+00
  TP5h  C2eh  1 3.980000e-01    1.450000e+00
  TP5h  C1eh  1 3.990000e-01    1.180000e+00
  TP5h  X4eh  1 3.950000e-01    2.310000e+00
  TP5h  X3eh  1 3.950000e-01    2.110000e+00
  TP5h  X2eh  1 3.950000e-01    2.110000e+00
  TP5h  X1eh  1 3.950000e-01    1.670000e+00
  TP4h   C6h  1 3.950000e-01    1.850000e+00
  TP4h   C5h  1 3.950000e-01    1.670000e+00
  TP4h   C4h  1 3.980000e-01    1.450000e+00
  TP4h   C3h  1 3.990000e-01    1.180000e+00
  TP4h   C2h  1 3.990000e-01    1.180000e+00
  TP4h   C1h  1 4.010000e-01    9.830000e-01
  TP4h   X4h  1 3.950000e-01    2.110000e+00
  TP4h   X3h  1 3.950000e-01    1.850000e+00
  TP4h   X2h  1 3.950000e-01    1.850000e+00
  TP4h   X1h  1 3.950000e-01    1.670000e+00
  TP4h  C6vh  1 3.950000e-01    2.110000e+00
  TP4h  C5vh  1 3.950000e-01    1.850000e+00
  TP4h  C4vh  1 3.950000e-01    1.670000e+00
  TP4h  C3vh  1 3.980000e-01    1.450000e+00
  TP4h  C2vh  1 3.980000e-01    1.450000e+00
  TP4h  C1vh  1 3.990000e-01    1.180000e+00
  TP4h  X4vh  1 3.950000e-01    2.310000e+00
  TP4h  X3vh  1 3.950000e-01    2.110000e+00
  TP4h  X2vh  1 3.950000e-01    2.110000e+00
  TP4h  X1vh  1 3.950000e-01    1.850000e+00
  TP4h  C6eh  1 3.950000e-01    2.110000e+00
  TP4h  C5eh  1 3.950000e-01    1.850000e+00
  TP4h  C4eh  1 3.950000e-01    1.670000e+00
  TP4h  C3eh  1 3.980000e-01    1.450000e+00
  TP4h  C2eh  1 3.980000e-01    1.450000e+00
  TP4h  C1eh  1 3.990000e-01    1.180000e+00
  TP4h  X4eh  1 3.950000e-01    2.310000e+00
  TP4h  X3eh  1 3.950000e-01    2.110000e+00
  TP4h  X2eh  1 3.950000e-01    2.110000e+00
  TP4h  X1eh  1 3.950000e-01    1.850000e+00
  TP3h   C6h  1 3.950000e-01    2.110000e+00
  TP3h   C5h  1 3.950000e-01    1.850000e+00
  TP3h   C4h  1 3.950000e-01    1.670000e+00
  TP3h   C3h  1 3.990000e-01    1.180000e+00
  TP3h   C2h  1 3.990000e-01    1.180000e+00
  TP3h   C1h  1 4.010000e-01    9.830000e-01
  TP3h   X4h  1 3.950000e-01    2.110000e+00
  TP3h   X3h  1 3.950000e-01    2.110000e+00
  TP3h   X2h  1 3.950000e-01    1.850000e+00
  TP3h   X1h  1 3.950000e-01    1.670000e+00
  TP3h  C6vh  1 3.950000e-01    2.310000e+00
  TP3h  C5vh  1 3.950000e-01    2.110000e+00
  TP3h  C4vh  1 3.950000e-01    1.850000e+00
  TP3h  C3vh  1 3.980000e-01    1.450000e+00
  TP3h  C2vh  1 3.980000e-01    1.450000e+00
  TP3h  C1vh  1 3.990000e-01    1.180000e+00
  TP3h  X4vh  1 3.950000e-01    2.310000e+00
  TP3h  X3vh  1 3.950000e-01    2.310000e+00
  TP3h  X2vh  1 3.950000e-01    2.110000e+00
  TP3h  X1vh  1 3.950000e-01    1.850000e+00
  TP3h  C6eh  1 3.950000e-01    2.310000e+00
  TP3h  C5eh  1 3.950000e-01    2.110000e+00
  TP3h  C4eh  1 3.950000e-01    1.850000e+00
  TP3h  C3eh  1 3.980000e-01    1.450000e+00
  TP3h  C2eh  1 3.980000e-01    1.450000e+00
  TP3h  C1eh  1 3.990000e-01    1.180000e+00
  TP3h  X4eh  1 3.950000e-01    2.310000e+00
  TP3h  X3eh  1 3.950000e-01    2.310000e+00
  TP3h  X2eh  1 3.950000e-01    2.110000e+00
  TP3h  X1eh  1 3.950000e-01    1.850000e+00
  TP2h   C6h  1 3.950000e-01    2.110000e+00
  TP2h   C5h  1 3.950000e-01    1.850000e+00
  TP2h   C4h  1 3.950000e-01    1.670000e+00
  TP2h   C3h  1 3.980000e-01    1.450000e+00
  TP2h   C2h  1 3.980000e-01    1.450000e+00
  TP2h   C1h  1 3.990000e-01    1.180000e+00
  TP2h   X4h  1 3.950000e-01    2.110000e+00
  TP2h   X3h  1 3.950000e-01    2.110000e+00
  TP2h   X2h  1 3.950000e-01    1.850000e+00
  TP2h   X1h  1 3.950000e-01    1.670000e+00
  TP2h  C6vh  1 3.950000e-01    2.310000e+00
  TP2h  C5vh  1 3.950000e-01    2.110000e+00
  TP2h  C4vh  1 3.950000e-01    1.850000e+00
  TP2h  C3vh  1 3.950000e-01    1.670000e+00
  TP2h  C2vh  1 3.950000e-01    1.670000e+00
  TP2h  C1vh  1 3.980000e-01    1.450000e+00
  TP2h  X4vh  1 3.950000e-01    2.310000e+00
  TP2h  X3vh  1 3.950000e-01    2.310000e+00
  TP2h  X2vh  1 3.950000e-01    2.110000e+00
  TP2h  X1vh  1 3.950000e-01    1.850000e+00
  TP2h  C6eh  1 3.950000e-01    2.310000e+00
  TP2h  C5eh  1 3.950000e-01    2.110000e+00
  TP2h  C4eh  1 3.950000e-01    1.850000e+00
  TP2h  C3eh  1 3.950000e-01    1.670000e+00
  TP2h  C2eh  1 3.950000e-01    1.670000e+00
  TP2h  C1eh  1 3.980000e-01    1.450000e+00
  TP2h  X4eh  1 3.950000e-01    2.310000e+00
  TP2h  X3eh  1 3.950000e-01    2.310000e+00
  TP2h  X2eh  1 3.950000e-01    2.110000e+00
  TP2h  X1eh  1 3.950000e-01    1.850000e+00
  TP1h   C6h  1 3.950000e-01    2.110000e+00
  TP1h   C5h  1 3.950000e-01    1.850000e+00
  TP1h   C4h  1 3.950000e-01    1.670000e+00
  TP1h   C3h  1 3.980000e-01    1.450000e+00
  TP1h   C2h  1 3.980000e-01    1.450000e+00
  TP1h   C1h  1 3.990000e-01    1.180000e+00
  TP1h   X4h  1 3.950000e-01    2.110000e+00
  TP1h   X3h  1 3.950000e-01    2.110000e+00
  TP1h   X2h  1 3.950000e-01    1.850000e+00
  TP1h   X1h  1 3.950000e-01    1.670000e+00
  TP1h  C6vh  1 3.950000e-01    2.310000e+00
  TP1h  C5vh  1 3.950000e-01    2.110000e+00
  TP1h  C4vh  1 3.950000e-01    1.850000e+00
  TP1h  C3vh  1 3.950000e-01    1.670000e+00
  TP1h  C2vh  1 3.950000e-01    1.670000e+00
  TP1h  C1vh  1 3.980000e-01    1.450000e+00
  TP1h  X4vh  1 3.950000e-01    2.310000e+00
  TP1h  X3vh  1 3.950000e-01    2.310000e+00
  TP1h  X2vh  1 3.950000e-01    2.110000e+00
  TP1h  X1vh  1 3.950000e-01    1.850000e+00
  TP1h  C6eh  1 3.950000e-01    2.310000e+00
  TP1h  C5eh  1 3.950000e-01    2.110000e+00
  TP1h  C4eh  1 3.950000e-01    1.850000e+00
  TP1h  C3eh  1 3.950000e-01    1.670000e+00
  TP1h  C2eh  1 3.950000e-01    1.670000e+00
  TP1h  C1eh  1 3.980000e-01    1.450000e+00
  TP1h  X4eh  1 3.950000e-01    2.310000e+00
  TP1h  X3eh  1 3.950000e-01    2.310000e+00
  TP1h  X2eh  1 3.950000e-01    2.110000e+00
  TP1h  X1eh  1 3.950000e-01    1.850000e+00
  TN6h   C6h  1 3.950000e-01    2.310000e+00
  TN6h   C5h  1 3.950000e-01    2.110000e+00
  TN6h   C4h  1 3.950000e-01    1.850000e+00
  TN6h   C3h  1 3.950000e-01    1.670000e+00
  TN6h   C2h  1 3.950000e-01    1.670000e+00
  TN6h   C1h  1 3.980000e-01    1.450000e+00
  TN6h   X4h  1 3.950000e-01    2.310000e+00
  TN6h   X3h  1 3.950000e-01    2.110000e+00
  TN6h   X2h  1 3.950000e-01    1.850000e+00
  TN6h   X1h  1 3.950000e-01    1.670000e+00
  TN6h  C6vh  1 3.950000e-01    2.500000e+00
  TN6h  C5vh  1 3.950000e-01    2.310000e+00
  TN6h  C4vh  1 3.950000e-01    2.110000e+00
  TN6h  C3vh  1 3.950000e-01    1.850000e+00
  TN6h  C2vh  1 3.950000e-01    1.850000e+00
  TN6h  C1vh  1 3.950000e-01    1.670000e+00
  TN6h  X4vh  1 3.950000e-01    2.500000e+00
  TN6h  X3vh  1 3.950000e-01    2.310000e+00
  TN6h  X2vh  1 3.950000e-01    2.110000e+00
  TN6h  X1vh  1 3.950000e-01    1.850000e+00
  TN6h  C6eh  1 3.950000e-01    2.500000e+00
  TN6h  C5eh  1 3.950000e-01    2.310000e+00
  TN6h  C4eh  1 3.950000e-01    2.110000e+00
  TN6h  C3eh  1 3.950000e-01    1.850000e+00
  TN6h  C2eh  1 3.950000e-01    1.850000e+00
  TN6h  C1eh  1 3.950000e-01    1.670000e+00
  TN6h  X4eh  1 3.950000e-01    2.500000e+00
  TN6h  X3eh  1 3.950000e-01    2.310000e+00
  TN6h  X2eh  1 3.950000e-01    2.110000e+00
  TN6h  X1eh  1 3.950000e-01    1.850000e+00
  TN5h   C6h  1 3.950000e-01    2.310000e+00
  TN5h   C5h  1 3.950000e-01    2.110000e+00
  TN5h   C4h  1 3.950000e-01    1.850000e+00
  TN5h   C3h  1 3.950000e-01    1.850000e+00
  TN5h   C2h  1 3.950000e-01    1.670000e+00
  TN5h   C1h  1 3.980000e-01    1.450000e+00
  TN5h   X4h  1 3.950000e-01    2.500000e+00
  TN5h   X3h  1 3.950000e-01    2.310000e+00
  TN5h   X2h  1 3.950000e-01    2.110000e+00
  TN5h   X1h  1 3.950000e-01    1.850000e+00
  TN5h  C6vh  1 3.950000e-01    2.500000e+00
  TN5h  C5vh  1 3.950000e-01    2.310000e+00
  TN5h  C4vh  1 3.950000e-01    2.110000e+00
  TN5h  C3vh  1 3.950000e-01    2.110000e+00
  TN5h  C2vh  1 3.950000e-01    1.850000e+00
  TN5h  C1vh  1 3.950000e-01    1.670000e+00
  TN5h  X4vh  1 3.950000e-01    2.700000e+00
  TN5h  X3vh  1 3.950000e-01    2.500000e+00
  TN5h  X2vh  1 3.950000e-01    2.310000e+00
  TN5h  X1vh  1 3.950000e-01    2.110000e+00
  TN5h  C6eh  1 3.950000e-01    2.500000e+00
  TN5h  C5eh  1 3.950000e-01    2.310000e+00
  TN5h  C4eh  1 3.950000e-01    2.110000e+00
  TN5h  C3eh  1 3.950000e-01    2.110000e+00
  TN5h  C2eh  1 3.950000e-01    1.850000e+00
  TN5h  C1eh  1 3.950000e-01    1.670000e+00
  TN5h  X4eh  1 3.950000e-01    2.700000e+00
  TN5h  X3eh  1 3.950000e-01    2.500000e+00
  TN5h  X2eh  1 3.950000e-01    2.310000e+00
  TN5h  X1eh  1 3.950000e-01    2.110000e+00
  TN4h   C6h  1 3.950000e-01    2.310000e+00
  TN4h   C5h  1 3.950000e-01    2.110000e+00
  TN4h   C4h  1 3.950000e-01    2.110000e+00
  TN4h   C3h  1 3.950000e-01    1.850000e+00
  TN4h   C2h  1 3.950000e-01    1.670000e+00
  TN4h   C1h  1 3.980000e-01    1.450000e+00
  TN4h   X4h  1 3.950000e-01    2.700000e+00
  TN4h   X3h  1 3.950000e-01    2.500000e+00
  TN4h   X2h  1 3.950000e-01    2.110000e+00
  TN4h   X1h  1 3.950000e-01    1.850000e+00
  TN4h  C6vh  1 3.950000e-01    2.500000e+00
  TN4h  C5vh  1 3.950000e-01    2.310000e+00
  TN4h  C4vh  1 3.950000e-01    2.310000e+00
  TN4h  C3vh  1 3.950000e-01    2.110000e+00
  TN4h  C2vh  1 3.950000e-01    1.850000e+00
  TN4h  C1vh  1 3.950000e-01    1.670000e+00
  TN4h  X4vh  1 3.950000e-01    2.940000e+00
  TN4h  X3vh  1 3.950000e-01    2.700000e+00
  TN4h  X2vh  1 3.950000e-01    2.310000e+00
  TN4h  X1vh  1 3.950000e-01    2.110000e+00
  TN4h  C6eh  1 3.950000e-01    2.500000e+00
  TN4h  C5eh  1 3.950000e-01    2.310000e+00
  TN4h  C4eh  1 3.950000e-01    2.310000e+00
  TN4h  C3eh  1 3.950000e-01    2.110000e+00
  TN4h  C2eh  1 3.950000e-01    1.850000e+00
  TN4h  C1eh  1 3.950000e-01    1.670000e+00
  TN4h  X4eh  1 3.950000e-01    2.940000e+00
  TN4h  X3eh  1 3.950000e-01    2.700000e+00
  TN4h  X2eh  1 3.950000e-01    2.310000e+00
  TN4h  X1eh  1 3.950000e-01    2.110000e+00
  TN3h   C6h  1 3.950000e-01    2.310000e+00
  TN3h   C5h  1 3.950000e-01    2.110000e+00
  TN3h   C4h  1 3.950000e-01    2.110000e+00
  TN3h   C3h  1 3.950000e-01    1.850000e+00
  TN3h   C2h  1 3.950000e-01    1.850000e+00
  TN3h   C1h  1 3.950000e-01    1.670000e+00
  TN3h   X4h  1 3.950000e-01    2.500000e+00
  TN3h   X3h  1 3.950000e-01    2.310000e+00
  TN3h   X2h  1 3.950000e-01    2.110000e+00
  TN3h   X1h  1 3.950000e-01    2.110000e+00
  TN3h  C6vh  1 3.950000e-01    2.500000e+00
  TN3h  C5vh  1 3.950000e-01    2.310000e+00
  TN3h  C4vh  1 3.950000e-01    2.310000e+00
  TN3h  C3vh  1 3.950000e-01    2.110000e+00
  TN3h  C2vh  1 3.950000e-01    2.110000e+00
  TN3h  C1vh  1 3.950000e-01    1.850000e+00
  TN3h  X4vh  1 3.950000e-01    2.700000e+00
  TN3h  X3vh  1 3.950000e-01    2.500000e+00
  TN3h  X2vh  1 3.950000e-01    2.310000e+00
  TN3h  X1vh  1 3.950000e-01    2.310000e+00
  TN3h  C6eh  1 3.950000e-01    2.500000e+00
  TN3h  C5eh  1 3.950000e-01    2.310000e+00
  TN3h  C4eh  1 3.950000e-01    2.310000e+00
  TN3h  C3eh  1 3.950000e-01    2.110000e+00
  TN3h  C2eh  1 3.950000e-01    2.110000e+00
  TN3h  C1eh  1 3.950000e-01    1.850000e+00
  TN3h  X4eh  1 3.950000e-01    2.700000e+00
  TN3h  X3eh  1 3.950000e-01    2.500000e+00
  TN3h  X2eh  1 3.950000e-01    2.310000e+00
  TN3h  X1eh  1 3.950000e-01    2.310000e+00
  TN2h   C6h  1 3.950000e-01    2.310000e+00
  TN2h   C5h  1 3.950000e-01    2.110000e+00
  TN2h   C4h  1 3.950000e-01    2.110000e+00
  TN2h   C3h  1 3.950000e-01    2.110000e+00
  TN2h   C2h  1 3.950000e-01    1.850000e+00
  TN2h   C1h  1 3.950000e-01    1.670000e+00
  TN2h   X4h  1 3.950000e-01    2.500000e+00
  TN2h   X3h  1 3.950000e-01    2.310000e+00
  TN2h   X2h  1 3.950000e-01    2.110000e+00
  TN2h   X1h  1 3.950000e-01    2.110000e+00
  TN2h  C6vh  1 3.950000e-01    2.500000e+00
  TN2h  C5vh  1 3.950000e-01    2.310000e+00
  TN2h  C4vh  1 3.950000e-01    2.310000e+00
  TN2h  C3vh  1 3.950000e-01    2.310000e+00
  TN2h  C2vh  1 3.950000e-01    2.110000e+00
  TN2h  C1vh  1 3.950000e-01    1.850000e+00
  TN2h  X4vh  1 3.950000e-01    2.700000e+00
  TN2h  X3vh  1 3.950000e-01    2.500000e+00
  TN2h  X2vh  1 3.950000e-01    2.310000e+00
  TN2h  X1vh  1 3.950000e-01    2.310000e+00
  TN2h  C6eh  1 3.950000e-01    2.500000e+00
  TN2h  C5eh  1 3.950000e-01    2.310000e+00
  TN2h  C4eh  1 3.950000e-01    2.310000e+00
  TN2h  C3eh  1 3.950000e-01    2.310000e+00
  TN2h  C2eh  1 3.950000e-01    2.110000e+00
  TN2h  C1eh  1 3.950000e-01    1.850000e+00
  TN2h  X4eh  1 3.950000e-01    2.700000e+00
  TN2h  X3eh  1 3.950000e-01    2.500000e+00
  TN2h  X2eh  1 3.950000e-01    2.310000e+00
  TN2h  X1eh  1 3.950000e-01    2.310000e+00
  TN1h   C6h  1 3.950000e-01    2.500000e+00
  TN1h   C5h  1 3.950000e-01    2.310000e+00
  TN1h   C4h  1 3.950000e-01    2.310000e+00
  TN1h   C3h  1 3.950000e-01    2.110000e+00
  TN1h   C2h  1 3.950000e-01    1.850000e+00
  TN1h   C1h  1 3.950000e-01    1.670000e+00
  TN1h   X4h  1 3.950000e-01    2.310000e+00
  TN1h   X3h  1 3.950000e-01    2.310000e+00
  TN1h   X2h  1 3.950000e-01    2.110000e+00
  TN1h   X1h  1 3.950000e-01    2.110000e+00
  TN1h  C6vh  1 3.950000e-01    2.700000e+00
  TN1h  C5vh  1 3.950000e-01    2.500000e+00
  TN1h  C4vh  1 3.950000e-01    2.500000e+00
  TN1h  C3vh  1 3.950000e-01    2.310000e+00
  TN1h  C2vh  1 3.950000e-01    2.110000e+00
  TN1h  C1vh  1 3.950000e-01    1.850000e+00
  TN1h  X4vh  1 3.950000e-01    2.500000e+00
  TN1h  X3vh  1 3.950000e-01    2.500000e+00
  TN1h  X2vh  1 3.950000e-01    2.310000e+00
  TN1h  X1vh  1 3.950000e-01    2.310000e+00
  TN1h  C6eh  1 3.950000e-01    2.700000e+00
  TN1h  C5eh  1 3.950000e-01    2.500000e+00
  TN1h  C4eh  1 3.950000e-01    2.500000e+00
  TN1h  C3eh  1 3.950000e-01    2.310000e+00
  TN1h  C2eh  1 3.950000e-01    2.110000e+00
  TN1h  C1eh  1 3.950000e-01    1.850000e+00
  TN1h  X4eh  1 3.950000e-01    2.500000e+00
  TN1h  X3eh  1 3.950000e-01    2.500000e+00
  TN1h  X2eh  1 3.950000e-01    2.310000e+00
  TN1h  X1eh  1 3.950000e-01    2.310000e+00
 TP6dh   C6h  1 3.950000e-01    1.670000e+00
 TP6dh   C5h  1 3.980000e-01    1.450000e+00
 TP6dh   C4h  1 3.990000e-01    1.180000e+00
 TP6dh   C3h  1 4.010000e-01    9.830000e-01
 TP6dh   C2h  1 4.010000e-01    9.830000e-01
 TP6dh   C1h  1 4.650000e-01    7.030000e-01
 TP6dh   X4h  1 3.950000e-01    1.850000e+00
 TP6dh   X3h  1 3.950000e-01    1.850000e+00
 TP6dh   X2h  1 3.950000e-01    1.670000e+00
 TP6dh   X1h  1 3.980000e-01    1.450000e+00
 TP6dh  C6vh  1 3.980000e-01    1.450000e+00
 TP6dh  C5vh  1 3.990000e-01    1.180000e+00
 TP6dh  C4vh  1 4.010000e-01    9.830000e-01
 TP6dh  C3vh  1 4.040000e-01    8.300000e-01
 TP6dh  C2vh  1 4.040000e-01    8.300000e-01
 TP6dh  C1vh  1 5.110000e-01    6.590000e-01
 TP6dh  X4vh  1 3.950000e-01    1.670000e+00
 TP6dh  X3vh  1 3.950000e-01    1.670000e+00
 TP6dh  X2vh  1 3.980000e-01    1.450000e+00
 TP6dh  X1vh  1 3.990000e-01    1.180000e+00
 TP6dh  C6eh  1 3.950000e-01    1.850000e+00
 TP6dh  C5eh  1 3.950000e-01    1.670000e+00
 TP6dh  C4eh  1 3.980000e-01    1.450000e+00
 TP6dh  C3eh  1 3.990000e-01    1.180000e+00
 TP6dh  C2eh  1 3.990000e-01    1.180000e+00
 TP6dh  C1eh  1 4.040000e-01    8.300000e-01
 TP6dh  X4eh  1 3.950000e-01    2.110000e+00
 TP6dh  X3eh  1 3.950000e-01    2.110000e+00
 TP6dh  X2eh  1 3.950000e-01    1.850000e+00
 TP6dh  X1eh  1 3.950000e-01    1.670000e+00
 TP5dh   C6h  1 3.950000e-01    1.670000e+00
 TP5dh   C5h  1 3.950000e-01    1.670000e+00
 TP5dh   C4h  1 3.980000e-01    1.450000e+00
 TP5dh   C3h  1 3.990000e-01    1.180000e+00
 TP5dh   C2h  1 3.990000e-01    1.180000e+00
 TP5dh   C1h  1 4.010000e-01    9.830000e-01
 TP5dh   X4h  1 3.950000e-01    2.110000e+00
 TP5dh   X3h  1 3.950000e-01    1.850000e+00
 TP5dh   X2h  1 3.950000e-01    1.850000e+00
 TP5dh   X1h  1 3.980000e-01    1.450000e+00
 TP5dh  C6vh  1 3.980000e-01    1.450000e+00
 TP5dh  C5vh  1 3.980000e-01    1.450000e+00
 TP5dh  C4vh  1 3.990000e-01    1.180000e+00
 TP5dh  C3vh  1 4.010000e-01    9.830000e-01
 TP5dh  C2vh  1 4.010000e-01    9.830000e-01
 TP5dh  C1vh  1 4.040000e-01    8.300000e-01
 TP5dh  X4vh  1 3.950000e-01    1.850000e+00
 TP5dh  X3vh  1 3.950000e-01    1.670000e+00
 TP5dh  X2vh  1 3.950000e-01    1.670000e+00
 TP5dh  X1vh  1 3.990000e-01    1.180000e+00
 TP5dh  C6eh  1 3.950000e-01    1.850000e+00
 TP5dh  C5eh  1 3.950000e-01    1.850000e+00
 TP5dh  C4eh  1 3.950000e-01    1.670000e+00
 TP5dh  C3eh  1 3.980000e-01    1.450000e+00
 TP5dh  C2eh  1 3.980000e-01    1.450000e+00
 TP5dh  C1eh  1 3.990000e-01    1.180000e+00
 TP5dh  X4eh  1 3.950000e-01    2.310000e+00
 TP5dh  X3eh  1 3.950000e-01    2.110000e+00
 TP5dh  X2eh  1 3.950000e-01    2.110000e+00
 TP5dh  X1eh  1 3.950000e-01    1.670000e+00
 TP4dh   C6h  1 3.950000e-01    1.850000e+00
 TP4dh   C5h  1 3.950000e-01    1.670000e+00
 TP4dh   C4h  1 3.980000e-01    1.450000e+00
 TP4dh   C3h  1 3.990000e-01    1.180000e+00
 TP4dh   C2h  1 3.990000e-01    1.180000e+00
 TP4dh   C1h  1 4.010000e-01    9.830000e-01
 TP4dh   X4h  1 3.950000e-01    2.110000e+00
 TP4dh   X3h  1 3.950000e-01    1.850000e+00
 TP4dh   X2h  1 3.950000e-01    1.850000e+00
 TP4dh   X1h  1 3.950000e-01    1.670000e+00
 TP4dh  C6vh  1 3.950000e-01    1.670000e+00
 TP4dh  C5vh  1 3.980000e-01    1.450000e+00
 TP4dh  C4vh  1 3.990000e-01    1.180000e+00
 TP4dh  C3vh  1 4.010000e-01    9.830000e-01
 TP4dh  C2vh  1 4.010000e-01    9.830000e-01
 TP4dh  C1vh  1 4.040000e-01    8.300000e-01
 TP4dh  X4vh  1 3.950000e-01    1.850000e+00
 TP4dh  X3vh  1 3.950000e-01    1.670000e+00
 TP4dh  X2vh  1 3.950000e-01    1.670000e+00
 TP4dh  X1vh  1 3.980000e-01    1.450000e+00
 TP4dh  C6eh  1 3.950000e-01    2.110000e+00
 TP4dh  C5eh  1 3.950000e-01    1.850000e+00
 TP4dh  C4eh  1 3.950000e-01    1.670000e+00
 TP4dh  C3eh  1 3.980000e-01    1.450000e+00
 TP4dh  C2eh  1 3.980000e-01    1.450000e+00
 TP4dh  C1eh  1 3.990000e-01    1.180000e+00
 TP4dh  X4eh  1 3.950000e-01    2.310000e+00
 TP4dh  X3eh  1 3.950000e-01    2.110000e+00
 TP4dh  X2eh  1 3.950000e-01    2.110000e+00
 TP4dh  X1eh  1 3.950000e-01    1.850000e+00
 TP3dh   C6h  1 3.950000e-01    2.110000e+00
 TP3dh   C5h  1 3.950000e-01    1.850000e+00
 TP3dh   C4h  1 3.950000e-01    1.670000e+00
 TP3dh   C3h  1 3.990000e-01    1.180000e+00
 TP3dh   C2h  1 3.990000e-01    1.180000e+00
 TP3dh   C1h  1 4.010000e-01    9.830000e-01
 TP3dh   X4h  1 3.950000e-01    2.110000e+00
 TP3dh   X3h  1 3.950000e-01    2.110000e+00
 TP3dh   X2h  1 3.950000e-01    1.850000e+00
 TP3dh   X1h  1 3.950000e-01    1.670000e+00
 TP3dh  C6vh  1 3.950000e-01    1.850000e+00
 TP3dh  C5vh  1 3.950000e-01    1.670000e+00
 TP3dh  C4vh  1 3.980000e-01    1.450000e+00
 TP3dh  C3vh  1 4.010000e-01    9.830000e-01
 TP3dh  C2vh  1 4.010000e-01    9.830000e-01
 TP3dh  C1vh  1 4.040000e-01    8.300000e-01
 TP3dh  X4vh  1 3.950000e-01    1.850000e+00
 TP3dh  X3vh  1 3.950000e-01    1.850000e+00
 TP3dh  X2vh  1 3.950000e-01    1.670000e+00
 TP3dh  X1vh  1 3.980000e-01    1.450000e+00
 TP3dh  C6eh  1 3.950000e-01    2.310000e+00
 TP3dh  C5eh  1 3.950000e-01    2.110000e+00
 TP3dh  C4eh  1 3.950000e-01    1.850000e+00
 TP3dh  C3eh  1 3.980000e-01    1.450000e+00
 TP3dh  C2eh  1 3.980000e-01    1.450000e+00
 TP3dh  C1eh  1 3.990000e-01    1.180000e+00
 TP3dh  X4eh  1 3.950000e-01    2.310000e+00
 TP3dh  X3eh  1 3.950000e-01    2.310000e+00
 TP3dh  X2eh  1 3.950000e-01    2.110000e+00
 TP3dh  X1eh  1 3.950000e-01    1.850000e+00
 TP2dh   C6h  1 3.950000e-01    2.110000e+00
 TP2dh   C5h  1 3.950000e-01    1.850000e+00
 TP2dh   C4h  1 3.950000e-01    1.670000e+00
 TP2dh   C3h  1 3.980000e-01    1.450000e+00
 TP2dh   C2h  1 3.980000e-01    1.450000e+00
 TP2dh   C1h  1 3.990000e-01    1.180000e+00
 TP2dh   X4h  1 3.950000e-01    2.110000e+00
 TP2dh   X3h  1 3.950000e-01    2.110000e+00
 TP2dh   X2h  1 3.950000e-01    1.850000e+00
 TP2dh   X1h  1 3.950000e-01    1.670000e+00
 TP2dh  C6vh  1 3.950000e-01    1.850000e+00
 TP2dh  C5vh  1 3.950000e-01    1.670000e+00
 TP2dh  C4vh  1 3.980000e-01    1.450000e+00
 TP2dh  C3vh  1 3.990000e-01    1.180000e+00
 TP2dh  C2vh  1 3.990000e-01    1.180000e+00
 TP2dh  C1vh  1 4.010000e-01    9.830000e-01
 TP2dh  X4vh  1 3.950000e-01    1.850000e+00
 TP2dh  X3vh  1 3.950000e-01    1.850000e+00
 TP2dh  X2vh  1 3.950000e-01    1.670000e+00
 TP2dh  X1vh  1 3.980000e-01    1.450000e+00
 TP2dh  C6eh  1 3.950000e-01    2.310000e+00
 TP2dh  C5eh  1 3.950000e-01    2.110000e+00
 TP2dh  C4eh  1 3.950000e-01    1.850000e+00
 TP2dh  C3eh  1 3.950000e-01    1.670000e+00
 TP2dh  C2eh  1 3.950000e-01    1.670000e+00
 TP2dh  C1eh  1 3.980000e-01    1.450000e+00
 TP2dh  X4eh  1 3.950000e-01    2.310000e+00
 TP2dh  X3eh  1 3.950000e-01    2.310000e+00
 TP2dh  X2eh  1 3.950000e-01    2.110000e+00
 TP2dh  X1eh  1 3.950000e-01    1.850000e+00
 TP1dh   C6h  1 3.950000e-01    2.110000e+00
 TP1dh   C5h  1 3.950000e-01    1.850000e+00
 TP1dh   C4h  1 3.950000e-01    1.670000e+00
 TP1dh   C3h  1 3.980000e-01    1.450000e+00
 TP1dh   C2h  1 3.980000e-01    1.450000e+00
 TP1dh   C1h  1 3.990000e-01    1.180000e+00
 TP1dh   X4h  1 3.950000e-01    2.110000e+00
 TP1dh   X3h  1 3.950000e-01    2.110000e+00
 TP1dh   X2h  1 3.950000e-01    1.850000e+00
 TP1dh   X1h  1 3.950000e-01    1.670000e+00
 TP1dh  C6vh  1 3.950000e-01    1.850000e+00
 TP1dh  C5vh  1 3.950000e-01    1.670000e+00
 TP1dh  C4vh  1 3.980000e-01    1.450000e+00
 TP1dh  C3vh  1 3.990000e-01    1.180000e+00
 TP1dh  C2vh  1 3.990000e-01    1.180000e+00
 TP1dh  C1vh  1 4.010000e-01    9.830000e-01
 TP1dh  X4vh  1 3.950000e-01    1.850000e+00
 TP1dh  X3vh  1 3.950000e-01    1.850000e+00
 TP1dh  X2vh  1 3.950000e-01    1.670000e+00
 TP1dh  X1vh  1 3.980000e-01    1.450000e+00
 TP1dh  C6eh  1 3.950000e-01    2.310000e+00
 TP1dh  C5eh  1 3.950000e-01    2.110000e+00
 TP1dh  C4eh  1 3.950000e-01    1.850000e+00
 TP1dh  C3eh  1 3.950000e-01    1.670000e+00
 TP1dh  C2eh  1 3.950000e-01    1.670000e+00
 TP1dh  C1eh  1 3.980000e-01    1.450000e+00
 TP1dh  X4eh  1 3.950000e-01    2.310000e+00
 TP1dh  X3eh  1 3.950000e-01    2.310000e+00
 TP1dh  X2eh  1 3.950000e-01    2.110000e+00
 TP1dh  X1eh  1 3.950000e-01    1.850000e+00
 TN6dh   C6h  1 3.950000e-01    2.310000e+00
 TN6dh   C5h  1 3.950000e-01    2.110000e+00
 TN6dh   C4h  1 3.950000e-01    1.850000e+00
 TN6dh   C3h  1 3.950000e-01    1.670000e+00
 TN6dh   C2h  1 3.950000e-01    1.670000e+00
 TN6dh   C1h  1 3.980000e-01    1.450000e+00
 TN6dh   X4h  1 3.950000e-01    2.310000e+00
 TN6dh   X3h  1 3.950000e-01    2.110000e+00
 TN6dh   X2h  1 3.950000e-01    1.850000e+00
 TN6dh   X1h  1 3.950000e-01    1.670000e+00
 TN6dh  C6vh  1 3.950000e-01    2.110000e+00
 TN6dh  C5vh  1 3.950000e-01    1.850000e+00
 TN6dh  C4vh  1 3.950000e-01    1.670000e+00
 TN6dh  C3vh  1 3.980000e-01    1.450000e+00
 TN6dh  C2vh  1 3.980000e-01    1.450000e+00
 TN6dh  C1vh  1 3.990000e-01    1.180000e+00
 TN6dh  X4vh  1 3.950000e-01    2.110000e+00
 TN6dh  X3vh  1 3.950000e-01    1.850000e+00
 TN6dh  X2vh  1 3.950000e-01    1.670000e+00
 TN6dh  X1vh  1 3.980000e-01    1.450000e+00
 TN6dh  C6eh  1 3.950000e-01    2.500000e+00
 TN6dh  C5eh  1 3.950000e-01    2.310000e+00
 TN6dh  C4eh  1 3.950000e-01    2.110000e+00
 TN6dh  C3eh  1 3.950000e-01    1.850000e+00
 TN6dh  C2eh  1 3.950000e-01    1.850000e+00
 TN6dh  C1eh  1 3.950000e-01    1.670000e+00
 TN6dh  X4eh  1 3.950000e-01    2.500000e+00
 TN6dh  X3eh  1 3.950000e-01    2.310000e+00
 TN6dh  X2eh  1 3.950000e-01    2.110000e+00
 TN6dh  X1eh  1 3.950000e-01    1.850000e+00
 TN5dh   C6h  1 3.950000e-01    2.310000e+00
 TN5dh   C5h  1 3.950000e-01    2.110000e+00
 TN5dh   C4h  1 3.950000e-01    1.850000e+00
 TN5dh   C3h  1 3.950000e-01    1.850000e+00
 TN5dh   C2h  1 3.950000e-01    1.670000e+00
 TN5dh   C1h  1 3.980000e-01    1.450000e+00
 TN5dh   X4h  1 3.950000e-01    2.500000e+00
 TN5dh   X3h  1 3.950000e-01    2.310000e+00
 TN5dh   X2h  1 3.950000e-01    2.110000e+00
 TN5dh   X1h  1 3.950000e-01    1.850000e+00
 TN5dh  C6vh  1 3.950000e-01    2.110000e+00
 TN5dh  C5vh  1 3.950000e-01    1.850000e+00
 TN5dh  C4vh  1 3.950000e-01    1.670000e+00
 TN5dh  C3vh  1 3.950000e-01    1.670000e+00
 TN5dh  C2vh  1 3.980000e-01    1.450000e+00
 TN5dh  C1vh  1 3.990000e-01    1.180000e+00
 TN5dh  X4vh  1 3.950000e-01    2.310000e+00
 TN5dh  X3vh  1 3.950000e-01    2.110000e+00
 TN5dh  X2vh  1 3.950000e-01    1.850000e+00
 TN5dh  X1vh  1 3.950000e-01    1.670000e+00
 TN5dh  C6eh  1 3.950000e-01    2.500000e+00
 TN5dh  C5eh  1 3.950000e-01    2.310000e+00
 TN5dh  C4eh  1 3.950000e-01    2.110000e+00
 TN5dh  C3eh  1 3.950000e-01    2.110000e+00
 TN5dh  C2eh  1 3.950000e-01    1.850000e+00
 TN5dh  C1eh  1 3.950000e-01    1.670000e+00
 TN5dh  X4eh  1 3.950000e-01    2.700000e+00
 TN5dh  X3eh  1 3.950000e-01    2.500000e+00
 TN5dh  X2eh  1 3.950000e-01    2.310000e+00
 TN5dh  X1eh  1 3.950000e-01    2.110000e+00
 TN4dh   C6h  1 3.950000e-01    2.310000e+00
 TN4dh   C5h  1 3.950000e-01    2.110000e+00
 TN4dh   C4h  1 3.950000e-01    2.110000e+00
 TN4dh   C3h  1 3.950000e-01    1.850000e+00
 TN4dh   C2h  1 3.950000e-01    1.670000e+00
 TN4dh   C1h  1 3.980000e-01    1.450000e+00
 TN4dh   X4h  1 3.950000e-01    2.700000e+00
 TN4dh   X3h  1 3.950000e-01    2.500000e+00
 TN4dh   X2h  1 3.950000e-01    2.110000e+00
 TN4dh   X1h  1 3.950000e-01    1.850000e+00
 TN4dh  C6vh  1 3.950000e-01    2.110000e+00
 TN4dh  C5vh  1 3.950000e-01    1.850000e+00
 TN4dh  C4vh  1 3.950000e-01    1.850000e+00
 TN4dh  C3vh  1 3.950000e-01    1.670000e+00
 TN4dh  C2vh  1 3.980000e-01    1.450000e+00
 TN4dh  C1vh  1 3.990000e-01    1.180000e+00
 TN4dh  X4vh  1 3.950000e-01    2.500000e+00
 TN4dh  X3vh  1 3.950000e-01    2.310000e+00
 TN4dh  X2vh  1 3.950000e-01    1.850000e+00
 TN4dh  X1vh  1 3.950000e-01    1.670000e+00
 TN4dh  C6eh  1 3.950000e-01    2.500000e+00
 TN4dh  C5eh  1 3.950000e-01    2.310000e+00
 TN4dh  C4eh  1 3.950000e-01    2.310000e+00
 TN4dh  C3eh  1 3.950000e-01    2.110000e+00
 TN4dh  C2eh  1 3.950000e-01    1.850000e+00
 TN4dh  C1eh  1 3.950000e-01    1.670000e+00
 TN4dh  X4eh  1 3.950000e-01    2.940000e+00
 TN4dh  X3eh  1 3.950000e-01    2.700000e+00
 TN4dh  X2eh  1 3.950000e-01    2.310000e+00
 TN4dh  X1eh  1 3.950000e-01    2.110000e+00
 TN3dh   C6h  1 3.950000e-01    2.310000e+00
 TN3dh   C5h  1 3.950000e-01    2.110000e+00
 TN3dh   C4h  1 3.950000e-01    2.110000e+00
 TN3dh   C3h  1 3.950000e-01    1.850000e+00
 TN3dh   C2h  1 3.950000e-01    1.850000e+00
 TN3dh   C1h  1 3.950000e-01    1.670000e+00
 TN3dh   X4h  1 3.950000e-01    2.500000e+00
 TN3dh   X3h  1 3.950000e-01    2.310000e+00
 TN3dh   X2h  1 3.950000e-01    2.110000e+00
 TN3dh   X1h  1 3.950000e-01    2.110000e+00
 TN3dh  C6vh  1 3.950000e-01    2.110000e+00
 TN3dh  C5vh  1 3.950000e-01    1.850000e+00
 TN3dh  C4vh  1 3.950000e-01    1.850000e+00
 TN3dh  C3vh  1 3.950000e-01    1.670000e+00
 TN3dh  C2vh  1 3.950000e-01    1.670000e+00
 TN3dh  C1vh  1 3.980000e-01    1.450000e+00
 TN3dh  X4vh  1 3.950000e-01    2.310000e+00
 TN3dh  X3vh  1 3.950000e-01    2.110000e+00
 TN3dh  X2vh  1 3.950000e-01    1.850000e+00
 TN3dh  X1vh  1 3.950000e-01    1.850000e+00
 TN3dh  C6eh  1 3.950000e-01    2.500000e+00
 TN3dh  C5eh  1 3.950000e-01    2.310000e+00
 TN3dh  C4eh  1 3.950000e-01    2.310000e+00
 TN3dh  C3eh  1 3.950000e-01    2.110000e+00
 TN3dh  C2eh  1 3.950000e-01    2.110000e+00
 TN3dh  C1eh  1 3.950000e-01    1.850000e+00
 TN3dh  X4eh  1 3.950000e-01    2.700000e+00
 TN3dh  X3eh  1 3.950000e-01    2.500000e+00
 TN3dh  X2eh  1 3.950000e-01    2.310000e+00
 TN3dh  X1eh  1 3.950000e-01    2.310000e+00
 TN2dh   C6h  1 3.950000e-01    2.310000e+00
 TN2dh   C5h  1 3.950000e-01    2.110000e+00
 TN2dh   C4h  1 3.950000e-01    2.110000e+00
 TN2dh   C3h  1 3.950000e-01    2.110000e+00
 TN2dh   C2h  1 3.950000e-01    1.850000e+00
 TN2dh   C1h  1 3.950000e-01    1.670000e+00
 TN2dh   X4h  1 3.950000e-01    2.500000e+00
 TN2dh   X3h  1 3.950000e-01    2.310000e+00
 TN2dh   X2h  1 3.950000e-01    2.110000e+00
 TN2dh   X1h  1 3.950000e-01    2.110000e+00
 TN2dh  C6vh  1 3.950000e-01    2.110000e+00
 TN2dh  C5vh  1 3.950000e-01    1.850000e+00
 TN2dh  C4vh  1 3.950000e-01    1.850000e+00
 TN2dh  C3vh  1 3.950000e-01    1.850000e+00
 TN2dh  C2vh  1 3.950000e-01    1.670000e+00
 TN2dh  C1vh  1 3.980000e-01    1.450000e+00
 TN2dh  X4vh  1 3.950000e-01    2.310000e+00
 TN2dh  X3vh  1 3.950000e-01    2.110000e+00
 TN2dh  X2vh  1 3.950000e-01    1.850000e+00
 TN2dh  X1vh  1 3.950000e-01    1.850000e+00
 TN2dh  C6eh  1 3.950000e-01    2.500000e+00
 TN2dh  C5eh  1 3.950000e-01    2.310000e+00
 TN2dh  C4eh  1 3.950000e-01    2.310000e+00
 TN2dh  C3eh  1 3.950000e-01    2.310000e+00
 TN2dh  C2eh  1 3.950000e-01    2.110000e+00
 TN2dh  C1eh  1 3.950000e-01    1.850000e+00
 TN2dh  X4eh  1 3.950000e-01    2.700000e+00
 TN2dh  X3eh  1 3.950000e-01    2.500000e+00
 TN2dh  X2eh  1 3.950000e-01    2.310000e+00
 TN2dh  X1eh  1 3.950000e-01    2.310000e+00
 TN1dh   C6h  1 3.950000e-01    2.500000e+00
 TN1dh   C5h  1 3.950000e-01    2.310000e+00
 TN1dh   C4h  1 3.950000e-01    2.310000e+00
 TN1dh   C3h  1 3.950000e-01    2.110000e+00
 TN1dh   C2h  1 3.950000e-01    1.850000e+00
 TN1dh   C1h  1 3.950000e-01    1.670000e+00
 TN1dh   X4h  1 3.950000e-01    2.310000e+00
 TN1dh   X3h  1 3.950000e-01    2.310000e+00
 TN1dh   X2h  1 3.950000e-01    2.110000e+00
 TN1dh   X1h  1 3.950000e-01    2.110000e+00
 TN1dh  C6vh  1 3.950000e-01    2.310000e+00
 TN1dh  C5vh  1 3.950000e-01    2.110000e+00
 TN1dh  C4vh  1 3.950000e-01    2.110000e+00
 TN1dh  C3vh  1 3.950000e-01    1.850000e+00
 TN1dh  C2vh  1 3.950000e-01    1.670000e+00
 TN1dh  C1vh  1 3.980000e-01    1.450000e+00
 TN1dh  X4vh  1 3.950000e-01    2.110000e+00
 TN1dh  X3vh  1 3.950000e-01    2.110000e+00
 TN1dh  X2vh  1 3.950000e-01    1.850000e+00
 TN1dh  X1vh  1 3.950000e-01    1.850000e+00
 TN1dh  C6eh  1 3.950000e-01    2.700000e+00
 TN1dh  C5eh  1 3.950000e-01    2.500000e+00
 TN1dh  C4eh  1 3.950000e-01    2.500000e+00
 TN1dh  C3eh  1 3.950000e-01    2.310000e+00
 TN1dh  C2eh  1 3.950000e-01    2.110000e+00
 TN1dh  C1eh  1 3.950000e-01    1.850000e+00
 TN1dh  X4eh  1 3.950000e-01    2.500000e+00
 TN1dh  X3eh  1 3.950000e-01    2.500000e+00
 TN1dh  X2eh  1 3.950000e-01    2.310000e+00
 TN1dh  X1eh  1 3.950000e-01    2.310000e+00
 TP6ah   C6h  1 3.950000e-01    1.670000e+00
 TP6ah   C5h  1 3.980000e-01    1.450000e+00
 TP6ah   C4h  1 3.990000e-01    1.180000e+00
 TP6ah   C3h  1 4.010000e-01    9.830000e-01
 TP6ah   C2h  1 4.010000e-01    9.830000e-01
 TP6ah   C1h  1 4.650000e-01    7.030000e-01
 TP6ah   X4h  1 3.950000e-01    1.850000e+00
 TP6ah   X3h  1 3.950000e-01    1.850000e+00
 TP6ah   X2h  1 3.950000e-01    1.670000e+00
 TP6ah   X1h  1 3.980000e-01    1.450000e+00
 TP6ah  C6vh  1 3.950000e-01    1.850000e+00
 TP6ah  C5vh  1 3.950000e-01    1.670000e+00
 TP6ah  C4vh  1 3.980000e-01    1.450000e+00
 TP6ah  C3vh  1 3.990000e-01    1.180000e+00
 TP6ah  C2vh  1 3.990000e-01    1.180000e+00
 TP6ah  C1vh  1 4.040000e-01    8.300000e-01
 TP6ah  X4vh  1 3.950000e-01    2.110000e+00
 TP6ah  X3vh  1 3.950000e-01    2.110000e+00
 TP6ah  X2vh  1 3.950000e-01    1.850000e+00
 TP6ah  X1vh  1 3.950000e-01    1.670000e+00
 TP6ah  C6eh  1 3.980000e-01    1.450000e+00
 TP6ah  C5eh  1 3.990000e-01    1.180000e+00
 TP6ah  C4eh  1 4.010000e-01    9.830000e-01
 TP6ah  C3eh  1 4.040000e-01    8.300000e-01
 TP6ah  C2eh  1 4.040000e-01    8.300000e-01
 TP6ah  C1eh  1 5.110000e-01    6.590000e-01
 TP6ah  X4eh  1 3.950000e-01    1.670000e+00
 TP6ah  X3eh  1 3.950000e-01    1.670000e+00
 TP6ah  X2eh  1 3.980000e-01    1.450000e+00
 TP6ah  X1eh  1 3.990000e-01    1.180000e+00
 TP5ah   C6h  1 3.950000e-01    1.670000e+00
 TP5ah   C5h  1 3.950000e-01    1.670000e+00
 TP5ah   C4h  1 3.980000e-01    1.450000e+00
 TP5ah   C3h  1 3.990000e-01    1.180000e+00
 TP5ah   C2h  1 3.990000e-01    1.180000e+00
 TP5ah   C1h  1 4.010000e-01    9.830000e-01
 TP5ah   X4h  1 3.950000e-01    2.110000e+00
 TP5ah   X3h  1 3.950000e-01    1.850000e+00
 TP5ah   X2h  1 3.950000e-01    1.850000e+00
 TP5ah   X1h  1 3.980000e-01    1.450000e+00
 TP5ah  C6vh  1 3.950000e-01    1.850000e+00
 TP5ah  C5vh  1 3.950000e-01    1.850000e+00
 TP5ah  C4vh  1 3.950000e-01    1.670000e+00
 TP5ah  C3vh  1 3.980000e-01    1.450000e+00
 TP5ah  C2vh  1 3.980000e-01    1.450000e+00
 TP5ah  C1vh  1 3.990000e-01    1.180000e+00
 TP5ah  X4vh  1 3.950000e-01    2.310000e+00
 TP5ah  X3vh  1 3.950000e-01    2.110000e+00
 TP5ah  X2vh  1 3.950000e-01    2.110000e+00
 TP5ah  X1vh  1 3.950000e-01    1.670000e+00
 TP5ah  C6eh  1 3.980000e-01    1.450000e+00
 TP5ah  C5eh  1 3.980000e-01    1.450000e+00
 TP5ah  C4eh  1 3.990000e-01    1.180000e+00
 TP5ah  C3eh  1 4.010000e-01    9.830000e-01
 TP5ah  C2eh  1 4.010000e-01    9.830000e-01
 TP5ah  C1eh  1 4.040000e-01    8.300000e-01
 TP5ah  X4eh  1 3.950000e-01    1.850000e+00
 TP5ah  X3eh  1 3.950000e-01    1.670000e+00
 TP5ah  X2eh  1 3.950000e-01    1.670000e+00
 TP5ah  X1eh  1 3.990000e-01    1.180000e+00
 TP4ah   C6h  1 3.950000e-01    1.850000e+00
 TP4ah   C5h  1 3.950000e-01    1.670000e+00
 TP4ah   C4h  1 3.980000e-01    1.450000e+00
 TP4ah   C3h  1 3.990000e-01    1.180000e+00
 TP4ah   C2h  1 3.990000e-01    1.180000e+00
 TP4ah   C1h  1 4.010000e-01    9.830000e-01
 TP4ah   X4h  1 3.950000e-01    2.110000e+00
 TP4ah   X3h  1 3.950000e-01    1.850000e+00
 TP4ah   X2h  1 3.950000e-01    1.850000e+00
 TP4ah   X1h  1 3.950000e-01    1.670000e+00
 TP4ah  C6vh  1 3.950000e-01    2.110000e+00
 TP4ah  C5vh  1 3.950000e-01    1.850000e+00
 TP4ah  C4vh  1 3.950000e-01    1.670000e+00
 TP4ah  C3vh  1 3.980000e-01    1.450000e+00
 TP4ah  C2vh  1 3.980000e-01    1.450000e+00
 TP4ah  C1vh  1 3.990000e-01    1.180000e+00
 TP4ah  X4vh  1 3.950000e-01    2.310000e+00
 TP4ah  X3vh  1 3.950000e-01    2.110000e+00
 TP4ah  X2vh  1 3.950000e-01    2.110000e+00
 TP4ah  X1vh  1 3.950000e-01    1.850000e+00
 TP4ah  C6eh  1 3.950000e-01    1.670000e+00
 TP4ah  C5eh  1 3.980000e-01    1.450000e+00
 TP4ah  C4eh  1 3.990000e-01    1.180000e+00
 TP4ah  C3eh  1 4.010000e-01    9.830000e-01
 TP4ah  C2eh  1 4.010000e-01    9.830000e-01
 TP4ah  C1eh  1 4.040000e-01    8.300000e-01
 TP4ah  X4eh  1 3.950000e-01    1.850000e+00
 TP4ah  X3eh  1 3.950000e-01    1.670000e+00
 TP4ah  X2eh  1 3.950000e-01    1.670000e+00
 TP4ah  X1eh  1 3.980000e-01    1.450000e+00
 TP3ah   C6h  1 3.950000e-01    2.110000e+00
 TP3ah   C5h  1 3.950000e-01    1.850000e+00
 TP3ah   C4h  1 3.950000e-01    1.670000e+00
 TP3ah   C3h  1 3.990000e-01    1.180000e+00
 TP3ah   C2h  1 3.990000e-01    1.180000e+00
 TP3ah   C1h  1 4.010000e-01    9.830000e-01
 TP3ah   X4h  1 3.950000e-01    2.110000e+00
 TP3ah   X3h  1 3.950000e-01    2.110000e+00
 TP3ah   X2h  1 3.950000e-01    1.850000e+00
 TP3ah   X1h  1 3.950000e-01    1.670000e+00
 TP3ah  C6vh  1 3.950000e-01    2.310000e+00
 TP3ah  C5vh  1 3.950000e-01    2.110000e+00
 TP3ah  C4vh  1 3.950000e-01    1.850000e+00
 TP3ah  C3vh  1 3.980000e-01    1.450000e+00
 TP3ah  C2vh  1 3.980000e-01    1.450000e+00
 TP3ah  C1vh  1 3.990000e-01    1.180000e+00
 TP3ah  X4vh  1 3.950000e-01    2.310000e+00
 TP3ah  X3vh  1 3.950000e-01    2.310000e+00
 TP3ah  X2vh  1 3.950000e-01    2.110000e+00
 TP3ah  X1vh  1 3.950000e-01    1.850000e+00
 TP3ah  C6eh  1 3.950000e-01    1.850000e+00
 TP3ah  C5eh  1 3.950000e-01    1.670000e+00
 TP3ah  C4eh  1 3.980000e-01    1.450000e+00
 TP3ah  C3eh  1 4.010000e-01    9.830000e-01
 TP3ah  C2eh  1 4.010000e-01    9.830000e-01
 TP3ah  C1eh  1 4.040000e-01    8.300000e-01
 TP3ah  X4eh  1 3.950000e-01    1.850000e+00
 TP3ah  X3eh  1 3.950000e-01    1.850000e+00
 TP3ah  X2eh  1 3.950000e-01    1.670000e+00
 TP3ah  X1eh  1 3.980000e-01    1.450000e+00
 TP2ah   C6h  1 3.950000e-01    2.110000e+00
 TP2ah   C5h  1 3.950000e-01    1.850000e+00
 TP2ah   C4h  1 3.950000e-01    1.670000e+00
 TP2ah   C3h  1 3.980000e-01    1.450000e+00
 TP2ah   C2h  1 3.980000e-01    1.450000e+00
 TP2ah   C1h  1 3.990000e-01    1.180000e+00
 TP2ah   X4h  1 3.950000e-01    2.110000e+00
 TP2ah   X3h  1 3.950000e-01    2.110000e+00
 TP2ah   X2h  1 3.950000e-01    1.850000e+00
 TP2ah   X1h  1 3.950000e-01    1.670000e+00
 TP2ah  C6vh  1 3.950000e-01    2.310000e+00
 TP2ah  C5vh  1 3.950000e-01    2.110000e+00
 TP2ah  C4vh  1 3.950000e-01    1.850000e+00
 TP2ah  C3vh  1 3.950000e-01    1.670000e+00
 TP2ah  C2vh  1 3.950000e-01    1.670000e+00
 TP2ah  C1vh  1 3.980000e-01    1.450000e+00
 TP2ah  X4vh  1 3.950000e-01    2.310000e+00
 TP2ah  X3vh  1 3.950000e-01    2.310000e+00
 TP2ah  X2vh  1 3.950000e-01    2.110000e+00
 TP2ah  X1vh  1 3.950000e-01    1.850000e+00
 TP2ah  C6eh  1 3.950000e-01    1.850000e+00
 TP2ah  C5eh  1 3.950000e-01    1.670000e+00
 TP2ah  C4eh  1 3.980000e-01    1.450000e+00
 TP2ah  C3eh  1 3.990000e-01    1.180000e+00
 TP2ah  C2eh  1 3.990000e-01    1.180000e+00
 TP2ah  C1eh  1 4.010000e-01    9.830000e-01
 TP2ah  X4eh  1 3.950000e-01    1.850000e+00
 TP2ah  X3eh  1 3.950000e-01    1.850000e+00
 TP2ah  X2eh  1 3.950000e-01    1.670000e+00
 TP2ah  X1eh  1 3.980000e-01    1.450000e+00
 TP1ah   C6h  1 3.950000e-01    2.110000e+00
 TP1ah   C5h  1 3.950000e-01    1.850000e+00
 TP1ah   C4h  1 3.950000e-01    1.670000e+00
 TP1ah   C3h  1 3.980000e-01    1.450000e+00
 TP1ah   C2h  1 3.980000e-01    1.450000e+00
 TP1ah   C1h  1 3.990000e-01    1.180000e+00
 TP1ah   X4h  1 3.950000e-01    2.110000e+00
 TP1ah   X3h  1 3.950000e-01    2.110000e+00
 TP1ah   X2h  1 3.950000e-01    1.850000e+00
 TP1ah   X1h  1 3.950000e-01    1.670000e+00
 TP1ah  C6vh  1 3.950000e-01    2.310000e+00
 TP1ah  C5vh  1 3.950000e-01    2.110000e+00
 TP1ah  C4vh  1 3.950000e-01    1.850000e+00
 TP1ah  C3vh  1 3.950000e-01    1.670000e+00
 TP1ah  C2vh  1 3.950000e-01    1.670000e+00
 TP1ah  C1vh  1 3.980000e-01    1.450000e+00
 TP1ah  X4vh  1 3.950000e-01    2.310000e+00
 TP1ah  X3vh  1 3.950000e-01    2.310000e+00
 TP1ah  X2vh  1 3.950000e-01    2.110000e+00
 TP1ah  X1vh  1 3.950000e-01    1.850000e+00
 TP1ah  C6eh  1 3.950000e-01    1.850000e+00
 TP1ah  C5eh  1 3.950000e-01    1.670000e+00
 TP1ah  C4eh  1 3.980000e-01    1.450000e+00
 TP1ah  C3eh  1 3.990000e-01    1.180000e+00
 TP1ah  C2eh  1 3.990000e-01    1.180000e+00
 TP1ah  C1eh  1 4.010000e-01    9.830000e-01
 TP1ah  X4eh  1 3.950000e-01    1.850000e+00
 TP1ah  X3eh  1 3.950000e-01    1.850000e+00
 TP1ah  X2eh  1 3.950000e-01    1.670000e+00
 TP1ah  X1eh  1 3.980000e-01    1.450000e+00
 TN6ah   C6h  1 3.950000e-01    2.310000e+00
 TN6ah   C5h  1 3.950000e-01    2.110000e+00
 TN6ah   C4h  1 3.950000e-01    1.850000e+00
 TN6ah   C3h  1 3.950000e-01    1.670000e+00
 TN6ah   C2h  1 3.950000e-01    1.670000e+00
 TN6ah   C1h  1 3.980000e-01    1.450000e+00
 TN6ah   X4h  1 3.950000e-01    2.310000e+00
 TN6ah   X3h  1 3.950000e-01    2.110000e+00
 TN6ah   X2h  1 3.950000e-01    1.850000e+00
 TN6ah   X1h  1 3.950000e-01    1.670000e+00
 TN6ah  C6vh  1 3.950000e-01    2.500000e+00
 TN6ah  C5vh  1 3.950000e-01    2.310000e+00
 TN6ah  C4vh  1 3.950000e-01    2.110000e+00
 TN6ah  C3vh  1 3.950000e-01    1.850000e+00
 TN6ah  C2vh  1 3.950000e-01    1.850000e+00
 TN6ah  C1vh  1 3.950000e-01    1.670000e+00
 TN6ah  X4vh  1 3.950000e-01    2.500000e+00
 TN6ah  X3vh  1 3.950000e-01    2.310000e+00
 TN6ah  X2vh  1 3.950000e-01    2.110000e+00
 TN6ah  X1vh  1 3.950000e-01    1.850000e+00
 TN6ah  C6eh  1 3.950000e-01    2.110000e+00
 TN6ah  C5eh  1 3.950000e-01    1.850000e+00
 TN6ah  C4eh  1 3.950000e-01    1.670000e+00
 TN6ah  C3eh  1 3.980000e-01    1.450000e+00
 TN6ah  C2eh  1 3.980000e-01    1.450000e+00
 TN6ah  C1eh  1 3.990000e-01    1.180000e+00
 TN6ah  X4eh  1 3.950000e-01    2.110000e+00
 TN6ah  X3eh  1 3.950000e-01    1.850000e+00
 TN6ah  X2eh  1 3.950000e-01    1.670000e+00
 TN6ah  X1eh  1 3.980000e-01    1.450000e+00
 TN5ah   C6h  1 3.950000e-01    2.310000e+00
 TN5ah   C5h  1 3.950000e-01    2.110000e+00
 TN5ah   C4h  1 3.950000e-01    1.850000e+00
 TN5ah   C3h  1 3.950000e-01    1.850000e+00
 TN5ah   C2h  1 3.950000e-01    1.670000e+00
 TN5ah   C1h  1 3.980000e-01    1.450000e+00
 TN5ah   X4h  1 3.950000e-01    2.500000e+00
 TN5ah   X3h  1 3.950000e-01    2.310000e+00
 TN5ah   X2h  1 3.950000e-01    2.110000e+00
 TN5ah   X1h  1 3.950000e-01    1.850000e+00
 TN5ah  C6vh  1 3.950000e-01    2.500000e+00
 TN5ah  C5vh  1 3.950000e-01    2.310000e+00
 TN5ah  C4vh  1 3.950000e-01    2.110000e+00
 TN5ah  C3vh  1 3.950000e-01    2.110000e+00
 TN5ah  C2vh  1 3.950000e-01    1.850000e+00
 TN5ah  C1vh  1 3.950000e-01    1.670000e+00
 TN5ah  X4vh  1 3.950000e-01    2.700000e+00
 TN5ah  X3vh  1 3.950000e-01    2.500000e+00
 TN5ah  X2vh  1 3.950000e-01    2.310000e+00
 TN5ah  X1vh  1 3.950000e-01    2.110000e+00
 TN5ah  C6eh  1 3.950000e-01    2.110000e+00
 TN5ah  C5eh  1 3.950000e-01    1.850000e+00
 TN5ah  C4eh  1 3.950000e-01    1.670000e+00
 TN5ah  C3eh  1 3.950000e-01    1.670000e+00
 TN5ah  C2eh  1 3.980000e-01    1.450000e+00
 TN5ah  C1eh  1 3.990000e-01    1.180000e+00
 TN5ah  X4eh  1 3.950000e-01    2.310000e+00
 TN5ah  X3eh  1 3.950000e-01    2.110000e+00
 TN5ah  X2eh  1 3.950000e-01    1.850000e+00
 TN5ah  X1eh  1 3.950000e-01    1.670000e+00
 TN4ah   C6h  1 3.950000e-01    2.310000e+00
 TN4ah   C5h  1 3.950000e-01    2.110000e+00
 TN4ah   C4h  1 3.950000e-01    2.110000e+00
 TN4ah   C3h  1 3.950000e-01    1.850000e+00
 TN4ah   C2h  1 3.950000e-01    1.670000e+00
 TN4ah   C1h  1 3.980000e-01    1.450000e+00
 TN4ah   X4h  1 3.950000e-01    2.700000e+00
 TN4ah   X3h  1 3.950000e-01    2.500000e+00
 TN4ah   X2h  1 3.950000e-01    2.110000e+00
 TN4ah   X1h  1 3.950000e-01    1.850000e+00
 TN4ah  C6vh  1 3.950000e-01    2.500000e+00
 TN4ah  C5vh  1 3.950000e-01    2.310000e+00
 TN4ah  C4vh  1 3.950000e-01    2.310000e+00
 TN4ah  C3vh  1 3.950000e-01    2.110000e+00
 TN4ah  C2vh  1 3.950000e-01    1.850000e+00
 TN4ah  C1vh  1 3.950000e-01    1.670000e+00
 TN4ah  X4vh  1 3.950000e-01    2.940000e+00
 TN4ah  X3vh  1 3.950000e-01    2.700000e+00
 TN4ah  X2vh  1 3.950000e-01    2.310000e+00
 TN4ah  X1vh  1 3.950000e-01    2.110000e+00
 TN4ah  C6eh  1 3.950000e-01    2.110000e+00
 TN4ah  C5eh  1 3.950000e-01    1.850000e+00
 TN4ah  C4eh  1 3.950000e-01    1.850000e+00
 TN4ah  C3eh  1 3.950000e-01    1.670000e+00
 TN4ah  C2eh  1 3.980000e-01    1.450000e+00
 TN4ah  C1eh  1 3.990000e-01    1.180000e+00
 TN4ah  X4eh  1 3.950000e-01    2.500000e+00
 TN4ah  X3eh  1 3.950000e-01    2.310000e+00
 TN4ah  X2eh  1 3.950000e-01    1.850000e+00
 TN4ah  X1eh  1 3.950000e-01    1.670000e+00
 TN3ah   C6h  1 3.950000e-01    2.310000e+00
 TN3ah   C5h  1 3.950000e-01    2.110000e+00
 TN3ah   C4h  1 3.950000e-01    2.110000e+00
 TN3ah   C3h  1 3.950000e-01    1.850000e+00
 TN3ah   C2h  1 3.950000e-01    1.850000e+00
 TN3ah   C1h  1 3.950000e-01    1.670000e+00
 TN3ah   X4h  1 3.950000e-01    2.500000e+00
 TN3ah   X3h  1 3.950000e-01    2.310000e+00
 TN3ah   X2h  1 3.950000e-01    2.110000e+00
 TN3ah   X1h  1 3.950000e-01    2.110000e+00
 TN3ah  C6vh  1 3.950000e-01    2.500000e+00
 TN3ah  C5vh  1 3.950000e-01    2.310000e+00
 TN3ah  C4vh  1 3.950000e-01    2.310000e+00
 TN3ah  C3vh  1 3.950000e-01    2.110000e+00
 TN3ah  C2vh  1 3.950000e-01    2.110000e+00
 TN3ah  C1vh  1 3.950000e-01    1.850000e+00
 TN3ah  X4vh  1 3.950000e-01    2.700000e+00
 TN3ah  X3vh  1 3.950000e-01    2.500000e+00
 TN3ah  X2vh  1 3.950000e-01    2.310000e+00
 TN3ah  X1vh  1 3.950000e-01    2.310000e+00
 TN3ah  C6eh  1 3.950000e-01    2.110000e+00
 TN3ah  C5eh  1 3.950000e-01    1.850000e+00
 TN3ah  C4eh  1 3.950000e-01    1.850000e+00
 TN3ah  C3eh  1 3.950000e-01    1.670000e+00
 TN3ah  C2eh  1 3.950000e-01    1.670000e+00
 TN3ah  C1eh  1 3.980000e-01    1.450000e+00
 TN3ah  X4eh  1 3.950000e-01    2.310000e+00
 TN3ah  X3eh  1 3.950000e-01    2.110000e+00
 TN3ah  X2eh  1 3.950000e-01    1.850000e+00
 TN3ah  X1eh  1 3.950000e-01    1.850000e+00
 TN2ah   C6h  1 3.950000e-01    2.310000e+00
 TN2ah   C5h  1 3.950000e-01    2.110000e+00
 TN2ah   C4h  1 3.950000e-01    2.110000e+00
 TN2ah   C3h  1 3.950000e-01    2.110000e+00
 TN2ah   C2h  1 3.950000e-01    1.850000e+00
 TN2ah   C1h  1 3.950000e-01    1.670000e+00
 TN2ah   X4h  1 3.950000e-01    2.500000e+00
 TN2ah   X3h  1 3.950000e-01    2.310000e+00
 TN2ah   X2h  1 3.950000e-01    2.110000e+00
 TN2ah   X1h  1 3.950000e-01    2.110000e+00
 TN2ah  C6vh  1 3.950000e-01    2.500000e+00
 TN2ah  C5vh  1 3.950000e-01    2.310000e+00
 TN2ah  C4vh  1 3.950000e-01    2.310000e+00
 TN2ah  C3vh  1 3.950000e-01    2.310000e+00
 TN2ah  C2vh  1 3.950000e-01    2.110000e+00
 TN2ah  C1vh  1 3.950000e-01    1.850000e+00
 TN2ah  X4vh  1 3.950000e-01    2.700000e+00
 TN2ah  X3vh  1 3.950000e-01    2.500000e+00
 TN2ah  X2vh  1 3.950000e-01    2.310000e+00
 TN2ah  X1vh  1 3.950000e-01    2.310000e+00
 TN2ah  C6eh  1 3.950000e-01    2.110000e+00
 TN2ah  C5eh  1 3.950000e-01    1.850000e+00
 TN2ah  C4eh  1 3.950000e-01    1.850000e+00
 TN2ah  C3eh  1 3.950000e-01    1.850000e+00
 TN2ah  C2eh  1 3.950000e-01    1.670000e+00
 TN2ah  C1eh  1 3.980000e-01    1.450000e+00
 TN2ah  X4eh  1 3.950000e-01    2.310000e+00
 TN2ah  X3eh  1 3.950000e-01    2.110000e+00
 TN2ah  X2eh  1 3.950000e-01    1.850000e+00
 TN2ah  X1eh  1 3.950000e-01    1.850000e+00
 TN1ah   C6h  1 3.950000e-01    2.500000e+00
 TN1ah   C5h  1 3.950000e-01    2.310000e+00
 TN1ah   C4h  1 3.950000e-01    2.310000e+00
 TN1ah   C3h  1 3.950000e-01    2.110000e+00
 TN1ah   C2h  1 3.950000e-01    1.850000e+00
 TN1ah   C1h  1 3.950000e-01    1.670000e+00
 TN1ah   X4h  1 3.950000e-01    2.310000e+00
 TN1ah   X3h  1 3.950000e-01    2.310000e+00
 TN1ah   X2h  1 3.950000e-01    2.110000e+00
 TN1ah   X1h  1 3.950000e-01    2.110000e+00
 TN1ah  C6vh  1 3.950000e-01    2.700000e+00
 TN1ah  C5vh  1 3.950000e-01    2.500000e+00
 TN1ah  C4vh  1 3.950000e-01    2.500000e+00
 TN1ah  C3vh  1 3.950000e-01    2.310000e+00
 TN1ah  C2vh  1 3.950000e-01    2.110000e+00
 TN1ah  C1vh  1 3.950000e-01    1.850000e+00
 TN1ah  X4vh  1 3.950000e-01    2.500000e+00
 TN1ah  X3vh  1 3.950000e-01    2.500000e+00
 TN1ah  X2vh  1 3.950000e-01    2.310000e+00
 TN1ah  X1vh  1 3.950000e-01    2.310000e+00
 TN1ah  C6eh  1 3.950000e-01    2.310000e+00
 TN1ah  C5eh  1 3.950000e-01    2.110000e+00
 TN1ah  C4eh  1 3.950000e-01    2.110000e+00
 TN1ah  C3eh  1 3.950000e-01    1.850000e+00
 TN1ah  C2eh  1 3.950000e-01    1.670000e+00
 TN1ah  C1eh  1 3.980000e-01    1.450000e+00
 TN1ah  X4eh  1 3.950000e-01    2.110000e+00
 TN1ah  X3eh  1 3.950000e-01    2.110000e+00
 TN1ah  X2eh  1 3.950000e-01    1.850000e+00
 TN1ah  X1eh  1 3.950000e-01    1.850000e+00
  TP6h   P6r  1 3.950000e-01    4.230000e+00
  TP6h   P5r  1 3.950000e-01    3.910000e+00
  TP6r   P5h  1 3.950000e-01    3.910000e+00
  TP6h   P4r  1 3.950000e-01    3.670000e+00
  TP6r   P4h  1 3.950000e-01    3.670000e+00
  TP6h   P3r  1 3.950000e-01    3.430000e+00
  TP6r   P3h  1 3.950000e-01    3.430000e+00
  TP6h   P2r  1 3.950000e-01    3.430000e+00
  TP6r   P2h  1 3.950000e-01    3.430000e+00
  TP6h   P1r  1 3.950000e-01    3.190000e+00
  TP6r   P1h  1 3.950000e-01    3.190000e+00
  TP6h   N6r  1 3.950000e-01    2.940000e+00
  TP6r   N6h  1 3.950000e-01    2.940000e+00
  TP6h   N5r  1 3.950000e-01    2.500000e+00
  TP6r   N5h  1 3.950000e-01    2.500000e+00
  TP6h   N4r  1 3.950000e-01    2.310000e+00
  TP6r   N4h  1 3.950000e-01    2.310000e+00
  TP6h   N3r  1 3.950000e-01    2.110000e+00
  TP6r   N3h  1 3.950000e-01    2.110000e+00
  TP6h   N2r  1 3.950000e-01    1.850000e+00
  TP6r   N2h  1 3.950000e-01    1.850000e+00
  TP6h   N1r  1 3.950000e-01    1.670000e+00
  TP6r   N1h  1 3.950000e-01    1.670000e+00
  TP6h  P6dr  1 3.950000e-01    4.230000e+00
  TP6r  P6dh  1 3.950000e-01    4.230000e+00
  TP6h  P5dr  1 3.950000e-01    3.910000e+00
  TP6r  P5dh  1 3.950000e-01    3.910000e+00
  TP6h  P4dr  1 3.950000e-01    3.670000e+00
  TP6r  P4dh  1 3.950000e-01    3.670000e+00
  TP6h  P3dr  1 3.950000e-01    3.430000e+00
  TP6r  P3dh  1 3.950000e-01    3.430000e+00
  TP6h  P2dr  1 3.950000e-01    3.430000e+00
  TP6r  P2dh  1 3.950000e-01    3.430000e+00
  TP6h  P1dr  1 3.950000e-01    3.190000e+00
  TP6r  P1dh  1 3.950000e-01    3.190000e+00
  TP6h  N6dr  1 3.950000e-01    2.940000e+00
  TP6r  N6dh  1 3.950000e-01    2.940000e+00
  TP6h  N5dr  1 3.950000e-01    2.500000e+00
  TP6r  N5dh  1 3.950000e-01    2.500000e+00
  TP6h  N4dr  1 3.950000e-01    2.310000e+00
  TP6r  N4dh  1 3.950000e-01    2.310000e+00
  TP6h  N3dr  1 3.950000e-01    2.110000e+00
  TP6r  N3dh  1 3.950000e-01    2.110000e+00
  TP6h  N2dr  1 3.950000e-01    1.850000e+00
  TP6r  N2dh  1 3.950000e-01    1.850000e+00
  TP6h  N1dr  1 3.950000e-01    1.670000e+00
  TP6r  N1dh  1 3.950000e-01    1.670000e+00
  TP6h  P6ar  1 3.950000e-01    4.230000e+00
  TP6r  P6ah  1 3.950000e-01    4.230000e+00
  TP6h  P5ar  1 3.950000e-01    3.910000e+00
  TP6r  P5ah  1 3.950000e-01    3.910000e+00
  TP6h  P4ar  1 3.950000e-01    3.670000e+00
  TP6r  P4ah  1 3.950000e-01    3.670000e+00
  TP6h  P3ar  1 3.950000e-01    3.430000e+00
  TP6r  P3ah  1 3.950000e-01    3.430000e+00
  TP6h  P2ar  1 3.950000e-01    3.430000e+00
  TP6r  P2ah  1 3.950000e-01    3.430000e+00
  TP6h  P1ar  1 3.950000e-01    3.190000e+00
  TP6r  P1ah  1 3.950000e-01    3.190000e+00
  TP6h  N6ar  1 3.950000e-01    2.940000e+00
  TP6r  N6ah  1 3.950000e-01    2.940000e+00
  TP6h  N5ar  1 3.950000e-01    2.500000e+00
  TP6r  N5ah  1 3.950000e-01    2.500000e+00
  TP6h  N4ar  1 3.950000e-01    2.310000e+00
  TP6r  N4ah  1 3.950000e-01    2.310000e+00
  TP6h  N3ar  1 3.950000e-01    2.110000e+00
  TP6r  N3ah  1 3.950000e-01    2.110000e+00
  TP6h  N2ar  1 3.950000e-01    1.850000e+00
  TP6r  N2ah  1 3.950000e-01    1.850000e+00
  TP6h  N1ar  1 3.950000e-01    1.670000e+00
  TP6r  N1ah  1 3.950000e-01    1.670000e+00
  TP5h   P5r  1 3.950000e-01    3.670000e+00
  TP5h   P4r  1 3.950000e-01    3.430000e+00
  TP5r   P4h  1 3.950000e-01    3.430000e+00
  TP5h   P3r  1 3.950000e-01    3.190000e+00
  TP5r   P3h  1 3.950000e-01    3.190000e+00
  TP5h   P2r  1 3.950000e-01    3.190000e+00
  TP5r   P2h  1 3.950000e-01    3.190000e+00
  TP5h   P1r  1 3.950000e-01    2.940000e+00
  TP5r   P1h  1 3.950000e-01    2.940000e+00
  TP5h   N6r  1 3.950000e-01    2.700000e+00
  TP5r   N6h  1 3.950000e-01    2.700000e+00
  TP5h   N5r  1 3.950000e-01    2.500000e+00
  TP5r   N5h  1 3.950000e-01    2.500000e+00
  TP5h   N4r  1 3.950000e-01    2.500000e+00
  TP5r   N4h  1 3.950000e-01    2.500000e+00
  TP5h   N3r  1 3.950000e-01    2.110000e+00
  TP5r   N3h  1 3.950000e-01    2.110000e+00
  TP5h   N2r  1 3.950000e-01    1.850000e+00
  TP5r   N2h  1 3.950000e-01    1.850000e+00
  TP5h   N1r  1 3.950000e-01    1.670000e+00
  TP5r   N1h  1 3.950000e-01    1.670000e+00
  TP5h  P5dr  1 3.950000e-01    3.670000e+00
  TP5r  P5dh  1 3.950000e-01    3.670000e+00
  TP5h  P4dr  1 3.950000e-01    3.430000e+00
  TP5r  P4dh  1 3.950000e-01    3.430000e+00
  TP5h  P3dr  1 3.950000e-01    3.190000e+00
  TP5r  P3dh  1 3.950000e-01    3.190000e+00
  TP5h  P2dr  1 3.950000e-01    3.190000e+00
  TP5r  P2dh  1 3.950000e-01    3.190000e+00
  TP5h  P1dr  1 3.950000e-01    2.940000e+00
  TP5r  P1dh  1 3.950000e-01    2.940000e+00
  TP5h  N6dr  1 3.950000e-01    2.700000e+00
  TP5r  N6dh  1 3.950000e-01    2.700000e+00
  TP5h  N5dr  1 3.950000e-01    2.500000e+00
  TP5r  N5dh  1 3.950000e-01    2.500000e+00
  TP5h  N4dr  1 3.950000e-01    2.500000e+00
  TP5r  N4dh  1 3.950000e-01    2.500000e+00
  TP5h  N3dr  1 3.950000e-01    2.110000e+00
  TP5r  N3dh  1 3.950000e-01    2.110000e+00
  TP5h  N2dr  1 3.950000e-01    1.850000e+00
  TP5r  N2dh  1 3.950000e-01    1.850000e+00
  TP5h  N1dr  1 3.950000e-01    1.670000e+00
  TP5r  N1dh  1 3.950000e-01    1.670000e+00
  TP5h  P5ar  1 3.950000e-01    3.670000e+00
  TP5r  P5ah  1 3.950000e-01    3.670000e+00
  TP5h  P4ar  1 3.950000e-01    3.430000e+00
  TP5r  P4ah  1 3.950000e-01    3.430000e+00
  TP5h  P3ar  1 3.950000e-01    3.190000e+00
  TP5r  P3ah  1 3.950000e-01    3.190000e+00
  TP5h  P2ar  1 3.950000e-01    3.190000e+00
  TP5r  P2ah  1 3.950000e-01    3.190000e+00
  TP5h  P1ar  1 3.950000e-01    2.940000e+00
  TP5r  P1ah  1 3.950000e-01    2.940000e+00
  TP5h  N6ar  1 3.950000e-01    2.700000e+00
  TP5r  N6ah  1 3.950000e-01    2.700000e+00
  TP5h  N5ar  1 3.950000e-01    2.500000e+00
  TP5r  N5ah  1 3.950000e-01    2.500000e+00
  TP5h  N4ar  1 3.950000e-01    2.500000e+00
  TP5r  N4ah  1 3.950000e-01    2.500000e+00
  TP5h  N3ar  1 3.950000e-01    2.110000e+00
  TP5r  N3ah  1 3.950000e-01    2.110000e+00
  TP5h  N2ar  1 3.950000e-01    1.850000e+00
  TP5r  N2ah  1 3.950000e-01    1.850000e+00
  TP5h  N1ar  1 3.950000e-01    1.670000e+00
  TP5r  N1ah  1 3.950000e-01    1.670000e+00
  TP4h   P4r  1 3.950000e-01    3.430000e+00
  TP4h   P3r  1 3.950000e-01    3.190000e+00
  TP4r   P3h  1 3.950000e-01    3.190000e+00
  TP4h   P2r  1 3.950000e-01    3.190000e+00
  TP4r   P2h  1 3.950000e-01    3.190000e+00
  TP4h   P1r  1 3.950000e-01    2.940000e+00
  TP4r   P1h  1 3.950000e-01    2.940000e+00
  TP4h   N6r  1 3.950000e-01    2.700000e+00
  TP4r   N6h  1 3.950000e-01    2.700000e+00
  TP4h   N5r  1 3.950000e-01    2.500000e+00
  TP4r   N5h  1 3.950000e-01    2.500000e+00
  TP4h   N4r  1 3.950000e-01    2.500000e+00
  TP4r   N4h  1 3.950000e-01    2.500000e+00
  TP4h   N3r  1 3.950000e-01    2.310000e+00
  TP4r   N3h  1 3.950000e-01    2.310000e+00
  TP4h   N2r  1 3.950000e-01    2.110000e+00
  TP4r   N2h  1 3.950000e-01    2.110000e+00
  TP4h   N1r  1 3.950000e-01    1.850000e+00
  TP4r   N1h  1 3.950000e-01    1.850000e+00
  TP4h  P4dr  1 3.950000e-01    3.430000e+00
  TP4r  P4dh  1 3.950000e-01    3.430000e+00
  TP4h  P3dr  1 3.950000e-01    3.190000e+00
  TP4r  P3dh  1 3.950000e-01    3.190000e+00
  TP4h  P2dr  1 3.950000e-01    3.190000e+00
  TP4r  P2dh  1 3.950000e-01    3.190000e+00
  TP4h  P1dr  1 3.950000e-01    2.940000e+00
  TP4r  P1dh  1 3.950000e-01    2.940000e+00
  TP4h  N6dr  1 3.950000e-01    2.700000e+00
  TP4r  N6dh  1 3.950000e-01    2.700000e+00
  TP4h  N5dr  1 3.950000e-01    2.500000e+00
  TP4r  N5dh  1 3.950000e-01    2.500000e+00
  TP4h  N4dr  1 3.950000e-01    2.500000e+00
  TP4r  N4dh  1 3.950000e-01    2.500000e+00
  TP4h  N3dr  1 3.950000e-01    2.310000e+00
  TP4r  N3dh  1 3.950000e-01    2.310000e+00
  TP4h  N2dr  1 3.950000e-01    2.110000e+00
  TP4r  N2dh  1 3.950000e-01    2.110000e+00
  TP4h  N1dr  1 3.950000e-01    1.850000e+00
  TP4r  N1dh  1 3.950000e-01    1.850000e+00
  TP4h  P4ar  1 3.950000e-01    3.430000e+00
  TP4r  P4ah  1 3.950000e-01    3.430000e+00
  TP4h  P3ar  1 3.950000e-01    3.190000e+00
  TP4r  P3ah  1 3.950000e-01    3.190000e+00
  TP4h  P2ar  1 3.950000e-01    3.190000e+00
  TP4r  P2ah  1 3.950000e-01    3.190000e+00
  TP4h  P1ar  1 3.950000e-01    2.940000e+00
  TP4r  P1ah  1 3.950000e-01    2.940000e+00
  TP4h  N6ar  1 3.950000e-01    2.700000e+00
  TP4r  N6ah  1 3.950000e-01    2.700000e+00
  TP4h  N5ar  1 3.950000e-01    2.500000e+00
  TP4r  N5ah  1 3.950000e-01    2.500000e+00
  TP4h  N4ar  1 3.950000e-01    2.500000e+00
  TP4r  N4ah  1 3.950000e-01    2.500000e+00
  TP4h  N3ar  1 3.950000e-01    2.310000e+00
  TP4r  N3ah  1 3.950000e-01    2.310000e+00
  TP4h  N2ar  1 3.950000e-01    2.110000e+00
  TP4r  N2ah  1 3.950000e-01    2.110000e+00
  TP4h  N1ar  1 3.950000e-01    1.850000e+00
  TP4r  N1ah  1 3.950000e-01    1.850000e+00
  TP3h   P3r  1 3.950000e-01    3.190000e+00
  TP3h   P2r  1 3.950000e-01    3.190000e+00
  TP3r   P2h  1 3.950000e-01    3.190000e+00
  TP3h   P1r  1 3.950000e-01    2.940000e+00
  TP3r   P1h  1 3.950000e-01    2.940000e+00
  TP3h   N6r  1 3.950000e-01    2.700000e+00
  TP3r   N6h  1 3.950000e-01    2.700000e+00
  TP3h   N5r  1 3.950000e-01    2.500000e+00
  TP3r   N5h  1 3.950000e-01    2.500000e+00
  TP3h   N4r  1 3.950000e-01    2.500000e+00
  TP3r   N4h  1 3.950000e-01    2.500000e+00
  TP3h   N3r  1 3.950000e-01    2.310000e+00
  TP3r   N3h  1 3.950000e-01    2.310000e+00
  TP3h   N2r  1 3.950000e-01    2.310000e+00
  TP3r   N2h  1 3.950000e-01    2.310000e+00
  TP3h   N1r  1 3.950000e-01    2.110000e+00
  TP3r   N1h  1 3.950000e-01    2.110000e+00
  TP3h  P3dr  1 3.950000e-01    3.190000e+00
  TP3r  P3dh  1 3.950000e-01    3.190000e+00
  TP3h  P2dr  1 3.950000e-01    3.190000e+00
  TP3r  P2dh  1 3.950000e-01    3.190000e+00
  TP3h  P1dr  1 3.950000e-01    2.940000e+00
  TP3r  P1dh  1 3.950000e-01    2.940000e+00
  TP3h  N6dr  1 3.950000e-01    2.700000e+00
  TP3r  N6dh  1 3.950000e-01    2.700000e+00
  TP3h  N5dr  1 3.950000e-01    2.500000e+00
  TP3r  N5dh  1 3.950000e-01    2.500000e+00
  TP3h  N4dr  1 3.950000e-01    2.500000e+00
  TP3r  N4dh  1 3.950000e-01    2.500000e+00
  TP3h  N3dr  1 3.950000e-01    2.310000e+00
  TP3r  N3dh  1 3.950000e-01    2.310000e+00
  TP3h  N2dr  1 3.950000e-01    2.310000e+00
  TP3r  N2dh  1 3.950000e-01    2.310000e+00
  TP3h  N1dr  1 3.950000e-01    2.110000e+00
  TP3r  N1dh  1 3.950000e-01    2.110000e+00
  TP3h  P3ar  1 3.950000e-01    3.190000e+00
  TP3r  P3ah  1 3.950000e-01    3.190000e+00
  TP3h  P2ar  1 3.950000e-01    3.190000e+00
  TP3r  P2ah  1 3.950000e-01    3.190000e+00
  TP3h  P1ar  1 3.950000e-01    2.940000e+00
  TP3r  P1ah  1 3.950000e-01    2.940000e+00
  TP3h  N6ar  1 3.950000e-01    2.700000e+00
  TP3r  N6ah  1 3.950000e-01    2.700000e+00
  TP3h  N5ar  1 3.950000e-01    2.500000e+00
  TP3r  N5ah  1 3.950000e-01    2.500000e+00
  TP3h  N4ar  1 3.950000e-01    2.500000e+00
  TP3r  N4ah  1 3.950000e-01    2.500000e+00
  TP3h  N3ar  1 3.950000e-01    2.310000e+00
  TP3r  N3ah  1 3.950000e-01    2.310000e+00
  TP3h  N2ar  1 3.950000e-01    2.310000e+00
  TP3r  N2ah  1 3.950000e-01    2.310000e+00
  TP3h  N1ar  1 3.950000e-01    2.110000e+00
  TP3r  N1ah  1 3.950000e-01    2.110000e+00
  TP2h   P2r  1 3.950000e-01    3.190000e+00
  TP2h   P1r  1 3.950000e-01    2.940000e+00
  TP2r   P1h  1 3.950000e-01    2.940000e+00
  TP2h   N6r  1 3.950000e-01    2.940000e+00
  TP2r   N6h  1 3.950000e-01    2.940000e+00
  TP2h   N5r  1 3.950000e-01    2.700000e+00
  TP2r   N5h  1 3.950000e-01    2.700000e+00
  TP2h   N4r  1 3.950000e-01    2.500000e+00
  TP2r   N4h  1 3.950000e-01    2.500000e+00
  TP2h   N3r  1 3.950000e-01    2.310000e+00
  TP2r   N3h  1 3.950000e-01    2.310000e+00
  TP2h   N2r  1 3.950000e-01    2.310000e+00
  TP2r   N2h  1 3.950000e-01    2.310000e+00
  TP2h   N1r  1 3.950000e-01    2.310000e+00
  TP2r   N1h  1 3.950000e-01    2.310000e+00
  TP2h  P2dr  1 3.950000e-01    3.190000e+00
  TP2r  P2dh  1 3.950000e-01    3.190000e+00
  TP2h  P1dr  1 3.950000e-01    2.940000e+00
  TP2r  P1dh  1 3.950000e-01    2.940000e+00
  TP2h  N6dr  1 3.950000e-01    2.940000e+00
  TP2r  N6dh  1 3.950000e-01    2.940000e+00
  TP2h  N5dr  1 3.950000e-01    2.700000e+00
  TP2r  N5dh  1 3.950000e-01    2.700000e+00
  TP2h  N4dr  1 3.950000e-01    2.500000e+00
  TP2r  N4dh  1 3.950000e-01    2.500000e+00
  TP2h  N3dr  1 3.950000e-01    2.310000e+00
  TP2r  N3dh  1 3.950000e-01    2.310000e+00
  TP2h  N2dr  1 3.950000e-01    2.310000e+00
  TP2r  N2dh  1 3.950000e-01    2.310000e+00
  TP2h  N1dr  1 3.950000e-01    2.310000e+00
  TP2r  N1dh  1 3.950000e-01    2.310000e+00
  TP2h  P2ar  1 3.950000e-01    3.190000e+00
  TP2r  P2ah  1 3.950000e-01    3.190000e+00
  TP2h  P1ar  1 3.950000e-01    2.940000e+00
  TP2r  P1ah  1 3.950000e-01    2.940000e+00
  TP2h  N6ar  1 3.950000e-01    2.940000e+00
  TP2r  N6ah  1 3.950000e-01    2.940000e+00
  TP2h  N5ar  1 3.950000e-01    2.700000e+00
  TP2r  N5ah  1 3.950000e-01    2.700000e+00
  TP2h  N4ar  1 3.950000e-01    2.500000e+00
  TP2r  N4ah  1 3.950000e-01    2.500000e+00
  TP2h  N3ar  1 3.950000e-01    2.310000e+00
  TP2r  N3ah  1 3.950000e-01    2.310000e+00
  TP2h  N2ar  1 3.950000e-01    2.310000e+00
  TP2r  N2ah  1 3.950000e-01    2.310000e+00
  TP2h  N1ar  1 3.950000e-01    2.310000e+00
  TP2r  N1ah  1 3.950000e-01    2.310000e+00
  TP1h   P1r  1 3.950000e-01    2.940000e+00
  TP1h   N6r  1 3.950000e-01    2.940000e+00
  TP1r   N6h  1 3.950000e-01    2.940000e+00
  TP1h   N5r  1 3.950000e-01    2.700000e+00
  TP1r   N5h  1 3.950000e-01    2.700000e+00
  TP1h   N4r  1 3.950000e-01    2.700000e+00
  TP1r   N4h  1 3.950000e-01    2.700000e+00
  TP1h   N3r  1 3.950000e-01    2.310000e+00
  TP1r   N3h  1 3.950000e-01    2.310000e+00
  TP1h   N2r  1 3.950000e-01    2.310000e+00
  TP1r   N2h  1 3.950000e-01    2.310000e+00
  TP1h   N1r  1 3.950000e-01    2.310000e+00
  TP1r   N1h  1 3.950000e-01    2.310000e+00
  TP1h  P1dr  1 3.950000e-01    2.940000e+00
  TP1r  P1dh  1 3.950000e-01    2.940000e+00
  TP1h  N6dr  1 3.950000e-01    2.940000e+00
  TP1r  N6dh  1 3.950000e-01    2.940000e+00
  TP1h  N5dr  1 3.950000e-01    2.700000e+00
  TP1r  N5dh  1 3.950000e-01    2.700000e+00
  TP1h  N4dr  1 3.950000e-01    2.700000e+00
  TP1r  N4dh  1 3.950000e-01    2.700000e+00
  TP1h  N3dr  1 3.950000e-01    2.310000e+00
  TP1r  N3dh  1 3.950000e-01    2.310000e+00
  TP1h  N2dr  1 3.950000e-01    2.310000e+00
  TP1r  N2dh  1 3.950000e-01    2.310000e+00
  TP1h  N1dr  1 3.950000e-01    2.310000e+00
  TP1r  N1dh  1 3.950000e-01    2.310000e+00
  TP1h  P1ar  1 3.950000e-01    2.940000e+00
  TP1r  P1ah  1 3.950000e-01    2.940000e+00
  TP1h  N6ar  1 3.950000e-01    2.940000e+00
  TP1r  N6ah  1 3.950000e-01    2.940000e+00
  TP1h  N5ar  1 3.950000e-01    2.700000e+00
  TP1r  N5ah  1 3.950000e-01    2.700000e+00
  TP1h  N4ar  1 3.950000e-01    2.700000e+00
  TP1r  N4ah  1 3.950000e-01    2.700000e+00
  TP1h  N3ar  1 3.950000e-01    2.310000e+00
  TP1r  N3ah  1 3.950000e-01    2.310000e+00
  TP1h  N2ar  1 3.950000e-01    2.310000e+00
  TP1r  N2ah  1 3.950000e-01    2.310000e+00
  TP1h  N1ar  1 3.950000e-01    2.310000e+00
  TP1r  N1ah  1 3.950000e-01    2.310000e+00
  TN6h   N6r  1 3.950000e-01    2.940000e+00
  TN6h   N5r  1 3.950000e-01    2.940000e+00
  TN6r   N5h  1 3.950000e-01    2.940000e+00
  TN6h   N4r  1 3.950000e-01    2.940000e+00
  TN6r   N4h  1 3.950000e-01    2.940000e+00
  TN6h   N3r  1 3.950000e-01    2.500000e+00
  TN6r   N3h  1 3.950000e-01    2.500000e+00
  TN6h   N2r  1 3.950000e-01    2.310000e+00
  TN6r   N2h  1 3.950000e-01    2.310000e+00
  TN6h   N1r  1 3.950000e-01    2.310000e+00
  TN6r   N1h  1 3.950000e-01    2.310000e+00
  TN6h  N6dr  1 3.950000e-01    2.940000e+00
  TN6r  N6dh  1 3.950000e-01    2.940000e+00
  TN6h  N5dr  1 3.950000e-01    2.940000e+00
  TN6r  N5dh  1 3.950000e-01    2.940000e+00
  TN6h  N4dr  1 3.950000e-01    2.940000e+00
  TN6r  N4dh  1 3.950000e-01    2.940000e+00
  TN6h  N3dr  1 3.950000e-01    2.500000e+00
  TN6r  N3dh  1 3.950000e-01    2.500000e+00
  TN6h  N2dr  1 3.950000e-01    2.310000e+00
  TN6r  N2dh  1 3.950000e-01    2.310000e+00
  TN6h  N1dr  1 3.950000e-01    2.310000e+00
  TN6r  N1dh  1 3.950000e-01    2.310000e+00
  TN6h  N6ar  1 3.950000e-01    2.940000e+00
  TN6r  N6ah  1 3.950000e-01    2.940000e+00
  TN6h  N5ar  1 3.950000e-01    2.940000e+00
  TN6r  N5ah  1 3.950000e-01    2.940000e+00
  TN6h  N4ar  1 3.950000e-01    2.940000e+00
  TN6r  N4ah  1 3.950000e-01    2.940000e+00
  TN6h  N3ar  1 3.950000e-01    2.500000e+00
  TN6r  N3ah  1 3.950000e-01    2.500000e+00
  TN6h  N2ar  1 3.950000e-01    2.310000e+00
  TN6r  N2ah  1 3.950000e-01    2.310000e+00
  TN6h  N1ar  1 3.950000e-01    2.310000e+00
  TN6r  N1ah  1 3.950000e-01    2.310000e+00
  TN5h   N5r  1 3.950000e-01    2.700000e+00
  TN5h   N4r  1 3.950000e-01    2.700000e+00
  TN5r   N4h  1 3.950000e-01    2.700000e+00
  TN5h   N3r  1 3.950000e-01    2.500000e+00
  TN5r   N3h  1 3.950000e-01    2.500000e+00
  TN5h   N2r  1 3.950000e-01    2.500000e+00
  TN5r   N2h  1 3.950000e-01    2.500000e+00
  TN5h   N1r  1 3.950000e-01    2.310000e+00
  TN5r   N1h  1 3.950000e-01    2.310000e+00
  TN5h  N5dr  1 3.950000e-01    2.700000e+00
  TN5r  N5dh  1 3.950000e-01    2.700000e+00
  TN5h  N4dr  1 3.950000e-01    2.700000e+00
  TN5r  N4dh  1 3.950000e-01    2.700000e+00
  TN5h  N3dr  1 3.950000e-01    2.500000e+00
  TN5r  N3dh  1 3.950000e-01    2.500000e+00
  TN5h  N2dr  1 3.950000e-01    2.500000e+00
  TN5r  N2dh  1 3.950000e-01    2.500000e+00
  TN5h  N1dr  1 3.950000e-01    2.310000e+00
  TN5r  N1dh  1 3.950000e-01    2.310000e+00
  TN5h  N5ar  1 3.950000e-01    2.700000e+00
  TN5r  N5ah  1 3.950000e-01    2.700000e+00
  TN5h  N4ar  1 3.950000e-01    2.700000e+00
  TN5r  N4ah  1 3.950000e-01    2.700000e+00
  TN5h  N3ar  1 3.950000e-01    2.500000e+00
  TN5r  N3ah  1 3.950000e-01    2.500000e+00
  TN5h  N2ar  1 3.950000e-01    2.500000e+00
  TN5r  N2ah  1 3.950000e-01    2.500000e+00
  TN5h  N1ar  1 3.950000e-01    2.310000e+00
  TN5r  N1ah  1 3.950000e-01    2.310000e+00
  TN4h   N4r  1 3.950000e-01    2.700000e+00
  TN4h   N3r  1 3.950000e-01    2.500000e+00
  TN4r   N3h  1 3.950000e-01    2.500000e+00
  TN4h   N2r  1 3.950000e-01    2.500000e+00
  TN4r   N2h  1 3.950000e-01    2.500000e+00
  TN4h   N1r  1 3.950000e-01    2.310000e+00
  TN4r   N1h  1 3.950000e-01    2.310000e+00
  TN4h  N4dr  1 3.950000e-01    2.700000e+00
  TN4r  N4dh  1 3.950000e-01    2.700000e+00
  TN4h  N3dr  1 3.950000e-01    2.500000e+00
  TN4r  N3dh  1 3.950000e-01    2.500000e+00
  TN4h  N2dr  1 3.950000e-01    2.500000e+00
  TN4r  N2dh  1 3.950000e-01    2.500000e+00
  TN4h  N1dr  1 3.950000e-01    2.310000e+00
  TN4r  N1dh  1 3.950000e-01    2.310000e+00
  TN4h  N4ar  1 3.950000e-01    2.700000e+00
  TN4r  N4ah  1 3.950000e-01    2.700000e+00
  TN4h  N3ar  1 3.950000e-01    2.500000e+00
  TN4r  N3ah  1 3.950000e-01    2.500000e+00
  TN4h  N2ar  1 3.950000e-01    2.500000e+00
  TN4r  N2ah  1 3.950000e-01    2.500000e+00
  TN4h  N1ar  1 3.950000e-01    2.310000e+00
  TN4r  N1ah  1 3.950000e-01    2.310000e+00
  TN3h   N3r  1 3.950000e-01    2.500000e+00
  TN3h   N2r  1 3.950000e-01    2.500000e+00
  TN3r   N2h  1 3.950000e-01    2.500000e+00
  TN3h   N1r  1 3.950000e-01    2.310000e+00
  TN3r   N1h  1 3.950000e-01    2.310000e+00
  TN3h  N3dr  1 3.950000e-01    2.500000e+00
  TN3r  N3dh  1 3.950000e-01    2.500000e+00
  TN3h  N2dr  1 3.950000e-01    2.500000e+00
  TN3r  N2dh  1 3.950000e-01    2.500000e+00
  TN3h  N1dr  1 3.950000e-01    2.310000e+00
  TN3r  N1dh  1 3.950000e-01    2.310000e+00
  TN3h  N3ar  1 3.950000e-01    2.500000e+00
  TN3r  N3ah  1 3.950000e-01    2.500000e+00
  TN3h  N2ar  1 3.950000e-01    2.500000e+00
  TN3r  N2ah  1 3.950000e-01    2.500000e+00
  TN3h  N1ar  1 3.950000e-01    2.310000e+00
  TN3r  N1ah  1 3.950000e-01    2.310000e+00
  TN2h   N2r  1 3.950000e-01    2.500000e+00
  TN2h   N1r  1 3.950000e-01    2.310000e+00
  TN2r   N1h  1 3.950000e-01    2.310000e+00
  TN2h  N2dr  1 3.950000e-01    2.500000e+00
  TN2r  N2dh  1 3.950000e-01    2.500000e+00
  TN2h  N1dr  1 3.950000e-01    2.310000e+00
  TN2r  N1dh  1 3.950000e-01    2.310000e+00
  TN2h  N2ar  1 3.950000e-01    2.500000e+00
  TN2r  N2ah  1 3.950000e-01    2.500000e+00
  TN2h  N1ar  1 3.950000e-01    2.310000e+00
  TN2r  N1ah  1 3.950000e-01    2.310000e+00
  TN1h   N1r  1 3.950000e-01    2.500000e+00
  TN1h  N1dr  1 3.950000e-01    2.500000e+00
  TN1r  N1dh  1 3.950000e-01    2.500000e+00
  TN1h  N1ar  1 3.950000e-01    2.500000e+00
  TN1r  N1ah  1 3.950000e-01    2.500000e+00
 TP6dh  P6dr  1 3.950000e-01    3.910000e+00
 TP6dh   P5r  1 3.950000e-01    3.910000e+00
 TP6dr   P5h  1 3.950000e-01    3.910000e+00
 TP6dh   P4r  1 3.950000e-01    3.670000e+00
 TP6dr   P4h  1 3.950000e-01    3.670000e+00
 TP6dh   P3r  1 3.950000e-01    3.430000e+00
 TP6dr   P3h  1 3.950000e-01    3.430000e+00
 TP6dh   P2r  1 3.950000e-01    3.430000e+00
 TP6dr   P2h  1 3.950000e-01    3.430000e+00
 TP6dh   P1r  1 3.950000e-01    3.190000e+00
 TP6dr   P1h  1 3.950000e-01    3.190000e+00
 TP6dh   N6r  1 3.950000e-01    2.940000e+00
 TP6dr   N6h  1 3.950000e-01    2.940000e+00
 TP6dh   N5r  1 3.950000e-01    2.500000e+00
 TP6dr   N5h  1 3.950000e-01    2.500000e+00
 TP6dh   N4r  1 3.950000e-01    2.310000e+00
 TP6dr   N4h  1 3.950000e-01    2.310000e+00
 TP6dh   N3r  1 3.950000e-01    2.110000e+00
 TP6dr   N3h  1 3.950000e-01    2.110000e+00
 TP6dh   N2r  1 3.950000e-01    1.850000e+00
 TP6dr   N2h  1 3.950000e-01    1.850000e+00
 TP6dh   N1r  1 3.950000e-01    1.670000e+00
 TP6dr   N1h  1 3.950000e-01    1.670000e+00
 TP6dh  P5dr  1 3.950000e-01    3.670000e+00
 TP6dr  P5dh  1 3.950000e-01    3.670000e+00
 TP6dh  P4dr  1 3.950000e-01    3.430000e+00
 TP6dr  P4dh  1 3.950000e-01    3.430000e+00
 TP6dh  P3dr  1 3.950000e-01    3.190000e+00
 TP6dr  P3dh  1 3.950000e-01    3.190000e+00
 TP6dh  P2dr  1 3.950000e-01    3.190000e+00
 TP6dr  P2dh  1 3.950000e-01    3.190000e+00
 TP6dh  P1dr  1 3.950000e-01    2.940000e+00
 TP6dr  P1dh  1 3.950000e-01    2.940000e+00
 TP6dh  N6dr  1 3.950000e-01    2.700000e+00
 TP6dr  N6dh  1 3.950000e-01    2.700000e+00
 TP6dh  N5dr  1 3.950000e-01    2.310000e+00
 TP6dr  N5dh  1 3.950000e-01    2.310000e+00
 TP6dh  N4dr  1 3.950000e-01    2.110000e+00
 TP6dr  N4dh  1 3.950000e-01    2.110000e+00
 TP6dh  N3dr  1 3.950000e-01    2.110000e+00
 TP6dr  N3dh  1 3.950000e-01    2.110000e+00
 TP6dh  N2dr  1 3.950000e-01    1.850000e+00
 TP6dr  N2dh  1 3.950000e-01    1.850000e+00
 TP6dh  N1dr  1 3.950000e-01    1.670000e+00
 TP6dr  N1dh  1 3.950000e-01    1.670000e+00
 TP6dh  P6ar  1 3.950000e-01    4.540000e+00
 TP6dr  P6ah  1 3.950000e-01    4.540000e+00
 TP6dh  P5ar  1 3.950000e-01    4.230000e+00
 TP6dr  P5ah  1 3.950000e-01    4.230000e+00
 TP6dh  P4ar  1 3.950000e-01    3.910000e+00
 TP6dr  P4ah  1 3.950000e-01    3.910000e+00
 TP6dh  P3ar  1 3.950000e-01    3.670000e+00
 TP6dr  P3ah  1 3.950000e-01    3.670000e+00
 TP6dh  P2ar  1 3.950000e-01    3.670000e+00
 TP6dr  P2ah  1 3.950000e-01    3.670000e+00
 TP6dh  P1ar  1 3.950000e-01    3.430000e+00
 TP6dr  P1ah  1 3.950000e-01    3.430000e+00
 TP6dh  N6ar  1 3.950000e-01    3.190000e+00
 TP6dr  N6ah  1 3.950000e-01    3.190000e+00
 TP6dh  N5ar  1 3.950000e-01    2.700000e+00
 TP6dr  N5ah  1 3.950000e-01    2.700000e+00
 TP6dh  N4ar  1 3.950000e-01    2.500000e+00
 TP6dr  N4ah  1 3.950000e-01    2.500000e+00
 TP6dh  N3ar  1 3.950000e-01    2.110000e+00
 TP6dr  N3ah  1 3.950000e-01    2.110000e+00
 TP6dh  N2ar  1 3.950000e-01    1.850000e+00
 TP6dr  N2ah  1 3.950000e-01    1.850000e+00
 TP6dh  N1ar  1 3.950000e-01    1.670000e+00
 TP6dr  N1ah  1 3.950000e-01    1.670000e+00
 TP5dh  P5dr  1 3.950000e-01    3.430000e+00
 TP5dh   P4r  1 3.950000e-01    3.430000e+00
 TP5dr   P4h  1 3.950000e-01    3.430000e+00
 TP5dh   P3r  1 3.950000e-01    3.190000e+00
 TP5dr   P3h  1 3.950000e-01    3.190000e+00
 TP5dh   P2r  1 3.950000e-01    3.190000e+00
 TP5dr   P2h  1 3.950000e-01    3.190000e+00
 TP5dh   P1r  1 3.950000e-01    2.940000e+00
 TP5dr   P1h  1 3.950000e-01    2.940000e+00
 TP5dh   N6r  1 3.950000e-01    2.700000e+00
 TP5dr   N6h  1 3.950000e-01    2.700000e+00
 TP5dh   N5r  1 3.950000e-01    2.500000e+00
 TP5dr   N5h  1 3.950000e-01    2.500000e+00
 TP5dh   N4r  1 3.950000e-01    2.500000e+00
 TP5dr   N4h  1 3.950000e-01    2.500000e+00
 TP5dh   N3r  1 3.950000e-01    2.110000e+00
 TP5dr   N3h  1 3.950000e-01    2.110000e+00
 TP5dh   N2r  1 3.950000e-01    1.850000e+00
 TP5dr   N2h  1 3.950000e-01    1.850000e+00
 TP5dh   N1r  1 3.950000e-01    1.670000e+00
 TP5dr   N1h  1 3.950000e-01    1.670000e+00
 TP5dh  P4dr  1 3.950000e-01    3.190000e+00
 TP5dr  P4dh  1 3.950000e-01    3.190000e+00
 TP5dh  P3dr  1 3.950000e-01    2.940000e+00
 TP5dr  P3dh  1 3.950000e-01    2.940000e+00
 TP5dh  P2dr  1 3.950000e-01    2.940000e+00
 TP5dr  P2dh  1 3.950000e-01    2.940000e+00
 TP5dh  P1dr  1 3.950000e-01    2.700000e+00
 TP5dr  P1dh  1 3.950000e-01    2.700000e+00
 TP5dh  N6dr  1 3.950000e-01    2.500000e+00
 TP5dr  N6dh  1 3.950000e-01    2.500000e+00
 TP5dh  N5dr  1 3.950000e-01    2.310000e+00
 TP5dr  N5dh  1 3.950000e-01    2.310000e+00
 TP5dh  N4dr  1 3.950000e-01    2.310000e+00
 TP5dr  N4dh  1 3.950000e-01    2.310000e+00
 TP5dh  N3dr  1 3.950000e-01    2.110000e+00
 TP5dr  N3dh  1 3.950000e-01    2.110000e+00
 TP5dh  N2dr  1 3.950000e-01    1.850000e+00
 TP5dr  N2dh  1 3.950000e-01    1.850000e+00
 TP5dh  N1dr  1 3.950000e-01    1.670000e+00
 TP5dr  N1dh  1 3.950000e-01    1.670000e+00
 TP5dh  P5ar  1 3.950000e-01    3.910000e+00
 TP5dr  P5ah  1 3.950000e-01    3.910000e+00
 TP5dh  P4ar  1 3.950000e-01    3.670000e+00
 TP5dr  P4ah  1 3.950000e-01    3.670000e+00
 TP5dh  P3ar  1 3.950000e-01    3.430000e+00
 TP5dr  P3ah  1 3.950000e-01    3.430000e+00
 TP5dh  P2ar  1 3.950000e-01    3.430000e+00
 TP5dr  P2ah  1 3.950000e-01    3.430000e+00
 TP5dh  P1ar  1 3.950000e-01    3.190000e+00
 TP5dr  P1ah  1 3.950000e-01    3.190000e+00
 TP5dh  N6ar  1 3.950000e-01    2.940000e+00
 TP5dr  N6ah  1 3.950000e-01    2.940000e+00
 TP5dh  N5ar  1 3.950000e-01    2.700000e+00
 TP5dr  N5ah  1 3.950000e-01    2.700000e+00
 TP5dh  N4ar  1 3.950000e-01    2.700000e+00
 TP5dr  N4ah  1 3.950000e-01    2.700000e+00
 TP5dh  N3ar  1 3.950000e-01    2.110000e+00
 TP5dr  N3ah  1 3.950000e-01    2.110000e+00
 TP5dh  N2ar  1 3.950000e-01    1.850000e+00
 TP5dr  N2ah  1 3.950000e-01    1.850000e+00
 TP5dh  N1ar  1 3.950000e-01    1.670000e+00
 TP5dr  N1ah  1 3.950000e-01    1.670000e+00
 TP4dh  P4dr  1 3.950000e-01    3.190000e+00
 TP4dh   P3r  1 3.950000e-01    3.190000e+00
 TP4dr   P3h  1 3.950000e-01    3.190000e+00
 TP4dh   P2r  1 3.950000e-01    3.190000e+00
 TP4dr   P2h  1 3.950000e-01    3.190000e+00
 TP4dh   P1r  1 3.950000e-01    2.940000e+00
 TP4dr   P1h  1 3.950000e-01    2.940000e+00
 TP4dh   N6r  1 3.950000e-01    2.700000e+00
 TP4dr   N6h  1 3.950000e-01    2.700000e+00
 TP4dh   N5r  1 3.950000e-01    2.500000e+00
 TP4dr   N5h  1 3.950000e-01    2.500000e+00
 TP4dh   N4r  1 3.950000e-01    2.500000e+00
 TP4dr   N4h  1 3.950000e-01    2.500000e+00
 TP4dh   N3r  1 3.950000e-01    2.310000e+00
 TP4dr   N3h  1 3.950000e-01    2.310000e+00
 TP4dh   N2r  1 3.950000e-01    2.110000e+00
 TP4dr   N2h  1 3.950000e-01    2.110000e+00
 TP4dh   N1r  1 3.950000e-01    1.850000e+00
 TP4dr   N1h  1 3.950000e-01    1.850000e+00
 TP4dh  P3dr  1 3.950000e-01    2.940000e+00
 TP4dr  P3dh  1 3.950000e-01    2.940000e+00
 TP4dh  P2dr  1 3.950000e-01    2.940000e+00
 TP4dr  P2dh  1 3.950000e-01    2.940000e+00
 TP4dh  P1dr  1 3.950000e-01    2.700000e+00
 TP4dr  P1dh  1 3.950000e-01    2.700000e+00
 TP4dh  N6dr  1 3.950000e-01    2.500000e+00
 TP4dr  N6dh  1 3.950000e-01    2.500000e+00
 TP4dh  N5dr  1 3.950000e-01    2.310000e+00
 TP4dr  N5dh  1 3.950000e-01    2.310000e+00
 TP4dh  N4dr  1 3.950000e-01    2.310000e+00
 TP4dr  N4dh  1 3.950000e-01    2.310000e+00
 TP4dh  N3dr  1 3.950000e-01    2.110000e+00
 TP4dr  N3dh  1 3.950000e-01    2.110000e+00
 TP4dh  N2dr  1 3.950000e-01    2.110000e+00
 TP4dr  N2dh  1 3.950000e-01    2.110000e+00
 TP4dh  N1dr  1 3.950000e-01    1.850000e+00
 TP4dr  N1dh  1 3.950000e-01    1.850000e+00
 TP4dh  P4ar  1 3.950000e-01    3.670000e+00
 TP4dr  P4ah  1 3.950000e-01    3.670000e+00
 TP4dh  P3ar  1 3.950000e-01    3.430000e+00
 TP4dr  P3ah  1 3.950000e-01    3.430000e+00
 TP4dh  P2ar  1 3.950000e-01    3.430000e+00
 TP4dr  P2ah  1 3.950000e-01    3.430000e+00
 TP4dh  P1ar  1 3.950000e-01    3.190000e+00
 TP4dr  P1ah  1 3.950000e-01    3.190000e+00
 TP4dh  N6ar  1 3.950000e-01    2.940000e+00
 TP4dr  N6ah  1 3.950000e-01    2.940000e+00
 TP4dh  N5ar  1 3.950000e-01    2.700000e+00
 TP4dr  N5ah  1 3.950000e-01    2.700000e+00
 TP4dh  N4ar  1 3.950000e-01    2.700000e+00
 TP4dr  N4ah  1 3.950000e-01    2.700000e+00
 TP4dh  N3ar  1 3.950000e-01    2.500000e+00
 TP4dr  N3ah  1 3.950000e-01    2.500000e+00
 TP4dh  N2ar  1 3.950000e-01    2.110000e+00
 TP4dr  N2ah  1 3.950000e-01    2.110000e+00
 TP4dh  N1ar  1 3.950000e-01    1.850000e+00
 TP4dr  N1ah  1 3.950000e-01    1.850000e+00
 TP3dh  P3dr  1 3.950000e-01    2.940000e+00
 TP3dh   P2r  1 3.950000e-01    3.190000e+00
 TP3dr   P2h  1 3.950000e-01    3.190000e+00
 TP3dh   P1r  1 3.950000e-01    2.940000e+00
 TP3dr   P1h  1 3.950000e-01    2.940000e+00
 TP3dh   N6r  1 3.950000e-01    2.700000e+00
 TP3dr   N6h  1 3.950000e-01    2.700000e+00
 TP3dh   N5r  1 3.950000e-01    2.500000e+00
 TP3dr   N5h  1 3.950000e-01    2.500000e+00
 TP3dh   N4r  1 3.950000e-01    2.500000e+00
 TP3dr   N4h  1 3.950000e-01    2.500000e+00
 TP3dh   N3r  1 3.950000e-01    2.310000e+00
 TP3dr   N3h  1 3.950000e-01    2.310000e+00
 TP3dh   N2r  1 3.950000e-01    2.310000e+00
 TP3dr   N2h  1 3.950000e-01    2.310000e+00
 TP3dh   N1r  1 3.950000e-01    2.110000e+00
 TP3dr   N1h  1 3.950000e-01    2.110000e+00
 TP3dh  P2dr  1 3.950000e-01    2.940000e+00
 TP3dr  P2dh  1 3.950000e-01    2.940000e+00
 TP3dh  P1dr  1 3.950000e-01    2.700000e+00
 TP3dr  P1dh  1 3.950000e-01    2.700000e+00
 TP3dh  N6dr  1 3.950000e-01    2.500000e+00
 TP3dr  N6dh  1 3.950000e-01    2.500000e+00
 TP3dh  N5dr  1 3.950000e-01    2.310000e+00
 TP3dr  N5dh  1 3.950000e-01    2.310000e+00
 TP3dh  N4dr  1 3.950000e-01    2.310000e+00
 TP3dr  N4dh  1 3.950000e-01    2.310000e+00
 TP3dh  N3dr  1 3.950000e-01    2.110000e+00
 TP3dr  N3dh  1 3.950000e-01    2.110000e+00
 TP3dh  N2dr  1 3.950000e-01    2.110000e+00
 TP3dr  N2dh  1 3.950000e-01    2.110000e+00
 TP3dh  N1dr  1 3.950000e-01    2.110000e+00
 TP3dr  N1dh  1 3.950000e-01    2.110000e+00
 TP3dh  P3ar  1 3.950000e-01    3.430000e+00
 TP3dr  P3ah  1 3.950000e-01    3.430000e+00
 TP3dh  P2ar  1 3.950000e-01    3.430000e+00
 TP3dr  P2ah  1 3.950000e-01    3.430000e+00
 TP3dh  P1ar  1 3.950000e-01    3.190000e+00
 TP3dr  P1ah  1 3.950000e-01    3.190000e+00
 TP3dh  N6ar  1 3.950000e-01    2.940000e+00
 TP3dr  N6ah  1 3.950000e-01    2.940000e+00
 TP3dh  N5ar  1 3.950000e-01    2.700000e+00
 TP3dr  N5ah  1 3.950000e-01    2.700000e+00
 TP3dh  N4ar  1 3.950000e-01    2.700000e+00
 TP3dr  N4ah  1 3.950000e-01    2.700000e+00
 TP3dh  N3ar  1 3.950000e-01    2.500000e+00
 TP3dr  N3ah  1 3.950000e-01    2.500000e+00
 TP3dh  N2ar  1 3.950000e-01    2.500000e+00
 TP3dr  N2ah  1 3.950000e-01    2.500000e+00
 TP3dh  N1ar  1 3.950000e-01    2.110000e+00
 TP3dr  N1ah  1 3.950000e-01    2.110000e+00
 TP2dh  P2dr  1 3.950000e-01    2.940000e+00
 TP2dh   P1r  1 3.950000e-01    2.940000e+00
 TP2dr   P1h  1 3.950000e-01    2.940000e+00
 TP2dh   N6r  1 3.950000e-01    2.940000e+00
 TP2dr   N6h  1 3.950000e-01    2.940000e+00
 TP2dh   N5r  1 3.950000e-01    2.700000e+00
 TP2dr   N5h  1 3.950000e-01    2.700000e+00
 TP2dh   N4r  1 3.950000e-01    2.500000e+00
 TP2dr   N4h  1 3.950000e-01    2.500000e+00
 TP2dh   N3r  1 3.950000e-01    2.310000e+00
 TP2dr   N3h  1 3.950000e-01    2.310000e+00
 TP2dh   N2r  1 3.950000e-01    2.310000e+00
 TP2dr   N2h  1 3.950000e-01    2.310000e+00
 TP2dh   N1r  1 3.950000e-01    2.310000e+00
 TP2dr   N1h  1 3.950000e-01    2.310000e+00
 TP2dh  P1dr  1 3.950000e-01    2.700000e+00
 TP2dr  P1dh  1 3.950000e-01    2.700000e+00
 TP2dh  N6dr  1 3.950000e-01    2.700000e+00
 TP2dr  N6dh  1 3.950000e-01    2.700000e+00
 TP2dh  N5dr  1 3.950000e-01    2.500000e+00
 TP2dr  N5dh  1 3.950000e-01    2.500000e+00
 TP2dh  N4dr  1 3.950000e-01    2.310000e+00
 TP2dr  N4dh  1 3.950000e-01    2.310000e+00
 TP2dh  N3dr  1 3.950000e-01    2.110000e+00
 TP2dr  N3dh  1 3.950000e-01    2.110000e+00
 TP2dh  N2dr  1 3.950000e-01    2.110000e+00
 TP2dr  N2dh  1 3.950000e-01    2.110000e+00
 TP2dh  N1dr  1 3.950000e-01    2.110000e+00
 TP2dr  N1dh  1 3.950000e-01    2.110000e+00
 TP2dh  P2ar  1 3.950000e-01    3.430000e+00
 TP2dr  P2ah  1 3.950000e-01    3.430000e+00
 TP2dh  P1ar  1 3.950000e-01    3.190000e+00
 TP2dr  P1ah  1 3.950000e-01    3.190000e+00
 TP2dh  N6ar  1 3.950000e-01    3.190000e+00
 TP2dr  N6ah  1 3.950000e-01    3.190000e+00
 TP2dh  N5ar  1 3.950000e-01    2.940000e+00
 TP2dr  N5ah  1 3.950000e-01    2.940000e+00
 TP2dh  N4ar  1 3.950000e-01    2.700000e+00
 TP2dr  N4ah  1 3.950000e-01    2.700000e+00
 TP2dh  N3ar  1 3.950000e-01    2.500000e+00
 TP2dr  N3ah  1 3.950000e-01    2.500000e+00
 TP2dh  N2ar  1 3.950000e-01    2.500000e+00
 TP2dr  N2ah  1 3.950000e-01    2.500000e+00
 TP2dh  N1ar  1 3.950000e-01    2.500000e+00
 TP2dr  N1ah  1 3.950000e-01    2.500000e+00
 TP1dh  P1dr  1 3.950000e-01    2.700000e+00
 TP1dh   N6r  1 3.950000e-01    2.940000e+00
 TP1dr   N6h  1 3.950000e-01    2.940000e+00
 TP1dh   N5r  1 3.950000e-01    2.700000e+00
 TP1dr   N5h  1 3.950000e-01    2.700000e+00
 TP1dh   N4r  1 3.950000e-01    2.700000e+00
 TP1dr   N4h  1 3.950000e-01    2.700000e+00
 TP1dh   N3r  1 3.950000e-01    2.310000e+00
 TP1dr   N3h  1 3.950000e-01    2.310000e+00
 TP1dh   N2r  1 3.950000e-01    2.310000e+00
 TP1dr   N2h  1 3.950000e-01    2.310000e+00
 TP1dh   N1r  1 3.950000e-01    2.310000e+00
 TP1dr   N1h  1 3.950000e-01    2.310000e+00
 TP1dh  N6dr  1 3.950000e-01    2.700000e+00
 TP1dr  N6dh  1 3.950000e-01    2.700000e+00
 TP1dh  N5dr  1 3.950000e-01    2.500000e+00
 TP1dr  N5dh  1 3.950000e-01    2.500000e+00
 TP1dh  N4dr  1 3.950000e-01    2.500000e+00
 TP1dr  N4dh  1 3.950000e-01    2.500000e+00
 TP1dh  N3dr  1 3.950000e-01    2.110000e+00
 TP1dr  N3dh  1 3.950000e-01    2.110000e+00
 TP1dh  N2dr  1 3.950000e-01    2.110000e+00
 TP1dr  N2dh  1 3.950000e-01    2.110000e+00
 TP1dh  N1dr  1 3.950000e-01    2.110000e+00
 TP1dr  N1dh  1 3.950000e-01    2.110000e+00
 TP1dh  P1ar  1 3.950000e-01    3.190000e+00
 TP1dr  P1ah  1 3.950000e-01    3.190000e+00
 TP1dh  N6ar  1 3.950000e-01    3.190000e+00
 TP1dr  N6ah  1 3.950000e-01    3.190000e+00
 TP1dh  N5ar  1 3.950000e-01    2.940000e+00
 TP1dr  N5ah  1 3.950000e-01    2.940000e+00
 TP1dh  N4ar  1 3.950000e-01    2.940000e+00
 TP1dr  N4ah  1 3.950000e-01    2.940000e+00
 TP1dh  N3ar  1 3.950000e-01    2.500000e+00
 TP1dr  N3ah  1 3.950000e-01    2.500000e+00
 TP1dh  N2ar  1 3.950000e-01    2.500000e+00
 TP1dr  N2ah  1 3.950000e-01    2.500000e+00
 TP1dh  N1ar  1 3.950000e-01    2.500000e+00
 TP1dr  N1ah  1 3.950000e-01    2.500000e+00
 TN6dh  N6dr  1 3.950000e-01    2.700000e+00
 TN6dh   N5r  1 3.950000e-01    2.940000e+00
 TN6dr   N5h  1 3.950000e-01    2.940000e+00
 TN6dh   N4r  1 3.950000e-01    2.940000e+00
 TN6dr   N4h  1 3.950000e-01    2.940000e+00
 TN6dh   N3r  1 3.950000e-01    2.500000e+00
 TN6dr   N3h  1 3.950000e-01    2.500000e+00
 TN6dh   N2r  1 3.950000e-01    2.310000e+00
 TN6dr   N2h  1 3.950000e-01    2.310000e+00
 TN6dh   N1r  1 3.950000e-01    2.310000e+00
 TN6dr   N1h  1 3.950000e-01    2.310000e+00
 TN6dh  N5dr  1 3.950000e-01    2.700000e+00
 TN6dr  N5dh  1 3.950000e-01    2.700000e+00
 TN6dh  N4dr  1 3.950000e-01    2.700000e+00
 TN6dr  N4dh  1 3.950000e-01    2.700000e+00
 TN6dh  N3dr  1 3.950000e-01    2.310000e+00
 TN6dr  N3dh  1 3.950000e-01    2.310000e+00
 TN6dh  N2dr  1 3.950000e-01    2.110000e+00
 TN6dr  N2dh  1 3.950000e-01    2.110000e+00
 TN6dh  N1dr  1 3.950000e-01    2.110000e+00
 TN6dr  N1dh  1 3.950000e-01    2.110000e+00
 TN6dh  N6ar  1 3.950000e-01    3.190000e+00
 TN6dr  N6ah  1 3.950000e-01    3.190000e+00
 TN6dh  N5ar  1 3.950000e-01    3.190000e+00
 TN6dr  N5ah  1 3.950000e-01    3.190000e+00
 TN6dh  N4ar  1 3.950000e-01    3.190000e+00
 TN6dr  N4ah  1 3.950000e-01    3.190000e+00
 TN6dh  N3ar  1 3.950000e-01    2.700000e+00
 TN6dr  N3ah  1 3.950000e-01    2.700000e+00
 TN6dh  N2ar  1 3.950000e-01    2.500000e+00
 TN6dr  N2ah  1 3.950000e-01    2.500000e+00
 TN6dh  N1ar  1 3.950000e-01    2.500000e+00
 TN6dr  N1ah  1 3.950000e-01    2.500000e+00
 TN5dh  N5dr  1 3.950000e-01    2.500000e+00
 TN5dh   N4r  1 3.950000e-01    2.700000e+00
 TN5dr   N4h  1 3.950000e-01    2.700000e+00
 TN5dh   N3r  1 3.950000e-01    2.500000e+00
 TN5dr   N3h  1 3.950000e-01    2.500000e+00
 TN5dh   N2r  1 3.950000e-01    2.500000e+00
 TN5dr   N2h  1 3.950000e-01    2.500000e+00
 TN5dh   N1r  1 3.950000e-01    2.310000e+00
 TN5dr   N1h  1 3.950000e-01    2.310000e+00
 TN5dh  N4dr  1 3.950000e-01    2.500000e+00
 TN5dr  N4dh  1 3.950000e-01    2.500000e+00
 TN5dh  N3dr  1 3.950000e-01    2.310000e+00
 TN5dr  N3dh  1 3.950000e-01    2.310000e+00
 TN5dh  N2dr  1 3.950000e-01    2.310000e+00
 TN5dr  N2dh  1 3.950000e-01    2.310000e+00
 TN5dh  N1dr  1 3.950000e-01    2.110000e+00
 TN5dr  N1dh  1 3.950000e-01    2.110000e+00
 TN5dh  N5ar  1 3.950000e-01    2.940000e+00
 TN5dr  N5ah  1 3.950000e-01    2.940000e+00
 TN5dh  N4ar  1 3.950000e-01    2.940000e+00
 TN5dr  N4ah  1 3.950000e-01    2.940000e+00
 TN5dh  N3ar  1 3.950000e-01    2.700000e+00
 TN5dr  N3ah  1 3.950000e-01    2.700000e+00
 TN5dh  N2ar  1 3.950000e-01    2.700000e+00
 TN5dr  N2ah  1 3.950000e-01    2.700000e+00
 TN5dh  N1ar  1 3.950000e-01    2.500000e+00
 TN5dr  N1ah  1 3.950000e-01    2.500000e+00
 TN4dh  N4dr  1 3.950000e-01    2.500000e+00
 TN4dh   N3r  1 3.950000e-01    2.500000e+00
 TN4dr   N3h  1 3.950000e-01    2.500000e+00
 TN4dh   N2r  1 3.950000e-01    2.500000e+00
 TN4dr   N2h  1 3.950000e-01    2.500000e+00
 TN4dh   N1r  1 3.950000e-01    2.310000e+00
 TN4dr   N1h  1 3.950000e-01    2.310000e+00
 TN4dh  N3dr  1 3.950000e-01    2.310000e+00
 TN4dr  N3dh  1 3.950000e-01    2.310000e+00
 TN4dh  N2dr  1 3.950000e-01    2.310000e+00
 TN4dr  N2dh  1 3.950000e-01    2.310000e+00
 TN4dh  N1dr  1 3.950000e-01    2.110000e+00
 TN4dr  N1dh  1 3.950000e-01    2.110000e+00
 TN4dh  N4ar  1 3.950000e-01    2.940000e+00
 TN4dr  N4ah  1 3.950000e-01    2.940000e+00
 TN4dh  N3ar  1 3.950000e-01    2.700000e+00
 TN4dr  N3ah  1 3.950000e-01    2.700000e+00
 TN4dh  N2ar  1 3.950000e-01    2.700000e+00
 TN4dr  N2ah  1 3.950000e-01    2.700000e+00
 TN4dh  N1ar  1 3.950000e-01    2.500000e+00
 TN4dr  N1ah  1 3.950000e-01    2.500000e+00
 TN3dh  N3dr  1 3.950000e-01    2.310000e+00
 TN3dh   N2r  1 3.950000e-01    2.500000e+00
 TN3dr   N2h  1 3.950000e-01    2.500000e+00
 TN3dh   N1r  1 3.950000e-01    2.310000e+00
 TN3dr   N1h  1 3.950000e-01    2.310000e+00
 TN3dh  N2dr  1 3.950000e-01    2.310000e+00
 TN3dr  N2dh  1 3.950000e-01    2.310000e+00
 TN3dh  N1dr  1 3.950000e-01    2.110000e+00
 TN3dr  N1dh  1 3.950000e-01    2.110000e+00
 TN3dh  N3ar  1 3.950000e-01    2.700000e+00
 TN3dr  N3ah  1 3.950000e-01    2.700000e+00
 TN3dh  N2ar  1 3.950000e-01    2.700000e+00
 TN3dr  N2ah  1 3.950000e-01    2.700000e+00
 TN3dh  N1ar  1 3.950000e-01    2.500000e+00
 TN3dr  N1ah  1 3.950000e-01    2.500000e+00
 TN2dh  N2dr  1 3.950000e-01    2.310000e+00
 TN2dh   N1r  1 3.950000e-01    2.310000e+00
 TN2dr   N1h  1 3.950000e-01    2.310000e+00
 TN2dh  N1dr  1 3.950000e-01    2.110000e+00
 TN2dr  N1dh  1 3.950000e-01    2.110000e+00
 TN2dh  N2ar  1 3.950000e-01    2.700000e+00
 TN2dr  N2ah  1 3.950000e-01    2.700000e+00
 TN2dh  N1ar  1 3.950000e-01    2.500000e+00
 TN2dr  N1ah  1 3.950000e-01    2.500000e+00
 TN1dh  N1dr  1 3.950000e-01    2.310000e+00
 TN1dh  N1ar  1 3.950000e-01    2.700000e+00
 TN1dr  N1ah  1 3.950000e-01    2.700000e+00
 TP6ah  P6ar  1 3.950000e-01    3.910000e+00
 TP6ah   P5r  1 3.950000e-01    3.910000e+00
 TP6ar   P5h  1 3.950000e-01    3.910000e+00
 TP6ah   P4r  1 3.950000e-01    3.670000e+00
 TP6ar   P4h  1 3.950000e-01    3.670000e+00
 TP6ah   P3r  1 3.950000e-01    3.430000e+00
 TP6ar   P3h  1 3.950000e-01    3.430000e+00
 TP6ah   P2r  1 3.950000e-01    3.430000e+00
 TP6ar   P2h  1 3.950000e-01    3.430000e+00
 TP6ah   P1r  1 3.950000e-01    3.190000e+00
 TP6ar   P1h  1 3.950000e-01    3.190000e+00
 TP6ah   N6r  1 3.950000e-01    2.940000e+00
 TP6ar   N6h  1 3.950000e-01    2.940000e+00
 TP6ah   N5r  1 3.950000e-01    2.500000e+00
 TP6ar   N5h  1 3.950000e-01    2.500000e+00
 TP6ah   N4r  1 3.950000e-01    2.310000e+00
 TP6ar   N4h  1 3.950000e-01    2.310000e+00
 TP6ah   N3r  1 3.950000e-01    2.110000e+00
 TP6ar   N3h  1 3.950000e-01    2.110000e+00
 TP6ah   N2r  1 3.950000e-01    1.850000e+00
 TP6ar   N2h  1 3.950000e-01    1.850000e+00
 TP6ah   N1r  1 3.950000e-01    1.670000e+00
 TP6ar   N1h  1 3.950000e-01    1.670000e+00
 TP6ah  P5dr  1 3.950000e-01    4.230000e+00
 TP6ar  P5dh  1 3.950000e-01    4.230000e+00
 TP6ah  P4dr  1 3.950000e-01    3.910000e+00
 TP6ar  P4dh  1 3.950000e-01    3.910000e+00
 TP6ah  P3dr  1 3.950000e-01    3.670000e+00
 TP6ar  P3dh  1 3.950000e-01    3.670000e+00
 TP6ah  P2dr  1 3.950000e-01    3.670000e+00
 TP6ar  P2dh  1 3.950000e-01    3.670000e+00
 TP6ah  P1dr  1 3.950000e-01    3.430000e+00
 TP6ar  P1dh  1 3.950000e-01    3.430000e+00
 TP6ah  N6dr  1 3.950000e-01    3.190000e+00
 TP6ar  N6dh  1 3.950000e-01    3.190000e+00
 TP6ah  N5dr  1 3.950000e-01    2.700000e+00
 TP6ar  N5dh  1 3.950000e-01    2.700000e+00
 TP6ah  N4dr  1 3.950000e-01    2.500000e+00
 TP6ar  N4dh  1 3.950000e-01    2.500000e+00
 TP6ah  N3dr  1 3.950000e-01    2.110000e+00
 TP6ar  N3dh  1 3.950000e-01    2.110000e+00
 TP6ah  N2dr  1 3.950000e-01    1.850000e+00
 TP6ar  N2dh  1 3.950000e-01    1.850000e+00
 TP6ah  N1dr  1 3.950000e-01    1.670000e+00
 TP6ar  N1dh  1 3.950000e-01    1.670000e+00
 TP6ah  P5ar  1 3.950000e-01    3.670000e+00
 TP6ar  P5ah  1 3.950000e-01    3.670000e+00
 TP6ah  P4ar  1 3.950000e-01    3.430000e+00
 TP6ar  P4ah  1 3.950000e-01    3.430000e+00
 TP6ah  P3ar  1 3.950000e-01    3.190000e+00
 TP6ar  P3ah  1 3.950000e-01    3.190000e+00
 TP6ah  P2ar  1 3.950000e-01    3.190000e+00
 TP6ar  P2ah  1 3.950000e-01    3.190000e+00
 TP6ah  P1ar  1 3.950000e-01    2.940000e+00
 TP6ar  P1ah  1 3.950000e-01    2.940000e+00
 TP6ah  N6ar  1 3.950000e-01    2.700000e+00
 TP6ar  N6ah  1 3.950000e-01    2.700000e+00
 TP6ah  N5ar  1 3.950000e-01    2.310000e+00
 TP6ar  N5ah  1 3.950000e-01    2.310000e+00
 TP6ah  N4ar  1 3.950000e-01    2.110000e+00
 TP6ar  N4ah  1 3.950000e-01    2.110000e+00
 TP6ah  N3ar  1 3.950000e-01    2.110000e+00
 TP6ar  N3ah  1 3.950000e-01    2.110000e+00
 TP6ah  N2ar  1 3.950000e-01    1.850000e+00
 TP6ar  N2ah  1 3.950000e-01    1.850000e+00
 TP6ah  N1ar  1 3.950000e-01    1.670000e+00
 TP6ar  N1ah  1 3.950000e-01    1.670000e+00
 TP5ah  P5ar  1 3.950000e-01    3.430000e+00
 TP5ah   P4r  1 3.950000e-01    3.430000e+00
 TP5ar   P4h  1 3.950000e-01    3.430000e+00
 TP5ah   P3r  1 3.950000e-01    3.190000e+00
 TP5ar   P3h  1 3.950000e-01    3.190000e+00
 TP5ah   P2r  1 3.950000e-01    3.190000e+00
 TP5ar   P2h  1 3.950000e-01    3.190000e+00
 TP5ah   P1r  1 3.950000e-01    2.940000e+00
 TP5ar   P1h  1 3.950000e-01    2.940000e+00
 TP5ah   N6r  1 3.950000e-01    2.700000e+00
 TP5ar   N6h  1 3.950000e-01    2.700000e+00
 TP5ah   N5r  1 3.950000e-01    2.500000e+00
 TP5ar   N5h  1 3.950000e-01    2.500000e+00
 TP5ah   N4r  1 3.950000e-01    2.500000e+00
 TP5ar   N4h  1 3.950000e-01    2.500000e+00
 TP5ah   N3r  1 3.950000e-01    2.110000e+00
 TP5ar   N3h  1 3.950000e-01    2.110000e+00
 TP5ah   N2r  1 3.950000e-01    1.850000e+00
 TP5ar   N2h  1 3.950000e-01    1.850000e+00
 TP5ah   N1r  1 3.950000e-01    1.670000e+00
 TP5ar   N1h  1 3.950000e-01    1.670000e+00
 TP5ah  P4dr  1 3.950000e-01    3.670000e+00
 TP5ar  P4dh  1 3.950000e-01    3.670000e+00
 TP5ah  P3dr  1 3.950000e-01    3.430000e+00
 TP5ar  P3dh  1 3.950000e-01    3.430000e+00
 TP5ah  P2dr  1 3.950000e-01    3.430000e+00
 TP5ar  P2dh  1 3.950000e-01    3.430000e+00
 TP5ah  P1dr  1 3.950000e-01    3.190000e+00
 TP5ar  P1dh  1 3.950000e-01    3.190000e+00
 TP5ah  N6dr  1 3.950000e-01    2.940000e+00
 TP5ar  N6dh  1 3.950000e-01    2.940000e+00
 TP5ah  N5dr  1 3.950000e-01    2.700000e+00
 TP5ar  N5dh  1 3.950000e-01    2.700000e+00
 TP5ah  N4dr  1 3.950000e-01    2.700000e+00
 TP5ar  N4dh  1 3.950000e-01    2.700000e+00
 TP5ah  N3dr  1 3.950000e-01    2.110000e+00
 TP5ar  N3dh  1 3.950000e-01    2.110000e+00
 TP5ah  N2dr  1 3.950000e-01    1.850000e+00
 TP5ar  N2dh  1 3.950000e-01    1.850000e+00
 TP5ah  N1dr  1 3.950000e-01    1.670000e+00
 TP5ar  N1dh  1 3.950000e-01    1.670000e+00
 TP5ah  P4ar  1 3.950000e-01    3.190000e+00
 TP5ar  P4ah  1 3.950000e-01    3.190000e+00
 TP5ah  P3ar  1 3.950000e-01    2.940000e+00
 TP5ar  P3ah  1 3.950000e-01    2.940000e+00
 TP5ah  P2ar  1 3.950000e-01    2.940000e+00
 TP5ar  P2ah  1 3.950000e-01    2.940000e+00
 TP5ah  P1ar  1 3.950000e-01    2.700000e+00
 TP5ar  P1ah  1 3.950000e-01    2.700000e+00
 TP5ah  N6ar  1 3.950000e-01    2.500000e+00
 TP5ar  N6ah  1 3.950000e-01    2.500000e+00
 TP5ah  N5ar  1 3.950000e-01    2.310000e+00
 TP5ar  N5ah  1 3.950000e-01    2.310000e+00
 TP5ah  N4ar  1 3.950000e-01    2.310000e+00
 TP5ar  N4ah  1 3.950000e-01    2.310000e+00
 TP5ah  N3ar  1 3.950000e-01    2.110000e+00
 TP5ar  N3ah  1 3.950000e-01    2.110000e+00
 TP5ah  N2ar  1 3.950000e-01    1.850000e+00
 TP5ar  N2ah  1 3.950000e-01    1.850000e+00
 TP5ah  N1ar  1 3.950000e-01    1.670000e+00
 TP5ar  N1ah  1 3.950000e-01    1.670000e+00
 TP4ah  P4ar  1 3.950000e-01    3.190000e+00
 TP4ah   P3r  1 3.950000e-01    3.190000e+00
 TP4ar   P3h  1 3.950000e-01    3.190000e+00
 TP4ah   P2r  1 3.950000e-01    3.190000e+00
 TP4ar   P2h  1 3.950000e-01    3.190000e+00
 TP4ah   P1r  1 3.950000e-01    2.940000e+00
 TP4ar   P1h  1 3.950000e-01    2.940000e+00
 TP4ah   N6r  1 3.950000e-01    2.700000e+00
 TP4ar   N6h  1 3.950000e-01    2.700000e+00
 TP4ah   N5r  1 3.950000e-01    2.500000e+00
 TP4ar   N5h  1 3.950000e-01    2.500000e+00
 TP4ah   N4r  1 3.950000e-01    2.500000e+00
 TP4ar   N4h  1 3.950000e-01    2.500000e+00
 TP4ah   N3r  1 3.950000e-01    2.310000e+00
 TP4ar   N3h  1 3.950000e-01    2.310000e+00
 TP4ah   N2r  1 3.950000e-01    2.110000e+00
 TP4ar   N2h  1 3.950000e-01    2.110000e+00
 TP4ah   N1r  1 3.950000e-01    1.850000e+00
 TP4ar   N1h  1 3.950000e-01    1.850000e+00
 TP4ah  P3dr  1 3.950000e-01    3.430000e+00
 TP4ar  P3dh  1 3.950000e-01    3.430000e+00
 TP4ah  P2dr  1 3.950000e-01    3.430000e+00
 TP4ar  P2dh  1 3.950000e-01    3.430000e+00
 TP4ah  P1dr  1 3.950000e-01    3.190000e+00
 TP4ar  P1dh  1 3.950000e-01    3.190000e+00
 TP4ah  N6dr  1 3.950000e-01    2.940000e+00
 TP4ar  N6dh  1 3.950000e-01    2.940000e+00
 TP4ah  N5dr  1 3.950000e-01    2.700000e+00
 TP4ar  N5dh  1 3.950000e-01    2.700000e+00
 TP4ah  N4dr  1 3.950000e-01    2.700000e+00
 TP4ar  N4dh  1 3.950000e-01    2.700000e+00
 TP4ah  N3dr  1 3.950000e-01    2.500000e+00
 TP4ar  N3dh  1 3.950000e-01    2.500000e+00
 TP4ah  N2dr  1 3.950000e-01    2.110000e+00
 TP4ar  N2dh  1 3.950000e-01    2.110000e+00
 TP4ah  N1dr  1 3.950000e-01    1.850000e+00
 TP4ar  N1dh  1 3.950000e-01    1.850000e+00
 TP4ah  P3ar  1 3.950000e-01    2.940000e+00
 TP4ar  P3ah  1 3.950000e-01    2.940000e+00
 TP4ah  P2ar  1 3.950000e-01    2.940000e+00
 TP4ar  P2ah  1 3.950000e-01    2.940000e+00
 TP4ah  P1ar  1 3.950000e-01    2.700000e+00
 TP4ar  P1ah  1 3.950000e-01    2.700000e+00
 TP4ah  N6ar  1 3.950000e-01    2.500000e+00
 TP4ar  N6ah  1 3.950000e-01    2.500000e+00
 TP4ah  N5ar  1 3.950000e-01    2.310000e+00
 TP4ar  N5ah  1 3.950000e-01    2.310000e+00
 TP4ah  N4ar  1 3.950000e-01    2.310000e+00
 TP4ar  N4ah  1 3.950000e-01    2.310000e+00
 TP4ah  N3ar  1 3.950000e-01    2.110000e+00
 TP4ar  N3ah  1 3.950000e-01    2.110000e+00
 TP4ah  N2ar  1 3.950000e-01    2.110000e+00
 TP4ar  N2ah  1 3.950000e-01    2.110000e+00
 TP4ah  N1ar  1 3.950000e-01    1.850000e+00
 TP4ar  N1ah  1 3.950000e-01    1.850000e+00
 TP3ah  P3ar  1 3.950000e-01    2.940000e+00
 TP3ah   P2r  1 3.950000e-01    3.190000e+00
 TP3ar   P2h  1 3.950000e-01    3.190000e+00
 TP3ah   P1r  1 3.950000e-01    2.940000e+00
 TP3ar   P1h  1 3.950000e-01    2.940000e+00
 TP3ah   N6r  1 3.950000e-01    2.700000e+00
 TP3ar   N6h  1 3.950000e-01    2.700000e+00
 TP3ah   N5r  1 3.950000e-01    2.500000e+00
 TP3ar   N5h  1 3.950000e-01    2.500000e+00
 TP3ah   N4r  1 3.950000e-01    2.500000e+00
 TP3ar   N4h  1 3.950000e-01    2.500000e+00
 TP3ah   N3r  1 3.950000e-01    2.310000e+00
 TP3ar   N3h  1 3.950000e-01    2.310000e+00
 TP3ah   N2r  1 3.950000e-01    2.310000e+00
 TP3ar   N2h  1 3.950000e-01    2.310000e+00
 TP3ah   N1r  1 3.950000e-01    2.110000e+00
 TP3ar   N1h  1 3.950000e-01    2.110000e+00
 TP3ah  P2dr  1 3.950000e-01    3.430000e+00
 TP3ar  P2dh  1 3.950000e-01    3.430000e+00
 TP3ah  P1dr  1 3.950000e-01    3.190000e+00
 TP3ar  P1dh  1 3.950000e-01    3.190000e+00
 TP3ah  N6dr  1 3.950000e-01    2.940000e+00
 TP3ar  N6dh  1 3.950000e-01    2.940000e+00
 TP3ah  N5dr  1 3.950000e-01    2.700000e+00
 TP3ar  N5dh  1 3.950000e-01    2.700000e+00
 TP3ah  N4dr  1 3.950000e-01    2.700000e+00
 TP3ar  N4dh  1 3.950000e-01    2.700000e+00
 TP3ah  N3dr  1 3.950000e-01    2.500000e+00
 TP3ar  N3dh  1 3.950000e-01    2.500000e+00
 TP3ah  N2dr  1 3.950000e-01    2.500000e+00
 TP3ar  N2dh  1 3.950000e-01    2.500000e+00
 TP3ah  N1dr  1 3.950000e-01    2.110000e+00
 TP3ar  N1dh  1 3.950000e-01    2.110000e+00
 TP3ah  P2ar  1 3.950000e-01    2.940000e+00
 TP3ar  P2ah  1 3.950000e-01    2.940000e+00
 TP3ah  P1ar  1 3.950000e-01    2.700000e+00
 TP3ar  P1ah  1 3.950000e-01    2.700000e+00
 TP3ah  N6ar  1 3.950000e-01    2.500000e+00
 TP3ar  N6ah  1 3.950000e-01    2.500000e+00
 TP3ah  N5ar  1 3.950000e-01    2.310000e+00
 TP3ar  N5ah  1 3.950000e-01    2.310000e+00
 TP3ah  N4ar  1 3.950000e-01    2.310000e+00
 TP3ar  N4ah  1 3.950000e-01    2.310000e+00
 TP3ah  N3ar  1 3.950000e-01    2.110000e+00
 TP3ar  N3ah  1 3.950000e-01    2.110000e+00
 TP3ah  N2ar  1 3.950000e-01    2.110000e+00
 TP3ar  N2ah  1 3.950000e-01    2.110000e+00
 TP3ah  N1ar  1 3.950000e-01    2.110000e+00
 TP3ar  N1ah  1 3.950000e-01    2.110000e+00
 TP2ah  P2ar  1 3.950000e-01    2.940000e+00
 TP2ah   P1r  1 3.950000e-01    2.940000e+00
 TP2ar   P1h  1 3.950000e-01    2.940000e+00
 TP2ah   N6r  1 3.950000e-01    2.940000e+00
 TP2ar   N6h  1 3.950000e-01    2.940000e+00
 TP2ah   N5r  1 3.950000e-01    2.700000e+00
 TP2ar   N5h  1 3.950000e-01    2.700000e+00
 TP2ah   N4r  1 3.950000e-01    2.500000e+00
 TP2ar   N4h  1 3.950000e-01    2.500000e+00
 TP2ah   N3r  1 3.950000e-01    2.310000e+00
 TP2ar   N3h  1 3.950000e-01    2.310000e+00
 TP2ah   N2r  1 3.950000e-01    2.310000e+00
 TP2ar   N2h  1 3.950000e-01    2.310000e+00
 TP2ah   N1r  1 3.950000e-01    2.310000e+00
 TP2ar   N1h  1 3.950000e-01    2.310000e+00
 TP2ah  P1dr  1 3.950000e-01    3.190000e+00
 TP2ar  P1dh  1 3.950000e-01    3.190000e+00
 TP2ah  N6dr  1 3.950000e-01    3.190000e+00
 TP2ar  N6dh  1 3.950000e-01    3.190000e+00
 TP2ah  N5dr  1 3.950000e-01    2.940000e+00
 TP2ar  N5dh  1 3.950000e-01    2.940000e+00
 TP2ah  N4dr  1 3.950000e-01    2.700000e+00
 TP2ar  N4dh  1 3.950000e-01    2.700000e+00
 TP2ah  N3dr  1 3.950000e-01    2.500000e+00
 TP2ar  N3dh  1 3.950000e-01    2.500000e+00
 TP2ah  N2dr  1 3.950000e-01    2.500000e+00
 TP2ar  N2dh  1 3.950000e-01    2.500000e+00
 TP2ah  N1dr  1 3.950000e-01    2.500000e+00
 TP2ar  N1dh  1 3.950000e-01    2.500000e+00
 TP2ah  P1ar  1 3.950000e-01    2.700000e+00
 TP2ar  P1ah  1 3.950000e-01    2.700000e+00
 TP2ah  N6ar  1 3.950000e-01    2.700000e+00
 TP2ar  N6ah  1 3.950000e-01    2.700000e+00
 TP2ah  N5ar  1 3.950000e-01    2.500000e+00
 TP2ar  N5ah  1 3.950000e-01    2.500000e+00
 TP2ah  N4ar  1 3.950000e-01    2.310000e+00
 TP2ar  N4ah  1 3.950000e-01    2.310000e+00
 TP2ah  N3ar  1 3.950000e-01    2.110000e+00
 TP2ar  N3ah  1 3.950000e-01    2.110000e+00
 TP2ah  N2ar  1 3.950000e-01    2.110000e+00
 TP2ar  N2ah  1 3.950000e-01    2.110000e+00
 TP2ah  N1ar  1 3.950000e-01    2.110000e+00
 TP2ar  N1ah  1 3.950000e-01    2.110000e+00
 TP1ah  P1ar  1 3.950000e-01    2.700000e+00
 TP1ah   N6r  1 3.950000e-01    2.940000e+00
 TP1ar   N6h  1 3.950000e-01    2.940000e+00
 TP1ah   N5r  1 3.950000e-01    2.700000e+00
 TP1ar   N5h  1 3.950000e-01    2.700000e+00
 TP1ah   N4r  1 3.950000e-01    2.700000e+00
 TP1ar   N4h  1 3.950000e-01    2.700000e+00
 TP1ah   N3r  1 3.950000e-01    2.310000e+00
 TP1ar   N3h  1 3.950000e-01    2.310000e+00
 TP1ah   N2r  1 3.950000e-01    2.310000e+00
 TP1ar   N2h  1 3.950000e-01    2.310000e+00
 TP1ah   N1r  1 3.950000e-01    2.310000e+00
 TP1ar   N1h  1 3.950000e-01    2.310000e+00
 TP1ah  N6dr  1 3.950000e-01    3.190000e+00
 TP1ar  N6dh  1 3.950000e-01    3.190000e+00
 TP1ah  N5dr  1 3.950000e-01    2.940000e+00
 TP1ar  N5dh  1 3.950000e-01    2.940000e+00
 TP1ah  N4dr  1 3.950000e-01    2.940000e+00
 TP1ar  N4dh  1 3.950000e-01    2.940000e+00
 TP1ah  N3dr  1 3.950000e-01    2.500000e+00
 TP1ar  N3dh  1 3.950000e-01    2.500000e+00
 TP1ah  N2dr  1 3.950000e-01    2.500000e+00
 TP1ar  N2dh  1 3.950000e-01    2.500000e+00
 TP1ah  N1dr  1 3.950000e-01    2.500000e+00
 TP1ar  N1dh  1 3.950000e-01    2.500000e+00
 TP1ah  N6ar  1 3.950000e-01    2.700000e+00
 TP1ar  N6ah  1 3.950000e-01    2.700000e+00
 TP1ah  N5ar  1 3.950000e-01    2.500000e+00
 TP1ar  N5ah  1 3.950000e-01    2.500000e+00
 TP1ah  N4ar  1 3.950000e-01    2.500000e+00
 TP1ar  N4ah  1 3.950000e-01    2.500000e+00
 TP1ah  N3ar  1 3.950000e-01    2.110000e+00
 TP1ar  N3ah  1 3.950000e-01    2.110000e+00
 TP1ah  N2ar  1 3.950000e-01    2.110000e+00
 TP1ar  N2ah  1 3.950000e-01    2.110000e+00
 TP1ah  N1ar  1 3.950000e-01    2.110000e+00
 TP1ar  N1ah  1 3.950000e-01    2.110000e+00
 TN6ah  N6ar  1 3.950000e-01    2.700000e+00
 TN6ah   N5r  1 3.950000e-01    2.940000e+00
 TN6ar   N5h  1 3.950000e-01    2.940000e+00
 TN6ah   N4r  1 3.950000e-01    2.940000e+00
 TN6ar   N4h  1 3.950000e-01    2.940000e+00
 TN6ah   N3r  1 3.950000e-01    2.500000e+00
 TN6ar   N3h  1 3.950000e-01    2.500000e+00
 TN6ah   N2r  1 3.950000e-01    2.310000e+00
 TN6ar   N2h  1 3.950000e-01    2.310000e+00
 TN6ah   N1r  1 3.950000e-01    2.310000e+00
 TN6ar   N1h  1 3.950000e-01    2.310000e+00
 TN6ah  N5dr  1 3.950000e-01    3.190000e+00
 TN6ar  N5dh  1 3.950000e-01    3.190000e+00
 TN6ah  N4dr  1 3.950000e-01    3.190000e+00
 TN6ar  N4dh  1 3.950000e-01    3.190000e+00
 TN6ah  N3dr  1 3.950000e-01    2.700000e+00
 TN6ar  N3dh  1 3.950000e-01    2.700000e+00
 TN6ah  N2dr  1 3.950000e-01    2.500000e+00
 TN6ar  N2dh  1 3.950000e-01    2.500000e+00
 TN6ah  N1dr  1 3.950000e-01    2.500000e+00
 TN6ar  N1dh  1 3.950000e-01    2.500000e+00
 TN6ah  N5ar  1 3.950000e-01    2.700000e+00
 TN6ar  N5ah  1 3.950000e-01    2.700000e+00
 TN6ah  N4ar  1 3.950000e-01    2.700000e+00
 TN6ar  N4ah  1 3.950000e-01    2.700000e+00
 TN6ah  N3ar  1 3.950000e-01    2.310000e+00
 TN6ar  N3ah  1 3.950000e-01    2.310000e+00
 TN6ah  N2ar  1 3.950000e-01    2.110000e+00
 TN6ar  N2ah  1 3.950000e-01    2.110000e+00
 TN6ah  N1ar  1 3.950000e-01    2.110000e+00
 TN6ar  N1ah  1 3.950000e-01    2.110000e+00
 TN5ah  N5ar  1 3.950000e-01    2.500000e+00
 TN5ah   N4r  1 3.950000e-01    2.700000e+00
 TN5ar   N4h  1 3.950000e-01    2.700000e+00
 TN5ah   N3r  1 3.950000e-01    2.500000e+00
 TN5ar   N3h  1 3.950000e-01    2.500000e+00
 TN5ah   N2r  1 3.950000e-01    2.500000e+00
 TN5ar   N2h  1 3.950000e-01    2.500000e+00
 TN5ah   N1r  1 3.950000e-01    2.310000e+00
 TN5ar   N1h  1 3.950000e-01    2.310000e+00
 TN5ah  N4dr  1 3.950000e-01    2.940000e+00
 TN5ar  N4dh  1 3.950000e-01    2.940000e+00
 TN5ah  N3dr  1 3.950000e-01    2.700000e+00
 TN5ar  N3dh  1 3.950000e-01    2.700000e+00
 TN5ah  N2dr  1 3.950000e-01    2.700000e+00
 TN5ar  N2dh  1 3.950000e-01    2.700000e+00
 TN5ah  N1dr  1 3.950000e-01    2.500000e+00
 TN5ar  N1dh  1 3.950000e-01    2.500000e+00
 TN5ah  N4ar  1 3.950000e-01    2.500000e+00
 TN5ar  N4ah  1 3.950000e-01    2.500000e+00
 TN5ah  N3ar  1 3.950000e-01    2.310000e+00
 TN5ar  N3ah  1 3.950000e-01    2.310000e+00
 TN5ah  N2ar  1 3.950000e-01    2.310000e+00
 TN5ar  N2ah  1 3.950000e-01    2.310000e+00
 TN5ah  N1ar  1 3.950000e-01    2.110000e+00
 TN5ar  N1ah  1 3.950000e-01    2.110000e+00
 TN4ah  N4ar  1 3.950000e-01    2.500000e+00
 TN4ah   N3r  1 3.950000e-01    2.500000e+00
 TN4ar   N3h  1 3.950000e-01    2.500000e+00
 TN4ah   N2r  1 3.950000e-01    2.500000e+00
 TN4ar   N2h  1 3.950000e-01    2.500000e+00
 TN4ah   N1r  1 3.950000e-01    2.310000e+00
 TN4ar   N1h  1 3.950000e-01    2.310000e+00
 TN4ah  N3dr  1 3.950000e-01    2.700000e+00
 TN4ar  N3dh  1 3.950000e-01    2.700000e+00
 TN4ah  N2dr  1 3.950000e-01    2.700000e+00
 TN4ar  N2dh  1 3.950000e-01    2.700000e+00
 TN4ah  N1dr  1 3.950000e-01    2.500000e+00
 TN4ar  N1dh  1 3.950000e-01    2.500000e+00
 TN4ah  N3ar  1 3.950000e-01    2.310000e+00
 TN4ar  N3ah  1 3.950000e-01    2.310000e+00
 TN4ah  N2ar  1 3.950000e-01    2.310000e+00
 TN4ar  N2ah  1 3.950000e-01    2.310000e+00
 TN4ah  N1ar  1 3.950000e-01    2.110000e+00
 TN4ar  N1ah  1 3.950000e-01    2.110000e+00
 TN3ah  N3ar  1 3.950000e-01    2.310000e+00
 TN3ah   N2r  1 3.950000e-01    2.500000e+00
 TN3ar   N2h  1 3.950000e-01    2.500000e+00
 TN3ah   N1r  1 3.950000e-01    2.310000e+00
 TN3ar   N1h  1 3.950000e-01    2.310000e+00
 TN3ah  N2dr  1 3.950000e-01    2.700000e+00
 TN3ar  N2dh  1 3.950000e-01    2.700000e+00
 TN3ah  N1dr  1 3.950000e-01    2.500000e+00
 TN3ar  N1dh  1 3.950000e-01    2.500000e+00
 TN3ah  N2ar  1 3.950000e-01    2.310000e+00
 TN3ar  N2ah  1 3.950000e-01    2.310000e+00
 TN3ah  N1ar  1 3.950000e-01    2.110000e+00
 TN3ar  N1ah  1 3.950000e-01    2.110000e+00
 TN2ah  N2ar  1 3.950000e-01    2.310000e+00
 TN2ah   N1r  1 3.950000e-01    2.310000e+00
 TN2ar   N1h  1 3.950000e-01    2.310000e+00
 TN2ah  N1dr  1 3.950000e-01    2.500000e+00
 TN2ar  N1dh  1 3.950000e-01    2.500000e+00
 TN2ah  N1ar  1 3.950000e-01    2.110000e+00
 TN2ar  N1ah  1 3.950000e-01    2.110000e+00
 TN1ah  N1ar  1 3.950000e-01    2.310000e+00
  TC6h   C6r  1 3.950000e-01    2.500000e+00
  TC6h   C5r  1 3.950000e-01    2.310000e+00
  TC6r   C5h  1 3.950000e-01    2.310000e+00
  TC6h   C4r  1 3.950000e-01    2.310000e+00
  TC6r   C4h  1 3.950000e-01    2.310000e+00
  TC6h   C3r  1 3.950000e-01    2.110000e+00
  TC6r   C3h  1 3.950000e-01    2.110000e+00
  TC6h   C2r  1 3.950000e-01    1.850000e+00
  TC6r   C2h  1 3.950000e-01    1.850000e+00
  TC6h   C1r  1 3.950000e-01    1.670000e+00
  TC6r   C1h  1 3.950000e-01    1.670000e+00
  TC6h   X4r  1 3.950000e-01    2.310000e+00
  TC6r   X4h  1 3.950000e-01    2.310000e+00
  TC6h   X3r  1 3.950000e-01    2.310000e+00
  TC6r   X3h  1 3.950000e-01    2.310000e+00
  TC6h   X2r  1 3.950000e-01    2.310000e+00
  TC6r   X2h  1 3.950000e-01    2.310000e+00
  TC6h   X1r  1 3.950000e-01    2.310000e+00
  TC6r   X1h  1 3.950000e-01    2.310000e+00
  TC6h  C6vr  1 3.950000e-01    2.700000e+00
  TC6r  C6vh  1 3.950000e-01    2.700000e+00
  TC6h  C5vr  1 3.950000e-01    2.500000e+00
  TC6r  C5vh  1 3.950000e-01    2.500000e+00
  TC6h  C4vr  1 3.950000e-01    2.500000e+00
  TC6r  C4vh  1 3.950000e-01    2.500000e+00
  TC6h  C3vr  1 3.950000e-01    2.310000e+00
  TC6r  C3vh  1 3.950000e-01    2.310000e+00
  TC6h  C2vr  1 3.950000e-01    2.110000e+00
  TC6r  C2vh  1 3.950000e-01    2.110000e+00
  TC6h  C1vr  1 3.950000e-01    1.850000e+00
  TC6r  C1vh  1 3.950000e-01    1.850000e+00
  TC6h  X4vr  1 3.950000e-01    2.500000e+00
  TC6r  X4vh  1 3.950000e-01    2.500000e+00
  TC6h  X3vr  1 3.950000e-01    2.500000e+00
  TC6r  X3vh  1 3.950000e-01    2.500000e+00
  TC6h  X2vr  1 3.950000e-01    2.500000e+00
  TC6r  X2vh  1 3.950000e-01    2.500000e+00
  TC6h  X1vr  1 3.950000e-01    2.500000e+00
  TC6r  X1vh  1 3.950000e-01    2.500000e+00
  TC6h  C6er  1 3.950000e-01    2.700000e+00
  TC6r  C6eh  1 3.950000e-01    2.700000e+00
  TC6h  C5er  1 3.950000e-01    2.500000e+00
  TC6r  C5eh  1 3.950000e-01    2.500000e+00
  TC6h  C4er  1 3.950000e-01    2.500000e+00
  TC6r  C4eh  1 3.950000e-01    2.500000e+00
  TC6h  C3er  1 3.950000e-01    2.310000e+00
  TC6r  C3eh  1 3.950000e-01    2.310000e+00
  TC6h  C2er  1 3.950000e-01    2.110000e+00
  TC6r  C2eh  1 3.950000e-01    2.110000e+00
  TC6h  C1er  1 3.950000e-01    1.850000e+00
  TC6r  C1eh  1 3.950000e-01    1.850000e+00
  TC6h  X4er  1 3.950000e-01    2.500000e+00
  TC6r  X4eh  1 3.950000e-01    2.500000e+00
  TC6h  X3er  1 3.950000e-01    2.500000e+00
  TC6r  X3eh  1 3.950000e-01    2.500000e+00
  TC6h  X2er  1 3.950000e-01    2.500000e+00
  TC6r  X2eh  1 3.950000e-01    2.500000e+00
  TC6h  X1er  1 3.950000e-01    2.500000e+00
  TC6r  X1eh  1 3.950000e-01    2.500000e+00
  TC5h   C5r  1 3.950000e-01    2.310000e+00
  TC5h   C4r  1 3.950000e-01    2.310000e+00
  TC5r   C4h  1 3.950000e-01    2.310000e+00
  TC5h   C3r  1 3.950000e-01    2.110000e+00
  TC5r   C3h  1 3.950000e-01    2.110000e+00
  TC5h   C2r  1 3.950000e-01    1.850000e+00
  TC5r   C2h  1 3.950000e-01    1.850000e+00
  TC5h   C1r  1 3.950000e-01    1.850000e+00
  TC5r   C1h  1 3.950000e-01    1.850000e+00
  TC5h   X4r  1 3.950000e-01    2.110000e+00
  TC5r   X4h  1 3.950000e-01    2.110000e+00
  TC5h   X3r  1 3.950000e-01    2.110000e+00
  TC5r   X3h  1 3.950000e-01    2.110000e+00
  TC5h   X2r  1 3.950000e-01    2.110000e+00
  TC5r   X2h  1 3.950000e-01    2.110000e+00
  TC5h   X1r  1 3.950000e-01    2.310000e+00
  TC5r   X1h  1 3.950000e-01    2.310000e+00
  TC5h  C5vr  1 3.950000e-01    2.500000e+00
  TC5r  C5vh  1 3.950000e-01    2.500000e+00
  TC5h  C4vr  1 3.950000e-01    2.500000e+00
  TC5r  C4vh  1 3.950000e-01    2.500000e+00
  TC5h  C3vr  1 3.950000e-01    2.310000e+00
  TC5r  C3vh  1 3.950000e-01    2.310000e+00
  TC5h  C2vr  1 3.950000e-01    2.110000e+00
  TC5r  C2vh  1 3.950000e-01    2.110000e+00
  TC5h  C1vr  1 3.950000e-01    2.110000e+00
  TC5r  C1vh  1 3.950000e-01    2.110000e+00
  TC5h  X4vr  1 3.950000e-01    2.310000e+00
  TC5r  X4vh  1 3.950000e-01    2.310000e+00
  TC5h  X3vr  1 3.950000e-01    2.310000e+00
  TC5r  X3vh  1 3.950000e-01    2.310000e+00
  TC5h  X2vr  1 3.950000e-01    2.310000e+00
  TC5r  X2vh  1 3.950000e-01    2.310000e+00
  TC5h  X1vr  1 3.950000e-01    2.500000e+00
  TC5r  X1vh  1 3.950000e-01    2.500000e+00
  TC5h  C5er  1 3.950000e-01    2.500000e+00
  TC5r  C5eh  1 3.950000e-01    2.500000e+00
  TC5h  C4er  1 3.950000e-01    2.500000e+00
  TC5r  C4eh  1 3.950000e-01    2.500000e+00
  TC5h  C3er  1 3.950000e-01    2.310000e+00
  TC5r  C3eh  1 3.950000e-01    2.310000e+00
  TC5h  C2er  1 3.950000e-01    2.110000e+00
  TC5r  C2eh  1 3.950000e-01    2.110000e+00
  TC5h  C1er  1 3.950000e-01    2.110000e+00
  TC5r  C1eh  1 3.950000e-01    2.110000e+00
  TC5h  X4er  1 3.950000e-01    2.310000e+00
  TC5r  X4eh  1 3.950000e-01    2.310000e+00
  TC5h  X3er  1 3.950000e-01    2.310000e+00
  TC5r  X3eh  1 3.950000e-01    2.310000e+00
  TC5h  X2er  1 3.950000e-01    2.310000e+00
  TC5r  X2eh  1 3.950000e-01    2.310000e+00
  TC5h  X1er  1 3.950000e-01    2.500000e+00
  TC5r  X1eh  1 3.950000e-01    2.500000e+00
  TC4h   C4r  1 3.950000e-01    2.310000e+00
  TC4h   C3r  1 3.950000e-01    2.310000e+00
  TC4r   C3h  1 3.950000e-01    2.310000e+00
  TC4h   C2r  1 3.950000e-01    2.110000e+00
  TC4r   C2h  1 3.950000e-01    2.110000e+00
  TC4h   C1r  1 3.950000e-01    1.850000e+00
  TC4r   C1h  1 3.950000e-01    1.850000e+00
  TC4h   X4r  1 3.950000e-01    2.110000e+00
  TC4r   X4h  1 3.950000e-01    2.110000e+00
  TC4h   X3r  1 3.950000e-01    2.110000e+00
  TC4r   X3h  1 3.950000e-01    2.110000e+00
  TC4h   X2r  1 3.950000e-01    2.110000e+00
  TC4r   X2h  1 3.950000e-01    2.110000e+00
  TC4h   X1r  1 3.950000e-01    2.310000e+00
  TC4r   X1h  1 3.950000e-01    2.310000e+00
  TC4h  C4vr  1 3.950000e-01    2.500000e+00
  TC4r  C4vh  1 3.950000e-01    2.500000e+00
  TC4h  C3vr  1 3.950000e-01    2.500000e+00
  TC4r  C3vh  1 3.950000e-01    2.500000e+00
  TC4h  C2vr  1 3.950000e-01    2.310000e+00
  TC4r  C2vh  1 3.950000e-01    2.310000e+00
  TC4h  C1vr  1 3.950000e-01    2.110000e+00
  TC4r  C1vh  1 3.950000e-01    2.110000e+00
  TC4h  X4vr  1 3.950000e-01    2.310000e+00
  TC4r  X4vh  1 3.950000e-01    2.310000e+00
  TC4h  X3vr  1 3.950000e-01    2.310000e+00
  TC4r  X3vh  1 3.950000e-01    2.310000e+00
  TC4h  X2vr  1 3.950000e-01    2.310000e+00
  TC4r  X2vh  1 3.950000e-01    2.310000e+00
  TC4h  X1vr  1 3.950000e-01    2.500000e+00
  TC4r  X1vh  1 3.950000e-01    2.500000e+00
  TC4h  C4er  1 3.950000e-01    2.500000e+00
  TC4r  C4eh  1 3.950000e-01    2.500000e+00
  TC4h  C3er  1 3.950000e-01    2.500000e+00
  TC4r  C3eh  1 3.950000e-01    2.500000e+00
  TC4h  C2er  1 3.950000e-01    2.310000e+00
  TC4r  C2eh  1 3.950000e-01    2.310000e+00
  TC4h  C1er  1 3.950000e-01    2.110000e+00
  TC4r  C1eh  1 3.950000e-01    2.110000e+00
  TC4h  X4er  1 3.950000e-01    2.310000e+00
  TC4r  X4eh  1 3.950000e-01    2.310000e+00
  TC4h  X3er  1 3.950000e-01    2.310000e+00
  TC4r  X3eh  1 3.950000e-01    2.310000e+00
  TC4h  X2er  1 3.950000e-01    2.310000e+00
  TC4r  X2eh  1 3.950000e-01    2.310000e+00
  TC4h  X1er  1 3.950000e-01    2.500000e+00
  TC4r  X1eh  1 3.950000e-01    2.500000e+00
  TC3h   C3r  1 3.950000e-01    2.310000e+00
  TC3h   C2r  1 3.950000e-01    2.310000e+00
  TC3r   C2h  1 3.950000e-01    2.310000e+00
  TC3h   C1r  1 3.950000e-01    2.310000e+00
  TC3r   C1h  1 3.950000e-01    2.310000e+00
  TC3h   X4r  1 3.950000e-01    2.110000e+00
  TC3r   X4h  1 3.950000e-01    2.110000e+00
  TC3h   X3r  1 3.950000e-01    2.110000e+00
  TC3r   X3h  1 3.950000e-01    2.110000e+00
  TC3h   X2r  1 3.950000e-01    2.110000e+00
  TC3r   X2h  1 3.950000e-01    2.110000e+00
  TC3h   X1r  1 3.950000e-01    2.310000e+00
  TC3r   X1h  1 3.950000e-01    2.310000e+00
  TC3h  C3vr  1 3.950000e-01    2.500000e+00
  TC3r  C3vh  1 3.950000e-01    2.500000e+00
  TC3h  C2vr  1 3.950000e-01    2.500000e+00
  TC3r  C2vh  1 3.950000e-01    2.500000e+00
  TC3h  C1vr  1 3.950000e-01    2.500000e+00
  TC3r  C1vh  1 3.950000e-01    2.500000e+00
  TC3h  X4vr  1 3.950000e-01    2.310000e+00
  TC3r  X4vh  1 3.950000e-01    2.310000e+00
  TC3h  X3vr  1 3.950000e-01    2.310000e+00
  TC3r  X3vh  1 3.950000e-01    2.310000e+00
  TC3h  X2vr  1 3.950000e-01    2.310000e+00
  TC3r  X2vh  1 3.950000e-01    2.310000e+00
  TC3h  X1vr  1 3.950000e-01    2.500000e+00
  TC3r  X1vh  1 3.950000e-01    2.500000e+00
  TC3h  C3er  1 3.950000e-01    2.500000e+00
  TC3r  C3eh  1 3.950000e-01    2.500000e+00
  TC3h  C2er  1 3.950000e-01    2.500000e+00
  TC3r  C2eh  1 3.950000e-01    2.500000e+00
  TC3h  C1er  1 3.950000e-01    2.500000e+00
  TC3r  C1eh  1 3.950000e-01    2.500000e+00
  TC3h  X4er  1 3.950000e-01    2.310000e+00
  TC3r  X4eh  1 3.950000e-01    2.310000e+00
  TC3h  X3er  1 3.950000e-01    2.310000e+00
  TC3r  X3eh  1 3.950000e-01    2.310000e+00
  TC3h  X2er  1 3.950000e-01    2.310000e+00
  TC3r  X2eh  1 3.950000e-01    2.310000e+00
  TC3h  X1er  1 3.950000e-01    2.500000e+00
  TC3r  X1eh  1 3.950000e-01    2.500000e+00
  TC2h   C2r  1 3.950000e-01    2.310000e+00
  TC2h   C1r  1 3.950000e-01    2.500000e+00
  TC2r   C1h  1 3.950000e-01    2.500000e+00
  TC2h   X4r  1 3.950000e-01    1.670000e+00
  TC2r   X4h  1 3.950000e-01    1.670000e+00
  TC2h   X3r  1 3.950000e-01    2.110000e+00
  TC2r   X3h  1 3.950000e-01    2.110000e+00
  TC2h   X2r  1 3.950000e-01    2.110000e+00
  TC2r   X2h  1 3.950000e-01    2.110000e+00
  TC2h   X1r  1 3.950000e-01    2.110000e+00
  TC2r   X1h  1 3.950000e-01    2.110000e+00
  TC2h  C2vr  1 3.950000e-01    2.500000e+00
  TC2r  C2vh  1 3.950000e-01    2.500000e+00
  TC2h  C1vr  1 3.950000e-01    2.700000e+00
  TC2r  C1vh  1 3.950000e-01    2.700000e+00
  TC2h  X4vr  1 3.950000e-01    1.850000e+00
  TC2r  X4vh  1 3.950000e-01    1.850000e+00
  TC2h  X3vr  1 3.950000e-01    2.310000e+00
  TC2r  X3vh  1 3.950000e-01    2.310000e+00
  TC2h  X2vr  1 3.950000e-01    2.310000e+00
  TC2r  X2vh  1 3.950000e-01    2.310000e+00
  TC2h  X1vr  1 3.950000e-01    2.310000e+00
  TC2r  X1vh  1 3.950000e-01    2.310000e+00
  TC2h  C2er  1 3.950000e-01    2.500000e+00
  TC2r  C2eh  1 3.950000e-01    2.500000e+00
  TC2h  C1er  1 3.950000e-01    2.700000e+00
  TC2r  C1eh  1 3.950000e-01    2.700000e+00
  TC2h  X4er  1 3.950000e-01    1.850000e+00
  TC2r  X4eh  1 3.950000e-01    1.850000e+00
  TC2h  X3er  1 3.950000e-01    2.310000e+00
  TC2r  X3eh  1 3.950000e-01    2.310000e+00
  TC2h  X2er  1 3.950000e-01    2.310000e+00
  TC2r  X2eh  1 3.950000e-01    2.310000e+00
  TC2h  X1er  1 3.950000e-01    2.310000e+00
  TC2r  X1eh  1 3.950000e-01    2.310000e+00
  TC1h   C1r  1 3.950000e-01    2.310000e+00
  TC1h   X4r  1 3.950000e-01    1.670000e+00
  TC1r   X4h  1 3.950000e-01    1.670000e+00
  TC1h   X3r  1 3.950000e-01    2.110000e+00
  TC1r   X3h  1 3.950000e-01    2.110000e+00
  TC1h   X2r  1 3.950000e-01    2.110000e+00
  TC1r   X2h  1 3.950000e-01    2.110000e+00
  TC1h   X1r  1 3.950000e-01    2.110000e+00
  TC1r   X1h  1 3.950000e-01    2.110000e+00
  TC1h  C1vr  1 3.950000e-01    2.500000e+00
  TC1r  C1vh  1 3.950000e-01    2.500000e+00
  TC1h  X4vr  1 3.950000e-01    1.850000e+00
  TC1r  X4vh  1 3.950000e-01    1.850000e+00
  TC1h  X3vr  1 3.950000e-01    2.310000e+00
  TC1r  X3vh  1 3.950000e-01    2.310000e+00
  TC1h  X2vr  1 3.950000e-01    2.310000e+00
  TC1r  X2vh  1 3.950000e-01    2.310000e+00
  TC1h  X1vr  1 3.950000e-01    2.310000e+00
  TC1r  X1vh  1 3.950000e-01    2.310000e+00
  TC1h  C1er  1 3.950000e-01    2.500000e+00
  TC1r  C1eh  1 3.950000e-01    2.500000e+00
  TC1h  X4er  1 3.950000e-01    1.850000e+00
  TC1r  X4eh  1 3.950000e-01    1.850000e+00
  TC1h  X3er  1 3.950000e-01    2.310000e+00
  TC1r  X3eh  1 3.950000e-01    2.310000e+00
  TC1h  X2er  1 3.950000e-01    2.310000e+00
  TC1r  X2eh  1 3.950000e-01    2.310000e+00
  TC1h  X1er  1 3.950000e-01    2.310000e+00
  TC1r  X1eh  1 3.950000e-01    2.310000e+00
  TX4h   X4r  1 3.950000e-01    2.310000e+00
  TX4h   X3r  1 3.950000e-01    2.310000e+00
  TX4r   X3h  1 3.950000e-01    2.310000e+00
  TX4h   X2r  1 3.950000e-01    2.310000e+00
  TX4r   X2h  1 3.950000e-01    2.310000e+00
  TX4h   X1r  1 3.950000e-01    2.310000e+00
  TX4r   X1h  1 3.950000e-01    2.310000e+00
  TX4h  X4vr  1 3.950000e-01    2.500000e+00
  TX4r  X4vh  1 3.950000e-01    2.500000e+00
  TX4h  X3vr  1 3.950000e-01    2.500000e+00
  TX4r  X3vh  1 3.950000e-01    2.500000e+00
  TX4h  X2vr  1 3.950000e-01    2.500000e+00
  TX4r  X2vh  1 3.950000e-01    2.500000e+00
  TX4h  X1vr  1 3.950000e-01    2.500000e+00
  TX4r  X1vh  1 3.950000e-01    2.500000e+00
  TX4h  X4er  1 3.950000e-01    2.500000e+00
  TX4r  X4eh  1 3.950000e-01    2.500000e+00
  TX4h  X3er  1 3.950000e-01    2.500000e+00
  TX4r  X3eh  1 3.950000e-01    2.500000e+00
  TX4h  X2er  1 3.950000e-01    2.500000e+00
  TX4r  X2eh  1 3.950000e-01    2.500000e+00
  TX4h  X1er  1 3.950000e-01    2.500000e+00
  TX4r  X1eh  1 3.950000e-01    2.500000e+00
  TX3h   X3r  1 3.950000e-01    2.310000e+00
  TX3h   X2r  1 3.950000e-01    2.500000e+00
  TX3r   X2h  1 3.950000e-01    2.500000e+00
  TX3h   X1r  1 3.950000e-01    2.500000e+00
  TX3r   X1h  1 3.950000e-01    2.500000e+00
  TX3h  X3vr  1 3.950000e-01    2.500000e+00
  TX3r  X3vh  1 3.950000e-01    2.500000e+00
  TX3h  X2vr  1 3.950000e-01    2.700000e+00
  TX3r  X2vh  1 3.950000e-01    2.700000e+00
  TX3h  X1vr  1 3.950000e-01    2.700000e+00
  TX3r  X1vh  1 3.950000e-01    2.700000e+00
  TX3h  X3er  1 3.950000e-01    2.500000e+00
  TX3r  X3eh  1 3.950000e-01    2.500000e+00
  TX3h  X2er  1 3.950000e-01    2.700000e+00
  TX3r  X2eh  1 3.950000e-01    2.700000e+00
  TX3h  X1er  1 3.950000e-01    2.700000e+00
  TX3r  X1eh  1 3.950000e-01    2.700000e+00
  TX2h   X2r  1 3.950000e-01    2.500000e+00
  TX2h   X1r  1 3.950000e-01    2.500000e+00
  TX2r   X1h  1 3.950000e-01    2.500000e+00
  TX2h  X2vr  1 3.950000e-01    2.700000e+00
  TX2r  X2vh  1 3.950000e-01    2.700000e+00
  TX2h  X1vr  1 3.950000e-01    2.700000e+00
  TX2r  X1vh  1 3.950000e-01    2.700000e+00
  TX2h  X2er  1 3.950000e-01    2.700000e+00
  TX2r  X2eh  1 3.950000e-01    2.700000e+00
  TX2h  X1er  1 3.950000e-01    2.700000e+00
  TX2r  X1eh  1 3.950000e-01    2.700000e+00
  TX1h   X1r  1 3.950000e-01    2.700000e+00
  TX1h  X1vr  1 3.950000e-01    2.940000e+00
  TX1r  X1vh  1 3.950000e-01    2.940000e+00
  TX1h  X1er  1 3.950000e-01    2.940000e+00
  TX1r  X1eh  1 3.950000e-01    2.940000e+00
 TC6vh  C6vr  1 3.950000e-01    2.310000e+00
 TC6vh   C5r  1 3.950000e-01    2.500000e+00
 TC6vr   C5h  1 3.950000e-01    2.500000e+00
 TC6vh   C4r  1 3.950000e-01    2.500000e+00
 TC6vr   C4h  1 3.950000e-01    2.500000e+00
 TC6vh   C3r  1 3.950000e-01    2.310000e+00
 TC6vr   C3h  1 3.950000e-01    2.310000e+00
 TC6vh   C2r  1 3.950000e-01    2.110000e+00
 TC6vr   C2h  1 3.950000e-01    2.110000e+00
 TC6vh   C1r  1 3.950000e-01    1.850000e+00
 TC6vr   C1h  1 3.950000e-01    1.850000e+00
 TC6vh   X4r  1 3.950000e-01    2.500000e+00
 TC6vr   X4h  1 3.950000e-01    2.500000e+00
 TC6vh   X3r  1 3.950000e-01    2.500000e+00
 TC6vr   X3h  1 3.950000e-01    2.500000e+00
 TC6vh   X2r  1 3.950000e-01    2.500000e+00
 TC6vr   X2h  1 3.950000e-01    2.500000e+00
 TC6vh   X1r  1 3.950000e-01    2.500000e+00
 TC6vr   X1h  1 3.950000e-01    2.500000e+00
 TC6vh  C5vr  1 3.950000e-01    2.110000e+00
 TC6vr  C5vh  1 3.950000e-01    2.110000e+00
 TC6vh  C4vr  1 3.950000e-01    2.110000e+00
 TC6vr  C4vh  1 3.950000e-01    2.110000e+00
 TC6vh  C3vr  1 3.950000e-01    1.850000e+00
 TC6vr  C3vh  1 3.950000e-01    1.850000e+00
 TC6vh  C2vr  1 3.950000e-01    1.670000e+00
 TC6vr  C2vh  1 3.950000e-01    1.670000e+00
 TC6vh  C1vr  1 3.980000e-01    1.450000e+00
 TC6vr  C1vh  1 3.980000e-01    1.450000e+00
 TC6vh  X4vr  1 3.950000e-01    2.110000e+00
 TC6vr  X4vh  1 3.950000e-01    2.110000e+00
 TC6vh  X3vr  1 3.950000e-01    2.110000e+00
 TC6vr  X3vh  1 3.950000e-01    2.110000e+00
 TC6vh  X2vr  1 3.950000e-01    2.110000e+00
 TC6vr  X2vh  1 3.950000e-01    2.110000e+00
 TC6vh  X1vr  1 3.950000e-01    2.110000e+00
 TC6vr  X1vh  1 3.950000e-01    2.110000e+00
 TC6vh  C6er  1 3.950000e-01    2.940000e+00
 TC6vr  C6eh  1 3.950000e-01    2.940000e+00
 TC6vh  C5er  1 3.950000e-01    2.700000e+00
 TC6vr  C5eh  1 3.950000e-01    2.700000e+00
 TC6vh  C4er  1 3.950000e-01    2.700000e+00
 TC6vr  C4eh  1 3.950000e-01    2.700000e+00
 TC6vh  C3er  1 3.950000e-01    2.500000e+00
 TC6vr  C3eh  1 3.950000e-01    2.500000e+00
 TC6vh  C2er  1 3.950000e-01    2.310000e+00
 TC6vr  C2eh  1 3.950000e-01    2.310000e+00
 TC6vh  C1er  1 3.950000e-01    2.110000e+00
 TC6vr  C1eh  1 3.950000e-01    2.110000e+00
 TC6vh  X4er  1 3.950000e-01    2.700000e+00
 TC6vr  X4eh  1 3.950000e-01    2.700000e+00
 TC6vh  X3er  1 3.950000e-01    2.700000e+00
 TC6vr  X3eh  1 3.950000e-01    2.700000e+00
 TC6vh  X2er  1 3.950000e-01    2.700000e+00
 TC6vr  X2eh  1 3.950000e-01    2.700000e+00
 TC6vh  X1er  1 3.950000e-01    2.700000e+00
 TC6vr  X1eh  1 3.950000e-01    2.700000e+00
 TC5vh  C5vr  1 3.950000e-01    2.110000e+00
 TC5vh   C4r  1 3.950000e-01    2.500000e+00
 TC5vr   C4h  1 3.950000e-01    2.500000e+00
 TC5vh   C3r  1 3.950000e-01    2.310000e+00
 TC5vr   C3h  1 3.950000e-01    2.310000e+00
 TC5vh   C2r  1 3.950000e-01    2.110000e+00
 TC5vr   C2h  1 3.950000e-01    2.110000e+00
 TC5vh   C1r  1 3.950000e-01    2.110000e+00
 TC5vr   C1h  1 3.950000e-01    2.110000e+00
 TC5vh   X4r  1 3.950000e-01    2.310000e+00
 TC5vr   X4h  1 3.950000e-01    2.310000e+00
 TC5vh   X3r  1 3.950000e-01    2.310000e+00
 TC5vr   X3h  1 3.950000e-01    2.310000e+00
 TC5vh   X2r  1 3.950000e-01    2.310000e+00
 TC5vr   X2h  1 3.950000e-01    2.310000e+00
 TC5vh   X1r  1 3.950000e-01    2.500000e+00
 TC5vr   X1h  1 3.950000e-01    2.500000e+00
 TC5vh  C4vr  1 3.950000e-01    2.110000e+00
 TC5vr  C4vh  1 3.950000e-01    2.110000e+00
 TC5vh  C3vr  1 3.950000e-01    1.850000e+00
 TC5vr  C3vh  1 3.950000e-01    1.850000e+00
 TC5vh  C2vr  1 3.950000e-01    1.670000e+00
 TC5vr  C2vh  1 3.950000e-01    1.670000e+00
 TC5vh  C1vr  1 3.950000e-01    1.670000e+00
 TC5vr  C1vh  1 3.950000e-01    1.670000e+00
 TC5vh  X4vr  1 3.950000e-01    1.850000e+00
 TC5vr  X4vh  1 3.950000e-01    1.850000e+00
 TC5vh  X3vr  1 3.950000e-01    1.850000e+00
 TC5vr  X3vh  1 3.950000e-01    1.850000e+00
 TC5vh  X2vr  1 3.950000e-01    1.850000e+00
 TC5vr  X2vh  1 3.950000e-01    1.850000e+00
 TC5vh  X1vr  1 3.950000e-01    2.110000e+00
 TC5vr  X1vh  1 3.950000e-01    2.110000e+00
 TC5vh  C5er  1 3.950000e-01    2.700000e+00
 TC5vr  C5eh  1 3.950000e-01    2.700000e+00
 TC5vh  C4er  1 3.950000e-01    2.700000e+00
 TC5vr  C4eh  1 3.950000e-01    2.700000e+00
 TC5vh  C3er  1 3.950000e-01    2.500000e+00
 TC5vr  C3eh  1 3.950000e-01    2.500000e+00
 TC5vh  C2er  1 3.950000e-01    2.310000e+00
 TC5vr  C2eh  1 3.950000e-01    2.310000e+00
 TC5vh  C1er  1 3.950000e-01    2.310000e+00
 TC5vr  C1eh  1 3.950000e-01    2.310000e+00
 TC5vh  X4er  1 3.950000e-01    2.500000e+00
 TC5vr  X4eh  1 3.950000e-01    2.500000e+00
 TC5vh  X3er  1 3.950000e-01    2.500000e+00
 TC5vr  X3eh  1 3.950000e-01    2.500000e+00
 TC5vh  X2er  1 3.950000e-01    2.500000e+00
 TC5vr  X2eh  1 3.950000e-01    2.500000e+00
 TC5vh  X1er  1 3.950000e-01    2.700000e+00
 TC5vr  X1eh  1 3.950000e-01    2.700000e+00
 TC4vh  C4vr  1 3.950000e-01    2.110000e+00
 TC4vh   C3r  1 3.950000e-01    2.500000e+00
 TC4vr   C3h  1 3.950000e-01    2.500000e+00
 TC4vh   C2r  1 3.950000e-01    2.310000e+00
 TC4vr   C2h  1 3.950000e-01    2.310000e+00
 TC4vh   C1r  1 3.950000e-01    2.110000e+00
 TC4vr   C1h  1 3.950000e-01    2.110000e+00
 TC4vh   X4r  1 3.950000e-01    2.310000e+00
 TC4vr   X4h  1 3.950000e-01    2.310000e+00
 TC4vh   X3r  1 3.950000e-01    2.310000e+00
 TC4vr   X3h  1 3.950000e-01    2.310000e+00
 TC4vh   X2r  1 3.950000e-01    2.310000e+00
 TC4vr   X2h  1 3.950000e-01    2.310000e+00
 TC4vh   X1r  1 3.950000e-01    2.500000e+00
 TC4vr   X1h  1 3.950000e-01    2.500000e+00
 TC4vh  C3vr  1 3.950000e-01    2.110000e+00
 TC4vr  C3vh  1 3.950000e-01    2.110000e+00
 TC4vh  C2vr  1 3.950000e-01    1.850000e+00
 TC4vr  C2vh  1 3.950000e-01    1.850000e+00
 TC4vh  C1vr  1 3.950000e-01    1.670000e+00
 TC4vr  C1vh  1 3.950000e-01    1.670000e+00
 TC4vh  X4vr  1 3.950000e-01    1.850000e+00
 TC4vr  X4vh  1 3.950000e-01    1.850000e+00
 TC4vh  X3vr  1 3.950000e-01    1.850000e+00
 TC4vr  X3vh  1 3.950000e-01    1.850000e+00
 TC4vh  X2vr  1 3.950000e-01    1.850000e+00
 TC4vr  X2vh  1 3.950000e-01    1.850000e+00
 TC4vh  X1vr  1 3.950000e-01    2.110000e+00
 TC4vr  X1vh  1 3.950000e-01    2.110000e+00
 TC4vh  C4er  1 3.950000e-01    2.700000e+00
 TC4vr  C4eh  1 3.950000e-01    2.700000e+00
 TC4vh  C3er  1 3.950000e-01    2.700000e+00
 TC4vr  C3eh  1 3.950000e-01    2.700000e+00
 TC4vh  C2er  1 3.950000e-01    2.500000e+00
 TC4vr  C2eh  1 3.950000e-01    2.500000e+00
 TC4vh  C1er  1 3.950000e-01    2.310000e+00
 TC4vr  C1eh  1 3.950000e-01    2.310000e+00
 TC4vh  X4er  1 3.950000e-01    2.500000e+00
 TC4vr  X4eh  1 3.950000e-01    2.500000e+00
 TC4vh  X3er  1 3.950000e-01    2.500000e+00
 TC4vr  X3eh  1 3.950000e-01    2.500000e+00
 TC4vh  X2er  1 3.950000e-01    2.500000e+00
 TC4vr  X2eh  1 3.950000e-01    2.500000e+00
 TC4vh  X1er  1 3.950000e-01    2.700000e+00
 TC4vr  X1eh  1 3.950000e-01    2.700000e+00
 TC3vh  C3vr  1 3.950000e-01    2.110000e+00
 TC3vh   C2r  1 3.950000e-01    2.500000e+00
 TC3vr   C2h  1 3.950000e-01    2.500000e+00
 TC3vh   C1r  1 3.950000e-01    2.500000e+00
 TC3vr   C1h  1 3.950000e-01    2.500000e+00
 TC3vh   X4r  1 3.950000e-01    2.310000e+00
 TC3vr   X4h  1 3.950000e-01    2.310000e+00
 TC3vh   X3r  1 3.950000e-01    2.310000e+00
 TC3vr   X3h  1 3.950000e-01    2.310000e+00
 TC3vh   X2r  1 3.950000e-01    2.310000e+00
 TC3vr   X2h  1 3.950000e-01    2.310000e+00
 TC3vh   X1r  1 3.950000e-01    2.500000e+00
 TC3vr   X1h  1 3.950000e-01    2.500000e+00
 TC3vh  C2vr  1 3.950000e-01    2.110000e+00
 TC3vr  C2vh  1 3.950000e-01    2.110000e+00
 TC3vh  C1vr  1 3.950000e-01    2.110000e+00
 TC3vr  C1vh  1 3.950000e-01    2.110000e+00
 TC3vh  X4vr  1 3.950000e-01    1.850000e+00
 TC3vr  X4vh  1 3.950000e-01    1.850000e+00
 TC3vh  X3vr  1 3.950000e-01    1.850000e+00
 TC3vr  X3vh  1 3.950000e-01    1.850000e+00
 TC3vh  X2vr  1 3.950000e-01    1.850000e+00
 TC3vr  X2vh  1 3.950000e-01    1.850000e+00
 TC3vh  X1vr  1 3.950000e-01    2.110000e+00
 TC3vr  X1vh  1 3.950000e-01    2.110000e+00
 TC3vh  C3er  1 3.950000e-01    2.700000e+00
 TC3vr  C3eh  1 3.950000e-01    2.700000e+00
 TC3vh  C2er  1 3.950000e-01    2.700000e+00
 TC3vr  C2eh  1 3.950000e-01    2.700000e+00
 TC3vh  C1er  1 3.950000e-01    2.700000e+00
 TC3vr  C1eh  1 3.950000e-01    2.700000e+00
 TC3vh  X4er  1 3.950000e-01    2.500000e+00
 TC3vr  X4eh  1 3.950000e-01    2.500000e+00
 TC3vh  X3er  1 3.950000e-01    2.500000e+00
 TC3vr  X3eh  1 3.950000e-01    2.500000e+00
 TC3vh  X2er  1 3.950000e-01    2.500000e+00
 TC3vr  X2eh  1 3.950000e-01    2.500000e+00
 TC3vh  X1er  1 3.950000e-01    2.700000e+00
 TC3vr  X1eh  1 3.950000e-01    2.700000e+00
 TC2vh  C2vr  1 3.950000e-01    2.110000e+00
 TC2vh   C1r  1 3.950000e-01    2.700000e+00
 TC2vr   C1h  1 3.950000e-01    2.700000e+00
 TC2vh   X4r  1 3.950000e-01    1.850000e+00
 TC2vr   X4h  1 3.950000e-01    1.850000e+00
 TC2vh   X3r  1 3.950000e-01    2.310000e+00
 TC2vr   X3h  1 3.950000e-01    2.310000e+00
 TC2vh   X2r  1 3.950000e-01    2.310000e+00
 TC2vr   X2h  1 3.950000e-01    2.310000e+00
 TC2vh   X1r  1 3.950000e-01    2.310000e+00
 TC2vr   X1h  1 3.950000e-01    2.310000e+00
 TC2vh  C1vr  1 3.950000e-01    2.310000e+00
 TC2vr  C1vh  1 3.950000e-01    2.310000e+00
 TC2vh  X4vr  1 3.980000e-01    1.450000e+00
 TC2vr  X4vh  1 3.980000e-01    1.450000e+00
 TC2vh  X3vr  1 3.950000e-01    1.850000e+00
 TC2vr  X3vh  1 3.950000e-01    1.850000e+00
 TC2vh  X2vr  1 3.950000e-01    1.850000e+00
 TC2vr  X2vh  1 3.950000e-01    1.850000e+00
 TC2vh  X1vr  1 3.950000e-01    1.850000e+00
 TC2vr  X1vh  1 3.950000e-01    1.850000e+00
 TC2vh  C2er  1 3.950000e-01    2.700000e+00
 TC2vr  C2eh  1 3.950000e-01    2.700000e+00
 TC2vh  C1er  1 3.950000e-01    2.940000e+00
 TC2vr  C1eh  1 3.950000e-01    2.940000e+00
 TC2vh  X4er  1 3.950000e-01    2.110000e+00
 TC2vr  X4eh  1 3.950000e-01    2.110000e+00
 TC2vh  X3er  1 3.950000e-01    2.500000e+00
 TC2vr  X3eh  1 3.950000e-01    2.500000e+00
 TC2vh  X2er  1 3.950000e-01    2.500000e+00
 TC2vr  X2eh  1 3.950000e-01    2.500000e+00
 TC2vh  X1er  1 3.950000e-01    2.500000e+00
 TC2vr  X1eh  1 3.950000e-01    2.500000e+00
 TC1vh  C1vr  1 3.950000e-01    2.110000e+00
 TC1vh   X4r  1 3.950000e-01    1.850000e+00
 TC1vr   X4h  1 3.950000e-01    1.850000e+00
 TC1vh   X3r  1 3.950000e-01    2.310000e+00
 TC1vr   X3h  1 3.950000e-01    2.310000e+00
 TC1vh   X2r  1 3.950000e-01    2.310000e+00
 TC1vr   X2h  1 3.950000e-01    2.310000e+00
 TC1vh   X1r  1 3.950000e-01    2.310000e+00
 TC1vr   X1h  1 3.950000e-01    2.310000e+00
 TC1vh  X4vr  1 3.980000e-01    1.450000e+00
 TC1vr  X4vh  1 3.980000e-01    1.450000e+00
 TC1vh  X3vr  1 3.950000e-01    1.850000e+00
 TC1vr  X3vh  1 3.950000e-01    1.850000e+00
 TC1vh  X2vr  1 3.950000e-01    1.850000e+00
 TC1vr  X2vh  1 3.950000e-01    1.850000e+00
 TC1vh  X1vr  1 3.950000e-01    1.850000e+00
 TC1vr  X1vh  1 3.950000e-01    1.850000e+00
 TC1vh  C1er  1 3.950000e-01    2.700000e+00
 TC1vr  C1eh  1 3.950000e-01    2.700000e+00
 TC1vh  X4er  1 3.950000e-01    2.110000e+00
 TC1vr  X4eh  1 3.950000e-01    2.110000e+00
 TC1vh  X3er  1 3.950000e-01    2.500000e+00
 TC1vr  X3eh  1 3.950000e-01    2.500000e+00
 TC1vh  X2er  1 3.950000e-01    2.500000e+00
 TC1vr  X2eh  1 3.950000e-01    2.500000e+00
 TC1vh  X1er  1 3.950000e-01    2.500000e+00
 TC1vr  X1eh  1 3.950000e-01    2.500000e+00
 TX4vh  X4vr  1 3.950000e-01    2.110000e+00
 TX4vh   X3r  1 3.950000e-01    2.500000e+00
 TX4vr   X3h  1 3.950000e-01    2.500000e+00
 TX4vh   X2r  1 3.950000e-01    2.500000e+00
 TX4vr   X2h  1 3.950000e-01    2.500000e+00
 TX4vh   X1r  1 3.950000e-01    2.500000e+00
 TX4vr   X1h  1 3.950000e-01    2.500000e+00
 TX4vh  X3vr  1 3.950000e-01    2.110000e+00
 TX4vr  X3vh  1 3.950000e-01    2.110000e+00
 TX4vh  X2vr  1 3.950000e-01    2.110000e+00
 TX4vr  X2vh  1 3.950000e-01    2.110000e+00
 TX4vh  X1vr  1 3.950000e-01    2.110000e+00
 TX4vr  X1vh  1 3.950000e-01    2.110000e+00
 TX4vh  X4er  1 3.950000e-01    2.700000e+00
 TX4vr  X4eh  1 3.950000e-01    2.700000e+00
 TX4vh  X3er  1 3.950000e-01    2.700000e+00
 TX4vr  X3eh  1 3.950000e-01    2.700000e+00
 TX4vh  X2er  1 3.950000e-01    2.700000e+00
 TX4vr  X2eh  1 3.950000e-01    2.700000e+00
 TX4vh  X1er  1 3.950000e-01    2.700000e+00
 TX4vr  X1eh  1 3.950000e-01    2.700000e+00
 TX3vh  X3vr  1 3.950000e-01    2.110000e+00
 TX3vh   X2r  1 3.950000e-01    2.700000e+00
 TX3vr   X2h  1 3.950000e-01    2.700000e+00
 TX3vh   X1r  1 3.950000e-01    2.700000e+00
 TX3vr   X1h  1 3.950000e-01    2.700000e+00
 TX3vh  X2vr  1 3.950000e-01    2.310000e+00
 TX3vr  X2vh  1 3.950000e-01    2.310000e+00
 TX3vh  X1vr  1 3.950000e-01    2.310000e+00
 TX3vr  X1vh  1 3.950000e-01    2.310000e+00
 TX3vh  X3er  1 3.950000e-01    2.700000e+00
 TX3vr  X3eh  1 3.950000e-01    2.700000e+00
 TX3vh  X2er  1 3.950000e-01    2.940000e+00
 TX3vr  X2eh  1 3.950000e-01    2.940000e+00
 TX3vh  X1er  1 3.950000e-01    2.940000e+00
 TX3vr  X1eh  1 3.950000e-01    2.940000e+00
 TX2vh  X2vr  1 3.950000e-01    2.310000e+00
 TX2vh   X1r  1 3.950000e-01    2.700000e+00
 TX2vr   X1h  1 3.950000e-01    2.700000e+00
 TX2vh  X1vr  1 3.950000e-01    2.310000e+00
 TX2vr  X1vh  1 3.950000e-01    2.310000e+00
 TX2vh  X2er  1 3.950000e-01    2.940000e+00
 TX2vr  X2eh  1 3.950000e-01    2.940000e+00
 TX2vh  X1er  1 3.950000e-01    2.940000e+00
 TX2vr  X1eh  1 3.950000e-01    2.940000e+00
 TX1vh  X1vr  1 3.950000e-01    2.500000e+00
 TX1vh  X1er  1 3.950000e-01    3.190000e+00
 TX1vr  X1eh  1 3.950000e-01    3.190000e+00
 TC6eh  C6er  1 3.950000e-01    2.310000e+00
 TC6eh   C5r  1 3.950000e-01    2.500000e+00
 TC6er   C5h  1 3.950000e-01    2.500000e+00
 TC6eh   C4r  1 3.950000e-01    2.500000e+00
 TC6er   C4h  1 3.950000e-01    2.500000e+00
 TC6eh   C3r  1 3.950000e-01    2.310000e+00
 TC6er   C3h  1 3.950000e-01    2.310000e+00
 TC6eh   C2r  1 3.950000e-01    2.110000e+00
 TC6er   C2h  1 3.950000e-01    2.110000e+00
 TC6eh   C1r  1 3.950000e-01    1.850000e+00
 TC6er   C1h  1 3.950000e-01    1.850000e+00
 TC6eh   X4r  1 3.950000e-01    2.500000e+00
 TC6er   X4h  1 3.950000e-01    2.500000e+00
 TC6eh   X3r  1 3.950000e-01    2.500000e+00
 TC6er   X3h  1 3.950000e-01    2.500000e+00
 TC6eh   X2r  1 3.950000e-01    2.500000e+00
 TC6er   X2h  1 3.950000e-01    2.500000e+00
 TC6eh   X1r  1 3.950000e-01    2.500000e+00
 TC6er   X1h  1 3.950000e-01    2.500000e+00
 TC6eh  C5vr  1 3.950000e-01    2.700000e+00
 TC6er  C5vh  1 3.950000e-01    2.700000e+00
 TC6eh  C4vr  1 3.950000e-01    2.700000e+00
 TC6er  C4vh  1 3.950000e-01    2.700000e+00
 TC6eh  C3vr  1 3.950000e-01    2.500000e+00
 TC6er  C3vh  1 3.950000e-01    2.500000e+00
 TC6eh  C2vr  1 3.950000e-01    2.310000e+00
 TC6er  C2vh  1 3.950000e-01    2.310000e+00
 TC6eh  C1vr  1 3.950000e-01    2.110000e+00
 TC6er  C1vh  1 3.950000e-01    2.110000e+00
 TC6eh  X4vr  1 3.950000e-01    2.700000e+00
 TC6er  X4vh  1 3.950000e-01    2.700000e+00
 TC6eh  X3vr  1 3.950000e-01    2.700000e+00
 TC6er  X3vh  1 3.950000e-01    2.700000e+00
 TC6eh  X2vr  1 3.950000e-01    2.700000e+00
 TC6er  X2vh  1 3.950000e-01    2.700000e+00
 TC6eh  X1vr  1 3.950000e-01    2.700000e+00
 TC6er  X1vh  1 3.950000e-01    2.700000e+00
 TC6eh  C5er  1 3.950000e-01    2.110000e+00
 TC6er  C5eh  1 3.950000e-01    2.110000e+00
 TC6eh  C4er  1 3.950000e-01    2.110000e+00
 TC6er  C4eh  1 3.950000e-01    2.110000e+00
 TC6eh  C3er  1 3.950000e-01    1.850000e+00
 TC6er  C3eh  1 3.950000e-01    1.850000e+00
 TC6eh  C2er  1 3.950000e-01    1.670000e+00
 TC6er  C2eh  1 3.950000e-01    1.670000e+00
 TC6eh  C1er  1 3.980000e-01    1.450000e+00
 TC6er  C1eh  1 3.980000e-01    1.450000e+00
 TC6eh  X4er  1 3.950000e-01    2.110000e+00
 TC6er  X4eh  1 3.950000e-01    2.110000e+00
 TC6eh  X3er  1 3.950000e-01    2.110000e+00
 TC6er  X3eh  1 3.950000e-01    2.110000e+00
 TC6eh  X2er  1 3.950000e-01    2.110000e+00
 TC6er  X2eh  1 3.950000e-01    2.110000e+00
 TC6eh  X1er  1 3.950000e-01    2.110000e+00
 TC6er  X1eh  1 3.950000e-01    2.110000e+00
 TC5eh  C5er  1 3.950000e-01    2.110000e+00
 TC5eh   C4r  1 3.950000e-01    2.500000e+00
 TC5er   C4h  1 3.950000e-01    2.500000e+00
 TC5eh   C3r  1 3.950000e-01    2.310000e+00
 TC5er   C3h  1 3.950000e-01    2.310000e+00
 TC5eh   C2r  1 3.950000e-01    2.110000e+00
 TC5er   C2h  1 3.950000e-01    2.110000e+00
 TC5eh   C1r  1 3.950000e-01    2.110000e+00
 TC5er   C1h  1 3.950000e-01    2.110000e+00
 TC5eh   X4r  1 3.950000e-01    2.310000e+00
 TC5er   X4h  1 3.950000e-01    2.310000e+00
 TC5eh   X3r  1 3.950000e-01    2.310000e+00
 TC5er   X3h  1 3.950000e-01    2.310000e+00
 TC5eh   X2r  1 3.950000e-01    2.310000e+00
 TC5er   X2h  1 3.950000e-01    2.310000e+00
 TC5eh   X1r  1 3.950000e-01    2.500000e+00
 TC5er   X1h  1 3.950000e-01    2.500000e+00
 TC5eh  C4vr  1 3.950000e-01    2.700000e+00
 TC5er  C4vh  1 3.950000e-01    2.700000e+00
 TC5eh  C3vr  1 3.950000e-01    2.500000e+00
 TC5er  C3vh  1 3.950000e-01    2.500000e+00
 TC5eh  C2vr  1 3.950000e-01    2.310000e+00
 TC5er  C2vh  1 3.950000e-01    2.310000e+00
 TC5eh  C1vr  1 3.950000e-01    2.310000e+00
 TC5er  C1vh  1 3.950000e-01    2.310000e+00
 TC5eh  X4vr  1 3.950000e-01    2.500000e+00
 TC5er  X4vh  1 3.950000e-01    2.500000e+00
 TC5eh  X3vr  1 3.950000e-01    2.500000e+00
 TC5er  X3vh  1 3.950000e-01    2.500000e+00
 TC5eh  X2vr  1 3.950000e-01    2.500000e+00
 TC5er  X2vh  1 3.950000e-01    2.500000e+00
 TC5eh  X1vr  1 3.950000e-01    2.700000e+00
 TC5er  X1vh  1 3.950000e-01    2.700000e+00
 TC5eh  C4er  1 3.950000e-01    2.110000e+00
 TC5er  C4eh  1 3.950000e-01    2.110000e+00
 TC5eh  C3er  1 3.950000e-01    1.850000e+00
 TC5er  C3eh  1 3.950000e-01    1.850000e+00
 TC5eh  C2er  1 3.950000e-01    1.670000e+00
 TC5er  C2eh  1 3.950000e-01    1.670000e+00
 TC5eh  C1er  1 3.950000e-01    1.670000e+00
 TC5er  C1eh  1 3.950000e-01    1.670000e+00
 TC5eh  X4er  1 3.950000e-01    1.850000e+00
 TC5er  X4eh  1 3.950000e-01    1.850000e+00
 TC5eh  X3er  1 3.950000e-01    1.850000e+00
 TC5er  X3eh  1 3.950000e-01    1.850000e+00
 TC5eh  X2er  1 3.950000e-01    1.850000e+00
 TC5er  X2eh  1 3.950000e-01    1.850000e+00
 TC5eh  X1er  1 3.950000e-01    2.110000e+00
 TC5er  X1eh  1 3.950000e-01    2.110000e+00
 TC4eh  C4er  1 3.950000e-01    2.110000e+00
 TC4eh   C3r  1 3.950000e-01    2.500000e+00
 TC4er   C3h  1 3.950000e-01    2.500000e+00
 TC4eh   C2r  1 3.950000e-01    2.310000e+00
 TC4er   C2h  1 3.950000e-01    2.310000e+00
 TC4eh   C1r  1 3.950000e-01    2.110000e+00
 TC4er   C1h  1 3.950000e-01    2.110000e+00
 TC4eh   X4r  1 3.950000e-01    2.310000e+00
 TC4er   X4h  1 3.950000e-01    2.310000e+00
 TC4eh   X3r  1 3.950000e-01    2.310000e+00
 TC4er   X3h  1 3.950000e-01    2.310000e+00
 TC4eh   X2r  1 3.950000e-01    2.310000e+00
 TC4er   X2h  1 3.950000e-01    2.310000e+00
 TC4eh   X1r  1 3.950000e-01    2.500000e+00
 TC4er   X1h  1 3.950000e-01    2.500000e+00
 TC4eh  C3vr  1 3.950000e-01    2.700000e+00
 TC4er  C3vh  1 3.950000e-01    2.700000e+00
 TC4eh  C2vr  1 3.950000e-01    2.500000e+00
 TC4er  C2vh  1 3.950000e-01    2.500000e+00
 TC4eh  C1vr  1 3.950000e-01    2.310000e+00
 TC4er  C1vh  1 3.950000e-01    2.310000e+00
 TC4eh  X4vr  1 3.950000e-01    2.500000e+00
 TC4er  X4vh  1 3.950000e-01    2.500000e+00
 TC4eh  X3vr  1 3.950000e-01    2.500000e+00
 TC4er  X3vh  1 3.950000e-01    2.500000e+00
 TC4eh  X2vr  1 3.950000e-01    2.500000e+00
 TC4er  X2vh  1 3.950000e-01    2.500000e+00
 TC4eh  X1vr  1 3.950000e-01    2.700000e+00
 TC4er  X1vh  1 3.950000e-01    2.700000e+00
 TC4eh  C3er  1 3.950000e-01    2.110000e+00
 TC4er  C3eh  1 3.950000e-01    2.110000e+00
 TC4eh  C2er  1 3.950000e-01    1.850000e+00
 TC4er  C2eh  1 3.950000e-01    1.850000e+00
 TC4eh  C1er  1 3.950000e-01    1.670000e+00
 TC4er  C1eh  1 3.950000e-01    1.670000e+00
 TC4eh  X4er  1 3.950000e-01    1.850000e+00
 TC4er  X4eh  1 3.950000e-01    1.850000e+00
 TC4eh  X3er  1 3.950000e-01    1.850000e+00
 TC4er  X3eh  1 3.950000e-01    1.850000e+00
 TC4eh  X2er  1 3.950000e-01    1.850000e+00
 TC4er  X2eh  1 3.950000e-01    1.850000e+00
 TC4eh  X1er  1 3.950000e-01    2.110000e+00
 TC4er  X1eh  1 3.950000e-01    2.110000e+00
 TC3eh  C3er  1 3.950000e-01    2.110000e+00
 TC3eh   C2r  1 3.950000e-01    2.500000e+00
 TC3er   C2h  1 3.950000e-01    2.500000e+00
 TC3eh   C1r  1 3.950000e-01    2.500000e+00
 TC3er   C1h  1 3.950000e-01    2.500000e+00
 TC3eh   X4r  1 3.950000e-01    2.310000e+00
 TC3er   X4h  1 3.950000e-01    2.310000e+00
 TC3eh   X3r  1 3.950000e-01    2.310000e+00
 TC3er   X3h  1 3.950000e-01    2.310000e+00
 TC3eh   X2r  1 3.950000e-01    2.310000e+00
 TC3er   X2h  1 3.950000e-01    2.310000e+00
 TC3eh   X1r  1 3.950000e-01    2.500000e+00
 TC3er   X1h  1 3.950000e-01    2.500000e+00
 TC3eh  C2vr  1 3.950000e-01    2.700000e+00
 TC3er  C2vh  1 3.950000e-01    2.700000e+00
 TC3eh  C1vr  1 3.950000e-01    2.700000e+00
 TC3er  C1vh  1 3.950000e-01    2.700000e+00
 TC3eh  X4vr  1 3.950000e-01    2.500000e+00
 TC3er  X4vh  1 3.950000e-01    2.500000e+00
 TC3eh  X3vr  1 3.950000e-01    2.500000e+00
 TC3er  X3vh  1 3.950000e-01    2.500000e+00
 TC3eh  X2vr  1 3.950000e-01    2.500000e+00
 TC3er  X2vh  1 3.950000e-01    2.500000e+00
 TC3eh  X1vr  1 3.950000e-01    2.700000e+00
 TC3er  X1vh  1 3.950000e-01    2.700000e+00
 TC3eh  C2er  1 3.950000e-01    2.110000e+00
 TC3er  C2eh  1 3.950000e-01    2.110000e+00
 TC3eh  C1er  1 3.950000e-01    2.110000e+00
 TC3er  C1eh  1 3.950000e-01    2.110000e+00
 TC3eh  X4er  1 3.950000e-01    1.850000e+00
 TC3er  X4eh  1 3.950000e-01    1.850000e+00
 TC3eh  X3er  1 3.950000e-01    1.850000e+00
 TC3er  X3eh  1 3.950000e-01    1.850000e+00
 TC3eh  X2er  1 3.950000e-01    1.850000e+00
 TC3er  X2eh  1 3.950000e-01    1.850000e+00
 TC3eh  X1er  1 3.950000e-01    2.110000e+00
 TC3er  X1eh  1 3.950000e-01    2.110000e+00
 TC2eh  C2er  1 3.950000e-01    2.110000e+00
 TC2eh   C1r  1 3.950000e-01    2.700000e+00
 TC2er   C1h  1 3.950000e-01    2.700000e+00
 TC2eh   X4r  1 3.950000e-01    1.850000e+00
 TC2er   X4h  1 3.950000e-01    1.850000e+00
 TC2eh   X3r  1 3.950000e-01    2.310000e+00
 TC2er   X3h  1 3.950000e-01    2.310000e+00
 TC2eh   X2r  1 3.950000e-01    2.310000e+00
 TC2er   X2h  1 3.950000e-01    2.310000e+00
 TC2eh   X1r  1 3.950000e-01    2.310000e+00
 TC2er   X1h  1 3.950000e-01    2.310000e+00
 TC2eh  C1vr  1 3.950000e-01    2.940000e+00
 TC2er  C1vh  1 3.950000e-01    2.940000e+00
 TC2eh  X4vr  1 3.950000e-01    2.110000e+00
 TC2er  X4vh  1 3.950000e-01    2.110000e+00
 TC2eh  X3vr  1 3.950000e-01    2.500000e+00
 TC2er  X3vh  1 3.950000e-01    2.500000e+00
 TC2eh  X2vr  1 3.950000e-01    2.500000e+00
 TC2er  X2vh  1 3.950000e-01    2.500000e+00
 TC2eh  X1vr  1 3.950000e-01    2.500000e+00
 TC2er  X1vh  1 3.950000e-01    2.500000e+00
 TC2eh  C1er  1 3.950000e-01    2.310000e+00
 TC2er  C1eh  1 3.950000e-01    2.310000e+00
 TC2eh  X4er  1 3.980000e-01    1.450000e+00
 TC2er  X4eh  1 3.980000e-01    1.450000e+00
 TC2eh  X3er  1 3.950000e-01    1.850000e+00
 TC2er  X3eh  1 3.950000e-01    1.850000e+00
 TC2eh  X2er  1 3.950000e-01    1.850000e+00
 TC2er  X2eh  1 3.950000e-01    1.850000e+00
 TC2eh  X1er  1 3.950000e-01    1.850000e+00
 TC2er  X1eh  1 3.950000e-01    1.850000e+00
 TC1eh  C1er  1 3.950000e-01    2.110000e+00
 TC1eh   X4r  1 3.950000e-01    1.850000e+00
 TC1er   X4h  1 3.950000e-01    1.850000e+00
 TC1eh   X3r  1 3.950000e-01    2.310000e+00
 TC1er   X3h  1 3.950000e-01    2.310000e+00
 TC1eh   X2r  1 3.950000e-01    2.310000e+00
 TC1er   X2h  1 3.950000e-01    2.310000e+00
 TC1eh   X1r  1 3.950000e-01    2.310000e+00
 TC1er   X1h  1 3.950000e-01    2.310000e+00
 TC1eh  X4vr  1 3.950000e-01    2.110000e+00
 TC1er  X4vh  1 3.950000e-01    2.110000e+00
 TC1eh  X3vr  1 3.950000e-01    2.500000e+00
 TC1er  X3vh  1 3.950000e-01    2.500000e+00
 TC1eh  X2vr  1 3.950000e-01    2.500000e+00
 TC1er  X2vh  1 3.950000e-01    2.500000e+00
 TC1eh  X1vr  1 3.950000e-01    2.500000e+00
 TC1er  X1vh  1 3.950000e-01    2.500000e+00
 TC1eh  X4er  1 3.980000e-01    1.450000e+00
 TC1er  X4eh  1 3.980000e-01    1.450000e+00
 TC1eh  X3er  1 3.950000e-01    1.850000e+00
 TC1er  X3eh  1 3.950000e-01    1.850000e+00
 TC1eh  X2er  1 3.950000e-01    1.850000e+00
 TC1er  X2eh  1 3.950000e-01    1.850000e+00
 TC1eh  X1er  1 3.950000e-01    1.850000e+00
 TC1er  X1eh  1 3.950000e-01    1.850000e+00
 TX4eh  X4er  1 3.950000e-01    2.110000e+00
 TX4eh   X3r  1 3.950000e-01    2.500000e+00
 TX4er   X3h  1 3.950000e-01    2.500000e+00
 TX4eh   X2r  1 3.950000e-01    2.500000e+00
 TX4er   X2h  1 3.950000e-01    2.500000e+00
 TX4eh   X1r  1 3.950000e-01    2.500000e+00
 TX4er   X1h  1 3.950000e-01    2.500000e+00
 TX4eh  X3vr  1 3.950000e-01    2.700000e+00
 TX4er  X3vh  1 3.950000e-01    2.700000e+00
 TX4eh  X2vr  1 3.950000e-01    2.700000e+00
 TX4er  X2vh  1 3.950000e-01    2.700000e+00
 TX4eh  X1vr  1 3.950000e-01    2.700000e+00
 TX4er  X1vh  1 3.950000e-01    2.700000e+00
 TX4eh  X3er  1 3.950000e-01    2.110000e+00
 TX4er  X3eh  1 3.950000e-01    2.110000e+00
 TX4eh  X2er  1 3.950000e-01    2.110000e+00
 TX4er  X2eh  1 3.950000e-01    2.110000e+00
 TX4eh  X1er  1 3.950000e-01    2.110000e+00
 TX4er  X1eh  1 3.950000e-01    2.110000e+00
 TX3eh  X3er  1 3.950000e-01    2.110000e+00
 TX3eh   X2r  1 3.950000e-01    2.700000e+00
 TX3er   X2h  1 3.950000e-01    2.700000e+00
 TX3eh   X1r  1 3.950000e-01    2.700000e+00
 TX3er   X1h  1 3.950000e-01    2.700000e+00
 TX3eh  X2vr  1 3.950000e-01    2.940000e+00
 TX3er  X2vh  1 3.950000e-01    2.940000e+00
 TX3eh  X1vr  1 3.950000e-01    2.940000e+00
 TX3er  X1vh  1 3.950000e-01    2.940000e+00
 TX3eh  X2er  1 3.950000e-01    2.310000e+00
 TX3er  X2eh  1 3.950000e-01    2.310000e+00
 TX3eh  X1er  1 3.950000e-01    2.310000e+00
 TX3er  X1eh  1 3.950000e-01    2.310000e+00
 TX2eh  X2er  1 3.950000e-01    2.310000e+00
 TX2eh   X1r  1 3.950000e-01    2.700000e+00
 TX2er   X1h  1 3.950000e-01    2.700000e+00
 TX2eh  X1vr  1 3.950000e-01    2.940000e+00
 TX2er  X1vh  1 3.950000e-01    2.940000e+00
 TX2eh  X1er  1 3.950000e-01    2.310000e+00
 TX2er  X1eh  1 3.950000e-01    2.310000e+00
 TX1eh  X1er  1 3.950000e-01    2.500000e+00
  TP6h   C6r  1 3.950000e-01    1.670000e+00
  TP6r   C6h  1 3.950000e-01    1.670000e+00
  TP6h   C5r  1 3.980000e-01    1.450000e+00
  TP6r   C5h  1 3.980000e-01    1.450000e+00
  TP6h   C4r  1 3.990000e-01    1.180000e+00
  TP6r   C4h  1 3.990000e-01    1.180000e+00
  TP6h   C3r  1 4.010000e-01    9.830000e-01
  TP6r   C3h  1 4.010000e-01    9.830000e-01
  TP6h   C2r  1 4.010000e-01    9.830000e-01
  TP6r   C2h  1 4.010000e-01    9.830000e-01
  TP6h   C1r  1 4.650000e-01    7.030000e-01
  TP6r   C1h  1 4.650000e-01    7.030000e-01
  TP6h   X4r  1 3.950000e-01    1.850000e+00
  TP6r   X4h  1 3.950000e-01    1.850000e+00
  TP6h   X3r  1 3.950000e-01    1.850000e+00
  TP6r   X3h  1 3.950000e-01    1.850000e+00
  TP6h   X2r  1 3.950000e-01    1.670000e+00
  TP6r   X2h  1 3.950000e-01    1.670000e+00
  TP6h   X1r  1 3.980000e-01    1.450000e+00
  TP6r   X1h  1 3.980000e-01    1.450000e+00
  TP6h  C6vr  1 3.950000e-01    1.850000e+00
  TP6r  C6vh  1 3.950000e-01    1.850000e+00
  TP6h  C5vr  1 3.950000e-01    1.670000e+00
  TP6r  C5vh  1 3.950000e-01    1.670000e+00
  TP6h  C4vr  1 3.980000e-01    1.450000e+00
  TP6r  C4vh  1 3.980000e-01    1.450000e+00
  TP6h  C3vr  1 3.990000e-01    1.180000e+00
  TP6r  C3vh  1 3.990000e-01    1.180000e+00
  TP6h  C2vr  1 3.990000e-01    1.180000e+00
  TP6r  C2vh  1 3.990000e-01    1.180000e+00
  TP6h  C1vr  1 4.040000e-01    8.300000e-01
  TP6r  C1vh  1 4.040000e-01    8.300000e-01
  TP6h  X4vr  1 3.950000e-01    2.110000e+00
  TP6r  X4vh  1 3.950000e-01    2.110000e+00
  TP6h  X3vr  1 3.950000e-01    2.110000e+00
  TP6r  X3vh  1 3.950000e-01    2.110000e+00
  TP6h  X2vr  1 3.950000e-01    1.850000e+00
  TP6r  X2vh  1 3.950000e-01    1.850000e+00
  TP6h  X1vr  1 3.950000e-01    1.670000e+00
  TP6r  X1vh  1 3.950000e-01    1.670000e+00
  TP6h  C6er  1 3.950000e-01    1.850000e+00
  TP6r  C6eh  1 3.950000e-01    1.850000e+00
  TP6h  C5er  1 3.950000e-01    1.670000e+00
  TP6r  C5eh  1 3.950000e-01    1.670000e+00
  TP6h  C4er  1 3.980000e-01    1.450000e+00
  TP6r  C4eh  1 3.980000e-01    1.450000e+00
  TP6h  C3er  1 3.990000e-01    1.180000e+00
  TP6r  C3eh  1 3.990000e-01    1.180000e+00
  TP6h  C2er  1 3.990000e-01    1.180000e+00
  TP6r  C2eh  1 3.990000e-01    1.180000e+00
  TP6h  C1er  1 4.040000e-01    8.300000e-01
  TP6r  C1eh  1 4.040000e-01    8.300000e-01
  TP6h  X4er  1 3.950000e-01    2.110000e+00
  TP6r  X4eh  1 3.950000e-01    2.110000e+00
  TP6h  X3er  1 3.950000e-01    2.110000e+00
  TP6r  X3eh  1 3.950000e-01    2.110000e+00
  TP6h  X2er  1 3.950000e-01    1.850000e+00
  TP6r  X2eh  1 3.950000e-01    1.850000e+00
  TP6h  X1er  1 3.950000e-01    1.670000e+00
  TP6r  X1eh  1 3.950000e-01    1.670000e+00
  TP5h   C6r  1 3.950000e-01    1.670000e+00
  TP5r   C6h  1 3.950000e-01    1.670000e+00
  TP5h   C5r  1 3.950000e-01    1.670000e+00
  TP5r   C5h  1 3.950000e-01    1.670000e+00
  TP5h   C4r  1 3.980000e-01    1.450000e+00
  TP5r   C4h  1 3.980000e-01    1.450000e+00
  TP5h   C3r  1 3.990000e-01    1.180000e+00
  TP5r   C3h  1 3.990000e-01    1.180000e+00
  TP5h   C2r  1 3.990000e-01    1.180000e+00
  TP5r   C2h  1 3.990000e-01    1.180000e+00
  TP5h   C1r  1 4.010000e-01    9.830000e-01
  TP5r   C1h  1 4.010000e-01    9.830000e-01
  TP5h   X4r  1 3.950000e-01    2.110000e+00
  TP5r   X4h  1 3.950000e-01    2.110000e+00
  TP5h   X3r  1 3.950000e-01    1.850000e+00
  TP5r   X3h  1 3.950000e-01    1.850000e+00
  TP5h   X2r  1 3.950000e-01    1.850000e+00
  TP5r   X2h  1 3.950000e-01    1.850000e+00
  TP5h   X1r  1 3.980000e-01    1.450000e+00
  TP5r   X1h  1 3.980000e-01    1.450000e+00
  TP5h  C6vr  1 3.950000e-01    1.850000e+00
  TP5r  C6vh  1 3.950000e-01    1.850000e+00
  TP5h  C5vr  1 3.950000e-01    1.850000e+00
  TP5r  C5vh  1 3.950000e-01    1.850000e+00
  TP5h  C4vr  1 3.950000e-01    1.670000e+00
  TP5r  C4vh  1 3.950000e-01    1.670000e+00
  TP5h  C3vr  1 3.980000e-01    1.450000e+00
  TP5r  C3vh  1 3.980000e-01    1.450000e+00
  TP5h  C2vr  1 3.980000e-01    1.450000e+00
  TP5r  C2vh  1 3.980000e-01    1.450000e+00
  TP5h  C1vr  1 3.990000e-01    1.180000e+00
  TP5r  C1vh  1 3.990000e-01    1.180000e+00
  TP5h  X4vr  1 3.950000e-01    2.310000e+00
  TP5r  X4vh  1 3.950000e-01    2.310000e+00
  TP5h  X3vr  1 3.950000e-01    2.110000e+00
  TP5r  X3vh  1 3.950000e-01    2.110000e+00
  TP5h  X2vr  1 3.950000e-01    2.110000e+00
  TP5r  X2vh  1 3.950000e-01    2.110000e+00
  TP5h  X1vr  1 3.950000e-01    1.670000e+00
  TP5r  X1vh  1 3.950000e-01    1.670000e+00
  TP5h  C6er  1 3.950000e-01    1.850000e+00
  TP5r  C6eh  1 3.950000e-01    1.850000e+00
  TP5h  C5er  1 3.950000e-01    1.850000e+00
  TP5r  C5eh  1 3.950000e-01    1.850000e+00
  TP5h  C4er  1 3.950000e-01    1.670000e+00
  TP5r  C4eh  1 3.950000e-01    1.670000e+00
  TP5h  C3er  1 3.980000e-01    1.450000e+00
  TP5r  C3eh  1 3.980000e-01    1.450000e+00
  TP5h  C2er  1 3.980000e-01    1.450000e+00
  TP5r  C2eh  1 3.980000e-01    1.450000e+00
  TP5h  C1er  1 3.990000e-01    1.180000e+00
  TP5r  C1eh  1 3.990000e-01    1.180000e+00
  TP5h  X4er  1 3.950000e-01    2.310000e+00
  TP5r  X4eh  1 3.950000e-01    2.310000e+00
  TP5h  X3er  1 3.950000e-01    2.110000e+00
  TP5r  X3eh  1 3.950000e-01    2.110000e+00
  TP5h  X2er  1 3.950000e-01    2.110000e+00
  TP5r  X2eh  1 3.950000e-01    2.110000e+00
  TP5h  X1er  1 3.950000e-01    1.670000e+00
  TP5r  X1eh  1 3.950000e-01    1.670000e+00
  TP4h   C6r  1 3.950000e-01    1.850000e+00
  TP4r   C6h  1 3.950000e-01    1.850000e+00
  TP4h   C5r  1 3.950000e-01    1.670000e+00
  TP4r   C5h  1 3.950000e-01    1.670000e+00
  TP4h   C4r  1 3.980000e-01    1.450000e+00
  TP4r   C4h  1 3.980000e-01    1.450000e+00
  TP4h   C3r  1 3.990000e-01    1.180000e+00
  TP4r   C3h  1 3.990000e-01    1.180000e+00
  TP4h   C2r  1 3.990000e-01    1.180000e+00
  TP4r   C2h  1 3.990000e-01    1.180000e+00
  TP4h   C1r  1 4.010000e-01    9.830000e-01
  TP4r   C1h  1 4.010000e-01    9.830000e-01
  TP4h   X4r  1 3.950000e-01    2.110000e+00
  TP4r   X4h  1 3.950000e-01    2.110000e+00
  TP4h   X3r  1 3.950000e-01    1.850000e+00
  TP4r   X3h  1 3.950000e-01    1.850000e+00
  TP4h   X2r  1 3.950000e-01    1.850000e+00
  TP4r   X2h  1 3.950000e-01    1.850000e+00
  TP4h   X1r  1 3.950000e-01    1.670000e+00
  TP4r   X1h  1 3.950000e-01    1.670000e+00
  TP4h  C6vr  1 3.950000e-01    2.110000e+00
  TP4r  C6vh  1 3.950000e-01    2.110000e+00
  TP4h  C5vr  1 3.950000e-01    1.850000e+00
  TP4r  C5vh  1 3.950000e-01    1.850000e+00
  TP4h  C4vr  1 3.950000e-01    1.670000e+00
  TP4r  C4vh  1 3.950000e-01    1.670000e+00
  TP4h  C3vr  1 3.980000e-01    1.450000e+00
  TP4r  C3vh  1 3.980000e-01    1.450000e+00
  TP4h  C2vr  1 3.980000e-01    1.450000e+00
  TP4r  C2vh  1 3.980000e-01    1.450000e+00
  TP4h  C1vr  1 3.990000e-01    1.180000e+00
  TP4r  C1vh  1 3.990000e-01    1.180000e+00
  TP4h  X4vr  1 3.950000e-01    2.310000e+00
  TP4r  X4vh  1 3.950000e-01    2.310000e+00
  TP4h  X3vr  1 3.950000e-01    2.110000e+00
  TP4r  X3vh  1 3.950000e-01    2.110000e+00
  TP4h  X2vr  1 3.950000e-01    2.110000e+00
  TP4r  X2vh  1 3.950000e-01    2.110000e+00
  TP4h  X1vr  1 3.950000e-01    1.850000e+00
  TP4r  X1vh  1 3.950000e-01    1.850000e+00
  TP4h  C6er  1 3.950000e-01    2.110000e+00
  TP4r  C6eh  1 3.950000e-01    2.110000e+00
  TP4h  C5er  1 3.950000e-01    1.850000e+00
  TP4r  C5eh  1 3.950000e-01    1.850000e+00
  TP4h  C4er  1 3.950000e-01    1.670000e+00
  TP4r  C4eh  1 3.950000e-01    1.670000e+00
  TP4h  C3er  1 3.980000e-01    1.450000e+00
  TP4r  C3eh  1 3.980000e-01    1.450000e+00
  TP4h  C2er  1 3.980000e-01    1.450000e+00
  TP4r  C2eh  1 3.980000e-01    1.450000e+00
  TP4h  C1er  1 3.990000e-01    1.180000e+00
  TP4r  C1eh  1 3.990000e-01    1.180000e+00
  TP4h  X4er  1 3.950000e-01    2.310000e+00
  TP4r  X4eh  1 3.950000e-01    2.310000e+00
  TP4h  X3er  1 3.950000e-01    2.110000e+00
  TP4r  X3eh  1 3.950000e-01    2.110000e+00
  TP4h  X2er  1 3.950000e-01    2.110000e+00
  TP4r  X2eh  1 3.950000e-01    2.110000e+00
  TP4h  X1er  1 3.950000e-01    1.850000e+00
  TP4r  X1eh  1 3.950000e-01    1.850000e+00
  TP3h   C6r  1 3.950000e-01    2.110000e+00
  TP3r   C6h  1 3.950000e-01    2.110000e+00
  TP3h   C5r  1 3.950000e-01    1.850000e+00
  TP3r   C5h  1 3.950000e-01    1.850000e+00
  TP3h   C4r  1 3.950000e-01    1.670000e+00
  TP3r   C4h  1 3.950000e-01    1.670000e+00
  TP3h   C3r  1 3.990000e-01    1.180000e+00
  TP3r   C3h  1 3.990000e-01    1.180000e+00
  TP3h   C2r  1 3.990000e-01    1.180000e+00
  TP3r   C2h  1 3.990000e-01    1.180000e+00
  TP3h   C1r  1 4.010000e-01    9.830000e-01
  TP3r   C1h  1 4.010000e-01    9.830000e-01
  TP3h   X4r  1 3.950000e-01    2.110000e+00
  TP3r   X4h  1 3.950000e-01    2.110000e+00
  TP3h   X3r  1 3.950000e-01    2.110000e+00
  TP3r   X3h  1 3.950000e-01    2.110000e+00
  TP3h   X2r  1 3.950000e-01    1.850000e+00
  TP3r   X2h  1 3.950000e-01    1.850000e+00
  TP3h   X1r  1 3.950000e-01    1.670000e+00
  TP3r   X1h  1 3.950000e-01    1.670000e+00
  TP3h  C6vr  1 3.950000e-01    2.310000e+00
  TP3r  C6vh  1 3.950000e-01    2.310000e+00
  TP3h  C5vr  1 3.950000e-01    2.110000e+00
  TP3r  C5vh  1 3.950000e-01    2.110000e+00
  TP3h  C4vr  1 3.950000e-01    1.850000e+00
  TP3r  C4vh  1 3.950000e-01    1.850000e+00
  TP3h  C3vr  1 3.980000e-01    1.450000e+00
  TP3r  C3vh  1 3.980000e-01    1.450000e+00
  TP3h  C2vr  1 3.980000e-01    1.450000e+00
  TP3r  C2vh  1 3.980000e-01    1.450000e+00
  TP3h  C1vr  1 3.990000e-01    1.180000e+00
  TP3r  C1vh  1 3.990000e-01    1.180000e+00
  TP3h  X4vr  1 3.950000e-01    2.310000e+00
  TP3r  X4vh  1 3.950000e-01    2.310000e+00
  TP3h  X3vr  1 3.950000e-01    2.310000e+00
  TP3r  X3vh  1 3.950000e-01    2.310000e+00
  TP3h  X2vr  1 3.950000e-01    2.110000e+00
  TP3r  X2vh  1 3.950000e-01    2.110000e+00
  TP3h  X1vr  1 3.950000e-01    1.850000e+00
  TP3r  X1vh  1 3.950000e-01    1.850000e+00
  TP3h  C6er  1 3.950000e-01    2.310000e+00
  TP3r  C6eh  1 3.950000e-01    2.310000e+00
  TP3h  C5er  1 3.950000e-01    2.110000e+00
  TP3r  C5eh  1 3.950000e-01    2.110000e+00
  TP3h  C4er  1 3.950000e-01    1.850000e+00
  TP3r  C4eh  1 3.950000e-01    1.850000e+00
  TP3h  C3er  1 3.980000e-01    1.450000e+00
  TP3r  C3eh  1 3.980000e-01    1.450000e+00
  TP3h  C2er  1 3.980000e-01    1.450000e+00
  TP3r  C2eh  1 3.980000e-01    1.450000e+00
  TP3h  C1er  1 3.990000e-01    1.180000e+00
  TP3r  C1eh  1 3.990000e-01    1.180000e+00
  TP3h  X4er  1 3.950000e-01    2.310000e+00
  TP3r  X4eh  1 3.950000e-01    2.310000e+00
  TP3h  X3er  1 3.950000e-01    2.310000e+00
  TP3r  X3eh  1 3.950000e-01    2.310000e+00
  TP3h  X2er  1 3.950000e-01    2.110000e+00
  TP3r  X2eh  1 3.950000e-01    2.110000e+00
  TP3h  X1er  1 3.950000e-01    1.850000e+00
  TP3r  X1eh  1 3.950000e-01    1.850000e+00
  TP2h   C6r  1 3.950000e-01    2.110000e+00
  TP2r   C6h  1 3.950000e-01    2.110000e+00
  TP2h   C5r  1 3.950000e-01    1.850000e+00
  TP2r   C5h  1 3.950000e-01    1.850000e+00
  TP2h   C4r  1 3.950000e-01    1.670000e+00
  TP2r   C4h  1 3.950000e-01    1.670000e+00
  TP2h   C3r  1 3.980000e-01    1.450000e+00
  TP2r   C3h  1 3.980000e-01    1.450000e+00
  TP2h   C2r  1 3.980000e-01    1.450000e+00
  TP2r   C2h  1 3.980000e-01    1.450000e+00
  TP2h   C1r  1 3.990000e-01    1.180000e+00
  TP2r   C1h  1 3.990000e-01    1.180000e+00
  TP2h   X4r  1 3.950000e-01    2.110000e+00
  TP2r   X4h  1 3.950000e-01    2.110000e+00
  TP2h   X3r  1 3.950000e-01    2.110000e+00
  TP2r   X3h  1 3.950000e-01    2.110000e+00
  TP2h   X2r  1 3.950000e-01    1.850000e+00
  TP2r   X2h  1 3.950000e-01    1.850000e+00
  TP2h   X1r  1 3.950000e-01    1.670000e+00
  TP2r   X1h  1 3.950000e-01    1.670000e+00
  TP2h  C6vr  1 3.950000e-01    2.310000e+00
  TP2r  C6vh  1 3.950000e-01    2.310000e+00
  TP2h  C5vr  1 3.950000e-01    2.110000e+00
  TP2r  C5vh  1 3.950000e-01    2.110000e+00
  TP2h  C4vr  1 3.950000e-01    1.850000e+00
  TP2r  C4vh  1 3.950000e-01    1.850000e+00
  TP2h  C3vr  1 3.950000e-01    1.670000e+00
  TP2r  C3vh  1 3.950000e-01    1.670000e+00
  TP2h  C2vr  1 3.950000e-01    1.670000e+00
  TP2r  C2vh  1 3.950000e-01    1.670000e+00
  TP2h  C1vr  1 3.980000e-01    1.450000e+00
  TP2r  C1vh  1 3.980000e-01    1.450000e+00
  TP2h  X4vr  1 3.950000e-01    2.310000e+00
  TP2r  X4vh  1 3.950000e-01    2.310000e+00
  TP2h  X3vr  1 3.950000e-01    2.310000e+00
  TP2r  X3vh  1 3.950000e-01    2.310000e+00
  TP2h  X2vr  1 3.950000e-01    2.110000e+00
  TP2r  X2vh  1 3.950000e-01    2.110000e+00
  TP2h  X1vr  1 3.950000e-01    1.850000e+00
  TP2r  X1vh  1 3.950000e-01    1.850000e+00
  TP2h  C6er  1 3.950000e-01    2.310000e+00
  TP2r  C6eh  1 3.950000e-01    2.310000e+00
  TP2h  C5er  1 3.950000e-01    2.110000e+00
  TP2r  C5eh  1 3.950000e-01    2.110000e+00
  TP2h  C4er  1 3.950000e-01    1.850000e+00
  TP2r  C4eh  1 3.950000e-01    1.850000e+00
  TP2h  C3er  1 3.950000e-01    1.670000e+00
  TP2r  C3eh  1 3.950000e-01    1.670000e+00
  TP2h  C2er  1 3.950000e-01    1.670000e+00
  TP2r  C2eh  1 3.950000e-01    1.670000e+00
  TP2h  C1er  1 3.980000e-01    1.450000e+00
  TP2r  C1eh  1 3.980000e-01    1.450000e+00
  TP2h  X4er  1 3.950000e-01    2.310000e+00
  TP2r  X4eh  1 3.950000e-01    2.310000e+00
  TP2h  X3er  1 3.950000e-01    2.310000e+00
  TP2r  X3eh  1 3.950000e-01    2.310000e+00
  TP2h  X2er  1 3.950000e-01    2.110000e+00
  TP2r  X2eh  1 3.950000e-01    2.110000e+00
  TP2h  X1er  1 3.950000e-01    1.850000e+00
  TP2r  X1eh  1 3.950000e-01    1.850000e+00
  TP1h   C6r  1 3.950000e-01    2.110000e+00
  TP1r   C6h  1 3.950000e-01    2.110000e+00
  TP1h   C5r  1 3.950000e-01    1.850000e+00
  TP1r   C5h  1 3.950000e-01    1.850000e+00
  TP1h   C4r  1 3.950000e-01    1.670000e+00
  TP1r   C4h  1 3.950000e-01    1.670000e+00
  TP1h   C3r  1 3.980000e-01    1.450000e+00
  TP1r   C3h  1 3.980000e-01    1.450000e+00
  TP1h   C2r  1 3.980000e-01    1.450000e+00
  TP1r   C2h  1 3.980000e-01    1.450000e+00
  TP1h   C1r  1 3.990000e-01    1.180000e+00
  TP1r   C1h  1 3.990000e-01    1.180000e+00
  TP1h   X4r  1 3.950000e-01    2.110000e+00
  TP1r   X4h  1 3.950000e-01    2.110000e+00
  TP1h   X3r  1 3.950000e-01    2.110000e+00
  TP1r   X3h  1 3.950000e-01    2.110000e+00
  TP1h   X2r  1 3.950000e-01    1.850000e+00
  TP1r   X2h  1 3.950000e-01    1.850000e+00
  TP1h   X1r  1 3.950000e-01    1.670000e+00
  TP1r   X1h  1 3.950000e-01    1.670000e+00
  TP1h  C6vr  1 3.950000e-01    2.310000e+00
  TP1r  C6vh  1 3.950000e-01    2.310000e+00
  TP1h  C5vr  1 3.950000e-01    2.110000e+00
  TP1r  C5vh  1 3.950000e-01    2.110000e+00
  TP1h  C4vr  1 3.950000e-01    1.850000e+00
  TP1r  C4vh  1 3.950000e-01    1.850000e+00
  TP1h  C3vr  1 3.950000e-01    1.670000e+00
  TP1r  C3vh  1 3.950000e-01    1.670000e+00
  TP1h  C2vr  1 3.950000e-01    1.670000e+00
  TP1r  C2vh  1 3.950000e-01    1.670000e+00
  TP1h  C1vr  1 3.980000e-01    1.450000e+00
  TP1r  C1vh  1 3.980000e-01    1.450000e+00
  TP1h  X4vr  1 3.950000e-01    2.310000e+00
  TP1r  X4vh  1 3.950000e-01    2.310000e+00
  TP1h  X3vr  1 3.950000e-01    2.310000e+00
  TP1r  X3vh  1 3.950000e-01    2.310000e+00
  TP1h  X2vr  1 3.950000e-01    2.110000e+00
  TP1r  X2vh  1 3.950000e-01    2.110000e+00
  TP1h  X1vr  1 3.950000e-01    1.850000e+00
  TP1r  X1vh  1 3.950000e-01    1.850000e+00
  TP1h  C6er  1 3.950000e-01    2.310000e+00
  TP1r  C6eh  1 3.950000e-01    2.310000e+00
  TP1h  C5er  1 3.950000e-01    2.110000e+00
  TP1r  C5eh  1 3.950000e-01    2.110000e+00
  TP1h  C4er  1 3.950000e-01    1.850000e+00
  TP1r  C4eh  1 3.950000e-01    1.850000e+00
  TP1h  C3er  1 3.950000e-01    1.670000e+00
  TP1r  C3eh  1 3.950000e-01    1.670000e+00
  TP1h  C2er  1 3.950000e-01    1.670000e+00
  TP1r  C2eh  1 3.950000e-01    1.670000e+00
  TP1h  C1er  1 3.980000e-01    1.450000e+00
  TP1r  C1eh  1 3.980000e-01    1.450000e+00
  TP1h  X4er  1 3.950000e-01    2.310000e+00
  TP1r  X4eh  1 3.950000e-01    2.310000e+00
  TP1h  X3er  1 3.950000e-01    2.310000e+00
  TP1r  X3eh  1 3.950000e-01    2.310000e+00
  TP1h  X2er  1 3.950000e-01    2.110000e+00
  TP1r  X2eh  1 3.950000e-01    2.110000e+00
  TP1h  X1er  1 3.950000e-01    1.850000e+00
  TP1r  X1eh  1 3.950000e-01    1.850000e+00
  TN6h   C6r  1 3.950000e-01    2.310000e+00
  TN6r   C6h  1 3.950000e-01    2.310000e+00
  TN6h   C5r  1 3.950000e-01    2.110000e+00
  TN6r   C5h  1 3.950000e-01    2.110000e+00
  TN6h   C4r  1 3.950000e-01    1.850000e+00
  TN6r   C4h  1 3.950000e-01    1.850000e+00
  TN6h   C3r  1 3.950000e-01    1.670000e+00
  TN6r   C3h  1 3.950000e-01    1.670000e+00
  TN6h   C2r  1 3.950000e-01    1.670000e+00
  TN6r   C2h  1 3.950000e-01    1.670000e+00
  TN6h   C1r  1 3.980000e-01    1.450000e+00
  TN6r   C1h  1 3.980000e-01    1.450000e+00
  TN6h   X4r  1 3.950000e-01    2.310000e+00
  TN6r   X4h  1 3.950000e-01    2.310000e+00
  TN6h   X3r  1 3.950000e-01    2.110000e+00
  TN6r   X3h  1 3.950000e-01    2.110000e+00
  TN6h   X2r  1 3.950000e-01    1.850000e+00
  TN6r   X2h  1 3.950000e-01    1.850000e+00
  TN6h   X1r  1 3.950000e-01    1.670000e+00
  TN6r   X1h  1 3.950000e-01    1.670000e+00
  TN6h  C6vr  1 3.950000e-01    2.500000e+00
  TN6r  C6vh  1 3.950000e-01    2.500000e+00
  TN6h  C5vr  1 3.950000e-01    2.310000e+00
  TN6r  C5vh  1 3.950000e-01    2.310000e+00
  TN6h  C4vr  1 3.950000e-01    2.110000e+00
  TN6r  C4vh  1 3.950000e-01    2.110000e+00
  TN6h  C3vr  1 3.950000e-01    1.850000e+00
  TN6r  C3vh  1 3.950000e-01    1.850000e+00
  TN6h  C2vr  1 3.950000e-01    1.850000e+00
  TN6r  C2vh  1 3.950000e-01    1.850000e+00
  TN6h  C1vr  1 3.950000e-01    1.670000e+00
  TN6r  C1vh  1 3.950000e-01    1.670000e+00
  TN6h  X4vr  1 3.950000e-01    2.500000e+00
  TN6r  X4vh  1 3.950000e-01    2.500000e+00
  TN6h  X3vr  1 3.950000e-01    2.310000e+00
  TN6r  X3vh  1 3.950000e-01    2.310000e+00
  TN6h  X2vr  1 3.950000e-01    2.110000e+00
  TN6r  X2vh  1 3.950000e-01    2.110000e+00
  TN6h  X1vr  1 3.950000e-01    1.850000e+00
  TN6r  X1vh  1 3.950000e-01    1.850000e+00
  TN6h  C6er  1 3.950000e-01    2.500000e+00
  TN6r  C6eh  1 3.950000e-01    2.500000e+00
  TN6h  C5er  1 3.950000e-01    2.310000e+00
  TN6r  C5eh  1 3.950000e-01    2.310000e+00
  TN6h  C4er  1 3.950000e-01    2.110000e+00
  TN6r  C4eh  1 3.950000e-01    2.110000e+00
  TN6h  C3er  1 3.950000e-01    1.850000e+00
  TN6r  C3eh  1 3.950000e-01    1.850000e+00
  TN6h  C2er  1 3.950000e-01    1.850000e+00
  TN6r  C2eh  1 3.950000e-01    1.850000e+00
  TN6h  C1er  1 3.950000e-01    1.670000e+00
  TN6r  C1eh  1 3.950000e-01    1.670000e+00
  TN6h  X4er  1 3.950000e-01    2.500000e+00
  TN6r  X4eh  1 3.950000e-01    2.500000e+00
  TN6h  X3er  1 3.950000e-01    2.310000e+00
  TN6r  X3eh  1 3.950000e-01    2.310000e+00
  TN6h  X2er  1 3.950000e-01    2.110000e+00
  TN6r  X2eh  1 3.950000e-01    2.110000e+00
  TN6h  X1er  1 3.950000e-01    1.850000e+00
  TN6r  X1eh  1 3.950000e-01    1.850000e+00
  TN5h   C6r  1 3.950000e-01    2.310000e+00
  TN5r   C6h  1 3.950000e-01    2.310000e+00
  TN5h   C5r  1 3.950000e-01    2.110000e+00
  TN5r   C5h  1 3.950000e-01    2.110000e+00
  TN5h   C4r  1 3.950000e-01    1.850000e+00
  TN5r   C4h  1 3.950000e-01    1.850000e+00
  TN5h   C3r  1 3.950000e-01    1.850000e+00
  TN5r   C3h  1 3.950000e-01    1.850000e+00
  TN5h   C2r  1 3.950000e-01    1.670000e+00
  TN5r   C2h  1 3.950000e-01    1.670000e+00
  TN5h   C1r  1 3.980000e-01    1.450000e+00
  TN5r   C1h  1 3.980000e-01    1.450000e+00
  TN5h   X4r  1 3.950000e-01    2.500000e+00
  TN5r   X4h  1 3.950000e-01    2.500000e+00
  TN5h   X3r  1 3.950000e-01    2.310000e+00
  TN5r   X3h  1 3.950000e-01    2.310000e+00
  TN5h   X2r  1 3.950000e-01    2.110000e+00
  TN5r   X2h  1 3.950000e-01    2.110000e+00
  TN5h   X1r  1 3.950000e-01    1.850000e+00
  TN5r   X1h  1 3.950000e-01    1.850000e+00
  TN5h  C6vr  1 3.950000e-01    2.500000e+00
  TN5r  C6vh  1 3.950000e-01    2.500000e+00
  TN5h  C5vr  1 3.950000e-01    2.310000e+00
  TN5r  C5vh  1 3.950000e-01    2.310000e+00
  TN5h  C4vr  1 3.950000e-01    2.110000e+00
  TN5r  C4vh  1 3.950000e-01    2.110000e+00
  TN5h  C3vr  1 3.950000e-01    2.110000e+00
  TN5r  C3vh  1 3.950000e-01    2.110000e+00
  TN5h  C2vr  1 3.950000e-01    1.850000e+00
  TN5r  C2vh  1 3.950000e-01    1.850000e+00
  TN5h  C1vr  1 3.950000e-01    1.670000e+00
  TN5r  C1vh  1 3.950000e-01    1.670000e+00
  TN5h  X4vr  1 3.950000e-01    2.700000e+00
  TN5r  X4vh  1 3.950000e-01    2.700000e+00
  TN5h  X3vr  1 3.950000e-01    2.500000e+00
  TN5r  X3vh  1 3.950000e-01    2.500000e+00
  TN5h  X2vr  1 3.950000e-01    2.310000e+00
  TN5r  X2vh  1 3.950000e-01    2.310000e+00
  TN5h  X1vr  1 3.950000e-01    2.110000e+00
  TN5r  X1vh  1 3.950000e-01    2.110000e+00
  TN5h  C6er  1 3.950000e-01    2.500000e+00
  TN5r  C6eh  1 3.950000e-01    2.500000e+00
  TN5h  C5er  1 3.950000e-01    2.310000e+00
  TN5r  C5eh  1 3.950000e-01    2.310000e+00
  TN5h  C4er  1 3.950000e-01    2.110000e+00
  TN5r  C4eh  1 3.950000e-01    2.110000e+00
  TN5h  C3er  1 3.950000e-01    2.110000e+00
  TN5r  C3eh  1 3.950000e-01    2.110000e+00
  TN5h  C2er  1 3.950000e-01    1.850000e+00
  TN5r  C2eh  1 3.950000e-01    1.850000e+00
  TN5h  C1er  1 3.950000e-01    1.670000e+00
  TN5r  C1eh  1 3.950000e-01    1.670000e+00
  TN5h  X4er  1 3.950000e-01    2.700000e+00
  TN5r  X4eh  1 3.950000e-01    2.700000e+00
  TN5h  X3er  1 3.950000e-01    2.500000e+00
  TN5r  X3eh  1 3.950000e-01    2.500000e+00
  TN5h  X2er  1 3.950000e-01    2.310000e+00
  TN5r  X2eh  1 3.950000e-01    2.310000e+00
  TN5h  X1er  1 3.950000e-01    2.110000e+00
  TN5r  X1eh  1 3.950000e-01    2.110000e+00
  TN4h   C6r  1 3.950000e-01    2.310000e+00
  TN4r   C6h  1 3.950000e-01    2.310000e+00
  TN4h   C5r  1 3.950000e-01    2.110000e+00
  TN4r   C5h  1 3.950000e-01    2.110000e+00
  TN4h   C4r  1 3.950000e-01    2.110000e+00
  TN4r   C4h  1 3.950000e-01    2.110000e+00
  TN4h   C3r  1 3.950000e-01    1.850000e+00
  TN4r   C3h  1 3.950000e-01    1.850000e+00
  TN4h   C2r  1 3.950000e-01    1.670000e+00
  TN4r   C2h  1 3.950000e-01    1.670000e+00
  TN4h   C1r  1 3.980000e-01    1.450000e+00
  TN4r   C1h  1 3.980000e-01    1.450000e+00
  TN4h   X4r  1 3.950000e-01    2.700000e+00
  TN4r   X4h  1 3.950000e-01    2.700000e+00
  TN4h   X3r  1 3.950000e-01    2.500000e+00
  TN4r   X3h  1 3.950000e-01    2.500000e+00
  TN4h   X2r  1 3.950000e-01    2.110000e+00
  TN4r   X2h  1 3.950000e-01    2.110000e+00
  TN4h   X1r  1 3.950000e-01    1.850000e+00
  TN4r   X1h  1 3.950000e-01    1.850000e+00
  TN4h  C6vr  1 3.950000e-01    2.500000e+00
  TN4r  C6vh  1 3.950000e-01    2.500000e+00
  TN4h  C5vr  1 3.950000e-01    2.310000e+00
  TN4r  C5vh  1 3.950000e-01    2.310000e+00
  TN4h  C4vr  1 3.950000e-01    2.310000e+00
  TN4r  C4vh  1 3.950000e-01    2.310000e+00
  TN4h  C3vr  1 3.950000e-01    2.110000e+00
  TN4r  C3vh  1 3.950000e-01    2.110000e+00
  TN4h  C2vr  1 3.950000e-01    1.850000e+00
  TN4r  C2vh  1 3.950000e-01    1.850000e+00
  TN4h  C1vr  1 3.950000e-01    1.670000e+00
  TN4r  C1vh  1 3.950000e-01    1.670000e+00
  TN4h  X4vr  1 3.950000e-01    2.940000e+00
  TN4r  X4vh  1 3.950000e-01    2.940000e+00
  TN4h  X3vr  1 3.950000e-01    2.700000e+00
  TN4r  X3vh  1 3.950000e-01    2.700000e+00
  TN4h  X2vr  1 3.950000e-01    2.310000e+00
  TN4r  X2vh  1 3.950000e-01    2.310000e+00
  TN4h  X1vr  1 3.950000e-01    2.110000e+00
  TN4r  X1vh  1 3.950000e-01    2.110000e+00
  TN4h  C6er  1 3.950000e-01    2.500000e+00
  TN4r  C6eh  1 3.950000e-01    2.500000e+00
  TN4h  C5er  1 3.950000e-01    2.310000e+00
  TN4r  C5eh  1 3.950000e-01    2.310000e+00
  TN4h  C4er  1 3.950000e-01    2.310000e+00
  TN4r  C4eh  1 3.950000e-01    2.310000e+00
  TN4h  C3er  1 3.950000e-01    2.110000e+00
  TN4r  C3eh  1 3.950000e-01    2.110000e+00
  TN4h  C2er  1 3.950000e-01    1.850000e+00
  TN4r  C2eh  1 3.950000e-01    1.850000e+00
  TN4h  C1er  1 3.950000e-01    1.670000e+00
  TN4r  C1eh  1 3.950000e-01    1.670000e+00
  TN4h  X4er  1 3.950000e-01    2.940000e+00
  TN4r  X4eh  1 3.950000e-01    2.940000e+00
  TN4h  X3er  1 3.950000e-01    2.700000e+00
  TN4r  X3eh  1 3.950000e-01    2.700000e+00
  TN4h  X2er  1 3.950000e-01    2.310000e+00
  TN4r  X2eh  1 3.950000e-01    2.310000e+00
  TN4h  X1er  1 3.950000e-01    2.110000e+00
  TN4r  X1eh  1 3.950000e-01    2.110000e+00
  TN3h   C6r  1 3.950000e-01    2.310000e+00
  TN3r   C6h  1 3.950000e-01    2.310000e+00
  TN3h   C5r  1 3.950000e-01    2.110000e+00
  TN3r   C5h  1 3.950000e-01    2.110000e+00
  TN3h   C4r  1 3.950000e-01    2.110000e+00
  TN3r   C4h  1 3.950000e-01    2.110000e+00
  TN3h   C3r  1 3.950000e-01    1.850000e+00
  TN3r   C3h  1 3.950000e-01    1.850000e+00
  TN3h   C2r  1 3.950000e-01    1.850000e+00
  TN3r   C2h  1 3.950000e-01    1.850000e+00
  TN3h   C1r  1 3.950000e-01    1.670000e+00
  TN3r   C1h  1 3.950000e-01    1.670000e+00
  TN3h   X4r  1 3.950000e-01    2.500000e+00
  TN3r   X4h  1 3.950000e-01    2.500000e+00
  TN3h   X3r  1 3.950000e-01    2.310000e+00
  TN3r   X3h  1 3.950000e-01    2.310000e+00
  TN3h   X2r  1 3.950000e-01    2.110000e+00
  TN3r   X2h  1 3.950000e-01    2.110000e+00
  TN3h   X1r  1 3.950000e-01    2.110000e+00
  TN3r   X1h  1 3.950000e-01    2.110000e+00
  TN3h  C6vr  1 3.950000e-01    2.500000e+00
  TN3r  C6vh  1 3.950000e-01    2.500000e+00
  TN3h  C5vr  1 3.950000e-01    2.310000e+00
  TN3r  C5vh  1 3.950000e-01    2.310000e+00
  TN3h  C4vr  1 3.950000e-01    2.310000e+00
  TN3r  C4vh  1 3.950000e-01    2.310000e+00
  TN3h  C3vr  1 3.950000e-01    2.110000e+00
  TN3r  C3vh  1 3.950000e-01    2.110000e+00
  TN3h  C2vr  1 3.950000e-01    2.110000e+00
  TN3r  C2vh  1 3.950000e-01    2.110000e+00
  TN3h  C1vr  1 3.950000e-01    1.850000e+00
  TN3r  C1vh  1 3.950000e-01    1.850000e+00
  TN3h  X4vr  1 3.950000e-01    2.700000e+00
  TN3r  X4vh  1 3.950000e-01    2.700000e+00
  TN3h  X3vr  1 3.950000e-01    2.500000e+00
  TN3r  X3vh  1 3.950000e-01    2.500000e+00
  TN3h  X2vr  1 3.950000e-01    2.310000e+00
  TN3r  X2vh  1 3.950000e-01    2.310000e+00
  TN3h  X1vr  1 3.950000e-01    2.310000e+00
  TN3r  X1vh  1 3.950000e-01    2.310000e+00
  TN3h  C6er  1 3.950000e-01    2.500000e+00
  TN3r  C6eh  1 3.950000e-01    2.500000e+00
  TN3h  C5er  1 3.950000e-01    2.310000e+00
  TN3r  C5eh  1 3.950000e-01    2.310000e+00
  TN3h  C4er  1 3.950000e-01    2.310000e+00
  TN3r  C4eh  1 3.950000e-01    2.310000e+00
  TN3h  C3er  1 3.950000e-01    2.110000e+00
  TN3r  C3eh  1 3.950000e-01    2.110000e+00
  TN3h  C2er  1 3.950000e-01    2.110000e+00
  TN3r  C2eh  1 3.950000e-01    2.110000e+00
  TN3h  C1er  1 3.950000e-01    1.850000e+00
  TN3r  C1eh  1 3.950000e-01    1.850000e+00
  TN3h  X4er  1 3.950000e-01    2.700000e+00
  TN3r  X4eh  1 3.950000e-01    2.700000e+00
  TN3h  X3er  1 3.950000e-01    2.500000e+00
  TN3r  X3eh  1 3.950000e-01    2.500000e+00
  TN3h  X2er  1 3.950000e-01    2.310000e+00
  TN3r  X2eh  1 3.950000e-01    2.310000e+00
  TN3h  X1er  1 3.950000e-01    2.310000e+00
  TN3r  X1eh  1 3.950000e-01    2.310000e+00
  TN2h   C6r  1 3.950000e-01    2.310000e+00
  TN2r   C6h  1 3.950000e-01    2.310000e+00
  TN2h   C5r  1 3.950000e-01    2.110000e+00
  TN2r   C5h  1 3.950000e-01    2.110000e+00
  TN2h   C4r  1 3.950000e-01    2.110000e+00
  TN2r   C4h  1 3.950000e-01    2.110000e+00
  TN2h   C3r  1 3.950000e-01    2.110000e+00
  TN2r   C3h  1 3.950000e-01    2.110000e+00
  TN2h   C2r  1 3.950000e-01    1.850000e+00
  TN2r   C2h  1 3.950000e-01    1.850000e+00
  TN2h   C1r  1 3.950000e-01    1.670000e+00
  TN2r   C1h  1 3.950000e-01    1.670000e+00
  TN2h   X4r  1 3.950000e-01    2.500000e+00
  TN2r   X4h  1 3.950000e-01    2.500000e+00
  TN2h   X3r  1 3.950000e-01    2.310000e+00
  TN2r   X3h  1 3.950000e-01    2.310000e+00
  TN2h   X2r  1 3.950000e-01    2.110000e+00
  TN2r   X2h  1 3.950000e-01    2.110000e+00
  TN2h   X1r  1 3.950000e-01    2.110000e+00
  TN2r   X1h  1 3.950000e-01    2.110000e+00
  TN2h  C6vr  1 3.950000e-01    2.500000e+00
  TN2r  C6vh  1 3.950000e-01    2.500000e+00
  TN2h  C5vr  1 3.950000e-01    2.310000e+00
  TN2r  C5vh  1 3.950000e-01    2.310000e+00
  TN2h  C4vr  1 3.950000e-01    2.310000e+00
  TN2r  C4vh  1 3.950000e-01    2.310000e+00
  TN2h  C3vr  1 3.950000e-01    2.310000e+00
  TN2r  C3vh  1 3.950000e-01    2.310000e+00
  TN2h  C2vr  1 3.950000e-01    2.110000e+00
  TN2r  C2vh  1 3.950000e-01    2.110000e+00
  TN2h  C1vr  1 3.950000e-01    1.850000e+00
  TN2r  C1vh  1 3.950000e-01    1.850000e+00
  TN2h  X4vr  1 3.950000e-01    2.700000e+00
  TN2r  X4vh  1 3.950000e-01    2.700000e+00
  TN2h  X3vr  1 3.950000e-01    2.500000e+00
  TN2r  X3vh  1 3.950000e-01    2.500000e+00
  TN2h  X2vr  1 3.950000e-01    2.310000e+00
  TN2r  X2vh  1 3.950000e-01    2.310000e+00
  TN2h  X1vr  1 3.950000e-01    2.310000e+00
  TN2r  X1vh  1 3.950000e-01    2.310000e+00
  TN2h  C6er  1 3.950000e-01    2.500000e+00
  TN2r  C6eh  1 3.950000e-01    2.500000e+00
  TN2h  C5er  1 3.950000e-01    2.310000e+00
  TN2r  C5eh  1 3.950000e-01    2.310000e+00
  TN2h  C4er  1 3.950000e-01    2.310000e+00
  TN2r  C4eh  1 3.950000e-01    2.310000e+00
  TN2h  C3er  1 3.950000e-01    2.310000e+00
  TN2r  C3eh  1 3.950000e-01    2.310000e+00
  TN2h  C2er  1 3.950000e-01    2.110000e+00
  TN2r  C2eh  1 3.950000e-01    2.110000e+00
  TN2h  C1er  1 3.950000e-01    1.850000e+00
  TN2r  C1eh  1 3.950000e-01    1.850000e+00
  TN2h  X4er  1 3.950000e-01    2.700000e+00
  TN2r  X4eh  1 3.950000e-01    2.700000e+00
  TN2h  X3er  1 3.950000e-01    2.500000e+00
  TN2r  X3eh  1 3.950000e-01    2.500000e+00
  TN2h  X2er  1 3.950000e-01    2.310000e+00
  TN2r  X2eh  1 3.950000e-01    2.310000e+00
  TN2h  X1er  1 3.950000e-01    2.310000e+00
  TN2r  X1eh  1 3.950000e-01    2.310000e+00
  TN1h   C6r  1 3.950000e-01    2.500000e+00
  TN1r   C6h  1 3.950000e-01    2.500000e+00
  TN1h   C5r  1 3.950000e-01    2.310000e+00
  TN1r   C5h  1 3.950000e-01    2.310000e+00
  TN1h   C4r  1 3.950000e-01    2.310000e+00
  TN1r   C4h  1 3.950000e-01    2.310000e+00
  TN1h   C3r  1 3.950000e-01    2.110000e+00
  TN1r   C3h  1 3.950000e-01    2.110000e+00
  TN1h   C2r  1 3.950000e-01    1.850000e+00
  TN1r   C2h  1 3.950000e-01    1.850000e+00
  TN1h   C1r  1 3.950000e-01    1.670000e+00
  TN1r   C1h  1 3.950000e-01    1.670000e+00
  TN1h   X4r  1 3.950000e-01    2.310000e+00
  TN1r   X4h  1 3.950000e-01    2.310000e+00
  TN1h   X3r  1 3.950000e-01    2.310000e+00
  TN1r   X3h  1 3.950000e-01    2.310000e+00
  TN1h   X2r  1 3.950000e-01    2.110000e+00
  TN1r   X2h  1 3.950000e-01    2.110000e+00
  TN1h   X1r  1 3.950000e-01    2.110000e+00
  TN1r   X1h  1 3.950000e-01    2.110000e+00
  TN1h  C6vr  1 3.950000e-01    2.700000e+00
  TN1r  C6vh  1 3.950000e-01    2.700000e+00
  TN1h  C5vr  1 3.950000e-01    2.500000e+00
  TN1r  C5vh  1 3.950000e-01    2.500000e+00
  TN1h  C4vr  1 3.950000e-01    2.500000e+00
  TN1r  C4vh  1 3.950000e-01    2.500000e+00
  TN1h  C3vr  1 3.950000e-01    2.310000e+00
  TN1r  C3vh  1 3.950000e-01    2.310000e+00
  TN1h  C2vr  1 3.950000e-01    2.110000e+00
  TN1r  C2vh  1 3.950000e-01    2.110000e+00
  TN1h  C1vr  1 3.950000e-01    1.850000e+00
  TN1r  C1vh  1 3.950000e-01    1.850000e+00
  TN1h  X4vr  1 3.950000e-01    2.500000e+00
  TN1r  X4vh  1 3.950000e-01    2.500000e+00
  TN1h  X3vr  1 3.950000e-01    2.500000e+00
  TN1r  X3vh  1 3.950000e-01    2.500000e+00
  TN1h  X2vr  1 3.950000e-01    2.310000e+00
  TN1r  X2vh  1 3.950000e-01    2.310000e+00
  TN1h  X1vr  1 3.950000e-01    2.310000e+00
  TN1r  X1vh  1 3.950000e-01    2.310000e+00
  TN1h  C6er  1 3.950000e-01    2.700000e+00
  TN1r  C6eh  1 3.950000e-01    2.700000e+00
  TN1h  C5er  1 3.950000e-01    2.500000e+00
  TN1r  C5eh  1 3.950000e-01    2.500000e+00
  TN1h  C4er  1 3.950000e-01    2.500000e+00
  TN1r  C4eh  1 3.950000e-01    2.500000e+00
  TN1h  C3er  1 3.950000e-01    2.310000e+00
  TN1r  C3eh  1 3.950000e-01    2.310000e+00
  TN1h  C2er  1 3.950000e-01    2.110000e+00
  TN1r  C2eh  1 3.950000e-01    2.110000e+00
  TN1h  C1er  1 3.950000e-01    1.850000e+00
  TN1r  C1eh  1 3.950000e-01    1.850000e+00
  TN1h  X4er  1 3.950000e-01    2.500000e+00
  TN1r  X4eh  1 3.950000e-01    2.500000e+00
  TN1h  X3er  1 3.950000e-01    2.500000e+00
  TN1r  X3eh  1 3.950000e-01    2.500000e+00
  TN1h  X2er  1 3.950000e-01    2.310000e+00
  TN1r  X2eh  1 3.950000e-01    2.310000e+00
  TN1h  X1er  1 3.950000e-01    2.310000e+00
  TN1r  X1eh  1 3.950000e-01    2.310000e+00
 TP6dh   C6r  1 3.950000e-01    1.670000e+00
 TP6dr   C6h  1 3.950000e-01    1.670000e+00
 TP6dh   C5r  1 3.980000e-01    1.450000e+00
 TP6dr   C5h  1 3.980000e-01    1.450000e+00
 TP6dh   C4r  1 3.990000e-01    1.180000e+00
 TP6dr   C4h  1 3.990000e-01    1.180000e+00
 TP6dh   C3r  1 4.010000e-01    9.830000e-01
 TP6dr   C3h  1 4.010000e-01    9.830000e-01
 TP6dh   C2r  1 4.010000e-01    9.830000e-01
 TP6dr   C2h  1 4.010000e-01    9.830000e-01
 TP6dh   C1r  1 4.650000e-01    7.030000e-01
 TP6dr   C1h  1 4.650000e-01    7.030000e-01
 TP6dh   X4r  1 3.950000e-01    1.850000e+00
 TP6dr   X4h  1 3.950000e-01    1.850000e+00
 TP6dh   X3r  1 3.950000e-01    1.850000e+00
 TP6dr   X3h  1 3.950000e-01    1.850000e+00
 TP6dh   X2r  1 3.950000e-01    1.670000e+00
 TP6dr   X2h  1 3.950000e-01    1.670000e+00
 TP6dh   X1r  1 3.980000e-01    1.450000e+00
 TP6dr   X1h  1 3.980000e-01    1.450000e+00
 TP6dh  C6vr  1 3.980000e-01    1.450000e+00
 TP6dr  C6vh  1 3.980000e-01    1.450000e+00
 TP6dh  C5vr  1 3.990000e-01    1.180000e+00
 TP6dr  C5vh  1 3.990000e-01    1.180000e+00
 TP6dh  C4vr  1 4.010000e-01    9.830000e-01
 TP6dr  C4vh  1 4.010000e-01    9.830000e-01
 TP6dh  C3vr  1 4.040000e-01    8.300000e-01
 TP6dr  C3vh  1 4.040000e-01    8.300000e-01
 TP6dh  C2vr  1 4.040000e-01    8.300000e-01
 TP6dr  C2vh  1 4.040000e-01    8.300000e-01
 TP6dh  C1vr  1 5.110000e-01    6.590000e-01
 TP6dr  C1vh  1 5.110000e-01    6.590000e-01
 TP6dh  X4vr  1 3.950000e-01    1.670000e+00
 TP6dr  X4vh  1 3.950000e-01    1.670000e+00
 TP6dh  X3vr  1 3.950000e-01    1.670000e+00
 TP6dr  X3vh  1 3.950000e-01    1.670000e+00
 TP6dh  X2vr  1 3.980000e-01    1.450000e+00
 TP6dr  X2vh  1 3.980000e-01    1.450000e+00
 TP6dh  X1vr  1 3.990000e-01    1.180000e+00
 TP6dr  X1vh  1 3.990000e-01    1.180000e+00
 TP6dh  C6er  1 3.950000e-01    1.850000e+00
 TP6dr  C6eh  1 3.950000e-01    1.850000e+00
 TP6dh  C5er  1 3.950000e-01    1.670000e+00
 TP6dr  C5eh  1 3.950000e-01    1.670000e+00
 TP6dh  C4er  1 3.980000e-01    1.450000e+00
 TP6dr  C4eh  1 3.980000e-01    1.450000e+00
 TP6dh  C3er  1 3.990000e-01    1.180000e+00
 TP6dr  C3eh  1 3.990000e-01    1.180000e+00
 TP6dh  C2er  1 3.990000e-01    1.180000e+00
 TP6dr  C2eh  1 3.990000e-01    1.180000e+00
 TP6dh  C1er  1 4.040000e-01    8.300000e-01
 TP6dr  C1eh  1 4.040000e-01    8.300000e-01
 TP6dh  X4er  1 3.950000e-01    2.110000e+00
 TP6dr  X4eh  1 3.950000e-01    2.110000e+00
 TP6dh  X3er  1 3.950000e-01    2.110000e+00
 TP6dr  X3eh  1 3.950000e-01    2.110000e+00
 TP6dh  X2er  1 3.950000e-01    1.850000e+00
 TP6dr  X2eh  1 3.950000e-01    1.850000e+00
 TP6dh  X1er  1 3.950000e-01    1.670000e+00
 TP6dr  X1eh  1 3.950000e-01    1.670000e+00
 TP5dh   C6r  1 3.950000e-01    1.670000e+00
 TP5dr   C6h  1 3.950000e-01    1.670000e+00
 TP5dh   C5r  1 3.950000e-01    1.670000e+00
 TP5dr   C5h  1 3.950000e-01    1.670000e+00
 TP5dh   C4r  1 3.980000e-01    1.450000e+00
 TP5dr   C4h  1 3.980000e-01    1.450000e+00
 TP5dh   C3r  1 3.990000e-01    1.180000e+00
 TP5dr   C3h  1 3.990000e-01    1.180000e+00
 TP5dh   C2r  1 3.990000e-01    1.180000e+00
 TP5dr   C2h  1 3.990000e-01    1.180000e+00
 TP5dh   C1r  1 4.010000e-01    9.830000e-01
 TP5dr   C1h  1 4.010000e-01    9.830000e-01
 TP5dh   X4r  1 3.950000e-01    2.110000e+00
 TP5dr   X4h  1 3.950000e-01    2.110000e+00
 TP5dh   X3r  1 3.950000e-01    1.850000e+00
 TP5dr   X3h  1 3.950000e-01    1.850000e+00
 TP5dh   X2r  1 3.950000e-01    1.850000e+00
 TP5dr   X2h  1 3.950000e-01    1.850000e+00
 TP5dh   X1r  1 3.980000e-01    1.450000e+00
 TP5dr   X1h  1 3.980000e-01    1.450000e+00
 TP5dh  C6vr  1 3.980000e-01    1.450000e+00
 TP5dr  C6vh  1 3.980000e-01    1.450000e+00
 TP5dh  C5vr  1 3.980000e-01    1.450000e+00
 TP5dr  C5vh  1 3.980000e-01    1.450000e+00
 TP5dh  C4vr  1 3.990000e-01    1.180000e+00
 TP5dr  C4vh  1 3.990000e-01    1.180000e+00
 TP5dh  C3vr  1 4.010000e-01    9.830000e-01
 TP5dr  C3vh  1 4.010000e-01    9.830000e-01
 TP5dh  C2vr  1 4.010000e-01    9.830000e-01
 TP5dr  C2vh  1 4.010000e-01    9.830000e-01
 TP5dh  C1vr  1 4.040000e-01    8.300000e-01
 TP5dr  C1vh  1 4.040000e-01    8.300000e-01
 TP5dh  X4vr  1 3.950000e-01    1.850000e+00
 TP5dr  X4vh  1 3.950000e-01    1.850000e+00
 TP5dh  X3vr  1 3.950000e-01    1.670000e+00
 TP5dr  X3vh  1 3.950000e-01    1.670000e+00
 TP5dh  X2vr  1 3.950000e-01    1.670000e+00
 TP5dr  X2vh  1 3.950000e-01    1.670000e+00
 TP5dh  X1vr  1 3.990000e-01    1.180000e+00
 TP5dr  X1vh  1 3.990000e-01    1.180000e+00
 TP5dh  C6er  1 3.950000e-01    1.850000e+00
 TP5dr  C6eh  1 3.950000e-01    1.850000e+00
 TP5dh  C5er  1 3.950000e-01    1.850000e+00
 TP5dr  C5eh  1 3.950000e-01    1.850000e+00
 TP5dh  C4er  1 3.950000e-01    1.670000e+00
 TP5dr  C4eh  1 3.950000e-01    1.670000e+00
 TP5dh  C3er  1 3.980000e-01    1.450000e+00
 TP5dr  C3eh  1 3.980000e-01    1.450000e+00
 TP5dh  C2er  1 3.980000e-01    1.450000e+00
 TP5dr  C2eh  1 3.980000e-01    1.450000e+00
 TP5dh  C1er  1 3.990000e-01    1.180000e+00
 TP5dr  C1eh  1 3.990000e-01    1.180000e+00
 TP5dh  X4er  1 3.950000e-01    2.310000e+00
 TP5dr  X4eh  1 3.950000e-01    2.310000e+00
 TP5dh  X3er  1 3.950000e-01    2.110000e+00
 TP5dr  X3eh  1 3.950000e-01    2.110000e+00
 TP5dh  X2er  1 3.950000e-01    2.110000e+00
 TP5dr  X2eh  1 3.950000e-01    2.110000e+00
 TP5dh  X1er  1 3.950000e-01    1.670000e+00
 TP5dr  X1eh  1 3.950000e-01    1.670000e+00
 TP4dh   C6r  1 3.950000e-01    1.850000e+00
 TP4dr   C6h  1 3.950000e-01    1.850000e+00
 TP4dh   C5r  1 3.950000e-01    1.670000e+00
 TP4dr   C5h  1 3.950000e-01    1.670000e+00
 TP4dh   C4r  1 3.980000e-01    1.450000e+00
 TP4dr   C4h  1 3.980000e-01    1.450000e+00
 TP4dh   C3r  1 3.990000e-01    1.180000e+00
 TP4dr   C3h  1 3.990000e-01    1.180000e+00
 TP4dh   C2r  1 3.990000e-01    1.180000e+00
 TP4dr   C2h  1 3.990000e-01    1.180000e+00
 TP4dh   C1r  1 4.010000e-01    9.830000e-01
 TP4dr   C1h  1 4.010000e-01    9.830000e-01
 TP4dh   X4r  1 3.950000e-01    2.110000e+00
 TP4dr   X4h  1 3.950000e-01    2.110000e+00
 TP4dh   X3r  1 3.950000e-01    1.850000e+00
 TP4dr   X3h  1 3.950000e-01    1.850000e+00
 TP4dh   X2r  1 3.950000e-01    1.850000e+00
 TP4dr   X2h  1 3.950000e-01    1.850000e+00
 TP4dh   X1r  1 3.950000e-01    1.670000e+00
 TP4dr   X1h  1 3.950000e-01    1.670000e+00
 TP4dh  C6vr  1 3.950000e-01    1.670000e+00
 TP4dr  C6vh  1 3.950000e-01    1.670000e+00
 TP4dh  C5vr  1 3.980000e-01    1.450000e+00
 TP4dr  C5vh  1 3.980000e-01    1.450000e+00
 TP4dh  C4vr  1 3.990000e-01    1.180000e+00
 TP4dr  C4vh  1 3.990000e-01    1.180000e+00
 TP4dh  C3vr  1 4.010000e-01    9.830000e-01
 TP4dr  C3vh  1 4.010000e-01    9.830000e-01
 TP4dh  C2vr  1 4.010000e-01    9.830000e-01
 TP4dr  C2vh  1 4.010000e-01    9.830000e-01
 TP4dh  C1vr  1 4.040000e-01    8.300000e-01
 TP4dr  C1vh  1 4.040000e-01    8.300000e-01
 TP4dh  X4vr  1 3.950000e-01    1.850000e+00
 TP4dr  X4vh  1 3.950000e-01    1.850000e+00
 TP4dh  X3vr  1 3.950000e-01    1.670000e+00
 TP4dr  X3vh  1 3.950000e-01    1.670000e+00
 TP4dh  X2vr  1 3.950000e-01    1.670000e+00
 TP4dr  X2vh  1 3.950000e-01    1.670000e+00
 TP4dh  X1vr  1 3.980000e-01    1.450000e+00
 TP4dr  X1vh  1 3.980000e-01    1.450000e+00
 TP4dh  C6er  1 3.950000e-01    2.110000e+00
 TP4dr  C6eh  1 3.950000e-01    2.110000e+00
 TP4dh  C5er  1 3.950000e-01    1.850000e+00
 TP4dr  C5eh  1 3.950000e-01    1.850000e+00
 TP4dh  C4er  1 3.950000e-01    1.670000e+00
 TP4dr  C4eh  1 3.950000e-01    1.670000e+00
 TP4dh  C3er  1 3.980000e-01    1.450000e+00
 TP4dr  C3eh  1 3.980000e-01    1.450000e+00
 TP4dh  C2er  1 3.980000e-01    1.450000e+00
 TP4dr  C2eh  1 3.980000e-01    1.450000e+00
 TP4dh  C1er  1 3.990000e-01    1.180000e+00
 TP4dr  C1eh  1 3.990000e-01    1.180000e+00
 TP4dh  X4er  1 3.950000e-01    2.310000e+00
 TP4dr  X4eh  1 3.950000e-01    2.310000e+00
 TP4dh  X3er  1 3.950000e-01    2.110000e+00
 TP4dr  X3eh  1 3.950000e-01    2.110000e+00
 TP4dh  X2er  1 3.950000e-01    2.110000e+00
 TP4dr  X2eh  1 3.950000e-01    2.110000e+00
 TP4dh  X1er  1 3.950000e-01    1.850000e+00
 TP4dr  X1eh  1 3.950000e-01    1.850000e+00
 TP3dh   C6r  1 3.950000e-01    2.110000e+00
 TP3dr   C6h  1 3.950000e-01    2.110000e+00
 TP3dh   C5r  1 3.950000e-01    1.850000e+00
 TP3dr   C5h  1 3.950000e-01    1.850000e+00
 TP3dh   C4r  1 3.950000e-01    1.670000e+00
 TP3dr   C4h  1 3.950000e-01    1.670000e+00
 TP3dh   C3r  1 3.990000e-01    1.180000e+00
 TP3dr   C3h  1 3.990000e-01    1.180000e+00
 TP3dh   C2r  1 3.990000e-01    1.180000e+00
 TP3dr   C2h  1 3.990000e-01    1.180000e+00
 TP3dh   C1r  1 4.010000e-01    9.830000e-01
 TP3dr   C1h  1 4.010000e-01    9.830000e-01
 TP3dh   X4r  1 3.950000e-01    2.110000e+00
 TP3dr   X4h  1 3.950000e-01    2.110000e+00
 TP3dh   X3r  1 3.950000e-01    2.110000e+00
 TP3dr   X3h  1 3.950000e-01    2.110000e+00
 TP3dh   X2r  1 3.950000e-01    1.850000e+00
 TP3dr   X2h  1 3.950000e-01    1.850000e+00
 TP3dh   X1r  1 3.950000e-01    1.670000e+00
 TP3dr   X1h  1 3.950000e-01    1.670000e+00
 TP3dh  C6vr  1 3.950000e-01    1.850000e+00
 TP3dr  C6vh  1 3.950000e-01    1.850000e+00
 TP3dh  C5vr  1 3.950000e-01    1.670000e+00
 TP3dr  C5vh  1 3.950000e-01    1.670000e+00
 TP3dh  C4vr  1 3.980000e-01    1.450000e+00
 TP3dr  C4vh  1 3.980000e-01    1.450000e+00
 TP3dh  C3vr  1 4.010000e-01    9.830000e-01
 TP3dr  C3vh  1 4.010000e-01    9.830000e-01
 TP3dh  C2vr  1 4.010000e-01    9.830000e-01
 TP3dr  C2vh  1 4.010000e-01    9.830000e-01
 TP3dh  C1vr  1 4.040000e-01    8.300000e-01
 TP3dr  C1vh  1 4.040000e-01    8.300000e-01
 TP3dh  X4vr  1 3.950000e-01    1.850000e+00
 TP3dr  X4vh  1 3.950000e-01    1.850000e+00
 TP3dh  X3vr  1 3.950000e-01    1.850000e+00
 TP3dr  X3vh  1 3.950000e-01    1.850000e+00
 TP3dh  X2vr  1 3.950000e-01    1.670000e+00
 TP3dr  X2vh  1 3.950000e-01    1.670000e+00
 TP3dh  X1vr  1 3.980000e-01    1.450000e+00
 TP3dr  X1vh  1 3.980000e-01    1.450000e+00
 TP3dh  C6er  1 3.950000e-01    2.310000e+00
 TP3dr  C6eh  1 3.950000e-01    2.310000e+00
 TP3dh  C5er  1 3.950000e-01    2.110000e+00
 TP3dr  C5eh  1 3.950000e-01    2.110000e+00
 TP3dh  C4er  1 3.950000e-01    1.850000e+00
 TP3dr  C4eh  1 3.950000e-01    1.850000e+00
 TP3dh  C3er  1 3.980000e-01    1.450000e+00
 TP3dr  C3eh  1 3.980000e-01    1.450000e+00
 TP3dh  C2er  1 3.980000e-01    1.450000e+00
 TP3dr  C2eh  1 3.980000e-01    1.450000e+00
 TP3dh  C1er  1 3.990000e-01    1.180000e+00
 TP3dr  C1eh  1 3.990000e-01    1.180000e+00
 TP3dh  X4er  1 3.950000e-01    2.310000e+00
 TP3dr  X4eh  1 3.950000e-01    2.310000e+00
 TP3dh  X3er  1 3.950000e-01    2.310000e+00
 TP3dr  X3eh  1 3.950000e-01    2.310000e+00
 TP3dh  X2er  1 3.950000e-01    2.110000e+00
 TP3dr  X2eh  1 3.950000e-01    2.110000e+00
 TP3dh  X1er  1 3.950000e-01    1.850000e+00
 TP3dr  X1eh  1 3.950000e-01    1.850000e+00
 TP2dh   C6r  1 3.950000e-01    2.110000e+00
 TP2dr   C6h  1 3.950000e-01    2.110000e+00
 TP2dh   C5r  1 3.950000e-01    1.850000e+00
 TP2dr   C5h  1 3.950000e-01    1.850000e+00
 TP2dh   C4r  1 3.950000e-01    1.670000e+00
 TP2dr   C4h  1 3.950000e-01    1.670000e+00
 TP2dh   C3r  1 3.980000e-01    1.450000e+00
 TP2dr   C3h  1 3.980000e-01    1.450000e+00
 TP2dh   C2r  1 3.980000e-01    1.450000e+00
 TP2dr   C2h  1 3.980000e-01    1.450000e+00
 TP2dh   C1r  1 3.990000e-01    1.180000e+00
 TP2dr   C1h  1 3.990000e-01    1.180000e+00
 TP2dh   X4r  1 3.950000e-01    2.110000e+00
 TP2dr   X4h  1 3.950000e-01    2.110000e+00
 TP2dh   X3r  1 3.950000e-01    2.110000e+00
 TP2dr   X3h  1 3.950000e-01    2.110000e+00
 TP2dh   X2r  1 3.950000e-01    1.850000e+00
 TP2dr   X2h  1 3.950000e-01    1.850000e+00
 TP2dh   X1r  1 3.950000e-01    1.670000e+00
 TP2dr   X1h  1 3.950000e-01    1.670000e+00
 TP2dh  C6vr  1 3.950000e-01    1.850000e+00
 TP2dr  C6vh  1 3.950000e-01    1.850000e+00
 TP2dh  C5vr  1 3.950000e-01    1.670000e+00
 TP2dr  C5vh  1 3.950000e-01    1.670000e+00
 TP2dh  C4vr  1 3.980000e-01    1.450000e+00
 TP2dr  C4vh  1 3.980000e-01    1.450000e+00
 TP2dh  C3vr  1 3.990000e-01    1.180000e+00
 TP2dr  C3vh  1 3.990000e-01    1.180000e+00
 TP2dh  C2vr  1 3.990000e-01    1.180000e+00
 TP2dr  C2vh  1 3.990000e-01    1.180000e+00
 TP2dh  C1vr  1 4.010000e-01    9.830000e-01
 TP2dr  C1vh  1 4.010000e-01    9.830000e-01
 TP2dh  X4vr  1 3.950000e-01    1.850000e+00
 TP2dr  X4vh  1 3.950000e-01    1.850000e+00
 TP2dh  X3vr  1 3.950000e-01    1.850000e+00
 TP2dr  X3vh  1 3.950000e-01    1.850000e+00
 TP2dh  X2vr  1 3.950000e-01    1.670000e+00
 TP2dr  X2vh  1 3.950000e-01    1.670000e+00
 TP2dh  X1vr  1 3.980000e-01    1.450000e+00
 TP2dr  X1vh  1 3.980000e-01    1.450000e+00
 TP2dh  C6er  1 3.950000e-01    2.310000e+00
 TP2dr  C6eh  1 3.950000e-01    2.310000e+00
 TP2dh  C5er  1 3.950000e-01    2.110000e+00
 TP2dr  C5eh  1 3.950000e-01    2.110000e+00
 TP2dh  C4er  1 3.950000e-01    1.850000e+00
 TP2dr  C4eh  1 3.950000e-01    1.850000e+00
 TP2dh  C3er  1 3.950000e-01    1.670000e+00
 TP2dr  C3eh  1 3.950000e-01    1.670000e+00
 TP2dh  C2er  1 3.950000e-01    1.670000e+00
 TP2dr  C2eh  1 3.950000e-01    1.670000e+00
 TP2dh  C1er  1 3.980000e-01    1.450000e+00
 TP2dr  C1eh  1 3.980000e-01    1.450000e+00
 TP2dh  X4er  1 3.950000e-01    2.310000e+00
 TP2dr  X4eh  1 3.950000e-01    2.310000e+00
 TP2dh  X3er  1 3.950000e-01    2.310000e+00
 TP2dr  X3eh  1 3.950000e-01    2.310000e+00
 TP2dh  X2er  1 3.950000e-01    2.110000e+00
 TP2dr  X2eh  1 3.950000e-01    2.110000e+00
 TP2dh  X1er  1 3.950000e-01    1.850000e+00
 TP2dr  X1eh  1 3.950000e-01    1.850000e+00
 TP1dh   C6r  1 3.950000e-01    2.110000e+00
 TP1dr   C6h  1 3.950000e-01    2.110000e+00
 TP1dh   C5r  1 3.950000e-01    1.850000e+00
 TP1dr   C5h  1 3.950000e-01    1.850000e+00
 TP1dh   C4r  1 3.950000e-01    1.670000e+00
 TP1dr   C4h  1 3.950000e-01    1.670000e+00
 TP1dh   C3r  1 3.980000e-01    1.450000e+00
 TP1dr   C3h  1 3.980000e-01    1.450000e+00
 TP1dh   C2r  1 3.980000e-01    1.450000e+00
 TP1dr   C2h  1 3.980000e-01    1.450000e+00
 TP1dh   C1r  1 3.990000e-01    1.180000e+00
 TP1dr   C1h  1 3.990000e-01    1.180000e+00
 TP1dh   X4r  1 3.950000e-01    2.110000e+00
 TP1dr   X4h  1 3.950000e-01    2.110000e+00
 TP1dh   X3r  1 3.950000e-01    2.110000e+00
 TP1dr   X3h  1 3.950000e-01    2.110000e+00
 TP1dh   X2r  1 3.950000e-01    1.850000e+00
 TP1dr   X2h  1 3.950000e-01    1.850000e+00
 TP1dh   X1r  1 3.950000e-01    1.670000e+00
 TP1dr   X1h  1 3.950000e-01    1.670000e+00
 TP1dh  C6vr  1 3.950000e-01    1.850000e+00
 TP1dr  C6vh  1 3.950000e-01    1.850000e+00
 TP1dh  C5vr  1 3.950000e-01    1.670000e+00
 TP1dr  C5vh  1 3.950000e-01    1.670000e+00
 TP1dh  C4vr  1 3.980000e-01    1.450000e+00
 TP1dr  C4vh  1 3.980000e-01    1.450000e+00
 TP1dh  C3vr  1 3.990000e-01    1.180000e+00
 TP1dr  C3vh  1 3.990000e-01    1.180000e+00
 TP1dh  C2vr  1 3.990000e-01    1.180000e+00
 TP1dr  C2vh  1 3.990000e-01    1.180000e+00
 TP1dh  C1vr  1 4.010000e-01    9.830000e-01
 TP1dr  C1vh  1 4.010000e-01    9.830000e-01
 TP1dh  X4vr  1 3.950000e-01    1.850000e+00
 TP1dr  X4vh  1 3.950000e-01    1.850000e+00
 TP1dh  X3vr  1 3.950000e-01    1.850000e+00
 TP1dr  X3vh  1 3.950000e-01    1.850000e+00
 TP1dh  X2vr  1 3.950000e-01    1.670000e+00
 TP1dr  X2vh  1 3.950000e-01    1.670000e+00
 TP1dh  X1vr  1 3.980000e-01    1.450000e+00
 TP1dr  X1vh  1 3.980000e-01    1.450000e+00
 TP1dh  C6er  1 3.950000e-01    2.310000e+00
 TP1dr  C6eh  1 3.950000e-01    2.310000e+00
 TP1dh  C5er  1 3.950000e-01    2.110000e+00
 TP1dr  C5eh  1 3.950000e-01    2.110000e+00
 TP1dh  C4er  1 3.950000e-01    1.850000e+00
 TP1dr  C4eh  1 3.950000e-01    1.850000e+00
 TP1dh  C3er  1 3.950000e-01    1.670000e+00
 TP1dr  C3eh  1 3.950000e-01    1.670000e+00
 TP1dh  C2er  1 3.950000e-01    1.670000e+00
 TP1dr  C2eh  1 3.950000e-01    1.670000e+00
 TP1dh  C1er  1 3.980000e-01    1.450000e+00
 TP1dr  C1eh  1 3.980000e-01    1.450000e+00
 TP1dh  X4er  1 3.950000e-01    2.310000e+00
 TP1dr  X4eh  1 3.950000e-01    2.310000e+00
 TP1dh  X3er  1 3.950000e-01    2.310000e+00
 TP1dr  X3eh  1 3.950000e-01    2.310000e+00
 TP1dh  X2er  1 3.950000e-01    2.110000e+00
 TP1dr  X2eh  1 3.950000e-01    2.110000e+00
 TP1dh  X1er  1 3.950000e-01    1.850000e+00
 TP1dr  X1eh  1 3.950000e-01    1.850000e+00
 TN6dh   C6r  1 3.950000e-01    2.310000e+00
 TN6dr   C6h  1 3.950000e-01    2.310000e+00
 TN6dh   C5r  1 3.950000e-01    2.110000e+00
 TN6dr   C5h  1 3.950000e-01    2.110000e+00
 TN6dh   C4r  1 3.950000e-01    1.850000e+00
 TN6dr   C4h  1 3.950000e-01    1.850000e+00
 TN6dh   C3r  1 3.950000e-01    1.670000e+00
 TN6dr   C3h  1 3.950000e-01    1.670000e+00
 TN6dh   C2r  1 3.950000e-01    1.670000e+00
 TN6dr   C2h  1 3.950000e-01    1.670000e+00
 TN6dh   C1r  1 3.980000e-01    1.450000e+00
 TN6dr   C1h  1 3.980000e-01    1.450000e+00
 TN6dh   X4r  1 3.950000e-01    2.310000e+00
 TN6dr   X4h  1 3.950000e-01    2.310000e+00
 TN6dh   X3r  1 3.950000e-01    2.110000e+00
 TN6dr   X3h  1 3.950000e-01    2.110000e+00
 TN6dh   X2r  1 3.950000e-01    1.850000e+00
 TN6dr   X2h  1 3.950000e-01    1.850000e+00
 TN6dh   X1r  1 3.950000e-01    1.670000e+00
 TN6dr   X1h  1 3.950000e-01    1.670000e+00
 TN6dh  C6vr  1 3.950000e-01    2.110000e+00
 TN6dr  C6vh  1 3.950000e-01    2.110000e+00
 TN6dh  C5vr  1 3.950000e-01    1.850000e+00
 TN6dr  C5vh  1 3.950000e-01    1.850000e+00
 TN6dh  C4vr  1 3.950000e-01    1.670000e+00
 TN6dr  C4vh  1 3.950000e-01    1.670000e+00
 TN6dh  C3vr  1 3.980000e-01    1.450000e+00
 TN6dr  C3vh  1 3.980000e-01    1.450000e+00
 TN6dh  C2vr  1 3.980000e-01    1.450000e+00
 TN6dr  C2vh  1 3.980000e-01    1.450000e+00
 TN6dh  C1vr  1 3.990000e-01    1.180000e+00
 TN6dr  C1vh  1 3.990000e-01    1.180000e+00
 TN6dh  X4vr  1 3.950000e-01    2.110000e+00
 TN6dr  X4vh  1 3.950000e-01    2.110000e+00
 TN6dh  X3vr  1 3.950000e-01    1.850000e+00
 TN6dr  X3vh  1 3.950000e-01    1.850000e+00
 TN6dh  X2vr  1 3.950000e-01    1.670000e+00
 TN6dr  X2vh  1 3.950000e-01    1.670000e+00
 TN6dh  X1vr  1 3.980000e-01    1.450000e+00
 TN6dr  X1vh  1 3.980000e-01    1.450000e+00
 TN6dh  C6er  1 3.950000e-01    2.500000e+00
 TN6dr  C6eh  1 3.950000e-01    2.500000e+00
 TN6dh  C5er  1 3.950000e-01    2.310000e+00
 TN6dr  C5eh  1 3.950000e-01    2.310000e+00
 TN6dh  C4er  1 3.950000e-01    2.110000e+00
 TN6dr  C4eh  1 3.950000e-01    2.110000e+00
 TN6dh  C3er  1 3.950000e-01    1.850000e+00
 TN6dr  C3eh  1 3.950000e-01    1.850000e+00
 TN6dh  C2er  1 3.950000e-01    1.850000e+00
 TN6dr  C2eh  1 3.950000e-01    1.850000e+00
 TN6dh  C1er  1 3.950000e-01    1.670000e+00
 TN6dr  C1eh  1 3.950000e-01    1.670000e+00
 TN6dh  X4er  1 3.950000e-01    2.500000e+00
 TN6dr  X4eh  1 3.950000e-01    2.500000e+00
 TN6dh  X3er  1 3.950000e-01    2.310000e+00
 TN6dr  X3eh  1 3.950000e-01    2.310000e+00
 TN6dh  X2er  1 3.950000e-01    2.110000e+00
 TN6dr  X2eh  1 3.950000e-01    2.110000e+00
 TN6dh  X1er  1 3.950000e-01    1.850000e+00
 TN6dr  X1eh  1 3.950000e-01    1.850000e+00
 TN5dh   C6r  1 3.950000e-01    2.310000e+00
 TN5dr   C6h  1 3.950000e-01    2.310000e+00
 TN5dh   C5r  1 3.950000e-01    2.110000e+00
 TN5dr   C5h  1 3.950000e-01    2.110000e+00
 TN5dh   C4r  1 3.950000e-01    1.850000e+00
 TN5dr   C4h  1 3.950000e-01    1.850000e+00
 TN5dh   C3r  1 3.950000e-01    1.850000e+00
 TN5dr   C3h  1 3.950000e-01    1.850000e+00
 TN5dh   C2r  1 3.950000e-01    1.670000e+00
 TN5dr   C2h  1 3.950000e-01    1.670000e+00
 TN5dh   C1r  1 3.980000e-01    1.450000e+00
 TN5dr   C1h  1 3.980000e-01    1.450000e+00
 TN5dh   X4r  1 3.950000e-01    2.500000e+00
 TN5dr   X4h  1 3.950000e-01    2.500000e+00
 TN5dh   X3r  1 3.950000e-01    2.310000e+00
 TN5dr   X3h  1 3.950000e-01    2.310000e+00
 TN5dh   X2r  1 3.950000e-01    2.110000e+00
 TN5dr   X2h  1 3.950000e-01    2.110000e+00
 TN5dh   X1r  1 3.950000e-01    1.850000e+00
 TN5dr   X1h  1 3.950000e-01    1.850000e+00
 TN5dh  C6vr  1 3.950000e-01    2.110000e+00
 TN5dr  C6vh  1 3.950000e-01    2.110000e+00
 TN5dh  C5vr  1 3.950000e-01    1.850000e+00
 TN5dr  C5vh  1 3.950000e-01    1.850000e+00
 TN5dh  C4vr  1 3.950000e-01    1.670000e+00
 TN5dr  C4vh  1 3.950000e-01    1.670000e+00
 TN5dh  C3vr  1 3.950000e-01    1.670000e+00
 TN5dr  C3vh  1 3.950000e-01    1.670000e+00
 TN5dh  C2vr  1 3.980000e-01    1.450000e+00
 TN5dr  C2vh  1 3.980000e-01    1.450000e+00
 TN5dh  C1vr  1 3.990000e-01    1.180000e+00
 TN5dr  C1vh  1 3.990000e-01    1.180000e+00
 TN5dh  X4vr  1 3.950000e-01    2.310000e+00
 TN5dr  X4vh  1 3.950000e-01    2.310000e+00
 TN5dh  X3vr  1 3.950000e-01    2.110000e+00
 TN5dr  X3vh  1 3.950000e-01    2.110000e+00
 TN5dh  X2vr  1 3.950000e-01    1.850000e+00
 TN5dr  X2vh  1 3.950000e-01    1.850000e+00
 TN5dh  X1vr  1 3.950000e-01    1.670000e+00
 TN5dr  X1vh  1 3.950000e-01    1.670000e+00
 TN5dh  C6er  1 3.950000e-01    2.500000e+00
 TN5dr  C6eh  1 3.950000e-01    2.500000e+00
 TN5dh  C5er  1 3.950000e-01    2.310000e+00
 TN5dr  C5eh  1 3.950000e-01    2.310000e+00
 TN5dh  C4er  1 3.950000e-01    2.110000e+00
 TN5dr  C4eh  1 3.950000e-01    2.110000e+00
 TN5dh  C3er  1 3.950000e-01    2.110000e+00
 TN5dr  C3eh  1 3.950000e-01    2.110000e+00
 TN5dh  C2er  1 3.950000e-01    1.850000e+00
 TN5dr  C2eh  1 3.950000e-01    1.850000e+00
 TN5dh  C1er  1 3.950000e-01    1.670000e+00
 TN5dr  C1eh  1 3.950000e-01    1.670000e+00
 TN5dh  X4er  1 3.950000e-01    2.700000e+00
 TN5dr  X4eh  1 3.950000e-01    2.700000e+00
 TN5dh  X3er  1 3.950000e-01    2.500000e+00
 TN5dr  X3eh  1 3.950000e-01    2.500000e+00
 TN5dh  X2er  1 3.950000e-01    2.310000e+00
 TN5dr  X2eh  1 3.950000e-01    2.310000e+00
 TN5dh  X1er  1 3.950000e-01    2.110000e+00
 TN5dr  X1eh  1 3.950000e-01    2.110000e+00
 TN4dh   C6r  1 3.950000e-01    2.310000e+00
 TN4dr   C6h  1 3.950000e-01    2.310000e+00
 TN4dh   C5r  1 3.950000e-01    2.110000e+00
 TN4dr   C5h  1 3.950000e-01    2.110000e+00
 TN4dh   C4r  1 3.950000e-01    2.110000e+00
 TN4dr   C4h  1 3.950000e-01    2.110000e+00
 TN4dh   C3r  1 3.950000e-01    1.850000e+00
 TN4dr   C3h  1 3.950000e-01    1.850000e+00
 TN4dh   C2r  1 3.950000e-01    1.670000e+00
 TN4dr   C2h  1 3.950000e-01    1.670000e+00
 TN4dh   C1r  1 3.980000e-01    1.450000e+00
 TN4dr   C1h  1 3.980000e-01    1.450000e+00
 TN4dh   X4r  1 3.950000e-01    2.700000e+00
 TN4dr   X4h  1 3.950000e-01    2.700000e+00
 TN4dh   X3r  1 3.950000e-01    2.500000e+00
 TN4dr   X3h  1 3.950000e-01    2.500000e+00
 TN4dh   X2r  1 3.950000e-01    2.110000e+00
 TN4dr   X2h  1 3.950000e-01    2.110000e+00
 TN4dh   X1r  1 3.950000e-01    1.850000e+00
 TN4dr   X1h  1 3.950000e-01    1.850000e+00
 TN4dh  C6vr  1 3.950000e-01    2.110000e+00
 TN4dr  C6vh  1 3.950000e-01    2.110000e+00
 TN4dh  C5vr  1 3.950000e-01    1.850000e+00
 TN4dr  C5vh  1 3.950000e-01    1.850000e+00
 TN4dh  C4vr  1 3.950000e-01    1.850000e+00
 TN4dr  C4vh  1 3.950000e-01    1.850000e+00
 TN4dh  C3vr  1 3.950000e-01    1.670000e+00
 TN4dr  C3vh  1 3.950000e-01    1.670000e+00
 TN4dh  C2vr  1 3.980000e-01    1.450000e+00
 TN4dr  C2vh  1 3.980000e-01    1.450000e+00
 TN4dh  C1vr  1 3.990000e-01    1.180000e+00
 TN4dr  C1vh  1 3.990000e-01    1.180000e+00
 TN4dh  X4vr  1 3.950000e-01    2.500000e+00
 TN4dr  X4vh  1 3.950000e-01    2.500000e+00
 TN4dh  X3vr  1 3.950000e-01    2.310000e+00
 TN4dr  X3vh  1 3.950000e-01    2.310000e+00
 TN4dh  X2vr  1 3.950000e-01    1.850000e+00
 TN4dr  X2vh  1 3.950000e-01    1.850000e+00
 TN4dh  X1vr  1 3.950000e-01    1.670000e+00
 TN4dr  X1vh  1 3.950000e-01    1.670000e+00
 TN4dh  C6er  1 3.950000e-01    2.500000e+00
 TN4dr  C6eh  1 3.950000e-01    2.500000e+00
 TN4dh  C5er  1 3.950000e-01    2.310000e+00
 TN4dr  C5eh  1 3.950000e-01    2.310000e+00
 TN4dh  C4er  1 3.950000e-01    2.310000e+00
 TN4dr  C4eh  1 3.950000e-01    2.310000e+00
 TN4dh  C3er  1 3.950000e-01    2.110000e+00
 TN4dr  C3eh  1 3.950000e-01    2.110000e+00
 TN4dh  C2er  1 3.950000e-01    1.850000e+00
 TN4dr  C2eh  1 3.950000e-01    1.850000e+00
 TN4dh  C1er  1 3.950000e-01    1.670000e+00
 TN4dr  C1eh  1 3.950000e-01    1.670000e+00
 TN4dh  X4er  1 3.950000e-01    2.940000e+00
 TN4dr  X4eh  1 3.950000e-01    2.940000e+00
 TN4dh  X3er  1 3.950000e-01    2.700000e+00
 TN4dr  X3eh  1 3.950000e-01    2.700000e+00
 TN4dh  X2er  1 3.950000e-01    2.310000e+00
 TN4dr  X2eh  1 3.950000e-01    2.310000e+00
 TN4dh  X1er  1 3.950000e-01    2.110000e+00
 TN4dr  X1eh  1 3.950000e-01    2.110000e+00
 TN3dh   C6r  1 3.950000e-01    2.310000e+00
 TN3dr   C6h  1 3.950000e-01    2.310000e+00
 TN3dh   C5r  1 3.950000e-01    2.110000e+00
 TN3dr   C5h  1 3.950000e-01    2.110000e+00
 TN3dh   C4r  1 3.950000e-01    2.110000e+00
 TN3dr   C4h  1 3.950000e-01    2.110000e+00
 TN3dh   C3r  1 3.950000e-01    1.850000e+00
 TN3dr   C3h  1 3.950000e-01    1.850000e+00
 TN3dh   C2r  1 3.950000e-01    1.850000e+00
 TN3dr   C2h  1 3.950000e-01    1.850000e+00
 TN3dh   C1r  1 3.950000e-01    1.670000e+00
 TN3dr   C1h  1 3.950000e-01    1.670000e+00
 TN3dh   X4r  1 3.950000e-01    2.500000e+00
 TN3dr   X4h  1 3.950000e-01    2.500000e+00
 TN3dh   X3r  1 3.950000e-01    2.310000e+00
 TN3dr   X3h  1 3.950000e-01    2.310000e+00
 TN3dh   X2r  1 3.950000e-01    2.110000e+00
 TN3dr   X2h  1 3.950000e-01    2.110000e+00
 TN3dh   X1r  1 3.950000e-01    2.110000e+00
 TN3dr   X1h  1 3.950000e-01    2.110000e+00
 TN3dh  C6vr  1 3.950000e-01    2.110000e+00
 TN3dr  C6vh  1 3.950000e-01    2.110000e+00
 TN3dh  C5vr  1 3.950000e-01    1.850000e+00
 TN3dr  C5vh  1 3.950000e-01    1.850000e+00
 TN3dh  C4vr  1 3.950000e-01    1.850000e+00
 TN3dr  C4vh  1 3.950000e-01    1.850000e+00
 TN3dh  C3vr  1 3.950000e-01    1.670000e+00
 TN3dr  C3vh  1 3.950000e-01    1.670000e+00
 TN3dh  C2vr  1 3.950000e-01    1.670000e+00
 TN3dr  C2vh  1 3.950000e-01    1.670000e+00
 TN3dh  C1vr  1 3.980000e-01    1.450000e+00
 TN3dr  C1vh  1 3.980000e-01    1.450000e+00
 TN3dh  X4vr  1 3.950000e-01    2.310000e+00
 TN3dr  X4vh  1 3.950000e-01    2.310000e+00
 TN3dh  X3vr  1 3.950000e-01    2.110000e+00
 TN3dr  X3vh  1 3.950000e-01    2.110000e+00
 TN3dh  X2vr  1 3.950000e-01    1.850000e+00
 TN3dr  X2vh  1 3.950000e-01    1.850000e+00
 TN3dh  X1vr  1 3.950000e-01    1.850000e+00
 TN3dr  X1vh  1 3.950000e-01    1.850000e+00
 TN3dh  C6er  1 3.950000e-01    2.500000e+00
 TN3dr  C6eh  1 3.950000e-01    2.500000e+00
 TN3dh  C5er  1 3.950000e-01    2.310000e+00
 TN3dr  C5eh  1 3.950000e-01    2.310000e+00
 TN3dh  C4er  1 3.950000e-01    2.310000e+00
 TN3dr  C4eh  1 3.950000e-01    2.310000e+00
 TN3dh  C3er  1 3.950000e-01    2.110000e+00
 TN3dr  C3eh  1 3.950000e-01    2.110000e+00
 TN3dh  C2er  1 3.950000e-01    2.110000e+00
 TN3dr  C2eh  1 3.950000e-01    2.110000e+00
 TN3dh  C1er  1 3.950000e-01    1.850000e+00
 TN3dr  C1eh  1 3.950000e-01    1.850000e+00
 TN3dh  X4er  1 3.950000e-01    2.700000e+00
 TN3dr  X4eh  1 3.950000e-01    2.700000e+00
 TN3dh  X3er  1 3.950000e-01    2.500000e+00
 TN3dr  X3eh  1 3.950000e-01    2.500000e+00
 TN3dh  X2er  1 3.950000e-01    2.310000e+00
 TN3dr  X2eh  1 3.950000e-01    2.310000e+00
 TN3dh  X1er  1 3.950000e-01    2.310000e+00
 TN3dr  X1eh  1 3.950000e-01    2.310000e+00
 TN2dh   C6r  1 3.950000e-01    2.310000e+00
 TN2dr   C6h  1 3.950000e-01    2.310000e+00
 TN2dh   C5r  1 3.950000e-01    2.110000e+00
 TN2dr   C5h  1 3.950000e-01    2.110000e+00
 TN2dh   C4r  1 3.950000e-01    2.110000e+00
 TN2dr   C4h  1 3.950000e-01    2.110000e+00
 TN2dh   C3r  1 3.950000e-01    2.110000e+00
 TN2dr   C3h  1 3.950000e-01    2.110000e+00
 TN2dh   C2r  1 3.950000e-01    1.850000e+00
 TN2dr   C2h  1 3.950000e-01    1.850000e+00
 TN2dh   C1r  1 3.950000e-01    1.670000e+00
 TN2dr   C1h  1 3.950000e-01    1.670000e+00
 TN2dh   X4r  1 3.950000e-01    2.500000e+00
 TN2dr   X4h  1 3.950000e-01    2.500000e+00
 TN2dh   X3r  1 3.950000e-01    2.310000e+00
 TN2dr   X3h  1 3.950000e-01    2.310000e+00
 TN2dh   X2r  1 3.950000e-01    2.110000e+00
 TN2dr   X2h  1 3.950000e-01    2.110000e+00
 TN2dh   X1r  1 3.950000e-01    2.110000e+00
 TN2dr   X1h  1 3.950000e-01    2.110000e+00
 TN2dh  C6vr  1 3.950000e-01    2.110000e+00
 TN2dr  C6vh  1 3.950000e-01    2.110000e+00
 TN2dh  C5vr  1 3.950000e-01    1.850000e+00
 TN2dr  C5vh  1 3.950000e-01    1.850000e+00
 TN2dh  C4vr  1 3.950000e-01    1.850000e+00
 TN2dr  C4vh  1 3.950000e-01    1.850000e+00
 TN2dh  C3vr  1 3.950000e-01    1.850000e+00
 TN2dr  C3vh  1 3.950000e-01    1.850000e+00
 TN2dh  C2vr  1 3.950000e-01    1.670000e+00
 TN2dr  C2vh  1 3.950000e-01    1.670000e+00
 TN2dh  C1vr  1 3.980000e-01    1.450000e+00
 TN2dr  C1vh  1 3.980000e-01    1.450000e+00
 TN2dh  X4vr  1 3.950000e-01    2.310000e+00
 TN2dr  X4vh  1 3.950000e-01    2.310000e+00
 TN2dh  X3vr  1 3.950000e-01    2.110000e+00
 TN2dr  X3vh  1 3.950000e-01    2.110000e+00
 TN2dh  X2vr  1 3.950000e-01    1.850000e+00
 TN2dr  X2vh  1 3.950000e-01    1.850000e+00
 TN2dh  X1vr  1 3.950000e-01    1.850000e+00
 TN2dr  X1vh  1 3.950000e-01    1.850000e+00
 TN2dh  C6er  1 3.950000e-01    2.500000e+00
 TN2dr  C6eh  1 3.950000e-01    2.500000e+00
 TN2dh  C5er  1 3.950000e-01    2.310000e+00
 TN2dr  C5eh  1 3.950000e-01    2.310000e+00
 TN2dh  C4er  1 3.950000e-01    2.310000e+00
 TN2dr  C4eh  1 3.950000e-01    2.310000e+00
 TN2dh  C3er  1 3.950000e-01    2.310000e+00
 TN2dr  C3eh  1 3.950000e-01    2.310000e+00
 TN2dh  C2er  1 3.950000e-01    2.110000e+00
 TN2dr  C2eh  1 3.950000e-01    2.110000e+00
 TN2dh  C1er  1 3.950000e-01    1.850000e+00
 TN2dr  C1eh  1 3.950000e-01    1.850000e+00
 TN2dh  X4er  1 3.950000e-01    2.700000e+00
 TN2dr  X4eh  1 3.950000e-01    2.700000e+00
 TN2dh  X3er  1 3.950000e-01    2.500000e+00
 TN2dr  X3eh  1 3.950000e-01    2.500000e+00
 TN2dh  X2er  1 3.950000e-01    2.310000e+00
 TN2dr  X2eh  1 3.950000e-01    2.310000e+00
 TN2dh  X1er  1 3.950000e-01    2.310000e+00
 TN2dr  X1eh  1 3.950000e-01    2.310000e+00
 TN1dh   C6r  1 3.950000e-01    2.500000e+00
 TN1dr   C6h  1 3.950000e-01    2.500000e+00
 TN1dh   C5r  1 3.950000e-01    2.310000e+00
 TN1dr   C5h  1 3.950000e-01    2.310000e+00
 TN1dh   C4r  1 3.950000e-01    2.310000e+00
 TN1dr   C4h  1 3.950000e-01    2.310000e+00
 TN1dh   C3r  1 3.950000e-01    2.110000e+00
 TN1dr   C3h  1 3.950000e-01    2.110000e+00
 TN1dh   C2r  1 3.950000e-01    1.850000e+00
 TN1dr   C2h  1 3.950000e-01    1.850000e+00
 TN1dh   C1r  1 3.950000e-01    1.670000e+00
 TN1dr   C1h  1 3.950000e-01    1.670000e+00
 TN1dh   X4r  1 3.950000e-01    2.310000e+00
 TN1dr   X4h  1 3.950000e-01    2.310000e+00
 TN1dh   X3r  1 3.950000e-01    2.310000e+00
 TN1dr   X3h  1 3.950000e-01    2.310000e+00
 TN1dh   X2r  1 3.950000e-01    2.110000e+00
 TN1dr   X2h  1 3.950000e-01    2.110000e+00
 TN1dh   X1r  1 3.950000e-01    2.110000e+00
 TN1dr   X1h  1 3.950000e-01    2.110000e+00
 TN1dh  C6vr  1 3.950000e-01    2.310000e+00
 TN1dr  C6vh  1 3.950000e-01    2.310000e+00
 TN1dh  C5vr  1 3.950000e-01    2.110000e+00
 TN1dr  C5vh  1 3.950000e-01    2.110000e+00
 TN1dh  C4vr  1 3.950000e-01    2.110000e+00
 TN1dr  C4vh  1 3.950000e-01    2.110000e+00
 TN1dh  C3vr  1 3.950000e-01    1.850000e+00
 TN1dr  C3vh  1 3.950000e-01    1.850000e+00
 TN1dh  C2vr  1 3.950000e-01    1.670000e+00
 TN1dr  C2vh  1 3.950000e-01    1.670000e+00
 TN1dh  C1vr  1 3.980000e-01    1.450000e+00
 TN1dr  C1vh  1 3.980000e-01    1.450000e+00
 TN1dh  X4vr  1 3.950000e-01    2.110000e+00
 TN1dr  X4vh  1 3.950000e-01    2.110000e+00
 TN1dh  X3vr  1 3.950000e-01    2.110000e+00
 TN1dr  X3vh  1 3.950000e-01    2.110000e+00
 TN1dh  X2vr  1 3.950000e-01    1.850000e+00
 TN1dr  X2vh  1 3.950000e-01    1.850000e+00
 TN1dh  X1vr  1 3.950000e-01    1.850000e+00
 TN1dr  X1vh  1 3.950000e-01    1.850000e+00
 TN1dh  C6er  1 3.950000e-01    2.700000e+00
 TN1dr  C6eh  1 3.950000e-01    2.700000e+00
 TN1dh  C5er  1 3.950000e-01    2.500000e+00
 TN1dr  C5eh  1 3.950000e-01    2.500000e+00
 TN1dh  C4er  1 3.950000e-01    2.500000e+00
 TN1dr  C4eh  1 3.950000e-01    2.500000e+00
 TN1dh  C3er  1 3.950000e-01    2.310000e+00
 TN1dr  C3eh  1 3.950000e-01    2.310000e+00
 TN1dh  C2er  1 3.950000e-01    2.110000e+00
 TN1dr  C2eh  1 3.950000e-01    2.110000e+00
 TN1dh  C1er  1 3.950000e-01    1.850000e+00
 TN1dr  C1eh  1 3.950000e-01    1.850000e+00
 TN1dh  X4er  1 3.950000e-01    2.500000e+00
 TN1dr  X4eh  1 3.950000e-01    2.500000e+00
 TN1dh  X3er  1 3.950000e-01    2.500000e+00
 TN1dr  X3eh  1 3.950000e-01    2.500000e+00
 TN1dh  X2er  1 3.950000e-01    2.310000e+00
 TN1dr  X2eh  1 3.950000e-01    2.310000e+00
 TN1dh  X1er  1 3.950000e-01    2.310000e+00
 TN1dr  X1eh  1 3.950000e-01    2.310000e+00
 TP6ah   C6r  1 3.950000e-01    1.670000e+00
 TP6ar   C6h  1 3.950000e-01    1.670000e+00
 TP6ah   C5r  1 3.980000e-01    1.450000e+00
 TP6ar   C5h  1 3.980000e-01    1.450000e+00
 TP6ah   C4r  1 3.990000e-01    1.180000e+00
 TP6ar   C4h  1 3.990000e-01    1.180000e+00
 TP6ah   C3r  1 4.010000e-01    9.830000e-01
 TP6ar   C3h  1 4.010000e-01    9.830000e-01
 TP6ah   C2r  1 4.010000e-01    9.830000e-01
 TP6ar   C2h  1 4.010000e-01    9.830000e-01
 TP6ah   C1r  1 4.650000e-01    7.030000e-01
 TP6ar   C1h  1 4.650000e-01    7.030000e-01
 TP6ah   X4r  1 3.950000e-01    1.850000e+00
 TP6ar   X4h  1 3.950000e-01    1.850000e+00
 TP6ah   X3r  1 3.950000e-01    1.850000e+00
 TP6ar   X3h  1 3.950000e-01    1.850000e+00
 TP6ah   X2r  1 3.950000e-01    1.670000e+00
 TP6ar   X2h  1 3.950000e-01    1.670000e+00
 TP6ah   X1r  1 3.980000e-01    1.450000e+00
 TP6ar   X1h  1 3.980000e-01    1.450000e+00
 TP6ah  C6vr  1 3.950000e-01    1.850000e+00
 TP6ar  C6vh  1 3.950000e-01    1.850000e+00
 TP6ah  C5vr  1 3.950000e-01    1.670000e+00
 TP6ar  C5vh  1 3.950000e-01    1.670000e+00
 TP6ah  C4vr  1 3.980000e-01    1.450000e+00
 TP6ar  C4vh  1 3.980000e-01    1.450000e+00
 TP6ah  C3vr  1 3.990000e-01    1.180000e+00
 TP6ar  C3vh  1 3.990000e-01    1.180000e+00
 TP6ah  C2vr  1 3.990000e-01    1.180000e+00
 TP6ar  C2vh  1 3.990000e-01    1.180000e+00
 TP6ah  C1vr  1 4.040000e-01    8.300000e-01
 TP6ar  C1vh  1 4.040000e-01    8.300000e-01
 TP6ah  X4vr  1 3.950000e-01    2.110000e+00
 TP6ar  X4vh  1 3.950000e-01    2.110000e+00
 TP6ah  X3vr  1 3.950000e-01    2.110000e+00
 TP6ar  X3vh  1 3.950000e-01    2.110000e+00
 TP6ah  X2vr  1 3.950000e-01    1.850000e+00
 TP6ar  X2vh  1 3.950000e-01    1.850000e+00
 TP6ah  X1vr  1 3.950000e-01    1.670000e+00
 TP6ar  X1vh  1 3.950000e-01    1.670000e+00
 TP6ah  C6er  1 3.980000e-01    1.450000e+00
 TP6ar  C6eh  1 3.980000e-01    1.450000e+00
 TP6ah  C5er  1 3.990000e-01    1.180000e+00
 TP6ar  C5eh  1 3.990000e-01    1.180000e+00
 TP6ah  C4er  1 4.010000e-01    9.830000e-01
 TP6ar  C4eh  1 4.010000e-01    9.830000e-01
 TP6ah  C3er  1 4.040000e-01    8.300000e-01
 TP6ar  C3eh  1 4.040000e-01    8.300000e-01
 TP6ah  C2er  1 4.040000e-01    8.300000e-01
 TP6ar  C2eh  1 4.040000e-01    8.300000e-01
 TP6ah  C1er  1 5.110000e-01    6.590000e-01
 TP6ar  C1eh  1 5.110000e-01    6.590000e-01
 TP6ah  X4er  1 3.950000e-01    1.670000e+00
 TP6ar  X4eh  1 3.950000e-01    1.670000e+00
 TP6ah  X3er  1 3.950000e-01    1.670000e+00
 TP6ar  X3eh  1 3.950000e-01    1.670000e+00
 TP6ah  X2er  1 3.980000e-01    1.450000e+00
 TP6ar  X2eh  1 3.980000e-01    1.450000e+00
 TP6ah  X1er  1 3.990000e-01    1.180000e+00
 TP6ar  X1eh  1 3.990000e-01    1.180000e+00
 TP5ah   C6r  1 3.950000e-01    1.670000e+00
 TP5ar   C6h  1 3.950000e-01    1.670000e+00
 TP5ah   C5r  1 3.950000e-01    1.670000e+00
 TP5ar   C5h  1 3.950000e-01    1.670000e+00
 TP5ah   C4r  1 3.980000e-01    1.450000e+00
 TP5ar   C4h  1 3.980000e-01    1.450000e+00
 TP5ah   C3r  1 3.990000e-01    1.180000e+00
 TP5ar   C3h  1 3.990000e-01    1.180000e+00
 TP5ah   C2r  1 3.990000e-01    1.180000e+00
 TP5ar   C2h  1 3.990000e-01    1.180000e+00
 TP5ah   C1r  1 4.010000e-01    9.830000e-01
 TP5ar   C1h  1 4.010000e-01    9.830000e-01
 TP5ah   X4r  1 3.950000e-01    2.110000e+00
 TP5ar   X4h  1 3.950000e-01    2.110000e+00
 TP5ah   X3r  1 3.950000e-01    1.850000e+00
 TP5ar   X3h  1 3.950000e-01    1.850000e+00
 TP5ah   X2r  1 3.950000e-01    1.850000e+00
 TP5ar   X2h  1 3.950000e-01    1.850000e+00
 TP5ah   X1r  1 3.980000e-01    1.450000e+00
 TP5ar   X1h  1 3.980000e-01    1.450000e+00
 TP5ah  C6vr  1 3.950000e-01    1.850000e+00
 TP5ar  C6vh  1 3.950000e-01    1.850000e+00
 TP5ah  C5vr  1 3.950000e-01    1.850000e+00
 TP5ar  C5vh  1 3.950000e-01    1.850000e+00
 TP5ah  C4vr  1 3.950000e-01    1.670000e+00
 TP5ar  C4vh  1 3.950000e-01    1.670000e+00
 TP5ah  C3vr  1 3.980000e-01    1.450000e+00
 TP5ar  C3vh  1 3.980000e-01    1.450000e+00
 TP5ah  C2vr  1 3.980000e-01    1.450000e+00
 TP5ar  C2vh  1 3.980000e-01    1.450000e+00
 TP5ah  C1vr  1 3.990000e-01    1.180000e+00
 TP5ar  C1vh  1 3.990000e-01    1.180000e+00
 TP5ah  X4vr  1 3.950000e-01    2.310000e+00
 TP5ar  X4vh  1 3.950000e-01    2.310000e+00
 TP5ah  X3vr  1 3.950000e-01    2.110000e+00
 TP5ar  X3vh  1 3.950000e-01    2.110000e+00
 TP5ah  X2vr  1 3.950000e-01    2.110000e+00
 TP5ar  X2vh  1 3.950000e-01    2.110000e+00
 TP5ah  X1vr  1 3.950000e-01    1.670000e+00
 TP5ar  X1vh  1 3.950000e-01    1.670000e+00
 TP5ah  C6er  1 3.980000e-01    1.450000e+00
 TP5ar  C6eh  1 3.980000e-01    1.450000e+00
 TP5ah  C5er  1 3.980000e-01    1.450000e+00
 TP5ar  C5eh  1 3.980000e-01    1.450000e+00
 TP5ah  C4er  1 3.990000e-01    1.180000e+00
 TP5ar  C4eh  1 3.990000e-01    1.180000e+00
 TP5ah  C3er  1 4.010000e-01    9.830000e-01
 TP5ar  C3eh  1 4.010000e-01    9.830000e-01
 TP5ah  C2er  1 4.010000e-01    9.830000e-01
 TP5ar  C2eh  1 4.010000e-01    9.830000e-01
 TP5ah  C1er  1 4.040000e-01    8.300000e-01
 TP5ar  C1eh  1 4.040000e-01    8.300000e-01
 TP5ah  X4er  1 3.950000e-01    1.850000e+00
 TP5ar  X4eh  1 3.950000e-01    1.850000e+00
 TP5ah  X3er  1 3.950000e-01    1.670000e+00
 TP5ar  X3eh  1 3.950000e-01    1.670000e+00
 TP5ah  X2er  1 3.950000e-01    1.670000e+00
 TP5ar  X2eh  1 3.950000e-01    1.670000e+00
 TP5ah  X1er  1 3.990000e-01    1.180000e+00
 TP5ar  X1eh  1 3.990000e-01    1.180000e+00
 TP4ah   C6r  1 3.950000e-01    1.850000e+00
 TP4ar   C6h  1 3.950000e-01    1.850000e+00
 TP4ah   C5r  1 3.950000e-01    1.670000e+00
 TP4ar   C5h  1 3.950000e-01    1.670000e+00
 TP4ah   C4r  1 3.980000e-01    1.450000e+00
 TP4ar   C4h  1 3.980000e-01    1.450000e+00
 TP4ah   C3r  1 3.990000e-01    1.180000e+00
 TP4ar   C3h  1 3.990000e-01    1.180000e+00
 TP4ah   C2r  1 3.990000e-01    1.180000e+00
 TP4ar   C2h  1 3.990000e-01    1.180000e+00
 TP4ah   C1r  1 4.010000e-01    9.830000e-01
 TP4ar   C1h  1 4.010000e-01    9.830000e-01
 TP4ah   X4r  1 3.950000e-01    2.110000e+00
 TP4ar   X4h  1 3.950000e-01    2.110000e+00
 TP4ah   X3r  1 3.950000e-01    1.850000e+00
 TP4ar   X3h  1 3.950000e-01    1.850000e+00
 TP4ah   X2r  1 3.950000e-01    1.850000e+00
 TP4ar   X2h  1 3.950000e-01    1.850000e+00
 TP4ah   X1r  1 3.950000e-01    1.670000e+00
 TP4ar   X1h  1 3.950000e-01    1.670000e+00
 TP4ah  C6vr  1 3.950000e-01    2.110000e+00
 TP4ar  C6vh  1 3.950000e-01    2.110000e+00
 TP4ah  C5vr  1 3.950000e-01    1.850000e+00
 TP4ar  C5vh  1 3.950000e-01    1.850000e+00
 TP4ah  C4vr  1 3.950000e-01    1.670000e+00
 TP4ar  C4vh  1 3.950000e-01    1.670000e+00
 TP4ah  C3vr  1 3.980000e-01    1.450000e+00
 TP4ar  C3vh  1 3.980000e-01    1.450000e+00
 TP4ah  C2vr  1 3.980000e-01    1.450000e+00
 TP4ar  C2vh  1 3.980000e-01    1.450000e+00
 TP4ah  C1vr  1 3.990000e-01    1.180000e+00
 TP4ar  C1vh  1 3.990000e-01    1.180000e+00
 TP4ah  X4vr  1 3.950000e-01    2.310000e+00
 TP4ar  X4vh  1 3.950000e-01    2.310000e+00
 TP4ah  X3vr  1 3.950000e-01    2.110000e+00
 TP4ar  X3vh  1 3.950000e-01    2.110000e+00
 TP4ah  X2vr  1 3.950000e-01    2.110000e+00
 TP4ar  X2vh  1 3.950000e-01    2.110000e+00
 TP4ah  X1vr  1 3.950000e-01    1.850000e+00
 TP4ar  X1vh  1 3.950000e-01    1.850000e+00
 TP4ah  C6er  1 3.950000e-01    1.670000e+00
 TP4ar  C6eh  1 3.950000e-01    1.670000e+00
 TP4ah  C5er  1 3.980000e-01    1.450000e+00
 TP4ar  C5eh  1 3.980000e-01    1.450000e+00
 TP4ah  C4er  1 3.990000e-01    1.180000e+00
 TP4ar  C4eh  1 3.990000e-01    1.180000e+00
 TP4ah  C3er  1 4.010000e-01    9.830000e-01
 TP4ar  C3eh  1 4.010000e-01    9.830000e-01
 TP4ah  C2er  1 4.010000e-01    9.830000e-01
 TP4ar  C2eh  1 4.010000e-01    9.830000e-01
 TP4ah  C1er  1 4.040000e-01    8.300000e-01
 TP4ar  C1eh  1 4.040000e-01    8.300000e-01
 TP4ah  X4er  1 3.950000e-01    1.850000e+00
 TP4ar  X4eh  1 3.950000e-01    1.850000e+00
 TP4ah  X3er  1 3.950000e-01    1.670000e+00
 TP4ar  X3eh  1 3.950000e-01    1.670000e+00
 TP4ah  X2er  1 3.950000e-01    1.670000e+00
 TP4ar  X2eh  1 3.950000e-01    1.670000e+00
 TP4ah  X1er  1 3.980000e-01    1.450000e+00
 TP4ar  X1eh  1 3.980000e-01    1.450000e+00
 TP3ah   C6r  1 3.950000e-01    2.110000e+00
 TP3ar   C6h  1 3.950000e-01    2.110000e+00
 TP3ah   C5r  1 3.950000e-01    1.850000e+00
 TP3ar   C5h  1 3.950000e-01    1.850000e+00
 TP3ah   C4r  1 3.950000e-01    1.670000e+00
 TP3ar   C4h  1 3.950000e-01    1.670000e+00
 TP3ah   C3r  1 3.990000e-01    1.180000e+00
 TP3ar   C3h  1 3.990000e-01    1.180000e+00
 TP3ah   C2r  1 3.990000e-01    1.180000e+00
 TP3ar   C2h  1 3.990000e-01    1.180000e+00
 TP3ah   C1r  1 4.010000e-01    9.830000e-01
 TP3ar   C1h  1 4.010000e-01    9.830000e-01
 TP3ah   X4r  1 3.950000e-01    2.110000e+00
 TP3ar   X4h  1 3.950000e-01    2.110000e+00
 TP3ah   X3r  1 3.950000e-01    2.110000e+00
 TP3ar   X3h  1 3.950000e-01    2.110000e+00
 TP3ah   X2r  1 3.950000e-01    1.850000e+00
 TP3ar   X2h  1 3.950000e-01    1.850000e+00
 TP3ah   X1r  1 3.950000e-01    1.670000e+00
 TP3ar   X1h  1 3.950000e-01    1.670000e+00
 TP3ah  C6vr  1 3.950000e-01    2.310000e+00
 TP3ar  C6vh  1 3.950000e-01    2.310000e+00
 TP3ah  C5vr  1 3.950000e-01    2.110000e+00
 TP3ar  C5vh  1 3.950000e-01    2.110000e+00
 TP3ah  C4vr  1 3.950000e-01    1.850000e+00
 TP3ar  C4vh  1 3.950000e-01    1.850000e+00
 TP3ah  C3vr  1 3.980000e-01    1.450000e+00
 TP3ar  C3vh  1 3.980000e-01    1.450000e+00
 TP3ah  C2vr  1 3.980000e-01    1.450000e+00
 TP3ar  C2vh  1 3.980000e-01    1.450000e+00
 TP3ah  C1vr  1 3.990000e-01    1.180000e+00
 TP3ar  C1vh  1 3.990000e-01    1.180000e+00
 TP3ah  X4vr  1 3.950000e-01    2.310000e+00
 TP3ar  X4vh  1 3.950000e-01    2.310000e+00
 TP3ah  X3vr  1 3.950000e-01    2.310000e+00
 TP3ar  X3vh  1 3.950000e-01    2.310000e+00
 TP3ah  X2vr  1 3.950000e-01    2.110000e+00
 TP3ar  X2vh  1 3.950000e-01    2.110000e+00
 TP3ah  X1vr  1 3.950000e-01    1.850000e+00
 TP3ar  X1vh  1 3.950000e-01    1.850000e+00
 TP3ah  C6er  1 3.950000e-01    1.850000e+00
 TP3ar  C6eh  1 3.950000e-01    1.850000e+00
 TP3ah  C5er  1 3.950000e-01    1.670000e+00
 TP3ar  C5eh  1 3.950000e-01    1.670000e+00
 TP3ah  C4er  1 3.980000e-01    1.450000e+00
 TP3ar  C4eh  1 3.980000e-01    1.450000e+00
 TP3ah  C3er  1 4.010000e-01    9.830000e-01
 TP3ar  C3eh  1 4.010000e-01    9.830000e-01
 TP3ah  C2er  1 4.010000e-01    9.830000e-01
 TP3ar  C2eh  1 4.010000e-01    9.830000e-01
 TP3ah  C1er  1 4.040000e-01    8.300000e-01
 TP3ar  C1eh  1 4.040000e-01    8.300000e-01
 TP3ah  X4er  1 3.950000e-01    1.850000e+00
 TP3ar  X4eh  1 3.950000e-01    1.850000e+00
 TP3ah  X3er  1 3.950000e-01    1.850000e+00
 TP3ar  X3eh  1 3.950000e-01    1.850000e+00
 TP3ah  X2er  1 3.950000e-01    1.670000e+00
 TP3ar  X2eh  1 3.950000e-01    1.670000e+00
 TP3ah  X1er  1 3.980000e-01    1.450000e+00
 TP3ar  X1eh  1 3.980000e-01    1.450000e+00
 TP2ah   C6r  1 3.950000e-01    2.110000e+00
 TP2ar   C6h  1 3.950000e-01    2.110000e+00
 TP2ah   C5r  1 3.950000e-01    1.850000e+00
 TP2ar   C5h  1 3.950000e-01    1.850000e+00
 TP2ah   C4r  1 3.950000e-01    1.670000e+00
 TP2ar   C4h  1 3.950000e-01    1.670000e+00
 TP2ah   C3r  1 3.980000e-01    1.450000e+00
 TP2ar   C3h  1 3.980000e-01    1.450000e+00
 TP2ah   C2r  1 3.980000e-01    1.450000e+00
 TP2ar   C2h  1 3.980000e-01    1.450000e+00
 TP2ah   C1r  1 3.990000e-01    1.180000e+00
 TP2ar   C1h  1 3.990000e-01    1.180000e+00
 TP2ah   X4r  1 3.950000e-01    2.110000e+00
 TP2ar   X4h  1 3.950000e-01    2.110000e+00
 TP2ah   X3r  1 3.950000e-01    2.110000e+00
 TP2ar   X3h  1 3.950000e-01    2.110000e+00
 TP2ah   X2r  1 3.950000e-01    1.850000e+00
 TP2ar   X2h  1 3.950000e-01    1.850000e+00
 TP2ah   X1r  1 3.950000e-01    1.670000e+00
 TP2ar   X1h  1 3.950000e-01    1.670000e+00
 TP2ah  C6vr  1 3.950000e-01    2.310000e+00
 TP2ar  C6vh  1 3.950000e-01    2.310000e+00
 TP2ah  C5vr  1 3.950000e-01    2.110000e+00
 TP2ar  C5vh  1 3.950000e-01    2.110000e+00
 TP2ah  C4vr  1 3.950000e-01    1.850000e+00
 TP2ar  C4vh  1 3.950000e-01    1.850000e+00
 TP2ah  C3vr  1 3.950000e-01    1.670000e+00
 TP2ar  C3vh  1 3.950000e-01    1.670000e+00
 TP2ah  C2vr  1 3.950000e-01    1.670000e+00
 TP2ar  C2vh  1 3.950000e-01    1.670000e+00
 TP2ah  C1vr  1 3.980000e-01    1.450000e+00
 TP2ar  C1vh  1 3.980000e-01    1.450000e+00
 TP2ah  X4vr  1 3.950000e-01    2.310000e+00
 TP2ar  X4vh  1 3.950000e-01    2.310000e+00
 TP2ah  X3vr  1 3.950000e-01    2.310000e+00
 TP2ar  X3vh  1 3.950000e-01    2.310000e+00
 TP2ah  X2vr  1 3.950000e-01    2.110000e+00
 TP2ar  X2vh  1 3.950000e-01    2.110000e+00
 TP2ah  X1vr  1 3.950000e-01    1.850000e+00
 TP2ar  X1vh  1 3.950000e-01    1.850000e+00
 TP2ah  C6er  1 3.950000e-01    1.850000e+00
 TP2ar  C6eh  1 3.950000e-01    1.850000e+00
 TP2ah  C5er  1 3.950000e-01    1.670000e+00
 TP2ar  C5eh  1 3.950000e-01    1.670000e+00
 TP2ah  C4er  1 3.980000e-01    1.450000e+00
 TP2ar  C4eh  1 3.980000e-01    1.450000e+00
 TP2ah  C3er  1 3.990000e-01    1.180000e+00
 TP2ar  C3eh  1 3.990000e-01    1.180000e+00
 TP2ah  C2er  1 3.990000e-01    1.180000e+00
 TP2ar  C2eh  1 3.990000e-01    1.180000e+00
 TP2ah  C1er  1 4.010000e-01    9.830000e-01
 TP2ar  C1eh  1 4.010000e-01    9.830000e-01
 TP2ah  X4er  1 3.950000e-01    1.850000e+00
 TP2ar  X4eh  1 3.950000e-01    1.850000e+00
 TP2ah  X3er  1 3.950000e-01    1.850000e+00
 TP2ar  X3eh  1 3.950000e-01    1.850000e+00
 TP2ah  X2er  1 3.950000e-01    1.670000e+00
 TP2ar  X2eh  1 3.950000e-01    1.670000e+00
 TP2ah  X1er  1 3.980000e-01    1.450000e+00
 TP2ar  X1eh  1 3.980000e-01    1.450000e+00
 TP1ah   C6r  1 3.950000e-01    2.110000e+00
 TP1ar   C6h  1 3.950000e-01    2.110000e+00
 TP1ah   C5r  1 3.950000e-01    1.850000e+00
 TP1ar   C5h  1 3.950000e-01    1.850000e+00
 TP1ah   C4r  1 3.950000e-01    1.670000e+00
 TP1ar   C4h  1 3.950000e-01    1.670000e+00
 TP1ah   C3r  1 3.980000e-01    1.450000e+00
 TP1ar   C3h  1 3.980000e-01    1.450000e+00
 TP1ah   C2r  1 3.980000e-01    1.450000e+00
 TP1ar   C2h  1 3.980000e-01    1.450000e+00
 TP1ah   C1r  1 3.990000e-01    1.180000e+00
 TP1ar   C1h  1 3.990000e-01    1.180000e+00
 TP1ah   X4r  1 3.950000e-01    2.110000e+00
 TP1ar   X4h  1 3.950000e-01    2.110000e+00
 TP1ah   X3r  1 3.950000e-01    2.110000e+00
 TP1ar   X3h  1 3.950000e-01    2.110000e+00
 TP1ah   X2r  1 3.950000e-01    1.850000e+00
 TP1ar   X2h  1 3.950000e-01    1.850000e+00
 TP1ah   X1r  1 3.950000e-01    1.670000e+00
 TP1ar   X1h  1 3.950000e-01    1.670000e+00
 TP1ah  C6vr  1 3.950000e-01    2.310000e+00
 TP1ar  C6vh  1 3.950000e-01    2.310000e+00
 TP1ah  C5vr  1 3.950000e-01    2.110000e+00
 TP1ar  C5vh  1 3.950000e-01    2.110000e+00
 TP1ah  C4vr  1 3.950000e-01    1.850000e+00
 TP1ar  C4vh  1 3.950000e-01    1.850000e+00
 TP1ah  C3vr  1 3.950000e-01    1.670000e+00
 TP1ar  C3vh  1 3.950000e-01    1.670000e+00
 TP1ah  C2vr  1 3.950000e-01    1.670000e+00
 TP1ar  C2vh  1 3.950000e-01    1.670000e+00
 TP1ah  C1vr  1 3.980000e-01    1.450000e+00
 TP1ar  C1vh  1 3.980000e-01    1.450000e+00
 TP1ah  X4vr  1 3.950000e-01    2.310000e+00
 TP1ar  X4vh  1 3.950000e-01    2.310000e+00
 TP1ah  X3vr  1 3.950000e-01    2.310000e+00
 TP1ar  X3vh  1 3.950000e-01    2.310000e+00
 TP1ah  X2vr  1 3.950000e-01    2.110000e+00
 TP1ar  X2vh  1 3.950000e-01    2.110000e+00
 TP1ah  X1vr  1 3.950000e-01    1.850000e+00
 TP1ar  X1vh  1 3.950000e-01    1.850000e+00
 TP1ah  C6er  1 3.950000e-01    1.850000e+00
 TP1ar  C6eh  1 3.950000e-01    1.850000e+00
 TP1ah  C5er  1 3.950000e-01    1.670000e+00
 TP1ar  C5eh  1 3.950000e-01    1.670000e+00
 TP1ah  C4er  1 3.980000e-01    1.450000e+00
 TP1ar  C4eh  1 3.980000e-01    1.450000e+00
 TP1ah  C3er  1 3.990000e-01    1.180000e+00
 TP1ar  C3eh  1 3.990000e-01    1.180000e+00
 TP1ah  C2er  1 3.990000e-01    1.180000e+00
 TP1ar  C2eh  1 3.990000e-01    1.180000e+00
 TP1ah  C1er  1 4.010000e-01    9.830000e-01
 TP1ar  C1eh  1 4.010000e-01    9.830000e-01
 TP1ah  X4er  1 3.950000e-01    1.850000e+00
 TP1ar  X4eh  1 3.950000e-01    1.850000e+00
 TP1ah  X3er  1 3.950000e-01    1.850000e+00
 TP1ar  X3eh  1 3.950000e-01    1.850000e+00
 TP1ah  X2er  1 3.950000e-01    1.670000e+00
 TP1ar  X2eh  1 3.950000e-01    1.670000e+00
 TP1ah  X1er  1 3.980000e-01    1.450000e+00
 TP1ar  X1eh  1 3.980000e-01    1.450000e+00
 TN6ah   C6r  1 3.950000e-01    2.310000e+00
 TN6ar   C6h  1 3.950000e-01    2.310000e+00
 TN6ah   C5r  1 3.950000e-01    2.110000e+00
 TN6ar   C5h  1 3.950000e-01    2.110000e+00
 TN6ah   C4r  1 3.950000e-01    1.850000e+00
 TN6ar   C4h  1 3.950000e-01    1.850000e+00
 TN6ah   C3r  1 3.950000e-01    1.670000e+00
 TN6ar   C3h  1 3.950000e-01    1.670000e+00
 TN6ah   C2r  1 3.950000e-01    1.670000e+00
 TN6ar   C2h  1 3.950000e-01    1.670000e+00
 TN6ah   C1r  1 3.980000e-01    1.450000e+00
 TN6ar   C1h  1 3.980000e-01    1.450000e+00
 TN6ah   X4r  1 3.950000e-01    2.310000e+00
 TN6ar   X4h  1 3.950000e-01    2.310000e+00
 TN6ah   X3r  1 3.950000e-01    2.110000e+00
 TN6ar   X3h  1 3.950000e-01    2.110000e+00
 TN6ah   X2r  1 3.950000e-01    1.850000e+00
 TN6ar   X2h  1 3.950000e-01    1.850000e+00
 TN6ah   X1r  1 3.950000e-01    1.670000e+00
 TN6ar   X1h  1 3.950000e-01    1.670000e+00
 TN6ah  C6vr  1 3.950000e-01    2.500000e+00
 TN6ar  C6vh  1 3.950000e-01    2.500000e+00
 TN6ah  C5vr  1 3.950000e-01    2.310000e+00
 TN6ar  C5vh  1 3.950000e-01    2.310000e+00
 TN6ah  C4vr  1 3.950000e-01    2.110000e+00
 TN6ar  C4vh  1 3.950000e-01    2.110000e+00
 TN6ah  C3vr  1 3.950000e-01    1.850000e+00
 TN6ar  C3vh  1 3.950000e-01    1.850000e+00
 TN6ah  C2vr  1 3.950000e-01    1.850000e+00
 TN6ar  C2vh  1 3.950000e-01    1.850000e+00
 TN6ah  C1vr  1 3.950000e-01    1.670000e+00
 TN6ar  C1vh  1 3.950000e-01    1.670000e+00
 TN6ah  X4vr  1 3.950000e-01    2.500000e+00
 TN6ar  X4vh  1 3.950000e-01    2.500000e+00
 TN6ah  X3vr  1 3.950000e-01    2.310000e+00
 TN6ar  X3vh  1 3.950000e-01    2.310000e+00
 TN6ah  X2vr  1 3.950000e-01    2.110000e+00
 TN6ar  X2vh  1 3.950000e-01    2.110000e+00
 TN6ah  X1vr  1 3.950000e-01    1.850000e+00
 TN6ar  X1vh  1 3.950000e-01    1.850000e+00
 TN6ah  C6er  1 3.950000e-01    2.110000e+00
 TN6ar  C6eh  1 3.950000e-01    2.110000e+00
 TN6ah  C5er  1 3.950000e-01    1.850000e+00
 TN6ar  C5eh  1 3.950000e-01    1.850000e+00
 TN6ah  C4er  1 3.950000e-01    1.670000e+00
 TN6ar  C4eh  1 3.950000e-01    1.670000e+00
 TN6ah  C3er  1 3.980000e-01    1.450000e+00
 TN6ar  C3eh  1 3.980000e-01    1.450000e+00
 TN6ah  C2er  1 3.980000e-01    1.450000e+00
 TN6ar  C2eh  1 3.980000e-01    1.450000e+00
 TN6ah  C1er  1 3.990000e-01    1.180000e+00
 TN6ar  C1eh  1 3.990000e-01    1.180000e+00
 TN6ah  X4er  1 3.950000e-01    2.110000e+00
 TN6ar  X4eh  1 3.950000e-01    2.110000e+00
 TN6ah  X3er  1 3.950000e-01    1.850000e+00
 TN6ar  X3eh  1 3.950000e-01    1.850000e+00
 TN6ah  X2er  1 3.950000e-01    1.670000e+00
 TN6ar  X2eh  1 3.950000e-01    1.670000e+00
 TN6ah  X1er  1 3.980000e-01    1.450000e+00
 TN6ar  X1eh  1 3.980000e-01    1.450000e+00
 TN5ah   C6r  1 3.950000e-01    2.310000e+00
 TN5ar   C6h  1 3.950000e-01    2.310000e+00
 TN5ah   C5r  1 3.950000e-01    2.110000e+00
 TN5ar   C5h  1 3.950000e-01    2.110000e+00
 TN5ah   C4r  1 3.950000e-01    1.850000e+00
 TN5ar   C4h  1 3.950000e-01    1.850000e+00
 TN5ah   C3r  1 3.950000e-01    1.850000e+00
 TN5ar   C3h  1 3.950000e-01    1.850000e+00
 TN5ah   C2r  1 3.950000e-01    1.670000e+00
 TN5ar   C2h  1 3.950000e-01    1.670000e+00
 TN5ah   C1r  1 3.980000e-01    1.450000e+00
 TN5ar   C1h  1 3.980000e-01    1.450000e+00
 TN5ah   X4r  1 3.950000e-01    2.500000e+00
 TN5ar   X4h  1 3.950000e-01    2.500000e+00
 TN5ah   X3r  1 3.950000e-01    2.310000e+00
 TN5ar   X3h  1 3.950000e-01    2.310000e+00
 TN5ah   X2r  1 3.950000e-01    2.110000e+00
 TN5ar   X2h  1 3.950000e-01    2.110000e+00
 TN5ah   X1r  1 3.950000e-01    1.850000e+00
 TN5ar   X1h  1 3.950000e-01    1.850000e+00
 TN5ah  C6vr  1 3.950000e-01    2.500000e+00
 TN5ar  C6vh  1 3.950000e-01    2.500000e+00
 TN5ah  C5vr  1 3.950000e-01    2.310000e+00
 TN5ar  C5vh  1 3.950000e-01    2.310000e+00
 TN5ah  C4vr  1 3.950000e-01    2.110000e+00
 TN5ar  C4vh  1 3.950000e-01    2.110000e+00
 TN5ah  C3vr  1 3.950000e-01    2.110000e+00
 TN5ar  C3vh  1 3.950000e-01    2.110000e+00
 TN5ah  C2vr  1 3.950000e-01    1.850000e+00
 TN5ar  C2vh  1 3.950000e-01    1.850000e+00
 TN5ah  C1vr  1 3.950000e-01    1.670000e+00
 TN5ar  C1vh  1 3.950000e-01    1.670000e+00
 TN5ah  X4vr  1 3.950000e-01    2.700000e+00
 TN5ar  X4vh  1 3.950000e-01    2.700000e+00
 TN5ah  X3vr  1 3.950000e-01    2.500000e+00
 TN5ar  X3vh  1 3.950000e-01    2.500000e+00
 TN5ah  X2vr  1 3.950000e-01    2.310000e+00
 TN5ar  X2vh  1 3.950000e-01    2.310000e+00
 TN5ah  X1vr  1 3.950000e-01    2.110000e+00
 TN5ar  X1vh  1 3.950000e-01    2.110000e+00
 TN5ah  C6er  1 3.950000e-01    2.110000e+00
 TN5ar  C6eh  1 3.950000e-01    2.110000e+00
 TN5ah  C5er  1 3.950000e-01    1.850000e+00
 TN5ar  C5eh  1 3.950000e-01    1.850000e+00
 TN5ah  C4er  1 3.950000e-01    1.670000e+00
 TN5ar  C4eh  1 3.950000e-01    1.670000e+00
 TN5ah  C3er  1 3.950000e-01    1.670000e+00
 TN5ar  C3eh  1 3.950000e-01    1.670000e+00
 TN5ah  C2er  1 3.980000e-01    1.450000e+00
 TN5ar  C2eh  1 3.980000e-01    1.450000e+00
 TN5ah  C1er  1 3.990000e-01    1.180000e+00
 TN5ar  C1eh  1 3.990000e-01    1.180000e+00
 TN5ah  X4er  1 3.950000e-01    2.310000e+00
 TN5ar  X4eh  1 3.950000e-01    2.310000e+00
 TN5ah  X3er  1 3.950000e-01    2.110000e+00
 TN5ar  X3eh  1 3.950000e-01    2.110000e+00
 TN5ah  X2er  1 3.950000e-01    1.850000e+00
 TN5ar  X2eh  1 3.950000e-01    1.850000e+00
 TN5ah  X1er  1 3.950000e-01    1.670000e+00
 TN5ar  X1eh  1 3.950000e-01    1.670000e+00
 TN4ah   C6r  1 3.950000e-01    2.310000e+00
 TN4ar   C6h  1 3.950000e-01    2.310000e+00
 TN4ah   C5r  1 3.950000e-01    2.110000e+00
 TN4ar   C5h  1 3.950000e-01    2.110000e+00
 TN4ah   C4r  1 3.950000e-01    2.110000e+00
 TN4ar   C4h  1 3.950000e-01    2.110000e+00
 TN4ah   C3r  1 3.950000e-01    1.850000e+00
 TN4ar   C3h  1 3.950000e-01    1.850000e+00
 TN4ah   C2r  1 3.950000e-01    1.670000e+00
 TN4ar   C2h  1 3.950000e-01    1.670000e+00
 TN4ah   C1r  1 3.980000e-01    1.450000e+00
 TN4ar   C1h  1 3.980000e-01    1.450000e+00
 TN4ah   X4r  1 3.950000e-01    2.700000e+00
 TN4ar   X4h  1 3.950000e-01    2.700000e+00
 TN4ah   X3r  1 3.950000e-01    2.500000e+00
 TN4ar   X3h  1 3.950000e-01    2.500000e+00
 TN4ah   X2r  1 3.950000e-01    2.110000e+00
 TN4ar   X2h  1 3.950000e-01    2.110000e+00
 TN4ah   X1r  1 3.950000e-01    1.850000e+00
 TN4ar   X1h  1 3.950000e-01    1.850000e+00
 TN4ah  C6vr  1 3.950000e-01    2.500000e+00
 TN4ar  C6vh  1 3.950000e-01    2.500000e+00
 TN4ah  C5vr  1 3.950000e-01    2.310000e+00
 TN4ar  C5vh  1 3.950000e-01    2.310000e+00
 TN4ah  C4vr  1 3.950000e-01    2.310000e+00
 TN4ar  C4vh  1 3.950000e-01    2.310000e+00
 TN4ah  C3vr  1 3.950000e-01    2.110000e+00
 TN4ar  C3vh  1 3.950000e-01    2.110000e+00
 TN4ah  C2vr  1 3.950000e-01    1.850000e+00
 TN4ar  C2vh  1 3.950000e-01    1.850000e+00
 TN4ah  C1vr  1 3.950000e-01    1.670000e+00
 TN4ar  C1vh  1 3.950000e-01    1.670000e+00
 TN4ah  X4vr  1 3.950000e-01    2.940000e+00
 TN4ar  X4vh  1 3.950000e-01    2.940000e+00
 TN4ah  X3vr  1 3.950000e-01    2.700000e+00
 TN4ar  X3vh  1 3.950000e-01    2.700000e+00
 TN4ah  X2vr  1 3.950000e-01    2.310000e+00
 TN4ar  X2vh  1 3.950000e-01    2.310000e+00
 TN4ah  X1vr  1 3.950000e-01    2.110000e+00
 TN4ar  X1vh  1 3.950000e-01    2.110000e+00
 TN4ah  C6er  1 3.950000e-01    2.110000e+00
 TN4ar  C6eh  1 3.950000e-01    2.110000e+00
 TN4ah  C5er  1 3.950000e-01    1.850000e+00
 TN4ar  C5eh  1 3.950000e-01    1.850000e+00
 TN4ah  C4er  1 3.950000e-01    1.850000e+00
 TN4ar  C4eh  1 3.950000e-01    1.850000e+00
 TN4ah  C3er  1 3.950000e-01    1.670000e+00
 TN4ar  C3eh  1 3.950000e-01    1.670000e+00
 TN4ah  C2er  1 3.980000e-01    1.450000e+00
 TN4ar  C2eh  1 3.980000e-01    1.450000e+00
 TN4ah  C1er  1 3.990000e-01    1.180000e+00
 TN4ar  C1eh  1 3.990000e-01    1.180000e+00
 TN4ah  X4er  1 3.950000e-01    2.500000e+00
 TN4ar  X4eh  1 3.950000e-01    2.500000e+00
 TN4ah  X3er  1 3.950000e-01    2.310000e+00
 TN4ar  X3eh  1 3.950000e-01    2.310000e+00
 TN4ah  X2er  1 3.950000e-01    1.850000e+00
 TN4ar  X2eh  1 3.950000e-01    1.850000e+00
 TN4ah  X1er  1 3.950000e-01    1.670000e+00
 TN4ar  X1eh  1 3.950000e-01    1.670000e+00
 TN3ah   C6r  1 3.950000e-01    2.310000e+00
 TN3ar   C6h  1 3.950000e-01    2.310000e+00
 TN3ah   C5r  1 3.950000e-01    2.110000e+00
 TN3ar   C5h  1 3.950000e-01    2.110000e+00
 TN3ah   C4r  1 3.950000e-01    2.110000e+00
 TN3ar   C4h  1 3.950000e-01    2.110000e+00
 TN3ah   C3r  1 3.950000e-01    1.850000e+00
 TN3ar   C3h  1 3.950000e-01    1.850000e+00
 TN3ah   C2r  1 3.950000e-01    1.850000e+00
 TN3ar   C2h  1 3.950000e-01    1.850000e+00
 TN3ah   C1r  1 3.950000e-01    1.670000e+00
 TN3ar   C1h  1 3.950000e-01    1.670000e+00
 TN3ah   X4r  1 3.950000e-01    2.500000e+00
 TN3ar   X4h  1 3.950000e-01    2.500000e+00
 TN3ah   X3r  1 3.950000e-01    2.310000e+00
 TN3ar   X3h  1 3.950000e-01    2.310000e+00
 TN3ah   X2r  1 3.950000e-01    2.110000e+00
 TN3ar   X2h  1 3.950000e-01    2.110000e+00
 TN3ah   X1r  1 3.950000e-01    2.110000e+00
 TN3ar   X1h  1 3.950000e-01    2.110000e+00
 TN3ah  C6vr  1 3.950000e-01    2.500000e+00
 TN3ar  C6vh  1 3.950000e-01    2.500000e+00
 TN3ah  C5vr  1 3.950000e-01    2.310000e+00
 TN3ar  C5vh  1 3.950000e-01    2.310000e+00
 TN3ah  C4vr  1 3.950000e-01    2.310000e+00
 TN3ar  C4vh  1 3.950000e-01    2.310000e+00
 TN3ah  C3vr  1 3.950000e-01    2.110000e+00
 TN3ar  C3vh  1 3.950000e-01    2.110000e+00
 TN3ah  C2vr  1 3.950000e-01    2.110000e+00
 TN3ar  C2vh  1 3.950000e-01    2.110000e+00
 TN3ah  C1vr  1 3.950000e-01    1.850000e+00
 TN3ar  C1vh  1 3.950000e-01    1.850000e+00
 TN3ah  X4vr  1 3.950000e-01    2.700000e+00
 TN3ar  X4vh  1 3.950000e-01    2.700000e+00
 TN3ah  X3vr  1 3.950000e-01    2.500000e+00
 TN3ar  X3vh  1 3.950000e-01    2.500000e+00
 TN3ah  X2vr  1 3.950000e-01    2.310000e+00
 TN3ar  X2vh  1 3.950000e-01    2.310000e+00
 TN3ah  X1vr  1 3.950000e-01    2.310000e+00
 TN3ar  X1vh  1 3.950000e-01    2.310000e+00
 TN3ah  C6er  1 3.950000e-01    2.110000e+00
 TN3ar  C6eh  1 3.950000e-01    2.110000e+00
 TN3ah  C5er  1 3.950000e-01    1.850000e+00
 TN3ar  C5eh  1 3.950000e-01    1.850000e+00
 TN3ah  C4er  1 3.950000e-01    1.850000e+00
 TN3ar  C4eh  1 3.950000e-01    1.850000e+00
 TN3ah  C3er  1 3.950000e-01    1.670000e+00
 TN3ar  C3eh  1 3.950000e-01    1.670000e+00
 TN3ah  C2er  1 3.950000e-01    1.670000e+00
 TN3ar  C2eh  1 3.950000e-01    1.670000e+00
 TN3ah  C1er  1 3.980000e-01    1.450000e+00
 TN3ar  C1eh  1 3.980000e-01    1.450000e+00
 TN3ah  X4er  1 3.950000e-01    2.310000e+00
 TN3ar  X4eh  1 3.950000e-01    2.310000e+00
 TN3ah  X3er  1 3.950000e-01    2.110000e+00
 TN3ar  X3eh  1 3.950000e-01    2.110000e+00
 TN3ah  X2er  1 3.950000e-01    1.850000e+00
 TN3ar  X2eh  1 3.950000e-01    1.850000e+00
 TN3ah  X1er  1 3.950000e-01    1.850000e+00
 TN3ar  X1eh  1 3.950000e-01    1.850000e+00
 TN2ah   C6r  1 3.950000e-01    2.310000e+00
 TN2ar   C6h  1 3.950000e-01    2.310000e+00
 TN2ah   C5r  1 3.950000e-01    2.110000e+00
 TN2ar   C5h  1 3.950000e-01    2.110000e+00
 TN2ah   C4r  1 3.950000e-01    2.110000e+00
 TN2ar   C4h  1 3.950000e-01    2.110000e+00
 TN2ah   C3r  1 3.950000e-01    2.110000e+00
 TN2ar   C3h  1 3.950000e-01    2.110000e+00
 TN2ah   C2r  1 3.950000e-01    1.850000e+00
 TN2ar   C2h  1 3.950000e-01    1.850000e+00
 TN2ah   C1r  1 3.950000e-01    1.670000e+00
 TN2ar   C1h  1 3.950000e-01    1.670000e+00
 TN2ah   X4r  1 3.950000e-01    2.500000e+00
 TN2ar   X4h  1 3.950000e-01    2.500000e+00
 TN2ah   X3r  1 3.950000e-01    2.310000e+00
 TN2ar   X3h  1 3.950000e-01    2.310000e+00
 TN2ah   X2r  1 3.950000e-01    2.110000e+00
 TN2ar   X2h  1 3.950000e-01    2.110000e+00
 TN2ah   X1r  1 3.950000e-01    2.110000e+00
 TN2ar   X1h  1 3.950000e-01    2.110000e+00
 TN2ah  C6vr  1 3.950000e-01    2.500000e+00
 TN2ar  C6vh  1 3.950000e-01    2.500000e+00
 TN2ah  C5vr  1 3.950000e-01    2.310000e+00
 TN2ar  C5vh  1 3.950000e-01    2.310000e+00
 TN2ah  C4vr  1 3.950000e-01    2.310000e+00
 TN2ar  C4vh  1 3.950000e-01    2.310000e+00
 TN2ah  C3vr  1 3.950000e-01    2.310000e+00
 TN2ar  C3vh  1 3.950000e-01    2.310000e+00
 TN2ah  C2vr  1 3.950000e-01    2.110000e+00
 TN2ar  C2vh  1 3.950000e-01    2.110000e+00
 TN2ah  C1vr  1 3.950000e-01    1.850000e+00
 TN2ar  C1vh  1 3.950000e-01    1.850000e+00
 TN2ah  X4vr  1 3.950000e-01    2.700000e+00
 TN2ar  X4vh  1 3.950000e-01    2.700000e+00
 TN2ah  X3vr  1 3.950000e-01    2.500000e+00
 TN2ar  X3vh  1 3.950000e-01    2.500000e+00
 TN2ah  X2vr  1 3.950000e-01    2.310000e+00
 TN2ar  X2vh  1 3.950000e-01    2.310000e+00
 TN2ah  X1vr  1 3.950000e-01    2.310000e+00
 TN2ar  X1vh  1 3.950000e-01    2.310000e+00
 TN2ah  C6er  1 3.950000e-01    2.110000e+00
 TN2ar  C6eh  1 3.950000e-01    2.110000e+00
 TN2ah  C5er  1 3.950000e-01    1.850000e+00
 TN2ar  C5eh  1 3.950000e-01    1.850000e+00
 TN2ah  C4er  1 3.950000e-01    1.850000e+00
 TN2ar  C4eh  1 3.950000e-01    1.850000e+00
 TN2ah  C3er  1 3.950000e-01    1.850000e+00
 TN2ar  C3eh  1 3.950000e-01    1.850000e+00
 TN2ah  C2er  1 3.950000e-01    1.670000e+00
 TN2ar  C2eh  1 3.950000e-01    1.670000e+00
 TN2ah  C1er  1 3.980000e-01    1.450000e+00
 TN2ar  C1eh  1 3.980000e-01    1.450000e+00
 TN2ah  X4er  1 3.950000e-01    2.310000e+00
 TN2ar  X4eh  1 3.950000e-01    2.310000e+00
 TN2ah  X3er  1 3.950000e-01    2.110000e+00
 TN2ar  X3eh  1 3.950000e-01    2.110000e+00
 TN2ah  X2er  1 3.950000e-01    1.850000e+00
 TN2ar  X2eh  1 3.950000e-01    1.850000e+00
 TN2ah  X1er  1 3.950000e-01    1.850000e+00
 TN2ar  X1eh  1 3.950000e-01    1.850000e+00
 TN1ah   C6r  1 3.950000e-01    2.500000e+00
 TN1ar   C6h  1 3.950000e-01    2.500000e+00
 TN1ah   C5r  1 3.950000e-01    2.310000e+00
 TN1ar   C5h  1 3.950000e-01    2.310000e+00
 TN1ah   C4r  1 3.950000e-01    2.310000e+00
 TN1ar   C4h  1 3.950000e-01    2.310000e+00
 TN1ah   C3r  1 3.950000e-01    2.110000e+00
 TN1ar   C3h  1 3.950000e-01    2.110000e+00
 TN1ah   C2r  1 3.950000e-01    1.850000e+00
 TN1ar   C2h  1 3.950000e-01    1.850000e+00
 TN1ah   C1r  1 3.950000e-01    1.670000e+00
 TN1ar   C1h  1 3.950000e-01    1.670000e+00
 TN1ah   X4r  1 3.950000e-01    2.310000e+00
 TN1ar   X4h  1 3.950000e-01    2.310000e+00
 TN1ah   X3r  1 3.950000e-01    2.310000e+00
 TN1ar   X3h  1 3.950000e-01    2.310000e+00
 TN1ah   X2r  1 3.950000e-01    2.110000e+00
 TN1ar   X2h  1 3.950000e-01    2.110000e+00
 TN1ah   X1r  1 3.950000e-01    2.110000e+00
 TN1ar   X1h  1 3.950000e-01    2.110000e+00
 TN1ah  C6vr  1 3.950000e-01    2.700000e+00
 TN1ar  C6vh  1 3.950000e-01    2.700000e+00
 TN1ah  C5vr  1 3.950000e-01    2.500000e+00
 TN1ar  C5vh  1 3.950000e-01    2.500000e+00
 TN1ah  C4vr  1 3.950000e-01    2.500000e+00
 TN1ar  C4vh  1 3.950000e-01    2.500000e+00
 TN1ah  C3vr  1 3.950000e-01    2.310000e+00
 TN1ar  C3vh  1 3.950000e-01    2.310000e+00
 TN1ah  C2vr  1 3.950000e-01    2.110000e+00
 TN1ar  C2vh  1 3.950000e-01    2.110000e+00
 TN1ah  C1vr  1 3.950000e-01    1.850000e+00
 TN1ar  C1vh  1 3.950000e-01    1.850000e+00
 TN1ah  X4vr  1 3.950000e-01    2.500000e+00
 TN1ar  X4vh  1 3.950000e-01    2.500000e+00
 TN1ah  X3vr  1 3.950000e-01    2.500000e+00
 TN1ar  X3vh  1 3.950000e-01    2.500000e+00
 TN1ah  X2vr  1 3.950000e-01    2.310000e+00
 TN1ar  X2vh  1 3.950000e-01    2.310000e+00
 TN1ah  X1vr  1 3.950000e-01    2.310000e+00
 TN1ar  X1vh  1 3.950000e-01    2.310000e+00
 TN1ah  C6er  1 3.950000e-01    2.310000e+00
 TN1ar  C6eh  1 3.950000e-01    2.310000e+00
 TN1ah  C5er  1 3.950000e-01    2.110000e+00
 TN1ar  C5eh  1 3.950000e-01    2.110000e+00
 TN1ah  C4er  1 3.950000e-01    2.110000e+00
 TN1ar  C4eh  1 3.950000e-01    2.110000e+00
 TN1ah  C3er  1 3.950000e-01    1.850000e+00
 TN1ar  C3eh  1 3.950000e-01    1.850000e+00
 TN1ah  C2er  1 3.950000e-01    1.670000e+00
 TN1ar  C2eh  1 3.950000e-01    1.670000e+00
 TN1ah  C1er  1 3.980000e-01    1.450000e+00
 TN1ar  C1eh  1 3.980000e-01    1.450000e+00
 TN1ah  X4er  1 3.950000e-01    2.110000e+00
 TN1ar  X4eh  1 3.950000e-01    2.110000e+00
 TN1ah  X3er  1 3.950000e-01    2.110000e+00
 TN1ar  X3eh  1 3.950000e-01    2.110000e+00
 TN1ah  X2er  1 3.950000e-01    1.850000e+00
 TN1ar  X2eh  1 3.950000e-01    1.850000e+00
 TN1ah  X1er  1 3.950000e-01    1.850000e+00
 TN1ar  X1eh  1 3.950000e-01    1.850000e+00
   P6a   P6a  1 4.700000e-01    4.480000e+00
   P6a   P5a  1 4.700000e-01    4.250000e+00
   P6a   P4a  1 4.700000e-01    4.060000e+00
   P6a   P3a  1 4.700000e-01    3.880000e+00
   P6a   P2a  1 4.700000e-01    3.880000e+00
   P6a   P1a  1 4.700000e-01    3.690000e+00
   P6a   N6a  1 4.700000e-01    3.520000e+00
   P6a   N5a  1 4.700000e-01    3.240000e+00
   P6a   N4a  1 4.700000e-01    3.240000e+00
   P6a   N3a  1 4.700000e-01    3.240000e+00
   P6a   N2a  1 4.700000e-01    3.070000e+00
   P6a   N1a  1 4.700000e-01    2.960000e+00
   P5a   P5a  1 4.700000e-01    4.060000e+00
   P5a   P4a  1 4.700000e-01    3.880000e+00
   P5a   P3a  1 4.700000e-01    3.690000e+00
   P5a   P2a  1 4.700000e-01    3.690000e+00
   P5a   P1a  1 4.700000e-01    3.520000e+00
   P5a   N6a  1 4.700000e-01    3.390000e+00
   P5a   N5a  1 4.700000e-01    3.240000e+00
   P5a   N4a  1 4.700000e-01    3.240000e+00
   P5a   N3a  1 4.700000e-01    3.240000e+00
   P5a   N2a  1 4.700000e-01    3.070000e+00
   P5a   N1a  1 4.700000e-01    2.960000e+00
   P4a   P4a  1 4.700000e-01    3.880000e+00
   P4a   P3a  1 4.700000e-01    3.690000e+00
   P4a   P2a  1 4.700000e-01    3.690000e+00
   P4a   P1a  1 4.700000e-01    3.520000e+00
   P4a   N6a  1 4.700000e-01    3.390000e+00
   P4a   N5a  1 4.700000e-01    3.240000e+00
   P4a   N4a  1 4.700000e-01    3.240000e+00
   P4a   N3a  1 4.700000e-01    3.240000e+00
   P4a   N2a  1 4.700000e-01    3.240000e+00
   P4a   N1a  1 4.700000e-01    3.070000e+00
   P3a   P3a  1 4.700000e-01    3.690000e+00
   P3a   P2a  1 4.700000e-01    3.690000e+00
   P3a   P1a  1 4.700000e-01    3.520000e+00
   P3a   N6a  1 4.700000e-01    3.390000e+00
   P3a   N5a  1 4.700000e-01    3.240000e+00
   P3a   N4a  1 4.700000e-01    3.240000e+00
   P3a   N3a  1 4.700000e-01    3.240000e+00
   P3a   N2a  1 4.700000e-01    3.240000e+00
   P3a   N1a  1 4.700000e-01    3.240000e+00
   P2a   P2a  1 4.700000e-01    3.690000e+00
   P2a   P1a  1 4.700000e-01    3.520000e+00
   P2a   N6a  1 4.700000e-01    3.520000e+00
   P2a   N5a  1 4.700000e-01    3.390000e+00
   P2a   N4a  1 4.700000e-01    3.240000e+00
   P2a   N3a  1 4.700000e-01    3.240000e+00
   P2a   N2a  1 4.700000e-01    3.240000e+00
   P2a   N1a  1 4.700000e-01    3.240000e+00
   P1a   P1a  1 4.700000e-01    3.520000e+00
   P1a   N6a  1 4.700000e-01    3.520000e+00
   P1a   N5a  1 4.700000e-01    3.390000e+00
   P1a   N4a  1 4.700000e-01    3.390000e+00
   P1a   N3a  1 4.700000e-01    3.240000e+00
   P1a   N2a  1 4.700000e-01    3.240000e+00
   P1a   N1a  1 4.700000e-01    3.240000e+00
   N6a   N6a  1 4.700000e-01    3.520000e+00
   N6a   N5a  1 4.700000e-01    3.520000e+00
   N6a   N4a  1 4.700000e-01    3.520000e+00
   N6a   N3a  1 4.700000e-01    3.240000e+00
   N6a   N2a  1 4.700000e-01    3.240000e+00
   N6a   N1a  1 4.700000e-01    3.240000e+00
   N5a   N5a  1 4.700000e-01    3.390000e+00
   N5a   N4a  1 4.700000e-01    3.390000e+00
   N5a   N3a  1 4.700000e-01    3.240000e+00
   N5a   N2a  1 4.700000e-01    3.240000e+00
   N5a   N1a  1 4.700000e-01    3.240000e+00
   N4a   N4a  1 4.700000e-01    3.390000e+00
   N4a   N3a  1 4.700000e-01    3.240000e+00
   N4a   N2a  1 4.700000e-01    3.240000e+00
   N4a   N1a  1 4.700000e-01    3.240000e+00
   N3a   N3a  1 4.700000e-01    3.240000e+00
   N3a   N2a  1 4.700000e-01    3.240000e+00
   N3a   N1a  1 4.700000e-01    3.240000e+00
   N2a   N2a  1 4.700000e-01    3.240000e+00
   N2a   N1a  1 4.700000e-01    3.240000e+00
   N1a   N1a  1 4.700000e-01    3.240000e+00
   P6a  P6aq  1 4.700000e-01    4.990000e+00
   P5a  P5aq  1 4.700000e-01    4.480000e+00
   P4a  P4aq  1 4.700000e-01    4.250000e+00
   P3a  P3aq  1 4.700000e-01    4.060000e+00
   P2a  P2aq  1 4.700000e-01    4.060000e+00
   P1a  P1aq  1 4.700000e-01    3.880000e+00
   N6a  N6aq  1 4.700000e-01    3.880000e+00
   N5a  N5aq  1 4.700000e-01    3.690000e+00
   N4a  N4aq  1 4.700000e-01    3.690000e+00
   N3a  N3aq  1 4.700000e-01    3.520000e+00
   N2a  N2aq  1 4.700000e-01    3.520000e+00
   N1a  N1aq  1 4.700000e-01    3.520000e+00
   P6a  N1aq  1 4.700000e-01    3.240000e+00
   P5a  N1aq  1 4.700000e-01    3.240000e+00
   P4a  N1aq  1 4.700000e-01    3.240000e+00
   P3a  N1aq  1 4.700000e-01    3.390000e+00
   P2a  N1aq  1 4.700000e-01    3.390000e+00
   P1a  N1aq  1 4.700000e-01    3.390000e+00
   N6a  N1aq  1 4.700000e-01    3.390000e+00
   N5a  N1aq  1 4.700000e-01    3.390000e+00
   N4a  N1aq  1 4.700000e-01    3.390000e+00
   N3a  N1aq  1 4.700000e-01    3.390000e+00
   N2a  N1aq  1 4.700000e-01    3.390000e+00
   P6a  N2aq  1 4.700000e-01    3.240000e+00
   P5a  N2aq  1 4.700000e-01    3.240000e+00
   P4a  N2aq  1 4.700000e-01    3.390000e+00
   P3a  N2aq  1 4.700000e-01    3.390000e+00
   P2a  N2aq  1 4.700000e-01    3.390000e+00
   P1a  N2aq  1 4.700000e-01    3.390000e+00
   N6a  N2aq  1 4.700000e-01    3.390000e+00
   N5a  N2aq  1 4.700000e-01    3.520000e+00
   N4a  N2aq  1 4.700000e-01    3.520000e+00
   N3a  N2aq  1 4.700000e-01    3.520000e+00
   P6a  N3aq  1 4.700000e-01    3.390000e+00
   P5a  N3aq  1 4.700000e-01    3.390000e+00
   P4a  N3aq  1 4.700000e-01    3.390000e+00
   P3a  N3aq  1 4.700000e-01    3.390000e+00
   P2a  N3aq  1 4.700000e-01    3.390000e+00
   P1a  N3aq  1 4.700000e-01    3.390000e+00
   N6a  N3aq  1 4.700000e-01    3.520000e+00
   N5a  N3aq  1 4.700000e-01    3.520000e+00
   N4a  N3aq  1 4.700000e-01    3.520000e+00
   P6a  N4aq  1 4.700000e-01    3.390000e+00
   P5a  N4aq  1 4.700000e-01    3.520000e+00
   P4a  N4aq  1 4.700000e-01    3.520000e+00
   P3a  N4aq  1 4.700000e-01    3.520000e+00
   P2a  N4aq  1 4.700000e-01    3.520000e+00
   P1a  N4aq  1 4.700000e-01    3.690000e+00
   N6a  N4aq  1 4.700000e-01    3.880000e+00
   N5a  N4aq  1 4.700000e-01    3.690000e+00
   P6a  N5aq  1 4.700000e-01    3.520000e+00
   P5a  N5aq  1 4.700000e-01    3.520000e+00
   P4a  N5aq  1 4.700000e-01    3.520000e+00
   P3a  N5aq  1 4.700000e-01    3.520000e+00
   P2a  N5aq  1 4.700000e-01    3.690000e+00
   P1a  N5aq  1 4.700000e-01    3.690000e+00
   N6a  N5aq  1 4.700000e-01    3.880000e+00
   P6a  N6aq  1 4.700000e-01    3.880000e+00
   P5a  N6aq  1 4.700000e-01    3.690000e+00
   P4a  N6aq  1 4.700000e-01    3.690000e+00
   P3a  N6aq  1 4.700000e-01    3.690000e+00
   P2a  N6aq  1 4.700000e-01    3.880000e+00
   P1a  N6aq  1 4.700000e-01    3.880000e+00
   P6a  P1aq  1 4.700000e-01    4.060000e+00
   P5a  P1aq  1 4.700000e-01    3.880000e+00
   P4a  P1aq  1 4.700000e-01    3.880000e+00
   P3a  P1aq  1 4.700000e-01    3.880000e+00
   P2a  P1aq  1 4.700000e-01    3.880000e+00
   P6a  P2aq  1 4.700000e-01    4.250000e+00
   P5a  P2aq  1 4.700000e-01    4.060000e+00
   P4a  P2aq  1 4.700000e-01    4.060000e+00
   P3a  P2aq  1 4.700000e-01    4.060000e+00
   P6a  P3aq  1 4.700000e-01    4.250000e+00
   P5a  P3aq  1 4.700000e-01    4.060000e+00
   P4a  P3aq  1 4.700000e-01    4.060000e+00
   P6a  P4aq  1 4.700000e-01    4.480000e+00
   P5a  P4aq  1 4.700000e-01    4.250000e+00
   P6a  P5aq  1 4.700000e-01    4.730000e+00
   P6a  P6ah  1 4.700000e-01    4.480000e+00
   P5a  P5ah  1 4.700000e-01    4.060000e+00
   P4a  P4ah  1 4.700000e-01    3.880000e+00
   P3a  P3ah  1 4.700000e-01    3.690000e+00
   P2a  P2ah  1 4.700000e-01    3.690000e+00
   P1a  P1ah  1 4.700000e-01    3.520000e+00
   N6a  N6ah  1 4.700000e-01    3.520000e+00
   N5a  N5ah  1 4.700000e-01    3.390000e+00
   N4a  N4ah  1 4.700000e-01    3.390000e+00
   N3a  N3ah  1 4.700000e-01    3.240000e+00
   N2a  N2ah  1 4.700000e-01    3.240000e+00
   N1a  N1ah  1 4.700000e-01    3.240000e+00
   P6a  N1ah  1 4.700000e-01    2.960000e+00
   P5a  N1ah  1 4.700000e-01    2.960000e+00
   P4a  N1ah  1 4.700000e-01    3.070000e+00
   P3a  N1ah  1 4.700000e-01    3.240000e+00
   P2a  N1ah  1 4.700000e-01    3.240000e+00
   P1a  N1ah  1 4.700000e-01    3.240000e+00
   N6a  N1ah  1 4.700000e-01    3.240000e+00
   N5a  N1ah  1 4.700000e-01    3.240000e+00
   N4a  N1ah  1 4.700000e-01    3.240000e+00
   N3a  N1ah  1 4.700000e-01    3.240000e+00
   N2a  N1ah  1 4.700000e-01    3.240000e+00
   P6a  N2ah  1 4.700000e-01    3.070000e+00
   P5a  N2ah  1 4.700000e-01    3.070000e+00
   P4a  N2ah  1 4.700000e-01    3.240000e+00
   P3a  N2ah  1 4.700000e-01    3.240000e+00
   P2a  N2ah  1 4.700000e-01    3.240000e+00
   P1a  N2ah  1 4.700000e-01    3.240000e+00
   N6a  N2ah  1 4.700000e-01    3.240000e+00
   N5a  N2ah  1 4.700000e-01    3.240000e+00
   N4a  N2ah  1 4.700000e-01    3.240000e+00
   N3a  N2ah  1 4.700000e-01    3.240000e+00
   P6a  N3ah  1 4.700000e-01    3.240000e+00
   P5a  N3ah  1 4.700000e-01    3.240000e+00
   P4a  N3ah  1 4.700000e-01    3.240000e+00
   P3a  N3ah  1 4.700000e-01    3.240000e+00
   P2a  N3ah  1 4.700000e-01    3.240000e+00
   P1a  N3ah  1 4.700000e-01    3.240000e+00
   N6a  N3ah  1 4.700000e-01    3.240000e+00
   N5a  N3ah  1 4.700000e-01    3.240000e+00
   N4a  N3ah  1 4.700000e-01    3.240000e+00
   P6a  N4ah  1 4.700000e-01    3.240000e+00
   P5a  N4ah  1 4.700000e-01    3.240000e+00
   P4a  N4ah  1 4.700000e-01    3.240000e+00
   P3a  N4ah  1 4.700000e-01    3.240000e+00
   P2a  N4ah  1 4.700000e-01    3.240000e+00
   P1a  N4ah  1 4.700000e-01    3.390000e+00
   N6a  N4ah  1 4.700000e-01    3.520000e+00
   N5a  N4ah  1 4.700000e-01    3.390000e+00
   P6a  N5ah  1 4.700000e-01    3.240000e+00
   P5a  N5ah  1 4.700000e-01    3.240000e+00
   P4a  N5ah  1 4.700000e-01    3.240000e+00
   P3a  N5ah  1 4.700000e-01    3.240000e+00
   P2a  N5ah  1 4.700000e-01    3.390000e+00
   P1a  N5ah  1 4.700000e-01    3.390000e+00
   N6a  N5ah  1 4.700000e-01    3.520000e+00
   P6a  N6ah  1 4.700000e-01    3.520000e+00
   P5a  N6ah  1 4.700000e-01    3.390000e+00
   P4a  N6ah  1 4.700000e-01    3.390000e+00
   P3a  N6ah  1 4.700000e-01    3.390000e+00
   P2a  N6ah  1 4.700000e-01    3.520000e+00
   P1a  N6ah  1 4.700000e-01    3.520000e+00
   P6a  P1ah  1 4.700000e-01    3.690000e+00
   P5a  P1ah  1 4.700000e-01    3.520000e+00
   P4a  P1ah  1 4.700000e-01    3.520000e+00
   P3a  P1ah  1 4.700000e-01    3.520000e+00
   P2a  P1ah  1 4.700000e-01    3.520000e+00
   P6a  P2ah  1 4.700000e-01    3.880000e+00
   P5a  P2ah  1 4.700000e-01    3.690000e+00
   P4a  P2ah  1 4.700000e-01    3.690000e+00
   P3a  P2ah  1 4.700000e-01    3.690000e+00
   P6a  P3ah  1 4.700000e-01    3.880000e+00
   P5a  P3ah  1 4.700000e-01    3.690000e+00
   P4a  P3ah  1 4.700000e-01    3.690000e+00
   P6a  P4ah  1 4.700000e-01    4.060000e+00
   P5a  P4ah  1 4.700000e-01    3.880000e+00
   P6a  P5ah  1 4.700000e-01    4.250000e+00
   P6a  P6ar  1 4.700000e-01    4.480000e+00
   P5a  P5ar  1 4.700000e-01    4.060000e+00
   P4a  P4ar  1 4.700000e-01    3.880000e+00
   P3a  P3ar  1 4.700000e-01    3.690000e+00
   P2a  P2ar  1 4.700000e-01    3.690000e+00
   P1a  P1ar  1 4.700000e-01    3.520000e+00
   N6a  N6ar  1 4.700000e-01    3.520000e+00
   N5a  N5ar  1 4.700000e-01    3.390000e+00
   N4a  N4ar  1 4.700000e-01    3.390000e+00
   N3a  N3ar  1 4.700000e-01    3.240000e+00
   N2a  N2ar  1 4.700000e-01    3.240000e+00
   N1a  N1ar  1 4.700000e-01    3.240000e+00
   P6a  N1ar  1 4.700000e-01    2.960000e+00
   P5a  N1ar  1 4.700000e-01    2.960000e+00
   P4a  N1ar  1 4.700000e-01    3.070000e+00
   P3a  N1ar  1 4.700000e-01    3.240000e+00
   P2a  N1ar  1 4.700000e-01    3.240000e+00
   P1a  N1ar  1 4.700000e-01    3.240000e+00
   N6a  N1ar  1 4.700000e-01    3.240000e+00
   N5a  N1ar  1 4.700000e-01    3.240000e+00
   N4a  N1ar  1 4.700000e-01    3.240000e+00
   N3a  N1ar  1 4.700000e-01    3.240000e+00
   N2a  N1ar  1 4.700000e-01    3.240000e+00
   P6a  N2ar  1 4.700000e-01    3.070000e+00
   P5a  N2ar  1 4.700000e-01    3.070000e+00
   P4a  N2ar  1 4.700000e-01    3.240000e+00
   P3a  N2ar  1 4.700000e-01    3.240000e+00
   P2a  N2ar  1 4.700000e-01    3.240000e+00
   P1a  N2ar  1 4.700000e-01    3.240000e+00
   N6a  N2ar  1 4.700000e-01    3.240000e+00
   N5a  N2ar  1 4.700000e-01    3.240000e+00
   N4a  N2ar  1 4.700000e-01    3.240000e+00
   N3a  N2ar  1 4.700000e-01    3.240000e+00
   P6a  N3ar  1 4.700000e-01    3.240000e+00
   P5a  N3ar  1 4.700000e-01    3.240000e+00
   P4a  N3ar  1 4.700000e-01    3.240000e+00
   P3a  N3ar  1 4.700000e-01    3.240000e+00
   P2a  N3ar  1 4.700000e-01    3.240000e+00
   P1a  N3ar  1 4.700000e-01    3.240000e+00
   N6a  N3ar  1 4.700000e-01    3.240000e+00
   N5a  N3ar  1 4.700000e-01    3.240000e+00
   N4a  N3ar  1 4.700000e-01    3.240000e+00
   P6a  N4ar  1 4.700000e-01    3.240000e+00
   P5a  N4ar  1 4.700000e-01    3.240000e+00
   P4a  N4ar  1 4.700000e-01    3.240000e+00
   P3a  N4ar  1 4.700000e-01    3.240000e+00
   P2a  N4ar  1 4.700000e-01    3.240000e+00
   P1a  N4ar  1 4.700000e-01    3.390000e+00
   N6a  N4ar  1 4.700000e-01    3.520000e+00
   N5a  N4ar  1 4.700000e-01    3.390000e+00
   P6a  N5ar  1 4.700000e-01    3.240000e+00
   P5a  N5ar  1 4.700000e-01    3.240000e+00
   P4a  N5ar  1 4.700000e-01    3.240000e+00
   P3a  N5ar  1 4.700000e-01    3.240000e+00
   P2a  N5ar  1 4.700000e-01    3.390000e+00
   P1a  N5ar  1 4.700000e-01    3.390000e+00
   N6a  N5ar  1 4.700000e-01    3.520000e+00
   P6a  N6ar  1 4.700000e-01    3.520000e+00
   P5a  N6ar  1 4.700000e-01    3.390000e+00
   P4a  N6ar  1 4.700000e-01    3.390000e+00
   P3a  N6ar  1 4.700000e-01    3.390000e+00
   P2a  N6ar  1 4.700000e-01    3.520000e+00
   P1a  N6ar  1 4.700000e-01    3.520000e+00
   P6a  P1ar  1 4.700000e-01    3.690000e+00
   P5a  P1ar  1 4.700000e-01    3.520000e+00
   P4a  P1ar  1 4.700000e-01    3.520000e+00
   P3a  P1ar  1 4.700000e-01    3.520000e+00
   P2a  P1ar  1 4.700000e-01    3.520000e+00
   P6a  P2ar  1 4.700000e-01    3.880000e+00
   P5a  P2ar  1 4.700000e-01    3.690000e+00
   P4a  P2ar  1 4.700000e-01    3.690000e+00
   P3a  P2ar  1 4.700000e-01    3.690000e+00
   P6a  P3ar  1 4.700000e-01    3.880000e+00
   P5a  P3ar  1 4.700000e-01    3.690000e+00
   P4a  P3ar  1 4.700000e-01    3.690000e+00
   P6a  P4ar  1 4.700000e-01    4.060000e+00
   P5a  P4ar  1 4.700000e-01    3.880000e+00
   P6a  P5ar  1 4.700000e-01    4.250000e+00
  P6aq   P5a  1 4.700000e-01    4.730000e+00
  P6aq   P4a  1 4.700000e-01    4.480000e+00
  P6aq   P3a  1 4.700000e-01    4.250000e+00
  P6aq   P2a  1 4.700000e-01    4.250000e+00
  P6aq   P1a  1 4.700000e-01    4.060000e+00
  P6aq   N6a  1 4.700000e-01    3.880000e+00
  P6aq   N5a  1 4.700000e-01    3.520000e+00
  P6aq   N4a  1 4.700000e-01    3.390000e+00
  P6aq   N3a  1 4.700000e-01    3.390000e+00
  P6aq   N2a  1 4.700000e-01    3.240000e+00
  P6aq   N1a  1 4.700000e-01    3.240000e+00
  P5aq   P4a  1 4.700000e-01    4.250000e+00
  P5aq   P3a  1 4.700000e-01    4.060000e+00
  P5aq   P2a  1 4.700000e-01    4.060000e+00
  P5aq   P1a  1 4.700000e-01    3.880000e+00
  P5aq   N6a  1 4.700000e-01    3.690000e+00
  P5aq   N5a  1 4.700000e-01    3.520000e+00
  P5aq   N4a  1 4.700000e-01    3.520000e+00
  P5aq   N3a  1 4.700000e-01    3.390000e+00
  P5aq   N2a  1 4.700000e-01    3.240000e+00
  P5aq   N1a  1 4.700000e-01    3.240000e+00
  P4aq   P3a  1 4.700000e-01    4.060000e+00
  P4aq   P2a  1 4.700000e-01    4.060000e+00
  P4aq   P1a  1 4.700000e-01    3.880000e+00
  P4aq   N6a  1 4.700000e-01    3.690000e+00
  P4aq   N5a  1 4.700000e-01    3.520000e+00
  P4aq   N4a  1 4.700000e-01    3.520000e+00
  P4aq   N3a  1 4.700000e-01    3.390000e+00
  P4aq   N2a  1 4.700000e-01    3.390000e+00
  P4aq   N1a  1 4.700000e-01    3.240000e+00
  P3aq   P2a  1 4.700000e-01    4.060000e+00
  P3aq   P1a  1 4.700000e-01    3.880000e+00
  P3aq   N6a  1 4.700000e-01    3.690000e+00
  P3aq   N5a  1 4.700000e-01    3.520000e+00
  P3aq   N4a  1 4.700000e-01    3.520000e+00
  P3aq   N3a  1 4.700000e-01    3.390000e+00
  P3aq   N2a  1 4.700000e-01    3.390000e+00
  P3aq   N1a  1 4.700000e-01    3.390000e+00
  P2aq   P1a  1 4.700000e-01    3.880000e+00
  P2aq   N6a  1 4.700000e-01    3.880000e+00
  P2aq   N5a  1 4.700000e-01    3.690000e+00
  P2aq   N4a  1 4.700000e-01    3.520000e+00
  P2aq   N3a  1 4.700000e-01    3.390000e+00
  P2aq   N2a  1 4.700000e-01    3.390000e+00
  P2aq   N1a  1 4.700000e-01    3.390000e+00
  P1aq   N6a  1 4.700000e-01    3.880000e+00
  P1aq   N5a  1 4.700000e-01    3.690000e+00
  P1aq   N4a  1 4.700000e-01    3.690000e+00
  P1aq   N3a  1 4.700000e-01    3.390000e+00
  P1aq   N2a  1 4.700000e-01    3.390000e+00
  P1aq   N1a  1 4.700000e-01    3.390000e+00
  N6aq   N5a  1 4.700000e-01    3.880000e+00
  N6aq   N4a  1 4.700000e-01    3.880000e+00
  N6aq   N3a  1 4.700000e-01    3.520000e+00
  N6aq   N2a  1 4.700000e-01    3.390000e+00
  N6aq   N1a  1 4.700000e-01    3.390000e+00
  N5aq   N4a  1 4.700000e-01    3.690000e+00
  N5aq   N3a  1 4.700000e-01    3.520000e+00
  N5aq   N2a  1 4.700000e-01    3.520000e+00
  N5aq   N1a  1 4.700000e-01    3.390000e+00
  N4aq   N3a  1 4.700000e-01    3.520000e+00
  N4aq   N2a  1 4.700000e-01    3.520000e+00
  N4aq   N1a  1 4.700000e-01    3.390000e+00
  N3aq   N2a  1 4.700000e-01    3.520000e+00
  N3aq   N1a  1 4.700000e-01    3.390000e+00
  N2aq   N1a  1 4.700000e-01    3.390000e+00
  P6aq  P6aq  1 4.700000e-01    4.990000e+00
  P6aq  P5aq  1 4.700000e-01    4.730000e+00
  P6aq  P4aq  1 4.700000e-01    4.480000e+00
  P6aq  P3aq  1 4.700000e-01    4.250000e+00
  P6aq  P2aq  1 4.700000e-01    4.250000e+00
  P6aq  P1aq  1 4.700000e-01    4.060000e+00
  P6aq  N6aq  1 4.700000e-01    3.880000e+00
  P6aq  N5aq  1 4.700000e-01    3.520000e+00
  P6aq  N4aq  1 4.700000e-01    3.390000e+00
  P6aq  N3aq  1 4.700000e-01    3.390000e+00
  P6aq  N2aq  1 4.700000e-01    3.240000e+00
  P6aq  N1aq  1 4.700000e-01    3.240000e+00
  P5aq  P5aq  1 4.700000e-01    4.480000e+00
  P5aq  P4aq  1 4.700000e-01    4.250000e+00
  P5aq  P3aq  1 4.700000e-01    4.060000e+00
  P5aq  P2aq  1 4.700000e-01    4.060000e+00
  P5aq  P1aq  1 4.700000e-01    3.880000e+00
  P5aq  N6aq  1 4.700000e-01    3.690000e+00
  P5aq  N5aq  1 4.700000e-01    3.520000e+00
  P5aq  N4aq  1 4.700000e-01    3.520000e+00
  P5aq  N3aq  1 4.700000e-01    3.390000e+00
  P5aq  N2aq  1 4.700000e-01    3.240000e+00
  P5aq  N1aq  1 4.700000e-01    3.240000e+00
  P4aq  P4aq  1 4.700000e-01    4.250000e+00
  P4aq  P3aq  1 4.700000e-01    4.060000e+00
  P4aq  P2aq  1 4.700000e-01    4.060000e+00
  P4aq  P1aq  1 4.700000e-01    3.880000e+00
  P4aq  N6aq  1 4.700000e-01    3.690000e+00
  P4aq  N5aq  1 4.700000e-01    3.520000e+00
  P4aq  N4aq  1 4.700000e-01    3.520000e+00
  P4aq  N3aq  1 4.700000e-01    3.390000e+00
  P4aq  N2aq  1 4.700000e-01    3.390000e+00
  P4aq  N1aq  1 4.700000e-01    3.240000e+00
  P3aq  P3aq  1 4.700000e-01    4.060000e+00
  P3aq  P2aq  1 4.700000e-01    4.060000e+00
  P3aq  P1aq  1 4.700000e-01    3.880000e+00
  P3aq  N6aq  1 4.700000e-01    3.690000e+00
  P3aq  N5aq  1 4.700000e-01    3.520000e+00
  P3aq  N4aq  1 4.700000e-01    3.520000e+00
  P3aq  N3aq  1 4.700000e-01    3.390000e+00
  P3aq  N2aq  1 4.700000e-01    3.390000e+00
  P3aq  N1aq  1 4.700000e-01    3.390000e+00
  P2aq  P2aq  1 4.700000e-01    4.060000e+00
  P2aq  P1aq  1 4.700000e-01    3.880000e+00
  P2aq  N6aq  1 4.700000e-01    3.880000e+00
  P2aq  N5aq  1 4.700000e-01    3.690000e+00
  P2aq  N4aq  1 4.700000e-01    3.520000e+00
  P2aq  N3aq  1 4.700000e-01    3.390000e+00
  P2aq  N2aq  1 4.700000e-01    3.390000e+00
  P2aq  N1aq  1 4.700000e-01    3.390000e+00
  P1aq  P1aq  1 4.700000e-01    3.880000e+00
  P1aq  N6aq  1 4.700000e-01    3.880000e+00
  P1aq  N5aq  1 4.700000e-01    3.690000e+00
  P1aq  N4aq  1 4.700000e-01    3.690000e+00
  P1aq  N3aq  1 4.700000e-01    3.390000e+00
  P1aq  N2aq  1 4.700000e-01    3.390000e+00
  P1aq  N1aq  1 4.700000e-01    3.390000e+00
  N6aq  N6aq  1 4.700000e-01    3.880000e+00
  N6aq  N5aq  1 4.700000e-01    3.880000e+00
  N6aq  N4aq  1 4.700000e-01    3.880000e+00
  N6aq  N3aq  1 4.700000e-01    3.520000e+00
  N6aq  N2aq  1 4.700000e-01    3.390000e+00
  N6aq  N1aq  1 4.700000e-01    3.390000e+00
  N5aq  N5aq  1 4.700000e-01    3.690000e+00
  N5aq  N4aq  1 4.700000e-01    3.690000e+00
  N5aq  N3aq  1 4.700000e-01    3.520000e+00
  N5aq  N2aq  1 4.700000e-01    3.520000e+00
  N5aq  N1aq  1 4.700000e-01    3.390000e+00
  N4aq  N4aq  1 4.700000e-01    3.690000e+00
  N4aq  N3aq  1 4.700000e-01    3.520000e+00
  N4aq  N2aq  1 4.700000e-01    3.520000e+00
  N4aq  N1aq  1 4.700000e-01    3.390000e+00
  N3aq  N3aq  1 4.700000e-01    3.520000e+00
  N3aq  N2aq  1 4.700000e-01    3.520000e+00
  N3aq  N1aq  1 4.700000e-01    3.390000e+00
  N2aq  N2aq  1 4.700000e-01    3.520000e+00
  N2aq  N1aq  1 4.700000e-01    3.390000e+00
  N1aq  N1aq  1 4.700000e-01    3.520000e+00
  P6aq  P5ah  1 4.700000e-01    4.730000e+00
  P6aq  P4ah  1 4.700000e-01    4.480000e+00
  P5aq  P4ah  1 4.700000e-01    4.250000e+00
  P6aq  P3ah  1 4.700000e-01    4.250000e+00
  P5aq  P3ah  1 4.700000e-01    4.060000e+00
  P4aq  P3ah  1 4.700000e-01    4.060000e+00
  P6aq  P2ah  1 4.700000e-01    4.250000e+00
  P5aq  P2ah  1 4.700000e-01    4.060000e+00
  P4aq  P2ah  1 4.700000e-01    4.060000e+00
  P3aq  P2ah  1 4.700000e-01    4.060000e+00
  P6aq  P1ah  1 4.700000e-01    4.060000e+00
  P5aq  P1ah  1 4.700000e-01    3.880000e+00
  P4aq  P1ah  1 4.700000e-01    3.880000e+00
  P3aq  P1ah  1 4.700000e-01    3.880000e+00
  P2aq  P1ah  1 4.700000e-01    3.880000e+00
  P6aq  N6ah  1 4.700000e-01    3.880000e+00
  P5aq  N6ah  1 4.700000e-01    3.690000e+00
  P4aq  N6ah  1 4.700000e-01    3.690000e+00
  P3aq  N6ah  1 4.700000e-01    3.690000e+00
  P2aq  N6ah  1 4.700000e-01    3.880000e+00
  P1aq  N6ah  1 4.700000e-01    3.880000e+00
  P6aq  N5ah  1 4.700000e-01    3.520000e+00
  P5aq  N5ah  1 4.700000e-01    3.520000e+00
  P4aq  N5ah  1 4.700000e-01    3.520000e+00
  P3aq  N5ah  1 4.700000e-01    3.520000e+00
  P2aq  N5ah  1 4.700000e-01    3.690000e+00
  P1aq  N5ah  1 4.700000e-01    3.690000e+00
  N6aq  N5ah  1 4.700000e-01    3.880000e+00
  P6aq  N4ah  1 4.700000e-01    3.390000e+00
  P5aq  N4ah  1 4.700000e-01    3.520000e+00
  P4aq  N4ah  1 4.700000e-01    3.520000e+00
  P3aq  N4ah  1 4.700000e-01    3.520000e+00
  P2aq  N4ah  1 4.700000e-01    3.520000e+00
  P1aq  N4ah  1 4.700000e-01    3.690000e+00
  N6aq  N4ah  1 4.700000e-01    3.880000e+00
  N5aq  N4ah  1 4.700000e-01    3.690000e+00
  P6aq  N3ah  1 4.700000e-01    3.390000e+00
  P5aq  N3ah  1 4.700000e-01    3.390000e+00
  P4aq  N3ah  1 4.700000e-01    3.390000e+00
  P3aq  N3ah  1 4.700000e-01    3.390000e+00
  P2aq  N3ah  1 4.700000e-01    3.390000e+00
  P1aq  N3ah  1 4.700000e-01    3.390000e+00
  N6aq  N3ah  1 4.700000e-01    3.520000e+00
  N5aq  N3ah  1 4.700000e-01    3.520000e+00
  N4aq  N3ah  1 4.700000e-01    3.520000e+00
  P6aq  N2ah  1 4.700000e-01    3.240000e+00
  P5aq  N2ah  1 4.700000e-01    3.240000e+00
  P4aq  N2ah  1 4.700000e-01    3.390000e+00
  P3aq  N2ah  1 4.700000e-01    3.390000e+00
  P2aq  N2ah  1 4.700000e-01    3.390000e+00
  P1aq  N2ah  1 4.700000e-01    3.390000e+00
  N6aq  N2ah  1 4.700000e-01    3.390000e+00
  N5aq  N2ah  1 4.700000e-01    3.520000e+00
  N4aq  N2ah  1 4.700000e-01    3.520000e+00
  N3aq  N2ah  1 4.700000e-01    3.520000e+00
  P6aq  N1ah  1 4.700000e-01    3.240000e+00
  P5aq  N1ah  1 4.700000e-01    3.240000e+00
  P4aq  N1ah  1 4.700000e-01    3.240000e+00
  P3aq  N1ah  1 4.700000e-01    3.390000e+00
  P2aq  N1ah  1 4.700000e-01    3.390000e+00
  P1aq  N1ah  1 4.700000e-01    3.390000e+00
  N6aq  N1ah  1 4.700000e-01    3.390000e+00
  N5aq  N1ah  1 4.700000e-01    3.390000e+00
  N4aq  N1ah  1 4.700000e-01    3.390000e+00
  N3aq  N1ah  1 4.700000e-01    3.390000e+00
  N2aq  N1ah  1 4.700000e-01    3.390000e+00
  P6aq  P5ar  1 4.700000e-01    4.730000e+00
  P6aq  P4ar  1 4.700000e-01    4.480000e+00
  P5aq  P4ar  1 4.700000e-01    4.250000e+00
  P6aq  P3ar  1 4.700000e-01    4.250000e+00
  P5aq  P3ar  1 4.700000e-01    4.060000e+00
  P4aq  P3ar  1 4.700000e-01    4.060000e+00
  P6aq  P2ar  1 4.700000e-01    4.250000e+00
  P5aq  P2ar  1 4.700000e-01    4.060000e+00
  P4aq  P2ar  1 4.700000e-01    4.060000e+00
  P3aq  P2ar  1 4.700000e-01    4.060000e+00
  P6aq  P1ar  1 4.700000e-01    4.060000e+00
  P5aq  P1ar  1 4.700000e-01    3.880000e+00
  P4aq  P1ar  1 4.700000e-01    3.880000e+00
  P3aq  P1ar  1 4.700000e-01    3.880000e+00
  P2aq  P1ar  1 4.700000e-01    3.880000e+00
  P6aq  N6ar  1 4.700000e-01    3.880000e+00
  P5aq  N6ar  1 4.700000e-01    3.690000e+00
  P4aq  N6ar  1 4.700000e-01    3.690000e+00
  P3aq  N6ar  1 4.700000e-01    3.690000e+00
  P2aq  N6ar  1 4.700000e-01    3.880000e+00
  P1aq  N6ar  1 4.700000e-01    3.880000e+00
  P6aq  N5ar  1 4.700000e-01    3.520000e+00
  P5aq  N5ar  1 4.700000e-01    3.520000e+00
  P4aq  N5ar  1 4.700000e-01    3.520000e+00
  P3aq  N5ar  1 4.700000e-01    3.520000e+00
  P2aq  N5ar  1 4.700000e-01    3.690000e+00
  P1aq  N5ar  1 4.700000e-01    3.690000e+00
  N6aq  N5ar  1 4.700000e-01    3.880000e+00
  P6aq  N4ar  1 4.700000e-01    3.390000e+00
  P5aq  N4ar  1 4.700000e-01    3.520000e+00
  P4aq  N4ar  1 4.700000e-01    3.520000e+00
  P3aq  N4ar  1 4.700000e-01    3.520000e+00
  P2aq  N4ar  1 4.700000e-01    3.520000e+00
  P1aq  N4ar  1 4.700000e-01    3.690000e+00
  N6aq  N4ar  1 4.700000e-01    3.880000e+00
  N5aq  N4ar  1 4.700000e-01    3.690000e+00
  P6aq  N3ar  1 4.700000e-01    3.390000e+00
  P5aq  N3ar  1 4.700000e-01    3.390000e+00
  P4aq  N3ar  1 4.700000e-01    3.390000e+00
  P3aq  N3ar  1 4.700000e-01    3.390000e+00
  P2aq  N3ar  1 4.700000e-01    3.390000e+00
  P1aq  N3ar  1 4.700000e-01    3.390000e+00
  N6aq  N3ar  1 4.700000e-01    3.520000e+00
  N5aq  N3ar  1 4.700000e-01    3.520000e+00
  N4aq  N3ar  1 4.700000e-01    3.520000e+00
  P6aq  N2ar  1 4.700000e-01    3.240000e+00
  P5aq  N2ar  1 4.700000e-01    3.240000e+00
  P4aq  N2ar  1 4.700000e-01    3.390000e+00
  P3aq  N2ar  1 4.700000e-01    3.390000e+00
  P2aq  N2ar  1 4.700000e-01    3.390000e+00
  P1aq  N2ar  1 4.700000e-01    3.390000e+00
  N6aq  N2ar  1 4.700000e-01    3.390000e+00
  N5aq  N2ar  1 4.700000e-01    3.520000e+00
  N4aq  N2ar  1 4.700000e-01    3.520000e+00
  N3aq  N2ar  1 4.700000e-01    3.520000e+00
  P6aq  N1ar  1 4.700000e-01    3.240000e+00
  P5aq  N1ar  1 4.700000e-01    3.240000e+00
  P4aq  N1ar  1 4.700000e-01    3.240000e+00
  P3aq  N1ar  1 4.700000e-01    3.390000e+00
  P2aq  N1ar  1 4.700000e-01    3.390000e+00
  P1aq  N1ar  1 4.700000e-01    3.390000e+00
  N6aq  N1ar  1 4.700000e-01    3.390000e+00
  N5aq  N1ar  1 4.700000e-01    3.390000e+00
  N4aq  N1ar  1 4.700000e-01    3.390000e+00
  N3aq  N1ar  1 4.700000e-01    3.390000e+00
  N2aq  N1ar  1 4.700000e-01    3.390000e+00
  P6ah   P5a  1 4.700000e-01    4.250000e+00
  P6ah   P4a  1 4.700000e-01    4.060000e+00
  P6ah   P3a  1 4.700000e-01    3.880000e+00
  P6ah   P2a  1 4.700000e-01    3.880000e+00
  P6ah   P1a  1 4.700000e-01    3.690000e+00
  P6ah   N6a  1 4.700000e-01    3.520000e+00
  P6ah   N5a  1 4.700000e-01    3.240000e+00
  P6ah   N4a  1 4.700000e-01    3.240000e+00
  P6ah   N3a  1 4.700000e-01    3.240000e+00
  P6ah   N2a  1 4.700000e-01    3.070000e+00
  P6ah   N1a  1 4.700000e-01    2.960000e+00
  P5ah   P4a  1 4.700000e-01    3.880000e+00
  P5ah   P3a  1 4.700000e-01    3.690000e+00
  P5ah   P2a  1 4.700000e-01    3.690000e+00
  P5ah   P1a  1 4.700000e-01    3.520000e+00
  P5ah   N6a  1 4.700000e-01    3.390000e+00
  P5ah   N5a  1 4.700000e-01    3.240000e+00
  P5ah   N4a  1 4.700000e-01    3.240000e+00
  P5ah   N3a  1 4.700000e-01    3.240000e+00
  P5ah   N2a  1 4.700000e-01    3.070000e+00
  P5ah   N1a  1 4.700000e-01    2.960000e+00
  P4ah   P3a  1 4.700000e-01    3.690000e+00
  P4ah   P2a  1 4.700000e-01    3.690000e+00
  P4ah   P1a  1 4.700000e-01    3.520000e+00
  P4ah   N6a  1 4.700000e-01    3.390000e+00
  P4ah   N5a  1 4.700000e-01    3.240000e+00
  P4ah   N4a  1 4.700000e-01    3.240000e+00
  P4ah   N3a  1 4.700000e-01    3.240000e+00
  P4ah   N2a  1 4.700000e-01    3.240000e+00
  P4ah   N1a  1 4.700000e-01    3.070000e+00
  P3ah   P2a  1 4.700000e-01    3.690000e+00
  P3ah   P1a  1 4.700000e-01    3.520000e+00
  P3ah   N6a  1 4.700000e-01    3.390000e+00
  P3ah   N5a  1 4.700000e-01    3.240000e+00
  P3ah   N4a  1 4.700000e-01    3.240000e+00
  P3ah   N3a  1 4.700000e-01    3.240000e+00
  P3ah   N2a  1 4.700000e-01    3.240000e+00
  P3ah   N1a  1 4.700000e-01    3.240000e+00
  P2ah   P1a  1 4.700000e-01    3.520000e+00
  P2ah   N6a  1 4.700000e-01    3.520000e+00
  P2ah   N5a  1 4.700000e-01    3.390000e+00
  P2ah   N4a  1 4.700000e-01    3.240000e+00
  P2ah   N3a  1 4.700000e-01    3.240000e+00
  P2ah   N2a  1 4.700000e-01    3.240000e+00
  P2ah   N1a  1 4.700000e-01    3.240000e+00
  P1ah   N6a  1 4.700000e-01    3.520000e+00
  P1ah   N5a  1 4.700000e-01    3.390000e+00
  P1ah   N4a  1 4.700000e-01    3.390000e+00
  P1ah   N3a  1 4.700000e-01    3.240000e+00
  P1ah   N2a  1 4.700000e-01    3.240000e+00
  P1ah   N1a  1 4.700000e-01    3.240000e+00
  N6ah   N5a  1 4.700000e-01    3.520000e+00
  N6ah   N4a  1 4.700000e-01    3.520000e+00
  N6ah   N3a  1 4.700000e-01    3.240000e+00
  N6ah   N2a  1 4.700000e-01    3.240000e+00
  N6ah   N1a  1 4.700000e-01    3.240000e+00
  N5ah   N4a  1 4.700000e-01    3.390000e+00
  N5ah   N3a  1 4.700000e-01    3.240000e+00
  N5ah   N2a  1 4.700000e-01    3.240000e+00
  N5ah   N1a  1 4.700000e-01    3.240000e+00
  N4ah   N3a  1 4.700000e-01    3.240000e+00
  N4ah   N2a  1 4.700000e-01    3.240000e+00
  N4ah   N1a  1 4.700000e-01    3.240000e+00
  N3ah   N2a  1 4.700000e-01    3.240000e+00
  N3ah   N1a  1 4.700000e-01    3.240000e+00
  N2ah   N1a  1 4.700000e-01    3.240000e+00
  P6ah  P6aq  1 4.700000e-01    4.990000e+00
  P6ah  N1aq  1 4.700000e-01    3.240000e+00
  P6ah  N2aq  1 4.700000e-01    3.240000e+00
  P6ah  N3aq  1 4.700000e-01    3.390000e+00
  P6ah  N4aq  1 4.700000e-01    3.390000e+00
  P6ah  N5aq  1 4.700000e-01    3.520000e+00
  P6ah  N6aq  1 4.700000e-01    3.880000e+00
  P6ah  P1aq  1 4.700000e-01    4.060000e+00
  P6ah  P2aq  1 4.700000e-01    4.250000e+00
  P6ah  P3aq  1 4.700000e-01    4.250000e+00
  P6ah  P4aq  1 4.700000e-01    4.480000e+00
  P6ah  P5aq  1 4.700000e-01    4.730000e+00
  P5ah  P5aq  1 4.700000e-01    4.480000e+00
  P5ah  N1aq  1 4.700000e-01    3.240000e+00
  P5ah  N2aq  1 4.700000e-01    3.240000e+00
  P5ah  N3aq  1 4.700000e-01    3.390000e+00
  P5ah  N4aq  1 4.700000e-01    3.520000e+00
  P5ah  N5aq  1 4.700000e-01    3.520000e+00
  P5ah  N6aq  1 4.700000e-01    3.690000e+00
  P5ah  P1aq  1 4.700000e-01    3.880000e+00
  P5ah  P2aq  1 4.700000e-01    4.060000e+00
  P5ah  P3aq  1 4.700000e-01    4.060000e+00
  P5ah  P4aq  1 4.700000e-01    4.250000e+00
  P4ah  P4aq  1 4.700000e-01    4.250000e+00
  P4ah  N1aq  1 4.700000e-01    3.240000e+00
  P4ah  N2aq  1 4.700000e-01    3.390000e+00
  P4ah  N3aq  1 4.700000e-01    3.390000e+00
  P4ah  N4aq  1 4.700000e-01    3.520000e+00
  P4ah  N5aq  1 4.700000e-01    3.520000e+00
  P4ah  N6aq  1 4.700000e-01    3.690000e+00
  P4ah  P1aq  1 4.700000e-01    3.880000e+00
  P4ah  P2aq  1 4.700000e-01    4.060000e+00
  P4ah  P3aq  1 4.700000e-01    4.060000e+00
  P3ah  P3aq  1 4.700000e-01    4.060000e+00
  P3ah  N1aq  1 4.700000e-01    3.390000e+00
  P3ah  N2aq  1 4.700000e-01    3.390000e+00
  P3ah  N3aq  1 4.700000e-01    3.390000e+00
  P3ah  N4aq  1 4.700000e-01    3.520000e+00
  P3ah  N5aq  1 4.700000e-01    3.520000e+00
  P3ah  N6aq  1 4.700000e-01    3.690000e+00
  P3ah  P1aq  1 4.700000e-01    3.880000e+00
  P3ah  P2aq  1 4.700000e-01    4.060000e+00
  P2ah  P2aq  1 4.700000e-01    4.060000e+00
  P2ah  N1aq  1 4.700000e-01    3.390000e+00
  P2ah  N2aq  1 4.700000e-01    3.390000e+00
  P2ah  N3aq  1 4.700000e-01    3.390000e+00
  P2ah  N4aq  1 4.700000e-01    3.520000e+00
  P2ah  N5aq  1 4.700000e-01    3.690000e+00
  P2ah  N6aq  1 4.700000e-01    3.880000e+00
  P2ah  P1aq  1 4.700000e-01    3.880000e+00
  P1ah  P1aq  1 4.700000e-01    3.880000e+00
  P1ah  N1aq  1 4.700000e-01    3.390000e+00
  P1ah  N2aq  1 4.700000e-01    3.390000e+00
  P1ah  N3aq  1 4.700000e-01    3.390000e+00
  P1ah  N4aq  1 4.700000e-01    3.690000e+00
  P1ah  N5aq  1 4.700000e-01    3.690000e+00
  P1ah  N6aq  1 4.700000e-01    3.880000e+00
  N6ah  N6aq  1 4.700000e-01    3.880000e+00
  N6ah  N1aq  1 4.700000e-01    3.390000e+00
  N6ah  N2aq  1 4.700000e-01    3.390000e+00
  N6ah  N3aq  1 4.700000e-01    3.520000e+00
  N6ah  N4aq  1 4.700000e-01    3.880000e+00
  N6ah  N5aq  1 4.700000e-01    3.880000e+00
  N5ah  N5aq  1 4.700000e-01    3.690000e+00
  N5ah  N1aq  1 4.700000e-01    3.390000e+00
  N5ah  N2aq  1 4.700000e-01    3.520000e+00
  N5ah  N3aq  1 4.700000e-01    3.520000e+00
  N5ah  N4aq  1 4.700000e-01    3.690000e+00
  N4ah  N4aq  1 4.700000e-01    3.690000e+00
  N4ah  N1aq  1 4.700000e-01    3.390000e+00
  N4ah  N2aq  1 4.700000e-01    3.520000e+00
  N4ah  N3aq  1 4.700000e-01    3.520000e+00
  N3ah  N3aq  1 4.700000e-01    3.520000e+00
  N3ah  N1aq  1 4.700000e-01    3.390000e+00
  N3ah  N2aq  1 4.700000e-01    3.520000e+00
  N2ah  N2aq  1 4.700000e-01    3.520000e+00
  N2ah  N1aq  1 4.700000e-01    3.390000e+00
  N1ah  N1aq  1 4.700000e-01    3.520000e+00
  P6ah  P6ah  1 4.700000e-01    4.730000e+00
  P5ah  P5ah  1 4.700000e-01    4.250000e+00
  P4ah  P4ah  1 4.700000e-01    4.060000e+00
  P3ah  P3ah  1 4.700000e-01    3.880000e+00
  P2ah  P2ah  1 4.700000e-01    3.880000e+00
  P1ah  P1ah  1 4.700000e-01    3.690000e+00
  N6ah  N6ah  1 4.700000e-01    3.690000e+00
  N5ah  N5ah  1 4.700000e-01    3.520000e+00
  N4ah  N4ah  1 4.700000e-01    3.520000e+00
  N3ah  N3ah  1 4.700000e-01    3.390000e+00
  N2ah  N2ah  1 4.700000e-01    3.390000e+00
  N1ah  N1ah  1 4.700000e-01    3.390000e+00
  P6ah  P5ah  1 4.700000e-01    4.480000e+00
  P6ah  P4ah  1 4.700000e-01    4.250000e+00
  P6ah  P3ah  1 4.700000e-01    4.060000e+00
  P6ah  P2ah  1 4.700000e-01    4.060000e+00
  P6ah  P1ah  1 4.700000e-01    3.880000e+00
  P6ah  N6ah  1 4.700000e-01    3.690000e+00
  P6ah  N5ah  1 4.700000e-01    3.390000e+00
  P6ah  N4ah  1 4.700000e-01    3.240000e+00
  P6ah  N3ah  1 4.700000e-01    3.240000e+00
  P6ah  N2ah  1 4.700000e-01    3.240000e+00
  P6ah  N1ah  1 4.700000e-01    3.070000e+00
  P5ah  P4ah  1 4.700000e-01    4.060000e+00
  P5ah  P3ah  1 4.700000e-01    3.880000e+00
  P5ah  P2ah  1 4.700000e-01    3.880000e+00
  P5ah  P1ah  1 4.700000e-01    3.690000e+00
  P5ah  N6ah  1 4.700000e-01    3.520000e+00
  P5ah  N5ah  1 4.700000e-01    3.390000e+00
  P5ah  N4ah  1 4.700000e-01    3.390000e+00
  P5ah  N3ah  1 4.700000e-01    3.240000e+00
  P5ah  N2ah  1 4.700000e-01    3.240000e+00
  P5ah  N1ah  1 4.700000e-01    3.070000e+00
  P4ah  P3ah  1 4.700000e-01    3.880000e+00
  P4ah  P2ah  1 4.700000e-01    3.880000e+00
  P4ah  P1ah  1 4.700000e-01    3.690000e+00
  P4ah  N6ah  1 4.700000e-01    3.520000e+00
  P4ah  N5ah  1 4.700000e-01    3.390000e+00
  P4ah  N4ah  1 4.700000e-01    3.390000e+00
  P4ah  N3ah  1 4.700000e-01    3.240000e+00
  P4ah  N2ah  1 4.700000e-01    3.240000e+00
  P4ah  N1ah  1 4.700000e-01    3.240000e+00
  P3ah  P2ah  1 4.700000e-01    3.880000e+00
  P3ah  P1ah  1 4.700000e-01    3.690000e+00
  P3ah  N6ah  1 4.700000e-01    3.520000e+00
  P3ah  N5ah  1 4.700000e-01    3.390000e+00
  P3ah  N4ah  1 4.700000e-01    3.390000e+00
  P3ah  N3ah  1 4.700000e-01    3.240000e+00
  P3ah  N2ah  1 4.700000e-01    3.240000e+00
  P3ah  N1ah  1 4.700000e-01    3.240000e+00
  P2ah  P1ah  1 4.700000e-01    3.690000e+00
  P2ah  N6ah  1 4.700000e-01    3.690000e+00
  P2ah  N5ah  1 4.700000e-01    3.520000e+00
  P2ah  N4ah  1 4.700000e-01    3.390000e+00
  P2ah  N3ah  1 4.700000e-01    3.240000e+00
  P2ah  N2ah  1 4.700000e-01    3.240000e+00
  P2ah  N1ah  1 4.700000e-01    3.240000e+00
  P1ah  N6ah  1 4.700000e-01    3.690000e+00
  P1ah  N5ah  1 4.700000e-01    3.520000e+00
  P1ah  N4ah  1 4.700000e-01    3.520000e+00
  P1ah  N3ah  1 4.700000e-01    3.240000e+00
  P1ah  N2ah  1 4.700000e-01    3.240000e+00
  P1ah  N1ah  1 4.700000e-01    3.240000e+00
  N6ah  N5ah  1 4.700000e-01    3.690000e+00
  N6ah  N4ah  1 4.700000e-01    3.690000e+00
  N6ah  N3ah  1 4.700000e-01    3.390000e+00
  N6ah  N2ah  1 4.700000e-01    3.240000e+00
  N6ah  N1ah  1 4.700000e-01    3.240000e+00
  N5ah  N4ah  1 4.700000e-01    3.520000e+00
  N5ah  N3ah  1 4.700000e-01    3.390000e+00
  N5ah  N2ah  1 4.700000e-01    3.390000e+00
  N5ah  N1ah  1 4.700000e-01    3.240000e+00
  N4ah  N3ah  1 4.700000e-01    3.390000e+00
  N4ah  N2ah  1 4.700000e-01    3.390000e+00
  N4ah  N1ah  1 4.700000e-01    3.240000e+00
  N3ah  N2ah  1 4.700000e-01    3.390000e+00
  N3ah  N1ah  1 4.700000e-01    3.240000e+00
  N2ah  N1ah  1 4.700000e-01    3.240000e+00
  P6ah  P6ar  1 4.700000e-01    4.480000e+00
  P6ah  P5ar  1 4.700000e-01    4.250000e+00
  P6ah  P4ar  1 4.700000e-01    4.060000e+00
  P6ah  P3ar  1 4.700000e-01    3.880000e+00
  P6ah  P2ar  1 4.700000e-01    3.880000e+00
  P6ah  P1ar  1 4.700000e-01    3.690000e+00
  P6ah  N6ar  1 4.700000e-01    3.520000e+00
  P6ah  N5ar  1 4.700000e-01    3.240000e+00
  P6ah  N4ar  1 4.700000e-01    3.240000e+00
  P6ah  N3ar  1 4.700000e-01    3.240000e+00
  P6ah  N2ar  1 4.700000e-01    3.070000e+00
  P6ah  N1ar  1 4.700000e-01    2.960000e+00
  P5ah  P5ar  1 4.700000e-01    4.060000e+00
  P5ah  P4ar  1 4.700000e-01    3.880000e+00
  P5ah  P3ar  1 4.700000e-01    3.690000e+00
  P5ah  P2ar  1 4.700000e-01    3.690000e+00
  P5ah  P1ar  1 4.700000e-01    3.520000e+00
  P5ah  N6ar  1 4.700000e-01    3.390000e+00
  P5ah  N5ar  1 4.700000e-01    3.240000e+00
  P5ah  N4ar  1 4.700000e-01    3.240000e+00
  P5ah  N3ar  1 4.700000e-01    3.240000e+00
  P5ah  N2ar  1 4.700000e-01    3.070000e+00
  P5ah  N1ar  1 4.700000e-01    2.960000e+00
  P4ah  P4ar  1 4.700000e-01    3.880000e+00
  P4ah  P3ar  1 4.700000e-01    3.690000e+00
  P4ah  P2ar  1 4.700000e-01    3.690000e+00
  P4ah  P1ar  1 4.700000e-01    3.520000e+00
  P4ah  N6ar  1 4.700000e-01    3.390000e+00
  P4ah  N5ar  1 4.700000e-01    3.240000e+00
  P4ah  N4ar  1 4.700000e-01    3.240000e+00
  P4ah  N3ar  1 4.700000e-01    3.240000e+00
  P4ah  N2ar  1 4.700000e-01    3.240000e+00
  P4ah  N1ar  1 4.700000e-01    3.070000e+00
  P3ah  P3ar  1 4.700000e-01    3.690000e+00
  P3ah  P2ar  1 4.700000e-01    3.690000e+00
  P3ah  P1ar  1 4.700000e-01    3.520000e+00
  P3ah  N6ar  1 4.700000e-01    3.390000e+00
  P3ah  N5ar  1 4.700000e-01    3.240000e+00
  P3ah  N4ar  1 4.700000e-01    3.240000e+00
  P3ah  N3ar  1 4.700000e-01    3.240000e+00
  P3ah  N2ar  1 4.700000e-01    3.240000e+00
  P3ah  N1ar  1 4.700000e-01    3.240000e+00
  P2ah  P2ar  1 4.700000e-01    3.690000e+00
  P2ah  P1ar  1 4.700000e-01    3.520000e+00
  P2ah  N6ar  1 4.700000e-01    3.520000e+00
  P2ah  N5ar  1 4.700000e-01    3.390000e+00
  P2ah  N4ar  1 4.700000e-01    3.240000e+00
  P2ah  N3ar  1 4.700000e-01    3.240000e+00
  P2ah  N2ar  1 4.700000e-01    3.240000e+00
  P2ah  N1ar  1 4.700000e-01    3.240000e+00
  P1ah  P1ar  1 4.700000e-01    3.520000e+00
  P1ah  N6ar  1 4.700000e-01    3.520000e+00
  P1ah  N5ar  1 4.700000e-01    3.390000e+00
  P1ah  N4ar  1 4.700000e-01    3.390000e+00
  P1ah  N3ar  1 4.700000e-01    3.240000e+00
  P1ah  N2ar  1 4.700000e-01    3.240000e+00
  P1ah  N1ar  1 4.700000e-01    3.240000e+00
  N6ah  N6ar  1 4.700000e-01    3.520000e+00
  N6ah  N5ar  1 4.700000e-01    3.520000e+00
  N6ah  N4ar  1 4.700000e-01    3.520000e+00
  N6ah  N3ar  1 4.700000e-01    3.240000e+00
  N6ah  N2ar  1 4.700000e-01    3.240000e+00
  N6ah  N1ar  1 4.700000e-01    3.240000e+00
  N5ah  N5ar  1 4.700000e-01    3.390000e+00
  N5ah  N4ar  1 4.700000e-01    3.390000e+00
  N5ah  N3ar  1 4.700000e-01    3.240000e+00
  N5ah  N2ar  1 4.700000e-01    3.240000e+00
  N5ah  N1ar  1 4.700000e-01    3.240000e+00
  N4ah  N4ar  1 4.700000e-01    3.390000e+00
  N4ah  N3ar  1 4.700000e-01    3.240000e+00
  N4ah  N2ar  1 4.700000e-01    3.240000e+00
  N4ah  N1ar  1 4.700000e-01    3.240000e+00
  N3ah  N3ar  1 4.700000e-01    3.240000e+00
  N3ah  N2ar  1 4.700000e-01    3.240000e+00
  N3ah  N1ar  1 4.700000e-01    3.240000e+00
  N2ah  N2ar  1 4.700000e-01    3.240000e+00
  N2ah  N1ar  1 4.700000e-01    3.240000e+00
  N1ah  N1ar  1 4.700000e-01    3.240000e+00
  P6ar   P5a  1 4.700000e-01    4.250000e+00
  P6ar   P4a  1 4.700000e-01    4.060000e+00
  P6ar   P3a  1 4.700000e-01    3.880000e+00
  P6ar   P2a  1 4.700000e-01    3.880000e+00
  P6ar   P1a  1 4.700000e-01    3.690000e+00
  P6ar   N6a  1 4.700000e-01    3.520000e+00
  P6ar   N5a  1 4.700000e-01    3.240000e+00
  P6ar   N4a  1 4.700000e-01    3.240000e+00
  P6ar   N3a  1 4.700000e-01    3.240000e+00
  P6ar   N2a  1 4.700000e-01    3.070000e+00
  P6ar   N1a  1 4.700000e-01    2.960000e+00
  P5ar   P4a  1 4.700000e-01    3.880000e+00
  P5ar   P3a  1 4.700000e-01    3.690000e+00
  P5ar   P2a  1 4.700000e-01    3.690000e+00
  P5ar   P1a  1 4.700000e-01    3.520000e+00
  P5ar   N6a  1 4.700000e-01    3.390000e+00
  P5ar   N5a  1 4.700000e-01    3.240000e+00
  P5ar   N4a  1 4.700000e-01    3.240000e+00
  P5ar   N3a  1 4.700000e-01    3.240000e+00
  P5ar   N2a  1 4.700000e-01    3.070000e+00
  P5ar   N1a  1 4.700000e-01    2.960000e+00
  P4ar   P3a  1 4.700000e-01    3.690000e+00
  P4ar   P2a  1 4.700000e-01    3.690000e+00
  P4ar   P1a  1 4.700000e-01    3.520000e+00
  P4ar   N6a  1 4.700000e-01    3.390000e+00
  P4ar   N5a  1 4.700000e-01    3.240000e+00
  P4ar   N4a  1 4.700000e-01    3.240000e+00
  P4ar   N3a  1 4.700000e-01    3.240000e+00
  P4ar   N2a  1 4.700000e-01    3.240000e+00
  P4ar   N1a  1 4.700000e-01    3.070000e+00
  P3ar   P2a  1 4.700000e-01    3.690000e+00
  P3ar   P1a  1 4.700000e-01    3.520000e+00
  P3ar   N6a  1 4.700000e-01    3.390000e+00
  P3ar   N5a  1 4.700000e-01    3.240000e+00
  P3ar   N4a  1 4.700000e-01    3.240000e+00
  P3ar   N3a  1 4.700000e-01    3.240000e+00
  P3ar   N2a  1 4.700000e-01    3.240000e+00
  P3ar   N1a  1 4.700000e-01    3.240000e+00
  P2ar   P1a  1 4.700000e-01    3.520000e+00
  P2ar   N6a  1 4.700000e-01    3.520000e+00
  P2ar   N5a  1 4.700000e-01    3.390000e+00
  P2ar   N4a  1 4.700000e-01    3.240000e+00
  P2ar   N3a  1 4.700000e-01    3.240000e+00
  P2ar   N2a  1 4.700000e-01    3.240000e+00
  P2ar   N1a  1 4.700000e-01    3.240000e+00
  P1ar   N6a  1 4.700000e-01    3.520000e+00
  P1ar   N5a  1 4.700000e-01    3.390000e+00
  P1ar   N4a  1 4.700000e-01    3.390000e+00
  P1ar   N3a  1 4.700000e-01    3.240000e+00
  P1ar   N2a  1 4.700000e-01    3.240000e+00
  P1ar   N1a  1 4.700000e-01    3.240000e+00
  N6ar   N5a  1 4.700000e-01    3.520000e+00
  N6ar   N4a  1 4.700000e-01    3.520000e+00
  N6ar   N3a  1 4.700000e-01    3.240000e+00
  N6ar   N2a  1 4.700000e-01    3.240000e+00
  N6ar   N1a  1 4.700000e-01    3.240000e+00
  N5ar   N4a  1 4.700000e-01    3.390000e+00
  N5ar   N3a  1 4.700000e-01    3.240000e+00
  N5ar   N2a  1 4.700000e-01    3.240000e+00
  N5ar   N1a  1 4.700000e-01    3.240000e+00
  N4ar   N3a  1 4.700000e-01    3.240000e+00
  N4ar   N2a  1 4.700000e-01    3.240000e+00
  N4ar   N1a  1 4.700000e-01    3.240000e+00
  N3ar   N2a  1 4.700000e-01    3.240000e+00
  N3ar   N1a  1 4.700000e-01    3.240000e+00
  N2ar   N1a  1 4.700000e-01    3.240000e+00
  P6ar  P6aq  1 4.700000e-01    4.990000e+00
  P6ar  N1aq  1 4.700000e-01    3.240000e+00
  P6ar  N2aq  1 4.700000e-01    3.240000e+00
  P6ar  N3aq  1 4.700000e-01    3.390000e+00
  P6ar  N4aq  1 4.700000e-01    3.390000e+00
  P6ar  N5aq  1 4.700000e-01    3.520000e+00
  P6ar  N6aq  1 4.700000e-01    3.880000e+00
  P6ar  P1aq  1 4.700000e-01    4.060000e+00
  P6ar  P2aq  1 4.700000e-01    4.250000e+00
  P6ar  P3aq  1 4.700000e-01    4.250000e+00
  P6ar  P4aq  1 4.700000e-01    4.480000e+00
  P6ar  P5aq  1 4.700000e-01    4.730000e+00
  P5ar  P5aq  1 4.700000e-01    4.480000e+00
  P5ar  N1aq  1 4.700000e-01    3.240000e+00
  P5ar  N2aq  1 4.700000e-01    3.240000e+00
  P5ar  N3aq  1 4.700000e-01    3.390000e+00
  P5ar  N4aq  1 4.700000e-01    3.520000e+00
  P5ar  N5aq  1 4.700000e-01    3.520000e+00
  P5ar  N6aq  1 4.700000e-01    3.690000e+00
  P5ar  P1aq  1 4.700000e-01    3.880000e+00
  P5ar  P2aq  1 4.700000e-01    4.060000e+00
  P5ar  P3aq  1 4.700000e-01    4.060000e+00
  P5ar  P4aq  1 4.700000e-01    4.250000e+00
  P4ar  P4aq  1 4.700000e-01    4.250000e+00
  P4ar  N1aq  1 4.700000e-01    3.240000e+00
  P4ar  N2aq  1 4.700000e-01    3.390000e+00
  P4ar  N3aq  1 4.700000e-01    3.390000e+00
  P4ar  N4aq  1 4.700000e-01    3.520000e+00
  P4ar  N5aq  1 4.700000e-01    3.520000e+00
  P4ar  N6aq  1 4.700000e-01    3.690000e+00
  P4ar  P1aq  1 4.700000e-01    3.880000e+00
  P4ar  P2aq  1 4.700000e-01    4.060000e+00
  P4ar  P3aq  1 4.700000e-01    4.060000e+00
  P3ar  P3aq  1 4.700000e-01    4.060000e+00
  P3ar  N1aq  1 4.700000e-01    3.390000e+00
  P3ar  N2aq  1 4.700000e-01    3.390000e+00
  P3ar  N3aq  1 4.700000e-01    3.390000e+00
  P3ar  N4aq  1 4.700000e-01    3.520000e+00
  P3ar  N5aq  1 4.700000e-01    3.520000e+00
  P3ar  N6aq  1 4.700000e-01    3.690000e+00
  P3ar  P1aq  1 4.700000e-01    3.880000e+00
  P3ar  P2aq  1 4.700000e-01    4.060000e+00
  P2ar  P2aq  1 4.700000e-01    4.060000e+00
  P2ar  N1aq  1 4.700000e-01    3.390000e+00
  P2ar  N2aq  1 4.700000e-01    3.390000e+00
  P2ar  N3aq  1 4.700000e-01    3.390000e+00
  P2ar  N4aq  1 4.700000e-01    3.520000e+00
  P2ar  N5aq  1 4.700000e-01    3.690000e+00
  P2ar  N6aq  1 4.700000e-01    3.880000e+00
  P2ar  P1aq  1 4.700000e-01    3.880000e+00
  P1ar  P1aq  1 4.700000e-01    3.880000e+00
  P1ar  N1aq  1 4.700000e-01    3.390000e+00
  P1ar  N2aq  1 4.700000e-01    3.390000e+00
  P1ar  N3aq  1 4.700000e-01    3.390000e+00
  P1ar  N4aq  1 4.700000e-01    3.690000e+00
  P1ar  N5aq  1 4.700000e-01    3.690000e+00
  P1ar  N6aq  1 4.700000e-01    3.880000e+00
  N6ar  N6aq  1 4.700000e-01    3.880000e+00
  N6ar  N1aq  1 4.700000e-01    3.390000e+00
  N6ar  N2aq  1 4.700000e-01    3.390000e+00
  N6ar  N3aq  1 4.700000e-01    3.520000e+00
  N6ar  N4aq  1 4.700000e-01    3.880000e+00
  N6ar  N5aq  1 4.700000e-01    3.880000e+00
  N5ar  N5aq  1 4.700000e-01    3.690000e+00
  N5ar  N1aq  1 4.700000e-01    3.390000e+00
  N5ar  N2aq  1 4.700000e-01    3.520000e+00
  N5ar  N3aq  1 4.700000e-01    3.520000e+00
  N5ar  N4aq  1 4.700000e-01    3.690000e+00
  N4ar  N4aq  1 4.700000e-01    3.690000e+00
  N4ar  N1aq  1 4.700000e-01    3.390000e+00
  N4ar  N2aq  1 4.700000e-01    3.520000e+00
  N4ar  N3aq  1 4.700000e-01    3.520000e+00
  N3ar  N3aq  1 4.700000e-01    3.520000e+00
  N3ar  N1aq  1 4.700000e-01    3.390000e+00
  N3ar  N2aq  1 4.700000e-01    3.520000e+00
  N2ar  N2aq  1 4.700000e-01    3.520000e+00
  N2ar  N1aq  1 4.700000e-01    3.390000e+00
  N1ar  N1aq  1 4.700000e-01    3.520000e+00
  P6ar  P5ah  1 4.700000e-01    4.250000e+00
  P6ar  P4ah  1 4.700000e-01    4.060000e+00
  P6ar  P3ah  1 4.700000e-01    3.880000e+00
  P6ar  P2ah  1 4.700000e-01    3.880000e+00
  P6ar  P1ah  1 4.700000e-01    3.690000e+00
  P6ar  N6ah  1 4.700000e-01    3.520000e+00
  P6ar  N5ah  1 4.700000e-01    3.240000e+00
  P6ar  N4ah  1 4.700000e-01    3.240000e+00
  P6ar  N3ah  1 4.700000e-01    3.240000e+00
  P6ar  N2ah  1 4.700000e-01    3.070000e+00
  P6ar  N1ah  1 4.700000e-01    2.960000e+00
  P5ar  P4ah  1 4.700000e-01    3.880000e+00
  P5ar  P3ah  1 4.700000e-01    3.690000e+00
  P5ar  P2ah  1 4.700000e-01    3.690000e+00
  P5ar  P1ah  1 4.700000e-01    3.520000e+00
  P5ar  N6ah  1 4.700000e-01    3.390000e+00
  P5ar  N5ah  1 4.700000e-01    3.240000e+00
  P5ar  N4ah  1 4.700000e-01    3.240000e+00
  P5ar  N3ah  1 4.700000e-01    3.240000e+00
  P5ar  N2ah  1 4.700000e-01    3.070000e+00
  P5ar  N1ah  1 4.700000e-01    2.960000e+00
  P4ar  P3ah  1 4.700000e-01    3.690000e+00
  P4ar  P2ah  1 4.700000e-01    3.690000e+00
  P4ar  P1ah  1 4.700000e-01    3.520000e+00
  P4ar  N6ah  1 4.700000e-01    3.390000e+00
  P4ar  N5ah  1 4.700000e-01    3.240000e+00
  P4ar  N4ah  1 4.700000e-01    3.240000e+00
  P4ar  N3ah  1 4.700000e-01    3.240000e+00
  P4ar  N2ah  1 4.700000e-01    3.240000e+00
  P4ar  N1ah  1 4.700000e-01    3.070000e+00
  P3ar  P2ah  1 4.700000e-01    3.690000e+00
  P3ar  P1ah  1 4.700000e-01    3.520000e+00
  P3ar  N6ah  1 4.700000e-01    3.390000e+00
  P3ar  N5ah  1 4.700000e-01    3.240000e+00
  P3ar  N4ah  1 4.700000e-01    3.240000e+00
  P3ar  N3ah  1 4.700000e-01    3.240000e+00
  P3ar  N2ah  1 4.700000e-01    3.240000e+00
  P3ar  N1ah  1 4.700000e-01    3.240000e+00
  P2ar  P1ah  1 4.700000e-01    3.520000e+00
  P2ar  N6ah  1 4.700000e-01    3.520000e+00
  P2ar  N5ah  1 4.700000e-01    3.390000e+00
  P2ar  N4ah  1 4.700000e-01    3.240000e+00
  P2ar  N3ah  1 4.700000e-01    3.240000e+00
  P2ar  N2ah  1 4.700000e-01    3.240000e+00
  P2ar  N1ah  1 4.700000e-01    3.240000e+00
  P1ar  N6ah  1 4.700000e-01    3.520000e+00
  P1ar  N5ah  1 4.700000e-01    3.390000e+00
  P1ar  N4ah  1 4.700000e-01    3.390000e+00
  P1ar  N3ah  1 4.700000e-01    3.240000e+00
  P1ar  N2ah  1 4.700000e-01    3.240000e+00
  P1ar  N1ah  1 4.700000e-01    3.240000e+00
  N6ar  N5ah  1 4.700000e-01    3.520000e+00
  N6ar  N4ah  1 4.700000e-01    3.520000e+00
  N6ar  N3ah  1 4.700000e-01    3.240000e+00
  N6ar  N2ah  1 4.700000e-01    3.240000e+00
  N6ar  N1ah  1 4.700000e-01    3.240000e+00
  N5ar  N4ah  1 4.700000e-01    3.390000e+00
  N5ar  N3ah  1 4.700000e-01    3.240000e+00
  N5ar  N2ah  1 4.700000e-01    3.240000e+00
  N5ar  N1ah  1 4.700000e-01    3.240000e+00
  N4ar  N3ah  1 4.700000e-01    3.240000e+00
  N4ar  N2ah  1 4.700000e-01    3.240000e+00
  N4ar  N1ah  1 4.700000e-01    3.240000e+00
  N3ar  N2ah  1 4.700000e-01    3.240000e+00
  N3ar  N1ah  1 4.700000e-01    3.240000e+00
  N2ar  N1ah  1 4.700000e-01    3.240000e+00
  P6ar  P6ar  1 4.700000e-01    4.250000e+00
  P5ar  P5ar  1 4.700000e-01    3.880000e+00
  P4ar  P4ar  1 4.700000e-01    3.690000e+00
  P3ar  P3ar  1 4.700000e-01    3.520000e+00
  P2ar  P2ar  1 4.700000e-01    3.520000e+00
  P1ar  P1ar  1 4.700000e-01    3.390000e+00
  N6ar  N6ar  1 4.700000e-01    3.390000e+00
  N5ar  N5ar  1 4.700000e-01    3.240000e+00
  N4ar  N4ar  1 4.700000e-01    3.240000e+00
  N3ar  N3ar  1 4.700000e-01    3.240000e+00
  N2ar  N2ar  1 4.700000e-01    3.240000e+00
  N1ar  N1ar  1 4.700000e-01    3.240000e+00
  P6ar  P5ar  1 4.700000e-01    4.060000e+00
  P6ar  P4ar  1 4.700000e-01    3.880000e+00
  P6ar  P3ar  1 4.700000e-01    3.690000e+00
  P6ar  P2ar  1 4.700000e-01    3.690000e+00
  P6ar  P1ar  1 4.700000e-01    3.520000e+00
  P6ar  N6ar  1 4.700000e-01    3.390000e+00
  P6ar  N5ar  1 4.700000e-01    3.240000e+00
  P6ar  N4ar  1 4.700000e-01    3.070000e+00
  P6ar  N3ar  1 4.700000e-01    3.070000e+00
  P6ar  N2ar  1 4.700000e-01    2.960000e+00
  P6ar  N1ar  1 4.700000e-01    2.790000e+00
  P5ar  P4ar  1 4.700000e-01    3.690000e+00
  P5ar  P3ar  1 4.700000e-01    3.520000e+00
  P5ar  P2ar  1 4.700000e-01    3.520000e+00
  P5ar  P1ar  1 4.700000e-01    3.390000e+00
  P5ar  N6ar  1 4.700000e-01    3.240000e+00
  P5ar  N5ar  1 4.700000e-01    3.240000e+00
  P5ar  N4ar  1 4.700000e-01    3.240000e+00
  P5ar  N3ar  1 4.700000e-01    3.070000e+00
  P5ar  N2ar  1 4.700000e-01    2.960000e+00
  P5ar  N1ar  1 4.700000e-01    2.790000e+00
  P4ar  P3ar  1 4.700000e-01    3.520000e+00
  P4ar  P2ar  1 4.700000e-01    3.520000e+00
  P4ar  P1ar  1 4.700000e-01    3.390000e+00
  P4ar  N6ar  1 4.700000e-01    3.240000e+00
  P4ar  N5ar  1 4.700000e-01    3.240000e+00
  P4ar  N4ar  1 4.700000e-01    3.240000e+00
  P4ar  N3ar  1 4.700000e-01    3.070000e+00
  P4ar  N2ar  1 4.700000e-01    3.070000e+00
  P4ar  N1ar  1 4.700000e-01    2.960000e+00
  P3ar  P2ar  1 4.700000e-01    3.520000e+00
  P3ar  P1ar  1 4.700000e-01    3.390000e+00
  P3ar  N6ar  1 4.700000e-01    3.240000e+00
  P3ar  N5ar  1 4.700000e-01    3.240000e+00
  P3ar  N4ar  1 4.700000e-01    3.240000e+00
  P3ar  N3ar  1 4.700000e-01    3.070000e+00
  P3ar  N2ar  1 4.700000e-01    3.070000e+00
  P3ar  N1ar  1 4.700000e-01    3.070000e+00
  P2ar  P1ar  1 4.700000e-01    3.390000e+00
  P2ar  N6ar  1 4.700000e-01    3.390000e+00
  P2ar  N5ar  1 4.700000e-01    3.240000e+00
  P2ar  N4ar  1 4.700000e-01    3.240000e+00
  P2ar  N3ar  1 4.700000e-01    3.070000e+00
  P2ar  N2ar  1 4.700000e-01    3.070000e+00
  P2ar  N1ar  1 4.700000e-01    3.070000e+00
  P1ar  N6ar  1 4.700000e-01    3.390000e+00
  P1ar  N5ar  1 4.700000e-01    3.240000e+00
  P1ar  N4ar  1 4.700000e-01    3.240000e+00
  P1ar  N3ar  1 4.700000e-01    3.070000e+00
  P1ar  N2ar  1 4.700000e-01    3.070000e+00
  P1ar  N1ar  1 4.700000e-01    3.070000e+00
  N6ar  N5ar  1 4.700000e-01    3.390000e+00
  N6ar  N4ar  1 4.700000e-01    3.390000e+00
  N6ar  N3ar  1 4.700000e-01    3.240000e+00
  N6ar  N2ar  1 4.700000e-01    3.070000e+00
  N6ar  N1ar  1 4.700000e-01    3.070000e+00
  N5ar  N4ar  1 4.700000e-01    3.240000e+00
  N5ar  N3ar  1 4.700000e-01    3.240000e+00
  N5ar  N2ar  1 4.700000e-01    3.240000e+00
  N5ar  N1ar  1 4.700000e-01    3.070000e+00
  N4ar  N3ar  1 4.700000e-01    3.240000e+00
  N4ar  N2ar  1 4.700000e-01    3.240000e+00
  N4ar  N1ar  1 4.700000e-01    3.070000e+00
  N3ar  N2ar  1 4.700000e-01    3.240000e+00
  N3ar  N1ar  1 4.700000e-01    3.070000e+00
  N2ar  N1ar  1 4.700000e-01    3.070000e+00
   P6d   P6d  1 4.700000e-01    4.480000e+00
   P6d   P5d  1 4.700000e-01    4.250000e+00
   P6d   P4d  1 4.700000e-01    4.060000e+00
   P6d   P3d  1 4.700000e-01    3.880000e+00
   P6d   P2d  1 4.700000e-01    3.880000e+00
   P6d   P1d  1 4.700000e-01    3.690000e+00
   P6d   N6d  1 4.700000e-01    3.520000e+00
   P6d   N5d  1 4.700000e-01    3.240000e+00
   P6d   N4d  1 4.700000e-01    3.240000e+00
   P6d   N3d  1 4.700000e-01    3.240000e+00
   P6d   N2d  1 4.700000e-01    3.070000e+00
   P6d   N1d  1 4.700000e-01    2.960000e+00
   P5d   P5d  1 4.700000e-01    4.060000e+00
   P5d   P4d  1 4.700000e-01    3.880000e+00
   P5d   P3d  1 4.700000e-01    3.690000e+00
   P5d   P2d  1 4.700000e-01    3.690000e+00
   P5d   P1d  1 4.700000e-01    3.520000e+00
   P5d   N6d  1 4.700000e-01    3.390000e+00
   P5d   N5d  1 4.700000e-01    3.240000e+00
   P5d   N4d  1 4.700000e-01    3.240000e+00
   P5d   N3d  1 4.700000e-01    3.240000e+00
   P5d   N2d  1 4.700000e-01    3.070000e+00
   P5d   N1d  1 4.700000e-01    2.960000e+00
   P4d   P4d  1 4.700000e-01    3.880000e+00
   P4d   P3d  1 4.700000e-01    3.690000e+00
   P4d   P2d  1 4.700000e-01    3.690000e+00
   P4d   P1d  1 4.700000e-01    3.520000e+00
   P4d   N6d  1 4.700000e-01    3.390000e+00
   P4d   N5d  1 4.700000e-01    3.240000e+00
   P4d   N4d  1 4.700000e-01    3.240000e+00
   P4d   N3d  1 4.700000e-01    3.240000e+00
   P4d   N2d  1 4.700000e-01    3.240000e+00
   P4d   N1d  1 4.700000e-01    3.070000e+00
   P3d   P3d  1 4.700000e-01    3.690000e+00
   P3d   P2d  1 4.700000e-01    3.690000e+00
   P3d   P1d  1 4.700000e-01    3.520000e+00
   P3d   N6d  1 4.700000e-01    3.390000e+00
   P3d   N5d  1 4.700000e-01    3.240000e+00
   P3d   N4d  1 4.700000e-01    3.240000e+00
   P3d   N3d  1 4.700000e-01    3.240000e+00
   P3d   N2d  1 4.700000e-01    3.240000e+00
   P3d   N1d  1 4.700000e-01    3.240000e+00
   P2d   P2d  1 4.700000e-01    3.690000e+00
   P2d   P1d  1 4.700000e-01    3.520000e+00
   P2d   N6d  1 4.700000e-01    3.520000e+00
   P2d   N5d  1 4.700000e-01    3.390000e+00
   P2d   N4d  1 4.700000e-01    3.240000e+00
   P2d   N3d  1 4.700000e-01    3.240000e+00
   P2d   N2d  1 4.700000e-01    3.240000e+00
   P2d   N1d  1 4.700000e-01    3.240000e+00
   P1d   P1d  1 4.700000e-01    3.520000e+00
   P1d   N6d  1 4.700000e-01    3.520000e+00
   P1d   N5d  1 4.700000e-01    3.390000e+00
   P1d   N4d  1 4.700000e-01    3.390000e+00
   P1d   N3d  1 4.700000e-01    3.240000e+00
   P1d   N2d  1 4.700000e-01    3.240000e+00
   P1d   N1d  1 4.700000e-01    3.240000e+00
   N6d   N6d  1 4.700000e-01    3.520000e+00
   N6d   N5d  1 4.700000e-01    3.520000e+00
   N6d   N4d  1 4.700000e-01    3.520000e+00
   N6d   N3d  1 4.700000e-01    3.240000e+00
   N6d   N2d  1 4.700000e-01    3.240000e+00
   N6d   N1d  1 4.700000e-01    3.240000e+00
   N5d   N5d  1 4.700000e-01    3.390000e+00
   N5d   N4d  1 4.700000e-01    3.390000e+00
   N5d   N3d  1 4.700000e-01    3.240000e+00
   N5d   N2d  1 4.700000e-01    3.240000e+00
   N5d   N1d  1 4.700000e-01    3.240000e+00
   N4d   N4d  1 4.700000e-01    3.390000e+00
   N4d   N3d  1 4.700000e-01    3.240000e+00
   N4d   N2d  1 4.700000e-01    3.240000e+00
   N4d   N1d  1 4.700000e-01    3.240000e+00
   N3d   N3d  1 4.700000e-01    3.240000e+00
   N3d   N2d  1 4.700000e-01    3.240000e+00
   N3d   N1d  1 4.700000e-01    3.240000e+00
   N2d   N2d  1 4.700000e-01    3.240000e+00
   N2d   N1d  1 4.700000e-01    3.240000e+00
   N1d   N1d  1 4.700000e-01    3.240000e+00
   P6d  P6dq  1 4.700000e-01    4.990000e+00
   P5d  P5dq  1 4.700000e-01    4.480000e+00
   P4d  P4dq  1 4.700000e-01    4.250000e+00
   P3d  P3dq  1 4.700000e-01    4.060000e+00
   P2d  P2dq  1 4.700000e-01    4.060000e+00
   P1d  P1dq  1 4.700000e-01    3.880000e+00
   N6d  N6dq  1 4.700000e-01    3.880000e+00
   N5d  N5dq  1 4.700000e-01    3.690000e+00
   N4d  N4dq  1 4.700000e-01    3.690000e+00
   N3d  N3dq  1 4.700000e-01    3.520000e+00
   N2d  N2dq  1 4.700000e-01    3.520000e+00
   N1d  N1dq  1 4.700000e-01    3.520000e+00
   P6d  N1dq  1 4.700000e-01    3.240000e+00
   P5d  N1dq  1 4.700000e-01    3.240000e+00
   P4d  N1dq  1 4.700000e-01    3.240000e+00
   P3d  N1dq  1 4.700000e-01    3.390000e+00
   P2d  N1dq  1 4.700000e-01    3.390000e+00
   P1d  N1dq  1 4.700000e-01    3.390000e+00
   N6d  N1dq  1 4.700000e-01    3.390000e+00
   N5d  N1dq  1 4.700000e-01    3.390000e+00
   N4d  N1dq  1 4.700000e-01    3.390000e+00
   N3d  N1dq  1 4.700000e-01    3.390000e+00
   N2d  N1dq  1 4.700000e-01    3.390000e+00
   P6d  N2dq  1 4.700000e-01    3.240000e+00
   P5d  N2dq  1 4.700000e-01    3.240000e+00
   P4d  N2dq  1 4.700000e-01    3.390000e+00
   P3d  N2dq  1 4.700000e-01    3.390000e+00
   P2d  N2dq  1 4.700000e-01    3.390000e+00
   P1d  N2dq  1 4.700000e-01    3.390000e+00
   N6d  N2dq  1 4.700000e-01    3.390000e+00
   N5d  N2dq  1 4.700000e-01    3.520000e+00
   N4d  N2dq  1 4.700000e-01    3.520000e+00
   N3d  N2dq  1 4.700000e-01    3.520000e+00
   P6d  N3dq  1 4.700000e-01    3.390000e+00
   P5d  N3dq  1 4.700000e-01    3.390000e+00
   P4d  N3dq  1 4.700000e-01    3.390000e+00
   P3d  N3dq  1 4.700000e-01    3.390000e+00
   P2d  N3dq  1 4.700000e-01    3.390000e+00
   P1d  N3dq  1 4.700000e-01    3.390000e+00
   N6d  N3dq  1 4.700000e-01    3.520000e+00
   N5d  N3dq  1 4.700000e-01    3.520000e+00
   N4d  N3dq  1 4.700000e-01    3.520000e+00
   P6d  N4dq  1 4.700000e-01    3.390000e+00
   P5d  N4dq  1 4.700000e-01    3.520000e+00
   P4d  N4dq  1 4.700000e-01    3.520000e+00
   P3d  N4dq  1 4.700000e-01    3.520000e+00
   P2d  N4dq  1 4.700000e-01    3.520000e+00
   P1d  N4dq  1 4.700000e-01    3.690000e+00
   N6d  N4dq  1 4.700000e-01    3.880000e+00
   N5d  N4dq  1 4.700000e-01    3.690000e+00
   P6d  N5dq  1 4.700000e-01    3.520000e+00
   P5d  N5dq  1 4.700000e-01    3.520000e+00
   P4d  N5dq  1 4.700000e-01    3.520000e+00
   P3d  N5dq  1 4.700000e-01    3.520000e+00
   P2d  N5dq  1 4.700000e-01    3.690000e+00
   P1d  N5dq  1 4.700000e-01    3.690000e+00
   N6d  N5dq  1 4.700000e-01    3.880000e+00
   P6d  N6dq  1 4.700000e-01    3.880000e+00
   P5d  N6dq  1 4.700000e-01    3.690000e+00
   P4d  N6dq  1 4.700000e-01    3.690000e+00
   P3d  N6dq  1 4.700000e-01    3.690000e+00
   P2d  N6dq  1 4.700000e-01    3.880000e+00
   P1d  N6dq  1 4.700000e-01    3.880000e+00
   P6d  P1dq  1 4.700000e-01    4.060000e+00
   P5d  P1dq  1 4.700000e-01    3.880000e+00
   P4d  P1dq  1 4.700000e-01    3.880000e+00
   P3d  P1dq  1 4.700000e-01    3.880000e+00
   P2d  P1dq  1 4.700000e-01    3.880000e+00
   P6d  P2dq  1 4.700000e-01    4.250000e+00
   P5d  P2dq  1 4.700000e-01    4.060000e+00
   P4d  P2dq  1 4.700000e-01    4.060000e+00
   P3d  P2dq  1 4.700000e-01    4.060000e+00
   P6d  P3dq  1 4.700000e-01    4.250000e+00
   P5d  P3dq  1 4.700000e-01    4.060000e+00
   P4d  P3dq  1 4.700000e-01    4.060000e+00
   P6d  P4dq  1 4.700000e-01    4.480000e+00
   P5d  P4dq  1 4.700000e-01    4.250000e+00
   P6d  P5dq  1 4.700000e-01    4.730000e+00
   P6d  P6dh  1 4.700000e-01    4.480000e+00
   P5d  P5dh  1 4.700000e-01    4.060000e+00
   P4d  P4dh  1 4.700000e-01    3.880000e+00
   P3d  P3dh  1 4.700000e-01    3.690000e+00
   P2d  P2dh  1 4.700000e-01    3.690000e+00
   P1d  P1dh  1 4.700000e-01    3.520000e+00
   N6d  N6dh  1 4.700000e-01    3.520000e+00
   N5d  N5dh  1 4.700000e-01    3.390000e+00
   N4d  N4dh  1 4.700000e-01    3.390000e+00
   N3d  N3dh  1 4.700000e-01    3.240000e+00
   N2d  N2dh  1 4.700000e-01    3.240000e+00
   N1d  N1dh  1 4.700000e-01    3.240000e+00
   P6d  N1dh  1 4.700000e-01    2.960000e+00
   P5d  N1dh  1 4.700000e-01    2.960000e+00
   P4d  N1dh  1 4.700000e-01    3.070000e+00
   P3d  N1dh  1 4.700000e-01    3.240000e+00
   P2d  N1dh  1 4.700000e-01    3.240000e+00
   P1d  N1dh  1 4.700000e-01    3.240000e+00
   N6d  N1dh  1 4.700000e-01    3.240000e+00
   N5d  N1dh  1 4.700000e-01    3.240000e+00
   N4d  N1dh  1 4.700000e-01    3.240000e+00
   N3d  N1dh  1 4.700000e-01    3.240000e+00
   N2d  N1dh  1 4.700000e-01    3.240000e+00
   P6d  N2dh  1 4.700000e-01    3.070000e+00
   P5d  N2dh  1 4.700000e-01    3.070000e+00
   P4d  N2dh  1 4.700000e-01    3.240000e+00
   P3d  N2dh  1 4.700000e-01    3.240000e+00
   P2d  N2dh  1 4.700000e-01    3.240000e+00
   P1d  N2dh  1 4.700000e-01    3.240000e+00
   N6d  N2dh  1 4.700000e-01    3.240000e+00
   N5d  N2dh  1 4.700000e-01    3.240000e+00
   N4d  N2dh  1 4.700000e-01    3.240000e+00
   N3d  N2dh  1 4.700000e-01    3.240000e+00
   P6d  N3dh  1 4.700000e-01    3.240000e+00
   P5d  N3dh  1 4.700000e-01    3.240000e+00
   P4d  N3dh  1 4.700000e-01    3.240000e+00
   P3d  N3dh  1 4.700000e-01    3.240000e+00
   P2d  N3dh  1 4.700000e-01    3.240000e+00
   P1d  N3dh  1 4.700000e-01    3.240000e+00
   N6d  N3dh  1 4.700000e-01    3.240000e+00
   N5d  N3dh  1 4.700000e-01    3.240000e+00
   N4d  N3dh  1 4.700000e-01    3.240000e+00
   P6d  N4dh  1 4.700000e-01    3.240000e+00
   P5d  N4dh  1 4.700000e-01    3.240000e+00
   P4d  N4dh  1 4.700000e-01    3.240000e+00
   P3d  N4dh  1 4.700000e-01    3.240000e+00
   P2d  N4dh  1 4.700000e-01    3.240000e+00
   P1d  N4dh  1 4.700000e-01    3.390000e+00
   N6d  N4dh  1 4.700000e-01    3.520000e+00
   N5d  N4dh  1 4.700000e-01    3.390000e+00
   P6d  N5dh  1 4.700000e-01    3.240000e+00
   P5d  N5dh  1 4.700000e-01    3.240000e+00
   P4d  N5dh  1 4.700000e-01    3.240000e+00
   P3d  N5dh  1 4.700000e-01    3.240000e+00
   P2d  N5dh  1 4.700000e-01    3.390000e+00
   P1d  N5dh  1 4.700000e-01    3.390000e+00
   N6d  N5dh  1 4.700000e-01    3.520000e+00
   P6d  N6dh  1 4.700000e-01    3.520000e+00
   P5d  N6dh  1 4.700000e-01    3.390000e+00
   P4d  N6dh  1 4.700000e-01    3.390000e+00
   P3d  N6dh  1 4.700000e-01    3.390000e+00
   P2d  N6dh  1 4.700000e-01    3.520000e+00
   P1d  N6dh  1 4.700000e-01    3.520000e+00
   P6d  P1dh  1 4.700000e-01    3.690000e+00
   P5d  P1dh  1 4.700000e-01    3.520000e+00
   P4d  P1dh  1 4.700000e-01    3.520000e+00
   P3d  P1dh  1 4.700000e-01    3.520000e+00
   P2d  P1dh  1 4.700000e-01    3.520000e+00
   P6d  P2dh  1 4.700000e-01    3.880000e+00
   P5d  P2dh  1 4.700000e-01    3.690000e+00
   P4d  P2dh  1 4.700000e-01    3.690000e+00
   P3d  P2dh  1 4.700000e-01    3.690000e+00
   P6d  P3dh  1 4.700000e-01    3.880000e+00
   P5d  P3dh  1 4.700000e-01    3.690000e+00
   P4d  P3dh  1 4.700000e-01    3.690000e+00
   P6d  P4dh  1 4.700000e-01    4.060000e+00
   P5d  P4dh  1 4.700000e-01    3.880000e+00
   P6d  P5dh  1 4.700000e-01    4.250000e+00
   P6d  P6dr  1 4.700000e-01    4.480000e+00
   P5d  P5dr  1 4.700000e-01    4.060000e+00
   P4d  P4dr  1 4.700000e-01    3.880000e+00
   P3d  P3dr  1 4.700000e-01    3.690000e+00
   P2d  P2dr  1 4.700000e-01    3.690000e+00
   P1d  P1dr  1 4.700000e-01    3.520000e+00
   N6d  N6dr  1 4.700000e-01    3.520000e+00
   N5d  N5dr  1 4.700000e-01    3.390000e+00
   N4d  N4dr  1 4.700000e-01    3.390000e+00
   N3d  N3dr  1 4.700000e-01    3.240000e+00
   N2d  N2dr  1 4.700000e-01    3.240000e+00
   N1d  N1dr  1 4.700000e-01    3.240000e+00
   P6d  N1dr  1 4.700000e-01    2.960000e+00
   P5d  N1dr  1 4.700000e-01    2.960000e+00
   P4d  N1dr  1 4.700000e-01    3.070000e+00
   P3d  N1dr  1 4.700000e-01    3.240000e+00
   P2d  N1dr  1 4.700000e-01    3.240000e+00
   P1d  N1dr  1 4.700000e-01    3.240000e+00
   N6d  N1dr  1 4.700000e-01    3.240000e+00
   N5d  N1dr  1 4.700000e-01    3.240000e+00
   N4d  N1dr  1 4.700000e-01    3.240000e+00
   N3d  N1dr  1 4.700000e-01    3.240000e+00
   N2d  N1dr  1 4.700000e-01    3.240000e+00
   P6d  N2dr  1 4.700000e-01    3.070000e+00
   P5d  N2dr  1 4.700000e-01    3.070000e+00
   P4d  N2dr  1 4.700000e-01    3.240000e+00
   P3d  N2dr  1 4.700000e-01    3.240000e+00
   P2d  N2dr  1 4.700000e-01    3.240000e+00
   P1d  N2dr  1 4.700000e-01    3.240000e+00
   N6d  N2dr  1 4.700000e-01    3.240000e+00
   N5d  N2dr  1 4.700000e-01    3.240000e+00
   N4d  N2dr  1 4.700000e-01    3.240000e+00
   N3d  N2dr  1 4.700000e-01    3.240000e+00
   P6d  N3dr  1 4.700000e-01    3.240000e+00
   P5d  N3dr  1 4.700000e-01    3.240000e+00
   P4d  N3dr  1 4.700000e-01    3.240000e+00
   P3d  N3dr  1 4.700000e-01    3.240000e+00
   P2d  N3dr  1 4.700000e-01    3.240000e+00
   P1d  N3dr  1 4.700000e-01    3.240000e+00
   N6d  N3dr  1 4.700000e-01    3.240000e+00
   N5d  N3dr  1 4.700000e-01    3.240000e+00
   N4d  N3dr  1 4.700000e-01    3.240000e+00
   P6d  N4dr  1 4.700000e-01    3.240000e+00
   P5d  N4dr  1 4.700000e-01    3.240000e+00
   P4d  N4dr  1 4.700000e-01    3.240000e+00
   P3d  N4dr  1 4.700000e-01    3.240000e+00
   P2d  N4dr  1 4.700000e-01    3.240000e+00
   P1d  N4dr  1 4.700000e-01    3.390000e+00
   N6d  N4dr  1 4.700000e-01    3.520000e+00
   N5d  N4dr  1 4.700000e-01    3.390000e+00
   P6d  N5dr  1 4.700000e-01    3.240000e+00
   P5d  N5dr  1 4.700000e-01    3.240000e+00
   P4d  N5dr  1 4.700000e-01    3.240000e+00
   P3d  N5dr  1 4.700000e-01    3.240000e+00
   P2d  N5dr  1 4.700000e-01    3.390000e+00
   P1d  N5dr  1 4.700000e-01    3.390000e+00
   N6d  N5dr  1 4.700000e-01    3.520000e+00
   P6d  N6dr  1 4.700000e-01    3.520000e+00
   P5d  N6dr  1 4.700000e-01    3.390000e+00
   P4d  N6dr  1 4.700000e-01    3.390000e+00
   P3d  N6dr  1 4.700000e-01    3.390000e+00
   P2d  N6dr  1 4.700000e-01    3.520000e+00
   P1d  N6dr  1 4.700000e-01    3.520000e+00
   P6d  P1dr  1 4.700000e-01    3.690000e+00
   P5d  P1dr  1 4.700000e-01    3.520000e+00
   P4d  P1dr  1 4.700000e-01    3.520000e+00
   P3d  P1dr  1 4.700000e-01    3.520000e+00
   P2d  P1dr  1 4.700000e-01    3.520000e+00
   P6d  P2dr  1 4.700000e-01    3.880000e+00
   P5d  P2dr  1 4.700000e-01    3.690000e+00
   P4d  P2dr  1 4.700000e-01    3.690000e+00
   P3d  P2dr  1 4.700000e-01    3.690000e+00
   P6d  P3dr  1 4.700000e-01    3.880000e+00
   P5d  P3dr  1 4.700000e-01    3.690000e+00
   P4d  P3dr  1 4.700000e-01    3.690000e+00
   P6d  P4dr  1 4.700000e-01    4.060000e+00
   P5d  P4dr  1 4.700000e-01    3.880000e+00
   P6d  P5dr  1 4.700000e-01    4.250000e+00
  P6dq   P5d  1 4.700000e-01    4.730000e+00
  P6dq   P4d  1 4.700000e-01    4.480000e+00
  P6dq   P3d  1 4.700000e-01    4.250000e+00
  P6dq   P2d  1 4.700000e-01    4.250000e+00
  P6dq   P1d  1 4.700000e-01    4.060000e+00
  P6dq   N6d  1 4.700000e-01    3.880000e+00
  P6dq   N5d  1 4.700000e-01    3.520000e+00
  P6dq   N4d  1 4.700000e-01    3.390000e+00
  P6dq   N3d  1 4.700000e-01    3.390000e+00
  P6dq   N2d  1 4.700000e-01    3.240000e+00
  P6dq   N1d  1 4.700000e-01    3.240000e+00
  P5dq   P4d  1 4.700000e-01    4.250000e+00
  P5dq   P3d  1 4.700000e-01    4.060000e+00
  P5dq   P2d  1 4.700000e-01    4.060000e+00
  P5dq   P1d  1 4.700000e-01    3.880000e+00
  P5dq   N6d  1 4.700000e-01    3.690000e+00
  P5dq   N5d  1 4.700000e-01    3.520000e+00
  P5dq   N4d  1 4.700000e-01    3.520000e+00
  P5dq   N3d  1 4.700000e-01    3.390000e+00
  P5dq   N2d  1 4.700000e-01    3.240000e+00
  P5dq   N1d  1 4.700000e-01    3.240000e+00
  P4dq   P3d  1 4.700000e-01    4.060000e+00
  P4dq   P2d  1 4.700000e-01    4.060000e+00
  P4dq   P1d  1 4.700000e-01    3.880000e+00
  P4dq   N6d  1 4.700000e-01    3.690000e+00
  P4dq   N5d  1 4.700000e-01    3.520000e+00
  P4dq   N4d  1 4.700000e-01    3.520000e+00
  P4dq   N3d  1 4.700000e-01    3.390000e+00
  P4dq   N2d  1 4.700000e-01    3.390000e+00
  P4dq   N1d  1 4.700000e-01    3.240000e+00
  P3dq   P2d  1 4.700000e-01    4.060000e+00
  P3dq   P1d  1 4.700000e-01    3.880000e+00
  P3dq   N6d  1 4.700000e-01    3.690000e+00
  P3dq   N5d  1 4.700000e-01    3.520000e+00
  P3dq   N4d  1 4.700000e-01    3.520000e+00
  P3dq   N3d  1 4.700000e-01    3.390000e+00
  P3dq   N2d  1 4.700000e-01    3.390000e+00
  P3dq   N1d  1 4.700000e-01    3.390000e+00
  P2dq   P1d  1 4.700000e-01    3.880000e+00
  P2dq   N6d  1 4.700000e-01    3.880000e+00
  P2dq   N5d  1 4.700000e-01    3.690000e+00
  P2dq   N4d  1 4.700000e-01    3.520000e+00
  P2dq   N3d  1 4.700000e-01    3.390000e+00
  P2dq   N2d  1 4.700000e-01    3.390000e+00
  P2dq   N1d  1 4.700000e-01    3.390000e+00
  P1dq   N6d  1 4.700000e-01    3.880000e+00
  P1dq   N5d  1 4.700000e-01    3.690000e+00
  P1dq   N4d  1 4.700000e-01    3.690000e+00
  P1dq   N3d  1 4.700000e-01    3.390000e+00
  P1dq   N2d  1 4.700000e-01    3.390000e+00
  P1dq   N1d  1 4.700000e-01    3.390000e+00
  N6dq   N5d  1 4.700000e-01    3.880000e+00
  N6dq   N4d  1 4.700000e-01    3.880000e+00
  N6dq   N3d  1 4.700000e-01    3.520000e+00
  N6dq   N2d  1 4.700000e-01    3.390000e+00
  N6dq   N1d  1 4.700000e-01    3.390000e+00
  N5dq   N4d  1 4.700000e-01    3.690000e+00
  N5dq   N3d  1 4.700000e-01    3.520000e+00
  N5dq   N2d  1 4.700000e-01    3.520000e+00
  N5dq   N1d  1 4.700000e-01    3.390000e+00
  N4dq   N3d  1 4.700000e-01    3.520000e+00
  N4dq   N2d  1 4.700000e-01    3.520000e+00
  N4dq   N1d  1 4.700000e-01    3.390000e+00
  N3dq   N2d  1 4.700000e-01    3.520000e+00
  N3dq   N1d  1 4.700000e-01    3.390000e+00
  N2dq   N1d  1 4.700000e-01    3.390000e+00
  P6dq  P6dq  1 4.700000e-01    4.990000e+00
  P6dq  P5dq  1 4.700000e-01    4.730000e+00
  P6dq  P4dq  1 4.700000e-01    4.480000e+00
  P6dq  P3dq  1 4.700000e-01    4.250000e+00
  P6dq  P2dq  1 4.700000e-01    4.250000e+00
  P6dq  P1dq  1 4.700000e-01    4.060000e+00
  P6dq  N6dq  1 4.700000e-01    3.880000e+00
  P6dq  N5dq  1 4.700000e-01    3.520000e+00
  P6dq  N4dq  1 4.700000e-01    3.390000e+00
  P6dq  N3dq  1 4.700000e-01    3.390000e+00
  P6dq  N2dq  1 4.700000e-01    3.240000e+00
  P6dq  N1dq  1 4.700000e-01    3.240000e+00
  P5dq  P5dq  1 4.700000e-01    4.480000e+00
  P5dq  P4dq  1 4.700000e-01    4.250000e+00
  P5dq  P3dq  1 4.700000e-01    4.060000e+00
  P5dq  P2dq  1 4.700000e-01    4.060000e+00
  P5dq  P1dq  1 4.700000e-01    3.880000e+00
  P5dq  N6dq  1 4.700000e-01    3.690000e+00
  P5dq  N5dq  1 4.700000e-01    3.520000e+00
  P5dq  N4dq  1 4.700000e-01    3.520000e+00
  P5dq  N3dq  1 4.700000e-01    3.390000e+00
  P5dq  N2dq  1 4.700000e-01    3.240000e+00
  P5dq  N1dq  1 4.700000e-01    3.240000e+00
  P4dq  P4dq  1 4.700000e-01    4.250000e+00
  P4dq  P3dq  1 4.700000e-01    4.060000e+00
  P4dq  P2dq  1 4.700000e-01    4.060000e+00
  P4dq  P1dq  1 4.700000e-01    3.880000e+00
  P4dq  N6dq  1 4.700000e-01    3.690000e+00
  P4dq  N5dq  1 4.700000e-01    3.520000e+00
  P4dq  N4dq  1 4.700000e-01    3.520000e+00
  P4dq  N3dq  1 4.700000e-01    3.390000e+00
  P4dq  N2dq  1 4.700000e-01    3.390000e+00
  P4dq  N1dq  1 4.700000e-01    3.240000e+00
  P3dq  P3dq  1 4.700000e-01    4.060000e+00
  P3dq  P2dq  1 4.700000e-01    4.060000e+00
  P3dq  P1dq  1 4.700000e-01    3.880000e+00
  P3dq  N6dq  1 4.700000e-01    3.690000e+00
  P3dq  N5dq  1 4.700000e-01    3.520000e+00
  P3dq  N4dq  1 4.700000e-01    3.520000e+00
  P3dq  N3dq  1 4.700000e-01    3.390000e+00
  P3dq  N2dq  1 4.700000e-01    3.390000e+00
  P3dq  N1dq  1 4.700000e-01    3.390000e+00
  P2dq  P2dq  1 4.700000e-01    4.060000e+00
  P2dq  P1dq  1 4.700000e-01    3.880000e+00
  P2dq  N6dq  1 4.700000e-01    3.880000e+00
  P2dq  N5dq  1 4.700000e-01    3.690000e+00
  P2dq  N4dq  1 4.700000e-01    3.520000e+00
  P2dq  N3dq  1 4.700000e-01    3.390000e+00
  P2dq  N2dq  1 4.700000e-01    3.390000e+00
  P2dq  N1dq  1 4.700000e-01    3.390000e+00
  P1dq  P1dq  1 4.700000e-01    3.880000e+00
  P1dq  N6dq  1 4.700000e-01    3.880000e+00
  P1dq  N5dq  1 4.700000e-01    3.690000e+00
  P1dq  N4dq  1 4.700000e-01    3.690000e+00
  P1dq  N3dq  1 4.700000e-01    3.390000e+00
  P1dq  N2dq  1 4.700000e-01    3.390000e+00
  P1dq  N1dq  1 4.700000e-01    3.390000e+00
  N6dq  N6dq  1 4.700000e-01    3.880000e+00
  N6dq  N5dq  1 4.700000e-01    3.880000e+00
  N6dq  N4dq  1 4.700000e-01    3.880000e+00
  N6dq  N3dq  1 4.700000e-01    3.520000e+00
  N6dq  N2dq  1 4.700000e-01    3.390000e+00
  N6dq  N1dq  1 4.700000e-01    3.390000e+00
  N5dq  N5dq  1 4.700000e-01    3.690000e+00
  N5dq  N4dq  1 4.700000e-01    3.690000e+00
  N5dq  N3dq  1 4.700000e-01    3.520000e+00
  N5dq  N2dq  1 4.700000e-01    3.520000e+00
  N5dq  N1dq  1 4.700000e-01    3.390000e+00
  N4dq  N4dq  1 4.700000e-01    3.690000e+00
  N4dq  N3dq  1 4.700000e-01    3.520000e+00
  N4dq  N2dq  1 4.700000e-01    3.520000e+00
  N4dq  N1dq  1 4.700000e-01    3.390000e+00
  N3dq  N3dq  1 4.700000e-01    3.520000e+00
  N3dq  N2dq  1 4.700000e-01    3.520000e+00
  N3dq  N1dq  1 4.700000e-01    3.390000e+00
  N2dq  N2dq  1 4.700000e-01    3.520000e+00
  N2dq  N1dq  1 4.700000e-01    3.390000e+00
  N1dq  N1dq  1 4.700000e-01    3.520000e+00
  P6dq  P5dh  1 4.700000e-01    4.730000e+00
  P6dq  P4dh  1 4.700000e-01    4.480000e+00
  P5dq  P4dh  1 4.700000e-01    4.250000e+00
  P6dq  P3dh  1 4.700000e-01    4.250000e+00
  P5dq  P3dh  1 4.700000e-01    4.060000e+00
  P4dq  P3dh  1 4.700000e-01    4.060000e+00
  P6dq  P2dh  1 4.700000e-01    4.250000e+00
  P5dq  P2dh  1 4.700000e-01    4.060000e+00
  P4dq  P2dh  1 4.700000e-01    4.060000e+00
  P3dq  P2dh  1 4.700000e-01    4.060000e+00
  P6dq  P1dh  1 4.700000e-01    4.060000e+00
  P5dq  P1dh  1 4.700000e-01    3.880000e+00
  P4dq  P1dh  1 4.700000e-01    3.880000e+00
  P3dq  P1dh  1 4.700000e-01    3.880000e+00
  P2dq  P1dh  1 4.700000e-01    3.880000e+00
  P6dq  N6dh  1 4.700000e-01    3.880000e+00
  P5dq  N6dh  1 4.700000e-01    3.690000e+00
  P4dq  N6dh  1 4.700000e-01    3.690000e+00
  P3dq  N6dh  1 4.700000e-01    3.690000e+00
  P2dq  N6dh  1 4.700000e-01    3.880000e+00
  P1dq  N6dh  1 4.700000e-01    3.880000e+00
  P6dq  N5dh  1 4.700000e-01    3.520000e+00
  P5dq  N5dh  1 4.700000e-01    3.520000e+00
  P4dq  N5dh  1 4.700000e-01    3.520000e+00
  P3dq  N5dh  1 4.700000e-01    3.520000e+00
  P2dq  N5dh  1 4.700000e-01    3.690000e+00
  P1dq  N5dh  1 4.700000e-01    3.690000e+00
  N6dq  N5dh  1 4.700000e-01    3.880000e+00
  P6dq  N4dh  1 4.700000e-01    3.390000e+00
  P5dq  N4dh  1 4.700000e-01    3.520000e+00
  P4dq  N4dh  1 4.700000e-01    3.520000e+00
  P3dq  N4dh  1 4.700000e-01    3.520000e+00
  P2dq  N4dh  1 4.700000e-01    3.520000e+00
  P1dq  N4dh  1 4.700000e-01    3.690000e+00
  N6dq  N4dh  1 4.700000e-01    3.880000e+00
  N5dq  N4dh  1 4.700000e-01    3.690000e+00
  P6dq  N3dh  1 4.700000e-01    3.390000e+00
  P5dq  N3dh  1 4.700000e-01    3.390000e+00
  P4dq  N3dh  1 4.700000e-01    3.390000e+00
  P3dq  N3dh  1 4.700000e-01    3.390000e+00
  P2dq  N3dh  1 4.700000e-01    3.390000e+00
  P1dq  N3dh  1 4.700000e-01    3.390000e+00
  N6dq  N3dh  1 4.700000e-01    3.520000e+00
  N5dq  N3dh  1 4.700000e-01    3.520000e+00
  N4dq  N3dh  1 4.700000e-01    3.520000e+00
  P6dq  N2dh  1 4.700000e-01    3.240000e+00
  P5dq  N2dh  1 4.700000e-01    3.240000e+00
  P4dq  N2dh  1 4.700000e-01    3.390000e+00
  P3dq  N2dh  1 4.700000e-01    3.390000e+00
  P2dq  N2dh  1 4.700000e-01    3.390000e+00
  P1dq  N2dh  1 4.700000e-01    3.390000e+00
  N6dq  N2dh  1 4.700000e-01    3.390000e+00
  N5dq  N2dh  1 4.700000e-01    3.520000e+00
  N4dq  N2dh  1 4.700000e-01    3.520000e+00
  N3dq  N2dh  1 4.700000e-01    3.520000e+00
  P6dq  N1dh  1 4.700000e-01    3.240000e+00
  P5dq  N1dh  1 4.700000e-01    3.240000e+00
  P4dq  N1dh  1 4.700000e-01    3.240000e+00
  P3dq  N1dh  1 4.700000e-01    3.390000e+00
  P2dq  N1dh  1 4.700000e-01    3.390000e+00
  P1dq  N1dh  1 4.700000e-01    3.390000e+00
  N6dq  N1dh  1 4.700000e-01    3.390000e+00
  N5dq  N1dh  1 4.700000e-01    3.390000e+00
  N4dq  N1dh  1 4.700000e-01    3.390000e+00
  N3dq  N1dh  1 4.700000e-01    3.390000e+00
  N2dq  N1dh  1 4.700000e-01    3.390000e+00
  P6dq  P5dr  1 4.700000e-01    4.730000e+00
  P6dq  P4dr  1 4.700000e-01    4.480000e+00
  P5dq  P4dr  1 4.700000e-01    4.250000e+00
  P6dq  P3dr  1 4.700000e-01    4.250000e+00
  P5dq  P3dr  1 4.700000e-01    4.060000e+00
  P4dq  P3dr  1 4.700000e-01    4.060000e+00
  P6dq  P2dr  1 4.700000e-01    4.250000e+00
  P5dq  P2dr  1 4.700000e-01    4.060000e+00
  P4dq  P2dr  1 4.700000e-01    4.060000e+00
  P3dq  P2dr  1 4.700000e-01    4.060000e+00
  P6dq  P1dr  1 4.700000e-01    4.060000e+00
  P5dq  P1dr  1 4.700000e-01    3.880000e+00
  P4dq  P1dr  1 4.700000e-01    3.880000e+00
  P3dq  P1dr  1 4.700000e-01    3.880000e+00
  P2dq  P1dr  1 4.700000e-01    3.880000e+00
  P6dq  N6dr  1 4.700000e-01    3.880000e+00
  P5dq  N6dr  1 4.700000e-01    3.690000e+00
  P4dq  N6dr  1 4.700000e-01    3.690000e+00
  P3dq  N6dr  1 4.700000e-01    3.690000e+00
  P2dq  N6dr  1 4.700000e-01    3.880000e+00
  P1dq  N6dr  1 4.700000e-01    3.880000e+00
  P6dq  N5dr  1 4.700000e-01    3.520000e+00
  P5dq  N5dr  1 4.700000e-01    3.520000e+00
  P4dq  N5dr  1 4.700000e-01    3.520000e+00
  P3dq  N5dr  1 4.700000e-01    3.520000e+00
  P2dq  N5dr  1 4.700000e-01    3.690000e+00
  P1dq  N5dr  1 4.700000e-01    3.690000e+00
  N6dq  N5dr  1 4.700000e-01    3.880000e+00
  P6dq  N4dr  1 4.700000e-01    3.390000e+00
  P5dq  N4dr  1 4.700000e-01    3.520000e+00
  P4dq  N4dr  1 4.700000e-01    3.520000e+00
  P3dq  N4dr  1 4.700000e-01    3.520000e+00
  P2dq  N4dr  1 4.700000e-01    3.520000e+00
  P1dq  N4dr  1 4.700000e-01    3.690000e+00
  N6dq  N4dr  1 4.700000e-01    3.880000e+00
  N5dq  N4dr  1 4.700000e-01    3.690000e+00
  P6dq  N3dr  1 4.700000e-01    3.390000e+00
  P5dq  N3dr  1 4.700000e-01    3.390000e+00
  P4dq  N3dr  1 4.700000e-01    3.390000e+00
  P3dq  N3dr  1 4.700000e-01    3.390000e+00
  P2dq  N3dr  1 4.700000e-01    3.390000e+00
  P1dq  N3dr  1 4.700000e-01    3.390000e+00
  N6dq  N3dr  1 4.700000e-01    3.520000e+00
  N5dq  N3dr  1 4.700000e-01    3.520000e+00
  N4dq  N3dr  1 4.700000e-01    3.520000e+00
  P6dq  N2dr  1 4.700000e-01    3.240000e+00
  P5dq  N2dr  1 4.700000e-01    3.240000e+00
  P4dq  N2dr  1 4.700000e-01    3.390000e+00
  P3dq  N2dr  1 4.700000e-01    3.390000e+00
  P2dq  N2dr  1 4.700000e-01    3.390000e+00
  P1dq  N2dr  1 4.700000e-01    3.390000e+00
  N6dq  N2dr  1 4.700000e-01    3.390000e+00
  N5dq  N2dr  1 4.700000e-01    3.520000e+00
  N4dq  N2dr  1 4.700000e-01    3.520000e+00
  N3dq  N2dr  1 4.700000e-01    3.520000e+00
  P6dq  N1dr  1 4.700000e-01    3.240000e+00
  P5dq  N1dr  1 4.700000e-01    3.240000e+00
  P4dq  N1dr  1 4.700000e-01    3.240000e+00
  P3dq  N1dr  1 4.700000e-01    3.390000e+00
  P2dq  N1dr  1 4.700000e-01    3.390000e+00
  P1dq  N1dr  1 4.700000e-01    3.390000e+00
  N6dq  N1dr  1 4.700000e-01    3.390000e+00
  N5dq  N1dr  1 4.700000e-01    3.390000e+00
  N4dq  N1dr  1 4.700000e-01    3.390000e+00
  N3dq  N1dr  1 4.700000e-01    3.390000e+00
  N2dq  N1dr  1 4.700000e-01    3.390000e+00
  P6dh   P5d  1 4.700000e-01    4.250000e+00
  P6dh   P4d  1 4.700000e-01    4.060000e+00
  P6dh   P3d  1 4.700000e-01    3.880000e+00
  P6dh   P2d  1 4.700000e-01    3.880000e+00
  P6dh   P1d  1 4.700000e-01    3.690000e+00
  P6dh   N6d  1 4.700000e-01    3.520000e+00
  P6dh   N5d  1 4.700000e-01    3.240000e+00
  P6dh   N4d  1 4.700000e-01    3.240000e+00
  P6dh   N3d  1 4.700000e-01    3.240000e+00
  P6dh   N2d  1 4.700000e-01    3.070000e+00
  P6dh   N1d  1 4.700000e-01    2.960000e+00
  P5dh   P4d  1 4.700000e-01    3.880000e+00
  P5dh   P3d  1 4.700000e-01    3.690000e+00
  P5dh   P2d  1 4.700000e-01    3.690000e+00
  P5dh   P1d  1 4.700000e-01    3.520000e+00
  P5dh   N6d  1 4.700000e-01    3.390000e+00
  P5dh   N5d  1 4.700000e-01    3.240000e+00
  P5dh   N4d  1 4.700000e-01    3.240000e+00
  P5dh   N3d  1 4.700000e-01    3.240000e+00
  P5dh   N2d  1 4.700000e-01    3.070000e+00
  P5dh   N1d  1 4.700000e-01    2.960000e+00
  P4dh   P3d  1 4.700000e-01    3.690000e+00
  P4dh   P2d  1 4.700000e-01    3.690000e+00
  P4dh   P1d  1 4.700000e-01    3.520000e+00
  P4dh   N6d  1 4.700000e-01    3.390000e+00
  P4dh   N5d  1 4.700000e-01    3.240000e+00
  P4dh   N4d  1 4.700000e-01    3.240000e+00
  P4dh   N3d  1 4.700000e-01    3.240000e+00
  P4dh   N2d  1 4.700000e-01    3.240000e+00
  P4dh   N1d  1 4.700000e-01    3.070000e+00
  P3dh   P2d  1 4.700000e-01    3.690000e+00
  P3dh   P1d  1 4.700000e-01    3.520000e+00
  P3dh   N6d  1 4.700000e-01    3.390000e+00
  P3dh   N5d  1 4.700000e-01    3.240000e+00
  P3dh   N4d  1 4.700000e-01    3.240000e+00
  P3dh   N3d  1 4.700000e-01    3.240000e+00
  P3dh   N2d  1 4.700000e-01    3.240000e+00
  P3dh   N1d  1 4.700000e-01    3.240000e+00
  P2dh   P1d  1 4.700000e-01    3.520000e+00
  P2dh   N6d  1 4.700000e-01    3.520000e+00
  P2dh   N5d  1 4.700000e-01    3.390000e+00
  P2dh   N4d  1 4.700000e-01    3.240000e+00
  P2dh   N3d  1 4.700000e-01    3.240000e+00
  P2dh   N2d  1 4.700000e-01    3.240000e+00
  P2dh   N1d  1 4.700000e-01    3.240000e+00
  P1dh   N6d  1 4.700000e-01    3.520000e+00
  P1dh   N5d  1 4.700000e-01    3.390000e+00
  P1dh   N4d  1 4.700000e-01    3.390000e+00
  P1dh   N3d  1 4.700000e-01    3.240000e+00
  P1dh   N2d  1 4.700000e-01    3.240000e+00
  P1dh   N1d  1 4.700000e-01    3.240000e+00
  N6dh   N5d  1 4.700000e-01    3.520000e+00
  N6dh   N4d  1 4.700000e-01    3.520000e+00
  N6dh   N3d  1 4.700000e-01    3.240000e+00
  N6dh   N2d  1 4.700000e-01    3.240000e+00
  N6dh   N1d  1 4.700000e-01    3.240000e+00
  N5dh   N4d  1 4.700000e-01    3.390000e+00
  N5dh   N3d  1 4.700000e-01    3.240000e+00
  N5dh   N2d  1 4.700000e-01    3.240000e+00
  N5dh   N1d  1 4.700000e-01    3.240000e+00
  N4dh   N3d  1 4.700000e-01    3.240000e+00
  N4dh   N2d  1 4.700000e-01    3.240000e+00
  N4dh   N1d  1 4.700000e-01    3.240000e+00
  N3dh   N2d  1 4.700000e-01    3.240000e+00
  N3dh   N1d  1 4.700000e-01    3.240000e+00
  N2dh   N1d  1 4.700000e-01    3.240000e+00
  P6dh  P6dq  1 4.700000e-01    4.990000e+00
  P6dh  N1dq  1 4.700000e-01    3.240000e+00
  P6dh  N2dq  1 4.700000e-01    3.240000e+00
  P6dh  N3dq  1 4.700000e-01    3.390000e+00
  P6dh  N4dq  1 4.700000e-01    3.390000e+00
  P6dh  N5dq  1 4.700000e-01    3.520000e+00
  P6dh  N6dq  1 4.700000e-01    3.880000e+00
  P6dh  P1dq  1 4.700000e-01    4.060000e+00
  P6dh  P2dq  1 4.700000e-01    4.250000e+00
  P6dh  P3dq  1 4.700000e-01    4.250000e+00
  P6dh  P4dq  1 4.700000e-01    4.480000e+00
  P6dh  P5dq  1 4.700000e-01    4.730000e+00
  P5dh  P5dq  1 4.700000e-01    4.480000e+00
  P5dh  N1dq  1 4.700000e-01    3.240000e+00
  P5dh  N2dq  1 4.700000e-01    3.240000e+00
  P5dh  N3dq  1 4.700000e-01    3.390000e+00
  P5dh  N4dq  1 4.700000e-01    3.520000e+00
  P5dh  N5dq  1 4.700000e-01    3.520000e+00
  P5dh  N6dq  1 4.700000e-01    3.690000e+00
  P5dh  P1dq  1 4.700000e-01    3.880000e+00
  P5dh  P2dq  1 4.700000e-01    4.060000e+00
  P5dh  P3dq  1 4.700000e-01    4.060000e+00
  P5dh  P4dq  1 4.700000e-01    4.250000e+00
  P4dh  P4dq  1 4.700000e-01    4.250000e+00
  P4dh  N1dq  1 4.700000e-01    3.240000e+00
  P4dh  N2dq  1 4.700000e-01    3.390000e+00
  P4dh  N3dq  1 4.700000e-01    3.390000e+00
  P4dh  N4dq  1 4.700000e-01    3.520000e+00
  P4dh  N5dq  1 4.700000e-01    3.520000e+00
  P4dh  N6dq  1 4.700000e-01    3.690000e+00
  P4dh  P1dq  1 4.700000e-01    3.880000e+00
  P4dh  P2dq  1 4.700000e-01    4.060000e+00
  P4dh  P3dq  1 4.700000e-01    4.060000e+00
  P3dh  P3dq  1 4.700000e-01    4.060000e+00
  P3dh  N1dq  1 4.700000e-01    3.390000e+00
  P3dh  N2dq  1 4.700000e-01    3.390000e+00
  P3dh  N3dq  1 4.700000e-01    3.390000e+00
  P3dh  N4dq  1 4.700000e-01    3.520000e+00
  P3dh  N5dq  1 4.700000e-01    3.520000e+00
  P3dh  N6dq  1 4.700000e-01    3.690000e+00
  P3dh  P1dq  1 4.700000e-01    3.880000e+00
  P3dh  P2dq  1 4.700000e-01    4.060000e+00
  P2dh  P2dq  1 4.700000e-01    4.060000e+00
  P2dh  N1dq  1 4.700000e-01    3.390000e+00
  P2dh  N2dq  1 4.700000e-01    3.390000e+00
  P2dh  N3dq  1 4.700000e-01    3.390000e+00
  P2dh  N4dq  1 4.700000e-01    3.520000e+00
  P2dh  N5dq  1 4.700000e-01    3.690000e+00
  P2dh  N6dq  1 4.700000e-01    3.880000e+00
  P2dh  P1dq  1 4.700000e-01    3.880000e+00
  P1dh  P1dq  1 4.700000e-01    3.880000e+00
  P1dh  N1dq  1 4.700000e-01    3.390000e+00
  P1dh  N2dq  1 4.700000e-01    3.390000e+00
  P1dh  N3dq  1 4.700000e-01    3.390000e+00
  P1dh  N4dq  1 4.700000e-01    3.690000e+00
  P1dh  N5dq  1 4.700000e-01    3.690000e+00
  P1dh  N6dq  1 4.700000e-01    3.880000e+00
  N6dh  N6dq  1 4.700000e-01    3.880000e+00
  N6dh  N1dq  1 4.700000e-01    3.390000e+00
  N6dh  N2dq  1 4.700000e-01    3.390000e+00
  N6dh  N3dq  1 4.700000e-01    3.520000e+00
  N6dh  N4dq  1 4.700000e-01    3.880000e+00
  N6dh  N5dq  1 4.700000e-01    3.880000e+00
  N5dh  N5dq  1 4.700000e-01    3.690000e+00
  N5dh  N1dq  1 4.700000e-01    3.390000e+00
  N5dh  N2dq  1 4.700000e-01    3.520000e+00
  N5dh  N3dq  1 4.700000e-01    3.520000e+00
  N5dh  N4dq  1 4.700000e-01    3.690000e+00
  N4dh  N4dq  1 4.700000e-01    3.690000e+00
  N4dh  N1dq  1 4.700000e-01    3.390000e+00
  N4dh  N2dq  1 4.700000e-01    3.520000e+00
  N4dh  N3dq  1 4.700000e-01    3.520000e+00
  N3dh  N3dq  1 4.700000e-01    3.520000e+00
  N3dh  N1dq  1 4.700000e-01    3.390000e+00
  N3dh  N2dq  1 4.700000e-01    3.520000e+00
  N2dh  N2dq  1 4.700000e-01    3.520000e+00
  N2dh  N1dq  1 4.700000e-01    3.390000e+00
  N1dh  N1dq  1 4.700000e-01    3.520000e+00
  P6dh  P6dh  1 4.700000e-01    4.730000e+00
  P5dh  P5dh  1 4.700000e-01    4.250000e+00
  P4dh  P4dh  1 4.700000e-01    4.060000e+00
  P3dh  P3dh  1 4.700000e-01    3.880000e+00
  P2dh  P2dh  1 4.700000e-01    3.880000e+00
  P1dh  P1dh  1 4.700000e-01    3.690000e+00
  N6dh  N6dh  1 4.700000e-01    3.690000e+00
  N5dh  N5dh  1 4.700000e-01    3.520000e+00
  N4dh  N4dh  1 4.700000e-01    3.520000e+00
  N3dh  N3dh  1 4.700000e-01    3.390000e+00
  N2dh  N2dh  1 4.700000e-01    3.390000e+00
  N1dh  N1dh  1 4.700000e-01    3.390000e+00
  P6dh  P5dh  1 4.700000e-01    4.480000e+00
  P6dh  P4dh  1 4.700000e-01    4.250000e+00
  P6dh  P3dh  1 4.700000e-01    4.060000e+00
  P6dh  P2dh  1 4.700000e-01    4.060000e+00
  P6dh  P1dh  1 4.700000e-01    3.880000e+00
  P6dh  N6dh  1 4.700000e-01    3.690000e+00
  P6dh  N5dh  1 4.700000e-01    3.390000e+00
  P6dh  N4dh  1 4.700000e-01    3.240000e+00
  P6dh  N3dh  1 4.700000e-01    3.240000e+00
  P6dh  N2dh  1 4.700000e-01    3.240000e+00
  P6dh  N1dh  1 4.700000e-01    3.070000e+00
  P5dh  P4dh  1 4.700000e-01    4.060000e+00
  P5dh  P3dh  1 4.700000e-01    3.880000e+00
  P5dh  P2dh  1 4.700000e-01    3.880000e+00
  P5dh  P1dh  1 4.700000e-01    3.690000e+00
  P5dh  N6dh  1 4.700000e-01    3.520000e+00
  P5dh  N5dh  1 4.700000e-01    3.390000e+00
  P5dh  N4dh  1 4.700000e-01    3.390000e+00
  P5dh  N3dh  1 4.700000e-01    3.240000e+00
  P5dh  N2dh  1 4.700000e-01    3.240000e+00
  P5dh  N1dh  1 4.700000e-01    3.070000e+00
  P4dh  P3dh  1 4.700000e-01    3.880000e+00
  P4dh  P2dh  1 4.700000e-01    3.880000e+00
  P4dh  P1dh  1 4.700000e-01    3.690000e+00
  P4dh  N6dh  1 4.700000e-01    3.520000e+00
  P4dh  N5dh  1 4.700000e-01    3.390000e+00
  P4dh  N4dh  1 4.700000e-01    3.390000e+00
  P4dh  N3dh  1 4.700000e-01    3.240000e+00
  P4dh  N2dh  1 4.700000e-01    3.240000e+00
  P4dh  N1dh  1 4.700000e-01    3.240000e+00
  P3dh  P2dh  1 4.700000e-01    3.880000e+00
  P3dh  P1dh  1 4.700000e-01    3.690000e+00
  P3dh  N6dh  1 4.700000e-01    3.520000e+00
  P3dh  N5dh  1 4.700000e-01    3.390000e+00
  P3dh  N4dh  1 4.700000e-01    3.390000e+00
  P3dh  N3dh  1 4.700000e-01    3.240000e+00
  P3dh  N2dh  1 4.700000e-01    3.240000e+00
  P3dh  N1dh  1 4.700000e-01    3.240000e+00
  P2dh  P1dh  1 4.700000e-01    3.690000e+00
  P2dh  N6dh  1 4.700000e-01    3.690000e+00
  P2dh  N5dh  1 4.700000e-01    3.520000e+00
  P2dh  N4dh  1 4.700000e-01    3.390000e+00
  P2dh  N3dh  1 4.700000e-01    3.240000e+00
  P2dh  N2dh  1 4.700000e-01    3.240000e+00
  P2dh  N1dh  1 4.700000e-01    3.240000e+00
  P1dh  N6dh  1 4.700000e-01    3.690000e+00
  P1dh  N5dh  1 4.700000e-01    3.520000e+00
  P1dh  N4dh  1 4.700000e-01    3.520000e+00
  P1dh  N3dh  1 4.700000e-01    3.240000e+00
  P1dh  N2dh  1 4.700000e-01    3.240000e+00
  P1dh  N1dh  1 4.700000e-01    3.240000e+00
  N6dh  N5dh  1 4.700000e-01    3.690000e+00
  N6dh  N4dh  1 4.700000e-01    3.690000e+00
  N6dh  N3dh  1 4.700000e-01    3.390000e+00
  N6dh  N2dh  1 4.700000e-01    3.240000e+00
  N6dh  N1dh  1 4.700000e-01    3.240000e+00
  N5dh  N4dh  1 4.700000e-01    3.520000e+00
  N5dh  N3dh  1 4.700000e-01    3.390000e+00
  N5dh  N2dh  1 4.700000e-01    3.390000e+00
  N5dh  N1dh  1 4.700000e-01    3.240000e+00
  N4dh  N3dh  1 4.700000e-01    3.390000e+00
  N4dh  N2dh  1 4.700000e-01    3.390000e+00
  N4dh  N1dh  1 4.700000e-01    3.240000e+00
  N3dh  N2dh  1 4.700000e-01    3.390000e+00
  N3dh  N1dh  1 4.700000e-01    3.240000e+00
  N2dh  N1dh  1 4.700000e-01    3.240000e+00
  P6dh  P6dr  1 4.700000e-01    4.480000e+00
  P6dh  P5dr  1 4.700000e-01    4.250000e+00
  P6dh  P4dr  1 4.700000e-01    4.060000e+00
  P6dh  P3dr  1 4.700000e-01    3.880000e+00
  P6dh  P2dr  1 4.700000e-01    3.880000e+00
  P6dh  P1dr  1 4.700000e-01    3.690000e+00
  P6dh  N6dr  1 4.700000e-01    3.520000e+00
  P6dh  N5dr  1 4.700000e-01    3.240000e+00
  P6dh  N4dr  1 4.700000e-01    3.240000e+00
  P6dh  N3dr  1 4.700000e-01    3.240000e+00
  P6dh  N2dr  1 4.700000e-01    3.070000e+00
  P6dh  N1dr  1 4.700000e-01    2.960000e+00
  P5dh  P5dr  1 4.700000e-01    4.060000e+00
  P5dh  P4dr  1 4.700000e-01    3.880000e+00
  P5dh  P3dr  1 4.700000e-01    3.690000e+00
  P5dh  P2dr  1 4.700000e-01    3.690000e+00
  P5dh  P1dr  1 4.700000e-01    3.520000e+00
  P5dh  N6dr  1 4.700000e-01    3.390000e+00
  P5dh  N5dr  1 4.700000e-01    3.240000e+00
  P5dh  N4dr  1 4.700000e-01    3.240000e+00
  P5dh  N3dr  1 4.700000e-01    3.240000e+00
  P5dh  N2dr  1 4.700000e-01    3.070000e+00
  P5dh  N1dr  1 4.700000e-01    2.960000e+00
  P4dh  P4dr  1 4.700000e-01    3.880000e+00
  P4dh  P3dr  1 4.700000e-01    3.690000e+00
  P4dh  P2dr  1 4.700000e-01    3.690000e+00
  P4dh  P1dr  1 4.700000e-01    3.520000e+00
  P4dh  N6dr  1 4.700000e-01    3.390000e+00
  P4dh  N5dr  1 4.700000e-01    3.240000e+00
  P4dh  N4dr  1 4.700000e-01    3.240000e+00
  P4dh  N3dr  1 4.700000e-01    3.240000e+00
  P4dh  N2dr  1 4.700000e-01    3.240000e+00
  P4dh  N1dr  1 4.700000e-01    3.070000e+00
  P3dh  P3dr  1 4.700000e-01    3.690000e+00
  P3dh  P2dr  1 4.700000e-01    3.690000e+00
  P3dh  P1dr  1 4.700000e-01    3.520000e+00
  P3dh  N6dr  1 4.700000e-01    3.390000e+00
  P3dh  N5dr  1 4.700000e-01    3.240000e+00
  P3dh  N4dr  1 4.700000e-01    3.240000e+00
  P3dh  N3dr  1 4.700000e-01    3.240000e+00
  P3dh  N2dr  1 4.700000e-01    3.240000e+00
  P3dh  N1dr  1 4.700000e-01    3.240000e+00
  P2dh  P2dr  1 4.700000e-01    3.690000e+00
  P2dh  P1dr  1 4.700000e-01    3.520000e+00
  P2dh  N6dr  1 4.700000e-01    3.520000e+00
  P2dh  N5dr  1 4.700000e-01    3.390000e+00
  P2dh  N4dr  1 4.700000e-01    3.240000e+00
  P2dh  N3dr  1 4.700000e-01    3.240000e+00
  P2dh  N2dr  1 4.700000e-01    3.240000e+00
  P2dh  N1dr  1 4.700000e-01    3.240000e+00
  P1dh  P1dr  1 4.700000e-01    3.520000e+00
  P1dh  N6dr  1 4.700000e-01    3.520000e+00
  P1dh  N5dr  1 4.700000e-01    3.390000e+00
  P1dh  N4dr  1 4.700000e-01    3.390000e+00
  P1dh  N3dr  1 4.700000e-01    3.240000e+00
  P1dh  N2dr  1 4.700000e-01    3.240000e+00
  P1dh  N1dr  1 4.700000e-01    3.240000e+00
  N6dh  N6dr  1 4.700000e-01    3.520000e+00
  N6dh  N5dr  1 4.700000e-01    3.520000e+00
  N6dh  N4dr  1 4.700000e-01    3.520000e+00
  N6dh  N3dr  1 4.700000e-01    3.240000e+00
  N6dh  N2dr  1 4.700000e-01    3.240000e+00
  N6dh  N1dr  1 4.700000e-01    3.240000e+00
  N5dh  N5dr  1 4.700000e-01    3.390000e+00
  N5dh  N4dr  1 4.700000e-01    3.390000e+00
  N5dh  N3dr  1 4.700000e-01    3.240000e+00
  N5dh  N2dr  1 4.700000e-01    3.240000e+00
  N5dh  N1dr  1 4.700000e-01    3.240000e+00
  N4dh  N4dr  1 4.700000e-01    3.390000e+00
  N4dh  N3dr  1 4.700000e-01    3.240000e+00
  N4dh  N2dr  1 4.700000e-01    3.240000e+00
  N4dh  N1dr  1 4.700000e-01    3.240000e+00
  N3dh  N3dr  1 4.700000e-01    3.240000e+00
  N3dh  N2dr  1 4.700000e-01    3.240000e+00
  N3dh  N1dr  1 4.700000e-01    3.240000e+00
  N2dh  N2dr  1 4.700000e-01    3.240000e+00
  N2dh  N1dr  1 4.700000e-01    3.240000e+00
  N1dh  N1dr  1 4.700000e-01    3.240000e+00
  P6dr   P5d  1 4.700000e-01    4.250000e+00
  P6dr   P4d  1 4.700000e-01    4.060000e+00
  P6dr   P3d  1 4.700000e-01    3.880000e+00
  P6dr   P2d  1 4.700000e-01    3.880000e+00
  P6dr   P1d  1 4.700000e-01    3.690000e+00
  P6dr   N6d  1 4.700000e-01    3.520000e+00
  P6dr   N5d  1 4.700000e-01    3.240000e+00
  P6dr   N4d  1 4.700000e-01    3.240000e+00
  P6dr   N3d  1 4.700000e-01    3.240000e+00
  P6dr   N2d  1 4.700000e-01    3.070000e+00
  P6dr   N1d  1 4.700000e-01    2.960000e+00
  P5dr   P4d  1 4.700000e-01    3.880000e+00
  P5dr   P3d  1 4.700000e-01    3.690000e+00
  P5dr   P2d  1 4.700000e-01    3.690000e+00
  P5dr   P1d  1 4.700000e-01    3.520000e+00
  P5dr   N6d  1 4.700000e-01    3.390000e+00
  P5dr   N5d  1 4.700000e-01    3.240000e+00
  P5dr   N4d  1 4.700000e-01    3.240000e+00
  P5dr   N3d  1 4.700000e-01    3.240000e+00
  P5dr   N2d  1 4.700000e-01    3.070000e+00
  P5dr   N1d  1 4.700000e-01    2.960000e+00
  P4dr   P3d  1 4.700000e-01    3.690000e+00
  P4dr   P2d  1 4.700000e-01    3.690000e+00
  P4dr   P1d  1 4.700000e-01    3.520000e+00
  P4dr   N6d  1 4.700000e-01    3.390000e+00
  P4dr   N5d  1 4.700000e-01    3.240000e+00
  P4dr   N4d  1 4.700000e-01    3.240000e+00
  P4dr   N3d  1 4.700000e-01    3.240000e+00
  P4dr   N2d  1 4.700000e-01    3.240000e+00
  P4dr   N1d  1 4.700000e-01    3.070000e+00
  P3dr   P2d  1 4.700000e-01    3.690000e+00
  P3dr   P1d  1 4.700000e-01    3.520000e+00
  P3dr   N6d  1 4.700000e-01    3.390000e+00
  P3dr   N5d  1 4.700000e-01    3.240000e+00
  P3dr   N4d  1 4.700000e-01    3.240000e+00
  P3dr   N3d  1 4.700000e-01    3.240000e+00
  P3dr   N2d  1 4.700000e-01    3.240000e+00
  P3dr   N1d  1 4.700000e-01    3.240000e+00
  P2dr   P1d  1 4.700000e-01    3.520000e+00
  P2dr   N6d  1 4.700000e-01    3.520000e+00
  P2dr   N5d  1 4.700000e-01    3.390000e+00
  P2dr   N4d  1 4.700000e-01    3.240000e+00
  P2dr   N3d  1 4.700000e-01    3.240000e+00
  P2dr   N2d  1 4.700000e-01    3.240000e+00
  P2dr   N1d  1 4.700000e-01    3.240000e+00
  P1dr   N6d  1 4.700000e-01    3.520000e+00
  P1dr   N5d  1 4.700000e-01    3.390000e+00
  P1dr   N4d  1 4.700000e-01    3.390000e+00
  P1dr   N3d  1 4.700000e-01    3.240000e+00
  P1dr   N2d  1 4.700000e-01    3.240000e+00
  P1dr   N1d  1 4.700000e-01    3.240000e+00
  N6dr   N5d  1 4.700000e-01    3.520000e+00
  N6dr   N4d  1 4.700000e-01    3.520000e+00
  N6dr   N3d  1 4.700000e-01    3.240000e+00
  N6dr   N2d  1 4.700000e-01    3.240000e+00
  N6dr   N1d  1 4.700000e-01    3.240000e+00
  N5dr   N4d  1 4.700000e-01    3.390000e+00
  N5dr   N3d  1 4.700000e-01    3.240000e+00
  N5dr   N2d  1 4.700000e-01    3.240000e+00
  N5dr   N1d  1 4.700000e-01    3.240000e+00
  N4dr   N3d  1 4.700000e-01    3.240000e+00
  N4dr   N2d  1 4.700000e-01    3.240000e+00
  N4dr   N1d  1 4.700000e-01    3.240000e+00
  N3dr   N2d  1 4.700000e-01    3.240000e+00
  N3dr   N1d  1 4.700000e-01    3.240000e+00
  N2dr   N1d  1 4.700000e-01    3.240000e+00
  P6dr  P6dq  1 4.700000e-01    4.990000e+00
  P6dr  N1dq  1 4.700000e-01    3.240000e+00
  P6dr  N2dq  1 4.700000e-01    3.240000e+00
  P6dr  N3dq  1 4.700000e-01    3.390000e+00
  P6dr  N4dq  1 4.700000e-01    3.390000e+00
  P6dr  N5dq  1 4.700000e-01    3.520000e+00
  P6dr  N6dq  1 4.700000e-01    3.880000e+00
  P6dr  P1dq  1 4.700000e-01    4.060000e+00
  P6dr  P2dq  1 4.700000e-01    4.250000e+00
  P6dr  P3dq  1 4.700000e-01    4.250000e+00
  P6dr  P4dq  1 4.700000e-01    4.480000e+00
  P6dr  P5dq  1 4.700000e-01    4.730000e+00
  P5dr  P5dq  1 4.700000e-01    4.480000e+00
  P5dr  N1dq  1 4.700000e-01    3.240000e+00
  P5dr  N2dq  1 4.700000e-01    3.240000e+00
  P5dr  N3dq  1 4.700000e-01    3.390000e+00
  P5dr  N4dq  1 4.700000e-01    3.520000e+00
  P5dr  N5dq  1 4.700000e-01    3.520000e+00
  P5dr  N6dq  1 4.700000e-01    3.690000e+00
  P5dr  P1dq  1 4.700000e-01    3.880000e+00
  P5dr  P2dq  1 4.700000e-01    4.060000e+00
  P5dr  P3dq  1 4.700000e-01    4.060000e+00
  P5dr  P4dq  1 4.700000e-01    4.250000e+00
  P4dr  P4dq  1 4.700000e-01    4.250000e+00
  P4dr  N1dq  1 4.700000e-01    3.240000e+00
  P4dr  N2dq  1 4.700000e-01    3.390000e+00
  P4dr  N3dq  1 4.700000e-01    3.390000e+00
  P4dr  N4dq  1 4.700000e-01    3.520000e+00
  P4dr  N5dq  1 4.700000e-01    3.520000e+00
  P4dr  N6dq  1 4.700000e-01    3.690000e+00
  P4dr  P1dq  1 4.700000e-01    3.880000e+00
  P4dr  P2dq  1 4.700000e-01    4.060000e+00
  P4dr  P3dq  1 4.700000e-01    4.060000e+00
  P3dr  P3dq  1 4.700000e-01    4.060000e+00
  P3dr  N1dq  1 4.700000e-01    3.390000e+00
  P3dr  N2dq  1 4.700000e-01    3.390000e+00
  P3dr  N3dq  1 4.700000e-01    3.390000e+00
  P3dr  N4dq  1 4.700000e-01    3.520000e+00
  P3dr  N5dq  1 4.700000e-01    3.520000e+00
  P3dr  N6dq  1 4.700000e-01    3.690000e+00
  P3dr  P1dq  1 4.700000e-01    3.880000e+00
  P3dr  P2dq  1 4.700000e-01    4.060000e+00
  P2dr  P2dq  1 4.700000e-01    4.060000e+00
  P2dr  N1dq  1 4.700000e-01    3.390000e+00
  P2dr  N2dq  1 4.700000e-01    3.390000e+00
  P2dr  N3dq  1 4.700000e-01    3.390000e+00
  P2dr  N4dq  1 4.700000e-01    3.520000e+00
  P2dr  N5dq  1 4.700000e-01    3.690000e+00
  P2dr  N6dq  1 4.700000e-01    3.880000e+00
  P2dr  P1dq  1 4.700000e-01    3.880000e+00
  P1dr  P1dq  1 4.700000e-01    3.880000e+00
  P1dr  N1dq  1 4.700000e-01    3.390000e+00
  P1dr  N2dq  1 4.700000e-01    3.390000e+00
  P1dr  N3dq  1 4.700000e-01    3.390000e+00
  P1dr  N4dq  1 4.700000e-01    3.690000e+00
  P1dr  N5dq  1 4.700000e-01    3.690000e+00
  P1dr  N6dq  1 4.700000e-01    3.880000e+00
  N6dr  N6dq  1 4.700000e-01    3.880000e+00
  N6dr  N1dq  1 4.700000e-01    3.390000e+00
  N6dr  N2dq  1 4.700000e-01    3.390000e+00
  N6dr  N3dq  1 4.700000e-01    3.520000e+00
  N6dr  N4dq  1 4.700000e-01    3.880000e+00
  N6dr  N5dq  1 4.700000e-01    3.880000e+00
  N5dr  N5dq  1 4.700000e-01    3.690000e+00
  N5dr  N1dq  1 4.700000e-01    3.390000e+00
  N5dr  N2dq  1 4.700000e-01    3.520000e+00
  N5dr  N3dq  1 4.700000e-01    3.520000e+00
  N5dr  N4dq  1 4.700000e-01    3.690000e+00
  N4dr  N4dq  1 4.700000e-01    3.690000e+00
  N4dr  N1dq  1 4.700000e-01    3.390000e+00
  N4dr  N2dq  1 4.700000e-01    3.520000e+00
  N4dr  N3dq  1 4.700000e-01    3.520000e+00
  N3dr  N3dq  1 4.700000e-01    3.520000e+00
  N3dr  N1dq  1 4.700000e-01    3.390000e+00
  N3dr  N2dq  1 4.700000e-01    3.520000e+00
  N2dr  N2dq  1 4.700000e-01    3.520000e+00
  N2dr  N1dq  1 4.700000e-01    3.390000e+00
  N1dr  N1dq  1 4.700000e-01    3.520000e+00
  P6dr  P5dh  1 4.700000e-01    4.250000e+00
  P6dr  P4dh  1 4.700000e-01    4.060000e+00
  P6dr  P3dh  1 4.700000e-01    3.880000e+00
  P6dr  P2dh  1 4.700000e-01    3.880000e+00
  P6dr  P1dh  1 4.700000e-01    3.690000e+00
  P6dr  N6dh  1 4.700000e-01    3.520000e+00
  P6dr  N5dh  1 4.700000e-01    3.240000e+00
  P6dr  N4dh  1 4.700000e-01    3.240000e+00
  P6dr  N3dh  1 4.700000e-01    3.240000e+00
  P6dr  N2dh  1 4.700000e-01    3.070000e+00
  P6dr  N1dh  1 4.700000e-01    2.960000e+00
  P5dr  P4dh  1 4.700000e-01    3.880000e+00
  P5dr  P3dh  1 4.700000e-01    3.690000e+00
  P5dr  P2dh  1 4.700000e-01    3.690000e+00
  P5dr  P1dh  1 4.700000e-01    3.520000e+00
  P5dr  N6dh  1 4.700000e-01    3.390000e+00
  P5dr  N5dh  1 4.700000e-01    3.240000e+00
  P5dr  N4dh  1 4.700000e-01    3.240000e+00
  P5dr  N3dh  1 4.700000e-01    3.240000e+00
  P5dr  N2dh  1 4.700000e-01    3.070000e+00
  P5dr  N1dh  1 4.700000e-01    2.960000e+00
  P4dr  P3dh  1 4.700000e-01    3.690000e+00
  P4dr  P2dh  1 4.700000e-01    3.690000e+00
  P4dr  P1dh  1 4.700000e-01    3.520000e+00
  P4dr  N6dh  1 4.700000e-01    3.390000e+00
  P4dr  N5dh  1 4.700000e-01    3.240000e+00
  P4dr  N4dh  1 4.700000e-01    3.240000e+00
  P4dr  N3dh  1 4.700000e-01    3.240000e+00
  P4dr  N2dh  1 4.700000e-01    3.240000e+00
  P4dr  N1dh  1 4.700000e-01    3.070000e+00
  P3dr  P2dh  1 4.700000e-01    3.690000e+00
  P3dr  P1dh  1 4.700000e-01    3.520000e+00
  P3dr  N6dh  1 4.700000e-01    3.390000e+00
  P3dr  N5dh  1 4.700000e-01    3.240000e+00
  P3dr  N4dh  1 4.700000e-01    3.240000e+00
  P3dr  N3dh  1 4.700000e-01    3.240000e+00
  P3dr  N2dh  1 4.700000e-01    3.240000e+00
  P3dr  N1dh  1 4.700000e-01    3.240000e+00
  P2dr  P1dh  1 4.700000e-01    3.520000e+00
  P2dr  N6dh  1 4.700000e-01    3.520000e+00
  P2dr  N5dh  1 4.700000e-01    3.390000e+00
  P2dr  N4dh  1 4.700000e-01    3.240000e+00
  P2dr  N3dh  1 4.700000e-01    3.240000e+00
  P2dr  N2dh  1 4.700000e-01    3.240000e+00
  P2dr  N1dh  1 4.700000e-01    3.240000e+00
  P1dr  N6dh  1 4.700000e-01    3.520000e+00
  P1dr  N5dh  1 4.700000e-01    3.390000e+00
  P1dr  N4dh  1 4.700000e-01    3.390000e+00
  P1dr  N3dh  1 4.700000e-01    3.240000e+00
  P1dr  N2dh  1 4.700000e-01    3.240000e+00
  P1dr  N1dh  1 4.700000e-01    3.240000e+00
  N6dr  N5dh  1 4.700000e-01    3.520000e+00
  N6dr  N4dh  1 4.700000e-01    3.520000e+00
  N6dr  N3dh  1 4.700000e-01    3.240000e+00
  N6dr  N2dh  1 4.700000e-01    3.240000e+00
  N6dr  N1dh  1 4.700000e-01    3.240000e+00
  N5dr  N4dh  1 4.700000e-01    3.390000e+00
  N5dr  N3dh  1 4.700000e-01    3.240000e+00
  N5dr  N2dh  1 4.700000e-01    3.240000e+00
  N5dr  N1dh  1 4.700000e-01    3.240000e+00
  N4dr  N3dh  1 4.700000e-01    3.240000e+00
  N4dr  N2dh  1 4.700000e-01    3.240000e+00
  N4dr  N1dh  1 4.700000e-01    3.240000e+00
  N3dr  N2dh  1 4.700000e-01    3.240000e+00
  N3dr  N1dh  1 4.700000e-01    3.240000e+00
  N2dr  N1dh  1 4.700000e-01    3.240000e+00
  P6dr  P6dr  1 4.700000e-01    4.250000e+00
  P5dr  P5dr  1 4.700000e-01    3.880000e+00
  P4dr  P4dr  1 4.700000e-01    3.690000e+00
  P3dr  P3dr  1 4.700000e-01    3.520000e+00
  P2dr  P2dr  1 4.700000e-01    3.520000e+00
  P1dr  P1dr  1 4.700000e-01    3.390000e+00
  N6dr  N6dr  1 4.700000e-01    3.390000e+00
  N5dr  N5dr  1 4.700000e-01    3.240000e+00
  N4dr  N4dr  1 4.700000e-01    3.240000e+00
  N3dr  N3dr  1 4.700000e-01    3.240000e+00
  N2dr  N2dr  1 4.700000e-01    3.240000e+00
  N1dr  N1dr  1 4.700000e-01    3.240000e+00
  P6dr  P5dr  1 4.700000e-01    4.060000e+00
  P6dr  P4dr  1 4.700000e-01    3.880000e+00
  P6dr  P3dr  1 4.700000e-01    3.690000e+00
  P6dr  P2dr  1 4.700000e-01    3.690000e+00
  P6dr  P1dr  1 4.700000e-01    3.520000e+00
  P6dr  N6dr  1 4.700000e-01    3.390000e+00
  P6dr  N5dr  1 4.700000e-01    3.240000e+00
  P6dr  N4dr  1 4.700000e-01    3.070000e+00
  P6dr  N3dr  1 4.700000e-01    3.070000e+00
  P6dr  N2dr  1 4.700000e-01    2.960000e+00
  P6dr  N1dr  1 4.700000e-01    2.790000e+00
  P5dr  P4dr  1 4.700000e-01    3.690000e+00
  P5dr  P3dr  1 4.700000e-01    3.520000e+00
  P5dr  P2dr  1 4.700000e-01    3.520000e+00
  P5dr  P1dr  1 4.700000e-01    3.390000e+00
  P5dr  N6dr  1 4.700000e-01    3.240000e+00
  P5dr  N5dr  1 4.700000e-01    3.240000e+00
  P5dr  N4dr  1 4.700000e-01    3.240000e+00
  P5dr  N3dr  1 4.700000e-01    3.070000e+00
  P5dr  N2dr  1 4.700000e-01    2.960000e+00
  P5dr  N1dr  1 4.700000e-01    2.790000e+00
  P4dr  P3dr  1 4.700000e-01    3.520000e+00
  P4dr  P2dr  1 4.700000e-01    3.520000e+00
  P4dr  P1dr  1 4.700000e-01    3.390000e+00
  P4dr  N6dr  1 4.700000e-01    3.240000e+00
  P4dr  N5dr  1 4.700000e-01    3.240000e+00
  P4dr  N4dr  1 4.700000e-01    3.240000e+00
  P4dr  N3dr  1 4.700000e-01    3.070000e+00
  P4dr  N2dr  1 4.700000e-01    3.070000e+00
  P4dr  N1dr  1 4.700000e-01    2.960000e+00
  P3dr  P2dr  1 4.700000e-01    3.520000e+00
  P3dr  P1dr  1 4.700000e-01    3.390000e+00
  P3dr  N6dr  1 4.700000e-01    3.240000e+00
  P3dr  N5dr  1 4.700000e-01    3.240000e+00
  P3dr  N4dr  1 4.700000e-01    3.240000e+00
  P3dr  N3dr  1 4.700000e-01    3.070000e+00
  P3dr  N2dr  1 4.700000e-01    3.070000e+00
  P3dr  N1dr  1 4.700000e-01    3.070000e+00
  P2dr  P1dr  1 4.700000e-01    3.390000e+00
  P2dr  N6dr  1 4.700000e-01    3.390000e+00
  P2dr  N5dr  1 4.700000e-01    3.240000e+00
  P2dr  N4dr  1 4.700000e-01    3.240000e+00
  P2dr  N3dr  1 4.700000e-01    3.070000e+00
  P2dr  N2dr  1 4.700000e-01    3.070000e+00
  P2dr  N1dr  1 4.700000e-01    3.070000e+00
  P1dr  N6dr  1 4.700000e-01    3.390000e+00
  P1dr  N5dr  1 4.700000e-01    3.240000e+00
  P1dr  N4dr  1 4.700000e-01    3.240000e+00
  P1dr  N3dr  1 4.700000e-01    3.070000e+00
  P1dr  N2dr  1 4.700000e-01    3.070000e+00
  P1dr  N1dr  1 4.700000e-01    3.070000e+00
  N6dr  N5dr  1 4.700000e-01    3.390000e+00
  N6dr  N4dr  1 4.700000e-01    3.390000e+00
  N6dr  N3dr  1 4.700000e-01    3.240000e+00
  N6dr  N2dr  1 4.700000e-01    3.070000e+00
  N6dr  N1dr  1 4.700000e-01    3.070000e+00
  N5dr  N4dr  1 4.700000e-01    3.240000e+00
  N5dr  N3dr  1 4.700000e-01    3.240000e+00
  N5dr  N2dr  1 4.700000e-01    3.240000e+00
  N5dr  N1dr  1 4.700000e-01    3.070000e+00
  N4dr  N3dr  1 4.700000e-01    3.240000e+00
  N4dr  N2dr  1 4.700000e-01    3.240000e+00
  N4dr  N1dr  1 4.700000e-01    3.070000e+00
  N3dr  N2dr  1 4.700000e-01    3.240000e+00
  N3dr  N1dr  1 4.700000e-01    3.070000e+00
  N2dr  N1dr  1 4.700000e-01    3.070000e+00
   P6d   P6a  1 4.700000e-01    4.990000e+00
   P6d   P5a  1 4.700000e-01    4.730000e+00
   P6d   P4a  1 4.700000e-01    4.480000e+00
   P6d   P3a  1 4.700000e-01    4.250000e+00
   P6d   P2a  1 4.700000e-01    4.250000e+00
   P6d   P1a  1 4.700000e-01    4.060000e+00
   P6d   N6a  1 4.700000e-01    3.880000e+00
   P6d   N5a  1 4.700000e-01    3.520000e+00
   P6d   N4a  1 4.700000e-01    3.390000e+00
   P6d   N3a  1 4.700000e-01    3.240000e+00
   P6d   N2a  1 4.700000e-01    3.070000e+00
   P6d   N1a  1 4.700000e-01    2.960000e+00
   P5d   P5a  1 4.700000e-01    4.480000e+00
   P5d   P4a  1 4.700000e-01    4.250000e+00
   P5d   P3a  1 4.700000e-01    4.060000e+00
   P5d   P2a  1 4.700000e-01    4.060000e+00
   P5d   P1a  1 4.700000e-01    3.880000e+00
   P5d   N6a  1 4.700000e-01    3.690000e+00
   P5d   N5a  1 4.700000e-01    3.520000e+00
   P5d   N4a  1 4.700000e-01    3.520000e+00
   P5d   N3a  1 4.700000e-01    3.240000e+00
   P5d   N2a  1 4.700000e-01    3.070000e+00
   P5d   N1a  1 4.700000e-01    2.960000e+00
   P4d   P4a  1 4.700000e-01    4.250000e+00
   P4d   P3a  1 4.700000e-01    4.060000e+00
   P4d   P2a  1 4.700000e-01    4.060000e+00
   P4d   P1a  1 4.700000e-01    3.880000e+00
   P4d   N6a  1 4.700000e-01    3.690000e+00
   P4d   N5a  1 4.700000e-01    3.520000e+00
   P4d   N4a  1 4.700000e-01    3.520000e+00
   P4d   N3a  1 4.700000e-01    3.390000e+00
   P4d   N2a  1 4.700000e-01    3.240000e+00
   P4d   N1a  1 4.700000e-01    3.070000e+00
   P3d   P3a  1 4.700000e-01    4.060000e+00
   P3d   P2a  1 4.700000e-01    4.060000e+00
   P3d   P1a  1 4.700000e-01    3.880000e+00
   P3d   N6a  1 4.700000e-01    3.690000e+00
   P3d   N5a  1 4.700000e-01    3.520000e+00
   P3d   N4a  1 4.700000e-01    3.520000e+00
   P3d   N3a  1 4.700000e-01    3.390000e+00
   P3d   N2a  1 4.700000e-01    3.390000e+00
   P3d   N1a  1 4.700000e-01    3.240000e+00
   P2d   P2a  1 4.700000e-01    4.060000e+00
   P2d   P1a  1 4.700000e-01    3.880000e+00
   P2d   N6a  1 4.700000e-01    3.880000e+00
   P2d   N5a  1 4.700000e-01    3.690000e+00
   P2d   N4a  1 4.700000e-01    3.520000e+00
   P2d   N3a  1 4.700000e-01    3.390000e+00
   P2d   N2a  1 4.700000e-01    3.390000e+00
   P2d   N1a  1 4.700000e-01    3.390000e+00
   P1d   P1a  1 4.700000e-01    3.880000e+00
   P1d   N6a  1 4.700000e-01    3.880000e+00
   P1d   N5a  1 4.700000e-01    3.690000e+00
   P1d   N4a  1 4.700000e-01    3.690000e+00
   P1d   N3a  1 4.700000e-01    3.390000e+00
   P1d   N2a  1 4.700000e-01    3.390000e+00
   P1d   N1a  1 4.700000e-01    3.390000e+00
   N6d   N6a  1 4.700000e-01    3.880000e+00
   N6d   N5a  1 4.700000e-01    3.880000e+00
   N6d   N4a  1 4.700000e-01    3.880000e+00
   N6d   N3a  1 4.700000e-01    3.520000e+00
   N6d   N2a  1 4.700000e-01    3.390000e+00
   N6d   N1a  1 4.700000e-01    3.390000e+00
   N5d   N5a  1 4.700000e-01    3.690000e+00
   N5d   N4a  1 4.700000e-01    3.690000e+00
   N5d   N3a  1 4.700000e-01    3.520000e+00
   N5d   N2a  1 4.700000e-01    3.520000e+00
   N5d   N1a  1 4.700000e-01    3.390000e+00
   N4d   N4a  1 4.700000e-01    3.690000e+00
   N4d   N3a  1 4.700000e-01    3.520000e+00
   N4d   N2a  1 4.700000e-01    3.520000e+00
   N4d   N1a  1 4.700000e-01    3.390000e+00
   N3d   N3a  1 4.700000e-01    3.520000e+00
   N3d   N2a  1 4.700000e-01    3.520000e+00
   N3d   N1a  1 4.700000e-01    3.390000e+00
   N2d   N2a  1 4.700000e-01    3.520000e+00
   N2d   N1a  1 4.700000e-01    3.390000e+00
   N1d   N1a  1 4.700000e-01    3.520000e+00
   P6d  N1aq  1 4.700000e-01    3.240000e+00
   P5d  N1aq  1 4.700000e-01    3.240000e+00
   P4d  N1aq  1 4.700000e-01    3.240000e+00
   P3d  N1aq  1 4.700000e-01    3.390000e+00
   P2d  N1aq  1 4.700000e-01    3.690000e+00
   P1d  N1aq  1 4.700000e-01    3.690000e+00
   N6d  N1aq  1 4.700000e-01    3.690000e+00
   N5d  N1aq  1 4.700000e-01    3.690000e+00
   N4d  N1aq  1 4.700000e-01    3.690000e+00
   N3d  N1aq  1 4.700000e-01    3.690000e+00
   N2d  N1aq  1 4.700000e-01    3.690000e+00
   N1d  N1aq  1 4.700000e-01    3.880000e+00
   P6d  N2aq  1 4.700000e-01    3.240000e+00
   P5d  N2aq  1 4.700000e-01    3.240000e+00
   P4d  N2aq  1 4.700000e-01    3.390000e+00
   P3d  N2aq  1 4.700000e-01    3.690000e+00
   P2d  N2aq  1 4.700000e-01    3.690000e+00
   P1d  N2aq  1 4.700000e-01    3.690000e+00
   N6d  N2aq  1 4.700000e-01    3.690000e+00
   N5d  N2aq  1 4.700000e-01    3.880000e+00
   N4d  N2aq  1 4.700000e-01    3.880000e+00
   N3d  N2aq  1 4.700000e-01    3.880000e+00
   N2d  N2aq  1 4.700000e-01    3.880000e+00
   P6d  N3aq  1 4.700000e-01    3.390000e+00
   P5d  N3aq  1 4.700000e-01    3.390000e+00
   P4d  N3aq  1 4.700000e-01    3.690000e+00
   P3d  N3aq  1 4.700000e-01    3.690000e+00
   P2d  N3aq  1 4.700000e-01    3.690000e+00
   P1d  N3aq  1 4.700000e-01    3.690000e+00
   N6d  N3aq  1 4.700000e-01    3.880000e+00
   N5d  N3aq  1 4.700000e-01    3.880000e+00
   N4d  N3aq  1 4.700000e-01    3.880000e+00
   N3d  N3aq  1 4.700000e-01    3.880000e+00
   P6d  N4aq  1 4.700000e-01    3.690000e+00
   P5d  N4aq  1 4.700000e-01    3.880000e+00
   P4d  N4aq  1 4.700000e-01    3.880000e+00
   P3d  N4aq  1 4.700000e-01    3.880000e+00
   P2d  N4aq  1 4.700000e-01    3.880000e+00
   P1d  N4aq  1 4.700000e-01    4.060000e+00
   N6d  N4aq  1 4.700000e-01    4.250000e+00
   N5d  N4aq  1 4.700000e-01    4.060000e+00
   N4d  N4aq  1 4.700000e-01    4.060000e+00
   P6d  N5aq  1 4.700000e-01    3.880000e+00
   P5d  N5aq  1 4.700000e-01    3.880000e+00
   P4d  N5aq  1 4.700000e-01    3.880000e+00
   P3d  N5aq  1 4.700000e-01    3.880000e+00
   P2d  N5aq  1 4.700000e-01    4.060000e+00
   P1d  N5aq  1 4.700000e-01    4.060000e+00
   N6d  N5aq  1 4.700000e-01    4.250000e+00
   N5d  N5aq  1 4.700000e-01    4.060000e+00
   P6d  N6aq  1 4.700000e-01    4.250000e+00
   P5d  N6aq  1 4.700000e-01    4.060000e+00
   P4d  N6aq  1 4.700000e-01    4.060000e+00
   P3d  N6aq  1 4.700000e-01    4.060000e+00
   P2d  N6aq  1 4.700000e-01    4.250000e+00
   P1d  N6aq  1 4.700000e-01    4.250000e+00
   N6d  N6aq  1 4.700000e-01    4.250000e+00
   P6d  P1aq  1 4.700000e-01    4.480000e+00
   P5d  P1aq  1 4.700000e-01    4.250000e+00
   P4d  P1aq  1 4.700000e-01    4.250000e+00
   P3d  P1aq  1 4.700000e-01    4.250000e+00
   P2d  P1aq  1 4.700000e-01    4.250000e+00
   P1d  P1aq  1 4.700000e-01    4.250000e+00
   P6d  P2aq  1 4.700000e-01    4.730000e+00
   P5d  P2aq  1 4.700000e-01    4.480000e+00
   P4d  P2aq  1 4.700000e-01    4.480000e+00
   P3d  P2aq  1 4.700000e-01    4.480000e+00
   P2d  P2aq  1 4.700000e-01    4.480000e+00
   P6d  P3aq  1 4.700000e-01    4.730000e+00
   P5d  P3aq  1 4.700000e-01    4.480000e+00
   P4d  P3aq  1 4.700000e-01    4.480000e+00
   P3d  P3aq  1 4.700000e-01    4.480000e+00
   P6d  P4aq  1 4.700000e-01    4.990000e+00
   P5d  P4aq  1 4.700000e-01    4.730000e+00
   P4d  P4aq  1 4.700000e-01    4.730000e+00
   P6d  P5aq  1 4.700000e-01    5.240000e+00
   P5d  P5aq  1 4.700000e-01    4.990000e+00
   P6d  P6aq  1 4.700000e-01    5.790000e+00
   P6d  N1ah  1 4.700000e-01    2.960000e+00
   P5d  N1ah  1 4.700000e-01    2.960000e+00
   P4d  N1ah  1 4.700000e-01    3.070000e+00
   P3d  N1ah  1 4.700000e-01    3.240000e+00
   P2d  N1ah  1 4.700000e-01    3.390000e+00
   P1d  N1ah  1 4.700000e-01    3.390000e+00
   N6d  N1ah  1 4.700000e-01    3.390000e+00
   N5d  N1ah  1 4.700000e-01    3.390000e+00
   N4d  N1ah  1 4.700000e-01    3.390000e+00
   N3d  N1ah  1 4.700000e-01    3.390000e+00
   N2d  N1ah  1 4.700000e-01    3.390000e+00
   N1d  N1ah  1 4.700000e-01    3.520000e+00
   P6d  N2ah  1 4.700000e-01    3.070000e+00
   P5d  N2ah  1 4.700000e-01    3.070000e+00
   P4d  N2ah  1 4.700000e-01    3.240000e+00
   P3d  N2ah  1 4.700000e-01    3.390000e+00
   P2d  N2ah  1 4.700000e-01    3.390000e+00
   P1d  N2ah  1 4.700000e-01    3.390000e+00
   N6d  N2ah  1 4.700000e-01    3.390000e+00
   N5d  N2ah  1 4.700000e-01    3.520000e+00
   N4d  N2ah  1 4.700000e-01    3.520000e+00
   N3d  N2ah  1 4.700000e-01    3.520000e+00
   N2d  N2ah  1 4.700000e-01    3.520000e+00
   P6d  N3ah  1 4.700000e-01    3.240000e+00
   P5d  N3ah  1 4.700000e-01    3.240000e+00
   P4d  N3ah  1 4.700000e-01    3.390000e+00
   P3d  N3ah  1 4.700000e-01    3.390000e+00
   P2d  N3ah  1 4.700000e-01    3.390000e+00
   P1d  N3ah  1 4.700000e-01    3.390000e+00
   N6d  N3ah  1 4.700000e-01    3.520000e+00
   N5d  N3ah  1 4.700000e-01    3.520000e+00
   N4d  N3ah  1 4.700000e-01    3.520000e+00
   N3d  N3ah  1 4.700000e-01    3.520000e+00
   P6d  N4ah  1 4.700000e-01    3.390000e+00
   P5d  N4ah  1 4.700000e-01    3.520000e+00
   P4d  N4ah  1 4.700000e-01    3.520000e+00
   P3d  N4ah  1 4.700000e-01    3.520000e+00
   P2d  N4ah  1 4.700000e-01    3.520000e+00
   P1d  N4ah  1 4.700000e-01    3.690000e+00
   N6d  N4ah  1 4.700000e-01    3.880000e+00
   N5d  N4ah  1 4.700000e-01    3.690000e+00
   N4d  N4ah  1 4.700000e-01    3.690000e+00
   P6d  N5ah  1 4.700000e-01    3.520000e+00
   P5d  N5ah  1 4.700000e-01    3.520000e+00
   P4d  N5ah  1 4.700000e-01    3.520000e+00
   P3d  N5ah  1 4.700000e-01    3.520000e+00
   P2d  N5ah  1 4.700000e-01    3.690000e+00
   P1d  N5ah  1 4.700000e-01    3.690000e+00
   N6d  N5ah  1 4.700000e-01    3.880000e+00
   N5d  N5ah  1 4.700000e-01    3.690000e+00
   P6d  N6ah  1 4.700000e-01    3.880000e+00
   P5d  N6ah  1 4.700000e-01    3.690000e+00
   P4d  N6ah  1 4.700000e-01    3.690000e+00
   P3d  N6ah  1 4.700000e-01    3.690000e+00
   P2d  N6ah  1 4.700000e-01    3.880000e+00
   P1d  N6ah  1 4.700000e-01    3.880000e+00
   N6d  N6ah  1 4.700000e-01    3.880000e+00
   P6d  P1ah  1 4.700000e-01    4.060000e+00
   P5d  P1ah  1 4.700000e-01    3.880000e+00
   P4d  P1ah  1 4.700000e-01    3.880000e+00
   P3d  P1ah  1 4.700000e-01    3.880000e+00
   P2d  P1ah  1 4.700000e-01    3.880000e+00
   P1d  P1ah  1 4.700000e-01    3.880000e+00
   P6d  P2ah  1 4.700000e-01    4.250000e+00
   P5d  P2ah  1 4.700000e-01    4.060000e+00
   P4d  P2ah  1 4.700000e-01    4.060000e+00
   P3d  P2ah  1 4.700000e-01    4.060000e+00
   P2d  P2ah  1 4.700000e-01    4.060000e+00
   P6d  P3ah  1 4.700000e-01    4.250000e+00
   P5d  P3ah  1 4.700000e-01    4.060000e+00
   P4d  P3ah  1 4.700000e-01    4.060000e+00
   P3d  P3ah  1 4.700000e-01    4.060000e+00
   P6d  P4ah  1 4.700000e-01    4.480000e+00
   P5d  P4ah  1 4.700000e-01    4.250000e+00
   P4d  P4ah  1 4.700000e-01    4.250000e+00
   P6d  P5ah  1 4.700000e-01    4.730000e+00
   P5d  P5ah  1 4.700000e-01    4.480000e+00
   P6d  P6ah  1 4.700000e-01    4.990000e+00
   P6d  N1ar  1 4.700000e-01    2.960000e+00
   P5d  N1ar  1 4.700000e-01    2.960000e+00
   P4d  N1ar  1 4.700000e-01    3.070000e+00
   P3d  N1ar  1 4.700000e-01    3.240000e+00
   P2d  N1ar  1 4.700000e-01    3.390000e+00
   P1d  N1ar  1 4.700000e-01    3.390000e+00
   N6d  N1ar  1 4.700000e-01    3.390000e+00
   N5d  N1ar  1 4.700000e-01    3.390000e+00
   N4d  N1ar  1 4.700000e-01    3.390000e+00
   N3d  N1ar  1 4.700000e-01    3.390000e+00
   N2d  N1ar  1 4.700000e-01    3.390000e+00
   N1d  N1ar  1 4.700000e-01    3.520000e+00
   P6d  N2ar  1 4.700000e-01    3.070000e+00
   P5d  N2ar  1 4.700000e-01    3.070000e+00
   P4d  N2ar  1 4.700000e-01    3.240000e+00
   P3d  N2ar  1 4.700000e-01    3.390000e+00
   P2d  N2ar  1 4.700000e-01    3.390000e+00
   P1d  N2ar  1 4.700000e-01    3.390000e+00
   N6d  N2ar  1 4.700000e-01    3.390000e+00
   N5d  N2ar  1 4.700000e-01    3.520000e+00
   N4d  N2ar  1 4.700000e-01    3.520000e+00
   N3d  N2ar  1 4.700000e-01    3.520000e+00
   N2d  N2ar  1 4.700000e-01    3.520000e+00
   P6d  N3ar  1 4.700000e-01    3.240000e+00
   P5d  N3ar  1 4.700000e-01    3.240000e+00
   P4d  N3ar  1 4.700000e-01    3.390000e+00
   P3d  N3ar  1 4.700000e-01    3.390000e+00
   P2d  N3ar  1 4.700000e-01    3.390000e+00
   P1d  N3ar  1 4.700000e-01    3.390000e+00
   N6d  N3ar  1 4.700000e-01    3.520000e+00
   N5d  N3ar  1 4.700000e-01    3.520000e+00
   N4d  N3ar  1 4.700000e-01    3.520000e+00
   N3d  N3ar  1 4.700000e-01    3.520000e+00
   P6d  N4ar  1 4.700000e-01    3.390000e+00
   P5d  N4ar  1 4.700000e-01    3.520000e+00
   P4d  N4ar  1 4.700000e-01    3.520000e+00
   P3d  N4ar  1 4.700000e-01    3.520000e+00
   P2d  N4ar  1 4.700000e-01    3.520000e+00
   P1d  N4ar  1 4.700000e-01    3.690000e+00
   N6d  N4ar  1 4.700000e-01    3.880000e+00
   N5d  N4ar  1 4.700000e-01    3.690000e+00
   N4d  N4ar  1 4.700000e-01    3.690000e+00
   P6d  N5ar  1 4.700000e-01    3.520000e+00
   P5d  N5ar  1 4.700000e-01    3.520000e+00
   P4d  N5ar  1 4.700000e-01    3.520000e+00
   P3d  N5ar  1 4.700000e-01    3.520000e+00
   P2d  N5ar  1 4.700000e-01    3.690000e+00
   P1d  N5ar  1 4.700000e-01    3.690000e+00
   N6d  N5ar  1 4.700000e-01    3.880000e+00
   N5d  N5ar  1 4.700000e-01    3.690000e+00
   P6d  N6ar  1 4.700000e-01    3.880000e+00
   P5d  N6ar  1 4.700000e-01    3.690000e+00
   P4d  N6ar  1 4.700000e-01    3.690000e+00
   P3d  N6ar  1 4.700000e-01    3.690000e+00
   P2d  N6ar  1 4.700000e-01    3.880000e+00
   P1d  N6ar  1 4.700000e-01    3.880000e+00
   N6d  N6ar  1 4.700000e-01    3.880000e+00
   P6d  P1ar  1 4.700000e-01    4.060000e+00
   P5d  P1ar  1 4.700000e-01    3.880000e+00
   P4d  P1ar  1 4.700000e-01    3.880000e+00
   P3d  P1ar  1 4.700000e-01    3.880000e+00
   P2d  P1ar  1 4.700000e-01    3.880000e+00
   P1d  P1ar  1 4.700000e-01    3.880000e+00
   P6d  P2ar  1 4.700000e-01    4.250000e+00
   P5d  P2ar  1 4.700000e-01    4.060000e+00
   P4d  P2ar  1 4.700000e-01    4.060000e+00
   P3d  P2ar  1 4.700000e-01    4.060000e+00
   P2d  P2ar  1 4.700000e-01    4.060000e+00
   P6d  P3ar  1 4.700000e-01    4.250000e+00
   P5d  P3ar  1 4.700000e-01    4.060000e+00
   P4d  P3ar  1 4.700000e-01    4.060000e+00
   P3d  P3ar  1 4.700000e-01    4.060000e+00
   P6d  P4ar  1 4.700000e-01    4.480000e+00
   P5d  P4ar  1 4.700000e-01    4.250000e+00
   P4d  P4ar  1 4.700000e-01    4.250000e+00
   P6d  P5ar  1 4.700000e-01    4.730000e+00
   P5d  P5ar  1 4.700000e-01    4.480000e+00
   P6d  P6ar  1 4.700000e-01    4.990000e+00
  P6dq   P6a  1 4.700000e-01    5.790000e+00
  P6dq   P5a  1 4.700000e-01    5.240000e+00
  P6dq   P4a  1 4.700000e-01    4.990000e+00
  P6dq   P3a  1 4.700000e-01    4.730000e+00
  P6dq   P2a  1 4.700000e-01    4.730000e+00
  P6dq   P1a  1 4.700000e-01    4.480000e+00
  P6dq   N6a  1 4.700000e-01    4.250000e+00
  P6dq   N5a  1 4.700000e-01    3.880000e+00
  P6dq   N4a  1 4.700000e-01    3.690000e+00
  P6dq   N3a  1 4.700000e-01    3.390000e+00
  P6dq   N2a  1 4.700000e-01    3.240000e+00
  P6dq   N1a  1 4.700000e-01    3.240000e+00
  P5dq   P5a  1 4.700000e-01    4.990000e+00
  P5dq   P4a  1 4.700000e-01    4.730000e+00
  P5dq   P3a  1 4.700000e-01    4.480000e+00
  P5dq   P2a  1 4.700000e-01    4.480000e+00
  P5dq   P1a  1 4.700000e-01    4.250000e+00
  P5dq   N6a  1 4.700000e-01    4.060000e+00
  P5dq   N5a  1 4.700000e-01    3.880000e+00
  P5dq   N4a  1 4.700000e-01    3.880000e+00
  P5dq   N3a  1 4.700000e-01    3.390000e+00
  P5dq   N2a  1 4.700000e-01    3.240000e+00
  P5dq   N1a  1 4.700000e-01    3.240000e+00
  P4dq   P4a  1 4.700000e-01    4.730000e+00
  P4dq   P3a  1 4.700000e-01    4.480000e+00
  P4dq   P2a  1 4.700000e-01    4.480000e+00
  P4dq   P1a  1 4.700000e-01    4.250000e+00
  P4dq   N6a  1 4.700000e-01    4.060000e+00
  P4dq   N5a  1 4.700000e-01    3.880000e+00
  P4dq   N4a  1 4.700000e-01    3.880000e+00
  P4dq   N3a  1 4.700000e-01    3.690000e+00
  P4dq   N2a  1 4.700000e-01    3.390000e+00
  P4dq   N1a  1 4.700000e-01    3.240000e+00
  P3dq   P3a  1 4.700000e-01    4.480000e+00
  P3dq   P2a  1 4.700000e-01    4.480000e+00
  P3dq   P1a  1 4.700000e-01    4.250000e+00
  P3dq   N6a  1 4.700000e-01    4.060000e+00
  P3dq   N5a  1 4.700000e-01    3.880000e+00
  P3dq   N4a  1 4.700000e-01    3.880000e+00
  P3dq   N3a  1 4.700000e-01    3.690000e+00
  P3dq   N2a  1 4.700000e-01    3.690000e+00
  P3dq   N1a  1 4.700000e-01    3.390000e+00
  P2dq   P2a  1 4.700000e-01    4.480000e+00
  P2dq   P1a  1 4.700000e-01    4.250000e+00
  P2dq   N6a  1 4.700000e-01    4.250000e+00
  P2dq   N5a  1 4.700000e-01    4.060000e+00
  P2dq   N4a  1 4.700000e-01    3.880000e+00
  P2dq   N3a  1 4.700000e-01    3.690000e+00
  P2dq   N2a  1 4.700000e-01    3.690000e+00
  P2dq   N1a  1 4.700000e-01    3.690000e+00
  P1dq   P1a  1 4.700000e-01    4.250000e+00
  P1dq   N6a  1 4.700000e-01    4.250000e+00
  P1dq   N5a  1 4.700000e-01    4.060000e+00
  P1dq   N4a  1 4.700000e-01    4.060000e+00
  P1dq   N3a  1 4.700000e-01    3.690000e+00
  P1dq   N2a  1 4.700000e-01    3.690000e+00
  P1dq   N1a  1 4.700000e-01    3.690000e+00
  N6dq   N6a  1 4.700000e-01    4.250000e+00
  N6dq   N5a  1 4.700000e-01    4.250000e+00
  N6dq   N4a  1 4.700000e-01    4.250000e+00
  N6dq   N3a  1 4.700000e-01    3.880000e+00
  N6dq   N2a  1 4.700000e-01    3.690000e+00
  N6dq   N1a  1 4.700000e-01    3.690000e+00
  N5dq   N5a  1 4.700000e-01    4.060000e+00
  N5dq   N4a  1 4.700000e-01    4.060000e+00
  N5dq   N3a  1 4.700000e-01    3.880000e+00
  N5dq   N2a  1 4.700000e-01    3.880000e+00
  N5dq   N1a  1 4.700000e-01    3.690000e+00
  N4dq   N4a  1 4.700000e-01    4.060000e+00
  N4dq   N3a  1 4.700000e-01    3.880000e+00
  N4dq   N2a  1 4.700000e-01    3.880000e+00
  N4dq   N1a  1 4.700000e-01    3.690000e+00
  N3dq   N3a  1 4.700000e-01    3.880000e+00
  N3dq   N2a  1 4.700000e-01    3.880000e+00
  N3dq   N1a  1 4.700000e-01    3.690000e+00
  N2dq   N2a  1 4.700000e-01    3.880000e+00
  N2dq   N1a  1 4.700000e-01    3.690000e+00
  N1dq   N1a  1 4.700000e-01    3.880000e+00
  P6dq  P6aq  1 4.700000e-01    5.790000e+00
  P6dq  P5aq  1 4.700000e-01    5.240000e+00
  P6dq  P4aq  1 4.700000e-01    4.990000e+00
  P6dq  P3aq  1 4.700000e-01    4.730000e+00
  P6dq  P2aq  1 4.700000e-01    4.730000e+00
  P6dq  P1aq  1 4.700000e-01    4.480000e+00
  P6dq  N6aq  1 4.700000e-01    4.250000e+00
  P6dq  N5aq  1 4.700000e-01    3.880000e+00
  P6dq  N4aq  1 4.700000e-01    3.690000e+00
  P6dq  N3aq  1 4.700000e-01    3.390000e+00
  P6dq  N2aq  1 4.700000e-01    3.240000e+00
  P6dq  N1aq  1 4.700000e-01    3.240000e+00
  P5dq  P5aq  1 4.700000e-01    4.990000e+00
  P5dq  P4aq  1 4.700000e-01    4.730000e+00
  P5dq  P3aq  1 4.700000e-01    4.480000e+00
  P5dq  P2aq  1 4.700000e-01    4.480000e+00
  P5dq  P1aq  1 4.700000e-01    4.250000e+00
  P5dq  N6aq  1 4.700000e-01    4.060000e+00
  P5dq  N5aq  1 4.700000e-01    3.880000e+00
  P5dq  N4aq  1 4.700000e-01    3.880000e+00
  P5dq  N3aq  1 4.700000e-01    3.390000e+00
  P5dq  N2aq  1 4.700000e-01    3.240000e+00
  P5dq  N1aq  1 4.700000e-01    3.240000e+00
  P4dq  P4aq  1 4.700000e-01    4.730000e+00
  P4dq  P3aq  1 4.700000e-01    4.480000e+00
  P4dq  P2aq  1 4.700000e-01    4.480000e+00
  P4dq  P1aq  1 4.700000e-01    4.250000e+00
  P4dq  N6aq  1 4.700000e-01    4.060000e+00
  P4dq  N5aq  1 4.700000e-01    3.880000e+00
  P4dq  N4aq  1 4.700000e-01    3.880000e+00
  P4dq  N3aq  1 4.700000e-01    3.690000e+00
  P4dq  N2aq  1 4.700000e-01    3.390000e+00
  P4dq  N1aq  1 4.700000e-01    3.240000e+00
  P3dq  P3aq  1 4.700000e-01    4.480000e+00
  P3dq  P2aq  1 4.700000e-01    4.480000e+00
  P3dq  P1aq  1 4.700000e-01    4.250000e+00
  P3dq  N6aq  1 4.700000e-01    4.060000e+00
  P3dq  N5aq  1 4.700000e-01    3.880000e+00
  P3dq  N4aq  1 4.700000e-01    3.880000e+00
  P3dq  N3aq  1 4.700000e-01    3.690000e+00
  P3dq  N2aq  1 4.700000e-01    3.690000e+00
  P3dq  N1aq  1 4.700000e-01    3.390000e+00
  P2dq  P2aq  1 4.700000e-01    4.480000e+00
  P2dq  P1aq  1 4.700000e-01    4.250000e+00
  P2dq  N6aq  1 4.700000e-01    4.250000e+00
  P2dq  N5aq  1 4.700000e-01    4.060000e+00
  P2dq  N4aq  1 4.700000e-01    3.880000e+00
  P2dq  N3aq  1 4.700000e-01    3.690000e+00
  P2dq  N2aq  1 4.700000e-01    3.690000e+00
  P2dq  N1aq  1 4.700000e-01    3.690000e+00
  P1dq  P1aq  1 4.700000e-01    4.250000e+00
  P1dq  N6aq  1 4.700000e-01    4.250000e+00
  P1dq  N5aq  1 4.700000e-01    4.060000e+00
  P1dq  N4aq  1 4.700000e-01    4.060000e+00
  P1dq  N3aq  1 4.700000e-01    3.690000e+00
  P1dq  N2aq  1 4.700000e-01    3.690000e+00
  P1dq  N1aq  1 4.700000e-01    3.690000e+00
  N6dq  N6aq  1 4.700000e-01    4.250000e+00
  N6dq  N5aq  1 4.700000e-01    4.250000e+00
  N6dq  N4aq  1 4.700000e-01    4.250000e+00
  N6dq  N3aq  1 4.700000e-01    3.880000e+00
  N6dq  N2aq  1 4.700000e-01    3.690000e+00
  N6dq  N1aq  1 4.700000e-01    3.690000e+00
  N5dq  N5aq  1 4.700000e-01    4.060000e+00
  N5dq  N4aq  1 4.700000e-01    4.060000e+00
  N5dq  N3aq  1 4.700000e-01    3.880000e+00
  N5dq  N2aq  1 4.700000e-01    3.880000e+00
  N5dq  N1aq  1 4.700000e-01    3.690000e+00
  N4dq  N4aq  1 4.700000e-01    4.060000e+00
  N4dq  N3aq  1 4.700000e-01    3.880000e+00
  N4dq  N2aq  1 4.700000e-01    3.880000e+00
  N4dq  N1aq  1 4.700000e-01    3.690000e+00
  N3dq  N3aq  1 4.700000e-01    3.880000e+00
  N3dq  N2aq  1 4.700000e-01    3.880000e+00
  N3dq  N1aq  1 4.700000e-01    3.690000e+00
  N2dq  N2aq  1 4.700000e-01    3.880000e+00
  N2dq  N1aq  1 4.700000e-01    3.690000e+00
  N1dq  N1aq  1 4.700000e-01    3.880000e+00
  P6dq  P6ah  1 4.700000e-01    5.790000e+00
  P6dq  P5ah  1 4.700000e-01    5.240000e+00
  P5dq  P5ah  1 4.700000e-01    4.990000e+00
  P6dq  P4ah  1 4.700000e-01    4.990000e+00
  P5dq  P4ah  1 4.700000e-01    4.730000e+00
  P4dq  P4ah  1 4.700000e-01    4.730000e+00
  P6dq  P3ah  1 4.700000e-01    4.730000e+00
  P5dq  P3ah  1 4.700000e-01    4.480000e+00
  P4dq  P3ah  1 4.700000e-01    4.480000e+00
  P3dq  P3ah  1 4.700000e-01    4.480000e+00
  P6dq  P2ah  1 4.700000e-01    4.730000e+00
  P5dq  P2ah  1 4.700000e-01    4.480000e+00
  P4dq  P2ah  1 4.700000e-01    4.480000e+00
  P3dq  P2ah  1 4.700000e-01    4.480000e+00
  P2dq  P2ah  1 4.700000e-01    4.480000e+00
  P6dq  P1ah  1 4.700000e-01    4.480000e+00
  P5dq  P1ah  1 4.700000e-01    4.250000e+00
  P4dq  P1ah  1 4.700000e-01    4.250000e+00
  P3dq  P1ah  1 4.700000e-01    4.250000e+00
  P2dq  P1ah  1 4.700000e-01    4.250000e+00
  P1dq  P1ah  1 4.700000e-01    4.250000e+00
  P6dq  N6ah  1 4.700000e-01    4.250000e+00
  P5dq  N6ah  1 4.700000e-01    4.060000e+00
  P4dq  N6ah  1 4.700000e-01    4.060000e+00
  P3dq  N6ah  1 4.700000e-01    4.060000e+00
  P2dq  N6ah  1 4.700000e-01    4.250000e+00
  P1dq  N6ah  1 4.700000e-01    4.250000e+00
  N6dq  N6ah  1 4.700000e-01    4.250000e+00
  P6dq  N5ah  1 4.700000e-01    3.880000e+00
  P5dq  N5ah  1 4.700000e-01    3.880000e+00
  P4dq  N5ah  1 4.700000e-01    3.880000e+00
  P3dq  N5ah  1 4.700000e-01    3.880000e+00
  P2dq  N5ah  1 4.700000e-01    4.060000e+00
  P1dq  N5ah  1 4.700000e-01    4.060000e+00
  N6dq  N5ah  1 4.700000e-01    4.250000e+00
  N5dq  N5ah  1 4.700000e-01    4.060000e+00
  P6dq  N4ah  1 4.700000e-01    3.690000e+00
  P5dq  N4ah  1 4.700000e-01    3.880000e+00
  P4dq  N4ah  1 4.700000e-01    3.880000e+00
  P3dq  N4ah  1 4.700000e-01    3.880000e+00
  P2dq  N4ah  1 4.700000e-01    3.880000e+00
  P1dq  N4ah  1 4.700000e-01    4.060000e+00
  N6dq  N4ah  1 4.700000e-01    4.250000e+00
  N5dq  N4ah  1 4.700000e-01    4.060000e+00
  N4dq  N4ah  1 4.700000e-01    4.060000e+00
  P6dq  N3ah  1 4.700000e-01    3.390000e+00
  P5dq  N3ah  1 4.700000e-01    3.390000e+00
  P4dq  N3ah  1 4.700000e-01    3.690000e+00
  P3dq  N3ah  1 4.700000e-01    3.690000e+00
  P2dq  N3ah  1 4.700000e-01    3.690000e+00
  P1dq  N3ah  1 4.700000e-01    3.690000e+00
  N6dq  N3ah  1 4.700000e-01    3.880000e+00
  N5dq  N3ah  1 4.700000e-01    3.880000e+00
  N4dq  N3ah  1 4.700000e-01    3.880000e+00
  N3dq  N3ah  1 4.700000e-01    3.880000e+00
  P6dq  N2ah  1 4.700000e-01    3.240000e+00
  P5dq  N2ah  1 4.700000e-01    3.240000e+00
  P4dq  N2ah  1 4.700000e-01    3.390000e+00
  P3dq  N2ah  1 4.700000e-01    3.690000e+00
  P2dq  N2ah  1 4.700000e-01    3.690000e+00
  P1dq  N2ah  1 4.700000e-01    3.690000e+00
  N6dq  N2ah  1 4.700000e-01    3.690000e+00
  N5dq  N2ah  1 4.700000e-01    3.880000e+00
  N4dq  N2ah  1 4.700000e-01    3.880000e+00
  N3dq  N2ah  1 4.700000e-01    3.880000e+00
  N2dq  N2ah  1 4.700000e-01    3.880000e+00
  P6dq  N1ah  1 4.700000e-01    3.240000e+00
  P5dq  N1ah  1 4.700000e-01    3.240000e+00
  P4dq  N1ah  1 4.700000e-01    3.240000e+00
  P3dq  N1ah  1 4.700000e-01    3.390000e+00
  P2dq  N1ah  1 4.700000e-01    3.690000e+00
  P1dq  N1ah  1 4.700000e-01    3.690000e+00
  N6dq  N1ah  1 4.700000e-01    3.690000e+00
  N5dq  N1ah  1 4.700000e-01    3.690000e+00
  N4dq  N1ah  1 4.700000e-01    3.690000e+00
  N3dq  N1ah  1 4.700000e-01    3.690000e+00
  N2dq  N1ah  1 4.700000e-01    3.690000e+00
  N1dq  N1ah  1 4.700000e-01    3.880000e+00
  P6dq  P6ar  1 4.700000e-01    5.790000e+00
  P6dq  P5ar  1 4.700000e-01    5.240000e+00
  P5dq  P5ar  1 4.700000e-01    4.990000e+00
  P6dq  P4ar  1 4.700000e-01    4.990000e+00
  P5dq  P4ar  1 4.700000e-01    4.730000e+00
  P4dq  P4ar  1 4.700000e-01    4.730000e+00
  P6dq  P3ar  1 4.700000e-01    4.730000e+00
  P5dq  P3ar  1 4.700000e-01    4.480000e+00
  P4dq  P3ar  1 4.700000e-01    4.480000e+00
  P3dq  P3ar  1 4.700000e-01    4.480000e+00
  P6dq  P2ar  1 4.700000e-01    4.730000e+00
  P5dq  P2ar  1 4.700000e-01    4.480000e+00
  P4dq  P2ar  1 4.700000e-01    4.480000e+00
  P3dq  P2ar  1 4.700000e-01    4.480000e+00
  P2dq  P2ar  1 4.700000e-01    4.480000e+00
  P6dq  P1ar  1 4.700000e-01    4.480000e+00
  P5dq  P1ar  1 4.700000e-01    4.250000e+00
  P4dq  P1ar  1 4.700000e-01    4.250000e+00
  P3dq  P1ar  1 4.700000e-01    4.250000e+00
  P2dq  P1ar  1 4.700000e-01    4.250000e+00
  P1dq  P1ar  1 4.700000e-01    4.250000e+00
  P6dq  N6ar  1 4.700000e-01    4.250000e+00
  P5dq  N6ar  1 4.700000e-01    4.060000e+00
  P4dq  N6ar  1 4.700000e-01    4.060000e+00
  P3dq  N6ar  1 4.700000e-01    4.060000e+00
  P2dq  N6ar  1 4.700000e-01    4.250000e+00
  P1dq  N6ar  1 4.700000e-01    4.250000e+00
  N6dq  N6ar  1 4.700000e-01    4.250000e+00
  P6dq  N5ar  1 4.700000e-01    3.880000e+00
  P5dq  N5ar  1 4.700000e-01    3.880000e+00
  P4dq  N5ar  1 4.700000e-01    3.880000e+00
  P3dq  N5ar  1 4.700000e-01    3.880000e+00
  P2dq  N5ar  1 4.700000e-01    4.060000e+00
  P1dq  N5ar  1 4.700000e-01    4.060000e+00
  N6dq  N5ar  1 4.700000e-01    4.250000e+00
  N5dq  N5ar  1 4.700000e-01    4.060000e+00
  P6dq  N4ar  1 4.700000e-01    3.690000e+00
  P5dq  N4ar  1 4.700000e-01    3.880000e+00
  P4dq  N4ar  1 4.700000e-01    3.880000e+00
  P3dq  N4ar  1 4.700000e-01    3.880000e+00
  P2dq  N4ar  1 4.700000e-01    3.880000e+00
  P1dq  N4ar  1 4.700000e-01    4.060000e+00
  N6dq  N4ar  1 4.700000e-01    4.250000e+00
  N5dq  N4ar  1 4.700000e-01    4.060000e+00
  N4dq  N4ar  1 4.700000e-01    4.060000e+00
  P6dq  N3ar  1 4.700000e-01    3.390000e+00
  P5dq  N3ar  1 4.700000e-01    3.390000e+00
  P4dq  N3ar  1 4.700000e-01    3.690000e+00
  P3dq  N3ar  1 4.700000e-01    3.690000e+00
  P2dq  N3ar  1 4.700000e-01    3.690000e+00
  P1dq  N3ar  1 4.700000e-01    3.690000e+00
  N6dq  N3ar  1 4.700000e-01    3.880000e+00
  N5dq  N3ar  1 4.700000e-01    3.880000e+00
  N4dq  N3ar  1 4.700000e-01    3.880000e+00
  N3dq  N3ar  1 4.700000e-01    3.880000e+00
  P6dq  N2ar  1 4.700000e-01    3.240000e+00
  P5dq  N2ar  1 4.700000e-01    3.240000e+00
  P4dq  N2ar  1 4.700000e-01    3.390000e+00
  P3dq  N2ar  1 4.700000e-01    3.690000e+00
  P2dq  N2ar  1 4.700000e-01    3.690000e+00
  P1dq  N2ar  1 4.700000e-01    3.690000e+00
  N6dq  N2ar  1 4.700000e-01    3.690000e+00
  N5dq  N2ar  1 4.700000e-01    3.880000e+00
  N4dq  N2ar  1 4.700000e-01    3.880000e+00
  N3dq  N2ar  1 4.700000e-01    3.880000e+00
  N2dq  N2ar  1 4.700000e-01    3.880000e+00
  P6dq  N1ar  1 4.700000e-01    3.240000e+00
  P5dq  N1ar  1 4.700000e-01    3.240000e+00
  P4dq  N1ar  1 4.700000e-01    3.240000e+00
  P3dq  N1ar  1 4.700000e-01    3.390000e+00
  P2dq  N1ar  1 4.700000e-01    3.690000e+00
  P1dq  N1ar  1 4.700000e-01    3.690000e+00
  N6dq  N1ar  1 4.700000e-01    3.690000e+00
  N5dq  N1ar  1 4.700000e-01    3.690000e+00
  N4dq  N1ar  1 4.700000e-01    3.690000e+00
  N3dq  N1ar  1 4.700000e-01    3.690000e+00
  N2dq  N1ar  1 4.700000e-01    3.690000e+00
  N1dq  N1ar  1 4.700000e-01    3.880000e+00
  P6dh   P6a  1 4.700000e-01    4.990000e+00
  P6dh   P5a  1 4.700000e-01    4.730000e+00
  P6dh   P4a  1 4.700000e-01    4.480000e+00
  P6dh   P3a  1 4.700000e-01    4.250000e+00
  P6dh   P2a  1 4.700000e-01    4.250000e+00
  P6dh   P1a  1 4.700000e-01    4.060000e+00
  P6dh   N6a  1 4.700000e-01    3.880000e+00
  P6dh   N5a  1 4.700000e-01    3.520000e+00
  P6dh   N4a  1 4.700000e-01    3.390000e+00
  P6dh   N3a  1 4.700000e-01    3.240000e+00
  P6dh   N2a  1 4.700000e-01    3.070000e+00
  P6dh   N1a  1 4.700000e-01    2.960000e+00
  P5dh   P5a  1 4.700000e-01    4.480000e+00
  P5dh   P4a  1 4.700000e-01    4.250000e+00
  P5dh   P3a  1 4.700000e-01    4.060000e+00
  P5dh   P2a  1 4.700000e-01    4.060000e+00
  P5dh   P1a  1 4.700000e-01    3.880000e+00
  P5dh   N6a  1 4.700000e-01    3.690000e+00
  P5dh   N5a  1 4.700000e-01    3.520000e+00
  P5dh   N4a  1 4.700000e-01    3.520000e+00
  P5dh   N3a  1 4.700000e-01    3.240000e+00
  P5dh   N2a  1 4.700000e-01    3.070000e+00
  P5dh   N1a  1 4.700000e-01    2.960000e+00
  P4dh   P4a  1 4.700000e-01    4.250000e+00
  P4dh   P3a  1 4.700000e-01    4.060000e+00
  P4dh   P2a  1 4.700000e-01    4.060000e+00
  P4dh   P1a  1 4.700000e-01    3.880000e+00
  P4dh   N6a  1 4.700000e-01    3.690000e+00
  P4dh   N5a  1 4.700000e-01    3.520000e+00
  P4dh   N4a  1 4.700000e-01    3.520000e+00
  P4dh   N3a  1 4.700000e-01    3.390000e+00
  P4dh   N2a  1 4.700000e-01    3.240000e+00
  P4dh   N1a  1 4.700000e-01    3.070000e+00
  P3dh   P3a  1 4.700000e-01    4.060000e+00
  P3dh   P2a  1 4.700000e-01    4.060000e+00
  P3dh   P1a  1 4.700000e-01    3.880000e+00
  P3dh   N6a  1 4.700000e-01    3.690000e+00
  P3dh   N5a  1 4.700000e-01    3.520000e+00
  P3dh   N4a  1 4.700000e-01    3.520000e+00
  P3dh   N3a  1 4.700000e-01    3.390000e+00
  P3dh   N2a  1 4.700000e-01    3.390000e+00
  P3dh   N1a  1 4.700000e-01    3.240000e+00
  P2dh   P2a  1 4.700000e-01    4.060000e+00
  P2dh   P1a  1 4.700000e-01    3.880000e+00
  P2dh   N6a  1 4.700000e-01    3.880000e+00
  P2dh   N5a  1 4.700000e-01    3.690000e+00
  P2dh   N4a  1 4.700000e-01    3.520000e+00
  P2dh   N3a  1 4.700000e-01    3.390000e+00
  P2dh   N2a  1 4.700000e-01    3.390000e+00
  P2dh   N1a  1 4.700000e-01    3.390000e+00
  P1dh   P1a  1 4.700000e-01    3.880000e+00
  P1dh   N6a  1 4.700000e-01    3.880000e+00
  P1dh   N5a  1 4.700000e-01    3.690000e+00
  P1dh   N4a  1 4.700000e-01    3.690000e+00
  P1dh   N3a  1 4.700000e-01    3.390000e+00
  P1dh   N2a  1 4.700000e-01    3.390000e+00
  P1dh   N1a  1 4.700000e-01    3.390000e+00
  N6dh   N6a  1 4.700000e-01    3.880000e+00
  N6dh   N5a  1 4.700000e-01    3.880000e+00
  N6dh   N4a  1 4.700000e-01    3.880000e+00
  N6dh   N3a  1 4.700000e-01    3.520000e+00
  N6dh   N2a  1 4.700000e-01    3.390000e+00
  N6dh   N1a  1 4.700000e-01    3.390000e+00
  N5dh   N5a  1 4.700000e-01    3.690000e+00
  N5dh   N4a  1 4.700000e-01    3.690000e+00
  N5dh   N3a  1 4.700000e-01    3.520000e+00
  N5dh   N2a  1 4.700000e-01    3.520000e+00
  N5dh   N1a  1 4.700000e-01    3.390000e+00
  N4dh   N4a  1 4.700000e-01    3.690000e+00
  N4dh   N3a  1 4.700000e-01    3.520000e+00
  N4dh   N2a  1 4.700000e-01    3.520000e+00
  N4dh   N1a  1 4.700000e-01    3.390000e+00
  N3dh   N3a  1 4.700000e-01    3.520000e+00
  N3dh   N2a  1 4.700000e-01    3.520000e+00
  N3dh   N1a  1 4.700000e-01    3.390000e+00
  N2dh   N2a  1 4.700000e-01    3.520000e+00
  N2dh   N1a  1 4.700000e-01    3.390000e+00
  N1dh   N1a  1 4.700000e-01    3.520000e+00
  P6dh  N1aq  1 4.700000e-01    3.240000e+00
  P6dh  N2aq  1 4.700000e-01    3.240000e+00
  P6dh  N3aq  1 4.700000e-01    3.390000e+00
  P6dh  N4aq  1 4.700000e-01    3.690000e+00
  P6dh  N5aq  1 4.700000e-01    3.880000e+00
  P6dh  N6aq  1 4.700000e-01    4.250000e+00
  P6dh  P1aq  1 4.700000e-01    4.480000e+00
  P6dh  P2aq  1 4.700000e-01    4.730000e+00
  P6dh  P3aq  1 4.700000e-01    4.730000e+00
  P6dh  P4aq  1 4.700000e-01    4.990000e+00
  P6dh  P5aq  1 4.700000e-01    5.240000e+00
  P6dh  P6aq  1 4.700000e-01    5.790000e+00
  P5dh  N1aq  1 4.700000e-01    3.240000e+00
  P5dh  N2aq  1 4.700000e-01    3.240000e+00
  P5dh  N3aq  1 4.700000e-01    3.390000e+00
  P5dh  N4aq  1 4.700000e-01    3.880000e+00
  P5dh  N5aq  1 4.700000e-01    3.880000e+00
  P5dh  N6aq  1 4.700000e-01    4.060000e+00
  P5dh  P1aq  1 4.700000e-01    4.250000e+00
  P5dh  P2aq  1 4.700000e-01    4.480000e+00
  P5dh  P3aq  1 4.700000e-01    4.480000e+00
  P5dh  P4aq  1 4.700000e-01    4.730000e+00
  P5dh  P5aq  1 4.700000e-01    4.990000e+00
  P4dh  N1aq  1 4.700000e-01    3.240000e+00
  P4dh  N2aq  1 4.700000e-01    3.390000e+00
  P4dh  N3aq  1 4.700000e-01    3.690000e+00
  P4dh  N4aq  1 4.700000e-01    3.880000e+00
  P4dh  N5aq  1 4.700000e-01    3.880000e+00
  P4dh  N6aq  1 4.700000e-01    4.060000e+00
  P4dh  P1aq  1 4.700000e-01    4.250000e+00
  P4dh  P2aq  1 4.700000e-01    4.480000e+00
  P4dh  P3aq  1 4.700000e-01    4.480000e+00
  P4dh  P4aq  1 4.700000e-01    4.730000e+00
  P3dh  N1aq  1 4.700000e-01    3.390000e+00
  P3dh  N2aq  1 4.700000e-01    3.690000e+00
  P3dh  N3aq  1 4.700000e-01    3.690000e+00
  P3dh  N4aq  1 4.700000e-01    3.880000e+00
  P3dh  N5aq  1 4.700000e-01    3.880000e+00
  P3dh  N6aq  1 4.700000e-01    4.060000e+00
  P3dh  P1aq  1 4.700000e-01    4.250000e+00
  P3dh  P2aq  1 4.700000e-01    4.480000e+00
  P3dh  P3aq  1 4.700000e-01    4.480000e+00
  P2dh  N1aq  1 4.700000e-01    3.690000e+00
  P2dh  N2aq  1 4.700000e-01    3.690000e+00
  P2dh  N3aq  1 4.700000e-01    3.690000e+00
  P2dh  N4aq  1 4.700000e-01    3.880000e+00
  P2dh  N5aq  1 4.700000e-01    4.060000e+00
  P2dh  N6aq  1 4.700000e-01    4.250000e+00
  P2dh  P1aq  1 4.700000e-01    4.250000e+00
  P2dh  P2aq  1 4.700000e-01    4.480000e+00
  P1dh  N1aq  1 4.700000e-01    3.690000e+00
  P1dh  N2aq  1 4.700000e-01    3.690000e+00
  P1dh  N3aq  1 4.700000e-01    3.690000e+00
  P1dh  N4aq  1 4.700000e-01    4.060000e+00
  P1dh  N5aq  1 4.700000e-01    4.060000e+00
  P1dh  N6aq  1 4.700000e-01    4.250000e+00
  P1dh  P1aq  1 4.700000e-01    4.250000e+00
  N6dh  N1aq  1 4.700000e-01    3.690000e+00
  N6dh  N2aq  1 4.700000e-01    3.690000e+00
  N6dh  N3aq  1 4.700000e-01    3.880000e+00
  N6dh  N4aq  1 4.700000e-01    4.250000e+00
  N6dh  N5aq  1 4.700000e-01    4.250000e+00
  N6dh  N6aq  1 4.700000e-01    4.250000e+00
  N5dh  N1aq  1 4.700000e-01    3.690000e+00
  N5dh  N2aq  1 4.700000e-01    3.880000e+00
  N5dh  N3aq  1 4.700000e-01    3.880000e+00
  N5dh  N4aq  1 4.700000e-01    4.060000e+00
  N5dh  N5aq  1 4.700000e-01    4.060000e+00
  N4dh  N1aq  1 4.700000e-01    3.690000e+00
  N4dh  N2aq  1 4.700000e-01    3.880000e+00
  N4dh  N3aq  1 4.700000e-01    3.880000e+00
  N4dh  N4aq  1 4.700000e-01    4.060000e+00
  N3dh  N1aq  1 4.700000e-01    3.690000e+00
  N3dh  N2aq  1 4.700000e-01    3.880000e+00
  N3dh  N3aq  1 4.700000e-01    3.880000e+00
  N2dh  N1aq  1 4.700000e-01    3.690000e+00
  N2dh  N2aq  1 4.700000e-01    3.880000e+00
  N1dh  N1aq  1 4.700000e-01    3.880000e+00
  P6dh  P6ah  1 4.700000e-01    5.240000e+00
  P6dh  P5ah  1 4.700000e-01    4.990000e+00
  P6dh  P4ah  1 4.700000e-01    4.730000e+00
  P6dh  P3ah  1 4.700000e-01    4.480000e+00
  P6dh  P2ah  1 4.700000e-01    4.480000e+00
  P6dh  P1ah  1 4.700000e-01    4.250000e+00
  P6dh  N6ah  1 4.700000e-01    4.060000e+00
  P6dh  N5ah  1 4.700000e-01    3.690000e+00
  P6dh  N4ah  1 4.700000e-01    3.520000e+00
  P6dh  N3ah  1 4.700000e-01    3.240000e+00
  P6dh  N2ah  1 4.700000e-01    3.240000e+00
  P6dh  N1ah  1 4.700000e-01    3.070000e+00
  P5dh  P5ah  1 4.700000e-01    4.730000e+00
  P5dh  P4ah  1 4.700000e-01    4.480000e+00
  P5dh  P3ah  1 4.700000e-01    4.250000e+00
  P5dh  P2ah  1 4.700000e-01    4.250000e+00
  P5dh  P1ah  1 4.700000e-01    4.060000e+00
  P5dh  N6ah  1 4.700000e-01    3.880000e+00
  P5dh  N5ah  1 4.700000e-01    3.690000e+00
  P5dh  N4ah  1 4.700000e-01    3.690000e+00
  P5dh  N3ah  1 4.700000e-01    3.240000e+00
  P5dh  N2ah  1 4.700000e-01    3.240000e+00
  P5dh  N1ah  1 4.700000e-01    3.070000e+00
  P4dh  P4ah  1 4.700000e-01    4.480000e+00
  P4dh  P3ah  1 4.700000e-01    4.250000e+00
  P4dh  P2ah  1 4.700000e-01    4.250000e+00
  P4dh  P1ah  1 4.700000e-01    4.060000e+00
  P4dh  N6ah  1 4.700000e-01    3.880000e+00
  P4dh  N5ah  1 4.700000e-01    3.690000e+00
  P4dh  N4ah  1 4.700000e-01    3.690000e+00
  P4dh  N3ah  1 4.700000e-01    3.520000e+00
  P4dh  N2ah  1 4.700000e-01    3.240000e+00
  P4dh  N1ah  1 4.700000e-01    3.240000e+00
  P3dh  P3ah  1 4.700000e-01    4.250000e+00
  P3dh  P2ah  1 4.700000e-01    4.250000e+00
  P3dh  P1ah  1 4.700000e-01    4.060000e+00
  P3dh  N6ah  1 4.700000e-01    3.880000e+00
  P3dh  N5ah  1 4.700000e-01    3.690000e+00
  P3dh  N4ah  1 4.700000e-01    3.690000e+00
  P3dh  N3ah  1 4.700000e-01    3.520000e+00
  P3dh  N2ah  1 4.700000e-01    3.520000e+00
  P3dh  N1ah  1 4.700000e-01    3.240000e+00
  P2dh  P2ah  1 4.700000e-01    4.250000e+00
  P2dh  P1ah  1 4.700000e-01    4.060000e+00
  P2dh  N6ah  1 4.700000e-01    4.060000e+00
  P2dh  N5ah  1 4.700000e-01    3.880000e+00
  P2dh  N4ah  1 4.700000e-01    3.690000e+00
  P2dh  N3ah  1 4.700000e-01    3.520000e+00
  P2dh  N2ah  1 4.700000e-01    3.520000e+00
  P2dh  N1ah  1 4.700000e-01    3.520000e+00
  P1dh  P1ah  1 4.700000e-01    4.060000e+00
  P1dh  N6ah  1 4.700000e-01    4.060000e+00
  P1dh  N5ah  1 4.700000e-01    3.880000e+00
  P1dh  N4ah  1 4.700000e-01    3.880000e+00
  P1dh  N3ah  1 4.700000e-01    3.520000e+00
  P1dh  N2ah  1 4.700000e-01    3.520000e+00
  P1dh  N1ah  1 4.700000e-01    3.520000e+00
  N6dh  N6ah  1 4.700000e-01    4.060000e+00
  N6dh  N5ah  1 4.700000e-01    4.060000e+00
  N6dh  N4ah  1 4.700000e-01    4.060000e+00
  N6dh  N3ah  1 4.700000e-01    3.690000e+00
  N6dh  N2ah  1 4.700000e-01    3.520000e+00
  N6dh  N1ah  1 4.700000e-01    3.520000e+00
  N5dh  N5ah  1 4.700000e-01    3.880000e+00
  N5dh  N4ah  1 4.700000e-01    3.880000e+00
  N5dh  N3ah  1 4.700000e-01    3.690000e+00
  N5dh  N2ah  1 4.700000e-01    3.690000e+00
  N5dh  N1ah  1 4.700000e-01    3.520000e+00
  N4dh  N4ah  1 4.700000e-01    3.880000e+00
  N4dh  N3ah  1 4.700000e-01    3.690000e+00
  N4dh  N2ah  1 4.700000e-01    3.690000e+00
  N4dh  N1ah  1 4.700000e-01    3.520000e+00
  N3dh  N3ah  1 4.700000e-01    3.690000e+00
  N3dh  N2ah  1 4.700000e-01    3.690000e+00
  N3dh  N1ah  1 4.700000e-01    3.520000e+00
  N2dh  N2ah  1 4.700000e-01    3.690000e+00
  N2dh  N1ah  1 4.700000e-01    3.520000e+00
  N1dh  N1ah  1 4.700000e-01    3.690000e+00
  P6dh  P6ar  1 4.700000e-01    4.990000e+00
  P6dh  P5ar  1 4.700000e-01    4.730000e+00
  P6dh  P4ar  1 4.700000e-01    4.480000e+00
  P6dh  P3ar  1 4.700000e-01    4.250000e+00
  P6dh  P2ar  1 4.700000e-01    4.250000e+00
  P6dh  P1ar  1 4.700000e-01    4.060000e+00
  P6dh  N6ar  1 4.700000e-01    3.880000e+00
  P6dh  N5ar  1 4.700000e-01    3.520000e+00
  P6dh  N4ar  1 4.700000e-01    3.390000e+00
  P6dh  N3ar  1 4.700000e-01    3.240000e+00
  P6dh  N2ar  1 4.700000e-01    3.070000e+00
  P6dh  N1ar  1 4.700000e-01    2.960000e+00
  P5dh  P5ar  1 4.700000e-01    4.480000e+00
  P5dh  P4ar  1 4.700000e-01    4.250000e+00
  P5dh  P3ar  1 4.700000e-01    4.060000e+00
  P5dh  P2ar  1 4.700000e-01    4.060000e+00
  P5dh  P1ar  1 4.700000e-01    3.880000e+00
  P5dh  N6ar  1 4.700000e-01    3.690000e+00
  P5dh  N5ar  1 4.700000e-01    3.520000e+00
  P5dh  N4ar  1 4.700000e-01    3.520000e+00
  P5dh  N3ar  1 4.700000e-01    3.240000e+00
  P5dh  N2ar  1 4.700000e-01    3.070000e+00
  P5dh  N1ar  1 4.700000e-01    2.960000e+00
  P4dh  P4ar  1 4.700000e-01    4.250000e+00
  P4dh  P3ar  1 4.700000e-01    4.060000e+00
  P4dh  P2ar  1 4.700000e-01    4.060000e+00
  P4dh  P1ar  1 4.700000e-01    3.880000e+00
  P4dh  N6ar  1 4.700000e-01    3.690000e+00
  P4dh  N5ar  1 4.700000e-01    3.520000e+00
  P4dh  N4ar  1 4.700000e-01    3.520000e+00
  P4dh  N3ar  1 4.700000e-01    3.390000e+00
  P4dh  N2ar  1 4.700000e-01    3.240000e+00
  P4dh  N1ar  1 4.700000e-01    3.070000e+00
  P3dh  P3ar  1 4.700000e-01    4.060000e+00
  P3dh  P2ar  1 4.700000e-01    4.060000e+00
  P3dh  P1ar  1 4.700000e-01    3.880000e+00
  P3dh  N6ar  1 4.700000e-01    3.690000e+00
  P3dh  N5ar  1 4.700000e-01    3.520000e+00
  P3dh  N4ar  1 4.700000e-01    3.520000e+00
  P3dh  N3ar  1 4.700000e-01    3.390000e+00
  P3dh  N2ar  1 4.700000e-01    3.390000e+00
  P3dh  N1ar  1 4.700000e-01    3.240000e+00
  P2dh  P2ar  1 4.700000e-01    4.060000e+00
  P2dh  P1ar  1 4.700000e-01    3.880000e+00
  P2dh  N6ar  1 4.700000e-01    3.880000e+00
  P2dh  N5ar  1 4.700000e-01    3.690000e+00
  P2dh  N4ar  1 4.700000e-01    3.520000e+00
  P2dh  N3ar  1 4.700000e-01    3.390000e+00
  P2dh  N2ar  1 4.700000e-01    3.390000e+00
  P2dh  N1ar  1 4.700000e-01    3.390000e+00
  P1dh  P1ar  1 4.700000e-01    3.880000e+00
  P1dh  N6ar  1 4.700000e-01    3.880000e+00
  P1dh  N5ar  1 4.700000e-01    3.690000e+00
  P1dh  N4ar  1 4.700000e-01    3.690000e+00
  P1dh  N3ar  1 4.700000e-01    3.390000e+00
  P1dh  N2ar  1 4.700000e-01    3.390000e+00
  P1dh  N1ar  1 4.700000e-01    3.390000e+00
  N6dh  N6ar  1 4.700000e-01    3.880000e+00
  N6dh  N5ar  1 4.700000e-01    3.880000e+00
  N6dh  N4ar  1 4.700000e-01    3.880000e+00
  N6dh  N3ar  1 4.700000e-01    3.520000e+00
  N6dh  N2ar  1 4.700000e-01    3.390000e+00
  N6dh  N1ar  1 4.700000e-01    3.390000e+00
  N5dh  N5ar  1 4.700000e-01    3.690000e+00
  N5dh  N4ar  1 4.700000e-01    3.690000e+00
  N5dh  N3ar  1 4.700000e-01    3.520000e+00
  N5dh  N2ar  1 4.700000e-01    3.520000e+00
  N5dh  N1ar  1 4.700000e-01    3.390000e+00
  N4dh  N4ar  1 4.700000e-01    3.690000e+00
  N4dh  N3ar  1 4.700000e-01    3.520000e+00
  N4dh  N2ar  1 4.700000e-01    3.520000e+00
  N4dh  N1ar  1 4.700000e-01    3.390000e+00
  N3dh  N3ar  1 4.700000e-01    3.520000e+00
  N3dh  N2ar  1 4.700000e-01    3.520000e+00
  N3dh  N1ar  1 4.700000e-01    3.390000e+00
  N2dh  N2ar  1 4.700000e-01    3.520000e+00
  N2dh  N1ar  1 4.700000e-01    3.390000e+00
  N1dh  N1ar  1 4.700000e-01    3.520000e+00
  P6dr   P6a  1 4.700000e-01    4.990000e+00
  P6dr   P5a  1 4.700000e-01    4.730000e+00
  P6dr   P4a  1 4.700000e-01    4.480000e+00
  P6dr   P3a  1 4.700000e-01    4.250000e+00
  P6dr   P2a  1 4.700000e-01    4.250000e+00
  P6dr   P1a  1 4.700000e-01    4.060000e+00
  P6dr   N6a  1 4.700000e-01    3.880000e+00
  P6dr   N5a  1 4.700000e-01    3.520000e+00
  P6dr   N4a  1 4.700000e-01    3.390000e+00
  P6dr   N3a  1 4.700000e-01    3.240000e+00
  P6dr   N2a  1 4.700000e-01    3.070000e+00
  P6dr   N1a  1 4.700000e-01    2.960000e+00
  P5dr   P5a  1 4.700000e-01    4.480000e+00
  P5dr   P4a  1 4.700000e-01    4.250000e+00
  P5dr   P3a  1 4.700000e-01    4.060000e+00
  P5dr   P2a  1 4.700000e-01    4.060000e+00
  P5dr   P1a  1 4.700000e-01    3.880000e+00
  P5dr   N6a  1 4.700000e-01    3.690000e+00
  P5dr   N5a  1 4.700000e-01    3.520000e+00
  P5dr   N4a  1 4.700000e-01    3.520000e+00
  P5dr   N3a  1 4.700000e-01    3.240000e+00
  P5dr   N2a  1 4.700000e-01    3.070000e+00
  P5dr   N1a  1 4.700000e-01    2.960000e+00
  P4dr   P4a  1 4.700000e-01    4.250000e+00
  P4dr   P3a  1 4.700000e-01    4.060000e+00
  P4dr   P2a  1 4.700000e-01    4.060000e+00
  P4dr   P1a  1 4.700000e-01    3.880000e+00
  P4dr   N6a  1 4.700000e-01    3.690000e+00
  P4dr   N5a  1 4.700000e-01    3.520000e+00
  P4dr   N4a  1 4.700000e-01    3.520000e+00
  P4dr   N3a  1 4.700000e-01    3.390000e+00
  P4dr   N2a  1 4.700000e-01    3.240000e+00
  P4dr   N1a  1 4.700000e-01    3.070000e+00
  P3dr   P3a  1 4.700000e-01    4.060000e+00
  P3dr   P2a  1 4.700000e-01    4.060000e+00
  P3dr   P1a  1 4.700000e-01    3.880000e+00
  P3dr   N6a  1 4.700000e-01    3.690000e+00
  P3dr   N5a  1 4.700000e-01    3.520000e+00
  P3dr   N4a  1 4.700000e-01    3.520000e+00
  P3dr   N3a  1 4.700000e-01    3.390000e+00
  P3dr   N2a  1 4.700000e-01    3.390000e+00
  P3dr   N1a  1 4.700000e-01    3.240000e+00
  P2dr   P2a  1 4.700000e-01    4.060000e+00
  P2dr   P1a  1 4.700000e-01    3.880000e+00
  P2dr   N6a  1 4.700000e-01    3.880000e+00
  P2dr   N5a  1 4.700000e-01    3.690000e+00
  P2dr   N4a  1 4.700000e-01    3.520000e+00
  P2dr   N3a  1 4.700000e-01    3.390000e+00
  P2dr   N2a  1 4.700000e-01    3.390000e+00
  P2dr   N1a  1 4.700000e-01    3.390000e+00
  P1dr   P1a  1 4.700000e-01    3.880000e+00
  P1dr   N6a  1 4.700000e-01    3.880000e+00
  P1dr   N5a  1 4.700000e-01    3.690000e+00
  P1dr   N4a  1 4.700000e-01    3.690000e+00
  P1dr   N3a  1 4.700000e-01    3.390000e+00
  P1dr   N2a  1 4.700000e-01    3.390000e+00
  P1dr   N1a  1 4.700000e-01    3.390000e+00
  N6dr   N6a  1 4.700000e-01    3.880000e+00
  N6dr   N5a  1 4.700000e-01    3.880000e+00
  N6dr   N4a  1 4.700000e-01    3.880000e+00
  N6dr   N3a  1 4.700000e-01    3.520000e+00
  N6dr   N2a  1 4.700000e-01    3.390000e+00
  N6dr   N1a  1 4.700000e-01    3.390000e+00
  N5dr   N5a  1 4.700000e-01    3.690000e+00
  N5dr   N4a  1 4.700000e-01    3.690000e+00
  N5dr   N3a  1 4.700000e-01    3.520000e+00
  N5dr   N2a  1 4.700000e-01    3.520000e+00
  N5dr   N1a  1 4.700000e-01    3.390000e+00
  N4dr   N4a  1 4.700000e-01    3.690000e+00
  N4dr   N3a  1 4.700000e-01    3.520000e+00
  N4dr   N2a  1 4.700000e-01    3.520000e+00
  N4dr   N1a  1 4.700000e-01    3.390000e+00
  N3dr   N3a  1 4.700000e-01    3.520000e+00
  N3dr   N2a  1 4.700000e-01    3.520000e+00
  N3dr   N1a  1 4.700000e-01    3.390000e+00
  N2dr   N2a  1 4.700000e-01    3.520000e+00
  N2dr   N1a  1 4.700000e-01    3.390000e+00
  N1dr   N1a  1 4.700000e-01    3.520000e+00
  P6dr  N1aq  1 4.700000e-01    3.240000e+00
  P6dr  N2aq  1 4.700000e-01    3.240000e+00
  P6dr  N3aq  1 4.700000e-01    3.390000e+00
  P6dr  N4aq  1 4.700000e-01    3.690000e+00
  P6dr  N5aq  1 4.700000e-01    3.880000e+00
  P6dr  N6aq  1 4.700000e-01    4.250000e+00
  P6dr  P1aq  1 4.700000e-01    4.480000e+00
  P6dr  P2aq  1 4.700000e-01    4.730000e+00
  P6dr  P3aq  1 4.700000e-01    4.730000e+00
  P6dr  P4aq  1 4.700000e-01    4.990000e+00
  P6dr  P5aq  1 4.700000e-01    5.240000e+00
  P6dr  P6aq  1 4.700000e-01    5.790000e+00
  P5dr  N1aq  1 4.700000e-01    3.240000e+00
  P5dr  N2aq  1 4.700000e-01    3.240000e+00
  P5dr  N3aq  1 4.700000e-01    3.390000e+00
  P5dr  N4aq  1 4.700000e-01    3.880000e+00
  P5dr  N5aq  1 4.700000e-01    3.880000e+00
  P5dr  N6aq  1 4.700000e-01    4.060000e+00
  P5dr  P1aq  1 4.700000e-01    4.250000e+00
  P5dr  P2aq  1 4.700000e-01    4.480000e+00
  P5dr  P3aq  1 4.700000e-01    4.480000e+00
  P5dr  P4aq  1 4.700000e-01    4.730000e+00
  P5dr  P5aq  1 4.700000e-01    4.990000e+00
  P4dr  N1aq  1 4.700000e-01    3.240000e+00
  P4dr  N2aq  1 4.700000e-01    3.390000e+00
  P4dr  N3aq  1 4.700000e-01    3.690000e+00
  P4dr  N4aq  1 4.700000e-01    3.880000e+00
  P4dr  N5aq  1 4.700000e-01    3.880000e+00
  P4dr  N6aq  1 4.700000e-01    4.060000e+00
  P4dr  P1aq  1 4.700000e-01    4.250000e+00
  P4dr  P2aq  1 4.700000e-01    4.480000e+00
  P4dr  P3aq  1 4.700000e-01    4.480000e+00
  P4dr  P4aq  1 4.700000e-01    4.730000e+00
  P3dr  N1aq  1 4.700000e-01    3.390000e+00
  P3dr  N2aq  1 4.700000e-01    3.690000e+00
  P3dr  N3aq  1 4.700000e-01    3.690000e+00
  P3dr  N4aq  1 4.700000e-01    3.880000e+00
  P3dr  N5aq  1 4.700000e-01    3.880000e+00
  P3dr  N6aq  1 4.700000e-01    4.060000e+00
  P3dr  P1aq  1 4.700000e-01    4.250000e+00
  P3dr  P2aq  1 4.700000e-01    4.480000e+00
  P3dr  P3aq  1 4.700000e-01    4.480000e+00
  P2dr  N1aq  1 4.700000e-01    3.690000e+00
  P2dr  N2aq  1 4.700000e-01    3.690000e+00
  P2dr  N3aq  1 4.700000e-01    3.690000e+00
  P2dr  N4aq  1 4.700000e-01    3.880000e+00
  P2dr  N5aq  1 4.700000e-01    4.060000e+00
  P2dr  N6aq  1 4.700000e-01    4.250000e+00
  P2dr  P1aq  1 4.700000e-01    4.250000e+00
  P2dr  P2aq  1 4.700000e-01    4.480000e+00
  P1dr  N1aq  1 4.700000e-01    3.690000e+00
  P1dr  N2aq  1 4.700000e-01    3.690000e+00
  P1dr  N3aq  1 4.700000e-01    3.690000e+00
  P1dr  N4aq  1 4.700000e-01    4.060000e+00
  P1dr  N5aq  1 4.700000e-01    4.060000e+00
  P1dr  N6aq  1 4.700000e-01    4.250000e+00
  P1dr  P1aq  1 4.700000e-01    4.250000e+00
  N6dr  N1aq  1 4.700000e-01    3.690000e+00
  N6dr  N2aq  1 4.700000e-01    3.690000e+00
  N6dr  N3aq  1 4.700000e-01    3.880000e+00
  N6dr  N4aq  1 4.700000e-01    4.250000e+00
  N6dr  N5aq  1 4.700000e-01    4.250000e+00
  N6dr  N6aq  1 4.700000e-01    4.250000e+00
  N5dr  N1aq  1 4.700000e-01    3.690000e+00
  N5dr  N2aq  1 4.700000e-01    3.880000e+00
  N5dr  N3aq  1 4.700000e-01    3.880000e+00
  N5dr  N4aq  1 4.700000e-01    4.060000e+00
  N5dr  N5aq  1 4.700000e-01    4.060000e+00
  N4dr  N1aq  1 4.700000e-01    3.690000e+00
  N4dr  N2aq  1 4.700000e-01    3.880000e+00
  N4dr  N3aq  1 4.700000e-01    3.880000e+00
  N4dr  N4aq  1 4.700000e-01    4.060000e+00
  N3dr  N1aq  1 4.700000e-01    3.690000e+00
  N3dr  N2aq  1 4.700000e-01    3.880000e+00
  N3dr  N3aq  1 4.700000e-01    3.880000e+00
  N2dr  N1aq  1 4.700000e-01    3.690000e+00
  N2dr  N2aq  1 4.700000e-01    3.880000e+00
  N1dr  N1aq  1 4.700000e-01    3.880000e+00
  P6dr  P6ah  1 4.700000e-01    4.990000e+00
  P6dr  P5ah  1 4.700000e-01    4.730000e+00
  P6dr  P4ah  1 4.700000e-01    4.480000e+00
  P6dr  P3ah  1 4.700000e-01    4.250000e+00
  P6dr  P2ah  1 4.700000e-01    4.250000e+00
  P6dr  P1ah  1 4.700000e-01    4.060000e+00
  P6dr  N6ah  1 4.700000e-01    3.880000e+00
  P6dr  N5ah  1 4.700000e-01    3.520000e+00
  P6dr  N4ah  1 4.700000e-01    3.390000e+00
  P6dr  N3ah  1 4.700000e-01    3.240000e+00
  P6dr  N2ah  1 4.700000e-01    3.070000e+00
  P6dr  N1ah  1 4.700000e-01    2.960000e+00
  P5dr  P5ah  1 4.700000e-01    4.480000e+00
  P5dr  P4ah  1 4.700000e-01    4.250000e+00
  P5dr  P3ah  1 4.700000e-01    4.060000e+00
  P5dr  P2ah  1 4.700000e-01    4.060000e+00
  P5dr  P1ah  1 4.700000e-01    3.880000e+00
  P5dr  N6ah  1 4.700000e-01    3.690000e+00
  P5dr  N5ah  1 4.700000e-01    3.520000e+00
  P5dr  N4ah  1 4.700000e-01    3.520000e+00
  P5dr  N3ah  1 4.700000e-01    3.240000e+00
  P5dr  N2ah  1 4.700000e-01    3.070000e+00
  P5dr  N1ah  1 4.700000e-01    2.960000e+00
  P4dr  P4ah  1 4.700000e-01    4.250000e+00
  P4dr  P3ah  1 4.700000e-01    4.060000e+00
  P4dr  P2ah  1 4.700000e-01    4.060000e+00
  P4dr  P1ah  1 4.700000e-01    3.880000e+00
  P4dr  N6ah  1 4.700000e-01    3.690000e+00
  P4dr  N5ah  1 4.700000e-01    3.520000e+00
  P4dr  N4ah  1 4.700000e-01    3.520000e+00
  P4dr  N3ah  1 4.700000e-01    3.390000e+00
  P4dr  N2ah  1 4.700000e-01    3.240000e+00
  P4dr  N1ah  1 4.700000e-01    3.070000e+00
  P3dr  P3ah  1 4.700000e-01    4.060000e+00
  P3dr  P2ah  1 4.700000e-01    4.060000e+00
  P3dr  P1ah  1 4.700000e-01    3.880000e+00
  P3dr  N6ah  1 4.700000e-01    3.690000e+00
  P3dr  N5ah  1 4.700000e-01    3.520000e+00
  P3dr  N4ah  1 4.700000e-01    3.520000e+00
  P3dr  N3ah  1 4.700000e-01    3.390000e+00
  P3dr  N2ah  1 4.700000e-01    3.390000e+00
  P3dr  N1ah  1 4.700000e-01    3.240000e+00
  P2dr  P2ah  1 4.700000e-01    4.060000e+00
  P2dr  P1ah  1 4.700000e-01    3.880000e+00
  P2dr  N6ah  1 4.700000e-01    3.880000e+00
  P2dr  N5ah  1 4.700000e-01    3.690000e+00
  P2dr  N4ah  1 4.700000e-01    3.520000e+00
  P2dr  N3ah  1 4.700000e-01    3.390000e+00
  P2dr  N2ah  1 4.700000e-01    3.390000e+00
  P2dr  N1ah  1 4.700000e-01    3.390000e+00
  P1dr  P1ah  1 4.700000e-01    3.880000e+00
  P1dr  N6ah  1 4.700000e-01    3.880000e+00
  P1dr  N5ah  1 4.700000e-01    3.690000e+00
  P1dr  N4ah  1 4.700000e-01    3.690000e+00
  P1dr  N3ah  1 4.700000e-01    3.390000e+00
  P1dr  N2ah  1 4.700000e-01    3.390000e+00
  P1dr  N1ah  1 4.700000e-01    3.390000e+00
  N6dr  N6ah  1 4.700000e-01    3.880000e+00
  N6dr  N5ah  1 4.700000e-01    3.880000e+00
  N6dr  N4ah  1 4.700000e-01    3.880000e+00
  N6dr  N3ah  1 4.700000e-01    3.520000e+00
  N6dr  N2ah  1 4.700000e-01    3.390000e+00
  N6dr  N1ah  1 4.700000e-01    3.390000e+00
  N5dr  N5ah  1 4.700000e-01    3.690000e+00
  N5dr  N4ah  1 4.700000e-01    3.690000e+00
  N5dr  N3ah  1 4.700000e-01    3.520000e+00
  N5dr  N2ah  1 4.700000e-01    3.520000e+00
  N5dr  N1ah  1 4.700000e-01    3.390000e+00
  N4dr  N4ah  1 4.700000e-01    3.690000e+00
  N4dr  N3ah  1 4.700000e-01    3.520000e+00
  N4dr  N2ah  1 4.700000e-01    3.520000e+00
  N4dr  N1ah  1 4.700000e-01    3.390000e+00
  N3dr  N3ah  1 4.700000e-01    3.520000e+00
  N3dr  N2ah  1 4.700000e-01    3.520000e+00
  N3dr  N1ah  1 4.700000e-01    3.390000e+00
  N2dr  N2ah  1 4.700000e-01    3.520000e+00
  N2dr  N1ah  1 4.700000e-01    3.390000e+00
  N1dr  N1ah  1 4.700000e-01    3.520000e+00
  P6dr  P6ar  1 4.700000e-01    4.730000e+00
  P6dr  P5ar  1 4.700000e-01    4.480000e+00
  P6dr  P4ar  1 4.700000e-01    4.250000e+00
  P6dr  P3ar  1 4.700000e-01    4.060000e+00
  P6dr  P2ar  1 4.700000e-01    4.060000e+00
  P6dr  P1ar  1 4.700000e-01    3.880000e+00
  P6dr  N6ar  1 4.700000e-01    3.690000e+00
  P6dr  N5ar  1 4.700000e-01    3.390000e+00
  P6dr  N4ar  1 4.700000e-01    3.240000e+00
  P6dr  N3ar  1 4.700000e-01    3.070000e+00
  P6dr  N2ar  1 4.700000e-01    2.960000e+00
  P6dr  N1ar  1 4.700000e-01    2.790000e+00
  P5dr  P5ar  1 4.700000e-01    4.250000e+00
  P5dr  P4ar  1 4.700000e-01    4.060000e+00
  P5dr  P3ar  1 4.700000e-01    3.880000e+00
  P5dr  P2ar  1 4.700000e-01    3.880000e+00
  P5dr  P1ar  1 4.700000e-01    3.690000e+00
  P5dr  N6ar  1 4.700000e-01    3.520000e+00
  P5dr  N5ar  1 4.700000e-01    3.390000e+00
  P5dr  N4ar  1 4.700000e-01    3.390000e+00
  P5dr  N3ar  1 4.700000e-01    3.070000e+00
  P5dr  N2ar  1 4.700000e-01    2.960000e+00
  P5dr  N1ar  1 4.700000e-01    2.790000e+00
  P4dr  P4ar  1 4.700000e-01    4.060000e+00
  P4dr  P3ar  1 4.700000e-01    3.880000e+00
  P4dr  P2ar  1 4.700000e-01    3.880000e+00
  P4dr  P1ar  1 4.700000e-01    3.690000e+00
  P4dr  N6ar  1 4.700000e-01    3.520000e+00
  P4dr  N5ar  1 4.700000e-01    3.390000e+00
  P4dr  N4ar  1 4.700000e-01    3.390000e+00
  P4dr  N3ar  1 4.700000e-01    3.240000e+00
  P4dr  N2ar  1 4.700000e-01    3.070000e+00
  P4dr  N1ar  1 4.700000e-01    2.960000e+00
  P3dr  P3ar  1 4.700000e-01    3.880000e+00
  P3dr  P2ar  1 4.700000e-01    3.880000e+00
  P3dr  P1ar  1 4.700000e-01    3.690000e+00
  P3dr  N6ar  1 4.700000e-01    3.520000e+00
  P3dr  N5ar  1 4.700000e-01    3.390000e+00
  P3dr  N4ar  1 4.700000e-01    3.390000e+00
  P3dr  N3ar  1 4.700000e-01    3.240000e+00
  P3dr  N2ar  1 4.700000e-01    3.240000e+00
  P3dr  N1ar  1 4.700000e-01    3.070000e+00
  P2dr  P2ar  1 4.700000e-01    3.880000e+00
  P2dr  P1ar  1 4.700000e-01    3.690000e+00
  P2dr  N6ar  1 4.700000e-01    3.690000e+00
  P2dr  N5ar  1 4.700000e-01    3.520000e+00
  P2dr  N4ar  1 4.700000e-01    3.390000e+00
  P2dr  N3ar  1 4.700000e-01    3.240000e+00
  P2dr  N2ar  1 4.700000e-01    3.240000e+00
  P2dr  N1ar  1 4.700000e-01    3.240000e+00
  P1dr  P1ar  1 4.700000e-01    3.690000e+00
  P1dr  N6ar  1 4.700000e-01    3.690000e+00
  P1dr  N5ar  1 4.700000e-01    3.520000e+00
  P1dr  N4ar  1 4.700000e-01    3.520000e+00
  P1dr  N3ar  1 4.700000e-01    3.240000e+00
  P1dr  N2ar  1 4.700000e-01    3.240000e+00
  P1dr  N1ar  1 4.700000e-01    3.240000e+00
  N6dr  N6ar  1 4.700000e-01    3.690000e+00
  N6dr  N5ar  1 4.700000e-01    3.690000e+00
  N6dr  N4ar  1 4.700000e-01    3.690000e+00
  N6dr  N3ar  1 4.700000e-01    3.390000e+00
  N6dr  N2ar  1 4.700000e-01    3.240000e+00
  N6dr  N1ar  1 4.700000e-01    3.240000e+00
  N5dr  N5ar  1 4.700000e-01    3.520000e+00
  N5dr  N4ar  1 4.700000e-01    3.520000e+00
  N5dr  N3ar  1 4.700000e-01    3.390000e+00
  N5dr  N2ar  1 4.700000e-01    3.390000e+00
  N5dr  N1ar  1 4.700000e-01    3.240000e+00
  N4dr  N4ar  1 4.700000e-01    3.520000e+00
  N4dr  N3ar  1 4.700000e-01    3.390000e+00
  N4dr  N2ar  1 4.700000e-01    3.390000e+00
  N4dr  N1ar  1 4.700000e-01    3.240000e+00
  N3dr  N3ar  1 4.700000e-01    3.390000e+00
  N3dr  N2ar  1 4.700000e-01    3.390000e+00
  N3dr  N1ar  1 4.700000e-01    3.240000e+00
  N2dr  N2ar  1 4.700000e-01    3.390000e+00
  N2dr  N1ar  1 4.700000e-01    3.240000e+00
  N1dr  N1ar  1 4.700000e-01    3.390000e+00
   P6a   P5d  1 4.700000e-01    4.730000e+00
   P6a   P4d  1 4.700000e-01    4.480000e+00
   P6a   P3d  1 4.700000e-01    4.250000e+00
   P6a   P2d  1 4.700000e-01    4.250000e+00
   P6a   P1d  1 4.700000e-01    4.060000e+00
   P6a   N6d  1 4.700000e-01    3.880000e+00
   P6a   N5d  1 4.700000e-01    3.520000e+00
   P6a   N4d  1 4.700000e-01    3.390000e+00
   P6a   N3d  1 4.700000e-01    3.240000e+00
   P6a   N2d  1 4.700000e-01    3.070000e+00
   P6a   N1d  1 4.700000e-01    2.960000e+00
   P5a   P4d  1 4.700000e-01    4.250000e+00
   P5a   P3d  1 4.700000e-01    4.060000e+00
   P5a   P2d  1 4.700000e-01    4.060000e+00
   P5a   P1d  1 4.700000e-01    3.880000e+00
   P5a   N6d  1 4.700000e-01    3.690000e+00
   P5a   N5d  1 4.700000e-01    3.520000e+00
   P5a   N4d  1 4.700000e-01    3.520000e+00
   P5a   N3d  1 4.700000e-01    3.240000e+00
   P5a   N2d  1 4.700000e-01    3.070000e+00
   P5a   N1d  1 4.700000e-01    2.960000e+00
   P4a   P3d  1 4.700000e-01    4.060000e+00
   P4a   P2d  1 4.700000e-01    4.060000e+00
   P4a   P1d  1 4.700000e-01    3.880000e+00
   P4a   N6d  1 4.700000e-01    3.690000e+00
   P4a   N5d  1 4.700000e-01    3.520000e+00
   P4a   N4d  1 4.700000e-01    3.520000e+00
   P4a   N3d  1 4.700000e-01    3.390000e+00
   P4a   N2d  1 4.700000e-01    3.240000e+00
   P4a   N1d  1 4.700000e-01    3.070000e+00
   P3a   P2d  1 4.700000e-01    4.060000e+00
   P3a   P1d  1 4.700000e-01    3.880000e+00
   P3a   N6d  1 4.700000e-01    3.690000e+00
   P3a   N5d  1 4.700000e-01    3.520000e+00
   P3a   N4d  1 4.700000e-01    3.520000e+00
   P3a   N3d  1 4.700000e-01    3.390000e+00
   P3a   N2d  1 4.700000e-01    3.390000e+00
   P3a   N1d  1 4.700000e-01    3.240000e+00
   P2a   P1d  1 4.700000e-01    3.880000e+00
   P2a   N6d  1 4.700000e-01    3.880000e+00
   P2a   N5d  1 4.700000e-01    3.690000e+00
   P2a   N4d  1 4.700000e-01    3.520000e+00
   P2a   N3d  1 4.700000e-01    3.390000e+00
   P2a   N2d  1 4.700000e-01    3.390000e+00
   P2a   N1d  1 4.700000e-01    3.390000e+00
   P1a   N6d  1 4.700000e-01    3.880000e+00
   P1a   N5d  1 4.700000e-01    3.690000e+00
   P1a   N4d  1 4.700000e-01    3.690000e+00
   P1a   N3d  1 4.700000e-01    3.390000e+00
   P1a   N2d  1 4.700000e-01    3.390000e+00
   P1a   N1d  1 4.700000e-01    3.390000e+00
   N6a   N5d  1 4.700000e-01    3.880000e+00
   N6a   N4d  1 4.700000e-01    3.880000e+00
   N6a   N3d  1 4.700000e-01    3.520000e+00
   N6a   N2d  1 4.700000e-01    3.390000e+00
   N6a   N1d  1 4.700000e-01    3.390000e+00
   N5a   N4d  1 4.700000e-01    3.690000e+00
   N5a   N3d  1 4.700000e-01    3.520000e+00
   N5a   N2d  1 4.700000e-01    3.520000e+00
   N5a   N1d  1 4.700000e-01    3.390000e+00
   N4a   N3d  1 4.700000e-01    3.520000e+00
   N4a   N2d  1 4.700000e-01    3.520000e+00
   N4a   N1d  1 4.700000e-01    3.390000e+00
   N3a   N2d  1 4.700000e-01    3.520000e+00
   N3a   N1d  1 4.700000e-01    3.390000e+00
   N2a   N1d  1 4.700000e-01    3.390000e+00
   P6a  P5dq  1 4.700000e-01    5.240000e+00
   P6a  P4dq  1 4.700000e-01    4.990000e+00
   P5a  P4dq  1 4.700000e-01    4.730000e+00
   P6a  P3dq  1 4.700000e-01    4.730000e+00
   P5a  P3dq  1 4.700000e-01    4.480000e+00
   P4a  P3dq  1 4.700000e-01    4.480000e+00
   P6a  P2dq  1 4.700000e-01    4.730000e+00
   P5a  P2dq  1 4.700000e-01    4.480000e+00
   P4a  P2dq  1 4.700000e-01    4.480000e+00
   P3a  P2dq  1 4.700000e-01    4.480000e+00
   P6a  P1dq  1 4.700000e-01    4.480000e+00
   P5a  P1dq  1 4.700000e-01    4.250000e+00
   P4a  P1dq  1 4.700000e-01    4.250000e+00
   P3a  P1dq  1 4.700000e-01    4.250000e+00
   P2a  P1dq  1 4.700000e-01    4.250000e+00
   P6a  N6dq  1 4.700000e-01    4.250000e+00
   P5a  N6dq  1 4.700000e-01    4.060000e+00
   P4a  N6dq  1 4.700000e-01    4.060000e+00
   P3a  N6dq  1 4.700000e-01    4.060000e+00
   P2a  N6dq  1 4.700000e-01    4.250000e+00
   P1a  N6dq  1 4.700000e-01    4.250000e+00
   P6a  N5dq  1 4.700000e-01    3.880000e+00
   P5a  N5dq  1 4.700000e-01    3.880000e+00
   P4a  N5dq  1 4.700000e-01    3.880000e+00
   P3a  N5dq  1 4.700000e-01    3.880000e+00
   P2a  N5dq  1 4.700000e-01    4.060000e+00
   P1a  N5dq  1 4.700000e-01    4.060000e+00
   N6a  N5dq  1 4.700000e-01    4.250000e+00
   P6a  N4dq  1 4.700000e-01    3.690000e+00
   P5a  N4dq  1 4.700000e-01    3.880000e+00
   P4a  N4dq  1 4.700000e-01    3.880000e+00
   P3a  N4dq  1 4.700000e-01    3.880000e+00
   P2a  N4dq  1 4.700000e-01    3.880000e+00
   P1a  N4dq  1 4.700000e-01    4.060000e+00
   N6a  N4dq  1 4.700000e-01    4.250000e+00
   N5a  N4dq  1 4.700000e-01    4.060000e+00
   P6a  N3dq  1 4.700000e-01    3.390000e+00
   P5a  N3dq  1 4.700000e-01    3.390000e+00
   P4a  N3dq  1 4.700000e-01    3.690000e+00
   P3a  N3dq  1 4.700000e-01    3.690000e+00
   P2a  N3dq  1 4.700000e-01    3.690000e+00
   P1a  N3dq  1 4.700000e-01    3.690000e+00
   N6a  N3dq  1 4.700000e-01    3.880000e+00
   N5a  N3dq  1 4.700000e-01    3.880000e+00
   N4a  N3dq  1 4.700000e-01    3.880000e+00
   P6a  N2dq  1 4.700000e-01    3.240000e+00
   P5a  N2dq  1 4.700000e-01    3.240000e+00
   P4a  N2dq  1 4.700000e-01    3.390000e+00
   P3a  N2dq  1 4.700000e-01    3.690000e+00
   P2a  N2dq  1 4.700000e-01    3.690000e+00
   P1a  N2dq  1 4.700000e-01    3.690000e+00
   N6a  N2dq  1 4.700000e-01    3.690000e+00
   N5a  N2dq  1 4.700000e-01    3.880000e+00
   N4a  N2dq  1 4.700000e-01    3.880000e+00
   N3a  N2dq  1 4.700000e-01    3.880000e+00
   P6a  N1dq  1 4.700000e-01    3.240000e+00
   P5a  N1dq  1 4.700000e-01    3.240000e+00
   P4a  N1dq  1 4.700000e-01    3.240000e+00
   P3a  N1dq  1 4.700000e-01    3.390000e+00
   P2a  N1dq  1 4.700000e-01    3.690000e+00
   P1a  N1dq  1 4.700000e-01    3.690000e+00
   N6a  N1dq  1 4.700000e-01    3.690000e+00
   N5a  N1dq  1 4.700000e-01    3.690000e+00
   N4a  N1dq  1 4.700000e-01    3.690000e+00
   N3a  N1dq  1 4.700000e-01    3.690000e+00
   N2a  N1dq  1 4.700000e-01    3.690000e+00
   P6a  P5dh  1 4.700000e-01    4.730000e+00
   P6a  P4dh  1 4.700000e-01    4.480000e+00
   P5a  P4dh  1 4.700000e-01    4.250000e+00
   P6a  P3dh  1 4.700000e-01    4.250000e+00
   P5a  P3dh  1 4.700000e-01    4.060000e+00
   P4a  P3dh  1 4.700000e-01    4.060000e+00
   P6a  P2dh  1 4.700000e-01    4.250000e+00
   P5a  P2dh  1 4.700000e-01    4.060000e+00
   P4a  P2dh  1 4.700000e-01    4.060000e+00
   P3a  P2dh  1 4.700000e-01    4.060000e+00
   P6a  P1dh  1 4.700000e-01    4.060000e+00
   P5a  P1dh  1 4.700000e-01    3.880000e+00
   P4a  P1dh  1 4.700000e-01    3.880000e+00
   P3a  P1dh  1 4.700000e-01    3.880000e+00
   P2a  P1dh  1 4.700000e-01    3.880000e+00
   P6a  N6dh  1 4.700000e-01    3.880000e+00
   P5a  N6dh  1 4.700000e-01    3.690000e+00
   P4a  N6dh  1 4.700000e-01    3.690000e+00
   P3a  N6dh  1 4.700000e-01    3.690000e+00
   P2a  N6dh  1 4.700000e-01    3.880000e+00
   P1a  N6dh  1 4.700000e-01    3.880000e+00
   P6a  N5dh  1 4.700000e-01    3.520000e+00
   P5a  N5dh  1 4.700000e-01    3.520000e+00
   P4a  N5dh  1 4.700000e-01    3.520000e+00
   P3a  N5dh  1 4.700000e-01    3.520000e+00
   P2a  N5dh  1 4.700000e-01    3.690000e+00
   P1a  N5dh  1 4.700000e-01    3.690000e+00
   N6a  N5dh  1 4.700000e-01    3.880000e+00
   P6a  N4dh  1 4.700000e-01    3.390000e+00
   P5a  N4dh  1 4.700000e-01    3.520000e+00
   P4a  N4dh  1 4.700000e-01    3.520000e+00
   P3a  N4dh  1 4.700000e-01    3.520000e+00
   P2a  N4dh  1 4.700000e-01    3.520000e+00
   P1a  N4dh  1 4.700000e-01    3.690000e+00
   N6a  N4dh  1 4.700000e-01    3.880000e+00
   N5a  N4dh  1 4.700000e-01    3.690000e+00
   P6a  N3dh  1 4.700000e-01    3.240000e+00
   P5a  N3dh  1 4.700000e-01    3.240000e+00
   P4a  N3dh  1 4.700000e-01    3.390000e+00
   P3a  N3dh  1 4.700000e-01    3.390000e+00
   P2a  N3dh  1 4.700000e-01    3.390000e+00
   P1a  N3dh  1 4.700000e-01    3.390000e+00
   N6a  N3dh  1 4.700000e-01    3.520000e+00
   N5a  N3dh  1 4.700000e-01    3.520000e+00
   N4a  N3dh  1 4.700000e-01    3.520000e+00
   P6a  N2dh  1 4.700000e-01    3.070000e+00
   P5a  N2dh  1 4.700000e-01    3.070000e+00
   P4a  N2dh  1 4.700000e-01    3.240000e+00
   P3a  N2dh  1 4.700000e-01    3.390000e+00
   P2a  N2dh  1 4.700000e-01    3.390000e+00
   P1a  N2dh  1 4.700000e-01    3.390000e+00
   N6a  N2dh  1 4.700000e-01    3.390000e+00
   N5a  N2dh  1 4.700000e-01    3.520000e+00
   N4a  N2dh  1 4.700000e-01    3.520000e+00
   N3a  N2dh  1 4.700000e-01    3.520000e+00
   P6a  N1dh  1 4.700000e-01    2.960000e+00
   P5a  N1dh  1 4.700000e-01    2.960000e+00
   P4a  N1dh  1 4.700000e-01    3.070000e+00
   P3a  N1dh  1 4.700000e-01    3.240000e+00
   P2a  N1dh  1 4.700000e-01    3.390000e+00
   P1a  N1dh  1 4.700000e-01    3.390000e+00
   N6a  N1dh  1 4.700000e-01    3.390000e+00
   N5a  N1dh  1 4.700000e-01    3.390000e+00
   N4a  N1dh  1 4.700000e-01    3.390000e+00
   N3a  N1dh  1 4.700000e-01    3.390000e+00
   N2a  N1dh  1 4.700000e-01    3.390000e+00
   P6a  P5dr  1 4.700000e-01    4.730000e+00
   P6a  P4dr  1 4.700000e-01    4.480000e+00
   P5a  P4dr  1 4.700000e-01    4.250000e+00
   P6a  P3dr  1 4.700000e-01    4.250000e+00
   P5a  P3dr  1 4.700000e-01    4.060000e+00
   P4a  P3dr  1 4.700000e-01    4.060000e+00
   P6a  P2dr  1 4.700000e-01    4.250000e+00
   P5a  P2dr  1 4.700000e-01    4.060000e+00
   P4a  P2dr  1 4.700000e-01    4.060000e+00
   P3a  P2dr  1 4.700000e-01    4.060000e+00
   P6a  P1dr  1 4.700000e-01    4.060000e+00
   P5a  P1dr  1 4.700000e-01    3.880000e+00
   P4a  P1dr  1 4.700000e-01    3.880000e+00
   P3a  P1dr  1 4.700000e-01    3.880000e+00
   P2a  P1dr  1 4.700000e-01    3.880000e+00
   P6a  N6dr  1 4.700000e-01    3.880000e+00
   P5a  N6dr  1 4.700000e-01    3.690000e+00
   P4a  N6dr  1 4.700000e-01    3.690000e+00
   P3a  N6dr  1 4.700000e-01    3.690000e+00
   P2a  N6dr  1 4.700000e-01    3.880000e+00
   P1a  N6dr  1 4.700000e-01    3.880000e+00
   P6a  N5dr  1 4.700000e-01    3.520000e+00
   P5a  N5dr  1 4.700000e-01    3.520000e+00
   P4a  N5dr  1 4.700000e-01    3.520000e+00
   P3a  N5dr  1 4.700000e-01    3.520000e+00
   P2a  N5dr  1 4.700000e-01    3.690000e+00
   P1a  N5dr  1 4.700000e-01    3.690000e+00
   N6a  N5dr  1 4.700000e-01    3.880000e+00
   P6a  N4dr  1 4.700000e-01    3.390000e+00
   P5a  N4dr  1 4.700000e-01    3.520000e+00
   P4a  N4dr  1 4.700000e-01    3.520000e+00
   P3a  N4dr  1 4.700000e-01    3.520000e+00
   P2a  N4dr  1 4.700000e-01    3.520000e+00
   P1a  N4dr  1 4.700000e-01    3.690000e+00
   N6a  N4dr  1 4.700000e-01    3.880000e+00
   N5a  N4dr  1 4.700000e-01    3.690000e+00
   P6a  N3dr  1 4.700000e-01    3.240000e+00
   P5a  N3dr  1 4.700000e-01    3.240000e+00
   P4a  N3dr  1 4.700000e-01    3.390000e+00
   P3a  N3dr  1 4.700000e-01    3.390000e+00
   P2a  N3dr  1 4.700000e-01    3.390000e+00
   P1a  N3dr  1 4.700000e-01    3.390000e+00
   N6a  N3dr  1 4.700000e-01    3.520000e+00
   N5a  N3dr  1 4.700000e-01    3.520000e+00
   N4a  N3dr  1 4.700000e-01    3.520000e+00
   P6a  N2dr  1 4.700000e-01    3.070000e+00
   P5a  N2dr  1 4.700000e-01    3.070000e+00
   P4a  N2dr  1 4.700000e-01    3.240000e+00
   P3a  N2dr  1 4.700000e-01    3.390000e+00
   P2a  N2dr  1 4.700000e-01    3.390000e+00
   P1a  N2dr  1 4.700000e-01    3.390000e+00
   N6a  N2dr  1 4.700000e-01    3.390000e+00
   N5a  N2dr  1 4.700000e-01    3.520000e+00
   N4a  N2dr  1 4.700000e-01    3.520000e+00
   N3a  N2dr  1 4.700000e-01    3.520000e+00
   P6a  N1dr  1 4.700000e-01    2.960000e+00
   P5a  N1dr  1 4.700000e-01    2.960000e+00
   P4a  N1dr  1 4.700000e-01    3.070000e+00
   P3a  N1dr  1 4.700000e-01    3.240000e+00
   P2a  N1dr  1 4.700000e-01    3.390000e+00
   P1a  N1dr  1 4.700000e-01    3.390000e+00
   N6a  N1dr  1 4.700000e-01    3.390000e+00
   N5a  N1dr  1 4.700000e-01    3.390000e+00
   N4a  N1dr  1 4.700000e-01    3.390000e+00
   N3a  N1dr  1 4.700000e-01    3.390000e+00
   N2a  N1dr  1 4.700000e-01    3.390000e+00
  N2aq   N1d  1 4.700000e-01    3.690000e+00
  N3aq   N2d  1 4.700000e-01    3.880000e+00
  N3aq   N1d  1 4.700000e-01    3.690000e+00
  N4aq   N3d  1 4.700000e-01    3.880000e+00
  N4aq   N2d  1 4.700000e-01    3.880000e+00
  N4aq   N1d  1 4.700000e-01    3.690000e+00
  N5aq   N4d  1 4.700000e-01    4.060000e+00
  N5aq   N3d  1 4.700000e-01    3.880000e+00
  N5aq   N2d  1 4.700000e-01    3.880000e+00
  N5aq   N1d  1 4.700000e-01    3.690000e+00
  N6aq   N5d  1 4.700000e-01    4.250000e+00
  N6aq   N4d  1 4.700000e-01    4.250000e+00
  N6aq   N3d  1 4.700000e-01    3.880000e+00
  N6aq   N2d  1 4.700000e-01    3.690000e+00
  N6aq   N1d  1 4.700000e-01    3.690000e+00
  P1aq   N6d  1 4.700000e-01    4.250000e+00
  P1aq   N5d  1 4.700000e-01    4.060000e+00
  P1aq   N4d  1 4.700000e-01    4.060000e+00
  P1aq   N3d  1 4.700000e-01    3.690000e+00
  P1aq   N2d  1 4.700000e-01    3.690000e+00
  P1aq   N1d  1 4.700000e-01    3.690000e+00
  P2aq   P1d  1 4.700000e-01    4.250000e+00
  P2aq   N6d  1 4.700000e-01    4.250000e+00
  P2aq   N5d  1 4.700000e-01    4.060000e+00
  P2aq   N4d  1 4.700000e-01    3.880000e+00
  P2aq   N3d  1 4.700000e-01    3.690000e+00
  P2aq   N2d  1 4.700000e-01    3.690000e+00
  P2aq   N1d  1 4.700000e-01    3.690000e+00
  P3aq   P2d  1 4.700000e-01    4.480000e+00
  P3aq   P1d  1 4.700000e-01    4.250000e+00
  P3aq   N6d  1 4.700000e-01    4.060000e+00
  P3aq   N5d  1 4.700000e-01    3.880000e+00
  P3aq   N4d  1 4.700000e-01    3.880000e+00
  P3aq   N3d  1 4.700000e-01    3.690000e+00
  P3aq   N2d  1 4.700000e-01    3.690000e+00
  P3aq   N1d  1 4.700000e-01    3.390000e+00
  P4aq   P3d  1 4.700000e-01    4.480000e+00
  P4aq   P2d  1 4.700000e-01    4.480000e+00
  P4aq   P1d  1 4.700000e-01    4.250000e+00
  P4aq   N6d  1 4.700000e-01    4.060000e+00
  P4aq   N5d  1 4.700000e-01    3.880000e+00
  P4aq   N4d  1 4.700000e-01    3.880000e+00
  P4aq   N3d  1 4.700000e-01    3.690000e+00
  P4aq   N2d  1 4.700000e-01    3.390000e+00
  P4aq   N1d  1 4.700000e-01    3.240000e+00
  P5aq   P4d  1 4.700000e-01    4.730000e+00
  P5aq   P3d  1 4.700000e-01    4.480000e+00
  P5aq   P2d  1 4.700000e-01    4.480000e+00
  P5aq   P1d  1 4.700000e-01    4.250000e+00
  P5aq   N6d  1 4.700000e-01    4.060000e+00
  P5aq   N5d  1 4.700000e-01    3.880000e+00
  P5aq   N4d  1 4.700000e-01    3.880000e+00
  P5aq   N3d  1 4.700000e-01    3.390000e+00
  P5aq   N2d  1 4.700000e-01    3.240000e+00
  P5aq   N1d  1 4.700000e-01    3.240000e+00
  P6aq   P5d  1 4.700000e-01    5.240000e+00
  P6aq   P4d  1 4.700000e-01    4.990000e+00
  P6aq   P3d  1 4.700000e-01    4.730000e+00
  P6aq   P2d  1 4.700000e-01    4.730000e+00
  P6aq   P1d  1 4.700000e-01    4.480000e+00
  P6aq   N6d  1 4.700000e-01    4.250000e+00
  P6aq   N5d  1 4.700000e-01    3.880000e+00
  P6aq   N4d  1 4.700000e-01    3.690000e+00
  P6aq   N3d  1 4.700000e-01    3.390000e+00
  P6aq   N2d  1 4.700000e-01    3.240000e+00
  P6aq   N1d  1 4.700000e-01    3.240000e+00
  P6aq  P5dq  1 4.700000e-01    5.240000e+00
  P6aq  P4dq  1 4.700000e-01    4.990000e+00
  P6aq  P3dq  1 4.700000e-01    4.730000e+00
  P6aq  P2dq  1 4.700000e-01    4.730000e+00
  P6aq  P1dq  1 4.700000e-01    4.480000e+00
  P6aq  N6dq  1 4.700000e-01    4.250000e+00
  P6aq  N5dq  1 4.700000e-01    3.880000e+00
  P6aq  N4dq  1 4.700000e-01    3.690000e+00
  P6aq  N3dq  1 4.700000e-01    3.390000e+00
  P6aq  N2dq  1 4.700000e-01    3.240000e+00
  P6aq  N1dq  1 4.700000e-01    3.240000e+00
  P5aq  P4dq  1 4.700000e-01    4.730000e+00
  P5aq  P3dq  1 4.700000e-01    4.480000e+00
  P5aq  P2dq  1 4.700000e-01    4.480000e+00
  P5aq  P1dq  1 4.700000e-01    4.250000e+00
  P5aq  N6dq  1 4.700000e-01    4.060000e+00
  P5aq  N5dq  1 4.700000e-01    3.880000e+00
  P5aq  N4dq  1 4.700000e-01    3.880000e+00
  P5aq  N3dq  1 4.700000e-01    3.390000e+00
  P5aq  N2dq  1 4.700000e-01    3.240000e+00
  P5aq  N1dq  1 4.700000e-01    3.240000e+00
  P4aq  P3dq  1 4.700000e-01    4.480000e+00
  P4aq  P2dq  1 4.700000e-01    4.480000e+00
  P4aq  P1dq  1 4.700000e-01    4.250000e+00
  P4aq  N6dq  1 4.700000e-01    4.060000e+00
  P4aq  N5dq  1 4.700000e-01    3.880000e+00
  P4aq  N4dq  1 4.700000e-01    3.880000e+00
  P4aq  N3dq  1 4.700000e-01    3.690000e+00
  P4aq  N2dq  1 4.700000e-01    3.390000e+00
  P4aq  N1dq  1 4.700000e-01    3.240000e+00
  P3aq  P2dq  1 4.700000e-01    4.480000e+00
  P3aq  P1dq  1 4.700000e-01    4.250000e+00
  P3aq  N6dq  1 4.700000e-01    4.060000e+00
  P3aq  N5dq  1 4.700000e-01    3.880000e+00
  P3aq  N4dq  1 4.700000e-01    3.880000e+00
  P3aq  N3dq  1 4.700000e-01    3.690000e+00
  P3aq  N2dq  1 4.700000e-01    3.690000e+00
  P3aq  N1dq  1 4.700000e-01    3.390000e+00
  P2aq  P1dq  1 4.700000e-01    4.250000e+00
  P2aq  N6dq  1 4.700000e-01    4.250000e+00
  P2aq  N5dq  1 4.700000e-01    4.060000e+00
  P2aq  N4dq  1 4.700000e-01    3.880000e+00
  P2aq  N3dq  1 4.700000e-01    3.690000e+00
  P2aq  N2dq  1 4.700000e-01    3.690000e+00
  P2aq  N1dq  1 4.700000e-01    3.690000e+00
  P1aq  N6dq  1 4.700000e-01    4.250000e+00
  P1aq  N5dq  1 4.700000e-01    4.060000e+00
  P1aq  N4dq  1 4.700000e-01    4.060000e+00
  P1aq  N3dq  1 4.700000e-01    3.690000e+00
  P1aq  N2dq  1 4.700000e-01    3.690000e+00
  P1aq  N1dq  1 4.700000e-01    3.690000e+00
  N6aq  N5dq  1 4.700000e-01    4.250000e+00
  N6aq  N4dq  1 4.700000e-01    4.250000e+00
  N6aq  N3dq  1 4.700000e-01    3.880000e+00
  N6aq  N2dq  1 4.700000e-01    3.690000e+00
  N6aq  N1dq  1 4.700000e-01    3.690000e+00
  N5aq  N4dq  1 4.700000e-01    4.060000e+00
  N5aq  N3dq  1 4.700000e-01    3.880000e+00
  N5aq  N2dq  1 4.700000e-01    3.880000e+00
  N5aq  N1dq  1 4.700000e-01    3.690000e+00
  N4aq  N3dq  1 4.700000e-01    3.880000e+00
  N4aq  N2dq  1 4.700000e-01    3.880000e+00
  N4aq  N1dq  1 4.700000e-01    3.690000e+00
  N3aq  N2dq  1 4.700000e-01    3.880000e+00
  N3aq  N1dq  1 4.700000e-01    3.690000e+00
  N2aq  N1dq  1 4.700000e-01    3.690000e+00
  P6aq  P5dh  1 4.700000e-01    5.240000e+00
  P5aq  P4dh  1 4.700000e-01    4.730000e+00
  P6aq  P4dh  1 4.700000e-01    4.990000e+00
  P4aq  P3dh  1 4.700000e-01    4.480000e+00
  P5aq  P3dh  1 4.700000e-01    4.480000e+00
  P6aq  P3dh  1 4.700000e-01    4.730000e+00
  P3aq  P2dh  1 4.700000e-01    4.480000e+00
  P4aq  P2dh  1 4.700000e-01    4.480000e+00
  P5aq  P2dh  1 4.700000e-01    4.480000e+00
  P6aq  P2dh  1 4.700000e-01    4.730000e+00
  P2aq  P1dh  1 4.700000e-01    4.250000e+00
  P3aq  P1dh  1 4.700000e-01    4.250000e+00
  P4aq  P1dh  1 4.700000e-01    4.250000e+00
  P5aq  P1dh  1 4.700000e-01    4.250000e+00
  P6aq  P1dh  1 4.700000e-01    4.480000e+00
  P1aq  N6dh  1 4.700000e-01    4.250000e+00
  P2aq  N6dh  1 4.700000e-01    4.250000e+00
  P3aq  N6dh  1 4.700000e-01    4.060000e+00
  P4aq  N6dh  1 4.700000e-01    4.060000e+00
  P5aq  N6dh  1 4.700000e-01    4.060000e+00
  P6aq  N6dh  1 4.700000e-01    4.250000e+00
  N6aq  N5dh  1 4.700000e-01    4.250000e+00
  P1aq  N5dh  1 4.700000e-01    4.060000e+00
  P2aq  N5dh  1 4.700000e-01    4.060000e+00
  P3aq  N5dh  1 4.700000e-01    3.880000e+00
  P4aq  N5dh  1 4.700000e-01    3.880000e+00
  P5aq  N5dh  1 4.700000e-01    3.880000e+00
  P6aq  N5dh  1 4.700000e-01    3.880000e+00
  N5aq  N4dh  1 4.700000e-01    4.060000e+00
  N6aq  N4dh  1 4.700000e-01    4.250000e+00
  P1aq  N4dh  1 4.700000e-01    4.060000e+00
  P2aq  N4dh  1 4.700000e-01    3.880000e+00
  P3aq  N4dh  1 4.700000e-01    3.880000e+00
  P4aq  N4dh  1 4.700000e-01    3.880000e+00
  P5aq  N4dh  1 4.700000e-01    3.880000e+00
  P6aq  N4dh  1 4.700000e-01    3.690000e+00
  N4aq  N3dh  1 4.700000e-01    3.880000e+00
  N5aq  N3dh  1 4.700000e-01    3.880000e+00
  N6aq  N3dh  1 4.700000e-01    3.880000e+00
  P1aq  N3dh  1 4.700000e-01    3.690000e+00
  P2aq  N3dh  1 4.700000e-01    3.690000e+00
  P3aq  N3dh  1 4.700000e-01    3.690000e+00
  P4aq  N3dh  1 4.700000e-01    3.690000e+00
  P5aq  N3dh  1 4.700000e-01    3.390000e+00
  P6aq  N3dh  1 4.700000e-01    3.390000e+00
  N3aq  N2dh  1 4.700000e-01    3.880000e+00
  N4aq  N2dh  1 4.700000e-01    3.880000e+00
  N5aq  N2dh  1 4.700000e-01    3.880000e+00
  N6aq  N2dh  1 4.700000e-01    3.690000e+00
  P1aq  N2dh  1 4.700000e-01    3.690000e+00
  P2aq  N2dh  1 4.700000e-01    3.690000e+00
  P3aq  N2dh  1 4.700000e-01    3.690000e+00
  P4aq  N2dh  1 4.700000e-01    3.390000e+00
  P5aq  N2dh  1 4.700000e-01    3.240000e+00
  P6aq  N2dh  1 4.700000e-01    3.240000e+00
  N2aq  N1dh  1 4.700000e-01    3.690000e+00
  N3aq  N1dh  1 4.700000e-01    3.690000e+00
  N4aq  N1dh  1 4.700000e-01    3.690000e+00
  N5aq  N1dh  1 4.700000e-01    3.690000e+00
  N6aq  N1dh  1 4.700000e-01    3.690000e+00
  P1aq  N1dh  1 4.700000e-01    3.690000e+00
  P2aq  N1dh  1 4.700000e-01    3.690000e+00
  P3aq  N1dh  1 4.700000e-01    3.390000e+00
  P4aq  N1dh  1 4.700000e-01    3.240000e+00
  P5aq  N1dh  1 4.700000e-01    3.240000e+00
  P6aq  N1dh  1 4.700000e-01    3.240000e+00
  P6aq  P5dr  1 4.700000e-01    5.240000e+00
  P5aq  P4dr  1 4.700000e-01    4.730000e+00
  P6aq  P4dr  1 4.700000e-01    4.990000e+00
  P4aq  P3dr  1 4.700000e-01    4.480000e+00
  P5aq  P3dr  1 4.700000e-01    4.480000e+00
  P6aq  P3dr  1 4.700000e-01    4.730000e+00
  P3aq  P2dr  1 4.700000e-01    4.480000e+00
  P4aq  P2dr  1 4.700000e-01    4.480000e+00
  P5aq  P2dr  1 4.700000e-01    4.480000e+00
  P6aq  P2dr  1 4.700000e-01    4.730000e+00
  P2aq  P1dr  1 4.700000e-01    4.250000e+00
  P3aq  P1dr  1 4.700000e-01    4.250000e+00
  P4aq  P1dr  1 4.700000e-01    4.250000e+00
  P5aq  P1dr  1 4.700000e-01    4.250000e+00
  P6aq  P1dr  1 4.700000e-01    4.480000e+00
  P1aq  N6dr  1 4.700000e-01    4.250000e+00
  P2aq  N6dr  1 4.700000e-01    4.250000e+00
  P3aq  N6dr  1 4.700000e-01    4.060000e+00
  P4aq  N6dr  1 4.700000e-01    4.060000e+00
  P5aq  N6dr  1 4.700000e-01    4.060000e+00
  P6aq  N6dr  1 4.700000e-01    4.250000e+00
  N6aq  N5dr  1 4.700000e-01    4.250000e+00
  P1aq  N5dr  1 4.700000e-01    4.060000e+00
  P2aq  N5dr  1 4.700000e-01    4.060000e+00
  P3aq  N5dr  1 4.700000e-01    3.880000e+00
  P4aq  N5dr  1 4.700000e-01    3.880000e+00
  P5aq  N5dr  1 4.700000e-01    3.880000e+00
  P6aq  N5dr  1 4.700000e-01    3.880000e+00
  N5aq  N4dr  1 4.700000e-01    4.060000e+00
  N6aq  N4dr  1 4.700000e-01    4.250000e+00
  P1aq  N4dr  1 4.700000e-01    4.060000e+00
  P2aq  N4dr  1 4.700000e-01    3.880000e+00
  P3aq  N4dr  1 4.700000e-01    3.880000e+00
  P4aq  N4dr  1 4.700000e-01    3.880000e+00
  P5aq  N4dr  1 4.700000e-01    3.880000e+00
  P6aq  N4dr  1 4.700000e-01    3.690000e+00
  N4aq  N3dr  1 4.700000e-01    3.880000e+00
  N5aq  N3dr  1 4.700000e-01    3.880000e+00
  N6aq  N3dr  1 4.700000e-01    3.880000e+00
  P1aq  N3dr  1 4.700000e-01    3.690000e+00
  P2aq  N3dr  1 4.700000e-01    3.690000e+00
  P3aq  N3dr  1 4.700000e-01    3.690000e+00
  P4aq  N3dr  1 4.700000e-01    3.690000e+00
  P5aq  N3dr  1 4.700000e-01    3.390000e+00
  P6aq  N3dr  1 4.700000e-01    3.390000e+00
  N3aq  N2dr  1 4.700000e-01    3.880000e+00
  N4aq  N2dr  1 4.700000e-01    3.880000e+00
  N5aq  N2dr  1 4.700000e-01    3.880000e+00
  N6aq  N2dr  1 4.700000e-01    3.690000e+00
  P1aq  N2dr  1 4.700000e-01    3.690000e+00
  P2aq  N2dr  1 4.700000e-01    3.690000e+00
  P3aq  N2dr  1 4.700000e-01    3.690000e+00
  P4aq  N2dr  1 4.700000e-01    3.390000e+00
  P5aq  N2dr  1 4.700000e-01    3.240000e+00
  P6aq  N2dr  1 4.700000e-01    3.240000e+00
  N2aq  N1dr  1 4.700000e-01    3.690000e+00
  N3aq  N1dr  1 4.700000e-01    3.690000e+00
  N4aq  N1dr  1 4.700000e-01    3.690000e+00
  N5aq  N1dr  1 4.700000e-01    3.690000e+00
  N6aq  N1dr  1 4.700000e-01    3.690000e+00
  P1aq  N1dr  1 4.700000e-01    3.690000e+00
  P2aq  N1dr  1 4.700000e-01    3.690000e+00
  P3aq  N1dr  1 4.700000e-01    3.390000e+00
  P4aq  N1dr  1 4.700000e-01    3.240000e+00
  P5aq  N1dr  1 4.700000e-01    3.240000e+00
  P6aq  N1dr  1 4.700000e-01    3.240000e+00
  N2ah   N1d  1 4.700000e-01    3.390000e+00
  N3ah   N2d  1 4.700000e-01    3.520000e+00
  N3ah   N1d  1 4.700000e-01    3.390000e+00
  N4ah   N3d  1 4.700000e-01    3.520000e+00
  N4ah   N2d  1 4.700000e-01    3.520000e+00
  N4ah   N1d  1 4.700000e-01    3.390000e+00
  N5ah   N4d  1 4.700000e-01    3.690000e+00
  N5ah   N3d  1 4.700000e-01    3.520000e+00
  N5ah   N2d  1 4.700000e-01    3.520000e+00
  N5ah   N1d  1 4.700000e-01    3.390000e+00
  N6ah   N5d  1 4.700000e-01    3.880000e+00
  N6ah   N4d  1 4.700000e-01    3.880000e+00
  N6ah   N3d  1 4.700000e-01    3.520000e+00
  N6ah   N2d  1 4.700000e-01    3.390000e+00
  N6ah   N1d  1 4.700000e-01    3.390000e+00
  P1ah   N6d  1 4.700000e-01    3.880000e+00
  P1ah   N5d  1 4.700000e-01    3.690000e+00
  P1ah   N4d  1 4.700000e-01    3.690000e+00
  P1ah   N3d  1 4.700000e-01    3.390000e+00
  P1ah   N2d  1 4.700000e-01    3.390000e+00
  P1ah   N1d  1 4.700000e-01    3.390000e+00
  P2ah   P1d  1 4.700000e-01    3.880000e+00
  P2ah   N6d  1 4.700000e-01    3.880000e+00
  P2ah   N5d  1 4.700000e-01    3.690000e+00
  P2ah   N4d  1 4.700000e-01    3.520000e+00
  P2ah   N3d  1 4.700000e-01    3.390000e+00
  P2ah   N2d  1 4.700000e-01    3.390000e+00
  P2ah   N1d  1 4.700000e-01    3.390000e+00
  P3ah   P2d  1 4.700000e-01    4.060000e+00
  P3ah   P1d  1 4.700000e-01    3.880000e+00
  P3ah   N6d  1 4.700000e-01    3.690000e+00
  P3ah   N5d  1 4.700000e-01    3.520000e+00
  P3ah   N4d  1 4.700000e-01    3.520000e+00
  P3ah   N3d  1 4.700000e-01    3.390000e+00
  P3ah   N2d  1 4.700000e-01    3.390000e+00
  P3ah   N1d  1 4.700000e-01    3.240000e+00
  P4ah   P3d  1 4.700000e-01    4.060000e+00
  P4ah   P2d  1 4.700000e-01    4.060000e+00
  P4ah   P1d  1 4.700000e-01    3.880000e+00
  P4ah   N6d  1 4.700000e-01    3.690000e+00
  P4ah   N5d  1 4.700000e-01    3.520000e+00
  P4ah   N4d  1 4.700000e-01    3.520000e+00
  P4ah   N3d  1 4.700000e-01    3.390000e+00
  P4ah   N2d  1 4.700000e-01    3.240000e+00
  P4ah   N1d  1 4.700000e-01    3.070000e+00
  P5ah   P4d  1 4.700000e-01    4.250000e+00
  P5ah   P3d  1 4.700000e-01    4.060000e+00
  P5ah   P2d  1 4.700000e-01    4.060000e+00
  P5ah   P1d  1 4.700000e-01    3.880000e+00
  P5ah   N6d  1 4.700000e-01    3.690000e+00
  P5ah   N5d  1 4.700000e-01    3.520000e+00
  P5ah   N4d  1 4.700000e-01    3.520000e+00
  P5ah   N3d  1 4.700000e-01    3.240000e+00
  P5ah   N2d  1 4.700000e-01    3.070000e+00
  P5ah   N1d  1 4.700000e-01    2.960000e+00
  P6ah   P5d  1 4.700000e-01    4.730000e+00
  P6ah   P4d  1 4.700000e-01    4.480000e+00
  P6ah   P3d  1 4.700000e-01    4.250000e+00
  P6ah   P2d  1 4.700000e-01    4.250000e+00
  P6ah   P1d  1 4.700000e-01    4.060000e+00
  P6ah   N6d  1 4.700000e-01    3.880000e+00
  P6ah   N5d  1 4.700000e-01    3.520000e+00
  P6ah   N4d  1 4.700000e-01    3.390000e+00
  P6ah   N3d  1 4.700000e-01    3.240000e+00
  P6ah   N2d  1 4.700000e-01    3.070000e+00
  P6ah   N1d  1 4.700000e-01    2.960000e+00
  P6ah  P5dq  1 4.700000e-01    5.240000e+00
  P6ah  P4dq  1 4.700000e-01    4.990000e+00
  P6ah  P3dq  1 4.700000e-01    4.730000e+00
  P6ah  P2dq  1 4.700000e-01    4.730000e+00
  P6ah  P1dq  1 4.700000e-01    4.480000e+00
  P6ah  N6dq  1 4.700000e-01    4.250000e+00
  P6ah  N5dq  1 4.700000e-01    3.880000e+00
  P6ah  N4dq  1 4.700000e-01    3.690000e+00
  P6ah  N3dq  1 4.700000e-01    3.390000e+00
  P6ah  N2dq  1 4.700000e-01    3.240000e+00
  P6ah  N1dq  1 4.700000e-01    3.240000e+00
  P5ah  P4dq  1 4.700000e-01    4.730000e+00
  P5ah  P3dq  1 4.700000e-01    4.480000e+00
  P5ah  P2dq  1 4.700000e-01    4.480000e+00
  P5ah  P1dq  1 4.700000e-01    4.250000e+00
  P5ah  N6dq  1 4.700000e-01    4.060000e+00
  P5ah  N5dq  1 4.700000e-01    3.880000e+00
  P5ah  N4dq  1 4.700000e-01    3.880000e+00
  P5ah  N3dq  1 4.700000e-01    3.390000e+00
  P5ah  N2dq  1 4.700000e-01    3.240000e+00
  P5ah  N1dq  1 4.700000e-01    3.240000e+00
  P4ah  P3dq  1 4.700000e-01    4.480000e+00
  P4ah  P2dq  1 4.700000e-01    4.480000e+00
  P4ah  P1dq  1 4.700000e-01    4.250000e+00
  P4ah  N6dq  1 4.700000e-01    4.060000e+00
  P4ah  N5dq  1 4.700000e-01    3.880000e+00
  P4ah  N4dq  1 4.700000e-01    3.880000e+00
  P4ah  N3dq  1 4.700000e-01    3.690000e+00
  P4ah  N2dq  1 4.700000e-01    3.390000e+00
  P4ah  N1dq  1 4.700000e-01    3.240000e+00
  P3ah  P2dq  1 4.700000e-01    4.480000e+00
  P3ah  P1dq  1 4.700000e-01    4.250000e+00
  P3ah  N6dq  1 4.700000e-01    4.060000e+00
  P3ah  N5dq  1 4.700000e-01    3.880000e+00
  P3ah  N4dq  1 4.700000e-01    3.880000e+00
  P3ah  N3dq  1 4.700000e-01    3.690000e+00
  P3ah  N2dq  1 4.700000e-01    3.690000e+00
  P3ah  N1dq  1 4.700000e-01    3.390000e+00
  P2ah  P1dq  1 4.700000e-01    4.250000e+00
  P2ah  N6dq  1 4.700000e-01    4.250000e+00
  P2ah  N5dq  1 4.700000e-01    4.060000e+00
  P2ah  N4dq  1 4.700000e-01    3.880000e+00
  P2ah  N3dq  1 4.700000e-01    3.690000e+00
  P2ah  N2dq  1 4.700000e-01    3.690000e+00
  P2ah  N1dq  1 4.700000e-01    3.690000e+00
  P1ah  N6dq  1 4.700000e-01    4.250000e+00
  P1ah  N5dq  1 4.700000e-01    4.060000e+00
  P1ah  N4dq  1 4.700000e-01    4.060000e+00
  P1ah  N3dq  1 4.700000e-01    3.690000e+00
  P1ah  N2dq  1 4.700000e-01    3.690000e+00
  P1ah  N1dq  1 4.700000e-01    3.690000e+00
  N6ah  N5dq  1 4.700000e-01    4.250000e+00
  N6ah  N4dq  1 4.700000e-01    4.250000e+00
  N6ah  N3dq  1 4.700000e-01    3.880000e+00
  N6ah  N2dq  1 4.700000e-01    3.690000e+00
  N6ah  N1dq  1 4.700000e-01    3.690000e+00
  N5ah  N4dq  1 4.700000e-01    4.060000e+00
  N5ah  N3dq  1 4.700000e-01    3.880000e+00
  N5ah  N2dq  1 4.700000e-01    3.880000e+00
  N5ah  N1dq  1 4.700000e-01    3.690000e+00
  N4ah  N3dq  1 4.700000e-01    3.880000e+00
  N4ah  N2dq  1 4.700000e-01    3.880000e+00
  N4ah  N1dq  1 4.700000e-01    3.690000e+00
  N3ah  N2dq  1 4.700000e-01    3.880000e+00
  N3ah  N1dq  1 4.700000e-01    3.690000e+00
  N2ah  N1dq  1 4.700000e-01    3.690000e+00
  P6ah  P5dh  1 4.700000e-01    4.990000e+00
  P6ah  P4dh  1 4.700000e-01    4.730000e+00
  P6ah  P3dh  1 4.700000e-01    4.480000e+00
  P6ah  P2dh  1 4.700000e-01    4.480000e+00
  P6ah  P1dh  1 4.700000e-01    4.250000e+00
  P6ah  N6dh  1 4.700000e-01    4.060000e+00
  P6ah  N5dh  1 4.700000e-01    3.690000e+00
  P6ah  N4dh  1 4.700000e-01    3.520000e+00
  P6ah  N3dh  1 4.700000e-01    3.240000e+00
  P6ah  N2dh  1 4.700000e-01    3.240000e+00
  P6ah  N1dh  1 4.700000e-01    3.070000e+00
  P5ah  P4dh  1 4.700000e-01    4.480000e+00
  P5ah  P3dh  1 4.700000e-01    4.250000e+00
  P5ah  P2dh  1 4.700000e-01    4.250000e+00
  P5ah  P1dh  1 4.700000e-01    4.060000e+00
  P5ah  N6dh  1 4.700000e-01    3.880000e+00
  P5ah  N5dh  1 4.700000e-01    3.690000e+00
  P5ah  N4dh  1 4.700000e-01    3.690000e+00
  P5ah  N3dh  1 4.700000e-01    3.240000e+00
  P5ah  N2dh  1 4.700000e-01    3.240000e+00
  P5ah  N1dh  1 4.700000e-01    3.070000e+00
  P4ah  P3dh  1 4.700000e-01    4.250000e+00
  P4ah  P2dh  1 4.700000e-01    4.250000e+00
  P4ah  P1dh  1 4.700000e-01    4.060000e+00
  P4ah  N6dh  1 4.700000e-01    3.880000e+00
  P4ah  N5dh  1 4.700000e-01    3.690000e+00
  P4ah  N4dh  1 4.700000e-01    3.690000e+00
  P4ah  N3dh  1 4.700000e-01    3.520000e+00
  P4ah  N2dh  1 4.700000e-01    3.240000e+00
  P4ah  N1dh  1 4.700000e-01    3.240000e+00
  P3ah  P2dh  1 4.700000e-01    4.250000e+00
  P3ah  P1dh  1 4.700000e-01    4.060000e+00
  P3ah  N6dh  1 4.700000e-01    3.880000e+00
  P3ah  N5dh  1 4.700000e-01    3.690000e+00
  P3ah  N4dh  1 4.700000e-01    3.690000e+00
  P3ah  N3dh  1 4.700000e-01    3.520000e+00
  P3ah  N2dh  1 4.700000e-01    3.520000e+00
  P3ah  N1dh  1 4.700000e-01    3.240000e+00
  P2ah  P1dh  1 4.700000e-01    4.060000e+00
  P2ah  N6dh  1 4.700000e-01    4.060000e+00
  P2ah  N5dh  1 4.700000e-01    3.880000e+00
  P2ah  N4dh  1 4.700000e-01    3.690000e+00
  P2ah  N3dh  1 4.700000e-01    3.520000e+00
  P2ah  N2dh  1 4.700000e-01    3.520000e+00
  P2ah  N1dh  1 4.700000e-01    3.520000e+00
  P1ah  N6dh  1 4.700000e-01    4.060000e+00
  P1ah  N5dh  1 4.700000e-01    3.880000e+00
  P1ah  N4dh  1 4.700000e-01    3.880000e+00
  P1ah  N3dh  1 4.700000e-01    3.520000e+00
  P1ah  N2dh  1 4.700000e-01    3.520000e+00
  P1ah  N1dh  1 4.700000e-01    3.520000e+00
  N6ah  N5dh  1 4.700000e-01    4.060000e+00
  N6ah  N4dh  1 4.700000e-01    4.060000e+00
  N6ah  N3dh  1 4.700000e-01    3.690000e+00
  N6ah  N2dh  1 4.700000e-01    3.520000e+00
  N6ah  N1dh  1 4.700000e-01    3.520000e+00
  N5ah  N4dh  1 4.700000e-01    3.880000e+00
  N5ah  N3dh  1 4.700000e-01    3.690000e+00
  N5ah  N2dh  1 4.700000e-01    3.690000e+00
  N5ah  N1dh  1 4.700000e-01    3.520000e+00
  N4ah  N3dh  1 4.700000e-01    3.690000e+00
  N4ah  N2dh  1 4.700000e-01    3.690000e+00
  N4ah  N1dh  1 4.700000e-01    3.520000e+00
  N3ah  N2dh  1 4.700000e-01    3.690000e+00
  N3ah  N1dh  1 4.700000e-01    3.520000e+00
  N2ah  N1dh  1 4.700000e-01    3.520000e+00
  P6ah  P5dr  1 4.700000e-01    4.730000e+00
  P6ah  P4dr  1 4.700000e-01    4.480000e+00
  P6ah  P3dr  1 4.700000e-01    4.250000e+00
  P6ah  P2dr  1 4.700000e-01    4.250000e+00
  P6ah  P1dr  1 4.700000e-01    4.060000e+00
  P6ah  N6dr  1 4.700000e-01    3.880000e+00
  P6ah  N5dr  1 4.700000e-01    3.520000e+00
  P6ah  N4dr  1 4.700000e-01    3.390000e+00
  P6ah  N3dr  1 4.700000e-01    3.240000e+00
  P6ah  N2dr  1 4.700000e-01    3.070000e+00
  P6ah  N1dr  1 4.700000e-01    2.960000e+00
  P5ah  P4dr  1 4.700000e-01    4.250000e+00
  P5ah  P3dr  1 4.700000e-01    4.060000e+00
  P5ah  P2dr  1 4.700000e-01    4.060000e+00
  P5ah  P1dr  1 4.700000e-01    3.880000e+00
  P5ah  N6dr  1 4.700000e-01    3.690000e+00
  P5ah  N5dr  1 4.700000e-01    3.520000e+00
  P5ah  N4dr  1 4.700000e-01    3.520000e+00
  P5ah  N3dr  1 4.700000e-01    3.240000e+00
  P5ah  N2dr  1 4.700000e-01    3.070000e+00
  P5ah  N1dr  1 4.700000e-01    2.960000e+00
  P4ah  P3dr  1 4.700000e-01    4.060000e+00
  P4ah  P2dr  1 4.700000e-01    4.060000e+00
  P4ah  P1dr  1 4.700000e-01    3.880000e+00
  P4ah  N6dr  1 4.700000e-01    3.690000e+00
  P4ah  N5dr  1 4.700000e-01    3.520000e+00
  P4ah  N4dr  1 4.700000e-01    3.520000e+00
  P4ah  N3dr  1 4.700000e-01    3.390000e+00
  P4ah  N2dr  1 4.700000e-01    3.240000e+00
  P4ah  N1dr  1 4.700000e-01    3.070000e+00
  P3ah  P2dr  1 4.700000e-01    4.060000e+00
  P3ah  P1dr  1 4.700000e-01    3.880000e+00
  P3ah  N6dr  1 4.700000e-01    3.690000e+00
  P3ah  N5dr  1 4.700000e-01    3.520000e+00
  P3ah  N4dr  1 4.700000e-01    3.520000e+00
  P3ah  N3dr  1 4.700000e-01    3.390000e+00
  P3ah  N2dr  1 4.700000e-01    3.390000e+00
  P3ah  N1dr  1 4.700000e-01    3.240000e+00
  P2ah  P1dr  1 4.700000e-01    3.880000e+00
  P2ah  N6dr  1 4.700000e-01    3.880000e+00
  P2ah  N5dr  1 4.700000e-01    3.690000e+00
  P2ah  N4dr  1 4.700000e-01    3.520000e+00
  P2ah  N3dr  1 4.700000e-01    3.390000e+00
  P2ah  N2dr  1 4.700000e-01    3.390000e+00
  P2ah  N1dr  1 4.700000e-01    3.390000e+00
  P1ah  N6dr  1 4.700000e-01    3.880000e+00
  P1ah  N5dr  1 4.700000e-01    3.690000e+00
  P1ah  N4dr  1 4.700000e-01    3.690000e+00
  P1ah  N3dr  1 4.700000e-01    3.390000e+00
  P1ah  N2dr  1 4.700000e-01    3.390000e+00
  P1ah  N1dr  1 4.700000e-01    3.390000e+00
  N6ah  N5dr  1 4.700000e-01    3.880000e+00
  N6ah  N4dr  1 4.700000e-01    3.880000e+00
  N6ah  N3dr  1 4.700000e-01    3.520000e+00
  N6ah  N2dr  1 4.700000e-01    3.390000e+00
  N6ah  N1dr  1 4.700000e-01    3.390000e+00
  N5ah  N4dr  1 4.700000e-01    3.690000e+00
  N5ah  N3dr  1 4.700000e-01    3.520000e+00
  N5ah  N2dr  1 4.700000e-01    3.520000e+00
  N5ah  N1dr  1 4.700000e-01    3.390000e+00
  N4ah  N3dr  1 4.700000e-01    3.520000e+00
  N4ah  N2dr  1 4.700000e-01    3.520000e+00
  N4ah  N1dr  1 4.700000e-01    3.390000e+00
  N3ah  N2dr  1 4.700000e-01    3.520000e+00
  N3ah  N1dr  1 4.700000e-01    3.390000e+00
  N2ah  N1dr  1 4.700000e-01    3.390000e+00
  N2ar   N1d  1 4.700000e-01    3.390000e+00
  N3ar   N2d  1 4.700000e-01    3.520000e+00
  N3ar   N1d  1 4.700000e-01    3.390000e+00
  N4ar   N3d  1 4.700000e-01    3.520000e+00
  N4ar   N2d  1 4.700000e-01    3.520000e+00
  N4ar   N1d  1 4.700000e-01    3.390000e+00
  N5ar   N4d  1 4.700000e-01    3.690000e+00
  N5ar   N3d  1 4.700000e-01    3.520000e+00
  N5ar   N2d  1 4.700000e-01    3.520000e+00
  N5ar   N1d  1 4.700000e-01    3.390000e+00
  N6ar   N5d  1 4.700000e-01    3.880000e+00
  N6ar   N4d  1 4.700000e-01    3.880000e+00
  N6ar   N3d  1 4.700000e-01    3.520000e+00
  N6ar   N2d  1 4.700000e-01    3.390000e+00
  N6ar   N1d  1 4.700000e-01    3.390000e+00
  P1ar   N6d  1 4.700000e-01    3.880000e+00
  P1ar   N5d  1 4.700000e-01    3.690000e+00
  P1ar   N4d  1 4.700000e-01    3.690000e+00
  P1ar   N3d  1 4.700000e-01    3.390000e+00
  P1ar   N2d  1 4.700000e-01    3.390000e+00
  P1ar   N1d  1 4.700000e-01    3.390000e+00
  P2ar   P1d  1 4.700000e-01    3.880000e+00
  P2ar   N6d  1 4.700000e-01    3.880000e+00
  P2ar   N5d  1 4.700000e-01    3.690000e+00
  P2ar   N4d  1 4.700000e-01    3.520000e+00
  P2ar   N3d  1 4.700000e-01    3.390000e+00
  P2ar   N2d  1 4.700000e-01    3.390000e+00
  P2ar   N1d  1 4.700000e-01    3.390000e+00
  P3ar   P2d  1 4.700000e-01    4.060000e+00
  P3ar   P1d  1 4.700000e-01    3.880000e+00
  P3ar   N6d  1 4.700000e-01    3.690000e+00
  P3ar   N5d  1 4.700000e-01    3.520000e+00
  P3ar   N4d  1 4.700000e-01    3.520000e+00
  P3ar   N3d  1 4.700000e-01    3.390000e+00
  P3ar   N2d  1 4.700000e-01    3.390000e+00
  P3ar   N1d  1 4.700000e-01    3.240000e+00
  P4ar   P3d  1 4.700000e-01    4.060000e+00
  P4ar   P2d  1 4.700000e-01    4.060000e+00
  P4ar   P1d  1 4.700000e-01    3.880000e+00
  P4ar   N6d  1 4.700000e-01    3.690000e+00
  P4ar   N5d  1 4.700000e-01    3.520000e+00
  P4ar   N4d  1 4.700000e-01    3.520000e+00
  P4ar   N3d  1 4.700000e-01    3.390000e+00
  P4ar   N2d  1 4.700000e-01    3.240000e+00
  P4ar   N1d  1 4.700000e-01    3.070000e+00
  P5ar   P4d  1 4.700000e-01    4.250000e+00
  P5ar   P3d  1 4.700000e-01    4.060000e+00
  P5ar   P2d  1 4.700000e-01    4.060000e+00
  P5ar   P1d  1 4.700000e-01    3.880000e+00
  P5ar   N6d  1 4.700000e-01    3.690000e+00
  P5ar   N5d  1 4.700000e-01    3.520000e+00
  P5ar   N4d  1 4.700000e-01    3.520000e+00
  P5ar   N3d  1 4.700000e-01    3.240000e+00
  P5ar   N2d  1 4.700000e-01    3.070000e+00
  P5ar   N1d  1 4.700000e-01    2.960000e+00
  P6ar   P5d  1 4.700000e-01    4.730000e+00
  P6ar   P4d  1 4.700000e-01    4.480000e+00
  P6ar   P3d  1 4.700000e-01    4.250000e+00
  P6ar   P2d  1 4.700000e-01    4.250000e+00
  P6ar   P1d  1 4.700000e-01    4.060000e+00
  P6ar   N6d  1 4.700000e-01    3.880000e+00
  P6ar   N5d  1 4.700000e-01    3.520000e+00
  P6ar   N4d  1 4.700000e-01    3.390000e+00
  P6ar   N3d  1 4.700000e-01    3.240000e+00
  P6ar   N2d  1 4.700000e-01    3.070000e+00
  P6ar   N1d  1 4.700000e-01    2.960000e+00
  P6ar  P5dq  1 4.700000e-01    5.240000e+00
  P6ar  P4dq  1 4.700000e-01    4.990000e+00
  P6ar  P3dq  1 4.700000e-01    4.730000e+00
  P6ar  P2dq  1 4.700000e-01    4.730000e+00
  P6ar  P1dq  1 4.700000e-01    4.480000e+00
  P6ar  N6dq  1 4.700000e-01    4.250000e+00
  P6ar  N5dq  1 4.700000e-01    3.880000e+00
  P6ar  N4dq  1 4.700000e-01    3.690000e+00
  P6ar  N3dq  1 4.700000e-01    3.390000e+00
  P6ar  N2dq  1 4.700000e-01    3.240000e+00
  P6ar  N1dq  1 4.700000e-01    3.240000e+00
  P5ar  P4dq  1 4.700000e-01    4.730000e+00
  P5ar  P3dq  1 4.700000e-01    4.480000e+00
  P5ar  P2dq  1 4.700000e-01    4.480000e+00
  P5ar  P1dq  1 4.700000e-01    4.250000e+00
  P5ar  N6dq  1 4.700000e-01    4.060000e+00
  P5ar  N5dq  1 4.700000e-01    3.880000e+00
  P5ar  N4dq  1 4.700000e-01    3.880000e+00
  P5ar  N3dq  1 4.700000e-01    3.390000e+00
  P5ar  N2dq  1 4.700000e-01    3.240000e+00
  P5ar  N1dq  1 4.700000e-01    3.240000e+00
  P4ar  P3dq  1 4.700000e-01    4.480000e+00
  P4ar  P2dq  1 4.700000e-01    4.480000e+00
  P4ar  P1dq  1 4.700000e-01    4.250000e+00
  P4ar  N6dq  1 4.700000e-01    4.060000e+00
  P4ar  N5dq  1 4.700000e-01    3.880000e+00
  P4ar  N4dq  1 4.700000e-01    3.880000e+00
  P4ar  N3dq  1 4.700000e-01    3.690000e+00
  P4ar  N2dq  1 4.700000e-01    3.390000e+00
  P4ar  N1dq  1 4.700000e-01    3.240000e+00
  P3ar  P2dq  1 4.700000e-01    4.480000e+00
  P3ar  P1dq  1 4.700000e-01    4.250000e+00
  P3ar  N6dq  1 4.700000e-01    4.060000e+00
  P3ar  N5dq  1 4.700000e-01    3.880000e+00
  P3ar  N4dq  1 4.700000e-01    3.880000e+00
  P3ar  N3dq  1 4.700000e-01    3.690000e+00
  P3ar  N2dq  1 4.700000e-01    3.690000e+00
  P3ar  N1dq  1 4.700000e-01    3.390000e+00
  P2ar  P1dq  1 4.700000e-01    4.250000e+00
  P2ar  N6dq  1 4.700000e-01    4.250000e+00
  P2ar  N5dq  1 4.700000e-01    4.060000e+00
  P2ar  N4dq  1 4.700000e-01    3.880000e+00
  P2ar  N3dq  1 4.700000e-01    3.690000e+00
  P2ar  N2dq  1 4.700000e-01    3.690000e+00
  P2ar  N1dq  1 4.700000e-01    3.690000e+00
  P1ar  N6dq  1 4.700000e-01    4.250000e+00
  P1ar  N5dq  1 4.700000e-01    4.060000e+00
  P1ar  N4dq  1 4.700000e-01    4.060000e+00
  P1ar  N3dq  1 4.700000e-01    3.690000e+00
  P1ar  N2dq  1 4.700000e-01    3.690000e+00
  P1ar  N1dq  1 4.700000e-01    3.690000e+00
  N6ar  N5dq  1 4.700000e-01    4.250000e+00
  N6ar  N4dq  1 4.700000e-01    4.250000e+00
  N6ar  N3dq  1 4.700000e-01    3.880000e+00
  N6ar  N2dq  1 4.700000e-01    3.690000e+00
  N6ar  N1dq  1 4.700000e-01    3.690000e+00
  N5ar  N4dq  1 4.700000e-01    4.060000e+00
  N5ar  N3dq  1 4.700000e-01    3.880000e+00
  N5ar  N2dq  1 4.700000e-01    3.880000e+00
  N5ar  N1dq  1 4.700000e-01    3.690000e+00
  N4ar  N3dq  1 4.700000e-01    3.880000e+00
  N4ar  N2dq  1 4.700000e-01    3.880000e+00
  N4ar  N1dq  1 4.700000e-01    3.690000e+00
  N3ar  N2dq  1 4.700000e-01    3.880000e+00
  N3ar  N1dq  1 4.700000e-01    3.690000e+00
  N2ar  N1dq  1 4.700000e-01    3.690000e+00
  P6ar  P5dh  1 4.700000e-01    4.730000e+00
  P6ar  P4dh  1 4.700000e-01    4.480000e+00
  P6ar  P3dh  1 4.700000e-01    4.250000e+00
  P6ar  P2dh  1 4.700000e-01    4.250000e+00
  P6ar  P1dh  1 4.700000e-01    4.060000e+00
  P6ar  N6dh  1 4.700000e-01    3.880000e+00
  P6ar  N5dh  1 4.700000e-01    3.520000e+00
  P6ar  N4dh  1 4.700000e-01    3.390000e+00
  P6ar  N3dh  1 4.700000e-01    3.240000e+00
  P6ar  N2dh  1 4.700000e-01    3.070000e+00
  P6ar  N1dh  1 4.700000e-01    2.960000e+00
  P5ar  P4dh  1 4.700000e-01    4.250000e+00
  P5ar  P3dh  1 4.700000e-01    4.060000e+00
  P5ar  P2dh  1 4.700000e-01    4.060000e+00
  P5ar  P1dh  1 4.700000e-01    3.880000e+00
  P5ar  N6dh  1 4.700000e-01    3.690000e+00
  P5ar  N5dh  1 4.700000e-01    3.520000e+00
  P5ar  N4dh  1 4.700000e-01    3.520000e+00
  P5ar  N3dh  1 4.700000e-01    3.240000e+00
  P5ar  N2dh  1 4.700000e-01    3.070000e+00
  P5ar  N1dh  1 4.700000e-01    2.960000e+00
  P4ar  P3dh  1 4.700000e-01    4.060000e+00
  P4ar  P2dh  1 4.700000e-01    4.060000e+00
  P4ar  P1dh  1 4.700000e-01    3.880000e+00
  P4ar  N6dh  1 4.700000e-01    3.690000e+00
  P4ar  N5dh  1 4.700000e-01    3.520000e+00
  P4ar  N4dh  1 4.700000e-01    3.520000e+00
  P4ar  N3dh  1 4.700000e-01    3.390000e+00
  P4ar  N2dh  1 4.700000e-01    3.240000e+00
  P4ar  N1dh  1 4.700000e-01    3.070000e+00
  P3ar  P2dh  1 4.700000e-01    4.060000e+00
  P3ar  P1dh  1 4.700000e-01    3.880000e+00
  P3ar  N6dh  1 4.700000e-01    3.690000e+00
  P3ar  N5dh  1 4.700000e-01    3.520000e+00
  P3ar  N4dh  1 4.700000e-01    3.520000e+00
  P3ar  N3dh  1 4.700000e-01    3.390000e+00
  P3ar  N2dh  1 4.700000e-01    3.390000e+00
  P3ar  N1dh  1 4.700000e-01    3.240000e+00
  P2ar  P1dh  1 4.700000e-01    3.880000e+00
  P2ar  N6dh  1 4.700000e-01    3.880000e+00
  P2ar  N5dh  1 4.700000e-01    3.690000e+00
  P2ar  N4dh  1 4.700000e-01    3.520000e+00
  P2ar  N3dh  1 4.700000e-01    3.390000e+00
  P2ar  N2dh  1 4.700000e-01    3.390000e+00
  P2ar  N1dh  1 4.700000e-01    3.390000e+00
  P1ar  N6dh  1 4.700000e-01    3.880000e+00
  P1ar  N5dh  1 4.700000e-01    3.690000e+00
  P1ar  N4dh  1 4.700000e-01    3.690000e+00
  P1ar  N3dh  1 4.700000e-01    3.390000e+00
  P1ar  N2dh  1 4.700000e-01    3.390000e+00
  P1ar  N1dh  1 4.700000e-01    3.390000e+00
  N6ar  N5dh  1 4.700000e-01    3.880000e+00
  N6ar  N4dh  1 4.700000e-01    3.880000e+00
  N6ar  N3dh  1 4.700000e-01    3.520000e+00
  N6ar  N2dh  1 4.700000e-01    3.390000e+00
  N6ar  N1dh  1 4.700000e-01    3.390000e+00
  N5ar  N4dh  1 4.700000e-01    3.690000e+00
  N5ar  N3dh  1 4.700000e-01    3.520000e+00
  N5ar  N2dh  1 4.700000e-01    3.520000e+00
  N5ar  N1dh  1 4.700000e-01    3.390000e+00
  N4ar  N3dh  1 4.700000e-01    3.520000e+00
  N4ar  N2dh  1 4.700000e-01    3.520000e+00
  N4ar  N1dh  1 4.700000e-01    3.390000e+00
  N3ar  N2dh  1 4.700000e-01    3.520000e+00
  N3ar  N1dh  1 4.700000e-01    3.390000e+00
  N2ar  N1dh  1 4.700000e-01    3.390000e+00
  P6ar  P5dr  1 4.700000e-01    4.480000e+00
  P6ar  P4dr  1 4.700000e-01    4.250000e+00
  P6ar  P3dr  1 4.700000e-01    4.060000e+00
  P6ar  P2dr  1 4.700000e-01    4.060000e+00
  P6ar  P1dr  1 4.700000e-01    3.880000e+00
  P6ar  N6dr  1 4.700000e-01    3.690000e+00
  P6ar  N5dr  1 4.700000e-01    3.390000e+00
  P6ar  N4dr  1 4.700000e-01    3.240000e+00
  P6ar  N3dr  1 4.700000e-01    3.070000e+00
  P6ar  N2dr  1 4.700000e-01    2.960000e+00
  P6ar  N1dr  1 4.700000e-01    2.790000e+00
  P5ar  P4dr  1 4.700000e-01    4.060000e+00
  P5ar  P3dr  1 4.700000e-01    3.880000e+00
  P5ar  P2dr  1 4.700000e-01    3.880000e+00
  P5ar  P1dr  1 4.700000e-01    3.690000e+00
  P5ar  N6dr  1 4.700000e-01    3.520000e+00
  P5ar  N5dr  1 4.700000e-01    3.390000e+00
  P5ar  N4dr  1 4.700000e-01    3.390000e+00
  P5ar  N3dr  1 4.700000e-01    3.070000e+00
  P5ar  N2dr  1 4.700000e-01    2.960000e+00
  P5ar  N1dr  1 4.700000e-01    2.790000e+00
  P4ar  P3dr  1 4.700000e-01    3.880000e+00
  P4ar  P2dr  1 4.700000e-01    3.880000e+00
  P4ar  P1dr  1 4.700000e-01    3.690000e+00
  P4ar  N6dr  1 4.700000e-01    3.520000e+00
  P4ar  N5dr  1 4.700000e-01    3.390000e+00
  P4ar  N4dr  1 4.700000e-01    3.390000e+00
  P4ar  N3dr  1 4.700000e-01    3.240000e+00
  P4ar  N2dr  1 4.700000e-01    3.070000e+00
  P4ar  N1dr  1 4.700000e-01    2.960000e+00
  P3ar  P2dr  1 4.700000e-01    3.880000e+00
  P3ar  P1dr  1 4.700000e-01    3.690000e+00
  P3ar  N6dr  1 4.700000e-01    3.520000e+00
  P3ar  N5dr  1 4.700000e-01    3.390000e+00
  P3ar  N4dr  1 4.700000e-01    3.390000e+00
  P3ar  N3dr  1 4.700000e-01    3.240000e+00
  P3ar  N2dr  1 4.700000e-01    3.240000e+00
  P3ar  N1dr  1 4.700000e-01    3.070000e+00
  P2ar  P1dr  1 4.700000e-01    3.690000e+00
  P2ar  N6dr  1 4.700000e-01    3.690000e+00
  P2ar  N5dr  1 4.700000e-01    3.520000e+00
  P2ar  N4dr  1 4.700000e-01    3.390000e+00
  P2ar  N3dr  1 4.700000e-01    3.240000e+00
  P2ar  N2dr  1 4.700000e-01    3.240000e+00
  P2ar  N1dr  1 4.700000e-01    3.240000e+00
  P1ar  N6dr  1 4.700000e-01    3.690000e+00
  P1ar  N5dr  1 4.700000e-01    3.520000e+00
  P1ar  N4dr  1 4.700000e-01    3.520000e+00
  P1ar  N3dr  1 4.700000e-01    3.240000e+00
  P1ar  N2dr  1 4.700000e-01    3.240000e+00
  P1ar  N1dr  1 4.700000e-01    3.240000e+00
  N6ar  N5dr  1 4.700000e-01    3.690000e+00
  N6ar  N4dr  1 4.700000e-01    3.690000e+00
  N6ar  N3dr  1 4.700000e-01    3.390000e+00
  N6ar  N2dr  1 4.700000e-01    3.240000e+00
  N6ar  N1dr  1 4.700000e-01    3.240000e+00
  N5ar  N4dr  1 4.700000e-01    3.520000e+00
  N5ar  N3dr  1 4.700000e-01    3.390000e+00
  N5ar  N2dr  1 4.700000e-01    3.390000e+00
  N5ar  N1dr  1 4.700000e-01    3.240000e+00
  N4ar  N3dr  1 4.700000e-01    3.390000e+00
  N4ar  N2dr  1 4.700000e-01    3.390000e+00
  N4ar  N1dr  1 4.700000e-01    3.240000e+00
  N3ar  N2dr  1 4.700000e-01    3.390000e+00
  N3ar  N1dr  1 4.700000e-01    3.240000e+00
  N2ar  N1dr  1 4.700000e-01    3.240000e+00
   P6a  SP6a  1 4.300000e-01    4.170000e+00
   P6a  SP5a  1 4.300000e-01    3.970000e+00
   P6a  SP4a  1 4.300000e-01    3.770000e+00
   P6a  SP3a  1 4.300000e-01    3.590000e+00
   P6a  SP2a  1 4.300000e-01    3.590000e+00
   P6a  SP1a  1 4.300000e-01    3.380000e+00
   P6a  SN6a  1 4.300000e-01    3.160000e+00
   P6a  SN5a  1 4.300000e-01    2.920000e+00
   P6a  SN4a  1 4.300000e-01    2.770000e+00
   P6a  SN3a  1 4.300000e-01    2.770000e+00
   P6a  SN2a  1 4.300000e-01    2.530000e+00
   P6a  SN1a  1 4.300000e-01    2.320000e+00
   P5a  SP5a  1 4.300000e-01    3.770000e+00
   P5a  SP4a  1 4.300000e-01    3.590000e+00
   P5a  SP3a  1 4.300000e-01    3.380000e+00
   P5a  SP2a  1 4.300000e-01    3.380000e+00
   P5a  SP1a  1 4.300000e-01    3.160000e+00
   P5a  SN6a  1 4.300000e-01    2.930000e+00
   P5a  SN5a  1 4.300000e-01    2.920000e+00
   P5a  SN4a  1 4.300000e-01    2.920000e+00
   P5a  SN3a  1 4.300000e-01    2.770000e+00
   P5a  SN2a  1 4.300000e-01    2.530000e+00
   P5a  SN1a  1 4.300000e-01    2.320000e+00
   P4a  SP4a  1 4.300000e-01    3.590000e+00
   P4a  SP3a  1 4.300000e-01    3.380000e+00
   P4a  SP2a  1 4.300000e-01    3.380000e+00
   P4a  SP1a  1 4.300000e-01    3.160000e+00
   P4a  SN6a  1 4.300000e-01    2.930000e+00
   P4a  SN5a  1 4.300000e-01    2.920000e+00
   P4a  SN4a  1 4.300000e-01    2.920000e+00
   P4a  SN3a  1 4.300000e-01    2.770000e+00
   P4a  SN2a  1 4.300000e-01    2.770000e+00
   P4a  SN1a  1 4.300000e-01    2.530000e+00
   P3a  SP3a  1 4.300000e-01    3.380000e+00
   P3a  SP2a  1 4.300000e-01    3.380000e+00
   P3a  SP1a  1 4.300000e-01    3.160000e+00
   P3a  SN6a  1 4.300000e-01    2.930000e+00
   P3a  SN5a  1 4.300000e-01    2.920000e+00
   P3a  SN4a  1 4.300000e-01    2.920000e+00
   P3a  SN3a  1 4.300000e-01    2.770000e+00
   P3a  SN2a  1 4.300000e-01    2.770000e+00
   P3a  SN1a  1 4.300000e-01    2.770000e+00
   P2a  SP2a  1 4.300000e-01    3.380000e+00
   P2a  SP1a  1 4.300000e-01    3.160000e+00
   P2a  SN6a  1 4.300000e-01    3.160000e+00
   P2a  SN5a  1 4.300000e-01    2.930000e+00
   P2a  SN4a  1 4.300000e-01    2.920000e+00
   P2a  SN3a  1 4.300000e-01    2.770000e+00
   P2a  SN2a  1 4.300000e-01    2.770000e+00
   P2a  SN1a  1 4.300000e-01    2.770000e+00
   P1a  SP1a  1 4.300000e-01    3.160000e+00
   P1a  SN6a  1 4.300000e-01    3.160000e+00
   P1a  SN5a  1 4.300000e-01    2.930000e+00
   P1a  SN4a  1 4.300000e-01    2.930000e+00
   P1a  SN3a  1 4.300000e-01    2.770000e+00
   P1a  SN2a  1 4.300000e-01    2.770000e+00
   P1a  SN1a  1 4.300000e-01    2.770000e+00
   N6a  SN6a  1 4.300000e-01    3.160000e+00
   N6a  SN5a  1 4.300000e-01    3.160000e+00
   N6a  SN4a  1 4.300000e-01    3.160000e+00
   N6a  SN3a  1 4.300000e-01    2.920000e+00
   N6a  SN2a  1 4.300000e-01    2.770000e+00
   N6a  SN1a  1 4.300000e-01    2.770000e+00
   N5a  SN5a  1 4.300000e-01    2.930000e+00
   N5a  SN4a  1 4.300000e-01    2.930000e+00
   N5a  SN3a  1 4.300000e-01    2.920000e+00
   N5a  SN2a  1 4.300000e-01    2.920000e+00
   N5a  SN1a  1 4.300000e-01    2.770000e+00
   N4a  SN4a  1 4.300000e-01    2.930000e+00
   N4a  SN3a  1 4.300000e-01    2.920000e+00
   N4a  SN2a  1 4.300000e-01    2.920000e+00
   N4a  SN1a  1 4.300000e-01    2.770000e+00
   N3a  SN3a  1 4.300000e-01    2.920000e+00
   N3a  SN2a  1 4.300000e-01    2.920000e+00
   N3a  SN1a  1 4.300000e-01    2.770000e+00
   N2a  SN2a  1 4.300000e-01    2.920000e+00
   N2a  SN1a  1 4.300000e-01    2.770000e+00
   N1a  SN1a  1 4.300000e-01    2.920000e+00
  SP6a   P5a  1 4.300000e-01    3.970000e+00
  SP6a   P4a  1 4.300000e-01    3.770000e+00
  SP6a   P3a  1 4.300000e-01    3.590000e+00
  SP6a   P2a  1 4.300000e-01    3.590000e+00
  SP6a   P1a  1 4.300000e-01    3.380000e+00
  SP6a   N6a  1 4.300000e-01    3.160000e+00
  SP6a   N5a  1 4.300000e-01    2.920000e+00
  SP6a   N4a  1 4.300000e-01    2.770000e+00
  SP6a   N3a  1 4.300000e-01    2.770000e+00
  SP6a   N2a  1 4.300000e-01    2.530000e+00
  SP6a   N1a  1 4.300000e-01    2.320000e+00
  SP5a   P4a  1 4.300000e-01    3.590000e+00
  SP5a   P3a  1 4.300000e-01    3.380000e+00
  SP5a   P2a  1 4.300000e-01    3.380000e+00
  SP5a   P1a  1 4.300000e-01    3.160000e+00
  SP5a   N6a  1 4.300000e-01    2.930000e+00
  SP5a   N5a  1 4.300000e-01    2.920000e+00
  SP5a   N4a  1 4.300000e-01    2.920000e+00
  SP5a   N3a  1 4.300000e-01    2.770000e+00
  SP5a   N2a  1 4.300000e-01    2.530000e+00
  SP5a   N1a  1 4.300000e-01    2.320000e+00
  SP4a   P3a  1 4.300000e-01    3.380000e+00
  SP4a   P2a  1 4.300000e-01    3.380000e+00
  SP4a   P1a  1 4.300000e-01    3.160000e+00
  SP4a   N6a  1 4.300000e-01    2.930000e+00
  SP4a   N5a  1 4.300000e-01    2.920000e+00
  SP4a   N4a  1 4.300000e-01    2.920000e+00
  SP4a   N3a  1 4.300000e-01    2.770000e+00
  SP4a   N2a  1 4.300000e-01    2.770000e+00
  SP4a   N1a  1 4.300000e-01    2.530000e+00
  SP3a   P2a  1 4.300000e-01    3.380000e+00
  SP3a   P1a  1 4.300000e-01    3.160000e+00
  SP3a   N6a  1 4.300000e-01    2.930000e+00
  SP3a   N5a  1 4.300000e-01    2.920000e+00
  SP3a   N4a  1 4.300000e-01    2.920000e+00
  SP3a   N3a  1 4.300000e-01    2.770000e+00
  SP3a   N2a  1 4.300000e-01    2.770000e+00
  SP3a   N1a  1 4.300000e-01    2.770000e+00
  SP2a   P1a  1 4.300000e-01    3.160000e+00
  SP2a   N6a  1 4.300000e-01    3.160000e+00
  SP2a   N5a  1 4.300000e-01    2.930000e+00
  SP2a   N4a  1 4.300000e-01    2.920000e+00
  SP2a   N3a  1 4.300000e-01    2.770000e+00
  SP2a   N2a  1 4.300000e-01    2.770000e+00
  SP2a   N1a  1 4.300000e-01    2.770000e+00
  SP1a   N6a  1 4.300000e-01    3.160000e+00
  SP1a   N5a  1 4.300000e-01    2.930000e+00
  SP1a   N4a  1 4.300000e-01    2.930000e+00
  SP1a   N3a  1 4.300000e-01    2.770000e+00
  SP1a   N2a  1 4.300000e-01    2.770000e+00
  SP1a   N1a  1 4.300000e-01    2.770000e+00
  SN6a   N5a  1 4.300000e-01    3.160000e+00
  SN6a   N4a  1 4.300000e-01    3.160000e+00
  SN6a   N3a  1 4.300000e-01    2.920000e+00
  SN6a   N2a  1 4.300000e-01    2.770000e+00
  SN6a   N1a  1 4.300000e-01    2.770000e+00
  SN5a   N4a  1 4.300000e-01    2.930000e+00
  SN5a   N3a  1 4.300000e-01    2.920000e+00
  SN5a   N2a  1 4.300000e-01    2.920000e+00
  SN5a   N1a  1 4.300000e-01    2.770000e+00
  SN4a   N3a  1 4.300000e-01    2.920000e+00
  SN4a   N2a  1 4.300000e-01    2.920000e+00
  SN4a   N1a  1 4.300000e-01    2.770000e+00
  SN3a   N2a  1 4.300000e-01    2.920000e+00
  SN3a   N1a  1 4.300000e-01    2.770000e+00
  SN2a   N1a  1 4.300000e-01    2.770000e+00
   P6a SP6aq  1 4.300000e-01    4.680000e+00
   P5a SP5aq  1 4.300000e-01    4.170000e+00
   P4a SP4aq  1 4.300000e-01    3.970000e+00
   P3a SP3aq  1 4.300000e-01    3.770000e+00
   P2a SP2aq  1 4.300000e-01    3.770000e+00
   P1a SP1aq  1 4.300000e-01    3.590000e+00
   N6a SN6aq  1 4.300000e-01    3.590000e+00
   N5a SN5aq  1 4.300000e-01    3.380000e+00
   N4a SN4aq  1 4.300000e-01    3.380000e+00
   N3a SN3aq  1 4.300000e-01    3.160000e+00
   N2a SN2aq  1 4.300000e-01    3.160000e+00
   N1a SN1aq  1 4.300000e-01    3.160000e+00
   P6a SN1aq  1 4.300000e-01    2.770000e+00
   P5a SN1aq  1 4.300000e-01    2.770000e+00
   P4a SN1aq  1 4.300000e-01    2.920000e+00
   P3a SN1aq  1 4.300000e-01    2.930000e+00
   P2a SN1aq  1 4.300000e-01    2.930000e+00
   P1a SN1aq  1 4.300000e-01    2.930000e+00
   N6a SN1aq  1 4.300000e-01    2.930000e+00
   N5a SN1aq  1 4.300000e-01    2.930000e+00
   N4a SN1aq  1 4.300000e-01    2.930000e+00
   N3a SN1aq  1 4.300000e-01    2.930000e+00
   N2a SN1aq  1 4.300000e-01    2.930000e+00
   P6a SN2aq  1 4.300000e-01    2.920000e+00
   P5a SN2aq  1 4.300000e-01    2.920000e+00
   P4a SN2aq  1 4.300000e-01    2.930000e+00
   P3a SN2aq  1 4.300000e-01    2.930000e+00
   P2a SN2aq  1 4.300000e-01    2.930000e+00
   P1a SN2aq  1 4.300000e-01    2.930000e+00
   N6a SN2aq  1 4.300000e-01    2.930000e+00
   N5a SN2aq  1 4.300000e-01    3.160000e+00
   N4a SN2aq  1 4.300000e-01    3.160000e+00
   N3a SN2aq  1 4.300000e-01    3.160000e+00
   P6a SN3aq  1 4.300000e-01    2.930000e+00
   P5a SN3aq  1 4.300000e-01    2.930000e+00
   P4a SN3aq  1 4.300000e-01    2.930000e+00
   P3a SN3aq  1 4.300000e-01    2.930000e+00
   P2a SN3aq  1 4.300000e-01    2.930000e+00
   P1a SN3aq  1 4.300000e-01    2.930000e+00
   N6a SN3aq  1 4.300000e-01    3.160000e+00
   N5a SN3aq  1 4.300000e-01    3.160000e+00
   N4a SN3aq  1 4.300000e-01    3.160000e+00
   P6a SN4aq  1 4.300000e-01    2.930000e+00
   P5a SN4aq  1 4.300000e-01    3.160000e+00
   P4a SN4aq  1 4.300000e-01    3.160000e+00
   P3a SN4aq  1 4.300000e-01    3.160000e+00
   P2a SN4aq  1 4.300000e-01    3.160000e+00
   P1a SN4aq  1 4.300000e-01    3.380000e+00
   N6a SN4aq  1 4.300000e-01    3.590000e+00
   N5a SN4aq  1 4.300000e-01    3.380000e+00
   P6a SN5aq  1 4.300000e-01    3.160000e+00
   P5a SN5aq  1 4.300000e-01    3.160000e+00
   P4a SN5aq  1 4.300000e-01    3.160000e+00
   P3a SN5aq  1 4.300000e-01    3.160000e+00
   P2a SN5aq  1 4.300000e-01    3.380000e+00
   P1a SN5aq  1 4.300000e-01    3.380000e+00
   N6a SN5aq  1 4.300000e-01    3.590000e+00
   P6a SN6aq  1 4.300000e-01    3.590000e+00
   P5a SN6aq  1 4.300000e-01    3.380000e+00
   P4a SN6aq  1 4.300000e-01    3.380000e+00
   P3a SN6aq  1 4.300000e-01    3.380000e+00
   P2a SN6aq  1 4.300000e-01    3.590000e+00
   P1a SN6aq  1 4.300000e-01    3.590000e+00
   P6a SP1aq  1 4.300000e-01    3.770000e+00
   P5a SP1aq  1 4.300000e-01    3.590000e+00
   P4a SP1aq  1 4.300000e-01    3.590000e+00
   P3a SP1aq  1 4.300000e-01    3.590000e+00
   P2a SP1aq  1 4.300000e-01    3.590000e+00
   P6a SP2aq  1 4.300000e-01    3.970000e+00
   P5a SP2aq  1 4.300000e-01    3.770000e+00
   P4a SP2aq  1 4.300000e-01    3.770000e+00
   P3a SP2aq  1 4.300000e-01    3.770000e+00
   P6a SP3aq  1 4.300000e-01    3.970000e+00
   P5a SP3aq  1 4.300000e-01    3.770000e+00
   P4a SP3aq  1 4.300000e-01    3.770000e+00
   P6a SP4aq  1 4.300000e-01    4.170000e+00
   P5a SP4aq  1 4.300000e-01    3.970000e+00
   P6a SP5aq  1 4.300000e-01    4.400000e+00
  SP6a  P6aq  1 4.300000e-01    4.680000e+00
  SP5a  P5aq  1 4.300000e-01    4.170000e+00
  SP4a  P4aq  1 4.300000e-01    3.970000e+00
  SP3a  P3aq  1 4.300000e-01    3.770000e+00
  SP2a  P2aq  1 4.300000e-01    3.770000e+00
  SP1a  P1aq  1 4.300000e-01    3.590000e+00
  SN6a  N6aq  1 4.300000e-01    3.590000e+00
  SN5a  N5aq  1 4.300000e-01    3.380000e+00
  SN4a  N4aq  1 4.300000e-01    3.380000e+00
  SN3a  N3aq  1 4.300000e-01    3.160000e+00
  SN2a  N2aq  1 4.300000e-01    3.160000e+00
  SN1a  N1aq  1 4.300000e-01    3.160000e+00
  SP6a  N1aq  1 4.300000e-01    2.770000e+00
  SP5a  N1aq  1 4.300000e-01    2.770000e+00
  SP4a  N1aq  1 4.300000e-01    2.920000e+00
  SP3a  N1aq  1 4.300000e-01    2.930000e+00
  SP2a  N1aq  1 4.300000e-01    2.930000e+00
  SP1a  N1aq  1 4.300000e-01    2.930000e+00
  SN6a  N1aq  1 4.300000e-01    2.930000e+00
  SN5a  N1aq  1 4.300000e-01    2.930000e+00
  SN4a  N1aq  1 4.300000e-01    2.930000e+00
  SN3a  N1aq  1 4.300000e-01    2.930000e+00
  SN2a  N1aq  1 4.300000e-01    2.930000e+00
  SP6a  N2aq  1 4.300000e-01    2.920000e+00
  SP5a  N2aq  1 4.300000e-01    2.920000e+00
  SP4a  N2aq  1 4.300000e-01    2.930000e+00
  SP3a  N2aq  1 4.300000e-01    2.930000e+00
  SP2a  N2aq  1 4.300000e-01    2.930000e+00
  SP1a  N2aq  1 4.300000e-01    2.930000e+00
  SN6a  N2aq  1 4.300000e-01    2.930000e+00
  SN5a  N2aq  1 4.300000e-01    3.160000e+00
  SN4a  N2aq  1 4.300000e-01    3.160000e+00
  SN3a  N2aq  1 4.300000e-01    3.160000e+00
  SP6a  N3aq  1 4.300000e-01    2.930000e+00
  SP5a  N3aq  1 4.300000e-01    2.930000e+00
  SP4a  N3aq  1 4.300000e-01    2.930000e+00
  SP3a  N3aq  1 4.300000e-01    2.930000e+00
  SP2a  N3aq  1 4.300000e-01    2.930000e+00
  SP1a  N3aq  1 4.300000e-01    2.930000e+00
  SN6a  N3aq  1 4.300000e-01    3.160000e+00
  SN5a  N3aq  1 4.300000e-01    3.160000e+00
  SN4a  N3aq  1 4.300000e-01    3.160000e+00
  SP6a  N4aq  1 4.300000e-01    2.930000e+00
  SP5a  N4aq  1 4.300000e-01    3.160000e+00
  SP4a  N4aq  1 4.300000e-01    3.160000e+00
  SP3a  N4aq  1 4.300000e-01    3.160000e+00
  SP2a  N4aq  1 4.300000e-01    3.160000e+00
  SP1a  N4aq  1 4.300000e-01    3.380000e+00
  SN6a  N4aq  1 4.300000e-01    3.590000e+00
  SN5a  N4aq  1 4.300000e-01    3.380000e+00
  SP6a  N5aq  1 4.300000e-01    3.160000e+00
  SP5a  N5aq  1 4.300000e-01    3.160000e+00
  SP4a  N5aq  1 4.300000e-01    3.160000e+00
  SP3a  N5aq  1 4.300000e-01    3.160000e+00
  SP2a  N5aq  1 4.300000e-01    3.380000e+00
  SP1a  N5aq  1 4.300000e-01    3.380000e+00
  SN6a  N5aq  1 4.300000e-01    3.590000e+00
  SP6a  N6aq  1 4.300000e-01    3.590000e+00
  SP5a  N6aq  1 4.300000e-01    3.380000e+00
  SP4a  N6aq  1 4.300000e-01    3.380000e+00
  SP3a  N6aq  1 4.300000e-01    3.380000e+00
  SP2a  N6aq  1 4.300000e-01    3.590000e+00
  SP1a  N6aq  1 4.300000e-01    3.590000e+00
  SP6a  P1aq  1 4.300000e-01    3.770000e+00
  SP5a  P1aq  1 4.300000e-01    3.590000e+00
  SP4a  P1aq  1 4.300000e-01    3.590000e+00
  SP3a  P1aq  1 4.300000e-01    3.590000e+00
  SP2a  P1aq  1 4.300000e-01    3.590000e+00
  SP6a  P2aq  1 4.300000e-01    3.970000e+00
  SP5a  P2aq  1 4.300000e-01    3.770000e+00
  SP4a  P2aq  1 4.300000e-01    3.770000e+00
  SP3a  P2aq  1 4.300000e-01    3.770000e+00
  SP6a  P3aq  1 4.300000e-01    3.970000e+00
  SP5a  P3aq  1 4.300000e-01    3.770000e+00
  SP4a  P3aq  1 4.300000e-01    3.770000e+00
  SP6a  P4aq  1 4.300000e-01    4.170000e+00
  SP5a  P4aq  1 4.300000e-01    3.970000e+00
  SP6a  P5aq  1 4.300000e-01    4.400000e+00
   P6a SP6ah  1 4.300000e-01    4.170000e+00
   P5a SP5ah  1 4.300000e-01    3.770000e+00
   P4a SP4ah  1 4.300000e-01    3.590000e+00
   P3a SP3ah  1 4.300000e-01    3.380000e+00
   P2a SP2ah  1 4.300000e-01    3.380000e+00
   P1a SP1ah  1 4.300000e-01    3.160000e+00
   N6a SN6ah  1 4.300000e-01    3.160000e+00
   N5a SN5ah  1 4.300000e-01    2.930000e+00
   N4a SN4ah  1 4.300000e-01    2.930000e+00
   N3a SN3ah  1 4.300000e-01    2.920000e+00
   N2a SN2ah  1 4.300000e-01    2.920000e+00
   N1a SN1ah  1 4.300000e-01    2.920000e+00
   P6a SN1ah  1 4.300000e-01    2.320000e+00
   P5a SN1ah  1 4.300000e-01    2.320000e+00
   P4a SN1ah  1 4.300000e-01    2.530000e+00
   P3a SN1ah  1 4.300000e-01    2.770000e+00
   P2a SN1ah  1 4.300000e-01    2.770000e+00
   P1a SN1ah  1 4.300000e-01    2.770000e+00
   N6a SN1ah  1 4.300000e-01    2.770000e+00
   N5a SN1ah  1 4.300000e-01    2.770000e+00
   N4a SN1ah  1 4.300000e-01    2.770000e+00
   N3a SN1ah  1 4.300000e-01    2.770000e+00
   N2a SN1ah  1 4.300000e-01    2.770000e+00
   P6a SN2ah  1 4.300000e-01    2.530000e+00
   P5a SN2ah  1 4.300000e-01    2.530000e+00
   P4a SN2ah  1 4.300000e-01    2.770000e+00
   P3a SN2ah  1 4.300000e-01    2.770000e+00
   P2a SN2ah  1 4.300000e-01    2.770000e+00
   P1a SN2ah  1 4.300000e-01    2.770000e+00
   N6a SN2ah  1 4.300000e-01    2.770000e+00
   N5a SN2ah  1 4.300000e-01    2.920000e+00
   N4a SN2ah  1 4.300000e-01    2.920000e+00
   N3a SN2ah  1 4.300000e-01    2.920000e+00
   P6a SN3ah  1 4.300000e-01    2.770000e+00
   P5a SN3ah  1 4.300000e-01    2.770000e+00
   P4a SN3ah  1 4.300000e-01    2.770000e+00
   P3a SN3ah  1 4.300000e-01    2.770000e+00
   P2a SN3ah  1 4.300000e-01    2.770000e+00
   P1a SN3ah  1 4.300000e-01    2.770000e+00
   N6a SN3ah  1 4.300000e-01    2.920000e+00
   N5a SN3ah  1 4.300000e-01    2.920000e+00
   N4a SN3ah  1 4.300000e-01    2.920000e+00
   P6a SN4ah  1 4.300000e-01    2.770000e+00
   P5a SN4ah  1 4.300000e-01    2.920000e+00
   P4a SN4ah  1 4.300000e-01    2.920000e+00
   P3a SN4ah  1 4.300000e-01    2.920000e+00
   P2a SN4ah  1 4.300000e-01    2.920000e+00
   P1a SN4ah  1 4.300000e-01    2.930000e+00
   N6a SN4ah  1 4.300000e-01    3.160000e+00
   N5a SN4ah  1 4.300000e-01    2.930000e+00
   P6a SN5ah  1 4.300000e-01    2.920000e+00
   P5a SN5ah  1 4.300000e-01    2.920000e+00
   P4a SN5ah  1 4.300000e-01    2.920000e+00
   P3a SN5ah  1 4.300000e-01    2.920000e+00
   P2a SN5ah  1 4.300000e-01    2.930000e+00
   P1a SN5ah  1 4.300000e-01    2.930000e+00
   N6a SN5ah  1 4.300000e-01    3.160000e+00
   P6a SN6ah  1 4.300000e-01    3.160000e+00
   P5a SN6ah  1 4.300000e-01    2.930000e+00
   P4a SN6ah  1 4.300000e-01    2.930000e+00
   P3a SN6ah  1 4.300000e-01    2.930000e+00
   P2a SN6ah  1 4.300000e-01    3.160000e+00
   P1a SN6ah  1 4.300000e-01    3.160000e+00
   P6a SP1ah  1 4.300000e-01    3.380000e+00
   P5a SP1ah  1 4.300000e-01    3.160000e+00
   P4a SP1ah  1 4.300000e-01    3.160000e+00
   P3a SP1ah  1 4.300000e-01    3.160000e+00
   P2a SP1ah  1 4.300000e-01    3.160000e+00
   P6a SP2ah  1 4.300000e-01    3.590000e+00
   P5a SP2ah  1 4.300000e-01    3.380000e+00
   P4a SP2ah  1 4.300000e-01    3.380000e+00
   P3a SP2ah  1 4.300000e-01    3.380000e+00
   P6a SP3ah  1 4.300000e-01    3.590000e+00
   P5a SP3ah  1 4.300000e-01    3.380000e+00
   P4a SP3ah  1 4.300000e-01    3.380000e+00
   P6a SP4ah  1 4.300000e-01    3.770000e+00
   P5a SP4ah  1 4.300000e-01    3.590000e+00
   P6a SP5ah  1 4.300000e-01    3.970000e+00
  SP6a  P6ah  1 4.300000e-01    4.170000e+00
  SP5a  P5ah  1 4.300000e-01    3.770000e+00
  SP4a  P4ah  1 4.300000e-01    3.590000e+00
  SP3a  P3ah  1 4.300000e-01    3.380000e+00
  SP2a  P2ah  1 4.300000e-01    3.380000e+00
  SP1a  P1ah  1 4.300000e-01    3.160000e+00
  SN6a  N6ah  1 4.300000e-01    3.160000e+00
  SN5a  N5ah  1 4.300000e-01    2.930000e+00
  SN4a  N4ah  1 4.300000e-01    2.930000e+00
  SN3a  N3ah  1 4.300000e-01    2.920000e+00
  SN2a  N2ah  1 4.300000e-01    2.920000e+00
  SN1a  N1ah  1 4.300000e-01    2.920000e+00
  SP6a  N1ah  1 4.300000e-01    2.320000e+00
  SP5a  N1ah  1 4.300000e-01    2.320000e+00
  SP4a  N1ah  1 4.300000e-01    2.530000e+00
  SP3a  N1ah  1 4.300000e-01    2.770000e+00
  SP2a  N1ah  1 4.300000e-01    2.770000e+00
  SP1a  N1ah  1 4.300000e-01    2.770000e+00
  SN6a  N1ah  1 4.300000e-01    2.770000e+00
  SN5a  N1ah  1 4.300000e-01    2.770000e+00
  SN4a  N1ah  1 4.300000e-01    2.770000e+00
  SN3a  N1ah  1 4.300000e-01    2.770000e+00
  SN2a  N1ah  1 4.300000e-01    2.770000e+00
  SP6a  N2ah  1 4.300000e-01    2.530000e+00
  SP5a  N2ah  1 4.300000e-01    2.530000e+00
  SP4a  N2ah  1 4.300000e-01    2.770000e+00
  SP3a  N2ah  1 4.300000e-01    2.770000e+00
  SP2a  N2ah  1 4.300000e-01    2.770000e+00
  SP1a  N2ah  1 4.300000e-01    2.770000e+00
  SN6a  N2ah  1 4.300000e-01    2.770000e+00
  SN5a  N2ah  1 4.300000e-01    2.920000e+00
  SN4a  N2ah  1 4.300000e-01    2.920000e+00
  SN3a  N2ah  1 4.300000e-01    2.920000e+00
  SP6a  N3ah  1 4.300000e-01    2.770000e+00
  SP5a  N3ah  1 4.300000e-01    2.770000e+00
  SP4a  N3ah  1 4.300000e-01    2.770000e+00
  SP3a  N3ah  1 4.300000e-01    2.770000e+00
  SP2a  N3ah  1 4.300000e-01    2.770000e+00
  SP1a  N3ah  1 4.300000e-01    2.770000e+00
  SN6a  N3ah  1 4.300000e-01    2.920000e+00
  SN5a  N3ah  1 4.300000e-01    2.920000e+00
  SN4a  N3ah  1 4.300000e-01    2.920000e+00
  SP6a  N4ah  1 4.300000e-01    2.770000e+00
  SP5a  N4ah  1 4.300000e-01    2.920000e+00
  SP4a  N4ah  1 4.300000e-01    2.920000e+00
  SP3a  N4ah  1 4.300000e-01    2.920000e+00
  SP2a  N4ah  1 4.300000e-01    2.920000e+00
  SP1a  N4ah  1 4.300000e-01    2.930000e+00
  SN6a  N4ah  1 4.300000e-01    3.160000e+00
  SN5a  N4ah  1 4.300000e-01    2.930000e+00
  SP6a  N5ah  1 4.300000e-01    2.920000e+00
  SP5a  N5ah  1 4.300000e-01    2.920000e+00
  SP4a  N5ah  1 4.300000e-01    2.920000e+00
  SP3a  N5ah  1 4.300000e-01    2.920000e+00
  SP2a  N5ah  1 4.300000e-01    2.930000e+00
  SP1a  N5ah  1 4.300000e-01    2.930000e+00
  SN6a  N5ah  1 4.300000e-01    3.160000e+00
  SP6a  N6ah  1 4.300000e-01    3.160000e+00
  SP5a  N6ah  1 4.300000e-01    2.930000e+00
  SP4a  N6ah  1 4.300000e-01    2.930000e+00
  SP3a  N6ah  1 4.300000e-01    2.930000e+00
  SP2a  N6ah  1 4.300000e-01    3.160000e+00
  SP1a  N6ah  1 4.300000e-01    3.160000e+00
  SP6a  P1ah  1 4.300000e-01    3.380000e+00
  SP5a  P1ah  1 4.300000e-01    3.160000e+00
  SP4a  P1ah  1 4.300000e-01    3.160000e+00
  SP3a  P1ah  1 4.300000e-01    3.160000e+00
  SP2a  P1ah  1 4.300000e-01    3.160000e+00
  SP6a  P2ah  1 4.300000e-01    3.590000e+00
  SP5a  P2ah  1 4.300000e-01    3.380000e+00
  SP4a  P2ah  1 4.300000e-01    3.380000e+00
  SP3a  P2ah  1 4.300000e-01    3.380000e+00
  SP6a  P3ah  1 4.300000e-01    3.590000e+00
  SP5a  P3ah  1 4.300000e-01    3.380000e+00
  SP4a  P3ah  1 4.300000e-01    3.380000e+00
  SP6a  P4ah  1 4.300000e-01    3.770000e+00
  SP5a  P4ah  1 4.300000e-01    3.590000e+00
  SP6a  P5ah  1 4.300000e-01    3.970000e+00
   P6a SP6ar  1 4.300000e-01    4.170000e+00
   P5a SP5ar  1 4.300000e-01    3.770000e+00
   P4a SP4ar  1 4.300000e-01    3.590000e+00
   P3a SP3ar  1 4.300000e-01    3.380000e+00
   P2a SP2ar  1 4.300000e-01    3.380000e+00
   P1a SP1ar  1 4.300000e-01    3.160000e+00
   N6a SN6ar  1 4.300000e-01    3.160000e+00
   N5a SN5ar  1 4.300000e-01    2.930000e+00
   N4a SN4ar  1 4.300000e-01    2.930000e+00
   N3a SN3ar  1 4.300000e-01    2.920000e+00
   N2a SN2ar  1 4.300000e-01    2.920000e+00
   N1a SN1ar  1 4.300000e-01    2.920000e+00
   P6a SN1ar  1 4.300000e-01    2.320000e+00
   P5a SN1ar  1 4.300000e-01    2.320000e+00
   P4a SN1ar  1 4.300000e-01    2.530000e+00
   P3a SN1ar  1 4.300000e-01    2.770000e+00
   P2a SN1ar  1 4.300000e-01    2.770000e+00
   P1a SN1ar  1 4.300000e-01    2.770000e+00
   N6a SN1ar  1 4.300000e-01    2.770000e+00
   N5a SN1ar  1 4.300000e-01    2.770000e+00
   N4a SN1ar  1 4.300000e-01    2.770000e+00
   N3a SN1ar  1 4.300000e-01    2.770000e+00
   N2a SN1ar  1 4.300000e-01    2.770000e+00
   P6a SN2ar  1 4.300000e-01    2.530000e+00
   P5a SN2ar  1 4.300000e-01    2.530000e+00
   P4a SN2ar  1 4.300000e-01    2.770000e+00
   P3a SN2ar  1 4.300000e-01    2.770000e+00
   P2a SN2ar  1 4.300000e-01    2.770000e+00
   P1a SN2ar  1 4.300000e-01    2.770000e+00
   N6a SN2ar  1 4.300000e-01    2.770000e+00
   N5a SN2ar  1 4.300000e-01    2.920000e+00
   N4a SN2ar  1 4.300000e-01    2.920000e+00
   N3a SN2ar  1 4.300000e-01    2.920000e+00
   P6a SN3ar  1 4.300000e-01    2.770000e+00
   P5a SN3ar  1 4.300000e-01    2.770000e+00
   P4a SN3ar  1 4.300000e-01    2.770000e+00
   P3a SN3ar  1 4.300000e-01    2.770000e+00
   P2a SN3ar  1 4.300000e-01    2.770000e+00
   P1a SN3ar  1 4.300000e-01    2.770000e+00
   N6a SN3ar  1 4.300000e-01    2.920000e+00
   N5a SN3ar  1 4.300000e-01    2.920000e+00
   N4a SN3ar  1 4.300000e-01    2.920000e+00
   P6a SN4ar  1 4.300000e-01    2.770000e+00
   P5a SN4ar  1 4.300000e-01    2.920000e+00
   P4a SN4ar  1 4.300000e-01    2.920000e+00
   P3a SN4ar  1 4.300000e-01    2.920000e+00
   P2a SN4ar  1 4.300000e-01    2.920000e+00
   P1a SN4ar  1 4.300000e-01    2.930000e+00
   N6a SN4ar  1 4.300000e-01    3.160000e+00
   N5a SN4ar  1 4.300000e-01    2.930000e+00
   P6a SN5ar  1 4.300000e-01    2.920000e+00
   P5a SN5ar  1 4.300000e-01    2.920000e+00
   P4a SN5ar  1 4.300000e-01    2.920000e+00
   P3a SN5ar  1 4.300000e-01    2.920000e+00
   P2a SN5ar  1 4.300000e-01    2.930000e+00
   P1a SN5ar  1 4.300000e-01    2.930000e+00
   N6a SN5ar  1 4.300000e-01    3.160000e+00
   P6a SN6ar  1 4.300000e-01    3.160000e+00
   P5a SN6ar  1 4.300000e-01    2.930000e+00
   P4a SN6ar  1 4.300000e-01    2.930000e+00
   P3a SN6ar  1 4.300000e-01    2.930000e+00
   P2a SN6ar  1 4.300000e-01    3.160000e+00
   P1a SN6ar  1 4.300000e-01    3.160000e+00
   P6a SP1ar  1 4.300000e-01    3.380000e+00
   P5a SP1ar  1 4.300000e-01    3.160000e+00
   P4a SP1ar  1 4.300000e-01    3.160000e+00
   P3a SP1ar  1 4.300000e-01    3.160000e+00
   P2a SP1ar  1 4.300000e-01    3.160000e+00
   P6a SP2ar  1 4.300000e-01    3.590000e+00
   P5a SP2ar  1 4.300000e-01    3.380000e+00
   P4a SP2ar  1 4.300000e-01    3.380000e+00
   P3a SP2ar  1 4.300000e-01    3.380000e+00
   P6a SP3ar  1 4.300000e-01    3.590000e+00
   P5a SP3ar  1 4.300000e-01    3.380000e+00
   P4a SP3ar  1 4.300000e-01    3.380000e+00
   P6a SP4ar  1 4.300000e-01    3.770000e+00
   P5a SP4ar  1 4.300000e-01    3.590000e+00
   P6a SP5ar  1 4.300000e-01    3.970000e+00
  SP6a  P6ar  1 4.300000e-01    4.170000e+00
  SP5a  P5ar  1 4.300000e-01    3.770000e+00
  SP4a  P4ar  1 4.300000e-01    3.590000e+00
  SP3a  P3ar  1 4.300000e-01    3.380000e+00
  SP2a  P2ar  1 4.300000e-01    3.380000e+00
  SP1a  P1ar  1 4.300000e-01    3.160000e+00
  SN6a  N6ar  1 4.300000e-01    3.160000e+00
  SN5a  N5ar  1 4.300000e-01    2.930000e+00
  SN4a  N4ar  1 4.300000e-01    2.930000e+00
  SN3a  N3ar  1 4.300000e-01    2.920000e+00
  SN2a  N2ar  1 4.300000e-01    2.920000e+00
  SN1a  N1ar  1 4.300000e-01    2.920000e+00
  SP6a  N1ar  1 4.300000e-01    2.320000e+00
  SP5a  N1ar  1 4.300000e-01    2.320000e+00
  SP4a  N1ar  1 4.300000e-01    2.530000e+00
  SP3a  N1ar  1 4.300000e-01    2.770000e+00
  SP2a  N1ar  1 4.300000e-01    2.770000e+00
  SP1a  N1ar  1 4.300000e-01    2.770000e+00
  SN6a  N1ar  1 4.300000e-01    2.770000e+00
  SN5a  N1ar  1 4.300000e-01    2.770000e+00
  SN4a  N1ar  1 4.300000e-01    2.770000e+00
  SN3a  N1ar  1 4.300000e-01    2.770000e+00
  SN2a  N1ar  1 4.300000e-01    2.770000e+00
  SP6a  N2ar  1 4.300000e-01    2.530000e+00
  SP5a  N2ar  1 4.300000e-01    2.530000e+00
  SP4a  N2ar  1 4.300000e-01    2.770000e+00
  SP3a  N2ar  1 4.300000e-01    2.770000e+00
  SP2a  N2ar  1 4.300000e-01    2.770000e+00
  SP1a  N2ar  1 4.300000e-01    2.770000e+00
  SN6a  N2ar  1 4.300000e-01    2.770000e+00
  SN5a  N2ar  1 4.300000e-01    2.920000e+00
  SN4a  N2ar  1 4.300000e-01    2.920000e+00
  SN3a  N2ar  1 4.300000e-01    2.920000e+00
  SP6a  N3ar  1 4.300000e-01    2.770000e+00
  SP5a  N3ar  1 4.300000e-01    2.770000e+00
  SP4a  N3ar  1 4.300000e-01    2.770000e+00
  SP3a  N3ar  1 4.300000e-01    2.770000e+00
  SP2a  N3ar  1 4.300000e-01    2.770000e+00
  SP1a  N3ar  1 4.300000e-01    2.770000e+00
  SN6a  N3ar  1 4.300000e-01    2.920000e+00
  SN5a  N3ar  1 4.300000e-01    2.920000e+00
  SN4a  N3ar  1 4.300000e-01    2.920000e+00
  SP6a  N4ar  1 4.300000e-01    2.770000e+00
  SP5a  N4ar  1 4.300000e-01    2.920000e+00
  SP4a  N4ar  1 4.300000e-01    2.920000e+00
  SP3a  N4ar  1 4.300000e-01    2.920000e+00
  SP2a  N4ar  1 4.300000e-01    2.920000e+00
  SP1a  N4ar  1 4.300000e-01    2.930000e+00
  SN6a  N4ar  1 4.300000e-01    3.160000e+00
  SN5a  N4ar  1 4.300000e-01    2.930000e+00
  SP6a  N5ar  1 4.300000e-01    2.920000e+00
  SP5a  N5ar  1 4.300000e-01    2.920000e+00
  SP4a  N5ar  1 4.300000e-01    2.920000e+00
  SP3a  N5ar  1 4.300000e-01    2.920000e+00
  SP2a  N5ar  1 4.300000e-01    2.930000e+00
  SP1a  N5ar  1 4.300000e-01    2.930000e+00
  SN6a  N5ar  1 4.300000e-01    3.160000e+00
  SP6a  N6ar  1 4.300000e-01    3.160000e+00
  SP5a  N6ar  1 4.300000e-01    2.930000e+00
  SP4a  N6ar  1 4.300000e-01    2.930000e+00
  SP3a  N6ar  1 4.300000e-01    2.930000e+00
  SP2a  N6ar  1 4.300000e-01    3.160000e+00
  SP1a  N6ar  1 4.300000e-01    3.160000e+00
  SP6a  P1ar  1 4.300000e-01    3.380000e+00
  SP5a  P1ar  1 4.300000e-01    3.160000e+00
  SP4a  P1ar  1 4.300000e-01    3.160000e+00
  SP3a  P1ar  1 4.300000e-01    3.160000e+00
  SP2a  P1ar  1 4.300000e-01    3.160000e+00
  SP6a  P2ar  1 4.300000e-01    3.590000e+00
  SP5a  P2ar  1 4.300000e-01    3.380000e+00
  SP4a  P2ar  1 4.300000e-01    3.380000e+00
  SP3a  P2ar  1 4.300000e-01    3.380000e+00
  SP6a  P3ar  1 4.300000e-01    3.590000e+00
  SP5a  P3ar  1 4.300000e-01    3.380000e+00
  SP4a  P3ar  1 4.300000e-01    3.380000e+00
  SP6a  P4ar  1 4.300000e-01    3.770000e+00
  SP5a  P4ar  1 4.300000e-01    3.590000e+00
  SP6a  P5ar  1 4.300000e-01    3.970000e+00
  P6aq  SP5a  1 4.300000e-01    4.400000e+00
  P6aq  SP4a  1 4.300000e-01    4.170000e+00
  P6aq  SP3a  1 4.300000e-01    3.970000e+00
  P6aq  SP2a  1 4.300000e-01    3.970000e+00
  P6aq  SP1a  1 4.300000e-01    3.770000e+00
  P6aq  SN6a  1 4.300000e-01    3.590000e+00
  P6aq  SN5a  1 4.300000e-01    3.160000e+00
  P6aq  SN4a  1 4.300000e-01    2.930000e+00
  P6aq  SN3a  1 4.300000e-01    2.930000e+00
  P6aq  SN2a  1 4.300000e-01    2.920000e+00
  P6aq  SN1a  1 4.300000e-01    2.770000e+00
  P5aq  SP4a  1 4.300000e-01    3.970000e+00
  P5aq  SP3a  1 4.300000e-01    3.770000e+00
  P5aq  SP2a  1 4.300000e-01    3.770000e+00
  P5aq  SP1a  1 4.300000e-01    3.590000e+00
  P5aq  SN6a  1 4.300000e-01    3.380000e+00
  P5aq  SN5a  1 4.300000e-01    3.160000e+00
  P5aq  SN4a  1 4.300000e-01    3.160000e+00
  P5aq  SN3a  1 4.300000e-01    2.930000e+00
  P5aq  SN2a  1 4.300000e-01    2.920000e+00
  P5aq  SN1a  1 4.300000e-01    2.770000e+00
  P4aq  SP3a  1 4.300000e-01    3.770000e+00
  P4aq  SP2a  1 4.300000e-01    3.770000e+00
  P4aq  SP1a  1 4.300000e-01    3.590000e+00
  P4aq  SN6a  1 4.300000e-01    3.380000e+00
  P4aq  SN5a  1 4.300000e-01    3.160000e+00
  P4aq  SN4a  1 4.300000e-01    3.160000e+00
  P4aq  SN3a  1 4.300000e-01    2.930000e+00
  P4aq  SN2a  1 4.300000e-01    2.930000e+00
  P4aq  SN1a  1 4.300000e-01    2.920000e+00
  P3aq  SP2a  1 4.300000e-01    3.770000e+00
  P3aq  SP1a  1 4.300000e-01    3.590000e+00
  P3aq  SN6a  1 4.300000e-01    3.380000e+00
  P3aq  SN5a  1 4.300000e-01    3.160000e+00
  P3aq  SN4a  1 4.300000e-01    3.160000e+00
  P3aq  SN3a  1 4.300000e-01    2.930000e+00
  P3aq  SN2a  1 4.300000e-01    2.930000e+00
  P3aq  SN1a  1 4.300000e-01    2.930000e+00
  P2aq  SP1a  1 4.300000e-01    3.590000e+00
  P2aq  SN6a  1 4.300000e-01    3.590000e+00
  P2aq  SN5a  1 4.300000e-01    3.380000e+00
  P2aq  SN4a  1 4.300000e-01    3.160000e+00
  P2aq  SN3a  1 4.300000e-01    2.930000e+00
  P2aq  SN2a  1 4.300000e-01    2.930000e+00
  P2aq  SN1a  1 4.300000e-01    2.930000e+00
  P1aq  SN6a  1 4.300000e-01    3.590000e+00
  P1aq  SN5a  1 4.300000e-01    3.380000e+00
  P1aq  SN4a  1 4.300000e-01    3.380000e+00
  P1aq  SN3a  1 4.300000e-01    2.930000e+00
  P1aq  SN2a  1 4.300000e-01    2.930000e+00
  P1aq  SN1a  1 4.300000e-01    2.930000e+00
  N6aq  SN5a  1 4.300000e-01    3.590000e+00
  N6aq  SN4a  1 4.300000e-01    3.590000e+00
  N6aq  SN3a  1 4.300000e-01    3.160000e+00
  N6aq  SN2a  1 4.300000e-01    2.930000e+00
  N6aq  SN1a  1 4.300000e-01    2.930000e+00
  N5aq  SN4a  1 4.300000e-01    3.380000e+00
  N5aq  SN3a  1 4.300000e-01    3.160000e+00
  N5aq  SN2a  1 4.300000e-01    3.160000e+00
  N5aq  SN1a  1 4.300000e-01    2.930000e+00
  N4aq  SN3a  1 4.300000e-01    3.160000e+00
  N4aq  SN2a  1 4.300000e-01    3.160000e+00
  N4aq  SN1a  1 4.300000e-01    2.930000e+00
  N3aq  SN2a  1 4.300000e-01    3.160000e+00
  N3aq  SN1a  1 4.300000e-01    2.930000e+00
  N2aq  SN1a  1 4.300000e-01    2.930000e+00
 SP6aq   P5a  1 4.300000e-01    4.400000e+00
 SP6aq   P4a  1 4.300000e-01    4.170000e+00
 SP6aq   P3a  1 4.300000e-01    3.970000e+00
 SP6aq   P2a  1 4.300000e-01    3.970000e+00
 SP6aq   P1a  1 4.300000e-01    3.770000e+00
 SP6aq   N6a  1 4.300000e-01    3.590000e+00
 SP6aq   N5a  1 4.300000e-01    3.160000e+00
 SP6aq   N4a  1 4.300000e-01    2.930000e+00
 SP6aq   N3a  1 4.300000e-01    2.930000e+00
 SP6aq   N2a  1 4.300000e-01    2.920000e+00
 SP6aq   N1a  1 4.300000e-01    2.770000e+00
 SP5aq   P4a  1 4.300000e-01    3.970000e+00
 SP5aq   P3a  1 4.300000e-01    3.770000e+00
 SP5aq   P2a  1 4.300000e-01    3.770000e+00
 SP5aq   P1a  1 4.300000e-01    3.590000e+00
 SP5aq   N6a  1 4.300000e-01    3.380000e+00
 SP5aq   N5a  1 4.300000e-01    3.160000e+00
 SP5aq   N4a  1 4.300000e-01    3.160000e+00
 SP5aq   N3a  1 4.300000e-01    2.930000e+00
 SP5aq   N2a  1 4.300000e-01    2.920000e+00
 SP5aq   N1a  1 4.300000e-01    2.770000e+00
 SP4aq   P3a  1 4.300000e-01    3.770000e+00
 SP4aq   P2a  1 4.300000e-01    3.770000e+00
 SP4aq   P1a  1 4.300000e-01    3.590000e+00
 SP4aq   N6a  1 4.300000e-01    3.380000e+00
 SP4aq   N5a  1 4.300000e-01    3.160000e+00
 SP4aq   N4a  1 4.300000e-01    3.160000e+00
 SP4aq   N3a  1 4.300000e-01    2.930000e+00
 SP4aq   N2a  1 4.300000e-01    2.930000e+00
 SP4aq   N1a  1 4.300000e-01    2.920000e+00
 SP3aq   P2a  1 4.300000e-01    3.770000e+00
 SP3aq   P1a  1 4.300000e-01    3.590000e+00
 SP3aq   N6a  1 4.300000e-01    3.380000e+00
 SP3aq   N5a  1 4.300000e-01    3.160000e+00
 SP3aq   N4a  1 4.300000e-01    3.160000e+00
 SP3aq   N3a  1 4.300000e-01    2.930000e+00
 SP3aq   N2a  1 4.300000e-01    2.930000e+00
 SP3aq   N1a  1 4.300000e-01    2.930000e+00
 SP2aq   P1a  1 4.300000e-01    3.590000e+00
 SP2aq   N6a  1 4.300000e-01    3.590000e+00
 SP2aq   N5a  1 4.300000e-01    3.380000e+00
 SP2aq   N4a  1 4.300000e-01    3.160000e+00
 SP2aq   N3a  1 4.300000e-01    2.930000e+00
 SP2aq   N2a  1 4.300000e-01    2.930000e+00
 SP2aq   N1a  1 4.300000e-01    2.930000e+00
 SP1aq   N6a  1 4.300000e-01    3.590000e+00
 SP1aq   N5a  1 4.300000e-01    3.380000e+00
 SP1aq   N4a  1 4.300000e-01    3.380000e+00
 SP1aq   N3a  1 4.300000e-01    2.930000e+00
 SP1aq   N2a  1 4.300000e-01    2.930000e+00
 SP1aq   N1a  1 4.300000e-01    2.930000e+00
 SN6aq   N5a  1 4.300000e-01    3.590000e+00
 SN6aq   N4a  1 4.300000e-01    3.590000e+00
 SN6aq   N3a  1 4.300000e-01    3.160000e+00
 SN6aq   N2a  1 4.300000e-01    2.930000e+00
 SN6aq   N1a  1 4.300000e-01    2.930000e+00
 SN5aq   N4a  1 4.300000e-01    3.380000e+00
 SN5aq   N3a  1 4.300000e-01    3.160000e+00
 SN5aq   N2a  1 4.300000e-01    3.160000e+00
 SN5aq   N1a  1 4.300000e-01    2.930000e+00
 SN4aq   N3a  1 4.300000e-01    3.160000e+00
 SN4aq   N2a  1 4.300000e-01    3.160000e+00
 SN4aq   N1a  1 4.300000e-01    2.930000e+00
 SN3aq   N2a  1 4.300000e-01    3.160000e+00
 SN3aq   N1a  1 4.300000e-01    2.930000e+00
 SN2aq   N1a  1 4.300000e-01    2.930000e+00
  P6aq SP6aq  1 4.300000e-01    4.680000e+00
  P6aq SP5aq  1 4.300000e-01    4.400000e+00
  P6aq SP4aq  1 4.300000e-01    4.170000e+00
  P6aq SP3aq  1 4.300000e-01    3.970000e+00
  P6aq SP2aq  1 4.300000e-01    3.970000e+00
  P6aq SP1aq  1 4.300000e-01    3.770000e+00
  P6aq SN6aq  1 4.300000e-01    3.590000e+00
  P6aq SN5aq  1 4.300000e-01    3.160000e+00
  P6aq SN4aq  1 4.300000e-01    2.930000e+00
  P6aq SN3aq  1 4.300000e-01    2.930000e+00
  P6aq SN2aq  1 4.300000e-01    2.920000e+00
  P6aq SN1aq  1 4.300000e-01    2.770000e+00
  P5aq SP5aq  1 4.300000e-01    4.170000e+00
  P5aq SP4aq  1 4.300000e-01    3.970000e+00
  P5aq SP3aq  1 4.300000e-01    3.770000e+00
  P5aq SP2aq  1 4.300000e-01    3.770000e+00
  P5aq SP1aq  1 4.300000e-01    3.590000e+00
  P5aq SN6aq  1 4.300000e-01    3.380000e+00
  P5aq SN5aq  1 4.300000e-01    3.160000e+00
  P5aq SN4aq  1 4.300000e-01    3.160000e+00
  P5aq SN3aq  1 4.300000e-01    2.930000e+00
  P5aq SN2aq  1 4.300000e-01    2.920000e+00
  P5aq SN1aq  1 4.300000e-01    2.770000e+00
  P4aq SP4aq  1 4.300000e-01    3.970000e+00
  P4aq SP3aq  1 4.300000e-01    3.770000e+00
  P4aq SP2aq  1 4.300000e-01    3.770000e+00
  P4aq SP1aq  1 4.300000e-01    3.590000e+00
  P4aq SN6aq  1 4.300000e-01    3.380000e+00
  P4aq SN5aq  1 4.300000e-01    3.160000e+00
  P4aq SN4aq  1 4.300000e-01    3.160000e+00
  P4aq SN3aq  1 4.300000e-01    2.930000e+00
  P4aq SN2aq  1 4.300000e-01    2.930000e+00
  P4aq SN1aq  1 4.300000e-01    2.920000e+00
  P3aq SP3aq  1 4.300000e-01    3.770000e+00
  P3aq SP2aq  1 4.300000e-01    3.770000e+00
  P3aq SP1aq  1 4.300000e-01    3.590000e+00
  P3aq SN6aq  1 4.300000e-01    3.380000e+00
  P3aq SN5aq  1 4.300000e-01    3.160000e+00
  P3aq SN4aq  1 4.300000e-01    3.160000e+00
  P3aq SN3aq  1 4.300000e-01    2.930000e+00
  P3aq SN2aq  1 4.300000e-01    2.930000e+00
  P3aq SN1aq  1 4.300000e-01    2.930000e+00
  P2aq SP2aq  1 4.300000e-01    3.770000e+00
  P2aq SP1aq  1 4.300000e-01    3.590000e+00
  P2aq SN6aq  1 4.300000e-01    3.590000e+00
  P2aq SN5aq  1 4.300000e-01    3.380000e+00
  P2aq SN4aq  1 4.300000e-01    3.160000e+00
  P2aq SN3aq  1 4.300000e-01    2.930000e+00
  P2aq SN2aq  1 4.300000e-01    2.930000e+00
  P2aq SN1aq  1 4.300000e-01    2.930000e+00
  P1aq SP1aq  1 4.300000e-01    3.590000e+00
  P1aq SN6aq  1 4.300000e-01    3.590000e+00
  P1aq SN5aq  1 4.300000e-01    3.380000e+00
  P1aq SN4aq  1 4.300000e-01    3.380000e+00
  P1aq SN3aq  1 4.300000e-01    2.930000e+00
  P1aq SN2aq  1 4.300000e-01    2.930000e+00
  P1aq SN1aq  1 4.300000e-01    2.930000e+00
  N6aq SN6aq  1 4.300000e-01    3.590000e+00
  N6aq SN5aq  1 4.300000e-01    3.590000e+00
  N6aq SN4aq  1 4.300000e-01    3.590000e+00
  N6aq SN3aq  1 4.300000e-01    3.160000e+00
  N6aq SN2aq  1 4.300000e-01    2.930000e+00
  N6aq SN1aq  1 4.300000e-01    2.930000e+00
  N5aq SN5aq  1 4.300000e-01    3.380000e+00
  N5aq SN4aq  1 4.300000e-01    3.380000e+00
  N5aq SN3aq  1 4.300000e-01    3.160000e+00
  N5aq SN2aq  1 4.300000e-01    3.160000e+00
  N5aq SN1aq  1 4.300000e-01    2.930000e+00
  N4aq SN4aq  1 4.300000e-01    3.380000e+00
  N4aq SN3aq  1 4.300000e-01    3.160000e+00
  N4aq SN2aq  1 4.300000e-01    3.160000e+00
  N4aq SN1aq  1 4.300000e-01    2.930000e+00
  N3aq SN3aq  1 4.300000e-01    3.160000e+00
  N3aq SN2aq  1 4.300000e-01    3.160000e+00
  N3aq SN1aq  1 4.300000e-01    2.930000e+00
  N2aq SN2aq  1 4.300000e-01    3.160000e+00
  N2aq SN1aq  1 4.300000e-01    2.930000e+00
  N1aq SN1aq  1 4.300000e-01    3.160000e+00
 SP6aq  P5aq  1 4.300000e-01    4.400000e+00
 SP6aq  P4aq  1 4.300000e-01    4.170000e+00
 SP6aq  P3aq  1 4.300000e-01    3.970000e+00
 SP6aq  P2aq  1 4.300000e-01    3.970000e+00
 SP6aq  P1aq  1 4.300000e-01    3.770000e+00
 SP6aq  N6aq  1 4.300000e-01    3.590000e+00
 SP6aq  N5aq  1 4.300000e-01    3.160000e+00
 SP6aq  N4aq  1 4.300000e-01    2.930000e+00
 SP6aq  N3aq  1 4.300000e-01    2.930000e+00
 SP6aq  N2aq  1 4.300000e-01    2.920000e+00
 SP6aq  N1aq  1 4.300000e-01    2.770000e+00
 SP5aq  P4aq  1 4.300000e-01    3.970000e+00
 SP5aq  P3aq  1 4.300000e-01    3.770000e+00
 SP5aq  P2aq  1 4.300000e-01    3.770000e+00
 SP5aq  P1aq  1 4.300000e-01    3.590000e+00
 SP5aq  N6aq  1 4.300000e-01    3.380000e+00
 SP5aq  N5aq  1 4.300000e-01    3.160000e+00
 SP5aq  N4aq  1 4.300000e-01    3.160000e+00
 SP5aq  N3aq  1 4.300000e-01    2.930000e+00
 SP5aq  N2aq  1 4.300000e-01    2.920000e+00
 SP5aq  N1aq  1 4.300000e-01    2.770000e+00
 SP4aq  P3aq  1 4.300000e-01    3.770000e+00
 SP4aq  P2aq  1 4.300000e-01    3.770000e+00
 SP4aq  P1aq  1 4.300000e-01    3.590000e+00
 SP4aq  N6aq  1 4.300000e-01    3.380000e+00
 SP4aq  N5aq  1 4.300000e-01    3.160000e+00
 SP4aq  N4aq  1 4.300000e-01    3.160000e+00
 SP4aq  N3aq  1 4.300000e-01    2.930000e+00
 SP4aq  N2aq  1 4.300000e-01    2.930000e+00
 SP4aq  N1aq  1 4.300000e-01    2.920000e+00
 SP3aq  P2aq  1 4.300000e-01    3.770000e+00
 SP3aq  P1aq  1 4.300000e-01    3.590000e+00
 SP3aq  N6aq  1 4.300000e-01    3.380000e+00
 SP3aq  N5aq  1 4.300000e-01    3.160000e+00
 SP3aq  N4aq  1 4.300000e-01    3.160000e+00
 SP3aq  N3aq  1 4.300000e-01    2.930000e+00
 SP3aq  N2aq  1 4.300000e-01    2.930000e+00
 SP3aq  N1aq  1 4.300000e-01    2.930000e+00
 SP2aq  P1aq  1 4.300000e-01    3.590000e+00
 SP2aq  N6aq  1 4.300000e-01    3.590000e+00
 SP2aq  N5aq  1 4.300000e-01    3.380000e+00
 SP2aq  N4aq  1 4.300000e-01    3.160000e+00
 SP2aq  N3aq  1 4.300000e-01    2.930000e+00
 SP2aq  N2aq  1 4.300000e-01    2.930000e+00
 SP2aq  N1aq  1 4.300000e-01    2.930000e+00
 SP1aq  N6aq  1 4.300000e-01    3.590000e+00
 SP1aq  N5aq  1 4.300000e-01    3.380000e+00
 SP1aq  N4aq  1 4.300000e-01    3.380000e+00
 SP1aq  N3aq  1 4.300000e-01    2.930000e+00
 SP1aq  N2aq  1 4.300000e-01    2.930000e+00
 SP1aq  N1aq  1 4.300000e-01    2.930000e+00
 SN6aq  N5aq  1 4.300000e-01    3.590000e+00
 SN6aq  N4aq  1 4.300000e-01    3.590000e+00
 SN6aq  N3aq  1 4.300000e-01    3.160000e+00
 SN6aq  N2aq  1 4.300000e-01    2.930000e+00
 SN6aq  N1aq  1 4.300000e-01    2.930000e+00
 SN5aq  N4aq  1 4.300000e-01    3.380000e+00
 SN5aq  N3aq  1 4.300000e-01    3.160000e+00
 SN5aq  N2aq  1 4.300000e-01    3.160000e+00
 SN5aq  N1aq  1 4.300000e-01    2.930000e+00
 SN4aq  N3aq  1 4.300000e-01    3.160000e+00
 SN4aq  N2aq  1 4.300000e-01    3.160000e+00
 SN4aq  N1aq  1 4.300000e-01    2.930000e+00
 SN3aq  N2aq  1 4.300000e-01    3.160000e+00
 SN3aq  N1aq  1 4.300000e-01    2.930000e+00
 SN2aq  N1aq  1 4.300000e-01    2.930000e+00
  P6aq SP5ah  1 4.300000e-01    4.400000e+00
  P6aq SP4ah  1 4.300000e-01    4.170000e+00
  P5aq SP4ah  1 4.300000e-01    3.970000e+00
  P6aq SP3ah  1 4.300000e-01    3.970000e+00
  P5aq SP3ah  1 4.300000e-01    3.770000e+00
  P4aq SP3ah  1 4.300000e-01    3.770000e+00
  P6aq SP2ah  1 4.300000e-01    3.970000e+00
  P5aq SP2ah  1 4.300000e-01    3.770000e+00
  P4aq SP2ah  1 4.300000e-01    3.770000e+00
  P3aq SP2ah  1 4.300000e-01    3.770000e+00
  P6aq SP1ah  1 4.300000e-01    3.770000e+00
  P5aq SP1ah  1 4.300000e-01    3.590000e+00
  P4aq SP1ah  1 4.300000e-01    3.590000e+00
  P3aq SP1ah  1 4.300000e-01    3.590000e+00
  P2aq SP1ah  1 4.300000e-01    3.590000e+00
  P6aq SN6ah  1 4.300000e-01    3.590000e+00
  P5aq SN6ah  1 4.300000e-01    3.380000e+00
  P4aq SN6ah  1 4.300000e-01    3.380000e+00
  P3aq SN6ah  1 4.300000e-01    3.380000e+00
  P2aq SN6ah  1 4.300000e-01    3.590000e+00
  P1aq SN6ah  1 4.300000e-01    3.590000e+00
  P6aq SN5ah  1 4.300000e-01    3.160000e+00
  P5aq SN5ah  1 4.300000e-01    3.160000e+00
  P4aq SN5ah  1 4.300000e-01    3.160000e+00
  P3aq SN5ah  1 4.300000e-01    3.160000e+00
  P2aq SN5ah  1 4.300000e-01    3.380000e+00
  P1aq SN5ah  1 4.300000e-01    3.380000e+00
  N6aq SN5ah  1 4.300000e-01    3.590000e+00
  P6aq SN4ah  1 4.300000e-01    2.930000e+00
  P5aq SN4ah  1 4.300000e-01    3.160000e+00
  P4aq SN4ah  1 4.300000e-01    3.160000e+00
  P3aq SN4ah  1 4.300000e-01    3.160000e+00
  P2aq SN4ah  1 4.300000e-01    3.160000e+00
  P1aq SN4ah  1 4.300000e-01    3.380000e+00
  N6aq SN4ah  1 4.300000e-01    3.590000e+00
  N5aq SN4ah  1 4.300000e-01    3.380000e+00
  P6aq SN3ah  1 4.300000e-01    2.930000e+00
  P5aq SN3ah  1 4.300000e-01    2.930000e+00
  P4aq SN3ah  1 4.300000e-01    2.930000e+00
  P3aq SN3ah  1 4.300000e-01    2.930000e+00
  P2aq SN3ah  1 4.300000e-01    2.930000e+00
  P1aq SN3ah  1 4.300000e-01    2.930000e+00
  N6aq SN3ah  1 4.300000e-01    3.160000e+00
  N5aq SN3ah  1 4.300000e-01    3.160000e+00
  N4aq SN3ah  1 4.300000e-01    3.160000e+00
  P6aq SN2ah  1 4.300000e-01    2.920000e+00
  P5aq SN2ah  1 4.300000e-01    2.920000e+00
  P4aq SN2ah  1 4.300000e-01    2.930000e+00
  P3aq SN2ah  1 4.300000e-01    2.930000e+00
  P2aq SN2ah  1 4.300000e-01    2.930000e+00
  P1aq SN2ah  1 4.300000e-01    2.930000e+00
  N6aq SN2ah  1 4.300000e-01    2.930000e+00
  N5aq SN2ah  1 4.300000e-01    3.160000e+00
  N4aq SN2ah  1 4.300000e-01    3.160000e+00
  N3aq SN2ah  1 4.300000e-01    3.160000e+00
  P6aq SN1ah  1 4.300000e-01    2.770000e+00
  P5aq SN1ah  1 4.300000e-01    2.770000e+00
  P4aq SN1ah  1 4.300000e-01    2.920000e+00
  P3aq SN1ah  1 4.300000e-01    2.930000e+00
  P2aq SN1ah  1 4.300000e-01    2.930000e+00
  P1aq SN1ah  1 4.300000e-01    2.930000e+00
  N6aq SN1ah  1 4.300000e-01    2.930000e+00
  N5aq SN1ah  1 4.300000e-01    2.930000e+00
  N4aq SN1ah  1 4.300000e-01    2.930000e+00
  N3aq SN1ah  1 4.300000e-01    2.930000e+00
  N2aq SN1ah  1 4.300000e-01    2.930000e+00
 SP6aq  P5ah  1 4.300000e-01    4.400000e+00
 SP6aq  P4ah  1 4.300000e-01    4.170000e+00
 SP5aq  P4ah  1 4.300000e-01    3.970000e+00
 SP6aq  P3ah  1 4.300000e-01    3.970000e+00
 SP5aq  P3ah  1 4.300000e-01    3.770000e+00
 SP4aq  P3ah  1 4.300000e-01    3.770000e+00
 SP6aq  P2ah  1 4.300000e-01    3.970000e+00
 SP5aq  P2ah  1 4.300000e-01    3.770000e+00
 SP4aq  P2ah  1 4.300000e-01    3.770000e+00
 SP3aq  P2ah  1 4.300000e-01    3.770000e+00
 SP6aq  P1ah  1 4.300000e-01    3.770000e+00
 SP5aq  P1ah  1 4.300000e-01    3.590000e+00
 SP4aq  P1ah  1 4.300000e-01    3.590000e+00
 SP3aq  P1ah  1 4.300000e-01    3.590000e+00
 SP2aq  P1ah  1 4.300000e-01    3.590000e+00
 SP6aq  N6ah  1 4.300000e-01    3.590000e+00
 SP5aq  N6ah  1 4.300000e-01    3.380000e+00
 SP4aq  N6ah  1 4.300000e-01    3.380000e+00
 SP3aq  N6ah  1 4.300000e-01    3.380000e+00
 SP2aq  N6ah  1 4.300000e-01    3.590000e+00
 SP1aq  N6ah  1 4.300000e-01    3.590000e+00
 SP6aq  N5ah  1 4.300000e-01    3.160000e+00
 SP5aq  N5ah  1 4.300000e-01    3.160000e+00
 SP4aq  N5ah  1 4.300000e-01    3.160000e+00
 SP3aq  N5ah  1 4.300000e-01    3.160000e+00
 SP2aq  N5ah  1 4.300000e-01    3.380000e+00
 SP1aq  N5ah  1 4.300000e-01    3.380000e+00
 SN6aq  N5ah  1 4.300000e-01    3.590000e+00
 SP6aq  N4ah  1 4.300000e-01    2.930000e+00
 SP5aq  N4ah  1 4.300000e-01    3.160000e+00
 SP4aq  N4ah  1 4.300000e-01    3.160000e+00
 SP3aq  N4ah  1 4.300000e-01    3.160000e+00
 SP2aq  N4ah  1 4.300000e-01    3.160000e+00
 SP1aq  N4ah  1 4.300000e-01    3.380000e+00
 SN6aq  N4ah  1 4.300000e-01    3.590000e+00
 SN5aq  N4ah  1 4.300000e-01    3.380000e+00
 SP6aq  N3ah  1 4.300000e-01    2.930000e+00
 SP5aq  N3ah  1 4.300000e-01    2.930000e+00
 SP4aq  N3ah  1 4.300000e-01    2.930000e+00
 SP3aq  N3ah  1 4.300000e-01    2.930000e+00
 SP2aq  N3ah  1 4.300000e-01    2.930000e+00
 SP1aq  N3ah  1 4.300000e-01    2.930000e+00
 SN6aq  N3ah  1 4.300000e-01    3.160000e+00
 SN5aq  N3ah  1 4.300000e-01    3.160000e+00
 SN4aq  N3ah  1 4.300000e-01    3.160000e+00
 SP6aq  N2ah  1 4.300000e-01    2.920000e+00
 SP5aq  N2ah  1 4.300000e-01    2.920000e+00
 SP4aq  N2ah  1 4.300000e-01    2.930000e+00
 SP3aq  N2ah  1 4.300000e-01    2.930000e+00
 SP2aq  N2ah  1 4.300000e-01    2.930000e+00
 SP1aq  N2ah  1 4.300000e-01    2.930000e+00
 SN6aq  N2ah  1 4.300000e-01    2.930000e+00
 SN5aq  N2ah  1 4.300000e-01    3.160000e+00
 SN4aq  N2ah  1 4.300000e-01    3.160000e+00
 SN3aq  N2ah  1 4.300000e-01    3.160000e+00
 SP6aq  N1ah  1 4.300000e-01    2.770000e+00
 SP5aq  N1ah  1 4.300000e-01    2.770000e+00
 SP4aq  N1ah  1 4.300000e-01    2.920000e+00
 SP3aq  N1ah  1 4.300000e-01    2.930000e+00
 SP2aq  N1ah  1 4.300000e-01    2.930000e+00
 SP1aq  N1ah  1 4.300000e-01    2.930000e+00
 SN6aq  N1ah  1 4.300000e-01    2.930000e+00
 SN5aq  N1ah  1 4.300000e-01    2.930000e+00
 SN4aq  N1ah  1 4.300000e-01    2.930000e+00
 SN3aq  N1ah  1 4.300000e-01    2.930000e+00
 SN2aq  N1ah  1 4.300000e-01    2.930000e+00
  P6aq SP5ar  1 4.300000e-01    4.400000e+00
  P6aq SP4ar  1 4.300000e-01    4.170000e+00
  P5aq SP4ar  1 4.300000e-01    3.970000e+00
  P6aq SP3ar  1 4.300000e-01    3.970000e+00
  P5aq SP3ar  1 4.300000e-01    3.770000e+00
  P4aq SP3ar  1 4.300000e-01    3.770000e+00
  P6aq SP2ar  1 4.300000e-01    3.970000e+00
  P5aq SP2ar  1 4.300000e-01    3.770000e+00
  P4aq SP2ar  1 4.300000e-01    3.770000e+00
  P3aq SP2ar  1 4.300000e-01    3.770000e+00
  P6aq SP1ar  1 4.300000e-01    3.770000e+00
  P5aq SP1ar  1 4.300000e-01    3.590000e+00
  P4aq SP1ar  1 4.300000e-01    3.590000e+00
  P3aq SP1ar  1 4.300000e-01    3.590000e+00
  P2aq SP1ar  1 4.300000e-01    3.590000e+00
  P6aq SN6ar  1 4.300000e-01    3.590000e+00
  P5aq SN6ar  1 4.300000e-01    3.380000e+00
  P4aq SN6ar  1 4.300000e-01    3.380000e+00
  P3aq SN6ar  1 4.300000e-01    3.380000e+00
  P2aq SN6ar  1 4.300000e-01    3.590000e+00
  P1aq SN6ar  1 4.300000e-01    3.590000e+00
  P6aq SN5ar  1 4.300000e-01    3.160000e+00
  P5aq SN5ar  1 4.300000e-01    3.160000e+00
  P4aq SN5ar  1 4.300000e-01    3.160000e+00
  P3aq SN5ar  1 4.300000e-01    3.160000e+00
  P2aq SN5ar  1 4.300000e-01    3.380000e+00
  P1aq SN5ar  1 4.300000e-01    3.380000e+00
  N6aq SN5ar  1 4.300000e-01    3.590000e+00
  P6aq SN4ar  1 4.300000e-01    2.930000e+00
  P5aq SN4ar  1 4.300000e-01    3.160000e+00
  P4aq SN4ar  1 4.300000e-01    3.160000e+00
  P3aq SN4ar  1 4.300000e-01    3.160000e+00
  P2aq SN4ar  1 4.300000e-01    3.160000e+00
  P1aq SN4ar  1 4.300000e-01    3.380000e+00
  N6aq SN4ar  1 4.300000e-01    3.590000e+00
  N5aq SN4ar  1 4.300000e-01    3.380000e+00
  P6aq SN3ar  1 4.300000e-01    2.930000e+00
  P5aq SN3ar  1 4.300000e-01    2.930000e+00
  P4aq SN3ar  1 4.300000e-01    2.930000e+00
  P3aq SN3ar  1 4.300000e-01    2.930000e+00
  P2aq SN3ar  1 4.300000e-01    2.930000e+00
  P1aq SN3ar  1 4.300000e-01    2.930000e+00
  N6aq SN3ar  1 4.300000e-01    3.160000e+00
  N5aq SN3ar  1 4.300000e-01    3.160000e+00
  N4aq SN3ar  1 4.300000e-01    3.160000e+00
  P6aq SN2ar  1 4.300000e-01    2.920000e+00
  P5aq SN2ar  1 4.300000e-01    2.920000e+00
  P4aq SN2ar  1 4.300000e-01    2.930000e+00
  P3aq SN2ar  1 4.300000e-01    2.930000e+00
  P2aq SN2ar  1 4.300000e-01    2.930000e+00
  P1aq SN2ar  1 4.300000e-01    2.930000e+00
  N6aq SN2ar  1 4.300000e-01    2.930000e+00
  N5aq SN2ar  1 4.300000e-01    3.160000e+00
  N4aq SN2ar  1 4.300000e-01    3.160000e+00
  N3aq SN2ar  1 4.300000e-01    3.160000e+00
  P6aq SN1ar  1 4.300000e-01    2.770000e+00
  P5aq SN1ar  1 4.300000e-01    2.770000e+00
  P4aq SN1ar  1 4.300000e-01    2.920000e+00
  P3aq SN1ar  1 4.300000e-01    2.930000e+00
  P2aq SN1ar  1 4.300000e-01    2.930000e+00
  P1aq SN1ar  1 4.300000e-01    2.930000e+00
  N6aq SN1ar  1 4.300000e-01    2.930000e+00
  N5aq SN1ar  1 4.300000e-01    2.930000e+00
  N4aq SN1ar  1 4.300000e-01    2.930000e+00
  N3aq SN1ar  1 4.300000e-01    2.930000e+00
  N2aq SN1ar  1 4.300000e-01    2.930000e+00
 SP6aq  P5ar  1 4.300000e-01    4.400000e+00
 SP6aq  P4ar  1 4.300000e-01    4.170000e+00
 SP5aq  P4ar  1 4.300000e-01    3.970000e+00
 SP6aq  P3ar  1 4.300000e-01    3.970000e+00
 SP5aq  P3ar  1 4.300000e-01    3.770000e+00
 SP4aq  P3ar  1 4.300000e-01    3.770000e+00
 SP6aq  P2ar  1 4.300000e-01    3.970000e+00
 SP5aq  P2ar  1 4.300000e-01    3.770000e+00
 SP4aq  P2ar  1 4.300000e-01    3.770000e+00
 SP3aq  P2ar  1 4.300000e-01    3.770000e+00
 SP6aq  P1ar  1 4.300000e-01    3.770000e+00
 SP5aq  P1ar  1 4.300000e-01    3.590000e+00
 SP4aq  P1ar  1 4.300000e-01    3.590000e+00
 SP3aq  P1ar  1 4.300000e-01    3.590000e+00
 SP2aq  P1ar  1 4.300000e-01    3.590000e+00
 SP6aq  N6ar  1 4.300000e-01    3.590000e+00
 SP5aq  N6ar  1 4.300000e-01    3.380000e+00
 SP4aq  N6ar  1 4.300000e-01    3.380000e+00
 SP3aq  N6ar  1 4.300000e-01    3.380000e+00
 SP2aq  N6ar  1 4.300000e-01    3.590000e+00
 SP1aq  N6ar  1 4.300000e-01    3.590000e+00
 SP6aq  N5ar  1 4.300000e-01    3.160000e+00
 SP5aq  N5ar  1 4.300000e-01    3.160000e+00
 SP4aq  N5ar  1 4.300000e-01    3.160000e+00
 SP3aq  N5ar  1 4.300000e-01    3.160000e+00
 SP2aq  N5ar  1 4.300000e-01    3.380000e+00
 SP1aq  N5ar  1 4.300000e-01    3.380000e+00
 SN6aq  N5ar  1 4.300000e-01    3.590000e+00
 SP6aq  N4ar  1 4.300000e-01    2.930000e+00
 SP5aq  N4ar  1 4.300000e-01    3.160000e+00
 SP4aq  N4ar  1 4.300000e-01    3.160000e+00
 SP3aq  N4ar  1 4.300000e-01    3.160000e+00
 SP2aq  N4ar  1 4.300000e-01    3.160000e+00
 SP1aq  N4ar  1 4.300000e-01    3.380000e+00
 SN6aq  N4ar  1 4.300000e-01    3.590000e+00
 SN5aq  N4ar  1 4.300000e-01    3.380000e+00
 SP6aq  N3ar  1 4.300000e-01    2.930000e+00
 SP5aq  N3ar  1 4.300000e-01    2.930000e+00
 SP4aq  N3ar  1 4.300000e-01    2.930000e+00
 SP3aq  N3ar  1 4.300000e-01    2.930000e+00
 SP2aq  N3ar  1 4.300000e-01    2.930000e+00
 SP1aq  N3ar  1 4.300000e-01    2.930000e+00
 SN6aq  N3ar  1 4.300000e-01    3.160000e+00
 SN5aq  N3ar  1 4.300000e-01    3.160000e+00
 SN4aq  N3ar  1 4.300000e-01    3.160000e+00
 SP6aq  N2ar  1 4.300000e-01    2.920000e+00
 SP5aq  N2ar  1 4.300000e-01    2.920000e+00
 SP4aq  N2ar  1 4.300000e-01    2.930000e+00
 SP3aq  N2ar  1 4.300000e-01    2.930000e+00
 SP2aq  N2ar  1 4.300000e-01    2.930000e+00
 SP1aq  N2ar  1 4.300000e-01    2.930000e+00
 SN6aq  N2ar  1 4.300000e-01    2.930000e+00
 SN5aq  N2ar  1 4.300000e-01    3.160000e+00
 SN4aq  N2ar  1 4.300000e-01    3.160000e+00
 SN3aq  N2ar  1 4.300000e-01    3.160000e+00
 SP6aq  N1ar  1 4.300000e-01    2.770000e+00
 SP5aq  N1ar  1 4.300000e-01    2.770000e+00
 SP4aq  N1ar  1 4.300000e-01    2.920000e+00
 SP3aq  N1ar  1 4.300000e-01    2.930000e+00
 SP2aq  N1ar  1 4.300000e-01    2.930000e+00
 SP1aq  N1ar  1 4.300000e-01    2.930000e+00
 SN6aq  N1ar  1 4.300000e-01    2.930000e+00
 SN5aq  N1ar  1 4.300000e-01    2.930000e+00
 SN4aq  N1ar  1 4.300000e-01    2.930000e+00
 SN3aq  N1ar  1 4.300000e-01    2.930000e+00
 SN2aq  N1ar  1 4.300000e-01    2.930000e+00
  P6ah  SP5a  1 4.300000e-01    3.970000e+00
  P6ah  SP4a  1 4.300000e-01    3.770000e+00
  P6ah  SP3a  1 4.300000e-01    3.590000e+00
  P6ah  SP2a  1 4.300000e-01    3.590000e+00
  P6ah  SP1a  1 4.300000e-01    3.380000e+00
  P6ah  SN6a  1 4.300000e-01    3.160000e+00
  P6ah  SN5a  1 4.300000e-01    2.920000e+00
  P6ah  SN4a  1 4.300000e-01    2.770000e+00
  P6ah  SN3a  1 4.300000e-01    2.770000e+00
  P6ah  SN2a  1 4.300000e-01    2.530000e+00
  P6ah  SN1a  1 4.300000e-01    2.320000e+00
  P5ah  SP4a  1 4.300000e-01    3.590000e+00
  P5ah  SP3a  1 4.300000e-01    3.380000e+00
  P5ah  SP2a  1 4.300000e-01    3.380000e+00
  P5ah  SP1a  1 4.300000e-01    3.160000e+00
  P5ah  SN6a  1 4.300000e-01    2.930000e+00
  P5ah  SN5a  1 4.300000e-01    2.920000e+00
  P5ah  SN4a  1 4.300000e-01    2.920000e+00
  P5ah  SN3a  1 4.300000e-01    2.770000e+00
  P5ah  SN2a  1 4.300000e-01    2.530000e+00
  P5ah  SN1a  1 4.300000e-01    2.320000e+00
  P4ah  SP3a  1 4.300000e-01    3.380000e+00
  P4ah  SP2a  1 4.300000e-01    3.380000e+00
  P4ah  SP1a  1 4.300000e-01    3.160000e+00
  P4ah  SN6a  1 4.300000e-01    2.930000e+00
  P4ah  SN5a  1 4.300000e-01    2.920000e+00
  P4ah  SN4a  1 4.300000e-01    2.920000e+00
  P4ah  SN3a  1 4.300000e-01    2.770000e+00
  P4ah  SN2a  1 4.300000e-01    2.770000e+00
  P4ah  SN1a  1 4.300000e-01    2.530000e+00
  P3ah  SP2a  1 4.300000e-01    3.380000e+00
  P3ah  SP1a  1 4.300000e-01    3.160000e+00
  P3ah  SN6a  1 4.300000e-01    2.930000e+00
  P3ah  SN5a  1 4.300000e-01    2.920000e+00
  P3ah  SN4a  1 4.300000e-01    2.920000e+00
  P3ah  SN3a  1 4.300000e-01    2.770000e+00
  P3ah  SN2a  1 4.300000e-01    2.770000e+00
  P3ah  SN1a  1 4.300000e-01    2.770000e+00
  P2ah  SP1a  1 4.300000e-01    3.160000e+00
  P2ah  SN6a  1 4.300000e-01    3.160000e+00
  P2ah  SN5a  1 4.300000e-01    2.930000e+00
  P2ah  SN4a  1 4.300000e-01    2.920000e+00
  P2ah  SN3a  1 4.300000e-01    2.770000e+00
  P2ah  SN2a  1 4.300000e-01    2.770000e+00
  P2ah  SN1a  1 4.300000e-01    2.770000e+00
  P1ah  SN6a  1 4.300000e-01    3.160000e+00
  P1ah  SN5a  1 4.300000e-01    2.930000e+00
  P1ah  SN4a  1 4.300000e-01    2.930000e+00
  P1ah  SN3a  1 4.300000e-01    2.770000e+00
  P1ah  SN2a  1 4.300000e-01    2.770000e+00
  P1ah  SN1a  1 4.300000e-01    2.770000e+00
  N6ah  SN5a  1 4.300000e-01    3.160000e+00
  N6ah  SN4a  1 4.300000e-01    3.160000e+00
  N6ah  SN3a  1 4.300000e-01    2.920000e+00
  N6ah  SN2a  1 4.300000e-01    2.770000e+00
  N6ah  SN1a  1 4.300000e-01    2.770000e+00
  N5ah  SN4a  1 4.300000e-01    2.930000e+00
  N5ah  SN3a  1 4.300000e-01    2.920000e+00
  N5ah  SN2a  1 4.300000e-01    2.920000e+00
  N5ah  SN1a  1 4.300000e-01    2.770000e+00
  N4ah  SN3a  1 4.300000e-01    2.920000e+00
  N4ah  SN2a  1 4.300000e-01    2.920000e+00
  N4ah  SN1a  1 4.300000e-01    2.770000e+00
  N3ah  SN2a  1 4.300000e-01    2.920000e+00
  N3ah  SN1a  1 4.300000e-01    2.770000e+00
  N2ah  SN1a  1 4.300000e-01    2.770000e+00
 SP6ah   P5a  1 4.300000e-01    3.970000e+00
 SP6ah   P4a  1 4.300000e-01    3.770000e+00
 SP6ah   P3a  1 4.300000e-01    3.590000e+00
 SP6ah   P2a  1 4.300000e-01    3.590000e+00
 SP6ah   P1a  1 4.300000e-01    3.380000e+00
 SP6ah   N6a  1 4.300000e-01    3.160000e+00
 SP6ah   N5a  1 4.300000e-01    2.920000e+00
 SP6ah   N4a  1 4.300000e-01    2.770000e+00
 SP6ah   N3a  1 4.300000e-01    2.770000e+00
 SP6ah   N2a  1 4.300000e-01    2.530000e+00
 SP6ah   N1a  1 4.300000e-01    2.320000e+00
 SP5ah   P4a  1 4.300000e-01    3.590000e+00
 SP5ah   P3a  1 4.300000e-01    3.380000e+00
 SP5ah   P2a  1 4.300000e-01    3.380000e+00
 SP5ah   P1a  1 4.300000e-01    3.160000e+00
 SP5ah   N6a  1 4.300000e-01    2.930000e+00
 SP5ah   N5a  1 4.300000e-01    2.920000e+00
 SP5ah   N4a  1 4.300000e-01    2.920000e+00
 SP5ah   N3a  1 4.300000e-01    2.770000e+00
 SP5ah   N2a  1 4.300000e-01    2.530000e+00
 SP5ah   N1a  1 4.300000e-01    2.320000e+00
 SP4ah   P3a  1 4.300000e-01    3.380000e+00
 SP4ah   P2a  1 4.300000e-01    3.380000e+00
 SP4ah   P1a  1 4.300000e-01    3.160000e+00
 SP4ah   N6a  1 4.300000e-01    2.930000e+00
 SP4ah   N5a  1 4.300000e-01    2.920000e+00
 SP4ah   N4a  1 4.300000e-01    2.920000e+00
 SP4ah   N3a  1 4.300000e-01    2.770000e+00
 SP4ah   N2a  1 4.300000e-01    2.770000e+00
 SP4ah   N1a  1 4.300000e-01    2.530000e+00
 SP3ah   P2a  1 4.300000e-01    3.380000e+00
 SP3ah   P1a  1 4.300000e-01    3.160000e+00
 SP3ah   N6a  1 4.300000e-01    2.930000e+00
 SP3ah   N5a  1 4.300000e-01    2.920000e+00
 SP3ah   N4a  1 4.300000e-01    2.920000e+00
 SP3ah   N3a  1 4.300000e-01    2.770000e+00
 SP3ah   N2a  1 4.300000e-01    2.770000e+00
 SP3ah   N1a  1 4.300000e-01    2.770000e+00
 SP2ah   P1a  1 4.300000e-01    3.160000e+00
 SP2ah   N6a  1 4.300000e-01    3.160000e+00
 SP2ah   N5a  1 4.300000e-01    2.930000e+00
 SP2ah   N4a  1 4.300000e-01    2.920000e+00
 SP2ah   N3a  1 4.300000e-01    2.770000e+00
 SP2ah   N2a  1 4.300000e-01    2.770000e+00
 SP2ah   N1a  1 4.300000e-01    2.770000e+00
 SP1ah   N6a  1 4.300000e-01    3.160000e+00
 SP1ah   N5a  1 4.300000e-01    2.930000e+00
 SP1ah   N4a  1 4.300000e-01    2.930000e+00
 SP1ah   N3a  1 4.300000e-01    2.770000e+00
 SP1ah   N2a  1 4.300000e-01    2.770000e+00
 SP1ah   N1a  1 4.300000e-01    2.770000e+00
 SN6ah   N5a  1 4.300000e-01    3.160000e+00
 SN6ah   N4a  1 4.300000e-01    3.160000e+00
 SN6ah   N3a  1 4.300000e-01    2.920000e+00
 SN6ah   N2a  1 4.300000e-01    2.770000e+00
 SN6ah   N1a  1 4.300000e-01    2.770000e+00
 SN5ah   N4a  1 4.300000e-01    2.930000e+00
 SN5ah   N3a  1 4.300000e-01    2.920000e+00
 SN5ah   N2a  1 4.300000e-01    2.920000e+00
 SN5ah   N1a  1 4.300000e-01    2.770000e+00
 SN4ah   N3a  1 4.300000e-01    2.920000e+00
 SN4ah   N2a  1 4.300000e-01    2.920000e+00
 SN4ah   N1a  1 4.300000e-01    2.770000e+00
 SN3ah   N2a  1 4.300000e-01    2.920000e+00
 SN3ah   N1a  1 4.300000e-01    2.770000e+00
 SN2ah   N1a  1 4.300000e-01    2.770000e+00
  P6ah SP6aq  1 4.300000e-01    4.680000e+00
  P6ah SN1aq  1 4.300000e-01    2.770000e+00
  P6ah SN2aq  1 4.300000e-01    2.920000e+00
  P6ah SN3aq  1 4.300000e-01    2.930000e+00
  P6ah SN4aq  1 4.300000e-01    2.930000e+00
  P6ah SN5aq  1 4.300000e-01    3.160000e+00
  P6ah SN6aq  1 4.300000e-01    3.590000e+00
  P6ah SP1aq  1 4.300000e-01    3.770000e+00
  P6ah SP2aq  1 4.300000e-01    3.970000e+00
  P6ah SP3aq  1 4.300000e-01    3.970000e+00
  P6ah SP4aq  1 4.300000e-01    4.170000e+00
  P6ah SP5aq  1 4.300000e-01    4.400000e+00
  P5ah SP5aq  1 4.300000e-01    4.170000e+00
  P5ah SN1aq  1 4.300000e-01    2.770000e+00
  P5ah SN2aq  1 4.300000e-01    2.920000e+00
  P5ah SN3aq  1 4.300000e-01    2.930000e+00
  P5ah SN4aq  1 4.300000e-01    3.160000e+00
  P5ah SN5aq  1 4.300000e-01    3.160000e+00
  P5ah SN6aq  1 4.300000e-01    3.380000e+00
  P5ah SP1aq  1 4.300000e-01    3.590000e+00
  P5ah SP2aq  1 4.300000e-01    3.770000e+00
  P5ah SP3aq  1 4.300000e-01    3.770000e+00
  P5ah SP4aq  1 4.300000e-01    3.970000e+00
  P4ah SP4aq  1 4.300000e-01    3.970000e+00
  P4ah SN1aq  1 4.300000e-01    2.920000e+00
  P4ah SN2aq  1 4.300000e-01    2.930000e+00
  P4ah SN3aq  1 4.300000e-01    2.930000e+00
  P4ah SN4aq  1 4.300000e-01    3.160000e+00
  P4ah SN5aq  1 4.300000e-01    3.160000e+00
  P4ah SN6aq  1 4.300000e-01    3.380000e+00
  P4ah SP1aq  1 4.300000e-01    3.590000e+00
  P4ah SP2aq  1 4.300000e-01    3.770000e+00
  P4ah SP3aq  1 4.300000e-01    3.770000e+00
  P3ah SP3aq  1 4.300000e-01    3.770000e+00
  P3ah SN1aq  1 4.300000e-01    2.930000e+00
  P3ah SN2aq  1 4.300000e-01    2.930000e+00
  P3ah SN3aq  1 4.300000e-01    2.930000e+00
  P3ah SN4aq  1 4.300000e-01    3.160000e+00
  P3ah SN5aq  1 4.300000e-01    3.160000e+00
  P3ah SN6aq  1 4.300000e-01    3.380000e+00
  P3ah SP1aq  1 4.300000e-01    3.590000e+00
  P3ah SP2aq  1 4.300000e-01    3.770000e+00
  P2ah SP2aq  1 4.300000e-01    3.770000e+00
  P2ah SN1aq  1 4.300000e-01    2.930000e+00
  P2ah SN2aq  1 4.300000e-01    2.930000e+00
  P2ah SN3aq  1 4.300000e-01    2.930000e+00
  P2ah SN4aq  1 4.300000e-01    3.160000e+00
  P2ah SN5aq  1 4.300000e-01    3.380000e+00
  P2ah SN6aq  1 4.300000e-01    3.590000e+00
  P2ah SP1aq  1 4.300000e-01    3.590000e+00
  P1ah SP1aq  1 4.300000e-01    3.590000e+00
  P1ah SN1aq  1 4.300000e-01    2.930000e+00
  P1ah SN2aq  1 4.300000e-01    2.930000e+00
  P1ah SN3aq  1 4.300000e-01    2.930000e+00
  P1ah SN4aq  1 4.300000e-01    3.380000e+00
  P1ah SN5aq  1 4.300000e-01    3.380000e+00
  P1ah SN6aq  1 4.300000e-01    3.590000e+00
  N6ah SN6aq  1 4.300000e-01    3.590000e+00
  N6ah SN1aq  1 4.300000e-01    2.930000e+00
  N6ah SN2aq  1 4.300000e-01    2.930000e+00
  N6ah SN3aq  1 4.300000e-01    3.160000e+00
  N6ah SN4aq  1 4.300000e-01    3.590000e+00
  N6ah SN5aq  1 4.300000e-01    3.590000e+00
  N5ah SN5aq  1 4.300000e-01    3.380000e+00
  N5ah SN1aq  1 4.300000e-01    2.930000e+00
  N5ah SN2aq  1 4.300000e-01    3.160000e+00
  N5ah SN3aq  1 4.300000e-01    3.160000e+00
  N5ah SN4aq  1 4.300000e-01    3.380000e+00
  N4ah SN4aq  1 4.300000e-01    3.380000e+00
  N4ah SN1aq  1 4.300000e-01    2.930000e+00
  N4ah SN2aq  1 4.300000e-01    3.160000e+00
  N4ah SN3aq  1 4.300000e-01    3.160000e+00
  N3ah SN3aq  1 4.300000e-01    3.160000e+00
  N3ah SN1aq  1 4.300000e-01    2.930000e+00
  N3ah SN2aq  1 4.300000e-01    3.160000e+00
  N2ah SN2aq  1 4.300000e-01    3.160000e+00
  N2ah SN1aq  1 4.300000e-01    2.930000e+00
  N1ah SN1aq  1 4.300000e-01    3.160000e+00
 SP6ah  P6aq  1 4.300000e-01    4.680000e+00
 SP6ah  N1aq  1 4.300000e-01    2.770000e+00
 SP6ah  N2aq  1 4.300000e-01    2.920000e+00
 SP6ah  N3aq  1 4.300000e-01    2.930000e+00
 SP6ah  N4aq  1 4.300000e-01    2.930000e+00
 SP6ah  N5aq  1 4.300000e-01    3.160000e+00
 SP6ah  N6aq  1 4.300000e-01    3.590000e+00
 SP6ah  P1aq  1 4.300000e-01    3.770000e+00
 SP6ah  P2aq  1 4.300000e-01    3.970000e+00
 SP6ah  P3aq  1 4.300000e-01    3.970000e+00
 SP6ah  P4aq  1 4.300000e-01    4.170000e+00
 SP6ah  P5aq  1 4.300000e-01    4.400000e+00
 SP5ah  P5aq  1 4.300000e-01    4.170000e+00
 SP5ah  N1aq  1 4.300000e-01    2.770000e+00
 SP5ah  N2aq  1 4.300000e-01    2.920000e+00
 SP5ah  N3aq  1 4.300000e-01    2.930000e+00
 SP5ah  N4aq  1 4.300000e-01    3.160000e+00
 SP5ah  N5aq  1 4.300000e-01    3.160000e+00
 SP5ah  N6aq  1 4.300000e-01    3.380000e+00
 SP5ah  P1aq  1 4.300000e-01    3.590000e+00
 SP5ah  P2aq  1 4.300000e-01    3.770000e+00
 SP5ah  P3aq  1 4.300000e-01    3.770000e+00
 SP5ah  P4aq  1 4.300000e-01    3.970000e+00
 SP4ah  P4aq  1 4.300000e-01    3.970000e+00
 SP4ah  N1aq  1 4.300000e-01    2.920000e+00
 SP4ah  N2aq  1 4.300000e-01    2.930000e+00
 SP4ah  N3aq  1 4.300000e-01    2.930000e+00
 SP4ah  N4aq  1 4.300000e-01    3.160000e+00
 SP4ah  N5aq  1 4.300000e-01    3.160000e+00
 SP4ah  N6aq  1 4.300000e-01    3.380000e+00
 SP4ah  P1aq  1 4.300000e-01    3.590000e+00
 SP4ah  P2aq  1 4.300000e-01    3.770000e+00
 SP4ah  P3aq  1 4.300000e-01    3.770000e+00
 SP3ah  P3aq  1 4.300000e-01    3.770000e+00
 SP3ah  N1aq  1 4.300000e-01    2.930000e+00
 SP3ah  N2aq  1 4.300000e-01    2.930000e+00
 SP3ah  N3aq  1 4.300000e-01    2.930000e+00
 SP3ah  N4aq  1 4.300000e-01    3.160000e+00
 SP3ah  N5aq  1 4.300000e-01    3.160000e+00
 SP3ah  N6aq  1 4.300000e-01    3.380000e+00
 SP3ah  P1aq  1 4.300000e-01    3.590000e+00
 SP3ah  P2aq  1 4.300000e-01    3.770000e+00
 SP2ah  P2aq  1 4.300000e-01    3.770000e+00
 SP2ah  N1aq  1 4.300000e-01    2.930000e+00
 SP2ah  N2aq  1 4.300000e-01    2.930000e+00
 SP2ah  N3aq  1 4.300000e-01    2.930000e+00
 SP2ah  N4aq  1 4.300000e-01    3.160000e+00
 SP2ah  N5aq  1 4.300000e-01    3.380000e+00
 SP2ah  N6aq  1 4.300000e-01    3.590000e+00
 SP2ah  P1aq  1 4.300000e-01    3.590000e+00
 SP1ah  P1aq  1 4.300000e-01    3.590000e+00
 SP1ah  N1aq  1 4.300000e-01    2.930000e+00
 SP1ah  N2aq  1 4.300000e-01    2.930000e+00
 SP1ah  N3aq  1 4.300000e-01    2.930000e+00
 SP1ah  N4aq  1 4.300000e-01    3.380000e+00
 SP1ah  N5aq  1 4.300000e-01    3.380000e+00
 SP1ah  N6aq  1 4.300000e-01    3.590000e+00
 SN6ah  N6aq  1 4.300000e-01    3.590000e+00
 SN6ah  N1aq  1 4.300000e-01    2.930000e+00
 SN6ah  N2aq  1 4.300000e-01    2.930000e+00
 SN6ah  N3aq  1 4.300000e-01    3.160000e+00
 SN6ah  N4aq  1 4.300000e-01    3.590000e+00
 SN6ah  N5aq  1 4.300000e-01    3.590000e+00
 SN5ah  N5aq  1 4.300000e-01    3.380000e+00
 SN5ah  N1aq  1 4.300000e-01    2.930000e+00
 SN5ah  N2aq  1 4.300000e-01    3.160000e+00
 SN5ah  N3aq  1 4.300000e-01    3.160000e+00
 SN5ah  N4aq  1 4.300000e-01    3.380000e+00
 SN4ah  N4aq  1 4.300000e-01    3.380000e+00
 SN4ah  N1aq  1 4.300000e-01    2.930000e+00
 SN4ah  N2aq  1 4.300000e-01    3.160000e+00
 SN4ah  N3aq  1 4.300000e-01    3.160000e+00
 SN3ah  N3aq  1 4.300000e-01    3.160000e+00
 SN3ah  N1aq  1 4.300000e-01    2.930000e+00
 SN3ah  N2aq  1 4.300000e-01    3.160000e+00
 SN2ah  N2aq  1 4.300000e-01    3.160000e+00
 SN2ah  N1aq  1 4.300000e-01    2.930000e+00
 SN1ah  N1aq  1 4.300000e-01    3.160000e+00
  P6ah SP6ah  1 4.300000e-01    4.400000e+00
  P5ah SP5ah  1 4.300000e-01    3.970000e+00
  P4ah SP4ah  1 4.300000e-01    3.770000e+00
  P3ah SP3ah  1 4.300000e-01    3.590000e+00
  P2ah SP2ah  1 4.300000e-01    3.590000e+00
  P1ah SP1ah  1 4.300000e-01    3.380000e+00
  N6ah SN6ah  1 4.300000e-01    3.380000e+00
  N5ah SN5ah  1 4.300000e-01    3.160000e+00
  N4ah SN4ah  1 4.300000e-01    3.160000e+00
  N3ah SN3ah  1 4.300000e-01    2.930000e+00
  N2ah SN2ah  1 4.300000e-01    2.930000e+00
  N1ah SN1ah  1 4.300000e-01    2.930000e+00
  P6ah SP5ah  1 4.300000e-01    4.170000e+00
  P6ah SP4ah  1 4.300000e-01    3.970000e+00
  P6ah SP3ah  1 4.300000e-01    3.770000e+00
  P6ah SP2ah  1 4.300000e-01    3.770000e+00
  P6ah SP1ah  1 4.300000e-01    3.590000e+00
  P6ah SN6ah  1 4.300000e-01    3.380000e+00
  P6ah SN5ah  1 4.300000e-01    2.930000e+00
  P6ah SN4ah  1 4.300000e-01    2.920000e+00
  P6ah SN3ah  1 4.300000e-01    2.920000e+00
  P6ah SN2ah  1 4.300000e-01    2.770000e+00
  P6ah SN1ah  1 4.300000e-01    2.530000e+00
  P5ah SP4ah  1 4.300000e-01    3.770000e+00
  P5ah SP3ah  1 4.300000e-01    3.590000e+00
  P5ah SP2ah  1 4.300000e-01    3.590000e+00
  P5ah SP1ah  1 4.300000e-01    3.380000e+00
  P5ah SN6ah  1 4.300000e-01    3.160000e+00
  P5ah SN5ah  1 4.300000e-01    2.930000e+00
  P5ah SN4ah  1 4.300000e-01    2.930000e+00
  P5ah SN3ah  1 4.300000e-01    2.920000e+00
  P5ah SN2ah  1 4.300000e-01    2.770000e+00
  P5ah SN1ah  1 4.300000e-01    2.530000e+00
  P4ah SP3ah  1 4.300000e-01    3.590000e+00
  P4ah SP2ah  1 4.300000e-01    3.590000e+00
  P4ah SP1ah  1 4.300000e-01    3.380000e+00
  P4ah SN6ah  1 4.300000e-01    3.160000e+00
  P4ah SN5ah  1 4.300000e-01    2.930000e+00
  P4ah SN4ah  1 4.300000e-01    2.930000e+00
  P4ah SN3ah  1 4.300000e-01    2.920000e+00
  P4ah SN2ah  1 4.300000e-01    2.920000e+00
  P4ah SN1ah  1 4.300000e-01    2.770000e+00
  P3ah SP2ah  1 4.300000e-01    3.590000e+00
  P3ah SP1ah  1 4.300000e-01    3.380000e+00
  P3ah SN6ah  1 4.300000e-01    3.160000e+00
  P3ah SN5ah  1 4.300000e-01    2.930000e+00
  P3ah SN4ah  1 4.300000e-01    2.930000e+00
  P3ah SN3ah  1 4.300000e-01    2.920000e+00
  P3ah SN2ah  1 4.300000e-01    2.920000e+00
  P3ah SN1ah  1 4.300000e-01    2.920000e+00
  P2ah SP1ah  1 4.300000e-01    3.380000e+00
  P2ah SN6ah  1 4.300000e-01    3.380000e+00
  P2ah SN5ah  1 4.300000e-01    3.160000e+00
  P2ah SN4ah  1 4.300000e-01    2.930000e+00
  P2ah SN3ah  1 4.300000e-01    2.920000e+00
  P2ah SN2ah  1 4.300000e-01    2.920000e+00
  P2ah SN1ah  1 4.300000e-01    2.920000e+00
  P1ah SN6ah  1 4.300000e-01    3.380000e+00
  P1ah SN5ah  1 4.300000e-01    3.160000e+00
  P1ah SN4ah  1 4.300000e-01    3.160000e+00
  P1ah SN3ah  1 4.300000e-01    2.920000e+00
  P1ah SN2ah  1 4.300000e-01    2.920000e+00
  P1ah SN1ah  1 4.300000e-01    2.920000e+00
  N6ah SN5ah  1 4.300000e-01    3.380000e+00
  N6ah SN4ah  1 4.300000e-01    3.380000e+00
  N6ah SN3ah  1 4.300000e-01    2.930000e+00
  N6ah SN2ah  1 4.300000e-01    2.920000e+00
  N6ah SN1ah  1 4.300000e-01    2.920000e+00
  N5ah SN4ah  1 4.300000e-01    3.160000e+00
  N5ah SN3ah  1 4.300000e-01    2.930000e+00
  N5ah SN2ah  1 4.300000e-01    2.930000e+00
  N5ah SN1ah  1 4.300000e-01    2.920000e+00
  N4ah SN3ah  1 4.300000e-01    2.930000e+00
  N4ah SN2ah  1 4.300000e-01    2.930000e+00
  N4ah SN1ah  1 4.300000e-01    2.920000e+00
  N3ah SN2ah  1 4.300000e-01    2.930000e+00
  N3ah SN1ah  1 4.300000e-01    2.920000e+00
  N2ah SN1ah  1 4.300000e-01    2.920000e+00
 SP6ah  P5ah  1 4.300000e-01    4.170000e+00
 SP6ah  P4ah  1 4.300000e-01    3.970000e+00
 SP6ah  P3ah  1 4.300000e-01    3.770000e+00
 SP6ah  P2ah  1 4.300000e-01    3.770000e+00
 SP6ah  P1ah  1 4.300000e-01    3.590000e+00
 SP6ah  N6ah  1 4.300000e-01    3.380000e+00
 SP6ah  N5ah  1 4.300000e-01    2.930000e+00
 SP6ah  N4ah  1 4.300000e-01    2.920000e+00
 SP6ah  N3ah  1 4.300000e-01    2.920000e+00
 SP6ah  N2ah  1 4.300000e-01    2.770000e+00
 SP6ah  N1ah  1 4.300000e-01    2.530000e+00
 SP5ah  P4ah  1 4.300000e-01    3.770000e+00
 SP5ah  P3ah  1 4.300000e-01    3.590000e+00
 SP5ah  P2ah  1 4.300000e-01    3.590000e+00
 SP5ah  P1ah  1 4.300000e-01    3.380000e+00
 SP5ah  N6ah  1 4.300000e-01    3.160000e+00
 SP5ah  N5ah  1 4.300000e-01    2.930000e+00
 SP5ah  N4ah  1 4.300000e-01    2.930000e+00
 SP5ah  N3ah  1 4.300000e-01    2.920000e+00
 SP5ah  N2ah  1 4.300000e-01    2.770000e+00
 SP5ah  N1ah  1 4.300000e-01    2.530000e+00
 SP4ah  P3ah  1 4.300000e-01    3.590000e+00
 SP4ah  P2ah  1 4.300000e-01    3.590000e+00
 SP4ah  P1ah  1 4.300000e-01    3.380000e+00
 SP4ah  N6ah  1 4.300000e-01    3.160000e+00
 SP4ah  N5ah  1 4.300000e-01    2.930000e+00
 SP4ah  N4ah  1 4.300000e-01    2.930000e+00
 SP4ah  N3ah  1 4.300000e-01    2.920000e+00
 SP4ah  N2ah  1 4.300000e-01    2.920000e+00
 SP4ah  N1ah  1 4.300000e-01    2.770000e+00
 SP3ah  P2ah  1 4.300000e-01    3.590000e+00
 SP3ah  P1ah  1 4.300000e-01    3.380000e+00
 SP3ah  N6ah  1 4.300000e-01    3.160000e+00
 SP3ah  N5ah  1 4.300000e-01    2.930000e+00
 SP3ah  N4ah  1 4.300000e-01    2.930000e+00
 SP3ah  N3ah  1 4.300000e-01    2.920000e+00
 SP3ah  N2ah  1 4.300000e-01    2.920000e+00
 SP3ah  N1ah  1 4.300000e-01    2.920000e+00
 SP2ah  P1ah  1 4.300000e-01    3.380000e+00
 SP2ah  N6ah  1 4.300000e-01    3.380000e+00
 SP2ah  N5ah  1 4.300000e-01    3.160000e+00
 SP2ah  N4ah  1 4.300000e-01    2.930000e+00
 SP2ah  N3ah  1 4.300000e-01    2.920000e+00
 SP2ah  N2ah  1 4.300000e-01    2.920000e+00
 SP2ah  N1ah  1 4.300000e-01    2.920000e+00
 SP1ah  N6ah  1 4.300000e-01    3.380000e+00
 SP1ah  N5ah  1 4.300000e-01    3.160000e+00
 SP1ah  N4ah  1 4.300000e-01    3.160000e+00
 SP1ah  N3ah  1 4.300000e-01    2.920000e+00
 SP1ah  N2ah  1 4.300000e-01    2.920000e+00
 SP1ah  N1ah  1 4.300000e-01    2.920000e+00
 SN6ah  N5ah  1 4.300000e-01    3.380000e+00
 SN6ah  N4ah  1 4.300000e-01    3.380000e+00
 SN6ah  N3ah  1 4.300000e-01    2.930000e+00
 SN6ah  N2ah  1 4.300000e-01    2.920000e+00
 SN6ah  N1ah  1 4.300000e-01    2.920000e+00
 SN5ah  N4ah  1 4.300000e-01    3.160000e+00
 SN5ah  N3ah  1 4.300000e-01    2.930000e+00
 SN5ah  N2ah  1 4.300000e-01    2.930000e+00
 SN5ah  N1ah  1 4.300000e-01    2.920000e+00
 SN4ah  N3ah  1 4.300000e-01    2.930000e+00
 SN4ah  N2ah  1 4.300000e-01    2.930000e+00
 SN4ah  N1ah  1 4.300000e-01    2.920000e+00
 SN3ah  N2ah  1 4.300000e-01    2.930000e+00
 SN3ah  N1ah  1 4.300000e-01    2.920000e+00
 SN2ah  N1ah  1 4.300000e-01    2.920000e+00
  P6ah SP6ar  1 4.300000e-01    4.170000e+00
  P6ah SP5ar  1 4.300000e-01    3.970000e+00
  P6ah SP4ar  1 4.300000e-01    3.770000e+00
  P6ah SP3ar  1 4.300000e-01    3.590000e+00
  P6ah SP2ar  1 4.300000e-01    3.590000e+00
  P6ah SP1ar  1 4.300000e-01    3.380000e+00
  P6ah SN6ar  1 4.300000e-01    3.160000e+00
  P6ah SN5ar  1 4.300000e-01    2.920000e+00
  P6ah SN4ar  1 4.300000e-01    2.770000e+00
  P6ah SN3ar  1 4.300000e-01    2.770000e+00
  P6ah SN2ar  1 4.300000e-01    2.530000e+00
  P6ah SN1ar  1 4.300000e-01    2.320000e+00
  P5ah SP5ar  1 4.300000e-01    3.770000e+00
  P5ah SP4ar  1 4.300000e-01    3.590000e+00
  P5ah SP3ar  1 4.300000e-01    3.380000e+00
  P5ah SP2ar  1 4.300000e-01    3.380000e+00
  P5ah SP1ar  1 4.300000e-01    3.160000e+00
  P5ah SN6ar  1 4.300000e-01    2.930000e+00
  P5ah SN5ar  1 4.300000e-01    2.920000e+00
  P5ah SN4ar  1 4.300000e-01    2.920000e+00
  P5ah SN3ar  1 4.300000e-01    2.770000e+00
  P5ah SN2ar  1 4.300000e-01    2.530000e+00
  P5ah SN1ar  1 4.300000e-01    2.320000e+00
  P4ah SP4ar  1 4.300000e-01    3.590000e+00
  P4ah SP3ar  1 4.300000e-01    3.380000e+00
  P4ah SP2ar  1 4.300000e-01    3.380000e+00
  P4ah SP1ar  1 4.300000e-01    3.160000e+00
  P4ah SN6ar  1 4.300000e-01    2.930000e+00
  P4ah SN5ar  1 4.300000e-01    2.920000e+00
  P4ah SN4ar  1 4.300000e-01    2.920000e+00
  P4ah SN3ar  1 4.300000e-01    2.770000e+00
  P4ah SN2ar  1 4.300000e-01    2.770000e+00
  P4ah SN1ar  1 4.300000e-01    2.530000e+00
  P3ah SP3ar  1 4.300000e-01    3.380000e+00
  P3ah SP2ar  1 4.300000e-01    3.380000e+00
  P3ah SP1ar  1 4.300000e-01    3.160000e+00
  P3ah SN6ar  1 4.300000e-01    2.930000e+00
  P3ah SN5ar  1 4.300000e-01    2.920000e+00
  P3ah SN4ar  1 4.300000e-01    2.920000e+00
  P3ah SN3ar  1 4.300000e-01    2.770000e+00
  P3ah SN2ar  1 4.300000e-01    2.770000e+00
  P3ah SN1ar  1 4.300000e-01    2.770000e+00
  P2ah SP2ar  1 4.300000e-01    3.380000e+00
  P2ah SP1ar  1 4.300000e-01    3.160000e+00
  P2ah SN6ar  1 4.300000e-01    3.160000e+00
  P2ah SN5ar  1 4.300000e-01    2.930000e+00
  P2ah SN4ar  1 4.300000e-01    2.920000e+00
  P2ah SN3ar  1 4.300000e-01    2.770000e+00
  P2ah SN2ar  1 4.300000e-01    2.770000e+00
  P2ah SN1ar  1 4.300000e-01    2.770000e+00
  P1ah SP1ar  1 4.300000e-01    3.160000e+00
  P1ah SN6ar  1 4.300000e-01    3.160000e+00
  P1ah SN5ar  1 4.300000e-01    2.930000e+00
  P1ah SN4ar  1 4.300000e-01    2.930000e+00
  P1ah SN3ar  1 4.300000e-01    2.770000e+00
  P1ah SN2ar  1 4.300000e-01    2.770000e+00
  P1ah SN1ar  1 4.300000e-01    2.770000e+00
  N6ah SN6ar  1 4.300000e-01    3.160000e+00
  N6ah SN5ar  1 4.300000e-01    3.160000e+00
  N6ah SN4ar  1 4.300000e-01    3.160000e+00
  N6ah SN3ar  1 4.300000e-01    2.920000e+00
  N6ah SN2ar  1 4.300000e-01    2.770000e+00
  N6ah SN1ar  1 4.300000e-01    2.770000e+00
  N5ah SN5ar  1 4.300000e-01    2.930000e+00
  N5ah SN4ar  1 4.300000e-01    2.930000e+00
  N5ah SN3ar  1 4.300000e-01    2.920000e+00
  N5ah SN2ar  1 4.300000e-01    2.920000e+00
  N5ah SN1ar  1 4.300000e-01    2.770000e+00
  N4ah SN4ar  1 4.300000e-01    2.930000e+00
  N4ah SN3ar  1 4.300000e-01    2.920000e+00
  N4ah SN2ar  1 4.300000e-01    2.920000e+00
  N4ah SN1ar  1 4.300000e-01    2.770000e+00
  N3ah SN3ar  1 4.300000e-01    2.920000e+00
  N3ah SN2ar  1 4.300000e-01    2.920000e+00
  N3ah SN1ar  1 4.300000e-01    2.770000e+00
  N2ah SN2ar  1 4.300000e-01    2.920000e+00
  N2ah SN1ar  1 4.300000e-01    2.770000e+00
  N1ah SN1ar  1 4.300000e-01    2.920000e+00
 SP6ah  P6ar  1 4.300000e-01    4.170000e+00
 SP6ah  P5ar  1 4.300000e-01    3.970000e+00
 SP6ah  P4ar  1 4.300000e-01    3.770000e+00
 SP6ah  P3ar  1 4.300000e-01    3.590000e+00
 SP6ah  P2ar  1 4.300000e-01    3.590000e+00
 SP6ah  P1ar  1 4.300000e-01    3.380000e+00
 SP6ah  N6ar  1 4.300000e-01    3.160000e+00
 SP6ah  N5ar  1 4.300000e-01    2.920000e+00
 SP6ah  N4ar  1 4.300000e-01    2.770000e+00
 SP6ah  N3ar  1 4.300000e-01    2.770000e+00
 SP6ah  N2ar  1 4.300000e-01    2.530000e+00
 SP6ah  N1ar  1 4.300000e-01    2.320000e+00
 SP5ah  P5ar  1 4.300000e-01    3.770000e+00
 SP5ah  P4ar  1 4.300000e-01    3.590000e+00
 SP5ah  P3ar  1 4.300000e-01    3.380000e+00
 SP5ah  P2ar  1 4.300000e-01    3.380000e+00
 SP5ah  P1ar  1 4.300000e-01    3.160000e+00
 SP5ah  N6ar  1 4.300000e-01    2.930000e+00
 SP5ah  N5ar  1 4.300000e-01    2.920000e+00
 SP5ah  N4ar  1 4.300000e-01    2.920000e+00
 SP5ah  N3ar  1 4.300000e-01    2.770000e+00
 SP5ah  N2ar  1 4.300000e-01    2.530000e+00
 SP5ah  N1ar  1 4.300000e-01    2.320000e+00
 SP4ah  P4ar  1 4.300000e-01    3.590000e+00
 SP4ah  P3ar  1 4.300000e-01    3.380000e+00
 SP4ah  P2ar  1 4.300000e-01    3.380000e+00
 SP4ah  P1ar  1 4.300000e-01    3.160000e+00
 SP4ah  N6ar  1 4.300000e-01    2.930000e+00
 SP4ah  N5ar  1 4.300000e-01    2.920000e+00
 SP4ah  N4ar  1 4.300000e-01    2.920000e+00
 SP4ah  N3ar  1 4.300000e-01    2.770000e+00
 SP4ah  N2ar  1 4.300000e-01    2.770000e+00
 SP4ah  N1ar  1 4.300000e-01    2.530000e+00
 SP3ah  P3ar  1 4.300000e-01    3.380000e+00
 SP3ah  P2ar  1 4.300000e-01    3.380000e+00
 SP3ah  P1ar  1 4.300000e-01    3.160000e+00
 SP3ah  N6ar  1 4.300000e-01    2.930000e+00
 SP3ah  N5ar  1 4.300000e-01    2.920000e+00
 SP3ah  N4ar  1 4.300000e-01    2.920000e+00
 SP3ah  N3ar  1 4.300000e-01    2.770000e+00
 SP3ah  N2ar  1 4.300000e-01    2.770000e+00
 SP3ah  N1ar  1 4.300000e-01    2.770000e+00
 SP2ah  P2ar  1 4.300000e-01    3.380000e+00
 SP2ah  P1ar  1 4.300000e-01    3.160000e+00
 SP2ah  N6ar  1 4.300000e-01    3.160000e+00
 SP2ah  N5ar  1 4.300000e-01    2.930000e+00
 SP2ah  N4ar  1 4.300000e-01    2.920000e+00
 SP2ah  N3ar  1 4.300000e-01    2.770000e+00
 SP2ah  N2ar  1 4.300000e-01    2.770000e+00
 SP2ah  N1ar  1 4.300000e-01    2.770000e+00
 SP1ah  P1ar  1 4.300000e-01    3.160000e+00
 SP1ah  N6ar  1 4.300000e-01    3.160000e+00
 SP1ah  N5ar  1 4.300000e-01    2.930000e+00
 SP1ah  N4ar  1 4.300000e-01    2.930000e+00
 SP1ah  N3ar  1 4.300000e-01    2.770000e+00
 SP1ah  N2ar  1 4.300000e-01    2.770000e+00
 SP1ah  N1ar  1 4.300000e-01    2.770000e+00
 SN6ah  N6ar  1 4.300000e-01    3.160000e+00
 SN6ah  N5ar  1 4.300000e-01    3.160000e+00
 SN6ah  N4ar  1 4.300000e-01    3.160000e+00
 SN6ah  N3ar  1 4.300000e-01    2.920000e+00
 SN6ah  N2ar  1 4.300000e-01    2.770000e+00
 SN6ah  N1ar  1 4.300000e-01    2.770000e+00
 SN5ah  N5ar  1 4.300000e-01    2.930000e+00
 SN5ah  N4ar  1 4.300000e-01    2.930000e+00
 SN5ah  N3ar  1 4.300000e-01    2.920000e+00
 SN5ah  N2ar  1 4.300000e-01    2.920000e+00
 SN5ah  N1ar  1 4.300000e-01    2.770000e+00
 SN4ah  N4ar  1 4.300000e-01    2.930000e+00
 SN4ah  N3ar  1 4.300000e-01    2.920000e+00
 SN4ah  N2ar  1 4.300000e-01    2.920000e+00
 SN4ah  N1ar  1 4.300000e-01    2.770000e+00
 SN3ah  N3ar  1 4.300000e-01    2.920000e+00
 SN3ah  N2ar  1 4.300000e-01    2.920000e+00
 SN3ah  N1ar  1 4.300000e-01    2.770000e+00
 SN2ah  N2ar  1 4.300000e-01    2.920000e+00
 SN2ah  N1ar  1 4.300000e-01    2.770000e+00
 SN1ah  N1ar  1 4.300000e-01    2.920000e+00
  P6ar  SP5a  1 4.300000e-01    3.970000e+00
  P6ar  SP4a  1 4.300000e-01    3.770000e+00
  P6ar  SP3a  1 4.300000e-01    3.590000e+00
  P6ar  SP2a  1 4.300000e-01    3.590000e+00
  P6ar  SP1a  1 4.300000e-01    3.380000e+00
  P6ar  SN6a  1 4.300000e-01    3.160000e+00
  P6ar  SN5a  1 4.300000e-01    2.920000e+00
  P6ar  SN4a  1 4.300000e-01    2.770000e+00
  P6ar  SN3a  1 4.300000e-01    2.770000e+00
  P6ar  SN2a  1 4.300000e-01    2.530000e+00
  P6ar  SN1a  1 4.300000e-01    2.320000e+00
  P5ar  SP4a  1 4.300000e-01    3.590000e+00
  P5ar  SP3a  1 4.300000e-01    3.380000e+00
  P5ar  SP2a  1 4.300000e-01    3.380000e+00
  P5ar  SP1a  1 4.300000e-01    3.160000e+00
  P5ar  SN6a  1 4.300000e-01    2.930000e+00
  P5ar  SN5a  1 4.300000e-01    2.920000e+00
  P5ar  SN4a  1 4.300000e-01    2.920000e+00
  P5ar  SN3a  1 4.300000e-01    2.770000e+00
  P5ar  SN2a  1 4.300000e-01    2.530000e+00
  P5ar  SN1a  1 4.300000e-01    2.320000e+00
  P4ar  SP3a  1 4.300000e-01    3.380000e+00
  P4ar  SP2a  1 4.300000e-01    3.380000e+00
  P4ar  SP1a  1 4.300000e-01    3.160000e+00
  P4ar  SN6a  1 4.300000e-01    2.930000e+00
  P4ar  SN5a  1 4.300000e-01    2.920000e+00
  P4ar  SN4a  1 4.300000e-01    2.920000e+00
  P4ar  SN3a  1 4.300000e-01    2.770000e+00
  P4ar  SN2a  1 4.300000e-01    2.770000e+00
  P4ar  SN1a  1 4.300000e-01    2.530000e+00
  P3ar  SP2a  1 4.300000e-01    3.380000e+00
  P3ar  SP1a  1 4.300000e-01    3.160000e+00
  P3ar  SN6a  1 4.300000e-01    2.930000e+00
  P3ar  SN5a  1 4.300000e-01    2.920000e+00
  P3ar  SN4a  1 4.300000e-01    2.920000e+00
  P3ar  SN3a  1 4.300000e-01    2.770000e+00
  P3ar  SN2a  1 4.300000e-01    2.770000e+00
  P3ar  SN1a  1 4.300000e-01    2.770000e+00
  P2ar  SP1a  1 4.300000e-01    3.160000e+00
  P2ar  SN6a  1 4.300000e-01    3.160000e+00
  P2ar  SN5a  1 4.300000e-01    2.930000e+00
  P2ar  SN4a  1 4.300000e-01    2.920000e+00
  P2ar  SN3a  1 4.300000e-01    2.770000e+00
  P2ar  SN2a  1 4.300000e-01    2.770000e+00
  P2ar  SN1a  1 4.300000e-01    2.770000e+00
  P1ar  SN6a  1 4.300000e-01    3.160000e+00
  P1ar  SN5a  1 4.300000e-01    2.930000e+00
  P1ar  SN4a  1 4.300000e-01    2.930000e+00
  P1ar  SN3a  1 4.300000e-01    2.770000e+00
  P1ar  SN2a  1 4.300000e-01    2.770000e+00
  P1ar  SN1a  1 4.300000e-01    2.770000e+00
  N6ar  SN5a  1 4.300000e-01    3.160000e+00
  N6ar  SN4a  1 4.300000e-01    3.160000e+00
  N6ar  SN3a  1 4.300000e-01    2.920000e+00
  N6ar  SN2a  1 4.300000e-01    2.770000e+00
  N6ar  SN1a  1 4.300000e-01    2.770000e+00
  N5ar  SN4a  1 4.300000e-01    2.930000e+00
  N5ar  SN3a  1 4.300000e-01    2.920000e+00
  N5ar  SN2a  1 4.300000e-01    2.920000e+00
  N5ar  SN1a  1 4.300000e-01    2.770000e+00
  N4ar  SN3a  1 4.300000e-01    2.920000e+00
  N4ar  SN2a  1 4.300000e-01    2.920000e+00
  N4ar  SN1a  1 4.300000e-01    2.770000e+00
  N3ar  SN2a  1 4.300000e-01    2.920000e+00
  N3ar  SN1a  1 4.300000e-01    2.770000e+00
  N2ar  SN1a  1 4.300000e-01    2.770000e+00
 SP6ar   P5a  1 4.300000e-01    3.970000e+00
 SP6ar   P4a  1 4.300000e-01    3.770000e+00
 SP6ar   P3a  1 4.300000e-01    3.590000e+00
 SP6ar   P2a  1 4.300000e-01    3.590000e+00
 SP6ar   P1a  1 4.300000e-01    3.380000e+00
 SP6ar   N6a  1 4.300000e-01    3.160000e+00
 SP6ar   N5a  1 4.300000e-01    2.920000e+00
 SP6ar   N4a  1 4.300000e-01    2.770000e+00
 SP6ar   N3a  1 4.300000e-01    2.770000e+00
 SP6ar   N2a  1 4.300000e-01    2.530000e+00
 SP6ar   N1a  1 4.300000e-01    2.320000e+00
 SP5ar   P4a  1 4.300000e-01    3.590000e+00
 SP5ar   P3a  1 4.300000e-01    3.380000e+00
 SP5ar   P2a  1 4.300000e-01    3.380000e+00
 SP5ar   P1a  1 4.300000e-01    3.160000e+00
 SP5ar   N6a  1 4.300000e-01    2.930000e+00
 SP5ar   N5a  1 4.300000e-01    2.920000e+00
 SP5ar   N4a  1 4.300000e-01    2.920000e+00
 SP5ar   N3a  1 4.300000e-01    2.770000e+00
 SP5ar   N2a  1 4.300000e-01    2.530000e+00
 SP5ar   N1a  1 4.300000e-01    2.320000e+00
 SP4ar   P3a  1 4.300000e-01    3.380000e+00
 SP4ar   P2a  1 4.300000e-01    3.380000e+00
 SP4ar   P1a  1 4.300000e-01    3.160000e+00
 SP4ar   N6a  1 4.300000e-01    2.930000e+00
 SP4ar   N5a  1 4.300000e-01    2.920000e+00
 SP4ar   N4a  1 4.300000e-01    2.920000e+00
 SP4ar   N3a  1 4.300000e-01    2.770000e+00
 SP4ar   N2a  1 4.300000e-01    2.770000e+00
 SP4ar   N1a  1 4.300000e-01    2.530000e+00
 SP3ar   P2a  1 4.300000e-01    3.380000e+00
 SP3ar   P1a  1 4.300000e-01    3.160000e+00
 SP3ar   N6a  1 4.300000e-01    2.930000e+00
 SP3ar   N5a  1 4.300000e-01    2.920000e+00
 SP3ar   N4a  1 4.300000e-01    2.920000e+00
 SP3ar   N3a  1 4.300000e-01    2.770000e+00
 SP3ar   N2a  1 4.300000e-01    2.770000e+00
 SP3ar   N1a  1 4.300000e-01    2.770000e+00
 SP2ar   P1a  1 4.300000e-01    3.160000e+00
 SP2ar   N6a  1 4.300000e-01    3.160000e+00
 SP2ar   N5a  1 4.300000e-01    2.930000e+00
 SP2ar   N4a  1 4.300000e-01    2.920000e+00
 SP2ar   N3a  1 4.300000e-01    2.770000e+00
 SP2ar   N2a  1 4.300000e-01    2.770000e+00
 SP2ar   N1a  1 4.300000e-01    2.770000e+00
 SP1ar   N6a  1 4.300000e-01    3.160000e+00
 SP1ar   N5a  1 4.300000e-01    2.930000e+00
 SP1ar   N4a  1 4.300000e-01    2.930000e+00
 SP1ar   N3a  1 4.300000e-01    2.770000e+00
 SP1ar   N2a  1 4.300000e-01    2.770000e+00
 SP1ar   N1a  1 4.300000e-01    2.770000e+00
 SN6ar   N5a  1 4.300000e-01    3.160000e+00
 SN6ar   N4a  1 4.300000e-01    3.160000e+00
 SN6ar   N3a  1 4.300000e-01    2.920000e+00
 SN6ar   N2a  1 4.300000e-01    2.770000e+00
 SN6ar   N1a  1 4.300000e-01    2.770000e+00
 SN5ar   N4a  1 4.300000e-01    2.930000e+00
 SN5ar   N3a  1 4.300000e-01    2.920000e+00
 SN5ar   N2a  1 4.300000e-01    2.920000e+00
 SN5ar   N1a  1 4.300000e-01    2.770000e+00
 SN4ar   N3a  1 4.300000e-01    2.920000e+00
 SN4ar   N2a  1 4.300000e-01    2.920000e+00
 SN4ar   N1a  1 4.300000e-01    2.770000e+00
 SN3ar   N2a  1 4.300000e-01    2.920000e+00
 SN3ar   N1a  1 4.300000e-01    2.770000e+00
 SN2ar   N1a  1 4.300000e-01    2.770000e+00
  P6ar SP6aq  1 4.300000e-01    4.680000e+00
  P6ar SN1aq  1 4.300000e-01    2.770000e+00
  P6ar SN2aq  1 4.300000e-01    2.920000e+00
  P6ar SN3aq  1 4.300000e-01    2.930000e+00
  P6ar SN4aq  1 4.300000e-01    2.930000e+00
  P6ar SN5aq  1 4.300000e-01    3.160000e+00
  P6ar SN6aq  1 4.300000e-01    3.590000e+00
  P6ar SP1aq  1 4.300000e-01    3.770000e+00
  P6ar SP2aq  1 4.300000e-01    3.970000e+00
  P6ar SP3aq  1 4.300000e-01    3.970000e+00
  P6ar SP4aq  1 4.300000e-01    4.170000e+00
  P6ar SP5aq  1 4.300000e-01    4.400000e+00
  P5ar SP5aq  1 4.300000e-01    4.170000e+00
  P5ar SN1aq  1 4.300000e-01    2.770000e+00
  P5ar SN2aq  1 4.300000e-01    2.920000e+00
  P5ar SN3aq  1 4.300000e-01    2.930000e+00
  P5ar SN4aq  1 4.300000e-01    3.160000e+00
  P5ar SN5aq  1 4.300000e-01    3.160000e+00
  P5ar SN6aq  1 4.300000e-01    3.380000e+00
  P5ar SP1aq  1 4.300000e-01    3.590000e+00
  P5ar SP2aq  1 4.300000e-01    3.770000e+00
  P5ar SP3aq  1 4.300000e-01    3.770000e+00
  P5ar SP4aq  1 4.300000e-01    3.970000e+00
  P4ar SP4aq  1 4.300000e-01    3.970000e+00
  P4ar SN1aq  1 4.300000e-01    2.920000e+00
  P4ar SN2aq  1 4.300000e-01    2.930000e+00
  P4ar SN3aq  1 4.300000e-01    2.930000e+00
  P4ar SN4aq  1 4.300000e-01    3.160000e+00
  P4ar SN5aq  1 4.300000e-01    3.160000e+00
  P4ar SN6aq  1 4.300000e-01    3.380000e+00
  P4ar SP1aq  1 4.300000e-01    3.590000e+00
  P4ar SP2aq  1 4.300000e-01    3.770000e+00
  P4ar SP3aq  1 4.300000e-01    3.770000e+00
  P3ar SP3aq  1 4.300000e-01    3.770000e+00
  P3ar SN1aq  1 4.300000e-01    2.930000e+00
  P3ar SN2aq  1 4.300000e-01    2.930000e+00
  P3ar SN3aq  1 4.300000e-01    2.930000e+00
  P3ar SN4aq  1 4.300000e-01    3.160000e+00
  P3ar SN5aq  1 4.300000e-01    3.160000e+00
  P3ar SN6aq  1 4.300000e-01    3.380000e+00
  P3ar SP1aq  1 4.300000e-01    3.590000e+00
  P3ar SP2aq  1 4.300000e-01    3.770000e+00
  P2ar SP2aq  1 4.300000e-01    3.770000e+00
  P2ar SN1aq  1 4.300000e-01    2.930000e+00
  P2ar SN2aq  1 4.300000e-01    2.930000e+00
  P2ar SN3aq  1 4.300000e-01    2.930000e+00
  P2ar SN4aq  1 4.300000e-01    3.160000e+00
  P2ar SN5aq  1 4.300000e-01    3.380000e+00
  P2ar SN6aq  1 4.300000e-01    3.590000e+00
  P2ar SP1aq  1 4.300000e-01    3.590000e+00
  P1ar SP1aq  1 4.300000e-01    3.590000e+00
  P1ar SN1aq  1 4.300000e-01    2.930000e+00
  P1ar SN2aq  1 4.300000e-01    2.930000e+00
  P1ar SN3aq  1 4.300000e-01    2.930000e+00
  P1ar SN4aq  1 4.300000e-01    3.380000e+00
  P1ar SN5aq  1 4.300000e-01    3.380000e+00
  P1ar SN6aq  1 4.300000e-01    3.590000e+00
  N6ar SN6aq  1 4.300000e-01    3.590000e+00
  N6ar SN1aq  1 4.300000e-01    2.930000e+00
  N6ar SN2aq  1 4.300000e-01    2.930000e+00
  N6ar SN3aq  1 4.300000e-01    3.160000e+00
  N6ar SN4aq  1 4.300000e-01    3.590000e+00
  N6ar SN5aq  1 4.300000e-01    3.590000e+00
  N5ar SN5aq  1 4.300000e-01    3.380000e+00
  N5ar SN1aq  1 4.300000e-01    2.930000e+00
  N5ar SN2aq  1 4.300000e-01    3.160000e+00
  N5ar SN3aq  1 4.300000e-01    3.160000e+00
  N5ar SN4aq  1 4.300000e-01    3.380000e+00
  N4ar SN4aq  1 4.300000e-01    3.380000e+00
  N4ar SN1aq  1 4.300000e-01    2.930000e+00
  N4ar SN2aq  1 4.300000e-01    3.160000e+00
  N4ar SN3aq  1 4.300000e-01    3.160000e+00
  N3ar SN3aq  1 4.300000e-01    3.160000e+00
  N3ar SN1aq  1 4.300000e-01    2.930000e+00
  N3ar SN2aq  1 4.300000e-01    3.160000e+00
  N2ar SN2aq  1 4.300000e-01    3.160000e+00
  N2ar SN1aq  1 4.300000e-01    2.930000e+00
  N1ar SN1aq  1 4.300000e-01    3.160000e+00
 SP6ar  P6aq  1 4.300000e-01    4.680000e+00
 SP6ar  N1aq  1 4.300000e-01    2.770000e+00
 SP6ar  N2aq  1 4.300000e-01    2.920000e+00
 SP6ar  N3aq  1 4.300000e-01    2.930000e+00
 SP6ar  N4aq  1 4.300000e-01    2.930000e+00
 SP6ar  N5aq  1 4.300000e-01    3.160000e+00
 SP6ar  N6aq  1 4.300000e-01    3.590000e+00
 SP6ar  P1aq  1 4.300000e-01    3.770000e+00
 SP6ar  P2aq  1 4.300000e-01    3.970000e+00
 SP6ar  P3aq  1 4.300000e-01    3.970000e+00
 SP6ar  P4aq  1 4.300000e-01    4.170000e+00
 SP6ar  P5aq  1 4.300000e-01    4.400000e+00
 SP5ar  P5aq  1 4.300000e-01    4.170000e+00
 SP5ar  N1aq  1 4.300000e-01    2.770000e+00
 SP5ar  N2aq  1 4.300000e-01    2.920000e+00
 SP5ar  N3aq  1 4.300000e-01    2.930000e+00
 SP5ar  N4aq  1 4.300000e-01    3.160000e+00
 SP5ar  N5aq  1 4.300000e-01    3.160000e+00
 SP5ar  N6aq  1 4.300000e-01    3.380000e+00
 SP5ar  P1aq  1 4.300000e-01    3.590000e+00
 SP5ar  P2aq  1 4.300000e-01    3.770000e+00
 SP5ar  P3aq  1 4.300000e-01    3.770000e+00
 SP5ar  P4aq  1 4.300000e-01    3.970000e+00
 SP4ar  P4aq  1 4.300000e-01    3.970000e+00
 SP4ar  N1aq  1 4.300000e-01    2.920000e+00
 SP4ar  N2aq  1 4.300000e-01    2.930000e+00
 SP4ar  N3aq  1 4.300000e-01    2.930000e+00
 SP4ar  N4aq  1 4.300000e-01    3.160000e+00
 SP4ar  N5aq  1 4.300000e-01    3.160000e+00
 SP4ar  N6aq  1 4.300000e-01    3.380000e+00
 SP4ar  P1aq  1 4.300000e-01    3.590000e+00
 SP4ar  P2aq  1 4.300000e-01    3.770000e+00
 SP4ar  P3aq  1 4.300000e-01    3.770000e+00
 SP3ar  P3aq  1 4.300000e-01    3.770000e+00
 SP3ar  N1aq  1 4.300000e-01    2.930000e+00
 SP3ar  N2aq  1 4.300000e-01    2.930000e+00
 SP3ar  N3aq  1 4.300000e-01    2.930000e+00
 SP3ar  N4aq  1 4.300000e-01    3.160000e+00
 SP3ar  N5aq  1 4.300000e-01    3.160000e+00
 SP3ar  N6aq  1 4.300000e-01    3.380000e+00
 SP3ar  P1aq  1 4.300000e-01    3.590000e+00
 SP3ar  P2aq  1 4.300000e-01    3.770000e+00
 SP2ar  P2aq  1 4.300000e-01    3.770000e+00
 SP2ar  N1aq  1 4.300000e-01    2.930000e+00
 SP2ar  N2aq  1 4.300000e-01    2.930000e+00
 SP2ar  N3aq  1 4.300000e-01    2.930000e+00
 SP2ar  N4aq  1 4.300000e-01    3.160000e+00
 SP2ar  N5aq  1 4.300000e-01    3.380000e+00
 SP2ar  N6aq  1 4.300000e-01    3.590000e+00
 SP2ar  P1aq  1 4.300000e-01    3.590000e+00
 SP1ar  P1aq  1 4.300000e-01    3.590000e+00
 SP1ar  N1aq  1 4.300000e-01    2.930000e+00
 SP1ar  N2aq  1 4.300000e-01    2.930000e+00
 SP1ar  N3aq  1 4.300000e-01    2.930000e+00
 SP1ar  N4aq  1 4.300000e-01    3.380000e+00
 SP1ar  N5aq  1 4.300000e-01    3.380000e+00
 SP1ar  N6aq  1 4.300000e-01    3.590000e+00
 SN6ar  N6aq  1 4.300000e-01    3.590000e+00
 SN6ar  N1aq  1 4.300000e-01    2.930000e+00
 SN6ar  N2aq  1 4.300000e-01    2.930000e+00
 SN6ar  N3aq  1 4.300000e-01    3.160000e+00
 SN6ar  N4aq  1 4.300000e-01    3.590000e+00
 SN6ar  N5aq  1 4.300000e-01    3.590000e+00
 SN5ar  N5aq  1 4.300000e-01    3.380000e+00
 SN5ar  N1aq  1 4.300000e-01    2.930000e+00
 SN5ar  N2aq  1 4.300000e-01    3.160000e+00
 SN5ar  N3aq  1 4.300000e-01    3.160000e+00
 SN5ar  N4aq  1 4.300000e-01    3.380000e+00
 SN4ar  N4aq  1 4.300000e-01    3.380000e+00
 SN4ar  N1aq  1 4.300000e-01    2.930000e+00
 SN4ar  N2aq  1 4.300000e-01    3.160000e+00
 SN4ar  N3aq  1 4.300000e-01    3.160000e+00
 SN3ar  N3aq  1 4.300000e-01    3.160000e+00
 SN3ar  N1aq  1 4.300000e-01    2.930000e+00
 SN3ar  N2aq  1 4.300000e-01    3.160000e+00
 SN2ar  N2aq  1 4.300000e-01    3.160000e+00
 SN2ar  N1aq  1 4.300000e-01    2.930000e+00
 SN1ar  N1aq  1 4.300000e-01    3.160000e+00
  P6ar SP5ah  1 4.300000e-01    3.970000e+00
  P6ar SP4ah  1 4.300000e-01    3.770000e+00
  P6ar SP3ah  1 4.300000e-01    3.590000e+00
  P6ar SP2ah  1 4.300000e-01    3.590000e+00
  P6ar SP1ah  1 4.300000e-01    3.380000e+00
  P6ar SN6ah  1 4.300000e-01    3.160000e+00
  P6ar SN5ah  1 4.300000e-01    2.920000e+00
  P6ar SN4ah  1 4.300000e-01    2.770000e+00
  P6ar SN3ah  1 4.300000e-01    2.770000e+00
  P6ar SN2ah  1 4.300000e-01    2.530000e+00
  P6ar SN1ah  1 4.300000e-01    2.320000e+00
  P5ar SP4ah  1 4.300000e-01    3.590000e+00
  P5ar SP3ah  1 4.300000e-01    3.380000e+00
  P5ar SP2ah  1 4.300000e-01    3.380000e+00
  P5ar SP1ah  1 4.300000e-01    3.160000e+00
  P5ar SN6ah  1 4.300000e-01    2.930000e+00
  P5ar SN5ah  1 4.300000e-01    2.920000e+00
  P5ar SN4ah  1 4.300000e-01    2.920000e+00
  P5ar SN3ah  1 4.300000e-01    2.770000e+00
  P5ar SN2ah  1 4.300000e-01    2.530000e+00
  P5ar SN1ah  1 4.300000e-01    2.320000e+00
  P4ar SP3ah  1 4.300000e-01    3.380000e+00
  P4ar SP2ah  1 4.300000e-01    3.380000e+00
  P4ar SP1ah  1 4.300000e-01    3.160000e+00
  P4ar SN6ah  1 4.300000e-01    2.930000e+00
  P4ar SN5ah  1 4.300000e-01    2.920000e+00
  P4ar SN4ah  1 4.300000e-01    2.920000e+00
  P4ar SN3ah  1 4.300000e-01    2.770000e+00
  P4ar SN2ah  1 4.300000e-01    2.770000e+00
  P4ar SN1ah  1 4.300000e-01    2.530000e+00
  P3ar SP2ah  1 4.300000e-01    3.380000e+00
  P3ar SP1ah  1 4.300000e-01    3.160000e+00
  P3ar SN6ah  1 4.300000e-01    2.930000e+00
  P3ar SN5ah  1 4.300000e-01    2.920000e+00
  P3ar SN4ah  1 4.300000e-01    2.920000e+00
  P3ar SN3ah  1 4.300000e-01    2.770000e+00
  P3ar SN2ah  1 4.300000e-01    2.770000e+00
  P3ar SN1ah  1 4.300000e-01    2.770000e+00
  P2ar SP1ah  1 4.300000e-01    3.160000e+00
  P2ar SN6ah  1 4.300000e-01    3.160000e+00
  P2ar SN5ah  1 4.300000e-01    2.930000e+00
  P2ar SN4ah  1 4.300000e-01    2.920000e+00
  P2ar SN3ah  1 4.300000e-01    2.770000e+00
  P2ar SN2ah  1 4.300000e-01    2.770000e+00
  P2ar SN1ah  1 4.300000e-01    2.770000e+00
  P1ar SN6ah  1 4.300000e-01    3.160000e+00
  P1ar SN5ah  1 4.300000e-01    2.930000e+00
  P1ar SN4ah  1 4.300000e-01    2.930000e+00
  P1ar SN3ah  1 4.300000e-01    2.770000e+00
  P1ar SN2ah  1 4.300000e-01    2.770000e+00
  P1ar SN1ah  1 4.300000e-01    2.770000e+00
  N6ar SN5ah  1 4.300000e-01    3.160000e+00
  N6ar SN4ah  1 4.300000e-01    3.160000e+00
  N6ar SN3ah  1 4.300000e-01    2.920000e+00
  N6ar SN2ah  1 4.300000e-01    2.770000e+00
  N6ar SN1ah  1 4.300000e-01    2.770000e+00
  N5ar SN4ah  1 4.300000e-01    2.930000e+00
  N5ar SN3ah  1 4.300000e-01    2.920000e+00
  N5ar SN2ah  1 4.300000e-01    2.920000e+00
  N5ar SN1ah  1 4.300000e-01    2.770000e+00
  N4ar SN3ah  1 4.300000e-01    2.920000e+00
  N4ar SN2ah  1 4.300000e-01    2.920000e+00
  N4ar SN1ah  1 4.300000e-01    2.770000e+00
  N3ar SN2ah  1 4.300000e-01    2.920000e+00
  N3ar SN1ah  1 4.300000e-01    2.770000e+00
  N2ar SN1ah  1 4.300000e-01    2.770000e+00
 SP6ar  P5ah  1 4.300000e-01    3.970000e+00
 SP6ar  P4ah  1 4.300000e-01    3.770000e+00
 SP6ar  P3ah  1 4.300000e-01    3.590000e+00
 SP6ar  P2ah  1 4.300000e-01    3.590000e+00
 SP6ar  P1ah  1 4.300000e-01    3.380000e+00
 SP6ar  N6ah  1 4.300000e-01    3.160000e+00
 SP6ar  N5ah  1 4.300000e-01    2.920000e+00
 SP6ar  N4ah  1 4.300000e-01    2.770000e+00
 SP6ar  N3ah  1 4.300000e-01    2.770000e+00
 SP6ar  N2ah  1 4.300000e-01    2.530000e+00
 SP6ar  N1ah  1 4.300000e-01    2.320000e+00
 SP5ar  P4ah  1 4.300000e-01    3.590000e+00
 SP5ar  P3ah  1 4.300000e-01    3.380000e+00
 SP5ar  P2ah  1 4.300000e-01    3.380000e+00
 SP5ar  P1ah  1 4.300000e-01    3.160000e+00
 SP5ar  N6ah  1 4.300000e-01    2.930000e+00
 SP5ar  N5ah  1 4.300000e-01    2.920000e+00
 SP5ar  N4ah  1 4.300000e-01    2.920000e+00
 SP5ar  N3ah  1 4.300000e-01    2.770000e+00
 SP5ar  N2ah  1 4.300000e-01    2.530000e+00
 SP5ar  N1ah  1 4.300000e-01    2.320000e+00
 SP4ar  P3ah  1 4.300000e-01    3.380000e+00
 SP4ar  P2ah  1 4.300000e-01    3.380000e+00
 SP4ar  P1ah  1 4.300000e-01    3.160000e+00
 SP4ar  N6ah  1 4.300000e-01    2.930000e+00
 SP4ar  N5ah  1 4.300000e-01    2.920000e+00
 SP4ar  N4ah  1 4.300000e-01    2.920000e+00
 SP4ar  N3ah  1 4.300000e-01    2.770000e+00
 SP4ar  N2ah  1 4.300000e-01    2.770000e+00
 SP4ar  N1ah  1 4.300000e-01    2.530000e+00
 SP3ar  P2ah  1 4.300000e-01    3.380000e+00
 SP3ar  P1ah  1 4.300000e-01    3.160000e+00
 SP3ar  N6ah  1 4.300000e-01    2.930000e+00
 SP3ar  N5ah  1 4.300000e-01    2.920000e+00
 SP3ar  N4ah  1 4.300000e-01    2.920000e+00
 SP3ar  N3ah  1 4.300000e-01    2.770000e+00
 SP3ar  N2ah  1 4.300000e-01    2.770000e+00
 SP3ar  N1ah  1 4.300000e-01    2.770000e+00
 SP2ar  P1ah  1 4.300000e-01    3.160000e+00
 SP2ar  N6ah  1 4.300000e-01    3.160000e+00
 SP2ar  N5ah  1 4.300000e-01    2.930000e+00
 SP2ar  N4ah  1 4.300000e-01    2.920000e+00
 SP2ar  N3ah  1 4.300000e-01    2.770000e+00
 SP2ar  N2ah  1 4.300000e-01    2.770000e+00
 SP2ar  N1ah  1 4.300000e-01    2.770000e+00
 SP1ar  N6ah  1 4.300000e-01    3.160000e+00
 SP1ar  N5ah  1 4.300000e-01    2.930000e+00
 SP1ar  N4ah  1 4.300000e-01    2.930000e+00
 SP1ar  N3ah  1 4.300000e-01    2.770000e+00
 SP1ar  N2ah  1 4.300000e-01    2.770000e+00
 SP1ar  N1ah  1 4.300000e-01    2.770000e+00
 SN6ar  N5ah  1 4.300000e-01    3.160000e+00
 SN6ar  N4ah  1 4.300000e-01    3.160000e+00
 SN6ar  N3ah  1 4.300000e-01    2.920000e+00
 SN6ar  N2ah  1 4.300000e-01    2.770000e+00
 SN6ar  N1ah  1 4.300000e-01    2.770000e+00
 SN5ar  N4ah  1 4.300000e-01    2.930000e+00
 SN5ar  N3ah  1 4.300000e-01    2.920000e+00
 SN5ar  N2ah  1 4.300000e-01    2.920000e+00
 SN5ar  N1ah  1 4.300000e-01    2.770000e+00
 SN4ar  N3ah  1 4.300000e-01    2.920000e+00
 SN4ar  N2ah  1 4.300000e-01    2.920000e+00
 SN4ar  N1ah  1 4.300000e-01    2.770000e+00
 SN3ar  N2ah  1 4.300000e-01    2.920000e+00
 SN3ar  N1ah  1 4.300000e-01    2.770000e+00
 SN2ar  N1ah  1 4.300000e-01    2.770000e+00
  P6ar SP6ar  1 4.300000e-01    3.970000e+00
  P5ar SP5ar  1 4.300000e-01    3.590000e+00
  P4ar SP4ar  1 4.300000e-01    3.380000e+00
  P3ar SP3ar  1 4.300000e-01    3.160000e+00
  P2ar SP2ar  1 4.300000e-01    3.160000e+00
  P1ar SP1ar  1 4.300000e-01    2.930000e+00
  N6ar SN6ar  1 4.300000e-01    2.930000e+00
  N5ar SN5ar  1 4.300000e-01    2.920000e+00
  N4ar SN4ar  1 4.300000e-01    2.920000e+00
  N3ar SN3ar  1 4.300000e-01    2.770000e+00
  N2ar SN2ar  1 4.300000e-01    2.770000e+00
  N1ar SN1ar  1 4.300000e-01    2.770000e+00
  P6ar SP5ar  1 4.300000e-01    3.770000e+00
  P6ar SP4ar  1 4.300000e-01    3.590000e+00
  P6ar SP3ar  1 4.300000e-01    3.380000e+00
  P6ar SP2ar  1 4.300000e-01    3.380000e+00
  P6ar SP1ar  1 4.300000e-01    3.160000e+00
  P6ar SN6ar  1 4.300000e-01    2.930000e+00
  P6ar SN5ar  1 4.300000e-01    2.770000e+00
  P6ar SN4ar  1 4.300000e-01    2.530000e+00
  P6ar SN3ar  1 4.300000e-01    2.530000e+00
  P6ar SN2ar  1 4.300000e-01    2.320000e+00
  P6ar SN1ar  1 4.300000e-01    2.160000e+00
  P5ar SP4ar  1 4.300000e-01    3.380000e+00
  P5ar SP3ar  1 4.300000e-01    3.160000e+00
  P5ar SP2ar  1 4.300000e-01    3.160000e+00
  P5ar SP1ar  1 4.300000e-01    2.930000e+00
  P5ar SN6ar  1 4.300000e-01    2.920000e+00
  P5ar SN5ar  1 4.300000e-01    2.770000e+00
  P5ar SN4ar  1 4.300000e-01    2.770000e+00
  P5ar SN3ar  1 4.300000e-01    2.530000e+00
  P5ar SN2ar  1 4.300000e-01    2.320000e+00
  P5ar SN1ar  1 4.300000e-01    2.160000e+00
  P4ar SP3ar  1 4.300000e-01    3.160000e+00
  P4ar SP2ar  1 4.300000e-01    3.160000e+00
  P4ar SP1ar  1 4.300000e-01    2.930000e+00
  P4ar SN6ar  1 4.300000e-01    2.920000e+00
  P4ar SN5ar  1 4.300000e-01    2.770000e+00
  P4ar SN4ar  1 4.300000e-01    2.770000e+00
  P4ar SN3ar  1 4.300000e-01    2.530000e+00
  P4ar SN2ar  1 4.300000e-01    2.530000e+00
  P4ar SN1ar  1 4.300000e-01    2.320000e+00
  P3ar SP2ar  1 4.300000e-01    3.160000e+00
  P3ar SP1ar  1 4.300000e-01    2.930000e+00
  P3ar SN6ar  1 4.300000e-01    2.920000e+00
  P3ar SN5ar  1 4.300000e-01    2.770000e+00
  P3ar SN4ar  1 4.300000e-01    2.770000e+00
  P3ar SN3ar  1 4.300000e-01    2.530000e+00
  P3ar SN2ar  1 4.300000e-01    2.530000e+00
  P3ar SN1ar  1 4.300000e-01    2.530000e+00
  P2ar SP1ar  1 4.300000e-01    2.930000e+00
  P2ar SN6ar  1 4.300000e-01    2.930000e+00
  P2ar SN5ar  1 4.300000e-01    2.920000e+00
  P2ar SN4ar  1 4.300000e-01    2.770000e+00
  P2ar SN3ar  1 4.300000e-01    2.530000e+00
  P2ar SN2ar  1 4.300000e-01    2.530000e+00
  P2ar SN1ar  1 4.300000e-01    2.530000e+00
  P1ar SN6ar  1 4.300000e-01    2.930000e+00
  P1ar SN5ar  1 4.300000e-01    2.920000e+00
  P1ar SN4ar  1 4.300000e-01    2.920000e+00
  P1ar SN3ar  1 4.300000e-01    2.530000e+00
  P1ar SN2ar  1 4.300000e-01    2.530000e+00
  P1ar SN1ar  1 4.300000e-01    2.530000e+00
  N6ar SN5ar  1 4.300000e-01    2.930000e+00
  N6ar SN4ar  1 4.300000e-01    2.930000e+00
  N6ar SN3ar  1 4.300000e-01    2.770000e+00
  N6ar SN2ar  1 4.300000e-01    2.530000e+00
  N6ar SN1ar  1 4.300000e-01    2.530000e+00
  N5ar SN4ar  1 4.300000e-01    2.920000e+00
  N5ar SN3ar  1 4.300000e-01    2.770000e+00
  N5ar SN2ar  1 4.300000e-01    2.770000e+00
  N5ar SN1ar  1 4.300000e-01    2.530000e+00
  N4ar SN3ar  1 4.300000e-01    2.770000e+00
  N4ar SN2ar  1 4.300000e-01    2.770000e+00
  N4ar SN1ar  1 4.300000e-01    2.530000e+00
  N3ar SN2ar  1 4.300000e-01    2.770000e+00
  N3ar SN1ar  1 4.300000e-01    2.530000e+00
  N2ar SN1ar  1 4.300000e-01    2.530000e+00
 SP6ar  P5ar  1 4.300000e-01    3.770000e+00
 SP6ar  P4ar  1 4.300000e-01    3.590000e+00
 SP6ar  P3ar  1 4.300000e-01    3.380000e+00
 SP6ar  P2ar  1 4.300000e-01    3.380000e+00
 SP6ar  P1ar  1 4.300000e-01    3.160000e+00
 SP6ar  N6ar  1 4.300000e-01    2.930000e+00
 SP6ar  N5ar  1 4.300000e-01    2.770000e+00
 SP6ar  N4ar  1 4.300000e-01    2.530000e+00
 SP6ar  N3ar  1 4.300000e-01    2.530000e+00
 SP6ar  N2ar  1 4.300000e-01    2.320000e+00
 SP6ar  N1ar  1 4.300000e-01    2.160000e+00
 SP5ar  P4ar  1 4.300000e-01    3.380000e+00
 SP5ar  P3ar  1 4.300000e-01    3.160000e+00
 SP5ar  P2ar  1 4.300000e-01    3.160000e+00
 SP5ar  P1ar  1 4.300000e-01    2.930000e+00
 SP5ar  N6ar  1 4.300000e-01    2.920000e+00
 SP5ar  N5ar  1 4.300000e-01    2.770000e+00
 SP5ar  N4ar  1 4.300000e-01    2.770000e+00
 SP5ar  N3ar  1 4.300000e-01    2.530000e+00
 SP5ar  N2ar  1 4.300000e-01    2.320000e+00
 SP5ar  N1ar  1 4.300000e-01    2.160000e+00
 SP4ar  P3ar  1 4.300000e-01    3.160000e+00
 SP4ar  P2ar  1 4.300000e-01    3.160000e+00
 SP4ar  P1ar  1 4.300000e-01    2.930000e+00
 SP4ar  N6ar  1 4.300000e-01    2.920000e+00
 SP4ar  N5ar  1 4.300000e-01    2.770000e+00
 SP4ar  N4ar  1 4.300000e-01    2.770000e+00
 SP4ar  N3ar  1 4.300000e-01    2.530000e+00
 SP4ar  N2ar  1 4.300000e-01    2.530000e+00
 SP4ar  N1ar  1 4.300000e-01    2.320000e+00
 SP3ar  P2ar  1 4.300000e-01    3.160000e+00
 SP3ar  P1ar  1 4.300000e-01    2.930000e+00
 SP3ar  N6ar  1 4.300000e-01    2.920000e+00
 SP3ar  N5ar  1 4.300000e-01    2.770000e+00
 SP3ar  N4ar  1 4.300000e-01    2.770000e+00
 SP3ar  N3ar  1 4.300000e-01    2.530000e+00
 SP3ar  N2ar  1 4.300000e-01    2.530000e+00
 SP3ar  N1ar  1 4.300000e-01    2.530000e+00
 SP2ar  P1ar  1 4.300000e-01    2.930000e+00
 SP2ar  N6ar  1 4.300000e-01    2.930000e+00
 SP2ar  N5ar  1 4.300000e-01    2.920000e+00
 SP2ar  N4ar  1 4.300000e-01    2.770000e+00
 SP2ar  N3ar  1 4.300000e-01    2.530000e+00
 SP2ar  N2ar  1 4.300000e-01    2.530000e+00
 SP2ar  N1ar  1 4.300000e-01    2.530000e+00
 SP1ar  N6ar  1 4.300000e-01    2.930000e+00
 SP1ar  N5ar  1 4.300000e-01    2.920000e+00
 SP1ar  N4ar  1 4.300000e-01    2.920000e+00
 SP1ar  N3ar  1 4.300000e-01    2.530000e+00
 SP1ar  N2ar  1 4.300000e-01    2.530000e+00
 SP1ar  N1ar  1 4.300000e-01    2.530000e+00
 SN6ar  N5ar  1 4.300000e-01    2.930000e+00
 SN6ar  N4ar  1 4.300000e-01    2.930000e+00
 SN6ar  N3ar  1 4.300000e-01    2.770000e+00
 SN6ar  N2ar  1 4.300000e-01    2.530000e+00
 SN6ar  N1ar  1 4.300000e-01    2.530000e+00
 SN5ar  N4ar  1 4.300000e-01    2.920000e+00
 SN5ar  N3ar  1 4.300000e-01    2.770000e+00
 SN5ar  N2ar  1 4.300000e-01    2.770000e+00
 SN5ar  N1ar  1 4.300000e-01    2.530000e+00
 SN4ar  N3ar  1 4.300000e-01    2.770000e+00
 SN4ar  N2ar  1 4.300000e-01    2.770000e+00
 SN4ar  N1ar  1 4.300000e-01    2.530000e+00
 SN3ar  N2ar  1 4.300000e-01    2.770000e+00
 SN3ar  N1ar  1 4.300000e-01    2.530000e+00
 SN2ar  N1ar  1 4.300000e-01    2.530000e+00
   P6d  SP6d  1 4.300000e-01    4.170000e+00
   P6d  SP5d  1 4.300000e-01    3.970000e+00
   P6d  SP4d  1 4.300000e-01    3.770000e+00
   P6d  SP3d  1 4.300000e-01    3.590000e+00
   P6d  SP2d  1 4.300000e-01    3.590000e+00
   P6d  SP1d  1 4.300000e-01    3.380000e+00
   P6d  SN6d  1 4.300000e-01    3.160000e+00
   P6d  SN5d  1 4.300000e-01    2.920000e+00
   P6d  SN4d  1 4.300000e-01    2.770000e+00
   P6d  SN3d  1 4.300000e-01    2.770000e+00
   P6d  SN2d  1 4.300000e-01    2.530000e+00
   P6d  SN1d  1 4.300000e-01    2.320000e+00
   P5d  SP5d  1 4.300000e-01    3.770000e+00
   P5d  SP4d  1 4.300000e-01    3.590000e+00
   P5d  SP3d  1 4.300000e-01    3.380000e+00
   P5d  SP2d  1 4.300000e-01    3.380000e+00
   P5d  SP1d  1 4.300000e-01    3.160000e+00
   P5d  SN6d  1 4.300000e-01    2.930000e+00
   P5d  SN5d  1 4.300000e-01    2.920000e+00
   P5d  SN4d  1 4.300000e-01    2.920000e+00
   P5d  SN3d  1 4.300000e-01    2.770000e+00
   P5d  SN2d  1 4.300000e-01    2.530000e+00
   P5d  SN1d  1 4.300000e-01    2.320000e+00
   P4d  SP4d  1 4.300000e-01    3.590000e+00
   P4d  SP3d  1 4.300000e-01    3.380000e+00
   P4d  SP2d  1 4.300000e-01    3.380000e+00
   P4d  SP1d  1 4.300000e-01    3.160000e+00
   P4d  SN6d  1 4.300000e-01    2.930000e+00
   P4d  SN5d  1 4.300000e-01    2.920000e+00
   P4d  SN4d  1 4.300000e-01    2.920000e+00
   P4d  SN3d  1 4.300000e-01    2.770000e+00
   P4d  SN2d  1 4.300000e-01    2.770000e+00
   P4d  SN1d  1 4.300000e-01    2.530000e+00
   P3d  SP3d  1 4.300000e-01    3.380000e+00
   P3d  SP2d  1 4.300000e-01    3.380000e+00
   P3d  SP1d  1 4.300000e-01    3.160000e+00
   P3d  SN6d  1 4.300000e-01    2.930000e+00
   P3d  SN5d  1 4.300000e-01    2.920000e+00
   P3d  SN4d  1 4.300000e-01    2.920000e+00
   P3d  SN3d  1 4.300000e-01    2.770000e+00
   P3d  SN2d  1 4.300000e-01    2.770000e+00
   P3d  SN1d  1 4.300000e-01    2.770000e+00
   P2d  SP2d  1 4.300000e-01    3.380000e+00
   P2d  SP1d  1 4.300000e-01    3.160000e+00
   P2d  SN6d  1 4.300000e-01    3.160000e+00
   P2d  SN5d  1 4.300000e-01    2.930000e+00
   P2d  SN4d  1 4.300000e-01    2.920000e+00
   P2d  SN3d  1 4.300000e-01    2.770000e+00
   P2d  SN2d  1 4.300000e-01    2.770000e+00
   P2d  SN1d  1 4.300000e-01    2.770000e+00
   P1d  SP1d  1 4.300000e-01    3.160000e+00
   P1d  SN6d  1 4.300000e-01    3.160000e+00
   P1d  SN5d  1 4.300000e-01    2.930000e+00
   P1d  SN4d  1 4.300000e-01    2.930000e+00
   P1d  SN3d  1 4.300000e-01    2.770000e+00
   P1d  SN2d  1 4.300000e-01    2.770000e+00
   P1d  SN1d  1 4.300000e-01    2.770000e+00
   N6d  SN6d  1 4.300000e-01    3.160000e+00
   N6d  SN5d  1 4.300000e-01    3.160000e+00
   N6d  SN4d  1 4.300000e-01    3.160000e+00
   N6d  SN3d  1 4.300000e-01    2.920000e+00
   N6d  SN2d  1 4.300000e-01    2.770000e+00
   N6d  SN1d  1 4.300000e-01    2.770000e+00
   N5d  SN5d  1 4.300000e-01    2.930000e+00
   N5d  SN4d  1 4.300000e-01    2.930000e+00
   N5d  SN3d  1 4.300000e-01    2.920000e+00
   N5d  SN2d  1 4.300000e-01    2.920000e+00
   N5d  SN1d  1 4.300000e-01    2.770000e+00
   N4d  SN4d  1 4.300000e-01    2.930000e+00
   N4d  SN3d  1 4.300000e-01    2.920000e+00
   N4d  SN2d  1 4.300000e-01    2.920000e+00
   N4d  SN1d  1 4.300000e-01    2.770000e+00
   N3d  SN3d  1 4.300000e-01    2.920000e+00
   N3d  SN2d  1 4.300000e-01    2.920000e+00
   N3d  SN1d  1 4.300000e-01    2.770000e+00
   N2d  SN2d  1 4.300000e-01    2.920000e+00
   N2d  SN1d  1 4.300000e-01    2.770000e+00
   N1d  SN1d  1 4.300000e-01    2.920000e+00
  SP6d   P5d  1 4.300000e-01    3.970000e+00
  SP6d   P4d  1 4.300000e-01    3.770000e+00
  SP6d   P3d  1 4.300000e-01    3.590000e+00
  SP6d   P2d  1 4.300000e-01    3.590000e+00
  SP6d   P1d  1 4.300000e-01    3.380000e+00
  SP6d   N6d  1 4.300000e-01    3.160000e+00
  SP6d   N5d  1 4.300000e-01    2.920000e+00
  SP6d   N4d  1 4.300000e-01    2.770000e+00
  SP6d   N3d  1 4.300000e-01    2.770000e+00
  SP6d   N2d  1 4.300000e-01    2.530000e+00
  SP6d   N1d  1 4.300000e-01    2.320000e+00
  SP5d   P4d  1 4.300000e-01    3.590000e+00
  SP5d   P3d  1 4.300000e-01    3.380000e+00
  SP5d   P2d  1 4.300000e-01    3.380000e+00
  SP5d   P1d  1 4.300000e-01    3.160000e+00
  SP5d   N6d  1 4.300000e-01    2.930000e+00
  SP5d   N5d  1 4.300000e-01    2.920000e+00
  SP5d   N4d  1 4.300000e-01    2.920000e+00
  SP5d   N3d  1 4.300000e-01    2.770000e+00
  SP5d   N2d  1 4.300000e-01    2.530000e+00
  SP5d   N1d  1 4.300000e-01    2.320000e+00
  SP4d   P3d  1 4.300000e-01    3.380000e+00
  SP4d   P2d  1 4.300000e-01    3.380000e+00
  SP4d   P1d  1 4.300000e-01    3.160000e+00
  SP4d   N6d  1 4.300000e-01    2.930000e+00
  SP4d   N5d  1 4.300000e-01    2.920000e+00
  SP4d   N4d  1 4.300000e-01    2.920000e+00
  SP4d   N3d  1 4.300000e-01    2.770000e+00
  SP4d   N2d  1 4.300000e-01    2.770000e+00
  SP4d   N1d  1 4.300000e-01    2.530000e+00
  SP3d   P2d  1 4.300000e-01    3.380000e+00
  SP3d   P1d  1 4.300000e-01    3.160000e+00
  SP3d   N6d  1 4.300000e-01    2.930000e+00
  SP3d   N5d  1 4.300000e-01    2.920000e+00
  SP3d   N4d  1 4.300000e-01    2.920000e+00
  SP3d   N3d  1 4.300000e-01    2.770000e+00
  SP3d   N2d  1 4.300000e-01    2.770000e+00
  SP3d   N1d  1 4.300000e-01    2.770000e+00
  SP2d   P1d  1 4.300000e-01    3.160000e+00
  SP2d   N6d  1 4.300000e-01    3.160000e+00
  SP2d   N5d  1 4.300000e-01    2.930000e+00
  SP2d   N4d  1 4.300000e-01    2.920000e+00
  SP2d   N3d  1 4.300000e-01    2.770000e+00
  SP2d   N2d  1 4.300000e-01    2.770000e+00
  SP2d   N1d  1 4.300000e-01    2.770000e+00
  SP1d   N6d  1 4.300000e-01    3.160000e+00
  SP1d   N5d  1 4.300000e-01    2.930000e+00
  SP1d   N4d  1 4.300000e-01    2.930000e+00
  SP1d   N3d  1 4.300000e-01    2.770000e+00
  SP1d   N2d  1 4.300000e-01    2.770000e+00
  SP1d   N1d  1 4.300000e-01    2.770000e+00
  SN6d   N5d  1 4.300000e-01    3.160000e+00
  SN6d   N4d  1 4.300000e-01    3.160000e+00
  SN6d   N3d  1 4.300000e-01    2.920000e+00
  SN6d   N2d  1 4.300000e-01    2.770000e+00
  SN6d   N1d  1 4.300000e-01    2.770000e+00
  SN5d   N4d  1 4.300000e-01    2.930000e+00
  SN5d   N3d  1 4.300000e-01    2.920000e+00
  SN5d   N2d  1 4.300000e-01    2.920000e+00
  SN5d   N1d  1 4.300000e-01    2.770000e+00
  SN4d   N3d  1 4.300000e-01    2.920000e+00
  SN4d   N2d  1 4.300000e-01    2.920000e+00
  SN4d   N1d  1 4.300000e-01    2.770000e+00
  SN3d   N2d  1 4.300000e-01    2.920000e+00
  SN3d   N1d  1 4.300000e-01    2.770000e+00
  SN2d   N1d  1 4.300000e-01    2.770000e+00
   P6d SP6dq  1 4.300000e-01    4.680000e+00
   P5d SP5dq  1 4.300000e-01    4.170000e+00
   P4d SP4dq  1 4.300000e-01    3.970000e+00
   P3d SP3dq  1 4.300000e-01    3.770000e+00
   P2d SP2dq  1 4.300000e-01    3.770000e+00
   P1d SP1dq  1 4.300000e-01    3.590000e+00
   N6d SN6dq  1 4.300000e-01    3.590000e+00
   N5d SN5dq  1 4.300000e-01    3.380000e+00
   N4d SN4dq  1 4.300000e-01    3.380000e+00
   N3d SN3dq  1 4.300000e-01    3.160000e+00
   N2d SN2dq  1 4.300000e-01    3.160000e+00
   N1d SN1dq  1 4.300000e-01    3.160000e+00
   P6d SN1dq  1 4.300000e-01    2.770000e+00
   P5d SN1dq  1 4.300000e-01    2.770000e+00
   P4d SN1dq  1 4.300000e-01    2.920000e+00
   P3d SN1dq  1 4.300000e-01    2.930000e+00
   P2d SN1dq  1 4.300000e-01    2.930000e+00
   P1d SN1dq  1 4.300000e-01    2.930000e+00
   N6d SN1dq  1 4.300000e-01    2.930000e+00
   N5d SN1dq  1 4.300000e-01    2.930000e+00
   N4d SN1dq  1 4.300000e-01    2.930000e+00
   N3d SN1dq  1 4.300000e-01    2.930000e+00
   N2d SN1dq  1 4.300000e-01    2.930000e+00
   P6d SN2dq  1 4.300000e-01    2.920000e+00
   P5d SN2dq  1 4.300000e-01    2.920000e+00
   P4d SN2dq  1 4.300000e-01    2.930000e+00
   P3d SN2dq  1 4.300000e-01    2.930000e+00
   P2d SN2dq  1 4.300000e-01    2.930000e+00
   P1d SN2dq  1 4.300000e-01    2.930000e+00
   N6d SN2dq  1 4.300000e-01    2.930000e+00
   N5d SN2dq  1 4.300000e-01    3.160000e+00
   N4d SN2dq  1 4.300000e-01    3.160000e+00
   N3d SN2dq  1 4.300000e-01    3.160000e+00
   P6d SN3dq  1 4.300000e-01    2.930000e+00
   P5d SN3dq  1 4.300000e-01    2.930000e+00
   P4d SN3dq  1 4.300000e-01    2.930000e+00
   P3d SN3dq  1 4.300000e-01    2.930000e+00
   P2d SN3dq  1 4.300000e-01    2.930000e+00
   P1d SN3dq  1 4.300000e-01    2.930000e+00
   N6d SN3dq  1 4.300000e-01    3.160000e+00
   N5d SN3dq  1 4.300000e-01    3.160000e+00
   N4d SN3dq  1 4.300000e-01    3.160000e+00
   P6d SN4dq  1 4.300000e-01    2.930000e+00
   P5d SN4dq  1 4.300000e-01    3.160000e+00
   P4d SN4dq  1 4.300000e-01    3.160000e+00
   P3d SN4dq  1 4.300000e-01    3.160000e+00
   P2d SN4dq  1 4.300000e-01    3.160000e+00
   P1d SN4dq  1 4.300000e-01    3.380000e+00
   N6d SN4dq  1 4.300000e-01    3.590000e+00
   N5d SN4dq  1 4.300000e-01    3.380000e+00
   P6d SN5dq  1 4.300000e-01    3.160000e+00
   P5d SN5dq  1 4.300000e-01    3.160000e+00
   P4d SN5dq  1 4.300000e-01    3.160000e+00
   P3d SN5dq  1 4.300000e-01    3.160000e+00
   P2d SN5dq  1 4.300000e-01    3.380000e+00
   P1d SN5dq  1 4.300000e-01    3.380000e+00
   N6d SN5dq  1 4.300000e-01    3.590000e+00
   P6d SN6dq  1 4.300000e-01    3.590000e+00
   P5d SN6dq  1 4.300000e-01    3.380000e+00
   P4d SN6dq  1 4.300000e-01    3.380000e+00
   P3d SN6dq  1 4.300000e-01    3.380000e+00
   P2d SN6dq  1 4.300000e-01    3.590000e+00
   P1d SN6dq  1 4.300000e-01    3.590000e+00
   P6d SP1dq  1 4.300000e-01    3.770000e+00
   P5d SP1dq  1 4.300000e-01    3.590000e+00
   P4d SP1dq  1 4.300000e-01    3.590000e+00
   P3d SP1dq  1 4.300000e-01    3.590000e+00
   P2d SP1dq  1 4.300000e-01    3.590000e+00
   P6d SP2dq  1 4.300000e-01    3.970000e+00
   P5d SP2dq  1 4.300000e-01    3.770000e+00
   P4d SP2dq  1 4.300000e-01    3.770000e+00
   P3d SP2dq  1 4.300000e-01    3.770000e+00
   P6d SP3dq  1 4.300000e-01    3.970000e+00
   P5d SP3dq  1 4.300000e-01    3.770000e+00
   P4d SP3dq  1 4.300000e-01    3.770000e+00
   P6d SP4dq  1 4.300000e-01    4.170000e+00
   P5d SP4dq  1 4.300000e-01    3.970000e+00
   P6d SP5dq  1 4.300000e-01    4.400000e+00
  SP6d  P6dq  1 4.300000e-01    4.680000e+00
  SP5d  P5dq  1 4.300000e-01    4.170000e+00
  SP4d  P4dq  1 4.300000e-01    3.970000e+00
  SP3d  P3dq  1 4.300000e-01    3.770000e+00
  SP2d  P2dq  1 4.300000e-01    3.770000e+00
  SP1d  P1dq  1 4.300000e-01    3.590000e+00
  SN6d  N6dq  1 4.300000e-01    3.590000e+00
  SN5d  N5dq  1 4.300000e-01    3.380000e+00
  SN4d  N4dq  1 4.300000e-01    3.380000e+00
  SN3d  N3dq  1 4.300000e-01    3.160000e+00
  SN2d  N2dq  1 4.300000e-01    3.160000e+00
  SN1d  N1dq  1 4.300000e-01    3.160000e+00
  SP6d  N1dq  1 4.300000e-01    2.770000e+00
  SP5d  N1dq  1 4.300000e-01    2.770000e+00
  SP4d  N1dq  1 4.300000e-01    2.920000e+00
  SP3d  N1dq  1 4.300000e-01    2.930000e+00
  SP2d  N1dq  1 4.300000e-01    2.930000e+00
  SP1d  N1dq  1 4.300000e-01    2.930000e+00
  SN6d  N1dq  1 4.300000e-01    2.930000e+00
  SN5d  N1dq  1 4.300000e-01    2.930000e+00
  SN4d  N1dq  1 4.300000e-01    2.930000e+00
  SN3d  N1dq  1 4.300000e-01    2.930000e+00
  SN2d  N1dq  1 4.300000e-01    2.930000e+00
  SP6d  N2dq  1 4.300000e-01    2.920000e+00
  SP5d  N2dq  1 4.300000e-01    2.920000e+00
  SP4d  N2dq  1 4.300000e-01    2.930000e+00
  SP3d  N2dq  1 4.300000e-01    2.930000e+00
  SP2d  N2dq  1 4.300000e-01    2.930000e+00
  SP1d  N2dq  1 4.300000e-01    2.930000e+00
  SN6d  N2dq  1 4.300000e-01    2.930000e+00
  SN5d  N2dq  1 4.300000e-01    3.160000e+00
  SN4d  N2dq  1 4.300000e-01    3.160000e+00
  SN3d  N2dq  1 4.300000e-01    3.160000e+00
  SP6d  N3dq  1 4.300000e-01    2.930000e+00
  SP5d  N3dq  1 4.300000e-01    2.930000e+00
  SP4d  N3dq  1 4.300000e-01    2.930000e+00
  SP3d  N3dq  1 4.300000e-01    2.930000e+00
  SP2d  N3dq  1 4.300000e-01    2.930000e+00
  SP1d  N3dq  1 4.300000e-01    2.930000e+00
  SN6d  N3dq  1 4.300000e-01    3.160000e+00
  SN5d  N3dq  1 4.300000e-01    3.160000e+00
  SN4d  N3dq  1 4.300000e-01    3.160000e+00
  SP6d  N4dq  1 4.300000e-01    2.930000e+00
  SP5d  N4dq  1 4.300000e-01    3.160000e+00
  SP4d  N4dq  1 4.300000e-01    3.160000e+00
  SP3d  N4dq  1 4.300000e-01    3.160000e+00
  SP2d  N4dq  1 4.300000e-01    3.160000e+00
  SP1d  N4dq  1 4.300000e-01    3.380000e+00
  SN6d  N4dq  1 4.300000e-01    3.590000e+00
  SN5d  N4dq  1 4.300000e-01    3.380000e+00
  SP6d  N5dq  1 4.300000e-01    3.160000e+00
  SP5d  N5dq  1 4.300000e-01    3.160000e+00
  SP4d  N5dq  1 4.300000e-01    3.160000e+00
  SP3d  N5dq  1 4.300000e-01    3.160000e+00
  SP2d  N5dq  1 4.300000e-01    3.380000e+00
  SP1d  N5dq  1 4.300000e-01    3.380000e+00
  SN6d  N5dq  1 4.300000e-01    3.590000e+00
  SP6d  N6dq  1 4.300000e-01    3.590000e+00
  SP5d  N6dq  1 4.300000e-01    3.380000e+00
  SP4d  N6dq  1 4.300000e-01    3.380000e+00
  SP3d  N6dq  1 4.300000e-01    3.380000e+00
  SP2d  N6dq  1 4.300000e-01    3.590000e+00
  SP1d  N6dq  1 4.300000e-01    3.590000e+00
  SP6d  P1dq  1 4.300000e-01    3.770000e+00
  SP5d  P1dq  1 4.300000e-01    3.590000e+00
  SP4d  P1dq  1 4.300000e-01    3.590000e+00
  SP3d  P1dq  1 4.300000e-01    3.590000e+00
  SP2d  P1dq  1 4.300000e-01    3.590000e+00
  SP6d  P2dq  1 4.300000e-01    3.970000e+00
  SP5d  P2dq  1 4.300000e-01    3.770000e+00
  SP4d  P2dq  1 4.300000e-01    3.770000e+00
  SP3d  P2dq  1 4.300000e-01    3.770000e+00
  SP6d  P3dq  1 4.300000e-01    3.970000e+00
  SP5d  P3dq  1 4.300000e-01    3.770000e+00
  SP4d  P3dq  1 4.300000e-01    3.770000e+00
  SP6d  P4dq  1 4.300000e-01    4.170000e+00
  SP5d  P4dq  1 4.300000e-01    3.970000e+00
  SP6d  P5dq  1 4.300000e-01    4.400000e+00
   P6d SP6dh  1 4.300000e-01    4.170000e+00
   P5d SP5dh  1 4.300000e-01    3.770000e+00
   P4d SP4dh  1 4.300000e-01    3.590000e+00
   P3d SP3dh  1 4.300000e-01    3.380000e+00
   P2d SP2dh  1 4.300000e-01    3.380000e+00
   P1d SP1dh  1 4.300000e-01    3.160000e+00
   N6d SN6dh  1 4.300000e-01    3.160000e+00
   N5d SN5dh  1 4.300000e-01    2.930000e+00
   N4d SN4dh  1 4.300000e-01    2.930000e+00
   N3d SN3dh  1 4.300000e-01    2.920000e+00
   N2d SN2dh  1 4.300000e-01    2.920000e+00
   N1d SN1dh  1 4.300000e-01    2.920000e+00
   P6d SN1dh  1 4.300000e-01    2.320000e+00
   P5d SN1dh  1 4.300000e-01    2.320000e+00
   P4d SN1dh  1 4.300000e-01    2.530000e+00
   P3d SN1dh  1 4.300000e-01    2.770000e+00
   P2d SN1dh  1 4.300000e-01    2.770000e+00
   P1d SN1dh  1 4.300000e-01    2.770000e+00
   N6d SN1dh  1 4.300000e-01    2.770000e+00
   N5d SN1dh  1 4.300000e-01    2.770000e+00
   N4d SN1dh  1 4.300000e-01    2.770000e+00
   N3d SN1dh  1 4.300000e-01    2.770000e+00
   N2d SN1dh  1 4.300000e-01    2.770000e+00
   P6d SN2dh  1 4.300000e-01    2.530000e+00
   P5d SN2dh  1 4.300000e-01    2.530000e+00
   P4d SN2dh  1 4.300000e-01    2.770000e+00
   P3d SN2dh  1 4.300000e-01    2.770000e+00
   P2d SN2dh  1 4.300000e-01    2.770000e+00
   P1d SN2dh  1 4.300000e-01    2.770000e+00
   N6d SN2dh  1 4.300000e-01    2.770000e+00
   N5d SN2dh  1 4.300000e-01    2.920000e+00
   N4d SN2dh  1 4.300000e-01    2.920000e+00
   N3d SN2dh  1 4.300000e-01    2.920000e+00
   P6d SN3dh  1 4.300000e-01    2.770000e+00
   P5d SN3dh  1 4.300000e-01    2.770000e+00
   P4d SN3dh  1 4.300000e-01    2.770000e+00
   P3d SN3dh  1 4.300000e-01    2.770000e+00
   P2d SN3dh  1 4.300000e-01    2.770000e+00
   P1d SN3dh  1 4.300000e-01    2.770000e+00
   N6d SN3dh  1 4.300000e-01    2.920000e+00
   N5d SN3dh  1 4.300000e-01    2.920000e+00
   N4d SN3dh  1 4.300000e-01    2.920000e+00
   P6d SN4dh  1 4.300000e-01    2.770000e+00
   P5d SN4dh  1 4.300000e-01    2.920000e+00
   P4d SN4dh  1 4.300000e-01    2.920000e+00
   P3d SN4dh  1 4.300000e-01    2.920000e+00
   P2d SN4dh  1 4.300000e-01    2.920000e+00
   P1d SN4dh  1 4.300000e-01    2.930000e+00
   N6d SN4dh  1 4.300000e-01    3.160000e+00
   N5d SN4dh  1 4.300000e-01    2.930000e+00
   P6d SN5dh  1 4.300000e-01    2.920000e+00
   P5d SN5dh  1 4.300000e-01    2.920000e+00
   P4d SN5dh  1 4.300000e-01    2.920000e+00
   P3d SN5dh  1 4.300000e-01    2.920000e+00
   P2d SN5dh  1 4.300000e-01    2.930000e+00
   P1d SN5dh  1 4.300000e-01    2.930000e+00
   N6d SN5dh  1 4.300000e-01    3.160000e+00
   P6d SN6dh  1 4.300000e-01    3.160000e+00
   P5d SN6dh  1 4.300000e-01    2.930000e+00
   P4d SN6dh  1 4.300000e-01    2.930000e+00
   P3d SN6dh  1 4.300000e-01    2.930000e+00
   P2d SN6dh  1 4.300000e-01    3.160000e+00
   P1d SN6dh  1 4.300000e-01    3.160000e+00
   P6d SP1dh  1 4.300000e-01    3.380000e+00
   P5d SP1dh  1 4.300000e-01    3.160000e+00
   P4d SP1dh  1 4.300000e-01    3.160000e+00
   P3d SP1dh  1 4.300000e-01    3.160000e+00
   P2d SP1dh  1 4.300000e-01    3.160000e+00
   P6d SP2dh  1 4.300000e-01    3.590000e+00
   P5d SP2dh  1 4.300000e-01    3.380000e+00
   P4d SP2dh  1 4.300000e-01    3.380000e+00
   P3d SP2dh  1 4.300000e-01    3.380000e+00
   P6d SP3dh  1 4.300000e-01    3.590000e+00
   P5d SP3dh  1 4.300000e-01    3.380000e+00
   P4d SP3dh  1 4.300000e-01    3.380000e+00
   P6d SP4dh  1 4.300000e-01    3.770000e+00
   P5d SP4dh  1 4.300000e-01    3.590000e+00
   P6d SP5dh  1 4.300000e-01    3.970000e+00
  SP6d  P6dh  1 4.300000e-01    4.170000e+00
  SP5d  P5dh  1 4.300000e-01    3.770000e+00
  SP4d  P4dh  1 4.300000e-01    3.590000e+00
  SP3d  P3dh  1 4.300000e-01    3.380000e+00
  SP2d  P2dh  1 4.300000e-01    3.380000e+00
  SP1d  P1dh  1 4.300000e-01    3.160000e+00
  SN6d  N6dh  1 4.300000e-01    3.160000e+00
  SN5d  N5dh  1 4.300000e-01    2.930000e+00
  SN4d  N4dh  1 4.300000e-01    2.930000e+00
  SN3d  N3dh  1 4.300000e-01    2.920000e+00
  SN2d  N2dh  1 4.300000e-01    2.920000e+00
  SN1d  N1dh  1 4.300000e-01    2.920000e+00
  SP6d  N1dh  1 4.300000e-01    2.320000e+00
  SP5d  N1dh  1 4.300000e-01    2.320000e+00
  SP4d  N1dh  1 4.300000e-01    2.530000e+00
  SP3d  N1dh  1 4.300000e-01    2.770000e+00
  SP2d  N1dh  1 4.300000e-01    2.770000e+00
  SP1d  N1dh  1 4.300000e-01    2.770000e+00
  SN6d  N1dh  1 4.300000e-01    2.770000e+00
  SN5d  N1dh  1 4.300000e-01    2.770000e+00
  SN4d  N1dh  1 4.300000e-01    2.770000e+00
  SN3d  N1dh  1 4.300000e-01    2.770000e+00
  SN2d  N1dh  1 4.300000e-01    2.770000e+00
  SP6d  N2dh  1 4.300000e-01    2.530000e+00
  SP5d  N2dh  1 4.300000e-01    2.530000e+00
  SP4d  N2dh  1 4.300000e-01    2.770000e+00
  SP3d  N2dh  1 4.300000e-01    2.770000e+00
  SP2d  N2dh  1 4.300000e-01    2.770000e+00
  SP1d  N2dh  1 4.300000e-01    2.770000e+00
  SN6d  N2dh  1 4.300000e-01    2.770000e+00
  SN5d  N2dh  1 4.300000e-01    2.920000e+00
  SN4d  N2dh  1 4.300000e-01    2.920000e+00
  SN3d  N2dh  1 4.300000e-01    2.920000e+00
  SP6d  N3dh  1 4.300000e-01    2.770000e+00
  SP5d  N3dh  1 4.300000e-01    2.770000e+00
  SP4d  N3dh  1 4.300000e-01    2.770000e+00
  SP3d  N3dh  1 4.300000e-01    2.770000e+00
  SP2d  N3dh  1 4.300000e-01    2.770000e+00
  SP1d  N3dh  1 4.300000e-01    2.770000e+00
  SN6d  N3dh  1 4.300000e-01    2.920000e+00
  SN5d  N3dh  1 4.300000e-01    2.920000e+00
  SN4d  N3dh  1 4.300000e-01    2.920000e+00
  SP6d  N4dh  1 4.300000e-01    2.770000e+00
  SP5d  N4dh  1 4.300000e-01    2.920000e+00
  SP4d  N4dh  1 4.300000e-01    2.920000e+00
  SP3d  N4dh  1 4.300000e-01    2.920000e+00
  SP2d  N4dh  1 4.300000e-01    2.920000e+00
  SP1d  N4dh  1 4.300000e-01    2.930000e+00
  SN6d  N4dh  1 4.300000e-01    3.160000e+00
  SN5d  N4dh  1 4.300000e-01    2.930000e+00
  SP6d  N5dh  1 4.300000e-01    2.920000e+00
  SP5d  N5dh  1 4.300000e-01    2.920000e+00
  SP4d  N5dh  1 4.300000e-01    2.920000e+00
  SP3d  N5dh  1 4.300000e-01    2.920000e+00
  SP2d  N5dh  1 4.300000e-01    2.930000e+00
  SP1d  N5dh  1 4.300000e-01    2.930000e+00
  SN6d  N5dh  1 4.300000e-01    3.160000e+00
  SP6d  N6dh  1 4.300000e-01    3.160000e+00
  SP5d  N6dh  1 4.300000e-01    2.930000e+00
  SP4d  N6dh  1 4.300000e-01    2.930000e+00
  SP3d  N6dh  1 4.300000e-01    2.930000e+00
  SP2d  N6dh  1 4.300000e-01    3.160000e+00
  SP1d  N6dh  1 4.300000e-01    3.160000e+00
  SP6d  P1dh  1 4.300000e-01    3.380000e+00
  SP5d  P1dh  1 4.300000e-01    3.160000e+00
  SP4d  P1dh  1 4.300000e-01    3.160000e+00
  SP3d  P1dh  1 4.300000e-01    3.160000e+00
  SP2d  P1dh  1 4.300000e-01    3.160000e+00
  SP6d  P2dh  1 4.300000e-01    3.590000e+00
  SP5d  P2dh  1 4.300000e-01    3.380000e+00
  SP4d  P2dh  1 4.300000e-01    3.380000e+00
  SP3d  P2dh  1 4.300000e-01    3.380000e+00
  SP6d  P3dh  1 4.300000e-01    3.590000e+00
  SP5d  P3dh  1 4.300000e-01    3.380000e+00
  SP4d  P3dh  1 4.300000e-01    3.380000e+00
  SP6d  P4dh  1 4.300000e-01    3.770000e+00
  SP5d  P4dh  1 4.300000e-01    3.590000e+00
  SP6d  P5dh  1 4.300000e-01    3.970000e+00
   P6d SP6dr  1 4.300000e-01    4.170000e+00
   P5d SP5dr  1 4.300000e-01    3.770000e+00
   P4d SP4dr  1 4.300000e-01    3.590000e+00
   P3d SP3dr  1 4.300000e-01    3.380000e+00
   P2d SP2dr  1 4.300000e-01    3.380000e+00
   P1d SP1dr  1 4.300000e-01    3.160000e+00
   N6d SN6dr  1 4.300000e-01    3.160000e+00
   N5d SN5dr  1 4.300000e-01    2.930000e+00
   N4d SN4dr  1 4.300000e-01    2.930000e+00
   N3d SN3dr  1 4.300000e-01    2.920000e+00
   N2d SN2dr  1 4.300000e-01    2.920000e+00
   N1d SN1dr  1 4.300000e-01    2.920000e+00
   P6d SN1dr  1 4.300000e-01    2.320000e+00
   P5d SN1dr  1 4.300000e-01    2.320000e+00
   P4d SN1dr  1 4.300000e-01    2.530000e+00
   P3d SN1dr  1 4.300000e-01    2.770000e+00
   P2d SN1dr  1 4.300000e-01    2.770000e+00
   P1d SN1dr  1 4.300000e-01    2.770000e+00
   N6d SN1dr  1 4.300000e-01    2.770000e+00
   N5d SN1dr  1 4.300000e-01    2.770000e+00
   N4d SN1dr  1 4.300000e-01    2.770000e+00
   N3d SN1dr  1 4.300000e-01    2.770000e+00
   N2d SN1dr  1 4.300000e-01    2.770000e+00
   P6d SN2dr  1 4.300000e-01    2.530000e+00
   P5d SN2dr  1 4.300000e-01    2.530000e+00
   P4d SN2dr  1 4.300000e-01    2.770000e+00
   P3d SN2dr  1 4.300000e-01    2.770000e+00
   P2d SN2dr  1 4.300000e-01    2.770000e+00
   P1d SN2dr  1 4.300000e-01    2.770000e+00
   N6d SN2dr  1 4.300000e-01    2.770000e+00
   N5d SN2dr  1 4.300000e-01    2.920000e+00
   N4d SN2dr  1 4.300000e-01    2.920000e+00
   N3d SN2dr  1 4.300000e-01    2.920000e+00
   P6d SN3dr  1 4.300000e-01    2.770000e+00
   P5d SN3dr  1 4.300000e-01    2.770000e+00
   P4d SN3dr  1 4.300000e-01    2.770000e+00
   P3d SN3dr  1 4.300000e-01    2.770000e+00
   P2d SN3dr  1 4.300000e-01    2.770000e+00
   P1d SN3dr  1 4.300000e-01    2.770000e+00
   N6d SN3dr  1 4.300000e-01    2.920000e+00
   N5d SN3dr  1 4.300000e-01    2.920000e+00
   N4d SN3dr  1 4.300000e-01    2.920000e+00
   P6d SN4dr  1 4.300000e-01    2.770000e+00
   P5d SN4dr  1 4.300000e-01    2.920000e+00
   P4d SN4dr  1 4.300000e-01    2.920000e+00
   P3d SN4dr  1 4.300000e-01    2.920000e+00
   P2d SN4dr  1 4.300000e-01    2.920000e+00
   P1d SN4dr  1 4.300000e-01    2.930000e+00
   N6d SN4dr  1 4.300000e-01    3.160000e+00
   N5d SN4dr  1 4.300000e-01    2.930000e+00
   P6d SN5dr  1 4.300000e-01    2.920000e+00
   P5d SN5dr  1 4.300000e-01    2.920000e+00
   P4d SN5dr  1 4.300000e-01    2.920000e+00
   P3d SN5dr  1 4.300000e-01    2.920000e+00
   P2d SN5dr  1 4.300000e-01    2.930000e+00
   P1d SN5dr  1 4.300000e-01    2.930000e+00
   N6d SN5dr  1 4.300000e-01    3.160000e+00
   P6d SN6dr  1 4.300000e-01    3.160000e+00
   P5d SN6dr  1 4.300000e-01    2.930000e+00
   P4d SN6dr  1 4.300000e-01    2.930000e+00
   P3d SN6dr  1 4.300000e-01    2.930000e+00
   P2d SN6dr  1 4.300000e-01    3.160000e+00
   P1d SN6dr  1 4.300000e-01    3.160000e+00
   P6d SP1dr  1 4.300000e-01    3.380000e+00
   P5d SP1dr  1 4.300000e-01    3.160000e+00
   P4d SP1dr  1 4.300000e-01    3.160000e+00
   P3d SP1dr  1 4.300000e-01    3.160000e+00
   P2d SP1dr  1 4.300000e-01    3.160000e+00
   P6d SP2dr  1 4.300000e-01    3.590000e+00
   P5d SP2dr  1 4.300000e-01    3.380000e+00
   P4d SP2dr  1 4.300000e-01    3.380000e+00
   P3d SP2dr  1 4.300000e-01    3.380000e+00
   P6d SP3dr  1 4.300000e-01    3.590000e+00
   P5d SP3dr  1 4.300000e-01    3.380000e+00
   P4d SP3dr  1 4.300000e-01    3.380000e+00
   P6d SP4dr  1 4.300000e-01    3.770000e+00
   P5d SP4dr  1 4.300000e-01    3.590000e+00
   P6d SP5dr  1 4.300000e-01    3.970000e+00
  SP6d  P6dr  1 4.300000e-01    4.170000e+00
  SP5d  P5dr  1 4.300000e-01    3.770000e+00
  SP4d  P4dr  1 4.300000e-01    3.590000e+00
  SP3d  P3dr  1 4.300000e-01    3.380000e+00
  SP2d  P2dr  1 4.300000e-01    3.380000e+00
  SP1d  P1dr  1 4.300000e-01    3.160000e+00
  SN6d  N6dr  1 4.300000e-01    3.160000e+00
  SN5d  N5dr  1 4.300000e-01    2.930000e+00
  SN4d  N4dr  1 4.300000e-01    2.930000e+00
  SN3d  N3dr  1 4.300000e-01    2.920000e+00
  SN2d  N2dr  1 4.300000e-01    2.920000e+00
  SN1d  N1dr  1 4.300000e-01    2.920000e+00
  SP6d  N1dr  1 4.300000e-01    2.320000e+00
  SP5d  N1dr  1 4.300000e-01    2.320000e+00
  SP4d  N1dr  1 4.300000e-01    2.530000e+00
  SP3d  N1dr  1 4.300000e-01    2.770000e+00
  SP2d  N1dr  1 4.300000e-01    2.770000e+00
  SP1d  N1dr  1 4.300000e-01    2.770000e+00
  SN6d  N1dr  1 4.300000e-01    2.770000e+00
  SN5d  N1dr  1 4.300000e-01    2.770000e+00
  SN4d  N1dr  1 4.300000e-01    2.770000e+00
  SN3d  N1dr  1 4.300000e-01    2.770000e+00
  SN2d  N1dr  1 4.300000e-01    2.770000e+00
  SP6d  N2dr  1 4.300000e-01    2.530000e+00
  SP5d  N2dr  1 4.300000e-01    2.530000e+00
  SP4d  N2dr  1 4.300000e-01    2.770000e+00
  SP3d  N2dr  1 4.300000e-01    2.770000e+00
  SP2d  N2dr  1 4.300000e-01    2.770000e+00
  SP1d  N2dr  1 4.300000e-01    2.770000e+00
  SN6d  N2dr  1 4.300000e-01    2.770000e+00
  SN5d  N2dr  1 4.300000e-01    2.920000e+00
  SN4d  N2dr  1 4.300000e-01    2.920000e+00
  SN3d  N2dr  1 4.300000e-01    2.920000e+00
  SP6d  N3dr  1 4.300000e-01    2.770000e+00
  SP5d  N3dr  1 4.300000e-01    2.770000e+00
  SP4d  N3dr  1 4.300000e-01    2.770000e+00
  SP3d  N3dr  1 4.300000e-01    2.770000e+00
  SP2d  N3dr  1 4.300000e-01    2.770000e+00
  SP1d  N3dr  1 4.300000e-01    2.770000e+00
  SN6d  N3dr  1 4.300000e-01    2.920000e+00
  SN5d  N3dr  1 4.300000e-01    2.920000e+00
  SN4d  N3dr  1 4.300000e-01    2.920000e+00
  SP6d  N4dr  1 4.300000e-01    2.770000e+00
  SP5d  N4dr  1 4.300000e-01    2.920000e+00
  SP4d  N4dr  1 4.300000e-01    2.920000e+00
  SP3d  N4dr  1 4.300000e-01    2.920000e+00
  SP2d  N4dr  1 4.300000e-01    2.920000e+00
  SP1d  N4dr  1 4.300000e-01    2.930000e+00
  SN6d  N4dr  1 4.300000e-01    3.160000e+00
  SN5d  N4dr  1 4.300000e-01    2.930000e+00
  SP6d  N5dr  1 4.300000e-01    2.920000e+00
  SP5d  N5dr  1 4.300000e-01    2.920000e+00
  SP4d  N5dr  1 4.300000e-01    2.920000e+00
  SP3d  N5dr  1 4.300000e-01    2.920000e+00
  SP2d  N5dr  1 4.300000e-01    2.930000e+00
  SP1d  N5dr  1 4.300000e-01    2.930000e+00
  SN6d  N5dr  1 4.300000e-01    3.160000e+00
  SP6d  N6dr  1 4.300000e-01    3.160000e+00
  SP5d  N6dr  1 4.300000e-01    2.930000e+00
  SP4d  N6dr  1 4.300000e-01    2.930000e+00
  SP3d  N6dr  1 4.300000e-01    2.930000e+00
  SP2d  N6dr  1 4.300000e-01    3.160000e+00
  SP1d  N6dr  1 4.300000e-01    3.160000e+00
  SP6d  P1dr  1 4.300000e-01    3.380000e+00
  SP5d  P1dr  1 4.300000e-01    3.160000e+00
  SP4d  P1dr  1 4.300000e-01    3.160000e+00
  SP3d  P1dr  1 4.300000e-01    3.160000e+00
  SP2d  P1dr  1 4.300000e-01    3.160000e+00
  SP6d  P2dr  1 4.300000e-01    3.590000e+00
  SP5d  P2dr  1 4.300000e-01    3.380000e+00
  SP4d  P2dr  1 4.300000e-01    3.380000e+00
  SP3d  P2dr  1 4.300000e-01    3.380000e+00
  SP6d  P3dr  1 4.300000e-01    3.590000e+00
  SP5d  P3dr  1 4.300000e-01    3.380000e+00
  SP4d  P3dr  1 4.300000e-01    3.380000e+00
  SP6d  P4dr  1 4.300000e-01    3.770000e+00
  SP5d  P4dr  1 4.300000e-01    3.590000e+00
  SP6d  P5dr  1 4.300000e-01    3.970000e+00
  P6dq  SP5d  1 4.300000e-01    4.400000e+00
  P6dq  SP4d  1 4.300000e-01    4.170000e+00
  P6dq  SP3d  1 4.300000e-01    3.970000e+00
  P6dq  SP2d  1 4.300000e-01    3.970000e+00
  P6dq  SP1d  1 4.300000e-01    3.770000e+00
  P6dq  SN6d  1 4.300000e-01    3.590000e+00
  P6dq  SN5d  1 4.300000e-01    3.160000e+00
  P6dq  SN4d  1 4.300000e-01    2.930000e+00
  P6dq  SN3d  1 4.300000e-01    2.930000e+00
  P6dq  SN2d  1 4.300000e-01    2.920000e+00
  P6dq  SN1d  1 4.300000e-01    2.770000e+00
  P5dq  SP4d  1 4.300000e-01    3.970000e+00
  P5dq  SP3d  1 4.300000e-01    3.770000e+00
  P5dq  SP2d  1 4.300000e-01    3.770000e+00
  P5dq  SP1d  1 4.300000e-01    3.590000e+00
  P5dq  SN6d  1 4.300000e-01    3.380000e+00
  P5dq  SN5d  1 4.300000e-01    3.160000e+00
  P5dq  SN4d  1 4.300000e-01    3.160000e+00
  P5dq  SN3d  1 4.300000e-01    2.930000e+00
  P5dq  SN2d  1 4.300000e-01    2.920000e+00
  P5dq  SN1d  1 4.300000e-01    2.770000e+00
  P4dq  SP3d  1 4.300000e-01    3.770000e+00
  P4dq  SP2d  1 4.300000e-01    3.770000e+00
  P4dq  SP1d  1 4.300000e-01    3.590000e+00
  P4dq  SN6d  1 4.300000e-01    3.380000e+00
  P4dq  SN5d  1 4.300000e-01    3.160000e+00
  P4dq  SN4d  1 4.300000e-01    3.160000e+00
  P4dq  SN3d  1 4.300000e-01    2.930000e+00
  P4dq  SN2d  1 4.300000e-01    2.930000e+00
  P4dq  SN1d  1 4.300000e-01    2.920000e+00
  P3dq  SP2d  1 4.300000e-01    3.770000e+00
  P3dq  SP1d  1 4.300000e-01    3.590000e+00
  P3dq  SN6d  1 4.300000e-01    3.380000e+00
  P3dq  SN5d  1 4.300000e-01    3.160000e+00
  P3dq  SN4d  1 4.300000e-01    3.160000e+00
  P3dq  SN3d  1 4.300000e-01    2.930000e+00
  P3dq  SN2d  1 4.300000e-01    2.930000e+00
  P3dq  SN1d  1 4.300000e-01    2.930000e+00
  P2dq  SP1d  1 4.300000e-01    3.590000e+00
  P2dq  SN6d  1 4.300000e-01    3.590000e+00
  P2dq  SN5d  1 4.300000e-01    3.380000e+00
  P2dq  SN4d  1 4.300000e-01    3.160000e+00
  P2dq  SN3d  1 4.300000e-01    2.930000e+00
  P2dq  SN2d  1 4.300000e-01    2.930000e+00
  P2dq  SN1d  1 4.300000e-01    2.930000e+00
  P1dq  SN6d  1 4.300000e-01    3.590000e+00
  P1dq  SN5d  1 4.300000e-01    3.380000e+00
  P1dq  SN4d  1 4.300000e-01    3.380000e+00
  P1dq  SN3d  1 4.300000e-01    2.930000e+00
  P1dq  SN2d  1 4.300000e-01    2.930000e+00
  P1dq  SN1d  1 4.300000e-01    2.930000e+00
  N6dq  SN5d  1 4.300000e-01    3.590000e+00
  N6dq  SN4d  1 4.300000e-01    3.590000e+00
  N6dq  SN3d  1 4.300000e-01    3.160000e+00
  N6dq  SN2d  1 4.300000e-01    2.930000e+00
  N6dq  SN1d  1 4.300000e-01    2.930000e+00
  N5dq  SN4d  1 4.300000e-01    3.380000e+00
  N5dq  SN3d  1 4.300000e-01    3.160000e+00
  N5dq  SN2d  1 4.300000e-01    3.160000e+00
  N5dq  SN1d  1 4.300000e-01    2.930000e+00
  N4dq  SN3d  1 4.300000e-01    3.160000e+00
  N4dq  SN2d  1 4.300000e-01    3.160000e+00
  N4dq  SN1d  1 4.300000e-01    2.930000e+00
  N3dq  SN2d  1 4.300000e-01    3.160000e+00
  N3dq  SN1d  1 4.300000e-01    2.930000e+00
  N2dq  SN1d  1 4.300000e-01    2.930000e+00
 SP6dq   P5d  1 4.300000e-01    4.400000e+00
 SP6dq   P4d  1 4.300000e-01    4.170000e+00
 SP6dq   P3d  1 4.300000e-01    3.970000e+00
 SP6dq   P2d  1 4.300000e-01    3.970000e+00
 SP6dq   P1d  1 4.300000e-01    3.770000e+00
 SP6dq   N6d  1 4.300000e-01    3.590000e+00
 SP6dq   N5d  1 4.300000e-01    3.160000e+00
 SP6dq   N4d  1 4.300000e-01    2.930000e+00
 SP6dq   N3d  1 4.300000e-01    2.930000e+00
 SP6dq   N2d  1 4.300000e-01    2.920000e+00
 SP6dq   N1d  1 4.300000e-01    2.770000e+00
 SP5dq   P4d  1 4.300000e-01    3.970000e+00
 SP5dq   P3d  1 4.300000e-01    3.770000e+00
 SP5dq   P2d  1 4.300000e-01    3.770000e+00
 SP5dq   P1d  1 4.300000e-01    3.590000e+00
 SP5dq   N6d  1 4.300000e-01    3.380000e+00
 SP5dq   N5d  1 4.300000e-01    3.160000e+00
 SP5dq   N4d  1 4.300000e-01    3.160000e+00
 SP5dq   N3d  1 4.300000e-01    2.930000e+00
 SP5dq   N2d  1 4.300000e-01    2.920000e+00
 SP5dq   N1d  1 4.300000e-01    2.770000e+00
 SP4dq   P3d  1 4.300000e-01    3.770000e+00
 SP4dq   P2d  1 4.300000e-01    3.770000e+00
 SP4dq   P1d  1 4.300000e-01    3.590000e+00
 SP4dq   N6d  1 4.300000e-01    3.380000e+00
 SP4dq   N5d  1 4.300000e-01    3.160000e+00
 SP4dq   N4d  1 4.300000e-01    3.160000e+00
 SP4dq   N3d  1 4.300000e-01    2.930000e+00
 SP4dq   N2d  1 4.300000e-01    2.930000e+00
 SP4dq   N1d  1 4.300000e-01    2.920000e+00
 SP3dq   P2d  1 4.300000e-01    3.770000e+00
 SP3dq   P1d  1 4.300000e-01    3.590000e+00
 SP3dq   N6d  1 4.300000e-01    3.380000e+00
 SP3dq   N5d  1 4.300000e-01    3.160000e+00
 SP3dq   N4d  1 4.300000e-01    3.160000e+00
 SP3dq   N3d  1 4.300000e-01    2.930000e+00
 SP3dq   N2d  1 4.300000e-01    2.930000e+00
 SP3dq   N1d  1 4.300000e-01    2.930000e+00
 SP2dq   P1d  1 4.300000e-01    3.590000e+00
 SP2dq   N6d  1 4.300000e-01    3.590000e+00
 SP2dq   N5d  1 4.300000e-01    3.380000e+00
 SP2dq   N4d  1 4.300000e-01    3.160000e+00
 SP2dq   N3d  1 4.300000e-01    2.930000e+00
 SP2dq   N2d  1 4.300000e-01    2.930000e+00
 SP2dq   N1d  1 4.300000e-01    2.930000e+00
 SP1dq   N6d  1 4.300000e-01    3.590000e+00
 SP1dq   N5d  1 4.300000e-01    3.380000e+00
 SP1dq   N4d  1 4.300000e-01    3.380000e+00
 SP1dq   N3d  1 4.300000e-01    2.930000e+00
 SP1dq   N2d  1 4.300000e-01    2.930000e+00
 SP1dq   N1d  1 4.300000e-01    2.930000e+00
 SN6dq   N5d  1 4.300000e-01    3.590000e+00
 SN6dq   N4d  1 4.300000e-01    3.590000e+00
 SN6dq   N3d  1 4.300000e-01    3.160000e+00
 SN6dq   N2d  1 4.300000e-01    2.930000e+00
 SN6dq   N1d  1 4.300000e-01    2.930000e+00
 SN5dq   N4d  1 4.300000e-01    3.380000e+00
 SN5dq   N3d  1 4.300000e-01    3.160000e+00
 SN5dq   N2d  1 4.300000e-01    3.160000e+00
 SN5dq   N1d  1 4.300000e-01    2.930000e+00
 SN4dq   N3d  1 4.300000e-01    3.160000e+00
 SN4dq   N2d  1 4.300000e-01    3.160000e+00
 SN4dq   N1d  1 4.300000e-01    2.930000e+00
 SN3dq   N2d  1 4.300000e-01    3.160000e+00
 SN3dq   N1d  1 4.300000e-01    2.930000e+00
 SN2dq   N1d  1 4.300000e-01    2.930000e+00
  P6dq SP6dq  1 4.300000e-01    4.680000e+00
  P6dq SP5dq  1 4.300000e-01    4.400000e+00
  P6dq SP4dq  1 4.300000e-01    4.170000e+00
  P6dq SP3dq  1 4.300000e-01    3.970000e+00
  P6dq SP2dq  1 4.300000e-01    3.970000e+00
  P6dq SP1dq  1 4.300000e-01    3.770000e+00
  P6dq SN6dq  1 4.300000e-01    3.590000e+00
  P6dq SN5dq  1 4.300000e-01    3.160000e+00
  P6dq SN4dq  1 4.300000e-01    2.930000e+00
  P6dq SN3dq  1 4.300000e-01    2.930000e+00
  P6dq SN2dq  1 4.300000e-01    2.920000e+00
  P6dq SN1dq  1 4.300000e-01    2.770000e+00
  P5dq SP5dq  1 4.300000e-01    4.170000e+00
  P5dq SP4dq  1 4.300000e-01    3.970000e+00
  P5dq SP3dq  1 4.300000e-01    3.770000e+00
  P5dq SP2dq  1 4.300000e-01    3.770000e+00
  P5dq SP1dq  1 4.300000e-01    3.590000e+00
  P5dq SN6dq  1 4.300000e-01    3.380000e+00
  P5dq SN5dq  1 4.300000e-01    3.160000e+00
  P5dq SN4dq  1 4.300000e-01    3.160000e+00
  P5dq SN3dq  1 4.300000e-01    2.930000e+00
  P5dq SN2dq  1 4.300000e-01    2.920000e+00
  P5dq SN1dq  1 4.300000e-01    2.770000e+00
  P4dq SP4dq  1 4.300000e-01    3.970000e+00
  P4dq SP3dq  1 4.300000e-01    3.770000e+00
  P4dq SP2dq  1 4.300000e-01    3.770000e+00
  P4dq SP1dq  1 4.300000e-01    3.590000e+00
  P4dq SN6dq  1 4.300000e-01    3.380000e+00
  P4dq SN5dq  1 4.300000e-01    3.160000e+00
  P4dq SN4dq  1 4.300000e-01    3.160000e+00
  P4dq SN3dq  1 4.300000e-01    2.930000e+00
  P4dq SN2dq  1 4.300000e-01    2.930000e+00
  P4dq SN1dq  1 4.300000e-01    2.920000e+00
  P3dq SP3dq  1 4.300000e-01    3.770000e+00
  P3dq SP2dq  1 4.300000e-01    3.770000e+00
  P3dq SP1dq  1 4.300000e-01    3.590000e+00
  P3dq SN6dq  1 4.300000e-01    3.380000e+00
  P3dq SN5dq  1 4.300000e-01    3.160000e+00
  P3dq SN4dq  1 4.300000e-01    3.160000e+00
  P3dq SN3dq  1 4.300000e-01    2.930000e+00
  P3dq SN2dq  1 4.300000e-01    2.930000e+00
  P3dq SN1dq  1 4.300000e-01    2.930000e+00
  P2dq SP2dq  1 4.300000e-01    3.770000e+00
  P2dq SP1dq  1 4.300000e-01    3.590000e+00
  P2dq SN6dq  1 4.300000e-01    3.590000e+00
  P2dq SN5dq  1 4.300000e-01    3.380000e+00
  P2dq SN4dq  1 4.300000e-01    3.160000e+00
  P2dq SN3dq  1 4.300000e-01    2.930000e+00
  P2dq SN2dq  1 4.300000e-01    2.930000e+00
  P2dq SN1dq  1 4.300000e-01    2.930000e+00
  P1dq SP1dq  1 4.300000e-01    3.590000e+00
  P1dq SN6dq  1 4.300000e-01    3.590000e+00
  P1dq SN5dq  1 4.300000e-01    3.380000e+00
  P1dq SN4dq  1 4.300000e-01    3.380000e+00
  P1dq SN3dq  1 4.300000e-01    2.930000e+00
  P1dq SN2dq  1 4.300000e-01    2.930000e+00
  P1dq SN1dq  1 4.300000e-01    2.930000e+00
  N6dq SN6dq  1 4.300000e-01    3.590000e+00
  N6dq SN5dq  1 4.300000e-01    3.590000e+00
  N6dq SN4dq  1 4.300000e-01    3.590000e+00
  N6dq SN3dq  1 4.300000e-01    3.160000e+00
  N6dq SN2dq  1 4.300000e-01    2.930000e+00
  N6dq SN1dq  1 4.300000e-01    2.930000e+00
  N5dq SN5dq  1 4.300000e-01    3.380000e+00
  N5dq SN4dq  1 4.300000e-01    3.380000e+00
  N5dq SN3dq  1 4.300000e-01    3.160000e+00
  N5dq SN2dq  1 4.300000e-01    3.160000e+00
  N5dq SN1dq  1 4.300000e-01    2.930000e+00
  N4dq SN4dq  1 4.300000e-01    3.380000e+00
  N4dq SN3dq  1 4.300000e-01    3.160000e+00
  N4dq SN2dq  1 4.300000e-01    3.160000e+00
  N4dq SN1dq  1 4.300000e-01    2.930000e+00
  N3dq SN3dq  1 4.300000e-01    3.160000e+00
  N3dq SN2dq  1 4.300000e-01    3.160000e+00
  N3dq SN1dq  1 4.300000e-01    2.930000e+00
  N2dq SN2dq  1 4.300000e-01    3.160000e+00
  N2dq SN1dq  1 4.300000e-01    2.930000e+00
  N1dq SN1dq  1 4.300000e-01    3.160000e+00
 SP6dq  P5dq  1 4.300000e-01    4.400000e+00
 SP6dq  P4dq  1 4.300000e-01    4.170000e+00
 SP6dq  P3dq  1 4.300000e-01    3.970000e+00
 SP6dq  P2dq  1 4.300000e-01    3.970000e+00
 SP6dq  P1dq  1 4.300000e-01    3.770000e+00
 SP6dq  N6dq  1 4.300000e-01    3.590000e+00
 SP6dq  N5dq  1 4.300000e-01    3.160000e+00
 SP6dq  N4dq  1 4.300000e-01    2.930000e+00
 SP6dq  N3dq  1 4.300000e-01    2.930000e+00
 SP6dq  N2dq  1 4.300000e-01    2.920000e+00
 SP6dq  N1dq  1 4.300000e-01    2.770000e+00
 SP5dq  P4dq  1 4.300000e-01    3.970000e+00
 SP5dq  P3dq  1 4.300000e-01    3.770000e+00
 SP5dq  P2dq  1 4.300000e-01    3.770000e+00
 SP5dq  P1dq  1 4.300000e-01    3.590000e+00
 SP5dq  N6dq  1 4.300000e-01    3.380000e+00
 SP5dq  N5dq  1 4.300000e-01    3.160000e+00
 SP5dq  N4dq  1 4.300000e-01    3.160000e+00
 SP5dq  N3dq  1 4.300000e-01    2.930000e+00
 SP5dq  N2dq  1 4.300000e-01    2.920000e+00
 SP5dq  N1dq  1 4.300000e-01    2.770000e+00
 SP4dq  P3dq  1 4.300000e-01    3.770000e+00
 SP4dq  P2dq  1 4.300000e-01    3.770000e+00
 SP4dq  P1dq  1 4.300000e-01    3.590000e+00
 SP4dq  N6dq  1 4.300000e-01    3.380000e+00
 SP4dq  N5dq  1 4.300000e-01    3.160000e+00
 SP4dq  N4dq  1 4.300000e-01    3.160000e+00
 SP4dq  N3dq  1 4.300000e-01    2.930000e+00
 SP4dq  N2dq  1 4.300000e-01    2.930000e+00
 SP4dq  N1dq  1 4.300000e-01    2.920000e+00
 SP3dq  P2dq  1 4.300000e-01    3.770000e+00
 SP3dq  P1dq  1 4.300000e-01    3.590000e+00
 SP3dq  N6dq  1 4.300000e-01    3.380000e+00
 SP3dq  N5dq  1 4.300000e-01    3.160000e+00
 SP3dq  N4dq  1 4.300000e-01    3.160000e+00
 SP3dq  N3dq  1 4.300000e-01    2.930000e+00
 SP3dq  N2dq  1 4.300000e-01    2.930000e+00
 SP3dq  N1dq  1 4.300000e-01    2.930000e+00
 SP2dq  P1dq  1 4.300000e-01    3.590000e+00
 SP2dq  N6dq  1 4.300000e-01    3.590000e+00
 SP2dq  N5dq  1 4.300000e-01    3.380000e+00
 SP2dq  N4dq  1 4.300000e-01    3.160000e+00
 SP2dq  N3dq  1 4.300000e-01    2.930000e+00
 SP2dq  N2dq  1 4.300000e-01    2.930000e+00
 SP2dq  N1dq  1 4.300000e-01    2.930000e+00
 SP1dq  N6dq  1 4.300000e-01    3.590000e+00
 SP1dq  N5dq  1 4.300000e-01    3.380000e+00
 SP1dq  N4dq  1 4.300000e-01    3.380000e+00
 SP1dq  N3dq  1 4.300000e-01    2.930000e+00
 SP1dq  N2dq  1 4.300000e-01    2.930000e+00
 SP1dq  N1dq  1 4.300000e-01    2.930000e+00
 SN6dq  N5dq  1 4.300000e-01    3.590000e+00
 SN6dq  N4dq  1 4.300000e-01    3.590000e+00
 SN6dq  N3dq  1 4.300000e-01    3.160000e+00
 SN6dq  N2dq  1 4.300000e-01    2.930000e+00
 SN6dq  N1dq  1 4.300000e-01    2.930000e+00
 SN5dq  N4dq  1 4.300000e-01    3.380000e+00
 SN5dq  N3dq  1 4.300000e-01    3.160000e+00
 SN5dq  N2dq  1 4.300000e-01    3.160000e+00
 SN5dq  N1dq  1 4.300000e-01    2.930000e+00
 SN4dq  N3dq  1 4.300000e-01    3.160000e+00
 SN4dq  N2dq  1 4.300000e-01    3.160000e+00
 SN4dq  N1dq  1 4.300000e-01    2.930000e+00
 SN3dq  N2dq  1 4.300000e-01    3.160000e+00
 SN3dq  N1dq  1 4.300000e-01    2.930000e+00
 SN2dq  N1dq  1 4.300000e-01    2.930000e+00
  P6dq SP5dh  1 4.300000e-01    4.400000e+00
  P6dq SP4dh  1 4.300000e-01    4.170000e+00
  P5dq SP4dh  1 4.300000e-01    3.970000e+00
  P6dq SP3dh  1 4.300000e-01    3.970000e+00
  P5dq SP3dh  1 4.300000e-01    3.770000e+00
  P4dq SP3dh  1 4.300000e-01    3.770000e+00
  P6dq SP2dh  1 4.300000e-01    3.970000e+00
  P5dq SP2dh  1 4.300000e-01    3.770000e+00
  P4dq SP2dh  1 4.300000e-01    3.770000e+00
  P3dq SP2dh  1 4.300000e-01    3.770000e+00
  P6dq SP1dh  1 4.300000e-01    3.770000e+00
  P5dq SP1dh  1 4.300000e-01    3.590000e+00
  P4dq SP1dh  1 4.300000e-01    3.590000e+00
  P3dq SP1dh  1 4.300000e-01    3.590000e+00
  P2dq SP1dh  1 4.300000e-01    3.590000e+00
  P6dq SN6dh  1 4.300000e-01    3.590000e+00
  P5dq SN6dh  1 4.300000e-01    3.380000e+00
  P4dq SN6dh  1 4.300000e-01    3.380000e+00
  P3dq SN6dh  1 4.300000e-01    3.380000e+00
  P2dq SN6dh  1 4.300000e-01    3.590000e+00
  P1dq SN6dh  1 4.300000e-01    3.590000e+00
  P6dq SN5dh  1 4.300000e-01    3.160000e+00
  P5dq SN5dh  1 4.300000e-01    3.160000e+00
  P4dq SN5dh  1 4.300000e-01    3.160000e+00
  P3dq SN5dh  1 4.300000e-01    3.160000e+00
  P2dq SN5dh  1 4.300000e-01    3.380000e+00
  P1dq SN5dh  1 4.300000e-01    3.380000e+00
  N6dq SN5dh  1 4.300000e-01    3.590000e+00
  P6dq SN4dh  1 4.300000e-01    2.930000e+00
  P5dq SN4dh  1 4.300000e-01    3.160000e+00
  P4dq SN4dh  1 4.300000e-01    3.160000e+00
  P3dq SN4dh  1 4.300000e-01    3.160000e+00
  P2dq SN4dh  1 4.300000e-01    3.160000e+00
  P1dq SN4dh  1 4.300000e-01    3.380000e+00
  N6dq SN4dh  1 4.300000e-01    3.590000e+00
  N5dq SN4dh  1 4.300000e-01    3.380000e+00
  P6dq SN3dh  1 4.300000e-01    2.930000e+00
  P5dq SN3dh  1 4.300000e-01    2.930000e+00
  P4dq SN3dh  1 4.300000e-01    2.930000e+00
  P3dq SN3dh  1 4.300000e-01    2.930000e+00
  P2dq SN3dh  1 4.300000e-01    2.930000e+00
  P1dq SN3dh  1 4.300000e-01    2.930000e+00
  N6dq SN3dh  1 4.300000e-01    3.160000e+00
  N5dq SN3dh  1 4.300000e-01    3.160000e+00
  N4dq SN3dh  1 4.300000e-01    3.160000e+00
  P6dq SN2dh  1 4.300000e-01    2.920000e+00
  P5dq SN2dh  1 4.300000e-01    2.920000e+00
  P4dq SN2dh  1 4.300000e-01    2.930000e+00
  P3dq SN2dh  1 4.300000e-01    2.930000e+00
  P2dq SN2dh  1 4.300000e-01    2.930000e+00
  P1dq SN2dh  1 4.300000e-01    2.930000e+00
  N6dq SN2dh  1 4.300000e-01    2.930000e+00
  N5dq SN2dh  1 4.300000e-01    3.160000e+00
  N4dq SN2dh  1 4.300000e-01    3.160000e+00
  N3dq SN2dh  1 4.300000e-01    3.160000e+00
  P6dq SN1dh  1 4.300000e-01    2.770000e+00
  P5dq SN1dh  1 4.300000e-01    2.770000e+00
  P4dq SN1dh  1 4.300000e-01    2.920000e+00
  P3dq SN1dh  1 4.300000e-01    2.930000e+00
  P2dq SN1dh  1 4.300000e-01    2.930000e+00
  P1dq SN1dh  1 4.300000e-01    2.930000e+00
  N6dq SN1dh  1 4.300000e-01    2.930000e+00
  N5dq SN1dh  1 4.300000e-01    2.930000e+00
  N4dq SN1dh  1 4.300000e-01    2.930000e+00
  N3dq SN1dh  1 4.300000e-01    2.930000e+00
  N2dq SN1dh  1 4.300000e-01    2.930000e+00
 SP6dq  P5dh  1 4.300000e-01    4.400000e+00
 SP6dq  P4dh  1 4.300000e-01    4.170000e+00
 SP5dq  P4dh  1 4.300000e-01    3.970000e+00
 SP6dq  P3dh  1 4.300000e-01    3.970000e+00
 SP5dq  P3dh  1 4.300000e-01    3.770000e+00
 SP4dq  P3dh  1 4.300000e-01    3.770000e+00
 SP6dq  P2dh  1 4.300000e-01    3.970000e+00
 SP5dq  P2dh  1 4.300000e-01    3.770000e+00
 SP4dq  P2dh  1 4.300000e-01    3.770000e+00
 SP3dq  P2dh  1 4.300000e-01    3.770000e+00
 SP6dq  P1dh  1 4.300000e-01    3.770000e+00
 SP5dq  P1dh  1 4.300000e-01    3.590000e+00
 SP4dq  P1dh  1 4.300000e-01    3.590000e+00
 SP3dq  P1dh  1 4.300000e-01    3.590000e+00
 SP2dq  P1dh  1 4.300000e-01    3.590000e+00
 SP6dq  N6dh  1 4.300000e-01    3.590000e+00
 SP5dq  N6dh  1 4.300000e-01    3.380000e+00
 SP4dq  N6dh  1 4.300000e-01    3.380000e+00
 SP3dq  N6dh  1 4.300000e-01    3.380000e+00
 SP2dq  N6dh  1 4.300000e-01    3.590000e+00
 SP1dq  N6dh  1 4.300000e-01    3.590000e+00
 SP6dq  N5dh  1 4.300000e-01    3.160000e+00
 SP5dq  N5dh  1 4.300000e-01    3.160000e+00
 SP4dq  N5dh  1 4.300000e-01    3.160000e+00
 SP3dq  N5dh  1 4.300000e-01    3.160000e+00
 SP2dq  N5dh  1 4.300000e-01    3.380000e+00
 SP1dq  N5dh  1 4.300000e-01    3.380000e+00
 SN6dq  N5dh  1 4.300000e-01    3.590000e+00
 SP6dq  N4dh  1 4.300000e-01    2.930000e+00
 SP5dq  N4dh  1 4.300000e-01    3.160000e+00
 SP4dq  N4dh  1 4.300000e-01    3.160000e+00
 SP3dq  N4dh  1 4.300000e-01    3.160000e+00
 SP2dq  N4dh  1 4.300000e-01    3.160000e+00
 SP1dq  N4dh  1 4.300000e-01    3.380000e+00
 SN6dq  N4dh  1 4.300000e-01    3.590000e+00
 SN5dq  N4dh  1 4.300000e-01    3.380000e+00
 SP6dq  N3dh  1 4.300000e-01    2.930000e+00
 SP5dq  N3dh  1 4.300000e-01    2.930000e+00
 SP4dq  N3dh  1 4.300000e-01    2.930000e+00
 SP3dq  N3dh  1 4.300000e-01    2.930000e+00
 SP2dq  N3dh  1 4.300000e-01    2.930000e+00
 SP1dq  N3dh  1 4.300000e-01    2.930000e+00
 SN6dq  N3dh  1 4.300000e-01    3.160000e+00
 SN5dq  N3dh  1 4.300000e-01    3.160000e+00
 SN4dq  N3dh  1 4.300000e-01    3.160000e+00
 SP6dq  N2dh  1 4.300000e-01    2.920000e+00
 SP5dq  N2dh  1 4.300000e-01    2.920000e+00
 SP4dq  N2dh  1 4.300000e-01    2.930000e+00
 SP3dq  N2dh  1 4.300000e-01    2.930000e+00
 SP2dq  N2dh  1 4.300000e-01    2.930000e+00
 SP1dq  N2dh  1 4.300000e-01    2.930000e+00
 SN6dq  N2dh  1 4.300000e-01    2.930000e+00
 SN5dq  N2dh  1 4.300000e-01    3.160000e+00
 SN4dq  N2dh  1 4.300000e-01    3.160000e+00
 SN3dq  N2dh  1 4.300000e-01    3.160000e+00
 SP6dq  N1dh  1 4.300000e-01    2.770000e+00
 SP5dq  N1dh  1 4.300000e-01    2.770000e+00
 SP4dq  N1dh  1 4.300000e-01    2.920000e+00
 SP3dq  N1dh  1 4.300000e-01    2.930000e+00
 SP2dq  N1dh  1 4.300000e-01    2.930000e+00
 SP1dq  N1dh  1 4.300000e-01    2.930000e+00
 SN6dq  N1dh  1 4.300000e-01    2.930000e+00
 SN5dq  N1dh  1 4.300000e-01    2.930000e+00
 SN4dq  N1dh  1 4.300000e-01    2.930000e+00
 SN3dq  N1dh  1 4.300000e-01    2.930000e+00
 SN2dq  N1dh  1 4.300000e-01    2.930000e+00
  P6dq SP5dr  1 4.300000e-01    4.400000e+00
  P6dq SP4dr  1 4.300000e-01    4.170000e+00
  P5dq SP4dr  1 4.300000e-01    3.970000e+00
  P6dq SP3dr  1 4.300000e-01    3.970000e+00
  P5dq SP3dr  1 4.300000e-01    3.770000e+00
  P4dq SP3dr  1 4.300000e-01    3.770000e+00
  P6dq SP2dr  1 4.300000e-01    3.970000e+00
  P5dq SP2dr  1 4.300000e-01    3.770000e+00
  P4dq SP2dr  1 4.300000e-01    3.770000e+00
  P3dq SP2dr  1 4.300000e-01    3.770000e+00
  P6dq SP1dr  1 4.300000e-01    3.770000e+00
  P5dq SP1dr  1 4.300000e-01    3.590000e+00
  P4dq SP1dr  1 4.300000e-01    3.590000e+00
  P3dq SP1dr  1 4.300000e-01    3.590000e+00
  P2dq SP1dr  1 4.300000e-01    3.590000e+00
  P6dq SN6dr  1 4.300000e-01    3.590000e+00
  P5dq SN6dr  1 4.300000e-01    3.380000e+00
  P4dq SN6dr  1 4.300000e-01    3.380000e+00
  P3dq SN6dr  1 4.300000e-01    3.380000e+00
  P2dq SN6dr  1 4.300000e-01    3.590000e+00
  P1dq SN6dr  1 4.300000e-01    3.590000e+00
  P6dq SN5dr  1 4.300000e-01    3.160000e+00
  P5dq SN5dr  1 4.300000e-01    3.160000e+00
  P4dq SN5dr  1 4.300000e-01    3.160000e+00
  P3dq SN5dr  1 4.300000e-01    3.160000e+00
  P2dq SN5dr  1 4.300000e-01    3.380000e+00
  P1dq SN5dr  1 4.300000e-01    3.380000e+00
  N6dq SN5dr  1 4.300000e-01    3.590000e+00
  P6dq SN4dr  1 4.300000e-01    2.930000e+00
  P5dq SN4dr  1 4.300000e-01    3.160000e+00
  P4dq SN4dr  1 4.300000e-01    3.160000e+00
  P3dq SN4dr  1 4.300000e-01    3.160000e+00
  P2dq SN4dr  1 4.300000e-01    3.160000e+00
  P1dq SN4dr  1 4.300000e-01    3.380000e+00
  N6dq SN4dr  1 4.300000e-01    3.590000e+00
  N5dq SN4dr  1 4.300000e-01    3.380000e+00
  P6dq SN3dr  1 4.300000e-01    2.930000e+00
  P5dq SN3dr  1 4.300000e-01    2.930000e+00
  P4dq SN3dr  1 4.300000e-01    2.930000e+00
  P3dq SN3dr  1 4.300000e-01    2.930000e+00
  P2dq SN3dr  1 4.300000e-01    2.930000e+00
  P1dq SN3dr  1 4.300000e-01    2.930000e+00
  N6dq SN3dr  1 4.300000e-01    3.160000e+00
  N5dq SN3dr  1 4.300000e-01    3.160000e+00
  N4dq SN3dr  1 4.300000e-01    3.160000e+00
  P6dq SN2dr  1 4.300000e-01    2.920000e+00
  P5dq SN2dr  1 4.300000e-01    2.920000e+00
  P4dq SN2dr  1 4.300000e-01    2.930000e+00
  P3dq SN2dr  1 4.300000e-01    2.930000e+00
  P2dq SN2dr  1 4.300000e-01    2.930000e+00
  P1dq SN2dr  1 4.300000e-01    2.930000e+00
  N6dq SN2dr  1 4.300000e-01    2.930000e+00
  N5dq SN2dr  1 4.300000e-01    3.160000e+00
  N4dq SN2dr  1 4.300000e-01    3.160000e+00
  N3dq SN2dr  1 4.300000e-01    3.160000e+00
  P6dq SN1dr  1 4.300000e-01    2.770000e+00
  P5dq SN1dr  1 4.300000e-01    2.770000e+00
  P4dq SN1dr  1 4.300000e-01    2.920000e+00
  P3dq SN1dr  1 4.300000e-01    2.930000e+00
  P2dq SN1dr  1 4.300000e-01    2.930000e+00
  P1dq SN1dr  1 4.300000e-01    2.930000e+00
  N6dq SN1dr  1 4.300000e-01    2.930000e+00
  N5dq SN1dr  1 4.300000e-01    2.930000e+00
  N4dq SN1dr  1 4.300000e-01    2.930000e+00
  N3dq SN1dr  1 4.300000e-01    2.930000e+00
  N2dq SN1dr  1 4.300000e-01    2.930000e+00
 SP6dq  P5dr  1 4.300000e-01    4.400000e+00
 SP6dq  P4dr  1 4.300000e-01    4.170000e+00
 SP5dq  P4dr  1 4.300000e-01    3.970000e+00
 SP6dq  P3dr  1 4.300000e-01    3.970000e+00
 SP5dq  P3dr  1 4.300000e-01    3.770000e+00
 SP4dq  P3dr  1 4.300000e-01    3.770000e+00
 SP6dq  P2dr  1 4.300000e-01    3.970000e+00
 SP5dq  P2dr  1 4.300000e-01    3.770000e+00
 SP4dq  P2dr  1 4.300000e-01    3.770000e+00
 SP3dq  P2dr  1 4.300000e-01    3.770000e+00
 SP6dq  P1dr  1 4.300000e-01    3.770000e+00
 SP5dq  P1dr  1 4.300000e-01    3.590000e+00
 SP4dq  P1dr  1 4.300000e-01    3.590000e+00
 SP3dq  P1dr  1 4.300000e-01    3.590000e+00
 SP2dq  P1dr  1 4.300000e-01    3.590000e+00
 SP6dq  N6dr  1 4.300000e-01    3.590000e+00
 SP5dq  N6dr  1 4.300000e-01    3.380000e+00
 SP4dq  N6dr  1 4.300000e-01    3.380000e+00
 SP3dq  N6dr  1 4.300000e-01    3.380000e+00
 SP2dq  N6dr  1 4.300000e-01    3.590000e+00
 SP1dq  N6dr  1 4.300000e-01    3.590000e+00
 SP6dq  N5dr  1 4.300000e-01    3.160000e+00
 SP5dq  N5dr  1 4.300000e-01    3.160000e+00
 SP4dq  N5dr  1 4.300000e-01    3.160000e+00
 SP3dq  N5dr  1 4.300000e-01    3.160000e+00
 SP2dq  N5dr  1 4.300000e-01    3.380000e+00
 SP1dq  N5dr  1 4.300000e-01    3.380000e+00
 SN6dq  N5dr  1 4.300000e-01    3.590000e+00
 SP6dq  N4dr  1 4.300000e-01    2.930000e+00
 SP5dq  N4dr  1 4.300000e-01    3.160000e+00
 SP4dq  N4dr  1 4.300000e-01    3.160000e+00
 SP3dq  N4dr  1 4.300000e-01    3.160000e+00
 SP2dq  N4dr  1 4.300000e-01    3.160000e+00
 SP1dq  N4dr  1 4.300000e-01    3.380000e+00
 SN6dq  N4dr  1 4.300000e-01    3.590000e+00
 SN5dq  N4dr  1 4.300000e-01    3.380000e+00
 SP6dq  N3dr  1 4.300000e-01    2.930000e+00
 SP5dq  N3dr  1 4.300000e-01    2.930000e+00
 SP4dq  N3dr  1 4.300000e-01    2.930000e+00
 SP3dq  N3dr  1 4.300000e-01    2.930000e+00
 SP2dq  N3dr  1 4.300000e-01    2.930000e+00
 SP1dq  N3dr  1 4.300000e-01    2.930000e+00
 SN6dq  N3dr  1 4.300000e-01    3.160000e+00
 SN5dq  N3dr  1 4.300000e-01    3.160000e+00
 SN4dq  N3dr  1 4.300000e-01    3.160000e+00
 SP6dq  N2dr  1 4.300000e-01    2.920000e+00
 SP5dq  N2dr  1 4.300000e-01    2.920000e+00
 SP4dq  N2dr  1 4.300000e-01    2.930000e+00
 SP3dq  N2dr  1 4.300000e-01    2.930000e+00
 SP2dq  N2dr  1 4.300000e-01    2.930000e+00
 SP1dq  N2dr  1 4.300000e-01    2.930000e+00
 SN6dq  N2dr  1 4.300000e-01    2.930000e+00
 SN5dq  N2dr  1 4.300000e-01    3.160000e+00
 SN4dq  N2dr  1 4.300000e-01    3.160000e+00
 SN3dq  N2dr  1 4.300000e-01    3.160000e+00
 SP6dq  N1dr  1 4.300000e-01    2.770000e+00
 SP5dq  N1dr  1 4.300000e-01    2.770000e+00
 SP4dq  N1dr  1 4.300000e-01    2.920000e+00
 SP3dq  N1dr  1 4.300000e-01    2.930000e+00
 SP2dq  N1dr  1 4.300000e-01    2.930000e+00
 SP1dq  N1dr  1 4.300000e-01    2.930000e+00
 SN6dq  N1dr  1 4.300000e-01    2.930000e+00
 SN5dq  N1dr  1 4.300000e-01    2.930000e+00
 SN4dq  N1dr  1 4.300000e-01    2.930000e+00
 SN3dq  N1dr  1 4.300000e-01    2.930000e+00
 SN2dq  N1dr  1 4.300000e-01    2.930000e+00
  P6dh  SP5d  1 4.300000e-01    3.970000e+00
  P6dh  SP4d  1 4.300000e-01    3.770000e+00
  P6dh  SP3d  1 4.300000e-01    3.590000e+00
  P6dh  SP2d  1 4.300000e-01    3.590000e+00
  P6dh  SP1d  1 4.300000e-01    3.380000e+00
  P6dh  SN6d  1 4.300000e-01    3.160000e+00
  P6dh  SN5d  1 4.300000e-01    2.920000e+00
  P6dh  SN4d  1 4.300000e-01    2.770000e+00
  P6dh  SN3d  1 4.300000e-01    2.770000e+00
  P6dh  SN2d  1 4.300000e-01    2.530000e+00
  P6dh  SN1d  1 4.300000e-01    2.320000e+00
  P5dh  SP4d  1 4.300000e-01    3.590000e+00
  P5dh  SP3d  1 4.300000e-01    3.380000e+00
  P5dh  SP2d  1 4.300000e-01    3.380000e+00
  P5dh  SP1d  1 4.300000e-01    3.160000e+00
  P5dh  SN6d  1 4.300000e-01    2.930000e+00
  P5dh  SN5d  1 4.300000e-01    2.920000e+00
  P5dh  SN4d  1 4.300000e-01    2.920000e+00
  P5dh  SN3d  1 4.300000e-01    2.770000e+00
  P5dh  SN2d  1 4.300000e-01    2.530000e+00
  P5dh  SN1d  1 4.300000e-01    2.320000e+00
  P4dh  SP3d  1 4.300000e-01    3.380000e+00
  P4dh  SP2d  1 4.300000e-01    3.380000e+00
  P4dh  SP1d  1 4.300000e-01    3.160000e+00
  P4dh  SN6d  1 4.300000e-01    2.930000e+00
  P4dh  SN5d  1 4.300000e-01    2.920000e+00
  P4dh  SN4d  1 4.300000e-01    2.920000e+00
  P4dh  SN3d  1 4.300000e-01    2.770000e+00
  P4dh  SN2d  1 4.300000e-01    2.770000e+00
  P4dh  SN1d  1 4.300000e-01    2.530000e+00
  P3dh  SP2d  1 4.300000e-01    3.380000e+00
  P3dh  SP1d  1 4.300000e-01    3.160000e+00
  P3dh  SN6d  1 4.300000e-01    2.930000e+00
  P3dh  SN5d  1 4.300000e-01    2.920000e+00
  P3dh  SN4d  1 4.300000e-01    2.920000e+00
  P3dh  SN3d  1 4.300000e-01    2.770000e+00
  P3dh  SN2d  1 4.300000e-01    2.770000e+00
  P3dh  SN1d  1 4.300000e-01    2.770000e+00
  P2dh  SP1d  1 4.300000e-01    3.160000e+00
  P2dh  SN6d  1 4.300000e-01    3.160000e+00
  P2dh  SN5d  1 4.300000e-01    2.930000e+00
  P2dh  SN4d  1 4.300000e-01    2.920000e+00
  P2dh  SN3d  1 4.300000e-01    2.770000e+00
  P2dh  SN2d  1 4.300000e-01    2.770000e+00
  P2dh  SN1d  1 4.300000e-01    2.770000e+00
  P1dh  SN6d  1 4.300000e-01    3.160000e+00
  P1dh  SN5d  1 4.300000e-01    2.930000e+00
  P1dh  SN4d  1 4.300000e-01    2.930000e+00
  P1dh  SN3d  1 4.300000e-01    2.770000e+00
  P1dh  SN2d  1 4.300000e-01    2.770000e+00
  P1dh  SN1d  1 4.300000e-01    2.770000e+00
  N6dh  SN5d  1 4.300000e-01    3.160000e+00
  N6dh  SN4d  1 4.300000e-01    3.160000e+00
  N6dh  SN3d  1 4.300000e-01    2.920000e+00
  N6dh  SN2d  1 4.300000e-01    2.770000e+00
  N6dh  SN1d  1 4.300000e-01    2.770000e+00
  N5dh  SN4d  1 4.300000e-01    2.930000e+00
  N5dh  SN3d  1 4.300000e-01    2.920000e+00
  N5dh  SN2d  1 4.300000e-01    2.920000e+00
  N5dh  SN1d  1 4.300000e-01    2.770000e+00
  N4dh  SN3d  1 4.300000e-01    2.920000e+00
  N4dh  SN2d  1 4.300000e-01    2.920000e+00
  N4dh  SN1d  1 4.300000e-01    2.770000e+00
  N3dh  SN2d  1 4.300000e-01    2.920000e+00
  N3dh  SN1d  1 4.300000e-01    2.770000e+00
  N2dh  SN1d  1 4.300000e-01    2.770000e+00
 SP6dh   P5d  1 4.300000e-01    3.970000e+00
 SP6dh   P4d  1 4.300000e-01    3.770000e+00
 SP6dh   P3d  1 4.300000e-01    3.590000e+00
 SP6dh   P2d  1 4.300000e-01    3.590000e+00
 SP6dh   P1d  1 4.300000e-01    3.380000e+00
 SP6dh   N6d  1 4.300000e-01    3.160000e+00
 SP6dh   N5d  1 4.300000e-01    2.920000e+00
 SP6dh   N4d  1 4.300000e-01    2.770000e+00
 SP6dh   N3d  1 4.300000e-01    2.770000e+00
 SP6dh   N2d  1 4.300000e-01    2.530000e+00
 SP6dh   N1d  1 4.300000e-01    2.320000e+00
 SP5dh   P4d  1 4.300000e-01    3.590000e+00
 SP5dh   P3d  1 4.300000e-01    3.380000e+00
 SP5dh   P2d  1 4.300000e-01    3.380000e+00
 SP5dh   P1d  1 4.300000e-01    3.160000e+00
 SP5dh   N6d  1 4.300000e-01    2.930000e+00
 SP5dh   N5d  1 4.300000e-01    2.920000e+00
 SP5dh   N4d  1 4.300000e-01    2.920000e+00
 SP5dh   N3d  1 4.300000e-01    2.770000e+00
 SP5dh   N2d  1 4.300000e-01    2.530000e+00
 SP5dh   N1d  1 4.300000e-01    2.320000e+00
 SP4dh   P3d  1 4.300000e-01    3.380000e+00
 SP4dh   P2d  1 4.300000e-01    3.380000e+00
 SP4dh   P1d  1 4.300000e-01    3.160000e+00
 SP4dh   N6d  1 4.300000e-01    2.930000e+00
 SP4dh   N5d  1 4.300000e-01    2.920000e+00
 SP4dh   N4d  1 4.300000e-01    2.920000e+00
 SP4dh   N3d  1 4.300000e-01    2.770000e+00
 SP4dh   N2d  1 4.300000e-01    2.770000e+00
 SP4dh   N1d  1 4.300000e-01    2.530000e+00
 SP3dh   P2d  1 4.300000e-01    3.380000e+00
 SP3dh   P1d  1 4.300000e-01    3.160000e+00
 SP3dh   N6d  1 4.300000e-01    2.930000e+00
 SP3dh   N5d  1 4.300000e-01    2.920000e+00
 SP3dh   N4d  1 4.300000e-01    2.920000e+00
 SP3dh   N3d  1 4.300000e-01    2.770000e+00
 SP3dh   N2d  1 4.300000e-01    2.770000e+00
 SP3dh   N1d  1 4.300000e-01    2.770000e+00
 SP2dh   P1d  1 4.300000e-01    3.160000e+00
 SP2dh   N6d  1 4.300000e-01    3.160000e+00
 SP2dh   N5d  1 4.300000e-01    2.930000e+00
 SP2dh   N4d  1 4.300000e-01    2.920000e+00
 SP2dh   N3d  1 4.300000e-01    2.770000e+00
 SP2dh   N2d  1 4.300000e-01    2.770000e+00
 SP2dh   N1d  1 4.300000e-01    2.770000e+00
 SP1dh   N6d  1 4.300000e-01    3.160000e+00
 SP1dh   N5d  1 4.300000e-01    2.930000e+00
 SP1dh   N4d  1 4.300000e-01    2.930000e+00
 SP1dh   N3d  1 4.300000e-01    2.770000e+00
 SP1dh   N2d  1 4.300000e-01    2.770000e+00
 SP1dh   N1d  1 4.300000e-01    2.770000e+00
 SN6dh   N5d  1 4.300000e-01    3.160000e+00
 SN6dh   N4d  1 4.300000e-01    3.160000e+00
 SN6dh   N3d  1 4.300000e-01    2.920000e+00
 SN6dh   N2d  1 4.300000e-01    2.770000e+00
 SN6dh   N1d  1 4.300000e-01    2.770000e+00
 SN5dh   N4d  1 4.300000e-01    2.930000e+00
 SN5dh   N3d  1 4.300000e-01    2.920000e+00
 SN5dh   N2d  1 4.300000e-01    2.920000e+00
 SN5dh   N1d  1 4.300000e-01    2.770000e+00
 SN4dh   N3d  1 4.300000e-01    2.920000e+00
 SN4dh   N2d  1 4.300000e-01    2.920000e+00
 SN4dh   N1d  1 4.300000e-01    2.770000e+00
 SN3dh   N2d  1 4.300000e-01    2.920000e+00
 SN3dh   N1d  1 4.300000e-01    2.770000e+00
 SN2dh   N1d  1 4.300000e-01    2.770000e+00
  P6dh SP6dq  1 4.300000e-01    4.680000e+00
  P6dh SN1dq  1 4.300000e-01    2.770000e+00
  P6dh SN2dq  1 4.300000e-01    2.920000e+00
  P6dh SN3dq  1 4.300000e-01    2.930000e+00
  P6dh SN4dq  1 4.300000e-01    2.930000e+00
  P6dh SN5dq  1 4.300000e-01    3.160000e+00
  P6dh SN6dq  1 4.300000e-01    3.590000e+00
  P6dh SP1dq  1 4.300000e-01    3.770000e+00
  P6dh SP2dq  1 4.300000e-01    3.970000e+00
  P6dh SP3dq  1 4.300000e-01    3.970000e+00
  P6dh SP4dq  1 4.300000e-01    4.170000e+00
  P6dh SP5dq  1 4.300000e-01    4.400000e+00
  P5dh SP5dq  1 4.300000e-01    4.170000e+00
  P5dh SN1dq  1 4.300000e-01    2.770000e+00
  P5dh SN2dq  1 4.300000e-01    2.920000e+00
  P5dh SN3dq  1 4.300000e-01    2.930000e+00
  P5dh SN4dq  1 4.300000e-01    3.160000e+00
  P5dh SN5dq  1 4.300000e-01    3.160000e+00
  P5dh SN6dq  1 4.300000e-01    3.380000e+00
  P5dh SP1dq  1 4.300000e-01    3.590000e+00
  P5dh SP2dq  1 4.300000e-01    3.770000e+00
  P5dh SP3dq  1 4.300000e-01    3.770000e+00
  P5dh SP4dq  1 4.300000e-01    3.970000e+00
  P4dh SP4dq  1 4.300000e-01    3.970000e+00
  P4dh SN1dq  1 4.300000e-01    2.920000e+00
  P4dh SN2dq  1 4.300000e-01    2.930000e+00
  P4dh SN3dq  1 4.300000e-01    2.930000e+00
  P4dh SN4dq  1 4.300000e-01    3.160000e+00
  P4dh SN5dq  1 4.300000e-01    3.160000e+00
  P4dh SN6dq  1 4.300000e-01    3.380000e+00
  P4dh SP1dq  1 4.300000e-01    3.590000e+00
  P4dh SP2dq  1 4.300000e-01    3.770000e+00
  P4dh SP3dq  1 4.300000e-01    3.770000e+00
  P3dh SP3dq  1 4.300000e-01    3.770000e+00
  P3dh SN1dq  1 4.300000e-01    2.930000e+00
  P3dh SN2dq  1 4.300000e-01    2.930000e+00
  P3dh SN3dq  1 4.300000e-01    2.930000e+00
  P3dh SN4dq  1 4.300000e-01    3.160000e+00
  P3dh SN5dq  1 4.300000e-01    3.160000e+00
  P3dh SN6dq  1 4.300000e-01    3.380000e+00
  P3dh SP1dq  1 4.300000e-01    3.590000e+00
  P3dh SP2dq  1 4.300000e-01    3.770000e+00
  P2dh SP2dq  1 4.300000e-01    3.770000e+00
  P2dh SN1dq  1 4.300000e-01    2.930000e+00
  P2dh SN2dq  1 4.300000e-01    2.930000e+00
  P2dh SN3dq  1 4.300000e-01    2.930000e+00
  P2dh SN4dq  1 4.300000e-01    3.160000e+00
  P2dh SN5dq  1 4.300000e-01    3.380000e+00
  P2dh SN6dq  1 4.300000e-01    3.590000e+00
  P2dh SP1dq  1 4.300000e-01    3.590000e+00
  P1dh SP1dq  1 4.300000e-01    3.590000e+00
  P1dh SN1dq  1 4.300000e-01    2.930000e+00
  P1dh SN2dq  1 4.300000e-01    2.930000e+00
  P1dh SN3dq  1 4.300000e-01    2.930000e+00
  P1dh SN4dq  1 4.300000e-01    3.380000e+00
  P1dh SN5dq  1 4.300000e-01    3.380000e+00
  P1dh SN6dq  1 4.300000e-01    3.590000e+00
  N6dh SN6dq  1 4.300000e-01    3.590000e+00
  N6dh SN1dq  1 4.300000e-01    2.930000e+00
  N6dh SN2dq  1 4.300000e-01    2.930000e+00
  N6dh SN3dq  1 4.300000e-01    3.160000e+00
  N6dh SN4dq  1 4.300000e-01    3.590000e+00
  N6dh SN5dq  1 4.300000e-01    3.590000e+00
  N5dh SN5dq  1 4.300000e-01    3.380000e+00
  N5dh SN1dq  1 4.300000e-01    2.930000e+00
  N5dh SN2dq  1 4.300000e-01    3.160000e+00
  N5dh SN3dq  1 4.300000e-01    3.160000e+00
  N5dh SN4dq  1 4.300000e-01    3.380000e+00
  N4dh SN4dq  1 4.300000e-01    3.380000e+00
  N4dh SN1dq  1 4.300000e-01    2.930000e+00
  N4dh SN2dq  1 4.300000e-01    3.160000e+00
  N4dh SN3dq  1 4.300000e-01    3.160000e+00
  N3dh SN3dq  1 4.300000e-01    3.160000e+00
  N3dh SN1dq  1 4.300000e-01    2.930000e+00
  N3dh SN2dq  1 4.300000e-01    3.160000e+00
  N2dh SN2dq  1 4.300000e-01    3.160000e+00
  N2dh SN1dq  1 4.300000e-01    2.930000e+00
  N1dh SN1dq  1 4.300000e-01    3.160000e+00
 SP6dh  P6dq  1 4.300000e-01    4.680000e+00
 SP6dh  N1dq  1 4.300000e-01    2.770000e+00
 SP6dh  N2dq  1 4.300000e-01    2.920000e+00
 SP6dh  N3dq  1 4.300000e-01    2.930000e+00
 SP6dh  N4dq  1 4.300000e-01    2.930000e+00
 SP6dh  N5dq  1 4.300000e-01    3.160000e+00
 SP6dh  N6dq  1 4.300000e-01    3.590000e+00
 SP6dh  P1dq  1 4.300000e-01    3.770000e+00
 SP6dh  P2dq  1 4.300000e-01    3.970000e+00
 SP6dh  P3dq  1 4.300000e-01    3.970000e+00
 SP6dh  P4dq  1 4.300000e-01    4.170000e+00
 SP6dh  P5dq  1 4.300000e-01    4.400000e+00
 SP5dh  P5dq  1 4.300000e-01    4.170000e+00
 SP5dh  N1dq  1 4.300000e-01    2.770000e+00
 SP5dh  N2dq  1 4.300000e-01    2.920000e+00
 SP5dh  N3dq  1 4.300000e-01    2.930000e+00
 SP5dh  N4dq  1 4.300000e-01    3.160000e+00
 SP5dh  N5dq  1 4.300000e-01    3.160000e+00
 SP5dh  N6dq  1 4.300000e-01    3.380000e+00
 SP5dh  P1dq  1 4.300000e-01    3.590000e+00
 SP5dh  P2dq  1 4.300000e-01    3.770000e+00
 SP5dh  P3dq  1 4.300000e-01    3.770000e+00
 SP5dh  P4dq  1 4.300000e-01    3.970000e+00
 SP4dh  P4dq  1 4.300000e-01    3.970000e+00
 SP4dh  N1dq  1 4.300000e-01    2.920000e+00
 SP4dh  N2dq  1 4.300000e-01    2.930000e+00
 SP4dh  N3dq  1 4.300000e-01    2.930000e+00
 SP4dh  N4dq  1 4.300000e-01    3.160000e+00
 SP4dh  N5dq  1 4.300000e-01    3.160000e+00
 SP4dh  N6dq  1 4.300000e-01    3.380000e+00
 SP4dh  P1dq  1 4.300000e-01    3.590000e+00
 SP4dh  P2dq  1 4.300000e-01    3.770000e+00
 SP4dh  P3dq  1 4.300000e-01    3.770000e+00
 SP3dh  P3dq  1 4.300000e-01    3.770000e+00
 SP3dh  N1dq  1 4.300000e-01    2.930000e+00
 SP3dh  N2dq  1 4.300000e-01    2.930000e+00
 SP3dh  N3dq  1 4.300000e-01    2.930000e+00
 SP3dh  N4dq  1 4.300000e-01    3.160000e+00
 SP3dh  N5dq  1 4.300000e-01    3.160000e+00
 SP3dh  N6dq  1 4.300000e-01    3.380000e+00
 SP3dh  P1dq  1 4.300000e-01    3.590000e+00
 SP3dh  P2dq  1 4.300000e-01    3.770000e+00
 SP2dh  P2dq  1 4.300000e-01    3.770000e+00
 SP2dh  N1dq  1 4.300000e-01    2.930000e+00
 SP2dh  N2dq  1 4.300000e-01    2.930000e+00
 SP2dh  N3dq  1 4.300000e-01    2.930000e+00
 SP2dh  N4dq  1 4.300000e-01    3.160000e+00
 SP2dh  N5dq  1 4.300000e-01    3.380000e+00
 SP2dh  N6dq  1 4.300000e-01    3.590000e+00
 SP2dh  P1dq  1 4.300000e-01    3.590000e+00
 SP1dh  P1dq  1 4.300000e-01    3.590000e+00
 SP1dh  N1dq  1 4.300000e-01    2.930000e+00
 SP1dh  N2dq  1 4.300000e-01    2.930000e+00
 SP1dh  N3dq  1 4.300000e-01    2.930000e+00
 SP1dh  N4dq  1 4.300000e-01    3.380000e+00
 SP1dh  N5dq  1 4.300000e-01    3.380000e+00
 SP1dh  N6dq  1 4.300000e-01    3.590000e+00
 SN6dh  N6dq  1 4.300000e-01    3.590000e+00
 SN6dh  N1dq  1 4.300000e-01    2.930000e+00
 SN6dh  N2dq  1 4.300000e-01    2.930000e+00
 SN6dh  N3dq  1 4.300000e-01    3.160000e+00
 SN6dh  N4dq  1 4.300000e-01    3.590000e+00
 SN6dh  N5dq  1 4.300000e-01    3.590000e+00
 SN5dh  N5dq  1 4.300000e-01    3.380000e+00
 SN5dh  N1dq  1 4.300000e-01    2.930000e+00
 SN5dh  N2dq  1 4.300000e-01    3.160000e+00
 SN5dh  N3dq  1 4.300000e-01    3.160000e+00
 SN5dh  N4dq  1 4.300000e-01    3.380000e+00
 SN4dh  N4dq  1 4.300000e-01    3.380000e+00
 SN4dh  N1dq  1 4.300000e-01    2.930000e+00
 SN4dh  N2dq  1 4.300000e-01    3.160000e+00
 SN4dh  N3dq  1 4.300000e-01    3.160000e+00
 SN3dh  N3dq  1 4.300000e-01    3.160000e+00
 SN3dh  N1dq  1 4.300000e-01    2.930000e+00
 SN3dh  N2dq  1 4.300000e-01    3.160000e+00
 SN2dh  N2dq  1 4.300000e-01    3.160000e+00
 SN2dh  N1dq  1 4.300000e-01    2.930000e+00
 SN1dh  N1dq  1 4.300000e-01    3.160000e+00
  P6dh SP6dh  1 4.300000e-01    4.400000e+00
  P5dh SP5dh  1 4.300000e-01    3.970000e+00
  P4dh SP4dh  1 4.300000e-01    3.770000e+00
  P3dh SP3dh  1 4.300000e-01    3.590000e+00
  P2dh SP2dh  1 4.300000e-01    3.590000e+00
  P1dh SP1dh  1 4.300000e-01    3.380000e+00
  N6dh SN6dh  1 4.300000e-01    3.380000e+00
  N5dh SN5dh  1 4.300000e-01    3.160000e+00
  N4dh SN4dh  1 4.300000e-01    3.160000e+00
  N3dh SN3dh  1 4.300000e-01    2.930000e+00
  N2dh SN2dh  1 4.300000e-01    2.930000e+00
  N1dh SN1dh  1 4.300000e-01    2.930000e+00
  P6dh SP5dh  1 4.300000e-01    4.170000e+00
  P6dh SP4dh  1 4.300000e-01    3.970000e+00
  P6dh SP3dh  1 4.300000e-01    3.770000e+00
  P6dh SP2dh  1 4.300000e-01    3.770000e+00
  P6dh SP1dh  1 4.300000e-01    3.590000e+00
  P6dh SN6dh  1 4.300000e-01    3.380000e+00
  P6dh SN5dh  1 4.300000e-01    2.930000e+00
  P6dh SN4dh  1 4.300000e-01    2.920000e+00
  P6dh SN3dh  1 4.300000e-01    2.920000e+00
  P6dh SN2dh  1 4.300000e-01    2.770000e+00
  P6dh SN1dh  1 4.300000e-01    2.530000e+00
  P5dh SP4dh  1 4.300000e-01    3.770000e+00
  P5dh SP3dh  1 4.300000e-01    3.590000e+00
  P5dh SP2dh  1 4.300000e-01    3.590000e+00
  P5dh SP1dh  1 4.300000e-01    3.380000e+00
  P5dh SN6dh  1 4.300000e-01    3.160000e+00
  P5dh SN5dh  1 4.300000e-01    2.930000e+00
  P5dh SN4dh  1 4.300000e-01    2.930000e+00
  P5dh SN3dh  1 4.300000e-01    2.920000e+00
  P5dh SN2dh  1 4.300000e-01    2.770000e+00
  P5dh SN1dh  1 4.300000e-01    2.530000e+00
  P4dh SP3dh  1 4.300000e-01    3.590000e+00
  P4dh SP2dh  1 4.300000e-01    3.590000e+00
  P4dh SP1dh  1 4.300000e-01    3.380000e+00
  P4dh SN6dh  1 4.300000e-01    3.160000e+00
  P4dh SN5dh  1 4.300000e-01    2.930000e+00
  P4dh SN4dh  1 4.300000e-01    2.930000e+00
  P4dh SN3dh  1 4.300000e-01    2.920000e+00
  P4dh SN2dh  1 4.300000e-01    2.920000e+00
  P4dh SN1dh  1 4.300000e-01    2.770000e+00
  P3dh SP2dh  1 4.300000e-01    3.590000e+00
  P3dh SP1dh  1 4.300000e-01    3.380000e+00
  P3dh SN6dh  1 4.300000e-01    3.160000e+00
  P3dh SN5dh  1 4.300000e-01    2.930000e+00
  P3dh SN4dh  1 4.300000e-01    2.930000e+00
  P3dh SN3dh  1 4.300000e-01    2.920000e+00
  P3dh SN2dh  1 4.300000e-01    2.920000e+00
  P3dh SN1dh  1 4.300000e-01    2.920000e+00
  P2dh SP1dh  1 4.300000e-01    3.380000e+00
  P2dh SN6dh  1 4.300000e-01    3.380000e+00
  P2dh SN5dh  1 4.300000e-01    3.160000e+00
  P2dh SN4dh  1 4.300000e-01    2.930000e+00
  P2dh SN3dh  1 4.300000e-01    2.920000e+00
  P2dh SN2dh  1 4.300000e-01    2.920000e+00
  P2dh SN1dh  1 4.300000e-01    2.920000e+00
  P1dh SN6dh  1 4.300000e-01    3.380000e+00
  P1dh SN5dh  1 4.300000e-01    3.160000e+00
  P1dh SN4dh  1 4.300000e-01    3.160000e+00
  P1dh SN3dh  1 4.300000e-01    2.920000e+00
  P1dh SN2dh  1 4.300000e-01    2.920000e+00
  P1dh SN1dh  1 4.300000e-01    2.920000e+00
  N6dh SN5dh  1 4.300000e-01    3.380000e+00
  N6dh SN4dh  1 4.300000e-01    3.380000e+00
  N6dh SN3dh  1 4.300000e-01    2.930000e+00
  N6dh SN2dh  1 4.300000e-01    2.920000e+00
  N6dh SN1dh  1 4.300000e-01    2.920000e+00
  N5dh SN4dh  1 4.300000e-01    3.160000e+00
  N5dh SN3dh  1 4.300000e-01    2.930000e+00
  N5dh SN2dh  1 4.300000e-01    2.930000e+00
  N5dh SN1dh  1 4.300000e-01    2.920000e+00
  N4dh SN3dh  1 4.300000e-01    2.930000e+00
  N4dh SN2dh  1 4.300000e-01    2.930000e+00
  N4dh SN1dh  1 4.300000e-01    2.920000e+00
  N3dh SN2dh  1 4.300000e-01    2.930000e+00
  N3dh SN1dh  1 4.300000e-01    2.920000e+00
  N2dh SN1dh  1 4.300000e-01    2.920000e+00
 SP6dh  P5dh  1 4.300000e-01    4.170000e+00
 SP6dh  P4dh  1 4.300000e-01    3.970000e+00
 SP6dh  P3dh  1 4.300000e-01    3.770000e+00
 SP6dh  P2dh  1 4.300000e-01    3.770000e+00
 SP6dh  P1dh  1 4.300000e-01    3.590000e+00
 SP6dh  N6dh  1 4.300000e-01    3.380000e+00
 SP6dh  N5dh  1 4.300000e-01    2.930000e+00
 SP6dh  N4dh  1 4.300000e-01    2.920000e+00
 SP6dh  N3dh  1 4.300000e-01    2.920000e+00
 SP6dh  N2dh  1 4.300000e-01    2.770000e+00
 SP6dh  N1dh  1 4.300000e-01    2.530000e+00
 SP5dh  P4dh  1 4.300000e-01    3.770000e+00
 SP5dh  P3dh  1 4.300000e-01    3.590000e+00
 SP5dh  P2dh  1 4.300000e-01    3.590000e+00
 SP5dh  P1dh  1 4.300000e-01    3.380000e+00
 SP5dh  N6dh  1 4.300000e-01    3.160000e+00
 SP5dh  N5dh  1 4.300000e-01    2.930000e+00
 SP5dh  N4dh  1 4.300000e-01    2.930000e+00
 SP5dh  N3dh  1 4.300000e-01    2.920000e+00
 SP5dh  N2dh  1 4.300000e-01    2.770000e+00
 SP5dh  N1dh  1 4.300000e-01    2.530000e+00
 SP4dh  P3dh  1 4.300000e-01    3.590000e+00
 SP4dh  P2dh  1 4.300000e-01    3.590000e+00
 SP4dh  P1dh  1 4.300000e-01    3.380000e+00
 SP4dh  N6dh  1 4.300000e-01    3.160000e+00
 SP4dh  N5dh  1 4.300000e-01    2.930000e+00
 SP4dh  N4dh  1 4.300000e-01    2.930000e+00
 SP4dh  N3dh  1 4.300000e-01    2.920000e+00
 SP4dh  N2dh  1 4.300000e-01    2.920000e+00
 SP4dh  N1dh  1 4.300000e-01    2.770000e+00
 SP3dh  P2dh  1 4.300000e-01    3.590000e+00
 SP3dh  P1dh  1 4.300000e-01    3.380000e+00
 SP3dh  N6dh  1 4.300000e-01    3.160000e+00
 SP3dh  N5dh  1 4.300000e-01    2.930000e+00
 SP3dh  N4dh  1 4.300000e-01    2.930000e+00
 SP3dh  N3dh  1 4.300000e-01    2.920000e+00
 SP3dh  N2dh  1 4.300000e-01    2.920000e+00
 SP3dh  N1dh  1 4.300000e-01    2.920000e+00
 SP2dh  P1dh  1 4.300000e-01    3.380000e+00
 SP2dh  N6dh  1 4.300000e-01    3.380000e+00
 SP2dh  N5dh  1 4.300000e-01    3.160000e+00
 SP2dh  N4dh  1 4.300000e-01    2.930000e+00
 SP2dh  N3dh  1 4.300000e-01    2.920000e+00
 SP2dh  N2dh  1 4.300000e-01    2.920000e+00
 SP2dh  N1dh  1 4.300000e-01    2.920000e+00
 SP1dh  N6dh  1 4.300000e-01    3.380000e+00
 SP1dh  N5dh  1 4.300000e-01    3.160000e+00
 SP1dh  N4dh  1 4.300000e-01    3.160000e+00
 SP1dh  N3dh  1 4.300000e-01    2.920000e+00
 SP1dh  N2dh  1 4.300000e-01    2.920000e+00
 SP1dh  N1dh  1 4.300000e-01    2.920000e+00
 SN6dh  N5dh  1 4.300000e-01    3.380000e+00
 SN6dh  N4dh  1 4.300000e-01    3.380000e+00
 SN6dh  N3dh  1 4.300000e-01    2.930000e+00
 SN6dh  N2dh  1 4.300000e-01    2.920000e+00
 SN6dh  N1dh  1 4.300000e-01    2.920000e+00
 SN5dh  N4dh  1 4.300000e-01    3.160000e+00
 SN5dh  N3dh  1 4.300000e-01    2.930000e+00
 SN5dh  N2dh  1 4.300000e-01    2.930000e+00
 SN5dh  N1dh  1 4.300000e-01    2.920000e+00
 SN4dh  N3dh  1 4.300000e-01    2.930000e+00
 SN4dh  N2dh  1 4.300000e-01    2.930000e+00
 SN4dh  N1dh  1 4.300000e-01    2.920000e+00
 SN3dh  N2dh  1 4.300000e-01    2.930000e+00
 SN3dh  N1dh  1 4.300000e-01    2.920000e+00
 SN2dh  N1dh  1 4.300000e-01    2.920000e+00
  P6dh SP6dr  1 4.300000e-01    4.170000e+00
  P6dh SP5dr  1 4.300000e-01    3.970000e+00
  P6dh SP4dr  1 4.300000e-01    3.770000e+00
  P6dh SP3dr  1 4.300000e-01    3.590000e+00
  P6dh SP2dr  1 4.300000e-01    3.590000e+00
  P6dh SP1dr  1 4.300000e-01    3.380000e+00
  P6dh SN6dr  1 4.300000e-01    3.160000e+00
  P6dh SN5dr  1 4.300000e-01    2.920000e+00
  P6dh SN4dr  1 4.300000e-01    2.770000e+00
  P6dh SN3dr  1 4.300000e-01    2.770000e+00
  P6dh SN2dr  1 4.300000e-01    2.530000e+00
  P6dh SN1dr  1 4.300000e-01    2.320000e+00
  P5dh SP5dr  1 4.300000e-01    3.770000e+00
  P5dh SP4dr  1 4.300000e-01    3.590000e+00
  P5dh SP3dr  1 4.300000e-01    3.380000e+00
  P5dh SP2dr  1 4.300000e-01    3.380000e+00
  P5dh SP1dr  1 4.300000e-01    3.160000e+00
  P5dh SN6dr  1 4.300000e-01    2.930000e+00
  P5dh SN5dr  1 4.300000e-01    2.920000e+00
  P5dh SN4dr  1 4.300000e-01    2.920000e+00
  P5dh SN3dr  1 4.300000e-01    2.770000e+00
  P5dh SN2dr  1 4.300000e-01    2.530000e+00
  P5dh SN1dr  1 4.300000e-01    2.320000e+00
  P4dh SP4dr  1 4.300000e-01    3.590000e+00
  P4dh SP3dr  1 4.300000e-01    3.380000e+00
  P4dh SP2dr  1 4.300000e-01    3.380000e+00
  P4dh SP1dr  1 4.300000e-01    3.160000e+00
  P4dh SN6dr  1 4.300000e-01    2.930000e+00
  P4dh SN5dr  1 4.300000e-01    2.920000e+00
  P4dh SN4dr  1 4.300000e-01    2.920000e+00
  P4dh SN3dr  1 4.300000e-01    2.770000e+00
  P4dh SN2dr  1 4.300000e-01    2.770000e+00
  P4dh SN1dr  1 4.300000e-01    2.530000e+00
  P3dh SP3dr  1 4.300000e-01    3.380000e+00
  P3dh SP2dr  1 4.300000e-01    3.380000e+00
  P3dh SP1dr  1 4.300000e-01    3.160000e+00
  P3dh SN6dr  1 4.300000e-01    2.930000e+00
  P3dh SN5dr  1 4.300000e-01    2.920000e+00
  P3dh SN4dr  1 4.300000e-01    2.920000e+00
  P3dh SN3dr  1 4.300000e-01    2.770000e+00
  P3dh SN2dr  1 4.300000e-01    2.770000e+00
  P3dh SN1dr  1 4.300000e-01    2.770000e+00
  P2dh SP2dr  1 4.300000e-01    3.380000e+00
  P2dh SP1dr  1 4.300000e-01    3.160000e+00
  P2dh SN6dr  1 4.300000e-01    3.160000e+00
  P2dh SN5dr  1 4.300000e-01    2.930000e+00
  P2dh SN4dr  1 4.300000e-01    2.920000e+00
  P2dh SN3dr  1 4.300000e-01    2.770000e+00
  P2dh SN2dr  1 4.300000e-01    2.770000e+00
  P2dh SN1dr  1 4.300000e-01    2.770000e+00
  P1dh SP1dr  1 4.300000e-01    3.160000e+00
  P1dh SN6dr  1 4.300000e-01    3.160000e+00
  P1dh SN5dr  1 4.300000e-01    2.930000e+00
  P1dh SN4dr  1 4.300000e-01    2.930000e+00
  P1dh SN3dr  1 4.300000e-01    2.770000e+00
  P1dh SN2dr  1 4.300000e-01    2.770000e+00
  P1dh SN1dr  1 4.300000e-01    2.770000e+00
  N6dh SN6dr  1 4.300000e-01    3.160000e+00
  N6dh SN5dr  1 4.300000e-01    3.160000e+00
  N6dh SN4dr  1 4.300000e-01    3.160000e+00
  N6dh SN3dr  1 4.300000e-01    2.920000e+00
  N6dh SN2dr  1 4.300000e-01    2.770000e+00
  N6dh SN1dr  1 4.300000e-01    2.770000e+00
  N5dh SN5dr  1 4.300000e-01    2.930000e+00
  N5dh SN4dr  1 4.300000e-01    2.930000e+00
  N5dh SN3dr  1 4.300000e-01    2.920000e+00
  N5dh SN2dr  1 4.300000e-01    2.920000e+00
  N5dh SN1dr  1 4.300000e-01    2.770000e+00
  N4dh SN4dr  1 4.300000e-01    2.930000e+00
  N4dh SN3dr  1 4.300000e-01    2.920000e+00
  N4dh SN2dr  1 4.300000e-01    2.920000e+00
  N4dh SN1dr  1 4.300000e-01    2.770000e+00
  N3dh SN3dr  1 4.300000e-01    2.920000e+00
  N3dh SN2dr  1 4.300000e-01    2.920000e+00
  N3dh SN1dr  1 4.300000e-01    2.770000e+00
  N2dh SN2dr  1 4.300000e-01    2.920000e+00
  N2dh SN1dr  1 4.300000e-01    2.770000e+00
  N1dh SN1dr  1 4.300000e-01    2.920000e+00
 SP6dh  P6dr  1 4.300000e-01    4.170000e+00
 SP6dh  P5dr  1 4.300000e-01    3.970000e+00
 SP6dh  P4dr  1 4.300000e-01    3.770000e+00
 SP6dh  P3dr  1 4.300000e-01    3.590000e+00
 SP6dh  P2dr  1 4.300000e-01    3.590000e+00
 SP6dh  P1dr  1 4.300000e-01    3.380000e+00
 SP6dh  N6dr  1 4.300000e-01    3.160000e+00
 SP6dh  N5dr  1 4.300000e-01    2.920000e+00
 SP6dh  N4dr  1 4.300000e-01    2.770000e+00
 SP6dh  N3dr  1 4.300000e-01    2.770000e+00
 SP6dh  N2dr  1 4.300000e-01    2.530000e+00
 SP6dh  N1dr  1 4.300000e-01    2.320000e+00
 SP5dh  P5dr  1 4.300000e-01    3.770000e+00
 SP5dh  P4dr  1 4.300000e-01    3.590000e+00
 SP5dh  P3dr  1 4.300000e-01    3.380000e+00
 SP5dh  P2dr  1 4.300000e-01    3.380000e+00
 SP5dh  P1dr  1 4.300000e-01    3.160000e+00
 SP5dh  N6dr  1 4.300000e-01    2.930000e+00
 SP5dh  N5dr  1 4.300000e-01    2.920000e+00
 SP5dh  N4dr  1 4.300000e-01    2.920000e+00
 SP5dh  N3dr  1 4.300000e-01    2.770000e+00
 SP5dh  N2dr  1 4.300000e-01    2.530000e+00
 SP5dh  N1dr  1 4.300000e-01    2.320000e+00
 SP4dh  P4dr  1 4.300000e-01    3.590000e+00
 SP4dh  P3dr  1 4.300000e-01    3.380000e+00
 SP4dh  P2dr  1 4.300000e-01    3.380000e+00
 SP4dh  P1dr  1 4.300000e-01    3.160000e+00
 SP4dh  N6dr  1 4.300000e-01    2.930000e+00
 SP4dh  N5dr  1 4.300000e-01    2.920000e+00
 SP4dh  N4dr  1 4.300000e-01    2.920000e+00
 SP4dh  N3dr  1 4.300000e-01    2.770000e+00
 SP4dh  N2dr  1 4.300000e-01    2.770000e+00
 SP4dh  N1dr  1 4.300000e-01    2.530000e+00
 SP3dh  P3dr  1 4.300000e-01    3.380000e+00
 SP3dh  P2dr  1 4.300000e-01    3.380000e+00
 SP3dh  P1dr  1 4.300000e-01    3.160000e+00
 SP3dh  N6dr  1 4.300000e-01    2.930000e+00
 SP3dh  N5dr  1 4.300000e-01    2.920000e+00
 SP3dh  N4dr  1 4.300000e-01    2.920000e+00
 SP3dh  N3dr  1 4.300000e-01    2.770000e+00
 SP3dh  N2dr  1 4.300000e-01    2.770000e+00
 SP3dh  N1dr  1 4.300000e-01    2.770000e+00
 SP2dh  P2dr  1 4.300000e-01    3.380000e+00
 SP2dh  P1dr  1 4.300000e-01    3.160000e+00
 SP2dh  N6dr  1 4.300000e-01    3.160000e+00
 SP2dh  N5dr  1 4.300000e-01    2.930000e+00
 SP2dh  N4dr  1 4.300000e-01    2.920000e+00
 SP2dh  N3dr  1 4.300000e-01    2.770000e+00
 SP2dh  N2dr  1 4.300000e-01    2.770000e+00
 SP2dh  N1dr  1 4.300000e-01    2.770000e+00
 SP1dh  P1dr  1 4.300000e-01    3.160000e+00
 SP1dh  N6dr  1 4.300000e-01    3.160000e+00
 SP1dh  N5dr  1 4.300000e-01    2.930000e+00
 SP1dh  N4dr  1 4.300000e-01    2.930000e+00
 SP1dh  N3dr  1 4.300000e-01    2.770000e+00
 SP1dh  N2dr  1 4.300000e-01    2.770000e+00
 SP1dh  N1dr  1 4.300000e-01    2.770000e+00
 SN6dh  N6dr  1 4.300000e-01    3.160000e+00
 SN6dh  N5dr  1 4.300000e-01    3.160000e+00
 SN6dh  N4dr  1 4.300000e-01    3.160000e+00
 SN6dh  N3dr  1 4.300000e-01    2.920000e+00
 SN6dh  N2dr  1 4.300000e-01    2.770000e+00
 SN6dh  N1dr  1 4.300000e-01    2.770000e+00
 SN5dh  N5dr  1 4.300000e-01    2.930000e+00
 SN5dh  N4dr  1 4.300000e-01    2.930000e+00
 SN5dh  N3dr  1 4.300000e-01    2.920000e+00
 SN5dh  N2dr  1 4.300000e-01    2.920000e+00
 SN5dh  N1dr  1 4.300000e-01    2.770000e+00
 SN4dh  N4dr  1 4.300000e-01    2.930000e+00
 SN4dh  N3dr  1 4.300000e-01    2.920000e+00
 SN4dh  N2dr  1 4.300000e-01    2.920000e+00
 SN4dh  N1dr  1 4.300000e-01    2.770000e+00
 SN3dh  N3dr  1 4.300000e-01    2.920000e+00
 SN3dh  N2dr  1 4.300000e-01    2.920000e+00
 SN3dh  N1dr  1 4.300000e-01    2.770000e+00
 SN2dh  N2dr  1 4.300000e-01    2.920000e+00
 SN2dh  N1dr  1 4.300000e-01    2.770000e+00
 SN1dh  N1dr  1 4.300000e-01    2.920000e+00
  P6dr  SP5d  1 4.300000e-01    3.970000e+00
  P6dr  SP4d  1 4.300000e-01    3.770000e+00
  P6dr  SP3d  1 4.300000e-01    3.590000e+00
  P6dr  SP2d  1 4.300000e-01    3.590000e+00
  P6dr  SP1d  1 4.300000e-01    3.380000e+00
  P6dr  SN6d  1 4.300000e-01    3.160000e+00
  P6dr  SN5d  1 4.300000e-01    2.920000e+00
  P6dr  SN4d  1 4.300000e-01    2.770000e+00
  P6dr  SN3d  1 4.300000e-01    2.770000e+00
  P6dr  SN2d  1 4.300000e-01    2.530000e+00
  P6dr  SN1d  1 4.300000e-01    2.320000e+00
  P5dr  SP4d  1 4.300000e-01    3.590000e+00
  P5dr  SP3d  1 4.300000e-01    3.380000e+00
  P5dr  SP2d  1 4.300000e-01    3.380000e+00
  P5dr  SP1d  1 4.300000e-01    3.160000e+00
  P5dr  SN6d  1 4.300000e-01    2.930000e+00
  P5dr  SN5d  1 4.300000e-01    2.920000e+00
  P5dr  SN4d  1 4.300000e-01    2.920000e+00
  P5dr  SN3d  1 4.300000e-01    2.770000e+00
  P5dr  SN2d  1 4.300000e-01    2.530000e+00
  P5dr  SN1d  1 4.300000e-01    2.320000e+00
  P4dr  SP3d  1 4.300000e-01    3.380000e+00
  P4dr  SP2d  1 4.300000e-01    3.380000e+00
  P4dr  SP1d  1 4.300000e-01    3.160000e+00
  P4dr  SN6d  1 4.300000e-01    2.930000e+00
  P4dr  SN5d  1 4.300000e-01    2.920000e+00
  P4dr  SN4d  1 4.300000e-01    2.920000e+00
  P4dr  SN3d  1 4.300000e-01    2.770000e+00
  P4dr  SN2d  1 4.300000e-01    2.770000e+00
  P4dr  SN1d  1 4.300000e-01    2.530000e+00
  P3dr  SP2d  1 4.300000e-01    3.380000e+00
  P3dr  SP1d  1 4.300000e-01    3.160000e+00
  P3dr  SN6d  1 4.300000e-01    2.930000e+00
  P3dr  SN5d  1 4.300000e-01    2.920000e+00
  P3dr  SN4d  1 4.300000e-01    2.920000e+00
  P3dr  SN3d  1 4.300000e-01    2.770000e+00
  P3dr  SN2d  1 4.300000e-01    2.770000e+00
  P3dr  SN1d  1 4.300000e-01    2.770000e+00
  P2dr  SP1d  1 4.300000e-01    3.160000e+00
  P2dr  SN6d  1 4.300000e-01    3.160000e+00
  P2dr  SN5d  1 4.300000e-01    2.930000e+00
  P2dr  SN4d  1 4.300000e-01    2.920000e+00
  P2dr  SN3d  1 4.300000e-01    2.770000e+00
  P2dr  SN2d  1 4.300000e-01    2.770000e+00
  P2dr  SN1d  1 4.300000e-01    2.770000e+00
  P1dr  SN6d  1 4.300000e-01    3.160000e+00
  P1dr  SN5d  1 4.300000e-01    2.930000e+00
  P1dr  SN4d  1 4.300000e-01    2.930000e+00
  P1dr  SN3d  1 4.300000e-01    2.770000e+00
  P1dr  SN2d  1 4.300000e-01    2.770000e+00
  P1dr  SN1d  1 4.300000e-01    2.770000e+00
  N6dr  SN5d  1 4.300000e-01    3.160000e+00
  N6dr  SN4d  1 4.300000e-01    3.160000e+00
  N6dr  SN3d  1 4.300000e-01    2.920000e+00
  N6dr  SN2d  1 4.300000e-01    2.770000e+00
  N6dr  SN1d  1 4.300000e-01    2.770000e+00
  N5dr  SN4d  1 4.300000e-01    2.930000e+00
  N5dr  SN3d  1 4.300000e-01    2.920000e+00
  N5dr  SN2d  1 4.300000e-01    2.920000e+00
  N5dr  SN1d  1 4.300000e-01    2.770000e+00
  N4dr  SN3d  1 4.300000e-01    2.920000e+00
  N4dr  SN2d  1 4.300000e-01    2.920000e+00
  N4dr  SN1d  1 4.300000e-01    2.770000e+00
  N3dr  SN2d  1 4.300000e-01    2.920000e+00
  N3dr  SN1d  1 4.300000e-01    2.770000e+00
  N2dr  SN1d  1 4.300000e-01    2.770000e+00
 SP6dr   P5d  1 4.300000e-01    3.970000e+00
 SP6dr   P4d  1 4.300000e-01    3.770000e+00
 SP6dr   P3d  1 4.300000e-01    3.590000e+00
 SP6dr   P2d  1 4.300000e-01    3.590000e+00
 SP6dr   P1d  1 4.300000e-01    3.380000e+00
 SP6dr   N6d  1 4.300000e-01    3.160000e+00
 SP6dr   N5d  1 4.300000e-01    2.920000e+00
 SP6dr   N4d  1 4.300000e-01    2.770000e+00
 SP6dr   N3d  1 4.300000e-01    2.770000e+00
 SP6dr   N2d  1 4.300000e-01    2.530000e+00
 SP6dr   N1d  1 4.300000e-01    2.320000e+00
 SP5dr   P4d  1 4.300000e-01    3.590000e+00
 SP5dr   P3d  1 4.300000e-01    3.380000e+00
 SP5dr   P2d  1 4.300000e-01    3.380000e+00
 SP5dr   P1d  1 4.300000e-01    3.160000e+00
 SP5dr   N6d  1 4.300000e-01    2.930000e+00
 SP5dr   N5d  1 4.300000e-01    2.920000e+00
 SP5dr   N4d  1 4.300000e-01    2.920000e+00
 SP5dr   N3d  1 4.300000e-01    2.770000e+00
 SP5dr   N2d  1 4.300000e-01    2.530000e+00
 SP5dr   N1d  1 4.300000e-01    2.320000e+00
 SP4dr   P3d  1 4.300000e-01    3.380000e+00
 SP4dr   P2d  1 4.300000e-01    3.380000e+00
 SP4dr   P1d  1 4.300000e-01    3.160000e+00
 SP4dr   N6d  1 4.300000e-01    2.930000e+00
 SP4dr   N5d  1 4.300000e-01    2.920000e+00
 SP4dr   N4d  1 4.300000e-01    2.920000e+00
 SP4dr   N3d  1 4.300000e-01    2.770000e+00
 SP4dr   N2d  1 4.300000e-01    2.770000e+00
 SP4dr   N1d  1 4.300000e-01    2.530000e+00
 SP3dr   P2d  1 4.300000e-01    3.380000e+00
 SP3dr   P1d  1 4.300000e-01    3.160000e+00
 SP3dr   N6d  1 4.300000e-01    2.930000e+00
 SP3dr   N5d  1 4.300000e-01    2.920000e+00
 SP3dr   N4d  1 4.300000e-01    2.920000e+00
 SP3dr   N3d  1 4.300000e-01    2.770000e+00
 SP3dr   N2d  1 4.300000e-01    2.770000e+00
 SP3dr   N1d  1 4.300000e-01    2.770000e+00
 SP2dr   P1d  1 4.300000e-01    3.160000e+00
 SP2dr   N6d  1 4.300000e-01    3.160000e+00
 SP2dr   N5d  1 4.300000e-01    2.930000e+00
 SP2dr   N4d  1 4.300000e-01    2.920000e+00
 SP2dr   N3d  1 4.300000e-01    2.770000e+00
 SP2dr   N2d  1 4.300000e-01    2.770000e+00
 SP2dr   N1d  1 4.300000e-01    2.770000e+00
 SP1dr   N6d  1 4.300000e-01    3.160000e+00
 SP1dr   N5d  1 4.300000e-01    2.930000e+00
 SP1dr   N4d  1 4.300000e-01    2.930000e+00
 SP1dr   N3d  1 4.300000e-01    2.770000e+00
 SP1dr   N2d  1 4.300000e-01    2.770000e+00
 SP1dr   N1d  1 4.300000e-01    2.770000e+00
 SN6dr   N5d  1 4.300000e-01    3.160000e+00
 SN6dr   N4d  1 4.300000e-01    3.160000e+00
 SN6dr   N3d  1 4.300000e-01    2.920000e+00
 SN6dr   N2d  1 4.300000e-01    2.770000e+00
 SN6dr   N1d  1 4.300000e-01    2.770000e+00
 SN5dr   N4d  1 4.300000e-01    2.930000e+00
 SN5dr   N3d  1 4.300000e-01    2.920000e+00
 SN5dr   N2d  1 4.300000e-01    2.920000e+00
 SN5dr   N1d  1 4.300000e-01    2.770000e+00
 SN4dr   N3d  1 4.300000e-01    2.920000e+00
 SN4dr   N2d  1 4.300000e-01    2.920000e+00
 SN4dr   N1d  1 4.300000e-01    2.770000e+00
 SN3dr   N2d  1 4.300000e-01    2.920000e+00
 SN3dr   N1d  1 4.300000e-01    2.770000e+00
 SN2dr   N1d  1 4.300000e-01    2.770000e+00
  P6dr SP6dq  1 4.300000e-01    4.680000e+00
  P6dr SN1dq  1 4.300000e-01    2.770000e+00
  P6dr SN2dq  1 4.300000e-01    2.920000e+00
  P6dr SN3dq  1 4.300000e-01    2.930000e+00
  P6dr SN4dq  1 4.300000e-01    2.930000e+00
  P6dr SN5dq  1 4.300000e-01    3.160000e+00
  P6dr SN6dq  1 4.300000e-01    3.590000e+00
  P6dr SP1dq  1 4.300000e-01    3.770000e+00
  P6dr SP2dq  1 4.300000e-01    3.970000e+00
  P6dr SP3dq  1 4.300000e-01    3.970000e+00
  P6dr SP4dq  1 4.300000e-01    4.170000e+00
  P6dr SP5dq  1 4.300000e-01    4.400000e+00
  P5dr SP5dq  1 4.300000e-01    4.170000e+00
  P5dr SN1dq  1 4.300000e-01    2.770000e+00
  P5dr SN2dq  1 4.300000e-01    2.920000e+00
  P5dr SN3dq  1 4.300000e-01    2.930000e+00
  P5dr SN4dq  1 4.300000e-01    3.160000e+00
  P5dr SN5dq  1 4.300000e-01    3.160000e+00
  P5dr SN6dq  1 4.300000e-01    3.380000e+00
  P5dr SP1dq  1 4.300000e-01    3.590000e+00
  P5dr SP2dq  1 4.300000e-01    3.770000e+00
  P5dr SP3dq  1 4.300000e-01    3.770000e+00
  P5dr SP4dq  1 4.300000e-01    3.970000e+00
  P4dr SP4dq  1 4.300000e-01    3.970000e+00
  P4dr SN1dq  1 4.300000e-01    2.920000e+00
  P4dr SN2dq  1 4.300000e-01    2.930000e+00
  P4dr SN3dq  1 4.300000e-01    2.930000e+00
  P4dr SN4dq  1 4.300000e-01    3.160000e+00
  P4dr SN5dq  1 4.300000e-01    3.160000e+00
  P4dr SN6dq  1 4.300000e-01    3.380000e+00
  P4dr SP1dq  1 4.300000e-01    3.590000e+00
  P4dr SP2dq  1 4.300000e-01    3.770000e+00
  P4dr SP3dq  1 4.300000e-01    3.770000e+00
  P3dr SP3dq  1 4.300000e-01    3.770000e+00
  P3dr SN1dq  1 4.300000e-01    2.930000e+00
  P3dr SN2dq  1 4.300000e-01    2.930000e+00
  P3dr SN3dq  1 4.300000e-01    2.930000e+00
  P3dr SN4dq  1 4.300000e-01    3.160000e+00
  P3dr SN5dq  1 4.300000e-01    3.160000e+00
  P3dr SN6dq  1 4.300000e-01    3.380000e+00
  P3dr SP1dq  1 4.300000e-01    3.590000e+00
  P3dr SP2dq  1 4.300000e-01    3.770000e+00
  P2dr SP2dq  1 4.300000e-01    3.770000e+00
  P2dr SN1dq  1 4.300000e-01    2.930000e+00
  P2dr SN2dq  1 4.300000e-01    2.930000e+00
  P2dr SN3dq  1 4.300000e-01    2.930000e+00
  P2dr SN4dq  1 4.300000e-01    3.160000e+00
  P2dr SN5dq  1 4.300000e-01    3.380000e+00
  P2dr SN6dq  1 4.300000e-01    3.590000e+00
  P2dr SP1dq  1 4.300000e-01    3.590000e+00
  P1dr SP1dq  1 4.300000e-01    3.590000e+00
  P1dr SN1dq  1 4.300000e-01    2.930000e+00
  P1dr SN2dq  1 4.300000e-01    2.930000e+00
  P1dr SN3dq  1 4.300000e-01    2.930000e+00
  P1dr SN4dq  1 4.300000e-01    3.380000e+00
  P1dr SN5dq  1 4.300000e-01    3.380000e+00
  P1dr SN6dq  1 4.300000e-01    3.590000e+00
  N6dr SN6dq  1 4.300000e-01    3.590000e+00
  N6dr SN1dq  1 4.300000e-01    2.930000e+00
  N6dr SN2dq  1 4.300000e-01    2.930000e+00
  N6dr SN3dq  1 4.300000e-01    3.160000e+00
  N6dr SN4dq  1 4.300000e-01    3.590000e+00
  N6dr SN5dq  1 4.300000e-01    3.590000e+00
  N5dr SN5dq  1 4.300000e-01    3.380000e+00
  N5dr SN1dq  1 4.300000e-01    2.930000e+00
  N5dr SN2dq  1 4.300000e-01    3.160000e+00
  N5dr SN3dq  1 4.300000e-01    3.160000e+00
  N5dr SN4dq  1 4.300000e-01    3.380000e+00
  N4dr SN4dq  1 4.300000e-01    3.380000e+00
  N4dr SN1dq  1 4.300000e-01    2.930000e+00
  N4dr SN2dq  1 4.300000e-01    3.160000e+00
  N4dr SN3dq  1 4.300000e-01    3.160000e+00
  N3dr SN3dq  1 4.300000e-01    3.160000e+00
  N3dr SN1dq  1 4.300000e-01    2.930000e+00
  N3dr SN2dq  1 4.300000e-01    3.160000e+00
  N2dr SN2dq  1 4.300000e-01    3.160000e+00
  N2dr SN1dq  1 4.300000e-01    2.930000e+00
  N1dr SN1dq  1 4.300000e-01    3.160000e+00
 SP6dr  P6dq  1 4.300000e-01    4.680000e+00
 SP6dr  N1dq  1 4.300000e-01    2.770000e+00
 SP6dr  N2dq  1 4.300000e-01    2.920000e+00
 SP6dr  N3dq  1 4.300000e-01    2.930000e+00
 SP6dr  N4dq  1 4.300000e-01    2.930000e+00
 SP6dr  N5dq  1 4.300000e-01    3.160000e+00
 SP6dr  N6dq  1 4.300000e-01    3.590000e+00
 SP6dr  P1dq  1 4.300000e-01    3.770000e+00
 SP6dr  P2dq  1 4.300000e-01    3.970000e+00
 SP6dr  P3dq  1 4.300000e-01    3.970000e+00
 SP6dr  P4dq  1 4.300000e-01    4.170000e+00
 SP6dr  P5dq  1 4.300000e-01    4.400000e+00
 SP5dr  P5dq  1 4.300000e-01    4.170000e+00
 SP5dr  N1dq  1 4.300000e-01    2.770000e+00
 SP5dr  N2dq  1 4.300000e-01    2.920000e+00
 SP5dr  N3dq  1 4.300000e-01    2.930000e+00
 SP5dr  N4dq  1 4.300000e-01    3.160000e+00
 SP5dr  N5dq  1 4.300000e-01    3.160000e+00
 SP5dr  N6dq  1 4.300000e-01    3.380000e+00
 SP5dr  P1dq  1 4.300000e-01    3.590000e+00
 SP5dr  P2dq  1 4.300000e-01    3.770000e+00
 SP5dr  P3dq  1 4.300000e-01    3.770000e+00
 SP5dr  P4dq  1 4.300000e-01    3.970000e+00
 SP4dr  P4dq  1 4.300000e-01    3.970000e+00
 SP4dr  N1dq  1 4.300000e-01    2.920000e+00
 SP4dr  N2dq  1 4.300000e-01    2.930000e+00
 SP4dr  N3dq  1 4.300000e-01    2.930000e+00
 SP4dr  N4dq  1 4.300000e-01    3.160000e+00
 SP4dr  N5dq  1 4.300000e-01    3.160000e+00
 SP4dr  N6dq  1 4.300000e-01    3.380000e+00
 SP4dr  P1dq  1 4.300000e-01    3.590000e+00
 SP4dr  P2dq  1 4.300000e-01    3.770000e+00
 SP4dr  P3dq  1 4.300000e-01    3.770000e+00
 SP3dr  P3dq  1 4.300000e-01    3.770000e+00
 SP3dr  N1dq  1 4.300000e-01    2.930000e+00
 SP3dr  N2dq  1 4.300000e-01    2.930000e+00
 SP3dr  N3dq  1 4.300000e-01    2.930000e+00
 SP3dr  N4dq  1 4.300000e-01    3.160000e+00
 SP3dr  N5dq  1 4.300000e-01    3.160000e+00
 SP3dr  N6dq  1 4.300000e-01    3.380000e+00
 SP3dr  P1dq  1 4.300000e-01    3.590000e+00
 SP3dr  P2dq  1 4.300000e-01    3.770000e+00
 SP2dr  P2dq  1 4.300000e-01    3.770000e+00
 SP2dr  N1dq  1 4.300000e-01    2.930000e+00
 SP2dr  N2dq  1 4.300000e-01    2.930000e+00
 SP2dr  N3dq  1 4.300000e-01    2.930000e+00
 SP2dr  N4dq  1 4.300000e-01    3.160000e+00
 SP2dr  N5dq  1 4.300000e-01    3.380000e+00
 SP2dr  N6dq  1 4.300000e-01    3.590000e+00
 SP2dr  P1dq  1 4.300000e-01    3.590000e+00
 SP1dr  P1dq  1 4.300000e-01    3.590000e+00
 SP1dr  N1dq  1 4.300000e-01    2.930000e+00
 SP1dr  N2dq  1 4.300000e-01    2.930000e+00
 SP1dr  N3dq  1 4.300000e-01    2.930000e+00
 SP1dr  N4dq  1 4.300000e-01    3.380000e+00
 SP1dr  N5dq  1 4.300000e-01    3.380000e+00
 SP1dr  N6dq  1 4.300000e-01    3.590000e+00
 SN6dr  N6dq  1 4.300000e-01    3.590000e+00
 SN6dr  N1dq  1 4.300000e-01    2.930000e+00
 SN6dr  N2dq  1 4.300000e-01    2.930000e+00
 SN6dr  N3dq  1 4.300000e-01    3.160000e+00
 SN6dr  N4dq  1 4.300000e-01    3.590000e+00
 SN6dr  N5dq  1 4.300000e-01    3.590000e+00
 SN5dr  N5dq  1 4.300000e-01    3.380000e+00
 SN5dr  N1dq  1 4.300000e-01    2.930000e+00
 SN5dr  N2dq  1 4.300000e-01    3.160000e+00
 SN5dr  N3dq  1 4.300000e-01    3.160000e+00
 SN5dr  N4dq  1 4.300000e-01    3.380000e+00
 SN4dr  N4dq  1 4.300000e-01    3.380000e+00
 SN4dr  N1dq  1 4.300000e-01    2.930000e+00
 SN4dr  N2dq  1 4.300000e-01    3.160000e+00
 SN4dr  N3dq  1 4.300000e-01    3.160000e+00
 SN3dr  N3dq  1 4.300000e-01    3.160000e+00
 SN3dr  N1dq  1 4.300000e-01    2.930000e+00
 SN3dr  N2dq  1 4.300000e-01    3.160000e+00
 SN2dr  N2dq  1 4.300000e-01    3.160000e+00
 SN2dr  N1dq  1 4.300000e-01    2.930000e+00
 SN1dr  N1dq  1 4.300000e-01    3.160000e+00
  P6dr SP5dh  1 4.300000e-01    3.970000e+00
  P6dr SP4dh  1 4.300000e-01    3.770000e+00
  P6dr SP3dh  1 4.300000e-01    3.590000e+00
  P6dr SP2dh  1 4.300000e-01    3.590000e+00
  P6dr SP1dh  1 4.300000e-01    3.380000e+00
  P6dr SN6dh  1 4.300000e-01    3.160000e+00
  P6dr SN5dh  1 4.300000e-01    2.920000e+00
  P6dr SN4dh  1 4.300000e-01    2.770000e+00
  P6dr SN3dh  1 4.300000e-01    2.770000e+00
  P6dr SN2dh  1 4.300000e-01    2.530000e+00
  P6dr SN1dh  1 4.300000e-01    2.320000e+00
  P5dr SP4dh  1 4.300000e-01    3.590000e+00
  P5dr SP3dh  1 4.300000e-01    3.380000e+00
  P5dr SP2dh  1 4.300000e-01    3.380000e+00
  P5dr SP1dh  1 4.300000e-01    3.160000e+00
  P5dr SN6dh  1 4.300000e-01    2.930000e+00
  P5dr SN5dh  1 4.300000e-01    2.920000e+00
  P5dr SN4dh  1 4.300000e-01    2.920000e+00
  P5dr SN3dh  1 4.300000e-01    2.770000e+00
  P5dr SN2dh  1 4.300000e-01    2.530000e+00
  P5dr SN1dh  1 4.300000e-01    2.320000e+00
  P4dr SP3dh  1 4.300000e-01    3.380000e+00
  P4dr SP2dh  1 4.300000e-01    3.380000e+00
  P4dr SP1dh  1 4.300000e-01    3.160000e+00
  P4dr SN6dh  1 4.300000e-01    2.930000e+00
  P4dr SN5dh  1 4.300000e-01    2.920000e+00
  P4dr SN4dh  1 4.300000e-01    2.920000e+00
  P4dr SN3dh  1 4.300000e-01    2.770000e+00
  P4dr SN2dh  1 4.300000e-01    2.770000e+00
  P4dr SN1dh  1 4.300000e-01    2.530000e+00
  P3dr SP2dh  1 4.300000e-01    3.380000e+00
  P3dr SP1dh  1 4.300000e-01    3.160000e+00
  P3dr SN6dh  1 4.300000e-01    2.930000e+00
  P3dr SN5dh  1 4.300000e-01    2.920000e+00
  P3dr SN4dh  1 4.300000e-01    2.920000e+00
  P3dr SN3dh  1 4.300000e-01    2.770000e+00
  P3dr SN2dh  1 4.300000e-01    2.770000e+00
  P3dr SN1dh  1 4.300000e-01    2.770000e+00
  P2dr SP1dh  1 4.300000e-01    3.160000e+00
  P2dr SN6dh  1 4.300000e-01    3.160000e+00
  P2dr SN5dh  1 4.300000e-01    2.930000e+00
  P2dr SN4dh  1 4.300000e-01    2.920000e+00
  P2dr SN3dh  1 4.300000e-01    2.770000e+00
  P2dr SN2dh  1 4.300000e-01    2.770000e+00
  P2dr SN1dh  1 4.300000e-01    2.770000e+00
  P1dr SN6dh  1 4.300000e-01    3.160000e+00
  P1dr SN5dh  1 4.300000e-01    2.930000e+00
  P1dr SN4dh  1 4.300000e-01    2.930000e+00
  P1dr SN3dh  1 4.300000e-01    2.770000e+00
  P1dr SN2dh  1 4.300000e-01    2.770000e+00
  P1dr SN1dh  1 4.300000e-01    2.770000e+00
  N6dr SN5dh  1 4.300000e-01    3.160000e+00
  N6dr SN4dh  1 4.300000e-01    3.160000e+00
  N6dr SN3dh  1 4.300000e-01    2.920000e+00
  N6dr SN2dh  1 4.300000e-01    2.770000e+00
  N6dr SN1dh  1 4.300000e-01    2.770000e+00
  N5dr SN4dh  1 4.300000e-01    2.930000e+00
  N5dr SN3dh  1 4.300000e-01    2.920000e+00
  N5dr SN2dh  1 4.300000e-01    2.920000e+00
  N5dr SN1dh  1 4.300000e-01    2.770000e+00
  N4dr SN3dh  1 4.300000e-01    2.920000e+00
  N4dr SN2dh  1 4.300000e-01    2.920000e+00
  N4dr SN1dh  1 4.300000e-01    2.770000e+00
  N3dr SN2dh  1 4.300000e-01    2.920000e+00
  N3dr SN1dh  1 4.300000e-01    2.770000e+00
  N2dr SN1dh  1 4.300000e-01    2.770000e+00
 SP6dr  P5dh  1 4.300000e-01    3.970000e+00
 SP6dr  P4dh  1 4.300000e-01    3.770000e+00
 SP6dr  P3dh  1 4.300000e-01    3.590000e+00
 SP6dr  P2dh  1 4.300000e-01    3.590000e+00
 SP6dr  P1dh  1 4.300000e-01    3.380000e+00
 SP6dr  N6dh  1 4.300000e-01    3.160000e+00
 SP6dr  N5dh  1 4.300000e-01    2.920000e+00
 SP6dr  N4dh  1 4.300000e-01    2.770000e+00
 SP6dr  N3dh  1 4.300000e-01    2.770000e+00
 SP6dr  N2dh  1 4.300000e-01    2.530000e+00
 SP6dr  N1dh  1 4.300000e-01    2.320000e+00
 SP5dr  P4dh  1 4.300000e-01    3.590000e+00
 SP5dr  P3dh  1 4.300000e-01    3.380000e+00
 SP5dr  P2dh  1 4.300000e-01    3.380000e+00
 SP5dr  P1dh  1 4.300000e-01    3.160000e+00
 SP5dr  N6dh  1 4.300000e-01    2.930000e+00
 SP5dr  N5dh  1 4.300000e-01    2.920000e+00
 SP5dr  N4dh  1 4.300000e-01    2.920000e+00
 SP5dr  N3dh  1 4.300000e-01    2.770000e+00
 SP5dr  N2dh  1 4.300000e-01    2.530000e+00
 SP5dr  N1dh  1 4.300000e-01    2.320000e+00
 SP4dr  P3dh  1 4.300000e-01    3.380000e+00
 SP4dr  P2dh  1 4.300000e-01    3.380000e+00
 SP4dr  P1dh  1 4.300000e-01    3.160000e+00
 SP4dr  N6dh  1 4.300000e-01    2.930000e+00
 SP4dr  N5dh  1 4.300000e-01    2.920000e+00
 SP4dr  N4dh  1 4.300000e-01    2.920000e+00
 SP4dr  N3dh  1 4.300000e-01    2.770000e+00
 SP4dr  N2dh  1 4.300000e-01    2.770000e+00
 SP4dr  N1dh  1 4.300000e-01    2.530000e+00
 SP3dr  P2dh  1 4.300000e-01    3.380000e+00
 SP3dr  P1dh  1 4.300000e-01    3.160000e+00
 SP3dr  N6dh  1 4.300000e-01    2.930000e+00
 SP3dr  N5dh  1 4.300000e-01    2.920000e+00
 SP3dr  N4dh  1 4.300000e-01    2.920000e+00
 SP3dr  N3dh  1 4.300000e-01    2.770000e+00
 SP3dr  N2dh  1 4.300000e-01    2.770000e+00
 SP3dr  N1dh  1 4.300000e-01    2.770000e+00
 SP2dr  P1dh  1 4.300000e-01    3.160000e+00
 SP2dr  N6dh  1 4.300000e-01    3.160000e+00
 SP2dr  N5dh  1 4.300000e-01    2.930000e+00
 SP2dr  N4dh  1 4.300000e-01    2.920000e+00
 SP2dr  N3dh  1 4.300000e-01    2.770000e+00
 SP2dr  N2dh  1 4.300000e-01    2.770000e+00
 SP2dr  N1dh  1 4.300000e-01    2.770000e+00
 SP1dr  N6dh  1 4.300000e-01    3.160000e+00
 SP1dr  N5dh  1 4.300000e-01    2.930000e+00
 SP1dr  N4dh  1 4.300000e-01    2.930000e+00
 SP1dr  N3dh  1 4.300000e-01    2.770000e+00
 SP1dr  N2dh  1 4.300000e-01    2.770000e+00
 SP1dr  N1dh  1 4.300000e-01    2.770000e+00
 SN6dr  N5dh  1 4.300000e-01    3.160000e+00
 SN6dr  N4dh  1 4.300000e-01    3.160000e+00
 SN6dr  N3dh  1 4.300000e-01    2.920000e+00
 SN6dr  N2dh  1 4.300000e-01    2.770000e+00
 SN6dr  N1dh  1 4.300000e-01    2.770000e+00
 SN5dr  N4dh  1 4.300000e-01    2.930000e+00
 SN5dr  N3dh  1 4.300000e-01    2.920000e+00
 SN5dr  N2dh  1 4.300000e-01    2.920000e+00
 SN5dr  N1dh  1 4.300000e-01    2.770000e+00
 SN4dr  N3dh  1 4.300000e-01    2.920000e+00
 SN4dr  N2dh  1 4.300000e-01    2.920000e+00
 SN4dr  N1dh  1 4.300000e-01    2.770000e+00
 SN3dr  N2dh  1 4.300000e-01    2.920000e+00
 SN3dr  N1dh  1 4.300000e-01    2.770000e+00
 SN2dr  N1dh  1 4.300000e-01    2.770000e+00
  P6dr SP6dr  1 4.300000e-01    3.970000e+00
  P5dr SP5dr  1 4.300000e-01    3.590000e+00
  P4dr SP4dr  1 4.300000e-01    3.380000e+00
  P3dr SP3dr  1 4.300000e-01    3.160000e+00
  P2dr SP2dr  1 4.300000e-01    3.160000e+00
  P1dr SP1dr  1 4.300000e-01    2.930000e+00
  N6dr SN6dr  1 4.300000e-01    2.930000e+00
  N5dr SN5dr  1 4.300000e-01    2.920000e+00
  N4dr SN4dr  1 4.300000e-01    2.920000e+00
  N3dr SN3dr  1 4.300000e-01    2.770000e+00
  N2dr SN2dr  1 4.300000e-01    2.770000e+00
  N1dr SN1dr  1 4.300000e-01    2.770000e+00
  P6dr SP5dr  1 4.300000e-01    3.770000e+00
  P6dr SP4dr  1 4.300000e-01    3.590000e+00
  P6dr SP3dr  1 4.300000e-01    3.380000e+00
  P6dr SP2dr  1 4.300000e-01    3.380000e+00
  P6dr SP1dr  1 4.300000e-01    3.160000e+00
  P6dr SN6dr  1 4.300000e-01    2.930000e+00
  P6dr SN5dr  1 4.300000e-01    2.770000e+00
  P6dr SN4dr  1 4.300000e-01    2.530000e+00
  P6dr SN3dr  1 4.300000e-01    2.530000e+00
  P6dr SN2dr  1 4.300000e-01    2.320000e+00
  P6dr SN1dr  1 4.300000e-01    2.160000e+00
  P5dr SP4dr  1 4.300000e-01    3.380000e+00
  P5dr SP3dr  1 4.300000e-01    3.160000e+00
  P5dr SP2dr  1 4.300000e-01    3.160000e+00
  P5dr SP1dr  1 4.300000e-01    2.930000e+00
  P5dr SN6dr  1 4.300000e-01    2.920000e+00
  P5dr SN5dr  1 4.300000e-01    2.770000e+00
  P5dr SN4dr  1 4.300000e-01    2.770000e+00
  P5dr SN3dr  1 4.300000e-01    2.530000e+00
  P5dr SN2dr  1 4.300000e-01    2.320000e+00
  P5dr SN1dr  1 4.300000e-01    2.160000e+00
  P4dr SP3dr  1 4.300000e-01    3.160000e+00
  P4dr SP2dr  1 4.300000e-01    3.160000e+00
  P4dr SP1dr  1 4.300000e-01    2.930000e+00
  P4dr SN6dr  1 4.300000e-01    2.920000e+00
  P4dr SN5dr  1 4.300000e-01    2.770000e+00
  P4dr SN4dr  1 4.300000e-01    2.770000e+00
  P4dr SN3dr  1 4.300000e-01    2.530000e+00
  P4dr SN2dr  1 4.300000e-01    2.530000e+00
  P4dr SN1dr  1 4.300000e-01    2.320000e+00
  P3dr SP2dr  1 4.300000e-01    3.160000e+00
  P3dr SP1dr  1 4.300000e-01    2.930000e+00
  P3dr SN6dr  1 4.300000e-01    2.920000e+00
  P3dr SN5dr  1 4.300000e-01    2.770000e+00
  P3dr SN4dr  1 4.300000e-01    2.770000e+00
  P3dr SN3dr  1 4.300000e-01    2.530000e+00
  P3dr SN2dr  1 4.300000e-01    2.530000e+00
  P3dr SN1dr  1 4.300000e-01    2.530000e+00
  P2dr SP1dr  1 4.300000e-01    2.930000e+00
  P2dr SN6dr  1 4.300000e-01    2.930000e+00
  P2dr SN5dr  1 4.300000e-01    2.920000e+00
  P2dr SN4dr  1 4.300000e-01    2.770000e+00
  P2dr SN3dr  1 4.300000e-01    2.530000e+00
  P2dr SN2dr  1 4.300000e-01    2.530000e+00
  P2dr SN1dr  1 4.300000e-01    2.530000e+00
  P1dr SN6dr  1 4.300000e-01    2.930000e+00
  P1dr SN5dr  1 4.300000e-01    2.920000e+00
  P1dr SN4dr  1 4.300000e-01    2.920000e+00
  P1dr SN3dr  1 4.300000e-01    2.530000e+00
  P1dr SN2dr  1 4.300000e-01    2.530000e+00
  P1dr SN1dr  1 4.300000e-01    2.530000e+00
  N6dr SN5dr  1 4.300000e-01    2.930000e+00
  N6dr SN4dr  1 4.300000e-01    2.930000e+00
  N6dr SN3dr  1 4.300000e-01    2.770000e+00
  N6dr SN2dr  1 4.300000e-01    2.530000e+00
  N6dr SN1dr  1 4.300000e-01    2.530000e+00
  N5dr SN4dr  1 4.300000e-01    2.920000e+00
  N5dr SN3dr  1 4.300000e-01    2.770000e+00
  N5dr SN2dr  1 4.300000e-01    2.770000e+00
  N5dr SN1dr  1 4.300000e-01    2.530000e+00
  N4dr SN3dr  1 4.300000e-01    2.770000e+00
  N4dr SN2dr  1 4.300000e-01    2.770000e+00
  N4dr SN1dr  1 4.300000e-01    2.530000e+00
  N3dr SN2dr  1 4.300000e-01    2.770000e+00
  N3dr SN1dr  1 4.300000e-01    2.530000e+00
  N2dr SN1dr  1 4.300000e-01    2.530000e+00
 SP6dr  P5dr  1 4.300000e-01    3.770000e+00
 SP6dr  P4dr  1 4.300000e-01    3.590000e+00
 SP6dr  P3dr  1 4.300000e-01    3.380000e+00
 SP6dr  P2dr  1 4.300000e-01    3.380000e+00
 SP6dr  P1dr  1 4.300000e-01    3.160000e+00
 SP6dr  N6dr  1 4.300000e-01    2.930000e+00
 SP6dr  N5dr  1 4.300000e-01    2.770000e+00
 SP6dr  N4dr  1 4.300000e-01    2.530000e+00
 SP6dr  N3dr  1 4.300000e-01    2.530000e+00
 SP6dr  N2dr  1 4.300000e-01    2.320000e+00
 SP6dr  N1dr  1 4.300000e-01    2.160000e+00
 SP5dr  P4dr  1 4.300000e-01    3.380000e+00
 SP5dr  P3dr  1 4.300000e-01    3.160000e+00
 SP5dr  P2dr  1 4.300000e-01    3.160000e+00
 SP5dr  P1dr  1 4.300000e-01    2.930000e+00
 SP5dr  N6dr  1 4.300000e-01    2.920000e+00
 SP5dr  N5dr  1 4.300000e-01    2.770000e+00
 SP5dr  N4dr  1 4.300000e-01    2.770000e+00
 SP5dr  N3dr  1 4.300000e-01    2.530000e+00
 SP5dr  N2dr  1 4.300000e-01    2.320000e+00
 SP5dr  N1dr  1 4.300000e-01    2.160000e+00
 SP4dr  P3dr  1 4.300000e-01    3.160000e+00
 SP4dr  P2dr  1 4.300000e-01    3.160000e+00
 SP4dr  P1dr  1 4.300000e-01    2.930000e+00
 SP4dr  N6dr  1 4.300000e-01    2.920000e+00
 SP4dr  N5dr  1 4.300000e-01    2.770000e+00
 SP4dr  N4dr  1 4.300000e-01    2.770000e+00
 SP4dr  N3dr  1 4.300000e-01    2.530000e+00
 SP4dr  N2dr  1 4.300000e-01    2.530000e+00
 SP4dr  N1dr  1 4.300000e-01    2.320000e+00
 SP3dr  P2dr  1 4.300000e-01    3.160000e+00
 SP3dr  P1dr  1 4.300000e-01    2.930000e+00
 SP3dr  N6dr  1 4.300000e-01    2.920000e+00
 SP3dr  N5dr  1 4.300000e-01    2.770000e+00
 SP3dr  N4dr  1 4.300000e-01    2.770000e+00
 SP3dr  N3dr  1 4.300000e-01    2.530000e+00
 SP3dr  N2dr  1 4.300000e-01    2.530000e+00
 SP3dr  N1dr  1 4.300000e-01    2.530000e+00
 SP2dr  P1dr  1 4.300000e-01    2.930000e+00
 SP2dr  N6dr  1 4.300000e-01    2.930000e+00
 SP2dr  N5dr  1 4.300000e-01    2.920000e+00
 SP2dr  N4dr  1 4.300000e-01    2.770000e+00
 SP2dr  N3dr  1 4.300000e-01    2.530000e+00
 SP2dr  N2dr  1 4.300000e-01    2.530000e+00
 SP2dr  N1dr  1 4.300000e-01    2.530000e+00
 SP1dr  N6dr  1 4.300000e-01    2.930000e+00
 SP1dr  N5dr  1 4.300000e-01    2.920000e+00
 SP1dr  N4dr  1 4.300000e-01    2.920000e+00
 SP1dr  N3dr  1 4.300000e-01    2.530000e+00
 SP1dr  N2dr  1 4.300000e-01    2.530000e+00
 SP1dr  N1dr  1 4.300000e-01    2.530000e+00
 SN6dr  N5dr  1 4.300000e-01    2.930000e+00
 SN6dr  N4dr  1 4.300000e-01    2.930000e+00
 SN6dr  N3dr  1 4.300000e-01    2.770000e+00
 SN6dr  N2dr  1 4.300000e-01    2.530000e+00
 SN6dr  N1dr  1 4.300000e-01    2.530000e+00
 SN5dr  N4dr  1 4.300000e-01    2.920000e+00
 SN5dr  N3dr  1 4.300000e-01    2.770000e+00
 SN5dr  N2dr  1 4.300000e-01    2.770000e+00
 SN5dr  N1dr  1 4.300000e-01    2.530000e+00
 SN4dr  N3dr  1 4.300000e-01    2.770000e+00
 SN4dr  N2dr  1 4.300000e-01    2.770000e+00
 SN4dr  N1dr  1 4.300000e-01    2.530000e+00
 SN3dr  N2dr  1 4.300000e-01    2.770000e+00
 SN3dr  N1dr  1 4.300000e-01    2.530000e+00
 SN2dr  N1dr  1 4.300000e-01    2.530000e+00
   P6d  SP6a  1 4.300000e-01    4.680000e+00
   P6d  SP5a  1 4.300000e-01    4.400000e+00
   P6d  SP4a  1 4.300000e-01    4.170000e+00
   P6d  SP3a  1 4.300000e-01    3.970000e+00
   P6d  SP2a  1 4.300000e-01    3.970000e+00
   P6d  SP1a  1 4.300000e-01    3.770000e+00
   P6d  SN6a  1 4.300000e-01    3.590000e+00
   P6d  SN5a  1 4.300000e-01    3.160000e+00
   P6d  SN4a  1 4.300000e-01    2.930000e+00
   P6d  SN3a  1 4.300000e-01    2.770000e+00
   P6d  SN2a  1 4.300000e-01    2.530000e+00
   P6d  SN1a  1 4.300000e-01    2.320000e+00
   P5d  SP5a  1 4.300000e-01    4.170000e+00
   P5d  SP4a  1 4.300000e-01    3.970000e+00
   P5d  SP3a  1 4.300000e-01    3.770000e+00
   P5d  SP2a  1 4.300000e-01    3.770000e+00
   P5d  SP1a  1 4.300000e-01    3.590000e+00
   P5d  SN6a  1 4.300000e-01    3.380000e+00
   P5d  SN5a  1 4.300000e-01    3.160000e+00
   P5d  SN4a  1 4.300000e-01    3.160000e+00
   P5d  SN3a  1 4.300000e-01    2.770000e+00
   P5d  SN2a  1 4.300000e-01    2.530000e+00
   P5d  SN1a  1 4.300000e-01    2.320000e+00
   P4d  SP4a  1 4.300000e-01    3.970000e+00
   P4d  SP3a  1 4.300000e-01    3.770000e+00
   P4d  SP2a  1 4.300000e-01    3.770000e+00
   P4d  SP1a  1 4.300000e-01    3.590000e+00
   P4d  SN6a  1 4.300000e-01    3.380000e+00
   P4d  SN5a  1 4.300000e-01    3.160000e+00
   P4d  SN4a  1 4.300000e-01    3.160000e+00
   P4d  SN3a  1 4.300000e-01    2.930000e+00
   P4d  SN2a  1 4.300000e-01    2.770000e+00
   P4d  SN1a  1 4.300000e-01    2.530000e+00
   P3d  SP3a  1 4.300000e-01    3.770000e+00
   P3d  SP2a  1 4.300000e-01    3.770000e+00
   P3d  SP1a  1 4.300000e-01    3.590000e+00
   P3d  SN6a  1 4.300000e-01    3.380000e+00
   P3d  SN5a  1 4.300000e-01    3.160000e+00
   P3d  SN4a  1 4.300000e-01    3.160000e+00
   P3d  SN3a  1 4.300000e-01    2.930000e+00
   P3d  SN2a  1 4.300000e-01    2.930000e+00
   P3d  SN1a  1 4.300000e-01    2.770000e+00
   P2d  SP2a  1 4.300000e-01    3.770000e+00
   P2d  SP1a  1 4.300000e-01    3.590000e+00
   P2d  SN6a  1 4.300000e-01    3.590000e+00
   P2d  SN5a  1 4.300000e-01    3.380000e+00
   P2d  SN4a  1 4.300000e-01    3.160000e+00
   P2d  SN3a  1 4.300000e-01    2.930000e+00
   P2d  SN2a  1 4.300000e-01    2.930000e+00
   P2d  SN1a  1 4.300000e-01    2.930000e+00
   P1d  SP1a  1 4.300000e-01    3.590000e+00
   P1d  SN6a  1 4.300000e-01    3.590000e+00
   P1d  SN5a  1 4.300000e-01    3.380000e+00
   P1d  SN4a  1 4.300000e-01    3.380000e+00
   P1d  SN3a  1 4.300000e-01    2.930000e+00
   P1d  SN2a  1 4.300000e-01    2.930000e+00
   P1d  SN1a  1 4.300000e-01    2.930000e+00
   N6d  SN6a  1 4.300000e-01    3.590000e+00
   N6d  SN5a  1 4.300000e-01    3.590000e+00
   N6d  SN4a  1 4.300000e-01    3.590000e+00
   N6d  SN3a  1 4.300000e-01    3.160000e+00
   N6d  SN2a  1 4.300000e-01    2.930000e+00
   N6d  SN1a  1 4.300000e-01    2.930000e+00
   N5d  SN5a  1 4.300000e-01    3.380000e+00
   N5d  SN4a  1 4.300000e-01    3.380000e+00
   N5d  SN3a  1 4.300000e-01    3.160000e+00
   N5d  SN2a  1 4.300000e-01    3.160000e+00
   N5d  SN1a  1 4.300000e-01    2.930000e+00
   N4d  SN4a  1 4.300000e-01    3.380000e+00
   N4d  SN3a  1 4.300000e-01    3.160000e+00
   N4d  SN2a  1 4.300000e-01    3.160000e+00
   N4d  SN1a  1 4.300000e-01    2.930000e+00
   N3d  SN3a  1 4.300000e-01    3.160000e+00
   N3d  SN2a  1 4.300000e-01    3.160000e+00
   N3d  SN1a  1 4.300000e-01    2.930000e+00
   N2d  SN2a  1 4.300000e-01    3.160000e+00
   N2d  SN1a  1 4.300000e-01    2.930000e+00
   N1d  SN1a  1 4.300000e-01    3.160000e+00
  SP6d   P6a  1 4.300000e-01    4.680000e+00
  SP6d   P5a  1 4.300000e-01    4.400000e+00
  SP6d   P4a  1 4.300000e-01    4.170000e+00
  SP6d   P3a  1 4.300000e-01    3.970000e+00
  SP6d   P2a  1 4.300000e-01    3.970000e+00
  SP6d   P1a  1 4.300000e-01    3.770000e+00
  SP6d   N6a  1 4.300000e-01    3.590000e+00
  SP6d   N5a  1 4.300000e-01    3.160000e+00
  SP6d   N4a  1 4.300000e-01    2.930000e+00
  SP6d   N3a  1 4.300000e-01    2.770000e+00
  SP6d   N2a  1 4.300000e-01    2.530000e+00
  SP6d   N1a  1 4.300000e-01    2.320000e+00
  SP5d   P5a  1 4.300000e-01    4.170000e+00
  SP5d   P4a  1 4.300000e-01    3.970000e+00
  SP5d   P3a  1 4.300000e-01    3.770000e+00
  SP5d   P2a  1 4.300000e-01    3.770000e+00
  SP5d   P1a  1 4.300000e-01    3.590000e+00
  SP5d   N6a  1 4.300000e-01    3.380000e+00
  SP5d   N5a  1 4.300000e-01    3.160000e+00
  SP5d   N4a  1 4.300000e-01    3.160000e+00
  SP5d   N3a  1 4.300000e-01    2.770000e+00
  SP5d   N2a  1 4.300000e-01    2.530000e+00
  SP5d   N1a  1 4.300000e-01    2.320000e+00
  SP4d   P4a  1 4.300000e-01    3.970000e+00
  SP4d   P3a  1 4.300000e-01    3.770000e+00
  SP4d   P2a  1 4.300000e-01    3.770000e+00
  SP4d   P1a  1 4.300000e-01    3.590000e+00
  SP4d   N6a  1 4.300000e-01    3.380000e+00
  SP4d   N5a  1 4.300000e-01    3.160000e+00
  SP4d   N4a  1 4.300000e-01    3.160000e+00
  SP4d   N3a  1 4.300000e-01    2.930000e+00
  SP4d   N2a  1 4.300000e-01    2.770000e+00
  SP4d   N1a  1 4.300000e-01    2.530000e+00
  SP3d   P3a  1 4.300000e-01    3.770000e+00
  SP3d   P2a  1 4.300000e-01    3.770000e+00
  SP3d   P1a  1 4.300000e-01    3.590000e+00
  SP3d   N6a  1 4.300000e-01    3.380000e+00
  SP3d   N5a  1 4.300000e-01    3.160000e+00
  SP3d   N4a  1 4.300000e-01    3.160000e+00
  SP3d   N3a  1 4.300000e-01    2.930000e+00
  SP3d   N2a  1 4.300000e-01    2.930000e+00
  SP3d   N1a  1 4.300000e-01    2.770000e+00
  SP2d   P2a  1 4.300000e-01    3.770000e+00
  SP2d   P1a  1 4.300000e-01    3.590000e+00
  SP2d   N6a  1 4.300000e-01    3.590000e+00
  SP2d   N5a  1 4.300000e-01    3.380000e+00
  SP2d   N4a  1 4.300000e-01    3.160000e+00
  SP2d   N3a  1 4.300000e-01    2.930000e+00
  SP2d   N2a  1 4.300000e-01    2.930000e+00
  SP2d   N1a  1 4.300000e-01    2.930000e+00
  SP1d   P1a  1 4.300000e-01    3.590000e+00
  SP1d   N6a  1 4.300000e-01    3.590000e+00
  SP1d   N5a  1 4.300000e-01    3.380000e+00
  SP1d   N4a  1 4.300000e-01    3.380000e+00
  SP1d   N3a  1 4.300000e-01    2.930000e+00
  SP1d   N2a  1 4.300000e-01    2.930000e+00
  SP1d   N1a  1 4.300000e-01    2.930000e+00
  SN6d   N6a  1 4.300000e-01    3.590000e+00
  SN6d   N5a  1 4.300000e-01    3.590000e+00
  SN6d   N4a  1 4.300000e-01    3.590000e+00
  SN6d   N3a  1 4.300000e-01    3.160000e+00
  SN6d   N2a  1 4.300000e-01    2.930000e+00
  SN6d   N1a  1 4.300000e-01    2.930000e+00
  SN5d   N5a  1 4.300000e-01    3.380000e+00
  SN5d   N4a  1 4.300000e-01    3.380000e+00
  SN5d   N3a  1 4.300000e-01    3.160000e+00
  SN5d   N2a  1 4.300000e-01    3.160000e+00
  SN5d   N1a  1 4.300000e-01    2.930000e+00
  SN4d   N4a  1 4.300000e-01    3.380000e+00
  SN4d   N3a  1 4.300000e-01    3.160000e+00
  SN4d   N2a  1 4.300000e-01    3.160000e+00
  SN4d   N1a  1 4.300000e-01    2.930000e+00
  SN3d   N3a  1 4.300000e-01    3.160000e+00
  SN3d   N2a  1 4.300000e-01    3.160000e+00
  SN3d   N1a  1 4.300000e-01    2.930000e+00
  SN2d   N2a  1 4.300000e-01    3.160000e+00
  SN2d   N1a  1 4.300000e-01    2.930000e+00
  SN1d   N1a  1 4.300000e-01    3.160000e+00
   P6d SN1aq  1 4.300000e-01    2.770000e+00
   P5d SN1aq  1 4.300000e-01    2.770000e+00
   P4d SN1aq  1 4.300000e-01    2.920000e+00
   P3d SN1aq  1 4.300000e-01    2.930000e+00
   P2d SN1aq  1 4.300000e-01    3.380000e+00
   P1d SN1aq  1 4.300000e-01    3.380000e+00
   N6d SN1aq  1 4.300000e-01    3.380000e+00
   N5d SN1aq  1 4.300000e-01    3.380000e+00
   N4d SN1aq  1 4.300000e-01    3.380000e+00
   N3d SN1aq  1 4.300000e-01    3.380000e+00
   N2d SN1aq  1 4.300000e-01    3.380000e+00
   N1d SN1aq  1 4.300000e-01    3.590000e+00
   P6d SN2aq  1 4.300000e-01    2.920000e+00
   P5d SN2aq  1 4.300000e-01    2.920000e+00
   P4d SN2aq  1 4.300000e-01    2.930000e+00
   P3d SN2aq  1 4.300000e-01    3.380000e+00
   P2d SN2aq  1 4.300000e-01    3.380000e+00
   P1d SN2aq  1 4.300000e-01    3.380000e+00
   N6d SN2aq  1 4.300000e-01    3.380000e+00
   N5d SN2aq  1 4.300000e-01    3.590000e+00
   N4d SN2aq  1 4.300000e-01    3.590000e+00
   N3d SN2aq  1 4.300000e-01    3.590000e+00
   N2d SN2aq  1 4.300000e-01    3.590000e+00
   P6d SN3aq  1 4.300000e-01    2.930000e+00
   P5d SN3aq  1 4.300000e-01    2.930000e+00
   P4d SN3aq  1 4.300000e-01    3.380000e+00
   P3d SN3aq  1 4.300000e-01    3.380000e+00
   P2d SN3aq  1 4.300000e-01    3.380000e+00
   P1d SN3aq  1 4.300000e-01    3.380000e+00
   N6d SN3aq  1 4.300000e-01    3.590000e+00
   N5d SN3aq  1 4.300000e-01    3.590000e+00
   N4d SN3aq  1 4.300000e-01    3.590000e+00
   N3d SN3aq  1 4.300000e-01    3.590000e+00
   P6d SN4aq  1 4.300000e-01    3.380000e+00
   P5d SN4aq  1 4.300000e-01    3.590000e+00
   P4d SN4aq  1 4.300000e-01    3.590000e+00
   P3d SN4aq  1 4.300000e-01    3.590000e+00
   P2d SN4aq  1 4.300000e-01    3.590000e+00
   P1d SN4aq  1 4.300000e-01    3.770000e+00
   N6d SN4aq  1 4.300000e-01    3.970000e+00
   N5d SN4aq  1 4.300000e-01    3.770000e+00
   N4d SN4aq  1 4.300000e-01    3.770000e+00
   P6d SN5aq  1 4.300000e-01    3.590000e+00
   P5d SN5aq  1 4.300000e-01    3.590000e+00
   P4d SN5aq  1 4.300000e-01    3.590000e+00
   P3d SN5aq  1 4.300000e-01    3.590000e+00
   P2d SN5aq  1 4.300000e-01    3.770000e+00
   P1d SN5aq  1 4.300000e-01    3.770000e+00
   N6d SN5aq  1 4.300000e-01    3.970000e+00
   N5d SN5aq  1 4.300000e-01    3.770000e+00
   P6d SN6aq  1 4.300000e-01    3.970000e+00
   P5d SN6aq  1 4.300000e-01    3.770000e+00
   P4d SN6aq  1 4.300000e-01    3.770000e+00
   P3d SN6aq  1 4.300000e-01    3.770000e+00
   P2d SN6aq  1 4.300000e-01    3.970000e+00
   P1d SN6aq  1 4.300000e-01    3.970000e+00
   N6d SN6aq  1 4.300000e-01    3.970000e+00
   P6d SP1aq  1 4.300000e-01    4.170000e+00
   P5d SP1aq  1 4.300000e-01    3.970000e+00
   P4d SP1aq  1 4.300000e-01    3.970000e+00
   P3d SP1aq  1 4.300000e-01    3.970000e+00
   P2d SP1aq  1 4.300000e-01    3.970000e+00
   P1d SP1aq  1 4.300000e-01    3.970000e+00
   P6d SP2aq  1 4.300000e-01    4.400000e+00
   P5d SP2aq  1 4.300000e-01    4.170000e+00
   P4d SP2aq  1 4.300000e-01    4.170000e+00
   P3d SP2aq  1 4.300000e-01    4.170000e+00
   P2d SP2aq  1 4.300000e-01    4.170000e+00
   P6d SP3aq  1 4.300000e-01    4.400000e+00
   P5d SP3aq  1 4.300000e-01    4.170000e+00
   P4d SP3aq  1 4.300000e-01    4.170000e+00
   P3d SP3aq  1 4.300000e-01    4.170000e+00
   P6d SP4aq  1 4.300000e-01    4.680000e+00
   P5d SP4aq  1 4.300000e-01    4.400000e+00
   P4d SP4aq  1 4.300000e-01    4.400000e+00
   P6d SP5aq  1 4.300000e-01    4.920000e+00
   P5d SP5aq  1 4.300000e-01    4.680000e+00
   P6d SP6aq  1 4.300000e-01    5.510000e+00
  SP6d  N1aq  1 4.300000e-01    2.770000e+00
  SP5d  N1aq  1 4.300000e-01    2.770000e+00
  SP4d  N1aq  1 4.300000e-01    2.920000e+00
  SP3d  N1aq  1 4.300000e-01    2.930000e+00
  SP2d  N1aq  1 4.300000e-01    3.380000e+00
  SP1d  N1aq  1 4.300000e-01    3.380000e+00
  SN6d  N1aq  1 4.300000e-01    3.380000e+00
  SN5d  N1aq  1 4.300000e-01    3.380000e+00
  SN4d  N1aq  1 4.300000e-01    3.380000e+00
  SN3d  N1aq  1 4.300000e-01    3.380000e+00
  SN2d  N1aq  1 4.300000e-01    3.380000e+00
  SN1d  N1aq  1 4.300000e-01    3.590000e+00
  SP6d  N2aq  1 4.300000e-01    2.920000e+00
  SP5d  N2aq  1 4.300000e-01    2.920000e+00
  SP4d  N2aq  1 4.300000e-01    2.930000e+00
  SP3d  N2aq  1 4.300000e-01    3.380000e+00
  SP2d  N2aq  1 4.300000e-01    3.380000e+00
  SP1d  N2aq  1 4.300000e-01    3.380000e+00
  SN6d  N2aq  1 4.300000e-01    3.380000e+00
  SN5d  N2aq  1 4.300000e-01    3.590000e+00
  SN4d  N2aq  1 4.300000e-01    3.590000e+00
  SN3d  N2aq  1 4.300000e-01    3.590000e+00
  SN2d  N2aq  1 4.300000e-01    3.590000e+00
  SP6d  N3aq  1 4.300000e-01    2.930000e+00
  SP5d  N3aq  1 4.300000e-01    2.930000e+00
  SP4d  N3aq  1 4.300000e-01    3.380000e+00
  SP3d  N3aq  1 4.300000e-01    3.380000e+00
  SP2d  N3aq  1 4.300000e-01    3.380000e+00
  SP1d  N3aq  1 4.300000e-01    3.380000e+00
  SN6d  N3aq  1 4.300000e-01    3.590000e+00
  SN5d  N3aq  1 4.300000e-01    3.590000e+00
  SN4d  N3aq  1 4.300000e-01    3.590000e+00
  SN3d  N3aq  1 4.300000e-01    3.590000e+00
  SP6d  N4aq  1 4.300000e-01    3.380000e+00
  SP5d  N4aq  1 4.300000e-01    3.590000e+00
  SP4d  N4aq  1 4.300000e-01    3.590000e+00
  SP3d  N4aq  1 4.300000e-01    3.590000e+00
  SP2d  N4aq  1 4.300000e-01    3.590000e+00
  SP1d  N4aq  1 4.300000e-01    3.770000e+00
  SN6d  N4aq  1 4.300000e-01    3.970000e+00
  SN5d  N4aq  1 4.300000e-01    3.770000e+00
  SN4d  N4aq  1 4.300000e-01    3.770000e+00
  SP6d  N5aq  1 4.300000e-01    3.590000e+00
  SP5d  N5aq  1 4.300000e-01    3.590000e+00
  SP4d  N5aq  1 4.300000e-01    3.590000e+00
  SP3d  N5aq  1 4.300000e-01    3.590000e+00
  SP2d  N5aq  1 4.300000e-01    3.770000e+00
  SP1d  N5aq  1 4.300000e-01    3.770000e+00
  SN6d  N5aq  1 4.300000e-01    3.970000e+00
  SN5d  N5aq  1 4.300000e-01    3.770000e+00
  SP6d  N6aq  1 4.300000e-01    3.970000e+00
  SP5d  N6aq  1 4.300000e-01    3.770000e+00
  SP4d  N6aq  1 4.300000e-01    3.770000e+00
  SP3d  N6aq  1 4.300000e-01    3.770000e+00
  SP2d  N6aq  1 4.300000e-01    3.970000e+00
  SP1d  N6aq  1 4.300000e-01    3.970000e+00
  SN6d  N6aq  1 4.300000e-01    3.970000e+00
  SP6d  P1aq  1 4.300000e-01    4.170000e+00
  SP5d  P1aq  1 4.300000e-01    3.970000e+00
  SP4d  P1aq  1 4.300000e-01    3.970000e+00
  SP3d  P1aq  1 4.300000e-01    3.970000e+00
  SP2d  P1aq  1 4.300000e-01    3.970000e+00
  SP1d  P1aq  1 4.300000e-01    3.970000e+00
  SP6d  P2aq  1 4.300000e-01    4.400000e+00
  SP5d  P2aq  1 4.300000e-01    4.170000e+00
  SP4d  P2aq  1 4.300000e-01    4.170000e+00
  SP3d  P2aq  1 4.300000e-01    4.170000e+00
  SP2d  P2aq  1 4.300000e-01    4.170000e+00
  SP6d  P3aq  1 4.300000e-01    4.400000e+00
  SP5d  P3aq  1 4.300000e-01    4.170000e+00
  SP4d  P3aq  1 4.300000e-01    4.170000e+00
  SP3d  P3aq  1 4.300000e-01    4.170000e+00
  SP6d  P4aq  1 4.300000e-01    4.680000e+00
  SP5d  P4aq  1 4.300000e-01    4.400000e+00
  SP4d  P4aq  1 4.300000e-01    4.400000e+00
  SP6d  P5aq  1 4.300000e-01    4.920000e+00
  SP5d  P5aq  1 4.300000e-01    4.680000e+00
  SP6d  P6aq  1 4.300000e-01    5.510000e+00
   P6d SN1ah  1 4.300000e-01    2.320000e+00
   P5d SN1ah  1 4.300000e-01    2.320000e+00
   P4d SN1ah  1 4.300000e-01    2.530000e+00
   P3d SN1ah  1 4.300000e-01    2.770000e+00
   P2d SN1ah  1 4.300000e-01    2.930000e+00
   P1d SN1ah  1 4.300000e-01    2.930000e+00
   N6d SN1ah  1 4.300000e-01    2.930000e+00
   N5d SN1ah  1 4.300000e-01    2.930000e+00
   N4d SN1ah  1 4.300000e-01    2.930000e+00
   N3d SN1ah  1 4.300000e-01    2.930000e+00
   N2d SN1ah  1 4.300000e-01    2.930000e+00
   N1d SN1ah  1 4.300000e-01    3.160000e+00
   P6d SN2ah  1 4.300000e-01    2.530000e+00
   P5d SN2ah  1 4.300000e-01    2.530000e+00
   P4d SN2ah  1 4.300000e-01    2.770000e+00
   P3d SN2ah  1 4.300000e-01    2.930000e+00
   P2d SN2ah  1 4.300000e-01    2.930000e+00
   P1d SN2ah  1 4.300000e-01    2.930000e+00
   N6d SN2ah  1 4.300000e-01    2.930000e+00
   N5d SN2ah  1 4.300000e-01    3.160000e+00
   N4d SN2ah  1 4.300000e-01    3.160000e+00
   N3d SN2ah  1 4.300000e-01    3.160000e+00
   N2d SN2ah  1 4.300000e-01    3.160000e+00
   P6d SN3ah  1 4.300000e-01    2.770000e+00
   P5d SN3ah  1 4.300000e-01    2.770000e+00
   P4d SN3ah  1 4.300000e-01    2.930000e+00
   P3d SN3ah  1 4.300000e-01    2.930000e+00
   P2d SN3ah  1 4.300000e-01    2.930000e+00
   P1d SN3ah  1 4.300000e-01    2.930000e+00
   N6d SN3ah  1 4.300000e-01    3.160000e+00
   N5d SN3ah  1 4.300000e-01    3.160000e+00
   N4d SN3ah  1 4.300000e-01    3.160000e+00
   N3d SN3ah  1 4.300000e-01    3.160000e+00
   P6d SN4ah  1 4.300000e-01    2.930000e+00
   P5d SN4ah  1 4.300000e-01    3.160000e+00
   P4d SN4ah  1 4.300000e-01    3.160000e+00
   P3d SN4ah  1 4.300000e-01    3.160000e+00
   P2d SN4ah  1 4.300000e-01    3.160000e+00
   P1d SN4ah  1 4.300000e-01    3.380000e+00
   N6d SN4ah  1 4.300000e-01    3.590000e+00
   N5d SN4ah  1 4.300000e-01    3.380000e+00
   N4d SN4ah  1 4.300000e-01    3.380000e+00
   P6d SN5ah  1 4.300000e-01    3.160000e+00
   P5d SN5ah  1 4.300000e-01    3.160000e+00
   P4d SN5ah  1 4.300000e-01    3.160000e+00
   P3d SN5ah  1 4.300000e-01    3.160000e+00
   P2d SN5ah  1 4.300000e-01    3.380000e+00
   P1d SN5ah  1 4.300000e-01    3.380000e+00
   N6d SN5ah  1 4.300000e-01    3.590000e+00
   N5d SN5ah  1 4.300000e-01    3.380000e+00
   P6d SN6ah  1 4.300000e-01    3.590000e+00
   P5d SN6ah  1 4.300000e-01    3.380000e+00
   P4d SN6ah  1 4.300000e-01    3.380000e+00
   P3d SN6ah  1 4.300000e-01    3.380000e+00
   P2d SN6ah  1 4.300000e-01    3.590000e+00
   P1d SN6ah  1 4.300000e-01    3.590000e+00
   N6d SN6ah  1 4.300000e-01    3.590000e+00
   P6d SP1ah  1 4.300000e-01    3.770000e+00
   P5d SP1ah  1 4.300000e-01    3.590000e+00
   P4d SP1ah  1 4.300000e-01    3.590000e+00
   P3d SP1ah  1 4.300000e-01    3.590000e+00
   P2d SP1ah  1 4.300000e-01    3.590000e+00
   P1d SP1ah  1 4.300000e-01    3.590000e+00
   P6d SP2ah  1 4.300000e-01    3.970000e+00
   P5d SP2ah  1 4.300000e-01    3.770000e+00
   P4d SP2ah  1 4.300000e-01    3.770000e+00
   P3d SP2ah  1 4.300000e-01    3.770000e+00
   P2d SP2ah  1 4.300000e-01    3.770000e+00
   P6d SP3ah  1 4.300000e-01    3.970000e+00
   P5d SP3ah  1 4.300000e-01    3.770000e+00
   P4d SP3ah  1 4.300000e-01    3.770000e+00
   P3d SP3ah  1 4.300000e-01    3.770000e+00
   P6d SP4ah  1 4.300000e-01    4.170000e+00
   P5d SP4ah  1 4.300000e-01    3.970000e+00
   P4d SP4ah  1 4.300000e-01    3.970000e+00
   P6d SP5ah  1 4.300000e-01    4.400000e+00
   P5d SP5ah  1 4.300000e-01    4.170000e+00
   P6d SP6ah  1 4.300000e-01    4.680000e+00
  SP6d  N1ah  1 4.300000e-01    2.320000e+00
  SP5d  N1ah  1 4.300000e-01    2.320000e+00
  SP4d  N1ah  1 4.300000e-01    2.530000e+00
  SP3d  N1ah  1 4.300000e-01    2.770000e+00
  SP2d  N1ah  1 4.300000e-01    2.930000e+00
  SP1d  N1ah  1 4.300000e-01    2.930000e+00
  SN6d  N1ah  1 4.300000e-01    2.930000e+00
  SN5d  N1ah  1 4.300000e-01    2.930000e+00
  SN4d  N1ah  1 4.300000e-01    2.930000e+00
  SN3d  N1ah  1 4.300000e-01    2.930000e+00
  SN2d  N1ah  1 4.300000e-01    2.930000e+00
  SN1d  N1ah  1 4.300000e-01    3.160000e+00
  SP6d  N2ah  1 4.300000e-01    2.530000e+00
  SP5d  N2ah  1 4.300000e-01    2.530000e+00
  SP4d  N2ah  1 4.300000e-01    2.770000e+00
  SP3d  N2ah  1 4.300000e-01    2.930000e+00
  SP2d  N2ah  1 4.300000e-01    2.930000e+00
  SP1d  N2ah  1 4.300000e-01    2.930000e+00
  SN6d  N2ah  1 4.300000e-01    2.930000e+00
  SN5d  N2ah  1 4.300000e-01    3.160000e+00
  SN4d  N2ah  1 4.300000e-01    3.160000e+00
  SN3d  N2ah  1 4.300000e-01    3.160000e+00
  SN2d  N2ah  1 4.300000e-01    3.160000e+00
  SP6d  N3ah  1 4.300000e-01    2.770000e+00
  SP5d  N3ah  1 4.300000e-01    2.770000e+00
  SP4d  N3ah  1 4.300000e-01    2.930000e+00
  SP3d  N3ah  1 4.300000e-01    2.930000e+00
  SP2d  N3ah  1 4.300000e-01    2.930000e+00
  SP1d  N3ah  1 4.300000e-01    2.930000e+00
  SN6d  N3ah  1 4.300000e-01    3.160000e+00
  SN5d  N3ah  1 4.300000e-01    3.160000e+00
  SN4d  N3ah  1 4.300000e-01    3.160000e+00
  SN3d  N3ah  1 4.300000e-01    3.160000e+00
  SP6d  N4ah  1 4.300000e-01    2.930000e+00
  SP5d  N4ah  1 4.300000e-01    3.160000e+00
  SP4d  N4ah  1 4.300000e-01    3.160000e+00
  SP3d  N4ah  1 4.300000e-01    3.160000e+00
  SP2d  N4ah  1 4.300000e-01    3.160000e+00
  SP1d  N4ah  1 4.300000e-01    3.380000e+00
  SN6d  N4ah  1 4.300000e-01    3.590000e+00
  SN5d  N4ah  1 4.300000e-01    3.380000e+00
  SN4d  N4ah  1 4.300000e-01    3.380000e+00
  SP6d  N5ah  1 4.300000e-01    3.160000e+00
  SP5d  N5ah  1 4.300000e-01    3.160000e+00
  SP4d  N5ah  1 4.300000e-01    3.160000e+00
  SP3d  N5ah  1 4.300000e-01    3.160000e+00
  SP2d  N5ah  1 4.300000e-01    3.380000e+00
  SP1d  N5ah  1 4.300000e-01    3.380000e+00
  SN6d  N5ah  1 4.300000e-01    3.590000e+00
  SN5d  N5ah  1 4.300000e-01    3.380000e+00
  SP6d  N6ah  1 4.300000e-01    3.590000e+00
  SP5d  N6ah  1 4.300000e-01    3.380000e+00
  SP4d  N6ah  1 4.300000e-01    3.380000e+00
  SP3d  N6ah  1 4.300000e-01    3.380000e+00
  SP2d  N6ah  1 4.300000e-01    3.590000e+00
  SP1d  N6ah  1 4.300000e-01    3.590000e+00
  SN6d  N6ah  1 4.300000e-01    3.590000e+00
  SP6d  P1ah  1 4.300000e-01    3.770000e+00
  SP5d  P1ah  1 4.300000e-01    3.590000e+00
  SP4d  P1ah  1 4.300000e-01    3.590000e+00
  SP3d  P1ah  1 4.300000e-01    3.590000e+00
  SP2d  P1ah  1 4.300000e-01    3.590000e+00
  SP1d  P1ah  1 4.300000e-01    3.590000e+00
  SP6d  P2ah  1 4.300000e-01    3.970000e+00
  SP5d  P2ah  1 4.300000e-01    3.770000e+00
  SP4d  P2ah  1 4.300000e-01    3.770000e+00
  SP3d  P2ah  1 4.300000e-01    3.770000e+00
  SP2d  P2ah  1 4.300000e-01    3.770000e+00
  SP6d  P3ah  1 4.300000e-01    3.970000e+00
  SP5d  P3ah  1 4.300000e-01    3.770000e+00
  SP4d  P3ah  1 4.300000e-01    3.770000e+00
  SP3d  P3ah  1 4.300000e-01    3.770000e+00
  SP6d  P4ah  1 4.300000e-01    4.170000e+00
  SP5d  P4ah  1 4.300000e-01    3.970000e+00
  SP4d  P4ah  1 4.300000e-01    3.970000e+00
  SP6d  P5ah  1 4.300000e-01    4.400000e+00
  SP5d  P5ah  1 4.300000e-01    4.170000e+00
  SP6d  P6ah  1 4.300000e-01    4.680000e+00
   P6d SN1ar  1 4.300000e-01    2.320000e+00
   P5d SN1ar  1 4.300000e-01    2.320000e+00
   P4d SN1ar  1 4.300000e-01    2.530000e+00
   P3d SN1ar  1 4.300000e-01    2.770000e+00
   P2d SN1ar  1 4.300000e-01    2.930000e+00
   P1d SN1ar  1 4.300000e-01    2.930000e+00
   N6d SN1ar  1 4.300000e-01    2.930000e+00
   N5d SN1ar  1 4.300000e-01    2.930000e+00
   N4d SN1ar  1 4.300000e-01    2.930000e+00
   N3d SN1ar  1 4.300000e-01    2.930000e+00
   N2d SN1ar  1 4.300000e-01    2.930000e+00
   N1d SN1ar  1 4.300000e-01    3.160000e+00
   P6d SN2ar  1 4.300000e-01    2.530000e+00
   P5d SN2ar  1 4.300000e-01    2.530000e+00
   P4d SN2ar  1 4.300000e-01    2.770000e+00
   P3d SN2ar  1 4.300000e-01    2.930000e+00
   P2d SN2ar  1 4.300000e-01    2.930000e+00
   P1d SN2ar  1 4.300000e-01    2.930000e+00
   N6d SN2ar  1 4.300000e-01    2.930000e+00
   N5d SN2ar  1 4.300000e-01    3.160000e+00
   N4d SN2ar  1 4.300000e-01    3.160000e+00
   N3d SN2ar  1 4.300000e-01    3.160000e+00
   N2d SN2ar  1 4.300000e-01    3.160000e+00
   P6d SN3ar  1 4.300000e-01    2.770000e+00
   P5d SN3ar  1 4.300000e-01    2.770000e+00
   P4d SN3ar  1 4.300000e-01    2.930000e+00
   P3d SN3ar  1 4.300000e-01    2.930000e+00
   P2d SN3ar  1 4.300000e-01    2.930000e+00
   P1d SN3ar  1 4.300000e-01    2.930000e+00
   N6d SN3ar  1 4.300000e-01    3.160000e+00
   N5d SN3ar  1 4.300000e-01    3.160000e+00
   N4d SN3ar  1 4.300000e-01    3.160000e+00
   N3d SN3ar  1 4.300000e-01    3.160000e+00
   P6d SN4ar  1 4.300000e-01    2.930000e+00
   P5d SN4ar  1 4.300000e-01    3.160000e+00
   P4d SN4ar  1 4.300000e-01    3.160000e+00
   P3d SN4ar  1 4.300000e-01    3.160000e+00
   P2d SN4ar  1 4.300000e-01    3.160000e+00
   P1d SN4ar  1 4.300000e-01    3.380000e+00
   N6d SN4ar  1 4.300000e-01    3.590000e+00
   N5d SN4ar  1 4.300000e-01    3.380000e+00
   N4d SN4ar  1 4.300000e-01    3.380000e+00
   P6d SN5ar  1 4.300000e-01    3.160000e+00
   P5d SN5ar  1 4.300000e-01    3.160000e+00
   P4d SN5ar  1 4.300000e-01    3.160000e+00
   P3d SN5ar  1 4.300000e-01    3.160000e+00
   P2d SN5ar  1 4.300000e-01    3.380000e+00
   P1d SN5ar  1 4.300000e-01    3.380000e+00
   N6d SN5ar  1 4.300000e-01    3.590000e+00
   N5d SN5ar  1 4.300000e-01    3.380000e+00
   P6d SN6ar  1 4.300000e-01    3.590000e+00
   P5d SN6ar  1 4.300000e-01    3.380000e+00
   P4d SN6ar  1 4.300000e-01    3.380000e+00
   P3d SN6ar  1 4.300000e-01    3.380000e+00
   P2d SN6ar  1 4.300000e-01    3.590000e+00
   P1d SN6ar  1 4.300000e-01    3.590000e+00
   N6d SN6ar  1 4.300000e-01    3.590000e+00
   P6d SP1ar  1 4.300000e-01    3.770000e+00
   P5d SP1ar  1 4.300000e-01    3.590000e+00
   P4d SP1ar  1 4.300000e-01    3.590000e+00
   P3d SP1ar  1 4.300000e-01    3.590000e+00
   P2d SP1ar  1 4.300000e-01    3.590000e+00
   P1d SP1ar  1 4.300000e-01    3.590000e+00
   P6d SP2ar  1 4.300000e-01    3.970000e+00
   P5d SP2ar  1 4.300000e-01    3.770000e+00
   P4d SP2ar  1 4.300000e-01    3.770000e+00
   P3d SP2ar  1 4.300000e-01    3.770000e+00
   P2d SP2ar  1 4.300000e-01    3.770000e+00
   P6d SP3ar  1 4.300000e-01    3.970000e+00
   P5d SP3ar  1 4.300000e-01    3.770000e+00
   P4d SP3ar  1 4.300000e-01    3.770000e+00
   P3d SP3ar  1 4.300000e-01    3.770000e+00
   P6d SP4ar  1 4.300000e-01    4.170000e+00
   P5d SP4ar  1 4.300000e-01    3.970000e+00
   P4d SP4ar  1 4.300000e-01    3.970000e+00
   P6d SP5ar  1 4.300000e-01    4.400000e+00
   P5d SP5ar  1 4.300000e-01    4.170000e+00
   P6d SP6ar  1 4.300000e-01    4.680000e+00
  SP6d  N1ar  1 4.300000e-01    2.320000e+00
  SP5d  N1ar  1 4.300000e-01    2.320000e+00
  SP4d  N1ar  1 4.300000e-01    2.530000e+00
  SP3d  N1ar  1 4.300000e-01    2.770000e+00
  SP2d  N1ar  1 4.300000e-01    2.930000e+00
  SP1d  N1ar  1 4.300000e-01    2.930000e+00
  SN6d  N1ar  1 4.300000e-01    2.930000e+00
  SN5d  N1ar  1 4.300000e-01    2.930000e+00
  SN4d  N1ar  1 4.300000e-01    2.930000e+00
  SN3d  N1ar  1 4.300000e-01    2.930000e+00
  SN2d  N1ar  1 4.300000e-01    2.930000e+00
  SN1d  N1ar  1 4.300000e-01    3.160000e+00
  SP6d  N2ar  1 4.300000e-01    2.530000e+00
  SP5d  N2ar  1 4.300000e-01    2.530000e+00
  SP4d  N2ar  1 4.300000e-01    2.770000e+00
  SP3d  N2ar  1 4.300000e-01    2.930000e+00
  SP2d  N2ar  1 4.300000e-01    2.930000e+00
  SP1d  N2ar  1 4.300000e-01    2.930000e+00
  SN6d  N2ar  1 4.300000e-01    2.930000e+00
  SN5d  N2ar  1 4.300000e-01    3.160000e+00
  SN4d  N2ar  1 4.300000e-01    3.160000e+00
  SN3d  N2ar  1 4.300000e-01    3.160000e+00
  SN2d  N2ar  1 4.300000e-01    3.160000e+00
  SP6d  N3ar  1 4.300000e-01    2.770000e+00
  SP5d  N3ar  1 4.300000e-01    2.770000e+00
  SP4d  N3ar  1 4.300000e-01    2.930000e+00
  SP3d  N3ar  1 4.300000e-01    2.930000e+00
  SP2d  N3ar  1 4.300000e-01    2.930000e+00
  SP1d  N3ar  1 4.300000e-01    2.930000e+00
  SN6d  N3ar  1 4.300000e-01    3.160000e+00
  SN5d  N3ar  1 4.300000e-01    3.160000e+00
  SN4d  N3ar  1 4.300000e-01    3.160000e+00
  SN3d  N3ar  1 4.300000e-01    3.160000e+00
  SP6d  N4ar  1 4.300000e-01    2.930000e+00
  SP5d  N4ar  1 4.300000e-01    3.160000e+00
  SP4d  N4ar  1 4.300000e-01    3.160000e+00
  SP3d  N4ar  1 4.300000e-01    3.160000e+00
  SP2d  N4ar  1 4.300000e-01    3.160000e+00
  SP1d  N4ar  1 4.300000e-01    3.380000e+00
  SN6d  N4ar  1 4.300000e-01    3.590000e+00
  SN5d  N4ar  1 4.300000e-01    3.380000e+00
  SN4d  N4ar  1 4.300000e-01    3.380000e+00
  SP6d  N5ar  1 4.300000e-01    3.160000e+00
  SP5d  N5ar  1 4.300000e-01    3.160000e+00
  SP4d  N5ar  1 4.300000e-01    3.160000e+00
  SP3d  N5ar  1 4.300000e-01    3.160000e+00
  SP2d  N5ar  1 4.300000e-01    3.380000e+00
  SP1d  N5ar  1 4.300000e-01    3.380000e+00
  SN6d  N5ar  1 4.300000e-01    3.590000e+00
  SN5d  N5ar  1 4.300000e-01    3.380000e+00
  SP6d  N6ar  1 4.300000e-01    3.590000e+00
  SP5d  N6ar  1 4.300000e-01    3.380000e+00
  SP4d  N6ar  1 4.300000e-01    3.380000e+00
  SP3d  N6ar  1 4.300000e-01    3.380000e+00
  SP2d  N6ar  1 4.300000e-01    3.590000e+00
  SP1d  N6ar  1 4.300000e-01    3.590000e+00
  SN6d  N6ar  1 4.300000e-01    3.590000e+00
  SP6d  P1ar  1 4.300000e-01    3.770000e+00
  SP5d  P1ar  1 4.300000e-01    3.590000e+00
  SP4d  P1ar  1 4.300000e-01    3.590000e+00
  SP3d  P1ar  1 4.300000e-01    3.590000e+00
  SP2d  P1ar  1 4.300000e-01    3.590000e+00
  SP1d  P1ar  1 4.300000e-01    3.590000e+00
  SP6d  P2ar  1 4.300000e-01    3.970000e+00
  SP5d  P2ar  1 4.300000e-01    3.770000e+00
  SP4d  P2ar  1 4.300000e-01    3.770000e+00
  SP3d  P2ar  1 4.300000e-01    3.770000e+00
  SP2d  P2ar  1 4.300000e-01    3.770000e+00
  SP6d  P3ar  1 4.300000e-01    3.970000e+00
  SP5d  P3ar  1 4.300000e-01    3.770000e+00
  SP4d  P3ar  1 4.300000e-01    3.770000e+00
  SP3d  P3ar  1 4.300000e-01    3.770000e+00
  SP6d  P4ar  1 4.300000e-01    4.170000e+00
  SP5d  P4ar  1 4.300000e-01    3.970000e+00
  SP4d  P4ar  1 4.300000e-01    3.970000e+00
  SP6d  P5ar  1 4.300000e-01    4.400000e+00
  SP5d  P5ar  1 4.300000e-01    4.170000e+00
  SP6d  P6ar  1 4.300000e-01    4.680000e+00
  P6dq  SP6a  1 4.300000e-01    5.510000e+00
  P6dq  SP5a  1 4.300000e-01    4.920000e+00
  P6dq  SP4a  1 4.300000e-01    4.680000e+00
  P6dq  SP3a  1 4.300000e-01    4.400000e+00
  P6dq  SP2a  1 4.300000e-01    4.400000e+00
  P6dq  SP1a  1 4.300000e-01    4.170000e+00
  P6dq  SN6a  1 4.300000e-01    3.970000e+00
  P6dq  SN5a  1 4.300000e-01    3.590000e+00
  P6dq  SN4a  1 4.300000e-01    3.380000e+00
  P6dq  SN3a  1 4.300000e-01    2.930000e+00
  P6dq  SN2a  1 4.300000e-01    2.920000e+00
  P6dq  SN1a  1 4.300000e-01    2.770000e+00
  P5dq  SP5a  1 4.300000e-01    4.680000e+00
  P5dq  SP4a  1 4.300000e-01    4.400000e+00
  P5dq  SP3a  1 4.300000e-01    4.170000e+00
  P5dq  SP2a  1 4.300000e-01    4.170000e+00
  P5dq  SP1a  1 4.300000e-01    3.970000e+00
  P5dq  SN6a  1 4.300000e-01    3.770000e+00
  P5dq  SN5a  1 4.300000e-01    3.590000e+00
  P5dq  SN4a  1 4.300000e-01    3.590000e+00
  P5dq  SN3a  1 4.300000e-01    2.930000e+00
  P5dq  SN2a  1 4.300000e-01    2.920000e+00
  P5dq  SN1a  1 4.300000e-01    2.770000e+00
  P4dq  SP4a  1 4.300000e-01    4.400000e+00
  P4dq  SP3a  1 4.300000e-01    4.170000e+00
  P4dq  SP2a  1 4.300000e-01    4.170000e+00
  P4dq  SP1a  1 4.300000e-01    3.970000e+00
  P4dq  SN6a  1 4.300000e-01    3.770000e+00
  P4dq  SN5a  1 4.300000e-01    3.590000e+00
  P4dq  SN4a  1 4.300000e-01    3.590000e+00
  P4dq  SN3a  1 4.300000e-01    3.380000e+00
  P4dq  SN2a  1 4.300000e-01    2.930000e+00
  P4dq  SN1a  1 4.300000e-01    2.920000e+00
  P3dq  SP3a  1 4.300000e-01    4.170000e+00
  P3dq  SP2a  1 4.300000e-01    4.170000e+00
  P3dq  SP1a  1 4.300000e-01    3.970000e+00
  P3dq  SN6a  1 4.300000e-01    3.770000e+00
  P3dq  SN5a  1 4.300000e-01    3.590000e+00
  P3dq  SN4a  1 4.300000e-01    3.590000e+00
  P3dq  SN3a  1 4.300000e-01    3.380000e+00
  P3dq  SN2a  1 4.300000e-01    3.380000e+00
  P3dq  SN1a  1 4.300000e-01    2.930000e+00
  P2dq  SP2a  1 4.300000e-01    4.170000e+00
  P2dq  SP1a  1 4.300000e-01    3.970000e+00
  P2dq  SN6a  1 4.300000e-01    3.970000e+00
  P2dq  SN5a  1 4.300000e-01    3.770000e+00
  P2dq  SN4a  1 4.300000e-01    3.590000e+00
  P2dq  SN3a  1 4.300000e-01    3.380000e+00
  P2dq  SN2a  1 4.300000e-01    3.380000e+00
  P2dq  SN1a  1 4.300000e-01    3.380000e+00
  P1dq  SP1a  1 4.300000e-01    3.970000e+00
  P1dq  SN6a  1 4.300000e-01    3.970000e+00
  P1dq  SN5a  1 4.300000e-01    3.770000e+00
  P1dq  SN4a  1 4.300000e-01    3.770000e+00
  P1dq  SN3a  1 4.300000e-01    3.380000e+00
  P1dq  SN2a  1 4.300000e-01    3.380000e+00
  P1dq  SN1a  1 4.300000e-01    3.380000e+00
  N6dq  SN6a  1 4.300000e-01    3.970000e+00
  N6dq  SN5a  1 4.300000e-01    3.970000e+00
  N6dq  SN4a  1 4.300000e-01    3.970000e+00
  N6dq  SN3a  1 4.300000e-01    3.590000e+00
  N6dq  SN2a  1 4.300000e-01    3.380000e+00
  N6dq  SN1a  1 4.300000e-01    3.380000e+00
  N5dq  SN5a  1 4.300000e-01    3.770000e+00
  N5dq  SN4a  1 4.300000e-01    3.770000e+00
  N5dq  SN3a  1 4.300000e-01    3.590000e+00
  N5dq  SN2a  1 4.300000e-01    3.590000e+00
  N5dq  SN1a  1 4.300000e-01    3.380000e+00
  N4dq  SN4a  1 4.300000e-01    3.770000e+00
  N4dq  SN3a  1 4.300000e-01    3.590000e+00
  N4dq  SN2a  1 4.300000e-01    3.590000e+00
  N4dq  SN1a  1 4.300000e-01    3.380000e+00
  N3dq  SN3a  1 4.300000e-01    3.590000e+00
  N3dq  SN2a  1 4.300000e-01    3.590000e+00
  N3dq  SN1a  1 4.300000e-01    3.380000e+00
  N2dq  SN2a  1 4.300000e-01    3.590000e+00
  N2dq  SN1a  1 4.300000e-01    3.380000e+00
  N1dq  SN1a  1 4.300000e-01    3.590000e+00
 SP6dq   P6a  1 4.300000e-01    5.510000e+00
 SP6dq   P5a  1 4.300000e-01    4.920000e+00
 SP6dq   P4a  1 4.300000e-01    4.680000e+00
 SP6dq   P3a  1 4.300000e-01    4.400000e+00
 SP6dq   P2a  1 4.300000e-01    4.400000e+00
 SP6dq   P1a  1 4.300000e-01    4.170000e+00
 SP6dq   N6a  1 4.300000e-01    3.970000e+00
 SP6dq   N5a  1 4.300000e-01    3.590000e+00
 SP6dq   N4a  1 4.300000e-01    3.380000e+00
 SP6dq   N3a  1 4.300000e-01    2.930000e+00
 SP6dq   N2a  1 4.300000e-01    2.920000e+00
 SP6dq   N1a  1 4.300000e-01    2.770000e+00
 SP5dq   P5a  1 4.300000e-01    4.680000e+00
 SP5dq   P4a  1 4.300000e-01    4.400000e+00
 SP5dq   P3a  1 4.300000e-01    4.170000e+00
 SP5dq   P2a  1 4.300000e-01    4.170000e+00
 SP5dq   P1a  1 4.300000e-01    3.970000e+00
 SP5dq   N6a  1 4.300000e-01    3.770000e+00
 SP5dq   N5a  1 4.300000e-01    3.590000e+00
 SP5dq   N4a  1 4.300000e-01    3.590000e+00
 SP5dq   N3a  1 4.300000e-01    2.930000e+00
 SP5dq   N2a  1 4.300000e-01    2.920000e+00
 SP5dq   N1a  1 4.300000e-01    2.770000e+00
 SP4dq   P4a  1 4.300000e-01    4.400000e+00
 SP4dq   P3a  1 4.300000e-01    4.170000e+00
 SP4dq   P2a  1 4.300000e-01    4.170000e+00
 SP4dq   P1a  1 4.300000e-01    3.970000e+00
 SP4dq   N6a  1 4.300000e-01    3.770000e+00
 SP4dq   N5a  1 4.300000e-01    3.590000e+00
 SP4dq   N4a  1 4.300000e-01    3.590000e+00
 SP4dq   N3a  1 4.300000e-01    3.380000e+00
 SP4dq   N2a  1 4.300000e-01    2.930000e+00
 SP4dq   N1a  1 4.300000e-01    2.920000e+00
 SP3dq   P3a  1 4.300000e-01    4.170000e+00
 SP3dq   P2a  1 4.300000e-01    4.170000e+00
 SP3dq   P1a  1 4.300000e-01    3.970000e+00
 SP3dq   N6a  1 4.300000e-01    3.770000e+00
 SP3dq   N5a  1 4.300000e-01    3.590000e+00
 SP3dq   N4a  1 4.300000e-01    3.590000e+00
 SP3dq   N3a  1 4.300000e-01    3.380000e+00
 SP3dq   N2a  1 4.300000e-01    3.380000e+00
 SP3dq   N1a  1 4.300000e-01    2.930000e+00
 SP2dq   P2a  1 4.300000e-01    4.170000e+00
 SP2dq   P1a  1 4.300000e-01    3.970000e+00
 SP2dq   N6a  1 4.300000e-01    3.970000e+00
 SP2dq   N5a  1 4.300000e-01    3.770000e+00
 SP2dq   N4a  1 4.300000e-01    3.590000e+00
 SP2dq   N3a  1 4.300000e-01    3.380000e+00
 SP2dq   N2a  1 4.300000e-01    3.380000e+00
 SP2dq   N1a  1 4.300000e-01    3.380000e+00
 SP1dq   P1a  1 4.300000e-01    3.970000e+00
 SP1dq   N6a  1 4.300000e-01    3.970000e+00
 SP1dq   N5a  1 4.300000e-01    3.770000e+00
 SP1dq   N4a  1 4.300000e-01    3.770000e+00
 SP1dq   N3a  1 4.300000e-01    3.380000e+00
 SP1dq   N2a  1 4.300000e-01    3.380000e+00
 SP1dq   N1a  1 4.300000e-01    3.380000e+00
 SN6dq   N6a  1 4.300000e-01    3.970000e+00
 SN6dq   N5a  1 4.300000e-01    3.970000e+00
 SN6dq   N4a  1 4.300000e-01    3.970000e+00
 SN6dq   N3a  1 4.300000e-01    3.590000e+00
 SN6dq   N2a  1 4.300000e-01    3.380000e+00
 SN6dq   N1a  1 4.300000e-01    3.380000e+00
 SN5dq   N5a  1 4.300000e-01    3.770000e+00
 SN5dq   N4a  1 4.300000e-01    3.770000e+00
 SN5dq   N3a  1 4.300000e-01    3.590000e+00
 SN5dq   N2a  1 4.300000e-01    3.590000e+00
 SN5dq   N1a  1 4.300000e-01    3.380000e+00
 SN4dq   N4a  1 4.300000e-01    3.770000e+00
 SN4dq   N3a  1 4.300000e-01    3.590000e+00
 SN4dq   N2a  1 4.300000e-01    3.590000e+00
 SN4dq   N1a  1 4.300000e-01    3.380000e+00
 SN3dq   N3a  1 4.300000e-01    3.590000e+00
 SN3dq   N2a  1 4.300000e-01    3.590000e+00
 SN3dq   N1a  1 4.300000e-01    3.380000e+00
 SN2dq   N2a  1 4.300000e-01    3.590000e+00
 SN2dq   N1a  1 4.300000e-01    3.380000e+00
 SN1dq   N1a  1 4.300000e-01    3.590000e+00
  P6dq SP6aq  1 4.300000e-01    5.510000e+00
  P6dq SP5aq  1 4.300000e-01    4.920000e+00
  P6dq SP4aq  1 4.300000e-01    4.680000e+00
  P6dq SP3aq  1 4.300000e-01    4.400000e+00
  P6dq SP2aq  1 4.300000e-01    4.400000e+00
  P6dq SP1aq  1 4.300000e-01    4.170000e+00
  P6dq SN6aq  1 4.300000e-01    3.970000e+00
  P6dq SN5aq  1 4.300000e-01    3.590000e+00
  P6dq SN4aq  1 4.300000e-01    3.380000e+00
  P6dq SN3aq  1 4.300000e-01    2.930000e+00
  P6dq SN2aq  1 4.300000e-01    2.920000e+00
  P6dq SN1aq  1 4.300000e-01    2.770000e+00
  P5dq SP5aq  1 4.300000e-01    4.680000e+00
  P5dq SP4aq  1 4.300000e-01    4.400000e+00
  P5dq SP3aq  1 4.300000e-01    4.170000e+00
  P5dq SP2aq  1 4.300000e-01    4.170000e+00
  P5dq SP1aq  1 4.300000e-01    3.970000e+00
  P5dq SN6aq  1 4.300000e-01    3.770000e+00
  P5dq SN5aq  1 4.300000e-01    3.590000e+00
  P5dq SN4aq  1 4.300000e-01    3.590000e+00
  P5dq SN3aq  1 4.300000e-01    2.930000e+00
  P5dq SN2aq  1 4.300000e-01    2.920000e+00
  P5dq SN1aq  1 4.300000e-01    2.770000e+00
  P4dq SP4aq  1 4.300000e-01    4.400000e+00
  P4dq SP3aq  1 4.300000e-01    4.170000e+00
  P4dq SP2aq  1 4.300000e-01    4.170000e+00
  P4dq SP1aq  1 4.300000e-01    3.970000e+00
  P4dq SN6aq  1 4.300000e-01    3.770000e+00
  P4dq SN5aq  1 4.300000e-01    3.590000e+00
  P4dq SN4aq  1 4.300000e-01    3.590000e+00
  P4dq SN3aq  1 4.300000e-01    3.380000e+00
  P4dq SN2aq  1 4.300000e-01    2.930000e+00
  P4dq SN1aq  1 4.300000e-01    2.920000e+00
  P3dq SP3aq  1 4.300000e-01    4.170000e+00
  P3dq SP2aq  1 4.300000e-01    4.170000e+00
  P3dq SP1aq  1 4.300000e-01    3.970000e+00
  P3dq SN6aq  1 4.300000e-01    3.770000e+00
  P3dq SN5aq  1 4.300000e-01    3.590000e+00
  P3dq SN4aq  1 4.300000e-01    3.590000e+00
  P3dq SN3aq  1 4.300000e-01    3.380000e+00
  P3dq SN2aq  1 4.300000e-01    3.380000e+00
  P3dq SN1aq  1 4.300000e-01    2.930000e+00
  P2dq SP2aq  1 4.300000e-01    4.170000e+00
  P2dq SP1aq  1 4.300000e-01    3.970000e+00
  P2dq SN6aq  1 4.300000e-01    3.970000e+00
  P2dq SN5aq  1 4.300000e-01    3.770000e+00
  P2dq SN4aq  1 4.300000e-01    3.590000e+00
  P2dq SN3aq  1 4.300000e-01    3.380000e+00
  P2dq SN2aq  1 4.300000e-01    3.380000e+00
  P2dq SN1aq  1 4.300000e-01    3.380000e+00
  P1dq SP1aq  1 4.300000e-01    3.970000e+00
  P1dq SN6aq  1 4.300000e-01    3.970000e+00
  P1dq SN5aq  1 4.300000e-01    3.770000e+00
  P1dq SN4aq  1 4.300000e-01    3.770000e+00
  P1dq SN3aq  1 4.300000e-01    3.380000e+00
  P1dq SN2aq  1 4.300000e-01    3.380000e+00
  P1dq SN1aq  1 4.300000e-01    3.380000e+00
  N6dq SN6aq  1 4.300000e-01    3.970000e+00
  N6dq SN5aq  1 4.300000e-01    3.970000e+00
  N6dq SN4aq  1 4.300000e-01    3.970000e+00
  N6dq SN3aq  1 4.300000e-01    3.590000e+00
  N6dq SN2aq  1 4.300000e-01    3.380000e+00
  N6dq SN1aq  1 4.300000e-01    3.380000e+00
  N5dq SN5aq  1 4.300000e-01    3.770000e+00
  N5dq SN4aq  1 4.300000e-01    3.770000e+00
  N5dq SN3aq  1 4.300000e-01    3.590000e+00
  N5dq SN2aq  1 4.300000e-01    3.590000e+00
  N5dq SN1aq  1 4.300000e-01    3.380000e+00
  N4dq SN4aq  1 4.300000e-01    3.770000e+00
  N4dq SN3aq  1 4.300000e-01    3.590000e+00
  N4dq SN2aq  1 4.300000e-01    3.590000e+00
  N4dq SN1aq  1 4.300000e-01    3.380000e+00
  N3dq SN3aq  1 4.300000e-01    3.590000e+00
  N3dq SN2aq  1 4.300000e-01    3.590000e+00
  N3dq SN1aq  1 4.300000e-01    3.380000e+00
  N2dq SN2aq  1 4.300000e-01    3.590000e+00
  N2dq SN1aq  1 4.300000e-01    3.380000e+00
  N1dq SN1aq  1 4.300000e-01    3.590000e+00
 SP6dq  P6aq  1 4.300000e-01    5.510000e+00
 SP6dq  P5aq  1 4.300000e-01    4.920000e+00
 SP6dq  P4aq  1 4.300000e-01    4.680000e+00
 SP6dq  P3aq  1 4.300000e-01    4.400000e+00
 SP6dq  P2aq  1 4.300000e-01    4.400000e+00
 SP6dq  P1aq  1 4.300000e-01    4.170000e+00
 SP6dq  N6aq  1 4.300000e-01    3.970000e+00
 SP6dq  N5aq  1 4.300000e-01    3.590000e+00
 SP6dq  N4aq  1 4.300000e-01    3.380000e+00
 SP6dq  N3aq  1 4.300000e-01    2.930000e+00
 SP6dq  N2aq  1 4.300000e-01    2.920000e+00
 SP6dq  N1aq  1 4.300000e-01    2.770000e+00
 SP5dq  P5aq  1 4.300000e-01    4.680000e+00
 SP5dq  P4aq  1 4.300000e-01    4.400000e+00
 SP5dq  P3aq  1 4.300000e-01    4.170000e+00
 SP5dq  P2aq  1 4.300000e-01    4.170000e+00
 SP5dq  P1aq  1 4.300000e-01    3.970000e+00
 SP5dq  N6aq  1 4.300000e-01    3.770000e+00
 SP5dq  N5aq  1 4.300000e-01    3.590000e+00
 SP5dq  N4aq  1 4.300000e-01    3.590000e+00
 SP5dq  N3aq  1 4.300000e-01    2.930000e+00
 SP5dq  N2aq  1 4.300000e-01    2.920000e+00
 SP5dq  N1aq  1 4.300000e-01    2.770000e+00
 SP4dq  P4aq  1 4.300000e-01    4.400000e+00
 SP4dq  P3aq  1 4.300000e-01    4.170000e+00
 SP4dq  P2aq  1 4.300000e-01    4.170000e+00
 SP4dq  P1aq  1 4.300000e-01    3.970000e+00
 SP4dq  N6aq  1 4.300000e-01    3.770000e+00
 SP4dq  N5aq  1 4.300000e-01    3.590000e+00
 SP4dq  N4aq  1 4.300000e-01    3.590000e+00
 SP4dq  N3aq  1 4.300000e-01    3.380000e+00
 SP4dq  N2aq  1 4.300000e-01    2.930000e+00
 SP4dq  N1aq  1 4.300000e-01    2.920000e+00
 SP3dq  P3aq  1 4.300000e-01    4.170000e+00
 SP3dq  P2aq  1 4.300000e-01    4.170000e+00
 SP3dq  P1aq  1 4.300000e-01    3.970000e+00
 SP3dq  N6aq  1 4.300000e-01    3.770000e+00
 SP3dq  N5aq  1 4.300000e-01    3.590000e+00
 SP3dq  N4aq  1 4.300000e-01    3.590000e+00
 SP3dq  N3aq  1 4.300000e-01    3.380000e+00
 SP3dq  N2aq  1 4.300000e-01    3.380000e+00
 SP3dq  N1aq  1 4.300000e-01    2.930000e+00
 SP2dq  P2aq  1 4.300000e-01    4.170000e+00
 SP2dq  P1aq  1 4.300000e-01    3.970000e+00
 SP2dq  N6aq  1 4.300000e-01    3.970000e+00
 SP2dq  N5aq  1 4.300000e-01    3.770000e+00
 SP2dq  N4aq  1 4.300000e-01    3.590000e+00
 SP2dq  N3aq  1 4.300000e-01    3.380000e+00
 SP2dq  N2aq  1 4.300000e-01    3.380000e+00
 SP2dq  N1aq  1 4.300000e-01    3.380000e+00
 SP1dq  P1aq  1 4.300000e-01    3.970000e+00
 SP1dq  N6aq  1 4.300000e-01    3.970000e+00
 SP1dq  N5aq  1 4.300000e-01    3.770000e+00
 SP1dq  N4aq  1 4.300000e-01    3.770000e+00
 SP1dq  N3aq  1 4.300000e-01    3.380000e+00
 SP1dq  N2aq  1 4.300000e-01    3.380000e+00
 SP1dq  N1aq  1 4.300000e-01    3.380000e+00
 SN6dq  N6aq  1 4.300000e-01    3.970000e+00
 SN6dq  N5aq  1 4.300000e-01    3.970000e+00
 SN6dq  N4aq  1 4.300000e-01    3.970000e+00
 SN6dq  N3aq  1 4.300000e-01    3.590000e+00
 SN6dq  N2aq  1 4.300000e-01    3.380000e+00
 SN6dq  N1aq  1 4.300000e-01    3.380000e+00
 SN5dq  N5aq  1 4.300000e-01    3.770000e+00
 SN5dq  N4aq  1 4.300000e-01    3.770000e+00
 SN5dq  N3aq  1 4.300000e-01    3.590000e+00
 SN5dq  N2aq  1 4.300000e-01    3.590000e+00
 SN5dq  N1aq  1 4.300000e-01    3.380000e+00
 SN4dq  N4aq  1 4.300000e-01    3.770000e+00
 SN4dq  N3aq  1 4.300000e-01    3.590000e+00
 SN4dq  N2aq  1 4.300000e-01    3.590000e+00
 SN4dq  N1aq  1 4.300000e-01    3.380000e+00
 SN3dq  N3aq  1 4.300000e-01    3.590000e+00
 SN3dq  N2aq  1 4.300000e-01    3.590000e+00
 SN3dq  N1aq  1 4.300000e-01    3.380000e+00
 SN2dq  N2aq  1 4.300000e-01    3.590000e+00
 SN2dq  N1aq  1 4.300000e-01    3.380000e+00
 SN1dq  N1aq  1 4.300000e-01    3.590000e+00
  P6dq SP6ah  1 4.300000e-01    5.510000e+00
  P6dq SP5ah  1 4.300000e-01    4.920000e+00
  P5dq SP5ah  1 4.300000e-01    4.680000e+00
  P6dq SP4ah  1 4.300000e-01    4.680000e+00
  P5dq SP4ah  1 4.300000e-01    4.400000e+00
  P4dq SP4ah  1 4.300000e-01    4.400000e+00
  P6dq SP3ah  1 4.300000e-01    4.400000e+00
  P5dq SP3ah  1 4.300000e-01    4.170000e+00
  P4dq SP3ah  1 4.300000e-01    4.170000e+00
  P3dq SP3ah  1 4.300000e-01    4.170000e+00
  P6dq SP2ah  1 4.300000e-01    4.400000e+00
  P5dq SP2ah  1 4.300000e-01    4.170000e+00
  P4dq SP2ah  1 4.300000e-01    4.170000e+00
  P3dq SP2ah  1 4.300000e-01    4.170000e+00
  P2dq SP2ah  1 4.300000e-01    4.170000e+00
  P6dq SP1ah  1 4.300000e-01    4.170000e+00
  P5dq SP1ah  1 4.300000e-01    3.970000e+00
  P4dq SP1ah  1 4.300000e-01    3.970000e+00
  P3dq SP1ah  1 4.300000e-01    3.970000e+00
  P2dq SP1ah  1 4.300000e-01    3.970000e+00
  P1dq SP1ah  1 4.300000e-01    3.970000e+00
  P6dq SN6ah  1 4.300000e-01    3.970000e+00
  P5dq SN6ah  1 4.300000e-01    3.770000e+00
  P4dq SN6ah  1 4.300000e-01    3.770000e+00
  P3dq SN6ah  1 4.300000e-01    3.770000e+00
  P2dq SN6ah  1 4.300000e-01    3.970000e+00
  P1dq SN6ah  1 4.300000e-01    3.970000e+00
  N6dq SN6ah  1 4.300000e-01    3.970000e+00
  P6dq SN5ah  1 4.300000e-01    3.590000e+00
  P5dq SN5ah  1 4.300000e-01    3.590000e+00
  P4dq SN5ah  1 4.300000e-01    3.590000e+00
  P3dq SN5ah  1 4.300000e-01    3.590000e+00
  P2dq SN5ah  1 4.300000e-01    3.770000e+00
  P1dq SN5ah  1 4.300000e-01    3.770000e+00
  N6dq SN5ah  1 4.300000e-01    3.970000e+00
  N5dq SN5ah  1 4.300000e-01    3.770000e+00
  P6dq SN4ah  1 4.300000e-01    3.380000e+00
  P5dq SN4ah  1 4.300000e-01    3.590000e+00
  P4dq SN4ah  1 4.300000e-01    3.590000e+00
  P3dq SN4ah  1 4.300000e-01    3.590000e+00
  P2dq SN4ah  1 4.300000e-01    3.590000e+00
  P1dq SN4ah  1 4.300000e-01    3.770000e+00
  N6dq SN4ah  1 4.300000e-01    3.970000e+00
  N5dq SN4ah  1 4.300000e-01    3.770000e+00
  N4dq SN4ah  1 4.300000e-01    3.770000e+00
  P6dq SN3ah  1 4.300000e-01    2.930000e+00
  P5dq SN3ah  1 4.300000e-01    2.930000e+00
  P4dq SN3ah  1 4.300000e-01    3.380000e+00
  P3dq SN3ah  1 4.300000e-01    3.380000e+00
  P2dq SN3ah  1 4.300000e-01    3.380000e+00
  P1dq SN3ah  1 4.300000e-01    3.380000e+00
  N6dq SN3ah  1 4.300000e-01    3.590000e+00
  N5dq SN3ah  1 4.300000e-01    3.590000e+00
  N4dq SN3ah  1 4.300000e-01    3.590000e+00
  N3dq SN3ah  1 4.300000e-01    3.590000e+00
  P6dq SN2ah  1 4.300000e-01    2.920000e+00
  P5dq SN2ah  1 4.300000e-01    2.920000e+00
  P4dq SN2ah  1 4.300000e-01    2.930000e+00
  P3dq SN2ah  1 4.300000e-01    3.380000e+00
  P2dq SN2ah  1 4.300000e-01    3.380000e+00
  P1dq SN2ah  1 4.300000e-01    3.380000e+00
  N6dq SN2ah  1 4.300000e-01    3.380000e+00
  N5dq SN2ah  1 4.300000e-01    3.590000e+00
  N4dq SN2ah  1 4.300000e-01    3.590000e+00
  N3dq SN2ah  1 4.300000e-01    3.590000e+00
  N2dq SN2ah  1 4.300000e-01    3.590000e+00
  P6dq SN1ah  1 4.300000e-01    2.770000e+00
  P5dq SN1ah  1 4.300000e-01    2.770000e+00
  P4dq SN1ah  1 4.300000e-01    2.920000e+00
  P3dq SN1ah  1 4.300000e-01    2.930000e+00
  P2dq SN1ah  1 4.300000e-01    3.380000e+00
  P1dq SN1ah  1 4.300000e-01    3.380000e+00
  N6dq SN1ah  1 4.300000e-01    3.380000e+00
  N5dq SN1ah  1 4.300000e-01    3.380000e+00
  N4dq SN1ah  1 4.300000e-01    3.380000e+00
  N3dq SN1ah  1 4.300000e-01    3.380000e+00
  N2dq SN1ah  1 4.300000e-01    3.380000e+00
  N1dq SN1ah  1 4.300000e-01    3.590000e+00
 SP6dq  P6ah  1 4.300000e-01    5.510000e+00
 SP6dq  P5ah  1 4.300000e-01    4.920000e+00
 SP5dq  P5ah  1 4.300000e-01    4.680000e+00
 SP6dq  P4ah  1 4.300000e-01    4.680000e+00
 SP5dq  P4ah  1 4.300000e-01    4.400000e+00
 SP4dq  P4ah  1 4.300000e-01    4.400000e+00
 SP6dq  P3ah  1 4.300000e-01    4.400000e+00
 SP5dq  P3ah  1 4.300000e-01    4.170000e+00
 SP4dq  P3ah  1 4.300000e-01    4.170000e+00
 SP3dq  P3ah  1 4.300000e-01    4.170000e+00
 SP6dq  P2ah  1 4.300000e-01    4.400000e+00
 SP5dq  P2ah  1 4.300000e-01    4.170000e+00
 SP4dq  P2ah  1 4.300000e-01    4.170000e+00
 SP3dq  P2ah  1 4.300000e-01    4.170000e+00
 SP2dq  P2ah  1 4.300000e-01    4.170000e+00
 SP6dq  P1ah  1 4.300000e-01    4.170000e+00
 SP5dq  P1ah  1 4.300000e-01    3.970000e+00
 SP4dq  P1ah  1 4.300000e-01    3.970000e+00
 SP3dq  P1ah  1 4.300000e-01    3.970000e+00
 SP2dq  P1ah  1 4.300000e-01    3.970000e+00
 SP1dq  P1ah  1 4.300000e-01    3.970000e+00
 SP6dq  N6ah  1 4.300000e-01    3.970000e+00
 SP5dq  N6ah  1 4.300000e-01    3.770000e+00
 SP4dq  N6ah  1 4.300000e-01    3.770000e+00
 SP3dq  N6ah  1 4.300000e-01    3.770000e+00
 SP2dq  N6ah  1 4.300000e-01    3.970000e+00
 SP1dq  N6ah  1 4.300000e-01    3.970000e+00
 SN6dq  N6ah  1 4.300000e-01    3.970000e+00
 SP6dq  N5ah  1 4.300000e-01    3.590000e+00
 SP5dq  N5ah  1 4.300000e-01    3.590000e+00
 SP4dq  N5ah  1 4.300000e-01    3.590000e+00
 SP3dq  N5ah  1 4.300000e-01    3.590000e+00
 SP2dq  N5ah  1 4.300000e-01    3.770000e+00
 SP1dq  N5ah  1 4.300000e-01    3.770000e+00
 SN6dq  N5ah  1 4.300000e-01    3.970000e+00
 SN5dq  N5ah  1 4.300000e-01    3.770000e+00
 SP6dq  N4ah  1 4.300000e-01    3.380000e+00
 SP5dq  N4ah  1 4.300000e-01    3.590000e+00
 SP4dq  N4ah  1 4.300000e-01    3.590000e+00
 SP3dq  N4ah  1 4.300000e-01    3.590000e+00
 SP2dq  N4ah  1 4.300000e-01    3.590000e+00
 SP1dq  N4ah  1 4.300000e-01    3.770000e+00
 SN6dq  N4ah  1 4.300000e-01    3.970000e+00
 SN5dq  N4ah  1 4.300000e-01    3.770000e+00
 SN4dq  N4ah  1 4.300000e-01    3.770000e+00
 SP6dq  N3ah  1 4.300000e-01    2.930000e+00
 SP5dq  N3ah  1 4.300000e-01    2.930000e+00
 SP4dq  N3ah  1 4.300000e-01    3.380000e+00
 SP3dq  N3ah  1 4.300000e-01    3.380000e+00
 SP2dq  N3ah  1 4.300000e-01    3.380000e+00
 SP1dq  N3ah  1 4.300000e-01    3.380000e+00
 SN6dq  N3ah  1 4.300000e-01    3.590000e+00
 SN5dq  N3ah  1 4.300000e-01    3.590000e+00
 SN4dq  N3ah  1 4.300000e-01    3.590000e+00
 SN3dq  N3ah  1 4.300000e-01    3.590000e+00
 SP6dq  N2ah  1 4.300000e-01    2.920000e+00
 SP5dq  N2ah  1 4.300000e-01    2.920000e+00
 SP4dq  N2ah  1 4.300000e-01    2.930000e+00
 SP3dq  N2ah  1 4.300000e-01    3.380000e+00
 SP2dq  N2ah  1 4.300000e-01    3.380000e+00
 SP1dq  N2ah  1 4.300000e-01    3.380000e+00
 SN6dq  N2ah  1 4.300000e-01    3.380000e+00
 SN5dq  N2ah  1 4.300000e-01    3.590000e+00
 SN4dq  N2ah  1 4.300000e-01    3.590000e+00
 SN3dq  N2ah  1 4.300000e-01    3.590000e+00
 SN2dq  N2ah  1 4.300000e-01    3.590000e+00
 SP6dq  N1ah  1 4.300000e-01    2.770000e+00
 SP5dq  N1ah  1 4.300000e-01    2.770000e+00
 SP4dq  N1ah  1 4.300000e-01    2.920000e+00
 SP3dq  N1ah  1 4.300000e-01    2.930000e+00
 SP2dq  N1ah  1 4.300000e-01    3.380000e+00
 SP1dq  N1ah  1 4.300000e-01    3.380000e+00
 SN6dq  N1ah  1 4.300000e-01    3.380000e+00
 SN5dq  N1ah  1 4.300000e-01    3.380000e+00
 SN4dq  N1ah  1 4.300000e-01    3.380000e+00
 SN3dq  N1ah  1 4.300000e-01    3.380000e+00
 SN2dq  N1ah  1 4.300000e-01    3.380000e+00
 SN1dq  N1ah  1 4.300000e-01    3.590000e+00
  P6dq SP6ar  1 4.300000e-01    5.510000e+00
  P6dq SP5ar  1 4.300000e-01    4.920000e+00
  P5dq SP5ar  1 4.300000e-01    4.680000e+00
  P6dq SP4ar  1 4.300000e-01    4.680000e+00
  P5dq SP4ar  1 4.300000e-01    4.400000e+00
  P4dq SP4ar  1 4.300000e-01    4.400000e+00
  P6dq SP3ar  1 4.300000e-01    4.400000e+00
  P5dq SP3ar  1 4.300000e-01    4.170000e+00
  P4dq SP3ar  1 4.300000e-01    4.170000e+00
  P3dq SP3ar  1 4.300000e-01    4.170000e+00
  P6dq SP2ar  1 4.300000e-01    4.400000e+00
  P5dq SP2ar  1 4.300000e-01    4.170000e+00
  P4dq SP2ar  1 4.300000e-01    4.170000e+00
  P3dq SP2ar  1 4.300000e-01    4.170000e+00
  P2dq SP2ar  1 4.300000e-01    4.170000e+00
  P6dq SP1ar  1 4.300000e-01    4.170000e+00
  P5dq SP1ar  1 4.300000e-01    3.970000e+00
  P4dq SP1ar  1 4.300000e-01    3.970000e+00
  P3dq SP1ar  1 4.300000e-01    3.970000e+00
  P2dq SP1ar  1 4.300000e-01    3.970000e+00
  P1dq SP1ar  1 4.300000e-01    3.970000e+00
  P6dq SN6ar  1 4.300000e-01    3.970000e+00
  P5dq SN6ar  1 4.300000e-01    3.770000e+00
  P4dq SN6ar  1 4.300000e-01    3.770000e+00
  P3dq SN6ar  1 4.300000e-01    3.770000e+00
  P2dq SN6ar  1 4.300000e-01    3.970000e+00
  P1dq SN6ar  1 4.300000e-01    3.970000e+00
  N6dq SN6ar  1 4.300000e-01    3.970000e+00
  P6dq SN5ar  1 4.300000e-01    3.590000e+00
  P5dq SN5ar  1 4.300000e-01    3.590000e+00
  P4dq SN5ar  1 4.300000e-01    3.590000e+00
  P3dq SN5ar  1 4.300000e-01    3.590000e+00
  P2dq SN5ar  1 4.300000e-01    3.770000e+00
  P1dq SN5ar  1 4.300000e-01    3.770000e+00
  N6dq SN5ar  1 4.300000e-01    3.970000e+00
  N5dq SN5ar  1 4.300000e-01    3.770000e+00
  P6dq SN4ar  1 4.300000e-01    3.380000e+00
  P5dq SN4ar  1 4.300000e-01    3.590000e+00
  P4dq SN4ar  1 4.300000e-01    3.590000e+00
  P3dq SN4ar  1 4.300000e-01    3.590000e+00
  P2dq SN4ar  1 4.300000e-01    3.590000e+00
  P1dq SN4ar  1 4.300000e-01    3.770000e+00
  N6dq SN4ar  1 4.300000e-01    3.970000e+00
  N5dq SN4ar  1 4.300000e-01    3.770000e+00
  N4dq SN4ar  1 4.300000e-01    3.770000e+00
  P6dq SN3ar  1 4.300000e-01    2.930000e+00
  P5dq SN3ar  1 4.300000e-01    2.930000e+00
  P4dq SN3ar  1 4.300000e-01    3.380000e+00
  P3dq SN3ar  1 4.300000e-01    3.380000e+00
  P2dq SN3ar  1 4.300000e-01    3.380000e+00
  P1dq SN3ar  1 4.300000e-01    3.380000e+00
  N6dq SN3ar  1 4.300000e-01    3.590000e+00
  N5dq SN3ar  1 4.300000e-01    3.590000e+00
  N4dq SN3ar  1 4.300000e-01    3.590000e+00
  N3dq SN3ar  1 4.300000e-01    3.590000e+00
  P6dq SN2ar  1 4.300000e-01    2.920000e+00
  P5dq SN2ar  1 4.300000e-01    2.920000e+00
  P4dq SN2ar  1 4.300000e-01    2.930000e+00
  P3dq SN2ar  1 4.300000e-01    3.380000e+00
  P2dq SN2ar  1 4.300000e-01    3.380000e+00
  P1dq SN2ar  1 4.300000e-01    3.380000e+00
  N6dq SN2ar  1 4.300000e-01    3.380000e+00
  N5dq SN2ar  1 4.300000e-01    3.590000e+00
  N4dq SN2ar  1 4.300000e-01    3.590000e+00
  N3dq SN2ar  1 4.300000e-01    3.590000e+00
  N2dq SN2ar  1 4.300000e-01    3.590000e+00
  P6dq SN1ar  1 4.300000e-01    2.770000e+00
  P5dq SN1ar  1 4.300000e-01    2.770000e+00
  P4dq SN1ar  1 4.300000e-01    2.920000e+00
  P3dq SN1ar  1 4.300000e-01    2.930000e+00
  P2dq SN1ar  1 4.300000e-01    3.380000e+00
  P1dq SN1ar  1 4.300000e-01    3.380000e+00
  N6dq SN1ar  1 4.300000e-01    3.380000e+00
  N5dq SN1ar  1 4.300000e-01    3.380000e+00
  N4dq SN1ar  1 4.300000e-01    3.380000e+00
  N3dq SN1ar  1 4.300000e-01    3.380000e+00
  N2dq SN1ar  1 4.300000e-01    3.380000e+00
  N1dq SN1ar  1 4.300000e-01    3.590000e+00
 SP6dq  P6ar  1 4.300000e-01    5.510000e+00
 SP6dq  P5ar  1 4.300000e-01    4.920000e+00
 SP5dq  P5ar  1 4.300000e-01    4.680000e+00
 SP6dq  P4ar  1 4.300000e-01    4.680000e+00
 SP5dq  P4ar  1 4.300000e-01    4.400000e+00
 SP4dq  P4ar  1 4.300000e-01    4.400000e+00
 SP6dq  P3ar  1 4.300000e-01    4.400000e+00
 SP5dq  P3ar  1 4.300000e-01    4.170000e+00
 SP4dq  P3ar  1 4.300000e-01    4.170000e+00
 SP3dq  P3ar  1 4.300000e-01    4.170000e+00
 SP6dq  P2ar  1 4.300000e-01    4.400000e+00
 SP5dq  P2ar  1 4.300000e-01    4.170000e+00
 SP4dq  P2ar  1 4.300000e-01    4.170000e+00
 SP3dq  P2ar  1 4.300000e-01    4.170000e+00
 SP2dq  P2ar  1 4.300000e-01    4.170000e+00
 SP6dq  P1ar  1 4.300000e-01    4.170000e+00
 SP5dq  P1ar  1 4.300000e-01    3.970000e+00
 SP4dq  P1ar  1 4.300000e-01    3.970000e+00
 SP3dq  P1ar  1 4.300000e-01    3.970000e+00
 SP2dq  P1ar  1 4.300000e-01    3.970000e+00
 SP1dq  P1ar  1 4.300000e-01    3.970000e+00
 SP6dq  N6ar  1 4.300000e-01    3.970000e+00
 SP5dq  N6ar  1 4.300000e-01    3.770000e+00
 SP4dq  N6ar  1 4.300000e-01    3.770000e+00
 SP3dq  N6ar  1 4.300000e-01    3.770000e+00
 SP2dq  N6ar  1 4.300000e-01    3.970000e+00
 SP1dq  N6ar  1 4.300000e-01    3.970000e+00
 SN6dq  N6ar  1 4.300000e-01    3.970000e+00
 SP6dq  N5ar  1 4.300000e-01    3.590000e+00
 SP5dq  N5ar  1 4.300000e-01    3.590000e+00
 SP4dq  N5ar  1 4.300000e-01    3.590000e+00
 SP3dq  N5ar  1 4.300000e-01    3.590000e+00
 SP2dq  N5ar  1 4.300000e-01    3.770000e+00
 SP1dq  N5ar  1 4.300000e-01    3.770000e+00
 SN6dq  N5ar  1 4.300000e-01    3.970000e+00
 SN5dq  N5ar  1 4.300000e-01    3.770000e+00
 SP6dq  N4ar  1 4.300000e-01    3.380000e+00
 SP5dq  N4ar  1 4.300000e-01    3.590000e+00
 SP4dq  N4ar  1 4.300000e-01    3.590000e+00
 SP3dq  N4ar  1 4.300000e-01    3.590000e+00
 SP2dq  N4ar  1 4.300000e-01    3.590000e+00
 SP1dq  N4ar  1 4.300000e-01    3.770000e+00
 SN6dq  N4ar  1 4.300000e-01    3.970000e+00
 SN5dq  N4ar  1 4.300000e-01    3.770000e+00
 SN4dq  N4ar  1 4.300000e-01    3.770000e+00
 SP6dq  N3ar  1 4.300000e-01    2.930000e+00
 SP5dq  N3ar  1 4.300000e-01    2.930000e+00
 SP4dq  N3ar  1 4.300000e-01    3.380000e+00
 SP3dq  N3ar  1 4.300000e-01    3.380000e+00
 SP2dq  N3ar  1 4.300000e-01    3.380000e+00
 SP1dq  N3ar  1 4.300000e-01    3.380000e+00
 SN6dq  N3ar  1 4.300000e-01    3.590000e+00
 SN5dq  N3ar  1 4.300000e-01    3.590000e+00
 SN4dq  N3ar  1 4.300000e-01    3.590000e+00
 SN3dq  N3ar  1 4.300000e-01    3.590000e+00
 SP6dq  N2ar  1 4.300000e-01    2.920000e+00
 SP5dq  N2ar  1 4.300000e-01    2.920000e+00
 SP4dq  N2ar  1 4.300000e-01    2.930000e+00
 SP3dq  N2ar  1 4.300000e-01    3.380000e+00
 SP2dq  N2ar  1 4.300000e-01    3.380000e+00
 SP1dq  N2ar  1 4.300000e-01    3.380000e+00
 SN6dq  N2ar  1 4.300000e-01    3.380000e+00
 SN5dq  N2ar  1 4.300000e-01    3.590000e+00
 SN4dq  N2ar  1 4.300000e-01    3.590000e+00
 SN3dq  N2ar  1 4.300000e-01    3.590000e+00
 SN2dq  N2ar  1 4.300000e-01    3.590000e+00
 SP6dq  N1ar  1 4.300000e-01    2.770000e+00
 SP5dq  N1ar  1 4.300000e-01    2.770000e+00
 SP4dq  N1ar  1 4.300000e-01    2.920000e+00
 SP3dq  N1ar  1 4.300000e-01    2.930000e+00
 SP2dq  N1ar  1 4.300000e-01    3.380000e+00
 SP1dq  N1ar  1 4.300000e-01    3.380000e+00
 SN6dq  N1ar  1 4.300000e-01    3.380000e+00
 SN5dq  N1ar  1 4.300000e-01    3.380000e+00
 SN4dq  N1ar  1 4.300000e-01    3.380000e+00
 SN3dq  N1ar  1 4.300000e-01    3.380000e+00
 SN2dq  N1ar  1 4.300000e-01    3.380000e+00
 SN1dq  N1ar  1 4.300000e-01    3.590000e+00
  P6dh  SP6a  1 4.300000e-01    4.680000e+00
  P6dh  SP5a  1 4.300000e-01    4.400000e+00
  P6dh  SP4a  1 4.300000e-01    4.170000e+00
  P6dh  SP3a  1 4.300000e-01    3.970000e+00
  P6dh  SP2a  1 4.300000e-01    3.970000e+00
  P6dh  SP1a  1 4.300000e-01    3.770000e+00
  P6dh  SN6a  1 4.300000e-01    3.590000e+00
  P6dh  SN5a  1 4.300000e-01    3.160000e+00
  P6dh  SN4a  1 4.300000e-01    2.930000e+00
  P6dh  SN3a  1 4.300000e-01    2.770000e+00
  P6dh  SN2a  1 4.300000e-01    2.530000e+00
  P6dh  SN1a  1 4.300000e-01    2.320000e+00
  P5dh  SP5a  1 4.300000e-01    4.170000e+00
  P5dh  SP4a  1 4.300000e-01    3.970000e+00
  P5dh  SP3a  1 4.300000e-01    3.770000e+00
  P5dh  SP2a  1 4.300000e-01    3.770000e+00
  P5dh  SP1a  1 4.300000e-01    3.590000e+00
  P5dh  SN6a  1 4.300000e-01    3.380000e+00
  P5dh  SN5a  1 4.300000e-01    3.160000e+00
  P5dh  SN4a  1 4.300000e-01    3.160000e+00
  P5dh  SN3a  1 4.300000e-01    2.770000e+00
  P5dh  SN2a  1 4.300000e-01    2.530000e+00
  P5dh  SN1a  1 4.300000e-01    2.320000e+00
  P4dh  SP4a  1 4.300000e-01    3.970000e+00
  P4dh  SP3a  1 4.300000e-01    3.770000e+00
  P4dh  SP2a  1 4.300000e-01    3.770000e+00
  P4dh  SP1a  1 4.300000e-01    3.590000e+00
  P4dh  SN6a  1 4.300000e-01    3.380000e+00
  P4dh  SN5a  1 4.300000e-01    3.160000e+00
  P4dh  SN4a  1 4.300000e-01    3.160000e+00
  P4dh  SN3a  1 4.300000e-01    2.930000e+00
  P4dh  SN2a  1 4.300000e-01    2.770000e+00
  P4dh  SN1a  1 4.300000e-01    2.530000e+00
  P3dh  SP3a  1 4.300000e-01    3.770000e+00
  P3dh  SP2a  1 4.300000e-01    3.770000e+00
  P3dh  SP1a  1 4.300000e-01    3.590000e+00
  P3dh  SN6a  1 4.300000e-01    3.380000e+00
  P3dh  SN5a  1 4.300000e-01    3.160000e+00
  P3dh  SN4a  1 4.300000e-01    3.160000e+00
  P3dh  SN3a  1 4.300000e-01    2.930000e+00
  P3dh  SN2a  1 4.300000e-01    2.930000e+00
  P3dh  SN1a  1 4.300000e-01    2.770000e+00
  P2dh  SP2a  1 4.300000e-01    3.770000e+00
  P2dh  SP1a  1 4.300000e-01    3.590000e+00
  P2dh  SN6a  1 4.300000e-01    3.590000e+00
  P2dh  SN5a  1 4.300000e-01    3.380000e+00
  P2dh  SN4a  1 4.300000e-01    3.160000e+00
  P2dh  SN3a  1 4.300000e-01    2.930000e+00
  P2dh  SN2a  1 4.300000e-01    2.930000e+00
  P2dh  SN1a  1 4.300000e-01    2.930000e+00
  P1dh  SP1a  1 4.300000e-01    3.590000e+00
  P1dh  SN6a  1 4.300000e-01    3.590000e+00
  P1dh  SN5a  1 4.300000e-01    3.380000e+00
  P1dh  SN4a  1 4.300000e-01    3.380000e+00
  P1dh  SN3a  1 4.300000e-01    2.930000e+00
  P1dh  SN2a  1 4.300000e-01    2.930000e+00
  P1dh  SN1a  1 4.300000e-01    2.930000e+00
  N6dh  SN6a  1 4.300000e-01    3.590000e+00
  N6dh  SN5a  1 4.300000e-01    3.590000e+00
  N6dh  SN4a  1 4.300000e-01    3.590000e+00
  N6dh  SN3a  1 4.300000e-01    3.160000e+00
  N6dh  SN2a  1 4.300000e-01    2.930000e+00
  N6dh  SN1a  1 4.300000e-01    2.930000e+00
  N5dh  SN5a  1 4.300000e-01    3.380000e+00
  N5dh  SN4a  1 4.300000e-01    3.380000e+00
  N5dh  SN3a  1 4.300000e-01    3.160000e+00
  N5dh  SN2a  1 4.300000e-01    3.160000e+00
  N5dh  SN1a  1 4.300000e-01    2.930000e+00
  N4dh  SN4a  1 4.300000e-01    3.380000e+00
  N4dh  SN3a  1 4.300000e-01    3.160000e+00
  N4dh  SN2a  1 4.300000e-01    3.160000e+00
  N4dh  SN1a  1 4.300000e-01    2.930000e+00
  N3dh  SN3a  1 4.300000e-01    3.160000e+00
  N3dh  SN2a  1 4.300000e-01    3.160000e+00
  N3dh  SN1a  1 4.300000e-01    2.930000e+00
  N2dh  SN2a  1 4.300000e-01    3.160000e+00
  N2dh  SN1a  1 4.300000e-01    2.930000e+00
  N1dh  SN1a  1 4.300000e-01    3.160000e+00
 SP6dh   P6a  1 4.300000e-01    4.680000e+00
 SP6dh   P5a  1 4.300000e-01    4.400000e+00
 SP6dh   P4a  1 4.300000e-01    4.170000e+00
 SP6dh   P3a  1 4.300000e-01    3.970000e+00
 SP6dh   P2a  1 4.300000e-01    3.970000e+00
 SP6dh   P1a  1 4.300000e-01    3.770000e+00
 SP6dh   N6a  1 4.300000e-01    3.590000e+00
 SP6dh   N5a  1 4.300000e-01    3.160000e+00
 SP6dh   N4a  1 4.300000e-01    2.930000e+00
 SP6dh   N3a  1 4.300000e-01    2.770000e+00
 SP6dh   N2a  1 4.300000e-01    2.530000e+00
 SP6dh   N1a  1 4.300000e-01    2.320000e+00
 SP5dh   P5a  1 4.300000e-01    4.170000e+00
 SP5dh   P4a  1 4.300000e-01    3.970000e+00
 SP5dh   P3a  1 4.300000e-01    3.770000e+00
 SP5dh   P2a  1 4.300000e-01    3.770000e+00
 SP5dh   P1a  1 4.300000e-01    3.590000e+00
 SP5dh   N6a  1 4.300000e-01    3.380000e+00
 SP5dh   N5a  1 4.300000e-01    3.160000e+00
 SP5dh   N4a  1 4.300000e-01    3.160000e+00
 SP5dh   N3a  1 4.300000e-01    2.770000e+00
 SP5dh   N2a  1 4.300000e-01    2.530000e+00
 SP5dh   N1a  1 4.300000e-01    2.320000e+00
 SP4dh   P4a  1 4.300000e-01    3.970000e+00
 SP4dh   P3a  1 4.300000e-01    3.770000e+00
 SP4dh   P2a  1 4.300000e-01    3.770000e+00
 SP4dh   P1a  1 4.300000e-01    3.590000e+00
 SP4dh   N6a  1 4.300000e-01    3.380000e+00
 SP4dh   N5a  1 4.300000e-01    3.160000e+00
 SP4dh   N4a  1 4.300000e-01    3.160000e+00
 SP4dh   N3a  1 4.300000e-01    2.930000e+00
 SP4dh   N2a  1 4.300000e-01    2.770000e+00
 SP4dh   N1a  1 4.300000e-01    2.530000e+00
 SP3dh   P3a  1 4.300000e-01    3.770000e+00
 SP3dh   P2a  1 4.300000e-01    3.770000e+00
 SP3dh   P1a  1 4.300000e-01    3.590000e+00
 SP3dh   N6a  1 4.300000e-01    3.380000e+00
 SP3dh   N5a  1 4.300000e-01    3.160000e+00
 SP3dh   N4a  1 4.300000e-01    3.160000e+00
 SP3dh   N3a  1 4.300000e-01    2.930000e+00
 SP3dh   N2a  1 4.300000e-01    2.930000e+00
 SP3dh   N1a  1 4.300000e-01    2.770000e+00
 SP2dh   P2a  1 4.300000e-01    3.770000e+00
 SP2dh   P1a  1 4.300000e-01    3.590000e+00
 SP2dh   N6a  1 4.300000e-01    3.590000e+00
 SP2dh   N5a  1 4.300000e-01    3.380000e+00
 SP2dh   N4a  1 4.300000e-01    3.160000e+00
 SP2dh   N3a  1 4.300000e-01    2.930000e+00
 SP2dh   N2a  1 4.300000e-01    2.930000e+00
 SP2dh   N1a  1 4.300000e-01    2.930000e+00
 SP1dh   P1a  1 4.300000e-01    3.590000e+00
 SP1dh   N6a  1 4.300000e-01    3.590000e+00
 SP1dh   N5a  1 4.300000e-01    3.380000e+00
 SP1dh   N4a  1 4.300000e-01    3.380000e+00
 SP1dh   N3a  1 4.300000e-01    2.930000e+00
 SP1dh   N2a  1 4.300000e-01    2.930000e+00
 SP1dh   N1a  1 4.300000e-01    2.930000e+00
 SN6dh   N6a  1 4.300000e-01    3.590000e+00
 SN6dh   N5a  1 4.300000e-01    3.590000e+00
 SN6dh   N4a  1 4.300000e-01    3.590000e+00
 SN6dh   N3a  1 4.300000e-01    3.160000e+00
 SN6dh   N2a  1 4.300000e-01    2.930000e+00
 SN6dh   N1a  1 4.300000e-01    2.930000e+00
 SN5dh   N5a  1 4.300000e-01    3.380000e+00
 SN5dh   N4a  1 4.300000e-01    3.380000e+00
 SN5dh   N3a  1 4.300000e-01    3.160000e+00
 SN5dh   N2a  1 4.300000e-01    3.160000e+00
 SN5dh   N1a  1 4.300000e-01    2.930000e+00
 SN4dh   N4a  1 4.300000e-01    3.380000e+00
 SN4dh   N3a  1 4.300000e-01    3.160000e+00
 SN4dh   N2a  1 4.300000e-01    3.160000e+00
 SN4dh   N1a  1 4.300000e-01    2.930000e+00
 SN3dh   N3a  1 4.300000e-01    3.160000e+00
 SN3dh   N2a  1 4.300000e-01    3.160000e+00
 SN3dh   N1a  1 4.300000e-01    2.930000e+00
 SN2dh   N2a  1 4.300000e-01    3.160000e+00
 SN2dh   N1a  1 4.300000e-01    2.930000e+00
 SN1dh   N1a  1 4.300000e-01    3.160000e+00
  P6dh SN1aq  1 4.300000e-01    2.770000e+00
  P6dh SN2aq  1 4.300000e-01    2.920000e+00
  P6dh SN3aq  1 4.300000e-01    2.930000e+00
  P6dh SN4aq  1 4.300000e-01    3.380000e+00
  P6dh SN5aq  1 4.300000e-01    3.590000e+00
  P6dh SN6aq  1 4.300000e-01    3.970000e+00
  P6dh SP1aq  1 4.300000e-01    4.170000e+00
  P6dh SP2aq  1 4.300000e-01    4.400000e+00
  P6dh SP3aq  1 4.300000e-01    4.400000e+00
  P6dh SP4aq  1 4.300000e-01    4.680000e+00
  P6dh SP5aq  1 4.300000e-01    4.920000e+00
  P6dh SP6aq  1 4.300000e-01    5.510000e+00
  P5dh SN1aq  1 4.300000e-01    2.770000e+00
  P5dh SN2aq  1 4.300000e-01    2.920000e+00
  P5dh SN3aq  1 4.300000e-01    2.930000e+00
  P5dh SN4aq  1 4.300000e-01    3.590000e+00
  P5dh SN5aq  1 4.300000e-01    3.590000e+00
  P5dh SN6aq  1 4.300000e-01    3.770000e+00
  P5dh SP1aq  1 4.300000e-01    3.970000e+00
  P5dh SP2aq  1 4.300000e-01    4.170000e+00
  P5dh SP3aq  1 4.300000e-01    4.170000e+00
  P5dh SP4aq  1 4.300000e-01    4.400000e+00
  P5dh SP5aq  1 4.300000e-01    4.680000e+00
  P4dh SN1aq  1 4.300000e-01    2.920000e+00
  P4dh SN2aq  1 4.300000e-01    2.930000e+00
  P4dh SN3aq  1 4.300000e-01    3.380000e+00
  P4dh SN4aq  1 4.300000e-01    3.590000e+00
  P4dh SN5aq  1 4.300000e-01    3.590000e+00
  P4dh SN6aq  1 4.300000e-01    3.770000e+00
  P4dh SP1aq  1 4.300000e-01    3.970000e+00
  P4dh SP2aq  1 4.300000e-01    4.170000e+00
  P4dh SP3aq  1 4.300000e-01    4.170000e+00
  P4dh SP4aq  1 4.300000e-01    4.400000e+00
  P3dh SN1aq  1 4.300000e-01    2.930000e+00
  P3dh SN2aq  1 4.300000e-01    3.380000e+00
  P3dh SN3aq  1 4.300000e-01    3.380000e+00
  P3dh SN4aq  1 4.300000e-01    3.590000e+00
  P3dh SN5aq  1 4.300000e-01    3.590000e+00
  P3dh SN6aq  1 4.300000e-01    3.770000e+00
  P3dh SP1aq  1 4.300000e-01    3.970000e+00
  P3dh SP2aq  1 4.300000e-01    4.170000e+00
  P3dh SP3aq  1 4.300000e-01    4.170000e+00
  P2dh SN1aq  1 4.300000e-01    3.380000e+00
  P2dh SN2aq  1 4.300000e-01    3.380000e+00
  P2dh SN3aq  1 4.300000e-01    3.380000e+00
  P2dh SN4aq  1 4.300000e-01    3.590000e+00
  P2dh SN5aq  1 4.300000e-01    3.770000e+00
  P2dh SN6aq  1 4.300000e-01    3.970000e+00
  P2dh SP1aq  1 4.300000e-01    3.970000e+00
  P2dh SP2aq  1 4.300000e-01    4.170000e+00
  P1dh SN1aq  1 4.300000e-01    3.380000e+00
  P1dh SN2aq  1 4.300000e-01    3.380000e+00
  P1dh SN3aq  1 4.300000e-01    3.380000e+00
  P1dh SN4aq  1 4.300000e-01    3.770000e+00
  P1dh SN5aq  1 4.300000e-01    3.770000e+00
  P1dh SN6aq  1 4.300000e-01    3.970000e+00
  P1dh SP1aq  1 4.300000e-01    3.970000e+00
  N6dh SN1aq  1 4.300000e-01    3.380000e+00
  N6dh SN2aq  1 4.300000e-01    3.380000e+00
  N6dh SN3aq  1 4.300000e-01    3.590000e+00
  N6dh SN4aq  1 4.300000e-01    3.970000e+00
  N6dh SN5aq  1 4.300000e-01    3.970000e+00
  N6dh SN6aq  1 4.300000e-01    3.970000e+00
  N5dh SN1aq  1 4.300000e-01    3.380000e+00
  N5dh SN2aq  1 4.300000e-01    3.590000e+00
  N5dh SN3aq  1 4.300000e-01    3.590000e+00
  N5dh SN4aq  1 4.300000e-01    3.770000e+00
  N5dh SN5aq  1 4.300000e-01    3.770000e+00
  N4dh SN1aq  1 4.300000e-01    3.380000e+00
  N4dh SN2aq  1 4.300000e-01    3.590000e+00
  N4dh SN3aq  1 4.300000e-01    3.590000e+00
  N4dh SN4aq  1 4.300000e-01    3.770000e+00
  N3dh SN1aq  1 4.300000e-01    3.380000e+00
  N3dh SN2aq  1 4.300000e-01    3.590000e+00
  N3dh SN3aq  1 4.300000e-01    3.590000e+00
  N2dh SN1aq  1 4.300000e-01    3.380000e+00
  N2dh SN2aq  1 4.300000e-01    3.590000e+00
  N1dh SN1aq  1 4.300000e-01    3.590000e+00
 SP6dh  N1aq  1 4.300000e-01    2.770000e+00
 SP6dh  N2aq  1 4.300000e-01    2.920000e+00
 SP6dh  N3aq  1 4.300000e-01    2.930000e+00
 SP6dh  N4aq  1 4.300000e-01    3.380000e+00
 SP6dh  N5aq  1 4.300000e-01    3.590000e+00
 SP6dh  N6aq  1 4.300000e-01    3.970000e+00
 SP6dh  P1aq  1 4.300000e-01    4.170000e+00
 SP6dh  P2aq  1 4.300000e-01    4.400000e+00
 SP6dh  P3aq  1 4.300000e-01    4.400000e+00
 SP6dh  P4aq  1 4.300000e-01    4.680000e+00
 SP6dh  P5aq  1 4.300000e-01    4.920000e+00
 SP6dh  P6aq  1 4.300000e-01    5.510000e+00
 SP5dh  N1aq  1 4.300000e-01    2.770000e+00
 SP5dh  N2aq  1 4.300000e-01    2.920000e+00
 SP5dh  N3aq  1 4.300000e-01    2.930000e+00
 SP5dh  N4aq  1 4.300000e-01    3.590000e+00
 SP5dh  N5aq  1 4.300000e-01    3.590000e+00
 SP5dh  N6aq  1 4.300000e-01    3.770000e+00
 SP5dh  P1aq  1 4.300000e-01    3.970000e+00
 SP5dh  P2aq  1 4.300000e-01    4.170000e+00
 SP5dh  P3aq  1 4.300000e-01    4.170000e+00
 SP5dh  P4aq  1 4.300000e-01    4.400000e+00
 SP5dh  P5aq  1 4.300000e-01    4.680000e+00
 SP4dh  N1aq  1 4.300000e-01    2.920000e+00
 SP4dh  N2aq  1 4.300000e-01    2.930000e+00
 SP4dh  N3aq  1 4.300000e-01    3.380000e+00
 SP4dh  N4aq  1 4.300000e-01    3.590000e+00
 SP4dh  N5aq  1 4.300000e-01    3.590000e+00
 SP4dh  N6aq  1 4.300000e-01    3.770000e+00
 SP4dh  P1aq  1 4.300000e-01    3.970000e+00
 SP4dh  P2aq  1 4.300000e-01    4.170000e+00
 SP4dh  P3aq  1 4.300000e-01    4.170000e+00
 SP4dh  P4aq  1 4.300000e-01    4.400000e+00
 SP3dh  N1aq  1 4.300000e-01    2.930000e+00
 SP3dh  N2aq  1 4.300000e-01    3.380000e+00
 SP3dh  N3aq  1 4.300000e-01    3.380000e+00
 SP3dh  N4aq  1 4.300000e-01    3.590000e+00
 SP3dh  N5aq  1 4.300000e-01    3.590000e+00
 SP3dh  N6aq  1 4.300000e-01    3.770000e+00
 SP3dh  P1aq  1 4.300000e-01    3.970000e+00
 SP3dh  P2aq  1 4.300000e-01    4.170000e+00
 SP3dh  P3aq  1 4.300000e-01    4.170000e+00
 SP2dh  N1aq  1 4.300000e-01    3.380000e+00
 SP2dh  N2aq  1 4.300000e-01    3.380000e+00
 SP2dh  N3aq  1 4.300000e-01    3.380000e+00
 SP2dh  N4aq  1 4.300000e-01    3.590000e+00
 SP2dh  N5aq  1 4.300000e-01    3.770000e+00
 SP2dh  N6aq  1 4.300000e-01    3.970000e+00
 SP2dh  P1aq  1 4.300000e-01    3.970000e+00
 SP2dh  P2aq  1 4.300000e-01    4.170000e+00
 SP1dh  N1aq  1 4.300000e-01    3.380000e+00
 SP1dh  N2aq  1 4.300000e-01    3.380000e+00
 SP1dh  N3aq  1 4.300000e-01    3.380000e+00
 SP1dh  N4aq  1 4.300000e-01    3.770000e+00
 SP1dh  N5aq  1 4.300000e-01    3.770000e+00
 SP1dh  N6aq  1 4.300000e-01    3.970000e+00
 SP1dh  P1aq  1 4.300000e-01    3.970000e+00
 SN6dh  N1aq  1 4.300000e-01    3.380000e+00
 SN6dh  N2aq  1 4.300000e-01    3.380000e+00
 SN6dh  N3aq  1 4.300000e-01    3.590000e+00
 SN6dh  N4aq  1 4.300000e-01    3.970000e+00
 SN6dh  N5aq  1 4.300000e-01    3.970000e+00
 SN6dh  N6aq  1 4.300000e-01    3.970000e+00
 SN5dh  N1aq  1 4.300000e-01    3.380000e+00
 SN5dh  N2aq  1 4.300000e-01    3.590000e+00
 SN5dh  N3aq  1 4.300000e-01    3.590000e+00
 SN5dh  N4aq  1 4.300000e-01    3.770000e+00
 SN5dh  N5aq  1 4.300000e-01    3.770000e+00
 SN4dh  N1aq  1 4.300000e-01    3.380000e+00
 SN4dh  N2aq  1 4.300000e-01    3.590000e+00
 SN4dh  N3aq  1 4.300000e-01    3.590000e+00
 SN4dh  N4aq  1 4.300000e-01    3.770000e+00
 SN3dh  N1aq  1 4.300000e-01    3.380000e+00
 SN3dh  N2aq  1 4.300000e-01    3.590000e+00
 SN3dh  N3aq  1 4.300000e-01    3.590000e+00
 SN2dh  N1aq  1 4.300000e-01    3.380000e+00
 SN2dh  N2aq  1 4.300000e-01    3.590000e+00
 SN1dh  N1aq  1 4.300000e-01    3.590000e+00
  P6dh SP6ah  1 4.300000e-01    4.920000e+00
  P6dh SP5ah  1 4.300000e-01    4.680000e+00
  P6dh SP4ah  1 4.300000e-01    4.400000e+00
  P6dh SP3ah  1 4.300000e-01    4.170000e+00
  P6dh SP2ah  1 4.300000e-01    4.170000e+00
  P6dh SP1ah  1 4.300000e-01    3.970000e+00
  P6dh SN6ah  1 4.300000e-01    3.770000e+00
  P6dh SN5ah  1 4.300000e-01    3.380000e+00
  P6dh SN4ah  1 4.300000e-01    3.160000e+00
  P6dh SN3ah  1 4.300000e-01    2.920000e+00
  P6dh SN2ah  1 4.300000e-01    2.770000e+00
  P6dh SN1ah  1 4.300000e-01    2.530000e+00
  P5dh SP5ah  1 4.300000e-01    4.400000e+00
  P5dh SP4ah  1 4.300000e-01    4.170000e+00
  P5dh SP3ah  1 4.300000e-01    3.970000e+00
  P5dh SP2ah  1 4.300000e-01    3.970000e+00
  P5dh SP1ah  1 4.300000e-01    3.770000e+00
  P5dh SN6ah  1 4.300000e-01    3.590000e+00
  P5dh SN5ah  1 4.300000e-01    3.380000e+00
  P5dh SN4ah  1 4.300000e-01    3.380000e+00
  P5dh SN3ah  1 4.300000e-01    2.920000e+00
  P5dh SN2ah  1 4.300000e-01    2.770000e+00
  P5dh SN1ah  1 4.300000e-01    2.530000e+00
  P4dh SP4ah  1 4.300000e-01    4.170000e+00
  P4dh SP3ah  1 4.300000e-01    3.970000e+00
  P4dh SP2ah  1 4.300000e-01    3.970000e+00
  P4dh SP1ah  1 4.300000e-01    3.770000e+00
  P4dh SN6ah  1 4.300000e-01    3.590000e+00
  P4dh SN5ah  1 4.300000e-01    3.380000e+00
  P4dh SN4ah  1 4.300000e-01    3.380000e+00
  P4dh SN3ah  1 4.300000e-01    3.160000e+00
  P4dh SN2ah  1 4.300000e-01    2.920000e+00
  P4dh SN1ah  1 4.300000e-01    2.770000e+00
  P3dh SP3ah  1 4.300000e-01    3.970000e+00
  P3dh SP2ah  1 4.300000e-01    3.970000e+00
  P3dh SP1ah  1 4.300000e-01    3.770000e+00
  P3dh SN6ah  1 4.300000e-01    3.590000e+00
  P3dh SN5ah  1 4.300000e-01    3.380000e+00
  P3dh SN4ah  1 4.300000e-01    3.380000e+00
  P3dh SN3ah  1 4.300000e-01    3.160000e+00
  P3dh SN2ah  1 4.300000e-01    3.160000e+00
  P3dh SN1ah  1 4.300000e-01    2.920000e+00
  P2dh SP2ah  1 4.300000e-01    3.970000e+00
  P2dh SP1ah  1 4.300000e-01    3.770000e+00
  P2dh SN6ah  1 4.300000e-01    3.770000e+00
  P2dh SN5ah  1 4.300000e-01    3.590000e+00
  P2dh SN4ah  1 4.300000e-01    3.380000e+00
  P2dh SN3ah  1 4.300000e-01    3.160000e+00
  P2dh SN2ah  1 4.300000e-01    3.160000e+00
  P2dh SN1ah  1 4.300000e-01    3.160000e+00
  P1dh SP1ah  1 4.300000e-01    3.770000e+00
  P1dh SN6ah  1 4.300000e-01    3.770000e+00
  P1dh SN5ah  1 4.300000e-01    3.590000e+00
  P1dh SN4ah  1 4.300000e-01    3.590000e+00
  P1dh SN3ah  1 4.300000e-01    3.160000e+00
  P1dh SN2ah  1 4.300000e-01    3.160000e+00
  P1dh SN1ah  1 4.300000e-01    3.160000e+00
  N6dh SN6ah  1 4.300000e-01    3.770000e+00
  N6dh SN5ah  1 4.300000e-01    3.770000e+00
  N6dh SN4ah  1 4.300000e-01    3.770000e+00
  N6dh SN3ah  1 4.300000e-01    3.380000e+00
  N6dh SN2ah  1 4.300000e-01    3.160000e+00
  N6dh SN1ah  1 4.300000e-01    3.160000e+00
  N5dh SN5ah  1 4.300000e-01    3.590000e+00
  N5dh SN4ah  1 4.300000e-01    3.590000e+00
  N5dh SN3ah  1 4.300000e-01    3.380000e+00
  N5dh SN2ah  1 4.300000e-01    3.380000e+00
  N5dh SN1ah  1 4.300000e-01    3.160000e+00
  N4dh SN4ah  1 4.300000e-01    3.590000e+00
  N4dh SN3ah  1 4.300000e-01    3.380000e+00
  N4dh SN2ah  1 4.300000e-01    3.380000e+00
  N4dh SN1ah  1 4.300000e-01    3.160000e+00
  N3dh SN3ah  1 4.300000e-01    3.380000e+00
  N3dh SN2ah  1 4.300000e-01    3.380000e+00
  N3dh SN1ah  1 4.300000e-01    3.160000e+00
  N2dh SN2ah  1 4.300000e-01    3.380000e+00
  N2dh SN1ah  1 4.300000e-01    3.160000e+00
  N1dh SN1ah  1 4.300000e-01    3.380000e+00
 SP6dh  P6ah  1 4.300000e-01    4.920000e+00
 SP6dh  P5ah  1 4.300000e-01    4.680000e+00
 SP6dh  P4ah  1 4.300000e-01    4.400000e+00
 SP6dh  P3ah  1 4.300000e-01    4.170000e+00
 SP6dh  P2ah  1 4.300000e-01    4.170000e+00
 SP6dh  P1ah  1 4.300000e-01    3.970000e+00
 SP6dh  N6ah  1 4.300000e-01    3.770000e+00
 SP6dh  N5ah  1 4.300000e-01    3.380000e+00
 SP6dh  N4ah  1 4.300000e-01    3.160000e+00
 SP6dh  N3ah  1 4.300000e-01    2.920000e+00
 SP6dh  N2ah  1 4.300000e-01    2.770000e+00
 SP6dh  N1ah  1 4.300000e-01    2.530000e+00
 SP5dh  P5ah  1 4.300000e-01    4.400000e+00
 SP5dh  P4ah  1 4.300000e-01    4.170000e+00
 SP5dh  P3ah  1 4.300000e-01    3.970000e+00
 SP5dh  P2ah  1 4.300000e-01    3.970000e+00
 SP5dh  P1ah  1 4.300000e-01    3.770000e+00
 SP5dh  N6ah  1 4.300000e-01    3.590000e+00
 SP5dh  N5ah  1 4.300000e-01    3.380000e+00
 SP5dh  N4ah  1 4.300000e-01    3.380000e+00
 SP5dh  N3ah  1 4.300000e-01    2.920000e+00
 SP5dh  N2ah  1 4.300000e-01    2.770000e+00
 SP5dh  N1ah  1 4.300000e-01    2.530000e+00
 SP4dh  P4ah  1 4.300000e-01    4.170000e+00
 SP4dh  P3ah  1 4.300000e-01    3.970000e+00
 SP4dh  P2ah  1 4.300000e-01    3.970000e+00
 SP4dh  P1ah  1 4.300000e-01    3.770000e+00
 SP4dh  N6ah  1 4.300000e-01    3.590000e+00
 SP4dh  N5ah  1 4.300000e-01    3.380000e+00
 SP4dh  N4ah  1 4.300000e-01    3.380000e+00
 SP4dh  N3ah  1 4.300000e-01    3.160000e+00
 SP4dh  N2ah  1 4.300000e-01    2.920000e+00
 SP4dh  N1ah  1 4.300000e-01    2.770000e+00
 SP3dh  P3ah  1 4.300000e-01    3.970000e+00
 SP3dh  P2ah  1 4.300000e-01    3.970000e+00
 SP3dh  P1ah  1 4.300000e-01    3.770000e+00
 SP3dh  N6ah  1 4.300000e-01    3.590000e+00
 SP3dh  N5ah  1 4.300000e-01    3.380000e+00
 SP3dh  N4ah  1 4.300000e-01    3.380000e+00
 SP3dh  N3ah  1 4.300000e-01    3.160000e+00
 SP3dh  N2ah  1 4.300000e-01    3.160000e+00
 SP3dh  N1ah  1 4.300000e-01    2.920000e+00
 SP2dh  P2ah  1 4.300000e-01    3.970000e+00
 SP2dh  P1ah  1 4.300000e-01    3.770000e+00
 SP2dh  N6ah  1 4.300000e-01    3.770000e+00
 SP2dh  N5ah  1 4.300000e-01    3.590000e+00
 SP2dh  N4ah  1 4.300000e-01    3.380000e+00
 SP2dh  N3ah  1 4.300000e-01    3.160000e+00
 SP2dh  N2ah  1 4.300000e-01    3.160000e+00
 SP2dh  N1ah  1 4.300000e-01    3.160000e+00
 SP1dh  P1ah  1 4.300000e-01    3.770000e+00
 SP1dh  N6ah  1 4.300000e-01    3.770000e+00
 SP1dh  N5ah  1 4.300000e-01    3.590000e+00
 SP1dh  N4ah  1 4.300000e-01    3.590000e+00
 SP1dh  N3ah  1 4.300000e-01    3.160000e+00
 SP1dh  N2ah  1 4.300000e-01    3.160000e+00
 SP1dh  N1ah  1 4.300000e-01    3.160000e+00
 SN6dh  N6ah  1 4.300000e-01    3.770000e+00
 SN6dh  N5ah  1 4.300000e-01    3.770000e+00
 SN6dh  N4ah  1 4.300000e-01    3.770000e+00
 SN6dh  N3ah  1 4.300000e-01    3.380000e+00
 SN6dh  N2ah  1 4.300000e-01    3.160000e+00
 SN6dh  N1ah  1 4.300000e-01    3.160000e+00
 SN5dh  N5ah  1 4.300000e-01    3.590000e+00
 SN5dh  N4ah  1 4.300000e-01    3.590000e+00
 SN5dh  N3ah  1 4.300000e-01    3.380000e+00
 SN5dh  N2ah  1 4.300000e-01    3.380000e+00
 SN5dh  N1ah  1 4.300000e-01    3.160000e+00
 SN4dh  N4ah  1 4.300000e-01    3.590000e+00
 SN4dh  N3ah  1 4.300000e-01    3.380000e+00
 SN4dh  N2ah  1 4.300000e-01    3.380000e+00
 SN4dh  N1ah  1 4.300000e-01    3.160000e+00
 SN3dh  N3ah  1 4.300000e-01    3.380000e+00
 SN3dh  N2ah  1 4.300000e-01    3.380000e+00
 SN3dh  N1ah  1 4.300000e-01    3.160000e+00
 SN2dh  N2ah  1 4.300000e-01    3.380000e+00
 SN2dh  N1ah  1 4.300000e-01    3.160000e+00
 SN1dh  N1ah  1 4.300000e-01    3.380000e+00
  P6dh SP6ar  1 4.300000e-01    4.680000e+00
  P6dh SP5ar  1 4.300000e-01    4.400000e+00
  P6dh SP4ar  1 4.300000e-01    4.170000e+00
  P6dh SP3ar  1 4.300000e-01    3.970000e+00
  P6dh SP2ar  1 4.300000e-01    3.970000e+00
  P6dh SP1ar  1 4.300000e-01    3.770000e+00
  P6dh SN6ar  1 4.300000e-01    3.590000e+00
  P6dh SN5ar  1 4.300000e-01    3.160000e+00
  P6dh SN4ar  1 4.300000e-01    2.930000e+00
  P6dh SN3ar  1 4.300000e-01    2.770000e+00
  P6dh SN2ar  1 4.300000e-01    2.530000e+00
  P6dh SN1ar  1 4.300000e-01    2.320000e+00
  P5dh SP5ar  1 4.300000e-01    4.170000e+00
  P5dh SP4ar  1 4.300000e-01    3.970000e+00
  P5dh SP3ar  1 4.300000e-01    3.770000e+00
  P5dh SP2ar  1 4.300000e-01    3.770000e+00
  P5dh SP1ar  1 4.300000e-01    3.590000e+00
  P5dh SN6ar  1 4.300000e-01    3.380000e+00
  P5dh SN5ar  1 4.300000e-01    3.160000e+00
  P5dh SN4ar  1 4.300000e-01    3.160000e+00
  P5dh SN3ar  1 4.300000e-01    2.770000e+00
  P5dh SN2ar  1 4.300000e-01    2.530000e+00
  P5dh SN1ar  1 4.300000e-01    2.320000e+00
  P4dh SP4ar  1 4.300000e-01    3.970000e+00
  P4dh SP3ar  1 4.300000e-01    3.770000e+00
  P4dh SP2ar  1 4.300000e-01    3.770000e+00
  P4dh SP1ar  1 4.300000e-01    3.590000e+00
  P4dh SN6ar  1 4.300000e-01    3.380000e+00
  P4dh SN5ar  1 4.300000e-01    3.160000e+00
  P4dh SN4ar  1 4.300000e-01    3.160000e+00
  P4dh SN3ar  1 4.300000e-01    2.930000e+00
  P4dh SN2ar  1 4.300000e-01    2.770000e+00
  P4dh SN1ar  1 4.300000e-01    2.530000e+00
  P3dh SP3ar  1 4.300000e-01    3.770000e+00
  P3dh SP2ar  1 4.300000e-01    3.770000e+00
  P3dh SP1ar  1 4.300000e-01    3.590000e+00
  P3dh SN6ar  1 4.300000e-01    3.380000e+00
  P3dh SN5ar  1 4.300000e-01    3.160000e+00
  P3dh SN4ar  1 4.300000e-01    3.160000e+00
  P3dh SN3ar  1 4.300000e-01    2.930000e+00
  P3dh SN2ar  1 4.300000e-01    2.930000e+00
  P3dh SN1ar  1 4.300000e-01    2.770000e+00
  P2dh SP2ar  1 4.300000e-01    3.770000e+00
  P2dh SP1ar  1 4.300000e-01    3.590000e+00
  P2dh SN6ar  1 4.300000e-01    3.590000e+00
  P2dh SN5ar  1 4.300000e-01    3.380000e+00
  P2dh SN4ar  1 4.300000e-01    3.160000e+00
  P2dh SN3ar  1 4.300000e-01    2.930000e+00
  P2dh SN2ar  1 4.300000e-01    2.930000e+00
  P2dh SN1ar  1 4.300000e-01    2.930000e+00
  P1dh SP1ar  1 4.300000e-01    3.590000e+00
  P1dh SN6ar  1 4.300000e-01    3.590000e+00
  P1dh SN5ar  1 4.300000e-01    3.380000e+00
  P1dh SN4ar  1 4.300000e-01    3.380000e+00
  P1dh SN3ar  1 4.300000e-01    2.930000e+00
  P1dh SN2ar  1 4.300000e-01    2.930000e+00
  P1dh SN1ar  1 4.300000e-01    2.930000e+00
  N6dh SN6ar  1 4.300000e-01    3.590000e+00
  N6dh SN5ar  1 4.300000e-01    3.590000e+00
  N6dh SN4ar  1 4.300000e-01    3.590000e+00
  N6dh SN3ar  1 4.300000e-01    3.160000e+00
  N6dh SN2ar  1 4.300000e-01    2.930000e+00
  N6dh SN1ar  1 4.300000e-01    2.930000e+00
  N5dh SN5ar  1 4.300000e-01    3.380000e+00
  N5dh SN4ar  1 4.300000e-01    3.380000e+00
  N5dh SN3ar  1 4.300000e-01    3.160000e+00
  N5dh SN2ar  1 4.300000e-01    3.160000e+00
  N5dh SN1ar  1 4.300000e-01    2.930000e+00
  N4dh SN4ar  1 4.300000e-01    3.380000e+00
  N4dh SN3ar  1 4.300000e-01    3.160000e+00
  N4dh SN2ar  1 4.300000e-01    3.160000e+00
  N4dh SN1ar  1 4.300000e-01    2.930000e+00
  N3dh SN3ar  1 4.300000e-01    3.160000e+00
  N3dh SN2ar  1 4.300000e-01    3.160000e+00
  N3dh SN1ar  1 4.300000e-01    2.930000e+00
  N2dh SN2ar  1 4.300000e-01    3.160000e+00
  N2dh SN1ar  1 4.300000e-01    2.930000e+00
  N1dh SN1ar  1 4.300000e-01    3.160000e+00
 SP6dh  P6ar  1 4.300000e-01    4.680000e+00
 SP6dh  P5ar  1 4.300000e-01    4.400000e+00
 SP6dh  P4ar  1 4.300000e-01    4.170000e+00
 SP6dh  P3ar  1 4.300000e-01    3.970000e+00
 SP6dh  P2ar  1 4.300000e-01    3.970000e+00
 SP6dh  P1ar  1 4.300000e-01    3.770000e+00
 SP6dh  N6ar  1 4.300000e-01    3.590000e+00
 SP6dh  N5ar  1 4.300000e-01    3.160000e+00
 SP6dh  N4ar  1 4.300000e-01    2.930000e+00
 SP6dh  N3ar  1 4.300000e-01    2.770000e+00
 SP6dh  N2ar  1 4.300000e-01    2.530000e+00
 SP6dh  N1ar  1 4.300000e-01    2.320000e+00
 SP5dh  P5ar  1 4.300000e-01    4.170000e+00
 SP5dh  P4ar  1 4.300000e-01    3.970000e+00
 SP5dh  P3ar  1 4.300000e-01    3.770000e+00
 SP5dh  P2ar  1 4.300000e-01    3.770000e+00
 SP5dh  P1ar  1 4.300000e-01    3.590000e+00
 SP5dh  N6ar  1 4.300000e-01    3.380000e+00
 SP5dh  N5ar  1 4.300000e-01    3.160000e+00
 SP5dh  N4ar  1 4.300000e-01    3.160000e+00
 SP5dh  N3ar  1 4.300000e-01    2.770000e+00
 SP5dh  N2ar  1 4.300000e-01    2.530000e+00
 SP5dh  N1ar  1 4.300000e-01    2.320000e+00
 SP4dh  P4ar  1 4.300000e-01    3.970000e+00
 SP4dh  P3ar  1 4.300000e-01    3.770000e+00
 SP4dh  P2ar  1 4.300000e-01    3.770000e+00
 SP4dh  P1ar  1 4.300000e-01    3.590000e+00
 SP4dh  N6ar  1 4.300000e-01    3.380000e+00
 SP4dh  N5ar  1 4.300000e-01    3.160000e+00
 SP4dh  N4ar  1 4.300000e-01    3.160000e+00
 SP4dh  N3ar  1 4.300000e-01    2.930000e+00
 SP4dh  N2ar  1 4.300000e-01    2.770000e+00
 SP4dh  N1ar  1 4.300000e-01    2.530000e+00
 SP3dh  P3ar  1 4.300000e-01    3.770000e+00
 SP3dh  P2ar  1 4.300000e-01    3.770000e+00
 SP3dh  P1ar  1 4.300000e-01    3.590000e+00
 SP3dh  N6ar  1 4.300000e-01    3.380000e+00
 SP3dh  N5ar  1 4.300000e-01    3.160000e+00
 SP3dh  N4ar  1 4.300000e-01    3.160000e+00
 SP3dh  N3ar  1 4.300000e-01    2.930000e+00
 SP3dh  N2ar  1 4.300000e-01    2.930000e+00
 SP3dh  N1ar  1 4.300000e-01    2.770000e+00
 SP2dh  P2ar  1 4.300000e-01    3.770000e+00
 SP2dh  P1ar  1 4.300000e-01    3.590000e+00
 SP2dh  N6ar  1 4.300000e-01    3.590000e+00
 SP2dh  N5ar  1 4.300000e-01    3.380000e+00
 SP2dh  N4ar  1 4.300000e-01    3.160000e+00
 SP2dh  N3ar  1 4.300000e-01    2.930000e+00
 SP2dh  N2ar  1 4.300000e-01    2.930000e+00
 SP2dh  N1ar  1 4.300000e-01    2.930000e+00
 SP1dh  P1ar  1 4.300000e-01    3.590000e+00
 SP1dh  N6ar  1 4.300000e-01    3.590000e+00
 SP1dh  N5ar  1 4.300000e-01    3.380000e+00
 SP1dh  N4ar  1 4.300000e-01    3.380000e+00
 SP1dh  N3ar  1 4.300000e-01    2.930000e+00
 SP1dh  N2ar  1 4.300000e-01    2.930000e+00
 SP1dh  N1ar  1 4.300000e-01    2.930000e+00
 SN6dh  N6ar  1 4.300000e-01    3.590000e+00
 SN6dh  N5ar  1 4.300000e-01    3.590000e+00
 SN6dh  N4ar  1 4.300000e-01    3.590000e+00
 SN6dh  N3ar  1 4.300000e-01    3.160000e+00
 SN6dh  N2ar  1 4.300000e-01    2.930000e+00
 SN6dh  N1ar  1 4.300000e-01    2.930000e+00
 SN5dh  N5ar  1 4.300000e-01    3.380000e+00
 SN5dh  N4ar  1 4.300000e-01    3.380000e+00
 SN5dh  N3ar  1 4.300000e-01    3.160000e+00
 SN5dh  N2ar  1 4.300000e-01    3.160000e+00
 SN5dh  N1ar  1 4.300000e-01    2.930000e+00
 SN4dh  N4ar  1 4.300000e-01    3.380000e+00
 SN4dh  N3ar  1 4.300000e-01    3.160000e+00
 SN4dh  N2ar  1 4.300000e-01    3.160000e+00
 SN4dh  N1ar  1 4.300000e-01    2.930000e+00
 SN3dh  N3ar  1 4.300000e-01    3.160000e+00
 SN3dh  N2ar  1 4.300000e-01    3.160000e+00
 SN3dh  N1ar  1 4.300000e-01    2.930000e+00
 SN2dh  N2ar  1 4.300000e-01    3.160000e+00
 SN2dh  N1ar  1 4.300000e-01    2.930000e+00
 SN1dh  N1ar  1 4.300000e-01    3.160000e+00
  P6dr  SP6a  1 4.300000e-01    4.680000e+00
  P6dr  SP5a  1 4.300000e-01    4.400000e+00
  P6dr  SP4a  1 4.300000e-01    4.170000e+00
  P6dr  SP3a  1 4.300000e-01    3.970000e+00
  P6dr  SP2a  1 4.300000e-01    3.970000e+00
  P6dr  SP1a  1 4.300000e-01    3.770000e+00
  P6dr  SN6a  1 4.300000e-01    3.590000e+00
  P6dr  SN5a  1 4.300000e-01    3.160000e+00
  P6dr  SN4a  1 4.300000e-01    2.930000e+00
  P6dr  SN3a  1 4.300000e-01    2.770000e+00
  P6dr  SN2a  1 4.300000e-01    2.530000e+00
  P6dr  SN1a  1 4.300000e-01    2.320000e+00
  P5dr  SP5a  1 4.300000e-01    4.170000e+00
  P5dr  SP4a  1 4.300000e-01    3.970000e+00
  P5dr  SP3a  1 4.300000e-01    3.770000e+00
  P5dr  SP2a  1 4.300000e-01    3.770000e+00
  P5dr  SP1a  1 4.300000e-01    3.590000e+00
  P5dr  SN6a  1 4.300000e-01    3.380000e+00
  P5dr  SN5a  1 4.300000e-01    3.160000e+00
  P5dr  SN4a  1 4.300000e-01    3.160000e+00
  P5dr  SN3a  1 4.300000e-01    2.770000e+00
  P5dr  SN2a  1 4.300000e-01    2.530000e+00
  P5dr  SN1a  1 4.300000e-01    2.320000e+00
  P4dr  SP4a  1 4.300000e-01    3.970000e+00
  P4dr  SP3a  1 4.300000e-01    3.770000e+00
  P4dr  SP2a  1 4.300000e-01    3.770000e+00
  P4dr  SP1a  1 4.300000e-01    3.590000e+00
  P4dr  SN6a  1 4.300000e-01    3.380000e+00
  P4dr  SN5a  1 4.300000e-01    3.160000e+00
  P4dr  SN4a  1 4.300000e-01    3.160000e+00
  P4dr  SN3a  1 4.300000e-01    2.930000e+00
  P4dr  SN2a  1 4.300000e-01    2.770000e+00
  P4dr  SN1a  1 4.300000e-01    2.530000e+00
  P3dr  SP3a  1 4.300000e-01    3.770000e+00
  P3dr  SP2a  1 4.300000e-01    3.770000e+00
  P3dr  SP1a  1 4.300000e-01    3.590000e+00
  P3dr  SN6a  1 4.300000e-01    3.380000e+00
  P3dr  SN5a  1 4.300000e-01    3.160000e+00
  P3dr  SN4a  1 4.300000e-01    3.160000e+00
  P3dr  SN3a  1 4.300000e-01    2.930000e+00
  P3dr  SN2a  1 4.300000e-01    2.930000e+00
  P3dr  SN1a  1 4.300000e-01    2.770000e+00
  P2dr  SP2a  1 4.300000e-01    3.770000e+00
  P2dr  SP1a  1 4.300000e-01    3.590000e+00
  P2dr  SN6a  1 4.300000e-01    3.590000e+00
  P2dr  SN5a  1 4.300000e-01    3.380000e+00
  P2dr  SN4a  1 4.300000e-01    3.160000e+00
  P2dr  SN3a  1 4.300000e-01    2.930000e+00
  P2dr  SN2a  1 4.300000e-01    2.930000e+00
  P2dr  SN1a  1 4.300000e-01    2.930000e+00
  P1dr  SP1a  1 4.300000e-01    3.590000e+00
  P1dr  SN6a  1 4.300000e-01    3.590000e+00
  P1dr  SN5a  1 4.300000e-01    3.380000e+00
  P1dr  SN4a  1 4.300000e-01    3.380000e+00
  P1dr  SN3a  1 4.300000e-01    2.930000e+00
  P1dr  SN2a  1 4.300000e-01    2.930000e+00
  P1dr  SN1a  1 4.300000e-01    2.930000e+00
  N6dr  SN6a  1 4.300000e-01    3.590000e+00
  N6dr  SN5a  1 4.300000e-01    3.590000e+00
  N6dr  SN4a  1 4.300000e-01    3.590000e+00
  N6dr  SN3a  1 4.300000e-01    3.160000e+00
  N6dr  SN2a  1 4.300000e-01    2.930000e+00
  N6dr  SN1a  1 4.300000e-01    2.930000e+00
  N5dr  SN5a  1 4.300000e-01    3.380000e+00
  N5dr  SN4a  1 4.300000e-01    3.380000e+00
  N5dr  SN3a  1 4.300000e-01    3.160000e+00
  N5dr  SN2a  1 4.300000e-01    3.160000e+00
  N5dr  SN1a  1 4.300000e-01    2.930000e+00
  N4dr  SN4a  1 4.300000e-01    3.380000e+00
  N4dr  SN3a  1 4.300000e-01    3.160000e+00
  N4dr  SN2a  1 4.300000e-01    3.160000e+00
  N4dr  SN1a  1 4.300000e-01    2.930000e+00
  N3dr  SN3a  1 4.300000e-01    3.160000e+00
  N3dr  SN2a  1 4.300000e-01    3.160000e+00
  N3dr  SN1a  1 4.300000e-01    2.930000e+00
  N2dr  SN2a  1 4.300000e-01    3.160000e+00
  N2dr  SN1a  1 4.300000e-01    2.930000e+00
  N1dr  SN1a  1 4.300000e-01    3.160000e+00
 SP6dr   P6a  1 4.300000e-01    4.680000e+00
 SP6dr   P5a  1 4.300000e-01    4.400000e+00
 SP6dr   P4a  1 4.300000e-01    4.170000e+00
 SP6dr   P3a  1 4.300000e-01    3.970000e+00
 SP6dr   P2a  1 4.300000e-01    3.970000e+00
 SP6dr   P1a  1 4.300000e-01    3.770000e+00
 SP6dr   N6a  1 4.300000e-01    3.590000e+00
 SP6dr   N5a  1 4.300000e-01    3.160000e+00
 SP6dr   N4a  1 4.300000e-01    2.930000e+00
 SP6dr   N3a  1 4.300000e-01    2.770000e+00
 SP6dr   N2a  1 4.300000e-01    2.530000e+00
 SP6dr   N1a  1 4.300000e-01    2.320000e+00
 SP5dr   P5a  1 4.300000e-01    4.170000e+00
 SP5dr   P4a  1 4.300000e-01    3.970000e+00
 SP5dr   P3a  1 4.300000e-01    3.770000e+00
 SP5dr   P2a  1 4.300000e-01    3.770000e+00
 SP5dr   P1a  1 4.300000e-01    3.590000e+00
 SP5dr   N6a  1 4.300000e-01    3.380000e+00
 SP5dr   N5a  1 4.300000e-01    3.160000e+00
 SP5dr   N4a  1 4.300000e-01    3.160000e+00
 SP5dr   N3a  1 4.300000e-01    2.770000e+00
 SP5dr   N2a  1 4.300000e-01    2.530000e+00
 SP5dr   N1a  1 4.300000e-01    2.320000e+00
 SP4dr   P4a  1 4.300000e-01    3.970000e+00
 SP4dr   P3a  1 4.300000e-01    3.770000e+00
 SP4dr   P2a  1 4.300000e-01    3.770000e+00
 SP4dr   P1a  1 4.300000e-01    3.590000e+00
 SP4dr   N6a  1 4.300000e-01    3.380000e+00
 SP4dr   N5a  1 4.300000e-01    3.160000e+00
 SP4dr   N4a  1 4.300000e-01    3.160000e+00
 SP4dr   N3a  1 4.300000e-01    2.930000e+00
 SP4dr   N2a  1 4.300000e-01    2.770000e+00
 SP4dr   N1a  1 4.300000e-01    2.530000e+00
 SP3dr   P3a  1 4.300000e-01    3.770000e+00
 SP3dr   P2a  1 4.300000e-01    3.770000e+00
 SP3dr   P1a  1 4.300000e-01    3.590000e+00
 SP3dr   N6a  1 4.300000e-01    3.380000e+00
 SP3dr   N5a  1 4.300000e-01    3.160000e+00
 SP3dr   N4a  1 4.300000e-01    3.160000e+00
 SP3dr   N3a  1 4.300000e-01    2.930000e+00
 SP3dr   N2a  1 4.300000e-01    2.930000e+00
 SP3dr   N1a  1 4.300000e-01    2.770000e+00
 SP2dr   P2a  1 4.300000e-01    3.770000e+00
 SP2dr   P1a  1 4.300000e-01    3.590000e+00
 SP2dr   N6a  1 4.300000e-01    3.590000e+00
 SP2dr   N5a  1 4.300000e-01    3.380000e+00
 SP2dr   N4a  1 4.300000e-01    3.160000e+00
 SP2dr   N3a  1 4.300000e-01    2.930000e+00
 SP2dr   N2a  1 4.300000e-01    2.930000e+00
 SP2dr   N1a  1 4.300000e-01    2.930000e+00
 SP1dr   P1a  1 4.300000e-01    3.590000e+00
 SP1dr   N6a  1 4.300000e-01    3.590000e+00
 SP1dr   N5a  1 4.300000e-01    3.380000e+00
 SP1dr   N4a  1 4.300000e-01    3.380000e+00
 SP1dr   N3a  1 4.300000e-01    2.930000e+00
 SP1dr   N2a  1 4.300000e-01    2.930000e+00
 SP1dr   N1a  1 4.300000e-01    2.930000e+00
 SN6dr   N6a  1 4.300000e-01    3.590000e+00
 SN6dr   N5a  1 4.300000e-01    3.590000e+00
 SN6dr   N4a  1 4.300000e-01    3.590000e+00
 SN6dr   N3a  1 4.300000e-01    3.160000e+00
 SN6dr   N2a  1 4.300000e-01    2.930000e+00
 SN6dr   N1a  1 4.300000e-01    2.930000e+00
 SN5dr   N5a  1 4.300000e-01    3.380000e+00
 SN5dr   N4a  1 4.300000e-01    3.380000e+00
 SN5dr   N3a  1 4.300000e-01    3.160000e+00
 SN5dr   N2a  1 4.300000e-01    3.160000e+00
 SN5dr   N1a  1 4.300000e-01    2.930000e+00
 SN4dr   N4a  1 4.300000e-01    3.380000e+00
 SN4dr   N3a  1 4.300000e-01    3.160000e+00
 SN4dr   N2a  1 4.300000e-01    3.160000e+00
 SN4dr   N1a  1 4.300000e-01    2.930000e+00
 SN3dr   N3a  1 4.300000e-01    3.160000e+00
 SN3dr   N2a  1 4.300000e-01    3.160000e+00
 SN3dr   N1a  1 4.300000e-01    2.930000e+00
 SN2dr   N2a  1 4.300000e-01    3.160000e+00
 SN2dr   N1a  1 4.300000e-01    2.930000e+00
 SN1dr   N1a  1 4.300000e-01    3.160000e+00
  P6dr SN1aq  1 4.300000e-01    2.770000e+00
  P6dr SN2aq  1 4.300000e-01    2.920000e+00
  P6dr SN3aq  1 4.300000e-01    2.930000e+00
  P6dr SN4aq  1 4.300000e-01    3.380000e+00
  P6dr SN5aq  1 4.300000e-01    3.590000e+00
  P6dr SN6aq  1 4.300000e-01    3.970000e+00
  P6dr SP1aq  1 4.300000e-01    4.170000e+00
  P6dr SP2aq  1 4.300000e-01    4.400000e+00
  P6dr SP3aq  1 4.300000e-01    4.400000e+00
  P6dr SP4aq  1 4.300000e-01    4.680000e+00
  P6dr SP5aq  1 4.300000e-01    4.920000e+00
  P6dr SP6aq  1 4.300000e-01    5.510000e+00
  P5dr SN1aq  1 4.300000e-01    2.770000e+00
  P5dr SN2aq  1 4.300000e-01    2.920000e+00
  P5dr SN3aq  1 4.300000e-01    2.930000e+00
  P5dr SN4aq  1 4.300000e-01    3.590000e+00
  P5dr SN5aq  1 4.300000e-01    3.590000e+00
  P5dr SN6aq  1 4.300000e-01    3.770000e+00
  P5dr SP1aq  1 4.300000e-01    3.970000e+00
  P5dr SP2aq  1 4.300000e-01    4.170000e+00
  P5dr SP3aq  1 4.300000e-01    4.170000e+00
  P5dr SP4aq  1 4.300000e-01    4.400000e+00
  P5dr SP5aq  1 4.300000e-01    4.680000e+00
  P4dr SN1aq  1 4.300000e-01    2.920000e+00
  P4dr SN2aq  1 4.300000e-01    2.930000e+00
  P4dr SN3aq  1 4.300000e-01    3.380000e+00
  P4dr SN4aq  1 4.300000e-01    3.590000e+00
  P4dr SN5aq  1 4.300000e-01    3.590000e+00
  P4dr SN6aq  1 4.300000e-01    3.770000e+00
  P4dr SP1aq  1 4.300000e-01    3.970000e+00
  P4dr SP2aq  1 4.300000e-01    4.170000e+00
  P4dr SP3aq  1 4.300000e-01    4.170000e+00
  P4dr SP4aq  1 4.300000e-01    4.400000e+00
  P3dr SN1aq  1 4.300000e-01    2.930000e+00
  P3dr SN2aq  1 4.300000e-01    3.380000e+00
  P3dr SN3aq  1 4.300000e-01    3.380000e+00
  P3dr SN4aq  1 4.300000e-01    3.590000e+00
  P3dr SN5aq  1 4.300000e-01    3.590000e+00
  P3dr SN6aq  1 4.300000e-01    3.770000e+00
  P3dr SP1aq  1 4.300000e-01    3.970000e+00
  P3dr SP2aq  1 4.300000e-01    4.170000e+00
  P3dr SP3aq  1 4.300000e-01    4.170000e+00
  P2dr SN1aq  1 4.300000e-01    3.380000e+00
  P2dr SN2aq  1 4.300000e-01    3.380000e+00
  P2dr SN3aq  1 4.300000e-01    3.380000e+00
  P2dr SN4aq  1 4.300000e-01    3.590000e+00
  P2dr SN5aq  1 4.300000e-01    3.770000e+00
  P2dr SN6aq  1 4.300000e-01    3.970000e+00
  P2dr SP1aq  1 4.300000e-01    3.970000e+00
  P2dr SP2aq  1 4.300000e-01    4.170000e+00
  P1dr SN1aq  1 4.300000e-01    3.380000e+00
  P1dr SN2aq  1 4.300000e-01    3.380000e+00
  P1dr SN3aq  1 4.300000e-01    3.380000e+00
  P1dr SN4aq  1 4.300000e-01    3.770000e+00
  P1dr SN5aq  1 4.300000e-01    3.770000e+00
  P1dr SN6aq  1 4.300000e-01    3.970000e+00
  P1dr SP1aq  1 4.300000e-01    3.970000e+00
  N6dr SN1aq  1 4.300000e-01    3.380000e+00
  N6dr SN2aq  1 4.300000e-01    3.380000e+00
  N6dr SN3aq  1 4.300000e-01    3.590000e+00
  N6dr SN4aq  1 4.300000e-01    3.970000e+00
  N6dr SN5aq  1 4.300000e-01    3.970000e+00
  N6dr SN6aq  1 4.300000e-01    3.970000e+00
  N5dr SN1aq  1 4.300000e-01    3.380000e+00
  N5dr SN2aq  1 4.300000e-01    3.590000e+00
  N5dr SN3aq  1 4.300000e-01    3.590000e+00
  N5dr SN4aq  1 4.300000e-01    3.770000e+00
  N5dr SN5aq  1 4.300000e-01    3.770000e+00
  N4dr SN1aq  1 4.300000e-01    3.380000e+00
  N4dr SN2aq  1 4.300000e-01    3.590000e+00
  N4dr SN3aq  1 4.300000e-01    3.590000e+00
  N4dr SN4aq  1 4.300000e-01    3.770000e+00
  N3dr SN1aq  1 4.300000e-01    3.380000e+00
  N3dr SN2aq  1 4.300000e-01    3.590000e+00
  N3dr SN3aq  1 4.300000e-01    3.590000e+00
  N2dr SN1aq  1 4.300000e-01    3.380000e+00
  N2dr SN2aq  1 4.300000e-01    3.590000e+00
  N1dr SN1aq  1 4.300000e-01    3.590000e+00
 SP6dr  N1aq  1 4.300000e-01    2.770000e+00
 SP6dr  N2aq  1 4.300000e-01    2.920000e+00
 SP6dr  N3aq  1 4.300000e-01    2.930000e+00
 SP6dr  N4aq  1 4.300000e-01    3.380000e+00
 SP6dr  N5aq  1 4.300000e-01    3.590000e+00
 SP6dr  N6aq  1 4.300000e-01    3.970000e+00
 SP6dr  P1aq  1 4.300000e-01    4.170000e+00
 SP6dr  P2aq  1 4.300000e-01    4.400000e+00
 SP6dr  P3aq  1 4.300000e-01    4.400000e+00
 SP6dr  P4aq  1 4.300000e-01    4.680000e+00
 SP6dr  P5aq  1 4.300000e-01    4.920000e+00
 SP6dr  P6aq  1 4.300000e-01    5.510000e+00
 SP5dr  N1aq  1 4.300000e-01    2.770000e+00
 SP5dr  N2aq  1 4.300000e-01    2.920000e+00
 SP5dr  N3aq  1 4.300000e-01    2.930000e+00
 SP5dr  N4aq  1 4.300000e-01    3.590000e+00
 SP5dr  N5aq  1 4.300000e-01    3.590000e+00
 SP5dr  N6aq  1 4.300000e-01    3.770000e+00
 SP5dr  P1aq  1 4.300000e-01    3.970000e+00
 SP5dr  P2aq  1 4.300000e-01    4.170000e+00
 SP5dr  P3aq  1 4.300000e-01    4.170000e+00
 SP5dr  P4aq  1 4.300000e-01    4.400000e+00
 SP5dr  P5aq  1 4.300000e-01    4.680000e+00
 SP4dr  N1aq  1 4.300000e-01    2.920000e+00
 SP4dr  N2aq  1 4.300000e-01    2.930000e+00
 SP4dr  N3aq  1 4.300000e-01    3.380000e+00
 SP4dr  N4aq  1 4.300000e-01    3.590000e+00
 SP4dr  N5aq  1 4.300000e-01    3.590000e+00
 SP4dr  N6aq  1 4.300000e-01    3.770000e+00
 SP4dr  P1aq  1 4.300000e-01    3.970000e+00
 SP4dr  P2aq  1 4.300000e-01    4.170000e+00
 SP4dr  P3aq  1 4.300000e-01    4.170000e+00
 SP4dr  P4aq  1 4.300000e-01    4.400000e+00
 SP3dr  N1aq  1 4.300000e-01    2.930000e+00
 SP3dr  N2aq  1 4.300000e-01    3.380000e+00
 SP3dr  N3aq  1 4.300000e-01    3.380000e+00
 SP3dr  N4aq  1 4.300000e-01    3.590000e+00
 SP3dr  N5aq  1 4.300000e-01    3.590000e+00
 SP3dr  N6aq  1 4.300000e-01    3.770000e+00
 SP3dr  P1aq  1 4.300000e-01    3.970000e+00
 SP3dr  P2aq  1 4.300000e-01    4.170000e+00
 SP3dr  P3aq  1 4.300000e-01    4.170000e+00
 SP2dr  N1aq  1 4.300000e-01    3.380000e+00
 SP2dr  N2aq  1 4.300000e-01    3.380000e+00
 SP2dr  N3aq  1 4.300000e-01    3.380000e+00
 SP2dr  N4aq  1 4.300000e-01    3.590000e+00
 SP2dr  N5aq  1 4.300000e-01    3.770000e+00
 SP2dr  N6aq  1 4.300000e-01    3.970000e+00
 SP2dr  P1aq  1 4.300000e-01    3.970000e+00
 SP2dr  P2aq  1 4.300000e-01    4.170000e+00
 SP1dr  N1aq  1 4.300000e-01    3.380000e+00
 SP1dr  N2aq  1 4.300000e-01    3.380000e+00
 SP1dr  N3aq  1 4.300000e-01    3.380000e+00
 SP1dr  N4aq  1 4.300000e-01    3.770000e+00
 SP1dr  N5aq  1 4.300000e-01    3.770000e+00
 SP1dr  N6aq  1 4.300000e-01    3.970000e+00
 SP1dr  P1aq  1 4.300000e-01    3.970000e+00
 SN6dr  N1aq  1 4.300000e-01    3.380000e+00
 SN6dr  N2aq  1 4.300000e-01    3.380000e+00
 SN6dr  N3aq  1 4.300000e-01    3.590000e+00
 SN6dr  N4aq  1 4.300000e-01    3.970000e+00
 SN6dr  N5aq  1 4.300000e-01    3.970000e+00
 SN6dr  N6aq  1 4.300000e-01    3.970000e+00
 SN5dr  N1aq  1 4.300000e-01    3.380000e+00
 SN5dr  N2aq  1 4.300000e-01    3.590000e+00
 SN5dr  N3aq  1 4.300000e-01    3.590000e+00
 SN5dr  N4aq  1 4.300000e-01    3.770000e+00
 SN5dr  N5aq  1 4.300000e-01    3.770000e+00
 SN4dr  N1aq  1 4.300000e-01    3.380000e+00
 SN4dr  N2aq  1 4.300000e-01    3.590000e+00
 SN4dr  N3aq  1 4.300000e-01    3.590000e+00
 SN4dr  N4aq  1 4.300000e-01    3.770000e+00
 SN3dr  N1aq  1 4.300000e-01    3.380000e+00
 SN3dr  N2aq  1 4.300000e-01    3.590000e+00
 SN3dr  N3aq  1 4.300000e-01    3.590000e+00
 SN2dr  N1aq  1 4.300000e-01    3.380000e+00
 SN2dr  N2aq  1 4.300000e-01    3.590000e+00
 SN1dr  N1aq  1 4.300000e-01    3.590000e+00
  P6dr SP6ah  1 4.300000e-01    4.680000e+00
  P6dr SP5ah  1 4.300000e-01    4.400000e+00
  P6dr SP4ah  1 4.300000e-01    4.170000e+00
  P6dr SP3ah  1 4.300000e-01    3.970000e+00
  P6dr SP2ah  1 4.300000e-01    3.970000e+00
  P6dr SP1ah  1 4.300000e-01    3.770000e+00
  P6dr SN6ah  1 4.300000e-01    3.590000e+00
  P6dr SN5ah  1 4.300000e-01    3.160000e+00
  P6dr SN4ah  1 4.300000e-01    2.930000e+00
  P6dr SN3ah  1 4.300000e-01    2.770000e+00
  P6dr SN2ah  1 4.300000e-01    2.530000e+00
  P6dr SN1ah  1 4.300000e-01    2.320000e+00
  P5dr SP5ah  1 4.300000e-01    4.170000e+00
  P5dr SP4ah  1 4.300000e-01    3.970000e+00
  P5dr SP3ah  1 4.300000e-01    3.770000e+00
  P5dr SP2ah  1 4.300000e-01    3.770000e+00
  P5dr SP1ah  1 4.300000e-01    3.590000e+00
  P5dr SN6ah  1 4.300000e-01    3.380000e+00
  P5dr SN5ah  1 4.300000e-01    3.160000e+00
  P5dr SN4ah  1 4.300000e-01    3.160000e+00
  P5dr SN3ah  1 4.300000e-01    2.770000e+00
  P5dr SN2ah  1 4.300000e-01    2.530000e+00
  P5dr SN1ah  1 4.300000e-01    2.320000e+00
  P4dr SP4ah  1 4.300000e-01    3.970000e+00
  P4dr SP3ah  1 4.300000e-01    3.770000e+00
  P4dr SP2ah  1 4.300000e-01    3.770000e+00
  P4dr SP1ah  1 4.300000e-01    3.590000e+00
  P4dr SN6ah  1 4.300000e-01    3.380000e+00
  P4dr SN5ah  1 4.300000e-01    3.160000e+00
  P4dr SN4ah  1 4.300000e-01    3.160000e+00
  P4dr SN3ah  1 4.300000e-01    2.930000e+00
  P4dr SN2ah  1 4.300000e-01    2.770000e+00
  P4dr SN1ah  1 4.300000e-01    2.530000e+00
  P3dr SP3ah  1 4.300000e-01    3.770000e+00
  P3dr SP2ah  1 4.300000e-01    3.770000e+00
  P3dr SP1ah  1 4.300000e-01    3.590000e+00
  P3dr SN6ah  1 4.300000e-01    3.380000e+00
  P3dr SN5ah  1 4.300000e-01    3.160000e+00
  P3dr SN4ah  1 4.300000e-01    3.160000e+00
  P3dr SN3ah  1 4.300000e-01    2.930000e+00
  P3dr SN2ah  1 4.300000e-01    2.930000e+00
  P3dr SN1ah  1 4.300000e-01    2.770000e+00
  P2dr SP2ah  1 4.300000e-01    3.770000e+00
  P2dr SP1ah  1 4.300000e-01    3.590000e+00
  P2dr SN6ah  1 4.300000e-01    3.590000e+00
  P2dr SN5ah  1 4.300000e-01    3.380000e+00
  P2dr SN4ah  1 4.300000e-01    3.160000e+00
  P2dr SN3ah  1 4.300000e-01    2.930000e+00
  P2dr SN2ah  1 4.300000e-01    2.930000e+00
  P2dr SN1ah  1 4.300000e-01    2.930000e+00
  P1dr SP1ah  1 4.300000e-01    3.590000e+00
  P1dr SN6ah  1 4.300000e-01    3.590000e+00
  P1dr SN5ah  1 4.300000e-01    3.380000e+00
  P1dr SN4ah  1 4.300000e-01    3.380000e+00
  P1dr SN3ah  1 4.300000e-01    2.930000e+00
  P1dr SN2ah  1 4.300000e-01    2.930000e+00
  P1dr SN1ah  1 4.300000e-01    2.930000e+00
  N6dr SN6ah  1 4.300000e-01    3.590000e+00
  N6dr SN5ah  1 4.300000e-01    3.590000e+00
  N6dr SN4ah  1 4.300000e-01    3.590000e+00
  N6dr SN3ah  1 4.300000e-01    3.160000e+00
  N6dr SN2ah  1 4.300000e-01    2.930000e+00
  N6dr SN1ah  1 4.300000e-01    2.930000e+00
  N5dr SN5ah  1 4.300000e-01    3.380000e+00
  N5dr SN4ah  1 4.300000e-01    3.380000e+00
  N5dr SN3ah  1 4.300000e-01    3.160000e+00
  N5dr SN2ah  1 4.300000e-01    3.160000e+00
  N5dr SN1ah  1 4.300000e-01    2.930000e+00
  N4dr SN4ah  1 4.300000e-01    3.380000e+00
  N4dr SN3ah  1 4.300000e-01    3.160000e+00
  N4dr SN2ah  1 4.300000e-01    3.160000e+00
  N4dr SN1ah  1 4.300000e-01    2.930000e+00
  N3dr SN3ah  1 4.300000e-01    3.160000e+00
  N3dr SN2ah  1 4.300000e-01    3.160000e+00
  N3dr SN1ah  1 4.300000e-01    2.930000e+00
  N2dr SN2ah  1 4.300000e-01    3.160000e+00
  N2dr SN1ah  1 4.300000e-01    2.930000e+00
  N1dr SN1ah  1 4.300000e-01    3.160000e+00
 SP6dr  P6ah  1 4.300000e-01    4.680000e+00
 SP6dr  P5ah  1 4.300000e-01    4.400000e+00
 SP6dr  P4ah  1 4.300000e-01    4.170000e+00
 SP6dr  P3ah  1 4.300000e-01    3.970000e+00
 SP6dr  P2ah  1 4.300000e-01    3.970000e+00
 SP6dr  P1ah  1 4.300000e-01    3.770000e+00
 SP6dr  N6ah  1 4.300000e-01    3.590000e+00
 SP6dr  N5ah  1 4.300000e-01    3.160000e+00
 SP6dr  N4ah  1 4.300000e-01    2.930000e+00
 SP6dr  N3ah  1 4.300000e-01    2.770000e+00
 SP6dr  N2ah  1 4.300000e-01    2.530000e+00
 SP6dr  N1ah  1 4.300000e-01    2.320000e+00
 SP5dr  P5ah  1 4.300000e-01    4.170000e+00
 SP5dr  P4ah  1 4.300000e-01    3.970000e+00
 SP5dr  P3ah  1 4.300000e-01    3.770000e+00
 SP5dr  P2ah  1 4.300000e-01    3.770000e+00
 SP5dr  P1ah  1 4.300000e-01    3.590000e+00
 SP5dr  N6ah  1 4.300000e-01    3.380000e+00
 SP5dr  N5ah  1 4.300000e-01    3.160000e+00
 SP5dr  N4ah  1 4.300000e-01    3.160000e+00
 SP5dr  N3ah  1 4.300000e-01    2.770000e+00
 SP5dr  N2ah  1 4.300000e-01    2.530000e+00
 SP5dr  N1ah  1 4.300000e-01    2.320000e+00
 SP4dr  P4ah  1 4.300000e-01    3.970000e+00
 SP4dr  P3ah  1 4.300000e-01    3.770000e+00
 SP4dr  P2ah  1 4.300000e-01    3.770000e+00
 SP4dr  P1ah  1 4.300000e-01    3.590000e+00
 SP4dr  N6ah  1 4.300000e-01    3.380000e+00
 SP4dr  N5ah  1 4.300000e-01    3.160000e+00
 SP4dr  N4ah  1 4.300000e-01    3.160000e+00
 SP4dr  N3ah  1 4.300000e-01    2.930000e+00
 SP4dr  N2ah  1 4.300000e-01    2.770000e+00
 SP4dr  N1ah  1 4.300000e-01    2.530000e+00
 SP3dr  P3ah  1 4.300000e-01    3.770000e+00
 SP3dr  P2ah  1 4.300000e-01    3.770000e+00
 SP3dr  P1ah  1 4.300000e-01    3.590000e+00
 SP3dr  N6ah  1 4.300000e-01    3.380000e+00
 SP3dr  N5ah  1 4.300000e-01    3.160000e+00
 SP3dr  N4ah  1 4.300000e-01    3.160000e+00
 SP3dr  N3ah  1 4.300000e-01    2.930000e+00
 SP3dr  N2ah  1 4.300000e-01    2.930000e+00
 SP3dr  N1ah  1 4.300000e-01    2.770000e+00
 SP2dr  P2ah  1 4.300000e-01    3.770000e+00
 SP2dr  P1ah  1 4.300000e-01    3.590000e+00
 SP2dr  N6ah  1 4.300000e-01    3.590000e+00
 SP2dr  N5ah  1 4.300000e-01    3.380000e+00
 SP2dr  N4ah  1 4.300000e-01    3.160000e+00
 SP2dr  N3ah  1 4.300000e-01    2.930000e+00
 SP2dr  N2ah  1 4.300000e-01    2.930000e+00
 SP2dr  N1ah  1 4.300000e-01    2.930000e+00
 SP1dr  P1ah  1 4.300000e-01    3.590000e+00
 SP1dr  N6ah  1 4.300000e-01    3.590000e+00
 SP1dr  N5ah  1 4.300000e-01    3.380000e+00
 SP1dr  N4ah  1 4.300000e-01    3.380000e+00
 SP1dr  N3ah  1 4.300000e-01    2.930000e+00
 SP1dr  N2ah  1 4.300000e-01    2.930000e+00
 SP1dr  N1ah  1 4.300000e-01    2.930000e+00
 SN6dr  N6ah  1 4.300000e-01    3.590000e+00
 SN6dr  N5ah  1 4.300000e-01    3.590000e+00
 SN6dr  N4ah  1 4.300000e-01    3.590000e+00
 SN6dr  N3ah  1 4.300000e-01    3.160000e+00
 SN6dr  N2ah  1 4.300000e-01    2.930000e+00
 SN6dr  N1ah  1 4.300000e-01    2.930000e+00
 SN5dr  N5ah  1 4.300000e-01    3.380000e+00
 SN5dr  N4ah  1 4.300000e-01    3.380000e+00
 SN5dr  N3ah  1 4.300000e-01    3.160000e+00
 SN5dr  N2ah  1 4.300000e-01    3.160000e+00
 SN5dr  N1ah  1 4.300000e-01    2.930000e+00
 SN4dr  N4ah  1 4.300000e-01    3.380000e+00
 SN4dr  N3ah  1 4.300000e-01    3.160000e+00
 SN4dr  N2ah  1 4.300000e-01    3.160000e+00
 SN4dr  N1ah  1 4.300000e-01    2.930000e+00
 SN3dr  N3ah  1 4.300000e-01    3.160000e+00
 SN3dr  N2ah  1 4.300000e-01    3.160000e+00
 SN3dr  N1ah  1 4.300000e-01    2.930000e+00
 SN2dr  N2ah  1 4.300000e-01    3.160000e+00
 SN2dr  N1ah  1 4.300000e-01    2.930000e+00
 SN1dr  N1ah  1 4.300000e-01    3.160000e+00
  P6dr SP6ar  1 4.300000e-01    4.400000e+00
  P6dr SP5ar  1 4.300000e-01    4.170000e+00
  P6dr SP4ar  1 4.300000e-01    3.970000e+00
  P6dr SP3ar  1 4.300000e-01    3.770000e+00
  P6dr SP2ar  1 4.300000e-01    3.770000e+00
  P6dr SP1ar  1 4.300000e-01    3.590000e+00
  P6dr SN6ar  1 4.300000e-01    3.380000e+00
  P6dr SN5ar  1 4.300000e-01    2.930000e+00
  P6dr SN4ar  1 4.300000e-01    2.920000e+00
  P6dr SN3ar  1 4.300000e-01    2.530000e+00
  P6dr SN2ar  1 4.300000e-01    2.320000e+00
  P6dr SN1ar  1 4.300000e-01    2.160000e+00
  P5dr SP5ar  1 4.300000e-01    3.970000e+00
  P5dr SP4ar  1 4.300000e-01    3.770000e+00
  P5dr SP3ar  1 4.300000e-01    3.590000e+00
  P5dr SP2ar  1 4.300000e-01    3.590000e+00
  P5dr SP1ar  1 4.300000e-01    3.380000e+00
  P5dr SN6ar  1 4.300000e-01    3.160000e+00
  P5dr SN5ar  1 4.300000e-01    2.930000e+00
  P5dr SN4ar  1 4.300000e-01    2.930000e+00
  P5dr SN3ar  1 4.300000e-01    2.530000e+00
  P5dr SN2ar  1 4.300000e-01    2.320000e+00
  P5dr SN1ar  1 4.300000e-01    2.160000e+00
  P4dr SP4ar  1 4.300000e-01    3.770000e+00
  P4dr SP3ar  1 4.300000e-01    3.590000e+00
  P4dr SP2ar  1 4.300000e-01    3.590000e+00
  P4dr SP1ar  1 4.300000e-01    3.380000e+00
  P4dr SN6ar  1 4.300000e-01    3.160000e+00
  P4dr SN5ar  1 4.300000e-01    2.930000e+00
  P4dr SN4ar  1 4.300000e-01    2.930000e+00
  P4dr SN3ar  1 4.300000e-01    2.920000e+00
  P4dr SN2ar  1 4.300000e-01    2.530000e+00
  P4dr SN1ar  1 4.300000e-01    2.320000e+00
  P3dr SP3ar  1 4.300000e-01    3.590000e+00
  P3dr SP2ar  1 4.300000e-01    3.590000e+00
  P3dr SP1ar  1 4.300000e-01    3.380000e+00
  P3dr SN6ar  1 4.300000e-01    3.160000e+00
  P3dr SN5ar  1 4.300000e-01    2.930000e+00
  P3dr SN4ar  1 4.300000e-01    2.930000e+00
  P3dr SN3ar  1 4.300000e-01    2.920000e+00
  P3dr SN2ar  1 4.300000e-01    2.920000e+00
  P3dr SN1ar  1 4.300000e-01    2.530000e+00
  P2dr SP2ar  1 4.300000e-01    3.590000e+00
  P2dr SP1ar  1 4.300000e-01    3.380000e+00
  P2dr SN6ar  1 4.300000e-01    3.380000e+00
  P2dr SN5ar  1 4.300000e-01    3.160000e+00
  P2dr SN4ar  1 4.300000e-01    2.930000e+00
  P2dr SN3ar  1 4.300000e-01    2.920000e+00
  P2dr SN2ar  1 4.300000e-01    2.920000e+00
  P2dr SN1ar  1 4.300000e-01    2.920000e+00
  P1dr SP1ar  1 4.300000e-01    3.380000e+00
  P1dr SN6ar  1 4.300000e-01    3.380000e+00
  P1dr SN5ar  1 4.300000e-01    3.160000e+00
  P1dr SN4ar  1 4.300000e-01    3.160000e+00
  P1dr SN3ar  1 4.300000e-01    2.920000e+00
  P1dr SN2ar  1 4.300000e-01    2.920000e+00
  P1dr SN1ar  1 4.300000e-01    2.920000e+00
  N6dr SN6ar  1 4.300000e-01    3.380000e+00
  N6dr SN5ar  1 4.300000e-01    3.380000e+00
  N6dr SN4ar  1 4.300000e-01    3.380000e+00
  N6dr SN3ar  1 4.300000e-01    2.930000e+00
  N6dr SN2ar  1 4.300000e-01    2.920000e+00
  N6dr SN1ar  1 4.300000e-01    2.920000e+00
  N5dr SN5ar  1 4.300000e-01    3.160000e+00
  N5dr SN4ar  1 4.300000e-01    3.160000e+00
  N5dr SN3ar  1 4.300000e-01    2.930000e+00
  N5dr SN2ar  1 4.300000e-01    2.930000e+00
  N5dr SN1ar  1 4.300000e-01    2.920000e+00
  N4dr SN4ar  1 4.300000e-01    3.160000e+00
  N4dr SN3ar  1 4.300000e-01    2.930000e+00
  N4dr SN2ar  1 4.300000e-01    2.930000e+00
  N4dr SN1ar  1 4.300000e-01    2.920000e+00
  N3dr SN3ar  1 4.300000e-01    2.930000e+00
  N3dr SN2ar  1 4.300000e-01    2.930000e+00
  N3dr SN1ar  1 4.300000e-01    2.920000e+00
  N2dr SN2ar  1 4.300000e-01    2.930000e+00
  N2dr SN1ar  1 4.300000e-01    2.920000e+00
  N1dr SN1ar  1 4.300000e-01    2.930000e+00
 SP6dr  P6ar  1 4.300000e-01    4.400000e+00
 SP6dr  P5ar  1 4.300000e-01    4.170000e+00
 SP6dr  P4ar  1 4.300000e-01    3.970000e+00
 SP6dr  P3ar  1 4.300000e-01    3.770000e+00
 SP6dr  P2ar  1 4.300000e-01    3.770000e+00
 SP6dr  P1ar  1 4.300000e-01    3.590000e+00
 SP6dr  N6ar  1 4.300000e-01    3.380000e+00
 SP6dr  N5ar  1 4.300000e-01    2.930000e+00
 SP6dr  N4ar  1 4.300000e-01    2.920000e+00
 SP6dr  N3ar  1 4.300000e-01    2.530000e+00
 SP6dr  N2ar  1 4.300000e-01    2.320000e+00
 SP6dr  N1ar  1 4.300000e-01    2.160000e+00
 SP5dr  P5ar  1 4.300000e-01    3.970000e+00
 SP5dr  P4ar  1 4.300000e-01    3.770000e+00
 SP5dr  P3ar  1 4.300000e-01    3.590000e+00
 SP5dr  P2ar  1 4.300000e-01    3.590000e+00
 SP5dr  P1ar  1 4.300000e-01    3.380000e+00
 SP5dr  N6ar  1 4.300000e-01    3.160000e+00
 SP5dr  N5ar  1 4.300000e-01    2.930000e+00
 SP5dr  N4ar  1 4.300000e-01    2.930000e+00
 SP5dr  N3ar  1 4.300000e-01    2.530000e+00
 SP5dr  N2ar  1 4.300000e-01    2.320000e+00
 SP5dr  N1ar  1 4.300000e-01    2.160000e+00
 SP4dr  P4ar  1 4.300000e-01    3.770000e+00
 SP4dr  P3ar  1 4.300000e-01    3.590000e+00
 SP4dr  P2ar  1 4.300000e-01    3.590000e+00
 SP4dr  P1ar  1 4.300000e-01    3.380000e+00
 SP4dr  N6ar  1 4.300000e-01    3.160000e+00
 SP4dr  N5ar  1 4.300000e-01    2.930000e+00
 SP4dr  N4ar  1 4.300000e-01    2.930000e+00
 SP4dr  N3ar  1 4.300000e-01    2.920000e+00
 SP4dr  N2ar  1 4.300000e-01    2.530000e+00
 SP4dr  N1ar  1 4.300000e-01    2.320000e+00
 SP3dr  P3ar  1 4.300000e-01    3.590000e+00
 SP3dr  P2ar  1 4.300000e-01    3.590000e+00
 SP3dr  P1ar  1 4.300000e-01    3.380000e+00
 SP3dr  N6ar  1 4.300000e-01    3.160000e+00
 SP3dr  N5ar  1 4.300000e-01    2.930000e+00
 SP3dr  N4ar  1 4.300000e-01    2.930000e+00
 SP3dr  N3ar  1 4.300000e-01    2.920000e+00
 SP3dr  N2ar  1 4.300000e-01    2.920000e+00
 SP3dr  N1ar  1 4.300000e-01    2.530000e+00
 SP2dr  P2ar  1 4.300000e-01    3.590000e+00
 SP2dr  P1ar  1 4.300000e-01    3.380000e+00
 SP2dr  N6ar  1 4.300000e-01    3.380000e+00
 SP2dr  N5ar  1 4.300000e-01    3.160000e+00
 SP2dr  N4ar  1 4.300000e-01    2.930000e+00
 SP2dr  N3ar  1 4.300000e-01    2.920000e+00
 SP2dr  N2ar  1 4.300000e-01    2.920000e+00
 SP2dr  N1ar  1 4.300000e-01    2.920000e+00
 SP1dr  P1ar  1 4.300000e-01    3.380000e+00
 SP1dr  N6ar  1 4.300000e-01    3.380000e+00
 SP1dr  N5ar  1 4.300000e-01    3.160000e+00
 SP1dr  N4ar  1 4.300000e-01    3.160000e+00
 SP1dr  N3ar  1 4.300000e-01    2.920000e+00
 SP1dr  N2ar  1 4.300000e-01    2.920000e+00
 SP1dr  N1ar  1 4.300000e-01    2.920000e+00
 SN6dr  N6ar  1 4.300000e-01    3.380000e+00
 SN6dr  N5ar  1 4.300000e-01    3.380000e+00
 SN6dr  N4ar  1 4.300000e-01    3.380000e+00
 SN6dr  N3ar  1 4.300000e-01    2.930000e+00
 SN6dr  N2ar  1 4.300000e-01    2.920000e+00
 SN6dr  N1ar  1 4.300000e-01    2.920000e+00
 SN5dr  N5ar  1 4.300000e-01    3.160000e+00
 SN5dr  N4ar  1 4.300000e-01    3.160000e+00
 SN5dr  N3ar  1 4.300000e-01    2.930000e+00
 SN5dr  N2ar  1 4.300000e-01    2.930000e+00
 SN5dr  N1ar  1 4.300000e-01    2.920000e+00
 SN4dr  N4ar  1 4.300000e-01    3.160000e+00
 SN4dr  N3ar  1 4.300000e-01    2.930000e+00
 SN4dr  N2ar  1 4.300000e-01    2.930000e+00
 SN4dr  N1ar  1 4.300000e-01    2.920000e+00
 SN3dr  N3ar  1 4.300000e-01    2.930000e+00
 SN3dr  N2ar  1 4.300000e-01    2.930000e+00
 SN3dr  N1ar  1 4.300000e-01    2.920000e+00
 SN2dr  N2ar  1 4.300000e-01    2.930000e+00
 SN2dr  N1ar  1 4.300000e-01    2.920000e+00
 SN1dr  N1ar  1 4.300000e-01    2.930000e+00
   P6a  SP5d  1 4.300000e-01    4.400000e+00
   P6a  SP4d  1 4.300000e-01    4.170000e+00
   P6a  SP3d  1 4.300000e-01    3.970000e+00
   P6a  SP2d  1 4.300000e-01    3.970000e+00
   P6a  SP1d  1 4.300000e-01    3.770000e+00
   P6a  SN6d  1 4.300000e-01    3.590000e+00
   P6a  SN5d  1 4.300000e-01    3.160000e+00
   P6a  SN4d  1 4.300000e-01    2.930000e+00
   P6a  SN3d  1 4.300000e-01    2.770000e+00
   P6a  SN2d  1 4.300000e-01    2.530000e+00
   P6a  SN1d  1 4.300000e-01    2.320000e+00
   P5a  SP4d  1 4.300000e-01    3.970000e+00
   P5a  SP3d  1 4.300000e-01    3.770000e+00
   P5a  SP2d  1 4.300000e-01    3.770000e+00
   P5a  SP1d  1 4.300000e-01    3.590000e+00
   P5a  SN6d  1 4.300000e-01    3.380000e+00
   P5a  SN5d  1 4.300000e-01    3.160000e+00
   P5a  SN4d  1 4.300000e-01    3.160000e+00
   P5a  SN3d  1 4.300000e-01    2.770000e+00
   P5a  SN2d  1 4.300000e-01    2.530000e+00
   P5a  SN1d  1 4.300000e-01    2.320000e+00
   P4a  SP3d  1 4.300000e-01    3.770000e+00
   P4a  SP2d  1 4.300000e-01    3.770000e+00
   P4a  SP1d  1 4.300000e-01    3.590000e+00
   P4a  SN6d  1 4.300000e-01    3.380000e+00
   P4a  SN5d  1 4.300000e-01    3.160000e+00
   P4a  SN4d  1 4.300000e-01    3.160000e+00
   P4a  SN3d  1 4.300000e-01    2.930000e+00
   P4a  SN2d  1 4.300000e-01    2.770000e+00
   P4a  SN1d  1 4.300000e-01    2.530000e+00
   P3a  SP2d  1 4.300000e-01    3.770000e+00
   P3a  SP1d  1 4.300000e-01    3.590000e+00
   P3a  SN6d  1 4.300000e-01    3.380000e+00
   P3a  SN5d  1 4.300000e-01    3.160000e+00
   P3a  SN4d  1 4.300000e-01    3.160000e+00
   P3a  SN3d  1 4.300000e-01    2.930000e+00
   P3a  SN2d  1 4.300000e-01    2.930000e+00
   P3a  SN1d  1 4.300000e-01    2.770000e+00
   P2a  SP1d  1 4.300000e-01    3.590000e+00
   P2a  SN6d  1 4.300000e-01    3.590000e+00
   P2a  SN5d  1 4.300000e-01    3.380000e+00
   P2a  SN4d  1 4.300000e-01    3.160000e+00
   P2a  SN3d  1 4.300000e-01    2.930000e+00
   P2a  SN2d  1 4.300000e-01    2.930000e+00
   P2a  SN1d  1 4.300000e-01    2.930000e+00
   P1a  SN6d  1 4.300000e-01    3.590000e+00
   P1a  SN5d  1 4.300000e-01    3.380000e+00
   P1a  SN4d  1 4.300000e-01    3.380000e+00
   P1a  SN3d  1 4.300000e-01    2.930000e+00
   P1a  SN2d  1 4.300000e-01    2.930000e+00
   P1a  SN1d  1 4.300000e-01    2.930000e+00
   N6a  SN5d  1 4.300000e-01    3.590000e+00
   N6a  SN4d  1 4.300000e-01    3.590000e+00
   N6a  SN3d  1 4.300000e-01    3.160000e+00
   N6a  SN2d  1 4.300000e-01    2.930000e+00
   N6a  SN1d  1 4.300000e-01    2.930000e+00
   N5a  SN4d  1 4.300000e-01    3.380000e+00
   N5a  SN3d  1 4.300000e-01    3.160000e+00
   N5a  SN2d  1 4.300000e-01    3.160000e+00
   N5a  SN1d  1 4.300000e-01    2.930000e+00
   N4a  SN3d  1 4.300000e-01    3.160000e+00
   N4a  SN2d  1 4.300000e-01    3.160000e+00
   N4a  SN1d  1 4.300000e-01    2.930000e+00
   N3a  SN2d  1 4.300000e-01    3.160000e+00
   N3a  SN1d  1 4.300000e-01    2.930000e+00
   N2a  SN1d  1 4.300000e-01    2.930000e+00
  SP6a   P5d  1 4.300000e-01    4.400000e+00
  SP6a   P4d  1 4.300000e-01    4.170000e+00
  SP6a   P3d  1 4.300000e-01    3.970000e+00
  SP6a   P2d  1 4.300000e-01    3.970000e+00
  SP6a   P1d  1 4.300000e-01    3.770000e+00
  SP6a   N6d  1 4.300000e-01    3.590000e+00
  SP6a   N5d  1 4.300000e-01    3.160000e+00
  SP6a   N4d  1 4.300000e-01    2.930000e+00
  SP6a   N3d  1 4.300000e-01    2.770000e+00
  SP6a   N2d  1 4.300000e-01    2.530000e+00
  SP6a   N1d  1 4.300000e-01    2.320000e+00
  SP5a   P4d  1 4.300000e-01    3.970000e+00
  SP5a   P3d  1 4.300000e-01    3.770000e+00
  SP5a   P2d  1 4.300000e-01    3.770000e+00
  SP5a   P1d  1 4.300000e-01    3.590000e+00
  SP5a   N6d  1 4.300000e-01    3.380000e+00
  SP5a   N5d  1 4.300000e-01    3.160000e+00
  SP5a   N4d  1 4.300000e-01    3.160000e+00
  SP5a   N3d  1 4.300000e-01    2.770000e+00
  SP5a   N2d  1 4.300000e-01    2.530000e+00
  SP5a   N1d  1 4.300000e-01    2.320000e+00
  SP4a   P3d  1 4.300000e-01    3.770000e+00
  SP4a   P2d  1 4.300000e-01    3.770000e+00
  SP4a   P1d  1 4.300000e-01    3.590000e+00
  SP4a   N6d  1 4.300000e-01    3.380000e+00
  SP4a   N5d  1 4.300000e-01    3.160000e+00
  SP4a   N4d  1 4.300000e-01    3.160000e+00
  SP4a   N3d  1 4.300000e-01    2.930000e+00
  SP4a   N2d  1 4.300000e-01    2.770000e+00
  SP4a   N1d  1 4.300000e-01    2.530000e+00
  SP3a   P2d  1 4.300000e-01    3.770000e+00
  SP3a   P1d  1 4.300000e-01    3.590000e+00
  SP3a   N6d  1 4.300000e-01    3.380000e+00
  SP3a   N5d  1 4.300000e-01    3.160000e+00
  SP3a   N4d  1 4.300000e-01    3.160000e+00
  SP3a   N3d  1 4.300000e-01    2.930000e+00
  SP3a   N2d  1 4.300000e-01    2.930000e+00
  SP3a   N1d  1 4.300000e-01    2.770000e+00
  SP2a   P1d  1 4.300000e-01    3.590000e+00
  SP2a   N6d  1 4.300000e-01    3.590000e+00
  SP2a   N5d  1 4.300000e-01    3.380000e+00
  SP2a   N4d  1 4.300000e-01    3.160000e+00
  SP2a   N3d  1 4.300000e-01    2.930000e+00
  SP2a   N2d  1 4.300000e-01    2.930000e+00
  SP2a   N1d  1 4.300000e-01    2.930000e+00
  SP1a   N6d  1 4.300000e-01    3.590000e+00
  SP1a   N5d  1 4.300000e-01    3.380000e+00
  SP1a   N4d  1 4.300000e-01    3.380000e+00
  SP1a   N3d  1 4.300000e-01    2.930000e+00
  SP1a   N2d  1 4.300000e-01    2.930000e+00
  SP1a   N1d  1 4.300000e-01    2.930000e+00
  SN6a   N5d  1 4.300000e-01    3.590000e+00
  SN6a   N4d  1 4.300000e-01    3.590000e+00
  SN6a   N3d  1 4.300000e-01    3.160000e+00
  SN6a   N2d  1 4.300000e-01    2.930000e+00
  SN6a   N1d  1 4.300000e-01    2.930000e+00
  SN5a   N4d  1 4.300000e-01    3.380000e+00
  SN5a   N3d  1 4.300000e-01    3.160000e+00
  SN5a   N2d  1 4.300000e-01    3.160000e+00
  SN5a   N1d  1 4.300000e-01    2.930000e+00
  SN4a   N3d  1 4.300000e-01    3.160000e+00
  SN4a   N2d  1 4.300000e-01    3.160000e+00
  SN4a   N1d  1 4.300000e-01    2.930000e+00
  SN3a   N2d  1 4.300000e-01    3.160000e+00
  SN3a   N1d  1 4.300000e-01    2.930000e+00
  SN2a   N1d  1 4.300000e-01    2.930000e+00
   P6a SP5dq  1 4.300000e-01    4.920000e+00
   P6a SP4dq  1 4.300000e-01    4.680000e+00
   P5a SP4dq  1 4.300000e-01    4.400000e+00
   P6a SP3dq  1 4.300000e-01    4.400000e+00
   P5a SP3dq  1 4.300000e-01    4.170000e+00
   P4a SP3dq  1 4.300000e-01    4.170000e+00
   P6a SP2dq  1 4.300000e-01    4.400000e+00
   P5a SP2dq  1 4.300000e-01    4.170000e+00
   P4a SP2dq  1 4.300000e-01    4.170000e+00
   P3a SP2dq  1 4.300000e-01    4.170000e+00
   P6a SP1dq  1 4.300000e-01    4.170000e+00
   P5a SP1dq  1 4.300000e-01    3.970000e+00
   P4a SP1dq  1 4.300000e-01    3.970000e+00
   P3a SP1dq  1 4.300000e-01    3.970000e+00
   P2a SP1dq  1 4.300000e-01    3.970000e+00
   P6a SN6dq  1 4.300000e-01    3.970000e+00
   P5a SN6dq  1 4.300000e-01    3.770000e+00
   P4a SN6dq  1 4.300000e-01    3.770000e+00
   P3a SN6dq  1 4.300000e-01    3.770000e+00
   P2a SN6dq  1 4.300000e-01    3.970000e+00
   P1a SN6dq  1 4.300000e-01    3.970000e+00
   P6a SN5dq  1 4.300000e-01    3.590000e+00
   P5a SN5dq  1 4.300000e-01    3.590000e+00
   P4a SN5dq  1 4.300000e-01    3.590000e+00
   P3a SN5dq  1 4.300000e-01    3.590000e+00
   P2a SN5dq  1 4.300000e-01    3.770000e+00
   P1a SN5dq  1 4.300000e-01    3.770000e+00
   N6a SN5dq  1 4.300000e-01    3.970000e+00
   P6a SN4dq  1 4.300000e-01    3.380000e+00
   P5a SN4dq  1 4.300000e-01    3.590000e+00
   P4a SN4dq  1 4.300000e-01    3.590000e+00
   P3a SN4dq  1 4.300000e-01    3.590000e+00
   P2a SN4dq  1 4.300000e-01    3.590000e+00
   P1a SN4dq  1 4.300000e-01    3.770000e+00
   N6a SN4dq  1 4.300000e-01    3.970000e+00
   N5a SN4dq  1 4.300000e-01    3.770000e+00
   P6a SN3dq  1 4.300000e-01    2.930000e+00
   P5a SN3dq  1 4.300000e-01    2.930000e+00
   P4a SN3dq  1 4.300000e-01    3.380000e+00
   P3a SN3dq  1 4.300000e-01    3.380000e+00
   P2a SN3dq  1 4.300000e-01    3.380000e+00
   P1a SN3dq  1 4.300000e-01    3.380000e+00
   N6a SN3dq  1 4.300000e-01    3.590000e+00
   N5a SN3dq  1 4.300000e-01    3.590000e+00
   N4a SN3dq  1 4.300000e-01    3.590000e+00
   P6a SN2dq  1 4.300000e-01    2.920000e+00
   P5a SN2dq  1 4.300000e-01    2.920000e+00
   P4a SN2dq  1 4.300000e-01    2.930000e+00
   P3a SN2dq  1 4.300000e-01    3.380000e+00
   P2a SN2dq  1 4.300000e-01    3.380000e+00
   P1a SN2dq  1 4.300000e-01    3.380000e+00
   N6a SN2dq  1 4.300000e-01    3.380000e+00
   N5a SN2dq  1 4.300000e-01    3.590000e+00
   N4a SN2dq  1 4.300000e-01    3.590000e+00
   N3a SN2dq  1 4.300000e-01    3.590000e+00
   P6a SN1dq  1 4.300000e-01    2.770000e+00
   P5a SN1dq  1 4.300000e-01    2.770000e+00
   P4a SN1dq  1 4.300000e-01    2.920000e+00
   P3a SN1dq  1 4.300000e-01    2.930000e+00
   P2a SN1dq  1 4.300000e-01    3.380000e+00
   P1a SN1dq  1 4.300000e-01    3.380000e+00
   N6a SN1dq  1 4.300000e-01    3.380000e+00
   N5a SN1dq  1 4.300000e-01    3.380000e+00
   N4a SN1dq  1 4.300000e-01    3.380000e+00
   N3a SN1dq  1 4.300000e-01    3.380000e+00
   N2a SN1dq  1 4.300000e-01    3.380000e+00
  SP6a  P5dq  1 4.300000e-01    4.920000e+00
  SP6a  P4dq  1 4.300000e-01    4.680000e+00
  SP5a  P4dq  1 4.300000e-01    4.400000e+00
  SP6a  P3dq  1 4.300000e-01    4.400000e+00
  SP5a  P3dq  1 4.300000e-01    4.170000e+00
  SP4a  P3dq  1 4.300000e-01    4.170000e+00
  SP6a  P2dq  1 4.300000e-01    4.400000e+00
  SP5a  P2dq  1 4.300000e-01    4.170000e+00
  SP4a  P2dq  1 4.300000e-01    4.170000e+00
  SP3a  P2dq  1 4.300000e-01    4.170000e+00
  SP6a  P1dq  1 4.300000e-01    4.170000e+00
  SP5a  P1dq  1 4.300000e-01    3.970000e+00
  SP4a  P1dq  1 4.300000e-01    3.970000e+00
  SP3a  P1dq  1 4.300000e-01    3.970000e+00
  SP2a  P1dq  1 4.300000e-01    3.970000e+00
  SP6a  N6dq  1 4.300000e-01    3.970000e+00
  SP5a  N6dq  1 4.300000e-01    3.770000e+00
  SP4a  N6dq  1 4.300000e-01    3.770000e+00
  SP3a  N6dq  1 4.300000e-01    3.770000e+00
  SP2a  N6dq  1 4.300000e-01    3.970000e+00
  SP1a  N6dq  1 4.300000e-01    3.970000e+00
  SP6a  N5dq  1 4.300000e-01    3.590000e+00
  SP5a  N5dq  1 4.300000e-01    3.590000e+00
  SP4a  N5dq  1 4.300000e-01    3.590000e+00
  SP3a  N5dq  1 4.300000e-01    3.590000e+00
  SP2a  N5dq  1 4.300000e-01    3.770000e+00
  SP1a  N5dq  1 4.300000e-01    3.770000e+00
  SN6a  N5dq  1 4.300000e-01    3.970000e+00
  SP6a  N4dq  1 4.300000e-01    3.380000e+00
  SP5a  N4dq  1 4.300000e-01    3.590000e+00
  SP4a  N4dq  1 4.300000e-01    3.590000e+00
  SP3a  N4dq  1 4.300000e-01    3.590000e+00
  SP2a  N4dq  1 4.300000e-01    3.590000e+00
  SP1a  N4dq  1 4.300000e-01    3.770000e+00
  SN6a  N4dq  1 4.300000e-01    3.970000e+00
  SN5a  N4dq  1 4.300000e-01    3.770000e+00
  SP6a  N3dq  1 4.300000e-01    2.930000e+00
  SP5a  N3dq  1 4.300000e-01    2.930000e+00
  SP4a  N3dq  1 4.300000e-01    3.380000e+00
  SP3a  N3dq  1 4.300000e-01    3.380000e+00
  SP2a  N3dq  1 4.300000e-01    3.380000e+00
  SP1a  N3dq  1 4.300000e-01    3.380000e+00
  SN6a  N3dq  1 4.300000e-01    3.590000e+00
  SN5a  N3dq  1 4.300000e-01    3.590000e+00
  SN4a  N3dq  1 4.300000e-01    3.590000e+00
  SP6a  N2dq  1 4.300000e-01    2.920000e+00
  SP5a  N2dq  1 4.300000e-01    2.920000e+00
  SP4a  N2dq  1 4.300000e-01    2.930000e+00
  SP3a  N2dq  1 4.300000e-01    3.380000e+00
  SP2a  N2dq  1 4.300000e-01    3.380000e+00
  SP1a  N2dq  1 4.300000e-01    3.380000e+00
  SN6a  N2dq  1 4.300000e-01    3.380000e+00
  SN5a  N2dq  1 4.300000e-01    3.590000e+00
  SN4a  N2dq  1 4.300000e-01    3.590000e+00
  SN3a  N2dq  1 4.300000e-01    3.590000e+00
  SP6a  N1dq  1 4.300000e-01    2.770000e+00
  SP5a  N1dq  1 4.300000e-01    2.770000e+00
  SP4a  N1dq  1 4.300000e-01    2.920000e+00
  SP3a  N1dq  1 4.300000e-01    2.930000e+00
  SP2a  N1dq  1 4.300000e-01    3.380000e+00
  SP1a  N1dq  1 4.300000e-01    3.380000e+00
  SN6a  N1dq  1 4.300000e-01    3.380000e+00
  SN5a  N1dq  1 4.300000e-01    3.380000e+00
  SN4a  N1dq  1 4.300000e-01    3.380000e+00
  SN3a  N1dq  1 4.300000e-01    3.380000e+00
  SN2a  N1dq  1 4.300000e-01    3.380000e+00
   P6a SP5dh  1 4.300000e-01    4.400000e+00
   P6a SP4dh  1 4.300000e-01    4.170000e+00
   P5a SP4dh  1 4.300000e-01    3.970000e+00
   P6a SP3dh  1 4.300000e-01    3.970000e+00
   P5a SP3dh  1 4.300000e-01    3.770000e+00
   P4a SP3dh  1 4.300000e-01    3.770000e+00
   P6a SP2dh  1 4.300000e-01    3.970000e+00
   P5a SP2dh  1 4.300000e-01    3.770000e+00
   P4a SP2dh  1 4.300000e-01    3.770000e+00
   P3a SP2dh  1 4.300000e-01    3.770000e+00
   P6a SP1dh  1 4.300000e-01    3.770000e+00
   P5a SP1dh  1 4.300000e-01    3.590000e+00
   P4a SP1dh  1 4.300000e-01    3.590000e+00
   P3a SP1dh  1 4.300000e-01    3.590000e+00
   P2a SP1dh  1 4.300000e-01    3.590000e+00
   P6a SN6dh  1 4.300000e-01    3.590000e+00
   P5a SN6dh  1 4.300000e-01    3.380000e+00
   P4a SN6dh  1 4.300000e-01    3.380000e+00
   P3a SN6dh  1 4.300000e-01    3.380000e+00
   P2a SN6dh  1 4.300000e-01    3.590000e+00
   P1a SN6dh  1 4.300000e-01    3.590000e+00
   P6a SN5dh  1 4.300000e-01    3.160000e+00
   P5a SN5dh  1 4.300000e-01    3.160000e+00
   P4a SN5dh  1 4.300000e-01    3.160000e+00
   P3a SN5dh  1 4.300000e-01    3.160000e+00
   P2a SN5dh  1 4.300000e-01    3.380000e+00
   P1a SN5dh  1 4.300000e-01    3.380000e+00
   N6a SN5dh  1 4.300000e-01    3.590000e+00
   P6a SN4dh  1 4.300000e-01    2.930000e+00
   P5a SN4dh  1 4.300000e-01    3.160000e+00
   P4a SN4dh  1 4.300000e-01    3.160000e+00
   P3a SN4dh  1 4.300000e-01    3.160000e+00
   P2a SN4dh  1 4.300000e-01    3.160000e+00
   P1a SN4dh  1 4.300000e-01    3.380000e+00
   N6a SN4dh  1 4.300000e-01    3.590000e+00
   N5a SN4dh  1 4.300000e-01    3.380000e+00
   P6a SN3dh  1 4.300000e-01    2.770000e+00
   P5a SN3dh  1 4.300000e-01    2.770000e+00
   P4a SN3dh  1 4.300000e-01    2.930000e+00
   P3a SN3dh  1 4.300000e-01    2.930000e+00
   P2a SN3dh  1 4.300000e-01    2.930000e+00
   P1a SN3dh  1 4.300000e-01    2.930000e+00
   N6a SN3dh  1 4.300000e-01    3.160000e+00
   N5a SN3dh  1 4.300000e-01    3.160000e+00
   N4a SN3dh  1 4.300000e-01    3.160000e+00
   P6a SN2dh  1 4.300000e-01    2.530000e+00
   P5a SN2dh  1 4.300000e-01    2.530000e+00
   P4a SN2dh  1 4.300000e-01    2.770000e+00
   P3a SN2dh  1 4.300000e-01    2.930000e+00
   P2a SN2dh  1 4.300000e-01    2.930000e+00
   P1a SN2dh  1 4.300000e-01    2.930000e+00
   N6a SN2dh  1 4.300000e-01    2.930000e+00
   N5a SN2dh  1 4.300000e-01    3.160000e+00
   N4a SN2dh  1 4.300000e-01    3.160000e+00
   N3a SN2dh  1 4.300000e-01    3.160000e+00
   P6a SN1dh  1 4.300000e-01    2.320000e+00
   P5a SN1dh  1 4.300000e-01    2.320000e+00
   P4a SN1dh  1 4.300000e-01    2.530000e+00
   P3a SN1dh  1 4.300000e-01    2.770000e+00
   P2a SN1dh  1 4.300000e-01    2.930000e+00
   P1a SN1dh  1 4.300000e-01    2.930000e+00
   N6a SN1dh  1 4.300000e-01    2.930000e+00
   N5a SN1dh  1 4.300000e-01    2.930000e+00
   N4a SN1dh  1 4.300000e-01    2.930000e+00
   N3a SN1dh  1 4.300000e-01    2.930000e+00
   N2a SN1dh  1 4.300000e-01    2.930000e+00
  SP6a  P5dh  1 4.300000e-01    4.400000e+00
  SP6a  P4dh  1 4.300000e-01    4.170000e+00
  SP5a  P4dh  1 4.300000e-01    3.970000e+00
  SP6a  P3dh  1 4.300000e-01    3.970000e+00
  SP5a  P3dh  1 4.300000e-01    3.770000e+00
  SP4a  P3dh  1 4.300000e-01    3.770000e+00
  SP6a  P2dh  1 4.300000e-01    3.970000e+00
  SP5a  P2dh  1 4.300000e-01    3.770000e+00
  SP4a  P2dh  1 4.300000e-01    3.770000e+00
  SP3a  P2dh  1 4.300000e-01    3.770000e+00
  SP6a  P1dh  1 4.300000e-01    3.770000e+00
  SP5a  P1dh  1 4.300000e-01    3.590000e+00
  SP4a  P1dh  1 4.300000e-01    3.590000e+00
  SP3a  P1dh  1 4.300000e-01    3.590000e+00
  SP2a  P1dh  1 4.300000e-01    3.590000e+00
  SP6a  N6dh  1 4.300000e-01    3.590000e+00
  SP5a  N6dh  1 4.300000e-01    3.380000e+00
  SP4a  N6dh  1 4.300000e-01    3.380000e+00
  SP3a  N6dh  1 4.300000e-01    3.380000e+00
  SP2a  N6dh  1 4.300000e-01    3.590000e+00
  SP1a  N6dh  1 4.300000e-01    3.590000e+00
  SP6a  N5dh  1 4.300000e-01    3.160000e+00
  SP5a  N5dh  1 4.300000e-01    3.160000e+00
  SP4a  N5dh  1 4.300000e-01    3.160000e+00
  SP3a  N5dh  1 4.300000e-01    3.160000e+00
  SP2a  N5dh  1 4.300000e-01    3.380000e+00
  SP1a  N5dh  1 4.300000e-01    3.380000e+00
  SN6a  N5dh  1 4.300000e-01    3.590000e+00
  SP6a  N4dh  1 4.300000e-01    2.930000e+00
  SP5a  N4dh  1 4.300000e-01    3.160000e+00
  SP4a  N4dh  1 4.300000e-01    3.160000e+00
  SP3a  N4dh  1 4.300000e-01    3.160000e+00
  SP2a  N4dh  1 4.300000e-01    3.160000e+00
  SP1a  N4dh  1 4.300000e-01    3.380000e+00
  SN6a  N4dh  1 4.300000e-01    3.590000e+00
  SN5a  N4dh  1 4.300000e-01    3.380000e+00
  SP6a  N3dh  1 4.300000e-01    2.770000e+00
  SP5a  N3dh  1 4.300000e-01    2.770000e+00
  SP4a  N3dh  1 4.300000e-01    2.930000e+00
  SP3a  N3dh  1 4.300000e-01    2.930000e+00
  SP2a  N3dh  1 4.300000e-01    2.930000e+00
  SP1a  N3dh  1 4.300000e-01    2.930000e+00
  SN6a  N3dh  1 4.300000e-01    3.160000e+00
  SN5a  N3dh  1 4.300000e-01    3.160000e+00
  SN4a  N3dh  1 4.300000e-01    3.160000e+00
  SP6a  N2dh  1 4.300000e-01    2.530000e+00
  SP5a  N2dh  1 4.300000e-01    2.530000e+00
  SP4a  N2dh  1 4.300000e-01    2.770000e+00
  SP3a  N2dh  1 4.300000e-01    2.930000e+00
  SP2a  N2dh  1 4.300000e-01    2.930000e+00
  SP1a  N2dh  1 4.300000e-01    2.930000e+00
  SN6a  N2dh  1 4.300000e-01    2.930000e+00
  SN5a  N2dh  1 4.300000e-01    3.160000e+00
  SN4a  N2dh  1 4.300000e-01    3.160000e+00
  SN3a  N2dh  1 4.300000e-01    3.160000e+00
  SP6a  N1dh  1 4.300000e-01    2.320000e+00
  SP5a  N1dh  1 4.300000e-01    2.320000e+00
  SP4a  N1dh  1 4.300000e-01    2.530000e+00
  SP3a  N1dh  1 4.300000e-01    2.770000e+00
  SP2a  N1dh  1 4.300000e-01    2.930000e+00
  SP1a  N1dh  1 4.300000e-01    2.930000e+00
  SN6a  N1dh  1 4.300000e-01    2.930000e+00
  SN5a  N1dh  1 4.300000e-01    2.930000e+00
  SN4a  N1dh  1 4.300000e-01    2.930000e+00
  SN3a  N1dh  1 4.300000e-01    2.930000e+00
  SN2a  N1dh  1 4.300000e-01    2.930000e+00
   P6a SP5dr  1 4.300000e-01    4.400000e+00
   P6a SP4dr  1 4.300000e-01    4.170000e+00
   P5a SP4dr  1 4.300000e-01    3.970000e+00
   P6a SP3dr  1 4.300000e-01    3.970000e+00
   P5a SP3dr  1 4.300000e-01    3.770000e+00
   P4a SP3dr  1 4.300000e-01    3.770000e+00
   P6a SP2dr  1 4.300000e-01    3.970000e+00
   P5a SP2dr  1 4.300000e-01    3.770000e+00
   P4a SP2dr  1 4.300000e-01    3.770000e+00
   P3a SP2dr  1 4.300000e-01    3.770000e+00
   P6a SP1dr  1 4.300000e-01    3.770000e+00
   P5a SP1dr  1 4.300000e-01    3.590000e+00
   P4a SP1dr  1 4.300000e-01    3.590000e+00
   P3a SP1dr  1 4.300000e-01    3.590000e+00
   P2a SP1dr  1 4.300000e-01    3.590000e+00
   P6a SN6dr  1 4.300000e-01    3.590000e+00
   P5a SN6dr  1 4.300000e-01    3.380000e+00
   P4a SN6dr  1 4.300000e-01    3.380000e+00
   P3a SN6dr  1 4.300000e-01    3.380000e+00
   P2a SN6dr  1 4.300000e-01    3.590000e+00
   P1a SN6dr  1 4.300000e-01    3.590000e+00
   P6a SN5dr  1 4.300000e-01    3.160000e+00
   P5a SN5dr  1 4.300000e-01    3.160000e+00
   P4a SN5dr  1 4.300000e-01    3.160000e+00
   P3a SN5dr  1 4.300000e-01    3.160000e+00
   P2a SN5dr  1 4.300000e-01    3.380000e+00
   P1a SN5dr  1 4.300000e-01    3.380000e+00
   N6a SN5dr  1 4.300000e-01    3.590000e+00
   P6a SN4dr  1 4.300000e-01    2.930000e+00
   P5a SN4dr  1 4.300000e-01    3.160000e+00
   P4a SN4dr  1 4.300000e-01    3.160000e+00
   P3a SN4dr  1 4.300000e-01    3.160000e+00
   P2a SN4dr  1 4.300000e-01    3.160000e+00
   P1a SN4dr  1 4.300000e-01    3.380000e+00
   N6a SN4dr  1 4.300000e-01    3.590000e+00
   N5a SN4dr  1 4.300000e-01    3.380000e+00
   P6a SN3dr  1 4.300000e-01    2.770000e+00
   P5a SN3dr  1 4.300000e-01    2.770000e+00
   P4a SN3dr  1 4.300000e-01    2.930000e+00
   P3a SN3dr  1 4.300000e-01    2.930000e+00
   P2a SN3dr  1 4.300000e-01    2.930000e+00
   P1a SN3dr  1 4.300000e-01    2.930000e+00
   N6a SN3dr  1 4.300000e-01    3.160000e+00
   N5a SN3dr  1 4.300000e-01    3.160000e+00
   N4a SN3dr  1 4.300000e-01    3.160000e+00
   P6a SN2dr  1 4.300000e-01    2.530000e+00
   P5a SN2dr  1 4.300000e-01    2.530000e+00
   P4a SN2dr  1 4.300000e-01    2.770000e+00
   P3a SN2dr  1 4.300000e-01    2.930000e+00
   P2a SN2dr  1 4.300000e-01    2.930000e+00
   P1a SN2dr  1 4.300000e-01    2.930000e+00
   N6a SN2dr  1 4.300000e-01    2.930000e+00
   N5a SN2dr  1 4.300000e-01    3.160000e+00
   N4a SN2dr  1 4.300000e-01    3.160000e+00
   N3a SN2dr  1 4.300000e-01    3.160000e+00
   P6a SN1dr  1 4.300000e-01    2.320000e+00
   P5a SN1dr  1 4.300000e-01    2.320000e+00
   P4a SN1dr  1 4.300000e-01    2.530000e+00
   P3a SN1dr  1 4.300000e-01    2.770000e+00
   P2a SN1dr  1 4.300000e-01    2.930000e+00
   P1a SN1dr  1 4.300000e-01    2.930000e+00
   N6a SN1dr  1 4.300000e-01    2.930000e+00
   N5a SN1dr  1 4.300000e-01    2.930000e+00
   N4a SN1dr  1 4.300000e-01    2.930000e+00
   N3a SN1dr  1 4.300000e-01    2.930000e+00
   N2a SN1dr  1 4.300000e-01    2.930000e+00
  SP6a  P5dr  1 4.300000e-01    4.400000e+00
  SP6a  P4dr  1 4.300000e-01    4.170000e+00
  SP5a  P4dr  1 4.300000e-01    3.970000e+00
  SP6a  P3dr  1 4.300000e-01    3.970000e+00
  SP5a  P3dr  1 4.300000e-01    3.770000e+00
  SP4a  P3dr  1 4.300000e-01    3.770000e+00
  SP6a  P2dr  1 4.300000e-01    3.970000e+00
  SP5a  P2dr  1 4.300000e-01    3.770000e+00
  SP4a  P2dr  1 4.300000e-01    3.770000e+00
  SP3a  P2dr  1 4.300000e-01    3.770000e+00
  SP6a  P1dr  1 4.300000e-01    3.770000e+00
  SP5a  P1dr  1 4.300000e-01    3.590000e+00
  SP4a  P1dr  1 4.300000e-01    3.590000e+00
  SP3a  P1dr  1 4.300000e-01    3.590000e+00
  SP2a  P1dr  1 4.300000e-01    3.590000e+00
  SP6a  N6dr  1 4.300000e-01    3.590000e+00
  SP5a  N6dr  1 4.300000e-01    3.380000e+00
  SP4a  N6dr  1 4.300000e-01    3.380000e+00
  SP3a  N6dr  1 4.300000e-01    3.380000e+00
  SP2a  N6dr  1 4.300000e-01    3.590000e+00
  SP1a  N6dr  1 4.300000e-01    3.590000e+00
  SP6a  N5dr  1 4.300000e-01    3.160000e+00
  SP5a  N5dr  1 4.300000e-01    3.160000e+00
  SP4a  N5dr  1 4.300000e-01    3.160000e+00
  SP3a  N5dr  1 4.300000e-01    3.160000e+00
  SP2a  N5dr  1 4.300000e-01    3.380000e+00
  SP1a  N5dr  1 4.300000e-01    3.380000e+00
  SN6a  N5dr  1 4.300000e-01    3.590000e+00
  SP6a  N4dr  1 4.300000e-01    2.930000e+00
  SP5a  N4dr  1 4.300000e-01    3.160000e+00
  SP4a  N4dr  1 4.300000e-01    3.160000e+00
  SP3a  N4dr  1 4.300000e-01    3.160000e+00
  SP2a  N4dr  1 4.300000e-01    3.160000e+00
  SP1a  N4dr  1 4.300000e-01    3.380000e+00
  SN6a  N4dr  1 4.300000e-01    3.590000e+00
  SN5a  N4dr  1 4.300000e-01    3.380000e+00
  SP6a  N3dr  1 4.300000e-01    2.770000e+00
  SP5a  N3dr  1 4.300000e-01    2.770000e+00
  SP4a  N3dr  1 4.300000e-01    2.930000e+00
  SP3a  N3dr  1 4.300000e-01    2.930000e+00
  SP2a  N3dr  1 4.300000e-01    2.930000e+00
  SP1a  N3dr  1 4.300000e-01    2.930000e+00
  SN6a  N3dr  1 4.300000e-01    3.160000e+00
  SN5a  N3dr  1 4.300000e-01    3.160000e+00
  SN4a  N3dr  1 4.300000e-01    3.160000e+00
  SP6a  N2dr  1 4.300000e-01    2.530000e+00
  SP5a  N2dr  1 4.300000e-01    2.530000e+00
  SP4a  N2dr  1 4.300000e-01    2.770000e+00
  SP3a  N2dr  1 4.300000e-01    2.930000e+00
  SP2a  N2dr  1 4.300000e-01    2.930000e+00
  SP1a  N2dr  1 4.300000e-01    2.930000e+00
  SN6a  N2dr  1 4.300000e-01    2.930000e+00
  SN5a  N2dr  1 4.300000e-01    3.160000e+00
  SN4a  N2dr  1 4.300000e-01    3.160000e+00
  SN3a  N2dr  1 4.300000e-01    3.160000e+00
  SP6a  N1dr  1 4.300000e-01    2.320000e+00
  SP5a  N1dr  1 4.300000e-01    2.320000e+00
  SP4a  N1dr  1 4.300000e-01    2.530000e+00
  SP3a  N1dr  1 4.300000e-01    2.770000e+00
  SP2a  N1dr  1 4.300000e-01    2.930000e+00
  SP1a  N1dr  1 4.300000e-01    2.930000e+00
  SN6a  N1dr  1 4.300000e-01    2.930000e+00
  SN5a  N1dr  1 4.300000e-01    2.930000e+00
  SN4a  N1dr  1 4.300000e-01    2.930000e+00
  SN3a  N1dr  1 4.300000e-01    2.930000e+00
  SN2a  N1dr  1 4.300000e-01    2.930000e+00
  N2aq  SN1d  1 4.300000e-01    3.380000e+00
  N3aq  SN2d  1 4.300000e-01    3.590000e+00
  N3aq  SN1d  1 4.300000e-01    3.380000e+00
  N4aq  SN3d  1 4.300000e-01    3.590000e+00
  N4aq  SN2d  1 4.300000e-01    3.590000e+00
  N4aq  SN1d  1 4.300000e-01    3.380000e+00
  N5aq  SN4d  1 4.300000e-01    3.770000e+00
  N5aq  SN3d  1 4.300000e-01    3.590000e+00
  N5aq  SN2d  1 4.300000e-01    3.590000e+00
  N5aq  SN1d  1 4.300000e-01    3.380000e+00
  N6aq  SN5d  1 4.300000e-01    3.970000e+00
  N6aq  SN4d  1 4.300000e-01    3.970000e+00
  N6aq  SN3d  1 4.300000e-01    3.590000e+00
  N6aq  SN2d  1 4.300000e-01    3.380000e+00
  N6aq  SN1d  1 4.300000e-01    3.380000e+00
  P1aq  SN6d  1 4.300000e-01    3.970000e+00
  P1aq  SN5d  1 4.300000e-01    3.770000e+00
  P1aq  SN4d  1 4.300000e-01    3.770000e+00
  P1aq  SN3d  1 4.300000e-01    3.380000e+00
  P1aq  SN2d  1 4.300000e-01    3.380000e+00
  P1aq  SN1d  1 4.300000e-01    3.380000e+00
  P2aq  SP1d  1 4.300000e-01    3.970000e+00
  P2aq  SN6d  1 4.300000e-01    3.970000e+00
  P2aq  SN5d  1 4.300000e-01    3.770000e+00
  P2aq  SN4d  1 4.300000e-01    3.590000e+00
  P2aq  SN3d  1 4.300000e-01    3.380000e+00
  P2aq  SN2d  1 4.300000e-01    3.380000e+00
  P2aq  SN1d  1 4.300000e-01    3.380000e+00
  P3aq  SP2d  1 4.300000e-01    4.170000e+00
  P3aq  SP1d  1 4.300000e-01    3.970000e+00
  P3aq  SN6d  1 4.300000e-01    3.770000e+00
  P3aq  SN5d  1 4.300000e-01    3.590000e+00
  P3aq  SN4d  1 4.300000e-01    3.590000e+00
  P3aq  SN3d  1 4.300000e-01    3.380000e+00
  P3aq  SN2d  1 4.300000e-01    3.380000e+00
  P3aq  SN1d  1 4.300000e-01    2.930000e+00
  P4aq  SP3d  1 4.300000e-01    4.170000e+00
  P4aq  SP2d  1 4.300000e-01    4.170000e+00
  P4aq  SP1d  1 4.300000e-01    3.970000e+00
  P4aq  SN6d  1 4.300000e-01    3.770000e+00
  P4aq  SN5d  1 4.300000e-01    3.590000e+00
  P4aq  SN4d  1 4.300000e-01    3.590000e+00
  P4aq  SN3d  1 4.300000e-01    3.380000e+00
  P4aq  SN2d  1 4.300000e-01    2.930000e+00
  P4aq  SN1d  1 4.300000e-01    2.920000e+00
  P5aq  SP4d  1 4.300000e-01    4.400000e+00
  P5aq  SP3d  1 4.300000e-01    4.170000e+00
  P5aq  SP2d  1 4.300000e-01    4.170000e+00
  P5aq  SP1d  1 4.300000e-01    3.970000e+00
  P5aq  SN6d  1 4.300000e-01    3.770000e+00
  P5aq  SN5d  1 4.300000e-01    3.590000e+00
  P5aq  SN4d  1 4.300000e-01    3.590000e+00
  P5aq  SN3d  1 4.300000e-01    2.930000e+00
  P5aq  SN2d  1 4.300000e-01    2.920000e+00
  P5aq  SN1d  1 4.300000e-01    2.770000e+00
  P6aq  SP5d  1 4.300000e-01    4.920000e+00
  P6aq  SP4d  1 4.300000e-01    4.680000e+00
  P6aq  SP3d  1 4.300000e-01    4.400000e+00
  P6aq  SP2d  1 4.300000e-01    4.400000e+00
  P6aq  SP1d  1 4.300000e-01    4.170000e+00
  P6aq  SN6d  1 4.300000e-01    3.970000e+00
  P6aq  SN5d  1 4.300000e-01    3.590000e+00
  P6aq  SN4d  1 4.300000e-01    3.380000e+00
  P6aq  SN3d  1 4.300000e-01    2.930000e+00
  P6aq  SN2d  1 4.300000e-01    2.920000e+00
  P6aq  SN1d  1 4.300000e-01    2.770000e+00
 SN2aq   N1d  1 4.300000e-01    3.380000e+00
 SN3aq   N2d  1 4.300000e-01    3.590000e+00
 SN3aq   N1d  1 4.300000e-01    3.380000e+00
 SN4aq   N3d  1 4.300000e-01    3.590000e+00
 SN4aq   N2d  1 4.300000e-01    3.590000e+00
 SN4aq   N1d  1 4.300000e-01    3.380000e+00
 SN5aq   N4d  1 4.300000e-01    3.770000e+00
 SN5aq   N3d  1 4.300000e-01    3.590000e+00
 SN5aq   N2d  1 4.300000e-01    3.590000e+00
 SN5aq   N1d  1 4.300000e-01    3.380000e+00
 SN6aq   N5d  1 4.300000e-01    3.970000e+00
 SN6aq   N4d  1 4.300000e-01    3.970000e+00
 SN6aq   N3d  1 4.300000e-01    3.590000e+00
 SN6aq   N2d  1 4.300000e-01    3.380000e+00
 SN6aq   N1d  1 4.300000e-01    3.380000e+00
 SP1aq   N6d  1 4.300000e-01    3.970000e+00
 SP1aq   N5d  1 4.300000e-01    3.770000e+00
 SP1aq   N4d  1 4.300000e-01    3.770000e+00
 SP1aq   N3d  1 4.300000e-01    3.380000e+00
 SP1aq   N2d  1 4.300000e-01    3.380000e+00
 SP1aq   N1d  1 4.300000e-01    3.380000e+00
 SP2aq   P1d  1 4.300000e-01    3.970000e+00
 SP2aq   N6d  1 4.300000e-01    3.970000e+00
 SP2aq   N5d  1 4.300000e-01    3.770000e+00
 SP2aq   N4d  1 4.300000e-01    3.590000e+00
 SP2aq   N3d  1 4.300000e-01    3.380000e+00
 SP2aq   N2d  1 4.300000e-01    3.380000e+00
 SP2aq   N1d  1 4.300000e-01    3.380000e+00
 SP3aq   P2d  1 4.300000e-01    4.170000e+00
 SP3aq   P1d  1 4.300000e-01    3.970000e+00
 SP3aq   N6d  1 4.300000e-01    3.770000e+00
 SP3aq   N5d  1 4.300000e-01    3.590000e+00
 SP3aq   N4d  1 4.300000e-01    3.590000e+00
 SP3aq   N3d  1 4.300000e-01    3.380000e+00
 SP3aq   N2d  1 4.300000e-01    3.380000e+00
 SP3aq   N1d  1 4.300000e-01    2.930000e+00
 SP4aq   P3d  1 4.300000e-01    4.170000e+00
 SP4aq   P2d  1 4.300000e-01    4.170000e+00
 SP4aq   P1d  1 4.300000e-01    3.970000e+00
 SP4aq   N6d  1 4.300000e-01    3.770000e+00
 SP4aq   N5d  1 4.300000e-01    3.590000e+00
 SP4aq   N4d  1 4.300000e-01    3.590000e+00
 SP4aq   N3d  1 4.300000e-01    3.380000e+00
 SP4aq   N2d  1 4.300000e-01    2.930000e+00
 SP4aq   N1d  1 4.300000e-01    2.920000e+00
 SP5aq   P4d  1 4.300000e-01    4.400000e+00
 SP5aq   P3d  1 4.300000e-01    4.170000e+00
 SP5aq   P2d  1 4.300000e-01    4.170000e+00
 SP5aq   P1d  1 4.300000e-01    3.970000e+00
 SP5aq   N6d  1 4.300000e-01    3.770000e+00
 SP5aq   N5d  1 4.300000e-01    3.590000e+00
 SP5aq   N4d  1 4.300000e-01    3.590000e+00
 SP5aq   N3d  1 4.300000e-01    2.930000e+00
 SP5aq   N2d  1 4.300000e-01    2.920000e+00
 SP5aq   N1d  1 4.300000e-01    2.770000e+00
 SP6aq   P5d  1 4.300000e-01    4.920000e+00
 SP6aq   P4d  1 4.300000e-01    4.680000e+00
 SP6aq   P3d  1 4.300000e-01    4.400000e+00
 SP6aq   P2d  1 4.300000e-01    4.400000e+00
 SP6aq   P1d  1 4.300000e-01    4.170000e+00
 SP6aq   N6d  1 4.300000e-01    3.970000e+00
 SP6aq   N5d  1 4.300000e-01    3.590000e+00
 SP6aq   N4d  1 4.300000e-01    3.380000e+00
 SP6aq   N3d  1 4.300000e-01    2.930000e+00
 SP6aq   N2d  1 4.300000e-01    2.920000e+00
 SP6aq   N1d  1 4.300000e-01    2.770000e+00
  P6aq SP5dq  1 4.300000e-01    4.920000e+00
  P6aq SP4dq  1 4.300000e-01    4.680000e+00
  P6aq SP3dq  1 4.300000e-01    4.400000e+00
  P6aq SP2dq  1 4.300000e-01    4.400000e+00
  P6aq SP1dq  1 4.300000e-01    4.170000e+00
  P6aq SN6dq  1 4.300000e-01    3.970000e+00
  P6aq SN5dq  1 4.300000e-01    3.590000e+00
  P6aq SN4dq  1 4.300000e-01    3.380000e+00
  P6aq SN3dq  1 4.300000e-01    2.930000e+00
  P6aq SN2dq  1 4.300000e-01    2.920000e+00
  P6aq SN1dq  1 4.300000e-01    2.770000e+00
  P5aq SP4dq  1 4.300000e-01    4.400000e+00
  P5aq SP3dq  1 4.300000e-01    4.170000e+00
  P5aq SP2dq  1 4.300000e-01    4.170000e+00
  P5aq SP1dq  1 4.300000e-01    3.970000e+00
  P5aq SN6dq  1 4.300000e-01    3.770000e+00
  P5aq SN5dq  1 4.300000e-01    3.590000e+00
  P5aq SN4dq  1 4.300000e-01    3.590000e+00
  P5aq SN3dq  1 4.300000e-01    2.930000e+00
  P5aq SN2dq  1 4.300000e-01    2.920000e+00
  P5aq SN1dq  1 4.300000e-01    2.770000e+00
  P4aq SP3dq  1 4.300000e-01    4.170000e+00
  P4aq SP2dq  1 4.300000e-01    4.170000e+00
  P4aq SP1dq  1 4.300000e-01    3.970000e+00
  P4aq SN6dq  1 4.300000e-01    3.770000e+00
  P4aq SN5dq  1 4.300000e-01    3.590000e+00
  P4aq SN4dq  1 4.300000e-01    3.590000e+00
  P4aq SN3dq  1 4.300000e-01    3.380000e+00
  P4aq SN2dq  1 4.300000e-01    2.930000e+00
  P4aq SN1dq  1 4.300000e-01    2.920000e+00
  P3aq SP2dq  1 4.300000e-01    4.170000e+00
  P3aq SP1dq  1 4.300000e-01    3.970000e+00
  P3aq SN6dq  1 4.300000e-01    3.770000e+00
  P3aq SN5dq  1 4.300000e-01    3.590000e+00
  P3aq SN4dq  1 4.300000e-01    3.590000e+00
  P3aq SN3dq  1 4.300000e-01    3.380000e+00
  P3aq SN2dq  1 4.300000e-01    3.380000e+00
  P3aq SN1dq  1 4.300000e-01    2.930000e+00
  P2aq SP1dq  1 4.300000e-01    3.970000e+00
  P2aq SN6dq  1 4.300000e-01    3.970000e+00
  P2aq SN5dq  1 4.300000e-01    3.770000e+00
  P2aq SN4dq  1 4.300000e-01    3.590000e+00
  P2aq SN3dq  1 4.300000e-01    3.380000e+00
  P2aq SN2dq  1 4.300000e-01    3.380000e+00
  P2aq SN1dq  1 4.300000e-01    3.380000e+00
  P1aq SN6dq  1 4.300000e-01    3.970000e+00
  P1aq SN5dq  1 4.300000e-01    3.770000e+00
  P1aq SN4dq  1 4.300000e-01    3.770000e+00
  P1aq SN3dq  1 4.300000e-01    3.380000e+00
  P1aq SN2dq  1 4.300000e-01    3.380000e+00
  P1aq SN1dq  1 4.300000e-01    3.380000e+00
  N6aq SN5dq  1 4.300000e-01    3.970000e+00
  N6aq SN4dq  1 4.300000e-01    3.970000e+00
  N6aq SN3dq  1 4.300000e-01    3.590000e+00
  N6aq SN2dq  1 4.300000e-01    3.380000e+00
  N6aq SN1dq  1 4.300000e-01    3.380000e+00
  N5aq SN4dq  1 4.300000e-01    3.770000e+00
  N5aq SN3dq  1 4.300000e-01    3.590000e+00
  N5aq SN2dq  1 4.300000e-01    3.590000e+00
  N5aq SN1dq  1 4.300000e-01    3.380000e+00
  N4aq SN3dq  1 4.300000e-01    3.590000e+00
  N4aq SN2dq  1 4.300000e-01    3.590000e+00
  N4aq SN1dq  1 4.300000e-01    3.380000e+00
  N3aq SN2dq  1 4.300000e-01    3.590000e+00
  N3aq SN1dq  1 4.300000e-01    3.380000e+00
  N2aq SN1dq  1 4.300000e-01    3.380000e+00
 SP6aq  P5dq  1 4.300000e-01    4.920000e+00
 SP6aq  P4dq  1 4.300000e-01    4.680000e+00
 SP6aq  P3dq  1 4.300000e-01    4.400000e+00
 SP6aq  P2dq  1 4.300000e-01    4.400000e+00
 SP6aq  P1dq  1 4.300000e-01    4.170000e+00
 SP6aq  N6dq  1 4.300000e-01    3.970000e+00
 SP6aq  N5dq  1 4.300000e-01    3.590000e+00
 SP6aq  N4dq  1 4.300000e-01    3.380000e+00
 SP6aq  N3dq  1 4.300000e-01    2.930000e+00
 SP6aq  N2dq  1 4.300000e-01    2.920000e+00
 SP6aq  N1dq  1 4.300000e-01    2.770000e+00
 SP5aq  P4dq  1 4.300000e-01    4.400000e+00
 SP5aq  P3dq  1 4.300000e-01    4.170000e+00
 SP5aq  P2dq  1 4.300000e-01    4.170000e+00
 SP5aq  P1dq  1 4.300000e-01    3.970000e+00
 SP5aq  N6dq  1 4.300000e-01    3.770000e+00
 SP5aq  N5dq  1 4.300000e-01    3.590000e+00
 SP5aq  N4dq  1 4.300000e-01    3.590000e+00
 SP5aq  N3dq  1 4.300000e-01    2.930000e+00
 SP5aq  N2dq  1 4.300000e-01    2.920000e+00
 SP5aq  N1dq  1 4.300000e-01    2.770000e+00
 SP4aq  P3dq  1 4.300000e-01    4.170000e+00
 SP4aq  P2dq  1 4.300000e-01    4.170000e+00
 SP4aq  P1dq  1 4.300000e-01    3.970000e+00
 SP4aq  N6dq  1 4.300000e-01    3.770000e+00
 SP4aq  N5dq  1 4.300000e-01    3.590000e+00
 SP4aq  N4dq  1 4.300000e-01    3.590000e+00
 SP4aq  N3dq  1 4.300000e-01    3.380000e+00
 SP4aq  N2dq  1 4.300000e-01    2.930000e+00
 SP4aq  N1dq  1 4.300000e-01    2.920000e+00
 SP3aq  P2dq  1 4.300000e-01    4.170000e+00
 SP3aq  P1dq  1 4.300000e-01    3.970000e+00
 SP3aq  N6dq  1 4.300000e-01    3.770000e+00
 SP3aq  N5dq  1 4.300000e-01    3.590000e+00
 SP3aq  N4dq  1 4.300000e-01    3.590000e+00
 SP3aq  N3dq  1 4.300000e-01    3.380000e+00
 SP3aq  N2dq  1 4.300000e-01    3.380000e+00
 SP3aq  N1dq  1 4.300000e-01    2.930000e+00
 SP2aq  P1dq  1 4.300000e-01    3.970000e+00
 SP2aq  N6dq  1 4.300000e-01    3.970000e+00
 SP2aq  N5dq  1 4.300000e-01    3.770000e+00
 SP2aq  N4dq  1 4.300000e-01    3.590000e+00
 SP2aq  N3dq  1 4.300000e-01    3.380000e+00
 SP2aq  N2dq  1 4.300000e-01    3.380000e+00
 SP2aq  N1dq  1 4.300000e-01    3.380000e+00
 SP1aq  N6dq  1 4.300000e-01    3.970000e+00
 SP1aq  N5dq  1 4.300000e-01    3.770000e+00
 SP1aq  N4dq  1 4.300000e-01    3.770000e+00
 SP1aq  N3dq  1 4.300000e-01    3.380000e+00
 SP1aq  N2dq  1 4.300000e-01    3.380000e+00
 SP1aq  N1dq  1 4.300000e-01    3.380000e+00
 SN6aq  N5dq  1 4.300000e-01    3.970000e+00
 SN6aq  N4dq  1 4.300000e-01    3.970000e+00
 SN6aq  N3dq  1 4.300000e-01    3.590000e+00
 SN6aq  N2dq  1 4.300000e-01    3.380000e+00
 SN6aq  N1dq  1 4.300000e-01    3.380000e+00
 SN5aq  N4dq  1 4.300000e-01    3.770000e+00
 SN5aq  N3dq  1 4.300000e-01    3.590000e+00
 SN5aq  N2dq  1 4.300000e-01    3.590000e+00
 SN5aq  N1dq  1 4.300000e-01    3.380000e+00
 SN4aq  N3dq  1 4.300000e-01    3.590000e+00
 SN4aq  N2dq  1 4.300000e-01    3.590000e+00
 SN4aq  N1dq  1 4.300000e-01    3.380000e+00
 SN3aq  N2dq  1 4.300000e-01    3.590000e+00
 SN3aq  N1dq  1 4.300000e-01    3.380000e+00
 SN2aq  N1dq  1 4.300000e-01    3.380000e+00
  P6aq SP5dh  1 4.300000e-01    4.920000e+00
  P5aq SP4dh  1 4.300000e-01    4.400000e+00
  P6aq SP4dh  1 4.300000e-01    4.680000e+00
  P4aq SP3dh  1 4.300000e-01    4.170000e+00
  P5aq SP3dh  1 4.300000e-01    4.170000e+00
  P6aq SP3dh  1 4.300000e-01    4.400000e+00
  P3aq SP2dh  1 4.300000e-01    4.170000e+00
  P4aq SP2dh  1 4.300000e-01    4.170000e+00
  P5aq SP2dh  1 4.300000e-01    4.170000e+00
  P6aq SP2dh  1 4.300000e-01    4.400000e+00
  P2aq SP1dh  1 4.300000e-01    3.970000e+00
  P3aq SP1dh  1 4.300000e-01    3.970000e+00
  P4aq SP1dh  1 4.300000e-01    3.970000e+00
  P5aq SP1dh  1 4.300000e-01    3.970000e+00
  P6aq SP1dh  1 4.300000e-01    4.170000e+00
  P1aq SN6dh  1 4.300000e-01    3.970000e+00
  P2aq SN6dh  1 4.300000e-01    3.970000e+00
  P3aq SN6dh  1 4.300000e-01    3.770000e+00
  P4aq SN6dh  1 4.300000e-01    3.770000e+00
  P5aq SN6dh  1 4.300000e-01    3.770000e+00
  P6aq SN6dh  1 4.300000e-01    3.970000e+00
  N6aq SN5dh  1 4.300000e-01    3.970000e+00
  P1aq SN5dh  1 4.300000e-01    3.770000e+00
  P2aq SN5dh  1 4.300000e-01    3.770000e+00
  P3aq SN5dh  1 4.300000e-01    3.590000e+00
  P4aq SN5dh  1 4.300000e-01    3.590000e+00
  P5aq SN5dh  1 4.300000e-01    3.590000e+00
  P6aq SN5dh  1 4.300000e-01    3.590000e+00
  N5aq SN4dh  1 4.300000e-01    3.770000e+00
  N6aq SN4dh  1 4.300000e-01    3.970000e+00
  P1aq SN4dh  1 4.300000e-01    3.770000e+00
  P2aq SN4dh  1 4.300000e-01    3.590000e+00
  P3aq SN4dh  1 4.300000e-01    3.590000e+00
  P4aq SN4dh  1 4.300000e-01    3.590000e+00
  P5aq SN4dh  1 4.300000e-01    3.590000e+00
  P6aq SN4dh  1 4.300000e-01    3.380000e+00
  N4aq SN3dh  1 4.300000e-01    3.590000e+00
  N5aq SN3dh  1 4.300000e-01    3.590000e+00
  N6aq SN3dh  1 4.300000e-01    3.590000e+00
  P1aq SN3dh  1 4.300000e-01    3.380000e+00
  P2aq SN3dh  1 4.300000e-01    3.380000e+00
  P3aq SN3dh  1 4.300000e-01    3.380000e+00
  P4aq SN3dh  1 4.300000e-01    3.380000e+00
  P5aq SN3dh  1 4.300000e-01    2.930000e+00
  P6aq SN3dh  1 4.300000e-01    2.930000e+00
  N3aq SN2dh  1 4.300000e-01    3.590000e+00
  N4aq SN2dh  1 4.300000e-01    3.590000e+00
  N5aq SN2dh  1 4.300000e-01    3.590000e+00
  N6aq SN2dh  1 4.300000e-01    3.380000e+00
  P1aq SN2dh  1 4.300000e-01    3.380000e+00
  P2aq SN2dh  1 4.300000e-01    3.380000e+00
  P3aq SN2dh  1 4.300000e-01    3.380000e+00
  P4aq SN2dh  1 4.300000e-01    2.930000e+00
  P5aq SN2dh  1 4.300000e-01    2.920000e+00
  P6aq SN2dh  1 4.300000e-01    2.920000e+00
  N2aq SN1dh  1 4.300000e-01    3.380000e+00
  N3aq SN1dh  1 4.300000e-01    3.380000e+00
  N4aq SN1dh  1 4.300000e-01    3.380000e+00
  N5aq SN1dh  1 4.300000e-01    3.380000e+00
  N6aq SN1dh  1 4.300000e-01    3.380000e+00
  P1aq SN1dh  1 4.300000e-01    3.380000e+00
  P2aq SN1dh  1 4.300000e-01    3.380000e+00
  P3aq SN1dh  1 4.300000e-01    2.930000e+00
  P4aq SN1dh  1 4.300000e-01    2.920000e+00
  P5aq SN1dh  1 4.300000e-01    2.770000e+00
  P6aq SN1dh  1 4.300000e-01    2.770000e+00
 SP6aq  P5dh  1 4.300000e-01    4.920000e+00
 SP5aq  P4dh  1 4.300000e-01    4.400000e+00
 SP6aq  P4dh  1 4.300000e-01    4.680000e+00
 SP4aq  P3dh  1 4.300000e-01    4.170000e+00
 SP5aq  P3dh  1 4.300000e-01    4.170000e+00
 SP6aq  P3dh  1 4.300000e-01    4.400000e+00
 SP3aq  P2dh  1 4.300000e-01    4.170000e+00
 SP4aq  P2dh  1 4.300000e-01    4.170000e+00
 SP5aq  P2dh  1 4.300000e-01    4.170000e+00
 SP6aq  P2dh  1 4.300000e-01    4.400000e+00
 SP2aq  P1dh  1 4.300000e-01    3.970000e+00
 SP3aq  P1dh  1 4.300000e-01    3.970000e+00
 SP4aq  P1dh  1 4.300000e-01    3.970000e+00
 SP5aq  P1dh  1 4.300000e-01    3.970000e+00
 SP6aq  P1dh  1 4.300000e-01    4.170000e+00
 SP1aq  N6dh  1 4.300000e-01    3.970000e+00
 SP2aq  N6dh  1 4.300000e-01    3.970000e+00
 SP3aq  N6dh  1 4.300000e-01    3.770000e+00
 SP4aq  N6dh  1 4.300000e-01    3.770000e+00
 SP5aq  N6dh  1 4.300000e-01    3.770000e+00
 SP6aq  N6dh  1 4.300000e-01    3.970000e+00
 SN6aq  N5dh  1 4.300000e-01    3.970000e+00
 SP1aq  N5dh  1 4.300000e-01    3.770000e+00
 SP2aq  N5dh  1 4.300000e-01    3.770000e+00
 SP3aq  N5dh  1 4.300000e-01    3.590000e+00
 SP4aq  N5dh  1 4.300000e-01    3.590000e+00
 SP5aq  N5dh  1 4.300000e-01    3.590000e+00
 SP6aq  N5dh  1 4.300000e-01    3.590000e+00
 SN5aq  N4dh  1 4.300000e-01    3.770000e+00
 SN6aq  N4dh  1 4.300000e-01    3.970000e+00
 SP1aq  N4dh  1 4.300000e-01    3.770000e+00
 SP2aq  N4dh  1 4.300000e-01    3.590000e+00
 SP3aq  N4dh  1 4.300000e-01    3.590000e+00
 SP4aq  N4dh  1 4.300000e-01    3.590000e+00
 SP5aq  N4dh  1 4.300000e-01    3.590000e+00
 SP6aq  N4dh  1 4.300000e-01    3.380000e+00
 SN4aq  N3dh  1 4.300000e-01    3.590000e+00
 SN5aq  N3dh  1 4.300000e-01    3.590000e+00
 SN6aq  N3dh  1 4.300000e-01    3.590000e+00
 SP1aq  N3dh  1 4.300000e-01    3.380000e+00
 SP2aq  N3dh  1 4.300000e-01    3.380000e+00
 SP3aq  N3dh  1 4.300000e-01    3.380000e+00
 SP4aq  N3dh  1 4.300000e-01    3.380000e+00
 SP5aq  N3dh  1 4.300000e-01    2.930000e+00
 SP6aq  N3dh  1 4.300000e-01    2.930000e+00
 SN3aq  N2dh  1 4.300000e-01    3.590000e+00
 SN4aq  N2dh  1 4.300000e-01    3.590000e+00
 SN5aq  N2dh  1 4.300000e-01    3.590000e+00
 SN6aq  N2dh  1 4.300000e-01    3.380000e+00
 SP1aq  N2dh  1 4.300000e-01    3.380000e+00
 SP2aq  N2dh  1 4.300000e-01    3.380000e+00
 SP3aq  N2dh  1 4.300000e-01    3.380000e+00
 SP4aq  N2dh  1 4.300000e-01    2.930000e+00
 SP5aq  N2dh  1 4.300000e-01    2.920000e+00
 SP6aq  N2dh  1 4.300000e-01    2.920000e+00
 SN2aq  N1dh  1 4.300000e-01    3.380000e+00
 SN3aq  N1dh  1 4.300000e-01    3.380000e+00
 SN4aq  N1dh  1 4.300000e-01    3.380000e+00
 SN5aq  N1dh  1 4.300000e-01    3.380000e+00
 SN6aq  N1dh  1 4.300000e-01    3.380000e+00
 SP1aq  N1dh  1 4.300000e-01    3.380000e+00
 SP2aq  N1dh  1 4.300000e-01    3.380000e+00
 SP3aq  N1dh  1 4.300000e-01    2.930000e+00
 SP4aq  N1dh  1 4.300000e-01    2.920000e+00
 SP5aq  N1dh  1 4.300000e-01    2.770000e+00
 SP6aq  N1dh  1 4.300000e-01    2.770000e+00
  P6aq SP5dr  1 4.300000e-01    4.920000e+00
  P5aq SP4dr  1 4.300000e-01    4.400000e+00
  P6aq SP4dr  1 4.300000e-01    4.680000e+00
  P4aq SP3dr  1 4.300000e-01    4.170000e+00
  P5aq SP3dr  1 4.300000e-01    4.170000e+00
  P6aq SP3dr  1 4.300000e-01    4.400000e+00
  P3aq SP2dr  1 4.300000e-01    4.170000e+00
  P4aq SP2dr  1 4.300000e-01    4.170000e+00
  P5aq SP2dr  1 4.300000e-01    4.170000e+00
  P6aq SP2dr  1 4.300000e-01    4.400000e+00
  P2aq SP1dr  1 4.300000e-01    3.970000e+00
  P3aq SP1dr  1 4.300000e-01    3.970000e+00
  P4aq SP1dr  1 4.300000e-01    3.970000e+00
  P5aq SP1dr  1 4.300000e-01    3.970000e+00
  P6aq SP1dr  1 4.300000e-01    4.170000e+00
  P1aq SN6dr  1 4.300000e-01    3.970000e+00
  P2aq SN6dr  1 4.300000e-01    3.970000e+00
  P3aq SN6dr  1 4.300000e-01    3.770000e+00
  P4aq SN6dr  1 4.300000e-01    3.770000e+00
  P5aq SN6dr  1 4.300000e-01    3.770000e+00
  P6aq SN6dr  1 4.300000e-01    3.970000e+00
  N6aq SN5dr  1 4.300000e-01    3.970000e+00
  P1aq SN5dr  1 4.300000e-01    3.770000e+00
  P2aq SN5dr  1 4.300000e-01    3.770000e+00
  P3aq SN5dr  1 4.300000e-01    3.590000e+00
  P4aq SN5dr  1 4.300000e-01    3.590000e+00
  P5aq SN5dr  1 4.300000e-01    3.590000e+00
  P6aq SN5dr  1 4.300000e-01    3.590000e+00
  N5aq SN4dr  1 4.300000e-01    3.770000e+00
  N6aq SN4dr  1 4.300000e-01    3.970000e+00
  P1aq SN4dr  1 4.300000e-01    3.770000e+00
  P2aq SN4dr  1 4.300000e-01    3.590000e+00
  P3aq SN4dr  1 4.300000e-01    3.590000e+00
  P4aq SN4dr  1 4.300000e-01    3.590000e+00
  P5aq SN4dr  1 4.300000e-01    3.590000e+00
  P6aq SN4dr  1 4.300000e-01    3.380000e+00
  N4aq SN3dr  1 4.300000e-01    3.590000e+00
  N5aq SN3dr  1 4.300000e-01    3.590000e+00
  N6aq SN3dr  1 4.300000e-01    3.590000e+00
  P1aq SN3dr  1 4.300000e-01    3.380000e+00
  P2aq SN3dr  1 4.300000e-01    3.380000e+00
  P3aq SN3dr  1 4.300000e-01    3.380000e+00
  P4aq SN3dr  1 4.300000e-01    3.380000e+00
  P5aq SN3dr  1 4.300000e-01    2.930000e+00
  P6aq SN3dr  1 4.300000e-01    2.930000e+00
  N3aq SN2dr  1 4.300000e-01    3.590000e+00
  N4aq SN2dr  1 4.300000e-01    3.590000e+00
  N5aq SN2dr  1 4.300000e-01    3.590000e+00
  N6aq SN2dr  1 4.300000e-01    3.380000e+00
  P1aq SN2dr  1 4.300000e-01    3.380000e+00
  P2aq SN2dr  1 4.300000e-01    3.380000e+00
  P3aq SN2dr  1 4.300000e-01    3.380000e+00
  P4aq SN2dr  1 4.300000e-01    2.930000e+00
  P5aq SN2dr  1 4.300000e-01    2.920000e+00
  P6aq SN2dr  1 4.300000e-01    2.920000e+00
  N2aq SN1dr  1 4.300000e-01    3.380000e+00
  N3aq SN1dr  1 4.300000e-01    3.380000e+00
  N4aq SN1dr  1 4.300000e-01    3.380000e+00
  N5aq SN1dr  1 4.300000e-01    3.380000e+00
  N6aq SN1dr  1 4.300000e-01    3.380000e+00
  P1aq SN1dr  1 4.300000e-01    3.380000e+00
  P2aq SN1dr  1 4.300000e-01    3.380000e+00
  P3aq SN1dr  1 4.300000e-01    2.930000e+00
  P4aq SN1dr  1 4.300000e-01    2.920000e+00
  P5aq SN1dr  1 4.300000e-01    2.770000e+00
  P6aq SN1dr  1 4.300000e-01    2.770000e+00
 SP6aq  P5dr  1 4.300000e-01    4.920000e+00
 SP5aq  P4dr  1 4.300000e-01    4.400000e+00
 SP6aq  P4dr  1 4.300000e-01    4.680000e+00
 SP4aq  P3dr  1 4.300000e-01    4.170000e+00
 SP5aq  P3dr  1 4.300000e-01    4.170000e+00
 SP6aq  P3dr  1 4.300000e-01    4.400000e+00
 SP3aq  P2dr  1 4.300000e-01    4.170000e+00
 SP4aq  P2dr  1 4.300000e-01    4.170000e+00
 SP5aq  P2dr  1 4.300000e-01    4.170000e+00
 SP6aq  P2dr  1 4.300000e-01    4.400000e+00
 SP2aq  P1dr  1 4.300000e-01    3.970000e+00
 SP3aq  P1dr  1 4.300000e-01    3.970000e+00
 SP4aq  P1dr  1 4.300000e-01    3.970000e+00
 SP5aq  P1dr  1 4.300000e-01    3.970000e+00
 SP6aq  P1dr  1 4.300000e-01    4.170000e+00
 SP1aq  N6dr  1 4.300000e-01    3.970000e+00
 SP2aq  N6dr  1 4.300000e-01    3.970000e+00
 SP3aq  N6dr  1 4.300000e-01    3.770000e+00
 SP4aq  N6dr  1 4.300000e-01    3.770000e+00
 SP5aq  N6dr  1 4.300000e-01    3.770000e+00
 SP6aq  N6dr  1 4.300000e-01    3.970000e+00
 SN6aq  N5dr  1 4.300000e-01    3.970000e+00
 SP1aq  N5dr  1 4.300000e-01    3.770000e+00
 SP2aq  N5dr  1 4.300000e-01    3.770000e+00
 SP3aq  N5dr  1 4.300000e-01    3.590000e+00
 SP4aq  N5dr  1 4.300000e-01    3.590000e+00
 SP5aq  N5dr  1 4.300000e-01    3.590000e+00
 SP6aq  N5dr  1 4.300000e-01    3.590000e+00
 SN5aq  N4dr  1 4.300000e-01    3.770000e+00
 SN6aq  N4dr  1 4.300000e-01    3.970000e+00
 SP1aq  N4dr  1 4.300000e-01    3.770000e+00
 SP2aq  N4dr  1 4.300000e-01    3.590000e+00
 SP3aq  N4dr  1 4.300000e-01    3.590000e+00
 SP4aq  N4dr  1 4.300000e-01    3.590000e+00
 SP5aq  N4dr  1 4.300000e-01    3.590000e+00
 SP6aq  N4dr  1 4.300000e-01    3.380000e+00
 SN4aq  N3dr  1 4.300000e-01    3.590000e+00
 SN5aq  N3dr  1 4.300000e-01    3.590000e+00
 SN6aq  N3dr  1 4.300000e-01    3.590000e+00
 SP1aq  N3dr  1 4.300000e-01    3.380000e+00
 SP2aq  N3dr  1 4.300000e-01    3.380000e+00
 SP3aq  N3dr  1 4.300000e-01    3.380000e+00
 SP4aq  N3dr  1 4.300000e-01    3.380000e+00
 SP5aq  N3dr  1 4.300000e-01    2.930000e+00
 SP6aq  N3dr  1 4.300000e-01    2.930000e+00
 SN3aq  N2dr  1 4.300000e-01    3.590000e+00
 SN4aq  N2dr  1 4.300000e-01    3.590000e+00
 SN5aq  N2dr  1 4.300000e-01    3.590000e+00
 SN6aq  N2dr  1 4.300000e-01    3.380000e+00
 SP1aq  N2dr  1 4.300000e-01    3.380000e+00
 SP2aq  N2dr  1 4.300000e-01    3.380000e+00
 SP3aq  N2dr  1 4.300000e-01    3.380000e+00
 SP4aq  N2dr  1 4.300000e-01    2.930000e+00
 SP5aq  N2dr  1 4.300000e-01    2.920000e+00
 SP6aq  N2dr  1 4.300000e-01    2.920000e+00
 SN2aq  N1dr  1 4.300000e-01    3.380000e+00
 SN3aq  N1dr  1 4.300000e-01    3.380000e+00
 SN4aq  N1dr  1 4.300000e-01    3.380000e+00
 SN5aq  N1dr  1 4.300000e-01    3.380000e+00
 SN6aq  N1dr  1 4.300000e-01    3.380000e+00
 SP1aq  N1dr  1 4.300000e-01    3.380000e+00
 SP2aq  N1dr  1 4.300000e-01    3.380000e+00
 SP3aq  N1dr  1 4.300000e-01    2.930000e+00
 SP4aq  N1dr  1 4.300000e-01    2.920000e+00
 SP5aq  N1dr  1 4.300000e-01    2.770000e+00
 SP6aq  N1dr  1 4.300000e-01    2.770000e+00
  N2ah  SN1d  1 4.300000e-01    2.930000e+00
  N3ah  SN2d  1 4.300000e-01    3.160000e+00
  N3ah  SN1d  1 4.300000e-01    2.930000e+00
  N4ah  SN3d  1 4.300000e-01    3.160000e+00
  N4ah  SN2d  1 4.300000e-01    3.160000e+00
  N4ah  SN1d  1 4.300000e-01    2.930000e+00
  N5ah  SN4d  1 4.300000e-01    3.380000e+00
  N5ah  SN3d  1 4.300000e-01    3.160000e+00
  N5ah  SN2d  1 4.300000e-01    3.160000e+00
  N5ah  SN1d  1 4.300000e-01    2.930000e+00
  N6ah  SN5d  1 4.300000e-01    3.590000e+00
  N6ah  SN4d  1 4.300000e-01    3.590000e+00
  N6ah  SN3d  1 4.300000e-01    3.160000e+00
  N6ah  SN2d  1 4.300000e-01    2.930000e+00
  N6ah  SN1d  1 4.300000e-01    2.930000e+00
  P1ah  SN6d  1 4.300000e-01    3.590000e+00
  P1ah  SN5d  1 4.300000e-01    3.380000e+00
  P1ah  SN4d  1 4.300000e-01    3.380000e+00
  P1ah  SN3d  1 4.300000e-01    2.930000e+00
  P1ah  SN2d  1 4.300000e-01    2.930000e+00
  P1ah  SN1d  1 4.300000e-01    2.930000e+00
  P2ah  SP1d  1 4.300000e-01    3.590000e+00
  P2ah  SN6d  1 4.300000e-01    3.590000e+00
  P2ah  SN5d  1 4.300000e-01    3.380000e+00
  P2ah  SN4d  1 4.300000e-01    3.160000e+00
  P2ah  SN3d  1 4.300000e-01    2.930000e+00
  P2ah  SN2d  1 4.300000e-01    2.930000e+00
  P2ah  SN1d  1 4.300000e-01    2.930000e+00
  P3ah  SP2d  1 4.300000e-01    3.770000e+00
  P3ah  SP1d  1 4.300000e-01    3.590000e+00
  P3ah  SN6d  1 4.300000e-01    3.380000e+00
  P3ah  SN5d  1 4.300000e-01    3.160000e+00
  P3ah  SN4d  1 4.300000e-01    3.160000e+00
  P3ah  SN3d  1 4.300000e-01    2.930000e+00
  P3ah  SN2d  1 4.300000e-01    2.930000e+00
  P3ah  SN1d  1 4.300000e-01    2.770000e+00
  P4ah  SP3d  1 4.300000e-01    3.770000e+00
  P4ah  SP2d  1 4.300000e-01    3.770000e+00
  P4ah  SP1d  1 4.300000e-01    3.590000e+00
  P4ah  SN6d  1 4.300000e-01    3.380000e+00
  P4ah  SN5d  1 4.300000e-01    3.160000e+00
  P4ah  SN4d  1 4.300000e-01    3.160000e+00
  P4ah  SN3d  1 4.300000e-01    2.930000e+00
  P4ah  SN2d  1 4.300000e-01    2.770000e+00
  P4ah  SN1d  1 4.300000e-01    2.530000e+00
  P5ah  SP4d  1 4.300000e-01    3.970000e+00
  P5ah  SP3d  1 4.300000e-01    3.770000e+00
  P5ah  SP2d  1 4.300000e-01    3.770000e+00
  P5ah  SP1d  1 4.300000e-01    3.590000e+00
  P5ah  SN6d  1 4.300000e-01    3.380000e+00
  P5ah  SN5d  1 4.300000e-01    3.160000e+00
  P5ah  SN4d  1 4.300000e-01    3.160000e+00
  P5ah  SN3d  1 4.300000e-01    2.770000e+00
  P5ah  SN2d  1 4.300000e-01    2.530000e+00
  P5ah  SN1d  1 4.300000e-01    2.320000e+00
  P6ah  SP5d  1 4.300000e-01    4.400000e+00
  P6ah  SP4d  1 4.300000e-01    4.170000e+00
  P6ah  SP3d  1 4.300000e-01    3.970000e+00
  P6ah  SP2d  1 4.300000e-01    3.970000e+00
  P6ah  SP1d  1 4.300000e-01    3.770000e+00
  P6ah  SN6d  1 4.300000e-01    3.590000e+00
  P6ah  SN5d  1 4.300000e-01    3.160000e+00
  P6ah  SN4d  1 4.300000e-01    2.930000e+00
  P6ah  SN3d  1 4.300000e-01    2.770000e+00
  P6ah  SN2d  1 4.300000e-01    2.530000e+00
  P6ah  SN1d  1 4.300000e-01    2.320000e+00
 SN2ah   N1d  1 4.300000e-01    2.930000e+00
 SN3ah   N2d  1 4.300000e-01    3.160000e+00
 SN3ah   N1d  1 4.300000e-01    2.930000e+00
 SN4ah   N3d  1 4.300000e-01    3.160000e+00
 SN4ah   N2d  1 4.300000e-01    3.160000e+00
 SN4ah   N1d  1 4.300000e-01    2.930000e+00
 SN5ah   N4d  1 4.300000e-01    3.380000e+00
 SN5ah   N3d  1 4.300000e-01    3.160000e+00
 SN5ah   N2d  1 4.300000e-01    3.160000e+00
 SN5ah   N1d  1 4.300000e-01    2.930000e+00
 SN6ah   N5d  1 4.300000e-01    3.590000e+00
 SN6ah   N4d  1 4.300000e-01    3.590000e+00
 SN6ah   N3d  1 4.300000e-01    3.160000e+00
 SN6ah   N2d  1 4.300000e-01    2.930000e+00
 SN6ah   N1d  1 4.300000e-01    2.930000e+00
 SP1ah   N6d  1 4.300000e-01    3.590000e+00
 SP1ah   N5d  1 4.300000e-01    3.380000e+00
 SP1ah   N4d  1 4.300000e-01    3.380000e+00
 SP1ah   N3d  1 4.300000e-01    2.930000e+00
 SP1ah   N2d  1 4.300000e-01    2.930000e+00
 SP1ah   N1d  1 4.300000e-01    2.930000e+00
 SP2ah   P1d  1 4.300000e-01    3.590000e+00
 SP2ah   N6d  1 4.300000e-01    3.590000e+00
 SP2ah   N5d  1 4.300000e-01    3.380000e+00
 SP2ah   N4d  1 4.300000e-01    3.160000e+00
 SP2ah   N3d  1 4.300000e-01    2.930000e+00
 SP2ah   N2d  1 4.300000e-01    2.930000e+00
 SP2ah   N1d  1 4.300000e-01    2.930000e+00
 SP3ah   P2d  1 4.300000e-01    3.770000e+00
 SP3ah   P1d  1 4.300000e-01    3.590000e+00
 SP3ah   N6d  1 4.300000e-01    3.380000e+00
 SP3ah   N5d  1 4.300000e-01    3.160000e+00
 SP3ah   N4d  1 4.300000e-01    3.160000e+00
 SP3ah   N3d  1 4.300000e-01    2.930000e+00
 SP3ah   N2d  1 4.300000e-01    2.930000e+00
 SP3ah   N1d  1 4.300000e-01    2.770000e+00
 SP4ah   P3d  1 4.300000e-01    3.770000e+00
 SP4ah   P2d  1 4.300000e-01    3.770000e+00
 SP4ah   P1d  1 4.300000e-01    3.590000e+00
 SP4ah   N6d  1 4.300000e-01    3.380000e+00
 SP4ah   N5d  1 4.300000e-01    3.160000e+00
 SP4ah   N4d  1 4.300000e-01    3.160000e+00
 SP4ah   N3d  1 4.300000e-01    2.930000e+00
 SP4ah   N2d  1 4.300000e-01    2.770000e+00
 SP4ah   N1d  1 4.300000e-01    2.530000e+00
 SP5ah   P4d  1 4.300000e-01    3.970000e+00
 SP5ah   P3d  1 4.300000e-01    3.770000e+00
 SP5ah   P2d  1 4.300000e-01    3.770000e+00
 SP5ah   P1d  1 4.300000e-01    3.590000e+00
 SP5ah   N6d  1 4.300000e-01    3.380000e+00
 SP5ah   N5d  1 4.300000e-01    3.160000e+00
 SP5ah   N4d  1 4.300000e-01    3.160000e+00
 SP5ah   N3d  1 4.300000e-01    2.770000e+00
 SP5ah   N2d  1 4.300000e-01    2.530000e+00
 SP5ah   N1d  1 4.300000e-01    2.320000e+00
 SP6ah   P5d  1 4.300000e-01    4.400000e+00
 SP6ah   P4d  1 4.300000e-01    4.170000e+00
 SP6ah   P3d  1 4.300000e-01    3.970000e+00
 SP6ah   P2d  1 4.300000e-01    3.970000e+00
 SP6ah   P1d  1 4.300000e-01    3.770000e+00
 SP6ah   N6d  1 4.300000e-01    3.590000e+00
 SP6ah   N5d  1 4.300000e-01    3.160000e+00
 SP6ah   N4d  1 4.300000e-01    2.930000e+00
 SP6ah   N3d  1 4.300000e-01    2.770000e+00
 SP6ah   N2d  1 4.300000e-01    2.530000e+00
 SP6ah   N1d  1 4.300000e-01    2.320000e+00
  P6ah SP5dq  1 4.300000e-01    4.920000e+00
  P6ah SP4dq  1 4.300000e-01    4.680000e+00
  P6ah SP3dq  1 4.300000e-01    4.400000e+00
  P6ah SP2dq  1 4.300000e-01    4.400000e+00
  P6ah SP1dq  1 4.300000e-01    4.170000e+00
  P6ah SN6dq  1 4.300000e-01    3.970000e+00
  P6ah SN5dq  1 4.300000e-01    3.590000e+00
  P6ah SN4dq  1 4.300000e-01    3.380000e+00
  P6ah SN3dq  1 4.300000e-01    2.930000e+00
  P6ah SN2dq  1 4.300000e-01    2.920000e+00
  P6ah SN1dq  1 4.300000e-01    2.770000e+00
  P5ah SP4dq  1 4.300000e-01    4.400000e+00
  P5ah SP3dq  1 4.300000e-01    4.170000e+00
  P5ah SP2dq  1 4.300000e-01    4.170000e+00
  P5ah SP1dq  1 4.300000e-01    3.970000e+00
  P5ah SN6dq  1 4.300000e-01    3.770000e+00
  P5ah SN5dq  1 4.300000e-01    3.590000e+00
  P5ah SN4dq  1 4.300000e-01    3.590000e+00
  P5ah SN3dq  1 4.300000e-01    2.930000e+00
  P5ah SN2dq  1 4.300000e-01    2.920000e+00
  P5ah SN1dq  1 4.300000e-01    2.770000e+00
  P4ah SP3dq  1 4.300000e-01    4.170000e+00
  P4ah SP2dq  1 4.300000e-01    4.170000e+00
  P4ah SP1dq  1 4.300000e-01    3.970000e+00
  P4ah SN6dq  1 4.300000e-01    3.770000e+00
  P4ah SN5dq  1 4.300000e-01    3.590000e+00
  P4ah SN4dq  1 4.300000e-01    3.590000e+00
  P4ah SN3dq  1 4.300000e-01    3.380000e+00
  P4ah SN2dq  1 4.300000e-01    2.930000e+00
  P4ah SN1dq  1 4.300000e-01    2.920000e+00
  P3ah SP2dq  1 4.300000e-01    4.170000e+00
  P3ah SP1dq  1 4.300000e-01    3.970000e+00
  P3ah SN6dq  1 4.300000e-01    3.770000e+00
  P3ah SN5dq  1 4.300000e-01    3.590000e+00
  P3ah SN4dq  1 4.300000e-01    3.590000e+00
  P3ah SN3dq  1 4.300000e-01    3.380000e+00
  P3ah SN2dq  1 4.300000e-01    3.380000e+00
  P3ah SN1dq  1 4.300000e-01    2.930000e+00
  P2ah SP1dq  1 4.300000e-01    3.970000e+00
  P2ah SN6dq  1 4.300000e-01    3.970000e+00
  P2ah SN5dq  1 4.300000e-01    3.770000e+00
  P2ah SN4dq  1 4.300000e-01    3.590000e+00
  P2ah SN3dq  1 4.300000e-01    3.380000e+00
  P2ah SN2dq  1 4.300000e-01    3.380000e+00
  P2ah SN1dq  1 4.300000e-01    3.380000e+00
  P1ah SN6dq  1 4.300000e-01    3.970000e+00
  P1ah SN5dq  1 4.300000e-01    3.770000e+00
  P1ah SN4dq  1 4.300000e-01    3.770000e+00
  P1ah SN3dq  1 4.300000e-01    3.380000e+00
  P1ah SN2dq  1 4.300000e-01    3.380000e+00
  P1ah SN1dq  1 4.300000e-01    3.380000e+00
  N6ah SN5dq  1 4.300000e-01    3.970000e+00
  N6ah SN4dq  1 4.300000e-01    3.970000e+00
  N6ah SN3dq  1 4.300000e-01    3.590000e+00
  N6ah SN2dq  1 4.300000e-01    3.380000e+00
  N6ah SN1dq  1 4.300000e-01    3.380000e+00
  N5ah SN4dq  1 4.300000e-01    3.770000e+00
  N5ah SN3dq  1 4.300000e-01    3.590000e+00
  N5ah SN2dq  1 4.300000e-01    3.590000e+00
  N5ah SN1dq  1 4.300000e-01    3.380000e+00
  N4ah SN3dq  1 4.300000e-01    3.590000e+00
  N4ah SN2dq  1 4.300000e-01    3.590000e+00
  N4ah SN1dq  1 4.300000e-01    3.380000e+00
  N3ah SN2dq  1 4.300000e-01    3.590000e+00
  N3ah SN1dq  1 4.300000e-01    3.380000e+00
  N2ah SN1dq  1 4.300000e-01    3.380000e+00
 SP6ah  P5dq  1 4.300000e-01    4.920000e+00
 SP6ah  P4dq  1 4.300000e-01    4.680000e+00
 SP6ah  P3dq  1 4.300000e-01    4.400000e+00
 SP6ah  P2dq  1 4.300000e-01    4.400000e+00
 SP6ah  P1dq  1 4.300000e-01    4.170000e+00
 SP6ah  N6dq  1 4.300000e-01    3.970000e+00
 SP6ah  N5dq  1 4.300000e-01    3.590000e+00
 SP6ah  N4dq  1 4.300000e-01    3.380000e+00
 SP6ah  N3dq  1 4.300000e-01    2.930000e+00
 SP6ah  N2dq  1 4.300000e-01    2.920000e+00
 SP6ah  N1dq  1 4.300000e-01    2.770000e+00
 SP5ah  P4dq  1 4.300000e-01    4.400000e+00
 SP5ah  P3dq  1 4.300000e-01    4.170000e+00
 SP5ah  P2dq  1 4.300000e-01    4.170000e+00
 SP5ah  P1dq  1 4.300000e-01    3.970000e+00
 SP5ah  N6dq  1 4.300000e-01    3.770000e+00
 SP5ah  N5dq  1 4.300000e-01    3.590000e+00
 SP5ah  N4dq  1 4.300000e-01    3.590000e+00
 SP5ah  N3dq  1 4.300000e-01    2.930000e+00
 SP5ah  N2dq  1 4.300000e-01    2.920000e+00
 SP5ah  N1dq  1 4.300000e-01    2.770000e+00
 SP4ah  P3dq  1 4.300000e-01    4.170000e+00
 SP4ah  P2dq  1 4.300000e-01    4.170000e+00
 SP4ah  P1dq  1 4.300000e-01    3.970000e+00
 SP4ah  N6dq  1 4.300000e-01    3.770000e+00
 SP4ah  N5dq  1 4.300000e-01    3.590000e+00
 SP4ah  N4dq  1 4.300000e-01    3.590000e+00
 SP4ah  N3dq  1 4.300000e-01    3.380000e+00
 SP4ah  N2dq  1 4.300000e-01    2.930000e+00
 SP4ah  N1dq  1 4.300000e-01    2.920000e+00
 SP3ah  P2dq  1 4.300000e-01    4.170000e+00
 SP3ah  P1dq  1 4.300000e-01    3.970000e+00
 SP3ah  N6dq  1 4.300000e-01    3.770000e+00
 SP3ah  N5dq  1 4.300000e-01    3.590000e+00
 SP3ah  N4dq  1 4.300000e-01    3.590000e+00
 SP3ah  N3dq  1 4.300000e-01    3.380000e+00
 SP3ah  N2dq  1 4.300000e-01    3.380000e+00
 SP3ah  N1dq  1 4.300000e-01    2.930000e+00
 SP2ah  P1dq  1 4.300000e-01    3.970000e+00
 SP2ah  N6dq  1 4.300000e-01    3.970000e+00
 SP2ah  N5dq  1 4.300000e-01    3.770000e+00
 SP2ah  N4dq  1 4.300000e-01    3.590000e+00
 SP2ah  N3dq  1 4.300000e-01    3.380000e+00
 SP2ah  N2dq  1 4.300000e-01    3.380000e+00
 SP2ah  N1dq  1 4.300000e-01    3.380000e+00
 SP1ah  N6dq  1 4.300000e-01    3.970000e+00
 SP1ah  N5dq  1 4.300000e-01    3.770000e+00
 SP1ah  N4dq  1 4.300000e-01    3.770000e+00
 SP1ah  N3dq  1 4.300000e-01    3.380000e+00
 SP1ah  N2dq  1 4.300000e-01    3.380000e+00
 SP1ah  N1dq  1 4.300000e-01    3.380000e+00
 SN6ah  N5dq  1 4.300000e-01    3.970000e+00
 SN6ah  N4dq  1 4.300000e-01    3.970000e+00
 SN6ah  N3dq  1 4.300000e-01    3.590000e+00
 SN6ah  N2dq  1 4.300000e-01    3.380000e+00
 SN6ah  N1dq  1 4.300000e-01    3.380000e+00
 SN5ah  N4dq  1 4.300000e-01    3.770000e+00
 SN5ah  N3dq  1 4.300000e-01    3.590000e+00
 SN5ah  N2dq  1 4.300000e-01    3.590000e+00
 SN5ah  N1dq  1 4.300000e-01    3.380000e+00
 SN4ah  N3dq  1 4.300000e-01    3.590000e+00
 SN4ah  N2dq  1 4.300000e-01    3.590000e+00
 SN4ah  N1dq  1 4.300000e-01    3.380000e+00
 SN3ah  N2dq  1 4.300000e-01    3.590000e+00
 SN3ah  N1dq  1 4.300000e-01    3.380000e+00
 SN2ah  N1dq  1 4.300000e-01    3.380000e+00
  P6ah SP5dh  1 4.300000e-01    4.680000e+00
  P6ah SP4dh  1 4.300000e-01    4.400000e+00
  P6ah SP3dh  1 4.300000e-01    4.170000e+00
  P6ah SP2dh  1 4.300000e-01    4.170000e+00
  P6ah SP1dh  1 4.300000e-01    3.970000e+00
  P6ah SN6dh  1 4.300000e-01    3.770000e+00
  P6ah SN5dh  1 4.300000e-01    3.380000e+00
  P6ah SN4dh  1 4.300000e-01    3.160000e+00
  P6ah SN3dh  1 4.300000e-01    2.920000e+00
  P6ah SN2dh  1 4.300000e-01    2.770000e+00
  P6ah SN1dh  1 4.300000e-01    2.530000e+00
  P5ah SP4dh  1 4.300000e-01    4.170000e+00
  P5ah SP3dh  1 4.300000e-01    3.970000e+00
  P5ah SP2dh  1 4.300000e-01    3.970000e+00
  P5ah SP1dh  1 4.300000e-01    3.770000e+00
  P5ah SN6dh  1 4.300000e-01    3.590000e+00
  P5ah SN5dh  1 4.300000e-01    3.380000e+00
  P5ah SN4dh  1 4.300000e-01    3.380000e+00
  P5ah SN3dh  1 4.300000e-01    2.920000e+00
  P5ah SN2dh  1 4.300000e-01    2.770000e+00
  P5ah SN1dh  1 4.300000e-01    2.530000e+00
  P4ah SP3dh  1 4.300000e-01    3.970000e+00
  P4ah SP2dh  1 4.300000e-01    3.970000e+00
  P4ah SP1dh  1 4.300000e-01    3.770000e+00
  P4ah SN6dh  1 4.300000e-01    3.590000e+00
  P4ah SN5dh  1 4.300000e-01    3.380000e+00
  P4ah SN4dh  1 4.300000e-01    3.380000e+00
  P4ah SN3dh  1 4.300000e-01    3.160000e+00
  P4ah SN2dh  1 4.300000e-01    2.920000e+00
  P4ah SN1dh  1 4.300000e-01    2.770000e+00
  P3ah SP2dh  1 4.300000e-01    3.970000e+00
  P3ah SP1dh  1 4.300000e-01    3.770000e+00
  P3ah SN6dh  1 4.300000e-01    3.590000e+00
  P3ah SN5dh  1 4.300000e-01    3.380000e+00
  P3ah SN4dh  1 4.300000e-01    3.380000e+00
  P3ah SN3dh  1 4.300000e-01    3.160000e+00
  P3ah SN2dh  1 4.300000e-01    3.160000e+00
  P3ah SN1dh  1 4.300000e-01    2.920000e+00
  P2ah SP1dh  1 4.300000e-01    3.770000e+00
  P2ah SN6dh  1 4.300000e-01    3.770000e+00
  P2ah SN5dh  1 4.300000e-01    3.590000e+00
  P2ah SN4dh  1 4.300000e-01    3.380000e+00
  P2ah SN3dh  1 4.300000e-01    3.160000e+00
  P2ah SN2dh  1 4.300000e-01    3.160000e+00
  P2ah SN1dh  1 4.300000e-01    3.160000e+00
  P1ah SN6dh  1 4.300000e-01    3.770000e+00
  P1ah SN5dh  1 4.300000e-01    3.590000e+00
  P1ah SN4dh  1 4.300000e-01    3.590000e+00
  P1ah SN3dh  1 4.300000e-01    3.160000e+00
  P1ah SN2dh  1 4.300000e-01    3.160000e+00
  P1ah SN1dh  1 4.300000e-01    3.160000e+00
  N6ah SN5dh  1 4.300000e-01    3.770000e+00
  N6ah SN4dh  1 4.300000e-01    3.770000e+00
  N6ah SN3dh  1 4.300000e-01    3.380000e+00
  N6ah SN2dh  1 4.300000e-01    3.160000e+00
  N6ah SN1dh  1 4.300000e-01    3.160000e+00
  N5ah SN4dh  1 4.300000e-01    3.590000e+00
  N5ah SN3dh  1 4.300000e-01    3.380000e+00
  N5ah SN2dh  1 4.300000e-01    3.380000e+00
  N5ah SN1dh  1 4.300000e-01    3.160000e+00
  N4ah SN3dh  1 4.300000e-01    3.380000e+00
  N4ah SN2dh  1 4.300000e-01    3.380000e+00
  N4ah SN1dh  1 4.300000e-01    3.160000e+00
  N3ah SN2dh  1 4.300000e-01    3.380000e+00
  N3ah SN1dh  1 4.300000e-01    3.160000e+00
  N2ah SN1dh  1 4.300000e-01    3.160000e+00
 SP6ah  P5dh  1 4.300000e-01    4.680000e+00
 SP6ah  P4dh  1 4.300000e-01    4.400000e+00
 SP6ah  P3dh  1 4.300000e-01    4.170000e+00
 SP6ah  P2dh  1 4.300000e-01    4.170000e+00
 SP6ah  P1dh  1 4.300000e-01    3.970000e+00
 SP6ah  N6dh  1 4.300000e-01    3.770000e+00
 SP6ah  N5dh  1 4.300000e-01    3.380000e+00
 SP6ah  N4dh  1 4.300000e-01    3.160000e+00
 SP6ah  N3dh  1 4.300000e-01    2.920000e+00
 SP6ah  N2dh  1 4.300000e-01    2.770000e+00
 SP6ah  N1dh  1 4.300000e-01    2.530000e+00
 SP5ah  P4dh  1 4.300000e-01    4.170000e+00
 SP5ah  P3dh  1 4.300000e-01    3.970000e+00
 SP5ah  P2dh  1 4.300000e-01    3.970000e+00
 SP5ah  P1dh  1 4.300000e-01    3.770000e+00
 SP5ah  N6dh  1 4.300000e-01    3.590000e+00
 SP5ah  N5dh  1 4.300000e-01    3.380000e+00
 SP5ah  N4dh  1 4.300000e-01    3.380000e+00
 SP5ah  N3dh  1 4.300000e-01    2.920000e+00
 SP5ah  N2dh  1 4.300000e-01    2.770000e+00
 SP5ah  N1dh  1 4.300000e-01    2.530000e+00
 SP4ah  P3dh  1 4.300000e-01    3.970000e+00
 SP4ah  P2dh  1 4.300000e-01    3.970000e+00
 SP4ah  P1dh  1 4.300000e-01    3.770000e+00
 SP4ah  N6dh  1 4.300000e-01    3.590000e+00
 SP4ah  N5dh  1 4.300000e-01    3.380000e+00
 SP4ah  N4dh  1 4.300000e-01    3.380000e+00
 SP4ah  N3dh  1 4.300000e-01    3.160000e+00
 SP4ah  N2dh  1 4.300000e-01    2.920000e+00
 SP4ah  N1dh  1 4.300000e-01    2.770000e+00
 SP3ah  P2dh  1 4.300000e-01    3.970000e+00
 SP3ah  P1dh  1 4.300000e-01    3.770000e+00
 SP3ah  N6dh  1 4.300000e-01    3.590000e+00
 SP3ah  N5dh  1 4.300000e-01    3.380000e+00
 SP3ah  N4dh  1 4.300000e-01    3.380000e+00
 SP3ah  N3dh  1 4.300000e-01    3.160000e+00
 SP3ah  N2dh  1 4.300000e-01    3.160000e+00
 SP3ah  N1dh  1 4.300000e-01    2.920000e+00
 SP2ah  P1dh  1 4.300000e-01    3.770000e+00
 SP2ah  N6dh  1 4.300000e-01    3.770000e+00
 SP2ah  N5dh  1 4.300000e-01    3.590000e+00
 SP2ah  N4dh  1 4.300000e-01    3.380000e+00
 SP2ah  N3dh  1 4.300000e-01    3.160000e+00
 SP2ah  N2dh  1 4.300000e-01    3.160000e+00
 SP2ah  N1dh  1 4.300000e-01    3.160000e+00
 SP1ah  N6dh  1 4.300000e-01    3.770000e+00
 SP1ah  N5dh  1 4.300000e-01    3.590000e+00
 SP1ah  N4dh  1 4.300000e-01    3.590000e+00
 SP1ah  N3dh  1 4.300000e-01    3.160000e+00
 SP1ah  N2dh  1 4.300000e-01    3.160000e+00
 SP1ah  N1dh  1 4.300000e-01    3.160000e+00
 SN6ah  N5dh  1 4.300000e-01    3.770000e+00
 SN6ah  N4dh  1 4.300000e-01    3.770000e+00
 SN6ah  N3dh  1 4.300000e-01    3.380000e+00
 SN6ah  N2dh  1 4.300000e-01    3.160000e+00
 SN6ah  N1dh  1 4.300000e-01    3.160000e+00
 SN5ah  N4dh  1 4.300000e-01    3.590000e+00
 SN5ah  N3dh  1 4.300000e-01    3.380000e+00
 SN5ah  N2dh  1 4.300000e-01    3.380000e+00
 SN5ah  N1dh  1 4.300000e-01    3.160000e+00
 SN4ah  N3dh  1 4.300000e-01    3.380000e+00
 SN4ah  N2dh  1 4.300000e-01    3.380000e+00
 SN4ah  N1dh  1 4.300000e-01    3.160000e+00
 SN3ah  N2dh  1 4.300000e-01    3.380000e+00
 SN3ah  N1dh  1 4.300000e-01    3.160000e+00
 SN2ah  N1dh  1 4.300000e-01    3.160000e+00
  P6ah SP5dr  1 4.300000e-01    4.400000e+00
  P6ah SP4dr  1 4.300000e-01    4.170000e+00
  P6ah SP3dr  1 4.300000e-01    3.970000e+00
  P6ah SP2dr  1 4.300000e-01    3.970000e+00
  P6ah SP1dr  1 4.300000e-01    3.770000e+00
  P6ah SN6dr  1 4.300000e-01    3.590000e+00
  P6ah SN5dr  1 4.300000e-01    3.160000e+00
  P6ah SN4dr  1 4.300000e-01    2.930000e+00
  P6ah SN3dr  1 4.300000e-01    2.770000e+00
  P6ah SN2dr  1 4.300000e-01    2.530000e+00
  P6ah SN1dr  1 4.300000e-01    2.320000e+00
  P5ah SP4dr  1 4.300000e-01    3.970000e+00
  P5ah SP3dr  1 4.300000e-01    3.770000e+00
  P5ah SP2dr  1 4.300000e-01    3.770000e+00
  P5ah SP1dr  1 4.300000e-01    3.590000e+00
  P5ah SN6dr  1 4.300000e-01    3.380000e+00
  P5ah SN5dr  1 4.300000e-01    3.160000e+00
  P5ah SN4dr  1 4.300000e-01    3.160000e+00
  P5ah SN3dr  1 4.300000e-01    2.770000e+00
  P5ah SN2dr  1 4.300000e-01    2.530000e+00
  P5ah SN1dr  1 4.300000e-01    2.320000e+00
  P4ah SP3dr  1 4.300000e-01    3.770000e+00
  P4ah SP2dr  1 4.300000e-01    3.770000e+00
  P4ah SP1dr  1 4.300000e-01    3.590000e+00
  P4ah SN6dr  1 4.300000e-01    3.380000e+00
  P4ah SN5dr  1 4.300000e-01    3.160000e+00
  P4ah SN4dr  1 4.300000e-01    3.160000e+00
  P4ah SN3dr  1 4.300000e-01    2.930000e+00
  P4ah SN2dr  1 4.300000e-01    2.770000e+00
  P4ah SN1dr  1 4.300000e-01    2.530000e+00
  P3ah SP2dr  1 4.300000e-01    3.770000e+00
  P3ah SP1dr  1 4.300000e-01    3.590000e+00
  P3ah SN6dr  1 4.300000e-01    3.380000e+00
  P3ah SN5dr  1 4.300000e-01    3.160000e+00
  P3ah SN4dr  1 4.300000e-01    3.160000e+00
  P3ah SN3dr  1 4.300000e-01    2.930000e+00
  P3ah SN2dr  1 4.300000e-01    2.930000e+00
  P3ah SN1dr  1 4.300000e-01    2.770000e+00
  P2ah SP1dr  1 4.300000e-01    3.590000e+00
  P2ah SN6dr  1 4.300000e-01    3.590000e+00
  P2ah SN5dr  1 4.300000e-01    3.380000e+00
  P2ah SN4dr  1 4.300000e-01    3.160000e+00
  P2ah SN3dr  1 4.300000e-01    2.930000e+00
  P2ah SN2dr  1 4.300000e-01    2.930000e+00
  P2ah SN1dr  1 4.300000e-01    2.930000e+00
  P1ah SN6dr  1 4.300000e-01    3.590000e+00
  P1ah SN5dr  1 4.300000e-01    3.380000e+00
  P1ah SN4dr  1 4.300000e-01    3.380000e+00
  P1ah SN3dr  1 4.300000e-01    2.930000e+00
  P1ah SN2dr  1 4.300000e-01    2.930000e+00
  P1ah SN1dr  1 4.300000e-01    2.930000e+00
  N6ah SN5dr  1 4.300000e-01    3.590000e+00
  N6ah SN4dr  1 4.300000e-01    3.590000e+00
  N6ah SN3dr  1 4.300000e-01    3.160000e+00
  N6ah SN2dr  1 4.300000e-01    2.930000e+00
  N6ah SN1dr  1 4.300000e-01    2.930000e+00
  N5ah SN4dr  1 4.300000e-01    3.380000e+00
  N5ah SN3dr  1 4.300000e-01    3.160000e+00
  N5ah SN2dr  1 4.300000e-01    3.160000e+00
  N5ah SN1dr  1 4.300000e-01    2.930000e+00
  N4ah SN3dr  1 4.300000e-01    3.160000e+00
  N4ah SN2dr  1 4.300000e-01    3.160000e+00
  N4ah SN1dr  1 4.300000e-01    2.930000e+00
  N3ah SN2dr  1 4.300000e-01    3.160000e+00
  N3ah SN1dr  1 4.300000e-01    2.930000e+00
  N2ah SN1dr  1 4.300000e-01    2.930000e+00
 SP6ah  P5dr  1 4.300000e-01    4.400000e+00
 SP6ah  P4dr  1 4.300000e-01    4.170000e+00
 SP6ah  P3dr  1 4.300000e-01    3.970000e+00
 SP6ah  P2dr  1 4.300000e-01    3.970000e+00
 SP6ah  P1dr  1 4.300000e-01    3.770000e+00
 SP6ah  N6dr  1 4.300000e-01    3.590000e+00
 SP6ah  N5dr  1 4.300000e-01    3.160000e+00
 SP6ah  N4dr  1 4.300000e-01    2.930000e+00
 SP6ah  N3dr  1 4.300000e-01    2.770000e+00
 SP6ah  N2dr  1 4.300000e-01    2.530000e+00
 SP6ah  N1dr  1 4.300000e-01    2.320000e+00
 SP5ah  P4dr  1 4.300000e-01    3.970000e+00
 SP5ah  P3dr  1 4.300000e-01    3.770000e+00
 SP5ah  P2dr  1 4.300000e-01    3.770000e+00
 SP5ah  P1dr  1 4.300000e-01    3.590000e+00
 SP5ah  N6dr  1 4.300000e-01    3.380000e+00
 SP5ah  N5dr  1 4.300000e-01    3.160000e+00
 SP5ah  N4dr  1 4.300000e-01    3.160000e+00
 SP5ah  N3dr  1 4.300000e-01    2.770000e+00
 SP5ah  N2dr  1 4.300000e-01    2.530000e+00
 SP5ah  N1dr  1 4.300000e-01    2.320000e+00
 SP4ah  P3dr  1 4.300000e-01    3.770000e+00
 SP4ah  P2dr  1 4.300000e-01    3.770000e+00
 SP4ah  P1dr  1 4.300000e-01    3.590000e+00
 SP4ah  N6dr  1 4.300000e-01    3.380000e+00
 SP4ah  N5dr  1 4.300000e-01    3.160000e+00
 SP4ah  N4dr  1 4.300000e-01    3.160000e+00
 SP4ah  N3dr  1 4.300000e-01    2.930000e+00
 SP4ah  N2dr  1 4.300000e-01    2.770000e+00
 SP4ah  N1dr  1 4.300000e-01    2.530000e+00
 SP3ah  P2dr  1 4.300000e-01    3.770000e+00
 SP3ah  P1dr  1 4.300000e-01    3.590000e+00
 SP3ah  N6dr  1 4.300000e-01    3.380000e+00
 SP3ah  N5dr  1 4.300000e-01    3.160000e+00
 SP3ah  N4dr  1 4.300000e-01    3.160000e+00
 SP3ah  N3dr  1 4.300000e-01    2.930000e+00
 SP3ah  N2dr  1 4.300000e-01    2.930000e+00
 SP3ah  N1dr  1 4.300000e-01    2.770000e+00
 SP2ah  P1dr  1 4.300000e-01    3.590000e+00
 SP2ah  N6dr  1 4.300000e-01    3.590000e+00
 SP2ah  N5dr  1 4.300000e-01    3.380000e+00
 SP2ah  N4dr  1 4.300000e-01    3.160000e+00
 SP2ah  N3dr  1 4.300000e-01    2.930000e+00
 SP2ah  N2dr  1 4.300000e-01    2.930000e+00
 SP2ah  N1dr  1 4.300000e-01    2.930000e+00
 SP1ah  N6dr  1 4.300000e-01    3.590000e+00
 SP1ah  N5dr  1 4.300000e-01    3.380000e+00
 SP1ah  N4dr  1 4.300000e-01    3.380000e+00
 SP1ah  N3dr  1 4.300000e-01    2.930000e+00
 SP1ah  N2dr  1 4.300000e-01    2.930000e+00
 SP1ah  N1dr  1 4.300000e-01    2.930000e+00
 SN6ah  N5dr  1 4.300000e-01    3.590000e+00
 SN6ah  N4dr  1 4.300000e-01    3.590000e+00
 SN6ah  N3dr  1 4.300000e-01    3.160000e+00
 SN6ah  N2dr  1 4.300000e-01    2.930000e+00
 SN6ah  N1dr  1 4.300000e-01    2.930000e+00
 SN5ah  N4dr  1 4.300000e-01    3.380000e+00
 SN5ah  N3dr  1 4.300000e-01    3.160000e+00
 SN5ah  N2dr  1 4.300000e-01    3.160000e+00
 SN5ah  N1dr  1 4.300000e-01    2.930000e+00
 SN4ah  N3dr  1 4.300000e-01    3.160000e+00
 SN4ah  N2dr  1 4.300000e-01    3.160000e+00
 SN4ah  N1dr  1 4.300000e-01    2.930000e+00
 SN3ah  N2dr  1 4.300000e-01    3.160000e+00
 SN3ah  N1dr  1 4.300000e-01    2.930000e+00
 SN2ah  N1dr  1 4.300000e-01    2.930000e+00
  N2ar  SN1d  1 4.300000e-01    2.930000e+00
  N3ar  SN2d  1 4.300000e-01    3.160000e+00
  N3ar  SN1d  1 4.300000e-01    2.930000e+00
  N4ar  SN3d  1 4.300000e-01    3.160000e+00
  N4ar  SN2d  1 4.300000e-01    3.160000e+00
  N4ar  SN1d  1 4.300000e-01    2.930000e+00
  N5ar  SN4d  1 4.300000e-01    3.380000e+00
  N5ar  SN3d  1 4.300000e-01    3.160000e+00
  N5ar  SN2d  1 4.300000e-01    3.160000e+00
  N5ar  SN1d  1 4.300000e-01    2.930000e+00
  N6ar  SN5d  1 4.300000e-01    3.590000e+00
  N6ar  SN4d  1 4.300000e-01    3.590000e+00
  N6ar  SN3d  1 4.300000e-01    3.160000e+00
  N6ar  SN2d  1 4.300000e-01    2.930000e+00
  N6ar  SN1d  1 4.300000e-01    2.930000e+00
  P1ar  SN6d  1 4.300000e-01    3.590000e+00
  P1ar  SN5d  1 4.300000e-01    3.380000e+00
  P1ar  SN4d  1 4.300000e-01    3.380000e+00
  P1ar  SN3d  1 4.300000e-01    2.930000e+00
  P1ar  SN2d  1 4.300000e-01    2.930000e+00
  P1ar  SN1d  1 4.300000e-01    2.930000e+00
  P2ar  SP1d  1 4.300000e-01    3.590000e+00
  P2ar  SN6d  1 4.300000e-01    3.590000e+00
  P2ar  SN5d  1 4.300000e-01    3.380000e+00
  P2ar  SN4d  1 4.300000e-01    3.160000e+00
  P2ar  SN3d  1 4.300000e-01    2.930000e+00
  P2ar  SN2d  1 4.300000e-01    2.930000e+00
  P2ar  SN1d  1 4.300000e-01    2.930000e+00
  P3ar  SP2d  1 4.300000e-01    3.770000e+00
  P3ar  SP1d  1 4.300000e-01    3.590000e+00
  P3ar  SN6d  1 4.300000e-01    3.380000e+00
  P3ar  SN5d  1 4.300000e-01    3.160000e+00
  P3ar  SN4d  1 4.300000e-01    3.160000e+00
  P3ar  SN3d  1 4.300000e-01    2.930000e+00
  P3ar  SN2d  1 4.300000e-01    2.930000e+00
  P3ar  SN1d  1 4.300000e-01    2.770000e+00
  P4ar  SP3d  1 4.300000e-01    3.770000e+00
  P4ar  SP2d  1 4.300000e-01    3.770000e+00
  P4ar  SP1d  1 4.300000e-01    3.590000e+00
  P4ar  SN6d  1 4.300000e-01    3.380000e+00
  P4ar  SN5d  1 4.300000e-01    3.160000e+00
  P4ar  SN4d  1 4.300000e-01    3.160000e+00
  P4ar  SN3d  1 4.300000e-01    2.930000e+00
  P4ar  SN2d  1 4.300000e-01    2.770000e+00
  P4ar  SN1d  1 4.300000e-01    2.530000e+00
  P5ar  SP4d  1 4.300000e-01    3.970000e+00
  P5ar  SP3d  1 4.300000e-01    3.770000e+00
  P5ar  SP2d  1 4.300000e-01    3.770000e+00
  P5ar  SP1d  1 4.300000e-01    3.590000e+00
  P5ar  SN6d  1 4.300000e-01    3.380000e+00
  P5ar  SN5d  1 4.300000e-01    3.160000e+00
  P5ar  SN4d  1 4.300000e-01    3.160000e+00
  P5ar  SN3d  1 4.300000e-01    2.770000e+00
  P5ar  SN2d  1 4.300000e-01    2.530000e+00
  P5ar  SN1d  1 4.300000e-01    2.320000e+00
  P6ar  SP5d  1 4.300000e-01    4.400000e+00
  P6ar  SP4d  1 4.300000e-01    4.170000e+00
  P6ar  SP3d  1 4.300000e-01    3.970000e+00
  P6ar  SP2d  1 4.300000e-01    3.970000e+00
  P6ar  SP1d  1 4.300000e-01    3.770000e+00
  P6ar  SN6d  1 4.300000e-01    3.590000e+00
  P6ar  SN5d  1 4.300000e-01    3.160000e+00
  P6ar  SN4d  1 4.300000e-01    2.930000e+00
  P6ar  SN3d  1 4.300000e-01    2.770000e+00
  P6ar  SN2d  1 4.300000e-01    2.530000e+00
  P6ar  SN1d  1 4.300000e-01    2.320000e+00
 SN2ar   N1d  1 4.300000e-01    2.930000e+00
 SN3ar   N2d  1 4.300000e-01    3.160000e+00
 SN3ar   N1d  1 4.300000e-01    2.930000e+00
 SN4ar   N3d  1 4.300000e-01    3.160000e+00
 SN4ar   N2d  1 4.300000e-01    3.160000e+00
 SN4ar   N1d  1 4.300000e-01    2.930000e+00
 SN5ar   N4d  1 4.300000e-01    3.380000e+00
 SN5ar   N3d  1 4.300000e-01    3.160000e+00
 SN5ar   N2d  1 4.300000e-01    3.160000e+00
 SN5ar   N1d  1 4.300000e-01    2.930000e+00
 SN6ar   N5d  1 4.300000e-01    3.590000e+00
 SN6ar   N4d  1 4.300000e-01    3.590000e+00
 SN6ar   N3d  1 4.300000e-01    3.160000e+00
 SN6ar   N2d  1 4.300000e-01    2.930000e+00
 SN6ar   N1d  1 4.300000e-01    2.930000e+00
 SP1ar   N6d  1 4.300000e-01    3.590000e+00
 SP1ar   N5d  1 4.300000e-01    3.380000e+00
 SP1ar   N4d  1 4.300000e-01    3.380000e+00
 SP1ar   N3d  1 4.300000e-01    2.930000e+00
 SP1ar   N2d  1 4.300000e-01    2.930000e+00
 SP1ar   N1d  1 4.300000e-01    2.930000e+00
 SP2ar   P1d  1 4.300000e-01    3.590000e+00
 SP2ar   N6d  1 4.300000e-01    3.590000e+00
 SP2ar   N5d  1 4.300000e-01    3.380000e+00
 SP2ar   N4d  1 4.300000e-01    3.160000e+00
 SP2ar   N3d  1 4.300000e-01    2.930000e+00
 SP2ar   N2d  1 4.300000e-01    2.930000e+00
 SP2ar   N1d  1 4.300000e-01    2.930000e+00
 SP3ar   P2d  1 4.300000e-01    3.770000e+00
 SP3ar   P1d  1 4.300000e-01    3.590000e+00
 SP3ar   N6d  1 4.300000e-01    3.380000e+00
 SP3ar   N5d  1 4.300000e-01    3.160000e+00
 SP3ar   N4d  1 4.300000e-01    3.160000e+00
 SP3ar   N3d  1 4.300000e-01    2.930000e+00
 SP3ar   N2d  1 4.300000e-01    2.930000e+00
 SP3ar   N1d  1 4.300000e-01    2.770000e+00
 SP4ar   P3d  1 4.300000e-01    3.770000e+00
 SP4ar   P2d  1 4.300000e-01    3.770000e+00
 SP4ar   P1d  1 4.300000e-01    3.590000e+00
 SP4ar   N6d  1 4.300000e-01    3.380000e+00
 SP4ar   N5d  1 4.300000e-01    3.160000e+00
 SP4ar   N4d  1 4.300000e-01    3.160000e+00
 SP4ar   N3d  1 4.300000e-01    2.930000e+00
 SP4ar   N2d  1 4.300000e-01    2.770000e+00
 SP4ar   N1d  1 4.300000e-01    2.530000e+00
 SP5ar   P4d  1 4.300000e-01    3.970000e+00
 SP5ar   P3d  1 4.300000e-01    3.770000e+00
 SP5ar   P2d  1 4.300000e-01    3.770000e+00
 SP5ar   P1d  1 4.300000e-01    3.590000e+00
 SP5ar   N6d  1 4.300000e-01    3.380000e+00
 SP5ar   N5d  1 4.300000e-01    3.160000e+00
 SP5ar   N4d  1 4.300000e-01    3.160000e+00
 SP5ar   N3d  1 4.300000e-01    2.770000e+00
 SP5ar   N2d  1 4.300000e-01    2.530000e+00
 SP5ar   N1d  1 4.300000e-01    2.320000e+00
 SP6ar   P5d  1 4.300000e-01    4.400000e+00
 SP6ar   P4d  1 4.300000e-01    4.170000e+00
 SP6ar   P3d  1 4.300000e-01    3.970000e+00
 SP6ar   P2d  1 4.300000e-01    3.970000e+00
 SP6ar   P1d  1 4.300000e-01    3.770000e+00
 SP6ar   N6d  1 4.300000e-01    3.590000e+00
 SP6ar   N5d  1 4.300000e-01    3.160000e+00
 SP6ar   N4d  1 4.300000e-01    2.930000e+00
 SP6ar   N3d  1 4.300000e-01    2.770000e+00
 SP6ar   N2d  1 4.300000e-01    2.530000e+00
 SP6ar   N1d  1 4.300000e-01    2.320000e+00
  P6ar SP5dq  1 4.300000e-01    4.920000e+00
  P6ar SP4dq  1 4.300000e-01    4.680000e+00
  P6ar SP3dq  1 4.300000e-01    4.400000e+00
  P6ar SP2dq  1 4.300000e-01    4.400000e+00
  P6ar SP1dq  1 4.300000e-01    4.170000e+00
  P6ar SN6dq  1 4.300000e-01    3.970000e+00
  P6ar SN5dq  1 4.300000e-01    3.590000e+00
  P6ar SN4dq  1 4.300000e-01    3.380000e+00
  P6ar SN3dq  1 4.300000e-01    2.930000e+00
  P6ar SN2dq  1 4.300000e-01    2.920000e+00
  P6ar SN1dq  1 4.300000e-01    2.770000e+00
  P5ar SP4dq  1 4.300000e-01    4.400000e+00
  P5ar SP3dq  1 4.300000e-01    4.170000e+00
  P5ar SP2dq  1 4.300000e-01    4.170000e+00
  P5ar SP1dq  1 4.300000e-01    3.970000e+00
  P5ar SN6dq  1 4.300000e-01    3.770000e+00
  P5ar SN5dq  1 4.300000e-01    3.590000e+00
  P5ar SN4dq  1 4.300000e-01    3.590000e+00
  P5ar SN3dq  1 4.300000e-01    2.930000e+00
  P5ar SN2dq  1 4.300000e-01    2.920000e+00
  P5ar SN1dq  1 4.300000e-01    2.770000e+00
  P4ar SP3dq  1 4.300000e-01    4.170000e+00
  P4ar SP2dq  1 4.300000e-01    4.170000e+00
  P4ar SP1dq  1 4.300000e-01    3.970000e+00
  P4ar SN6dq  1 4.300000e-01    3.770000e+00
  P4ar SN5dq  1 4.300000e-01    3.590000e+00
  P4ar SN4dq  1 4.300000e-01    3.590000e+00
  P4ar SN3dq  1 4.300000e-01    3.380000e+00
  P4ar SN2dq  1 4.300000e-01    2.930000e+00
  P4ar SN1dq  1 4.300000e-01    2.920000e+00
  P3ar SP2dq  1 4.300000e-01    4.170000e+00
  P3ar SP1dq  1 4.300000e-01    3.970000e+00
  P3ar SN6dq  1 4.300000e-01    3.770000e+00
  P3ar SN5dq  1 4.300000e-01    3.590000e+00
  P3ar SN4dq  1 4.300000e-01    3.590000e+00
  P3ar SN3dq  1 4.300000e-01    3.380000e+00
  P3ar SN2dq  1 4.300000e-01    3.380000e+00
  P3ar SN1dq  1 4.300000e-01    2.930000e+00
  P2ar SP1dq  1 4.300000e-01    3.970000e+00
  P2ar SN6dq  1 4.300000e-01    3.970000e+00
  P2ar SN5dq  1 4.300000e-01    3.770000e+00
  P2ar SN4dq  1 4.300000e-01    3.590000e+00
  P2ar SN3dq  1 4.300000e-01    3.380000e+00
  P2ar SN2dq  1 4.300000e-01    3.380000e+00
  P2ar SN1dq  1 4.300000e-01    3.380000e+00
  P1ar SN6dq  1 4.300000e-01    3.970000e+00
  P1ar SN5dq  1 4.300000e-01    3.770000e+00
  P1ar SN4dq  1 4.300000e-01    3.770000e+00
  P1ar SN3dq  1 4.300000e-01    3.380000e+00
  P1ar SN2dq  1 4.300000e-01    3.380000e+00
  P1ar SN1dq  1 4.300000e-01    3.380000e+00
  N6ar SN5dq  1 4.300000e-01    3.970000e+00
  N6ar SN4dq  1 4.300000e-01    3.970000e+00
  N6ar SN3dq  1 4.300000e-01    3.590000e+00
  N6ar SN2dq  1 4.300000e-01    3.380000e+00
  N6ar SN1dq  1 4.300000e-01    3.380000e+00
  N5ar SN4dq  1 4.300000e-01    3.770000e+00
  N5ar SN3dq  1 4.300000e-01    3.590000e+00
  N5ar SN2dq  1 4.300000e-01    3.590000e+00
  N5ar SN1dq  1 4.300000e-01    3.380000e+00
  N4ar SN3dq  1 4.300000e-01    3.590000e+00
  N4ar SN2dq  1 4.300000e-01    3.590000e+00
  N4ar SN1dq  1 4.300000e-01    3.380000e+00
  N3ar SN2dq  1 4.300000e-01    3.590000e+00
  N3ar SN1dq  1 4.300000e-01    3.380000e+00
  N2ar SN1dq  1 4.300000e-01    3.380000e+00
 SP6ar  P5dq  1 4.300000e-01    4.920000e+00
 SP6ar  P4dq  1 4.300000e-01    4.680000e+00
 SP6ar  P3dq  1 4.300000e-01    4.400000e+00
 SP6ar  P2dq  1 4.300000e-01    4.400000e+00
 SP6ar  P1dq  1 4.300000e-01    4.170000e+00
 SP6ar  N6dq  1 4.300000e-01    3.970000e+00
 SP6ar  N5dq  1 4.300000e-01    3.590000e+00
 SP6ar  N4dq  1 4.300000e-01    3.380000e+00
 SP6ar  N3dq  1 4.300000e-01    2.930000e+00
 SP6ar  N2dq  1 4.300000e-01    2.920000e+00
 SP6ar  N1dq  1 4.300000e-01    2.770000e+00
 SP5ar  P4dq  1 4.300000e-01    4.400000e+00
 SP5ar  P3dq  1 4.300000e-01    4.170000e+00
 SP5ar  P2dq  1 4.300000e-01    4.170000e+00
 SP5ar  P1dq  1 4.300000e-01    3.970000e+00
 SP5ar  N6dq  1 4.300000e-01    3.770000e+00
 SP5ar  N5dq  1 4.300000e-01    3.590000e+00
 SP5ar  N4dq  1 4.300000e-01    3.590000e+00
 SP5ar  N3dq  1 4.300000e-01    2.930000e+00
 SP5ar  N2dq  1 4.300000e-01    2.920000e+00
 SP5ar  N1dq  1 4.300000e-01    2.770000e+00
 SP4ar  P3dq  1 4.300000e-01    4.170000e+00
 SP4ar  P2dq  1 4.300000e-01    4.170000e+00
 SP4ar  P1dq  1 4.300000e-01    3.970000e+00
 SP4ar  N6dq  1 4.300000e-01    3.770000e+00
 SP4ar  N5dq  1 4.300000e-01    3.590000e+00
 SP4ar  N4dq  1 4.300000e-01    3.590000e+00
 SP4ar  N3dq  1 4.300000e-01    3.380000e+00
 SP4ar  N2dq  1 4.300000e-01    2.930000e+00
 SP4ar  N1dq  1 4.300000e-01    2.920000e+00
 SP3ar  P2dq  1 4.300000e-01    4.170000e+00
 SP3ar  P1dq  1 4.300000e-01    3.970000e+00
 SP3ar  N6dq  1 4.300000e-01    3.770000e+00
 SP3ar  N5dq  1 4.300000e-01    3.590000e+00
 SP3ar  N4dq  1 4.300000e-01    3.590000e+00
 SP3ar  N3dq  1 4.300000e-01    3.380000e+00
 SP3ar  N2dq  1 4.300000e-01    3.380000e+00
 SP3ar  N1dq  1 4.300000e-01    2.930000e+00
 SP2ar  P1dq  1 4.300000e-01    3.970000e+00
 SP2ar  N6dq  1 4.300000e-01    3.970000e+00
 SP2ar  N5dq  1 4.300000e-01    3.770000e+00
 SP2ar  N4dq  1 4.300000e-01    3.590000e+00
 SP2ar  N3dq  1 4.300000e-01    3.380000e+00
 SP2ar  N2dq  1 4.300000e-01    3.380000e+00
 SP2ar  N1dq  1 4.300000e-01    3.380000e+00
 SP1ar  N6dq  1 4.300000e-01    3.970000e+00
 SP1ar  N5dq  1 4.300000e-01    3.770000e+00
 SP1ar  N4dq  1 4.300000e-01    3.770000e+00
 SP1ar  N3dq  1 4.300000e-01    3.380000e+00
 SP1ar  N2dq  1 4.300000e-01    3.380000e+00
 SP1ar  N1dq  1 4.300000e-01    3.380000e+00
 SN6ar  N5dq  1 4.300000e-01    3.970000e+00
 SN6ar  N4dq  1 4.300000e-01    3.970000e+00
 SN6ar  N3dq  1 4.300000e-01    3.590000e+00
 SN6ar  N2dq  1 4.300000e-01    3.380000e+00
 SN6ar  N1dq  1 4.300000e-01    3.380000e+00
 SN5ar  N4dq  1 4.300000e-01    3.770000e+00
 SN5ar  N3dq  1 4.300000e-01    3.590000e+00
 SN5ar  N2dq  1 4.300000e-01    3.590000e+00
 SN5ar  N1dq  1 4.300000e-01    3.380000e+00
 SN4ar  N3dq  1 4.300000e-01    3.590000e+00
 SN4ar  N2dq  1 4.300000e-01    3.590000e+00
 SN4ar  N1dq  1 4.300000e-01    3.380000e+00
 SN3ar  N2dq  1 4.300000e-01    3.590000e+00
 SN3ar  N1dq  1 4.300000e-01    3.380000e+00
 SN2ar  N1dq  1 4.300000e-01    3.380000e+00
  P6ar SP5dh  1 4.300000e-01    4.400000e+00
  P6ar SP4dh  1 4.300000e-01    4.170000e+00
  P6ar SP3dh  1 4.300000e-01    3.970000e+00
  P6ar SP2dh  1 4.300000e-01    3.970000e+00
  P6ar SP1dh  1 4.300000e-01    3.770000e+00
  P6ar SN6dh  1 4.300000e-01    3.590000e+00
  P6ar SN5dh  1 4.300000e-01    3.160000e+00
  P6ar SN4dh  1 4.300000e-01    2.930000e+00
  P6ar SN3dh  1 4.300000e-01    2.770000e+00
  P6ar SN2dh  1 4.300000e-01    2.530000e+00
  P6ar SN1dh  1 4.300000e-01    2.320000e+00
  P5ar SP4dh  1 4.300000e-01    3.970000e+00
  P5ar SP3dh  1 4.300000e-01    3.770000e+00
  P5ar SP2dh  1 4.300000e-01    3.770000e+00
  P5ar SP1dh  1 4.300000e-01    3.590000e+00
  P5ar SN6dh  1 4.300000e-01    3.380000e+00
  P5ar SN5dh  1 4.300000e-01    3.160000e+00
  P5ar SN4dh  1 4.300000e-01    3.160000e+00
  P5ar SN3dh  1 4.300000e-01    2.770000e+00
  P5ar SN2dh  1 4.300000e-01    2.530000e+00
  P5ar SN1dh  1 4.300000e-01    2.320000e+00
  P4ar SP3dh  1 4.300000e-01    3.770000e+00
  P4ar SP2dh  1 4.300000e-01    3.770000e+00
  P4ar SP1dh  1 4.300000e-01    3.590000e+00
  P4ar SN6dh  1 4.300000e-01    3.380000e+00
  P4ar SN5dh  1 4.300000e-01    3.160000e+00
  P4ar SN4dh  1 4.300000e-01    3.160000e+00
  P4ar SN3dh  1 4.300000e-01    2.930000e+00
  P4ar SN2dh  1 4.300000e-01    2.770000e+00
  P4ar SN1dh  1 4.300000e-01    2.530000e+00
  P3ar SP2dh  1 4.300000e-01    3.770000e+00
  P3ar SP1dh  1 4.300000e-01    3.590000e+00
  P3ar SN6dh  1 4.300000e-01    3.380000e+00
  P3ar SN5dh  1 4.300000e-01    3.160000e+00
  P3ar SN4dh  1 4.300000e-01    3.160000e+00
  P3ar SN3dh  1 4.300000e-01    2.930000e+00
  P3ar SN2dh  1 4.300000e-01    2.930000e+00
  P3ar SN1dh  1 4.300000e-01    2.770000e+00
  P2ar SP1dh  1 4.300000e-01    3.590000e+00
  P2ar SN6dh  1 4.300000e-01    3.590000e+00
  P2ar SN5dh  1 4.300000e-01    3.380000e+00
  P2ar SN4dh  1 4.300000e-01    3.160000e+00
  P2ar SN3dh  1 4.300000e-01    2.930000e+00
  P2ar SN2dh  1 4.300000e-01    2.930000e+00
  P2ar SN1dh  1 4.300000e-01    2.930000e+00
  P1ar SN6dh  1 4.300000e-01    3.590000e+00
  P1ar SN5dh  1 4.300000e-01    3.380000e+00
  P1ar SN4dh  1 4.300000e-01    3.380000e+00
  P1ar SN3dh  1 4.300000e-01    2.930000e+00
  P1ar SN2dh  1 4.300000e-01    2.930000e+00
  P1ar SN1dh  1 4.300000e-01    2.930000e+00
  N6ar SN5dh  1 4.300000e-01    3.590000e+00
  N6ar SN4dh  1 4.300000e-01    3.590000e+00
  N6ar SN3dh  1 4.300000e-01    3.160000e+00
  N6ar SN2dh  1 4.300000e-01    2.930000e+00
  N6ar SN1dh  1 4.300000e-01    2.930000e+00
  N5ar SN4dh  1 4.300000e-01    3.380000e+00
  N5ar SN3dh  1 4.300000e-01    3.160000e+00
  N5ar SN2dh  1 4.300000e-01    3.160000e+00
  N5ar SN1dh  1 4.300000e-01    2.930000e+00
  N4ar SN3dh  1 4.300000e-01    3.160000e+00
  N4ar SN2dh  1 4.300000e-01    3.160000e+00
  N4ar SN1dh  1 4.300000e-01    2.930000e+00
  N3ar SN2dh  1 4.300000e-01    3.160000e+00
  N3ar SN1dh  1 4.300000e-01    2.930000e+00
  N2ar SN1dh  1 4.300000e-01    2.930000e+00
 SP6ar  P5dh  1 4.300000e-01    4.400000e+00
 SP6ar  P4dh  1 4.300000e-01    4.170000e+00
 SP6ar  P3dh  1 4.300000e-01    3.970000e+00
 SP6ar  P2dh  1 4.300000e-01    3.970000e+00
 SP6ar  P1dh  1 4.300000e-01    3.770000e+00
 SP6ar  N6dh  1 4.300000e-01    3.590000e+00
 SP6ar  N5dh  1 4.300000e-01    3.160000e+00
 SP6ar  N4dh  1 4.300000e-01    2.930000e+00
 SP6ar  N3dh  1 4.300000e-01    2.770000e+00
 SP6ar  N2dh  1 4.300000e-01    2.530000e+00
 SP6ar  N1dh  1 4.300000e-01    2.320000e+00
 SP5ar  P4dh  1 4.300000e-01    3.970000e+00
 SP5ar  P3dh  1 4.300000e-01    3.770000e+00
 SP5ar  P2dh  1 4.300000e-01    3.770000e+00
 SP5ar  P1dh  1 4.300000e-01    3.590000e+00
 SP5ar  N6dh  1 4.300000e-01    3.380000e+00
 SP5ar  N5dh  1 4.300000e-01    3.160000e+00
 SP5ar  N4dh  1 4.300000e-01    3.160000e+00
 SP5ar  N3dh  1 4.300000e-01    2.770000e+00
 SP5ar  N2dh  1 4.300000e-01    2.530000e+00
 SP5ar  N1dh  1 4.300000e-01    2.320000e+00
 SP4ar  P3dh  1 4.300000e-01    3.770000e+00
 SP4ar  P2dh  1 4.300000e-01    3.770000e+00
 SP4ar  P1dh  1 4.300000e-01    3.590000e+00
 SP4ar  N6dh  1 4.300000e-01    3.380000e+00
 SP4ar  N5dh  1 4.300000e-01    3.160000e+00
 SP4ar  N4dh  1 4.300000e-01    3.160000e+00
 SP4ar  N3dh  1 4.300000e-01    2.930000e+00
 SP4ar  N2dh  1 4.300000e-01    2.770000e+00
 SP4ar  N1dh  1 4.300000e-01    2.530000e+00
 SP3ar  P2dh  1 4.300000e-01    3.770000e+00
 SP3ar  P1dh  1 4.300000e-01    3.590000e+00
 SP3ar  N6dh  1 4.300000e-01    3.380000e+00
 SP3ar  N5dh  1 4.300000e-01    3.160000e+00
 SP3ar  N4dh  1 4.300000e-01    3.160000e+00
 SP3ar  N3dh  1 4.300000e-01    2.930000e+00
 SP3ar  N2dh  1 4.300000e-01    2.930000e+00
 SP3ar  N1dh  1 4.300000e-01    2.770000e+00
 SP2ar  P1dh  1 4.300000e-01    3.590000e+00
 SP2ar  N6dh  1 4.300000e-01    3.590000e+00
 SP2ar  N5dh  1 4.300000e-01    3.380000e+00
 SP2ar  N4dh  1 4.300000e-01    3.160000e+00
 SP2ar  N3dh  1 4.300000e-01    2.930000e+00
 SP2ar  N2dh  1 4.300000e-01    2.930000e+00
 SP2ar  N1dh  1 4.300000e-01    2.930000e+00
 SP1ar  N6dh  1 4.300000e-01    3.590000e+00
 SP1ar  N5dh  1 4.300000e-01    3.380000e+00
 SP1ar  N4dh  1 4.300000e-01    3.380000e+00
 SP1ar  N3dh  1 4.300000e-01    2.930000e+00
 SP1ar  N2dh  1 4.300000e-01    2.930000e+00
 SP1ar  N1dh  1 4.300000e-01    2.930000e+00
 SN6ar  N5dh  1 4.300000e-01    3.590000e+00
 SN6ar  N4dh  1 4.300000e-01    3.590000e+00
 SN6ar  N3dh  1 4.300000e-01    3.160000e+00
 SN6ar  N2dh  1 4.300000e-01    2.930000e+00
 SN6ar  N1dh  1 4.300000e-01    2.930000e+00
 SN5ar  N4dh  1 4.300000e-01    3.380000e+00
 SN5ar  N3dh  1 4.300000e-01    3.160000e+00
 SN5ar  N2dh  1 4.300000e-01    3.160000e+00
 SN5ar  N1dh  1 4.300000e-01    2.930000e+00
 SN4ar  N3dh  1 4.300000e-01    3.160000e+00
 SN4ar  N2dh  1 4.300000e-01    3.160000e+00
 SN4ar  N1dh  1 4.300000e-01    2.930000e+00
 SN3ar  N2dh  1 4.300000e-01    3.160000e+00
 SN3ar  N1dh  1 4.300000e-01    2.930000e+00
 SN2ar  N1dh  1 4.300000e-01    2.930000e+00
  P6ar SP5dr  1 4.300000e-01    4.170000e+00
  P6ar SP4dr  1 4.300000e-01    3.970000e+00
  P6ar SP3dr  1 4.300000e-01    3.770000e+00
  P6ar SP2dr  1 4.300000e-01    3.770000e+00
  P6ar SP1dr  1 4.300000e-01    3.590000e+00
  P6ar SN6dr  1 4.300000e-01    3.380000e+00
  P6ar SN5dr  1 4.300000e-01    2.930000e+00
  P6ar SN4dr  1 4.300000e-01    2.920000e+00
  P6ar SN3dr  1 4.300000e-01    2.530000e+00
  P6ar SN2dr  1 4.300000e-01    2.320000e+00
  P6ar SN1dr  1 4.300000e-01    2.160000e+00
  P5ar SP4dr  1 4.300000e-01    3.770000e+00
  P5ar SP3dr  1 4.300000e-01    3.590000e+00
  P5ar SP2dr  1 4.300000e-01    3.590000e+00
  P5ar SP1dr  1 4.300000e-01    3.380000e+00
  P5ar SN6dr  1 4.300000e-01    3.160000e+00
  P5ar SN5dr  1 4.300000e-01    2.930000e+00
  P5ar SN4dr  1 4.300000e-01    2.930000e+00
  P5ar SN3dr  1 4.300000e-01    2.530000e+00
  P5ar SN2dr  1 4.300000e-01    2.320000e+00
  P5ar SN1dr  1 4.300000e-01    2.160000e+00
  P4ar SP3dr  1 4.300000e-01    3.590000e+00
  P4ar SP2dr  1 4.300000e-01    3.590000e+00
  P4ar SP1dr  1 4.300000e-01    3.380000e+00
  P4ar SN6dr  1 4.300000e-01    3.160000e+00
  P4ar SN5dr  1 4.300000e-01    2.930000e+00
  P4ar SN4dr  1 4.300000e-01    2.930000e+00
  P4ar SN3dr  1 4.300000e-01    2.920000e+00
  P4ar SN2dr  1 4.300000e-01    2.530000e+00
  P4ar SN1dr  1 4.300000e-01    2.320000e+00
  P3ar SP2dr  1 4.300000e-01    3.590000e+00
  P3ar SP1dr  1 4.300000e-01    3.380000e+00
  P3ar SN6dr  1 4.300000e-01    3.160000e+00
  P3ar SN5dr  1 4.300000e-01    2.930000e+00
  P3ar SN4dr  1 4.300000e-01    2.930000e+00
  P3ar SN3dr  1 4.300000e-01    2.920000e+00
  P3ar SN2dr  1 4.300000e-01    2.920000e+00
  P3ar SN1dr  1 4.300000e-01    2.530000e+00
  P2ar SP1dr  1 4.300000e-01    3.380000e+00
  P2ar SN6dr  1 4.300000e-01    3.380000e+00
  P2ar SN5dr  1 4.300000e-01    3.160000e+00
  P2ar SN4dr  1 4.300000e-01    2.930000e+00
  P2ar SN3dr  1 4.300000e-01    2.920000e+00
  P2ar SN2dr  1 4.300000e-01    2.920000e+00
  P2ar SN1dr  1 4.300000e-01    2.920000e+00
  P1ar SN6dr  1 4.300000e-01    3.380000e+00
  P1ar SN5dr  1 4.300000e-01    3.160000e+00
  P1ar SN4dr  1 4.300000e-01    3.160000e+00
  P1ar SN3dr  1 4.300000e-01    2.920000e+00
  P1ar SN2dr  1 4.300000e-01    2.920000e+00
  P1ar SN1dr  1 4.300000e-01    2.920000e+00
  N6ar SN5dr  1 4.300000e-01    3.380000e+00
  N6ar SN4dr  1 4.300000e-01    3.380000e+00
  N6ar SN3dr  1 4.300000e-01    2.930000e+00
  N6ar SN2dr  1 4.300000e-01    2.920000e+00
  N6ar SN1dr  1 4.300000e-01    2.920000e+00
  N5ar SN4dr  1 4.300000e-01    3.160000e+00
  N5ar SN3dr  1 4.300000e-01    2.930000e+00
  N5ar SN2dr  1 4.300000e-01    2.930000e+00
  N5ar SN1dr  1 4.300000e-01    2.920000e+00
  N4ar SN3dr  1 4.300000e-01    2.930000e+00
  N4ar SN2dr  1 4.300000e-01    2.930000e+00
  N4ar SN1dr  1 4.300000e-01    2.920000e+00
  N3ar SN2dr  1 4.300000e-01    2.930000e+00
  N3ar SN1dr  1 4.300000e-01    2.920000e+00
  N2ar SN1dr  1 4.300000e-01    2.920000e+00
 SP6ar  P5dr  1 4.300000e-01    4.170000e+00
 SP6ar  P4dr  1 4.300000e-01    3.970000e+00
 SP6ar  P3dr  1 4.300000e-01    3.770000e+00
 SP6ar  P2dr  1 4.300000e-01    3.770000e+00
 SP6ar  P1dr  1 4.300000e-01    3.590000e+00
 SP6ar  N6dr  1 4.300000e-01    3.380000e+00
 SP6ar  N5dr  1 4.300000e-01    2.930000e+00
 SP6ar  N4dr  1 4.300000e-01    2.920000e+00
 SP6ar  N3dr  1 4.300000e-01    2.530000e+00
 SP6ar  N2dr  1 4.300000e-01    2.320000e+00
 SP6ar  N1dr  1 4.300000e-01    2.160000e+00
 SP5ar  P4dr  1 4.300000e-01    3.770000e+00
 SP5ar  P3dr  1 4.300000e-01    3.590000e+00
 SP5ar  P2dr  1 4.300000e-01    3.590000e+00
 SP5ar  P1dr  1 4.300000e-01    3.380000e+00
 SP5ar  N6dr  1 4.300000e-01    3.160000e+00
 SP5ar  N5dr  1 4.300000e-01    2.930000e+00
 SP5ar  N4dr  1 4.300000e-01    2.930000e+00
 SP5ar  N3dr  1 4.300000e-01    2.530000e+00
 SP5ar  N2dr  1 4.300000e-01    2.320000e+00
 SP5ar  N1dr  1 4.300000e-01    2.160000e+00
 SP4ar  P3dr  1 4.300000e-01    3.590000e+00
 SP4ar  P2dr  1 4.300000e-01    3.590000e+00
 SP4ar  P1dr  1 4.300000e-01    3.380000e+00
 SP4ar  N6dr  1 4.300000e-01    3.160000e+00
 SP4ar  N5dr  1 4.300000e-01    2.930000e+00
 SP4ar  N4dr  1 4.300000e-01    2.930000e+00
 SP4ar  N3dr  1 4.300000e-01    2.920000e+00
 SP4ar  N2dr  1 4.300000e-01    2.530000e+00
 SP4ar  N1dr  1 4.300000e-01    2.320000e+00
 SP3ar  P2dr  1 4.300000e-01    3.590000e+00
 SP3ar  P1dr  1 4.300000e-01    3.380000e+00
 SP3ar  N6dr  1 4.300000e-01    3.160000e+00
 SP3ar  N5dr  1 4.300000e-01    2.930000e+00
 SP3ar  N4dr  1 4.300000e-01    2.930000e+00
 SP3ar  N3dr  1 4.300000e-01    2.920000e+00
 SP3ar  N2dr  1 4.300000e-01    2.920000e+00
 SP3ar  N1dr  1 4.300000e-01    2.530000e+00
 SP2ar  P1dr  1 4.300000e-01    3.380000e+00
 SP2ar  N6dr  1 4.300000e-01    3.380000e+00
 SP2ar  N5dr  1 4.300000e-01    3.160000e+00
 SP2ar  N4dr  1 4.300000e-01    2.930000e+00
 SP2ar  N3dr  1 4.300000e-01    2.920000e+00
 SP2ar  N2dr  1 4.300000e-01    2.920000e+00
 SP2ar  N1dr  1 4.300000e-01    2.920000e+00
 SP1ar  N6dr  1 4.300000e-01    3.380000e+00
 SP1ar  N5dr  1 4.300000e-01    3.160000e+00
 SP1ar  N4dr  1 4.300000e-01    3.160000e+00
 SP1ar  N3dr  1 4.300000e-01    2.920000e+00
 SP1ar  N2dr  1 4.300000e-01    2.920000e+00
 SP1ar  N1dr  1 4.300000e-01    2.920000e+00
 SN6ar  N5dr  1 4.300000e-01    3.380000e+00
 SN6ar  N4dr  1 4.300000e-01    3.380000e+00
 SN6ar  N3dr  1 4.300000e-01    2.930000e+00
 SN6ar  N2dr  1 4.300000e-01    2.920000e+00
 SN6ar  N1dr  1 4.300000e-01    2.920000e+00
 SN5ar  N4dr  1 4.300000e-01    3.160000e+00
 SN5ar  N3dr  1 4.300000e-01    2.930000e+00
 SN5ar  N2dr  1 4.300000e-01    2.930000e+00
 SN5ar  N1dr  1 4.300000e-01    2.920000e+00
 SN4ar  N3dr  1 4.300000e-01    2.930000e+00
 SN4ar  N2dr  1 4.300000e-01    2.930000e+00
 SN4ar  N1dr  1 4.300000e-01    2.920000e+00
 SN3ar  N2dr  1 4.300000e-01    2.930000e+00
 SN3ar  N1dr  1 4.300000e-01    2.920000e+00
 SN2ar  N1dr  1 4.300000e-01    2.920000e+00
  TP6d  TP6a  1 3.400000e-01    4.300000e+00
  TP6d  TP5a  1 3.400000e-01    4.020000e+00
  TP6d  TP4a  1 3.400000e-01    3.750000e+00
  TP6d  TP3a  1 3.400000e-01    3.470000e+00
  TP6d  TP2a  1 3.400000e-01    3.470000e+00
  TP6d  TP1a  1 3.400000e-01    3.220000e+00
  TP6d  TN6a  1 3.400000e-01    2.990000e+00
  TP6d  TN5a  1 3.400000e-01    2.500000e+00
  TP6d  TN4a  1 3.400000e-01    2.280000e+00
  TP6d  TN3a  1 3.400000e-01    1.230000e+00
  TP6d  TN2a  1 3.520000e-01    1.050000e+00
  TP6d  TN1a  1 3.660000e-01    9.350000e-01
  TP5d  TP5a  1 3.400000e-01    3.750000e+00
  TP5d  TP4a  1 3.400000e-01    3.470000e+00
  TP5d  TP3a  1 3.400000e-01    3.220000e+00
  TP5d  TP2a  1 3.400000e-01    3.220000e+00
  TP5d  TP1a  1 3.400000e-01    2.990000e+00
  TP5d  TN6a  1 3.400000e-01    2.740000e+00
  TP5d  TN5a  1 3.400000e-01    2.500000e+00
  TP5d  TN4a  1 3.400000e-01    2.500000e+00
  TP5d  TN3a  1 3.400000e-01    1.230000e+00
  TP5d  TN2a  1 3.520000e-01    1.050000e+00
  TP5d  TN1a  1 3.660000e-01    9.350000e-01
  TP4d  TP4a  1 3.400000e-01    3.470000e+00
  TP4d  TP3a  1 3.400000e-01    3.220000e+00
  TP4d  TP2a  1 3.400000e-01    3.220000e+00
  TP4d  TP1a  1 3.400000e-01    2.990000e+00
  TP4d  TN6a  1 3.400000e-01    2.740000e+00
  TP4d  TN5a  1 3.400000e-01    2.500000e+00
  TP4d  TN4a  1 3.400000e-01    2.500000e+00
  TP4d  TN3a  1 3.400000e-01    2.280000e+00
  TP4d  TN2a  1 3.400000e-01    1.230000e+00
  TP4d  TN1a  1 3.520000e-01    1.050000e+00
  TP3d  TP3a  1 3.400000e-01    3.220000e+00
  TP3d  TP2a  1 3.400000e-01    3.220000e+00
  TP3d  TP1a  1 3.400000e-01    2.990000e+00
  TP3d  TN6a  1 3.400000e-01    2.740000e+00
  TP3d  TN5a  1 3.400000e-01    2.500000e+00
  TP3d  TN4a  1 3.400000e-01    2.500000e+00
  TP3d  TN3a  1 3.400000e-01    2.280000e+00
  TP3d  TN2a  1 3.400000e-01    2.280000e+00
  TP3d  TN1a  1 3.400000e-01    1.230000e+00
  TP2d  TP2a  1 3.400000e-01    3.220000e+00
  TP2d  TP1a  1 3.400000e-01    2.990000e+00
  TP2d  TN6a  1 3.400000e-01    2.990000e+00
  TP2d  TN5a  1 3.400000e-01    2.740000e+00
  TP2d  TN4a  1 3.400000e-01    2.500000e+00
  TP2d  TN3a  1 3.400000e-01    2.280000e+00
  TP2d  TN2a  1 3.400000e-01    2.280000e+00
  TP2d  TN1a  1 3.400000e-01    2.280000e+00
  TP1d  TP1a  1 3.400000e-01    2.990000e+00
  TP1d  TN6a  1 3.400000e-01    2.990000e+00
  TP1d  TN5a  1 3.400000e-01    2.740000e+00
  TP1d  TN4a  1 3.400000e-01    2.740000e+00
  TP1d  TN3a  1 3.400000e-01    2.280000e+00
  TP1d  TN2a  1 3.400000e-01    2.280000e+00
  TP1d  TN1a  1 3.400000e-01    2.280000e+00
  TN6d  TN6a  1 3.400000e-01    2.990000e+00
  TN6d  TN5a  1 3.400000e-01    2.990000e+00
  TN6d  TN4a  1 3.400000e-01    2.990000e+00
  TN6d  TN3a  1 3.400000e-01    2.500000e+00
  TN6d  TN2a  1 3.400000e-01    2.280000e+00
  TN6d  TN1a  1 3.400000e-01    2.280000e+00
  TN5d  TN5a  1 3.400000e-01    2.740000e+00
  TN5d  TN4a  1 3.400000e-01    2.740000e+00
  TN5d  TN3a  1 3.400000e-01    2.500000e+00
  TN5d  TN2a  1 3.400000e-01    2.500000e+00
  TN5d  TN1a  1 3.400000e-01    2.280000e+00
  TN4d  TN4a  1 3.400000e-01    2.740000e+00
  TN4d  TN3a  1 3.400000e-01    2.500000e+00
  TN4d  TN2a  1 3.400000e-01    2.500000e+00
  TN4d  TN1a  1 3.400000e-01    2.280000e+00
  TN3d  TN3a  1 3.400000e-01    2.500000e+00
  TN3d  TN2a  1 3.400000e-01    2.500000e+00
  TN3d  TN1a  1 3.400000e-01    2.280000e+00
  TN2d  TN2a  1 3.400000e-01    2.500000e+00
  TN2d  TN1a  1 3.400000e-01    2.280000e+00
  TN1d  TN1a  1 3.400000e-01    2.500000e+00
  TP6d TN1aq  1 3.400000e-01    1.230000e+00
  TP5d TN1aq  1 3.400000e-01    1.230000e+00
  TP4d TN1aq  1 3.400000e-01    2.020000e+00
  TP3d TN1aq  1 3.400000e-01    2.280000e+00
  TP2d TN1aq  1 3.400000e-01    2.740000e+00
  TP1d TN1aq  1 3.400000e-01    2.740000e+00
  TN6d TN1aq  1 3.400000e-01    2.740000e+00
  TN5d TN1aq  1 3.400000e-01    2.740000e+00
  TN4d TN1aq  1 3.400000e-01    2.740000e+00
  TN3d TN1aq  1 3.400000e-01    2.740000e+00
  TN2d TN1aq  1 3.400000e-01    2.740000e+00
  TN1d TN1aq  1 3.400000e-01    2.990000e+00
  TP6d TN2aq  1 3.400000e-01    2.020000e+00
  TP5d TN2aq  1 3.400000e-01    2.020000e+00
  TP4d TN2aq  1 3.400000e-01    2.280000e+00
  TP3d TN2aq  1 3.400000e-01    2.740000e+00
  TP2d TN2aq  1 3.400000e-01    2.740000e+00
  TP1d TN2aq  1 3.400000e-01    2.740000e+00
  TN6d TN2aq  1 3.400000e-01    2.740000e+00
  TN5d TN2aq  1 3.400000e-01    2.990000e+00
  TN4d TN2aq  1 3.400000e-01    2.990000e+00
  TN3d TN2aq  1 3.400000e-01    2.990000e+00
  TN2d TN2aq  1 3.400000e-01    2.990000e+00
  TP6d TN3aq  1 3.400000e-01    2.280000e+00
  TP5d TN3aq  1 3.400000e-01    2.280000e+00
  TP4d TN3aq  1 3.400000e-01    2.740000e+00
  TP3d TN3aq  1 3.400000e-01    2.740000e+00
  TP2d TN3aq  1 3.400000e-01    2.740000e+00
  TP1d TN3aq  1 3.400000e-01    2.740000e+00
  TN6d TN3aq  1 3.400000e-01    2.990000e+00
  TN5d TN3aq  1 3.400000e-01    2.990000e+00
  TN4d TN3aq  1 3.400000e-01    2.990000e+00
  TN3d TN3aq  1 3.400000e-01    2.990000e+00
  TP6d TN4aq  1 3.400000e-01    2.740000e+00
  TP5d TN4aq  1 3.400000e-01    2.990000e+00
  TP4d TN4aq  1 3.400000e-01    2.990000e+00
  TP3d TN4aq  1 3.400000e-01    2.990000e+00
  TP2d TN4aq  1 3.400000e-01    2.990000e+00
  TP1d TN4aq  1 3.400000e-01    3.220000e+00
  TN6d TN4aq  1 3.400000e-01    3.470000e+00
  TN5d TN4aq  1 3.400000e-01    3.220000e+00
  TN4d TN4aq  1 3.400000e-01    3.220000e+00
  TP6d TN5aq  1 3.400000e-01    2.990000e+00
  TP5d TN5aq  1 3.400000e-01    2.990000e+00
  TP4d TN5aq  1 3.400000e-01    2.990000e+00
  TP3d TN5aq  1 3.400000e-01    2.990000e+00
  TP2d TN5aq  1 3.400000e-01    3.220000e+00
  TP1d TN5aq  1 3.400000e-01    3.220000e+00
  TN6d TN5aq  1 3.400000e-01    3.470000e+00
  TN5d TN5aq  1 3.400000e-01    3.220000e+00
  TP6d TN6aq  1 3.400000e-01    3.470000e+00
  TP5d TN6aq  1 3.400000e-01    3.220000e+00
  TP4d TN6aq  1 3.400000e-01    3.220000e+00
  TP3d TN6aq  1 3.400000e-01    3.220000e+00
  TP2d TN6aq  1 3.400000e-01    3.470000e+00
  TP1d TN6aq  1 3.400000e-01    3.470000e+00
  TN6d TN6aq  1 3.400000e-01    3.470000e+00
  TP6d TP1aq  1 3.400000e-01    3.750000e+00
  TP5d TP1aq  1 3.400000e-01    3.470000e+00
  TP4d TP1aq  1 3.400000e-01    3.470000e+00
  TP3d TP1aq  1 3.400000e-01    3.470000e+00
  TP2d TP1aq  1 3.400000e-01    3.470000e+00
  TP1d TP1aq  1 3.400000e-01    3.470000e+00
  TP6d TP2aq  1 3.400000e-01    4.020000e+00
  TP5d TP2aq  1 3.400000e-01    3.750000e+00
  TP4d TP2aq  1 3.400000e-01    3.750000e+00
  TP3d TP2aq  1 3.400000e-01    3.750000e+00
  TP2d TP2aq  1 3.400000e-01    3.750000e+00
  TP6d TP3aq  1 3.400000e-01    4.020000e+00
  TP5d TP3aq  1 3.400000e-01    3.750000e+00
  TP4d TP3aq  1 3.400000e-01    3.750000e+00
  TP3d TP3aq  1 3.400000e-01    3.750000e+00
  TP6d TP4aq  1 3.400000e-01    4.300000e+00
  TP5d TP4aq  1 3.400000e-01    4.020000e+00
  TP4d TP4aq  1 3.400000e-01    4.020000e+00
  TP6d TP5aq  1 3.400000e-01    4.300000e+00
  TP5d TP5aq  1 3.400000e-01    4.300000e+00
  TP6d TP6aq  1 3.400000e-01    4.300000e+00
  TP6d TN1ah  1 3.660000e-01    9.350000e-01
  TP5d TN1ah  1 3.660000e-01    9.350000e-01
  TP4d TN1ah  1 3.520000e-01    1.050000e+00
  TP3d TN1ah  1 3.400000e-01    1.230000e+00
  TP2d TN1ah  1 3.400000e-01    2.280000e+00
  TP1d TN1ah  1 3.400000e-01    2.280000e+00
  TN6d TN1ah  1 3.400000e-01    2.280000e+00
  TN5d TN1ah  1 3.400000e-01    2.280000e+00
  TN4d TN1ah  1 3.400000e-01    2.280000e+00
  TN3d TN1ah  1 3.400000e-01    2.280000e+00
  TN2d TN1ah  1 3.400000e-01    2.280000e+00
  TN1d TN1ah  1 3.400000e-01    2.500000e+00
  TP6d TN2ah  1 3.520000e-01    1.050000e+00
  TP5d TN2ah  1 3.520000e-01    1.050000e+00
  TP4d TN2ah  1 3.400000e-01    1.230000e+00
  TP3d TN2ah  1 3.400000e-01    2.280000e+00
  TP2d TN2ah  1 3.400000e-01    2.280000e+00
  TP1d TN2ah  1 3.400000e-01    2.280000e+00
  TN6d TN2ah  1 3.400000e-01    2.280000e+00
  TN5d TN2ah  1 3.400000e-01    2.500000e+00
  TN4d TN2ah  1 3.400000e-01    2.500000e+00
  TN3d TN2ah  1 3.400000e-01    2.500000e+00
  TN2d TN2ah  1 3.400000e-01    2.500000e+00
  TP6d TN3ah  1 3.400000e-01    1.230000e+00
  TP5d TN3ah  1 3.400000e-01    1.230000e+00
  TP4d TN3ah  1 3.400000e-01    2.280000e+00
  TP3d TN3ah  1 3.400000e-01    2.280000e+00
  TP2d TN3ah  1 3.400000e-01    2.280000e+00
  TP1d TN3ah  1 3.400000e-01    2.280000e+00
  TN6d TN3ah  1 3.400000e-01    2.500000e+00
  TN5d TN3ah  1 3.400000e-01    2.500000e+00
  TN4d TN3ah  1 3.400000e-01    2.500000e+00
  TN3d TN3ah  1 3.400000e-01    2.500000e+00
  TP6d TN4ah  1 3.400000e-01    2.280000e+00
  TP5d TN4ah  1 3.400000e-01    2.500000e+00
  TP4d TN4ah  1 3.400000e-01    2.500000e+00
  TP3d TN4ah  1 3.400000e-01    2.500000e+00
  TP2d TN4ah  1 3.400000e-01    2.500000e+00
  TP1d TN4ah  1 3.400000e-01    2.740000e+00
  TN6d TN4ah  1 3.400000e-01    2.990000e+00
  TN5d TN4ah  1 3.400000e-01    2.740000e+00
  TN4d TN4ah  1 3.400000e-01    2.740000e+00
  TP6d TN5ah  1 3.400000e-01    2.500000e+00
  TP5d TN5ah  1 3.400000e-01    2.500000e+00
  TP4d TN5ah  1 3.400000e-01    2.500000e+00
  TP3d TN5ah  1 3.400000e-01    2.500000e+00
  TP2d TN5ah  1 3.400000e-01    2.740000e+00
  TP1d TN5ah  1 3.400000e-01    2.740000e+00
  TN6d TN5ah  1 3.400000e-01    2.990000e+00
  TN5d TN5ah  1 3.400000e-01    2.740000e+00
  TP6d TN6ah  1 3.400000e-01    2.990000e+00
  TP5d TN6ah  1 3.400000e-01    2.740000e+00
  TP4d TN6ah  1 3.400000e-01    2.740000e+00
  TP3d TN6ah  1 3.400000e-01    2.740000e+00
  TP2d TN6ah  1 3.400000e-01    2.990000e+00
  TP1d TN6ah  1 3.400000e-01    2.990000e+00
  TN6d TN6ah  1 3.400000e-01    2.990000e+00
  TP6d TP1ah  1 3.400000e-01    3.220000e+00
  TP5d TP1ah  1 3.400000e-01    2.990000e+00
  TP4d TP1ah  1 3.400000e-01    2.990000e+00
  TP3d TP1ah  1 3.400000e-01    2.990000e+00
  TP2d TP1ah  1 3.400000e-01    2.990000e+00
  TP1d TP1ah  1 3.400000e-01    2.990000e+00
  TP6d TP2ah  1 3.400000e-01    3.470000e+00
  TP5d TP2ah  1 3.400000e-01    3.220000e+00
  TP4d TP2ah  1 3.400000e-01    3.220000e+00
  TP3d TP2ah  1 3.400000e-01    3.220000e+00
  TP2d TP2ah  1 3.400000e-01    3.220000e+00
  TP6d TP3ah  1 3.400000e-01    3.470000e+00
  TP5d TP3ah  1 3.400000e-01    3.220000e+00
  TP4d TP3ah  1 3.400000e-01    3.220000e+00
  TP3d TP3ah  1 3.400000e-01    3.220000e+00
  TP6d TP4ah  1 3.400000e-01    3.750000e+00
  TP5d TP4ah  1 3.400000e-01    3.470000e+00
  TP4d TP4ah  1 3.400000e-01    3.470000e+00
  TP6d TP5ah  1 3.400000e-01    4.020000e+00
  TP5d TP5ah  1 3.400000e-01    3.750000e+00
  TP6d TP6ah  1 3.400000e-01    4.300000e+00
  TP6d TN1ar  1 3.660000e-01    9.350000e-01
  TP5d TN1ar  1 3.660000e-01    9.350000e-01
  TP4d TN1ar  1 3.520000e-01    1.050000e+00
  TP3d TN1ar  1 3.400000e-01    1.230000e+00
  TP2d TN1ar  1 3.400000e-01    2.280000e+00
  TP1d TN1ar  1 3.400000e-01    2.280000e+00
  TN6d TN1ar  1 3.400000e-01    2.280000e+00
  TN5d TN1ar  1 3.400000e-01    2.280000e+00
  TN4d TN1ar  1 3.400000e-01    2.280000e+00
  TN3d TN1ar  1 3.400000e-01    2.280000e+00
  TN2d TN1ar  1 3.400000e-01    2.280000e+00
  TN1d TN1ar  1 3.400000e-01    2.500000e+00
  TP6d TN2ar  1 3.520000e-01    1.050000e+00
  TP5d TN2ar  1 3.520000e-01    1.050000e+00
  TP4d TN2ar  1 3.400000e-01    1.230000e+00
  TP3d TN2ar  1 3.400000e-01    2.280000e+00
  TP2d TN2ar  1 3.400000e-01    2.280000e+00
  TP1d TN2ar  1 3.400000e-01    2.280000e+00
  TN6d TN2ar  1 3.400000e-01    2.280000e+00
  TN5d TN2ar  1 3.400000e-01    2.500000e+00
  TN4d TN2ar  1 3.400000e-01    2.500000e+00
  TN3d TN2ar  1 3.400000e-01    2.500000e+00
  TN2d TN2ar  1 3.400000e-01    2.500000e+00
  TP6d TN3ar  1 3.400000e-01    1.230000e+00
  TP5d TN3ar  1 3.400000e-01    1.230000e+00
  TP4d TN3ar  1 3.400000e-01    2.280000e+00
  TP3d TN3ar  1 3.400000e-01    2.280000e+00
  TP2d TN3ar  1 3.400000e-01    2.280000e+00
  TP1d TN3ar  1 3.400000e-01    2.280000e+00
  TN6d TN3ar  1 3.400000e-01    2.500000e+00
  TN5d TN3ar  1 3.400000e-01    2.500000e+00
  TN4d TN3ar  1 3.400000e-01    2.500000e+00
  TN3d TN3ar  1 3.400000e-01    2.500000e+00
  TP6d TN4ar  1 3.400000e-01    2.280000e+00
  TP5d TN4ar  1 3.400000e-01    2.500000e+00
  TP4d TN4ar  1 3.400000e-01    2.500000e+00
  TP3d TN4ar  1 3.400000e-01    2.500000e+00
  TP2d TN4ar  1 3.400000e-01    2.500000e+00
  TP1d TN4ar  1 3.400000e-01    2.740000e+00
  TN6d TN4ar  1 3.400000e-01    2.990000e+00
  TN5d TN4ar  1 3.400000e-01    2.740000e+00
  TN4d TN4ar  1 3.400000e-01    2.740000e+00
  TP6d TN5ar  1 3.400000e-01    2.500000e+00
  TP5d TN5ar  1 3.400000e-01    2.500000e+00
  TP4d TN5ar  1 3.400000e-01    2.500000e+00
  TP3d TN5ar  1 3.400000e-01    2.500000e+00
  TP2d TN5ar  1 3.400000e-01    2.740000e+00
  TP1d TN5ar  1 3.400000e-01    2.740000e+00
  TN6d TN5ar  1 3.400000e-01    2.990000e+00
  TN5d TN5ar  1 3.400000e-01    2.740000e+00
  TP6d TN6ar  1 3.400000e-01    2.990000e+00
  TP5d TN6ar  1 3.400000e-01    2.740000e+00
  TP4d TN6ar  1 3.400000e-01    2.740000e+00
  TP3d TN6ar  1 3.400000e-01    2.740000e+00
  TP2d TN6ar  1 3.400000e-01    2.990000e+00
  TP1d TN6ar  1 3.400000e-01    2.990000e+00
  TN6d TN6ar  1 3.400000e-01    2.990000e+00
  TP6d TP1ar  1 3.400000e-01    3.220000e+00
  TP5d TP1ar  1 3.400000e-01    2.990000e+00
  TP4d TP1ar  1 3.400000e-01    2.990000e+00
  TP3d TP1ar  1 3.400000e-01    2.990000e+00
  TP2d TP1ar  1 3.400000e-01    2.990000e+00
  TP1d TP1ar  1 3.400000e-01    2.990000e+00
  TP6d TP2ar  1 3.400000e-01    3.470000e+00
  TP5d TP2ar  1 3.400000e-01    3.220000e+00
  TP4d TP2ar  1 3.400000e-01    3.220000e+00
  TP3d TP2ar  1 3.400000e-01    3.220000e+00
  TP2d TP2ar  1 3.400000e-01    3.220000e+00
  TP6d TP3ar  1 3.400000e-01    3.470000e+00
  TP5d TP3ar  1 3.400000e-01    3.220000e+00
  TP4d TP3ar  1 3.400000e-01    3.220000e+00
  TP3d TP3ar  1 3.400000e-01    3.220000e+00
  TP6d TP4ar  1 3.400000e-01    3.750000e+00
  TP5d TP4ar  1 3.400000e-01    3.470000e+00
  TP4d TP4ar  1 3.400000e-01    3.470000e+00
  TP6d TP5ar  1 3.400000e-01    4.020000e+00
  TP5d TP5ar  1 3.400000e-01    3.750000e+00
  TP6d TP6ar  1 3.400000e-01    4.300000e+00
 TP6dq  TP6a  1 3.400000e-01    4.300000e+00
 TP6dq  TP5a  1 3.400000e-01    4.300000e+00
 TP6dq  TP4a  1 3.400000e-01    4.300000e+00
 TP6dq  TP3a  1 3.400000e-01    4.020000e+00
 TP6dq  TP2a  1 3.400000e-01    4.020000e+00
 TP6dq  TP1a  1 3.400000e-01    3.750000e+00
 TP6dq  TN6a  1 3.400000e-01    3.470000e+00
 TP6dq  TN5a  1 3.400000e-01    2.990000e+00
 TP6dq  TN4a  1 3.400000e-01    2.740000e+00
 TP6dq  TN3a  1 3.400000e-01    2.280000e+00
 TP6dq  TN2a  1 3.400000e-01    2.020000e+00
 TP6dq  TN1a  1 3.400000e-01    1.230000e+00
 TP5dq  TP5a  1 3.400000e-01    4.300000e+00
 TP5dq  TP4a  1 3.400000e-01    4.020000e+00
 TP5dq  TP3a  1 3.400000e-01    3.750000e+00
 TP5dq  TP2a  1 3.400000e-01    3.750000e+00
 TP5dq  TP1a  1 3.400000e-01    3.470000e+00
 TP5dq  TN6a  1 3.400000e-01    3.220000e+00
 TP5dq  TN5a  1 3.400000e-01    2.990000e+00
 TP5dq  TN4a  1 3.400000e-01    2.990000e+00
 TP5dq  TN3a  1 3.400000e-01    2.280000e+00
 TP5dq  TN2a  1 3.400000e-01    2.020000e+00
 TP5dq  TN1a  1 3.400000e-01    1.230000e+00
 TP4dq  TP4a  1 3.400000e-01    4.020000e+00
 TP4dq  TP3a  1 3.400000e-01    3.750000e+00
 TP4dq  TP2a  1 3.400000e-01    3.750000e+00
 TP4dq  TP1a  1 3.400000e-01    3.470000e+00
 TP4dq  TN6a  1 3.400000e-01    3.220000e+00
 TP4dq  TN5a  1 3.400000e-01    2.990000e+00
 TP4dq  TN4a  1 3.400000e-01    2.990000e+00
 TP4dq  TN3a  1 3.400000e-01    2.740000e+00
 TP4dq  TN2a  1 3.400000e-01    2.280000e+00
 TP4dq  TN1a  1 3.400000e-01    2.020000e+00
 TP3dq  TP3a  1 3.400000e-01    3.750000e+00
 TP3dq  TP2a  1 3.400000e-01    3.750000e+00
 TP3dq  TP1a  1 3.400000e-01    3.470000e+00
 TP3dq  TN6a  1 3.400000e-01    3.220000e+00
 TP3dq  TN5a  1 3.400000e-01    2.990000e+00
 TP3dq  TN4a  1 3.400000e-01    2.990000e+00
 TP3dq  TN3a  1 3.400000e-01    2.740000e+00
 TP3dq  TN2a  1 3.400000e-01    2.740000e+00
 TP3dq  TN1a  1 3.400000e-01    2.280000e+00
 TP2dq  TP2a  1 3.400000e-01    3.750000e+00
 TP2dq  TP1a  1 3.400000e-01    3.470000e+00
 TP2dq  TN6a  1 3.400000e-01    3.470000e+00
 TP2dq  TN5a  1 3.400000e-01    3.220000e+00
 TP2dq  TN4a  1 3.400000e-01    2.990000e+00
 TP2dq  TN3a  1 3.400000e-01    2.740000e+00
 TP2dq  TN2a  1 3.400000e-01    2.740000e+00
 TP2dq  TN1a  1 3.400000e-01    2.740000e+00
 TP1dq  TP1a  1 3.400000e-01    3.470000e+00
 TP1dq  TN6a  1 3.400000e-01    3.470000e+00
 TP1dq  TN5a  1 3.400000e-01    3.220000e+00
 TP1dq  TN4a  1 3.400000e-01    3.220000e+00
 TP1dq  TN3a  1 3.400000e-01    2.740000e+00
 TP1dq  TN2a  1 3.400000e-01    2.740000e+00
 TP1dq  TN1a  1 3.400000e-01    2.740000e+00
 TN6dq  TN6a  1 3.400000e-01    3.470000e+00
 TN6dq  TN5a  1 3.400000e-01    3.470000e+00
 TN6dq  TN4a  1 3.400000e-01    3.470000e+00
 TN6dq  TN3a  1 3.400000e-01    2.990000e+00
 TN6dq  TN2a  1 3.400000e-01    2.740000e+00
 TN6dq  TN1a  1 3.400000e-01    2.740000e+00
 TN5dq  TN5a  1 3.400000e-01    3.220000e+00
 TN5dq  TN4a  1 3.400000e-01    3.220000e+00
 TN5dq  TN3a  1 3.400000e-01    2.990000e+00
 TN5dq  TN2a  1 3.400000e-01    2.990000e+00
 TN5dq  TN1a  1 3.400000e-01    2.740000e+00
 TN4dq  TN4a  1 3.400000e-01    3.220000e+00
 TN4dq  TN3a  1 3.400000e-01    2.990000e+00
 TN4dq  TN2a  1 3.400000e-01    2.990000e+00
 TN4dq  TN1a  1 3.400000e-01    2.740000e+00
 TN3dq  TN3a  1 3.400000e-01    2.990000e+00
 TN3dq  TN2a  1 3.400000e-01    2.990000e+00
 TN3dq  TN1a  1 3.400000e-01    2.740000e+00
 TN2dq  TN2a  1 3.400000e-01    2.990000e+00
 TN2dq  TN1a  1 3.400000e-01    2.740000e+00
 TN1dq  TN1a  1 3.400000e-01    2.990000e+00
 TP6dq TP6aq  1 3.400000e-01    4.300000e+00
 TP6dq TP5aq  1 3.400000e-01    4.300000e+00
 TP6dq TP4aq  1 3.400000e-01    4.300000e+00
 TP6dq TP3aq  1 3.400000e-01    4.020000e+00
 TP6dq TP2aq  1 3.400000e-01    4.020000e+00
 TP6dq TP1aq  1 3.400000e-01    3.750000e+00
 TP6dq TN6aq  1 3.400000e-01    3.470000e+00
 TP6dq TN5aq  1 3.400000e-01    2.990000e+00
 TP6dq TN4aq  1 3.400000e-01    2.740000e+00
 TP6dq TN3aq  1 3.400000e-01    2.280000e+00
 TP6dq TN2aq  1 3.400000e-01    2.020000e+00
 TP6dq TN1aq  1 3.400000e-01    1.230000e+00
 TP5dq TP5aq  1 3.400000e-01    4.300000e+00
 TP5dq TP4aq  1 3.400000e-01    4.020000e+00
 TP5dq TP3aq  1 3.400000e-01    3.750000e+00
 TP5dq TP2aq  1 3.400000e-01    3.750000e+00
 TP5dq TP1aq  1 3.400000e-01    3.470000e+00
 TP5dq TN6aq  1 3.400000e-01    3.220000e+00
 TP5dq TN5aq  1 3.400000e-01    2.990000e+00
 TP5dq TN4aq  1 3.400000e-01    2.990000e+00
 TP5dq TN3aq  1 3.400000e-01    2.280000e+00
 TP5dq TN2aq  1 3.400000e-01    2.020000e+00
 TP5dq TN1aq  1 3.400000e-01    1.230000e+00
 TP4dq TP4aq  1 3.400000e-01    4.020000e+00
 TP4dq TP3aq  1 3.400000e-01    3.750000e+00
 TP4dq TP2aq  1 3.400000e-01    3.750000e+00
 TP4dq TP1aq  1 3.400000e-01    3.470000e+00
 TP4dq TN6aq  1 3.400000e-01    3.220000e+00
 TP4dq TN5aq  1 3.400000e-01    2.990000e+00
 TP4dq TN4aq  1 3.400000e-01    2.990000e+00
 TP4dq TN3aq  1 3.400000e-01    2.740000e+00
 TP4dq TN2aq  1 3.400000e-01    2.280000e+00
 TP4dq TN1aq  1 3.400000e-01    2.020000e+00
 TP3dq TP3aq  1 3.400000e-01    3.750000e+00
 TP3dq TP2aq  1 3.400000e-01    3.750000e+00
 TP3dq TP1aq  1 3.400000e-01    3.470000e+00
 TP3dq TN6aq  1 3.400000e-01    3.220000e+00
 TP3dq TN5aq  1 3.400000e-01    2.990000e+00
 TP3dq TN4aq  1 3.400000e-01    2.990000e+00
 TP3dq TN3aq  1 3.400000e-01    2.740000e+00
 TP3dq TN2aq  1 3.400000e-01    2.740000e+00
 TP3dq TN1aq  1 3.400000e-01    2.280000e+00
 TP2dq TP2aq  1 3.400000e-01    3.750000e+00
 TP2dq TP1aq  1 3.400000e-01    3.470000e+00
 TP2dq TN6aq  1 3.400000e-01    3.470000e+00
 TP2dq TN5aq  1 3.400000e-01    3.220000e+00
 TP2dq TN4aq  1 3.400000e-01    2.990000e+00
 TP2dq TN3aq  1 3.400000e-01    2.740000e+00
 TP2dq TN2aq  1 3.400000e-01    2.740000e+00
 TP2dq TN1aq  1 3.400000e-01    2.740000e+00
 TP1dq TP1aq  1 3.400000e-01    3.470000e+00
 TP1dq TN6aq  1 3.400000e-01    3.470000e+00
 TP1dq TN5aq  1 3.400000e-01    3.220000e+00
 TP1dq TN4aq  1 3.400000e-01    3.220000e+00
 TP1dq TN3aq  1 3.400000e-01    2.740000e+00
 TP1dq TN2aq  1 3.400000e-01    2.740000e+00
 TP1dq TN1aq  1 3.400000e-01    2.740000e+00
 TN6dq TN6aq  1 3.400000e-01    3.470000e+00
 TN6dq TN5aq  1 3.400000e-01    3.470000e+00
 TN6dq TN4aq  1 3.400000e-01    3.470000e+00
 TN6dq TN3aq  1 3.400000e-01    2.990000e+00
 TN6dq TN2aq  1 3.400000e-01    2.740000e+00
 TN6dq TN1aq  1 3.400000e-01    2.740000e+00
 TN5dq TN5aq  1 3.400000e-01    3.220000e+00
 TN5dq TN4aq  1 3.400000e-01    3.220000e+00
 TN5dq TN3aq  1 3.400000e-01    2.990000e+00
 TN5dq TN2aq  1 3.400000e-01    2.990000e+00
 TN5dq TN1aq  1 3.400000e-01    2.740000e+00
 TN4dq TN4aq  1 3.400000e-01    3.220000e+00
 TN4dq TN3aq  1 3.400000e-01    2.990000e+00
 TN4dq TN2aq  1 3.400000e-01    2.990000e+00
 TN4dq TN1aq  1 3.400000e-01    2.740000e+00
 TN3dq TN3aq  1 3.400000e-01    2.990000e+00
 TN3dq TN2aq  1 3.400000e-01    2.990000e+00
 TN3dq TN1aq  1 3.400000e-01    2.740000e+00
 TN2dq TN2aq  1 3.400000e-01    2.990000e+00
 TN2dq TN1aq  1 3.400000e-01    2.740000e+00
 TN1dq TN1aq  1 3.400000e-01    2.990000e+00
 TP6dq TP6ah  1 3.400000e-01    4.300000e+00
 TP6dq TP5ah  1 3.400000e-01    4.300000e+00
 TP5dq TP5ah  1 3.400000e-01    4.300000e+00
 TP6dq TP4ah  1 3.400000e-01    4.300000e+00
 TP5dq TP4ah  1 3.400000e-01    4.020000e+00
 TP4dq TP4ah  1 3.400000e-01    4.020000e+00
 TP6dq TP3ah  1 3.400000e-01    4.020000e+00
 TP5dq TP3ah  1 3.400000e-01    3.750000e+00
 TP4dq TP3ah  1 3.400000e-01    3.750000e+00
 TP3dq TP3ah  1 3.400000e-01    3.750000e+00
 TP6dq TP2ah  1 3.400000e-01    4.020000e+00
 TP5dq TP2ah  1 3.400000e-01    3.750000e+00
 TP4dq TP2ah  1 3.400000e-01    3.750000e+00
 TP3dq TP2ah  1 3.400000e-01    3.750000e+00
 TP2dq TP2ah  1 3.400000e-01    3.750000e+00
 TP6dq TP1ah  1 3.400000e-01    3.750000e+00
 TP5dq TP1ah  1 3.400000e-01    3.470000e+00
 TP4dq TP1ah  1 3.400000e-01    3.470000e+00
 TP3dq TP1ah  1 3.400000e-01    3.470000e+00
 TP2dq TP1ah  1 3.400000e-01    3.470000e+00
 TP1dq TP1ah  1 3.400000e-01    3.470000e+00
 TP6dq TN6ah  1 3.400000e-01    3.470000e+00
 TP5dq TN6ah  1 3.400000e-01    3.220000e+00
 TP4dq TN6ah  1 3.400000e-01    3.220000e+00
 TP3dq TN6ah  1 3.400000e-01    3.220000e+00
 TP2dq TN6ah  1 3.400000e-01    3.470000e+00
 TP1dq TN6ah  1 3.400000e-01    3.470000e+00
 TN6dq TN6ah  1 3.400000e-01    3.470000e+00
 TP6dq TN5ah  1 3.400000e-01    2.990000e+00
 TP5dq TN5ah  1 3.400000e-01    2.990000e+00
 TP4dq TN5ah  1 3.400000e-01    2.990000e+00
 TP3dq TN5ah  1 3.400000e-01    2.990000e+00
 TP2dq TN5ah  1 3.400000e-01    3.220000e+00
 TP1dq TN5ah  1 3.400000e-01    3.220000e+00
 TN6dq TN5ah  1 3.400000e-01    3.470000e+00
 TN5dq TN5ah  1 3.400000e-01    3.220000e+00
 TP6dq TN4ah  1 3.400000e-01    2.740000e+00
 TP5dq TN4ah  1 3.400000e-01    2.990000e+00
 TP4dq TN4ah  1 3.400000e-01    2.990000e+00
 TP3dq TN4ah  1 3.400000e-01    2.990000e+00
 TP2dq TN4ah  1 3.400000e-01    2.990000e+00
 TP1dq TN4ah  1 3.400000e-01    3.220000e+00
 TN6dq TN4ah  1 3.400000e-01    3.470000e+00
 TN5dq TN4ah  1 3.400000e-01    3.220000e+00
 TN4dq TN4ah  1 3.400000e-01    3.220000e+00
 TP6dq TN3ah  1 3.400000e-01    2.280000e+00
 TP5dq TN3ah  1 3.400000e-01    2.280000e+00
 TP4dq TN3ah  1 3.400000e-01    2.740000e+00
 TP3dq TN3ah  1 3.400000e-01    2.740000e+00
 TP2dq TN3ah  1 3.400000e-01    2.740000e+00
 TP1dq TN3ah  1 3.400000e-01    2.740000e+00
 TN6dq TN3ah  1 3.400000e-01    2.990000e+00
 TN5dq TN3ah  1 3.400000e-01    2.990000e+00
 TN4dq TN3ah  1 3.400000e-01    2.990000e+00
 TN3dq TN3ah  1 3.400000e-01    2.990000e+00
 TP6dq TN2ah  1 3.400000e-01    2.020000e+00
 TP5dq TN2ah  1 3.400000e-01    2.020000e+00
 TP4dq TN2ah  1 3.400000e-01    2.280000e+00
 TP3dq TN2ah  1 3.400000e-01    2.740000e+00
 TP2dq TN2ah  1 3.400000e-01    2.740000e+00
 TP1dq TN2ah  1 3.400000e-01    2.740000e+00
 TN6dq TN2ah  1 3.400000e-01    2.740000e+00
 TN5dq TN2ah  1 3.400000e-01    2.990000e+00
 TN4dq TN2ah  1 3.400000e-01    2.990000e+00
 TN3dq TN2ah  1 3.400000e-01    2.990000e+00
 TN2dq TN2ah  1 3.400000e-01    2.990000e+00
 TP6dq TN1ah  1 3.400000e-01    1.230000e+00
 TP5dq TN1ah  1 3.400000e-01    1.230000e+00
 TP4dq TN1ah  1 3.400000e-01    2.020000e+00
 TP3dq TN1ah  1 3.400000e-01    2.280000e+00
 TP2dq TN1ah  1 3.400000e-01    2.740000e+00
 TP1dq TN1ah  1 3.400000e-01    2.740000e+00
 TN6dq TN1ah  1 3.400000e-01    2.740000e+00
 TN5dq TN1ah  1 3.400000e-01    2.740000e+00
 TN4dq TN1ah  1 3.400000e-01    2.740000e+00
 TN3dq TN1ah  1 3.400000e-01    2.740000e+00
 TN2dq TN1ah  1 3.400000e-01    2.740000e+00
 TN1dq TN1ah  1 3.400000e-01    2.990000e+00
 TP6dq TP6ar  1 3.400000e-01    4.300000e+00
 TP6dq TP5ar  1 3.400000e-01    4.300000e+00
 TP5dq TP5ar  1 3.400000e-01    4.300000e+00
 TP6dq TP4ar  1 3.400000e-01    4.300000e+00
 TP5dq TP4ar  1 3.400000e-01    4.020000e+00
 TP4dq TP4ar  1 3.400000e-01    4.020000e+00
 TP6dq TP3ar  1 3.400000e-01    4.020000e+00
 TP5dq TP3ar  1 3.400000e-01    3.750000e+00
 TP4dq TP3ar  1 3.400000e-01    3.750000e+00
 TP3dq TP3ar  1 3.400000e-01    3.750000e+00
 TP6dq TP2ar  1 3.400000e-01    4.020000e+00
 TP5dq TP2ar  1 3.400000e-01    3.750000e+00
 TP4dq TP2ar  1 3.400000e-01    3.750000e+00
 TP3dq TP2ar  1 3.400000e-01    3.750000e+00
 TP2dq TP2ar  1 3.400000e-01    3.750000e+00
 TP6dq TP1ar  1 3.400000e-01    3.750000e+00
 TP5dq TP1ar  1 3.400000e-01    3.470000e+00
 TP4dq TP1ar  1 3.400000e-01    3.470000e+00
 TP3dq TP1ar  1 3.400000e-01    3.470000e+00
 TP2dq TP1ar  1 3.400000e-01    3.470000e+00
 TP1dq TP1ar  1 3.400000e-01    3.470000e+00
 TP6dq TN6ar  1 3.400000e-01    3.470000e+00
 TP5dq TN6ar  1 3.400000e-01    3.220000e+00
 TP4dq TN6ar  1 3.400000e-01    3.220000e+00
 TP3dq TN6ar  1 3.400000e-01    3.220000e+00
 TP2dq TN6ar  1 3.400000e-01    3.470000e+00
 TP1dq TN6ar  1 3.400000e-01    3.470000e+00
 TN6dq TN6ar  1 3.400000e-01    3.470000e+00
 TP6dq TN5ar  1 3.400000e-01    2.990000e+00
 TP5dq TN5ar  1 3.400000e-01    2.990000e+00
 TP4dq TN5ar  1 3.400000e-01    2.990000e+00
 TP3dq TN5ar  1 3.400000e-01    2.990000e+00
 TP2dq TN5ar  1 3.400000e-01    3.220000e+00
 TP1dq TN5ar  1 3.400000e-01    3.220000e+00
 TN6dq TN5ar  1 3.400000e-01    3.470000e+00
 TN5dq TN5ar  1 3.400000e-01    3.220000e+00
 TP6dq TN4ar  1 3.400000e-01    2.740000e+00
 TP5dq TN4ar  1 3.400000e-01    2.990000e+00
 TP4dq TN4ar  1 3.400000e-01    2.990000e+00
 TP3dq TN4ar  1 3.400000e-01    2.990000e+00
 TP2dq TN4ar  1 3.400000e-01    2.990000e+00
 TP1dq TN4ar  1 3.400000e-01    3.220000e+00
 TN6dq TN4ar  1 3.400000e-01    3.470000e+00
 TN5dq TN4ar  1 3.400000e-01    3.220000e+00
 TN4dq TN4ar  1 3.400000e-01    3.220000e+00
 TP6dq TN3ar  1 3.400000e-01    2.280000e+00
 TP5dq TN3ar  1 3.400000e-01    2.280000e+00
 TP4dq TN3ar  1 3.400000e-01    2.740000e+00
 TP3dq TN3ar  1 3.400000e-01    2.740000e+00
 TP2dq TN3ar  1 3.400000e-01    2.740000e+00
 TP1dq TN3ar  1 3.400000e-01    2.740000e+00
 TN6dq TN3ar  1 3.400000e-01    2.990000e+00
 TN5dq TN3ar  1 3.400000e-01    2.990000e+00
 TN4dq TN3ar  1 3.400000e-01    2.990000e+00
 TN3dq TN3ar  1 3.400000e-01    2.990000e+00
 TP6dq TN2ar  1 3.400000e-01    2.020000e+00
 TP5dq TN2ar  1 3.400000e-01    2.020000e+00
 TP4dq TN2ar  1 3.400000e-01    2.280000e+00
 TP3dq TN2ar  1 3.400000e-01    2.740000e+00
 TP2dq TN2ar  1 3.400000e-01    2.740000e+00
 TP1dq TN2ar  1 3.400000e-01    2.740000e+00
 TN6dq TN2ar  1 3.400000e-01    2.740000e+00
 TN5dq TN2ar  1 3.400000e-01    2.990000e+00
 TN4dq TN2ar  1 3.400000e-01    2.990000e+00
 TN3dq TN2ar  1 3.400000e-01    2.990000e+00
 TN2dq TN2ar  1 3.400000e-01    2.990000e+00
 TP6dq TN1ar  1 3.400000e-01    1.230000e+00
 TP5dq TN1ar  1 3.400000e-01    1.230000e+00
 TP4dq TN1ar  1 3.400000e-01    2.020000e+00
 TP3dq TN1ar  1 3.400000e-01    2.280000e+00
 TP2dq TN1ar  1 3.400000e-01    2.740000e+00
 TP1dq TN1ar  1 3.400000e-01    2.740000e+00
 TN6dq TN1ar  1 3.400000e-01    2.740000e+00
 TN5dq TN1ar  1 3.400000e-01    2.740000e+00
 TN4dq TN1ar  1 3.400000e-01    2.740000e+00
 TN3dq TN1ar  1 3.400000e-01    2.740000e+00
 TN2dq TN1ar  1 3.400000e-01    2.740000e+00
 TN1dq TN1ar  1 3.400000e-01    2.990000e+00
 TP6dh  TP6a  1 3.400000e-01    4.300000e+00
 TP6dh  TP5a  1 3.400000e-01    4.020000e+00
 TP6dh  TP4a  1 3.400000e-01    3.750000e+00
 TP6dh  TP3a  1 3.400000e-01    3.470000e+00
 TP6dh  TP2a  1 3.400000e-01    3.470000e+00
 TP6dh  TP1a  1 3.400000e-01    3.220000e+00
 TP6dh  TN6a  1 3.400000e-01    2.990000e+00
 TP6dh  TN5a  1 3.400000e-01    2.500000e+00
 TP6dh  TN4a  1 3.400000e-01    2.280000e+00
 TP6dh  TN3a  1 3.400000e-01    1.230000e+00
 TP6dh  TN2a  1 3.520000e-01    1.050000e+00
 TP6dh  TN1a  1 3.660000e-01    9.350000e-01
 TP5dh  TP5a  1 3.400000e-01    3.750000e+00
 TP5dh  TP4a  1 3.400000e-01    3.470000e+00
 TP5dh  TP3a  1 3.400000e-01    3.220000e+00
 TP5dh  TP2a  1 3.400000e-01    3.220000e+00
 TP5dh  TP1a  1 3.400000e-01    2.990000e+00
 TP5dh  TN6a  1 3.400000e-01    2.740000e+00
 TP5dh  TN5a  1 3.400000e-01    2.500000e+00
 TP5dh  TN4a  1 3.400000e-01    2.500000e+00
 TP5dh  TN3a  1 3.400000e-01    1.230000e+00
 TP5dh  TN2a  1 3.520000e-01    1.050000e+00
 TP5dh  TN1a  1 3.660000e-01    9.350000e-01
 TP4dh  TP4a  1 3.400000e-01    3.470000e+00
 TP4dh  TP3a  1 3.400000e-01    3.220000e+00
 TP4dh  TP2a  1 3.400000e-01    3.220000e+00
 TP4dh  TP1a  1 3.400000e-01    2.990000e+00
 TP4dh  TN6a  1 3.400000e-01    2.740000e+00
 TP4dh  TN5a  1 3.400000e-01    2.500000e+00
 TP4dh  TN4a  1 3.400000e-01    2.500000e+00
 TP4dh  TN3a  1 3.400000e-01    2.280000e+00
 TP4dh  TN2a  1 3.400000e-01    1.230000e+00
 TP4dh  TN1a  1 3.520000e-01    1.050000e+00
 TP3dh  TP3a  1 3.400000e-01    3.220000e+00
 TP3dh  TP2a  1 3.400000e-01    3.220000e+00
 TP3dh  TP1a  1 3.400000e-01    2.990000e+00
 TP3dh  TN6a  1 3.400000e-01    2.740000e+00
 TP3dh  TN5a  1 3.400000e-01    2.500000e+00
 TP3dh  TN4a  1 3.400000e-01    2.500000e+00
 TP3dh  TN3a  1 3.400000e-01    2.280000e+00
 TP3dh  TN2a  1 3.400000e-01    2.280000e+00
 TP3dh  TN1a  1 3.400000e-01    1.230000e+00
 TP2dh  TP2a  1 3.400000e-01    3.220000e+00
 TP2dh  TP1a  1 3.400000e-01    2.990000e+00
 TP2dh  TN6a  1 3.400000e-01    2.990000e+00
 TP2dh  TN5a  1 3.400000e-01    2.740000e+00
 TP2dh  TN4a  1 3.400000e-01    2.500000e+00
 TP2dh  TN3a  1 3.400000e-01    2.280000e+00
 TP2dh  TN2a  1 3.400000e-01    2.280000e+00
 TP2dh  TN1a  1 3.400000e-01    2.280000e+00
 TP1dh  TP1a  1 3.400000e-01    2.990000e+00
 TP1dh  TN6a  1 3.400000e-01    2.990000e+00
 TP1dh  TN5a  1 3.400000e-01    2.740000e+00
 TP1dh  TN4a  1 3.400000e-01    2.740000e+00
 TP1dh  TN3a  1 3.400000e-01    2.280000e+00
 TP1dh  TN2a  1 3.400000e-01    2.280000e+00
 TP1dh  TN1a  1 3.400000e-01    2.280000e+00
 TN6dh  TN6a  1 3.400000e-01    2.990000e+00
 TN6dh  TN5a  1 3.400000e-01    2.990000e+00
 TN6dh  TN4a  1 3.400000e-01    2.990000e+00
 TN6dh  TN3a  1 3.400000e-01    2.500000e+00
 TN6dh  TN2a  1 3.400000e-01    2.280000e+00
 TN6dh  TN1a  1 3.400000e-01    2.280000e+00
 TN5dh  TN5a  1 3.400000e-01    2.740000e+00
 TN5dh  TN4a  1 3.400000e-01    2.740000e+00
 TN5dh  TN3a  1 3.400000e-01    2.500000e+00
 TN5dh  TN2a  1 3.400000e-01    2.500000e+00
 TN5dh  TN1a  1 3.400000e-01    2.280000e+00
 TN4dh  TN4a  1 3.400000e-01    2.740000e+00
 TN4dh  TN3a  1 3.400000e-01    2.500000e+00
 TN4dh  TN2a  1 3.400000e-01    2.500000e+00
 TN4dh  TN1a  1 3.400000e-01    2.280000e+00
 TN3dh  TN3a  1 3.400000e-01    2.500000e+00
 TN3dh  TN2a  1 3.400000e-01    2.500000e+00
 TN3dh  TN1a  1 3.400000e-01    2.280000e+00
 TN2dh  TN2a  1 3.400000e-01    2.500000e+00
 TN2dh  TN1a  1 3.400000e-01    2.280000e+00
 TN1dh  TN1a  1 3.400000e-01    2.500000e+00
 TP6dh TN1aq  1 3.400000e-01    1.230000e+00
 TP6dh TN2aq  1 3.400000e-01    2.020000e+00
 TP6dh TN3aq  1 3.400000e-01    2.280000e+00
 TP6dh TN4aq  1 3.400000e-01    2.740000e+00
 TP6dh TN5aq  1 3.400000e-01    2.990000e+00
 TP6dh TN6aq  1 3.400000e-01    3.470000e+00
 TP6dh TP1aq  1 3.400000e-01    3.750000e+00
 TP6dh TP2aq  1 3.400000e-01    4.020000e+00
 TP6dh TP3aq  1 3.400000e-01    4.020000e+00
 TP6dh TP4aq  1 3.400000e-01    4.300000e+00
 TP6dh TP5aq  1 3.400000e-01    4.300000e+00
 TP6dh TP6aq  1 3.400000e-01    4.300000e+00
 TP5dh TN1aq  1 3.400000e-01    1.230000e+00
 TP5dh TN2aq  1 3.400000e-01    2.020000e+00
 TP5dh TN3aq  1 3.400000e-01    2.280000e+00
 TP5dh TN4aq  1 3.400000e-01    2.990000e+00
 TP5dh TN5aq  1 3.400000e-01    2.990000e+00
 TP5dh TN6aq  1 3.400000e-01    3.220000e+00
 TP5dh TP1aq  1 3.400000e-01    3.470000e+00
 TP5dh TP2aq  1 3.400000e-01    3.750000e+00
 TP5dh TP3aq  1 3.400000e-01    3.750000e+00
 TP5dh TP4aq  1 3.400000e-01    4.020000e+00
 TP5dh TP5aq  1 3.400000e-01    4.300000e+00
 TP4dh TN1aq  1 3.400000e-01    2.020000e+00
 TP4dh TN2aq  1 3.400000e-01    2.280000e+00
 TP4dh TN3aq  1 3.400000e-01    2.740000e+00
 TP4dh TN4aq  1 3.400000e-01    2.990000e+00
 TP4dh TN5aq  1 3.400000e-01    2.990000e+00
 TP4dh TN6aq  1 3.400000e-01    3.220000e+00
 TP4dh TP1aq  1 3.400000e-01    3.470000e+00
 TP4dh TP2aq  1 3.400000e-01    3.750000e+00
 TP4dh TP3aq  1 3.400000e-01    3.750000e+00
 TP4dh TP4aq  1 3.400000e-01    4.020000e+00
 TP3dh TN1aq  1 3.400000e-01    2.280000e+00
 TP3dh TN2aq  1 3.400000e-01    2.740000e+00
 TP3dh TN3aq  1 3.400000e-01    2.740000e+00
 TP3dh TN4aq  1 3.400000e-01    2.990000e+00
 TP3dh TN5aq  1 3.400000e-01    2.990000e+00
 TP3dh TN6aq  1 3.400000e-01    3.220000e+00
 TP3dh TP1aq  1 3.400000e-01    3.470000e+00
 TP3dh TP2aq  1 3.400000e-01    3.750000e+00
 TP3dh TP3aq  1 3.400000e-01    3.750000e+00
 TP2dh TN1aq  1 3.400000e-01    2.740000e+00
 TP2dh TN2aq  1 3.400000e-01    2.740000e+00
 TP2dh TN3aq  1 3.400000e-01    2.740000e+00
 TP2dh TN4aq  1 3.400000e-01    2.990000e+00
 TP2dh TN5aq  1 3.400000e-01    3.220000e+00
 TP2dh TN6aq  1 3.400000e-01    3.470000e+00
 TP2dh TP1aq  1 3.400000e-01    3.470000e+00
 TP2dh TP2aq  1 3.400000e-01    3.750000e+00
 TP1dh TN1aq  1 3.400000e-01    2.740000e+00
 TP1dh TN2aq  1 3.400000e-01    2.740000e+00
 TP1dh TN3aq  1 3.400000e-01    2.740000e+00
 TP1dh TN4aq  1 3.400000e-01    3.220000e+00
 TP1dh TN5aq  1 3.400000e-01    3.220000e+00
 TP1dh TN6aq  1 3.400000e-01    3.470000e+00
 TP1dh TP1aq  1 3.400000e-01    3.470000e+00
 TN6dh TN1aq  1 3.400000e-01    2.740000e+00
 TN6dh TN2aq  1 3.400000e-01    2.740000e+00
 TN6dh TN3aq  1 3.400000e-01    2.990000e+00
 TN6dh TN4aq  1 3.400000e-01    3.470000e+00
 TN6dh TN5aq  1 3.400000e-01    3.470000e+00
 TN6dh TN6aq  1 3.400000e-01    3.470000e+00
 TN5dh TN1aq  1 3.400000e-01    2.740000e+00
 TN5dh TN2aq  1 3.400000e-01    2.990000e+00
 TN5dh TN3aq  1 3.400000e-01    2.990000e+00
 TN5dh TN4aq  1 3.400000e-01    3.220000e+00
 TN5dh TN5aq  1 3.400000e-01    3.220000e+00
 TN4dh TN1aq  1 3.400000e-01    2.740000e+00
 TN4dh TN2aq  1 3.400000e-01    2.990000e+00
 TN4dh TN3aq  1 3.400000e-01    2.990000e+00
 TN4dh TN4aq  1 3.400000e-01    3.220000e+00
 TN3dh TN1aq  1 3.400000e-01    2.740000e+00
 TN3dh TN2aq  1 3.400000e-01    2.990000e+00
 TN3dh TN3aq  1 3.400000e-01    2.990000e+00
 TN2dh TN1aq  1 3.400000e-01    2.740000e+00
 TN2dh TN2aq  1 3.400000e-01    2.990000e+00
 TN1dh TN1aq  1 3.400000e-01    2.990000e+00
 TP6dh TP6ah  1 3.400000e-01    4.300000e+00
 TP6dh TP5ah  1 3.400000e-01    4.300000e+00
 TP6dh TP4ah  1 3.400000e-01    4.020000e+00
 TP6dh TP3ah  1 3.400000e-01    3.750000e+00
 TP6dh TP2ah  1 3.400000e-01    3.750000e+00
 TP6dh TP1ah  1 3.400000e-01    3.470000e+00
 TP6dh TN6ah  1 3.400000e-01    3.220000e+00
 TP6dh TN5ah  1 3.400000e-01    2.740000e+00
 TP6dh TN4ah  1 3.400000e-01    2.500000e+00
 TP6dh TN3ah  1 3.400000e-01    2.020000e+00
 TP6dh TN2ah  1 3.400000e-01    1.230000e+00
 TP6dh TN1ah  1 3.520000e-01    1.050000e+00
 TP5dh TP5ah  1 3.400000e-01    4.020000e+00
 TP5dh TP4ah  1 3.400000e-01    3.750000e+00
 TP5dh TP3ah  1 3.400000e-01    3.470000e+00
 TP5dh TP2ah  1 3.400000e-01    3.470000e+00
 TP5dh TP1ah  1 3.400000e-01    3.220000e+00
 TP5dh TN6ah  1 3.400000e-01    2.990000e+00
 TP5dh TN5ah  1 3.400000e-01    2.740000e+00
 TP5dh TN4ah  1 3.400000e-01    2.740000e+00
 TP5dh TN3ah  1 3.400000e-01    2.020000e+00
 TP5dh TN2ah  1 3.400000e-01    1.230000e+00
 TP5dh TN1ah  1 3.520000e-01    1.050000e+00
 TP4dh TP4ah  1 3.400000e-01    3.750000e+00
 TP4dh TP3ah  1 3.400000e-01    3.470000e+00
 TP4dh TP2ah  1 3.400000e-01    3.470000e+00
 TP4dh TP1ah  1 3.400000e-01    3.220000e+00
 TP4dh TN6ah  1 3.400000e-01    2.990000e+00
 TP4dh TN5ah  1 3.400000e-01    2.740000e+00
 TP4dh TN4ah  1 3.400000e-01    2.740000e+00
 TP4dh TN3ah  1 3.400000e-01    2.500000e+00
 TP4dh TN2ah  1 3.400000e-01    2.020000e+00
 TP4dh TN1ah  1 3.400000e-01    1.230000e+00
 TP3dh TP3ah  1 3.400000e-01    3.470000e+00
 TP3dh TP2ah  1 3.400000e-01    3.470000e+00
 TP3dh TP1ah  1 3.400000e-01    3.220000e+00
 TP3dh TN6ah  1 3.400000e-01    2.990000e+00
 TP3dh TN5ah  1 3.400000e-01    2.740000e+00
 TP3dh TN4ah  1 3.400000e-01    2.740000e+00
 TP3dh TN3ah  1 3.400000e-01    2.500000e+00
 TP3dh TN2ah  1 3.400000e-01    2.500000e+00
 TP3dh TN1ah  1 3.400000e-01    2.020000e+00
 TP2dh TP2ah  1 3.400000e-01    3.470000e+00
 TP2dh TP1ah  1 3.400000e-01    3.220000e+00
 TP2dh TN6ah  1 3.400000e-01    3.220000e+00
 TP2dh TN5ah  1 3.400000e-01    2.990000e+00
 TP2dh TN4ah  1 3.400000e-01    2.740000e+00
 TP2dh TN3ah  1 3.400000e-01    2.500000e+00
 TP2dh TN2ah  1 3.400000e-01    2.500000e+00
 TP2dh TN1ah  1 3.400000e-01    2.500000e+00
 TP1dh TP1ah  1 3.400000e-01    3.220000e+00
 TP1dh TN6ah  1 3.400000e-01    3.220000e+00
 TP1dh TN5ah  1 3.400000e-01    2.990000e+00
 TP1dh TN4ah  1 3.400000e-01    2.990000e+00
 TP1dh TN3ah  1 3.400000e-01    2.500000e+00
 TP1dh TN2ah  1 3.400000e-01    2.500000e+00
 TP1dh TN1ah  1 3.400000e-01    2.500000e+00
 TN6dh TN6ah  1 3.400000e-01    3.220000e+00
 TN6dh TN5ah  1 3.400000e-01    3.220000e+00
 TN6dh TN4ah  1 3.400000e-01    3.220000e+00
 TN6dh TN3ah  1 3.400000e-01    2.740000e+00
 TN6dh TN2ah  1 3.400000e-01    2.500000e+00
 TN6dh TN1ah  1 3.400000e-01    2.500000e+00
 TN5dh TN5ah  1 3.400000e-01    2.990000e+00
 TN5dh TN4ah  1 3.400000e-01    2.990000e+00
 TN5dh TN3ah  1 3.400000e-01    2.740000e+00
 TN5dh TN2ah  1 3.400000e-01    2.740000e+00
 TN5dh TN1ah  1 3.400000e-01    2.500000e+00
 TN4dh TN4ah  1 3.400000e-01    2.990000e+00
 TN4dh TN3ah  1 3.400000e-01    2.740000e+00
 TN4dh TN2ah  1 3.400000e-01    2.740000e+00
 TN4dh TN1ah  1 3.400000e-01    2.500000e+00
 TN3dh TN3ah  1 3.400000e-01    2.740000e+00
 TN3dh TN2ah  1 3.400000e-01    2.740000e+00
 TN3dh TN1ah  1 3.400000e-01    2.500000e+00
 TN2dh TN2ah  1 3.400000e-01    2.740000e+00
 TN2dh TN1ah  1 3.400000e-01    2.500000e+00
 TN1dh TN1ah  1 3.400000e-01    2.740000e+00
 TP6dh TP6ar  1 3.400000e-01    4.300000e+00
 TP6dh TP5ar  1 3.400000e-01    4.020000e+00
 TP6dh TP4ar  1 3.400000e-01    3.750000e+00
 TP6dh TP3ar  1 3.400000e-01    3.470000e+00
 TP6dh TP2ar  1 3.400000e-01    3.470000e+00
 TP6dh TP1ar  1 3.400000e-01    3.220000e+00
 TP6dh TN6ar  1 3.400000e-01    2.990000e+00
 TP6dh TN5ar  1 3.400000e-01    2.500000e+00
 TP6dh TN4ar  1 3.400000e-01    2.280000e+00
 TP6dh TN3ar  1 3.400000e-01    1.230000e+00
 TP6dh TN2ar  1 3.520000e-01    1.050000e+00
 TP6dh TN1ar  1 3.660000e-01    9.350000e-01
 TP5dh TP5ar  1 3.400000e-01    3.750000e+00
 TP5dh TP4ar  1 3.400000e-01    3.470000e+00
 TP5dh TP3ar  1 3.400000e-01    3.220000e+00
 TP5dh TP2ar  1 3.400000e-01    3.220000e+00
 TP5dh TP1ar  1 3.400000e-01    2.990000e+00
 TP5dh TN6ar  1 3.400000e-01    2.740000e+00
 TP5dh TN5ar  1 3.400000e-01    2.500000e+00
 TP5dh TN4ar  1 3.400000e-01    2.500000e+00
 TP5dh TN3ar  1 3.400000e-01    1.230000e+00
 TP5dh TN2ar  1 3.520000e-01    1.050000e+00
 TP5dh TN1ar  1 3.660000e-01    9.350000e-01
 TP4dh TP4ar  1 3.400000e-01    3.470000e+00
 TP4dh TP3ar  1 3.400000e-01    3.220000e+00
 TP4dh TP2ar  1 3.400000e-01    3.220000e+00
 TP4dh TP1ar  1 3.400000e-01    2.990000e+00
 TP4dh TN6ar  1 3.400000e-01    2.740000e+00
 TP4dh TN5ar  1 3.400000e-01    2.500000e+00
 TP4dh TN4ar  1 3.400000e-01    2.500000e+00
 TP4dh TN3ar  1 3.400000e-01    2.280000e+00
 TP4dh TN2ar  1 3.400000e-01    1.230000e+00
 TP4dh TN1ar  1 3.520000e-01    1.050000e+00
 TP3dh TP3ar  1 3.400000e-01    3.220000e+00
 TP3dh TP2ar  1 3.400000e-01    3.220000e+00
 TP3dh TP1ar  1 3.400000e-01    2.990000e+00
 TP3dh TN6ar  1 3.400000e-01    2.740000e+00
 TP3dh TN5ar  1 3.400000e-01    2.500000e+00
 TP3dh TN4ar  1 3.400000e-01    2.500000e+00
 TP3dh TN3ar  1 3.400000e-01    2.280000e+00
 TP3dh TN2ar  1 3.400000e-01    2.280000e+00
 TP3dh TN1ar  1 3.400000e-01    1.230000e+00
 TP2dh TP2ar  1 3.400000e-01    3.220000e+00
 TP2dh TP1ar  1 3.400000e-01    2.990000e+00
 TP2dh TN6ar  1 3.400000e-01    2.990000e+00
 TP2dh TN5ar  1 3.400000e-01    2.740000e+00
 TP2dh TN4ar  1 3.400000e-01    2.500000e+00
 TP2dh TN3ar  1 3.400000e-01    2.280000e+00
 TP2dh TN2ar  1 3.400000e-01    2.280000e+00
 TP2dh TN1ar  1 3.400000e-01    2.280000e+00
 TP1dh TP1ar  1 3.400000e-01    2.990000e+00
 TP1dh TN6ar  1 3.400000e-01    2.990000e+00
 TP1dh TN5ar  1 3.400000e-01    2.740000e+00
 TP1dh TN4ar  1 3.400000e-01    2.740000e+00
 TP1dh TN3ar  1 3.400000e-01    2.280000e+00
 TP1dh TN2ar  1 3.400000e-01    2.280000e+00
 TP1dh TN1ar  1 3.400000e-01    2.280000e+00
 TN6dh TN6ar  1 3.400000e-01    2.990000e+00
 TN6dh TN5ar  1 3.400000e-01    2.990000e+00
 TN6dh TN4ar  1 3.400000e-01    2.990000e+00
 TN6dh TN3ar  1 3.400000e-01    2.500000e+00
 TN6dh TN2ar  1 3.400000e-01    2.280000e+00
 TN6dh TN1ar  1 3.400000e-01    2.280000e+00
 TN5dh TN5ar  1 3.400000e-01    2.740000e+00
 TN5dh TN4ar  1 3.400000e-01    2.740000e+00
 TN5dh TN3ar  1 3.400000e-01    2.500000e+00
 TN5dh TN2ar  1 3.400000e-01    2.500000e+00
 TN5dh TN1ar  1 3.400000e-01    2.280000e+00
 TN4dh TN4ar  1 3.400000e-01    2.740000e+00
 TN4dh TN3ar  1 3.400000e-01    2.500000e+00
 TN4dh TN2ar  1 3.400000e-01    2.500000e+00
 TN4dh TN1ar  1 3.400000e-01    2.280000e+00
 TN3dh TN3ar  1 3.400000e-01    2.500000e+00
 TN3dh TN2ar  1 3.400000e-01    2.500000e+00
 TN3dh TN1ar  1 3.400000e-01    2.280000e+00
 TN2dh TN2ar  1 3.400000e-01    2.500000e+00
 TN2dh TN1ar  1 3.400000e-01    2.280000e+00
 TN1dh TN1ar  1 3.400000e-01    2.500000e+00
 TP6dr  TP6a  1 3.400000e-01    4.300000e+00
 TP6dr  TP5a  1 3.400000e-01    4.020000e+00
 TP6dr  TP4a  1 3.400000e-01    3.750000e+00
 TP6dr  TP3a  1 3.400000e-01    3.470000e+00
 TP6dr  TP2a  1 3.400000e-01    3.470000e+00
 TP6dr  TP1a  1 3.400000e-01    3.220000e+00
 TP6dr  TN6a  1 3.400000e-01    2.990000e+00
 TP6dr  TN5a  1 3.400000e-01    2.500000e+00
 TP6dr  TN4a  1 3.400000e-01    2.280000e+00
 TP6dr  TN3a  1 3.400000e-01    1.230000e+00
 TP6dr  TN2a  1 3.520000e-01    1.050000e+00
 TP6dr  TN1a  1 3.660000e-01    9.350000e-01
 TP5dr  TP5a  1 3.400000e-01    3.750000e+00
 TP5dr  TP4a  1 3.400000e-01    3.470000e+00
 TP5dr  TP3a  1 3.400000e-01    3.220000e+00
 TP5dr  TP2a  1 3.400000e-01    3.220000e+00
 TP5dr  TP1a  1 3.400000e-01    2.990000e+00
 TP5dr  TN6a  1 3.400000e-01    2.740000e+00
 TP5dr  TN5a  1 3.400000e-01    2.500000e+00
 TP5dr  TN4a  1 3.400000e-01    2.500000e+00
 TP5dr  TN3a  1 3.400000e-01    1.230000e+00
 TP5dr  TN2a  1 3.520000e-01    1.050000e+00
 TP5dr  TN1a  1 3.660000e-01    9.350000e-01
 TP4dr  TP4a  1 3.400000e-01    3.470000e+00
 TP4dr  TP3a  1 3.400000e-01    3.220000e+00
 TP4dr  TP2a  1 3.400000e-01    3.220000e+00
 TP4dr  TP1a  1 3.400000e-01    2.990000e+00
 TP4dr  TN6a  1 3.400000e-01    2.740000e+00
 TP4dr  TN5a  1 3.400000e-01    2.500000e+00
 TP4dr  TN4a  1 3.400000e-01    2.500000e+00
 TP4dr  TN3a  1 3.400000e-01    2.280000e+00
 TP4dr  TN2a  1 3.400000e-01    1.230000e+00
 TP4dr  TN1a  1 3.520000e-01    1.050000e+00
 TP3dr  TP3a  1 3.400000e-01    3.220000e+00
 TP3dr  TP2a  1 3.400000e-01    3.220000e+00
 TP3dr  TP1a  1 3.400000e-01    2.990000e+00
 TP3dr  TN6a  1 3.400000e-01    2.740000e+00
 TP3dr  TN5a  1 3.400000e-01    2.500000e+00
 TP3dr  TN4a  1 3.400000e-01    2.500000e+00
 TP3dr  TN3a  1 3.400000e-01    2.280000e+00
 TP3dr  TN2a  1 3.400000e-01    2.280000e+00
 TP3dr  TN1a  1 3.400000e-01    1.230000e+00
 TP2dr  TP2a  1 3.400000e-01    3.220000e+00
 TP2dr  TP1a  1 3.400000e-01    2.990000e+00
 TP2dr  TN6a  1 3.400000e-01    2.990000e+00
 TP2dr  TN5a  1 3.400000e-01    2.740000e+00
 TP2dr  TN4a  1 3.400000e-01    2.500000e+00
 TP2dr  TN3a  1 3.400000e-01    2.280000e+00
 TP2dr  TN2a  1 3.400000e-01    2.280000e+00
 TP2dr  TN1a  1 3.400000e-01    2.280000e+00
 TP1dr  TP1a  1 3.400000e-01    2.990000e+00
 TP1dr  TN6a  1 3.400000e-01    2.990000e+00
 TP1dr  TN5a  1 3.400000e-01    2.740000e+00
 TP1dr  TN4a  1 3.400000e-01    2.740000e+00
 TP1dr  TN3a  1 3.400000e-01    2.280000e+00
 TP1dr  TN2a  1 3.400000e-01    2.280000e+00
 TP1dr  TN1a  1 3.400000e-01    2.280000e+00
 TN6dr  TN6a  1 3.400000e-01    2.990000e+00
 TN6dr  TN5a  1 3.400000e-01    2.990000e+00
 TN6dr  TN4a  1 3.400000e-01    2.990000e+00
 TN6dr  TN3a  1 3.400000e-01    2.500000e+00
 TN6dr  TN2a  1 3.400000e-01    2.280000e+00
 TN6dr  TN1a  1 3.400000e-01    2.280000e+00
 TN5dr  TN5a  1 3.400000e-01    2.740000e+00
 TN5dr  TN4a  1 3.400000e-01    2.740000e+00
 TN5dr  TN3a  1 3.400000e-01    2.500000e+00
 TN5dr  TN2a  1 3.400000e-01    2.500000e+00
 TN5dr  TN1a  1 3.400000e-01    2.280000e+00
 TN4dr  TN4a  1 3.400000e-01    2.740000e+00
 TN4dr  TN3a  1 3.400000e-01    2.500000e+00
 TN4dr  TN2a  1 3.400000e-01    2.500000e+00
 TN4dr  TN1a  1 3.400000e-01    2.280000e+00
 TN3dr  TN3a  1 3.400000e-01    2.500000e+00
 TN3dr  TN2a  1 3.400000e-01    2.500000e+00
 TN3dr  TN1a  1 3.400000e-01    2.280000e+00
 TN2dr  TN2a  1 3.400000e-01    2.500000e+00
 TN2dr  TN1a  1 3.400000e-01    2.280000e+00
 TN1dr  TN1a  1 3.400000e-01    2.500000e+00
 TP6dr TN1aq  1 3.400000e-01    1.230000e+00
 TP6dr TN2aq  1 3.400000e-01    2.020000e+00
 TP6dr TN3aq  1 3.400000e-01    2.280000e+00
 TP6dr TN4aq  1 3.400000e-01    2.740000e+00
 TP6dr TN5aq  1 3.400000e-01    2.990000e+00
 TP6dr TN6aq  1 3.400000e-01    3.470000e+00
 TP6dr TP1aq  1 3.400000e-01    3.750000e+00
 TP6dr TP2aq  1 3.400000e-01    4.020000e+00
 TP6dr TP3aq  1 3.400000e-01    4.020000e+00
 TP6dr TP4aq  1 3.400000e-01    4.300000e+00
 TP6dr TP5aq  1 3.400000e-01    4.300000e+00
 TP6dr TP6aq  1 3.400000e-01    4.300000e+00
 TP5dr TN1aq  1 3.400000e-01    1.230000e+00
 TP5dr TN2aq  1 3.400000e-01    2.020000e+00
 TP5dr TN3aq  1 3.400000e-01    2.280000e+00
 TP5dr TN4aq  1 3.400000e-01    2.990000e+00
 TP5dr TN5aq  1 3.400000e-01    2.990000e+00
 TP5dr TN6aq  1 3.400000e-01    3.220000e+00
 TP5dr TP1aq  1 3.400000e-01    3.470000e+00
 TP5dr TP2aq  1 3.400000e-01    3.750000e+00
 TP5dr TP3aq  1 3.400000e-01    3.750000e+00
 TP5dr TP4aq  1 3.400000e-01    4.020000e+00
 TP5dr TP5aq  1 3.400000e-01    4.300000e+00
 TP4dr TN1aq  1 3.400000e-01    2.020000e+00
 TP4dr TN2aq  1 3.400000e-01    2.280000e+00
 TP4dr TN3aq  1 3.400000e-01    2.740000e+00
 TP4dr TN4aq  1 3.400000e-01    2.990000e+00
 TP4dr TN5aq  1 3.400000e-01    2.990000e+00
 TP4dr TN6aq  1 3.400000e-01    3.220000e+00
 TP4dr TP1aq  1 3.400000e-01    3.470000e+00
 TP4dr TP2aq  1 3.400000e-01    3.750000e+00
 TP4dr TP3aq  1 3.400000e-01    3.750000e+00
 TP4dr TP4aq  1 3.400000e-01    4.020000e+00
 TP3dr TN1aq  1 3.400000e-01    2.280000e+00
 TP3dr TN2aq  1 3.400000e-01    2.740000e+00
 TP3dr TN3aq  1 3.400000e-01    2.740000e+00
 TP3dr TN4aq  1 3.400000e-01    2.990000e+00
 TP3dr TN5aq  1 3.400000e-01    2.990000e+00
 TP3dr TN6aq  1 3.400000e-01    3.220000e+00
 TP3dr TP1aq  1 3.400000e-01    3.470000e+00
 TP3dr TP2aq  1 3.400000e-01    3.750000e+00
 TP3dr TP3aq  1 3.400000e-01    3.750000e+00
 TP2dr TN1aq  1 3.400000e-01    2.740000e+00
 TP2dr TN2aq  1 3.400000e-01    2.740000e+00
 TP2dr TN3aq  1 3.400000e-01    2.740000e+00
 TP2dr TN4aq  1 3.400000e-01    2.990000e+00
 TP2dr TN5aq  1 3.400000e-01    3.220000e+00
 TP2dr TN6aq  1 3.400000e-01    3.470000e+00
 TP2dr TP1aq  1 3.400000e-01    3.470000e+00
 TP2dr TP2aq  1 3.400000e-01    3.750000e+00
 TP1dr TN1aq  1 3.400000e-01    2.740000e+00
 TP1dr TN2aq  1 3.400000e-01    2.740000e+00
 TP1dr TN3aq  1 3.400000e-01    2.740000e+00
 TP1dr TN4aq  1 3.400000e-01    3.220000e+00
 TP1dr TN5aq  1 3.400000e-01    3.220000e+00
 TP1dr TN6aq  1 3.400000e-01    3.470000e+00
 TP1dr TP1aq  1 3.400000e-01    3.470000e+00
 TN6dr TN1aq  1 3.400000e-01    2.740000e+00
 TN6dr TN2aq  1 3.400000e-01    2.740000e+00
 TN6dr TN3aq  1 3.400000e-01    2.990000e+00
 TN6dr TN4aq  1 3.400000e-01    3.470000e+00
 TN6dr TN5aq  1 3.400000e-01    3.470000e+00
 TN6dr TN6aq  1 3.400000e-01    3.470000e+00
 TN5dr TN1aq  1 3.400000e-01    2.740000e+00
 TN5dr TN2aq  1 3.400000e-01    2.990000e+00
 TN5dr TN3aq  1 3.400000e-01    2.990000e+00
 TN5dr TN4aq  1 3.400000e-01    3.220000e+00
 TN5dr TN5aq  1 3.400000e-01    3.220000e+00
 TN4dr TN1aq  1 3.400000e-01    2.740000e+00
 TN4dr TN2aq  1 3.400000e-01    2.990000e+00
 TN4dr TN3aq  1 3.400000e-01    2.990000e+00
 TN4dr TN4aq  1 3.400000e-01    3.220000e+00
 TN3dr TN1aq  1 3.400000e-01    2.740000e+00
 TN3dr TN2aq  1 3.400000e-01    2.990000e+00
 TN3dr TN3aq  1 3.400000e-01    2.990000e+00
 TN2dr TN1aq  1 3.400000e-01    2.740000e+00
 TN2dr TN2aq  1 3.400000e-01    2.990000e+00
 TN1dr TN1aq  1 3.400000e-01    2.990000e+00
 TP6dr TP6ah  1 3.400000e-01    4.300000e+00
 TP6dr TP5ah  1 3.400000e-01    4.020000e+00
 TP6dr TP4ah  1 3.400000e-01    3.750000e+00
 TP6dr TP3ah  1 3.400000e-01    3.470000e+00
 TP6dr TP2ah  1 3.400000e-01    3.470000e+00
 TP6dr TP1ah  1 3.400000e-01    3.220000e+00
 TP6dr TN6ah  1 3.400000e-01    2.990000e+00
 TP6dr TN5ah  1 3.400000e-01    2.500000e+00
 TP6dr TN4ah  1 3.400000e-01    2.280000e+00
 TP6dr TN3ah  1 3.400000e-01    1.230000e+00
 TP6dr TN2ah  1 3.520000e-01    1.050000e+00
 TP6dr TN1ah  1 3.660000e-01    9.350000e-01
 TP5dr TP5ah  1 3.400000e-01    3.750000e+00
 TP5dr TP4ah  1 3.400000e-01    3.470000e+00
 TP5dr TP3ah  1 3.400000e-01    3.220000e+00
 TP5dr TP2ah  1 3.400000e-01    3.220000e+00
 TP5dr TP1ah  1 3.400000e-01    2.990000e+00
 TP5dr TN6ah  1 3.400000e-01    2.740000e+00
 TP5dr TN5ah  1 3.400000e-01    2.500000e+00
 TP5dr TN4ah  1 3.400000e-01    2.500000e+00
 TP5dr TN3ah  1 3.400000e-01    1.230000e+00
 TP5dr TN2ah  1 3.520000e-01    1.050000e+00
 TP5dr TN1ah  1 3.660000e-01    9.350000e-01
 TP4dr TP4ah  1 3.400000e-01    3.470000e+00
 TP4dr TP3ah  1 3.400000e-01    3.220000e+00
 TP4dr TP2ah  1 3.400000e-01    3.220000e+00
 TP4dr TP1ah  1 3.400000e-01    2.990000e+00
 TP4dr TN6ah  1 3.400000e-01    2.740000e+00
 TP4dr TN5ah  1 3.400000e-01    2.500000e+00
 TP4dr TN4ah  1 3.400000e-01    2.500000e+00
 TP4dr TN3ah  1 3.400000e-01    2.280000e+00
 TP4dr TN2ah  1 3.400000e-01    1.230000e+00
 TP4dr TN1ah  1 3.520000e-01    1.050000e+00
 TP3dr TP3ah  1 3.400000e-01    3.220000e+00
 TP3dr TP2ah  1 3.400000e-01    3.220000e+00
 TP3dr TP1ah  1 3.400000e-01    2.990000e+00
 TP3dr TN6ah  1 3.400000e-01    2.740000e+00
 TP3dr TN5ah  1 3.400000e-01    2.500000e+00
 TP3dr TN4ah  1 3.400000e-01    2.500000e+00
 TP3dr TN3ah  1 3.400000e-01    2.280000e+00
 TP3dr TN2ah  1 3.400000e-01    2.280000e+00
 TP3dr TN1ah  1 3.400000e-01    1.230000e+00
 TP2dr TP2ah  1 3.400000e-01    3.220000e+00
 TP2dr TP1ah  1 3.400000e-01    2.990000e+00
 TP2dr TN6ah  1 3.400000e-01    2.990000e+00
 TP2dr TN5ah  1 3.400000e-01    2.740000e+00
 TP2dr TN4ah  1 3.400000e-01    2.500000e+00
 TP2dr TN3ah  1 3.400000e-01    2.280000e+00
 TP2dr TN2ah  1 3.400000e-01    2.280000e+00
 TP2dr TN1ah  1 3.400000e-01    2.280000e+00
 TP1dr TP1ah  1 3.400000e-01    2.990000e+00
 TP1dr TN6ah  1 3.400000e-01    2.990000e+00
 TP1dr TN5ah  1 3.400000e-01    2.740000e+00
 TP1dr TN4ah  1 3.400000e-01    2.740000e+00
 TP1dr TN3ah  1 3.400000e-01    2.280000e+00
 TP1dr TN2ah  1 3.400000e-01    2.280000e+00
 TP1dr TN1ah  1 3.400000e-01    2.280000e+00
 TN6dr TN6ah  1 3.400000e-01    2.990000e+00
 TN6dr TN5ah  1 3.400000e-01    2.990000e+00
 TN6dr TN4ah  1 3.400000e-01    2.990000e+00
 TN6dr TN3ah  1 3.400000e-01    2.500000e+00
 TN6dr TN2ah  1 3.400000e-01    2.280000e+00
 TN6dr TN1ah  1 3.400000e-01    2.280000e+00
 TN5dr TN5ah  1 3.400000e-01    2.740000e+00
 TN5dr TN4ah  1 3.400000e-01    2.740000e+00
 TN5dr TN3ah  1 3.400000e-01    2.500000e+00
 TN5dr TN2ah  1 3.400000e-01    2.500000e+00
 TN5dr TN1ah  1 3.400000e-01    2.280000e+00
 TN4dr TN4ah  1 3.400000e-01    2.740000e+00
 TN4dr TN3ah  1 3.400000e-01    2.500000e+00
 TN4dr TN2ah  1 3.400000e-01    2.500000e+00
 TN4dr TN1ah  1 3.400000e-01    2.280000e+00
 TN3dr TN3ah  1 3.400000e-01    2.500000e+00
 TN3dr TN2ah  1 3.400000e-01    2.500000e+00
 TN3dr TN1ah  1 3.400000e-01    2.280000e+00
 TN2dr TN2ah  1 3.400000e-01    2.500000e+00
 TN2dr TN1ah  1 3.400000e-01    2.280000e+00
 TN1dr TN1ah  1 3.400000e-01    2.500000e+00
 TP6dr TP6ar  1 3.400000e-01    4.020000e+00
 TP6dr TP5ar  1 3.400000e-01    3.750000e+00
 TP6dr TP4ar  1 3.400000e-01    3.470000e+00
 TP6dr TP3ar  1 3.400000e-01    3.220000e+00
 TP6dr TP2ar  1 3.400000e-01    3.220000e+00
 TP6dr TP1ar  1 3.400000e-01    2.990000e+00
 TP6dr TN6ar  1 3.400000e-01    2.740000e+00
 TP6dr TN5ar  1 3.400000e-01    2.280000e+00
 TP6dr TN4ar  1 3.400000e-01    2.020000e+00
 TP6dr TN3ar  1 3.520000e-01    1.050000e+00
 TP6dr TN2ar  1 3.660000e-01    9.350000e-01
 TP6dr TN1ar  1 3.850000e-01    8.550000e-01
 TP5dr TP5ar  1 3.400000e-01    3.470000e+00
 TP5dr TP4ar  1 3.400000e-01    3.220000e+00
 TP5dr TP3ar  1 3.400000e-01    2.990000e+00
 TP5dr TP2ar  1 3.400000e-01    2.990000e+00
 TP5dr TP1ar  1 3.400000e-01    2.740000e+00
 TP5dr TN6ar  1 3.400000e-01    2.500000e+00
 TP5dr TN5ar  1 3.400000e-01    2.280000e+00
 TP5dr TN4ar  1 3.400000e-01    2.280000e+00
 TP5dr TN3ar  1 3.520000e-01    1.050000e+00
 TP5dr TN2ar  1 3.660000e-01    9.350000e-01
 TP5dr TN1ar  1 3.850000e-01    8.550000e-01
 TP4dr TP4ar  1 3.400000e-01    3.220000e+00
 TP4dr TP3ar  1 3.400000e-01    2.990000e+00
 TP4dr TP2ar  1 3.400000e-01    2.990000e+00
 TP4dr TP1ar  1 3.400000e-01    2.740000e+00
 TP4dr TN6ar  1 3.400000e-01    2.500000e+00
 TP4dr TN5ar  1 3.400000e-01    2.280000e+00
 TP4dr TN4ar  1 3.400000e-01    2.280000e+00
 TP4dr TN3ar  1 3.400000e-01    2.020000e+00
 TP4dr TN2ar  1 3.520000e-01    1.050000e+00
 TP4dr TN1ar  1 3.660000e-01    9.350000e-01
 TP3dr TP3ar  1 3.400000e-01    2.990000e+00
 TP3dr TP2ar  1 3.400000e-01    2.990000e+00
 TP3dr TP1ar  1 3.400000e-01    2.740000e+00
 TP3dr TN6ar  1 3.400000e-01    2.500000e+00
 TP3dr TN5ar  1 3.400000e-01    2.280000e+00
 TP3dr TN4ar  1 3.400000e-01    2.280000e+00
 TP3dr TN3ar  1 3.400000e-01    2.020000e+00
 TP3dr TN2ar  1 3.400000e-01    2.020000e+00
 TP3dr TN1ar  1 3.520000e-01    1.050000e+00
 TP2dr TP2ar  1 3.400000e-01    2.990000e+00
 TP2dr TP1ar  1 3.400000e-01    2.740000e+00
 TP2dr TN6ar  1 3.400000e-01    2.740000e+00
 TP2dr TN5ar  1 3.400000e-01    2.500000e+00
 TP2dr TN4ar  1 3.400000e-01    2.280000e+00
 TP2dr TN3ar  1 3.400000e-01    2.020000e+00
 TP2dr TN2ar  1 3.400000e-01    2.020000e+00
 TP2dr TN1ar  1 3.400000e-01    2.020000e+00
 TP1dr TP1ar  1 3.400000e-01    2.740000e+00
 TP1dr TN6ar  1 3.400000e-01    2.740000e+00
 TP1dr TN5ar  1 3.400000e-01    2.500000e+00
 TP1dr TN4ar  1 3.400000e-01    2.500000e+00
 TP1dr TN3ar  1 3.400000e-01    2.020000e+00
 TP1dr TN2ar  1 3.400000e-01    2.020000e+00
 TP1dr TN1ar  1 3.400000e-01    2.020000e+00
 TN6dr TN6ar  1 3.400000e-01    2.740000e+00
 TN6dr TN5ar  1 3.400000e-01    2.740000e+00
 TN6dr TN4ar  1 3.400000e-01    2.740000e+00
 TN6dr TN3ar  1 3.400000e-01    2.280000e+00
 TN6dr TN2ar  1 3.400000e-01    2.020000e+00
 TN6dr TN1ar  1 3.400000e-01    2.020000e+00
 TN5dr TN5ar  1 3.400000e-01    2.500000e+00
 TN5dr TN4ar  1 3.400000e-01    2.500000e+00
 TN5dr TN3ar  1 3.400000e-01    2.280000e+00
 TN5dr TN2ar  1 3.400000e-01    2.280000e+00
 TN5dr TN1ar  1 3.400000e-01    2.020000e+00
 TN4dr TN4ar  1 3.400000e-01    2.500000e+00
 TN4dr TN3ar  1 3.400000e-01    2.280000e+00
 TN4dr TN2ar  1 3.400000e-01    2.280000e+00
 TN4dr TN1ar  1 3.400000e-01    2.020000e+00
 TN3dr TN3ar  1 3.400000e-01    2.280000e+00
 TN3dr TN2ar  1 3.400000e-01    2.280000e+00
 TN3dr TN1ar  1 3.400000e-01    2.020000e+00
 TN2dr TN2ar  1 3.400000e-01    2.280000e+00
 TN2dr TN1ar  1 3.400000e-01    2.020000e+00
 TN1dr TN1ar  1 3.400000e-01    2.280000e+00
  TP6a  TP5d  1 3.400000e-01    4.020000e+00
  TP6a  TP4d  1 3.400000e-01    3.750000e+00
  TP6a  TP3d  1 3.400000e-01    3.470000e+00
  TP6a  TP2d  1 3.400000e-01    3.470000e+00
  TP6a  TP1d  1 3.400000e-01    3.220000e+00
  TP6a  TN6d  1 3.400000e-01    2.990000e+00
  TP6a  TN5d  1 3.400000e-01    2.500000e+00
  TP6a  TN4d  1 3.400000e-01    2.280000e+00
  TP6a  TN3d  1 3.400000e-01    1.230000e+00
  TP6a  TN2d  1 3.520000e-01    1.050000e+00
  TP6a  TN1d  1 3.660000e-01    9.350000e-01
  TP5a  TP4d  1 3.400000e-01    3.470000e+00
  TP5a  TP3d  1 3.400000e-01    3.220000e+00
  TP5a  TP2d  1 3.400000e-01    3.220000e+00
  TP5a  TP1d  1 3.400000e-01    2.990000e+00
  TP5a  TN6d  1 3.400000e-01    2.740000e+00
  TP5a  TN5d  1 3.400000e-01    2.500000e+00
  TP5a  TN4d  1 3.400000e-01    2.500000e+00
  TP5a  TN3d  1 3.400000e-01    1.230000e+00
  TP5a  TN2d  1 3.520000e-01    1.050000e+00
  TP5a  TN1d  1 3.660000e-01    9.350000e-01
  TP4a  TP3d  1 3.400000e-01    3.220000e+00
  TP4a  TP2d  1 3.400000e-01    3.220000e+00
  TP4a  TP1d  1 3.400000e-01    2.990000e+00
  TP4a  TN6d  1 3.400000e-01    2.740000e+00
  TP4a  TN5d  1 3.400000e-01    2.500000e+00
  TP4a  TN4d  1 3.400000e-01    2.500000e+00
  TP4a  TN3d  1 3.400000e-01    2.280000e+00
  TP4a  TN2d  1 3.400000e-01    1.230000e+00
  TP4a  TN1d  1 3.520000e-01    1.050000e+00
  TP3a  TP2d  1 3.400000e-01    3.220000e+00
  TP3a  TP1d  1 3.400000e-01    2.990000e+00
  TP3a  TN6d  1 3.400000e-01    2.740000e+00
  TP3a  TN5d  1 3.400000e-01    2.500000e+00
  TP3a  TN4d  1 3.400000e-01    2.500000e+00
  TP3a  TN3d  1 3.400000e-01    2.280000e+00
  TP3a  TN2d  1 3.400000e-01    2.280000e+00
  TP3a  TN1d  1 3.400000e-01    1.230000e+00
  TP2a  TP1d  1 3.400000e-01    2.990000e+00
  TP2a  TN6d  1 3.400000e-01    2.990000e+00
  TP2a  TN5d  1 3.400000e-01    2.740000e+00
  TP2a  TN4d  1 3.400000e-01    2.500000e+00
  TP2a  TN3d  1 3.400000e-01    2.280000e+00
  TP2a  TN2d  1 3.400000e-01    2.280000e+00
  TP2a  TN1d  1 3.400000e-01    2.280000e+00
  TP1a  TN6d  1 3.400000e-01    2.990000e+00
  TP1a  TN5d  1 3.400000e-01    2.740000e+00
  TP1a  TN4d  1 3.400000e-01    2.740000e+00
  TP1a  TN3d  1 3.400000e-01    2.280000e+00
  TP1a  TN2d  1 3.400000e-01    2.280000e+00
  TP1a  TN1d  1 3.400000e-01    2.280000e+00
  TN6a  TN5d  1 3.400000e-01    2.990000e+00
  TN6a  TN4d  1 3.400000e-01    2.990000e+00
  TN6a  TN3d  1 3.400000e-01    2.500000e+00
  TN6a  TN2d  1 3.400000e-01    2.280000e+00
  TN6a  TN1d  1 3.400000e-01    2.280000e+00
  TN5a  TN4d  1 3.400000e-01    2.740000e+00
  TN5a  TN3d  1 3.400000e-01    2.500000e+00
  TN5a  TN2d  1 3.400000e-01    2.500000e+00
  TN5a  TN1d  1 3.400000e-01    2.280000e+00
  TN4a  TN3d  1 3.400000e-01    2.500000e+00
  TN4a  TN2d  1 3.400000e-01    2.500000e+00
  TN4a  TN1d  1 3.400000e-01    2.280000e+00
  TN3a  TN2d  1 3.400000e-01    2.500000e+00
  TN3a  TN1d  1 3.400000e-01    2.280000e+00
  TN2a  TN1d  1 3.400000e-01    2.280000e+00
  TP6a TP5dq  1 3.400000e-01    4.300000e+00
  TP6a TP4dq  1 3.400000e-01    4.300000e+00
  TP5a TP4dq  1 3.400000e-01    4.020000e+00
  TP6a TP3dq  1 3.400000e-01    4.020000e+00
  TP5a TP3dq  1 3.400000e-01    3.750000e+00
  TP4a TP3dq  1 3.400000e-01    3.750000e+00
  TP6a TP2dq  1 3.400000e-01    4.020000e+00
  TP5a TP2dq  1 3.400000e-01    3.750000e+00
  TP4a TP2dq  1 3.400000e-01    3.750000e+00
  TP3a TP2dq  1 3.400000e-01    3.750000e+00
  TP6a TP1dq  1 3.400000e-01    3.750000e+00
  TP5a TP1dq  1 3.400000e-01    3.470000e+00
  TP4a TP1dq  1 3.400000e-01    3.470000e+00
  TP3a TP1dq  1 3.400000e-01    3.470000e+00
  TP2a TP1dq  1 3.400000e-01    3.470000e+00
  TP6a TN6dq  1 3.400000e-01    3.470000e+00
  TP5a TN6dq  1 3.400000e-01    3.220000e+00
  TP4a TN6dq  1 3.400000e-01    3.220000e+00
  TP3a TN6dq  1 3.400000e-01    3.220000e+00
  TP2a TN6dq  1 3.400000e-01    3.470000e+00
  TP1a TN6dq  1 3.400000e-01    3.470000e+00
  TP6a TN5dq  1 3.400000e-01    2.990000e+00
  TP5a TN5dq  1 3.400000e-01    2.990000e+00
  TP4a TN5dq  1 3.400000e-01    2.990000e+00
  TP3a TN5dq  1 3.400000e-01    2.990000e+00
  TP2a TN5dq  1 3.400000e-01    3.220000e+00
  TP1a TN5dq  1 3.400000e-01    3.220000e+00
  TN6a TN5dq  1 3.400000e-01    3.470000e+00
  TP6a TN4dq  1 3.400000e-01    2.740000e+00
  TP5a TN4dq  1 3.400000e-01    2.990000e+00
  TP4a TN4dq  1 3.400000e-01    2.990000e+00
  TP3a TN4dq  1 3.400000e-01    2.990000e+00
  TP2a TN4dq  1 3.400000e-01    2.990000e+00
  TP1a TN4dq  1 3.400000e-01    3.220000e+00
  TN6a TN4dq  1 3.400000e-01    3.470000e+00
  TN5a TN4dq  1 3.400000e-01    3.220000e+00
  TP6a TN3dq  1 3.400000e-01    2.280000e+00
  TP5a TN3dq  1 3.400000e-01    2.280000e+00
  TP4a TN3dq  1 3.400000e-01    2.740000e+00
  TP3a TN3dq  1 3.400000e-01    2.740000e+00
  TP2a TN3dq  1 3.400000e-01    2.740000e+00
  TP1a TN3dq  1 3.400000e-01    2.740000e+00
  TN6a TN3dq  1 3.400000e-01    2.990000e+00
  TN5a TN3dq  1 3.400000e-01    2.990000e+00
  TN4a TN3dq  1 3.400000e-01    2.990000e+00
  TP6a TN2dq  1 3.400000e-01    2.020000e+00
  TP5a TN2dq  1 3.400000e-01    2.020000e+00
  TP4a TN2dq  1 3.400000e-01    2.280000e+00
  TP3a TN2dq  1 3.400000e-01    2.740000e+00
  TP2a TN2dq  1 3.400000e-01    2.740000e+00
  TP1a TN2dq  1 3.400000e-01    2.740000e+00
  TN6a TN2dq  1 3.400000e-01    2.740000e+00
  TN5a TN2dq  1 3.400000e-01    2.990000e+00
  TN4a TN2dq  1 3.400000e-01    2.990000e+00
  TN3a TN2dq  1 3.400000e-01    2.990000e+00
  TP6a TN1dq  1 3.400000e-01    1.230000e+00
  TP5a TN1dq  1 3.400000e-01    1.230000e+00
  TP4a TN1dq  1 3.400000e-01    2.020000e+00
  TP3a TN1dq  1 3.400000e-01    2.280000e+00
  TP2a TN1dq  1 3.400000e-01    2.740000e+00
  TP1a TN1dq  1 3.400000e-01    2.740000e+00
  TN6a TN1dq  1 3.400000e-01    2.740000e+00
  TN5a TN1dq  1 3.400000e-01    2.740000e+00
  TN4a TN1dq  1 3.400000e-01    2.740000e+00
  TN3a TN1dq  1 3.400000e-01    2.740000e+00
  TN2a TN1dq  1 3.400000e-01    2.740000e+00
  TP6a TP5dh  1 3.400000e-01    4.020000e+00
  TP6a TP4dh  1 3.400000e-01    3.750000e+00
  TP5a TP4dh  1 3.400000e-01    3.470000e+00
  TP6a TP3dh  1 3.400000e-01    3.470000e+00
  TP5a TP3dh  1 3.400000e-01    3.220000e+00
  TP4a TP3dh  1 3.400000e-01    3.220000e+00
  TP6a TP2dh  1 3.400000e-01    3.470000e+00
  TP5a TP2dh  1 3.400000e-01    3.220000e+00
  TP4a TP2dh  1 3.400000e-01    3.220000e+00
  TP3a TP2dh  1 3.400000e-01    3.220000e+00
  TP6a TP1dh  1 3.400000e-01    3.220000e+00
  TP5a TP1dh  1 3.400000e-01    2.990000e+00
  TP4a TP1dh  1 3.400000e-01    2.990000e+00
  TP3a TP1dh  1 3.400000e-01    2.990000e+00
  TP2a TP1dh  1 3.400000e-01    2.990000e+00
  TP6a TN6dh  1 3.400000e-01    2.990000e+00
  TP5a TN6dh  1 3.400000e-01    2.740000e+00
  TP4a TN6dh  1 3.400000e-01    2.740000e+00
  TP3a TN6dh  1 3.400000e-01    2.740000e+00
  TP2a TN6dh  1 3.400000e-01    2.990000e+00
  TP1a TN6dh  1 3.400000e-01    2.990000e+00
  TP6a TN5dh  1 3.400000e-01    2.500000e+00
  TP5a TN5dh  1 3.400000e-01    2.500000e+00
  TP4a TN5dh  1 3.400000e-01    2.500000e+00
  TP3a TN5dh  1 3.400000e-01    2.500000e+00
  TP2a TN5dh  1 3.400000e-01    2.740000e+00
  TP1a TN5dh  1 3.400000e-01    2.740000e+00
  TN6a TN5dh  1 3.400000e-01    2.990000e+00
  TP6a TN4dh  1 3.400000e-01    2.280000e+00
  TP5a TN4dh  1 3.400000e-01    2.500000e+00
  TP4a TN4dh  1 3.400000e-01    2.500000e+00
  TP3a TN4dh  1 3.400000e-01    2.500000e+00
  TP2a TN4dh  1 3.400000e-01    2.500000e+00
  TP1a TN4dh  1 3.400000e-01    2.740000e+00
  TN6a TN4dh  1 3.400000e-01    2.990000e+00
  TN5a TN4dh  1 3.400000e-01    2.740000e+00
  TP6a TN3dh  1 3.400000e-01    1.230000e+00
  TP5a TN3dh  1 3.400000e-01    1.230000e+00
  TP4a TN3dh  1 3.400000e-01    2.280000e+00
  TP3a TN3dh  1 3.400000e-01    2.280000e+00
  TP2a TN3dh  1 3.400000e-01    2.280000e+00
  TP1a TN3dh  1 3.400000e-01    2.280000e+00
  TN6a TN3dh  1 3.400000e-01    2.500000e+00
  TN5a TN3dh  1 3.400000e-01    2.500000e+00
  TN4a TN3dh  1 3.400000e-01    2.500000e+00
  TP6a TN2dh  1 3.520000e-01    1.050000e+00
  TP5a TN2dh  1 3.520000e-01    1.050000e+00
  TP4a TN2dh  1 3.400000e-01    1.230000e+00
  TP3a TN2dh  1 3.400000e-01    2.280000e+00
  TP2a TN2dh  1 3.400000e-01    2.280000e+00
  TP1a TN2dh  1 3.400000e-01    2.280000e+00
  TN6a TN2dh  1 3.400000e-01    2.280000e+00
  TN5a TN2dh  1 3.400000e-01    2.500000e+00
  TN4a TN2dh  1 3.400000e-01    2.500000e+00
  TN3a TN2dh  1 3.400000e-01    2.500000e+00
  TP6a TN1dh  1 3.660000e-01    9.350000e-01
  TP5a TN1dh  1 3.660000e-01    9.350000e-01
  TP4a TN1dh  1 3.520000e-01    1.050000e+00
  TP3a TN1dh  1 3.400000e-01    1.230000e+00
  TP2a TN1dh  1 3.400000e-01    2.280000e+00
  TP1a TN1dh  1 3.400000e-01    2.280000e+00
  TN6a TN1dh  1 3.400000e-01    2.280000e+00
  TN5a TN1dh  1 3.400000e-01    2.280000e+00
  TN4a TN1dh  1 3.400000e-01    2.280000e+00
  TN3a TN1dh  1 3.400000e-01    2.280000e+00
  TN2a TN1dh  1 3.400000e-01    2.280000e+00
  TP6a TP5dr  1 3.400000e-01    4.020000e+00
  TP6a TP4dr  1 3.400000e-01    3.750000e+00
  TP5a TP4dr  1 3.400000e-01    3.470000e+00
  TP6a TP3dr  1 3.400000e-01    3.470000e+00
  TP5a TP3dr  1 3.400000e-01    3.220000e+00
  TP4a TP3dr  1 3.400000e-01    3.220000e+00
  TP6a TP2dr  1 3.400000e-01    3.470000e+00
  TP5a TP2dr  1 3.400000e-01    3.220000e+00
  TP4a TP2dr  1 3.400000e-01    3.220000e+00
  TP3a TP2dr  1 3.400000e-01    3.220000e+00
  TP6a TP1dr  1 3.400000e-01    3.220000e+00
  TP5a TP1dr  1 3.400000e-01    2.990000e+00
  TP4a TP1dr  1 3.400000e-01    2.990000e+00
  TP3a TP1dr  1 3.400000e-01    2.990000e+00
  TP2a TP1dr  1 3.400000e-01    2.990000e+00
  TP6a TN6dr  1 3.400000e-01    2.990000e+00
  TP5a TN6dr  1 3.400000e-01    2.740000e+00
  TP4a TN6dr  1 3.400000e-01    2.740000e+00
  TP3a TN6dr  1 3.400000e-01    2.740000e+00
  TP2a TN6dr  1 3.400000e-01    2.990000e+00
  TP1a TN6dr  1 3.400000e-01    2.990000e+00
  TP6a TN5dr  1 3.400000e-01    2.500000e+00
  TP5a TN5dr  1 3.400000e-01    2.500000e+00
  TP4a TN5dr  1 3.400000e-01    2.500000e+00
  TP3a TN5dr  1 3.400000e-01    2.500000e+00
  TP2a TN5dr  1 3.400000e-01    2.740000e+00
  TP1a TN5dr  1 3.400000e-01    2.740000e+00
  TN6a TN5dr  1 3.400000e-01    2.990000e+00
  TP6a TN4dr  1 3.400000e-01    2.280000e+00
  TP5a TN4dr  1 3.400000e-01    2.500000e+00
  TP4a TN4dr  1 3.400000e-01    2.500000e+00
  TP3a TN4dr  1 3.400000e-01    2.500000e+00
  TP2a TN4dr  1 3.400000e-01    2.500000e+00
  TP1a TN4dr  1 3.400000e-01    2.740000e+00
  TN6a TN4dr  1 3.400000e-01    2.990000e+00
  TN5a TN4dr  1 3.400000e-01    2.740000e+00
  TP6a TN3dr  1 3.400000e-01    1.230000e+00
  TP5a TN3dr  1 3.400000e-01    1.230000e+00
  TP4a TN3dr  1 3.400000e-01    2.280000e+00
  TP3a TN3dr  1 3.400000e-01    2.280000e+00
  TP2a TN3dr  1 3.400000e-01    2.280000e+00
  TP1a TN3dr  1 3.400000e-01    2.280000e+00
  TN6a TN3dr  1 3.400000e-01    2.500000e+00
  TN5a TN3dr  1 3.400000e-01    2.500000e+00
  TN4a TN3dr  1 3.400000e-01    2.500000e+00
  TP6a TN2dr  1 3.520000e-01    1.050000e+00
  TP5a TN2dr  1 3.520000e-01    1.050000e+00
  TP4a TN2dr  1 3.400000e-01    1.230000e+00
  TP3a TN2dr  1 3.400000e-01    2.280000e+00
  TP2a TN2dr  1 3.400000e-01    2.280000e+00
  TP1a TN2dr  1 3.400000e-01    2.280000e+00
  TN6a TN2dr  1 3.400000e-01    2.280000e+00
  TN5a TN2dr  1 3.400000e-01    2.500000e+00
  TN4a TN2dr  1 3.400000e-01    2.500000e+00
  TN3a TN2dr  1 3.400000e-01    2.500000e+00
  TP6a TN1dr  1 3.660000e-01    9.350000e-01
  TP5a TN1dr  1 3.660000e-01    9.350000e-01
  TP4a TN1dr  1 3.520000e-01    1.050000e+00
  TP3a TN1dr  1 3.400000e-01    1.230000e+00
  TP2a TN1dr  1 3.400000e-01    2.280000e+00
  TP1a TN1dr  1 3.400000e-01    2.280000e+00
  TN6a TN1dr  1 3.400000e-01    2.280000e+00
  TN5a TN1dr  1 3.400000e-01    2.280000e+00
  TN4a TN1dr  1 3.400000e-01    2.280000e+00
  TN3a TN1dr  1 3.400000e-01    2.280000e+00
  TN2a TN1dr  1 3.400000e-01    2.280000e+00
 TN2aq  TN1d  1 3.400000e-01    2.740000e+00
 TN3aq  TN2d  1 3.400000e-01    2.990000e+00
 TN3aq  TN1d  1 3.400000e-01    2.740000e+00
 TN4aq  TN3d  1 3.400000e-01    2.990000e+00
 TN4aq  TN2d  1 3.400000e-01    2.990000e+00
 TN4aq  TN1d  1 3.400000e-01    2.740000e+00
 TN5aq  TN4d  1 3.400000e-01    3.220000e+00
 TN5aq  TN3d  1 3.400000e-01    2.990000e+00
 TN5aq  TN2d  1 3.400000e-01    2.990000e+00
 TN5aq  TN1d  1 3.400000e-01    2.740000e+00
 TN6aq  TN5d  1 3.400000e-01    3.470000e+00
 TN6aq  TN4d  1 3.400000e-01    3.470000e+00
 TN6aq  TN3d  1 3.400000e-01    2.990000e+00
 TN6aq  TN2d  1 3.400000e-01    2.740000e+00
 TN6aq  TN1d  1 3.400000e-01    2.740000e+00
 TP1aq  TN6d  1 3.400000e-01    3.470000e+00
 TP1aq  TN5d  1 3.400000e-01    3.220000e+00
 TP1aq  TN4d  1 3.400000e-01    3.220000e+00
 TP1aq  TN3d  1 3.400000e-01    2.740000e+00
 TP1aq  TN2d  1 3.400000e-01    2.740000e+00
 TP1aq  TN1d  1 3.400000e-01    2.740000e+00
 TP2aq  TP1d  1 3.400000e-01    3.470000e+00
 TP2aq  TN6d  1 3.400000e-01    3.470000e+00
 TP2aq  TN5d  1 3.400000e-01    3.220000e+00
 TP2aq  TN4d  1 3.400000e-01    2.990000e+00
 TP2aq  TN3d  1 3.400000e-01    2.740000e+00
 TP2aq  TN2d  1 3.400000e-01    2.740000e+00
 TP2aq  TN1d  1 3.400000e-01    2.740000e+00
 TP3aq  TP2d  1 3.400000e-01    3.750000e+00
 TP3aq  TP1d  1 3.400000e-01    3.470000e+00
 TP3aq  TN6d  1 3.400000e-01    3.220000e+00
 TP3aq  TN5d  1 3.400000e-01    2.990000e+00
 TP3aq  TN4d  1 3.400000e-01    2.990000e+00
 TP3aq  TN3d  1 3.400000e-01    2.740000e+00
 TP3aq  TN2d  1 3.400000e-01    2.740000e+00
 TP3aq  TN1d  1 3.400000e-01    2.280000e+00
 TP4aq  TP3d  1 3.400000e-01    3.750000e+00
 TP4aq  TP2d  1 3.400000e-01    3.750000e+00
 TP4aq  TP1d  1 3.400000e-01    3.470000e+00
 TP4aq  TN6d  1 3.400000e-01    3.220000e+00
 TP4aq  TN5d  1 3.400000e-01    2.990000e+00
 TP4aq  TN4d  1 3.400000e-01    2.990000e+00
 TP4aq  TN3d  1 3.400000e-01    2.740000e+00
 TP4aq  TN2d  1 3.400000e-01    2.280000e+00
 TP4aq  TN1d  1 3.400000e-01    2.020000e+00
 TP5aq  TP4d  1 3.400000e-01    4.020000e+00
 TP5aq  TP3d  1 3.400000e-01    3.750000e+00
 TP5aq  TP2d  1 3.400000e-01    3.750000e+00
 TP5aq  TP1d  1 3.400000e-01    3.470000e+00
 TP5aq  TN6d  1 3.400000e-01    3.220000e+00
 TP5aq  TN5d  1 3.400000e-01    2.990000e+00
 TP5aq  TN4d  1 3.400000e-01    2.990000e+00
 TP5aq  TN3d  1 3.400000e-01    2.280000e+00
 TP5aq  TN2d  1 3.400000e-01    2.020000e+00
 TP5aq  TN1d  1 3.400000e-01    1.230000e+00
 TP6aq  TP5d  1 3.400000e-01    4.300000e+00
 TP6aq  TP4d  1 3.400000e-01    4.300000e+00
 TP6aq  TP3d  1 3.400000e-01    4.020000e+00
 TP6aq  TP2d  1 3.400000e-01    4.020000e+00
 TP6aq  TP1d  1 3.400000e-01    3.750000e+00
 TP6aq  TN6d  1 3.400000e-01    3.470000e+00
 TP6aq  TN5d  1 3.400000e-01    2.990000e+00
 TP6aq  TN4d  1 3.400000e-01    2.740000e+00
 TP6aq  TN3d  1 3.400000e-01    2.280000e+00
 TP6aq  TN2d  1 3.400000e-01    2.020000e+00
 TP6aq  TN1d  1 3.400000e-01    1.230000e+00
 TP6aq TP5dq  1 3.400000e-01    4.300000e+00
 TP6aq TP4dq  1 3.400000e-01    4.300000e+00
 TP6aq TP3dq  1 3.400000e-01    4.020000e+00
 TP6aq TP2dq  1 3.400000e-01    4.020000e+00
 TP6aq TP1dq  1 3.400000e-01    3.750000e+00
 TP6aq TN6dq  1 3.400000e-01    3.470000e+00
 TP6aq TN5dq  1 3.400000e-01    2.990000e+00
 TP6aq TN4dq  1 3.400000e-01    2.740000e+00
 TP6aq TN3dq  1 3.400000e-01    2.280000e+00
 TP6aq TN2dq  1 3.400000e-01    2.020000e+00
 TP6aq TN1dq  1 3.400000e-01    1.230000e+00
 TP5aq TP4dq  1 3.400000e-01    4.020000e+00
 TP5aq TP3dq  1 3.400000e-01    3.750000e+00
 TP5aq TP2dq  1 3.400000e-01    3.750000e+00
 TP5aq TP1dq  1 3.400000e-01    3.470000e+00
 TP5aq TN6dq  1 3.400000e-01    3.220000e+00
 TP5aq TN5dq  1 3.400000e-01    2.990000e+00
 TP5aq TN4dq  1 3.400000e-01    2.990000e+00
 TP5aq TN3dq  1 3.400000e-01    2.280000e+00
 TP5aq TN2dq  1 3.400000e-01    2.020000e+00
 TP5aq TN1dq  1 3.400000e-01    1.230000e+00
 TP4aq TP3dq  1 3.400000e-01    3.750000e+00
 TP4aq TP2dq  1 3.400000e-01    3.750000e+00
 TP4aq TP1dq  1 3.400000e-01    3.470000e+00
 TP4aq TN6dq  1 3.400000e-01    3.220000e+00
 TP4aq TN5dq  1 3.400000e-01    2.990000e+00
 TP4aq TN4dq  1 3.400000e-01    2.990000e+00
 TP4aq TN3dq  1 3.400000e-01    2.740000e+00
 TP4aq TN2dq  1 3.400000e-01    2.280000e+00
 TP4aq TN1dq  1 3.400000e-01    2.020000e+00
 TP3aq TP2dq  1 3.400000e-01    3.750000e+00
 TP3aq TP1dq  1 3.400000e-01    3.470000e+00
 TP3aq TN6dq  1 3.400000e-01    3.220000e+00
 TP3aq TN5dq  1 3.400000e-01    2.990000e+00
 TP3aq TN4dq  1 3.400000e-01    2.990000e+00
 TP3aq TN3dq  1 3.400000e-01    2.740000e+00
 TP3aq TN2dq  1 3.400000e-01    2.740000e+00
 TP3aq TN1dq  1 3.400000e-01    2.280000e+00
 TP2aq TP1dq  1 3.400000e-01    3.470000e+00
 TP2aq TN6dq  1 3.400000e-01    3.470000e+00
 TP2aq TN5dq  1 3.400000e-01    3.220000e+00
 TP2aq TN4dq  1 3.400000e-01    2.990000e+00
 TP2aq TN3dq  1 3.400000e-01    2.740000e+00
 TP2aq TN2dq  1 3.400000e-01    2.740000e+00
 TP2aq TN1dq  1 3.400000e-01    2.740000e+00
 TP1aq TN6dq  1 3.400000e-01    3.470000e+00
 TP1aq TN5dq  1 3.400000e-01    3.220000e+00
 TP1aq TN4dq  1 3.400000e-01    3.220000e+00
 TP1aq TN3dq  1 3.400000e-01    2.740000e+00
 TP1aq TN2dq  1 3.400000e-01    2.740000e+00
 TP1aq TN1dq  1 3.400000e-01    2.740000e+00
 TN6aq TN5dq  1 3.400000e-01    3.470000e+00
 TN6aq TN4dq  1 3.400000e-01    3.470000e+00
 TN6aq TN3dq  1 3.400000e-01    2.990000e+00
 TN6aq TN2dq  1 3.400000e-01    2.740000e+00
 TN6aq TN1dq  1 3.400000e-01    2.740000e+00
 TN5aq TN4dq  1 3.400000e-01    3.220000e+00
 TN5aq TN3dq  1 3.400000e-01    2.990000e+00
 TN5aq TN2dq  1 3.400000e-01    2.990000e+00
 TN5aq TN1dq  1 3.400000e-01    2.740000e+00
 TN4aq TN3dq  1 3.400000e-01    2.990000e+00
 TN4aq TN2dq  1 3.400000e-01    2.990000e+00
 TN4aq TN1dq  1 3.400000e-01    2.740000e+00
 TN3aq TN2dq  1 3.400000e-01    2.990000e+00
 TN3aq TN1dq  1 3.400000e-01    2.740000e+00
 TN2aq TN1dq  1 3.400000e-01    2.740000e+00
 TP6aq TP5dh  1 3.400000e-01    4.300000e+00
 TP5aq TP4dh  1 3.400000e-01    4.020000e+00
 TP6aq TP4dh  1 3.400000e-01    4.300000e+00
 TP4aq TP3dh  1 3.400000e-01    3.750000e+00
 TP5aq TP3dh  1 3.400000e-01    3.750000e+00
 TP6aq TP3dh  1 3.400000e-01    4.020000e+00
 TP3aq TP2dh  1 3.400000e-01    3.750000e+00
 TP4aq TP2dh  1 3.400000e-01    3.750000e+00
 TP5aq TP2dh  1 3.400000e-01    3.750000e+00
 TP6aq TP2dh  1 3.400000e-01    4.020000e+00
 TP2aq TP1dh  1 3.400000e-01    3.470000e+00
 TP3aq TP1dh  1 3.400000e-01    3.470000e+00
 TP4aq TP1dh  1 3.400000e-01    3.470000e+00
 TP5aq TP1dh  1 3.400000e-01    3.470000e+00
 TP6aq TP1dh  1 3.400000e-01    3.750000e+00
 TP1aq TN6dh  1 3.400000e-01    3.470000e+00
 TP2aq TN6dh  1 3.400000e-01    3.470000e+00
 TP3aq TN6dh  1 3.400000e-01    3.220000e+00
 TP4aq TN6dh  1 3.400000e-01    3.220000e+00
 TP5aq TN6dh  1 3.400000e-01    3.220000e+00
 TP6aq TN6dh  1 3.400000e-01    3.470000e+00
 TN6aq TN5dh  1 3.400000e-01    3.470000e+00
 TP1aq TN5dh  1 3.400000e-01    3.220000e+00
 TP2aq TN5dh  1 3.400000e-01    3.220000e+00
 TP3aq TN5dh  1 3.400000e-01    2.990000e+00
 TP4aq TN5dh  1 3.400000e-01    2.990000e+00
 TP5aq TN5dh  1 3.400000e-01    2.990000e+00
 TP6aq TN5dh  1 3.400000e-01    2.990000e+00
 TN5aq TN4dh  1 3.400000e-01    3.220000e+00
 TN6aq TN4dh  1 3.400000e-01    3.470000e+00
 TP1aq TN4dh  1 3.400000e-01    3.220000e+00
 TP2aq TN4dh  1 3.400000e-01    2.990000e+00
 TP3aq TN4dh  1 3.400000e-01    2.990000e+00
 TP4aq TN4dh  1 3.400000e-01    2.990000e+00
 TP5aq TN4dh  1 3.400000e-01    2.990000e+00
 TP6aq TN4dh  1 3.400000e-01    2.740000e+00
 TN4aq TN3dh  1 3.400000e-01    2.990000e+00
 TN5aq TN3dh  1 3.400000e-01    2.990000e+00
 TN6aq TN3dh  1 3.400000e-01    2.990000e+00
 TP1aq TN3dh  1 3.400000e-01    2.740000e+00
 TP2aq TN3dh  1 3.400000e-01    2.740000e+00
 TP3aq TN3dh  1 3.400000e-01    2.740000e+00
 TP4aq TN3dh  1 3.400000e-01    2.740000e+00
 TP5aq TN3dh  1 3.400000e-01    2.280000e+00
 TP6aq TN3dh  1 3.400000e-01    2.280000e+00
 TN3aq TN2dh  1 3.400000e-01    2.990000e+00
 TN4aq TN2dh  1 3.400000e-01    2.990000e+00
 TN5aq TN2dh  1 3.400000e-01    2.990000e+00
 TN6aq TN2dh  1 3.400000e-01    2.740000e+00
 TP1aq TN2dh  1 3.400000e-01    2.740000e+00
 TP2aq TN2dh  1 3.400000e-01    2.740000e+00
 TP3aq TN2dh  1 3.400000e-01    2.740000e+00
 TP4aq TN2dh  1 3.400000e-01    2.280000e+00
 TP5aq TN2dh  1 3.400000e-01    2.020000e+00
 TP6aq TN2dh  1 3.400000e-01    2.020000e+00
 TN2aq TN1dh  1 3.400000e-01    2.740000e+00
 TN3aq TN1dh  1 3.400000e-01    2.740000e+00
 TN4aq TN1dh  1 3.400000e-01    2.740000e+00
 TN5aq TN1dh  1 3.400000e-01    2.740000e+00
 TN6aq TN1dh  1 3.400000e-01    2.740000e+00
 TP1aq TN1dh  1 3.400000e-01    2.740000e+00
 TP2aq TN1dh  1 3.400000e-01    2.740000e+00
 TP3aq TN1dh  1 3.400000e-01    2.280000e+00
 TP4aq TN1dh  1 3.400000e-01    2.020000e+00
 TP5aq TN1dh  1 3.400000e-01    1.230000e+00
 TP6aq TN1dh  1 3.400000e-01    1.230000e+00
 TP6aq TP5dr  1 3.400000e-01    4.300000e+00
 TP5aq TP4dr  1 3.400000e-01    4.020000e+00
 TP6aq TP4dr  1 3.400000e-01    4.300000e+00
 TP4aq TP3dr  1 3.400000e-01    3.750000e+00
 TP5aq TP3dr  1 3.400000e-01    3.750000e+00
 TP6aq TP3dr  1 3.400000e-01    4.020000e+00
 TP3aq TP2dr  1 3.400000e-01    3.750000e+00
 TP4aq TP2dr  1 3.400000e-01    3.750000e+00
 TP5aq TP2dr  1 3.400000e-01    3.750000e+00
 TP6aq TP2dr  1 3.400000e-01    4.020000e+00
 TP2aq TP1dr  1 3.400000e-01    3.470000e+00
 TP3aq TP1dr  1 3.400000e-01    3.470000e+00
 TP4aq TP1dr  1 3.400000e-01    3.470000e+00
 TP5aq TP1dr  1 3.400000e-01    3.470000e+00
 TP6aq TP1dr  1 3.400000e-01    3.750000e+00
 TP1aq TN6dr  1 3.400000e-01    3.470000e+00
 TP2aq TN6dr  1 3.400000e-01    3.470000e+00
 TP3aq TN6dr  1 3.400000e-01    3.220000e+00
 TP4aq TN6dr  1 3.400000e-01    3.220000e+00
 TP5aq TN6dr  1 3.400000e-01    3.220000e+00
 TP6aq TN6dr  1 3.400000e-01    3.470000e+00
 TN6aq TN5dr  1 3.400000e-01    3.470000e+00
 TP1aq TN5dr  1 3.400000e-01    3.220000e+00
 TP2aq TN5dr  1 3.400000e-01    3.220000e+00
 TP3aq TN5dr  1 3.400000e-01    2.990000e+00
 TP4aq TN5dr  1 3.400000e-01    2.990000e+00
 TP5aq TN5dr  1 3.400000e-01    2.990000e+00
 TP6aq TN5dr  1 3.400000e-01    2.990000e+00
 TN5aq TN4dr  1 3.400000e-01    3.220000e+00
 TN6aq TN4dr  1 3.400000e-01    3.470000e+00
 TP1aq TN4dr  1 3.400000e-01    3.220000e+00
 TP2aq TN4dr  1 3.400000e-01    2.990000e+00
 TP3aq TN4dr  1 3.400000e-01    2.990000e+00
 TP4aq TN4dr  1 3.400000e-01    2.990000e+00
 TP5aq TN4dr  1 3.400000e-01    2.990000e+00
 TP6aq TN4dr  1 3.400000e-01    2.740000e+00
 TN4aq TN3dr  1 3.400000e-01    2.990000e+00
 TN5aq TN3dr  1 3.400000e-01    2.990000e+00
 TN6aq TN3dr  1 3.400000e-01    2.990000e+00
 TP1aq TN3dr  1 3.400000e-01    2.740000e+00
 TP2aq TN3dr  1 3.400000e-01    2.740000e+00
 TP3aq TN3dr  1 3.400000e-01    2.740000e+00
 TP4aq TN3dr  1 3.400000e-01    2.740000e+00
 TP5aq TN3dr  1 3.400000e-01    2.280000e+00
 TP6aq TN3dr  1 3.400000e-01    2.280000e+00
 TN3aq TN2dr  1 3.400000e-01    2.990000e+00
 TN4aq TN2dr  1 3.400000e-01    2.990000e+00
 TN5aq TN2dr  1 3.400000e-01    2.990000e+00
 TN6aq TN2dr  1 3.400000e-01    2.740000e+00
 TP1aq TN2dr  1 3.400000e-01    2.740000e+00
 TP2aq TN2dr  1 3.400000e-01    2.740000e+00
 TP3aq TN2dr  1 3.400000e-01    2.740000e+00
 TP4aq TN2dr  1 3.400000e-01    2.280000e+00
 TP5aq TN2dr  1 3.400000e-01    2.020000e+00
 TP6aq TN2dr  1 3.400000e-01    2.020000e+00
 TN2aq TN1dr  1 3.400000e-01    2.740000e+00
 TN3aq TN1dr  1 3.400000e-01    2.740000e+00
 TN4aq TN1dr  1 3.400000e-01    2.740000e+00
 TN5aq TN1dr  1 3.400000e-01    2.740000e+00
 TN6aq TN1dr  1 3.400000e-01    2.740000e+00
 TP1aq TN1dr  1 3.400000e-01    2.740000e+00
 TP2aq TN1dr  1 3.400000e-01    2.740000e+00
 TP3aq TN1dr  1 3.400000e-01    2.280000e+00
 TP4aq TN1dr  1 3.400000e-01    2.020000e+00
 TP5aq TN1dr  1 3.400000e-01    1.230000e+00
 TP6aq TN1dr  1 3.400000e-01    1.230000e+00
 TN2ah  TN1d  1 3.400000e-01    2.280000e+00
 TN3ah  TN2d  1 3.400000e-01    2.500000e+00
 TN3ah  TN1d  1 3.400000e-01    2.280000e+00
 TN4ah  TN3d  1 3.400000e-01    2.500000e+00
 TN4ah  TN2d  1 3.400000e-01    2.500000e+00
 TN4ah  TN1d  1 3.400000e-01    2.280000e+00
 TN5ah  TN4d  1 3.400000e-01    2.740000e+00
 TN5ah  TN3d  1 3.400000e-01    2.500000e+00
 TN5ah  TN2d  1 3.400000e-01    2.500000e+00
 TN5ah  TN1d  1 3.400000e-01    2.280000e+00
 TN6ah  TN5d  1 3.400000e-01    2.990000e+00
 TN6ah  TN4d  1 3.400000e-01    2.990000e+00
 TN6ah  TN3d  1 3.400000e-01    2.500000e+00
 TN6ah  TN2d  1 3.400000e-01    2.280000e+00
 TN6ah  TN1d  1 3.400000e-01    2.280000e+00
 TP1ah  TN6d  1 3.400000e-01    2.990000e+00
 TP1ah  TN5d  1 3.400000e-01    2.740000e+00
 TP1ah  TN4d  1 3.400000e-01    2.740000e+00
 TP1ah  TN3d  1 3.400000e-01    2.280000e+00
 TP1ah  TN2d  1 3.400000e-01    2.280000e+00
 TP1ah  TN1d  1 3.400000e-01    2.280000e+00
 TP2ah  TP1d  1 3.400000e-01    2.990000e+00
 TP2ah  TN6d  1 3.400000e-01    2.990000e+00
 TP2ah  TN5d  1 3.400000e-01    2.740000e+00
 TP2ah  TN4d  1 3.400000e-01    2.500000e+00
 TP2ah  TN3d  1 3.400000e-01    2.280000e+00
 TP2ah  TN2d  1 3.400000e-01    2.280000e+00
 TP2ah  TN1d  1 3.400000e-01    2.280000e+00
 TP3ah  TP2d  1 3.400000e-01    3.220000e+00
 TP3ah  TP1d  1 3.400000e-01    2.990000e+00
 TP3ah  TN6d  1 3.400000e-01    2.740000e+00
 TP3ah  TN5d  1 3.400000e-01    2.500000e+00
 TP3ah  TN4d  1 3.400000e-01    2.500000e+00
 TP3ah  TN3d  1 3.400000e-01    2.280000e+00
 TP3ah  TN2d  1 3.400000e-01    2.280000e+00
 TP3ah  TN1d  1 3.400000e-01    1.230000e+00
 TP4ah  TP3d  1 3.400000e-01    3.220000e+00
 TP4ah  TP2d  1 3.400000e-01    3.220000e+00
 TP4ah  TP1d  1 3.400000e-01    2.990000e+00
 TP4ah  TN6d  1 3.400000e-01    2.740000e+00
 TP4ah  TN5d  1 3.400000e-01    2.500000e+00
 TP4ah  TN4d  1 3.400000e-01    2.500000e+00
 TP4ah  TN3d  1 3.400000e-01    2.280000e+00
 TP4ah  TN2d  1 3.400000e-01    1.230000e+00
 TP4ah  TN1d  1 3.520000e-01    1.050000e+00
 TP5ah  TP4d  1 3.400000e-01    3.470000e+00
 TP5ah  TP3d  1 3.400000e-01    3.220000e+00
 TP5ah  TP2d  1 3.400000e-01    3.220000e+00
 TP5ah  TP1d  1 3.400000e-01    2.990000e+00
 TP5ah  TN6d  1 3.400000e-01    2.740000e+00
 TP5ah  TN5d  1 3.400000e-01    2.500000e+00
 TP5ah  TN4d  1 3.400000e-01    2.500000e+00
 TP5ah  TN3d  1 3.400000e-01    1.230000e+00
 TP5ah  TN2d  1 3.520000e-01    1.050000e+00
 TP5ah  TN1d  1 3.660000e-01    9.350000e-01
 TP6ah  TP5d  1 3.400000e-01    4.020000e+00
 TP6ah  TP4d  1 3.400000e-01    3.750000e+00
 TP6ah  TP3d  1 3.400000e-01    3.470000e+00
 TP6ah  TP2d  1 3.400000e-01    3.470000e+00
 TP6ah  TP1d  1 3.400000e-01    3.220000e+00
 TP6ah  TN6d  1 3.400000e-01    2.990000e+00
 TP6ah  TN5d  1 3.400000e-01    2.500000e+00
 TP6ah  TN4d  1 3.400000e-01    2.280000e+00
 TP6ah  TN3d  1 3.400000e-01    1.230000e+00
 TP6ah  TN2d  1 3.520000e-01    1.050000e+00
 TP6ah  TN1d  1 3.660000e-01    9.350000e-01
 TP6ah TP5dq  1 3.400000e-01    4.300000e+00
 TP6ah TP4dq  1 3.400000e-01    4.300000e+00
 TP6ah TP3dq  1 3.400000e-01    4.020000e+00
 TP6ah TP2dq  1 3.400000e-01    4.020000e+00
 TP6ah TP1dq  1 3.400000e-01    3.750000e+00
 TP6ah TN6dq  1 3.400000e-01    3.470000e+00
 TP6ah TN5dq  1 3.400000e-01    2.990000e+00
 TP6ah TN4dq  1 3.400000e-01    2.740000e+00
 TP6ah TN3dq  1 3.400000e-01    2.280000e+00
 TP6ah TN2dq  1 3.400000e-01    2.020000e+00
 TP6ah TN1dq  1 3.400000e-01    1.230000e+00
 TP5ah TP4dq  1 3.400000e-01    4.020000e+00
 TP5ah TP3dq  1 3.400000e-01    3.750000e+00
 TP5ah TP2dq  1 3.400000e-01    3.750000e+00
 TP5ah TP1dq  1 3.400000e-01    3.470000e+00
 TP5ah TN6dq  1 3.400000e-01    3.220000e+00
 TP5ah TN5dq  1 3.400000e-01    2.990000e+00
 TP5ah TN4dq  1 3.400000e-01    2.990000e+00
 TP5ah TN3dq  1 3.400000e-01    2.280000e+00
 TP5ah TN2dq  1 3.400000e-01    2.020000e+00
 TP5ah TN1dq  1 3.400000e-01    1.230000e+00
 TP4ah TP3dq  1 3.400000e-01    3.750000e+00
 TP4ah TP2dq  1 3.400000e-01    3.750000e+00
 TP4ah TP1dq  1 3.400000e-01    3.470000e+00
 TP4ah TN6dq  1 3.400000e-01    3.220000e+00
 TP4ah TN5dq  1 3.400000e-01    2.990000e+00
 TP4ah TN4dq  1 3.400000e-01    2.990000e+00
 TP4ah TN3dq  1 3.400000e-01    2.740000e+00
 TP4ah TN2dq  1 3.400000e-01    2.280000e+00
 TP4ah TN1dq  1 3.400000e-01    2.020000e+00
 TP3ah TP2dq  1 3.400000e-01    3.750000e+00
 TP3ah TP1dq  1 3.400000e-01    3.470000e+00
 TP3ah TN6dq  1 3.400000e-01    3.220000e+00
 TP3ah TN5dq  1 3.400000e-01    2.990000e+00
 TP3ah TN4dq  1 3.400000e-01    2.990000e+00
 TP3ah TN3dq  1 3.400000e-01    2.740000e+00
 TP3ah TN2dq  1 3.400000e-01    2.740000e+00
 TP3ah TN1dq  1 3.400000e-01    2.280000e+00
 TP2ah TP1dq  1 3.400000e-01    3.470000e+00
 TP2ah TN6dq  1 3.400000e-01    3.470000e+00
 TP2ah TN5dq  1 3.400000e-01    3.220000e+00
 TP2ah TN4dq  1 3.400000e-01    2.990000e+00
 TP2ah TN3dq  1 3.400000e-01    2.740000e+00
 TP2ah TN2dq  1 3.400000e-01    2.740000e+00
 TP2ah TN1dq  1 3.400000e-01    2.740000e+00
 TP1ah TN6dq  1 3.400000e-01    3.470000e+00
 TP1ah TN5dq  1 3.400000e-01    3.220000e+00
 TP1ah TN4dq  1 3.400000e-01    3.220000e+00
 TP1ah TN3dq  1 3.400000e-01    2.740000e+00
 TP1ah TN2dq  1 3.400000e-01    2.740000e+00
 TP1ah TN1dq  1 3.400000e-01    2.740000e+00
 TN6ah TN5dq  1 3.400000e-01    3.470000e+00
 TN6ah TN4dq  1 3.400000e-01    3.470000e+00
 TN6ah TN3dq  1 3.400000e-01    2.990000e+00
 TN6ah TN2dq  1 3.400000e-01    2.740000e+00
 TN6ah TN1dq  1 3.400000e-01    2.740000e+00
 TN5ah TN4dq  1 3.400000e-01    3.220000e+00
 TN5ah TN3dq  1 3.400000e-01    2.990000e+00
 TN5ah TN2dq  1 3.400000e-01    2.990000e+00
 TN5ah TN1dq  1 3.400000e-01    2.740000e+00
 TN4ah TN3dq  1 3.400000e-01    2.990000e+00
 TN4ah TN2dq  1 3.400000e-01    2.990000e+00
 TN4ah TN1dq  1 3.400000e-01    2.740000e+00
 TN3ah TN2dq  1 3.400000e-01    2.990000e+00
 TN3ah TN1dq  1 3.400000e-01    2.740000e+00
 TN2ah TN1dq  1 3.400000e-01    2.740000e+00
 TP6ah TP5dh  1 3.400000e-01    4.300000e+00
 TP6ah TP4dh  1 3.400000e-01    4.020000e+00
 TP6ah TP3dh  1 3.400000e-01    3.750000e+00
 TP6ah TP2dh  1 3.400000e-01    3.750000e+00
 TP6ah TP1dh  1 3.400000e-01    3.470000e+00
 TP6ah TN6dh  1 3.400000e-01    3.220000e+00
 TP6ah TN5dh  1 3.400000e-01    2.740000e+00
 TP6ah TN4dh  1 3.400000e-01    2.500000e+00
 TP6ah TN3dh  1 3.400000e-01    2.020000e+00
 TP6ah TN2dh  1 3.400000e-01    1.230000e+00
 TP6ah TN1dh  1 3.520000e-01    1.050000e+00
 TP5ah TP4dh  1 3.400000e-01    3.750000e+00
 TP5ah TP3dh  1 3.400000e-01    3.470000e+00
 TP5ah TP2dh  1 3.400000e-01    3.470000e+00
 TP5ah TP1dh  1 3.400000e-01    3.220000e+00
 TP5ah TN6dh  1 3.400000e-01    2.990000e+00
 TP5ah TN5dh  1 3.400000e-01    2.740000e+00
 TP5ah TN4dh  1 3.400000e-01    2.740000e+00
 TP5ah TN3dh  1 3.400000e-01    2.020000e+00
 TP5ah TN2dh  1 3.400000e-01    1.230000e+00
 TP5ah TN1dh  1 3.520000e-01    1.050000e+00
 TP4ah TP3dh  1 3.400000e-01    3.470000e+00
 TP4ah TP2dh  1 3.400000e-01    3.470000e+00
 TP4ah TP1dh  1 3.400000e-01    3.220000e+00
 TP4ah TN6dh  1 3.400000e-01    2.990000e+00
 TP4ah TN5dh  1 3.400000e-01    2.740000e+00
 TP4ah TN4dh  1 3.400000e-01    2.740000e+00
 TP4ah TN3dh  1 3.400000e-01    2.500000e+00
 TP4ah TN2dh  1 3.400000e-01    2.020000e+00
 TP4ah TN1dh  1 3.400000e-01    1.230000e+00
 TP3ah TP2dh  1 3.400000e-01    3.470000e+00
 TP3ah TP1dh  1 3.400000e-01    3.220000e+00
 TP3ah TN6dh  1 3.400000e-01    2.990000e+00
 TP3ah TN5dh  1 3.400000e-01    2.740000e+00
 TP3ah TN4dh  1 3.400000e-01    2.740000e+00
 TP3ah TN3dh  1 3.400000e-01    2.500000e+00
 TP3ah TN2dh  1 3.400000e-01    2.500000e+00
 TP3ah TN1dh  1 3.400000e-01    2.020000e+00
 TP2ah TP1dh  1 3.400000e-01    3.220000e+00
 TP2ah TN6dh  1 3.400000e-01    3.220000e+00
 TP2ah TN5dh  1 3.400000e-01    2.990000e+00
 TP2ah TN4dh  1 3.400000e-01    2.740000e+00
 TP2ah TN3dh  1 3.400000e-01    2.500000e+00
 TP2ah TN2dh  1 3.400000e-01    2.500000e+00
 TP2ah TN1dh  1 3.400000e-01    2.500000e+00
 TP1ah TN6dh  1 3.400000e-01    3.220000e+00
 TP1ah TN5dh  1 3.400000e-01    2.990000e+00
 TP1ah TN4dh  1 3.400000e-01    2.990000e+00
 TP1ah TN3dh  1 3.400000e-01    2.500000e+00
 TP1ah TN2dh  1 3.400000e-01    2.500000e+00
 TP1ah TN1dh  1 3.400000e-01    2.500000e+00
 TN6ah TN5dh  1 3.400000e-01    3.220000e+00
 TN6ah TN4dh  1 3.400000e-01    3.220000e+00
 TN6ah TN3dh  1 3.400000e-01    2.740000e+00
 TN6ah TN2dh  1 3.400000e-01    2.500000e+00
 TN6ah TN1dh  1 3.400000e-01    2.500000e+00
 TN5ah TN4dh  1 3.400000e-01    2.990000e+00
 TN5ah TN3dh  1 3.400000e-01    2.740000e+00
 TN5ah TN2dh  1 3.400000e-01    2.740000e+00
 TN5ah TN1dh  1 3.400000e-01    2.500000e+00
 TN4ah TN3dh  1 3.400000e-01    2.740000e+00
 TN4ah TN2dh  1 3.400000e-01    2.740000e+00
 TN4ah TN1dh  1 3.400000e-01    2.500000e+00
 TN3ah TN2dh  1 3.400000e-01    2.740000e+00
 TN3ah TN1dh  1 3.400000e-01    2.500000e+00
 TN2ah TN1dh  1 3.400000e-01    2.500000e+00
 TP6ah TP5dr  1 3.400000e-01    4.020000e+00
 TP6ah TP4dr  1 3.400000e-01    3.750000e+00
 TP6ah TP3dr  1 3.400000e-01    3.470000e+00
 TP6ah TP2dr  1 3.400000e-01    3.470000e+00
 TP6ah TP1dr  1 3.400000e-01    3.220000e+00
 TP6ah TN6dr  1 3.400000e-01    2.990000e+00
 TP6ah TN5dr  1 3.400000e-01    2.500000e+00
 TP6ah TN4dr  1 3.400000e-01    2.280000e+00
 TP6ah TN3dr  1 3.400000e-01    1.230000e+00
 TP6ah TN2dr  1 3.520000e-01    1.050000e+00
 TP6ah TN1dr  1 3.660000e-01    9.350000e-01
 TP5ah TP4dr  1 3.400000e-01    3.470000e+00
 TP5ah TP3dr  1 3.400000e-01    3.220000e+00
 TP5ah TP2dr  1 3.400000e-01    3.220000e+00
 TP5ah TP1dr  1 3.400000e-01    2.990000e+00
 TP5ah TN6dr  1 3.400000e-01    2.740000e+00
 TP5ah TN5dr  1 3.400000e-01    2.500000e+00
 TP5ah TN4dr  1 3.400000e-01    2.500000e+00
 TP5ah TN3dr  1 3.400000e-01    1.230000e+00
 TP5ah TN2dr  1 3.520000e-01    1.050000e+00
 TP5ah TN1dr  1 3.660000e-01    9.350000e-01
 TP4ah TP3dr  1 3.400000e-01    3.220000e+00
 TP4ah TP2dr  1 3.400000e-01    3.220000e+00
 TP4ah TP1dr  1 3.400000e-01    2.990000e+00
 TP4ah TN6dr  1 3.400000e-01    2.740000e+00
 TP4ah TN5dr  1 3.400000e-01    2.500000e+00
 TP4ah TN4dr  1 3.400000e-01    2.500000e+00
 TP4ah TN3dr  1 3.400000e-01    2.280000e+00
 TP4ah TN2dr  1 3.400000e-01    1.230000e+00
 TP4ah TN1dr  1 3.520000e-01    1.050000e+00
 TP3ah TP2dr  1 3.400000e-01    3.220000e+00
 TP3ah TP1dr  1 3.400000e-01    2.990000e+00
 TP3ah TN6dr  1 3.400000e-01    2.740000e+00
 TP3ah TN5dr  1 3.400000e-01    2.500000e+00
 TP3ah TN4dr  1 3.400000e-01    2.500000e+00
 TP3ah TN3dr  1 3.400000e-01    2.280000e+00
 TP3ah TN2dr  1 3.400000e-01    2.280000e+00
 TP3ah TN1dr  1 3.400000e-01    1.230000e+00
 TP2ah TP1dr  1 3.400000e-01    2.990000e+00
 TP2ah TN6dr  1 3.400000e-01    2.990000e+00
 TP2ah TN5dr  1 3.400000e-01    2.740000e+00
 TP2ah TN4dr  1 3.400000e-01    2.500000e+00
 TP2ah TN3dr  1 3.400000e-01    2.280000e+00
 TP2ah TN2dr  1 3.400000e-01    2.280000e+00
 TP2ah TN1dr  1 3.400000e-01    2.280000e+00
 TP1ah TN6dr  1 3.400000e-01    2.990000e+00
 TP1ah TN5dr  1 3.400000e-01    2.740000e+00
 TP1ah TN4dr  1 3.400000e-01    2.740000e+00
 TP1ah TN3dr  1 3.400000e-01    2.280000e+00
 TP1ah TN2dr  1 3.400000e-01    2.280000e+00
 TP1ah TN1dr  1 3.400000e-01    2.280000e+00
 TN6ah TN5dr  1 3.400000e-01    2.990000e+00
 TN6ah TN4dr  1 3.400000e-01    2.990000e+00
 TN6ah TN3dr  1 3.400000e-01    2.500000e+00
 TN6ah TN2dr  1 3.400000e-01    2.280000e+00
 TN6ah TN1dr  1 3.400000e-01    2.280000e+00
 TN5ah TN4dr  1 3.400000e-01    2.740000e+00
 TN5ah TN3dr  1 3.400000e-01    2.500000e+00
 TN5ah TN2dr  1 3.400000e-01    2.500000e+00
 TN5ah TN1dr  1 3.400000e-01    2.280000e+00
 TN4ah TN3dr  1 3.400000e-01    2.500000e+00
 TN4ah TN2dr  1 3.400000e-01    2.500000e+00
 TN4ah TN1dr  1 3.400000e-01    2.280000e+00
 TN3ah TN2dr  1 3.400000e-01    2.500000e+00
 TN3ah TN1dr  1 3.400000e-01    2.280000e+00
 TN2ah TN1dr  1 3.400000e-01    2.280000e+00
 TN2ar  TN1d  1 3.400000e-01    2.280000e+00
 TN3ar  TN2d  1 3.400000e-01    2.500000e+00
 TN3ar  TN1d  1 3.400000e-01    2.280000e+00
 TN4ar  TN3d  1 3.400000e-01    2.500000e+00
 TN4ar  TN2d  1 3.400000e-01    2.500000e+00
 TN4ar  TN1d  1 3.400000e-01    2.280000e+00
 TN5ar  TN4d  1 3.400000e-01    2.740000e+00
 TN5ar  TN3d  1 3.400000e-01    2.500000e+00
 TN5ar  TN2d  1 3.400000e-01    2.500000e+00
 TN5ar  TN1d  1 3.400000e-01    2.280000e+00
 TN6ar  TN5d  1 3.400000e-01    2.990000e+00
 TN6ar  TN4d  1 3.400000e-01    2.990000e+00
 TN6ar  TN3d  1 3.400000e-01    2.500000e+00
 TN6ar  TN2d  1 3.400000e-01    2.280000e+00
 TN6ar  TN1d  1 3.400000e-01    2.280000e+00
 TP1ar  TN6d  1 3.400000e-01    2.990000e+00
 TP1ar  TN5d  1 3.400000e-01    2.740000e+00
 TP1ar  TN4d  1 3.400000e-01    2.740000e+00
 TP1ar  TN3d  1 3.400000e-01    2.280000e+00
 TP1ar  TN2d  1 3.400000e-01    2.280000e+00
 TP1ar  TN1d  1 3.400000e-01    2.280000e+00
 TP2ar  TP1d  1 3.400000e-01    2.990000e+00
 TP2ar  TN6d  1 3.400000e-01    2.990000e+00
 TP2ar  TN5d  1 3.400000e-01    2.740000e+00
 TP2ar  TN4d  1 3.400000e-01    2.500000e+00
 TP2ar  TN3d  1 3.400000e-01    2.280000e+00
 TP2ar  TN2d  1 3.400000e-01    2.280000e+00
 TP2ar  TN1d  1 3.400000e-01    2.280000e+00
 TP3ar  TP2d  1 3.400000e-01    3.220000e+00
 TP3ar  TP1d  1 3.400000e-01    2.990000e+00
 TP3ar  TN6d  1 3.400000e-01    2.740000e+00
 TP3ar  TN5d  1 3.400000e-01    2.500000e+00
 TP3ar  TN4d  1 3.400000e-01    2.500000e+00
 TP3ar  TN3d  1 3.400000e-01    2.280000e+00
 TP3ar  TN2d  1 3.400000e-01    2.280000e+00
 TP3ar  TN1d  1 3.400000e-01    1.230000e+00
 TP4ar  TP3d  1 3.400000e-01    3.220000e+00
 TP4ar  TP2d  1 3.400000e-01    3.220000e+00
 TP4ar  TP1d  1 3.400000e-01    2.990000e+00
 TP4ar  TN6d  1 3.400000e-01    2.740000e+00
 TP4ar  TN5d  1 3.400000e-01    2.500000e+00
 TP4ar  TN4d  1 3.400000e-01    2.500000e+00
 TP4ar  TN3d  1 3.400000e-01    2.280000e+00
 TP4ar  TN2d  1 3.400000e-01    1.230000e+00
 TP4ar  TN1d  1 3.520000e-01    1.050000e+00
 TP5ar  TP4d  1 3.400000e-01    3.470000e+00
 TP5ar  TP3d  1 3.400000e-01    3.220000e+00
 TP5ar  TP2d  1 3.400000e-01    3.220000e+00
 TP5ar  TP1d  1 3.400000e-01    2.990000e+00
 TP5ar  TN6d  1 3.400000e-01    2.740000e+00
 TP5ar  TN5d  1 3.400000e-01    2.500000e+00
 TP5ar  TN4d  1 3.400000e-01    2.500000e+00
 TP5ar  TN3d  1 3.400000e-01    1.230000e+00
 TP5ar  TN2d  1 3.520000e-01    1.050000e+00
 TP5ar  TN1d  1 3.660000e-01    9.350000e-01
 TP6ar  TP5d  1 3.400000e-01    4.020000e+00
 TP6ar  TP4d  1 3.400000e-01    3.750000e+00
 TP6ar  TP3d  1 3.400000e-01    3.470000e+00
 TP6ar  TP2d  1 3.400000e-01    3.470000e+00
 TP6ar  TP1d  1 3.400000e-01    3.220000e+00
 TP6ar  TN6d  1 3.400000e-01    2.990000e+00
 TP6ar  TN5d  1 3.400000e-01    2.500000e+00
 TP6ar  TN4d  1 3.400000e-01    2.280000e+00
 TP6ar  TN3d  1 3.400000e-01    1.230000e+00
 TP6ar  TN2d  1 3.520000e-01    1.050000e+00
 TP6ar  TN1d  1 3.660000e-01    9.350000e-01
 TP6ar TP5dq  1 3.400000e-01    4.300000e+00
 TP6ar TP4dq  1 3.400000e-01    4.300000e+00
 TP6ar TP3dq  1 3.400000e-01    4.020000e+00
 TP6ar TP2dq  1 3.400000e-01    4.020000e+00
 TP6ar TP1dq  1 3.400000e-01    3.750000e+00
 TP6ar TN6dq  1 3.400000e-01    3.470000e+00
 TP6ar TN5dq  1 3.400000e-01    2.990000e+00
 TP6ar TN4dq  1 3.400000e-01    2.740000e+00
 TP6ar TN3dq  1 3.400000e-01    2.280000e+00
 TP6ar TN2dq  1 3.400000e-01    2.020000e+00
 TP6ar TN1dq  1 3.400000e-01    1.230000e+00
 TP5ar TP4dq  1 3.400000e-01    4.020000e+00
 TP5ar TP3dq  1 3.400000e-01    3.750000e+00
 TP5ar TP2dq  1 3.400000e-01    3.750000e+00
 TP5ar TP1dq  1 3.400000e-01    3.470000e+00
 TP5ar TN6dq  1 3.400000e-01    3.220000e+00
 TP5ar TN5dq  1 3.400000e-01    2.990000e+00
 TP5ar TN4dq  1 3.400000e-01    2.990000e+00
 TP5ar TN3dq  1 3.400000e-01    2.280000e+00
 TP5ar TN2dq  1 3.400000e-01    2.020000e+00
 TP5ar TN1dq  1 3.400000e-01    1.230000e+00
 TP4ar TP3dq  1 3.400000e-01    3.750000e+00
 TP4ar TP2dq  1 3.400000e-01    3.750000e+00
 TP4ar TP1dq  1 3.400000e-01    3.470000e+00
 TP4ar TN6dq  1 3.400000e-01    3.220000e+00
 TP4ar TN5dq  1 3.400000e-01    2.990000e+00
 TP4ar TN4dq  1 3.400000e-01    2.990000e+00
 TP4ar TN3dq  1 3.400000e-01    2.740000e+00
 TP4ar TN2dq  1 3.400000e-01    2.280000e+00
 TP4ar TN1dq  1 3.400000e-01    2.020000e+00
 TP3ar TP2dq  1 3.400000e-01    3.750000e+00
 TP3ar TP1dq  1 3.400000e-01    3.470000e+00
 TP3ar TN6dq  1 3.400000e-01    3.220000e+00
 TP3ar TN5dq  1 3.400000e-01    2.990000e+00
 TP3ar TN4dq  1 3.400000e-01    2.990000e+00
 TP3ar TN3dq  1 3.400000e-01    2.740000e+00
 TP3ar TN2dq  1 3.400000e-01    2.740000e+00
 TP3ar TN1dq  1 3.400000e-01    2.280000e+00
 TP2ar TP1dq  1 3.400000e-01    3.470000e+00
 TP2ar TN6dq  1 3.400000e-01    3.470000e+00
 TP2ar TN5dq  1 3.400000e-01    3.220000e+00
 TP2ar TN4dq  1 3.400000e-01    2.990000e+00
 TP2ar TN3dq  1 3.400000e-01    2.740000e+00
 TP2ar TN2dq  1 3.400000e-01    2.740000e+00
 TP2ar TN1dq  1 3.400000e-01    2.740000e+00
 TP1ar TN6dq  1 3.400000e-01    3.470000e+00
 TP1ar TN5dq  1 3.400000e-01    3.220000e+00
 TP1ar TN4dq  1 3.400000e-01    3.220000e+00
 TP1ar TN3dq  1 3.400000e-01    2.740000e+00
 TP1ar TN2dq  1 3.400000e-01    2.740000e+00
 TP1ar TN1dq  1 3.400000e-01    2.740000e+00
 TN6ar TN5dq  1 3.400000e-01    3.470000e+00
 TN6ar TN4dq  1 3.400000e-01    3.470000e+00
 TN6ar TN3dq  1 3.400000e-01    2.990000e+00
 TN6ar TN2dq  1 3.400000e-01    2.740000e+00
 TN6ar TN1dq  1 3.400000e-01    2.740000e+00
 TN5ar TN4dq  1 3.400000e-01    3.220000e+00
 TN5ar TN3dq  1 3.400000e-01    2.990000e+00
 TN5ar TN2dq  1 3.400000e-01    2.990000e+00
 TN5ar TN1dq  1 3.400000e-01    2.740000e+00
 TN4ar TN3dq  1 3.400000e-01    2.990000e+00
 TN4ar TN2dq  1 3.400000e-01    2.990000e+00
 TN4ar TN1dq  1 3.400000e-01    2.740000e+00
 TN3ar TN2dq  1 3.400000e-01    2.990000e+00
 TN3ar TN1dq  1 3.400000e-01    2.740000e+00
 TN2ar TN1dq  1 3.400000e-01    2.740000e+00
 TP6ar TP5dh  1 3.400000e-01    4.020000e+00
 TP6ar TP4dh  1 3.400000e-01    3.750000e+00
 TP6ar TP3dh  1 3.400000e-01    3.470000e+00
 TP6ar TP2dh  1 3.400000e-01    3.470000e+00
 TP6ar TP1dh  1 3.400000e-01    3.220000e+00
 TP6ar TN6dh  1 3.400000e-01    2.990000e+00
 TP6ar TN5dh  1 3.400000e-01    2.500000e+00
 TP6ar TN4dh  1 3.400000e-01    2.280000e+00
 TP6ar TN3dh  1 3.400000e-01    1.230000e+00
 TP6ar TN2dh  1 3.520000e-01    1.050000e+00
 TP6ar TN1dh  1 3.660000e-01    9.350000e-01
 TP5ar TP4dh  1 3.400000e-01    3.470000e+00
 TP5ar TP3dh  1 3.400000e-01    3.220000e+00
 TP5ar TP2dh  1 3.400000e-01    3.220000e+00
 TP5ar TP1dh  1 3.400000e-01    2.990000e+00
 TP5ar TN6dh  1 3.400000e-01    2.740000e+00
 TP5ar TN5dh  1 3.400000e-01    2.500000e+00
 TP5ar TN4dh  1 3.400000e-01    2.500000e+00
 TP5ar TN3dh  1 3.400000e-01    1.230000e+00
 TP5ar TN2dh  1 3.520000e-01    1.050000e+00
 TP5ar TN1dh  1 3.660000e-01    9.350000e-01
 TP4ar TP3dh  1 3.400000e-01    3.220000e+00
 TP4ar TP2dh  1 3.400000e-01    3.220000e+00
 TP4ar TP1dh  1 3.400000e-01    2.990000e+00
 TP4ar TN6dh  1 3.400000e-01    2.740000e+00
 TP4ar TN5dh  1 3.400000e-01    2.500000e+00
 TP4ar TN4dh  1 3.400000e-01    2.500000e+00
 TP4ar TN3dh  1 3.400000e-01    2.280000e+00
 TP4ar TN2dh  1 3.400000e-01    1.230000e+00
 TP4ar TN1dh  1 3.520000e-01    1.050000e+00
 TP3ar TP2dh  1 3.400000e-01    3.220000e+00
 TP3ar TP1dh  1 3.400000e-01    2.990000e+00
 TP3ar TN6dh  1 3.400000e-01    2.740000e+00
 TP3ar TN5dh  1 3.400000e-01    2.500000e+00
 TP3ar TN4dh  1 3.400000e-01    2.500000e+00
 TP3ar TN3dh  1 3.400000e-01    2.280000e+00
 TP3ar TN2dh  1 3.400000e-01    2.280000e+00
 TP3ar TN1dh  1 3.400000e-01    1.230000e+00
 TP2ar TP1dh  1 3.400000e-01    2.990000e+00
 TP2ar TN6dh  1 3.400000e-01    2.990000e+00
 TP2ar TN5dh  1 3.400000e-01    2.740000e+00
 TP2ar TN4dh  1 3.400000e-01    2.500000e+00
 TP2ar TN3dh  1 3.400000e-01    2.280000e+00
 TP2ar TN2dh  1 3.400000e-01    2.280000e+00
 TP2ar TN1dh  1 3.400000e-01    2.280000e+00
 TP1ar TN6dh  1 3.400000e-01    2.990000e+00
 TP1ar TN5dh  1 3.400000e-01    2.740000e+00
 TP1ar TN4dh  1 3.400000e-01    2.740000e+00
 TP1ar TN3dh  1 3.400000e-01    2.280000e+00
 TP1ar TN2dh  1 3.400000e-01    2.280000e+00
 TP1ar TN1dh  1 3.400000e-01    2.280000e+00
 TN6ar TN5dh  1 3.400000e-01    2.990000e+00
 TN6ar TN4dh  1 3.400000e-01    2.990000e+00
 TN6ar TN3dh  1 3.400000e-01    2.500000e+00
 TN6ar TN2dh  1 3.400000e-01    2.280000e+00
 TN6ar TN1dh  1 3.400000e-01    2.280000e+00
 TN5ar TN4dh  1 3.400000e-01    2.740000e+00
 TN5ar TN3dh  1 3.400000e-01    2.500000e+00
 TN5ar TN2dh  1 3.400000e-01    2.500000e+00
 TN5ar TN1dh  1 3.400000e-01    2.280000e+00
 TN4ar TN3dh  1 3.400000e-01    2.500000e+00
 TN4ar TN2dh  1 3.400000e-01    2.500000e+00
 TN4ar TN1dh  1 3.400000e-01    2.280000e+00
 TN3ar TN2dh  1 3.400000e-01    2.500000e+00
 TN3ar TN1dh  1 3.400000e-01    2.280000e+00
 TN2ar TN1dh  1 3.400000e-01    2.280000e+00
 TP6ar TP5dr  1 3.400000e-01    3.750000e+00
 TP6ar TP4dr  1 3.400000e-01    3.470000e+00
 TP6ar TP3dr  1 3.400000e-01    3.220000e+00
 TP6ar TP2dr  1 3.400000e-01    3.220000e+00
 TP6ar TP1dr  1 3.400000e-01    2.990000e+00
 TP6ar TN6dr  1 3.400000e-01    2.740000e+00
 TP6ar TN5dr  1 3.400000e-01    2.280000e+00
 TP6ar TN4dr  1 3.400000e-01    2.020000e+00
 TP6ar TN3dr  1 3.520000e-01    1.050000e+00
 TP6ar TN2dr  1 3.660000e-01    9.350000e-01
 TP6ar TN1dr  1 3.850000e-01    8.550000e-01
 TP5ar TP4dr  1 3.400000e-01    3.220000e+00
 TP5ar TP3dr  1 3.400000e-01    2.990000e+00
 TP5ar TP2dr  1 3.400000e-01    2.990000e+00
 TP5ar TP1dr  1 3.400000e-01    2.740000e+00
 TP5ar TN6dr  1 3.400000e-01    2.500000e+00
 TP5ar TN5dr  1 3.400000e-01    2.280000e+00
 TP5ar TN4dr  1 3.400000e-01    2.280000e+00
 TP5ar TN3dr  1 3.520000e-01    1.050000e+00
 TP5ar TN2dr  1 3.660000e-01    9.350000e-01
 TP5ar TN1dr  1 3.850000e-01    8.550000e-01
 TP4ar TP3dr  1 3.400000e-01    2.990000e+00
 TP4ar TP2dr  1 3.400000e-01    2.990000e+00
 TP4ar TP1dr  1 3.400000e-01    2.740000e+00
 TP4ar TN6dr  1 3.400000e-01    2.500000e+00
 TP4ar TN5dr  1 3.400000e-01    2.280000e+00
 TP4ar TN4dr  1 3.400000e-01    2.280000e+00
 TP4ar TN3dr  1 3.400000e-01    2.020000e+00
 TP4ar TN2dr  1 3.520000e-01    1.050000e+00
 TP4ar TN1dr  1 3.660000e-01    9.350000e-01
 TP3ar TP2dr  1 3.400000e-01    2.990000e+00
 TP3ar TP1dr  1 3.400000e-01    2.740000e+00
 TP3ar TN6dr  1 3.400000e-01    2.500000e+00
 TP3ar TN5dr  1 3.400000e-01    2.280000e+00
 TP3ar TN4dr  1 3.400000e-01    2.280000e+00
 TP3ar TN3dr  1 3.400000e-01    2.020000e+00
 TP3ar TN2dr  1 3.400000e-01    2.020000e+00
 TP3ar TN1dr  1 3.520000e-01    1.050000e+00
 TP2ar TP1dr  1 3.400000e-01    2.740000e+00
 TP2ar TN6dr  1 3.400000e-01    2.740000e+00
 TP2ar TN5dr  1 3.400000e-01    2.500000e+00
 TP2ar TN4dr  1 3.400000e-01    2.280000e+00
 TP2ar TN3dr  1 3.400000e-01    2.020000e+00
 TP2ar TN2dr  1 3.400000e-01    2.020000e+00
 TP2ar TN1dr  1 3.400000e-01    2.020000e+00
 TP1ar TN6dr  1 3.400000e-01    2.740000e+00
 TP1ar TN5dr  1 3.400000e-01    2.500000e+00
 TP1ar TN4dr  1 3.400000e-01    2.500000e+00
 TP1ar TN3dr  1 3.400000e-01    2.020000e+00
 TP1ar TN2dr  1 3.400000e-01    2.020000e+00
 TP1ar TN1dr  1 3.400000e-01    2.020000e+00
 TN6ar TN5dr  1 3.400000e-01    2.740000e+00
 TN6ar TN4dr  1 3.400000e-01    2.740000e+00
 TN6ar TN3dr  1 3.400000e-01    2.280000e+00
 TN6ar TN2dr  1 3.400000e-01    2.020000e+00
 TN6ar TN1dr  1 3.400000e-01    2.020000e+00
 TN5ar TN4dr  1 3.400000e-01    2.500000e+00
 TN5ar TN3dr  1 3.400000e-01    2.280000e+00
 TN5ar TN2dr  1 3.400000e-01    2.280000e+00
 TN5ar TN1dr  1 3.400000e-01    2.020000e+00
 TN4ar TN3dr  1 3.400000e-01    2.280000e+00
 TN4ar TN2dr  1 3.400000e-01    2.280000e+00
 TN4ar TN1dr  1 3.400000e-01    2.020000e+00
 TN3ar TN2dr  1 3.400000e-01    2.280000e+00
 TN3ar TN1dr  1 3.400000e-01    2.020000e+00
 TN2ar TN1dr  1 3.400000e-01    2.020000e+00
   C6v   C6e  1 4.700000e-01    3.690000e+00
   C6v   C5e  1 4.700000e-01    3.520000e+00
   C6v   C4e  1 4.700000e-01    3.520000e+00
   C6v   C3e  1 4.700000e-01    3.390000e+00
   C6v   C2e  1 4.700000e-01    3.240000e+00
   C6v   C1e  1 4.700000e-01    3.070000e+00
   C6v   X4e  1 4.700000e-01    3.520000e+00
   C6v   X3e  1 4.700000e-01    3.520000e+00
   C6v   X2e  1 4.700000e-01    3.520000e+00
   C6v   X1e  1 4.700000e-01    3.520000e+00
   C5v   C5e  1 4.700000e-01    3.520000e+00
   C5v   C4e  1 4.700000e-01    3.520000e+00
   C5v   C3e  1 4.700000e-01    3.390000e+00
   C5v   C2e  1 4.700000e-01    3.240000e+00
   C5v   C1e  1 4.700000e-01    3.240000e+00
   C5v   X4e  1 4.700000e-01    3.390000e+00
   C5v   X3e  1 4.700000e-01    3.390000e+00
   C5v   X2e  1 4.700000e-01    3.390000e+00
   C5v   X1e  1 4.700000e-01    3.520000e+00
   C4v   C4e  1 4.700000e-01    3.520000e+00
   C4v   C3e  1 4.700000e-01    3.520000e+00
   C4v   C2e  1 4.700000e-01    3.390000e+00
   C4v   C1e  1 4.700000e-01    3.240000e+00
   C4v   X4e  1 4.700000e-01    3.390000e+00
   C4v   X3e  1 4.700000e-01    3.390000e+00
   C4v   X2e  1 4.700000e-01    3.390000e+00
   C4v   X1e  1 4.700000e-01    3.520000e+00
   C3v   C3e  1 4.700000e-01    3.520000e+00
   C3v   C2e  1 4.700000e-01    3.520000e+00
   C3v   C1e  1 4.700000e-01    3.520000e+00
   C3v   X4e  1 4.700000e-01    3.390000e+00
   C3v   X3e  1 4.700000e-01    3.390000e+00
   C3v   X2e  1 4.700000e-01    3.390000e+00
   C3v   X1e  1 4.700000e-01    3.520000e+00
   C2v   C2e  1 4.700000e-01    3.520000e+00
   C2v   C1e  1 4.700000e-01    3.690000e+00
   C2v   X4e  1 4.700000e-01    3.070000e+00
   C2v   X3e  1 4.700000e-01    3.390000e+00
   C2v   X2e  1 4.700000e-01    3.390000e+00
   C2v   X1e  1 4.700000e-01    3.390000e+00
   C1v   C1e  1 4.700000e-01    3.520000e+00
   C1v   X4e  1 4.700000e-01    3.070000e+00
   C1v   X3e  1 4.700000e-01    3.390000e+00
   C1v   X2e  1 4.700000e-01    3.390000e+00
   C1v   X1e  1 4.700000e-01    3.390000e+00
   X4v   X4e  1 4.700000e-01    3.520000e+00
   X4v   X3e  1 4.700000e-01    3.520000e+00
   X4v   X2e  1 4.700000e-01    3.520000e+00
   X4v   X1e  1 4.700000e-01    3.520000e+00
   X3v   X3e  1 4.700000e-01    3.520000e+00
   X3v   X2e  1 4.700000e-01    3.690000e+00
   X3v   X1e  1 4.700000e-01    3.690000e+00
   X2v   X2e  1 4.700000e-01    3.690000e+00
   X2v   X1e  1 4.700000e-01    3.690000e+00
   X1v   X1e  1 4.700000e-01    3.880000e+00
   C6v  X1eq  1 4.700000e-01    3.880000e+00
   C5v  X1eq  1 4.700000e-01    3.880000e+00
   C4v  X1eq  1 4.700000e-01    3.880000e+00
   C3v  X1eq  1 4.700000e-01    3.880000e+00
   C2v  X1eq  1 4.700000e-01    3.690000e+00
   C1v  X1eq  1 4.700000e-01    3.690000e+00
   X4v  X1eq  1 4.700000e-01    3.880000e+00
   X3v  X1eq  1 4.700000e-01    4.060000e+00
   X2v  X1eq  1 4.700000e-01    4.060000e+00
   X1v  X1eq  1 4.700000e-01    4.250000e+00
   C6v  X2eq  1 4.700000e-01    3.880000e+00
   C5v  X2eq  1 4.700000e-01    3.690000e+00
   C4v  X2eq  1 4.700000e-01    3.690000e+00
   C3v  X2eq  1 4.700000e-01    3.690000e+00
   C2v  X2eq  1 4.700000e-01    3.690000e+00
   C1v  X2eq  1 4.700000e-01    3.690000e+00
   X4v  X2eq  1 4.700000e-01    3.880000e+00
   X3v  X2eq  1 4.700000e-01    4.060000e+00
   X2v  X2eq  1 4.700000e-01    4.060000e+00
   C6v  X3eq  1 4.700000e-01    3.880000e+00
   C5v  X3eq  1 4.700000e-01    3.690000e+00
   C4v  X3eq  1 4.700000e-01    3.690000e+00
   C3v  X3eq  1 4.700000e-01    3.690000e+00
   C2v  X3eq  1 4.700000e-01    3.690000e+00
   C1v  X3eq  1 4.700000e-01    3.690000e+00
   X4v  X3eq  1 4.700000e-01    3.880000e+00
   X3v  X3eq  1 4.700000e-01    3.880000e+00
   C6v  X4eq  1 4.700000e-01    3.880000e+00
   C5v  X4eq  1 4.700000e-01    3.690000e+00
   C4v  X4eq  1 4.700000e-01    3.690000e+00
   C3v  X4eq  1 4.700000e-01    3.690000e+00
   C2v  X4eq  1 4.700000e-01    3.390000e+00
   C1v  X4eq  1 4.700000e-01    3.390000e+00
   X4v  X4eq  1 4.700000e-01    3.880000e+00
   C6v  C1eq  1 4.700000e-01    3.390000e+00
   C5v  C1eq  1 4.700000e-01    3.520000e+00
   C4v  C1eq  1 4.700000e-01    3.520000e+00
   C3v  C1eq  1 4.700000e-01    3.880000e+00
   C2v  C1eq  1 4.700000e-01    4.060000e+00
   C1v  C1eq  1 4.700000e-01    3.880000e+00
   C6v  C2eq  1 4.700000e-01    3.520000e+00
   C5v  C2eq  1 4.700000e-01    3.520000e+00
   C4v  C2eq  1 4.700000e-01    3.690000e+00
   C3v  C2eq  1 4.700000e-01    3.880000e+00
   C2v  C2eq  1 4.700000e-01    3.880000e+00
   C6v  C3eq  1 4.700000e-01    3.690000e+00
   C5v  C3eq  1 4.700000e-01    3.690000e+00
   C4v  C3eq  1 4.700000e-01    3.880000e+00
   C3v  C3eq  1 4.700000e-01    3.880000e+00
   C6v  C4eq  1 4.700000e-01    3.880000e+00
   C5v  C4eq  1 4.700000e-01    3.880000e+00
   C4v  C4eq  1 4.700000e-01    3.880000e+00
   C6v  C5eq  1 4.700000e-01    3.880000e+00
   C5v  C5eq  1 4.700000e-01    3.880000e+00
   C6v  C6eq  1 4.700000e-01    4.060000e+00
   C6v  X1eh  1 4.700000e-01    3.520000e+00
   C5v  X1eh  1 4.700000e-01    3.520000e+00
   C4v  X1eh  1 4.700000e-01    3.520000e+00
   C3v  X1eh  1 4.700000e-01    3.520000e+00
   C2v  X1eh  1 4.700000e-01    3.390000e+00
   C1v  X1eh  1 4.700000e-01    3.390000e+00
   X4v  X1eh  1 4.700000e-01    3.520000e+00
   X3v  X1eh  1 4.700000e-01    3.690000e+00
   X2v  X1eh  1 4.700000e-01    3.690000e+00
   X1v  X1eh  1 4.700000e-01    3.880000e+00
   C6v  X2eh  1 4.700000e-01    3.520000e+00
   C5v  X2eh  1 4.700000e-01    3.390000e+00
   C4v  X2eh  1 4.700000e-01    3.390000e+00
   C3v  X2eh  1 4.700000e-01    3.390000e+00
   C2v  X2eh  1 4.700000e-01    3.390000e+00
   C1v  X2eh  1 4.700000e-01    3.390000e+00
   X4v  X2eh  1 4.700000e-01    3.520000e+00
   X3v  X2eh  1 4.700000e-01    3.690000e+00
   X2v  X2eh  1 4.700000e-01    3.690000e+00
   C6v  X3eh  1 4.700000e-01    3.520000e+00
   C5v  X3eh  1 4.700000e-01    3.390000e+00
   C4v  X3eh  1 4.700000e-01    3.390000e+00
   C3v  X3eh  1 4.700000e-01    3.390000e+00
   C2v  X3eh  1 4.700000e-01    3.390000e+00
   C1v  X3eh  1 4.700000e-01    3.390000e+00
   X4v  X3eh  1 4.700000e-01    3.520000e+00
   X3v  X3eh  1 4.700000e-01    3.520000e+00
   C6v  X4eh  1 4.700000e-01    3.520000e+00
   C5v  X4eh  1 4.700000e-01    3.390000e+00
   C4v  X4eh  1 4.700000e-01    3.390000e+00
   C3v  X4eh  1 4.700000e-01    3.390000e+00
   C2v  X4eh  1 4.700000e-01    3.070000e+00
   C1v  X4eh  1 4.700000e-01    3.070000e+00
   X4v  X4eh  1 4.700000e-01    3.520000e+00
   C6v  C1eh  1 4.700000e-01    3.070000e+00
   C5v  C1eh  1 4.700000e-01    3.240000e+00
   C4v  C1eh  1 4.700000e-01    3.240000e+00
   C3v  C1eh  1 4.700000e-01    3.520000e+00
   C2v  C1eh  1 4.700000e-01    3.690000e+00
   C1v  C1eh  1 4.700000e-01    3.520000e+00
   C6v  C2eh  1 4.700000e-01    3.240000e+00
   C5v  C2eh  1 4.700000e-01    3.240000e+00
   C4v  C2eh  1 4.700000e-01    3.390000e+00
   C3v  C2eh  1 4.700000e-01    3.520000e+00
   C2v  C2eh  1 4.700000e-01    3.520000e+00
   C6v  C3eh  1 4.700000e-01    3.390000e+00
   C5v  C3eh  1 4.700000e-01    3.390000e+00
   C4v  C3eh  1 4.700000e-01    3.520000e+00
   C3v  C3eh  1 4.700000e-01    3.520000e+00
   C6v  C4eh  1 4.700000e-01    3.520000e+00
   C5v  C4eh  1 4.700000e-01    3.520000e+00
   C4v  C4eh  1 4.700000e-01    3.520000e+00
   C6v  C5eh  1 4.700000e-01    3.520000e+00
   C5v  C5eh  1 4.700000e-01    3.520000e+00
   C6v  C6eh  1 4.700000e-01    3.690000e+00
   C6v  X1er  1 4.700000e-01    3.520000e+00
   C5v  X1er  1 4.700000e-01    3.520000e+00
   C4v  X1er  1 4.700000e-01    3.520000e+00
   C3v  X1er  1 4.700000e-01    3.520000e+00
   C2v  X1er  1 4.700000e-01    3.390000e+00
   C1v  X1er  1 4.700000e-01    3.390000e+00
   X4v  X1er  1 4.700000e-01    3.520000e+00
   X3v  X1er  1 4.700000e-01    3.690000e+00
   X2v  X1er  1 4.700000e-01    3.690000e+00
   X1v  X1er  1 4.700000e-01    3.880000e+00
   C6v  X2er  1 4.700000e-01    3.520000e+00
   C5v  X2er  1 4.700000e-01    3.390000e+00
   C4v  X2er  1 4.700000e-01    3.390000e+00
   C3v  X2er  1 4.700000e-01    3.390000e+00
   C2v  X2er  1 4.700000e-01    3.390000e+00
   C1v  X2er  1 4.700000e-01    3.390000e+00
   X4v  X2er  1 4.700000e-01    3.520000e+00
   X3v  X2er  1 4.700000e-01    3.690000e+00
   X2v  X2er  1 4.700000e-01    3.690000e+00
   C6v  X3er  1 4.700000e-01    3.520000e+00
   C5v  X3er  1 4.700000e-01    3.390000e+00
   C4v  X3er  1 4.700000e-01    3.390000e+00
   C3v  X3er  1 4.700000e-01    3.390000e+00
   C2v  X3er  1 4.700000e-01    3.390000e+00
   C1v  X3er  1 4.700000e-01    3.390000e+00
   X4v  X3er  1 4.700000e-01    3.520000e+00
   X3v  X3er  1 4.700000e-01    3.520000e+00
   C6v  X4er  1 4.700000e-01    3.520000e+00
   C5v  X4er  1 4.700000e-01    3.390000e+00
   C4v  X4er  1 4.700000e-01    3.390000e+00
   C3v  X4er  1 4.700000e-01    3.390000e+00
   C2v  X4er  1 4.700000e-01    3.070000e+00
   C1v  X4er  1 4.700000e-01    3.070000e+00
   X4v  X4er  1 4.700000e-01    3.520000e+00
   C6v  C1er  1 4.700000e-01    3.070000e+00
   C5v  C1er  1 4.700000e-01    3.240000e+00
   C4v  C1er  1 4.700000e-01    3.240000e+00
   C3v  C1er  1 4.700000e-01    3.520000e+00
   C2v  C1er  1 4.700000e-01    3.690000e+00
   C1v  C1er  1 4.700000e-01    3.520000e+00
   C6v  C2er  1 4.700000e-01    3.240000e+00
   C5v  C2er  1 4.700000e-01    3.240000e+00
   C4v  C2er  1 4.700000e-01    3.390000e+00
   C3v  C2er  1 4.700000e-01    3.520000e+00
   C2v  C2er  1 4.700000e-01    3.520000e+00
   C6v  C3er  1 4.700000e-01    3.390000e+00
   C5v  C3er  1 4.700000e-01    3.390000e+00
   C4v  C3er  1 4.700000e-01    3.520000e+00
   C3v  C3er  1 4.700000e-01    3.520000e+00
   C6v  C4er  1 4.700000e-01    3.520000e+00
   C5v  C4er  1 4.700000e-01    3.520000e+00
   C4v  C4er  1 4.700000e-01    3.520000e+00
   C6v  C5er  1 4.700000e-01    3.520000e+00
   C5v  C5er  1 4.700000e-01    3.520000e+00
   C6v  C6er  1 4.700000e-01    3.690000e+00
  C6vq   C6e  1 4.700000e-01    4.060000e+00
  C6vq   C5e  1 4.700000e-01    3.880000e+00
  C6vq   C4e  1 4.700000e-01    3.880000e+00
  C6vq   C3e  1 4.700000e-01    3.690000e+00
  C6vq   C2e  1 4.700000e-01    3.520000e+00
  C6vq   C1e  1 4.700000e-01    3.390000e+00
  C6vq   X4e  1 4.700000e-01    3.880000e+00
  C6vq   X3e  1 4.700000e-01    3.880000e+00
  C6vq   X2e  1 4.700000e-01    3.880000e+00
  C6vq   X1e  1 4.700000e-01    3.880000e+00
  C5vq   C5e  1 4.700000e-01    3.880000e+00
  C5vq   C4e  1 4.700000e-01    3.880000e+00
  C5vq   C3e  1 4.700000e-01    3.690000e+00
  C5vq   C2e  1 4.700000e-01    3.520000e+00
  C5vq   C1e  1 4.700000e-01    3.520000e+00
  C5vq   X4e  1 4.700000e-01    3.690000e+00
  C5vq   X3e  1 4.700000e-01    3.690000e+00
  C5vq   X2e  1 4.700000e-01    3.690000e+00
  C5vq   X1e  1 4.700000e-01    3.880000e+00
  C4vq   C4e  1 4.700000e-01    3.880000e+00
  C4vq   C3e  1 4.700000e-01    3.880000e+00
  C4vq   C2e  1 4.700000e-01    3.690000e+00
  C4vq   C1e  1 4.700000e-01    3.520000e+00
  C4vq   X4e  1 4.700000e-01    3.690000e+00
  C4vq   X3e  1 4.700000e-01    3.690000e+00
  C4vq   X2e  1 4.700000e-01    3.690000e+00
  C4vq   X1e  1 4.700000e-01    3.880000e+00
  C3vq   C3e  1 4.700000e-01    3.880000e+00
  C3vq   C2e  1 4.700000e-01    3.880000e+00
  C3vq   C1e  1 4.700000e-01    3.880000e+00
  C3vq   X4e  1 4.700000e-01    3.690000e+00
  C3vq   X3e  1 4.700000e-01    3.690000e+00
  C3vq   X2e  1 4.700000e-01    3.690000e+00
  C3vq   X1e  1 4.700000e-01    3.880000e+00
  C2vq   C2e  1 4.700000e-01    3.880000e+00
  C2vq   C1e  1 4.700000e-01    4.060000e+00
  C2vq   X4e  1 4.700000e-01    3.390000e+00
  C2vq   X3e  1 4.700000e-01    3.690000e+00
  C2vq   X2e  1 4.700000e-01    3.690000e+00
  C2vq   X1e  1 4.700000e-01    3.690000e+00
  C1vq   C1e  1 4.700000e-01    3.880000e+00
  C1vq   X4e  1 4.700000e-01    3.390000e+00
  C1vq   X3e  1 4.700000e-01    3.690000e+00
  C1vq   X2e  1 4.700000e-01    3.690000e+00
  C1vq   X1e  1 4.700000e-01    3.690000e+00
  X4vq   X4e  1 4.700000e-01    3.880000e+00
  X4vq   X3e  1 4.700000e-01    3.880000e+00
  X4vq   X2e  1 4.700000e-01    3.880000e+00
  X4vq   X1e  1 4.700000e-01    3.880000e+00
  X3vq   X3e  1 4.700000e-01    3.880000e+00
  X3vq   X2e  1 4.700000e-01    4.060000e+00
  X3vq   X1e  1 4.700000e-01    4.060000e+00
  X2vq   X2e  1 4.700000e-01    4.060000e+00
  X2vq   X1e  1 4.700000e-01    4.060000e+00
  X1vq   X1e  1 4.700000e-01    4.250000e+00
  C6vq  C6eq  1 4.700000e-01    4.060000e+00
  C6vq  C5eq  1 4.700000e-01    3.880000e+00
  C6vq  C4eq  1 4.700000e-01    3.880000e+00
  C6vq  C3eq  1 4.700000e-01    3.690000e+00
  C6vq  C2eq  1 4.700000e-01    3.520000e+00
  C6vq  C1eq  1 4.700000e-01    3.390000e+00
  C6vq  X4eq  1 4.700000e-01    3.880000e+00
  C6vq  X3eq  1 4.700000e-01    3.880000e+00
  C6vq  X2eq  1 4.700000e-01    3.880000e+00
  C6vq  X1eq  1 4.700000e-01    3.880000e+00
  C5vq  C5eq  1 4.700000e-01    3.880000e+00
  C5vq  C4eq  1 4.700000e-01    3.880000e+00
  C5vq  C3eq  1 4.700000e-01    3.690000e+00
  C5vq  C2eq  1 4.700000e-01    3.520000e+00
  C5vq  C1eq  1 4.700000e-01    3.520000e+00
  C5vq  X4eq  1 4.700000e-01    3.690000e+00
  C5vq  X3eq  1 4.700000e-01    3.690000e+00
  C5vq  X2eq  1 4.700000e-01    3.690000e+00
  C5vq  X1eq  1 4.700000e-01    3.880000e+00
  C4vq  C4eq  1 4.700000e-01    3.880000e+00
  C4vq  C3eq  1 4.700000e-01    3.880000e+00
  C4vq  C2eq  1 4.700000e-01    3.690000e+00
  C4vq  C1eq  1 4.700000e-01    3.520000e+00
  C4vq  X4eq  1 4.700000e-01    3.690000e+00
  C4vq  X3eq  1 4.700000e-01    3.690000e+00
  C4vq  X2eq  1 4.700000e-01    3.690000e+00
  C4vq  X1eq  1 4.700000e-01    3.880000e+00
  C3vq  C3eq  1 4.700000e-01    3.880000e+00
  C3vq  C2eq  1 4.700000e-01    3.880000e+00
  C3vq  C1eq  1 4.700000e-01    3.880000e+00
  C3vq  X4eq  1 4.700000e-01    3.690000e+00
  C3vq  X3eq  1 4.700000e-01    3.690000e+00
  C3vq  X2eq  1 4.700000e-01    3.690000e+00
  C3vq  X1eq  1 4.700000e-01    3.880000e+00
  C2vq  C2eq  1 4.700000e-01    3.880000e+00
  C2vq  C1eq  1 4.700000e-01    4.060000e+00
  C2vq  X4eq  1 4.700000e-01    3.390000e+00
  C2vq  X3eq  1 4.700000e-01    3.690000e+00
  C2vq  X2eq  1 4.700000e-01    3.690000e+00
  C2vq  X1eq  1 4.700000e-01    3.690000e+00
  C1vq  C1eq  1 4.700000e-01    3.880000e+00
  C1vq  X4eq  1 4.700000e-01    3.390000e+00
  C1vq  X3eq  1 4.700000e-01    3.690000e+00
  C1vq  X2eq  1 4.700000e-01    3.690000e+00
  C1vq  X1eq  1 4.700000e-01    3.690000e+00
  X4vq  X4eq  1 4.700000e-01    3.880000e+00
  X4vq  X3eq  1 4.700000e-01    3.880000e+00
  X4vq  X2eq  1 4.700000e-01    3.880000e+00
  X4vq  X1eq  1 4.700000e-01    3.880000e+00
  X3vq  X3eq  1 4.700000e-01    3.880000e+00
  X3vq  X2eq  1 4.700000e-01    4.060000e+00
  X3vq  X1eq  1 4.700000e-01    4.060000e+00
  X2vq  X2eq  1 4.700000e-01    4.060000e+00
  X2vq  X1eq  1 4.700000e-01    4.060000e+00
  X1vq  X1eq  1 4.700000e-01    4.250000e+00
  C6vq  C6eh  1 4.700000e-01    4.060000e+00
  C6vq  C5eh  1 4.700000e-01    3.880000e+00
  C5vq  C5eh  1 4.700000e-01    3.880000e+00
  C6vq  C4eh  1 4.700000e-01    3.880000e+00
  C5vq  C4eh  1 4.700000e-01    3.880000e+00
  C4vq  C4eh  1 4.700000e-01    3.880000e+00
  C6vq  C3eh  1 4.700000e-01    3.690000e+00
  C5vq  C3eh  1 4.700000e-01    3.690000e+00
  C4vq  C3eh  1 4.700000e-01    3.880000e+00
  C3vq  C3eh  1 4.700000e-01    3.880000e+00
  C6vq  C2eh  1 4.700000e-01    3.520000e+00
  C5vq  C2eh  1 4.700000e-01    3.520000e+00
  C4vq  C2eh  1 4.700000e-01    3.690000e+00
  C3vq  C2eh  1 4.700000e-01    3.880000e+00
  C2vq  C2eh  1 4.700000e-01    3.880000e+00
  C6vq  C1eh  1 4.700000e-01    3.390000e+00
  C5vq  C1eh  1 4.700000e-01    3.520000e+00
  C4vq  C1eh  1 4.700000e-01    3.520000e+00
  C3vq  C1eh  1 4.700000e-01    3.880000e+00
  C2vq  C1eh  1 4.700000e-01    4.060000e+00
  C1vq  C1eh  1 4.700000e-01    3.880000e+00
  C6vq  X4eh  1 4.700000e-01    3.880000e+00
  C5vq  X4eh  1 4.700000e-01    3.690000e+00
  C4vq  X4eh  1 4.700000e-01    3.690000e+00
  C3vq  X4eh  1 4.700000e-01    3.690000e+00
  C2vq  X4eh  1 4.700000e-01    3.390000e+00
  C1vq  X4eh  1 4.700000e-01    3.390000e+00
  X4vq  X4eh  1 4.700000e-01    3.880000e+00
  C6vq  X3eh  1 4.700000e-01    3.880000e+00
  C5vq  X3eh  1 4.700000e-01    3.690000e+00
  C4vq  X3eh  1 4.700000e-01    3.690000e+00
  C3vq  X3eh  1 4.700000e-01    3.690000e+00
  C2vq  X3eh  1 4.700000e-01    3.690000e+00
  C1vq  X3eh  1 4.700000e-01    3.690000e+00
  X4vq  X3eh  1 4.700000e-01    3.880000e+00
  X3vq  X3eh  1 4.700000e-01    3.880000e+00
  C6vq  X2eh  1 4.700000e-01    3.880000e+00
  C5vq  X2eh  1 4.700000e-01    3.690000e+00
  C4vq  X2eh  1 4.700000e-01    3.690000e+00
  C3vq  X2eh  1 4.700000e-01    3.690000e+00
  C2vq  X2eh  1 4.700000e-01    3.690000e+00
  C1vq  X2eh  1 4.700000e-01    3.690000e+00
  X4vq  X2eh  1 4.700000e-01    3.880000e+00
  X3vq  X2eh  1 4.700000e-01    4.060000e+00
  X2vq  X2eh  1 4.700000e-01    4.060000e+00
  C6vq  X1eh  1 4.700000e-01    3.880000e+00
  C5vq  X1eh  1 4.700000e-01    3.880000e+00
  C4vq  X1eh  1 4.700000e-01    3.880000e+00
  C3vq  X1eh  1 4.700000e-01    3.880000e+00
  C2vq  X1eh  1 4.700000e-01    3.690000e+00
  C1vq  X1eh  1 4.700000e-01    3.690000e+00
  X4vq  X1eh  1 4.700000e-01    3.880000e+00
  X3vq  X1eh  1 4.700000e-01    4.060000e+00
  X2vq  X1eh  1 4.700000e-01    4.060000e+00
  X1vq  X1eh  1 4.700000e-01    4.250000e+00
  C6vq  C6er  1 4.700000e-01    4.060000e+00
  C6vq  C5er  1 4.700000e-01    3.880000e+00
  C5vq  C5er  1 4.700000e-01    3.880000e+00
  C6vq  C4er  1 4.700000e-01    3.880000e+00
  C5vq  C4er  1 4.700000e-01    3.880000e+00
  C4vq  C4er  1 4.700000e-01    3.880000e+00
  C6vq  C3er  1 4.700000e-01    3.690000e+00
  C5vq  C3er  1 4.700000e-01    3.690000e+00
  C4vq  C3er  1 4.700000e-01    3.880000e+00
  C3vq  C3er  1 4.700000e-01    3.880000e+00
  C6vq  C2er  1 4.700000e-01    3.520000e+00
  C5vq  C2er  1 4.700000e-01    3.520000e+00
  C4vq  C2er  1 4.700000e-01    3.690000e+00
  C3vq  C2er  1 4.700000e-01    3.880000e+00
  C2vq  C2er  1 4.700000e-01    3.880000e+00
  C6vq  C1er  1 4.700000e-01    3.390000e+00
  C5vq  C1er  1 4.700000e-01    3.520000e+00
  C4vq  C1er  1 4.700000e-01    3.520000e+00
  C3vq  C1er  1 4.700000e-01    3.880000e+00
  C2vq  C1er  1 4.700000e-01    4.060000e+00
  C1vq  C1er  1 4.700000e-01    3.880000e+00
  C6vq  X4er  1 4.700000e-01    3.880000e+00
  C5vq  X4er  1 4.700000e-01    3.690000e+00
  C4vq  X4er  1 4.700000e-01    3.690000e+00
  C3vq  X4er  1 4.700000e-01    3.690000e+00
  C2vq  X4er  1 4.700000e-01    3.390000e+00
  C1vq  X4er  1 4.700000e-01    3.390000e+00
  X4vq  X4er  1 4.700000e-01    3.880000e+00
  C6vq  X3er  1 4.700000e-01    3.880000e+00
  C5vq  X3er  1 4.700000e-01    3.690000e+00
  C4vq  X3er  1 4.700000e-01    3.690000e+00
  C3vq  X3er  1 4.700000e-01    3.690000e+00
  C2vq  X3er  1 4.700000e-01    3.690000e+00
  C1vq  X3er  1 4.700000e-01    3.690000e+00
  X4vq  X3er  1 4.700000e-01    3.880000e+00
  X3vq  X3er  1 4.700000e-01    3.880000e+00
  C6vq  X2er  1 4.700000e-01    3.880000e+00
  C5vq  X2er  1 4.700000e-01    3.690000e+00
  C4vq  X2er  1 4.700000e-01    3.690000e+00
  C3vq  X2er  1 4.700000e-01    3.690000e+00
  C2vq  X2er  1 4.700000e-01    3.690000e+00
  C1vq  X2er  1 4.700000e-01    3.690000e+00
  X4vq  X2er  1 4.700000e-01    3.880000e+00
  X3vq  X2er  1 4.700000e-01    4.060000e+00
  X2vq  X2er  1 4.700000e-01    4.060000e+00
  C6vq  X1er  1 4.700000e-01    3.880000e+00
  C5vq  X1er  1 4.700000e-01    3.880000e+00
  C4vq  X1er  1 4.700000e-01    3.880000e+00
  C3vq  X1er  1 4.700000e-01    3.880000e+00
  C2vq  X1er  1 4.700000e-01    3.690000e+00
  C1vq  X1er  1 4.700000e-01    3.690000e+00
  X4vq  X1er  1 4.700000e-01    3.880000e+00
  X3vq  X1er  1 4.700000e-01    4.060000e+00
  X2vq  X1er  1 4.700000e-01    4.060000e+00
  X1vq  X1er  1 4.700000e-01    4.250000e+00
  C6vh   C6e  1 4.700000e-01    3.690000e+00
  C6vh   C5e  1 4.700000e-01    3.520000e+00
  C6vh   C4e  1 4.700000e-01    3.520000e+00
  C6vh   C3e  1 4.700000e-01    3.390000e+00
  C6vh   C2e  1 4.700000e-01    3.240000e+00
  C6vh   C1e  1 4.700000e-01    3.070000e+00
  C6vh   X4e  1 4.700000e-01    3.520000e+00
  C6vh   X3e  1 4.700000e-01    3.520000e+00
  C6vh   X2e  1 4.700000e-01    3.520000e+00
  C6vh   X1e  1 4.700000e-01    3.520000e+00
  C5vh   C5e  1 4.700000e-01    3.520000e+00
  C5vh   C4e  1 4.700000e-01    3.520000e+00
  C5vh   C3e  1 4.700000e-01    3.390000e+00
  C5vh   C2e  1 4.700000e-01    3.240000e+00
  C5vh   C1e  1 4.700000e-01    3.240000e+00
  C5vh   X4e  1 4.700000e-01    3.390000e+00
  C5vh   X3e  1 4.700000e-01    3.390000e+00
  C5vh   X2e  1 4.700000e-01    3.390000e+00
  C5vh   X1e  1 4.700000e-01    3.520000e+00
  C4vh   C4e  1 4.700000e-01    3.520000e+00
  C4vh   C3e  1 4.700000e-01    3.520000e+00
  C4vh   C2e  1 4.700000e-01    3.390000e+00
  C4vh   C1e  1 4.700000e-01    3.240000e+00
  C4vh   X4e  1 4.700000e-01    3.390000e+00
  C4vh   X3e  1 4.700000e-01    3.390000e+00
  C4vh   X2e  1 4.700000e-01    3.390000e+00
  C4vh   X1e  1 4.700000e-01    3.520000e+00
  C3vh   C3e  1 4.700000e-01    3.520000e+00
  C3vh   C2e  1 4.700000e-01    3.520000e+00
  C3vh   C1e  1 4.700000e-01    3.520000e+00
  C3vh   X4e  1 4.700000e-01    3.390000e+00
  C3vh   X3e  1 4.700000e-01    3.390000e+00
  C3vh   X2e  1 4.700000e-01    3.390000e+00
  C3vh   X1e  1 4.700000e-01    3.520000e+00
  C2vh   C2e  1 4.700000e-01    3.520000e+00
  C2vh   C1e  1 4.700000e-01    3.690000e+00
  C2vh   X4e  1 4.700000e-01    3.070000e+00
  C2vh   X3e  1 4.700000e-01    3.390000e+00
  C2vh   X2e  1 4.700000e-01    3.390000e+00
  C2vh   X1e  1 4.700000e-01    3.390000e+00
  C1vh   C1e  1 4.700000e-01    3.520000e+00
  C1vh   X4e  1 4.700000e-01    3.070000e+00
  C1vh   X3e  1 4.700000e-01    3.390000e+00
  C1vh   X2e  1 4.700000e-01    3.390000e+00
  C1vh   X1e  1 4.700000e-01    3.390000e+00
  X4vh   X4e  1 4.700000e-01    3.520000e+00
  X4vh   X3e  1 4.700000e-01    3.520000e+00
  X4vh   X2e  1 4.700000e-01    3.520000e+00
  X4vh   X1e  1 4.700000e-01    3.520000e+00
  X3vh   X3e  1 4.700000e-01    3.520000e+00
  X3vh   X2e  1 4.700000e-01    3.690000e+00
  X3vh   X1e  1 4.700000e-01    3.690000e+00
  X2vh   X2e  1 4.700000e-01    3.690000e+00
  X2vh   X1e  1 4.700000e-01    3.690000e+00
  X1vh   X1e  1 4.700000e-01    3.880000e+00
  C6vh  X1eq  1 4.700000e-01    3.880000e+00
  C6vh  X2eq  1 4.700000e-01    3.880000e+00
  C6vh  X3eq  1 4.700000e-01    3.880000e+00
  C6vh  X4eq  1 4.700000e-01    3.880000e+00
  C6vh  C1eq  1 4.700000e-01    3.390000e+00
  C6vh  C2eq  1 4.700000e-01    3.520000e+00
  C6vh  C3eq  1 4.700000e-01    3.690000e+00
  C6vh  C4eq  1 4.700000e-01    3.880000e+00
  C6vh  C5eq  1 4.700000e-01    3.880000e+00
  C6vh  C6eq  1 4.700000e-01    4.060000e+00
  C5vh  X1eq  1 4.700000e-01    3.880000e+00
  C5vh  X2eq  1 4.700000e-01    3.690000e+00
  C5vh  X3eq  1 4.700000e-01    3.690000e+00
  C5vh  X4eq  1 4.700000e-01    3.690000e+00
  C5vh  C1eq  1 4.700000e-01    3.520000e+00
  C5vh  C2eq  1 4.700000e-01    3.520000e+00
  C5vh  C3eq  1 4.700000e-01    3.690000e+00
  C5vh  C4eq  1 4.700000e-01    3.880000e+00
  C5vh  C5eq  1 4.700000e-01    3.880000e+00
  C4vh  X1eq  1 4.700000e-01    3.880000e+00
  C4vh  X2eq  1 4.700000e-01    3.690000e+00
  C4vh  X3eq  1 4.700000e-01    3.690000e+00
  C4vh  X4eq  1 4.700000e-01    3.690000e+00
  C4vh  C1eq  1 4.700000e-01    3.520000e+00
  C4vh  C2eq  1 4.700000e-01    3.690000e+00
  C4vh  C3eq  1 4.700000e-01    3.880000e+00
  C4vh  C4eq  1 4.700000e-01    3.880000e+00
  C3vh  X1eq  1 4.700000e-01    3.880000e+00
  C3vh  X2eq  1 4.700000e-01    3.690000e+00
  C3vh  X3eq  1 4.700000e-01    3.690000e+00
  C3vh  X4eq  1 4.700000e-01    3.690000e+00
  C3vh  C1eq  1 4.700000e-01    3.880000e+00
  C3vh  C2eq  1 4.700000e-01    3.880000e+00
  C3vh  C3eq  1 4.700000e-01    3.880000e+00
  C2vh  X1eq  1 4.700000e-01    3.690000e+00
  C2vh  X2eq  1 4.700000e-01    3.690000e+00
  C2vh  X3eq  1 4.700000e-01    3.690000e+00
  C2vh  X4eq  1 4.700000e-01    3.390000e+00
  C2vh  C1eq  1 4.700000e-01    4.060000e+00
  C2vh  C2eq  1 4.700000e-01    3.880000e+00
  C1vh  X1eq  1 4.700000e-01    3.690000e+00
  C1vh  X2eq  1 4.700000e-01    3.690000e+00
  C1vh  X3eq  1 4.700000e-01    3.690000e+00
  C1vh  X4eq  1 4.700000e-01    3.390000e+00
  C1vh  C1eq  1 4.700000e-01    3.880000e+00
  X4vh  X1eq  1 4.700000e-01    3.880000e+00
  X4vh  X2eq  1 4.700000e-01    3.880000e+00
  X4vh  X3eq  1 4.700000e-01    3.880000e+00
  X4vh  X4eq  1 4.700000e-01    3.880000e+00
  X3vh  X1eq  1 4.700000e-01    4.060000e+00
  X3vh  X2eq  1 4.700000e-01    4.060000e+00
  X3vh  X3eq  1 4.700000e-01    3.880000e+00
  X2vh  X1eq  1 4.700000e-01    4.060000e+00
  X2vh  X2eq  1 4.700000e-01    4.060000e+00
  X1vh  X1eq  1 4.700000e-01    4.250000e+00
  C6vh  C6eh  1 4.700000e-01    3.880000e+00
  C6vh  C5eh  1 4.700000e-01    3.690000e+00
  C6vh  C4eh  1 4.700000e-01    3.690000e+00
  C6vh  C3eh  1 4.700000e-01    3.520000e+00
  C6vh  C2eh  1 4.700000e-01    3.390000e+00
  C6vh  C1eh  1 4.700000e-01    3.240000e+00
  C6vh  X4eh  1 4.700000e-01    3.690000e+00
  C6vh  X3eh  1 4.700000e-01    3.690000e+00
  C6vh  X2eh  1 4.700000e-01    3.690000e+00
  C6vh  X1eh  1 4.700000e-01    3.690000e+00
  C5vh  C5eh  1 4.700000e-01    3.690000e+00
  C5vh  C4eh  1 4.700000e-01    3.690000e+00
  C5vh  C3eh  1 4.700000e-01    3.520000e+00
  C5vh  C2eh  1 4.700000e-01    3.390000e+00
  C5vh  C1eh  1 4.700000e-01    3.390000e+00
  C5vh  X4eh  1 4.700000e-01    3.520000e+00
  C5vh  X3eh  1 4.700000e-01    3.520000e+00
  C5vh  X2eh  1 4.700000e-01    3.520000e+00
  C5vh  X1eh  1 4.700000e-01    3.690000e+00
  C4vh  C4eh  1 4.700000e-01    3.690000e+00
  C4vh  C3eh  1 4.700000e-01    3.690000e+00
  C4vh  C2eh  1 4.700000e-01    3.520000e+00
  C4vh  C1eh  1 4.700000e-01    3.390000e+00
  C4vh  X4eh  1 4.700000e-01    3.520000e+00
  C4vh  X3eh  1 4.700000e-01    3.520000e+00
  C4vh  X2eh  1 4.700000e-01    3.520000e+00
  C4vh  X1eh  1 4.700000e-01    3.690000e+00
  C3vh  C3eh  1 4.700000e-01    3.690000e+00
  C3vh  C2eh  1 4.700000e-01    3.690000e+00
  C3vh  C1eh  1 4.700000e-01    3.690000e+00
  C3vh  X4eh  1 4.700000e-01    3.520000e+00
  C3vh  X3eh  1 4.700000e-01    3.520000e+00
  C3vh  X2eh  1 4.700000e-01    3.520000e+00
  C3vh  X1eh  1 4.700000e-01    3.690000e+00
  C2vh  C2eh  1 4.700000e-01    3.690000e+00
  C2vh  C1eh  1 4.700000e-01    3.880000e+00
  C2vh  X4eh  1 4.700000e-01    3.240000e+00
  C2vh  X3eh  1 4.700000e-01    3.520000e+00
  C2vh  X2eh  1 4.700000e-01    3.520000e+00
  C2vh  X1eh  1 4.700000e-01    3.520000e+00
  C1vh  C1eh  1 4.700000e-01    3.690000e+00
  C1vh  X4eh  1 4.700000e-01    3.240000e+00
  C1vh  X3eh  1 4.700000e-01    3.520000e+00
  C1vh  X2eh  1 4.700000e-01    3.520000e+00
  C1vh  X1eh  1 4.700000e-01    3.520000e+00
  X4vh  X4eh  1 4.700000e-01    3.690000e+00
  X4vh  X3eh  1 4.700000e-01    3.690000e+00
  X4vh  X2eh  1 4.700000e-01    3.690000e+00
  X4vh  X1eh  1 4.700000e-01    3.690000e+00
  X3vh  X3eh  1 4.700000e-01    3.690000e+00
  X3vh  X2eh  1 4.700000e-01    3.880000e+00
  X3vh  X1eh  1 4.700000e-01    3.880000e+00
  X2vh  X2eh  1 4.700000e-01    3.880000e+00
  X2vh  X1eh  1 4.700000e-01    3.880000e+00
  X1vh  X1eh  1 4.700000e-01    4.060000e+00
  C6vh  C6er  1 4.700000e-01    3.690000e+00
  C6vh  C5er  1 4.700000e-01    3.520000e+00
  C6vh  C4er  1 4.700000e-01    3.520000e+00
  C6vh  C3er  1 4.700000e-01    3.390000e+00
  C6vh  C2er  1 4.700000e-01    3.240000e+00
  C6vh  C1er  1 4.700000e-01    3.070000e+00
  C6vh  X4er  1 4.700000e-01    3.520000e+00
  C6vh  X3er  1 4.700000e-01    3.520000e+00
  C6vh  X2er  1 4.700000e-01    3.520000e+00
  C6vh  X1er  1 4.700000e-01    3.520000e+00
  C5vh  C5er  1 4.700000e-01    3.520000e+00
  C5vh  C4er  1 4.700000e-01    3.520000e+00
  C5vh  C3er  1 4.700000e-01    3.390000e+00
  C5vh  C2er  1 4.700000e-01    3.240000e+00
  C5vh  C1er  1 4.700000e-01    3.240000e+00
  C5vh  X4er  1 4.700000e-01    3.390000e+00
  C5vh  X3er  1 4.700000e-01    3.390000e+00
  C5vh  X2er  1 4.700000e-01    3.390000e+00
  C5vh  X1er  1 4.700000e-01    3.520000e+00
  C4vh  C4er  1 4.700000e-01    3.520000e+00
  C4vh  C3er  1 4.700000e-01    3.520000e+00
  C4vh  C2er  1 4.700000e-01    3.390000e+00
  C4vh  C1er  1 4.700000e-01    3.240000e+00
  C4vh  X4er  1 4.700000e-01    3.390000e+00
  C4vh  X3er  1 4.700000e-01    3.390000e+00
  C4vh  X2er  1 4.700000e-01    3.390000e+00
  C4vh  X1er  1 4.700000e-01    3.520000e+00
  C3vh  C3er  1 4.700000e-01    3.520000e+00
  C3vh  C2er  1 4.700000e-01    3.520000e+00
  C3vh  C1er  1 4.700000e-01    3.520000e+00
  C3vh  X4er  1 4.700000e-01    3.390000e+00
  C3vh  X3er  1 4.700000e-01    3.390000e+00
  C3vh  X2er  1 4.700000e-01    3.390000e+00
  C3vh  X1er  1 4.700000e-01    3.520000e+00
  C2vh  C2er  1 4.700000e-01    3.520000e+00
  C2vh  C1er  1 4.700000e-01    3.690000e+00
  C2vh  X4er  1 4.700000e-01    3.070000e+00
  C2vh  X3er  1 4.700000e-01    3.390000e+00
  C2vh  X2er  1 4.700000e-01    3.390000e+00
  C2vh  X1er  1 4.700000e-01    3.390000e+00
  C1vh  C1er  1 4.700000e-01    3.520000e+00
  C1vh  X4er  1 4.700000e-01    3.070000e+00
  C1vh  X3er  1 4.700000e-01    3.390000e+00
  C1vh  X2er  1 4.700000e-01    3.390000e+00
  C1vh  X1er  1 4.700000e-01    3.390000e+00
  X4vh  X4er  1 4.700000e-01    3.520000e+00
  X4vh  X3er  1 4.700000e-01    3.520000e+00
  X4vh  X2er  1 4.700000e-01    3.520000e+00
  X4vh  X1er  1 4.700000e-01    3.520000e+00
  X3vh  X3er  1 4.700000e-01    3.520000e+00
  X3vh  X2er  1 4.700000e-01    3.690000e+00
  X3vh  X1er  1 4.700000e-01    3.690000e+00
  X2vh  X2er  1 4.700000e-01    3.690000e+00
  X2vh  X1er  1 4.700000e-01    3.690000e+00
  X1vh  X1er  1 4.700000e-01    3.880000e+00
  C6vr   C6e  1 4.700000e-01    3.690000e+00
  C6vr   C5e  1 4.700000e-01    3.520000e+00
  C6vr   C4e  1 4.700000e-01    3.520000e+00
  C6vr   C3e  1 4.700000e-01    3.390000e+00
  C6vr   C2e  1 4.700000e-01    3.240000e+00
  C6vr   C1e  1 4.700000e-01    3.070000e+00
  C6vr   X4e  1 4.700000e-01    3.520000e+00
  C6vr   X3e  1 4.700000e-01    3.520000e+00
  C6vr   X2e  1 4.700000e-01    3.520000e+00
  C6vr   X1e  1 4.700000e-01    3.520000e+00
  C5vr   C5e  1 4.700000e-01    3.520000e+00
  C5vr   C4e  1 4.700000e-01    3.520000e+00
  C5vr   C3e  1 4.700000e-01    3.390000e+00
  C5vr   C2e  1 4.700000e-01    3.240000e+00
  C5vr   C1e  1 4.700000e-01    3.240000e+00
  C5vr   X4e  1 4.700000e-01    3.390000e+00
  C5vr   X3e  1 4.700000e-01    3.390000e+00
  C5vr   X2e  1 4.700000e-01    3.390000e+00
  C5vr   X1e  1 4.700000e-01    3.520000e+00
  C4vr   C4e  1 4.700000e-01    3.520000e+00
  C4vr   C3e  1 4.700000e-01    3.520000e+00
  C4vr   C2e  1 4.700000e-01    3.390000e+00
  C4vr   C1e  1 4.700000e-01    3.240000e+00
  C4vr   X4e  1 4.700000e-01    3.390000e+00
  C4vr   X3e  1 4.700000e-01    3.390000e+00
  C4vr   X2e  1 4.700000e-01    3.390000e+00
  C4vr   X1e  1 4.700000e-01    3.520000e+00
  C3vr   C3e  1 4.700000e-01    3.520000e+00
  C3vr   C2e  1 4.700000e-01    3.520000e+00
  C3vr   C1e  1 4.700000e-01    3.520000e+00
  C3vr   X4e  1 4.700000e-01    3.390000e+00
  C3vr   X3e  1 4.700000e-01    3.390000e+00
  C3vr   X2e  1 4.700000e-01    3.390000e+00
  C3vr   X1e  1 4.700000e-01    3.520000e+00
  C2vr   C2e  1 4.700000e-01    3.520000e+00
  C2vr   C1e  1 4.700000e-01    3.690000e+00
  C2vr   X4e  1 4.700000e-01    3.070000e+00
  C2vr   X3e  1 4.700000e-01    3.390000e+00
  C2vr   X2e  1 4.700000e-01    3.390000e+00
  C2vr   X1e  1 4.700000e-01    3.390000e+00
  C1vr   C1e  1 4.700000e-01    3.520000e+00
  C1vr   X4e  1 4.700000e-01    3.070000e+00
  C1vr   X3e  1 4.700000e-01    3.390000e+00
  C1vr   X2e  1 4.700000e-01    3.390000e+00
  C1vr   X1e  1 4.700000e-01    3.390000e+00
  X4vr   X4e  1 4.700000e-01    3.520000e+00
  X4vr   X3e  1 4.700000e-01    3.520000e+00
  X4vr   X2e  1 4.700000e-01    3.520000e+00
  X4vr   X1e  1 4.700000e-01    3.520000e+00
  X3vr   X3e  1 4.700000e-01    3.520000e+00
  X3vr   X2e  1 4.700000e-01    3.690000e+00
  X3vr   X1e  1 4.700000e-01    3.690000e+00
  X2vr   X2e  1 4.700000e-01    3.690000e+00
  X2vr   X1e  1 4.700000e-01    3.690000e+00
  X1vr   X1e  1 4.700000e-01    3.880000e+00
  C6vr  X1eq  1 4.700000e-01    3.880000e+00
  C6vr  X2eq  1 4.700000e-01    3.880000e+00
  C6vr  X3eq  1 4.700000e-01    3.880000e+00
  C6vr  X4eq  1 4.700000e-01    3.880000e+00
  C6vr  C1eq  1 4.700000e-01    3.390000e+00
  C6vr  C2eq  1 4.700000e-01    3.520000e+00
  C6vr  C3eq  1 4.700000e-01    3.690000e+00
  C6vr  C4eq  1 4.700000e-01    3.880000e+00
  C6vr  C5eq  1 4.700000e-01    3.880000e+00
  C6vr  C6eq  1 4.700000e-01    4.060000e+00
  C5vr  X1eq  1 4.700000e-01    3.880000e+00
  C5vr  X2eq  1 4.700000e-01    3.690000e+00
  C5vr  X3eq  1 4.700000e-01    3.690000e+00
  C5vr  X4eq  1 4.700000e-01    3.690000e+00
  C5vr  C1eq  1 4.700000e-01    3.520000e+00
  C5vr  C2eq  1 4.700000e-01    3.520000e+00
  C5vr  C3eq  1 4.700000e-01    3.690000e+00
  C5vr  C4eq  1 4.700000e-01    3.880000e+00
  C5vr  C5eq  1 4.700000e-01    3.880000e+00
  C4vr  X1eq  1 4.700000e-01    3.880000e+00
  C4vr  X2eq  1 4.700000e-01    3.690000e+00
  C4vr  X3eq  1 4.700000e-01    3.690000e+00
  C4vr  X4eq  1 4.700000e-01    3.690000e+00
  C4vr  C1eq  1 4.700000e-01    3.520000e+00
  C4vr  C2eq  1 4.700000e-01    3.690000e+00
  C4vr  C3eq  1 4.700000e-01    3.880000e+00
  C4vr  C4eq  1 4.700000e-01    3.880000e+00
  C3vr  X1eq  1 4.700000e-01    3.880000e+00
  C3vr  X2eq  1 4.700000e-01    3.690000e+00
  C3vr  X3eq  1 4.700000e-01    3.690000e+00
  C3vr  X4eq  1 4.700000e-01    3.690000e+00
  C3vr  C1eq  1 4.700000e-01    3.880000e+00
  C3vr  C2eq  1 4.700000e-01    3.880000e+00
  C3vr  C3eq  1 4.700000e-01    3.880000e+00
  C2vr  X1eq  1 4.700000e-01    3.690000e+00
  C2vr  X2eq  1 4.700000e-01    3.690000e+00
  C2vr  X3eq  1 4.700000e-01    3.690000e+00
  C2vr  X4eq  1 4.700000e-01    3.390000e+00
  C2vr  C1eq  1 4.700000e-01    4.060000e+00
  C2vr  C2eq  1 4.700000e-01    3.880000e+00
  C1vr  X1eq  1 4.700000e-01    3.690000e+00
  C1vr  X2eq  1 4.700000e-01    3.690000e+00
  C1vr  X3eq  1 4.700000e-01    3.690000e+00
  C1vr  X4eq  1 4.700000e-01    3.390000e+00
  C1vr  C1eq  1 4.700000e-01    3.880000e+00
  X4vr  X1eq  1 4.700000e-01    3.880000e+00
  X4vr  X2eq  1 4.700000e-01    3.880000e+00
  X4vr  X3eq  1 4.700000e-01    3.880000e+00
  X4vr  X4eq  1 4.700000e-01    3.880000e+00
  X3vr  X1eq  1 4.700000e-01    4.060000e+00
  X3vr  X2eq  1 4.700000e-01    4.060000e+00
  X3vr  X3eq  1 4.700000e-01    3.880000e+00
  X2vr  X1eq  1 4.700000e-01    4.060000e+00
  X2vr  X2eq  1 4.700000e-01    4.060000e+00
  X1vr  X1eq  1 4.700000e-01    4.250000e+00
  C6vr  C6eh  1 4.700000e-01    3.690000e+00
  C6vr  C5eh  1 4.700000e-01    3.520000e+00
  C6vr  C4eh  1 4.700000e-01    3.520000e+00
  C6vr  C3eh  1 4.700000e-01    3.390000e+00
  C6vr  C2eh  1 4.700000e-01    3.240000e+00
  C6vr  C1eh  1 4.700000e-01    3.070000e+00
  C6vr  X4eh  1 4.700000e-01    3.520000e+00
  C6vr  X3eh  1 4.700000e-01    3.520000e+00
  C6vr  X2eh  1 4.700000e-01    3.520000e+00
  C6vr  X1eh  1 4.700000e-01    3.520000e+00
  C5vr  C5eh  1 4.700000e-01    3.520000e+00
  C5vr  C4eh  1 4.700000e-01    3.520000e+00
  C5vr  C3eh  1 4.700000e-01    3.390000e+00
  C5vr  C2eh  1 4.700000e-01    3.240000e+00
  C5vr  C1eh  1 4.700000e-01    3.240000e+00
  C5vr  X4eh  1 4.700000e-01    3.390000e+00
  C5vr  X3eh  1 4.700000e-01    3.390000e+00
  C5vr  X2eh  1 4.700000e-01    3.390000e+00
  C5vr  X1eh  1 4.700000e-01    3.520000e+00
  C4vr  C4eh  1 4.700000e-01    3.520000e+00
  C4vr  C3eh  1 4.700000e-01    3.520000e+00
  C4vr  C2eh  1 4.700000e-01    3.390000e+00
  C4vr  C1eh  1 4.700000e-01    3.240000e+00
  C4vr  X4eh  1 4.700000e-01    3.390000e+00
  C4vr  X3eh  1 4.700000e-01    3.390000e+00
  C4vr  X2eh  1 4.700000e-01    3.390000e+00
  C4vr  X1eh  1 4.700000e-01    3.520000e+00
  C3vr  C3eh  1 4.700000e-01    3.520000e+00
  C3vr  C2eh  1 4.700000e-01    3.520000e+00
  C3vr  C1eh  1 4.700000e-01    3.520000e+00
  C3vr  X4eh  1 4.700000e-01    3.390000e+00
  C3vr  X3eh  1 4.700000e-01    3.390000e+00
  C3vr  X2eh  1 4.700000e-01    3.390000e+00
  C3vr  X1eh  1 4.700000e-01    3.520000e+00
  C2vr  C2eh  1 4.700000e-01    3.520000e+00
  C2vr  C1eh  1 4.700000e-01    3.690000e+00
  C2vr  X4eh  1 4.700000e-01    3.070000e+00
  C2vr  X3eh  1 4.700000e-01    3.390000e+00
  C2vr  X2eh  1 4.700000e-01    3.390000e+00
  C2vr  X1eh  1 4.700000e-01    3.390000e+00
  C1vr  C1eh  1 4.700000e-01    3.520000e+00
  C1vr  X4eh  1 4.700000e-01    3.070000e+00
  C1vr  X3eh  1 4.700000e-01    3.390000e+00
  C1vr  X2eh  1 4.700000e-01    3.390000e+00
  C1vr  X1eh  1 4.700000e-01    3.390000e+00
  X4vr  X4eh  1 4.700000e-01    3.520000e+00
  X4vr  X3eh  1 4.700000e-01    3.520000e+00
  X4vr  X2eh  1 4.700000e-01    3.520000e+00
  X4vr  X1eh  1 4.700000e-01    3.520000e+00
  X3vr  X3eh  1 4.700000e-01    3.520000e+00
  X3vr  X2eh  1 4.700000e-01    3.690000e+00
  X3vr  X1eh  1 4.700000e-01    3.690000e+00
  X2vr  X2eh  1 4.700000e-01    3.690000e+00
  X2vr  X1eh  1 4.700000e-01    3.690000e+00
  X1vr  X1eh  1 4.700000e-01    3.880000e+00
  C6vr  C6er  1 4.700000e-01    3.520000e+00
  C6vr  C5er  1 4.700000e-01    3.390000e+00
  C6vr  C4er  1 4.700000e-01    3.390000e+00
  C6vr  C3er  1 4.700000e-01    3.240000e+00
  C6vr  C2er  1 4.700000e-01    3.070000e+00
  C6vr  C1er  1 4.700000e-01    2.960000e+00
  C6vr  X4er  1 4.700000e-01    3.390000e+00
  C6vr  X3er  1 4.700000e-01    3.390000e+00
  C6vr  X2er  1 4.700000e-01    3.390000e+00
  C6vr  X1er  1 4.700000e-01    3.390000e+00
  C5vr  C5er  1 4.700000e-01    3.390000e+00
  C5vr  C4er  1 4.700000e-01    3.390000e+00
  C5vr  C3er  1 4.700000e-01    3.240000e+00
  C5vr  C2er  1 4.700000e-01    3.070000e+00
  C5vr  C1er  1 4.700000e-01    3.070000e+00
  C5vr  X4er  1 4.700000e-01    3.240000e+00
  C5vr  X3er  1 4.700000e-01    3.240000e+00
  C5vr  X2er  1 4.700000e-01    3.240000e+00
  C5vr  X1er  1 4.700000e-01    3.390000e+00
  C4vr  C4er  1 4.700000e-01    3.390000e+00
  C4vr  C3er  1 4.700000e-01    3.390000e+00
  C4vr  C2er  1 4.700000e-01    3.240000e+00
  C4vr  C1er  1 4.700000e-01    3.070000e+00
  C4vr  X4er  1 4.700000e-01    3.240000e+00
  C4vr  X3er  1 4.700000e-01    3.240000e+00
  C4vr  X2er  1 4.700000e-01    3.240000e+00
  C4vr  X1er  1 4.700000e-01    3.390000e+00
  C3vr  C3er  1 4.700000e-01    3.390000e+00
  C3vr  C2er  1 4.700000e-01    3.390000e+00
  C3vr  C1er  1 4.700000e-01    3.390000e+00
  C3vr  X4er  1 4.700000e-01    3.240000e+00
  C3vr  X3er  1 4.700000e-01    3.240000e+00
  C3vr  X2er  1 4.700000e-01    3.240000e+00
  C3vr  X1er  1 4.700000e-01    3.390000e+00
  C2vr  C2er  1 4.700000e-01    3.390000e+00
  C2vr  C1er  1 4.700000e-01    3.520000e+00
  C2vr  X4er  1 4.700000e-01    2.960000e+00
  C2vr  X3er  1 4.700000e-01    3.240000e+00
  C2vr  X2er  1 4.700000e-01    3.240000e+00
  C2vr  X1er  1 4.700000e-01    3.240000e+00
  C1vr  C1er  1 4.700000e-01    3.390000e+00
  C1vr  X4er  1 4.700000e-01    2.960000e+00
  C1vr  X3er  1 4.700000e-01    3.240000e+00
  C1vr  X2er  1 4.700000e-01    3.240000e+00
  C1vr  X1er  1 4.700000e-01    3.240000e+00
  X4vr  X4er  1 4.700000e-01    3.390000e+00
  X4vr  X3er  1 4.700000e-01    3.390000e+00
  X4vr  X2er  1 4.700000e-01    3.390000e+00
  X4vr  X1er  1 4.700000e-01    3.390000e+00
  X3vr  X3er  1 4.700000e-01    3.390000e+00
  X3vr  X2er  1 4.700000e-01    3.520000e+00
  X3vr  X1er  1 4.700000e-01    3.520000e+00
  X2vr  X2er  1 4.700000e-01    3.520000e+00
  X2vr  X1er  1 4.700000e-01    3.520000e+00
  X1vr  X1er  1 4.700000e-01    3.690000e+00
   C6e   C5v  1 4.700000e-01    3.520000e+00
   C6e   C4v  1 4.700000e-01    3.520000e+00
   C6e   C3v  1 4.700000e-01    3.390000e+00
   C6e   C2v  1 4.700000e-01    3.240000e+00
   C6e   C1v  1 4.700000e-01    3.070000e+00
   C6e   X4v  1 4.700000e-01    3.520000e+00
   C6e   X3v  1 4.700000e-01    3.520000e+00
   C6e   X2v  1 4.700000e-01    3.520000e+00
   C6e   X1v  1 4.700000e-01    3.520000e+00
   C5e   C4v  1 4.700000e-01    3.520000e+00
   C5e   C3v  1 4.700000e-01    3.390000e+00
   C5e   C2v  1 4.700000e-01    3.240000e+00
   C5e   C1v  1 4.700000e-01    3.240000e+00
   C5e   X4v  1 4.700000e-01    3.390000e+00
   C5e   X3v  1 4.700000e-01    3.390000e+00
   C5e   X2v  1 4.700000e-01    3.390000e+00
   C5e   X1v  1 4.700000e-01    3.520000e+00
   C4e   C3v  1 4.700000e-01    3.520000e+00
   C4e   C2v  1 4.700000e-01    3.390000e+00
   C4e   C1v  1 4.700000e-01    3.240000e+00
   C4e   X4v  1 4.700000e-01    3.390000e+00
   C4e   X3v  1 4.700000e-01    3.390000e+00
   C4e   X2v  1 4.700000e-01    3.390000e+00
   C4e   X1v  1 4.700000e-01    3.520000e+00
   C3e   C2v  1 4.700000e-01    3.520000e+00
   C3e   C1v  1 4.700000e-01    3.520000e+00
   C3e   X4v  1 4.700000e-01    3.390000e+00
   C3e   X3v  1 4.700000e-01    3.390000e+00
   C3e   X2v  1 4.700000e-01    3.390000e+00
   C3e   X1v  1 4.700000e-01    3.520000e+00
   C2e   C1v  1 4.700000e-01    3.690000e+00
   C2e   X4v  1 4.700000e-01    3.070000e+00
   C2e   X3v  1 4.700000e-01    3.390000e+00
   C2e   X2v  1 4.700000e-01    3.390000e+00
   C2e   X1v  1 4.700000e-01    3.390000e+00
   C1e   X4v  1 4.700000e-01    3.070000e+00
   C1e   X3v  1 4.700000e-01    3.390000e+00
   C1e   X2v  1 4.700000e-01    3.390000e+00
   C1e   X1v  1 4.700000e-01    3.390000e+00
   X4e   X3v  1 4.700000e-01    3.520000e+00
   X4e   X2v  1 4.700000e-01    3.520000e+00
   X4e   X1v  1 4.700000e-01    3.520000e+00
   X3e   X2v  1 4.700000e-01    3.690000e+00
   X3e   X1v  1 4.700000e-01    3.690000e+00
   X2e   X1v  1 4.700000e-01    3.690000e+00
   C6e  C5vq  1 4.700000e-01    3.880000e+00
   C6e  C4vq  1 4.700000e-01    3.880000e+00
   C5e  C4vq  1 4.700000e-01    3.880000e+00
   C6e  C3vq  1 4.700000e-01    3.690000e+00
   C5e  C3vq  1 4.700000e-01    3.690000e+00
   C4e  C3vq  1 4.700000e-01    3.880000e+00
   C6e  C2vq  1 4.700000e-01    3.520000e+00
   C5e  C2vq  1 4.700000e-01    3.520000e+00
   C4e  C2vq  1 4.700000e-01    3.690000e+00
   C3e  C2vq  1 4.700000e-01    3.880000e+00
   C6e  C1vq  1 4.700000e-01    3.390000e+00
   C5e  C1vq  1 4.700000e-01    3.520000e+00
   C4e  C1vq  1 4.700000e-01    3.520000e+00
   C3e  C1vq  1 4.700000e-01    3.880000e+00
   C2e  C1vq  1 4.700000e-01    4.060000e+00
   C6e  X4vq  1 4.700000e-01    3.880000e+00
   C5e  X4vq  1 4.700000e-01    3.690000e+00
   C4e  X4vq  1 4.700000e-01    3.690000e+00
   C3e  X4vq  1 4.700000e-01    3.690000e+00
   C2e  X4vq  1 4.700000e-01    3.390000e+00
   C1e  X4vq  1 4.700000e-01    3.390000e+00
   C6e  X3vq  1 4.700000e-01    3.880000e+00
   C5e  X3vq  1 4.700000e-01    3.690000e+00
   C4e  X3vq  1 4.700000e-01    3.690000e+00
   C3e  X3vq  1 4.700000e-01    3.690000e+00
   C2e  X3vq  1 4.700000e-01    3.690000e+00
   C1e  X3vq  1 4.700000e-01    3.690000e+00
   X4e  X3vq  1 4.700000e-01    3.880000e+00
   C6e  X2vq  1 4.700000e-01    3.880000e+00
   C5e  X2vq  1 4.700000e-01    3.690000e+00
   C4e  X2vq  1 4.700000e-01    3.690000e+00
   C3e  X2vq  1 4.700000e-01    3.690000e+00
   C2e  X2vq  1 4.700000e-01    3.690000e+00
   C1e  X2vq  1 4.700000e-01    3.690000e+00
   X4e  X2vq  1 4.700000e-01    3.880000e+00
   X3e  X2vq  1 4.700000e-01    4.060000e+00
   C6e  X1vq  1 4.700000e-01    3.880000e+00
   C5e  X1vq  1 4.700000e-01    3.880000e+00
   C4e  X1vq  1 4.700000e-01    3.880000e+00
   C3e  X1vq  1 4.700000e-01    3.880000e+00
   C2e  X1vq  1 4.700000e-01    3.690000e+00
   C1e  X1vq  1 4.700000e-01    3.690000e+00
   X4e  X1vq  1 4.700000e-01    3.880000e+00
   X3e  X1vq  1 4.700000e-01    4.060000e+00
   X2e  X1vq  1 4.700000e-01    4.060000e+00
   C6e  C5vh  1 4.700000e-01    3.520000e+00
   C6e  C4vh  1 4.700000e-01    3.520000e+00
   C5e  C4vh  1 4.700000e-01    3.520000e+00
   C6e  C3vh  1 4.700000e-01    3.390000e+00
   C5e  C3vh  1 4.700000e-01    3.390000e+00
   C4e  C3vh  1 4.700000e-01    3.520000e+00
   C6e  C2vh  1 4.700000e-01    3.240000e+00
   C5e  C2vh  1 4.700000e-01    3.240000e+00
   C4e  C2vh  1 4.700000e-01    3.390000e+00
   C3e  C2vh  1 4.700000e-01    3.520000e+00
   C6e  C1vh  1 4.700000e-01    3.070000e+00
   C5e  C1vh  1 4.700000e-01    3.240000e+00
   C4e  C1vh  1 4.700000e-01    3.240000e+00
   C3e  C1vh  1 4.700000e-01    3.520000e+00
   C2e  C1vh  1 4.700000e-01    3.690000e+00
   C6e  X4vh  1 4.700000e-01    3.520000e+00
   C5e  X4vh  1 4.700000e-01    3.390000e+00
   C4e  X4vh  1 4.700000e-01    3.390000e+00
   C3e  X4vh  1 4.700000e-01    3.390000e+00
   C2e  X4vh  1 4.700000e-01    3.070000e+00
   C1e  X4vh  1 4.700000e-01    3.070000e+00
   C6e  X3vh  1 4.700000e-01    3.520000e+00
   C5e  X3vh  1 4.700000e-01    3.390000e+00
   C4e  X3vh  1 4.700000e-01    3.390000e+00
   C3e  X3vh  1 4.700000e-01    3.390000e+00
   C2e  X3vh  1 4.700000e-01    3.390000e+00
   C1e  X3vh  1 4.700000e-01    3.390000e+00
   X4e  X3vh  1 4.700000e-01    3.520000e+00
   C6e  X2vh  1 4.700000e-01    3.520000e+00
   C5e  X2vh  1 4.700000e-01    3.390000e+00
   C4e  X2vh  1 4.700000e-01    3.390000e+00
   C3e  X2vh  1 4.700000e-01    3.390000e+00
   C2e  X2vh  1 4.700000e-01    3.390000e+00
   C1e  X2vh  1 4.700000e-01    3.390000e+00
   X4e  X2vh  1 4.700000e-01    3.520000e+00
   X3e  X2vh  1 4.700000e-01    3.690000e+00
   C6e  X1vh  1 4.700000e-01    3.520000e+00
   C5e  X1vh  1 4.700000e-01    3.520000e+00
   C4e  X1vh  1 4.700000e-01    3.520000e+00
   C3e  X1vh  1 4.700000e-01    3.520000e+00
   C2e  X1vh  1 4.700000e-01    3.390000e+00
   C1e  X1vh  1 4.700000e-01    3.390000e+00
   X4e  X1vh  1 4.700000e-01    3.520000e+00
   X3e  X1vh  1 4.700000e-01    3.690000e+00
   X2e  X1vh  1 4.700000e-01    3.690000e+00
   C6e  C5vr  1 4.700000e-01    3.520000e+00
   C6e  C4vr  1 4.700000e-01    3.520000e+00
   C5e  C4vr  1 4.700000e-01    3.520000e+00
   C6e  C3vr  1 4.700000e-01    3.390000e+00
   C5e  C3vr  1 4.700000e-01    3.390000e+00
   C4e  C3vr  1 4.700000e-01    3.520000e+00
   C6e  C2vr  1 4.700000e-01    3.240000e+00
   C5e  C2vr  1 4.700000e-01    3.240000e+00
   C4e  C2vr  1 4.700000e-01    3.390000e+00
   C3e  C2vr  1 4.700000e-01    3.520000e+00
   C6e  C1vr  1 4.700000e-01    3.070000e+00
   C5e  C1vr  1 4.700000e-01    3.240000e+00
   C4e  C1vr  1 4.700000e-01    3.240000e+00
   C3e  C1vr  1 4.700000e-01    3.520000e+00
   C2e  C1vr  1 4.700000e-01    3.690000e+00
   C6e  X4vr  1 4.700000e-01    3.520000e+00
   C5e  X4vr  1 4.700000e-01    3.390000e+00
   C4e  X4vr  1 4.700000e-01    3.390000e+00
   C3e  X4vr  1 4.700000e-01    3.390000e+00
   C2e  X4vr  1 4.700000e-01    3.070000e+00
   C1e  X4vr  1 4.700000e-01    3.070000e+00
   C6e  X3vr  1 4.700000e-01    3.520000e+00
   C5e  X3vr  1 4.700000e-01    3.390000e+00
   C4e  X3vr  1 4.700000e-01    3.390000e+00
   C3e  X3vr  1 4.700000e-01    3.390000e+00
   C2e  X3vr  1 4.700000e-01    3.390000e+00
   C1e  X3vr  1 4.700000e-01    3.390000e+00
   X4e  X3vr  1 4.700000e-01    3.520000e+00
   C6e  X2vr  1 4.700000e-01    3.520000e+00
   C5e  X2vr  1 4.700000e-01    3.390000e+00
   C4e  X2vr  1 4.700000e-01    3.390000e+00
   C3e  X2vr  1 4.700000e-01    3.390000e+00
   C2e  X2vr  1 4.700000e-01    3.390000e+00
   C1e  X2vr  1 4.700000e-01    3.390000e+00
   X4e  X2vr  1 4.700000e-01    3.520000e+00
   X3e  X2vr  1 4.700000e-01    3.690000e+00
   C6e  X1vr  1 4.700000e-01    3.520000e+00
   C5e  X1vr  1 4.700000e-01    3.520000e+00
   C4e  X1vr  1 4.700000e-01    3.520000e+00
   C3e  X1vr  1 4.700000e-01    3.520000e+00
   C2e  X1vr  1 4.700000e-01    3.390000e+00
   C1e  X1vr  1 4.700000e-01    3.390000e+00
   X4e  X1vr  1 4.700000e-01    3.520000e+00
   X3e  X1vr  1 4.700000e-01    3.690000e+00
   X2e  X1vr  1 4.700000e-01    3.690000e+00
  X2eq   X1v  1 4.700000e-01    4.060000e+00
  X3eq   X2v  1 4.700000e-01    4.060000e+00
  X3eq   X1v  1 4.700000e-01    4.060000e+00
  X4eq   X3v  1 4.700000e-01    3.880000e+00
  X4eq   X2v  1 4.700000e-01    3.880000e+00
  X4eq   X1v  1 4.700000e-01    3.880000e+00
  C1eq   X4v  1 4.700000e-01    3.390000e+00
  C1eq   X3v  1 4.700000e-01    3.690000e+00
  C1eq   X2v  1 4.700000e-01    3.690000e+00
  C1eq   X1v  1 4.700000e-01    3.690000e+00
  C2eq   C1v  1 4.700000e-01    4.060000e+00
  C2eq   X4v  1 4.700000e-01    3.390000e+00
  C2eq   X3v  1 4.700000e-01    3.690000e+00
  C2eq   X2v  1 4.700000e-01    3.690000e+00
  C2eq   X1v  1 4.700000e-01    3.690000e+00
  C3eq   C2v  1 4.700000e-01    3.880000e+00
  C3eq   C1v  1 4.700000e-01    3.880000e+00
  C3eq   X4v  1 4.700000e-01    3.690000e+00
  C3eq   X3v  1 4.700000e-01    3.690000e+00
  C3eq   X2v  1 4.700000e-01    3.690000e+00
  C3eq   X1v  1 4.700000e-01    3.880000e+00
  C4eq   C3v  1 4.700000e-01    3.880000e+00
  C4eq   C2v  1 4.700000e-01    3.690000e+00
  C4eq   C1v  1 4.700000e-01    3.520000e+00
  C4eq   X4v  1 4.700000e-01    3.690000e+00
  C4eq   X3v  1 4.700000e-01    3.690000e+00
  C4eq   X2v  1 4.700000e-01    3.690000e+00
  C4eq   X1v  1 4.700000e-01    3.880000e+00
  C5eq   C4v  1 4.700000e-01    3.880000e+00
  C5eq   C3v  1 4.700000e-01    3.690000e+00
  C5eq   C2v  1 4.700000e-01    3.520000e+00
  C5eq   C1v  1 4.700000e-01    3.520000e+00
  C5eq   X4v  1 4.700000e-01    3.690000e+00
  C5eq   X3v  1 4.700000e-01    3.690000e+00
  C5eq   X2v  1 4.700000e-01    3.690000e+00
  C5eq   X1v  1 4.700000e-01    3.880000e+00
  C6eq   C5v  1 4.700000e-01    3.880000e+00
  C6eq   C4v  1 4.700000e-01    3.880000e+00
  C6eq   C3v  1 4.700000e-01    3.690000e+00
  C6eq   C2v  1 4.700000e-01    3.520000e+00
  C6eq   C1v  1 4.700000e-01    3.390000e+00
  C6eq   X4v  1 4.700000e-01    3.880000e+00
  C6eq   X3v  1 4.700000e-01    3.880000e+00
  C6eq   X2v  1 4.700000e-01    3.880000e+00
  C6eq   X1v  1 4.700000e-01    3.880000e+00
  C6eq  C5vq  1 4.700000e-01    3.880000e+00
  C6eq  C4vq  1 4.700000e-01    3.880000e+00
  C6eq  C3vq  1 4.700000e-01    3.690000e+00
  C6eq  C2vq  1 4.700000e-01    3.520000e+00
  C6eq  C1vq  1 4.700000e-01    3.390000e+00
  C6eq  X4vq  1 4.700000e-01    3.880000e+00
  C6eq  X3vq  1 4.700000e-01    3.880000e+00
  C6eq  X2vq  1 4.700000e-01    3.880000e+00
  C6eq  X1vq  1 4.700000e-01    3.880000e+00
  C5eq  C4vq  1 4.700000e-01    3.880000e+00
  C5eq  C3vq  1 4.700000e-01    3.690000e+00
  C5eq  C2vq  1 4.700000e-01    3.520000e+00
  C5eq  C1vq  1 4.700000e-01    3.520000e+00
  C5eq  X4vq  1 4.700000e-01    3.690000e+00
  C5eq  X3vq  1 4.700000e-01    3.690000e+00
  C5eq  X2vq  1 4.700000e-01    3.690000e+00
  C5eq  X1vq  1 4.700000e-01    3.880000e+00
  C4eq  C3vq  1 4.700000e-01    3.880000e+00
  C4eq  C2vq  1 4.700000e-01    3.690000e+00
  C4eq  C1vq  1 4.700000e-01    3.520000e+00
  C4eq  X4vq  1 4.700000e-01    3.690000e+00
  C4eq  X3vq  1 4.700000e-01    3.690000e+00
  C4eq  X2vq  1 4.700000e-01    3.690000e+00
  C4eq  X1vq  1 4.700000e-01    3.880000e+00
  C3eq  C2vq  1 4.700000e-01    3.880000e+00
  C3eq  C1vq  1 4.700000e-01    3.880000e+00
  C3eq  X4vq  1 4.700000e-01    3.690000e+00
  C3eq  X3vq  1 4.700000e-01    3.690000e+00
  C3eq  X2vq  1 4.700000e-01    3.690000e+00
  C3eq  X1vq  1 4.700000e-01    3.880000e+00
  C2eq  C1vq  1 4.700000e-01    4.060000e+00
  C2eq  X4vq  1 4.700000e-01    3.390000e+00
  C2eq  X3vq  1 4.700000e-01    3.690000e+00
  C2eq  X2vq  1 4.700000e-01    3.690000e+00
  C2eq  X1vq  1 4.700000e-01    3.690000e+00
  C1eq  X4vq  1 4.700000e-01    3.390000e+00
  C1eq  X3vq  1 4.700000e-01    3.690000e+00
  C1eq  X2vq  1 4.700000e-01    3.690000e+00
  C1eq  X1vq  1 4.700000e-01    3.690000e+00
  X4eq  X3vq  1 4.700000e-01    3.880000e+00
  X4eq  X2vq  1 4.700000e-01    3.880000e+00
  X4eq  X1vq  1 4.700000e-01    3.880000e+00
  X3eq  X2vq  1 4.700000e-01    4.060000e+00
  X3eq  X1vq  1 4.700000e-01    4.060000e+00
  X2eq  X1vq  1 4.700000e-01    4.060000e+00
  C6eq  C5vh  1 4.700000e-01    3.880000e+00
  C5eq  C4vh  1 4.700000e-01    3.880000e+00
  C6eq  C4vh  1 4.700000e-01    3.880000e+00
  C4eq  C3vh  1 4.700000e-01    3.880000e+00
  C5eq  C3vh  1 4.700000e-01    3.690000e+00
  C6eq  C3vh  1 4.700000e-01    3.690000e+00
  C3eq  C2vh  1 4.700000e-01    3.880000e+00
  C4eq  C2vh  1 4.700000e-01    3.690000e+00
  C5eq  C2vh  1 4.700000e-01    3.520000e+00
  C6eq  C2vh  1 4.700000e-01    3.520000e+00
  C2eq  C1vh  1 4.700000e-01    4.060000e+00
  C3eq  C1vh  1 4.700000e-01    3.880000e+00
  C4eq  C1vh  1 4.700000e-01    3.520000e+00
  C5eq  C1vh  1 4.700000e-01    3.520000e+00
  C6eq  C1vh  1 4.700000e-01    3.390000e+00
  C1eq  X4vh  1 4.700000e-01    3.390000e+00
  C2eq  X4vh  1 4.700000e-01    3.390000e+00
  C3eq  X4vh  1 4.700000e-01    3.690000e+00
  C4eq  X4vh  1 4.700000e-01    3.690000e+00
  C5eq  X4vh  1 4.700000e-01    3.690000e+00
  C6eq  X4vh  1 4.700000e-01    3.880000e+00
  X4eq  X3vh  1 4.700000e-01    3.880000e+00
  C1eq  X3vh  1 4.700000e-01    3.690000e+00
  C2eq  X3vh  1 4.700000e-01    3.690000e+00
  C3eq  X3vh  1 4.700000e-01    3.690000e+00
  C4eq  X3vh  1 4.700000e-01    3.690000e+00
  C5eq  X3vh  1 4.700000e-01    3.690000e+00
  C6eq  X3vh  1 4.700000e-01    3.880000e+00
  X3eq  X2vh  1 4.700000e-01    4.060000e+00
  X4eq  X2vh  1 4.700000e-01    3.880000e+00
  C1eq  X2vh  1 4.700000e-01    3.690000e+00
  C2eq  X2vh  1 4.700000e-01    3.690000e+00
  C3eq  X2vh  1 4.700000e-01    3.690000e+00
  C4eq  X2vh  1 4.700000e-01    3.690000e+00
  C5eq  X2vh  1 4.700000e-01    3.690000e+00
  C6eq  X2vh  1 4.700000e-01    3.880000e+00
  X2eq  X1vh  1 4.700000e-01    4.060000e+00
  X3eq  X1vh  1 4.700000e-01    4.060000e+00
  X4eq  X1vh  1 4.700000e-01    3.880000e+00
  C1eq  X1vh  1 4.700000e-01    3.690000e+00
  C2eq  X1vh  1 4.700000e-01    3.690000e+00
  C3eq  X1vh  1 4.700000e-01    3.880000e+00
  C4eq  X1vh  1 4.700000e-01    3.880000e+00
  C5eq  X1vh  1 4.700000e-01    3.880000e+00
  C6eq  X1vh  1 4.700000e-01    3.880000e+00
  C6eq  C5vr  1 4.700000e-01    3.880000e+00
  C5eq  C4vr  1 4.700000e-01    3.880000e+00
  C6eq  C4vr  1 4.700000e-01    3.880000e+00
  C4eq  C3vr  1 4.700000e-01    3.880000e+00
  C5eq  C3vr  1 4.700000e-01    3.690000e+00
  C6eq  C3vr  1 4.700000e-01    3.690000e+00
  C3eq  C2vr  1 4.700000e-01    3.880000e+00
  C4eq  C2vr  1 4.700000e-01    3.690000e+00
  C5eq  C2vr  1 4.700000e-01    3.520000e+00
  C6eq  C2vr  1 4.700000e-01    3.520000e+00
  C2eq  C1vr  1 4.700000e-01    4.060000e+00
  C3eq  C1vr  1 4.700000e-01    3.880000e+00
  C4eq  C1vr  1 4.700000e-01    3.520000e+00
  C5eq  C1vr  1 4.700000e-01    3.520000e+00
  C6eq  C1vr  1 4.700000e-01    3.390000e+00
  C1eq  X4vr  1 4.700000e-01    3.390000e+00
  C2eq  X4vr  1 4.700000e-01    3.390000e+00
  C3eq  X4vr  1 4.700000e-01    3.690000e+00
  C4eq  X4vr  1 4.700000e-01    3.690000e+00
  C5eq  X4vr  1 4.700000e-01    3.690000e+00
  C6eq  X4vr  1 4.700000e-01    3.880000e+00
  X4eq  X3vr  1 4.700000e-01    3.880000e+00
  C1eq  X3vr  1 4.700000e-01    3.690000e+00
  C2eq  X3vr  1 4.700000e-01    3.690000e+00
  C3eq  X3vr  1 4.700000e-01    3.690000e+00
  C4eq  X3vr  1 4.700000e-01    3.690000e+00
  C5eq  X3vr  1 4.700000e-01    3.690000e+00
  C6eq  X3vr  1 4.700000e-01    3.880000e+00
  X3eq  X2vr  1 4.700000e-01    4.060000e+00
  X4eq  X2vr  1 4.700000e-01    3.880000e+00
  C1eq  X2vr  1 4.700000e-01    3.690000e+00
  C2eq  X2vr  1 4.700000e-01    3.690000e+00
  C3eq  X2vr  1 4.700000e-01    3.690000e+00
  C4eq  X2vr  1 4.700000e-01    3.690000e+00
  C5eq  X2vr  1 4.700000e-01    3.690000e+00
  C6eq  X2vr  1 4.700000e-01    3.880000e+00
  X2eq  X1vr  1 4.700000e-01    4.060000e+00
  X3eq  X1vr  1 4.700000e-01    4.060000e+00
  X4eq  X1vr  1 4.700000e-01    3.880000e+00
  C1eq  X1vr  1 4.700000e-01    3.690000e+00
  C2eq  X1vr  1 4.700000e-01    3.690000e+00
  C3eq  X1vr  1 4.700000e-01    3.880000e+00
  C4eq  X1vr  1 4.700000e-01    3.880000e+00
  C5eq  X1vr  1 4.700000e-01    3.880000e+00
  C6eq  X1vr  1 4.700000e-01    3.880000e+00
  X2eh   X1v  1 4.700000e-01    3.690000e+00
  X3eh   X2v  1 4.700000e-01    3.690000e+00
  X3eh   X1v  1 4.700000e-01    3.690000e+00
  X4eh   X3v  1 4.700000e-01    3.520000e+00
  X4eh   X2v  1 4.700000e-01    3.520000e+00
  X4eh   X1v  1 4.700000e-01    3.520000e+00
  C1eh   X4v  1 4.700000e-01    3.070000e+00
  C1eh   X3v  1 4.700000e-01    3.390000e+00
  C1eh   X2v  1 4.700000e-01    3.390000e+00
  C1eh   X1v  1 4.700000e-01    3.390000e+00
  C2eh   C1v  1 4.700000e-01    3.690000e+00
  C2eh   X4v  1 4.700000e-01    3.070000e+00
  C2eh   X3v  1 4.700000e-01    3.390000e+00
  C2eh   X2v  1 4.700000e-01    3.390000e+00
  C2eh   X1v  1 4.700000e-01    3.390000e+00
  C3eh   C2v  1 4.700000e-01    3.520000e+00
  C3eh   C1v  1 4.700000e-01    3.520000e+00
  C3eh   X4v  1 4.700000e-01    3.390000e+00
  C3eh   X3v  1 4.700000e-01    3.390000e+00
  C3eh   X2v  1 4.700000e-01    3.390000e+00
  C3eh   X1v  1 4.700000e-01    3.520000e+00
  C4eh   C3v  1 4.700000e-01    3.520000e+00
  C4eh   C2v  1 4.700000e-01    3.390000e+00
  C4eh   C1v  1 4.700000e-01    3.240000e+00
  C4eh   X4v  1 4.700000e-01    3.390000e+00
  C4eh   X3v  1 4.700000e-01    3.390000e+00
  C4eh   X2v  1 4.700000e-01    3.390000e+00
  C4eh   X1v  1 4.700000e-01    3.520000e+00
  C5eh   C4v  1 4.700000e-01    3.520000e+00
  C5eh   C3v  1 4.700000e-01    3.390000e+00
  C5eh   C2v  1 4.700000e-01    3.240000e+00
  C5eh   C1v  1 4.700000e-01    3.240000e+00
  C5eh   X4v  1 4.700000e-01    3.390000e+00
  C5eh   X3v  1 4.700000e-01    3.390000e+00
  C5eh   X2v  1 4.700000e-01    3.390000e+00
  C5eh   X1v  1 4.700000e-01    3.520000e+00
  C6eh   C5v  1 4.700000e-01    3.520000e+00
  C6eh   C4v  1 4.700000e-01    3.520000e+00
  C6eh   C3v  1 4.700000e-01    3.390000e+00
  C6eh   C2v  1 4.700000e-01    3.240000e+00
  C6eh   C1v  1 4.700000e-01    3.070000e+00
  C6eh   X4v  1 4.700000e-01    3.520000e+00
  C6eh   X3v  1 4.700000e-01    3.520000e+00
  C6eh   X2v  1 4.700000e-01    3.520000e+00
  C6eh   X1v  1 4.700000e-01    3.520000e+00
  C6eh  C5vq  1 4.700000e-01    3.880000e+00
  C6eh  C4vq  1 4.700000e-01    3.880000e+00
  C6eh  C3vq  1 4.700000e-01    3.690000e+00
  C6eh  C2vq  1 4.700000e-01    3.520000e+00
  C6eh  C1vq  1 4.700000e-01    3.390000e+00
  C6eh  X4vq  1 4.700000e-01    3.880000e+00
  C6eh  X3vq  1 4.700000e-01    3.880000e+00
  C6eh  X2vq  1 4.700000e-01    3.880000e+00
  C6eh  X1vq  1 4.700000e-01    3.880000e+00
  C5eh  C4vq  1 4.700000e-01    3.880000e+00
  C5eh  C3vq  1 4.700000e-01    3.690000e+00
  C5eh  C2vq  1 4.700000e-01    3.520000e+00
  C5eh  C1vq  1 4.700000e-01    3.520000e+00
  C5eh  X4vq  1 4.700000e-01    3.690000e+00
  C5eh  X3vq  1 4.700000e-01    3.690000e+00
  C5eh  X2vq  1 4.700000e-01    3.690000e+00
  C5eh  X1vq  1 4.700000e-01    3.880000e+00
  C4eh  C3vq  1 4.700000e-01    3.880000e+00
  C4eh  C2vq  1 4.700000e-01    3.690000e+00
  C4eh  C1vq  1 4.700000e-01    3.520000e+00
  C4eh  X4vq  1 4.700000e-01    3.690000e+00
  C4eh  X3vq  1 4.700000e-01    3.690000e+00
  C4eh  X2vq  1 4.700000e-01    3.690000e+00
  C4eh  X1vq  1 4.700000e-01    3.880000e+00
  C3eh  C2vq  1 4.700000e-01    3.880000e+00
  C3eh  C1vq  1 4.700000e-01    3.880000e+00
  C3eh  X4vq  1 4.700000e-01    3.690000e+00
  C3eh  X3vq  1 4.700000e-01    3.690000e+00
  C3eh  X2vq  1 4.700000e-01    3.690000e+00
  C3eh  X1vq  1 4.700000e-01    3.880000e+00
  C2eh  C1vq  1 4.700000e-01    4.060000e+00
  C2eh  X4vq  1 4.700000e-01    3.390000e+00
  C2eh  X3vq  1 4.700000e-01    3.690000e+00
  C2eh  X2vq  1 4.700000e-01    3.690000e+00
  C2eh  X1vq  1 4.700000e-01    3.690000e+00
  C1eh  X4vq  1 4.700000e-01    3.390000e+00
  C1eh  X3vq  1 4.700000e-01    3.690000e+00
  C1eh  X2vq  1 4.700000e-01    3.690000e+00
  C1eh  X1vq  1 4.700000e-01    3.690000e+00
  X4eh  X3vq  1 4.700000e-01    3.880000e+00
  X4eh  X2vq  1 4.700000e-01    3.880000e+00
  X4eh  X1vq  1 4.700000e-01    3.880000e+00
  X3eh  X2vq  1 4.700000e-01    4.060000e+00
  X3eh  X1vq  1 4.700000e-01    4.060000e+00
  X2eh  X1vq  1 4.700000e-01    4.060000e+00
  C6eh  C5vh  1 4.700000e-01    3.690000e+00
  C6eh  C4vh  1 4.700000e-01    3.690000e+00
  C6eh  C3vh  1 4.700000e-01    3.520000e+00
  C6eh  C2vh  1 4.700000e-01    3.390000e+00
  C6eh  C1vh  1 4.700000e-01    3.240000e+00
  C6eh  X4vh  1 4.700000e-01    3.690000e+00
  C6eh  X3vh  1 4.700000e-01    3.690000e+00
  C6eh  X2vh  1 4.700000e-01    3.690000e+00
  C6eh  X1vh  1 4.700000e-01    3.690000e+00
  C5eh  C4vh  1 4.700000e-01    3.690000e+00
  C5eh  C3vh  1 4.700000e-01    3.520000e+00
  C5eh  C2vh  1 4.700000e-01    3.390000e+00
  C5eh  C1vh  1 4.700000e-01    3.390000e+00
  C5eh  X4vh  1 4.700000e-01    3.520000e+00
  C5eh  X3vh  1 4.700000e-01    3.520000e+00
  C5eh  X2vh  1 4.700000e-01    3.520000e+00
  C5eh  X1vh  1 4.700000e-01    3.690000e+00
  C4eh  C3vh  1 4.700000e-01    3.690000e+00
  C4eh  C2vh  1 4.700000e-01    3.520000e+00
  C4eh  C1vh  1 4.700000e-01    3.390000e+00
  C4eh  X4vh  1 4.700000e-01    3.520000e+00
  C4eh  X3vh  1 4.700000e-01    3.520000e+00
  C4eh  X2vh  1 4.700000e-01    3.520000e+00
  C4eh  X1vh  1 4.700000e-01    3.690000e+00
  C3eh  C2vh  1 4.700000e-01    3.690000e+00
  C3eh  C1vh  1 4.700000e-01    3.690000e+00
  C3eh  X4vh  1 4.700000e-01    3.520000e+00
  C3eh  X3vh  1 4.700000e-01    3.520000e+00
  C3eh  X2vh  1 4.700000e-01    3.520000e+00
  C3eh  X1vh  1 4.700000e-01    3.690000e+00
  C2eh  C1vh  1 4.700000e-01    3.880000e+00
  C2eh  X4vh  1 4.700000e-01    3.240000e+00
  C2eh  X3vh  1 4.700000e-01    3.520000e+00
  C2eh  X2vh  1 4.700000e-01    3.520000e+00
  C2eh  X1vh  1 4.700000e-01    3.520000e+00
  C1eh  X4vh  1 4.700000e-01    3.240000e+00
  C1eh  X3vh  1 4.700000e-01    3.520000e+00
  C1eh  X2vh  1 4.700000e-01    3.520000e+00
  C1eh  X1vh  1 4.700000e-01    3.520000e+00
  X4eh  X3vh  1 4.700000e-01    3.690000e+00
  X4eh  X2vh  1 4.700000e-01    3.690000e+00
  X4eh  X1vh  1 4.700000e-01    3.690000e+00
  X3eh  X2vh  1 4.700000e-01    3.880000e+00
  X3eh  X1vh  1 4.700000e-01    3.880000e+00
  X2eh  X1vh  1 4.700000e-01    3.880000e+00
  C6eh  C5vr  1 4.700000e-01    3.520000e+00
  C6eh  C4vr  1 4.700000e-01    3.520000e+00
  C6eh  C3vr  1 4.700000e-01    3.390000e+00
  C6eh  C2vr  1 4.700000e-01    3.240000e+00
  C6eh  C1vr  1 4.700000e-01    3.070000e+00
  C6eh  X4vr  1 4.700000e-01    3.520000e+00
  C6eh  X3vr  1 4.700000e-01    3.520000e+00
  C6eh  X2vr  1 4.700000e-01    3.520000e+00
  C6eh  X1vr  1 4.700000e-01    3.520000e+00
  C5eh  C4vr  1 4.700000e-01    3.520000e+00
  C5eh  C3vr  1 4.700000e-01    3.390000e+00
  C5eh  C2vr  1 4.700000e-01    3.240000e+00
  C5eh  C1vr  1 4.700000e-01    3.240000e+00
  C5eh  X4vr  1 4.700000e-01    3.390000e+00
  C5eh  X3vr  1 4.700000e-01    3.390000e+00
  C5eh  X2vr  1 4.700000e-01    3.390000e+00
  C5eh  X1vr  1 4.700000e-01    3.520000e+00
  C4eh  C3vr  1 4.700000e-01    3.520000e+00
  C4eh  C2vr  1 4.700000e-01    3.390000e+00
  C4eh  C1vr  1 4.700000e-01    3.240000e+00
  C4eh  X4vr  1 4.700000e-01    3.390000e+00
  C4eh  X3vr  1 4.700000e-01    3.390000e+00
  C4eh  X2vr  1 4.700000e-01    3.390000e+00
  C4eh  X1vr  1 4.700000e-01    3.520000e+00
  C3eh  C2vr  1 4.700000e-01    3.520000e+00
  C3eh  C1vr  1 4.700000e-01    3.520000e+00
  C3eh  X4vr  1 4.700000e-01    3.390000e+00
  C3eh  X3vr  1 4.700000e-01    3.390000e+00
  C3eh  X2vr  1 4.700000e-01    3.390000e+00
  C3eh  X1vr  1 4.700000e-01    3.520000e+00
  C2eh  C1vr  1 4.700000e-01    3.690000e+00
  C2eh  X4vr  1 4.700000e-01    3.070000e+00
  C2eh  X3vr  1 4.700000e-01    3.390000e+00
  C2eh  X2vr  1 4.700000e-01    3.390000e+00
  C2eh  X1vr  1 4.700000e-01    3.390000e+00
  C1eh  X4vr  1 4.700000e-01    3.070000e+00
  C1eh  X3vr  1 4.700000e-01    3.390000e+00
  C1eh  X2vr  1 4.700000e-01    3.390000e+00
  C1eh  X1vr  1 4.700000e-01    3.390000e+00
  X4eh  X3vr  1 4.700000e-01    3.520000e+00
  X4eh  X2vr  1 4.700000e-01    3.520000e+00
  X4eh  X1vr  1 4.700000e-01    3.520000e+00
  X3eh  X2vr  1 4.700000e-01    3.690000e+00
  X3eh  X1vr  1 4.700000e-01    3.690000e+00
  X2eh  X1vr  1 4.700000e-01    3.690000e+00
  X2er   X1v  1 4.700000e-01    3.690000e+00
  X3er   X2v  1 4.700000e-01    3.690000e+00
  X3er   X1v  1 4.700000e-01    3.690000e+00
  X4er   X3v  1 4.700000e-01    3.520000e+00
  X4er   X2v  1 4.700000e-01    3.520000e+00
  X4er   X1v  1 4.700000e-01    3.520000e+00
  C1er   X4v  1 4.700000e-01    3.070000e+00
  C1er   X3v  1 4.700000e-01    3.390000e+00
  C1er   X2v  1 4.700000e-01    3.390000e+00
  C1er   X1v  1 4.700000e-01    3.390000e+00
  C2er   C1v  1 4.700000e-01    3.690000e+00
  C2er   X4v  1 4.700000e-01    3.070000e+00
  C2er   X3v  1 4.700000e-01    3.390000e+00
  C2er   X2v  1 4.700000e-01    3.390000e+00
  C2er   X1v  1 4.700000e-01    3.390000e+00
  C3er   C2v  1 4.700000e-01    3.520000e+00
  C3er   C1v  1 4.700000e-01    3.520000e+00
  C3er   X4v  1 4.700000e-01    3.390000e+00
  C3er   X3v  1 4.700000e-01    3.390000e+00
  C3er   X2v  1 4.700000e-01    3.390000e+00
  C3er   X1v  1 4.700000e-01    3.520000e+00
  C4er   C3v  1 4.700000e-01    3.520000e+00
  C4er   C2v  1 4.700000e-01    3.390000e+00
  C4er   C1v  1 4.700000e-01    3.240000e+00
  C4er   X4v  1 4.700000e-01    3.390000e+00
  C4er   X3v  1 4.700000e-01    3.390000e+00
  C4er   X2v  1 4.700000e-01    3.390000e+00
  C4er   X1v  1 4.700000e-01    3.520000e+00
  C5er   C4v  1 4.700000e-01    3.520000e+00
  C5er   C3v  1 4.700000e-01    3.390000e+00
  C5er   C2v  1 4.700000e-01    3.240000e+00
  C5er   C1v  1 4.700000e-01    3.240000e+00
  C5er   X4v  1 4.700000e-01    3.390000e+00
  C5er   X3v  1 4.700000e-01    3.390000e+00
  C5er   X2v  1 4.700000e-01    3.390000e+00
  C5er   X1v  1 4.700000e-01    3.520000e+00
  C6er   C5v  1 4.700000e-01    3.520000e+00
  C6er   C4v  1 4.700000e-01    3.520000e+00
  C6er   C3v  1 4.700000e-01    3.390000e+00
  C6er   C2v  1 4.700000e-01    3.240000e+00
  C6er   C1v  1 4.700000e-01    3.070000e+00
  C6er   X4v  1 4.700000e-01    3.520000e+00
  C6er   X3v  1 4.700000e-01    3.520000e+00
  C6er   X2v  1 4.700000e-01    3.520000e+00
  C6er   X1v  1 4.700000e-01    3.520000e+00
  C6er  C5vq  1 4.700000e-01    3.880000e+00
  C6er  C4vq  1 4.700000e-01    3.880000e+00
  C6er  C3vq  1 4.700000e-01    3.690000e+00
  C6er  C2vq  1 4.700000e-01    3.520000e+00
  C6er  C1vq  1 4.700000e-01    3.390000e+00
  C6er  X4vq  1 4.700000e-01    3.880000e+00
  C6er  X3vq  1 4.700000e-01    3.880000e+00
  C6er  X2vq  1 4.700000e-01    3.880000e+00
  C6er  X1vq  1 4.700000e-01    3.880000e+00
  C5er  C4vq  1 4.700000e-01    3.880000e+00
  C5er  C3vq  1 4.700000e-01    3.690000e+00
  C5er  C2vq  1 4.700000e-01    3.520000e+00
  C5er  C1vq  1 4.700000e-01    3.520000e+00
  C5er  X4vq  1 4.700000e-01    3.690000e+00
  C5er  X3vq  1 4.700000e-01    3.690000e+00
  C5er  X2vq  1 4.700000e-01    3.690000e+00
  C5er  X1vq  1 4.700000e-01    3.880000e+00
  C4er  C3vq  1 4.700000e-01    3.880000e+00
  C4er  C2vq  1 4.700000e-01    3.690000e+00
  C4er  C1vq  1 4.700000e-01    3.520000e+00
  C4er  X4vq  1 4.700000e-01    3.690000e+00
  C4er  X3vq  1 4.700000e-01    3.690000e+00
  C4er  X2vq  1 4.700000e-01    3.690000e+00
  C4er  X1vq  1 4.700000e-01    3.880000e+00
  C3er  C2vq  1 4.700000e-01    3.880000e+00
  C3er  C1vq  1 4.700000e-01    3.880000e+00
  C3er  X4vq  1 4.700000e-01    3.690000e+00
  C3er  X3vq  1 4.700000e-01    3.690000e+00
  C3er  X2vq  1 4.700000e-01    3.690000e+00
  C3er  X1vq  1 4.700000e-01    3.880000e+00
  C2er  C1vq  1 4.700000e-01    4.060000e+00
  C2er  X4vq  1 4.700000e-01    3.390000e+00
  C2er  X3vq  1 4.700000e-01    3.690000e+00
  C2er  X2vq  1 4.700000e-01    3.690000e+00
  C2er  X1vq  1 4.700000e-01    3.690000e+00
  C1er  X4vq  1 4.700000e-01    3.390000e+00
  C1er  X3vq  1 4.700000e-01    3.690000e+00
  C1er  X2vq  1 4.700000e-01    3.690000e+00
  C1er  X1vq  1 4.700000e-01    3.690000e+00
  X4er  X3vq  1 4.700000e-01    3.880000e+00
  X4er  X2vq  1 4.700000e-01    3.880000e+00
  X4er  X1vq  1 4.700000e-01    3.880000e+00
  X3er  X2vq  1 4.700000e-01    4.060000e+00
  X3er  X1vq  1 4.700000e-01    4.060000e+00
  X2er  X1vq  1 4.700000e-01    4.060000e+00
  C6er  C5vh  1 4.700000e-01    3.520000e+00
  C6er  C4vh  1 4.700000e-01    3.520000e+00
  C6er  C3vh  1 4.700000e-01    3.390000e+00
  C6er  C2vh  1 4.700000e-01    3.240000e+00
  C6er  C1vh  1 4.700000e-01    3.070000e+00
  C6er  X4vh  1 4.700000e-01    3.520000e+00
  C6er  X3vh  1 4.700000e-01    3.520000e+00
  C6er  X2vh  1 4.700000e-01    3.520000e+00
  C6er  X1vh  1 4.700000e-01    3.520000e+00
  C5er  C4vh  1 4.700000e-01    3.520000e+00
  C5er  C3vh  1 4.700000e-01    3.390000e+00
  C5er  C2vh  1 4.700000e-01    3.240000e+00
  C5er  C1vh  1 4.700000e-01    3.240000e+00
  C5er  X4vh  1 4.700000e-01    3.390000e+00
  C5er  X3vh  1 4.700000e-01    3.390000e+00
  C5er  X2vh  1 4.700000e-01    3.390000e+00
  C5er  X1vh  1 4.700000e-01    3.520000e+00
  C4er  C3vh  1 4.700000e-01    3.520000e+00
  C4er  C2vh  1 4.700000e-01    3.390000e+00
  C4er  C1vh  1 4.700000e-01    3.240000e+00
  C4er  X4vh  1 4.700000e-01    3.390000e+00
  C4er  X3vh  1 4.700000e-01    3.390000e+00
  C4er  X2vh  1 4.700000e-01    3.390000e+00
  C4er  X1vh  1 4.700000e-01    3.520000e+00
  C3er  C2vh  1 4.700000e-01    3.520000e+00
  C3er  C1vh  1 4.700000e-01    3.520000e+00
  C3er  X4vh  1 4.700000e-01    3.390000e+00
  C3er  X3vh  1 4.700000e-01    3.390000e+00
  C3er  X2vh  1 4.700000e-01    3.390000e+00
  C3er  X1vh  1 4.700000e-01    3.520000e+00
  C2er  C1vh  1 4.700000e-01    3.690000e+00
  C2er  X4vh  1 4.700000e-01    3.070000e+00
  C2er  X3vh  1 4.700000e-01    3.390000e+00
  C2er  X2vh  1 4.700000e-01    3.390000e+00
  C2er  X1vh  1 4.700000e-01    3.390000e+00
  C1er  X4vh  1 4.700000e-01    3.070000e+00
  C1er  X3vh  1 4.700000e-01    3.390000e+00
  C1er  X2vh  1 4.700000e-01    3.390000e+00
  C1er  X1vh  1 4.700000e-01    3.390000e+00
  X4er  X3vh  1 4.700000e-01    3.520000e+00
  X4er  X2vh  1 4.700000e-01    3.520000e+00
  X4er  X1vh  1 4.700000e-01    3.520000e+00
  X3er  X2vh  1 4.700000e-01    3.690000e+00
  X3er  X1vh  1 4.700000e-01    3.690000e+00
  X2er  X1vh  1 4.700000e-01    3.690000e+00
  C6er  C5vr  1 4.700000e-01    3.390000e+00
  C6er  C4vr  1 4.700000e-01    3.390000e+00
  C6er  C3vr  1 4.700000e-01    3.240000e+00
  C6er  C2vr  1 4.700000e-01    3.070000e+00
  C6er  C1vr  1 4.700000e-01    2.960000e+00
  C6er  X4vr  1 4.700000e-01    3.390000e+00
  C6er  X3vr  1 4.700000e-01    3.390000e+00
  C6er  X2vr  1 4.700000e-01    3.390000e+00
  C6er  X1vr  1 4.700000e-01    3.390000e+00
  C5er  C4vr  1 4.700000e-01    3.390000e+00
  C5er  C3vr  1 4.700000e-01    3.240000e+00
  C5er  C2vr  1 4.700000e-01    3.070000e+00
  C5er  C1vr  1 4.700000e-01    3.070000e+00
  C5er  X4vr  1 4.700000e-01    3.240000e+00
  C5er  X3vr  1 4.700000e-01    3.240000e+00
  C5er  X2vr  1 4.700000e-01    3.240000e+00
  C5er  X1vr  1 4.700000e-01    3.390000e+00
  C4er  C3vr  1 4.700000e-01    3.390000e+00
  C4er  C2vr  1 4.700000e-01    3.240000e+00
  C4er  C1vr  1 4.700000e-01    3.070000e+00
  C4er  X4vr  1 4.700000e-01    3.240000e+00
  C4er  X3vr  1 4.700000e-01    3.240000e+00
  C4er  X2vr  1 4.700000e-01    3.240000e+00
  C4er  X1vr  1 4.700000e-01    3.390000e+00
  C3er  C2vr  1 4.700000e-01    3.390000e+00
  C3er  C1vr  1 4.700000e-01    3.390000e+00
  C3er  X4vr  1 4.700000e-01    3.240000e+00
  C3er  X3vr  1 4.700000e-01    3.240000e+00
  C3er  X2vr  1 4.700000e-01    3.240000e+00
  C3er  X1vr  1 4.700000e-01    3.390000e+00
  C2er  C1vr  1 4.700000e-01    3.520000e+00
  C2er  X4vr  1 4.700000e-01    2.960000e+00
  C2er  X3vr  1 4.700000e-01    3.240000e+00
  C2er  X2vr  1 4.700000e-01    3.240000e+00
  C2er  X1vr  1 4.700000e-01    3.240000e+00
  C1er  X4vr  1 4.700000e-01    2.960000e+00
  C1er  X3vr  1 4.700000e-01    3.240000e+00
  C1er  X2vr  1 4.700000e-01    3.240000e+00
  C1er  X1vr  1 4.700000e-01    3.240000e+00
  X4er  X3vr  1 4.700000e-01    3.390000e+00
  X4er  X2vr  1 4.700000e-01    3.390000e+00
  X4er  X1vr  1 4.700000e-01    3.390000e+00
  X3er  X2vr  1 4.700000e-01    3.520000e+00
  X3er  X1vr  1 4.700000e-01    3.520000e+00
  X2er  X1vr  1 4.700000e-01    3.520000e+00
   C6v  SC6e  1 4.300000e-01    3.380000e+00
   C6v  SC5e  1 4.300000e-01    3.160000e+00
   C6v  SC4e  1 4.300000e-01    3.160000e+00
   C6v  SC3e  1 4.300000e-01    2.930000e+00
   C6v  SC2e  1 4.300000e-01    2.920000e+00
   C6v  SC1e  1 4.300000e-01    2.530000e+00
   C6v  SX4e  1 4.300000e-01    3.160000e+00
   C6v  SX3e  1 4.300000e-01    3.160000e+00
   C6v  SX2e  1 4.300000e-01    3.160000e+00
   C6v  SX1e  1 4.300000e-01    3.160000e+00
   C5v  SC5e  1 4.300000e-01    3.160000e+00
   C5v  SC4e  1 4.300000e-01    3.160000e+00
   C5v  SC3e  1 4.300000e-01    2.930000e+00
   C5v  SC2e  1 4.300000e-01    2.920000e+00
   C5v  SC1e  1 4.300000e-01    2.920000e+00
   C5v  SX4e  1 4.300000e-01    2.930000e+00
   C5v  SX3e  1 4.300000e-01    2.930000e+00
   C5v  SX2e  1 4.300000e-01    2.930000e+00
   C5v  SX1e  1 4.300000e-01    3.160000e+00
   C4v  SC4e  1 4.300000e-01    3.160000e+00
   C4v  SC3e  1 4.300000e-01    3.160000e+00
   C4v  SC2e  1 4.300000e-01    2.930000e+00
   C4v  SC1e  1 4.300000e-01    2.920000e+00
   C4v  SX4e  1 4.300000e-01    2.930000e+00
   C4v  SX3e  1 4.300000e-01    2.930000e+00
   C4v  SX2e  1 4.300000e-01    2.930000e+00
   C4v  SX1e  1 4.300000e-01    3.160000e+00
   C3v  SC3e  1 4.300000e-01    3.160000e+00
   C3v  SC2e  1 4.300000e-01    3.160000e+00
   C3v  SC1e  1 4.300000e-01    3.160000e+00
   C3v  SX4e  1 4.300000e-01    2.930000e+00
   C3v  SX3e  1 4.300000e-01    2.930000e+00
   C3v  SX2e  1 4.300000e-01    2.930000e+00
   C3v  SX1e  1 4.300000e-01    3.160000e+00
   C2v  SC2e  1 4.300000e-01    3.160000e+00
   C2v  SC1e  1 4.300000e-01    3.380000e+00
   C2v  SX4e  1 4.300000e-01    2.530000e+00
   C2v  SX3e  1 4.300000e-01    2.930000e+00
   C2v  SX2e  1 4.300000e-01    2.930000e+00
   C2v  SX1e  1 4.300000e-01    2.930000e+00
   C1v  SC1e  1 4.300000e-01    3.160000e+00
   C1v  SX4e  1 4.300000e-01    2.530000e+00
   C1v  SX3e  1 4.300000e-01    2.930000e+00
   C1v  SX2e  1 4.300000e-01    2.930000e+00
   C1v  SX1e  1 4.300000e-01    2.930000e+00
   X4v  SX4e  1 4.300000e-01    3.160000e+00
   X4v  SX3e  1 4.300000e-01    3.160000e+00
   X4v  SX2e  1 4.300000e-01    3.160000e+00
   X4v  SX1e  1 4.300000e-01    3.160000e+00
   X3v  SX3e  1 4.300000e-01    3.160000e+00
   X3v  SX2e  1 4.300000e-01    3.380000e+00
   X3v  SX1e  1 4.300000e-01    3.380000e+00
   X2v  SX2e  1 4.300000e-01    3.380000e+00
   X2v  SX1e  1 4.300000e-01    3.380000e+00
   X1v  SX1e  1 4.300000e-01    3.590000e+00
  SC6v   C6e  1 4.300000e-01    3.380000e+00
  SC6v   C5e  1 4.300000e-01    3.160000e+00
  SC6v   C4e  1 4.300000e-01    3.160000e+00
  SC6v   C3e  1 4.300000e-01    2.930000e+00
  SC6v   C2e  1 4.300000e-01    2.920000e+00
  SC6v   C1e  1 4.300000e-01    2.530000e+00
  SC6v   X4e  1 4.300000e-01    3.160000e+00
  SC6v   X3e  1 4.300000e-01    3.160000e+00
  SC6v   X2e  1 4.300000e-01    3.160000e+00
  SC6v   X1e  1 4.300000e-01    3.160000e+00
  SC5v   C5e  1 4.300000e-01    3.160000e+00
  SC5v   C4e  1 4.300000e-01    3.160000e+00
  SC5v   C3e  1 4.300000e-01    2.930000e+00
  SC5v   C2e  1 4.300000e-01    2.920000e+00
  SC5v   C1e  1 4.300000e-01    2.920000e+00
  SC5v   X4e  1 4.300000e-01    2.930000e+00
  SC5v   X3e  1 4.300000e-01    2.930000e+00
  SC5v   X2e  1 4.300000e-01    2.930000e+00
  SC5v   X1e  1 4.300000e-01    3.160000e+00
  SC4v   C4e  1 4.300000e-01    3.160000e+00
  SC4v   C3e  1 4.300000e-01    3.160000e+00
  SC4v   C2e  1 4.300000e-01    2.930000e+00
  SC4v   C1e  1 4.300000e-01    2.920000e+00
  SC4v   X4e  1 4.300000e-01    2.930000e+00
  SC4v   X3e  1 4.300000e-01    2.930000e+00
  SC4v   X2e  1 4.300000e-01    2.930000e+00
  SC4v   X1e  1 4.300000e-01    3.160000e+00
  SC3v   C3e  1 4.300000e-01    3.160000e+00
  SC3v   C2e  1 4.300000e-01    3.160000e+00
  SC3v   C1e  1 4.300000e-01    3.160000e+00
  SC3v   X4e  1 4.300000e-01    2.930000e+00
  SC3v   X3e  1 4.300000e-01    2.930000e+00
  SC3v   X2e  1 4.300000e-01    2.930000e+00
  SC3v   X1e  1 4.300000e-01    3.160000e+00
  SC2v   C2e  1 4.300000e-01    3.160000e+00
  SC2v   C1e  1 4.300000e-01    3.380000e+00
  SC2v   X4e  1 4.300000e-01    2.530000e+00
  SC2v   X3e  1 4.300000e-01    2.930000e+00
  SC2v   X2e  1 4.300000e-01    2.930000e+00
  SC2v   X1e  1 4.300000e-01    2.930000e+00
  SC1v   C1e  1 4.300000e-01    3.160000e+00
  SC1v   X4e  1 4.300000e-01    2.530000e+00
  SC1v   X3e  1 4.300000e-01    2.930000e+00
  SC1v   X2e  1 4.300000e-01    2.930000e+00
  SC1v   X1e  1 4.300000e-01    2.930000e+00
  SX4v   X4e  1 4.300000e-01    3.160000e+00
  SX4v   X3e  1 4.300000e-01    3.160000e+00
  SX4v   X2e  1 4.300000e-01    3.160000e+00
  SX4v   X1e  1 4.300000e-01    3.160000e+00
  SX3v   X3e  1 4.300000e-01    3.160000e+00
  SX3v   X2e  1 4.300000e-01    3.380000e+00
  SX3v   X1e  1 4.300000e-01    3.380000e+00
  SX2v   X2e  1 4.300000e-01    3.380000e+00
  SX2v   X1e  1 4.300000e-01    3.380000e+00
  SX1v   X1e  1 4.300000e-01    3.590000e+00
   C6v SX1eq  1 4.300000e-01    3.590000e+00
   C5v SX1eq  1 4.300000e-01    3.590000e+00
   C4v SX1eq  1 4.300000e-01    3.590000e+00
   C3v SX1eq  1 4.300000e-01    3.590000e+00
   C2v SX1eq  1 4.300000e-01    3.380000e+00
   C1v SX1eq  1 4.300000e-01    3.380000e+00
   X4v SX1eq  1 4.300000e-01    3.590000e+00
   X3v SX1eq  1 4.300000e-01    3.770000e+00
   X2v SX1eq  1 4.300000e-01    3.770000e+00
   X1v SX1eq  1 4.300000e-01    3.970000e+00
   C6v SX2eq  1 4.300000e-01    3.590000e+00
   C5v SX2eq  1 4.300000e-01    3.380000e+00
   C4v SX2eq  1 4.300000e-01    3.380000e+00
   C3v SX2eq  1 4.300000e-01    3.380000e+00
   C2v SX2eq  1 4.300000e-01    3.380000e+00
   C1v SX2eq  1 4.300000e-01    3.380000e+00
   X4v SX2eq  1 4.300000e-01    3.590000e+00
   X3v SX2eq  1 4.300000e-01    3.770000e+00
   X2v SX2eq  1 4.300000e-01    3.770000e+00
   C6v SX3eq  1 4.300000e-01    3.590000e+00
   C5v SX3eq  1 4.300000e-01    3.380000e+00
   C4v SX3eq  1 4.300000e-01    3.380000e+00
   C3v SX3eq  1 4.300000e-01    3.380000e+00
   C2v SX3eq  1 4.300000e-01    3.380000e+00
   C1v SX3eq  1 4.300000e-01    3.380000e+00
   X4v SX3eq  1 4.300000e-01    3.590000e+00
   X3v SX3eq  1 4.300000e-01    3.590000e+00
   C6v SX4eq  1 4.300000e-01    3.590000e+00
   C5v SX4eq  1 4.300000e-01    3.380000e+00
   C4v SX4eq  1 4.300000e-01    3.380000e+00
   C3v SX4eq  1 4.300000e-01    3.380000e+00
   C2v SX4eq  1 4.300000e-01    2.930000e+00
   C1v SX4eq  1 4.300000e-01    2.930000e+00
   X4v SX4eq  1 4.300000e-01    3.590000e+00
   C6v SC1eq  1 4.300000e-01    2.930000e+00
   C5v SC1eq  1 4.300000e-01    3.160000e+00
   C4v SC1eq  1 4.300000e-01    3.160000e+00
   C3v SC1eq  1 4.300000e-01    3.590000e+00
   C2v SC1eq  1 4.300000e-01    3.770000e+00
   C1v SC1eq  1 4.300000e-01    3.590000e+00
   C6v SC2eq  1 4.300000e-01    3.160000e+00
   C5v SC2eq  1 4.300000e-01    3.160000e+00
   C4v SC2eq  1 4.300000e-01    3.380000e+00
   C3v SC2eq  1 4.300000e-01    3.590000e+00
   C2v SC2eq  1 4.300000e-01    3.590000e+00
   C6v SC3eq  1 4.300000e-01    3.380000e+00
   C5v SC3eq  1 4.300000e-01    3.380000e+00
   C4v SC3eq  1 4.300000e-01    3.590000e+00
   C3v SC3eq  1 4.300000e-01    3.590000e+00
   C6v SC4eq  1 4.300000e-01    3.590000e+00
   C5v SC4eq  1 4.300000e-01    3.590000e+00
   C4v SC4eq  1 4.300000e-01    3.590000e+00
   C6v SC5eq  1 4.300000e-01    3.590000e+00
   C5v SC5eq  1 4.300000e-01    3.590000e+00
   C6v SC6eq  1 4.300000e-01    3.770000e+00
  SC6v  X1eq  1 4.300000e-01    3.590000e+00
  SC5v  X1eq  1 4.300000e-01    3.590000e+00
  SC4v  X1eq  1 4.300000e-01    3.590000e+00
  SC3v  X1eq  1 4.300000e-01    3.590000e+00
  SC2v  X1eq  1 4.300000e-01    3.380000e+00
  SC1v  X1eq  1 4.300000e-01    3.380000e+00
  SX4v  X1eq  1 4.300000e-01    3.590000e+00
  SX3v  X1eq  1 4.300000e-01    3.770000e+00
  SX2v  X1eq  1 4.300000e-01    3.770000e+00
  SX1v  X1eq  1 4.300000e-01    3.970000e+00
  SC6v  X2eq  1 4.300000e-01    3.590000e+00
  SC5v  X2eq  1 4.300000e-01    3.380000e+00
  SC4v  X2eq  1 4.300000e-01    3.380000e+00
  SC3v  X2eq  1 4.300000e-01    3.380000e+00
  SC2v  X2eq  1 4.300000e-01    3.380000e+00
  SC1v  X2eq  1 4.300000e-01    3.380000e+00
  SX4v  X2eq  1 4.300000e-01    3.590000e+00
  SX3v  X2eq  1 4.300000e-01    3.770000e+00
  SX2v  X2eq  1 4.300000e-01    3.770000e+00
  SC6v  X3eq  1 4.300000e-01    3.590000e+00
  SC5v  X3eq  1 4.300000e-01    3.380000e+00
  SC4v  X3eq  1 4.300000e-01    3.380000e+00
  SC3v  X3eq  1 4.300000e-01    3.380000e+00
  SC2v  X3eq  1 4.300000e-01    3.380000e+00
  SC1v  X3eq  1 4.300000e-01    3.380000e+00
  SX4v  X3eq  1 4.300000e-01    3.590000e+00
  SX3v  X3eq  1 4.300000e-01    3.590000e+00
  SC6v  X4eq  1 4.300000e-01    3.590000e+00
  SC5v  X4eq  1 4.300000e-01    3.380000e+00
  SC4v  X4eq  1 4.300000e-01    3.380000e+00
  SC3v  X4eq  1 4.300000e-01    3.380000e+00
  SC2v  X4eq  1 4.300000e-01    2.930000e+00
  SC1v  X4eq  1 4.300000e-01    2.930000e+00
  SX4v  X4eq  1 4.300000e-01    3.590000e+00
  SC6v  C1eq  1 4.300000e-01    2.930000e+00
  SC5v  C1eq  1 4.300000e-01    3.160000e+00
  SC4v  C1eq  1 4.300000e-01    3.160000e+00
  SC3v  C1eq  1 4.300000e-01    3.590000e+00
  SC2v  C1eq  1 4.300000e-01    3.770000e+00
  SC1v  C1eq  1 4.300000e-01    3.590000e+00
  SC6v  C2eq  1 4.300000e-01    3.160000e+00
  SC5v  C2eq  1 4.300000e-01    3.160000e+00
  SC4v  C2eq  1 4.300000e-01    3.380000e+00
  SC3v  C2eq  1 4.300000e-01    3.590000e+00
  SC2v  C2eq  1 4.300000e-01    3.590000e+00
  SC6v  C3eq  1 4.300000e-01    3.380000e+00
  SC5v  C3eq  1 4.300000e-01    3.380000e+00
  SC4v  C3eq  1 4.300000e-01    3.590000e+00
  SC3v  C3eq  1 4.300000e-01    3.590000e+00
  SC6v  C4eq  1 4.300000e-01    3.590000e+00
  SC5v  C4eq  1 4.300000e-01    3.590000e+00
  SC4v  C4eq  1 4.300000e-01    3.590000e+00
  SC6v  C5eq  1 4.300000e-01    3.590000e+00
  SC5v  C5eq  1 4.300000e-01    3.590000e+00
  SC6v  C6eq  1 4.300000e-01    3.770000e+00
   C6v SX1eh  1 4.300000e-01    3.160000e+00
   C5v SX1eh  1 4.300000e-01    3.160000e+00
   C4v SX1eh  1 4.300000e-01    3.160000e+00
   C3v SX1eh  1 4.300000e-01    3.160000e+00
   C2v SX1eh  1 4.300000e-01    2.930000e+00
   C1v SX1eh  1 4.300000e-01    2.930000e+00
   X4v SX1eh  1 4.300000e-01    3.160000e+00
   X3v SX1eh  1 4.300000e-01    3.380000e+00
   X2v SX1eh  1 4.300000e-01    3.380000e+00
   X1v SX1eh  1 4.300000e-01    3.590000e+00
   C6v SX2eh  1 4.300000e-01    3.160000e+00
   C5v SX2eh  1 4.300000e-01    2.930000e+00
   C4v SX2eh  1 4.300000e-01    2.930000e+00
   C3v SX2eh  1 4.300000e-01    2.930000e+00
   C2v SX2eh  1 4.300000e-01    2.930000e+00
   C1v SX2eh  1 4.300000e-01    2.930000e+00
   X4v SX2eh  1 4.300000e-01    3.160000e+00
   X3v SX2eh  1 4.300000e-01    3.380000e+00
   X2v SX2eh  1 4.300000e-01    3.380000e+00
   C6v SX3eh  1 4.300000e-01    3.160000e+00
   C5v SX3eh  1 4.300000e-01    2.930000e+00
   C4v SX3eh  1 4.300000e-01    2.930000e+00
   C3v SX3eh  1 4.300000e-01    2.930000e+00
   C2v SX3eh  1 4.300000e-01    2.930000e+00
   C1v SX3eh  1 4.300000e-01    2.930000e+00
   X4v SX3eh  1 4.300000e-01    3.160000e+00
   X3v SX3eh  1 4.300000e-01    3.160000e+00
   C6v SX4eh  1 4.300000e-01    3.160000e+00
   C5v SX4eh  1 4.300000e-01    2.930000e+00
   C4v SX4eh  1 4.300000e-01    2.930000e+00
   C3v SX4eh  1 4.300000e-01    2.930000e+00
   C2v SX4eh  1 4.300000e-01    2.530000e+00
   C1v SX4eh  1 4.300000e-01    2.530000e+00
   X4v SX4eh  1 4.300000e-01    3.160000e+00
   C6v SC1eh  1 4.300000e-01    2.530000e+00
   C5v SC1eh  1 4.300000e-01    2.920000e+00
   C4v SC1eh  1 4.300000e-01    2.920000e+00
   C3v SC1eh  1 4.300000e-01    3.160000e+00
   C2v SC1eh  1 4.300000e-01    3.380000e+00
   C1v SC1eh  1 4.300000e-01    3.160000e+00
   C6v SC2eh  1 4.300000e-01    2.920000e+00
   C5v SC2eh  1 4.300000e-01    2.920000e+00
   C4v SC2eh  1 4.300000e-01    2.930000e+00
   C3v SC2eh  1 4.300000e-01    3.160000e+00
   C2v SC2eh  1 4.300000e-01    3.160000e+00
   C6v SC3eh  1 4.300000e-01    2.930000e+00
   C5v SC3eh  1 4.300000e-01    2.930000e+00
   C4v SC3eh  1 4.300000e-01    3.160000e+00
   C3v SC3eh  1 4.300000e-01    3.160000e+00
   C6v SC4eh  1 4.300000e-01    3.160000e+00
   C5v SC4eh  1 4.300000e-01    3.160000e+00
   C4v SC4eh  1 4.300000e-01    3.160000e+00
   C6v SC5eh  1 4.300000e-01    3.160000e+00
   C5v SC5eh  1 4.300000e-01    3.160000e+00
   C6v SC6eh  1 4.300000e-01    3.380000e+00
  SC6v  X1eh  1 4.300000e-01    3.160000e+00
  SC5v  X1eh  1 4.300000e-01    3.160000e+00
  SC4v  X1eh  1 4.300000e-01    3.160000e+00
  SC3v  X1eh  1 4.300000e-01    3.160000e+00
  SC2v  X1eh  1 4.300000e-01    2.930000e+00
  SC1v  X1eh  1 4.300000e-01    2.930000e+00
  SX4v  X1eh  1 4.300000e-01    3.160000e+00
  SX3v  X1eh  1 4.300000e-01    3.380000e+00
  SX2v  X1eh  1 4.300000e-01    3.380000e+00
  SX1v  X1eh  1 4.300000e-01    3.590000e+00
  SC6v  X2eh  1 4.300000e-01    3.160000e+00
  SC5v  X2eh  1 4.300000e-01    2.930000e+00
  SC4v  X2eh  1 4.300000e-01    2.930000e+00
  SC3v  X2eh  1 4.300000e-01    2.930000e+00
  SC2v  X2eh  1 4.300000e-01    2.930000e+00
  SC1v  X2eh  1 4.300000e-01    2.930000e+00
  SX4v  X2eh  1 4.300000e-01    3.160000e+00
  SX3v  X2eh  1 4.300000e-01    3.380000e+00
  SX2v  X2eh  1 4.300000e-01    3.380000e+00
  SC6v  X3eh  1 4.300000e-01    3.160000e+00
  SC5v  X3eh  1 4.300000e-01    2.930000e+00
  SC4v  X3eh  1 4.300000e-01    2.930000e+00
  SC3v  X3eh  1 4.300000e-01    2.930000e+00
  SC2v  X3eh  1 4.300000e-01    2.930000e+00
  SC1v  X3eh  1 4.300000e-01    2.930000e+00
  SX4v  X3eh  1 4.300000e-01    3.160000e+00
  SX3v  X3eh  1 4.300000e-01    3.160000e+00
  SC6v  X4eh  1 4.300000e-01    3.160000e+00
  SC5v  X4eh  1 4.300000e-01    2.930000e+00
  SC4v  X4eh  1 4.300000e-01    2.930000e+00
  SC3v  X4eh  1 4.300000e-01    2.930000e+00
  SC2v  X4eh  1 4.300000e-01    2.530000e+00
  SC1v  X4eh  1 4.300000e-01    2.530000e+00
  SX4v  X4eh  1 4.300000e-01    3.160000e+00
  SC6v  C1eh  1 4.300000e-01    2.530000e+00
  SC5v  C1eh  1 4.300000e-01    2.920000e+00
  SC4v  C1eh  1 4.300000e-01    2.920000e+00
  SC3v  C1eh  1 4.300000e-01    3.160000e+00
  SC2v  C1eh  1 4.300000e-01    3.380000e+00
  SC1v  C1eh  1 4.300000e-01    3.160000e+00
  SC6v  C2eh  1 4.300000e-01    2.920000e+00
  SC5v  C2eh  1 4.300000e-01    2.920000e+00
  SC4v  C2eh  1 4.300000e-01    2.930000e+00
  SC3v  C2eh  1 4.300000e-01    3.160000e+00
  SC2v  C2eh  1 4.300000e-01    3.160000e+00
  SC6v  C3eh  1 4.300000e-01    2.930000e+00
  SC5v  C3eh  1 4.300000e-01    2.930000e+00
  SC4v  C3eh  1 4.300000e-01    3.160000e+00
  SC3v  C3eh  1 4.300000e-01    3.160000e+00
  SC6v  C4eh  1 4.300000e-01    3.160000e+00
  SC5v  C4eh  1 4.300000e-01    3.160000e+00
  SC4v  C4eh  1 4.300000e-01    3.160000e+00
  SC6v  C5eh  1 4.300000e-01    3.160000e+00
  SC5v  C5eh  1 4.300000e-01    3.160000e+00
  SC6v  C6eh  1 4.300000e-01    3.380000e+00
   C6v SX1er  1 4.300000e-01    3.160000e+00
   C5v SX1er  1 4.300000e-01    3.160000e+00
   C4v SX1er  1 4.300000e-01    3.160000e+00
   C3v SX1er  1 4.300000e-01    3.160000e+00
   C2v SX1er  1 4.300000e-01    2.930000e+00
   C1v SX1er  1 4.300000e-01    2.930000e+00
   X4v SX1er  1 4.300000e-01    3.160000e+00
   X3v SX1er  1 4.300000e-01    3.380000e+00
   X2v SX1er  1 4.300000e-01    3.380000e+00
   X1v SX1er  1 4.300000e-01    3.590000e+00
   C6v SX2er  1 4.300000e-01    3.160000e+00
   C5v SX2er  1 4.300000e-01    2.930000e+00
   C4v SX2er  1 4.300000e-01    2.930000e+00
   C3v SX2er  1 4.300000e-01    2.930000e+00
   C2v SX2er  1 4.300000e-01    2.930000e+00
   C1v SX2er  1 4.300000e-01    2.930000e+00
   X4v SX2er  1 4.300000e-01    3.160000e+00
   X3v SX2er  1 4.300000e-01    3.380000e+00
   X2v SX2er  1 4.300000e-01    3.380000e+00
   C6v SX3er  1 4.300000e-01    3.160000e+00
   C5v SX3er  1 4.300000e-01    2.930000e+00
   C4v SX3er  1 4.300000e-01    2.930000e+00
   C3v SX3er  1 4.300000e-01    2.930000e+00
   C2v SX3er  1 4.300000e-01    2.930000e+00
   C1v SX3er  1 4.300000e-01    2.930000e+00
   X4v SX3er  1 4.300000e-01    3.160000e+00
   X3v SX3er  1 4.300000e-01    3.160000e+00
   C6v SX4er  1 4.300000e-01    3.160000e+00
   C5v SX4er  1 4.300000e-01    2.930000e+00
   C4v SX4er  1 4.300000e-01    2.930000e+00
   C3v SX4er  1 4.300000e-01    2.930000e+00
   C2v SX4er  1 4.300000e-01    2.530000e+00
   C1v SX4er  1 4.300000e-01    2.530000e+00
   X4v SX4er  1 4.300000e-01    3.160000e+00
   C6v SC1er  1 4.300000e-01    2.530000e+00
   C5v SC1er  1 4.300000e-01    2.920000e+00
   C4v SC1er  1 4.300000e-01    2.920000e+00
   C3v SC1er  1 4.300000e-01    3.160000e+00
   C2v SC1er  1 4.300000e-01    3.380000e+00
   C1v SC1er  1 4.300000e-01    3.160000e+00
   C6v SC2er  1 4.300000e-01    2.920000e+00
   C5v SC2er  1 4.300000e-01    2.920000e+00
   C4v SC2er  1 4.300000e-01    2.930000e+00
   C3v SC2er  1 4.300000e-01    3.160000e+00
   C2v SC2er  1 4.300000e-01    3.160000e+00
   C6v SC3er  1 4.300000e-01    2.930000e+00
   C5v SC3er  1 4.300000e-01    2.930000e+00
   C4v SC3er  1 4.300000e-01    3.160000e+00
   C3v SC3er  1 4.300000e-01    3.160000e+00
   C6v SC4er  1 4.300000e-01    3.160000e+00
   C5v SC4er  1 4.300000e-01    3.160000e+00
   C4v SC4er  1 4.300000e-01    3.160000e+00
   C6v SC5er  1 4.300000e-01    3.160000e+00
   C5v SC5er  1 4.300000e-01    3.160000e+00
   C6v SC6er  1 4.300000e-01    3.380000e+00
  SC6v  X1er  1 4.300000e-01    3.160000e+00
  SC5v  X1er  1 4.300000e-01    3.160000e+00
  SC4v  X1er  1 4.300000e-01    3.160000e+00
  SC3v  X1er  1 4.300000e-01    3.160000e+00
  SC2v  X1er  1 4.300000e-01    2.930000e+00
  SC1v  X1er  1 4.300000e-01    2.930000e+00
  SX4v  X1er  1 4.300000e-01    3.160000e+00
  SX3v  X1er  1 4.300000e-01    3.380000e+00
  SX2v  X1er  1 4.300000e-01    3.380000e+00
  SX1v  X1er  1 4.300000e-01    3.590000e+00
  SC6v  X2er  1 4.300000e-01    3.160000e+00
  SC5v  X2er  1 4.300000e-01    2.930000e+00
  SC4v  X2er  1 4.300000e-01    2.930000e+00
  SC3v  X2er  1 4.300000e-01    2.930000e+00
  SC2v  X2er  1 4.300000e-01    2.930000e+00
  SC1v  X2er  1 4.300000e-01    2.930000e+00
  SX4v  X2er  1 4.300000e-01    3.160000e+00
  SX3v  X2er  1 4.300000e-01    3.380000e+00
  SX2v  X2er  1 4.300000e-01    3.380000e+00
  SC6v  X3er  1 4.300000e-01    3.160000e+00
  SC5v  X3er  1 4.300000e-01    2.930000e+00
  SC4v  X3er  1 4.300000e-01    2.930000e+00
  SC3v  X3er  1 4.300000e-01    2.930000e+00
  SC2v  X3er  1 4.300000e-01    2.930000e+00
  SC1v  X3er  1 4.300000e-01    2.930000e+00
  SX4v  X3er  1 4.300000e-01    3.160000e+00
  SX3v  X3er  1 4.300000e-01    3.160000e+00
  SC6v  X4er  1 4.300000e-01    3.160000e+00
  SC5v  X4er  1 4.300000e-01    2.930000e+00
  SC4v  X4er  1 4.300000e-01    2.930000e+00
  SC3v  X4er  1 4.300000e-01    2.930000e+00
  SC2v  X4er  1 4.300000e-01    2.530000e+00
  SC1v  X4er  1 4.300000e-01    2.530000e+00
  SX4v  X4er  1 4.300000e-01    3.160000e+00
  SC6v  C1er  1 4.300000e-01    2.530000e+00
  SC5v  C1er  1 4.300000e-01    2.920000e+00
  SC4v  C1er  1 4.300000e-01    2.920000e+00
  SC3v  C1er  1 4.300000e-01    3.160000e+00
  SC2v  C1er  1 4.300000e-01    3.380000e+00
  SC1v  C1er  1 4.300000e-01    3.160000e+00
  SC6v  C2er  1 4.300000e-01    2.920000e+00
  SC5v  C2er  1 4.300000e-01    2.920000e+00
  SC4v  C2er  1 4.300000e-01    2.930000e+00
  SC3v  C2er  1 4.300000e-01    3.160000e+00
  SC2v  C2er  1 4.300000e-01    3.160000e+00
  SC6v  C3er  1 4.300000e-01    2.930000e+00
  SC5v  C3er  1 4.300000e-01    2.930000e+00
  SC4v  C3er  1 4.300000e-01    3.160000e+00
  SC3v  C3er  1 4.300000e-01    3.160000e+00
  SC6v  C4er  1 4.300000e-01    3.160000e+00
  SC5v  C4er  1 4.300000e-01    3.160000e+00
  SC4v  C4er  1 4.300000e-01    3.160000e+00
  SC6v  C5er  1 4.300000e-01    3.160000e+00
  SC5v  C5er  1 4.300000e-01    3.160000e+00
  SC6v  C6er  1 4.300000e-01    3.380000e+00
  C6vq  SC6e  1 4.300000e-01    3.770000e+00
  C6vq  SC5e  1 4.300000e-01    3.590000e+00
  C6vq  SC4e  1 4.300000e-01    3.590000e+00
  C6vq  SC3e  1 4.300000e-01    3.380000e+00
  C6vq  SC2e  1 4.300000e-01    3.160000e+00
  C6vq  SC1e  1 4.300000e-01    2.930000e+00
  C6vq  SX4e  1 4.300000e-01    3.590000e+00
  C6vq  SX3e  1 4.300000e-01    3.590000e+00
  C6vq  SX2e  1 4.300000e-01    3.590000e+00
  C6vq  SX1e  1 4.300000e-01    3.590000e+00
  C5vq  SC5e  1 4.300000e-01    3.590000e+00
  C5vq  SC4e  1 4.300000e-01    3.590000e+00
  C5vq  SC3e  1 4.300000e-01    3.380000e+00
  C5vq  SC2e  1 4.300000e-01    3.160000e+00
  C5vq  SC1e  1 4.300000e-01    3.160000e+00
  C5vq  SX4e  1 4.300000e-01    3.380000e+00
  C5vq  SX3e  1 4.300000e-01    3.380000e+00
  C5vq  SX2e  1 4.300000e-01    3.380000e+00
  C5vq  SX1e  1 4.300000e-01    3.590000e+00
  C4vq  SC4e  1 4.300000e-01    3.590000e+00
  C4vq  SC3e  1 4.300000e-01    3.590000e+00
  C4vq  SC2e  1 4.300000e-01    3.380000e+00
  C4vq  SC1e  1 4.300000e-01    3.160000e+00
  C4vq  SX4e  1 4.300000e-01    3.380000e+00
  C4vq  SX3e  1 4.300000e-01    3.380000e+00
  C4vq  SX2e  1 4.300000e-01    3.380000e+00
  C4vq  SX1e  1 4.300000e-01    3.590000e+00
  C3vq  SC3e  1 4.300000e-01    3.590000e+00
  C3vq  SC2e  1 4.300000e-01    3.590000e+00
  C3vq  SC1e  1 4.300000e-01    3.590000e+00
  C3vq  SX4e  1 4.300000e-01    3.380000e+00
  C3vq  SX3e  1 4.300000e-01    3.380000e+00
  C3vq  SX2e  1 4.300000e-01    3.380000e+00
  C3vq  SX1e  1 4.300000e-01    3.590000e+00
  C2vq  SC2e  1 4.300000e-01    3.590000e+00
  C2vq  SC1e  1 4.300000e-01    3.770000e+00
  C2vq  SX4e  1 4.300000e-01    2.930000e+00
  C2vq  SX3e  1 4.300000e-01    3.380000e+00
  C2vq  SX2e  1 4.300000e-01    3.380000e+00
  C2vq  SX1e  1 4.300000e-01    3.380000e+00
  C1vq  SC1e  1 4.300000e-01    3.590000e+00
  C1vq  SX4e  1 4.300000e-01    2.930000e+00
  C1vq  SX3e  1 4.300000e-01    3.380000e+00
  C1vq  SX2e  1 4.300000e-01    3.380000e+00
  C1vq  SX1e  1 4.300000e-01    3.380000e+00
  X4vq  SX4e  1 4.300000e-01    3.590000e+00
  X4vq  SX3e  1 4.300000e-01    3.590000e+00
  X4vq  SX2e  1 4.300000e-01    3.590000e+00
  X4vq  SX1e  1 4.300000e-01    3.590000e+00
  X3vq  SX3e  1 4.300000e-01    3.590000e+00
  X3vq  SX2e  1 4.300000e-01    3.770000e+00
  X3vq  SX1e  1 4.300000e-01    3.770000e+00
  X2vq  SX2e  1 4.300000e-01    3.770000e+00
  X2vq  SX1e  1 4.300000e-01    3.770000e+00
  X1vq  SX1e  1 4.300000e-01    3.970000e+00
 SC6vq   C6e  1 4.300000e-01    3.770000e+00
 SC6vq   C5e  1 4.300000e-01    3.590000e+00
 SC6vq   C4e  1 4.300000e-01    3.590000e+00
 SC6vq   C3e  1 4.300000e-01    3.380000e+00
 SC6vq   C2e  1 4.300000e-01    3.160000e+00
 SC6vq   C1e  1 4.300000e-01    2.930000e+00
 SC6vq   X4e  1 4.300000e-01    3.590000e+00
 SC6vq   X3e  1 4.300000e-01    3.590000e+00
 SC6vq   X2e  1 4.300000e-01    3.590000e+00
 SC6vq   X1e  1 4.300000e-01    3.590000e+00
 SC5vq   C5e  1 4.300000e-01    3.590000e+00
 SC5vq   C4e  1 4.300000e-01    3.590000e+00
 SC5vq   C3e  1 4.300000e-01    3.380000e+00
 SC5vq   C2e  1 4.300000e-01    3.160000e+00
 SC5vq   C1e  1 4.300000e-01    3.160000e+00
 SC5vq   X4e  1 4.300000e-01    3.380000e+00
 SC5vq   X3e  1 4.300000e-01    3.380000e+00
 SC5vq   X2e  1 4.300000e-01    3.380000e+00
 SC5vq   X1e  1 4.300000e-01    3.590000e+00
 SC4vq   C4e  1 4.300000e-01    3.590000e+00
 SC4vq   C3e  1 4.300000e-01    3.590000e+00
 SC4vq   C2e  1 4.300000e-01    3.380000e+00
 SC4vq   C1e  1 4.300000e-01    3.160000e+00
 SC4vq   X4e  1 4.300000e-01    3.380000e+00
 SC4vq   X3e  1 4.300000e-01    3.380000e+00
 SC4vq   X2e  1 4.300000e-01    3.380000e+00
 SC4vq   X1e  1 4.300000e-01    3.590000e+00
 SC3vq   C3e  1 4.300000e-01    3.590000e+00
 SC3vq   C2e  1 4.300000e-01    3.590000e+00
 SC3vq   C1e  1 4.300000e-01    3.590000e+00
 SC3vq   X4e  1 4.300000e-01    3.380000e+00
 SC3vq   X3e  1 4.300000e-01    3.380000e+00
 SC3vq   X2e  1 4.300000e-01    3.380000e+00
 SC3vq   X1e  1 4.300000e-01    3.590000e+00
 SC2vq   C2e  1 4.300000e-01    3.590000e+00
 SC2vq   C1e  1 4.300000e-01    3.770000e+00
 SC2vq   X4e  1 4.300000e-01    2.930000e+00
 SC2vq   X3e  1 4.300000e-01    3.380000e+00
 SC2vq   X2e  1 4.300000e-01    3.380000e+00
 SC2vq   X1e  1 4.300000e-01    3.380000e+00
 SC1vq   C1e  1 4.300000e-01    3.590000e+00
 SC1vq   X4e  1 4.300000e-01    2.930000e+00
 SC1vq   X3e  1 4.300000e-01    3.380000e+00
 SC1vq   X2e  1 4.300000e-01    3.380000e+00
 SC1vq   X1e  1 4.300000e-01    3.380000e+00
 SX4vq   X4e  1 4.300000e-01    3.590000e+00
 SX4vq   X3e  1 4.300000e-01    3.590000e+00
 SX4vq   X2e  1 4.300000e-01    3.590000e+00
 SX4vq   X1e  1 4.300000e-01    3.590000e+00
 SX3vq   X3e  1 4.300000e-01    3.590000e+00
 SX3vq   X2e  1 4.300000e-01    3.770000e+00
 SX3vq   X1e  1 4.300000e-01    3.770000e+00
 SX2vq   X2e  1 4.300000e-01    3.770000e+00
 SX2vq   X1e  1 4.300000e-01    3.770000e+00
 SX1vq   X1e  1 4.300000e-01    3.970000e+00
  C6vq SC6eq  1 4.300000e-01    3.770000e+00
  C6vq SC5eq  1 4.300000e-01    3.590000e+00
  C6vq SC4eq  1 4.300000e-01    3.590000e+00
  C6vq SC3eq  1 4.300000e-01    3.380000e+00
  C6vq SC2eq  1 4.300000e-01    3.160000e+00
  C6vq SC1eq  1 4.300000e-01    2.930000e+00
  C6vq SX4eq  1 4.300000e-01    3.590000e+00
  C6vq SX3eq  1 4.300000e-01    3.590000e+00
  C6vq SX2eq  1 4.300000e-01    3.590000e+00
  C6vq SX1eq  1 4.300000e-01    3.590000e+00
  C5vq SC5eq  1 4.300000e-01    3.590000e+00
  C5vq SC4eq  1 4.300000e-01    3.590000e+00
  C5vq SC3eq  1 4.300000e-01    3.380000e+00
  C5vq SC2eq  1 4.300000e-01    3.160000e+00
  C5vq SC1eq  1 4.300000e-01    3.160000e+00
  C5vq SX4eq  1 4.300000e-01    3.380000e+00
  C5vq SX3eq  1 4.300000e-01    3.380000e+00
  C5vq SX2eq  1 4.300000e-01    3.380000e+00
  C5vq SX1eq  1 4.300000e-01    3.590000e+00
  C4vq SC4eq  1 4.300000e-01    3.590000e+00
  C4vq SC3eq  1 4.300000e-01    3.590000e+00
  C4vq SC2eq  1 4.300000e-01    3.380000e+00
  C4vq SC1eq  1 4.300000e-01    3.160000e+00
  C4vq SX4eq  1 4.300000e-01    3.380000e+00
  C4vq SX3eq  1 4.300000e-01    3.380000e+00
  C4vq SX2eq  1 4.300000e-01    3.380000e+00
  C4vq SX1eq  1 4.300000e-01    3.590000e+00
  C3vq SC3eq  1 4.300000e-01    3.590000e+00
  C3vq SC2eq  1 4.300000e-01    3.590000e+00
  C3vq SC1eq  1 4.300000e-01    3.590000e+00
  C3vq SX4eq  1 4.300000e-01    3.380000e+00
  C3vq SX3eq  1 4.300000e-01    3.380000e+00
  C3vq SX2eq  1 4.300000e-01    3.380000e+00
  C3vq SX1eq  1 4.300000e-01    3.590000e+00
  C2vq SC2eq  1 4.300000e-01    3.590000e+00
  C2vq SC1eq  1 4.300000e-01    3.770000e+00
  C2vq SX4eq  1 4.300000e-01    2.930000e+00
  C2vq SX3eq  1 4.300000e-01    3.380000e+00
  C2vq SX2eq  1 4.300000e-01    3.380000e+00
  C2vq SX1eq  1 4.300000e-01    3.380000e+00
  C1vq SC1eq  1 4.300000e-01    3.590000e+00
  C1vq SX4eq  1 4.300000e-01    2.930000e+00
  C1vq SX3eq  1 4.300000e-01    3.380000e+00
  C1vq SX2eq  1 4.300000e-01    3.380000e+00
  C1vq SX1eq  1 4.300000e-01    3.380000e+00
  X4vq SX4eq  1 4.300000e-01    3.590000e+00
  X4vq SX3eq  1 4.300000e-01    3.590000e+00
  X4vq SX2eq  1 4.300000e-01    3.590000e+00
  X4vq SX1eq  1 4.300000e-01    3.590000e+00
  X3vq SX3eq  1 4.300000e-01    3.590000e+00
  X3vq SX2eq  1 4.300000e-01    3.770000e+00
  X3vq SX1eq  1 4.300000e-01    3.770000e+00
  X2vq SX2eq  1 4.300000e-01    3.770000e+00
  X2vq SX1eq  1 4.300000e-01    3.770000e+00
  X1vq SX1eq  1 4.300000e-01    3.970000e+00
 SC6vq  C6eq  1 4.300000e-01    3.770000e+00
 SC6vq  C5eq  1 4.300000e-01    3.590000e+00
 SC6vq  C4eq  1 4.300000e-01    3.590000e+00
 SC6vq  C3eq  1 4.300000e-01    3.380000e+00
 SC6vq  C2eq  1 4.300000e-01    3.160000e+00
 SC6vq  C1eq  1 4.300000e-01    2.930000e+00
 SC6vq  X4eq  1 4.300000e-01    3.590000e+00
 SC6vq  X3eq  1 4.300000e-01    3.590000e+00
 SC6vq  X2eq  1 4.300000e-01    3.590000e+00
 SC6vq  X1eq  1 4.300000e-01    3.590000e+00
 SC5vq  C5eq  1 4.300000e-01    3.590000e+00
 SC5vq  C4eq  1 4.300000e-01    3.590000e+00
 SC5vq  C3eq  1 4.300000e-01    3.380000e+00
 SC5vq  C2eq  1 4.300000e-01    3.160000e+00
 SC5vq  C1eq  1 4.300000e-01    3.160000e+00
 SC5vq  X4eq  1 4.300000e-01    3.380000e+00
 SC5vq  X3eq  1 4.300000e-01    3.380000e+00
 SC5vq  X2eq  1 4.300000e-01    3.380000e+00
 SC5vq  X1eq  1 4.300000e-01    3.590000e+00
 SC4vq  C4eq  1 4.300000e-01    3.590000e+00
 SC4vq  C3eq  1 4.300000e-01    3.590000e+00
 SC4vq  C2eq  1 4.300000e-01    3.380000e+00
 SC4vq  C1eq  1 4.300000e-01    3.160000e+00
 SC4vq  X4eq  1 4.300000e-01    3.380000e+00
 SC4vq  X3eq  1 4.300000e-01    3.380000e+00
 SC4vq  X2eq  1 4.300000e-01    3.380000e+00
 SC4vq  X1eq  1 4.300000e-01    3.590000e+00
 SC3vq  C3eq  1 4.300000e-01    3.590000e+00
 SC3vq  C2eq  1 4.300000e-01    3.590000e+00
 SC3vq  C1eq  1 4.300000e-01    3.590000e+00
 SC3vq  X4eq  1 4.300000e-01    3.380000e+00
 SC3vq  X3eq  1 4.300000e-01    3.380000e+00
 SC3vq  X2eq  1 4.300000e-01    3.380000e+00
 SC3vq  X1eq  1 4.300000e-01    3.590000e+00
 SC2vq  C2eq  1 4.300000e-01    3.590000e+00
 SC2vq  C1eq  1 4.300000e-01    3.770000e+00
 SC2vq  X4eq  1 4.300000e-01    2.930000e+00
 SC2vq  X3eq  1 4.300000e-01    3.380000e+00
 SC2vq  X2eq  1 4.300000e-01    3.380000e+00
 SC2vq  X1eq  1 4.300000e-01    3.380000e+00
 SC1vq  C1eq  1 4.300000e-01    3.590000e+00
 SC1vq  X4eq  1 4.300000e-01    2.930000e+00
 SC1vq  X3eq  1 4.300000e-01    3.380000e+00
 SC1vq  X2eq  1 4.300000e-01    3.380000e+00
 SC1vq  X1eq  1 4.300000e-01    3.380000e+00
 SX4vq  X4eq  1 4.300000e-01    3.590000e+00
 SX4vq  X3eq  1 4.300000e-01    3.590000e+00
 SX4vq  X2eq  1 4.300000e-01    3.590000e+00
 SX4vq  X1eq  1 4.300000e-01    3.590000e+00
 SX3vq  X3eq  1 4.300000e-01    3.590000e+00
 SX3vq  X2eq  1 4.300000e-01    3.770000e+00
 SX3vq  X1eq  1 4.300000e-01    3.770000e+00
 SX2vq  X2eq  1 4.300000e-01    3.770000e+00
 SX2vq  X1eq  1 4.300000e-01    3.770000e+00
 SX1vq  X1eq  1 4.300000e-01    3.970000e+00
  C6vq SC6eh  1 4.300000e-01    3.770000e+00
  C6vq SC5eh  1 4.300000e-01    3.590000e+00
  C5vq SC5eh  1 4.300000e-01    3.590000e+00
  C6vq SC4eh  1 4.300000e-01    3.590000e+00
  C5vq SC4eh  1 4.300000e-01    3.590000e+00
  C4vq SC4eh  1 4.300000e-01    3.590000e+00
  C6vq SC3eh  1 4.300000e-01    3.380000e+00
  C5vq SC3eh  1 4.300000e-01    3.380000e+00
  C4vq SC3eh  1 4.300000e-01    3.590000e+00
  C3vq SC3eh  1 4.300000e-01    3.590000e+00
  C6vq SC2eh  1 4.300000e-01    3.160000e+00
  C5vq SC2eh  1 4.300000e-01    3.160000e+00
  C4vq SC2eh  1 4.300000e-01    3.380000e+00
  C3vq SC2eh  1 4.300000e-01    3.590000e+00
  C2vq SC2eh  1 4.300000e-01    3.590000e+00
  C6vq SC1eh  1 4.300000e-01    2.930000e+00
  C5vq SC1eh  1 4.300000e-01    3.160000e+00
  C4vq SC1eh  1 4.300000e-01    3.160000e+00
  C3vq SC1eh  1 4.300000e-01    3.590000e+00
  C2vq SC1eh  1 4.300000e-01    3.770000e+00
  C1vq SC1eh  1 4.300000e-01    3.590000e+00
  C6vq SX4eh  1 4.300000e-01    3.590000e+00
  C5vq SX4eh  1 4.300000e-01    3.380000e+00
  C4vq SX4eh  1 4.300000e-01    3.380000e+00
  C3vq SX4eh  1 4.300000e-01    3.380000e+00
  C2vq SX4eh  1 4.300000e-01    2.930000e+00
  C1vq SX4eh  1 4.300000e-01    2.930000e+00
  X4vq SX4eh  1 4.300000e-01    3.590000e+00
  C6vq SX3eh  1 4.300000e-01    3.590000e+00
  C5vq SX3eh  1 4.300000e-01    3.380000e+00
  C4vq SX3eh  1 4.300000e-01    3.380000e+00
  C3vq SX3eh  1 4.300000e-01    3.380000e+00
  C2vq SX3eh  1 4.300000e-01    3.380000e+00
  C1vq SX3eh  1 4.300000e-01    3.380000e+00
  X4vq SX3eh  1 4.300000e-01    3.590000e+00
  X3vq SX3eh  1 4.300000e-01    3.590000e+00
  C6vq SX2eh  1 4.300000e-01    3.590000e+00
  C5vq SX2eh  1 4.300000e-01    3.380000e+00
  C4vq SX2eh  1 4.300000e-01    3.380000e+00
  C3vq SX2eh  1 4.300000e-01    3.380000e+00
  C2vq SX2eh  1 4.300000e-01    3.380000e+00
  C1vq SX2eh  1 4.300000e-01    3.380000e+00
  X4vq SX2eh  1 4.300000e-01    3.590000e+00
  X3vq SX2eh  1 4.300000e-01    3.770000e+00
  X2vq SX2eh  1 4.300000e-01    3.770000e+00
  C6vq SX1eh  1 4.300000e-01    3.590000e+00
  C5vq SX1eh  1 4.300000e-01    3.590000e+00
  C4vq SX1eh  1 4.300000e-01    3.590000e+00
  C3vq SX1eh  1 4.300000e-01    3.590000e+00
  C2vq SX1eh  1 4.300000e-01    3.380000e+00
  C1vq SX1eh  1 4.300000e-01    3.380000e+00
  X4vq SX1eh  1 4.300000e-01    3.590000e+00
  X3vq SX1eh  1 4.300000e-01    3.770000e+00
  X2vq SX1eh  1 4.300000e-01    3.770000e+00
  X1vq SX1eh  1 4.300000e-01    3.970000e+00
 SC6vq  C6eh  1 4.300000e-01    3.770000e+00
 SC6vq  C5eh  1 4.300000e-01    3.590000e+00
 SC5vq  C5eh  1 4.300000e-01    3.590000e+00
 SC6vq  C4eh  1 4.300000e-01    3.590000e+00
 SC5vq  C4eh  1 4.300000e-01    3.590000e+00
 SC4vq  C4eh  1 4.300000e-01    3.590000e+00
 SC6vq  C3eh  1 4.300000e-01    3.380000e+00
 SC5vq  C3eh  1 4.300000e-01    3.380000e+00
 SC4vq  C3eh  1 4.300000e-01    3.590000e+00
 SC3vq  C3eh  1 4.300000e-01    3.590000e+00
 SC6vq  C2eh  1 4.300000e-01    3.160000e+00
 SC5vq  C2eh  1 4.300000e-01    3.160000e+00
 SC4vq  C2eh  1 4.300000e-01    3.380000e+00
 SC3vq  C2eh  1 4.300000e-01    3.590000e+00
 SC2vq  C2eh  1 4.300000e-01    3.590000e+00
 SC6vq  C1eh  1 4.300000e-01    2.930000e+00
 SC5vq  C1eh  1 4.300000e-01    3.160000e+00
 SC4vq  C1eh  1 4.300000e-01    3.160000e+00
 SC3vq  C1eh  1 4.300000e-01    3.590000e+00
 SC2vq  C1eh  1 4.300000e-01    3.770000e+00
 SC1vq  C1eh  1 4.300000e-01    3.590000e+00
 SC6vq  X4eh  1 4.300000e-01    3.590000e+00
 SC5vq  X4eh  1 4.300000e-01    3.380000e+00
 SC4vq  X4eh  1 4.300000e-01    3.380000e+00
 SC3vq  X4eh  1 4.300000e-01    3.380000e+00
 SC2vq  X4eh  1 4.300000e-01    2.930000e+00
 SC1vq  X4eh  1 4.300000e-01    2.930000e+00
 SX4vq  X4eh  1 4.300000e-01    3.590000e+00
 SC6vq  X3eh  1 4.300000e-01    3.590000e+00
 SC5vq  X3eh  1 4.300000e-01    3.380000e+00
 SC4vq  X3eh  1 4.300000e-01    3.380000e+00
 SC3vq  X3eh  1 4.300000e-01    3.380000e+00
 SC2vq  X3eh  1 4.300000e-01    3.380000e+00
 SC1vq  X3eh  1 4.300000e-01    3.380000e+00
 SX4vq  X3eh  1 4.300000e-01    3.590000e+00
 SX3vq  X3eh  1 4.300000e-01    3.590000e+00
 SC6vq  X2eh  1 4.300000e-01    3.590000e+00
 SC5vq  X2eh  1 4.300000e-01    3.380000e+00
 SC4vq  X2eh  1 4.300000e-01    3.380000e+00
 SC3vq  X2eh  1 4.300000e-01    3.380000e+00
 SC2vq  X2eh  1 4.300000e-01    3.380000e+00
 SC1vq  X2eh  1 4.300000e-01    3.380000e+00
 SX4vq  X2eh  1 4.300000e-01    3.590000e+00
 SX3vq  X2eh  1 4.300000e-01    3.770000e+00
 SX2vq  X2eh  1 4.300000e-01    3.770000e+00
 SC6vq  X1eh  1 4.300000e-01    3.590000e+00
 SC5vq  X1eh  1 4.300000e-01    3.590000e+00
 SC4vq  X1eh  1 4.300000e-01    3.590000e+00
 SC3vq  X1eh  1 4.300000e-01    3.590000e+00
 SC2vq  X1eh  1 4.300000e-01    3.380000e+00
 SC1vq  X1eh  1 4.300000e-01    3.380000e+00
 SX4vq  X1eh  1 4.300000e-01    3.590000e+00
 SX3vq  X1eh  1 4.300000e-01    3.770000e+00
 SX2vq  X1eh  1 4.300000e-01    3.770000e+00
 SX1vq  X1eh  1 4.300000e-01    3.970000e+00
  C6vq SC6er  1 4.300000e-01    3.770000e+00
  C6vq SC5er  1 4.300000e-01    3.590000e+00
  C5vq SC5er  1 4.300000e-01    3.590000e+00
  C6vq SC4er  1 4.300000e-01    3.590000e+00
  C5vq SC4er  1 4.300000e-01    3.590000e+00
  C4vq SC4er  1 4.300000e-01    3.590000e+00
  C6vq SC3er  1 4.300000e-01    3.380000e+00
  C5vq SC3er  1 4.300000e-01    3.380000e+00
  C4vq SC3er  1 4.300000e-01    3.590000e+00
  C3vq SC3er  1 4.300000e-01    3.590000e+00
  C6vq SC2er  1 4.300000e-01    3.160000e+00
  C5vq SC2er  1 4.300000e-01    3.160000e+00
  C4vq SC2er  1 4.300000e-01    3.380000e+00
  C3vq SC2er  1 4.300000e-01    3.590000e+00
  C2vq SC2er  1 4.300000e-01    3.590000e+00
  C6vq SC1er  1 4.300000e-01    2.930000e+00
  C5vq SC1er  1 4.300000e-01    3.160000e+00
  C4vq SC1er  1 4.300000e-01    3.160000e+00
  C3vq SC1er  1 4.300000e-01    3.590000e+00
  C2vq SC1er  1 4.300000e-01    3.770000e+00
  C1vq SC1er  1 4.300000e-01    3.590000e+00
  C6vq SX4er  1 4.300000e-01    3.590000e+00
  C5vq SX4er  1 4.300000e-01    3.380000e+00
  C4vq SX4er  1 4.300000e-01    3.380000e+00
  C3vq SX4er  1 4.300000e-01    3.380000e+00
  C2vq SX4er  1 4.300000e-01    2.930000e+00
  C1vq SX4er  1 4.300000e-01    2.930000e+00
  X4vq SX4er  1 4.300000e-01    3.590000e+00
  C6vq SX3er  1 4.300000e-01    3.590000e+00
  C5vq SX3er  1 4.300000e-01    3.380000e+00
  C4vq SX3er  1 4.300000e-01    3.380000e+00
  C3vq SX3er  1 4.300000e-01    3.380000e+00
  C2vq SX3er  1 4.300000e-01    3.380000e+00
  C1vq SX3er  1 4.300000e-01    3.380000e+00
  X4vq SX3er  1 4.300000e-01    3.590000e+00
  X3vq SX3er  1 4.300000e-01    3.590000e+00
  C6vq SX2er  1 4.300000e-01    3.590000e+00
  C5vq SX2er  1 4.300000e-01    3.380000e+00
  C4vq SX2er  1 4.300000e-01    3.380000e+00
  C3vq SX2er  1 4.300000e-01    3.380000e+00
  C2vq SX2er  1 4.300000e-01    3.380000e+00
  C1vq SX2er  1 4.300000e-01    3.380000e+00
  X4vq SX2er  1 4.300000e-01    3.590000e+00
  X3vq SX2er  1 4.300000e-01    3.770000e+00
  X2vq SX2er  1 4.300000e-01    3.770000e+00
  C6vq SX1er  1 4.300000e-01    3.590000e+00
  C5vq SX1er  1 4.300000e-01    3.590000e+00
  C4vq SX1er  1 4.300000e-01    3.590000e+00
  C3vq SX1er  1 4.300000e-01    3.590000e+00
  C2vq SX1er  1 4.300000e-01    3.380000e+00
  C1vq SX1er  1 4.300000e-01    3.380000e+00
  X4vq SX1er  1 4.300000e-01    3.590000e+00
  X3vq SX1er  1 4.300000e-01    3.770000e+00
  X2vq SX1er  1 4.300000e-01    3.770000e+00
  X1vq SX1er  1 4.300000e-01    3.970000e+00
 SC6vq  C6er  1 4.300000e-01    3.770000e+00
 SC6vq  C5er  1 4.300000e-01    3.590000e+00
 SC5vq  C5er  1 4.300000e-01    3.590000e+00
 SC6vq  C4er  1 4.300000e-01    3.590000e+00
 SC5vq  C4er  1 4.300000e-01    3.590000e+00
 SC4vq  C4er  1 4.300000e-01    3.590000e+00
 SC6vq  C3er  1 4.300000e-01    3.380000e+00
 SC5vq  C3er  1 4.300000e-01    3.380000e+00
 SC4vq  C3er  1 4.300000e-01    3.590000e+00
 SC3vq  C3er  1 4.300000e-01    3.590000e+00
 SC6vq  C2er  1 4.300000e-01    3.160000e+00
 SC5vq  C2er  1 4.300000e-01    3.160000e+00
 SC4vq  C2er  1 4.300000e-01    3.380000e+00
 SC3vq  C2er  1 4.300000e-01    3.590000e+00
 SC2vq  C2er  1 4.300000e-01    3.590000e+00
 SC6vq  C1er  1 4.300000e-01    2.930000e+00
 SC5vq  C1er  1 4.300000e-01    3.160000e+00
 SC4vq  C1er  1 4.300000e-01    3.160000e+00
 SC3vq  C1er  1 4.300000e-01    3.590000e+00
 SC2vq  C1er  1 4.300000e-01    3.770000e+00
 SC1vq  C1er  1 4.300000e-01    3.590000e+00
 SC6vq  X4er  1 4.300000e-01    3.590000e+00
 SC5vq  X4er  1 4.300000e-01    3.380000e+00
 SC4vq  X4er  1 4.300000e-01    3.380000e+00
 SC3vq  X4er  1 4.300000e-01    3.380000e+00
 SC2vq  X4er  1 4.300000e-01    2.930000e+00
 SC1vq  X4er  1 4.300000e-01    2.930000e+00
 SX4vq  X4er  1 4.300000e-01    3.590000e+00
 SC6vq  X3er  1 4.300000e-01    3.590000e+00
 SC5vq  X3er  1 4.300000e-01    3.380000e+00
 SC4vq  X3er  1 4.300000e-01    3.380000e+00
 SC3vq  X3er  1 4.300000e-01    3.380000e+00
 SC2vq  X3er  1 4.300000e-01    3.380000e+00
 SC1vq  X3er  1 4.300000e-01    3.380000e+00
 SX4vq  X3er  1 4.300000e-01    3.590000e+00
 SX3vq  X3er  1 4.300000e-01    3.590000e+00
 SC6vq  X2er  1 4.300000e-01    3.590000e+00
 SC5vq  X2er  1 4.300000e-01    3.380000e+00
 SC4vq  X2er  1 4.300000e-01    3.380000e+00
 SC3vq  X2er  1 4.300000e-01    3.380000e+00
 SC2vq  X2er  1 4.300000e-01    3.380000e+00
 SC1vq  X2er  1 4.300000e-01    3.380000e+00
 SX4vq  X2er  1 4.300000e-01    3.590000e+00
 SX3vq  X2er  1 4.300000e-01    3.770000e+00
 SX2vq  X2er  1 4.300000e-01    3.770000e+00
 SC6vq  X1er  1 4.300000e-01    3.590000e+00
 SC5vq  X1er  1 4.300000e-01    3.590000e+00
 SC4vq  X1er  1 4.300000e-01    3.590000e+00
 SC3vq  X1er  1 4.300000e-01    3.590000e+00
 SC2vq  X1er  1 4.300000e-01    3.380000e+00
 SC1vq  X1er  1 4.300000e-01    3.380000e+00
 SX4vq  X1er  1 4.300000e-01    3.590000e+00
 SX3vq  X1er  1 4.300000e-01    3.770000e+00
 SX2vq  X1er  1 4.300000e-01    3.770000e+00
 SX1vq  X1er  1 4.300000e-01    3.970000e+00
  C6vh  SC6e  1 4.300000e-01    3.380000e+00
  C6vh  SC5e  1 4.300000e-01    3.160000e+00
  C6vh  SC4e  1 4.300000e-01    3.160000e+00
  C6vh  SC3e  1 4.300000e-01    2.930000e+00
  C6vh  SC2e  1 4.300000e-01    2.920000e+00
  C6vh  SC1e  1 4.300000e-01    2.530000e+00
  C6vh  SX4e  1 4.300000e-01    3.160000e+00
  C6vh  SX3e  1 4.300000e-01    3.160000e+00
  C6vh  SX2e  1 4.300000e-01    3.160000e+00
  C6vh  SX1e  1 4.300000e-01    3.160000e+00
  C5vh  SC5e  1 4.300000e-01    3.160000e+00
  C5vh  SC4e  1 4.300000e-01    3.160000e+00
  C5vh  SC3e  1 4.300000e-01    2.930000e+00
  C5vh  SC2e  1 4.300000e-01    2.920000e+00
  C5vh  SC1e  1 4.300000e-01    2.920000e+00
  C5vh  SX4e  1 4.300000e-01    2.930000e+00
  C5vh  SX3e  1 4.300000e-01    2.930000e+00
  C5vh  SX2e  1 4.300000e-01    2.930000e+00
  C5vh  SX1e  1 4.300000e-01    3.160000e+00
  C4vh  SC4e  1 4.300000e-01    3.160000e+00
  C4vh  SC3e  1 4.300000e-01    3.160000e+00
  C4vh  SC2e  1 4.300000e-01    2.930000e+00
  C4vh  SC1e  1 4.300000e-01    2.920000e+00
  C4vh  SX4e  1 4.300000e-01    2.930000e+00
  C4vh  SX3e  1 4.300000e-01    2.930000e+00
  C4vh  SX2e  1 4.300000e-01    2.930000e+00
  C4vh  SX1e  1 4.300000e-01    3.160000e+00
  C3vh  SC3e  1 4.300000e-01    3.160000e+00
  C3vh  SC2e  1 4.300000e-01    3.160000e+00
  C3vh  SC1e  1 4.300000e-01    3.160000e+00
  C3vh  SX4e  1 4.300000e-01    2.930000e+00
  C3vh  SX3e  1 4.300000e-01    2.930000e+00
  C3vh  SX2e  1 4.300000e-01    2.930000e+00
  C3vh  SX1e  1 4.300000e-01    3.160000e+00
  C2vh  SC2e  1 4.300000e-01    3.160000e+00
  C2vh  SC1e  1 4.300000e-01    3.380000e+00
  C2vh  SX4e  1 4.300000e-01    2.530000e+00
  C2vh  SX3e  1 4.300000e-01    2.930000e+00
  C2vh  SX2e  1 4.300000e-01    2.930000e+00
  C2vh  SX1e  1 4.300000e-01    2.930000e+00
  C1vh  SC1e  1 4.300000e-01    3.160000e+00
  C1vh  SX4e  1 4.300000e-01    2.530000e+00
  C1vh  SX3e  1 4.300000e-01    2.930000e+00
  C1vh  SX2e  1 4.300000e-01    2.930000e+00
  C1vh  SX1e  1 4.300000e-01    2.930000e+00
  X4vh  SX4e  1 4.300000e-01    3.160000e+00
  X4vh  SX3e  1 4.300000e-01    3.160000e+00
  X4vh  SX2e  1 4.300000e-01    3.160000e+00
  X4vh  SX1e  1 4.300000e-01    3.160000e+00
  X3vh  SX3e  1 4.300000e-01    3.160000e+00
  X3vh  SX2e  1 4.300000e-01    3.380000e+00
  X3vh  SX1e  1 4.300000e-01    3.380000e+00
  X2vh  SX2e  1 4.300000e-01    3.380000e+00
  X2vh  SX1e  1 4.300000e-01    3.380000e+00
  X1vh  SX1e  1 4.300000e-01    3.590000e+00
 SC6vh   C6e  1 4.300000e-01    3.380000e+00
 SC6vh   C5e  1 4.300000e-01    3.160000e+00
 SC6vh   C4e  1 4.300000e-01    3.160000e+00
 SC6vh   C3e  1 4.300000e-01    2.930000e+00
 SC6vh   C2e  1 4.300000e-01    2.920000e+00
 SC6vh   C1e  1 4.300000e-01    2.530000e+00
 SC6vh   X4e  1 4.300000e-01    3.160000e+00
 SC6vh   X3e  1 4.300000e-01    3.160000e+00
 SC6vh   X2e  1 4.300000e-01    3.160000e+00
 SC6vh   X1e  1 4.300000e-01    3.160000e+00
 SC5vh   C5e  1 4.300000e-01    3.160000e+00
 SC5vh   C4e  1 4.300000e-01    3.160000e+00
 SC5vh   C3e  1 4.300000e-01    2.930000e+00
 SC5vh   C2e  1 4.300000e-01    2.920000e+00
 SC5vh   C1e  1 4.300000e-01    2.920000e+00
 SC5vh   X4e  1 4.300000e-01    2.930000e+00
 SC5vh   X3e  1 4.300000e-01    2.930000e+00
 SC5vh   X2e  1 4.300000e-01    2.930000e+00
 SC5vh   X1e  1 4.300000e-01    3.160000e+00
 SC4vh   C4e  1 4.300000e-01    3.160000e+00
 SC4vh   C3e  1 4.300000e-01    3.160000e+00
 SC4vh   C2e  1 4.300000e-01    2.930000e+00
 SC4vh   C1e  1 4.300000e-01    2.920000e+00
 SC4vh   X4e  1 4.300000e-01    2.930000e+00
 SC4vh   X3e  1 4.300000e-01    2.930000e+00
 SC4vh   X2e  1 4.300000e-01    2.930000e+00
 SC4vh   X1e  1 4.300000e-01    3.160000e+00
 SC3vh   C3e  1 4.300000e-01    3.160000e+00
 SC3vh   C2e  1 4.300000e-01    3.160000e+00
 SC3vh   C1e  1 4.300000e-01    3.160000e+00
 SC3vh   X4e  1 4.300000e-01    2.930000e+00
 SC3vh   X3e  1 4.300000e-01    2.930000e+00
 SC3vh   X2e  1 4.300000e-01    2.930000e+00
 SC3vh   X1e  1 4.300000e-01    3.160000e+00
 SC2vh   C2e  1 4.300000e-01    3.160000e+00
 SC2vh   C1e  1 4.300000e-01    3.380000e+00
 SC2vh   X4e  1 4.300000e-01    2.530000e+00
 SC2vh   X3e  1 4.300000e-01    2.930000e+00
 SC2vh   X2e  1 4.300000e-01    2.930000e+00
 SC2vh   X1e  1 4.300000e-01    2.930000e+00
 SC1vh   C1e  1 4.300000e-01    3.160000e+00
 SC1vh   X4e  1 4.300000e-01    2.530000e+00
 SC1vh   X3e  1 4.300000e-01    2.930000e+00
 SC1vh   X2e  1 4.300000e-01    2.930000e+00
 SC1vh   X1e  1 4.300000e-01    2.930000e+00
 SX4vh   X4e  1 4.300000e-01    3.160000e+00
 SX4vh   X3e  1 4.300000e-01    3.160000e+00
 SX4vh   X2e  1 4.300000e-01    3.160000e+00
 SX4vh   X1e  1 4.300000e-01    3.160000e+00
 SX3vh   X3e  1 4.300000e-01    3.160000e+00
 SX3vh   X2e  1 4.300000e-01    3.380000e+00
 SX3vh   X1e  1 4.300000e-01    3.380000e+00
 SX2vh   X2e  1 4.300000e-01    3.380000e+00
 SX2vh   X1e  1 4.300000e-01    3.380000e+00
 SX1vh   X1e  1 4.300000e-01    3.590000e+00
  C6vh SX1eq  1 4.300000e-01    3.590000e+00
  C6vh SX2eq  1 4.300000e-01    3.590000e+00
  C6vh SX3eq  1 4.300000e-01    3.590000e+00
  C6vh SX4eq  1 4.300000e-01    3.590000e+00
  C6vh SC1eq  1 4.300000e-01    2.930000e+00
  C6vh SC2eq  1 4.300000e-01    3.160000e+00
  C6vh SC3eq  1 4.300000e-01    3.380000e+00
  C6vh SC4eq  1 4.300000e-01    3.590000e+00
  C6vh SC5eq  1 4.300000e-01    3.590000e+00
  C6vh SC6eq  1 4.300000e-01    3.770000e+00
  C5vh SX1eq  1 4.300000e-01    3.590000e+00
  C5vh SX2eq  1 4.300000e-01    3.380000e+00
  C5vh SX3eq  1 4.300000e-01    3.380000e+00
  C5vh SX4eq  1 4.300000e-01    3.380000e+00
  C5vh SC1eq  1 4.300000e-01    3.160000e+00
  C5vh SC2eq  1 4.300000e-01    3.160000e+00
  C5vh SC3eq  1 4.300000e-01    3.380000e+00
  C5vh SC4eq  1 4.300000e-01    3.590000e+00
  C5vh SC5eq  1 4.300000e-01    3.590000e+00
  C4vh SX1eq  1 4.300000e-01    3.590000e+00
  C4vh SX2eq  1 4.300000e-01    3.380000e+00
  C4vh SX3eq  1 4.300000e-01    3.380000e+00
  C4vh SX4eq  1 4.300000e-01    3.380000e+00
  C4vh SC1eq  1 4.300000e-01    3.160000e+00
  C4vh SC2eq  1 4.300000e-01    3.380000e+00
  C4vh SC3eq  1 4.300000e-01    3.590000e+00
  C4vh SC4eq  1 4.300000e-01    3.590000e+00
  C3vh SX1eq  1 4.300000e-01    3.590000e+00
  C3vh SX2eq  1 4.300000e-01    3.380000e+00
  C3vh SX3eq  1 4.300000e-01    3.380000e+00
  C3vh SX4eq  1 4.300000e-01    3.380000e+00
  C3vh SC1eq  1 4.300000e-01    3.590000e+00
  C3vh SC2eq  1 4.300000e-01    3.590000e+00
  C3vh SC3eq  1 4.300000e-01    3.590000e+00
  C2vh SX1eq  1 4.300000e-01    3.380000e+00
  C2vh SX2eq  1 4.300000e-01    3.380000e+00
  C2vh SX3eq  1 4.300000e-01    3.380000e+00
  C2vh SX4eq  1 4.300000e-01    2.930000e+00
  C2vh SC1eq  1 4.300000e-01    3.770000e+00
  C2vh SC2eq  1 4.300000e-01    3.590000e+00
  C1vh SX1eq  1 4.300000e-01    3.380000e+00
  C1vh SX2eq  1 4.300000e-01    3.380000e+00
  C1vh SX3eq  1 4.300000e-01    3.380000e+00
  C1vh SX4eq  1 4.300000e-01    2.930000e+00
  C1vh SC1eq  1 4.300000e-01    3.590000e+00
  X4vh SX1eq  1 4.300000e-01    3.590000e+00
  X4vh SX2eq  1 4.300000e-01    3.590000e+00
  X4vh SX3eq  1 4.300000e-01    3.590000e+00
  X4vh SX4eq  1 4.300000e-01    3.590000e+00
  X3vh SX1eq  1 4.300000e-01    3.770000e+00
  X3vh SX2eq  1 4.300000e-01    3.770000e+00
  X3vh SX3eq  1 4.300000e-01    3.590000e+00
  X2vh SX1eq  1 4.300000e-01    3.770000e+00
  X2vh SX2eq  1 4.300000e-01    3.770000e+00
  X1vh SX1eq  1 4.300000e-01    3.970000e+00
 SC6vh  X1eq  1 4.300000e-01    3.590000e+00
 SC6vh  X2eq  1 4.300000e-01    3.590000e+00
 SC6vh  X3eq  1 4.300000e-01    3.590000e+00
 SC6vh  X4eq  1 4.300000e-01    3.590000e+00
 SC6vh  C1eq  1 4.300000e-01    2.930000e+00
 SC6vh  C2eq  1 4.300000e-01    3.160000e+00
 SC6vh  C3eq  1 4.300000e-01    3.380000e+00
 SC6vh  C4eq  1 4.300000e-01    3.590000e+00
 SC6vh  C5eq  1 4.300000e-01    3.590000e+00
 SC6vh  C6eq  1 4.300000e-01    3.770000e+00
 SC5vh  X1eq  1 4.300000e-01    3.590000e+00
 SC5vh  X2eq  1 4.300000e-01    3.380000e+00
 SC5vh  X3eq  1 4.300000e-01    3.380000e+00
 SC5vh  X4eq  1 4.300000e-01    3.380000e+00
 SC5vh  C1eq  1 4.300000e-01    3.160000e+00
 SC5vh  C2eq  1 4.300000e-01    3.160000e+00
 SC5vh  C3eq  1 4.300000e-01    3.380000e+00
 SC5vh  C4eq  1 4.300000e-01    3.590000e+00
 SC5vh  C5eq  1 4.300000e-01    3.590000e+00
 SC4vh  X1eq  1 4.300000e-01    3.590000e+00
 SC4vh  X2eq  1 4.300000e-01    3.380000e+00
 SC4vh  X3eq  1 4.300000e-01    3.380000e+00
 SC4vh  X4eq  1 4.300000e-01    3.380000e+00
 SC4vh  C1eq  1 4.300000e-01    3.160000e+00
 SC4vh  C2eq  1 4.300000e-01    3.380000e+00
 SC4vh  C3eq  1 4.300000e-01    3.590000e+00
 SC4vh  C4eq  1 4.300000e-01    3.590000e+00
 SC3vh  X1eq  1 4.300000e-01    3.590000e+00
 SC3vh  X2eq  1 4.300000e-01    3.380000e+00
 SC3vh  X3eq  1 4.300000e-01    3.380000e+00
 SC3vh  X4eq  1 4.300000e-01    3.380000e+00
 SC3vh  C1eq  1 4.300000e-01    3.590000e+00
 SC3vh  C2eq  1 4.300000e-01    3.590000e+00
 SC3vh  C3eq  1 4.300000e-01    3.590000e+00
 SC2vh  X1eq  1 4.300000e-01    3.380000e+00
 SC2vh  X2eq  1 4.300000e-01    3.380000e+00
 SC2vh  X3eq  1 4.300000e-01    3.380000e+00
 SC2vh  X4eq  1 4.300000e-01    2.930000e+00
 SC2vh  C1eq  1 4.300000e-01    3.770000e+00
 SC2vh  C2eq  1 4.300000e-01    3.590000e+00
 SC1vh  X1eq  1 4.300000e-01    3.380000e+00
 SC1vh  X2eq  1 4.300000e-01    3.380000e+00
 SC1vh  X3eq  1 4.300000e-01    3.380000e+00
 SC1vh  X4eq  1 4.300000e-01    2.930000e+00
 SC1vh  C1eq  1 4.300000e-01    3.590000e+00
 SX4vh  X1eq  1 4.300000e-01    3.590000e+00
 SX4vh  X2eq  1 4.300000e-01    3.590000e+00
 SX4vh  X3eq  1 4.300000e-01    3.590000e+00
 SX4vh  X4eq  1 4.300000e-01    3.590000e+00
 SX3vh  X1eq  1 4.300000e-01    3.770000e+00
 SX3vh  X2eq  1 4.300000e-01    3.770000e+00
 SX3vh  X3eq  1 4.300000e-01    3.590000e+00
 SX2vh  X1eq  1 4.300000e-01    3.770000e+00
 SX2vh  X2eq  1 4.300000e-01    3.770000e+00
 SX1vh  X1eq  1 4.300000e-01    3.970000e+00
  C6vh SC6eh  1 4.300000e-01    3.590000e+00
  C6vh SC5eh  1 4.300000e-01    3.380000e+00
  C6vh SC4eh  1 4.300000e-01    3.380000e+00
  C6vh SC3eh  1 4.300000e-01    3.160000e+00
  C6vh SC2eh  1 4.300000e-01    2.930000e+00
  C6vh SC1eh  1 4.300000e-01    2.920000e+00
  C6vh SX4eh  1 4.300000e-01    3.380000e+00
  C6vh SX3eh  1 4.300000e-01    3.380000e+00
  C6vh SX2eh  1 4.300000e-01    3.380000e+00
  C6vh SX1eh  1 4.300000e-01    3.380000e+00
  C5vh SC5eh  1 4.300000e-01    3.380000e+00
  C5vh SC4eh  1 4.300000e-01    3.380000e+00
  C5vh SC3eh  1 4.300000e-01    3.160000e+00
  C5vh SC2eh  1 4.300000e-01    2.930000e+00
  C5vh SC1eh  1 4.300000e-01    2.930000e+00
  C5vh SX4eh  1 4.300000e-01    3.160000e+00
  C5vh SX3eh  1 4.300000e-01    3.160000e+00
  C5vh SX2eh  1 4.300000e-01    3.160000e+00
  C5vh SX1eh  1 4.300000e-01    3.380000e+00
  C4vh SC4eh  1 4.300000e-01    3.380000e+00
  C4vh SC3eh  1 4.300000e-01    3.380000e+00
  C4vh SC2eh  1 4.300000e-01    3.160000e+00
  C4vh SC1eh  1 4.300000e-01    2.930000e+00
  C4vh SX4eh  1 4.300000e-01    3.160000e+00
  C4vh SX3eh  1 4.300000e-01    3.160000e+00
  C4vh SX2eh  1 4.300000e-01    3.160000e+00
  C4vh SX1eh  1 4.300000e-01    3.380000e+00
  C3vh SC3eh  1 4.300000e-01    3.380000e+00
  C3vh SC2eh  1 4.300000e-01    3.380000e+00
  C3vh SC1eh  1 4.300000e-01    3.380000e+00
  C3vh SX4eh  1 4.300000e-01    3.160000e+00
  C3vh SX3eh  1 4.300000e-01    3.160000e+00
  C3vh SX2eh  1 4.300000e-01    3.160000e+00
  C3vh SX1eh  1 4.300000e-01    3.380000e+00
  C2vh SC2eh  1 4.300000e-01    3.380000e+00
  C2vh SC1eh  1 4.300000e-01    3.590000e+00
  C2vh SX4eh  1 4.300000e-01    2.920000e+00
  C2vh SX3eh  1 4.300000e-01    3.160000e+00
  C2vh SX2eh  1 4.300000e-01    3.160000e+00
  C2vh SX1eh  1 4.300000e-01    3.160000e+00
  C1vh SC1eh  1 4.300000e-01    3.380000e+00
  C1vh SX4eh  1 4.300000e-01    2.920000e+00
  C1vh SX3eh  1 4.300000e-01    3.160000e+00
  C1vh SX2eh  1 4.300000e-01    3.160000e+00
  C1vh SX1eh  1 4.300000e-01    3.160000e+00
  X4vh SX4eh  1 4.300000e-01    3.380000e+00
  X4vh SX3eh  1 4.300000e-01    3.380000e+00
  X4vh SX2eh  1 4.300000e-01    3.380000e+00
  X4vh SX1eh  1 4.300000e-01    3.380000e+00
  X3vh SX3eh  1 4.300000e-01    3.380000e+00
  X3vh SX2eh  1 4.300000e-01    3.590000e+00
  X3vh SX1eh  1 4.300000e-01    3.590000e+00
  X2vh SX2eh  1 4.300000e-01    3.590000e+00
  X2vh SX1eh  1 4.300000e-01    3.590000e+00
  X1vh SX1eh  1 4.300000e-01    3.770000e+00
 SC6vh  C6eh  1 4.300000e-01    3.590000e+00
 SC6vh  C5eh  1 4.300000e-01    3.380000e+00
 SC6vh  C4eh  1 4.300000e-01    3.380000e+00
 SC6vh  C3eh  1 4.300000e-01    3.160000e+00
 SC6vh  C2eh  1 4.300000e-01    2.930000e+00
 SC6vh  C1eh  1 4.300000e-01    2.920000e+00
 SC6vh  X4eh  1 4.300000e-01    3.380000e+00
 SC6vh  X3eh  1 4.300000e-01    3.380000e+00
 SC6vh  X2eh  1 4.300000e-01    3.380000e+00
 SC6vh  X1eh  1 4.300000e-01    3.380000e+00
 SC5vh  C5eh  1 4.300000e-01    3.380000e+00
 SC5vh  C4eh  1 4.300000e-01    3.380000e+00
 SC5vh  C3eh  1 4.300000e-01    3.160000e+00
 SC5vh  C2eh  1 4.300000e-01    2.930000e+00
 SC5vh  C1eh  1 4.300000e-01    2.930000e+00
 SC5vh  X4eh  1 4.300000e-01    3.160000e+00
 SC5vh  X3eh  1 4.300000e-01    3.160000e+00
 SC5vh  X2eh  1 4.300000e-01    3.160000e+00
 SC5vh  X1eh  1 4.300000e-01    3.380000e+00
 SC4vh  C4eh  1 4.300000e-01    3.380000e+00
 SC4vh  C3eh  1 4.300000e-01    3.380000e+00
 SC4vh  C2eh  1 4.300000e-01    3.160000e+00
 SC4vh  C1eh  1 4.300000e-01    2.930000e+00
 SC4vh  X4eh  1 4.300000e-01    3.160000e+00
 SC4vh  X3eh  1 4.300000e-01    3.160000e+00
 SC4vh  X2eh  1 4.300000e-01    3.160000e+00
 SC4vh  X1eh  1 4.300000e-01    3.380000e+00
 SC3vh  C3eh  1 4.300000e-01    3.380000e+00
 SC3vh  C2eh  1 4.300000e-01    3.380000e+00
 SC3vh  C1eh  1 4.300000e-01    3.380000e+00
 SC3vh  X4eh  1 4.300000e-01    3.160000e+00
 SC3vh  X3eh  1 4.300000e-01    3.160000e+00
 SC3vh  X2eh  1 4.300000e-01    3.160000e+00
 SC3vh  X1eh  1 4.300000e-01    3.380000e+00
 SC2vh  C2eh  1 4.300000e-01    3.380000e+00
 SC2vh  C1eh  1 4.300000e-01    3.590000e+00
 SC2vh  X4eh  1 4.300000e-01    2.920000e+00
 SC2vh  X3eh  1 4.300000e-01    3.160000e+00
 SC2vh  X2eh  1 4.300000e-01    3.160000e+00
 SC2vh  X1eh  1 4.300000e-01    3.160000e+00
 SC1vh  C1eh  1 4.300000e-01    3.380000e+00
 SC1vh  X4eh  1 4.300000e-01    2.920000e+00
 SC1vh  X3eh  1 4.300000e-01    3.160000e+00
 SC1vh  X2eh  1 4.300000e-01    3.160000e+00
 SC1vh  X1eh  1 4.300000e-01    3.160000e+00
 SX4vh  X4eh  1 4.300000e-01    3.380000e+00
 SX4vh  X3eh  1 4.300000e-01    3.380000e+00
 SX4vh  X2eh  1 4.300000e-01    3.380000e+00
 SX4vh  X1eh  1 4.300000e-01    3.380000e+00
 SX3vh  X3eh  1 4.300000e-01    3.380000e+00
 SX3vh  X2eh  1 4.300000e-01    3.590000e+00
 SX3vh  X1eh  1 4.300000e-01    3.590000e+00
 SX2vh  X2eh  1 4.300000e-01    3.590000e+00
 SX2vh  X1eh  1 4.300000e-01    3.590000e+00
 SX1vh  X1eh  1 4.300000e-01    3.770000e+00
  C6vh SC6er  1 4.300000e-01    3.380000e+00
  C6vh SC5er  1 4.300000e-01    3.160000e+00
  C6vh SC4er  1 4.300000e-01    3.160000e+00
  C6vh SC3er  1 4.300000e-01    2.930000e+00
  C6vh SC2er  1 4.300000e-01    2.920000e+00
  C6vh SC1er  1 4.300000e-01    2.530000e+00
  C6vh SX4er  1 4.300000e-01    3.160000e+00
  C6vh SX3er  1 4.300000e-01    3.160000e+00
  C6vh SX2er  1 4.300000e-01    3.160000e+00
  C6vh SX1er  1 4.300000e-01    3.160000e+00
  C5vh SC5er  1 4.300000e-01    3.160000e+00
  C5vh SC4er  1 4.300000e-01    3.160000e+00
  C5vh SC3er  1 4.300000e-01    2.930000e+00
  C5vh SC2er  1 4.300000e-01    2.920000e+00
  C5vh SC1er  1 4.300000e-01    2.920000e+00
  C5vh SX4er  1 4.300000e-01    2.930000e+00
  C5vh SX3er  1 4.300000e-01    2.930000e+00
  C5vh SX2er  1 4.300000e-01    2.930000e+00
  C5vh SX1er  1 4.300000e-01    3.160000e+00
  C4vh SC4er  1 4.300000e-01    3.160000e+00
  C4vh SC3er  1 4.300000e-01    3.160000e+00
  C4vh SC2er  1 4.300000e-01    2.930000e+00
  C4vh SC1er  1 4.300000e-01    2.920000e+00
  C4vh SX4er  1 4.300000e-01    2.930000e+00
  C4vh SX3er  1 4.300000e-01    2.930000e+00
  C4vh SX2er  1 4.300000e-01    2.930000e+00
  C4vh SX1er  1 4.300000e-01    3.160000e+00
  C3vh SC3er  1 4.300000e-01    3.160000e+00
  C3vh SC2er  1 4.300000e-01    3.160000e+00
  C3vh SC1er  1 4.300000e-01    3.160000e+00
  C3vh SX4er  1 4.300000e-01    2.930000e+00
  C3vh SX3er  1 4.300000e-01    2.930000e+00
  C3vh SX2er  1 4.300000e-01    2.930000e+00
  C3vh SX1er  1 4.300000e-01    3.160000e+00
  C2vh SC2er  1 4.300000e-01    3.160000e+00
  C2vh SC1er  1 4.300000e-01    3.380000e+00
  C2vh SX4er  1 4.300000e-01    2.530000e+00
  C2vh SX3er  1 4.300000e-01    2.930000e+00
  C2vh SX2er  1 4.300000e-01    2.930000e+00
  C2vh SX1er  1 4.300000e-01    2.930000e+00
  C1vh SC1er  1 4.300000e-01    3.160000e+00
  C1vh SX4er  1 4.300000e-01    2.530000e+00
  C1vh SX3er  1 4.300000e-01    2.930000e+00
  C1vh SX2er  1 4.300000e-01    2.930000e+00
  C1vh SX1er  1 4.300000e-01    2.930000e+00
  X4vh SX4er  1 4.300000e-01    3.160000e+00
  X4vh SX3er  1 4.300000e-01    3.160000e+00
  X4vh SX2er  1 4.300000e-01    3.160000e+00
  X4vh SX1er  1 4.300000e-01    3.160000e+00
  X3vh SX3er  1 4.300000e-01    3.160000e+00
  X3vh SX2er  1 4.300000e-01    3.380000e+00
  X3vh SX1er  1 4.300000e-01    3.380000e+00
  X2vh SX2er  1 4.300000e-01    3.380000e+00
  X2vh SX1er  1 4.300000e-01    3.380000e+00
  X1vh SX1er  1 4.300000e-01    3.590000e+00
 SC6vh  C6er  1 4.300000e-01    3.380000e+00
 SC6vh  C5er  1 4.300000e-01    3.160000e+00
 SC6vh  C4er  1 4.300000e-01    3.160000e+00
 SC6vh  C3er  1 4.300000e-01    2.930000e+00
 SC6vh  C2er  1 4.300000e-01    2.920000e+00
 SC6vh  C1er  1 4.300000e-01    2.530000e+00
 SC6vh  X4er  1 4.300000e-01    3.160000e+00
 SC6vh  X3er  1 4.300000e-01    3.160000e+00
 SC6vh  X2er  1 4.300000e-01    3.160000e+00
 SC6vh  X1er  1 4.300000e-01    3.160000e+00
 SC5vh  C5er  1 4.300000e-01    3.160000e+00
 SC5vh  C4er  1 4.300000e-01    3.160000e+00
 SC5vh  C3er  1 4.300000e-01    2.930000e+00
 SC5vh  C2er  1 4.300000e-01    2.920000e+00
 SC5vh  C1er  1 4.300000e-01    2.920000e+00
 SC5vh  X4er  1 4.300000e-01    2.930000e+00
 SC5vh  X3er  1 4.300000e-01    2.930000e+00
 SC5vh  X2er  1 4.300000e-01    2.930000e+00
 SC5vh  X1er  1 4.300000e-01    3.160000e+00
 SC4vh  C4er  1 4.300000e-01    3.160000e+00
 SC4vh  C3er  1 4.300000e-01    3.160000e+00
 SC4vh  C2er  1 4.300000e-01    2.930000e+00
 SC4vh  C1er  1 4.300000e-01    2.920000e+00
 SC4vh  X4er  1 4.300000e-01    2.930000e+00
 SC4vh  X3er  1 4.300000e-01    2.930000e+00
 SC4vh  X2er  1 4.300000e-01    2.930000e+00
 SC4vh  X1er  1 4.300000e-01    3.160000e+00
 SC3vh  C3er  1 4.300000e-01    3.160000e+00
 SC3vh  C2er  1 4.300000e-01    3.160000e+00
 SC3vh  C1er  1 4.300000e-01    3.160000e+00
 SC3vh  X4er  1 4.300000e-01    2.930000e+00
 SC3vh  X3er  1 4.300000e-01    2.930000e+00
 SC3vh  X2er  1 4.300000e-01    2.930000e+00
 SC3vh  X1er  1 4.300000e-01    3.160000e+00
 SC2vh  C2er  1 4.300000e-01    3.160000e+00
 SC2vh  C1er  1 4.300000e-01    3.380000e+00
 SC2vh  X4er  1 4.300000e-01    2.530000e+00
 SC2vh  X3er  1 4.300000e-01    2.930000e+00
 SC2vh  X2er  1 4.300000e-01    2.930000e+00
 SC2vh  X1er  1 4.300000e-01    2.930000e+00
 SC1vh  C1er  1 4.300000e-01    3.160000e+00
 SC1vh  X4er  1 4.300000e-01    2.530000e+00
 SC1vh  X3er  1 4.300000e-01    2.930000e+00
 SC1vh  X2er  1 4.300000e-01    2.930000e+00
 SC1vh  X1er  1 4.300000e-01    2.930000e+00
 SX4vh  X4er  1 4.300000e-01    3.160000e+00
 SX4vh  X3er  1 4.300000e-01    3.160000e+00
 SX4vh  X2er  1 4.300000e-01    3.160000e+00
 SX4vh  X1er  1 4.300000e-01    3.160000e+00
 SX3vh  X3er  1 4.300000e-01    3.160000e+00
 SX3vh  X2er  1 4.300000e-01    3.380000e+00
 SX3vh  X1er  1 4.300000e-01    3.380000e+00
 SX2vh  X2er  1 4.300000e-01    3.380000e+00
 SX2vh  X1er  1 4.300000e-01    3.380000e+00
 SX1vh  X1er  1 4.300000e-01    3.590000e+00
  C6vr  SC6e  1 4.300000e-01    3.380000e+00
  C6vr  SC5e  1 4.300000e-01    3.160000e+00
  C6vr  SC4e  1 4.300000e-01    3.160000e+00
  C6vr  SC3e  1 4.300000e-01    2.930000e+00
  C6vr  SC2e  1 4.300000e-01    2.920000e+00
  C6vr  SC1e  1 4.300000e-01    2.530000e+00
  C6vr  SX4e  1 4.300000e-01    3.160000e+00
  C6vr  SX3e  1 4.300000e-01    3.160000e+00
  C6vr  SX2e  1 4.300000e-01    3.160000e+00
  C6vr  SX1e  1 4.300000e-01    3.160000e+00
  C5vr  SC5e  1 4.300000e-01    3.160000e+00
  C5vr  SC4e  1 4.300000e-01    3.160000e+00
  C5vr  SC3e  1 4.300000e-01    2.930000e+00
  C5vr  SC2e  1 4.300000e-01    2.920000e+00
  C5vr  SC1e  1 4.300000e-01    2.920000e+00
  C5vr  SX4e  1 4.300000e-01    2.930000e+00
  C5vr  SX3e  1 4.300000e-01    2.930000e+00
  C5vr  SX2e  1 4.300000e-01    2.930000e+00
  C5vr  SX1e  1 4.300000e-01    3.160000e+00
  C4vr  SC4e  1 4.300000e-01    3.160000e+00
  C4vr  SC3e  1 4.300000e-01    3.160000e+00
  C4vr  SC2e  1 4.300000e-01    2.930000e+00
  C4vr  SC1e  1 4.300000e-01    2.920000e+00
  C4vr  SX4e  1 4.300000e-01    2.930000e+00
  C4vr  SX3e  1 4.300000e-01    2.930000e+00
  C4vr  SX2e  1 4.300000e-01    2.930000e+00
  C4vr  SX1e  1 4.300000e-01    3.160000e+00
  C3vr  SC3e  1 4.300000e-01    3.160000e+00
  C3vr  SC2e  1 4.300000e-01    3.160000e+00
  C3vr  SC1e  1 4.300000e-01    3.160000e+00
  C3vr  SX4e  1 4.300000e-01    2.930000e+00
  C3vr  SX3e  1 4.300000e-01    2.930000e+00
  C3vr  SX2e  1 4.300000e-01    2.930000e+00
  C3vr  SX1e  1 4.300000e-01    3.160000e+00
  C2vr  SC2e  1 4.300000e-01    3.160000e+00
  C2vr  SC1e  1 4.300000e-01    3.380000e+00
  C2vr  SX4e  1 4.300000e-01    2.530000e+00
  C2vr  SX3e  1 4.300000e-01    2.930000e+00
  C2vr  SX2e  1 4.300000e-01    2.930000e+00
  C2vr  SX1e  1 4.300000e-01    2.930000e+00
  C1vr  SC1e  1 4.300000e-01    3.160000e+00
  C1vr  SX4e  1 4.300000e-01    2.530000e+00
  C1vr  SX3e  1 4.300000e-01    2.930000e+00
  C1vr  SX2e  1 4.300000e-01    2.930000e+00
  C1vr  SX1e  1 4.300000e-01    2.930000e+00
  X4vr  SX4e  1 4.300000e-01    3.160000e+00
  X4vr  SX3e  1 4.300000e-01    3.160000e+00
  X4vr  SX2e  1 4.300000e-01    3.160000e+00
  X4vr  SX1e  1 4.300000e-01    3.160000e+00
  X3vr  SX3e  1 4.300000e-01    3.160000e+00
  X3vr  SX2e  1 4.300000e-01    3.380000e+00
  X3vr  SX1e  1 4.300000e-01    3.380000e+00
  X2vr  SX2e  1 4.300000e-01    3.380000e+00
  X2vr  SX1e  1 4.300000e-01    3.380000e+00
  X1vr  SX1e  1 4.300000e-01    3.590000e+00
 SC6vr   C6e  1 4.300000e-01    3.380000e+00
 SC6vr   C5e  1 4.300000e-01    3.160000e+00
 SC6vr   C4e  1 4.300000e-01    3.160000e+00
 SC6vr   C3e  1 4.300000e-01    2.930000e+00
 SC6vr   C2e  1 4.300000e-01    2.920000e+00
 SC6vr   C1e  1 4.300000e-01    2.530000e+00
 SC6vr   X4e  1 4.300000e-01    3.160000e+00
 SC6vr   X3e  1 4.300000e-01    3.160000e+00
 SC6vr   X2e  1 4.300000e-01    3.160000e+00
 SC6vr   X1e  1 4.300000e-01    3.160000e+00
 SC5vr   C5e  1 4.300000e-01    3.160000e+00
 SC5vr   C4e  1 4.300000e-01    3.160000e+00
 SC5vr   C3e  1 4.300000e-01    2.930000e+00
 SC5vr   C2e  1 4.300000e-01    2.920000e+00
 SC5vr   C1e  1 4.300000e-01    2.920000e+00
 SC5vr   X4e  1 4.300000e-01    2.930000e+00
 SC5vr   X3e  1 4.300000e-01    2.930000e+00
 SC5vr   X2e  1 4.300000e-01    2.930000e+00
 SC5vr   X1e  1 4.300000e-01    3.160000e+00
 SC4vr   C4e  1 4.300000e-01    3.160000e+00
 SC4vr   C3e  1 4.300000e-01    3.160000e+00
 SC4vr   C2e  1 4.300000e-01    2.930000e+00
 SC4vr   C1e  1 4.300000e-01    2.920000e+00
 SC4vr   X4e  1 4.300000e-01    2.930000e+00
 SC4vr   X3e  1 4.300000e-01    2.930000e+00
 SC4vr   X2e  1 4.300000e-01    2.930000e+00
 SC4vr   X1e  1 4.300000e-01    3.160000e+00
 SC3vr   C3e  1 4.300000e-01    3.160000e+00
 SC3vr   C2e  1 4.300000e-01    3.160000e+00
 SC3vr   C1e  1 4.300000e-01    3.160000e+00
 SC3vr   X4e  1 4.300000e-01    2.930000e+00
 SC3vr   X3e  1 4.300000e-01    2.930000e+00
 SC3vr   X2e  1 4.300000e-01    2.930000e+00
 SC3vr   X1e  1 4.300000e-01    3.160000e+00
 SC2vr   C2e  1 4.300000e-01    3.160000e+00
 SC2vr   C1e  1 4.300000e-01    3.380000e+00
 SC2vr   X4e  1 4.300000e-01    2.530000e+00
 SC2vr   X3e  1 4.300000e-01    2.930000e+00
 SC2vr   X2e  1 4.300000e-01    2.930000e+00
 SC2vr   X1e  1 4.300000e-01    2.930000e+00
 SC1vr   C1e  1 4.300000e-01    3.160000e+00
 SC1vr   X4e  1 4.300000e-01    2.530000e+00
 SC1vr   X3e  1 4.300000e-01    2.930000e+00
 SC1vr   X2e  1 4.300000e-01    2.930000e+00
 SC1vr   X1e  1 4.300000e-01    2.930000e+00
 SX4vr   X4e  1 4.300000e-01    3.160000e+00
 SX4vr   X3e  1 4.300000e-01    3.160000e+00
 SX4vr   X2e  1 4.300000e-01    3.160000e+00
 SX4vr   X1e  1 4.300000e-01    3.160000e+00
 SX3vr   X3e  1 4.300000e-01    3.160000e+00
 SX3vr   X2e  1 4.300000e-01    3.380000e+00
 SX3vr   X1e  1 4.300000e-01    3.380000e+00
 SX2vr   X2e  1 4.300000e-01    3.380000e+00
 SX2vr   X1e  1 4.300000e-01    3.380000e+00
 SX1vr   X1e  1 4.300000e-01    3.590000e+00
  C6vr SX1eq  1 4.300000e-01    3.590000e+00
  C6vr SX2eq  1 4.300000e-01    3.590000e+00
  C6vr SX3eq  1 4.300000e-01    3.590000e+00
  C6vr SX4eq  1 4.300000e-01    3.590000e+00
  C6vr SC1eq  1 4.300000e-01    2.930000e+00
  C6vr SC2eq  1 4.300000e-01    3.160000e+00
  C6vr SC3eq  1 4.300000e-01    3.380000e+00
  C6vr SC4eq  1 4.300000e-01    3.590000e+00
  C6vr SC5eq  1 4.300000e-01    3.590000e+00
  C6vr SC6eq  1 4.300000e-01    3.770000e+00
  C5vr SX1eq  1 4.300000e-01    3.590000e+00
  C5vr SX2eq  1 4.300000e-01    3.380000e+00
  C5vr SX3eq  1 4.300000e-01    3.380000e+00
  C5vr SX4eq  1 4.300000e-01    3.380000e+00
  C5vr SC1eq  1 4.300000e-01    3.160000e+00
  C5vr SC2eq  1 4.300000e-01    3.160000e+00
  C5vr SC3eq  1 4.300000e-01    3.380000e+00
  C5vr SC4eq  1 4.300000e-01    3.590000e+00
  C5vr SC5eq  1 4.300000e-01    3.590000e+00
  C4vr SX1eq  1 4.300000e-01    3.590000e+00
  C4vr SX2eq  1 4.300000e-01    3.380000e+00
  C4vr SX3eq  1 4.300000e-01    3.380000e+00
  C4vr SX4eq  1 4.300000e-01    3.380000e+00
  C4vr SC1eq  1 4.300000e-01    3.160000e+00
  C4vr SC2eq  1 4.300000e-01    3.380000e+00
  C4vr SC3eq  1 4.300000e-01    3.590000e+00
  C4vr SC4eq  1 4.300000e-01    3.590000e+00
  C3vr SX1eq  1 4.300000e-01    3.590000e+00
  C3vr SX2eq  1 4.300000e-01    3.380000e+00
  C3vr SX3eq  1 4.300000e-01    3.380000e+00
  C3vr SX4eq  1 4.300000e-01    3.380000e+00
  C3vr SC1eq  1 4.300000e-01    3.590000e+00
  C3vr SC2eq  1 4.300000e-01    3.590000e+00
  C3vr SC3eq  1 4.300000e-01    3.590000e+00
  C2vr SX1eq  1 4.300000e-01    3.380000e+00
  C2vr SX2eq  1 4.300000e-01    3.380000e+00
  C2vr SX3eq  1 4.300000e-01    3.380000e+00
  C2vr SX4eq  1 4.300000e-01    2.930000e+00
  C2vr SC1eq  1 4.300000e-01    3.770000e+00
  C2vr SC2eq  1 4.300000e-01    3.590000e+00
  C1vr SX1eq  1 4.300000e-01    3.380000e+00
  C1vr SX2eq  1 4.300000e-01    3.380000e+00
  C1vr SX3eq  1 4.300000e-01    3.380000e+00
  C1vr SX4eq  1 4.300000e-01    2.930000e+00
  C1vr SC1eq  1 4.300000e-01    3.590000e+00
  X4vr SX1eq  1 4.300000e-01    3.590000e+00
  X4vr SX2eq  1 4.300000e-01    3.590000e+00
  X4vr SX3eq  1 4.300000e-01    3.590000e+00
  X4vr SX4eq  1 4.300000e-01    3.590000e+00
  X3vr SX1eq  1 4.300000e-01    3.770000e+00
  X3vr SX2eq  1 4.300000e-01    3.770000e+00
  X3vr SX3eq  1 4.300000e-01    3.590000e+00
  X2vr SX1eq  1 4.300000e-01    3.770000e+00
  X2vr SX2eq  1 4.300000e-01    3.770000e+00
  X1vr SX1eq  1 4.300000e-01    3.970000e+00
 SC6vr  X1eq  1 4.300000e-01    3.590000e+00
 SC6vr  X2eq  1 4.300000e-01    3.590000e+00
 SC6vr  X3eq  1 4.300000e-01    3.590000e+00
 SC6vr  X4eq  1 4.300000e-01    3.590000e+00
 SC6vr  C1eq  1 4.300000e-01    2.930000e+00
 SC6vr  C2eq  1 4.300000e-01    3.160000e+00
 SC6vr  C3eq  1 4.300000e-01    3.380000e+00
 SC6vr  C4eq  1 4.300000e-01    3.590000e+00
 SC6vr  C5eq  1 4.300000e-01    3.590000e+00
 SC6vr  C6eq  1 4.300000e-01    3.770000e+00
 SC5vr  X1eq  1 4.300000e-01    3.590000e+00
 SC5vr  X2eq  1 4.300000e-01    3.380000e+00
 SC5vr  X3eq  1 4.300000e-01    3.380000e+00
 SC5vr  X4eq  1 4.300000e-01    3.380000e+00
 SC5vr  C1eq  1 4.300000e-01    3.160000e+00
 SC5vr  C2eq  1 4.300000e-01    3.160000e+00
 SC5vr  C3eq  1 4.300000e-01    3.380000e+00
 SC5vr  C4eq  1 4.300000e-01    3.590000e+00
 SC5vr  C5eq  1 4.300000e-01    3.590000e+00
 SC4vr  X1eq  1 4.300000e-01    3.590000e+00
 SC4vr  X2eq  1 4.300000e-01    3.380000e+00
 SC4vr  X3eq  1 4.300000e-01    3.380000e+00
 SC4vr  X4eq  1 4.300000e-01    3.380000e+00
 SC4vr  C1eq  1 4.300000e-01    3.160000e+00
 SC4vr  C2eq  1 4.300000e-01    3.380000e+00
 SC4vr  C3eq  1 4.300000e-01    3.590000e+00
 SC4vr  C4eq  1 4.300000e-01    3.590000e+00
 SC3vr  X1eq  1 4.300000e-01    3.590000e+00
 SC3vr  X2eq  1 4.300000e-01    3.380000e+00
 SC3vr  X3eq  1 4.300000e-01    3.380000e+00
 SC3vr  X4eq  1 4.300000e-01    3.380000e+00
 SC3vr  C1eq  1 4.300000e-01    3.590000e+00
 SC3vr  C2eq  1 4.300000e-01    3.590000e+00
 SC3vr  C3eq  1 4.300000e-01    3.590000e+00
 SC2vr  X1eq  1 4.300000e-01    3.380000e+00
 SC2vr  X2eq  1 4.300000e-01    3.380000e+00
 SC2vr  X3eq  1 4.300000e-01    3.380000e+00
 SC2vr  X4eq  1 4.300000e-01    2.930000e+00
 SC2vr  C1eq  1 4.300000e-01    3.770000e+00
 SC2vr  C2eq  1 4.300000e-01    3.590000e+00
 SC1vr  X1eq  1 4.300000e-01    3.380000e+00
 SC1vr  X2eq  1 4.300000e-01    3.380000e+00
 SC1vr  X3eq  1 4.300000e-01    3.380000e+00
 SC1vr  X4eq  1 4.300000e-01    2.930000e+00
 SC1vr  C1eq  1 4.300000e-01    3.590000e+00
 SX4vr  X1eq  1 4.300000e-01    3.590000e+00
 SX4vr  X2eq  1 4.300000e-01    3.590000e+00
 SX4vr  X3eq  1 4.300000e-01    3.590000e+00
 SX4vr  X4eq  1 4.300000e-01    3.590000e+00
 SX3vr  X1eq  1 4.300000e-01    3.770000e+00
 SX3vr  X2eq  1 4.300000e-01    3.770000e+00
 SX3vr  X3eq  1 4.300000e-01    3.590000e+00
 SX2vr  X1eq  1 4.300000e-01    3.770000e+00
 SX2vr  X2eq  1 4.300000e-01    3.770000e+00
 SX1vr  X1eq  1 4.300000e-01    3.970000e+00
  C6vr SC6eh  1 4.300000e-01    3.380000e+00
  C6vr SC5eh  1 4.300000e-01    3.160000e+00
  C6vr SC4eh  1 4.300000e-01    3.160000e+00
  C6vr SC3eh  1 4.300000e-01    2.930000e+00
  C6vr SC2eh  1 4.300000e-01    2.920000e+00
  C6vr SC1eh  1 4.300000e-01    2.530000e+00
  C6vr SX4eh  1 4.300000e-01    3.160000e+00
  C6vr SX3eh  1 4.300000e-01    3.160000e+00
  C6vr SX2eh  1 4.300000e-01    3.160000e+00
  C6vr SX1eh  1 4.300000e-01    3.160000e+00
  C5vr SC5eh  1 4.300000e-01    3.160000e+00
  C5vr SC4eh  1 4.300000e-01    3.160000e+00
  C5vr SC3eh  1 4.300000e-01    2.930000e+00
  C5vr SC2eh  1 4.300000e-01    2.920000e+00
  C5vr SC1eh  1 4.300000e-01    2.920000e+00
  C5vr SX4eh  1 4.300000e-01    2.930000e+00
  C5vr SX3eh  1 4.300000e-01    2.930000e+00
  C5vr SX2eh  1 4.300000e-01    2.930000e+00
  C5vr SX1eh  1 4.300000e-01    3.160000e+00
  C4vr SC4eh  1 4.300000e-01    3.160000e+00
  C4vr SC3eh  1 4.300000e-01    3.160000e+00
  C4vr SC2eh  1 4.300000e-01    2.930000e+00
  C4vr SC1eh  1 4.300000e-01    2.920000e+00
  C4vr SX4eh  1 4.300000e-01    2.930000e+00
  C4vr SX3eh  1 4.300000e-01    2.930000e+00
  C4vr SX2eh  1 4.300000e-01    2.930000e+00
  C4vr SX1eh  1 4.300000e-01    3.160000e+00
  C3vr SC3eh  1 4.300000e-01    3.160000e+00
  C3vr SC2eh  1 4.300000e-01    3.160000e+00
  C3vr SC1eh  1 4.300000e-01    3.160000e+00
  C3vr SX4eh  1 4.300000e-01    2.930000e+00
  C3vr SX3eh  1 4.300000e-01    2.930000e+00
  C3vr SX2eh  1 4.300000e-01    2.930000e+00
  C3vr SX1eh  1 4.300000e-01    3.160000e+00
  C2vr SC2eh  1 4.300000e-01    3.160000e+00
  C2vr SC1eh  1 4.300000e-01    3.380000e+00
  C2vr SX4eh  1 4.300000e-01    2.530000e+00
  C2vr SX3eh  1 4.300000e-01    2.930000e+00
  C2vr SX2eh  1 4.300000e-01    2.930000e+00
  C2vr SX1eh  1 4.300000e-01    2.930000e+00
  C1vr SC1eh  1 4.300000e-01    3.160000e+00
  C1vr SX4eh  1 4.300000e-01    2.530000e+00
  C1vr SX3eh  1 4.300000e-01    2.930000e+00
  C1vr SX2eh  1 4.300000e-01    2.930000e+00
  C1vr SX1eh  1 4.300000e-01    2.930000e+00
  X4vr SX4eh  1 4.300000e-01    3.160000e+00
  X4vr SX3eh  1 4.300000e-01    3.160000e+00
  X4vr SX2eh  1 4.300000e-01    3.160000e+00
  X4vr SX1eh  1 4.300000e-01    3.160000e+00
  X3vr SX3eh  1 4.300000e-01    3.160000e+00
  X3vr SX2eh  1 4.300000e-01    3.380000e+00
  X3vr SX1eh  1 4.300000e-01    3.380000e+00
  X2vr SX2eh  1 4.300000e-01    3.380000e+00
  X2vr SX1eh  1 4.300000e-01    3.380000e+00
  X1vr SX1eh  1 4.300000e-01    3.590000e+00
 SC6vr  C6eh  1 4.300000e-01    3.380000e+00
 SC6vr  C5eh  1 4.300000e-01    3.160000e+00
 SC6vr  C4eh  1 4.300000e-01    3.160000e+00
 SC6vr  C3eh  1 4.300000e-01    2.930000e+00
 SC6vr  C2eh  1 4.300000e-01    2.920000e+00
 SC6vr  C1eh  1 4.300000e-01    2.530000e+00
 SC6vr  X4eh  1 4.300000e-01    3.160000e+00
 SC6vr  X3eh  1 4.300000e-01    3.160000e+00
 SC6vr  X2eh  1 4.300000e-01    3.160000e+00
 SC6vr  X1eh  1 4.300000e-01    3.160000e+00
 SC5vr  C5eh  1 4.300000e-01    3.160000e+00
 SC5vr  C4eh  1 4.300000e-01    3.160000e+00
 SC5vr  C3eh  1 4.300000e-01    2.930000e+00
 SC5vr  C2eh  1 4.300000e-01    2.920000e+00
 SC5vr  C1eh  1 4.300000e-01    2.920000e+00
 SC5vr  X4eh  1 4.300000e-01    2.930000e+00
 SC5vr  X3eh  1 4.300000e-01    2.930000e+00
 SC5vr  X2eh  1 4.300000e-01    2.930000e+00
 SC5vr  X1eh  1 4.300000e-01    3.160000e+00
 SC4vr  C4eh  1 4.300000e-01    3.160000e+00
 SC4vr  C3eh  1 4.300000e-01    3.160000e+00
 SC4vr  C2eh  1 4.300000e-01    2.930000e+00
 SC4vr  C1eh  1 4.300000e-01    2.920000e+00
 SC4vr  X4eh  1 4.300000e-01    2.930000e+00
 SC4vr  X3eh  1 4.300000e-01    2.930000e+00
 SC4vr  X2eh  1 4.300000e-01    2.930000e+00
 SC4vr  X1eh  1 4.300000e-01    3.160000e+00
 SC3vr  C3eh  1 4.300000e-01    3.160000e+00
 SC3vr  C2eh  1 4.300000e-01    3.160000e+00
 SC3vr  C1eh  1 4.300000e-01    3.160000e+00
 SC3vr  X4eh  1 4.300000e-01    2.930000e+00
 SC3vr  X3eh  1 4.300000e-01    2.930000e+00
 SC3vr  X2eh  1 4.300000e-01    2.930000e+00
 SC3vr  X1eh  1 4.300000e-01    3.160000e+00
 SC2vr  C2eh  1 4.300000e-01    3.160000e+00
 SC2vr  C1eh  1 4.300000e-01    3.380000e+00
 SC2vr  X4eh  1 4.300000e-01    2.530000e+00
 SC2vr  X3eh  1 4.300000e-01    2.930000e+00
 SC2vr  X2eh  1 4.300000e-01    2.930000e+00
 SC2vr  X1eh  1 4.300000e-01    2.930000e+00
 SC1vr  C1eh  1 4.300000e-01    3.160000e+00
 SC1vr  X4eh  1 4.300000e-01    2.530000e+00
 SC1vr  X3eh  1 4.300000e-01    2.930000e+00
 SC1vr  X2eh  1 4.300000e-01    2.930000e+00
 SC1vr  X1eh  1 4.300000e-01    2.930000e+00
 SX4vr  X4eh  1 4.300000e-01    3.160000e+00
 SX4vr  X3eh  1 4.300000e-01    3.160000e+00
 SX4vr  X2eh  1 4.300000e-01    3.160000e+00
 SX4vr  X1eh  1 4.300000e-01    3.160000e+00
 SX3vr  X3eh  1 4.300000e-01    3.160000e+00
 SX3vr  X2eh  1 4.300000e-01    3.380000e+00
 SX3vr  X1eh  1 4.300000e-01    3.380000e+00
 SX2vr  X2eh  1 4.300000e-01    3.380000e+00
 SX2vr  X1eh  1 4.300000e-01    3.380000e+00
 SX1vr  X1eh  1 4.300000e-01    3.590000e+00
  C6vr SC6er  1 4.300000e-01    3.160000e+00
  C6vr SC5er  1 4.300000e-01    2.930000e+00
  C6vr SC4er  1 4.300000e-01    2.930000e+00
  C6vr SC3er  1 4.300000e-01    2.920000e+00
  C6vr SC2er  1 4.300000e-01    2.530000e+00
  C6vr SC1er  1 4.300000e-01    2.320000e+00
  C6vr SX4er  1 4.300000e-01    2.930000e+00
  C6vr SX3er  1 4.300000e-01    2.930000e+00
  C6vr SX2er  1 4.300000e-01    2.930000e+00
  C6vr SX1er  1 4.300000e-01    2.930000e+00
  C5vr SC5er  1 4.300000e-01    2.930000e+00
  C5vr SC4er  1 4.300000e-01    2.930000e+00
  C5vr SC3er  1 4.300000e-01    2.920000e+00
  C5vr SC2er  1 4.300000e-01    2.530000e+00
  C5vr SC1er  1 4.300000e-01    2.530000e+00
  C5vr SX4er  1 4.300000e-01    2.920000e+00
  C5vr SX3er  1 4.300000e-01    2.920000e+00
  C5vr SX2er  1 4.300000e-01    2.920000e+00
  C5vr SX1er  1 4.300000e-01    2.930000e+00
  C4vr SC4er  1 4.300000e-01    2.930000e+00
  C4vr SC3er  1 4.300000e-01    2.930000e+00
  C4vr SC2er  1 4.300000e-01    2.920000e+00
  C4vr SC1er  1 4.300000e-01    2.530000e+00
  C4vr SX4er  1 4.300000e-01    2.920000e+00
  C4vr SX3er  1 4.300000e-01    2.920000e+00
  C4vr SX2er  1 4.300000e-01    2.920000e+00
  C4vr SX1er  1 4.300000e-01    2.930000e+00
  C3vr SC3er  1 4.300000e-01    2.930000e+00
  C3vr SC2er  1 4.300000e-01    2.930000e+00
  C3vr SC1er  1 4.300000e-01    2.930000e+00
  C3vr SX4er  1 4.300000e-01    2.920000e+00
  C3vr SX3er  1 4.300000e-01    2.920000e+00
  C3vr SX2er  1 4.300000e-01    2.920000e+00
  C3vr SX1er  1 4.300000e-01    2.930000e+00
  C2vr SC2er  1 4.300000e-01    2.930000e+00
  C2vr SC1er  1 4.300000e-01    3.160000e+00
  C2vr SX4er  1 4.300000e-01    2.320000e+00
  C2vr SX3er  1 4.300000e-01    2.920000e+00
  C2vr SX2er  1 4.300000e-01    2.920000e+00
  C2vr SX1er  1 4.300000e-01    2.920000e+00
  C1vr SC1er  1 4.300000e-01    2.930000e+00
  C1vr SX4er  1 4.300000e-01    2.320000e+00
  C1vr SX3er  1 4.300000e-01    2.920000e+00
  C1vr SX2er  1 4.300000e-01    2.920000e+00
  C1vr SX1er  1 4.300000e-01    2.920000e+00
  X4vr SX4er  1 4.300000e-01    2.930000e+00
  X4vr SX3er  1 4.300000e-01    2.930000e+00
  X4vr SX2er  1 4.300000e-01    2.930000e+00
  X4vr SX1er  1 4.300000e-01    2.930000e+00
  X3vr SX3er  1 4.300000e-01    2.930000e+00
  X3vr SX2er  1 4.300000e-01    3.160000e+00
  X3vr SX1er  1 4.300000e-01    3.160000e+00
  X2vr SX2er  1 4.300000e-01    3.160000e+00
  X2vr SX1er  1 4.300000e-01    3.160000e+00
  X1vr SX1er  1 4.300000e-01    3.380000e+00
 SC6vr  C6er  1 4.300000e-01    3.160000e+00
 SC6vr  C5er  1 4.300000e-01    2.930000e+00
 SC6vr  C4er  1 4.300000e-01    2.930000e+00
 SC6vr  C3er  1 4.300000e-01    2.920000e+00
 SC6vr  C2er  1 4.300000e-01    2.530000e+00
 SC6vr  C1er  1 4.300000e-01    2.320000e+00
 SC6vr  X4er  1 4.300000e-01    2.930000e+00
 SC6vr  X3er  1 4.300000e-01    2.930000e+00
 SC6vr  X2er  1 4.300000e-01    2.930000e+00
 SC6vr  X1er  1 4.300000e-01    2.930000e+00
 SC5vr  C5er  1 4.300000e-01    2.930000e+00
 SC5vr  C4er  1 4.300000e-01    2.930000e+00
 SC5vr  C3er  1 4.300000e-01    2.920000e+00
 SC5vr  C2er  1 4.300000e-01    2.530000e+00
 SC5vr  C1er  1 4.300000e-01    2.530000e+00
 SC5vr  X4er  1 4.300000e-01    2.920000e+00
 SC5vr  X3er  1 4.300000e-01    2.920000e+00
 SC5vr  X2er  1 4.300000e-01    2.920000e+00
 SC5vr  X1er  1 4.300000e-01    2.930000e+00
 SC4vr  C4er  1 4.300000e-01    2.930000e+00
 SC4vr  C3er  1 4.300000e-01    2.930000e+00
 SC4vr  C2er  1 4.300000e-01    2.920000e+00
 SC4vr  C1er  1 4.300000e-01    2.530000e+00
 SC4vr  X4er  1 4.300000e-01    2.920000e+00
 SC4vr  X3er  1 4.300000e-01    2.920000e+00
 SC4vr  X2er  1 4.300000e-01    2.920000e+00
 SC4vr  X1er  1 4.300000e-01    2.930000e+00
 SC3vr  C3er  1 4.300000e-01    2.930000e+00
 SC3vr  C2er  1 4.300000e-01    2.930000e+00
 SC3vr  C1er  1 4.300000e-01    2.930000e+00
 SC3vr  X4er  1 4.300000e-01    2.920000e+00
 SC3vr  X3er  1 4.300000e-01    2.920000e+00
 SC3vr  X2er  1 4.300000e-01    2.920000e+00
 SC3vr  X1er  1 4.300000e-01    2.930000e+00
 SC2vr  C2er  1 4.300000e-01    2.930000e+00
 SC2vr  C1er  1 4.300000e-01    3.160000e+00
 SC2vr  X4er  1 4.300000e-01    2.320000e+00
 SC2vr  X3er  1 4.300000e-01    2.920000e+00
 SC2vr  X2er  1 4.300000e-01    2.920000e+00
 SC2vr  X1er  1 4.300000e-01    2.920000e+00
 SC1vr  C1er  1 4.300000e-01    2.930000e+00
 SC1vr  X4er  1 4.300000e-01    2.320000e+00
 SC1vr  X3er  1 4.300000e-01    2.920000e+00
 SC1vr  X2er  1 4.300000e-01    2.920000e+00
 SC1vr  X1er  1 4.300000e-01    2.920000e+00
 SX4vr  X4er  1 4.300000e-01    2.930000e+00
 SX4vr  X3er  1 4.300000e-01    2.930000e+00
 SX4vr  X2er  1 4.300000e-01    2.930000e+00
 SX4vr  X1er  1 4.300000e-01    2.930000e+00
 SX3vr  X3er  1 4.300000e-01    2.930000e+00
 SX3vr  X2er  1 4.300000e-01    3.160000e+00
 SX3vr  X1er  1 4.300000e-01    3.160000e+00
 SX2vr  X2er  1 4.300000e-01    3.160000e+00
 SX2vr  X1er  1 4.300000e-01    3.160000e+00
 SX1vr  X1er  1 4.300000e-01    3.380000e+00
   C6e  SC5v  1 4.300000e-01    3.160000e+00
   C6e  SC4v  1 4.300000e-01    3.160000e+00
   C6e  SC3v  1 4.300000e-01    2.930000e+00
   C6e  SC2v  1 4.300000e-01    2.920000e+00
   C6e  SC1v  1 4.300000e-01    2.530000e+00
   C6e  SX4v  1 4.300000e-01    3.160000e+00
   C6e  SX3v  1 4.300000e-01    3.160000e+00
   C6e  SX2v  1 4.300000e-01    3.160000e+00
   C6e  SX1v  1 4.300000e-01    3.160000e+00
   C5e  SC4v  1 4.300000e-01    3.160000e+00
   C5e  SC3v  1 4.300000e-01    2.930000e+00
   C5e  SC2v  1 4.300000e-01    2.920000e+00
   C5e  SC1v  1 4.300000e-01    2.920000e+00
   C5e  SX4v  1 4.300000e-01    2.930000e+00
   C5e  SX3v  1 4.300000e-01    2.930000e+00
   C5e  SX2v  1 4.300000e-01    2.930000e+00
   C5e  SX1v  1 4.300000e-01    3.160000e+00
   C4e  SC3v  1 4.300000e-01    3.160000e+00
   C4e  SC2v  1 4.300000e-01    2.930000e+00
   C4e  SC1v  1 4.300000e-01    2.920000e+00
   C4e  SX4v  1 4.300000e-01    2.930000e+00
   C4e  SX3v  1 4.300000e-01    2.930000e+00
   C4e  SX2v  1 4.300000e-01    2.930000e+00
   C4e  SX1v  1 4.300000e-01    3.160000e+00
   C3e  SC2v  1 4.300000e-01    3.160000e+00
   C3e  SC1v  1 4.300000e-01    3.160000e+00
   C3e  SX4v  1 4.300000e-01    2.930000e+00
   C3e  SX3v  1 4.300000e-01    2.930000e+00
   C3e  SX2v  1 4.300000e-01    2.930000e+00
   C3e  SX1v  1 4.300000e-01    3.160000e+00
   C2e  SC1v  1 4.300000e-01    3.380000e+00
   C2e  SX4v  1 4.300000e-01    2.530000e+00
   C2e  SX3v  1 4.300000e-01    2.930000e+00
   C2e  SX2v  1 4.300000e-01    2.930000e+00
   C2e  SX1v  1 4.300000e-01    2.930000e+00
   C1e  SX4v  1 4.300000e-01    2.530000e+00
   C1e  SX3v  1 4.300000e-01    2.930000e+00
   C1e  SX2v  1 4.300000e-01    2.930000e+00
   C1e  SX1v  1 4.300000e-01    2.930000e+00
   X4e  SX3v  1 4.300000e-01    3.160000e+00
   X4e  SX2v  1 4.300000e-01    3.160000e+00
   X4e  SX1v  1 4.300000e-01    3.160000e+00
   X3e  SX2v  1 4.300000e-01    3.380000e+00
   X3e  SX1v  1 4.300000e-01    3.380000e+00
   X2e  SX1v  1 4.300000e-01    3.380000e+00
  SC6e   C5v  1 4.300000e-01    3.160000e+00
  SC6e   C4v  1 4.300000e-01    3.160000e+00
  SC6e   C3v  1 4.300000e-01    2.930000e+00
  SC6e   C2v  1 4.300000e-01    2.920000e+00
  SC6e   C1v  1 4.300000e-01    2.530000e+00
  SC6e   X4v  1 4.300000e-01    3.160000e+00
  SC6e   X3v  1 4.300000e-01    3.160000e+00
  SC6e   X2v  1 4.300000e-01    3.160000e+00
  SC6e   X1v  1 4.300000e-01    3.160000e+00
  SC5e   C4v  1 4.300000e-01    3.160000e+00
  SC5e   C3v  1 4.300000e-01    2.930000e+00
  SC5e   C2v  1 4.300000e-01    2.920000e+00
  SC5e   C1v  1 4.300000e-01    2.920000e+00
  SC5e   X4v  1 4.300000e-01    2.930000e+00
  SC5e   X3v  1 4.300000e-01    2.930000e+00
  SC5e   X2v  1 4.300000e-01    2.930000e+00
  SC5e   X1v  1 4.300000e-01    3.160000e+00
  SC4e   C3v  1 4.300000e-01    3.160000e+00
  SC4e   C2v  1 4.300000e-01    2.930000e+00
  SC4e   C1v  1 4.300000e-01    2.920000e+00
  SC4e   X4v  1 4.300000e-01    2.930000e+00
  SC4e   X3v  1 4.300000e-01    2.930000e+00
  SC4e   X2v  1 4.300000e-01    2.930000e+00
  SC4e   X1v  1 4.300000e-01    3.160000e+00
  SC3e   C2v  1 4.300000e-01    3.160000e+00
  SC3e   C1v  1 4.300000e-01    3.160000e+00
  SC3e   X4v  1 4.300000e-01    2.930000e+00
  SC3e   X3v  1 4.300000e-01    2.930000e+00
  SC3e   X2v  1 4.300000e-01    2.930000e+00
  SC3e   X1v  1 4.300000e-01    3.160000e+00
  SC2e   C1v  1 4.300000e-01    3.380000e+00
  SC2e   X4v  1 4.300000e-01    2.530000e+00
  SC2e   X3v  1 4.300000e-01    2.930000e+00
  SC2e   X2v  1 4.300000e-01    2.930000e+00
  SC2e   X1v  1 4.300000e-01    2.930000e+00
  SC1e   X4v  1 4.300000e-01    2.530000e+00
  SC1e   X3v  1 4.300000e-01    2.930000e+00
  SC1e   X2v  1 4.300000e-01    2.930000e+00
  SC1e   X1v  1 4.300000e-01    2.930000e+00
  SX4e   X3v  1 4.300000e-01    3.160000e+00
  SX4e   X2v  1 4.300000e-01    3.160000e+00
  SX4e   X1v  1 4.300000e-01    3.160000e+00
  SX3e   X2v  1 4.300000e-01    3.380000e+00
  SX3e   X1v  1 4.300000e-01    3.380000e+00
  SX2e   X1v  1 4.300000e-01    3.380000e+00
   C6e SC5vq  1 4.300000e-01    3.590000e+00
   C6e SC4vq  1 4.300000e-01    3.590000e+00
   C5e SC4vq  1 4.300000e-01    3.590000e+00
   C6e SC3vq  1 4.300000e-01    3.380000e+00
   C5e SC3vq  1 4.300000e-01    3.380000e+00
   C4e SC3vq  1 4.300000e-01    3.590000e+00
   C6e SC2vq  1 4.300000e-01    3.160000e+00
   C5e SC2vq  1 4.300000e-01    3.160000e+00
   C4e SC2vq  1 4.300000e-01    3.380000e+00
   C3e SC2vq  1 4.300000e-01    3.590000e+00
   C6e SC1vq  1 4.300000e-01    2.930000e+00
   C5e SC1vq  1 4.300000e-01    3.160000e+00
   C4e SC1vq  1 4.300000e-01    3.160000e+00
   C3e SC1vq  1 4.300000e-01    3.590000e+00
   C2e SC1vq  1 4.300000e-01    3.770000e+00
   C6e SX4vq  1 4.300000e-01    3.590000e+00
   C5e SX4vq  1 4.300000e-01    3.380000e+00
   C4e SX4vq  1 4.300000e-01    3.380000e+00
   C3e SX4vq  1 4.300000e-01    3.380000e+00
   C2e SX4vq  1 4.300000e-01    2.930000e+00
   C1e SX4vq  1 4.300000e-01    2.930000e+00
   C6e SX3vq  1 4.300000e-01    3.590000e+00
   C5e SX3vq  1 4.300000e-01    3.380000e+00
   C4e SX3vq  1 4.300000e-01    3.380000e+00
   C3e SX3vq  1 4.300000e-01    3.380000e+00
   C2e SX3vq  1 4.300000e-01    3.380000e+00
   C1e SX3vq  1 4.300000e-01    3.380000e+00
   X4e SX3vq  1 4.300000e-01    3.590000e+00
   C6e SX2vq  1 4.300000e-01    3.590000e+00
   C5e SX2vq  1 4.300000e-01    3.380000e+00
   C4e SX2vq  1 4.300000e-01    3.380000e+00
   C3e SX2vq  1 4.300000e-01    3.380000e+00
   C2e SX2vq  1 4.300000e-01    3.380000e+00
   C1e SX2vq  1 4.300000e-01    3.380000e+00
   X4e SX2vq  1 4.300000e-01    3.590000e+00
   X3e SX2vq  1 4.300000e-01    3.770000e+00
   C6e SX1vq  1 4.300000e-01    3.590000e+00
   C5e SX1vq  1 4.300000e-01    3.590000e+00
   C4e SX1vq  1 4.300000e-01    3.590000e+00
   C3e SX1vq  1 4.300000e-01    3.590000e+00
   C2e SX1vq  1 4.300000e-01    3.380000e+00
   C1e SX1vq  1 4.300000e-01    3.380000e+00
   X4e SX1vq  1 4.300000e-01    3.590000e+00
   X3e SX1vq  1 4.300000e-01    3.770000e+00
   X2e SX1vq  1 4.300000e-01    3.770000e+00
  SC6e  C5vq  1 4.300000e-01    3.590000e+00
  SC6e  C4vq  1 4.300000e-01    3.590000e+00
  SC5e  C4vq  1 4.300000e-01    3.590000e+00
  SC6e  C3vq  1 4.300000e-01    3.380000e+00
  SC5e  C3vq  1 4.300000e-01    3.380000e+00
  SC4e  C3vq  1 4.300000e-01    3.590000e+00
  SC6e  C2vq  1 4.300000e-01    3.160000e+00
  SC5e  C2vq  1 4.300000e-01    3.160000e+00
  SC4e  C2vq  1 4.300000e-01    3.380000e+00
  SC3e  C2vq  1 4.300000e-01    3.590000e+00
  SC6e  C1vq  1 4.300000e-01    2.930000e+00
  SC5e  C1vq  1 4.300000e-01    3.160000e+00
  SC4e  C1vq  1 4.300000e-01    3.160000e+00
  SC3e  C1vq  1 4.300000e-01    3.590000e+00
  SC2e  C1vq  1 4.300000e-01    3.770000e+00
  SC6e  X4vq  1 4.300000e-01    3.590000e+00
  SC5e  X4vq  1 4.300000e-01    3.380000e+00
  SC4e  X4vq  1 4.300000e-01    3.380000e+00
  SC3e  X4vq  1 4.300000e-01    3.380000e+00
  SC2e  X4vq  1 4.300000e-01    2.930000e+00
  SC1e  X4vq  1 4.300000e-01    2.930000e+00
  SC6e  X3vq  1 4.300000e-01    3.590000e+00
  SC5e  X3vq  1 4.300000e-01    3.380000e+00
  SC4e  X3vq  1 4.300000e-01    3.380000e+00
  SC3e  X3vq  1 4.300000e-01    3.380000e+00
  SC2e  X3vq  1 4.300000e-01    3.380000e+00
  SC1e  X3vq  1 4.300000e-01    3.380000e+00
  SX4e  X3vq  1 4.300000e-01    3.590000e+00
  SC6e  X2vq  1 4.300000e-01    3.590000e+00
  SC5e  X2vq  1 4.300000e-01    3.380000e+00
  SC4e  X2vq  1 4.300000e-01    3.380000e+00
  SC3e  X2vq  1 4.300000e-01    3.380000e+00
  SC2e  X2vq  1 4.300000e-01    3.380000e+00
  SC1e  X2vq  1 4.300000e-01    3.380000e+00
  SX4e  X2vq  1 4.300000e-01    3.590000e+00
  SX3e  X2vq  1 4.300000e-01    3.770000e+00
  SC6e  X1vq  1 4.300000e-01    3.590000e+00
  SC5e  X1vq  1 4.300000e-01    3.590000e+00
  SC4e  X1vq  1 4.300000e-01    3.590000e+00
  SC3e  X1vq  1 4.300000e-01    3.590000e+00
  SC2e  X1vq  1 4.300000e-01    3.380000e+00
  SC1e  X1vq  1 4.300000e-01    3.380000e+00
  SX4e  X1vq  1 4.300000e-01    3.590000e+00
  SX3e  X1vq  1 4.300000e-01    3.770000e+00
  SX2e  X1vq  1 4.300000e-01    3.770000e+00
   C6e SC5vh  1 4.300000e-01    3.160000e+00
   C6e SC4vh  1 4.300000e-01    3.160000e+00
   C5e SC4vh  1 4.300000e-01    3.160000e+00
   C6e SC3vh  1 4.300000e-01    2.930000e+00
   C5e SC3vh  1 4.300000e-01    2.930000e+00
   C4e SC3vh  1 4.300000e-01    3.160000e+00
   C6e SC2vh  1 4.300000e-01    2.920000e+00
   C5e SC2vh  1 4.300000e-01    2.920000e+00
   C4e SC2vh  1 4.300000e-01    2.930000e+00
   C3e SC2vh  1 4.300000e-01    3.160000e+00
   C6e SC1vh  1 4.300000e-01    2.530000e+00
   C5e SC1vh  1 4.300000e-01    2.920000e+00
   C4e SC1vh  1 4.300000e-01    2.920000e+00
   C3e SC1vh  1 4.300000e-01    3.160000e+00
   C2e SC1vh  1 4.300000e-01    3.380000e+00
   C6e SX4vh  1 4.300000e-01    3.160000e+00
   C5e SX4vh  1 4.300000e-01    2.930000e+00
   C4e SX4vh  1 4.300000e-01    2.930000e+00
   C3e SX4vh  1 4.300000e-01    2.930000e+00
   C2e SX4vh  1 4.300000e-01    2.530000e+00
   C1e SX4vh  1 4.300000e-01    2.530000e+00
   C6e SX3vh  1 4.300000e-01    3.160000e+00
   C5e SX3vh  1 4.300000e-01    2.930000e+00
   C4e SX3vh  1 4.300000e-01    2.930000e+00
   C3e SX3vh  1 4.300000e-01    2.930000e+00
   C2e SX3vh  1 4.300000e-01    2.930000e+00
   C1e SX3vh  1 4.300000e-01    2.930000e+00
   X4e SX3vh  1 4.300000e-01    3.160000e+00
   C6e SX2vh  1 4.300000e-01    3.160000e+00
   C5e SX2vh  1 4.300000e-01    2.930000e+00
   C4e SX2vh  1 4.300000e-01    2.930000e+00
   C3e SX2vh  1 4.300000e-01    2.930000e+00
   C2e SX2vh  1 4.300000e-01    2.930000e+00
   C1e SX2vh  1 4.300000e-01    2.930000e+00
   X4e SX2vh  1 4.300000e-01    3.160000e+00
   X3e SX2vh  1 4.300000e-01    3.380000e+00
   C6e SX1vh  1 4.300000e-01    3.160000e+00
   C5e SX1vh  1 4.300000e-01    3.160000e+00
   C4e SX1vh  1 4.300000e-01    3.160000e+00
   C3e SX1vh  1 4.300000e-01    3.160000e+00
   C2e SX1vh  1 4.300000e-01    2.930000e+00
   C1e SX1vh  1 4.300000e-01    2.930000e+00
   X4e SX1vh  1 4.300000e-01    3.160000e+00
   X3e SX1vh  1 4.300000e-01    3.380000e+00
   X2e SX1vh  1 4.300000e-01    3.380000e+00
  SC6e  C5vh  1 4.300000e-01    3.160000e+00
  SC6e  C4vh  1 4.300000e-01    3.160000e+00
  SC5e  C4vh  1 4.300000e-01    3.160000e+00
  SC6e  C3vh  1 4.300000e-01    2.930000e+00
  SC5e  C3vh  1 4.300000e-01    2.930000e+00
  SC4e  C3vh  1 4.300000e-01    3.160000e+00
  SC6e  C2vh  1 4.300000e-01    2.920000e+00
  SC5e  C2vh  1 4.300000e-01    2.920000e+00
  SC4e  C2vh  1 4.300000e-01    2.930000e+00
  SC3e  C2vh  1 4.300000e-01    3.160000e+00
  SC6e  C1vh  1 4.300000e-01    2.530000e+00
  SC5e  C1vh  1 4.300000e-01    2.920000e+00
  SC4e  C1vh  1 4.300000e-01    2.920000e+00
  SC3e  C1vh  1 4.300000e-01    3.160000e+00
  SC2e  C1vh  1 4.300000e-01    3.380000e+00
  SC6e  X4vh  1 4.300000e-01    3.160000e+00
  SC5e  X4vh  1 4.300000e-01    2.930000e+00
  SC4e  X4vh  1 4.300000e-01    2.930000e+00
  SC3e  X4vh  1 4.300000e-01    2.930000e+00
  SC2e  X4vh  1 4.300000e-01    2.530000e+00
  SC1e  X4vh  1 4.300000e-01    2.530000e+00
  SC6e  X3vh  1 4.300000e-01    3.160000e+00
  SC5e  X3vh  1 4.300000e-01    2.930000e+00
  SC4e  X3vh  1 4.300000e-01    2.930000e+00
  SC3e  X3vh  1 4.300000e-01    2.930000e+00
  SC2e  X3vh  1 4.300000e-01    2.930000e+00
  SC1e  X3vh  1 4.300000e-01    2.930000e+00
  SX4e  X3vh  1 4.300000e-01    3.160000e+00
  SC6e  X2vh  1 4.300000e-01    3.160000e+00
  SC5e  X2vh  1 4.300000e-01    2.930000e+00
  SC4e  X2vh  1 4.300000e-01    2.930000e+00
  SC3e  X2vh  1 4.300000e-01    2.930000e+00
  SC2e  X2vh  1 4.300000e-01    2.930000e+00
  SC1e  X2vh  1 4.300000e-01    2.930000e+00
  SX4e  X2vh  1 4.300000e-01    3.160000e+00
  SX3e  X2vh  1 4.300000e-01    3.380000e+00
  SC6e  X1vh  1 4.300000e-01    3.160000e+00
  SC5e  X1vh  1 4.300000e-01    3.160000e+00
  SC4e  X1vh  1 4.300000e-01    3.160000e+00
  SC3e  X1vh  1 4.300000e-01    3.160000e+00
  SC2e  X1vh  1 4.300000e-01    2.930000e+00
  SC1e  X1vh  1 4.300000e-01    2.930000e+00
  SX4e  X1vh  1 4.300000e-01    3.160000e+00
  SX3e  X1vh  1 4.300000e-01    3.380000e+00
  SX2e  X1vh  1 4.300000e-01    3.380000e+00
   C6e SC5vr  1 4.300000e-01    3.160000e+00
   C6e SC4vr  1 4.300000e-01    3.160000e+00
   C5e SC4vr  1 4.300000e-01    3.160000e+00
   C6e SC3vr  1 4.300000e-01    2.930000e+00
   C5e SC3vr  1 4.300000e-01    2.930000e+00
   C4e SC3vr  1 4.300000e-01    3.160000e+00
   C6e SC2vr  1 4.300000e-01    2.920000e+00
   C5e SC2vr  1 4.300000e-01    2.920000e+00
   C4e SC2vr  1 4.300000e-01    2.930000e+00
   C3e SC2vr  1 4.300000e-01    3.160000e+00
   C6e SC1vr  1 4.300000e-01    2.530000e+00
   C5e SC1vr  1 4.300000e-01    2.920000e+00
   C4e SC1vr  1 4.300000e-01    2.920000e+00
   C3e SC1vr  1 4.300000e-01    3.160000e+00
   C2e SC1vr  1 4.300000e-01    3.380000e+00
   C6e SX4vr  1 4.300000e-01    3.160000e+00
   C5e SX4vr  1 4.300000e-01    2.930000e+00
   C4e SX4vr  1 4.300000e-01    2.930000e+00
   C3e SX4vr  1 4.300000e-01    2.930000e+00
   C2e SX4vr  1 4.300000e-01    2.530000e+00
   C1e SX4vr  1 4.300000e-01    2.530000e+00
   C6e SX3vr  1 4.300000e-01    3.160000e+00
   C5e SX3vr  1 4.300000e-01    2.930000e+00
   C4e SX3vr  1 4.300000e-01    2.930000e+00
   C3e SX3vr  1 4.300000e-01    2.930000e+00
   C2e SX3vr  1 4.300000e-01    2.930000e+00
   C1e SX3vr  1 4.300000e-01    2.930000e+00
   X4e SX3vr  1 4.300000e-01    3.160000e+00
   C6e SX2vr  1 4.300000e-01    3.160000e+00
   C5e SX2vr  1 4.300000e-01    2.930000e+00
   C4e SX2vr  1 4.300000e-01    2.930000e+00
   C3e SX2vr  1 4.300000e-01    2.930000e+00
   C2e SX2vr  1 4.300000e-01    2.930000e+00
   C1e SX2vr  1 4.300000e-01    2.930000e+00
   X4e SX2vr  1 4.300000e-01    3.160000e+00
   X3e SX2vr  1 4.300000e-01    3.380000e+00
   C6e SX1vr  1 4.300000e-01    3.160000e+00
   C5e SX1vr  1 4.300000e-01    3.160000e+00
   C4e SX1vr  1 4.300000e-01    3.160000e+00
   C3e SX1vr  1 4.300000e-01    3.160000e+00
   C2e SX1vr  1 4.300000e-01    2.930000e+00
   C1e SX1vr  1 4.300000e-01    2.930000e+00
   X4e SX1vr  1 4.300000e-01    3.160000e+00
   X3e SX1vr  1 4.300000e-01    3.380000e+00
   X2e SX1vr  1 4.300000e-01    3.380000e+00
  SC6e  C5vr  1 4.300000e-01    3.160000e+00
  SC6e  C4vr  1 4.300000e-01    3.160000e+00
  SC5e  C4vr  1 4.300000e-01    3.160000e+00
  SC6e  C3vr  1 4.300000e-01    2.930000e+00
  SC5e  C3vr  1 4.300000e-01    2.930000e+00
  SC4e  C3vr  1 4.300000e-01    3.160000e+00
  SC6e  C2vr  1 4.300000e-01    2.920000e+00
  SC5e  C2vr  1 4.300000e-01    2.920000e+00
  SC4e  C2vr  1 4.300000e-01    2.930000e+00
  SC3e  C2vr  1 4.300000e-01    3.160000e+00
  SC6e  C1vr  1 4.300000e-01    2.530000e+00
  SC5e  C1vr  1 4.300000e-01    2.920000e+00
  SC4e  C1vr  1 4.300000e-01    2.920000e+00
  SC3e  C1vr  1 4.300000e-01    3.160000e+00
  SC2e  C1vr  1 4.300000e-01    3.380000e+00
  SC6e  X4vr  1 4.300000e-01    3.160000e+00
  SC5e  X4vr  1 4.300000e-01    2.930000e+00
  SC4e  X4vr  1 4.300000e-01    2.930000e+00
  SC3e  X4vr  1 4.300000e-01    2.930000e+00
  SC2e  X4vr  1 4.300000e-01    2.530000e+00
  SC1e  X4vr  1 4.300000e-01    2.530000e+00
  SC6e  X3vr  1 4.300000e-01    3.160000e+00
  SC5e  X3vr  1 4.300000e-01    2.930000e+00
  SC4e  X3vr  1 4.300000e-01    2.930000e+00
  SC3e  X3vr  1 4.300000e-01    2.930000e+00
  SC2e  X3vr  1 4.300000e-01    2.930000e+00
  SC1e  X3vr  1 4.300000e-01    2.930000e+00
  SX4e  X3vr  1 4.300000e-01    3.160000e+00
  SC6e  X2vr  1 4.300000e-01    3.160000e+00
  SC5e  X2vr  1 4.300000e-01    2.930000e+00
  SC4e  X2vr  1 4.300000e-01    2.930000e+00
  SC3e  X2vr  1 4.300000e-01    2.930000e+00
  SC2e  X2vr  1 4.300000e-01    2.930000e+00
  SC1e  X2vr  1 4.300000e-01    2.930000e+00
  SX4e  X2vr  1 4.300000e-01    3.160000e+00
  SX3e  X2vr  1 4.300000e-01    3.380000e+00
  SC6e  X1vr  1 4.300000e-01    3.160000e+00
  SC5e  X1vr  1 4.300000e-01    3.160000e+00
  SC4e  X1vr  1 4.300000e-01    3.160000e+00
  SC3e  X1vr  1 4.300000e-01    3.160000e+00
  SC2e  X1vr  1 4.300000e-01    2.930000e+00
  SC1e  X1vr  1 4.300000e-01    2.930000e+00
  SX4e  X1vr  1 4.300000e-01    3.160000e+00
  SX3e  X1vr  1 4.300000e-01    3.380000e+00
  SX2e  X1vr  1 4.300000e-01    3.380000e+00
  X2eq  SX1v  1 4.300000e-01    3.770000e+00
  X3eq  SX2v  1 4.300000e-01    3.770000e+00
  X3eq  SX1v  1 4.300000e-01    3.770000e+00
  X4eq  SX3v  1 4.300000e-01    3.590000e+00
  X4eq  SX2v  1 4.300000e-01    3.590000e+00
  X4eq  SX1v  1 4.300000e-01    3.590000e+00
  C1eq  SX4v  1 4.300000e-01    2.930000e+00
  C1eq  SX3v  1 4.300000e-01    3.380000e+00
  C1eq  SX2v  1 4.300000e-01    3.380000e+00
  C1eq  SX1v  1 4.300000e-01    3.380000e+00
  C2eq  SC1v  1 4.300000e-01    3.770000e+00
  C2eq  SX4v  1 4.300000e-01    2.930000e+00
  C2eq  SX3v  1 4.300000e-01    3.380000e+00
  C2eq  SX2v  1 4.300000e-01    3.380000e+00
  C2eq  SX1v  1 4.300000e-01    3.380000e+00
  C3eq  SC2v  1 4.300000e-01    3.590000e+00
  C3eq  SC1v  1 4.300000e-01    3.590000e+00
  C3eq  SX4v  1 4.300000e-01    3.380000e+00
  C3eq  SX3v  1 4.300000e-01    3.380000e+00
  C3eq  SX2v  1 4.300000e-01    3.380000e+00
  C3eq  SX1v  1 4.300000e-01    3.590000e+00
  C4eq  SC3v  1 4.300000e-01    3.590000e+00
  C4eq  SC2v  1 4.300000e-01    3.380000e+00
  C4eq  SC1v  1 4.300000e-01    3.160000e+00
  C4eq  SX4v  1 4.300000e-01    3.380000e+00
  C4eq  SX3v  1 4.300000e-01    3.380000e+00
  C4eq  SX2v  1 4.300000e-01    3.380000e+00
  C4eq  SX1v  1 4.300000e-01    3.590000e+00
  C5eq  SC4v  1 4.300000e-01    3.590000e+00
  C5eq  SC3v  1 4.300000e-01    3.380000e+00
  C5eq  SC2v  1 4.300000e-01    3.160000e+00
  C5eq  SC1v  1 4.300000e-01    3.160000e+00
  C5eq  SX4v  1 4.300000e-01    3.380000e+00
  C5eq  SX3v  1 4.300000e-01    3.380000e+00
  C5eq  SX2v  1 4.300000e-01    3.380000e+00
  C5eq  SX1v  1 4.300000e-01    3.590000e+00
  C6eq  SC5v  1 4.300000e-01    3.590000e+00
  C6eq  SC4v  1 4.300000e-01    3.590000e+00
  C6eq  SC3v  1 4.300000e-01    3.380000e+00
  C6eq  SC2v  1 4.300000e-01    3.160000e+00
  C6eq  SC1v  1 4.300000e-01    2.930000e+00
  C6eq  SX4v  1 4.300000e-01    3.590000e+00
  C6eq  SX3v  1 4.300000e-01    3.590000e+00
  C6eq  SX2v  1 4.300000e-01    3.590000e+00
  C6eq  SX1v  1 4.300000e-01    3.590000e+00
 SX2eq   X1v  1 4.300000e-01    3.770000e+00
 SX3eq   X2v  1 4.300000e-01    3.770000e+00
 SX3eq   X1v  1 4.300000e-01    3.770000e+00
 SX4eq   X3v  1 4.300000e-01    3.590000e+00
 SX4eq   X2v  1 4.300000e-01    3.590000e+00
 SX4eq   X1v  1 4.300000e-01    3.590000e+00
 SC1eq   X4v  1 4.300000e-01    2.930000e+00
 SC1eq   X3v  1 4.300000e-01    3.380000e+00
 SC1eq   X2v  1 4.300000e-01    3.380000e+00
 SC1eq   X1v  1 4.300000e-01    3.380000e+00
 SC2eq   C1v  1 4.300000e-01    3.770000e+00
 SC2eq   X4v  1 4.300000e-01    2.930000e+00
 SC2eq   X3v  1 4.300000e-01    3.380000e+00
 SC2eq   X2v  1 4.300000e-01    3.380000e+00
 SC2eq   X1v  1 4.300000e-01    3.380000e+00
 SC3eq   C2v  1 4.300000e-01    3.590000e+00
 SC3eq   C1v  1 4.300000e-01    3.590000e+00
 SC3eq   X4v  1 4.300000e-01    3.380000e+00
 SC3eq   X3v  1 4.300000e-01    3.380000e+00
 SC3eq   X2v  1 4.300000e-01    3.380000e+00
 SC3eq   X1v  1 4.300000e-01    3.590000e+00
 SC4eq   C3v  1 4.300000e-01    3.590000e+00
 SC4eq   C2v  1 4.300000e-01    3.380000e+00
 SC4eq   C1v  1 4.300000e-01    3.160000e+00
 SC4eq   X4v  1 4.300000e-01    3.380000e+00
 SC4eq   X3v  1 4.300000e-01    3.380000e+00
 SC4eq   X2v  1 4.300000e-01    3.380000e+00
 SC4eq   X1v  1 4.300000e-01    3.590000e+00
 SC5eq   C4v  1 4.300000e-01    3.590000e+00
 SC5eq   C3v  1 4.300000e-01    3.380000e+00
 SC5eq   C2v  1 4.300000e-01    3.160000e+00
 SC5eq   C1v  1 4.300000e-01    3.160000e+00
 SC5eq   X4v  1 4.300000e-01    3.380000e+00
 SC5eq   X3v  1 4.300000e-01    3.380000e+00
 SC5eq   X2v  1 4.300000e-01    3.380000e+00
 SC5eq   X1v  1 4.300000e-01    3.590000e+00
 SC6eq   C5v  1 4.300000e-01    3.590000e+00
 SC6eq   C4v  1 4.300000e-01    3.590000e+00
 SC6eq   C3v  1 4.300000e-01    3.380000e+00
 SC6eq   C2v  1 4.300000e-01    3.160000e+00
 SC6eq   C1v  1 4.300000e-01    2.930000e+00
 SC6eq   X4v  1 4.300000e-01    3.590000e+00
 SC6eq   X3v  1 4.300000e-01    3.590000e+00
 SC6eq   X2v  1 4.300000e-01    3.590000e+00
 SC6eq   X1v  1 4.300000e-01    3.590000e+00
  C6eq SC5vq  1 4.300000e-01    3.590000e+00
  C6eq SC4vq  1 4.300000e-01    3.590000e+00
  C6eq SC3vq  1 4.300000e-01    3.380000e+00
  C6eq SC2vq  1 4.300000e-01    3.160000e+00
  C6eq SC1vq  1 4.300000e-01    2.930000e+00
  C6eq SX4vq  1 4.300000e-01    3.590000e+00
  C6eq SX3vq  1 4.300000e-01    3.590000e+00
  C6eq SX2vq  1 4.300000e-01    3.590000e+00
  C6eq SX1vq  1 4.300000e-01    3.590000e+00
  C5eq SC4vq  1 4.300000e-01    3.590000e+00
  C5eq SC3vq  1 4.300000e-01    3.380000e+00
  C5eq SC2vq  1 4.300000e-01    3.160000e+00
  C5eq SC1vq  1 4.300000e-01    3.160000e+00
  C5eq SX4vq  1 4.300000e-01    3.380000e+00
  C5eq SX3vq  1 4.300000e-01    3.380000e+00
  C5eq SX2vq  1 4.300000e-01    3.380000e+00
  C5eq SX1vq  1 4.300000e-01    3.590000e+00
  C4eq SC3vq  1 4.300000e-01    3.590000e+00
  C4eq SC2vq  1 4.300000e-01    3.380000e+00
  C4eq SC1vq  1 4.300000e-01    3.160000e+00
  C4eq SX4vq  1 4.300000e-01    3.380000e+00
  C4eq SX3vq  1 4.300000e-01    3.380000e+00
  C4eq SX2vq  1 4.300000e-01    3.380000e+00
  C4eq SX1vq  1 4.300000e-01    3.590000e+00
  C3eq SC2vq  1 4.300000e-01    3.590000e+00
  C3eq SC1vq  1 4.300000e-01    3.590000e+00
  C3eq SX4vq  1 4.300000e-01    3.380000e+00
  C3eq SX3vq  1 4.300000e-01    3.380000e+00
  C3eq SX2vq  1 4.300000e-01    3.380000e+00
  C3eq SX1vq  1 4.300000e-01    3.590000e+00
  C2eq SC1vq  1 4.300000e-01    3.770000e+00
  C2eq SX4vq  1 4.300000e-01    2.930000e+00
  C2eq SX3vq  1 4.300000e-01    3.380000e+00
  C2eq SX2vq  1 4.300000e-01    3.380000e+00
  C2eq SX1vq  1 4.300000e-01    3.380000e+00
  C1eq SX4vq  1 4.300000e-01    2.930000e+00
  C1eq SX3vq  1 4.300000e-01    3.380000e+00
  C1eq SX2vq  1 4.300000e-01    3.380000e+00
  C1eq SX1vq  1 4.300000e-01    3.380000e+00
  X4eq SX3vq  1 4.300000e-01    3.590000e+00
  X4eq SX2vq  1 4.300000e-01    3.590000e+00
  X4eq SX1vq  1 4.300000e-01    3.590000e+00
  X3eq SX2vq  1 4.300000e-01    3.770000e+00
  X3eq SX1vq  1 4.300000e-01    3.770000e+00
  X2eq SX1vq  1 4.300000e-01    3.770000e+00
 SC6eq  C5vq  1 4.300000e-01    3.590000e+00
 SC6eq  C4vq  1 4.300000e-01    3.590000e+00
 SC6eq  C3vq  1 4.300000e-01    3.380000e+00
 SC6eq  C2vq  1 4.300000e-01    3.160000e+00
 SC6eq  C1vq  1 4.300000e-01    2.930000e+00
 SC6eq  X4vq  1 4.300000e-01    3.590000e+00
 SC6eq  X3vq  1 4.300000e-01    3.590000e+00
 SC6eq  X2vq  1 4.300000e-01    3.590000e+00
 SC6eq  X1vq  1 4.300000e-01    3.590000e+00
 SC5eq  C4vq  1 4.300000e-01    3.590000e+00
 SC5eq  C3vq  1 4.300000e-01    3.380000e+00
 SC5eq  C2vq  1 4.300000e-01    3.160000e+00
 SC5eq  C1vq  1 4.300000e-01    3.160000e+00
 SC5eq  X4vq  1 4.300000e-01    3.380000e+00
 SC5eq  X3vq  1 4.300000e-01    3.380000e+00
 SC5eq  X2vq  1 4.300000e-01    3.380000e+00
 SC5eq  X1vq  1 4.300000e-01    3.590000e+00
 SC4eq  C3vq  1 4.300000e-01    3.590000e+00
 SC4eq  C2vq  1 4.300000e-01    3.380000e+00
 SC4eq  C1vq  1 4.300000e-01    3.160000e+00
 SC4eq  X4vq  1 4.300000e-01    3.380000e+00
 SC4eq  X3vq  1 4.300000e-01    3.380000e+00
 SC4eq  X2vq  1 4.300000e-01    3.380000e+00
 SC4eq  X1vq  1 4.300000e-01    3.590000e+00
 SC3eq  C2vq  1 4.300000e-01    3.590000e+00
 SC3eq  C1vq  1 4.300000e-01    3.590000e+00
 SC3eq  X4vq  1 4.300000e-01    3.380000e+00
 SC3eq  X3vq  1 4.300000e-01    3.380000e+00
 SC3eq  X2vq  1 4.300000e-01    3.380000e+00
 SC3eq  X1vq  1 4.300000e-01    3.590000e+00
 SC2eq  C1vq  1 4.300000e-01    3.770000e+00
 SC2eq  X4vq  1 4.300000e-01    2.930000e+00
 SC2eq  X3vq  1 4.300000e-01    3.380000e+00
 SC2eq  X2vq  1 4.300000e-01    3.380000e+00
 SC2eq  X1vq  1 4.300000e-01    3.380000e+00
 SC1eq  X4vq  1 4.300000e-01    2.930000e+00
 SC1eq  X3vq  1 4.300000e-01    3.380000e+00
 SC1eq  X2vq  1 4.300000e-01    3.380000e+00
 SC1eq  X1vq  1 4.300000e-01    3.380000e+00
 SX4eq  X3vq  1 4.300000e-01    3.590000e+00
 SX4eq  X2vq  1 4.300000e-01    3.590000e+00
 SX4eq  X1vq  1 4.300000e-01    3.590000e+00
 SX3eq  X2vq  1 4.300000e-01    3.770000e+00
 SX3eq  X1vq  1 4.300000e-01    3.770000e+00
 SX2eq  X1vq  1 4.300000e-01    3.770000e+00
  C6eq SC5vh  1 4.300000e-01    3.590000e+00
  C5eq SC4vh  1 4.300000e-01    3.590000e+00
  C6eq SC4vh  1 4.300000e-01    3.590000e+00
  C4eq SC3vh  1 4.300000e-01    3.590000e+00
  C5eq SC3vh  1 4.300000e-01    3.380000e+00
  C6eq SC3vh  1 4.300000e-01    3.380000e+00
  C3eq SC2vh  1 4.300000e-01    3.590000e+00
  C4eq SC2vh  1 4.300000e-01    3.380000e+00
  C5eq SC2vh  1 4.300000e-01    3.160000e+00
  C6eq SC2vh  1 4.300000e-01    3.160000e+00
  C2eq SC1vh  1 4.300000e-01    3.770000e+00
  C3eq SC1vh  1 4.300000e-01    3.590000e+00
  C4eq SC1vh  1 4.300000e-01    3.160000e+00
  C5eq SC1vh  1 4.300000e-01    3.160000e+00
  C6eq SC1vh  1 4.300000e-01    2.930000e+00
  C1eq SX4vh  1 4.300000e-01    2.930000e+00
  C2eq SX4vh  1 4.300000e-01    2.930000e+00
  C3eq SX4vh  1 4.300000e-01    3.380000e+00
  C4eq SX4vh  1 4.300000e-01    3.380000e+00
  C5eq SX4vh  1 4.300000e-01    3.380000e+00
  C6eq SX4vh  1 4.300000e-01    3.590000e+00
  X4eq SX3vh  1 4.300000e-01    3.590000e+00
  C1eq SX3vh  1 4.300000e-01    3.380000e+00
  C2eq SX3vh  1 4.300000e-01    3.380000e+00
  C3eq SX3vh  1 4.300000e-01    3.380000e+00
  C4eq SX3vh  1 4.300000e-01    3.380000e+00
  C5eq SX3vh  1 4.300000e-01    3.380000e+00
  C6eq SX3vh  1 4.300000e-01    3.590000e+00
  X3eq SX2vh  1 4.300000e-01    3.770000e+00
  X4eq SX2vh  1 4.300000e-01    3.590000e+00
  C1eq SX2vh  1 4.300000e-01    3.380000e+00
  C2eq SX2vh  1 4.300000e-01    3.380000e+00
  C3eq SX2vh  1 4.300000e-01    3.380000e+00
  C4eq SX2vh  1 4.300000e-01    3.380000e+00
  C5eq SX2vh  1 4.300000e-01    3.380000e+00
  C6eq SX2vh  1 4.300000e-01    3.590000e+00
  X2eq SX1vh  1 4.300000e-01    3.770000e+00
  X3eq SX1vh  1 4.300000e-01    3.770000e+00
  X4eq SX1vh  1 4.300000e-01    3.590000e+00
  C1eq SX1vh  1 4.300000e-01    3.380000e+00
  C2eq SX1vh  1 4.300000e-01    3.380000e+00
  C3eq SX1vh  1 4.300000e-01    3.590000e+00
  C4eq SX1vh  1 4.300000e-01    3.590000e+00
  C5eq SX1vh  1 4.300000e-01    3.590000e+00
  C6eq SX1vh  1 4.300000e-01    3.590000e+00
 SC6eq  C5vh  1 4.300000e-01    3.590000e+00
 SC5eq  C4vh  1 4.300000e-01    3.590000e+00
 SC6eq  C4vh  1 4.300000e-01    3.590000e+00
 SC4eq  C3vh  1 4.300000e-01    3.590000e+00
 SC5eq  C3vh  1 4.300000e-01    3.380000e+00
 SC6eq  C3vh  1 4.300000e-01    3.380000e+00
 SC3eq  C2vh  1 4.300000e-01    3.590000e+00
 SC4eq  C2vh  1 4.300000e-01    3.380000e+00
 SC5eq  C2vh  1 4.300000e-01    3.160000e+00
 SC6eq  C2vh  1 4.300000e-01    3.160000e+00
 SC2eq  C1vh  1 4.300000e-01    3.770000e+00
 SC3eq  C1vh  1 4.300000e-01    3.590000e+00
 SC4eq  C1vh  1 4.300000e-01    3.160000e+00
 SC5eq  C1vh  1 4.300000e-01    3.160000e+00
 SC6eq  C1vh  1 4.300000e-01    2.930000e+00
 SC1eq  X4vh  1 4.300000e-01    2.930000e+00
 SC2eq  X4vh  1 4.300000e-01    2.930000e+00
 SC3eq  X4vh  1 4.300000e-01    3.380000e+00
 SC4eq  X4vh  1 4.300000e-01    3.380000e+00
 SC5eq  X4vh  1 4.300000e-01    3.380000e+00
 SC6eq  X4vh  1 4.300000e-01    3.590000e+00
 SX4eq  X3vh  1 4.300000e-01    3.590000e+00
 SC1eq  X3vh  1 4.300000e-01    3.380000e+00
 SC2eq  X3vh  1 4.300000e-01    3.380000e+00
 SC3eq  X3vh  1 4.300000e-01    3.380000e+00
 SC4eq  X3vh  1 4.300000e-01    3.380000e+00
 SC5eq  X3vh  1 4.300000e-01    3.380000e+00
 SC6eq  X3vh  1 4.300000e-01    3.590000e+00
 SX3eq  X2vh  1 4.300000e-01    3.770000e+00
 SX4eq  X2vh  1 4.300000e-01    3.590000e+00
 SC1eq  X2vh  1 4.300000e-01    3.380000e+00
 SC2eq  X2vh  1 4.300000e-01    3.380000e+00
 SC3eq  X2vh  1 4.300000e-01    3.380000e+00
 SC4eq  X2vh  1 4.300000e-01    3.380000e+00
 SC5eq  X2vh  1 4.300000e-01    3.380000e+00
 SC6eq  X2vh  1 4.300000e-01    3.590000e+00
 SX2eq  X1vh  1 4.300000e-01    3.770000e+00
 SX3eq  X1vh  1 4.300000e-01    3.770000e+00
 SX4eq  X1vh  1 4.300000e-01    3.590000e+00
 SC1eq  X1vh  1 4.300000e-01    3.380000e+00
 SC2eq  X1vh  1 4.300000e-01    3.380000e+00
 SC3eq  X1vh  1 4.300000e-01    3.590000e+00
 SC4eq  X1vh  1 4.300000e-01    3.590000e+00
 SC5eq  X1vh  1 4.300000e-01    3.590000e+00
 SC6eq  X1vh  1 4.300000e-01    3.590000e+00
  C6eq SC5vr  1 4.300000e-01    3.590000e+00
  C5eq SC4vr  1 4.300000e-01    3.590000e+00
  C6eq SC4vr  1 4.300000e-01    3.590000e+00
  C4eq SC3vr  1 4.300000e-01    3.590000e+00
  C5eq SC3vr  1 4.300000e-01    3.380000e+00
  C6eq SC3vr  1 4.300000e-01    3.380000e+00
  C3eq SC2vr  1 4.300000e-01    3.590000e+00
  C4eq SC2vr  1 4.300000e-01    3.380000e+00
  C5eq SC2vr  1 4.300000e-01    3.160000e+00
  C6eq SC2vr  1 4.300000e-01    3.160000e+00
  C2eq SC1vr  1 4.300000e-01    3.770000e+00
  C3eq SC1vr  1 4.300000e-01    3.590000e+00
  C4eq SC1vr  1 4.300000e-01    3.160000e+00
  C5eq SC1vr  1 4.300000e-01    3.160000e+00
  C6eq SC1vr  1 4.300000e-01    2.930000e+00
  C1eq SX4vr  1 4.300000e-01    2.930000e+00
  C2eq SX4vr  1 4.300000e-01    2.930000e+00
  C3eq SX4vr  1 4.300000e-01    3.380000e+00
  C4eq SX4vr  1 4.300000e-01    3.380000e+00
  C5eq SX4vr  1 4.300000e-01    3.380000e+00
  C6eq SX4vr  1 4.300000e-01    3.590000e+00
  X4eq SX3vr  1 4.300000e-01    3.590000e+00
  C1eq SX3vr  1 4.300000e-01    3.380000e+00
  C2eq SX3vr  1 4.300000e-01    3.380000e+00
  C3eq SX3vr  1 4.300000e-01    3.380000e+00
  C4eq SX3vr  1 4.300000e-01    3.380000e+00
  C5eq SX3vr  1 4.300000e-01    3.380000e+00
  C6eq SX3vr  1 4.300000e-01    3.590000e+00
  X3eq SX2vr  1 4.300000e-01    3.770000e+00
  X4eq SX2vr  1 4.300000e-01    3.590000e+00
  C1eq SX2vr  1 4.300000e-01    3.380000e+00
  C2eq SX2vr  1 4.300000e-01    3.380000e+00
  C3eq SX2vr  1 4.300000e-01    3.380000e+00
  C4eq SX2vr  1 4.300000e-01    3.380000e+00
  C5eq SX2vr  1 4.300000e-01    3.380000e+00
  C6eq SX2vr  1 4.300000e-01    3.590000e+00
  X2eq SX1vr  1 4.300000e-01    3.770000e+00
  X3eq SX1vr  1 4.300000e-01    3.770000e+00
  X4eq SX1vr  1 4.300000e-01    3.590000e+00
  C1eq SX1vr  1 4.300000e-01    3.380000e+00
  C2eq SX1vr  1 4.300000e-01    3.380000e+00
  C3eq SX1vr  1 4.300000e-01    3.590000e+00
  C4eq SX1vr  1 4.300000e-01    3.590000e+00
  C5eq SX1vr  1 4.300000e-01    3.590000e+00
  C6eq SX1vr  1 4.300000e-01    3.590000e+00
 SC6eq  C5vr  1 4.300000e-01    3.590000e+00
 SC5eq  C4vr  1 4.300000e-01    3.590000e+00
 SC6eq  C4vr  1 4.300000e-01    3.590000e+00
 SC4eq  C3vr  1 4.300000e-01    3.590000e+00
 SC5eq  C3vr  1 4.300000e-01    3.380000e+00
 SC6eq  C3vr  1 4.300000e-01    3.380000e+00
 SC3eq  C2vr  1 4.300000e-01    3.590000e+00
 SC4eq  C2vr  1 4.300000e-01    3.380000e+00
 SC5eq  C2vr  1 4.300000e-01    3.160000e+00
 SC6eq  C2vr  1 4.300000e-01    3.160000e+00
 SC2eq  C1vr  1 4.300000e-01    3.770000e+00
 SC3eq  C1vr  1 4.300000e-01    3.590000e+00
 SC4eq  C1vr  1 4.300000e-01    3.160000e+00
 SC5eq  C1vr  1 4.300000e-01    3.160000e+00
 SC6eq  C1vr  1 4.300000e-01    2.930000e+00
 SC1eq  X4vr  1 4.300000e-01    2.930000e+00
 SC2eq  X4vr  1 4.300000e-01    2.930000e+00
 SC3eq  X4vr  1 4.300000e-01    3.380000e+00
 SC4eq  X4vr  1 4.300000e-01    3.380000e+00
 SC5eq  X4vr  1 4.300000e-01    3.380000e+00
 SC6eq  X4vr  1 4.300000e-01    3.590000e+00
 SX4eq  X3vr  1 4.300000e-01    3.590000e+00
 SC1eq  X3vr  1 4.300000e-01    3.380000e+00
 SC2eq  X3vr  1 4.300000e-01    3.380000e+00
 SC3eq  X3vr  1 4.300000e-01    3.380000e+00
 SC4eq  X3vr  1 4.300000e-01    3.380000e+00
 SC5eq  X3vr  1 4.300000e-01    3.380000e+00
 SC6eq  X3vr  1 4.300000e-01    3.590000e+00
 SX3eq  X2vr  1 4.300000e-01    3.770000e+00
 SX4eq  X2vr  1 4.300000e-01    3.590000e+00
 SC1eq  X2vr  1 4.300000e-01    3.380000e+00
 SC2eq  X2vr  1 4.300000e-01    3.380000e+00
 SC3eq  X2vr  1 4.300000e-01    3.380000e+00
 SC4eq  X2vr  1 4.300000e-01    3.380000e+00
 SC5eq  X2vr  1 4.300000e-01    3.380000e+00
 SC6eq  X2vr  1 4.300000e-01    3.590000e+00
 SX2eq  X1vr  1 4.300000e-01    3.770000e+00
 SX3eq  X1vr  1 4.300000e-01    3.770000e+00
 SX4eq  X1vr  1 4.300000e-01    3.590000e+00
 SC1eq  X1vr  1 4.300000e-01    3.380000e+00
 SC2eq  X1vr  1 4.300000e-01    3.380000e+00
 SC3eq  X1vr  1 4.300000e-01    3.590000e+00
 SC4eq  X1vr  1 4.300000e-01    3.590000e+00
 SC5eq  X1vr  1 4.300000e-01    3.590000e+00
 SC6eq  X1vr  1 4.300000e-01    3.590000e+00
  X2eh  SX1v  1 4.300000e-01    3.380000e+00
  X3eh  SX2v  1 4.300000e-01    3.380000e+00
  X3eh  SX1v  1 4.300000e-01    3.380000e+00
  X4eh  SX3v  1 4.300000e-01    3.160000e+00
  X4eh  SX2v  1 4.300000e-01    3.160000e+00
  X4eh  SX1v  1 4.300000e-01    3.160000e+00
  C1eh  SX4v  1 4.300000e-01    2.530000e+00
  C1eh  SX3v  1 4.300000e-01    2.930000e+00
  C1eh  SX2v  1 4.300000e-01    2.930000e+00
  C1eh  SX1v  1 4.300000e-01    2.930000e+00
  C2eh  SC1v  1 4.300000e-01    3.380000e+00
  C2eh  SX4v  1 4.300000e-01    2.530000e+00
  C2eh  SX3v  1 4.300000e-01    2.930000e+00
  C2eh  SX2v  1 4.300000e-01    2.930000e+00
  C2eh  SX1v  1 4.300000e-01    2.930000e+00
  C3eh  SC2v  1 4.300000e-01    3.160000e+00
  C3eh  SC1v  1 4.300000e-01    3.160000e+00
  C3eh  SX4v  1 4.300000e-01    2.930000e+00
  C3eh  SX3v  1 4.300000e-01    2.930000e+00
  C3eh  SX2v  1 4.300000e-01    2.930000e+00
  C3eh  SX1v  1 4.300000e-01    3.160000e+00
  C4eh  SC3v  1 4.300000e-01    3.160000e+00
  C4eh  SC2v  1 4.300000e-01    2.930000e+00
  C4eh  SC1v  1 4.300000e-01    2.920000e+00
  C4eh  SX4v  1 4.300000e-01    2.930000e+00
  C4eh  SX3v  1 4.300000e-01    2.930000e+00
  C4eh  SX2v  1 4.300000e-01    2.930000e+00
  C4eh  SX1v  1 4.300000e-01    3.160000e+00
  C5eh  SC4v  1 4.300000e-01    3.160000e+00
  C5eh  SC3v  1 4.300000e-01    2.930000e+00
  C5eh  SC2v  1 4.300000e-01    2.920000e+00
  C5eh  SC1v  1 4.300000e-01    2.920000e+00
  C5eh  SX4v  1 4.300000e-01    2.930000e+00
  C5eh  SX3v  1 4.300000e-01    2.930000e+00
  C5eh  SX2v  1 4.300000e-01    2.930000e+00
  C5eh  SX1v  1 4.300000e-01    3.160000e+00
  C6eh  SC5v  1 4.300000e-01    3.160000e+00
  C6eh  SC4v  1 4.300000e-01    3.160000e+00
  C6eh  SC3v  1 4.300000e-01    2.930000e+00
  C6eh  SC2v  1 4.300000e-01    2.920000e+00
  C6eh  SC1v  1 4.300000e-01    2.530000e+00
  C6eh  SX4v  1 4.300000e-01    3.160000e+00
  C6eh  SX3v  1 4.300000e-01    3.160000e+00
  C6eh  SX2v  1 4.300000e-01    3.160000e+00
  C6eh  SX1v  1 4.300000e-01    3.160000e+00
 SX2eh   X1v  1 4.300000e-01    3.380000e+00
 SX3eh   X2v  1 4.300000e-01    3.380000e+00
 SX3eh   X1v  1 4.300000e-01    3.380000e+00
 SX4eh   X3v  1 4.300000e-01    3.160000e+00
 SX4eh   X2v  1 4.300000e-01    3.160000e+00
 SX4eh   X1v  1 4.300000e-01    3.160000e+00
 SC1eh   X4v  1 4.300000e-01    2.530000e+00
 SC1eh   X3v  1 4.300000e-01    2.930000e+00
 SC1eh   X2v  1 4.300000e-01    2.930000e+00
 SC1eh   X1v  1 4.300000e-01    2.930000e+00
 SC2eh   C1v  1 4.300000e-01    3.380000e+00
 SC2eh   X4v  1 4.300000e-01    2.530000e+00
 SC2eh   X3v  1 4.300000e-01    2.930000e+00
 SC2eh   X2v  1 4.300000e-01    2.930000e+00
 SC2eh   X1v  1 4.300000e-01    2.930000e+00
 SC3eh   C2v  1 4.300000e-01    3.160000e+00
 SC3eh   C1v  1 4.300000e-01    3.160000e+00
 SC3eh   X4v  1 4.300000e-01    2.930000e+00
 SC3eh   X3v  1 4.300000e-01    2.930000e+00
 SC3eh   X2v  1 4.300000e-01    2.930000e+00
 SC3eh   X1v  1 4.300000e-01    3.160000e+00
 SC4eh   C3v  1 4.300000e-01    3.160000e+00
 SC4eh   C2v  1 4.300000e-01    2.930000e+00
 SC4eh   C1v  1 4.300000e-01    2.920000e+00
 SC4eh   X4v  1 4.300000e-01    2.930000e+00
 SC4eh   X3v  1 4.300000e-01    2.930000e+00
 SC4eh   X2v  1 4.300000e-01    2.930000e+00
 SC4eh   X1v  1 4.300000e-01    3.160000e+00
 SC5eh   C4v  1 4.300000e-01    3.160000e+00
 SC5eh   C3v  1 4.300000e-01    2.930000e+00
 SC5eh   C2v  1 4.300000e-01    2.920000e+00
 SC5eh   C1v  1 4.300000e-01    2.920000e+00
 SC5eh   X4v  1 4.300000e-01    2.930000e+00
 SC5eh   X3v  1 4.300000e-01    2.930000e+00
 SC5eh   X2v  1 4.300000e-01    2.930000e+00
 SC5eh   X1v  1 4.300000e-01    3.160000e+00
 SC6eh   C5v  1 4.300000e-01    3.160000e+00
 SC6eh   C4v  1 4.300000e-01    3.160000e+00
 SC6eh   C3v  1 4.300000e-01    2.930000e+00
 SC6eh   C2v  1 4.300000e-01    2.920000e+00
 SC6eh   C1v  1 4.300000e-01    2.530000e+00
 SC6eh   X4v  1 4.300000e-01    3.160000e+00
 SC6eh   X3v  1 4.300000e-01    3.160000e+00
 SC6eh   X2v  1 4.300000e-01    3.160000e+00
 SC6eh   X1v  1 4.300000e-01    3.160000e+00
  C6eh SC5vq  1 4.300000e-01    3.590000e+00
  C6eh SC4vq  1 4.300000e-01    3.590000e+00
  C6eh SC3vq  1 4.300000e-01    3.380000e+00
  C6eh SC2vq  1 4.300000e-01    3.160000e+00
  C6eh SC1vq  1 4.300000e-01    2.930000e+00
  C6eh SX4vq  1 4.300000e-01    3.590000e+00
  C6eh SX3vq  1 4.300000e-01    3.590000e+00
  C6eh SX2vq  1 4.300000e-01    3.590000e+00
  C6eh SX1vq  1 4.300000e-01    3.590000e+00
  C5eh SC4vq  1 4.300000e-01    3.590000e+00
  C5eh SC3vq  1 4.300000e-01    3.380000e+00
  C5eh SC2vq  1 4.300000e-01    3.160000e+00
  C5eh SC1vq  1 4.300000e-01    3.160000e+00
  C5eh SX4vq  1 4.300000e-01    3.380000e+00
  C5eh SX3vq  1 4.300000e-01    3.380000e+00
  C5eh SX2vq  1 4.300000e-01    3.380000e+00
  C5eh SX1vq  1 4.300000e-01    3.590000e+00
  C4eh SC3vq  1 4.300000e-01    3.590000e+00
  C4eh SC2vq  1 4.300000e-01    3.380000e+00
  C4eh SC1vq  1 4.300000e-01    3.160000e+00
  C4eh SX4vq  1 4.300000e-01    3.380000e+00
  C4eh SX3vq  1 4.300000e-01    3.380000e+00
  C4eh SX2vq  1 4.300000e-01    3.380000e+00
  C4eh SX1vq  1 4.300000e-01    3.590000e+00
  C3eh SC2vq  1 4.300000e-01    3.590000e+00
  C3eh SC1vq  1 4.300000e-01    3.590000e+00
  C3eh SX4vq  1 4.300000e-01    3.380000e+00
  C3eh SX3vq  1 4.300000e-01    3.380000e+00
  C3eh SX2vq  1 4.300000e-01    3.380000e+00
  C3eh SX1vq  1 4.300000e-01    3.590000e+00
  C2eh SC1vq  1 4.300000e-01    3.770000e+00
  C2eh SX4vq  1 4.300000e-01    2.930000e+00
  C2eh SX3vq  1 4.300000e-01    3.380000e+00
  C2eh SX2vq  1 4.300000e-01    3.380000e+00
  C2eh SX1vq  1 4.300000e-01    3.380000e+00
  C1eh SX4vq  1 4.300000e-01    2.930000e+00
  C1eh SX3vq  1 4.300000e-01    3.380000e+00
  C1eh SX2vq  1 4.300000e-01    3.380000e+00
  C1eh SX1vq  1 4.300000e-01    3.380000e+00
  X4eh SX3vq  1 4.300000e-01    3.590000e+00
  X4eh SX2vq  1 4.300000e-01    3.590000e+00
  X4eh SX1vq  1 4.300000e-01    3.590000e+00
  X3eh SX2vq  1 4.300000e-01    3.770000e+00
  X3eh SX1vq  1 4.300000e-01    3.770000e+00
  X2eh SX1vq  1 4.300000e-01    3.770000e+00
 SC6eh  C5vq  1 4.300000e-01    3.590000e+00
 SC6eh  C4vq  1 4.300000e-01    3.590000e+00
 SC6eh  C3vq  1 4.300000e-01    3.380000e+00
 SC6eh  C2vq  1 4.300000e-01    3.160000e+00
 SC6eh  C1vq  1 4.300000e-01    2.930000e+00
 SC6eh  X4vq  1 4.300000e-01    3.590000e+00
 SC6eh  X3vq  1 4.300000e-01    3.590000e+00
 SC6eh  X2vq  1 4.300000e-01    3.590000e+00
 SC6eh  X1vq  1 4.300000e-01    3.590000e+00
 SC5eh  C4vq  1 4.300000e-01    3.590000e+00
 SC5eh  C3vq  1 4.300000e-01    3.380000e+00
 SC5eh  C2vq  1 4.300000e-01    3.160000e+00
 SC5eh  C1vq  1 4.300000e-01    3.160000e+00
 SC5eh  X4vq  1 4.300000e-01    3.380000e+00
 SC5eh  X3vq  1 4.300000e-01    3.380000e+00
 SC5eh  X2vq  1 4.300000e-01    3.380000e+00
 SC5eh  X1vq  1 4.300000e-01    3.590000e+00
 SC4eh  C3vq  1 4.300000e-01    3.590000e+00
 SC4eh  C2vq  1 4.300000e-01    3.380000e+00
 SC4eh  C1vq  1 4.300000e-01    3.160000e+00
 SC4eh  X4vq  1 4.300000e-01    3.380000e+00
 SC4eh  X3vq  1 4.300000e-01    3.380000e+00
 SC4eh  X2vq  1 4.300000e-01    3.380000e+00
 SC4eh  X1vq  1 4.300000e-01    3.590000e+00
 SC3eh  C2vq  1 4.300000e-01    3.590000e+00
 SC3eh  C1vq  1 4.300000e-01    3.590000e+00
 SC3eh  X4vq  1 4.300000e-01    3.380000e+00
 SC3eh  X3vq  1 4.300000e-01    3.380000e+00
 SC3eh  X2vq  1 4.300000e-01    3.380000e+00
 SC3eh  X1vq  1 4.300000e-01    3.590000e+00
 SC2eh  C1vq  1 4.300000e-01    3.770000e+00
 SC2eh  X4vq  1 4.300000e-01    2.930000e+00
 SC2eh  X3vq  1 4.300000e-01    3.380000e+00
 SC2eh  X2vq  1 4.300000e-01    3.380000e+00
 SC2eh  X1vq  1 4.300000e-01    3.380000e+00
 SC1eh  X4vq  1 4.300000e-01    2.930000e+00
 SC1eh  X3vq  1 4.300000e-01    3.380000e+00
 SC1eh  X2vq  1 4.300000e-01    3.380000e+00
 SC1eh  X1vq  1 4.300000e-01    3.380000e+00
 SX4eh  X3vq  1 4.300000e-01    3.590000e+00
 SX4eh  X2vq  1 4.300000e-01    3.590000e+00
 SX4eh  X1vq  1 4.300000e-01    3.590000e+00
 SX3eh  X2vq  1 4.300000e-01    3.770000e+00
 SX3eh  X1vq  1 4.300000e-01    3.770000e+00
 SX2eh  X1vq  1 4.300000e-01    3.770000e+00
  C6eh SC5vh  1 4.300000e-01    3.380000e+00
  C6eh SC4vh  1 4.300000e-01    3.380000e+00
  C6eh SC3vh  1 4.300000e-01    3.160000e+00
  C6eh SC2vh  1 4.300000e-01    2.930000e+00
  C6eh SC1vh  1 4.300000e-01    2.920000e+00
  C6eh SX4vh  1 4.300000e-01    3.380000e+00
  C6eh SX3vh  1 4.300000e-01    3.380000e+00
  C6eh SX2vh  1 4.300000e-01    3.380000e+00
  C6eh SX1vh  1 4.300000e-01    3.380000e+00
  C5eh SC4vh  1 4.300000e-01    3.380000e+00
  C5eh SC3vh  1 4.300000e-01    3.160000e+00
  C5eh SC2vh  1 4.300000e-01    2.930000e+00
  C5eh SC1vh  1 4.300000e-01    2.930000e+00
  C5eh SX4vh  1 4.300000e-01    3.160000e+00
  C5eh SX3vh  1 4.300000e-01    3.160000e+00
  C5eh SX2vh  1 4.300000e-01    3.160000e+00
  C5eh SX1vh  1 4.300000e-01    3.380000e+00
  C4eh SC3vh  1 4.300000e-01    3.380000e+00
  C4eh SC2vh  1 4.300000e-01    3.160000e+00
  C4eh SC1vh  1 4.300000e-01    2.930000e+00
  C4eh SX4vh  1 4.300000e-01    3.160000e+00
  C4eh SX3vh  1 4.300000e-01    3.160000e+00
  C4eh SX2vh  1 4.300000e-01    3.160000e+00
  C4eh SX1vh  1 4.300000e-01    3.380000e+00
  C3eh SC2vh  1 4.300000e-01    3.380000e+00
  C3eh SC1vh  1 4.300000e-01    3.380000e+00
  C3eh SX4vh  1 4.300000e-01    3.160000e+00
  C3eh SX3vh  1 4.300000e-01    3.160000e+00
  C3eh SX2vh  1 4.300000e-01    3.160000e+00
  C3eh SX1vh  1 4.300000e-01    3.380000e+00
  C2eh SC1vh  1 4.300000e-01    3.590000e+00
  C2eh SX4vh  1 4.300000e-01    2.920000e+00
  C2eh SX3vh  1 4.300000e-01    3.160000e+00
  C2eh SX2vh  1 4.300000e-01    3.160000e+00
  C2eh SX1vh  1 4.300000e-01    3.160000e+00
  C1eh SX4vh  1 4.300000e-01    2.920000e+00
  C1eh SX3vh  1 4.300000e-01    3.160000e+00
  C1eh SX2vh  1 4.300000e-01    3.160000e+00
  C1eh SX1vh  1 4.300000e-01    3.160000e+00
  X4eh SX3vh  1 4.300000e-01    3.380000e+00
  X4eh SX2vh  1 4.300000e-01    3.380000e+00
  X4eh SX1vh  1 4.300000e-01    3.380000e+00
  X3eh SX2vh  1 4.300000e-01    3.590000e+00
  X3eh SX1vh  1 4.300000e-01    3.590000e+00
  X2eh SX1vh  1 4.300000e-01    3.590000e+00
 SC6eh  C5vh  1 4.300000e-01    3.380000e+00
 SC6eh  C4vh  1 4.300000e-01    3.380000e+00
 SC6eh  C3vh  1 4.300000e-01    3.160000e+00
 SC6eh  C2vh  1 4.300000e-01    2.930000e+00
 SC6eh  C1vh  1 4.300000e-01    2.920000e+00
 SC6eh  X4vh  1 4.300000e-01    3.380000e+00
 SC6eh  X3vh  1 4.300000e-01    3.380000e+00
 SC6eh  X2vh  1 4.300000e-01    3.380000e+00
 SC6eh  X1vh  1 4.300000e-01    3.380000e+00
 SC5eh  C4vh  1 4.300000e-01    3.380000e+00
 SC5eh  C3vh  1 4.300000e-01    3.160000e+00
 SC5eh  C2vh  1 4.300000e-01    2.930000e+00
 SC5eh  C1vh  1 4.300000e-01    2.930000e+00
 SC5eh  X4vh  1 4.300000e-01    3.160000e+00
 SC5eh  X3vh  1 4.300000e-01    3.160000e+00
 SC5eh  X2vh  1 4.300000e-01    3.160000e+00
 SC5eh  X1vh  1 4.300000e-01    3.380000e+00
 SC4eh  C3vh  1 4.300000e-01    3.380000e+00
 SC4eh  C2vh  1 4.300000e-01    3.160000e+00
 SC4eh  C1vh  1 4.300000e-01    2.930000e+00
 SC4eh  X4vh  1 4.300000e-01    3.160000e+00
 SC4eh  X3vh  1 4.300000e-01    3.160000e+00
 SC4eh  X2vh  1 4.300000e-01    3.160000e+00
 SC4eh  X1vh  1 4.300000e-01    3.380000e+00
 SC3eh  C2vh  1 4.300000e-01    3.380000e+00
 SC3eh  C1vh  1 4.300000e-01    3.380000e+00
 SC3eh  X4vh  1 4.300000e-01    3.160000e+00
 SC3eh  X3vh  1 4.300000e-01    3.160000e+00
 SC3eh  X2vh  1 4.300000e-01    3.160000e+00
 SC3eh  X1vh  1 4.300000e-01    3.380000e+00
 SC2eh  C1vh  1 4.300000e-01    3.590000e+00
 SC2eh  X4vh  1 4.300000e-01    2.920000e+00
 SC2eh  X3vh  1 4.300000e-01    3.160000e+00
 SC2eh  X2vh  1 4.300000e-01    3.160000e+00
 SC2eh  X1vh  1 4.300000e-01    3.160000e+00
 SC1eh  X4vh  1 4.300000e-01    2.920000e+00
 SC1eh  X3vh  1 4.300000e-01    3.160000e+00
 SC1eh  X2vh  1 4.300000e-01    3.160000e+00
 SC1eh  X1vh  1 4.300000e-01    3.160000e+00
 SX4eh  X3vh  1 4.300000e-01    3.380000e+00
 SX4eh  X2vh  1 4.300000e-01    3.380000e+00
 SX4eh  X1vh  1 4.300000e-01    3.380000e+00
 SX3eh  X2vh  1 4.300000e-01    3.590000e+00
 SX3eh  X1vh  1 4.300000e-01    3.590000e+00
 SX2eh  X1vh  1 4.300000e-01    3.590000e+00
  C6eh SC5vr  1 4.300000e-01    3.160000e+00
  C6eh SC4vr  1 4.300000e-01    3.160000e+00
  C6eh SC3vr  1 4.300000e-01    2.930000e+00
  C6eh SC2vr  1 4.300000e-01    2.920000e+00
  C6eh SC1vr  1 4.300000e-01    2.530000e+00
  C6eh SX4vr  1 4.300000e-01    3.160000e+00
  C6eh SX3vr  1 4.300000e-01    3.160000e+00
  C6eh SX2vr  1 4.300000e-01    3.160000e+00
  C6eh SX1vr  1 4.300000e-01    3.160000e+00
  C5eh SC4vr  1 4.300000e-01    3.160000e+00
  C5eh SC3vr  1 4.300000e-01    2.930000e+00
  C5eh SC2vr  1 4.300000e-01    2.920000e+00
  C5eh SC1vr  1 4.300000e-01    2.920000e+00
  C5eh SX4vr  1 4.300000e-01    2.930000e+00
  C5eh SX3vr  1 4.300000e-01    2.930000e+00
  C5eh SX2vr  1 4.300000e-01    2.930000e+00
  C5eh SX1vr  1 4.300000e-01    3.160000e+00
  C4eh SC3vr  1 4.300000e-01    3.160000e+00
  C4eh SC2vr  1 4.300000e-01    2.930000e+00
  C4eh SC1vr  1 4.300000e-01    2.920000e+00
  C4eh SX4vr  1 4.300000e-01    2.930000e+00
  C4eh SX3vr  1 4.300000e-01    2.930000e+00
  C4eh SX2vr  1 4.300000e-01    2.930000e+00
  C4eh SX1vr  1 4.300000e-01    3.160000e+00
  C3eh SC2vr  1 4.300000e-01    3.160000e+00
  C3eh SC1vr  1 4.300000e-01    3.160000e+00
  C3eh SX4vr  1 4.300000e-01    2.930000e+00
  C3eh SX3vr  1 4.300000e-01    2.930000e+00
  C3eh SX2vr  1 4.300000e-01    2.930000e+00
  C3eh SX1vr  1 4.300000e-01    3.160000e+00
  C2eh SC1vr  1 4.300000e-01    3.380000e+00
  C2eh SX4vr  1 4.300000e-01    2.530000e+00
  C2eh SX3vr  1 4.300000e-01    2.930000e+00
  C2eh SX2vr  1 4.300000e-01    2.930000e+00
  C2eh SX1vr  1 4.300000e-01    2.930000e+00
  C1eh SX4vr  1 4.300000e-01    2.530000e+00
  C1eh SX3vr  1 4.300000e-01    2.930000e+00
  C1eh SX2vr  1 4.300000e-01    2.930000e+00
  C1eh SX1vr  1 4.300000e-01    2.930000e+00
  X4eh SX3vr  1 4.300000e-01    3.160000e+00
  X4eh SX2vr  1 4.300000e-01    3.160000e+00
  X4eh SX1vr  1 4.300000e-01    3.160000e+00
  X3eh SX2vr  1 4.300000e-01    3.380000e+00
  X3eh SX1vr  1 4.300000e-01    3.380000e+00
  X2eh SX1vr  1 4.300000e-01    3.380000e+00
 SC6eh  C5vr  1 4.300000e-01    3.160000e+00
 SC6eh  C4vr  1 4.300000e-01    3.160000e+00
 SC6eh  C3vr  1 4.300000e-01    2.930000e+00
 SC6eh  C2vr  1 4.300000e-01    2.920000e+00
 SC6eh  C1vr  1 4.300000e-01    2.530000e+00
 SC6eh  X4vr  1 4.300000e-01    3.160000e+00
 SC6eh  X3vr  1 4.300000e-01    3.160000e+00
 SC6eh  X2vr  1 4.300000e-01    3.160000e+00
 SC6eh  X1vr  1 4.300000e-01    3.160000e+00
 SC5eh  C4vr  1 4.300000e-01    3.160000e+00
 SC5eh  C3vr  1 4.300000e-01    2.930000e+00
 SC5eh  C2vr  1 4.300000e-01    2.920000e+00
 SC5eh  C1vr  1 4.300000e-01    2.920000e+00
 SC5eh  X4vr  1 4.300000e-01    2.930000e+00
 SC5eh  X3vr  1 4.300000e-01    2.930000e+00
 SC5eh  X2vr  1 4.300000e-01    2.930000e+00
 SC5eh  X1vr  1 4.300000e-01    3.160000e+00
 SC4eh  C3vr  1 4.300000e-01    3.160000e+00
 SC4eh  C2vr  1 4.300000e-01    2.930000e+00
 SC4eh  C1vr  1 4.300000e-01    2.920000e+00
 SC4eh  X4vr  1 4.300000e-01    2.930000e+00
 SC4eh  X3vr  1 4.300000e-01    2.930000e+00
 SC4eh  X2vr  1 4.300000e-01    2.930000e+00
 SC4eh  X1vr  1 4.300000e-01    3.160000e+00
 SC3eh  C2vr  1 4.300000e-01    3.160000e+00
 SC3eh  C1vr  1 4.300000e-01    3.160000e+00
 SC3eh  X4vr  1 4.300000e-01    2.930000e+00
 SC3eh  X3vr  1 4.300000e-01    2.930000e+00
 SC3eh  X2vr  1 4.300000e-01    2.930000e+00
 SC3eh  X1vr  1 4.300000e-01    3.160000e+00
 SC2eh  C1vr  1 4.300000e-01    3.380000e+00
 SC2eh  X4vr  1 4.300000e-01    2.530000e+00
 SC2eh  X3vr  1 4.300000e-01    2.930000e+00
 SC2eh  X2vr  1 4.300000e-01    2.930000e+00
 SC2eh  X1vr  1 4.300000e-01    2.930000e+00
 SC1eh  X4vr  1 4.300000e-01    2.530000e+00
 SC1eh  X3vr  1 4.300000e-01    2.930000e+00
 SC1eh  X2vr  1 4.300000e-01    2.930000e+00
 SC1eh  X1vr  1 4.300000e-01    2.930000e+00
 SX4eh  X3vr  1 4.300000e-01    3.160000e+00
 SX4eh  X2vr  1 4.300000e-01    3.160000e+00
 SX4eh  X1vr  1 4.300000e-01    3.160000e+00
 SX3eh  X2vr  1 4.300000e-01    3.380000e+00
 SX3eh  X1vr  1 4.300000e-01    3.380000e+00
 SX2eh  X1vr  1 4.300000e-01    3.380000e+00
  X2er  SX1v  1 4.300000e-01    3.380000e+00
  X3er  SX2v  1 4.300000e-01    3.380000e+00
  X3er  SX1v  1 4.300000e-01    3.380000e+00
  X4er  SX3v  1 4.300000e-01    3.160000e+00
  X4er  SX2v  1 4.300000e-01    3.160000e+00
  X4er  SX1v  1 4.300000e-01    3.160000e+00
  C1er  SX4v  1 4.300000e-01    2.530000e+00
  C1er  SX3v  1 4.300000e-01    2.930000e+00
  C1er  SX2v  1 4.300000e-01    2.930000e+00
  C1er  SX1v  1 4.300000e-01    2.930000e+00
  C2er  SC1v  1 4.300000e-01    3.380000e+00
  C2er  SX4v  1 4.300000e-01    2.530000e+00
  C2er  SX3v  1 4.300000e-01    2.930000e+00
  C2er  SX2v  1 4.300000e-01    2.930000e+00
  C2er  SX1v  1 4.300000e-01    2.930000e+00
  C3er  SC2v  1 4.300000e-01    3.160000e+00
  C3er  SC1v  1 4.300000e-01    3.160000e+00
  C3er  SX4v  1 4.300000e-01    2.930000e+00
  C3er  SX3v  1 4.300000e-01    2.930000e+00
  C3er  SX2v  1 4.300000e-01    2.930000e+00
  C3er  SX1v  1 4.300000e-01    3.160000e+00
  C4er  SC3v  1 4.300000e-01    3.160000e+00
  C4er  SC2v  1 4.300000e-01    2.930000e+00
  C4er  SC1v  1 4.300000e-01    2.920000e+00
  C4er  SX4v  1 4.300000e-01    2.930000e+00
  C4er  SX3v  1 4.300000e-01    2.930000e+00
  C4er  SX2v  1 4.300000e-01    2.930000e+00
  C4er  SX1v  1 4.300000e-01    3.160000e+00
  C5er  SC4v  1 4.300000e-01    3.160000e+00
  C5er  SC3v  1 4.300000e-01    2.930000e+00
  C5er  SC2v  1 4.300000e-01    2.920000e+00
  C5er  SC1v  1 4.300000e-01    2.920000e+00
  C5er  SX4v  1 4.300000e-01    2.930000e+00
  C5er  SX3v  1 4.300000e-01    2.930000e+00
  C5er  SX2v  1 4.300000e-01    2.930000e+00
  C5er  SX1v  1 4.300000e-01    3.160000e+00
  C6er  SC5v  1 4.300000e-01    3.160000e+00
  C6er  SC4v  1 4.300000e-01    3.160000e+00
  C6er  SC3v  1 4.300000e-01    2.930000e+00
  C6er  SC2v  1 4.300000e-01    2.920000e+00
  C6er  SC1v  1 4.300000e-01    2.530000e+00
  C6er  SX4v  1 4.300000e-01    3.160000e+00
  C6er  SX3v  1 4.300000e-01    3.160000e+00
  C6er  SX2v  1 4.300000e-01    3.160000e+00
  C6er  SX1v  1 4.300000e-01    3.160000e+00
 SX2er   X1v  1 4.300000e-01    3.380000e+00
 SX3er   X2v  1 4.300000e-01    3.380000e+00
 SX3er   X1v  1 4.300000e-01    3.380000e+00
 SX4er   X3v  1 4.300000e-01    3.160000e+00
 SX4er   X2v  1 4.300000e-01    3.160000e+00
 SX4er   X1v  1 4.300000e-01    3.160000e+00
 SC1er   X4v  1 4.300000e-01    2.530000e+00
 SC1er   X3v  1 4.300000e-01    2.930000e+00
 SC1er   X2v  1 4.300000e-01    2.930000e+00
 SC1er   X1v  1 4.300000e-01    2.930000e+00
 SC2er   C1v  1 4.300000e-01    3.380000e+00
 SC2er   X4v  1 4.300000e-01    2.530000e+00
 SC2er   X3v  1 4.300000e-01    2.930000e+00
 SC2er   X2v  1 4.300000e-01    2.930000e+00
 SC2er   X1v  1 4.300000e-01    2.930000e+00
 SC3er   C2v  1 4.300000e-01    3.160000e+00
 SC3er   C1v  1 4.300000e-01    3.160000e+00
 SC3er   X4v  1 4.300000e-01    2.930000e+00
 SC3er   X3v  1 4.300000e-01    2.930000e+00
 SC3er   X2v  1 4.300000e-01    2.930000e+00
 SC3er   X1v  1 4.300000e-01    3.160000e+00
 SC4er   C3v  1 4.300000e-01    3.160000e+00
 SC4er   C2v  1 4.300000e-01    2.930000e+00
 SC4er   C1v  1 4.300000e-01    2.920000e+00
 SC4er   X4v  1 4.300000e-01    2.930000e+00
 SC4er   X3v  1 4.300000e-01    2.930000e+00
 SC4er   X2v  1 4.300000e-01    2.930000e+00
 SC4er   X1v  1 4.300000e-01    3.160000e+00
 SC5er   C4v  1 4.300000e-01    3.160000e+00
 SC5er   C3v  1 4.300000e-01    2.930000e+00
 SC5er   C2v  1 4.300000e-01    2.920000e+00
 SC5er   C1v  1 4.300000e-01    2.920000e+00
 SC5er   X4v  1 4.300000e-01    2.930000e+00
 SC5er   X3v  1 4.300000e-01    2.930000e+00
 SC5er   X2v  1 4.300000e-01    2.930000e+00
 SC5er   X1v  1 4.300000e-01    3.160000e+00
 SC6er   C5v  1 4.300000e-01    3.160000e+00
 SC6er   C4v  1 4.300000e-01    3.160000e+00
 SC6er   C3v  1 4.300000e-01    2.930000e+00
 SC6er   C2v  1 4.300000e-01    2.920000e+00
 SC6er   C1v  1 4.300000e-01    2.530000e+00
 SC6er   X4v  1 4.300000e-01    3.160000e+00
 SC6er   X3v  1 4.300000e-01    3.160000e+00
 SC6er   X2v  1 4.300000e-01    3.160000e+00
 SC6er   X1v  1 4.300000e-01    3.160000e+00
  C6er SC5vq  1 4.300000e-01    3.590000e+00
  C6er SC4vq  1 4.300000e-01    3.590000e+00
  C6er SC3vq  1 4.300000e-01    3.380000e+00
  C6er SC2vq  1 4.300000e-01    3.160000e+00
  C6er SC1vq  1 4.300000e-01    2.930000e+00
  C6er SX4vq  1 4.300000e-01    3.590000e+00
  C6er SX3vq  1 4.300000e-01    3.590000e+00
  C6er SX2vq  1 4.300000e-01    3.590000e+00
  C6er SX1vq  1 4.300000e-01    3.590000e+00
  C5er SC4vq  1 4.300000e-01    3.590000e+00
  C5er SC3vq  1 4.300000e-01    3.380000e+00
  C5er SC2vq  1 4.300000e-01    3.160000e+00
  C5er SC1vq  1 4.300000e-01    3.160000e+00
  C5er SX4vq  1 4.300000e-01    3.380000e+00
  C5er SX3vq  1 4.300000e-01    3.380000e+00
  C5er SX2vq  1 4.300000e-01    3.380000e+00
  C5er SX1vq  1 4.300000e-01    3.590000e+00
  C4er SC3vq  1 4.300000e-01    3.590000e+00
  C4er SC2vq  1 4.300000e-01    3.380000e+00
  C4er SC1vq  1 4.300000e-01    3.160000e+00
  C4er SX4vq  1 4.300000e-01    3.380000e+00
  C4er SX3vq  1 4.300000e-01    3.380000e+00
  C4er SX2vq  1 4.300000e-01    3.380000e+00
  C4er SX1vq  1 4.300000e-01    3.590000e+00
  C3er SC2vq  1 4.300000e-01    3.590000e+00
  C3er SC1vq  1 4.300000e-01    3.590000e+00
  C3er SX4vq  1 4.300000e-01    3.380000e+00
  C3er SX3vq  1 4.300000e-01    3.380000e+00
  C3er SX2vq  1 4.300000e-01    3.380000e+00
  C3er SX1vq  1 4.300000e-01    3.590000e+00
  C2er SC1vq  1 4.300000e-01    3.770000e+00
  C2er SX4vq  1 4.300000e-01    2.930000e+00
  C2er SX3vq  1 4.300000e-01    3.380000e+00
  C2er SX2vq  1 4.300000e-01    3.380000e+00
  C2er SX1vq  1 4.300000e-01    3.380000e+00
  C1er SX4vq  1 4.300000e-01    2.930000e+00
  C1er SX3vq  1 4.300000e-01    3.380000e+00
  C1er SX2vq  1 4.300000e-01    3.380000e+00
  C1er SX1vq  1 4.300000e-01    3.380000e+00
  X4er SX3vq  1 4.300000e-01    3.590000e+00
  X4er SX2vq  1 4.300000e-01    3.590000e+00
  X4er SX1vq  1 4.300000e-01    3.590000e+00
  X3er SX2vq  1 4.300000e-01    3.770000e+00
  X3er SX1vq  1 4.300000e-01    3.770000e+00
  X2er SX1vq  1 4.300000e-01    3.770000e+00
 SC6er  C5vq  1 4.300000e-01    3.590000e+00
 SC6er  C4vq  1 4.300000e-01    3.590000e+00
 SC6er  C3vq  1 4.300000e-01    3.380000e+00
 SC6er  C2vq  1 4.300000e-01    3.160000e+00
 SC6er  C1vq  1 4.300000e-01    2.930000e+00
 SC6er  X4vq  1 4.300000e-01    3.590000e+00
 SC6er  X3vq  1 4.300000e-01    3.590000e+00
 SC6er  X2vq  1 4.300000e-01    3.590000e+00
 SC6er  X1vq  1 4.300000e-01    3.590000e+00
 SC5er  C4vq  1 4.300000e-01    3.590000e+00
 SC5er  C3vq  1 4.300000e-01    3.380000e+00
 SC5er  C2vq  1 4.300000e-01    3.160000e+00
 SC5er  C1vq  1 4.300000e-01    3.160000e+00
 SC5er  X4vq  1 4.300000e-01    3.380000e+00
 SC5er  X3vq  1 4.300000e-01    3.380000e+00
 SC5er  X2vq  1 4.300000e-01    3.380000e+00
 SC5er  X1vq  1 4.300000e-01    3.590000e+00
 SC4er  C3vq  1 4.300000e-01    3.590000e+00
 SC4er  C2vq  1 4.300000e-01    3.380000e+00
 SC4er  C1vq  1 4.300000e-01    3.160000e+00
 SC4er  X4vq  1 4.300000e-01    3.380000e+00
 SC4er  X3vq  1 4.300000e-01    3.380000e+00
 SC4er  X2vq  1 4.300000e-01    3.380000e+00
 SC4er  X1vq  1 4.300000e-01    3.590000e+00
 SC3er  C2vq  1 4.300000e-01    3.590000e+00
 SC3er  C1vq  1 4.300000e-01    3.590000e+00
 SC3er  X4vq  1 4.300000e-01    3.380000e+00
 SC3er  X3vq  1 4.300000e-01    3.380000e+00
 SC3er  X2vq  1 4.300000e-01    3.380000e+00
 SC3er  X1vq  1 4.300000e-01    3.590000e+00
 SC2er  C1vq  1 4.300000e-01    3.770000e+00
 SC2er  X4vq  1 4.300000e-01    2.930000e+00
 SC2er  X3vq  1 4.300000e-01    3.380000e+00
 SC2er  X2vq  1 4.300000e-01    3.380000e+00
 SC2er  X1vq  1 4.300000e-01    3.380000e+00
 SC1er  X4vq  1 4.300000e-01    2.930000e+00
 SC1er  X3vq  1 4.300000e-01    3.380000e+00
 SC1er  X2vq  1 4.300000e-01    3.380000e+00
 SC1er  X1vq  1 4.300000e-01    3.380000e+00
 SX4er  X3vq  1 4.300000e-01    3.590000e+00
 SX4er  X2vq  1 4.300000e-01    3.590000e+00
 SX4er  X1vq  1 4.300000e-01    3.590000e+00
 SX3er  X2vq  1 4.300000e-01    3.770000e+00
 SX3er  X1vq  1 4.300000e-01    3.770000e+00
 SX2er  X1vq  1 4.300000e-01    3.770000e+00
  C6er SC5vh  1 4.300000e-01    3.160000e+00
  C6er SC4vh  1 4.300000e-01    3.160000e+00
  C6er SC3vh  1 4.300000e-01    2.930000e+00
  C6er SC2vh  1 4.300000e-01    2.920000e+00
  C6er SC1vh  1 4.300000e-01    2.530000e+00
  C6er SX4vh  1 4.300000e-01    3.160000e+00
  C6er SX3vh  1 4.300000e-01    3.160000e+00
  C6er SX2vh  1 4.300000e-01    3.160000e+00
  C6er SX1vh  1 4.300000e-01    3.160000e+00
  C5er SC4vh  1 4.300000e-01    3.160000e+00
  C5er SC3vh  1 4.300000e-01    2.930000e+00
  C5er SC2vh  1 4.300000e-01    2.920000e+00
  C5er SC1vh  1 4.300000e-01    2.920000e+00
  C5er SX4vh  1 4.300000e-01    2.930000e+00
  C5er SX3vh  1 4.300000e-01    2.930000e+00
  C5er SX2vh  1 4.300000e-01    2.930000e+00
  C5er SX1vh  1 4.300000e-01    3.160000e+00
  C4er SC3vh  1 4.300000e-01    3.160000e+00
  C4er SC2vh  1 4.300000e-01    2.930000e+00
  C4er SC1vh  1 4.300000e-01    2.920000e+00
  C4er SX4vh  1 4.300000e-01    2.930000e+00
  C4er SX3vh  1 4.300000e-01    2.930000e+00
  C4er SX2vh  1 4.300000e-01    2.930000e+00
  C4er SX1vh  1 4.300000e-01    3.160000e+00
  C3er SC2vh  1 4.300000e-01    3.160000e+00
  C3er SC1vh  1 4.300000e-01    3.160000e+00
  C3er SX4vh  1 4.300000e-01    2.930000e+00
  C3er SX3vh  1 4.300000e-01    2.930000e+00
  C3er SX2vh  1 4.300000e-01    2.930000e+00
  C3er SX1vh  1 4.300000e-01    3.160000e+00
  C2er SC1vh  1 4.300000e-01    3.380000e+00
  C2er SX4vh  1 4.300000e-01    2.530000e+00
  C2er SX3vh  1 4.300000e-01    2.930000e+00
  C2er SX2vh  1 4.300000e-01    2.930000e+00
  C2er SX1vh  1 4.300000e-01    2.930000e+00
  C1er SX4vh  1 4.300000e-01    2.530000e+00
  C1er SX3vh  1 4.300000e-01    2.930000e+00
  C1er SX2vh  1 4.300000e-01    2.930000e+00
  C1er SX1vh  1 4.300000e-01    2.930000e+00
  X4er SX3vh  1 4.300000e-01    3.160000e+00
  X4er SX2vh  1 4.300000e-01    3.160000e+00
  X4er SX1vh  1 4.300000e-01    3.160000e+00
  X3er SX2vh  1 4.300000e-01    3.380000e+00
  X3er SX1vh  1 4.300000e-01    3.380000e+00
  X2er SX1vh  1 4.300000e-01    3.380000e+00
 SC6er  C5vh  1 4.300000e-01    3.160000e+00
 SC6er  C4vh  1 4.300000e-01    3.160000e+00
 SC6er  C3vh  1 4.300000e-01    2.930000e+00
 SC6er  C2vh  1 4.300000e-01    2.920000e+00
 SC6er  C1vh  1 4.300000e-01    2.530000e+00
 SC6er  X4vh  1 4.300000e-01    3.160000e+00
 SC6er  X3vh  1 4.300000e-01    3.160000e+00
 SC6er  X2vh  1 4.300000e-01    3.160000e+00
 SC6er  X1vh  1 4.300000e-01    3.160000e+00
 SC5er  C4vh  1 4.300000e-01    3.160000e+00
 SC5er  C3vh  1 4.300000e-01    2.930000e+00
 SC5er  C2vh  1 4.300000e-01    2.920000e+00
 SC5er  C1vh  1 4.300000e-01    2.920000e+00
 SC5er  X4vh  1 4.300000e-01    2.930000e+00
 SC5er  X3vh  1 4.300000e-01    2.930000e+00
 SC5er  X2vh  1 4.300000e-01    2.930000e+00
 SC5er  X1vh  1 4.300000e-01    3.160000e+00
 SC4er  C3vh  1 4.300000e-01    3.160000e+00
 SC4er  C2vh  1 4.300000e-01    2.930000e+00
 SC4er  C1vh  1 4.300000e-01    2.920000e+00
 SC4er  X4vh  1 4.300000e-01    2.930000e+00
 SC4er  X3vh  1 4.300000e-01    2.930000e+00
 SC4er  X2vh  1 4.300000e-01    2.930000e+00
 SC4er  X1vh  1 4.300000e-01    3.160000e+00
 SC3er  C2vh  1 4.300000e-01    3.160000e+00
 SC3er  C1vh  1 4.300000e-01    3.160000e+00
 SC3er  X4vh  1 4.300000e-01    2.930000e+00
 SC3er  X3vh  1 4.300000e-01    2.930000e+00
 SC3er  X2vh  1 4.300000e-01    2.930000e+00
 SC3er  X1vh  1 4.300000e-01    3.160000e+00
 SC2er  C1vh  1 4.300000e-01    3.380000e+00
 SC2er  X4vh  1 4.300000e-01    2.530000e+00
 SC2er  X3vh  1 4.300000e-01    2.930000e+00
 SC2er  X2vh  1 4.300000e-01    2.930000e+00
 SC2er  X1vh  1 4.300000e-01    2.930000e+00
 SC1er  X4vh  1 4.300000e-01    2.530000e+00
 SC1er  X3vh  1 4.300000e-01    2.930000e+00
 SC1er  X2vh  1 4.300000e-01    2.930000e+00
 SC1er  X1vh  1 4.300000e-01    2.930000e+00
 SX4er  X3vh  1 4.300000e-01    3.160000e+00
 SX4er  X2vh  1 4.300000e-01    3.160000e+00
 SX4er  X1vh  1 4.300000e-01    3.160000e+00
 SX3er  X2vh  1 4.300000e-01    3.380000e+00
 SX3er  X1vh  1 4.300000e-01    3.380000e+00
 SX2er  X1vh  1 4.300000e-01    3.380000e+00
  C6er SC5vr  1 4.300000e-01    2.930000e+00
  C6er SC4vr  1 4.300000e-01    2.930000e+00
  C6er SC3vr  1 4.300000e-01    2.920000e+00
  C6er SC2vr  1 4.300000e-01    2.530000e+00
  C6er SC1vr  1 4.300000e-01    2.320000e+00
  C6er SX4vr  1 4.300000e-01    2.930000e+00
  C6er SX3vr  1 4.300000e-01    2.930000e+00
  C6er SX2vr  1 4.300000e-01    2.930000e+00
  C6er SX1vr  1 4.300000e-01    2.930000e+00
  C5er SC4vr  1 4.300000e-01    2.930000e+00
  C5er SC3vr  1 4.300000e-01    2.920000e+00
  C5er SC2vr  1 4.300000e-01    2.530000e+00
  C5er SC1vr  1 4.300000e-01    2.530000e+00
  C5er SX4vr  1 4.300000e-01    2.920000e+00
  C5er SX3vr  1 4.300000e-01    2.920000e+00
  C5er SX2vr  1 4.300000e-01    2.920000e+00
  C5er SX1vr  1 4.300000e-01    2.930000e+00
  C4er SC3vr  1 4.300000e-01    2.930000e+00
  C4er SC2vr  1 4.300000e-01    2.920000e+00
  C4er SC1vr  1 4.300000e-01    2.530000e+00
  C4er SX4vr  1 4.300000e-01    2.920000e+00
  C4er SX3vr  1 4.300000e-01    2.920000e+00
  C4er SX2vr  1 4.300000e-01    2.920000e+00
  C4er SX1vr  1 4.300000e-01    2.930000e+00
  C3er SC2vr  1 4.300000e-01    2.930000e+00
  C3er SC1vr  1 4.300000e-01    2.930000e+00
  C3er SX4vr  1 4.300000e-01    2.920000e+00
  C3er SX3vr  1 4.300000e-01    2.920000e+00
  C3er SX2vr  1 4.300000e-01    2.920000e+00
  C3er SX1vr  1 4.300000e-01    2.930000e+00
  C2er SC1vr  1 4.300000e-01    3.160000e+00
  C2er SX4vr  1 4.300000e-01    2.320000e+00
  C2er SX3vr  1 4.300000e-01    2.920000e+00
  C2er SX2vr  1 4.300000e-01    2.920000e+00
  C2er SX1vr  1 4.300000e-01    2.920000e+00
  C1er SX4vr  1 4.300000e-01    2.320000e+00
  C1er SX3vr  1 4.300000e-01    2.920000e+00
  C1er SX2vr  1 4.300000e-01    2.920000e+00
  C1er SX1vr  1 4.300000e-01    2.920000e+00
  X4er SX3vr  1 4.300000e-01    2.930000e+00
  X4er SX2vr  1 4.300000e-01    2.930000e+00
  X4er SX1vr  1 4.300000e-01    2.930000e+00
  X3er SX2vr  1 4.300000e-01    3.160000e+00
  X3er SX1vr  1 4.300000e-01    3.160000e+00
  X2er SX1vr  1 4.300000e-01    3.160000e+00
 SC6er  C5vr  1 4.300000e-01    2.930000e+00
 SC6er  C4vr  1 4.300000e-01    2.930000e+00
 SC6er  C3vr  1 4.300000e-01    2.920000e+00
 SC6er  C2vr  1 4.300000e-01    2.530000e+00
 SC6er  C1vr  1 4.300000e-01    2.320000e+00
 SC6er  X4vr  1 4.300000e-01    2.930000e+00
 SC6er  X3vr  1 4.300000e-01    2.930000e+00
 SC6er  X2vr  1 4.300000e-01    2.930000e+00
 SC6er  X1vr  1 4.300000e-01    2.930000e+00
 SC5er  C4vr  1 4.300000e-01    2.930000e+00
 SC5er  C3vr  1 4.300000e-01    2.920000e+00
 SC5er  C2vr  1 4.300000e-01    2.530000e+00
 SC5er  C1vr  1 4.300000e-01    2.530000e+00
 SC5er  X4vr  1 4.300000e-01    2.920000e+00
 SC5er  X3vr  1 4.300000e-01    2.920000e+00
 SC5er  X2vr  1 4.300000e-01    2.920000e+00
 SC5er  X1vr  1 4.300000e-01    2.930000e+00
 SC4er  C3vr  1 4.300000e-01    2.930000e+00
 SC4er  C2vr  1 4.300000e-01    2.920000e+00
 SC4er  C1vr  1 4.300000e-01    2.530000e+00
 SC4er  X4vr  1 4.300000e-01    2.920000e+00
 SC4er  X3vr  1 4.300000e-01    2.920000e+00
 SC4er  X2vr  1 4.300000e-01    2.920000e+00
 SC4er  X1vr  1 4.300000e-01    2.930000e+00
 SC3er  C2vr  1 4.300000e-01    2.930000e+00
 SC3er  C1vr  1 4.300000e-01    2.930000e+00
 SC3er  X4vr  1 4.300000e-01    2.920000e+00
 SC3er  X3vr  1 4.300000e-01    2.920000e+00
 SC3er  X2vr  1 4.300000e-01    2.920000e+00
 SC3er  X1vr  1 4.300000e-01    2.930000e+00
 SC2er  C1vr  1 4.300000e-01    3.160000e+00
 SC2er  X4vr  1 4.300000e-01    2.320000e+00
 SC2er  X3vr  1 4.300000e-01    2.920000e+00
 SC2er  X2vr  1 4.300000e-01    2.920000e+00
 SC2er  X1vr  1 4.300000e-01    2.920000e+00
 SC1er  X4vr  1 4.300000e-01    2.320000e+00
 SC1er  X3vr  1 4.300000e-01    2.920000e+00
 SC1er  X2vr  1 4.300000e-01    2.920000e+00
 SC1er  X1vr  1 4.300000e-01    2.920000e+00
 SX4er  X3vr  1 4.300000e-01    2.930000e+00
 SX4er  X2vr  1 4.300000e-01    2.930000e+00
 SX4er  X1vr  1 4.300000e-01    2.930000e+00
 SX3er  X2vr  1 4.300000e-01    3.160000e+00
 SX3er  X1vr  1 4.300000e-01    3.160000e+00
 SX2er  X1vr  1 4.300000e-01    3.160000e+00
  TC6v  TC6e  1 3.400000e-01    2.500000e+00
  TC6v  TC5e  1 3.400000e-01    2.280000e+00
  TC6v  TC4e  1 3.400000e-01    2.280000e+00
  TC6v  TC3e  1 3.400000e-01    2.020000e+00
  TC6v  TC2e  1 3.400000e-01    1.770000e+00
  TC6v  TC1e  1 3.400000e-01    1.510000e+00
  TC6v  TX4e  1 3.400000e-01    2.280000e+00
  TC6v  TX3e  1 3.400000e-01    2.280000e+00
  TC6v  TX2e  1 3.400000e-01    2.280000e+00
  TC6v  TX1e  1 3.400000e-01    2.280000e+00
  TC5v  TC5e  1 3.400000e-01    2.280000e+00
  TC5v  TC4e  1 3.400000e-01    2.280000e+00
  TC5v  TC3e  1 3.400000e-01    2.020000e+00
  TC5v  TC2e  1 3.400000e-01    1.770000e+00
  TC5v  TC1e  1 3.400000e-01    1.770000e+00
  TC5v  TX4e  1 3.400000e-01    2.020000e+00
  TC5v  TX3e  1 3.400000e-01    2.020000e+00
  TC5v  TX2e  1 3.400000e-01    2.020000e+00
  TC5v  TX1e  1 3.400000e-01    2.280000e+00
  TC4v  TC4e  1 3.400000e-01    2.280000e+00
  TC4v  TC3e  1 3.400000e-01    2.280000e+00
  TC4v  TC2e  1 3.400000e-01    2.020000e+00
  TC4v  TC1e  1 3.400000e-01    1.770000e+00
  TC4v  TX4e  1 3.400000e-01    2.020000e+00
  TC4v  TX3e  1 3.400000e-01    2.020000e+00
  TC4v  TX2e  1 3.400000e-01    2.020000e+00
  TC4v  TX1e  1 3.400000e-01    2.280000e+00
  TC3v  TC3e  1 3.400000e-01    2.280000e+00
  TC3v  TC2e  1 3.400000e-01    2.280000e+00
  TC3v  TC1e  1 3.400000e-01    2.280000e+00
  TC3v  TX4e  1 3.400000e-01    2.020000e+00
  TC3v  TX3e  1 3.400000e-01    2.020000e+00
  TC3v  TX2e  1 3.400000e-01    2.020000e+00
  TC3v  TX1e  1 3.400000e-01    2.280000e+00
  TC2v  TC2e  1 3.400000e-01    2.280000e+00
  TC2v  TC1e  1 3.400000e-01    2.500000e+00
  TC2v  TX4e  1 3.400000e-01    1.510000e+00
  TC2v  TX3e  1 3.400000e-01    2.020000e+00
  TC2v  TX2e  1 3.400000e-01    2.020000e+00
  TC2v  TX1e  1 3.400000e-01    2.020000e+00
  TC1v  TC1e  1 3.400000e-01    2.280000e+00
  TC1v  TX4e  1 3.400000e-01    1.510000e+00
  TC1v  TX3e  1 3.400000e-01    2.020000e+00
  TC1v  TX2e  1 3.400000e-01    2.020000e+00
  TC1v  TX1e  1 3.400000e-01    2.020000e+00
  TX4v  TX4e  1 3.400000e-01    2.280000e+00
  TX4v  TX3e  1 3.400000e-01    2.280000e+00
  TX4v  TX2e  1 3.400000e-01    2.280000e+00
  TX4v  TX1e  1 3.400000e-01    2.280000e+00
  TX3v  TX3e  1 3.400000e-01    2.280000e+00
  TX3v  TX2e  1 3.400000e-01    2.500000e+00
  TX3v  TX1e  1 3.400000e-01    2.500000e+00
  TX2v  TX2e  1 3.400000e-01    2.500000e+00
  TX2v  TX1e  1 3.400000e-01    2.500000e+00
  TX1v  TX1e  1 3.400000e-01    2.740000e+00
  TC6v TX1eq  1 3.400000e-01    2.740000e+00
  TC5v TX1eq  1 3.400000e-01    2.740000e+00
  TC4v TX1eq  1 3.400000e-01    2.740000e+00
  TC3v TX1eq  1 3.400000e-01    2.740000e+00
  TC2v TX1eq  1 3.400000e-01    2.500000e+00
  TC1v TX1eq  1 3.400000e-01    2.500000e+00
  TX4v TX1eq  1 3.400000e-01    2.740000e+00
  TX3v TX1eq  1 3.400000e-01    2.990000e+00
  TX2v TX1eq  1 3.400000e-01    2.990000e+00
  TX1v TX1eq  1 3.400000e-01    3.220000e+00
  TC6v TX2eq  1 3.400000e-01    2.740000e+00
  TC5v TX2eq  1 3.400000e-01    2.500000e+00
  TC4v TX2eq  1 3.400000e-01    2.500000e+00
  TC3v TX2eq  1 3.400000e-01    2.500000e+00
  TC2v TX2eq  1 3.400000e-01    2.500000e+00
  TC1v TX2eq  1 3.400000e-01    2.500000e+00
  TX4v TX2eq  1 3.400000e-01    2.740000e+00
  TX3v TX2eq  1 3.400000e-01    2.990000e+00
  TX2v TX2eq  1 3.400000e-01    2.990000e+00
  TC6v TX3eq  1 3.400000e-01    2.740000e+00
  TC5v TX3eq  1 3.400000e-01    2.500000e+00
  TC4v TX3eq  1 3.400000e-01    2.500000e+00
  TC3v TX3eq  1 3.400000e-01    2.500000e+00
  TC2v TX3eq  1 3.400000e-01    2.500000e+00
  TC1v TX3eq  1 3.400000e-01    2.500000e+00
  TX4v TX3eq  1 3.400000e-01    2.740000e+00
  TX3v TX3eq  1 3.400000e-01    2.740000e+00
  TC6v TX4eq  1 3.400000e-01    2.740000e+00
  TC5v TX4eq  1 3.400000e-01    2.500000e+00
  TC4v TX4eq  1 3.400000e-01    2.500000e+00
  TC3v TX4eq  1 3.400000e-01    2.500000e+00
  TC2v TX4eq  1 3.400000e-01    2.020000e+00
  TC1v TX4eq  1 3.400000e-01    2.020000e+00
  TX4v TX4eq  1 3.400000e-01    2.740000e+00
  TC6v TC1eq  1 3.400000e-01    2.020000e+00
  TC5v TC1eq  1 3.400000e-01    2.280000e+00
  TC4v TC1eq  1 3.400000e-01    2.280000e+00
  TC3v TC1eq  1 3.400000e-01    2.740000e+00
  TC2v TC1eq  1 3.400000e-01    2.990000e+00
  TC1v TC1eq  1 3.400000e-01    2.740000e+00
  TC6v TC2eq  1 3.400000e-01    2.280000e+00
  TC5v TC2eq  1 3.400000e-01    2.280000e+00
  TC4v TC2eq  1 3.400000e-01    2.500000e+00
  TC3v TC2eq  1 3.400000e-01    2.740000e+00
  TC2v TC2eq  1 3.400000e-01    2.740000e+00
  TC6v TC3eq  1 3.400000e-01    2.500000e+00
  TC5v TC3eq  1 3.400000e-01    2.500000e+00
  TC4v TC3eq  1 3.400000e-01    2.740000e+00
  TC3v TC3eq  1 3.400000e-01    2.740000e+00
  TC6v TC4eq  1 3.400000e-01    2.740000e+00
  TC5v TC4eq  1 3.400000e-01    2.740000e+00
  TC4v TC4eq  1 3.400000e-01    2.740000e+00
  TC6v TC5eq  1 3.400000e-01    2.740000e+00
  TC5v TC5eq  1 3.400000e-01    2.740000e+00
  TC6v TC6eq  1 3.400000e-01    2.990000e+00
  TC6v TX1eh  1 3.400000e-01    2.280000e+00
  TC5v TX1eh  1 3.400000e-01    2.280000e+00
  TC4v TX1eh  1 3.400000e-01    2.280000e+00
  TC3v TX1eh  1 3.400000e-01    2.280000e+00
  TC2v TX1eh  1 3.400000e-01    2.020000e+00
  TC1v TX1eh  1 3.400000e-01    2.020000e+00
  TX4v TX1eh  1 3.400000e-01    2.280000e+00
  TX3v TX1eh  1 3.400000e-01    2.500000e+00
  TX2v TX1eh  1 3.400000e-01    2.500000e+00
  TX1v TX1eh  1 3.400000e-01    2.740000e+00
  TC6v TX2eh  1 3.400000e-01    2.280000e+00
  TC5v TX2eh  1 3.400000e-01    2.020000e+00
  TC4v TX2eh  1 3.400000e-01    2.020000e+00
  TC3v TX2eh  1 3.400000e-01    2.020000e+00
  TC2v TX2eh  1 3.400000e-01    2.020000e+00
  TC1v TX2eh  1 3.400000e-01    2.020000e+00
  TX4v TX2eh  1 3.400000e-01    2.280000e+00
  TX3v TX2eh  1 3.400000e-01    2.500000e+00
  TX2v TX2eh  1 3.400000e-01    2.500000e+00
  TC6v TX3eh  1 3.400000e-01    2.280000e+00
  TC5v TX3eh  1 3.400000e-01    2.020000e+00
  TC4v TX3eh  1 3.400000e-01    2.020000e+00
  TC3v TX3eh  1 3.400000e-01    2.020000e+00
  TC2v TX3eh  1 3.400000e-01    2.020000e+00
  TC1v TX3eh  1 3.400000e-01    2.020000e+00
  TX4v TX3eh  1 3.400000e-01    2.280000e+00
  TX3v TX3eh  1 3.400000e-01    2.280000e+00
  TC6v TX4eh  1 3.400000e-01    2.280000e+00
  TC5v TX4eh  1 3.400000e-01    2.020000e+00
  TC4v TX4eh  1 3.400000e-01    2.020000e+00
  TC3v TX4eh  1 3.400000e-01    2.020000e+00
  TC2v TX4eh  1 3.400000e-01    1.510000e+00
  TC1v TX4eh  1 3.400000e-01    1.510000e+00
  TX4v TX4eh  1 3.400000e-01    2.280000e+00
  TC6v TC1eh  1 3.400000e-01    1.510000e+00
  TC5v TC1eh  1 3.400000e-01    1.770000e+00
  TC4v TC1eh  1 3.400000e-01    1.770000e+00
  TC3v TC1eh  1 3.400000e-01    2.280000e+00
  TC2v TC1eh  1 3.400000e-01    2.500000e+00
  TC1v TC1eh  1 3.400000e-01    2.280000e+00
  TC6v TC2eh  1 3.400000e-01    1.770000e+00
  TC5v TC2eh  1 3.400000e-01    1.770000e+00
  TC4v TC2eh  1 3.400000e-01    2.020000e+00
  TC3v TC2eh  1 3.400000e-01    2.280000e+00
  TC2v TC2eh  1 3.400000e-01    2.280000e+00
  TC6v TC3eh  1 3.400000e-01    2.020000e+00
  TC5v TC3eh  1 3.400000e-01    2.020000e+00
  TC4v TC3eh  1 3.400000e-01    2.280000e+00
  TC3v TC3eh  1 3.400000e-01    2.280000e+00
  TC6v TC4eh  1 3.400000e-01    2.280000e+00
  TC5v TC4eh  1 3.400000e-01    2.280000e+00
  TC4v TC4eh  1 3.400000e-01    2.280000e+00
  TC6v TC5eh  1 3.400000e-01    2.280000e+00
  TC5v TC5eh  1 3.400000e-01    2.280000e+00
  TC6v TC6eh  1 3.400000e-01    2.500000e+00
  TC6v TX1er  1 3.400000e-01    2.280000e+00
  TC5v TX1er  1 3.400000e-01    2.280000e+00
  TC4v TX1er  1 3.400000e-01    2.280000e+00
  TC3v TX1er  1 3.400000e-01    2.280000e+00
  TC2v TX1er  1 3.400000e-01    2.020000e+00
  TC1v TX1er  1 3.400000e-01    2.020000e+00
  TX4v TX1er  1 3.400000e-01    2.280000e+00
  TX3v TX1er  1 3.400000e-01    2.500000e+00
  TX2v TX1er  1 3.400000e-01    2.500000e+00
  TX1v TX1er  1 3.400000e-01    2.740000e+00
  TC6v TX2er  1 3.400000e-01    2.280000e+00
  TC5v TX2er  1 3.400000e-01    2.020000e+00
  TC4v TX2er  1 3.400000e-01    2.020000e+00
  TC3v TX2er  1 3.400000e-01    2.020000e+00
  TC2v TX2er  1 3.400000e-01    2.020000e+00
  TC1v TX2er  1 3.400000e-01    2.020000e+00
  TX4v TX2er  1 3.400000e-01    2.280000e+00
  TX3v TX2er  1 3.400000e-01    2.500000e+00
  TX2v TX2er  1 3.400000e-01    2.500000e+00
  TC6v TX3er  1 3.400000e-01    2.280000e+00
  TC5v TX3er  1 3.400000e-01    2.020000e+00
  TC4v TX3er  1 3.400000e-01    2.020000e+00
  TC3v TX3er  1 3.400000e-01    2.020000e+00
  TC2v TX3er  1 3.400000e-01    2.020000e+00
  TC1v TX3er  1 3.400000e-01    2.020000e+00
  TX4v TX3er  1 3.400000e-01    2.280000e+00
  TX3v TX3er  1 3.400000e-01    2.280000e+00
  TC6v TX4er  1 3.400000e-01    2.280000e+00
  TC5v TX4er  1 3.400000e-01    2.020000e+00
  TC4v TX4er  1 3.400000e-01    2.020000e+00
  TC3v TX4er  1 3.400000e-01    2.020000e+00
  TC2v TX4er  1 3.400000e-01    1.510000e+00
  TC1v TX4er  1 3.400000e-01    1.510000e+00
  TX4v TX4er  1 3.400000e-01    2.280000e+00
  TC6v TC1er  1 3.400000e-01    1.510000e+00
  TC5v TC1er  1 3.400000e-01    1.770000e+00
  TC4v TC1er  1 3.400000e-01    1.770000e+00
  TC3v TC1er  1 3.400000e-01    2.280000e+00
  TC2v TC1er  1 3.400000e-01    2.500000e+00
  TC1v TC1er  1 3.400000e-01    2.280000e+00
  TC6v TC2er  1 3.400000e-01    1.770000e+00
  TC5v TC2er  1 3.400000e-01    1.770000e+00
  TC4v TC2er  1 3.400000e-01    2.020000e+00
  TC3v TC2er  1 3.400000e-01    2.280000e+00
  TC2v TC2er  1 3.400000e-01    2.280000e+00
  TC6v TC3er  1 3.400000e-01    2.020000e+00
  TC5v TC3er  1 3.400000e-01    2.020000e+00
  TC4v TC3er  1 3.400000e-01    2.280000e+00
  TC3v TC3er  1 3.400000e-01    2.280000e+00
  TC6v TC4er  1 3.400000e-01    2.280000e+00
  TC5v TC4er  1 3.400000e-01    2.280000e+00
  TC4v TC4er  1 3.400000e-01    2.280000e+00
  TC6v TC5er  1 3.400000e-01    2.280000e+00
  TC5v TC5er  1 3.400000e-01    2.280000e+00
  TC6v TC6er  1 3.400000e-01    2.500000e+00
 TC6vq  TC6e  1 3.400000e-01    2.990000e+00
 TC6vq  TC5e  1 3.400000e-01    2.740000e+00
 TC6vq  TC4e  1 3.400000e-01    2.740000e+00
 TC6vq  TC3e  1 3.400000e-01    2.500000e+00
 TC6vq  TC2e  1 3.400000e-01    2.280000e+00
 TC6vq  TC1e  1 3.400000e-01    2.020000e+00
 TC6vq  TX4e  1 3.400000e-01    2.740000e+00
 TC6vq  TX3e  1 3.400000e-01    2.740000e+00
 TC6vq  TX2e  1 3.400000e-01    2.740000e+00
 TC6vq  TX1e  1 3.400000e-01    2.740000e+00
 TC5vq  TC5e  1 3.400000e-01    2.740000e+00
 TC5vq  TC4e  1 3.400000e-01    2.740000e+00
 TC5vq  TC3e  1 3.400000e-01    2.500000e+00
 TC5vq  TC2e  1 3.400000e-01    2.280000e+00
 TC5vq  TC1e  1 3.400000e-01    2.280000e+00
 TC5vq  TX4e  1 3.400000e-01    2.500000e+00
 TC5vq  TX3e  1 3.400000e-01    2.500000e+00
 TC5vq  TX2e  1 3.400000e-01    2.500000e+00
 TC5vq  TX1e  1 3.400000e-01    2.740000e+00
 TC4vq  TC4e  1 3.400000e-01    2.740000e+00
 TC4vq  TC3e  1 3.400000e-01    2.740000e+00
 TC4vq  TC2e  1 3.400000e-01    2.500000e+00
 TC4vq  TC1e  1 3.400000e-01    2.280000e+00
 TC4vq  TX4e  1 3.400000e-01    2.500000e+00
 TC4vq  TX3e  1 3.400000e-01    2.500000e+00
 TC4vq  TX2e  1 3.400000e-01    2.500000e+00
 TC4vq  TX1e  1 3.400000e-01    2.740000e+00
 TC3vq  TC3e  1 3.400000e-01    2.740000e+00
 TC3vq  TC2e  1 3.400000e-01    2.740000e+00
 TC3vq  TC1e  1 3.400000e-01    2.740000e+00
 TC3vq  TX4e  1 3.400000e-01    2.500000e+00
 TC3vq  TX3e  1 3.400000e-01    2.500000e+00
 TC3vq  TX2e  1 3.400000e-01    2.500000e+00
 TC3vq  TX1e  1 3.400000e-01    2.740000e+00
 TC2vq  TC2e  1 3.400000e-01    2.740000e+00
 TC2vq  TC1e  1 3.400000e-01    2.990000e+00
 TC2vq  TX4e  1 3.400000e-01    2.020000e+00
 TC2vq  TX3e  1 3.400000e-01    2.500000e+00
 TC2vq  TX2e  1 3.400000e-01    2.500000e+00
 TC2vq  TX1e  1 3.400000e-01    2.500000e+00
 TC1vq  TC1e  1 3.400000e-01    2.740000e+00
 TC1vq  TX4e  1 3.400000e-01    2.020000e+00
 TC1vq  TX3e  1 3.400000e-01    2.500000e+00
 TC1vq  TX2e  1 3.400000e-01    2.500000e+00
 TC1vq  TX1e  1 3.400000e-01    2.500000e+00
 TX4vq  TX4e  1 3.400000e-01    2.740000e+00
 TX4vq  TX3e  1 3.400000e-01    2.740000e+00
 TX4vq  TX2e  1 3.400000e-01    2.740000e+00
 TX4vq  TX1e  1 3.400000e-01    2.740000e+00
 TX3vq  TX3e  1 3.400000e-01    2.740000e+00
 TX3vq  TX2e  1 3.400000e-01    2.990000e+00
 TX3vq  TX1e  1 3.400000e-01    2.990000e+00
 TX2vq  TX2e  1 3.400000e-01    2.990000e+00
 TX2vq  TX1e  1 3.400000e-01    2.990000e+00
 TX1vq  TX1e  1 3.400000e-01    3.220000e+00
 TC6vq TC6eq  1 3.400000e-01    2.990000e+00
 TC6vq TC5eq  1 3.400000e-01    2.740000e+00
 TC6vq TC4eq  1 3.400000e-01    2.740000e+00
 TC6vq TC3eq  1 3.400000e-01    2.500000e+00
 TC6vq TC2eq  1 3.400000e-01    2.280000e+00
 TC6vq TC1eq  1 3.400000e-01    2.020000e+00
 TC6vq TX4eq  1 3.400000e-01    2.740000e+00
 TC6vq TX3eq  1 3.400000e-01    2.740000e+00
 TC6vq TX2eq  1 3.400000e-01    2.740000e+00
 TC6vq TX1eq  1 3.400000e-01    2.740000e+00
 TC5vq TC5eq  1 3.400000e-01    2.740000e+00
 TC5vq TC4eq  1 3.400000e-01    2.740000e+00
 TC5vq TC3eq  1 3.400000e-01    2.500000e+00
 TC5vq TC2eq  1 3.400000e-01    2.280000e+00
 TC5vq TC1eq  1 3.400000e-01    2.280000e+00
 TC5vq TX4eq  1 3.400000e-01    2.500000e+00
 TC5vq TX3eq  1 3.400000e-01    2.500000e+00
 TC5vq TX2eq  1 3.400000e-01    2.500000e+00
 TC5vq TX1eq  1 3.400000e-01    2.740000e+00
 TC4vq TC4eq  1 3.400000e-01    2.740000e+00
 TC4vq TC3eq  1 3.400000e-01    2.740000e+00
 TC4vq TC2eq  1 3.400000e-01    2.500000e+00
 TC4vq TC1eq  1 3.400000e-01    2.280000e+00
 TC4vq TX4eq  1 3.400000e-01    2.500000e+00
 TC4vq TX3eq  1 3.400000e-01    2.500000e+00
 TC4vq TX2eq  1 3.400000e-01    2.500000e+00
 TC4vq TX1eq  1 3.400000e-01    2.740000e+00
 TC3vq TC3eq  1 3.400000e-01    2.740000e+00
 TC3vq TC2eq  1 3.400000e-01    2.740000e+00
 TC3vq TC1eq  1 3.400000e-01    2.740000e+00
 TC3vq TX4eq  1 3.400000e-01    2.500000e+00
 TC3vq TX3eq  1 3.400000e-01    2.500000e+00
 TC3vq TX2eq  1 3.400000e-01    2.500000e+00
 TC3vq TX1eq  1 3.400000e-01    2.740000e+00
 TC2vq TC2eq  1 3.400000e-01    2.740000e+00
 TC2vq TC1eq  1 3.400000e-01    2.990000e+00
 TC2vq TX4eq  1 3.400000e-01    2.020000e+00
 TC2vq TX3eq  1 3.400000e-01    2.500000e+00
 TC2vq TX2eq  1 3.400000e-01    2.500000e+00
 TC2vq TX1eq  1 3.400000e-01    2.500000e+00
 TC1vq TC1eq  1 3.400000e-01    2.740000e+00
 TC1vq TX4eq  1 3.400000e-01    2.020000e+00
 TC1vq TX3eq  1 3.400000e-01    2.500000e+00
 TC1vq TX2eq  1 3.400000e-01    2.500000e+00
 TC1vq TX1eq  1 3.400000e-01    2.500000e+00
 TX4vq TX4eq  1 3.400000e-01    2.740000e+00
 TX4vq TX3eq  1 3.400000e-01    2.740000e+00
 TX4vq TX2eq  1 3.400000e-01    2.740000e+00
 TX4vq TX1eq  1 3.400000e-01    2.740000e+00
 TX3vq TX3eq  1 3.400000e-01    2.740000e+00
 TX3vq TX2eq  1 3.400000e-01    2.990000e+00
 TX3vq TX1eq  1 3.400000e-01    2.990000e+00
 TX2vq TX2eq  1 3.400000e-01    2.990000e+00
 TX2vq TX1eq  1 3.400000e-01    2.990000e+00
 TX1vq TX1eq  1 3.400000e-01    3.220000e+00
 TC6vq TC6eh  1 3.400000e-01    2.990000e+00
 TC6vq TC5eh  1 3.400000e-01    2.740000e+00
 TC5vq TC5eh  1 3.400000e-01    2.740000e+00
 TC6vq TC4eh  1 3.400000e-01    2.740000e+00
 TC5vq TC4eh  1 3.400000e-01    2.740000e+00
 TC4vq TC4eh  1 3.400000e-01    2.740000e+00
 TC6vq TC3eh  1 3.400000e-01    2.500000e+00
 TC5vq TC3eh  1 3.400000e-01    2.500000e+00
 TC4vq TC3eh  1 3.400000e-01    2.740000e+00
 TC3vq TC3eh  1 3.400000e-01    2.740000e+00
 TC6vq TC2eh  1 3.400000e-01    2.280000e+00
 TC5vq TC2eh  1 3.400000e-01    2.280000e+00
 TC4vq TC2eh  1 3.400000e-01    2.500000e+00
 TC3vq TC2eh  1 3.400000e-01    2.740000e+00
 TC2vq TC2eh  1 3.400000e-01    2.740000e+00
 TC6vq TC1eh  1 3.400000e-01    2.020000e+00
 TC5vq TC1eh  1 3.400000e-01    2.280000e+00
 TC4vq TC1eh  1 3.400000e-01    2.280000e+00
 TC3vq TC1eh  1 3.400000e-01    2.740000e+00
 TC2vq TC1eh  1 3.400000e-01    2.990000e+00
 TC1vq TC1eh  1 3.400000e-01    2.740000e+00
 TC6vq TX4eh  1 3.400000e-01    2.740000e+00
 TC5vq TX4eh  1 3.400000e-01    2.500000e+00
 TC4vq TX4eh  1 3.400000e-01    2.500000e+00
 TC3vq TX4eh  1 3.400000e-01    2.500000e+00
 TC2vq TX4eh  1 3.400000e-01    2.020000e+00
 TC1vq TX4eh  1 3.400000e-01    2.020000e+00
 TX4vq TX4eh  1 3.400000e-01    2.740000e+00
 TC6vq TX3eh  1 3.400000e-01    2.740000e+00
 TC5vq TX3eh  1 3.400000e-01    2.500000e+00
 TC4vq TX3eh  1 3.400000e-01    2.500000e+00
 TC3vq TX3eh  1 3.400000e-01    2.500000e+00
 TC2vq TX3eh  1 3.400000e-01    2.500000e+00
 TC1vq TX3eh  1 3.400000e-01    2.500000e+00
 TX4vq TX3eh  1 3.400000e-01    2.740000e+00
 TX3vq TX3eh  1 3.400000e-01    2.740000e+00
 TC6vq TX2eh  1 3.400000e-01    2.740000e+00
 TC5vq TX2eh  1 3.400000e-01    2.500000e+00
 TC4vq TX2eh  1 3.400000e-01    2.500000e+00
 TC3vq TX2eh  1 3.400000e-01    2.500000e+00
 TC2vq TX2eh  1 3.400000e-01    2.500000e+00
 TC1vq TX2eh  1 3.400000e-01    2.500000e+00
 TX4vq TX2eh  1 3.400000e-01    2.740000e+00
 TX3vq TX2eh  1 3.400000e-01    2.990000e+00
 TX2vq TX2eh  1 3.400000e-01    2.990000e+00
 TC6vq TX1eh  1 3.400000e-01    2.740000e+00
 TC5vq TX1eh  1 3.400000e-01    2.740000e+00
 TC4vq TX1eh  1 3.400000e-01    2.740000e+00
 TC3vq TX1eh  1 3.400000e-01    2.740000e+00
 TC2vq TX1eh  1 3.400000e-01    2.500000e+00
 TC1vq TX1eh  1 3.400000e-01    2.500000e+00
 TX4vq TX1eh  1 3.400000e-01    2.740000e+00
 TX3vq TX1eh  1 3.400000e-01    2.990000e+00
 TX2vq TX1eh  1 3.400000e-01    2.990000e+00
 TX1vq TX1eh  1 3.400000e-01    3.220000e+00
 TC6vq TC6er  1 3.400000e-01    2.990000e+00
 TC6vq TC5er  1 3.400000e-01    2.740000e+00
 TC5vq TC5er  1 3.400000e-01    2.740000e+00
 TC6vq TC4er  1 3.400000e-01    2.740000e+00
 TC5vq TC4er  1 3.400000e-01    2.740000e+00
 TC4vq TC4er  1 3.400000e-01    2.740000e+00
 TC6vq TC3er  1 3.400000e-01    2.500000e+00
 TC5vq TC3er  1 3.400000e-01    2.500000e+00
 TC4vq TC3er  1 3.400000e-01    2.740000e+00
 TC3vq TC3er  1 3.400000e-01    2.740000e+00
 TC6vq TC2er  1 3.400000e-01    2.280000e+00
 TC5vq TC2er  1 3.400000e-01    2.280000e+00
 TC4vq TC2er  1 3.400000e-01    2.500000e+00
 TC3vq TC2er  1 3.400000e-01    2.740000e+00
 TC2vq TC2er  1 3.400000e-01    2.740000e+00
 TC6vq TC1er  1 3.400000e-01    2.020000e+00
 TC5vq TC1er  1 3.400000e-01    2.280000e+00
 TC4vq TC1er  1 3.400000e-01    2.280000e+00
 TC3vq TC1er  1 3.400000e-01    2.740000e+00
 TC2vq TC1er  1 3.400000e-01    2.990000e+00
 TC1vq TC1er  1 3.400000e-01    2.740000e+00
 TC6vq TX4er  1 3.400000e-01    2.740000e+00
 TC5vq TX4er  1 3.400000e-01    2.500000e+00
 TC4vq TX4er  1 3.400000e-01    2.500000e+00
 TC3vq TX4er  1 3.400000e-01    2.500000e+00
 TC2vq TX4er  1 3.400000e-01    2.020000e+00
 TC1vq TX4er  1 3.400000e-01    2.020000e+00
 TX4vq TX4er  1 3.400000e-01    2.740000e+00
 TC6vq TX3er  1 3.400000e-01    2.740000e+00
 TC5vq TX3er  1 3.400000e-01    2.500000e+00
 TC4vq TX3er  1 3.400000e-01    2.500000e+00
 TC3vq TX3er  1 3.400000e-01    2.500000e+00
 TC2vq TX3er  1 3.400000e-01    2.500000e+00
 TC1vq TX3er  1 3.400000e-01    2.500000e+00
 TX4vq TX3er  1 3.400000e-01    2.740000e+00
 TX3vq TX3er  1 3.400000e-01    2.740000e+00
 TC6vq TX2er  1 3.400000e-01    2.740000e+00
 TC5vq TX2er  1 3.400000e-01    2.500000e+00
 TC4vq TX2er  1 3.400000e-01    2.500000e+00
 TC3vq TX2er  1 3.400000e-01    2.500000e+00
 TC2vq TX2er  1 3.400000e-01    2.500000e+00
 TC1vq TX2er  1 3.400000e-01    2.500000e+00
 TX4vq TX2er  1 3.400000e-01    2.740000e+00
 TX3vq TX2er  1 3.400000e-01    2.990000e+00
 TX2vq TX2er  1 3.400000e-01    2.990000e+00
 TC6vq TX1er  1 3.400000e-01    2.740000e+00
 TC5vq TX1er  1 3.400000e-01    2.740000e+00
 TC4vq TX1er  1 3.400000e-01    2.740000e+00
 TC3vq TX1er  1 3.400000e-01    2.740000e+00
 TC2vq TX1er  1 3.400000e-01    2.500000e+00
 TC1vq TX1er  1 3.400000e-01    2.500000e+00
 TX4vq TX1er  1 3.400000e-01    2.740000e+00
 TX3vq TX1er  1 3.400000e-01    2.990000e+00
 TX2vq TX1er  1 3.400000e-01    2.990000e+00
 TX1vq TX1er  1 3.400000e-01    3.220000e+00
 TC6vh  TC6e  1 3.400000e-01    2.500000e+00
 TC6vh  TC5e  1 3.400000e-01    2.280000e+00
 TC6vh  TC4e  1 3.400000e-01    2.280000e+00
 TC6vh  TC3e  1 3.400000e-01    2.020000e+00
 TC6vh  TC2e  1 3.400000e-01    1.770000e+00
 TC6vh  TC1e  1 3.400000e-01    1.510000e+00
 TC6vh  TX4e  1 3.400000e-01    2.280000e+00
 TC6vh  TX3e  1 3.400000e-01    2.280000e+00
 TC6vh  TX2e  1 3.400000e-01    2.280000e+00
 TC6vh  TX1e  1 3.400000e-01    2.280000e+00
 TC5vh  TC5e  1 3.400000e-01    2.280000e+00
 TC5vh  TC4e  1 3.400000e-01    2.280000e+00
 TC5vh  TC3e  1 3.400000e-01    2.020000e+00
 TC5vh  TC2e  1 3.400000e-01    1.770000e+00
 TC5vh  TC1e  1 3.400000e-01    1.770000e+00
 TC5vh  TX4e  1 3.400000e-01    2.020000e+00
 TC5vh  TX3e  1 3.400000e-01    2.020000e+00
 TC5vh  TX2e  1 3.400000e-01    2.020000e+00
 TC5vh  TX1e  1 3.400000e-01    2.280000e+00
 TC4vh  TC4e  1 3.400000e-01    2.280000e+00
 TC4vh  TC3e  1 3.400000e-01    2.280000e+00
 TC4vh  TC2e  1 3.400000e-01    2.020000e+00
 TC4vh  TC1e  1 3.400000e-01    1.770000e+00
 TC4vh  TX4e  1 3.400000e-01    2.020000e+00
 TC4vh  TX3e  1 3.400000e-01    2.020000e+00
 TC4vh  TX2e  1 3.400000e-01    2.020000e+00
 TC4vh  TX1e  1 3.400000e-01    2.280000e+00
 TC3vh  TC3e  1 3.400000e-01    2.280000e+00
 TC3vh  TC2e  1 3.400000e-01    2.280000e+00
 TC3vh  TC1e  1 3.400000e-01    2.280000e+00
 TC3vh  TX4e  1 3.400000e-01    2.020000e+00
 TC3vh  TX3e  1 3.400000e-01    2.020000e+00
 TC3vh  TX2e  1 3.400000e-01    2.020000e+00
 TC3vh  TX1e  1 3.400000e-01    2.280000e+00
 TC2vh  TC2e  1 3.400000e-01    2.280000e+00
 TC2vh  TC1e  1 3.400000e-01    2.500000e+00
 TC2vh  TX4e  1 3.400000e-01    1.510000e+00
 TC2vh  TX3e  1 3.400000e-01    2.020000e+00
 TC2vh  TX2e  1 3.400000e-01    2.020000e+00
 TC2vh  TX1e  1 3.400000e-01    2.020000e+00
 TC1vh  TC1e  1 3.400000e-01    2.280000e+00
 TC1vh  TX4e  1 3.400000e-01    1.510000e+00
 TC1vh  TX3e  1 3.400000e-01    2.020000e+00
 TC1vh  TX2e  1 3.400000e-01    2.020000e+00
 TC1vh  TX1e  1 3.400000e-01    2.020000e+00
 TX4vh  TX4e  1 3.400000e-01    2.280000e+00
 TX4vh  TX3e  1 3.400000e-01    2.280000e+00
 TX4vh  TX2e  1 3.400000e-01    2.280000e+00
 TX4vh  TX1e  1 3.400000e-01    2.280000e+00
 TX3vh  TX3e  1 3.400000e-01    2.280000e+00
 TX3vh  TX2e  1 3.400000e-01    2.500000e+00
 TX3vh  TX1e  1 3.400000e-01    2.500000e+00
 TX2vh  TX2e  1 3.400000e-01    2.500000e+00
 TX2vh  TX1e  1 3.400000e-01    2.500000e+00
 TX1vh  TX1e  1 3.400000e-01    2.740000e+00
 TC6vh TX1eq  1 3.400000e-01    2.740000e+00
 TC6vh TX2eq  1 3.400000e-01    2.740000e+00
 TC6vh TX3eq  1 3.400000e-01    2.740000e+00
 TC6vh TX4eq  1 3.400000e-01    2.740000e+00
 TC6vh TC1eq  1 3.400000e-01    2.020000e+00
 TC6vh TC2eq  1 3.400000e-01    2.280000e+00
 TC6vh TC3eq  1 3.400000e-01    2.500000e+00
 TC6vh TC4eq  1 3.400000e-01    2.740000e+00
 TC6vh TC5eq  1 3.400000e-01    2.740000e+00
 TC6vh TC6eq  1 3.400000e-01    2.990000e+00
 TC5vh TX1eq  1 3.400000e-01    2.740000e+00
 TC5vh TX2eq  1 3.400000e-01    2.500000e+00
 TC5vh TX3eq  1 3.400000e-01    2.500000e+00
 TC5vh TX4eq  1 3.400000e-01    2.500000e+00
 TC5vh TC1eq  1 3.400000e-01    2.280000e+00
 TC5vh TC2eq  1 3.400000e-01    2.280000e+00
 TC5vh TC3eq  1 3.400000e-01    2.500000e+00
 TC5vh TC4eq  1 3.400000e-01    2.740000e+00
 TC5vh TC5eq  1 3.400000e-01    2.740000e+00
 TC4vh TX1eq  1 3.400000e-01    2.740000e+00
 TC4vh TX2eq  1 3.400000e-01    2.500000e+00
 TC4vh TX3eq  1 3.400000e-01    2.500000e+00
 TC4vh TX4eq  1 3.400000e-01    2.500000e+00
 TC4vh TC1eq  1 3.400000e-01    2.280000e+00
 TC4vh TC2eq  1 3.400000e-01    2.500000e+00
 TC4vh TC3eq  1 3.400000e-01    2.740000e+00
 TC4vh TC4eq  1 3.400000e-01    2.740000e+00
 TC3vh TX1eq  1 3.400000e-01    2.740000e+00
 TC3vh TX2eq  1 3.400000e-01    2.500000e+00
 TC3vh TX3eq  1 3.400000e-01    2.500000e+00
 TC3vh TX4eq  1 3.400000e-01    2.500000e+00
 TC3vh TC1eq  1 3.400000e-01    2.740000e+00
 TC3vh TC2eq  1 3.400000e-01    2.740000e+00
 TC3vh TC3eq  1 3.400000e-01    2.740000e+00
 TC2vh TX1eq  1 3.400000e-01    2.500000e+00
 TC2vh TX2eq  1 3.400000e-01    2.500000e+00
 TC2vh TX3eq  1 3.400000e-01    2.500000e+00
 TC2vh TX4eq  1 3.400000e-01    2.020000e+00
 TC2vh TC1eq  1 3.400000e-01    2.990000e+00
 TC2vh TC2eq  1 3.400000e-01    2.740000e+00
 TC1vh TX1eq  1 3.400000e-01    2.500000e+00
 TC1vh TX2eq  1 3.400000e-01    2.500000e+00
 TC1vh TX3eq  1 3.400000e-01    2.500000e+00
 TC1vh TX4eq  1 3.400000e-01    2.020000e+00
 TC1vh TC1eq  1 3.400000e-01    2.740000e+00
 TX4vh TX1eq  1 3.400000e-01    2.740000e+00
 TX4vh TX2eq  1 3.400000e-01    2.740000e+00
 TX4vh TX3eq  1 3.400000e-01    2.740000e+00
 TX4vh TX4eq  1 3.400000e-01    2.740000e+00
 TX3vh TX1eq  1 3.400000e-01    2.990000e+00
 TX3vh TX2eq  1 3.400000e-01    2.990000e+00
 TX3vh TX3eq  1 3.400000e-01    2.740000e+00
 TX2vh TX1eq  1 3.400000e-01    2.990000e+00
 TX2vh TX2eq  1 3.400000e-01    2.990000e+00
 TX1vh TX1eq  1 3.400000e-01    3.220000e+00
 TC6vh TC6eh  1 3.400000e-01    2.740000e+00
 TC6vh TC5eh  1 3.400000e-01    2.500000e+00
 TC6vh TC4eh  1 3.400000e-01    2.500000e+00
 TC6vh TC3eh  1 3.400000e-01    2.280000e+00
 TC6vh TC2eh  1 3.400000e-01    2.020000e+00
 TC6vh TC1eh  1 3.400000e-01    1.770000e+00
 TC6vh TX4eh  1 3.400000e-01    2.500000e+00
 TC6vh TX3eh  1 3.400000e-01    2.500000e+00
 TC6vh TX2eh  1 3.400000e-01    2.500000e+00
 TC6vh TX1eh  1 3.400000e-01    2.500000e+00
 TC5vh TC5eh  1 3.400000e-01    2.500000e+00
 TC5vh TC4eh  1 3.400000e-01    2.500000e+00
 TC5vh TC3eh  1 3.400000e-01    2.280000e+00
 TC5vh TC2eh  1 3.400000e-01    2.020000e+00
 TC5vh TC1eh  1 3.400000e-01    2.020000e+00
 TC5vh TX4eh  1 3.400000e-01    2.280000e+00
 TC5vh TX3eh  1 3.400000e-01    2.280000e+00
 TC5vh TX2eh  1 3.400000e-01    2.280000e+00
 TC5vh TX1eh  1 3.400000e-01    2.500000e+00
 TC4vh TC4eh  1 3.400000e-01    2.500000e+00
 TC4vh TC3eh  1 3.400000e-01    2.500000e+00
 TC4vh TC2eh  1 3.400000e-01    2.280000e+00
 TC4vh TC1eh  1 3.400000e-01    2.020000e+00
 TC4vh TX4eh  1 3.400000e-01    2.280000e+00
 TC4vh TX3eh  1 3.400000e-01    2.280000e+00
 TC4vh TX2eh  1 3.400000e-01    2.280000e+00
 TC4vh TX1eh  1 3.400000e-01    2.500000e+00
 TC3vh TC3eh  1 3.400000e-01    2.500000e+00
 TC3vh TC2eh  1 3.400000e-01    2.500000e+00
 TC3vh TC1eh  1 3.400000e-01    2.500000e+00
 TC3vh TX4eh  1 3.400000e-01    2.280000e+00
 TC3vh TX3eh  1 3.400000e-01    2.280000e+00
 TC3vh TX2eh  1 3.400000e-01    2.280000e+00
 TC3vh TX1eh  1 3.400000e-01    2.500000e+00
 TC2vh TC2eh  1 3.400000e-01    2.500000e+00
 TC2vh TC1eh  1 3.400000e-01    2.740000e+00
 TC2vh TX4eh  1 3.400000e-01    1.770000e+00
 TC2vh TX3eh  1 3.400000e-01    2.280000e+00
 TC2vh TX2eh  1 3.400000e-01    2.280000e+00
 TC2vh TX1eh  1 3.400000e-01    2.280000e+00
 TC1vh TC1eh  1 3.400000e-01    2.500000e+00
 TC1vh TX4eh  1 3.400000e-01    1.770000e+00
 TC1vh TX3eh  1 3.400000e-01    2.280000e+00
 TC1vh TX2eh  1 3.400000e-01    2.280000e+00
 TC1vh TX1eh  1 3.400000e-01    2.280000e+00
 TX4vh TX4eh  1 3.400000e-01    2.500000e+00
 TX4vh TX3eh  1 3.400000e-01    2.500000e+00
 TX4vh TX2eh  1 3.400000e-01    2.500000e+00
 TX4vh TX1eh  1 3.400000e-01    2.500000e+00
 TX3vh TX3eh  1 3.400000e-01    2.500000e+00
 TX3vh TX2eh  1 3.400000e-01    2.740000e+00
 TX3vh TX1eh  1 3.400000e-01    2.740000e+00
 TX2vh TX2eh  1 3.400000e-01    2.740000e+00
 TX2vh TX1eh  1 3.400000e-01    2.740000e+00
 TX1vh TX1eh  1 3.400000e-01    2.990000e+00
 TC6vh TC6er  1 3.400000e-01    2.500000e+00
 TC6vh TC5er  1 3.400000e-01    2.280000e+00
 TC6vh TC4er  1 3.400000e-01    2.280000e+00
 TC6vh TC3er  1 3.400000e-01    2.020000e+00
 TC6vh TC2er  1 3.400000e-01    1.770000e+00
 TC6vh TC1er  1 3.400000e-01    1.510000e+00
 TC6vh TX4er  1 3.400000e-01    2.280000e+00
 TC6vh TX3er  1 3.400000e-01    2.280000e+00
 TC6vh TX2er  1 3.400000e-01    2.280000e+00
 TC6vh TX1er  1 3.400000e-01    2.280000e+00
 TC5vh TC5er  1 3.400000e-01    2.280000e+00
 TC5vh TC4er  1 3.400000e-01    2.280000e+00
 TC5vh TC3er  1 3.400000e-01    2.020000e+00
 TC5vh TC2er  1 3.400000e-01    1.770000e+00
 TC5vh TC1er  1 3.400000e-01    1.770000e+00
 TC5vh TX4er  1 3.400000e-01    2.020000e+00
 TC5vh TX3er  1 3.400000e-01    2.020000e+00
 TC5vh TX2er  1 3.400000e-01    2.020000e+00
 TC5vh TX1er  1 3.400000e-01    2.280000e+00
 TC4vh TC4er  1 3.400000e-01    2.280000e+00
 TC4vh TC3er  1 3.400000e-01    2.280000e+00
 TC4vh TC2er  1 3.400000e-01    2.020000e+00
 TC4vh TC1er  1 3.400000e-01    1.770000e+00
 TC4vh TX4er  1 3.400000e-01    2.020000e+00
 TC4vh TX3er  1 3.400000e-01    2.020000e+00
 TC4vh TX2er  1 3.400000e-01    2.020000e+00
 TC4vh TX1er  1 3.400000e-01    2.280000e+00
 TC3vh TC3er  1 3.400000e-01    2.280000e+00
 TC3vh TC2er  1 3.400000e-01    2.280000e+00
 TC3vh TC1er  1 3.400000e-01    2.280000e+00
 TC3vh TX4er  1 3.400000e-01    2.020000e+00
 TC3vh TX3er  1 3.400000e-01    2.020000e+00
 TC3vh TX2er  1 3.400000e-01    2.020000e+00
 TC3vh TX1er  1 3.400000e-01    2.280000e+00
 TC2vh TC2er  1 3.400000e-01    2.280000e+00
 TC2vh TC1er  1 3.400000e-01    2.500000e+00
 TC2vh TX4er  1 3.400000e-01    1.510000e+00
 TC2vh TX3er  1 3.400000e-01    2.020000e+00
 TC2vh TX2er  1 3.400000e-01    2.020000e+00
 TC2vh TX1er  1 3.400000e-01    2.020000e+00
 TC1vh TC1er  1 3.400000e-01    2.280000e+00
 TC1vh TX4er  1 3.400000e-01    1.510000e+00
 TC1vh TX3er  1 3.400000e-01    2.020000e+00
 TC1vh TX2er  1 3.400000e-01    2.020000e+00
 TC1vh TX1er  1 3.400000e-01    2.020000e+00
 TX4vh TX4er  1 3.400000e-01    2.280000e+00
 TX4vh TX3er  1 3.400000e-01    2.280000e+00
 TX4vh TX2er  1 3.400000e-01    2.280000e+00
 TX4vh TX1er  1 3.400000e-01    2.280000e+00
 TX3vh TX3er  1 3.400000e-01    2.280000e+00
 TX3vh TX2er  1 3.400000e-01    2.500000e+00
 TX3vh TX1er  1 3.400000e-01    2.500000e+00
 TX2vh TX2er  1 3.400000e-01    2.500000e+00
 TX2vh TX1er  1 3.400000e-01    2.500000e+00
 TX1vh TX1er  1 3.400000e-01    2.740000e+00
 TC6vr  TC6e  1 3.400000e-01    2.500000e+00
 TC6vr  TC5e  1 3.400000e-01    2.280000e+00
 TC6vr  TC4e  1 3.400000e-01    2.280000e+00
 TC6vr  TC3e  1 3.400000e-01    2.020000e+00
 TC6vr  TC2e  1 3.400000e-01    1.770000e+00
 TC6vr  TC1e  1 3.400000e-01    1.510000e+00
 TC6vr  TX4e  1 3.400000e-01    2.280000e+00
 TC6vr  TX3e  1 3.400000e-01    2.280000e+00
 TC6vr  TX2e  1 3.400000e-01    2.280000e+00
 TC6vr  TX1e  1 3.400000e-01    2.280000e+00
 TC5vr  TC5e  1 3.400000e-01    2.280000e+00
 TC5vr  TC4e  1 3.400000e-01    2.280000e+00
 TC5vr  TC3e  1 3.400000e-01    2.020000e+00
 TC5vr  TC2e  1 3.400000e-01    1.770000e+00
 TC5vr  TC1e  1 3.400000e-01    1.770000e+00
 TC5vr  TX4e  1 3.400000e-01    2.020000e+00
 TC5vr  TX3e  1 3.400000e-01    2.020000e+00
 TC5vr  TX2e  1 3.400000e-01    2.020000e+00
 TC5vr  TX1e  1 3.400000e-01    2.280000e+00
 TC4vr  TC4e  1 3.400000e-01    2.280000e+00
 TC4vr  TC3e  1 3.400000e-01    2.280000e+00
 TC4vr  TC2e  1 3.400000e-01    2.020000e+00
 TC4vr  TC1e  1 3.400000e-01    1.770000e+00
 TC4vr  TX4e  1 3.400000e-01    2.020000e+00
 TC4vr  TX3e  1 3.400000e-01    2.020000e+00
 TC4vr  TX2e  1 3.400000e-01    2.020000e+00
 TC4vr  TX1e  1 3.400000e-01    2.280000e+00
 TC3vr  TC3e  1 3.400000e-01    2.280000e+00
 TC3vr  TC2e  1 3.400000e-01    2.280000e+00
 TC3vr  TC1e  1 3.400000e-01    2.280000e+00
 TC3vr  TX4e  1 3.400000e-01    2.020000e+00
 TC3vr  TX3e  1 3.400000e-01    2.020000e+00
 TC3vr  TX2e  1 3.400000e-01    2.020000e+00
 TC3vr  TX1e  1 3.400000e-01    2.280000e+00
 TC2vr  TC2e  1 3.400000e-01    2.280000e+00
 TC2vr  TC1e  1 3.400000e-01    2.500000e+00
 TC2vr  TX4e  1 3.400000e-01    1.510000e+00
 TC2vr  TX3e  1 3.400000e-01    2.020000e+00
 TC2vr  TX2e  1 3.400000e-01    2.020000e+00
 TC2vr  TX1e  1 3.400000e-01    2.020000e+00
 TC1vr  TC1e  1 3.400000e-01    2.280000e+00
 TC1vr  TX4e  1 3.400000e-01    1.510000e+00
 TC1vr  TX3e  1 3.400000e-01    2.020000e+00
 TC1vr  TX2e  1 3.400000e-01    2.020000e+00
 TC1vr  TX1e  1 3.400000e-01    2.020000e+00
 TX4vr  TX4e  1 3.400000e-01    2.280000e+00
 TX4vr  TX3e  1 3.400000e-01    2.280000e+00
 TX4vr  TX2e  1 3.400000e-01    2.280000e+00
 TX4vr  TX1e  1 3.400000e-01    2.280000e+00
 TX3vr  TX3e  1 3.400000e-01    2.280000e+00
 TX3vr  TX2e  1 3.400000e-01    2.500000e+00
 TX3vr  TX1e  1 3.400000e-01    2.500000e+00
 TX2vr  TX2e  1 3.400000e-01    2.500000e+00
 TX2vr  TX1e  1 3.400000e-01    2.500000e+00
 TX1vr  TX1e  1 3.400000e-01    2.740000e+00
 TC6vr TX1eq  1 3.400000e-01    2.740000e+00
 TC6vr TX2eq  1 3.400000e-01    2.740000e+00
 TC6vr TX3eq  1 3.400000e-01    2.740000e+00
 TC6vr TX4eq  1 3.400000e-01    2.740000e+00
 TC6vr TC1eq  1 3.400000e-01    2.020000e+00
 TC6vr TC2eq  1 3.400000e-01    2.280000e+00
 TC6vr TC3eq  1 3.400000e-01    2.500000e+00
 TC6vr TC4eq  1 3.400000e-01    2.740000e+00
 TC6vr TC5eq  1 3.400000e-01    2.740000e+00
 TC6vr TC6eq  1 3.400000e-01    2.990000e+00
 TC5vr TX1eq  1 3.400000e-01    2.740000e+00
 TC5vr TX2eq  1 3.400000e-01    2.500000e+00
 TC5vr TX3eq  1 3.400000e-01    2.500000e+00
 TC5vr TX4eq  1 3.400000e-01    2.500000e+00
 TC5vr TC1eq  1 3.400000e-01    2.280000e+00
 TC5vr TC2eq  1 3.400000e-01    2.280000e+00
 TC5vr TC3eq  1 3.400000e-01    2.500000e+00
 TC5vr TC4eq  1 3.400000e-01    2.740000e+00
 TC5vr TC5eq  1 3.400000e-01    2.740000e+00
 TC4vr TX1eq  1 3.400000e-01    2.740000e+00
 TC4vr TX2eq  1 3.400000e-01    2.500000e+00
 TC4vr TX3eq  1 3.400000e-01    2.500000e+00
 TC4vr TX4eq  1 3.400000e-01    2.500000e+00
 TC4vr TC1eq  1 3.400000e-01    2.280000e+00
 TC4vr TC2eq  1 3.400000e-01    2.500000e+00
 TC4vr TC3eq  1 3.400000e-01    2.740000e+00
 TC4vr TC4eq  1 3.400000e-01    2.740000e+00
 TC3vr TX1eq  1 3.400000e-01    2.740000e+00
 TC3vr TX2eq  1 3.400000e-01    2.500000e+00
 TC3vr TX3eq  1 3.400000e-01    2.500000e+00
 TC3vr TX4eq  1 3.400000e-01    2.500000e+00
 TC3vr TC1eq  1 3.400000e-01    2.740000e+00
 TC3vr TC2eq  1 3.400000e-01    2.740000e+00
 TC3vr TC3eq  1 3.400000e-01    2.740000e+00
 TC2vr TX1eq  1 3.400000e-01    2.500000e+00
 TC2vr TX2eq  1 3.400000e-01    2.500000e+00
 TC2vr TX3eq  1 3.400000e-01    2.500000e+00
 TC2vr TX4eq  1 3.400000e-01    2.020000e+00
 TC2vr TC1eq  1 3.400000e-01    2.990000e+00
 TC2vr TC2eq  1 3.400000e-01    2.740000e+00
 TC1vr TX1eq  1 3.400000e-01    2.500000e+00
 TC1vr TX2eq  1 3.400000e-01    2.500000e+00
 TC1vr TX3eq  1 3.400000e-01    2.500000e+00
 TC1vr TX4eq  1 3.400000e-01    2.020000e+00
 TC1vr TC1eq  1 3.400000e-01    2.740000e+00
 TX4vr TX1eq  1 3.400000e-01    2.740000e+00
 TX4vr TX2eq  1 3.400000e-01    2.740000e+00
 TX4vr TX3eq  1 3.400000e-01    2.740000e+00
 TX4vr TX4eq  1 3.400000e-01    2.740000e+00
 TX3vr TX1eq  1 3.400000e-01    2.990000e+00
 TX3vr TX2eq  1 3.400000e-01    2.990000e+00
 TX3vr TX3eq  1 3.400000e-01    2.740000e+00
 TX2vr TX1eq  1 3.400000e-01    2.990000e+00
 TX2vr TX2eq  1 3.400000e-01    2.990000e+00
 TX1vr TX1eq  1 3.400000e-01    3.220000e+00
 TC6vr TC6eh  1 3.400000e-01    2.500000e+00
 TC6vr TC5eh  1 3.400000e-01    2.280000e+00
 TC6vr TC4eh  1 3.400000e-01    2.280000e+00
 TC6vr TC3eh  1 3.400000e-01    2.020000e+00
 TC6vr TC2eh  1 3.400000e-01    1.770000e+00
 TC6vr TC1eh  1 3.400000e-01    1.510000e+00
 TC6vr TX4eh  1 3.400000e-01    2.280000e+00
 TC6vr TX3eh  1 3.400000e-01    2.280000e+00
 TC6vr TX2eh  1 3.400000e-01    2.280000e+00
 TC6vr TX1eh  1 3.400000e-01    2.280000e+00
 TC5vr TC5eh  1 3.400000e-01    2.280000e+00
 TC5vr TC4eh  1 3.400000e-01    2.280000e+00
 TC5vr TC3eh  1 3.400000e-01    2.020000e+00
 TC5vr TC2eh  1 3.400000e-01    1.770000e+00
 TC5vr TC1eh  1 3.400000e-01    1.770000e+00
 TC5vr TX4eh  1 3.400000e-01    2.020000e+00
 TC5vr TX3eh  1 3.400000e-01    2.020000e+00
 TC5vr TX2eh  1 3.400000e-01    2.020000e+00
 TC5vr TX1eh  1 3.400000e-01    2.280000e+00
 TC4vr TC4eh  1 3.400000e-01    2.280000e+00
 TC4vr TC3eh  1 3.400000e-01    2.280000e+00
 TC4vr TC2eh  1 3.400000e-01    2.020000e+00
 TC4vr TC1eh  1 3.400000e-01    1.770000e+00
 TC4vr TX4eh  1 3.400000e-01    2.020000e+00
 TC4vr TX3eh  1 3.400000e-01    2.020000e+00
 TC4vr TX2eh  1 3.400000e-01    2.020000e+00
 TC4vr TX1eh  1 3.400000e-01    2.280000e+00
 TC3vr TC3eh  1 3.400000e-01    2.280000e+00
 TC3vr TC2eh  1 3.400000e-01    2.280000e+00
 TC3vr TC1eh  1 3.400000e-01    2.280000e+00
 TC3vr TX4eh  1 3.400000e-01    2.020000e+00
 TC3vr TX3eh  1 3.400000e-01    2.020000e+00
 TC3vr TX2eh  1 3.400000e-01    2.020000e+00
 TC3vr TX1eh  1 3.400000e-01    2.280000e+00
 TC2vr TC2eh  1 3.400000e-01    2.280000e+00
 TC2vr TC1eh  1 3.400000e-01    2.500000e+00
 TC2vr TX4eh  1 3.400000e-01    1.510000e+00
 TC2vr TX3eh  1 3.400000e-01    2.020000e+00
 TC2vr TX2eh  1 3.400000e-01    2.020000e+00
 TC2vr TX1eh  1 3.400000e-01    2.020000e+00
 TC1vr TC1eh  1 3.400000e-01    2.280000e+00
 TC1vr TX4eh  1 3.400000e-01    1.510000e+00
 TC1vr TX3eh  1 3.400000e-01    2.020000e+00
 TC1vr TX2eh  1 3.400000e-01    2.020000e+00
 TC1vr TX1eh  1 3.400000e-01    2.020000e+00
 TX4vr TX4eh  1 3.400000e-01    2.280000e+00
 TX4vr TX3eh  1 3.400000e-01    2.280000e+00
 TX4vr TX2eh  1 3.400000e-01    2.280000e+00
 TX4vr TX1eh  1 3.400000e-01    2.280000e+00
 TX3vr TX3eh  1 3.400000e-01    2.280000e+00
 TX3vr TX2eh  1 3.400000e-01    2.500000e+00
 TX3vr TX1eh  1 3.400000e-01    2.500000e+00
 TX2vr TX2eh  1 3.400000e-01    2.500000e+00
 TX2vr TX1eh  1 3.400000e-01    2.500000e+00
 TX1vr TX1eh  1 3.400000e-01    2.740000e+00
 TC6vr TC6er  1 3.400000e-01    2.280000e+00
 TC6vr TC5er  1 3.400000e-01    2.020000e+00
 TC6vr TC4er  1 3.400000e-01    2.020000e+00
 TC6vr TC3er  1 3.400000e-01    1.770000e+00
 TC6vr TC2er  1 3.400000e-01    1.510000e+00
 TC6vr TC1er  1 3.400000e-01    1.230000e+00
 TC6vr TX4er  1 3.400000e-01    2.020000e+00
 TC6vr TX3er  1 3.400000e-01    2.020000e+00
 TC6vr TX2er  1 3.400000e-01    2.020000e+00
 TC6vr TX1er  1 3.400000e-01    2.020000e+00
 TC5vr TC5er  1 3.400000e-01    2.020000e+00
 TC5vr TC4er  1 3.400000e-01    2.020000e+00
 TC5vr TC3er  1 3.400000e-01    1.770000e+00
 TC5vr TC2er  1 3.400000e-01    1.510000e+00
 TC5vr TC1er  1 3.400000e-01    1.510000e+00
 TC5vr TX4er  1 3.400000e-01    1.770000e+00
 TC5vr TX3er  1 3.400000e-01    1.770000e+00
 TC5vr TX2er  1 3.400000e-01    1.770000e+00
 TC5vr TX1er  1 3.400000e-01    2.020000e+00
 TC4vr TC4er  1 3.400000e-01    2.020000e+00
 TC4vr TC3er  1 3.400000e-01    2.020000e+00
 TC4vr TC2er  1 3.400000e-01    1.770000e+00
 TC4vr TC1er  1 3.400000e-01    1.510000e+00
 TC4vr TX4er  1 3.400000e-01    1.770000e+00
 TC4vr TX3er  1 3.400000e-01    1.770000e+00
 TC4vr TX2er  1 3.400000e-01    1.770000e+00
 TC4vr TX1er  1 3.400000e-01    2.020000e+00
 TC3vr TC3er  1 3.400000e-01    2.020000e+00
 TC3vr TC2er  1 3.400000e-01    2.020000e+00
 TC3vr TC1er  1 3.400000e-01    2.020000e+00
 TC3vr TX4er  1 3.400000e-01    1.770000e+00
 TC3vr TX3er  1 3.400000e-01    1.770000e+00
 TC3vr TX2er  1 3.400000e-01    1.770000e+00
 TC3vr TX1er  1 3.400000e-01    2.020000e+00
 TC2vr TC2er  1 3.400000e-01    2.020000e+00
 TC2vr TC1er  1 3.400000e-01    2.280000e+00
 TC2vr TX4er  1 3.400000e-01    1.230000e+00
 TC2vr TX3er  1 3.400000e-01    1.770000e+00
 TC2vr TX2er  1 3.400000e-01    1.770000e+00
 TC2vr TX1er  1 3.400000e-01    1.770000e+00
 TC1vr TC1er  1 3.400000e-01    2.020000e+00
 TC1vr TX4er  1 3.400000e-01    1.230000e+00
 TC1vr TX3er  1 3.400000e-01    1.770000e+00
 TC1vr TX2er  1 3.400000e-01    1.770000e+00
 TC1vr TX1er  1 3.400000e-01    1.770000e+00
 TX4vr TX4er  1 3.400000e-01    2.020000e+00
 TX4vr TX3er  1 3.400000e-01    2.020000e+00
 TX4vr TX2er  1 3.400000e-01    2.020000e+00
 TX4vr TX1er  1 3.400000e-01    2.020000e+00
 TX3vr TX3er  1 3.400000e-01    2.020000e+00
 TX3vr TX2er  1 3.400000e-01    2.280000e+00
 TX3vr TX1er  1 3.400000e-01    2.280000e+00
 TX2vr TX2er  1 3.400000e-01    2.280000e+00
 TX2vr TX1er  1 3.400000e-01    2.280000e+00
 TX1vr TX1er  1 3.400000e-01    2.500000e+00
  TC6e  TC5v  1 3.400000e-01    2.280000e+00
  TC6e  TC4v  1 3.400000e-01    2.280000e+00
  TC6e  TC3v  1 3.400000e-01    2.020000e+00
  TC6e  TC2v  1 3.400000e-01    1.770000e+00
  TC6e  TC1v  1 3.400000e-01    1.510000e+00
  TC6e  TX4v  1 3.400000e-01    2.280000e+00
  TC6e  TX3v  1 3.400000e-01    2.280000e+00
  TC6e  TX2v  1 3.400000e-01    2.280000e+00
  TC6e  TX1v  1 3.400000e-01    2.280000e+00
  TC5e  TC4v  1 3.400000e-01    2.280000e+00
  TC5e  TC3v  1 3.400000e-01    2.020000e+00
  TC5e  TC2v  1 3.400000e-01    1.770000e+00
  TC5e  TC1v  1 3.400000e-01    1.770000e+00
  TC5e  TX4v  1 3.400000e-01    2.020000e+00
  TC5e  TX3v  1 3.400000e-01    2.020000e+00
  TC5e  TX2v  1 3.400000e-01    2.020000e+00
  TC5e  TX1v  1 3.400000e-01    2.280000e+00
  TC4e  TC3v  1 3.400000e-01    2.280000e+00
  TC4e  TC2v  1 3.400000e-01    2.020000e+00
  TC4e  TC1v  1 3.400000e-01    1.770000e+00
  TC4e  TX4v  1 3.400000e-01    2.020000e+00
  TC4e  TX3v  1 3.400000e-01    2.020000e+00
  TC4e  TX2v  1 3.400000e-01    2.020000e+00
  TC4e  TX1v  1 3.400000e-01    2.280000e+00
  TC3e  TC2v  1 3.400000e-01    2.280000e+00
  TC3e  TC1v  1 3.400000e-01    2.280000e+00
  TC3e  TX4v  1 3.400000e-01    2.020000e+00
  TC3e  TX3v  1 3.400000e-01    2.020000e+00
  TC3e  TX2v  1 3.400000e-01    2.020000e+00
  TC3e  TX1v  1 3.400000e-01    2.280000e+00
  TC2e  TC1v  1 3.400000e-01    2.500000e+00
  TC2e  TX4v  1 3.400000e-01    1.510000e+00
  TC2e  TX3v  1 3.400000e-01    2.020000e+00
  TC2e  TX2v  1 3.400000e-01    2.020000e+00
  TC2e  TX1v  1 3.400000e-01    2.020000e+00
  TC1e  TX4v  1 3.400000e-01    1.510000e+00
  TC1e  TX3v  1 3.400000e-01    2.020000e+00
  TC1e  TX2v  1 3.400000e-01    2.020000e+00
  TC1e  TX1v  1 3.400000e-01    2.020000e+00
  TX4e  TX3v  1 3.400000e-01    2.280000e+00
  TX4e  TX2v  1 3.400000e-01    2.280000e+00
  TX4e  TX1v  1 3.400000e-01    2.280000e+00
  TX3e  TX2v  1 3.400000e-01    2.500000e+00
  TX3e  TX1v  1 3.400000e-01    2.500000e+00
  TX2e  TX1v  1 3.400000e-01    2.500000e+00
  TC6e TC5vq  1 3.400000e-01    2.740000e+00
  TC6e TC4vq  1 3.400000e-01    2.740000e+00
  TC5e TC4vq  1 3.400000e-01    2.740000e+00
  TC6e TC3vq  1 3.400000e-01    2.500000e+00
  TC5e TC3vq  1 3.400000e-01    2.500000e+00
  TC4e TC3vq  1 3.400000e-01    2.740000e+00
  TC6e TC2vq  1 3.400000e-01    2.280000e+00
  TC5e TC2vq  1 3.400000e-01    2.280000e+00
  TC4e TC2vq  1 3.400000e-01    2.500000e+00
  TC3e TC2vq  1 3.400000e-01    2.740000e+00
  TC6e TC1vq  1 3.400000e-01    2.020000e+00
  TC5e TC1vq  1 3.400000e-01    2.280000e+00
  TC4e TC1vq  1 3.400000e-01    2.280000e+00
  TC3e TC1vq  1 3.400000e-01    2.740000e+00
  TC2e TC1vq  1 3.400000e-01    2.990000e+00
  TC6e TX4vq  1 3.400000e-01    2.740000e+00
  TC5e TX4vq  1 3.400000e-01    2.500000e+00
  TC4e TX4vq  1 3.400000e-01    2.500000e+00
  TC3e TX4vq  1 3.400000e-01    2.500000e+00
  TC2e TX4vq  1 3.400000e-01    2.020000e+00
  TC1e TX4vq  1 3.400000e-01    2.020000e+00
  TC6e TX3vq  1 3.400000e-01    2.740000e+00
  TC5e TX3vq  1 3.400000e-01    2.500000e+00
  TC4e TX3vq  1 3.400000e-01    2.500000e+00
  TC3e TX3vq  1 3.400000e-01    2.500000e+00
  TC2e TX3vq  1 3.400000e-01    2.500000e+00
  TC1e TX3vq  1 3.400000e-01    2.500000e+00
  TX4e TX3vq  1 3.400000e-01    2.740000e+00
  TC6e TX2vq  1 3.400000e-01    2.740000e+00
  TC5e TX2vq  1 3.400000e-01    2.500000e+00
  TC4e TX2vq  1 3.400000e-01    2.500000e+00
  TC3e TX2vq  1 3.400000e-01    2.500000e+00
  TC2e TX2vq  1 3.400000e-01    2.500000e+00
  TC1e TX2vq  1 3.400000e-01    2.500000e+00
  TX4e TX2vq  1 3.400000e-01    2.740000e+00
  TX3e TX2vq  1 3.400000e-01    2.990000e+00
  TC6e TX1vq  1 3.400000e-01    2.740000e+00
  TC5e TX1vq  1 3.400000e-01    2.740000e+00
  TC4e TX1vq  1 3.400000e-01    2.740000e+00
  TC3e TX1vq  1 3.400000e-01    2.740000e+00
  TC2e TX1vq  1 3.400000e-01    2.500000e+00
  TC1e TX1vq  1 3.400000e-01    2.500000e+00
  TX4e TX1vq  1 3.400000e-01    2.740000e+00
  TX3e TX1vq  1 3.400000e-01    2.990000e+00
  TX2e TX1vq  1 3.400000e-01    2.990000e+00
  TC6e TC5vh  1 3.400000e-01    2.280000e+00
  TC6e TC4vh  1 3.400000e-01    2.280000e+00
  TC5e TC4vh  1 3.400000e-01    2.280000e+00
  TC6e TC3vh  1 3.400000e-01    2.020000e+00
  TC5e TC3vh  1 3.400000e-01    2.020000e+00
  TC4e TC3vh  1 3.400000e-01    2.280000e+00
  TC6e TC2vh  1 3.400000e-01    1.770000e+00
  TC5e TC2vh  1 3.400000e-01    1.770000e+00
  TC4e TC2vh  1 3.400000e-01    2.020000e+00
  TC3e TC2vh  1 3.400000e-01    2.280000e+00
  TC6e TC1vh  1 3.400000e-01    1.510000e+00
  TC5e TC1vh  1 3.400000e-01    1.770000e+00
  TC4e TC1vh  1 3.400000e-01    1.770000e+00
  TC3e TC1vh  1 3.400000e-01    2.280000e+00
  TC2e TC1vh  1 3.400000e-01    2.500000e+00
  TC6e TX4vh  1 3.400000e-01    2.280000e+00
  TC5e TX4vh  1 3.400000e-01    2.020000e+00
  TC4e TX4vh  1 3.400000e-01    2.020000e+00
  TC3e TX4vh  1 3.400000e-01    2.020000e+00
  TC2e TX4vh  1 3.400000e-01    1.510000e+00
  TC1e TX4vh  1 3.400000e-01    1.510000e+00
  TC6e TX3vh  1 3.400000e-01    2.280000e+00
  TC5e TX3vh  1 3.400000e-01    2.020000e+00
  TC4e TX3vh  1 3.400000e-01    2.020000e+00
  TC3e TX3vh  1 3.400000e-01    2.020000e+00
  TC2e TX3vh  1 3.400000e-01    2.020000e+00
  TC1e TX3vh  1 3.400000e-01    2.020000e+00
  TX4e TX3vh  1 3.400000e-01    2.280000e+00
  TC6e TX2vh  1 3.400000e-01    2.280000e+00
  TC5e TX2vh  1 3.400000e-01    2.020000e+00
  TC4e TX2vh  1 3.400000e-01    2.020000e+00
  TC3e TX2vh  1 3.400000e-01    2.020000e+00
  TC2e TX2vh  1 3.400000e-01    2.020000e+00
  TC1e TX2vh  1 3.400000e-01    2.020000e+00
  TX4e TX2vh  1 3.400000e-01    2.280000e+00
  TX3e TX2vh  1 3.400000e-01    2.500000e+00
  TC6e TX1vh  1 3.400000e-01    2.280000e+00
  TC5e TX1vh  1 3.400000e-01    2.280000e+00
  TC4e TX1vh  1 3.400000e-01    2.280000e+00
  TC3e TX1vh  1 3.400000e-01    2.280000e+00
  TC2e TX1vh  1 3.400000e-01    2.020000e+00
  TC1e TX1vh  1 3.400000e-01    2.020000e+00
  TX4e TX1vh  1 3.400000e-01    2.280000e+00
  TX3e TX1vh  1 3.400000e-01    2.500000e+00
  TX2e TX1vh  1 3.400000e-01    2.500000e+00
  TC6e TC5vr  1 3.400000e-01    2.280000e+00
  TC6e TC4vr  1 3.400000e-01    2.280000e+00
  TC5e TC4vr  1 3.400000e-01    2.280000e+00
  TC6e TC3vr  1 3.400000e-01    2.020000e+00
  TC5e TC3vr  1 3.400000e-01    2.020000e+00
  TC4e TC3vr  1 3.400000e-01    2.280000e+00
  TC6e TC2vr  1 3.400000e-01    1.770000e+00
  TC5e TC2vr  1 3.400000e-01    1.770000e+00
  TC4e TC2vr  1 3.400000e-01    2.020000e+00
  TC3e TC2vr  1 3.400000e-01    2.280000e+00
  TC6e TC1vr  1 3.400000e-01    1.510000e+00
  TC5e TC1vr  1 3.400000e-01    1.770000e+00
  TC4e TC1vr  1 3.400000e-01    1.770000e+00
  TC3e TC1vr  1 3.400000e-01    2.280000e+00
  TC2e TC1vr  1 3.400000e-01    2.500000e+00
  TC6e TX4vr  1 3.400000e-01    2.280000e+00
  TC5e TX4vr  1 3.400000e-01    2.020000e+00
  TC4e TX4vr  1 3.400000e-01    2.020000e+00
  TC3e TX4vr  1 3.400000e-01    2.020000e+00
  TC2e TX4vr  1 3.400000e-01    1.510000e+00
  TC1e TX4vr  1 3.400000e-01    1.510000e+00
  TC6e TX3vr  1 3.400000e-01    2.280000e+00
  TC5e TX3vr  1 3.400000e-01    2.020000e+00
  TC4e TX3vr  1 3.400000e-01    2.020000e+00
  TC3e TX3vr  1 3.400000e-01    2.020000e+00
  TC2e TX3vr  1 3.400000e-01    2.020000e+00
  TC1e TX3vr  1 3.400000e-01    2.020000e+00
  TX4e TX3vr  1 3.400000e-01    2.280000e+00
  TC6e TX2vr  1 3.400000e-01    2.280000e+00
  TC5e TX2vr  1 3.400000e-01    2.020000e+00
  TC4e TX2vr  1 3.400000e-01    2.020000e+00
  TC3e TX2vr  1 3.400000e-01    2.020000e+00
  TC2e TX2vr  1 3.400000e-01    2.020000e+00
  TC1e TX2vr  1 3.400000e-01    2.020000e+00
  TX4e TX2vr  1 3.400000e-01    2.280000e+00
  TX3e TX2vr  1 3.400000e-01    2.500000e+00
  TC6e TX1vr  1 3.400000e-01    2.280000e+00
  TC5e TX1vr  1 3.400000e-01    2.280000e+00
  TC4e TX1vr  1 3.400000e-01    2.280000e+00
  TC3e TX1vr  1 3.400000e-01    2.280000e+00
  TC2e TX1vr  1 3.400000e-01    2.020000e+00
  TC1e TX1vr  1 3.400000e-01    2.020000e+00
  TX4e TX1vr  1 3.400000e-01    2.280000e+00
  TX3e TX1vr  1 3.400000e-01    2.500000e+00
  TX2e TX1vr  1 3.400000e-01    2.500000e+00
 TX2eq  TX1v  1 3.400000e-01    2.990000e+00
 TX3eq  TX2v  1 3.400000e-01    2.990000e+00
 TX3eq  TX1v  1 3.400000e-01    2.990000e+00
 TX4eq  TX3v  1 3.400000e-01    2.740000e+00
 TX4eq  TX2v  1 3.400000e-01    2.740000e+00
 TX4eq  TX1v  1 3.400000e-01    2.740000e+00
 TC1eq  TX4v  1 3.400000e-01    2.020000e+00
 TC1eq  TX3v  1 3.400000e-01    2.500000e+00
 TC1eq  TX2v  1 3.400000e-01    2.500000e+00
 TC1eq  TX1v  1 3.400000e-01    2.500000e+00
 TC2eq  TC1v  1 3.400000e-01    2.990000e+00
 TC2eq  TX4v  1 3.400000e-01    2.020000e+00
 TC2eq  TX3v  1 3.400000e-01    2.500000e+00
 TC2eq  TX2v  1 3.400000e-01    2.500000e+00
 TC2eq  TX1v  1 3.400000e-01    2.500000e+00
 TC3eq  TC2v  1 3.400000e-01    2.740000e+00
 TC3eq  TC1v  1 3.400000e-01    2.740000e+00
 TC3eq  TX4v  1 3.400000e-01    2.500000e+00
 TC3eq  TX3v  1 3.400000e-01    2.500000e+00
 TC3eq  TX2v  1 3.400000e-01    2.500000e+00
 TC3eq  TX1v  1 3.400000e-01    2.740000e+00
 TC4eq  TC3v  1 3.400000e-01    2.740000e+00
 TC4eq  TC2v  1 3.400000e-01    2.500000e+00
 TC4eq  TC1v  1 3.400000e-01    2.280000e+00
 TC4eq  TX4v  1 3.400000e-01    2.500000e+00
 TC4eq  TX3v  1 3.400000e-01    2.500000e+00
 TC4eq  TX2v  1 3.400000e-01    2.500000e+00
 TC4eq  TX1v  1 3.400000e-01    2.740000e+00
 TC5eq  TC4v  1 3.400000e-01    2.740000e+00
 TC5eq  TC3v  1 3.400000e-01    2.500000e+00
 TC5eq  TC2v  1 3.400000e-01    2.280000e+00
 TC5eq  TC1v  1 3.400000e-01    2.280000e+00
 TC5eq  TX4v  1 3.400000e-01    2.500000e+00
 TC5eq  TX3v  1 3.400000e-01    2.500000e+00
 TC5eq  TX2v  1 3.400000e-01    2.500000e+00
 TC5eq  TX1v  1 3.400000e-01    2.740000e+00
 TC6eq  TC5v  1 3.400000e-01    2.740000e+00
 TC6eq  TC4v  1 3.400000e-01    2.740000e+00
 TC6eq  TC3v  1 3.400000e-01    2.500000e+00
 TC6eq  TC2v  1 3.400000e-01    2.280000e+00
 TC6eq  TC1v  1 3.400000e-01    2.020000e+00
 TC6eq  TX4v  1 3.400000e-01    2.740000e+00
 TC6eq  TX3v  1 3.400000e-01    2.740000e+00
 TC6eq  TX2v  1 3.400000e-01    2.740000e+00
 TC6eq  TX1v  1 3.400000e-01    2.740000e+00
 TC6eq TC5vq  1 3.400000e-01    2.740000e+00
 TC6eq TC4vq  1 3.400000e-01    2.740000e+00
 TC6eq TC3vq  1 3.400000e-01    2.500000e+00
 TC6eq TC2vq  1 3.400000e-01    2.280000e+00
 TC6eq TC1vq  1 3.400000e-01    2.020000e+00
 TC6eq TX4vq  1 3.400000e-01    2.740000e+00
 TC6eq TX3vq  1 3.400000e-01    2.740000e+00
 TC6eq TX2vq  1 3.400000e-01    2.740000e+00
 TC6eq TX1vq  1 3.400000e-01    2.740000e+00
 TC5eq TC4vq  1 3.400000e-01    2.740000e+00
 TC5eq TC3vq  1 3.400000e-01    2.500000e+00
 TC5eq TC2vq  1 3.400000e-01    2.280000e+00
 TC5eq TC1vq  1 3.400000e-01    2.280000e+00
 TC5eq TX4vq  1 3.400000e-01    2.500000e+00
 TC5eq TX3vq  1 3.400000e-01    2.500000e+00
 TC5eq TX2vq  1 3.400000e-01    2.500000e+00
 TC5eq TX1vq  1 3.400000e-01    2.740000e+00
 TC4eq TC3vq  1 3.400000e-01    2.740000e+00
 TC4eq TC2vq  1 3.400000e-01    2.500000e+00
 TC4eq TC1vq  1 3.400000e-01    2.280000e+00
 TC4eq TX4vq  1 3.400000e-01    2.500000e+00
 TC4eq TX3vq  1 3.400000e-01    2.500000e+00
 TC4eq TX2vq  1 3.400000e-01    2.500000e+00
 TC4eq TX1vq  1 3.400000e-01    2.740000e+00
 TC3eq TC2vq  1 3.400000e-01    2.740000e+00
 TC3eq TC1vq  1 3.400000e-01    2.740000e+00
 TC3eq TX4vq  1 3.400000e-01    2.500000e+00
 TC3eq TX3vq  1 3.400000e-01    2.500000e+00
 TC3eq TX2vq  1 3.400000e-01    2.500000e+00
 TC3eq TX1vq  1 3.400000e-01    2.740000e+00
 TC2eq TC1vq  1 3.400000e-01    2.990000e+00
 TC2eq TX4vq  1 3.400000e-01    2.020000e+00
 TC2eq TX3vq  1 3.400000e-01    2.500000e+00
 TC2eq TX2vq  1 3.400000e-01    2.500000e+00
 TC2eq TX1vq  1 3.400000e-01    2.500000e+00
 TC1eq TX4vq  1 3.400000e-01    2.020000e+00
 TC1eq TX3vq  1 3.400000e-01    2.500000e+00
 TC1eq TX2vq  1 3.400000e-01    2.500000e+00
 TC1eq TX1vq  1 3.400000e-01    2.500000e+00
 TX4eq TX3vq  1 3.400000e-01    2.740000e+00
 TX4eq TX2vq  1 3.400000e-01    2.740000e+00
 TX4eq TX1vq  1 3.400000e-01    2.740000e+00
 TX3eq TX2vq  1 3.400000e-01    2.990000e+00
 TX3eq TX1vq  1 3.400000e-01    2.990000e+00
 TX2eq TX1vq  1 3.400000e-01    2.990000e+00
 TC6eq TC5vh  1 3.400000e-01    2.740000e+00
 TC5eq TC4vh  1 3.400000e-01    2.740000e+00
 TC6eq TC4vh  1 3.400000e-01    2.740000e+00
 TC4eq TC3vh  1 3.400000e-01    2.740000e+00
 TC5eq TC3vh  1 3.400000e-01    2.500000e+00
 TC6eq TC3vh  1 3.400000e-01    2.500000e+00
 TC3eq TC2vh  1 3.400000e-01    2.740000e+00
 TC4eq TC2vh  1 3.400000e-01    2.500000e+00
 TC5eq TC2vh  1 3.400000e-01    2.280000e+00
 TC6eq TC2vh  1 3.400000e-01    2.280000e+00
 TC2eq TC1vh  1 3.400000e-01    2.990000e+00
 TC3eq TC1vh  1 3.400000e-01    2.740000e+00
 TC4eq TC1vh  1 3.400000e-01    2.280000e+00
 TC5eq TC1vh  1 3.400000e-01    2.280000e+00
 TC6eq TC1vh  1 3.400000e-01    2.020000e+00
 TC1eq TX4vh  1 3.400000e-01    2.020000e+00
 TC2eq TX4vh  1 3.400000e-01    2.020000e+00
 TC3eq TX4vh  1 3.400000e-01    2.500000e+00
 TC4eq TX4vh  1 3.400000e-01    2.500000e+00
 TC5eq TX4vh  1 3.400000e-01    2.500000e+00
 TC6eq TX4vh  1 3.400000e-01    2.740000e+00
 TX4eq TX3vh  1 3.400000e-01    2.740000e+00
 TC1eq TX3vh  1 3.400000e-01    2.500000e+00
 TC2eq TX3vh  1 3.400000e-01    2.500000e+00
 TC3eq TX3vh  1 3.400000e-01    2.500000e+00
 TC4eq TX3vh  1 3.400000e-01    2.500000e+00
 TC5eq TX3vh  1 3.400000e-01    2.500000e+00
 TC6eq TX3vh  1 3.400000e-01    2.740000e+00
 TX3eq TX2vh  1 3.400000e-01    2.990000e+00
 TX4eq TX2vh  1 3.400000e-01    2.740000e+00
 TC1eq TX2vh  1 3.400000e-01    2.500000e+00
 TC2eq TX2vh  1 3.400000e-01    2.500000e+00
 TC3eq TX2vh  1 3.400000e-01    2.500000e+00
 TC4eq TX2vh  1 3.400000e-01    2.500000e+00
 TC5eq TX2vh  1 3.400000e-01    2.500000e+00
 TC6eq TX2vh  1 3.400000e-01    2.740000e+00
 TX2eq TX1vh  1 3.400000e-01    2.990000e+00
 TX3eq TX1vh  1 3.400000e-01    2.990000e+00
 TX4eq TX1vh  1 3.400000e-01    2.740000e+00
 TC1eq TX1vh  1 3.400000e-01    2.500000e+00
 TC2eq TX1vh  1 3.400000e-01    2.500000e+00
 TC3eq TX1vh  1 3.400000e-01    2.740000e+00
 TC4eq TX1vh  1 3.400000e-01    2.740000e+00
 TC5eq TX1vh  1 3.400000e-01    2.740000e+00
 TC6eq TX1vh  1 3.400000e-01    2.740000e+00
 TC6eq TC5vr  1 3.400000e-01    2.740000e+00
 TC5eq TC4vr  1 3.400000e-01    2.740000e+00
 TC6eq TC4vr  1 3.400000e-01    2.740000e+00
 TC4eq TC3vr  1 3.400000e-01    2.740000e+00
 TC5eq TC3vr  1 3.400000e-01    2.500000e+00
 TC6eq TC3vr  1 3.400000e-01    2.500000e+00
 TC3eq TC2vr  1 3.400000e-01    2.740000e+00
 TC4eq TC2vr  1 3.400000e-01    2.500000e+00
 TC5eq TC2vr  1 3.400000e-01    2.280000e+00
 TC6eq TC2vr  1 3.400000e-01    2.280000e+00
 TC2eq TC1vr  1 3.400000e-01    2.990000e+00
 TC3eq TC1vr  1 3.400000e-01    2.740000e+00
 TC4eq TC1vr  1 3.400000e-01    2.280000e+00
 TC5eq TC1vr  1 3.400000e-01    2.280000e+00
 TC6eq TC1vr  1 3.400000e-01    2.020000e+00
 TC1eq TX4vr  1 3.400000e-01    2.020000e+00
 TC2eq TX4vr  1 3.400000e-01    2.020000e+00
 TC3eq TX4vr  1 3.400000e-01    2.500000e+00
 TC4eq TX4vr  1 3.400000e-01    2.500000e+00
 TC5eq TX4vr  1 3.400000e-01    2.500000e+00
 TC6eq TX4vr  1 3.400000e-01    2.740000e+00
 TX4eq TX3vr  1 3.400000e-01    2.740000e+00
 TC1eq TX3vr  1 3.400000e-01    2.500000e+00
 TC2eq TX3vr  1 3.400000e-01    2.500000e+00
 TC3eq TX3vr  1 3.400000e-01    2.500000e+00
 TC4eq TX3vr  1 3.400000e-01    2.500000e+00
 TC5eq TX3vr  1 3.400000e-01    2.500000e+00
 TC6eq TX3vr  1 3.400000e-01    2.740000e+00
 TX3eq TX2vr  1 3.400000e-01    2.990000e+00
 TX4eq TX2vr  1 3.400000e-01    2.740000e+00
 TC1eq TX2vr  1 3.400000e-01    2.500000e+00
 TC2eq TX2vr  1 3.400000e-01    2.500000e+00
 TC3eq TX2vr  1 3.400000e-01    2.500000e+00
 TC4eq TX2vr  1 3.400000e-01    2.500000e+00
 TC5eq TX2vr  1 3.400000e-01    2.500000e+00
 TC6eq TX2vr  1 3.400000e-01    2.740000e+00
 TX2eq TX1vr  1 3.400000e-01    2.990000e+00
 TX3eq TX1vr  1 3.400000e-01    2.990000e+00
 TX4eq TX1vr  1 3.400000e-01    2.740000e+00
 TC1eq TX1vr  1 3.400000e-01    2.500000e+00
 TC2eq TX1vr  1 3.400000e-01    2.500000e+00
 TC3eq TX1vr  1 3.400000e-01    2.740000e+00
 TC4eq TX1vr  1 3.400000e-01    2.740000e+00
 TC5eq TX1vr  1 3.400000e-01    2.740000e+00
 TC6eq TX1vr  1 3.400000e-01    2.740000e+00
 TX2eh  TX1v  1 3.400000e-01    2.500000e+00
 TX3eh  TX2v  1 3.400000e-01    2.500000e+00
 TX3eh  TX1v  1 3.400000e-01    2.500000e+00
 TX4eh  TX3v  1 3.400000e-01    2.280000e+00
 TX4eh  TX2v  1 3.400000e-01    2.280000e+00
 TX4eh  TX1v  1 3.400000e-01    2.280000e+00
 TC1eh  TX4v  1 3.400000e-01    1.510000e+00
 TC1eh  TX3v  1 3.400000e-01    2.020000e+00
 TC1eh  TX2v  1 3.400000e-01    2.020000e+00
 TC1eh  TX1v  1 3.400000e-01    2.020000e+00
 TC2eh  TC1v  1 3.400000e-01    2.500000e+00
 TC2eh  TX4v  1 3.400000e-01    1.510000e+00
 TC2eh  TX3v  1 3.400000e-01    2.020000e+00
 TC2eh  TX2v  1 3.400000e-01    2.020000e+00
 TC2eh  TX1v  1 3.400000e-01    2.020000e+00
 TC3eh  TC2v  1 3.400000e-01    2.280000e+00
 TC3eh  TC1v  1 3.400000e-01    2.280000e+00
 TC3eh  TX4v  1 3.400000e-01    2.020000e+00
 TC3eh  TX3v  1 3.400000e-01    2.020000e+00
 TC3eh  TX2v  1 3.400000e-01    2.020000e+00
 TC3eh  TX1v  1 3.400000e-01    2.280000e+00
 TC4eh  TC3v  1 3.400000e-01    2.280000e+00
 TC4eh  TC2v  1 3.400000e-01    2.020000e+00
 TC4eh  TC1v  1 3.400000e-01    1.770000e+00
 TC4eh  TX4v  1 3.400000e-01    2.020000e+00
 TC4eh  TX3v  1 3.400000e-01    2.020000e+00
 TC4eh  TX2v  1 3.400000e-01    2.020000e+00
 TC4eh  TX1v  1 3.400000e-01    2.280000e+00
 TC5eh  TC4v  1 3.400000e-01    2.280000e+00
 TC5eh  TC3v  1 3.400000e-01    2.020000e+00
 TC5eh  TC2v  1 3.400000e-01    1.770000e+00
 TC5eh  TC1v  1 3.400000e-01    1.770000e+00
 TC5eh  TX4v  1 3.400000e-01    2.020000e+00
 TC5eh  TX3v  1 3.400000e-01    2.020000e+00
 TC5eh  TX2v  1 3.400000e-01    2.020000e+00
 TC5eh  TX1v  1 3.400000e-01    2.280000e+00
 TC6eh  TC5v  1 3.400000e-01    2.280000e+00
 TC6eh  TC4v  1 3.400000e-01    2.280000e+00
 TC6eh  TC3v  1 3.400000e-01    2.020000e+00
 TC6eh  TC2v  1 3.400000e-01    1.770000e+00
 TC6eh  TC1v  1 3.400000e-01    1.510000e+00
 TC6eh  TX4v  1 3.400000e-01    2.280000e+00
 TC6eh  TX3v  1 3.400000e-01    2.280000e+00
 TC6eh  TX2v  1 3.400000e-01    2.280000e+00
 TC6eh  TX1v  1 3.400000e-01    2.280000e+00
 TC6eh TC5vq  1 3.400000e-01    2.740000e+00
 TC6eh TC4vq  1 3.400000e-01    2.740000e+00
 TC6eh TC3vq  1 3.400000e-01    2.500000e+00
 TC6eh TC2vq  1 3.400000e-01    2.280000e+00
 TC6eh TC1vq  1 3.400000e-01    2.020000e+00
 TC6eh TX4vq  1 3.400000e-01    2.740000e+00
 TC6eh TX3vq  1 3.400000e-01    2.740000e+00
 TC6eh TX2vq  1 3.400000e-01    2.740000e+00
 TC6eh TX1vq  1 3.400000e-01    2.740000e+00
 TC5eh TC4vq  1 3.400000e-01    2.740000e+00
 TC5eh TC3vq  1 3.400000e-01    2.500000e+00
 TC5eh TC2vq  1 3.400000e-01    2.280000e+00
 TC5eh TC1vq  1 3.400000e-01    2.280000e+00
 TC5eh TX4vq  1 3.400000e-01    2.500000e+00
 TC5eh TX3vq  1 3.400000e-01    2.500000e+00
 TC5eh TX2vq  1 3.400000e-01    2.500000e+00
 TC5eh TX1vq  1 3.400000e-01    2.740000e+00
 TC4eh TC3vq  1 3.400000e-01    2.740000e+00
 TC4eh TC2vq  1 3.400000e-01    2.500000e+00
 TC4eh TC1vq  1 3.400000e-01    2.280000e+00
 TC4eh TX4vq  1 3.400000e-01    2.500000e+00
 TC4eh TX3vq  1 3.400000e-01    2.500000e+00
 TC4eh TX2vq  1 3.400000e-01    2.500000e+00
 TC4eh TX1vq  1 3.400000e-01    2.740000e+00
 TC3eh TC2vq  1 3.400000e-01    2.740000e+00
 TC3eh TC1vq  1 3.400000e-01    2.740000e+00
 TC3eh TX4vq  1 3.400000e-01    2.500000e+00
 TC3eh TX3vq  1 3.400000e-01    2.500000e+00
 TC3eh TX2vq  1 3.400000e-01    2.500000e+00
 TC3eh TX1vq  1 3.400000e-01    2.740000e+00
 TC2eh TC1vq  1 3.400000e-01    2.990000e+00
 TC2eh TX4vq  1 3.400000e-01    2.020000e+00
 TC2eh TX3vq  1 3.400000e-01    2.500000e+00
 TC2eh TX2vq  1 3.400000e-01    2.500000e+00
 TC2eh TX1vq  1 3.400000e-01    2.500000e+00
 TC1eh TX4vq  1 3.400000e-01    2.020000e+00
 TC1eh TX3vq  1 3.400000e-01    2.500000e+00
 TC1eh TX2vq  1 3.400000e-01    2.500000e+00
 TC1eh TX1vq  1 3.400000e-01    2.500000e+00
 TX4eh TX3vq  1 3.400000e-01    2.740000e+00
 TX4eh TX2vq  1 3.400000e-01    2.740000e+00
 TX4eh TX1vq  1 3.400000e-01    2.740000e+00
 TX3eh TX2vq  1 3.400000e-01    2.990000e+00
 TX3eh TX1vq  1 3.400000e-01    2.990000e+00
 TX2eh TX1vq  1 3.400000e-01    2.990000e+00
 TC6eh TC5vh  1 3.400000e-01    2.500000e+00
 TC6eh TC4vh  1 3.400000e-01    2.500000e+00
 TC6eh TC3vh  1 3.400000e-01    2.280000e+00
 TC6eh TC2vh  1 3.400000e-01    2.020000e+00
 TC6eh TC1vh  1 3.400000e-01    1.770000e+00
 TC6eh TX4vh  1 3.400000e-01    2.500000e+00
 TC6eh TX3vh  1 3.400000e-01    2.500000e+00
 TC6eh TX2vh  1 3.400000e-01    2.500000e+00
 TC6eh TX1vh  1 3.400000e-01    2.500000e+00
 TC5eh TC4vh  1 3.400000e-01    2.500000e+00
 TC5eh TC3vh  1 3.400000e-01    2.280000e+00
 TC5eh TC2vh  1 3.400000e-01    2.020000e+00
 TC5eh TC1vh  1 3.400000e-01    2.020000e+00
 TC5eh TX4vh  1 3.400000e-01    2.280000e+00
 TC5eh TX3vh  1 3.400000e-01    2.280000e+00
 TC5eh TX2vh  1 3.400000e-01    2.280000e+00
 TC5eh TX1vh  1 3.400000e-01    2.500000e+00
 TC4eh TC3vh  1 3.400000e-01    2.500000e+00
 TC4eh TC2vh  1 3.400000e-01    2.280000e+00
 TC4eh TC1vh  1 3.400000e-01    2.020000e+00
 TC4eh TX4vh  1 3.400000e-01    2.280000e+00
 TC4eh TX3vh  1 3.400000e-01    2.280000e+00
 TC4eh TX2vh  1 3.400000e-01    2.280000e+00
 TC4eh TX1vh  1 3.400000e-01    2.500000e+00
 TC3eh TC2vh  1 3.400000e-01    2.500000e+00
 TC3eh TC1vh  1 3.400000e-01    2.500000e+00
 TC3eh TX4vh  1 3.400000e-01    2.280000e+00
 TC3eh TX3vh  1 3.400000e-01    2.280000e+00
 TC3eh TX2vh  1 3.400000e-01    2.280000e+00
 TC3eh TX1vh  1 3.400000e-01    2.500000e+00
 TC2eh TC1vh  1 3.400000e-01    2.740000e+00
 TC2eh TX4vh  1 3.400000e-01    1.770000e+00
 TC2eh TX3vh  1 3.400000e-01    2.280000e+00
 TC2eh TX2vh  1 3.400000e-01    2.280000e+00
 TC2eh TX1vh  1 3.400000e-01    2.280000e+00
 TC1eh TX4vh  1 3.400000e-01    1.770000e+00
 TC1eh TX3vh  1 3.400000e-01    2.280000e+00
 TC1eh TX2vh  1 3.400000e-01    2.280000e+00
 TC1eh TX1vh  1 3.400000e-01    2.280000e+00
 TX4eh TX3vh  1 3.400000e-01    2.500000e+00
 TX4eh TX2vh  1 3.400000e-01    2.500000e+00
 TX4eh TX1vh  1 3.400000e-01    2.500000e+00
 TX3eh TX2vh  1 3.400000e-01    2.740000e+00
 TX3eh TX1vh  1 3.400000e-01    2.740000e+00
 TX2eh TX1vh  1 3.400000e-01    2.740000e+00
 TC6eh TC5vr  1 3.400000e-01    2.280000e+00
 TC6eh TC4vr  1 3.400000e-01    2.280000e+00
 TC6eh TC3vr  1 3.400000e-01    2.020000e+00
 TC6eh TC2vr  1 3.400000e-01    1.770000e+00
 TC6eh TC1vr  1 3.400000e-01    1.510000e+00
 TC6eh TX4vr  1 3.400000e-01    2.280000e+00
 TC6eh TX3vr  1 3.400000e-01    2.280000e+00
 TC6eh TX2vr  1 3.400000e-01    2.280000e+00
 TC6eh TX1vr  1 3.400000e-01    2.280000e+00
 TC5eh TC4vr  1 3.400000e-01    2.280000e+00
 TC5eh TC3vr  1 3.400000e-01    2.020000e+00
 TC5eh TC2vr  1 3.400000e-01    1.770000e+00
 TC5eh TC1vr  1 3.400000e-01    1.770000e+00
 TC5eh TX4vr  1 3.400000e-01    2.020000e+00
 TC5eh TX3vr  1 3.400000e-01    2.020000e+00
 TC5eh TX2vr  1 3.400000e-01    2.020000e+00
 TC5eh TX1vr  1 3.400000e-01    2.280000e+00
 TC4eh TC3vr  1 3.400000e-01    2.280000e+00
 TC4eh TC2vr  1 3.400000e-01    2.020000e+00
 TC4eh TC1vr  1 3.400000e-01    1.770000e+00
 TC4eh TX4vr  1 3.400000e-01    2.020000e+00
 TC4eh TX3vr  1 3.400000e-01    2.020000e+00
 TC4eh TX2vr  1 3.400000e-01    2.020000e+00
 TC4eh TX1vr  1 3.400000e-01    2.280000e+00
 TC3eh TC2vr  1 3.400000e-01    2.280000e+00
 TC3eh TC1vr  1 3.400000e-01    2.280000e+00
 TC3eh TX4vr  1 3.400000e-01    2.020000e+00
 TC3eh TX3vr  1 3.400000e-01    2.020000e+00
 TC3eh TX2vr  1 3.400000e-01    2.020000e+00
 TC3eh TX1vr  1 3.400000e-01    2.280000e+00
 TC2eh TC1vr  1 3.400000e-01    2.500000e+00
 TC2eh TX4vr  1 3.400000e-01    1.510000e+00
 TC2eh TX3vr  1 3.400000e-01    2.020000e+00
 TC2eh TX2vr  1 3.400000e-01    2.020000e+00
 TC2eh TX1vr  1 3.400000e-01    2.020000e+00
 TC1eh TX4vr  1 3.400000e-01    1.510000e+00
 TC1eh TX3vr  1 3.400000e-01    2.020000e+00
 TC1eh TX2vr  1 3.400000e-01    2.020000e+00
 TC1eh TX1vr  1 3.400000e-01    2.020000e+00
 TX4eh TX3vr  1 3.400000e-01    2.280000e+00
 TX4eh TX2vr  1 3.400000e-01    2.280000e+00
 TX4eh TX1vr  1 3.400000e-01    2.280000e+00
 TX3eh TX2vr  1 3.400000e-01    2.500000e+00
 TX3eh TX1vr  1 3.400000e-01    2.500000e+00
 TX2eh TX1vr  1 3.400000e-01    2.500000e+00
 TX2er  TX1v  1 3.400000e-01    2.500000e+00
 TX3er  TX2v  1 3.400000e-01    2.500000e+00
 TX3er  TX1v  1 3.400000e-01    2.500000e+00
 TX4er  TX3v  1 3.400000e-01    2.280000e+00
 TX4er  TX2v  1 3.400000e-01    2.280000e+00
 TX4er  TX1v  1 3.400000e-01    2.280000e+00
 TC1er  TX4v  1 3.400000e-01    1.510000e+00
 TC1er  TX3v  1 3.400000e-01    2.020000e+00
 TC1er  TX2v  1 3.400000e-01    2.020000e+00
 TC1er  TX1v  1 3.400000e-01    2.020000e+00
 TC2er  TC1v  1 3.400000e-01    2.500000e+00
 TC2er  TX4v  1 3.400000e-01    1.510000e+00
 TC2er  TX3v  1 3.400000e-01    2.020000e+00
 TC2er  TX2v  1 3.400000e-01    2.020000e+00
 TC2er  TX1v  1 3.400000e-01    2.020000e+00
 TC3er  TC2v  1 3.400000e-01    2.280000e+00
 TC3er  TC1v  1 3.400000e-01    2.280000e+00
 TC3er  TX4v  1 3.400000e-01    2.020000e+00
 TC3er  TX3v  1 3.400000e-01    2.020000e+00
 TC3er  TX2v  1 3.400000e-01    2.020000e+00
 TC3er  TX1v  1 3.400000e-01    2.280000e+00
 TC4er  TC3v  1 3.400000e-01    2.280000e+00
 TC4er  TC2v  1 3.400000e-01    2.020000e+00
 TC4er  TC1v  1 3.400000e-01    1.770000e+00
 TC4er  TX4v  1 3.400000e-01    2.020000e+00
 TC4er  TX3v  1 3.400000e-01    2.020000e+00
 TC4er  TX2v  1 3.400000e-01    2.020000e+00
 TC4er  TX1v  1 3.400000e-01    2.280000e+00
 TC5er  TC4v  1 3.400000e-01    2.280000e+00
 TC5er  TC3v  1 3.400000e-01    2.020000e+00
 TC5er  TC2v  1 3.400000e-01    1.770000e+00
 TC5er  TC1v  1 3.400000e-01    1.770000e+00
 TC5er  TX4v  1 3.400000e-01    2.020000e+00
 TC5er  TX3v  1 3.400000e-01    2.020000e+00
 TC5er  TX2v  1 3.400000e-01    2.020000e+00
 TC5er  TX1v  1 3.400000e-01    2.280000e+00
 TC6er  TC5v  1 3.400000e-01    2.280000e+00
 TC6er  TC4v  1 3.400000e-01    2.280000e+00
 TC6er  TC3v  1 3.400000e-01    2.020000e+00
 TC6er  TC2v  1 3.400000e-01    1.770000e+00
 TC6er  TC1v  1 3.400000e-01    1.510000e+00
 TC6er  TX4v  1 3.400000e-01    2.280000e+00
 TC6er  TX3v  1 3.400000e-01    2.280000e+00
 TC6er  TX2v  1 3.400000e-01    2.280000e+00
 TC6er  TX1v  1 3.400000e-01    2.280000e+00
 TC6er TC5vq  1 3.400000e-01    2.740000e+00
 TC6er TC4vq  1 3.400000e-01    2.740000e+00
 TC6er TC3vq  1 3.400000e-01    2.500000e+00
 TC6er TC2vq  1 3.400000e-01    2.280000e+00
 TC6er TC1vq  1 3.400000e-01    2.020000e+00
 TC6er TX4vq  1 3.400000e-01    2.740000e+00
 TC6er TX3vq  1 3.400000e-01    2.740000e+00
 TC6er TX2vq  1 3.400000e-01    2.740000e+00
 TC6er TX1vq  1 3.400000e-01    2.740000e+00
 TC5er TC4vq  1 3.400000e-01    2.740000e+00
 TC5er TC3vq  1 3.400000e-01    2.500000e+00
 TC5er TC2vq  1 3.400000e-01    2.280000e+00
 TC5er TC1vq  1 3.400000e-01    2.280000e+00
 TC5er TX4vq  1 3.400000e-01    2.500000e+00
 TC5er TX3vq  1 3.400000e-01    2.500000e+00
 TC5er TX2vq  1 3.400000e-01    2.500000e+00
 TC5er TX1vq  1 3.400000e-01    2.740000e+00
 TC4er TC3vq  1 3.400000e-01    2.740000e+00
 TC4er TC2vq  1 3.400000e-01    2.500000e+00
 TC4er TC1vq  1 3.400000e-01    2.280000e+00
 TC4er TX4vq  1 3.400000e-01    2.500000e+00
 TC4er TX3vq  1 3.400000e-01    2.500000e+00
 TC4er TX2vq  1 3.400000e-01    2.500000e+00
 TC4er TX1vq  1 3.400000e-01    2.740000e+00
 TC3er TC2vq  1 3.400000e-01    2.740000e+00
 TC3er TC1vq  1 3.400000e-01    2.740000e+00
 TC3er TX4vq  1 3.400000e-01    2.500000e+00
 TC3er TX3vq  1 3.400000e-01    2.500000e+00
 TC3er TX2vq  1 3.400000e-01    2.500000e+00
 TC3er TX1vq  1 3.400000e-01    2.740000e+00
 TC2er TC1vq  1 3.400000e-01    2.990000e+00
 TC2er TX4vq  1 3.400000e-01    2.020000e+00
 TC2er TX3vq  1 3.400000e-01    2.500000e+00
 TC2er TX2vq  1 3.400000e-01    2.500000e+00
 TC2er TX1vq  1 3.400000e-01    2.500000e+00
 TC1er TX4vq  1 3.400000e-01    2.020000e+00
 TC1er TX3vq  1 3.400000e-01    2.500000e+00
 TC1er TX2vq  1 3.400000e-01    2.500000e+00
 TC1er TX1vq  1 3.400000e-01    2.500000e+00
 TX4er TX3vq  1 3.400000e-01    2.740000e+00
 TX4er TX2vq  1 3.400000e-01    2.740000e+00
 TX4er TX1vq  1 3.400000e-01    2.740000e+00
 TX3er TX2vq  1 3.400000e-01    2.990000e+00
 TX3er TX1vq  1 3.400000e-01    2.990000e+00
 TX2er TX1vq  1 3.400000e-01    2.990000e+00
 TC6er TC5vh  1 3.400000e-01    2.280000e+00
 TC6er TC4vh  1 3.400000e-01    2.280000e+00
 TC6er TC3vh  1 3.400000e-01    2.020000e+00
 TC6er TC2vh  1 3.400000e-01    1.770000e+00
 TC6er TC1vh  1 3.400000e-01    1.510000e+00
 TC6er TX4vh  1 3.400000e-01    2.280000e+00
 TC6er TX3vh  1 3.400000e-01    2.280000e+00
 TC6er TX2vh  1 3.400000e-01    2.280000e+00
 TC6er TX1vh  1 3.400000e-01    2.280000e+00
 TC5er TC4vh  1 3.400000e-01    2.280000e+00
 TC5er TC3vh  1 3.400000e-01    2.020000e+00
 TC5er TC2vh  1 3.400000e-01    1.770000e+00
 TC5er TC1vh  1 3.400000e-01    1.770000e+00
 TC5er TX4vh  1 3.400000e-01    2.020000e+00
 TC5er TX3vh  1 3.400000e-01    2.020000e+00
 TC5er TX2vh  1 3.400000e-01    2.020000e+00
 TC5er TX1vh  1 3.400000e-01    2.280000e+00
 TC4er TC3vh  1 3.400000e-01    2.280000e+00
 TC4er TC2vh  1 3.400000e-01    2.020000e+00
 TC4er TC1vh  1 3.400000e-01    1.770000e+00
 TC4er TX4vh  1 3.400000e-01    2.020000e+00
 TC4er TX3vh  1 3.400000e-01    2.020000e+00
 TC4er TX2vh  1 3.400000e-01    2.020000e+00
 TC4er TX1vh  1 3.400000e-01    2.280000e+00
 TC3er TC2vh  1 3.400000e-01    2.280000e+00
 TC3er TC1vh  1 3.400000e-01    2.280000e+00
 TC3er TX4vh  1 3.400000e-01    2.020000e+00
 TC3er TX3vh  1 3.400000e-01    2.020000e+00
 TC3er TX2vh  1 3.400000e-01    2.020000e+00
 TC3er TX1vh  1 3.400000e-01    2.280000e+00
 TC2er TC1vh  1 3.400000e-01    2.500000e+00
 TC2er TX4vh  1 3.400000e-01    1.510000e+00
 TC2er TX3vh  1 3.400000e-01    2.020000e+00
 TC2er TX2vh  1 3.400000e-01    2.020000e+00
 TC2er TX1vh  1 3.400000e-01    2.020000e+00
 TC1er TX4vh  1 3.400000e-01    1.510000e+00
 TC1er TX3vh  1 3.400000e-01    2.020000e+00
 TC1er TX2vh  1 3.400000e-01    2.020000e+00
 TC1er TX1vh  1 3.400000e-01    2.020000e+00
 TX4er TX3vh  1 3.400000e-01    2.280000e+00
 TX4er TX2vh  1 3.400000e-01    2.280000e+00
 TX4er TX1vh  1 3.400000e-01    2.280000e+00
 TX3er TX2vh  1 3.400000e-01    2.500000e+00
 TX3er TX1vh  1 3.400000e-01    2.500000e+00
 TX2er TX1vh  1 3.400000e-01    2.500000e+00
 TC6er TC5vr  1 3.400000e-01    2.020000e+00
 TC6er TC4vr  1 3.400000e-01    2.020000e+00
 TC6er TC3vr  1 3.400000e-01    1.770000e+00
 TC6er TC2vr  1 3.400000e-01    1.510000e+00
 TC6er TC1vr  1 3.400000e-01    1.230000e+00
 TC6er TX4vr  1 3.400000e-01    2.020000e+00
 TC6er TX3vr  1 3.400000e-01    2.020000e+00
 TC6er TX2vr  1 3.400000e-01    2.020000e+00
 TC6er TX1vr  1 3.400000e-01    2.020000e+00
 TC5er TC4vr  1 3.400000e-01    2.020000e+00
 TC5er TC3vr  1 3.400000e-01    1.770000e+00
 TC5er TC2vr  1 3.400000e-01    1.510000e+00
 TC5er TC1vr  1 3.400000e-01    1.510000e+00
 TC5er TX4vr  1 3.400000e-01    1.770000e+00
 TC5er TX3vr  1 3.400000e-01    1.770000e+00
 TC5er TX2vr  1 3.400000e-01    1.770000e+00
 TC5er TX1vr  1 3.400000e-01    2.020000e+00
 TC4er TC3vr  1 3.400000e-01    2.020000e+00
 TC4er TC2vr  1 3.400000e-01    1.770000e+00
 TC4er TC1vr  1 3.400000e-01    1.510000e+00
 TC4er TX4vr  1 3.400000e-01    1.770000e+00
 TC4er TX3vr  1 3.400000e-01    1.770000e+00
 TC4er TX2vr  1 3.400000e-01    1.770000e+00
 TC4er TX1vr  1 3.400000e-01    2.020000e+00
 TC3er TC2vr  1 3.400000e-01    2.020000e+00
 TC3er TC1vr  1 3.400000e-01    2.020000e+00
 TC3er TX4vr  1 3.400000e-01    1.770000e+00
 TC3er TX3vr  1 3.400000e-01    1.770000e+00
 TC3er TX2vr  1 3.400000e-01    1.770000e+00
 TC3er TX1vr  1 3.400000e-01    2.020000e+00
 TC2er TC1vr  1 3.400000e-01    2.280000e+00
 TC2er TX4vr  1 3.400000e-01    1.230000e+00
 TC2er TX3vr  1 3.400000e-01    1.770000e+00
 TC2er TX2vr  1 3.400000e-01    1.770000e+00
 TC2er TX1vr  1 3.400000e-01    1.770000e+00
 TC1er TX4vr  1 3.400000e-01    1.230000e+00
 TC1er TX3vr  1 3.400000e-01    1.770000e+00
 TC1er TX2vr  1 3.400000e-01    1.770000e+00
 TC1er TX1vr  1 3.400000e-01    1.770000e+00
 TX4er TX3vr  1 3.400000e-01    2.020000e+00
 TX4er TX2vr  1 3.400000e-01    2.020000e+00
 TX4er TX1vr  1 3.400000e-01    2.020000e+00
 TX3er TX2vr  1 3.400000e-01    2.280000e+00
 TX3er TX1vr  1 3.400000e-01    2.280000e+00
 TX2er TX1vr  1 3.400000e-01    2.280000e+00
  TC6v  TC6v  1 3.400000e-01    1.510000e+00
  TC6v  TC5v  1 3.400000e-01    1.230000e+00
  TC6v  TC4v  1 3.400000e-01    1.230000e+00
  TC6v  TC3v  1 3.520000e-01    1.050000e+00
  TC6v  TC2v  1 3.660000e-01    9.350000e-01
  TC6v  TC1v  1 3.850000e-01    8.550000e-01
  TC6v  TX4v  1 3.400000e-01    1.230000e+00
  TC6v  TX3v  1 3.400000e-01    1.230000e+00
  TC6v  TX2v  1 3.400000e-01    1.230000e+00
  TC6v  TX1v  1 3.400000e-01    1.230000e+00
  TC5v  TC5v  1 3.400000e-01    1.230000e+00
  TC5v  TC4v  1 3.400000e-01    1.230000e+00
  TC5v  TC3v  1 3.520000e-01    1.050000e+00
  TC5v  TC2v  1 3.660000e-01    9.350000e-01
  TC5v  TC1v  1 3.660000e-01    9.350000e-01
  TC5v  TX4v  1 3.520000e-01    1.050000e+00
  TC5v  TX3v  1 3.520000e-01    1.050000e+00
  TC5v  TX2v  1 3.520000e-01    1.050000e+00
  TC5v  TX1v  1 3.400000e-01    1.230000e+00
  TC4v  TC4v  1 3.400000e-01    1.230000e+00
  TC4v  TC3v  1 3.400000e-01    1.230000e+00
  TC4v  TC2v  1 3.520000e-01    1.050000e+00
  TC4v  TC1v  1 3.660000e-01    9.350000e-01
  TC4v  TX4v  1 3.520000e-01    1.050000e+00
  TC4v  TX3v  1 3.520000e-01    1.050000e+00
  TC4v  TX2v  1 3.520000e-01    1.050000e+00
  TC4v  TX1v  1 3.400000e-01    1.230000e+00
  TC3v  TC3v  1 3.400000e-01    1.230000e+00
  TC3v  TC2v  1 3.400000e-01    1.230000e+00
  TC3v  TC1v  1 3.400000e-01    1.230000e+00
  TC3v  TX4v  1 3.520000e-01    1.050000e+00
  TC3v  TX3v  1 3.520000e-01    1.050000e+00
  TC3v  TX2v  1 3.520000e-01    1.050000e+00
  TC3v  TX1v  1 3.400000e-01    1.230000e+00
  TC2v  TC2v  1 3.400000e-01    1.230000e+00
  TC2v  TC1v  1 3.400000e-01    1.510000e+00
  TC2v  TX4v  1 3.850000e-01    8.550000e-01
  TC2v  TX3v  1 3.520000e-01    1.050000e+00
  TC2v  TX2v  1 3.520000e-01    1.050000e+00
  TC2v  TX1v  1 3.520000e-01    1.050000e+00
  TC1v  TC1v  1 3.400000e-01    1.230000e+00
  TC1v  TX4v  1 3.850000e-01    8.550000e-01
  TC1v  TX3v  1 3.520000e-01    1.050000e+00
  TC1v  TX2v  1 3.520000e-01    1.050000e+00
  TC1v  TX1v  1 3.520000e-01    1.050000e+00
  TX4v  TX4v  1 3.400000e-01    1.230000e+00
  TX4v  TX3v  1 3.400000e-01    1.230000e+00
  TX4v  TX2v  1 3.400000e-01    1.230000e+00
  TX4v  TX1v  1 3.400000e-01    1.230000e+00
  TX3v  TX3v  1 3.400000e-01    1.230000e+00
  TX3v  TX2v  1 3.400000e-01    1.510000e+00
  TX3v  TX1v  1 3.400000e-01    1.510000e+00
  TX2v  TX2v  1 3.400000e-01    1.510000e+00
  TX2v  TX1v  1 3.400000e-01    1.510000e+00
  TX1v  TX1v  1 3.400000e-01    1.770000e+00
  TC6v TC6vq  1 3.400000e-01    2.020000e+00
  TC5v TC5vq  1 3.400000e-01    1.770000e+00
  TC4v TC4vq  1 3.400000e-01    1.770000e+00
  TC3v TC3vq  1 3.400000e-01    1.770000e+00
  TC2v TC2vq  1 3.400000e-01    1.770000e+00
  TC1v TC1vq  1 3.400000e-01    1.770000e+00
  TX4v TX4vq  1 3.400000e-01    1.770000e+00
  TX3v TX3vq  1 3.400000e-01    1.770000e+00
  TX2v TX2vq  1 3.400000e-01    2.020000e+00
  TX1v TX1vq  1 3.400000e-01    2.280000e+00
  TC6v TX1vq  1 3.400000e-01    1.770000e+00
  TC5v TX1vq  1 3.400000e-01    1.770000e+00
  TC4v TX1vq  1 3.400000e-01    1.770000e+00
  TC3v TX1vq  1 3.400000e-01    1.770000e+00
  TC2v TX1vq  1 3.400000e-01    1.510000e+00
  TC1v TX1vq  1 3.400000e-01    1.510000e+00
  TX4v TX1vq  1 3.400000e-01    1.770000e+00
  TX3v TX1vq  1 3.400000e-01    2.020000e+00
  TX2v TX1vq  1 3.400000e-01    2.020000e+00
  TC6v TX2vq  1 3.400000e-01    1.770000e+00
  TC5v TX2vq  1 3.400000e-01    1.510000e+00
  TC4v TX2vq  1 3.400000e-01    1.510000e+00
  TC3v TX2vq  1 3.400000e-01    1.510000e+00
  TC2v TX2vq  1 3.400000e-01    1.510000e+00
  TC1v TX2vq  1 3.400000e-01    1.510000e+00
  TX4v TX2vq  1 3.400000e-01    1.770000e+00
  TX3v TX2vq  1 3.400000e-01    2.020000e+00
  TC6v TX3vq  1 3.400000e-01    1.770000e+00
  TC5v TX3vq  1 3.400000e-01    1.510000e+00
  TC4v TX3vq  1 3.400000e-01    1.510000e+00
  TC3v TX3vq  1 3.400000e-01    1.510000e+00
  TC2v TX3vq  1 3.400000e-01    1.510000e+00
  TC1v TX3vq  1 3.400000e-01    1.510000e+00
  TX4v TX3vq  1 3.400000e-01    1.770000e+00
  TC6v TX4vq  1 3.400000e-01    1.770000e+00
  TC5v TX4vq  1 3.400000e-01    1.510000e+00
  TC4v TX4vq  1 3.400000e-01    1.510000e+00
  TC3v TX4vq  1 3.400000e-01    1.510000e+00
  TC2v TX4vq  1 3.520000e-01    1.050000e+00
  TC1v TX4vq  1 3.520000e-01    1.050000e+00
  TC6v TC1vq  1 3.520000e-01    1.050000e+00
  TC5v TC1vq  1 3.400000e-01    1.230000e+00
  TC4v TC1vq  1 3.400000e-01    1.230000e+00
  TC3v TC1vq  1 3.400000e-01    1.770000e+00
  TC2v TC1vq  1 3.400000e-01    2.020000e+00
  TC6v TC2vq  1 3.400000e-01    1.230000e+00
  TC5v TC2vq  1 3.400000e-01    1.230000e+00
  TC4v TC2vq  1 3.400000e-01    1.510000e+00
  TC3v TC2vq  1 3.400000e-01    1.770000e+00
  TC6v TC3vq  1 3.400000e-01    1.510000e+00
  TC5v TC3vq  1 3.400000e-01    1.510000e+00
  TC4v TC3vq  1 3.400000e-01    1.770000e+00
  TC6v TC4vq  1 3.400000e-01    1.770000e+00
  TC5v TC4vq  1 3.400000e-01    1.770000e+00
  TC6v TC5vq  1 3.400000e-01    1.770000e+00
  TC6v TC6vh  1 3.400000e-01    1.510000e+00
  TC5v TC5vh  1 3.400000e-01    1.230000e+00
  TC4v TC4vh  1 3.400000e-01    1.230000e+00
  TC3v TC3vh  1 3.400000e-01    1.230000e+00
  TC2v TC2vh  1 3.400000e-01    1.230000e+00
  TC1v TC1vh  1 3.400000e-01    1.230000e+00
  TX4v TX4vh  1 3.400000e-01    1.230000e+00
  TX3v TX3vh  1 3.400000e-01    1.230000e+00
  TX2v TX2vh  1 3.400000e-01    1.510000e+00
  TX1v TX1vh  1 3.400000e-01    1.770000e+00
  TC6v TX1vh  1 3.400000e-01    1.230000e+00
  TC5v TX1vh  1 3.400000e-01    1.230000e+00
  TC4v TX1vh  1 3.400000e-01    1.230000e+00
  TC3v TX1vh  1 3.400000e-01    1.230000e+00
  TC2v TX1vh  1 3.520000e-01    1.050000e+00
  TC1v TX1vh  1 3.520000e-01    1.050000e+00
  TX4v TX1vh  1 3.400000e-01    1.230000e+00
  TX3v TX1vh  1 3.400000e-01    1.510000e+00
  TX2v TX1vh  1 3.400000e-01    1.510000e+00
  TC6v TX2vh  1 3.400000e-01    1.230000e+00
  TC5v TX2vh  1 3.520000e-01    1.050000e+00
  TC4v TX2vh  1 3.520000e-01    1.050000e+00
  TC3v TX2vh  1 3.520000e-01    1.050000e+00
  TC2v TX2vh  1 3.520000e-01    1.050000e+00
  TC1v TX2vh  1 3.520000e-01    1.050000e+00
  TX4v TX2vh  1 3.400000e-01    1.230000e+00
  TX3v TX2vh  1 3.400000e-01    1.510000e+00
  TC6v TX3vh  1 3.400000e-01    1.230000e+00
  TC5v TX3vh  1 3.520000e-01    1.050000e+00
  TC4v TX3vh  1 3.520000e-01    1.050000e+00
  TC3v TX3vh  1 3.520000e-01    1.050000e+00
  TC2v TX3vh  1 3.520000e-01    1.050000e+00
  TC1v TX3vh  1 3.520000e-01    1.050000e+00
  TX4v TX3vh  1 3.400000e-01    1.230000e+00
  TC6v TX4vh  1 3.400000e-01    1.230000e+00
  TC5v TX4vh  1 3.520000e-01    1.050000e+00
  TC4v TX4vh  1 3.520000e-01    1.050000e+00
  TC3v TX4vh  1 3.520000e-01    1.050000e+00
  TC2v TX4vh  1 3.850000e-01    8.550000e-01
  TC1v TX4vh  1 3.850000e-01    8.550000e-01
  TC6v TC1vh  1 3.850000e-01    8.550000e-01
  TC5v TC1vh  1 3.660000e-01    9.350000e-01
  TC4v TC1vh  1 3.660000e-01    9.350000e-01
  TC3v TC1vh  1 3.400000e-01    1.230000e+00
  TC2v TC1vh  1 3.400000e-01    1.510000e+00
  TC6v TC2vh  1 3.660000e-01    9.350000e-01
  TC5v TC2vh  1 3.660000e-01    9.350000e-01
  TC4v TC2vh  1 3.520000e-01    1.050000e+00
  TC3v TC2vh  1 3.400000e-01    1.230000e+00
  TC6v TC3vh  1 3.520000e-01    1.050000e+00
  TC5v TC3vh  1 3.520000e-01    1.050000e+00
  TC4v TC3vh  1 3.400000e-01    1.230000e+00
  TC6v TC4vh  1 3.400000e-01    1.230000e+00
  TC5v TC4vh  1 3.400000e-01    1.230000e+00
  TC6v TC5vh  1 3.400000e-01    1.230000e+00
  TC6v TC6vr  1 3.400000e-01    1.510000e+00
  TC5v TC5vr  1 3.400000e-01    1.230000e+00
  TC4v TC4vr  1 3.400000e-01    1.230000e+00
  TC3v TC3vr  1 3.400000e-01    1.230000e+00
  TC2v TC2vr  1 3.400000e-01    1.230000e+00
  TC1v TC1vr  1 3.400000e-01    1.230000e+00
  TX4v TX4vr  1 3.400000e-01    1.230000e+00
  TX3v TX3vr  1 3.400000e-01    1.230000e+00
  TX2v TX2vr  1 3.400000e-01    1.510000e+00
  TX1v TX1vr  1 3.400000e-01    1.770000e+00
  TC6v TX1vr  1 3.400000e-01    1.230000e+00
  TC5v TX1vr  1 3.400000e-01    1.230000e+00
  TC4v TX1vr  1 3.400000e-01    1.230000e+00
  TC3v TX1vr  1 3.400000e-01    1.230000e+00
  TC2v TX1vr  1 3.520000e-01    1.050000e+00
  TC1v TX1vr  1 3.520000e-01    1.050000e+00
  TX4v TX1vr  1 3.400000e-01    1.230000e+00
  TX3v TX1vr  1 3.400000e-01    1.510000e+00
  TX2v TX1vr  1 3.400000e-01    1.510000e+00
  TC6v TX2vr  1 3.400000e-01    1.230000e+00
  TC5v TX2vr  1 3.520000e-01    1.050000e+00
  TC4v TX2vr  1 3.520000e-01    1.050000e+00
  TC3v TX2vr  1 3.520000e-01    1.050000e+00
  TC2v TX2vr  1 3.520000e-01    1.050000e+00
  TC1v TX2vr  1 3.520000e-01    1.050000e+00
  TX4v TX2vr  1 3.400000e-01    1.230000e+00
  TX3v TX2vr  1 3.400000e-01    1.510000e+00
  TC6v TX3vr  1 3.400000e-01    1.230000e+00
  TC5v TX3vr  1 3.520000e-01    1.050000e+00
  TC4v TX3vr  1 3.520000e-01    1.050000e+00
  TC3v TX3vr  1 3.520000e-01    1.050000e+00
  TC2v TX3vr  1 3.520000e-01    1.050000e+00
  TC1v TX3vr  1 3.520000e-01    1.050000e+00
  TX4v TX3vr  1 3.400000e-01    1.230000e+00
  TC6v TX4vr  1 3.400000e-01    1.230000e+00
  TC5v TX4vr  1 3.520000e-01    1.050000e+00
  TC4v TX4vr  1 3.520000e-01    1.050000e+00
  TC3v TX4vr  1 3.520000e-01    1.050000e+00
  TC2v TX4vr  1 3.850000e-01    8.550000e-01
  TC1v TX4vr  1 3.850000e-01    8.550000e-01
  TC6v TC1vr  1 3.850000e-01    8.550000e-01
  TC5v TC1vr  1 3.660000e-01    9.350000e-01
  TC4v TC1vr  1 3.660000e-01    9.350000e-01
  TC3v TC1vr  1 3.400000e-01    1.230000e+00
  TC2v TC1vr  1 3.400000e-01    1.510000e+00
  TC6v TC2vr  1 3.660000e-01    9.350000e-01
  TC5v TC2vr  1 3.660000e-01    9.350000e-01
  TC4v TC2vr  1 3.520000e-01    1.050000e+00
  TC3v TC2vr  1 3.400000e-01    1.230000e+00
  TC6v TC3vr  1 3.520000e-01    1.050000e+00
  TC5v TC3vr  1 3.520000e-01    1.050000e+00
  TC4v TC3vr  1 3.400000e-01    1.230000e+00
  TC6v TC4vr  1 3.400000e-01    1.230000e+00
  TC5v TC4vr  1 3.400000e-01    1.230000e+00
  TC6v TC5vr  1 3.400000e-01    1.230000e+00
 TC6vq  TC5v  1 3.400000e-01    1.770000e+00
 TC6vq  TC4v  1 3.400000e-01    1.770000e+00
 TC6vq  TC3v  1 3.400000e-01    1.510000e+00
 TC6vq  TC2v  1 3.400000e-01    1.230000e+00
 TC6vq  TC1v  1 3.520000e-01    1.050000e+00
 TC6vq  TX4v  1 3.400000e-01    1.770000e+00
 TC6vq  TX3v  1 3.400000e-01    1.770000e+00
 TC6vq  TX2v  1 3.400000e-01    1.770000e+00
 TC6vq  TX1v  1 3.400000e-01    1.770000e+00
 TC5vq  TC4v  1 3.400000e-01    1.770000e+00
 TC5vq  TC3v  1 3.400000e-01    1.510000e+00
 TC5vq  TC2v  1 3.400000e-01    1.230000e+00
 TC5vq  TC1v  1 3.400000e-01    1.230000e+00
 TC5vq  TX4v  1 3.400000e-01    1.510000e+00
 TC5vq  TX3v  1 3.400000e-01    1.510000e+00
 TC5vq  TX2v  1 3.400000e-01    1.510000e+00
 TC5vq  TX1v  1 3.400000e-01    1.770000e+00
 TC4vq  TC3v  1 3.400000e-01    1.770000e+00
 TC4vq  TC2v  1 3.400000e-01    1.510000e+00
 TC4vq  TC1v  1 3.400000e-01    1.230000e+00
 TC4vq  TX4v  1 3.400000e-01    1.510000e+00
 TC4vq  TX3v  1 3.400000e-01    1.510000e+00
 TC4vq  TX2v  1 3.400000e-01    1.510000e+00
 TC4vq  TX1v  1 3.400000e-01    1.770000e+00
 TC3vq  TC2v  1 3.400000e-01    1.770000e+00
 TC3vq  TC1v  1 3.400000e-01    1.770000e+00
 TC3vq  TX4v  1 3.400000e-01    1.510000e+00
 TC3vq  TX3v  1 3.400000e-01    1.510000e+00
 TC3vq  TX2v  1 3.400000e-01    1.510000e+00
 TC3vq  TX1v  1 3.400000e-01    1.770000e+00
 TC2vq  TC1v  1 3.400000e-01    2.020000e+00
 TC2vq  TX4v  1 3.520000e-01    1.050000e+00
 TC2vq  TX3v  1 3.400000e-01    1.510000e+00
 TC2vq  TX2v  1 3.400000e-01    1.510000e+00
 TC2vq  TX1v  1 3.400000e-01    1.510000e+00
 TC1vq  TX4v  1 3.520000e-01    1.050000e+00
 TC1vq  TX3v  1 3.400000e-01    1.510000e+00
 TC1vq  TX2v  1 3.400000e-01    1.510000e+00
 TC1vq  TX1v  1 3.400000e-01    1.510000e+00
 TX4vq  TX3v  1 3.400000e-01    1.770000e+00
 TX4vq  TX2v  1 3.400000e-01    1.770000e+00
 TX4vq  TX1v  1 3.400000e-01    1.770000e+00
 TX3vq  TX2v  1 3.400000e-01    2.020000e+00
 TX3vq  TX1v  1 3.400000e-01    2.020000e+00
 TX2vq  TX1v  1 3.400000e-01    2.020000e+00
 TC6vq TC6vq  1 3.400000e-01    2.020000e+00
 TC6vq TC5vq  1 3.400000e-01    1.770000e+00
 TC6vq TC4vq  1 3.400000e-01    1.770000e+00
 TC6vq TC3vq  1 3.400000e-01    1.510000e+00
 TC6vq TC2vq  1 3.400000e-01    1.230000e+00
 TC6vq TC1vq  1 3.520000e-01    1.050000e+00
 TC6vq TX4vq  1 3.400000e-01    1.770000e+00
 TC6vq TX3vq  1 3.400000e-01    1.770000e+00
 TC6vq TX2vq  1 3.400000e-01    1.770000e+00
 TC6vq TX1vq  1 3.400000e-01    1.770000e+00
 TC5vq TC5vq  1 3.400000e-01    1.770000e+00
 TC5vq TC4vq  1 3.400000e-01    1.770000e+00
 TC5vq TC3vq  1 3.400000e-01    1.510000e+00
 TC5vq TC2vq  1 3.400000e-01    1.230000e+00
 TC5vq TC1vq  1 3.400000e-01    1.230000e+00
 TC5vq TX4vq  1 3.400000e-01    1.510000e+00
 TC5vq TX3vq  1 3.400000e-01    1.510000e+00
 TC5vq TX2vq  1 3.400000e-01    1.510000e+00
 TC5vq TX1vq  1 3.400000e-01    1.770000e+00
 TC4vq TC4vq  1 3.400000e-01    1.770000e+00
 TC4vq TC3vq  1 3.400000e-01    1.770000e+00
 TC4vq TC2vq  1 3.400000e-01    1.510000e+00
 TC4vq TC1vq  1 3.400000e-01    1.230000e+00
 TC4vq TX4vq  1 3.400000e-01    1.510000e+00
 TC4vq TX3vq  1 3.400000e-01    1.510000e+00
 TC4vq TX2vq  1 3.400000e-01    1.510000e+00
 TC4vq TX1vq  1 3.400000e-01    1.770000e+00
 TC3vq TC3vq  1 3.400000e-01    1.770000e+00
 TC3vq TC2vq  1 3.400000e-01    1.770000e+00
 TC3vq TC1vq  1 3.400000e-01    1.770000e+00
 TC3vq TX4vq  1 3.400000e-01    1.510000e+00
 TC3vq TX3vq  1 3.400000e-01    1.510000e+00
 TC3vq TX2vq  1 3.400000e-01    1.510000e+00
 TC3vq TX1vq  1 3.400000e-01    1.770000e+00
 TC2vq TC2vq  1 3.400000e-01    1.770000e+00
 TC2vq TC1vq  1 3.400000e-01    2.020000e+00
 TC2vq TX4vq  1 3.520000e-01    1.050000e+00
 TC2vq TX3vq  1 3.400000e-01    1.510000e+00
 TC2vq TX2vq  1 3.400000e-01    1.510000e+00
 TC2vq TX1vq  1 3.400000e-01    1.510000e+00
 TC1vq TC1vq  1 3.400000e-01    1.770000e+00
 TC1vq TX4vq  1 3.520000e-01    1.050000e+00
 TC1vq TX3vq  1 3.400000e-01    1.510000e+00
 TC1vq TX2vq  1 3.400000e-01    1.510000e+00
 TC1vq TX1vq  1 3.400000e-01    1.510000e+00
 TX4vq TX4vq  1 3.400000e-01    1.770000e+00
 TX4vq TX3vq  1 3.400000e-01    1.770000e+00
 TX4vq TX2vq  1 3.400000e-01    1.770000e+00
 TX4vq TX1vq  1 3.400000e-01    1.770000e+00
 TX3vq TX3vq  1 3.400000e-01    1.770000e+00
 TX3vq TX2vq  1 3.400000e-01    2.020000e+00
 TX3vq TX1vq  1 3.400000e-01    2.020000e+00
 TX2vq TX2vq  1 3.400000e-01    2.020000e+00
 TX2vq TX1vq  1 3.400000e-01    2.020000e+00
 TX1vq TX1vq  1 3.400000e-01    2.280000e+00
 TC6vq TC5vh  1 3.400000e-01    1.770000e+00
 TC6vq TC4vh  1 3.400000e-01    1.770000e+00
 TC5vq TC4vh  1 3.400000e-01    1.770000e+00
 TC6vq TC3vh  1 3.400000e-01    1.510000e+00
 TC5vq TC3vh  1 3.400000e-01    1.510000e+00
 TC4vq TC3vh  1 3.400000e-01    1.770000e+00
 TC6vq TC2vh  1 3.400000e-01    1.230000e+00
 TC5vq TC2vh  1 3.400000e-01    1.230000e+00
 TC4vq TC2vh  1 3.400000e-01    1.510000e+00
 TC3vq TC2vh  1 3.400000e-01    1.770000e+00
 TC6vq TC1vh  1 3.520000e-01    1.050000e+00
 TC5vq TC1vh  1 3.400000e-01    1.230000e+00
 TC4vq TC1vh  1 3.400000e-01    1.230000e+00
 TC3vq TC1vh  1 3.400000e-01    1.770000e+00
 TC2vq TC1vh  1 3.400000e-01    2.020000e+00
 TC6vq TX4vh  1 3.400000e-01    1.770000e+00
 TC5vq TX4vh  1 3.400000e-01    1.510000e+00
 TC4vq TX4vh  1 3.400000e-01    1.510000e+00
 TC3vq TX4vh  1 3.400000e-01    1.510000e+00
 TC2vq TX4vh  1 3.520000e-01    1.050000e+00
 TC1vq TX4vh  1 3.520000e-01    1.050000e+00
 TC6vq TX3vh  1 3.400000e-01    1.770000e+00
 TC5vq TX3vh  1 3.400000e-01    1.510000e+00
 TC4vq TX3vh  1 3.400000e-01    1.510000e+00
 TC3vq TX3vh  1 3.400000e-01    1.510000e+00
 TC2vq TX3vh  1 3.400000e-01    1.510000e+00
 TC1vq TX3vh  1 3.400000e-01    1.510000e+00
 TX4vq TX3vh  1 3.400000e-01    1.770000e+00
 TC6vq TX2vh  1 3.400000e-01    1.770000e+00
 TC5vq TX2vh  1 3.400000e-01    1.510000e+00
 TC4vq TX2vh  1 3.400000e-01    1.510000e+00
 TC3vq TX2vh  1 3.400000e-01    1.510000e+00
 TC2vq TX2vh  1 3.400000e-01    1.510000e+00
 TC1vq TX2vh  1 3.400000e-01    1.510000e+00
 TX4vq TX2vh  1 3.400000e-01    1.770000e+00
 TX3vq TX2vh  1 3.400000e-01    2.020000e+00
 TC6vq TX1vh  1 3.400000e-01    1.770000e+00
 TC5vq TX1vh  1 3.400000e-01    1.770000e+00
 TC4vq TX1vh  1 3.400000e-01    1.770000e+00
 TC3vq TX1vh  1 3.400000e-01    1.770000e+00
 TC2vq TX1vh  1 3.400000e-01    1.510000e+00
 TC1vq TX1vh  1 3.400000e-01    1.510000e+00
 TX4vq TX1vh  1 3.400000e-01    1.770000e+00
 TX3vq TX1vh  1 3.400000e-01    2.020000e+00
 TX2vq TX1vh  1 3.400000e-01    2.020000e+00
 TC6vq TC5vr  1 3.400000e-01    1.770000e+00
 TC6vq TC4vr  1 3.400000e-01    1.770000e+00
 TC5vq TC4vr  1 3.400000e-01    1.770000e+00
 TC6vq TC3vr  1 3.400000e-01    1.510000e+00
 TC5vq TC3vr  1 3.400000e-01    1.510000e+00
 TC4vq TC3vr  1 3.400000e-01    1.770000e+00
 TC6vq TC2vr  1 3.400000e-01    1.230000e+00
 TC5vq TC2vr  1 3.400000e-01    1.230000e+00
 TC4vq TC2vr  1 3.400000e-01    1.510000e+00
 TC3vq TC2vr  1 3.400000e-01    1.770000e+00
 TC6vq TC1vr  1 3.520000e-01    1.050000e+00
 TC5vq TC1vr  1 3.400000e-01    1.230000e+00
 TC4vq TC1vr  1 3.400000e-01    1.230000e+00
 TC3vq TC1vr  1 3.400000e-01    1.770000e+00
 TC2vq TC1vr  1 3.400000e-01    2.020000e+00
 TC6vq TX4vr  1 3.400000e-01    1.770000e+00
 TC5vq TX4vr  1 3.400000e-01    1.510000e+00
 TC4vq TX4vr  1 3.400000e-01    1.510000e+00
 TC3vq TX4vr  1 3.400000e-01    1.510000e+00
 TC2vq TX4vr  1 3.520000e-01    1.050000e+00
 TC1vq TX4vr  1 3.520000e-01    1.050000e+00
 TC6vq TX3vr  1 3.400000e-01    1.770000e+00
 TC5vq TX3vr  1 3.400000e-01    1.510000e+00
 TC4vq TX3vr  1 3.400000e-01    1.510000e+00
 TC3vq TX3vr  1 3.400000e-01    1.510000e+00
 TC2vq TX3vr  1 3.400000e-01    1.510000e+00
 TC1vq TX3vr  1 3.400000e-01    1.510000e+00
 TX4vq TX3vr  1 3.400000e-01    1.770000e+00
 TC6vq TX2vr  1 3.400000e-01    1.770000e+00
 TC5vq TX2vr  1 3.400000e-01    1.510000e+00
 TC4vq TX2vr  1 3.400000e-01    1.510000e+00
 TC3vq TX2vr  1 3.400000e-01    1.510000e+00
 TC2vq TX2vr  1 3.400000e-01    1.510000e+00
 TC1vq TX2vr  1 3.400000e-01    1.510000e+00
 TX4vq TX2vr  1 3.400000e-01    1.770000e+00
 TX3vq TX2vr  1 3.400000e-01    2.020000e+00
 TC6vq TX1vr  1 3.400000e-01    1.770000e+00
 TC5vq TX1vr  1 3.400000e-01    1.770000e+00
 TC4vq TX1vr  1 3.400000e-01    1.770000e+00
 TC3vq TX1vr  1 3.400000e-01    1.770000e+00
 TC2vq TX1vr  1 3.400000e-01    1.510000e+00
 TC1vq TX1vr  1 3.400000e-01    1.510000e+00
 TX4vq TX1vr  1 3.400000e-01    1.770000e+00
 TX3vq TX1vr  1 3.400000e-01    2.020000e+00
 TX2vq TX1vr  1 3.400000e-01    2.020000e+00
 TC6vh  TC5v  1 3.400000e-01    1.230000e+00
 TC6vh  TC4v  1 3.400000e-01    1.230000e+00
 TC6vh  TC3v  1 3.520000e-01    1.050000e+00
 TC6vh  TC2v  1 3.660000e-01    9.350000e-01
 TC6vh  TC1v  1 3.850000e-01    8.550000e-01
 TC6vh  TX4v  1 3.400000e-01    1.230000e+00
 TC6vh  TX3v  1 3.400000e-01    1.230000e+00
 TC6vh  TX2v  1 3.400000e-01    1.230000e+00
 TC6vh  TX1v  1 3.400000e-01    1.230000e+00
 TC5vh  TC4v  1 3.400000e-01    1.230000e+00
 TC5vh  TC3v  1 3.520000e-01    1.050000e+00
 TC5vh  TC2v  1 3.660000e-01    9.350000e-01
 TC5vh  TC1v  1 3.660000e-01    9.350000e-01
 TC5vh  TX4v  1 3.520000e-01    1.050000e+00
 TC5vh  TX3v  1 3.520000e-01    1.050000e+00
 TC5vh  TX2v  1 3.520000e-01    1.050000e+00
 TC5vh  TX1v  1 3.400000e-01    1.230000e+00
 TC4vh  TC3v  1 3.400000e-01    1.230000e+00
 TC4vh  TC2v  1 3.520000e-01    1.050000e+00
 TC4vh  TC1v  1 3.660000e-01    9.350000e-01
 TC4vh  TX4v  1 3.520000e-01    1.050000e+00
 TC4vh  TX3v  1 3.520000e-01    1.050000e+00
 TC4vh  TX2v  1 3.520000e-01    1.050000e+00
 TC4vh  TX1v  1 3.400000e-01    1.230000e+00
 TC3vh  TC2v  1 3.400000e-01    1.230000e+00
 TC3vh  TC1v  1 3.400000e-01    1.230000e+00
 TC3vh  TX4v  1 3.520000e-01    1.050000e+00
 TC3vh  TX3v  1 3.520000e-01    1.050000e+00
 TC3vh  TX2v  1 3.520000e-01    1.050000e+00
 TC3vh  TX1v  1 3.400000e-01    1.230000e+00
 TC2vh  TC1v  1 3.400000e-01    1.510000e+00
 TC2vh  TX4v  1 3.850000e-01    8.550000e-01
 TC2vh  TX3v  1 3.520000e-01    1.050000e+00
 TC2vh  TX2v  1 3.520000e-01    1.050000e+00
 TC2vh  TX1v  1 3.520000e-01    1.050000e+00
 TC1vh  TX4v  1 3.850000e-01    8.550000e-01
 TC1vh  TX3v  1 3.520000e-01    1.050000e+00
 TC1vh  TX2v  1 3.520000e-01    1.050000e+00
 TC1vh  TX1v  1 3.520000e-01    1.050000e+00
 TX4vh  TX3v  1 3.400000e-01    1.230000e+00
 TX4vh  TX2v  1 3.400000e-01    1.230000e+00
 TX4vh  TX1v  1 3.400000e-01    1.230000e+00
 TX3vh  TX2v  1 3.400000e-01    1.510000e+00
 TX3vh  TX1v  1 3.400000e-01    1.510000e+00
 TX2vh  TX1v  1 3.400000e-01    1.510000e+00
 TC6vh TC6vq  1 3.400000e-01    2.020000e+00
 TC6vh TX1vq  1 3.400000e-01    1.770000e+00
 TC6vh TX2vq  1 3.400000e-01    1.770000e+00
 TC6vh TX3vq  1 3.400000e-01    1.770000e+00
 TC6vh TX4vq  1 3.400000e-01    1.770000e+00
 TC6vh TC1vq  1 3.520000e-01    1.050000e+00
 TC6vh TC2vq  1 3.400000e-01    1.230000e+00
 TC6vh TC3vq  1 3.400000e-01    1.510000e+00
 TC6vh TC4vq  1 3.400000e-01    1.770000e+00
 TC6vh TC5vq  1 3.400000e-01    1.770000e+00
 TC5vh TC5vq  1 3.400000e-01    1.770000e+00
 TC5vh TX1vq  1 3.400000e-01    1.770000e+00
 TC5vh TX2vq  1 3.400000e-01    1.510000e+00
 TC5vh TX3vq  1 3.400000e-01    1.510000e+00
 TC5vh TX4vq  1 3.400000e-01    1.510000e+00
 TC5vh TC1vq  1 3.400000e-01    1.230000e+00
 TC5vh TC2vq  1 3.400000e-01    1.230000e+00
 TC5vh TC3vq  1 3.400000e-01    1.510000e+00
 TC5vh TC4vq  1 3.400000e-01    1.770000e+00
 TC4vh TC4vq  1 3.400000e-01    1.770000e+00
 TC4vh TX1vq  1 3.400000e-01    1.770000e+00
 TC4vh TX2vq  1 3.400000e-01    1.510000e+00
 TC4vh TX3vq  1 3.400000e-01    1.510000e+00
 TC4vh TX4vq  1 3.400000e-01    1.510000e+00
 TC4vh TC1vq  1 3.400000e-01    1.230000e+00
 TC4vh TC2vq  1 3.400000e-01    1.510000e+00
 TC4vh TC3vq  1 3.400000e-01    1.770000e+00
 TC3vh TC3vq  1 3.400000e-01    1.770000e+00
 TC3vh TX1vq  1 3.400000e-01    1.770000e+00
 TC3vh TX2vq  1 3.400000e-01    1.510000e+00
 TC3vh TX3vq  1 3.400000e-01    1.510000e+00
 TC3vh TX4vq  1 3.400000e-01    1.510000e+00
 TC3vh TC1vq  1 3.400000e-01    1.770000e+00
 TC3vh TC2vq  1 3.400000e-01    1.770000e+00
 TC2vh TC2vq  1 3.400000e-01    1.770000e+00
 TC2vh TX1vq  1 3.400000e-01    1.510000e+00
 TC2vh TX2vq  1 3.400000e-01    1.510000e+00
 TC2vh TX3vq  1 3.400000e-01    1.510000e+00
 TC2vh TX4vq  1 3.520000e-01    1.050000e+00
 TC2vh TC1vq  1 3.400000e-01    2.020000e+00
 TC1vh TC1vq  1 3.400000e-01    1.770000e+00
 TC1vh TX1vq  1 3.400000e-01    1.510000e+00
 TC1vh TX2vq  1 3.400000e-01    1.510000e+00
 TC1vh TX3vq  1 3.400000e-01    1.510000e+00
 TC1vh TX4vq  1 3.520000e-01    1.050000e+00
 TX4vh TX4vq  1 3.400000e-01    1.770000e+00
 TX4vh TX1vq  1 3.400000e-01    1.770000e+00
 TX4vh TX2vq  1 3.400000e-01    1.770000e+00
 TX4vh TX3vq  1 3.400000e-01    1.770000e+00
 TX3vh TX3vq  1 3.400000e-01    1.770000e+00
 TX3vh TX1vq  1 3.400000e-01    2.020000e+00
 TX3vh TX2vq  1 3.400000e-01    2.020000e+00
 TX2vh TX2vq  1 3.400000e-01    2.020000e+00
 TX2vh TX1vq  1 3.400000e-01    2.020000e+00
 TX1vh TX1vq  1 3.400000e-01    2.280000e+00
 TC6vh TC6vh  1 3.400000e-01    1.770000e+00
 TC5vh TC5vh  1 3.400000e-01    1.510000e+00
 TC4vh TC4vh  1 3.400000e-01    1.510000e+00
 TC3vh TC3vh  1 3.400000e-01    1.510000e+00
 TC2vh TC2vh  1 3.400000e-01    1.510000e+00
 TC1vh TC1vh  1 3.400000e-01    1.510000e+00
 TX4vh TX4vh  1 3.400000e-01    1.510000e+00
 TX3vh TX3vh  1 3.400000e-01    1.510000e+00
 TX2vh TX2vh  1 3.400000e-01    1.770000e+00
 TX1vh TX1vh  1 3.400000e-01    2.020000e+00
 TC6vh TC5vh  1 3.400000e-01    1.510000e+00
 TC6vh TC4vh  1 3.400000e-01    1.510000e+00
 TC6vh TC3vh  1 3.400000e-01    1.230000e+00
 TC6vh TC2vh  1 3.520000e-01    1.050000e+00
 TC6vh TC1vh  1 3.660000e-01    9.350000e-01
 TC6vh TX4vh  1 3.400000e-01    1.510000e+00
 TC6vh TX3vh  1 3.400000e-01    1.510000e+00
 TC6vh TX2vh  1 3.400000e-01    1.510000e+00
 TC6vh TX1vh  1 3.400000e-01    1.510000e+00
 TC5vh TC4vh  1 3.400000e-01    1.510000e+00
 TC5vh TC3vh  1 3.400000e-01    1.230000e+00
 TC5vh TC2vh  1 3.520000e-01    1.050000e+00
 TC5vh TC1vh  1 3.520000e-01    1.050000e+00
 TC5vh TX4vh  1 3.400000e-01    1.230000e+00
 TC5vh TX3vh  1 3.400000e-01    1.230000e+00
 TC5vh TX2vh  1 3.400000e-01    1.230000e+00
 TC5vh TX1vh  1 3.400000e-01    1.510000e+00
 TC4vh TC3vh  1 3.400000e-01    1.510000e+00
 TC4vh TC2vh  1 3.400000e-01    1.230000e+00
 TC4vh TC1vh  1 3.520000e-01    1.050000e+00
 TC4vh TX4vh  1 3.400000e-01    1.230000e+00
 TC4vh TX3vh  1 3.400000e-01    1.230000e+00
 TC4vh TX2vh  1 3.400000e-01    1.230000e+00
 TC4vh TX1vh  1 3.400000e-01    1.510000e+00
 TC3vh TC2vh  1 3.400000e-01    1.510000e+00
 TC3vh TC1vh  1 3.400000e-01    1.510000e+00
 TC3vh TX4vh  1 3.400000e-01    1.230000e+00
 TC3vh TX3vh  1 3.400000e-01    1.230000e+00
 TC3vh TX2vh  1 3.400000e-01    1.230000e+00
 TC3vh TX1vh  1 3.400000e-01    1.510000e+00
 TC2vh TC1vh  1 3.400000e-01    1.770000e+00
 TC2vh TX4vh  1 3.660000e-01    9.350000e-01
 TC2vh TX3vh  1 3.400000e-01    1.230000e+00
 TC2vh TX2vh  1 3.400000e-01    1.230000e+00
 TC2vh TX1vh  1 3.400000e-01    1.230000e+00
 TC1vh TX4vh  1 3.660000e-01    9.350000e-01
 TC1vh TX3vh  1 3.400000e-01    1.230000e+00
 TC1vh TX2vh  1 3.400000e-01    1.230000e+00
 TC1vh TX1vh  1 3.400000e-01    1.230000e+00
 TX4vh TX3vh  1 3.400000e-01    1.510000e+00
 TX4vh TX2vh  1 3.400000e-01    1.510000e+00
 TX4vh TX1vh  1 3.400000e-01    1.510000e+00
 TX3vh TX2vh  1 3.400000e-01    1.770000e+00
 TX3vh TX1vh  1 3.400000e-01    1.770000e+00
 TX2vh TX1vh  1 3.400000e-01    1.770000e+00
 TC6vh TC6vr  1 3.400000e-01    1.510000e+00
 TC6vh TC5vr  1 3.400000e-01    1.230000e+00
 TC6vh TC4vr  1 3.400000e-01    1.230000e+00
 TC6vh TC3vr  1 3.520000e-01    1.050000e+00
 TC6vh TC2vr  1 3.660000e-01    9.350000e-01
 TC6vh TC1vr  1 3.850000e-01    8.550000e-01
 TC6vh TX4vr  1 3.400000e-01    1.230000e+00
 TC6vh TX3vr  1 3.400000e-01    1.230000e+00
 TC6vh TX2vr  1 3.400000e-01    1.230000e+00
 TC6vh TX1vr  1 3.400000e-01    1.230000e+00
 TC5vh TC5vr  1 3.400000e-01    1.230000e+00
 TC5vh TC4vr  1 3.400000e-01    1.230000e+00
 TC5vh TC3vr  1 3.520000e-01    1.050000e+00
 TC5vh TC2vr  1 3.660000e-01    9.350000e-01
 TC5vh TC1vr  1 3.660000e-01    9.350000e-01
 TC5vh TX4vr  1 3.520000e-01    1.050000e+00
 TC5vh TX3vr  1 3.520000e-01    1.050000e+00
 TC5vh TX2vr  1 3.520000e-01    1.050000e+00
 TC5vh TX1vr  1 3.400000e-01    1.230000e+00
 TC4vh TC4vr  1 3.400000e-01    1.230000e+00
 TC4vh TC3vr  1 3.400000e-01    1.230000e+00
 TC4vh TC2vr  1 3.520000e-01    1.050000e+00
 TC4vh TC1vr  1 3.660000e-01    9.350000e-01
 TC4vh TX4vr  1 3.520000e-01    1.050000e+00
 TC4vh TX3vr  1 3.520000e-01    1.050000e+00
 TC4vh TX2vr  1 3.520000e-01    1.050000e+00
 TC4vh TX1vr  1 3.400000e-01    1.230000e+00
 TC3vh TC3vr  1 3.400000e-01    1.230000e+00
 TC3vh TC2vr  1 3.400000e-01    1.230000e+00
 TC3vh TC1vr  1 3.400000e-01    1.230000e+00
 TC3vh TX4vr  1 3.520000e-01    1.050000e+00
 TC3vh TX3vr  1 3.520000e-01    1.050000e+00
 TC3vh TX2vr  1 3.520000e-01    1.050000e+00
 TC3vh TX1vr  1 3.400000e-01    1.230000e+00
 TC2vh TC2vr  1 3.400000e-01    1.230000e+00
 TC2vh TC1vr  1 3.400000e-01    1.510000e+00
 TC2vh TX4vr  1 3.850000e-01    8.550000e-01
 TC2vh TX3vr  1 3.520000e-01    1.050000e+00
 TC2vh TX2vr  1 3.520000e-01    1.050000e+00
 TC2vh TX1vr  1 3.520000e-01    1.050000e+00
 TC1vh TC1vr  1 3.400000e-01    1.230000e+00
 TC1vh TX4vr  1 3.850000e-01    8.550000e-01
 TC1vh TX3vr  1 3.520000e-01    1.050000e+00
 TC1vh TX2vr  1 3.520000e-01    1.050000e+00
 TC1vh TX1vr  1 3.520000e-01    1.050000e+00
 TX4vh TX4vr  1 3.400000e-01    1.230000e+00
 TX4vh TX3vr  1 3.400000e-01    1.230000e+00
 TX4vh TX2vr  1 3.400000e-01    1.230000e+00
 TX4vh TX1vr  1 3.400000e-01    1.230000e+00
 TX3vh TX3vr  1 3.400000e-01    1.230000e+00
 TX3vh TX2vr  1 3.400000e-01    1.510000e+00
 TX3vh TX1vr  1 3.400000e-01    1.510000e+00
 TX2vh TX2vr  1 3.400000e-01    1.510000e+00
 TX2vh TX1vr  1 3.400000e-01    1.510000e+00
 TX1vh TX1vr  1 3.400000e-01    1.770000e+00
 TC6vr  TC5v  1 3.400000e-01    1.230000e+00
 TC6vr  TC4v  1 3.400000e-01    1.230000e+00
 TC6vr  TC3v  1 3.520000e-01    1.050000e+00
 TC6vr  TC2v  1 3.660000e-01    9.350000e-01
 TC6vr  TC1v  1 3.850000e-01    8.550000e-01
 TC6vr  TX4v  1 3.400000e-01    1.230000e+00
 TC6vr  TX3v  1 3.400000e-01    1.230000e+00
 TC6vr  TX2v  1 3.400000e-01    1.230000e+00
 TC6vr  TX1v  1 3.400000e-01    1.230000e+00
 TC5vr  TC4v  1 3.400000e-01    1.230000e+00
 TC5vr  TC3v  1 3.520000e-01    1.050000e+00
 TC5vr  TC2v  1 3.660000e-01    9.350000e-01
 TC5vr  TC1v  1 3.660000e-01    9.350000e-01
 TC5vr  TX4v  1 3.520000e-01    1.050000e+00
 TC5vr  TX3v  1 3.520000e-01    1.050000e+00
 TC5vr  TX2v  1 3.520000e-01    1.050000e+00
 TC5vr  TX1v  1 3.400000e-01    1.230000e+00
 TC4vr  TC3v  1 3.400000e-01    1.230000e+00
 TC4vr  TC2v  1 3.520000e-01    1.050000e+00
 TC4vr  TC1v  1 3.660000e-01    9.350000e-01
 TC4vr  TX4v  1 3.520000e-01    1.050000e+00
 TC4vr  TX3v  1 3.520000e-01    1.050000e+00
 TC4vr  TX2v  1 3.520000e-01    1.050000e+00
 TC4vr  TX1v  1 3.400000e-01    1.230000e+00
 TC3vr  TC2v  1 3.400000e-01    1.230000e+00
 TC3vr  TC1v  1 3.400000e-01    1.230000e+00
 TC3vr  TX4v  1 3.520000e-01    1.050000e+00
 TC3vr  TX3v  1 3.520000e-01    1.050000e+00
 TC3vr  TX2v  1 3.520000e-01    1.050000e+00
 TC3vr  TX1v  1 3.400000e-01    1.230000e+00
 TC2vr  TC1v  1 3.400000e-01    1.510000e+00
 TC2vr  TX4v  1 3.850000e-01    8.550000e-01
 TC2vr  TX3v  1 3.520000e-01    1.050000e+00
 TC2vr  TX2v  1 3.520000e-01    1.050000e+00
 TC2vr  TX1v  1 3.520000e-01    1.050000e+00
 TC1vr  TX4v  1 3.850000e-01    8.550000e-01
 TC1vr  TX3v  1 3.520000e-01    1.050000e+00
 TC1vr  TX2v  1 3.520000e-01    1.050000e+00
 TC1vr  TX1v  1 3.520000e-01    1.050000e+00
 TX4vr  TX3v  1 3.400000e-01    1.230000e+00
 TX4vr  TX2v  1 3.400000e-01    1.230000e+00
 TX4vr  TX1v  1 3.400000e-01    1.230000e+00
 TX3vr  TX2v  1 3.400000e-01    1.510000e+00
 TX3vr  TX1v  1 3.400000e-01    1.510000e+00
 TX2vr  TX1v  1 3.400000e-01    1.510000e+00
 TC6vr TC6vq  1 3.400000e-01    2.020000e+00
 TC6vr TX1vq  1 3.400000e-01    1.770000e+00
 TC6vr TX2vq  1 3.400000e-01    1.770000e+00
 TC6vr TX3vq  1 3.400000e-01    1.770000e+00
 TC6vr TX4vq  1 3.400000e-01    1.770000e+00
 TC6vr TC1vq  1 3.520000e-01    1.050000e+00
 TC6vr TC2vq  1 3.400000e-01    1.230000e+00
 TC6vr TC3vq  1 3.400000e-01    1.510000e+00
 TC6vr TC4vq  1 3.400000e-01    1.770000e+00
 TC6vr TC5vq  1 3.400000e-01    1.770000e+00
 TC5vr TC5vq  1 3.400000e-01    1.770000e+00
 TC5vr TX1vq  1 3.400000e-01    1.770000e+00
 TC5vr TX2vq  1 3.400000e-01    1.510000e+00
 TC5vr TX3vq  1 3.400000e-01    1.510000e+00
 TC5vr TX4vq  1 3.400000e-01    1.510000e+00
 TC5vr TC1vq  1 3.400000e-01    1.230000e+00
 TC5vr TC2vq  1 3.400000e-01    1.230000e+00
 TC5vr TC3vq  1 3.400000e-01    1.510000e+00
 TC5vr TC4vq  1 3.400000e-01    1.770000e+00
 TC4vr TC4vq  1 3.400000e-01    1.770000e+00
 TC4vr TX1vq  1 3.400000e-01    1.770000e+00
 TC4vr TX2vq  1 3.400000e-01    1.510000e+00
 TC4vr TX3vq  1 3.400000e-01    1.510000e+00
 TC4vr TX4vq  1 3.400000e-01    1.510000e+00
 TC4vr TC1vq  1 3.400000e-01    1.230000e+00
 TC4vr TC2vq  1 3.400000e-01    1.510000e+00
 TC4vr TC3vq  1 3.400000e-01    1.770000e+00
 TC3vr TC3vq  1 3.400000e-01    1.770000e+00
 TC3vr TX1vq  1 3.400000e-01    1.770000e+00
 TC3vr TX2vq  1 3.400000e-01    1.510000e+00
 TC3vr TX3vq  1 3.400000e-01    1.510000e+00
 TC3vr TX4vq  1 3.400000e-01    1.510000e+00
 TC3vr TC1vq  1 3.400000e-01    1.770000e+00
 TC3vr TC2vq  1 3.400000e-01    1.770000e+00
 TC2vr TC2vq  1 3.400000e-01    1.770000e+00
 TC2vr TX1vq  1 3.400000e-01    1.510000e+00
 TC2vr TX2vq  1 3.400000e-01    1.510000e+00
 TC2vr TX3vq  1 3.400000e-01    1.510000e+00
 TC2vr TX4vq  1 3.520000e-01    1.050000e+00
 TC2vr TC1vq  1 3.400000e-01    2.020000e+00
 TC1vr TC1vq  1 3.400000e-01    1.770000e+00
 TC1vr TX1vq  1 3.400000e-01    1.510000e+00
 TC1vr TX2vq  1 3.400000e-01    1.510000e+00
 TC1vr TX3vq  1 3.400000e-01    1.510000e+00
 TC1vr TX4vq  1 3.520000e-01    1.050000e+00
 TX4vr TX4vq  1 3.400000e-01    1.770000e+00
 TX4vr TX1vq  1 3.400000e-01    1.770000e+00
 TX4vr TX2vq  1 3.400000e-01    1.770000e+00
 TX4vr TX3vq  1 3.400000e-01    1.770000e+00
 TX3vr TX3vq  1 3.400000e-01    1.770000e+00
 TX3vr TX1vq  1 3.400000e-01    2.020000e+00
 TX3vr TX2vq  1 3.400000e-01    2.020000e+00
 TX2vr TX2vq  1 3.400000e-01    2.020000e+00
 TX2vr TX1vq  1 3.400000e-01    2.020000e+00
 TX1vr TX1vq  1 3.400000e-01    2.280000e+00
 TC6vr TC5vh  1 3.400000e-01    1.230000e+00
 TC6vr TC4vh  1 3.400000e-01    1.230000e+00
 TC6vr TC3vh  1 3.520000e-01    1.050000e+00
 TC6vr TC2vh  1 3.660000e-01    9.350000e-01
 TC6vr TC1vh  1 3.850000e-01    8.550000e-01
 TC6vr TX4vh  1 3.400000e-01    1.230000e+00
 TC6vr TX3vh  1 3.400000e-01    1.230000e+00
 TC6vr TX2vh  1 3.400000e-01    1.230000e+00
 TC6vr TX1vh  1 3.400000e-01    1.230000e+00
 TC5vr TC4vh  1 3.400000e-01    1.230000e+00
 TC5vr TC3vh  1 3.520000e-01    1.050000e+00
 TC5vr TC2vh  1 3.660000e-01    9.350000e-01
 TC5vr TC1vh  1 3.660000e-01    9.350000e-01
 TC5vr TX4vh  1 3.520000e-01    1.050000e+00
 TC5vr TX3vh  1 3.520000e-01    1.050000e+00
 TC5vr TX2vh  1 3.520000e-01    1.050000e+00
 TC5vr TX1vh  1 3.400000e-01    1.230000e+00
 TC4vr TC3vh  1 3.400000e-01    1.230000e+00
 TC4vr TC2vh  1 3.520000e-01    1.050000e+00
 TC4vr TC1vh  1 3.660000e-01    9.350000e-01
 TC4vr TX4vh  1 3.520000e-01    1.050000e+00
 TC4vr TX3vh  1 3.520000e-01    1.050000e+00
 TC4vr TX2vh  1 3.520000e-01    1.050000e+00
 TC4vr TX1vh  1 3.400000e-01    1.230000e+00
 TC3vr TC2vh  1 3.400000e-01    1.230000e+00
 TC3vr TC1vh  1 3.400000e-01    1.230000e+00
 TC3vr TX4vh  1 3.520000e-01    1.050000e+00
 TC3vr TX3vh  1 3.520000e-01    1.050000e+00
 TC3vr TX2vh  1 3.520000e-01    1.050000e+00
 TC3vr TX1vh  1 3.400000e-01    1.230000e+00
 TC2vr TC1vh  1 3.400000e-01    1.510000e+00
 TC2vr TX4vh  1 3.850000e-01    8.550000e-01
 TC2vr TX3vh  1 3.520000e-01    1.050000e+00
 TC2vr TX2vh  1 3.520000e-01    1.050000e+00
 TC2vr TX1vh  1 3.520000e-01    1.050000e+00
 TC1vr TX4vh  1 3.850000e-01    8.550000e-01
 TC1vr TX3vh  1 3.520000e-01    1.050000e+00
 TC1vr TX2vh  1 3.520000e-01    1.050000e+00
 TC1vr TX1vh  1 3.520000e-01    1.050000e+00
 TX4vr TX3vh  1 3.400000e-01    1.230000e+00
 TX4vr TX2vh  1 3.400000e-01    1.230000e+00
 TX4vr TX1vh  1 3.400000e-01    1.230000e+00
 TX3vr TX2vh  1 3.400000e-01    1.510000e+00
 TX3vr TX1vh  1 3.400000e-01    1.510000e+00
 TX2vr TX1vh  1 3.400000e-01    1.510000e+00
 TC6vr TC6vr  1 3.400000e-01    1.230000e+00
 TC5vr TC5vr  1 3.520000e-01    1.050000e+00
 TC4vr TC4vr  1 3.520000e-01    1.050000e+00
 TC3vr TC3vr  1 3.520000e-01    1.050000e+00
 TC2vr TC2vr  1 3.520000e-01    1.050000e+00
 TC1vr TC1vr  1 3.520000e-01    1.050000e+00
 TX4vr TX4vr  1 3.520000e-01    1.050000e+00
 TX3vr TX3vr  1 3.520000e-01    1.050000e+00
 TX2vr TX2vr  1 3.400000e-01    1.230000e+00
 TX1vr TX1vr  1 3.400000e-01    1.510000e+00
 TC6vr TC5vr  1 3.520000e-01    1.050000e+00
 TC6vr TC4vr  1 3.520000e-01    1.050000e+00
 TC6vr TC3vr  1 3.660000e-01    9.350000e-01
 TC6vr TC2vr  1 3.850000e-01    8.550000e-01
 TC6vr TC1vr  1 4.110000e-01    8.010000e-01
 TC6vr TX4vr  1 3.520000e-01    1.050000e+00
 TC6vr TX3vr  1 3.520000e-01    1.050000e+00
 TC6vr TX2vr  1 3.520000e-01    1.050000e+00
 TC6vr TX1vr  1 3.520000e-01    1.050000e+00
 TC5vr TC4vr  1 3.520000e-01    1.050000e+00
 TC5vr TC3vr  1 3.660000e-01    9.350000e-01
 TC5vr TC2vr  1 3.850000e-01    8.550000e-01
 TC5vr TC1vr  1 3.850000e-01    8.550000e-01
 TC5vr TX4vr  1 3.660000e-01    9.350000e-01
 TC5vr TX3vr  1 3.660000e-01    9.350000e-01
 TC5vr TX2vr  1 3.660000e-01    9.350000e-01
 TC5vr TX1vr  1 3.520000e-01    1.050000e+00
 TC4vr TC3vr  1 3.520000e-01    1.050000e+00
 TC4vr TC2vr  1 3.660000e-01    9.350000e-01
 TC4vr TC1vr  1 3.850000e-01    8.550000e-01
 TC4vr TX4vr  1 3.660000e-01    9.350000e-01
 TC4vr TX3vr  1 3.660000e-01    9.350000e-01
 TC4vr TX2vr  1 3.660000e-01    9.350000e-01
 TC4vr TX1vr  1 3.520000e-01    1.050000e+00
 TC3vr TC2vr  1 3.520000e-01    1.050000e+00
 TC3vr TC1vr  1 3.520000e-01    1.050000e+00
 TC3vr TX4vr  1 3.660000e-01    9.350000e-01
 TC3vr TX3vr  1 3.660000e-01    9.350000e-01
 TC3vr TX2vr  1 3.660000e-01    9.350000e-01
 TC3vr TX1vr  1 3.520000e-01    1.050000e+00
 TC2vr TC1vr  1 3.400000e-01    1.230000e+00
 TC2vr TX4vr  1 4.110000e-01    8.010000e-01
 TC2vr TX3vr  1 3.660000e-01    9.350000e-01
 TC2vr TX2vr  1 3.660000e-01    9.350000e-01
 TC2vr TX1vr  1 3.660000e-01    9.350000e-01
 TC1vr TX4vr  1 4.110000e-01    8.010000e-01
 TC1vr TX3vr  1 3.660000e-01    9.350000e-01
 TC1vr TX2vr  1 3.660000e-01    9.350000e-01
 TC1vr TX1vr  1 3.660000e-01    9.350000e-01
 TX4vr TX3vr  1 3.520000e-01    1.050000e+00
 TX4vr TX2vr  1 3.520000e-01    1.050000e+00
 TX4vr TX1vr  1 3.520000e-01    1.050000e+00
 TX3vr TX2vr  1 3.400000e-01    1.230000e+00
 TX3vr TX1vr  1 3.400000e-01    1.230000e+00
 TX2vr TX1vr  1 3.400000e-01    1.230000e+00
  TC6e  TC6e  1 3.400000e-01    1.510000e+00
  TC6e  TC5e  1 3.400000e-01    1.230000e+00
  TC6e  TC4e  1 3.400000e-01    1.230000e+00
  TC6e  TC3e  1 3.520000e-01    1.050000e+00
  TC6e  TC2e  1 3.660000e-01    9.350000e-01
  TC6e  TC1e  1 3.850000e-01    8.550000e-01
  TC6e  TX4e  1 3.400000e-01    1.230000e+00
  TC6e  TX3e  1 3.400000e-01    1.230000e+00
  TC6e  TX2e  1 3.400000e-01    1.230000e+00
  TC6e  TX1e  1 3.400000e-01    1.230000e+00
  TC5e  TC5e  1 3.400000e-01    1.230000e+00
  TC5e  TC4e  1 3.400000e-01    1.230000e+00
  TC5e  TC3e  1 3.520000e-01    1.050000e+00
  TC5e  TC2e  1 3.660000e-01    9.350000e-01
  TC5e  TC1e  1 3.660000e-01    9.350000e-01
  TC5e  TX4e  1 3.520000e-01    1.050000e+00
  TC5e  TX3e  1 3.520000e-01    1.050000e+00
  TC5e  TX2e  1 3.520000e-01    1.050000e+00
  TC5e  TX1e  1 3.400000e-01    1.230000e+00
  TC4e  TC4e  1 3.400000e-01    1.230000e+00
  TC4e  TC3e  1 3.400000e-01    1.230000e+00
  TC4e  TC2e  1 3.520000e-01    1.050000e+00
  TC4e  TC1e  1 3.660000e-01    9.350000e-01
  TC4e  TX4e  1 3.520000e-01    1.050000e+00
  TC4e  TX3e  1 3.520000e-01    1.050000e+00
  TC4e  TX2e  1 3.520000e-01    1.050000e+00
  TC4e  TX1e  1 3.400000e-01    1.230000e+00
  TC3e  TC3e  1 3.400000e-01    1.230000e+00
  TC3e  TC2e  1 3.400000e-01    1.230000e+00
  TC3e  TC1e  1 3.400000e-01    1.230000e+00
  TC3e  TX4e  1 3.520000e-01    1.050000e+00
  TC3e  TX3e  1 3.520000e-01    1.050000e+00
  TC3e  TX2e  1 3.520000e-01    1.050000e+00
  TC3e  TX1e  1 3.400000e-01    1.230000e+00
  TC2e  TC2e  1 3.400000e-01    1.230000e+00
  TC2e  TC1e  1 3.400000e-01    1.510000e+00
  TC2e  TX4e  1 3.850000e-01    8.550000e-01
  TC2e  TX3e  1 3.520000e-01    1.050000e+00
  TC2e  TX2e  1 3.520000e-01    1.050000e+00
  TC2e  TX1e  1 3.520000e-01    1.050000e+00
  TC1e  TC1e  1 3.400000e-01    1.230000e+00
  TC1e  TX4e  1 3.850000e-01    8.550000e-01
  TC1e  TX3e  1 3.520000e-01    1.050000e+00
  TC1e  TX2e  1 3.520000e-01    1.050000e+00
  TC1e  TX1e  1 3.520000e-01    1.050000e+00
  TX4e  TX4e  1 3.400000e-01    1.230000e+00
  TX4e  TX3e  1 3.400000e-01    1.230000e+00
  TX4e  TX2e  1 3.400000e-01    1.230000e+00
  TX4e  TX1e  1 3.400000e-01    1.230000e+00
  TX3e  TX3e  1 3.400000e-01    1.230000e+00
  TX3e  TX2e  1 3.400000e-01    1.510000e+00
  TX3e  TX1e  1 3.400000e-01    1.510000e+00
  TX2e  TX2e  1 3.400000e-01    1.510000e+00
  TX2e  TX1e  1 3.400000e-01    1.510000e+00
  TX1e  TX1e  1 3.400000e-01    1.770000e+00
  TC6e TC6eq  1 3.400000e-01    2.020000e+00
  TC5e TC5eq  1 3.400000e-01    1.770000e+00
  TC4e TC4eq  1 3.400000e-01    1.770000e+00
  TC3e TC3eq  1 3.400000e-01    1.770000e+00
  TC2e TC2eq  1 3.400000e-01    1.770000e+00
  TC1e TC1eq  1 3.400000e-01    1.770000e+00
  TX4e TX4eq  1 3.400000e-01    1.770000e+00
  TX3e TX3eq  1 3.400000e-01    1.770000e+00
  TX2e TX2eq  1 3.400000e-01    2.020000e+00
  TX1e TX1eq  1 3.400000e-01    2.280000e+00
  TC6e TX1eq  1 3.400000e-01    1.770000e+00
  TC5e TX1eq  1 3.400000e-01    1.770000e+00
  TC4e TX1eq  1 3.400000e-01    1.770000e+00
  TC3e TX1eq  1 3.400000e-01    1.770000e+00
  TC2e TX1eq  1 3.400000e-01    1.510000e+00
  TC1e TX1eq  1 3.400000e-01    1.510000e+00
  TX4e TX1eq  1 3.400000e-01    1.770000e+00
  TX3e TX1eq  1 3.400000e-01    2.020000e+00
  TX2e TX1eq  1 3.400000e-01    2.020000e+00
  TC6e TX2eq  1 3.400000e-01    1.770000e+00
  TC5e TX2eq  1 3.400000e-01    1.510000e+00
  TC4e TX2eq  1 3.400000e-01    1.510000e+00
  TC3e TX2eq  1 3.400000e-01    1.510000e+00
  TC2e TX2eq  1 3.400000e-01    1.510000e+00
  TC1e TX2eq  1 3.400000e-01    1.510000e+00
  TX4e TX2eq  1 3.400000e-01    1.770000e+00
  TX3e TX2eq  1 3.400000e-01    2.020000e+00
  TC6e TX3eq  1 3.400000e-01    1.770000e+00
  TC5e TX3eq  1 3.400000e-01    1.510000e+00
  TC4e TX3eq  1 3.400000e-01    1.510000e+00
  TC3e TX3eq  1 3.400000e-01    1.510000e+00
  TC2e TX3eq  1 3.400000e-01    1.510000e+00
  TC1e TX3eq  1 3.400000e-01    1.510000e+00
  TX4e TX3eq  1 3.400000e-01    1.770000e+00
  TC6e TX4eq  1 3.400000e-01    1.770000e+00
  TC5e TX4eq  1 3.400000e-01    1.510000e+00
  TC4e TX4eq  1 3.400000e-01    1.510000e+00
  TC3e TX4eq  1 3.400000e-01    1.510000e+00
  TC2e TX4eq  1 3.520000e-01    1.050000e+00
  TC1e TX4eq  1 3.520000e-01    1.050000e+00
  TC6e TC1eq  1 3.520000e-01    1.050000e+00
  TC5e TC1eq  1 3.400000e-01    1.230000e+00
  TC4e TC1eq  1 3.400000e-01    1.230000e+00
  TC3e TC1eq  1 3.400000e-01    1.770000e+00
  TC2e TC1eq  1 3.400000e-01    2.020000e+00
  TC6e TC2eq  1 3.400000e-01    1.230000e+00
  TC5e TC2eq  1 3.400000e-01    1.230000e+00
  TC4e TC2eq  1 3.400000e-01    1.510000e+00
  TC3e TC2eq  1 3.400000e-01    1.770000e+00
  TC6e TC3eq  1 3.400000e-01    1.510000e+00
  TC5e TC3eq  1 3.400000e-01    1.510000e+00
  TC4e TC3eq  1 3.400000e-01    1.770000e+00
  TC6e TC4eq  1 3.400000e-01    1.770000e+00
  TC5e TC4eq  1 3.400000e-01    1.770000e+00
  TC6e TC5eq  1 3.400000e-01    1.770000e+00
  TC6e TC6eh  1 3.400000e-01    1.510000e+00
  TC5e TC5eh  1 3.400000e-01    1.230000e+00
  TC4e TC4eh  1 3.400000e-01    1.230000e+00
  TC3e TC3eh  1 3.400000e-01    1.230000e+00
  TC2e TC2eh  1 3.400000e-01    1.230000e+00
  TC1e TC1eh  1 3.400000e-01    1.230000e+00
  TX4e TX4eh  1 3.400000e-01    1.230000e+00
  TX3e TX3eh  1 3.400000e-01    1.230000e+00
  TX2e TX2eh  1 3.400000e-01    1.510000e+00
  TX1e TX1eh  1 3.400000e-01    1.770000e+00
  TC6e TX1eh  1 3.400000e-01    1.230000e+00
  TC5e TX1eh  1 3.400000e-01    1.230000e+00
  TC4e TX1eh  1 3.400000e-01    1.230000e+00
  TC3e TX1eh  1 3.400000e-01    1.230000e+00
  TC2e TX1eh  1 3.520000e-01    1.050000e+00
  TC1e TX1eh  1 3.520000e-01    1.050000e+00
  TX4e TX1eh  1 3.400000e-01    1.230000e+00
  TX3e TX1eh  1 3.400000e-01    1.510000e+00
  TX2e TX1eh  1 3.400000e-01    1.510000e+00
  TC6e TX2eh  1 3.400000e-01    1.230000e+00
  TC5e TX2eh  1 3.520000e-01    1.050000e+00
  TC4e TX2eh  1 3.520000e-01    1.050000e+00
  TC3e TX2eh  1 3.520000e-01    1.050000e+00
  TC2e TX2eh  1 3.520000e-01    1.050000e+00
  TC1e TX2eh  1 3.520000e-01    1.050000e+00
  TX4e TX2eh  1 3.400000e-01    1.230000e+00
  TX3e TX2eh  1 3.400000e-01    1.510000e+00
  TC6e TX3eh  1 3.400000e-01    1.230000e+00
  TC5e TX3eh  1 3.520000e-01    1.050000e+00
  TC4e TX3eh  1 3.520000e-01    1.050000e+00
  TC3e TX3eh  1 3.520000e-01    1.050000e+00
  TC2e TX3eh  1 3.520000e-01    1.050000e+00
  TC1e TX3eh  1 3.520000e-01    1.050000e+00
  TX4e TX3eh  1 3.400000e-01    1.230000e+00
  TC6e TX4eh  1 3.400000e-01    1.230000e+00
  TC5e TX4eh  1 3.520000e-01    1.050000e+00
  TC4e TX4eh  1 3.520000e-01    1.050000e+00
  TC3e TX4eh  1 3.520000e-01    1.050000e+00
  TC2e TX4eh  1 3.850000e-01    8.550000e-01
  TC1e TX4eh  1 3.850000e-01    8.550000e-01
  TC6e TC1eh  1 3.850000e-01    8.550000e-01
  TC5e TC1eh  1 3.660000e-01    9.350000e-01
  TC4e TC1eh  1 3.660000e-01    9.350000e-01
  TC3e TC1eh  1 3.400000e-01    1.230000e+00
  TC2e TC1eh  1 3.400000e-01    1.510000e+00
  TC6e TC2eh  1 3.660000e-01    9.350000e-01
  TC5e TC2eh  1 3.660000e-01    9.350000e-01
  TC4e TC2eh  1 3.520000e-01    1.050000e+00
  TC3e TC2eh  1 3.400000e-01    1.230000e+00
  TC6e TC3eh  1 3.520000e-01    1.050000e+00
  TC5e TC3eh  1 3.520000e-01    1.050000e+00
  TC4e TC3eh  1 3.400000e-01    1.230000e+00
  TC6e TC4eh  1 3.400000e-01    1.230000e+00
  TC5e TC4eh  1 3.400000e-01    1.230000e+00
  TC6e TC5eh  1 3.400000e-01    1.230000e+00
  TC6e TC6er  1 3.400000e-01    1.510000e+00
  TC5e TC5er  1 3.400000e-01    1.230000e+00
  TC4e TC4er  1 3.400000e-01    1.230000e+00
  TC3e TC3er  1 3.400000e-01    1.230000e+00
  TC2e TC2er  1 3.400000e-01    1.230000e+00
  TC1e TC1er  1 3.400000e-01    1.230000e+00
  TX4e TX4er  1 3.400000e-01    1.230000e+00
  TX3e TX3er  1 3.400000e-01    1.230000e+00
  TX2e TX2er  1 3.400000e-01    1.510000e+00
  TX1e TX1er  1 3.400000e-01    1.770000e+00
  TC6e TX1er  1 3.400000e-01    1.230000e+00
  TC5e TX1er  1 3.400000e-01    1.230000e+00
  TC4e TX1er  1 3.400000e-01    1.230000e+00
  TC3e TX1er  1 3.400000e-01    1.230000e+00
  TC2e TX1er  1 3.520000e-01    1.050000e+00
  TC1e TX1er  1 3.520000e-01    1.050000e+00
  TX4e TX1er  1 3.400000e-01    1.230000e+00
  TX3e TX1er  1 3.400000e-01    1.510000e+00
  TX2e TX1er  1 3.400000e-01    1.510000e+00
  TC6e TX2er  1 3.400000e-01    1.230000e+00
  TC5e TX2er  1 3.520000e-01    1.050000e+00
  TC4e TX2er  1 3.520000e-01    1.050000e+00
  TC3e TX2er  1 3.520000e-01    1.050000e+00
  TC2e TX2er  1 3.520000e-01    1.050000e+00
  TC1e TX2er  1 3.520000e-01    1.050000e+00
  TX4e TX2er  1 3.400000e-01    1.230000e+00
  TX3e TX2er  1 3.400000e-01    1.510000e+00
  TC6e TX3er  1 3.400000e-01    1.230000e+00
  TC5e TX3er  1 3.520000e-01    1.050000e+00
  TC4e TX3er  1 3.520000e-01    1.050000e+00
  TC3e TX3er  1 3.520000e-01    1.050000e+00
  TC2e TX3er  1 3.520000e-01    1.050000e+00
  TC1e TX3er  1 3.520000e-01    1.050000e+00
  TX4e TX3er  1 3.400000e-01    1.230000e+00
  TC6e TX4er  1 3.400000e-01    1.230000e+00
  TC5e TX4er  1 3.520000e-01    1.050000e+00
  TC4e TX4er  1 3.520000e-01    1.050000e+00
  TC3e TX4er  1 3.520000e-01    1.050000e+00
  TC2e TX4er  1 3.850000e-01    8.550000e-01
  TC1e TX4er  1 3.850000e-01    8.550000e-01
  TC6e TC1er  1 3.850000e-01    8.550000e-01
  TC5e TC1er  1 3.660000e-01    9.350000e-01
  TC4e TC1er  1 3.660000e-01    9.350000e-01
  TC3e TC1er  1 3.400000e-01    1.230000e+00
  TC2e TC1er  1 3.400000e-01    1.510000e+00
  TC6e TC2er  1 3.660000e-01    9.350000e-01
  TC5e TC2er  1 3.660000e-01    9.350000e-01
  TC4e TC2er  1 3.520000e-01    1.050000e+00
  TC3e TC2er  1 3.400000e-01    1.230000e+00
  TC6e TC3er  1 3.520000e-01    1.050000e+00
  TC5e TC3er  1 3.520000e-01    1.050000e+00
  TC4e TC3er  1 3.400000e-01    1.230000e+00
  TC6e TC4er  1 3.400000e-01    1.230000e+00
  TC5e TC4er  1 3.400000e-01    1.230000e+00
  TC6e TC5er  1 3.400000e-01    1.230000e+00
 TC6eq  TC5e  1 3.400000e-01    1.770000e+00
 TC6eq  TC4e  1 3.400000e-01    1.770000e+00
 TC6eq  TC3e  1 3.400000e-01    1.510000e+00
 TC6eq  TC2e  1 3.400000e-01    1.230000e+00
 TC6eq  TC1e  1 3.520000e-01    1.050000e+00
 TC6eq  TX4e  1 3.400000e-01    1.770000e+00
 TC6eq  TX3e  1 3.400000e-01    1.770000e+00
 TC6eq  TX2e  1 3.400000e-01    1.770000e+00
 TC6eq  TX1e  1 3.400000e-01    1.770000e+00
 TC5eq  TC4e  1 3.400000e-01    1.770000e+00
 TC5eq  TC3e  1 3.400000e-01    1.510000e+00
 TC5eq  TC2e  1 3.400000e-01    1.230000e+00
 TC5eq  TC1e  1 3.400000e-01    1.230000e+00
 TC5eq  TX4e  1 3.400000e-01    1.510000e+00
 TC5eq  TX3e  1 3.400000e-01    1.510000e+00
 TC5eq  TX2e  1 3.400000e-01    1.510000e+00
 TC5eq  TX1e  1 3.400000e-01    1.770000e+00
 TC4eq  TC3e  1 3.400000e-01    1.770000e+00
 TC4eq  TC2e  1 3.400000e-01    1.510000e+00
 TC4eq  TC1e  1 3.400000e-01    1.230000e+00
 TC4eq  TX4e  1 3.400000e-01    1.510000e+00
 TC4eq  TX3e  1 3.400000e-01    1.510000e+00
 TC4eq  TX2e  1 3.400000e-01    1.510000e+00
 TC4eq  TX1e  1 3.400000e-01    1.770000e+00
 TC3eq  TC2e  1 3.400000e-01    1.770000e+00
 TC3eq  TC1e  1 3.400000e-01    1.770000e+00
 TC3eq  TX4e  1 3.400000e-01    1.510000e+00
 TC3eq  TX3e  1 3.400000e-01    1.510000e+00
 TC3eq  TX2e  1 3.400000e-01    1.510000e+00
 TC3eq  TX1e  1 3.400000e-01    1.770000e+00
 TC2eq  TC1e  1 3.400000e-01    2.020000e+00
 TC2eq  TX4e  1 3.520000e-01    1.050000e+00
 TC2eq  TX3e  1 3.400000e-01    1.510000e+00
 TC2eq  TX2e  1 3.400000e-01    1.510000e+00
 TC2eq  TX1e  1 3.400000e-01    1.510000e+00
 TC1eq  TX4e  1 3.520000e-01    1.050000e+00
 TC1eq  TX3e  1 3.400000e-01    1.510000e+00
 TC1eq  TX2e  1 3.400000e-01    1.510000e+00
 TC1eq  TX1e  1 3.400000e-01    1.510000e+00
 TX4eq  TX3e  1 3.400000e-01    1.770000e+00
 TX4eq  TX2e  1 3.400000e-01    1.770000e+00
 TX4eq  TX1e  1 3.400000e-01    1.770000e+00
 TX3eq  TX2e  1 3.400000e-01    2.020000e+00
 TX3eq  TX1e  1 3.400000e-01    2.020000e+00
 TX2eq  TX1e  1 3.400000e-01    2.020000e+00
 TC6eq TC6eq  1 3.400000e-01    2.020000e+00
 TC6eq TC5eq  1 3.400000e-01    1.770000e+00
 TC6eq TC4eq  1 3.400000e-01    1.770000e+00
 TC6eq TC3eq  1 3.400000e-01    1.510000e+00
 TC6eq TC2eq  1 3.400000e-01    1.230000e+00
 TC6eq TC1eq  1 3.520000e-01    1.050000e+00
 TC6eq TX4eq  1 3.400000e-01    1.770000e+00
 TC6eq TX3eq  1 3.400000e-01    1.770000e+00
 TC6eq TX2eq  1 3.400000e-01    1.770000e+00
 TC6eq TX1eq  1 3.400000e-01    1.770000e+00
 TC5eq TC5eq  1 3.400000e-01    1.770000e+00
 TC5eq TC4eq  1 3.400000e-01    1.770000e+00
 TC5eq TC3eq  1 3.400000e-01    1.510000e+00
 TC5eq TC2eq  1 3.400000e-01    1.230000e+00
 TC5eq TC1eq  1 3.400000e-01    1.230000e+00
 TC5eq TX4eq  1 3.400000e-01    1.510000e+00
 TC5eq TX3eq  1 3.400000e-01    1.510000e+00
 TC5eq TX2eq  1 3.400000e-01    1.510000e+00
 TC5eq TX1eq  1 3.400000e-01    1.770000e+00
 TC4eq TC4eq  1 3.400000e-01    1.770000e+00
 TC4eq TC3eq  1 3.400000e-01    1.770000e+00
 TC4eq TC2eq  1 3.400000e-01    1.510000e+00
 TC4eq TC1eq  1 3.400000e-01    1.230000e+00
 TC4eq TX4eq  1 3.400000e-01    1.510000e+00
 TC4eq TX3eq  1 3.400000e-01    1.510000e+00
 TC4eq TX2eq  1 3.400000e-01    1.510000e+00
 TC4eq TX1eq  1 3.400000e-01    1.770000e+00
 TC3eq TC3eq  1 3.400000e-01    1.770000e+00
 TC3eq TC2eq  1 3.400000e-01    1.770000e+00
 TC3eq TC1eq  1 3.400000e-01    1.770000e+00
 TC3eq TX4eq  1 3.400000e-01    1.510000e+00
 TC3eq TX3eq  1 3.400000e-01    1.510000e+00
 TC3eq TX2eq  1 3.400000e-01    1.510000e+00
 TC3eq TX1eq  1 3.400000e-01    1.770000e+00
 TC2eq TC2eq  1 3.400000e-01    1.770000e+00
 TC2eq TC1eq  1 3.400000e-01    2.020000e+00
 TC2eq TX4eq  1 3.520000e-01    1.050000e+00
 TC2eq TX3eq  1 3.400000e-01    1.510000e+00
 TC2eq TX2eq  1 3.400000e-01    1.510000e+00
 TC2eq TX1eq  1 3.400000e-01    1.510000e+00
 TC1eq TC1eq  1 3.400000e-01    1.770000e+00
 TC1eq TX4eq  1 3.520000e-01    1.050000e+00
 TC1eq TX3eq  1 3.400000e-01    1.510000e+00
 TC1eq TX2eq  1 3.400000e-01    1.510000e+00
 TC1eq TX1eq  1 3.400000e-01    1.510000e+00
 TX4eq TX4eq  1 3.400000e-01    1.770000e+00
 TX4eq TX3eq  1 3.400000e-01    1.770000e+00
 TX4eq TX2eq  1 3.400000e-01    1.770000e+00
 TX4eq TX1eq  1 3.400000e-01    1.770000e+00
 TX3eq TX3eq  1 3.400000e-01    1.770000e+00
 TX3eq TX2eq  1 3.400000e-01    2.020000e+00
 TX3eq TX1eq  1 3.400000e-01    2.020000e+00
 TX2eq TX2eq  1 3.400000e-01    2.020000e+00
 TX2eq TX1eq  1 3.400000e-01    2.020000e+00
 TX1eq TX1eq  1 3.400000e-01    2.280000e+00
 TC6eq TC5eh  1 3.400000e-01    1.770000e+00
 TC6eq TC4eh  1 3.400000e-01    1.770000e+00
 TC5eq TC4eh  1 3.400000e-01    1.770000e+00
 TC6eq TC3eh  1 3.400000e-01    1.510000e+00
 TC5eq TC3eh  1 3.400000e-01    1.510000e+00
 TC4eq TC3eh  1 3.400000e-01    1.770000e+00
 TC6eq TC2eh  1 3.400000e-01    1.230000e+00
 TC5eq TC2eh  1 3.400000e-01    1.230000e+00
 TC4eq TC2eh  1 3.400000e-01    1.510000e+00
 TC3eq TC2eh  1 3.400000e-01    1.770000e+00
 TC6eq TC1eh  1 3.520000e-01    1.050000e+00
 TC5eq TC1eh  1 3.400000e-01    1.230000e+00
 TC4eq TC1eh  1 3.400000e-01    1.230000e+00
 TC3eq TC1eh  1 3.400000e-01    1.770000e+00
 TC2eq TC1eh  1 3.400000e-01    2.020000e+00
 TC6eq TX4eh  1 3.400000e-01    1.770000e+00
 TC5eq TX4eh  1 3.400000e-01    1.510000e+00
 TC4eq TX4eh  1 3.400000e-01    1.510000e+00
 TC3eq TX4eh  1 3.400000e-01    1.510000e+00
 TC2eq TX4eh  1 3.520000e-01    1.050000e+00
 TC1eq TX4eh  1 3.520000e-01    1.050000e+00
 TC6eq TX3eh  1 3.400000e-01    1.770000e+00
 TC5eq TX3eh  1 3.400000e-01    1.510000e+00
 TC4eq TX3eh  1 3.400000e-01    1.510000e+00
 TC3eq TX3eh  1 3.400000e-01    1.510000e+00
 TC2eq TX3eh  1 3.400000e-01    1.510000e+00
 TC1eq TX3eh  1 3.400000e-01    1.510000e+00
 TX4eq TX3eh  1 3.400000e-01    1.770000e+00
 TC6eq TX2eh  1 3.400000e-01    1.770000e+00
 TC5eq TX2eh  1 3.400000e-01    1.510000e+00
 TC4eq TX2eh  1 3.400000e-01    1.510000e+00
 TC3eq TX2eh  1 3.400000e-01    1.510000e+00
 TC2eq TX2eh  1 3.400000e-01    1.510000e+00
 TC1eq TX2eh  1 3.400000e-01    1.510000e+00
 TX4eq TX2eh  1 3.400000e-01    1.770000e+00
 TX3eq TX2eh  1 3.400000e-01    2.020000e+00
 TC6eq TX1eh  1 3.400000e-01    1.770000e+00
 TC5eq TX1eh  1 3.400000e-01    1.770000e+00
 TC4eq TX1eh  1 3.400000e-01    1.770000e+00
 TC3eq TX1eh  1 3.400000e-01    1.770000e+00
 TC2eq TX1eh  1 3.400000e-01    1.510000e+00
 TC1eq TX1eh  1 3.400000e-01    1.510000e+00
 TX4eq TX1eh  1 3.400000e-01    1.770000e+00
 TX3eq TX1eh  1 3.400000e-01    2.020000e+00
 TX2eq TX1eh  1 3.400000e-01    2.020000e+00
 TC6eq TC5er  1 3.400000e-01    1.770000e+00
 TC6eq TC4er  1 3.400000e-01    1.770000e+00
 TC5eq TC4er  1 3.400000e-01    1.770000e+00
 TC6eq TC3er  1 3.400000e-01    1.510000e+00
 TC5eq TC3er  1 3.400000e-01    1.510000e+00
 TC4eq TC3er  1 3.400000e-01    1.770000e+00
 TC6eq TC2er  1 3.400000e-01    1.230000e+00
 TC5eq TC2er  1 3.400000e-01    1.230000e+00
 TC4eq TC2er  1 3.400000e-01    1.510000e+00
 TC3eq TC2er  1 3.400000e-01    1.770000e+00
 TC6eq TC1er  1 3.520000e-01    1.050000e+00
 TC5eq TC1er  1 3.400000e-01    1.230000e+00
 TC4eq TC1er  1 3.400000e-01    1.230000e+00
 TC3eq TC1er  1 3.400000e-01    1.770000e+00
 TC2eq TC1er  1 3.400000e-01    2.020000e+00
 TC6eq TX4er  1 3.400000e-01    1.770000e+00
 TC5eq TX4er  1 3.400000e-01    1.510000e+00
 TC4eq TX4er  1 3.400000e-01    1.510000e+00
 TC3eq TX4er  1 3.400000e-01    1.510000e+00
 TC2eq TX4er  1 3.520000e-01    1.050000e+00
 TC1eq TX4er  1 3.520000e-01    1.050000e+00
 TC6eq TX3er  1 3.400000e-01    1.770000e+00
 TC5eq TX3er  1 3.400000e-01    1.510000e+00
 TC4eq TX3er  1 3.400000e-01    1.510000e+00
 TC3eq TX3er  1 3.400000e-01    1.510000e+00
 TC2eq TX3er  1 3.400000e-01    1.510000e+00
 TC1eq TX3er  1 3.400000e-01    1.510000e+00
 TX4eq TX3er  1 3.400000e-01    1.770000e+00
 TC6eq TX2er  1 3.400000e-01    1.770000e+00
 TC5eq TX2er  1 3.400000e-01    1.510000e+00
 TC4eq TX2er  1 3.400000e-01    1.510000e+00
 TC3eq TX2er  1 3.400000e-01    1.510000e+00
 TC2eq TX2er  1 3.400000e-01    1.510000e+00
 TC1eq TX2er  1 3.400000e-01    1.510000e+00
 TX4eq TX2er  1 3.400000e-01    1.770000e+00
 TX3eq TX2er  1 3.400000e-01    2.020000e+00
 TC6eq TX1er  1 3.400000e-01    1.770000e+00
 TC5eq TX1er  1 3.400000e-01    1.770000e+00
 TC4eq TX1er  1 3.400000e-01    1.770000e+00
 TC3eq TX1er  1 3.400000e-01    1.770000e+00
 TC2eq TX1er  1 3.400000e-01    1.510000e+00
 TC1eq TX1er  1 3.400000e-01    1.510000e+00
 TX4eq TX1er  1 3.400000e-01    1.770000e+00
 TX3eq TX1er  1 3.400000e-01    2.020000e+00
 TX2eq TX1er  1 3.400000e-01    2.020000e+00
 TC6eh  TC5e  1 3.400000e-01    1.230000e+00
 TC6eh  TC4e  1 3.400000e-01    1.230000e+00
 TC6eh  TC3e  1 3.520000e-01    1.050000e+00
 TC6eh  TC2e  1 3.660000e-01    9.350000e-01
 TC6eh  TC1e  1 3.850000e-01    8.550000e-01
 TC6eh  TX4e  1 3.400000e-01    1.230000e+00
 TC6eh  TX3e  1 3.400000e-01    1.230000e+00
 TC6eh  TX2e  1 3.400000e-01    1.230000e+00
 TC6eh  TX1e  1 3.400000e-01    1.230000e+00
 TC5eh  TC4e  1 3.400000e-01    1.230000e+00
 TC5eh  TC3e  1 3.520000e-01    1.050000e+00
 TC5eh  TC2e  1 3.660000e-01    9.350000e-01
 TC5eh  TC1e  1 3.660000e-01    9.350000e-01
 TC5eh  TX4e  1 3.520000e-01    1.050000e+00
 TC5eh  TX3e  1 3.520000e-01    1.050000e+00
 TC5eh  TX2e  1 3.520000e-01    1.050000e+00
 TC5eh  TX1e  1 3.400000e-01    1.230000e+00
 TC4eh  TC3e  1 3.400000e-01    1.230000e+00
 TC4eh  TC2e  1 3.520000e-01    1.050000e+00
 TC4eh  TC1e  1 3.660000e-01    9.350000e-01
 TC4eh  TX4e  1 3.520000e-01    1.050000e+00
 TC4eh  TX3e  1 3.520000e-01    1.050000e+00
 TC4eh  TX2e  1 3.520000e-01    1.050000e+00
 TC4eh  TX1e  1 3.400000e-01    1.230000e+00
 TC3eh  TC2e  1 3.400000e-01    1.230000e+00
 TC3eh  TC1e  1 3.400000e-01    1.230000e+00
 TC3eh  TX4e  1 3.520000e-01    1.050000e+00
 TC3eh  TX3e  1 3.520000e-01    1.050000e+00
 TC3eh  TX2e  1 3.520000e-01    1.050000e+00
 TC3eh  TX1e  1 3.400000e-01    1.230000e+00
 TC2eh  TC1e  1 3.400000e-01    1.510000e+00
 TC2eh  TX4e  1 3.850000e-01    8.550000e-01
 TC2eh  TX3e  1 3.520000e-01    1.050000e+00
 TC2eh  TX2e  1 3.520000e-01    1.050000e+00
 TC2eh  TX1e  1 3.520000e-01    1.050000e+00
 TC1eh  TX4e  1 3.850000e-01    8.550000e-01
 TC1eh  TX3e  1 3.520000e-01    1.050000e+00
 TC1eh  TX2e  1 3.520000e-01    1.050000e+00
 TC1eh  TX1e  1 3.520000e-01    1.050000e+00
 TX4eh  TX3e  1 3.400000e-01    1.230000e+00
 TX4eh  TX2e  1 3.400000e-01    1.230000e+00
 TX4eh  TX1e  1 3.400000e-01    1.230000e+00
 TX3eh  TX2e  1 3.400000e-01    1.510000e+00
 TX3eh  TX1e  1 3.400000e-01    1.510000e+00
 TX2eh  TX1e  1 3.400000e-01    1.510000e+00
 TC6eh TC6eq  1 3.400000e-01    2.020000e+00
 TC6eh TX1eq  1 3.400000e-01    1.770000e+00
 TC6eh TX2eq  1 3.400000e-01    1.770000e+00
 TC6eh TX3eq  1 3.400000e-01    1.770000e+00
 TC6eh TX4eq  1 3.400000e-01    1.770000e+00
 TC6eh TC1eq  1 3.520000e-01    1.050000e+00
 TC6eh TC2eq  1 3.400000e-01    1.230000e+00
 TC6eh TC3eq  1 3.400000e-01    1.510000e+00
 TC6eh TC4eq  1 3.400000e-01    1.770000e+00
 TC6eh TC5eq  1 3.400000e-01    1.770000e+00
 TC5eh TC5eq  1 3.400000e-01    1.770000e+00
 TC5eh TX1eq  1 3.400000e-01    1.770000e+00
 TC5eh TX2eq  1 3.400000e-01    1.510000e+00
 TC5eh TX3eq  1 3.400000e-01    1.510000e+00
 TC5eh TX4eq  1 3.400000e-01    1.510000e+00
 TC5eh TC1eq  1 3.400000e-01    1.230000e+00
 TC5eh TC2eq  1 3.400000e-01    1.230000e+00
 TC5eh TC3eq  1 3.400000e-01    1.510000e+00
 TC5eh TC4eq  1 3.400000e-01    1.770000e+00
 TC4eh TC4eq  1 3.400000e-01    1.770000e+00
 TC4eh TX1eq  1 3.400000e-01    1.770000e+00
 TC4eh TX2eq  1 3.400000e-01    1.510000e+00
 TC4eh TX3eq  1 3.400000e-01    1.510000e+00
 TC4eh TX4eq  1 3.400000e-01    1.510000e+00
 TC4eh TC1eq  1 3.400000e-01    1.230000e+00
 TC4eh TC2eq  1 3.400000e-01    1.510000e+00
 TC4eh TC3eq  1 3.400000e-01    1.770000e+00
 TC3eh TC3eq  1 3.400000e-01    1.770000e+00
 TC3eh TX1eq  1 3.400000e-01    1.770000e+00
 TC3eh TX2eq  1 3.400000e-01    1.510000e+00
 TC3eh TX3eq  1 3.400000e-01    1.510000e+00
 TC3eh TX4eq  1 3.400000e-01    1.510000e+00
 TC3eh TC1eq  1 3.400000e-01    1.770000e+00
 TC3eh TC2eq  1 3.400000e-01    1.770000e+00
 TC2eh TC2eq  1 3.400000e-01    1.770000e+00
 TC2eh TX1eq  1 3.400000e-01    1.510000e+00
 TC2eh TX2eq  1 3.400000e-01    1.510000e+00
 TC2eh TX3eq  1 3.400000e-01    1.510000e+00
 TC2eh TX4eq  1 3.520000e-01    1.050000e+00
 TC2eh TC1eq  1 3.400000e-01    2.020000e+00
 TC1eh TC1eq  1 3.400000e-01    1.770000e+00
 TC1eh TX1eq  1 3.400000e-01    1.510000e+00
 TC1eh TX2eq  1 3.400000e-01    1.510000e+00
 TC1eh TX3eq  1 3.400000e-01    1.510000e+00
 TC1eh TX4eq  1 3.520000e-01    1.050000e+00
 TX4eh TX4eq  1 3.400000e-01    1.770000e+00
 TX4eh TX1eq  1 3.400000e-01    1.770000e+00
 TX4eh TX2eq  1 3.400000e-01    1.770000e+00
 TX4eh TX3eq  1 3.400000e-01    1.770000e+00
 TX3eh TX3eq  1 3.400000e-01    1.770000e+00
 TX3eh TX1eq  1 3.400000e-01    2.020000e+00
 TX3eh TX2eq  1 3.400000e-01    2.020000e+00
 TX2eh TX2eq  1 3.400000e-01    2.020000e+00
 TX2eh TX1eq  1 3.400000e-01    2.020000e+00
 TX1eh TX1eq  1 3.400000e-01    2.280000e+00
 TC6eh TC6eh  1 3.400000e-01    1.770000e+00
 TC5eh TC5eh  1 3.400000e-01    1.510000e+00
 TC4eh TC4eh  1 3.400000e-01    1.510000e+00
 TC3eh TC3eh  1 3.400000e-01    1.510000e+00
 TC2eh TC2eh  1 3.400000e-01    1.510000e+00
 TC1eh TC1eh  1 3.400000e-01    1.510000e+00
 TX4eh TX4eh  1 3.400000e-01    1.510000e+00
 TX3eh TX3eh  1 3.400000e-01    1.510000e+00
 TX2eh TX2eh  1 3.400000e-01    1.770000e+00
 TX1eh TX1eh  1 3.400000e-01    2.020000e+00
 TC6eh TC5eh  1 3.400000e-01    1.510000e+00
 TC6eh TC4eh  1 3.400000e-01    1.510000e+00
 TC6eh TC3eh  1 3.400000e-01    1.230000e+00
 TC6eh TC2eh  1 3.520000e-01    1.050000e+00
 TC6eh TC1eh  1 3.660000e-01    9.350000e-01
 TC6eh TX4eh  1 3.400000e-01    1.510000e+00
 TC6eh TX3eh  1 3.400000e-01    1.510000e+00
 TC6eh TX2eh  1 3.400000e-01    1.510000e+00
 TC6eh TX1eh  1 3.400000e-01    1.510000e+00
 TC5eh TC4eh  1 3.400000e-01    1.510000e+00
 TC5eh TC3eh  1 3.400000e-01    1.230000e+00
 TC5eh TC2eh  1 3.520000e-01    1.050000e+00
 TC5eh TC1eh  1 3.520000e-01    1.050000e+00
 TC5eh TX4eh  1 3.400000e-01    1.230000e+00
 TC5eh TX3eh  1 3.400000e-01    1.230000e+00
 TC5eh TX2eh  1 3.400000e-01    1.230000e+00
 TC5eh TX1eh  1 3.400000e-01    1.510000e+00
 TC4eh TC3eh  1 3.400000e-01    1.510000e+00
 TC4eh TC2eh  1 3.400000e-01    1.230000e+00
 TC4eh TC1eh  1 3.520000e-01    1.050000e+00
 TC4eh TX4eh  1 3.400000e-01    1.230000e+00
 TC4eh TX3eh  1 3.400000e-01    1.230000e+00
 TC4eh TX2eh  1 3.400000e-01    1.230000e+00
 TC4eh TX1eh  1 3.400000e-01    1.510000e+00
 TC3eh TC2eh  1 3.400000e-01    1.510000e+00
 TC3eh TC1eh  1 3.400000e-01    1.510000e+00
 TC3eh TX4eh  1 3.400000e-01    1.230000e+00
 TC3eh TX3eh  1 3.400000e-01    1.230000e+00
 TC3eh TX2eh  1 3.400000e-01    1.230000e+00
 TC3eh TX1eh  1 3.400000e-01    1.510000e+00
 TC2eh TC1eh  1 3.400000e-01    1.770000e+00
 TC2eh TX4eh  1 3.660000e-01    9.350000e-01
 TC2eh TX3eh  1 3.400000e-01    1.230000e+00
 TC2eh TX2eh  1 3.400000e-01    1.230000e+00
 TC2eh TX1eh  1 3.400000e-01    1.230000e+00
 TC1eh TX4eh  1 3.660000e-01    9.350000e-01
 TC1eh TX3eh  1 3.400000e-01    1.230000e+00
 TC1eh TX2eh  1 3.400000e-01    1.230000e+00
 TC1eh TX1eh  1 3.400000e-01    1.230000e+00
 TX4eh TX3eh  1 3.400000e-01    1.510000e+00
 TX4eh TX2eh  1 3.400000e-01    1.510000e+00
 TX4eh TX1eh  1 3.400000e-01    1.510000e+00
 TX3eh TX2eh  1 3.400000e-01    1.770000e+00
 TX3eh TX1eh  1 3.400000e-01    1.770000e+00
 TX2eh TX1eh  1 3.400000e-01    1.770000e+00
 TC6eh TC6er  1 3.400000e-01    1.510000e+00
 TC6eh TC5er  1 3.400000e-01    1.230000e+00
 TC6eh TC4er  1 3.400000e-01    1.230000e+00
 TC6eh TC3er  1 3.520000e-01    1.050000e+00
 TC6eh TC2er  1 3.660000e-01    9.350000e-01
 TC6eh TC1er  1 3.850000e-01    8.550000e-01
 TC6eh TX4er  1 3.400000e-01    1.230000e+00
 TC6eh TX3er  1 3.400000e-01    1.230000e+00
 TC6eh TX2er  1 3.400000e-01    1.230000e+00
 TC6eh TX1er  1 3.400000e-01    1.230000e+00
 TC5eh TC5er  1 3.400000e-01    1.230000e+00
 TC5eh TC4er  1 3.400000e-01    1.230000e+00
 TC5eh TC3er  1 3.520000e-01    1.050000e+00
 TC5eh TC2er  1 3.660000e-01    9.350000e-01
 TC5eh TC1er  1 3.660000e-01    9.350000e-01
 TC5eh TX4er  1 3.520000e-01    1.050000e+00
 TC5eh TX3er  1 3.520000e-01    1.050000e+00
 TC5eh TX2er  1 3.520000e-01    1.050000e+00
 TC5eh TX1er  1 3.400000e-01    1.230000e+00
 TC4eh TC4er  1 3.400000e-01    1.230000e+00
 TC4eh TC3er  1 3.400000e-01    1.230000e+00
 TC4eh TC2er  1 3.520000e-01    1.050000e+00
 TC4eh TC1er  1 3.660000e-01    9.350000e-01
 TC4eh TX4er  1 3.520000e-01    1.050000e+00
 TC4eh TX3er  1 3.520000e-01    1.050000e+00
 TC4eh TX2er  1 3.520000e-01    1.050000e+00
 TC4eh TX1er  1 3.400000e-01    1.230000e+00
 TC3eh TC3er  1 3.400000e-01    1.230000e+00
 TC3eh TC2er  1 3.400000e-01    1.230000e+00
 TC3eh TC1er  1 3.400000e-01    1.230000e+00
 TC3eh TX4er  1 3.520000e-01    1.050000e+00
 TC3eh TX3er  1 3.520000e-01    1.050000e+00
 TC3eh TX2er  1 3.520000e-01    1.050000e+00
 TC3eh TX1er  1 3.400000e-01    1.230000e+00
 TC2eh TC2er  1 3.400000e-01    1.230000e+00
 TC2eh TC1er  1 3.400000e-01    1.510000e+00
 TC2eh TX4er  1 3.850000e-01    8.550000e-01
 TC2eh TX3er  1 3.520000e-01    1.050000e+00
 TC2eh TX2er  1 3.520000e-01    1.050000e+00
 TC2eh TX1er  1 3.520000e-01    1.050000e+00
 TC1eh TC1er  1 3.400000e-01    1.230000e+00
 TC1eh TX4er  1 3.850000e-01    8.550000e-01
 TC1eh TX3er  1 3.520000e-01    1.050000e+00
 TC1eh TX2er  1 3.520000e-01    1.050000e+00
 TC1eh TX1er  1 3.520000e-01    1.050000e+00
 TX4eh TX4er  1 3.400000e-01    1.230000e+00
 TX4eh TX3er  1 3.400000e-01    1.230000e+00
 TX4eh TX2er  1 3.400000e-01    1.230000e+00
 TX4eh TX1er  1 3.400000e-01    1.230000e+00
 TX3eh TX3er  1 3.400000e-01    1.230000e+00
 TX3eh TX2er  1 3.400000e-01    1.510000e+00
 TX3eh TX1er  1 3.400000e-01    1.510000e+00
 TX2eh TX2er  1 3.400000e-01    1.510000e+00
 TX2eh TX1er  1 3.400000e-01    1.510000e+00
 TX1eh TX1er  1 3.400000e-01    1.770000e+00
 TC6er  TC5e  1 3.400000e-01    1.230000e+00
 TC6er  TC4e  1 3.400000e-01    1.230000e+00
 TC6er  TC3e  1 3.520000e-01    1.050000e+00
 TC6er  TC2e  1 3.660000e-01    9.350000e-01
 TC6er  TC1e  1 3.850000e-01    8.550000e-01
 TC6er  TX4e  1 3.400000e-01    1.230000e+00
 TC6er  TX3e  1 3.400000e-01    1.230000e+00
 TC6er  TX2e  1 3.400000e-01    1.230000e+00
 TC6er  TX1e  1 3.400000e-01    1.230000e+00
 TC5er  TC4e  1 3.400000e-01    1.230000e+00
 TC5er  TC3e  1 3.520000e-01    1.050000e+00
 TC5er  TC2e  1 3.660000e-01    9.350000e-01
 TC5er  TC1e  1 3.660000e-01    9.350000e-01
 TC5er  TX4e  1 3.520000e-01    1.050000e+00
 TC5er  TX3e  1 3.520000e-01    1.050000e+00
 TC5er  TX2e  1 3.520000e-01    1.050000e+00
 TC5er  TX1e  1 3.400000e-01    1.230000e+00
 TC4er  TC3e  1 3.400000e-01    1.230000e+00
 TC4er  TC2e  1 3.520000e-01    1.050000e+00
 TC4er  TC1e  1 3.660000e-01    9.350000e-01
 TC4er  TX4e  1 3.520000e-01    1.050000e+00
 TC4er  TX3e  1 3.520000e-01    1.050000e+00
 TC4er  TX2e  1 3.520000e-01    1.050000e+00
 TC4er  TX1e  1 3.400000e-01    1.230000e+00
 TC3er  TC2e  1 3.400000e-01    1.230000e+00
 TC3er  TC1e  1 3.400000e-01    1.230000e+00
 TC3er  TX4e  1 3.520000e-01    1.050000e+00
 TC3er  TX3e  1 3.520000e-01    1.050000e+00
 TC3er  TX2e  1 3.520000e-01    1.050000e+00
 TC3er  TX1e  1 3.400000e-01    1.230000e+00
 TC2er  TC1e  1 3.400000e-01    1.510000e+00
 TC2er  TX4e  1 3.850000e-01    8.550000e-01
 TC2er  TX3e  1 3.520000e-01    1.050000e+00
 TC2er  TX2e  1 3.520000e-01    1.050000e+00
 TC2er  TX1e  1 3.520000e-01    1.050000e+00
 TC1er  TX4e  1 3.850000e-01    8.550000e-01
 TC1er  TX3e  1 3.520000e-01    1.050000e+00
 TC1er  TX2e  1 3.520000e-01    1.050000e+00
 TC1er  TX1e  1 3.520000e-01    1.050000e+00
 TX4er  TX3e  1 3.400000e-01    1.230000e+00
 TX4er  TX2e  1 3.400000e-01    1.230000e+00
 TX4er  TX1e  1 3.400000e-01    1.230000e+00
 TX3er  TX2e  1 3.400000e-01    1.510000e+00
 TX3er  TX1e  1 3.400000e-01    1.510000e+00
 TX2er  TX1e  1 3.400000e-01    1.510000e+00
 TC6er TC6eq  1 3.400000e-01    2.020000e+00
 TC6er TX1eq  1 3.400000e-01    1.770000e+00
 TC6er TX2eq  1 3.400000e-01    1.770000e+00
 TC6er TX3eq  1 3.400000e-01    1.770000e+00
 TC6er TX4eq  1 3.400000e-01    1.770000e+00
 TC6er TC1eq  1 3.520000e-01    1.050000e+00
 TC6er TC2eq  1 3.400000e-01    1.230000e+00
 TC6er TC3eq  1 3.400000e-01    1.510000e+00
 TC6er TC4eq  1 3.400000e-01    1.770000e+00
 TC6er TC5eq  1 3.400000e-01    1.770000e+00
 TC5er TC5eq  1 3.400000e-01    1.770000e+00
 TC5er TX1eq  1 3.400000e-01    1.770000e+00
 TC5er TX2eq  1 3.400000e-01    1.510000e+00
 TC5er TX3eq  1 3.400000e-01    1.510000e+00
 TC5er TX4eq  1 3.400000e-01    1.510000e+00
 TC5er TC1eq  1 3.400000e-01    1.230000e+00
 TC5er TC2eq  1 3.400000e-01    1.230000e+00
 TC5er TC3eq  1 3.400000e-01    1.510000e+00
 TC5er TC4eq  1 3.400000e-01    1.770000e+00
 TC4er TC4eq  1 3.400000e-01    1.770000e+00
 TC4er TX1eq  1 3.400000e-01    1.770000e+00
 TC4er TX2eq  1 3.400000e-01    1.510000e+00
 TC4er TX3eq  1 3.400000e-01    1.510000e+00
 TC4er TX4eq  1 3.400000e-01    1.510000e+00
 TC4er TC1eq  1 3.400000e-01    1.230000e+00
 TC4er TC2eq  1 3.400000e-01    1.510000e+00
 TC4er TC3eq  1 3.400000e-01    1.770000e+00
 TC3er TC3eq  1 3.400000e-01    1.770000e+00
 TC3er TX1eq  1 3.400000e-01    1.770000e+00
 TC3er TX2eq  1 3.400000e-01    1.510000e+00
 TC3er TX3eq  1 3.400000e-01    1.510000e+00
 TC3er TX4eq  1 3.400000e-01    1.510000e+00
 TC3er TC1eq  1 3.400000e-01    1.770000e+00
 TC3er TC2eq  1 3.400000e-01    1.770000e+00
 TC2er TC2eq  1 3.400000e-01    1.770000e+00
 TC2er TX1eq  1 3.400000e-01    1.510000e+00
 TC2er TX2eq  1 3.400000e-01    1.510000e+00
 TC2er TX3eq  1 3.400000e-01    1.510000e+00
 TC2er TX4eq  1 3.520000e-01    1.050000e+00
 TC2er TC1eq  1 3.400000e-01    2.020000e+00
 TC1er TC1eq  1 3.400000e-01    1.770000e+00
 TC1er TX1eq  1 3.400000e-01    1.510000e+00
 TC1er TX2eq  1 3.400000e-01    1.510000e+00
 TC1er TX3eq  1 3.400000e-01    1.510000e+00
 TC1er TX4eq  1 3.520000e-01    1.050000e+00
 TX4er TX4eq  1 3.400000e-01    1.770000e+00
 TX4er TX1eq  1 3.400000e-01    1.770000e+00
 TX4er TX2eq  1 3.400000e-01    1.770000e+00
 TX4er TX3eq  1 3.400000e-01    1.770000e+00
 TX3er TX3eq  1 3.400000e-01    1.770000e+00
 TX3er TX1eq  1 3.400000e-01    2.020000e+00
 TX3er TX2eq  1 3.400000e-01    2.020000e+00
 TX2er TX2eq  1 3.400000e-01    2.020000e+00
 TX2er TX1eq  1 3.400000e-01    2.020000e+00
 TX1er TX1eq  1 3.400000e-01    2.280000e+00
 TC6er TC5eh  1 3.400000e-01    1.230000e+00
 TC6er TC4eh  1 3.400000e-01    1.230000e+00
 TC6er TC3eh  1 3.520000e-01    1.050000e+00
 TC6er TC2eh  1 3.660000e-01    9.350000e-01
 TC6er TC1eh  1 3.850000e-01    8.550000e-01
 TC6er TX4eh  1 3.400000e-01    1.230000e+00
 TC6er TX3eh  1 3.400000e-01    1.230000e+00
 TC6er TX2eh  1 3.400000e-01    1.230000e+00
 TC6er TX1eh  1 3.400000e-01    1.230000e+00
 TC5er TC4eh  1 3.400000e-01    1.230000e+00
 TC5er TC3eh  1 3.520000e-01    1.050000e+00
 TC5er TC2eh  1 3.660000e-01    9.350000e-01
 TC5er TC1eh  1 3.660000e-01    9.350000e-01
 TC5er TX4eh  1 3.520000e-01    1.050000e+00
 TC5er TX3eh  1 3.520000e-01    1.050000e+00
 TC5er TX2eh  1 3.520000e-01    1.050000e+00
 TC5er TX1eh  1 3.400000e-01    1.230000e+00
 TC4er TC3eh  1 3.400000e-01    1.230000e+00
 TC4er TC2eh  1 3.520000e-01    1.050000e+00
 TC4er TC1eh  1 3.660000e-01    9.350000e-01
 TC4er TX4eh  1 3.520000e-01    1.050000e+00
 TC4er TX3eh  1 3.520000e-01    1.050000e+00
 TC4er TX2eh  1 3.520000e-01    1.050000e+00
 TC4er TX1eh  1 3.400000e-01    1.230000e+00
 TC3er TC2eh  1 3.400000e-01    1.230000e+00
 TC3er TC1eh  1 3.400000e-01    1.230000e+00
 TC3er TX4eh  1 3.520000e-01    1.050000e+00
 TC3er TX3eh  1 3.520000e-01    1.050000e+00
 TC3er TX2eh  1 3.520000e-01    1.050000e+00
 TC3er TX1eh  1 3.400000e-01    1.230000e+00
 TC2er TC1eh  1 3.400000e-01    1.510000e+00
 TC2er TX4eh  1 3.850000e-01    8.550000e-01
 TC2er TX3eh  1 3.520000e-01    1.050000e+00
 TC2er TX2eh  1 3.520000e-01    1.050000e+00
 TC2er TX1eh  1 3.520000e-01    1.050000e+00
 TC1er TX4eh  1 3.850000e-01    8.550000e-01
 TC1er TX3eh  1 3.520000e-01    1.050000e+00
 TC1er TX2eh  1 3.520000e-01    1.050000e+00
 TC1er TX1eh  1 3.520000e-01    1.050000e+00
 TX4er TX3eh  1 3.400000e-01    1.230000e+00
 TX4er TX2eh  1 3.400000e-01    1.230000e+00
 TX4er TX1eh  1 3.400000e-01    1.230000e+00
 TX3er TX2eh  1 3.400000e-01    1.510000e+00
 TX3er TX1eh  1 3.400000e-01    1.510000e+00
 TX2er TX1eh  1 3.400000e-01    1.510000e+00
 TC6er TC6er  1 3.400000e-01    1.230000e+00
 TC5er TC5er  1 3.520000e-01    1.050000e+00
 TC4er TC4er  1 3.520000e-01    1.050000e+00
 TC3er TC3er  1 3.520000e-01    1.050000e+00
 TC2er TC2er  1 3.520000e-01    1.050000e+00
 TC1er TC1er  1 3.520000e-01    1.050000e+00
 TX4er TX4er  1 3.520000e-01    1.050000e+00
 TX3er TX3er  1 3.520000e-01    1.050000e+00
 TX2er TX2er  1 3.400000e-01    1.230000e+00
 TX1er TX1er  1 3.400000e-01    1.510000e+00
 TC6er TC5er  1 3.520000e-01    1.050000e+00
 TC6er TC4er  1 3.520000e-01    1.050000e+00
 TC6er TC3er  1 3.660000e-01    9.350000e-01
 TC6er TC2er  1 3.850000e-01    8.550000e-01
 TC6er TC1er  1 4.110000e-01    8.010000e-01
 TC6er TX4er  1 3.520000e-01    1.050000e+00
 TC6er TX3er  1 3.520000e-01    1.050000e+00
 TC6er TX2er  1 3.520000e-01    1.050000e+00
 TC6er TX1er  1 3.520000e-01    1.050000e+00
 TC5er TC4er  1 3.520000e-01    1.050000e+00
 TC5er TC3er  1 3.660000e-01    9.350000e-01
 TC5er TC2er  1 3.850000e-01    8.550000e-01
 TC5er TC1er  1 3.850000e-01    8.550000e-01
 TC5er TX4er  1 3.660000e-01    9.350000e-01
 TC5er TX3er  1 3.660000e-01    9.350000e-01
 TC5er TX2er  1 3.660000e-01    9.350000e-01
 TC5er TX1er  1 3.520000e-01    1.050000e+00
 TC4er TC3er  1 3.520000e-01    1.050000e+00
 TC4er TC2er  1 3.660000e-01    9.350000e-01
 TC4er TC1er  1 3.850000e-01    8.550000e-01
 TC4er TX4er  1 3.660000e-01    9.350000e-01
 TC4er TX3er  1 3.660000e-01    9.350000e-01
 TC4er TX2er  1 3.660000e-01    9.350000e-01
 TC4er TX1er  1 3.520000e-01    1.050000e+00
 TC3er TC2er  1 3.520000e-01    1.050000e+00
 TC3er TC1er  1 3.520000e-01    1.050000e+00
 TC3er TX4er  1 3.660000e-01    9.350000e-01
 TC3er TX3er  1 3.660000e-01    9.350000e-01
 TC3er TX2er  1 3.660000e-01    9.350000e-01
 TC3er TX1er  1 3.520000e-01    1.050000e+00
 TC2er TC1er  1 3.400000e-01    1.230000e+00
 TC2er TX4er  1 4.110000e-01    8.010000e-01
 TC2er TX3er  1 3.660000e-01    9.350000e-01
 TC2er TX2er  1 3.660000e-01    9.350000e-01
 TC2er TX1er  1 3.660000e-01    9.350000e-01
 TC1er TX4er  1 4.110000e-01    8.010000e-01
 TC1er TX3er  1 3.660000e-01    9.350000e-01
 TC1er TX2er  1 3.660000e-01    9.350000e-01
 TC1er TX1er  1 3.660000e-01    9.350000e-01
 TX4er TX3er  1 3.520000e-01    1.050000e+00
 TX4er TX2er  1 3.520000e-01    1.050000e+00
 TX4er TX1er  1 3.520000e-01    1.050000e+00
 TX3er TX2er  1 3.400000e-01    1.230000e+00
 TX3er TX1er  1 3.400000e-01    1.230000e+00
 TX2er TX1er  1 3.400000e-01    1.230000e+00
   P6d   C6e  1 4.700000e-01    3.070000e+00
   P6d   C5e  1 4.700000e-01    2.960000e+00
   P6d   C4e  1 4.700000e-01    2.790000e+00
   P6d   C3e  1 4.700000e-01    2.620000e+00
   P6d   C2e  1 4.700000e-01    2.620000e+00
   P6d   C1e  1 4.850000e-01    2.240000e+00
   P6d   X4e  1 4.700000e-01    3.240000e+00
   P6d   X3e  1 4.700000e-01    3.240000e+00
   P6d   X2e  1 4.700000e-01    3.070000e+00
   P6d   X1e  1 4.700000e-01    2.960000e+00
   P5d   C6e  1 4.700000e-01    3.070000e+00
   P5d   C5e  1 4.700000e-01    3.070000e+00
   P5d   C4e  1 4.700000e-01    2.960000e+00
   P5d   C3e  1 4.700000e-01    2.790000e+00
   P5d   C2e  1 4.700000e-01    2.790000e+00
   P5d   C1e  1 4.700000e-01    2.620000e+00
   P5d   X4e  1 4.700000e-01    3.390000e+00
   P5d   X3e  1 4.700000e-01    3.240000e+00
   P5d   X2e  1 4.700000e-01    3.240000e+00
   P5d   X1e  1 4.700000e-01    2.960000e+00
   P4d   C6e  1 4.700000e-01    3.240000e+00
   P4d   C5e  1 4.700000e-01    3.070000e+00
   P4d   C4e  1 4.700000e-01    2.960000e+00
   P4d   C3e  1 4.700000e-01    2.790000e+00
   P4d   C2e  1 4.700000e-01    2.790000e+00
   P4d   C1e  1 4.700000e-01    2.620000e+00
   P4d   X4e  1 4.700000e-01    3.390000e+00
   P4d   X3e  1 4.700000e-01    3.240000e+00
   P4d   X2e  1 4.700000e-01    3.240000e+00
   P4d   X1e  1 4.700000e-01    3.070000e+00
   P3d   C6e  1 4.700000e-01    3.390000e+00
   P3d   C5e  1 4.700000e-01    3.240000e+00
   P3d   C4e  1 4.700000e-01    3.070000e+00
   P3d   C3e  1 4.700000e-01    2.790000e+00
   P3d   C2e  1 4.700000e-01    2.790000e+00
   P3d   C1e  1 4.700000e-01    2.620000e+00
   P3d   X4e  1 4.700000e-01    3.390000e+00
   P3d   X3e  1 4.700000e-01    3.390000e+00
   P3d   X2e  1 4.700000e-01    3.240000e+00
   P3d   X1e  1 4.700000e-01    3.070000e+00
   P2d   C6e  1 4.700000e-01    3.390000e+00
   P2d   C5e  1 4.700000e-01    3.240000e+00
   P2d   C4e  1 4.700000e-01    3.070000e+00
   P2d   C3e  1 4.700000e-01    2.960000e+00
   P2d   C2e  1 4.700000e-01    2.960000e+00
   P2d   C1e  1 4.700000e-01    2.790000e+00
   P2d   X4e  1 4.700000e-01    3.390000e+00
   P2d   X3e  1 4.700000e-01    3.390000e+00
   P2d   X2e  1 4.700000e-01    3.240000e+00
   P2d   X1e  1 4.700000e-01    3.070000e+00
   P1d   C6e  1 4.700000e-01    3.390000e+00
   P1d   C5e  1 4.700000e-01    3.240000e+00
   P1d   C4e  1 4.700000e-01    3.070000e+00
   P1d   C3e  1 4.700000e-01    2.960000e+00
   P1d   C2e  1 4.700000e-01    2.960000e+00
   P1d   C1e  1 4.700000e-01    2.790000e+00
   P1d   X4e  1 4.700000e-01    3.390000e+00
   P1d   X3e  1 4.700000e-01    3.390000e+00
   P1d   X2e  1 4.700000e-01    3.240000e+00
   P1d   X1e  1 4.700000e-01    3.070000e+00
   N6d   C6e  1 4.700000e-01    3.520000e+00
   N6d   C5e  1 4.700000e-01    3.390000e+00
   N6d   C4e  1 4.700000e-01    3.240000e+00
   N6d   C3e  1 4.700000e-01    3.070000e+00
   N6d   C2e  1 4.700000e-01    3.070000e+00
   N6d   C1e  1 4.700000e-01    2.960000e+00
   N6d   X4e  1 4.700000e-01    3.520000e+00
   N6d   X3e  1 4.700000e-01    3.390000e+00
   N6d   X2e  1 4.700000e-01    3.240000e+00
   N6d   X1e  1 4.700000e-01    3.070000e+00
   N5d   C6e  1 4.700000e-01    3.520000e+00
   N5d   C5e  1 4.700000e-01    3.390000e+00
   N5d   C4e  1 4.700000e-01    3.240000e+00
   N5d   C3e  1 4.700000e-01    3.240000e+00
   N5d   C2e  1 4.700000e-01    3.070000e+00
   N5d   C1e  1 4.700000e-01    2.960000e+00
   N5d   X4e  1 4.700000e-01    3.690000e+00
   N5d   X3e  1 4.700000e-01    3.520000e+00
   N5d   X2e  1 4.700000e-01    3.390000e+00
   N5d   X1e  1 4.700000e-01    3.240000e+00
   N4d   C6e  1 4.700000e-01    3.520000e+00
   N4d   C5e  1 4.700000e-01    3.390000e+00
   N4d   C4e  1 4.700000e-01    3.390000e+00
   N4d   C3e  1 4.700000e-01    3.240000e+00
   N4d   C2e  1 4.700000e-01    3.070000e+00
   N4d   C1e  1 4.700000e-01    2.960000e+00
   N4d   X4e  1 4.700000e-01    3.880000e+00
   N4d   X3e  1 4.700000e-01    3.690000e+00
   N4d   X2e  1 4.700000e-01    3.390000e+00
   N4d   X1e  1 4.700000e-01    3.240000e+00
   N3d   C6e  1 4.700000e-01    3.520000e+00
   N3d   C5e  1 4.700000e-01    3.390000e+00
   N3d   C4e  1 4.700000e-01    3.390000e+00
   N3d   C3e  1 4.700000e-01    3.240000e+00
   N3d   C2e  1 4.700000e-01    3.240000e+00
   N3d   C1e  1 4.700000e-01    3.070000e+00
   N3d   X4e  1 4.700000e-01    3.690000e+00
   N3d   X3e  1 4.700000e-01    3.520000e+00
   N3d   X2e  1 4.700000e-01    3.390000e+00
   N3d   X1e  1 4.700000e-01    3.390000e+00
   N2d   C6e  1 4.700000e-01    3.520000e+00
   N2d   C5e  1 4.700000e-01    3.390000e+00
   N2d   C4e  1 4.700000e-01    3.390000e+00
   N2d   C3e  1 4.700000e-01    3.390000e+00
   N2d   C2e  1 4.700000e-01    3.240000e+00
   N2d   C1e  1 4.700000e-01    3.070000e+00
   N2d   X4e  1 4.700000e-01    3.690000e+00
   N2d   X3e  1 4.700000e-01    3.520000e+00
   N2d   X2e  1 4.700000e-01    3.390000e+00
   N2d   X1e  1 4.700000e-01    3.390000e+00
   N1d   C6e  1 4.700000e-01    3.690000e+00
   N1d   C5e  1 4.700000e-01    3.520000e+00
   N1d   C4e  1 4.700000e-01    3.520000e+00
   N1d   C3e  1 4.700000e-01    3.390000e+00
   N1d   C2e  1 4.700000e-01    3.240000e+00
   N1d   C1e  1 4.700000e-01    3.070000e+00
   N1d   X4e  1 4.700000e-01    3.520000e+00
   N1d   X3e  1 4.700000e-01    3.520000e+00
   N1d   X2e  1 4.700000e-01    3.390000e+00
   N1d   X1e  1 4.700000e-01    3.390000e+00
   P6d  X1eq  1 4.700000e-01    3.240000e+00
   P5d  X1eq  1 4.700000e-01    3.240000e+00
   P4d  X1eq  1 4.700000e-01    3.390000e+00
   P3d  X1eq  1 4.700000e-01    3.390000e+00
   P2d  X1eq  1 4.700000e-01    3.390000e+00
   P1d  X1eq  1 4.700000e-01    3.390000e+00
   N6d  X1eq  1 4.700000e-01    3.390000e+00
   N5d  X1eq  1 4.700000e-01    3.520000e+00
   N4d  X1eq  1 4.700000e-01    3.520000e+00
   N3d  X1eq  1 4.700000e-01    3.690000e+00
   N2d  X1eq  1 4.700000e-01    3.690000e+00
   N1d  X1eq  1 4.700000e-01    3.690000e+00
   P6d  X2eq  1 4.700000e-01    3.390000e+00
   P5d  X2eq  1 4.700000e-01    3.520000e+00
   P4d  X2eq  1 4.700000e-01    3.520000e+00
   P3d  X2eq  1 4.700000e-01    3.520000e+00
   P2d  X2eq  1 4.700000e-01    3.520000e+00
   P1d  X2eq  1 4.700000e-01    3.520000e+00
   N6d  X2eq  1 4.700000e-01    3.520000e+00
   N5d  X2eq  1 4.700000e-01    3.690000e+00
   N4d  X2eq  1 4.700000e-01    3.690000e+00
   N3d  X2eq  1 4.700000e-01    3.690000e+00
   N2d  X2eq  1 4.700000e-01    3.690000e+00
   N1d  X2eq  1 4.700000e-01    3.690000e+00
   P6d  X3eq  1 4.700000e-01    3.520000e+00
   P5d  X3eq  1 4.700000e-01    3.520000e+00
   P4d  X3eq  1 4.700000e-01    3.520000e+00
   P3d  X3eq  1 4.700000e-01    3.690000e+00
   P2d  X3eq  1 4.700000e-01    3.690000e+00
   P1d  X3eq  1 4.700000e-01    3.690000e+00
   N6d  X3eq  1 4.700000e-01    3.690000e+00
   N5d  X3eq  1 4.700000e-01    3.880000e+00
   N4d  X3eq  1 4.700000e-01    4.060000e+00
   N3d  X3eq  1 4.700000e-01    3.880000e+00
   N2d  X3eq  1 4.700000e-01    3.880000e+00
   N1d  X3eq  1 4.700000e-01    3.880000e+00
   P6d  X4eq  1 4.700000e-01    3.520000e+00
   P5d  X4eq  1 4.700000e-01    3.690000e+00
   P4d  X4eq  1 4.700000e-01    3.690000e+00
   P3d  X4eq  1 4.700000e-01    3.690000e+00
   P2d  X4eq  1 4.700000e-01    3.690000e+00
   P1d  X4eq  1 4.700000e-01    3.690000e+00
   N6d  X4eq  1 4.700000e-01    3.880000e+00
   N5d  X4eq  1 4.700000e-01    4.060000e+00
   N4d  X4eq  1 4.700000e-01    4.250000e+00
   N3d  X4eq  1 4.700000e-01    4.060000e+00
   N2d  X4eq  1 4.700000e-01    4.060000e+00
   N1d  X4eq  1 4.700000e-01    3.880000e+00
   P6d  C1eq  1 4.700000e-01    2.620000e+00
   P5d  C1eq  1 4.700000e-01    2.960000e+00
   P4d  C1eq  1 4.700000e-01    2.960000e+00
   P3d  C1eq  1 4.700000e-01    2.960000e+00
   P2d  C1eq  1 4.700000e-01    3.070000e+00
   P1d  C1eq  1 4.700000e-01    3.070000e+00
   N6d  C1eq  1 4.700000e-01    3.240000e+00
   N5d  C1eq  1 4.700000e-01    3.240000e+00
   N4d  C1eq  1 4.700000e-01    3.240000e+00
   N3d  C1eq  1 4.700000e-01    3.390000e+00
   N2d  C1eq  1 4.700000e-01    3.390000e+00
   N1d  C1eq  1 4.700000e-01    3.390000e+00
   P6d  C2eq  1 4.700000e-01    2.960000e+00
   P5d  C2eq  1 4.700000e-01    3.070000e+00
   P4d  C2eq  1 4.700000e-01    3.070000e+00
   P3d  C2eq  1 4.700000e-01    3.070000e+00
   P2d  C2eq  1 4.700000e-01    3.240000e+00
   P1d  C2eq  1 4.700000e-01    3.240000e+00
   N6d  C2eq  1 4.700000e-01    3.390000e+00
   N5d  C2eq  1 4.700000e-01    3.390000e+00
   N4d  C2eq  1 4.700000e-01    3.390000e+00
   N3d  C2eq  1 4.700000e-01    3.520000e+00
   N2d  C2eq  1 4.700000e-01    3.520000e+00
   N1d  C2eq  1 4.700000e-01    3.520000e+00
   P6d  C3eq  1 4.700000e-01    2.960000e+00
   P5d  C3eq  1 4.700000e-01    3.070000e+00
   P4d  C3eq  1 4.700000e-01    3.070000e+00
   P3d  C3eq  1 4.700000e-01    3.070000e+00
   P2d  C3eq  1 4.700000e-01    3.240000e+00
   P1d  C3eq  1 4.700000e-01    3.240000e+00
   N6d  C3eq  1 4.700000e-01    3.390000e+00
   N5d  C3eq  1 4.700000e-01    3.520000e+00
   N4d  C3eq  1 4.700000e-01    3.520000e+00
   N3d  C3eq  1 4.700000e-01    3.520000e+00
   N2d  C3eq  1 4.700000e-01    3.690000e+00
   N1d  C3eq  1 4.700000e-01    3.690000e+00
   P6d  C4eq  1 4.700000e-01    3.070000e+00
   P5d  C4eq  1 4.700000e-01    3.240000e+00
   P4d  C4eq  1 4.700000e-01    3.240000e+00
   P3d  C4eq  1 4.700000e-01    3.390000e+00
   P2d  C4eq  1 4.700000e-01    3.390000e+00
   P1d  C4eq  1 4.700000e-01    3.390000e+00
   N6d  C4eq  1 4.700000e-01    3.520000e+00
   N5d  C4eq  1 4.700000e-01    3.520000e+00
   N4d  C4eq  1 4.700000e-01    3.690000e+00
   N3d  C4eq  1 4.700000e-01    3.690000e+00
   N2d  C4eq  1 4.700000e-01    3.690000e+00
   N1d  C4eq  1 4.700000e-01    3.880000e+00
   P6d  C5eq  1 4.700000e-01    3.240000e+00
   P5d  C5eq  1 4.700000e-01    3.390000e+00
   P4d  C5eq  1 4.700000e-01    3.390000e+00
   P3d  C5eq  1 4.700000e-01    3.520000e+00
   P2d  C5eq  1 4.700000e-01    3.520000e+00
   P1d  C5eq  1 4.700000e-01    3.520000e+00
   N6d  C5eq  1 4.700000e-01    3.690000e+00
   N5d  C5eq  1 4.700000e-01    3.690000e+00
   N4d  C5eq  1 4.700000e-01    3.690000e+00
   N3d  C5eq  1 4.700000e-01    3.690000e+00
   N2d  C5eq  1 4.700000e-01    3.690000e+00
   N1d  C5eq  1 4.700000e-01    3.880000e+00
   P6d  C6eq  1 4.700000e-01    3.390000e+00
   P5d  C6eq  1 4.700000e-01    3.390000e+00
   P4d  C6eq  1 4.700000e-01    3.520000e+00
   P3d  C6eq  1 4.700000e-01    3.690000e+00
   P2d  C6eq  1 4.700000e-01    3.690000e+00
   P1d  C6eq  1 4.700000e-01    3.690000e+00
   N6d  C6eq  1 4.700000e-01    3.880000e+00
   N5d  C6eq  1 4.700000e-01    3.880000e+00
   N4d  C6eq  1 4.700000e-01    3.880000e+00
   N3d  C6eq  1 4.700000e-01    3.880000e+00
   N2d  C6eq  1 4.700000e-01    3.880000e+00
   N1d  C6eq  1 4.700000e-01    4.060000e+00
   P6d  X1eh  1 4.700000e-01    2.960000e+00
   P5d  X1eh  1 4.700000e-01    2.960000e+00
   P4d  X1eh  1 4.700000e-01    3.070000e+00
   P3d  X1eh  1 4.700000e-01    3.070000e+00
   P2d  X1eh  1 4.700000e-01    3.070000e+00
   P1d  X1eh  1 4.700000e-01    3.070000e+00
   N6d  X1eh  1 4.700000e-01    3.070000e+00
   N5d  X1eh  1 4.700000e-01    3.240000e+00
   N4d  X1eh  1 4.700000e-01    3.240000e+00
   N3d  X1eh  1 4.700000e-01    3.390000e+00
   N2d  X1eh  1 4.700000e-01    3.390000e+00
   N1d  X1eh  1 4.700000e-01    3.390000e+00
   P6d  X2eh  1 4.700000e-01    3.070000e+00
   P5d  X2eh  1 4.700000e-01    3.240000e+00
   P4d  X2eh  1 4.700000e-01    3.240000e+00
   P3d  X2eh  1 4.700000e-01    3.240000e+00
   P2d  X2eh  1 4.700000e-01    3.240000e+00
   P1d  X2eh  1 4.700000e-01    3.240000e+00
   N6d  X2eh  1 4.700000e-01    3.240000e+00
   N5d  X2eh  1 4.700000e-01    3.390000e+00
   N4d  X2eh  1 4.700000e-01    3.390000e+00
   N3d  X2eh  1 4.700000e-01    3.390000e+00
   N2d  X2eh  1 4.700000e-01    3.390000e+00
   N1d  X2eh  1 4.700000e-01    3.390000e+00
   P6d  X3eh  1 4.700000e-01    3.240000e+00
   P5d  X3eh  1 4.700000e-01    3.240000e+00
   P4d  X3eh  1 4.700000e-01    3.240000e+00
   P3d  X3eh  1 4.700000e-01    3.390000e+00
   P2d  X3eh  1 4.700000e-01    3.390000e+00
   P1d  X3eh  1 4.700000e-01    3.390000e+00
   N6d  X3eh  1 4.700000e-01    3.390000e+00
   N5d  X3eh  1 4.700000e-01    3.520000e+00
   N4d  X3eh  1 4.700000e-01    3.690000e+00
   N3d  X3eh  1 4.700000e-01    3.520000e+00
   N2d  X3eh  1 4.700000e-01    3.520000e+00
   N1d  X3eh  1 4.700000e-01    3.520000e+00
   P6d  X4eh  1 4.700000e-01    3.240000e+00
   P5d  X4eh  1 4.700000e-01    3.390000e+00
   P4d  X4eh  1 4.700000e-01    3.390000e+00
   P3d  X4eh  1 4.700000e-01    3.390000e+00
   P2d  X4eh  1 4.700000e-01    3.390000e+00
   P1d  X4eh  1 4.700000e-01    3.390000e+00
   N6d  X4eh  1 4.700000e-01    3.520000e+00
   N5d  X4eh  1 4.700000e-01    3.690000e+00
   N4d  X4eh  1 4.700000e-01    3.880000e+00
   N3d  X4eh  1 4.700000e-01    3.690000e+00
   N2d  X4eh  1 4.700000e-01    3.690000e+00
   N1d  X4eh  1 4.700000e-01    3.520000e+00
   P6d  C1eh  1 4.850000e-01    2.240000e+00
   P5d  C1eh  1 4.700000e-01    2.620000e+00
   P4d  C1eh  1 4.700000e-01    2.620000e+00
   P3d  C1eh  1 4.700000e-01    2.620000e+00
   P2d  C1eh  1 4.700000e-01    2.790000e+00
   P1d  C1eh  1 4.700000e-01    2.790000e+00
   N6d  C1eh  1 4.700000e-01    2.960000e+00
   N5d  C1eh  1 4.700000e-01    2.960000e+00
   N4d  C1eh  1 4.700000e-01    2.960000e+00
   N3d  C1eh  1 4.700000e-01    3.070000e+00
   N2d  C1eh  1 4.700000e-01    3.070000e+00
   N1d  C1eh  1 4.700000e-01    3.070000e+00
   P6d  C2eh  1 4.700000e-01    2.620000e+00
   P5d  C2eh  1 4.700000e-01    2.790000e+00
   P4d  C2eh  1 4.700000e-01    2.790000e+00
   P3d  C2eh  1 4.700000e-01    2.790000e+00
   P2d  C2eh  1 4.700000e-01    2.960000e+00
   P1d  C2eh  1 4.700000e-01    2.960000e+00
   N6d  C2eh  1 4.700000e-01    3.070000e+00
   N5d  C2eh  1 4.700000e-01    3.070000e+00
   N4d  C2eh  1 4.700000e-01    3.070000e+00
   N3d  C2eh  1 4.700000e-01    3.240000e+00
   N2d  C2eh  1 4.700000e-01    3.240000e+00
   N1d  C2eh  1 4.700000e-01    3.240000e+00
   P6d  C3eh  1 4.700000e-01    2.620000e+00
   P5d  C3eh  1 4.700000e-01    2.790000e+00
   P4d  C3eh  1 4.700000e-01    2.790000e+00
   P3d  C3eh  1 4.700000e-01    2.790000e+00
   P2d  C3eh  1 4.700000e-01    2.960000e+00
   P1d  C3eh  1 4.700000e-01    2.960000e+00
   N6d  C3eh  1 4.700000e-01    3.070000e+00
   N5d  C3eh  1 4.700000e-01    3.240000e+00
   N4d  C3eh  1 4.700000e-01    3.240000e+00
   N3d  C3eh  1 4.700000e-01    3.240000e+00
   N2d  C3eh  1 4.700000e-01    3.390000e+00
   N1d  C3eh  1 4.700000e-01    3.390000e+00
   P6d  C4eh  1 4.700000e-01    2.790000e+00
   P5d  C4eh  1 4.700000e-01    2.960000e+00
   P4d  C4eh  1 4.700000e-01    2.960000e+00
   P3d  C4eh  1 4.700000e-01    3.070000e+00
   P2d  C4eh  1 4.700000e-01    3.070000e+00
   P1d  C4eh  1 4.700000e-01    3.070000e+00
   N6d  C4eh  1 4.700000e-01    3.240000e+00
   N5d  C4eh  1 4.700000e-01    3.240000e+00
   N4d  C4eh  1 4.700000e-01    3.390000e+00
   N3d  C4eh  1 4.700000e-01    3.390000e+00
   N2d  C4eh  1 4.700000e-01    3.390000e+00
   N1d  C4eh  1 4.700000e-01    3.520000e+00
   P6d  C5eh  1 4.700000e-01    2.960000e+00
   P5d  C5eh  1 4.700000e-01    3.070000e+00
   P4d  C5eh  1 4.700000e-01    3.070000e+00
   P3d  C5eh  1 4.700000e-01    3.240000e+00
   P2d  C5eh  1 4.700000e-01    3.240000e+00
   P1d  C5eh  1 4.700000e-01    3.240000e+00
   N6d  C5eh  1 4.700000e-01    3.390000e+00
   N5d  C5eh  1 4.700000e-01    3.390000e+00
   N4d  C5eh  1 4.700000e-01    3.390000e+00
   N3d  C5eh  1 4.700000e-01    3.390000e+00
   N2d  C5eh  1 4.700000e-01    3.390000e+00
   N1d  C5eh  1 4.700000e-01    3.520000e+00
   P6d  C6eh  1 4.700000e-01    3.070000e+00
   P5d  C6eh  1 4.700000e-01    3.070000e+00
   P4d  C6eh  1 4.700000e-01    3.240000e+00
   P3d  C6eh  1 4.700000e-01    3.390000e+00
   P2d  C6eh  1 4.700000e-01    3.390000e+00
   P1d  C6eh  1 4.700000e-01    3.390000e+00
   N6d  C6eh  1 4.700000e-01    3.520000e+00
   N5d  C6eh  1 4.700000e-01    3.520000e+00
   N4d  C6eh  1 4.700000e-01    3.520000e+00
   N3d  C6eh  1 4.700000e-01    3.520000e+00
   N2d  C6eh  1 4.700000e-01    3.520000e+00
   N1d  C6eh  1 4.700000e-01    3.690000e+00
   P6d  X1er  1 4.700000e-01    2.960000e+00
   P5d  X1er  1 4.700000e-01    2.960000e+00
   P4d  X1er  1 4.700000e-01    3.070000e+00
   P3d  X1er  1 4.700000e-01    3.070000e+00
   P2d  X1er  1 4.700000e-01    3.070000e+00
   P1d  X1er  1 4.700000e-01    3.070000e+00
   N6d  X1er  1 4.700000e-01    3.070000e+00
   N5d  X1er  1 4.700000e-01    3.240000e+00
   N4d  X1er  1 4.700000e-01    3.240000e+00
   N3d  X1er  1 4.700000e-01    3.390000e+00
   N2d  X1er  1 4.700000e-01    3.390000e+00
   N1d  X1er  1 4.700000e-01    3.390000e+00
   P6d  X2er  1 4.700000e-01    3.070000e+00
   P5d  X2er  1 4.700000e-01    3.240000e+00
   P4d  X2er  1 4.700000e-01    3.240000e+00
   P3d  X2er  1 4.700000e-01    3.240000e+00
   P2d  X2er  1 4.700000e-01    3.240000e+00
   P1d  X2er  1 4.700000e-01    3.240000e+00
   N6d  X2er  1 4.700000e-01    3.240000e+00
   N5d  X2er  1 4.700000e-01    3.390000e+00
   N4d  X2er  1 4.700000e-01    3.390000e+00
   N3d  X2er  1 4.700000e-01    3.390000e+00
   N2d  X2er  1 4.700000e-01    3.390000e+00
   N1d  X2er  1 4.700000e-01    3.390000e+00
   P6d  X3er  1 4.700000e-01    3.240000e+00
   P5d  X3er  1 4.700000e-01    3.240000e+00
   P4d  X3er  1 4.700000e-01    3.240000e+00
   P3d  X3er  1 4.700000e-01    3.390000e+00
   P2d  X3er  1 4.700000e-01    3.390000e+00
   P1d  X3er  1 4.700000e-01    3.390000e+00
   N6d  X3er  1 4.700000e-01    3.390000e+00
   N5d  X3er  1 4.700000e-01    3.520000e+00
   N4d  X3er  1 4.700000e-01    3.690000e+00
   N3d  X3er  1 4.700000e-01    3.520000e+00
   N2d  X3er  1 4.700000e-01    3.520000e+00
   N1d  X3er  1 4.700000e-01    3.520000e+00
   P6d  X4er  1 4.700000e-01    3.240000e+00
   P5d  X4er  1 4.700000e-01    3.390000e+00
   P4d  X4er  1 4.700000e-01    3.390000e+00
   P3d  X4er  1 4.700000e-01    3.390000e+00
   P2d  X4er  1 4.700000e-01    3.390000e+00
   P1d  X4er  1 4.700000e-01    3.390000e+00
   N6d  X4er  1 4.700000e-01    3.520000e+00
   N5d  X4er  1 4.700000e-01    3.690000e+00
   N4d  X4er  1 4.700000e-01    3.880000e+00
   N3d  X4er  1 4.700000e-01    3.690000e+00
   N2d  X4er  1 4.700000e-01    3.690000e+00
   N1d  X4er  1 4.700000e-01    3.520000e+00
   P6d  C1er  1 4.850000e-01    2.240000e+00
   P5d  C1er  1 4.700000e-01    2.620000e+00
   P4d  C1er  1 4.700000e-01    2.620000e+00
   P3d  C1er  1 4.700000e-01    2.620000e+00
   P2d  C1er  1 4.700000e-01    2.790000e+00
   P1d  C1er  1 4.700000e-01    2.790000e+00
   N6d  C1er  1 4.700000e-01    2.960000e+00
   N5d  C1er  1 4.700000e-01    2.960000e+00
   N4d  C1er  1 4.700000e-01    2.960000e+00
   N3d  C1er  1 4.700000e-01    3.070000e+00
   N2d  C1er  1 4.700000e-01    3.070000e+00
   N1d  C1er  1 4.700000e-01    3.070000e+00
   P6d  C2er  1 4.700000e-01    2.620000e+00
   P5d  C2er  1 4.700000e-01    2.790000e+00
   P4d  C2er  1 4.700000e-01    2.790000e+00
   P3d  C2er  1 4.700000e-01    2.790000e+00
   P2d  C2er  1 4.700000e-01    2.960000e+00
   P1d  C2er  1 4.700000e-01    2.960000e+00
   N6d  C2er  1 4.700000e-01    3.070000e+00
   N5d  C2er  1 4.700000e-01    3.070000e+00
   N4d  C2er  1 4.700000e-01    3.070000e+00
   N3d  C2er  1 4.700000e-01    3.240000e+00
   N2d  C2er  1 4.700000e-01    3.240000e+00
   N1d  C2er  1 4.700000e-01    3.240000e+00
   P6d  C3er  1 4.700000e-01    2.620000e+00
   P5d  C3er  1 4.700000e-01    2.790000e+00
   P4d  C3er  1 4.700000e-01    2.790000e+00
   P3d  C3er  1 4.700000e-01    2.790000e+00
   P2d  C3er  1 4.700000e-01    2.960000e+00
   P1d  C3er  1 4.700000e-01    2.960000e+00
   N6d  C3er  1 4.700000e-01    3.070000e+00
   N5d  C3er  1 4.700000e-01    3.240000e+00
   N4d  C3er  1 4.700000e-01    3.240000e+00
   N3d  C3er  1 4.700000e-01    3.240000e+00
   N2d  C3er  1 4.700000e-01    3.390000e+00
   N1d  C3er  1 4.700000e-01    3.390000e+00
   P6d  C4er  1 4.700000e-01    2.790000e+00
   P5d  C4er  1 4.700000e-01    2.960000e+00
   P4d  C4er  1 4.700000e-01    2.960000e+00
   P3d  C4er  1 4.700000e-01    3.070000e+00
   P2d  C4er  1 4.700000e-01    3.070000e+00
   P1d  C4er  1 4.700000e-01    3.070000e+00
   N6d  C4er  1 4.700000e-01    3.240000e+00
   N5d  C4er  1 4.700000e-01    3.240000e+00
   N4d  C4er  1 4.700000e-01    3.390000e+00
   N3d  C4er  1 4.700000e-01    3.390000e+00
   N2d  C4er  1 4.700000e-01    3.390000e+00
   N1d  C4er  1 4.700000e-01    3.520000e+00
   P6d  C5er  1 4.700000e-01    2.960000e+00
   P5d  C5er  1 4.700000e-01    3.070000e+00
   P4d  C5er  1 4.700000e-01    3.070000e+00
   P3d  C5er  1 4.700000e-01    3.240000e+00
   P2d  C5er  1 4.700000e-01    3.240000e+00
   P1d  C5er  1 4.700000e-01    3.240000e+00
   N6d  C5er  1 4.700000e-01    3.390000e+00
   N5d  C5er  1 4.700000e-01    3.390000e+00
   N4d  C5er  1 4.700000e-01    3.390000e+00
   N3d  C5er  1 4.700000e-01    3.390000e+00
   N2d  C5er  1 4.700000e-01    3.390000e+00
   N1d  C5er  1 4.700000e-01    3.520000e+00
   P6d  C6er  1 4.700000e-01    3.070000e+00
   P5d  C6er  1 4.700000e-01    3.070000e+00
   P4d  C6er  1 4.700000e-01    3.240000e+00
   P3d  C6er  1 4.700000e-01    3.390000e+00
   P2d  C6er  1 4.700000e-01    3.390000e+00
   P1d  C6er  1 4.700000e-01    3.390000e+00
   N6d  C6er  1 4.700000e-01    3.520000e+00
   N5d  C6er  1 4.700000e-01    3.520000e+00
   N4d  C6er  1 4.700000e-01    3.520000e+00
   N3d  C6er  1 4.700000e-01    3.520000e+00
   N2d  C6er  1 4.700000e-01    3.520000e+00
   N1d  C6er  1 4.700000e-01    3.690000e+00
  P6dq   C6e  1 4.700000e-01    3.390000e+00
  P6dq   C5e  1 4.700000e-01    3.240000e+00
  P6dq   C4e  1 4.700000e-01    3.070000e+00
  P6dq   C3e  1 4.700000e-01    2.960000e+00
  P6dq   C2e  1 4.700000e-01    2.960000e+00
  P6dq   C1e  1 4.700000e-01    2.620000e+00
  P6dq   X4e  1 4.700000e-01    3.520000e+00
  P6dq   X3e  1 4.700000e-01    3.520000e+00
  P6dq   X2e  1 4.700000e-01    3.390000e+00
  P6dq   X1e  1 4.700000e-01    3.240000e+00
  P5dq   C6e  1 4.700000e-01    3.390000e+00
  P5dq   C5e  1 4.700000e-01    3.390000e+00
  P5dq   C4e  1 4.700000e-01    3.240000e+00
  P5dq   C3e  1 4.700000e-01    3.070000e+00
  P5dq   C2e  1 4.700000e-01    3.070000e+00
  P5dq   C1e  1 4.700000e-01    2.960000e+00
  P5dq   X4e  1 4.700000e-01    3.690000e+00
  P5dq   X3e  1 4.700000e-01    3.520000e+00
  P5dq   X2e  1 4.700000e-01    3.520000e+00
  P5dq   X1e  1 4.700000e-01    3.240000e+00
  P4dq   C6e  1 4.700000e-01    3.520000e+00
  P4dq   C5e  1 4.700000e-01    3.390000e+00
  P4dq   C4e  1 4.700000e-01    3.240000e+00
  P4dq   C3e  1 4.700000e-01    3.070000e+00
  P4dq   C2e  1 4.700000e-01    3.070000e+00
  P4dq   C1e  1 4.700000e-01    2.960000e+00
  P4dq   X4e  1 4.700000e-01    3.690000e+00
  P4dq   X3e  1 4.700000e-01    3.520000e+00
  P4dq   X2e  1 4.700000e-01    3.520000e+00
  P4dq   X1e  1 4.700000e-01    3.390000e+00
  P3dq   C6e  1 4.700000e-01    3.690000e+00
  P3dq   C5e  1 4.700000e-01    3.520000e+00
  P3dq   C4e  1 4.700000e-01    3.390000e+00
  P3dq   C3e  1 4.700000e-01    3.070000e+00
  P3dq   C2e  1 4.700000e-01    3.070000e+00
  P3dq   C1e  1 4.700000e-01    2.960000e+00
  P3dq   X4e  1 4.700000e-01    3.690000e+00
  P3dq   X3e  1 4.700000e-01    3.690000e+00
  P3dq   X2e  1 4.700000e-01    3.520000e+00
  P3dq   X1e  1 4.700000e-01    3.390000e+00
  P2dq   C6e  1 4.700000e-01    3.690000e+00
  P2dq   C5e  1 4.700000e-01    3.520000e+00
  P2dq   C4e  1 4.700000e-01    3.390000e+00
  P2dq   C3e  1 4.700000e-01    3.240000e+00
  P2dq   C2e  1 4.700000e-01    3.240000e+00
  P2dq   C1e  1 4.700000e-01    3.070000e+00
  P2dq   X4e  1 4.700000e-01    3.690000e+00
  P2dq   X3e  1 4.700000e-01    3.690000e+00
  P2dq   X2e  1 4.700000e-01    3.520000e+00
  P2dq   X1e  1 4.700000e-01    3.390000e+00
  P1dq   C6e  1 4.700000e-01    3.690000e+00
  P1dq   C5e  1 4.700000e-01    3.520000e+00
  P1dq   C4e  1 4.700000e-01    3.390000e+00
  P1dq   C3e  1 4.700000e-01    3.240000e+00
  P1dq   C2e  1 4.700000e-01    3.240000e+00
  P1dq   C1e  1 4.700000e-01    3.070000e+00
  P1dq   X4e  1 4.700000e-01    3.690000e+00
  P1dq   X3e  1 4.700000e-01    3.690000e+00
  P1dq   X2e  1 4.700000e-01    3.520000e+00
  P1dq   X1e  1 4.700000e-01    3.390000e+00
  N6dq   C6e  1 4.700000e-01    3.880000e+00
  N6dq   C5e  1 4.700000e-01    3.690000e+00
  N6dq   C4e  1 4.700000e-01    3.520000e+00
  N6dq   C3e  1 4.700000e-01    3.390000e+00
  N6dq   C2e  1 4.700000e-01    3.390000e+00
  N6dq   C1e  1 4.700000e-01    3.240000e+00
  N6dq   X4e  1 4.700000e-01    3.880000e+00
  N6dq   X3e  1 4.700000e-01    3.690000e+00
  N6dq   X2e  1 4.700000e-01    3.520000e+00
  N6dq   X1e  1 4.700000e-01    3.390000e+00
  N5dq   C6e  1 4.700000e-01    3.880000e+00
  N5dq   C5e  1 4.700000e-01    3.690000e+00
  N5dq   C4e  1 4.700000e-01    3.520000e+00
  N5dq   C3e  1 4.700000e-01    3.520000e+00
  N5dq   C2e  1 4.700000e-01    3.390000e+00
  N5dq   C1e  1 4.700000e-01    3.240000e+00
  N5dq   X4e  1 4.700000e-01    4.060000e+00
  N5dq   X3e  1 4.700000e-01    3.880000e+00
  N5dq   X2e  1 4.700000e-01    3.690000e+00
  N5dq   X1e  1 4.700000e-01    3.520000e+00
  N4dq   C6e  1 4.700000e-01    3.880000e+00
  N4dq   C5e  1 4.700000e-01    3.690000e+00
  N4dq   C4e  1 4.700000e-01    3.690000e+00
  N4dq   C3e  1 4.700000e-01    3.520000e+00
  N4dq   C2e  1 4.700000e-01    3.390000e+00
  N4dq   C1e  1 4.700000e-01    3.240000e+00
  N4dq   X4e  1 4.700000e-01    4.250000e+00
  N4dq   X3e  1 4.700000e-01    4.060000e+00
  N4dq   X2e  1 4.700000e-01    3.690000e+00
  N4dq   X1e  1 4.700000e-01    3.520000e+00
  N3dq   C6e  1 4.700000e-01    3.880000e+00
  N3dq   C5e  1 4.700000e-01    3.690000e+00
  N3dq   C4e  1 4.700000e-01    3.690000e+00
  N3dq   C3e  1 4.700000e-01    3.520000e+00
  N3dq   C2e  1 4.700000e-01    3.520000e+00
  N3dq   C1e  1 4.700000e-01    3.390000e+00
  N3dq   X4e  1 4.700000e-01    4.060000e+00
  N3dq   X3e  1 4.700000e-01    3.880000e+00
  N3dq   X2e  1 4.700000e-01    3.690000e+00
  N3dq   X1e  1 4.700000e-01    3.690000e+00
  N2dq   C6e  1 4.700000e-01    3.880000e+00
  N2dq   C5e  1 4.700000e-01    3.690000e+00
  N2dq   C4e  1 4.700000e-01    3.690000e+00
  N2dq   C3e  1 4.700000e-01    3.690000e+00
  N2dq   C2e  1 4.700000e-01    3.520000e+00
  N2dq   C1e  1 4.700000e-01    3.390000e+00
  N2dq   X4e  1 4.700000e-01    4.060000e+00
  N2dq   X3e  1 4.700000e-01    3.880000e+00
  N2dq   X2e  1 4.700000e-01    3.690000e+00
  N2dq   X1e  1 4.700000e-01    3.690000e+00
  N1dq   C6e  1 4.700000e-01    4.060000e+00
  N1dq   C5e  1 4.700000e-01    3.880000e+00
  N1dq   C4e  1 4.700000e-01    3.880000e+00
  N1dq   C3e  1 4.700000e-01    3.690000e+00
  N1dq   C2e  1 4.700000e-01    3.520000e+00
  N1dq   C1e  1 4.700000e-01    3.390000e+00
  N1dq   X4e  1 4.700000e-01    3.880000e+00
  N1dq   X3e  1 4.700000e-01    3.880000e+00
  N1dq   X2e  1 4.700000e-01    3.690000e+00
  N1dq   X1e  1 4.700000e-01    3.690000e+00
  P6dq  C6eq  1 4.700000e-01    3.390000e+00
  P6dq  C5eq  1 4.700000e-01    3.240000e+00
  P6dq  C4eq  1 4.700000e-01    3.070000e+00
  P6dq  C3eq  1 4.700000e-01    2.960000e+00
  P6dq  C2eq  1 4.700000e-01    2.960000e+00
  P6dq  C1eq  1 4.700000e-01    2.620000e+00
  P6dq  X4eq  1 4.700000e-01    3.520000e+00
  P6dq  X3eq  1 4.700000e-01    3.520000e+00
  P6dq  X2eq  1 4.700000e-01    3.390000e+00
  P6dq  X1eq  1 4.700000e-01    3.240000e+00
  P5dq  C6eq  1 4.700000e-01    3.390000e+00
  P5dq  C5eq  1 4.700000e-01    3.390000e+00
  P5dq  C4eq  1 4.700000e-01    3.240000e+00
  P5dq  C3eq  1 4.700000e-01    3.070000e+00
  P5dq  C2eq  1 4.700000e-01    3.070000e+00
  P5dq  C1eq  1 4.700000e-01    2.960000e+00
  P5dq  X4eq  1 4.700000e-01    3.690000e+00
  P5dq  X3eq  1 4.700000e-01    3.520000e+00
  P5dq  X2eq  1 4.700000e-01    3.520000e+00
  P5dq  X1eq  1 4.700000e-01    3.240000e+00
  P4dq  C6eq  1 4.700000e-01    3.520000e+00
  P4dq  C5eq  1 4.700000e-01    3.390000e+00
  P4dq  C4eq  1 4.700000e-01    3.240000e+00
  P4dq  C3eq  1 4.700000e-01    3.070000e+00
  P4dq  C2eq  1 4.700000e-01    3.070000e+00
  P4dq  C1eq  1 4.700000e-01    2.960000e+00
  P4dq  X4eq  1 4.700000e-01    3.690000e+00
  P4dq  X3eq  1 4.700000e-01    3.520000e+00
  P4dq  X2eq  1 4.700000e-01    3.520000e+00
  P4dq  X1eq  1 4.700000e-01    3.390000e+00
  P3dq  C6eq  1 4.700000e-01    3.690000e+00
  P3dq  C5eq  1 4.700000e-01    3.520000e+00
  P3dq  C4eq  1 4.700000e-01    3.390000e+00
  P3dq  C3eq  1 4.700000e-01    3.070000e+00
  P3dq  C2eq  1 4.700000e-01    3.070000e+00
  P3dq  C1eq  1 4.700000e-01    2.960000e+00
  P3dq  X4eq  1 4.700000e-01    3.690000e+00
  P3dq  X3eq  1 4.700000e-01    3.690000e+00
  P3dq  X2eq  1 4.700000e-01    3.520000e+00
  P3dq  X1eq  1 4.700000e-01    3.390000e+00
  P2dq  C6eq  1 4.700000e-01    3.690000e+00
  P2dq  C5eq  1 4.700000e-01    3.520000e+00
  P2dq  C4eq  1 4.700000e-01    3.390000e+00
  P2dq  C3eq  1 4.700000e-01    3.240000e+00
  P2dq  C2eq  1 4.700000e-01    3.240000e+00
  P2dq  C1eq  1 4.700000e-01    3.070000e+00
  P2dq  X4eq  1 4.700000e-01    3.690000e+00
  P2dq  X3eq  1 4.700000e-01    3.690000e+00
  P2dq  X2eq  1 4.700000e-01    3.520000e+00
  P2dq  X1eq  1 4.700000e-01    3.390000e+00
  P1dq  C6eq  1 4.700000e-01    3.690000e+00
  P1dq  C5eq  1 4.700000e-01    3.520000e+00
  P1dq  C4eq  1 4.700000e-01    3.390000e+00
  P1dq  C3eq  1 4.700000e-01    3.240000e+00
  P1dq  C2eq  1 4.700000e-01    3.240000e+00
  P1dq  C1eq  1 4.700000e-01    3.070000e+00
  P1dq  X4eq  1 4.700000e-01    3.690000e+00
  P1dq  X3eq  1 4.700000e-01    3.690000e+00
  P1dq  X2eq  1 4.700000e-01    3.520000e+00
  P1dq  X1eq  1 4.700000e-01    3.390000e+00
  N6dq  C6eq  1 4.700000e-01    3.880000e+00
  N6dq  C5eq  1 4.700000e-01    3.690000e+00
  N6dq  C4eq  1 4.700000e-01    3.520000e+00
  N6dq  C3eq  1 4.700000e-01    3.390000e+00
  N6dq  C2eq  1 4.700000e-01    3.390000e+00
  N6dq  C1eq  1 4.700000e-01    3.240000e+00
  N6dq  X4eq  1 4.700000e-01    3.880000e+00
  N6dq  X3eq  1 4.700000e-01    3.690000e+00
  N6dq  X2eq  1 4.700000e-01    3.520000e+00
  N6dq  X1eq  1 4.700000e-01    3.390000e+00
  N5dq  C6eq  1 4.700000e-01    3.880000e+00
  N5dq  C5eq  1 4.700000e-01    3.690000e+00
  N5dq  C4eq  1 4.700000e-01    3.520000e+00
  N5dq  C3eq  1 4.700000e-01    3.520000e+00
  N5dq  C2eq  1 4.700000e-01    3.390000e+00
  N5dq  C1eq  1 4.700000e-01    3.240000e+00
  N5dq  X4eq  1 4.700000e-01    4.060000e+00
  N5dq  X3eq  1 4.700000e-01    3.880000e+00
  N5dq  X2eq  1 4.700000e-01    3.690000e+00
  N5dq  X1eq  1 4.700000e-01    3.520000e+00
  N4dq  C6eq  1 4.700000e-01    3.880000e+00
  N4dq  C5eq  1 4.700000e-01    3.690000e+00
  N4dq  C4eq  1 4.700000e-01    3.690000e+00
  N4dq  C3eq  1 4.700000e-01    3.520000e+00
  N4dq  C2eq  1 4.700000e-01    3.390000e+00
  N4dq  C1eq  1 4.700000e-01    3.240000e+00
  N4dq  X4eq  1 4.700000e-01    4.250000e+00
  N4dq  X3eq  1 4.700000e-01    4.060000e+00
  N4dq  X2eq  1 4.700000e-01    3.690000e+00
  N4dq  X1eq  1 4.700000e-01    3.520000e+00
  N3dq  C6eq  1 4.700000e-01    3.880000e+00
  N3dq  C5eq  1 4.700000e-01    3.690000e+00
  N3dq  C4eq  1 4.700000e-01    3.690000e+00
  N3dq  C3eq  1 4.700000e-01    3.520000e+00
  N3dq  C2eq  1 4.700000e-01    3.520000e+00
  N3dq  C1eq  1 4.700000e-01    3.390000e+00
  N3dq  X4eq  1 4.700000e-01    4.060000e+00
  N3dq  X3eq  1 4.700000e-01    3.880000e+00
  N3dq  X2eq  1 4.700000e-01    3.690000e+00
  N3dq  X1eq  1 4.700000e-01    3.690000e+00
  N2dq  C6eq  1 4.700000e-01    3.880000e+00
  N2dq  C5eq  1 4.700000e-01    3.690000e+00
  N2dq  C4eq  1 4.700000e-01    3.690000e+00
  N2dq  C3eq  1 4.700000e-01    3.690000e+00
  N2dq  C2eq  1 4.700000e-01    3.520000e+00
  N2dq  C1eq  1 4.700000e-01    3.390000e+00
  N2dq  X4eq  1 4.700000e-01    4.060000e+00
  N2dq  X3eq  1 4.700000e-01    3.880000e+00
  N2dq  X2eq  1 4.700000e-01    3.690000e+00
  N2dq  X1eq  1 4.700000e-01    3.690000e+00
  N1dq  C6eq  1 4.700000e-01    4.060000e+00
  N1dq  C5eq  1 4.700000e-01    3.880000e+00
  N1dq  C4eq  1 4.700000e-01    3.880000e+00
  N1dq  C3eq  1 4.700000e-01    3.690000e+00
  N1dq  C2eq  1 4.700000e-01    3.520000e+00
  N1dq  C1eq  1 4.700000e-01    3.390000e+00
  N1dq  X4eq  1 4.700000e-01    3.880000e+00
  N1dq  X3eq  1 4.700000e-01    3.880000e+00
  N1dq  X2eq  1 4.700000e-01    3.690000e+00
  N1dq  X1eq  1 4.700000e-01    3.690000e+00
  P6dq  C6eh  1 4.700000e-01    3.390000e+00
  P5dq  C6eh  1 4.700000e-01    3.390000e+00
  P4dq  C6eh  1 4.700000e-01    3.520000e+00
  P3dq  C6eh  1 4.700000e-01    3.690000e+00
  P2dq  C6eh  1 4.700000e-01    3.690000e+00
  P1dq  C6eh  1 4.700000e-01    3.690000e+00
  N6dq  C6eh  1 4.700000e-01    3.880000e+00
  N5dq  C6eh  1 4.700000e-01    3.880000e+00
  N4dq  C6eh  1 4.700000e-01    3.880000e+00
  N3dq  C6eh  1 4.700000e-01    3.880000e+00
  N2dq  C6eh  1 4.700000e-01    3.880000e+00
  N1dq  C6eh  1 4.700000e-01    4.060000e+00
  P6dq  C5eh  1 4.700000e-01    3.240000e+00
  P5dq  C5eh  1 4.700000e-01    3.390000e+00
  P4dq  C5eh  1 4.700000e-01    3.390000e+00
  P3dq  C5eh  1 4.700000e-01    3.520000e+00
  P2dq  C5eh  1 4.700000e-01    3.520000e+00
  P1dq  C5eh  1 4.700000e-01    3.520000e+00
  N6dq  C5eh  1 4.700000e-01    3.690000e+00
  N5dq  C5eh  1 4.700000e-01    3.690000e+00
  N4dq  C5eh  1 4.700000e-01    3.690000e+00
  N3dq  C5eh  1 4.700000e-01    3.690000e+00
  N2dq  C5eh  1 4.700000e-01    3.690000e+00
  N1dq  C5eh  1 4.700000e-01    3.880000e+00
  P6dq  C4eh  1 4.700000e-01    3.070000e+00
  P5dq  C4eh  1 4.700000e-01    3.240000e+00
  P4dq  C4eh  1 4.700000e-01    3.240000e+00
  P3dq  C4eh  1 4.700000e-01    3.390000e+00
  P2dq  C4eh  1 4.700000e-01    3.390000e+00
  P1dq  C4eh  1 4.700000e-01    3.390000e+00
  N6dq  C4eh  1 4.700000e-01    3.520000e+00
  N5dq  C4eh  1 4.700000e-01    3.520000e+00
  N4dq  C4eh  1 4.700000e-01    3.690000e+00
  N3dq  C4eh  1 4.700000e-01    3.690000e+00
  N2dq  C4eh  1 4.700000e-01    3.690000e+00
  N1dq  C4eh  1 4.700000e-01    3.880000e+00
  P6dq  C3eh  1 4.700000e-01    2.960000e+00
  P5dq  C3eh  1 4.700000e-01    3.070000e+00
  P4dq  C3eh  1 4.700000e-01    3.070000e+00
  P3dq  C3eh  1 4.700000e-01    3.070000e+00
  P2dq  C3eh  1 4.700000e-01    3.240000e+00
  P1dq  C3eh  1 4.700000e-01    3.240000e+00
  N6dq  C3eh  1 4.700000e-01    3.390000e+00
  N5dq  C3eh  1 4.700000e-01    3.520000e+00
  N4dq  C3eh  1 4.700000e-01    3.520000e+00
  N3dq  C3eh  1 4.700000e-01    3.520000e+00
  N2dq  C3eh  1 4.700000e-01    3.690000e+00
  N1dq  C3eh  1 4.700000e-01    3.690000e+00
  P6dq  C2eh  1 4.700000e-01    2.960000e+00
  P5dq  C2eh  1 4.700000e-01    3.070000e+00
  P4dq  C2eh  1 4.700000e-01    3.070000e+00
  P3dq  C2eh  1 4.700000e-01    3.070000e+00
  P2dq  C2eh  1 4.700000e-01    3.240000e+00
  P1dq  C2eh  1 4.700000e-01    3.240000e+00
  N6dq  C2eh  1 4.700000e-01    3.390000e+00
  N5dq  C2eh  1 4.700000e-01    3.390000e+00
  N4dq  C2eh  1 4.700000e-01    3.390000e+00
  N3dq  C2eh  1 4.700000e-01    3.520000e+00
  N2dq  C2eh  1 4.700000e-01    3.520000e+00
  N1dq  C2eh  1 4.700000e-01    3.520000e+00
  P6dq  C1eh  1 4.700000e-01    2.620000e+00
  P5dq  C1eh  1 4.700000e-01    2.960000e+00
  P4dq  C1eh  1 4.700000e-01    2.960000e+00
  P3dq  C1eh  1 4.700000e-01    2.960000e+00
  P2dq  C1eh  1 4.700000e-01    3.070000e+00
  P1dq  C1eh  1 4.700000e-01    3.070000e+00
  N6dq  C1eh  1 4.700000e-01    3.240000e+00
  N5dq  C1eh  1 4.700000e-01    3.240000e+00
  N4dq  C1eh  1 4.700000e-01    3.240000e+00
  N3dq  C1eh  1 4.700000e-01    3.390000e+00
  N2dq  C1eh  1 4.700000e-01    3.390000e+00
  N1dq  C1eh  1 4.700000e-01    3.390000e+00
  P6dq  X4eh  1 4.700000e-01    3.520000e+00
  P5dq  X4eh  1 4.700000e-01    3.690000e+00
  P4dq  X4eh  1 4.700000e-01    3.690000e+00
  P3dq  X4eh  1 4.700000e-01    3.690000e+00
  P2dq  X4eh  1 4.700000e-01    3.690000e+00
  P1dq  X4eh  1 4.700000e-01    3.690000e+00
  N6dq  X4eh  1 4.700000e-01    3.880000e+00
  N5dq  X4eh  1 4.700000e-01    4.060000e+00
  N4dq  X4eh  1 4.700000e-01    4.250000e+00
  N3dq  X4eh  1 4.700000e-01    4.060000e+00
  N2dq  X4eh  1 4.700000e-01    4.060000e+00
  N1dq  X4eh  1 4.700000e-01    3.880000e+00
  P6dq  X3eh  1 4.700000e-01    3.520000e+00
  P5dq  X3eh  1 4.700000e-01    3.520000e+00
  P4dq  X3eh  1 4.700000e-01    3.520000e+00
  P3dq  X3eh  1 4.700000e-01    3.690000e+00
  P2dq  X3eh  1 4.700000e-01    3.690000e+00
  P1dq  X3eh  1 4.700000e-01    3.690000e+00
  N6dq  X3eh  1 4.700000e-01    3.690000e+00
  N5dq  X3eh  1 4.700000e-01    3.880000e+00
  N4dq  X3eh  1 4.700000e-01    4.060000e+00
  N3dq  X3eh  1 4.700000e-01    3.880000e+00
  N2dq  X3eh  1 4.700000e-01    3.880000e+00
  N1dq  X3eh  1 4.700000e-01    3.880000e+00
  P6dq  X2eh  1 4.700000e-01    3.390000e+00
  P5dq  X2eh  1 4.700000e-01    3.520000e+00
  P4dq  X2eh  1 4.700000e-01    3.520000e+00
  P3dq  X2eh  1 4.700000e-01    3.520000e+00
  P2dq  X2eh  1 4.700000e-01    3.520000e+00
  P1dq  X2eh  1 4.700000e-01    3.520000e+00
  N6dq  X2eh  1 4.700000e-01    3.520000e+00
  N5dq  X2eh  1 4.700000e-01    3.690000e+00
  N4dq  X2eh  1 4.700000e-01    3.690000e+00
  N3dq  X2eh  1 4.700000e-01    3.690000e+00
  N2dq  X2eh  1 4.700000e-01    3.690000e+00
  N1dq  X2eh  1 4.700000e-01    3.690000e+00
  P6dq  X1eh  1 4.700000e-01    3.240000e+00
  P5dq  X1eh  1 4.700000e-01    3.240000e+00
  P4dq  X1eh  1 4.700000e-01    3.390000e+00
  P3dq  X1eh  1 4.700000e-01    3.390000e+00
  P2dq  X1eh  1 4.700000e-01    3.390000e+00
  P1dq  X1eh  1 4.700000e-01    3.390000e+00
  N6dq  X1eh  1 4.700000e-01    3.390000e+00
  N5dq  X1eh  1 4.700000e-01    3.520000e+00
  N4dq  X1eh  1 4.700000e-01    3.520000e+00
  N3dq  X1eh  1 4.700000e-01    3.690000e+00
  N2dq  X1eh  1 4.700000e-01    3.690000e+00
  N1dq  X1eh  1 4.700000e-01    3.690000e+00
  P6dq  C6er  1 4.700000e-01    3.390000e+00
  P5dq  C6er  1 4.700000e-01    3.390000e+00
  P4dq  C6er  1 4.700000e-01    3.520000e+00
  P3dq  C6er  1 4.700000e-01    3.690000e+00
  P2dq  C6er  1 4.700000e-01    3.690000e+00
  P1dq  C6er  1 4.700000e-01    3.690000e+00
  N6dq  C6er  1 4.700000e-01    3.880000e+00
  N5dq  C6er  1 4.700000e-01    3.880000e+00
  N4dq  C6er  1 4.700000e-01    3.880000e+00
  N3dq  C6er  1 4.700000e-01    3.880000e+00
  N2dq  C6er  1 4.700000e-01    3.880000e+00
  N1dq  C6er  1 4.700000e-01    4.060000e+00
  P6dq  C5er  1 4.700000e-01    3.240000e+00
  P5dq  C5er  1 4.700000e-01    3.390000e+00
  P4dq  C5er  1 4.700000e-01    3.390000e+00
  P3dq  C5er  1 4.700000e-01    3.520000e+00
  P2dq  C5er  1 4.700000e-01    3.520000e+00
  P1dq  C5er  1 4.700000e-01    3.520000e+00
  N6dq  C5er  1 4.700000e-01    3.690000e+00
  N5dq  C5er  1 4.700000e-01    3.690000e+00
  N4dq  C5er  1 4.700000e-01    3.690000e+00
  N3dq  C5er  1 4.700000e-01    3.690000e+00
  N2dq  C5er  1 4.700000e-01    3.690000e+00
  N1dq  C5er  1 4.700000e-01    3.880000e+00
  P6dq  C4er  1 4.700000e-01    3.070000e+00
  P5dq  C4er  1 4.700000e-01    3.240000e+00
  P4dq  C4er  1 4.700000e-01    3.240000e+00
  P3dq  C4er  1 4.700000e-01    3.390000e+00
  P2dq  C4er  1 4.700000e-01    3.390000e+00
  P1dq  C4er  1 4.700000e-01    3.390000e+00
  N6dq  C4er  1 4.700000e-01    3.520000e+00
  N5dq  C4er  1 4.700000e-01    3.520000e+00
  N4dq  C4er  1 4.700000e-01    3.690000e+00
  N3dq  C4er  1 4.700000e-01    3.690000e+00
  N2dq  C4er  1 4.700000e-01    3.690000e+00
  N1dq  C4er  1 4.700000e-01    3.880000e+00
  P6dq  C3er  1 4.700000e-01    2.960000e+00
  P5dq  C3er  1 4.700000e-01    3.070000e+00
  P4dq  C3er  1 4.700000e-01    3.070000e+00
  P3dq  C3er  1 4.700000e-01    3.070000e+00
  P2dq  C3er  1 4.700000e-01    3.240000e+00
  P1dq  C3er  1 4.700000e-01    3.240000e+00
  N6dq  C3er  1 4.700000e-01    3.390000e+00
  N5dq  C3er  1 4.700000e-01    3.520000e+00
  N4dq  C3er  1 4.700000e-01    3.520000e+00
  N3dq  C3er  1 4.700000e-01    3.520000e+00
  N2dq  C3er  1 4.700000e-01    3.690000e+00
  N1dq  C3er  1 4.700000e-01    3.690000e+00
  P6dq  C2er  1 4.700000e-01    2.960000e+00
  P5dq  C2er  1 4.700000e-01    3.070000e+00
  P4dq  C2er  1 4.700000e-01    3.070000e+00
  P3dq  C2er  1 4.700000e-01    3.070000e+00
  P2dq  C2er  1 4.700000e-01    3.240000e+00
  P1dq  C2er  1 4.700000e-01    3.240000e+00
  N6dq  C2er  1 4.700000e-01    3.390000e+00
  N5dq  C2er  1 4.700000e-01    3.390000e+00
  N4dq  C2er  1 4.700000e-01    3.390000e+00
  N3dq  C2er  1 4.700000e-01    3.520000e+00
  N2dq  C2er  1 4.700000e-01    3.520000e+00
  N1dq  C2er  1 4.700000e-01    3.520000e+00
  P6dq  C1er  1 4.700000e-01    2.620000e+00
  P5dq  C1er  1 4.700000e-01    2.960000e+00
  P4dq  C1er  1 4.700000e-01    2.960000e+00
  P3dq  C1er  1 4.700000e-01    2.960000e+00
  P2dq  C1er  1 4.700000e-01    3.070000e+00
  P1dq  C1er  1 4.700000e-01    3.070000e+00
  N6dq  C1er  1 4.700000e-01    3.240000e+00
  N5dq  C1er  1 4.700000e-01    3.240000e+00
  N4dq  C1er  1 4.700000e-01    3.240000e+00
  N3dq  C1er  1 4.700000e-01    3.390000e+00
  N2dq  C1er  1 4.700000e-01    3.390000e+00
  N1dq  C1er  1 4.700000e-01    3.390000e+00
  P6dq  X4er  1 4.700000e-01    3.520000e+00
  P5dq  X4er  1 4.700000e-01    3.690000e+00
  P4dq  X4er  1 4.700000e-01    3.690000e+00
  P3dq  X4er  1 4.700000e-01    3.690000e+00
  P2dq  X4er  1 4.700000e-01    3.690000e+00
  P1dq  X4er  1 4.700000e-01    3.690000e+00
  N6dq  X4er  1 4.700000e-01    3.880000e+00
  N5dq  X4er  1 4.700000e-01    4.060000e+00
  N4dq  X4er  1 4.700000e-01    4.250000e+00
  N3dq  X4er  1 4.700000e-01    4.060000e+00
  N2dq  X4er  1 4.700000e-01    4.060000e+00
  N1dq  X4er  1 4.700000e-01    3.880000e+00
  P6dq  X3er  1 4.700000e-01    3.520000e+00
  P5dq  X3er  1 4.700000e-01    3.520000e+00
  P4dq  X3er  1 4.700000e-01    3.520000e+00
  P3dq  X3er  1 4.700000e-01    3.690000e+00
  P2dq  X3er  1 4.700000e-01    3.690000e+00
  P1dq  X3er  1 4.700000e-01    3.690000e+00
  N6dq  X3er  1 4.700000e-01    3.690000e+00
  N5dq  X3er  1 4.700000e-01    3.880000e+00
  N4dq  X3er  1 4.700000e-01    4.060000e+00
  N3dq  X3er  1 4.700000e-01    3.880000e+00
  N2dq  X3er  1 4.700000e-01    3.880000e+00
  N1dq  X3er  1 4.700000e-01    3.880000e+00
  P6dq  X2er  1 4.700000e-01    3.390000e+00
  P5dq  X2er  1 4.700000e-01    3.520000e+00
  P4dq  X2er  1 4.700000e-01    3.520000e+00
  P3dq  X2er  1 4.700000e-01    3.520000e+00
  P2dq  X2er  1 4.700000e-01    3.520000e+00
  P1dq  X2er  1 4.700000e-01    3.520000e+00
  N6dq  X2er  1 4.700000e-01    3.520000e+00
  N5dq  X2er  1 4.700000e-01    3.690000e+00
  N4dq  X2er  1 4.700000e-01    3.690000e+00
  N3dq  X2er  1 4.700000e-01    3.690000e+00
  N2dq  X2er  1 4.700000e-01    3.690000e+00
  N1dq  X2er  1 4.700000e-01    3.690000e+00
  P6dq  X1er  1 4.700000e-01    3.240000e+00
  P5dq  X1er  1 4.700000e-01    3.240000e+00
  P4dq  X1er  1 4.700000e-01    3.390000e+00
  P3dq  X1er  1 4.700000e-01    3.390000e+00
  P2dq  X1er  1 4.700000e-01    3.390000e+00
  P1dq  X1er  1 4.700000e-01    3.390000e+00
  N6dq  X1er  1 4.700000e-01    3.390000e+00
  N5dq  X1er  1 4.700000e-01    3.520000e+00
  N4dq  X1er  1 4.700000e-01    3.520000e+00
  N3dq  X1er  1 4.700000e-01    3.690000e+00
  N2dq  X1er  1 4.700000e-01    3.690000e+00
  N1dq  X1er  1 4.700000e-01    3.690000e+00
  P6dh   C6e  1 4.700000e-01    3.070000e+00
  P6dh   C5e  1 4.700000e-01    2.960000e+00
  P6dh   C4e  1 4.700000e-01    2.790000e+00
  P6dh   C3e  1 4.700000e-01    2.620000e+00
  P6dh   C2e  1 4.700000e-01    2.620000e+00
  P6dh   C1e  1 4.850000e-01    2.240000e+00
  P6dh   X4e  1 4.700000e-01    3.240000e+00
  P6dh   X3e  1 4.700000e-01    3.240000e+00
  P6dh   X2e  1 4.700000e-01    3.070000e+00
  P6dh   X1e  1 4.700000e-01    2.960000e+00
  P5dh   C6e  1 4.700000e-01    3.070000e+00
  P5dh   C5e  1 4.700000e-01    3.070000e+00
  P5dh   C4e  1 4.700000e-01    2.960000e+00
  P5dh   C3e  1 4.700000e-01    2.790000e+00
  P5dh   C2e  1 4.700000e-01    2.790000e+00
  P5dh   C1e  1 4.700000e-01    2.620000e+00
  P5dh   X4e  1 4.700000e-01    3.390000e+00
  P5dh   X3e  1 4.700000e-01    3.240000e+00
  P5dh   X2e  1 4.700000e-01    3.240000e+00
  P5dh   X1e  1 4.700000e-01    2.960000e+00
  P4dh   C6e  1 4.700000e-01    3.240000e+00
  P4dh   C5e  1 4.700000e-01    3.070000e+00
  P4dh   C4e  1 4.700000e-01    2.960000e+00
  P4dh   C3e  1 4.700000e-01    2.790000e+00
  P4dh   C2e  1 4.700000e-01    2.790000e+00
  P4dh   C1e  1 4.700000e-01    2.620000e+00
  P4dh   X4e  1 4.700000e-01    3.390000e+00
  P4dh   X3e  1 4.700000e-01    3.240000e+00
  P4dh   X2e  1 4.700000e-01    3.240000e+00
  P4dh   X1e  1 4.700000e-01    3.070000e+00
  P3dh   C6e  1 4.700000e-01    3.390000e+00
  P3dh   C5e  1 4.700000e-01    3.240000e+00
  P3dh   C4e  1 4.700000e-01    3.070000e+00
  P3dh   C3e  1 4.700000e-01    2.790000e+00
  P3dh   C2e  1 4.700000e-01    2.790000e+00
  P3dh   C1e  1 4.700000e-01    2.620000e+00
  P3dh   X4e  1 4.700000e-01    3.390000e+00
  P3dh   X3e  1 4.700000e-01    3.390000e+00
  P3dh   X2e  1 4.700000e-01    3.240000e+00
  P3dh   X1e  1 4.700000e-01    3.070000e+00
  P2dh   C6e  1 4.700000e-01    3.390000e+00
  P2dh   C5e  1 4.700000e-01    3.240000e+00
  P2dh   C4e  1 4.700000e-01    3.070000e+00
  P2dh   C3e  1 4.700000e-01    2.960000e+00
  P2dh   C2e  1 4.700000e-01    2.960000e+00
  P2dh   C1e  1 4.700000e-01    2.790000e+00
  P2dh   X4e  1 4.700000e-01    3.390000e+00
  P2dh   X3e  1 4.700000e-01    3.390000e+00
  P2dh   X2e  1 4.700000e-01    3.240000e+00
  P2dh   X1e  1 4.700000e-01    3.070000e+00
  P1dh   C6e  1 4.700000e-01    3.390000e+00
  P1dh   C5e  1 4.700000e-01    3.240000e+00
  P1dh   C4e  1 4.700000e-01    3.070000e+00
  P1dh   C3e  1 4.700000e-01    2.960000e+00
  P1dh   C2e  1 4.700000e-01    2.960000e+00
  P1dh   C1e  1 4.700000e-01    2.790000e+00
  P1dh   X4e  1 4.700000e-01    3.390000e+00
  P1dh   X3e  1 4.700000e-01    3.390000e+00
  P1dh   X2e  1 4.700000e-01    3.240000e+00
  P1dh   X1e  1 4.700000e-01    3.070000e+00
  N6dh   C6e  1 4.700000e-01    3.520000e+00
  N6dh   C5e  1 4.700000e-01    3.390000e+00
  N6dh   C4e  1 4.700000e-01    3.240000e+00
  N6dh   C3e  1 4.700000e-01    3.070000e+00
  N6dh   C2e  1 4.700000e-01    3.070000e+00
  N6dh   C1e  1 4.700000e-01    2.960000e+00
  N6dh   X4e  1 4.700000e-01    3.520000e+00
  N6dh   X3e  1 4.700000e-01    3.390000e+00
  N6dh   X2e  1 4.700000e-01    3.240000e+00
  N6dh   X1e  1 4.700000e-01    3.070000e+00
  N5dh   C6e  1 4.700000e-01    3.520000e+00
  N5dh   C5e  1 4.700000e-01    3.390000e+00
  N5dh   C4e  1 4.700000e-01    3.240000e+00
  N5dh   C3e  1 4.700000e-01    3.240000e+00
  N5dh   C2e  1 4.700000e-01    3.070000e+00
  N5dh   C1e  1 4.700000e-01    2.960000e+00
  N5dh   X4e  1 4.700000e-01    3.690000e+00
  N5dh   X3e  1 4.700000e-01    3.520000e+00
  N5dh   X2e  1 4.700000e-01    3.390000e+00
  N5dh   X1e  1 4.700000e-01    3.240000e+00
  N4dh   C6e  1 4.700000e-01    3.520000e+00
  N4dh   C5e  1 4.700000e-01    3.390000e+00
  N4dh   C4e  1 4.700000e-01    3.390000e+00
  N4dh   C3e  1 4.700000e-01    3.240000e+00
  N4dh   C2e  1 4.700000e-01    3.070000e+00
  N4dh   C1e  1 4.700000e-01    2.960000e+00
  N4dh   X4e  1 4.700000e-01    3.880000e+00
  N4dh   X3e  1 4.700000e-01    3.690000e+00
  N4dh   X2e  1 4.700000e-01    3.390000e+00
  N4dh   X1e  1 4.700000e-01    3.240000e+00
  N3dh   C6e  1 4.700000e-01    3.520000e+00
  N3dh   C5e  1 4.700000e-01    3.390000e+00
  N3dh   C4e  1 4.700000e-01    3.390000e+00
  N3dh   C3e  1 4.700000e-01    3.240000e+00
  N3dh   C2e  1 4.700000e-01    3.240000e+00
  N3dh   C1e  1 4.700000e-01    3.070000e+00
  N3dh   X4e  1 4.700000e-01    3.690000e+00
  N3dh   X3e  1 4.700000e-01    3.520000e+00
  N3dh   X2e  1 4.700000e-01    3.390000e+00
  N3dh   X1e  1 4.700000e-01    3.390000e+00
  N2dh   C6e  1 4.700000e-01    3.520000e+00
  N2dh   C5e  1 4.700000e-01    3.390000e+00
  N2dh   C4e  1 4.700000e-01    3.390000e+00
  N2dh   C3e  1 4.700000e-01    3.390000e+00
  N2dh   C2e  1 4.700000e-01    3.240000e+00
  N2dh   C1e  1 4.700000e-01    3.070000e+00
  N2dh   X4e  1 4.700000e-01    3.690000e+00
  N2dh   X3e  1 4.700000e-01    3.520000e+00
  N2dh   X2e  1 4.700000e-01    3.390000e+00
  N2dh   X1e  1 4.700000e-01    3.390000e+00
  N1dh   C6e  1 4.700000e-01    3.690000e+00
  N1dh   C5e  1 4.700000e-01    3.520000e+00
  N1dh   C4e  1 4.700000e-01    3.520000e+00
  N1dh   C3e  1 4.700000e-01    3.390000e+00
  N1dh   C2e  1 4.700000e-01    3.240000e+00
  N1dh   C1e  1 4.700000e-01    3.070000e+00
  N1dh   X4e  1 4.700000e-01    3.520000e+00
  N1dh   X3e  1 4.700000e-01    3.520000e+00
  N1dh   X2e  1 4.700000e-01    3.390000e+00
  N1dh   X1e  1 4.700000e-01    3.390000e+00
  P6dh  X1eq  1 4.700000e-01    3.240000e+00
  P6dh  X2eq  1 4.700000e-01    3.390000e+00
  P6dh  X3eq  1 4.700000e-01    3.520000e+00
  P6dh  X4eq  1 4.700000e-01    3.520000e+00
  P6dh  C1eq  1 4.700000e-01    2.620000e+00
  P6dh  C2eq  1 4.700000e-01    2.960000e+00
  P6dh  C3eq  1 4.700000e-01    2.960000e+00
  P6dh  C4eq  1 4.700000e-01    3.070000e+00
  P6dh  C5eq  1 4.700000e-01    3.240000e+00
  P6dh  C6eq  1 4.700000e-01    3.390000e+00
  P5dh  X1eq  1 4.700000e-01    3.240000e+00
  P5dh  X2eq  1 4.700000e-01    3.520000e+00
  P5dh  X3eq  1 4.700000e-01    3.520000e+00
  P5dh  X4eq  1 4.700000e-01    3.690000e+00
  P5dh  C1eq  1 4.700000e-01    2.960000e+00
  P5dh  C2eq  1 4.700000e-01    3.070000e+00
  P5dh  C3eq  1 4.700000e-01    3.070000e+00
  P5dh  C4eq  1 4.700000e-01    3.240000e+00
  P5dh  C5eq  1 4.700000e-01    3.390000e+00
  P5dh  C6eq  1 4.700000e-01    3.390000e+00
  P4dh  X1eq  1 4.700000e-01    3.390000e+00
  P4dh  X2eq  1 4.700000e-01    3.520000e+00
  P4dh  X3eq  1 4.700000e-01    3.520000e+00
  P4dh  X4eq  1 4.700000e-01    3.690000e+00
  P4dh  C1eq  1 4.700000e-01    2.960000e+00
  P4dh  C2eq  1 4.700000e-01    3.070000e+00
  P4dh  C3eq  1 4.700000e-01    3.070000e+00
  P4dh  C4eq  1 4.700000e-01    3.240000e+00
  P4dh  C5eq  1 4.700000e-01    3.390000e+00
  P4dh  C6eq  1 4.700000e-01    3.520000e+00
  P3dh  X1eq  1 4.700000e-01    3.390000e+00
  P3dh  X2eq  1 4.700000e-01    3.520000e+00
  P3dh  X3eq  1 4.700000e-01    3.690000e+00
  P3dh  X4eq  1 4.700000e-01    3.690000e+00
  P3dh  C1eq  1 4.700000e-01    2.960000e+00
  P3dh  C2eq  1 4.700000e-01    3.070000e+00
  P3dh  C3eq  1 4.700000e-01    3.070000e+00
  P3dh  C4eq  1 4.700000e-01    3.390000e+00
  P3dh  C5eq  1 4.700000e-01    3.520000e+00
  P3dh  C6eq  1 4.700000e-01    3.690000e+00
  P2dh  X1eq  1 4.700000e-01    3.390000e+00
  P2dh  X2eq  1 4.700000e-01    3.520000e+00
  P2dh  X3eq  1 4.700000e-01    3.690000e+00
  P2dh  X4eq  1 4.700000e-01    3.690000e+00
  P2dh  C1eq  1 4.700000e-01    3.070000e+00
  P2dh  C2eq  1 4.700000e-01    3.240000e+00
  P2dh  C3eq  1 4.700000e-01    3.240000e+00
  P2dh  C4eq  1 4.700000e-01    3.390000e+00
  P2dh  C5eq  1 4.700000e-01    3.520000e+00
  P2dh  C6eq  1 4.700000e-01    3.690000e+00
  P1dh  X1eq  1 4.700000e-01    3.390000e+00
  P1dh  X2eq  1 4.700000e-01    3.520000e+00
  P1dh  X3eq  1 4.700000e-01    3.690000e+00
  P1dh  X4eq  1 4.700000e-01    3.690000e+00
  P1dh  C1eq  1 4.700000e-01    3.070000e+00
  P1dh  C2eq  1 4.700000e-01    3.240000e+00
  P1dh  C3eq  1 4.700000e-01    3.240000e+00
  P1dh  C4eq  1 4.700000e-01    3.390000e+00
  P1dh  C5eq  1 4.700000e-01    3.520000e+00
  P1dh  C6eq  1 4.700000e-01    3.690000e+00
  N6dh  X1eq  1 4.700000e-01    3.390000e+00
  N6dh  X2eq  1 4.700000e-01    3.520000e+00
  N6dh  X3eq  1 4.700000e-01    3.690000e+00
  N6dh  X4eq  1 4.700000e-01    3.880000e+00
  N6dh  C1eq  1 4.700000e-01    3.240000e+00
  N6dh  C2eq  1 4.700000e-01    3.390000e+00
  N6dh  C3eq  1 4.700000e-01    3.390000e+00
  N6dh  C4eq  1 4.700000e-01    3.520000e+00
  N6dh  C5eq  1 4.700000e-01    3.690000e+00
  N6dh  C6eq  1 4.700000e-01    3.880000e+00
  N5dh  X1eq  1 4.700000e-01    3.520000e+00
  N5dh  X2eq  1 4.700000e-01    3.690000e+00
  N5dh  X3eq  1 4.700000e-01    3.880000e+00
  N5dh  X4eq  1 4.700000e-01    4.060000e+00
  N5dh  C1eq  1 4.700000e-01    3.240000e+00
  N5dh  C2eq  1 4.700000e-01    3.390000e+00
  N5dh  C3eq  1 4.700000e-01    3.520000e+00
  N5dh  C4eq  1 4.700000e-01    3.520000e+00
  N5dh  C5eq  1 4.700000e-01    3.690000e+00
  N5dh  C6eq  1 4.700000e-01    3.880000e+00
  N4dh  X1eq  1 4.700000e-01    3.520000e+00
  N4dh  X2eq  1 4.700000e-01    3.690000e+00
  N4dh  X3eq  1 4.700000e-01    4.060000e+00
  N4dh  X4eq  1 4.700000e-01    4.250000e+00
  N4dh  C1eq  1 4.700000e-01    3.240000e+00
  N4dh  C2eq  1 4.700000e-01    3.390000e+00
  N4dh  C3eq  1 4.700000e-01    3.520000e+00
  N4dh  C4eq  1 4.700000e-01    3.690000e+00
  N4dh  C5eq  1 4.700000e-01    3.690000e+00
  N4dh  C6eq  1 4.700000e-01    3.880000e+00
  N3dh  X1eq  1 4.700000e-01    3.690000e+00
  N3dh  X2eq  1 4.700000e-01    3.690000e+00
  N3dh  X3eq  1 4.700000e-01    3.880000e+00
  N3dh  X4eq  1 4.700000e-01    4.060000e+00
  N3dh  C1eq  1 4.700000e-01    3.390000e+00
  N3dh  C2eq  1 4.700000e-01    3.520000e+00
  N3dh  C3eq  1 4.700000e-01    3.520000e+00
  N3dh  C4eq  1 4.700000e-01    3.690000e+00
  N3dh  C5eq  1 4.700000e-01    3.690000e+00
  N3dh  C6eq  1 4.700000e-01    3.880000e+00
  N2dh  X1eq  1 4.700000e-01    3.690000e+00
  N2dh  X2eq  1 4.700000e-01    3.690000e+00
  N2dh  X3eq  1 4.700000e-01    3.880000e+00
  N2dh  X4eq  1 4.700000e-01    4.060000e+00
  N2dh  C1eq  1 4.700000e-01    3.390000e+00
  N2dh  C2eq  1 4.700000e-01    3.520000e+00
  N2dh  C3eq  1 4.700000e-01    3.690000e+00
  N2dh  C4eq  1 4.700000e-01    3.690000e+00
  N2dh  C5eq  1 4.700000e-01    3.690000e+00
  N2dh  C6eq  1 4.700000e-01    3.880000e+00
  N1dh  X1eq  1 4.700000e-01    3.690000e+00
  N1dh  X2eq  1 4.700000e-01    3.690000e+00
  N1dh  X3eq  1 4.700000e-01    3.880000e+00
  N1dh  X4eq  1 4.700000e-01    3.880000e+00
  N1dh  C1eq  1 4.700000e-01    3.390000e+00
  N1dh  C2eq  1 4.700000e-01    3.520000e+00
  N1dh  C3eq  1 4.700000e-01    3.690000e+00
  N1dh  C4eq  1 4.700000e-01    3.880000e+00
  N1dh  C5eq  1 4.700000e-01    3.880000e+00
  N1dh  C6eq  1 4.700000e-01    4.060000e+00
  P6dh  C6eh  1 4.700000e-01    3.070000e+00
  P6dh  C5eh  1 4.700000e-01    2.960000e+00
  P6dh  C4eh  1 4.700000e-01    2.790000e+00
  P6dh  C3eh  1 4.700000e-01    2.620000e+00
  P6dh  C2eh  1 4.700000e-01    2.620000e+00
  P6dh  C1eh  1 4.850000e-01    2.240000e+00
  P6dh  X4eh  1 4.700000e-01    3.240000e+00
  P6dh  X3eh  1 4.700000e-01    3.240000e+00
  P6dh  X2eh  1 4.700000e-01    3.070000e+00
  P6dh  X1eh  1 4.700000e-01    2.960000e+00
  P5dh  C6eh  1 4.700000e-01    3.070000e+00
  P5dh  C5eh  1 4.700000e-01    3.070000e+00
  P5dh  C4eh  1 4.700000e-01    2.960000e+00
  P5dh  C3eh  1 4.700000e-01    2.790000e+00
  P5dh  C2eh  1 4.700000e-01    2.790000e+00
  P5dh  C1eh  1 4.700000e-01    2.620000e+00
  P5dh  X4eh  1 4.700000e-01    3.390000e+00
  P5dh  X3eh  1 4.700000e-01    3.240000e+00
  P5dh  X2eh  1 4.700000e-01    3.240000e+00
  P5dh  X1eh  1 4.700000e-01    2.960000e+00
  P4dh  C6eh  1 4.700000e-01    3.240000e+00
  P4dh  C5eh  1 4.700000e-01    3.070000e+00
  P4dh  C4eh  1 4.700000e-01    2.960000e+00
  P4dh  C3eh  1 4.700000e-01    2.790000e+00
  P4dh  C2eh  1 4.700000e-01    2.790000e+00
  P4dh  C1eh  1 4.700000e-01    2.620000e+00
  P4dh  X4eh  1 4.700000e-01    3.390000e+00
  P4dh  X3eh  1 4.700000e-01    3.240000e+00
  P4dh  X2eh  1 4.700000e-01    3.240000e+00
  P4dh  X1eh  1 4.700000e-01    3.070000e+00
  P3dh  C6eh  1 4.700000e-01    3.390000e+00
  P3dh  C5eh  1 4.700000e-01    3.240000e+00
  P3dh  C4eh  1 4.700000e-01    3.070000e+00
  P3dh  C3eh  1 4.700000e-01    2.790000e+00
  P3dh  C2eh  1 4.700000e-01    2.790000e+00
  P3dh  C1eh  1 4.700000e-01    2.620000e+00
  P3dh  X4eh  1 4.700000e-01    3.390000e+00
  P3dh  X3eh  1 4.700000e-01    3.390000e+00
  P3dh  X2eh  1 4.700000e-01    3.240000e+00
  P3dh  X1eh  1 4.700000e-01    3.070000e+00
  P2dh  C6eh  1 4.700000e-01    3.390000e+00
  P2dh  C5eh  1 4.700000e-01    3.240000e+00
  P2dh  C4eh  1 4.700000e-01    3.070000e+00
  P2dh  C3eh  1 4.700000e-01    2.960000e+00
  P2dh  C2eh  1 4.700000e-01    2.960000e+00
  P2dh  C1eh  1 4.700000e-01    2.790000e+00
  P2dh  X4eh  1 4.700000e-01    3.390000e+00
  P2dh  X3eh  1 4.700000e-01    3.390000e+00
  P2dh  X2eh  1 4.700000e-01    3.240000e+00
  P2dh  X1eh  1 4.700000e-01    3.070000e+00
  P1dh  C6eh  1 4.700000e-01    3.390000e+00
  P1dh  C5eh  1 4.700000e-01    3.240000e+00
  P1dh  C4eh  1 4.700000e-01    3.070000e+00
  P1dh  C3eh  1 4.700000e-01    2.960000e+00
  P1dh  C2eh  1 4.700000e-01    2.960000e+00
  P1dh  C1eh  1 4.700000e-01    2.790000e+00
  P1dh  X4eh  1 4.700000e-01    3.390000e+00
  P1dh  X3eh  1 4.700000e-01    3.390000e+00
  P1dh  X2eh  1 4.700000e-01    3.240000e+00
  P1dh  X1eh  1 4.700000e-01    3.070000e+00
  N6dh  C6eh  1 4.700000e-01    3.520000e+00
  N6dh  C5eh  1 4.700000e-01    3.390000e+00
  N6dh  C4eh  1 4.700000e-01    3.240000e+00
  N6dh  C3eh  1 4.700000e-01    3.070000e+00
  N6dh  C2eh  1 4.700000e-01    3.070000e+00
  N6dh  C1eh  1 4.700000e-01    2.960000e+00
  N6dh  X4eh  1 4.700000e-01    3.520000e+00
  N6dh  X3eh  1 4.700000e-01    3.390000e+00
  N6dh  X2eh  1 4.700000e-01    3.240000e+00
  N6dh  X1eh  1 4.700000e-01    3.070000e+00
  N5dh  C6eh  1 4.700000e-01    3.520000e+00
  N5dh  C5eh  1 4.700000e-01    3.390000e+00
  N5dh  C4eh  1 4.700000e-01    3.240000e+00
  N5dh  C3eh  1 4.700000e-01    3.240000e+00
  N5dh  C2eh  1 4.700000e-01    3.070000e+00
  N5dh  C1eh  1 4.700000e-01    2.960000e+00
  N5dh  X4eh  1 4.700000e-01    3.690000e+00
  N5dh  X3eh  1 4.700000e-01    3.520000e+00
  N5dh  X2eh  1 4.700000e-01    3.390000e+00
  N5dh  X1eh  1 4.700000e-01    3.240000e+00
  N4dh  C6eh  1 4.700000e-01    3.520000e+00
  N4dh  C5eh  1 4.700000e-01    3.390000e+00
  N4dh  C4eh  1 4.700000e-01    3.390000e+00
  N4dh  C3eh  1 4.700000e-01    3.240000e+00
  N4dh  C2eh  1 4.700000e-01    3.070000e+00
  N4dh  C1eh  1 4.700000e-01    2.960000e+00
  N4dh  X4eh  1 4.700000e-01    3.880000e+00
  N4dh  X3eh  1 4.700000e-01    3.690000e+00
  N4dh  X2eh  1 4.700000e-01    3.390000e+00
  N4dh  X1eh  1 4.700000e-01    3.240000e+00
  N3dh  C6eh  1 4.700000e-01    3.520000e+00
  N3dh  C5eh  1 4.700000e-01    3.390000e+00
  N3dh  C4eh  1 4.700000e-01    3.390000e+00
  N3dh  C3eh  1 4.700000e-01    3.240000e+00
  N3dh  C2eh  1 4.700000e-01    3.240000e+00
  N3dh  C1eh  1 4.700000e-01    3.070000e+00
  N3dh  X4eh  1 4.700000e-01    3.690000e+00
  N3dh  X3eh  1 4.700000e-01    3.520000e+00
  N3dh  X2eh  1 4.700000e-01    3.390000e+00
  N3dh  X1eh  1 4.700000e-01    3.390000e+00
  N2dh  C6eh  1 4.700000e-01    3.520000e+00
  N2dh  C5eh  1 4.700000e-01    3.390000e+00
  N2dh  C4eh  1 4.700000e-01    3.390000e+00
  N2dh  C3eh  1 4.700000e-01    3.390000e+00
  N2dh  C2eh  1 4.700000e-01    3.240000e+00
  N2dh  C1eh  1 4.700000e-01    3.070000e+00
  N2dh  X4eh  1 4.700000e-01    3.690000e+00
  N2dh  X3eh  1 4.700000e-01    3.520000e+00
  N2dh  X2eh  1 4.700000e-01    3.390000e+00
  N2dh  X1eh  1 4.700000e-01    3.390000e+00
  N1dh  C6eh  1 4.700000e-01    3.690000e+00
  N1dh  C5eh  1 4.700000e-01    3.520000e+00
  N1dh  C4eh  1 4.700000e-01    3.520000e+00
  N1dh  C3eh  1 4.700000e-01    3.390000e+00
  N1dh  C2eh  1 4.700000e-01    3.240000e+00
  N1dh  C1eh  1 4.700000e-01    3.070000e+00
  N1dh  X4eh  1 4.700000e-01    3.520000e+00
  N1dh  X3eh  1 4.700000e-01    3.520000e+00
  N1dh  X2eh  1 4.700000e-01    3.390000e+00
  N1dh  X1eh  1 4.700000e-01    3.390000e+00
  P6dh  C6er  1 4.700000e-01    3.070000e+00
  P6dh  C5er  1 4.700000e-01    2.960000e+00
  P6dh  C4er  1 4.700000e-01    2.790000e+00
  P6dh  C3er  1 4.700000e-01    2.620000e+00
  P6dh  C2er  1 4.700000e-01    2.620000e+00
  P6dh  C1er  1 4.850000e-01    2.240000e+00
  P6dh  X4er  1 4.700000e-01    3.240000e+00
  P6dh  X3er  1 4.700000e-01    3.240000e+00
  P6dh  X2er  1 4.700000e-01    3.070000e+00
  P6dh  X1er  1 4.700000e-01    2.960000e+00
  P5dh  C6er  1 4.700000e-01    3.070000e+00
  P5dh  C5er  1 4.700000e-01    3.070000e+00
  P5dh  C4er  1 4.700000e-01    2.960000e+00
  P5dh  C3er  1 4.700000e-01    2.790000e+00
  P5dh  C2er  1 4.700000e-01    2.790000e+00
  P5dh  C1er  1 4.700000e-01    2.620000e+00
  P5dh  X4er  1 4.700000e-01    3.390000e+00
  P5dh  X3er  1 4.700000e-01    3.240000e+00
  P5dh  X2er  1 4.700000e-01    3.240000e+00
  P5dh  X1er  1 4.700000e-01    2.960000e+00
  P4dh  C6er  1 4.700000e-01    3.240000e+00
  P4dh  C5er  1 4.700000e-01    3.070000e+00
  P4dh  C4er  1 4.700000e-01    2.960000e+00
  P4dh  C3er  1 4.700000e-01    2.790000e+00
  P4dh  C2er  1 4.700000e-01    2.790000e+00
  P4dh  C1er  1 4.700000e-01    2.620000e+00
  P4dh  X4er  1 4.700000e-01    3.390000e+00
  P4dh  X3er  1 4.700000e-01    3.240000e+00
  P4dh  X2er  1 4.700000e-01    3.240000e+00
  P4dh  X1er  1 4.700000e-01    3.070000e+00
  P3dh  C6er  1 4.700000e-01    3.390000e+00
  P3dh  C5er  1 4.700000e-01    3.240000e+00
  P3dh  C4er  1 4.700000e-01    3.070000e+00
  P3dh  C3er  1 4.700000e-01    2.790000e+00
  P3dh  C2er  1 4.700000e-01    2.790000e+00
  P3dh  C1er  1 4.700000e-01    2.620000e+00
  P3dh  X4er  1 4.700000e-01    3.390000e+00
  P3dh  X3er  1 4.700000e-01    3.390000e+00
  P3dh  X2er  1 4.700000e-01    3.240000e+00
  P3dh  X1er  1 4.700000e-01    3.070000e+00
  P2dh  C6er  1 4.700000e-01    3.390000e+00
  P2dh  C5er  1 4.700000e-01    3.240000e+00
  P2dh  C4er  1 4.700000e-01    3.070000e+00
  P2dh  C3er  1 4.700000e-01    2.960000e+00
  P2dh  C2er  1 4.700000e-01    2.960000e+00
  P2dh  C1er  1 4.700000e-01    2.790000e+00
  P2dh  X4er  1 4.700000e-01    3.390000e+00
  P2dh  X3er  1 4.700000e-01    3.390000e+00
  P2dh  X2er  1 4.700000e-01    3.240000e+00
  P2dh  X1er  1 4.700000e-01    3.070000e+00
  P1dh  C6er  1 4.700000e-01    3.390000e+00
  P1dh  C5er  1 4.700000e-01    3.240000e+00
  P1dh  C4er  1 4.700000e-01    3.070000e+00
  P1dh  C3er  1 4.700000e-01    2.960000e+00
  P1dh  C2er  1 4.700000e-01    2.960000e+00
  P1dh  C1er  1 4.700000e-01    2.790000e+00
  P1dh  X4er  1 4.700000e-01    3.390000e+00
  P1dh  X3er  1 4.700000e-01    3.390000e+00
  P1dh  X2er  1 4.700000e-01    3.240000e+00
  P1dh  X1er  1 4.700000e-01    3.070000e+00
  N6dh  C6er  1 4.700000e-01    3.520000e+00
  N6dh  C5er  1 4.700000e-01    3.390000e+00
  N6dh  C4er  1 4.700000e-01    3.240000e+00
  N6dh  C3er  1 4.700000e-01    3.070000e+00
  N6dh  C2er  1 4.700000e-01    3.070000e+00
  N6dh  C1er  1 4.700000e-01    2.960000e+00
  N6dh  X4er  1 4.700000e-01    3.520000e+00
  N6dh  X3er  1 4.700000e-01    3.390000e+00
  N6dh  X2er  1 4.700000e-01    3.240000e+00
  N6dh  X1er  1 4.700000e-01    3.070000e+00
  N5dh  C6er  1 4.700000e-01    3.520000e+00
  N5dh  C5er  1 4.700000e-01    3.390000e+00
  N5dh  C4er  1 4.700000e-01    3.240000e+00
  N5dh  C3er  1 4.700000e-01    3.240000e+00
  N5dh  C2er  1 4.700000e-01    3.070000e+00
  N5dh  C1er  1 4.700000e-01    2.960000e+00
  N5dh  X4er  1 4.700000e-01    3.690000e+00
  N5dh  X3er  1 4.700000e-01    3.520000e+00
  N5dh  X2er  1 4.700000e-01    3.390000e+00
  N5dh  X1er  1 4.700000e-01    3.240000e+00
  N4dh  C6er  1 4.700000e-01    3.520000e+00
  N4dh  C5er  1 4.700000e-01    3.390000e+00
  N4dh  C4er  1 4.700000e-01    3.390000e+00
  N4dh  C3er  1 4.700000e-01    3.240000e+00
  N4dh  C2er  1 4.700000e-01    3.070000e+00
  N4dh  C1er  1 4.700000e-01    2.960000e+00
  N4dh  X4er  1 4.700000e-01    3.880000e+00
  N4dh  X3er  1 4.700000e-01    3.690000e+00
  N4dh  X2er  1 4.700000e-01    3.390000e+00
  N4dh  X1er  1 4.700000e-01    3.240000e+00
  N3dh  C6er  1 4.700000e-01    3.520000e+00
  N3dh  C5er  1 4.700000e-01    3.390000e+00
  N3dh  C4er  1 4.700000e-01    3.390000e+00
  N3dh  C3er  1 4.700000e-01    3.240000e+00
  N3dh  C2er  1 4.700000e-01    3.240000e+00
  N3dh  C1er  1 4.700000e-01    3.070000e+00
  N3dh  X4er  1 4.700000e-01    3.690000e+00
  N3dh  X3er  1 4.700000e-01    3.520000e+00
  N3dh  X2er  1 4.700000e-01    3.390000e+00
  N3dh  X1er  1 4.700000e-01    3.390000e+00
  N2dh  C6er  1 4.700000e-01    3.520000e+00
  N2dh  C5er  1 4.700000e-01    3.390000e+00
  N2dh  C4er  1 4.700000e-01    3.390000e+00
  N2dh  C3er  1 4.700000e-01    3.390000e+00
  N2dh  C2er  1 4.700000e-01    3.240000e+00
  N2dh  C1er  1 4.700000e-01    3.070000e+00
  N2dh  X4er  1 4.700000e-01    3.690000e+00
  N2dh  X3er  1 4.700000e-01    3.520000e+00
  N2dh  X2er  1 4.700000e-01    3.390000e+00
  N2dh  X1er  1 4.700000e-01    3.390000e+00
  N1dh  C6er  1 4.700000e-01    3.690000e+00
  N1dh  C5er  1 4.700000e-01    3.520000e+00
  N1dh  C4er  1 4.700000e-01    3.520000e+00
  N1dh  C3er  1 4.700000e-01    3.390000e+00
  N1dh  C2er  1 4.700000e-01    3.240000e+00
  N1dh  C1er  1 4.700000e-01    3.070000e+00
  N1dh  X4er  1 4.700000e-01    3.520000e+00
  N1dh  X3er  1 4.700000e-01    3.520000e+00
  N1dh  X2er  1 4.700000e-01    3.390000e+00
  N1dh  X1er  1 4.700000e-01    3.390000e+00
  P6dr   C6e  1 4.700000e-01    3.070000e+00
  P6dr   C5e  1 4.700000e-01    2.960000e+00
  P6dr   C4e  1 4.700000e-01    2.790000e+00
  P6dr   C3e  1 4.700000e-01    2.620000e+00
  P6dr   C2e  1 4.700000e-01    2.620000e+00
  P6dr   C1e  1 4.850000e-01    2.240000e+00
  P6dr   X4e  1 4.700000e-01    3.240000e+00
  P6dr   X3e  1 4.700000e-01    3.240000e+00
  P6dr   X2e  1 4.700000e-01    3.070000e+00
  P6dr   X1e  1 4.700000e-01    2.960000e+00
  P5dr   C6e  1 4.700000e-01    3.070000e+00
  P5dr   C5e  1 4.700000e-01    3.070000e+00
  P5dr   C4e  1 4.700000e-01    2.960000e+00
  P5dr   C3e  1 4.700000e-01    2.790000e+00
  P5dr   C2e  1 4.700000e-01    2.790000e+00
  P5dr   C1e  1 4.700000e-01    2.620000e+00
  P5dr   X4e  1 4.700000e-01    3.390000e+00
  P5dr   X3e  1 4.700000e-01    3.240000e+00
  P5dr   X2e  1 4.700000e-01    3.240000e+00
  P5dr   X1e  1 4.700000e-01    2.960000e+00
  P4dr   C6e  1 4.700000e-01    3.240000e+00
  P4dr   C5e  1 4.700000e-01    3.070000e+00
  P4dr   C4e  1 4.700000e-01    2.960000e+00
  P4dr   C3e  1 4.700000e-01    2.790000e+00
  P4dr   C2e  1 4.700000e-01    2.790000e+00
  P4dr   C1e  1 4.700000e-01    2.620000e+00
  P4dr   X4e  1 4.700000e-01    3.390000e+00
  P4dr   X3e  1 4.700000e-01    3.240000e+00
  P4dr   X2e  1 4.700000e-01    3.240000e+00
  P4dr   X1e  1 4.700000e-01    3.070000e+00
  P3dr   C6e  1 4.700000e-01    3.390000e+00
  P3dr   C5e  1 4.700000e-01    3.240000e+00
  P3dr   C4e  1 4.700000e-01    3.070000e+00
  P3dr   C3e  1 4.700000e-01    2.790000e+00
  P3dr   C2e  1 4.700000e-01    2.790000e+00
  P3dr   C1e  1 4.700000e-01    2.620000e+00
  P3dr   X4e  1 4.700000e-01    3.390000e+00
  P3dr   X3e  1 4.700000e-01    3.390000e+00
  P3dr   X2e  1 4.700000e-01    3.240000e+00
  P3dr   X1e  1 4.700000e-01    3.070000e+00
  P2dr   C6e  1 4.700000e-01    3.390000e+00
  P2dr   C5e  1 4.700000e-01    3.240000e+00
  P2dr   C4e  1 4.700000e-01    3.070000e+00
  P2dr   C3e  1 4.700000e-01    2.960000e+00
  P2dr   C2e  1 4.700000e-01    2.960000e+00
  P2dr   C1e  1 4.700000e-01    2.790000e+00
  P2dr   X4e  1 4.700000e-01    3.390000e+00
  P2dr   X3e  1 4.700000e-01    3.390000e+00
  P2dr   X2e  1 4.700000e-01    3.240000e+00
  P2dr   X1e  1 4.700000e-01    3.070000e+00
  P1dr   C6e  1 4.700000e-01    3.390000e+00
  P1dr   C5e  1 4.700000e-01    3.240000e+00
  P1dr   C4e  1 4.700000e-01    3.070000e+00
  P1dr   C3e  1 4.700000e-01    2.960000e+00
  P1dr   C2e  1 4.700000e-01    2.960000e+00
  P1dr   C1e  1 4.700000e-01    2.790000e+00
  P1dr   X4e  1 4.700000e-01    3.390000e+00
  P1dr   X3e  1 4.700000e-01    3.390000e+00
  P1dr   X2e  1 4.700000e-01    3.240000e+00
  P1dr   X1e  1 4.700000e-01    3.070000e+00
  N6dr   C6e  1 4.700000e-01    3.520000e+00
  N6dr   C5e  1 4.700000e-01    3.390000e+00
  N6dr   C4e  1 4.700000e-01    3.240000e+00
  N6dr   C3e  1 4.700000e-01    3.070000e+00
  N6dr   C2e  1 4.700000e-01    3.070000e+00
  N6dr   C1e  1 4.700000e-01    2.960000e+00
  N6dr   X4e  1 4.700000e-01    3.520000e+00
  N6dr   X3e  1 4.700000e-01    3.390000e+00
  N6dr   X2e  1 4.700000e-01    3.240000e+00
  N6dr   X1e  1 4.700000e-01    3.070000e+00
  N5dr   C6e  1 4.700000e-01    3.520000e+00
  N5dr   C5e  1 4.700000e-01    3.390000e+00
  N5dr   C4e  1 4.700000e-01    3.240000e+00
  N5dr   C3e  1 4.700000e-01    3.240000e+00
  N5dr   C2e  1 4.700000e-01    3.070000e+00
  N5dr   C1e  1 4.700000e-01    2.960000e+00
  N5dr   X4e  1 4.700000e-01    3.690000e+00
  N5dr   X3e  1 4.700000e-01    3.520000e+00
  N5dr   X2e  1 4.700000e-01    3.390000e+00
  N5dr   X1e  1 4.700000e-01    3.240000e+00
  N4dr   C6e  1 4.700000e-01    3.520000e+00
  N4dr   C5e  1 4.700000e-01    3.390000e+00
  N4dr   C4e  1 4.700000e-01    3.390000e+00
  N4dr   C3e  1 4.700000e-01    3.240000e+00
  N4dr   C2e  1 4.700000e-01    3.070000e+00
  N4dr   C1e  1 4.700000e-01    2.960000e+00
  N4dr   X4e  1 4.700000e-01    3.880000e+00
  N4dr   X3e  1 4.700000e-01    3.690000e+00
  N4dr   X2e  1 4.700000e-01    3.390000e+00
  N4dr   X1e  1 4.700000e-01    3.240000e+00
  N3dr   C6e  1 4.700000e-01    3.520000e+00
  N3dr   C5e  1 4.700000e-01    3.390000e+00
  N3dr   C4e  1 4.700000e-01    3.390000e+00
  N3dr   C3e  1 4.700000e-01    3.240000e+00
  N3dr   C2e  1 4.700000e-01    3.240000e+00
  N3dr   C1e  1 4.700000e-01    3.070000e+00
  N3dr   X4e  1 4.700000e-01    3.690000e+00
  N3dr   X3e  1 4.700000e-01    3.520000e+00
  N3dr   X2e  1 4.700000e-01    3.390000e+00
  N3dr   X1e  1 4.700000e-01    3.390000e+00
  N2dr   C6e  1 4.700000e-01    3.520000e+00
  N2dr   C5e  1 4.700000e-01    3.390000e+00
  N2dr   C4e  1 4.700000e-01    3.390000e+00
  N2dr   C3e  1 4.700000e-01    3.390000e+00
  N2dr   C2e  1 4.700000e-01    3.240000e+00
  N2dr   C1e  1 4.700000e-01    3.070000e+00
  N2dr   X4e  1 4.700000e-01    3.690000e+00
  N2dr   X3e  1 4.700000e-01    3.520000e+00
  N2dr   X2e  1 4.700000e-01    3.390000e+00
  N2dr   X1e  1 4.700000e-01    3.390000e+00
  N1dr   C6e  1 4.700000e-01    3.690000e+00
  N1dr   C5e  1 4.700000e-01    3.520000e+00
  N1dr   C4e  1 4.700000e-01    3.520000e+00
  N1dr   C3e  1 4.700000e-01    3.390000e+00
  N1dr   C2e  1 4.700000e-01    3.240000e+00
  N1dr   C1e  1 4.700000e-01    3.070000e+00
  N1dr   X4e  1 4.700000e-01    3.520000e+00
  N1dr   X3e  1 4.700000e-01    3.520000e+00
  N1dr   X2e  1 4.700000e-01    3.390000e+00
  N1dr   X1e  1 4.700000e-01    3.390000e+00
  P6dr  X1eq  1 4.700000e-01    3.240000e+00
  P6dr  X2eq  1 4.700000e-01    3.390000e+00
  P6dr  X3eq  1 4.700000e-01    3.520000e+00
  P6dr  X4eq  1 4.700000e-01    3.520000e+00
  P6dr  C1eq  1 4.700000e-01    2.620000e+00
  P6dr  C2eq  1 4.700000e-01    2.960000e+00
  P6dr  C3eq  1 4.700000e-01    2.960000e+00
  P6dr  C4eq  1 4.700000e-01    3.070000e+00
  P6dr  C5eq  1 4.700000e-01    3.240000e+00
  P6dr  C6eq  1 4.700000e-01    3.390000e+00
  P5dr  X1eq  1 4.700000e-01    3.240000e+00
  P5dr  X2eq  1 4.700000e-01    3.520000e+00
  P5dr  X3eq  1 4.700000e-01    3.520000e+00
  P5dr  X4eq  1 4.700000e-01    3.690000e+00
  P5dr  C1eq  1 4.700000e-01    2.960000e+00
  P5dr  C2eq  1 4.700000e-01    3.070000e+00
  P5dr  C3eq  1 4.700000e-01    3.070000e+00
  P5dr  C4eq  1 4.700000e-01    3.240000e+00
  P5dr  C5eq  1 4.700000e-01    3.390000e+00
  P5dr  C6eq  1 4.700000e-01    3.390000e+00
  P4dr  X1eq  1 4.700000e-01    3.390000e+00
  P4dr  X2eq  1 4.700000e-01    3.520000e+00
  P4dr  X3eq  1 4.700000e-01    3.520000e+00
  P4dr  X4eq  1 4.700000e-01    3.690000e+00
  P4dr  C1eq  1 4.700000e-01    2.960000e+00
  P4dr  C2eq  1 4.700000e-01    3.070000e+00
  P4dr  C3eq  1 4.700000e-01    3.070000e+00
  P4dr  C4eq  1 4.700000e-01    3.240000e+00
  P4dr  C5eq  1 4.700000e-01    3.390000e+00
  P4dr  C6eq  1 4.700000e-01    3.520000e+00
  P3dr  X1eq  1 4.700000e-01    3.390000e+00
  P3dr  X2eq  1 4.700000e-01    3.520000e+00
  P3dr  X3eq  1 4.700000e-01    3.690000e+00
  P3dr  X4eq  1 4.700000e-01    3.690000e+00
  P3dr  C1eq  1 4.700000e-01    2.960000e+00
  P3dr  C2eq  1 4.700000e-01    3.070000e+00
  P3dr  C3eq  1 4.700000e-01    3.070000e+00
  P3dr  C4eq  1 4.700000e-01    3.390000e+00
  P3dr  C5eq  1 4.700000e-01    3.520000e+00
  P3dr  C6eq  1 4.700000e-01    3.690000e+00
  P2dr  X1eq  1 4.700000e-01    3.390000e+00
  P2dr  X2eq  1 4.700000e-01    3.520000e+00
  P2dr  X3eq  1 4.700000e-01    3.690000e+00
  P2dr  X4eq  1 4.700000e-01    3.690000e+00
  P2dr  C1eq  1 4.700000e-01    3.070000e+00
  P2dr  C2eq  1 4.700000e-01    3.240000e+00
  P2dr  C3eq  1 4.700000e-01    3.240000e+00
  P2dr  C4eq  1 4.700000e-01    3.390000e+00
  P2dr  C5eq  1 4.700000e-01    3.520000e+00
  P2dr  C6eq  1 4.700000e-01    3.690000e+00
  P1dr  X1eq  1 4.700000e-01    3.390000e+00
  P1dr  X2eq  1 4.700000e-01    3.520000e+00
  P1dr  X3eq  1 4.700000e-01    3.690000e+00
  P1dr  X4eq  1 4.700000e-01    3.690000e+00
  P1dr  C1eq  1 4.700000e-01    3.070000e+00
  P1dr  C2eq  1 4.700000e-01    3.240000e+00
  P1dr  C3eq  1 4.700000e-01    3.240000e+00
  P1dr  C4eq  1 4.700000e-01    3.390000e+00
  P1dr  C5eq  1 4.700000e-01    3.520000e+00
  P1dr  C6eq  1 4.700000e-01    3.690000e+00
  N6dr  X1eq  1 4.700000e-01    3.390000e+00
  N6dr  X2eq  1 4.700000e-01    3.520000e+00
  N6dr  X3eq  1 4.700000e-01    3.690000e+00
  N6dr  X4eq  1 4.700000e-01    3.880000e+00
  N6dr  C1eq  1 4.700000e-01    3.240000e+00
  N6dr  C2eq  1 4.700000e-01    3.390000e+00
  N6dr  C3eq  1 4.700000e-01    3.390000e+00
  N6dr  C4eq  1 4.700000e-01    3.520000e+00
  N6dr  C5eq  1 4.700000e-01    3.690000e+00
  N6dr  C6eq  1 4.700000e-01    3.880000e+00
  N5dr  X1eq  1 4.700000e-01    3.520000e+00
  N5dr  X2eq  1 4.700000e-01    3.690000e+00
  N5dr  X3eq  1 4.700000e-01    3.880000e+00
  N5dr  X4eq  1 4.700000e-01    4.060000e+00
  N5dr  C1eq  1 4.700000e-01    3.240000e+00
  N5dr  C2eq  1 4.700000e-01    3.390000e+00
  N5dr  C3eq  1 4.700000e-01    3.520000e+00
  N5dr  C4eq  1 4.700000e-01    3.520000e+00
  N5dr  C5eq  1 4.700000e-01    3.690000e+00
  N5dr  C6eq  1 4.700000e-01    3.880000e+00
  N4dr  X1eq  1 4.700000e-01    3.520000e+00
  N4dr  X2eq  1 4.700000e-01    3.690000e+00
  N4dr  X3eq  1 4.700000e-01    4.060000e+00
  N4dr  X4eq  1 4.700000e-01    4.250000e+00
  N4dr  C1eq  1 4.700000e-01    3.240000e+00
  N4dr  C2eq  1 4.700000e-01    3.390000e+00
  N4dr  C3eq  1 4.700000e-01    3.520000e+00
  N4dr  C4eq  1 4.700000e-01    3.690000e+00
  N4dr  C5eq  1 4.700000e-01    3.690000e+00
  N4dr  C6eq  1 4.700000e-01    3.880000e+00
  N3dr  X1eq  1 4.700000e-01    3.690000e+00
  N3dr  X2eq  1 4.700000e-01    3.690000e+00
  N3dr  X3eq  1 4.700000e-01    3.880000e+00
  N3dr  X4eq  1 4.700000e-01    4.060000e+00
  N3dr  C1eq  1 4.700000e-01    3.390000e+00
  N3dr  C2eq  1 4.700000e-01    3.520000e+00
  N3dr  C3eq  1 4.700000e-01    3.520000e+00
  N3dr  C4eq  1 4.700000e-01    3.690000e+00
  N3dr  C5eq  1 4.700000e-01    3.690000e+00
  N3dr  C6eq  1 4.700000e-01    3.880000e+00
  N2dr  X1eq  1 4.700000e-01    3.690000e+00
  N2dr  X2eq  1 4.700000e-01    3.690000e+00
  N2dr  X3eq  1 4.700000e-01    3.880000e+00
  N2dr  X4eq  1 4.700000e-01    4.060000e+00
  N2dr  C1eq  1 4.700000e-01    3.390000e+00
  N2dr  C2eq  1 4.700000e-01    3.520000e+00
  N2dr  C3eq  1 4.700000e-01    3.690000e+00
  N2dr  C4eq  1 4.700000e-01    3.690000e+00
  N2dr  C5eq  1 4.700000e-01    3.690000e+00
  N2dr  C6eq  1 4.700000e-01    3.880000e+00
  N1dr  X1eq  1 4.700000e-01    3.690000e+00
  N1dr  X2eq  1 4.700000e-01    3.690000e+00
  N1dr  X3eq  1 4.700000e-01    3.880000e+00
  N1dr  X4eq  1 4.700000e-01    3.880000e+00
  N1dr  C1eq  1 4.700000e-01    3.390000e+00
  N1dr  C2eq  1 4.700000e-01    3.520000e+00
  N1dr  C3eq  1 4.700000e-01    3.690000e+00
  N1dr  C4eq  1 4.700000e-01    3.880000e+00
  N1dr  C5eq  1 4.700000e-01    3.880000e+00
  N1dr  C6eq  1 4.700000e-01    4.060000e+00
  P6dr  C6eh  1 4.700000e-01    3.070000e+00
  P6dr  C5eh  1 4.700000e-01    2.960000e+00
  P6dr  C4eh  1 4.700000e-01    2.790000e+00
  P6dr  C3eh  1 4.700000e-01    2.620000e+00
  P6dr  C2eh  1 4.700000e-01    2.620000e+00
  P6dr  C1eh  1 4.850000e-01    2.240000e+00
  P6dr  X4eh  1 4.700000e-01    3.240000e+00
  P6dr  X3eh  1 4.700000e-01    3.240000e+00
  P6dr  X2eh  1 4.700000e-01    3.070000e+00
  P6dr  X1eh  1 4.700000e-01    2.960000e+00
  P5dr  C6eh  1 4.700000e-01    3.070000e+00
  P5dr  C5eh  1 4.700000e-01    3.070000e+00
  P5dr  C4eh  1 4.700000e-01    2.960000e+00
  P5dr  C3eh  1 4.700000e-01    2.790000e+00
  P5dr  C2eh  1 4.700000e-01    2.790000e+00
  P5dr  C1eh  1 4.700000e-01    2.620000e+00
  P5dr  X4eh  1 4.700000e-01    3.390000e+00
  P5dr  X3eh  1 4.700000e-01    3.240000e+00
  P5dr  X2eh  1 4.700000e-01    3.240000e+00
  P5dr  X1eh  1 4.700000e-01    2.960000e+00
  P4dr  C6eh  1 4.700000e-01    3.240000e+00
  P4dr  C5eh  1 4.700000e-01    3.070000e+00
  P4dr  C4eh  1 4.700000e-01    2.960000e+00
  P4dr  C3eh  1 4.700000e-01    2.790000e+00
  P4dr  C2eh  1 4.700000e-01    2.790000e+00
  P4dr  C1eh  1 4.700000e-01    2.620000e+00
  P4dr  X4eh  1 4.700000e-01    3.390000e+00
  P4dr  X3eh  1 4.700000e-01    3.240000e+00
  P4dr  X2eh  1 4.700000e-01    3.240000e+00
  P4dr  X1eh  1 4.700000e-01    3.070000e+00
  P3dr  C6eh  1 4.700000e-01    3.390000e+00
  P3dr  C5eh  1 4.700000e-01    3.240000e+00
  P3dr  C4eh  1 4.700000e-01    3.070000e+00
  P3dr  C3eh  1 4.700000e-01    2.790000e+00
  P3dr  C2eh  1 4.700000e-01    2.790000e+00
  P3dr  C1eh  1 4.700000e-01    2.620000e+00
  P3dr  X4eh  1 4.700000e-01    3.390000e+00
  P3dr  X3eh  1 4.700000e-01    3.390000e+00
  P3dr  X2eh  1 4.700000e-01    3.240000e+00
  P3dr  X1eh  1 4.700000e-01    3.070000e+00
  P2dr  C6eh  1 4.700000e-01    3.390000e+00
  P2dr  C5eh  1 4.700000e-01    3.240000e+00
  P2dr  C4eh  1 4.700000e-01    3.070000e+00
  P2dr  C3eh  1 4.700000e-01    2.960000e+00
  P2dr  C2eh  1 4.700000e-01    2.960000e+00
  P2dr  C1eh  1 4.700000e-01    2.790000e+00
  P2dr  X4eh  1 4.700000e-01    3.390000e+00
  P2dr  X3eh  1 4.700000e-01    3.390000e+00
  P2dr  X2eh  1 4.700000e-01    3.240000e+00
  P2dr  X1eh  1 4.700000e-01    3.070000e+00
  P1dr  C6eh  1 4.700000e-01    3.390000e+00
  P1dr  C5eh  1 4.700000e-01    3.240000e+00
  P1dr  C4eh  1 4.700000e-01    3.070000e+00
  P1dr  C3eh  1 4.700000e-01    2.960000e+00
  P1dr  C2eh  1 4.700000e-01    2.960000e+00
  P1dr  C1eh  1 4.700000e-01    2.790000e+00
  P1dr  X4eh  1 4.700000e-01    3.390000e+00
  P1dr  X3eh  1 4.700000e-01    3.390000e+00
  P1dr  X2eh  1 4.700000e-01    3.240000e+00
  P1dr  X1eh  1 4.700000e-01    3.070000e+00
  N6dr  C6eh  1 4.700000e-01    3.520000e+00
  N6dr  C5eh  1 4.700000e-01    3.390000e+00
  N6dr  C4eh  1 4.700000e-01    3.240000e+00
  N6dr  C3eh  1 4.700000e-01    3.070000e+00
  N6dr  C2eh  1 4.700000e-01    3.070000e+00
  N6dr  C1eh  1 4.700000e-01    2.960000e+00
  N6dr  X4eh  1 4.700000e-01    3.520000e+00
  N6dr  X3eh  1 4.700000e-01    3.390000e+00
  N6dr  X2eh  1 4.700000e-01    3.240000e+00
  N6dr  X1eh  1 4.700000e-01    3.070000e+00
  N5dr  C6eh  1 4.700000e-01    3.520000e+00
  N5dr  C5eh  1 4.700000e-01    3.390000e+00
  N5dr  C4eh  1 4.700000e-01    3.240000e+00
  N5dr  C3eh  1 4.700000e-01    3.240000e+00
  N5dr  C2eh  1 4.700000e-01    3.070000e+00
  N5dr  C1eh  1 4.700000e-01    2.960000e+00
  N5dr  X4eh  1 4.700000e-01    3.690000e+00
  N5dr  X3eh  1 4.700000e-01    3.520000e+00
  N5dr  X2eh  1 4.700000e-01    3.390000e+00
  N5dr  X1eh  1 4.700000e-01    3.240000e+00
  N4dr  C6eh  1 4.700000e-01    3.520000e+00
  N4dr  C5eh  1 4.700000e-01    3.390000e+00
  N4dr  C4eh  1 4.700000e-01    3.390000e+00
  N4dr  C3eh  1 4.700000e-01    3.240000e+00
  N4dr  C2eh  1 4.700000e-01    3.070000e+00
  N4dr  C1eh  1 4.700000e-01    2.960000e+00
  N4dr  X4eh  1 4.700000e-01    3.880000e+00
  N4dr  X3eh  1 4.700000e-01    3.690000e+00
  N4dr  X2eh  1 4.700000e-01    3.390000e+00
  N4dr  X1eh  1 4.700000e-01    3.240000e+00
  N3dr  C6eh  1 4.700000e-01    3.520000e+00
  N3dr  C5eh  1 4.700000e-01    3.390000e+00
  N3dr  C4eh  1 4.700000e-01    3.390000e+00
  N3dr  C3eh  1 4.700000e-01    3.240000e+00
  N3dr  C2eh  1 4.700000e-01    3.240000e+00
  N3dr  C1eh  1 4.700000e-01    3.070000e+00
  N3dr  X4eh  1 4.700000e-01    3.690000e+00
  N3dr  X3eh  1 4.700000e-01    3.520000e+00
  N3dr  X2eh  1 4.700000e-01    3.390000e+00
  N3dr  X1eh  1 4.700000e-01    3.390000e+00
  N2dr  C6eh  1 4.700000e-01    3.520000e+00
  N2dr  C5eh  1 4.700000e-01    3.390000e+00
  N2dr  C4eh  1 4.700000e-01    3.390000e+00
  N2dr  C3eh  1 4.700000e-01    3.390000e+00
  N2dr  C2eh  1 4.700000e-01    3.240000e+00
  N2dr  C1eh  1 4.700000e-01    3.070000e+00
  N2dr  X4eh  1 4.700000e-01    3.690000e+00
  N2dr  X3eh  1 4.700000e-01    3.520000e+00
  N2dr  X2eh  1 4.700000e-01    3.390000e+00
  N2dr  X1eh  1 4.700000e-01    3.390000e+00
  N1dr  C6eh  1 4.700000e-01    3.690000e+00
  N1dr  C5eh  1 4.700000e-01    3.520000e+00
  N1dr  C4eh  1 4.700000e-01    3.520000e+00
  N1dr  C3eh  1 4.700000e-01    3.390000e+00
  N1dr  C2eh  1 4.700000e-01    3.240000e+00
  N1dr  C1eh  1 4.700000e-01    3.070000e+00
  N1dr  X4eh  1 4.700000e-01    3.520000e+00
  N1dr  X3eh  1 4.700000e-01    3.520000e+00
  N1dr  X2eh  1 4.700000e-01    3.390000e+00
  N1dr  X1eh  1 4.700000e-01    3.390000e+00
  P6dr  C6er  1 4.700000e-01    3.070000e+00
  P6dr  C5er  1 4.700000e-01    2.960000e+00
  P6dr  C4er  1 4.700000e-01    2.790000e+00
  P6dr  C3er  1 4.700000e-01    2.620000e+00
  P6dr  C2er  1 4.700000e-01    2.620000e+00
  P6dr  C1er  1 4.850000e-01    2.240000e+00
  P6dr  X4er  1 4.700000e-01    3.240000e+00
  P6dr  X3er  1 4.700000e-01    3.240000e+00
  P6dr  X2er  1 4.700000e-01    3.070000e+00
  P6dr  X1er  1 4.700000e-01    2.960000e+00
  P5dr  C6er  1 4.700000e-01    3.070000e+00
  P5dr  C5er  1 4.700000e-01    3.070000e+00
  P5dr  C4er  1 4.700000e-01    2.960000e+00
  P5dr  C3er  1 4.700000e-01    2.790000e+00
  P5dr  C2er  1 4.700000e-01    2.790000e+00
  P5dr  C1er  1 4.700000e-01    2.620000e+00
  P5dr  X4er  1 4.700000e-01    3.390000e+00
  P5dr  X3er  1 4.700000e-01    3.240000e+00
  P5dr  X2er  1 4.700000e-01    3.240000e+00
  P5dr  X1er  1 4.700000e-01    2.960000e+00
  P4dr  C6er  1 4.700000e-01    3.240000e+00
  P4dr  C5er  1 4.700000e-01    3.070000e+00
  P4dr  C4er  1 4.700000e-01    2.960000e+00
  P4dr  C3er  1 4.700000e-01    2.790000e+00
  P4dr  C2er  1 4.700000e-01    2.790000e+00
  P4dr  C1er  1 4.700000e-01    2.620000e+00
  P4dr  X4er  1 4.700000e-01    3.390000e+00
  P4dr  X3er  1 4.700000e-01    3.240000e+00
  P4dr  X2er  1 4.700000e-01    3.240000e+00
  P4dr  X1er  1 4.700000e-01    3.070000e+00
  P3dr  C6er  1 4.700000e-01    3.390000e+00
  P3dr  C5er  1 4.700000e-01    3.240000e+00
  P3dr  C4er  1 4.700000e-01    3.070000e+00
  P3dr  C3er  1 4.700000e-01    2.790000e+00
  P3dr  C2er  1 4.700000e-01    2.790000e+00
  P3dr  C1er  1 4.700000e-01    2.620000e+00
  P3dr  X4er  1 4.700000e-01    3.390000e+00
  P3dr  X3er  1 4.700000e-01    3.390000e+00
  P3dr  X2er  1 4.700000e-01    3.240000e+00
  P3dr  X1er  1 4.700000e-01    3.070000e+00
  P2dr  C6er  1 4.700000e-01    3.390000e+00
  P2dr  C5er  1 4.700000e-01    3.240000e+00
  P2dr  C4er  1 4.700000e-01    3.070000e+00
  P2dr  C3er  1 4.700000e-01    2.960000e+00
  P2dr  C2er  1 4.700000e-01    2.960000e+00
  P2dr  C1er  1 4.700000e-01    2.790000e+00
  P2dr  X4er  1 4.700000e-01    3.390000e+00
  P2dr  X3er  1 4.700000e-01    3.390000e+00
  P2dr  X2er  1 4.700000e-01    3.240000e+00
  P2dr  X1er  1 4.700000e-01    3.070000e+00
  P1dr  C6er  1 4.700000e-01    3.390000e+00
  P1dr  C5er  1 4.700000e-01    3.240000e+00
  P1dr  C4er  1 4.700000e-01    3.070000e+00
  P1dr  C3er  1 4.700000e-01    2.960000e+00
  P1dr  C2er  1 4.700000e-01    2.960000e+00
  P1dr  C1er  1 4.700000e-01    2.790000e+00
  P1dr  X4er  1 4.700000e-01    3.390000e+00
  P1dr  X3er  1 4.700000e-01    3.390000e+00
  P1dr  X2er  1 4.700000e-01    3.240000e+00
  P1dr  X1er  1 4.700000e-01    3.070000e+00
  N6dr  C6er  1 4.700000e-01    3.520000e+00
  N6dr  C5er  1 4.700000e-01    3.390000e+00
  N6dr  C4er  1 4.700000e-01    3.240000e+00
  N6dr  C3er  1 4.700000e-01    3.070000e+00
  N6dr  C2er  1 4.700000e-01    3.070000e+00
  N6dr  C1er  1 4.700000e-01    2.960000e+00
  N6dr  X4er  1 4.700000e-01    3.520000e+00
  N6dr  X3er  1 4.700000e-01    3.390000e+00
  N6dr  X2er  1 4.700000e-01    3.240000e+00
  N6dr  X1er  1 4.700000e-01    3.070000e+00
  N5dr  C6er  1 4.700000e-01    3.520000e+00
  N5dr  C5er  1 4.700000e-01    3.390000e+00
  N5dr  C4er  1 4.700000e-01    3.240000e+00
  N5dr  C3er  1 4.700000e-01    3.240000e+00
  N5dr  C2er  1 4.700000e-01    3.070000e+00
  N5dr  C1er  1 4.700000e-01    2.960000e+00
  N5dr  X4er  1 4.700000e-01    3.690000e+00
  N5dr  X3er  1 4.700000e-01    3.520000e+00
  N5dr  X2er  1 4.700000e-01    3.390000e+00
  N5dr  X1er  1 4.700000e-01    3.240000e+00
  N4dr  C6er  1 4.700000e-01    3.520000e+00
  N4dr  C5er  1 4.700000e-01    3.390000e+00
  N4dr  C4er  1 4.700000e-01    3.390000e+00
  N4dr  C3er  1 4.700000e-01    3.240000e+00
  N4dr  C2er  1 4.700000e-01    3.070000e+00
  N4dr  C1er  1 4.700000e-01    2.960000e+00
  N4dr  X4er  1 4.700000e-01    3.880000e+00
  N4dr  X3er  1 4.700000e-01    3.690000e+00
  N4dr  X2er  1 4.700000e-01    3.390000e+00
  N4dr  X1er  1 4.700000e-01    3.240000e+00
  N3dr  C6er  1 4.700000e-01    3.520000e+00
  N3dr  C5er  1 4.700000e-01    3.390000e+00
  N3dr  C4er  1 4.700000e-01    3.390000e+00
  N3dr  C3er  1 4.700000e-01    3.240000e+00
  N3dr  C2er  1 4.700000e-01    3.240000e+00
  N3dr  C1er  1 4.700000e-01    3.070000e+00
  N3dr  X4er  1 4.700000e-01    3.690000e+00
  N3dr  X3er  1 4.700000e-01    3.520000e+00
  N3dr  X2er  1 4.700000e-01    3.390000e+00
  N3dr  X1er  1 4.700000e-01    3.390000e+00
  N2dr  C6er  1 4.700000e-01    3.520000e+00
  N2dr  C5er  1 4.700000e-01    3.390000e+00
  N2dr  C4er  1 4.700000e-01    3.390000e+00
  N2dr  C3er  1 4.700000e-01    3.390000e+00
  N2dr  C2er  1 4.700000e-01    3.240000e+00
  N2dr  C1er  1 4.700000e-01    3.070000e+00
  N2dr  X4er  1 4.700000e-01    3.690000e+00
  N2dr  X3er  1 4.700000e-01    3.520000e+00
  N2dr  X2er  1 4.700000e-01    3.390000e+00
  N2dr  X1er  1 4.700000e-01    3.390000e+00
  N1dr  C6er  1 4.700000e-01    3.690000e+00
  N1dr  C5er  1 4.700000e-01    3.520000e+00
  N1dr  C4er  1 4.700000e-01    3.520000e+00
  N1dr  C3er  1 4.700000e-01    3.390000e+00
  N1dr  C2er  1 4.700000e-01    3.240000e+00
  N1dr  C1er  1 4.700000e-01    3.070000e+00
  N1dr  X4er  1 4.700000e-01    3.520000e+00
  N1dr  X3er  1 4.700000e-01    3.520000e+00
  N1dr  X2er  1 4.700000e-01    3.390000e+00
  N1dr  X1er  1 4.700000e-01    3.390000e+00
   P6a   C6v  1 4.700000e-01    3.070000e+00
   P6a   C5v  1 4.700000e-01    2.960000e+00
   P6a   C4v  1 4.700000e-01    2.790000e+00
   P6a   C3v  1 4.700000e-01    2.620000e+00
   P6a   C2v  1 4.700000e-01    2.620000e+00
   P6a   C1v  1 4.850000e-01    2.240000e+00
   P6a   X4v  1 4.700000e-01    3.240000e+00
   P6a   X3v  1 4.700000e-01    3.240000e+00
   P6a   X2v  1 4.700000e-01    3.070000e+00
   P6a   X1v  1 4.700000e-01    2.960000e+00
   P5a   C6v  1 4.700000e-01    3.070000e+00
   P5a   C5v  1 4.700000e-01    3.070000e+00
   P5a   C4v  1 4.700000e-01    2.960000e+00
   P5a   C3v  1 4.700000e-01    2.790000e+00
   P5a   C2v  1 4.700000e-01    2.790000e+00
   P5a   C1v  1 4.700000e-01    2.620000e+00
   P5a   X4v  1 4.700000e-01    3.390000e+00
   P5a   X3v  1 4.700000e-01    3.240000e+00
   P5a   X2v  1 4.700000e-01    3.240000e+00
   P5a   X1v  1 4.700000e-01    2.960000e+00
   P4a   C6v  1 4.700000e-01    3.240000e+00
   P4a   C5v  1 4.700000e-01    3.070000e+00
   P4a   C4v  1 4.700000e-01    2.960000e+00
   P4a   C3v  1 4.700000e-01    2.790000e+00
   P4a   C2v  1 4.700000e-01    2.790000e+00
   P4a   C1v  1 4.700000e-01    2.620000e+00
   P4a   X4v  1 4.700000e-01    3.390000e+00
   P4a   X3v  1 4.700000e-01    3.240000e+00
   P4a   X2v  1 4.700000e-01    3.240000e+00
   P4a   X1v  1 4.700000e-01    3.070000e+00
   P3a   C6v  1 4.700000e-01    3.390000e+00
   P3a   C5v  1 4.700000e-01    3.240000e+00
   P3a   C4v  1 4.700000e-01    3.070000e+00
   P3a   C3v  1 4.700000e-01    2.790000e+00
   P3a   C2v  1 4.700000e-01    2.790000e+00
   P3a   C1v  1 4.700000e-01    2.620000e+00
   P3a   X4v  1 4.700000e-01    3.390000e+00
   P3a   X3v  1 4.700000e-01    3.390000e+00
   P3a   X2v  1 4.700000e-01    3.240000e+00
   P3a   X1v  1 4.700000e-01    3.070000e+00
   P2a   C6v  1 4.700000e-01    3.390000e+00
   P2a   C5v  1 4.700000e-01    3.240000e+00
   P2a   C4v  1 4.700000e-01    3.070000e+00
   P2a   C3v  1 4.700000e-01    2.960000e+00
   P2a   C2v  1 4.700000e-01    2.960000e+00
   P2a   C1v  1 4.700000e-01    2.790000e+00
   P2a   X4v  1 4.700000e-01    3.390000e+00
   P2a   X3v  1 4.700000e-01    3.390000e+00
   P2a   X2v  1 4.700000e-01    3.240000e+00
   P2a   X1v  1 4.700000e-01    3.070000e+00
   P1a   C6v  1 4.700000e-01    3.390000e+00
   P1a   C5v  1 4.700000e-01    3.240000e+00
   P1a   C4v  1 4.700000e-01    3.070000e+00
   P1a   C3v  1 4.700000e-01    2.960000e+00
   P1a   C2v  1 4.700000e-01    2.960000e+00
   P1a   C1v  1 4.700000e-01    2.790000e+00
   P1a   X4v  1 4.700000e-01    3.390000e+00
   P1a   X3v  1 4.700000e-01    3.390000e+00
   P1a   X2v  1 4.700000e-01    3.240000e+00
   P1a   X1v  1 4.700000e-01    3.070000e+00
   N6a   C6v  1 4.700000e-01    3.520000e+00
   N6a   C5v  1 4.700000e-01    3.390000e+00
   N6a   C4v  1 4.700000e-01    3.240000e+00
   N6a   C3v  1 4.700000e-01    3.070000e+00
   N6a   C2v  1 4.700000e-01    3.070000e+00
   N6a   C1v  1 4.700000e-01    2.960000e+00
   N6a   X4v  1 4.700000e-01    3.520000e+00
   N6a   X3v  1 4.700000e-01    3.390000e+00
   N6a   X2v  1 4.700000e-01    3.240000e+00
   N6a   X1v  1 4.700000e-01    3.070000e+00
   N5a   C6v  1 4.700000e-01    3.520000e+00
   N5a   C5v  1 4.700000e-01    3.390000e+00
   N5a   C4v  1 4.700000e-01    3.240000e+00
   N5a   C3v  1 4.700000e-01    3.240000e+00
   N5a   C2v  1 4.700000e-01    3.070000e+00
   N5a   C1v  1 4.700000e-01    2.960000e+00
   N5a   X4v  1 4.700000e-01    3.690000e+00
   N5a   X3v  1 4.700000e-01    3.520000e+00
   N5a   X2v  1 4.700000e-01    3.390000e+00
   N5a   X1v  1 4.700000e-01    3.240000e+00
   N4a   C6v  1 4.700000e-01    3.520000e+00
   N4a   C5v  1 4.700000e-01    3.390000e+00
   N4a   C4v  1 4.700000e-01    3.390000e+00
   N4a   C3v  1 4.700000e-01    3.240000e+00
   N4a   C2v  1 4.700000e-01    3.070000e+00
   N4a   C1v  1 4.700000e-01    2.960000e+00
   N4a   X4v  1 4.700000e-01    3.880000e+00
   N4a   X3v  1 4.700000e-01    3.690000e+00
   N4a   X2v  1 4.700000e-01    3.390000e+00
   N4a   X1v  1 4.700000e-01    3.240000e+00
   N3a   C6v  1 4.700000e-01    3.520000e+00
   N3a   C5v  1 4.700000e-01    3.390000e+00
   N3a   C4v  1 4.700000e-01    3.390000e+00
   N3a   C3v  1 4.700000e-01    3.240000e+00
   N3a   C2v  1 4.700000e-01    3.240000e+00
   N3a   C1v  1 4.700000e-01    3.070000e+00
   N3a   X4v  1 4.700000e-01    3.690000e+00
   N3a   X3v  1 4.700000e-01    3.520000e+00
   N3a   X2v  1 4.700000e-01    3.390000e+00
   N3a   X1v  1 4.700000e-01    3.390000e+00
   N2a   C6v  1 4.700000e-01    3.520000e+00
   N2a   C5v  1 4.700000e-01    3.390000e+00
   N2a   C4v  1 4.700000e-01    3.390000e+00
   N2a   C3v  1 4.700000e-01    3.390000e+00
   N2a   C2v  1 4.700000e-01    3.240000e+00
   N2a   C1v  1 4.700000e-01    3.070000e+00
   N2a   X4v  1 4.700000e-01    3.690000e+00
   N2a   X3v  1 4.700000e-01    3.520000e+00
   N2a   X2v  1 4.700000e-01    3.390000e+00
   N2a   X1v  1 4.700000e-01    3.390000e+00
   N1a   C6v  1 4.700000e-01    3.690000e+00
   N1a   C5v  1 4.700000e-01    3.520000e+00
   N1a   C4v  1 4.700000e-01    3.520000e+00
   N1a   C3v  1 4.700000e-01    3.390000e+00
   N1a   C2v  1 4.700000e-01    3.240000e+00
   N1a   C1v  1 4.700000e-01    3.070000e+00
   N1a   X4v  1 4.700000e-01    3.520000e+00
   N1a   X3v  1 4.700000e-01    3.520000e+00
   N1a   X2v  1 4.700000e-01    3.390000e+00
   N1a   X1v  1 4.700000e-01    3.390000e+00
   P6a  X1vq  1 4.700000e-01    3.240000e+00
   P5a  X1vq  1 4.700000e-01    3.240000e+00
   P4a  X1vq  1 4.700000e-01    3.390000e+00
   P3a  X1vq  1 4.700000e-01    3.390000e+00
   P2a  X1vq  1 4.700000e-01    3.390000e+00
   P1a  X1vq  1 4.700000e-01    3.390000e+00
   N6a  X1vq  1 4.700000e-01    3.390000e+00
   N5a  X1vq  1 4.700000e-01    3.520000e+00
   N4a  X1vq  1 4.700000e-01    3.520000e+00
   N3a  X1vq  1 4.700000e-01    3.690000e+00
   N2a  X1vq  1 4.700000e-01    3.690000e+00
   N1a  X1vq  1 4.700000e-01    3.690000e+00
   P6a  X2vq  1 4.700000e-01    3.390000e+00
   P5a  X2vq  1 4.700000e-01    3.520000e+00
   P4a  X2vq  1 4.700000e-01    3.520000e+00
   P3a  X2vq  1 4.700000e-01    3.520000e+00
   P2a  X2vq  1 4.700000e-01    3.520000e+00
   P1a  X2vq  1 4.700000e-01    3.520000e+00
   N6a  X2vq  1 4.700000e-01    3.520000e+00
   N5a  X2vq  1 4.700000e-01    3.690000e+00
   N4a  X2vq  1 4.700000e-01    3.690000e+00
   N3a  X2vq  1 4.700000e-01    3.690000e+00
   N2a  X2vq  1 4.700000e-01    3.690000e+00
   N1a  X2vq  1 4.700000e-01    3.690000e+00
   P6a  X3vq  1 4.700000e-01    3.520000e+00
   P5a  X3vq  1 4.700000e-01    3.520000e+00
   P4a  X3vq  1 4.700000e-01    3.520000e+00
   P3a  X3vq  1 4.700000e-01    3.690000e+00
   P2a  X3vq  1 4.700000e-01    3.690000e+00
   P1a  X3vq  1 4.700000e-01    3.690000e+00
   N6a  X3vq  1 4.700000e-01    3.690000e+00
   N5a  X3vq  1 4.700000e-01    3.880000e+00
   N4a  X3vq  1 4.700000e-01    4.060000e+00
   N3a  X3vq  1 4.700000e-01    3.880000e+00
   N2a  X3vq  1 4.700000e-01    3.880000e+00
   N1a  X3vq  1 4.700000e-01    3.880000e+00
   P6a  X4vq  1 4.700000e-01    3.520000e+00
   P5a  X4vq  1 4.700000e-01    3.690000e+00
   P4a  X4vq  1 4.700000e-01    3.690000e+00
   P3a  X4vq  1 4.700000e-01    3.690000e+00
   P2a  X4vq  1 4.700000e-01    3.690000e+00
   P1a  X4vq  1 4.700000e-01    3.690000e+00
   N6a  X4vq  1 4.700000e-01    3.880000e+00
   N5a  X4vq  1 4.700000e-01    4.060000e+00
   N4a  X4vq  1 4.700000e-01    4.250000e+00
   N3a  X4vq  1 4.700000e-01    4.060000e+00
   N2a  X4vq  1 4.700000e-01    4.060000e+00
   N1a  X4vq  1 4.700000e-01    3.880000e+00
   P6a  C1vq  1 4.700000e-01    2.620000e+00
   P5a  C1vq  1 4.700000e-01    2.960000e+00
   P4a  C1vq  1 4.700000e-01    2.960000e+00
   P3a  C1vq  1 4.700000e-01    2.960000e+00
   P2a  C1vq  1 4.700000e-01    3.070000e+00
   P1a  C1vq  1 4.700000e-01    3.070000e+00
   N6a  C1vq  1 4.700000e-01    3.240000e+00
   N5a  C1vq  1 4.700000e-01    3.240000e+00
   N4a  C1vq  1 4.700000e-01    3.240000e+00
   N3a  C1vq  1 4.700000e-01    3.390000e+00
   N2a  C1vq  1 4.700000e-01    3.390000e+00
   N1a  C1vq  1 4.700000e-01    3.390000e+00
   P6a  C2vq  1 4.700000e-01    2.960000e+00
   P5a  C2vq  1 4.700000e-01    3.070000e+00
   P4a  C2vq  1 4.700000e-01    3.070000e+00
   P3a  C2vq  1 4.700000e-01    3.070000e+00
   P2a  C2vq  1 4.700000e-01    3.240000e+00
   P1a  C2vq  1 4.700000e-01    3.240000e+00
   N6a  C2vq  1 4.700000e-01    3.390000e+00
   N5a  C2vq  1 4.700000e-01    3.390000e+00
   N4a  C2vq  1 4.700000e-01    3.390000e+00
   N3a  C2vq  1 4.700000e-01    3.520000e+00
   N2a  C2vq  1 4.700000e-01    3.520000e+00
   N1a  C2vq  1 4.700000e-01    3.520000e+00
   P6a  C3vq  1 4.700000e-01    2.960000e+00
   P5a  C3vq  1 4.700000e-01    3.070000e+00
   P4a  C3vq  1 4.700000e-01    3.070000e+00
   P3a  C3vq  1 4.700000e-01    3.070000e+00
   P2a  C3vq  1 4.700000e-01    3.240000e+00
   P1a  C3vq  1 4.700000e-01    3.240000e+00
   N6a  C3vq  1 4.700000e-01    3.390000e+00
   N5a  C3vq  1 4.700000e-01    3.520000e+00
   N4a  C3vq  1 4.700000e-01    3.520000e+00
   N3a  C3vq  1 4.700000e-01    3.520000e+00
   N2a  C3vq  1 4.700000e-01    3.690000e+00
   N1a  C3vq  1 4.700000e-01    3.690000e+00
   P6a  C4vq  1 4.700000e-01    3.070000e+00
   P5a  C4vq  1 4.700000e-01    3.240000e+00
   P4a  C4vq  1 4.700000e-01    3.240000e+00
   P3a  C4vq  1 4.700000e-01    3.390000e+00
   P2a  C4vq  1 4.700000e-01    3.390000e+00
   P1a  C4vq  1 4.700000e-01    3.390000e+00
   N6a  C4vq  1 4.700000e-01    3.520000e+00
   N5a  C4vq  1 4.700000e-01    3.520000e+00
   N4a  C4vq  1 4.700000e-01    3.690000e+00
   N3a  C4vq  1 4.700000e-01    3.690000e+00
   N2a  C4vq  1 4.700000e-01    3.690000e+00
   N1a  C4vq  1 4.700000e-01    3.880000e+00
   P6a  C5vq  1 4.700000e-01    3.240000e+00
   P5a  C5vq  1 4.700000e-01    3.390000e+00
   P4a  C5vq  1 4.700000e-01    3.390000e+00
   P3a  C5vq  1 4.700000e-01    3.520000e+00
   P2a  C5vq  1 4.700000e-01    3.520000e+00
   P1a  C5vq  1 4.700000e-01    3.520000e+00
   N6a  C5vq  1 4.700000e-01    3.690000e+00
   N5a  C5vq  1 4.700000e-01    3.690000e+00
   N4a  C5vq  1 4.700000e-01    3.690000e+00
   N3a  C5vq  1 4.700000e-01    3.690000e+00
   N2a  C5vq  1 4.700000e-01    3.690000e+00
   N1a  C5vq  1 4.700000e-01    3.880000e+00
   P6a  C6vq  1 4.700000e-01    3.390000e+00
   P5a  C6vq  1 4.700000e-01    3.390000e+00
   P4a  C6vq  1 4.700000e-01    3.520000e+00
   P3a  C6vq  1 4.700000e-01    3.690000e+00
   P2a  C6vq  1 4.700000e-01    3.690000e+00
   P1a  C6vq  1 4.700000e-01    3.690000e+00
   N6a  C6vq  1 4.700000e-01    3.880000e+00
   N5a  C6vq  1 4.700000e-01    3.880000e+00
   N4a  C6vq  1 4.700000e-01    3.880000e+00
   N3a  C6vq  1 4.700000e-01    3.880000e+00
   N2a  C6vq  1 4.700000e-01    3.880000e+00
   N1a  C6vq  1 4.700000e-01    4.060000e+00
   P6a  X1vh  1 4.700000e-01    2.960000e+00
   P5a  X1vh  1 4.700000e-01    2.960000e+00
   P4a  X1vh  1 4.700000e-01    3.070000e+00
   P3a  X1vh  1 4.700000e-01    3.070000e+00
   P2a  X1vh  1 4.700000e-01    3.070000e+00
   P1a  X1vh  1 4.700000e-01    3.070000e+00
   N6a  X1vh  1 4.700000e-01    3.070000e+00
   N5a  X1vh  1 4.700000e-01    3.240000e+00
   N4a  X1vh  1 4.700000e-01    3.240000e+00
   N3a  X1vh  1 4.700000e-01    3.390000e+00
   N2a  X1vh  1 4.700000e-01    3.390000e+00
   N1a  X1vh  1 4.700000e-01    3.390000e+00
   P6a  X2vh  1 4.700000e-01    3.070000e+00
   P5a  X2vh  1 4.700000e-01    3.240000e+00
   P4a  X2vh  1 4.700000e-01    3.240000e+00
   P3a  X2vh  1 4.700000e-01    3.240000e+00
   P2a  X2vh  1 4.700000e-01    3.240000e+00
   P1a  X2vh  1 4.700000e-01    3.240000e+00
   N6a  X2vh  1 4.700000e-01    3.240000e+00
   N5a  X2vh  1 4.700000e-01    3.390000e+00
   N4a  X2vh  1 4.700000e-01    3.390000e+00
   N3a  X2vh  1 4.700000e-01    3.390000e+00
   N2a  X2vh  1 4.700000e-01    3.390000e+00
   N1a  X2vh  1 4.700000e-01    3.390000e+00
   P6a  X3vh  1 4.700000e-01    3.240000e+00
   P5a  X3vh  1 4.700000e-01    3.240000e+00
   P4a  X3vh  1 4.700000e-01    3.240000e+00
   P3a  X3vh  1 4.700000e-01    3.390000e+00
   P2a  X3vh  1 4.700000e-01    3.390000e+00
   P1a  X3vh  1 4.700000e-01    3.390000e+00
   N6a  X3vh  1 4.700000e-01    3.390000e+00
   N5a  X3vh  1 4.700000e-01    3.520000e+00
   N4a  X3vh  1 4.700000e-01    3.690000e+00
   N3a  X3vh  1 4.700000e-01    3.520000e+00
   N2a  X3vh  1 4.700000e-01    3.520000e+00
   N1a  X3vh  1 4.700000e-01    3.520000e+00
   P6a  X4vh  1 4.700000e-01    3.240000e+00
   P5a  X4vh  1 4.700000e-01    3.390000e+00
   P4a  X4vh  1 4.700000e-01    3.390000e+00
   P3a  X4vh  1 4.700000e-01    3.390000e+00
   P2a  X4vh  1 4.700000e-01    3.390000e+00
   P1a  X4vh  1 4.700000e-01    3.390000e+00
   N6a  X4vh  1 4.700000e-01    3.520000e+00
   N5a  X4vh  1 4.700000e-01    3.690000e+00
   N4a  X4vh  1 4.700000e-01    3.880000e+00
   N3a  X4vh  1 4.700000e-01    3.690000e+00
   N2a  X4vh  1 4.700000e-01    3.690000e+00
   N1a  X4vh  1 4.700000e-01    3.520000e+00
   P6a  C1vh  1 4.850000e-01    2.240000e+00
   P5a  C1vh  1 4.700000e-01    2.620000e+00
   P4a  C1vh  1 4.700000e-01    2.620000e+00
   P3a  C1vh  1 4.700000e-01    2.620000e+00
   P2a  C1vh  1 4.700000e-01    2.790000e+00
   P1a  C1vh  1 4.700000e-01    2.790000e+00
   N6a  C1vh  1 4.700000e-01    2.960000e+00
   N5a  C1vh  1 4.700000e-01    2.960000e+00
   N4a  C1vh  1 4.700000e-01    2.960000e+00
   N3a  C1vh  1 4.700000e-01    3.070000e+00
   N2a  C1vh  1 4.700000e-01    3.070000e+00
   N1a  C1vh  1 4.700000e-01    3.070000e+00
   P6a  C2vh  1 4.700000e-01    2.620000e+00
   P5a  C2vh  1 4.700000e-01    2.790000e+00
   P4a  C2vh  1 4.700000e-01    2.790000e+00
   P3a  C2vh  1 4.700000e-01    2.790000e+00
   P2a  C2vh  1 4.700000e-01    2.960000e+00
   P1a  C2vh  1 4.700000e-01    2.960000e+00
   N6a  C2vh  1 4.700000e-01    3.070000e+00
   N5a  C2vh  1 4.700000e-01    3.070000e+00
   N4a  C2vh  1 4.700000e-01    3.070000e+00
   N3a  C2vh  1 4.700000e-01    3.240000e+00
   N2a  C2vh  1 4.700000e-01    3.240000e+00
   N1a  C2vh  1 4.700000e-01    3.240000e+00
   P6a  C3vh  1 4.700000e-01    2.620000e+00
   P5a  C3vh  1 4.700000e-01    2.790000e+00
   P4a  C3vh  1 4.700000e-01    2.790000e+00
   P3a  C3vh  1 4.700000e-01    2.790000e+00
   P2a  C3vh  1 4.700000e-01    2.960000e+00
   P1a  C3vh  1 4.700000e-01    2.960000e+00
   N6a  C3vh  1 4.700000e-01    3.070000e+00
   N5a  C3vh  1 4.700000e-01    3.240000e+00
   N4a  C3vh  1 4.700000e-01    3.240000e+00
   N3a  C3vh  1 4.700000e-01    3.240000e+00
   N2a  C3vh  1 4.700000e-01    3.390000e+00
   N1a  C3vh  1 4.700000e-01    3.390000e+00
   P6a  C4vh  1 4.700000e-01    2.790000e+00
   P5a  C4vh  1 4.700000e-01    2.960000e+00
   P4a  C4vh  1 4.700000e-01    2.960000e+00
   P3a  C4vh  1 4.700000e-01    3.070000e+00
   P2a  C4vh  1 4.700000e-01    3.070000e+00
   P1a  C4vh  1 4.700000e-01    3.070000e+00
   N6a  C4vh  1 4.700000e-01    3.240000e+00
   N5a  C4vh  1 4.700000e-01    3.240000e+00
   N4a  C4vh  1 4.700000e-01    3.390000e+00
   N3a  C4vh  1 4.700000e-01    3.390000e+00
   N2a  C4vh  1 4.700000e-01    3.390000e+00
   N1a  C4vh  1 4.700000e-01    3.520000e+00
   P6a  C5vh  1 4.700000e-01    2.960000e+00
   P5a  C5vh  1 4.700000e-01    3.070000e+00
   P4a  C5vh  1 4.700000e-01    3.070000e+00
   P3a  C5vh  1 4.700000e-01    3.240000e+00
   P2a  C5vh  1 4.700000e-01    3.240000e+00
   P1a  C5vh  1 4.700000e-01    3.240000e+00
   N6a  C5vh  1 4.700000e-01    3.390000e+00
   N5a  C5vh  1 4.700000e-01    3.390000e+00
   N4a  C5vh  1 4.700000e-01    3.390000e+00
   N3a  C5vh  1 4.700000e-01    3.390000e+00
   N2a  C5vh  1 4.700000e-01    3.390000e+00
   N1a  C5vh  1 4.700000e-01    3.520000e+00
   P6a  C6vh  1 4.700000e-01    3.070000e+00
   P5a  C6vh  1 4.700000e-01    3.070000e+00
   P4a  C6vh  1 4.700000e-01    3.240000e+00
   P3a  C6vh  1 4.700000e-01    3.390000e+00
   P2a  C6vh  1 4.700000e-01    3.390000e+00
   P1a  C6vh  1 4.700000e-01    3.390000e+00
   N6a  C6vh  1 4.700000e-01    3.520000e+00
   N5a  C6vh  1 4.700000e-01    3.520000e+00
   N4a  C6vh  1 4.700000e-01    3.520000e+00
   N3a  C6vh  1 4.700000e-01    3.520000e+00
   N2a  C6vh  1 4.700000e-01    3.520000e+00
   N1a  C6vh  1 4.700000e-01    3.690000e+00
   P6a  X1vr  1 4.700000e-01    2.960000e+00
   P5a  X1vr  1 4.700000e-01    2.960000e+00
   P4a  X1vr  1 4.700000e-01    3.070000e+00
   P3a  X1vr  1 4.700000e-01    3.070000e+00
   P2a  X1vr  1 4.700000e-01    3.070000e+00
   P1a  X1vr  1 4.700000e-01    3.070000e+00
   N6a  X1vr  1 4.700000e-01    3.070000e+00
   N5a  X1vr  1 4.700000e-01    3.240000e+00
   N4a  X1vr  1 4.700000e-01    3.240000e+00
   N3a  X1vr  1 4.700000e-01    3.390000e+00
   N2a  X1vr  1 4.700000e-01    3.390000e+00
   N1a  X1vr  1 4.700000e-01    3.390000e+00
   P6a  X2vr  1 4.700000e-01    3.070000e+00
   P5a  X2vr  1 4.700000e-01    3.240000e+00
   P4a  X2vr  1 4.700000e-01    3.240000e+00
   P3a  X2vr  1 4.700000e-01    3.240000e+00
   P2a  X2vr  1 4.700000e-01    3.240000e+00
   P1a  X2vr  1 4.700000e-01    3.240000e+00
   N6a  X2vr  1 4.700000e-01    3.240000e+00
   N5a  X2vr  1 4.700000e-01    3.390000e+00
   N4a  X2vr  1 4.700000e-01    3.390000e+00
   N3a  X2vr  1 4.700000e-01    3.390000e+00
   N2a  X2vr  1 4.700000e-01    3.390000e+00
   N1a  X2vr  1 4.700000e-01    3.390000e+00
   P6a  X3vr  1 4.700000e-01    3.240000e+00
   P5a  X3vr  1 4.700000e-01    3.240000e+00
   P4a  X3vr  1 4.700000e-01    3.240000e+00
   P3a  X3vr  1 4.700000e-01    3.390000e+00
   P2a  X3vr  1 4.700000e-01    3.390000e+00
   P1a  X3vr  1 4.700000e-01    3.390000e+00
   N6a  X3vr  1 4.700000e-01    3.390000e+00
   N5a  X3vr  1 4.700000e-01    3.520000e+00
   N4a  X3vr  1 4.700000e-01    3.690000e+00
   N3a  X3vr  1 4.700000e-01    3.520000e+00
   N2a  X3vr  1 4.700000e-01    3.520000e+00
   N1a  X3vr  1 4.700000e-01    3.520000e+00
   P6a  X4vr  1 4.700000e-01    3.240000e+00
   P5a  X4vr  1 4.700000e-01    3.390000e+00
   P4a  X4vr  1 4.700000e-01    3.390000e+00
   P3a  X4vr  1 4.700000e-01    3.390000e+00
   P2a  X4vr  1 4.700000e-01    3.390000e+00
   P1a  X4vr  1 4.700000e-01    3.390000e+00
   N6a  X4vr  1 4.700000e-01    3.520000e+00
   N5a  X4vr  1 4.700000e-01    3.690000e+00
   N4a  X4vr  1 4.700000e-01    3.880000e+00
   N3a  X4vr  1 4.700000e-01    3.690000e+00
   N2a  X4vr  1 4.700000e-01    3.690000e+00
   N1a  X4vr  1 4.700000e-01    3.520000e+00
   P6a  C1vr  1 4.850000e-01    2.240000e+00
   P5a  C1vr  1 4.700000e-01    2.620000e+00
   P4a  C1vr  1 4.700000e-01    2.620000e+00
   P3a  C1vr  1 4.700000e-01    2.620000e+00
   P2a  C1vr  1 4.700000e-01    2.790000e+00
   P1a  C1vr  1 4.700000e-01    2.790000e+00
   N6a  C1vr  1 4.700000e-01    2.960000e+00
   N5a  C1vr  1 4.700000e-01    2.960000e+00
   N4a  C1vr  1 4.700000e-01    2.960000e+00
   N3a  C1vr  1 4.700000e-01    3.070000e+00
   N2a  C1vr  1 4.700000e-01    3.070000e+00
   N1a  C1vr  1 4.700000e-01    3.070000e+00
   P6a  C2vr  1 4.700000e-01    2.620000e+00
   P5a  C2vr  1 4.700000e-01    2.790000e+00
   P4a  C2vr  1 4.700000e-01    2.790000e+00
   P3a  C2vr  1 4.700000e-01    2.790000e+00
   P2a  C2vr  1 4.700000e-01    2.960000e+00
   P1a  C2vr  1 4.700000e-01    2.960000e+00
   N6a  C2vr  1 4.700000e-01    3.070000e+00
   N5a  C2vr  1 4.700000e-01    3.070000e+00
   N4a  C2vr  1 4.700000e-01    3.070000e+00
   N3a  C2vr  1 4.700000e-01    3.240000e+00
   N2a  C2vr  1 4.700000e-01    3.240000e+00
   N1a  C2vr  1 4.700000e-01    3.240000e+00
   P6a  C3vr  1 4.700000e-01    2.620000e+00
   P5a  C3vr  1 4.700000e-01    2.790000e+00
   P4a  C3vr  1 4.700000e-01    2.790000e+00
   P3a  C3vr  1 4.700000e-01    2.790000e+00
   P2a  C3vr  1 4.700000e-01    2.960000e+00
   P1a  C3vr  1 4.700000e-01    2.960000e+00
   N6a  C3vr  1 4.700000e-01    3.070000e+00
   N5a  C3vr  1 4.700000e-01    3.240000e+00
   N4a  C3vr  1 4.700000e-01    3.240000e+00
   N3a  C3vr  1 4.700000e-01    3.240000e+00
   N2a  C3vr  1 4.700000e-01    3.390000e+00
   N1a  C3vr  1 4.700000e-01    3.390000e+00
   P6a  C4vr  1 4.700000e-01    2.790000e+00
   P5a  C4vr  1 4.700000e-01    2.960000e+00
   P4a  C4vr  1 4.700000e-01    2.960000e+00
   P3a  C4vr  1 4.700000e-01    3.070000e+00
   P2a  C4vr  1 4.700000e-01    3.070000e+00
   P1a  C4vr  1 4.700000e-01    3.070000e+00
   N6a  C4vr  1 4.700000e-01    3.240000e+00
   N5a  C4vr  1 4.700000e-01    3.240000e+00
   N4a  C4vr  1 4.700000e-01    3.390000e+00
   N3a  C4vr  1 4.700000e-01    3.390000e+00
   N2a  C4vr  1 4.700000e-01    3.390000e+00
   N1a  C4vr  1 4.700000e-01    3.520000e+00
   P6a  C5vr  1 4.700000e-01    2.960000e+00
   P5a  C5vr  1 4.700000e-01    3.070000e+00
   P4a  C5vr  1 4.700000e-01    3.070000e+00
   P3a  C5vr  1 4.700000e-01    3.240000e+00
   P2a  C5vr  1 4.700000e-01    3.240000e+00
   P1a  C5vr  1 4.700000e-01    3.240000e+00
   N6a  C5vr  1 4.700000e-01    3.390000e+00
   N5a  C5vr  1 4.700000e-01    3.390000e+00
   N4a  C5vr  1 4.700000e-01    3.390000e+00
   N3a  C5vr  1 4.700000e-01    3.390000e+00
   N2a  C5vr  1 4.700000e-01    3.390000e+00
   N1a  C5vr  1 4.700000e-01    3.520000e+00
   P6a  C6vr  1 4.700000e-01    3.070000e+00
   P5a  C6vr  1 4.700000e-01    3.070000e+00
   P4a  C6vr  1 4.700000e-01    3.240000e+00
   P3a  C6vr  1 4.700000e-01    3.390000e+00
   P2a  C6vr  1 4.700000e-01    3.390000e+00
   P1a  C6vr  1 4.700000e-01    3.390000e+00
   N6a  C6vr  1 4.700000e-01    3.520000e+00
   N5a  C6vr  1 4.700000e-01    3.520000e+00
   N4a  C6vr  1 4.700000e-01    3.520000e+00
   N3a  C6vr  1 4.700000e-01    3.520000e+00
   N2a  C6vr  1 4.700000e-01    3.520000e+00
   N1a  C6vr  1 4.700000e-01    3.690000e+00
  P6aq   C6v  1 4.700000e-01    3.390000e+00
  P6aq   C5v  1 4.700000e-01    3.240000e+00
  P6aq   C4v  1 4.700000e-01    3.070000e+00
  P6aq   C3v  1 4.700000e-01    2.960000e+00
  P6aq   C2v  1 4.700000e-01    2.960000e+00
  P6aq   C1v  1 4.700000e-01    2.620000e+00
  P6aq   X4v  1 4.700000e-01    3.520000e+00
  P6aq   X3v  1 4.700000e-01    3.520000e+00
  P6aq   X2v  1 4.700000e-01    3.390000e+00
  P6aq   X1v  1 4.700000e-01    3.240000e+00
  P5aq   C6v  1 4.700000e-01    3.390000e+00
  P5aq   C5v  1 4.700000e-01    3.390000e+00
  P5aq   C4v  1 4.700000e-01    3.240000e+00
  P5aq   C3v  1 4.700000e-01    3.070000e+00
  P5aq   C2v  1 4.700000e-01    3.070000e+00
  P5aq   C1v  1 4.700000e-01    2.960000e+00
  P5aq   X4v  1 4.700000e-01    3.690000e+00
  P5aq   X3v  1 4.700000e-01    3.520000e+00
  P5aq   X2v  1 4.700000e-01    3.520000e+00
  P5aq   X1v  1 4.700000e-01    3.240000e+00
  P4aq   C6v  1 4.700000e-01    3.520000e+00
  P4aq   C5v  1 4.700000e-01    3.390000e+00
  P4aq   C4v  1 4.700000e-01    3.240000e+00
  P4aq   C3v  1 4.700000e-01    3.070000e+00
  P4aq   C2v  1 4.700000e-01    3.070000e+00
  P4aq   C1v  1 4.700000e-01    2.960000e+00
  P4aq   X4v  1 4.700000e-01    3.690000e+00
  P4aq   X3v  1 4.700000e-01    3.520000e+00
  P4aq   X2v  1 4.700000e-01    3.520000e+00
  P4aq   X1v  1 4.700000e-01    3.390000e+00
  P3aq   C6v  1 4.700000e-01    3.690000e+00
  P3aq   C5v  1 4.700000e-01    3.520000e+00
  P3aq   C4v  1 4.700000e-01    3.390000e+00
  P3aq   C3v  1 4.700000e-01    3.070000e+00
  P3aq   C2v  1 4.700000e-01    3.070000e+00
  P3aq   C1v  1 4.700000e-01    2.960000e+00
  P3aq   X4v  1 4.700000e-01    3.690000e+00
  P3aq   X3v  1 4.700000e-01    3.690000e+00
  P3aq   X2v  1 4.700000e-01    3.520000e+00
  P3aq   X1v  1 4.700000e-01    3.390000e+00
  P2aq   C6v  1 4.700000e-01    3.690000e+00
  P2aq   C5v  1 4.700000e-01    3.520000e+00
  P2aq   C4v  1 4.700000e-01    3.390000e+00
  P2aq   C3v  1 4.700000e-01    3.240000e+00
  P2aq   C2v  1 4.700000e-01    3.240000e+00
  P2aq   C1v  1 4.700000e-01    3.070000e+00
  P2aq   X4v  1 4.700000e-01    3.690000e+00
  P2aq   X3v  1 4.700000e-01    3.690000e+00
  P2aq   X2v  1 4.700000e-01    3.520000e+00
  P2aq   X1v  1 4.700000e-01    3.390000e+00
  P1aq   C6v  1 4.700000e-01    3.690000e+00
  P1aq   C5v  1 4.700000e-01    3.520000e+00
  P1aq   C4v  1 4.700000e-01    3.390000e+00
  P1aq   C3v  1 4.700000e-01    3.240000e+00
  P1aq   C2v  1 4.700000e-01    3.240000e+00
  P1aq   C1v  1 4.700000e-01    3.070000e+00
  P1aq   X4v  1 4.700000e-01    3.690000e+00
  P1aq   X3v  1 4.700000e-01    3.690000e+00
  P1aq   X2v  1 4.700000e-01    3.520000e+00
  P1aq   X1v  1 4.700000e-01    3.390000e+00
  N6aq   C6v  1 4.700000e-01    3.880000e+00
  N6aq   C5v  1 4.700000e-01    3.690000e+00
  N6aq   C4v  1 4.700000e-01    3.520000e+00
  N6aq   C3v  1 4.700000e-01    3.390000e+00
  N6aq   C2v  1 4.700000e-01    3.390000e+00
  N6aq   C1v  1 4.700000e-01    3.240000e+00
  N6aq   X4v  1 4.700000e-01    3.880000e+00
  N6aq   X3v  1 4.700000e-01    3.690000e+00
  N6aq   X2v  1 4.700000e-01    3.520000e+00
  N6aq   X1v  1 4.700000e-01    3.390000e+00
  N5aq   C6v  1 4.700000e-01    3.880000e+00
  N5aq   C5v  1 4.700000e-01    3.690000e+00
  N5aq   C4v  1 4.700000e-01    3.520000e+00
  N5aq   C3v  1 4.700000e-01    3.520000e+00
  N5aq   C2v  1 4.700000e-01    3.390000e+00
  N5aq   C1v  1 4.700000e-01    3.240000e+00
  N5aq   X4v  1 4.700000e-01    4.060000e+00
  N5aq   X3v  1 4.700000e-01    3.880000e+00
  N5aq   X2v  1 4.700000e-01    3.690000e+00
  N5aq   X1v  1 4.700000e-01    3.520000e+00
  N4aq   C6v  1 4.700000e-01    3.880000e+00
  N4aq   C5v  1 4.700000e-01    3.690000e+00
  N4aq   C4v  1 4.700000e-01    3.690000e+00
  N4aq   C3v  1 4.700000e-01    3.520000e+00
  N4aq   C2v  1 4.700000e-01    3.390000e+00
  N4aq   C1v  1 4.700000e-01    3.240000e+00
  N4aq   X4v  1 4.700000e-01    4.250000e+00
  N4aq   X3v  1 4.700000e-01    4.060000e+00
  N4aq   X2v  1 4.700000e-01    3.690000e+00
  N4aq   X1v  1 4.700000e-01    3.520000e+00
  N3aq   C6v  1 4.700000e-01    3.880000e+00
  N3aq   C5v  1 4.700000e-01    3.690000e+00
  N3aq   C4v  1 4.700000e-01    3.690000e+00
  N3aq   C3v  1 4.700000e-01    3.520000e+00
  N3aq   C2v  1 4.700000e-01    3.520000e+00
  N3aq   C1v  1 4.700000e-01    3.390000e+00
  N3aq   X4v  1 4.700000e-01    4.060000e+00
  N3aq   X3v  1 4.700000e-01    3.880000e+00
  N3aq   X2v  1 4.700000e-01    3.690000e+00
  N3aq   X1v  1 4.700000e-01    3.690000e+00
  N2aq   C6v  1 4.700000e-01    3.880000e+00
  N2aq   C5v  1 4.700000e-01    3.690000e+00
  N2aq   C4v  1 4.700000e-01    3.690000e+00
  N2aq   C3v  1 4.700000e-01    3.690000e+00
  N2aq   C2v  1 4.700000e-01    3.520000e+00
  N2aq   C1v  1 4.700000e-01    3.390000e+00
  N2aq   X4v  1 4.700000e-01    4.060000e+00
  N2aq   X3v  1 4.700000e-01    3.880000e+00
  N2aq   X2v  1 4.700000e-01    3.690000e+00
  N2aq   X1v  1 4.700000e-01    3.690000e+00
  N1aq   C6v  1 4.700000e-01    4.060000e+00
  N1aq   C5v  1 4.700000e-01    3.880000e+00
  N1aq   C4v  1 4.700000e-01    3.880000e+00
  N1aq   C3v  1 4.700000e-01    3.690000e+00
  N1aq   C2v  1 4.700000e-01    3.520000e+00
  N1aq   C1v  1 4.700000e-01    3.390000e+00
  N1aq   X4v  1 4.700000e-01    3.880000e+00
  N1aq   X3v  1 4.700000e-01    3.880000e+00
  N1aq   X2v  1 4.700000e-01    3.690000e+00
  N1aq   X1v  1 4.700000e-01    3.690000e+00
  P6aq  C6vq  1 4.700000e-01    3.390000e+00
  P6aq  C5vq  1 4.700000e-01    3.240000e+00
  P6aq  C4vq  1 4.700000e-01    3.070000e+00
  P6aq  C3vq  1 4.700000e-01    2.960000e+00
  P6aq  C2vq  1 4.700000e-01    2.960000e+00
  P6aq  C1vq  1 4.700000e-01    2.620000e+00
  P6aq  X4vq  1 4.700000e-01    3.520000e+00
  P6aq  X3vq  1 4.700000e-01    3.520000e+00
  P6aq  X2vq  1 4.700000e-01    3.390000e+00
  P6aq  X1vq  1 4.700000e-01    3.240000e+00
  P5aq  C6vq  1 4.700000e-01    3.390000e+00
  P5aq  C5vq  1 4.700000e-01    3.390000e+00
  P5aq  C4vq  1 4.700000e-01    3.240000e+00
  P5aq  C3vq  1 4.700000e-01    3.070000e+00
  P5aq  C2vq  1 4.700000e-01    3.070000e+00
  P5aq  C1vq  1 4.700000e-01    2.960000e+00
  P5aq  X4vq  1 4.700000e-01    3.690000e+00
  P5aq  X3vq  1 4.700000e-01    3.520000e+00
  P5aq  X2vq  1 4.700000e-01    3.520000e+00
  P5aq  X1vq  1 4.700000e-01    3.240000e+00
  P4aq  C6vq  1 4.700000e-01    3.520000e+00
  P4aq  C5vq  1 4.700000e-01    3.390000e+00
  P4aq  C4vq  1 4.700000e-01    3.240000e+00
  P4aq  C3vq  1 4.700000e-01    3.070000e+00
  P4aq  C2vq  1 4.700000e-01    3.070000e+00
  P4aq  C1vq  1 4.700000e-01    2.960000e+00
  P4aq  X4vq  1 4.700000e-01    3.690000e+00
  P4aq  X3vq  1 4.700000e-01    3.520000e+00
  P4aq  X2vq  1 4.700000e-01    3.520000e+00
  P4aq  X1vq  1 4.700000e-01    3.390000e+00
  P3aq  C6vq  1 4.700000e-01    3.690000e+00
  P3aq  C5vq  1 4.700000e-01    3.520000e+00
  P3aq  C4vq  1 4.700000e-01    3.390000e+00
  P3aq  C3vq  1 4.700000e-01    3.070000e+00
  P3aq  C2vq  1 4.700000e-01    3.070000e+00
  P3aq  C1vq  1 4.700000e-01    2.960000e+00
  P3aq  X4vq  1 4.700000e-01    3.690000e+00
  P3aq  X3vq  1 4.700000e-01    3.690000e+00
  P3aq  X2vq  1 4.700000e-01    3.520000e+00
  P3aq  X1vq  1 4.700000e-01    3.390000e+00
  P2aq  C6vq  1 4.700000e-01    3.690000e+00
  P2aq  C5vq  1 4.700000e-01    3.520000e+00
  P2aq  C4vq  1 4.700000e-01    3.390000e+00
  P2aq  C3vq  1 4.700000e-01    3.240000e+00
  P2aq  C2vq  1 4.700000e-01    3.240000e+00
  P2aq  C1vq  1 4.700000e-01    3.070000e+00
  P2aq  X4vq  1 4.700000e-01    3.690000e+00
  P2aq  X3vq  1 4.700000e-01    3.690000e+00
  P2aq  X2vq  1 4.700000e-01    3.520000e+00
  P2aq  X1vq  1 4.700000e-01    3.390000e+00
  P1aq  C6vq  1 4.700000e-01    3.690000e+00
  P1aq  C5vq  1 4.700000e-01    3.520000e+00
  P1aq  C4vq  1 4.700000e-01    3.390000e+00
  P1aq  C3vq  1 4.700000e-01    3.240000e+00
  P1aq  C2vq  1 4.700000e-01    3.240000e+00
  P1aq  C1vq  1 4.700000e-01    3.070000e+00
  P1aq  X4vq  1 4.700000e-01    3.690000e+00
  P1aq  X3vq  1 4.700000e-01    3.690000e+00
  P1aq  X2vq  1 4.700000e-01    3.520000e+00
  P1aq  X1vq  1 4.700000e-01    3.390000e+00
  N6aq  C6vq  1 4.700000e-01    3.880000e+00
  N6aq  C5vq  1 4.700000e-01    3.690000e+00
  N6aq  C4vq  1 4.700000e-01    3.520000e+00
  N6aq  C3vq  1 4.700000e-01    3.390000e+00
  N6aq  C2vq  1 4.700000e-01    3.390000e+00
  N6aq  C1vq  1 4.700000e-01    3.240000e+00
  N6aq  X4vq  1 4.700000e-01    3.880000e+00
  N6aq  X3vq  1 4.700000e-01    3.690000e+00
  N6aq  X2vq  1 4.700000e-01    3.520000e+00
  N6aq  X1vq  1 4.700000e-01    3.390000e+00
  N5aq  C6vq  1 4.700000e-01    3.880000e+00
  N5aq  C5vq  1 4.700000e-01    3.690000e+00
  N5aq  C4vq  1 4.700000e-01    3.520000e+00
  N5aq  C3vq  1 4.700000e-01    3.520000e+00
  N5aq  C2vq  1 4.700000e-01    3.390000e+00
  N5aq  C1vq  1 4.700000e-01    3.240000e+00
  N5aq  X4vq  1 4.700000e-01    4.060000e+00
  N5aq  X3vq  1 4.700000e-01    3.880000e+00
  N5aq  X2vq  1 4.700000e-01    3.690000e+00
  N5aq  X1vq  1 4.700000e-01    3.520000e+00
  N4aq  C6vq  1 4.700000e-01    3.880000e+00
  N4aq  C5vq  1 4.700000e-01    3.690000e+00
  N4aq  C4vq  1 4.700000e-01    3.690000e+00
  N4aq  C3vq  1 4.700000e-01    3.520000e+00
  N4aq  C2vq  1 4.700000e-01    3.390000e+00
  N4aq  C1vq  1 4.700000e-01    3.240000e+00
  N4aq  X4vq  1 4.700000e-01    4.250000e+00
  N4aq  X3vq  1 4.700000e-01    4.060000e+00
  N4aq  X2vq  1 4.700000e-01    3.690000e+00
  N4aq  X1vq  1 4.700000e-01    3.520000e+00
  N3aq  C6vq  1 4.700000e-01    3.880000e+00
  N3aq  C5vq  1 4.700000e-01    3.690000e+00
  N3aq  C4vq  1 4.700000e-01    3.690000e+00
  N3aq  C3vq  1 4.700000e-01    3.520000e+00
  N3aq  C2vq  1 4.700000e-01    3.520000e+00
  N3aq  C1vq  1 4.700000e-01    3.390000e+00
  N3aq  X4vq  1 4.700000e-01    4.060000e+00
  N3aq  X3vq  1 4.700000e-01    3.880000e+00
  N3aq  X2vq  1 4.700000e-01    3.690000e+00
  N3aq  X1vq  1 4.700000e-01    3.690000e+00
  N2aq  C6vq  1 4.700000e-01    3.880000e+00
  N2aq  C5vq  1 4.700000e-01    3.690000e+00
  N2aq  C4vq  1 4.700000e-01    3.690000e+00
  N2aq  C3vq  1 4.700000e-01    3.690000e+00
  N2aq  C2vq  1 4.700000e-01    3.520000e+00
  N2aq  C1vq  1 4.700000e-01    3.390000e+00
  N2aq  X4vq  1 4.700000e-01    4.060000e+00
  N2aq  X3vq  1 4.700000e-01    3.880000e+00
  N2aq  X2vq  1 4.700000e-01    3.690000e+00
  N2aq  X1vq  1 4.700000e-01    3.690000e+00
  N1aq  C6vq  1 4.700000e-01    4.060000e+00
  N1aq  C5vq  1 4.700000e-01    3.880000e+00
  N1aq  C4vq  1 4.700000e-01    3.880000e+00
  N1aq  C3vq  1 4.700000e-01    3.690000e+00
  N1aq  C2vq  1 4.700000e-01    3.520000e+00
  N1aq  C1vq  1 4.700000e-01    3.390000e+00
  N1aq  X4vq  1 4.700000e-01    3.880000e+00
  N1aq  X3vq  1 4.700000e-01    3.880000e+00
  N1aq  X2vq  1 4.700000e-01    3.690000e+00
  N1aq  X1vq  1 4.700000e-01    3.690000e+00
  P6aq  C6vh  1 4.700000e-01    3.390000e+00
  P5aq  C6vh  1 4.700000e-01    3.390000e+00
  P4aq  C6vh  1 4.700000e-01    3.520000e+00
  P3aq  C6vh  1 4.700000e-01    3.690000e+00
  P2aq  C6vh  1 4.700000e-01    3.690000e+00
  P1aq  C6vh  1 4.700000e-01    3.690000e+00
  N6aq  C6vh  1 4.700000e-01    3.880000e+00
  N5aq  C6vh  1 4.700000e-01    3.880000e+00
  N4aq  C6vh  1 4.700000e-01    3.880000e+00
  N3aq  C6vh  1 4.700000e-01    3.880000e+00
  N2aq  C6vh  1 4.700000e-01    3.880000e+00
  N1aq  C6vh  1 4.700000e-01    4.060000e+00
  P6aq  C5vh  1 4.700000e-01    3.240000e+00
  P5aq  C5vh  1 4.700000e-01    3.390000e+00
  P4aq  C5vh  1 4.700000e-01    3.390000e+00
  P3aq  C5vh  1 4.700000e-01    3.520000e+00
  P2aq  C5vh  1 4.700000e-01    3.520000e+00
  P1aq  C5vh  1 4.700000e-01    3.520000e+00
  N6aq  C5vh  1 4.700000e-01    3.690000e+00
  N5aq  C5vh  1 4.700000e-01    3.690000e+00
  N4aq  C5vh  1 4.700000e-01    3.690000e+00
  N3aq  C5vh  1 4.700000e-01    3.690000e+00
  N2aq  C5vh  1 4.700000e-01    3.690000e+00
  N1aq  C5vh  1 4.700000e-01    3.880000e+00
  P6aq  C4vh  1 4.700000e-01    3.070000e+00
  P5aq  C4vh  1 4.700000e-01    3.240000e+00
  P4aq  C4vh  1 4.700000e-01    3.240000e+00
  P3aq  C4vh  1 4.700000e-01    3.390000e+00
  P2aq  C4vh  1 4.700000e-01    3.390000e+00
  P1aq  C4vh  1 4.700000e-01    3.390000e+00
  N6aq  C4vh  1 4.700000e-01    3.520000e+00
  N5aq  C4vh  1 4.700000e-01    3.520000e+00
  N4aq  C4vh  1 4.700000e-01    3.690000e+00
  N3aq  C4vh  1 4.700000e-01    3.690000e+00
  N2aq  C4vh  1 4.700000e-01    3.690000e+00
  N1aq  C4vh  1 4.700000e-01    3.880000e+00
  P6aq  C3vh  1 4.700000e-01    2.960000e+00
  P5aq  C3vh  1 4.700000e-01    3.070000e+00
  P4aq  C3vh  1 4.700000e-01    3.070000e+00
  P3aq  C3vh  1 4.700000e-01    3.070000e+00
  P2aq  C3vh  1 4.700000e-01    3.240000e+00
  P1aq  C3vh  1 4.700000e-01    3.240000e+00
  N6aq  C3vh  1 4.700000e-01    3.390000e+00
  N5aq  C3vh  1 4.700000e-01    3.520000e+00
  N4aq  C3vh  1 4.700000e-01    3.520000e+00
  N3aq  C3vh  1 4.700000e-01    3.520000e+00
  N2aq  C3vh  1 4.700000e-01    3.690000e+00
  N1aq  C3vh  1 4.700000e-01    3.690000e+00
  P6aq  C2vh  1 4.700000e-01    2.960000e+00
  P5aq  C2vh  1 4.700000e-01    3.070000e+00
  P4aq  C2vh  1 4.700000e-01    3.070000e+00
  P3aq  C2vh  1 4.700000e-01    3.070000e+00
  P2aq  C2vh  1 4.700000e-01    3.240000e+00
  P1aq  C2vh  1 4.700000e-01    3.240000e+00
  N6aq  C2vh  1 4.700000e-01    3.390000e+00
  N5aq  C2vh  1 4.700000e-01    3.390000e+00
  N4aq  C2vh  1 4.700000e-01    3.390000e+00
  N3aq  C2vh  1 4.700000e-01    3.520000e+00
  N2aq  C2vh  1 4.700000e-01    3.520000e+00
  N1aq  C2vh  1 4.700000e-01    3.520000e+00
  P6aq  C1vh  1 4.700000e-01    2.620000e+00
  P5aq  C1vh  1 4.700000e-01    2.960000e+00
  P4aq  C1vh  1 4.700000e-01    2.960000e+00
  P3aq  C1vh  1 4.700000e-01    2.960000e+00
  P2aq  C1vh  1 4.700000e-01    3.070000e+00
  P1aq  C1vh  1 4.700000e-01    3.070000e+00
  N6aq  C1vh  1 4.700000e-01    3.240000e+00
  N5aq  C1vh  1 4.700000e-01    3.240000e+00
  N4aq  C1vh  1 4.700000e-01    3.240000e+00
  N3aq  C1vh  1 4.700000e-01    3.390000e+00
  N2aq  C1vh  1 4.700000e-01    3.390000e+00
  N1aq  C1vh  1 4.700000e-01    3.390000e+00
  P6aq  X4vh  1 4.700000e-01    3.520000e+00
  P5aq  X4vh  1 4.700000e-01    3.690000e+00
  P4aq  X4vh  1 4.700000e-01    3.690000e+00
  P3aq  X4vh  1 4.700000e-01    3.690000e+00
  P2aq  X4vh  1 4.700000e-01    3.690000e+00
  P1aq  X4vh  1 4.700000e-01    3.690000e+00
  N6aq  X4vh  1 4.700000e-01    3.880000e+00
  N5aq  X4vh  1 4.700000e-01    4.060000e+00
  N4aq  X4vh  1 4.700000e-01    4.250000e+00
  N3aq  X4vh  1 4.700000e-01    4.060000e+00
  N2aq  X4vh  1 4.700000e-01    4.060000e+00
  N1aq  X4vh  1 4.700000e-01    3.880000e+00
  P6aq  X3vh  1 4.700000e-01    3.520000e+00
  P5aq  X3vh  1 4.700000e-01    3.520000e+00
  P4aq  X3vh  1 4.700000e-01    3.520000e+00
  P3aq  X3vh  1 4.700000e-01    3.690000e+00
  P2aq  X3vh  1 4.700000e-01    3.690000e+00
  P1aq  X3vh  1 4.700000e-01    3.690000e+00
  N6aq  X3vh  1 4.700000e-01    3.690000e+00
  N5aq  X3vh  1 4.700000e-01    3.880000e+00
  N4aq  X3vh  1 4.700000e-01    4.060000e+00
  N3aq  X3vh  1 4.700000e-01    3.880000e+00
  N2aq  X3vh  1 4.700000e-01    3.880000e+00
  N1aq  X3vh  1 4.700000e-01    3.880000e+00
  P6aq  X2vh  1 4.700000e-01    3.390000e+00
  P5aq  X2vh  1 4.700000e-01    3.520000e+00
  P4aq  X2vh  1 4.700000e-01    3.520000e+00
  P3aq  X2vh  1 4.700000e-01    3.520000e+00
  P2aq  X2vh  1 4.700000e-01    3.520000e+00
  P1aq  X2vh  1 4.700000e-01    3.520000e+00
  N6aq  X2vh  1 4.700000e-01    3.520000e+00
  N5aq  X2vh  1 4.700000e-01    3.690000e+00
  N4aq  X2vh  1 4.700000e-01    3.690000e+00
  N3aq  X2vh  1 4.700000e-01    3.690000e+00
  N2aq  X2vh  1 4.700000e-01    3.690000e+00
  N1aq  X2vh  1 4.700000e-01    3.690000e+00
  P6aq  X1vh  1 4.700000e-01    3.240000e+00
  P5aq  X1vh  1 4.700000e-01    3.240000e+00
  P4aq  X1vh  1 4.700000e-01    3.390000e+00
  P3aq  X1vh  1 4.700000e-01    3.390000e+00
  P2aq  X1vh  1 4.700000e-01    3.390000e+00
  P1aq  X1vh  1 4.700000e-01    3.390000e+00
  N6aq  X1vh  1 4.700000e-01    3.390000e+00
  N5aq  X1vh  1 4.700000e-01    3.520000e+00
  N4aq  X1vh  1 4.700000e-01    3.520000e+00
  N3aq  X1vh  1 4.700000e-01    3.690000e+00
  N2aq  X1vh  1 4.700000e-01    3.690000e+00
  N1aq  X1vh  1 4.700000e-01    3.690000e+00
  P6aq  C6vr  1 4.700000e-01    3.390000e+00
  P5aq  C6vr  1 4.700000e-01    3.390000e+00
  P4aq  C6vr  1 4.700000e-01    3.520000e+00
  P3aq  C6vr  1 4.700000e-01    3.690000e+00
  P2aq  C6vr  1 4.700000e-01    3.690000e+00
  P1aq  C6vr  1 4.700000e-01    3.690000e+00
  N6aq  C6vr  1 4.700000e-01    3.880000e+00
  N5aq  C6vr  1 4.700000e-01    3.880000e+00
  N4aq  C6vr  1 4.700000e-01    3.880000e+00
  N3aq  C6vr  1 4.700000e-01    3.880000e+00
  N2aq  C6vr  1 4.700000e-01    3.880000e+00
  N1aq  C6vr  1 4.700000e-01    4.060000e+00
  P6aq  C5vr  1 4.700000e-01    3.240000e+00
  P5aq  C5vr  1 4.700000e-01    3.390000e+00
  P4aq  C5vr  1 4.700000e-01    3.390000e+00
  P3aq  C5vr  1 4.700000e-01    3.520000e+00
  P2aq  C5vr  1 4.700000e-01    3.520000e+00
  P1aq  C5vr  1 4.700000e-01    3.520000e+00
  N6aq  C5vr  1 4.700000e-01    3.690000e+00
  N5aq  C5vr  1 4.700000e-01    3.690000e+00
  N4aq  C5vr  1 4.700000e-01    3.690000e+00
  N3aq  C5vr  1 4.700000e-01    3.690000e+00
  N2aq  C5vr  1 4.700000e-01    3.690000e+00
  N1aq  C5vr  1 4.700000e-01    3.880000e+00
  P6aq  C4vr  1 4.700000e-01    3.070000e+00
  P5aq  C4vr  1 4.700000e-01    3.240000e+00
  P4aq  C4vr  1 4.700000e-01    3.240000e+00
  P3aq  C4vr  1 4.700000e-01    3.390000e+00
  P2aq  C4vr  1 4.700000e-01    3.390000e+00
  P1aq  C4vr  1 4.700000e-01    3.390000e+00
  N6aq  C4vr  1 4.700000e-01    3.520000e+00
  N5aq  C4vr  1 4.700000e-01    3.520000e+00
  N4aq  C4vr  1 4.700000e-01    3.690000e+00
  N3aq  C4vr  1 4.700000e-01    3.690000e+00
  N2aq  C4vr  1 4.700000e-01    3.690000e+00
  N1aq  C4vr  1 4.700000e-01    3.880000e+00
  P6aq  C3vr  1 4.700000e-01    2.960000e+00
  P5aq  C3vr  1 4.700000e-01    3.070000e+00
  P4aq  C3vr  1 4.700000e-01    3.070000e+00
  P3aq  C3vr  1 4.700000e-01    3.070000e+00
  P2aq  C3vr  1 4.700000e-01    3.240000e+00
  P1aq  C3vr  1 4.700000e-01    3.240000e+00
  N6aq  C3vr  1 4.700000e-01    3.390000e+00
  N5aq  C3vr  1 4.700000e-01    3.520000e+00
  N4aq  C3vr  1 4.700000e-01    3.520000e+00
  N3aq  C3vr  1 4.700000e-01    3.520000e+00
  N2aq  C3vr  1 4.700000e-01    3.690000e+00
  N1aq  C3vr  1 4.700000e-01    3.690000e+00
  P6aq  C2vr  1 4.700000e-01    2.960000e+00
  P5aq  C2vr  1 4.700000e-01    3.070000e+00
  P4aq  C2vr  1 4.700000e-01    3.070000e+00
  P3aq  C2vr  1 4.700000e-01    3.070000e+00
  P2aq  C2vr  1 4.700000e-01    3.240000e+00
  P1aq  C2vr  1 4.700000e-01    3.240000e+00
  N6aq  C2vr  1 4.700000e-01    3.390000e+00
  N5aq  C2vr  1 4.700000e-01    3.390000e+00
  N4aq  C2vr  1 4.700000e-01    3.390000e+00
  N3aq  C2vr  1 4.700000e-01    3.520000e+00
  N2aq  C2vr  1 4.700000e-01    3.520000e+00
  N1aq  C2vr  1 4.700000e-01    3.520000e+00
  P6aq  C1vr  1 4.700000e-01    2.620000e+00
  P5aq  C1vr  1 4.700000e-01    2.960000e+00
  P4aq  C1vr  1 4.700000e-01    2.960000e+00
  P3aq  C1vr  1 4.700000e-01    2.960000e+00
  P2aq  C1vr  1 4.700000e-01    3.070000e+00
  P1aq  C1vr  1 4.700000e-01    3.070000e+00
  N6aq  C1vr  1 4.700000e-01    3.240000e+00
  N5aq  C1vr  1 4.700000e-01    3.240000e+00
  N4aq  C1vr  1 4.700000e-01    3.240000e+00
  N3aq  C1vr  1 4.700000e-01    3.390000e+00
  N2aq  C1vr  1 4.700000e-01    3.390000e+00
  N1aq  C1vr  1 4.700000e-01    3.390000e+00
  P6aq  X4vr  1 4.700000e-01    3.520000e+00
  P5aq  X4vr  1 4.700000e-01    3.690000e+00
  P4aq  X4vr  1 4.700000e-01    3.690000e+00
  P3aq  X4vr  1 4.700000e-01    3.690000e+00
  P2aq  X4vr  1 4.700000e-01    3.690000e+00
  P1aq  X4vr  1 4.700000e-01    3.690000e+00
  N6aq  X4vr  1 4.700000e-01    3.880000e+00
  N5aq  X4vr  1 4.700000e-01    4.060000e+00
  N4aq  X4vr  1 4.700000e-01    4.250000e+00
  N3aq  X4vr  1 4.700000e-01    4.060000e+00
  N2aq  X4vr  1 4.700000e-01    4.060000e+00
  N1aq  X4vr  1 4.700000e-01    3.880000e+00
  P6aq  X3vr  1 4.700000e-01    3.520000e+00
  P5aq  X3vr  1 4.700000e-01    3.520000e+00
  P4aq  X3vr  1 4.700000e-01    3.520000e+00
  P3aq  X3vr  1 4.700000e-01    3.690000e+00
  P2aq  X3vr  1 4.700000e-01    3.690000e+00
  P1aq  X3vr  1 4.700000e-01    3.690000e+00
  N6aq  X3vr  1 4.700000e-01    3.690000e+00
  N5aq  X3vr  1 4.700000e-01    3.880000e+00
  N4aq  X3vr  1 4.700000e-01    4.060000e+00
  N3aq  X3vr  1 4.700000e-01    3.880000e+00
  N2aq  X3vr  1 4.700000e-01    3.880000e+00
  N1aq  X3vr  1 4.700000e-01    3.880000e+00
  P6aq  X2vr  1 4.700000e-01    3.390000e+00
  P5aq  X2vr  1 4.700000e-01    3.520000e+00
  P4aq  X2vr  1 4.700000e-01    3.520000e+00
  P3aq  X2vr  1 4.700000e-01    3.520000e+00
  P2aq  X2vr  1 4.700000e-01    3.520000e+00
  P1aq  X2vr  1 4.700000e-01    3.520000e+00
  N6aq  X2vr  1 4.700000e-01    3.520000e+00
  N5aq  X2vr  1 4.700000e-01    3.690000e+00
  N4aq  X2vr  1 4.700000e-01    3.690000e+00
  N3aq  X2vr  1 4.700000e-01    3.690000e+00
  N2aq  X2vr  1 4.700000e-01    3.690000e+00
  N1aq  X2vr  1 4.700000e-01    3.690000e+00
  P6aq  X1vr  1 4.700000e-01    3.240000e+00
  P5aq  X1vr  1 4.700000e-01    3.240000e+00
  P4aq  X1vr  1 4.700000e-01    3.390000e+00
  P3aq  X1vr  1 4.700000e-01    3.390000e+00
  P2aq  X1vr  1 4.700000e-01    3.390000e+00
  P1aq  X1vr  1 4.700000e-01    3.390000e+00
  N6aq  X1vr  1 4.700000e-01    3.390000e+00
  N5aq  X1vr  1 4.700000e-01    3.520000e+00
  N4aq  X1vr  1 4.700000e-01    3.520000e+00
  N3aq  X1vr  1 4.700000e-01    3.690000e+00
  N2aq  X1vr  1 4.700000e-01    3.690000e+00
  N1aq  X1vr  1 4.700000e-01    3.690000e+00
  P6ah   C6v  1 4.700000e-01    3.070000e+00
  P6ah   C5v  1 4.700000e-01    2.960000e+00
  P6ah   C4v  1 4.700000e-01    2.790000e+00
  P6ah   C3v  1 4.700000e-01    2.620000e+00
  P6ah   C2v  1 4.700000e-01    2.620000e+00
  P6ah   C1v  1 4.850000e-01    2.240000e+00
  P6ah   X4v  1 4.700000e-01    3.240000e+00
  P6ah   X3v  1 4.700000e-01    3.240000e+00
  P6ah   X2v  1 4.700000e-01    3.070000e+00
  P6ah   X1v  1 4.700000e-01    2.960000e+00
  P5ah   C6v  1 4.700000e-01    3.070000e+00
  P5ah   C5v  1 4.700000e-01    3.070000e+00
  P5ah   C4v  1 4.700000e-01    2.960000e+00
  P5ah   C3v  1 4.700000e-01    2.790000e+00
  P5ah   C2v  1 4.700000e-01    2.790000e+00
  P5ah   C1v  1 4.700000e-01    2.620000e+00
  P5ah   X4v  1 4.700000e-01    3.390000e+00
  P5ah   X3v  1 4.700000e-01    3.240000e+00
  P5ah   X2v  1 4.700000e-01    3.240000e+00
  P5ah   X1v  1 4.700000e-01    2.960000e+00
  P4ah   C6v  1 4.700000e-01    3.240000e+00
  P4ah   C5v  1 4.700000e-01    3.070000e+00
  P4ah   C4v  1 4.700000e-01    2.960000e+00
  P4ah   C3v  1 4.700000e-01    2.790000e+00
  P4ah   C2v  1 4.700000e-01    2.790000e+00
  P4ah   C1v  1 4.700000e-01    2.620000e+00
  P4ah   X4v  1 4.700000e-01    3.390000e+00
  P4ah   X3v  1 4.700000e-01    3.240000e+00
  P4ah   X2v  1 4.700000e-01    3.240000e+00
  P4ah   X1v  1 4.700000e-01    3.070000e+00
  P3ah   C6v  1 4.700000e-01    3.390000e+00
  P3ah   C5v  1 4.700000e-01    3.240000e+00
  P3ah   C4v  1 4.700000e-01    3.070000e+00
  P3ah   C3v  1 4.700000e-01    2.790000e+00
  P3ah   C2v  1 4.700000e-01    2.790000e+00
  P3ah   C1v  1 4.700000e-01    2.620000e+00
  P3ah   X4v  1 4.700000e-01    3.390000e+00
  P3ah   X3v  1 4.700000e-01    3.390000e+00
  P3ah   X2v  1 4.700000e-01    3.240000e+00
  P3ah   X1v  1 4.700000e-01    3.070000e+00
  P2ah   C6v  1 4.700000e-01    3.390000e+00
  P2ah   C5v  1 4.700000e-01    3.240000e+00
  P2ah   C4v  1 4.700000e-01    3.070000e+00
  P2ah   C3v  1 4.700000e-01    2.960000e+00
  P2ah   C2v  1 4.700000e-01    2.960000e+00
  P2ah   C1v  1 4.700000e-01    2.790000e+00
  P2ah   X4v  1 4.700000e-01    3.390000e+00
  P2ah   X3v  1 4.700000e-01    3.390000e+00
  P2ah   X2v  1 4.700000e-01    3.240000e+00
  P2ah   X1v  1 4.700000e-01    3.070000e+00
  P1ah   C6v  1 4.700000e-01    3.390000e+00
  P1ah   C5v  1 4.700000e-01    3.240000e+00
  P1ah   C4v  1 4.700000e-01    3.070000e+00
  P1ah   C3v  1 4.700000e-01    2.960000e+00
  P1ah   C2v  1 4.700000e-01    2.960000e+00
  P1ah   C1v  1 4.700000e-01    2.790000e+00
  P1ah   X4v  1 4.700000e-01    3.390000e+00
  P1ah   X3v  1 4.700000e-01    3.390000e+00
  P1ah   X2v  1 4.700000e-01    3.240000e+00
  P1ah   X1v  1 4.700000e-01    3.070000e+00
  N6ah   C6v  1 4.700000e-01    3.520000e+00
  N6ah   C5v  1 4.700000e-01    3.390000e+00
  N6ah   C4v  1 4.700000e-01    3.240000e+00
  N6ah   C3v  1 4.700000e-01    3.070000e+00
  N6ah   C2v  1 4.700000e-01    3.070000e+00
  N6ah   C1v  1 4.700000e-01    2.960000e+00
  N6ah   X4v  1 4.700000e-01    3.520000e+00
  N6ah   X3v  1 4.700000e-01    3.390000e+00
  N6ah   X2v  1 4.700000e-01    3.240000e+00
  N6ah   X1v  1 4.700000e-01    3.070000e+00
  N5ah   C6v  1 4.700000e-01    3.520000e+00
  N5ah   C5v  1 4.700000e-01    3.390000e+00
  N5ah   C4v  1 4.700000e-01    3.240000e+00
  N5ah   C3v  1 4.700000e-01    3.240000e+00
  N5ah   C2v  1 4.700000e-01    3.070000e+00
  N5ah   C1v  1 4.700000e-01    2.960000e+00
  N5ah   X4v  1 4.700000e-01    3.690000e+00
  N5ah   X3v  1 4.700000e-01    3.520000e+00
  N5ah   X2v  1 4.700000e-01    3.390000e+00
  N5ah   X1v  1 4.700000e-01    3.240000e+00
  N4ah   C6v  1 4.700000e-01    3.520000e+00
  N4ah   C5v  1 4.700000e-01    3.390000e+00
  N4ah   C4v  1 4.700000e-01    3.390000e+00
  N4ah   C3v  1 4.700000e-01    3.240000e+00
  N4ah   C2v  1 4.700000e-01    3.070000e+00
  N4ah   C1v  1 4.700000e-01    2.960000e+00
  N4ah   X4v  1 4.700000e-01    3.880000e+00
  N4ah   X3v  1 4.700000e-01    3.690000e+00
  N4ah   X2v  1 4.700000e-01    3.390000e+00
  N4ah   X1v  1 4.700000e-01    3.240000e+00
  N3ah   C6v  1 4.700000e-01    3.520000e+00
  N3ah   C5v  1 4.700000e-01    3.390000e+00
  N3ah   C4v  1 4.700000e-01    3.390000e+00
  N3ah   C3v  1 4.700000e-01    3.240000e+00
  N3ah   C2v  1 4.700000e-01    3.240000e+00
  N3ah   C1v  1 4.700000e-01    3.070000e+00
  N3ah   X4v  1 4.700000e-01    3.690000e+00
  N3ah   X3v  1 4.700000e-01    3.520000e+00
  N3ah   X2v  1 4.700000e-01    3.390000e+00
  N3ah   X1v  1 4.700000e-01    3.390000e+00
  N2ah   C6v  1 4.700000e-01    3.520000e+00
  N2ah   C5v  1 4.700000e-01    3.390000e+00
  N2ah   C4v  1 4.700000e-01    3.390000e+00
  N2ah   C3v  1 4.700000e-01    3.390000e+00
  N2ah   C2v  1 4.700000e-01    3.240000e+00
  N2ah   C1v  1 4.700000e-01    3.070000e+00
  N2ah   X4v  1 4.700000e-01    3.690000e+00
  N2ah   X3v  1 4.700000e-01    3.520000e+00
  N2ah   X2v  1 4.700000e-01    3.390000e+00
  N2ah   X1v  1 4.700000e-01    3.390000e+00
  N1ah   C6v  1 4.700000e-01    3.690000e+00
  N1ah   C5v  1 4.700000e-01    3.520000e+00
  N1ah   C4v  1 4.700000e-01    3.520000e+00
  N1ah   C3v  1 4.700000e-01    3.390000e+00
  N1ah   C2v  1 4.700000e-01    3.240000e+00
  N1ah   C1v  1 4.700000e-01    3.070000e+00
  N1ah   X4v  1 4.700000e-01    3.520000e+00
  N1ah   X3v  1 4.700000e-01    3.520000e+00
  N1ah   X2v  1 4.700000e-01    3.390000e+00
  N1ah   X1v  1 4.700000e-01    3.390000e+00
  P6ah  X1vq  1 4.700000e-01    3.240000e+00
  P6ah  X2vq  1 4.700000e-01    3.390000e+00
  P6ah  X3vq  1 4.700000e-01    3.520000e+00
  P6ah  X4vq  1 4.700000e-01    3.520000e+00
  P6ah  C1vq  1 4.700000e-01    2.620000e+00
  P6ah  C2vq  1 4.700000e-01    2.960000e+00
  P6ah  C3vq  1 4.700000e-01    2.960000e+00
  P6ah  C4vq  1 4.700000e-01    3.070000e+00
  P6ah  C5vq  1 4.700000e-01    3.240000e+00
  P6ah  C6vq  1 4.700000e-01    3.390000e+00
  P5ah  X1vq  1 4.700000e-01    3.240000e+00
  P5ah  X2vq  1 4.700000e-01    3.520000e+00
  P5ah  X3vq  1 4.700000e-01    3.520000e+00
  P5ah  X4vq  1 4.700000e-01    3.690000e+00
  P5ah  C1vq  1 4.700000e-01    2.960000e+00
  P5ah  C2vq  1 4.700000e-01    3.070000e+00
  P5ah  C3vq  1 4.700000e-01    3.070000e+00
  P5ah  C4vq  1 4.700000e-01    3.240000e+00
  P5ah  C5vq  1 4.700000e-01    3.390000e+00
  P5ah  C6vq  1 4.700000e-01    3.390000e+00
  P4ah  X1vq  1 4.700000e-01    3.390000e+00
  P4ah  X2vq  1 4.700000e-01    3.520000e+00
  P4ah  X3vq  1 4.700000e-01    3.520000e+00
  P4ah  X4vq  1 4.700000e-01    3.690000e+00
  P4ah  C1vq  1 4.700000e-01    2.960000e+00
  P4ah  C2vq  1 4.700000e-01    3.070000e+00
  P4ah  C3vq  1 4.700000e-01    3.070000e+00
  P4ah  C4vq  1 4.700000e-01    3.240000e+00
  P4ah  C5vq  1 4.700000e-01    3.390000e+00
  P4ah  C6vq  1 4.700000e-01    3.520000e+00
  P3ah  X1vq  1 4.700000e-01    3.390000e+00
  P3ah  X2vq  1 4.700000e-01    3.520000e+00
  P3ah  X3vq  1 4.700000e-01    3.690000e+00
  P3ah  X4vq  1 4.700000e-01    3.690000e+00
  P3ah  C1vq  1 4.700000e-01    2.960000e+00
  P3ah  C2vq  1 4.700000e-01    3.070000e+00
  P3ah  C3vq  1 4.700000e-01    3.070000e+00
  P3ah  C4vq  1 4.700000e-01    3.390000e+00
  P3ah  C5vq  1 4.700000e-01    3.520000e+00
  P3ah  C6vq  1 4.700000e-01    3.690000e+00
  P2ah  X1vq  1 4.700000e-01    3.390000e+00
  P2ah  X2vq  1 4.700000e-01    3.520000e+00
  P2ah  X3vq  1 4.700000e-01    3.690000e+00
  P2ah  X4vq  1 4.700000e-01    3.690000e+00
  P2ah  C1vq  1 4.700000e-01    3.070000e+00
  P2ah  C2vq  1 4.700000e-01    3.240000e+00
  P2ah  C3vq  1 4.700000e-01    3.240000e+00
  P2ah  C4vq  1 4.700000e-01    3.390000e+00
  P2ah  C5vq  1 4.700000e-01    3.520000e+00
  P2ah  C6vq  1 4.700000e-01    3.690000e+00
  P1ah  X1vq  1 4.700000e-01    3.390000e+00
  P1ah  X2vq  1 4.700000e-01    3.520000e+00
  P1ah  X3vq  1 4.700000e-01    3.690000e+00
  P1ah  X4vq  1 4.700000e-01    3.690000e+00
  P1ah  C1vq  1 4.700000e-01    3.070000e+00
  P1ah  C2vq  1 4.700000e-01    3.240000e+00
  P1ah  C3vq  1 4.700000e-01    3.240000e+00
  P1ah  C4vq  1 4.700000e-01    3.390000e+00
  P1ah  C5vq  1 4.700000e-01    3.520000e+00
  P1ah  C6vq  1 4.700000e-01    3.690000e+00
  N6ah  X1vq  1 4.700000e-01    3.390000e+00
  N6ah  X2vq  1 4.700000e-01    3.520000e+00
  N6ah  X3vq  1 4.700000e-01    3.690000e+00
  N6ah  X4vq  1 4.700000e-01    3.880000e+00
  N6ah  C1vq  1 4.700000e-01    3.240000e+00
  N6ah  C2vq  1 4.700000e-01    3.390000e+00
  N6ah  C3vq  1 4.700000e-01    3.390000e+00
  N6ah  C4vq  1 4.700000e-01    3.520000e+00
  N6ah  C5vq  1 4.700000e-01    3.690000e+00
  N6ah  C6vq  1 4.700000e-01    3.880000e+00
  N5ah  X1vq  1 4.700000e-01    3.520000e+00
  N5ah  X2vq  1 4.700000e-01    3.690000e+00
  N5ah  X3vq  1 4.700000e-01    3.880000e+00
  N5ah  X4vq  1 4.700000e-01    4.060000e+00
  N5ah  C1vq  1 4.700000e-01    3.240000e+00
  N5ah  C2vq  1 4.700000e-01    3.390000e+00
  N5ah  C3vq  1 4.700000e-01    3.520000e+00
  N5ah  C4vq  1 4.700000e-01    3.520000e+00
  N5ah  C5vq  1 4.700000e-01    3.690000e+00
  N5ah  C6vq  1 4.700000e-01    3.880000e+00
  N4ah  X1vq  1 4.700000e-01    3.520000e+00
  N4ah  X2vq  1 4.700000e-01    3.690000e+00
  N4ah  X3vq  1 4.700000e-01    4.060000e+00
  N4ah  X4vq  1 4.700000e-01    4.250000e+00
  N4ah  C1vq  1 4.700000e-01    3.240000e+00
  N4ah  C2vq  1 4.700000e-01    3.390000e+00
  N4ah  C3vq  1 4.700000e-01    3.520000e+00
  N4ah  C4vq  1 4.700000e-01    3.690000e+00
  N4ah  C5vq  1 4.700000e-01    3.690000e+00
  N4ah  C6vq  1 4.700000e-01    3.880000e+00
  N3ah  X1vq  1 4.700000e-01    3.690000e+00
  N3ah  X2vq  1 4.700000e-01    3.690000e+00
  N3ah  X3vq  1 4.700000e-01    3.880000e+00
  N3ah  X4vq  1 4.700000e-01    4.060000e+00
  N3ah  C1vq  1 4.700000e-01    3.390000e+00
  N3ah  C2vq  1 4.700000e-01    3.520000e+00
  N3ah  C3vq  1 4.700000e-01    3.520000e+00
  N3ah  C4vq  1 4.700000e-01    3.690000e+00
  N3ah  C5vq  1 4.700000e-01    3.690000e+00
  N3ah  C6vq  1 4.700000e-01    3.880000e+00
  N2ah  X1vq  1 4.700000e-01    3.690000e+00
  N2ah  X2vq  1 4.700000e-01    3.690000e+00
  N2ah  X3vq  1 4.700000e-01    3.880000e+00
  N2ah  X4vq  1 4.700000e-01    4.060000e+00
  N2ah  C1vq  1 4.700000e-01    3.390000e+00
  N2ah  C2vq  1 4.700000e-01    3.520000e+00
  N2ah  C3vq  1 4.700000e-01    3.690000e+00
  N2ah  C4vq  1 4.700000e-01    3.690000e+00
  N2ah  C5vq  1 4.700000e-01    3.690000e+00
  N2ah  C6vq  1 4.700000e-01    3.880000e+00
  N1ah  X1vq  1 4.700000e-01    3.690000e+00
  N1ah  X2vq  1 4.700000e-01    3.690000e+00
  N1ah  X3vq  1 4.700000e-01    3.880000e+00
  N1ah  X4vq  1 4.700000e-01    3.880000e+00
  N1ah  C1vq  1 4.700000e-01    3.390000e+00
  N1ah  C2vq  1 4.700000e-01    3.520000e+00
  N1ah  C3vq  1 4.700000e-01    3.690000e+00
  N1ah  C4vq  1 4.700000e-01    3.880000e+00
  N1ah  C5vq  1 4.700000e-01    3.880000e+00
  N1ah  C6vq  1 4.700000e-01    4.060000e+00
  P6ah  C6vh  1 4.700000e-01    3.070000e+00
  P6ah  C5vh  1 4.700000e-01    2.960000e+00
  P6ah  C4vh  1 4.700000e-01    2.790000e+00
  P6ah  C3vh  1 4.700000e-01    2.620000e+00
  P6ah  C2vh  1 4.700000e-01    2.620000e+00
  P6ah  C1vh  1 4.850000e-01    2.240000e+00
  P6ah  X4vh  1 4.700000e-01    3.240000e+00
  P6ah  X3vh  1 4.700000e-01    3.240000e+00
  P6ah  X2vh  1 4.700000e-01    3.070000e+00
  P6ah  X1vh  1 4.700000e-01    2.960000e+00
  P5ah  C6vh  1 4.700000e-01    3.070000e+00
  P5ah  C5vh  1 4.700000e-01    3.070000e+00
  P5ah  C4vh  1 4.700000e-01    2.960000e+00
  P5ah  C3vh  1 4.700000e-01    2.790000e+00
  P5ah  C2vh  1 4.700000e-01    2.790000e+00
  P5ah  C1vh  1 4.700000e-01    2.620000e+00
  P5ah  X4vh  1 4.700000e-01    3.390000e+00
  P5ah  X3vh  1 4.700000e-01    3.240000e+00
  P5ah  X2vh  1 4.700000e-01    3.240000e+00
  P5ah  X1vh  1 4.700000e-01    2.960000e+00
  P4ah  C6vh  1 4.700000e-01    3.240000e+00
  P4ah  C5vh  1 4.700000e-01    3.070000e+00
  P4ah  C4vh  1 4.700000e-01    2.960000e+00
  P4ah  C3vh  1 4.700000e-01    2.790000e+00
  P4ah  C2vh  1 4.700000e-01    2.790000e+00
  P4ah  C1vh  1 4.700000e-01    2.620000e+00
  P4ah  X4vh  1 4.700000e-01    3.390000e+00
  P4ah  X3vh  1 4.700000e-01    3.240000e+00
  P4ah  X2vh  1 4.700000e-01    3.240000e+00
  P4ah  X1vh  1 4.700000e-01    3.070000e+00
  P3ah  C6vh  1 4.700000e-01    3.390000e+00
  P3ah  C5vh  1 4.700000e-01    3.240000e+00
  P3ah  C4vh  1 4.700000e-01    3.070000e+00
  P3ah  C3vh  1 4.700000e-01    2.790000e+00
  P3ah  C2vh  1 4.700000e-01    2.790000e+00
  P3ah  C1vh  1 4.700000e-01    2.620000e+00
  P3ah  X4vh  1 4.700000e-01    3.390000e+00
  P3ah  X3vh  1 4.700000e-01    3.390000e+00
  P3ah  X2vh  1 4.700000e-01    3.240000e+00
  P3ah  X1vh  1 4.700000e-01    3.070000e+00
  P2ah  C6vh  1 4.700000e-01    3.390000e+00
  P2ah  C5vh  1 4.700000e-01    3.240000e+00
  P2ah  C4vh  1 4.700000e-01    3.070000e+00
  P2ah  C3vh  1 4.700000e-01    2.960000e+00
  P2ah  C2vh  1 4.700000e-01    2.960000e+00
  P2ah  C1vh  1 4.700000e-01    2.790000e+00
  P2ah  X4vh  1 4.700000e-01    3.390000e+00
  P2ah  X3vh  1 4.700000e-01    3.390000e+00
  P2ah  X2vh  1 4.700000e-01    3.240000e+00
  P2ah  X1vh  1 4.700000e-01    3.070000e+00
  P1ah  C6vh  1 4.700000e-01    3.390000e+00
  P1ah  C5vh  1 4.700000e-01    3.240000e+00
  P1ah  C4vh  1 4.700000e-01    3.070000e+00
  P1ah  C3vh  1 4.700000e-01    2.960000e+00
  P1ah  C2vh  1 4.700000e-01    2.960000e+00
  P1ah  C1vh  1 4.700000e-01    2.790000e+00
  P1ah  X4vh  1 4.700000e-01    3.390000e+00
  P1ah  X3vh  1 4.700000e-01    3.390000e+00
  P1ah  X2vh  1 4.700000e-01    3.240000e+00
  P1ah  X1vh  1 4.700000e-01    3.070000e+00
  N6ah  C6vh  1 4.700000e-01    3.520000e+00
  N6ah  C5vh  1 4.700000e-01    3.390000e+00
  N6ah  C4vh  1 4.700000e-01    3.240000e+00
  N6ah  C3vh  1 4.700000e-01    3.070000e+00
  N6ah  C2vh  1 4.700000e-01    3.070000e+00
  N6ah  C1vh  1 4.700000e-01    2.960000e+00
  N6ah  X4vh  1 4.700000e-01    3.520000e+00
  N6ah  X3vh  1 4.700000e-01    3.390000e+00
  N6ah  X2vh  1 4.700000e-01    3.240000e+00
  N6ah  X1vh  1 4.700000e-01    3.070000e+00
  N5ah  C6vh  1 4.700000e-01    3.520000e+00
  N5ah  C5vh  1 4.700000e-01    3.390000e+00
  N5ah  C4vh  1 4.700000e-01    3.240000e+00
  N5ah  C3vh  1 4.700000e-01    3.240000e+00
  N5ah  C2vh  1 4.700000e-01    3.070000e+00
  N5ah  C1vh  1 4.700000e-01    2.960000e+00
  N5ah  X4vh  1 4.700000e-01    3.690000e+00
  N5ah  X3vh  1 4.700000e-01    3.520000e+00
  N5ah  X2vh  1 4.700000e-01    3.390000e+00
  N5ah  X1vh  1 4.700000e-01    3.240000e+00
  N4ah  C6vh  1 4.700000e-01    3.520000e+00
  N4ah  C5vh  1 4.700000e-01    3.390000e+00
  N4ah  C4vh  1 4.700000e-01    3.390000e+00
  N4ah  C3vh  1 4.700000e-01    3.240000e+00
  N4ah  C2vh  1 4.700000e-01    3.070000e+00
  N4ah  C1vh  1 4.700000e-01    2.960000e+00
  N4ah  X4vh  1 4.700000e-01    3.880000e+00
  N4ah  X3vh  1 4.700000e-01    3.690000e+00
  N4ah  X2vh  1 4.700000e-01    3.390000e+00
  N4ah  X1vh  1 4.700000e-01    3.240000e+00
  N3ah  C6vh  1 4.700000e-01    3.520000e+00
  N3ah  C5vh  1 4.700000e-01    3.390000e+00
  N3ah  C4vh  1 4.700000e-01    3.390000e+00
  N3ah  C3vh  1 4.700000e-01    3.240000e+00
  N3ah  C2vh  1 4.700000e-01    3.240000e+00
  N3ah  C1vh  1 4.700000e-01    3.070000e+00
  N3ah  X4vh  1 4.700000e-01    3.690000e+00
  N3ah  X3vh  1 4.700000e-01    3.520000e+00
  N3ah  X2vh  1 4.700000e-01    3.390000e+00
  N3ah  X1vh  1 4.700000e-01    3.390000e+00
  N2ah  C6vh  1 4.700000e-01    3.520000e+00
  N2ah  C5vh  1 4.700000e-01    3.390000e+00
  N2ah  C4vh  1 4.700000e-01    3.390000e+00
  N2ah  C3vh  1 4.700000e-01    3.390000e+00
  N2ah  C2vh  1 4.700000e-01    3.240000e+00
  N2ah  C1vh  1 4.700000e-01    3.070000e+00
  N2ah  X4vh  1 4.700000e-01    3.690000e+00
  N2ah  X3vh  1 4.700000e-01    3.520000e+00
  N2ah  X2vh  1 4.700000e-01    3.390000e+00
  N2ah  X1vh  1 4.700000e-01    3.390000e+00
  N1ah  C6vh  1 4.700000e-01    3.690000e+00
  N1ah  C5vh  1 4.700000e-01    3.520000e+00
  N1ah  C4vh  1 4.700000e-01    3.520000e+00
  N1ah  C3vh  1 4.700000e-01    3.390000e+00
  N1ah  C2vh  1 4.700000e-01    3.240000e+00
  N1ah  C1vh  1 4.700000e-01    3.070000e+00
  N1ah  X4vh  1 4.700000e-01    3.520000e+00
  N1ah  X3vh  1 4.700000e-01    3.520000e+00
  N1ah  X2vh  1 4.700000e-01    3.390000e+00
  N1ah  X1vh  1 4.700000e-01    3.390000e+00
  P6ah  C6vr  1 4.700000e-01    3.070000e+00
  P6ah  C5vr  1 4.700000e-01    2.960000e+00
  P6ah  C4vr  1 4.700000e-01    2.790000e+00
  P6ah  C3vr  1 4.700000e-01    2.620000e+00
  P6ah  C2vr  1 4.700000e-01    2.620000e+00
  P6ah  C1vr  1 4.850000e-01    2.240000e+00
  P6ah  X4vr  1 4.700000e-01    3.240000e+00
  P6ah  X3vr  1 4.700000e-01    3.240000e+00
  P6ah  X2vr  1 4.700000e-01    3.070000e+00
  P6ah  X1vr  1 4.700000e-01    2.960000e+00
  P5ah  C6vr  1 4.700000e-01    3.070000e+00
  P5ah  C5vr  1 4.700000e-01    3.070000e+00
  P5ah  C4vr  1 4.700000e-01    2.960000e+00
  P5ah  C3vr  1 4.700000e-01    2.790000e+00
  P5ah  C2vr  1 4.700000e-01    2.790000e+00
  P5ah  C1vr  1 4.700000e-01    2.620000e+00
  P5ah  X4vr  1 4.700000e-01    3.390000e+00
  P5ah  X3vr  1 4.700000e-01    3.240000e+00
  P5ah  X2vr  1 4.700000e-01    3.240000e+00
  P5ah  X1vr  1 4.700000e-01    2.960000e+00
  P4ah  C6vr  1 4.700000e-01    3.240000e+00
  P4ah  C5vr  1 4.700000e-01    3.070000e+00
  P4ah  C4vr  1 4.700000e-01    2.960000e+00
  P4ah  C3vr  1 4.700000e-01    2.790000e+00
  P4ah  C2vr  1 4.700000e-01    2.790000e+00
  P4ah  C1vr  1 4.700000e-01    2.620000e+00
  P4ah  X4vr  1 4.700000e-01    3.390000e+00
  P4ah  X3vr  1 4.700000e-01    3.240000e+00
  P4ah  X2vr  1 4.700000e-01    3.240000e+00
  P4ah  X1vr  1 4.700000e-01    3.070000e+00
  P3ah  C6vr  1 4.700000e-01    3.390000e+00
  P3ah  C5vr  1 4.700000e-01    3.240000e+00
  P3ah  C4vr  1 4.700000e-01    3.070000e+00
  P3ah  C3vr  1 4.700000e-01    2.790000e+00
  P3ah  C2vr  1 4.700000e-01    2.790000e+00
  P3ah  C1vr  1 4.700000e-01    2.620000e+00
  P3ah  X4vr  1 4.700000e-01    3.390000e+00
  P3ah  X3vr  1 4.700000e-01    3.390000e+00
  P3ah  X2vr  1 4.700000e-01    3.240000e+00
  P3ah  X1vr  1 4.700000e-01    3.070000e+00
  P2ah  C6vr  1 4.700000e-01    3.390000e+00
  P2ah  C5vr  1 4.700000e-01    3.240000e+00
  P2ah  C4vr  1 4.700000e-01    3.070000e+00
  P2ah  C3vr  1 4.700000e-01    2.960000e+00
  P2ah  C2vr  1 4.700000e-01    2.960000e+00
  P2ah  C1vr  1 4.700000e-01    2.790000e+00
  P2ah  X4vr  1 4.700000e-01    3.390000e+00
  P2ah  X3vr  1 4.700000e-01    3.390000e+00
  P2ah  X2vr  1 4.700000e-01    3.240000e+00
  P2ah  X1vr  1 4.700000e-01    3.070000e+00
  P1ah  C6vr  1 4.700000e-01    3.390000e+00
  P1ah  C5vr  1 4.700000e-01    3.240000e+00
  P1ah  C4vr  1 4.700000e-01    3.070000e+00
  P1ah  C3vr  1 4.700000e-01    2.960000e+00
  P1ah  C2vr  1 4.700000e-01    2.960000e+00
  P1ah  C1vr  1 4.700000e-01    2.790000e+00
  P1ah  X4vr  1 4.700000e-01    3.390000e+00
  P1ah  X3vr  1 4.700000e-01    3.390000e+00
  P1ah  X2vr  1 4.700000e-01    3.240000e+00
  P1ah  X1vr  1 4.700000e-01    3.070000e+00
  N6ah  C6vr  1 4.700000e-01    3.520000e+00
  N6ah  C5vr  1 4.700000e-01    3.390000e+00
  N6ah  C4vr  1 4.700000e-01    3.240000e+00
  N6ah  C3vr  1 4.700000e-01    3.070000e+00
  N6ah  C2vr  1 4.700000e-01    3.070000e+00
  N6ah  C1vr  1 4.700000e-01    2.960000e+00
  N6ah  X4vr  1 4.700000e-01    3.520000e+00
  N6ah  X3vr  1 4.700000e-01    3.390000e+00
  N6ah  X2vr  1 4.700000e-01    3.240000e+00
  N6ah  X1vr  1 4.700000e-01    3.070000e+00
  N5ah  C6vr  1 4.700000e-01    3.520000e+00
  N5ah  C5vr  1 4.700000e-01    3.390000e+00
  N5ah  C4vr  1 4.700000e-01    3.240000e+00
  N5ah  C3vr  1 4.700000e-01    3.240000e+00
  N5ah  C2vr  1 4.700000e-01    3.070000e+00
  N5ah  C1vr  1 4.700000e-01    2.960000e+00
  N5ah  X4vr  1 4.700000e-01    3.690000e+00
  N5ah  X3vr  1 4.700000e-01    3.520000e+00
  N5ah  X2vr  1 4.700000e-01    3.390000e+00
  N5ah  X1vr  1 4.700000e-01    3.240000e+00
  N4ah  C6vr  1 4.700000e-01    3.520000e+00
  N4ah  C5vr  1 4.700000e-01    3.390000e+00
  N4ah  C4vr  1 4.700000e-01    3.390000e+00
  N4ah  C3vr  1 4.700000e-01    3.240000e+00
  N4ah  C2vr  1 4.700000e-01    3.070000e+00
  N4ah  C1vr  1 4.700000e-01    2.960000e+00
  N4ah  X4vr  1 4.700000e-01    3.880000e+00
  N4ah  X3vr  1 4.700000e-01    3.690000e+00
  N4ah  X2vr  1 4.700000e-01    3.390000e+00
  N4ah  X1vr  1 4.700000e-01    3.240000e+00
  N3ah  C6vr  1 4.700000e-01    3.520000e+00
  N3ah  C5vr  1 4.700000e-01    3.390000e+00
  N3ah  C4vr  1 4.700000e-01    3.390000e+00
  N3ah  C3vr  1 4.700000e-01    3.240000e+00
  N3ah  C2vr  1 4.700000e-01    3.240000e+00
  N3ah  C1vr  1 4.700000e-01    3.070000e+00
  N3ah  X4vr  1 4.700000e-01    3.690000e+00
  N3ah  X3vr  1 4.700000e-01    3.520000e+00
  N3ah  X2vr  1 4.700000e-01    3.390000e+00
  N3ah  X1vr  1 4.700000e-01    3.390000e+00
  N2ah  C6vr  1 4.700000e-01    3.520000e+00
  N2ah  C5vr  1 4.700000e-01    3.390000e+00
  N2ah  C4vr  1 4.700000e-01    3.390000e+00
  N2ah  C3vr  1 4.700000e-01    3.390000e+00
  N2ah  C2vr  1 4.700000e-01    3.240000e+00
  N2ah  C1vr  1 4.700000e-01    3.070000e+00
  N2ah  X4vr  1 4.700000e-01    3.690000e+00
  N2ah  X3vr  1 4.700000e-01    3.520000e+00
  N2ah  X2vr  1 4.700000e-01    3.390000e+00
  N2ah  X1vr  1 4.700000e-01    3.390000e+00
  N1ah  C6vr  1 4.700000e-01    3.690000e+00
  N1ah  C5vr  1 4.700000e-01    3.520000e+00
  N1ah  C4vr  1 4.700000e-01    3.520000e+00
  N1ah  C3vr  1 4.700000e-01    3.390000e+00
  N1ah  C2vr  1 4.700000e-01    3.240000e+00
  N1ah  C1vr  1 4.700000e-01    3.070000e+00
  N1ah  X4vr  1 4.700000e-01    3.520000e+00
  N1ah  X3vr  1 4.700000e-01    3.520000e+00
  N1ah  X2vr  1 4.700000e-01    3.390000e+00
  N1ah  X1vr  1 4.700000e-01    3.390000e+00
  P6ar   C6v  1 4.700000e-01    3.070000e+00
  P6ar   C5v  1 4.700000e-01    2.960000e+00
  P6ar   C4v  1 4.700000e-01    2.790000e+00
  P6ar   C3v  1 4.700000e-01    2.620000e+00
  P6ar   C2v  1 4.700000e-01    2.620000e+00
  P6ar   C1v  1 4.850000e-01    2.240000e+00
  P6ar   X4v  1 4.700000e-01    3.240000e+00
  P6ar   X3v  1 4.700000e-01    3.240000e+00
  P6ar   X2v  1 4.700000e-01    3.070000e+00
  P6ar   X1v  1 4.700000e-01    2.960000e+00
  P5ar   C6v  1 4.700000e-01    3.070000e+00
  P5ar   C5v  1 4.700000e-01    3.070000e+00
  P5ar   C4v  1 4.700000e-01    2.960000e+00
  P5ar   C3v  1 4.700000e-01    2.790000e+00
  P5ar   C2v  1 4.700000e-01    2.790000e+00
  P5ar   C1v  1 4.700000e-01    2.620000e+00
  P5ar   X4v  1 4.700000e-01    3.390000e+00
  P5ar   X3v  1 4.700000e-01    3.240000e+00
  P5ar   X2v  1 4.700000e-01    3.240000e+00
  P5ar   X1v  1 4.700000e-01    2.960000e+00
  P4ar   C6v  1 4.700000e-01    3.240000e+00
  P4ar   C5v  1 4.700000e-01    3.070000e+00
  P4ar   C4v  1 4.700000e-01    2.960000e+00
  P4ar   C3v  1 4.700000e-01    2.790000e+00
  P4ar   C2v  1 4.700000e-01    2.790000e+00
  P4ar   C1v  1 4.700000e-01    2.620000e+00
  P4ar   X4v  1 4.700000e-01    3.390000e+00
  P4ar   X3v  1 4.700000e-01    3.240000e+00
  P4ar   X2v  1 4.700000e-01    3.240000e+00
  P4ar   X1v  1 4.700000e-01    3.070000e+00
  P3ar   C6v  1 4.700000e-01    3.390000e+00
  P3ar   C5v  1 4.700000e-01    3.240000e+00
  P3ar   C4v  1 4.700000e-01    3.070000e+00
  P3ar   C3v  1 4.700000e-01    2.790000e+00
  P3ar   C2v  1 4.700000e-01    2.790000e+00
  P3ar   C1v  1 4.700000e-01    2.620000e+00
  P3ar   X4v  1 4.700000e-01    3.390000e+00
  P3ar   X3v  1 4.700000e-01    3.390000e+00
  P3ar   X2v  1 4.700000e-01    3.240000e+00
  P3ar   X1v  1 4.700000e-01    3.070000e+00
  P2ar   C6v  1 4.700000e-01    3.390000e+00
  P2ar   C5v  1 4.700000e-01    3.240000e+00
  P2ar   C4v  1 4.700000e-01    3.070000e+00
  P2ar   C3v  1 4.700000e-01    2.960000e+00
  P2ar   C2v  1 4.700000e-01    2.960000e+00
  P2ar   C1v  1 4.700000e-01    2.790000e+00
  P2ar   X4v  1 4.700000e-01    3.390000e+00
  P2ar   X3v  1 4.700000e-01    3.390000e+00
  P2ar   X2v  1 4.700000e-01    3.240000e+00
  P2ar   X1v  1 4.700000e-01    3.070000e+00
  P1ar   C6v  1 4.700000e-01    3.390000e+00
  P1ar   C5v  1 4.700000e-01    3.240000e+00
  P1ar   C4v  1 4.700000e-01    3.070000e+00
  P1ar   C3v  1 4.700000e-01    2.960000e+00
  P1ar   C2v  1 4.700000e-01    2.960000e+00
  P1ar   C1v  1 4.700000e-01    2.790000e+00
  P1ar   X4v  1 4.700000e-01    3.390000e+00
  P1ar   X3v  1 4.700000e-01    3.390000e+00
  P1ar   X2v  1 4.700000e-01    3.240000e+00
  P1ar   X1v  1 4.700000e-01    3.070000e+00
  N6ar   C6v  1 4.700000e-01    3.520000e+00
  N6ar   C5v  1 4.700000e-01    3.390000e+00
  N6ar   C4v  1 4.700000e-01    3.240000e+00
  N6ar   C3v  1 4.700000e-01    3.070000e+00
  N6ar   C2v  1 4.700000e-01    3.070000e+00
  N6ar   C1v  1 4.700000e-01    2.960000e+00
  N6ar   X4v  1 4.700000e-01    3.520000e+00
  N6ar   X3v  1 4.700000e-01    3.390000e+00
  N6ar   X2v  1 4.700000e-01    3.240000e+00
  N6ar   X1v  1 4.700000e-01    3.070000e+00
  N5ar   C6v  1 4.700000e-01    3.520000e+00
  N5ar   C5v  1 4.700000e-01    3.390000e+00
  N5ar   C4v  1 4.700000e-01    3.240000e+00
  N5ar   C3v  1 4.700000e-01    3.240000e+00
  N5ar   C2v  1 4.700000e-01    3.070000e+00
  N5ar   C1v  1 4.700000e-01    2.960000e+00
  N5ar   X4v  1 4.700000e-01    3.690000e+00
  N5ar   X3v  1 4.700000e-01    3.520000e+00
  N5ar   X2v  1 4.700000e-01    3.390000e+00
  N5ar   X1v  1 4.700000e-01    3.240000e+00
  N4ar   C6v  1 4.700000e-01    3.520000e+00
  N4ar   C5v  1 4.700000e-01    3.390000e+00
  N4ar   C4v  1 4.700000e-01    3.390000e+00
  N4ar   C3v  1 4.700000e-01    3.240000e+00
  N4ar   C2v  1 4.700000e-01    3.070000e+00
  N4ar   C1v  1 4.700000e-01    2.960000e+00
  N4ar   X4v  1 4.700000e-01    3.880000e+00
  N4ar   X3v  1 4.700000e-01    3.690000e+00
  N4ar   X2v  1 4.700000e-01    3.390000e+00
  N4ar   X1v  1 4.700000e-01    3.240000e+00
  N3ar   C6v  1 4.700000e-01    3.520000e+00
  N3ar   C5v  1 4.700000e-01    3.390000e+00
  N3ar   C4v  1 4.700000e-01    3.390000e+00
  N3ar   C3v  1 4.700000e-01    3.240000e+00
  N3ar   C2v  1 4.700000e-01    3.240000e+00
  N3ar   C1v  1 4.700000e-01    3.070000e+00
  N3ar   X4v  1 4.700000e-01    3.690000e+00
  N3ar   X3v  1 4.700000e-01    3.520000e+00
  N3ar   X2v  1 4.700000e-01    3.390000e+00
  N3ar   X1v  1 4.700000e-01    3.390000e+00
  N2ar   C6v  1 4.700000e-01    3.520000e+00
  N2ar   C5v  1 4.700000e-01    3.390000e+00
  N2ar   C4v  1 4.700000e-01    3.390000e+00
  N2ar   C3v  1 4.700000e-01    3.390000e+00
  N2ar   C2v  1 4.700000e-01    3.240000e+00
  N2ar   C1v  1 4.700000e-01    3.070000e+00
  N2ar   X4v  1 4.700000e-01    3.690000e+00
  N2ar   X3v  1 4.700000e-01    3.520000e+00
  N2ar   X2v  1 4.700000e-01    3.390000e+00
  N2ar   X1v  1 4.700000e-01    3.390000e+00
  N1ar   C6v  1 4.700000e-01    3.690000e+00
  N1ar   C5v  1 4.700000e-01    3.520000e+00
  N1ar   C4v  1 4.700000e-01    3.520000e+00
  N1ar   C3v  1 4.700000e-01    3.390000e+00
  N1ar   C2v  1 4.700000e-01    3.240000e+00
  N1ar   C1v  1 4.700000e-01    3.070000e+00
  N1ar   X4v  1 4.700000e-01    3.520000e+00
  N1ar   X3v  1 4.700000e-01    3.520000e+00
  N1ar   X2v  1 4.700000e-01    3.390000e+00
  N1ar   X1v  1 4.700000e-01    3.390000e+00
  P6ar  X1vq  1 4.700000e-01    3.240000e+00
  P6ar  X2vq  1 4.700000e-01    3.390000e+00
  P6ar  X3vq  1 4.700000e-01    3.520000e+00
  P6ar  X4vq  1 4.700000e-01    3.520000e+00
  P6ar  C1vq  1 4.700000e-01    2.620000e+00
  P6ar  C2vq  1 4.700000e-01    2.960000e+00
  P6ar  C3vq  1 4.700000e-01    2.960000e+00
  P6ar  C4vq  1 4.700000e-01    3.070000e+00
  P6ar  C5vq  1 4.700000e-01    3.240000e+00
  P6ar  C6vq  1 4.700000e-01    3.390000e+00
  P5ar  X1vq  1 4.700000e-01    3.240000e+00
  P5ar  X2vq  1 4.700000e-01    3.520000e+00
  P5ar  X3vq  1 4.700000e-01    3.520000e+00
  P5ar  X4vq  1 4.700000e-01    3.690000e+00
  P5ar  C1vq  1 4.700000e-01    2.960000e+00
  P5ar  C2vq  1 4.700000e-01    3.070000e+00
  P5ar  C3vq  1 4.700000e-01    3.070000e+00
  P5ar  C4vq  1 4.700000e-01    3.240000e+00
  P5ar  C5vq  1 4.700000e-01    3.390000e+00
  P5ar  C6vq  1 4.700000e-01    3.390000e+00
  P4ar  X1vq  1 4.700000e-01    3.390000e+00
  P4ar  X2vq  1 4.700000e-01    3.520000e+00
  P4ar  X3vq  1 4.700000e-01    3.520000e+00
  P4ar  X4vq  1 4.700000e-01    3.690000e+00
  P4ar  C1vq  1 4.700000e-01    2.960000e+00
  P4ar  C2vq  1 4.700000e-01    3.070000e+00
  P4ar  C3vq  1 4.700000e-01    3.070000e+00
  P4ar  C4vq  1 4.700000e-01    3.240000e+00
  P4ar  C5vq  1 4.700000e-01    3.390000e+00
  P4ar  C6vq  1 4.700000e-01    3.520000e+00
  P3ar  X1vq  1 4.700000e-01    3.390000e+00
  P3ar  X2vq  1 4.700000e-01    3.520000e+00
  P3ar  X3vq  1 4.700000e-01    3.690000e+00
  P3ar  X4vq  1 4.700000e-01    3.690000e+00
  P3ar  C1vq  1 4.700000e-01    2.960000e+00
  P3ar  C2vq  1 4.700000e-01    3.070000e+00
  P3ar  C3vq  1 4.700000e-01    3.070000e+00
  P3ar  C4vq  1 4.700000e-01    3.390000e+00
  P3ar  C5vq  1 4.700000e-01    3.520000e+00
  P3ar  C6vq  1 4.700000e-01    3.690000e+00
  P2ar  X1vq  1 4.700000e-01    3.390000e+00
  P2ar  X2vq  1 4.700000e-01    3.520000e+00
  P2ar  X3vq  1 4.700000e-01    3.690000e+00
  P2ar  X4vq  1 4.700000e-01    3.690000e+00
  P2ar  C1vq  1 4.700000e-01    3.070000e+00
  P2ar  C2vq  1 4.700000e-01    3.240000e+00
  P2ar  C3vq  1 4.700000e-01    3.240000e+00
  P2ar  C4vq  1 4.700000e-01    3.390000e+00
  P2ar  C5vq  1 4.700000e-01    3.520000e+00
  P2ar  C6vq  1 4.700000e-01    3.690000e+00
  P1ar  X1vq  1 4.700000e-01    3.390000e+00
  P1ar  X2vq  1 4.700000e-01    3.520000e+00
  P1ar  X3vq  1 4.700000e-01    3.690000e+00
  P1ar  X4vq  1 4.700000e-01    3.690000e+00
  P1ar  C1vq  1 4.700000e-01    3.070000e+00
  P1ar  C2vq  1 4.700000e-01    3.240000e+00
  P1ar  C3vq  1 4.700000e-01    3.240000e+00
  P1ar  C4vq  1 4.700000e-01    3.390000e+00
  P1ar  C5vq  1 4.700000e-01    3.520000e+00
  P1ar  C6vq  1 4.700000e-01    3.690000e+00
  N6ar  X1vq  1 4.700000e-01    3.390000e+00
  N6ar  X2vq  1 4.700000e-01    3.520000e+00
  N6ar  X3vq  1 4.700000e-01    3.690000e+00
  N6ar  X4vq  1 4.700000e-01    3.880000e+00
  N6ar  C1vq  1 4.700000e-01    3.240000e+00
  N6ar  C2vq  1 4.700000e-01    3.390000e+00
  N6ar  C3vq  1 4.700000e-01    3.390000e+00
  N6ar  C4vq  1 4.700000e-01    3.520000e+00
  N6ar  C5vq  1 4.700000e-01    3.690000e+00
  N6ar  C6vq  1 4.700000e-01    3.880000e+00
  N5ar  X1vq  1 4.700000e-01    3.520000e+00
  N5ar  X2vq  1 4.700000e-01    3.690000e+00
  N5ar  X3vq  1 4.700000e-01    3.880000e+00
  N5ar  X4vq  1 4.700000e-01    4.060000e+00
  N5ar  C1vq  1 4.700000e-01    3.240000e+00
  N5ar  C2vq  1 4.700000e-01    3.390000e+00
  N5ar  C3vq  1 4.700000e-01    3.520000e+00
  N5ar  C4vq  1 4.700000e-01    3.520000e+00
  N5ar  C5vq  1 4.700000e-01    3.690000e+00
  N5ar  C6vq  1 4.700000e-01    3.880000e+00
  N4ar  X1vq  1 4.700000e-01    3.520000e+00
  N4ar  X2vq  1 4.700000e-01    3.690000e+00
  N4ar  X3vq  1 4.700000e-01    4.060000e+00
  N4ar  X4vq  1 4.700000e-01    4.250000e+00
  N4ar  C1vq  1 4.700000e-01    3.240000e+00
  N4ar  C2vq  1 4.700000e-01    3.390000e+00
  N4ar  C3vq  1 4.700000e-01    3.520000e+00
  N4ar  C4vq  1 4.700000e-01    3.690000e+00
  N4ar  C5vq  1 4.700000e-01    3.690000e+00
  N4ar  C6vq  1 4.700000e-01    3.880000e+00
  N3ar  X1vq  1 4.700000e-01    3.690000e+00
  N3ar  X2vq  1 4.700000e-01    3.690000e+00
  N3ar  X3vq  1 4.700000e-01    3.880000e+00
  N3ar  X4vq  1 4.700000e-01    4.060000e+00
  N3ar  C1vq  1 4.700000e-01    3.390000e+00
  N3ar  C2vq  1 4.700000e-01    3.520000e+00
  N3ar  C3vq  1 4.700000e-01    3.520000e+00
  N3ar  C4vq  1 4.700000e-01    3.690000e+00
  N3ar  C5vq  1 4.700000e-01    3.690000e+00
  N3ar  C6vq  1 4.700000e-01    3.880000e+00
  N2ar  X1vq  1 4.700000e-01    3.690000e+00
  N2ar  X2vq  1 4.700000e-01    3.690000e+00
  N2ar  X3vq  1 4.700000e-01    3.880000e+00
  N2ar  X4vq  1 4.700000e-01    4.060000e+00
  N2ar  C1vq  1 4.700000e-01    3.390000e+00
  N2ar  C2vq  1 4.700000e-01    3.520000e+00
  N2ar  C3vq  1 4.700000e-01    3.690000e+00
  N2ar  C4vq  1 4.700000e-01    3.690000e+00
  N2ar  C5vq  1 4.700000e-01    3.690000e+00
  N2ar  C6vq  1 4.700000e-01    3.880000e+00
  N1ar  X1vq  1 4.700000e-01    3.690000e+00
  N1ar  X2vq  1 4.700000e-01    3.690000e+00
  N1ar  X3vq  1 4.700000e-01    3.880000e+00
  N1ar  X4vq  1 4.700000e-01    3.880000e+00
  N1ar  C1vq  1 4.700000e-01    3.390000e+00
  N1ar  C2vq  1 4.700000e-01    3.520000e+00
  N1ar  C3vq  1 4.700000e-01    3.690000e+00
  N1ar  C4vq  1 4.700000e-01    3.880000e+00
  N1ar  C5vq  1 4.700000e-01    3.880000e+00
  N1ar  C6vq  1 4.700000e-01    4.060000e+00
  P6ar  C6vh  1 4.700000e-01    3.070000e+00
  P6ar  C5vh  1 4.700000e-01    2.960000e+00
  P6ar  C4vh  1 4.700000e-01    2.790000e+00
  P6ar  C3vh  1 4.700000e-01    2.620000e+00
  P6ar  C2vh  1 4.700000e-01    2.620000e+00
  P6ar  C1vh  1 4.850000e-01    2.240000e+00
  P6ar  X4vh  1 4.700000e-01    3.240000e+00
  P6ar  X3vh  1 4.700000e-01    3.240000e+00
  P6ar  X2vh  1 4.700000e-01    3.070000e+00
  P6ar  X1vh  1 4.700000e-01    2.960000e+00
  P5ar  C6vh  1 4.700000e-01    3.070000e+00
  P5ar  C5vh  1 4.700000e-01    3.070000e+00
  P5ar  C4vh  1 4.700000e-01    2.960000e+00
  P5ar  C3vh  1 4.700000e-01    2.790000e+00
  P5ar  C2vh  1 4.700000e-01    2.790000e+00
  P5ar  C1vh  1 4.700000e-01    2.620000e+00
  P5ar  X4vh  1 4.700000e-01    3.390000e+00
  P5ar  X3vh  1 4.700000e-01    3.240000e+00
  P5ar  X2vh  1 4.700000e-01    3.240000e+00
  P5ar  X1vh  1 4.700000e-01    2.960000e+00
  P4ar  C6vh  1 4.700000e-01    3.240000e+00
  P4ar  C5vh  1 4.700000e-01    3.070000e+00
  P4ar  C4vh  1 4.700000e-01    2.960000e+00
  P4ar  C3vh  1 4.700000e-01    2.790000e+00
  P4ar  C2vh  1 4.700000e-01    2.790000e+00
  P4ar  C1vh  1 4.700000e-01    2.620000e+00
  P4ar  X4vh  1 4.700000e-01    3.390000e+00
  P4ar  X3vh  1 4.700000e-01    3.240000e+00
  P4ar  X2vh  1 4.700000e-01    3.240000e+00
  P4ar  X1vh  1 4.700000e-01    3.070000e+00
  P3ar  C6vh  1 4.700000e-01    3.390000e+00
  P3ar  C5vh  1 4.700000e-01    3.240000e+00
  P3ar  C4vh  1 4.700000e-01    3.070000e+00
  P3ar  C3vh  1 4.700000e-01    2.790000e+00
  P3ar  C2vh  1 4.700000e-01    2.790000e+00
  P3ar  C1vh  1 4.700000e-01    2.620000e+00
  P3ar  X4vh  1 4.700000e-01    3.390000e+00
  P3ar  X3vh  1 4.700000e-01    3.390000e+00
  P3ar  X2vh  1 4.700000e-01    3.240000e+00
  P3ar  X1vh  1 4.700000e-01    3.070000e+00
  P2ar  C6vh  1 4.700000e-01    3.390000e+00
  P2ar  C5vh  1 4.700000e-01    3.240000e+00
  P2ar  C4vh  1 4.700000e-01    3.070000e+00
  P2ar  C3vh  1 4.700000e-01    2.960000e+00
  P2ar  C2vh  1 4.700000e-01    2.960000e+00
  P2ar  C1vh  1 4.700000e-01    2.790000e+00
  P2ar  X4vh  1 4.700000e-01    3.390000e+00
  P2ar  X3vh  1 4.700000e-01    3.390000e+00
  P2ar  X2vh  1 4.700000e-01    3.240000e+00
  P2ar  X1vh  1 4.700000e-01    3.070000e+00
  P1ar  C6vh  1 4.700000e-01    3.390000e+00
  P1ar  C5vh  1 4.700000e-01    3.240000e+00
  P1ar  C4vh  1 4.700000e-01    3.070000e+00
  P1ar  C3vh  1 4.700000e-01    2.960000e+00
  P1ar  C2vh  1 4.700000e-01    2.960000e+00
  P1ar  C1vh  1 4.700000e-01    2.790000e+00
  P1ar  X4vh  1 4.700000e-01    3.390000e+00
  P1ar  X3vh  1 4.700000e-01    3.390000e+00
  P1ar  X2vh  1 4.700000e-01    3.240000e+00
  P1ar  X1vh  1 4.700000e-01    3.070000e+00
  N6ar  C6vh  1 4.700000e-01    3.520000e+00
  N6ar  C5vh  1 4.700000e-01    3.390000e+00
  N6ar  C4vh  1 4.700000e-01    3.240000e+00
  N6ar  C3vh  1 4.700000e-01    3.070000e+00
  N6ar  C2vh  1 4.700000e-01    3.070000e+00
  N6ar  C1vh  1 4.700000e-01    2.960000e+00
  N6ar  X4vh  1 4.700000e-01    3.520000e+00
  N6ar  X3vh  1 4.700000e-01    3.390000e+00
  N6ar  X2vh  1 4.700000e-01    3.240000e+00
  N6ar  X1vh  1 4.700000e-01    3.070000e+00
  N5ar  C6vh  1 4.700000e-01    3.520000e+00
  N5ar  C5vh  1 4.700000e-01    3.390000e+00
  N5ar  C4vh  1 4.700000e-01    3.240000e+00
  N5ar  C3vh  1 4.700000e-01    3.240000e+00
  N5ar  C2vh  1 4.700000e-01    3.070000e+00
  N5ar  C1vh  1 4.700000e-01    2.960000e+00
  N5ar  X4vh  1 4.700000e-01    3.690000e+00
  N5ar  X3vh  1 4.700000e-01    3.520000e+00
  N5ar  X2vh  1 4.700000e-01    3.390000e+00
  N5ar  X1vh  1 4.700000e-01    3.240000e+00
  N4ar  C6vh  1 4.700000e-01    3.520000e+00
  N4ar  C5vh  1 4.700000e-01    3.390000e+00
  N4ar  C4vh  1 4.700000e-01    3.390000e+00
  N4ar  C3vh  1 4.700000e-01    3.240000e+00
  N4ar  C2vh  1 4.700000e-01    3.070000e+00
  N4ar  C1vh  1 4.700000e-01    2.960000e+00
  N4ar  X4vh  1 4.700000e-01    3.880000e+00
  N4ar  X3vh  1 4.700000e-01    3.690000e+00
  N4ar  X2vh  1 4.700000e-01    3.390000e+00
  N4ar  X1vh  1 4.700000e-01    3.240000e+00
  N3ar  C6vh  1 4.700000e-01    3.520000e+00
  N3ar  C5vh  1 4.700000e-01    3.390000e+00
  N3ar  C4vh  1 4.700000e-01    3.390000e+00
  N3ar  C3vh  1 4.700000e-01    3.240000e+00
  N3ar  C2vh  1 4.700000e-01    3.240000e+00
  N3ar  C1vh  1 4.700000e-01    3.070000e+00
  N3ar  X4vh  1 4.700000e-01    3.690000e+00
  N3ar  X3vh  1 4.700000e-01    3.520000e+00
  N3ar  X2vh  1 4.700000e-01    3.390000e+00
  N3ar  X1vh  1 4.700000e-01    3.390000e+00
  N2ar  C6vh  1 4.700000e-01    3.520000e+00
  N2ar  C5vh  1 4.700000e-01    3.390000e+00
  N2ar  C4vh  1 4.700000e-01    3.390000e+00
  N2ar  C3vh  1 4.700000e-01    3.390000e+00
  N2ar  C2vh  1 4.700000e-01    3.240000e+00
  N2ar  C1vh  1 4.700000e-01    3.070000e+00
  N2ar  X4vh  1 4.700000e-01    3.690000e+00
  N2ar  X3vh  1 4.700000e-01    3.520000e+00
  N2ar  X2vh  1 4.700000e-01    3.390000e+00
  N2ar  X1vh  1 4.700000e-01    3.390000e+00
  N1ar  C6vh  1 4.700000e-01    3.690000e+00
  N1ar  C5vh  1 4.700000e-01    3.520000e+00
  N1ar  C4vh  1 4.700000e-01    3.520000e+00
  N1ar  C3vh  1 4.700000e-01    3.390000e+00
  N1ar  C2vh  1 4.700000e-01    3.240000e+00
  N1ar  C1vh  1 4.700000e-01    3.070000e+00
  N1ar  X4vh  1 4.700000e-01    3.520000e+00
  N1ar  X3vh  1 4.700000e-01    3.520000e+00
  N1ar  X2vh  1 4.700000e-01    3.390000e+00
  N1ar  X1vh  1 4.700000e-01    3.390000e+00
  P6ar  C6vr  1 4.700000e-01    3.070000e+00
  P6ar  C5vr  1 4.700000e-01    2.960000e+00
  P6ar  C4vr  1 4.700000e-01    2.790000e+00
  P6ar  C3vr  1 4.700000e-01    2.620000e+00
  P6ar  C2vr  1 4.700000e-01    2.620000e+00
  P6ar  C1vr  1 4.850000e-01    2.240000e+00
  P6ar  X4vr  1 4.700000e-01    3.240000e+00
  P6ar  X3vr  1 4.700000e-01    3.240000e+00
  P6ar  X2vr  1 4.700000e-01    3.070000e+00
  P6ar  X1vr  1 4.700000e-01    2.960000e+00
  P5ar  C6vr  1 4.700000e-01    3.070000e+00
  P5ar  C5vr  1 4.700000e-01    3.070000e+00
  P5ar  C4vr  1 4.700000e-01    2.960000e+00
  P5ar  C3vr  1 4.700000e-01    2.790000e+00
  P5ar  C2vr  1 4.700000e-01    2.790000e+00
  P5ar  C1vr  1 4.700000e-01    2.620000e+00
  P5ar  X4vr  1 4.700000e-01    3.390000e+00
  P5ar  X3vr  1 4.700000e-01    3.240000e+00
  P5ar  X2vr  1 4.700000e-01    3.240000e+00
  P5ar  X1vr  1 4.700000e-01    2.960000e+00
  P4ar  C6vr  1 4.700000e-01    3.240000e+00
  P4ar  C5vr  1 4.700000e-01    3.070000e+00
  P4ar  C4vr  1 4.700000e-01    2.960000e+00
  P4ar  C3vr  1 4.700000e-01    2.790000e+00
  P4ar  C2vr  1 4.700000e-01    2.790000e+00
  P4ar  C1vr  1 4.700000e-01    2.620000e+00
  P4ar  X4vr  1 4.700000e-01    3.390000e+00
  P4ar  X3vr  1 4.700000e-01    3.240000e+00
  P4ar  X2vr  1 4.700000e-01    3.240000e+00
  P4ar  X1vr  1 4.700000e-01    3.070000e+00
  P3ar  C6vr  1 4.700000e-01    3.390000e+00
  P3ar  C5vr  1 4.700000e-01    3.240000e+00
  P3ar  C4vr  1 4.700000e-01    3.070000e+00
  P3ar  C3vr  1 4.700000e-01    2.790000e+00
  P3ar  C2vr  1 4.700000e-01    2.790000e+00
  P3ar  C1vr  1 4.700000e-01    2.620000e+00
  P3ar  X4vr  1 4.700000e-01    3.390000e+00
  P3ar  X3vr  1 4.700000e-01    3.390000e+00
  P3ar  X2vr  1 4.700000e-01    3.240000e+00
  P3ar  X1vr  1 4.700000e-01    3.070000e+00
  P2ar  C6vr  1 4.700000e-01    3.390000e+00
  P2ar  C5vr  1 4.700000e-01    3.240000e+00
  P2ar  C4vr  1 4.700000e-01    3.070000e+00
  P2ar  C3vr  1 4.700000e-01    2.960000e+00
  P2ar  C2vr  1 4.700000e-01    2.960000e+00
  P2ar  C1vr  1 4.700000e-01    2.790000e+00
  P2ar  X4vr  1 4.700000e-01    3.390000e+00
  P2ar  X3vr  1 4.700000e-01    3.390000e+00
  P2ar  X2vr  1 4.700000e-01    3.240000e+00
  P2ar  X1vr  1 4.700000e-01    3.070000e+00
  P1ar  C6vr  1 4.700000e-01    3.390000e+00
  P1ar  C5vr  1 4.700000e-01    3.240000e+00
  P1ar  C4vr  1 4.700000e-01    3.070000e+00
  P1ar  C3vr  1 4.700000e-01    2.960000e+00
  P1ar  C2vr  1 4.700000e-01    2.960000e+00
  P1ar  C1vr  1 4.700000e-01    2.790000e+00
  P1ar  X4vr  1 4.700000e-01    3.390000e+00
  P1ar  X3vr  1 4.700000e-01    3.390000e+00
  P1ar  X2vr  1 4.700000e-01    3.240000e+00
  P1ar  X1vr  1 4.700000e-01    3.070000e+00
  N6ar  C6vr  1 4.700000e-01    3.520000e+00
  N6ar  C5vr  1 4.700000e-01    3.390000e+00
  N6ar  C4vr  1 4.700000e-01    3.240000e+00
  N6ar  C3vr  1 4.700000e-01    3.070000e+00
  N6ar  C2vr  1 4.700000e-01    3.070000e+00
  N6ar  C1vr  1 4.700000e-01    2.960000e+00
  N6ar  X4vr  1 4.700000e-01    3.520000e+00
  N6ar  X3vr  1 4.700000e-01    3.390000e+00
  N6ar  X2vr  1 4.700000e-01    3.240000e+00
  N6ar  X1vr  1 4.700000e-01    3.070000e+00
  N5ar  C6vr  1 4.700000e-01    3.520000e+00
  N5ar  C5vr  1 4.700000e-01    3.390000e+00
  N5ar  C4vr  1 4.700000e-01    3.240000e+00
  N5ar  C3vr  1 4.700000e-01    3.240000e+00
  N5ar  C2vr  1 4.700000e-01    3.070000e+00
  N5ar  C1vr  1 4.700000e-01    2.960000e+00
  N5ar  X4vr  1 4.700000e-01    3.690000e+00
  N5ar  X3vr  1 4.700000e-01    3.520000e+00
  N5ar  X2vr  1 4.700000e-01    3.390000e+00
  N5ar  X1vr  1 4.700000e-01    3.240000e+00
  N4ar  C6vr  1 4.700000e-01    3.520000e+00
  N4ar  C5vr  1 4.700000e-01    3.390000e+00
  N4ar  C4vr  1 4.700000e-01    3.390000e+00
  N4ar  C3vr  1 4.700000e-01    3.240000e+00
  N4ar  C2vr  1 4.700000e-01    3.070000e+00
  N4ar  C1vr  1 4.700000e-01    2.960000e+00
  N4ar  X4vr  1 4.700000e-01    3.880000e+00
  N4ar  X3vr  1 4.700000e-01    3.690000e+00
  N4ar  X2vr  1 4.700000e-01    3.390000e+00
  N4ar  X1vr  1 4.700000e-01    3.240000e+00
  N3ar  C6vr  1 4.700000e-01    3.520000e+00
  N3ar  C5vr  1 4.700000e-01    3.390000e+00
  N3ar  C4vr  1 4.700000e-01    3.390000e+00
  N3ar  C3vr  1 4.700000e-01    3.240000e+00
  N3ar  C2vr  1 4.700000e-01    3.240000e+00
  N3ar  C1vr  1 4.700000e-01    3.070000e+00
  N3ar  X4vr  1 4.700000e-01    3.690000e+00
  N3ar  X3vr  1 4.700000e-01    3.520000e+00
  N3ar  X2vr  1 4.700000e-01    3.390000e+00
  N3ar  X1vr  1 4.700000e-01    3.390000e+00
  N2ar  C6vr  1 4.700000e-01    3.520000e+00
  N2ar  C5vr  1 4.700000e-01    3.390000e+00
  N2ar  C4vr  1 4.700000e-01    3.390000e+00
  N2ar  C3vr  1 4.700000e-01    3.390000e+00
  N2ar  C2vr  1 4.700000e-01    3.240000e+00
  N2ar  C1vr  1 4.700000e-01    3.070000e+00
  N2ar  X4vr  1 4.700000e-01    3.690000e+00
  N2ar  X3vr  1 4.700000e-01    3.520000e+00
  N2ar  X2vr  1 4.700000e-01    3.390000e+00
  N2ar  X1vr  1 4.700000e-01    3.390000e+00
  N1ar  C6vr  1 4.700000e-01    3.690000e+00
  N1ar  C5vr  1 4.700000e-01    3.520000e+00
  N1ar  C4vr  1 4.700000e-01    3.520000e+00
  N1ar  C3vr  1 4.700000e-01    3.390000e+00
  N1ar  C2vr  1 4.700000e-01    3.240000e+00
  N1ar  C1vr  1 4.700000e-01    3.070000e+00
  N1ar  X4vr  1 4.700000e-01    3.520000e+00
  N1ar  X3vr  1 4.700000e-01    3.520000e+00
  N1ar  X2vr  1 4.700000e-01    3.390000e+00
  N1ar  X1vr  1 4.700000e-01    3.390000e+00
   P6d   C6v  1 4.700000e-01    2.620000e+00
   P6d   C5v  1 4.700000e-01    2.440000e+00
   P6d   C4v  1 4.850000e-01    2.240000e+00
   P6d   C3v  1 5.200000e-01    2.120000e+00
   P6d   C2v  1 5.200000e-01    2.120000e+00
   P6d   C1v  1 6.200000e-01    1.960000e+00
   P6d   X4v  1 4.700000e-01    2.790000e+00
   P6d   X3v  1 4.700000e-01    2.790000e+00
   P6d   X2v  1 4.700000e-01    2.620000e+00
   P6d   X1v  1 4.700000e-01    2.440000e+00
   P5d   C6v  1 4.700000e-01    2.620000e+00
   P5d   C5v  1 4.700000e-01    2.620000e+00
   P5d   C4v  1 4.700000e-01    2.440000e+00
   P5d   C3v  1 4.850000e-01    2.240000e+00
   P5d   C2v  1 4.850000e-01    2.240000e+00
   P5d   C1v  1 5.200000e-01    2.120000e+00
   P5d   X4v  1 4.700000e-01    2.960000e+00
   P5d   X3v  1 4.700000e-01    2.790000e+00
   P5d   X2v  1 4.700000e-01    2.790000e+00
   P5d   X1v  1 4.700000e-01    2.440000e+00
   P4d   C6v  1 4.700000e-01    2.790000e+00
   P4d   C5v  1 4.700000e-01    2.620000e+00
   P4d   C4v  1 4.700000e-01    2.440000e+00
   P4d   C3v  1 4.850000e-01    2.240000e+00
   P4d   C2v  1 4.850000e-01    2.240000e+00
   P4d   C1v  1 5.200000e-01    2.120000e+00
   P4d   X4v  1 4.700000e-01    2.960000e+00
   P4d   X3v  1 4.700000e-01    2.790000e+00
   P4d   X2v  1 4.700000e-01    2.790000e+00
   P4d   X1v  1 4.700000e-01    2.620000e+00
   P3d   C6v  1 4.700000e-01    2.960000e+00
   P3d   C5v  1 4.700000e-01    2.790000e+00
   P3d   C4v  1 4.700000e-01    2.620000e+00
   P3d   C3v  1 4.850000e-01    2.240000e+00
   P3d   C2v  1 4.850000e-01    2.240000e+00
   P3d   C1v  1 5.200000e-01    2.120000e+00
   P3d   X4v  1 4.700000e-01    2.960000e+00
   P3d   X3v  1 4.700000e-01    2.960000e+00
   P3d   X2v  1 4.700000e-01    2.790000e+00
   P3d   X1v  1 4.700000e-01    2.620000e+00
   P2d   C6v  1 4.700000e-01    2.960000e+00
   P2d   C5v  1 4.700000e-01    2.790000e+00
   P2d   C4v  1 4.700000e-01    2.620000e+00
   P2d   C3v  1 4.700000e-01    2.440000e+00
   P2d   C2v  1 4.700000e-01    2.440000e+00
   P2d   C1v  1 4.850000e-01    2.240000e+00
   P2d   X4v  1 4.700000e-01    2.960000e+00
   P2d   X3v  1 4.700000e-01    2.960000e+00
   P2d   X2v  1 4.700000e-01    2.790000e+00
   P2d   X1v  1 4.700000e-01    2.620000e+00
   P1d   C6v  1 4.700000e-01    2.960000e+00
   P1d   C5v  1 4.700000e-01    2.790000e+00
   P1d   C4v  1 4.700000e-01    2.620000e+00
   P1d   C3v  1 4.700000e-01    2.440000e+00
   P1d   C2v  1 4.700000e-01    2.440000e+00
   P1d   C1v  1 4.850000e-01    2.240000e+00
   P1d   X4v  1 4.700000e-01    2.960000e+00
   P1d   X3v  1 4.700000e-01    2.960000e+00
   P1d   X2v  1 4.700000e-01    2.790000e+00
   P1d   X1v  1 4.700000e-01    2.620000e+00
   N6d   C6v  1 4.700000e-01    3.070000e+00
   N6d   C5v  1 4.700000e-01    2.960000e+00
   N6d   C4v  1 4.700000e-01    2.790000e+00
   N6d   C3v  1 4.700000e-01    2.620000e+00
   N6d   C2v  1 4.700000e-01    2.620000e+00
   N6d   C1v  1 4.700000e-01    2.440000e+00
   N6d   X4v  1 4.700000e-01    3.070000e+00
   N6d   X3v  1 4.700000e-01    2.960000e+00
   N6d   X2v  1 4.700000e-01    2.790000e+00
   N6d   X1v  1 4.700000e-01    2.620000e+00
   N5d   C6v  1 4.700000e-01    3.070000e+00
   N5d   C5v  1 4.700000e-01    2.960000e+00
   N5d   C4v  1 4.700000e-01    2.790000e+00
   N5d   C3v  1 4.700000e-01    2.790000e+00
   N5d   C2v  1 4.700000e-01    2.620000e+00
   N5d   C1v  1 4.700000e-01    2.440000e+00
   N5d   X4v  1 4.700000e-01    3.240000e+00
   N5d   X3v  1 4.700000e-01    3.070000e+00
   N5d   X2v  1 4.700000e-01    2.960000e+00
   N5d   X1v  1 4.700000e-01    2.790000e+00
   N4d   C6v  1 4.700000e-01    3.070000e+00
   N4d   C5v  1 4.700000e-01    2.960000e+00
   N4d   C4v  1 4.700000e-01    2.960000e+00
   N4d   C3v  1 4.700000e-01    2.790000e+00
   N4d   C2v  1 4.700000e-01    2.620000e+00
   N4d   C1v  1 4.700000e-01    2.440000e+00
   N4d   X4v  1 4.700000e-01    3.390000e+00
   N4d   X3v  1 4.700000e-01    3.240000e+00
   N4d   X2v  1 4.700000e-01    2.960000e+00
   N4d   X1v  1 4.700000e-01    2.790000e+00
   N3d   C6v  1 4.700000e-01    3.070000e+00
   N3d   C5v  1 4.700000e-01    2.960000e+00
   N3d   C4v  1 4.700000e-01    2.960000e+00
   N3d   C3v  1 4.700000e-01    2.790000e+00
   N3d   C2v  1 4.700000e-01    2.790000e+00
   N3d   C1v  1 4.700000e-01    2.620000e+00
   N3d   X4v  1 4.700000e-01    3.240000e+00
   N3d   X3v  1 4.700000e-01    3.070000e+00
   N3d   X2v  1 4.700000e-01    2.960000e+00
   N3d   X1v  1 4.700000e-01    2.960000e+00
   N2d   C6v  1 4.700000e-01    3.070000e+00
   N2d   C5v  1 4.700000e-01    2.960000e+00
   N2d   C4v  1 4.700000e-01    2.960000e+00
   N2d   C3v  1 4.700000e-01    2.960000e+00
   N2d   C2v  1 4.700000e-01    2.790000e+00
   N2d   C1v  1 4.700000e-01    2.620000e+00
   N2d   X4v  1 4.700000e-01    3.240000e+00
   N2d   X3v  1 4.700000e-01    3.070000e+00
   N2d   X2v  1 4.700000e-01    2.960000e+00
   N2d   X1v  1 4.700000e-01    2.960000e+00
   N1d   C6v  1 4.700000e-01    3.240000e+00
   N1d   C5v  1 4.700000e-01    3.070000e+00
   N1d   C4v  1 4.700000e-01    3.070000e+00
   N1d   C3v  1 4.700000e-01    2.960000e+00
   N1d   C2v  1 4.700000e-01    2.790000e+00
   N1d   C1v  1 4.700000e-01    2.620000e+00
   N1d   X4v  1 4.700000e-01    3.070000e+00
   N1d   X3v  1 4.700000e-01    3.070000e+00
   N1d   X2v  1 4.700000e-01    2.960000e+00
   N1d   X1v  1 4.700000e-01    2.960000e+00
   P6d  X1vq  1 4.700000e-01    2.790000e+00
   P5d  X1vq  1 4.700000e-01    2.790000e+00
   P4d  X1vq  1 4.700000e-01    2.960000e+00
   P3d  X1vq  1 4.700000e-01    2.960000e+00
   P2d  X1vq  1 4.700000e-01    2.960000e+00
   P1d  X1vq  1 4.700000e-01    2.960000e+00
   N6d  X1vq  1 4.700000e-01    2.960000e+00
   N5d  X1vq  1 4.700000e-01    3.070000e+00
   N4d  X1vq  1 4.700000e-01    3.070000e+00
   N3d  X1vq  1 4.700000e-01    3.240000e+00
   N2d  X1vq  1 4.700000e-01    3.240000e+00
   N1d  X1vq  1 4.700000e-01    3.240000e+00
   P6d  X2vq  1 4.700000e-01    2.960000e+00
   P5d  X2vq  1 4.700000e-01    3.070000e+00
   P4d  X2vq  1 4.700000e-01    3.070000e+00
   P3d  X2vq  1 4.700000e-01    3.070000e+00
   P2d  X2vq  1 4.700000e-01    3.070000e+00
   P1d  X2vq  1 4.700000e-01    3.070000e+00
   N6d  X2vq  1 4.700000e-01    3.070000e+00
   N5d  X2vq  1 4.700000e-01    3.240000e+00
   N4d  X2vq  1 4.700000e-01    3.240000e+00
   N3d  X2vq  1 4.700000e-01    3.240000e+00
   N2d  X2vq  1 4.700000e-01    3.240000e+00
   N1d  X2vq  1 4.700000e-01    3.240000e+00
   P6d  X3vq  1 4.700000e-01    3.070000e+00
   P5d  X3vq  1 4.700000e-01    3.070000e+00
   P4d  X3vq  1 4.700000e-01    3.070000e+00
   P3d  X3vq  1 4.700000e-01    3.240000e+00
   P2d  X3vq  1 4.700000e-01    3.240000e+00
   P1d  X3vq  1 4.700000e-01    3.240000e+00
   N6d  X3vq  1 4.700000e-01    3.240000e+00
   N5d  X3vq  1 4.700000e-01    3.390000e+00
   N4d  X3vq  1 4.700000e-01    3.520000e+00
   N3d  X3vq  1 4.700000e-01    3.390000e+00
   N2d  X3vq  1 4.700000e-01    3.390000e+00
   N1d  X3vq  1 4.700000e-01    3.390000e+00
   P6d  X4vq  1 4.700000e-01    3.070000e+00
   P5d  X4vq  1 4.700000e-01    3.240000e+00
   P4d  X4vq  1 4.700000e-01    3.240000e+00
   P3d  X4vq  1 4.700000e-01    3.240000e+00
   P2d  X4vq  1 4.700000e-01    3.240000e+00
   P1d  X4vq  1 4.700000e-01    3.240000e+00
   N6d  X4vq  1 4.700000e-01    3.390000e+00
   N5d  X4vq  1 4.700000e-01    3.520000e+00
   N4d  X4vq  1 4.700000e-01    3.690000e+00
   N3d  X4vq  1 4.700000e-01    3.520000e+00
   N2d  X4vq  1 4.700000e-01    3.520000e+00
   N1d  X4vq  1 4.700000e-01    3.390000e+00
   P6d  C1vq  1 5.200000e-01    2.120000e+00
   P5d  C1vq  1 4.700000e-01    2.440000e+00
   P4d  C1vq  1 4.700000e-01    2.440000e+00
   P3d  C1vq  1 4.700000e-01    2.440000e+00
   P2d  C1vq  1 4.700000e-01    2.620000e+00
   P1d  C1vq  1 4.700000e-01    2.620000e+00
   N6d  C1vq  1 4.700000e-01    2.790000e+00
   N5d  C1vq  1 4.700000e-01    2.790000e+00
   N4d  C1vq  1 4.700000e-01    2.790000e+00
   N3d  C1vq  1 4.700000e-01    2.960000e+00
   N2d  C1vq  1 4.700000e-01    2.960000e+00
   N1d  C1vq  1 4.700000e-01    2.960000e+00
   P6d  C2vq  1 4.700000e-01    2.440000e+00
   P5d  C2vq  1 4.700000e-01    2.620000e+00
   P4d  C2vq  1 4.700000e-01    2.620000e+00
   P3d  C2vq  1 4.700000e-01    2.620000e+00
   P2d  C2vq  1 4.700000e-01    2.790000e+00
   P1d  C2vq  1 4.700000e-01    2.790000e+00
   N6d  C2vq  1 4.700000e-01    2.960000e+00
   N5d  C2vq  1 4.700000e-01    2.960000e+00
   N4d  C2vq  1 4.700000e-01    2.960000e+00
   N3d  C2vq  1 4.700000e-01    3.070000e+00
   N2d  C2vq  1 4.700000e-01    3.070000e+00
   N1d  C2vq  1 4.700000e-01    3.070000e+00
   P6d  C3vq  1 4.700000e-01    2.440000e+00
   P5d  C3vq  1 4.700000e-01    2.620000e+00
   P4d  C3vq  1 4.700000e-01    2.620000e+00
   P3d  C3vq  1 4.700000e-01    2.620000e+00
   P2d  C3vq  1 4.700000e-01    2.790000e+00
   P1d  C3vq  1 4.700000e-01    2.790000e+00
   N6d  C3vq  1 4.700000e-01    2.960000e+00
   N5d  C3vq  1 4.700000e-01    3.070000e+00
   N4d  C3vq  1 4.700000e-01    3.070000e+00
   N3d  C3vq  1 4.700000e-01    3.070000e+00
   N2d  C3vq  1 4.700000e-01    3.240000e+00
   N1d  C3vq  1 4.700000e-01    3.240000e+00
   P6d  C4vq  1 4.700000e-01    2.620000e+00
   P5d  C4vq  1 4.700000e-01    2.790000e+00
   P4d  C4vq  1 4.700000e-01    2.790000e+00
   P3d  C4vq  1 4.700000e-01    2.960000e+00
   P2d  C4vq  1 4.700000e-01    2.960000e+00
   P1d  C4vq  1 4.700000e-01    2.960000e+00
   N6d  C4vq  1 4.700000e-01    3.070000e+00
   N5d  C4vq  1 4.700000e-01    3.070000e+00
   N4d  C4vq  1 4.700000e-01    3.240000e+00
   N3d  C4vq  1 4.700000e-01    3.240000e+00
   N2d  C4vq  1 4.700000e-01    3.240000e+00
   N1d  C4vq  1 4.700000e-01    3.390000e+00
   P6d  C5vq  1 4.700000e-01    2.790000e+00
   P5d  C5vq  1 4.700000e-01    2.960000e+00
   P4d  C5vq  1 4.700000e-01    2.960000e+00
   P3d  C5vq  1 4.700000e-01    3.070000e+00
   P2d  C5vq  1 4.700000e-01    3.070000e+00
   P1d  C5vq  1 4.700000e-01    3.070000e+00
   N6d  C5vq  1 4.700000e-01    3.240000e+00
   N5d  C5vq  1 4.700000e-01    3.240000e+00
   N4d  C5vq  1 4.700000e-01    3.240000e+00
   N3d  C5vq  1 4.700000e-01    3.240000e+00
   N2d  C5vq  1 4.700000e-01    3.240000e+00
   N1d  C5vq  1 4.700000e-01    3.390000e+00
   P6d  C6vq  1 4.700000e-01    2.960000e+00
   P5d  C6vq  1 4.700000e-01    2.960000e+00
   P4d  C6vq  1 4.700000e-01    3.070000e+00
   P3d  C6vq  1 4.700000e-01    3.240000e+00
   P2d  C6vq  1 4.700000e-01    3.240000e+00
   P1d  C6vq  1 4.700000e-01    3.240000e+00
   N6d  C6vq  1 4.700000e-01    3.390000e+00
   N5d  C6vq  1 4.700000e-01    3.390000e+00
   N4d  C6vq  1 4.700000e-01    3.390000e+00
   N3d  C6vq  1 4.700000e-01    3.390000e+00
   N2d  C6vq  1 4.700000e-01    3.390000e+00
   N1d  C6vq  1 4.700000e-01    3.520000e+00
   P6d  X1vh  1 4.700000e-01    2.440000e+00
   P5d  X1vh  1 4.700000e-01    2.440000e+00
   P4d  X1vh  1 4.700000e-01    2.620000e+00
   P3d  X1vh  1 4.700000e-01    2.620000e+00
   P2d  X1vh  1 4.700000e-01    2.620000e+00
   P1d  X1vh  1 4.700000e-01    2.620000e+00
   N6d  X1vh  1 4.700000e-01    2.620000e+00
   N5d  X1vh  1 4.700000e-01    2.790000e+00
   N4d  X1vh  1 4.700000e-01    2.790000e+00
   N3d  X1vh  1 4.700000e-01    2.960000e+00
   N2d  X1vh  1 4.700000e-01    2.960000e+00
   N1d  X1vh  1 4.700000e-01    2.960000e+00
   P6d  X2vh  1 4.700000e-01    2.620000e+00
   P5d  X2vh  1 4.700000e-01    2.790000e+00
   P4d  X2vh  1 4.700000e-01    2.790000e+00
   P3d  X2vh  1 4.700000e-01    2.790000e+00
   P2d  X2vh  1 4.700000e-01    2.790000e+00
   P1d  X2vh  1 4.700000e-01    2.790000e+00
   N6d  X2vh  1 4.700000e-01    2.790000e+00
   N5d  X2vh  1 4.700000e-01    2.960000e+00
   N4d  X2vh  1 4.700000e-01    2.960000e+00
   N3d  X2vh  1 4.700000e-01    2.960000e+00
   N2d  X2vh  1 4.700000e-01    2.960000e+00
   N1d  X2vh  1 4.700000e-01    2.960000e+00
   P6d  X3vh  1 4.700000e-01    2.790000e+00
   P5d  X3vh  1 4.700000e-01    2.790000e+00
   P4d  X3vh  1 4.700000e-01    2.790000e+00
   P3d  X3vh  1 4.700000e-01    2.960000e+00
   P2d  X3vh  1 4.700000e-01    2.960000e+00
   P1d  X3vh  1 4.700000e-01    2.960000e+00
   N6d  X3vh  1 4.700000e-01    2.960000e+00
   N5d  X3vh  1 4.700000e-01    3.070000e+00
   N4d  X3vh  1 4.700000e-01    3.240000e+00
   N3d  X3vh  1 4.700000e-01    3.070000e+00
   N2d  X3vh  1 4.700000e-01    3.070000e+00
   N1d  X3vh  1 4.700000e-01    3.070000e+00
   P6d  X4vh  1 4.700000e-01    2.790000e+00
   P5d  X4vh  1 4.700000e-01    2.960000e+00
   P4d  X4vh  1 4.700000e-01    2.960000e+00
   P3d  X4vh  1 4.700000e-01    2.960000e+00
   P2d  X4vh  1 4.700000e-01    2.960000e+00
   P1d  X4vh  1 4.700000e-01    2.960000e+00
   N6d  X4vh  1 4.700000e-01    3.070000e+00
   N5d  X4vh  1 4.700000e-01    3.240000e+00
   N4d  X4vh  1 4.700000e-01    3.390000e+00
   N3d  X4vh  1 4.700000e-01    3.240000e+00
   N2d  X4vh  1 4.700000e-01    3.240000e+00
   N1d  X4vh  1 4.700000e-01    3.070000e+00
   P6d  C1vh  1 6.200000e-01    1.960000e+00
   P5d  C1vh  1 5.200000e-01    2.120000e+00
   P4d  C1vh  1 5.200000e-01    2.120000e+00
   P3d  C1vh  1 5.200000e-01    2.120000e+00
   P2d  C1vh  1 4.850000e-01    2.240000e+00
   P1d  C1vh  1 4.850000e-01    2.240000e+00
   N6d  C1vh  1 4.700000e-01    2.440000e+00
   N5d  C1vh  1 4.700000e-01    2.440000e+00
   N4d  C1vh  1 4.700000e-01    2.440000e+00
   N3d  C1vh  1 4.700000e-01    2.620000e+00
   N2d  C1vh  1 4.700000e-01    2.620000e+00
   N1d  C1vh  1 4.700000e-01    2.620000e+00
   P6d  C2vh  1 5.200000e-01    2.120000e+00
   P5d  C2vh  1 4.850000e-01    2.240000e+00
   P4d  C2vh  1 4.850000e-01    2.240000e+00
   P3d  C2vh  1 4.850000e-01    2.240000e+00
   P2d  C2vh  1 4.700000e-01    2.440000e+00
   P1d  C2vh  1 4.700000e-01    2.440000e+00
   N6d  C2vh  1 4.700000e-01    2.620000e+00
   N5d  C2vh  1 4.700000e-01    2.620000e+00
   N4d  C2vh  1 4.700000e-01    2.620000e+00
   N3d  C2vh  1 4.700000e-01    2.790000e+00
   N2d  C2vh  1 4.700000e-01    2.790000e+00
   N1d  C2vh  1 4.700000e-01    2.790000e+00
   P6d  C3vh  1 5.200000e-01    2.120000e+00
   P5d  C3vh  1 4.850000e-01    2.240000e+00
   P4d  C3vh  1 4.850000e-01    2.240000e+00
   P3d  C3vh  1 4.850000e-01    2.240000e+00
   P2d  C3vh  1 4.700000e-01    2.440000e+00
   P1d  C3vh  1 4.700000e-01    2.440000e+00
   N6d  C3vh  1 4.700000e-01    2.620000e+00
   N5d  C3vh  1 4.700000e-01    2.790000e+00
   N4d  C3vh  1 4.700000e-01    2.790000e+00
   N3d  C3vh  1 4.700000e-01    2.790000e+00
   N2d  C3vh  1 4.700000e-01    2.960000e+00
   N1d  C3vh  1 4.700000e-01    2.960000e+00
   P6d  C4vh  1 4.850000e-01    2.240000e+00
   P5d  C4vh  1 4.700000e-01    2.440000e+00
   P4d  C4vh  1 4.700000e-01    2.440000e+00
   P3d  C4vh  1 4.700000e-01    2.620000e+00
   P2d  C4vh  1 4.700000e-01    2.620000e+00
   P1d  C4vh  1 4.700000e-01    2.620000e+00
   N6d  C4vh  1 4.700000e-01    2.790000e+00
   N5d  C4vh  1 4.700000e-01    2.790000e+00
   N4d  C4vh  1 4.700000e-01    2.960000e+00
   N3d  C4vh  1 4.700000e-01    2.960000e+00
   N2d  C4vh  1 4.700000e-01    2.960000e+00
   N1d  C4vh  1 4.700000e-01    3.070000e+00
   P6d  C5vh  1 4.700000e-01    2.440000e+00
   P5d  C5vh  1 4.700000e-01    2.620000e+00
   P4d  C5vh  1 4.700000e-01    2.620000e+00
   P3d  C5vh  1 4.700000e-01    2.790000e+00
   P2d  C5vh  1 4.700000e-01    2.790000e+00
   P1d  C5vh  1 4.700000e-01    2.790000e+00
   N6d  C5vh  1 4.700000e-01    2.960000e+00
   N5d  C5vh  1 4.700000e-01    2.960000e+00
   N4d  C5vh  1 4.700000e-01    2.960000e+00
   N3d  C5vh  1 4.700000e-01    2.960000e+00
   N2d  C5vh  1 4.700000e-01    2.960000e+00
   N1d  C5vh  1 4.700000e-01    3.070000e+00
   P6d  C6vh  1 4.700000e-01    2.620000e+00
   P5d  C6vh  1 4.700000e-01    2.620000e+00
   P4d  C6vh  1 4.700000e-01    2.790000e+00
   P3d  C6vh  1 4.700000e-01    2.960000e+00
   P2d  C6vh  1 4.700000e-01    2.960000e+00
   P1d  C6vh  1 4.700000e-01    2.960000e+00
   N6d  C6vh  1 4.700000e-01    3.070000e+00
   N5d  C6vh  1 4.700000e-01    3.070000e+00
   N4d  C6vh  1 4.700000e-01    3.070000e+00
   N3d  C6vh  1 4.700000e-01    3.070000e+00
   N2d  C6vh  1 4.700000e-01    3.070000e+00
   N1d  C6vh  1 4.700000e-01    3.240000e+00
   P6d  X1vr  1 4.700000e-01    2.440000e+00
   P5d  X1vr  1 4.700000e-01    2.440000e+00
   P4d  X1vr  1 4.700000e-01    2.620000e+00
   P3d  X1vr  1 4.700000e-01    2.620000e+00
   P2d  X1vr  1 4.700000e-01    2.620000e+00
   P1d  X1vr  1 4.700000e-01    2.620000e+00
   N6d  X1vr  1 4.700000e-01    2.620000e+00
   N5d  X1vr  1 4.700000e-01    2.790000e+00
   N4d  X1vr  1 4.700000e-01    2.790000e+00
   N3d  X1vr  1 4.700000e-01    2.960000e+00
   N2d  X1vr  1 4.700000e-01    2.960000e+00
   N1d  X1vr  1 4.700000e-01    2.960000e+00
   P6d  X2vr  1 4.700000e-01    2.620000e+00
   P5d  X2vr  1 4.700000e-01    2.790000e+00
   P4d  X2vr  1 4.700000e-01    2.790000e+00
   P3d  X2vr  1 4.700000e-01    2.790000e+00
   P2d  X2vr  1 4.700000e-01    2.790000e+00
   P1d  X2vr  1 4.700000e-01    2.790000e+00
   N6d  X2vr  1 4.700000e-01    2.790000e+00
   N5d  X2vr  1 4.700000e-01    2.960000e+00
   N4d  X2vr  1 4.700000e-01    2.960000e+00
   N3d  X2vr  1 4.700000e-01    2.960000e+00
   N2d  X2vr  1 4.700000e-01    2.960000e+00
   N1d  X2vr  1 4.700000e-01    2.960000e+00
   P6d  X3vr  1 4.700000e-01    2.790000e+00
   P5d  X3vr  1 4.700000e-01    2.790000e+00
   P4d  X3vr  1 4.700000e-01    2.790000e+00
   P3d  X3vr  1 4.700000e-01    2.960000e+00
   P2d  X3vr  1 4.700000e-01    2.960000e+00
   P1d  X3vr  1 4.700000e-01    2.960000e+00
   N6d  X3vr  1 4.700000e-01    2.960000e+00
   N5d  X3vr  1 4.700000e-01    3.070000e+00
   N4d  X3vr  1 4.700000e-01    3.240000e+00
   N3d  X3vr  1 4.700000e-01    3.070000e+00
   N2d  X3vr  1 4.700000e-01    3.070000e+00
   N1d  X3vr  1 4.700000e-01    3.070000e+00
   P6d  X4vr  1 4.700000e-01    2.790000e+00
   P5d  X4vr  1 4.700000e-01    2.960000e+00
   P4d  X4vr  1 4.700000e-01    2.960000e+00
   P3d  X4vr  1 4.700000e-01    2.960000e+00
   P2d  X4vr  1 4.700000e-01    2.960000e+00
   P1d  X4vr  1 4.700000e-01    2.960000e+00
   N6d  X4vr  1 4.700000e-01    3.070000e+00
   N5d  X4vr  1 4.700000e-01    3.240000e+00
   N4d  X4vr  1 4.700000e-01    3.390000e+00
   N3d  X4vr  1 4.700000e-01    3.240000e+00
   N2d  X4vr  1 4.700000e-01    3.240000e+00
   N1d  X4vr  1 4.700000e-01    3.070000e+00
   P6d  C1vr  1 6.200000e-01    1.960000e+00
   P5d  C1vr  1 5.200000e-01    2.120000e+00
   P4d  C1vr  1 5.200000e-01    2.120000e+00
   P3d  C1vr  1 5.200000e-01    2.120000e+00
   P2d  C1vr  1 4.850000e-01    2.240000e+00
   P1d  C1vr  1 4.850000e-01    2.240000e+00
   N6d  C1vr  1 4.700000e-01    2.440000e+00
   N5d  C1vr  1 4.700000e-01    2.440000e+00
   N4d  C1vr  1 4.700000e-01    2.440000e+00
   N3d  C1vr  1 4.700000e-01    2.620000e+00
   N2d  C1vr  1 4.700000e-01    2.620000e+00
   N1d  C1vr  1 4.700000e-01    2.620000e+00
   P6d  C2vr  1 5.200000e-01    2.120000e+00
   P5d  C2vr  1 4.850000e-01    2.240000e+00
   P4d  C2vr  1 4.850000e-01    2.240000e+00
   P3d  C2vr  1 4.850000e-01    2.240000e+00
   P2d  C2vr  1 4.700000e-01    2.440000e+00
   P1d  C2vr  1 4.700000e-01    2.440000e+00
   N6d  C2vr  1 4.700000e-01    2.620000e+00
   N5d  C2vr  1 4.700000e-01    2.620000e+00
   N4d  C2vr  1 4.700000e-01    2.620000e+00
   N3d  C2vr  1 4.700000e-01    2.790000e+00
   N2d  C2vr  1 4.700000e-01    2.790000e+00
   N1d  C2vr  1 4.700000e-01    2.790000e+00
   P6d  C3vr  1 5.200000e-01    2.120000e+00
   P5d  C3vr  1 4.850000e-01    2.240000e+00
   P4d  C3vr  1 4.850000e-01    2.240000e+00
   P3d  C3vr  1 4.850000e-01    2.240000e+00
   P2d  C3vr  1 4.700000e-01    2.440000e+00
   P1d  C3vr  1 4.700000e-01    2.440000e+00
   N6d  C3vr  1 4.700000e-01    2.620000e+00
   N5d  C3vr  1 4.700000e-01    2.790000e+00
   N4d  C3vr  1 4.700000e-01    2.790000e+00
   N3d  C3vr  1 4.700000e-01    2.790000e+00
   N2d  C3vr  1 4.700000e-01    2.960000e+00
   N1d  C3vr  1 4.700000e-01    2.960000e+00
   P6d  C4vr  1 4.850000e-01    2.240000e+00
   P5d  C4vr  1 4.700000e-01    2.440000e+00
   P4d  C4vr  1 4.700000e-01    2.440000e+00
   P3d  C4vr  1 4.700000e-01    2.620000e+00
   P2d  C4vr  1 4.700000e-01    2.620000e+00
   P1d  C4vr  1 4.700000e-01    2.620000e+00
   N6d  C4vr  1 4.700000e-01    2.790000e+00
   N5d  C4vr  1 4.700000e-01    2.790000e+00
   N4d  C4vr  1 4.700000e-01    2.960000e+00
   N3d  C4vr  1 4.700000e-01    2.960000e+00
   N2d  C4vr  1 4.700000e-01    2.960000e+00
   N1d  C4vr  1 4.700000e-01    3.070000e+00
   P6d  C5vr  1 4.700000e-01    2.440000e+00
   P5d  C5vr  1 4.700000e-01    2.620000e+00
   P4d  C5vr  1 4.700000e-01    2.620000e+00
   P3d  C5vr  1 4.700000e-01    2.790000e+00
   P2d  C5vr  1 4.700000e-01    2.790000e+00
   P1d  C5vr  1 4.700000e-01    2.790000e+00
   N6d  C5vr  1 4.700000e-01    2.960000e+00
   N5d  C5vr  1 4.700000e-01    2.960000e+00
   N4d  C5vr  1 4.700000e-01    2.960000e+00
   N3d  C5vr  1 4.700000e-01    2.960000e+00
   N2d  C5vr  1 4.700000e-01    2.960000e+00
   N1d  C5vr  1 4.700000e-01    3.070000e+00
   P6d  C6vr  1 4.700000e-01    2.620000e+00
   P5d  C6vr  1 4.700000e-01    2.620000e+00
   P4d  C6vr  1 4.700000e-01    2.790000e+00
   P3d  C6vr  1 4.700000e-01    2.960000e+00
   P2d  C6vr  1 4.700000e-01    2.960000e+00
   P1d  C6vr  1 4.700000e-01    2.960000e+00
   N6d  C6vr  1 4.700000e-01    3.070000e+00
   N5d  C6vr  1 4.700000e-01    3.070000e+00
   N4d  C6vr  1 4.700000e-01    3.070000e+00
   N3d  C6vr  1 4.700000e-01    3.070000e+00
   N2d  C6vr  1 4.700000e-01    3.070000e+00
   N1d  C6vr  1 4.700000e-01    3.240000e+00
  P6dq   C6v  1 4.700000e-01    2.960000e+00
  P6dq   C5v  1 4.700000e-01    2.790000e+00
  P6dq   C4v  1 4.700000e-01    2.620000e+00
  P6dq   C3v  1 4.700000e-01    2.440000e+00
  P6dq   C2v  1 4.700000e-01    2.440000e+00
  P6dq   C1v  1 5.200000e-01    2.120000e+00
  P6dq   X4v  1 4.700000e-01    3.070000e+00
  P6dq   X3v  1 4.700000e-01    3.070000e+00
  P6dq   X2v  1 4.700000e-01    2.960000e+00
  P6dq   X1v  1 4.700000e-01    2.790000e+00
  P5dq   C6v  1 4.700000e-01    2.960000e+00
  P5dq   C5v  1 4.700000e-01    2.960000e+00
  P5dq   C4v  1 4.700000e-01    2.790000e+00
  P5dq   C3v  1 4.700000e-01    2.620000e+00
  P5dq   C2v  1 4.700000e-01    2.620000e+00
  P5dq   C1v  1 4.700000e-01    2.440000e+00
  P5dq   X4v  1 4.700000e-01    3.240000e+00
  P5dq   X3v  1 4.700000e-01    3.070000e+00
  P5dq   X2v  1 4.700000e-01    3.070000e+00
  P5dq   X1v  1 4.700000e-01    2.790000e+00
  P4dq   C6v  1 4.700000e-01    3.070000e+00
  P4dq   C5v  1 4.700000e-01    2.960000e+00
  P4dq   C4v  1 4.700000e-01    2.790000e+00
  P4dq   C3v  1 4.700000e-01    2.620000e+00
  P4dq   C2v  1 4.700000e-01    2.620000e+00
  P4dq   C1v  1 4.700000e-01    2.440000e+00
  P4dq   X4v  1 4.700000e-01    3.240000e+00
  P4dq   X3v  1 4.700000e-01    3.070000e+00
  P4dq   X2v  1 4.700000e-01    3.070000e+00
  P4dq   X1v  1 4.700000e-01    2.960000e+00
  P3dq   C6v  1 4.700000e-01    3.240000e+00
  P3dq   C5v  1 4.700000e-01    3.070000e+00
  P3dq   C4v  1 4.700000e-01    2.960000e+00
  P3dq   C3v  1 4.700000e-01    2.620000e+00
  P3dq   C2v  1 4.700000e-01    2.620000e+00
  P3dq   C1v  1 4.700000e-01    2.440000e+00
  P3dq   X4v  1 4.700000e-01    3.240000e+00
  P3dq   X3v  1 4.700000e-01    3.240000e+00
  P3dq   X2v  1 4.700000e-01    3.070000e+00
  P3dq   X1v  1 4.700000e-01    2.960000e+00
  P2dq   C6v  1 4.700000e-01    3.240000e+00
  P2dq   C5v  1 4.700000e-01    3.070000e+00
  P2dq   C4v  1 4.700000e-01    2.960000e+00
  P2dq   C3v  1 4.700000e-01    2.790000e+00
  P2dq   C2v  1 4.700000e-01    2.790000e+00
  P2dq   C1v  1 4.700000e-01    2.620000e+00
  P2dq   X4v  1 4.700000e-01    3.240000e+00
  P2dq   X3v  1 4.700000e-01    3.240000e+00
  P2dq   X2v  1 4.700000e-01    3.070000e+00
  P2dq   X1v  1 4.700000e-01    2.960000e+00
  P1dq   C6v  1 4.700000e-01    3.240000e+00
  P1dq   C5v  1 4.700000e-01    3.070000e+00
  P1dq   C4v  1 4.700000e-01    2.960000e+00
  P1dq   C3v  1 4.700000e-01    2.790000e+00
  P1dq   C2v  1 4.700000e-01    2.790000e+00
  P1dq   C1v  1 4.700000e-01    2.620000e+00
  P1dq   X4v  1 4.700000e-01    3.240000e+00
  P1dq   X3v  1 4.700000e-01    3.240000e+00
  P1dq   X2v  1 4.700000e-01    3.070000e+00
  P1dq   X1v  1 4.700000e-01    2.960000e+00
  N6dq   C6v  1 4.700000e-01    3.390000e+00
  N6dq   C5v  1 4.700000e-01    3.240000e+00
  N6dq   C4v  1 4.700000e-01    3.070000e+00
  N6dq   C3v  1 4.700000e-01    2.960000e+00
  N6dq   C2v  1 4.700000e-01    2.960000e+00
  N6dq   C1v  1 4.700000e-01    2.790000e+00
  N6dq   X4v  1 4.700000e-01    3.390000e+00
  N6dq   X3v  1 4.700000e-01    3.240000e+00
  N6dq   X2v  1 4.700000e-01    3.070000e+00
  N6dq   X1v  1 4.700000e-01    2.960000e+00
  N5dq   C6v  1 4.700000e-01    3.390000e+00
  N5dq   C5v  1 4.700000e-01    3.240000e+00
  N5dq   C4v  1 4.700000e-01    3.070000e+00
  N5dq   C3v  1 4.700000e-01    3.070000e+00
  N5dq   C2v  1 4.700000e-01    2.960000e+00
  N5dq   C1v  1 4.700000e-01    2.790000e+00
  N5dq   X4v  1 4.700000e-01    3.520000e+00
  N5dq   X3v  1 4.700000e-01    3.390000e+00
  N5dq   X2v  1 4.700000e-01    3.240000e+00
  N5dq   X1v  1 4.700000e-01    3.070000e+00
  N4dq   C6v  1 4.700000e-01    3.390000e+00
  N4dq   C5v  1 4.700000e-01    3.240000e+00
  N4dq   C4v  1 4.700000e-01    3.240000e+00
  N4dq   C3v  1 4.700000e-01    3.070000e+00
  N4dq   C2v  1 4.700000e-01    2.960000e+00
  N4dq   C1v  1 4.700000e-01    2.790000e+00
  N4dq   X4v  1 4.700000e-01    3.690000e+00
  N4dq   X3v  1 4.700000e-01    3.520000e+00
  N4dq   X2v  1 4.700000e-01    3.240000e+00
  N4dq   X1v  1 4.700000e-01    3.070000e+00
  N3dq   C6v  1 4.700000e-01    3.390000e+00
  N3dq   C5v  1 4.700000e-01    3.240000e+00
  N3dq   C4v  1 4.700000e-01    3.240000e+00
  N3dq   C3v  1 4.700000e-01    3.070000e+00
  N3dq   C2v  1 4.700000e-01    3.070000e+00
  N3dq   C1v  1 4.700000e-01    2.960000e+00
  N3dq   X4v  1 4.700000e-01    3.520000e+00
  N3dq   X3v  1 4.700000e-01    3.390000e+00
  N3dq   X2v  1 4.700000e-01    3.240000e+00
  N3dq   X1v  1 4.700000e-01    3.240000e+00
  N2dq   C6v  1 4.700000e-01    3.390000e+00
  N2dq   C5v  1 4.700000e-01    3.240000e+00
  N2dq   C4v  1 4.700000e-01    3.240000e+00
  N2dq   C3v  1 4.700000e-01    3.240000e+00
  N2dq   C2v  1 4.700000e-01    3.070000e+00
  N2dq   C1v  1 4.700000e-01    2.960000e+00
  N2dq   X4v  1 4.700000e-01    3.520000e+00
  N2dq   X3v  1 4.700000e-01    3.390000e+00
  N2dq   X2v  1 4.700000e-01    3.240000e+00
  N2dq   X1v  1 4.700000e-01    3.240000e+00
  N1dq   C6v  1 4.700000e-01    3.520000e+00
  N1dq   C5v  1 4.700000e-01    3.390000e+00
  N1dq   C4v  1 4.700000e-01    3.390000e+00
  N1dq   C3v  1 4.700000e-01    3.240000e+00
  N1dq   C2v  1 4.700000e-01    3.070000e+00
  N1dq   C1v  1 4.700000e-01    2.960000e+00
  N1dq   X4v  1 4.700000e-01    3.390000e+00
  N1dq   X3v  1 4.700000e-01    3.390000e+00
  N1dq   X2v  1 4.700000e-01    3.240000e+00
  N1dq   X1v  1 4.700000e-01    3.240000e+00
  P6dq  C6vq  1 4.700000e-01    2.960000e+00
  P6dq  C5vq  1 4.700000e-01    2.790000e+00
  P6dq  C4vq  1 4.700000e-01    2.620000e+00
  P6dq  C3vq  1 4.700000e-01    2.440000e+00
  P6dq  C2vq  1 4.700000e-01    2.440000e+00
  P6dq  C1vq  1 5.200000e-01    2.120000e+00
  P6dq  X4vq  1 4.700000e-01    3.070000e+00
  P6dq  X3vq  1 4.700000e-01    3.070000e+00
  P6dq  X2vq  1 4.700000e-01    2.960000e+00
  P6dq  X1vq  1 4.700000e-01    2.790000e+00
  P5dq  C6vq  1 4.700000e-01    2.960000e+00
  P5dq  C5vq  1 4.700000e-01    2.960000e+00
  P5dq  C4vq  1 4.700000e-01    2.790000e+00
  P5dq  C3vq  1 4.700000e-01    2.620000e+00
  P5dq  C2vq  1 4.700000e-01    2.620000e+00
  P5dq  C1vq  1 4.700000e-01    2.440000e+00
  P5dq  X4vq  1 4.700000e-01    3.240000e+00
  P5dq  X3vq  1 4.700000e-01    3.070000e+00
  P5dq  X2vq  1 4.700000e-01    3.070000e+00
  P5dq  X1vq  1 4.700000e-01    2.790000e+00
  P4dq  C6vq  1 4.700000e-01    3.070000e+00
  P4dq  C5vq  1 4.700000e-01    2.960000e+00
  P4dq  C4vq  1 4.700000e-01    2.790000e+00
  P4dq  C3vq  1 4.700000e-01    2.620000e+00
  P4dq  C2vq  1 4.700000e-01    2.620000e+00
  P4dq  C1vq  1 4.700000e-01    2.440000e+00
  P4dq  X4vq  1 4.700000e-01    3.240000e+00
  P4dq  X3vq  1 4.700000e-01    3.070000e+00
  P4dq  X2vq  1 4.700000e-01    3.070000e+00
  P4dq  X1vq  1 4.700000e-01    2.960000e+00
  P3dq  C6vq  1 4.700000e-01    3.240000e+00
  P3dq  C5vq  1 4.700000e-01    3.070000e+00
  P3dq  C4vq  1 4.700000e-01    2.960000e+00
  P3dq  C3vq  1 4.700000e-01    2.620000e+00
  P3dq  C2vq  1 4.700000e-01    2.620000e+00
  P3dq  C1vq  1 4.700000e-01    2.440000e+00
  P3dq  X4vq  1 4.700000e-01    3.240000e+00
  P3dq  X3vq  1 4.700000e-01    3.240000e+00
  P3dq  X2vq  1 4.700000e-01    3.070000e+00
  P3dq  X1vq  1 4.700000e-01    2.960000e+00
  P2dq  C6vq  1 4.700000e-01    3.240000e+00
  P2dq  C5vq  1 4.700000e-01    3.070000e+00
  P2dq  C4vq  1 4.700000e-01    2.960000e+00
  P2dq  C3vq  1 4.700000e-01    2.790000e+00
  P2dq  C2vq  1 4.700000e-01    2.790000e+00
  P2dq  C1vq  1 4.700000e-01    2.620000e+00
  P2dq  X4vq  1 4.700000e-01    3.240000e+00
  P2dq  X3vq  1 4.700000e-01    3.240000e+00
  P2dq  X2vq  1 4.700000e-01    3.070000e+00
  P2dq  X1vq  1 4.700000e-01    2.960000e+00
  P1dq  C6vq  1 4.700000e-01    3.240000e+00
  P1dq  C5vq  1 4.700000e-01    3.070000e+00
  P1dq  C4vq  1 4.700000e-01    2.960000e+00
  P1dq  C3vq  1 4.700000e-01    2.790000e+00
  P1dq  C2vq  1 4.700000e-01    2.790000e+00
  P1dq  C1vq  1 4.700000e-01    2.620000e+00
  P1dq  X4vq  1 4.700000e-01    3.240000e+00
  P1dq  X3vq  1 4.700000e-01    3.240000e+00
  P1dq  X2vq  1 4.700000e-01    3.070000e+00
  P1dq  X1vq  1 4.700000e-01    2.960000e+00
  N6dq  C6vq  1 4.700000e-01    3.390000e+00
  N6dq  C5vq  1 4.700000e-01    3.240000e+00
  N6dq  C4vq  1 4.700000e-01    3.070000e+00
  N6dq  C3vq  1 4.700000e-01    2.960000e+00
  N6dq  C2vq  1 4.700000e-01    2.960000e+00
  N6dq  C1vq  1 4.700000e-01    2.790000e+00
  N6dq  X4vq  1 4.700000e-01    3.390000e+00
  N6dq  X3vq  1 4.700000e-01    3.240000e+00
  N6dq  X2vq  1 4.700000e-01    3.070000e+00
  N6dq  X1vq  1 4.700000e-01    2.960000e+00
  N5dq  C6vq  1 4.700000e-01    3.390000e+00
  N5dq  C5vq  1 4.700000e-01    3.240000e+00
  N5dq  C4vq  1 4.700000e-01    3.070000e+00
  N5dq  C3vq  1 4.700000e-01    3.070000e+00
  N5dq  C2vq  1 4.700000e-01    2.960000e+00
  N5dq  C1vq  1 4.700000e-01    2.790000e+00
  N5dq  X4vq  1 4.700000e-01    3.520000e+00
  N5dq  X3vq  1 4.700000e-01    3.390000e+00
  N5dq  X2vq  1 4.700000e-01    3.240000e+00
  N5dq  X1vq  1 4.700000e-01    3.070000e+00
  N4dq  C6vq  1 4.700000e-01    3.390000e+00
  N4dq  C5vq  1 4.700000e-01    3.240000e+00
  N4dq  C4vq  1 4.700000e-01    3.240000e+00
  N4dq  C3vq  1 4.700000e-01    3.070000e+00
  N4dq  C2vq  1 4.700000e-01    2.960000e+00
  N4dq  C1vq  1 4.700000e-01    2.790000e+00
  N4dq  X4vq  1 4.700000e-01    3.690000e+00
  N4dq  X3vq  1 4.700000e-01    3.520000e+00
  N4dq  X2vq  1 4.700000e-01    3.240000e+00
  N4dq  X1vq  1 4.700000e-01    3.070000e+00
  N3dq  C6vq  1 4.700000e-01    3.390000e+00
  N3dq  C5vq  1 4.700000e-01    3.240000e+00
  N3dq  C4vq  1 4.700000e-01    3.240000e+00
  N3dq  C3vq  1 4.700000e-01    3.070000e+00
  N3dq  C2vq  1 4.700000e-01    3.070000e+00
  N3dq  C1vq  1 4.700000e-01    2.960000e+00
  N3dq  X4vq  1 4.700000e-01    3.520000e+00
  N3dq  X3vq  1 4.700000e-01    3.390000e+00
  N3dq  X2vq  1 4.700000e-01    3.240000e+00
  N3dq  X1vq  1 4.700000e-01    3.240000e+00
  N2dq  C6vq  1 4.700000e-01    3.390000e+00
  N2dq  C5vq  1 4.700000e-01    3.240000e+00
  N2dq  C4vq  1 4.700000e-01    3.240000e+00
  N2dq  C3vq  1 4.700000e-01    3.240000e+00
  N2dq  C2vq  1 4.700000e-01    3.070000e+00
  N2dq  C1vq  1 4.700000e-01    2.960000e+00
  N2dq  X4vq  1 4.700000e-01    3.520000e+00
  N2dq  X3vq  1 4.700000e-01    3.390000e+00
  N2dq  X2vq  1 4.700000e-01    3.240000e+00
  N2dq  X1vq  1 4.700000e-01    3.240000e+00
  N1dq  C6vq  1 4.700000e-01    3.520000e+00
  N1dq  C5vq  1 4.700000e-01    3.390000e+00
  N1dq  C4vq  1 4.700000e-01    3.390000e+00
  N1dq  C3vq  1 4.700000e-01    3.240000e+00
  N1dq  C2vq  1 4.700000e-01    3.070000e+00
  N1dq  C1vq  1 4.700000e-01    2.960000e+00
  N1dq  X4vq  1 4.700000e-01    3.390000e+00
  N1dq  X3vq  1 4.700000e-01    3.390000e+00
  N1dq  X2vq  1 4.700000e-01    3.240000e+00
  N1dq  X1vq  1 4.700000e-01    3.240000e+00
  P6dq  C6vh  1 4.700000e-01    2.960000e+00
  P5dq  C6vh  1 4.700000e-01    2.960000e+00
  P4dq  C6vh  1 4.700000e-01    3.070000e+00
  P3dq  C6vh  1 4.700000e-01    3.240000e+00
  P2dq  C6vh  1 4.700000e-01    3.240000e+00
  P1dq  C6vh  1 4.700000e-01    3.240000e+00
  N6dq  C6vh  1 4.700000e-01    3.390000e+00
  N5dq  C6vh  1 4.700000e-01    3.390000e+00
  N4dq  C6vh  1 4.700000e-01    3.390000e+00
  N3dq  C6vh  1 4.700000e-01    3.390000e+00
  N2dq  C6vh  1 4.700000e-01    3.390000e+00
  N1dq  C6vh  1 4.700000e-01    3.520000e+00
  P6dq  C5vh  1 4.700000e-01    2.790000e+00
  P5dq  C5vh  1 4.700000e-01    2.960000e+00
  P4dq  C5vh  1 4.700000e-01    2.960000e+00
  P3dq  C5vh  1 4.700000e-01    3.070000e+00
  P2dq  C5vh  1 4.700000e-01    3.070000e+00
  P1dq  C5vh  1 4.700000e-01    3.070000e+00
  N6dq  C5vh  1 4.700000e-01    3.240000e+00
  N5dq  C5vh  1 4.700000e-01    3.240000e+00
  N4dq  C5vh  1 4.700000e-01    3.240000e+00
  N3dq  C5vh  1 4.700000e-01    3.240000e+00
  N2dq  C5vh  1 4.700000e-01    3.240000e+00
  N1dq  C5vh  1 4.700000e-01    3.390000e+00
  P6dq  C4vh  1 4.700000e-01    2.620000e+00
  P5dq  C4vh  1 4.700000e-01    2.790000e+00
  P4dq  C4vh  1 4.700000e-01    2.790000e+00
  P3dq  C4vh  1 4.700000e-01    2.960000e+00
  P2dq  C4vh  1 4.700000e-01    2.960000e+00
  P1dq  C4vh  1 4.700000e-01    2.960000e+00
  N6dq  C4vh  1 4.700000e-01    3.070000e+00
  N5dq  C4vh  1 4.700000e-01    3.070000e+00
  N4dq  C4vh  1 4.700000e-01    3.240000e+00
  N3dq  C4vh  1 4.700000e-01    3.240000e+00
  N2dq  C4vh  1 4.700000e-01    3.240000e+00
  N1dq  C4vh  1 4.700000e-01    3.390000e+00
  P6dq  C3vh  1 4.700000e-01    2.440000e+00
  P5dq  C3vh  1 4.700000e-01    2.620000e+00
  P4dq  C3vh  1 4.700000e-01    2.620000e+00
  P3dq  C3vh  1 4.700000e-01    2.620000e+00
  P2dq  C3vh  1 4.700000e-01    2.790000e+00
  P1dq  C3vh  1 4.700000e-01    2.790000e+00
  N6dq  C3vh  1 4.700000e-01    2.960000e+00
  N5dq  C3vh  1 4.700000e-01    3.070000e+00
  N4dq  C3vh  1 4.700000e-01    3.070000e+00
  N3dq  C3vh  1 4.700000e-01    3.070000e+00
  N2dq  C3vh  1 4.700000e-01    3.240000e+00
  N1dq  C3vh  1 4.700000e-01    3.240000e+00
  P6dq  C2vh  1 4.700000e-01    2.440000e+00
  P5dq  C2vh  1 4.700000e-01    2.620000e+00
  P4dq  C2vh  1 4.700000e-01    2.620000e+00
  P3dq  C2vh  1 4.700000e-01    2.620000e+00
  P2dq  C2vh  1 4.700000e-01    2.790000e+00
  P1dq  C2vh  1 4.700000e-01    2.790000e+00
  N6dq  C2vh  1 4.700000e-01    2.960000e+00
  N5dq  C2vh  1 4.700000e-01    2.960000e+00
  N4dq  C2vh  1 4.700000e-01    2.960000e+00
  N3dq  C2vh  1 4.700000e-01    3.070000e+00
  N2dq  C2vh  1 4.700000e-01    3.070000e+00
  N1dq  C2vh  1 4.700000e-01    3.070000e+00
  P6dq  C1vh  1 5.200000e-01    2.120000e+00
  P5dq  C1vh  1 4.700000e-01    2.440000e+00
  P4dq  C1vh  1 4.700000e-01    2.440000e+00
  P3dq  C1vh  1 4.700000e-01    2.440000e+00
  P2dq  C1vh  1 4.700000e-01    2.620000e+00
  P1dq  C1vh  1 4.700000e-01    2.620000e+00
  N6dq  C1vh  1 4.700000e-01    2.790000e+00
  N5dq  C1vh  1 4.700000e-01    2.790000e+00
  N4dq  C1vh  1 4.700000e-01    2.790000e+00
  N3dq  C1vh  1 4.700000e-01    2.960000e+00
  N2dq  C1vh  1 4.700000e-01    2.960000e+00
  N1dq  C1vh  1 4.700000e-01    2.960000e+00
  P6dq  X4vh  1 4.700000e-01    3.070000e+00
  P5dq  X4vh  1 4.700000e-01    3.240000e+00
  P4dq  X4vh  1 4.700000e-01    3.240000e+00
  P3dq  X4vh  1 4.700000e-01    3.240000e+00
  P2dq  X4vh  1 4.700000e-01    3.240000e+00
  P1dq  X4vh  1 4.700000e-01    3.240000e+00
  N6dq  X4vh  1 4.700000e-01    3.390000e+00
  N5dq  X4vh  1 4.700000e-01    3.520000e+00
  N4dq  X4vh  1 4.700000e-01    3.690000e+00
  N3dq  X4vh  1 4.700000e-01    3.520000e+00
  N2dq  X4vh  1 4.700000e-01    3.520000e+00
  N1dq  X4vh  1 4.700000e-01    3.390000e+00
  P6dq  X3vh  1 4.700000e-01    3.070000e+00
  P5dq  X3vh  1 4.700000e-01    3.070000e+00
  P4dq  X3vh  1 4.700000e-01    3.070000e+00
  P3dq  X3vh  1 4.700000e-01    3.240000e+00
  P2dq  X3vh  1 4.700000e-01    3.240000e+00
  P1dq  X3vh  1 4.700000e-01    3.240000e+00
  N6dq  X3vh  1 4.700000e-01    3.240000e+00
  N5dq  X3vh  1 4.700000e-01    3.390000e+00
  N4dq  X3vh  1 4.700000e-01    3.520000e+00
  N3dq  X3vh  1 4.700000e-01    3.390000e+00
  N2dq  X3vh  1 4.700000e-01    3.390000e+00
  N1dq  X3vh  1 4.700000e-01    3.390000e+00
  P6dq  X2vh  1 4.700000e-01    2.960000e+00
  P5dq  X2vh  1 4.700000e-01    3.070000e+00
  P4dq  X2vh  1 4.700000e-01    3.070000e+00
  P3dq  X2vh  1 4.700000e-01    3.070000e+00
  P2dq  X2vh  1 4.700000e-01    3.070000e+00
  P1dq  X2vh  1 4.700000e-01    3.070000e+00
  N6dq  X2vh  1 4.700000e-01    3.070000e+00
  N5dq  X2vh  1 4.700000e-01    3.240000e+00
  N4dq  X2vh  1 4.700000e-01    3.240000e+00
  N3dq  X2vh  1 4.700000e-01    3.240000e+00
  N2dq  X2vh  1 4.700000e-01    3.240000e+00
  N1dq  X2vh  1 4.700000e-01    3.240000e+00
  P6dq  X1vh  1 4.700000e-01    2.790000e+00
  P5dq  X1vh  1 4.700000e-01    2.790000e+00
  P4dq  X1vh  1 4.700000e-01    2.960000e+00
  P3dq  X1vh  1 4.700000e-01    2.960000e+00
  P2dq  X1vh  1 4.700000e-01    2.960000e+00
  P1dq  X1vh  1 4.700000e-01    2.960000e+00
  N6dq  X1vh  1 4.700000e-01    2.960000e+00
  N5dq  X1vh  1 4.700000e-01    3.070000e+00
  N4dq  X1vh  1 4.700000e-01    3.070000e+00
  N3dq  X1vh  1 4.700000e-01    3.240000e+00
  N2dq  X1vh  1 4.700000e-01    3.240000e+00
  N1dq  X1vh  1 4.700000e-01    3.240000e+00
  P6dq  C6vr  1 4.700000e-01    2.960000e+00
  P5dq  C6vr  1 4.700000e-01    2.960000e+00
  P4dq  C6vr  1 4.700000e-01    3.070000e+00
  P3dq  C6vr  1 4.700000e-01    3.240000e+00
  P2dq  C6vr  1 4.700000e-01    3.240000e+00
  P1dq  C6vr  1 4.700000e-01    3.240000e+00
  N6dq  C6vr  1 4.700000e-01    3.390000e+00
  N5dq  C6vr  1 4.700000e-01    3.390000e+00
  N4dq  C6vr  1 4.700000e-01    3.390000e+00
  N3dq  C6vr  1 4.700000e-01    3.390000e+00
  N2dq  C6vr  1 4.700000e-01    3.390000e+00
  N1dq  C6vr  1 4.700000e-01    3.520000e+00
  P6dq  C5vr  1 4.700000e-01    2.790000e+00
  P5dq  C5vr  1 4.700000e-01    2.960000e+00
  P4dq  C5vr  1 4.700000e-01    2.960000e+00
  P3dq  C5vr  1 4.700000e-01    3.070000e+00
  P2dq  C5vr  1 4.700000e-01    3.070000e+00
  P1dq  C5vr  1 4.700000e-01    3.070000e+00
  N6dq  C5vr  1 4.700000e-01    3.240000e+00
  N5dq  C5vr  1 4.700000e-01    3.240000e+00
  N4dq  C5vr  1 4.700000e-01    3.240000e+00
  N3dq  C5vr  1 4.700000e-01    3.240000e+00
  N2dq  C5vr  1 4.700000e-01    3.240000e+00
  N1dq  C5vr  1 4.700000e-01    3.390000e+00
  P6dq  C4vr  1 4.700000e-01    2.620000e+00
  P5dq  C4vr  1 4.700000e-01    2.790000e+00
  P4dq  C4vr  1 4.700000e-01    2.790000e+00
  P3dq  C4vr  1 4.700000e-01    2.960000e+00
  P2dq  C4vr  1 4.700000e-01    2.960000e+00
  P1dq  C4vr  1 4.700000e-01    2.960000e+00
  N6dq  C4vr  1 4.700000e-01    3.070000e+00
  N5dq  C4vr  1 4.700000e-01    3.070000e+00
  N4dq  C4vr  1 4.700000e-01    3.240000e+00
  N3dq  C4vr  1 4.700000e-01    3.240000e+00
  N2dq  C4vr  1 4.700000e-01    3.240000e+00
  N1dq  C4vr  1 4.700000e-01    3.390000e+00
  P6dq  C3vr  1 4.700000e-01    2.440000e+00
  P5dq  C3vr  1 4.700000e-01    2.620000e+00
  P4dq  C3vr  1 4.700000e-01    2.620000e+00
  P3dq  C3vr  1 4.700000e-01    2.620000e+00
  P2dq  C3vr  1 4.700000e-01    2.790000e+00
  P1dq  C3vr  1 4.700000e-01    2.790000e+00
  N6dq  C3vr  1 4.700000e-01    2.960000e+00
  N5dq  C3vr  1 4.700000e-01    3.070000e+00
  N4dq  C3vr  1 4.700000e-01    3.070000e+00
  N3dq  C3vr  1 4.700000e-01    3.070000e+00
  N2dq  C3vr  1 4.700000e-01    3.240000e+00
  N1dq  C3vr  1 4.700000e-01    3.240000e+00
  P6dq  C2vr  1 4.700000e-01    2.440000e+00
  P5dq  C2vr  1 4.700000e-01    2.620000e+00
  P4dq  C2vr  1 4.700000e-01    2.620000e+00
  P3dq  C2vr  1 4.700000e-01    2.620000e+00
  P2dq  C2vr  1 4.700000e-01    2.790000e+00
  P1dq  C2vr  1 4.700000e-01    2.790000e+00
  N6dq  C2vr  1 4.700000e-01    2.960000e+00
  N5dq  C2vr  1 4.700000e-01    2.960000e+00
  N4dq  C2vr  1 4.700000e-01    2.960000e+00
  N3dq  C2vr  1 4.700000e-01    3.070000e+00
  N2dq  C2vr  1 4.700000e-01    3.070000e+00
  N1dq  C2vr  1 4.700000e-01    3.070000e+00
  P6dq  C1vr  1 5.200000e-01    2.120000e+00
  P5dq  C1vr  1 4.700000e-01    2.440000e+00
  P4dq  C1vr  1 4.700000e-01    2.440000e+00
  P3dq  C1vr  1 4.700000e-01    2.440000e+00
  P2dq  C1vr  1 4.700000e-01    2.620000e+00
  P1dq  C1vr  1 4.700000e-01    2.620000e+00
  N6dq  C1vr  1 4.700000e-01    2.790000e+00
  N5dq  C1vr  1 4.700000e-01    2.790000e+00
  N4dq  C1vr  1 4.700000e-01    2.790000e+00
  N3dq  C1vr  1 4.700000e-01    2.960000e+00
  N2dq  C1vr  1 4.700000e-01    2.960000e+00
  N1dq  C1vr  1 4.700000e-01    2.960000e+00
  P6dq  X4vr  1 4.700000e-01    3.070000e+00
  P5dq  X4vr  1 4.700000e-01    3.240000e+00
  P4dq  X4vr  1 4.700000e-01    3.240000e+00
  P3dq  X4vr  1 4.700000e-01    3.240000e+00
  P2dq  X4vr  1 4.700000e-01    3.240000e+00
  P1dq  X4vr  1 4.700000e-01    3.240000e+00
  N6dq  X4vr  1 4.700000e-01    3.390000e+00
  N5dq  X4vr  1 4.700000e-01    3.520000e+00
  N4dq  X4vr  1 4.700000e-01    3.690000e+00
  N3dq  X4vr  1 4.700000e-01    3.520000e+00
  N2dq  X4vr  1 4.700000e-01    3.520000e+00
  N1dq  X4vr  1 4.700000e-01    3.390000e+00
  P6dq  X3vr  1 4.700000e-01    3.070000e+00
  P5dq  X3vr  1 4.700000e-01    3.070000e+00
  P4dq  X3vr  1 4.700000e-01    3.070000e+00
  P3dq  X3vr  1 4.700000e-01    3.240000e+00
  P2dq  X3vr  1 4.700000e-01    3.240000e+00
  P1dq  X3vr  1 4.700000e-01    3.240000e+00
  N6dq  X3vr  1 4.700000e-01    3.240000e+00
  N5dq  X3vr  1 4.700000e-01    3.390000e+00
  N4dq  X3vr  1 4.700000e-01    3.520000e+00
  N3dq  X3vr  1 4.700000e-01    3.390000e+00
  N2dq  X3vr  1 4.700000e-01    3.390000e+00
  N1dq  X3vr  1 4.700000e-01    3.390000e+00
  P6dq  X2vr  1 4.700000e-01    2.960000e+00
  P5dq  X2vr  1 4.700000e-01    3.070000e+00
  P4dq  X2vr  1 4.700000e-01    3.070000e+00
  P3dq  X2vr  1 4.700000e-01    3.070000e+00
  P2dq  X2vr  1 4.700000e-01    3.070000e+00
  P1dq  X2vr  1 4.700000e-01    3.070000e+00
  N6dq  X2vr  1 4.700000e-01    3.070000e+00
  N5dq  X2vr  1 4.700000e-01    3.240000e+00
  N4dq  X2vr  1 4.700000e-01    3.240000e+00
  N3dq  X2vr  1 4.700000e-01    3.240000e+00
  N2dq  X2vr  1 4.700000e-01    3.240000e+00
  N1dq  X2vr  1 4.700000e-01    3.240000e+00
  P6dq  X1vr  1 4.700000e-01    2.790000e+00
  P5dq  X1vr  1 4.700000e-01    2.790000e+00
  P4dq  X1vr  1 4.700000e-01    2.960000e+00
  P3dq  X1vr  1 4.700000e-01    2.960000e+00
  P2dq  X1vr  1 4.700000e-01    2.960000e+00
  P1dq  X1vr  1 4.700000e-01    2.960000e+00
  N6dq  X1vr  1 4.700000e-01    2.960000e+00
  N5dq  X1vr  1 4.700000e-01    3.070000e+00
  N4dq  X1vr  1 4.700000e-01    3.070000e+00
  N3dq  X1vr  1 4.700000e-01    3.240000e+00
  N2dq  X1vr  1 4.700000e-01    3.240000e+00
  N1dq  X1vr  1 4.700000e-01    3.240000e+00
  P6dh   C6v  1 4.700000e-01    2.620000e+00
  P6dh   C5v  1 4.700000e-01    2.440000e+00
  P6dh   C4v  1 4.850000e-01    2.240000e+00
  P6dh   C3v  1 5.200000e-01    2.120000e+00
  P6dh   C2v  1 5.200000e-01    2.120000e+00
  P6dh   C1v  1 6.200000e-01    1.960000e+00
  P6dh   X4v  1 4.700000e-01    2.790000e+00
  P6dh   X3v  1 4.700000e-01    2.790000e+00
  P6dh   X2v  1 4.700000e-01    2.620000e+00
  P6dh   X1v  1 4.700000e-01    2.440000e+00
  P5dh   C6v  1 4.700000e-01    2.620000e+00
  P5dh   C5v  1 4.700000e-01    2.620000e+00
  P5dh   C4v  1 4.700000e-01    2.440000e+00
  P5dh   C3v  1 4.850000e-01    2.240000e+00
  P5dh   C2v  1 4.850000e-01    2.240000e+00
  P5dh   C1v  1 5.200000e-01    2.120000e+00
  P5dh   X4v  1 4.700000e-01    2.960000e+00
  P5dh   X3v  1 4.700000e-01    2.790000e+00
  P5dh   X2v  1 4.700000e-01    2.790000e+00
  P5dh   X1v  1 4.700000e-01    2.440000e+00
  P4dh   C6v  1 4.700000e-01    2.790000e+00
  P4dh   C5v  1 4.700000e-01    2.620000e+00
  P4dh   C4v  1 4.700000e-01    2.440000e+00
  P4dh   C3v  1 4.850000e-01    2.240000e+00
  P4dh   C2v  1 4.850000e-01    2.240000e+00
  P4dh   C1v  1 5.200000e-01    2.120000e+00
  P4dh   X4v  1 4.700000e-01    2.960000e+00
  P4dh   X3v  1 4.700000e-01    2.790000e+00
  P4dh   X2v  1 4.700000e-01    2.790000e+00
  P4dh   X1v  1 4.700000e-01    2.620000e+00
  P3dh   C6v  1 4.700000e-01    2.960000e+00
  P3dh   C5v  1 4.700000e-01    2.790000e+00
  P3dh   C4v  1 4.700000e-01    2.620000e+00
  P3dh   C3v  1 4.850000e-01    2.240000e+00
  P3dh   C2v  1 4.850000e-01    2.240000e+00
  P3dh   C1v  1 5.200000e-01    2.120000e+00
  P3dh   X4v  1 4.700000e-01    2.960000e+00
  P3dh   X3v  1 4.700000e-01    2.960000e+00
  P3dh   X2v  1 4.700000e-01    2.790000e+00
  P3dh   X1v  1 4.700000e-01    2.620000e+00
  P2dh   C6v  1 4.700000e-01    2.960000e+00
  P2dh   C5v  1 4.700000e-01    2.790000e+00
  P2dh   C4v  1 4.700000e-01    2.620000e+00
  P2dh   C3v  1 4.700000e-01    2.440000e+00
  P2dh   C2v  1 4.700000e-01    2.440000e+00
  P2dh   C1v  1 4.850000e-01    2.240000e+00
  P2dh   X4v  1 4.700000e-01    2.960000e+00
  P2dh   X3v  1 4.700000e-01    2.960000e+00
  P2dh   X2v  1 4.700000e-01    2.790000e+00
  P2dh   X1v  1 4.700000e-01    2.620000e+00
  P1dh   C6v  1 4.700000e-01    2.960000e+00
  P1dh   C5v  1 4.700000e-01    2.790000e+00
  P1dh   C4v  1 4.700000e-01    2.620000e+00
  P1dh   C3v  1 4.700000e-01    2.440000e+00
  P1dh   C2v  1 4.700000e-01    2.440000e+00
  P1dh   C1v  1 4.850000e-01    2.240000e+00
  P1dh   X4v  1 4.700000e-01    2.960000e+00
  P1dh   X3v  1 4.700000e-01    2.960000e+00
  P1dh   X2v  1 4.700000e-01    2.790000e+00
  P1dh   X1v  1 4.700000e-01    2.620000e+00
  N6dh   C6v  1 4.700000e-01    3.070000e+00
  N6dh   C5v  1 4.700000e-01    2.960000e+00
  N6dh   C4v  1 4.700000e-01    2.790000e+00
  N6dh   C3v  1 4.700000e-01    2.620000e+00
  N6dh   C2v  1 4.700000e-01    2.620000e+00
  N6dh   C1v  1 4.700000e-01    2.440000e+00
  N6dh   X4v  1 4.700000e-01    3.070000e+00
  N6dh   X3v  1 4.700000e-01    2.960000e+00
  N6dh   X2v  1 4.700000e-01    2.790000e+00
  N6dh   X1v  1 4.700000e-01    2.620000e+00
  N5dh   C6v  1 4.700000e-01    3.070000e+00
  N5dh   C5v  1 4.700000e-01    2.960000e+00
  N5dh   C4v  1 4.700000e-01    2.790000e+00
  N5dh   C3v  1 4.700000e-01    2.790000e+00
  N5dh   C2v  1 4.700000e-01    2.620000e+00
  N5dh   C1v  1 4.700000e-01    2.440000e+00
  N5dh   X4v  1 4.700000e-01    3.240000e+00
  N5dh   X3v  1 4.700000e-01    3.070000e+00
  N5dh   X2v  1 4.700000e-01    2.960000e+00
  N5dh   X1v  1 4.700000e-01    2.790000e+00
  N4dh   C6v  1 4.700000e-01    3.070000e+00
  N4dh   C5v  1 4.700000e-01    2.960000e+00
  N4dh   C4v  1 4.700000e-01    2.960000e+00
  N4dh   C3v  1 4.700000e-01    2.790000e+00
  N4dh   C2v  1 4.700000e-01    2.620000e+00
  N4dh   C1v  1 4.700000e-01    2.440000e+00
  N4dh   X4v  1 4.700000e-01    3.390000e+00
  N4dh   X3v  1 4.700000e-01    3.240000e+00
  N4dh   X2v  1 4.700000e-01    2.960000e+00
  N4dh   X1v  1 4.700000e-01    2.790000e+00
  N3dh   C6v  1 4.700000e-01    3.070000e+00
  N3dh   C5v  1 4.700000e-01    2.960000e+00
  N3dh   C4v  1 4.700000e-01    2.960000e+00
  N3dh   C3v  1 4.700000e-01    2.790000e+00
  N3dh   C2v  1 4.700000e-01    2.790000e+00
  N3dh   C1v  1 4.700000e-01    2.620000e+00
  N3dh   X4v  1 4.700000e-01    3.240000e+00
  N3dh   X3v  1 4.700000e-01    3.070000e+00
  N3dh   X2v  1 4.700000e-01    2.960000e+00
  N3dh   X1v  1 4.700000e-01    2.960000e+00
  N2dh   C6v  1 4.700000e-01    3.070000e+00
  N2dh   C5v  1 4.700000e-01    2.960000e+00
  N2dh   C4v  1 4.700000e-01    2.960000e+00
  N2dh   C3v  1 4.700000e-01    2.960000e+00
  N2dh   C2v  1 4.700000e-01    2.790000e+00
  N2dh   C1v  1 4.700000e-01    2.620000e+00
  N2dh   X4v  1 4.700000e-01    3.240000e+00
  N2dh   X3v  1 4.700000e-01    3.070000e+00
  N2dh   X2v  1 4.700000e-01    2.960000e+00
  N2dh   X1v  1 4.700000e-01    2.960000e+00
  N1dh   C6v  1 4.700000e-01    3.240000e+00
  N1dh   C5v  1 4.700000e-01    3.070000e+00
  N1dh   C4v  1 4.700000e-01    3.070000e+00
  N1dh   C3v  1 4.700000e-01    2.960000e+00
  N1dh   C2v  1 4.700000e-01    2.790000e+00
  N1dh   C1v  1 4.700000e-01    2.620000e+00
  N1dh   X4v  1 4.700000e-01    3.070000e+00
  N1dh   X3v  1 4.700000e-01    3.070000e+00
  N1dh   X2v  1 4.700000e-01    2.960000e+00
  N1dh   X1v  1 4.700000e-01    2.960000e+00
  P6dh  X1vq  1 4.700000e-01    2.790000e+00
  P6dh  X2vq  1 4.700000e-01    2.960000e+00
  P6dh  X3vq  1 4.700000e-01    3.070000e+00
  P6dh  X4vq  1 4.700000e-01    3.070000e+00
  P6dh  C1vq  1 5.200000e-01    2.120000e+00
  P6dh  C2vq  1 4.700000e-01    2.440000e+00
  P6dh  C3vq  1 4.700000e-01    2.440000e+00
  P6dh  C4vq  1 4.700000e-01    2.620000e+00
  P6dh  C5vq  1 4.700000e-01    2.790000e+00
  P6dh  C6vq  1 4.700000e-01    2.960000e+00
  P5dh  X1vq  1 4.700000e-01    2.790000e+00
  P5dh  X2vq  1 4.700000e-01    3.070000e+00
  P5dh  X3vq  1 4.700000e-01    3.070000e+00
  P5dh  X4vq  1 4.700000e-01    3.240000e+00
  P5dh  C1vq  1 4.700000e-01    2.440000e+00
  P5dh  C2vq  1 4.700000e-01    2.620000e+00
  P5dh  C3vq  1 4.700000e-01    2.620000e+00
  P5dh  C4vq  1 4.700000e-01    2.790000e+00
  P5dh  C5vq  1 4.700000e-01    2.960000e+00
  P5dh  C6vq  1 4.700000e-01    2.960000e+00
  P4dh  X1vq  1 4.700000e-01    2.960000e+00
  P4dh  X2vq  1 4.700000e-01    3.070000e+00
  P4dh  X3vq  1 4.700000e-01    3.070000e+00
  P4dh  X4vq  1 4.700000e-01    3.240000e+00
  P4dh  C1vq  1 4.700000e-01    2.440000e+00
  P4dh  C2vq  1 4.700000e-01    2.620000e+00
  P4dh  C3vq  1 4.700000e-01    2.620000e+00
  P4dh  C4vq  1 4.700000e-01    2.790000e+00
  P4dh  C5vq  1 4.700000e-01    2.960000e+00
  P4dh  C6vq  1 4.700000e-01    3.070000e+00
  P3dh  X1vq  1 4.700000e-01    2.960000e+00
  P3dh  X2vq  1 4.700000e-01    3.070000e+00
  P3dh  X3vq  1 4.700000e-01    3.240000e+00
  P3dh  X4vq  1 4.700000e-01    3.240000e+00
  P3dh  C1vq  1 4.700000e-01    2.440000e+00
  P3dh  C2vq  1 4.700000e-01    2.620000e+00
  P3dh  C3vq  1 4.700000e-01    2.620000e+00
  P3dh  C4vq  1 4.700000e-01    2.960000e+00
  P3dh  C5vq  1 4.700000e-01    3.070000e+00
  P3dh  C6vq  1 4.700000e-01    3.240000e+00
  P2dh  X1vq  1 4.700000e-01    2.960000e+00
  P2dh  X2vq  1 4.700000e-01    3.070000e+00
  P2dh  X3vq  1 4.700000e-01    3.240000e+00
  P2dh  X4vq  1 4.700000e-01    3.240000e+00
  P2dh  C1vq  1 4.700000e-01    2.620000e+00
  P2dh  C2vq  1 4.700000e-01    2.790000e+00
  P2dh  C3vq  1 4.700000e-01    2.790000e+00
  P2dh  C4vq  1 4.700000e-01    2.960000e+00
  P2dh  C5vq  1 4.700000e-01    3.070000e+00
  P2dh  C6vq  1 4.700000e-01    3.240000e+00
  P1dh  X1vq  1 4.700000e-01    2.960000e+00
  P1dh  X2vq  1 4.700000e-01    3.070000e+00
  P1dh  X3vq  1 4.700000e-01    3.240000e+00
  P1dh  X4vq  1 4.700000e-01    3.240000e+00
  P1dh  C1vq  1 4.700000e-01    2.620000e+00
  P1dh  C2vq  1 4.700000e-01    2.790000e+00
  P1dh  C3vq  1 4.700000e-01    2.790000e+00
  P1dh  C4vq  1 4.700000e-01    2.960000e+00
  P1dh  C5vq  1 4.700000e-01    3.070000e+00
  P1dh  C6vq  1 4.700000e-01    3.240000e+00
  N6dh  X1vq  1 4.700000e-01    2.960000e+00
  N6dh  X2vq  1 4.700000e-01    3.070000e+00
  N6dh  X3vq  1 4.700000e-01    3.240000e+00
  N6dh  X4vq  1 4.700000e-01    3.390000e+00
  N6dh  C1vq  1 4.700000e-01    2.790000e+00
  N6dh  C2vq  1 4.700000e-01    2.960000e+00
  N6dh  C3vq  1 4.700000e-01    2.960000e+00
  N6dh  C4vq  1 4.700000e-01    3.070000e+00
  N6dh  C5vq  1 4.700000e-01    3.240000e+00
  N6dh  C6vq  1 4.700000e-01    3.390000e+00
  N5dh  X1vq  1 4.700000e-01    3.070000e+00
  N5dh  X2vq  1 4.700000e-01    3.240000e+00
  N5dh  X3vq  1 4.700000e-01    3.390000e+00
  N5dh  X4vq  1 4.700000e-01    3.520000e+00
  N5dh  C1vq  1 4.700000e-01    2.790000e+00
  N5dh  C2vq  1 4.700000e-01    2.960000e+00
  N5dh  C3vq  1 4.700000e-01    3.070000e+00
  N5dh  C4vq  1 4.700000e-01    3.070000e+00
  N5dh  C5vq  1 4.700000e-01    3.240000e+00
  N5dh  C6vq  1 4.700000e-01    3.390000e+00
  N4dh  X1vq  1 4.700000e-01    3.070000e+00
  N4dh  X2vq  1 4.700000e-01    3.240000e+00
  N4dh  X3vq  1 4.700000e-01    3.520000e+00
  N4dh  X4vq  1 4.700000e-01    3.690000e+00
  N4dh  C1vq  1 4.700000e-01    2.790000e+00
  N4dh  C2vq  1 4.700000e-01    2.960000e+00
  N4dh  C3vq  1 4.700000e-01    3.070000e+00
  N4dh  C4vq  1 4.700000e-01    3.240000e+00
  N4dh  C5vq  1 4.700000e-01    3.240000e+00
  N4dh  C6vq  1 4.700000e-01    3.390000e+00
  N3dh  X1vq  1 4.700000e-01    3.240000e+00
  N3dh  X2vq  1 4.700000e-01    3.240000e+00
  N3dh  X3vq  1 4.700000e-01    3.390000e+00
  N3dh  X4vq  1 4.700000e-01    3.520000e+00
  N3dh  C1vq  1 4.700000e-01    2.960000e+00
  N3dh  C2vq  1 4.700000e-01    3.070000e+00
  N3dh  C3vq  1 4.700000e-01    3.070000e+00
  N3dh  C4vq  1 4.700000e-01    3.240000e+00
  N3dh  C5vq  1 4.700000e-01    3.240000e+00
  N3dh  C6vq  1 4.700000e-01    3.390000e+00
  N2dh  X1vq  1 4.700000e-01    3.240000e+00
  N2dh  X2vq  1 4.700000e-01    3.240000e+00
  N2dh  X3vq  1 4.700000e-01    3.390000e+00
  N2dh  X4vq  1 4.700000e-01    3.520000e+00
  N2dh  C1vq  1 4.700000e-01    2.960000e+00
  N2dh  C2vq  1 4.700000e-01    3.070000e+00
  N2dh  C3vq  1 4.700000e-01    3.240000e+00
  N2dh  C4vq  1 4.700000e-01    3.240000e+00
  N2dh  C5vq  1 4.700000e-01    3.240000e+00
  N2dh  C6vq  1 4.700000e-01    3.390000e+00
  N1dh  X1vq  1 4.700000e-01    3.240000e+00
  N1dh  X2vq  1 4.700000e-01    3.240000e+00
  N1dh  X3vq  1 4.700000e-01    3.390000e+00
  N1dh  X4vq  1 4.700000e-01    3.390000e+00
  N1dh  C1vq  1 4.700000e-01    2.960000e+00
  N1dh  C2vq  1 4.700000e-01    3.070000e+00
  N1dh  C3vq  1 4.700000e-01    3.240000e+00
  N1dh  C4vq  1 4.700000e-01    3.390000e+00
  N1dh  C5vq  1 4.700000e-01    3.390000e+00
  N1dh  C6vq  1 4.700000e-01    3.520000e+00
  P6dh  C6vh  1 4.700000e-01    2.620000e+00
  P6dh  C5vh  1 4.700000e-01    2.440000e+00
  P6dh  C4vh  1 4.850000e-01    2.240000e+00
  P6dh  C3vh  1 5.200000e-01    2.120000e+00
  P6dh  C2vh  1 5.200000e-01    2.120000e+00
  P6dh  C1vh  1 6.200000e-01    1.960000e+00
  P6dh  X4vh  1 4.700000e-01    2.790000e+00
  P6dh  X3vh  1 4.700000e-01    2.790000e+00
  P6dh  X2vh  1 4.700000e-01    2.620000e+00
  P6dh  X1vh  1 4.700000e-01    2.440000e+00
  P5dh  C6vh  1 4.700000e-01    2.620000e+00
  P5dh  C5vh  1 4.700000e-01    2.620000e+00
  P5dh  C4vh  1 4.700000e-01    2.440000e+00
  P5dh  C3vh  1 4.850000e-01    2.240000e+00
  P5dh  C2vh  1 4.850000e-01    2.240000e+00
  P5dh  C1vh  1 5.200000e-01    2.120000e+00
  P5dh  X4vh  1 4.700000e-01    2.960000e+00
  P5dh  X3vh  1 4.700000e-01    2.790000e+00
  P5dh  X2vh  1 4.700000e-01    2.790000e+00
  P5dh  X1vh  1 4.700000e-01    2.440000e+00
  P4dh  C6vh  1 4.700000e-01    2.790000e+00
  P4dh  C5vh  1 4.700000e-01    2.620000e+00
  P4dh  C4vh  1 4.700000e-01    2.440000e+00
  P4dh  C3vh  1 4.850000e-01    2.240000e+00
  P4dh  C2vh  1 4.850000e-01    2.240000e+00
  P4dh  C1vh  1 5.200000e-01    2.120000e+00
  P4dh  X4vh  1 4.700000e-01    2.960000e+00
  P4dh  X3vh  1 4.700000e-01    2.790000e+00
  P4dh  X2vh  1 4.700000e-01    2.790000e+00
  P4dh  X1vh  1 4.700000e-01    2.620000e+00
  P3dh  C6vh  1 4.700000e-01    2.960000e+00
  P3dh  C5vh  1 4.700000e-01    2.790000e+00
  P3dh  C4vh  1 4.700000e-01    2.620000e+00
  P3dh  C3vh  1 4.850000e-01    2.240000e+00
  P3dh  C2vh  1 4.850000e-01    2.240000e+00
  P3dh  C1vh  1 5.200000e-01    2.120000e+00
  P3dh  X4vh  1 4.700000e-01    2.960000e+00
  P3dh  X3vh  1 4.700000e-01    2.960000e+00
  P3dh  X2vh  1 4.700000e-01    2.790000e+00
  P3dh  X1vh  1 4.700000e-01    2.620000e+00
  P2dh  C6vh  1 4.700000e-01    2.960000e+00
  P2dh  C5vh  1 4.700000e-01    2.790000e+00
  P2dh  C4vh  1 4.700000e-01    2.620000e+00
  P2dh  C3vh  1 4.700000e-01    2.440000e+00
  P2dh  C2vh  1 4.700000e-01    2.440000e+00
  P2dh  C1vh  1 4.850000e-01    2.240000e+00
  P2dh  X4vh  1 4.700000e-01    2.960000e+00
  P2dh  X3vh  1 4.700000e-01    2.960000e+00
  P2dh  X2vh  1 4.700000e-01    2.790000e+00
  P2dh  X1vh  1 4.700000e-01    2.620000e+00
  P1dh  C6vh  1 4.700000e-01    2.960000e+00
  P1dh  C5vh  1 4.700000e-01    2.790000e+00
  P1dh  C4vh  1 4.700000e-01    2.620000e+00
  P1dh  C3vh  1 4.700000e-01    2.440000e+00
  P1dh  C2vh  1 4.700000e-01    2.440000e+00
  P1dh  C1vh  1 4.850000e-01    2.240000e+00
  P1dh  X4vh  1 4.700000e-01    2.960000e+00
  P1dh  X3vh  1 4.700000e-01    2.960000e+00
  P1dh  X2vh  1 4.700000e-01    2.790000e+00
  P1dh  X1vh  1 4.700000e-01    2.620000e+00
  N6dh  C6vh  1 4.700000e-01    3.070000e+00
  N6dh  C5vh  1 4.700000e-01    2.960000e+00
  N6dh  C4vh  1 4.700000e-01    2.790000e+00
  N6dh  C3vh  1 4.700000e-01    2.620000e+00
  N6dh  C2vh  1 4.700000e-01    2.620000e+00
  N6dh  C1vh  1 4.700000e-01    2.440000e+00
  N6dh  X4vh  1 4.700000e-01    3.070000e+00
  N6dh  X3vh  1 4.700000e-01    2.960000e+00
  N6dh  X2vh  1 4.700000e-01    2.790000e+00
  N6dh  X1vh  1 4.700000e-01    2.620000e+00
  N5dh  C6vh  1 4.700000e-01    3.070000e+00
  N5dh  C5vh  1 4.700000e-01    2.960000e+00
  N5dh  C4vh  1 4.700000e-01    2.790000e+00
  N5dh  C3vh  1 4.700000e-01    2.790000e+00
  N5dh  C2vh  1 4.700000e-01    2.620000e+00
  N5dh  C1vh  1 4.700000e-01    2.440000e+00
  N5dh  X4vh  1 4.700000e-01    3.240000e+00
  N5dh  X3vh  1 4.700000e-01    3.070000e+00
  N5dh  X2vh  1 4.700000e-01    2.960000e+00
  N5dh  X1vh  1 4.700000e-01    2.790000e+00
  N4dh  C6vh  1 4.700000e-01    3.070000e+00
  N4dh  C5vh  1 4.700000e-01    2.960000e+00
  N4dh  C4vh  1 4.700000e-01    2.960000e+00
  N4dh  C3vh  1 4.700000e-01    2.790000e+00
  N4dh  C2vh  1 4.700000e-01    2.620000e+00
  N4dh  C1vh  1 4.700000e-01    2.440000e+00
  N4dh  X4vh  1 4.700000e-01    3.390000e+00
  N4dh  X3vh  1 4.700000e-01    3.240000e+00
  N4dh  X2vh  1 4.700000e-01    2.960000e+00
  N4dh  X1vh  1 4.700000e-01    2.790000e+00
  N3dh  C6vh  1 4.700000e-01    3.070000e+00
  N3dh  C5vh  1 4.700000e-01    2.960000e+00
  N3dh  C4vh  1 4.700000e-01    2.960000e+00
  N3dh  C3vh  1 4.700000e-01    2.790000e+00
  N3dh  C2vh  1 4.700000e-01    2.790000e+00
  N3dh  C1vh  1 4.700000e-01    2.620000e+00
  N3dh  X4vh  1 4.700000e-01    3.240000e+00
  N3dh  X3vh  1 4.700000e-01    3.070000e+00
  N3dh  X2vh  1 4.700000e-01    2.960000e+00
  N3dh  X1vh  1 4.700000e-01    2.960000e+00
  N2dh  C6vh  1 4.700000e-01    3.070000e+00
  N2dh  C5vh  1 4.700000e-01    2.960000e+00
  N2dh  C4vh  1 4.700000e-01    2.960000e+00
  N2dh  C3vh  1 4.700000e-01    2.960000e+00
  N2dh  C2vh  1 4.700000e-01    2.790000e+00
  N2dh  C1vh  1 4.700000e-01    2.620000e+00
  N2dh  X4vh  1 4.700000e-01    3.240000e+00
  N2dh  X3vh  1 4.700000e-01    3.070000e+00
  N2dh  X2vh  1 4.700000e-01    2.960000e+00
  N2dh  X1vh  1 4.700000e-01    2.960000e+00
  N1dh  C6vh  1 4.700000e-01    3.240000e+00
  N1dh  C5vh  1 4.700000e-01    3.070000e+00
  N1dh  C4vh  1 4.700000e-01    3.070000e+00
  N1dh  C3vh  1 4.700000e-01    2.960000e+00
  N1dh  C2vh  1 4.700000e-01    2.790000e+00
  N1dh  C1vh  1 4.700000e-01    2.620000e+00
  N1dh  X4vh  1 4.700000e-01    3.070000e+00
  N1dh  X3vh  1 4.700000e-01    3.070000e+00
  N1dh  X2vh  1 4.700000e-01    2.960000e+00
  N1dh  X1vh  1 4.700000e-01    2.960000e+00
  P6dh  C6vr  1 4.700000e-01    2.620000e+00
  P6dh  C5vr  1 4.700000e-01    2.440000e+00
  P6dh  C4vr  1 4.850000e-01    2.240000e+00
  P6dh  C3vr  1 5.200000e-01    2.120000e+00
  P6dh  C2vr  1 5.200000e-01    2.120000e+00
  P6dh  C1vr  1 6.200000e-01    1.960000e+00
  P6dh  X4vr  1 4.700000e-01    2.790000e+00
  P6dh  X3vr  1 4.700000e-01    2.790000e+00
  P6dh  X2vr  1 4.700000e-01    2.620000e+00
  P6dh  X1vr  1 4.700000e-01    2.440000e+00
  P5dh  C6vr  1 4.700000e-01    2.620000e+00
  P5dh  C5vr  1 4.700000e-01    2.620000e+00
  P5dh  C4vr  1 4.700000e-01    2.440000e+00
  P5dh  C3vr  1 4.850000e-01    2.240000e+00
  P5dh  C2vr  1 4.850000e-01    2.240000e+00
  P5dh  C1vr  1 5.200000e-01    2.120000e+00
  P5dh  X4vr  1 4.700000e-01    2.960000e+00
  P5dh  X3vr  1 4.700000e-01    2.790000e+00
  P5dh  X2vr  1 4.700000e-01    2.790000e+00
  P5dh  X1vr  1 4.700000e-01    2.440000e+00
  P4dh  C6vr  1 4.700000e-01    2.790000e+00
  P4dh  C5vr  1 4.700000e-01    2.620000e+00
  P4dh  C4vr  1 4.700000e-01    2.440000e+00
  P4dh  C3vr  1 4.850000e-01    2.240000e+00
  P4dh  C2vr  1 4.850000e-01    2.240000e+00
  P4dh  C1vr  1 5.200000e-01    2.120000e+00
  P4dh  X4vr  1 4.700000e-01    2.960000e+00
  P4dh  X3vr  1 4.700000e-01    2.790000e+00
  P4dh  X2vr  1 4.700000e-01    2.790000e+00
  P4dh  X1vr  1 4.700000e-01    2.620000e+00
  P3dh  C6vr  1 4.700000e-01    2.960000e+00
  P3dh  C5vr  1 4.700000e-01    2.790000e+00
  P3dh  C4vr  1 4.700000e-01    2.620000e+00
  P3dh  C3vr  1 4.850000e-01    2.240000e+00
  P3dh  C2vr  1 4.850000e-01    2.240000e+00
  P3dh  C1vr  1 5.200000e-01    2.120000e+00
  P3dh  X4vr  1 4.700000e-01    2.960000e+00
  P3dh  X3vr  1 4.700000e-01    2.960000e+00
  P3dh  X2vr  1 4.700000e-01    2.790000e+00
  P3dh  X1vr  1 4.700000e-01    2.620000e+00
  P2dh  C6vr  1 4.700000e-01    2.960000e+00
  P2dh  C5vr  1 4.700000e-01    2.790000e+00
  P2dh  C4vr  1 4.700000e-01    2.620000e+00
  P2dh  C3vr  1 4.700000e-01    2.440000e+00
  P2dh  C2vr  1 4.700000e-01    2.440000e+00
  P2dh  C1vr  1 4.850000e-01    2.240000e+00
  P2dh  X4vr  1 4.700000e-01    2.960000e+00
  P2dh  X3vr  1 4.700000e-01    2.960000e+00
  P2dh  X2vr  1 4.700000e-01    2.790000e+00
  P2dh  X1vr  1 4.700000e-01    2.620000e+00
  P1dh  C6vr  1 4.700000e-01    2.960000e+00
  P1dh  C5vr  1 4.700000e-01    2.790000e+00
  P1dh  C4vr  1 4.700000e-01    2.620000e+00
  P1dh  C3vr  1 4.700000e-01    2.440000e+00
  P1dh  C2vr  1 4.700000e-01    2.440000e+00
  P1dh  C1vr  1 4.850000e-01    2.240000e+00
  P1dh  X4vr  1 4.700000e-01    2.960000e+00
  P1dh  X3vr  1 4.700000e-01    2.960000e+00
  P1dh  X2vr  1 4.700000e-01    2.790000e+00
  P1dh  X1vr  1 4.700000e-01    2.620000e+00
  N6dh  C6vr  1 4.700000e-01    3.070000e+00
  N6dh  C5vr  1 4.700000e-01    2.960000e+00
  N6dh  C4vr  1 4.700000e-01    2.790000e+00
  N6dh  C3vr  1 4.700000e-01    2.620000e+00
  N6dh  C2vr  1 4.700000e-01    2.620000e+00
  N6dh  C1vr  1 4.700000e-01    2.440000e+00
  N6dh  X4vr  1 4.700000e-01    3.070000e+00
  N6dh  X3vr  1 4.700000e-01    2.960000e+00
  N6dh  X2vr  1 4.700000e-01    2.790000e+00
  N6dh  X1vr  1 4.700000e-01    2.620000e+00
  N5dh  C6vr  1 4.700000e-01    3.070000e+00
  N5dh  C5vr  1 4.700000e-01    2.960000e+00
  N5dh  C4vr  1 4.700000e-01    2.790000e+00
  N5dh  C3vr  1 4.700000e-01    2.790000e+00
  N5dh  C2vr  1 4.700000e-01    2.620000e+00
  N5dh  C1vr  1 4.700000e-01    2.440000e+00
  N5dh  X4vr  1 4.700000e-01    3.240000e+00
  N5dh  X3vr  1 4.700000e-01    3.070000e+00
  N5dh  X2vr  1 4.700000e-01    2.960000e+00
  N5dh  X1vr  1 4.700000e-01    2.790000e+00
  N4dh  C6vr  1 4.700000e-01    3.070000e+00
  N4dh  C5vr  1 4.700000e-01    2.960000e+00
  N4dh  C4vr  1 4.700000e-01    2.960000e+00
  N4dh  C3vr  1 4.700000e-01    2.790000e+00
  N4dh  C2vr  1 4.700000e-01    2.620000e+00
  N4dh  C1vr  1 4.700000e-01    2.440000e+00
  N4dh  X4vr  1 4.700000e-01    3.390000e+00
  N4dh  X3vr  1 4.700000e-01    3.240000e+00
  N4dh  X2vr  1 4.700000e-01    2.960000e+00
  N4dh  X1vr  1 4.700000e-01    2.790000e+00
  N3dh  C6vr  1 4.700000e-01    3.070000e+00
  N3dh  C5vr  1 4.700000e-01    2.960000e+00
  N3dh  C4vr  1 4.700000e-01    2.960000e+00
  N3dh  C3vr  1 4.700000e-01    2.790000e+00
  N3dh  C2vr  1 4.700000e-01    2.790000e+00
  N3dh  C1vr  1 4.700000e-01    2.620000e+00
  N3dh  X4vr  1 4.700000e-01    3.240000e+00
  N3dh  X3vr  1 4.700000e-01    3.070000e+00
  N3dh  X2vr  1 4.700000e-01    2.960000e+00
  N3dh  X1vr  1 4.700000e-01    2.960000e+00
  N2dh  C6vr  1 4.700000e-01    3.070000e+00
  N2dh  C5vr  1 4.700000e-01    2.960000e+00
  N2dh  C4vr  1 4.700000e-01    2.960000e+00
  N2dh  C3vr  1 4.700000e-01    2.960000e+00
  N2dh  C2vr  1 4.700000e-01    2.790000e+00
  N2dh  C1vr  1 4.700000e-01    2.620000e+00
  N2dh  X4vr  1 4.700000e-01    3.240000e+00
  N2dh  X3vr  1 4.700000e-01    3.070000e+00
  N2dh  X2vr  1 4.700000e-01    2.960000e+00
  N2dh  X1vr  1 4.700000e-01    2.960000e+00
  N1dh  C6vr  1 4.700000e-01    3.240000e+00
  N1dh  C5vr  1 4.700000e-01    3.070000e+00
  N1dh  C4vr  1 4.700000e-01    3.070000e+00
  N1dh  C3vr  1 4.700000e-01    2.960000e+00
  N1dh  C2vr  1 4.700000e-01    2.790000e+00
  N1dh  C1vr  1 4.700000e-01    2.620000e+00
  N1dh  X4vr  1 4.700000e-01    3.070000e+00
  N1dh  X3vr  1 4.700000e-01    3.070000e+00
  N1dh  X2vr  1 4.700000e-01    2.960000e+00
  N1dh  X1vr  1 4.700000e-01    2.960000e+00
  P6dr   C6v  1 4.700000e-01    2.620000e+00
  P6dr   C5v  1 4.700000e-01    2.440000e+00
  P6dr   C4v  1 4.850000e-01    2.240000e+00
  P6dr   C3v  1 5.200000e-01    2.120000e+00
  P6dr   C2v  1 5.200000e-01    2.120000e+00
  P6dr   C1v  1 6.200000e-01    1.960000e+00
  P6dr   X4v  1 4.700000e-01    2.790000e+00
  P6dr   X3v  1 4.700000e-01    2.790000e+00
  P6dr   X2v  1 4.700000e-01    2.620000e+00
  P6dr   X1v  1 4.700000e-01    2.440000e+00
  P5dr   C6v  1 4.700000e-01    2.620000e+00
  P5dr   C5v  1 4.700000e-01    2.620000e+00
  P5dr   C4v  1 4.700000e-01    2.440000e+00
  P5dr   C3v  1 4.850000e-01    2.240000e+00
  P5dr   C2v  1 4.850000e-01    2.240000e+00
  P5dr   C1v  1 5.200000e-01    2.120000e+00
  P5dr   X4v  1 4.700000e-01    2.960000e+00
  P5dr   X3v  1 4.700000e-01    2.790000e+00
  P5dr   X2v  1 4.700000e-01    2.790000e+00
  P5dr   X1v  1 4.700000e-01    2.440000e+00
  P4dr   C6v  1 4.700000e-01    2.790000e+00
  P4dr   C5v  1 4.700000e-01    2.620000e+00
  P4dr   C4v  1 4.700000e-01    2.440000e+00
  P4dr   C3v  1 4.850000e-01    2.240000e+00
  P4dr   C2v  1 4.850000e-01    2.240000e+00
  P4dr   C1v  1 5.200000e-01    2.120000e+00
  P4dr   X4v  1 4.700000e-01    2.960000e+00
  P4dr   X3v  1 4.700000e-01    2.790000e+00
  P4dr   X2v  1 4.700000e-01    2.790000e+00
  P4dr   X1v  1 4.700000e-01    2.620000e+00
  P3dr   C6v  1 4.700000e-01    2.960000e+00
  P3dr   C5v  1 4.700000e-01    2.790000e+00
  P3dr   C4v  1 4.700000e-01    2.620000e+00
  P3dr   C3v  1 4.850000e-01    2.240000e+00
  P3dr   C2v  1 4.850000e-01    2.240000e+00
  P3dr   C1v  1 5.200000e-01    2.120000e+00
  P3dr   X4v  1 4.700000e-01    2.960000e+00
  P3dr   X3v  1 4.700000e-01    2.960000e+00
  P3dr   X2v  1 4.700000e-01    2.790000e+00
  P3dr   X1v  1 4.700000e-01    2.620000e+00
  P2dr   C6v  1 4.700000e-01    2.960000e+00
  P2dr   C5v  1 4.700000e-01    2.790000e+00
  P2dr   C4v  1 4.700000e-01    2.620000e+00
  P2dr   C3v  1 4.700000e-01    2.440000e+00
  P2dr   C2v  1 4.700000e-01    2.440000e+00
  P2dr   C1v  1 4.850000e-01    2.240000e+00
  P2dr   X4v  1 4.700000e-01    2.960000e+00
  P2dr   X3v  1 4.700000e-01    2.960000e+00
  P2dr   X2v  1 4.700000e-01    2.790000e+00
  P2dr   X1v  1 4.700000e-01    2.620000e+00
  P1dr   C6v  1 4.700000e-01    2.960000e+00
  P1dr   C5v  1 4.700000e-01    2.790000e+00
  P1dr   C4v  1 4.700000e-01    2.620000e+00
  P1dr   C3v  1 4.700000e-01    2.440000e+00
  P1dr   C2v  1 4.700000e-01    2.440000e+00
  P1dr   C1v  1 4.850000e-01    2.240000e+00
  P1dr   X4v  1 4.700000e-01    2.960000e+00
  P1dr   X3v  1 4.700000e-01    2.960000e+00
  P1dr   X2v  1 4.700000e-01    2.790000e+00
  P1dr   X1v  1 4.700000e-01    2.620000e+00
  N6dr   C6v  1 4.700000e-01    3.070000e+00
  N6dr   C5v  1 4.700000e-01    2.960000e+00
  N6dr   C4v  1 4.700000e-01    2.790000e+00
  N6dr   C3v  1 4.700000e-01    2.620000e+00
  N6dr   C2v  1 4.700000e-01    2.620000e+00
  N6dr   C1v  1 4.700000e-01    2.440000e+00
  N6dr   X4v  1 4.700000e-01    3.070000e+00
  N6dr   X3v  1 4.700000e-01    2.960000e+00
  N6dr   X2v  1 4.700000e-01    2.790000e+00
  N6dr   X1v  1 4.700000e-01    2.620000e+00
  N5dr   C6v  1 4.700000e-01    3.070000e+00
  N5dr   C5v  1 4.700000e-01    2.960000e+00
  N5dr   C4v  1 4.700000e-01    2.790000e+00
  N5dr   C3v  1 4.700000e-01    2.790000e+00
  N5dr   C2v  1 4.700000e-01    2.620000e+00
  N5dr   C1v  1 4.700000e-01    2.440000e+00
  N5dr   X4v  1 4.700000e-01    3.240000e+00
  N5dr   X3v  1 4.700000e-01    3.070000e+00
  N5dr   X2v  1 4.700000e-01    2.960000e+00
  N5dr   X1v  1 4.700000e-01    2.790000e+00
  N4dr   C6v  1 4.700000e-01    3.070000e+00
  N4dr   C5v  1 4.700000e-01    2.960000e+00
  N4dr   C4v  1 4.700000e-01    2.960000e+00
  N4dr   C3v  1 4.700000e-01    2.790000e+00
  N4dr   C2v  1 4.700000e-01    2.620000e+00
  N4dr   C1v  1 4.700000e-01    2.440000e+00
  N4dr   X4v  1 4.700000e-01    3.390000e+00
  N4dr   X3v  1 4.700000e-01    3.240000e+00
  N4dr   X2v  1 4.700000e-01    2.960000e+00
  N4dr   X1v  1 4.700000e-01    2.790000e+00
  N3dr   C6v  1 4.700000e-01    3.070000e+00
  N3dr   C5v  1 4.700000e-01    2.960000e+00
  N3dr   C4v  1 4.700000e-01    2.960000e+00
  N3dr   C3v  1 4.700000e-01    2.790000e+00
  N3dr   C2v  1 4.700000e-01    2.790000e+00
  N3dr   C1v  1 4.700000e-01    2.620000e+00
  N3dr   X4v  1 4.700000e-01    3.240000e+00
  N3dr   X3v  1 4.700000e-01    3.070000e+00
  N3dr   X2v  1 4.700000e-01    2.960000e+00
  N3dr   X1v  1 4.700000e-01    2.960000e+00
  N2dr   C6v  1 4.700000e-01    3.070000e+00
  N2dr   C5v  1 4.700000e-01    2.960000e+00
  N2dr   C4v  1 4.700000e-01    2.960000e+00
  N2dr   C3v  1 4.700000e-01    2.960000e+00
  N2dr   C2v  1 4.700000e-01    2.790000e+00
  N2dr   C1v  1 4.700000e-01    2.620000e+00
  N2dr   X4v  1 4.700000e-01    3.240000e+00
  N2dr   X3v  1 4.700000e-01    3.070000e+00
  N2dr   X2v  1 4.700000e-01    2.960000e+00
  N2dr   X1v  1 4.700000e-01    2.960000e+00
  N1dr   C6v  1 4.700000e-01    3.240000e+00
  N1dr   C5v  1 4.700000e-01    3.070000e+00
  N1dr   C4v  1 4.700000e-01    3.070000e+00
  N1dr   C3v  1 4.700000e-01    2.960000e+00
  N1dr   C2v  1 4.700000e-01    2.790000e+00
  N1dr   C1v  1 4.700000e-01    2.620000e+00
  N1dr   X4v  1 4.700000e-01    3.070000e+00
  N1dr   X3v  1 4.700000e-01    3.070000e+00
  N1dr   X2v  1 4.700000e-01    2.960000e+00
  N1dr   X1v  1 4.700000e-01    2.960000e+00
  P6dr  X1vq  1 4.700000e-01    2.790000e+00
  P6dr  X2vq  1 4.700000e-01    2.960000e+00
  P6dr  X3vq  1 4.700000e-01    3.070000e+00
  P6dr  X4vq  1 4.700000e-01    3.070000e+00
  P6dr  C1vq  1 5.200000e-01    2.120000e+00
  P6dr  C2vq  1 4.700000e-01    2.440000e+00
  P6dr  C3vq  1 4.700000e-01    2.440000e+00
  P6dr  C4vq  1 4.700000e-01    2.620000e+00
  P6dr  C5vq  1 4.700000e-01    2.790000e+00
  P6dr  C6vq  1 4.700000e-01    2.960000e+00
  P5dr  X1vq  1 4.700000e-01    2.790000e+00
  P5dr  X2vq  1 4.700000e-01    3.070000e+00
  P5dr  X3vq  1 4.700000e-01    3.070000e+00
  P5dr  X4vq  1 4.700000e-01    3.240000e+00
  P5dr  C1vq  1 4.700000e-01    2.440000e+00
  P5dr  C2vq  1 4.700000e-01    2.620000e+00
  P5dr  C3vq  1 4.700000e-01    2.620000e+00
  P5dr  C4vq  1 4.700000e-01    2.790000e+00
  P5dr  C5vq  1 4.700000e-01    2.960000e+00
  P5dr  C6vq  1 4.700000e-01    2.960000e+00
  P4dr  X1vq  1 4.700000e-01    2.960000e+00
  P4dr  X2vq  1 4.700000e-01    3.070000e+00
  P4dr  X3vq  1 4.700000e-01    3.070000e+00
  P4dr  X4vq  1 4.700000e-01    3.240000e+00
  P4dr  C1vq  1 4.700000e-01    2.440000e+00
  P4dr  C2vq  1 4.700000e-01    2.620000e+00
  P4dr  C3vq  1 4.700000e-01    2.620000e+00
  P4dr  C4vq  1 4.700000e-01    2.790000e+00
  P4dr  C5vq  1 4.700000e-01    2.960000e+00
  P4dr  C6vq  1 4.700000e-01    3.070000e+00
  P3dr  X1vq  1 4.700000e-01    2.960000e+00
  P3dr  X2vq  1 4.700000e-01    3.070000e+00
  P3dr  X3vq  1 4.700000e-01    3.240000e+00
  P3dr  X4vq  1 4.700000e-01    3.240000e+00
  P3dr  C1vq  1 4.700000e-01    2.440000e+00
  P3dr  C2vq  1 4.700000e-01    2.620000e+00
  P3dr  C3vq  1 4.700000e-01    2.620000e+00
  P3dr  C4vq  1 4.700000e-01    2.960000e+00
  P3dr  C5vq  1 4.700000e-01    3.070000e+00
  P3dr  C6vq  1 4.700000e-01    3.240000e+00
  P2dr  X1vq  1 4.700000e-01    2.960000e+00
  P2dr  X2vq  1 4.700000e-01    3.070000e+00
  P2dr  X3vq  1 4.700000e-01    3.240000e+00
  P2dr  X4vq  1 4.700000e-01    3.240000e+00
  P2dr  C1vq  1 4.700000e-01    2.620000e+00
  P2dr  C2vq  1 4.700000e-01    2.790000e+00
  P2dr  C3vq  1 4.700000e-01    2.790000e+00
  P2dr  C4vq  1 4.700000e-01    2.960000e+00
  P2dr  C5vq  1 4.700000e-01    3.070000e+00
  P2dr  C6vq  1 4.700000e-01    3.240000e+00
  P1dr  X1vq  1 4.700000e-01    2.960000e+00
  P1dr  X2vq  1 4.700000e-01    3.070000e+00
  P1dr  X3vq  1 4.700000e-01    3.240000e+00
  P1dr  X4vq  1 4.700000e-01    3.240000e+00
  P1dr  C1vq  1 4.700000e-01    2.620000e+00
  P1dr  C2vq  1 4.700000e-01    2.790000e+00
  P1dr  C3vq  1 4.700000e-01    2.790000e+00
  P1dr  C4vq  1 4.700000e-01    2.960000e+00
  P1dr  C5vq  1 4.700000e-01    3.070000e+00
  P1dr  C6vq  1 4.700000e-01    3.240000e+00
  N6dr  X1vq  1 4.700000e-01    2.960000e+00
  N6dr  X2vq  1 4.700000e-01    3.070000e+00
  N6dr  X3vq  1 4.700000e-01    3.240000e+00
  N6dr  X4vq  1 4.700000e-01    3.390000e+00
  N6dr  C1vq  1 4.700000e-01    2.790000e+00
  N6dr  C2vq  1 4.700000e-01    2.960000e+00
  N6dr  C3vq  1 4.700000e-01    2.960000e+00
  N6dr  C4vq  1 4.700000e-01    3.070000e+00
  N6dr  C5vq  1 4.700000e-01    3.240000e+00
  N6dr  C6vq  1 4.700000e-01    3.390000e+00
  N5dr  X1vq  1 4.700000e-01    3.070000e+00
  N5dr  X2vq  1 4.700000e-01    3.240000e+00
  N5dr  X3vq  1 4.700000e-01    3.390000e+00
  N5dr  X4vq  1 4.700000e-01    3.520000e+00
  N5dr  C1vq  1 4.700000e-01    2.790000e+00
  N5dr  C2vq  1 4.700000e-01    2.960000e+00
  N5dr  C3vq  1 4.700000e-01    3.070000e+00
  N5dr  C4vq  1 4.700000e-01    3.070000e+00
  N5dr  C5vq  1 4.700000e-01    3.240000e+00
  N5dr  C6vq  1 4.700000e-01    3.390000e+00
  N4dr  X1vq  1 4.700000e-01    3.070000e+00
  N4dr  X2vq  1 4.700000e-01    3.240000e+00
  N4dr  X3vq  1 4.700000e-01    3.520000e+00
  N4dr  X4vq  1 4.700000e-01    3.690000e+00
  N4dr  C1vq  1 4.700000e-01    2.790000e+00
  N4dr  C2vq  1 4.700000e-01    2.960000e+00
  N4dr  C3vq  1 4.700000e-01    3.070000e+00
  N4dr  C4vq  1 4.700000e-01    3.240000e+00
  N4dr  C5vq  1 4.700000e-01    3.240000e+00
  N4dr  C6vq  1 4.700000e-01    3.390000e+00
  N3dr  X1vq  1 4.700000e-01    3.240000e+00
  N3dr  X2vq  1 4.700000e-01    3.240000e+00
  N3dr  X3vq  1 4.700000e-01    3.390000e+00
  N3dr  X4vq  1 4.700000e-01    3.520000e+00
  N3dr  C1vq  1 4.700000e-01    2.960000e+00
  N3dr  C2vq  1 4.700000e-01    3.070000e+00
  N3dr  C3vq  1 4.700000e-01    3.070000e+00
  N3dr  C4vq  1 4.700000e-01    3.240000e+00
  N3dr  C5vq  1 4.700000e-01    3.240000e+00
  N3dr  C6vq  1 4.700000e-01    3.390000e+00
  N2dr  X1vq  1 4.700000e-01    3.240000e+00
  N2dr  X2vq  1 4.700000e-01    3.240000e+00
  N2dr  X3vq  1 4.700000e-01    3.390000e+00
  N2dr  X4vq  1 4.700000e-01    3.520000e+00
  N2dr  C1vq  1 4.700000e-01    2.960000e+00
  N2dr  C2vq  1 4.700000e-01    3.070000e+00
  N2dr  C3vq  1 4.700000e-01    3.240000e+00
  N2dr  C4vq  1 4.700000e-01    3.240000e+00
  N2dr  C5vq  1 4.700000e-01    3.240000e+00
  N2dr  C6vq  1 4.700000e-01    3.390000e+00
  N1dr  X1vq  1 4.700000e-01    3.240000e+00
  N1dr  X2vq  1 4.700000e-01    3.240000e+00
  N1dr  X3vq  1 4.700000e-01    3.390000e+00
  N1dr  X4vq  1 4.700000e-01    3.390000e+00
  N1dr  C1vq  1 4.700000e-01    2.960000e+00
  N1dr  C2vq  1 4.700000e-01    3.070000e+00
  N1dr  C3vq  1 4.700000e-01    3.240000e+00
  N1dr  C4vq  1 4.700000e-01    3.390000e+00
  N1dr  C5vq  1 4.700000e-01    3.390000e+00
  N1dr  C6vq  1 4.700000e-01    3.520000e+00
  P6dr  C6vh  1 4.700000e-01    2.620000e+00
  P6dr  C5vh  1 4.700000e-01    2.440000e+00
  P6dr  C4vh  1 4.850000e-01    2.240000e+00
  P6dr  C3vh  1 5.200000e-01    2.120000e+00
  P6dr  C2vh  1 5.200000e-01    2.120000e+00
  P6dr  C1vh  1 6.200000e-01    1.960000e+00
  P6dr  X4vh  1 4.700000e-01    2.790000e+00
  P6dr  X3vh  1 4.700000e-01    2.790000e+00
  P6dr  X2vh  1 4.700000e-01    2.620000e+00
  P6dr  X1vh  1 4.700000e-01    2.440000e+00
  P5dr  C6vh  1 4.700000e-01    2.620000e+00
  P5dr  C5vh  1 4.700000e-01    2.620000e+00
  P5dr  C4vh  1 4.700000e-01    2.440000e+00
  P5dr  C3vh  1 4.850000e-01    2.240000e+00
  P5dr  C2vh  1 4.850000e-01    2.240000e+00
  P5dr  C1vh  1 5.200000e-01    2.120000e+00
  P5dr  X4vh  1 4.700000e-01    2.960000e+00
  P5dr  X3vh  1 4.700000e-01    2.790000e+00
  P5dr  X2vh  1 4.700000e-01    2.790000e+00
  P5dr  X1vh  1 4.700000e-01    2.440000e+00
  P4dr  C6vh  1 4.700000e-01    2.790000e+00
  P4dr  C5vh  1 4.700000e-01    2.620000e+00
  P4dr  C4vh  1 4.700000e-01    2.440000e+00
  P4dr  C3vh  1 4.850000e-01    2.240000e+00
  P4dr  C2vh  1 4.850000e-01    2.240000e+00
  P4dr  C1vh  1 5.200000e-01    2.120000e+00
  P4dr  X4vh  1 4.700000e-01    2.960000e+00
  P4dr  X3vh  1 4.700000e-01    2.790000e+00
  P4dr  X2vh  1 4.700000e-01    2.790000e+00
  P4dr  X1vh  1 4.700000e-01    2.620000e+00
  P3dr  C6vh  1 4.700000e-01    2.960000e+00
  P3dr  C5vh  1 4.700000e-01    2.790000e+00
  P3dr  C4vh  1 4.700000e-01    2.620000e+00
  P3dr  C3vh  1 4.850000e-01    2.240000e+00
  P3dr  C2vh  1 4.850000e-01    2.240000e+00
  P3dr  C1vh  1 5.200000e-01    2.120000e+00
  P3dr  X4vh  1 4.700000e-01    2.960000e+00
  P3dr  X3vh  1 4.700000e-01    2.960000e+00
  P3dr  X2vh  1 4.700000e-01    2.790000e+00
  P3dr  X1vh  1 4.700000e-01    2.620000e+00
  P2dr  C6vh  1 4.700000e-01    2.960000e+00
  P2dr  C5vh  1 4.700000e-01    2.790000e+00
  P2dr  C4vh  1 4.700000e-01    2.620000e+00
  P2dr  C3vh  1 4.700000e-01    2.440000e+00
  P2dr  C2vh  1 4.700000e-01    2.440000e+00
  P2dr  C1vh  1 4.850000e-01    2.240000e+00
  P2dr  X4vh  1 4.700000e-01    2.960000e+00
  P2dr  X3vh  1 4.700000e-01    2.960000e+00
  P2dr  X2vh  1 4.700000e-01    2.790000e+00
  P2dr  X1vh  1 4.700000e-01    2.620000e+00
  P1dr  C6vh  1 4.700000e-01    2.960000e+00
  P1dr  C5vh  1 4.700000e-01    2.790000e+00
  P1dr  C4vh  1 4.700000e-01    2.620000e+00
  P1dr  C3vh  1 4.700000e-01    2.440000e+00
  P1dr  C2vh  1 4.700000e-01    2.440000e+00
  P1dr  C1vh  1 4.850000e-01    2.240000e+00
  P1dr  X4vh  1 4.700000e-01    2.960000e+00
  P1dr  X3vh  1 4.700000e-01    2.960000e+00
  P1dr  X2vh  1 4.700000e-01    2.790000e+00
  P1dr  X1vh  1 4.700000e-01    2.620000e+00
  N6dr  C6vh  1 4.700000e-01    3.070000e+00
  N6dr  C5vh  1 4.700000e-01    2.960000e+00
  N6dr  C4vh  1 4.700000e-01    2.790000e+00
  N6dr  C3vh  1 4.700000e-01    2.620000e+00
  N6dr  C2vh  1 4.700000e-01    2.620000e+00
  N6dr  C1vh  1 4.700000e-01    2.440000e+00
  N6dr  X4vh  1 4.700000e-01    3.070000e+00
  N6dr  X3vh  1 4.700000e-01    2.960000e+00
  N6dr  X2vh  1 4.700000e-01    2.790000e+00
  N6dr  X1vh  1 4.700000e-01    2.620000e+00
  N5dr  C6vh  1 4.700000e-01    3.070000e+00
  N5dr  C5vh  1 4.700000e-01    2.960000e+00
  N5dr  C4vh  1 4.700000e-01    2.790000e+00
  N5dr  C3vh  1 4.700000e-01    2.790000e+00
  N5dr  C2vh  1 4.700000e-01    2.620000e+00
  N5dr  C1vh  1 4.700000e-01    2.440000e+00
  N5dr  X4vh  1 4.700000e-01    3.240000e+00
  N5dr  X3vh  1 4.700000e-01    3.070000e+00
  N5dr  X2vh  1 4.700000e-01    2.960000e+00
  N5dr  X1vh  1 4.700000e-01    2.790000e+00
  N4dr  C6vh  1 4.700000e-01    3.070000e+00
  N4dr  C5vh  1 4.700000e-01    2.960000e+00
  N4dr  C4vh  1 4.700000e-01    2.960000e+00
  N4dr  C3vh  1 4.700000e-01    2.790000e+00
  N4dr  C2vh  1 4.700000e-01    2.620000e+00
  N4dr  C1vh  1 4.700000e-01    2.440000e+00
  N4dr  X4vh  1 4.700000e-01    3.390000e+00
  N4dr  X3vh  1 4.700000e-01    3.240000e+00
  N4dr  X2vh  1 4.700000e-01    2.960000e+00
  N4dr  X1vh  1 4.700000e-01    2.790000e+00
  N3dr  C6vh  1 4.700000e-01    3.070000e+00
  N3dr  C5vh  1 4.700000e-01    2.960000e+00
  N3dr  C4vh  1 4.700000e-01    2.960000e+00
  N3dr  C3vh  1 4.700000e-01    2.790000e+00
  N3dr  C2vh  1 4.700000e-01    2.790000e+00
  N3dr  C1vh  1 4.700000e-01    2.620000e+00
  N3dr  X4vh  1 4.700000e-01    3.240000e+00
  N3dr  X3vh  1 4.700000e-01    3.070000e+00
  N3dr  X2vh  1 4.700000e-01    2.960000e+00
  N3dr  X1vh  1 4.700000e-01    2.960000e+00
  N2dr  C6vh  1 4.700000e-01    3.070000e+00
  N2dr  C5vh  1 4.700000e-01    2.960000e+00
  N2dr  C4vh  1 4.700000e-01    2.960000e+00
  N2dr  C3vh  1 4.700000e-01    2.960000e+00
  N2dr  C2vh  1 4.700000e-01    2.790000e+00
  N2dr  C1vh  1 4.700000e-01    2.620000e+00
  N2dr  X4vh  1 4.700000e-01    3.240000e+00
  N2dr  X3vh  1 4.700000e-01    3.070000e+00
  N2dr  X2vh  1 4.700000e-01    2.960000e+00
  N2dr  X1vh  1 4.700000e-01    2.960000e+00
  N1dr  C6vh  1 4.700000e-01    3.240000e+00
  N1dr  C5vh  1 4.700000e-01    3.070000e+00
  N1dr  C4vh  1 4.700000e-01    3.070000e+00
  N1dr  C3vh  1 4.700000e-01    2.960000e+00
  N1dr  C2vh  1 4.700000e-01    2.790000e+00
  N1dr  C1vh  1 4.700000e-01    2.620000e+00
  N1dr  X4vh  1 4.700000e-01    3.070000e+00
  N1dr  X3vh  1 4.700000e-01    3.070000e+00
  N1dr  X2vh  1 4.700000e-01    2.960000e+00
  N1dr  X1vh  1 4.700000e-01    2.960000e+00
  P6dr  C6vr  1 4.700000e-01    2.620000e+00
  P6dr  C5vr  1 4.700000e-01    2.440000e+00
  P6dr  C4vr  1 4.850000e-01    2.240000e+00
  P6dr  C3vr  1 5.200000e-01    2.120000e+00
  P6dr  C2vr  1 5.200000e-01    2.120000e+00
  P6dr  C1vr  1 6.200000e-01    1.960000e+00
  P6dr  X4vr  1 4.700000e-01    2.790000e+00
  P6dr  X3vr  1 4.700000e-01    2.790000e+00
  P6dr  X2vr  1 4.700000e-01    2.620000e+00
  P6dr  X1vr  1 4.700000e-01    2.440000e+00
  P5dr  C6vr  1 4.700000e-01    2.620000e+00
  P5dr  C5vr  1 4.700000e-01    2.620000e+00
  P5dr  C4vr  1 4.700000e-01    2.440000e+00
  P5dr  C3vr  1 4.850000e-01    2.240000e+00
  P5dr  C2vr  1 4.850000e-01    2.240000e+00
  P5dr  C1vr  1 5.200000e-01    2.120000e+00
  P5dr  X4vr  1 4.700000e-01    2.960000e+00
  P5dr  X3vr  1 4.700000e-01    2.790000e+00
  P5dr  X2vr  1 4.700000e-01    2.790000e+00
  P5dr  X1vr  1 4.700000e-01    2.440000e+00
  P4dr  C6vr  1 4.700000e-01    2.790000e+00
  P4dr  C5vr  1 4.700000e-01    2.620000e+00
  P4dr  C4vr  1 4.700000e-01    2.440000e+00
  P4dr  C3vr  1 4.850000e-01    2.240000e+00
  P4dr  C2vr  1 4.850000e-01    2.240000e+00
  P4dr  C1vr  1 5.200000e-01    2.120000e+00
  P4dr  X4vr  1 4.700000e-01    2.960000e+00
  P4dr  X3vr  1 4.700000e-01    2.790000e+00
  P4dr  X2vr  1 4.700000e-01    2.790000e+00
  P4dr  X1vr  1 4.700000e-01    2.620000e+00
  P3dr  C6vr  1 4.700000e-01    2.960000e+00
  P3dr  C5vr  1 4.700000e-01    2.790000e+00
  P3dr  C4vr  1 4.700000e-01    2.620000e+00
  P3dr  C3vr  1 4.850000e-01    2.240000e+00
  P3dr  C2vr  1 4.850000e-01    2.240000e+00
  P3dr  C1vr  1 5.200000e-01    2.120000e+00
  P3dr  X4vr  1 4.700000e-01    2.960000e+00
  P3dr  X3vr  1 4.700000e-01    2.960000e+00
  P3dr  X2vr  1 4.700000e-01    2.790000e+00
  P3dr  X1vr  1 4.700000e-01    2.620000e+00
  P2dr  C6vr  1 4.700000e-01    2.960000e+00
  P2dr  C5vr  1 4.700000e-01    2.790000e+00
  P2dr  C4vr  1 4.700000e-01    2.620000e+00
  P2dr  C3vr  1 4.700000e-01    2.440000e+00
  P2dr  C2vr  1 4.700000e-01    2.440000e+00
  P2dr  C1vr  1 4.850000e-01    2.240000e+00
  P2dr  X4vr  1 4.700000e-01    2.960000e+00
  P2dr  X3vr  1 4.700000e-01    2.960000e+00
  P2dr  X2vr  1 4.700000e-01    2.790000e+00
  P2dr  X1vr  1 4.700000e-01    2.620000e+00
  P1dr  C6vr  1 4.700000e-01    2.960000e+00
  P1dr  C5vr  1 4.700000e-01    2.790000e+00
  P1dr  C4vr  1 4.700000e-01    2.620000e+00
  P1dr  C3vr  1 4.700000e-01    2.440000e+00
  P1dr  C2vr  1 4.700000e-01    2.440000e+00
  P1dr  C1vr  1 4.850000e-01    2.240000e+00
  P1dr  X4vr  1 4.700000e-01    2.960000e+00
  P1dr  X3vr  1 4.700000e-01    2.960000e+00
  P1dr  X2vr  1 4.700000e-01    2.790000e+00
  P1dr  X1vr  1 4.700000e-01    2.620000e+00
  N6dr  C6vr  1 4.700000e-01    3.070000e+00
  N6dr  C5vr  1 4.700000e-01    2.960000e+00
  N6dr  C4vr  1 4.700000e-01    2.790000e+00
  N6dr  C3vr  1 4.700000e-01    2.620000e+00
  N6dr  C2vr  1 4.700000e-01    2.620000e+00
  N6dr  C1vr  1 4.700000e-01    2.440000e+00
  N6dr  X4vr  1 4.700000e-01    3.070000e+00
  N6dr  X3vr  1 4.700000e-01    2.960000e+00
  N6dr  X2vr  1 4.700000e-01    2.790000e+00
  N6dr  X1vr  1 4.700000e-01    2.620000e+00
  N5dr  C6vr  1 4.700000e-01    3.070000e+00
  N5dr  C5vr  1 4.700000e-01    2.960000e+00
  N5dr  C4vr  1 4.700000e-01    2.790000e+00
  N5dr  C3vr  1 4.700000e-01    2.790000e+00
  N5dr  C2vr  1 4.700000e-01    2.620000e+00
  N5dr  C1vr  1 4.700000e-01    2.440000e+00
  N5dr  X4vr  1 4.700000e-01    3.240000e+00
  N5dr  X3vr  1 4.700000e-01    3.070000e+00
  N5dr  X2vr  1 4.700000e-01    2.960000e+00
  N5dr  X1vr  1 4.700000e-01    2.790000e+00
  N4dr  C6vr  1 4.700000e-01    3.070000e+00
  N4dr  C5vr  1 4.700000e-01    2.960000e+00
  N4dr  C4vr  1 4.700000e-01    2.960000e+00
  N4dr  C3vr  1 4.700000e-01    2.790000e+00
  N4dr  C2vr  1 4.700000e-01    2.620000e+00
  N4dr  C1vr  1 4.700000e-01    2.440000e+00
  N4dr  X4vr  1 4.700000e-01    3.390000e+00
  N4dr  X3vr  1 4.700000e-01    3.240000e+00
  N4dr  X2vr  1 4.700000e-01    2.960000e+00
  N4dr  X1vr  1 4.700000e-01    2.790000e+00
  N3dr  C6vr  1 4.700000e-01    3.070000e+00
  N3dr  C5vr  1 4.700000e-01    2.960000e+00
  N3dr  C4vr  1 4.700000e-01    2.960000e+00
  N3dr  C3vr  1 4.700000e-01    2.790000e+00
  N3dr  C2vr  1 4.700000e-01    2.790000e+00
  N3dr  C1vr  1 4.700000e-01    2.620000e+00
  N3dr  X4vr  1 4.700000e-01    3.240000e+00
  N3dr  X3vr  1 4.700000e-01    3.070000e+00
  N3dr  X2vr  1 4.700000e-01    2.960000e+00
  N3dr  X1vr  1 4.700000e-01    2.960000e+00
  N2dr  C6vr  1 4.700000e-01    3.070000e+00
  N2dr  C5vr  1 4.700000e-01    2.960000e+00
  N2dr  C4vr  1 4.700000e-01    2.960000e+00
  N2dr  C3vr  1 4.700000e-01    2.960000e+00
  N2dr  C2vr  1 4.700000e-01    2.790000e+00
  N2dr  C1vr  1 4.700000e-01    2.620000e+00
  N2dr  X4vr  1 4.700000e-01    3.240000e+00
  N2dr  X3vr  1 4.700000e-01    3.070000e+00
  N2dr  X2vr  1 4.700000e-01    2.960000e+00
  N2dr  X1vr  1 4.700000e-01    2.960000e+00
  N1dr  C6vr  1 4.700000e-01    3.240000e+00
  N1dr  C5vr  1 4.700000e-01    3.070000e+00
  N1dr  C4vr  1 4.700000e-01    3.070000e+00
  N1dr  C3vr  1 4.700000e-01    2.960000e+00
  N1dr  C2vr  1 4.700000e-01    2.790000e+00
  N1dr  C1vr  1 4.700000e-01    2.620000e+00
  N1dr  X4vr  1 4.700000e-01    3.070000e+00
  N1dr  X3vr  1 4.700000e-01    3.070000e+00
  N1dr  X2vr  1 4.700000e-01    2.960000e+00
  N1dr  X1vr  1 4.700000e-01    2.960000e+00
   P6a   C6e  1 4.700000e-01    2.620000e+00
   P6a   C5e  1 4.700000e-01    2.440000e+00
   P6a   C4e  1 4.850000e-01    2.240000e+00
   P6a   C3e  1 5.200000e-01    2.120000e+00
   P6a   C2e  1 5.200000e-01    2.120000e+00
   P6a   C1e  1 6.200000e-01    1.960000e+00
   P6a   X4e  1 4.700000e-01    2.790000e+00
   P6a   X3e  1 4.700000e-01    2.790000e+00
   P6a   X2e  1 4.700000e-01    2.620000e+00
   P6a   X1e  1 4.700000e-01    2.440000e+00
   P5a   C6e  1 4.700000e-01    2.620000e+00
   P5a   C5e  1 4.700000e-01    2.620000e+00
   P5a   C4e  1 4.700000e-01    2.440000e+00
   P5a   C3e  1 4.850000e-01    2.240000e+00
   P5a   C2e  1 4.850000e-01    2.240000e+00
   P5a   C1e  1 5.200000e-01    2.120000e+00
   P5a   X4e  1 4.700000e-01    2.960000e+00
   P5a   X3e  1 4.700000e-01    2.790000e+00
   P5a   X2e  1 4.700000e-01    2.790000e+00
   P5a   X1e  1 4.700000e-01    2.440000e+00
   P4a   C6e  1 4.700000e-01    2.790000e+00
   P4a   C5e  1 4.700000e-01    2.620000e+00
   P4a   C4e  1 4.700000e-01    2.440000e+00
   P4a   C3e  1 4.850000e-01    2.240000e+00
   P4a   C2e  1 4.850000e-01    2.240000e+00
   P4a   C1e  1 5.200000e-01    2.120000e+00
   P4a   X4e  1 4.700000e-01    2.960000e+00
   P4a   X3e  1 4.700000e-01    2.790000e+00
   P4a   X2e  1 4.700000e-01    2.790000e+00
   P4a   X1e  1 4.700000e-01    2.620000e+00
   P3a   C6e  1 4.700000e-01    2.960000e+00
   P3a   C5e  1 4.700000e-01    2.790000e+00
   P3a   C4e  1 4.700000e-01    2.620000e+00
   P3a   C3e  1 4.850000e-01    2.240000e+00
   P3a   C2e  1 4.850000e-01    2.240000e+00
   P3a   C1e  1 5.200000e-01    2.120000e+00
   P3a   X4e  1 4.700000e-01    2.960000e+00
   P3a   X3e  1 4.700000e-01    2.960000e+00
   P3a   X2e  1 4.700000e-01    2.790000e+00
   P3a   X1e  1 4.700000e-01    2.620000e+00
   P2a   C6e  1 4.700000e-01    2.960000e+00
   P2a   C5e  1 4.700000e-01    2.790000e+00
   P2a   C4e  1 4.700000e-01    2.620000e+00
   P2a   C3e  1 4.700000e-01    2.440000e+00
   P2a   C2e  1 4.700000e-01    2.440000e+00
   P2a   C1e  1 4.850000e-01    2.240000e+00
   P2a   X4e  1 4.700000e-01    2.960000e+00
   P2a   X3e  1 4.700000e-01    2.960000e+00
   P2a   X2e  1 4.700000e-01    2.790000e+00
   P2a   X1e  1 4.700000e-01    2.620000e+00
   P1a   C6e  1 4.700000e-01    2.960000e+00
   P1a   C5e  1 4.700000e-01    2.790000e+00
   P1a   C4e  1 4.700000e-01    2.620000e+00
   P1a   C3e  1 4.700000e-01    2.440000e+00
   P1a   C2e  1 4.700000e-01    2.440000e+00
   P1a   C1e  1 4.850000e-01    2.240000e+00
   P1a   X4e  1 4.700000e-01    2.960000e+00
   P1a   X3e  1 4.700000e-01    2.960000e+00
   P1a   X2e  1 4.700000e-01    2.790000e+00
   P1a   X1e  1 4.700000e-01    2.620000e+00
   N6a   C6e  1 4.700000e-01    3.070000e+00
   N6a   C5e  1 4.700000e-01    2.960000e+00
   N6a   C4e  1 4.700000e-01    2.790000e+00
   N6a   C3e  1 4.700000e-01    2.620000e+00
   N6a   C2e  1 4.700000e-01    2.620000e+00
   N6a   C1e  1 4.700000e-01    2.440000e+00
   N6a   X4e  1 4.700000e-01    3.070000e+00
   N6a   X3e  1 4.700000e-01    2.960000e+00
   N6a   X2e  1 4.700000e-01    2.790000e+00
   N6a   X1e  1 4.700000e-01    2.620000e+00
   N5a   C6e  1 4.700000e-01    3.070000e+00
   N5a   C5e  1 4.700000e-01    2.960000e+00
   N5a   C4e  1 4.700000e-01    2.790000e+00
   N5a   C3e  1 4.700000e-01    2.790000e+00
   N5a   C2e  1 4.700000e-01    2.620000e+00
   N5a   C1e  1 4.700000e-01    2.440000e+00
   N5a   X4e  1 4.700000e-01    3.240000e+00
   N5a   X3e  1 4.700000e-01    3.070000e+00
   N5a   X2e  1 4.700000e-01    2.960000e+00
   N5a   X1e  1 4.700000e-01    2.790000e+00
   N4a   C6e  1 4.700000e-01    3.070000e+00
   N4a   C5e  1 4.700000e-01    2.960000e+00
   N4a   C4e  1 4.700000e-01    2.960000e+00
   N4a   C3e  1 4.700000e-01    2.790000e+00
   N4a   C2e  1 4.700000e-01    2.620000e+00
   N4a   C1e  1 4.700000e-01    2.440000e+00
   N4a   X4e  1 4.700000e-01    3.390000e+00
   N4a   X3e  1 4.700000e-01    3.240000e+00
   N4a   X2e  1 4.700000e-01    2.960000e+00
   N4a   X1e  1 4.700000e-01    2.790000e+00
   N3a   C6e  1 4.700000e-01    3.070000e+00
   N3a   C5e  1 4.700000e-01    2.960000e+00
   N3a   C4e  1 4.700000e-01    2.960000e+00
   N3a   C3e  1 4.700000e-01    2.790000e+00
   N3a   C2e  1 4.700000e-01    2.790000e+00
   N3a   C1e  1 4.700000e-01    2.620000e+00
   N3a   X4e  1 4.700000e-01    3.240000e+00
   N3a   X3e  1 4.700000e-01    3.070000e+00
   N3a   X2e  1 4.700000e-01    2.960000e+00
   N3a   X1e  1 4.700000e-01    2.960000e+00
   N2a   C6e  1 4.700000e-01    3.070000e+00
   N2a   C5e  1 4.700000e-01    2.960000e+00
   N2a   C4e  1 4.700000e-01    2.960000e+00
   N2a   C3e  1 4.700000e-01    2.960000e+00
   N2a   C2e  1 4.700000e-01    2.790000e+00
   N2a   C1e  1 4.700000e-01    2.620000e+00
   N2a   X4e  1 4.700000e-01    3.240000e+00
   N2a   X3e  1 4.700000e-01    3.070000e+00
   N2a   X2e  1 4.700000e-01    2.960000e+00
   N2a   X1e  1 4.700000e-01    2.960000e+00
   N1a   C6e  1 4.700000e-01    3.240000e+00
   N1a   C5e  1 4.700000e-01    3.070000e+00
   N1a   C4e  1 4.700000e-01    3.070000e+00
   N1a   C3e  1 4.700000e-01    2.960000e+00
   N1a   C2e  1 4.700000e-01    2.790000e+00
   N1a   C1e  1 4.700000e-01    2.620000e+00
   N1a   X4e  1 4.700000e-01    3.070000e+00
   N1a   X3e  1 4.700000e-01    3.070000e+00
   N1a   X2e  1 4.700000e-01    2.960000e+00
   N1a   X1e  1 4.700000e-01    2.960000e+00
   P6a  X1eq  1 4.700000e-01    2.790000e+00
   P5a  X1eq  1 4.700000e-01    2.790000e+00
   P4a  X1eq  1 4.700000e-01    2.960000e+00
   P3a  X1eq  1 4.700000e-01    2.960000e+00
   P2a  X1eq  1 4.700000e-01    2.960000e+00
   P1a  X1eq  1 4.700000e-01    2.960000e+00
   N6a  X1eq  1 4.700000e-01    2.960000e+00
   N5a  X1eq  1 4.700000e-01    3.070000e+00
   N4a  X1eq  1 4.700000e-01    3.070000e+00
   N3a  X1eq  1 4.700000e-01    3.240000e+00
   N2a  X1eq  1 4.700000e-01    3.240000e+00
   N1a  X1eq  1 4.700000e-01    3.240000e+00
   P6a  X2eq  1 4.700000e-01    2.960000e+00
   P5a  X2eq  1 4.700000e-01    3.070000e+00
   P4a  X2eq  1 4.700000e-01    3.070000e+00
   P3a  X2eq  1 4.700000e-01    3.070000e+00
   P2a  X2eq  1 4.700000e-01    3.070000e+00
   P1a  X2eq  1 4.700000e-01    3.070000e+00
   N6a  X2eq  1 4.700000e-01    3.070000e+00
   N5a  X2eq  1 4.700000e-01    3.240000e+00
   N4a  X2eq  1 4.700000e-01    3.240000e+00
   N3a  X2eq  1 4.700000e-01    3.240000e+00
   N2a  X2eq  1 4.700000e-01    3.240000e+00
   N1a  X2eq  1 4.700000e-01    3.240000e+00
   P6a  X3eq  1 4.700000e-01    3.070000e+00
   P5a  X3eq  1 4.700000e-01    3.070000e+00
   P4a  X3eq  1 4.700000e-01    3.070000e+00
   P3a  X3eq  1 4.700000e-01    3.240000e+00
   P2a  X3eq  1 4.700000e-01    3.240000e+00
   P1a  X3eq  1 4.700000e-01    3.240000e+00
   N6a  X3eq  1 4.700000e-01    3.240000e+00
   N5a  X3eq  1 4.700000e-01    3.390000e+00
   N4a  X3eq  1 4.700000e-01    3.520000e+00
   N3a  X3eq  1 4.700000e-01    3.390000e+00
   N2a  X3eq  1 4.700000e-01    3.390000e+00
   N1a  X3eq  1 4.700000e-01    3.390000e+00
   P6a  X4eq  1 4.700000e-01    3.070000e+00
   P5a  X4eq  1 4.700000e-01    3.240000e+00
   P4a  X4eq  1 4.700000e-01    3.240000e+00
   P3a  X4eq  1 4.700000e-01    3.240000e+00
   P2a  X4eq  1 4.700000e-01    3.240000e+00
   P1a  X4eq  1 4.700000e-01    3.240000e+00
   N6a  X4eq  1 4.700000e-01    3.390000e+00
   N5a  X4eq  1 4.700000e-01    3.520000e+00
   N4a  X4eq  1 4.700000e-01    3.690000e+00
   N3a  X4eq  1 4.700000e-01    3.520000e+00
   N2a  X4eq  1 4.700000e-01    3.520000e+00
   N1a  X4eq  1 4.700000e-01    3.390000e+00
   P6a  C1eq  1 5.200000e-01    2.120000e+00
   P5a  C1eq  1 4.700000e-01    2.440000e+00
   P4a  C1eq  1 4.700000e-01    2.440000e+00
   P3a  C1eq  1 4.700000e-01    2.440000e+00
   P2a  C1eq  1 4.700000e-01    2.620000e+00
   P1a  C1eq  1 4.700000e-01    2.620000e+00
   N6a  C1eq  1 4.700000e-01    2.790000e+00
   N5a  C1eq  1 4.700000e-01    2.790000e+00
   N4a  C1eq  1 4.700000e-01    2.790000e+00
   N3a  C1eq  1 4.700000e-01    2.960000e+00
   N2a  C1eq  1 4.700000e-01    2.960000e+00
   N1a  C1eq  1 4.700000e-01    2.960000e+00
   P6a  C2eq  1 4.700000e-01    2.440000e+00
   P5a  C2eq  1 4.700000e-01    2.620000e+00
   P4a  C2eq  1 4.700000e-01    2.620000e+00
   P3a  C2eq  1 4.700000e-01    2.620000e+00
   P2a  C2eq  1 4.700000e-01    2.790000e+00
   P1a  C2eq  1 4.700000e-01    2.790000e+00
   N6a  C2eq  1 4.700000e-01    2.960000e+00
   N5a  C2eq  1 4.700000e-01    2.960000e+00
   N4a  C2eq  1 4.700000e-01    2.960000e+00
   N3a  C2eq  1 4.700000e-01    3.070000e+00
   N2a  C2eq  1 4.700000e-01    3.070000e+00
   N1a  C2eq  1 4.700000e-01    3.070000e+00
   P6a  C3eq  1 4.700000e-01    2.440000e+00
   P5a  C3eq  1 4.700000e-01    2.620000e+00
   P4a  C3eq  1 4.700000e-01    2.620000e+00
   P3a  C3eq  1 4.700000e-01    2.620000e+00
   P2a  C3eq  1 4.700000e-01    2.790000e+00
   P1a  C3eq  1 4.700000e-01    2.790000e+00
   N6a  C3eq  1 4.700000e-01    2.960000e+00
   N5a  C3eq  1 4.700000e-01    3.070000e+00
   N4a  C3eq  1 4.700000e-01    3.070000e+00
   N3a  C3eq  1 4.700000e-01    3.070000e+00
   N2a  C3eq  1 4.700000e-01    3.240000e+00
   N1a  C3eq  1 4.700000e-01    3.240000e+00
   P6a  C4eq  1 4.700000e-01    2.620000e+00
   P5a  C4eq  1 4.700000e-01    2.790000e+00
   P4a  C4eq  1 4.700000e-01    2.790000e+00
   P3a  C4eq  1 4.700000e-01    2.960000e+00
   P2a  C4eq  1 4.700000e-01    2.960000e+00
   P1a  C4eq  1 4.700000e-01    2.960000e+00
   N6a  C4eq  1 4.700000e-01    3.070000e+00
   N5a  C4eq  1 4.700000e-01    3.070000e+00
   N4a  C4eq  1 4.700000e-01    3.240000e+00
   N3a  C4eq  1 4.700000e-01    3.240000e+00
   N2a  C4eq  1 4.700000e-01    3.240000e+00
   N1a  C4eq  1 4.700000e-01    3.390000e+00
   P6a  C5eq  1 4.700000e-01    2.790000e+00
   P5a  C5eq  1 4.700000e-01    2.960000e+00
   P4a  C5eq  1 4.700000e-01    2.960000e+00
   P3a  C5eq  1 4.700000e-01    3.070000e+00
   P2a  C5eq  1 4.700000e-01    3.070000e+00
   P1a  C5eq  1 4.700000e-01    3.070000e+00
   N6a  C5eq  1 4.700000e-01    3.240000e+00
   N5a  C5eq  1 4.700000e-01    3.240000e+00
   N4a  C5eq  1 4.700000e-01    3.240000e+00
   N3a  C5eq  1 4.700000e-01    3.240000e+00
   N2a  C5eq  1 4.700000e-01    3.240000e+00
   N1a  C5eq  1 4.700000e-01    3.390000e+00
   P6a  C6eq  1 4.700000e-01    2.960000e+00
   P5a  C6eq  1 4.700000e-01    2.960000e+00
   P4a  C6eq  1 4.700000e-01    3.070000e+00
   P3a  C6eq  1 4.700000e-01    3.240000e+00
   P2a  C6eq  1 4.700000e-01    3.240000e+00
   P1a  C6eq  1 4.700000e-01    3.240000e+00
   N6a  C6eq  1 4.700000e-01    3.390000e+00
   N5a  C6eq  1 4.700000e-01    3.390000e+00
   N4a  C6eq  1 4.700000e-01    3.390000e+00
   N3a  C6eq  1 4.700000e-01    3.390000e+00
   N2a  C6eq  1 4.700000e-01    3.390000e+00
   N1a  C6eq  1 4.700000e-01    3.520000e+00
   P6a  X1eh  1 4.700000e-01    2.440000e+00
   P5a  X1eh  1 4.700000e-01    2.440000e+00
   P4a  X1eh  1 4.700000e-01    2.620000e+00
   P3a  X1eh  1 4.700000e-01    2.620000e+00
   P2a  X1eh  1 4.700000e-01    2.620000e+00
   P1a  X1eh  1 4.700000e-01    2.620000e+00
   N6a  X1eh  1 4.700000e-01    2.620000e+00
   N5a  X1eh  1 4.700000e-01    2.790000e+00
   N4a  X1eh  1 4.700000e-01    2.790000e+00
   N3a  X1eh  1 4.700000e-01    2.960000e+00
   N2a  X1eh  1 4.700000e-01    2.960000e+00
   N1a  X1eh  1 4.700000e-01    2.960000e+00
   P6a  X2eh  1 4.700000e-01    2.620000e+00
   P5a  X2eh  1 4.700000e-01    2.790000e+00
   P4a  X2eh  1 4.700000e-01    2.790000e+00
   P3a  X2eh  1 4.700000e-01    2.790000e+00
   P2a  X2eh  1 4.700000e-01    2.790000e+00
   P1a  X2eh  1 4.700000e-01    2.790000e+00
   N6a  X2eh  1 4.700000e-01    2.790000e+00
   N5a  X2eh  1 4.700000e-01    2.960000e+00
   N4a  X2eh  1 4.700000e-01    2.960000e+00
   N3a  X2eh  1 4.700000e-01    2.960000e+00
   N2a  X2eh  1 4.700000e-01    2.960000e+00
   N1a  X2eh  1 4.700000e-01    2.960000e+00
   P6a  X3eh  1 4.700000e-01    2.790000e+00
   P5a  X3eh  1 4.700000e-01    2.790000e+00
   P4a  X3eh  1 4.700000e-01    2.790000e+00
   P3a  X3eh  1 4.700000e-01    2.960000e+00
   P2a  X3eh  1 4.700000e-01    2.960000e+00
   P1a  X3eh  1 4.700000e-01    2.960000e+00
   N6a  X3eh  1 4.700000e-01    2.960000e+00
   N5a  X3eh  1 4.700000e-01    3.070000e+00
   N4a  X3eh  1 4.700000e-01    3.240000e+00
   N3a  X3eh  1 4.700000e-01    3.070000e+00
   N2a  X3eh  1 4.700000e-01    3.070000e+00
   N1a  X3eh  1 4.700000e-01    3.070000e+00
   P6a  X4eh  1 4.700000e-01    2.790000e+00
   P5a  X4eh  1 4.700000e-01    2.960000e+00
   P4a  X4eh  1 4.700000e-01    2.960000e+00
   P3a  X4eh  1 4.700000e-01    2.960000e+00
   P2a  X4eh  1 4.700000e-01    2.960000e+00
   P1a  X4eh  1 4.700000e-01    2.960000e+00
   N6a  X4eh  1 4.700000e-01    3.070000e+00
   N5a  X4eh  1 4.700000e-01    3.240000e+00
   N4a  X4eh  1 4.700000e-01    3.390000e+00
   N3a  X4eh  1 4.700000e-01    3.240000e+00
   N2a  X4eh  1 4.700000e-01    3.240000e+00
   N1a  X4eh  1 4.700000e-01    3.070000e+00
   P6a  C1eh  1 6.200000e-01    1.960000e+00
   P5a  C1eh  1 5.200000e-01    2.120000e+00
   P4a  C1eh  1 5.200000e-01    2.120000e+00
   P3a  C1eh  1 5.200000e-01    2.120000e+00
   P2a  C1eh  1 4.850000e-01    2.240000e+00
   P1a  C1eh  1 4.850000e-01    2.240000e+00
   N6a  C1eh  1 4.700000e-01    2.440000e+00
   N5a  C1eh  1 4.700000e-01    2.440000e+00
   N4a  C1eh  1 4.700000e-01    2.440000e+00
   N3a  C1eh  1 4.700000e-01    2.620000e+00
   N2a  C1eh  1 4.700000e-01    2.620000e+00
   N1a  C1eh  1 4.700000e-01    2.620000e+00
   P6a  C2eh  1 5.200000e-01    2.120000e+00
   P5a  C2eh  1 4.850000e-01    2.240000e+00
   P4a  C2eh  1 4.850000e-01    2.240000e+00
   P3a  C2eh  1 4.850000e-01    2.240000e+00
   P2a  C2eh  1 4.700000e-01    2.440000e+00
   P1a  C2eh  1 4.700000e-01    2.440000e+00
   N6a  C2eh  1 4.700000e-01    2.620000e+00
   N5a  C2eh  1 4.700000e-01    2.620000e+00
   N4a  C2eh  1 4.700000e-01    2.620000e+00
   N3a  C2eh  1 4.700000e-01    2.790000e+00
   N2a  C2eh  1 4.700000e-01    2.790000e+00
   N1a  C2eh  1 4.700000e-01    2.790000e+00
   P6a  C3eh  1 5.200000e-01    2.120000e+00
   P5a  C3eh  1 4.850000e-01    2.240000e+00
   P4a  C3eh  1 4.850000e-01    2.240000e+00
   P3a  C3eh  1 4.850000e-01    2.240000e+00
   P2a  C3eh  1 4.700000e-01    2.440000e+00
   P1a  C3eh  1 4.700000e-01    2.440000e+00
   N6a  C3eh  1 4.700000e-01    2.620000e+00
   N5a  C3eh  1 4.700000e-01    2.790000e+00
   N4a  C3eh  1 4.700000e-01    2.790000e+00
   N3a  C3eh  1 4.700000e-01    2.790000e+00
   N2a  C3eh  1 4.700000e-01    2.960000e+00
   N1a  C3eh  1 4.700000e-01    2.960000e+00
   P6a  C4eh  1 4.850000e-01    2.240000e+00
   P5a  C4eh  1 4.700000e-01    2.440000e+00
   P4a  C4eh  1 4.700000e-01    2.440000e+00
   P3a  C4eh  1 4.700000e-01    2.620000e+00
   P2a  C4eh  1 4.700000e-01    2.620000e+00
   P1a  C4eh  1 4.700000e-01    2.620000e+00
   N6a  C4eh  1 4.700000e-01    2.790000e+00
   N5a  C4eh  1 4.700000e-01    2.790000e+00
   N4a  C4eh  1 4.700000e-01    2.960000e+00
   N3a  C4eh  1 4.700000e-01    2.960000e+00
   N2a  C4eh  1 4.700000e-01    2.960000e+00
   N1a  C4eh  1 4.700000e-01    3.070000e+00
   P6a  C5eh  1 4.700000e-01    2.440000e+00
   P5a  C5eh  1 4.700000e-01    2.620000e+00
   P4a  C5eh  1 4.700000e-01    2.620000e+00
   P3a  C5eh  1 4.700000e-01    2.790000e+00
   P2a  C5eh  1 4.700000e-01    2.790000e+00
   P1a  C5eh  1 4.700000e-01    2.790000e+00
   N6a  C5eh  1 4.700000e-01    2.960000e+00
   N5a  C5eh  1 4.700000e-01    2.960000e+00
   N4a  C5eh  1 4.700000e-01    2.960000e+00
   N3a  C5eh  1 4.700000e-01    2.960000e+00
   N2a  C5eh  1 4.700000e-01    2.960000e+00
   N1a  C5eh  1 4.700000e-01    3.070000e+00
   P6a  C6eh  1 4.700000e-01    2.620000e+00
   P5a  C6eh  1 4.700000e-01    2.620000e+00
   P4a  C6eh  1 4.700000e-01    2.790000e+00
   P3a  C6eh  1 4.700000e-01    2.960000e+00
   P2a  C6eh  1 4.700000e-01    2.960000e+00
   P1a  C6eh  1 4.700000e-01    2.960000e+00
   N6a  C6eh  1 4.700000e-01    3.070000e+00
   N5a  C6eh  1 4.700000e-01    3.070000e+00
   N4a  C6eh  1 4.700000e-01    3.070000e+00
   N3a  C6eh  1 4.700000e-01    3.070000e+00
   N2a  C6eh  1 4.700000e-01    3.070000e+00
   N1a  C6eh  1 4.700000e-01    3.240000e+00
   P6a  X1er  1 4.700000e-01    2.440000e+00
   P5a  X1er  1 4.700000e-01    2.440000e+00
   P4a  X1er  1 4.700000e-01    2.620000e+00
   P3a  X1er  1 4.700000e-01    2.620000e+00
   P2a  X1er  1 4.700000e-01    2.620000e+00
   P1a  X1er  1 4.700000e-01    2.620000e+00
   N6a  X1er  1 4.700000e-01    2.620000e+00
   N5a  X1er  1 4.700000e-01    2.790000e+00
   N4a  X1er  1 4.700000e-01    2.790000e+00
   N3a  X1er  1 4.700000e-01    2.960000e+00
   N2a  X1er  1 4.700000e-01    2.960000e+00
   N1a  X1er  1 4.700000e-01    2.960000e+00
   P6a  X2er  1 4.700000e-01    2.620000e+00
   P5a  X2er  1 4.700000e-01    2.790000e+00
   P4a  X2er  1 4.700000e-01    2.790000e+00
   P3a  X2er  1 4.700000e-01    2.790000e+00
   P2a  X2er  1 4.700000e-01    2.790000e+00
   P1a  X2er  1 4.700000e-01    2.790000e+00
   N6a  X2er  1 4.700000e-01    2.790000e+00
   N5a  X2er  1 4.700000e-01    2.960000e+00
   N4a  X2er  1 4.700000e-01    2.960000e+00
   N3a  X2er  1 4.700000e-01    2.960000e+00
   N2a  X2er  1 4.700000e-01    2.960000e+00
   N1a  X2er  1 4.700000e-01    2.960000e+00
   P6a  X3er  1 4.700000e-01    2.790000e+00
   P5a  X3er  1 4.700000e-01    2.790000e+00
   P4a  X3er  1 4.700000e-01    2.790000e+00
   P3a  X3er  1 4.700000e-01    2.960000e+00
   P2a  X3er  1 4.700000e-01    2.960000e+00
   P1a  X3er  1 4.700000e-01    2.960000e+00
   N6a  X3er  1 4.700000e-01    2.960000e+00
   N5a  X3er  1 4.700000e-01    3.070000e+00
   N4a  X3er  1 4.700000e-01    3.240000e+00
   N3a  X3er  1 4.700000e-01    3.070000e+00
   N2a  X3er  1 4.700000e-01    3.070000e+00
   N1a  X3er  1 4.700000e-01    3.070000e+00
   P6a  X4er  1 4.700000e-01    2.790000e+00
   P5a  X4er  1 4.700000e-01    2.960000e+00
   P4a  X4er  1 4.700000e-01    2.960000e+00
   P3a  X4er  1 4.700000e-01    2.960000e+00
   P2a  X4er  1 4.700000e-01    2.960000e+00
   P1a  X4er  1 4.700000e-01    2.960000e+00
   N6a  X4er  1 4.700000e-01    3.070000e+00
   N5a  X4er  1 4.700000e-01    3.240000e+00
   N4a  X4er  1 4.700000e-01    3.390000e+00
   N3a  X4er  1 4.700000e-01    3.240000e+00
   N2a  X4er  1 4.700000e-01    3.240000e+00
   N1a  X4er  1 4.700000e-01    3.070000e+00
   P6a  C1er  1 6.200000e-01    1.960000e+00
   P5a  C1er  1 5.200000e-01    2.120000e+00
   P4a  C1er  1 5.200000e-01    2.120000e+00
   P3a  C1er  1 5.200000e-01    2.120000e+00
   P2a  C1er  1 4.850000e-01    2.240000e+00
   P1a  C1er  1 4.850000e-01    2.240000e+00
   N6a  C1er  1 4.700000e-01    2.440000e+00
   N5a  C1er  1 4.700000e-01    2.440000e+00
   N4a  C1er  1 4.700000e-01    2.440000e+00
   N3a  C1er  1 4.700000e-01    2.620000e+00
   N2a  C1er  1 4.700000e-01    2.620000e+00
   N1a  C1er  1 4.700000e-01    2.620000e+00
   P6a  C2er  1 5.200000e-01    2.120000e+00
   P5a  C2er  1 4.850000e-01    2.240000e+00
   P4a  C2er  1 4.850000e-01    2.240000e+00
   P3a  C2er  1 4.850000e-01    2.240000e+00
   P2a  C2er  1 4.700000e-01    2.440000e+00
   P1a  C2er  1 4.700000e-01    2.440000e+00
   N6a  C2er  1 4.700000e-01    2.620000e+00
   N5a  C2er  1 4.700000e-01    2.620000e+00
   N4a  C2er  1 4.700000e-01    2.620000e+00
   N3a  C2er  1 4.700000e-01    2.790000e+00
   N2a  C2er  1 4.700000e-01    2.790000e+00
   N1a  C2er  1 4.700000e-01    2.790000e+00
   P6a  C3er  1 5.200000e-01    2.120000e+00
   P5a  C3er  1 4.850000e-01    2.240000e+00
   P4a  C3er  1 4.850000e-01    2.240000e+00
   P3a  C3er  1 4.850000e-01    2.240000e+00
   P2a  C3er  1 4.700000e-01    2.440000e+00
   P1a  C3er  1 4.700000e-01    2.440000e+00
   N6a  C3er  1 4.700000e-01    2.620000e+00
   N5a  C3er  1 4.700000e-01    2.790000e+00
   N4a  C3er  1 4.700000e-01    2.790000e+00
   N3a  C3er  1 4.700000e-01    2.790000e+00
   N2a  C3er  1 4.700000e-01    2.960000e+00
   N1a  C3er  1 4.700000e-01    2.960000e+00
   P6a  C4er  1 4.850000e-01    2.240000e+00
   P5a  C4er  1 4.700000e-01    2.440000e+00
   P4a  C4er  1 4.700000e-01    2.440000e+00
   P3a  C4er  1 4.700000e-01    2.620000e+00
   P2a  C4er  1 4.700000e-01    2.620000e+00
   P1a  C4er  1 4.700000e-01    2.620000e+00
   N6a  C4er  1 4.700000e-01    2.790000e+00
   N5a  C4er  1 4.700000e-01    2.790000e+00
   N4a  C4er  1 4.700000e-01    2.960000e+00
   N3a  C4er  1 4.700000e-01    2.960000e+00
   N2a  C4er  1 4.700000e-01    2.960000e+00
   N1a  C4er  1 4.700000e-01    3.070000e+00
   P6a  C5er  1 4.700000e-01    2.440000e+00
   P5a  C5er  1 4.700000e-01    2.620000e+00
   P4a  C5er  1 4.700000e-01    2.620000e+00
   P3a  C5er  1 4.700000e-01    2.790000e+00
   P2a  C5er  1 4.700000e-01    2.790000e+00
   P1a  C5er  1 4.700000e-01    2.790000e+00
   N6a  C5er  1 4.700000e-01    2.960000e+00
   N5a  C5er  1 4.700000e-01    2.960000e+00
   N4a  C5er  1 4.700000e-01    2.960000e+00
   N3a  C5er  1 4.700000e-01    2.960000e+00
   N2a  C5er  1 4.700000e-01    2.960000e+00
   N1a  C5er  1 4.700000e-01    3.070000e+00
   P6a  C6er  1 4.700000e-01    2.620000e+00
   P5a  C6er  1 4.700000e-01    2.620000e+00
   P4a  C6er  1 4.700000e-01    2.790000e+00
   P3a  C6er  1 4.700000e-01    2.960000e+00
   P2a  C6er  1 4.700000e-01    2.960000e+00
   P1a  C6er  1 4.700000e-01    2.960000e+00
   N6a  C6er  1 4.700000e-01    3.070000e+00
   N5a  C6er  1 4.700000e-01    3.070000e+00
   N4a  C6er  1 4.700000e-01    3.070000e+00
   N3a  C6er  1 4.700000e-01    3.070000e+00
   N2a  C6er  1 4.700000e-01    3.070000e+00
   N1a  C6er  1 4.700000e-01    3.240000e+00
  P6aq   C6e  1 4.700000e-01    2.960000e+00
  P6aq   C5e  1 4.700000e-01    2.790000e+00
  P6aq   C4e  1 4.700000e-01    2.620000e+00
  P6aq   C3e  1 4.700000e-01    2.440000e+00
  P6aq   C2e  1 4.700000e-01    2.440000e+00
  P6aq   C1e  1 5.200000e-01    2.120000e+00
  P6aq   X4e  1 4.700000e-01    3.070000e+00
  P6aq   X3e  1 4.700000e-01    3.070000e+00
  P6aq   X2e  1 4.700000e-01    2.960000e+00
  P6aq   X1e  1 4.700000e-01    2.790000e+00
  P5aq   C6e  1 4.700000e-01    2.960000e+00
  P5aq   C5e  1 4.700000e-01    2.960000e+00
  P5aq   C4e  1 4.700000e-01    2.790000e+00
  P5aq   C3e  1 4.700000e-01    2.620000e+00
  P5aq   C2e  1 4.700000e-01    2.620000e+00
  P5aq   C1e  1 4.700000e-01    2.440000e+00
  P5aq   X4e  1 4.700000e-01    3.240000e+00
  P5aq   X3e  1 4.700000e-01    3.070000e+00
  P5aq   X2e  1 4.700000e-01    3.070000e+00
  P5aq   X1e  1 4.700000e-01    2.790000e+00
  P4aq   C6e  1 4.700000e-01    3.070000e+00
  P4aq   C5e  1 4.700000e-01    2.960000e+00
  P4aq   C4e  1 4.700000e-01    2.790000e+00
  P4aq   C3e  1 4.700000e-01    2.620000e+00
  P4aq   C2e  1 4.700000e-01    2.620000e+00
  P4aq   C1e  1 4.700000e-01    2.440000e+00
  P4aq   X4e  1 4.700000e-01    3.240000e+00
  P4aq   X3e  1 4.700000e-01    3.070000e+00
  P4aq   X2e  1 4.700000e-01    3.070000e+00
  P4aq   X1e  1 4.700000e-01    2.960000e+00
  P3aq   C6e  1 4.700000e-01    3.240000e+00
  P3aq   C5e  1 4.700000e-01    3.070000e+00
  P3aq   C4e  1 4.700000e-01    2.960000e+00
  P3aq   C3e  1 4.700000e-01    2.620000e+00
  P3aq   C2e  1 4.700000e-01    2.620000e+00
  P3aq   C1e  1 4.700000e-01    2.440000e+00
  P3aq   X4e  1 4.700000e-01    3.240000e+00
  P3aq   X3e  1 4.700000e-01    3.240000e+00
  P3aq   X2e  1 4.700000e-01    3.070000e+00
  P3aq   X1e  1 4.700000e-01    2.960000e+00
  P2aq   C6e  1 4.700000e-01    3.240000e+00
  P2aq   C5e  1 4.700000e-01    3.070000e+00
  P2aq   C4e  1 4.700000e-01    2.960000e+00
  P2aq   C3e  1 4.700000e-01    2.790000e+00
  P2aq   C2e  1 4.700000e-01    2.790000e+00
  P2aq   C1e  1 4.700000e-01    2.620000e+00
  P2aq   X4e  1 4.700000e-01    3.240000e+00
  P2aq   X3e  1 4.700000e-01    3.240000e+00
  P2aq   X2e  1 4.700000e-01    3.070000e+00
  P2aq   X1e  1 4.700000e-01    2.960000e+00
  P1aq   C6e  1 4.700000e-01    3.240000e+00
  P1aq   C5e  1 4.700000e-01    3.070000e+00
  P1aq   C4e  1 4.700000e-01    2.960000e+00
  P1aq   C3e  1 4.700000e-01    2.790000e+00
  P1aq   C2e  1 4.700000e-01    2.790000e+00
  P1aq   C1e  1 4.700000e-01    2.620000e+00
  P1aq   X4e  1 4.700000e-01    3.240000e+00
  P1aq   X3e  1 4.700000e-01    3.240000e+00
  P1aq   X2e  1 4.700000e-01    3.070000e+00
  P1aq   X1e  1 4.700000e-01    2.960000e+00
  N6aq   C6e  1 4.700000e-01    3.390000e+00
  N6aq   C5e  1 4.700000e-01    3.240000e+00
  N6aq   C4e  1 4.700000e-01    3.070000e+00
  N6aq   C3e  1 4.700000e-01    2.960000e+00
  N6aq   C2e  1 4.700000e-01    2.960000e+00
  N6aq   C1e  1 4.700000e-01    2.790000e+00
  N6aq   X4e  1 4.700000e-01    3.390000e+00
  N6aq   X3e  1 4.700000e-01    3.240000e+00
  N6aq   X2e  1 4.700000e-01    3.070000e+00
  N6aq   X1e  1 4.700000e-01    2.960000e+00
  N5aq   C6e  1 4.700000e-01    3.390000e+00
  N5aq   C5e  1 4.700000e-01    3.240000e+00
  N5aq   C4e  1 4.700000e-01    3.070000e+00
  N5aq   C3e  1 4.700000e-01    3.070000e+00
  N5aq   C2e  1 4.700000e-01    2.960000e+00
  N5aq   C1e  1 4.700000e-01    2.790000e+00
  N5aq   X4e  1 4.700000e-01    3.520000e+00
  N5aq   X3e  1 4.700000e-01    3.390000e+00
  N5aq   X2e  1 4.700000e-01    3.240000e+00
  N5aq   X1e  1 4.700000e-01    3.070000e+00
  N4aq   C6e  1 4.700000e-01    3.390000e+00
  N4aq   C5e  1 4.700000e-01    3.240000e+00
  N4aq   C4e  1 4.700000e-01    3.240000e+00
  N4aq   C3e  1 4.700000e-01    3.070000e+00
  N4aq   C2e  1 4.700000e-01    2.960000e+00
  N4aq   C1e  1 4.700000e-01    2.790000e+00
  N4aq   X4e  1 4.700000e-01    3.690000e+00
  N4aq   X3e  1 4.700000e-01    3.520000e+00
  N4aq   X2e  1 4.700000e-01    3.240000e+00
  N4aq   X1e  1 4.700000e-01    3.070000e+00
  N3aq   C6e  1 4.700000e-01    3.390000e+00
  N3aq   C5e  1 4.700000e-01    3.240000e+00
  N3aq   C4e  1 4.700000e-01    3.240000e+00
  N3aq   C3e  1 4.700000e-01    3.070000e+00
  N3aq   C2e  1 4.700000e-01    3.070000e+00
  N3aq   C1e  1 4.700000e-01    2.960000e+00
  N3aq   X4e  1 4.700000e-01    3.520000e+00
  N3aq   X3e  1 4.700000e-01    3.390000e+00
  N3aq   X2e  1 4.700000e-01    3.240000e+00
  N3aq   X1e  1 4.700000e-01    3.240000e+00
  N2aq   C6e  1 4.700000e-01    3.390000e+00
  N2aq   C5e  1 4.700000e-01    3.240000e+00
  N2aq   C4e  1 4.700000e-01    3.240000e+00
  N2aq   C3e  1 4.700000e-01    3.240000e+00
  N2aq   C2e  1 4.700000e-01    3.070000e+00
  N2aq   C1e  1 4.700000e-01    2.960000e+00
  N2aq   X4e  1 4.700000e-01    3.520000e+00
  N2aq   X3e  1 4.700000e-01    3.390000e+00
  N2aq   X2e  1 4.700000e-01    3.240000e+00
  N2aq   X1e  1 4.700000e-01    3.240000e+00
  N1aq   C6e  1 4.700000e-01    3.520000e+00
  N1aq   C5e  1 4.700000e-01    3.390000e+00
  N1aq   C4e  1 4.700000e-01    3.390000e+00
  N1aq   C3e  1 4.700000e-01    3.240000e+00
  N1aq   C2e  1 4.700000e-01    3.070000e+00
  N1aq   C1e  1 4.700000e-01    2.960000e+00
  N1aq   X4e  1 4.700000e-01    3.390000e+00
  N1aq   X3e  1 4.700000e-01    3.390000e+00
  N1aq   X2e  1 4.700000e-01    3.240000e+00
  N1aq   X1e  1 4.700000e-01    3.240000e+00
  P6aq  C6eq  1 4.700000e-01    2.960000e+00
  P6aq  C5eq  1 4.700000e-01    2.790000e+00
  P6aq  C4eq  1 4.700000e-01    2.620000e+00
  P6aq  C3eq  1 4.700000e-01    2.440000e+00
  P6aq  C2eq  1 4.700000e-01    2.440000e+00
  P6aq  C1eq  1 5.200000e-01    2.120000e+00
  P6aq  X4eq  1 4.700000e-01    3.070000e+00
  P6aq  X3eq  1 4.700000e-01    3.070000e+00
  P6aq  X2eq  1 4.700000e-01    2.960000e+00
  P6aq  X1eq  1 4.700000e-01    2.790000e+00
  P5aq  C6eq  1 4.700000e-01    2.960000e+00
  P5aq  C5eq  1 4.700000e-01    2.960000e+00
  P5aq  C4eq  1 4.700000e-01    2.790000e+00
  P5aq  C3eq  1 4.700000e-01    2.620000e+00
  P5aq  C2eq  1 4.700000e-01    2.620000e+00
  P5aq  C1eq  1 4.700000e-01    2.440000e+00
  P5aq  X4eq  1 4.700000e-01    3.240000e+00
  P5aq  X3eq  1 4.700000e-01    3.070000e+00
  P5aq  X2eq  1 4.700000e-01    3.070000e+00
  P5aq  X1eq  1 4.700000e-01    2.790000e+00
  P4aq  C6eq  1 4.700000e-01    3.070000e+00
  P4aq  C5eq  1 4.700000e-01    2.960000e+00
  P4aq  C4eq  1 4.700000e-01    2.790000e+00
  P4aq  C3eq  1 4.700000e-01    2.620000e+00
  P4aq  C2eq  1 4.700000e-01    2.620000e+00
  P4aq  C1eq  1 4.700000e-01    2.440000e+00
  P4aq  X4eq  1 4.700000e-01    3.240000e+00
  P4aq  X3eq  1 4.700000e-01    3.070000e+00
  P4aq  X2eq  1 4.700000e-01    3.070000e+00
  P4aq  X1eq  1 4.700000e-01    2.960000e+00
  P3aq  C6eq  1 4.700000e-01    3.240000e+00
  P3aq  C5eq  1 4.700000e-01    3.070000e+00
  P3aq  C4eq  1 4.700000e-01    2.960000e+00
  P3aq  C3eq  1 4.700000e-01    2.620000e+00
  P3aq  C2eq  1 4.700000e-01    2.620000e+00
  P3aq  C1eq  1 4.700000e-01    2.440000e+00
  P3aq  X4eq  1 4.700000e-01    3.240000e+00
  P3aq  X3eq  1 4.700000e-01    3.240000e+00
  P3aq  X2eq  1 4.700000e-01    3.070000e+00
  P3aq  X1eq  1 4.700000e-01    2.960000e+00
  P2aq  C6eq  1 4.700000e-01    3.240000e+00
  P2aq  C5eq  1 4.700000e-01    3.070000e+00
  P2aq  C4eq  1 4.700000e-01    2.960000e+00
  P2aq  C3eq  1 4.700000e-01    2.790000e+00
  P2aq  C2eq  1 4.700000e-01    2.790000e+00
  P2aq  C1eq  1 4.700000e-01    2.620000e+00
  P2aq  X4eq  1 4.700000e-01    3.240000e+00
  P2aq  X3eq  1 4.700000e-01    3.240000e+00
  P2aq  X2eq  1 4.700000e-01    3.070000e+00
  P2aq  X1eq  1 4.700000e-01    2.960000e+00
  P1aq  C6eq  1 4.700000e-01    3.240000e+00
  P1aq  C5eq  1 4.700000e-01    3.070000e+00
  P1aq  C4eq  1 4.700000e-01    2.960000e+00
  P1aq  C3eq  1 4.700000e-01    2.790000e+00
  P1aq  C2eq  1 4.700000e-01    2.790000e+00
  P1aq  C1eq  1 4.700000e-01    2.620000e+00
  P1aq  X4eq  1 4.700000e-01    3.240000e+00
  P1aq  X3eq  1 4.700000e-01    3.240000e+00
  P1aq  X2eq  1 4.700000e-01    3.070000e+00
  P1aq  X1eq  1 4.700000e-01    2.960000e+00
  N6aq  C6eq  1 4.700000e-01    3.390000e+00
  N6aq  C5eq  1 4.700000e-01    3.240000e+00
  N6aq  C4eq  1 4.700000e-01    3.070000e+00
  N6aq  C3eq  1 4.700000e-01    2.960000e+00
  N6aq  C2eq  1 4.700000e-01    2.960000e+00
  N6aq  C1eq  1 4.700000e-01    2.790000e+00
  N6aq  X4eq  1 4.700000e-01    3.390000e+00
  N6aq  X3eq  1 4.700000e-01    3.240000e+00
  N6aq  X2eq  1 4.700000e-01    3.070000e+00
  N6aq  X1eq  1 4.700000e-01    2.960000e+00
  N5aq  C6eq  1 4.700000e-01    3.390000e+00
  N5aq  C5eq  1 4.700000e-01    3.240000e+00
  N5aq  C4eq  1 4.700000e-01    3.070000e+00
  N5aq  C3eq  1 4.700000e-01    3.070000e+00
  N5aq  C2eq  1 4.700000e-01    2.960000e+00
  N5aq  C1eq  1 4.700000e-01    2.790000e+00
  N5aq  X4eq  1 4.700000e-01    3.520000e+00
  N5aq  X3eq  1 4.700000e-01    3.390000e+00
  N5aq  X2eq  1 4.700000e-01    3.240000e+00
  N5aq  X1eq  1 4.700000e-01    3.070000e+00
  N4aq  C6eq  1 4.700000e-01    3.390000e+00
  N4aq  C5eq  1 4.700000e-01    3.240000e+00
  N4aq  C4eq  1 4.700000e-01    3.240000e+00
  N4aq  C3eq  1 4.700000e-01    3.070000e+00
  N4aq  C2eq  1 4.700000e-01    2.960000e+00
  N4aq  C1eq  1 4.700000e-01    2.790000e+00
  N4aq  X4eq  1 4.700000e-01    3.690000e+00
  N4aq  X3eq  1 4.700000e-01    3.520000e+00
  N4aq  X2eq  1 4.700000e-01    3.240000e+00
  N4aq  X1eq  1 4.700000e-01    3.070000e+00
  N3aq  C6eq  1 4.700000e-01    3.390000e+00
  N3aq  C5eq  1 4.700000e-01    3.240000e+00
  N3aq  C4eq  1 4.700000e-01    3.240000e+00
  N3aq  C3eq  1 4.700000e-01    3.070000e+00
  N3aq  C2eq  1 4.700000e-01    3.070000e+00
  N3aq  C1eq  1 4.700000e-01    2.960000e+00
  N3aq  X4eq  1 4.700000e-01    3.520000e+00
  N3aq  X3eq  1 4.700000e-01    3.390000e+00
  N3aq  X2eq  1 4.700000e-01    3.240000e+00
  N3aq  X1eq  1 4.700000e-01    3.240000e+00
  N2aq  C6eq  1 4.700000e-01    3.390000e+00
  N2aq  C5eq  1 4.700000e-01    3.240000e+00
  N2aq  C4eq  1 4.700000e-01    3.240000e+00
  N2aq  C3eq  1 4.700000e-01    3.240000e+00
  N2aq  C2eq  1 4.700000e-01    3.070000e+00
  N2aq  C1eq  1 4.700000e-01    2.960000e+00
  N2aq  X4eq  1 4.700000e-01    3.520000e+00
  N2aq  X3eq  1 4.700000e-01    3.390000e+00
  N2aq  X2eq  1 4.700000e-01    3.240000e+00
  N2aq  X1eq  1 4.700000e-01    3.240000e+00
  N1aq  C6eq  1 4.700000e-01    3.520000e+00
  N1aq  C5eq  1 4.700000e-01    3.390000e+00
  N1aq  C4eq  1 4.700000e-01    3.390000e+00
  N1aq  C3eq  1 4.700000e-01    3.240000e+00
  N1aq  C2eq  1 4.700000e-01    3.070000e+00
  N1aq  C1eq  1 4.700000e-01    2.960000e+00
  N1aq  X4eq  1 4.700000e-01    3.390000e+00
  N1aq  X3eq  1 4.700000e-01    3.390000e+00
  N1aq  X2eq  1 4.700000e-01    3.240000e+00
  N1aq  X1eq  1 4.700000e-01    3.240000e+00
  P6aq  C6eh  1 4.700000e-01    2.960000e+00
  P5aq  C6eh  1 4.700000e-01    2.960000e+00
  P4aq  C6eh  1 4.700000e-01    3.070000e+00
  P3aq  C6eh  1 4.700000e-01    3.240000e+00
  P2aq  C6eh  1 4.700000e-01    3.240000e+00
  P1aq  C6eh  1 4.700000e-01    3.240000e+00
  N6aq  C6eh  1 4.700000e-01    3.390000e+00
  N5aq  C6eh  1 4.700000e-01    3.390000e+00
  N4aq  C6eh  1 4.700000e-01    3.390000e+00
  N3aq  C6eh  1 4.700000e-01    3.390000e+00
  N2aq  C6eh  1 4.700000e-01    3.390000e+00
  N1aq  C6eh  1 4.700000e-01    3.520000e+00
  P6aq  C5eh  1 4.700000e-01    2.790000e+00
  P5aq  C5eh  1 4.700000e-01    2.960000e+00
  P4aq  C5eh  1 4.700000e-01    2.960000e+00
  P3aq  C5eh  1 4.700000e-01    3.070000e+00
  P2aq  C5eh  1 4.700000e-01    3.070000e+00
  P1aq  C5eh  1 4.700000e-01    3.070000e+00
  N6aq  C5eh  1 4.700000e-01    3.240000e+00
  N5aq  C5eh  1 4.700000e-01    3.240000e+00
  N4aq  C5eh  1 4.700000e-01    3.240000e+00
  N3aq  C5eh  1 4.700000e-01    3.240000e+00
  N2aq  C5eh  1 4.700000e-01    3.240000e+00
  N1aq  C5eh  1 4.700000e-01    3.390000e+00
  P6aq  C4eh  1 4.700000e-01    2.620000e+00
  P5aq  C4eh  1 4.700000e-01    2.790000e+00
  P4aq  C4eh  1 4.700000e-01    2.790000e+00
  P3aq  C4eh  1 4.700000e-01    2.960000e+00
  P2aq  C4eh  1 4.700000e-01    2.960000e+00
  P1aq  C4eh  1 4.700000e-01    2.960000e+00
  N6aq  C4eh  1 4.700000e-01    3.070000e+00
  N5aq  C4eh  1 4.700000e-01    3.070000e+00
  N4aq  C4eh  1 4.700000e-01    3.240000e+00
  N3aq  C4eh  1 4.700000e-01    3.240000e+00
  N2aq  C4eh  1 4.700000e-01    3.240000e+00
  N1aq  C4eh  1 4.700000e-01    3.390000e+00
  P6aq  C3eh  1 4.700000e-01    2.440000e+00
  P5aq  C3eh  1 4.700000e-01    2.620000e+00
  P4aq  C3eh  1 4.700000e-01    2.620000e+00
  P3aq  C3eh  1 4.700000e-01    2.620000e+00
  P2aq  C3eh  1 4.700000e-01    2.790000e+00
  P1aq  C3eh  1 4.700000e-01    2.790000e+00
  N6aq  C3eh  1 4.700000e-01    2.960000e+00
  N5aq  C3eh  1 4.700000e-01    3.070000e+00
  N4aq  C3eh  1 4.700000e-01    3.070000e+00
  N3aq  C3eh  1 4.700000e-01    3.070000e+00
  N2aq  C3eh  1 4.700000e-01    3.240000e+00
  N1aq  C3eh  1 4.700000e-01    3.240000e+00
  P6aq  C2eh  1 4.700000e-01    2.440000e+00
  P5aq  C2eh  1 4.700000e-01    2.620000e+00
  P4aq  C2eh  1 4.700000e-01    2.620000e+00
  P3aq  C2eh  1 4.700000e-01    2.620000e+00
  P2aq  C2eh  1 4.700000e-01    2.790000e+00
  P1aq  C2eh  1 4.700000e-01    2.790000e+00
  N6aq  C2eh  1 4.700000e-01    2.960000e+00
  N5aq  C2eh  1 4.700000e-01    2.960000e+00
  N4aq  C2eh  1 4.700000e-01    2.960000e+00
  N3aq  C2eh  1 4.700000e-01    3.070000e+00
  N2aq  C2eh  1 4.700000e-01    3.070000e+00
  N1aq  C2eh  1 4.700000e-01    3.070000e+00
  P6aq  C1eh  1 5.200000e-01    2.120000e+00
  P5aq  C1eh  1 4.700000e-01    2.440000e+00
  P4aq  C1eh  1 4.700000e-01    2.440000e+00
  P3aq  C1eh  1 4.700000e-01    2.440000e+00
  P2aq  C1eh  1 4.700000e-01    2.620000e+00
  P1aq  C1eh  1 4.700000e-01    2.620000e+00
  N6aq  C1eh  1 4.700000e-01    2.790000e+00
  N5aq  C1eh  1 4.700000e-01    2.790000e+00
  N4aq  C1eh  1 4.700000e-01    2.790000e+00
  N3aq  C1eh  1 4.700000e-01    2.960000e+00
  N2aq  C1eh  1 4.700000e-01    2.960000e+00
  N1aq  C1eh  1 4.700000e-01    2.960000e+00
  P6aq  X4eh  1 4.700000e-01    3.070000e+00
  P5aq  X4eh  1 4.700000e-01    3.240000e+00
  P4aq  X4eh  1 4.700000e-01    3.240000e+00
  P3aq  X4eh  1 4.700000e-01    3.240000e+00
  P2aq  X4eh  1 4.700000e-01    3.240000e+00
  P1aq  X4eh  1 4.700000e-01    3.240000e+00
  N6aq  X4eh  1 4.700000e-01    3.390000e+00
  N5aq  X4eh  1 4.700000e-01    3.520000e+00
  N4aq  X4eh  1 4.700000e-01    3.690000e+00
  N3aq  X4eh  1 4.700000e-01    3.520000e+00
  N2aq  X4eh  1 4.700000e-01    3.520000e+00
  N1aq  X4eh  1 4.700000e-01    3.390000e+00
  P6aq  X3eh  1 4.700000e-01    3.070000e+00
  P5aq  X3eh  1 4.700000e-01    3.070000e+00
  P4aq  X3eh  1 4.700000e-01    3.070000e+00
  P3aq  X3eh  1 4.700000e-01    3.240000e+00
  P2aq  X3eh  1 4.700000e-01    3.240000e+00
  P1aq  X3eh  1 4.700000e-01    3.240000e+00
  N6aq  X3eh  1 4.700000e-01    3.240000e+00
  N5aq  X3eh  1 4.700000e-01    3.390000e+00
  N4aq  X3eh  1 4.700000e-01    3.520000e+00
  N3aq  X3eh  1 4.700000e-01    3.390000e+00
  N2aq  X3eh  1 4.700000e-01    3.390000e+00
  N1aq  X3eh  1 4.700000e-01    3.390000e+00
  P6aq  X2eh  1 4.700000e-01    2.960000e+00
  P5aq  X2eh  1 4.700000e-01    3.070000e+00
  P4aq  X2eh  1 4.700000e-01    3.070000e+00
  P3aq  X2eh  1 4.700000e-01    3.070000e+00
  P2aq  X2eh  1 4.700000e-01    3.070000e+00
  P1aq  X2eh  1 4.700000e-01    3.070000e+00
  N6aq  X2eh  1 4.700000e-01    3.070000e+00
  N5aq  X2eh  1 4.700000e-01    3.240000e+00
  N4aq  X2eh  1 4.700000e-01    3.240000e+00
  N3aq  X2eh  1 4.700000e-01    3.240000e+00
  N2aq  X2eh  1 4.700000e-01    3.240000e+00
  N1aq  X2eh  1 4.700000e-01    3.240000e+00
  P6aq  X1eh  1 4.700000e-01    2.790000e+00
  P5aq  X1eh  1 4.700000e-01    2.790000e+00
  P4aq  X1eh  1 4.700000e-01    2.960000e+00
  P3aq  X1eh  1 4.700000e-01    2.960000e+00
  P2aq  X1eh  1 4.700000e-01    2.960000e+00
  P1aq  X1eh  1 4.700000e-01    2.960000e+00
  N6aq  X1eh  1 4.700000e-01    2.960000e+00
  N5aq  X1eh  1 4.700000e-01    3.070000e+00
  N4aq  X1eh  1 4.700000e-01    3.070000e+00
  N3aq  X1eh  1 4.700000e-01    3.240000e+00
  N2aq  X1eh  1 4.700000e-01    3.240000e+00
  N1aq  X1eh  1 4.700000e-01    3.240000e+00
  P6aq  C6er  1 4.700000e-01    2.960000e+00
  P5aq  C6er  1 4.700000e-01    2.960000e+00
  P4aq  C6er  1 4.700000e-01    3.070000e+00
  P3aq  C6er  1 4.700000e-01    3.240000e+00
  P2aq  C6er  1 4.700000e-01    3.240000e+00
  P1aq  C6er  1 4.700000e-01    3.240000e+00
  N6aq  C6er  1 4.700000e-01    3.390000e+00
  N5aq  C6er  1 4.700000e-01    3.390000e+00
  N4aq  C6er  1 4.700000e-01    3.390000e+00
  N3aq  C6er  1 4.700000e-01    3.390000e+00
  N2aq  C6er  1 4.700000e-01    3.390000e+00
  N1aq  C6er  1 4.700000e-01    3.520000e+00
  P6aq  C5er  1 4.700000e-01    2.790000e+00
  P5aq  C5er  1 4.700000e-01    2.960000e+00
  P4aq  C5er  1 4.700000e-01    2.960000e+00
  P3aq  C5er  1 4.700000e-01    3.070000e+00
  P2aq  C5er  1 4.700000e-01    3.070000e+00
  P1aq  C5er  1 4.700000e-01    3.070000e+00
  N6aq  C5er  1 4.700000e-01    3.240000e+00
  N5aq  C5er  1 4.700000e-01    3.240000e+00
  N4aq  C5er  1 4.700000e-01    3.240000e+00
  N3aq  C5er  1 4.700000e-01    3.240000e+00
  N2aq  C5er  1 4.700000e-01    3.240000e+00
  N1aq  C5er  1 4.700000e-01    3.390000e+00
  P6aq  C4er  1 4.700000e-01    2.620000e+00
  P5aq  C4er  1 4.700000e-01    2.790000e+00
  P4aq  C4er  1 4.700000e-01    2.790000e+00
  P3aq  C4er  1 4.700000e-01    2.960000e+00
  P2aq  C4er  1 4.700000e-01    2.960000e+00
  P1aq  C4er  1 4.700000e-01    2.960000e+00
  N6aq  C4er  1 4.700000e-01    3.070000e+00
  N5aq  C4er  1 4.700000e-01    3.070000e+00
  N4aq  C4er  1 4.700000e-01    3.240000e+00
  N3aq  C4er  1 4.700000e-01    3.240000e+00
  N2aq  C4er  1 4.700000e-01    3.240000e+00
  N1aq  C4er  1 4.700000e-01    3.390000e+00
  P6aq  C3er  1 4.700000e-01    2.440000e+00
  P5aq  C3er  1 4.700000e-01    2.620000e+00
  P4aq  C3er  1 4.700000e-01    2.620000e+00
  P3aq  C3er  1 4.700000e-01    2.620000e+00
  P2aq  C3er  1 4.700000e-01    2.790000e+00
  P1aq  C3er  1 4.700000e-01    2.790000e+00
  N6aq  C3er  1 4.700000e-01    2.960000e+00
  N5aq  C3er  1 4.700000e-01    3.070000e+00
  N4aq  C3er  1 4.700000e-01    3.070000e+00
  N3aq  C3er  1 4.700000e-01    3.070000e+00
  N2aq  C3er  1 4.700000e-01    3.240000e+00
  N1aq  C3er  1 4.700000e-01    3.240000e+00
  P6aq  C2er  1 4.700000e-01    2.440000e+00
  P5aq  C2er  1 4.700000e-01    2.620000e+00
  P4aq  C2er  1 4.700000e-01    2.620000e+00
  P3aq  C2er  1 4.700000e-01    2.620000e+00
  P2aq  C2er  1 4.700000e-01    2.790000e+00
  P1aq  C2er  1 4.700000e-01    2.790000e+00
  N6aq  C2er  1 4.700000e-01    2.960000e+00
  N5aq  C2er  1 4.700000e-01    2.960000e+00
  N4aq  C2er  1 4.700000e-01    2.960000e+00
  N3aq  C2er  1 4.700000e-01    3.070000e+00
  N2aq  C2er  1 4.700000e-01    3.070000e+00
  N1aq  C2er  1 4.700000e-01    3.070000e+00
  P6aq  C1er  1 5.200000e-01    2.120000e+00
  P5aq  C1er  1 4.700000e-01    2.440000e+00
  P4aq  C1er  1 4.700000e-01    2.440000e+00
  P3aq  C1er  1 4.700000e-01    2.440000e+00
  P2aq  C1er  1 4.700000e-01    2.620000e+00
  P1aq  C1er  1 4.700000e-01    2.620000e+00
  N6aq  C1er  1 4.700000e-01    2.790000e+00
  N5aq  C1er  1 4.700000e-01    2.790000e+00
  N4aq  C1er  1 4.700000e-01    2.790000e+00
  N3aq  C1er  1 4.700000e-01    2.960000e+00
  N2aq  C1er  1 4.700000e-01    2.960000e+00
  N1aq  C1er  1 4.700000e-01    2.960000e+00
  P6aq  X4er  1 4.700000e-01    3.070000e+00
  P5aq  X4er  1 4.700000e-01    3.240000e+00
  P4aq  X4er  1 4.700000e-01    3.240000e+00
  P3aq  X4er  1 4.700000e-01    3.240000e+00
  P2aq  X4er  1 4.700000e-01    3.240000e+00
  P1aq  X4er  1 4.700000e-01    3.240000e+00
  N6aq  X4er  1 4.700000e-01    3.390000e+00
  N5aq  X4er  1 4.700000e-01    3.520000e+00
  N4aq  X4er  1 4.700000e-01    3.690000e+00
  N3aq  X4er  1 4.700000e-01    3.520000e+00
  N2aq  X4er  1 4.700000e-01    3.520000e+00
  N1aq  X4er  1 4.700000e-01    3.390000e+00
  P6aq  X3er  1 4.700000e-01    3.070000e+00
  P5aq  X3er  1 4.700000e-01    3.070000e+00
  P4aq  X3er  1 4.700000e-01    3.070000e+00
  P3aq  X3er  1 4.700000e-01    3.240000e+00
  P2aq  X3er  1 4.700000e-01    3.240000e+00
  P1aq  X3er  1 4.700000e-01    3.240000e+00
  N6aq  X3er  1 4.700000e-01    3.240000e+00
  N5aq  X3er  1 4.700000e-01    3.390000e+00
  N4aq  X3er  1 4.700000e-01    3.520000e+00
  N3aq  X3er  1 4.700000e-01    3.390000e+00
  N2aq  X3er  1 4.700000e-01    3.390000e+00
  N1aq  X3er  1 4.700000e-01    3.390000e+00
  P6aq  X2er  1 4.700000e-01    2.960000e+00
  P5aq  X2er  1 4.700000e-01    3.070000e+00
  P4aq  X2er  1 4.700000e-01    3.070000e+00
  P3aq  X2er  1 4.700000e-01    3.070000e+00
  P2aq  X2er  1 4.700000e-01    3.070000e+00
  P1aq  X2er  1 4.700000e-01    3.070000e+00
  N6aq  X2er  1 4.700000e-01    3.070000e+00
  N5aq  X2er  1 4.700000e-01    3.240000e+00
  N4aq  X2er  1 4.700000e-01    3.240000e+00
  N3aq  X2er  1 4.700000e-01    3.240000e+00
  N2aq  X2er  1 4.700000e-01    3.240000e+00
  N1aq  X2er  1 4.700000e-01    3.240000e+00
  P6aq  X1er  1 4.700000e-01    2.790000e+00
  P5aq  X1er  1 4.700000e-01    2.790000e+00
  P4aq  X1er  1 4.700000e-01    2.960000e+00
  P3aq  X1er  1 4.700000e-01    2.960000e+00
  P2aq  X1er  1 4.700000e-01    2.960000e+00
  P1aq  X1er  1 4.700000e-01    2.960000e+00
  N6aq  X1er  1 4.700000e-01    2.960000e+00
  N5aq  X1er  1 4.700000e-01    3.070000e+00
  N4aq  X1er  1 4.700000e-01    3.070000e+00
  N3aq  X1er  1 4.700000e-01    3.240000e+00
  N2aq  X1er  1 4.700000e-01    3.240000e+00
  N1aq  X1er  1 4.700000e-01    3.240000e+00
  P6ah   C6e  1 4.700000e-01    2.620000e+00
  P6ah   C5e  1 4.700000e-01    2.440000e+00
  P6ah   C4e  1 4.850000e-01    2.240000e+00
  P6ah   C3e  1 5.200000e-01    2.120000e+00
  P6ah   C2e  1 5.200000e-01    2.120000e+00
  P6ah   C1e  1 6.200000e-01    1.960000e+00
  P6ah   X4e  1 4.700000e-01    2.790000e+00
  P6ah   X3e  1 4.700000e-01    2.790000e+00
  P6ah   X2e  1 4.700000e-01    2.620000e+00
  P6ah   X1e  1 4.700000e-01    2.440000e+00
  P5ah   C6e  1 4.700000e-01    2.620000e+00
  P5ah   C5e  1 4.700000e-01    2.620000e+00
  P5ah   C4e  1 4.700000e-01    2.440000e+00
  P5ah   C3e  1 4.850000e-01    2.240000e+00
  P5ah   C2e  1 4.850000e-01    2.240000e+00
  P5ah   C1e  1 5.200000e-01    2.120000e+00
  P5ah   X4e  1 4.700000e-01    2.960000e+00
  P5ah   X3e  1 4.700000e-01    2.790000e+00
  P5ah   X2e  1 4.700000e-01    2.790000e+00
  P5ah   X1e  1 4.700000e-01    2.440000e+00
  P4ah   C6e  1 4.700000e-01    2.790000e+00
  P4ah   C5e  1 4.700000e-01    2.620000e+00
  P4ah   C4e  1 4.700000e-01    2.440000e+00
  P4ah   C3e  1 4.850000e-01    2.240000e+00
  P4ah   C2e  1 4.850000e-01    2.240000e+00
  P4ah   C1e  1 5.200000e-01    2.120000e+00
  P4ah   X4e  1 4.700000e-01    2.960000e+00
  P4ah   X3e  1 4.700000e-01    2.790000e+00
  P4ah   X2e  1 4.700000e-01    2.790000e+00
  P4ah   X1e  1 4.700000e-01    2.620000e+00
  P3ah   C6e  1 4.700000e-01    2.960000e+00
  P3ah   C5e  1 4.700000e-01    2.790000e+00
  P3ah   C4e  1 4.700000e-01    2.620000e+00
  P3ah   C3e  1 4.850000e-01    2.240000e+00
  P3ah   C2e  1 4.850000e-01    2.240000e+00
  P3ah   C1e  1 5.200000e-01    2.120000e+00
  P3ah   X4e  1 4.700000e-01    2.960000e+00
  P3ah   X3e  1 4.700000e-01    2.960000e+00
  P3ah   X2e  1 4.700000e-01    2.790000e+00
  P3ah   X1e  1 4.700000e-01    2.620000e+00
  P2ah   C6e  1 4.700000e-01    2.960000e+00
  P2ah   C5e  1 4.700000e-01    2.790000e+00
  P2ah   C4e  1 4.700000e-01    2.620000e+00
  P2ah   C3e  1 4.700000e-01    2.440000e+00
  P2ah   C2e  1 4.700000e-01    2.440000e+00
  P2ah   C1e  1 4.850000e-01    2.240000e+00
  P2ah   X4e  1 4.700000e-01    2.960000e+00
  P2ah   X3e  1 4.700000e-01    2.960000e+00
  P2ah   X2e  1 4.700000e-01    2.790000e+00
  P2ah   X1e  1 4.700000e-01    2.620000e+00
  P1ah   C6e  1 4.700000e-01    2.960000e+00
  P1ah   C5e  1 4.700000e-01    2.790000e+00
  P1ah   C4e  1 4.700000e-01    2.620000e+00
  P1ah   C3e  1 4.700000e-01    2.440000e+00
  P1ah   C2e  1 4.700000e-01    2.440000e+00
  P1ah   C1e  1 4.850000e-01    2.240000e+00
  P1ah   X4e  1 4.700000e-01    2.960000e+00
  P1ah   X3e  1 4.700000e-01    2.960000e+00
  P1ah   X2e  1 4.700000e-01    2.790000e+00
  P1ah   X1e  1 4.700000e-01    2.620000e+00
  N6ah   C6e  1 4.700000e-01    3.070000e+00
  N6ah   C5e  1 4.700000e-01    2.960000e+00
  N6ah   C4e  1 4.700000e-01    2.790000e+00
  N6ah   C3e  1 4.700000e-01    2.620000e+00
  N6ah   C2e  1 4.700000e-01    2.620000e+00
  N6ah   C1e  1 4.700000e-01    2.440000e+00
  N6ah   X4e  1 4.700000e-01    3.070000e+00
  N6ah   X3e  1 4.700000e-01    2.960000e+00
  N6ah   X2e  1 4.700000e-01    2.790000e+00
  N6ah   X1e  1 4.700000e-01    2.620000e+00
  N5ah   C6e  1 4.700000e-01    3.070000e+00
  N5ah   C5e  1 4.700000e-01    2.960000e+00
  N5ah   C4e  1 4.700000e-01    2.790000e+00
  N5ah   C3e  1 4.700000e-01    2.790000e+00
  N5ah   C2e  1 4.700000e-01    2.620000e+00
  N5ah   C1e  1 4.700000e-01    2.440000e+00
  N5ah   X4e  1 4.700000e-01    3.240000e+00
  N5ah   X3e  1 4.700000e-01    3.070000e+00
  N5ah   X2e  1 4.700000e-01    2.960000e+00
  N5ah   X1e  1 4.700000e-01    2.790000e+00
  N4ah   C6e  1 4.700000e-01    3.070000e+00
  N4ah   C5e  1 4.700000e-01    2.960000e+00
  N4ah   C4e  1 4.700000e-01    2.960000e+00
  N4ah   C3e  1 4.700000e-01    2.790000e+00
  N4ah   C2e  1 4.700000e-01    2.620000e+00
  N4ah   C1e  1 4.700000e-01    2.440000e+00
  N4ah   X4e  1 4.700000e-01    3.390000e+00
  N4ah   X3e  1 4.700000e-01    3.240000e+00
  N4ah   X2e  1 4.700000e-01    2.960000e+00
  N4ah   X1e  1 4.700000e-01    2.790000e+00
  N3ah   C6e  1 4.700000e-01    3.070000e+00
  N3ah   C5e  1 4.700000e-01    2.960000e+00
  N3ah   C4e  1 4.700000e-01    2.960000e+00
  N3ah   C3e  1 4.700000e-01    2.790000e+00
  N3ah   C2e  1 4.700000e-01    2.790000e+00
  N3ah   C1e  1 4.700000e-01    2.620000e+00
  N3ah   X4e  1 4.700000e-01    3.240000e+00
  N3ah   X3e  1 4.700000e-01    3.070000e+00
  N3ah   X2e  1 4.700000e-01    2.960000e+00
  N3ah   X1e  1 4.700000e-01    2.960000e+00
  N2ah   C6e  1 4.700000e-01    3.070000e+00
  N2ah   C5e  1 4.700000e-01    2.960000e+00
  N2ah   C4e  1 4.700000e-01    2.960000e+00
  N2ah   C3e  1 4.700000e-01    2.960000e+00
  N2ah   C2e  1 4.700000e-01    2.790000e+00
  N2ah   C1e  1 4.700000e-01    2.620000e+00
  N2ah   X4e  1 4.700000e-01    3.240000e+00
  N2ah   X3e  1 4.700000e-01    3.070000e+00
  N2ah   X2e  1 4.700000e-01    2.960000e+00
  N2ah   X1e  1 4.700000e-01    2.960000e+00
  N1ah   C6e  1 4.700000e-01    3.240000e+00
  N1ah   C5e  1 4.700000e-01    3.070000e+00
  N1ah   C4e  1 4.700000e-01    3.070000e+00
  N1ah   C3e  1 4.700000e-01    2.960000e+00
  N1ah   C2e  1 4.700000e-01    2.790000e+00
  N1ah   C1e  1 4.700000e-01    2.620000e+00
  N1ah   X4e  1 4.700000e-01    3.070000e+00
  N1ah   X3e  1 4.700000e-01    3.070000e+00
  N1ah   X2e  1 4.700000e-01    2.960000e+00
  N1ah   X1e  1 4.700000e-01    2.960000e+00
  P6ah  X1eq  1 4.700000e-01    2.790000e+00
  P6ah  X2eq  1 4.700000e-01    2.960000e+00
  P6ah  X3eq  1 4.700000e-01    3.070000e+00
  P6ah  X4eq  1 4.700000e-01    3.070000e+00
  P6ah  C1eq  1 5.200000e-01    2.120000e+00
  P6ah  C2eq  1 4.700000e-01    2.440000e+00
  P6ah  C3eq  1 4.700000e-01    2.440000e+00
  P6ah  C4eq  1 4.700000e-01    2.620000e+00
  P6ah  C5eq  1 4.700000e-01    2.790000e+00
  P6ah  C6eq  1 4.700000e-01    2.960000e+00
  P5ah  X1eq  1 4.700000e-01    2.790000e+00
  P5ah  X2eq  1 4.700000e-01    3.070000e+00
  P5ah  X3eq  1 4.700000e-01    3.070000e+00
  P5ah  X4eq  1 4.700000e-01    3.240000e+00
  P5ah  C1eq  1 4.700000e-01    2.440000e+00
  P5ah  C2eq  1 4.700000e-01    2.620000e+00
  P5ah  C3eq  1 4.700000e-01    2.620000e+00
  P5ah  C4eq  1 4.700000e-01    2.790000e+00
  P5ah  C5eq  1 4.700000e-01    2.960000e+00
  P5ah  C6eq  1 4.700000e-01    2.960000e+00
  P4ah  X1eq  1 4.700000e-01    2.960000e+00
  P4ah  X2eq  1 4.700000e-01    3.070000e+00
  P4ah  X3eq  1 4.700000e-01    3.070000e+00
  P4ah  X4eq  1 4.700000e-01    3.240000e+00
  P4ah  C1eq  1 4.700000e-01    2.440000e+00
  P4ah  C2eq  1 4.700000e-01    2.620000e+00
  P4ah  C3eq  1 4.700000e-01    2.620000e+00
  P4ah  C4eq  1 4.700000e-01    2.790000e+00
  P4ah  C5eq  1 4.700000e-01    2.960000e+00
  P4ah  C6eq  1 4.700000e-01    3.070000e+00
  P3ah  X1eq  1 4.700000e-01    2.960000e+00
  P3ah  X2eq  1 4.700000e-01    3.070000e+00
  P3ah  X3eq  1 4.700000e-01    3.240000e+00
  P3ah  X4eq  1 4.700000e-01    3.240000e+00
  P3ah  C1eq  1 4.700000e-01    2.440000e+00
  P3ah  C2eq  1 4.700000e-01    2.620000e+00
  P3ah  C3eq  1 4.700000e-01    2.620000e+00
  P3ah  C4eq  1 4.700000e-01    2.960000e+00
  P3ah  C5eq  1 4.700000e-01    3.070000e+00
  P3ah  C6eq  1 4.700000e-01    3.240000e+00
  P2ah  X1eq  1 4.700000e-01    2.960000e+00
  P2ah  X2eq  1 4.700000e-01    3.070000e+00
  P2ah  X3eq  1 4.700000e-01    3.240000e+00
  P2ah  X4eq  1 4.700000e-01    3.240000e+00
  P2ah  C1eq  1 4.700000e-01    2.620000e+00
  P2ah  C2eq  1 4.700000e-01    2.790000e+00
  P2ah  C3eq  1 4.700000e-01    2.790000e+00
  P2ah  C4eq  1 4.700000e-01    2.960000e+00
  P2ah  C5eq  1 4.700000e-01    3.070000e+00
  P2ah  C6eq  1 4.700000e-01    3.240000e+00
  P1ah  X1eq  1 4.700000e-01    2.960000e+00
  P1ah  X2eq  1 4.700000e-01    3.070000e+00
  P1ah  X3eq  1 4.700000e-01    3.240000e+00
  P1ah  X4eq  1 4.700000e-01    3.240000e+00
  P1ah  C1eq  1 4.700000e-01    2.620000e+00
  P1ah  C2eq  1 4.700000e-01    2.790000e+00
  P1ah  C3eq  1 4.700000e-01    2.790000e+00
  P1ah  C4eq  1 4.700000e-01    2.960000e+00
  P1ah  C5eq  1 4.700000e-01    3.070000e+00
  P1ah  C6eq  1 4.700000e-01    3.240000e+00
  N6ah  X1eq  1 4.700000e-01    2.960000e+00
  N6ah  X2eq  1 4.700000e-01    3.070000e+00
  N6ah  X3eq  1 4.700000e-01    3.240000e+00
  N6ah  X4eq  1 4.700000e-01    3.390000e+00
  N6ah  C1eq  1 4.700000e-01    2.790000e+00
  N6ah  C2eq  1 4.700000e-01    2.960000e+00
  N6ah  C3eq  1 4.700000e-01    2.960000e+00
  N6ah  C4eq  1 4.700000e-01    3.070000e+00
  N6ah  C5eq  1 4.700000e-01    3.240000e+00
  N6ah  C6eq  1 4.700000e-01    3.390000e+00
  N5ah  X1eq  1 4.700000e-01    3.070000e+00
  N5ah  X2eq  1 4.700000e-01    3.240000e+00
  N5ah  X3eq  1 4.700000e-01    3.390000e+00
  N5ah  X4eq  1 4.700000e-01    3.520000e+00
  N5ah  C1eq  1 4.700000e-01    2.790000e+00
  N5ah  C2eq  1 4.700000e-01    2.960000e+00
  N5ah  C3eq  1 4.700000e-01    3.070000e+00
  N5ah  C4eq  1 4.700000e-01    3.070000e+00
  N5ah  C5eq  1 4.700000e-01    3.240000e+00
  N5ah  C6eq  1 4.700000e-01    3.390000e+00
  N4ah  X1eq  1 4.700000e-01    3.070000e+00
  N4ah  X2eq  1 4.700000e-01    3.240000e+00
  N4ah  X3eq  1 4.700000e-01    3.520000e+00
  N4ah  X4eq  1 4.700000e-01    3.690000e+00
  N4ah  C1eq  1 4.700000e-01    2.790000e+00
  N4ah  C2eq  1 4.700000e-01    2.960000e+00
  N4ah  C3eq  1 4.700000e-01    3.070000e+00
  N4ah  C4eq  1 4.700000e-01    3.240000e+00
  N4ah  C5eq  1 4.700000e-01    3.240000e+00
  N4ah  C6eq  1 4.700000e-01    3.390000e+00
  N3ah  X1eq  1 4.700000e-01    3.240000e+00
  N3ah  X2eq  1 4.700000e-01    3.240000e+00
  N3ah  X3eq  1 4.700000e-01    3.390000e+00
  N3ah  X4eq  1 4.700000e-01    3.520000e+00
  N3ah  C1eq  1 4.700000e-01    2.960000e+00
  N3ah  C2eq  1 4.700000e-01    3.070000e+00
  N3ah  C3eq  1 4.700000e-01    3.070000e+00
  N3ah  C4eq  1 4.700000e-01    3.240000e+00
  N3ah  C5eq  1 4.700000e-01    3.240000e+00
  N3ah  C6eq  1 4.700000e-01    3.390000e+00
  N2ah  X1eq  1 4.700000e-01    3.240000e+00
  N2ah  X2eq  1 4.700000e-01    3.240000e+00
  N2ah  X3eq  1 4.700000e-01    3.390000e+00
  N2ah  X4eq  1 4.700000e-01    3.520000e+00
  N2ah  C1eq  1 4.700000e-01    2.960000e+00
  N2ah  C2eq  1 4.700000e-01    3.070000e+00
  N2ah  C3eq  1 4.700000e-01    3.240000e+00
  N2ah  C4eq  1 4.700000e-01    3.240000e+00
  N2ah  C5eq  1 4.700000e-01    3.240000e+00
  N2ah  C6eq  1 4.700000e-01    3.390000e+00
  N1ah  X1eq  1 4.700000e-01    3.240000e+00
  N1ah  X2eq  1 4.700000e-01    3.240000e+00
  N1ah  X3eq  1 4.700000e-01    3.390000e+00
  N1ah  X4eq  1 4.700000e-01    3.390000e+00
  N1ah  C1eq  1 4.700000e-01    2.960000e+00
  N1ah  C2eq  1 4.700000e-01    3.070000e+00
  N1ah  C3eq  1 4.700000e-01    3.240000e+00
  N1ah  C4eq  1 4.700000e-01    3.390000e+00
  N1ah  C5eq  1 4.700000e-01    3.390000e+00
  N1ah  C6eq  1 4.700000e-01    3.520000e+00
  P6ah  C6eh  1 4.700000e-01    2.620000e+00
  P6ah  C5eh  1 4.700000e-01    2.440000e+00
  P6ah  C4eh  1 4.850000e-01    2.240000e+00
  P6ah  C3eh  1 5.200000e-01    2.120000e+00
  P6ah  C2eh  1 5.200000e-01    2.120000e+00
  P6ah  C1eh  1 6.200000e-01    1.960000e+00
  P6ah  X4eh  1 4.700000e-01    2.790000e+00
  P6ah  X3eh  1 4.700000e-01    2.790000e+00
  P6ah  X2eh  1 4.700000e-01    2.620000e+00
  P6ah  X1eh  1 4.700000e-01    2.440000e+00
  P5ah  C6eh  1 4.700000e-01    2.620000e+00
  P5ah  C5eh  1 4.700000e-01    2.620000e+00
  P5ah  C4eh  1 4.700000e-01    2.440000e+00
  P5ah  C3eh  1 4.850000e-01    2.240000e+00
  P5ah  C2eh  1 4.850000e-01    2.240000e+00
  P5ah  C1eh  1 5.200000e-01    2.120000e+00
  P5ah  X4eh  1 4.700000e-01    2.960000e+00
  P5ah  X3eh  1 4.700000e-01    2.790000e+00
  P5ah  X2eh  1 4.700000e-01    2.790000e+00
  P5ah  X1eh  1 4.700000e-01    2.440000e+00
  P4ah  C6eh  1 4.700000e-01    2.790000e+00
  P4ah  C5eh  1 4.700000e-01    2.620000e+00
  P4ah  C4eh  1 4.700000e-01    2.440000e+00
  P4ah  C3eh  1 4.850000e-01    2.240000e+00
  P4ah  C2eh  1 4.850000e-01    2.240000e+00
  P4ah  C1eh  1 5.200000e-01    2.120000e+00
  P4ah  X4eh  1 4.700000e-01    2.960000e+00
  P4ah  X3eh  1 4.700000e-01    2.790000e+00
  P4ah  X2eh  1 4.700000e-01    2.790000e+00
  P4ah  X1eh  1 4.700000e-01    2.620000e+00
  P3ah  C6eh  1 4.700000e-01    2.960000e+00
  P3ah  C5eh  1 4.700000e-01    2.790000e+00
  P3ah  C4eh  1 4.700000e-01    2.620000e+00
  P3ah  C3eh  1 4.850000e-01    2.240000e+00
  P3ah  C2eh  1 4.850000e-01    2.240000e+00
  P3ah  C1eh  1 5.200000e-01    2.120000e+00
  P3ah  X4eh  1 4.700000e-01    2.960000e+00
  P3ah  X3eh  1 4.700000e-01    2.960000e+00
  P3ah  X2eh  1 4.700000e-01    2.790000e+00
  P3ah  X1eh  1 4.700000e-01    2.620000e+00
  P2ah  C6eh  1 4.700000e-01    2.960000e+00
  P2ah  C5eh  1 4.700000e-01    2.790000e+00
  P2ah  C4eh  1 4.700000e-01    2.620000e+00
  P2ah  C3eh  1 4.700000e-01    2.440000e+00
  P2ah  C2eh  1 4.700000e-01    2.440000e+00
  P2ah  C1eh  1 4.850000e-01    2.240000e+00
  P2ah  X4eh  1 4.700000e-01    2.960000e+00
  P2ah  X3eh  1 4.700000e-01    2.960000e+00
  P2ah  X2eh  1 4.700000e-01    2.790000e+00
  P2ah  X1eh  1 4.700000e-01    2.620000e+00
  P1ah  C6eh  1 4.700000e-01    2.960000e+00
  P1ah  C5eh  1 4.700000e-01    2.790000e+00
  P1ah  C4eh  1 4.700000e-01    2.620000e+00
  P1ah  C3eh  1 4.700000e-01    2.440000e+00
  P1ah  C2eh  1 4.700000e-01    2.440000e+00
  P1ah  C1eh  1 4.850000e-01    2.240000e+00
  P1ah  X4eh  1 4.700000e-01    2.960000e+00
  P1ah  X3eh  1 4.700000e-01    2.960000e+00
  P1ah  X2eh  1 4.700000e-01    2.790000e+00
  P1ah  X1eh  1 4.700000e-01    2.620000e+00
  N6ah  C6eh  1 4.700000e-01    3.070000e+00
  N6ah  C5eh  1 4.700000e-01    2.960000e+00
  N6ah  C4eh  1 4.700000e-01    2.790000e+00
  N6ah  C3eh  1 4.700000e-01    2.620000e+00
  N6ah  C2eh  1 4.700000e-01    2.620000e+00
  N6ah  C1eh  1 4.700000e-01    2.440000e+00
  N6ah  X4eh  1 4.700000e-01    3.070000e+00
  N6ah  X3eh  1 4.700000e-01    2.960000e+00
  N6ah  X2eh  1 4.700000e-01    2.790000e+00
  N6ah  X1eh  1 4.700000e-01    2.620000e+00
  N5ah  C6eh  1 4.700000e-01    3.070000e+00
  N5ah  C5eh  1 4.700000e-01    2.960000e+00
  N5ah  C4eh  1 4.700000e-01    2.790000e+00
  N5ah  C3eh  1 4.700000e-01    2.790000e+00
  N5ah  C2eh  1 4.700000e-01    2.620000e+00
  N5ah  C1eh  1 4.700000e-01    2.440000e+00
  N5ah  X4eh  1 4.700000e-01    3.240000e+00
  N5ah  X3eh  1 4.700000e-01    3.070000e+00
  N5ah  X2eh  1 4.700000e-01    2.960000e+00
  N5ah  X1eh  1 4.700000e-01    2.790000e+00
  N4ah  C6eh  1 4.700000e-01    3.070000e+00
  N4ah  C5eh  1 4.700000e-01    2.960000e+00
  N4ah  C4eh  1 4.700000e-01    2.960000e+00
  N4ah  C3eh  1 4.700000e-01    2.790000e+00
  N4ah  C2eh  1 4.700000e-01    2.620000e+00
  N4ah  C1eh  1 4.700000e-01    2.440000e+00
  N4ah  X4eh  1 4.700000e-01    3.390000e+00
  N4ah  X3eh  1 4.700000e-01    3.240000e+00
  N4ah  X2eh  1 4.700000e-01    2.960000e+00
  N4ah  X1eh  1 4.700000e-01    2.790000e+00
  N3ah  C6eh  1 4.700000e-01    3.070000e+00
  N3ah  C5eh  1 4.700000e-01    2.960000e+00
  N3ah  C4eh  1 4.700000e-01    2.960000e+00
  N3ah  C3eh  1 4.700000e-01    2.790000e+00
  N3ah  C2eh  1 4.700000e-01    2.790000e+00
  N3ah  C1eh  1 4.700000e-01    2.620000e+00
  N3ah  X4eh  1 4.700000e-01    3.240000e+00
  N3ah  X3eh  1 4.700000e-01    3.070000e+00
  N3ah  X2eh  1 4.700000e-01    2.960000e+00
  N3ah  X1eh  1 4.700000e-01    2.960000e+00
  N2ah  C6eh  1 4.700000e-01    3.070000e+00
  N2ah  C5eh  1 4.700000e-01    2.960000e+00
  N2ah  C4eh  1 4.700000e-01    2.960000e+00
  N2ah  C3eh  1 4.700000e-01    2.960000e+00
  N2ah  C2eh  1 4.700000e-01    2.790000e+00
  N2ah  C1eh  1 4.700000e-01    2.620000e+00
  N2ah  X4eh  1 4.700000e-01    3.240000e+00
  N2ah  X3eh  1 4.700000e-01    3.070000e+00
  N2ah  X2eh  1 4.700000e-01    2.960000e+00
  N2ah  X1eh  1 4.700000e-01    2.960000e+00
  N1ah  C6eh  1 4.700000e-01    3.240000e+00
  N1ah  C5eh  1 4.700000e-01    3.070000e+00
  N1ah  C4eh  1 4.700000e-01    3.070000e+00
  N1ah  C3eh  1 4.700000e-01    2.960000e+00
  N1ah  C2eh  1 4.700000e-01    2.790000e+00
  N1ah  C1eh  1 4.700000e-01    2.620000e+00
  N1ah  X4eh  1 4.700000e-01    3.070000e+00
  N1ah  X3eh  1 4.700000e-01    3.070000e+00
  N1ah  X2eh  1 4.700000e-01    2.960000e+00
  N1ah  X1eh  1 4.700000e-01    2.960000e+00
  P6ah  C6er  1 4.700000e-01    2.620000e+00
  P6ah  C5er  1 4.700000e-01    2.440000e+00
  P6ah  C4er  1 4.850000e-01    2.240000e+00
  P6ah  C3er  1 5.200000e-01    2.120000e+00
  P6ah  C2er  1 5.200000e-01    2.120000e+00
  P6ah  C1er  1 6.200000e-01    1.960000e+00
  P6ah  X4er  1 4.700000e-01    2.790000e+00
  P6ah  X3er  1 4.700000e-01    2.790000e+00
  P6ah  X2er  1 4.700000e-01    2.620000e+00
  P6ah  X1er  1 4.700000e-01    2.440000e+00
  P5ah  C6er  1 4.700000e-01    2.620000e+00
  P5ah  C5er  1 4.700000e-01    2.620000e+00
  P5ah  C4er  1 4.700000e-01    2.440000e+00
  P5ah  C3er  1 4.850000e-01    2.240000e+00
  P5ah  C2er  1 4.850000e-01    2.240000e+00
  P5ah  C1er  1 5.200000e-01    2.120000e+00
  P5ah  X4er  1 4.700000e-01    2.960000e+00
  P5ah  X3er  1 4.700000e-01    2.790000e+00
  P5ah  X2er  1 4.700000e-01    2.790000e+00
  P5ah  X1er  1 4.700000e-01    2.440000e+00
  P4ah  C6er  1 4.700000e-01    2.790000e+00
  P4ah  C5er  1 4.700000e-01    2.620000e+00
  P4ah  C4er  1 4.700000e-01    2.440000e+00
  P4ah  C3er  1 4.850000e-01    2.240000e+00
  P4ah  C2er  1 4.850000e-01    2.240000e+00
  P4ah  C1er  1 5.200000e-01    2.120000e+00
  P4ah  X4er  1 4.700000e-01    2.960000e+00
  P4ah  X3er  1 4.700000e-01    2.790000e+00
  P4ah  X2er  1 4.700000e-01    2.790000e+00
  P4ah  X1er  1 4.700000e-01    2.620000e+00
  P3ah  C6er  1 4.700000e-01    2.960000e+00
  P3ah  C5er  1 4.700000e-01    2.790000e+00
  P3ah  C4er  1 4.700000e-01    2.620000e+00
  P3ah  C3er  1 4.850000e-01    2.240000e+00
  P3ah  C2er  1 4.850000e-01    2.240000e+00
  P3ah  C1er  1 5.200000e-01    2.120000e+00
  P3ah  X4er  1 4.700000e-01    2.960000e+00
  P3ah  X3er  1 4.700000e-01    2.960000e+00
  P3ah  X2er  1 4.700000e-01    2.790000e+00
  P3ah  X1er  1 4.700000e-01    2.620000e+00
  P2ah  C6er  1 4.700000e-01    2.960000e+00
  P2ah  C5er  1 4.700000e-01    2.790000e+00
  P2ah  C4er  1 4.700000e-01    2.620000e+00
  P2ah  C3er  1 4.700000e-01    2.440000e+00
  P2ah  C2er  1 4.700000e-01    2.440000e+00
  P2ah  C1er  1 4.850000e-01    2.240000e+00
  P2ah  X4er  1 4.700000e-01    2.960000e+00
  P2ah  X3er  1 4.700000e-01    2.960000e+00
  P2ah  X2er  1 4.700000e-01    2.790000e+00
  P2ah  X1er  1 4.700000e-01    2.620000e+00
  P1ah  C6er  1 4.700000e-01    2.960000e+00
  P1ah  C5er  1 4.700000e-01    2.790000e+00
  P1ah  C4er  1 4.700000e-01    2.620000e+00
  P1ah  C3er  1 4.700000e-01    2.440000e+00
  P1ah  C2er  1 4.700000e-01    2.440000e+00
  P1ah  C1er  1 4.850000e-01    2.240000e+00
  P1ah  X4er  1 4.700000e-01    2.960000e+00
  P1ah  X3er  1 4.700000e-01    2.960000e+00
  P1ah  X2er  1 4.700000e-01    2.790000e+00
  P1ah  X1er  1 4.700000e-01    2.620000e+00
  N6ah  C6er  1 4.700000e-01    3.070000e+00
  N6ah  C5er  1 4.700000e-01    2.960000e+00
  N6ah  C4er  1 4.700000e-01    2.790000e+00
  N6ah  C3er  1 4.700000e-01    2.620000e+00
  N6ah  C2er  1 4.700000e-01    2.620000e+00
  N6ah  C1er  1 4.700000e-01    2.440000e+00
  N6ah  X4er  1 4.700000e-01    3.070000e+00
  N6ah  X3er  1 4.700000e-01    2.960000e+00
  N6ah  X2er  1 4.700000e-01    2.790000e+00
  N6ah  X1er  1 4.700000e-01    2.620000e+00
  N5ah  C6er  1 4.700000e-01    3.070000e+00
  N5ah  C5er  1 4.700000e-01    2.960000e+00
  N5ah  C4er  1 4.700000e-01    2.790000e+00
  N5ah  C3er  1 4.700000e-01    2.790000e+00
  N5ah  C2er  1 4.700000e-01    2.620000e+00
  N5ah  C1er  1 4.700000e-01    2.440000e+00
  N5ah  X4er  1 4.700000e-01    3.240000e+00
  N5ah  X3er  1 4.700000e-01    3.070000e+00
  N5ah  X2er  1 4.700000e-01    2.960000e+00
  N5ah  X1er  1 4.700000e-01    2.790000e+00
  N4ah  C6er  1 4.700000e-01    3.070000e+00
  N4ah  C5er  1 4.700000e-01    2.960000e+00
  N4ah  C4er  1 4.700000e-01    2.960000e+00
  N4ah  C3er  1 4.700000e-01    2.790000e+00
  N4ah  C2er  1 4.700000e-01    2.620000e+00
  N4ah  C1er  1 4.700000e-01    2.440000e+00
  N4ah  X4er  1 4.700000e-01    3.390000e+00
  N4ah  X3er  1 4.700000e-01    3.240000e+00
  N4ah  X2er  1 4.700000e-01    2.960000e+00
  N4ah  X1er  1 4.700000e-01    2.790000e+00
  N3ah  C6er  1 4.700000e-01    3.070000e+00
  N3ah  C5er  1 4.700000e-01    2.960000e+00
  N3ah  C4er  1 4.700000e-01    2.960000e+00
  N3ah  C3er  1 4.700000e-01    2.790000e+00
  N3ah  C2er  1 4.700000e-01    2.790000e+00
  N3ah  C1er  1 4.700000e-01    2.620000e+00
  N3ah  X4er  1 4.700000e-01    3.240000e+00
  N3ah  X3er  1 4.700000e-01    3.070000e+00
  N3ah  X2er  1 4.700000e-01    2.960000e+00
  N3ah  X1er  1 4.700000e-01    2.960000e+00
  N2ah  C6er  1 4.700000e-01    3.070000e+00
  N2ah  C5er  1 4.700000e-01    2.960000e+00
  N2ah  C4er  1 4.700000e-01    2.960000e+00
  N2ah  C3er  1 4.700000e-01    2.960000e+00
  N2ah  C2er  1 4.700000e-01    2.790000e+00
  N2ah  C1er  1 4.700000e-01    2.620000e+00
  N2ah  X4er  1 4.700000e-01    3.240000e+00
  N2ah  X3er  1 4.700000e-01    3.070000e+00
  N2ah  X2er  1 4.700000e-01    2.960000e+00
  N2ah  X1er  1 4.700000e-01    2.960000e+00
  N1ah  C6er  1 4.700000e-01    3.240000e+00
  N1ah  C5er  1 4.700000e-01    3.070000e+00
  N1ah  C4er  1 4.700000e-01    3.070000e+00
  N1ah  C3er  1 4.700000e-01    2.960000e+00
  N1ah  C2er  1 4.700000e-01    2.790000e+00
  N1ah  C1er  1 4.700000e-01    2.620000e+00
  N1ah  X4er  1 4.700000e-01    3.070000e+00
  N1ah  X3er  1 4.700000e-01    3.070000e+00
  N1ah  X2er  1 4.700000e-01    2.960000e+00
  N1ah  X1er  1 4.700000e-01    2.960000e+00
  P6ar   C6e  1 4.700000e-01    2.620000e+00
  P6ar   C5e  1 4.700000e-01    2.440000e+00
  P6ar   C4e  1 4.850000e-01    2.240000e+00
  P6ar   C3e  1 5.200000e-01    2.120000e+00
  P6ar   C2e  1 5.200000e-01    2.120000e+00
  P6ar   C1e  1 6.200000e-01    1.960000e+00
  P6ar   X4e  1 4.700000e-01    2.790000e+00
  P6ar   X3e  1 4.700000e-01    2.790000e+00
  P6ar   X2e  1 4.700000e-01    2.620000e+00
  P6ar   X1e  1 4.700000e-01    2.440000e+00
  P5ar   C6e  1 4.700000e-01    2.620000e+00
  P5ar   C5e  1 4.700000e-01    2.620000e+00
  P5ar   C4e  1 4.700000e-01    2.440000e+00
  P5ar   C3e  1 4.850000e-01    2.240000e+00
  P5ar   C2e  1 4.850000e-01    2.240000e+00
  P5ar   C1e  1 5.200000e-01    2.120000e+00
  P5ar   X4e  1 4.700000e-01    2.960000e+00
  P5ar   X3e  1 4.700000e-01    2.790000e+00
  P5ar   X2e  1 4.700000e-01    2.790000e+00
  P5ar   X1e  1 4.700000e-01    2.440000e+00
  P4ar   C6e  1 4.700000e-01    2.790000e+00
  P4ar   C5e  1 4.700000e-01    2.620000e+00
  P4ar   C4e  1 4.700000e-01    2.440000e+00
  P4ar   C3e  1 4.850000e-01    2.240000e+00
  P4ar   C2e  1 4.850000e-01    2.240000e+00
  P4ar   C1e  1 5.200000e-01    2.120000e+00
  P4ar   X4e  1 4.700000e-01    2.960000e+00
  P4ar   X3e  1 4.700000e-01    2.790000e+00
  P4ar   X2e  1 4.700000e-01    2.790000e+00
  P4ar   X1e  1 4.700000e-01    2.620000e+00
  P3ar   C6e  1 4.700000e-01    2.960000e+00
  P3ar   C5e  1 4.700000e-01    2.790000e+00
  P3ar   C4e  1 4.700000e-01    2.620000e+00
  P3ar   C3e  1 4.850000e-01    2.240000e+00
  P3ar   C2e  1 4.850000e-01    2.240000e+00
  P3ar   C1e  1 5.200000e-01    2.120000e+00
  P3ar   X4e  1 4.700000e-01    2.960000e+00
  P3ar   X3e  1 4.700000e-01    2.960000e+00
  P3ar   X2e  1 4.700000e-01    2.790000e+00
  P3ar   X1e  1 4.700000e-01    2.620000e+00
  P2ar   C6e  1 4.700000e-01    2.960000e+00
  P2ar   C5e  1 4.700000e-01    2.790000e+00
  P2ar   C4e  1 4.700000e-01    2.620000e+00
  P2ar   C3e  1 4.700000e-01    2.440000e+00
  P2ar   C2e  1 4.700000e-01    2.440000e+00
  P2ar   C1e  1 4.850000e-01    2.240000e+00
  P2ar   X4e  1 4.700000e-01    2.960000e+00
  P2ar   X3e  1 4.700000e-01    2.960000e+00
  P2ar   X2e  1 4.700000e-01    2.790000e+00
  P2ar   X1e  1 4.700000e-01    2.620000e+00
  P1ar   C6e  1 4.700000e-01    2.960000e+00
  P1ar   C5e  1 4.700000e-01    2.790000e+00
  P1ar   C4e  1 4.700000e-01    2.620000e+00
  P1ar   C3e  1 4.700000e-01    2.440000e+00
  P1ar   C2e  1 4.700000e-01    2.440000e+00
  P1ar   C1e  1 4.850000e-01    2.240000e+00
  P1ar   X4e  1 4.700000e-01    2.960000e+00
  P1ar   X3e  1 4.700000e-01    2.960000e+00
  P1ar   X2e  1 4.700000e-01    2.790000e+00
  P1ar   X1e  1 4.700000e-01    2.620000e+00
  N6ar   C6e  1 4.700000e-01    3.070000e+00
  N6ar   C5e  1 4.700000e-01    2.960000e+00
  N6ar   C4e  1 4.700000e-01    2.790000e+00
  N6ar   C3e  1 4.700000e-01    2.620000e+00
  N6ar   C2e  1 4.700000e-01    2.620000e+00
  N6ar   C1e  1 4.700000e-01    2.440000e+00
  N6ar   X4e  1 4.700000e-01    3.070000e+00
  N6ar   X3e  1 4.700000e-01    2.960000e+00
  N6ar   X2e  1 4.700000e-01    2.790000e+00
  N6ar   X1e  1 4.700000e-01    2.620000e+00
  N5ar   C6e  1 4.700000e-01    3.070000e+00
  N5ar   C5e  1 4.700000e-01    2.960000e+00
  N5ar   C4e  1 4.700000e-01    2.790000e+00
  N5ar   C3e  1 4.700000e-01    2.790000e+00
  N5ar   C2e  1 4.700000e-01    2.620000e+00
  N5ar   C1e  1 4.700000e-01    2.440000e+00
  N5ar   X4e  1 4.700000e-01    3.240000e+00
  N5ar   X3e  1 4.700000e-01    3.070000e+00
  N5ar   X2e  1 4.700000e-01    2.960000e+00
  N5ar   X1e  1 4.700000e-01    2.790000e+00
  N4ar   C6e  1 4.700000e-01    3.070000e+00
  N4ar   C5e  1 4.700000e-01    2.960000e+00
  N4ar   C4e  1 4.700000e-01    2.960000e+00
  N4ar   C3e  1 4.700000e-01    2.790000e+00
  N4ar   C2e  1 4.700000e-01    2.620000e+00
  N4ar   C1e  1 4.700000e-01    2.440000e+00
  N4ar   X4e  1 4.700000e-01    3.390000e+00
  N4ar   X3e  1 4.700000e-01    3.240000e+00
  N4ar   X2e  1 4.700000e-01    2.960000e+00
  N4ar   X1e  1 4.700000e-01    2.790000e+00
  N3ar   C6e  1 4.700000e-01    3.070000e+00
  N3ar   C5e  1 4.700000e-01    2.960000e+00
  N3ar   C4e  1 4.700000e-01    2.960000e+00
  N3ar   C3e  1 4.700000e-01    2.790000e+00
  N3ar   C2e  1 4.700000e-01    2.790000e+00
  N3ar   C1e  1 4.700000e-01    2.620000e+00
  N3ar   X4e  1 4.700000e-01    3.240000e+00
  N3ar   X3e  1 4.700000e-01    3.070000e+00
  N3ar   X2e  1 4.700000e-01    2.960000e+00
  N3ar   X1e  1 4.700000e-01    2.960000e+00
  N2ar   C6e  1 4.700000e-01    3.070000e+00
  N2ar   C5e  1 4.700000e-01    2.960000e+00
  N2ar   C4e  1 4.700000e-01    2.960000e+00
  N2ar   C3e  1 4.700000e-01    2.960000e+00
  N2ar   C2e  1 4.700000e-01    2.790000e+00
  N2ar   C1e  1 4.700000e-01    2.620000e+00
  N2ar   X4e  1 4.700000e-01    3.240000e+00
  N2ar   X3e  1 4.700000e-01    3.070000e+00
  N2ar   X2e  1 4.700000e-01    2.960000e+00
  N2ar   X1e  1 4.700000e-01    2.960000e+00
  N1ar   C6e  1 4.700000e-01    3.240000e+00
  N1ar   C5e  1 4.700000e-01    3.070000e+00
  N1ar   C4e  1 4.700000e-01    3.070000e+00
  N1ar   C3e  1 4.700000e-01    2.960000e+00
  N1ar   C2e  1 4.700000e-01    2.790000e+00
  N1ar   C1e  1 4.700000e-01    2.620000e+00
  N1ar   X4e  1 4.700000e-01    3.070000e+00
  N1ar   X3e  1 4.700000e-01    3.070000e+00
  N1ar   X2e  1 4.700000e-01    2.960000e+00
  N1ar   X1e  1 4.700000e-01    2.960000e+00
  P6ar  X1eq  1 4.700000e-01    2.790000e+00
  P6ar  X2eq  1 4.700000e-01    2.960000e+00
  P6ar  X3eq  1 4.700000e-01    3.070000e+00
  P6ar  X4eq  1 4.700000e-01    3.070000e+00
  P6ar  C1eq  1 5.200000e-01    2.120000e+00
  P6ar  C2eq  1 4.700000e-01    2.440000e+00
  P6ar  C3eq  1 4.700000e-01    2.440000e+00
  P6ar  C4eq  1 4.700000e-01    2.620000e+00
  P6ar  C5eq  1 4.700000e-01    2.790000e+00
  P6ar  C6eq  1 4.700000e-01    2.960000e+00
  P5ar  X1eq  1 4.700000e-01    2.790000e+00
  P5ar  X2eq  1 4.700000e-01    3.070000e+00
  P5ar  X3eq  1 4.700000e-01    3.070000e+00
  P5ar  X4eq  1 4.700000e-01    3.240000e+00
  P5ar  C1eq  1 4.700000e-01    2.440000e+00
  P5ar  C2eq  1 4.700000e-01    2.620000e+00
  P5ar  C3eq  1 4.700000e-01    2.620000e+00
  P5ar  C4eq  1 4.700000e-01    2.790000e+00
  P5ar  C5eq  1 4.700000e-01    2.960000e+00
  P5ar  C6eq  1 4.700000e-01    2.960000e+00
  P4ar  X1eq  1 4.700000e-01    2.960000e+00
  P4ar  X2eq  1 4.700000e-01    3.070000e+00
  P4ar  X3eq  1 4.700000e-01    3.070000e+00
  P4ar  X4eq  1 4.700000e-01    3.240000e+00
  P4ar  C1eq  1 4.700000e-01    2.440000e+00
  P4ar  C2eq  1 4.700000e-01    2.620000e+00
  P4ar  C3eq  1 4.700000e-01    2.620000e+00
  P4ar  C4eq  1 4.700000e-01    2.790000e+00
  P4ar  C5eq  1 4.700000e-01    2.960000e+00
  P4ar  C6eq  1 4.700000e-01    3.070000e+00
  P3ar  X1eq  1 4.700000e-01    2.960000e+00
  P3ar  X2eq  1 4.700000e-01    3.070000e+00
  P3ar  X3eq  1 4.700000e-01    3.240000e+00
  P3ar  X4eq  1 4.700000e-01    3.240000e+00
  P3ar  C1eq  1 4.700000e-01    2.440000e+00
  P3ar  C2eq  1 4.700000e-01    2.620000e+00
  P3ar  C3eq  1 4.700000e-01    2.620000e+00
  P3ar  C4eq  1 4.700000e-01    2.960000e+00
  P3ar  C5eq  1 4.700000e-01    3.070000e+00
  P3ar  C6eq  1 4.700000e-01    3.240000e+00
  P2ar  X1eq  1 4.700000e-01    2.960000e+00
  P2ar  X2eq  1 4.700000e-01    3.070000e+00
  P2ar  X3eq  1 4.700000e-01    3.240000e+00
  P2ar  X4eq  1 4.700000e-01    3.240000e+00
  P2ar  C1eq  1 4.700000e-01    2.620000e+00
  P2ar  C2eq  1 4.700000e-01    2.790000e+00
  P2ar  C3eq  1 4.700000e-01    2.790000e+00
  P2ar  C4eq  1 4.700000e-01    2.960000e+00
  P2ar  C5eq  1 4.700000e-01    3.070000e+00
  P2ar  C6eq  1 4.700000e-01    3.240000e+00
  P1ar  X1eq  1 4.700000e-01    2.960000e+00
  P1ar  X2eq  1 4.700000e-01    3.070000e+00
  P1ar  X3eq  1 4.700000e-01    3.240000e+00
  P1ar  X4eq  1 4.700000e-01    3.240000e+00
  P1ar  C1eq  1 4.700000e-01    2.620000e+00
  P1ar  C2eq  1 4.700000e-01    2.790000e+00
  P1ar  C3eq  1 4.700000e-01    2.790000e+00
  P1ar  C4eq  1 4.700000e-01    2.960000e+00
  P1ar  C5eq  1 4.700000e-01    3.070000e+00
  P1ar  C6eq  1 4.700000e-01    3.240000e+00
  N6ar  X1eq  1 4.700000e-01    2.960000e+00
  N6ar  X2eq  1 4.700000e-01    3.070000e+00
  N6ar  X3eq  1 4.700000e-01    3.240000e+00
  N6ar  X4eq  1 4.700000e-01    3.390000e+00
  N6ar  C1eq  1 4.700000e-01    2.790000e+00
  N6ar  C2eq  1 4.700000e-01    2.960000e+00
  N6ar  C3eq  1 4.700000e-01    2.960000e+00
  N6ar  C4eq  1 4.700000e-01    3.070000e+00
  N6ar  C5eq  1 4.700000e-01    3.240000e+00
  N6ar  C6eq  1 4.700000e-01    3.390000e+00
  N5ar  X1eq  1 4.700000e-01    3.070000e+00
  N5ar  X2eq  1 4.700000e-01    3.240000e+00
  N5ar  X3eq  1 4.700000e-01    3.390000e+00
  N5ar  X4eq  1 4.700000e-01    3.520000e+00
  N5ar  C1eq  1 4.700000e-01    2.790000e+00
  N5ar  C2eq  1 4.700000e-01    2.960000e+00
  N5ar  C3eq  1 4.700000e-01    3.070000e+00
  N5ar  C4eq  1 4.700000e-01    3.070000e+00
  N5ar  C5eq  1 4.700000e-01    3.240000e+00
  N5ar  C6eq  1 4.700000e-01    3.390000e+00
  N4ar  X1eq  1 4.700000e-01    3.070000e+00
  N4ar  X2eq  1 4.700000e-01    3.240000e+00
  N4ar  X3eq  1 4.700000e-01    3.520000e+00
  N4ar  X4eq  1 4.700000e-01    3.690000e+00
  N4ar  C1eq  1 4.700000e-01    2.790000e+00
  N4ar  C2eq  1 4.700000e-01    2.960000e+00
  N4ar  C3eq  1 4.700000e-01    3.070000e+00
  N4ar  C4eq  1 4.700000e-01    3.240000e+00
  N4ar  C5eq  1 4.700000e-01    3.240000e+00
  N4ar  C6eq  1 4.700000e-01    3.390000e+00
  N3ar  X1eq  1 4.700000e-01    3.240000e+00
  N3ar  X2eq  1 4.700000e-01    3.240000e+00
  N3ar  X3eq  1 4.700000e-01    3.390000e+00
  N3ar  X4eq  1 4.700000e-01    3.520000e+00
  N3ar  C1eq  1 4.700000e-01    2.960000e+00
  N3ar  C2eq  1 4.700000e-01    3.070000e+00
  N3ar  C3eq  1 4.700000e-01    3.070000e+00
  N3ar  C4eq  1 4.700000e-01    3.240000e+00
  N3ar  C5eq  1 4.700000e-01    3.240000e+00
  N3ar  C6eq  1 4.700000e-01    3.390000e+00
  N2ar  X1eq  1 4.700000e-01    3.240000e+00
  N2ar  X2eq  1 4.700000e-01    3.240000e+00
  N2ar  X3eq  1 4.700000e-01    3.390000e+00
  N2ar  X4eq  1 4.700000e-01    3.520000e+00
  N2ar  C1eq  1 4.700000e-01    2.960000e+00
  N2ar  C2eq  1 4.700000e-01    3.070000e+00
  N2ar  C3eq  1 4.700000e-01    3.240000e+00
  N2ar  C4eq  1 4.700000e-01    3.240000e+00
  N2ar  C5eq  1 4.700000e-01    3.240000e+00
  N2ar  C6eq  1 4.700000e-01    3.390000e+00
  N1ar  X1eq  1 4.700000e-01    3.240000e+00
  N1ar  X2eq  1 4.700000e-01    3.240000e+00
  N1ar  X3eq  1 4.700000e-01    3.390000e+00
  N1ar  X4eq  1 4.700000e-01    3.390000e+00
  N1ar  C1eq  1 4.700000e-01    2.960000e+00
  N1ar  C2eq  1 4.700000e-01    3.070000e+00
  N1ar  C3eq  1 4.700000e-01    3.240000e+00
  N1ar  C4eq  1 4.700000e-01    3.390000e+00
  N1ar  C5eq  1 4.700000e-01    3.390000e+00
  N1ar  C6eq  1 4.700000e-01    3.520000e+00
  P6ar  C6eh  1 4.700000e-01    2.620000e+00
  P6ar  C5eh  1 4.700000e-01    2.440000e+00
  P6ar  C4eh  1 4.850000e-01    2.240000e+00
  P6ar  C3eh  1 5.200000e-01    2.120000e+00
  P6ar  C2eh  1 5.200000e-01    2.120000e+00
  P6ar  C1eh  1 6.200000e-01    1.960000e+00
  P6ar  X4eh  1 4.700000e-01    2.790000e+00
  P6ar  X3eh  1 4.700000e-01    2.790000e+00
  P6ar  X2eh  1 4.700000e-01    2.620000e+00
  P6ar  X1eh  1 4.700000e-01    2.440000e+00
  P5ar  C6eh  1 4.700000e-01    2.620000e+00
  P5ar  C5eh  1 4.700000e-01    2.620000e+00
  P5ar  C4eh  1 4.700000e-01    2.440000e+00
  P5ar  C3eh  1 4.850000e-01    2.240000e+00
  P5ar  C2eh  1 4.850000e-01    2.240000e+00
  P5ar  C1eh  1 5.200000e-01    2.120000e+00
  P5ar  X4eh  1 4.700000e-01    2.960000e+00
  P5ar  X3eh  1 4.700000e-01    2.790000e+00
  P5ar  X2eh  1 4.700000e-01    2.790000e+00
  P5ar  X1eh  1 4.700000e-01    2.440000e+00
  P4ar  C6eh  1 4.700000e-01    2.790000e+00
  P4ar  C5eh  1 4.700000e-01    2.620000e+00
  P4ar  C4eh  1 4.700000e-01    2.440000e+00
  P4ar  C3eh  1 4.850000e-01    2.240000e+00
  P4ar  C2eh  1 4.850000e-01    2.240000e+00
  P4ar  C1eh  1 5.200000e-01    2.120000e+00
  P4ar  X4eh  1 4.700000e-01    2.960000e+00
  P4ar  X3eh  1 4.700000e-01    2.790000e+00
  P4ar  X2eh  1 4.700000e-01    2.790000e+00
  P4ar  X1eh  1 4.700000e-01    2.620000e+00
  P3ar  C6eh  1 4.700000e-01    2.960000e+00
  P3ar  C5eh  1 4.700000e-01    2.790000e+00
  P3ar  C4eh  1 4.700000e-01    2.620000e+00
  P3ar  C3eh  1 4.850000e-01    2.240000e+00
  P3ar  C2eh  1 4.850000e-01    2.240000e+00
  P3ar  C1eh  1 5.200000e-01    2.120000e+00
  P3ar  X4eh  1 4.700000e-01    2.960000e+00
  P3ar  X3eh  1 4.700000e-01    2.960000e+00
  P3ar  X2eh  1 4.700000e-01    2.790000e+00
  P3ar  X1eh  1 4.700000e-01    2.620000e+00
  P2ar  C6eh  1 4.700000e-01    2.960000e+00
  P2ar  C5eh  1 4.700000e-01    2.790000e+00
  P2ar  C4eh  1 4.700000e-01    2.620000e+00
  P2ar  C3eh  1 4.700000e-01    2.440000e+00
  P2ar  C2eh  1 4.700000e-01    2.440000e+00
  P2ar  C1eh  1 4.850000e-01    2.240000e+00
  P2ar  X4eh  1 4.700000e-01    2.960000e+00
  P2ar  X3eh  1 4.700000e-01    2.960000e+00
  P2ar  X2eh  1 4.700000e-01    2.790000e+00
  P2ar  X1eh  1 4.700000e-01    2.620000e+00
  P1ar  C6eh  1 4.700000e-01    2.960000e+00
  P1ar  C5eh  1 4.700000e-01    2.790000e+00
  P1ar  C4eh  1 4.700000e-01    2.620000e+00
  P1ar  C3eh  1 4.700000e-01    2.440000e+00
  P1ar  C2eh  1 4.700000e-01    2.440000e+00
  P1ar  C1eh  1 4.850000e-01    2.240000e+00
  P1ar  X4eh  1 4.700000e-01    2.960000e+00
  P1ar  X3eh  1 4.700000e-01    2.960000e+00
  P1ar  X2eh  1 4.700000e-01    2.790000e+00
  P1ar  X1eh  1 4.700000e-01    2.620000e+00
  N6ar  C6eh  1 4.700000e-01    3.070000e+00
  N6ar  C5eh  1 4.700000e-01    2.960000e+00
  N6ar  C4eh  1 4.700000e-01    2.790000e+00
  N6ar  C3eh  1 4.700000e-01    2.620000e+00
  N6ar  C2eh  1 4.700000e-01    2.620000e+00
  N6ar  C1eh  1 4.700000e-01    2.440000e+00
  N6ar  X4eh  1 4.700000e-01    3.070000e+00
  N6ar  X3eh  1 4.700000e-01    2.960000e+00
  N6ar  X2eh  1 4.700000e-01    2.790000e+00
  N6ar  X1eh  1 4.700000e-01    2.620000e+00
  N5ar  C6eh  1 4.700000e-01    3.070000e+00
  N5ar  C5eh  1 4.700000e-01    2.960000e+00
  N5ar  C4eh  1 4.700000e-01    2.790000e+00
  N5ar  C3eh  1 4.700000e-01    2.790000e+00
  N5ar  C2eh  1 4.700000e-01    2.620000e+00
  N5ar  C1eh  1 4.700000e-01    2.440000e+00
  N5ar  X4eh  1 4.700000e-01    3.240000e+00
  N5ar  X3eh  1 4.700000e-01    3.070000e+00
  N5ar  X2eh  1 4.700000e-01    2.960000e+00
  N5ar  X1eh  1 4.700000e-01    2.790000e+00
  N4ar  C6eh  1 4.700000e-01    3.070000e+00
  N4ar  C5eh  1 4.700000e-01    2.960000e+00
  N4ar  C4eh  1 4.700000e-01    2.960000e+00
  N4ar  C3eh  1 4.700000e-01    2.790000e+00
  N4ar  C2eh  1 4.700000e-01    2.620000e+00
  N4ar  C1eh  1 4.700000e-01    2.440000e+00
  N4ar  X4eh  1 4.700000e-01    3.390000e+00
  N4ar  X3eh  1 4.700000e-01    3.240000e+00
  N4ar  X2eh  1 4.700000e-01    2.960000e+00
  N4ar  X1eh  1 4.700000e-01    2.790000e+00
  N3ar  C6eh  1 4.700000e-01    3.070000e+00
  N3ar  C5eh  1 4.700000e-01    2.960000e+00
  N3ar  C4eh  1 4.700000e-01    2.960000e+00
  N3ar  C3eh  1 4.700000e-01    2.790000e+00
  N3ar  C2eh  1 4.700000e-01    2.790000e+00
  N3ar  C1eh  1 4.700000e-01    2.620000e+00
  N3ar  X4eh  1 4.700000e-01    3.240000e+00
  N3ar  X3eh  1 4.700000e-01    3.070000e+00
  N3ar  X2eh  1 4.700000e-01    2.960000e+00
  N3ar  X1eh  1 4.700000e-01    2.960000e+00
  N2ar  C6eh  1 4.700000e-01    3.070000e+00
  N2ar  C5eh  1 4.700000e-01    2.960000e+00
  N2ar  C4eh  1 4.700000e-01    2.960000e+00
  N2ar  C3eh  1 4.700000e-01    2.960000e+00
  N2ar  C2eh  1 4.700000e-01    2.790000e+00
  N2ar  C1eh  1 4.700000e-01    2.620000e+00
  N2ar  X4eh  1 4.700000e-01    3.240000e+00
  N2ar  X3eh  1 4.700000e-01    3.070000e+00
  N2ar  X2eh  1 4.700000e-01    2.960000e+00
  N2ar  X1eh  1 4.700000e-01    2.960000e+00
  N1ar  C6eh  1 4.700000e-01    3.240000e+00
  N1ar  C5eh  1 4.700000e-01    3.070000e+00
  N1ar  C4eh  1 4.700000e-01    3.070000e+00
  N1ar  C3eh  1 4.700000e-01    2.960000e+00
  N1ar  C2eh  1 4.700000e-01    2.790000e+00
  N1ar  C1eh  1 4.700000e-01    2.620000e+00
  N1ar  X4eh  1 4.700000e-01    3.070000e+00
  N1ar  X3eh  1 4.700000e-01    3.070000e+00
  N1ar  X2eh  1 4.700000e-01    2.960000e+00
  N1ar  X1eh  1 4.700000e-01    2.960000e+00
  P6ar  C6er  1 4.700000e-01    2.620000e+00
  P6ar  C5er  1 4.700000e-01    2.440000e+00
  P6ar  C4er  1 4.850000e-01    2.240000e+00
  P6ar  C3er  1 5.200000e-01    2.120000e+00
  P6ar  C2er  1 5.200000e-01    2.120000e+00
  P6ar  C1er  1 6.200000e-01    1.960000e+00
  P6ar  X4er  1 4.700000e-01    2.790000e+00
  P6ar  X3er  1 4.700000e-01    2.790000e+00
  P6ar  X2er  1 4.700000e-01    2.620000e+00
  P6ar  X1er  1 4.700000e-01    2.440000e+00
  P5ar  C6er  1 4.700000e-01    2.620000e+00
  P5ar  C5er  1 4.700000e-01    2.620000e+00
  P5ar  C4er  1 4.700000e-01    2.440000e+00
  P5ar  C3er  1 4.850000e-01    2.240000e+00
  P5ar  C2er  1 4.850000e-01    2.240000e+00
  P5ar  C1er  1 5.200000e-01    2.120000e+00
  P5ar  X4er  1 4.700000e-01    2.960000e+00
  P5ar  X3er  1 4.700000e-01    2.790000e+00
  P5ar  X2er  1 4.700000e-01    2.790000e+00
  P5ar  X1er  1 4.700000e-01    2.440000e+00
  P4ar  C6er  1 4.700000e-01    2.790000e+00
  P4ar  C5er  1 4.700000e-01    2.620000e+00
  P4ar  C4er  1 4.700000e-01    2.440000e+00
  P4ar  C3er  1 4.850000e-01    2.240000e+00
  P4ar  C2er  1 4.850000e-01    2.240000e+00
  P4ar  C1er  1 5.200000e-01    2.120000e+00
  P4ar  X4er  1 4.700000e-01    2.960000e+00
  P4ar  X3er  1 4.700000e-01    2.790000e+00
  P4ar  X2er  1 4.700000e-01    2.790000e+00
  P4ar  X1er  1 4.700000e-01    2.620000e+00
  P3ar  C6er  1 4.700000e-01    2.960000e+00
  P3ar  C5er  1 4.700000e-01    2.790000e+00
  P3ar  C4er  1 4.700000e-01    2.620000e+00
  P3ar  C3er  1 4.850000e-01    2.240000e+00
  P3ar  C2er  1 4.850000e-01    2.240000e+00
  P3ar  C1er  1 5.200000e-01    2.120000e+00
  P3ar  X4er  1 4.700000e-01    2.960000e+00
  P3ar  X3er  1 4.700000e-01    2.960000e+00
  P3ar  X2er  1 4.700000e-01    2.790000e+00
  P3ar  X1er  1 4.700000e-01    2.620000e+00
  P2ar  C6er  1 4.700000e-01    2.960000e+00
  P2ar  C5er  1 4.700000e-01    2.790000e+00
  P2ar  C4er  1 4.700000e-01    2.620000e+00
  P2ar  C3er  1 4.700000e-01    2.440000e+00
  P2ar  C2er  1 4.700000e-01    2.440000e+00
  P2ar  C1er  1 4.850000e-01    2.240000e+00
  P2ar  X4er  1 4.700000e-01    2.960000e+00
  P2ar  X3er  1 4.700000e-01    2.960000e+00
  P2ar  X2er  1 4.700000e-01    2.790000e+00
  P2ar  X1er  1 4.700000e-01    2.620000e+00
  P1ar  C6er  1 4.700000e-01    2.960000e+00
  P1ar  C5er  1 4.700000e-01    2.790000e+00
  P1ar  C4er  1 4.700000e-01    2.620000e+00
  P1ar  C3er  1 4.700000e-01    2.440000e+00
  P1ar  C2er  1 4.700000e-01    2.440000e+00
  P1ar  C1er  1 4.850000e-01    2.240000e+00
  P1ar  X4er  1 4.700000e-01    2.960000e+00
  P1ar  X3er  1 4.700000e-01    2.960000e+00
  P1ar  X2er  1 4.700000e-01    2.790000e+00
  P1ar  X1er  1 4.700000e-01    2.620000e+00
  N6ar  C6er  1 4.700000e-01    3.070000e+00
  N6ar  C5er  1 4.700000e-01    2.960000e+00
  N6ar  C4er  1 4.700000e-01    2.790000e+00
  N6ar  C3er  1 4.700000e-01    2.620000e+00
  N6ar  C2er  1 4.700000e-01    2.620000e+00
  N6ar  C1er  1 4.700000e-01    2.440000e+00
  N6ar  X4er  1 4.700000e-01    3.070000e+00
  N6ar  X3er  1 4.700000e-01    2.960000e+00
  N6ar  X2er  1 4.700000e-01    2.790000e+00
  N6ar  X1er  1 4.700000e-01    2.620000e+00
  N5ar  C6er  1 4.700000e-01    3.070000e+00
  N5ar  C5er  1 4.700000e-01    2.960000e+00
  N5ar  C4er  1 4.700000e-01    2.790000e+00
  N5ar  C3er  1 4.700000e-01    2.790000e+00
  N5ar  C2er  1 4.700000e-01    2.620000e+00
  N5ar  C1er  1 4.700000e-01    2.440000e+00
  N5ar  X4er  1 4.700000e-01    3.240000e+00
  N5ar  X3er  1 4.700000e-01    3.070000e+00
  N5ar  X2er  1 4.700000e-01    2.960000e+00
  N5ar  X1er  1 4.700000e-01    2.790000e+00
  N4ar  C6er  1 4.700000e-01    3.070000e+00
  N4ar  C5er  1 4.700000e-01    2.960000e+00
  N4ar  C4er  1 4.700000e-01    2.960000e+00
  N4ar  C3er  1 4.700000e-01    2.790000e+00
  N4ar  C2er  1 4.700000e-01    2.620000e+00
  N4ar  C1er  1 4.700000e-01    2.440000e+00
  N4ar  X4er  1 4.700000e-01    3.390000e+00
  N4ar  X3er  1 4.700000e-01    3.240000e+00
  N4ar  X2er  1 4.700000e-01    2.960000e+00
  N4ar  X1er  1 4.700000e-01    2.790000e+00
  N3ar  C6er  1 4.700000e-01    3.070000e+00
  N3ar  C5er  1 4.700000e-01    2.960000e+00
  N3ar  C4er  1 4.700000e-01    2.960000e+00
  N3ar  C3er  1 4.700000e-01    2.790000e+00
  N3ar  C2er  1 4.700000e-01    2.790000e+00
  N3ar  C1er  1 4.700000e-01    2.620000e+00
  N3ar  X4er  1 4.700000e-01    3.240000e+00
  N3ar  X3er  1 4.700000e-01    3.070000e+00
  N3ar  X2er  1 4.700000e-01    2.960000e+00
  N3ar  X1er  1 4.700000e-01    2.960000e+00
  N2ar  C6er  1 4.700000e-01    3.070000e+00
  N2ar  C5er  1 4.700000e-01    2.960000e+00
  N2ar  C4er  1 4.700000e-01    2.960000e+00
  N2ar  C3er  1 4.700000e-01    2.960000e+00
  N2ar  C2er  1 4.700000e-01    2.790000e+00
  N2ar  C1er  1 4.700000e-01    2.620000e+00
  N2ar  X4er  1 4.700000e-01    3.240000e+00
  N2ar  X3er  1 4.700000e-01    3.070000e+00
  N2ar  X2er  1 4.700000e-01    2.960000e+00
  N2ar  X1er  1 4.700000e-01    2.960000e+00
  N1ar  C6er  1 4.700000e-01    3.240000e+00
  N1ar  C5er  1 4.700000e-01    3.070000e+00
  N1ar  C4er  1 4.700000e-01    3.070000e+00
  N1ar  C3er  1 4.700000e-01    2.960000e+00
  N1ar  C2er  1 4.700000e-01    2.790000e+00
  N1ar  C1er  1 4.700000e-01    2.620000e+00
  N1ar  X4er  1 4.700000e-01    3.070000e+00
  N1ar  X3er  1 4.700000e-01    3.070000e+00
  N1ar  X2er  1 4.700000e-01    2.960000e+00
  N1ar  X1er  1 4.700000e-01    2.960000e+00
   P6d  SC6e  1 4.300000e-01    2.530000e+00
   P6d  SC5e  1 4.300000e-01    2.320000e+00
   P6d  SC4e  1 4.300000e-01    2.160000e+00
   P6d  SC3e  1 4.300000e-01    1.930000e+00
   P6d  SC2e  1 4.300000e-01    1.930000e+00
   P6d  SC1e  1 4.430000e-01    1.480000e+00
   P6d  SX4e  1 4.300000e-01    2.770000e+00
   P6d  SX3e  1 4.300000e-01    2.770000e+00
   P6d  SX2e  1 4.300000e-01    2.530000e+00
   P6d  SX1e  1 4.300000e-01    2.320000e+00
   P5d  SC6e  1 4.300000e-01    2.530000e+00
   P5d  SC5e  1 4.300000e-01    2.530000e+00
   P5d  SC4e  1 4.300000e-01    2.320000e+00
   P5d  SC3e  1 4.300000e-01    2.160000e+00
   P5d  SC2e  1 4.300000e-01    2.160000e+00
   P5d  SC1e  1 4.300000e-01    1.930000e+00
   P5d  SX4e  1 4.300000e-01    2.920000e+00
   P5d  SX3e  1 4.300000e-01    2.770000e+00
   P5d  SX2e  1 4.300000e-01    2.770000e+00
   P5d  SX1e  1 4.300000e-01    2.320000e+00
   P4d  SC6e  1 4.300000e-01    2.770000e+00
   P4d  SC5e  1 4.300000e-01    2.530000e+00
   P4d  SC4e  1 4.300000e-01    2.320000e+00
   P4d  SC3e  1 4.300000e-01    2.160000e+00
   P4d  SC2e  1 4.300000e-01    2.160000e+00
   P4d  SC1e  1 4.300000e-01    1.930000e+00
   P4d  SX4e  1 4.300000e-01    2.920000e+00
   P4d  SX3e  1 4.300000e-01    2.770000e+00
   P4d  SX2e  1 4.300000e-01    2.770000e+00
   P4d  SX1e  1 4.300000e-01    2.530000e+00
   P3d  SC6e  1 4.300000e-01    2.920000e+00
   P3d  SC5e  1 4.300000e-01    2.770000e+00
   P3d  SC4e  1 4.300000e-01    2.530000e+00
   P3d  SC3e  1 4.300000e-01    2.160000e+00
   P3d  SC2e  1 4.300000e-01    2.160000e+00
   P3d  SC1e  1 4.300000e-01    1.930000e+00
   P3d  SX4e  1 4.300000e-01    2.920000e+00
   P3d  SX3e  1 4.300000e-01    2.920000e+00
   P3d  SX2e  1 4.300000e-01    2.770000e+00
   P3d  SX1e  1 4.300000e-01    2.530000e+00
   P2d  SC6e  1 4.300000e-01    2.920000e+00
   P2d  SC5e  1 4.300000e-01    2.770000e+00
   P2d  SC4e  1 4.300000e-01    2.530000e+00
   P2d  SC3e  1 4.300000e-01    2.320000e+00
   P2d  SC2e  1 4.300000e-01    2.320000e+00
   P2d  SC1e  1 4.300000e-01    2.160000e+00
   P2d  SX4e  1 4.300000e-01    2.920000e+00
   P2d  SX3e  1 4.300000e-01    2.920000e+00
   P2d  SX2e  1 4.300000e-01    2.770000e+00
   P2d  SX1e  1 4.300000e-01    2.530000e+00
   P1d  SC6e  1 4.300000e-01    2.920000e+00
   P1d  SC5e  1 4.300000e-01    2.770000e+00
   P1d  SC4e  1 4.300000e-01    2.530000e+00
   P1d  SC3e  1 4.300000e-01    2.320000e+00
   P1d  SC2e  1 4.300000e-01    2.320000e+00
   P1d  SC1e  1 4.300000e-01    2.160000e+00
   P1d  SX4e  1 4.300000e-01    2.920000e+00
   P1d  SX3e  1 4.300000e-01    2.920000e+00
   P1d  SX2e  1 4.300000e-01    2.770000e+00
   P1d  SX1e  1 4.300000e-01    2.530000e+00
   N6d  SC6e  1 4.300000e-01    3.160000e+00
   N6d  SC5e  1 4.300000e-01    2.920000e+00
   N6d  SC4e  1 4.300000e-01    2.770000e+00
   N6d  SC3e  1 4.300000e-01    2.530000e+00
   N6d  SC2e  1 4.300000e-01    2.530000e+00
   N6d  SC1e  1 4.300000e-01    2.320000e+00
   N6d  SX4e  1 4.300000e-01    3.160000e+00
   N6d  SX3e  1 4.300000e-01    2.920000e+00
   N6d  SX2e  1 4.300000e-01    2.770000e+00
   N6d  SX1e  1 4.300000e-01    2.530000e+00
   N5d  SC6e  1 4.300000e-01    3.160000e+00
   N5d  SC5e  1 4.300000e-01    2.920000e+00
   N5d  SC4e  1 4.300000e-01    2.770000e+00
   N5d  SC3e  1 4.300000e-01    2.770000e+00
   N5d  SC2e  1 4.300000e-01    2.530000e+00
   N5d  SC1e  1 4.300000e-01    2.320000e+00
   N5d  SX4e  1 4.300000e-01    3.380000e+00
   N5d  SX3e  1 4.300000e-01    3.160000e+00
   N5d  SX2e  1 4.300000e-01    2.920000e+00
   N5d  SX1e  1 4.300000e-01    2.770000e+00
   N4d  SC6e  1 4.300000e-01    3.160000e+00
   N4d  SC5e  1 4.300000e-01    2.920000e+00
   N4d  SC4e  1 4.300000e-01    2.920000e+00
   N4d  SC3e  1 4.300000e-01    2.770000e+00
   N4d  SC2e  1 4.300000e-01    2.530000e+00
   N4d  SC1e  1 4.300000e-01    2.320000e+00
   N4d  SX4e  1 4.300000e-01    3.590000e+00
   N4d  SX3e  1 4.300000e-01    3.380000e+00
   N4d  SX2e  1 4.300000e-01    2.920000e+00
   N4d  SX1e  1 4.300000e-01    2.770000e+00
   N3d  SC6e  1 4.300000e-01    3.160000e+00
   N3d  SC5e  1 4.300000e-01    2.920000e+00
   N3d  SC4e  1 4.300000e-01    2.920000e+00
   N3d  SC3e  1 4.300000e-01    2.770000e+00
   N3d  SC2e  1 4.300000e-01    2.770000e+00
   N3d  SC1e  1 4.300000e-01    2.530000e+00
   N3d  SX4e  1 4.300000e-01    3.380000e+00
   N3d  SX3e  1 4.300000e-01    3.160000e+00
   N3d  SX2e  1 4.300000e-01    2.920000e+00
   N3d  SX1e  1 4.300000e-01    2.920000e+00
   N2d  SC6e  1 4.300000e-01    3.160000e+00
   N2d  SC5e  1 4.300000e-01    2.920000e+00
   N2d  SC4e  1 4.300000e-01    2.920000e+00
   N2d  SC3e  1 4.300000e-01    2.920000e+00
   N2d  SC2e  1 4.300000e-01    2.770000e+00
   N2d  SC1e  1 4.300000e-01    2.530000e+00
   N2d  SX4e  1 4.300000e-01    3.380000e+00
   N2d  SX3e  1 4.300000e-01    3.160000e+00
   N2d  SX2e  1 4.300000e-01    2.920000e+00
   N2d  SX1e  1 4.300000e-01    2.920000e+00
   N1d  SC6e  1 4.300000e-01    3.380000e+00
   N1d  SC5e  1 4.300000e-01    3.160000e+00
   N1d  SC4e  1 4.300000e-01    3.160000e+00
   N1d  SC3e  1 4.300000e-01    2.920000e+00
   N1d  SC2e  1 4.300000e-01    2.770000e+00
   N1d  SC1e  1 4.300000e-01    2.530000e+00
   N1d  SX4e  1 4.300000e-01    3.160000e+00
   N1d  SX3e  1 4.300000e-01    3.160000e+00
   N1d  SX2e  1 4.300000e-01    2.920000e+00
   N1d  SX1e  1 4.300000e-01    2.920000e+00
  SP6d   C6e  1 4.300000e-01    2.530000e+00
  SP6d   C5e  1 4.300000e-01    2.320000e+00
  SP6d   C4e  1 4.300000e-01    2.160000e+00
  SP6d   C3e  1 4.300000e-01    1.930000e+00
  SP6d   C2e  1 4.300000e-01    1.930000e+00
  SP6d   C1e  1 4.430000e-01    1.480000e+00
  SP6d   X4e  1 4.300000e-01    2.770000e+00
  SP6d   X3e  1 4.300000e-01    2.770000e+00
  SP6d   X2e  1 4.300000e-01    2.530000e+00
  SP6d   X1e  1 4.300000e-01    2.320000e+00
  SP5d   C6e  1 4.300000e-01    2.530000e+00
  SP5d   C5e  1 4.300000e-01    2.530000e+00
  SP5d   C4e  1 4.300000e-01    2.320000e+00
  SP5d   C3e  1 4.300000e-01    2.160000e+00
  SP5d   C2e  1 4.300000e-01    2.160000e+00
  SP5d   C1e  1 4.300000e-01    1.930000e+00
  SP5d   X4e  1 4.300000e-01    2.920000e+00
  SP5d   X3e  1 4.300000e-01    2.770000e+00
  SP5d   X2e  1 4.300000e-01    2.770000e+00
  SP5d   X1e  1 4.300000e-01    2.320000e+00
  SP4d   C6e  1 4.300000e-01    2.770000e+00
  SP4d   C5e  1 4.300000e-01    2.530000e+00
  SP4d   C4e  1 4.300000e-01    2.320000e+00
  SP4d   C3e  1 4.300000e-01    2.160000e+00
  SP4d   C2e  1 4.300000e-01    2.160000e+00
  SP4d   C1e  1 4.300000e-01    1.930000e+00
  SP4d   X4e  1 4.300000e-01    2.920000e+00
  SP4d   X3e  1 4.300000e-01    2.770000e+00
  SP4d   X2e  1 4.300000e-01    2.770000e+00
  SP4d   X1e  1 4.300000e-01    2.530000e+00
  SP3d   C6e  1 4.300000e-01    2.920000e+00
  SP3d   C5e  1 4.300000e-01    2.770000e+00
  SP3d   C4e  1 4.300000e-01    2.530000e+00
  SP3d   C3e  1 4.300000e-01    2.160000e+00
  SP3d   C2e  1 4.300000e-01    2.160000e+00
  SP3d   C1e  1 4.300000e-01    1.930000e+00
  SP3d   X4e  1 4.300000e-01    2.920000e+00
  SP3d   X3e  1 4.300000e-01    2.920000e+00
  SP3d   X2e  1 4.300000e-01    2.770000e+00
  SP3d   X1e  1 4.300000e-01    2.530000e+00
  SP2d   C6e  1 4.300000e-01    2.920000e+00
  SP2d   C5e  1 4.300000e-01    2.770000e+00
  SP2d   C4e  1 4.300000e-01    2.530000e+00
  SP2d   C3e  1 4.300000e-01    2.320000e+00
  SP2d   C2e  1 4.300000e-01    2.320000e+00
  SP2d   C1e  1 4.300000e-01    2.160000e+00
  SP2d   X4e  1 4.300000e-01    2.920000e+00
  SP2d   X3e  1 4.300000e-01    2.920000e+00
  SP2d   X2e  1 4.300000e-01    2.770000e+00
  SP2d   X1e  1 4.300000e-01    2.530000e+00
  SP1d   C6e  1 4.300000e-01    2.920000e+00
  SP1d   C5e  1 4.300000e-01    2.770000e+00
  SP1d   C4e  1 4.300000e-01    2.530000e+00
  SP1d   C3e  1 4.300000e-01    2.320000e+00
  SP1d   C2e  1 4.300000e-01    2.320000e+00
  SP1d   C1e  1 4.300000e-01    2.160000e+00
  SP1d   X4e  1 4.300000e-01    2.920000e+00
  SP1d   X3e  1 4.300000e-01    2.920000e+00
  SP1d   X2e  1 4.300000e-01    2.770000e+00
  SP1d   X1e  1 4.300000e-01    2.530000e+00
  SN6d   C6e  1 4.300000e-01    3.160000e+00
  SN6d   C5e  1 4.300000e-01    2.920000e+00
  SN6d   C4e  1 4.300000e-01    2.770000e+00
  SN6d   C3e  1 4.300000e-01    2.530000e+00
  SN6d   C2e  1 4.300000e-01    2.530000e+00
  SN6d   C1e  1 4.300000e-01    2.320000e+00
  SN6d   X4e  1 4.300000e-01    3.160000e+00
  SN6d   X3e  1 4.300000e-01    2.920000e+00
  SN6d   X2e  1 4.300000e-01    2.770000e+00
  SN6d   X1e  1 4.300000e-01    2.530000e+00
  SN5d   C6e  1 4.300000e-01    3.160000e+00
  SN5d   C5e  1 4.300000e-01    2.920000e+00
  SN5d   C4e  1 4.300000e-01    2.770000e+00
  SN5d   C3e  1 4.300000e-01    2.770000e+00
  SN5d   C2e  1 4.300000e-01    2.530000e+00
  SN5d   C1e  1 4.300000e-01    2.320000e+00
  SN5d   X4e  1 4.300000e-01    3.380000e+00
  SN5d   X3e  1 4.300000e-01    3.160000e+00
  SN5d   X2e  1 4.300000e-01    2.920000e+00
  SN5d   X1e  1 4.300000e-01    2.770000e+00
  SN4d   C6e  1 4.300000e-01    3.160000e+00
  SN4d   C5e  1 4.300000e-01    2.920000e+00
  SN4d   C4e  1 4.300000e-01    2.920000e+00
  SN4d   C3e  1 4.300000e-01    2.770000e+00
  SN4d   C2e  1 4.300000e-01    2.530000e+00
  SN4d   C1e  1 4.300000e-01    2.320000e+00
  SN4d   X4e  1 4.300000e-01    3.590000e+00
  SN4d   X3e  1 4.300000e-01    3.380000e+00
  SN4d   X2e  1 4.300000e-01    2.920000e+00
  SN4d   X1e  1 4.300000e-01    2.770000e+00
  SN3d   C6e  1 4.300000e-01    3.160000e+00
  SN3d   C5e  1 4.300000e-01    2.920000e+00
  SN3d   C4e  1 4.300000e-01    2.920000e+00
  SN3d   C3e  1 4.300000e-01    2.770000e+00
  SN3d   C2e  1 4.300000e-01    2.770000e+00
  SN3d   C1e  1 4.300000e-01    2.530000e+00
  SN3d   X4e  1 4.300000e-01    3.380000e+00
  SN3d   X3e  1 4.300000e-01    3.160000e+00
  SN3d   X2e  1 4.300000e-01    2.920000e+00
  SN3d   X1e  1 4.300000e-01    2.920000e+00
  SN2d   C6e  1 4.300000e-01    3.160000e+00
  SN2d   C5e  1 4.300000e-01    2.920000e+00
  SN2d   C4e  1 4.300000e-01    2.920000e+00
  SN2d   C3e  1 4.300000e-01    2.920000e+00
  SN2d   C2e  1 4.300000e-01    2.770000e+00
  SN2d   C1e  1 4.300000e-01    2.530000e+00
  SN2d   X4e  1 4.300000e-01    3.380000e+00
  SN2d   X3e  1 4.300000e-01    3.160000e+00
  SN2d   X2e  1 4.300000e-01    2.920000e+00
  SN2d   X1e  1 4.300000e-01    2.920000e+00
  SN1d   C6e  1 4.300000e-01    3.380000e+00
  SN1d   C5e  1 4.300000e-01    3.160000e+00
  SN1d   C4e  1 4.300000e-01    3.160000e+00
  SN1d   C3e  1 4.300000e-01    2.920000e+00
  SN1d   C2e  1 4.300000e-01    2.770000e+00
  SN1d   C1e  1 4.300000e-01    2.530000e+00
  SN1d   X4e  1 4.300000e-01    3.160000e+00
  SN1d   X3e  1 4.300000e-01    3.160000e+00
  SN1d   X2e  1 4.300000e-01    2.920000e+00
  SN1d   X1e  1 4.300000e-01    2.920000e+00
   P6d SX1eq  1 4.300000e-01    2.770000e+00
   P5d SX1eq  1 4.300000e-01    2.770000e+00
   P4d SX1eq  1 4.300000e-01    2.920000e+00
   P3d SX1eq  1 4.300000e-01    2.920000e+00
   P2d SX1eq  1 4.300000e-01    2.920000e+00
   P1d SX1eq  1 4.300000e-01    2.920000e+00
   N6d SX1eq  1 4.300000e-01    2.920000e+00
   N5d SX1eq  1 4.300000e-01    3.160000e+00
   N4d SX1eq  1 4.300000e-01    3.160000e+00
   N3d SX1eq  1 4.300000e-01    3.380000e+00
   N2d SX1eq  1 4.300000e-01    3.380000e+00
   N1d SX1eq  1 4.300000e-01    3.380000e+00
   P6d SX2eq  1 4.300000e-01    2.920000e+00
   P5d SX2eq  1 4.300000e-01    3.160000e+00
   P4d SX2eq  1 4.300000e-01    3.160000e+00
   P3d SX2eq  1 4.300000e-01    3.160000e+00
   P2d SX2eq  1 4.300000e-01    3.160000e+00
   P1d SX2eq  1 4.300000e-01    3.160000e+00
   N6d SX2eq  1 4.300000e-01    3.160000e+00
   N5d SX2eq  1 4.300000e-01    3.380000e+00
   N4d SX2eq  1 4.300000e-01    3.380000e+00
   N3d SX2eq  1 4.300000e-01    3.380000e+00
   N2d SX2eq  1 4.300000e-01    3.380000e+00
   N1d SX2eq  1 4.300000e-01    3.380000e+00
   P6d SX3eq  1 4.300000e-01    3.160000e+00
   P5d SX3eq  1 4.300000e-01    3.160000e+00
   P4d SX3eq  1 4.300000e-01    3.160000e+00
   P3d SX3eq  1 4.300000e-01    3.380000e+00
   P2d SX3eq  1 4.300000e-01    3.380000e+00
   P1d SX3eq  1 4.300000e-01    3.380000e+00
   N6d SX3eq  1 4.300000e-01    3.380000e+00
   N5d SX3eq  1 4.300000e-01    3.590000e+00
   N4d SX3eq  1 4.300000e-01    3.770000e+00
   N3d SX3eq  1 4.300000e-01    3.590000e+00
   N2d SX3eq  1 4.300000e-01    3.590000e+00
   N1d SX3eq  1 4.300000e-01    3.590000e+00
   P6d SX4eq  1 4.300000e-01    3.160000e+00
   P5d SX4eq  1 4.300000e-01    3.380000e+00
   P4d SX4eq  1 4.300000e-01    3.380000e+00
   P3d SX4eq  1 4.300000e-01    3.380000e+00
   P2d SX4eq  1 4.300000e-01    3.380000e+00
   P1d SX4eq  1 4.300000e-01    3.380000e+00
   N6d SX4eq  1 4.300000e-01    3.590000e+00
   N5d SX4eq  1 4.300000e-01    3.770000e+00
   N4d SX4eq  1 4.300000e-01    3.970000e+00
   N3d SX4eq  1 4.300000e-01    3.770000e+00
   N2d SX4eq  1 4.300000e-01    3.770000e+00
   N1d SX4eq  1 4.300000e-01    3.590000e+00
   P6d SC1eq  1 4.300000e-01    1.930000e+00
   P5d SC1eq  1 4.300000e-01    2.320000e+00
   P4d SC1eq  1 4.300000e-01    2.320000e+00
   P3d SC1eq  1 4.300000e-01    2.320000e+00
   P2d SC1eq  1 4.300000e-01    2.530000e+00
   P1d SC1eq  1 4.300000e-01    2.530000e+00
   N6d SC1eq  1 4.300000e-01    2.770000e+00
   N5d SC1eq  1 4.300000e-01    2.770000e+00
   N4d SC1eq  1 4.300000e-01    2.770000e+00
   N3d SC1eq  1 4.300000e-01    2.920000e+00
   N2d SC1eq  1 4.300000e-01    2.920000e+00
   N1d SC1eq  1 4.300000e-01    2.920000e+00
   P6d SC2eq  1 4.300000e-01    2.320000e+00
   P5d SC2eq  1 4.300000e-01    2.530000e+00
   P4d SC2eq  1 4.300000e-01    2.530000e+00
   P3d SC2eq  1 4.300000e-01    2.530000e+00
   P2d SC2eq  1 4.300000e-01    2.770000e+00
   P1d SC2eq  1 4.300000e-01    2.770000e+00
   N6d SC2eq  1 4.300000e-01    2.920000e+00
   N5d SC2eq  1 4.300000e-01    2.920000e+00
   N4d SC2eq  1 4.300000e-01    2.920000e+00
   N3d SC2eq  1 4.300000e-01    3.160000e+00
   N2d SC2eq  1 4.300000e-01    3.160000e+00
   N1d SC2eq  1 4.300000e-01    3.160000e+00
   P6d SC3eq  1 4.300000e-01    2.320000e+00
   P5d SC3eq  1 4.300000e-01    2.530000e+00
   P4d SC3eq  1 4.300000e-01    2.530000e+00
   P3d SC3eq  1 4.300000e-01    2.530000e+00
   P2d SC3eq  1 4.300000e-01    2.770000e+00
   P1d SC3eq  1 4.300000e-01    2.770000e+00
   N6d SC3eq  1 4.300000e-01    2.920000e+00
   N5d SC3eq  1 4.300000e-01    3.160000e+00
   N4d SC3eq  1 4.300000e-01    3.160000e+00
   N3d SC3eq  1 4.300000e-01    3.160000e+00
   N2d SC3eq  1 4.300000e-01    3.380000e+00
   N1d SC3eq  1 4.300000e-01    3.380000e+00
   P6d SC4eq  1 4.300000e-01    2.530000e+00
   P5d SC4eq  1 4.300000e-01    2.770000e+00
   P4d SC4eq  1 4.300000e-01    2.770000e+00
   P3d SC4eq  1 4.300000e-01    2.920000e+00
   P2d SC4eq  1 4.300000e-01    2.920000e+00
   P1d SC4eq  1 4.300000e-01    2.920000e+00
   N6d SC4eq  1 4.300000e-01    3.160000e+00
   N5d SC4eq  1 4.300000e-01    3.160000e+00
   N4d SC4eq  1 4.300000e-01    3.380000e+00
   N3d SC4eq  1 4.300000e-01    3.380000e+00
   N2d SC4eq  1 4.300000e-01    3.380000e+00
   N1d SC4eq  1 4.300000e-01    3.590000e+00
   P6d SC5eq  1 4.300000e-01    2.770000e+00
   P5d SC5eq  1 4.300000e-01    2.920000e+00
   P4d SC5eq  1 4.300000e-01    2.920000e+00
   P3d SC5eq  1 4.300000e-01    3.160000e+00
   P2d SC5eq  1 4.300000e-01    3.160000e+00
   P1d SC5eq  1 4.300000e-01    3.160000e+00
   N6d SC5eq  1 4.300000e-01    3.380000e+00
   N5d SC5eq  1 4.300000e-01    3.380000e+00
   N4d SC5eq  1 4.300000e-01    3.380000e+00
   N3d SC5eq  1 4.300000e-01    3.380000e+00
   N2d SC5eq  1 4.300000e-01    3.380000e+00
   N1d SC5eq  1 4.300000e-01    3.590000e+00
   P6d SC6eq  1 4.300000e-01    2.920000e+00
   P5d SC6eq  1 4.300000e-01    2.920000e+00
   P4d SC6eq  1 4.300000e-01    3.160000e+00
   P3d SC6eq  1 4.300000e-01    3.380000e+00
   P2d SC6eq  1 4.300000e-01    3.380000e+00
   P1d SC6eq  1 4.300000e-01    3.380000e+00
   N6d SC6eq  1 4.300000e-01    3.590000e+00
   N5d SC6eq  1 4.300000e-01    3.590000e+00
   N4d SC6eq  1 4.300000e-01    3.590000e+00
   N3d SC6eq  1 4.300000e-01    3.590000e+00
   N2d SC6eq  1 4.300000e-01    3.590000e+00
   N1d SC6eq  1 4.300000e-01    3.770000e+00
  SP6d  X1eq  1 4.300000e-01    2.770000e+00
  SP5d  X1eq  1 4.300000e-01    2.770000e+00
  SP4d  X1eq  1 4.300000e-01    2.920000e+00
  SP3d  X1eq  1 4.300000e-01    2.920000e+00
  SP2d  X1eq  1 4.300000e-01    2.920000e+00
  SP1d  X1eq  1 4.300000e-01    2.920000e+00
  SN6d  X1eq  1 4.300000e-01    2.920000e+00
  SN5d  X1eq  1 4.300000e-01    3.160000e+00
  SN4d  X1eq  1 4.300000e-01    3.160000e+00
  SN3d  X1eq  1 4.300000e-01    3.380000e+00
  SN2d  X1eq  1 4.300000e-01    3.380000e+00
  SN1d  X1eq  1 4.300000e-01    3.380000e+00
  SP6d  X2eq  1 4.300000e-01    2.920000e+00
  SP5d  X2eq  1 4.300000e-01    3.160000e+00
  SP4d  X2eq  1 4.300000e-01    3.160000e+00
  SP3d  X2eq  1 4.300000e-01    3.160000e+00
  SP2d  X2eq  1 4.300000e-01    3.160000e+00
  SP1d  X2eq  1 4.300000e-01    3.160000e+00
  SN6d  X2eq  1 4.300000e-01    3.160000e+00
  SN5d  X2eq  1 4.300000e-01    3.380000e+00
  SN4d  X2eq  1 4.300000e-01    3.380000e+00
  SN3d  X2eq  1 4.300000e-01    3.380000e+00
  SN2d  X2eq  1 4.300000e-01    3.380000e+00
  SN1d  X2eq  1 4.300000e-01    3.380000e+00
  SP6d  X3eq  1 4.300000e-01    3.160000e+00
  SP5d  X3eq  1 4.300000e-01    3.160000e+00
  SP4d  X3eq  1 4.300000e-01    3.160000e+00
  SP3d  X3eq  1 4.300000e-01    3.380000e+00
  SP2d  X3eq  1 4.300000e-01    3.380000e+00
  SP1d  X3eq  1 4.300000e-01    3.380000e+00
  SN6d  X3eq  1 4.300000e-01    3.380000e+00
  SN5d  X3eq  1 4.300000e-01    3.590000e+00
  SN4d  X3eq  1 4.300000e-01    3.770000e+00
  SN3d  X3eq  1 4.300000e-01    3.590000e+00
  SN2d  X3eq  1 4.300000e-01    3.590000e+00
  SN1d  X3eq  1 4.300000e-01    3.590000e+00
  SP6d  X4eq  1 4.300000e-01    3.160000e+00
  SP5d  X4eq  1 4.300000e-01    3.380000e+00
  SP4d  X4eq  1 4.300000e-01    3.380000e+00
  SP3d  X4eq  1 4.300000e-01    3.380000e+00
  SP2d  X4eq  1 4.300000e-01    3.380000e+00
  SP1d  X4eq  1 4.300000e-01    3.380000e+00
  SN6d  X4eq  1 4.300000e-01    3.590000e+00
  SN5d  X4eq  1 4.300000e-01    3.770000e+00
  SN4d  X4eq  1 4.300000e-01    3.970000e+00
  SN3d  X4eq  1 4.300000e-01    3.770000e+00
  SN2d  X4eq  1 4.300000e-01    3.770000e+00
  SN1d  X4eq  1 4.300000e-01    3.590000e+00
  SP6d  C1eq  1 4.300000e-01    1.930000e+00
  SP5d  C1eq  1 4.300000e-01    2.320000e+00
  SP4d  C1eq  1 4.300000e-01    2.320000e+00
  SP3d  C1eq  1 4.300000e-01    2.320000e+00
  SP2d  C1eq  1 4.300000e-01    2.530000e+00
  SP1d  C1eq  1 4.300000e-01    2.530000e+00
  SN6d  C1eq  1 4.300000e-01    2.770000e+00
  SN5d  C1eq  1 4.300000e-01    2.770000e+00
  SN4d  C1eq  1 4.300000e-01    2.770000e+00
  SN3d  C1eq  1 4.300000e-01    2.920000e+00
  SN2d  C1eq  1 4.300000e-01    2.920000e+00
  SN1d  C1eq  1 4.300000e-01    2.920000e+00
  SP6d  C2eq  1 4.300000e-01    2.320000e+00
  SP5d  C2eq  1 4.300000e-01    2.530000e+00
  SP4d  C2eq  1 4.300000e-01    2.530000e+00
  SP3d  C2eq  1 4.300000e-01    2.530000e+00
  SP2d  C2eq  1 4.300000e-01    2.770000e+00
  SP1d  C2eq  1 4.300000e-01    2.770000e+00
  SN6d  C2eq  1 4.300000e-01    2.920000e+00
  SN5d  C2eq  1 4.300000e-01    2.920000e+00
  SN4d  C2eq  1 4.300000e-01    2.920000e+00
  SN3d  C2eq  1 4.300000e-01    3.160000e+00
  SN2d  C2eq  1 4.300000e-01    3.160000e+00
  SN1d  C2eq  1 4.300000e-01    3.160000e+00
  SP6d  C3eq  1 4.300000e-01    2.320000e+00
  SP5d  C3eq  1 4.300000e-01    2.530000e+00
  SP4d  C3eq  1 4.300000e-01    2.530000e+00
  SP3d  C3eq  1 4.300000e-01    2.530000e+00
  SP2d  C3eq  1 4.300000e-01    2.770000e+00
  SP1d  C3eq  1 4.300000e-01    2.770000e+00
  SN6d  C3eq  1 4.300000e-01    2.920000e+00
  SN5d  C3eq  1 4.300000e-01    3.160000e+00
  SN4d  C3eq  1 4.300000e-01    3.160000e+00
  SN3d  C3eq  1 4.300000e-01    3.160000e+00
  SN2d  C3eq  1 4.300000e-01    3.380000e+00
  SN1d  C3eq  1 4.300000e-01    3.380000e+00
  SP6d  C4eq  1 4.300000e-01    2.530000e+00
  SP5d  C4eq  1 4.300000e-01    2.770000e+00
  SP4d  C4eq  1 4.300000e-01    2.770000e+00
  SP3d  C4eq  1 4.300000e-01    2.920000e+00
  SP2d  C4eq  1 4.300000e-01    2.920000e+00
  SP1d  C4eq  1 4.300000e-01    2.920000e+00
  SN6d  C4eq  1 4.300000e-01    3.160000e+00
  SN5d  C4eq  1 4.300000e-01    3.160000e+00
  SN4d  C4eq  1 4.300000e-01    3.380000e+00
  SN3d  C4eq  1 4.300000e-01    3.380000e+00
  SN2d  C4eq  1 4.300000e-01    3.380000e+00
  SN1d  C4eq  1 4.300000e-01    3.590000e+00
  SP6d  C5eq  1 4.300000e-01    2.770000e+00
  SP5d  C5eq  1 4.300000e-01    2.920000e+00
  SP4d  C5eq  1 4.300000e-01    2.920000e+00
  SP3d  C5eq  1 4.300000e-01    3.160000e+00
  SP2d  C5eq  1 4.300000e-01    3.160000e+00
  SP1d  C5eq  1 4.300000e-01    3.160000e+00
  SN6d  C5eq  1 4.300000e-01    3.380000e+00
  SN5d  C5eq  1 4.300000e-01    3.380000e+00
  SN4d  C5eq  1 4.300000e-01    3.380000e+00
  SN3d  C5eq  1 4.300000e-01    3.380000e+00
  SN2d  C5eq  1 4.300000e-01    3.380000e+00
  SN1d  C5eq  1 4.300000e-01    3.590000e+00
  SP6d  C6eq  1 4.300000e-01    2.920000e+00
  SP5d  C6eq  1 4.300000e-01    2.920000e+00
  SP4d  C6eq  1 4.300000e-01    3.160000e+00
  SP3d  C6eq  1 4.300000e-01    3.380000e+00
  SP2d  C6eq  1 4.300000e-01    3.380000e+00
  SP1d  C6eq  1 4.300000e-01    3.380000e+00
  SN6d  C6eq  1 4.300000e-01    3.590000e+00
  SN5d  C6eq  1 4.300000e-01    3.590000e+00
  SN4d  C6eq  1 4.300000e-01    3.590000e+00
  SN3d  C6eq  1 4.300000e-01    3.590000e+00
  SN2d  C6eq  1 4.300000e-01    3.590000e+00
  SN1d  C6eq  1 4.300000e-01    3.770000e+00
   P6d SX1eh  1 4.300000e-01    2.320000e+00
   P5d SX1eh  1 4.300000e-01    2.320000e+00
   P4d SX1eh  1 4.300000e-01    2.530000e+00
   P3d SX1eh  1 4.300000e-01    2.530000e+00
   P2d SX1eh  1 4.300000e-01    2.530000e+00
   P1d SX1eh  1 4.300000e-01    2.530000e+00
   N6d SX1eh  1 4.300000e-01    2.530000e+00
   N5d SX1eh  1 4.300000e-01    2.770000e+00
   N4d SX1eh  1 4.300000e-01    2.770000e+00
   N3d SX1eh  1 4.300000e-01    2.920000e+00
   N2d SX1eh  1 4.300000e-01    2.920000e+00
   N1d SX1eh  1 4.300000e-01    2.920000e+00
   P6d SX2eh  1 4.300000e-01    2.530000e+00
   P5d SX2eh  1 4.300000e-01    2.770000e+00
   P4d SX2eh  1 4.300000e-01    2.770000e+00
   P3d SX2eh  1 4.300000e-01    2.770000e+00
   P2d SX2eh  1 4.300000e-01    2.770000e+00
   P1d SX2eh  1 4.300000e-01    2.770000e+00
   N6d SX2eh  1 4.300000e-01    2.770000e+00
   N5d SX2eh  1 4.300000e-01    2.920000e+00
   N4d SX2eh  1 4.300000e-01    2.920000e+00
   N3d SX2eh  1 4.300000e-01    2.920000e+00
   N2d SX2eh  1 4.300000e-01    2.920000e+00
   N1d SX2eh  1 4.300000e-01    2.920000e+00
   P6d SX3eh  1 4.300000e-01    2.770000e+00
   P5d SX3eh  1 4.300000e-01    2.770000e+00
   P4d SX3eh  1 4.300000e-01    2.770000e+00
   P3d SX3eh  1 4.300000e-01    2.920000e+00
   P2d SX3eh  1 4.300000e-01    2.920000e+00
   P1d SX3eh  1 4.300000e-01    2.920000e+00
   N6d SX3eh  1 4.300000e-01    2.920000e+00
   N5d SX3eh  1 4.300000e-01    3.160000e+00
   N4d SX3eh  1 4.300000e-01    3.380000e+00
   N3d SX3eh  1 4.300000e-01    3.160000e+00
   N2d SX3eh  1 4.300000e-01    3.160000e+00
   N1d SX3eh  1 4.300000e-01    3.160000e+00
   P6d SX4eh  1 4.300000e-01    2.770000e+00
   P5d SX4eh  1 4.300000e-01    2.920000e+00
   P4d SX4eh  1 4.300000e-01    2.920000e+00
   P3d SX4eh  1 4.300000e-01    2.920000e+00
   P2d SX4eh  1 4.300000e-01    2.920000e+00
   P1d SX4eh  1 4.300000e-01    2.920000e+00
   N6d SX4eh  1 4.300000e-01    3.160000e+00
   N5d SX4eh  1 4.300000e-01    3.380000e+00
   N4d SX4eh  1 4.300000e-01    3.590000e+00
   N3d SX4eh  1 4.300000e-01    3.380000e+00
   N2d SX4eh  1 4.300000e-01    3.380000e+00
   N1d SX4eh  1 4.300000e-01    3.160000e+00
   P6d SC1eh  1 4.430000e-01    1.480000e+00
   P5d SC1eh  1 4.300000e-01    1.930000e+00
   P4d SC1eh  1 4.300000e-01    1.930000e+00
   P3d SC1eh  1 4.300000e-01    1.930000e+00
   P2d SC1eh  1 4.300000e-01    2.160000e+00
   P1d SC1eh  1 4.300000e-01    2.160000e+00
   N6d SC1eh  1 4.300000e-01    2.320000e+00
   N5d SC1eh  1 4.300000e-01    2.320000e+00
   N4d SC1eh  1 4.300000e-01    2.320000e+00
   N3d SC1eh  1 4.300000e-01    2.530000e+00
   N2d SC1eh  1 4.300000e-01    2.530000e+00
   N1d SC1eh  1 4.300000e-01    2.530000e+00
   P6d SC2eh  1 4.300000e-01    1.930000e+00
   P5d SC2eh  1 4.300000e-01    2.160000e+00
   P4d SC2eh  1 4.300000e-01    2.160000e+00
   P3d SC2eh  1 4.300000e-01    2.160000e+00
   P2d SC2eh  1 4.300000e-01    2.320000e+00
   P1d SC2eh  1 4.300000e-01    2.320000e+00
   N6d SC2eh  1 4.300000e-01    2.530000e+00
   N5d SC2eh  1 4.300000e-01    2.530000e+00
   N4d SC2eh  1 4.300000e-01    2.530000e+00
   N3d SC2eh  1 4.300000e-01    2.770000e+00
   N2d SC2eh  1 4.300000e-01    2.770000e+00
   N1d SC2eh  1 4.300000e-01    2.770000e+00
   P6d SC3eh  1 4.300000e-01    1.930000e+00
   P5d SC3eh  1 4.300000e-01    2.160000e+00
   P4d SC3eh  1 4.300000e-01    2.160000e+00
   P3d SC3eh  1 4.300000e-01    2.160000e+00
   P2d SC3eh  1 4.300000e-01    2.320000e+00
   P1d SC3eh  1 4.300000e-01    2.320000e+00
   N6d SC3eh  1 4.300000e-01    2.530000e+00
   N5d SC3eh  1 4.300000e-01    2.770000e+00
   N4d SC3eh  1 4.300000e-01    2.770000e+00
   N3d SC3eh  1 4.300000e-01    2.770000e+00
   N2d SC3eh  1 4.300000e-01    2.920000e+00
   N1d SC3eh  1 4.300000e-01    2.920000e+00
   P6d SC4eh  1 4.300000e-01    2.160000e+00
   P5d SC4eh  1 4.300000e-01    2.320000e+00
   P4d SC4eh  1 4.300000e-01    2.320000e+00
   P3d SC4eh  1 4.300000e-01    2.530000e+00
   P2d SC4eh  1 4.300000e-01    2.530000e+00
   P1d SC4eh  1 4.300000e-01    2.530000e+00
   N6d SC4eh  1 4.300000e-01    2.770000e+00
   N5d SC4eh  1 4.300000e-01    2.770000e+00
   N4d SC4eh  1 4.300000e-01    2.920000e+00
   N3d SC4eh  1 4.300000e-01    2.920000e+00
   N2d SC4eh  1 4.300000e-01    2.920000e+00
   N1d SC4eh  1 4.300000e-01    3.160000e+00
   P6d SC5eh  1 4.300000e-01    2.320000e+00
   P5d SC5eh  1 4.300000e-01    2.530000e+00
   P4d SC5eh  1 4.300000e-01    2.530000e+00
   P3d SC5eh  1 4.300000e-01    2.770000e+00
   P2d SC5eh  1 4.300000e-01    2.770000e+00
   P1d SC5eh  1 4.300000e-01    2.770000e+00
   N6d SC5eh  1 4.300000e-01    2.920000e+00
   N5d SC5eh  1 4.300000e-01    2.920000e+00
   N4d SC5eh  1 4.300000e-01    2.920000e+00
   N3d SC5eh  1 4.300000e-01    2.920000e+00
   N2d SC5eh  1 4.300000e-01    2.920000e+00
   N1d SC5eh  1 4.300000e-01    3.160000e+00
   P6d SC6eh  1 4.300000e-01    2.530000e+00
   P5d SC6eh  1 4.300000e-01    2.530000e+00
   P4d SC6eh  1 4.300000e-01    2.770000e+00
   P3d SC6eh  1 4.300000e-01    2.920000e+00
   P2d SC6eh  1 4.300000e-01    2.920000e+00
   P1d SC6eh  1 4.300000e-01    2.920000e+00
   N6d SC6eh  1 4.300000e-01    3.160000e+00
   N5d SC6eh  1 4.300000e-01    3.160000e+00
   N4d SC6eh  1 4.300000e-01    3.160000e+00
   N3d SC6eh  1 4.300000e-01    3.160000e+00
   N2d SC6eh  1 4.300000e-01    3.160000e+00
   N1d SC6eh  1 4.300000e-01    3.380000e+00
  SP6d  X1eh  1 4.300000e-01    2.320000e+00
  SP5d  X1eh  1 4.300000e-01    2.320000e+00
  SP4d  X1eh  1 4.300000e-01    2.530000e+00
  SP3d  X1eh  1 4.300000e-01    2.530000e+00
  SP2d  X1eh  1 4.300000e-01    2.530000e+00
  SP1d  X1eh  1 4.300000e-01    2.530000e+00
  SN6d  X1eh  1 4.300000e-01    2.530000e+00
  SN5d  X1eh  1 4.300000e-01    2.770000e+00
  SN4d  X1eh  1 4.300000e-01    2.770000e+00
  SN3d  X1eh  1 4.300000e-01    2.920000e+00
  SN2d  X1eh  1 4.300000e-01    2.920000e+00
  SN1d  X1eh  1 4.300000e-01    2.920000e+00
  SP6d  X2eh  1 4.300000e-01    2.530000e+00
  SP5d  X2eh  1 4.300000e-01    2.770000e+00
  SP4d  X2eh  1 4.300000e-01    2.770000e+00
  SP3d  X2eh  1 4.300000e-01    2.770000e+00
  SP2d  X2eh  1 4.300000e-01    2.770000e+00
  SP1d  X2eh  1 4.300000e-01    2.770000e+00
  SN6d  X2eh  1 4.300000e-01    2.770000e+00
  SN5d  X2eh  1 4.300000e-01    2.920000e+00
  SN4d  X2eh  1 4.300000e-01    2.920000e+00
  SN3d  X2eh  1 4.300000e-01    2.920000e+00
  SN2d  X2eh  1 4.300000e-01    2.920000e+00
  SN1d  X2eh  1 4.300000e-01    2.920000e+00
  SP6d  X3eh  1 4.300000e-01    2.770000e+00
  SP5d  X3eh  1 4.300000e-01    2.770000e+00
  SP4d  X3eh  1 4.300000e-01    2.770000e+00
  SP3d  X3eh  1 4.300000e-01    2.920000e+00
  SP2d  X3eh  1 4.300000e-01    2.920000e+00
  SP1d  X3eh  1 4.300000e-01    2.920000e+00
  SN6d  X3eh  1 4.300000e-01    2.920000e+00
  SN5d  X3eh  1 4.300000e-01    3.160000e+00
  SN4d  X3eh  1 4.300000e-01    3.380000e+00
  SN3d  X3eh  1 4.300000e-01    3.160000e+00
  SN2d  X3eh  1 4.300000e-01    3.160000e+00
  SN1d  X3eh  1 4.300000e-01    3.160000e+00
  SP6d  X4eh  1 4.300000e-01    2.770000e+00
  SP5d  X4eh  1 4.300000e-01    2.920000e+00
  SP4d  X4eh  1 4.300000e-01    2.920000e+00
  SP3d  X4eh  1 4.300000e-01    2.920000e+00
  SP2d  X4eh  1 4.300000e-01    2.920000e+00
  SP1d  X4eh  1 4.300000e-01    2.920000e+00
  SN6d  X4eh  1 4.300000e-01    3.160000e+00
  SN5d  X4eh  1 4.300000e-01    3.380000e+00
  SN4d  X4eh  1 4.300000e-01    3.590000e+00
  SN3d  X4eh  1 4.300000e-01    3.380000e+00
  SN2d  X4eh  1 4.300000e-01    3.380000e+00
  SN1d  X4eh  1 4.300000e-01    3.160000e+00
  SP6d  C1eh  1 4.430000e-01    1.480000e+00
  SP5d  C1eh  1 4.300000e-01    1.930000e+00
  SP4d  C1eh  1 4.300000e-01    1.930000e+00
  SP3d  C1eh  1 4.300000e-01    1.930000e+00
  SP2d  C1eh  1 4.300000e-01    2.160000e+00
  SP1d  C1eh  1 4.300000e-01    2.160000e+00
  SN6d  C1eh  1 4.300000e-01    2.320000e+00
  SN5d  C1eh  1 4.300000e-01    2.320000e+00
  SN4d  C1eh  1 4.300000e-01    2.320000e+00
  SN3d  C1eh  1 4.300000e-01    2.530000e+00
  SN2d  C1eh  1 4.300000e-01    2.530000e+00
  SN1d  C1eh  1 4.300000e-01    2.530000e+00
  SP6d  C2eh  1 4.300000e-01    1.930000e+00
  SP5d  C2eh  1 4.300000e-01    2.160000e+00
  SP4d  C2eh  1 4.300000e-01    2.160000e+00
  SP3d  C2eh  1 4.300000e-01    2.160000e+00
  SP2d  C2eh  1 4.300000e-01    2.320000e+00
  SP1d  C2eh  1 4.300000e-01    2.320000e+00
  SN6d  C2eh  1 4.300000e-01    2.530000e+00
  SN5d  C2eh  1 4.300000e-01    2.530000e+00
  SN4d  C2eh  1 4.300000e-01    2.530000e+00
  SN3d  C2eh  1 4.300000e-01    2.770000e+00
  SN2d  C2eh  1 4.300000e-01    2.770000e+00
  SN1d  C2eh  1 4.300000e-01    2.770000e+00
  SP6d  C3eh  1 4.300000e-01    1.930000e+00
  SP5d  C3eh  1 4.300000e-01    2.160000e+00
  SP4d  C3eh  1 4.300000e-01    2.160000e+00
  SP3d  C3eh  1 4.300000e-01    2.160000e+00
  SP2d  C3eh  1 4.300000e-01    2.320000e+00
  SP1d  C3eh  1 4.300000e-01    2.320000e+00
  SN6d  C3eh  1 4.300000e-01    2.530000e+00
  SN5d  C3eh  1 4.300000e-01    2.770000e+00
  SN4d  C3eh  1 4.300000e-01    2.770000e+00
  SN3d  C3eh  1 4.300000e-01    2.770000e+00
  SN2d  C3eh  1 4.300000e-01    2.920000e+00
  SN1d  C3eh  1 4.300000e-01    2.920000e+00
  SP6d  C4eh  1 4.300000e-01    2.160000e+00
  SP5d  C4eh  1 4.300000e-01    2.320000e+00
  SP4d  C4eh  1 4.300000e-01    2.320000e+00
  SP3d  C4eh  1 4.300000e-01    2.530000e+00
  SP2d  C4eh  1 4.300000e-01    2.530000e+00
  SP1d  C4eh  1 4.300000e-01    2.530000e+00
  SN6d  C4eh  1 4.300000e-01    2.770000e+00
  SN5d  C4eh  1 4.300000e-01    2.770000e+00
  SN4d  C4eh  1 4.300000e-01    2.920000e+00
  SN3d  C4eh  1 4.300000e-01    2.920000e+00
  SN2d  C4eh  1 4.300000e-01    2.920000e+00
  SN1d  C4eh  1 4.300000e-01    3.160000e+00
  SP6d  C5eh  1 4.300000e-01    2.320000e+00
  SP5d  C5eh  1 4.300000e-01    2.530000e+00
  SP4d  C5eh  1 4.300000e-01    2.530000e+00
  SP3d  C5eh  1 4.300000e-01    2.770000e+00
  SP2d  C5eh  1 4.300000e-01    2.770000e+00
  SP1d  C5eh  1 4.300000e-01    2.770000e+00
  SN6d  C5eh  1 4.300000e-01    2.920000e+00
  SN5d  C5eh  1 4.300000e-01    2.920000e+00
  SN4d  C5eh  1 4.300000e-01    2.920000e+00
  SN3d  C5eh  1 4.300000e-01    2.920000e+00
  SN2d  C5eh  1 4.300000e-01    2.920000e+00
  SN1d  C5eh  1 4.300000e-01    3.160000e+00
  SP6d  C6eh  1 4.300000e-01    2.530000e+00
  SP5d  C6eh  1 4.300000e-01    2.530000e+00
  SP4d  C6eh  1 4.300000e-01    2.770000e+00
  SP3d  C6eh  1 4.300000e-01    2.920000e+00
  SP2d  C6eh  1 4.300000e-01    2.920000e+00
  SP1d  C6eh  1 4.300000e-01    2.920000e+00
  SN6d  C6eh  1 4.300000e-01    3.160000e+00
  SN5d  C6eh  1 4.300000e-01    3.160000e+00
  SN4d  C6eh  1 4.300000e-01    3.160000e+00
  SN3d  C6eh  1 4.300000e-01    3.160000e+00
  SN2d  C6eh  1 4.300000e-01    3.160000e+00
  SN1d  C6eh  1 4.300000e-01    3.380000e+00
   P6d SX1er  1 4.300000e-01    2.320000e+00
   P5d SX1er  1 4.300000e-01    2.320000e+00
   P4d SX1er  1 4.300000e-01    2.530000e+00
   P3d SX1er  1 4.300000e-01    2.530000e+00
   P2d SX1er  1 4.300000e-01    2.530000e+00
   P1d SX1er  1 4.300000e-01    2.530000e+00
   N6d SX1er  1 4.300000e-01    2.530000e+00
   N5d SX1er  1 4.300000e-01    2.770000e+00
   N4d SX1er  1 4.300000e-01    2.770000e+00
   N3d SX1er  1 4.300000e-01    2.920000e+00
   N2d SX1er  1 4.300000e-01    2.920000e+00
   N1d SX1er  1 4.300000e-01    2.920000e+00
   P6d SX2er  1 4.300000e-01    2.530000e+00
   P5d SX2er  1 4.300000e-01    2.770000e+00
   P4d SX2er  1 4.300000e-01    2.770000e+00
   P3d SX2er  1 4.300000e-01    2.770000e+00
   P2d SX2er  1 4.300000e-01    2.770000e+00
   P1d SX2er  1 4.300000e-01    2.770000e+00
   N6d SX2er  1 4.300000e-01    2.770000e+00
   N5d SX2er  1 4.300000e-01    2.920000e+00
   N4d SX2er  1 4.300000e-01    2.920000e+00
   N3d SX2er  1 4.300000e-01    2.920000e+00
   N2d SX2er  1 4.300000e-01    2.920000e+00
   N1d SX2er  1 4.300000e-01    2.920000e+00
   P6d SX3er  1 4.300000e-01    2.770000e+00
   P5d SX3er  1 4.300000e-01    2.770000e+00
   P4d SX3er  1 4.300000e-01    2.770000e+00
   P3d SX3er  1 4.300000e-01    2.920000e+00
   P2d SX3er  1 4.300000e-01    2.920000e+00
   P1d SX3er  1 4.300000e-01    2.920000e+00
   N6d SX3er  1 4.300000e-01    2.920000e+00
   N5d SX3er  1 4.300000e-01    3.160000e+00
   N4d SX3er  1 4.300000e-01    3.380000e+00
   N3d SX3er  1 4.300000e-01    3.160000e+00
   N2d SX3er  1 4.300000e-01    3.160000e+00
   N1d SX3er  1 4.300000e-01    3.160000e+00
   P6d SX4er  1 4.300000e-01    2.770000e+00
   P5d SX4er  1 4.300000e-01    2.920000e+00
   P4d SX4er  1 4.300000e-01    2.920000e+00
   P3d SX4er  1 4.300000e-01    2.920000e+00
   P2d SX4er  1 4.300000e-01    2.920000e+00
   P1d SX4er  1 4.300000e-01    2.920000e+00
   N6d SX4er  1 4.300000e-01    3.160000e+00
   N5d SX4er  1 4.300000e-01    3.380000e+00
   N4d SX4er  1 4.300000e-01    3.590000e+00
   N3d SX4er  1 4.300000e-01    3.380000e+00
   N2d SX4er  1 4.300000e-01    3.380000e+00
   N1d SX4er  1 4.300000e-01    3.160000e+00
   P6d SC1er  1 4.430000e-01    1.480000e+00
   P5d SC1er  1 4.300000e-01    1.930000e+00
   P4d SC1er  1 4.300000e-01    1.930000e+00
   P3d SC1er  1 4.300000e-01    1.930000e+00
   P2d SC1er  1 4.300000e-01    2.160000e+00
   P1d SC1er  1 4.300000e-01    2.160000e+00
   N6d SC1er  1 4.300000e-01    2.320000e+00
   N5d SC1er  1 4.300000e-01    2.320000e+00
   N4d SC1er  1 4.300000e-01    2.320000e+00
   N3d SC1er  1 4.300000e-01    2.530000e+00
   N2d SC1er  1 4.300000e-01    2.530000e+00
   N1d SC1er  1 4.300000e-01    2.530000e+00
   P6d SC2er  1 4.300000e-01    1.930000e+00
   P5d SC2er  1 4.300000e-01    2.160000e+00
   P4d SC2er  1 4.300000e-01    2.160000e+00
   P3d SC2er  1 4.300000e-01    2.160000e+00
   P2d SC2er  1 4.300000e-01    2.320000e+00
   P1d SC2er  1 4.300000e-01    2.320000e+00
   N6d SC2er  1 4.300000e-01    2.530000e+00
   N5d SC2er  1 4.300000e-01    2.530000e+00
   N4d SC2er  1 4.300000e-01    2.530000e+00
   N3d SC2er  1 4.300000e-01    2.770000e+00
   N2d SC2er  1 4.300000e-01    2.770000e+00
   N1d SC2er  1 4.300000e-01    2.770000e+00
   P6d SC3er  1 4.300000e-01    1.930000e+00
   P5d SC3er  1 4.300000e-01    2.160000e+00
   P4d SC3er  1 4.300000e-01    2.160000e+00
   P3d SC3er  1 4.300000e-01    2.160000e+00
   P2d SC3er  1 4.300000e-01    2.320000e+00
   P1d SC3er  1 4.300000e-01    2.320000e+00
   N6d SC3er  1 4.300000e-01    2.530000e+00
   N5d SC3er  1 4.300000e-01    2.770000e+00
   N4d SC3er  1 4.300000e-01    2.770000e+00
   N3d SC3er  1 4.300000e-01    2.770000e+00
   N2d SC3er  1 4.300000e-01    2.920000e+00
   N1d SC3er  1 4.300000e-01    2.920000e+00
   P6d SC4er  1 4.300000e-01    2.160000e+00
   P5d SC4er  1 4.300000e-01    2.320000e+00
   P4d SC4er  1 4.300000e-01    2.320000e+00
   P3d SC4er  1 4.300000e-01    2.530000e+00
   P2d SC4er  1 4.300000e-01    2.530000e+00
   P1d SC4er  1 4.300000e-01    2.530000e+00
   N6d SC4er  1 4.300000e-01    2.770000e+00
   N5d SC4er  1 4.300000e-01    2.770000e+00
   N4d SC4er  1 4.300000e-01    2.920000e+00
   N3d SC4er  1 4.300000e-01    2.920000e+00
   N2d SC4er  1 4.300000e-01    2.920000e+00
   N1d SC4er  1 4.300000e-01    3.160000e+00
   P6d SC5er  1 4.300000e-01    2.320000e+00
   P5d SC5er  1 4.300000e-01    2.530000e+00
   P4d SC5er  1 4.300000e-01    2.530000e+00
   P3d SC5er  1 4.300000e-01    2.770000e+00
   P2d SC5er  1 4.300000e-01    2.770000e+00
   P1d SC5er  1 4.300000e-01    2.770000e+00
   N6d SC5er  1 4.300000e-01    2.920000e+00
   N5d SC5er  1 4.300000e-01    2.920000e+00
   N4d SC5er  1 4.300000e-01    2.920000e+00
   N3d SC5er  1 4.300000e-01    2.920000e+00
   N2d SC5er  1 4.300000e-01    2.920000e+00
   N1d SC5er  1 4.300000e-01    3.160000e+00
   P6d SC6er  1 4.300000e-01    2.530000e+00
   P5d SC6er  1 4.300000e-01    2.530000e+00
   P4d SC6er  1 4.300000e-01    2.770000e+00
   P3d SC6er  1 4.300000e-01    2.920000e+00
   P2d SC6er  1 4.300000e-01    2.920000e+00
   P1d SC6er  1 4.300000e-01    2.920000e+00
   N6d SC6er  1 4.300000e-01    3.160000e+00
   N5d SC6er  1 4.300000e-01    3.160000e+00
   N4d SC6er  1 4.300000e-01    3.160000e+00
   N3d SC6er  1 4.300000e-01    3.160000e+00
   N2d SC6er  1 4.300000e-01    3.160000e+00
   N1d SC6er  1 4.300000e-01    3.380000e+00
  SP6d  X1er  1 4.300000e-01    2.320000e+00
  SP5d  X1er  1 4.300000e-01    2.320000e+00
  SP4d  X1er  1 4.300000e-01    2.530000e+00
  SP3d  X1er  1 4.300000e-01    2.530000e+00
  SP2d  X1er  1 4.300000e-01    2.530000e+00
  SP1d  X1er  1 4.300000e-01    2.530000e+00
  SN6d  X1er  1 4.300000e-01    2.530000e+00
  SN5d  X1er  1 4.300000e-01    2.770000e+00
  SN4d  X1er  1 4.300000e-01    2.770000e+00
  SN3d  X1er  1 4.300000e-01    2.920000e+00
  SN2d  X1er  1 4.300000e-01    2.920000e+00
  SN1d  X1er  1 4.300000e-01    2.920000e+00
  SP6d  X2er  1 4.300000e-01    2.530000e+00
  SP5d  X2er  1 4.300000e-01    2.770000e+00
  SP4d  X2er  1 4.300000e-01    2.770000e+00
  SP3d  X2er  1 4.300000e-01    2.770000e+00
  SP2d  X2er  1 4.300000e-01    2.770000e+00
  SP1d  X2er  1 4.300000e-01    2.770000e+00
  SN6d  X2er  1 4.300000e-01    2.770000e+00
  SN5d  X2er  1 4.300000e-01    2.920000e+00
  SN4d  X2er  1 4.300000e-01    2.920000e+00
  SN3d  X2er  1 4.300000e-01    2.920000e+00
  SN2d  X2er  1 4.300000e-01    2.920000e+00
  SN1d  X2er  1 4.300000e-01    2.920000e+00
  SP6d  X3er  1 4.300000e-01    2.770000e+00
  SP5d  X3er  1 4.300000e-01    2.770000e+00
  SP4d  X3er  1 4.300000e-01    2.770000e+00
  SP3d  X3er  1 4.300000e-01    2.920000e+00
  SP2d  X3er  1 4.300000e-01    2.920000e+00
  SP1d  X3er  1 4.300000e-01    2.920000e+00
  SN6d  X3er  1 4.300000e-01    2.920000e+00
  SN5d  X3er  1 4.300000e-01    3.160000e+00
  SN4d  X3er  1 4.300000e-01    3.380000e+00
  SN3d  X3er  1 4.300000e-01    3.160000e+00
  SN2d  X3er  1 4.300000e-01    3.160000e+00
  SN1d  X3er  1 4.300000e-01    3.160000e+00
  SP6d  X4er  1 4.300000e-01    2.770000e+00
  SP5d  X4er  1 4.300000e-01    2.920000e+00
  SP4d  X4er  1 4.300000e-01    2.920000e+00
  SP3d  X4er  1 4.300000e-01    2.920000e+00
  SP2d  X4er  1 4.300000e-01    2.920000e+00
  SP1d  X4er  1 4.300000e-01    2.920000e+00
  SN6d  X4er  1 4.300000e-01    3.160000e+00
  SN5d  X4er  1 4.300000e-01    3.380000e+00
  SN4d  X4er  1 4.300000e-01    3.590000e+00
  SN3d  X4er  1 4.300000e-01    3.380000e+00
  SN2d  X4er  1 4.300000e-01    3.380000e+00
  SN1d  X4er  1 4.300000e-01    3.160000e+00
  SP6d  C1er  1 4.430000e-01    1.480000e+00
  SP5d  C1er  1 4.300000e-01    1.930000e+00
  SP4d  C1er  1 4.300000e-01    1.930000e+00
  SP3d  C1er  1 4.300000e-01    1.930000e+00
  SP2d  C1er  1 4.300000e-01    2.160000e+00
  SP1d  C1er  1 4.300000e-01    2.160000e+00
  SN6d  C1er  1 4.300000e-01    2.320000e+00
  SN5d  C1er  1 4.300000e-01    2.320000e+00
  SN4d  C1er  1 4.300000e-01    2.320000e+00
  SN3d  C1er  1 4.300000e-01    2.530000e+00
  SN2d  C1er  1 4.300000e-01    2.530000e+00
  SN1d  C1er  1 4.300000e-01    2.530000e+00
  SP6d  C2er  1 4.300000e-01    1.930000e+00
  SP5d  C2er  1 4.300000e-01    2.160000e+00
  SP4d  C2er  1 4.300000e-01    2.160000e+00
  SP3d  C2er  1 4.300000e-01    2.160000e+00
  SP2d  C2er  1 4.300000e-01    2.320000e+00
  SP1d  C2er  1 4.300000e-01    2.320000e+00
  SN6d  C2er  1 4.300000e-01    2.530000e+00
  SN5d  C2er  1 4.300000e-01    2.530000e+00
  SN4d  C2er  1 4.300000e-01    2.530000e+00
  SN3d  C2er  1 4.300000e-01    2.770000e+00
  SN2d  C2er  1 4.300000e-01    2.770000e+00
  SN1d  C2er  1 4.300000e-01    2.770000e+00
  SP6d  C3er  1 4.300000e-01    1.930000e+00
  SP5d  C3er  1 4.300000e-01    2.160000e+00
  SP4d  C3er  1 4.300000e-01    2.160000e+00
  SP3d  C3er  1 4.300000e-01    2.160000e+00
  SP2d  C3er  1 4.300000e-01    2.320000e+00
  SP1d  C3er  1 4.300000e-01    2.320000e+00
  SN6d  C3er  1 4.300000e-01    2.530000e+00
  SN5d  C3er  1 4.300000e-01    2.770000e+00
  SN4d  C3er  1 4.300000e-01    2.770000e+00
  SN3d  C3er  1 4.300000e-01    2.770000e+00
  SN2d  C3er  1 4.300000e-01    2.920000e+00
  SN1d  C3er  1 4.300000e-01    2.920000e+00
  SP6d  C4er  1 4.300000e-01    2.160000e+00
  SP5d  C4er  1 4.300000e-01    2.320000e+00
  SP4d  C4er  1 4.300000e-01    2.320000e+00
  SP3d  C4er  1 4.300000e-01    2.530000e+00
  SP2d  C4er  1 4.300000e-01    2.530000e+00
  SP1d  C4er  1 4.300000e-01    2.530000e+00
  SN6d  C4er  1 4.300000e-01    2.770000e+00
  SN5d  C4er  1 4.300000e-01    2.770000e+00
  SN4d  C4er  1 4.300000e-01    2.920000e+00
  SN3d  C4er  1 4.300000e-01    2.920000e+00
  SN2d  C4er  1 4.300000e-01    2.920000e+00
  SN1d  C4er  1 4.300000e-01    3.160000e+00
  SP6d  C5er  1 4.300000e-01    2.320000e+00
  SP5d  C5er  1 4.300000e-01    2.530000e+00
  SP4d  C5er  1 4.300000e-01    2.530000e+00
  SP3d  C5er  1 4.300000e-01    2.770000e+00
  SP2d  C5er  1 4.300000e-01    2.770000e+00
  SP1d  C5er  1 4.300000e-01    2.770000e+00
  SN6d  C5er  1 4.300000e-01    2.920000e+00
  SN5d  C5er  1 4.300000e-01    2.920000e+00
  SN4d  C5er  1 4.300000e-01    2.920000e+00
  SN3d  C5er  1 4.300000e-01    2.920000e+00
  SN2d  C5er  1 4.300000e-01    2.920000e+00
  SN1d  C5er  1 4.300000e-01    3.160000e+00
  SP6d  C6er  1 4.300000e-01    2.530000e+00
  SP5d  C6er  1 4.300000e-01    2.530000e+00
  SP4d  C6er  1 4.300000e-01    2.770000e+00
  SP3d  C6er  1 4.300000e-01    2.920000e+00
  SP2d  C6er  1 4.300000e-01    2.920000e+00
  SP1d  C6er  1 4.300000e-01    2.920000e+00
  SN6d  C6er  1 4.300000e-01    3.160000e+00
  SN5d  C6er  1 4.300000e-01    3.160000e+00
  SN4d  C6er  1 4.300000e-01    3.160000e+00
  SN3d  C6er  1 4.300000e-01    3.160000e+00
  SN2d  C6er  1 4.300000e-01    3.160000e+00
  SN1d  C6er  1 4.300000e-01    3.380000e+00
  P6dq  SC6e  1 4.300000e-01    2.920000e+00
  P6dq  SC5e  1 4.300000e-01    2.770000e+00
  P6dq  SC4e  1 4.300000e-01    2.530000e+00
  P6dq  SC3e  1 4.300000e-01    2.320000e+00
  P6dq  SC2e  1 4.300000e-01    2.320000e+00
  P6dq  SC1e  1 4.300000e-01    1.930000e+00
  P6dq  SX4e  1 4.300000e-01    3.160000e+00
  P6dq  SX3e  1 4.300000e-01    3.160000e+00
  P6dq  SX2e  1 4.300000e-01    2.920000e+00
  P6dq  SX1e  1 4.300000e-01    2.770000e+00
  P5dq  SC6e  1 4.300000e-01    2.920000e+00
  P5dq  SC5e  1 4.300000e-01    2.920000e+00
  P5dq  SC4e  1 4.300000e-01    2.770000e+00
  P5dq  SC3e  1 4.300000e-01    2.530000e+00
  P5dq  SC2e  1 4.300000e-01    2.530000e+00
  P5dq  SC1e  1 4.300000e-01    2.320000e+00
  P5dq  SX4e  1 4.300000e-01    3.380000e+00
  P5dq  SX3e  1 4.300000e-01    3.160000e+00
  P5dq  SX2e  1 4.300000e-01    3.160000e+00
  P5dq  SX1e  1 4.300000e-01    2.770000e+00
  P4dq  SC6e  1 4.300000e-01    3.160000e+00
  P4dq  SC5e  1 4.300000e-01    2.920000e+00
  P4dq  SC4e  1 4.300000e-01    2.770000e+00
  P4dq  SC3e  1 4.300000e-01    2.530000e+00
  P4dq  SC2e  1 4.300000e-01    2.530000e+00
  P4dq  SC1e  1 4.300000e-01    2.320000e+00
  P4dq  SX4e  1 4.300000e-01    3.380000e+00
  P4dq  SX3e  1 4.300000e-01    3.160000e+00
  P4dq  SX2e  1 4.300000e-01    3.160000e+00
  P4dq  SX1e  1 4.300000e-01    2.920000e+00
  P3dq  SC6e  1 4.300000e-01    3.380000e+00
  P3dq  SC5e  1 4.300000e-01    3.160000e+00
  P3dq  SC4e  1 4.300000e-01    2.920000e+00
  P3dq  SC3e  1 4.300000e-01    2.530000e+00
  P3dq  SC2e  1 4.300000e-01    2.530000e+00
  P3dq  SC1e  1 4.300000e-01    2.320000e+00
  P3dq  SX4e  1 4.300000e-01    3.380000e+00
  P3dq  SX3e  1 4.300000e-01    3.380000e+00
  P3dq  SX2e  1 4.300000e-01    3.160000e+00
  P3dq  SX1e  1 4.300000e-01    2.920000e+00
  P2dq  SC6e  1 4.300000e-01    3.380000e+00
  P2dq  SC5e  1 4.300000e-01    3.160000e+00
  P2dq  SC4e  1 4.300000e-01    2.920000e+00
  P2dq  SC3e  1 4.300000e-01    2.770000e+00
  P2dq  SC2e  1 4.300000e-01    2.770000e+00
  P2dq  SC1e  1 4.300000e-01    2.530000e+00
  P2dq  SX4e  1 4.300000e-01    3.380000e+00
  P2dq  SX3e  1 4.300000e-01    3.380000e+00
  P2dq  SX2e  1 4.300000e-01    3.160000e+00
  P2dq  SX1e  1 4.300000e-01    2.920000e+00
  P1dq  SC6e  1 4.300000e-01    3.380000e+00
  P1dq  SC5e  1 4.300000e-01    3.160000e+00
  P1dq  SC4e  1 4.300000e-01    2.920000e+00
  P1dq  SC3e  1 4.300000e-01    2.770000e+00
  P1dq  SC2e  1 4.300000e-01    2.770000e+00
  P1dq  SC1e  1 4.300000e-01    2.530000e+00
  P1dq  SX4e  1 4.300000e-01    3.380000e+00
  P1dq  SX3e  1 4.300000e-01    3.380000e+00
  P1dq  SX2e  1 4.300000e-01    3.160000e+00
  P1dq  SX1e  1 4.300000e-01    2.920000e+00
  N6dq  SC6e  1 4.300000e-01    3.590000e+00
  N6dq  SC5e  1 4.300000e-01    3.380000e+00
  N6dq  SC4e  1 4.300000e-01    3.160000e+00
  N6dq  SC3e  1 4.300000e-01    2.920000e+00
  N6dq  SC2e  1 4.300000e-01    2.920000e+00
  N6dq  SC1e  1 4.300000e-01    2.770000e+00
  N6dq  SX4e  1 4.300000e-01    3.590000e+00
  N6dq  SX3e  1 4.300000e-01    3.380000e+00
  N6dq  SX2e  1 4.300000e-01    3.160000e+00
  N6dq  SX1e  1 4.300000e-01    2.920000e+00
  N5dq  SC6e  1 4.300000e-01    3.590000e+00
  N5dq  SC5e  1 4.300000e-01    3.380000e+00
  N5dq  SC4e  1 4.300000e-01    3.160000e+00
  N5dq  SC3e  1 4.300000e-01    3.160000e+00
  N5dq  SC2e  1 4.300000e-01    2.920000e+00
  N5dq  SC1e  1 4.300000e-01    2.770000e+00
  N5dq  SX4e  1 4.300000e-01    3.770000e+00
  N5dq  SX3e  1 4.300000e-01    3.590000e+00
  N5dq  SX2e  1 4.300000e-01    3.380000e+00
  N5dq  SX1e  1 4.300000e-01    3.160000e+00
  N4dq  SC6e  1 4.300000e-01    3.590000e+00
  N4dq  SC5e  1 4.300000e-01    3.380000e+00
  N4dq  SC4e  1 4.300000e-01    3.380000e+00
  N4dq  SC3e  1 4.300000e-01    3.160000e+00
  N4dq  SC2e  1 4.300000e-01    2.920000e+00
  N4dq  SC1e  1 4.300000e-01    2.770000e+00
  N4dq  SX4e  1 4.300000e-01    3.970000e+00
  N4dq  SX3e  1 4.300000e-01    3.770000e+00
  N4dq  SX2e  1 4.300000e-01    3.380000e+00
  N4dq  SX1e  1 4.300000e-01    3.160000e+00
  N3dq  SC6e  1 4.300000e-01    3.590000e+00
  N3dq  SC5e  1 4.300000e-01    3.380000e+00
  N3dq  SC4e  1 4.300000e-01    3.380000e+00
  N3dq  SC3e  1 4.300000e-01    3.160000e+00
  N3dq  SC2e  1 4.300000e-01    3.160000e+00
  N3dq  SC1e  1 4.300000e-01    2.920000e+00
  N3dq  SX4e  1 4.300000e-01    3.770000e+00
  N3dq  SX3e  1 4.300000e-01    3.590000e+00
  N3dq  SX2e  1 4.300000e-01    3.380000e+00
  N3dq  SX1e  1 4.300000e-01    3.380000e+00
  N2dq  SC6e  1 4.300000e-01    3.590000e+00
  N2dq  SC5e  1 4.300000e-01    3.380000e+00
  N2dq  SC4e  1 4.300000e-01    3.380000e+00
  N2dq  SC3e  1 4.300000e-01    3.380000e+00
  N2dq  SC2e  1 4.300000e-01    3.160000e+00
  N2dq  SC1e  1 4.300000e-01    2.920000e+00
  N2dq  SX4e  1 4.300000e-01    3.770000e+00
  N2dq  SX3e  1 4.300000e-01    3.590000e+00
  N2dq  SX2e  1 4.300000e-01    3.380000e+00
  N2dq  SX1e  1 4.300000e-01    3.380000e+00
  N1dq  SC6e  1 4.300000e-01    3.770000e+00
  N1dq  SC5e  1 4.300000e-01    3.590000e+00
  N1dq  SC4e  1 4.300000e-01    3.590000e+00
  N1dq  SC3e  1 4.300000e-01    3.380000e+00
  N1dq  SC2e  1 4.300000e-01    3.160000e+00
  N1dq  SC1e  1 4.300000e-01    2.920000e+00
  N1dq  SX4e  1 4.300000e-01    3.590000e+00
  N1dq  SX3e  1 4.300000e-01    3.590000e+00
  N1dq  SX2e  1 4.300000e-01    3.380000e+00
  N1dq  SX1e  1 4.300000e-01    3.380000e+00
 SP6dq   C6e  1 4.300000e-01    2.920000e+00
 SP6dq   C5e  1 4.300000e-01    2.770000e+00
 SP6dq   C4e  1 4.300000e-01    2.530000e+00
 SP6dq   C3e  1 4.300000e-01    2.320000e+00
 SP6dq   C2e  1 4.300000e-01    2.320000e+00
 SP6dq   C1e  1 4.300000e-01    1.930000e+00
 SP6dq   X4e  1 4.300000e-01    3.160000e+00
 SP6dq   X3e  1 4.300000e-01    3.160000e+00
 SP6dq   X2e  1 4.300000e-01    2.920000e+00
 SP6dq   X1e  1 4.300000e-01    2.770000e+00
 SP5dq   C6e  1 4.300000e-01    2.920000e+00
 SP5dq   C5e  1 4.300000e-01    2.920000e+00
 SP5dq   C4e  1 4.300000e-01    2.770000e+00
 SP5dq   C3e  1 4.300000e-01    2.530000e+00
 SP5dq   C2e  1 4.300000e-01    2.530000e+00
 SP5dq   C1e  1 4.300000e-01    2.320000e+00
 SP5dq   X4e  1 4.300000e-01    3.380000e+00
 SP5dq   X3e  1 4.300000e-01    3.160000e+00
 SP5dq   X2e  1 4.300000e-01    3.160000e+00
 SP5dq   X1e  1 4.300000e-01    2.770000e+00
 SP4dq   C6e  1 4.300000e-01    3.160000e+00
 SP4dq   C5e  1 4.300000e-01    2.920000e+00
 SP4dq   C4e  1 4.300000e-01    2.770000e+00
 SP4dq   C3e  1 4.300000e-01    2.530000e+00
 SP4dq   C2e  1 4.300000e-01    2.530000e+00
 SP4dq   C1e  1 4.300000e-01    2.320000e+00
 SP4dq   X4e  1 4.300000e-01    3.380000e+00
 SP4dq   X3e  1 4.300000e-01    3.160000e+00
 SP4dq   X2e  1 4.300000e-01    3.160000e+00
 SP4dq   X1e  1 4.300000e-01    2.920000e+00
 SP3dq   C6e  1 4.300000e-01    3.380000e+00
 SP3dq   C5e  1 4.300000e-01    3.160000e+00
 SP3dq   C4e  1 4.300000e-01    2.920000e+00
 SP3dq   C3e  1 4.300000e-01    2.530000e+00
 SP3dq   C2e  1 4.300000e-01    2.530000e+00
 SP3dq   C1e  1 4.300000e-01    2.320000e+00
 SP3dq   X4e  1 4.300000e-01    3.380000e+00
 SP3dq   X3e  1 4.300000e-01    3.380000e+00
 SP3dq   X2e  1 4.300000e-01    3.160000e+00
 SP3dq   X1e  1 4.300000e-01    2.920000e+00
 SP2dq   C6e  1 4.300000e-01    3.380000e+00
 SP2dq   C5e  1 4.300000e-01    3.160000e+00
 SP2dq   C4e  1 4.300000e-01    2.920000e+00
 SP2dq   C3e  1 4.300000e-01    2.770000e+00
 SP2dq   C2e  1 4.300000e-01    2.770000e+00
 SP2dq   C1e  1 4.300000e-01    2.530000e+00
 SP2dq   X4e  1 4.300000e-01    3.380000e+00
 SP2dq   X3e  1 4.300000e-01    3.380000e+00
 SP2dq   X2e  1 4.300000e-01    3.160000e+00
 SP2dq   X1e  1 4.300000e-01    2.920000e+00
 SP1dq   C6e  1 4.300000e-01    3.380000e+00
 SP1dq   C5e  1 4.300000e-01    3.160000e+00
 SP1dq   C4e  1 4.300000e-01    2.920000e+00
 SP1dq   C3e  1 4.300000e-01    2.770000e+00
 SP1dq   C2e  1 4.300000e-01    2.770000e+00
 SP1dq   C1e  1 4.300000e-01    2.530000e+00
 SP1dq   X4e  1 4.300000e-01    3.380000e+00
 SP1dq   X3e  1 4.300000e-01    3.380000e+00
 SP1dq   X2e  1 4.300000e-01    3.160000e+00
 SP1dq   X1e  1 4.300000e-01    2.920000e+00
 SN6dq   C6e  1 4.300000e-01    3.590000e+00
 SN6dq   C5e  1 4.300000e-01    3.380000e+00
 SN6dq   C4e  1 4.300000e-01    3.160000e+00
 SN6dq   C3e  1 4.300000e-01    2.920000e+00
 SN6dq   C2e  1 4.300000e-01    2.920000e+00
 SN6dq   C1e  1 4.300000e-01    2.770000e+00
 SN6dq   X4e  1 4.300000e-01    3.590000e+00
 SN6dq   X3e  1 4.300000e-01    3.380000e+00
 SN6dq   X2e  1 4.300000e-01    3.160000e+00
 SN6dq   X1e  1 4.300000e-01    2.920000e+00
 SN5dq   C6e  1 4.300000e-01    3.590000e+00
 SN5dq   C5e  1 4.300000e-01    3.380000e+00
 SN5dq   C4e  1 4.300000e-01    3.160000e+00
 SN5dq   C3e  1 4.300000e-01    3.160000e+00
 SN5dq   C2e  1 4.300000e-01    2.920000e+00
 SN5dq   C1e  1 4.300000e-01    2.770000e+00
 SN5dq   X4e  1 4.300000e-01    3.770000e+00
 SN5dq   X3e  1 4.300000e-01    3.590000e+00
 SN5dq   X2e  1 4.300000e-01    3.380000e+00
 SN5dq   X1e  1 4.300000e-01    3.160000e+00
 SN4dq   C6e  1 4.300000e-01    3.590000e+00
 SN4dq   C5e  1 4.300000e-01    3.380000e+00
 SN4dq   C4e  1 4.300000e-01    3.380000e+00
 SN4dq   C3e  1 4.300000e-01    3.160000e+00
 SN4dq   C2e  1 4.300000e-01    2.920000e+00
 SN4dq   C1e  1 4.300000e-01    2.770000e+00
 SN4dq   X4e  1 4.300000e-01    3.970000e+00
 SN4dq   X3e  1 4.300000e-01    3.770000e+00
 SN4dq   X2e  1 4.300000e-01    3.380000e+00
 SN4dq   X1e  1 4.300000e-01    3.160000e+00
 SN3dq   C6e  1 4.300000e-01    3.590000e+00
 SN3dq   C5e  1 4.300000e-01    3.380000e+00
 SN3dq   C4e  1 4.300000e-01    3.380000e+00
 SN3dq   C3e  1 4.300000e-01    3.160000e+00
 SN3dq   C2e  1 4.300000e-01    3.160000e+00
 SN3dq   C1e  1 4.300000e-01    2.920000e+00
 SN3dq   X4e  1 4.300000e-01    3.770000e+00
 SN3dq   X3e  1 4.300000e-01    3.590000e+00
 SN3dq   X2e  1 4.300000e-01    3.380000e+00
 SN3dq   X1e  1 4.300000e-01    3.380000e+00
 SN2dq   C6e  1 4.300000e-01    3.590000e+00
 SN2dq   C5e  1 4.300000e-01    3.380000e+00
 SN2dq   C4e  1 4.300000e-01    3.380000e+00
 SN2dq   C3e  1 4.300000e-01    3.380000e+00
 SN2dq   C2e  1 4.300000e-01    3.160000e+00
 SN2dq   C1e  1 4.300000e-01    2.920000e+00
 SN2dq   X4e  1 4.300000e-01    3.770000e+00
 SN2dq   X3e  1 4.300000e-01    3.590000e+00
 SN2dq   X2e  1 4.300000e-01    3.380000e+00
 SN2dq   X1e  1 4.300000e-01    3.380000e+00
 SN1dq   C6e  1 4.300000e-01    3.770000e+00
 SN1dq   C5e  1 4.300000e-01    3.590000e+00
 SN1dq   C4e  1 4.300000e-01    3.590000e+00
 SN1dq   C3e  1 4.300000e-01    3.380000e+00
 SN1dq   C2e  1 4.300000e-01    3.160000e+00
 SN1dq   C1e  1 4.300000e-01    2.920000e+00
 SN1dq   X4e  1 4.300000e-01    3.590000e+00
 SN1dq   X3e  1 4.300000e-01    3.590000e+00
 SN1dq   X2e  1 4.300000e-01    3.380000e+00
 SN1dq   X1e  1 4.300000e-01    3.380000e+00
  P6dq SC6eq  1 4.300000e-01    2.920000e+00
  P6dq SC5eq  1 4.300000e-01    2.770000e+00
  P6dq SC4eq  1 4.300000e-01    2.530000e+00
  P6dq SC3eq  1 4.300000e-01    2.320000e+00
  P6dq SC2eq  1 4.300000e-01    2.320000e+00
  P6dq SC1eq  1 4.300000e-01    1.930000e+00
  P6dq SX4eq  1 4.300000e-01    3.160000e+00
  P6dq SX3eq  1 4.300000e-01    3.160000e+00
  P6dq SX2eq  1 4.300000e-01    2.920000e+00
  P6dq SX1eq  1 4.300000e-01    2.770000e+00
  P5dq SC6eq  1 4.300000e-01    2.920000e+00
  P5dq SC5eq  1 4.300000e-01    2.920000e+00
  P5dq SC4eq  1 4.300000e-01    2.770000e+00
  P5dq SC3eq  1 4.300000e-01    2.530000e+00
  P5dq SC2eq  1 4.300000e-01    2.530000e+00
  P5dq SC1eq  1 4.300000e-01    2.320000e+00
  P5dq SX4eq  1 4.300000e-01    3.380000e+00
  P5dq SX3eq  1 4.300000e-01    3.160000e+00
  P5dq SX2eq  1 4.300000e-01    3.160000e+00
  P5dq SX1eq  1 4.300000e-01    2.770000e+00
  P4dq SC6eq  1 4.300000e-01    3.160000e+00
  P4dq SC5eq  1 4.300000e-01    2.920000e+00
  P4dq SC4eq  1 4.300000e-01    2.770000e+00
  P4dq SC3eq  1 4.300000e-01    2.530000e+00
  P4dq SC2eq  1 4.300000e-01    2.530000e+00
  P4dq SC1eq  1 4.300000e-01    2.320000e+00
  P4dq SX4eq  1 4.300000e-01    3.380000e+00
  P4dq SX3eq  1 4.300000e-01    3.160000e+00
  P4dq SX2eq  1 4.300000e-01    3.160000e+00
  P4dq SX1eq  1 4.300000e-01    2.920000e+00
  P3dq SC6eq  1 4.300000e-01    3.380000e+00
  P3dq SC5eq  1 4.300000e-01    3.160000e+00
  P3dq SC4eq  1 4.300000e-01    2.920000e+00
  P3dq SC3eq  1 4.300000e-01    2.530000e+00
  P3dq SC2eq  1 4.300000e-01    2.530000e+00
  P3dq SC1eq  1 4.300000e-01    2.320000e+00
  P3dq SX4eq  1 4.300000e-01    3.380000e+00
  P3dq SX3eq  1 4.300000e-01    3.380000e+00
  P3dq SX2eq  1 4.300000e-01    3.160000e+00
  P3dq SX1eq  1 4.300000e-01    2.920000e+00
  P2dq SC6eq  1 4.300000e-01    3.380000e+00
  P2dq SC5eq  1 4.300000e-01    3.160000e+00
  P2dq SC4eq  1 4.300000e-01    2.920000e+00
  P2dq SC3eq  1 4.300000e-01    2.770000e+00
  P2dq SC2eq  1 4.300000e-01    2.770000e+00
  P2dq SC1eq  1 4.300000e-01    2.530000e+00
  P2dq SX4eq  1 4.300000e-01    3.380000e+00
  P2dq SX3eq  1 4.300000e-01    3.380000e+00
  P2dq SX2eq  1 4.300000e-01    3.160000e+00
  P2dq SX1eq  1 4.300000e-01    2.920000e+00
  P1dq SC6eq  1 4.300000e-01    3.380000e+00
  P1dq SC5eq  1 4.300000e-01    3.160000e+00
  P1dq SC4eq  1 4.300000e-01    2.920000e+00
  P1dq SC3eq  1 4.300000e-01    2.770000e+00
  P1dq SC2eq  1 4.300000e-01    2.770000e+00
  P1dq SC1eq  1 4.300000e-01    2.530000e+00
  P1dq SX4eq  1 4.300000e-01    3.380000e+00
  P1dq SX3eq  1 4.300000e-01    3.380000e+00
  P1dq SX2eq  1 4.300000e-01    3.160000e+00
  P1dq SX1eq  1 4.300000e-01    2.920000e+00
  N6dq SC6eq  1 4.300000e-01    3.590000e+00
  N6dq SC5eq  1 4.300000e-01    3.380000e+00
  N6dq SC4eq  1 4.300000e-01    3.160000e+00
  N6dq SC3eq  1 4.300000e-01    2.920000e+00
  N6dq SC2eq  1 4.300000e-01    2.920000e+00
  N6dq SC1eq  1 4.300000e-01    2.770000e+00
  N6dq SX4eq  1 4.300000e-01    3.590000e+00
  N6dq SX3eq  1 4.300000e-01    3.380000e+00
  N6dq SX2eq  1 4.300000e-01    3.160000e+00
  N6dq SX1eq  1 4.300000e-01    2.920000e+00
  N5dq SC6eq  1 4.300000e-01    3.590000e+00
  N5dq SC5eq  1 4.300000e-01    3.380000e+00
  N5dq SC4eq  1 4.300000e-01    3.160000e+00
  N5dq SC3eq  1 4.300000e-01    3.160000e+00
  N5dq SC2eq  1 4.300000e-01    2.920000e+00
  N5dq SC1eq  1 4.300000e-01    2.770000e+00
  N5dq SX4eq  1 4.300000e-01    3.770000e+00
  N5dq SX3eq  1 4.300000e-01    3.590000e+00
  N5dq SX2eq  1 4.300000e-01    3.380000e+00
  N5dq SX1eq  1 4.300000e-01    3.160000e+00
  N4dq SC6eq  1 4.300000e-01    3.590000e+00
  N4dq SC5eq  1 4.300000e-01    3.380000e+00
  N4dq SC4eq  1 4.300000e-01    3.380000e+00
  N4dq SC3eq  1 4.300000e-01    3.160000e+00
  N4dq SC2eq  1 4.300000e-01    2.920000e+00
  N4dq SC1eq  1 4.300000e-01    2.770000e+00
  N4dq SX4eq  1 4.300000e-01    3.970000e+00
  N4dq SX3eq  1 4.300000e-01    3.770000e+00
  N4dq SX2eq  1 4.300000e-01    3.380000e+00
  N4dq SX1eq  1 4.300000e-01    3.160000e+00
  N3dq SC6eq  1 4.300000e-01    3.590000e+00
  N3dq SC5eq  1 4.300000e-01    3.380000e+00
  N3dq SC4eq  1 4.300000e-01    3.380000e+00
  N3dq SC3eq  1 4.300000e-01    3.160000e+00
  N3dq SC2eq  1 4.300000e-01    3.160000e+00
  N3dq SC1eq  1 4.300000e-01    2.920000e+00
  N3dq SX4eq  1 4.300000e-01    3.770000e+00
  N3dq SX3eq  1 4.300000e-01    3.590000e+00
  N3dq SX2eq  1 4.300000e-01    3.380000e+00
  N3dq SX1eq  1 4.300000e-01    3.380000e+00
  N2dq SC6eq  1 4.300000e-01    3.590000e+00
  N2dq SC5eq  1 4.300000e-01    3.380000e+00
  N2dq SC4eq  1 4.300000e-01    3.380000e+00
  N2dq SC3eq  1 4.300000e-01    3.380000e+00
  N2dq SC2eq  1 4.300000e-01    3.160000e+00
  N2dq SC1eq  1 4.300000e-01    2.920000e+00
  N2dq SX4eq  1 4.300000e-01    3.770000e+00
  N2dq SX3eq  1 4.300000e-01    3.590000e+00
  N2dq SX2eq  1 4.300000e-01    3.380000e+00
  N2dq SX1eq  1 4.300000e-01    3.380000e+00
  N1dq SC6eq  1 4.300000e-01    3.770000e+00
  N1dq SC5eq  1 4.300000e-01    3.590000e+00
  N1dq SC4eq  1 4.300000e-01    3.590000e+00
  N1dq SC3eq  1 4.300000e-01    3.380000e+00
  N1dq SC2eq  1 4.300000e-01    3.160000e+00
  N1dq SC1eq  1 4.300000e-01    2.920000e+00
  N1dq SX4eq  1 4.300000e-01    3.590000e+00
  N1dq SX3eq  1 4.300000e-01    3.590000e+00
  N1dq SX2eq  1 4.300000e-01    3.380000e+00
  N1dq SX1eq  1 4.300000e-01    3.380000e+00
 SP6dq  C6eq  1 4.300000e-01    2.920000e+00
 SP6dq  C5eq  1 4.300000e-01    2.770000e+00
 SP6dq  C4eq  1 4.300000e-01    2.530000e+00
 SP6dq  C3eq  1 4.300000e-01    2.320000e+00
 SP6dq  C2eq  1 4.300000e-01    2.320000e+00
 SP6dq  C1eq  1 4.300000e-01    1.930000e+00
 SP6dq  X4eq  1 4.300000e-01    3.160000e+00
 SP6dq  X3eq  1 4.300000e-01    3.160000e+00
 SP6dq  X2eq  1 4.300000e-01    2.920000e+00
 SP6dq  X1eq  1 4.300000e-01    2.770000e+00
 SP5dq  C6eq  1 4.300000e-01    2.920000e+00
 SP5dq  C5eq  1 4.300000e-01    2.920000e+00
 SP5dq  C4eq  1 4.300000e-01    2.770000e+00
 SP5dq  C3eq  1 4.300000e-01    2.530000e+00
 SP5dq  C2eq  1 4.300000e-01    2.530000e+00
 SP5dq  C1eq  1 4.300000e-01    2.320000e+00
 SP5dq  X4eq  1 4.300000e-01    3.380000e+00
 SP5dq  X3eq  1 4.300000e-01    3.160000e+00
 SP5dq  X2eq  1 4.300000e-01    3.160000e+00
 SP5dq  X1eq  1 4.300000e-01    2.770000e+00
 SP4dq  C6eq  1 4.300000e-01    3.160000e+00
 SP4dq  C5eq  1 4.300000e-01    2.920000e+00
 SP4dq  C4eq  1 4.300000e-01    2.770000e+00
 SP4dq  C3eq  1 4.300000e-01    2.530000e+00
 SP4dq  C2eq  1 4.300000e-01    2.530000e+00
 SP4dq  C1eq  1 4.300000e-01    2.320000e+00
 SP4dq  X4eq  1 4.300000e-01    3.380000e+00
 SP4dq  X3eq  1 4.300000e-01    3.160000e+00
 SP4dq  X2eq  1 4.300000e-01    3.160000e+00
 SP4dq  X1eq  1 4.300000e-01    2.920000e+00
 SP3dq  C6eq  1 4.300000e-01    3.380000e+00
 SP3dq  C5eq  1 4.300000e-01    3.160000e+00
 SP3dq  C4eq  1 4.300000e-01    2.920000e+00
 SP3dq  C3eq  1 4.300000e-01    2.530000e+00
 SP3dq  C2eq  1 4.300000e-01    2.530000e+00
 SP3dq  C1eq  1 4.300000e-01    2.320000e+00
 SP3dq  X4eq  1 4.300000e-01    3.380000e+00
 SP3dq  X3eq  1 4.300000e-01    3.380000e+00
 SP3dq  X2eq  1 4.300000e-01    3.160000e+00
 SP3dq  X1eq  1 4.300000e-01    2.920000e+00
 SP2dq  C6eq  1 4.300000e-01    3.380000e+00
 SP2dq  C5eq  1 4.300000e-01    3.160000e+00
 SP2dq  C4eq  1 4.300000e-01    2.920000e+00
 SP2dq  C3eq  1 4.300000e-01    2.770000e+00
 SP2dq  C2eq  1 4.300000e-01    2.770000e+00
 SP2dq  C1eq  1 4.300000e-01    2.530000e+00
 SP2dq  X4eq  1 4.300000e-01    3.380000e+00
 SP2dq  X3eq  1 4.300000e-01    3.380000e+00
 SP2dq  X2eq  1 4.300000e-01    3.160000e+00
 SP2dq  X1eq  1 4.300000e-01    2.920000e+00
 SP1dq  C6eq  1 4.300000e-01    3.380000e+00
 SP1dq  C5eq  1 4.300000e-01    3.160000e+00
 SP1dq  C4eq  1 4.300000e-01    2.920000e+00
 SP1dq  C3eq  1 4.300000e-01    2.770000e+00
 SP1dq  C2eq  1 4.300000e-01    2.770000e+00
 SP1dq  C1eq  1 4.300000e-01    2.530000e+00
 SP1dq  X4eq  1 4.300000e-01    3.380000e+00
 SP1dq  X3eq  1 4.300000e-01    3.380000e+00
 SP1dq  X2eq  1 4.300000e-01    3.160000e+00
 SP1dq  X1eq  1 4.300000e-01    2.920000e+00
 SN6dq  C6eq  1 4.300000e-01    3.590000e+00
 SN6dq  C5eq  1 4.300000e-01    3.380000e+00
 SN6dq  C4eq  1 4.300000e-01    3.160000e+00
 SN6dq  C3eq  1 4.300000e-01    2.920000e+00
 SN6dq  C2eq  1 4.300000e-01    2.920000e+00
 SN6dq  C1eq  1 4.300000e-01    2.770000e+00
 SN6dq  X4eq  1 4.300000e-01    3.590000e+00
 SN6dq  X3eq  1 4.300000e-01    3.380000e+00
 SN6dq  X2eq  1 4.300000e-01    3.160000e+00
 SN6dq  X1eq  1 4.300000e-01    2.920000e+00
 SN5dq  C6eq  1 4.300000e-01    3.590000e+00
 SN5dq  C5eq  1 4.300000e-01    3.380000e+00
 SN5dq  C4eq  1 4.300000e-01    3.160000e+00
 SN5dq  C3eq  1 4.300000e-01    3.160000e+00
 SN5dq  C2eq  1 4.300000e-01    2.920000e+00
 SN5dq  C1eq  1 4.300000e-01    2.770000e+00
 SN5dq  X4eq  1 4.300000e-01    3.770000e+00
 SN5dq  X3eq  1 4.300000e-01    3.590000e+00
 SN5dq  X2eq  1 4.300000e-01    3.380000e+00
 SN5dq  X1eq  1 4.300000e-01    3.160000e+00
 SN4dq  C6eq  1 4.300000e-01    3.590000e+00
 SN4dq  C5eq  1 4.300000e-01    3.380000e+00
 SN4dq  C4eq  1 4.300000e-01    3.380000e+00
 SN4dq  C3eq  1 4.300000e-01    3.160000e+00
 SN4dq  C2eq  1 4.300000e-01    2.920000e+00
 SN4dq  C1eq  1 4.300000e-01    2.770000e+00
 SN4dq  X4eq  1 4.300000e-01    3.970000e+00
 SN4dq  X3eq  1 4.300000e-01    3.770000e+00
 SN4dq  X2eq  1 4.300000e-01    3.380000e+00
 SN4dq  X1eq  1 4.300000e-01    3.160000e+00
 SN3dq  C6eq  1 4.300000e-01    3.590000e+00
 SN3dq  C5eq  1 4.300000e-01    3.380000e+00
 SN3dq  C4eq  1 4.300000e-01    3.380000e+00
 SN3dq  C3eq  1 4.300000e-01    3.160000e+00
 SN3dq  C2eq  1 4.300000e-01    3.160000e+00
 SN3dq  C1eq  1 4.300000e-01    2.920000e+00
 SN3dq  X4eq  1 4.300000e-01    3.770000e+00
 SN3dq  X3eq  1 4.300000e-01    3.590000e+00
 SN3dq  X2eq  1 4.300000e-01    3.380000e+00
 SN3dq  X1eq  1 4.300000e-01    3.380000e+00
 SN2dq  C6eq  1 4.300000e-01    3.590000e+00
 SN2dq  C5eq  1 4.300000e-01    3.380000e+00
 SN2dq  C4eq  1 4.300000e-01    3.380000e+00
 SN2dq  C3eq  1 4.300000e-01    3.380000e+00
 SN2dq  C2eq  1 4.300000e-01    3.160000e+00
 SN2dq  C1eq  1 4.300000e-01    2.920000e+00
 SN2dq  X4eq  1 4.300000e-01    3.770000e+00
 SN2dq  X3eq  1 4.300000e-01    3.590000e+00
 SN2dq  X2eq  1 4.300000e-01    3.380000e+00
 SN2dq  X1eq  1 4.300000e-01    3.380000e+00
 SN1dq  C6eq  1 4.300000e-01    3.770000e+00
 SN1dq  C5eq  1 4.300000e-01    3.590000e+00
 SN1dq  C4eq  1 4.300000e-01    3.590000e+00
 SN1dq  C3eq  1 4.300000e-01    3.380000e+00
 SN1dq  C2eq  1 4.300000e-01    3.160000e+00
 SN1dq  C1eq  1 4.300000e-01    2.920000e+00
 SN1dq  X4eq  1 4.300000e-01    3.590000e+00
 SN1dq  X3eq  1 4.300000e-01    3.590000e+00
 SN1dq  X2eq  1 4.300000e-01    3.380000e+00
 SN1dq  X1eq  1 4.300000e-01    3.380000e+00
  P6dq SC6eh  1 4.300000e-01    2.920000e+00
  P5dq SC6eh  1 4.300000e-01    2.920000e+00
  P4dq SC6eh  1 4.300000e-01    3.160000e+00
  P3dq SC6eh  1 4.300000e-01    3.380000e+00
  P2dq SC6eh  1 4.300000e-01    3.380000e+00
  P1dq SC6eh  1 4.300000e-01    3.380000e+00
  N6dq SC6eh  1 4.300000e-01    3.590000e+00
  N5dq SC6eh  1 4.300000e-01    3.590000e+00
  N4dq SC6eh  1 4.300000e-01    3.590000e+00
  N3dq SC6eh  1 4.300000e-01    3.590000e+00
  N2dq SC6eh  1 4.300000e-01    3.590000e+00
  N1dq SC6eh  1 4.300000e-01    3.770000e+00
  P6dq SC5eh  1 4.300000e-01    2.770000e+00
  P5dq SC5eh  1 4.300000e-01    2.920000e+00
  P4dq SC5eh  1 4.300000e-01    2.920000e+00
  P3dq SC5eh  1 4.300000e-01    3.160000e+00
  P2dq SC5eh  1 4.300000e-01    3.160000e+00
  P1dq SC5eh  1 4.300000e-01    3.160000e+00
  N6dq SC5eh  1 4.300000e-01    3.380000e+00
  N5dq SC5eh  1 4.300000e-01    3.380000e+00
  N4dq SC5eh  1 4.300000e-01    3.380000e+00
  N3dq SC5eh  1 4.300000e-01    3.380000e+00
  N2dq SC5eh  1 4.300000e-01    3.380000e+00
  N1dq SC5eh  1 4.300000e-01    3.590000e+00
  P6dq SC4eh  1 4.300000e-01    2.530000e+00
  P5dq SC4eh  1 4.300000e-01    2.770000e+00
  P4dq SC4eh  1 4.300000e-01    2.770000e+00
  P3dq SC4eh  1 4.300000e-01    2.920000e+00
  P2dq SC4eh  1 4.300000e-01    2.920000e+00
  P1dq SC4eh  1 4.300000e-01    2.920000e+00
  N6dq SC4eh  1 4.300000e-01    3.160000e+00
  N5dq SC4eh  1 4.300000e-01    3.160000e+00
  N4dq SC4eh  1 4.300000e-01    3.380000e+00
  N3dq SC4eh  1 4.300000e-01    3.380000e+00
  N2dq SC4eh  1 4.300000e-01    3.380000e+00
  N1dq SC4eh  1 4.300000e-01    3.590000e+00
  P6dq SC3eh  1 4.300000e-01    2.320000e+00
  P5dq SC3eh  1 4.300000e-01    2.530000e+00
  P4dq SC3eh  1 4.300000e-01    2.530000e+00
  P3dq SC3eh  1 4.300000e-01    2.530000e+00
  P2dq SC3eh  1 4.300000e-01    2.770000e+00
  P1dq SC3eh  1 4.300000e-01    2.770000e+00
  N6dq SC3eh  1 4.300000e-01    2.920000e+00
  N5dq SC3eh  1 4.300000e-01    3.160000e+00
  N4dq SC3eh  1 4.300000e-01    3.160000e+00
  N3dq SC3eh  1 4.300000e-01    3.160000e+00
  N2dq SC3eh  1 4.300000e-01    3.380000e+00
  N1dq SC3eh  1 4.300000e-01    3.380000e+00
  P6dq SC2eh  1 4.300000e-01    2.320000e+00
  P5dq SC2eh  1 4.300000e-01    2.530000e+00
  P4dq SC2eh  1 4.300000e-01    2.530000e+00
  P3dq SC2eh  1 4.300000e-01    2.530000e+00
  P2dq SC2eh  1 4.300000e-01    2.770000e+00
  P1dq SC2eh  1 4.300000e-01    2.770000e+00
  N6dq SC2eh  1 4.300000e-01    2.920000e+00
  N5dq SC2eh  1 4.300000e-01    2.920000e+00
  N4dq SC2eh  1 4.300000e-01    2.920000e+00
  N3dq SC2eh  1 4.300000e-01    3.160000e+00
  N2dq SC2eh  1 4.300000e-01    3.160000e+00
  N1dq SC2eh  1 4.300000e-01    3.160000e+00
  P6dq SC1eh  1 4.300000e-01    1.930000e+00
  P5dq SC1eh  1 4.300000e-01    2.320000e+00
  P4dq SC1eh  1 4.300000e-01    2.320000e+00
  P3dq SC1eh  1 4.300000e-01    2.320000e+00
  P2dq SC1eh  1 4.300000e-01    2.530000e+00
  P1dq SC1eh  1 4.300000e-01    2.530000e+00
  N6dq SC1eh  1 4.300000e-01    2.770000e+00
  N5dq SC1eh  1 4.300000e-01    2.770000e+00
  N4dq SC1eh  1 4.300000e-01    2.770000e+00
  N3dq SC1eh  1 4.300000e-01    2.920000e+00
  N2dq SC1eh  1 4.300000e-01    2.920000e+00
  N1dq SC1eh  1 4.300000e-01    2.920000e+00
  P6dq SX4eh  1 4.300000e-01    3.160000e+00
  P5dq SX4eh  1 4.300000e-01    3.380000e+00
  P4dq SX4eh  1 4.300000e-01    3.380000e+00
  P3dq SX4eh  1 4.300000e-01    3.380000e+00
  P2dq SX4eh  1 4.300000e-01    3.380000e+00
  P1dq SX4eh  1 4.300000e-01    3.380000e+00
  N6dq SX4eh  1 4.300000e-01    3.590000e+00
  N5dq SX4eh  1 4.300000e-01    3.770000e+00
  N4dq SX4eh  1 4.300000e-01    3.970000e+00
  N3dq SX4eh  1 4.300000e-01    3.770000e+00
  N2dq SX4eh  1 4.300000e-01    3.770000e+00
  N1dq SX4eh  1 4.300000e-01    3.590000e+00
  P6dq SX3eh  1 4.300000e-01    3.160000e+00
  P5dq SX3eh  1 4.300000e-01    3.160000e+00
  P4dq SX3eh  1 4.300000e-01    3.160000e+00
  P3dq SX3eh  1 4.300000e-01    3.380000e+00
  P2dq SX3eh  1 4.300000e-01    3.380000e+00
  P1dq SX3eh  1 4.300000e-01    3.380000e+00
  N6dq SX3eh  1 4.300000e-01    3.380000e+00
  N5dq SX3eh  1 4.300000e-01    3.590000e+00
  N4dq SX3eh  1 4.300000e-01    3.770000e+00
  N3dq SX3eh  1 4.300000e-01    3.590000e+00
  N2dq SX3eh  1 4.300000e-01    3.590000e+00
  N1dq SX3eh  1 4.300000e-01    3.590000e+00
  P6dq SX2eh  1 4.300000e-01    2.920000e+00
  P5dq SX2eh  1 4.300000e-01    3.160000e+00
  P4dq SX2eh  1 4.300000e-01    3.160000e+00
  P3dq SX2eh  1 4.300000e-01    3.160000e+00
  P2dq SX2eh  1 4.300000e-01    3.160000e+00
  P1dq SX2eh  1 4.300000e-01    3.160000e+00
  N6dq SX2eh  1 4.300000e-01    3.160000e+00
  N5dq SX2eh  1 4.300000e-01    3.380000e+00
  N4dq SX2eh  1 4.300000e-01    3.380000e+00
  N3dq SX2eh  1 4.300000e-01    3.380000e+00
  N2dq SX2eh  1 4.300000e-01    3.380000e+00
  N1dq SX2eh  1 4.300000e-01    3.380000e+00
  P6dq SX1eh  1 4.300000e-01    2.770000e+00
  P5dq SX1eh  1 4.300000e-01    2.770000e+00
  P4dq SX1eh  1 4.300000e-01    2.920000e+00
  P3dq SX1eh  1 4.300000e-01    2.920000e+00
  P2dq SX1eh  1 4.300000e-01    2.920000e+00
  P1dq SX1eh  1 4.300000e-01    2.920000e+00
  N6dq SX1eh  1 4.300000e-01    2.920000e+00
  N5dq SX1eh  1 4.300000e-01    3.160000e+00
  N4dq SX1eh  1 4.300000e-01    3.160000e+00
  N3dq SX1eh  1 4.300000e-01    3.380000e+00
  N2dq SX1eh  1 4.300000e-01    3.380000e+00
  N1dq SX1eh  1 4.300000e-01    3.380000e+00
 SP6dq  C6eh  1 4.300000e-01    2.920000e+00
 SP5dq  C6eh  1 4.300000e-01    2.920000e+00
 SP4dq  C6eh  1 4.300000e-01    3.160000e+00
 SP3dq  C6eh  1 4.300000e-01    3.380000e+00
 SP2dq  C6eh  1 4.300000e-01    3.380000e+00
 SP1dq  C6eh  1 4.300000e-01    3.380000e+00
 SN6dq  C6eh  1 4.300000e-01    3.590000e+00
 SN5dq  C6eh  1 4.300000e-01    3.590000e+00
 SN4dq  C6eh  1 4.300000e-01    3.590000e+00
 SN3dq  C6eh  1 4.300000e-01    3.590000e+00
 SN2dq  C6eh  1 4.300000e-01    3.590000e+00
 SN1dq  C6eh  1 4.300000e-01    3.770000e+00
 SP6dq  C5eh  1 4.300000e-01    2.770000e+00
 SP5dq  C5eh  1 4.300000e-01    2.920000e+00
 SP4dq  C5eh  1 4.300000e-01    2.920000e+00
 SP3dq  C5eh  1 4.300000e-01    3.160000e+00
 SP2dq  C5eh  1 4.300000e-01    3.160000e+00
 SP1dq  C5eh  1 4.300000e-01    3.160000e+00
 SN6dq  C5eh  1 4.300000e-01    3.380000e+00
 SN5dq  C5eh  1 4.300000e-01    3.380000e+00
 SN4dq  C5eh  1 4.300000e-01    3.380000e+00
 SN3dq  C5eh  1 4.300000e-01    3.380000e+00
 SN2dq  C5eh  1 4.300000e-01    3.380000e+00
 SN1dq  C5eh  1 4.300000e-01    3.590000e+00
 SP6dq  C4eh  1 4.300000e-01    2.530000e+00
 SP5dq  C4eh  1 4.300000e-01    2.770000e+00
 SP4dq  C4eh  1 4.300000e-01    2.770000e+00
 SP3dq  C4eh  1 4.300000e-01    2.920000e+00
 SP2dq  C4eh  1 4.300000e-01    2.920000e+00
 SP1dq  C4eh  1 4.300000e-01    2.920000e+00
 SN6dq  C4eh  1 4.300000e-01    3.160000e+00
 SN5dq  C4eh  1 4.300000e-01    3.160000e+00
 SN4dq  C4eh  1 4.300000e-01    3.380000e+00
 SN3dq  C4eh  1 4.300000e-01    3.380000e+00
 SN2dq  C4eh  1 4.300000e-01    3.380000e+00
 SN1dq  C4eh  1 4.300000e-01    3.590000e+00
 SP6dq  C3eh  1 4.300000e-01    2.320000e+00
 SP5dq  C3eh  1 4.300000e-01    2.530000e+00
 SP4dq  C3eh  1 4.300000e-01    2.530000e+00
 SP3dq  C3eh  1 4.300000e-01    2.530000e+00
 SP2dq  C3eh  1 4.300000e-01    2.770000e+00
 SP1dq  C3eh  1 4.300000e-01    2.770000e+00
 SN6dq  C3eh  1 4.300000e-01    2.920000e+00
 SN5dq  C3eh  1 4.300000e-01    3.160000e+00
 SN4dq  C3eh  1 4.300000e-01    3.160000e+00
 SN3dq  C3eh  1 4.300000e-01    3.160000e+00
 SN2dq  C3eh  1 4.300000e-01    3.380000e+00
 SN1dq  C3eh  1 4.300000e-01    3.380000e+00
 SP6dq  C2eh  1 4.300000e-01    2.320000e+00
 SP5dq  C2eh  1 4.300000e-01    2.530000e+00
 SP4dq  C2eh  1 4.300000e-01    2.530000e+00
 SP3dq  C2eh  1 4.300000e-01    2.530000e+00
 SP2dq  C2eh  1 4.300000e-01    2.770000e+00
 SP1dq  C2eh  1 4.300000e-01    2.770000e+00
 SN6dq  C2eh  1 4.300000e-01    2.920000e+00
 SN5dq  C2eh  1 4.300000e-01    2.920000e+00
 SN4dq  C2eh  1 4.300000e-01    2.920000e+00
 SN3dq  C2eh  1 4.300000e-01    3.160000e+00
 SN2dq  C2eh  1 4.300000e-01    3.160000e+00
 SN1dq  C2eh  1 4.300000e-01    3.160000e+00
 SP6dq  C1eh  1 4.300000e-01    1.930000e+00
 SP5dq  C1eh  1 4.300000e-01    2.320000e+00
 SP4dq  C1eh  1 4.300000e-01    2.320000e+00
 SP3dq  C1eh  1 4.300000e-01    2.320000e+00
 SP2dq  C1eh  1 4.300000e-01    2.530000e+00
 SP1dq  C1eh  1 4.300000e-01    2.530000e+00
 SN6dq  C1eh  1 4.300000e-01    2.770000e+00
 SN5dq  C1eh  1 4.300000e-01    2.770000e+00
 SN4dq  C1eh  1 4.300000e-01    2.770000e+00
 SN3dq  C1eh  1 4.300000e-01    2.920000e+00
 SN2dq  C1eh  1 4.300000e-01    2.920000e+00
 SN1dq  C1eh  1 4.300000e-01    2.920000e+00
 SP6dq  X4eh  1 4.300000e-01    3.160000e+00
 SP5dq  X4eh  1 4.300000e-01    3.380000e+00
 SP4dq  X4eh  1 4.300000e-01    3.380000e+00
 SP3dq  X4eh  1 4.300000e-01    3.380000e+00
 SP2dq  X4eh  1 4.300000e-01    3.380000e+00
 SP1dq  X4eh  1 4.300000e-01    3.380000e+00
 SN6dq  X4eh  1 4.300000e-01    3.590000e+00
 SN5dq  X4eh  1 4.300000e-01    3.770000e+00
 SN4dq  X4eh  1 4.300000e-01    3.970000e+00
 SN3dq  X4eh  1 4.300000e-01    3.770000e+00
 SN2dq  X4eh  1 4.300000e-01    3.770000e+00
 SN1dq  X4eh  1 4.300000e-01    3.590000e+00
 SP6dq  X3eh  1 4.300000e-01    3.160000e+00
 SP5dq  X3eh  1 4.300000e-01    3.160000e+00
 SP4dq  X3eh  1 4.300000e-01    3.160000e+00
 SP3dq  X3eh  1 4.300000e-01    3.380000e+00
 SP2dq  X3eh  1 4.300000e-01    3.380000e+00
 SP1dq  X3eh  1 4.300000e-01    3.380000e+00
 SN6dq  X3eh  1 4.300000e-01    3.380000e+00
 SN5dq  X3eh  1 4.300000e-01    3.590000e+00
 SN4dq  X3eh  1 4.300000e-01    3.770000e+00
 SN3dq  X3eh  1 4.300000e-01    3.590000e+00
 SN2dq  X3eh  1 4.300000e-01    3.590000e+00
 SN1dq  X3eh  1 4.300000e-01    3.590000e+00
 SP6dq  X2eh  1 4.300000e-01    2.920000e+00
 SP5dq  X2eh  1 4.300000e-01    3.160000e+00
 SP4dq  X2eh  1 4.300000e-01    3.160000e+00
 SP3dq  X2eh  1 4.300000e-01    3.160000e+00
 SP2dq  X2eh  1 4.300000e-01    3.160000e+00
 SP1dq  X2eh  1 4.300000e-01    3.160000e+00
 SN6dq  X2eh  1 4.300000e-01    3.160000e+00
 SN5dq  X2eh  1 4.300000e-01    3.380000e+00
 SN4dq  X2eh  1 4.300000e-01    3.380000e+00
 SN3dq  X2eh  1 4.300000e-01    3.380000e+00
 SN2dq  X2eh  1 4.300000e-01    3.380000e+00
 SN1dq  X2eh  1 4.300000e-01    3.380000e+00
 SP6dq  X1eh  1 4.300000e-01    2.770000e+00
 SP5dq  X1eh  1 4.300000e-01    2.770000e+00
 SP4dq  X1eh  1 4.300000e-01    2.920000e+00
 SP3dq  X1eh  1 4.300000e-01    2.920000e+00
 SP2dq  X1eh  1 4.300000e-01    2.920000e+00
 SP1dq  X1eh  1 4.300000e-01    2.920000e+00
 SN6dq  X1eh  1 4.300000e-01    2.920000e+00
 SN5dq  X1eh  1 4.300000e-01    3.160000e+00
 SN4dq  X1eh  1 4.300000e-01    3.160000e+00
 SN3dq  X1eh  1 4.300000e-01    3.380000e+00
 SN2dq  X1eh  1 4.300000e-01    3.380000e+00
 SN1dq  X1eh  1 4.300000e-01    3.380000e+00
  P6dq SC6er  1 4.300000e-01    2.920000e+00
  P5dq SC6er  1 4.300000e-01    2.920000e+00
  P4dq SC6er  1 4.300000e-01    3.160000e+00
  P3dq SC6er  1 4.300000e-01    3.380000e+00
  P2dq SC6er  1 4.300000e-01    3.380000e+00
  P1dq SC6er  1 4.300000e-01    3.380000e+00
  N6dq SC6er  1 4.300000e-01    3.590000e+00
  N5dq SC6er  1 4.300000e-01    3.590000e+00
  N4dq SC6er  1 4.300000e-01    3.590000e+00
  N3dq SC6er  1 4.300000e-01    3.590000e+00
  N2dq SC6er  1 4.300000e-01    3.590000e+00
  N1dq SC6er  1 4.300000e-01    3.770000e+00
  P6dq SC5er  1 4.300000e-01    2.770000e+00
  P5dq SC5er  1 4.300000e-01    2.920000e+00
  P4dq SC5er  1 4.300000e-01    2.920000e+00
  P3dq SC5er  1 4.300000e-01    3.160000e+00
  P2dq SC5er  1 4.300000e-01    3.160000e+00
  P1dq SC5er  1 4.300000e-01    3.160000e+00
  N6dq SC5er  1 4.300000e-01    3.380000e+00
  N5dq SC5er  1 4.300000e-01    3.380000e+00
  N4dq SC5er  1 4.300000e-01    3.380000e+00
  N3dq SC5er  1 4.300000e-01    3.380000e+00
  N2dq SC5er  1 4.300000e-01    3.380000e+00
  N1dq SC5er  1 4.300000e-01    3.590000e+00
  P6dq SC4er  1 4.300000e-01    2.530000e+00
  P5dq SC4er  1 4.300000e-01    2.770000e+00
  P4dq SC4er  1 4.300000e-01    2.770000e+00
  P3dq SC4er  1 4.300000e-01    2.920000e+00
  P2dq SC4er  1 4.300000e-01    2.920000e+00
  P1dq SC4er  1 4.300000e-01    2.920000e+00
  N6dq SC4er  1 4.300000e-01    3.160000e+00
  N5dq SC4er  1 4.300000e-01    3.160000e+00
  N4dq SC4er  1 4.300000e-01    3.380000e+00
  N3dq SC4er  1 4.300000e-01    3.380000e+00
  N2dq SC4er  1 4.300000e-01    3.380000e+00
  N1dq SC4er  1 4.300000e-01    3.590000e+00
  P6dq SC3er  1 4.300000e-01    2.320000e+00
  P5dq SC3er  1 4.300000e-01    2.530000e+00
  P4dq SC3er  1 4.300000e-01    2.530000e+00
  P3dq SC3er  1 4.300000e-01    2.530000e+00
  P2dq SC3er  1 4.300000e-01    2.770000e+00
  P1dq SC3er  1 4.300000e-01    2.770000e+00
  N6dq SC3er  1 4.300000e-01    2.920000e+00
  N5dq SC3er  1 4.300000e-01    3.160000e+00
  N4dq SC3er  1 4.300000e-01    3.160000e+00
  N3dq SC3er  1 4.300000e-01    3.160000e+00
  N2dq SC3er  1 4.300000e-01    3.380000e+00
  N1dq SC3er  1 4.300000e-01    3.380000e+00
  P6dq SC2er  1 4.300000e-01    2.320000e+00
  P5dq SC2er  1 4.300000e-01    2.530000e+00
  P4dq SC2er  1 4.300000e-01    2.530000e+00
  P3dq SC2er  1 4.300000e-01    2.530000e+00
  P2dq SC2er  1 4.300000e-01    2.770000e+00
  P1dq SC2er  1 4.300000e-01    2.770000e+00
  N6dq SC2er  1 4.300000e-01    2.920000e+00
  N5dq SC2er  1 4.300000e-01    2.920000e+00
  N4dq SC2er  1 4.300000e-01    2.920000e+00
  N3dq SC2er  1 4.300000e-01    3.160000e+00
  N2dq SC2er  1 4.300000e-01    3.160000e+00
  N1dq SC2er  1 4.300000e-01    3.160000e+00
  P6dq SC1er  1 4.300000e-01    1.930000e+00
  P5dq SC1er  1 4.300000e-01    2.320000e+00
  P4dq SC1er  1 4.300000e-01    2.320000e+00
  P3dq SC1er  1 4.300000e-01    2.320000e+00
  P2dq SC1er  1 4.300000e-01    2.530000e+00
  P1dq SC1er  1 4.300000e-01    2.530000e+00
  N6dq SC1er  1 4.300000e-01    2.770000e+00
  N5dq SC1er  1 4.300000e-01    2.770000e+00
  N4dq SC1er  1 4.300000e-01    2.770000e+00
  N3dq SC1er  1 4.300000e-01    2.920000e+00
  N2dq SC1er  1 4.300000e-01    2.920000e+00
  N1dq SC1er  1 4.300000e-01    2.920000e+00
  P6dq SX4er  1 4.300000e-01    3.160000e+00
  P5dq SX4er  1 4.300000e-01    3.380000e+00
  P4dq SX4er  1 4.300000e-01    3.380000e+00
  P3dq SX4er  1 4.300000e-01    3.380000e+00
  P2dq SX4er  1 4.300000e-01    3.380000e+00
  P1dq SX4er  1 4.300000e-01    3.380000e+00
  N6dq SX4er  1 4.300000e-01    3.590000e+00
  N5dq SX4er  1 4.300000e-01    3.770000e+00
  N4dq SX4er  1 4.300000e-01    3.970000e+00
  N3dq SX4er  1 4.300000e-01    3.770000e+00
  N2dq SX4er  1 4.300000e-01    3.770000e+00
  N1dq SX4er  1 4.300000e-01    3.590000e+00
  P6dq SX3er  1 4.300000e-01    3.160000e+00
  P5dq SX3er  1 4.300000e-01    3.160000e+00
  P4dq SX3er  1 4.300000e-01    3.160000e+00
  P3dq SX3er  1 4.300000e-01    3.380000e+00
  P2dq SX3er  1 4.300000e-01    3.380000e+00
  P1dq SX3er  1 4.300000e-01    3.380000e+00
  N6dq SX3er  1 4.300000e-01    3.380000e+00
  N5dq SX3er  1 4.300000e-01    3.590000e+00
  N4dq SX3er  1 4.300000e-01    3.770000e+00
  N3dq SX3er  1 4.300000e-01    3.590000e+00
  N2dq SX3er  1 4.300000e-01    3.590000e+00
  N1dq SX3er  1 4.300000e-01    3.590000e+00
  P6dq SX2er  1 4.300000e-01    2.920000e+00
  P5dq SX2er  1 4.300000e-01    3.160000e+00
  P4dq SX2er  1 4.300000e-01    3.160000e+00
  P3dq SX2er  1 4.300000e-01    3.160000e+00
  P2dq SX2er  1 4.300000e-01    3.160000e+00
  P1dq SX2er  1 4.300000e-01    3.160000e+00
  N6dq SX2er  1 4.300000e-01    3.160000e+00
  N5dq SX2er  1 4.300000e-01    3.380000e+00
  N4dq SX2er  1 4.300000e-01    3.380000e+00
  N3dq SX2er  1 4.300000e-01    3.380000e+00
  N2dq SX2er  1 4.300000e-01    3.380000e+00
  N1dq SX2er  1 4.300000e-01    3.380000e+00
  P6dq SX1er  1 4.300000e-01    2.770000e+00
  P5dq SX1er  1 4.300000e-01    2.770000e+00
  P4dq SX1er  1 4.300000e-01    2.920000e+00
  P3dq SX1er  1 4.300000e-01    2.920000e+00
  P2dq SX1er  1 4.300000e-01    2.920000e+00
  P1dq SX1er  1 4.300000e-01    2.920000e+00
  N6dq SX1er  1 4.300000e-01    2.920000e+00
  N5dq SX1er  1 4.300000e-01    3.160000e+00
  N4dq SX1er  1 4.300000e-01    3.160000e+00
  N3dq SX1er  1 4.300000e-01    3.380000e+00
  N2dq SX1er  1 4.300000e-01    3.380000e+00
  N1dq SX1er  1 4.300000e-01    3.380000e+00
 SP6dq  C6er  1 4.300000e-01    2.920000e+00
 SP5dq  C6er  1 4.300000e-01    2.920000e+00
 SP4dq  C6er  1 4.300000e-01    3.160000e+00
 SP3dq  C6er  1 4.300000e-01    3.380000e+00
 SP2dq  C6er  1 4.300000e-01    3.380000e+00
 SP1dq  C6er  1 4.300000e-01    3.380000e+00
 SN6dq  C6er  1 4.300000e-01    3.590000e+00
 SN5dq  C6er  1 4.300000e-01    3.590000e+00
 SN4dq  C6er  1 4.300000e-01    3.590000e+00
 SN3dq  C6er  1 4.300000e-01    3.590000e+00
 SN2dq  C6er  1 4.300000e-01    3.590000e+00
 SN1dq  C6er  1 4.300000e-01    3.770000e+00
 SP6dq  C5er  1 4.300000e-01    2.770000e+00
 SP5dq  C5er  1 4.300000e-01    2.920000e+00
 SP4dq  C5er  1 4.300000e-01    2.920000e+00
 SP3dq  C5er  1 4.300000e-01    3.160000e+00
 SP2dq  C5er  1 4.300000e-01    3.160000e+00
 SP1dq  C5er  1 4.300000e-01    3.160000e+00
 SN6dq  C5er  1 4.300000e-01    3.380000e+00
 SN5dq  C5er  1 4.300000e-01    3.380000e+00
 SN4dq  C5er  1 4.300000e-01    3.380000e+00
 SN3dq  C5er  1 4.300000e-01    3.380000e+00
 SN2dq  C5er  1 4.300000e-01    3.380000e+00
 SN1dq  C5er  1 4.300000e-01    3.590000e+00
 SP6dq  C4er  1 4.300000e-01    2.530000e+00
 SP5dq  C4er  1 4.300000e-01    2.770000e+00
 SP4dq  C4er  1 4.300000e-01    2.770000e+00
 SP3dq  C4er  1 4.300000e-01    2.920000e+00
 SP2dq  C4er  1 4.300000e-01    2.920000e+00
 SP1dq  C4er  1 4.300000e-01    2.920000e+00
 SN6dq  C4er  1 4.300000e-01    3.160000e+00
 SN5dq  C4er  1 4.300000e-01    3.160000e+00
 SN4dq  C4er  1 4.300000e-01    3.380000e+00
 SN3dq  C4er  1 4.300000e-01    3.380000e+00
 SN2dq  C4er  1 4.300000e-01    3.380000e+00
 SN1dq  C4er  1 4.300000e-01    3.590000e+00
 SP6dq  C3er  1 4.300000e-01    2.320000e+00
 SP5dq  C3er  1 4.300000e-01    2.530000e+00
 SP4dq  C3er  1 4.300000e-01    2.530000e+00
 SP3dq  C3er  1 4.300000e-01    2.530000e+00
 SP2dq  C3er  1 4.300000e-01    2.770000e+00
 SP1dq  C3er  1 4.300000e-01    2.770000e+00
 SN6dq  C3er  1 4.300000e-01    2.920000e+00
 SN5dq  C3er  1 4.300000e-01    3.160000e+00
 SN4dq  C3er  1 4.300000e-01    3.160000e+00
 SN3dq  C3er  1 4.300000e-01    3.160000e+00
 SN2dq  C3er  1 4.300000e-01    3.380000e+00
 SN1dq  C3er  1 4.300000e-01    3.380000e+00
 SP6dq  C2er  1 4.300000e-01    2.320000e+00
 SP5dq  C2er  1 4.300000e-01    2.530000e+00
 SP4dq  C2er  1 4.300000e-01    2.530000e+00
 SP3dq  C2er  1 4.300000e-01    2.530000e+00
 SP2dq  C2er  1 4.300000e-01    2.770000e+00
 SP1dq  C2er  1 4.300000e-01    2.770000e+00
 SN6dq  C2er  1 4.300000e-01    2.920000e+00
 SN5dq  C2er  1 4.300000e-01    2.920000e+00
 SN4dq  C2er  1 4.300000e-01    2.920000e+00
 SN3dq  C2er  1 4.300000e-01    3.160000e+00
 SN2dq  C2er  1 4.300000e-01    3.160000e+00
 SN1dq  C2er  1 4.300000e-01    3.160000e+00
 SP6dq  C1er  1 4.300000e-01    1.930000e+00
 SP5dq  C1er  1 4.300000e-01    2.320000e+00
 SP4dq  C1er  1 4.300000e-01    2.320000e+00
 SP3dq  C1er  1 4.300000e-01    2.320000e+00
 SP2dq  C1er  1 4.300000e-01    2.530000e+00
 SP1dq  C1er  1 4.300000e-01    2.530000e+00
 SN6dq  C1er  1 4.300000e-01    2.770000e+00
 SN5dq  C1er  1 4.300000e-01    2.770000e+00
 SN4dq  C1er  1 4.300000e-01    2.770000e+00
 SN3dq  C1er  1 4.300000e-01    2.920000e+00
 SN2dq  C1er  1 4.300000e-01    2.920000e+00
 SN1dq  C1er  1 4.300000e-01    2.920000e+00
 SP6dq  X4er  1 4.300000e-01    3.160000e+00
 SP5dq  X4er  1 4.300000e-01    3.380000e+00
 SP4dq  X4er  1 4.300000e-01    3.380000e+00
 SP3dq  X4er  1 4.300000e-01    3.380000e+00
 SP2dq  X4er  1 4.300000e-01    3.380000e+00
 SP1dq  X4er  1 4.300000e-01    3.380000e+00
 SN6dq  X4er  1 4.300000e-01    3.590000e+00
 SN5dq  X4er  1 4.300000e-01    3.770000e+00
 SN4dq  X4er  1 4.300000e-01    3.970000e+00
 SN3dq  X4er  1 4.300000e-01    3.770000e+00
 SN2dq  X4er  1 4.300000e-01    3.770000e+00
 SN1dq  X4er  1 4.300000e-01    3.590000e+00
 SP6dq  X3er  1 4.300000e-01    3.160000e+00
 SP5dq  X3er  1 4.300000e-01    3.160000e+00
 SP4dq  X3er  1 4.300000e-01    3.160000e+00
 SP3dq  X3er  1 4.300000e-01    3.380000e+00
 SP2dq  X3er  1 4.300000e-01    3.380000e+00
 SP1dq  X3er  1 4.300000e-01    3.380000e+00
 SN6dq  X3er  1 4.300000e-01    3.380000e+00
 SN5dq  X3er  1 4.300000e-01    3.590000e+00
 SN4dq  X3er  1 4.300000e-01    3.770000e+00
 SN3dq  X3er  1 4.300000e-01    3.590000e+00
 SN2dq  X3er  1 4.300000e-01    3.590000e+00
 SN1dq  X3er  1 4.300000e-01    3.590000e+00
 SP6dq  X2er  1 4.300000e-01    2.920000e+00
 SP5dq  X2er  1 4.300000e-01    3.160000e+00
 SP4dq  X2er  1 4.300000e-01    3.160000e+00
 SP3dq  X2er  1 4.300000e-01    3.160000e+00
 SP2dq  X2er  1 4.300000e-01    3.160000e+00
 SP1dq  X2er  1 4.300000e-01    3.160000e+00
 SN6dq  X2er  1 4.300000e-01    3.160000e+00
 SN5dq  X2er  1 4.300000e-01    3.380000e+00
 SN4dq  X2er  1 4.300000e-01    3.380000e+00
 SN3dq  X2er  1 4.300000e-01    3.380000e+00
 SN2dq  X2er  1 4.300000e-01    3.380000e+00
 SN1dq  X2er  1 4.300000e-01    3.380000e+00
 SP6dq  X1er  1 4.300000e-01    2.770000e+00
 SP5dq  X1er  1 4.300000e-01    2.770000e+00
 SP4dq  X1er  1 4.300000e-01    2.920000e+00
 SP3dq  X1er  1 4.300000e-01    2.920000e+00
 SP2dq  X1er  1 4.300000e-01    2.920000e+00
 SP1dq  X1er  1 4.300000e-01    2.920000e+00
 SN6dq  X1er  1 4.300000e-01    2.920000e+00
 SN5dq  X1er  1 4.300000e-01    3.160000e+00
 SN4dq  X1er  1 4.300000e-01    3.160000e+00
 SN3dq  X1er  1 4.300000e-01    3.380000e+00
 SN2dq  X1er  1 4.300000e-01    3.380000e+00
 SN1dq  X1er  1 4.300000e-01    3.380000e+00
  P6dh  SC6e  1 4.300000e-01    2.530000e+00
  P6dh  SC5e  1 4.300000e-01    2.320000e+00
  P6dh  SC4e  1 4.300000e-01    2.160000e+00
  P6dh  SC3e  1 4.300000e-01    1.930000e+00
  P6dh  SC2e  1 4.300000e-01    1.930000e+00
  P6dh  SC1e  1 4.430000e-01    1.480000e+00
  P6dh  SX4e  1 4.300000e-01    2.770000e+00
  P6dh  SX3e  1 4.300000e-01    2.770000e+00
  P6dh  SX2e  1 4.300000e-01    2.530000e+00
  P6dh  SX1e  1 4.300000e-01    2.320000e+00
  P5dh  SC6e  1 4.300000e-01    2.530000e+00
  P5dh  SC5e  1 4.300000e-01    2.530000e+00
  P5dh  SC4e  1 4.300000e-01    2.320000e+00
  P5dh  SC3e  1 4.300000e-01    2.160000e+00
  P5dh  SC2e  1 4.300000e-01    2.160000e+00
  P5dh  SC1e  1 4.300000e-01    1.930000e+00
  P5dh  SX4e  1 4.300000e-01    2.920000e+00
  P5dh  SX3e  1 4.300000e-01    2.770000e+00
  P5dh  SX2e  1 4.300000e-01    2.770000e+00
  P5dh  SX1e  1 4.300000e-01    2.320000e+00
  P4dh  SC6e  1 4.300000e-01    2.770000e+00
  P4dh  SC5e  1 4.300000e-01    2.530000e+00
  P4dh  SC4e  1 4.300000e-01    2.320000e+00
  P4dh  SC3e  1 4.300000e-01    2.160000e+00
  P4dh  SC2e  1 4.300000e-01    2.160000e+00
  P4dh  SC1e  1 4.300000e-01    1.930000e+00
  P4dh  SX4e  1 4.300000e-01    2.920000e+00
  P4dh  SX3e  1 4.300000e-01    2.770000e+00
  P4dh  SX2e  1 4.300000e-01    2.770000e+00
  P4dh  SX1e  1 4.300000e-01    2.530000e+00
  P3dh  SC6e  1 4.300000e-01    2.920000e+00
  P3dh  SC5e  1 4.300000e-01    2.770000e+00
  P3dh  SC4e  1 4.300000e-01    2.530000e+00
  P3dh  SC3e  1 4.300000e-01    2.160000e+00
  P3dh  SC2e  1 4.300000e-01    2.160000e+00
  P3dh  SC1e  1 4.300000e-01    1.930000e+00
  P3dh  SX4e  1 4.300000e-01    2.920000e+00
  P3dh  SX3e  1 4.300000e-01    2.920000e+00
  P3dh  SX2e  1 4.300000e-01    2.770000e+00
  P3dh  SX1e  1 4.300000e-01    2.530000e+00
  P2dh  SC6e  1 4.300000e-01    2.920000e+00
  P2dh  SC5e  1 4.300000e-01    2.770000e+00
  P2dh  SC4e  1 4.300000e-01    2.530000e+00
  P2dh  SC3e  1 4.300000e-01    2.320000e+00
  P2dh  SC2e  1 4.300000e-01    2.320000e+00
  P2dh  SC1e  1 4.300000e-01    2.160000e+00
  P2dh  SX4e  1 4.300000e-01    2.920000e+00
  P2dh  SX3e  1 4.300000e-01    2.920000e+00
  P2dh  SX2e  1 4.300000e-01    2.770000e+00
  P2dh  SX1e  1 4.300000e-01    2.530000e+00
  P1dh  SC6e  1 4.300000e-01    2.920000e+00
  P1dh  SC5e  1 4.300000e-01    2.770000e+00
  P1dh  SC4e  1 4.300000e-01    2.530000e+00
  P1dh  SC3e  1 4.300000e-01    2.320000e+00
  P1dh  SC2e  1 4.300000e-01    2.320000e+00
  P1dh  SC1e  1 4.300000e-01    2.160000e+00
  P1dh  SX4e  1 4.300000e-01    2.920000e+00
  P1dh  SX3e  1 4.300000e-01    2.920000e+00
  P1dh  SX2e  1 4.300000e-01    2.770000e+00
  P1dh  SX1e  1 4.300000e-01    2.530000e+00
  N6dh  SC6e  1 4.300000e-01    3.160000e+00
  N6dh  SC5e  1 4.300000e-01    2.920000e+00
  N6dh  SC4e  1 4.300000e-01    2.770000e+00
  N6dh  SC3e  1 4.300000e-01    2.530000e+00
  N6dh  SC2e  1 4.300000e-01    2.530000e+00
  N6dh  SC1e  1 4.300000e-01    2.320000e+00
  N6dh  SX4e  1 4.300000e-01    3.160000e+00
  N6dh  SX3e  1 4.300000e-01    2.920000e+00
  N6dh  SX2e  1 4.300000e-01    2.770000e+00
  N6dh  SX1e  1 4.300000e-01    2.530000e+00
  N5dh  SC6e  1 4.300000e-01    3.160000e+00
  N5dh  SC5e  1 4.300000e-01    2.920000e+00
  N5dh  SC4e  1 4.300000e-01    2.770000e+00
  N5dh  SC3e  1 4.300000e-01    2.770000e+00
  N5dh  SC2e  1 4.300000e-01    2.530000e+00
  N5dh  SC1e  1 4.300000e-01    2.320000e+00
  N5dh  SX4e  1 4.300000e-01    3.380000e+00
  N5dh  SX3e  1 4.300000e-01    3.160000e+00
  N5dh  SX2e  1 4.300000e-01    2.920000e+00
  N5dh  SX1e  1 4.300000e-01    2.770000e+00
  N4dh  SC6e  1 4.300000e-01    3.160000e+00
  N4dh  SC5e  1 4.300000e-01    2.920000e+00
  N4dh  SC4e  1 4.300000e-01    2.920000e+00
  N4dh  SC3e  1 4.300000e-01    2.770000e+00
  N4dh  SC2e  1 4.300000e-01    2.530000e+00
  N4dh  SC1e  1 4.300000e-01    2.320000e+00
  N4dh  SX4e  1 4.300000e-01    3.590000e+00
  N4dh  SX3e  1 4.300000e-01    3.380000e+00
  N4dh  SX2e  1 4.300000e-01    2.920000e+00
  N4dh  SX1e  1 4.300000e-01    2.770000e+00
  N3dh  SC6e  1 4.300000e-01    3.160000e+00
  N3dh  SC5e  1 4.300000e-01    2.920000e+00
  N3dh  SC4e  1 4.300000e-01    2.920000e+00
  N3dh  SC3e  1 4.300000e-01    2.770000e+00
  N3dh  SC2e  1 4.300000e-01    2.770000e+00
  N3dh  SC1e  1 4.300000e-01    2.530000e+00
  N3dh  SX4e  1 4.300000e-01    3.380000e+00
  N3dh  SX3e  1 4.300000e-01    3.160000e+00
  N3dh  SX2e  1 4.300000e-01    2.920000e+00
  N3dh  SX1e  1 4.300000e-01    2.920000e+00
  N2dh  SC6e  1 4.300000e-01    3.160000e+00
  N2dh  SC5e  1 4.300000e-01    2.920000e+00
  N2dh  SC4e  1 4.300000e-01    2.920000e+00
  N2dh  SC3e  1 4.300000e-01    2.920000e+00
  N2dh  SC2e  1 4.300000e-01    2.770000e+00
  N2dh  SC1e  1 4.300000e-01    2.530000e+00
  N2dh  SX4e  1 4.300000e-01    3.380000e+00
  N2dh  SX3e  1 4.300000e-01    3.160000e+00
  N2dh  SX2e  1 4.300000e-01    2.920000e+00
  N2dh  SX1e  1 4.300000e-01    2.920000e+00
  N1dh  SC6e  1 4.300000e-01    3.380000e+00
  N1dh  SC5e  1 4.300000e-01    3.160000e+00
  N1dh  SC4e  1 4.300000e-01    3.160000e+00
  N1dh  SC3e  1 4.300000e-01    2.920000e+00
  N1dh  SC2e  1 4.300000e-01    2.770000e+00
  N1dh  SC1e  1 4.300000e-01    2.530000e+00
  N1dh  SX4e  1 4.300000e-01    3.160000e+00
  N1dh  SX3e  1 4.300000e-01    3.160000e+00
  N1dh  SX2e  1 4.300000e-01    2.920000e+00
  N1dh  SX1e  1 4.300000e-01    2.920000e+00
 SP6dh   C6e  1 4.300000e-01    2.530000e+00
 SP6dh   C5e  1 4.300000e-01    2.320000e+00
 SP6dh   C4e  1 4.300000e-01    2.160000e+00
 SP6dh   C3e  1 4.300000e-01    1.930000e+00
 SP6dh   C2e  1 4.300000e-01    1.930000e+00
 SP6dh   C1e  1 4.430000e-01    1.480000e+00
 SP6dh   X4e  1 4.300000e-01    2.770000e+00
 SP6dh   X3e  1 4.300000e-01    2.770000e+00
 SP6dh   X2e  1 4.300000e-01    2.530000e+00
 SP6dh   X1e  1 4.300000e-01    2.320000e+00
 SP5dh   C6e  1 4.300000e-01    2.530000e+00
 SP5dh   C5e  1 4.300000e-01    2.530000e+00
 SP5dh   C4e  1 4.300000e-01    2.320000e+00
 SP5dh   C3e  1 4.300000e-01    2.160000e+00
 SP5dh   C2e  1 4.300000e-01    2.160000e+00
 SP5dh   C1e  1 4.300000e-01    1.930000e+00
 SP5dh   X4e  1 4.300000e-01    2.920000e+00
 SP5dh   X3e  1 4.300000e-01    2.770000e+00
 SP5dh   X2e  1 4.300000e-01    2.770000e+00
 SP5dh   X1e  1 4.300000e-01    2.320000e+00
 SP4dh   C6e  1 4.300000e-01    2.770000e+00
 SP4dh   C5e  1 4.300000e-01    2.530000e+00
 SP4dh   C4e  1 4.300000e-01    2.320000e+00
 SP4dh   C3e  1 4.300000e-01    2.160000e+00
 SP4dh   C2e  1 4.300000e-01    2.160000e+00
 SP4dh   C1e  1 4.300000e-01    1.930000e+00
 SP4dh   X4e  1 4.300000e-01    2.920000e+00
 SP4dh   X3e  1 4.300000e-01    2.770000e+00
 SP4dh   X2e  1 4.300000e-01    2.770000e+00
 SP4dh   X1e  1 4.300000e-01    2.530000e+00
 SP3dh   C6e  1 4.300000e-01    2.920000e+00
 SP3dh   C5e  1 4.300000e-01    2.770000e+00
 SP3dh   C4e  1 4.300000e-01    2.530000e+00
 SP3dh   C3e  1 4.300000e-01    2.160000e+00
 SP3dh   C2e  1 4.300000e-01    2.160000e+00
 SP3dh   C1e  1 4.300000e-01    1.930000e+00
 SP3dh   X4e  1 4.300000e-01    2.920000e+00
 SP3dh   X3e  1 4.300000e-01    2.920000e+00
 SP3dh   X2e  1 4.300000e-01    2.770000e+00
 SP3dh   X1e  1 4.300000e-01    2.530000e+00
 SP2dh   C6e  1 4.300000e-01    2.920000e+00
 SP2dh   C5e  1 4.300000e-01    2.770000e+00
 SP2dh   C4e  1 4.300000e-01    2.530000e+00
 SP2dh   C3e  1 4.300000e-01    2.320000e+00
 SP2dh   C2e  1 4.300000e-01    2.320000e+00
 SP2dh   C1e  1 4.300000e-01    2.160000e+00
 SP2dh   X4e  1 4.300000e-01    2.920000e+00
 SP2dh   X3e  1 4.300000e-01    2.920000e+00
 SP2dh   X2e  1 4.300000e-01    2.770000e+00
 SP2dh   X1e  1 4.300000e-01    2.530000e+00
 SP1dh   C6e  1 4.300000e-01    2.920000e+00
 SP1dh   C5e  1 4.300000e-01    2.770000e+00
 SP1dh   C4e  1 4.300000e-01    2.530000e+00
 SP1dh   C3e  1 4.300000e-01    2.320000e+00
 SP1dh   C2e  1 4.300000e-01    2.320000e+00
 SP1dh   C1e  1 4.300000e-01    2.160000e+00
 SP1dh   X4e  1 4.300000e-01    2.920000e+00
 SP1dh   X3e  1 4.300000e-01    2.920000e+00
 SP1dh   X2e  1 4.300000e-01    2.770000e+00
 SP1dh   X1e  1 4.300000e-01    2.530000e+00
 SN6dh   C6e  1 4.300000e-01    3.160000e+00
 SN6dh   C5e  1 4.300000e-01    2.920000e+00
 SN6dh   C4e  1 4.300000e-01    2.770000e+00
 SN6dh   C3e  1 4.300000e-01    2.530000e+00
 SN6dh   C2e  1 4.300000e-01    2.530000e+00
 SN6dh   C1e  1 4.300000e-01    2.320000e+00
 SN6dh   X4e  1 4.300000e-01    3.160000e+00
 SN6dh   X3e  1 4.300000e-01    2.920000e+00
 SN6dh   X2e  1 4.300000e-01    2.770000e+00
 SN6dh   X1e  1 4.300000e-01    2.530000e+00
 SN5dh   C6e  1 4.300000e-01    3.160000e+00
 SN5dh   C5e  1 4.300000e-01    2.920000e+00
 SN5dh   C4e  1 4.300000e-01    2.770000e+00
 SN5dh   C3e  1 4.300000e-01    2.770000e+00
 SN5dh   C2e  1 4.300000e-01    2.530000e+00
 SN5dh   C1e  1 4.300000e-01    2.320000e+00
 SN5dh   X4e  1 4.300000e-01    3.380000e+00
 SN5dh   X3e  1 4.300000e-01    3.160000e+00
 SN5dh   X2e  1 4.300000e-01    2.920000e+00
 SN5dh   X1e  1 4.300000e-01    2.770000e+00
 SN4dh   C6e  1 4.300000e-01    3.160000e+00
 SN4dh   C5e  1 4.300000e-01    2.920000e+00
 SN4dh   C4e  1 4.300000e-01    2.920000e+00
 SN4dh   C3e  1 4.300000e-01    2.770000e+00
 SN4dh   C2e  1 4.300000e-01    2.530000e+00
 SN4dh   C1e  1 4.300000e-01    2.320000e+00
 SN4dh   X4e  1 4.300000e-01    3.590000e+00
 SN4dh   X3e  1 4.300000e-01    3.380000e+00
 SN4dh   X2e  1 4.300000e-01    2.920000e+00
 SN4dh   X1e  1 4.300000e-01    2.770000e+00
 SN3dh   C6e  1 4.300000e-01    3.160000e+00
 SN3dh   C5e  1 4.300000e-01    2.920000e+00
 SN3dh   C4e  1 4.300000e-01    2.920000e+00
 SN3dh   C3e  1 4.300000e-01    2.770000e+00
 SN3dh   C2e  1 4.300000e-01    2.770000e+00
 SN3dh   C1e  1 4.300000e-01    2.530000e+00
 SN3dh   X4e  1 4.300000e-01    3.380000e+00
 SN3dh   X3e  1 4.300000e-01    3.160000e+00
 SN3dh   X2e  1 4.300000e-01    2.920000e+00
 SN3dh   X1e  1 4.300000e-01    2.920000e+00
 SN2dh   C6e  1 4.300000e-01    3.160000e+00
 SN2dh   C5e  1 4.300000e-01    2.920000e+00
 SN2dh   C4e  1 4.300000e-01    2.920000e+00
 SN2dh   C3e  1 4.300000e-01    2.920000e+00
 SN2dh   C2e  1 4.300000e-01    2.770000e+00
 SN2dh   C1e  1 4.300000e-01    2.530000e+00
 SN2dh   X4e  1 4.300000e-01    3.380000e+00
 SN2dh   X3e  1 4.300000e-01    3.160000e+00
 SN2dh   X2e  1 4.300000e-01    2.920000e+00
 SN2dh   X1e  1 4.300000e-01    2.920000e+00
 SN1dh   C6e  1 4.300000e-01    3.380000e+00
 SN1dh   C5e  1 4.300000e-01    3.160000e+00
 SN1dh   C4e  1 4.300000e-01    3.160000e+00
 SN1dh   C3e  1 4.300000e-01    2.920000e+00
 SN1dh   C2e  1 4.300000e-01    2.770000e+00
 SN1dh   C1e  1 4.300000e-01    2.530000e+00
 SN1dh   X4e  1 4.300000e-01    3.160000e+00
 SN1dh   X3e  1 4.300000e-01    3.160000e+00
 SN1dh   X2e  1 4.300000e-01    2.920000e+00
 SN1dh   X1e  1 4.300000e-01    2.920000e+00
  P6dh SX1eq  1 4.300000e-01    2.770000e+00
  P6dh SX2eq  1 4.300000e-01    2.920000e+00
  P6dh SX3eq  1 4.300000e-01    3.160000e+00
  P6dh SX4eq  1 4.300000e-01    3.160000e+00
  P6dh SC1eq  1 4.300000e-01    1.930000e+00
  P6dh SC2eq  1 4.300000e-01    2.320000e+00
  P6dh SC3eq  1 4.300000e-01    2.320000e+00
  P6dh SC4eq  1 4.300000e-01    2.530000e+00
  P6dh SC5eq  1 4.300000e-01    2.770000e+00
  P6dh SC6eq  1 4.300000e-01    2.920000e+00
  P5dh SX1eq  1 4.300000e-01    2.770000e+00
  P5dh SX2eq  1 4.300000e-01    3.160000e+00
  P5dh SX3eq  1 4.300000e-01    3.160000e+00
  P5dh SX4eq  1 4.300000e-01    3.380000e+00
  P5dh SC1eq  1 4.300000e-01    2.320000e+00
  P5dh SC2eq  1 4.300000e-01    2.530000e+00
  P5dh SC3eq  1 4.300000e-01    2.530000e+00
  P5dh SC4eq  1 4.300000e-01    2.770000e+00
  P5dh SC5eq  1 4.300000e-01    2.920000e+00
  P5dh SC6eq  1 4.300000e-01    2.920000e+00
  P4dh SX1eq  1 4.300000e-01    2.920000e+00
  P4dh SX2eq  1 4.300000e-01    3.160000e+00
  P4dh SX3eq  1 4.300000e-01    3.160000e+00
  P4dh SX4eq  1 4.300000e-01    3.380000e+00
  P4dh SC1eq  1 4.300000e-01    2.320000e+00
  P4dh SC2eq  1 4.300000e-01    2.530000e+00
  P4dh SC3eq  1 4.300000e-01    2.530000e+00
  P4dh SC4eq  1 4.300000e-01    2.770000e+00
  P4dh SC5eq  1 4.300000e-01    2.920000e+00
  P4dh SC6eq  1 4.300000e-01    3.160000e+00
  P3dh SX1eq  1 4.300000e-01    2.920000e+00
  P3dh SX2eq  1 4.300000e-01    3.160000e+00
  P3dh SX3eq  1 4.300000e-01    3.380000e+00
  P3dh SX4eq  1 4.300000e-01    3.380000e+00
  P3dh SC1eq  1 4.300000e-01    2.320000e+00
  P3dh SC2eq  1 4.300000e-01    2.530000e+00
  P3dh SC3eq  1 4.300000e-01    2.530000e+00
  P3dh SC4eq  1 4.300000e-01    2.920000e+00
  P3dh SC5eq  1 4.300000e-01    3.160000e+00
  P3dh SC6eq  1 4.300000e-01    3.380000e+00
  P2dh SX1eq  1 4.300000e-01    2.920000e+00
  P2dh SX2eq  1 4.300000e-01    3.160000e+00
  P2dh SX3eq  1 4.300000e-01    3.380000e+00
  P2dh SX4eq  1 4.300000e-01    3.380000e+00
  P2dh SC1eq  1 4.300000e-01    2.530000e+00
  P2dh SC2eq  1 4.300000e-01    2.770000e+00
  P2dh SC3eq  1 4.300000e-01    2.770000e+00
  P2dh SC4eq  1 4.300000e-01    2.920000e+00
  P2dh SC5eq  1 4.300000e-01    3.160000e+00
  P2dh SC6eq  1 4.300000e-01    3.380000e+00
  P1dh SX1eq  1 4.300000e-01    2.920000e+00
  P1dh SX2eq  1 4.300000e-01    3.160000e+00
  P1dh SX3eq  1 4.300000e-01    3.380000e+00
  P1dh SX4eq  1 4.300000e-01    3.380000e+00
  P1dh SC1eq  1 4.300000e-01    2.530000e+00
  P1dh SC2eq  1 4.300000e-01    2.770000e+00
  P1dh SC3eq  1 4.300000e-01    2.770000e+00
  P1dh SC4eq  1 4.300000e-01    2.920000e+00
  P1dh SC5eq  1 4.300000e-01    3.160000e+00
  P1dh SC6eq  1 4.300000e-01    3.380000e+00
  N6dh SX1eq  1 4.300000e-01    2.920000e+00
  N6dh SX2eq  1 4.300000e-01    3.160000e+00
  N6dh SX3eq  1 4.300000e-01    3.380000e+00
  N6dh SX4eq  1 4.300000e-01    3.590000e+00
  N6dh SC1eq  1 4.300000e-01    2.770000e+00
  N6dh SC2eq  1 4.300000e-01    2.920000e+00
  N6dh SC3eq  1 4.300000e-01    2.920000e+00
  N6dh SC4eq  1 4.300000e-01    3.160000e+00
  N6dh SC5eq  1 4.300000e-01    3.380000e+00
  N6dh SC6eq  1 4.300000e-01    3.590000e+00
  N5dh SX1eq  1 4.300000e-01    3.160000e+00
  N5dh SX2eq  1 4.300000e-01    3.380000e+00
  N5dh SX3eq  1 4.300000e-01    3.590000e+00
  N5dh SX4eq  1 4.300000e-01    3.770000e+00
  N5dh SC1eq  1 4.300000e-01    2.770000e+00
  N5dh SC2eq  1 4.300000e-01    2.920000e+00
  N5dh SC3eq  1 4.300000e-01    3.160000e+00
  N5dh SC4eq  1 4.300000e-01    3.160000e+00
  N5dh SC5eq  1 4.300000e-01    3.380000e+00
  N5dh SC6eq  1 4.300000e-01    3.590000e+00
  N4dh SX1eq  1 4.300000e-01    3.160000e+00
  N4dh SX2eq  1 4.300000e-01    3.380000e+00
  N4dh SX3eq  1 4.300000e-01    3.770000e+00
  N4dh SX4eq  1 4.300000e-01    3.970000e+00
  N4dh SC1eq  1 4.300000e-01    2.770000e+00
  N4dh SC2eq  1 4.300000e-01    2.920000e+00
  N4dh SC3eq  1 4.300000e-01    3.160000e+00
  N4dh SC4eq  1 4.300000e-01    3.380000e+00
  N4dh SC5eq  1 4.300000e-01    3.380000e+00
  N4dh SC6eq  1 4.300000e-01    3.590000e+00
  N3dh SX1eq  1 4.300000e-01    3.380000e+00
  N3dh SX2eq  1 4.300000e-01    3.380000e+00
  N3dh SX3eq  1 4.300000e-01    3.590000e+00
  N3dh SX4eq  1 4.300000e-01    3.770000e+00
  N3dh SC1eq  1 4.300000e-01    2.920000e+00
  N3dh SC2eq  1 4.300000e-01    3.160000e+00
  N3dh SC3eq  1 4.300000e-01    3.160000e+00
  N3dh SC4eq  1 4.300000e-01    3.380000e+00
  N3dh SC5eq  1 4.300000e-01    3.380000e+00
  N3dh SC6eq  1 4.300000e-01    3.590000e+00
  N2dh SX1eq  1 4.300000e-01    3.380000e+00
  N2dh SX2eq  1 4.300000e-01    3.380000e+00
  N2dh SX3eq  1 4.300000e-01    3.590000e+00
  N2dh SX4eq  1 4.300000e-01    3.770000e+00
  N2dh SC1eq  1 4.300000e-01    2.920000e+00
  N2dh SC2eq  1 4.300000e-01    3.160000e+00
  N2dh SC3eq  1 4.300000e-01    3.380000e+00
  N2dh SC4eq  1 4.300000e-01    3.380000e+00
  N2dh SC5eq  1 4.300000e-01    3.380000e+00
  N2dh SC6eq  1 4.300000e-01    3.590000e+00
  N1dh SX1eq  1 4.300000e-01    3.380000e+00
  N1dh SX2eq  1 4.300000e-01    3.380000e+00
  N1dh SX3eq  1 4.300000e-01    3.590000e+00
  N1dh SX4eq  1 4.300000e-01    3.590000e+00
  N1dh SC1eq  1 4.300000e-01    2.920000e+00
  N1dh SC2eq  1 4.300000e-01    3.160000e+00
  N1dh SC3eq  1 4.300000e-01    3.380000e+00
  N1dh SC4eq  1 4.300000e-01    3.590000e+00
  N1dh SC5eq  1 4.300000e-01    3.590000e+00
  N1dh SC6eq  1 4.300000e-01    3.770000e+00
 SP6dh  X1eq  1 4.300000e-01    2.770000e+00
 SP6dh  X2eq  1 4.300000e-01    2.920000e+00
 SP6dh  X3eq  1 4.300000e-01    3.160000e+00
 SP6dh  X4eq  1 4.300000e-01    3.160000e+00
 SP6dh  C1eq  1 4.300000e-01    1.930000e+00
 SP6dh  C2eq  1 4.300000e-01    2.320000e+00
 SP6dh  C3eq  1 4.300000e-01    2.320000e+00
 SP6dh  C4eq  1 4.300000e-01    2.530000e+00
 SP6dh  C5eq  1 4.300000e-01    2.770000e+00
 SP6dh  C6eq  1 4.300000e-01    2.920000e+00
 SP5dh  X1eq  1 4.300000e-01    2.770000e+00
 SP5dh  X2eq  1 4.300000e-01    3.160000e+00
 SP5dh  X3eq  1 4.300000e-01    3.160000e+00
 SP5dh  X4eq  1 4.300000e-01    3.380000e+00
 SP5dh  C1eq  1 4.300000e-01    2.320000e+00
 SP5dh  C2eq  1 4.300000e-01    2.530000e+00
 SP5dh  C3eq  1 4.300000e-01    2.530000e+00
 SP5dh  C4eq  1 4.300000e-01    2.770000e+00
 SP5dh  C5eq  1 4.300000e-01    2.920000e+00
 SP5dh  C6eq  1 4.300000e-01    2.920000e+00
 SP4dh  X1eq  1 4.300000e-01    2.920000e+00
 SP4dh  X2eq  1 4.300000e-01    3.160000e+00
 SP4dh  X3eq  1 4.300000e-01    3.160000e+00
 SP4dh  X4eq  1 4.300000e-01    3.380000e+00
 SP4dh  C1eq  1 4.300000e-01    2.320000e+00
 SP4dh  C2eq  1 4.300000e-01    2.530000e+00
 SP4dh  C3eq  1 4.300000e-01    2.530000e+00
 SP4dh  C4eq  1 4.300000e-01    2.770000e+00
 SP4dh  C5eq  1 4.300000e-01    2.920000e+00
 SP4dh  C6eq  1 4.300000e-01    3.160000e+00
 SP3dh  X1eq  1 4.300000e-01    2.920000e+00
 SP3dh  X2eq  1 4.300000e-01    3.160000e+00
 SP3dh  X3eq  1 4.300000e-01    3.380000e+00
 SP3dh  X4eq  1 4.300000e-01    3.380000e+00
 SP3dh  C1eq  1 4.300000e-01    2.320000e+00
 SP3dh  C2eq  1 4.300000e-01    2.530000e+00
 SP3dh  C3eq  1 4.300000e-01    2.530000e+00
 SP3dh  C4eq  1 4.300000e-01    2.920000e+00
 SP3dh  C5eq  1 4.300000e-01    3.160000e+00
 SP3dh  C6eq  1 4.300000e-01    3.380000e+00
 SP2dh  X1eq  1 4.300000e-01    2.920000e+00
 SP2dh  X2eq  1 4.300000e-01    3.160000e+00
 SP2dh  X3eq  1 4.300000e-01    3.380000e+00
 SP2dh  X4eq  1 4.300000e-01    3.380000e+00
 SP2dh  C1eq  1 4.300000e-01    2.530000e+00
 SP2dh  C2eq  1 4.300000e-01    2.770000e+00
 SP2dh  C3eq  1 4.300000e-01    2.770000e+00
 SP2dh  C4eq  1 4.300000e-01    2.920000e+00
 SP2dh  C5eq  1 4.300000e-01    3.160000e+00
 SP2dh  C6eq  1 4.300000e-01    3.380000e+00
 SP1dh  X1eq  1 4.300000e-01    2.920000e+00
 SP1dh  X2eq  1 4.300000e-01    3.160000e+00
 SP1dh  X3eq  1 4.300000e-01    3.380000e+00
 SP1dh  X4eq  1 4.300000e-01    3.380000e+00
 SP1dh  C1eq  1 4.300000e-01    2.530000e+00
 SP1dh  C2eq  1 4.300000e-01    2.770000e+00
 SP1dh  C3eq  1 4.300000e-01    2.770000e+00
 SP1dh  C4eq  1 4.300000e-01    2.920000e+00
 SP1dh  C5eq  1 4.300000e-01    3.160000e+00
 SP1dh  C6eq  1 4.300000e-01    3.380000e+00
 SN6dh  X1eq  1 4.300000e-01    2.920000e+00
 SN6dh  X2eq  1 4.300000e-01    3.160000e+00
 SN6dh  X3eq  1 4.300000e-01    3.380000e+00
 SN6dh  X4eq  1 4.300000e-01    3.590000e+00
 SN6dh  C1eq  1 4.300000e-01    2.770000e+00
 SN6dh  C2eq  1 4.300000e-01    2.920000e+00
 SN6dh  C3eq  1 4.300000e-01    2.920000e+00
 SN6dh  C4eq  1 4.300000e-01    3.160000e+00
 SN6dh  C5eq  1 4.300000e-01    3.380000e+00
 SN6dh  C6eq  1 4.300000e-01    3.590000e+00
 SN5dh  X1eq  1 4.300000e-01    3.160000e+00
 SN5dh  X2eq  1 4.300000e-01    3.380000e+00
 SN5dh  X3eq  1 4.300000e-01    3.590000e+00
 SN5dh  X4eq  1 4.300000e-01    3.770000e+00
 SN5dh  C1eq  1 4.300000e-01    2.770000e+00
 SN5dh  C2eq  1 4.300000e-01    2.920000e+00
 SN5dh  C3eq  1 4.300000e-01    3.160000e+00
 SN5dh  C4eq  1 4.300000e-01    3.160000e+00
 SN5dh  C5eq  1 4.300000e-01    3.380000e+00
 SN5dh  C6eq  1 4.300000e-01    3.590000e+00
 SN4dh  X1eq  1 4.300000e-01    3.160000e+00
 SN4dh  X2eq  1 4.300000e-01    3.380000e+00
 SN4dh  X3eq  1 4.300000e-01    3.770000e+00
 SN4dh  X4eq  1 4.300000e-01    3.970000e+00
 SN4dh  C1eq  1 4.300000e-01    2.770000e+00
 SN4dh  C2eq  1 4.300000e-01    2.920000e+00
 SN4dh  C3eq  1 4.300000e-01    3.160000e+00
 SN4dh  C4eq  1 4.300000e-01    3.380000e+00
 SN4dh  C5eq  1 4.300000e-01    3.380000e+00
 SN4dh  C6eq  1 4.300000e-01    3.590000e+00
 SN3dh  X1eq  1 4.300000e-01    3.380000e+00
 SN3dh  X2eq  1 4.300000e-01    3.380000e+00
 SN3dh  X3eq  1 4.300000e-01    3.590000e+00
 SN3dh  X4eq  1 4.300000e-01    3.770000e+00
 SN3dh  C1eq  1 4.300000e-01    2.920000e+00
 SN3dh  C2eq  1 4.300000e-01    3.160000e+00
 SN3dh  C3eq  1 4.300000e-01    3.160000e+00
 SN3dh  C4eq  1 4.300000e-01    3.380000e+00
 SN3dh  C5eq  1 4.300000e-01    3.380000e+00
 SN3dh  C6eq  1 4.300000e-01    3.590000e+00
 SN2dh  X1eq  1 4.300000e-01    3.380000e+00
 SN2dh  X2eq  1 4.300000e-01    3.380000e+00
 SN2dh  X3eq  1 4.300000e-01    3.590000e+00
 SN2dh  X4eq  1 4.300000e-01    3.770000e+00
 SN2dh  C1eq  1 4.300000e-01    2.920000e+00
 SN2dh  C2eq  1 4.300000e-01    3.160000e+00
 SN2dh  C3eq  1 4.300000e-01    3.380000e+00
 SN2dh  C4eq  1 4.300000e-01    3.380000e+00
 SN2dh  C5eq  1 4.300000e-01    3.380000e+00
 SN2dh  C6eq  1 4.300000e-01    3.590000e+00
 SN1dh  X1eq  1 4.300000e-01    3.380000e+00
 SN1dh  X2eq  1 4.300000e-01    3.380000e+00
 SN1dh  X3eq  1 4.300000e-01    3.590000e+00
 SN1dh  X4eq  1 4.300000e-01    3.590000e+00
 SN1dh  C1eq  1 4.300000e-01    2.920000e+00
 SN1dh  C2eq  1 4.300000e-01    3.160000e+00
 SN1dh  C3eq  1 4.300000e-01    3.380000e+00
 SN1dh  C4eq  1 4.300000e-01    3.590000e+00
 SN1dh  C5eq  1 4.300000e-01    3.590000e+00
 SN1dh  C6eq  1 4.300000e-01    3.770000e+00
  P6dh SC6eh  1 4.300000e-01    2.530000e+00
  P6dh SC5eh  1 4.300000e-01    2.320000e+00
  P6dh SC4eh  1 4.300000e-01    2.160000e+00
  P6dh SC3eh  1 4.300000e-01    1.930000e+00
  P6dh SC2eh  1 4.300000e-01    1.930000e+00
  P6dh SC1eh  1 4.430000e-01    1.480000e+00
  P6dh SX4eh  1 4.300000e-01    2.770000e+00
  P6dh SX3eh  1 4.300000e-01    2.770000e+00
  P6dh SX2eh  1 4.300000e-01    2.530000e+00
  P6dh SX1eh  1 4.300000e-01    2.320000e+00
  P5dh SC6eh  1 4.300000e-01    2.530000e+00
  P5dh SC5eh  1 4.300000e-01    2.530000e+00
  P5dh SC4eh  1 4.300000e-01    2.320000e+00
  P5dh SC3eh  1 4.300000e-01    2.160000e+00
  P5dh SC2eh  1 4.300000e-01    2.160000e+00
  P5dh SC1eh  1 4.300000e-01    1.930000e+00
  P5dh SX4eh  1 4.300000e-01    2.920000e+00
  P5dh SX3eh  1 4.300000e-01    2.770000e+00
  P5dh SX2eh  1 4.300000e-01    2.770000e+00
  P5dh SX1eh  1 4.300000e-01    2.320000e+00
  P4dh SC6eh  1 4.300000e-01    2.770000e+00
  P4dh SC5eh  1 4.300000e-01    2.530000e+00
  P4dh SC4eh  1 4.300000e-01    2.320000e+00
  P4dh SC3eh  1 4.300000e-01    2.160000e+00
  P4dh SC2eh  1 4.300000e-01    2.160000e+00
  P4dh SC1eh  1 4.300000e-01    1.930000e+00
  P4dh SX4eh  1 4.300000e-01    2.920000e+00
  P4dh SX3eh  1 4.300000e-01    2.770000e+00
  P4dh SX2eh  1 4.300000e-01    2.770000e+00
  P4dh SX1eh  1 4.300000e-01    2.530000e+00
  P3dh SC6eh  1 4.300000e-01    2.920000e+00
  P3dh SC5eh  1 4.300000e-01    2.770000e+00
  P3dh SC4eh  1 4.300000e-01    2.530000e+00
  P3dh SC3eh  1 4.300000e-01    2.160000e+00
  P3dh SC2eh  1 4.300000e-01    2.160000e+00
  P3dh SC1eh  1 4.300000e-01    1.930000e+00
  P3dh SX4eh  1 4.300000e-01    2.920000e+00
  P3dh SX3eh  1 4.300000e-01    2.920000e+00
  P3dh SX2eh  1 4.300000e-01    2.770000e+00
  P3dh SX1eh  1 4.300000e-01    2.530000e+00
  P2dh SC6eh  1 4.300000e-01    2.920000e+00
  P2dh SC5eh  1 4.300000e-01    2.770000e+00
  P2dh SC4eh  1 4.300000e-01    2.530000e+00
  P2dh SC3eh  1 4.300000e-01    2.320000e+00
  P2dh SC2eh  1 4.300000e-01    2.320000e+00
  P2dh SC1eh  1 4.300000e-01    2.160000e+00
  P2dh SX4eh  1 4.300000e-01    2.920000e+00
  P2dh SX3eh  1 4.300000e-01    2.920000e+00
  P2dh SX2eh  1 4.300000e-01    2.770000e+00
  P2dh SX1eh  1 4.300000e-01    2.530000e+00
  P1dh SC6eh  1 4.300000e-01    2.920000e+00
  P1dh SC5eh  1 4.300000e-01    2.770000e+00
  P1dh SC4eh  1 4.300000e-01    2.530000e+00
  P1dh SC3eh  1 4.300000e-01    2.320000e+00
  P1dh SC2eh  1 4.300000e-01    2.320000e+00
  P1dh SC1eh  1 4.300000e-01    2.160000e+00
  P1dh SX4eh  1 4.300000e-01    2.920000e+00
  P1dh SX3eh  1 4.300000e-01    2.920000e+00
  P1dh SX2eh  1 4.300000e-01    2.770000e+00
  P1dh SX1eh  1 4.300000e-01    2.530000e+00
  N6dh SC6eh  1 4.300000e-01    3.160000e+00
  N6dh SC5eh  1 4.300000e-01    2.920000e+00
  N6dh SC4eh  1 4.300000e-01    2.770000e+00
  N6dh SC3eh  1 4.300000e-01    2.530000e+00
  N6dh SC2eh  1 4.300000e-01    2.530000e+00
  N6dh SC1eh  1 4.300000e-01    2.320000e+00
  N6dh SX4eh  1 4.300000e-01    3.160000e+00
  N6dh SX3eh  1 4.300000e-01    2.920000e+00
  N6dh SX2eh  1 4.300000e-01    2.770000e+00
  N6dh SX1eh  1 4.300000e-01    2.530000e+00
  N5dh SC6eh  1 4.300000e-01    3.160000e+00
  N5dh SC5eh  1 4.300000e-01    2.920000e+00
  N5dh SC4eh  1 4.300000e-01    2.770000e+00
  N5dh SC3eh  1 4.300000e-01    2.770000e+00
  N5dh SC2eh  1 4.300000e-01    2.530000e+00
  N5dh SC1eh  1 4.300000e-01    2.320000e+00
  N5dh SX4eh  1 4.300000e-01    3.380000e+00
  N5dh SX3eh  1 4.300000e-01    3.160000e+00
  N5dh SX2eh  1 4.300000e-01    2.920000e+00
  N5dh SX1eh  1 4.300000e-01    2.770000e+00
  N4dh SC6eh  1 4.300000e-01    3.160000e+00
  N4dh SC5eh  1 4.300000e-01    2.920000e+00
  N4dh SC4eh  1 4.300000e-01    2.920000e+00
  N4dh SC3eh  1 4.300000e-01    2.770000e+00
  N4dh SC2eh  1 4.300000e-01    2.530000e+00
  N4dh SC1eh  1 4.300000e-01    2.320000e+00
  N4dh SX4eh  1 4.300000e-01    3.590000e+00
  N4dh SX3eh  1 4.300000e-01    3.380000e+00
  N4dh SX2eh  1 4.300000e-01    2.920000e+00
  N4dh SX1eh  1 4.300000e-01    2.770000e+00
  N3dh SC6eh  1 4.300000e-01    3.160000e+00
  N3dh SC5eh  1 4.300000e-01    2.920000e+00
  N3dh SC4eh  1 4.300000e-01    2.920000e+00
  N3dh SC3eh  1 4.300000e-01    2.770000e+00
  N3dh SC2eh  1 4.300000e-01    2.770000e+00
  N3dh SC1eh  1 4.300000e-01    2.530000e+00
  N3dh SX4eh  1 4.300000e-01    3.380000e+00
  N3dh SX3eh  1 4.300000e-01    3.160000e+00
  N3dh SX2eh  1 4.300000e-01    2.920000e+00
  N3dh SX1eh  1 4.300000e-01    2.920000e+00
  N2dh SC6eh  1 4.300000e-01    3.160000e+00
  N2dh SC5eh  1 4.300000e-01    2.920000e+00
  N2dh SC4eh  1 4.300000e-01    2.920000e+00
  N2dh SC3eh  1 4.300000e-01    2.920000e+00
  N2dh SC2eh  1 4.300000e-01    2.770000e+00
  N2dh SC1eh  1 4.300000e-01    2.530000e+00
  N2dh SX4eh  1 4.300000e-01    3.380000e+00
  N2dh SX3eh  1 4.300000e-01    3.160000e+00
  N2dh SX2eh  1 4.300000e-01    2.920000e+00
  N2dh SX1eh  1 4.300000e-01    2.920000e+00
  N1dh SC6eh  1 4.300000e-01    3.380000e+00
  N1dh SC5eh  1 4.300000e-01    3.160000e+00
  N1dh SC4eh  1 4.300000e-01    3.160000e+00
  N1dh SC3eh  1 4.300000e-01    2.920000e+00
  N1dh SC2eh  1 4.300000e-01    2.770000e+00
  N1dh SC1eh  1 4.300000e-01    2.530000e+00
  N1dh SX4eh  1 4.300000e-01    3.160000e+00
  N1dh SX3eh  1 4.300000e-01    3.160000e+00
  N1dh SX2eh  1 4.300000e-01    2.920000e+00
  N1dh SX1eh  1 4.300000e-01    2.920000e+00
 SP6dh  C6eh  1 4.300000e-01    2.530000e+00
 SP6dh  C5eh  1 4.300000e-01    2.320000e+00
 SP6dh  C4eh  1 4.300000e-01    2.160000e+00
 SP6dh  C3eh  1 4.300000e-01    1.930000e+00
 SP6dh  C2eh  1 4.300000e-01    1.930000e+00
 SP6dh  C1eh  1 4.430000e-01    1.480000e+00
 SP6dh  X4eh  1 4.300000e-01    2.770000e+00
 SP6dh  X3eh  1 4.300000e-01    2.770000e+00
 SP6dh  X2eh  1 4.300000e-01    2.530000e+00
 SP6dh  X1eh  1 4.300000e-01    2.320000e+00
 SP5dh  C6eh  1 4.300000e-01    2.530000e+00
 SP5dh  C5eh  1 4.300000e-01    2.530000e+00
 SP5dh  C4eh  1 4.300000e-01    2.320000e+00
 SP5dh  C3eh  1 4.300000e-01    2.160000e+00
 SP5dh  C2eh  1 4.300000e-01    2.160000e+00
 SP5dh  C1eh  1 4.300000e-01    1.930000e+00
 SP5dh  X4eh  1 4.300000e-01    2.920000e+00
 SP5dh  X3eh  1 4.300000e-01    2.770000e+00
 SP5dh  X2eh  1 4.300000e-01    2.770000e+00
 SP5dh  X1eh  1 4.300000e-01    2.320000e+00
 SP4dh  C6eh  1 4.300000e-01    2.770000e+00
 SP4dh  C5eh  1 4.300000e-01    2.530000e+00
 SP4dh  C4eh  1 4.300000e-01    2.320000e+00
 SP4dh  C3eh  1 4.300000e-01    2.160000e+00
 SP4dh  C2eh  1 4.300000e-01    2.160000e+00
 SP4dh  C1eh  1 4.300000e-01    1.930000e+00
 SP4dh  X4eh  1 4.300000e-01    2.920000e+00
 SP4dh  X3eh  1 4.300000e-01    2.770000e+00
 SP4dh  X2eh  1 4.300000e-01    2.770000e+00
 SP4dh  X1eh  1 4.300000e-01    2.530000e+00
 SP3dh  C6eh  1 4.300000e-01    2.920000e+00
 SP3dh  C5eh  1 4.300000e-01    2.770000e+00
 SP3dh  C4eh  1 4.300000e-01    2.530000e+00
 SP3dh  C3eh  1 4.300000e-01    2.160000e+00
 SP3dh  C2eh  1 4.300000e-01    2.160000e+00
 SP3dh  C1eh  1 4.300000e-01    1.930000e+00
 SP3dh  X4eh  1 4.300000e-01    2.920000e+00
 SP3dh  X3eh  1 4.300000e-01    2.920000e+00
 SP3dh  X2eh  1 4.300000e-01    2.770000e+00
 SP3dh  X1eh  1 4.300000e-01    2.530000e+00
 SP2dh  C6eh  1 4.300000e-01    2.920000e+00
 SP2dh  C5eh  1 4.300000e-01    2.770000e+00
 SP2dh  C4eh  1 4.300000e-01    2.530000e+00
 SP2dh  C3eh  1 4.300000e-01    2.320000e+00
 SP2dh  C2eh  1 4.300000e-01    2.320000e+00
 SP2dh  C1eh  1 4.300000e-01    2.160000e+00
 SP2dh  X4eh  1 4.300000e-01    2.920000e+00
 SP2dh  X3eh  1 4.300000e-01    2.920000e+00
 SP2dh  X2eh  1 4.300000e-01    2.770000e+00
 SP2dh  X1eh  1 4.300000e-01    2.530000e+00
 SP1dh  C6eh  1 4.300000e-01    2.920000e+00
 SP1dh  C5eh  1 4.300000e-01    2.770000e+00
 SP1dh  C4eh  1 4.300000e-01    2.530000e+00
 SP1dh  C3eh  1 4.300000e-01    2.320000e+00
 SP1dh  C2eh  1 4.300000e-01    2.320000e+00
 SP1dh  C1eh  1 4.300000e-01    2.160000e+00
 SP1dh  X4eh  1 4.300000e-01    2.920000e+00
 SP1dh  X3eh  1 4.300000e-01    2.920000e+00
 SP1dh  X2eh  1 4.300000e-01    2.770000e+00
 SP1dh  X1eh  1 4.300000e-01    2.530000e+00
 SN6dh  C6eh  1 4.300000e-01    3.160000e+00
 SN6dh  C5eh  1 4.300000e-01    2.920000e+00
 SN6dh  C4eh  1 4.300000e-01    2.770000e+00
 SN6dh  C3eh  1 4.300000e-01    2.530000e+00
 SN6dh  C2eh  1 4.300000e-01    2.530000e+00
 SN6dh  C1eh  1 4.300000e-01    2.320000e+00
 SN6dh  X4eh  1 4.300000e-01    3.160000e+00
 SN6dh  X3eh  1 4.300000e-01    2.920000e+00
 SN6dh  X2eh  1 4.300000e-01    2.770000e+00
 SN6dh  X1eh  1 4.300000e-01    2.530000e+00
 SN5dh  C6eh  1 4.300000e-01    3.160000e+00
 SN5dh  C5eh  1 4.300000e-01    2.920000e+00
 SN5dh  C4eh  1 4.300000e-01    2.770000e+00
 SN5dh  C3eh  1 4.300000e-01    2.770000e+00
 SN5dh  C2eh  1 4.300000e-01    2.530000e+00
 SN5dh  C1eh  1 4.300000e-01    2.320000e+00
 SN5dh  X4eh  1 4.300000e-01    3.380000e+00
 SN5dh  X3eh  1 4.300000e-01    3.160000e+00
 SN5dh  X2eh  1 4.300000e-01    2.920000e+00
 SN5dh  X1eh  1 4.300000e-01    2.770000e+00
 SN4dh  C6eh  1 4.300000e-01    3.160000e+00
 SN4dh  C5eh  1 4.300000e-01    2.920000e+00
 SN4dh  C4eh  1 4.300000e-01    2.920000e+00
 SN4dh  C3eh  1 4.300000e-01    2.770000e+00
 SN4dh  C2eh  1 4.300000e-01    2.530000e+00
 SN4dh  C1eh  1 4.300000e-01    2.320000e+00
 SN4dh  X4eh  1 4.300000e-01    3.590000e+00
 SN4dh  X3eh  1 4.300000e-01    3.380000e+00
 SN4dh  X2eh  1 4.300000e-01    2.920000e+00
 SN4dh  X1eh  1 4.300000e-01    2.770000e+00
 SN3dh  C6eh  1 4.300000e-01    3.160000e+00
 SN3dh  C5eh  1 4.300000e-01    2.920000e+00
 SN3dh  C4eh  1 4.300000e-01    2.920000e+00
 SN3dh  C3eh  1 4.300000e-01    2.770000e+00
 SN3dh  C2eh  1 4.300000e-01    2.770000e+00
 SN3dh  C1eh  1 4.300000e-01    2.530000e+00
 SN3dh  X4eh  1 4.300000e-01    3.380000e+00
 SN3dh  X3eh  1 4.300000e-01    3.160000e+00
 SN3dh  X2eh  1 4.300000e-01    2.920000e+00
 SN3dh  X1eh  1 4.300000e-01    2.920000e+00
 SN2dh  C6eh  1 4.300000e-01    3.160000e+00
 SN2dh  C5eh  1 4.300000e-01    2.920000e+00
 SN2dh  C4eh  1 4.300000e-01    2.920000e+00
 SN2dh  C3eh  1 4.300000e-01    2.920000e+00
 SN2dh  C2eh  1 4.300000e-01    2.770000e+00
 SN2dh  C1eh  1 4.300000e-01    2.530000e+00
 SN2dh  X4eh  1 4.300000e-01    3.380000e+00
 SN2dh  X3eh  1 4.300000e-01    3.160000e+00
 SN2dh  X2eh  1 4.300000e-01    2.920000e+00
 SN2dh  X1eh  1 4.300000e-01    2.920000e+00
 SN1dh  C6eh  1 4.300000e-01    3.380000e+00
 SN1dh  C5eh  1 4.300000e-01    3.160000e+00
 SN1dh  C4eh  1 4.300000e-01    3.160000e+00
 SN1dh  C3eh  1 4.300000e-01    2.920000e+00
 SN1dh  C2eh  1 4.300000e-01    2.770000e+00
 SN1dh  C1eh  1 4.300000e-01    2.530000e+00
 SN1dh  X4eh  1 4.300000e-01    3.160000e+00
 SN1dh  X3eh  1 4.300000e-01    3.160000e+00
 SN1dh  X2eh  1 4.300000e-01    2.920000e+00
 SN1dh  X1eh  1 4.300000e-01    2.920000e+00
  P6dh SC6er  1 4.300000e-01    2.530000e+00
  P6dh SC5er  1 4.300000e-01    2.320000e+00
  P6dh SC4er  1 4.300000e-01    2.160000e+00
  P6dh SC3er  1 4.300000e-01    1.930000e+00
  P6dh SC2er  1 4.300000e-01    1.930000e+00
  P6dh SC1er  1 4.430000e-01    1.480000e+00
  P6dh SX4er  1 4.300000e-01    2.770000e+00
  P6dh SX3er  1 4.300000e-01    2.770000e+00
  P6dh SX2er  1 4.300000e-01    2.530000e+00
  P6dh SX1er  1 4.300000e-01    2.320000e+00
  P5dh SC6er  1 4.300000e-01    2.530000e+00
  P5dh SC5er  1 4.300000e-01    2.530000e+00
  P5dh SC4er  1 4.300000e-01    2.320000e+00
  P5dh SC3er  1 4.300000e-01    2.160000e+00
  P5dh SC2er  1 4.300000e-01    2.160000e+00
  P5dh SC1er  1 4.300000e-01    1.930000e+00
  P5dh SX4er  1 4.300000e-01    2.920000e+00
  P5dh SX3er  1 4.300000e-01    2.770000e+00
  P5dh SX2er  1 4.300000e-01    2.770000e+00
  P5dh SX1er  1 4.300000e-01    2.320000e+00
  P4dh SC6er  1 4.300000e-01    2.770000e+00
  P4dh SC5er  1 4.300000e-01    2.530000e+00
  P4dh SC4er  1 4.300000e-01    2.320000e+00
  P4dh SC3er  1 4.300000e-01    2.160000e+00
  P4dh SC2er  1 4.300000e-01    2.160000e+00
  P4dh SC1er  1 4.300000e-01    1.930000e+00
  P4dh SX4er  1 4.300000e-01    2.920000e+00
  P4dh SX3er  1 4.300000e-01    2.770000e+00
  P4dh SX2er  1 4.300000e-01    2.770000e+00
  P4dh SX1er  1 4.300000e-01    2.530000e+00
  P3dh SC6er  1 4.300000e-01    2.920000e+00
  P3dh SC5er  1 4.300000e-01    2.770000e+00
  P3dh SC4er  1 4.300000e-01    2.530000e+00
  P3dh SC3er  1 4.300000e-01    2.160000e+00
  P3dh SC2er  1 4.300000e-01    2.160000e+00
  P3dh SC1er  1 4.300000e-01    1.930000e+00
  P3dh SX4er  1 4.300000e-01    2.920000e+00
  P3dh SX3er  1 4.300000e-01    2.920000e+00
  P3dh SX2er  1 4.300000e-01    2.770000e+00
  P3dh SX1er  1 4.300000e-01    2.530000e+00
  P2dh SC6er  1 4.300000e-01    2.920000e+00
  P2dh SC5er  1 4.300000e-01    2.770000e+00
  P2dh SC4er  1 4.300000e-01    2.530000e+00
  P2dh SC3er  1 4.300000e-01    2.320000e+00
  P2dh SC2er  1 4.300000e-01    2.320000e+00
  P2dh SC1er  1 4.300000e-01    2.160000e+00
  P2dh SX4er  1 4.300000e-01    2.920000e+00
  P2dh SX3er  1 4.300000e-01    2.920000e+00
  P2dh SX2er  1 4.300000e-01    2.770000e+00
  P2dh SX1er  1 4.300000e-01    2.530000e+00
  P1dh SC6er  1 4.300000e-01    2.920000e+00
  P1dh SC5er  1 4.300000e-01    2.770000e+00
  P1dh SC4er  1 4.300000e-01    2.530000e+00
  P1dh SC3er  1 4.300000e-01    2.320000e+00
  P1dh SC2er  1 4.300000e-01    2.320000e+00
  P1dh SC1er  1 4.300000e-01    2.160000e+00
  P1dh SX4er  1 4.300000e-01    2.920000e+00
  P1dh SX3er  1 4.300000e-01    2.920000e+00
  P1dh SX2er  1 4.300000e-01    2.770000e+00
  P1dh SX1er  1 4.300000e-01    2.530000e+00
  N6dh SC6er  1 4.300000e-01    3.160000e+00
  N6dh SC5er  1 4.300000e-01    2.920000e+00
  N6dh SC4er  1 4.300000e-01    2.770000e+00
  N6dh SC3er  1 4.300000e-01    2.530000e+00
  N6dh SC2er  1 4.300000e-01    2.530000e+00
  N6dh SC1er  1 4.300000e-01    2.320000e+00
  N6dh SX4er  1 4.300000e-01    3.160000e+00
  N6dh SX3er  1 4.300000e-01    2.920000e+00
  N6dh SX2er  1 4.300000e-01    2.770000e+00
  N6dh SX1er  1 4.300000e-01    2.530000e+00
  N5dh SC6er  1 4.300000e-01    3.160000e+00
  N5dh SC5er  1 4.300000e-01    2.920000e+00
  N5dh SC4er  1 4.300000e-01    2.770000e+00
  N5dh SC3er  1 4.300000e-01    2.770000e+00
  N5dh SC2er  1 4.300000e-01    2.530000e+00
  N5dh SC1er  1 4.300000e-01    2.320000e+00
  N5dh SX4er  1 4.300000e-01    3.380000e+00
  N5dh SX3er  1 4.300000e-01    3.160000e+00
  N5dh SX2er  1 4.300000e-01    2.920000e+00
  N5dh SX1er  1 4.300000e-01    2.770000e+00
  N4dh SC6er  1 4.300000e-01    3.160000e+00
  N4dh SC5er  1 4.300000e-01    2.920000e+00
  N4dh SC4er  1 4.300000e-01    2.920000e+00
  N4dh SC3er  1 4.300000e-01    2.770000e+00
  N4dh SC2er  1 4.300000e-01    2.530000e+00
  N4dh SC1er  1 4.300000e-01    2.320000e+00
  N4dh SX4er  1 4.300000e-01    3.590000e+00
  N4dh SX3er  1 4.300000e-01    3.380000e+00
  N4dh SX2er  1 4.300000e-01    2.920000e+00
  N4dh SX1er  1 4.300000e-01    2.770000e+00
  N3dh SC6er  1 4.300000e-01    3.160000e+00
  N3dh SC5er  1 4.300000e-01    2.920000e+00
  N3dh SC4er  1 4.300000e-01    2.920000e+00
  N3dh SC3er  1 4.300000e-01    2.770000e+00
  N3dh SC2er  1 4.300000e-01    2.770000e+00
  N3dh SC1er  1 4.300000e-01    2.530000e+00
  N3dh SX4er  1 4.300000e-01    3.380000e+00
  N3dh SX3er  1 4.300000e-01    3.160000e+00
  N3dh SX2er  1 4.300000e-01    2.920000e+00
  N3dh SX1er  1 4.300000e-01    2.920000e+00
  N2dh SC6er  1 4.300000e-01    3.160000e+00
  N2dh SC5er  1 4.300000e-01    2.920000e+00
  N2dh SC4er  1 4.300000e-01    2.920000e+00
  N2dh SC3er  1 4.300000e-01    2.920000e+00
  N2dh SC2er  1 4.300000e-01    2.770000e+00
  N2dh SC1er  1 4.300000e-01    2.530000e+00
  N2dh SX4er  1 4.300000e-01    3.380000e+00
  N2dh SX3er  1 4.300000e-01    3.160000e+00
  N2dh SX2er  1 4.300000e-01    2.920000e+00
  N2dh SX1er  1 4.300000e-01    2.920000e+00
  N1dh SC6er  1 4.300000e-01    3.380000e+00
  N1dh SC5er  1 4.300000e-01    3.160000e+00
  N1dh SC4er  1 4.300000e-01    3.160000e+00
  N1dh SC3er  1 4.300000e-01    2.920000e+00
  N1dh SC2er  1 4.300000e-01    2.770000e+00
  N1dh SC1er  1 4.300000e-01    2.530000e+00
  N1dh SX4er  1 4.300000e-01    3.160000e+00
  N1dh SX3er  1 4.300000e-01    3.160000e+00
  N1dh SX2er  1 4.300000e-01    2.920000e+00
  N1dh SX1er  1 4.300000e-01    2.920000e+00
 SP6dh  C6er  1 4.300000e-01    2.530000e+00
 SP6dh  C5er  1 4.300000e-01    2.320000e+00
 SP6dh  C4er  1 4.300000e-01    2.160000e+00
 SP6dh  C3er  1 4.300000e-01    1.930000e+00
 SP6dh  C2er  1 4.300000e-01    1.930000e+00
 SP6dh  C1er  1 4.430000e-01    1.480000e+00
 SP6dh  X4er  1 4.300000e-01    2.770000e+00
 SP6dh  X3er  1 4.300000e-01    2.770000e+00
 SP6dh  X2er  1 4.300000e-01    2.530000e+00
 SP6dh  X1er  1 4.300000e-01    2.320000e+00
 SP5dh  C6er  1 4.300000e-01    2.530000e+00
 SP5dh  C5er  1 4.300000e-01    2.530000e+00
 SP5dh  C4er  1 4.300000e-01    2.320000e+00
 SP5dh  C3er  1 4.300000e-01    2.160000e+00
 SP5dh  C2er  1 4.300000e-01    2.160000e+00
 SP5dh  C1er  1 4.300000e-01    1.930000e+00
 SP5dh  X4er  1 4.300000e-01    2.920000e+00
 SP5dh  X3er  1 4.300000e-01    2.770000e+00
 SP5dh  X2er  1 4.300000e-01    2.770000e+00
 SP5dh  X1er  1 4.300000e-01    2.320000e+00
 SP4dh  C6er  1 4.300000e-01    2.770000e+00
 SP4dh  C5er  1 4.300000e-01    2.530000e+00
 SP4dh  C4er  1 4.300000e-01    2.320000e+00
 SP4dh  C3er  1 4.300000e-01    2.160000e+00
 SP4dh  C2er  1 4.300000e-01    2.160000e+00
 SP4dh  C1er  1 4.300000e-01    1.930000e+00
 SP4dh  X4er  1 4.300000e-01    2.920000e+00
 SP4dh  X3er  1 4.300000e-01    2.770000e+00
 SP4dh  X2er  1 4.300000e-01    2.770000e+00
 SP4dh  X1er  1 4.300000e-01    2.530000e+00
 SP3dh  C6er  1 4.300000e-01    2.920000e+00
 SP3dh  C5er  1 4.300000e-01    2.770000e+00
 SP3dh  C4er  1 4.300000e-01    2.530000e+00
 SP3dh  C3er  1 4.300000e-01    2.160000e+00
 SP3dh  C2er  1 4.300000e-01    2.160000e+00
 SP3dh  C1er  1 4.300000e-01    1.930000e+00
 SP3dh  X4er  1 4.300000e-01    2.920000e+00
 SP3dh  X3er  1 4.300000e-01    2.920000e+00
 SP3dh  X2er  1 4.300000e-01    2.770000e+00
 SP3dh  X1er  1 4.300000e-01    2.530000e+00
 SP2dh  C6er  1 4.300000e-01    2.920000e+00
 SP2dh  C5er  1 4.300000e-01    2.770000e+00
 SP2dh  C4er  1 4.300000e-01    2.530000e+00
 SP2dh  C3er  1 4.300000e-01    2.320000e+00
 SP2dh  C2er  1 4.300000e-01    2.320000e+00
 SP2dh  C1er  1 4.300000e-01    2.160000e+00
 SP2dh  X4er  1 4.300000e-01    2.920000e+00
 SP2dh  X3er  1 4.300000e-01    2.920000e+00
 SP2dh  X2er  1 4.300000e-01    2.770000e+00
 SP2dh  X1er  1 4.300000e-01    2.530000e+00
 SP1dh  C6er  1 4.300000e-01    2.920000e+00
 SP1dh  C5er  1 4.300000e-01    2.770000e+00
 SP1dh  C4er  1 4.300000e-01    2.530000e+00
 SP1dh  C3er  1 4.300000e-01    2.320000e+00
 SP1dh  C2er  1 4.300000e-01    2.320000e+00
 SP1dh  C1er  1 4.300000e-01    2.160000e+00
 SP1dh  X4er  1 4.300000e-01    2.920000e+00
 SP1dh  X3er  1 4.300000e-01    2.920000e+00
 SP1dh  X2er  1 4.300000e-01    2.770000e+00
 SP1dh  X1er  1 4.300000e-01    2.530000e+00
 SN6dh  C6er  1 4.300000e-01    3.160000e+00
 SN6dh  C5er  1 4.300000e-01    2.920000e+00
 SN6dh  C4er  1 4.300000e-01    2.770000e+00
 SN6dh  C3er  1 4.300000e-01    2.530000e+00
 SN6dh  C2er  1 4.300000e-01    2.530000e+00
 SN6dh  C1er  1 4.300000e-01    2.320000e+00
 SN6dh  X4er  1 4.300000e-01    3.160000e+00
 SN6dh  X3er  1 4.300000e-01    2.920000e+00
 SN6dh  X2er  1 4.300000e-01    2.770000e+00
 SN6dh  X1er  1 4.300000e-01    2.530000e+00
 SN5dh  C6er  1 4.300000e-01    3.160000e+00
 SN5dh  C5er  1 4.300000e-01    2.920000e+00
 SN5dh  C4er  1 4.300000e-01    2.770000e+00
 SN5dh  C3er  1 4.300000e-01    2.770000e+00
 SN5dh  C2er  1 4.300000e-01    2.530000e+00
 SN5dh  C1er  1 4.300000e-01    2.320000e+00
 SN5dh  X4er  1 4.300000e-01    3.380000e+00
 SN5dh  X3er  1 4.300000e-01    3.160000e+00
 SN5dh  X2er  1 4.300000e-01    2.920000e+00
 SN5dh  X1er  1 4.300000e-01    2.770000e+00
 SN4dh  C6er  1 4.300000e-01    3.160000e+00
 SN4dh  C5er  1 4.300000e-01    2.920000e+00
 SN4dh  C4er  1 4.300000e-01    2.920000e+00
 SN4dh  C3er  1 4.300000e-01    2.770000e+00
 SN4dh  C2er  1 4.300000e-01    2.530000e+00
 SN4dh  C1er  1 4.300000e-01    2.320000e+00
 SN4dh  X4er  1 4.300000e-01    3.590000e+00
 SN4dh  X3er  1 4.300000e-01    3.380000e+00
 SN4dh  X2er  1 4.300000e-01    2.920000e+00
 SN4dh  X1er  1 4.300000e-01    2.770000e+00
 SN3dh  C6er  1 4.300000e-01    3.160000e+00
 SN3dh  C5er  1 4.300000e-01    2.920000e+00
 SN3dh  C4er  1 4.300000e-01    2.920000e+00
 SN3dh  C3er  1 4.300000e-01    2.770000e+00
 SN3dh  C2er  1 4.300000e-01    2.770000e+00
 SN3dh  C1er  1 4.300000e-01    2.530000e+00
 SN3dh  X4er  1 4.300000e-01    3.380000e+00
 SN3dh  X3er  1 4.300000e-01    3.160000e+00
 SN3dh  X2er  1 4.300000e-01    2.920000e+00
 SN3dh  X1er  1 4.300000e-01    2.920000e+00
 SN2dh  C6er  1 4.300000e-01    3.160000e+00
 SN2dh  C5er  1 4.300000e-01    2.920000e+00
 SN2dh  C4er  1 4.300000e-01    2.920000e+00
 SN2dh  C3er  1 4.300000e-01    2.920000e+00
 SN2dh  C2er  1 4.300000e-01    2.770000e+00
 SN2dh  C1er  1 4.300000e-01    2.530000e+00
 SN2dh  X4er  1 4.300000e-01    3.380000e+00
 SN2dh  X3er  1 4.300000e-01    3.160000e+00
 SN2dh  X2er  1 4.300000e-01    2.920000e+00
 SN2dh  X1er  1 4.300000e-01    2.920000e+00
 SN1dh  C6er  1 4.300000e-01    3.380000e+00
 SN1dh  C5er  1 4.300000e-01    3.160000e+00
 SN1dh  C4er  1 4.300000e-01    3.160000e+00
 SN1dh  C3er  1 4.300000e-01    2.920000e+00
 SN1dh  C2er  1 4.300000e-01    2.770000e+00
 SN1dh  C1er  1 4.300000e-01    2.530000e+00
 SN1dh  X4er  1 4.300000e-01    3.160000e+00
 SN1dh  X3er  1 4.300000e-01    3.160000e+00
 SN1dh  X2er  1 4.300000e-01    2.920000e+00
 SN1dh  X1er  1 4.300000e-01    2.920000e+00
  P6dr  SC6e  1 4.300000e-01    2.530000e+00
  P6dr  SC5e  1 4.300000e-01    2.320000e+00
  P6dr  SC4e  1 4.300000e-01    2.160000e+00
  P6dr  SC3e  1 4.300000e-01    1.930000e+00
  P6dr  SC2e  1 4.300000e-01    1.930000e+00
  P6dr  SC1e  1 4.430000e-01    1.480000e+00
  P6dr  SX4e  1 4.300000e-01    2.770000e+00
  P6dr  SX3e  1 4.300000e-01    2.770000e+00
  P6dr  SX2e  1 4.300000e-01    2.530000e+00
  P6dr  SX1e  1 4.300000e-01    2.320000e+00
  P5dr  SC6e  1 4.300000e-01    2.530000e+00
  P5dr  SC5e  1 4.300000e-01    2.530000e+00
  P5dr  SC4e  1 4.300000e-01    2.320000e+00
  P5dr  SC3e  1 4.300000e-01    2.160000e+00
  P5dr  SC2e  1 4.300000e-01    2.160000e+00
  P5dr  SC1e  1 4.300000e-01    1.930000e+00
  P5dr  SX4e  1 4.300000e-01    2.920000e+00
  P5dr  SX3e  1 4.300000e-01    2.770000e+00
  P5dr  SX2e  1 4.300000e-01    2.770000e+00
  P5dr  SX1e  1 4.300000e-01    2.320000e+00
  P4dr  SC6e  1 4.300000e-01    2.770000e+00
  P4dr  SC5e  1 4.300000e-01    2.530000e+00
  P4dr  SC4e  1 4.300000e-01    2.320000e+00
  P4dr  SC3e  1 4.300000e-01    2.160000e+00
  P4dr  SC2e  1 4.300000e-01    2.160000e+00
  P4dr  SC1e  1 4.300000e-01    1.930000e+00
  P4dr  SX4e  1 4.300000e-01    2.920000e+00
  P4dr  SX3e  1 4.300000e-01    2.770000e+00
  P4dr  SX2e  1 4.300000e-01    2.770000e+00
  P4dr  SX1e  1 4.300000e-01    2.530000e+00
  P3dr  SC6e  1 4.300000e-01    2.920000e+00
  P3dr  SC5e  1 4.300000e-01    2.770000e+00
  P3dr  SC4e  1 4.300000e-01    2.530000e+00
  P3dr  SC3e  1 4.300000e-01    2.160000e+00
  P3dr  SC2e  1 4.300000e-01    2.160000e+00
  P3dr  SC1e  1 4.300000e-01    1.930000e+00
  P3dr  SX4e  1 4.300000e-01    2.920000e+00
  P3dr  SX3e  1 4.300000e-01    2.920000e+00
  P3dr  SX2e  1 4.300000e-01    2.770000e+00
  P3dr  SX1e  1 4.300000e-01    2.530000e+00
  P2dr  SC6e  1 4.300000e-01    2.920000e+00
  P2dr  SC5e  1 4.300000e-01    2.770000e+00
  P2dr  SC4e  1 4.300000e-01    2.530000e+00
  P2dr  SC3e  1 4.300000e-01    2.320000e+00
  P2dr  SC2e  1 4.300000e-01    2.320000e+00
  P2dr  SC1e  1 4.300000e-01    2.160000e+00
  P2dr  SX4e  1 4.300000e-01    2.920000e+00
  P2dr  SX3e  1 4.300000e-01    2.920000e+00
  P2dr  SX2e  1 4.300000e-01    2.770000e+00
  P2dr  SX1e  1 4.300000e-01    2.530000e+00
  P1dr  SC6e  1 4.300000e-01    2.920000e+00
  P1dr  SC5e  1 4.300000e-01    2.770000e+00
  P1dr  SC4e  1 4.300000e-01    2.530000e+00
  P1dr  SC3e  1 4.300000e-01    2.320000e+00
  P1dr  SC2e  1 4.300000e-01    2.320000e+00
  P1dr  SC1e  1 4.300000e-01    2.160000e+00
  P1dr  SX4e  1 4.300000e-01    2.920000e+00
  P1dr  SX3e  1 4.300000e-01    2.920000e+00
  P1dr  SX2e  1 4.300000e-01    2.770000e+00
  P1dr  SX1e  1 4.300000e-01    2.530000e+00
  N6dr  SC6e  1 4.300000e-01    3.160000e+00
  N6dr  SC5e  1 4.300000e-01    2.920000e+00
  N6dr  SC4e  1 4.300000e-01    2.770000e+00
  N6dr  SC3e  1 4.300000e-01    2.530000e+00
  N6dr  SC2e  1 4.300000e-01    2.530000e+00
  N6dr  SC1e  1 4.300000e-01    2.320000e+00
  N6dr  SX4e  1 4.300000e-01    3.160000e+00
  N6dr  SX3e  1 4.300000e-01    2.920000e+00
  N6dr  SX2e  1 4.300000e-01    2.770000e+00
  N6dr  SX1e  1 4.300000e-01    2.530000e+00
  N5dr  SC6e  1 4.300000e-01    3.160000e+00
  N5dr  SC5e  1 4.300000e-01    2.920000e+00
  N5dr  SC4e  1 4.300000e-01    2.770000e+00
  N5dr  SC3e  1 4.300000e-01    2.770000e+00
  N5dr  SC2e  1 4.300000e-01    2.530000e+00
  N5dr  SC1e  1 4.300000e-01    2.320000e+00
  N5dr  SX4e  1 4.300000e-01    3.380000e+00
  N5dr  SX3e  1 4.300000e-01    3.160000e+00
  N5dr  SX2e  1 4.300000e-01    2.920000e+00
  N5dr  SX1e  1 4.300000e-01    2.770000e+00
  N4dr  SC6e  1 4.300000e-01    3.160000e+00
  N4dr  SC5e  1 4.300000e-01    2.920000e+00
  N4dr  SC4e  1 4.300000e-01    2.920000e+00
  N4dr  SC3e  1 4.300000e-01    2.770000e+00
  N4dr  SC2e  1 4.300000e-01    2.530000e+00
  N4dr  SC1e  1 4.300000e-01    2.320000e+00
  N4dr  SX4e  1 4.300000e-01    3.590000e+00
  N4dr  SX3e  1 4.300000e-01    3.380000e+00
  N4dr  SX2e  1 4.300000e-01    2.920000e+00
  N4dr  SX1e  1 4.300000e-01    2.770000e+00
  N3dr  SC6e  1 4.300000e-01    3.160000e+00
  N3dr  SC5e  1 4.300000e-01    2.920000e+00
  N3dr  SC4e  1 4.300000e-01    2.920000e+00
  N3dr  SC3e  1 4.300000e-01    2.770000e+00
  N3dr  SC2e  1 4.300000e-01    2.770000e+00
  N3dr  SC1e  1 4.300000e-01    2.530000e+00
  N3dr  SX4e  1 4.300000e-01    3.380000e+00
  N3dr  SX3e  1 4.300000e-01    3.160000e+00
  N3dr  SX2e  1 4.300000e-01    2.920000e+00
  N3dr  SX1e  1 4.300000e-01    2.920000e+00
  N2dr  SC6e  1 4.300000e-01    3.160000e+00
  N2dr  SC5e  1 4.300000e-01    2.920000e+00
  N2dr  SC4e  1 4.300000e-01    2.920000e+00
  N2dr  SC3e  1 4.300000e-01    2.920000e+00
  N2dr  SC2e  1 4.300000e-01    2.770000e+00
  N2dr  SC1e  1 4.300000e-01    2.530000e+00
  N2dr  SX4e  1 4.300000e-01    3.380000e+00
  N2dr  SX3e  1 4.300000e-01    3.160000e+00
  N2dr  SX2e  1 4.300000e-01    2.920000e+00
  N2dr  SX1e  1 4.300000e-01    2.920000e+00
  N1dr  SC6e  1 4.300000e-01    3.380000e+00
  N1dr  SC5e  1 4.300000e-01    3.160000e+00
  N1dr  SC4e  1 4.300000e-01    3.160000e+00
  N1dr  SC3e  1 4.300000e-01    2.920000e+00
  N1dr  SC2e  1 4.300000e-01    2.770000e+00
  N1dr  SC1e  1 4.300000e-01    2.530000e+00
  N1dr  SX4e  1 4.300000e-01    3.160000e+00
  N1dr  SX3e  1 4.300000e-01    3.160000e+00
  N1dr  SX2e  1 4.300000e-01    2.920000e+00
  N1dr  SX1e  1 4.300000e-01    2.920000e+00
 SP6dr   C6e  1 4.300000e-01    2.530000e+00
 SP6dr   C5e  1 4.300000e-01    2.320000e+00
 SP6dr   C4e  1 4.300000e-01    2.160000e+00
 SP6dr   C3e  1 4.300000e-01    1.930000e+00
 SP6dr   C2e  1 4.300000e-01    1.930000e+00
 SP6dr   C1e  1 4.430000e-01    1.480000e+00
 SP6dr   X4e  1 4.300000e-01    2.770000e+00
 SP6dr   X3e  1 4.300000e-01    2.770000e+00
 SP6dr   X2e  1 4.300000e-01    2.530000e+00
 SP6dr   X1e  1 4.300000e-01    2.320000e+00
 SP5dr   C6e  1 4.300000e-01    2.530000e+00
 SP5dr   C5e  1 4.300000e-01    2.530000e+00
 SP5dr   C4e  1 4.300000e-01    2.320000e+00
 SP5dr   C3e  1 4.300000e-01    2.160000e+00
 SP5dr   C2e  1 4.300000e-01    2.160000e+00
 SP5dr   C1e  1 4.300000e-01    1.930000e+00
 SP5dr   X4e  1 4.300000e-01    2.920000e+00
 SP5dr   X3e  1 4.300000e-01    2.770000e+00
 SP5dr   X2e  1 4.300000e-01    2.770000e+00
 SP5dr   X1e  1 4.300000e-01    2.320000e+00
 SP4dr   C6e  1 4.300000e-01    2.770000e+00
 SP4dr   C5e  1 4.300000e-01    2.530000e+00
 SP4dr   C4e  1 4.300000e-01    2.320000e+00
 SP4dr   C3e  1 4.300000e-01    2.160000e+00
 SP4dr   C2e  1 4.300000e-01    2.160000e+00
 SP4dr   C1e  1 4.300000e-01    1.930000e+00
 SP4dr   X4e  1 4.300000e-01    2.920000e+00
 SP4dr   X3e  1 4.300000e-01    2.770000e+00
 SP4dr   X2e  1 4.300000e-01    2.770000e+00
 SP4dr   X1e  1 4.300000e-01    2.530000e+00
 SP3dr   C6e  1 4.300000e-01    2.920000e+00
 SP3dr   C5e  1 4.300000e-01    2.770000e+00
 SP3dr   C4e  1 4.300000e-01    2.530000e+00
 SP3dr   C3e  1 4.300000e-01    2.160000e+00
 SP3dr   C2e  1 4.300000e-01    2.160000e+00
 SP3dr   C1e  1 4.300000e-01    1.930000e+00
 SP3dr   X4e  1 4.300000e-01    2.920000e+00
 SP3dr   X3e  1 4.300000e-01    2.920000e+00
 SP3dr   X2e  1 4.300000e-01    2.770000e+00
 SP3dr   X1e  1 4.300000e-01    2.530000e+00
 SP2dr   C6e  1 4.300000e-01    2.920000e+00
 SP2dr   C5e  1 4.300000e-01    2.770000e+00
 SP2dr   C4e  1 4.300000e-01    2.530000e+00
 SP2dr   C3e  1 4.300000e-01    2.320000e+00
 SP2dr   C2e  1 4.300000e-01    2.320000e+00
 SP2dr   C1e  1 4.300000e-01    2.160000e+00
 SP2dr   X4e  1 4.300000e-01    2.920000e+00
 SP2dr   X3e  1 4.300000e-01    2.920000e+00
 SP2dr   X2e  1 4.300000e-01    2.770000e+00
 SP2dr   X1e  1 4.300000e-01    2.530000e+00
 SP1dr   C6e  1 4.300000e-01    2.920000e+00
 SP1dr   C5e  1 4.300000e-01    2.770000e+00
 SP1dr   C4e  1 4.300000e-01    2.530000e+00
 SP1dr   C3e  1 4.300000e-01    2.320000e+00
 SP1dr   C2e  1 4.300000e-01    2.320000e+00
 SP1dr   C1e  1 4.300000e-01    2.160000e+00
 SP1dr   X4e  1 4.300000e-01    2.920000e+00
 SP1dr   X3e  1 4.300000e-01    2.920000e+00
 SP1dr   X2e  1 4.300000e-01    2.770000e+00
 SP1dr   X1e  1 4.300000e-01    2.530000e+00
 SN6dr   C6e  1 4.300000e-01    3.160000e+00
 SN6dr   C5e  1 4.300000e-01    2.920000e+00
 SN6dr   C4e  1 4.300000e-01    2.770000e+00
 SN6dr   C3e  1 4.300000e-01    2.530000e+00
 SN6dr   C2e  1 4.300000e-01    2.530000e+00
 SN6dr   C1e  1 4.300000e-01    2.320000e+00
 SN6dr   X4e  1 4.300000e-01    3.160000e+00
 SN6dr   X3e  1 4.300000e-01    2.920000e+00
 SN6dr   X2e  1 4.300000e-01    2.770000e+00
 SN6dr   X1e  1 4.300000e-01    2.530000e+00
 SN5dr   C6e  1 4.300000e-01    3.160000e+00
 SN5dr   C5e  1 4.300000e-01    2.920000e+00
 SN5dr   C4e  1 4.300000e-01    2.770000e+00
 SN5dr   C3e  1 4.300000e-01    2.770000e+00
 SN5dr   C2e  1 4.300000e-01    2.530000e+00
 SN5dr   C1e  1 4.300000e-01    2.320000e+00
 SN5dr   X4e  1 4.300000e-01    3.380000e+00
 SN5dr   X3e  1 4.300000e-01    3.160000e+00
 SN5dr   X2e  1 4.300000e-01    2.920000e+00
 SN5dr   X1e  1 4.300000e-01    2.770000e+00
 SN4dr   C6e  1 4.300000e-01    3.160000e+00
 SN4dr   C5e  1 4.300000e-01    2.920000e+00
 SN4dr   C4e  1 4.300000e-01    2.920000e+00
 SN4dr   C3e  1 4.300000e-01    2.770000e+00
 SN4dr   C2e  1 4.300000e-01    2.530000e+00
 SN4dr   C1e  1 4.300000e-01    2.320000e+00
 SN4dr   X4e  1 4.300000e-01    3.590000e+00
 SN4dr   X3e  1 4.300000e-01    3.380000e+00
 SN4dr   X2e  1 4.300000e-01    2.920000e+00
 SN4dr   X1e  1 4.300000e-01    2.770000e+00
 SN3dr   C6e  1 4.300000e-01    3.160000e+00
 SN3dr   C5e  1 4.300000e-01    2.920000e+00
 SN3dr   C4e  1 4.300000e-01    2.920000e+00
 SN3dr   C3e  1 4.300000e-01    2.770000e+00
 SN3dr   C2e  1 4.300000e-01    2.770000e+00
 SN3dr   C1e  1 4.300000e-01    2.530000e+00
 SN3dr   X4e  1 4.300000e-01    3.380000e+00
 SN3dr   X3e  1 4.300000e-01    3.160000e+00
 SN3dr   X2e  1 4.300000e-01    2.920000e+00
 SN3dr   X1e  1 4.300000e-01    2.920000e+00
 SN2dr   C6e  1 4.300000e-01    3.160000e+00
 SN2dr   C5e  1 4.300000e-01    2.920000e+00
 SN2dr   C4e  1 4.300000e-01    2.920000e+00
 SN2dr   C3e  1 4.300000e-01    2.920000e+00
 SN2dr   C2e  1 4.300000e-01    2.770000e+00
 SN2dr   C1e  1 4.300000e-01    2.530000e+00
 SN2dr   X4e  1 4.300000e-01    3.380000e+00
 SN2dr   X3e  1 4.300000e-01    3.160000e+00
 SN2dr   X2e  1 4.300000e-01    2.920000e+00
 SN2dr   X1e  1 4.300000e-01    2.920000e+00
 SN1dr   C6e  1 4.300000e-01    3.380000e+00
 SN1dr   C5e  1 4.300000e-01    3.160000e+00
 SN1dr   C4e  1 4.300000e-01    3.160000e+00
 SN1dr   C3e  1 4.300000e-01    2.920000e+00
 SN1dr   C2e  1 4.300000e-01    2.770000e+00
 SN1dr   C1e  1 4.300000e-01    2.530000e+00
 SN1dr   X4e  1 4.300000e-01    3.160000e+00
 SN1dr   X3e  1 4.300000e-01    3.160000e+00
 SN1dr   X2e  1 4.300000e-01    2.920000e+00
 SN1dr   X1e  1 4.300000e-01    2.920000e+00
  P6dr SX1eq  1 4.300000e-01    2.770000e+00
  P6dr SX2eq  1 4.300000e-01    2.920000e+00
  P6dr SX3eq  1 4.300000e-01    3.160000e+00
  P6dr SX4eq  1 4.300000e-01    3.160000e+00
  P6dr SC1eq  1 4.300000e-01    1.930000e+00
  P6dr SC2eq  1 4.300000e-01    2.320000e+00
  P6dr SC3eq  1 4.300000e-01    2.320000e+00
  P6dr SC4eq  1 4.300000e-01    2.530000e+00
  P6dr SC5eq  1 4.300000e-01    2.770000e+00
  P6dr SC6eq  1 4.300000e-01    2.920000e+00
  P5dr SX1eq  1 4.300000e-01    2.770000e+00
  P5dr SX2eq  1 4.300000e-01    3.160000e+00
  P5dr SX3eq  1 4.300000e-01    3.160000e+00
  P5dr SX4eq  1 4.300000e-01    3.380000e+00
  P5dr SC1eq  1 4.300000e-01    2.320000e+00
  P5dr SC2eq  1 4.300000e-01    2.530000e+00
  P5dr SC3eq  1 4.300000e-01    2.530000e+00
  P5dr SC4eq  1 4.300000e-01    2.770000e+00
  P5dr SC5eq  1 4.300000e-01    2.920000e+00
  P5dr SC6eq  1 4.300000e-01    2.920000e+00
  P4dr SX1eq  1 4.300000e-01    2.920000e+00
  P4dr SX2eq  1 4.300000e-01    3.160000e+00
  P4dr SX3eq  1 4.300000e-01    3.160000e+00
  P4dr SX4eq  1 4.300000e-01    3.380000e+00
  P4dr SC1eq  1 4.300000e-01    2.320000e+00
  P4dr SC2eq  1 4.300000e-01    2.530000e+00
  P4dr SC3eq  1 4.300000e-01    2.530000e+00
  P4dr SC4eq  1 4.300000e-01    2.770000e+00
  P4dr SC5eq  1 4.300000e-01    2.920000e+00
  P4dr SC6eq  1 4.300000e-01    3.160000e+00
  P3dr SX1eq  1 4.300000e-01    2.920000e+00
  P3dr SX2eq  1 4.300000e-01    3.160000e+00
  P3dr SX3eq  1 4.300000e-01    3.380000e+00
  P3dr SX4eq  1 4.300000e-01    3.380000e+00
  P3dr SC1eq  1 4.300000e-01    2.320000e+00
  P3dr SC2eq  1 4.300000e-01    2.530000e+00
  P3dr SC3eq  1 4.300000e-01    2.530000e+00
  P3dr SC4eq  1 4.300000e-01    2.920000e+00
  P3dr SC5eq  1 4.300000e-01    3.160000e+00
  P3dr SC6eq  1 4.300000e-01    3.380000e+00
  P2dr SX1eq  1 4.300000e-01    2.920000e+00
  P2dr SX2eq  1 4.300000e-01    3.160000e+00
  P2dr SX3eq  1 4.300000e-01    3.380000e+00
  P2dr SX4eq  1 4.300000e-01    3.380000e+00
  P2dr SC1eq  1 4.300000e-01    2.530000e+00
  P2dr SC2eq  1 4.300000e-01    2.770000e+00
  P2dr SC3eq  1 4.300000e-01    2.770000e+00
  P2dr SC4eq  1 4.300000e-01    2.920000e+00
  P2dr SC5eq  1 4.300000e-01    3.160000e+00
  P2dr SC6eq  1 4.300000e-01    3.380000e+00
  P1dr SX1eq  1 4.300000e-01    2.920000e+00
  P1dr SX2eq  1 4.300000e-01    3.160000e+00
  P1dr SX3eq  1 4.300000e-01    3.380000e+00
  P1dr SX4eq  1 4.300000e-01    3.380000e+00
  P1dr SC1eq  1 4.300000e-01    2.530000e+00
  P1dr SC2eq  1 4.300000e-01    2.770000e+00
  P1dr SC3eq  1 4.300000e-01    2.770000e+00
  P1dr SC4eq  1 4.300000e-01    2.920000e+00
  P1dr SC5eq  1 4.300000e-01    3.160000e+00
  P1dr SC6eq  1 4.300000e-01    3.380000e+00
  N6dr SX1eq  1 4.300000e-01    2.920000e+00
  N6dr SX2eq  1 4.300000e-01    3.160000e+00
  N6dr SX3eq  1 4.300000e-01    3.380000e+00
  N6dr SX4eq  1 4.300000e-01    3.590000e+00
  N6dr SC1eq  1 4.300000e-01    2.770000e+00
  N6dr SC2eq  1 4.300000e-01    2.920000e+00
  N6dr SC3eq  1 4.300000e-01    2.920000e+00
  N6dr SC4eq  1 4.300000e-01    3.160000e+00
  N6dr SC5eq  1 4.300000e-01    3.380000e+00
  N6dr SC6eq  1 4.300000e-01    3.590000e+00
  N5dr SX1eq  1 4.300000e-01    3.160000e+00
  N5dr SX2eq  1 4.300000e-01    3.380000e+00
  N5dr SX3eq  1 4.300000e-01    3.590000e+00
  N5dr SX4eq  1 4.300000e-01    3.770000e+00
  N5dr SC1eq  1 4.300000e-01    2.770000e+00
  N5dr SC2eq  1 4.300000e-01    2.920000e+00
  N5dr SC3eq  1 4.300000e-01    3.160000e+00
  N5dr SC4eq  1 4.300000e-01    3.160000e+00
  N5dr SC5eq  1 4.300000e-01    3.380000e+00
  N5dr SC6eq  1 4.300000e-01    3.590000e+00
  N4dr SX1eq  1 4.300000e-01    3.160000e+00
  N4dr SX2eq  1 4.300000e-01    3.380000e+00
  N4dr SX3eq  1 4.300000e-01    3.770000e+00
  N4dr SX4eq  1 4.300000e-01    3.970000e+00
  N4dr SC1eq  1 4.300000e-01    2.770000e+00
  N4dr SC2eq  1 4.300000e-01    2.920000e+00
  N4dr SC3eq  1 4.300000e-01    3.160000e+00
  N4dr SC4eq  1 4.300000e-01    3.380000e+00
  N4dr SC5eq  1 4.300000e-01    3.380000e+00
  N4dr SC6eq  1 4.300000e-01    3.590000e+00
  N3dr SX1eq  1 4.300000e-01    3.380000e+00
  N3dr SX2eq  1 4.300000e-01    3.380000e+00
  N3dr SX3eq  1 4.300000e-01    3.590000e+00
  N3dr SX4eq  1 4.300000e-01    3.770000e+00
  N3dr SC1eq  1 4.300000e-01    2.920000e+00
  N3dr SC2eq  1 4.300000e-01    3.160000e+00
  N3dr SC3eq  1 4.300000e-01    3.160000e+00
  N3dr SC4eq  1 4.300000e-01    3.380000e+00
  N3dr SC5eq  1 4.300000e-01    3.380000e+00
  N3dr SC6eq  1 4.300000e-01    3.590000e+00
  N2dr SX1eq  1 4.300000e-01    3.380000e+00
  N2dr SX2eq  1 4.300000e-01    3.380000e+00
  N2dr SX3eq  1 4.300000e-01    3.590000e+00
  N2dr SX4eq  1 4.300000e-01    3.770000e+00
  N2dr SC1eq  1 4.300000e-01    2.920000e+00
  N2dr SC2eq  1 4.300000e-01    3.160000e+00
  N2dr SC3eq  1 4.300000e-01    3.380000e+00
  N2dr SC4eq  1 4.300000e-01    3.380000e+00
  N2dr SC5eq  1 4.300000e-01    3.380000e+00
  N2dr SC6eq  1 4.300000e-01    3.590000e+00
  N1dr SX1eq  1 4.300000e-01    3.380000e+00
  N1dr SX2eq  1 4.300000e-01    3.380000e+00
  N1dr SX3eq  1 4.300000e-01    3.590000e+00
  N1dr SX4eq  1 4.300000e-01    3.590000e+00
  N1dr SC1eq  1 4.300000e-01    2.920000e+00
  N1dr SC2eq  1 4.300000e-01    3.160000e+00
  N1dr SC3eq  1 4.300000e-01    3.380000e+00
  N1dr SC4eq  1 4.300000e-01    3.590000e+00
  N1dr SC5eq  1 4.300000e-01    3.590000e+00
  N1dr SC6eq  1 4.300000e-01    3.770000e+00
 SP6dr  X1eq  1 4.300000e-01    2.770000e+00
 SP6dr  X2eq  1 4.300000e-01    2.920000e+00
 SP6dr  X3eq  1 4.300000e-01    3.160000e+00
 SP6dr  X4eq  1 4.300000e-01    3.160000e+00
 SP6dr  C1eq  1 4.300000e-01    1.930000e+00
 SP6dr  C2eq  1 4.300000e-01    2.320000e+00
 SP6dr  C3eq  1 4.300000e-01    2.320000e+00
 SP6dr  C4eq  1 4.300000e-01    2.530000e+00
 SP6dr  C5eq  1 4.300000e-01    2.770000e+00
 SP6dr  C6eq  1 4.300000e-01    2.920000e+00
 SP5dr  X1eq  1 4.300000e-01    2.770000e+00
 SP5dr  X2eq  1 4.300000e-01    3.160000e+00
 SP5dr  X3eq  1 4.300000e-01    3.160000e+00
 SP5dr  X4eq  1 4.300000e-01    3.380000e+00
 SP5dr  C1eq  1 4.300000e-01    2.320000e+00
 SP5dr  C2eq  1 4.300000e-01    2.530000e+00
 SP5dr  C3eq  1 4.300000e-01    2.530000e+00
 SP5dr  C4eq  1 4.300000e-01    2.770000e+00
 SP5dr  C5eq  1 4.300000e-01    2.920000e+00
 SP5dr  C6eq  1 4.300000e-01    2.920000e+00
 SP4dr  X1eq  1 4.300000e-01    2.920000e+00
 SP4dr  X2eq  1 4.300000e-01    3.160000e+00
 SP4dr  X3eq  1 4.300000e-01    3.160000e+00
 SP4dr  X4eq  1 4.300000e-01    3.380000e+00
 SP4dr  C1eq  1 4.300000e-01    2.320000e+00
 SP4dr  C2eq  1 4.300000e-01    2.530000e+00
 SP4dr  C3eq  1 4.300000e-01    2.530000e+00
 SP4dr  C4eq  1 4.300000e-01    2.770000e+00
 SP4dr  C5eq  1 4.300000e-01    2.920000e+00
 SP4dr  C6eq  1 4.300000e-01    3.160000e+00
 SP3dr  X1eq  1 4.300000e-01    2.920000e+00
 SP3dr  X2eq  1 4.300000e-01    3.160000e+00
 SP3dr  X3eq  1 4.300000e-01    3.380000e+00
 SP3dr  X4eq  1 4.300000e-01    3.380000e+00
 SP3dr  C1eq  1 4.300000e-01    2.320000e+00
 SP3dr  C2eq  1 4.300000e-01    2.530000e+00
 SP3dr  C3eq  1 4.300000e-01    2.530000e+00
 SP3dr  C4eq  1 4.300000e-01    2.920000e+00
 SP3dr  C5eq  1 4.300000e-01    3.160000e+00
 SP3dr  C6eq  1 4.300000e-01    3.380000e+00
 SP2dr  X1eq  1 4.300000e-01    2.920000e+00
 SP2dr  X2eq  1 4.300000e-01    3.160000e+00
 SP2dr  X3eq  1 4.300000e-01    3.380000e+00
 SP2dr  X4eq  1 4.300000e-01    3.380000e+00
 SP2dr  C1eq  1 4.300000e-01    2.530000e+00
 SP2dr  C2eq  1 4.300000e-01    2.770000e+00
 SP2dr  C3eq  1 4.300000e-01    2.770000e+00
 SP2dr  C4eq  1 4.300000e-01    2.920000e+00
 SP2dr  C5eq  1 4.300000e-01    3.160000e+00
 SP2dr  C6eq  1 4.300000e-01    3.380000e+00
 SP1dr  X1eq  1 4.300000e-01    2.920000e+00
 SP1dr  X2eq  1 4.300000e-01    3.160000e+00
 SP1dr  X3eq  1 4.300000e-01    3.380000e+00
 SP1dr  X4eq  1 4.300000e-01    3.380000e+00
 SP1dr  C1eq  1 4.300000e-01    2.530000e+00
 SP1dr  C2eq  1 4.300000e-01    2.770000e+00
 SP1dr  C3eq  1 4.300000e-01    2.770000e+00
 SP1dr  C4eq  1 4.300000e-01    2.920000e+00
 SP1dr  C5eq  1 4.300000e-01    3.160000e+00
 SP1dr  C6eq  1 4.300000e-01    3.380000e+00
 SN6dr  X1eq  1 4.300000e-01    2.920000e+00
 SN6dr  X2eq  1 4.300000e-01    3.160000e+00
 SN6dr  X3eq  1 4.300000e-01    3.380000e+00
 SN6dr  X4eq  1 4.300000e-01    3.590000e+00
 SN6dr  C1eq  1 4.300000e-01    2.770000e+00
 SN6dr  C2eq  1 4.300000e-01    2.920000e+00
 SN6dr  C3eq  1 4.300000e-01    2.920000e+00
 SN6dr  C4eq  1 4.300000e-01    3.160000e+00
 SN6dr  C5eq  1 4.300000e-01    3.380000e+00
 SN6dr  C6eq  1 4.300000e-01    3.590000e+00
 SN5dr  X1eq  1 4.300000e-01    3.160000e+00
 SN5dr  X2eq  1 4.300000e-01    3.380000e+00
 SN5dr  X3eq  1 4.300000e-01    3.590000e+00
 SN5dr  X4eq  1 4.300000e-01    3.770000e+00
 SN5dr  C1eq  1 4.300000e-01    2.770000e+00
 SN5dr  C2eq  1 4.300000e-01    2.920000e+00
 SN5dr  C3eq  1 4.300000e-01    3.160000e+00
 SN5dr  C4eq  1 4.300000e-01    3.160000e+00
 SN5dr  C5eq  1 4.300000e-01    3.380000e+00
 SN5dr  C6eq  1 4.300000e-01    3.590000e+00
 SN4dr  X1eq  1 4.300000e-01    3.160000e+00
 SN4dr  X2eq  1 4.300000e-01    3.380000e+00
 SN4dr  X3eq  1 4.300000e-01    3.770000e+00
 SN4dr  X4eq  1 4.300000e-01    3.970000e+00
 SN4dr  C1eq  1 4.300000e-01    2.770000e+00
 SN4dr  C2eq  1 4.300000e-01    2.920000e+00
 SN4dr  C3eq  1 4.300000e-01    3.160000e+00
 SN4dr  C4eq  1 4.300000e-01    3.380000e+00
 SN4dr  C5eq  1 4.300000e-01    3.380000e+00
 SN4dr  C6eq  1 4.300000e-01    3.590000e+00
 SN3dr  X1eq  1 4.300000e-01    3.380000e+00
 SN3dr  X2eq  1 4.300000e-01    3.380000e+00
 SN3dr  X3eq  1 4.300000e-01    3.590000e+00
 SN3dr  X4eq  1 4.300000e-01    3.770000e+00
 SN3dr  C1eq  1 4.300000e-01    2.920000e+00
 SN3dr  C2eq  1 4.300000e-01    3.160000e+00
 SN3dr  C3eq  1 4.300000e-01    3.160000e+00
 SN3dr  C4eq  1 4.300000e-01    3.380000e+00
 SN3dr  C5eq  1 4.300000e-01    3.380000e+00
 SN3dr  C6eq  1 4.300000e-01    3.590000e+00
 SN2dr  X1eq  1 4.300000e-01    3.380000e+00
 SN2dr  X2eq  1 4.300000e-01    3.380000e+00
 SN2dr  X3eq  1 4.300000e-01    3.590000e+00
 SN2dr  X4eq  1 4.300000e-01    3.770000e+00
 SN2dr  C1eq  1 4.300000e-01    2.920000e+00
 SN2dr  C2eq  1 4.300000e-01    3.160000e+00
 SN2dr  C3eq  1 4.300000e-01    3.380000e+00
 SN2dr  C4eq  1 4.300000e-01    3.380000e+00
 SN2dr  C5eq  1 4.300000e-01    3.380000e+00
 SN2dr  C6eq  1 4.300000e-01    3.590000e+00
 SN1dr  X1eq  1 4.300000e-01    3.380000e+00
 SN1dr  X2eq  1 4.300000e-01    3.380000e+00
 SN1dr  X3eq  1 4.300000e-01    3.590000e+00
 SN1dr  X4eq  1 4.300000e-01    3.590000e+00
 SN1dr  C1eq  1 4.300000e-01    2.920000e+00
 SN1dr  C2eq  1 4.300000e-01    3.160000e+00
 SN1dr  C3eq  1 4.300000e-01    3.380000e+00
 SN1dr  C4eq  1 4.300000e-01    3.590000e+00
 SN1dr  C5eq  1 4.300000e-01    3.590000e+00
 SN1dr  C6eq  1 4.300000e-01    3.770000e+00
  P6dr SC6eh  1 4.300000e-01    2.530000e+00
  P6dr SC5eh  1 4.300000e-01    2.320000e+00
  P6dr SC4eh  1 4.300000e-01    2.160000e+00
  P6dr SC3eh  1 4.300000e-01    1.930000e+00
  P6dr SC2eh  1 4.300000e-01    1.930000e+00
  P6dr SC1eh  1 4.430000e-01    1.480000e+00
  P6dr SX4eh  1 4.300000e-01    2.770000e+00
  P6dr SX3eh  1 4.300000e-01    2.770000e+00
  P6dr SX2eh  1 4.300000e-01    2.530000e+00
  P6dr SX1eh  1 4.300000e-01    2.320000e+00
  P5dr SC6eh  1 4.300000e-01    2.530000e+00
  P5dr SC5eh  1 4.300000e-01    2.530000e+00
  P5dr SC4eh  1 4.300000e-01    2.320000e+00
  P5dr SC3eh  1 4.300000e-01    2.160000e+00
  P5dr SC2eh  1 4.300000e-01    2.160000e+00
  P5dr SC1eh  1 4.300000e-01    1.930000e+00
  P5dr SX4eh  1 4.300000e-01    2.920000e+00
  P5dr SX3eh  1 4.300000e-01    2.770000e+00
  P5dr SX2eh  1 4.300000e-01    2.770000e+00
  P5dr SX1eh  1 4.300000e-01    2.320000e+00
  P4dr SC6eh  1 4.300000e-01    2.770000e+00
  P4dr SC5eh  1 4.300000e-01    2.530000e+00
  P4dr SC4eh  1 4.300000e-01    2.320000e+00
  P4dr SC3eh  1 4.300000e-01    2.160000e+00
  P4dr SC2eh  1 4.300000e-01    2.160000e+00
  P4dr SC1eh  1 4.300000e-01    1.930000e+00
  P4dr SX4eh  1 4.300000e-01    2.920000e+00
  P4dr SX3eh  1 4.300000e-01    2.770000e+00
  P4dr SX2eh  1 4.300000e-01    2.770000e+00
  P4dr SX1eh  1 4.300000e-01    2.530000e+00
  P3dr SC6eh  1 4.300000e-01    2.920000e+00
  P3dr SC5eh  1 4.300000e-01    2.770000e+00
  P3dr SC4eh  1 4.300000e-01    2.530000e+00
  P3dr SC3eh  1 4.300000e-01    2.160000e+00
  P3dr SC2eh  1 4.300000e-01    2.160000e+00
  P3dr SC1eh  1 4.300000e-01    1.930000e+00
  P3dr SX4eh  1 4.300000e-01    2.920000e+00
  P3dr SX3eh  1 4.300000e-01    2.920000e+00
  P3dr SX2eh  1 4.300000e-01    2.770000e+00
  P3dr SX1eh  1 4.300000e-01    2.530000e+00
  P2dr SC6eh  1 4.300000e-01    2.920000e+00
  P2dr SC5eh  1 4.300000e-01    2.770000e+00
  P2dr SC4eh  1 4.300000e-01    2.530000e+00
  P2dr SC3eh  1 4.300000e-01    2.320000e+00
  P2dr SC2eh  1 4.300000e-01    2.320000e+00
  P2dr SC1eh  1 4.300000e-01    2.160000e+00
  P2dr SX4eh  1 4.300000e-01    2.920000e+00
  P2dr SX3eh  1 4.300000e-01    2.920000e+00
  P2dr SX2eh  1 4.300000e-01    2.770000e+00
  P2dr SX1eh  1 4.300000e-01    2.530000e+00
  P1dr SC6eh  1 4.300000e-01    2.920000e+00
  P1dr SC5eh  1 4.300000e-01    2.770000e+00
  P1dr SC4eh  1 4.300000e-01    2.530000e+00
  P1dr SC3eh  1 4.300000e-01    2.320000e+00
  P1dr SC2eh  1 4.300000e-01    2.320000e+00
  P1dr SC1eh  1 4.300000e-01    2.160000e+00
  P1dr SX4eh  1 4.300000e-01    2.920000e+00
  P1dr SX3eh  1 4.300000e-01    2.920000e+00
  P1dr SX2eh  1 4.300000e-01    2.770000e+00
  P1dr SX1eh  1 4.300000e-01    2.530000e+00
  N6dr SC6eh  1 4.300000e-01    3.160000e+00
  N6dr SC5eh  1 4.300000e-01    2.920000e+00
  N6dr SC4eh  1 4.300000e-01    2.770000e+00
  N6dr SC3eh  1 4.300000e-01    2.530000e+00
  N6dr SC2eh  1 4.300000e-01    2.530000e+00
  N6dr SC1eh  1 4.300000e-01    2.320000e+00
  N6dr SX4eh  1 4.300000e-01    3.160000e+00
  N6dr SX3eh  1 4.300000e-01    2.920000e+00
  N6dr SX2eh  1 4.300000e-01    2.770000e+00
  N6dr SX1eh  1 4.300000e-01    2.530000e+00
  N5dr SC6eh  1 4.300000e-01    3.160000e+00
  N5dr SC5eh  1 4.300000e-01    2.920000e+00
  N5dr SC4eh  1 4.300000e-01    2.770000e+00
  N5dr SC3eh  1 4.300000e-01    2.770000e+00
  N5dr SC2eh  1 4.300000e-01    2.530000e+00
  N5dr SC1eh  1 4.300000e-01    2.320000e+00
  N5dr SX4eh  1 4.300000e-01    3.380000e+00
  N5dr SX3eh  1 4.300000e-01    3.160000e+00
  N5dr SX2eh  1 4.300000e-01    2.920000e+00
  N5dr SX1eh  1 4.300000e-01    2.770000e+00
  N4dr SC6eh  1 4.300000e-01    3.160000e+00
  N4dr SC5eh  1 4.300000e-01    2.920000e+00
  N4dr SC4eh  1 4.300000e-01    2.920000e+00
  N4dr SC3eh  1 4.300000e-01    2.770000e+00
  N4dr SC2eh  1 4.300000e-01    2.530000e+00
  N4dr SC1eh  1 4.300000e-01    2.320000e+00
  N4dr SX4eh  1 4.300000e-01    3.590000e+00
  N4dr SX3eh  1 4.300000e-01    3.380000e+00
  N4dr SX2eh  1 4.300000e-01    2.920000e+00
  N4dr SX1eh  1 4.300000e-01    2.770000e+00
  N3dr SC6eh  1 4.300000e-01    3.160000e+00
  N3dr SC5eh  1 4.300000e-01    2.920000e+00
  N3dr SC4eh  1 4.300000e-01    2.920000e+00
  N3dr SC3eh  1 4.300000e-01    2.770000e+00
  N3dr SC2eh  1 4.300000e-01    2.770000e+00
  N3dr SC1eh  1 4.300000e-01    2.530000e+00
  N3dr SX4eh  1 4.300000e-01    3.380000e+00
  N3dr SX3eh  1 4.300000e-01    3.160000e+00
  N3dr SX2eh  1 4.300000e-01    2.920000e+00
  N3dr SX1eh  1 4.300000e-01    2.920000e+00
  N2dr SC6eh  1 4.300000e-01    3.160000e+00
  N2dr SC5eh  1 4.300000e-01    2.920000e+00
  N2dr SC4eh  1 4.300000e-01    2.920000e+00
  N2dr SC3eh  1 4.300000e-01    2.920000e+00
  N2dr SC2eh  1 4.300000e-01    2.770000e+00
  N2dr SC1eh  1 4.300000e-01    2.530000e+00
  N2dr SX4eh  1 4.300000e-01    3.380000e+00
  N2dr SX3eh  1 4.300000e-01    3.160000e+00
  N2dr SX2eh  1 4.300000e-01    2.920000e+00
  N2dr SX1eh  1 4.300000e-01    2.920000e+00
  N1dr SC6eh  1 4.300000e-01    3.380000e+00
  N1dr SC5eh  1 4.300000e-01    3.160000e+00
  N1dr SC4eh  1 4.300000e-01    3.160000e+00
  N1dr SC3eh  1 4.300000e-01    2.920000e+00
  N1dr SC2eh  1 4.300000e-01    2.770000e+00
  N1dr SC1eh  1 4.300000e-01    2.530000e+00
  N1dr SX4eh  1 4.300000e-01    3.160000e+00
  N1dr SX3eh  1 4.300000e-01    3.160000e+00
  N1dr SX2eh  1 4.300000e-01    2.920000e+00
  N1dr SX1eh  1 4.300000e-01    2.920000e+00
 SP6dr  C6eh  1 4.300000e-01    2.530000e+00
 SP6dr  C5eh  1 4.300000e-01    2.320000e+00
 SP6dr  C4eh  1 4.300000e-01    2.160000e+00
 SP6dr  C3eh  1 4.300000e-01    1.930000e+00
 SP6dr  C2eh  1 4.300000e-01    1.930000e+00
 SP6dr  C1eh  1 4.430000e-01    1.480000e+00
 SP6dr  X4eh  1 4.300000e-01    2.770000e+00
 SP6dr  X3eh  1 4.300000e-01    2.770000e+00
 SP6dr  X2eh  1 4.300000e-01    2.530000e+00
 SP6dr  X1eh  1 4.300000e-01    2.320000e+00
 SP5dr  C6eh  1 4.300000e-01    2.530000e+00
 SP5dr  C5eh  1 4.300000e-01    2.530000e+00
 SP5dr  C4eh  1 4.300000e-01    2.320000e+00
 SP5dr  C3eh  1 4.300000e-01    2.160000e+00
 SP5dr  C2eh  1 4.300000e-01    2.160000e+00
 SP5dr  C1eh  1 4.300000e-01    1.930000e+00
 SP5dr  X4eh  1 4.300000e-01    2.920000e+00
 SP5dr  X3eh  1 4.300000e-01    2.770000e+00
 SP5dr  X2eh  1 4.300000e-01    2.770000e+00
 SP5dr  X1eh  1 4.300000e-01    2.320000e+00
 SP4dr  C6eh  1 4.300000e-01    2.770000e+00
 SP4dr  C5eh  1 4.300000e-01    2.530000e+00
 SP4dr  C4eh  1 4.300000e-01    2.320000e+00
 SP4dr  C3eh  1 4.300000e-01    2.160000e+00
 SP4dr  C2eh  1 4.300000e-01    2.160000e+00
 SP4dr  C1eh  1 4.300000e-01    1.930000e+00
 SP4dr  X4eh  1 4.300000e-01    2.920000e+00
 SP4dr  X3eh  1 4.300000e-01    2.770000e+00
 SP4dr  X2eh  1 4.300000e-01    2.770000e+00
 SP4dr  X1eh  1 4.300000e-01    2.530000e+00
 SP3dr  C6eh  1 4.300000e-01    2.920000e+00
 SP3dr  C5eh  1 4.300000e-01    2.770000e+00
 SP3dr  C4eh  1 4.300000e-01    2.530000e+00
 SP3dr  C3eh  1 4.300000e-01    2.160000e+00
 SP3dr  C2eh  1 4.300000e-01    2.160000e+00
 SP3dr  C1eh  1 4.300000e-01    1.930000e+00
 SP3dr  X4eh  1 4.300000e-01    2.920000e+00
 SP3dr  X3eh  1 4.300000e-01    2.920000e+00
 SP3dr  X2eh  1 4.300000e-01    2.770000e+00
 SP3dr  X1eh  1 4.300000e-01    2.530000e+00
 SP2dr  C6eh  1 4.300000e-01    2.920000e+00
 SP2dr  C5eh  1 4.300000e-01    2.770000e+00
 SP2dr  C4eh  1 4.300000e-01    2.530000e+00
 SP2dr  C3eh  1 4.300000e-01    2.320000e+00
 SP2dr  C2eh  1 4.300000e-01    2.320000e+00
 SP2dr  C1eh  1 4.300000e-01    2.160000e+00
 SP2dr  X4eh  1 4.300000e-01    2.920000e+00
 SP2dr  X3eh  1 4.300000e-01    2.920000e+00
 SP2dr  X2eh  1 4.300000e-01    2.770000e+00
 SP2dr  X1eh  1 4.300000e-01    2.530000e+00
 SP1dr  C6eh  1 4.300000e-01    2.920000e+00
 SP1dr  C5eh  1 4.300000e-01    2.770000e+00
 SP1dr  C4eh  1 4.300000e-01    2.530000e+00
 SP1dr  C3eh  1 4.300000e-01    2.320000e+00
 SP1dr  C2eh  1 4.300000e-01    2.320000e+00
 SP1dr  C1eh  1 4.300000e-01    2.160000e+00
 SP1dr  X4eh  1 4.300000e-01    2.920000e+00
 SP1dr  X3eh  1 4.300000e-01    2.920000e+00
 SP1dr  X2eh  1 4.300000e-01    2.770000e+00
 SP1dr  X1eh  1 4.300000e-01    2.530000e+00
 SN6dr  C6eh  1 4.300000e-01    3.160000e+00
 SN6dr  C5eh  1 4.300000e-01    2.920000e+00
 SN6dr  C4eh  1 4.300000e-01    2.770000e+00
 SN6dr  C3eh  1 4.300000e-01    2.530000e+00
 SN6dr  C2eh  1 4.300000e-01    2.530000e+00
 SN6dr  C1eh  1 4.300000e-01    2.320000e+00
 SN6dr  X4eh  1 4.300000e-01    3.160000e+00
 SN6dr  X3eh  1 4.300000e-01    2.920000e+00
 SN6dr  X2eh  1 4.300000e-01    2.770000e+00
 SN6dr  X1eh  1 4.300000e-01    2.530000e+00
 SN5dr  C6eh  1 4.300000e-01    3.160000e+00
 SN5dr  C5eh  1 4.300000e-01    2.920000e+00
 SN5dr  C4eh  1 4.300000e-01    2.770000e+00
 SN5dr  C3eh  1 4.300000e-01    2.770000e+00
 SN5dr  C2eh  1 4.300000e-01    2.530000e+00
 SN5dr  C1eh  1 4.300000e-01    2.320000e+00
 SN5dr  X4eh  1 4.300000e-01    3.380000e+00
 SN5dr  X3eh  1 4.300000e-01    3.160000e+00
 SN5dr  X2eh  1 4.300000e-01    2.920000e+00
 SN5dr  X1eh  1 4.300000e-01    2.770000e+00
 SN4dr  C6eh  1 4.300000e-01    3.160000e+00
 SN4dr  C5eh  1 4.300000e-01    2.920000e+00
 SN4dr  C4eh  1 4.300000e-01    2.920000e+00
 SN4dr  C3eh  1 4.300000e-01    2.770000e+00
 SN4dr  C2eh  1 4.300000e-01    2.530000e+00
 SN4dr  C1eh  1 4.300000e-01    2.320000e+00
 SN4dr  X4eh  1 4.300000e-01    3.590000e+00
 SN4dr  X3eh  1 4.300000e-01    3.380000e+00
 SN4dr  X2eh  1 4.300000e-01    2.920000e+00
 SN4dr  X1eh  1 4.300000e-01    2.770000e+00
 SN3dr  C6eh  1 4.300000e-01    3.160000e+00
 SN3dr  C5eh  1 4.300000e-01    2.920000e+00
 SN3dr  C4eh  1 4.300000e-01    2.920000e+00
 SN3dr  C3eh  1 4.300000e-01    2.770000e+00
 SN3dr  C2eh  1 4.300000e-01    2.770000e+00
 SN3dr  C1eh  1 4.300000e-01    2.530000e+00
 SN3dr  X4eh  1 4.300000e-01    3.380000e+00
 SN3dr  X3eh  1 4.300000e-01    3.160000e+00
 SN3dr  X2eh  1 4.300000e-01    2.920000e+00
 SN3dr  X1eh  1 4.300000e-01    2.920000e+00
 SN2dr  C6eh  1 4.300000e-01    3.160000e+00
 SN2dr  C5eh  1 4.300000e-01    2.920000e+00
 SN2dr  C4eh  1 4.300000e-01    2.920000e+00
 SN2dr  C3eh  1 4.300000e-01    2.920000e+00
 SN2dr  C2eh  1 4.300000e-01    2.770000e+00
 SN2dr  C1eh  1 4.300000e-01    2.530000e+00
 SN2dr  X4eh  1 4.300000e-01    3.380000e+00
 SN2dr  X3eh  1 4.300000e-01    3.160000e+00
 SN2dr  X2eh  1 4.300000e-01    2.920000e+00
 SN2dr  X1eh  1 4.300000e-01    2.920000e+00
 SN1dr  C6eh  1 4.300000e-01    3.380000e+00
 SN1dr  C5eh  1 4.300000e-01    3.160000e+00
 SN1dr  C4eh  1 4.300000e-01    3.160000e+00
 SN1dr  C3eh  1 4.300000e-01    2.920000e+00
 SN1dr  C2eh  1 4.300000e-01    2.770000e+00
 SN1dr  C1eh  1 4.300000e-01    2.530000e+00
 SN1dr  X4eh  1 4.300000e-01    3.160000e+00
 SN1dr  X3eh  1 4.300000e-01    3.160000e+00
 SN1dr  X2eh  1 4.300000e-01    2.920000e+00
 SN1dr  X1eh  1 4.300000e-01    2.920000e+00
  P6dr SC6er  1 4.300000e-01    2.530000e+00
  P6dr SC5er  1 4.300000e-01    2.320000e+00
  P6dr SC4er  1 4.300000e-01    2.160000e+00
  P6dr SC3er  1 4.300000e-01    1.930000e+00
  P6dr SC2er  1 4.300000e-01    1.930000e+00
  P6dr SC1er  1 4.430000e-01    1.480000e+00
  P6dr SX4er  1 4.300000e-01    2.770000e+00
  P6dr SX3er  1 4.300000e-01    2.770000e+00
  P6dr SX2er  1 4.300000e-01    2.530000e+00
  P6dr SX1er  1 4.300000e-01    2.320000e+00
  P5dr SC6er  1 4.300000e-01    2.530000e+00
  P5dr SC5er  1 4.300000e-01    2.530000e+00
  P5dr SC4er  1 4.300000e-01    2.320000e+00
  P5dr SC3er  1 4.300000e-01    2.160000e+00
  P5dr SC2er  1 4.300000e-01    2.160000e+00
  P5dr SC1er  1 4.300000e-01    1.930000e+00
  P5dr SX4er  1 4.300000e-01    2.920000e+00
  P5dr SX3er  1 4.300000e-01    2.770000e+00
  P5dr SX2er  1 4.300000e-01    2.770000e+00
  P5dr SX1er  1 4.300000e-01    2.320000e+00
  P4dr SC6er  1 4.300000e-01    2.770000e+00
  P4dr SC5er  1 4.300000e-01    2.530000e+00
  P4dr SC4er  1 4.300000e-01    2.320000e+00
  P4dr SC3er  1 4.300000e-01    2.160000e+00
  P4dr SC2er  1 4.300000e-01    2.160000e+00
  P4dr SC1er  1 4.300000e-01    1.930000e+00
  P4dr SX4er  1 4.300000e-01    2.920000e+00
  P4dr SX3er  1 4.300000e-01    2.770000e+00
  P4dr SX2er  1 4.300000e-01    2.770000e+00
  P4dr SX1er  1 4.300000e-01    2.530000e+00
  P3dr SC6er  1 4.300000e-01    2.920000e+00
  P3dr SC5er  1 4.300000e-01    2.770000e+00
  P3dr SC4er  1 4.300000e-01    2.530000e+00
  P3dr SC3er  1 4.300000e-01    2.160000e+00
  P3dr SC2er  1 4.300000e-01    2.160000e+00
  P3dr SC1er  1 4.300000e-01    1.930000e+00
  P3dr SX4er  1 4.300000e-01    2.920000e+00
  P3dr SX3er  1 4.300000e-01    2.920000e+00
  P3dr SX2er  1 4.300000e-01    2.770000e+00
  P3dr SX1er  1 4.300000e-01    2.530000e+00
  P2dr SC6er  1 4.300000e-01    2.920000e+00
  P2dr SC5er  1 4.300000e-01    2.770000e+00
  P2dr SC4er  1 4.300000e-01    2.530000e+00
  P2dr SC3er  1 4.300000e-01    2.320000e+00
  P2dr SC2er  1 4.300000e-01    2.320000e+00
  P2dr SC1er  1 4.300000e-01    2.160000e+00
  P2dr SX4er  1 4.300000e-01    2.920000e+00
  P2dr SX3er  1 4.300000e-01    2.920000e+00
  P2dr SX2er  1 4.300000e-01    2.770000e+00
  P2dr SX1er  1 4.300000e-01    2.530000e+00
  P1dr SC6er  1 4.300000e-01    2.920000e+00
  P1dr SC5er  1 4.300000e-01    2.770000e+00
  P1dr SC4er  1 4.300000e-01    2.530000e+00
  P1dr SC3er  1 4.300000e-01    2.320000e+00
  P1dr SC2er  1 4.300000e-01    2.320000e+00
  P1dr SC1er  1 4.300000e-01    2.160000e+00
  P1dr SX4er  1 4.300000e-01    2.920000e+00
  P1dr SX3er  1 4.300000e-01    2.920000e+00
  P1dr SX2er  1 4.300000e-01    2.770000e+00
  P1dr SX1er  1 4.300000e-01    2.530000e+00
  N6dr SC6er  1 4.300000e-01    3.160000e+00
  N6dr SC5er  1 4.300000e-01    2.920000e+00
  N6dr SC4er  1 4.300000e-01    2.770000e+00
  N6dr SC3er  1 4.300000e-01    2.530000e+00
  N6dr SC2er  1 4.300000e-01    2.530000e+00
  N6dr SC1er  1 4.300000e-01    2.320000e+00
  N6dr SX4er  1 4.300000e-01    3.160000e+00
  N6dr SX3er  1 4.300000e-01    2.920000e+00
  N6dr SX2er  1 4.300000e-01    2.770000e+00
  N6dr SX1er  1 4.300000e-01    2.530000e+00
  N5dr SC6er  1 4.300000e-01    3.160000e+00
  N5dr SC5er  1 4.300000e-01    2.920000e+00
  N5dr SC4er  1 4.300000e-01    2.770000e+00
  N5dr SC3er  1 4.300000e-01    2.770000e+00
  N5dr SC2er  1 4.300000e-01    2.530000e+00
  N5dr SC1er  1 4.300000e-01    2.320000e+00
  N5dr SX4er  1 4.300000e-01    3.380000e+00
  N5dr SX3er  1 4.300000e-01    3.160000e+00
  N5dr SX2er  1 4.300000e-01    2.920000e+00
  N5dr SX1er  1 4.300000e-01    2.770000e+00
  N4dr SC6er  1 4.300000e-01    3.160000e+00
  N4dr SC5er  1 4.300000e-01    2.920000e+00
  N4dr SC4er  1 4.300000e-01    2.920000e+00
  N4dr SC3er  1 4.300000e-01    2.770000e+00
  N4dr SC2er  1 4.300000e-01    2.530000e+00
  N4dr SC1er  1 4.300000e-01    2.320000e+00
  N4dr SX4er  1 4.300000e-01    3.590000e+00
  N4dr SX3er  1 4.300000e-01    3.380000e+00
  N4dr SX2er  1 4.300000e-01    2.920000e+00
  N4dr SX1er  1 4.300000e-01    2.770000e+00
  N3dr SC6er  1 4.300000e-01    3.160000e+00
  N3dr SC5er  1 4.300000e-01    2.920000e+00
  N3dr SC4er  1 4.300000e-01    2.920000e+00
  N3dr SC3er  1 4.300000e-01    2.770000e+00
  N3dr SC2er  1 4.300000e-01    2.770000e+00
  N3dr SC1er  1 4.300000e-01    2.530000e+00
  N3dr SX4er  1 4.300000e-01    3.380000e+00
  N3dr SX3er  1 4.300000e-01    3.160000e+00
  N3dr SX2er  1 4.300000e-01    2.920000e+00
  N3dr SX1er  1 4.300000e-01    2.920000e+00
  N2dr SC6er  1 4.300000e-01    3.160000e+00
  N2dr SC5er  1 4.300000e-01    2.920000e+00
  N2dr SC4er  1 4.300000e-01    2.920000e+00
  N2dr SC3er  1 4.300000e-01    2.920000e+00
  N2dr SC2er  1 4.300000e-01    2.770000e+00
  N2dr SC1er  1 4.300000e-01    2.530000e+00
  N2dr SX4er  1 4.300000e-01    3.380000e+00
  N2dr SX3er  1 4.300000e-01    3.160000e+00
  N2dr SX2er  1 4.300000e-01    2.920000e+00
  N2dr SX1er  1 4.300000e-01    2.920000e+00
  N1dr SC6er  1 4.300000e-01    3.380000e+00
  N1dr SC5er  1 4.300000e-01    3.160000e+00
  N1dr SC4er  1 4.300000e-01    3.160000e+00
  N1dr SC3er  1 4.300000e-01    2.920000e+00
  N1dr SC2er  1 4.300000e-01    2.770000e+00
  N1dr SC1er  1 4.300000e-01    2.530000e+00
  N1dr SX4er  1 4.300000e-01    3.160000e+00
  N1dr SX3er  1 4.300000e-01    3.160000e+00
  N1dr SX2er  1 4.300000e-01    2.920000e+00
  N1dr SX1er  1 4.300000e-01    2.920000e+00
 SP6dr  C6er  1 4.300000e-01    2.530000e+00
 SP6dr  C5er  1 4.300000e-01    2.320000e+00
 SP6dr  C4er  1 4.300000e-01    2.160000e+00
 SP6dr  C3er  1 4.300000e-01    1.930000e+00
 SP6dr  C2er  1 4.300000e-01    1.930000e+00
 SP6dr  C1er  1 4.430000e-01    1.480000e+00
 SP6dr  X4er  1 4.300000e-01    2.770000e+00
 SP6dr  X3er  1 4.300000e-01    2.770000e+00
 SP6dr  X2er  1 4.300000e-01    2.530000e+00
 SP6dr  X1er  1 4.300000e-01    2.320000e+00
 SP5dr  C6er  1 4.300000e-01    2.530000e+00
 SP5dr  C5er  1 4.300000e-01    2.530000e+00
 SP5dr  C4er  1 4.300000e-01    2.320000e+00
 SP5dr  C3er  1 4.300000e-01    2.160000e+00
 SP5dr  C2er  1 4.300000e-01    2.160000e+00
 SP5dr  C1er  1 4.300000e-01    1.930000e+00
 SP5dr  X4er  1 4.300000e-01    2.920000e+00
 SP5dr  X3er  1 4.300000e-01    2.770000e+00
 SP5dr  X2er  1 4.300000e-01    2.770000e+00
 SP5dr  X1er  1 4.300000e-01    2.320000e+00
 SP4dr  C6er  1 4.300000e-01    2.770000e+00
 SP4dr  C5er  1 4.300000e-01    2.530000e+00
 SP4dr  C4er  1 4.300000e-01    2.320000e+00
 SP4dr  C3er  1 4.300000e-01    2.160000e+00
 SP4dr  C2er  1 4.300000e-01    2.160000e+00
 SP4dr  C1er  1 4.300000e-01    1.930000e+00
 SP4dr  X4er  1 4.300000e-01    2.920000e+00
 SP4dr  X3er  1 4.300000e-01    2.770000e+00
 SP4dr  X2er  1 4.300000e-01    2.770000e+00
 SP4dr  X1er  1 4.300000e-01    2.530000e+00
 SP3dr  C6er  1 4.300000e-01    2.920000e+00
 SP3dr  C5er  1 4.300000e-01    2.770000e+00
 SP3dr  C4er  1 4.300000e-01    2.530000e+00
 SP3dr  C3er  1 4.300000e-01    2.160000e+00
 SP3dr  C2er  1 4.300000e-01    2.160000e+00
 SP3dr  C1er  1 4.300000e-01    1.930000e+00
 SP3dr  X4er  1 4.300000e-01    2.920000e+00
 SP3dr  X3er  1 4.300000e-01    2.920000e+00
 SP3dr  X2er  1 4.300000e-01    2.770000e+00
 SP3dr  X1er  1 4.300000e-01    2.530000e+00
 SP2dr  C6er  1 4.300000e-01    2.920000e+00
 SP2dr  C5er  1 4.300000e-01    2.770000e+00
 SP2dr  C4er  1 4.300000e-01    2.530000e+00
 SP2dr  C3er  1 4.300000e-01    2.320000e+00
 SP2dr  C2er  1 4.300000e-01    2.320000e+00
 SP2dr  C1er  1 4.300000e-01    2.160000e+00
 SP2dr  X4er  1 4.300000e-01    2.920000e+00
 SP2dr  X3er  1 4.300000e-01    2.920000e+00
 SP2dr  X2er  1 4.300000e-01    2.770000e+00
 SP2dr  X1er  1 4.300000e-01    2.530000e+00
 SP1dr  C6er  1 4.300000e-01    2.920000e+00
 SP1dr  C5er  1 4.300000e-01    2.770000e+00
 SP1dr  C4er  1 4.300000e-01    2.530000e+00
 SP1dr  C3er  1 4.300000e-01    2.320000e+00
 SP1dr  C2er  1 4.300000e-01    2.320000e+00
 SP1dr  C1er  1 4.300000e-01    2.160000e+00
 SP1dr  X4er  1 4.300000e-01    2.920000e+00
 SP1dr  X3er  1 4.300000e-01    2.920000e+00
 SP1dr  X2er  1 4.300000e-01    2.770000e+00
 SP1dr  X1er  1 4.300000e-01    2.530000e+00
 SN6dr  C6er  1 4.300000e-01    3.160000e+00
 SN6dr  C5er  1 4.300000e-01    2.920000e+00
 SN6dr  C4er  1 4.300000e-01    2.770000e+00
 SN6dr  C3er  1 4.300000e-01    2.530000e+00
 SN6dr  C2er  1 4.300000e-01    2.530000e+00
 SN6dr  C1er  1 4.300000e-01    2.320000e+00
 SN6dr  X4er  1 4.300000e-01    3.160000e+00
 SN6dr  X3er  1 4.300000e-01    2.920000e+00
 SN6dr  X2er  1 4.300000e-01    2.770000e+00
 SN6dr  X1er  1 4.300000e-01    2.530000e+00
 SN5dr  C6er  1 4.300000e-01    3.160000e+00
 SN5dr  C5er  1 4.300000e-01    2.920000e+00
 SN5dr  C4er  1 4.300000e-01    2.770000e+00
 SN5dr  C3er  1 4.300000e-01    2.770000e+00
 SN5dr  C2er  1 4.300000e-01    2.530000e+00
 SN5dr  C1er  1 4.300000e-01    2.320000e+00
 SN5dr  X4er  1 4.300000e-01    3.380000e+00
 SN5dr  X3er  1 4.300000e-01    3.160000e+00
 SN5dr  X2er  1 4.300000e-01    2.920000e+00
 SN5dr  X1er  1 4.300000e-01    2.770000e+00
 SN4dr  C6er  1 4.300000e-01    3.160000e+00
 SN4dr  C5er  1 4.300000e-01    2.920000e+00
 SN4dr  C4er  1 4.300000e-01    2.920000e+00
 SN4dr  C3er  1 4.300000e-01    2.770000e+00
 SN4dr  C2er  1 4.300000e-01    2.530000e+00
 SN4dr  C1er  1 4.300000e-01    2.320000e+00
 SN4dr  X4er  1 4.300000e-01    3.590000e+00
 SN4dr  X3er  1 4.300000e-01    3.380000e+00
 SN4dr  X2er  1 4.300000e-01    2.920000e+00
 SN4dr  X1er  1 4.300000e-01    2.770000e+00
 SN3dr  C6er  1 4.300000e-01    3.160000e+00
 SN3dr  C5er  1 4.300000e-01    2.920000e+00
 SN3dr  C4er  1 4.300000e-01    2.920000e+00
 SN3dr  C3er  1 4.300000e-01    2.770000e+00
 SN3dr  C2er  1 4.300000e-01    2.770000e+00
 SN3dr  C1er  1 4.300000e-01    2.530000e+00
 SN3dr  X4er  1 4.300000e-01    3.380000e+00
 SN3dr  X3er  1 4.300000e-01    3.160000e+00
 SN3dr  X2er  1 4.300000e-01    2.920000e+00
 SN3dr  X1er  1 4.300000e-01    2.920000e+00
 SN2dr  C6er  1 4.300000e-01    3.160000e+00
 SN2dr  C5er  1 4.300000e-01    2.920000e+00
 SN2dr  C4er  1 4.300000e-01    2.920000e+00
 SN2dr  C3er  1 4.300000e-01    2.920000e+00
 SN2dr  C2er  1 4.300000e-01    2.770000e+00
 SN2dr  C1er  1 4.300000e-01    2.530000e+00
 SN2dr  X4er  1 4.300000e-01    3.380000e+00
 SN2dr  X3er  1 4.300000e-01    3.160000e+00
 SN2dr  X2er  1 4.300000e-01    2.920000e+00
 SN2dr  X1er  1 4.300000e-01    2.920000e+00
 SN1dr  C6er  1 4.300000e-01    3.380000e+00
 SN1dr  C5er  1 4.300000e-01    3.160000e+00
 SN1dr  C4er  1 4.300000e-01    3.160000e+00
 SN1dr  C3er  1 4.300000e-01    2.920000e+00
 SN1dr  C2er  1 4.300000e-01    2.770000e+00
 SN1dr  C1er  1 4.300000e-01    2.530000e+00
 SN1dr  X4er  1 4.300000e-01    3.160000e+00
 SN1dr  X3er  1 4.300000e-01    3.160000e+00
 SN1dr  X2er  1 4.300000e-01    2.920000e+00
 SN1dr  X1er  1 4.300000e-01    2.920000e+00
   P6a  SC6v  1 4.300000e-01    2.530000e+00
   P6a  SC5v  1 4.300000e-01    2.320000e+00
   P6a  SC4v  1 4.300000e-01    2.160000e+00
   P6a  SC3v  1 4.300000e-01    1.930000e+00
   P6a  SC2v  1 4.300000e-01    1.930000e+00
   P6a  SC1v  1 4.430000e-01    1.480000e+00
   P6a  SX4v  1 4.300000e-01    2.770000e+00
   P6a  SX3v  1 4.300000e-01    2.770000e+00
   P6a  SX2v  1 4.300000e-01    2.530000e+00
   P6a  SX1v  1 4.300000e-01    2.320000e+00
   P5a  SC6v  1 4.300000e-01    2.530000e+00
   P5a  SC5v  1 4.300000e-01    2.530000e+00
   P5a  SC4v  1 4.300000e-01    2.320000e+00
   P5a  SC3v  1 4.300000e-01    2.160000e+00
   P5a  SC2v  1 4.300000e-01    2.160000e+00
   P5a  SC1v  1 4.300000e-01    1.930000e+00
   P5a  SX4v  1 4.300000e-01    2.920000e+00
   P5a  SX3v  1 4.300000e-01    2.770000e+00
   P5a  SX2v  1 4.300000e-01    2.770000e+00
   P5a  SX1v  1 4.300000e-01    2.320000e+00
   P4a  SC6v  1 4.300000e-01    2.770000e+00
   P4a  SC5v  1 4.300000e-01    2.530000e+00
   P4a  SC4v  1 4.300000e-01    2.320000e+00
   P4a  SC3v  1 4.300000e-01    2.160000e+00
   P4a  SC2v  1 4.300000e-01    2.160000e+00
   P4a  SC1v  1 4.300000e-01    1.930000e+00
   P4a  SX4v  1 4.300000e-01    2.920000e+00
   P4a  SX3v  1 4.300000e-01    2.770000e+00
   P4a  SX2v  1 4.300000e-01    2.770000e+00
   P4a  SX1v  1 4.300000e-01    2.530000e+00
   P3a  SC6v  1 4.300000e-01    2.920000e+00
   P3a  SC5v  1 4.300000e-01    2.770000e+00
   P3a  SC4v  1 4.300000e-01    2.530000e+00
   P3a  SC3v  1 4.300000e-01    2.160000e+00
   P3a  SC2v  1 4.300000e-01    2.160000e+00
   P3a  SC1v  1 4.300000e-01    1.930000e+00
   P3a  SX4v  1 4.300000e-01    2.920000e+00
   P3a  SX3v  1 4.300000e-01    2.920000e+00
   P3a  SX2v  1 4.300000e-01    2.770000e+00
   P3a  SX1v  1 4.300000e-01    2.530000e+00
   P2a  SC6v  1 4.300000e-01    2.920000e+00
   P2a  SC5v  1 4.300000e-01    2.770000e+00
   P2a  SC4v  1 4.300000e-01    2.530000e+00
   P2a  SC3v  1 4.300000e-01    2.320000e+00
   P2a  SC2v  1 4.300000e-01    2.320000e+00
   P2a  SC1v  1 4.300000e-01    2.160000e+00
   P2a  SX4v  1 4.300000e-01    2.920000e+00
   P2a  SX3v  1 4.300000e-01    2.920000e+00
   P2a  SX2v  1 4.300000e-01    2.770000e+00
   P2a  SX1v  1 4.300000e-01    2.530000e+00
   P1a  SC6v  1 4.300000e-01    2.920000e+00
   P1a  SC5v  1 4.300000e-01    2.770000e+00
   P1a  SC4v  1 4.300000e-01    2.530000e+00
   P1a  SC3v  1 4.300000e-01    2.320000e+00
   P1a  SC2v  1 4.300000e-01    2.320000e+00
   P1a  SC1v  1 4.300000e-01    2.160000e+00
   P1a  SX4v  1 4.300000e-01    2.920000e+00
   P1a  SX3v  1 4.300000e-01    2.920000e+00
   P1a  SX2v  1 4.300000e-01    2.770000e+00
   P1a  SX1v  1 4.300000e-01    2.530000e+00
   N6a  SC6v  1 4.300000e-01    3.160000e+00
   N6a  SC5v  1 4.300000e-01    2.920000e+00
   N6a  SC4v  1 4.300000e-01    2.770000e+00
   N6a  SC3v  1 4.300000e-01    2.530000e+00
   N6a  SC2v  1 4.300000e-01    2.530000e+00
   N6a  SC1v  1 4.300000e-01    2.320000e+00
   N6a  SX4v  1 4.300000e-01    3.160000e+00
   N6a  SX3v  1 4.300000e-01    2.920000e+00
   N6a  SX2v  1 4.300000e-01    2.770000e+00
   N6a  SX1v  1 4.300000e-01    2.530000e+00
   N5a  SC6v  1 4.300000e-01    3.160000e+00
   N5a  SC5v  1 4.300000e-01    2.920000e+00
   N5a  SC4v  1 4.300000e-01    2.770000e+00
   N5a  SC3v  1 4.300000e-01    2.770000e+00
   N5a  SC2v  1 4.300000e-01    2.530000e+00
   N5a  SC1v  1 4.300000e-01    2.320000e+00
   N5a  SX4v  1 4.300000e-01    3.380000e+00
   N5a  SX3v  1 4.300000e-01    3.160000e+00
   N5a  SX2v  1 4.300000e-01    2.920000e+00
   N5a  SX1v  1 4.300000e-01    2.770000e+00
   N4a  SC6v  1 4.300000e-01    3.160000e+00
   N4a  SC5v  1 4.300000e-01    2.920000e+00
   N4a  SC4v  1 4.300000e-01    2.920000e+00
   N4a  SC3v  1 4.300000e-01    2.770000e+00
   N4a  SC2v  1 4.300000e-01    2.530000e+00
   N4a  SC1v  1 4.300000e-01    2.320000e+00
   N4a  SX4v  1 4.300000e-01    3.590000e+00
   N4a  SX3v  1 4.300000e-01    3.380000e+00
   N4a  SX2v  1 4.300000e-01    2.920000e+00
   N4a  SX1v  1 4.300000e-01    2.770000e+00
   N3a  SC6v  1 4.300000e-01    3.160000e+00
   N3a  SC5v  1 4.300000e-01    2.920000e+00
   N3a  SC4v  1 4.300000e-01    2.920000e+00
   N3a  SC3v  1 4.300000e-01    2.770000e+00
   N3a  SC2v  1 4.300000e-01    2.770000e+00
   N3a  SC1v  1 4.300000e-01    2.530000e+00
   N3a  SX4v  1 4.300000e-01    3.380000e+00
   N3a  SX3v  1 4.300000e-01    3.160000e+00
   N3a  SX2v  1 4.300000e-01    2.920000e+00
   N3a  SX1v  1 4.300000e-01    2.920000e+00
   N2a  SC6v  1 4.300000e-01    3.160000e+00
   N2a  SC5v  1 4.300000e-01    2.920000e+00
   N2a  SC4v  1 4.300000e-01    2.920000e+00
   N2a  SC3v  1 4.300000e-01    2.920000e+00
   N2a  SC2v  1 4.300000e-01    2.770000e+00
   N2a  SC1v  1 4.300000e-01    2.530000e+00
   N2a  SX4v  1 4.300000e-01    3.380000e+00
   N2a  SX3v  1 4.300000e-01    3.160000e+00
   N2a  SX2v  1 4.300000e-01    2.920000e+00
   N2a  SX1v  1 4.300000e-01    2.920000e+00
   N1a  SC6v  1 4.300000e-01    3.380000e+00
   N1a  SC5v  1 4.300000e-01    3.160000e+00
   N1a  SC4v  1 4.300000e-01    3.160000e+00
   N1a  SC3v  1 4.300000e-01    2.920000e+00
   N1a  SC2v  1 4.300000e-01    2.770000e+00
   N1a  SC1v  1 4.300000e-01    2.530000e+00
   N1a  SX4v  1 4.300000e-01    3.160000e+00
   N1a  SX3v  1 4.300000e-01    3.160000e+00
   N1a  SX2v  1 4.300000e-01    2.920000e+00
   N1a  SX1v  1 4.300000e-01    2.920000e+00
  SP6a   C6v  1 4.300000e-01    2.530000e+00
  SP6a   C5v  1 4.300000e-01    2.320000e+00
  SP6a   C4v  1 4.300000e-01    2.160000e+00
  SP6a   C3v  1 4.300000e-01    1.930000e+00
  SP6a   C2v  1 4.300000e-01    1.930000e+00
  SP6a   C1v  1 4.430000e-01    1.480000e+00
  SP6a   X4v  1 4.300000e-01    2.770000e+00
  SP6a   X3v  1 4.300000e-01    2.770000e+00
  SP6a   X2v  1 4.300000e-01    2.530000e+00
  SP6a   X1v  1 4.300000e-01    2.320000e+00
  SP5a   C6v  1 4.300000e-01    2.530000e+00
  SP5a   C5v  1 4.300000e-01    2.530000e+00
  SP5a   C4v  1 4.300000e-01    2.320000e+00
  SP5a   C3v  1 4.300000e-01    2.160000e+00
  SP5a   C2v  1 4.300000e-01    2.160000e+00
  SP5a   C1v  1 4.300000e-01    1.930000e+00
  SP5a   X4v  1 4.300000e-01    2.920000e+00
  SP5a   X3v  1 4.300000e-01    2.770000e+00
  SP5a   X2v  1 4.300000e-01    2.770000e+00
  SP5a   X1v  1 4.300000e-01    2.320000e+00
  SP4a   C6v  1 4.300000e-01    2.770000e+00
  SP4a   C5v  1 4.300000e-01    2.530000e+00
  SP4a   C4v  1 4.300000e-01    2.320000e+00
  SP4a   C3v  1 4.300000e-01    2.160000e+00
  SP4a   C2v  1 4.300000e-01    2.160000e+00
  SP4a   C1v  1 4.300000e-01    1.930000e+00
  SP4a   X4v  1 4.300000e-01    2.920000e+00
  SP4a   X3v  1 4.300000e-01    2.770000e+00
  SP4a   X2v  1 4.300000e-01    2.770000e+00
  SP4a   X1v  1 4.300000e-01    2.530000e+00
  SP3a   C6v  1 4.300000e-01    2.920000e+00
  SP3a   C5v  1 4.300000e-01    2.770000e+00
  SP3a   C4v  1 4.300000e-01    2.530000e+00
  SP3a   C3v  1 4.300000e-01    2.160000e+00
  SP3a   C2v  1 4.300000e-01    2.160000e+00
  SP3a   C1v  1 4.300000e-01    1.930000e+00
  SP3a   X4v  1 4.300000e-01    2.920000e+00
  SP3a   X3v  1 4.300000e-01    2.920000e+00
  SP3a   X2v  1 4.300000e-01    2.770000e+00
  SP3a   X1v  1 4.300000e-01    2.530000e+00
  SP2a   C6v  1 4.300000e-01    2.920000e+00
  SP2a   C5v  1 4.300000e-01    2.770000e+00
  SP2a   C4v  1 4.300000e-01    2.530000e+00
  SP2a   C3v  1 4.300000e-01    2.320000e+00
  SP2a   C2v  1 4.300000e-01    2.320000e+00
  SP2a   C1v  1 4.300000e-01    2.160000e+00
  SP2a   X4v  1 4.300000e-01    2.920000e+00
  SP2a   X3v  1 4.300000e-01    2.920000e+00
  SP2a   X2v  1 4.300000e-01    2.770000e+00
  SP2a   X1v  1 4.300000e-01    2.530000e+00
  SP1a   C6v  1 4.300000e-01    2.920000e+00
  SP1a   C5v  1 4.300000e-01    2.770000e+00
  SP1a   C4v  1 4.300000e-01    2.530000e+00
  SP1a   C3v  1 4.300000e-01    2.320000e+00
  SP1a   C2v  1 4.300000e-01    2.320000e+00
  SP1a   C1v  1 4.300000e-01    2.160000e+00
  SP1a   X4v  1 4.300000e-01    2.920000e+00
  SP1a   X3v  1 4.300000e-01    2.920000e+00
  SP1a   X2v  1 4.300000e-01    2.770000e+00
  SP1a   X1v  1 4.300000e-01    2.530000e+00
  SN6a   C6v  1 4.300000e-01    3.160000e+00
  SN6a   C5v  1 4.300000e-01    2.920000e+00
  SN6a   C4v  1 4.300000e-01    2.770000e+00
  SN6a   C3v  1 4.300000e-01    2.530000e+00
  SN6a   C2v  1 4.300000e-01    2.530000e+00
  SN6a   C1v  1 4.300000e-01    2.320000e+00
  SN6a   X4v  1 4.300000e-01    3.160000e+00
  SN6a   X3v  1 4.300000e-01    2.920000e+00
  SN6a   X2v  1 4.300000e-01    2.770000e+00
  SN6a   X1v  1 4.300000e-01    2.530000e+00
  SN5a   C6v  1 4.300000e-01    3.160000e+00
  SN5a   C5v  1 4.300000e-01    2.920000e+00
  SN5a   C4v  1 4.300000e-01    2.770000e+00
  SN5a   C3v  1 4.300000e-01    2.770000e+00
  SN5a   C2v  1 4.300000e-01    2.530000e+00
  SN5a   C1v  1 4.300000e-01    2.320000e+00
  SN5a   X4v  1 4.300000e-01    3.380000e+00
  SN5a   X3v  1 4.300000e-01    3.160000e+00
  SN5a   X2v  1 4.300000e-01    2.920000e+00
  SN5a   X1v  1 4.300000e-01    2.770000e+00
  SN4a   C6v  1 4.300000e-01    3.160000e+00
  SN4a   C5v  1 4.300000e-01    2.920000e+00
  SN4a   C4v  1 4.300000e-01    2.920000e+00
  SN4a   C3v  1 4.300000e-01    2.770000e+00
  SN4a   C2v  1 4.300000e-01    2.530000e+00
  SN4a   C1v  1 4.300000e-01    2.320000e+00
  SN4a   X4v  1 4.300000e-01    3.590000e+00
  SN4a   X3v  1 4.300000e-01    3.380000e+00
  SN4a   X2v  1 4.300000e-01    2.920000e+00
  SN4a   X1v  1 4.300000e-01    2.770000e+00
  SN3a   C6v  1 4.300000e-01    3.160000e+00
  SN3a   C5v  1 4.300000e-01    2.920000e+00
  SN3a   C4v  1 4.300000e-01    2.920000e+00
  SN3a   C3v  1 4.300000e-01    2.770000e+00
  SN3a   C2v  1 4.300000e-01    2.770000e+00
  SN3a   C1v  1 4.300000e-01    2.530000e+00
  SN3a   X4v  1 4.300000e-01    3.380000e+00
  SN3a   X3v  1 4.300000e-01    3.160000e+00
  SN3a   X2v  1 4.300000e-01    2.920000e+00
  SN3a   X1v  1 4.300000e-01    2.920000e+00
  SN2a   C6v  1 4.300000e-01    3.160000e+00
  SN2a   C5v  1 4.300000e-01    2.920000e+00
  SN2a   C4v  1 4.300000e-01    2.920000e+00
  SN2a   C3v  1 4.300000e-01    2.920000e+00
  SN2a   C2v  1 4.300000e-01    2.770000e+00
  SN2a   C1v  1 4.300000e-01    2.530000e+00
  SN2a   X4v  1 4.300000e-01    3.380000e+00
  SN2a   X3v  1 4.300000e-01    3.160000e+00
  SN2a   X2v  1 4.300000e-01    2.920000e+00
  SN2a   X1v  1 4.300000e-01    2.920000e+00
  SN1a   C6v  1 4.300000e-01    3.380000e+00
  SN1a   C5v  1 4.300000e-01    3.160000e+00
  SN1a   C4v  1 4.300000e-01    3.160000e+00
  SN1a   C3v  1 4.300000e-01    2.920000e+00
  SN1a   C2v  1 4.300000e-01    2.770000e+00
  SN1a   C1v  1 4.300000e-01    2.530000e+00
  SN1a   X4v  1 4.300000e-01    3.160000e+00
  SN1a   X3v  1 4.300000e-01    3.160000e+00
  SN1a   X2v  1 4.300000e-01    2.920000e+00
  SN1a   X1v  1 4.300000e-01    2.920000e+00
   P6a SX1vq  1 4.300000e-01    2.770000e+00
   P5a SX1vq  1 4.300000e-01    2.770000e+00
   P4a SX1vq  1 4.300000e-01    2.920000e+00
   P3a SX1vq  1 4.300000e-01    2.920000e+00
   P2a SX1vq  1 4.300000e-01    2.920000e+00
   P1a SX1vq  1 4.300000e-01    2.920000e+00
   N6a SX1vq  1 4.300000e-01    2.920000e+00
   N5a SX1vq  1 4.300000e-01    3.160000e+00
   N4a SX1vq  1 4.300000e-01    3.160000e+00
   N3a SX1vq  1 4.300000e-01    3.380000e+00
   N2a SX1vq  1 4.300000e-01    3.380000e+00
   N1a SX1vq  1 4.300000e-01    3.380000e+00
   P6a SX2vq  1 4.300000e-01    2.920000e+00
   P5a SX2vq  1 4.300000e-01    3.160000e+00
   P4a SX2vq  1 4.300000e-01    3.160000e+00
   P3a SX2vq  1 4.300000e-01    3.160000e+00
   P2a SX2vq  1 4.300000e-01    3.160000e+00
   P1a SX2vq  1 4.300000e-01    3.160000e+00
   N6a SX2vq  1 4.300000e-01    3.160000e+00
   N5a SX2vq  1 4.300000e-01    3.380000e+00
   N4a SX2vq  1 4.300000e-01    3.380000e+00
   N3a SX2vq  1 4.300000e-01    3.380000e+00
   N2a SX2vq  1 4.300000e-01    3.380000e+00
   N1a SX2vq  1 4.300000e-01    3.380000e+00
   P6a SX3vq  1 4.300000e-01    3.160000e+00
   P5a SX3vq  1 4.300000e-01    3.160000e+00
   P4a SX3vq  1 4.300000e-01    3.160000e+00
   P3a SX3vq  1 4.300000e-01    3.380000e+00
   P2a SX3vq  1 4.300000e-01    3.380000e+00
   P1a SX3vq  1 4.300000e-01    3.380000e+00
   N6a SX3vq  1 4.300000e-01    3.380000e+00
   N5a SX3vq  1 4.300000e-01    3.590000e+00
   N4a SX3vq  1 4.300000e-01    3.770000e+00
   N3a SX3vq  1 4.300000e-01    3.590000e+00
   N2a SX3vq  1 4.300000e-01    3.590000e+00
   N1a SX3vq  1 4.300000e-01    3.590000e+00
   P6a SX4vq  1 4.300000e-01    3.160000e+00
   P5a SX4vq  1 4.300000e-01    3.380000e+00
   P4a SX4vq  1 4.300000e-01    3.380000e+00
   P3a SX4vq  1 4.300000e-01    3.380000e+00
   P2a SX4vq  1 4.300000e-01    3.380000e+00
   P1a SX4vq  1 4.300000e-01    3.380000e+00
   N6a SX4vq  1 4.300000e-01    3.590000e+00
   N5a SX4vq  1 4.300000e-01    3.770000e+00
   N4a SX4vq  1 4.300000e-01    3.970000e+00
   N3a SX4vq  1 4.300000e-01    3.770000e+00
   N2a SX4vq  1 4.300000e-01    3.770000e+00
   N1a SX4vq  1 4.300000e-01    3.590000e+00
   P6a SC1vq  1 4.300000e-01    1.930000e+00
   P5a SC1vq  1 4.300000e-01    2.320000e+00
   P4a SC1vq  1 4.300000e-01    2.320000e+00
   P3a SC1vq  1 4.300000e-01    2.320000e+00
   P2a SC1vq  1 4.300000e-01    2.530000e+00
   P1a SC1vq  1 4.300000e-01    2.530000e+00
   N6a SC1vq  1 4.300000e-01    2.770000e+00
   N5a SC1vq  1 4.300000e-01    2.770000e+00
   N4a SC1vq  1 4.300000e-01    2.770000e+00
   N3a SC1vq  1 4.300000e-01    2.920000e+00
   N2a SC1vq  1 4.300000e-01    2.920000e+00
   N1a SC1vq  1 4.300000e-01    2.920000e+00
   P6a SC2vq  1 4.300000e-01    2.320000e+00
   P5a SC2vq  1 4.300000e-01    2.530000e+00
   P4a SC2vq  1 4.300000e-01    2.530000e+00
   P3a SC2vq  1 4.300000e-01    2.530000e+00
   P2a SC2vq  1 4.300000e-01    2.770000e+00
   P1a SC2vq  1 4.300000e-01    2.770000e+00
   N6a SC2vq  1 4.300000e-01    2.920000e+00
   N5a SC2vq  1 4.300000e-01    2.920000e+00
   N4a SC2vq  1 4.300000e-01    2.920000e+00
   N3a SC2vq  1 4.300000e-01    3.160000e+00
   N2a SC2vq  1 4.300000e-01    3.160000e+00
   N1a SC2vq  1 4.300000e-01    3.160000e+00
   P6a SC3vq  1 4.300000e-01    2.320000e+00
   P5a SC3vq  1 4.300000e-01    2.530000e+00
   P4a SC3vq  1 4.300000e-01    2.530000e+00
   P3a SC3vq  1 4.300000e-01    2.530000e+00
   P2a SC3vq  1 4.300000e-01    2.770000e+00
   P1a SC3vq  1 4.300000e-01    2.770000e+00
   N6a SC3vq  1 4.300000e-01    2.920000e+00
   N5a SC3vq  1 4.300000e-01    3.160000e+00
   N4a SC3vq  1 4.300000e-01    3.160000e+00
   N3a SC3vq  1 4.300000e-01    3.160000e+00
   N2a SC3vq  1 4.300000e-01    3.380000e+00
   N1a SC3vq  1 4.300000e-01    3.380000e+00
   P6a SC4vq  1 4.300000e-01    2.530000e+00
   P5a SC4vq  1 4.300000e-01    2.770000e+00
   P4a SC4vq  1 4.300000e-01    2.770000e+00
   P3a SC4vq  1 4.300000e-01    2.920000e+00
   P2a SC4vq  1 4.300000e-01    2.920000e+00
   P1a SC4vq  1 4.300000e-01    2.920000e+00
   N6a SC4vq  1 4.300000e-01    3.160000e+00
   N5a SC4vq  1 4.300000e-01    3.160000e+00
   N4a SC4vq  1 4.300000e-01    3.380000e+00
   N3a SC4vq  1 4.300000e-01    3.380000e+00
   N2a SC4vq  1 4.300000e-01    3.380000e+00
   N1a SC4vq  1 4.300000e-01    3.590000e+00
   P6a SC5vq  1 4.300000e-01    2.770000e+00
   P5a SC5vq  1 4.300000e-01    2.920000e+00
   P4a SC5vq  1 4.300000e-01    2.920000e+00
   P3a SC5vq  1 4.300000e-01    3.160000e+00
   P2a SC5vq  1 4.300000e-01    3.160000e+00
   P1a SC5vq  1 4.300000e-01    3.160000e+00
   N6a SC5vq  1 4.300000e-01    3.380000e+00
   N5a SC5vq  1 4.300000e-01    3.380000e+00
   N4a SC5vq  1 4.300000e-01    3.380000e+00
   N3a SC5vq  1 4.300000e-01    3.380000e+00
   N2a SC5vq  1 4.300000e-01    3.380000e+00
   N1a SC5vq  1 4.300000e-01    3.590000e+00
   P6a SC6vq  1 4.300000e-01    2.920000e+00
   P5a SC6vq  1 4.300000e-01    2.920000e+00
   P4a SC6vq  1 4.300000e-01    3.160000e+00
   P3a SC6vq  1 4.300000e-01    3.380000e+00
   P2a SC6vq  1 4.300000e-01    3.380000e+00
   P1a SC6vq  1 4.300000e-01    3.380000e+00
   N6a SC6vq  1 4.300000e-01    3.590000e+00
   N5a SC6vq  1 4.300000e-01    3.590000e+00
   N4a SC6vq  1 4.300000e-01    3.590000e+00
   N3a SC6vq  1 4.300000e-01    3.590000e+00
   N2a SC6vq  1 4.300000e-01    3.590000e+00
   N1a SC6vq  1 4.300000e-01    3.770000e+00
  SP6a  X1vq  1 4.300000e-01    2.770000e+00
  SP5a  X1vq  1 4.300000e-01    2.770000e+00
  SP4a  X1vq  1 4.300000e-01    2.920000e+00
  SP3a  X1vq  1 4.300000e-01    2.920000e+00
  SP2a  X1vq  1 4.300000e-01    2.920000e+00
  SP1a  X1vq  1 4.300000e-01    2.920000e+00
  SN6a  X1vq  1 4.300000e-01    2.920000e+00
  SN5a  X1vq  1 4.300000e-01    3.160000e+00
  SN4a  X1vq  1 4.300000e-01    3.160000e+00
  SN3a  X1vq  1 4.300000e-01    3.380000e+00
  SN2a  X1vq  1 4.300000e-01    3.380000e+00
  SN1a  X1vq  1 4.300000e-01    3.380000e+00
  SP6a  X2vq  1 4.300000e-01    2.920000e+00
  SP5a  X2vq  1 4.300000e-01    3.160000e+00
  SP4a  X2vq  1 4.300000e-01    3.160000e+00
  SP3a  X2vq  1 4.300000e-01    3.160000e+00
  SP2a  X2vq  1 4.300000e-01    3.160000e+00
  SP1a  X2vq  1 4.300000e-01    3.160000e+00
  SN6a  X2vq  1 4.300000e-01    3.160000e+00
  SN5a  X2vq  1 4.300000e-01    3.380000e+00
  SN4a  X2vq  1 4.300000e-01    3.380000e+00
  SN3a  X2vq  1 4.300000e-01    3.380000e+00
  SN2a  X2vq  1 4.300000e-01    3.380000e+00
  SN1a  X2vq  1 4.300000e-01    3.380000e+00
  SP6a  X3vq  1 4.300000e-01    3.160000e+00
  SP5a  X3vq  1 4.300000e-01    3.160000e+00
  SP4a  X3vq  1 4.300000e-01    3.160000e+00
  SP3a  X3vq  1 4.300000e-01    3.380000e+00
  SP2a  X3vq  1 4.300000e-01    3.380000e+00
  SP1a  X3vq  1 4.300000e-01    3.380000e+00
  SN6a  X3vq  1 4.300000e-01    3.380000e+00
  SN5a  X3vq  1 4.300000e-01    3.590000e+00
  SN4a  X3vq  1 4.300000e-01    3.770000e+00
  SN3a  X3vq  1 4.300000e-01    3.590000e+00
  SN2a  X3vq  1 4.300000e-01    3.590000e+00
  SN1a  X3vq  1 4.300000e-01    3.590000e+00
  SP6a  X4vq  1 4.300000e-01    3.160000e+00
  SP5a  X4vq  1 4.300000e-01    3.380000e+00
  SP4a  X4vq  1 4.300000e-01    3.380000e+00
  SP3a  X4vq  1 4.300000e-01    3.380000e+00
  SP2a  X4vq  1 4.300000e-01    3.380000e+00
  SP1a  X4vq  1 4.300000e-01    3.380000e+00
  SN6a  X4vq  1 4.300000e-01    3.590000e+00
  SN5a  X4vq  1 4.300000e-01    3.770000e+00
  SN4a  X4vq  1 4.300000e-01    3.970000e+00
  SN3a  X4vq  1 4.300000e-01    3.770000e+00
  SN2a  X4vq  1 4.300000e-01    3.770000e+00
  SN1a  X4vq  1 4.300000e-01    3.590000e+00
  SP6a  C1vq  1 4.300000e-01    1.930000e+00
  SP5a  C1vq  1 4.300000e-01    2.320000e+00
  SP4a  C1vq  1 4.300000e-01    2.320000e+00
  SP3a  C1vq  1 4.300000e-01    2.320000e+00
  SP2a  C1vq  1 4.300000e-01    2.530000e+00
  SP1a  C1vq  1 4.300000e-01    2.530000e+00
  SN6a  C1vq  1 4.300000e-01    2.770000e+00
  SN5a  C1vq  1 4.300000e-01    2.770000e+00
  SN4a  C1vq  1 4.300000e-01    2.770000e+00
  SN3a  C1vq  1 4.300000e-01    2.920000e+00
  SN2a  C1vq  1 4.300000e-01    2.920000e+00
  SN1a  C1vq  1 4.300000e-01    2.920000e+00
  SP6a  C2vq  1 4.300000e-01    2.320000e+00
  SP5a  C2vq  1 4.300000e-01    2.530000e+00
  SP4a  C2vq  1 4.300000e-01    2.530000e+00
  SP3a  C2vq  1 4.300000e-01    2.530000e+00
  SP2a  C2vq  1 4.300000e-01    2.770000e+00
  SP1a  C2vq  1 4.300000e-01    2.770000e+00
  SN6a  C2vq  1 4.300000e-01    2.920000e+00
  SN5a  C2vq  1 4.300000e-01    2.920000e+00
  SN4a  C2vq  1 4.300000e-01    2.920000e+00
  SN3a  C2vq  1 4.300000e-01    3.160000e+00
  SN2a  C2vq  1 4.300000e-01    3.160000e+00
  SN1a  C2vq  1 4.300000e-01    3.160000e+00
  SP6a  C3vq  1 4.300000e-01    2.320000e+00
  SP5a  C3vq  1 4.300000e-01    2.530000e+00
  SP4a  C3vq  1 4.300000e-01    2.530000e+00
  SP3a  C3vq  1 4.300000e-01    2.530000e+00
  SP2a  C3vq  1 4.300000e-01    2.770000e+00
  SP1a  C3vq  1 4.300000e-01    2.770000e+00
  SN6a  C3vq  1 4.300000e-01    2.920000e+00
  SN5a  C3vq  1 4.300000e-01    3.160000e+00
  SN4a  C3vq  1 4.300000e-01    3.160000e+00
  SN3a  C3vq  1 4.300000e-01    3.160000e+00
  SN2a  C3vq  1 4.300000e-01    3.380000e+00
  SN1a  C3vq  1 4.300000e-01    3.380000e+00
  SP6a  C4vq  1 4.300000e-01    2.530000e+00
  SP5a  C4vq  1 4.300000e-01    2.770000e+00
  SP4a  C4vq  1 4.300000e-01    2.770000e+00
  SP3a  C4vq  1 4.300000e-01    2.920000e+00
  SP2a  C4vq  1 4.300000e-01    2.920000e+00
  SP1a  C4vq  1 4.300000e-01    2.920000e+00
  SN6a  C4vq  1 4.300000e-01    3.160000e+00
  SN5a  C4vq  1 4.300000e-01    3.160000e+00
  SN4a  C4vq  1 4.300000e-01    3.380000e+00
  SN3a  C4vq  1 4.300000e-01    3.380000e+00
  SN2a  C4vq  1 4.300000e-01    3.380000e+00
  SN1a  C4vq  1 4.300000e-01    3.590000e+00
  SP6a  C5vq  1 4.300000e-01    2.770000e+00
  SP5a  C5vq  1 4.300000e-01    2.920000e+00
  SP4a  C5vq  1 4.300000e-01    2.920000e+00
  SP3a  C5vq  1 4.300000e-01    3.160000e+00
  SP2a  C5vq  1 4.300000e-01    3.160000e+00
  SP1a  C5vq  1 4.300000e-01    3.160000e+00
  SN6a  C5vq  1 4.300000e-01    3.380000e+00
  SN5a  C5vq  1 4.300000e-01    3.380000e+00
  SN4a  C5vq  1 4.300000e-01    3.380000e+00
  SN3a  C5vq  1 4.300000e-01    3.380000e+00
  SN2a  C5vq  1 4.300000e-01    3.380000e+00
  SN1a  C5vq  1 4.300000e-01    3.590000e+00
  SP6a  C6vq  1 4.300000e-01    2.920000e+00
  SP5a  C6vq  1 4.300000e-01    2.920000e+00
  SP4a  C6vq  1 4.300000e-01    3.160000e+00
  SP3a  C6vq  1 4.300000e-01    3.380000e+00
  SP2a  C6vq  1 4.300000e-01    3.380000e+00
  SP1a  C6vq  1 4.300000e-01    3.380000e+00
  SN6a  C6vq  1 4.300000e-01    3.590000e+00
  SN5a  C6vq  1 4.300000e-01    3.590000e+00
  SN4a  C6vq  1 4.300000e-01    3.590000e+00
  SN3a  C6vq  1 4.300000e-01    3.590000e+00
  SN2a  C6vq  1 4.300000e-01    3.590000e+00
  SN1a  C6vq  1 4.300000e-01    3.770000e+00
   P6a SX1vh  1 4.300000e-01    2.320000e+00
   P5a SX1vh  1 4.300000e-01    2.320000e+00
   P4a SX1vh  1 4.300000e-01    2.530000e+00
   P3a SX1vh  1 4.300000e-01    2.530000e+00
   P2a SX1vh  1 4.300000e-01    2.530000e+00
   P1a SX1vh  1 4.300000e-01    2.530000e+00
   N6a SX1vh  1 4.300000e-01    2.530000e+00
   N5a SX1vh  1 4.300000e-01    2.770000e+00
   N4a SX1vh  1 4.300000e-01    2.770000e+00
   N3a SX1vh  1 4.300000e-01    2.920000e+00
   N2a SX1vh  1 4.300000e-01    2.920000e+00
   N1a SX1vh  1 4.300000e-01    2.920000e+00
   P6a SX2vh  1 4.300000e-01    2.530000e+00
   P5a SX2vh  1 4.300000e-01    2.770000e+00
   P4a SX2vh  1 4.300000e-01    2.770000e+00
   P3a SX2vh  1 4.300000e-01    2.770000e+00
   P2a SX2vh  1 4.300000e-01    2.770000e+00
   P1a SX2vh  1 4.300000e-01    2.770000e+00
   N6a SX2vh  1 4.300000e-01    2.770000e+00
   N5a SX2vh  1 4.300000e-01    2.920000e+00
   N4a SX2vh  1 4.300000e-01    2.920000e+00
   N3a SX2vh  1 4.300000e-01    2.920000e+00
   N2a SX2vh  1 4.300000e-01    2.920000e+00
   N1a SX2vh  1 4.300000e-01    2.920000e+00
   P6a SX3vh  1 4.300000e-01    2.770000e+00
   P5a SX3vh  1 4.300000e-01    2.770000e+00
   P4a SX3vh  1 4.300000e-01    2.770000e+00
   P3a SX3vh  1 4.300000e-01    2.920000e+00
   P2a SX3vh  1 4.300000e-01    2.920000e+00
   P1a SX3vh  1 4.300000e-01    2.920000e+00
   N6a SX3vh  1 4.300000e-01    2.920000e+00
   N5a SX3vh  1 4.300000e-01    3.160000e+00
   N4a SX3vh  1 4.300000e-01    3.380000e+00
   N3a SX3vh  1 4.300000e-01    3.160000e+00
   N2a SX3vh  1 4.300000e-01    3.160000e+00
   N1a SX3vh  1 4.300000e-01    3.160000e+00
   P6a SX4vh  1 4.300000e-01    2.770000e+00
   P5a SX4vh  1 4.300000e-01    2.920000e+00
   P4a SX4vh  1 4.300000e-01    2.920000e+00
   P3a SX4vh  1 4.300000e-01    2.920000e+00
   P2a SX4vh  1 4.300000e-01    2.920000e+00
   P1a SX4vh  1 4.300000e-01    2.920000e+00
   N6a SX4vh  1 4.300000e-01    3.160000e+00
   N5a SX4vh  1 4.300000e-01    3.380000e+00
   N4a SX4vh  1 4.300000e-01    3.590000e+00
   N3a SX4vh  1 4.300000e-01    3.380000e+00
   N2a SX4vh  1 4.300000e-01    3.380000e+00
   N1a SX4vh  1 4.300000e-01    3.160000e+00
   P6a SC1vh  1 4.430000e-01    1.480000e+00
   P5a SC1vh  1 4.300000e-01    1.930000e+00
   P4a SC1vh  1 4.300000e-01    1.930000e+00
   P3a SC1vh  1 4.300000e-01    1.930000e+00
   P2a SC1vh  1 4.300000e-01    2.160000e+00
   P1a SC1vh  1 4.300000e-01    2.160000e+00
   N6a SC1vh  1 4.300000e-01    2.320000e+00
   N5a SC1vh  1 4.300000e-01    2.320000e+00
   N4a SC1vh  1 4.300000e-01    2.320000e+00
   N3a SC1vh  1 4.300000e-01    2.530000e+00
   N2a SC1vh  1 4.300000e-01    2.530000e+00
   N1a SC1vh  1 4.300000e-01    2.530000e+00
   P6a SC2vh  1 4.300000e-01    1.930000e+00
   P5a SC2vh  1 4.300000e-01    2.160000e+00
   P4a SC2vh  1 4.300000e-01    2.160000e+00
   P3a SC2vh  1 4.300000e-01    2.160000e+00
   P2a SC2vh  1 4.300000e-01    2.320000e+00
   P1a SC2vh  1 4.300000e-01    2.320000e+00
   N6a SC2vh  1 4.300000e-01    2.530000e+00
   N5a SC2vh  1 4.300000e-01    2.530000e+00
   N4a SC2vh  1 4.300000e-01    2.530000e+00
   N3a SC2vh  1 4.300000e-01    2.770000e+00
   N2a SC2vh  1 4.300000e-01    2.770000e+00
   N1a SC2vh  1 4.300000e-01    2.770000e+00
   P6a SC3vh  1 4.300000e-01    1.930000e+00
   P5a SC3vh  1 4.300000e-01    2.160000e+00
   P4a SC3vh  1 4.300000e-01    2.160000e+00
   P3a SC3vh  1 4.300000e-01    2.160000e+00
   P2a SC3vh  1 4.300000e-01    2.320000e+00
   P1a SC3vh  1 4.300000e-01    2.320000e+00
   N6a SC3vh  1 4.300000e-01    2.530000e+00
   N5a SC3vh  1 4.300000e-01    2.770000e+00
   N4a SC3vh  1 4.300000e-01    2.770000e+00
   N3a SC3vh  1 4.300000e-01    2.770000e+00
   N2a SC3vh  1 4.300000e-01    2.920000e+00
   N1a SC3vh  1 4.300000e-01    2.920000e+00
   P6a SC4vh  1 4.300000e-01    2.160000e+00
   P5a SC4vh  1 4.300000e-01    2.320000e+00
   P4a SC4vh  1 4.300000e-01    2.320000e+00
   P3a SC4vh  1 4.300000e-01    2.530000e+00
   P2a SC4vh  1 4.300000e-01    2.530000e+00
   P1a SC4vh  1 4.300000e-01    2.530000e+00
   N6a SC4vh  1 4.300000e-01    2.770000e+00
   N5a SC4vh  1 4.300000e-01    2.770000e+00
   N4a SC4vh  1 4.300000e-01    2.920000e+00
   N3a SC4vh  1 4.300000e-01    2.920000e+00
   N2a SC4vh  1 4.300000e-01    2.920000e+00
   N1a SC4vh  1 4.300000e-01    3.160000e+00
   P6a SC5vh  1 4.300000e-01    2.320000e+00
   P5a SC5vh  1 4.300000e-01    2.530000e+00
   P4a SC5vh  1 4.300000e-01    2.530000e+00
   P3a SC5vh  1 4.300000e-01    2.770000e+00
   P2a SC5vh  1 4.300000e-01    2.770000e+00
   P1a SC5vh  1 4.300000e-01    2.770000e+00
   N6a SC5vh  1 4.300000e-01    2.920000e+00
   N5a SC5vh  1 4.300000e-01    2.920000e+00
   N4a SC5vh  1 4.300000e-01    2.920000e+00
   N3a SC5vh  1 4.300000e-01    2.920000e+00
   N2a SC5vh  1 4.300000e-01    2.920000e+00
   N1a SC5vh  1 4.300000e-01    3.160000e+00
   P6a SC6vh  1 4.300000e-01    2.530000e+00
   P5a SC6vh  1 4.300000e-01    2.530000e+00
   P4a SC6vh  1 4.300000e-01    2.770000e+00
   P3a SC6vh  1 4.300000e-01    2.920000e+00
   P2a SC6vh  1 4.300000e-01    2.920000e+00
   P1a SC6vh  1 4.300000e-01    2.920000e+00
   N6a SC6vh  1 4.300000e-01    3.160000e+00
   N5a SC6vh  1 4.300000e-01    3.160000e+00
   N4a SC6vh  1 4.300000e-01    3.160000e+00
   N3a SC6vh  1 4.300000e-01    3.160000e+00
   N2a SC6vh  1 4.300000e-01    3.160000e+00
   N1a SC6vh  1 4.300000e-01    3.380000e+00
  SP6a  X1vh  1 4.300000e-01    2.320000e+00
  SP5a  X1vh  1 4.300000e-01    2.320000e+00
  SP4a  X1vh  1 4.300000e-01    2.530000e+00
  SP3a  X1vh  1 4.300000e-01    2.530000e+00
  SP2a  X1vh  1 4.300000e-01    2.530000e+00
  SP1a  X1vh  1 4.300000e-01    2.530000e+00
  SN6a  X1vh  1 4.300000e-01    2.530000e+00
  SN5a  X1vh  1 4.300000e-01    2.770000e+00
  SN4a  X1vh  1 4.300000e-01    2.770000e+00
  SN3a  X1vh  1 4.300000e-01    2.920000e+00
  SN2a  X1vh  1 4.300000e-01    2.920000e+00
  SN1a  X1vh  1 4.300000e-01    2.920000e+00
  SP6a  X2vh  1 4.300000e-01    2.530000e+00
  SP5a  X2vh  1 4.300000e-01    2.770000e+00
  SP4a  X2vh  1 4.300000e-01    2.770000e+00
  SP3a  X2vh  1 4.300000e-01    2.770000e+00
  SP2a  X2vh  1 4.300000e-01    2.770000e+00
  SP1a  X2vh  1 4.300000e-01    2.770000e+00
  SN6a  X2vh  1 4.300000e-01    2.770000e+00
  SN5a  X2vh  1 4.300000e-01    2.920000e+00
  SN4a  X2vh  1 4.300000e-01    2.920000e+00
  SN3a  X2vh  1 4.300000e-01    2.920000e+00
  SN2a  X2vh  1 4.300000e-01    2.920000e+00
  SN1a  X2vh  1 4.300000e-01    2.920000e+00
  SP6a  X3vh  1 4.300000e-01    2.770000e+00
  SP5a  X3vh  1 4.300000e-01    2.770000e+00
  SP4a  X3vh  1 4.300000e-01    2.770000e+00
  SP3a  X3vh  1 4.300000e-01    2.920000e+00
  SP2a  X3vh  1 4.300000e-01    2.920000e+00
  SP1a  X3vh  1 4.300000e-01    2.920000e+00
  SN6a  X3vh  1 4.300000e-01    2.920000e+00
  SN5a  X3vh  1 4.300000e-01    3.160000e+00
  SN4a  X3vh  1 4.300000e-01    3.380000e+00
  SN3a  X3vh  1 4.300000e-01    3.160000e+00
  SN2a  X3vh  1 4.300000e-01    3.160000e+00
  SN1a  X3vh  1 4.300000e-01    3.160000e+00
  SP6a  X4vh  1 4.300000e-01    2.770000e+00
  SP5a  X4vh  1 4.300000e-01    2.920000e+00
  SP4a  X4vh  1 4.300000e-01    2.920000e+00
  SP3a  X4vh  1 4.300000e-01    2.920000e+00
  SP2a  X4vh  1 4.300000e-01    2.920000e+00
  SP1a  X4vh  1 4.300000e-01    2.920000e+00
  SN6a  X4vh  1 4.300000e-01    3.160000e+00
  SN5a  X4vh  1 4.300000e-01    3.380000e+00
  SN4a  X4vh  1 4.300000e-01    3.590000e+00
  SN3a  X4vh  1 4.300000e-01    3.380000e+00
  SN2a  X4vh  1 4.300000e-01    3.380000e+00
  SN1a  X4vh  1 4.300000e-01    3.160000e+00
  SP6a  C1vh  1 4.430000e-01    1.480000e+00
  SP5a  C1vh  1 4.300000e-01    1.930000e+00
  SP4a  C1vh  1 4.300000e-01    1.930000e+00
  SP3a  C1vh  1 4.300000e-01    1.930000e+00
  SP2a  C1vh  1 4.300000e-01    2.160000e+00
  SP1a  C1vh  1 4.300000e-01    2.160000e+00
  SN6a  C1vh  1 4.300000e-01    2.320000e+00
  SN5a  C1vh  1 4.300000e-01    2.320000e+00
  SN4a  C1vh  1 4.300000e-01    2.320000e+00
  SN3a  C1vh  1 4.300000e-01    2.530000e+00
  SN2a  C1vh  1 4.300000e-01    2.530000e+00
  SN1a  C1vh  1 4.300000e-01    2.530000e+00
  SP6a  C2vh  1 4.300000e-01    1.930000e+00
  SP5a  C2vh  1 4.300000e-01    2.160000e+00
  SP4a  C2vh  1 4.300000e-01    2.160000e+00
  SP3a  C2vh  1 4.300000e-01    2.160000e+00
  SP2a  C2vh  1 4.300000e-01    2.320000e+00
  SP1a  C2vh  1 4.300000e-01    2.320000e+00
  SN6a  C2vh  1 4.300000e-01    2.530000e+00
  SN5a  C2vh  1 4.300000e-01    2.530000e+00
  SN4a  C2vh  1 4.300000e-01    2.530000e+00
  SN3a  C2vh  1 4.300000e-01    2.770000e+00
  SN2a  C2vh  1 4.300000e-01    2.770000e+00
  SN1a  C2vh  1 4.300000e-01    2.770000e+00
  SP6a  C3vh  1 4.300000e-01    1.930000e+00
  SP5a  C3vh  1 4.300000e-01    2.160000e+00
  SP4a  C3vh  1 4.300000e-01    2.160000e+00
  SP3a  C3vh  1 4.300000e-01    2.160000e+00
  SP2a  C3vh  1 4.300000e-01    2.320000e+00
  SP1a  C3vh  1 4.300000e-01    2.320000e+00
  SN6a  C3vh  1 4.300000e-01    2.530000e+00
  SN5a  C3vh  1 4.300000e-01    2.770000e+00
  SN4a  C3vh  1 4.300000e-01    2.770000e+00
  SN3a  C3vh  1 4.300000e-01    2.770000e+00
  SN2a  C3vh  1 4.300000e-01    2.920000e+00
  SN1a  C3vh  1 4.300000e-01    2.920000e+00
  SP6a  C4vh  1 4.300000e-01    2.160000e+00
  SP5a  C4vh  1 4.300000e-01    2.320000e+00
  SP4a  C4vh  1 4.300000e-01    2.320000e+00
  SP3a  C4vh  1 4.300000e-01    2.530000e+00
  SP2a  C4vh  1 4.300000e-01    2.530000e+00
  SP1a  C4vh  1 4.300000e-01    2.530000e+00
  SN6a  C4vh  1 4.300000e-01    2.770000e+00
  SN5a  C4vh  1 4.300000e-01    2.770000e+00
  SN4a  C4vh  1 4.300000e-01    2.920000e+00
  SN3a  C4vh  1 4.300000e-01    2.920000e+00
  SN2a  C4vh  1 4.300000e-01    2.920000e+00
  SN1a  C4vh  1 4.300000e-01    3.160000e+00
  SP6a  C5vh  1 4.300000e-01    2.320000e+00
  SP5a  C5vh  1 4.300000e-01    2.530000e+00
  SP4a  C5vh  1 4.300000e-01    2.530000e+00
  SP3a  C5vh  1 4.300000e-01    2.770000e+00
  SP2a  C5vh  1 4.300000e-01    2.770000e+00
  SP1a  C5vh  1 4.300000e-01    2.770000e+00
  SN6a  C5vh  1 4.300000e-01    2.920000e+00
  SN5a  C5vh  1 4.300000e-01    2.920000e+00
  SN4a  C5vh  1 4.300000e-01    2.920000e+00
  SN3a  C5vh  1 4.300000e-01    2.920000e+00
  SN2a  C5vh  1 4.300000e-01    2.920000e+00
  SN1a  C5vh  1 4.300000e-01    3.160000e+00
  SP6a  C6vh  1 4.300000e-01    2.530000e+00
  SP5a  C6vh  1 4.300000e-01    2.530000e+00
  SP4a  C6vh  1 4.300000e-01    2.770000e+00
  SP3a  C6vh  1 4.300000e-01    2.920000e+00
  SP2a  C6vh  1 4.300000e-01    2.920000e+00
  SP1a  C6vh  1 4.300000e-01    2.920000e+00
  SN6a  C6vh  1 4.300000e-01    3.160000e+00
  SN5a  C6vh  1 4.300000e-01    3.160000e+00
  SN4a  C6vh  1 4.300000e-01    3.160000e+00
  SN3a  C6vh  1 4.300000e-01    3.160000e+00
  SN2a  C6vh  1 4.300000e-01    3.160000e+00
  SN1a  C6vh  1 4.300000e-01    3.380000e+00
   P6a SX1vr  1 4.300000e-01    2.320000e+00
   P5a SX1vr  1 4.300000e-01    2.320000e+00
   P4a SX1vr  1 4.300000e-01    2.530000e+00
   P3a SX1vr  1 4.300000e-01    2.530000e+00
   P2a SX1vr  1 4.300000e-01    2.530000e+00
   P1a SX1vr  1 4.300000e-01    2.530000e+00
   N6a SX1vr  1 4.300000e-01    2.530000e+00
   N5a SX1vr  1 4.300000e-01    2.770000e+00
   N4a SX1vr  1 4.300000e-01    2.770000e+00
   N3a SX1vr  1 4.300000e-01    2.920000e+00
   N2a SX1vr  1 4.300000e-01    2.920000e+00
   N1a SX1vr  1 4.300000e-01    2.920000e+00
   P6a SX2vr  1 4.300000e-01    2.530000e+00
   P5a SX2vr  1 4.300000e-01    2.770000e+00
   P4a SX2vr  1 4.300000e-01    2.770000e+00
   P3a SX2vr  1 4.300000e-01    2.770000e+00
   P2a SX2vr  1 4.300000e-01    2.770000e+00
   P1a SX2vr  1 4.300000e-01    2.770000e+00
   N6a SX2vr  1 4.300000e-01    2.770000e+00
   N5a SX2vr  1 4.300000e-01    2.920000e+00
   N4a SX2vr  1 4.300000e-01    2.920000e+00
   N3a SX2vr  1 4.300000e-01    2.920000e+00
   N2a SX2vr  1 4.300000e-01    2.920000e+00
   N1a SX2vr  1 4.300000e-01    2.920000e+00
   P6a SX3vr  1 4.300000e-01    2.770000e+00
   P5a SX3vr  1 4.300000e-01    2.770000e+00
   P4a SX3vr  1 4.300000e-01    2.770000e+00
   P3a SX3vr  1 4.300000e-01    2.920000e+00
   P2a SX3vr  1 4.300000e-01    2.920000e+00
   P1a SX3vr  1 4.300000e-01    2.920000e+00
   N6a SX3vr  1 4.300000e-01    2.920000e+00
   N5a SX3vr  1 4.300000e-01    3.160000e+00
   N4a SX3vr  1 4.300000e-01    3.380000e+00
   N3a SX3vr  1 4.300000e-01    3.160000e+00
   N2a SX3vr  1 4.300000e-01    3.160000e+00
   N1a SX3vr  1 4.300000e-01    3.160000e+00
   P6a SX4vr  1 4.300000e-01    2.770000e+00
   P5a SX4vr  1 4.300000e-01    2.920000e+00
   P4a SX4vr  1 4.300000e-01    2.920000e+00
   P3a SX4vr  1 4.300000e-01    2.920000e+00
   P2a SX4vr  1 4.300000e-01    2.920000e+00
   P1a SX4vr  1 4.300000e-01    2.920000e+00
   N6a SX4vr  1 4.300000e-01    3.160000e+00
   N5a SX4vr  1 4.300000e-01    3.380000e+00
   N4a SX4vr  1 4.300000e-01    3.590000e+00
   N3a SX4vr  1 4.300000e-01    3.380000e+00
   N2a SX4vr  1 4.300000e-01    3.380000e+00
   N1a SX4vr  1 4.300000e-01    3.160000e+00
   P6a SC1vr  1 4.430000e-01    1.480000e+00
   P5a SC1vr  1 4.300000e-01    1.930000e+00
   P4a SC1vr  1 4.300000e-01    1.930000e+00
   P3a SC1vr  1 4.300000e-01    1.930000e+00
   P2a SC1vr  1 4.300000e-01    2.160000e+00
   P1a SC1vr  1 4.300000e-01    2.160000e+00
   N6a SC1vr  1 4.300000e-01    2.320000e+00
   N5a SC1vr  1 4.300000e-01    2.320000e+00
   N4a SC1vr  1 4.300000e-01    2.320000e+00
   N3a SC1vr  1 4.300000e-01    2.530000e+00
   N2a SC1vr  1 4.300000e-01    2.530000e+00
   N1a SC1vr  1 4.300000e-01    2.530000e+00
   P6a SC2vr  1 4.300000e-01    1.930000e+00
   P5a SC2vr  1 4.300000e-01    2.160000e+00
   P4a SC2vr  1 4.300000e-01    2.160000e+00
   P3a SC2vr  1 4.300000e-01    2.160000e+00
   P2a SC2vr  1 4.300000e-01    2.320000e+00
   P1a SC2vr  1 4.300000e-01    2.320000e+00
   N6a SC2vr  1 4.300000e-01    2.530000e+00
   N5a SC2vr  1 4.300000e-01    2.530000e+00
   N4a SC2vr  1 4.300000e-01    2.530000e+00
   N3a SC2vr  1 4.300000e-01    2.770000e+00
   N2a SC2vr  1 4.300000e-01    2.770000e+00
   N1a SC2vr  1 4.300000e-01    2.770000e+00
   P6a SC3vr  1 4.300000e-01    1.930000e+00
   P5a SC3vr  1 4.300000e-01    2.160000e+00
   P4a SC3vr  1 4.300000e-01    2.160000e+00
   P3a SC3vr  1 4.300000e-01    2.160000e+00
   P2a SC3vr  1 4.300000e-01    2.320000e+00
   P1a SC3vr  1 4.300000e-01    2.320000e+00
   N6a SC3vr  1 4.300000e-01    2.530000e+00
   N5a SC3vr  1 4.300000e-01    2.770000e+00
   N4a SC3vr  1 4.300000e-01    2.770000e+00
   N3a SC3vr  1 4.300000e-01    2.770000e+00
   N2a SC3vr  1 4.300000e-01    2.920000e+00
   N1a SC3vr  1 4.300000e-01    2.920000e+00
   P6a SC4vr  1 4.300000e-01    2.160000e+00
   P5a SC4vr  1 4.300000e-01    2.320000e+00
   P4a SC4vr  1 4.300000e-01    2.320000e+00
   P3a SC4vr  1 4.300000e-01    2.530000e+00
   P2a SC4vr  1 4.300000e-01    2.530000e+00
   P1a SC4vr  1 4.300000e-01    2.530000e+00
   N6a SC4vr  1 4.300000e-01    2.770000e+00
   N5a SC4vr  1 4.300000e-01    2.770000e+00
   N4a SC4vr  1 4.300000e-01    2.920000e+00
   N3a SC4vr  1 4.300000e-01    2.920000e+00
   N2a SC4vr  1 4.300000e-01    2.920000e+00
   N1a SC4vr  1 4.300000e-01    3.160000e+00
   P6a SC5vr  1 4.300000e-01    2.320000e+00
   P5a SC5vr  1 4.300000e-01    2.530000e+00
   P4a SC5vr  1 4.300000e-01    2.530000e+00
   P3a SC5vr  1 4.300000e-01    2.770000e+00
   P2a SC5vr  1 4.300000e-01    2.770000e+00
   P1a SC5vr  1 4.300000e-01    2.770000e+00
   N6a SC5vr  1 4.300000e-01    2.920000e+00
   N5a SC5vr  1 4.300000e-01    2.920000e+00
   N4a SC5vr  1 4.300000e-01    2.920000e+00
   N3a SC5vr  1 4.300000e-01    2.920000e+00
   N2a SC5vr  1 4.300000e-01    2.920000e+00
   N1a SC5vr  1 4.300000e-01    3.160000e+00
   P6a SC6vr  1 4.300000e-01    2.530000e+00
   P5a SC6vr  1 4.300000e-01    2.530000e+00
   P4a SC6vr  1 4.300000e-01    2.770000e+00
   P3a SC6vr  1 4.300000e-01    2.920000e+00
   P2a SC6vr  1 4.300000e-01    2.920000e+00
   P1a SC6vr  1 4.300000e-01    2.920000e+00
   N6a SC6vr  1 4.300000e-01    3.160000e+00
   N5a SC6vr  1 4.300000e-01    3.160000e+00
   N4a SC6vr  1 4.300000e-01    3.160000e+00
   N3a SC6vr  1 4.300000e-01    3.160000e+00
   N2a SC6vr  1 4.300000e-01    3.160000e+00
   N1a SC6vr  1 4.300000e-01    3.380000e+00
  SP6a  X1vr  1 4.300000e-01    2.320000e+00
  SP5a  X1vr  1 4.300000e-01    2.320000e+00
  SP4a  X1vr  1 4.300000e-01    2.530000e+00
  SP3a  X1vr  1 4.300000e-01    2.530000e+00
  SP2a  X1vr  1 4.300000e-01    2.530000e+00
  SP1a  X1vr  1 4.300000e-01    2.530000e+00
  SN6a  X1vr  1 4.300000e-01    2.530000e+00
  SN5a  X1vr  1 4.300000e-01    2.770000e+00
  SN4a  X1vr  1 4.300000e-01    2.770000e+00
  SN3a  X1vr  1 4.300000e-01    2.920000e+00
  SN2a  X1vr  1 4.300000e-01    2.920000e+00
  SN1a  X1vr  1 4.300000e-01    2.920000e+00
  SP6a  X2vr  1 4.300000e-01    2.530000e+00
  SP5a  X2vr  1 4.300000e-01    2.770000e+00
  SP4a  X2vr  1 4.300000e-01    2.770000e+00
  SP3a  X2vr  1 4.300000e-01    2.770000e+00
  SP2a  X2vr  1 4.300000e-01    2.770000e+00
  SP1a  X2vr  1 4.300000e-01    2.770000e+00
  SN6a  X2vr  1 4.300000e-01    2.770000e+00
  SN5a  X2vr  1 4.300000e-01    2.920000e+00
  SN4a  X2vr  1 4.300000e-01    2.920000e+00
  SN3a  X2vr  1 4.300000e-01    2.920000e+00
  SN2a  X2vr  1 4.300000e-01    2.920000e+00
  SN1a  X2vr  1 4.300000e-01    2.920000e+00
  SP6a  X3vr  1 4.300000e-01    2.770000e+00
  SP5a  X3vr  1 4.300000e-01    2.770000e+00
  SP4a  X3vr  1 4.300000e-01    2.770000e+00
  SP3a  X3vr  1 4.300000e-01    2.920000e+00
  SP2a  X3vr  1 4.300000e-01    2.920000e+00
  SP1a  X3vr  1 4.300000e-01    2.920000e+00
  SN6a  X3vr  1 4.300000e-01    2.920000e+00
  SN5a  X3vr  1 4.300000e-01    3.160000e+00
  SN4a  X3vr  1 4.300000e-01    3.380000e+00
  SN3a  X3vr  1 4.300000e-01    3.160000e+00
  SN2a  X3vr  1 4.300000e-01    3.160000e+00
  SN1a  X3vr  1 4.300000e-01    3.160000e+00
  SP6a  X4vr  1 4.300000e-01    2.770000e+00
  SP5a  X4vr  1 4.300000e-01    2.920000e+00
  SP4a  X4vr  1 4.300000e-01    2.920000e+00
  SP3a  X4vr  1 4.300000e-01    2.920000e+00
  SP2a  X4vr  1 4.300000e-01    2.920000e+00
  SP1a  X4vr  1 4.300000e-01    2.920000e+00
  SN6a  X4vr  1 4.300000e-01    3.160000e+00
  SN5a  X4vr  1 4.300000e-01    3.380000e+00
  SN4a  X4vr  1 4.300000e-01    3.590000e+00
  SN3a  X4vr  1 4.300000e-01    3.380000e+00
  SN2a  X4vr  1 4.300000e-01    3.380000e+00
  SN1a  X4vr  1 4.300000e-01    3.160000e+00
  SP6a  C1vr  1 4.430000e-01    1.480000e+00
  SP5a  C1vr  1 4.300000e-01    1.930000e+00
  SP4a  C1vr  1 4.300000e-01    1.930000e+00
  SP3a  C1vr  1 4.300000e-01    1.930000e+00
  SP2a  C1vr  1 4.300000e-01    2.160000e+00
  SP1a  C1vr  1 4.300000e-01    2.160000e+00
  SN6a  C1vr  1 4.300000e-01    2.320000e+00
  SN5a  C1vr  1 4.300000e-01    2.320000e+00
  SN4a  C1vr  1 4.300000e-01    2.320000e+00
  SN3a  C1vr  1 4.300000e-01    2.530000e+00
  SN2a  C1vr  1 4.300000e-01    2.530000e+00
  SN1a  C1vr  1 4.300000e-01    2.530000e+00
  SP6a  C2vr  1 4.300000e-01    1.930000e+00
  SP5a  C2vr  1 4.300000e-01    2.160000e+00
  SP4a  C2vr  1 4.300000e-01    2.160000e+00
  SP3a  C2vr  1 4.300000e-01    2.160000e+00
  SP2a  C2vr  1 4.300000e-01    2.320000e+00
  SP1a  C2vr  1 4.300000e-01    2.320000e+00
  SN6a  C2vr  1 4.300000e-01    2.530000e+00
  SN5a  C2vr  1 4.300000e-01    2.530000e+00
  SN4a  C2vr  1 4.300000e-01    2.530000e+00
  SN3a  C2vr  1 4.300000e-01    2.770000e+00
  SN2a  C2vr  1 4.300000e-01    2.770000e+00
  SN1a  C2vr  1 4.300000e-01    2.770000e+00
  SP6a  C3vr  1 4.300000e-01    1.930000e+00
  SP5a  C3vr  1 4.300000e-01    2.160000e+00
  SP4a  C3vr  1 4.300000e-01    2.160000e+00
  SP3a  C3vr  1 4.300000e-01    2.160000e+00
  SP2a  C3vr  1 4.300000e-01    2.320000e+00
  SP1a  C3vr  1 4.300000e-01    2.320000e+00
  SN6a  C3vr  1 4.300000e-01    2.530000e+00
  SN5a  C3vr  1 4.300000e-01    2.770000e+00
  SN4a  C3vr  1 4.300000e-01    2.770000e+00
  SN3a  C3vr  1 4.300000e-01    2.770000e+00
  SN2a  C3vr  1 4.300000e-01    2.920000e+00
  SN1a  C3vr  1 4.300000e-01    2.920000e+00
  SP6a  C4vr  1 4.300000e-01    2.160000e+00
  SP5a  C4vr  1 4.300000e-01    2.320000e+00
  SP4a  C4vr  1 4.300000e-01    2.320000e+00
  SP3a  C4vr  1 4.300000e-01    2.530000e+00
  SP2a  C4vr  1 4.300000e-01    2.530000e+00
  SP1a  C4vr  1 4.300000e-01    2.530000e+00
  SN6a  C4vr  1 4.300000e-01    2.770000e+00
  SN5a  C4vr  1 4.300000e-01    2.770000e+00
  SN4a  C4vr  1 4.300000e-01    2.920000e+00
  SN3a  C4vr  1 4.300000e-01    2.920000e+00
  SN2a  C4vr  1 4.300000e-01    2.920000e+00
  SN1a  C4vr  1 4.300000e-01    3.160000e+00
  SP6a  C5vr  1 4.300000e-01    2.320000e+00
  SP5a  C5vr  1 4.300000e-01    2.530000e+00
  SP4a  C5vr  1 4.300000e-01    2.530000e+00
  SP3a  C5vr  1 4.300000e-01    2.770000e+00
  SP2a  C5vr  1 4.300000e-01    2.770000e+00
  SP1a  C5vr  1 4.300000e-01    2.770000e+00
  SN6a  C5vr  1 4.300000e-01    2.920000e+00
  SN5a  C5vr  1 4.300000e-01    2.920000e+00
  SN4a  C5vr  1 4.300000e-01    2.920000e+00
  SN3a  C5vr  1 4.300000e-01    2.920000e+00
  SN2a  C5vr  1 4.300000e-01    2.920000e+00
  SN1a  C5vr  1 4.300000e-01    3.160000e+00
  SP6a  C6vr  1 4.300000e-01    2.530000e+00
  SP5a  C6vr  1 4.300000e-01    2.530000e+00
  SP4a  C6vr  1 4.300000e-01    2.770000e+00
  SP3a  C6vr  1 4.300000e-01    2.920000e+00
  SP2a  C6vr  1 4.300000e-01    2.920000e+00
  SP1a  C6vr  1 4.300000e-01    2.920000e+00
  SN6a  C6vr  1 4.300000e-01    3.160000e+00
  SN5a  C6vr  1 4.300000e-01    3.160000e+00
  SN4a  C6vr  1 4.300000e-01    3.160000e+00
  SN3a  C6vr  1 4.300000e-01    3.160000e+00
  SN2a  C6vr  1 4.300000e-01    3.160000e+00
  SN1a  C6vr  1 4.300000e-01    3.380000e+00
  P6aq  SC6v  1 4.300000e-01    2.920000e+00
  P6aq  SC5v  1 4.300000e-01    2.770000e+00
  P6aq  SC4v  1 4.300000e-01    2.530000e+00
  P6aq  SC3v  1 4.300000e-01    2.320000e+00
  P6aq  SC2v  1 4.300000e-01    2.320000e+00
  P6aq  SC1v  1 4.300000e-01    1.930000e+00
  P6aq  SX4v  1 4.300000e-01    3.160000e+00
  P6aq  SX3v  1 4.300000e-01    3.160000e+00
  P6aq  SX2v  1 4.300000e-01    2.920000e+00
  P6aq  SX1v  1 4.300000e-01    2.770000e+00
  P5aq  SC6v  1 4.300000e-01    2.920000e+00
  P5aq  SC5v  1 4.300000e-01    2.920000e+00
  P5aq  SC4v  1 4.300000e-01    2.770000e+00
  P5aq  SC3v  1 4.300000e-01    2.530000e+00
  P5aq  SC2v  1 4.300000e-01    2.530000e+00
  P5aq  SC1v  1 4.300000e-01    2.320000e+00
  P5aq  SX4v  1 4.300000e-01    3.380000e+00
  P5aq  SX3v  1 4.300000e-01    3.160000e+00
  P5aq  SX2v  1 4.300000e-01    3.160000e+00
  P5aq  SX1v  1 4.300000e-01    2.770000e+00
  P4aq  SC6v  1 4.300000e-01    3.160000e+00
  P4aq  SC5v  1 4.300000e-01    2.920000e+00
  P4aq  SC4v  1 4.300000e-01    2.770000e+00
  P4aq  SC3v  1 4.300000e-01    2.530000e+00
  P4aq  SC2v  1 4.300000e-01    2.530000e+00
  P4aq  SC1v  1 4.300000e-01    2.320000e+00
  P4aq  SX4v  1 4.300000e-01    3.380000e+00
  P4aq  SX3v  1 4.300000e-01    3.160000e+00
  P4aq  SX2v  1 4.300000e-01    3.160000e+00
  P4aq  SX1v  1 4.300000e-01    2.920000e+00
  P3aq  SC6v  1 4.300000e-01    3.380000e+00
  P3aq  SC5v  1 4.300000e-01    3.160000e+00
  P3aq  SC4v  1 4.300000e-01    2.920000e+00
  P3aq  SC3v  1 4.300000e-01    2.530000e+00
  P3aq  SC2v  1 4.300000e-01    2.530000e+00
  P3aq  SC1v  1 4.300000e-01    2.320000e+00
  P3aq  SX4v  1 4.300000e-01    3.380000e+00
  P3aq  SX3v  1 4.300000e-01    3.380000e+00
  P3aq  SX2v  1 4.300000e-01    3.160000e+00
  P3aq  SX1v  1 4.300000e-01    2.920000e+00
  P2aq  SC6v  1 4.300000e-01    3.380000e+00
  P2aq  SC5v  1 4.300000e-01    3.160000e+00
  P2aq  SC4v  1 4.300000e-01    2.920000e+00
  P2aq  SC3v  1 4.300000e-01    2.770000e+00
  P2aq  SC2v  1 4.300000e-01    2.770000e+00
  P2aq  SC1v  1 4.300000e-01    2.530000e+00
  P2aq  SX4v  1 4.300000e-01    3.380000e+00
  P2aq  SX3v  1 4.300000e-01    3.380000e+00
  P2aq  SX2v  1 4.300000e-01    3.160000e+00
  P2aq  SX1v  1 4.300000e-01    2.920000e+00
  P1aq  SC6v  1 4.300000e-01    3.380000e+00
  P1aq  SC5v  1 4.300000e-01    3.160000e+00
  P1aq  SC4v  1 4.300000e-01    2.920000e+00
  P1aq  SC3v  1 4.300000e-01    2.770000e+00
  P1aq  SC2v  1 4.300000e-01    2.770000e+00
  P1aq  SC1v  1 4.300000e-01    2.530000e+00
  P1aq  SX4v  1 4.300000e-01    3.380000e+00
  P1aq  SX3v  1 4.300000e-01    3.380000e+00
  P1aq  SX2v  1 4.300000e-01    3.160000e+00
  P1aq  SX1v  1 4.300000e-01    2.920000e+00
  N6aq  SC6v  1 4.300000e-01    3.590000e+00
  N6aq  SC5v  1 4.300000e-01    3.380000e+00
  N6aq  SC4v  1 4.300000e-01    3.160000e+00
  N6aq  SC3v  1 4.300000e-01    2.920000e+00
  N6aq  SC2v  1 4.300000e-01    2.920000e+00
  N6aq  SC1v  1 4.300000e-01    2.770000e+00
  N6aq  SX4v  1 4.300000e-01    3.590000e+00
  N6aq  SX3v  1 4.300000e-01    3.380000e+00
  N6aq  SX2v  1 4.300000e-01    3.160000e+00
  N6aq  SX1v  1 4.300000e-01    2.920000e+00
  N5aq  SC6v  1 4.300000e-01    3.590000e+00
  N5aq  SC5v  1 4.300000e-01    3.380000e+00
  N5aq  SC4v  1 4.300000e-01    3.160000e+00
  N5aq  SC3v  1 4.300000e-01    3.160000e+00
  N5aq  SC2v  1 4.300000e-01    2.920000e+00
  N5aq  SC1v  1 4.300000e-01    2.770000e+00
  N5aq  SX4v  1 4.300000e-01    3.770000e+00
  N5aq  SX3v  1 4.300000e-01    3.590000e+00
  N5aq  SX2v  1 4.300000e-01    3.380000e+00
  N5aq  SX1v  1 4.300000e-01    3.160000e+00
  N4aq  SC6v  1 4.300000e-01    3.590000e+00
  N4aq  SC5v  1 4.300000e-01    3.380000e+00
  N4aq  SC4v  1 4.300000e-01    3.380000e+00
  N4aq  SC3v  1 4.300000e-01    3.160000e+00
  N4aq  SC2v  1 4.300000e-01    2.920000e+00
  N4aq  SC1v  1 4.300000e-01    2.770000e+00
  N4aq  SX4v  1 4.300000e-01    3.970000e+00
  N4aq  SX3v  1 4.300000e-01    3.770000e+00
  N4aq  SX2v  1 4.300000e-01    3.380000e+00
  N4aq  SX1v  1 4.300000e-01    3.160000e+00
  N3aq  SC6v  1 4.300000e-01    3.590000e+00
  N3aq  SC5v  1 4.300000e-01    3.380000e+00
  N3aq  SC4v  1 4.300000e-01    3.380000e+00
  N3aq  SC3v  1 4.300000e-01    3.160000e+00
  N3aq  SC2v  1 4.300000e-01    3.160000e+00
  N3aq  SC1v  1 4.300000e-01    2.920000e+00
  N3aq  SX4v  1 4.300000e-01    3.770000e+00
  N3aq  SX3v  1 4.300000e-01    3.590000e+00
  N3aq  SX2v  1 4.300000e-01    3.380000e+00
  N3aq  SX1v  1 4.300000e-01    3.380000e+00
  N2aq  SC6v  1 4.300000e-01    3.590000e+00
  N2aq  SC5v  1 4.300000e-01    3.380000e+00
  N2aq  SC4v  1 4.300000e-01    3.380000e+00
  N2aq  SC3v  1 4.300000e-01    3.380000e+00
  N2aq  SC2v  1 4.300000e-01    3.160000e+00
  N2aq  SC1v  1 4.300000e-01    2.920000e+00
  N2aq  SX4v  1 4.300000e-01    3.770000e+00
  N2aq  SX3v  1 4.300000e-01    3.590000e+00
  N2aq  SX2v  1 4.300000e-01    3.380000e+00
  N2aq  SX1v  1 4.300000e-01    3.380000e+00
  N1aq  SC6v  1 4.300000e-01    3.770000e+00
  N1aq  SC5v  1 4.300000e-01    3.590000e+00
  N1aq  SC4v  1 4.300000e-01    3.590000e+00
  N1aq  SC3v  1 4.300000e-01    3.380000e+00
  N1aq  SC2v  1 4.300000e-01    3.160000e+00
  N1aq  SC1v  1 4.300000e-01    2.920000e+00
  N1aq  SX4v  1 4.300000e-01    3.590000e+00
  N1aq  SX3v  1 4.300000e-01    3.590000e+00
  N1aq  SX2v  1 4.300000e-01    3.380000e+00
  N1aq  SX1v  1 4.300000e-01    3.380000e+00
 SP6aq   C6v  1 4.300000e-01    2.920000e+00
 SP6aq   C5v  1 4.300000e-01    2.770000e+00
 SP6aq   C4v  1 4.300000e-01    2.530000e+00
 SP6aq   C3v  1 4.300000e-01    2.320000e+00
 SP6aq   C2v  1 4.300000e-01    2.320000e+00
 SP6aq   C1v  1 4.300000e-01    1.930000e+00
 SP6aq   X4v  1 4.300000e-01    3.160000e+00
 SP6aq   X3v  1 4.300000e-01    3.160000e+00
 SP6aq   X2v  1 4.300000e-01    2.920000e+00
 SP6aq   X1v  1 4.300000e-01    2.770000e+00
 SP5aq   C6v  1 4.300000e-01    2.920000e+00
 SP5aq   C5v  1 4.300000e-01    2.920000e+00
 SP5aq   C4v  1 4.300000e-01    2.770000e+00
 SP5aq   C3v  1 4.300000e-01    2.530000e+00
 SP5aq   C2v  1 4.300000e-01    2.530000e+00
 SP5aq   C1v  1 4.300000e-01    2.320000e+00
 SP5aq   X4v  1 4.300000e-01    3.380000e+00
 SP5aq   X3v  1 4.300000e-01    3.160000e+00
 SP5aq   X2v  1 4.300000e-01    3.160000e+00
 SP5aq   X1v  1 4.300000e-01    2.770000e+00
 SP4aq   C6v  1 4.300000e-01    3.160000e+00
 SP4aq   C5v  1 4.300000e-01    2.920000e+00
 SP4aq   C4v  1 4.300000e-01    2.770000e+00
 SP4aq   C3v  1 4.300000e-01    2.530000e+00
 SP4aq   C2v  1 4.300000e-01    2.530000e+00
 SP4aq   C1v  1 4.300000e-01    2.320000e+00
 SP4aq   X4v  1 4.300000e-01    3.380000e+00
 SP4aq   X3v  1 4.300000e-01    3.160000e+00
 SP4aq   X2v  1 4.300000e-01    3.160000e+00
 SP4aq   X1v  1 4.300000e-01    2.920000e+00
 SP3aq   C6v  1 4.300000e-01    3.380000e+00
 SP3aq   C5v  1 4.300000e-01    3.160000e+00
 SP3aq   C4v  1 4.300000e-01    2.920000e+00
 SP3aq   C3v  1 4.300000e-01    2.530000e+00
 SP3aq   C2v  1 4.300000e-01    2.530000e+00
 SP3aq   C1v  1 4.300000e-01    2.320000e+00
 SP3aq   X4v  1 4.300000e-01    3.380000e+00
 SP3aq   X3v  1 4.300000e-01    3.380000e+00
 SP3aq   X2v  1 4.300000e-01    3.160000e+00
 SP3aq   X1v  1 4.300000e-01    2.920000e+00
 SP2aq   C6v  1 4.300000e-01    3.380000e+00
 SP2aq   C5v  1 4.300000e-01    3.160000e+00
 SP2aq   C4v  1 4.300000e-01    2.920000e+00
 SP2aq   C3v  1 4.300000e-01    2.770000e+00
 SP2aq   C2v  1 4.300000e-01    2.770000e+00
 SP2aq   C1v  1 4.300000e-01    2.530000e+00
 SP2aq   X4v  1 4.300000e-01    3.380000e+00
 SP2aq   X3v  1 4.300000e-01    3.380000e+00
 SP2aq   X2v  1 4.300000e-01    3.160000e+00
 SP2aq   X1v  1 4.300000e-01    2.920000e+00
 SP1aq   C6v  1 4.300000e-01    3.380000e+00
 SP1aq   C5v  1 4.300000e-01    3.160000e+00
 SP1aq   C4v  1 4.300000e-01    2.920000e+00
 SP1aq   C3v  1 4.300000e-01    2.770000e+00
 SP1aq   C2v  1 4.300000e-01    2.770000e+00
 SP1aq   C1v  1 4.300000e-01    2.530000e+00
 SP1aq   X4v  1 4.300000e-01    3.380000e+00
 SP1aq   X3v  1 4.300000e-01    3.380000e+00
 SP1aq   X2v  1 4.300000e-01    3.160000e+00
 SP1aq   X1v  1 4.300000e-01    2.920000e+00
 SN6aq   C6v  1 4.300000e-01    3.590000e+00
 SN6aq   C5v  1 4.300000e-01    3.380000e+00
 SN6aq   C4v  1 4.300000e-01    3.160000e+00
 SN6aq   C3v  1 4.300000e-01    2.920000e+00
 SN6aq   C2v  1 4.300000e-01    2.920000e+00
 SN6aq   C1v  1 4.300000e-01    2.770000e+00
 SN6aq   X4v  1 4.300000e-01    3.590000e+00
 SN6aq   X3v  1 4.300000e-01    3.380000e+00
 SN6aq   X2v  1 4.300000e-01    3.160000e+00
 SN6aq   X1v  1 4.300000e-01    2.920000e+00
 SN5aq   C6v  1 4.300000e-01    3.590000e+00
 SN5aq   C5v  1 4.300000e-01    3.380000e+00
 SN5aq   C4v  1 4.300000e-01    3.160000e+00
 SN5aq   C3v  1 4.300000e-01    3.160000e+00
 SN5aq   C2v  1 4.300000e-01    2.920000e+00
 SN5aq   C1v  1 4.300000e-01    2.770000e+00
 SN5aq   X4v  1 4.300000e-01    3.770000e+00
 SN5aq   X3v  1 4.300000e-01    3.590000e+00
 SN5aq   X2v  1 4.300000e-01    3.380000e+00
 SN5aq   X1v  1 4.300000e-01    3.160000e+00
 SN4aq   C6v  1 4.300000e-01    3.590000e+00
 SN4aq   C5v  1 4.300000e-01    3.380000e+00
 SN4aq   C4v  1 4.300000e-01    3.380000e+00
 SN4aq   C3v  1 4.300000e-01    3.160000e+00
 SN4aq   C2v  1 4.300000e-01    2.920000e+00
 SN4aq   C1v  1 4.300000e-01    2.770000e+00
 SN4aq   X4v  1 4.300000e-01    3.970000e+00
 SN4aq   X3v  1 4.300000e-01    3.770000e+00
 SN4aq   X2v  1 4.300000e-01    3.380000e+00
 SN4aq   X1v  1 4.300000e-01    3.160000e+00
 SN3aq   C6v  1 4.300000e-01    3.590000e+00
 SN3aq   C5v  1 4.300000e-01    3.380000e+00
 SN3aq   C4v  1 4.300000e-01    3.380000e+00
 SN3aq   C3v  1 4.300000e-01    3.160000e+00
 SN3aq   C2v  1 4.300000e-01    3.160000e+00
 SN3aq   C1v  1 4.300000e-01    2.920000e+00
 SN3aq   X4v  1 4.300000e-01    3.770000e+00
 SN3aq   X3v  1 4.300000e-01    3.590000e+00
 SN3aq   X2v  1 4.300000e-01    3.380000e+00
 SN3aq   X1v  1 4.300000e-01    3.380000e+00
 SN2aq   C6v  1 4.300000e-01    3.590000e+00
 SN2aq   C5v  1 4.300000e-01    3.380000e+00
 SN2aq   C4v  1 4.300000e-01    3.380000e+00
 SN2aq   C3v  1 4.300000e-01    3.380000e+00
 SN2aq   C2v  1 4.300000e-01    3.160000e+00
 SN2aq   C1v  1 4.300000e-01    2.920000e+00
 SN2aq   X4v  1 4.300000e-01    3.770000e+00
 SN2aq   X3v  1 4.300000e-01    3.590000e+00
 SN2aq   X2v  1 4.300000e-01    3.380000e+00
 SN2aq   X1v  1 4.300000e-01    3.380000e+00
 SN1aq   C6v  1 4.300000e-01    3.770000e+00
 SN1aq   C5v  1 4.300000e-01    3.590000e+00
 SN1aq   C4v  1 4.300000e-01    3.590000e+00
 SN1aq   C3v  1 4.300000e-01    3.380000e+00
 SN1aq   C2v  1 4.300000e-01    3.160000e+00
 SN1aq   C1v  1 4.300000e-01    2.920000e+00
 SN1aq   X4v  1 4.300000e-01    3.590000e+00
 SN1aq   X3v  1 4.300000e-01    3.590000e+00
 SN1aq   X2v  1 4.300000e-01    3.380000e+00
 SN1aq   X1v  1 4.300000e-01    3.380000e+00
  P6aq SC6vq  1 4.300000e-01    2.920000e+00
  P6aq SC5vq  1 4.300000e-01    2.770000e+00
  P6aq SC4vq  1 4.300000e-01    2.530000e+00
  P6aq SC3vq  1 4.300000e-01    2.320000e+00
  P6aq SC2vq  1 4.300000e-01    2.320000e+00
  P6aq SC1vq  1 4.300000e-01    1.930000e+00
  P6aq SX4vq  1 4.300000e-01    3.160000e+00
  P6aq SX3vq  1 4.300000e-01    3.160000e+00
  P6aq SX2vq  1 4.300000e-01    2.920000e+00
  P6aq SX1vq  1 4.300000e-01    2.770000e+00
  P5aq SC6vq  1 4.300000e-01    2.920000e+00
  P5aq SC5vq  1 4.300000e-01    2.920000e+00
  P5aq SC4vq  1 4.300000e-01    2.770000e+00
  P5aq SC3vq  1 4.300000e-01    2.530000e+00
  P5aq SC2vq  1 4.300000e-01    2.530000e+00
  P5aq SC1vq  1 4.300000e-01    2.320000e+00
  P5aq SX4vq  1 4.300000e-01    3.380000e+00
  P5aq SX3vq  1 4.300000e-01    3.160000e+00
  P5aq SX2vq  1 4.300000e-01    3.160000e+00
  P5aq SX1vq  1 4.300000e-01    2.770000e+00
  P4aq SC6vq  1 4.300000e-01    3.160000e+00
  P4aq SC5vq  1 4.300000e-01    2.920000e+00
  P4aq SC4vq  1 4.300000e-01    2.770000e+00
  P4aq SC3vq  1 4.300000e-01    2.530000e+00
  P4aq SC2vq  1 4.300000e-01    2.530000e+00
  P4aq SC1vq  1 4.300000e-01    2.320000e+00
  P4aq SX4vq  1 4.300000e-01    3.380000e+00
  P4aq SX3vq  1 4.300000e-01    3.160000e+00
  P4aq SX2vq  1 4.300000e-01    3.160000e+00
  P4aq SX1vq  1 4.300000e-01    2.920000e+00
  P3aq SC6vq  1 4.300000e-01    3.380000e+00
  P3aq SC5vq  1 4.300000e-01    3.160000e+00
  P3aq SC4vq  1 4.300000e-01    2.920000e+00
  P3aq SC3vq  1 4.300000e-01    2.530000e+00
  P3aq SC2vq  1 4.300000e-01    2.530000e+00
  P3aq SC1vq  1 4.300000e-01    2.320000e+00
  P3aq SX4vq  1 4.300000e-01    3.380000e+00
  P3aq SX3vq  1 4.300000e-01    3.380000e+00
  P3aq SX2vq  1 4.300000e-01    3.160000e+00
  P3aq SX1vq  1 4.300000e-01    2.920000e+00
  P2aq SC6vq  1 4.300000e-01    3.380000e+00
  P2aq SC5vq  1 4.300000e-01    3.160000e+00
  P2aq SC4vq  1 4.300000e-01    2.920000e+00
  P2aq SC3vq  1 4.300000e-01    2.770000e+00
  P2aq SC2vq  1 4.300000e-01    2.770000e+00
  P2aq SC1vq  1 4.300000e-01    2.530000e+00
  P2aq SX4vq  1 4.300000e-01    3.380000e+00
  P2aq SX3vq  1 4.300000e-01    3.380000e+00
  P2aq SX2vq  1 4.300000e-01    3.160000e+00
  P2aq SX1vq  1 4.300000e-01    2.920000e+00
  P1aq SC6vq  1 4.300000e-01    3.380000e+00
  P1aq SC5vq  1 4.300000e-01    3.160000e+00
  P1aq SC4vq  1 4.300000e-01    2.920000e+00
  P1aq SC3vq  1 4.300000e-01    2.770000e+00
  P1aq SC2vq  1 4.300000e-01    2.770000e+00
  P1aq SC1vq  1 4.300000e-01    2.530000e+00
  P1aq SX4vq  1 4.300000e-01    3.380000e+00
  P1aq SX3vq  1 4.300000e-01    3.380000e+00
  P1aq SX2vq  1 4.300000e-01    3.160000e+00
  P1aq SX1vq  1 4.300000e-01    2.920000e+00
  N6aq SC6vq  1 4.300000e-01    3.590000e+00
  N6aq SC5vq  1 4.300000e-01    3.380000e+00
  N6aq SC4vq  1 4.300000e-01    3.160000e+00
  N6aq SC3vq  1 4.300000e-01    2.920000e+00
  N6aq SC2vq  1 4.300000e-01    2.920000e+00
  N6aq SC1vq  1 4.300000e-01    2.770000e+00
  N6aq SX4vq  1 4.300000e-01    3.590000e+00
  N6aq SX3vq  1 4.300000e-01    3.380000e+00
  N6aq SX2vq  1 4.300000e-01    3.160000e+00
  N6aq SX1vq  1 4.300000e-01    2.920000e+00
  N5aq SC6vq  1 4.300000e-01    3.590000e+00
  N5aq SC5vq  1 4.300000e-01    3.380000e+00
  N5aq SC4vq  1 4.300000e-01    3.160000e+00
  N5aq SC3vq  1 4.300000e-01    3.160000e+00
  N5aq SC2vq  1 4.300000e-01    2.920000e+00
  N5aq SC1vq  1 4.300000e-01    2.770000e+00
  N5aq SX4vq  1 4.300000e-01    3.770000e+00
  N5aq SX3vq  1 4.300000e-01    3.590000e+00
  N5aq SX2vq  1 4.300000e-01    3.380000e+00
  N5aq SX1vq  1 4.300000e-01    3.160000e+00
  N4aq SC6vq  1 4.300000e-01    3.590000e+00
  N4aq SC5vq  1 4.300000e-01    3.380000e+00
  N4aq SC4vq  1 4.300000e-01    3.380000e+00
  N4aq SC3vq  1 4.300000e-01    3.160000e+00
  N4aq SC2vq  1 4.300000e-01    2.920000e+00
  N4aq SC1vq  1 4.300000e-01    2.770000e+00
  N4aq SX4vq  1 4.300000e-01    3.970000e+00
  N4aq SX3vq  1 4.300000e-01    3.770000e+00
  N4aq SX2vq  1 4.300000e-01    3.380000e+00
  N4aq SX1vq  1 4.300000e-01    3.160000e+00
  N3aq SC6vq  1 4.300000e-01    3.590000e+00
  N3aq SC5vq  1 4.300000e-01    3.380000e+00
  N3aq SC4vq  1 4.300000e-01    3.380000e+00
  N3aq SC3vq  1 4.300000e-01    3.160000e+00
  N3aq SC2vq  1 4.300000e-01    3.160000e+00
  N3aq SC1vq  1 4.300000e-01    2.920000e+00
  N3aq SX4vq  1 4.300000e-01    3.770000e+00
  N3aq SX3vq  1 4.300000e-01    3.590000e+00
  N3aq SX2vq  1 4.300000e-01    3.380000e+00
  N3aq SX1vq  1 4.300000e-01    3.380000e+00
  N2aq SC6vq  1 4.300000e-01    3.590000e+00
  N2aq SC5vq  1 4.300000e-01    3.380000e+00
  N2aq SC4vq  1 4.300000e-01    3.380000e+00
  N2aq SC3vq  1 4.300000e-01    3.380000e+00
  N2aq SC2vq  1 4.300000e-01    3.160000e+00
  N2aq SC1vq  1 4.300000e-01    2.920000e+00
  N2aq SX4vq  1 4.300000e-01    3.770000e+00
  N2aq SX3vq  1 4.300000e-01    3.590000e+00
  N2aq SX2vq  1 4.300000e-01    3.380000e+00
  N2aq SX1vq  1 4.300000e-01    3.380000e+00
  N1aq SC6vq  1 4.300000e-01    3.770000e+00
  N1aq SC5vq  1 4.300000e-01    3.590000e+00
  N1aq SC4vq  1 4.300000e-01    3.590000e+00
  N1aq SC3vq  1 4.300000e-01    3.380000e+00
  N1aq SC2vq  1 4.300000e-01    3.160000e+00
  N1aq SC1vq  1 4.300000e-01    2.920000e+00
  N1aq SX4vq  1 4.300000e-01    3.590000e+00
  N1aq SX3vq  1 4.300000e-01    3.590000e+00
  N1aq SX2vq  1 4.300000e-01    3.380000e+00
  N1aq SX1vq  1 4.300000e-01    3.380000e+00
 SP6aq  C6vq  1 4.300000e-01    2.920000e+00
 SP6aq  C5vq  1 4.300000e-01    2.770000e+00
 SP6aq  C4vq  1 4.300000e-01    2.530000e+00
 SP6aq  C3vq  1 4.300000e-01    2.320000e+00
 SP6aq  C2vq  1 4.300000e-01    2.320000e+00
 SP6aq  C1vq  1 4.300000e-01    1.930000e+00
 SP6aq  X4vq  1 4.300000e-01    3.160000e+00
 SP6aq  X3vq  1 4.300000e-01    3.160000e+00
 SP6aq  X2vq  1 4.300000e-01    2.920000e+00
 SP6aq  X1vq  1 4.300000e-01    2.770000e+00
 SP5aq  C6vq  1 4.300000e-01    2.920000e+00
 SP5aq  C5vq  1 4.300000e-01    2.920000e+00
 SP5aq  C4vq  1 4.300000e-01    2.770000e+00
 SP5aq  C3vq  1 4.300000e-01    2.530000e+00
 SP5aq  C2vq  1 4.300000e-01    2.530000e+00
 SP5aq  C1vq  1 4.300000e-01    2.320000e+00
 SP5aq  X4vq  1 4.300000e-01    3.380000e+00
 SP5aq  X3vq  1 4.300000e-01    3.160000e+00
 SP5aq  X2vq  1 4.300000e-01    3.160000e+00
 SP5aq  X1vq  1 4.300000e-01    2.770000e+00
 SP4aq  C6vq  1 4.300000e-01    3.160000e+00
 SP4aq  C5vq  1 4.300000e-01    2.920000e+00
 SP4aq  C4vq  1 4.300000e-01    2.770000e+00
 SP4aq  C3vq  1 4.300000e-01    2.530000e+00
 SP4aq  C2vq  1 4.300000e-01    2.530000e+00
 SP4aq  C1vq  1 4.300000e-01    2.320000e+00
 SP4aq  X4vq  1 4.300000e-01    3.380000e+00
 SP4aq  X3vq  1 4.300000e-01    3.160000e+00
 SP4aq  X2vq  1 4.300000e-01    3.160000e+00
 SP4aq  X1vq  1 4.300000e-01    2.920000e+00
 SP3aq  C6vq  1 4.300000e-01    3.380000e+00
 SP3aq  C5vq  1 4.300000e-01    3.160000e+00
 SP3aq  C4vq  1 4.300000e-01    2.920000e+00
 SP3aq  C3vq  1 4.300000e-01    2.530000e+00
 SP3aq  C2vq  1 4.300000e-01    2.530000e+00
 SP3aq  C1vq  1 4.300000e-01    2.320000e+00
 SP3aq  X4vq  1 4.300000e-01    3.380000e+00
 SP3aq  X3vq  1 4.300000e-01    3.380000e+00
 SP3aq  X2vq  1 4.300000e-01    3.160000e+00
 SP3aq  X1vq  1 4.300000e-01    2.920000e+00
 SP2aq  C6vq  1 4.300000e-01    3.380000e+00
 SP2aq  C5vq  1 4.300000e-01    3.160000e+00
 SP2aq  C4vq  1 4.300000e-01    2.920000e+00
 SP2aq  C3vq  1 4.300000e-01    2.770000e+00
 SP2aq  C2vq  1 4.300000e-01    2.770000e+00
 SP2aq  C1vq  1 4.300000e-01    2.530000e+00
 SP2aq  X4vq  1 4.300000e-01    3.380000e+00
 SP2aq  X3vq  1 4.300000e-01    3.380000e+00
 SP2aq  X2vq  1 4.300000e-01    3.160000e+00
 SP2aq  X1vq  1 4.300000e-01    2.920000e+00
 SP1aq  C6vq  1 4.300000e-01    3.380000e+00
 SP1aq  C5vq  1 4.300000e-01    3.160000e+00
 SP1aq  C4vq  1 4.300000e-01    2.920000e+00
 SP1aq  C3vq  1 4.300000e-01    2.770000e+00
 SP1aq  C2vq  1 4.300000e-01    2.770000e+00
 SP1aq  C1vq  1 4.300000e-01    2.530000e+00
 SP1aq  X4vq  1 4.300000e-01    3.380000e+00
 SP1aq  X3vq  1 4.300000e-01    3.380000e+00
 SP1aq  X2vq  1 4.300000e-01    3.160000e+00
 SP1aq  X1vq  1 4.300000e-01    2.920000e+00
 SN6aq  C6vq  1 4.300000e-01    3.590000e+00
 SN6aq  C5vq  1 4.300000e-01    3.380000e+00
 SN6aq  C4vq  1 4.300000e-01    3.160000e+00
 SN6aq  C3vq  1 4.300000e-01    2.920000e+00
 SN6aq  C2vq  1 4.300000e-01    2.920000e+00
 SN6aq  C1vq  1 4.300000e-01    2.770000e+00
 SN6aq  X4vq  1 4.300000e-01    3.590000e+00
 SN6aq  X3vq  1 4.300000e-01    3.380000e+00
 SN6aq  X2vq  1 4.300000e-01    3.160000e+00
 SN6aq  X1vq  1 4.300000e-01    2.920000e+00
 SN5aq  C6vq  1 4.300000e-01    3.590000e+00
 SN5aq  C5vq  1 4.300000e-01    3.380000e+00
 SN5aq  C4vq  1 4.300000e-01    3.160000e+00
 SN5aq  C3vq  1 4.300000e-01    3.160000e+00
 SN5aq  C2vq  1 4.300000e-01    2.920000e+00
 SN5aq  C1vq  1 4.300000e-01    2.770000e+00
 SN5aq  X4vq  1 4.300000e-01    3.770000e+00
 SN5aq  X3vq  1 4.300000e-01    3.590000e+00
 SN5aq  X2vq  1 4.300000e-01    3.380000e+00
 SN5aq  X1vq  1 4.300000e-01    3.160000e+00
 SN4aq  C6vq  1 4.300000e-01    3.590000e+00
 SN4aq  C5vq  1 4.300000e-01    3.380000e+00
 SN4aq  C4vq  1 4.300000e-01    3.380000e+00
 SN4aq  C3vq  1 4.300000e-01    3.160000e+00
 SN4aq  C2vq  1 4.300000e-01    2.920000e+00
 SN4aq  C1vq  1 4.300000e-01    2.770000e+00
 SN4aq  X4vq  1 4.300000e-01    3.970000e+00
 SN4aq  X3vq  1 4.300000e-01    3.770000e+00
 SN4aq  X2vq  1 4.300000e-01    3.380000e+00
 SN4aq  X1vq  1 4.300000e-01    3.160000e+00
 SN3aq  C6vq  1 4.300000e-01    3.590000e+00
 SN3aq  C5vq  1 4.300000e-01    3.380000e+00
 SN3aq  C4vq  1 4.300000e-01    3.380000e+00
 SN3aq  C3vq  1 4.300000e-01    3.160000e+00
 SN3aq  C2vq  1 4.300000e-01    3.160000e+00
 SN3aq  C1vq  1 4.300000e-01    2.920000e+00
 SN3aq  X4vq  1 4.300000e-01    3.770000e+00
 SN3aq  X3vq  1 4.300000e-01    3.590000e+00
 SN3aq  X2vq  1 4.300000e-01    3.380000e+00
 SN3aq  X1vq  1 4.300000e-01    3.380000e+00
 SN2aq  C6vq  1 4.300000e-01    3.590000e+00
 SN2aq  C5vq  1 4.300000e-01    3.380000e+00
 SN2aq  C4vq  1 4.300000e-01    3.380000e+00
 SN2aq  C3vq  1 4.300000e-01    3.380000e+00
 SN2aq  C2vq  1 4.300000e-01    3.160000e+00
 SN2aq  C1vq  1 4.300000e-01    2.920000e+00
 SN2aq  X4vq  1 4.300000e-01    3.770000e+00
 SN2aq  X3vq  1 4.300000e-01    3.590000e+00
 SN2aq  X2vq  1 4.300000e-01    3.380000e+00
 SN2aq  X1vq  1 4.300000e-01    3.380000e+00
 SN1aq  C6vq  1 4.300000e-01    3.770000e+00
 SN1aq  C5vq  1 4.300000e-01    3.590000e+00
 SN1aq  C4vq  1 4.300000e-01    3.590000e+00
 SN1aq  C3vq  1 4.300000e-01    3.380000e+00
 SN1aq  C2vq  1 4.300000e-01    3.160000e+00
 SN1aq  C1vq  1 4.300000e-01    2.920000e+00
 SN1aq  X4vq  1 4.300000e-01    3.590000e+00
 SN1aq  X3vq  1 4.300000e-01    3.590000e+00
 SN1aq  X2vq  1 4.300000e-01    3.380000e+00
 SN1aq  X1vq  1 4.300000e-01    3.380000e+00
  P6aq SC6vh  1 4.300000e-01    2.920000e+00
  P5aq SC6vh  1 4.300000e-01    2.920000e+00
  P4aq SC6vh  1 4.300000e-01    3.160000e+00
  P3aq SC6vh  1 4.300000e-01    3.380000e+00
  P2aq SC6vh  1 4.300000e-01    3.380000e+00
  P1aq SC6vh  1 4.300000e-01    3.380000e+00
  N6aq SC6vh  1 4.300000e-01    3.590000e+00
  N5aq SC6vh  1 4.300000e-01    3.590000e+00
  N4aq SC6vh  1 4.300000e-01    3.590000e+00
  N3aq SC6vh  1 4.300000e-01    3.590000e+00
  N2aq SC6vh  1 4.300000e-01    3.590000e+00
  N1aq SC6vh  1 4.300000e-01    3.770000e+00
  P6aq SC5vh  1 4.300000e-01    2.770000e+00
  P5aq SC5vh  1 4.300000e-01    2.920000e+00
  P4aq SC5vh  1 4.300000e-01    2.920000e+00
  P3aq SC5vh  1 4.300000e-01    3.160000e+00
  P2aq SC5vh  1 4.300000e-01    3.160000e+00
  P1aq SC5vh  1 4.300000e-01    3.160000e+00
  N6aq SC5vh  1 4.300000e-01    3.380000e+00
  N5aq SC5vh  1 4.300000e-01    3.380000e+00
  N4aq SC5vh  1 4.300000e-01    3.380000e+00
  N3aq SC5vh  1 4.300000e-01    3.380000e+00
  N2aq SC5vh  1 4.300000e-01    3.380000e+00
  N1aq SC5vh  1 4.300000e-01    3.590000e+00
  P6aq SC4vh  1 4.300000e-01    2.530000e+00
  P5aq SC4vh  1 4.300000e-01    2.770000e+00
  P4aq SC4vh  1 4.300000e-01    2.770000e+00
  P3aq SC4vh  1 4.300000e-01    2.920000e+00
  P2aq SC4vh  1 4.300000e-01    2.920000e+00
  P1aq SC4vh  1 4.300000e-01    2.920000e+00
  N6aq SC4vh  1 4.300000e-01    3.160000e+00
  N5aq SC4vh  1 4.300000e-01    3.160000e+00
  N4aq SC4vh  1 4.300000e-01    3.380000e+00
  N3aq SC4vh  1 4.300000e-01    3.380000e+00
  N2aq SC4vh  1 4.300000e-01    3.380000e+00
  N1aq SC4vh  1 4.300000e-01    3.590000e+00
  P6aq SC3vh  1 4.300000e-01    2.320000e+00
  P5aq SC3vh  1 4.300000e-01    2.530000e+00
  P4aq SC3vh  1 4.300000e-01    2.530000e+00
  P3aq SC3vh  1 4.300000e-01    2.530000e+00
  P2aq SC3vh  1 4.300000e-01    2.770000e+00
  P1aq SC3vh  1 4.300000e-01    2.770000e+00
  N6aq SC3vh  1 4.300000e-01    2.920000e+00
  N5aq SC3vh  1 4.300000e-01    3.160000e+00
  N4aq SC3vh  1 4.300000e-01    3.160000e+00
  N3aq SC3vh  1 4.300000e-01    3.160000e+00
  N2aq SC3vh  1 4.300000e-01    3.380000e+00
  N1aq SC3vh  1 4.300000e-01    3.380000e+00
  P6aq SC2vh  1 4.300000e-01    2.320000e+00
  P5aq SC2vh  1 4.300000e-01    2.530000e+00
  P4aq SC2vh  1 4.300000e-01    2.530000e+00
  P3aq SC2vh  1 4.300000e-01    2.530000e+00
  P2aq SC2vh  1 4.300000e-01    2.770000e+00
  P1aq SC2vh  1 4.300000e-01    2.770000e+00
  N6aq SC2vh  1 4.300000e-01    2.920000e+00
  N5aq SC2vh  1 4.300000e-01    2.920000e+00
  N4aq SC2vh  1 4.300000e-01    2.920000e+00
  N3aq SC2vh  1 4.300000e-01    3.160000e+00
  N2aq SC2vh  1 4.300000e-01    3.160000e+00
  N1aq SC2vh  1 4.300000e-01    3.160000e+00
  P6aq SC1vh  1 4.300000e-01    1.930000e+00
  P5aq SC1vh  1 4.300000e-01    2.320000e+00
  P4aq SC1vh  1 4.300000e-01    2.320000e+00
  P3aq SC1vh  1 4.300000e-01    2.320000e+00
  P2aq SC1vh  1 4.300000e-01    2.530000e+00
  P1aq SC1vh  1 4.300000e-01    2.530000e+00
  N6aq SC1vh  1 4.300000e-01    2.770000e+00
  N5aq SC1vh  1 4.300000e-01    2.770000e+00
  N4aq SC1vh  1 4.300000e-01    2.770000e+00
  N3aq SC1vh  1 4.300000e-01    2.920000e+00
  N2aq SC1vh  1 4.300000e-01    2.920000e+00
  N1aq SC1vh  1 4.300000e-01    2.920000e+00
  P6aq SX4vh  1 4.300000e-01    3.160000e+00
  P5aq SX4vh  1 4.300000e-01    3.380000e+00
  P4aq SX4vh  1 4.300000e-01    3.380000e+00
  P3aq SX4vh  1 4.300000e-01    3.380000e+00
  P2aq SX4vh  1 4.300000e-01    3.380000e+00
  P1aq SX4vh  1 4.300000e-01    3.380000e+00
  N6aq SX4vh  1 4.300000e-01    3.590000e+00
  N5aq SX4vh  1 4.300000e-01    3.770000e+00
  N4aq SX4vh  1 4.300000e-01    3.970000e+00
  N3aq SX4vh  1 4.300000e-01    3.770000e+00
  N2aq SX4vh  1 4.300000e-01    3.770000e+00
  N1aq SX4vh  1 4.300000e-01    3.590000e+00
  P6aq SX3vh  1 4.300000e-01    3.160000e+00
  P5aq SX3vh  1 4.300000e-01    3.160000e+00
  P4aq SX3vh  1 4.300000e-01    3.160000e+00
  P3aq SX3vh  1 4.300000e-01    3.380000e+00
  P2aq SX3vh  1 4.300000e-01    3.380000e+00
  P1aq SX3vh  1 4.300000e-01    3.380000e+00
  N6aq SX3vh  1 4.300000e-01    3.380000e+00
  N5aq SX3vh  1 4.300000e-01    3.590000e+00
  N4aq SX3vh  1 4.300000e-01    3.770000e+00
  N3aq SX3vh  1 4.300000e-01    3.590000e+00
  N2aq SX3vh  1 4.300000e-01    3.590000e+00
  N1aq SX3vh  1 4.300000e-01    3.590000e+00
  P6aq SX2vh  1 4.300000e-01    2.920000e+00
  P5aq SX2vh  1 4.300000e-01    3.160000e+00
  P4aq SX2vh  1 4.300000e-01    3.160000e+00
  P3aq SX2vh  1 4.300000e-01    3.160000e+00
  P2aq SX2vh  1 4.300000e-01    3.160000e+00
  P1aq SX2vh  1 4.300000e-01    3.160000e+00
  N6aq SX2vh  1 4.300000e-01    3.160000e+00
  N5aq SX2vh  1 4.300000e-01    3.380000e+00
  N4aq SX2vh  1 4.300000e-01    3.380000e+00
  N3aq SX2vh  1 4.300000e-01    3.380000e+00
  N2aq SX2vh  1 4.300000e-01    3.380000e+00
  N1aq SX2vh  1 4.300000e-01    3.380000e+00
  P6aq SX1vh  1 4.300000e-01    2.770000e+00
  P5aq SX1vh  1 4.300000e-01    2.770000e+00
  P4aq SX1vh  1 4.300000e-01    2.920000e+00
  P3aq SX1vh  1 4.300000e-01    2.920000e+00
  P2aq SX1vh  1 4.300000e-01    2.920000e+00
  P1aq SX1vh  1 4.300000e-01    2.920000e+00
  N6aq SX1vh  1 4.300000e-01    2.920000e+00
  N5aq SX1vh  1 4.300000e-01    3.160000e+00
  N4aq SX1vh  1 4.300000e-01    3.160000e+00
  N3aq SX1vh  1 4.300000e-01    3.380000e+00
  N2aq SX1vh  1 4.300000e-01    3.380000e+00
  N1aq SX1vh  1 4.300000e-01    3.380000e+00
 SP6aq  C6vh  1 4.300000e-01    2.920000e+00
 SP5aq  C6vh  1 4.300000e-01    2.920000e+00
 SP4aq  C6vh  1 4.300000e-01    3.160000e+00
 SP3aq  C6vh  1 4.300000e-01    3.380000e+00
 SP2aq  C6vh  1 4.300000e-01    3.380000e+00
 SP1aq  C6vh  1 4.300000e-01    3.380000e+00
 SN6aq  C6vh  1 4.300000e-01    3.590000e+00
 SN5aq  C6vh  1 4.300000e-01    3.590000e+00
 SN4aq  C6vh  1 4.300000e-01    3.590000e+00
 SN3aq  C6vh  1 4.300000e-01    3.590000e+00
 SN2aq  C6vh  1 4.300000e-01    3.590000e+00
 SN1aq  C6vh  1 4.300000e-01    3.770000e+00
 SP6aq  C5vh  1 4.300000e-01    2.770000e+00
 SP5aq  C5vh  1 4.300000e-01    2.920000e+00
 SP4aq  C5vh  1 4.300000e-01    2.920000e+00
 SP3aq  C5vh  1 4.300000e-01    3.160000e+00
 SP2aq  C5vh  1 4.300000e-01    3.160000e+00
 SP1aq  C5vh  1 4.300000e-01    3.160000e+00
 SN6aq  C5vh  1 4.300000e-01    3.380000e+00
 SN5aq  C5vh  1 4.300000e-01    3.380000e+00
 SN4aq  C5vh  1 4.300000e-01    3.380000e+00
 SN3aq  C5vh  1 4.300000e-01    3.380000e+00
 SN2aq  C5vh  1 4.300000e-01    3.380000e+00
 SN1aq  C5vh  1 4.300000e-01    3.590000e+00
 SP6aq  C4vh  1 4.300000e-01    2.530000e+00
 SP5aq  C4vh  1 4.300000e-01    2.770000e+00
 SP4aq  C4vh  1 4.300000e-01    2.770000e+00
 SP3aq  C4vh  1 4.300000e-01    2.920000e+00
 SP2aq  C4vh  1 4.300000e-01    2.920000e+00
 SP1aq  C4vh  1 4.300000e-01    2.920000e+00
 SN6aq  C4vh  1 4.300000e-01    3.160000e+00
 SN5aq  C4vh  1 4.300000e-01    3.160000e+00
 SN4aq  C4vh  1 4.300000e-01    3.380000e+00
 SN3aq  C4vh  1 4.300000e-01    3.380000e+00
 SN2aq  C4vh  1 4.300000e-01    3.380000e+00
 SN1aq  C4vh  1 4.300000e-01    3.590000e+00
 SP6aq  C3vh  1 4.300000e-01    2.320000e+00
 SP5aq  C3vh  1 4.300000e-01    2.530000e+00
 SP4aq  C3vh  1 4.300000e-01    2.530000e+00
 SP3aq  C3vh  1 4.300000e-01    2.530000e+00
 SP2aq  C3vh  1 4.300000e-01    2.770000e+00
 SP1aq  C3vh  1 4.300000e-01    2.770000e+00
 SN6aq  C3vh  1 4.300000e-01    2.920000e+00
 SN5aq  C3vh  1 4.300000e-01    3.160000e+00
 SN4aq  C3vh  1 4.300000e-01    3.160000e+00
 SN3aq  C3vh  1 4.300000e-01    3.160000e+00
 SN2aq  C3vh  1 4.300000e-01    3.380000e+00
 SN1aq  C3vh  1 4.300000e-01    3.380000e+00
 SP6aq  C2vh  1 4.300000e-01    2.320000e+00
 SP5aq  C2vh  1 4.300000e-01    2.530000e+00
 SP4aq  C2vh  1 4.300000e-01    2.530000e+00
 SP3aq  C2vh  1 4.300000e-01    2.530000e+00
 SP2aq  C2vh  1 4.300000e-01    2.770000e+00
 SP1aq  C2vh  1 4.300000e-01    2.770000e+00
 SN6aq  C2vh  1 4.300000e-01    2.920000e+00
 SN5aq  C2vh  1 4.300000e-01    2.920000e+00
 SN4aq  C2vh  1 4.300000e-01    2.920000e+00
 SN3aq  C2vh  1 4.300000e-01    3.160000e+00
 SN2aq  C2vh  1 4.300000e-01    3.160000e+00
 SN1aq  C2vh  1 4.300000e-01    3.160000e+00
 SP6aq  C1vh  1 4.300000e-01    1.930000e+00
 SP5aq  C1vh  1 4.300000e-01    2.320000e+00
 SP4aq  C1vh  1 4.300000e-01    2.320000e+00
 SP3aq  C1vh  1 4.300000e-01    2.320000e+00
 SP2aq  C1vh  1 4.300000e-01    2.530000e+00
 SP1aq  C1vh  1 4.300000e-01    2.530000e+00
 SN6aq  C1vh  1 4.300000e-01    2.770000e+00
 SN5aq  C1vh  1 4.300000e-01    2.770000e+00
 SN4aq  C1vh  1 4.300000e-01    2.770000e+00
 SN3aq  C1vh  1 4.300000e-01    2.920000e+00
 SN2aq  C1vh  1 4.300000e-01    2.920000e+00
 SN1aq  C1vh  1 4.300000e-01    2.920000e+00
 SP6aq  X4vh  1 4.300000e-01    3.160000e+00
 SP5aq  X4vh  1 4.300000e-01    3.380000e+00
 SP4aq  X4vh  1 4.300000e-01    3.380000e+00
 SP3aq  X4vh  1 4.300000e-01    3.380000e+00
 SP2aq  X4vh  1 4.300000e-01    3.380000e+00
 SP1aq  X4vh  1 4.300000e-01    3.380000e+00
 SN6aq  X4vh  1 4.300000e-01    3.590000e+00
 SN5aq  X4vh  1 4.300000e-01    3.770000e+00
 SN4aq  X4vh  1 4.300000e-01    3.970000e+00
 SN3aq  X4vh  1 4.300000e-01    3.770000e+00
 SN2aq  X4vh  1 4.300000e-01    3.770000e+00
 SN1aq  X4vh  1 4.300000e-01    3.590000e+00
 SP6aq  X3vh  1 4.300000e-01    3.160000e+00
 SP5aq  X3vh  1 4.300000e-01    3.160000e+00
 SP4aq  X3vh  1 4.300000e-01    3.160000e+00
 SP3aq  X3vh  1 4.300000e-01    3.380000e+00
 SP2aq  X3vh  1 4.300000e-01    3.380000e+00
 SP1aq  X3vh  1 4.300000e-01    3.380000e+00
 SN6aq  X3vh  1 4.300000e-01    3.380000e+00
 SN5aq  X3vh  1 4.300000e-01    3.590000e+00
 SN4aq  X3vh  1 4.300000e-01    3.770000e+00
 SN3aq  X3vh  1 4.300000e-01    3.590000e+00
 SN2aq  X3vh  1 4.300000e-01    3.590000e+00
 SN1aq  X3vh  1 4.300000e-01    3.590000e+00
 SP6aq  X2vh  1 4.300000e-01    2.920000e+00
 SP5aq  X2vh  1 4.300000e-01    3.160000e+00
 SP4aq  X2vh  1 4.300000e-01    3.160000e+00
 SP3aq  X2vh  1 4.300000e-01    3.160000e+00
 SP2aq  X2vh  1 4.300000e-01    3.160000e+00
 SP1aq  X2vh  1 4.300000e-01    3.160000e+00
 SN6aq  X2vh  1 4.300000e-01    3.160000e+00
 SN5aq  X2vh  1 4.300000e-01    3.380000e+00
 SN4aq  X2vh  1 4.300000e-01    3.380000e+00
 SN3aq  X2vh  1 4.300000e-01    3.380000e+00
 SN2aq  X2vh  1 4.300000e-01    3.380000e+00
 SN1aq  X2vh  1 4.300000e-01    3.380000e+00
 SP6aq  X1vh  1 4.300000e-01    2.770000e+00
 SP5aq  X1vh  1 4.300000e-01    2.770000e+00
 SP4aq  X1vh  1 4.300000e-01    2.920000e+00
 SP3aq  X1vh  1 4.300000e-01    2.920000e+00
 SP2aq  X1vh  1 4.300000e-01    2.920000e+00
 SP1aq  X1vh  1 4.300000e-01    2.920000e+00
 SN6aq  X1vh  1 4.300000e-01    2.920000e+00
 SN5aq  X1vh  1 4.300000e-01    3.160000e+00
 SN4aq  X1vh  1 4.300000e-01    3.160000e+00
 SN3aq  X1vh  1 4.300000e-01    3.380000e+00
 SN2aq  X1vh  1 4.300000e-01    3.380000e+00
 SN1aq  X1vh  1 4.300000e-01    3.380000e+00
  P6aq SC6vr  1 4.300000e-01    2.920000e+00
  P5aq SC6vr  1 4.300000e-01    2.920000e+00
  P4aq SC6vr  1 4.300000e-01    3.160000e+00
  P3aq SC6vr  1 4.300000e-01    3.380000e+00
  P2aq SC6vr  1 4.300000e-01    3.380000e+00
  P1aq SC6vr  1 4.300000e-01    3.380000e+00
  N6aq SC6vr  1 4.300000e-01    3.590000e+00
  N5aq SC6vr  1 4.300000e-01    3.590000e+00
  N4aq SC6vr  1 4.300000e-01    3.590000e+00
  N3aq SC6vr  1 4.300000e-01    3.590000e+00
  N2aq SC6vr  1 4.300000e-01    3.590000e+00
  N1aq SC6vr  1 4.300000e-01    3.770000e+00
  P6aq SC5vr  1 4.300000e-01    2.770000e+00
  P5aq SC5vr  1 4.300000e-01    2.920000e+00
  P4aq SC5vr  1 4.300000e-01    2.920000e+00
  P3aq SC5vr  1 4.300000e-01    3.160000e+00
  P2aq SC5vr  1 4.300000e-01    3.160000e+00
  P1aq SC5vr  1 4.300000e-01    3.160000e+00
  N6aq SC5vr  1 4.300000e-01    3.380000e+00
  N5aq SC5vr  1 4.300000e-01    3.380000e+00
  N4aq SC5vr  1 4.300000e-01    3.380000e+00
  N3aq SC5vr  1 4.300000e-01    3.380000e+00
  N2aq SC5vr  1 4.300000e-01    3.380000e+00
  N1aq SC5vr  1 4.300000e-01    3.590000e+00
  P6aq SC4vr  1 4.300000e-01    2.530000e+00
  P5aq SC4vr  1 4.300000e-01    2.770000e+00
  P4aq SC4vr  1 4.300000e-01    2.770000e+00
  P3aq SC4vr  1 4.300000e-01    2.920000e+00
  P2aq SC4vr  1 4.300000e-01    2.920000e+00
  P1aq SC4vr  1 4.300000e-01    2.920000e+00
  N6aq SC4vr  1 4.300000e-01    3.160000e+00
  N5aq SC4vr  1 4.300000e-01    3.160000e+00
  N4aq SC4vr  1 4.300000e-01    3.380000e+00
  N3aq SC4vr  1 4.300000e-01    3.380000e+00
  N2aq SC4vr  1 4.300000e-01    3.380000e+00
  N1aq SC4vr  1 4.300000e-01    3.590000e+00
  P6aq SC3vr  1 4.300000e-01    2.320000e+00
  P5aq SC3vr  1 4.300000e-01    2.530000e+00
  P4aq SC3vr  1 4.300000e-01    2.530000e+00
  P3aq SC3vr  1 4.300000e-01    2.530000e+00
  P2aq SC3vr  1 4.300000e-01    2.770000e+00
  P1aq SC3vr  1 4.300000e-01    2.770000e+00
  N6aq SC3vr  1 4.300000e-01    2.920000e+00
  N5aq SC3vr  1 4.300000e-01    3.160000e+00
  N4aq SC3vr  1 4.300000e-01    3.160000e+00
  N3aq SC3vr  1 4.300000e-01    3.160000e+00
  N2aq SC3vr  1 4.300000e-01    3.380000e+00
  N1aq SC3vr  1 4.300000e-01    3.380000e+00
  P6aq SC2vr  1 4.300000e-01    2.320000e+00
  P5aq SC2vr  1 4.300000e-01    2.530000e+00
  P4aq SC2vr  1 4.300000e-01    2.530000e+00
  P3aq SC2vr  1 4.300000e-01    2.530000e+00
  P2aq SC2vr  1 4.300000e-01    2.770000e+00
  P1aq SC2vr  1 4.300000e-01    2.770000e+00
  N6aq SC2vr  1 4.300000e-01    2.920000e+00
  N5aq SC2vr  1 4.300000e-01    2.920000e+00
  N4aq SC2vr  1 4.300000e-01    2.920000e+00
  N3aq SC2vr  1 4.300000e-01    3.160000e+00
  N2aq SC2vr  1 4.300000e-01    3.160000e+00
  N1aq SC2vr  1 4.300000e-01    3.160000e+00
  P6aq SC1vr  1 4.300000e-01    1.930000e+00
  P5aq SC1vr  1 4.300000e-01    2.320000e+00
  P4aq SC1vr  1 4.300000e-01    2.320000e+00
  P3aq SC1vr  1 4.300000e-01    2.320000e+00
  P2aq SC1vr  1 4.300000e-01    2.530000e+00
  P1aq SC1vr  1 4.300000e-01    2.530000e+00
  N6aq SC1vr  1 4.300000e-01    2.770000e+00
  N5aq SC1vr  1 4.300000e-01    2.770000e+00
  N4aq SC1vr  1 4.300000e-01    2.770000e+00
  N3aq SC1vr  1 4.300000e-01    2.920000e+00
  N2aq SC1vr  1 4.300000e-01    2.920000e+00
  N1aq SC1vr  1 4.300000e-01    2.920000e+00
  P6aq SX4vr  1 4.300000e-01    3.160000e+00
  P5aq SX4vr  1 4.300000e-01    3.380000e+00
  P4aq SX4vr  1 4.300000e-01    3.380000e+00
  P3aq SX4vr  1 4.300000e-01    3.380000e+00
  P2aq SX4vr  1 4.300000e-01    3.380000e+00
  P1aq SX4vr  1 4.300000e-01    3.380000e+00
  N6aq SX4vr  1 4.300000e-01    3.590000e+00
  N5aq SX4vr  1 4.300000e-01    3.770000e+00
  N4aq SX4vr  1 4.300000e-01    3.970000e+00
  N3aq SX4vr  1 4.300000e-01    3.770000e+00
  N2aq SX4vr  1 4.300000e-01    3.770000e+00
  N1aq SX4vr  1 4.300000e-01    3.590000e+00
  P6aq SX3vr  1 4.300000e-01    3.160000e+00
  P5aq SX3vr  1 4.300000e-01    3.160000e+00
  P4aq SX3vr  1 4.300000e-01    3.160000e+00
  P3aq SX3vr  1 4.300000e-01    3.380000e+00
  P2aq SX3vr  1 4.300000e-01    3.380000e+00
  P1aq SX3vr  1 4.300000e-01    3.380000e+00
  N6aq SX3vr  1 4.300000e-01    3.380000e+00
  N5aq SX3vr  1 4.300000e-01    3.590000e+00
  N4aq SX3vr  1 4.300000e-01    3.770000e+00
  N3aq SX3vr  1 4.300000e-01    3.590000e+00
  N2aq SX3vr  1 4.300000e-01    3.590000e+00
  N1aq SX3vr  1 4.300000e-01    3.590000e+00
  P6aq SX2vr  1 4.300000e-01    2.920000e+00
  P5aq SX2vr  1 4.300000e-01    3.160000e+00
  P4aq SX2vr  1 4.300000e-01    3.160000e+00
  P3aq SX2vr  1 4.300000e-01    3.160000e+00
  P2aq SX2vr  1 4.300000e-01    3.160000e+00
  P1aq SX2vr  1 4.300000e-01    3.160000e+00
  N6aq SX2vr  1 4.300000e-01    3.160000e+00
  N5aq SX2vr  1 4.300000e-01    3.380000e+00
  N4aq SX2vr  1 4.300000e-01    3.380000e+00
  N3aq SX2vr  1 4.300000e-01    3.380000e+00
  N2aq SX2vr  1 4.300000e-01    3.380000e+00
  N1aq SX2vr  1 4.300000e-01    3.380000e+00
  P6aq SX1vr  1 4.300000e-01    2.770000e+00
  P5aq SX1vr  1 4.300000e-01    2.770000e+00
  P4aq SX1vr  1 4.300000e-01    2.920000e+00
  P3aq SX1vr  1 4.300000e-01    2.920000e+00
  P2aq SX1vr  1 4.300000e-01    2.920000e+00
  P1aq SX1vr  1 4.300000e-01    2.920000e+00
  N6aq SX1vr  1 4.300000e-01    2.920000e+00
  N5aq SX1vr  1 4.300000e-01    3.160000e+00
  N4aq SX1vr  1 4.300000e-01    3.160000e+00
  N3aq SX1vr  1 4.300000e-01    3.380000e+00
  N2aq SX1vr  1 4.300000e-01    3.380000e+00
  N1aq SX1vr  1 4.300000e-01    3.380000e+00
 SP6aq  C6vr  1 4.300000e-01    2.920000e+00
 SP5aq  C6vr  1 4.300000e-01    2.920000e+00
 SP4aq  C6vr  1 4.300000e-01    3.160000e+00
 SP3aq  C6vr  1 4.300000e-01    3.380000e+00
 SP2aq  C6vr  1 4.300000e-01    3.380000e+00
 SP1aq  C6vr  1 4.300000e-01    3.380000e+00
 SN6aq  C6vr  1 4.300000e-01    3.590000e+00
 SN5aq  C6vr  1 4.300000e-01    3.590000e+00
 SN4aq  C6vr  1 4.300000e-01    3.590000e+00
 SN3aq  C6vr  1 4.300000e-01    3.590000e+00
 SN2aq  C6vr  1 4.300000e-01    3.590000e+00
 SN1aq  C6vr  1 4.300000e-01    3.770000e+00
 SP6aq  C5vr  1 4.300000e-01    2.770000e+00
 SP5aq  C5vr  1 4.300000e-01    2.920000e+00
 SP4aq  C5vr  1 4.300000e-01    2.920000e+00
 SP3aq  C5vr  1 4.300000e-01    3.160000e+00
 SP2aq  C5vr  1 4.300000e-01    3.160000e+00
 SP1aq  C5vr  1 4.300000e-01    3.160000e+00
 SN6aq  C5vr  1 4.300000e-01    3.380000e+00
 SN5aq  C5vr  1 4.300000e-01    3.380000e+00
 SN4aq  C5vr  1 4.300000e-01    3.380000e+00
 SN3aq  C5vr  1 4.300000e-01    3.380000e+00
 SN2aq  C5vr  1 4.300000e-01    3.380000e+00
 SN1aq  C5vr  1 4.300000e-01    3.590000e+00
 SP6aq  C4vr  1 4.300000e-01    2.530000e+00
 SP5aq  C4vr  1 4.300000e-01    2.770000e+00
 SP4aq  C4vr  1 4.300000e-01    2.770000e+00
 SP3aq  C4vr  1 4.300000e-01    2.920000e+00
 SP2aq  C4vr  1 4.300000e-01    2.920000e+00
 SP1aq  C4vr  1 4.300000e-01    2.920000e+00
 SN6aq  C4vr  1 4.300000e-01    3.160000e+00
 SN5aq  C4vr  1 4.300000e-01    3.160000e+00
 SN4aq  C4vr  1 4.300000e-01    3.380000e+00
 SN3aq  C4vr  1 4.300000e-01    3.380000e+00
 SN2aq  C4vr  1 4.300000e-01    3.380000e+00
 SN1aq  C4vr  1 4.300000e-01    3.590000e+00
 SP6aq  C3vr  1 4.300000e-01    2.320000e+00
 SP5aq  C3vr  1 4.300000e-01    2.530000e+00
 SP4aq  C3vr  1 4.300000e-01    2.530000e+00
 SP3aq  C3vr  1 4.300000e-01    2.530000e+00
 SP2aq  C3vr  1 4.300000e-01    2.770000e+00
 SP1aq  C3vr  1 4.300000e-01    2.770000e+00
 SN6aq  C3vr  1 4.300000e-01    2.920000e+00
 SN5aq  C3vr  1 4.300000e-01    3.160000e+00
 SN4aq  C3vr  1 4.300000e-01    3.160000e+00
 SN3aq  C3vr  1 4.300000e-01    3.160000e+00
 SN2aq  C3vr  1 4.300000e-01    3.380000e+00
 SN1aq  C3vr  1 4.300000e-01    3.380000e+00
 SP6aq  C2vr  1 4.300000e-01    2.320000e+00
 SP5aq  C2vr  1 4.300000e-01    2.530000e+00
 SP4aq  C2vr  1 4.300000e-01    2.530000e+00
 SP3aq  C2vr  1 4.300000e-01    2.530000e+00
 SP2aq  C2vr  1 4.300000e-01    2.770000e+00
 SP1aq  C2vr  1 4.300000e-01    2.770000e+00
 SN6aq  C2vr  1 4.300000e-01    2.920000e+00
 SN5aq  C2vr  1 4.300000e-01    2.920000e+00
 SN4aq  C2vr  1 4.300000e-01    2.920000e+00
 SN3aq  C2vr  1 4.300000e-01    3.160000e+00
 SN2aq  C2vr  1 4.300000e-01    3.160000e+00
 SN1aq  C2vr  1 4.300000e-01    3.160000e+00
 SP6aq  C1vr  1 4.300000e-01    1.930000e+00
 SP5aq  C1vr  1 4.300000e-01    2.320000e+00
 SP4aq  C1vr  1 4.300000e-01    2.320000e+00
 SP3aq  C1vr  1 4.300000e-01    2.320000e+00
 SP2aq  C1vr  1 4.300000e-01    2.530000e+00
 SP1aq  C1vr  1 4.300000e-01    2.530000e+00
 SN6aq  C1vr  1 4.300000e-01    2.770000e+00
 SN5aq  C1vr  1 4.300000e-01    2.770000e+00
 SN4aq  C1vr  1 4.300000e-01    2.770000e+00
 SN3aq  C1vr  1 4.300000e-01    2.920000e+00
 SN2aq  C1vr  1 4.300000e-01    2.920000e+00
 SN1aq  C1vr  1 4.300000e-01    2.920000e+00
 SP6aq  X4vr  1 4.300000e-01    3.160000e+00
 SP5aq  X4vr  1 4.300000e-01    3.380000e+00
 SP4aq  X4vr  1 4.300000e-01    3.380000e+00
 SP3aq  X4vr  1 4.300000e-01    3.380000e+00
 SP2aq  X4vr  1 4.300000e-01    3.380000e+00
 SP1aq  X4vr  1 4.300000e-01    3.380000e+00
 SN6aq  X4vr  1 4.300000e-01    3.590000e+00
 SN5aq  X4vr  1 4.300000e-01    3.770000e+00
 SN4aq  X4vr  1 4.300000e-01    3.970000e+00
 SN3aq  X4vr  1 4.300000e-01    3.770000e+00
 SN2aq  X4vr  1 4.300000e-01    3.770000e+00
 SN1aq  X4vr  1 4.300000e-01    3.590000e+00
 SP6aq  X3vr  1 4.300000e-01    3.160000e+00
 SP5aq  X3vr  1 4.300000e-01    3.160000e+00
 SP4aq  X3vr  1 4.300000e-01    3.160000e+00
 SP3aq  X3vr  1 4.300000e-01    3.380000e+00
 SP2aq  X3vr  1 4.300000e-01    3.380000e+00
 SP1aq  X3vr  1 4.300000e-01    3.380000e+00
 SN6aq  X3vr  1 4.300000e-01    3.380000e+00
 SN5aq  X3vr  1 4.300000e-01    3.590000e+00
 SN4aq  X3vr  1 4.300000e-01    3.770000e+00
 SN3aq  X3vr  1 4.300000e-01    3.590000e+00
 SN2aq  X3vr  1 4.300000e-01    3.590000e+00
 SN1aq  X3vr  1 4.300000e-01    3.590000e+00
 SP6aq  X2vr  1 4.300000e-01    2.920000e+00
 SP5aq  X2vr  1 4.300000e-01    3.160000e+00
 SP4aq  X2vr  1 4.300000e-01    3.160000e+00
 SP3aq  X2vr  1 4.300000e-01    3.160000e+00
 SP2aq  X2vr  1 4.300000e-01    3.160000e+00
 SP1aq  X2vr  1 4.300000e-01    3.160000e+00
 SN6aq  X2vr  1 4.300000e-01    3.160000e+00
 SN5aq  X2vr  1 4.300000e-01    3.380000e+00
 SN4aq  X2vr  1 4.300000e-01    3.380000e+00
 SN3aq  X2vr  1 4.300000e-01    3.380000e+00
 SN2aq  X2vr  1 4.300000e-01    3.380000e+00
 SN1aq  X2vr  1 4.300000e-01    3.380000e+00
 SP6aq  X1vr  1 4.300000e-01    2.770000e+00
 SP5aq  X1vr  1 4.300000e-01    2.770000e+00
 SP4aq  X1vr  1 4.300000e-01    2.920000e+00
 SP3aq  X1vr  1 4.300000e-01    2.920000e+00
 SP2aq  X1vr  1 4.300000e-01    2.920000e+00
 SP1aq  X1vr  1 4.300000e-01    2.920000e+00
 SN6aq  X1vr  1 4.300000e-01    2.920000e+00
 SN5aq  X1vr  1 4.300000e-01    3.160000e+00
 SN4aq  X1vr  1 4.300000e-01    3.160000e+00
 SN3aq  X1vr  1 4.300000e-01    3.380000e+00
 SN2aq  X1vr  1 4.300000e-01    3.380000e+00
 SN1aq  X1vr  1 4.300000e-01    3.380000e+00
  P6ah  SC6v  1 4.300000e-01    2.530000e+00
  P6ah  SC5v  1 4.300000e-01    2.320000e+00
  P6ah  SC4v  1 4.300000e-01    2.160000e+00
  P6ah  SC3v  1 4.300000e-01    1.930000e+00
  P6ah  SC2v  1 4.300000e-01    1.930000e+00
  P6ah  SC1v  1 4.430000e-01    1.480000e+00
  P6ah  SX4v  1 4.300000e-01    2.770000e+00
  P6ah  SX3v  1 4.300000e-01    2.770000e+00
  P6ah  SX2v  1 4.300000e-01    2.530000e+00
  P6ah  SX1v  1 4.300000e-01    2.320000e+00
  P5ah  SC6v  1 4.300000e-01    2.530000e+00
  P5ah  SC5v  1 4.300000e-01    2.530000e+00
  P5ah  SC4v  1 4.300000e-01    2.320000e+00
  P5ah  SC3v  1 4.300000e-01    2.160000e+00
  P5ah  SC2v  1 4.300000e-01    2.160000e+00
  P5ah  SC1v  1 4.300000e-01    1.930000e+00
  P5ah  SX4v  1 4.300000e-01    2.920000e+00
  P5ah  SX3v  1 4.300000e-01    2.770000e+00
  P5ah  SX2v  1 4.300000e-01    2.770000e+00
  P5ah  SX1v  1 4.300000e-01    2.320000e+00
  P4ah  SC6v  1 4.300000e-01    2.770000e+00
  P4ah  SC5v  1 4.300000e-01    2.530000e+00
  P4ah  SC4v  1 4.300000e-01    2.320000e+00
  P4ah  SC3v  1 4.300000e-01    2.160000e+00
  P4ah  SC2v  1 4.300000e-01    2.160000e+00
  P4ah  SC1v  1 4.300000e-01    1.930000e+00
  P4ah  SX4v  1 4.300000e-01    2.920000e+00
  P4ah  SX3v  1 4.300000e-01    2.770000e+00
  P4ah  SX2v  1 4.300000e-01    2.770000e+00
  P4ah  SX1v  1 4.300000e-01    2.530000e+00
  P3ah  SC6v  1 4.300000e-01    2.920000e+00
  P3ah  SC5v  1 4.300000e-01    2.770000e+00
  P3ah  SC4v  1 4.300000e-01    2.530000e+00
  P3ah  SC3v  1 4.300000e-01    2.160000e+00
  P3ah  SC2v  1 4.300000e-01    2.160000e+00
  P3ah  SC1v  1 4.300000e-01    1.930000e+00
  P3ah  SX4v  1 4.300000e-01    2.920000e+00
  P3ah  SX3v  1 4.300000e-01    2.920000e+00
  P3ah  SX2v  1 4.300000e-01    2.770000e+00
  P3ah  SX1v  1 4.300000e-01    2.530000e+00
  P2ah  SC6v  1 4.300000e-01    2.920000e+00
  P2ah  SC5v  1 4.300000e-01    2.770000e+00
  P2ah  SC4v  1 4.300000e-01    2.530000e+00
  P2ah  SC3v  1 4.300000e-01    2.320000e+00
  P2ah  SC2v  1 4.300000e-01    2.320000e+00
  P2ah  SC1v  1 4.300000e-01    2.160000e+00
  P2ah  SX4v  1 4.300000e-01    2.920000e+00
  P2ah  SX3v  1 4.300000e-01    2.920000e+00
  P2ah  SX2v  1 4.300000e-01    2.770000e+00
  P2ah  SX1v  1 4.300000e-01    2.530000e+00
  P1ah  SC6v  1 4.300000e-01    2.920000e+00
  P1ah  SC5v  1 4.300000e-01    2.770000e+00
  P1ah  SC4v  1 4.300000e-01    2.530000e+00
  P1ah  SC3v  1 4.300000e-01    2.320000e+00
  P1ah  SC2v  1 4.300000e-01    2.320000e+00
  P1ah  SC1v  1 4.300000e-01    2.160000e+00
  P1ah  SX4v  1 4.300000e-01    2.920000e+00
  P1ah  SX3v  1 4.300000e-01    2.920000e+00
  P1ah  SX2v  1 4.300000e-01    2.770000e+00
  P1ah  SX1v  1 4.300000e-01    2.530000e+00
  N6ah  SC6v  1 4.300000e-01    3.160000e+00
  N6ah  SC5v  1 4.300000e-01    2.920000e+00
  N6ah  SC4v  1 4.300000e-01    2.770000e+00
  N6ah  SC3v  1 4.300000e-01    2.530000e+00
  N6ah  SC2v  1 4.300000e-01    2.530000e+00
  N6ah  SC1v  1 4.300000e-01    2.320000e+00
  N6ah  SX4v  1 4.300000e-01    3.160000e+00
  N6ah  SX3v  1 4.300000e-01    2.920000e+00
  N6ah  SX2v  1 4.300000e-01    2.770000e+00
  N6ah  SX1v  1 4.300000e-01    2.530000e+00
  N5ah  SC6v  1 4.300000e-01    3.160000e+00
  N5ah  SC5v  1 4.300000e-01    2.920000e+00
  N5ah  SC4v  1 4.300000e-01    2.770000e+00
  N5ah  SC3v  1 4.300000e-01    2.770000e+00
  N5ah  SC2v  1 4.300000e-01    2.530000e+00
  N5ah  SC1v  1 4.300000e-01    2.320000e+00
  N5ah  SX4v  1 4.300000e-01    3.380000e+00
  N5ah  SX3v  1 4.300000e-01    3.160000e+00
  N5ah  SX2v  1 4.300000e-01    2.920000e+00
  N5ah  SX1v  1 4.300000e-01    2.770000e+00
  N4ah  SC6v  1 4.300000e-01    3.160000e+00
  N4ah  SC5v  1 4.300000e-01    2.920000e+00
  N4ah  SC4v  1 4.300000e-01    2.920000e+00
  N4ah  SC3v  1 4.300000e-01    2.770000e+00
  N4ah  SC2v  1 4.300000e-01    2.530000e+00
  N4ah  SC1v  1 4.300000e-01    2.320000e+00
  N4ah  SX4v  1 4.300000e-01    3.590000e+00
  N4ah  SX3v  1 4.300000e-01    3.380000e+00
  N4ah  SX2v  1 4.300000e-01    2.920000e+00
  N4ah  SX1v  1 4.300000e-01    2.770000e+00
  N3ah  SC6v  1 4.300000e-01    3.160000e+00
  N3ah  SC5v  1 4.300000e-01    2.920000e+00
  N3ah  SC4v  1 4.300000e-01    2.920000e+00
  N3ah  SC3v  1 4.300000e-01    2.770000e+00
  N3ah  SC2v  1 4.300000e-01    2.770000e+00
  N3ah  SC1v  1 4.300000e-01    2.530000e+00
  N3ah  SX4v  1 4.300000e-01    3.380000e+00
  N3ah  SX3v  1 4.300000e-01    3.160000e+00
  N3ah  SX2v  1 4.300000e-01    2.920000e+00
  N3ah  SX1v  1 4.300000e-01    2.920000e+00
  N2ah  SC6v  1 4.300000e-01    3.160000e+00
  N2ah  SC5v  1 4.300000e-01    2.920000e+00
  N2ah  SC4v  1 4.300000e-01    2.920000e+00
  N2ah  SC3v  1 4.300000e-01    2.920000e+00
  N2ah  SC2v  1 4.300000e-01    2.770000e+00
  N2ah  SC1v  1 4.300000e-01    2.530000e+00
  N2ah  SX4v  1 4.300000e-01    3.380000e+00
  N2ah  SX3v  1 4.300000e-01    3.160000e+00
  N2ah  SX2v  1 4.300000e-01    2.920000e+00
  N2ah  SX1v  1 4.300000e-01    2.920000e+00
  N1ah  SC6v  1 4.300000e-01    3.380000e+00
  N1ah  SC5v  1 4.300000e-01    3.160000e+00
  N1ah  SC4v  1 4.300000e-01    3.160000e+00
  N1ah  SC3v  1 4.300000e-01    2.920000e+00
  N1ah  SC2v  1 4.300000e-01    2.770000e+00
  N1ah  SC1v  1 4.300000e-01    2.530000e+00
  N1ah  SX4v  1 4.300000e-01    3.160000e+00
  N1ah  SX3v  1 4.300000e-01    3.160000e+00
  N1ah  SX2v  1 4.300000e-01    2.920000e+00
  N1ah  SX1v  1 4.300000e-01    2.920000e+00
 SP6ah   C6v  1 4.300000e-01    2.530000e+00
 SP6ah   C5v  1 4.300000e-01    2.320000e+00
 SP6ah   C4v  1 4.300000e-01    2.160000e+00
 SP6ah   C3v  1 4.300000e-01    1.930000e+00
 SP6ah   C2v  1 4.300000e-01    1.930000e+00
 SP6ah   C1v  1 4.430000e-01    1.480000e+00
 SP6ah   X4v  1 4.300000e-01    2.770000e+00
 SP6ah   X3v  1 4.300000e-01    2.770000e+00
 SP6ah   X2v  1 4.300000e-01    2.530000e+00
 SP6ah   X1v  1 4.300000e-01    2.320000e+00
 SP5ah   C6v  1 4.300000e-01    2.530000e+00
 SP5ah   C5v  1 4.300000e-01    2.530000e+00
 SP5ah   C4v  1 4.300000e-01    2.320000e+00
 SP5ah   C3v  1 4.300000e-01    2.160000e+00
 SP5ah   C2v  1 4.300000e-01    2.160000e+00
 SP5ah   C1v  1 4.300000e-01    1.930000e+00
 SP5ah   X4v  1 4.300000e-01    2.920000e+00
 SP5ah   X3v  1 4.300000e-01    2.770000e+00
 SP5ah   X2v  1 4.300000e-01    2.770000e+00
 SP5ah   X1v  1 4.300000e-01    2.320000e+00
 SP4ah   C6v  1 4.300000e-01    2.770000e+00
 SP4ah   C5v  1 4.300000e-01    2.530000e+00
 SP4ah   C4v  1 4.300000e-01    2.320000e+00
 SP4ah   C3v  1 4.300000e-01    2.160000e+00
 SP4ah   C2v  1 4.300000e-01    2.160000e+00
 SP4ah   C1v  1 4.300000e-01    1.930000e+00
 SP4ah   X4v  1 4.300000e-01    2.920000e+00
 SP4ah   X3v  1 4.300000e-01    2.770000e+00
 SP4ah   X2v  1 4.300000e-01    2.770000e+00
 SP4ah   X1v  1 4.300000e-01    2.530000e+00
 SP3ah   C6v  1 4.300000e-01    2.920000e+00
 SP3ah   C5v  1 4.300000e-01    2.770000e+00
 SP3ah   C4v  1 4.300000e-01    2.530000e+00
 SP3ah   C3v  1 4.300000e-01    2.160000e+00
 SP3ah   C2v  1 4.300000e-01    2.160000e+00
 SP3ah   C1v  1 4.300000e-01    1.930000e+00
 SP3ah   X4v  1 4.300000e-01    2.920000e+00
 SP3ah   X3v  1 4.300000e-01    2.920000e+00
 SP3ah   X2v  1 4.300000e-01    2.770000e+00
 SP3ah   X1v  1 4.300000e-01    2.530000e+00
 SP2ah   C6v  1 4.300000e-01    2.920000e+00
 SP2ah   C5v  1 4.300000e-01    2.770000e+00
 SP2ah   C4v  1 4.300000e-01    2.530000e+00
 SP2ah   C3v  1 4.300000e-01    2.320000e+00
 SP2ah   C2v  1 4.300000e-01    2.320000e+00
 SP2ah   C1v  1 4.300000e-01    2.160000e+00
 SP2ah   X4v  1 4.300000e-01    2.920000e+00
 SP2ah   X3v  1 4.300000e-01    2.920000e+00
 SP2ah   X2v  1 4.300000e-01    2.770000e+00
 SP2ah   X1v  1 4.300000e-01    2.530000e+00
 SP1ah   C6v  1 4.300000e-01    2.920000e+00
 SP1ah   C5v  1 4.300000e-01    2.770000e+00
 SP1ah   C4v  1 4.300000e-01    2.530000e+00
 SP1ah   C3v  1 4.300000e-01    2.320000e+00
 SP1ah   C2v  1 4.300000e-01    2.320000e+00
 SP1ah   C1v  1 4.300000e-01    2.160000e+00
 SP1ah   X4v  1 4.300000e-01    2.920000e+00
 SP1ah   X3v  1 4.300000e-01    2.920000e+00
 SP1ah   X2v  1 4.300000e-01    2.770000e+00
 SP1ah   X1v  1 4.300000e-01    2.530000e+00
 SN6ah   C6v  1 4.300000e-01    3.160000e+00
 SN6ah   C5v  1 4.300000e-01    2.920000e+00
 SN6ah   C4v  1 4.300000e-01    2.770000e+00
 SN6ah   C3v  1 4.300000e-01    2.530000e+00
 SN6ah   C2v  1 4.300000e-01    2.530000e+00
 SN6ah   C1v  1 4.300000e-01    2.320000e+00
 SN6ah   X4v  1 4.300000e-01    3.160000e+00
 SN6ah   X3v  1 4.300000e-01    2.920000e+00
 SN6ah   X2v  1 4.300000e-01    2.770000e+00
 SN6ah   X1v  1 4.300000e-01    2.530000e+00
 SN5ah   C6v  1 4.300000e-01    3.160000e+00
 SN5ah   C5v  1 4.300000e-01    2.920000e+00
 SN5ah   C4v  1 4.300000e-01    2.770000e+00
 SN5ah   C3v  1 4.300000e-01    2.770000e+00
 SN5ah   C2v  1 4.300000e-01    2.530000e+00
 SN5ah   C1v  1 4.300000e-01    2.320000e+00
 SN5ah   X4v  1 4.300000e-01    3.380000e+00
 SN5ah   X3v  1 4.300000e-01    3.160000e+00
 SN5ah   X2v  1 4.300000e-01    2.920000e+00
 SN5ah   X1v  1 4.300000e-01    2.770000e+00
 SN4ah   C6v  1 4.300000e-01    3.160000e+00
 SN4ah   C5v  1 4.300000e-01    2.920000e+00
 SN4ah   C4v  1 4.300000e-01    2.920000e+00
 SN4ah   C3v  1 4.300000e-01    2.770000e+00
 SN4ah   C2v  1 4.300000e-01    2.530000e+00
 SN4ah   C1v  1 4.300000e-01    2.320000e+00
 SN4ah   X4v  1 4.300000e-01    3.590000e+00
 SN4ah   X3v  1 4.300000e-01    3.380000e+00
 SN4ah   X2v  1 4.300000e-01    2.920000e+00
 SN4ah   X1v  1 4.300000e-01    2.770000e+00
 SN3ah   C6v  1 4.300000e-01    3.160000e+00
 SN3ah   C5v  1 4.300000e-01    2.920000e+00
 SN3ah   C4v  1 4.300000e-01    2.920000e+00
 SN3ah   C3v  1 4.300000e-01    2.770000e+00
 SN3ah   C2v  1 4.300000e-01    2.770000e+00
 SN3ah   C1v  1 4.300000e-01    2.530000e+00
 SN3ah   X4v  1 4.300000e-01    3.380000e+00
 SN3ah   X3v  1 4.300000e-01    3.160000e+00
 SN3ah   X2v  1 4.300000e-01    2.920000e+00
 SN3ah   X1v  1 4.300000e-01    2.920000e+00
 SN2ah   C6v  1 4.300000e-01    3.160000e+00
 SN2ah   C5v  1 4.300000e-01    2.920000e+00
 SN2ah   C4v  1 4.300000e-01    2.920000e+00
 SN2ah   C3v  1 4.300000e-01    2.920000e+00
 SN2ah   C2v  1 4.300000e-01    2.770000e+00
 SN2ah   C1v  1 4.300000e-01    2.530000e+00
 SN2ah   X4v  1 4.300000e-01    3.380000e+00
 SN2ah   X3v  1 4.300000e-01    3.160000e+00
 SN2ah   X2v  1 4.300000e-01    2.920000e+00
 SN2ah   X1v  1 4.300000e-01    2.920000e+00
 SN1ah   C6v  1 4.300000e-01    3.380000e+00
 SN1ah   C5v  1 4.300000e-01    3.160000e+00
 SN1ah   C4v  1 4.300000e-01    3.160000e+00
 SN1ah   C3v  1 4.300000e-01    2.920000e+00
 SN1ah   C2v  1 4.300000e-01    2.770000e+00
 SN1ah   C1v  1 4.300000e-01    2.530000e+00
 SN1ah   X4v  1 4.300000e-01    3.160000e+00
 SN1ah   X3v  1 4.300000e-01    3.160000e+00
 SN1ah   X2v  1 4.300000e-01    2.920000e+00
 SN1ah   X1v  1 4.300000e-01    2.920000e+00
  P6ah SX1vq  1 4.300000e-01    2.770000e+00
  P6ah SX2vq  1 4.300000e-01    2.920000e+00
  P6ah SX3vq  1 4.300000e-01    3.160000e+00
  P6ah SX4vq  1 4.300000e-01    3.160000e+00
  P6ah SC1vq  1 4.300000e-01    1.930000e+00
  P6ah SC2vq  1 4.300000e-01    2.320000e+00
  P6ah SC3vq  1 4.300000e-01    2.320000e+00
  P6ah SC4vq  1 4.300000e-01    2.530000e+00
  P6ah SC5vq  1 4.300000e-01    2.770000e+00
  P6ah SC6vq  1 4.300000e-01    2.920000e+00
  P5ah SX1vq  1 4.300000e-01    2.770000e+00
  P5ah SX2vq  1 4.300000e-01    3.160000e+00
  P5ah SX3vq  1 4.300000e-01    3.160000e+00
  P5ah SX4vq  1 4.300000e-01    3.380000e+00
  P5ah SC1vq  1 4.300000e-01    2.320000e+00
  P5ah SC2vq  1 4.300000e-01    2.530000e+00
  P5ah SC3vq  1 4.300000e-01    2.530000e+00
  P5ah SC4vq  1 4.300000e-01    2.770000e+00
  P5ah SC5vq  1 4.300000e-01    2.920000e+00
  P5ah SC6vq  1 4.300000e-01    2.920000e+00
  P4ah SX1vq  1 4.300000e-01    2.920000e+00
  P4ah SX2vq  1 4.300000e-01    3.160000e+00
  P4ah SX3vq  1 4.300000e-01    3.160000e+00
  P4ah SX4vq  1 4.300000e-01    3.380000e+00
  P4ah SC1vq  1 4.300000e-01    2.320000e+00
  P4ah SC2vq  1 4.300000e-01    2.530000e+00
  P4ah SC3vq  1 4.300000e-01    2.530000e+00
  P4ah SC4vq  1 4.300000e-01    2.770000e+00
  P4ah SC5vq  1 4.300000e-01    2.920000e+00
  P4ah SC6vq  1 4.300000e-01    3.160000e+00
  P3ah SX1vq  1 4.300000e-01    2.920000e+00
  P3ah SX2vq  1 4.300000e-01    3.160000e+00
  P3ah SX3vq  1 4.300000e-01    3.380000e+00
  P3ah SX4vq  1 4.300000e-01    3.380000e+00
  P3ah SC1vq  1 4.300000e-01    2.320000e+00
  P3ah SC2vq  1 4.300000e-01    2.530000e+00
  P3ah SC3vq  1 4.300000e-01    2.530000e+00
  P3ah SC4vq  1 4.300000e-01    2.920000e+00
  P3ah SC5vq  1 4.300000e-01    3.160000e+00
  P3ah SC6vq  1 4.300000e-01    3.380000e+00
  P2ah SX1vq  1 4.300000e-01    2.920000e+00
  P2ah SX2vq  1 4.300000e-01    3.160000e+00
  P2ah SX3vq  1 4.300000e-01    3.380000e+00
  P2ah SX4vq  1 4.300000e-01    3.380000e+00
  P2ah SC1vq  1 4.300000e-01    2.530000e+00
  P2ah SC2vq  1 4.300000e-01    2.770000e+00
  P2ah SC3vq  1 4.300000e-01    2.770000e+00
  P2ah SC4vq  1 4.300000e-01    2.920000e+00
  P2ah SC5vq  1 4.300000e-01    3.160000e+00
  P2ah SC6vq  1 4.300000e-01    3.380000e+00
  P1ah SX1vq  1 4.300000e-01    2.920000e+00
  P1ah SX2vq  1 4.300000e-01    3.160000e+00
  P1ah SX3vq  1 4.300000e-01    3.380000e+00
  P1ah SX4vq  1 4.300000e-01    3.380000e+00
  P1ah SC1vq  1 4.300000e-01    2.530000e+00
  P1ah SC2vq  1 4.300000e-01    2.770000e+00
  P1ah SC3vq  1 4.300000e-01    2.770000e+00
  P1ah SC4vq  1 4.300000e-01    2.920000e+00
  P1ah SC5vq  1 4.300000e-01    3.160000e+00
  P1ah SC6vq  1 4.300000e-01    3.380000e+00
  N6ah SX1vq  1 4.300000e-01    2.920000e+00
  N6ah SX2vq  1 4.300000e-01    3.160000e+00
  N6ah SX3vq  1 4.300000e-01    3.380000e+00
  N6ah SX4vq  1 4.300000e-01    3.590000e+00
  N6ah SC1vq  1 4.300000e-01    2.770000e+00
  N6ah SC2vq  1 4.300000e-01    2.920000e+00
  N6ah SC3vq  1 4.300000e-01    2.920000e+00
  N6ah SC4vq  1 4.300000e-01    3.160000e+00
  N6ah SC5vq  1 4.300000e-01    3.380000e+00
  N6ah SC6vq  1 4.300000e-01    3.590000e+00
  N5ah SX1vq  1 4.300000e-01    3.160000e+00
  N5ah SX2vq  1 4.300000e-01    3.380000e+00
  N5ah SX3vq  1 4.300000e-01    3.590000e+00
  N5ah SX4vq  1 4.300000e-01    3.770000e+00
  N5ah SC1vq  1 4.300000e-01    2.770000e+00
  N5ah SC2vq  1 4.300000e-01    2.920000e+00
  N5ah SC3vq  1 4.300000e-01    3.160000e+00
  N5ah SC4vq  1 4.300000e-01    3.160000e+00
  N5ah SC5vq  1 4.300000e-01    3.380000e+00
  N5ah SC6vq  1 4.300000e-01    3.590000e+00
  N4ah SX1vq  1 4.300000e-01    3.160000e+00
  N4ah SX2vq  1 4.300000e-01    3.380000e+00
  N4ah SX3vq  1 4.300000e-01    3.770000e+00
  N4ah SX4vq  1 4.300000e-01    3.970000e+00
  N4ah SC1vq  1 4.300000e-01    2.770000e+00
  N4ah SC2vq  1 4.300000e-01    2.920000e+00
  N4ah SC3vq  1 4.300000e-01    3.160000e+00
  N4ah SC4vq  1 4.300000e-01    3.380000e+00
  N4ah SC5vq  1 4.300000e-01    3.380000e+00
  N4ah SC6vq  1 4.300000e-01    3.590000e+00
  N3ah SX1vq  1 4.300000e-01    3.380000e+00
  N3ah SX2vq  1 4.300000e-01    3.380000e+00
  N3ah SX3vq  1 4.300000e-01    3.590000e+00
  N3ah SX4vq  1 4.300000e-01    3.770000e+00
  N3ah SC1vq  1 4.300000e-01    2.920000e+00
  N3ah SC2vq  1 4.300000e-01    3.160000e+00
  N3ah SC3vq  1 4.300000e-01    3.160000e+00
  N3ah SC4vq  1 4.300000e-01    3.380000e+00
  N3ah SC5vq  1 4.300000e-01    3.380000e+00
  N3ah SC6vq  1 4.300000e-01    3.590000e+00
  N2ah SX1vq  1 4.300000e-01    3.380000e+00
  N2ah SX2vq  1 4.300000e-01    3.380000e+00
  N2ah SX3vq  1 4.300000e-01    3.590000e+00
  N2ah SX4vq  1 4.300000e-01    3.770000e+00
  N2ah SC1vq  1 4.300000e-01    2.920000e+00
  N2ah SC2vq  1 4.300000e-01    3.160000e+00
  N2ah SC3vq  1 4.300000e-01    3.380000e+00
  N2ah SC4vq  1 4.300000e-01    3.380000e+00
  N2ah SC5vq  1 4.300000e-01    3.380000e+00
  N2ah SC6vq  1 4.300000e-01    3.590000e+00
  N1ah SX1vq  1 4.300000e-01    3.380000e+00
  N1ah SX2vq  1 4.300000e-01    3.380000e+00
  N1ah SX3vq  1 4.300000e-01    3.590000e+00
  N1ah SX4vq  1 4.300000e-01    3.590000e+00
  N1ah SC1vq  1 4.300000e-01    2.920000e+00
  N1ah SC2vq  1 4.300000e-01    3.160000e+00
  N1ah SC3vq  1 4.300000e-01    3.380000e+00
  N1ah SC4vq  1 4.300000e-01    3.590000e+00
  N1ah SC5vq  1 4.300000e-01    3.590000e+00
  N1ah SC6vq  1 4.300000e-01    3.770000e+00
 SP6ah  X1vq  1 4.300000e-01    2.770000e+00
 SP6ah  X2vq  1 4.300000e-01    2.920000e+00
 SP6ah  X3vq  1 4.300000e-01    3.160000e+00
 SP6ah  X4vq  1 4.300000e-01    3.160000e+00
 SP6ah  C1vq  1 4.300000e-01    1.930000e+00
 SP6ah  C2vq  1 4.300000e-01    2.320000e+00
 SP6ah  C3vq  1 4.300000e-01    2.320000e+00
 SP6ah  C4vq  1 4.300000e-01    2.530000e+00
 SP6ah  C5vq  1 4.300000e-01    2.770000e+00
 SP6ah  C6vq  1 4.300000e-01    2.920000e+00
 SP5ah  X1vq  1 4.300000e-01    2.770000e+00
 SP5ah  X2vq  1 4.300000e-01    3.160000e+00
 SP5ah  X3vq  1 4.300000e-01    3.160000e+00
 SP5ah  X4vq  1 4.300000e-01    3.380000e+00
 SP5ah  C1vq  1 4.300000e-01    2.320000e+00
 SP5ah  C2vq  1 4.300000e-01    2.530000e+00
 SP5ah  C3vq  1 4.300000e-01    2.530000e+00
 SP5ah  C4vq  1 4.300000e-01    2.770000e+00
 SP5ah  C5vq  1 4.300000e-01    2.920000e+00
 SP5ah  C6vq  1 4.300000e-01    2.920000e+00
 SP4ah  X1vq  1 4.300000e-01    2.920000e+00
 SP4ah  X2vq  1 4.300000e-01    3.160000e+00
 SP4ah  X3vq  1 4.300000e-01    3.160000e+00
 SP4ah  X4vq  1 4.300000e-01    3.380000e+00
 SP4ah  C1vq  1 4.300000e-01    2.320000e+00
 SP4ah  C2vq  1 4.300000e-01    2.530000e+00
 SP4ah  C3vq  1 4.300000e-01    2.530000e+00
 SP4ah  C4vq  1 4.300000e-01    2.770000e+00
 SP4ah  C5vq  1 4.300000e-01    2.920000e+00
 SP4ah  C6vq  1 4.300000e-01    3.160000e+00
 SP3ah  X1vq  1 4.300000e-01    2.920000e+00
 SP3ah  X2vq  1 4.300000e-01    3.160000e+00
 SP3ah  X3vq  1 4.300000e-01    3.380000e+00
 SP3ah  X4vq  1 4.300000e-01    3.380000e+00
 SP3ah  C1vq  1 4.300000e-01    2.320000e+00
 SP3ah  C2vq  1 4.300000e-01    2.530000e+00
 SP3ah  C3vq  1 4.300000e-01    2.530000e+00
 SP3ah  C4vq  1 4.300000e-01    2.920000e+00
 SP3ah  C5vq  1 4.300000e-01    3.160000e+00
 SP3ah  C6vq  1 4.300000e-01    3.380000e+00
 SP2ah  X1vq  1 4.300000e-01    2.920000e+00
 SP2ah  X2vq  1 4.300000e-01    3.160000e+00
 SP2ah  X3vq  1 4.300000e-01    3.380000e+00
 SP2ah  X4vq  1 4.300000e-01    3.380000e+00
 SP2ah  C1vq  1 4.300000e-01    2.530000e+00
 SP2ah  C2vq  1 4.300000e-01    2.770000e+00
 SP2ah  C3vq  1 4.300000e-01    2.770000e+00
 SP2ah  C4vq  1 4.300000e-01    2.920000e+00
 SP2ah  C5vq  1 4.300000e-01    3.160000e+00
 SP2ah  C6vq  1 4.300000e-01    3.380000e+00
 SP1ah  X1vq  1 4.300000e-01    2.920000e+00
 SP1ah  X2vq  1 4.300000e-01    3.160000e+00
 SP1ah  X3vq  1 4.300000e-01    3.380000e+00
 SP1ah  X4vq  1 4.300000e-01    3.380000e+00
 SP1ah  C1vq  1 4.300000e-01    2.530000e+00
 SP1ah  C2vq  1 4.300000e-01    2.770000e+00
 SP1ah  C3vq  1 4.300000e-01    2.770000e+00
 SP1ah  C4vq  1 4.300000e-01    2.920000e+00
 SP1ah  C5vq  1 4.300000e-01    3.160000e+00
 SP1ah  C6vq  1 4.300000e-01    3.380000e+00
 SN6ah  X1vq  1 4.300000e-01    2.920000e+00
 SN6ah  X2vq  1 4.300000e-01    3.160000e+00
 SN6ah  X3vq  1 4.300000e-01    3.380000e+00
 SN6ah  X4vq  1 4.300000e-01    3.590000e+00
 SN6ah  C1vq  1 4.300000e-01    2.770000e+00
 SN6ah  C2vq  1 4.300000e-01    2.920000e+00
 SN6ah  C3vq  1 4.300000e-01    2.920000e+00
 SN6ah  C4vq  1 4.300000e-01    3.160000e+00
 SN6ah  C5vq  1 4.300000e-01    3.380000e+00
 SN6ah  C6vq  1 4.300000e-01    3.590000e+00
 SN5ah  X1vq  1 4.300000e-01    3.160000e+00
 SN5ah  X2vq  1 4.300000e-01    3.380000e+00
 SN5ah  X3vq  1 4.300000e-01    3.590000e+00
 SN5ah  X4vq  1 4.300000e-01    3.770000e+00
 SN5ah  C1vq  1 4.300000e-01    2.770000e+00
 SN5ah  C2vq  1 4.300000e-01    2.920000e+00
 SN5ah  C3vq  1 4.300000e-01    3.160000e+00
 SN5ah  C4vq  1 4.300000e-01    3.160000e+00
 SN5ah  C5vq  1 4.300000e-01    3.380000e+00
 SN5ah  C6vq  1 4.300000e-01    3.590000e+00
 SN4ah  X1vq  1 4.300000e-01    3.160000e+00
 SN4ah  X2vq  1 4.300000e-01    3.380000e+00
 SN4ah  X3vq  1 4.300000e-01    3.770000e+00
 SN4ah  X4vq  1 4.300000e-01    3.970000e+00
 SN4ah  C1vq  1 4.300000e-01    2.770000e+00
 SN4ah  C2vq  1 4.300000e-01    2.920000e+00
 SN4ah  C3vq  1 4.300000e-01    3.160000e+00
 SN4ah  C4vq  1 4.300000e-01    3.380000e+00
 SN4ah  C5vq  1 4.300000e-01    3.380000e+00
 SN4ah  C6vq  1 4.300000e-01    3.590000e+00
 SN3ah  X1vq  1 4.300000e-01    3.380000e+00
 SN3ah  X2vq  1 4.300000e-01    3.380000e+00
 SN3ah  X3vq  1 4.300000e-01    3.590000e+00
 SN3ah  X4vq  1 4.300000e-01    3.770000e+00
 SN3ah  C1vq  1 4.300000e-01    2.920000e+00
 SN3ah  C2vq  1 4.300000e-01    3.160000e+00
 SN3ah  C3vq  1 4.300000e-01    3.160000e+00
 SN3ah  C4vq  1 4.300000e-01    3.380000e+00
 SN3ah  C5vq  1 4.300000e-01    3.380000e+00
 SN3ah  C6vq  1 4.300000e-01    3.590000e+00
 SN2ah  X1vq  1 4.300000e-01    3.380000e+00
 SN2ah  X2vq  1 4.300000e-01    3.380000e+00
 SN2ah  X3vq  1 4.300000e-01    3.590000e+00
 SN2ah  X4vq  1 4.300000e-01    3.770000e+00
 SN2ah  C1vq  1 4.300000e-01    2.920000e+00
 SN2ah  C2vq  1 4.300000e-01    3.160000e+00
 SN2ah  C3vq  1 4.300000e-01    3.380000e+00
 SN2ah  C4vq  1 4.300000e-01    3.380000e+00
 SN2ah  C5vq  1 4.300000e-01    3.380000e+00
 SN2ah  C6vq  1 4.300000e-01    3.590000e+00
 SN1ah  X1vq  1 4.300000e-01    3.380000e+00
 SN1ah  X2vq  1 4.300000e-01    3.380000e+00
 SN1ah  X3vq  1 4.300000e-01    3.590000e+00
 SN1ah  X4vq  1 4.300000e-01    3.590000e+00
 SN1ah  C1vq  1 4.300000e-01    2.920000e+00
 SN1ah  C2vq  1 4.300000e-01    3.160000e+00
 SN1ah  C3vq  1 4.300000e-01    3.380000e+00
 SN1ah  C4vq  1 4.300000e-01    3.590000e+00
 SN1ah  C5vq  1 4.300000e-01    3.590000e+00
 SN1ah  C6vq  1 4.300000e-01    3.770000e+00
  P6ah SC6vh  1 4.300000e-01    2.530000e+00
  P6ah SC5vh  1 4.300000e-01    2.320000e+00
  P6ah SC4vh  1 4.300000e-01    2.160000e+00
  P6ah SC3vh  1 4.300000e-01    1.930000e+00
  P6ah SC2vh  1 4.300000e-01    1.930000e+00
  P6ah SC1vh  1 4.430000e-01    1.480000e+00
  P6ah SX4vh  1 4.300000e-01    2.770000e+00
  P6ah SX3vh  1 4.300000e-01    2.770000e+00
  P6ah SX2vh  1 4.300000e-01    2.530000e+00
  P6ah SX1vh  1 4.300000e-01    2.320000e+00
  P5ah SC6vh  1 4.300000e-01    2.530000e+00
  P5ah SC5vh  1 4.300000e-01    2.530000e+00
  P5ah SC4vh  1 4.300000e-01    2.320000e+00
  P5ah SC3vh  1 4.300000e-01    2.160000e+00
  P5ah SC2vh  1 4.300000e-01    2.160000e+00
  P5ah SC1vh  1 4.300000e-01    1.930000e+00
  P5ah SX4vh  1 4.300000e-01    2.920000e+00
  P5ah SX3vh  1 4.300000e-01    2.770000e+00
  P5ah SX2vh  1 4.300000e-01    2.770000e+00
  P5ah SX1vh  1 4.300000e-01    2.320000e+00
  P4ah SC6vh  1 4.300000e-01    2.770000e+00
  P4ah SC5vh  1 4.300000e-01    2.530000e+00
  P4ah SC4vh  1 4.300000e-01    2.320000e+00
  P4ah SC3vh  1 4.300000e-01    2.160000e+00
  P4ah SC2vh  1 4.300000e-01    2.160000e+00
  P4ah SC1vh  1 4.300000e-01    1.930000e+00
  P4ah SX4vh  1 4.300000e-01    2.920000e+00
  P4ah SX3vh  1 4.300000e-01    2.770000e+00
  P4ah SX2vh  1 4.300000e-01    2.770000e+00
  P4ah SX1vh  1 4.300000e-01    2.530000e+00
  P3ah SC6vh  1 4.300000e-01    2.920000e+00
  P3ah SC5vh  1 4.300000e-01    2.770000e+00
  P3ah SC4vh  1 4.300000e-01    2.530000e+00
  P3ah SC3vh  1 4.300000e-01    2.160000e+00
  P3ah SC2vh  1 4.300000e-01    2.160000e+00
  P3ah SC1vh  1 4.300000e-01    1.930000e+00
  P3ah SX4vh  1 4.300000e-01    2.920000e+00
  P3ah SX3vh  1 4.300000e-01    2.920000e+00
  P3ah SX2vh  1 4.300000e-01    2.770000e+00
  P3ah SX1vh  1 4.300000e-01    2.530000e+00
  P2ah SC6vh  1 4.300000e-01    2.920000e+00
  P2ah SC5vh  1 4.300000e-01    2.770000e+00
  P2ah SC4vh  1 4.300000e-01    2.530000e+00
  P2ah SC3vh  1 4.300000e-01    2.320000e+00
  P2ah SC2vh  1 4.300000e-01    2.320000e+00
  P2ah SC1vh  1 4.300000e-01    2.160000e+00
  P2ah SX4vh  1 4.300000e-01    2.920000e+00
  P2ah SX3vh  1 4.300000e-01    2.920000e+00
  P2ah SX2vh  1 4.300000e-01    2.770000e+00
  P2ah SX1vh  1 4.300000e-01    2.530000e+00
  P1ah SC6vh  1 4.300000e-01    2.920000e+00
  P1ah SC5vh  1 4.300000e-01    2.770000e+00
  P1ah SC4vh  1 4.300000e-01    2.530000e+00
  P1ah SC3vh  1 4.300000e-01    2.320000e+00
  P1ah SC2vh  1 4.300000e-01    2.320000e+00
  P1ah SC1vh  1 4.300000e-01    2.160000e+00
  P1ah SX4vh  1 4.300000e-01    2.920000e+00
  P1ah SX3vh  1 4.300000e-01    2.920000e+00
  P1ah SX2vh  1 4.300000e-01    2.770000e+00
  P1ah SX1vh  1 4.300000e-01    2.530000e+00
  N6ah SC6vh  1 4.300000e-01    3.160000e+00
  N6ah SC5vh  1 4.300000e-01    2.920000e+00
  N6ah SC4vh  1 4.300000e-01    2.770000e+00
  N6ah SC3vh  1 4.300000e-01    2.530000e+00
  N6ah SC2vh  1 4.300000e-01    2.530000e+00
  N6ah SC1vh  1 4.300000e-01    2.320000e+00
  N6ah SX4vh  1 4.300000e-01    3.160000e+00
  N6ah SX3vh  1 4.300000e-01    2.920000e+00
  N6ah SX2vh  1 4.300000e-01    2.770000e+00
  N6ah SX1vh  1 4.300000e-01    2.530000e+00
  N5ah SC6vh  1 4.300000e-01    3.160000e+00
  N5ah SC5vh  1 4.300000e-01    2.920000e+00
  N5ah SC4vh  1 4.300000e-01    2.770000e+00
  N5ah SC3vh  1 4.300000e-01    2.770000e+00
  N5ah SC2vh  1 4.300000e-01    2.530000e+00
  N5ah SC1vh  1 4.300000e-01    2.320000e+00
  N5ah SX4vh  1 4.300000e-01    3.380000e+00
  N5ah SX3vh  1 4.300000e-01    3.160000e+00
  N5ah SX2vh  1 4.300000e-01    2.920000e+00
  N5ah SX1vh  1 4.300000e-01    2.770000e+00
  N4ah SC6vh  1 4.300000e-01    3.160000e+00
  N4ah SC5vh  1 4.300000e-01    2.920000e+00
  N4ah SC4vh  1 4.300000e-01    2.920000e+00
  N4ah SC3vh  1 4.300000e-01    2.770000e+00
  N4ah SC2vh  1 4.300000e-01    2.530000e+00
  N4ah SC1vh  1 4.300000e-01    2.320000e+00
  N4ah SX4vh  1 4.300000e-01    3.590000e+00
  N4ah SX3vh  1 4.300000e-01    3.380000e+00
  N4ah SX2vh  1 4.300000e-01    2.920000e+00
  N4ah SX1vh  1 4.300000e-01    2.770000e+00
  N3ah SC6vh  1 4.300000e-01    3.160000e+00
  N3ah SC5vh  1 4.300000e-01    2.920000e+00
  N3ah SC4vh  1 4.300000e-01    2.920000e+00
  N3ah SC3vh  1 4.300000e-01    2.770000e+00
  N3ah SC2vh  1 4.300000e-01    2.770000e+00
  N3ah SC1vh  1 4.300000e-01    2.530000e+00
  N3ah SX4vh  1 4.300000e-01    3.380000e+00
  N3ah SX3vh  1 4.300000e-01    3.160000e+00
  N3ah SX2vh  1 4.300000e-01    2.920000e+00
  N3ah SX1vh  1 4.300000e-01    2.920000e+00
  N2ah SC6vh  1 4.300000e-01    3.160000e+00
  N2ah SC5vh  1 4.300000e-01    2.920000e+00
  N2ah SC4vh  1 4.300000e-01    2.920000e+00
  N2ah SC3vh  1 4.300000e-01    2.920000e+00
  N2ah SC2vh  1 4.300000e-01    2.770000e+00
  N2ah SC1vh  1 4.300000e-01    2.530000e+00
  N2ah SX4vh  1 4.300000e-01    3.380000e+00
  N2ah SX3vh  1 4.300000e-01    3.160000e+00
  N2ah SX2vh  1 4.300000e-01    2.920000e+00
  N2ah SX1vh  1 4.300000e-01    2.920000e+00
  N1ah SC6vh  1 4.300000e-01    3.380000e+00
  N1ah SC5vh  1 4.300000e-01    3.160000e+00
  N1ah SC4vh  1 4.300000e-01    3.160000e+00
  N1ah SC3vh  1 4.300000e-01    2.920000e+00
  N1ah SC2vh  1 4.300000e-01    2.770000e+00
  N1ah SC1vh  1 4.300000e-01    2.530000e+00
  N1ah SX4vh  1 4.300000e-01    3.160000e+00
  N1ah SX3vh  1 4.300000e-01    3.160000e+00
  N1ah SX2vh  1 4.300000e-01    2.920000e+00
  N1ah SX1vh  1 4.300000e-01    2.920000e+00
 SP6ah  C6vh  1 4.300000e-01    2.530000e+00
 SP6ah  C5vh  1 4.300000e-01    2.320000e+00
 SP6ah  C4vh  1 4.300000e-01    2.160000e+00
 SP6ah  C3vh  1 4.300000e-01    1.930000e+00
 SP6ah  C2vh  1 4.300000e-01    1.930000e+00
 SP6ah  C1vh  1 4.430000e-01    1.480000e+00
 SP6ah  X4vh  1 4.300000e-01    2.770000e+00
 SP6ah  X3vh  1 4.300000e-01    2.770000e+00
 SP6ah  X2vh  1 4.300000e-01    2.530000e+00
 SP6ah  X1vh  1 4.300000e-01    2.320000e+00
 SP5ah  C6vh  1 4.300000e-01    2.530000e+00
 SP5ah  C5vh  1 4.300000e-01    2.530000e+00
 SP5ah  C4vh  1 4.300000e-01    2.320000e+00
 SP5ah  C3vh  1 4.300000e-01    2.160000e+00
 SP5ah  C2vh  1 4.300000e-01    2.160000e+00
 SP5ah  C1vh  1 4.300000e-01    1.930000e+00
 SP5ah  X4vh  1 4.300000e-01    2.920000e+00
 SP5ah  X3vh  1 4.300000e-01    2.770000e+00
 SP5ah  X2vh  1 4.300000e-01    2.770000e+00
 SP5ah  X1vh  1 4.300000e-01    2.320000e+00
 SP4ah  C6vh  1 4.300000e-01    2.770000e+00
 SP4ah  C5vh  1 4.300000e-01    2.530000e+00
 SP4ah  C4vh  1 4.300000e-01    2.320000e+00
 SP4ah  C3vh  1 4.300000e-01    2.160000e+00
 SP4ah  C2vh  1 4.300000e-01    2.160000e+00
 SP4ah  C1vh  1 4.300000e-01    1.930000e+00
 SP4ah  X4vh  1 4.300000e-01    2.920000e+00
 SP4ah  X3vh  1 4.300000e-01    2.770000e+00
 SP4ah  X2vh  1 4.300000e-01    2.770000e+00
 SP4ah  X1vh  1 4.300000e-01    2.530000e+00
 SP3ah  C6vh  1 4.300000e-01    2.920000e+00
 SP3ah  C5vh  1 4.300000e-01    2.770000e+00
 SP3ah  C4vh  1 4.300000e-01    2.530000e+00
 SP3ah  C3vh  1 4.300000e-01    2.160000e+00
 SP3ah  C2vh  1 4.300000e-01    2.160000e+00
 SP3ah  C1vh  1 4.300000e-01    1.930000e+00
 SP3ah  X4vh  1 4.300000e-01    2.920000e+00
 SP3ah  X3vh  1 4.300000e-01    2.920000e+00
 SP3ah  X2vh  1 4.300000e-01    2.770000e+00
 SP3ah  X1vh  1 4.300000e-01    2.530000e+00
 SP2ah  C6vh  1 4.300000e-01    2.920000e+00
 SP2ah  C5vh  1 4.300000e-01    2.770000e+00
 SP2ah  C4vh  1 4.300000e-01    2.530000e+00
 SP2ah  C3vh  1 4.300000e-01    2.320000e+00
 SP2ah  C2vh  1 4.300000e-01    2.320000e+00
 SP2ah  C1vh  1 4.300000e-01    2.160000e+00
 SP2ah  X4vh  1 4.300000e-01    2.920000e+00
 SP2ah  X3vh  1 4.300000e-01    2.920000e+00
 SP2ah  X2vh  1 4.300000e-01    2.770000e+00
 SP2ah  X1vh  1 4.300000e-01    2.530000e+00
 SP1ah  C6vh  1 4.300000e-01    2.920000e+00
 SP1ah  C5vh  1 4.300000e-01    2.770000e+00
 SP1ah  C4vh  1 4.300000e-01    2.530000e+00
 SP1ah  C3vh  1 4.300000e-01    2.320000e+00
 SP1ah  C2vh  1 4.300000e-01    2.320000e+00
 SP1ah  C1vh  1 4.300000e-01    2.160000e+00
 SP1ah  X4vh  1 4.300000e-01    2.920000e+00
 SP1ah  X3vh  1 4.300000e-01    2.920000e+00
 SP1ah  X2vh  1 4.300000e-01    2.770000e+00
 SP1ah  X1vh  1 4.300000e-01    2.530000e+00
 SN6ah  C6vh  1 4.300000e-01    3.160000e+00
 SN6ah  C5vh  1 4.300000e-01    2.920000e+00
 SN6ah  C4vh  1 4.300000e-01    2.770000e+00
 SN6ah  C3vh  1 4.300000e-01    2.530000e+00
 SN6ah  C2vh  1 4.300000e-01    2.530000e+00
 SN6ah  C1vh  1 4.300000e-01    2.320000e+00
 SN6ah  X4vh  1 4.300000e-01    3.160000e+00
 SN6ah  X3vh  1 4.300000e-01    2.920000e+00
 SN6ah  X2vh  1 4.300000e-01    2.770000e+00
 SN6ah  X1vh  1 4.300000e-01    2.530000e+00
 SN5ah  C6vh  1 4.300000e-01    3.160000e+00
 SN5ah  C5vh  1 4.300000e-01    2.920000e+00
 SN5ah  C4vh  1 4.300000e-01    2.770000e+00
 SN5ah  C3vh  1 4.300000e-01    2.770000e+00
 SN5ah  C2vh  1 4.300000e-01    2.530000e+00
 SN5ah  C1vh  1 4.300000e-01    2.320000e+00
 SN5ah  X4vh  1 4.300000e-01    3.380000e+00
 SN5ah  X3vh  1 4.300000e-01    3.160000e+00
 SN5ah  X2vh  1 4.300000e-01    2.920000e+00
 SN5ah  X1vh  1 4.300000e-01    2.770000e+00
 SN4ah  C6vh  1 4.300000e-01    3.160000e+00
 SN4ah  C5vh  1 4.300000e-01    2.920000e+00
 SN4ah  C4vh  1 4.300000e-01    2.920000e+00
 SN4ah  C3vh  1 4.300000e-01    2.770000e+00
 SN4ah  C2vh  1 4.300000e-01    2.530000e+00
 SN4ah  C1vh  1 4.300000e-01    2.320000e+00
 SN4ah  X4vh  1 4.300000e-01    3.590000e+00
 SN4ah  X3vh  1 4.300000e-01    3.380000e+00
 SN4ah  X2vh  1 4.300000e-01    2.920000e+00
 SN4ah  X1vh  1 4.300000e-01    2.770000e+00
 SN3ah  C6vh  1 4.300000e-01    3.160000e+00
 SN3ah  C5vh  1 4.300000e-01    2.920000e+00
 SN3ah  C4vh  1 4.300000e-01    2.920000e+00
 SN3ah  C3vh  1 4.300000e-01    2.770000e+00
 SN3ah  C2vh  1 4.300000e-01    2.770000e+00
 SN3ah  C1vh  1 4.300000e-01    2.530000e+00
 SN3ah  X4vh  1 4.300000e-01    3.380000e+00
 SN3ah  X3vh  1 4.300000e-01    3.160000e+00
 SN3ah  X2vh  1 4.300000e-01    2.920000e+00
 SN3ah  X1vh  1 4.300000e-01    2.920000e+00
 SN2ah  C6vh  1 4.300000e-01    3.160000e+00
 SN2ah  C5vh  1 4.300000e-01    2.920000e+00
 SN2ah  C4vh  1 4.300000e-01    2.920000e+00
 SN2ah  C3vh  1 4.300000e-01    2.920000e+00
 SN2ah  C2vh  1 4.300000e-01    2.770000e+00
 SN2ah  C1vh  1 4.300000e-01    2.530000e+00
 SN2ah  X4vh  1 4.300000e-01    3.380000e+00
 SN2ah  X3vh  1 4.300000e-01    3.160000e+00
 SN2ah  X2vh  1 4.300000e-01    2.920000e+00
 SN2ah  X1vh  1 4.300000e-01    2.920000e+00
 SN1ah  C6vh  1 4.300000e-01    3.380000e+00
 SN1ah  C5vh  1 4.300000e-01    3.160000e+00
 SN1ah  C4vh  1 4.300000e-01    3.160000e+00
 SN1ah  C3vh  1 4.300000e-01    2.920000e+00
 SN1ah  C2vh  1 4.300000e-01    2.770000e+00
 SN1ah  C1vh  1 4.300000e-01    2.530000e+00
 SN1ah  X4vh  1 4.300000e-01    3.160000e+00
 SN1ah  X3vh  1 4.300000e-01    3.160000e+00
 SN1ah  X2vh  1 4.300000e-01    2.920000e+00
 SN1ah  X1vh  1 4.300000e-01    2.920000e+00
  P6ah SC6vr  1 4.300000e-01    2.530000e+00
  P6ah SC5vr  1 4.300000e-01    2.320000e+00
  P6ah SC4vr  1 4.300000e-01    2.160000e+00
  P6ah SC3vr  1 4.300000e-01    1.930000e+00
  P6ah SC2vr  1 4.300000e-01    1.930000e+00
  P6ah SC1vr  1 4.430000e-01    1.480000e+00
  P6ah SX4vr  1 4.300000e-01    2.770000e+00
  P6ah SX3vr  1 4.300000e-01    2.770000e+00
  P6ah SX2vr  1 4.300000e-01    2.530000e+00
  P6ah SX1vr  1 4.300000e-01    2.320000e+00
  P5ah SC6vr  1 4.300000e-01    2.530000e+00
  P5ah SC5vr  1 4.300000e-01    2.530000e+00
  P5ah SC4vr  1 4.300000e-01    2.320000e+00
  P5ah SC3vr  1 4.300000e-01    2.160000e+00
  P5ah SC2vr  1 4.300000e-01    2.160000e+00
  P5ah SC1vr  1 4.300000e-01    1.930000e+00
  P5ah SX4vr  1 4.300000e-01    2.920000e+00
  P5ah SX3vr  1 4.300000e-01    2.770000e+00
  P5ah SX2vr  1 4.300000e-01    2.770000e+00
  P5ah SX1vr  1 4.300000e-01    2.320000e+00
  P4ah SC6vr  1 4.300000e-01    2.770000e+00
  P4ah SC5vr  1 4.300000e-01    2.530000e+00
  P4ah SC4vr  1 4.300000e-01    2.320000e+00
  P4ah SC3vr  1 4.300000e-01    2.160000e+00
  P4ah SC2vr  1 4.300000e-01    2.160000e+00
  P4ah SC1vr  1 4.300000e-01    1.930000e+00
  P4ah SX4vr  1 4.300000e-01    2.920000e+00
  P4ah SX3vr  1 4.300000e-01    2.770000e+00
  P4ah SX2vr  1 4.300000e-01    2.770000e+00
  P4ah SX1vr  1 4.300000e-01    2.530000e+00
  P3ah SC6vr  1 4.300000e-01    2.920000e+00
  P3ah SC5vr  1 4.300000e-01    2.770000e+00
  P3ah SC4vr  1 4.300000e-01    2.530000e+00
  P3ah SC3vr  1 4.300000e-01    2.160000e+00
  P3ah SC2vr  1 4.300000e-01    2.160000e+00
  P3ah SC1vr  1 4.300000e-01    1.930000e+00
  P3ah SX4vr  1 4.300000e-01    2.920000e+00
  P3ah SX3vr  1 4.300000e-01    2.920000e+00
  P3ah SX2vr  1 4.300000e-01    2.770000e+00
  P3ah SX1vr  1 4.300000e-01    2.530000e+00
  P2ah SC6vr  1 4.300000e-01    2.920000e+00
  P2ah SC5vr  1 4.300000e-01    2.770000e+00
  P2ah SC4vr  1 4.300000e-01    2.530000e+00
  P2ah SC3vr  1 4.300000e-01    2.320000e+00
  P2ah SC2vr  1 4.300000e-01    2.320000e+00
  P2ah SC1vr  1 4.300000e-01    2.160000e+00
  P2ah SX4vr  1 4.300000e-01    2.920000e+00
  P2ah SX3vr  1 4.300000e-01    2.920000e+00
  P2ah SX2vr  1 4.300000e-01    2.770000e+00
  P2ah SX1vr  1 4.300000e-01    2.530000e+00
  P1ah SC6vr  1 4.300000e-01    2.920000e+00
  P1ah SC5vr  1 4.300000e-01    2.770000e+00
  P1ah SC4vr  1 4.300000e-01    2.530000e+00
  P1ah SC3vr  1 4.300000e-01    2.320000e+00
  P1ah SC2vr  1 4.300000e-01    2.320000e+00
  P1ah SC1vr  1 4.300000e-01    2.160000e+00
  P1ah SX4vr  1 4.300000e-01    2.920000e+00
  P1ah SX3vr  1 4.300000e-01    2.920000e+00
  P1ah SX2vr  1 4.300000e-01    2.770000e+00
  P1ah SX1vr  1 4.300000e-01    2.530000e+00
  N6ah SC6vr  1 4.300000e-01    3.160000e+00
  N6ah SC5vr  1 4.300000e-01    2.920000e+00
  N6ah SC4vr  1 4.300000e-01    2.770000e+00
  N6ah SC3vr  1 4.300000e-01    2.530000e+00
  N6ah SC2vr  1 4.300000e-01    2.530000e+00
  N6ah SC1vr  1 4.300000e-01    2.320000e+00
  N6ah SX4vr  1 4.300000e-01    3.160000e+00
  N6ah SX3vr  1 4.300000e-01    2.920000e+00
  N6ah SX2vr  1 4.300000e-01    2.770000e+00
  N6ah SX1vr  1 4.300000e-01    2.530000e+00
  N5ah SC6vr  1 4.300000e-01    3.160000e+00
  N5ah SC5vr  1 4.300000e-01    2.920000e+00
  N5ah SC4vr  1 4.300000e-01    2.770000e+00
  N5ah SC3vr  1 4.300000e-01    2.770000e+00
  N5ah SC2vr  1 4.300000e-01    2.530000e+00
  N5ah SC1vr  1 4.300000e-01    2.320000e+00
  N5ah SX4vr  1 4.300000e-01    3.380000e+00
  N5ah SX3vr  1 4.300000e-01    3.160000e+00
  N5ah SX2vr  1 4.300000e-01    2.920000e+00
  N5ah SX1vr  1 4.300000e-01    2.770000e+00
  N4ah SC6vr  1 4.300000e-01    3.160000e+00
  N4ah SC5vr  1 4.300000e-01    2.920000e+00
  N4ah SC4vr  1 4.300000e-01    2.920000e+00
  N4ah SC3vr  1 4.300000e-01    2.770000e+00
  N4ah SC2vr  1 4.300000e-01    2.530000e+00
  N4ah SC1vr  1 4.300000e-01    2.320000e+00
  N4ah SX4vr  1 4.300000e-01    3.590000e+00
  N4ah SX3vr  1 4.300000e-01    3.380000e+00
  N4ah SX2vr  1 4.300000e-01    2.920000e+00
  N4ah SX1vr  1 4.300000e-01    2.770000e+00
  N3ah SC6vr  1 4.300000e-01    3.160000e+00
  N3ah SC5vr  1 4.300000e-01    2.920000e+00
  N3ah SC4vr  1 4.300000e-01    2.920000e+00
  N3ah SC3vr  1 4.300000e-01    2.770000e+00
  N3ah SC2vr  1 4.300000e-01    2.770000e+00
  N3ah SC1vr  1 4.300000e-01    2.530000e+00
  N3ah SX4vr  1 4.300000e-01    3.380000e+00
  N3ah SX3vr  1 4.300000e-01    3.160000e+00
  N3ah SX2vr  1 4.300000e-01    2.920000e+00
  N3ah SX1vr  1 4.300000e-01    2.920000e+00
  N2ah SC6vr  1 4.300000e-01    3.160000e+00
  N2ah SC5vr  1 4.300000e-01    2.920000e+00
  N2ah SC4vr  1 4.300000e-01    2.920000e+00
  N2ah SC3vr  1 4.300000e-01    2.920000e+00
  N2ah SC2vr  1 4.300000e-01    2.770000e+00
  N2ah SC1vr  1 4.300000e-01    2.530000e+00
  N2ah SX4vr  1 4.300000e-01    3.380000e+00
  N2ah SX3vr  1 4.300000e-01    3.160000e+00
  N2ah SX2vr  1 4.300000e-01    2.920000e+00
  N2ah SX1vr  1 4.300000e-01    2.920000e+00
  N1ah SC6vr  1 4.300000e-01    3.380000e+00
  N1ah SC5vr  1 4.300000e-01    3.160000e+00
  N1ah SC4vr  1 4.300000e-01    3.160000e+00
  N1ah SC3vr  1 4.300000e-01    2.920000e+00
  N1ah SC2vr  1 4.300000e-01    2.770000e+00
  N1ah SC1vr  1 4.300000e-01    2.530000e+00
  N1ah SX4vr  1 4.300000e-01    3.160000e+00
  N1ah SX3vr  1 4.300000e-01    3.160000e+00
  N1ah SX2vr  1 4.300000e-01    2.920000e+00
  N1ah SX1vr  1 4.300000e-01    2.920000e+00
 SP6ah  C6vr  1 4.300000e-01    2.530000e+00
 SP6ah  C5vr  1 4.300000e-01    2.320000e+00
 SP6ah  C4vr  1 4.300000e-01    2.160000e+00
 SP6ah  C3vr  1 4.300000e-01    1.930000e+00
 SP6ah  C2vr  1 4.300000e-01    1.930000e+00
 SP6ah  C1vr  1 4.430000e-01    1.480000e+00
 SP6ah  X4vr  1 4.300000e-01    2.770000e+00
 SP6ah  X3vr  1 4.300000e-01    2.770000e+00
 SP6ah  X2vr  1 4.300000e-01    2.530000e+00
 SP6ah  X1vr  1 4.300000e-01    2.320000e+00
 SP5ah  C6vr  1 4.300000e-01    2.530000e+00
 SP5ah  C5vr  1 4.300000e-01    2.530000e+00
 SP5ah  C4vr  1 4.300000e-01    2.320000e+00
 SP5ah  C3vr  1 4.300000e-01    2.160000e+00
 SP5ah  C2vr  1 4.300000e-01    2.160000e+00
 SP5ah  C1vr  1 4.300000e-01    1.930000e+00
 SP5ah  X4vr  1 4.300000e-01    2.920000e+00
 SP5ah  X3vr  1 4.300000e-01    2.770000e+00
 SP5ah  X2vr  1 4.300000e-01    2.770000e+00
 SP5ah  X1vr  1 4.300000e-01    2.320000e+00
 SP4ah  C6vr  1 4.300000e-01    2.770000e+00
 SP4ah  C5vr  1 4.300000e-01    2.530000e+00
 SP4ah  C4vr  1 4.300000e-01    2.320000e+00
 SP4ah  C3vr  1 4.300000e-01    2.160000e+00
 SP4ah  C2vr  1 4.300000e-01    2.160000e+00
 SP4ah  C1vr  1 4.300000e-01    1.930000e+00
 SP4ah  X4vr  1 4.300000e-01    2.920000e+00
 SP4ah  X3vr  1 4.300000e-01    2.770000e+00
 SP4ah  X2vr  1 4.300000e-01    2.770000e+00
 SP4ah  X1vr  1 4.300000e-01    2.530000e+00
 SP3ah  C6vr  1 4.300000e-01    2.920000e+00
 SP3ah  C5vr  1 4.300000e-01    2.770000e+00
 SP3ah  C4vr  1 4.300000e-01    2.530000e+00
 SP3ah  C3vr  1 4.300000e-01    2.160000e+00
 SP3ah  C2vr  1 4.300000e-01    2.160000e+00
 SP3ah  C1vr  1 4.300000e-01    1.930000e+00
 SP3ah  X4vr  1 4.300000e-01    2.920000e+00
 SP3ah  X3vr  1 4.300000e-01    2.920000e+00
 SP3ah  X2vr  1 4.300000e-01    2.770000e+00
 SP3ah  X1vr  1 4.300000e-01    2.530000e+00
 SP2ah  C6vr  1 4.300000e-01    2.920000e+00
 SP2ah  C5vr  1 4.300000e-01    2.770000e+00
 SP2ah  C4vr  1 4.300000e-01    2.530000e+00
 SP2ah  C3vr  1 4.300000e-01    2.320000e+00
 SP2ah  C2vr  1 4.300000e-01    2.320000e+00
 SP2ah  C1vr  1 4.300000e-01    2.160000e+00
 SP2ah  X4vr  1 4.300000e-01    2.920000e+00
 SP2ah  X3vr  1 4.300000e-01    2.920000e+00
 SP2ah  X2vr  1 4.300000e-01    2.770000e+00
 SP2ah  X1vr  1 4.300000e-01    2.530000e+00
 SP1ah  C6vr  1 4.300000e-01    2.920000e+00
 SP1ah  C5vr  1 4.300000e-01    2.770000e+00
 SP1ah  C4vr  1 4.300000e-01    2.530000e+00
 SP1ah  C3vr  1 4.300000e-01    2.320000e+00
 SP1ah  C2vr  1 4.300000e-01    2.320000e+00
 SP1ah  C1vr  1 4.300000e-01    2.160000e+00
 SP1ah  X4vr  1 4.300000e-01    2.920000e+00
 SP1ah  X3vr  1 4.300000e-01    2.920000e+00
 SP1ah  X2vr  1 4.300000e-01    2.770000e+00
 SP1ah  X1vr  1 4.300000e-01    2.530000e+00
 SN6ah  C6vr  1 4.300000e-01    3.160000e+00
 SN6ah  C5vr  1 4.300000e-01    2.920000e+00
 SN6ah  C4vr  1 4.300000e-01    2.770000e+00
 SN6ah  C3vr  1 4.300000e-01    2.530000e+00
 SN6ah  C2vr  1 4.300000e-01    2.530000e+00
 SN6ah  C1vr  1 4.300000e-01    2.320000e+00
 SN6ah  X4vr  1 4.300000e-01    3.160000e+00
 SN6ah  X3vr  1 4.300000e-01    2.920000e+00
 SN6ah  X2vr  1 4.300000e-01    2.770000e+00
 SN6ah  X1vr  1 4.300000e-01    2.530000e+00
 SN5ah  C6vr  1 4.300000e-01    3.160000e+00
 SN5ah  C5vr  1 4.300000e-01    2.920000e+00
 SN5ah  C4vr  1 4.300000e-01    2.770000e+00
 SN5ah  C3vr  1 4.300000e-01    2.770000e+00
 SN5ah  C2vr  1 4.300000e-01    2.530000e+00
 SN5ah  C1vr  1 4.300000e-01    2.320000e+00
 SN5ah  X4vr  1 4.300000e-01    3.380000e+00
 SN5ah  X3vr  1 4.300000e-01    3.160000e+00
 SN5ah  X2vr  1 4.300000e-01    2.920000e+00
 SN5ah  X1vr  1 4.300000e-01    2.770000e+00
 SN4ah  C6vr  1 4.300000e-01    3.160000e+00
 SN4ah  C5vr  1 4.300000e-01    2.920000e+00
 SN4ah  C4vr  1 4.300000e-01    2.920000e+00
 SN4ah  C3vr  1 4.300000e-01    2.770000e+00
 SN4ah  C2vr  1 4.300000e-01    2.530000e+00
 SN4ah  C1vr  1 4.300000e-01    2.320000e+00
 SN4ah  X4vr  1 4.300000e-01    3.590000e+00
 SN4ah  X3vr  1 4.300000e-01    3.380000e+00
 SN4ah  X2vr  1 4.300000e-01    2.920000e+00
 SN4ah  X1vr  1 4.300000e-01    2.770000e+00
 SN3ah  C6vr  1 4.300000e-01    3.160000e+00
 SN3ah  C5vr  1 4.300000e-01    2.920000e+00
 SN3ah  C4vr  1 4.300000e-01    2.920000e+00
 SN3ah  C3vr  1 4.300000e-01    2.770000e+00
 SN3ah  C2vr  1 4.300000e-01    2.770000e+00
 SN3ah  C1vr  1 4.300000e-01    2.530000e+00
 SN3ah  X4vr  1 4.300000e-01    3.380000e+00
 SN3ah  X3vr  1 4.300000e-01    3.160000e+00
 SN3ah  X2vr  1 4.300000e-01    2.920000e+00
 SN3ah  X1vr  1 4.300000e-01    2.920000e+00
 SN2ah  C6vr  1 4.300000e-01    3.160000e+00
 SN2ah  C5vr  1 4.300000e-01    2.920000e+00
 SN2ah  C4vr  1 4.300000e-01    2.920000e+00
 SN2ah  C3vr  1 4.300000e-01    2.920000e+00
 SN2ah  C2vr  1 4.300000e-01    2.770000e+00
 SN2ah  C1vr  1 4.300000e-01    2.530000e+00
 SN2ah  X4vr  1 4.300000e-01    3.380000e+00
 SN2ah  X3vr  1 4.300000e-01    3.160000e+00
 SN2ah  X2vr  1 4.300000e-01    2.920000e+00
 SN2ah  X1vr  1 4.300000e-01    2.920000e+00
 SN1ah  C6vr  1 4.300000e-01    3.380000e+00
 SN1ah  C5vr  1 4.300000e-01    3.160000e+00
 SN1ah  C4vr  1 4.300000e-01    3.160000e+00
 SN1ah  C3vr  1 4.300000e-01    2.920000e+00
 SN1ah  C2vr  1 4.300000e-01    2.770000e+00
 SN1ah  C1vr  1 4.300000e-01    2.530000e+00
 SN1ah  X4vr  1 4.300000e-01    3.160000e+00
 SN1ah  X3vr  1 4.300000e-01    3.160000e+00
 SN1ah  X2vr  1 4.300000e-01    2.920000e+00
 SN1ah  X1vr  1 4.300000e-01    2.920000e+00
  P6ar  SC6v  1 4.300000e-01    2.530000e+00
  P6ar  SC5v  1 4.300000e-01    2.320000e+00
  P6ar  SC4v  1 4.300000e-01    2.160000e+00
  P6ar  SC3v  1 4.300000e-01    1.930000e+00
  P6ar  SC2v  1 4.300000e-01    1.930000e+00
  P6ar  SC1v  1 4.430000e-01    1.480000e+00
  P6ar  SX4v  1 4.300000e-01    2.770000e+00
  P6ar  SX3v  1 4.300000e-01    2.770000e+00
  P6ar  SX2v  1 4.300000e-01    2.530000e+00
  P6ar  SX1v  1 4.300000e-01    2.320000e+00
  P5ar  SC6v  1 4.300000e-01    2.530000e+00
  P5ar  SC5v  1 4.300000e-01    2.530000e+00
  P5ar  SC4v  1 4.300000e-01    2.320000e+00
  P5ar  SC3v  1 4.300000e-01    2.160000e+00
  P5ar  SC2v  1 4.300000e-01    2.160000e+00
  P5ar  SC1v  1 4.300000e-01    1.930000e+00
  P5ar  SX4v  1 4.300000e-01    2.920000e+00
  P5ar  SX3v  1 4.300000e-01    2.770000e+00
  P5ar  SX2v  1 4.300000e-01    2.770000e+00
  P5ar  SX1v  1 4.300000e-01    2.320000e+00
  P4ar  SC6v  1 4.300000e-01    2.770000e+00
  P4ar  SC5v  1 4.300000e-01    2.530000e+00
  P4ar  SC4v  1 4.300000e-01    2.320000e+00
  P4ar  SC3v  1 4.300000e-01    2.160000e+00
  P4ar  SC2v  1 4.300000e-01    2.160000e+00
  P4ar  SC1v  1 4.300000e-01    1.930000e+00
  P4ar  SX4v  1 4.300000e-01    2.920000e+00
  P4ar  SX3v  1 4.300000e-01    2.770000e+00
  P4ar  SX2v  1 4.300000e-01    2.770000e+00
  P4ar  SX1v  1 4.300000e-01    2.530000e+00
  P3ar  SC6v  1 4.300000e-01    2.920000e+00
  P3ar  SC5v  1 4.300000e-01    2.770000e+00
  P3ar  SC4v  1 4.300000e-01    2.530000e+00
  P3ar  SC3v  1 4.300000e-01    2.160000e+00
  P3ar  SC2v  1 4.300000e-01    2.160000e+00
  P3ar  SC1v  1 4.300000e-01    1.930000e+00
  P3ar  SX4v  1 4.300000e-01    2.920000e+00
  P3ar  SX3v  1 4.300000e-01    2.920000e+00
  P3ar  SX2v  1 4.300000e-01    2.770000e+00
  P3ar  SX1v  1 4.300000e-01    2.530000e+00
  P2ar  SC6v  1 4.300000e-01    2.920000e+00
  P2ar  SC5v  1 4.300000e-01    2.770000e+00
  P2ar  SC4v  1 4.300000e-01    2.530000e+00
  P2ar  SC3v  1 4.300000e-01    2.320000e+00
  P2ar  SC2v  1 4.300000e-01    2.320000e+00
  P2ar  SC1v  1 4.300000e-01    2.160000e+00
  P2ar  SX4v  1 4.300000e-01    2.920000e+00
  P2ar  SX3v  1 4.300000e-01    2.920000e+00
  P2ar  SX2v  1 4.300000e-01    2.770000e+00
  P2ar  SX1v  1 4.300000e-01    2.530000e+00
  P1ar  SC6v  1 4.300000e-01    2.920000e+00
  P1ar  SC5v  1 4.300000e-01    2.770000e+00
  P1ar  SC4v  1 4.300000e-01    2.530000e+00
  P1ar  SC3v  1 4.300000e-01    2.320000e+00
  P1ar  SC2v  1 4.300000e-01    2.320000e+00
  P1ar  SC1v  1 4.300000e-01    2.160000e+00
  P1ar  SX4v  1 4.300000e-01    2.920000e+00
  P1ar  SX3v  1 4.300000e-01    2.920000e+00
  P1ar  SX2v  1 4.300000e-01    2.770000e+00
  P1ar  SX1v  1 4.300000e-01    2.530000e+00
  N6ar  SC6v  1 4.300000e-01    3.160000e+00
  N6ar  SC5v  1 4.300000e-01    2.920000e+00
  N6ar  SC4v  1 4.300000e-01    2.770000e+00
  N6ar  SC3v  1 4.300000e-01    2.530000e+00
  N6ar  SC2v  1 4.300000e-01    2.530000e+00
  N6ar  SC1v  1 4.300000e-01    2.320000e+00
  N6ar  SX4v  1 4.300000e-01    3.160000e+00
  N6ar  SX3v  1 4.300000e-01    2.920000e+00
  N6ar  SX2v  1 4.300000e-01    2.770000e+00
  N6ar  SX1v  1 4.300000e-01    2.530000e+00
  N5ar  SC6v  1 4.300000e-01    3.160000e+00
  N5ar  SC5v  1 4.300000e-01    2.920000e+00
  N5ar  SC4v  1 4.300000e-01    2.770000e+00
  N5ar  SC3v  1 4.300000e-01    2.770000e+00
  N5ar  SC2v  1 4.300000e-01    2.530000e+00
  N5ar  SC1v  1 4.300000e-01    2.320000e+00
  N5ar  SX4v  1 4.300000e-01    3.380000e+00
  N5ar  SX3v  1 4.300000e-01    3.160000e+00
  N5ar  SX2v  1 4.300000e-01    2.920000e+00
  N5ar  SX1v  1 4.300000e-01    2.770000e+00
  N4ar  SC6v  1 4.300000e-01    3.160000e+00
  N4ar  SC5v  1 4.300000e-01    2.920000e+00
  N4ar  SC4v  1 4.300000e-01    2.920000e+00
  N4ar  SC3v  1 4.300000e-01    2.770000e+00
  N4ar  SC2v  1 4.300000e-01    2.530000e+00
  N4ar  SC1v  1 4.300000e-01    2.320000e+00
  N4ar  SX4v  1 4.300000e-01    3.590000e+00
  N4ar  SX3v  1 4.300000e-01    3.380000e+00
  N4ar  SX2v  1 4.300000e-01    2.920000e+00
  N4ar  SX1v  1 4.300000e-01    2.770000e+00
  N3ar  SC6v  1 4.300000e-01    3.160000e+00
  N3ar  SC5v  1 4.300000e-01    2.920000e+00
  N3ar  SC4v  1 4.300000e-01    2.920000e+00
  N3ar  SC3v  1 4.300000e-01    2.770000e+00
  N3ar  SC2v  1 4.300000e-01    2.770000e+00
  N3ar  SC1v  1 4.300000e-01    2.530000e+00
  N3ar  SX4v  1 4.300000e-01    3.380000e+00
  N3ar  SX3v  1 4.300000e-01    3.160000e+00
  N3ar  SX2v  1 4.300000e-01    2.920000e+00
  N3ar  SX1v  1 4.300000e-01    2.920000e+00
  N2ar  SC6v  1 4.300000e-01    3.160000e+00
  N2ar  SC5v  1 4.300000e-01    2.920000e+00
  N2ar  SC4v  1 4.300000e-01    2.920000e+00
  N2ar  SC3v  1 4.300000e-01    2.920000e+00
  N2ar  SC2v  1 4.300000e-01    2.770000e+00
  N2ar  SC1v  1 4.300000e-01    2.530000e+00
  N2ar  SX4v  1 4.300000e-01    3.380000e+00
  N2ar  SX3v  1 4.300000e-01    3.160000e+00
  N2ar  SX2v  1 4.300000e-01    2.920000e+00
  N2ar  SX1v  1 4.300000e-01    2.920000e+00
  N1ar  SC6v  1 4.300000e-01    3.380000e+00
  N1ar  SC5v  1 4.300000e-01    3.160000e+00
  N1ar  SC4v  1 4.300000e-01    3.160000e+00
  N1ar  SC3v  1 4.300000e-01    2.920000e+00
  N1ar  SC2v  1 4.300000e-01    2.770000e+00
  N1ar  SC1v  1 4.300000e-01    2.530000e+00
  N1ar  SX4v  1 4.300000e-01    3.160000e+00
  N1ar  SX3v  1 4.300000e-01    3.160000e+00
  N1ar  SX2v  1 4.300000e-01    2.920000e+00
  N1ar  SX1v  1 4.300000e-01    2.920000e+00
 SP6ar   C6v  1 4.300000e-01    2.530000e+00
 SP6ar   C5v  1 4.300000e-01    2.320000e+00
 SP6ar   C4v  1 4.300000e-01    2.160000e+00
 SP6ar   C3v  1 4.300000e-01    1.930000e+00
 SP6ar   C2v  1 4.300000e-01    1.930000e+00
 SP6ar   C1v  1 4.430000e-01    1.480000e+00
 SP6ar   X4v  1 4.300000e-01    2.770000e+00
 SP6ar   X3v  1 4.300000e-01    2.770000e+00
 SP6ar   X2v  1 4.300000e-01    2.530000e+00
 SP6ar   X1v  1 4.300000e-01    2.320000e+00
 SP5ar   C6v  1 4.300000e-01    2.530000e+00
 SP5ar   C5v  1 4.300000e-01    2.530000e+00
 SP5ar   C4v  1 4.300000e-01    2.320000e+00
 SP5ar   C3v  1 4.300000e-01    2.160000e+00
 SP5ar   C2v  1 4.300000e-01    2.160000e+00
 SP5ar   C1v  1 4.300000e-01    1.930000e+00
 SP5ar   X4v  1 4.300000e-01    2.920000e+00
 SP5ar   X3v  1 4.300000e-01    2.770000e+00
 SP5ar   X2v  1 4.300000e-01    2.770000e+00
 SP5ar   X1v  1 4.300000e-01    2.320000e+00
 SP4ar   C6v  1 4.300000e-01    2.770000e+00
 SP4ar   C5v  1 4.300000e-01    2.530000e+00
 SP4ar   C4v  1 4.300000e-01    2.320000e+00
 SP4ar   C3v  1 4.300000e-01    2.160000e+00
 SP4ar   C2v  1 4.300000e-01    2.160000e+00
 SP4ar   C1v  1 4.300000e-01    1.930000e+00
 SP4ar   X4v  1 4.300000e-01    2.920000e+00
 SP4ar   X3v  1 4.300000e-01    2.770000e+00
 SP4ar   X2v  1 4.300000e-01    2.770000e+00
 SP4ar   X1v  1 4.300000e-01    2.530000e+00
 SP3ar   C6v  1 4.300000e-01    2.920000e+00
 SP3ar   C5v  1 4.300000e-01    2.770000e+00
 SP3ar   C4v  1 4.300000e-01    2.530000e+00
 SP3ar   C3v  1 4.300000e-01    2.160000e+00
 SP3ar   C2v  1 4.300000e-01    2.160000e+00
 SP3ar   C1v  1 4.300000e-01    1.930000e+00
 SP3ar   X4v  1 4.300000e-01    2.920000e+00
 SP3ar   X3v  1 4.300000e-01    2.920000e+00
 SP3ar   X2v  1 4.300000e-01    2.770000e+00
 SP3ar   X1v  1 4.300000e-01    2.530000e+00
 SP2ar   C6v  1 4.300000e-01    2.920000e+00
 SP2ar   C5v  1 4.300000e-01    2.770000e+00
 SP2ar   C4v  1 4.300000e-01    2.530000e+00
 SP2ar   C3v  1 4.300000e-01    2.320000e+00
 SP2ar   C2v  1 4.300000e-01    2.320000e+00
 SP2ar   C1v  1 4.300000e-01    2.160000e+00
 SP2ar   X4v  1 4.300000e-01    2.920000e+00
 SP2ar   X3v  1 4.300000e-01    2.920000e+00
 SP2ar   X2v  1 4.300000e-01    2.770000e+00
 SP2ar   X1v  1 4.300000e-01    2.530000e+00
 SP1ar   C6v  1 4.300000e-01    2.920000e+00
 SP1ar   C5v  1 4.300000e-01    2.770000e+00
 SP1ar   C4v  1 4.300000e-01    2.530000e+00
 SP1ar   C3v  1 4.300000e-01    2.320000e+00
 SP1ar   C2v  1 4.300000e-01    2.320000e+00
 SP1ar   C1v  1 4.300000e-01    2.160000e+00
 SP1ar   X4v  1 4.300000e-01    2.920000e+00
 SP1ar   X3v  1 4.300000e-01    2.920000e+00
 SP1ar   X2v  1 4.300000e-01    2.770000e+00
 SP1ar   X1v  1 4.300000e-01    2.530000e+00
 SN6ar   C6v  1 4.300000e-01    3.160000e+00
 SN6ar   C5v  1 4.300000e-01    2.920000e+00
 SN6ar   C4v  1 4.300000e-01    2.770000e+00
 SN6ar   C3v  1 4.300000e-01    2.530000e+00
 SN6ar   C2v  1 4.300000e-01    2.530000e+00
 SN6ar   C1v  1 4.300000e-01    2.320000e+00
 SN6ar   X4v  1 4.300000e-01    3.160000e+00
 SN6ar   X3v  1 4.300000e-01    2.920000e+00
 SN6ar   X2v  1 4.300000e-01    2.770000e+00
 SN6ar   X1v  1 4.300000e-01    2.530000e+00
 SN5ar   C6v  1 4.300000e-01    3.160000e+00
 SN5ar   C5v  1 4.300000e-01    2.920000e+00
 SN5ar   C4v  1 4.300000e-01    2.770000e+00
 SN5ar   C3v  1 4.300000e-01    2.770000e+00
 SN5ar   C2v  1 4.300000e-01    2.530000e+00
 SN5ar   C1v  1 4.300000e-01    2.320000e+00
 SN5ar   X4v  1 4.300000e-01    3.380000e+00
 SN5ar   X3v  1 4.300000e-01    3.160000e+00
 SN5ar   X2v  1 4.300000e-01    2.920000e+00
 SN5ar   X1v  1 4.300000e-01    2.770000e+00
 SN4ar   C6v  1 4.300000e-01    3.160000e+00
 SN4ar   C5v  1 4.300000e-01    2.920000e+00
 SN4ar   C4v  1 4.300000e-01    2.920000e+00
 SN4ar   C3v  1 4.300000e-01    2.770000e+00
 SN4ar   C2v  1 4.300000e-01    2.530000e+00
 SN4ar   C1v  1 4.300000e-01    2.320000e+00
 SN4ar   X4v  1 4.300000e-01    3.590000e+00
 SN4ar   X3v  1 4.300000e-01    3.380000e+00
 SN4ar   X2v  1 4.300000e-01    2.920000e+00
 SN4ar   X1v  1 4.300000e-01    2.770000e+00
 SN3ar   C6v  1 4.300000e-01    3.160000e+00
 SN3ar   C5v  1 4.300000e-01    2.920000e+00
 SN3ar   C4v  1 4.300000e-01    2.920000e+00
 SN3ar   C3v  1 4.300000e-01    2.770000e+00
 SN3ar   C2v  1 4.300000e-01    2.770000e+00
 SN3ar   C1v  1 4.300000e-01    2.530000e+00
 SN3ar   X4v  1 4.300000e-01    3.380000e+00
 SN3ar   X3v  1 4.300000e-01    3.160000e+00
 SN3ar   X2v  1 4.300000e-01    2.920000e+00
 SN3ar   X1v  1 4.300000e-01    2.920000e+00
 SN2ar   C6v  1 4.300000e-01    3.160000e+00
 SN2ar   C5v  1 4.300000e-01    2.920000e+00
 SN2ar   C4v  1 4.300000e-01    2.920000e+00
 SN2ar   C3v  1 4.300000e-01    2.920000e+00
 SN2ar   C2v  1 4.300000e-01    2.770000e+00
 SN2ar   C1v  1 4.300000e-01    2.530000e+00
 SN2ar   X4v  1 4.300000e-01    3.380000e+00
 SN2ar   X3v  1 4.300000e-01    3.160000e+00
 SN2ar   X2v  1 4.300000e-01    2.920000e+00
 SN2ar   X1v  1 4.300000e-01    2.920000e+00
 SN1ar   C6v  1 4.300000e-01    3.380000e+00
 SN1ar   C5v  1 4.300000e-01    3.160000e+00
 SN1ar   C4v  1 4.300000e-01    3.160000e+00
 SN1ar   C3v  1 4.300000e-01    2.920000e+00
 SN1ar   C2v  1 4.300000e-01    2.770000e+00
 SN1ar   C1v  1 4.300000e-01    2.530000e+00
 SN1ar   X4v  1 4.300000e-01    3.160000e+00
 SN1ar   X3v  1 4.300000e-01    3.160000e+00
 SN1ar   X2v  1 4.300000e-01    2.920000e+00
 SN1ar   X1v  1 4.300000e-01    2.920000e+00
  P6ar SX1vq  1 4.300000e-01    2.770000e+00
  P6ar SX2vq  1 4.300000e-01    2.920000e+00
  P6ar SX3vq  1 4.300000e-01    3.160000e+00
  P6ar SX4vq  1 4.300000e-01    3.160000e+00
  P6ar SC1vq  1 4.300000e-01    1.930000e+00
  P6ar SC2vq  1 4.300000e-01    2.320000e+00
  P6ar SC3vq  1 4.300000e-01    2.320000e+00
  P6ar SC4vq  1 4.300000e-01    2.530000e+00
  P6ar SC5vq  1 4.300000e-01    2.770000e+00
  P6ar SC6vq  1 4.300000e-01    2.920000e+00
  P5ar SX1vq  1 4.300000e-01    2.770000e+00
  P5ar SX2vq  1 4.300000e-01    3.160000e+00
  P5ar SX3vq  1 4.300000e-01    3.160000e+00
  P5ar SX4vq  1 4.300000e-01    3.380000e+00
  P5ar SC1vq  1 4.300000e-01    2.320000e+00
  P5ar SC2vq  1 4.300000e-01    2.530000e+00
  P5ar SC3vq  1 4.300000e-01    2.530000e+00
  P5ar SC4vq  1 4.300000e-01    2.770000e+00
  P5ar SC5vq  1 4.300000e-01    2.920000e+00
  P5ar SC6vq  1 4.300000e-01    2.920000e+00
  P4ar SX1vq  1 4.300000e-01    2.920000e+00
  P4ar SX2vq  1 4.300000e-01    3.160000e+00
  P4ar SX3vq  1 4.300000e-01    3.160000e+00
  P4ar SX4vq  1 4.300000e-01    3.380000e+00
  P4ar SC1vq  1 4.300000e-01    2.320000e+00
  P4ar SC2vq  1 4.300000e-01    2.530000e+00
  P4ar SC3vq  1 4.300000e-01    2.530000e+00
  P4ar SC4vq  1 4.300000e-01    2.770000e+00
  P4ar SC5vq  1 4.300000e-01    2.920000e+00
  P4ar SC6vq  1 4.300000e-01    3.160000e+00
  P3ar SX1vq  1 4.300000e-01    2.920000e+00
  P3ar SX2vq  1 4.300000e-01    3.160000e+00
  P3ar SX3vq  1 4.300000e-01    3.380000e+00
  P3ar SX4vq  1 4.300000e-01    3.380000e+00
  P3ar SC1vq  1 4.300000e-01    2.320000e+00
  P3ar SC2vq  1 4.300000e-01    2.530000e+00
  P3ar SC3vq  1 4.300000e-01    2.530000e+00
  P3ar SC4vq  1 4.300000e-01    2.920000e+00
  P3ar SC5vq  1 4.300000e-01    3.160000e+00
  P3ar SC6vq  1 4.300000e-01    3.380000e+00
  P2ar SX1vq  1 4.300000e-01    2.920000e+00
  P2ar SX2vq  1 4.300000e-01    3.160000e+00
  P2ar SX3vq  1 4.300000e-01    3.380000e+00
  P2ar SX4vq  1 4.300000e-01    3.380000e+00
  P2ar SC1vq  1 4.300000e-01    2.530000e+00
  P2ar SC2vq  1 4.300000e-01    2.770000e+00
  P2ar SC3vq  1 4.300000e-01    2.770000e+00
  P2ar SC4vq  1 4.300000e-01    2.920000e+00
  P2ar SC5vq  1 4.300000e-01    3.160000e+00
  P2ar SC6vq  1 4.300000e-01    3.380000e+00
  P1ar SX1vq  1 4.300000e-01    2.920000e+00
  P1ar SX2vq  1 4.300000e-01    3.160000e+00
  P1ar SX3vq  1 4.300000e-01    3.380000e+00
  P1ar SX4vq  1 4.300000e-01    3.380000e+00
  P1ar SC1vq  1 4.300000e-01    2.530000e+00
  P1ar SC2vq  1 4.300000e-01    2.770000e+00
  P1ar SC3vq  1 4.300000e-01    2.770000e+00
  P1ar SC4vq  1 4.300000e-01    2.920000e+00
  P1ar SC5vq  1 4.300000e-01    3.160000e+00
  P1ar SC6vq  1 4.300000e-01    3.380000e+00
  N6ar SX1vq  1 4.300000e-01    2.920000e+00
  N6ar SX2vq  1 4.300000e-01    3.160000e+00
  N6ar SX3vq  1 4.300000e-01    3.380000e+00
  N6ar SX4vq  1 4.300000e-01    3.590000e+00
  N6ar SC1vq  1 4.300000e-01    2.770000e+00
  N6ar SC2vq  1 4.300000e-01    2.920000e+00
  N6ar SC3vq  1 4.300000e-01    2.920000e+00
  N6ar SC4vq  1 4.300000e-01    3.160000e+00
  N6ar SC5vq  1 4.300000e-01    3.380000e+00
  N6ar SC6vq  1 4.300000e-01    3.590000e+00
  N5ar SX1vq  1 4.300000e-01    3.160000e+00
  N5ar SX2vq  1 4.300000e-01    3.380000e+00
  N5ar SX3vq  1 4.300000e-01    3.590000e+00
  N5ar SX4vq  1 4.300000e-01    3.770000e+00
  N5ar SC1vq  1 4.300000e-01    2.770000e+00
  N5ar SC2vq  1 4.300000e-01    2.920000e+00
  N5ar SC3vq  1 4.300000e-01    3.160000e+00
  N5ar SC4vq  1 4.300000e-01    3.160000e+00
  N5ar SC5vq  1 4.300000e-01    3.380000e+00
  N5ar SC6vq  1 4.300000e-01    3.590000e+00
  N4ar SX1vq  1 4.300000e-01    3.160000e+00
  N4ar SX2vq  1 4.300000e-01    3.380000e+00
  N4ar SX3vq  1 4.300000e-01    3.770000e+00
  N4ar SX4vq  1 4.300000e-01    3.970000e+00
  N4ar SC1vq  1 4.300000e-01    2.770000e+00
  N4ar SC2vq  1 4.300000e-01    2.920000e+00
  N4ar SC3vq  1 4.300000e-01    3.160000e+00
  N4ar SC4vq  1 4.300000e-01    3.380000e+00
  N4ar SC5vq  1 4.300000e-01    3.380000e+00
  N4ar SC6vq  1 4.300000e-01    3.590000e+00
  N3ar SX1vq  1 4.300000e-01    3.380000e+00
  N3ar SX2vq  1 4.300000e-01    3.380000e+00
  N3ar SX3vq  1 4.300000e-01    3.590000e+00
  N3ar SX4vq  1 4.300000e-01    3.770000e+00
  N3ar SC1vq  1 4.300000e-01    2.920000e+00
  N3ar SC2vq  1 4.300000e-01    3.160000e+00
  N3ar SC3vq  1 4.300000e-01    3.160000e+00
  N3ar SC4vq  1 4.300000e-01    3.380000e+00
  N3ar SC5vq  1 4.300000e-01    3.380000e+00
  N3ar SC6vq  1 4.300000e-01    3.590000e+00
  N2ar SX1vq  1 4.300000e-01    3.380000e+00
  N2ar SX2vq  1 4.300000e-01    3.380000e+00
  N2ar SX3vq  1 4.300000e-01    3.590000e+00
  N2ar SX4vq  1 4.300000e-01    3.770000e+00
  N2ar SC1vq  1 4.300000e-01    2.920000e+00
  N2ar SC2vq  1 4.300000e-01    3.160000e+00
  N2ar SC3vq  1 4.300000e-01    3.380000e+00
  N2ar SC4vq  1 4.300000e-01    3.380000e+00
  N2ar SC5vq  1 4.300000e-01    3.380000e+00
  N2ar SC6vq  1 4.300000e-01    3.590000e+00
  N1ar SX1vq  1 4.300000e-01    3.380000e+00
  N1ar SX2vq  1 4.300000e-01    3.380000e+00
  N1ar SX3vq  1 4.300000e-01    3.590000e+00
  N1ar SX4vq  1 4.300000e-01    3.590000e+00
  N1ar SC1vq  1 4.300000e-01    2.920000e+00
  N1ar SC2vq  1 4.300000e-01    3.160000e+00
  N1ar SC3vq  1 4.300000e-01    3.380000e+00
  N1ar SC4vq  1 4.300000e-01    3.590000e+00
  N1ar SC5vq  1 4.300000e-01    3.590000e+00
  N1ar SC6vq  1 4.300000e-01    3.770000e+00
 SP6ar  X1vq  1 4.300000e-01    2.770000e+00
 SP6ar  X2vq  1 4.300000e-01    2.920000e+00
 SP6ar  X3vq  1 4.300000e-01    3.160000e+00
 SP6ar  X4vq  1 4.300000e-01    3.160000e+00
 SP6ar  C1vq  1 4.300000e-01    1.930000e+00
 SP6ar  C2vq  1 4.300000e-01    2.320000e+00
 SP6ar  C3vq  1 4.300000e-01    2.320000e+00
 SP6ar  C4vq  1 4.300000e-01    2.530000e+00
 SP6ar  C5vq  1 4.300000e-01    2.770000e+00
 SP6ar  C6vq  1 4.300000e-01    2.920000e+00
 SP5ar  X1vq  1 4.300000e-01    2.770000e+00
 SP5ar  X2vq  1 4.300000e-01    3.160000e+00
 SP5ar  X3vq  1 4.300000e-01    3.160000e+00
 SP5ar  X4vq  1 4.300000e-01    3.380000e+00
 SP5ar  C1vq  1 4.300000e-01    2.320000e+00
 SP5ar  C2vq  1 4.300000e-01    2.530000e+00
 SP5ar  C3vq  1 4.300000e-01    2.530000e+00
 SP5ar  C4vq  1 4.300000e-01    2.770000e+00
 SP5ar  C5vq  1 4.300000e-01    2.920000e+00
 SP5ar  C6vq  1 4.300000e-01    2.920000e+00
 SP4ar  X1vq  1 4.300000e-01    2.920000e+00
 SP4ar  X2vq  1 4.300000e-01    3.160000e+00
 SP4ar  X3vq  1 4.300000e-01    3.160000e+00
 SP4ar  X4vq  1 4.300000e-01    3.380000e+00
 SP4ar  C1vq  1 4.300000e-01    2.320000e+00
 SP4ar  C2vq  1 4.300000e-01    2.530000e+00
 SP4ar  C3vq  1 4.300000e-01    2.530000e+00
 SP4ar  C4vq  1 4.300000e-01    2.770000e+00
 SP4ar  C5vq  1 4.300000e-01    2.920000e+00
 SP4ar  C6vq  1 4.300000e-01    3.160000e+00
 SP3ar  X1vq  1 4.300000e-01    2.920000e+00
 SP3ar  X2vq  1 4.300000e-01    3.160000e+00
 SP3ar  X3vq  1 4.300000e-01    3.380000e+00
 SP3ar  X4vq  1 4.300000e-01    3.380000e+00
 SP3ar  C1vq  1 4.300000e-01    2.320000e+00
 SP3ar  C2vq  1 4.300000e-01    2.530000e+00
 SP3ar  C3vq  1 4.300000e-01    2.530000e+00
 SP3ar  C4vq  1 4.300000e-01    2.920000e+00
 SP3ar  C5vq  1 4.300000e-01    3.160000e+00
 SP3ar  C6vq  1 4.300000e-01    3.380000e+00
 SP2ar  X1vq  1 4.300000e-01    2.920000e+00
 SP2ar  X2vq  1 4.300000e-01    3.160000e+00
 SP2ar  X3vq  1 4.300000e-01    3.380000e+00
 SP2ar  X4vq  1 4.300000e-01    3.380000e+00
 SP2ar  C1vq  1 4.300000e-01    2.530000e+00
 SP2ar  C2vq  1 4.300000e-01    2.770000e+00
 SP2ar  C3vq  1 4.300000e-01    2.770000e+00
 SP2ar  C4vq  1 4.300000e-01    2.920000e+00
 SP2ar  C5vq  1 4.300000e-01    3.160000e+00
 SP2ar  C6vq  1 4.300000e-01    3.380000e+00
 SP1ar  X1vq  1 4.300000e-01    2.920000e+00
 SP1ar  X2vq  1 4.300000e-01    3.160000e+00
 SP1ar  X3vq  1 4.300000e-01    3.380000e+00
 SP1ar  X4vq  1 4.300000e-01    3.380000e+00
 SP1ar  C1vq  1 4.300000e-01    2.530000e+00
 SP1ar  C2vq  1 4.300000e-01    2.770000e+00
 SP1ar  C3vq  1 4.300000e-01    2.770000e+00
 SP1ar  C4vq  1 4.300000e-01    2.920000e+00
 SP1ar  C5vq  1 4.300000e-01    3.160000e+00
 SP1ar  C6vq  1 4.300000e-01    3.380000e+00
 SN6ar  X1vq  1 4.300000e-01    2.920000e+00
 SN6ar  X2vq  1 4.300000e-01    3.160000e+00
 SN6ar  X3vq  1 4.300000e-01    3.380000e+00
 SN6ar  X4vq  1 4.300000e-01    3.590000e+00
 SN6ar  C1vq  1 4.300000e-01    2.770000e+00
 SN6ar  C2vq  1 4.300000e-01    2.920000e+00
 SN6ar  C3vq  1 4.300000e-01    2.920000e+00
 SN6ar  C4vq  1 4.300000e-01    3.160000e+00
 SN6ar  C5vq  1 4.300000e-01    3.380000e+00
 SN6ar  C6vq  1 4.300000e-01    3.590000e+00
 SN5ar  X1vq  1 4.300000e-01    3.160000e+00
 SN5ar  X2vq  1 4.300000e-01    3.380000e+00
 SN5ar  X3vq  1 4.300000e-01    3.590000e+00
 SN5ar  X4vq  1 4.300000e-01    3.770000e+00
 SN5ar  C1vq  1 4.300000e-01    2.770000e+00
 SN5ar  C2vq  1 4.300000e-01    2.920000e+00
 SN5ar  C3vq  1 4.300000e-01    3.160000e+00
 SN5ar  C4vq  1 4.300000e-01    3.160000e+00
 SN5ar  C5vq  1 4.300000e-01    3.380000e+00
 SN5ar  C6vq  1 4.300000e-01    3.590000e+00
 SN4ar  X1vq  1 4.300000e-01    3.160000e+00
 SN4ar  X2vq  1 4.300000e-01    3.380000e+00
 SN4ar  X3vq  1 4.300000e-01    3.770000e+00
 SN4ar  X4vq  1 4.300000e-01    3.970000e+00
 SN4ar  C1vq  1 4.300000e-01    2.770000e+00
 SN4ar  C2vq  1 4.300000e-01    2.920000e+00
 SN4ar  C3vq  1 4.300000e-01    3.160000e+00
 SN4ar  C4vq  1 4.300000e-01    3.380000e+00
 SN4ar  C5vq  1 4.300000e-01    3.380000e+00
 SN4ar  C6vq  1 4.300000e-01    3.590000e+00
 SN3ar  X1vq  1 4.300000e-01    3.380000e+00
 SN3ar  X2vq  1 4.300000e-01    3.380000e+00
 SN3ar  X3vq  1 4.300000e-01    3.590000e+00
 SN3ar  X4vq  1 4.300000e-01    3.770000e+00
 SN3ar  C1vq  1 4.300000e-01    2.920000e+00
 SN3ar  C2vq  1 4.300000e-01    3.160000e+00
 SN3ar  C3vq  1 4.300000e-01    3.160000e+00
 SN3ar  C4vq  1 4.300000e-01    3.380000e+00
 SN3ar  C5vq  1 4.300000e-01    3.380000e+00
 SN3ar  C6vq  1 4.300000e-01    3.590000e+00
 SN2ar  X1vq  1 4.300000e-01    3.380000e+00
 SN2ar  X2vq  1 4.300000e-01    3.380000e+00
 SN2ar  X3vq  1 4.300000e-01    3.590000e+00
 SN2ar  X4vq  1 4.300000e-01    3.770000e+00
 SN2ar  C1vq  1 4.300000e-01    2.920000e+00
 SN2ar  C2vq  1 4.300000e-01    3.160000e+00
 SN2ar  C3vq  1 4.300000e-01    3.380000e+00
 SN2ar  C4vq  1 4.300000e-01    3.380000e+00
 SN2ar  C5vq  1 4.300000e-01    3.380000e+00
 SN2ar  C6vq  1 4.300000e-01    3.590000e+00
 SN1ar  X1vq  1 4.300000e-01    3.380000e+00
 SN1ar  X2vq  1 4.300000e-01    3.380000e+00
 SN1ar  X3vq  1 4.300000e-01    3.590000e+00
 SN1ar  X4vq  1 4.300000e-01    3.590000e+00
 SN1ar  C1vq  1 4.300000e-01    2.920000e+00
 SN1ar  C2vq  1 4.300000e-01    3.160000e+00
 SN1ar  C3vq  1 4.300000e-01    3.380000e+00
 SN1ar  C4vq  1 4.300000e-01    3.590000e+00
 SN1ar  C5vq  1 4.300000e-01    3.590000e+00
 SN1ar  C6vq  1 4.300000e-01    3.770000e+00
  P6ar SC6vh  1 4.300000e-01    2.530000e+00
  P6ar SC5vh  1 4.300000e-01    2.320000e+00
  P6ar SC4vh  1 4.300000e-01    2.160000e+00
  P6ar SC3vh  1 4.300000e-01    1.930000e+00
  P6ar SC2vh  1 4.300000e-01    1.930000e+00
  P6ar SC1vh  1 4.430000e-01    1.480000e+00
  P6ar SX4vh  1 4.300000e-01    2.770000e+00
  P6ar SX3vh  1 4.300000e-01    2.770000e+00
  P6ar SX2vh  1 4.300000e-01    2.530000e+00
  P6ar SX1vh  1 4.300000e-01    2.320000e+00
  P5ar SC6vh  1 4.300000e-01    2.530000e+00
  P5ar SC5vh  1 4.300000e-01    2.530000e+00
  P5ar SC4vh  1 4.300000e-01    2.320000e+00
  P5ar SC3vh  1 4.300000e-01    2.160000e+00
  P5ar SC2vh  1 4.300000e-01    2.160000e+00
  P5ar SC1vh  1 4.300000e-01    1.930000e+00
  P5ar SX4vh  1 4.300000e-01    2.920000e+00
  P5ar SX3vh  1 4.300000e-01    2.770000e+00
  P5ar SX2vh  1 4.300000e-01    2.770000e+00
  P5ar SX1vh  1 4.300000e-01    2.320000e+00
  P4ar SC6vh  1 4.300000e-01    2.770000e+00
  P4ar SC5vh  1 4.300000e-01    2.530000e+00
  P4ar SC4vh  1 4.300000e-01    2.320000e+00
  P4ar SC3vh  1 4.300000e-01    2.160000e+00
  P4ar SC2vh  1 4.300000e-01    2.160000e+00
  P4ar SC1vh  1 4.300000e-01    1.930000e+00
  P4ar SX4vh  1 4.300000e-01    2.920000e+00
  P4ar SX3vh  1 4.300000e-01    2.770000e+00
  P4ar SX2vh  1 4.300000e-01    2.770000e+00
  P4ar SX1vh  1 4.300000e-01    2.530000e+00
  P3ar SC6vh  1 4.300000e-01    2.920000e+00
  P3ar SC5vh  1 4.300000e-01    2.770000e+00
  P3ar SC4vh  1 4.300000e-01    2.530000e+00
  P3ar SC3vh  1 4.300000e-01    2.160000e+00
  P3ar SC2vh  1 4.300000e-01    2.160000e+00
  P3ar SC1vh  1 4.300000e-01    1.930000e+00
  P3ar SX4vh  1 4.300000e-01    2.920000e+00
  P3ar SX3vh  1 4.300000e-01    2.920000e+00
  P3ar SX2vh  1 4.300000e-01    2.770000e+00
  P3ar SX1vh  1 4.300000e-01    2.530000e+00
  P2ar SC6vh  1 4.300000e-01    2.920000e+00
  P2ar SC5vh  1 4.300000e-01    2.770000e+00
  P2ar SC4vh  1 4.300000e-01    2.530000e+00
  P2ar SC3vh  1 4.300000e-01    2.320000e+00
  P2ar SC2vh  1 4.300000e-01    2.320000e+00
  P2ar SC1vh  1 4.300000e-01    2.160000e+00
  P2ar SX4vh  1 4.300000e-01    2.920000e+00
  P2ar SX3vh  1 4.300000e-01    2.920000e+00
  P2ar SX2vh  1 4.300000e-01    2.770000e+00
  P2ar SX1vh  1 4.300000e-01    2.530000e+00
  P1ar SC6vh  1 4.300000e-01    2.920000e+00
  P1ar SC5vh  1 4.300000e-01    2.770000e+00
  P1ar SC4vh  1 4.300000e-01    2.530000e+00
  P1ar SC3vh  1 4.300000e-01    2.320000e+00
  P1ar SC2vh  1 4.300000e-01    2.320000e+00
  P1ar SC1vh  1 4.300000e-01    2.160000e+00
  P1ar SX4vh  1 4.300000e-01    2.920000e+00
  P1ar SX3vh  1 4.300000e-01    2.920000e+00
  P1ar SX2vh  1 4.300000e-01    2.770000e+00
  P1ar SX1vh  1 4.300000e-01    2.530000e+00
  N6ar SC6vh  1 4.300000e-01    3.160000e+00
  N6ar SC5vh  1 4.300000e-01    2.920000e+00
  N6ar SC4vh  1 4.300000e-01    2.770000e+00
  N6ar SC3vh  1 4.300000e-01    2.530000e+00
  N6ar SC2vh  1 4.300000e-01    2.530000e+00
  N6ar SC1vh  1 4.300000e-01    2.320000e+00
  N6ar SX4vh  1 4.300000e-01    3.160000e+00
  N6ar SX3vh  1 4.300000e-01    2.920000e+00
  N6ar SX2vh  1 4.300000e-01    2.770000e+00
  N6ar SX1vh  1 4.300000e-01    2.530000e+00
  N5ar SC6vh  1 4.300000e-01    3.160000e+00
  N5ar SC5vh  1 4.300000e-01    2.920000e+00
  N5ar SC4vh  1 4.300000e-01    2.770000e+00
  N5ar SC3vh  1 4.300000e-01    2.770000e+00
  N5ar SC2vh  1 4.300000e-01    2.530000e+00
  N5ar SC1vh  1 4.300000e-01    2.320000e+00
  N5ar SX4vh  1 4.300000e-01    3.380000e+00
  N5ar SX3vh  1 4.300000e-01    3.160000e+00
  N5ar SX2vh  1 4.300000e-01    2.920000e+00
  N5ar SX1vh  1 4.300000e-01    2.770000e+00
  N4ar SC6vh  1 4.300000e-01    3.160000e+00
  N4ar SC5vh  1 4.300000e-01    2.920000e+00
  N4ar SC4vh  1 4.300000e-01    2.920000e+00
  N4ar SC3vh  1 4.300000e-01    2.770000e+00
  N4ar SC2vh  1 4.300000e-01    2.530000e+00
  N4ar SC1vh  1 4.300000e-01    2.320000e+00
  N4ar SX4vh  1 4.300000e-01    3.590000e+00
  N4ar SX3vh  1 4.300000e-01    3.380000e+00
  N4ar SX2vh  1 4.300000e-01    2.920000e+00
  N4ar SX1vh  1 4.300000e-01    2.770000e+00
  N3ar SC6vh  1 4.300000e-01    3.160000e+00
  N3ar SC5vh  1 4.300000e-01    2.920000e+00
  N3ar SC4vh  1 4.300000e-01    2.920000e+00
  N3ar SC3vh  1 4.300000e-01    2.770000e+00
  N3ar SC2vh  1 4.300000e-01    2.770000e+00
  N3ar SC1vh  1 4.300000e-01    2.530000e+00
  N3ar SX4vh  1 4.300000e-01    3.380000e+00
  N3ar SX3vh  1 4.300000e-01    3.160000e+00
  N3ar SX2vh  1 4.300000e-01    2.920000e+00
  N3ar SX1vh  1 4.300000e-01    2.920000e+00
  N2ar SC6vh  1 4.300000e-01    3.160000e+00
  N2ar SC5vh  1 4.300000e-01    2.920000e+00
  N2ar SC4vh  1 4.300000e-01    2.920000e+00
  N2ar SC3vh  1 4.300000e-01    2.920000e+00
  N2ar SC2vh  1 4.300000e-01    2.770000e+00
  N2ar SC1vh  1 4.300000e-01    2.530000e+00
  N2ar SX4vh  1 4.300000e-01    3.380000e+00
  N2ar SX3vh  1 4.300000e-01    3.160000e+00
  N2ar SX2vh  1 4.300000e-01    2.920000e+00
  N2ar SX1vh  1 4.300000e-01    2.920000e+00
  N1ar SC6vh  1 4.300000e-01    3.380000e+00
  N1ar SC5vh  1 4.300000e-01    3.160000e+00
  N1ar SC4vh  1 4.300000e-01    3.160000e+00
  N1ar SC3vh  1 4.300000e-01    2.920000e+00
  N1ar SC2vh  1 4.300000e-01    2.770000e+00
  N1ar SC1vh  1 4.300000e-01    2.530000e+00
  N1ar SX4vh  1 4.300000e-01    3.160000e+00
  N1ar SX3vh  1 4.300000e-01    3.160000e+00
  N1ar SX2vh  1 4.300000e-01    2.920000e+00
  N1ar SX1vh  1 4.300000e-01    2.920000e+00
 SP6ar  C6vh  1 4.300000e-01    2.530000e+00
 SP6ar  C5vh  1 4.300000e-01    2.320000e+00
 SP6ar  C4vh  1 4.300000e-01    2.160000e+00
 SP6ar  C3vh  1 4.300000e-01    1.930000e+00
 SP6ar  C2vh  1 4.300000e-01    1.930000e+00
 SP6ar  C1vh  1 4.430000e-01    1.480000e+00
 SP6ar  X4vh  1 4.300000e-01    2.770000e+00
 SP6ar  X3vh  1 4.300000e-01    2.770000e+00
 SP6ar  X2vh  1 4.300000e-01    2.530000e+00
 SP6ar  X1vh  1 4.300000e-01    2.320000e+00
 SP5ar  C6vh  1 4.300000e-01    2.530000e+00
 SP5ar  C5vh  1 4.300000e-01    2.530000e+00
 SP5ar  C4vh  1 4.300000e-01    2.320000e+00
 SP5ar  C3vh  1 4.300000e-01    2.160000e+00
 SP5ar  C2vh  1 4.300000e-01    2.160000e+00
 SP5ar  C1vh  1 4.300000e-01    1.930000e+00
 SP5ar  X4vh  1 4.300000e-01    2.920000e+00
 SP5ar  X3vh  1 4.300000e-01    2.770000e+00
 SP5ar  X2vh  1 4.300000e-01    2.770000e+00
 SP5ar  X1vh  1 4.300000e-01    2.320000e+00
 SP4ar  C6vh  1 4.300000e-01    2.770000e+00
 SP4ar  C5vh  1 4.300000e-01    2.530000e+00
 SP4ar  C4vh  1 4.300000e-01    2.320000e+00
 SP4ar  C3vh  1 4.300000e-01    2.160000e+00
 SP4ar  C2vh  1 4.300000e-01    2.160000e+00
 SP4ar  C1vh  1 4.300000e-01    1.930000e+00
 SP4ar  X4vh  1 4.300000e-01    2.920000e+00
 SP4ar  X3vh  1 4.300000e-01    2.770000e+00
 SP4ar  X2vh  1 4.300000e-01    2.770000e+00
 SP4ar  X1vh  1 4.300000e-01    2.530000e+00
 SP3ar  C6vh  1 4.300000e-01    2.920000e+00
 SP3ar  C5vh  1 4.300000e-01    2.770000e+00
 SP3ar  C4vh  1 4.300000e-01    2.530000e+00
 SP3ar  C3vh  1 4.300000e-01    2.160000e+00
 SP3ar  C2vh  1 4.300000e-01    2.160000e+00
 SP3ar  C1vh  1 4.300000e-01    1.930000e+00
 SP3ar  X4vh  1 4.300000e-01    2.920000e+00
 SP3ar  X3vh  1 4.300000e-01    2.920000e+00
 SP3ar  X2vh  1 4.300000e-01    2.770000e+00
 SP3ar  X1vh  1 4.300000e-01    2.530000e+00
 SP2ar  C6vh  1 4.300000e-01    2.920000e+00
 SP2ar  C5vh  1 4.300000e-01    2.770000e+00
 SP2ar  C4vh  1 4.300000e-01    2.530000e+00
 SP2ar  C3vh  1 4.300000e-01    2.320000e+00
 SP2ar  C2vh  1 4.300000e-01    2.320000e+00
 SP2ar  C1vh  1 4.300000e-01    2.160000e+00
 SP2ar  X4vh  1 4.300000e-01    2.920000e+00
 SP2ar  X3vh  1 4.300000e-01    2.920000e+00
 SP2ar  X2vh  1 4.300000e-01    2.770000e+00
 SP2ar  X1vh  1 4.300000e-01    2.530000e+00
 SP1ar  C6vh  1 4.300000e-01    2.920000e+00
 SP1ar  C5vh  1 4.300000e-01    2.770000e+00
 SP1ar  C4vh  1 4.300000e-01    2.530000e+00
 SP1ar  C3vh  1 4.300000e-01    2.320000e+00
 SP1ar  C2vh  1 4.300000e-01    2.320000e+00
 SP1ar  C1vh  1 4.300000e-01    2.160000e+00
 SP1ar  X4vh  1 4.300000e-01    2.920000e+00
 SP1ar  X3vh  1 4.300000e-01    2.920000e+00
 SP1ar  X2vh  1 4.300000e-01    2.770000e+00
 SP1ar  X1vh  1 4.300000e-01    2.530000e+00
 SN6ar  C6vh  1 4.300000e-01    3.160000e+00
 SN6ar  C5vh  1 4.300000e-01    2.920000e+00
 SN6ar  C4vh  1 4.300000e-01    2.770000e+00
 SN6ar  C3vh  1 4.300000e-01    2.530000e+00
 SN6ar  C2vh  1 4.300000e-01    2.530000e+00
 SN6ar  C1vh  1 4.300000e-01    2.320000e+00
 SN6ar  X4vh  1 4.300000e-01    3.160000e+00
 SN6ar  X3vh  1 4.300000e-01    2.920000e+00
 SN6ar  X2vh  1 4.300000e-01    2.770000e+00
 SN6ar  X1vh  1 4.300000e-01    2.530000e+00
 SN5ar  C6vh  1 4.300000e-01    3.160000e+00
 SN5ar  C5vh  1 4.300000e-01    2.920000e+00
 SN5ar  C4vh  1 4.300000e-01    2.770000e+00
 SN5ar  C3vh  1 4.300000e-01    2.770000e+00
 SN5ar  C2vh  1 4.300000e-01    2.530000e+00
 SN5ar  C1vh  1 4.300000e-01    2.320000e+00
 SN5ar  X4vh  1 4.300000e-01    3.380000e+00
 SN5ar  X3vh  1 4.300000e-01    3.160000e+00
 SN5ar  X2vh  1 4.300000e-01    2.920000e+00
 SN5ar  X1vh  1 4.300000e-01    2.770000e+00
 SN4ar  C6vh  1 4.300000e-01    3.160000e+00
 SN4ar  C5vh  1 4.300000e-01    2.920000e+00
 SN4ar  C4vh  1 4.300000e-01    2.920000e+00
 SN4ar  C3vh  1 4.300000e-01    2.770000e+00
 SN4ar  C2vh  1 4.300000e-01    2.530000e+00
 SN4ar  C1vh  1 4.300000e-01    2.320000e+00
 SN4ar  X4vh  1 4.300000e-01    3.590000e+00
 SN4ar  X3vh  1 4.300000e-01    3.380000e+00
 SN4ar  X2vh  1 4.300000e-01    2.920000e+00
 SN4ar  X1vh  1 4.300000e-01    2.770000e+00
 SN3ar  C6vh  1 4.300000e-01    3.160000e+00
 SN3ar  C5vh  1 4.300000e-01    2.920000e+00
 SN3ar  C4vh  1 4.300000e-01    2.920000e+00
 SN3ar  C3vh  1 4.300000e-01    2.770000e+00
 SN3ar  C2vh  1 4.300000e-01    2.770000e+00
 SN3ar  C1vh  1 4.300000e-01    2.530000e+00
 SN3ar  X4vh  1 4.300000e-01    3.380000e+00
 SN3ar  X3vh  1 4.300000e-01    3.160000e+00
 SN3ar  X2vh  1 4.300000e-01    2.920000e+00
 SN3ar  X1vh  1 4.300000e-01    2.920000e+00
 SN2ar  C6vh  1 4.300000e-01    3.160000e+00
 SN2ar  C5vh  1 4.300000e-01    2.920000e+00
 SN2ar  C4vh  1 4.300000e-01    2.920000e+00
 SN2ar  C3vh  1 4.300000e-01    2.920000e+00
 SN2ar  C2vh  1 4.300000e-01    2.770000e+00
 SN2ar  C1vh  1 4.300000e-01    2.530000e+00
 SN2ar  X4vh  1 4.300000e-01    3.380000e+00
 SN2ar  X3vh  1 4.300000e-01    3.160000e+00
 SN2ar  X2vh  1 4.300000e-01    2.920000e+00
 SN2ar  X1vh  1 4.300000e-01    2.920000e+00
 SN1ar  C6vh  1 4.300000e-01    3.380000e+00
 SN1ar  C5vh  1 4.300000e-01    3.160000e+00
 SN1ar  C4vh  1 4.300000e-01    3.160000e+00
 SN1ar  C3vh  1 4.300000e-01    2.920000e+00
 SN1ar  C2vh  1 4.300000e-01    2.770000e+00
 SN1ar  C1vh  1 4.300000e-01    2.530000e+00
 SN1ar  X4vh  1 4.300000e-01    3.160000e+00
 SN1ar  X3vh  1 4.300000e-01    3.160000e+00
 SN1ar  X2vh  1 4.300000e-01    2.920000e+00
 SN1ar  X1vh  1 4.300000e-01    2.920000e+00
  P6ar SC6vr  1 4.300000e-01    2.530000e+00
  P6ar SC5vr  1 4.300000e-01    2.320000e+00
  P6ar SC4vr  1 4.300000e-01    2.160000e+00
  P6ar SC3vr  1 4.300000e-01    1.930000e+00
  P6ar SC2vr  1 4.300000e-01    1.930000e+00
  P6ar SC1vr  1 4.430000e-01    1.480000e+00
  P6ar SX4vr  1 4.300000e-01    2.770000e+00
  P6ar SX3vr  1 4.300000e-01    2.770000e+00
  P6ar SX2vr  1 4.300000e-01    2.530000e+00
  P6ar SX1vr  1 4.300000e-01    2.320000e+00
  P5ar SC6vr  1 4.300000e-01    2.530000e+00
  P5ar SC5vr  1 4.300000e-01    2.530000e+00
  P5ar SC4vr  1 4.300000e-01    2.320000e+00
  P5ar SC3vr  1 4.300000e-01    2.160000e+00
  P5ar SC2vr  1 4.300000e-01    2.160000e+00
  P5ar SC1vr  1 4.300000e-01    1.930000e+00
  P5ar SX4vr  1 4.300000e-01    2.920000e+00
  P5ar SX3vr  1 4.300000e-01    2.770000e+00
  P5ar SX2vr  1 4.300000e-01    2.770000e+00
  P5ar SX1vr  1 4.300000e-01    2.320000e+00
  P4ar SC6vr  1 4.300000e-01    2.770000e+00
  P4ar SC5vr  1 4.300000e-01    2.530000e+00
  P4ar SC4vr  1 4.300000e-01    2.320000e+00
  P4ar SC3vr  1 4.300000e-01    2.160000e+00
  P4ar SC2vr  1 4.300000e-01    2.160000e+00
  P4ar SC1vr  1 4.300000e-01    1.930000e+00
  P4ar SX4vr  1 4.300000e-01    2.920000e+00
  P4ar SX3vr  1 4.300000e-01    2.770000e+00
  P4ar SX2vr  1 4.300000e-01    2.770000e+00
  P4ar SX1vr  1 4.300000e-01    2.530000e+00
  P3ar SC6vr  1 4.300000e-01    2.920000e+00
  P3ar SC5vr  1 4.300000e-01    2.770000e+00
  P3ar SC4vr  1 4.300000e-01    2.530000e+00
  P3ar SC3vr  1 4.300000e-01    2.160000e+00
  P3ar SC2vr  1 4.300000e-01    2.160000e+00
  P3ar SC1vr  1 4.300000e-01    1.930000e+00
  P3ar SX4vr  1 4.300000e-01    2.920000e+00
  P3ar SX3vr  1 4.300000e-01    2.920000e+00
  P3ar SX2vr  1 4.300000e-01    2.770000e+00
  P3ar SX1vr  1 4.300000e-01    2.530000e+00
  P2ar SC6vr  1 4.300000e-01    2.920000e+00
  P2ar SC5vr  1 4.300000e-01    2.770000e+00
  P2ar SC4vr  1 4.300000e-01    2.530000e+00
  P2ar SC3vr  1 4.300000e-01    2.320000e+00
  P2ar SC2vr  1 4.300000e-01    2.320000e+00
  P2ar SC1vr  1 4.300000e-01    2.160000e+00
  P2ar SX4vr  1 4.300000e-01    2.920000e+00
  P2ar SX3vr  1 4.300000e-01    2.920000e+00
  P2ar SX2vr  1 4.300000e-01    2.770000e+00
  P2ar SX1vr  1 4.300000e-01    2.530000e+00
  P1ar SC6vr  1 4.300000e-01    2.920000e+00
  P1ar SC5vr  1 4.300000e-01    2.770000e+00
  P1ar SC4vr  1 4.300000e-01    2.530000e+00
  P1ar SC3vr  1 4.300000e-01    2.320000e+00
  P1ar SC2vr  1 4.300000e-01    2.320000e+00
  P1ar SC1vr  1 4.300000e-01    2.160000e+00
  P1ar SX4vr  1 4.300000e-01    2.920000e+00
  P1ar SX3vr  1 4.300000e-01    2.920000e+00
  P1ar SX2vr  1 4.300000e-01    2.770000e+00
  P1ar SX1vr  1 4.300000e-01    2.530000e+00
  N6ar SC6vr  1 4.300000e-01    3.160000e+00
  N6ar SC5vr  1 4.300000e-01    2.920000e+00
  N6ar SC4vr  1 4.300000e-01    2.770000e+00
  N6ar SC3vr  1 4.300000e-01    2.530000e+00
  N6ar SC2vr  1 4.300000e-01    2.530000e+00
  N6ar SC1vr  1 4.300000e-01    2.320000e+00
  N6ar SX4vr  1 4.300000e-01    3.160000e+00
  N6ar SX3vr  1 4.300000e-01    2.920000e+00
  N6ar SX2vr  1 4.300000e-01    2.770000e+00
  N6ar SX1vr  1 4.300000e-01    2.530000e+00
  N5ar SC6vr  1 4.300000e-01    3.160000e+00
  N5ar SC5vr  1 4.300000e-01    2.920000e+00
  N5ar SC4vr  1 4.300000e-01    2.770000e+00
  N5ar SC3vr  1 4.300000e-01    2.770000e+00
  N5ar SC2vr  1 4.300000e-01    2.530000e+00
  N5ar SC1vr  1 4.300000e-01    2.320000e+00
  N5ar SX4vr  1 4.300000e-01    3.380000e+00
  N5ar SX3vr  1 4.300000e-01    3.160000e+00
  N5ar SX2vr  1 4.300000e-01    2.920000e+00
  N5ar SX1vr  1 4.300000e-01    2.770000e+00
  N4ar SC6vr  1 4.300000e-01    3.160000e+00
  N4ar SC5vr  1 4.300000e-01    2.920000e+00
  N4ar SC4vr  1 4.300000e-01    2.920000e+00
  N4ar SC3vr  1 4.300000e-01    2.770000e+00
  N4ar SC2vr  1 4.300000e-01    2.530000e+00
  N4ar SC1vr  1 4.300000e-01    2.320000e+00
  N4ar SX4vr  1 4.300000e-01    3.590000e+00
  N4ar SX3vr  1 4.300000e-01    3.380000e+00
  N4ar SX2vr  1 4.300000e-01    2.920000e+00
  N4ar SX1vr  1 4.300000e-01    2.770000e+00
  N3ar SC6vr  1 4.300000e-01    3.160000e+00
  N3ar SC5vr  1 4.300000e-01    2.920000e+00
  N3ar SC4vr  1 4.300000e-01    2.920000e+00
  N3ar SC3vr  1 4.300000e-01    2.770000e+00
  N3ar SC2vr  1 4.300000e-01    2.770000e+00
  N3ar SC1vr  1 4.300000e-01    2.530000e+00
  N3ar SX4vr  1 4.300000e-01    3.380000e+00
  N3ar SX3vr  1 4.300000e-01    3.160000e+00
  N3ar SX2vr  1 4.300000e-01    2.920000e+00
  N3ar SX1vr  1 4.300000e-01    2.920000e+00
  N2ar SC6vr  1 4.300000e-01    3.160000e+00
  N2ar SC5vr  1 4.300000e-01    2.920000e+00
  N2ar SC4vr  1 4.300000e-01    2.920000e+00
  N2ar SC3vr  1 4.300000e-01    2.920000e+00
  N2ar SC2vr  1 4.300000e-01    2.770000e+00
  N2ar SC1vr  1 4.300000e-01    2.530000e+00
  N2ar SX4vr  1 4.300000e-01    3.380000e+00
  N2ar SX3vr  1 4.300000e-01    3.160000e+00
  N2ar SX2vr  1 4.300000e-01    2.920000e+00
  N2ar SX1vr  1 4.300000e-01    2.920000e+00
  N1ar SC6vr  1 4.300000e-01    3.380000e+00
  N1ar SC5vr  1 4.300000e-01    3.160000e+00
  N1ar SC4vr  1 4.300000e-01    3.160000e+00
  N1ar SC3vr  1 4.300000e-01    2.920000e+00
  N1ar SC2vr  1 4.300000e-01    2.770000e+00
  N1ar SC1vr  1 4.300000e-01    2.530000e+00
  N1ar SX4vr  1 4.300000e-01    3.160000e+00
  N1ar SX3vr  1 4.300000e-01    3.160000e+00
  N1ar SX2vr  1 4.300000e-01    2.920000e+00
  N1ar SX1vr  1 4.300000e-01    2.920000e+00
 SP6ar  C6vr  1 4.300000e-01    2.530000e+00
 SP6ar  C5vr  1 4.300000e-01    2.320000e+00
 SP6ar  C4vr  1 4.300000e-01    2.160000e+00
 SP6ar  C3vr  1 4.300000e-01    1.930000e+00
 SP6ar  C2vr  1 4.300000e-01    1.930000e+00
 SP6ar  C1vr  1 4.430000e-01    1.480000e+00
 SP6ar  X4vr  1 4.300000e-01    2.770000e+00
 SP6ar  X3vr  1 4.300000e-01    2.770000e+00
 SP6ar  X2vr  1 4.300000e-01    2.530000e+00
 SP6ar  X1vr  1 4.300000e-01    2.320000e+00
 SP5ar  C6vr  1 4.300000e-01    2.530000e+00
 SP5ar  C5vr  1 4.300000e-01    2.530000e+00
 SP5ar  C4vr  1 4.300000e-01    2.320000e+00
 SP5ar  C3vr  1 4.300000e-01    2.160000e+00
 SP5ar  C2vr  1 4.300000e-01    2.160000e+00
 SP5ar  C1vr  1 4.300000e-01    1.930000e+00
 SP5ar  X4vr  1 4.300000e-01    2.920000e+00
 SP5ar  X3vr  1 4.300000e-01    2.770000e+00
 SP5ar  X2vr  1 4.300000e-01    2.770000e+00
 SP5ar  X1vr  1 4.300000e-01    2.320000e+00
 SP4ar  C6vr  1 4.300000e-01    2.770000e+00
 SP4ar  C5vr  1 4.300000e-01    2.530000e+00
 SP4ar  C4vr  1 4.300000e-01    2.320000e+00
 SP4ar  C3vr  1 4.300000e-01    2.160000e+00
 SP4ar  C2vr  1 4.300000e-01    2.160000e+00
 SP4ar  C1vr  1 4.300000e-01    1.930000e+00
 SP4ar  X4vr  1 4.300000e-01    2.920000e+00
 SP4ar  X3vr  1 4.300000e-01    2.770000e+00
 SP4ar  X2vr  1 4.300000e-01    2.770000e+00
 SP4ar  X1vr  1 4.300000e-01    2.530000e+00
 SP3ar  C6vr  1 4.300000e-01    2.920000e+00
 SP3ar  C5vr  1 4.300000e-01    2.770000e+00
 SP3ar  C4vr  1 4.300000e-01    2.530000e+00
 SP3ar  C3vr  1 4.300000e-01    2.160000e+00
 SP3ar  C2vr  1 4.300000e-01    2.160000e+00
 SP3ar  C1vr  1 4.300000e-01    1.930000e+00
 SP3ar  X4vr  1 4.300000e-01    2.920000e+00
 SP3ar  X3vr  1 4.300000e-01    2.920000e+00
 SP3ar  X2vr  1 4.300000e-01    2.770000e+00
 SP3ar  X1vr  1 4.300000e-01    2.530000e+00
 SP2ar  C6vr  1 4.300000e-01    2.920000e+00
 SP2ar  C5vr  1 4.300000e-01    2.770000e+00
 SP2ar  C4vr  1 4.300000e-01    2.530000e+00
 SP2ar  C3vr  1 4.300000e-01    2.320000e+00
 SP2ar  C2vr  1 4.300000e-01    2.320000e+00
 SP2ar  C1vr  1 4.300000e-01    2.160000e+00
 SP2ar  X4vr  1 4.300000e-01    2.920000e+00
 SP2ar  X3vr  1 4.300000e-01    2.920000e+00
 SP2ar  X2vr  1 4.300000e-01    2.770000e+00
 SP2ar  X1vr  1 4.300000e-01    2.530000e+00
 SP1ar  C6vr  1 4.300000e-01    2.920000e+00
 SP1ar  C5vr  1 4.300000e-01    2.770000e+00
 SP1ar  C4vr  1 4.300000e-01    2.530000e+00
 SP1ar  C3vr  1 4.300000e-01    2.320000e+00
 SP1ar  C2vr  1 4.300000e-01    2.320000e+00
 SP1ar  C1vr  1 4.300000e-01    2.160000e+00
 SP1ar  X4vr  1 4.300000e-01    2.920000e+00
 SP1ar  X3vr  1 4.300000e-01    2.920000e+00
 SP1ar  X2vr  1 4.300000e-01    2.770000e+00
 SP1ar  X1vr  1 4.300000e-01    2.530000e+00
 SN6ar  C6vr  1 4.300000e-01    3.160000e+00
 SN6ar  C5vr  1 4.300000e-01    2.920000e+00
 SN6ar  C4vr  1 4.300000e-01    2.770000e+00
 SN6ar  C3vr  1 4.300000e-01    2.530000e+00
 SN6ar  C2vr  1 4.300000e-01    2.530000e+00
 SN6ar  C1vr  1 4.300000e-01    2.320000e+00
 SN6ar  X4vr  1 4.300000e-01    3.160000e+00
 SN6ar  X3vr  1 4.300000e-01    2.920000e+00
 SN6ar  X2vr  1 4.300000e-01    2.770000e+00
 SN6ar  X1vr  1 4.300000e-01    2.530000e+00
 SN5ar  C6vr  1 4.300000e-01    3.160000e+00
 SN5ar  C5vr  1 4.300000e-01    2.920000e+00
 SN5ar  C4vr  1 4.300000e-01    2.770000e+00
 SN5ar  C3vr  1 4.300000e-01    2.770000e+00
 SN5ar  C2vr  1 4.300000e-01    2.530000e+00
 SN5ar  C1vr  1 4.300000e-01    2.320000e+00
 SN5ar  X4vr  1 4.300000e-01    3.380000e+00
 SN5ar  X3vr  1 4.300000e-01    3.160000e+00
 SN5ar  X2vr  1 4.300000e-01    2.920000e+00
 SN5ar  X1vr  1 4.300000e-01    2.770000e+00
 SN4ar  C6vr  1 4.300000e-01    3.160000e+00
 SN4ar  C5vr  1 4.300000e-01    2.920000e+00
 SN4ar  C4vr  1 4.300000e-01    2.920000e+00
 SN4ar  C3vr  1 4.300000e-01    2.770000e+00
 SN4ar  C2vr  1 4.300000e-01    2.530000e+00
 SN4ar  C1vr  1 4.300000e-01    2.320000e+00
 SN4ar  X4vr  1 4.300000e-01    3.590000e+00
 SN4ar  X3vr  1 4.300000e-01    3.380000e+00
 SN4ar  X2vr  1 4.300000e-01    2.920000e+00
 SN4ar  X1vr  1 4.300000e-01    2.770000e+00
 SN3ar  C6vr  1 4.300000e-01    3.160000e+00
 SN3ar  C5vr  1 4.300000e-01    2.920000e+00
 SN3ar  C4vr  1 4.300000e-01    2.920000e+00
 SN3ar  C3vr  1 4.300000e-01    2.770000e+00
 SN3ar  C2vr  1 4.300000e-01    2.770000e+00
 SN3ar  C1vr  1 4.300000e-01    2.530000e+00
 SN3ar  X4vr  1 4.300000e-01    3.380000e+00
 SN3ar  X3vr  1 4.300000e-01    3.160000e+00
 SN3ar  X2vr  1 4.300000e-01    2.920000e+00
 SN3ar  X1vr  1 4.300000e-01    2.920000e+00
 SN2ar  C6vr  1 4.300000e-01    3.160000e+00
 SN2ar  C5vr  1 4.300000e-01    2.920000e+00
 SN2ar  C4vr  1 4.300000e-01    2.920000e+00
 SN2ar  C3vr  1 4.300000e-01    2.920000e+00
 SN2ar  C2vr  1 4.300000e-01    2.770000e+00
 SN2ar  C1vr  1 4.300000e-01    2.530000e+00
 SN2ar  X4vr  1 4.300000e-01    3.380000e+00
 SN2ar  X3vr  1 4.300000e-01    3.160000e+00
 SN2ar  X2vr  1 4.300000e-01    2.920000e+00
 SN2ar  X1vr  1 4.300000e-01    2.920000e+00
 SN1ar  C6vr  1 4.300000e-01    3.380000e+00
 SN1ar  C5vr  1 4.300000e-01    3.160000e+00
 SN1ar  C4vr  1 4.300000e-01    3.160000e+00
 SN1ar  C3vr  1 4.300000e-01    2.920000e+00
 SN1ar  C2vr  1 4.300000e-01    2.770000e+00
 SN1ar  C1vr  1 4.300000e-01    2.530000e+00
 SN1ar  X4vr  1 4.300000e-01    3.160000e+00
 SN1ar  X3vr  1 4.300000e-01    3.160000e+00
 SN1ar  X2vr  1 4.300000e-01    2.920000e+00
 SN1ar  X1vr  1 4.300000e-01    2.920000e+00
   P6d  SC6v  1 4.300000e-01    1.930000e+00
   P6d  SC5v  1 4.300000e-01    1.730000e+00
   P6d  SC4v  1 4.430000e-01    1.480000e+00
   P6d  SC3v  1 4.730000e-01    1.280000e+00
   P6d  SC2v  1 4.730000e-01    1.280000e+00
   P6d  SC1v  1 5.140000e-01    1.110000e+00
   P6d  SX4v  1 4.300000e-01    2.160000e+00
   P6d  SX3v  1 4.300000e-01    2.160000e+00
   P6d  SX2v  1 4.300000e-01    1.930000e+00
   P6d  SX1v  1 4.300000e-01    1.730000e+00
   P5d  SC6v  1 4.300000e-01    1.930000e+00
   P5d  SC5v  1 4.300000e-01    1.930000e+00
   P5d  SC4v  1 4.300000e-01    1.730000e+00
   P5d  SC3v  1 4.430000e-01    1.480000e+00
   P5d  SC2v  1 4.430000e-01    1.480000e+00
   P5d  SC1v  1 4.730000e-01    1.280000e+00
   P5d  SX4v  1 4.300000e-01    2.320000e+00
   P5d  SX3v  1 4.300000e-01    2.160000e+00
   P5d  SX2v  1 4.300000e-01    2.160000e+00
   P5d  SX1v  1 4.300000e-01    1.730000e+00
   P4d  SC6v  1 4.300000e-01    2.160000e+00
   P4d  SC5v  1 4.300000e-01    1.930000e+00
   P4d  SC4v  1 4.300000e-01    1.730000e+00
   P4d  SC3v  1 4.430000e-01    1.480000e+00
   P4d  SC2v  1 4.430000e-01    1.480000e+00
   P4d  SC1v  1 4.730000e-01    1.280000e+00
   P4d  SX4v  1 4.300000e-01    2.320000e+00
   P4d  SX3v  1 4.300000e-01    2.160000e+00
   P4d  SX2v  1 4.300000e-01    2.160000e+00
   P4d  SX1v  1 4.300000e-01    1.930000e+00
   P3d  SC6v  1 4.300000e-01    2.320000e+00
   P3d  SC5v  1 4.300000e-01    2.160000e+00
   P3d  SC4v  1 4.300000e-01    1.930000e+00
   P3d  SC3v  1 4.430000e-01    1.480000e+00
   P3d  SC2v  1 4.430000e-01    1.480000e+00
   P3d  SC1v  1 4.730000e-01    1.280000e+00
   P3d  SX4v  1 4.300000e-01    2.320000e+00
   P3d  SX3v  1 4.300000e-01    2.320000e+00
   P3d  SX2v  1 4.300000e-01    2.160000e+00
   P3d  SX1v  1 4.300000e-01    1.930000e+00
   P2d  SC6v  1 4.300000e-01    2.320000e+00
   P2d  SC5v  1 4.300000e-01    2.160000e+00
   P2d  SC4v  1 4.300000e-01    1.930000e+00
   P2d  SC3v  1 4.300000e-01    1.730000e+00
   P2d  SC2v  1 4.300000e-01    1.730000e+00
   P2d  SC1v  1 4.430000e-01    1.480000e+00
   P2d  SX4v  1 4.300000e-01    2.320000e+00
   P2d  SX3v  1 4.300000e-01    2.320000e+00
   P2d  SX2v  1 4.300000e-01    2.160000e+00
   P2d  SX1v  1 4.300000e-01    1.930000e+00
   P1d  SC6v  1 4.300000e-01    2.320000e+00
   P1d  SC5v  1 4.300000e-01    2.160000e+00
   P1d  SC4v  1 4.300000e-01    1.930000e+00
   P1d  SC3v  1 4.300000e-01    1.730000e+00
   P1d  SC2v  1 4.300000e-01    1.730000e+00
   P1d  SC1v  1 4.430000e-01    1.480000e+00
   P1d  SX4v  1 4.300000e-01    2.320000e+00
   P1d  SX3v  1 4.300000e-01    2.320000e+00
   P1d  SX2v  1 4.300000e-01    2.160000e+00
   P1d  SX1v  1 4.300000e-01    1.930000e+00
   N6d  SC6v  1 4.300000e-01    2.530000e+00
   N6d  SC5v  1 4.300000e-01    2.320000e+00
   N6d  SC4v  1 4.300000e-01    2.160000e+00
   N6d  SC3v  1 4.300000e-01    1.930000e+00
   N6d  SC2v  1 4.300000e-01    1.930000e+00
   N6d  SC1v  1 4.300000e-01    1.730000e+00
   N6d  SX4v  1 4.300000e-01    2.530000e+00
   N6d  SX3v  1 4.300000e-01    2.320000e+00
   N6d  SX2v  1 4.300000e-01    2.160000e+00
   N6d  SX1v  1 4.300000e-01    1.930000e+00
   N5d  SC6v  1 4.300000e-01    2.530000e+00
   N5d  SC5v  1 4.300000e-01    2.320000e+00
   N5d  SC4v  1 4.300000e-01    2.160000e+00
   N5d  SC3v  1 4.300000e-01    2.160000e+00
   N5d  SC2v  1 4.300000e-01    1.930000e+00
   N5d  SC1v  1 4.300000e-01    1.730000e+00
   N5d  SX4v  1 4.300000e-01    2.920000e+00
   N5d  SX3v  1 4.300000e-01    2.530000e+00
   N5d  SX2v  1 4.300000e-01    2.320000e+00
   N5d  SX1v  1 4.300000e-01    2.160000e+00
   N4d  SC6v  1 4.300000e-01    2.530000e+00
   N4d  SC5v  1 4.300000e-01    2.320000e+00
   N4d  SC4v  1 4.300000e-01    2.320000e+00
   N4d  SC3v  1 4.300000e-01    2.160000e+00
   N4d  SC2v  1 4.300000e-01    1.930000e+00
   N4d  SC1v  1 4.300000e-01    1.730000e+00
   N4d  SX4v  1 4.300000e-01    2.930000e+00
   N4d  SX3v  1 4.300000e-01    2.920000e+00
   N4d  SX2v  1 4.300000e-01    2.320000e+00
   N4d  SX1v  1 4.300000e-01    2.160000e+00
   N3d  SC6v  1 4.300000e-01    2.530000e+00
   N3d  SC5v  1 4.300000e-01    2.320000e+00
   N3d  SC4v  1 4.300000e-01    2.320000e+00
   N3d  SC3v  1 4.300000e-01    2.160000e+00
   N3d  SC2v  1 4.300000e-01    2.160000e+00
   N3d  SC1v  1 4.300000e-01    1.930000e+00
   N3d  SX4v  1 4.300000e-01    2.920000e+00
   N3d  SX3v  1 4.300000e-01    2.530000e+00
   N3d  SX2v  1 4.300000e-01    2.320000e+00
   N3d  SX1v  1 4.300000e-01    2.320000e+00
   N2d  SC6v  1 4.300000e-01    2.530000e+00
   N2d  SC5v  1 4.300000e-01    2.320000e+00
   N2d  SC4v  1 4.300000e-01    2.320000e+00
   N2d  SC3v  1 4.300000e-01    2.320000e+00
   N2d  SC2v  1 4.300000e-01    2.160000e+00
   N2d  SC1v  1 4.300000e-01    1.930000e+00
   N2d  SX4v  1 4.300000e-01    2.920000e+00
   N2d  SX3v  1 4.300000e-01    2.530000e+00
   N2d  SX2v  1 4.300000e-01    2.320000e+00
   N2d  SX1v  1 4.300000e-01    2.320000e+00
   N1d  SC6v  1 4.300000e-01    2.920000e+00
   N1d  SC5v  1 4.300000e-01    2.530000e+00
   N1d  SC4v  1 4.300000e-01    2.530000e+00
   N1d  SC3v  1 4.300000e-01    2.320000e+00
   N1d  SC2v  1 4.300000e-01    2.160000e+00
   N1d  SC1v  1 4.300000e-01    1.930000e+00
   N1d  SX4v  1 4.300000e-01    2.530000e+00
   N1d  SX3v  1 4.300000e-01    2.530000e+00
   N1d  SX2v  1 4.300000e-01    2.320000e+00
   N1d  SX1v  1 4.300000e-01    2.320000e+00
  SP6d   C6v  1 4.300000e-01    1.930000e+00
  SP6d   C5v  1 4.300000e-01    1.730000e+00
  SP6d   C4v  1 4.430000e-01    1.480000e+00
  SP6d   C3v  1 4.730000e-01    1.280000e+00
  SP6d   C2v  1 4.730000e-01    1.280000e+00
  SP6d   C1v  1 5.140000e-01    1.110000e+00
  SP6d   X4v  1 4.300000e-01    2.160000e+00
  SP6d   X3v  1 4.300000e-01    2.160000e+00
  SP6d   X2v  1 4.300000e-01    1.930000e+00
  SP6d   X1v  1 4.300000e-01    1.730000e+00
  SP5d   C6v  1 4.300000e-01    1.930000e+00
  SP5d   C5v  1 4.300000e-01    1.930000e+00
  SP5d   C4v  1 4.300000e-01    1.730000e+00
  SP5d   C3v  1 4.430000e-01    1.480000e+00
  SP5d   C2v  1 4.430000e-01    1.480000e+00
  SP5d   C1v  1 4.730000e-01    1.280000e+00
  SP5d   X4v  1 4.300000e-01    2.320000e+00
  SP5d   X3v  1 4.300000e-01    2.160000e+00
  SP5d   X2v  1 4.300000e-01    2.160000e+00
  SP5d   X1v  1 4.300000e-01    1.730000e+00
  SP4d   C6v  1 4.300000e-01    2.160000e+00
  SP4d   C5v  1 4.300000e-01    1.930000e+00
  SP4d   C4v  1 4.300000e-01    1.730000e+00
  SP4d   C3v  1 4.430000e-01    1.480000e+00
  SP4d   C2v  1 4.430000e-01    1.480000e+00
  SP4d   C1v  1 4.730000e-01    1.280000e+00
  SP4d   X4v  1 4.300000e-01    2.320000e+00
  SP4d   X3v  1 4.300000e-01    2.160000e+00
  SP4d   X2v  1 4.300000e-01    2.160000e+00
  SP4d   X1v  1 4.300000e-01    1.930000e+00
  SP3d   C6v  1 4.300000e-01    2.320000e+00
  SP3d   C5v  1 4.300000e-01    2.160000e+00
  SP3d   C4v  1 4.300000e-01    1.930000e+00
  SP3d   C3v  1 4.430000e-01    1.480000e+00
  SP3d   C2v  1 4.430000e-01    1.480000e+00
  SP3d   C1v  1 4.730000e-01    1.280000e+00
  SP3d   X4v  1 4.300000e-01    2.320000e+00
  SP3d   X3v  1 4.300000e-01    2.320000e+00
  SP3d   X2v  1 4.300000e-01    2.160000e+00
  SP3d   X1v  1 4.300000e-01    1.930000e+00
  SP2d   C6v  1 4.300000e-01    2.320000e+00
  SP2d   C5v  1 4.300000e-01    2.160000e+00
  SP2d   C4v  1 4.300000e-01    1.930000e+00
  SP2d   C3v  1 4.300000e-01    1.730000e+00
  SP2d   C2v  1 4.300000e-01    1.730000e+00
  SP2d   C1v  1 4.430000e-01    1.480000e+00
  SP2d   X4v  1 4.300000e-01    2.320000e+00
  SP2d   X3v  1 4.300000e-01    2.320000e+00
  SP2d   X2v  1 4.300000e-01    2.160000e+00
  SP2d   X1v  1 4.300000e-01    1.930000e+00
  SP1d   C6v  1 4.300000e-01    2.320000e+00
  SP1d   C5v  1 4.300000e-01    2.160000e+00
  SP1d   C4v  1 4.300000e-01    1.930000e+00
  SP1d   C3v  1 4.300000e-01    1.730000e+00
  SP1d   C2v  1 4.300000e-01    1.730000e+00
  SP1d   C1v  1 4.430000e-01    1.480000e+00
  SP1d   X4v  1 4.300000e-01    2.320000e+00
  SP1d   X3v  1 4.300000e-01    2.320000e+00
  SP1d   X2v  1 4.300000e-01    2.160000e+00
  SP1d   X1v  1 4.300000e-01    1.930000e+00
  SN6d   C6v  1 4.300000e-01    2.530000e+00
  SN6d   C5v  1 4.300000e-01    2.320000e+00
  SN6d   C4v  1 4.300000e-01    2.160000e+00
  SN6d   C3v  1 4.300000e-01    1.930000e+00
  SN6d   C2v  1 4.300000e-01    1.930000e+00
  SN6d   C1v  1 4.300000e-01    1.730000e+00
  SN6d   X4v  1 4.300000e-01    2.530000e+00
  SN6d   X3v  1 4.300000e-01    2.320000e+00
  SN6d   X2v  1 4.300000e-01    2.160000e+00
  SN6d   X1v  1 4.300000e-01    1.930000e+00
  SN5d   C6v  1 4.300000e-01    2.530000e+00
  SN5d   C5v  1 4.300000e-01    2.320000e+00
  SN5d   C4v  1 4.300000e-01    2.160000e+00
  SN5d   C3v  1 4.300000e-01    2.160000e+00
  SN5d   C2v  1 4.300000e-01    1.930000e+00
  SN5d   C1v  1 4.300000e-01    1.730000e+00
  SN5d   X4v  1 4.300000e-01    2.920000e+00
  SN5d   X3v  1 4.300000e-01    2.530000e+00
  SN5d   X2v  1 4.300000e-01    2.320000e+00
  SN5d   X1v  1 4.300000e-01    2.160000e+00
  SN4d   C6v  1 4.300000e-01    2.530000e+00
  SN4d   C5v  1 4.300000e-01    2.320000e+00
  SN4d   C4v  1 4.300000e-01    2.320000e+00
  SN4d   C3v  1 4.300000e-01    2.160000e+00
  SN4d   C2v  1 4.300000e-01    1.930000e+00
  SN4d   C1v  1 4.300000e-01    1.730000e+00
  SN4d   X4v  1 4.300000e-01    2.930000e+00
  SN4d   X3v  1 4.300000e-01    2.920000e+00
  SN4d   X2v  1 4.300000e-01    2.320000e+00
  SN4d   X1v  1 4.300000e-01    2.160000e+00
  SN3d   C6v  1 4.300000e-01    2.530000e+00
  SN3d   C5v  1 4.300000e-01    2.320000e+00
  SN3d   C4v  1 4.300000e-01    2.320000e+00
  SN3d   C3v  1 4.300000e-01    2.160000e+00
  SN3d   C2v  1 4.300000e-01    2.160000e+00
  SN3d   C1v  1 4.300000e-01    1.930000e+00
  SN3d   X4v  1 4.300000e-01    2.920000e+00
  SN3d   X3v  1 4.300000e-01    2.530000e+00
  SN3d   X2v  1 4.300000e-01    2.320000e+00
  SN3d   X1v  1 4.300000e-01    2.320000e+00
  SN2d   C6v  1 4.300000e-01    2.530000e+00
  SN2d   C5v  1 4.300000e-01    2.320000e+00
  SN2d   C4v  1 4.300000e-01    2.320000e+00
  SN2d   C3v  1 4.300000e-01    2.320000e+00
  SN2d   C2v  1 4.300000e-01    2.160000e+00
  SN2d   C1v  1 4.300000e-01    1.930000e+00
  SN2d   X4v  1 4.300000e-01    2.920000e+00
  SN2d   X3v  1 4.300000e-01    2.530000e+00
  SN2d   X2v  1 4.300000e-01    2.320000e+00
  SN2d   X1v  1 4.300000e-01    2.320000e+00
  SN1d   C6v  1 4.300000e-01    2.920000e+00
  SN1d   C5v  1 4.300000e-01    2.530000e+00
  SN1d   C4v  1 4.300000e-01    2.530000e+00
  SN1d   C3v  1 4.300000e-01    2.320000e+00
  SN1d   C2v  1 4.300000e-01    2.160000e+00
  SN1d   C1v  1 4.300000e-01    1.930000e+00
  SN1d   X4v  1 4.300000e-01    2.530000e+00
  SN1d   X3v  1 4.300000e-01    2.530000e+00
  SN1d   X2v  1 4.300000e-01    2.320000e+00
  SN1d   X1v  1 4.300000e-01    2.320000e+00
   P6d SX1vq  1 4.300000e-01    2.160000e+00
   P5d SX1vq  1 4.300000e-01    2.160000e+00
   P4d SX1vq  1 4.300000e-01    2.320000e+00
   P3d SX1vq  1 4.300000e-01    2.320000e+00
   P2d SX1vq  1 4.300000e-01    2.320000e+00
   P1d SX1vq  1 4.300000e-01    2.320000e+00
   N6d SX1vq  1 4.300000e-01    2.320000e+00
   N5d SX1vq  1 4.300000e-01    2.530000e+00
   N4d SX1vq  1 4.300000e-01    2.530000e+00
   N3d SX1vq  1 4.300000e-01    2.920000e+00
   N2d SX1vq  1 4.300000e-01    2.920000e+00
   N1d SX1vq  1 4.300000e-01    2.920000e+00
   P6d SX2vq  1 4.300000e-01    2.320000e+00
   P5d SX2vq  1 4.300000e-01    2.530000e+00
   P4d SX2vq  1 4.300000e-01    2.530000e+00
   P3d SX2vq  1 4.300000e-01    2.530000e+00
   P2d SX2vq  1 4.300000e-01    2.530000e+00
   P1d SX2vq  1 4.300000e-01    2.530000e+00
   N6d SX2vq  1 4.300000e-01    2.530000e+00
   N5d SX2vq  1 4.300000e-01    2.920000e+00
   N4d SX2vq  1 4.300000e-01    2.920000e+00
   N3d SX2vq  1 4.300000e-01    2.920000e+00
   N2d SX2vq  1 4.300000e-01    2.920000e+00
   N1d SX2vq  1 4.300000e-01    2.920000e+00
   P6d SX3vq  1 4.300000e-01    2.530000e+00
   P5d SX3vq  1 4.300000e-01    2.530000e+00
   P4d SX3vq  1 4.300000e-01    2.530000e+00
   P3d SX3vq  1 4.300000e-01    2.920000e+00
   P2d SX3vq  1 4.300000e-01    2.920000e+00
   P1d SX3vq  1 4.300000e-01    2.920000e+00
   N6d SX3vq  1 4.300000e-01    2.920000e+00
   N5d SX3vq  1 4.300000e-01    2.930000e+00
   N4d SX3vq  1 4.300000e-01    3.160000e+00
   N3d SX3vq  1 4.300000e-01    2.930000e+00
   N2d SX3vq  1 4.300000e-01    2.930000e+00
   N1d SX3vq  1 4.300000e-01    2.930000e+00
   P6d SX4vq  1 4.300000e-01    2.530000e+00
   P5d SX4vq  1 4.300000e-01    2.920000e+00
   P4d SX4vq  1 4.300000e-01    2.920000e+00
   P3d SX4vq  1 4.300000e-01    2.920000e+00
   P2d SX4vq  1 4.300000e-01    2.920000e+00
   P1d SX4vq  1 4.300000e-01    2.920000e+00
   N6d SX4vq  1 4.300000e-01    2.930000e+00
   N5d SX4vq  1 4.300000e-01    3.160000e+00
   N4d SX4vq  1 4.300000e-01    3.380000e+00
   N3d SX4vq  1 4.300000e-01    3.160000e+00
   N2d SX4vq  1 4.300000e-01    3.160000e+00
   N1d SX4vq  1 4.300000e-01    2.930000e+00
   P6d SC1vq  1 4.730000e-01    1.280000e+00
   P5d SC1vq  1 4.300000e-01    1.730000e+00
   P4d SC1vq  1 4.300000e-01    1.730000e+00
   P3d SC1vq  1 4.300000e-01    1.730000e+00
   P2d SC1vq  1 4.300000e-01    1.930000e+00
   P1d SC1vq  1 4.300000e-01    1.930000e+00
   N6d SC1vq  1 4.300000e-01    2.160000e+00
   N5d SC1vq  1 4.300000e-01    2.160000e+00
   N4d SC1vq  1 4.300000e-01    2.160000e+00
   N3d SC1vq  1 4.300000e-01    2.320000e+00
   N2d SC1vq  1 4.300000e-01    2.320000e+00
   N1d SC1vq  1 4.300000e-01    2.320000e+00
   P6d SC2vq  1 4.300000e-01    1.730000e+00
   P5d SC2vq  1 4.300000e-01    1.930000e+00
   P4d SC2vq  1 4.300000e-01    1.930000e+00
   P3d SC2vq  1 4.300000e-01    1.930000e+00
   P2d SC2vq  1 4.300000e-01    2.160000e+00
   P1d SC2vq  1 4.300000e-01    2.160000e+00
   N6d SC2vq  1 4.300000e-01    2.320000e+00
   N5d SC2vq  1 4.300000e-01    2.320000e+00
   N4d SC2vq  1 4.300000e-01    2.320000e+00
   N3d SC2vq  1 4.300000e-01    2.530000e+00
   N2d SC2vq  1 4.300000e-01    2.530000e+00
   N1d SC2vq  1 4.300000e-01    2.530000e+00
   P6d SC3vq  1 4.300000e-01    1.730000e+00
   P5d SC3vq  1 4.300000e-01    1.930000e+00
   P4d SC3vq  1 4.300000e-01    1.930000e+00
   P3d SC3vq  1 4.300000e-01    1.930000e+00
   P2d SC3vq  1 4.300000e-01    2.160000e+00
   P1d SC3vq  1 4.300000e-01    2.160000e+00
   N6d SC3vq  1 4.300000e-01    2.320000e+00
   N5d SC3vq  1 4.300000e-01    2.530000e+00
   N4d SC3vq  1 4.300000e-01    2.530000e+00
   N3d SC3vq  1 4.300000e-01    2.530000e+00
   N2d SC3vq  1 4.300000e-01    2.920000e+00
   N1d SC3vq  1 4.300000e-01    2.920000e+00
   P6d SC4vq  1 4.300000e-01    1.930000e+00
   P5d SC4vq  1 4.300000e-01    2.160000e+00
   P4d SC4vq  1 4.300000e-01    2.160000e+00
   P3d SC4vq  1 4.300000e-01    2.320000e+00
   P2d SC4vq  1 4.300000e-01    2.320000e+00
   P1d SC4vq  1 4.300000e-01    2.320000e+00
   N6d SC4vq  1 4.300000e-01    2.530000e+00
   N5d SC4vq  1 4.300000e-01    2.530000e+00
   N4d SC4vq  1 4.300000e-01    2.920000e+00
   N3d SC4vq  1 4.300000e-01    2.920000e+00
   N2d SC4vq  1 4.300000e-01    2.920000e+00
   N1d SC4vq  1 4.300000e-01    2.930000e+00
   P6d SC5vq  1 4.300000e-01    2.160000e+00
   P5d SC5vq  1 4.300000e-01    2.320000e+00
   P4d SC5vq  1 4.300000e-01    2.320000e+00
   P3d SC5vq  1 4.300000e-01    2.530000e+00
   P2d SC5vq  1 4.300000e-01    2.530000e+00
   P1d SC5vq  1 4.300000e-01    2.530000e+00
   N6d SC5vq  1 4.300000e-01    2.920000e+00
   N5d SC5vq  1 4.300000e-01    2.920000e+00
   N4d SC5vq  1 4.300000e-01    2.920000e+00
   N3d SC5vq  1 4.300000e-01    2.920000e+00
   N2d SC5vq  1 4.300000e-01    2.920000e+00
   N1d SC5vq  1 4.300000e-01    2.930000e+00
   P6d SC6vq  1 4.300000e-01    2.320000e+00
   P5d SC6vq  1 4.300000e-01    2.320000e+00
   P4d SC6vq  1 4.300000e-01    2.530000e+00
   P3d SC6vq  1 4.300000e-01    2.920000e+00
   P2d SC6vq  1 4.300000e-01    2.920000e+00
   P1d SC6vq  1 4.300000e-01    2.920000e+00
   N6d SC6vq  1 4.300000e-01    2.930000e+00
   N5d SC6vq  1 4.300000e-01    2.930000e+00
   N4d SC6vq  1 4.300000e-01    2.930000e+00
   N3d SC6vq  1 4.300000e-01    2.930000e+00
   N2d SC6vq  1 4.300000e-01    2.930000e+00
   N1d SC6vq  1 4.300000e-01    3.160000e+00
  SP6d  X1vq  1 4.300000e-01    2.160000e+00
  SP5d  X1vq  1 4.300000e-01    2.160000e+00
  SP4d  X1vq  1 4.300000e-01    2.320000e+00
  SP3d  X1vq  1 4.300000e-01    2.320000e+00
  SP2d  X1vq  1 4.300000e-01    2.320000e+00
  SP1d  X1vq  1 4.300000e-01    2.320000e+00
  SN6d  X1vq  1 4.300000e-01    2.320000e+00
  SN5d  X1vq  1 4.300000e-01    2.530000e+00
  SN4d  X1vq  1 4.300000e-01    2.530000e+00
  SN3d  X1vq  1 4.300000e-01    2.920000e+00
  SN2d  X1vq  1 4.300000e-01    2.920000e+00
  SN1d  X1vq  1 4.300000e-01    2.920000e+00
  SP6d  X2vq  1 4.300000e-01    2.320000e+00
  SP5d  X2vq  1 4.300000e-01    2.530000e+00
  SP4d  X2vq  1 4.300000e-01    2.530000e+00
  SP3d  X2vq  1 4.300000e-01    2.530000e+00
  SP2d  X2vq  1 4.300000e-01    2.530000e+00
  SP1d  X2vq  1 4.300000e-01    2.530000e+00
  SN6d  X2vq  1 4.300000e-01    2.530000e+00
  SN5d  X2vq  1 4.300000e-01    2.920000e+00
  SN4d  X2vq  1 4.300000e-01    2.920000e+00
  SN3d  X2vq  1 4.300000e-01    2.920000e+00
  SN2d  X2vq  1 4.300000e-01    2.920000e+00
  SN1d  X2vq  1 4.300000e-01    2.920000e+00
  SP6d  X3vq  1 4.300000e-01    2.530000e+00
  SP5d  X3vq  1 4.300000e-01    2.530000e+00
  SP4d  X3vq  1 4.300000e-01    2.530000e+00
  SP3d  X3vq  1 4.300000e-01    2.920000e+00
  SP2d  X3vq  1 4.300000e-01    2.920000e+00
  SP1d  X3vq  1 4.300000e-01    2.920000e+00
  SN6d  X3vq  1 4.300000e-01    2.920000e+00
  SN5d  X3vq  1 4.300000e-01    2.930000e+00
  SN4d  X3vq  1 4.300000e-01    3.160000e+00
  SN3d  X3vq  1 4.300000e-01    2.930000e+00
  SN2d  X3vq  1 4.300000e-01    2.930000e+00
  SN1d  X3vq  1 4.300000e-01    2.930000e+00
  SP6d  X4vq  1 4.300000e-01    2.530000e+00
  SP5d  X4vq  1 4.300000e-01    2.920000e+00
  SP4d  X4vq  1 4.300000e-01    2.920000e+00
  SP3d  X4vq  1 4.300000e-01    2.920000e+00
  SP2d  X4vq  1 4.300000e-01    2.920000e+00
  SP1d  X4vq  1 4.300000e-01    2.920000e+00
  SN6d  X4vq  1 4.300000e-01    2.930000e+00
  SN5d  X4vq  1 4.300000e-01    3.160000e+00
  SN4d  X4vq  1 4.300000e-01    3.380000e+00
  SN3d  X4vq  1 4.300000e-01    3.160000e+00
  SN2d  X4vq  1 4.300000e-01    3.160000e+00
  SN1d  X4vq  1 4.300000e-01    2.930000e+00
  SP6d  C1vq  1 4.730000e-01    1.280000e+00
  SP5d  C1vq  1 4.300000e-01    1.730000e+00
  SP4d  C1vq  1 4.300000e-01    1.730000e+00
  SP3d  C1vq  1 4.300000e-01    1.730000e+00
  SP2d  C1vq  1 4.300000e-01    1.930000e+00
  SP1d  C1vq  1 4.300000e-01    1.930000e+00
  SN6d  C1vq  1 4.300000e-01    2.160000e+00
  SN5d  C1vq  1 4.300000e-01    2.160000e+00
  SN4d  C1vq  1 4.300000e-01    2.160000e+00
  SN3d  C1vq  1 4.300000e-01    2.320000e+00
  SN2d  C1vq  1 4.300000e-01    2.320000e+00
  SN1d  C1vq  1 4.300000e-01    2.320000e+00
  SP6d  C2vq  1 4.300000e-01    1.730000e+00
  SP5d  C2vq  1 4.300000e-01    1.930000e+00
  SP4d  C2vq  1 4.300000e-01    1.930000e+00
  SP3d  C2vq  1 4.300000e-01    1.930000e+00
  SP2d  C2vq  1 4.300000e-01    2.160000e+00
  SP1d  C2vq  1 4.300000e-01    2.160000e+00
  SN6d  C2vq  1 4.300000e-01    2.320000e+00
  SN5d  C2vq  1 4.300000e-01    2.320000e+00
  SN4d  C2vq  1 4.300000e-01    2.320000e+00
  SN3d  C2vq  1 4.300000e-01    2.530000e+00
  SN2d  C2vq  1 4.300000e-01    2.530000e+00
  SN1d  C2vq  1 4.300000e-01    2.530000e+00
  SP6d  C3vq  1 4.300000e-01    1.730000e+00
  SP5d  C3vq  1 4.300000e-01    1.930000e+00
  SP4d  C3vq  1 4.300000e-01    1.930000e+00
  SP3d  C3vq  1 4.300000e-01    1.930000e+00
  SP2d  C3vq  1 4.300000e-01    2.160000e+00
  SP1d  C3vq  1 4.300000e-01    2.160000e+00
  SN6d  C3vq  1 4.300000e-01    2.320000e+00
  SN5d  C3vq  1 4.300000e-01    2.530000e+00
  SN4d  C3vq  1 4.300000e-01    2.530000e+00
  SN3d  C3vq  1 4.300000e-01    2.530000e+00
  SN2d  C3vq  1 4.300000e-01    2.920000e+00
  SN1d  C3vq  1 4.300000e-01    2.920000e+00
  SP6d  C4vq  1 4.300000e-01    1.930000e+00
  SP5d  C4vq  1 4.300000e-01    2.160000e+00
  SP4d  C4vq  1 4.300000e-01    2.160000e+00
  SP3d  C4vq  1 4.300000e-01    2.320000e+00
  SP2d  C4vq  1 4.300000e-01    2.320000e+00
  SP1d  C4vq  1 4.300000e-01    2.320000e+00
  SN6d  C4vq  1 4.300000e-01    2.530000e+00
  SN5d  C4vq  1 4.300000e-01    2.530000e+00
  SN4d  C4vq  1 4.300000e-01    2.920000e+00
  SN3d  C4vq  1 4.300000e-01    2.920000e+00
  SN2d  C4vq  1 4.300000e-01    2.920000e+00
  SN1d  C4vq  1 4.300000e-01    2.930000e+00
  SP6d  C5vq  1 4.300000e-01    2.160000e+00
  SP5d  C5vq  1 4.300000e-01    2.320000e+00
  SP4d  C5vq  1 4.300000e-01    2.320000e+00
  SP3d  C5vq  1 4.300000e-01    2.530000e+00
  SP2d  C5vq  1 4.300000e-01    2.530000e+00
  SP1d  C5vq  1 4.300000e-01    2.530000e+00
  SN6d  C5vq  1 4.300000e-01    2.920000e+00
  SN5d  C5vq  1 4.300000e-01    2.920000e+00
  SN4d  C5vq  1 4.300000e-01    2.920000e+00
  SN3d  C5vq  1 4.300000e-01    2.920000e+00
  SN2d  C5vq  1 4.300000e-01    2.920000e+00
  SN1d  C5vq  1 4.300000e-01    2.930000e+00
  SP6d  C6vq  1 4.300000e-01    2.320000e+00
  SP5d  C6vq  1 4.300000e-01    2.320000e+00
  SP4d  C6vq  1 4.300000e-01    2.530000e+00
  SP3d  C6vq  1 4.300000e-01    2.920000e+00
  SP2d  C6vq  1 4.300000e-01    2.920000e+00
  SP1d  C6vq  1 4.300000e-01    2.920000e+00
  SN6d  C6vq  1 4.300000e-01    2.930000e+00
  SN5d  C6vq  1 4.300000e-01    2.930000e+00
  SN4d  C6vq  1 4.300000e-01    2.930000e+00
  SN3d  C6vq  1 4.300000e-01    2.930000e+00
  SN2d  C6vq  1 4.300000e-01    2.930000e+00
  SN1d  C6vq  1 4.300000e-01    3.160000e+00
   P6d SX1vh  1 4.300000e-01    1.730000e+00
   P5d SX1vh  1 4.300000e-01    1.730000e+00
   P4d SX1vh  1 4.300000e-01    1.930000e+00
   P3d SX1vh  1 4.300000e-01    1.930000e+00
   P2d SX1vh  1 4.300000e-01    1.930000e+00
   P1d SX1vh  1 4.300000e-01    1.930000e+00
   N6d SX1vh  1 4.300000e-01    1.930000e+00
   N5d SX1vh  1 4.300000e-01    2.160000e+00
   N4d SX1vh  1 4.300000e-01    2.160000e+00
   N3d SX1vh  1 4.300000e-01    2.320000e+00
   N2d SX1vh  1 4.300000e-01    2.320000e+00
   N1d SX1vh  1 4.300000e-01    2.320000e+00
   P6d SX2vh  1 4.300000e-01    1.930000e+00
   P5d SX2vh  1 4.300000e-01    2.160000e+00
   P4d SX2vh  1 4.300000e-01    2.160000e+00
   P3d SX2vh  1 4.300000e-01    2.160000e+00
   P2d SX2vh  1 4.300000e-01    2.160000e+00
   P1d SX2vh  1 4.300000e-01    2.160000e+00
   N6d SX2vh  1 4.300000e-01    2.160000e+00
   N5d SX2vh  1 4.300000e-01    2.320000e+00
   N4d SX2vh  1 4.300000e-01    2.320000e+00
   N3d SX2vh  1 4.300000e-01    2.320000e+00
   N2d SX2vh  1 4.300000e-01    2.320000e+00
   N1d SX2vh  1 4.300000e-01    2.320000e+00
   P6d SX3vh  1 4.300000e-01    2.160000e+00
   P5d SX3vh  1 4.300000e-01    2.160000e+00
   P4d SX3vh  1 4.300000e-01    2.160000e+00
   P3d SX3vh  1 4.300000e-01    2.320000e+00
   P2d SX3vh  1 4.300000e-01    2.320000e+00
   P1d SX3vh  1 4.300000e-01    2.320000e+00
   N6d SX3vh  1 4.300000e-01    2.320000e+00
   N5d SX3vh  1 4.300000e-01    2.530000e+00
   N4d SX3vh  1 4.300000e-01    2.920000e+00
   N3d SX3vh  1 4.300000e-01    2.530000e+00
   N2d SX3vh  1 4.300000e-01    2.530000e+00
   N1d SX3vh  1 4.300000e-01    2.530000e+00
   P6d SX4vh  1 4.300000e-01    2.160000e+00
   P5d SX4vh  1 4.300000e-01    2.320000e+00
   P4d SX4vh  1 4.300000e-01    2.320000e+00
   P3d SX4vh  1 4.300000e-01    2.320000e+00
   P2d SX4vh  1 4.300000e-01    2.320000e+00
   P1d SX4vh  1 4.300000e-01    2.320000e+00
   N6d SX4vh  1 4.300000e-01    2.530000e+00
   N5d SX4vh  1 4.300000e-01    2.920000e+00
   N4d SX4vh  1 4.300000e-01    2.930000e+00
   N3d SX4vh  1 4.300000e-01    2.920000e+00
   N2d SX4vh  1 4.300000e-01    2.920000e+00
   N1d SX4vh  1 4.300000e-01    2.530000e+00
   P6d SC1vh  1 5.140000e-01    1.110000e+00
   P5d SC1vh  1 4.730000e-01    1.280000e+00
   P4d SC1vh  1 4.730000e-01    1.280000e+00
   P3d SC1vh  1 4.730000e-01    1.280000e+00
   P2d SC1vh  1 4.430000e-01    1.480000e+00
   P1d SC1vh  1 4.430000e-01    1.480000e+00
   N6d SC1vh  1 4.300000e-01    1.730000e+00
   N5d SC1vh  1 4.300000e-01    1.730000e+00
   N4d SC1vh  1 4.300000e-01    1.730000e+00
   N3d SC1vh  1 4.300000e-01    1.930000e+00
   N2d SC1vh  1 4.300000e-01    1.930000e+00
   N1d SC1vh  1 4.300000e-01    1.930000e+00
   P6d SC2vh  1 4.730000e-01    1.280000e+00
   P5d SC2vh  1 4.430000e-01    1.480000e+00
   P4d SC2vh  1 4.430000e-01    1.480000e+00
   P3d SC2vh  1 4.430000e-01    1.480000e+00
   P2d SC2vh  1 4.300000e-01    1.730000e+00
   P1d SC2vh  1 4.300000e-01    1.730000e+00
   N6d SC2vh  1 4.300000e-01    1.930000e+00
   N5d SC2vh  1 4.300000e-01    1.930000e+00
   N4d SC2vh  1 4.300000e-01    1.930000e+00
   N3d SC2vh  1 4.300000e-01    2.160000e+00
   N2d SC2vh  1 4.300000e-01    2.160000e+00
   N1d SC2vh  1 4.300000e-01    2.160000e+00
   P6d SC3vh  1 4.730000e-01    1.280000e+00
   P5d SC3vh  1 4.430000e-01    1.480000e+00
   P4d SC3vh  1 4.430000e-01    1.480000e+00
   P3d SC3vh  1 4.430000e-01    1.480000e+00
   P2d SC3vh  1 4.300000e-01    1.730000e+00
   P1d SC3vh  1 4.300000e-01    1.730000e+00
   N6d SC3vh  1 4.300000e-01    1.930000e+00
   N5d SC3vh  1 4.300000e-01    2.160000e+00
   N4d SC3vh  1 4.300000e-01    2.160000e+00
   N3d SC3vh  1 4.300000e-01    2.160000e+00
   N2d SC3vh  1 4.300000e-01    2.320000e+00
   N1d SC3vh  1 4.300000e-01    2.320000e+00
   P6d SC4vh  1 4.430000e-01    1.480000e+00
   P5d SC4vh  1 4.300000e-01    1.730000e+00
   P4d SC4vh  1 4.300000e-01    1.730000e+00
   P3d SC4vh  1 4.300000e-01    1.930000e+00
   P2d SC4vh  1 4.300000e-01    1.930000e+00
   P1d SC4vh  1 4.300000e-01    1.930000e+00
   N6d SC4vh  1 4.300000e-01    2.160000e+00
   N5d SC4vh  1 4.300000e-01    2.160000e+00
   N4d SC4vh  1 4.300000e-01    2.320000e+00
   N3d SC4vh  1 4.300000e-01    2.320000e+00
   N2d SC4vh  1 4.300000e-01    2.320000e+00
   N1d SC4vh  1 4.300000e-01    2.530000e+00
   P6d SC5vh  1 4.300000e-01    1.730000e+00
   P5d SC5vh  1 4.300000e-01    1.930000e+00
   P4d SC5vh  1 4.300000e-01    1.930000e+00
   P3d SC5vh  1 4.300000e-01    2.160000e+00
   P2d SC5vh  1 4.300000e-01    2.160000e+00
   P1d SC5vh  1 4.300000e-01    2.160000e+00
   N6d SC5vh  1 4.300000e-01    2.320000e+00
   N5d SC5vh  1 4.300000e-01    2.320000e+00
   N4d SC5vh  1 4.300000e-01    2.320000e+00
   N3d SC5vh  1 4.300000e-01    2.320000e+00
   N2d SC5vh  1 4.300000e-01    2.320000e+00
   N1d SC5vh  1 4.300000e-01    2.530000e+00
   P6d SC6vh  1 4.300000e-01    1.930000e+00
   P5d SC6vh  1 4.300000e-01    1.930000e+00
   P4d SC6vh  1 4.300000e-01    2.160000e+00
   P3d SC6vh  1 4.300000e-01    2.320000e+00
   P2d SC6vh  1 4.300000e-01    2.320000e+00
   P1d SC6vh  1 4.300000e-01    2.320000e+00
   N6d SC6vh  1 4.300000e-01    2.530000e+00
   N5d SC6vh  1 4.300000e-01    2.530000e+00
   N4d SC6vh  1 4.300000e-01    2.530000e+00
   N3d SC6vh  1 4.300000e-01    2.530000e+00
   N2d SC6vh  1 4.300000e-01    2.530000e+00
   N1d SC6vh  1 4.300000e-01    2.920000e+00
  SP6d  X1vh  1 4.300000e-01    1.730000e+00
  SP5d  X1vh  1 4.300000e-01    1.730000e+00
  SP4d  X1vh  1 4.300000e-01    1.930000e+00
  SP3d  X1vh  1 4.300000e-01    1.930000e+00
  SP2d  X1vh  1 4.300000e-01    1.930000e+00
  SP1d  X1vh  1 4.300000e-01    1.930000e+00
  SN6d  X1vh  1 4.300000e-01    1.930000e+00
  SN5d  X1vh  1 4.300000e-01    2.160000e+00
  SN4d  X1vh  1 4.300000e-01    2.160000e+00
  SN3d  X1vh  1 4.300000e-01    2.320000e+00
  SN2d  X1vh  1 4.300000e-01    2.320000e+00
  SN1d  X1vh  1 4.300000e-01    2.320000e+00
  SP6d  X2vh  1 4.300000e-01    1.930000e+00
  SP5d  X2vh  1 4.300000e-01    2.160000e+00
  SP4d  X2vh  1 4.300000e-01    2.160000e+00
  SP3d  X2vh  1 4.300000e-01    2.160000e+00
  SP2d  X2vh  1 4.300000e-01    2.160000e+00
  SP1d  X2vh  1 4.300000e-01    2.160000e+00
  SN6d  X2vh  1 4.300000e-01    2.160000e+00
  SN5d  X2vh  1 4.300000e-01    2.320000e+00
  SN4d  X2vh  1 4.300000e-01    2.320000e+00
  SN3d  X2vh  1 4.300000e-01    2.320000e+00
  SN2d  X2vh  1 4.300000e-01    2.320000e+00
  SN1d  X2vh  1 4.300000e-01    2.320000e+00
  SP6d  X3vh  1 4.300000e-01    2.160000e+00
  SP5d  X3vh  1 4.300000e-01    2.160000e+00
  SP4d  X3vh  1 4.300000e-01    2.160000e+00
  SP3d  X3vh  1 4.300000e-01    2.320000e+00
  SP2d  X3vh  1 4.300000e-01    2.320000e+00
  SP1d  X3vh  1 4.300000e-01    2.320000e+00
  SN6d  X3vh  1 4.300000e-01    2.320000e+00
  SN5d  X3vh  1 4.300000e-01    2.530000e+00
  SN4d  X3vh  1 4.300000e-01    2.920000e+00
  SN3d  X3vh  1 4.300000e-01    2.530000e+00
  SN2d  X3vh  1 4.300000e-01    2.530000e+00
  SN1d  X3vh  1 4.300000e-01    2.530000e+00
  SP6d  X4vh  1 4.300000e-01    2.160000e+00
  SP5d  X4vh  1 4.300000e-01    2.320000e+00
  SP4d  X4vh  1 4.300000e-01    2.320000e+00
  SP3d  X4vh  1 4.300000e-01    2.320000e+00
  SP2d  X4vh  1 4.300000e-01    2.320000e+00
  SP1d  X4vh  1 4.300000e-01    2.320000e+00
  SN6d  X4vh  1 4.300000e-01    2.530000e+00
  SN5d  X4vh  1 4.300000e-01    2.920000e+00
  SN4d  X4vh  1 4.300000e-01    2.930000e+00
  SN3d  X4vh  1 4.300000e-01    2.920000e+00
  SN2d  X4vh  1 4.300000e-01    2.920000e+00
  SN1d  X4vh  1 4.300000e-01    2.530000e+00
  SP6d  C1vh  1 5.140000e-01    1.110000e+00
  SP5d  C1vh  1 4.730000e-01    1.280000e+00
  SP4d  C1vh  1 4.730000e-01    1.280000e+00
  SP3d  C1vh  1 4.730000e-01    1.280000e+00
  SP2d  C1vh  1 4.430000e-01    1.480000e+00
  SP1d  C1vh  1 4.430000e-01    1.480000e+00
  SN6d  C1vh  1 4.300000e-01    1.730000e+00
  SN5d  C1vh  1 4.300000e-01    1.730000e+00
  SN4d  C1vh  1 4.300000e-01    1.730000e+00
  SN3d  C1vh  1 4.300000e-01    1.930000e+00
  SN2d  C1vh  1 4.300000e-01    1.930000e+00
  SN1d  C1vh  1 4.300000e-01    1.930000e+00
  SP6d  C2vh  1 4.730000e-01    1.280000e+00
  SP5d  C2vh  1 4.430000e-01    1.480000e+00
  SP4d  C2vh  1 4.430000e-01    1.480000e+00
  SP3d  C2vh  1 4.430000e-01    1.480000e+00
  SP2d  C2vh  1 4.300000e-01    1.730000e+00
  SP1d  C2vh  1 4.300000e-01    1.730000e+00
  SN6d  C2vh  1 4.300000e-01    1.930000e+00
  SN5d  C2vh  1 4.300000e-01    1.930000e+00
  SN4d  C2vh  1 4.300000e-01    1.930000e+00
  SN3d  C2vh  1 4.300000e-01    2.160000e+00
  SN2d  C2vh  1 4.300000e-01    2.160000e+00
  SN1d  C2vh  1 4.300000e-01    2.160000e+00
  SP6d  C3vh  1 4.730000e-01    1.280000e+00
  SP5d  C3vh  1 4.430000e-01    1.480000e+00
  SP4d  C3vh  1 4.430000e-01    1.480000e+00
  SP3d  C3vh  1 4.430000e-01    1.480000e+00
  SP2d  C3vh  1 4.300000e-01    1.730000e+00
  SP1d  C3vh  1 4.300000e-01    1.730000e+00
  SN6d  C3vh  1 4.300000e-01    1.930000e+00
  SN5d  C3vh  1 4.300000e-01    2.160000e+00
  SN4d  C3vh  1 4.300000e-01    2.160000e+00
  SN3d  C3vh  1 4.300000e-01    2.160000e+00
  SN2d  C3vh  1 4.300000e-01    2.320000e+00
  SN1d  C3vh  1 4.300000e-01    2.320000e+00
  SP6d  C4vh  1 4.430000e-01    1.480000e+00
  SP5d  C4vh  1 4.300000e-01    1.730000e+00
  SP4d  C4vh  1 4.300000e-01    1.730000e+00
  SP3d  C4vh  1 4.300000e-01    1.930000e+00
  SP2d  C4vh  1 4.300000e-01    1.930000e+00
  SP1d  C4vh  1 4.300000e-01    1.930000e+00
  SN6d  C4vh  1 4.300000e-01    2.160000e+00
  SN5d  C4vh  1 4.300000e-01    2.160000e+00
  SN4d  C4vh  1 4.300000e-01    2.320000e+00
  SN3d  C4vh  1 4.300000e-01    2.320000e+00
  SN2d  C4vh  1 4.300000e-01    2.320000e+00
  SN1d  C4vh  1 4.300000e-01    2.530000e+00
  SP6d  C5vh  1 4.300000e-01    1.730000e+00
  SP5d  C5vh  1 4.300000e-01    1.930000e+00
  SP4d  C5vh  1 4.300000e-01    1.930000e+00
  SP3d  C5vh  1 4.300000e-01    2.160000e+00
  SP2d  C5vh  1 4.300000e-01    2.160000e+00
  SP1d  C5vh  1 4.300000e-01    2.160000e+00
  SN6d  C5vh  1 4.300000e-01    2.320000e+00
  SN5d  C5vh  1 4.300000e-01    2.320000e+00
  SN4d  C5vh  1 4.300000e-01    2.320000e+00
  SN3d  C5vh  1 4.300000e-01    2.320000e+00
  SN2d  C5vh  1 4.300000e-01    2.320000e+00
  SN1d  C5vh  1 4.300000e-01    2.530000e+00
  SP6d  C6vh  1 4.300000e-01    1.930000e+00
  SP5d  C6vh  1 4.300000e-01    1.930000e+00
  SP4d  C6vh  1 4.300000e-01    2.160000e+00
  SP3d  C6vh  1 4.300000e-01    2.320000e+00
  SP2d  C6vh  1 4.300000e-01    2.320000e+00
  SP1d  C6vh  1 4.300000e-01    2.320000e+00
  SN6d  C6vh  1 4.300000e-01    2.530000e+00
  SN5d  C6vh  1 4.300000e-01    2.530000e+00
  SN4d  C6vh  1 4.300000e-01    2.530000e+00
  SN3d  C6vh  1 4.300000e-01    2.530000e+00
  SN2d  C6vh  1 4.300000e-01    2.530000e+00
  SN1d  C6vh  1 4.300000e-01    2.920000e+00
   P6d SX1vr  1 4.300000e-01    1.730000e+00
   P5d SX1vr  1 4.300000e-01    1.730000e+00
   P4d SX1vr  1 4.300000e-01    1.930000e+00
   P3d SX1vr  1 4.300000e-01    1.930000e+00
   P2d SX1vr  1 4.300000e-01    1.930000e+00
   P1d SX1vr  1 4.300000e-01    1.930000e+00
   N6d SX1vr  1 4.300000e-01    1.930000e+00
   N5d SX1vr  1 4.300000e-01    2.160000e+00
   N4d SX1vr  1 4.300000e-01    2.160000e+00
   N3d SX1vr  1 4.300000e-01    2.320000e+00
   N2d SX1vr  1 4.300000e-01    2.320000e+00
   N1d SX1vr  1 4.300000e-01    2.320000e+00
   P6d SX2vr  1 4.300000e-01    1.930000e+00
   P5d SX2vr  1 4.300000e-01    2.160000e+00
   P4d SX2vr  1 4.300000e-01    2.160000e+00
   P3d SX2vr  1 4.300000e-01    2.160000e+00
   P2d SX2vr  1 4.300000e-01    2.160000e+00
   P1d SX2vr  1 4.300000e-01    2.160000e+00
   N6d SX2vr  1 4.300000e-01    2.160000e+00
   N5d SX2vr  1 4.300000e-01    2.320000e+00
   N4d SX2vr  1 4.300000e-01    2.320000e+00
   N3d SX2vr  1 4.300000e-01    2.320000e+00
   N2d SX2vr  1 4.300000e-01    2.320000e+00
   N1d SX2vr  1 4.300000e-01    2.320000e+00
   P6d SX3vr  1 4.300000e-01    2.160000e+00
   P5d SX3vr  1 4.300000e-01    2.160000e+00
   P4d SX3vr  1 4.300000e-01    2.160000e+00
   P3d SX3vr  1 4.300000e-01    2.320000e+00
   P2d SX3vr  1 4.300000e-01    2.320000e+00
   P1d SX3vr  1 4.300000e-01    2.320000e+00
   N6d SX3vr  1 4.300000e-01    2.320000e+00
   N5d SX3vr  1 4.300000e-01    2.530000e+00
   N4d SX3vr  1 4.300000e-01    2.920000e+00
   N3d SX3vr  1 4.300000e-01    2.530000e+00
   N2d SX3vr  1 4.300000e-01    2.530000e+00
   N1d SX3vr  1 4.300000e-01    2.530000e+00
   P6d SX4vr  1 4.300000e-01    2.160000e+00
   P5d SX4vr  1 4.300000e-01    2.320000e+00
   P4d SX4vr  1 4.300000e-01    2.320000e+00
   P3d SX4vr  1 4.300000e-01    2.320000e+00
   P2d SX4vr  1 4.300000e-01    2.320000e+00
   P1d SX4vr  1 4.300000e-01    2.320000e+00
   N6d SX4vr  1 4.300000e-01    2.530000e+00
   N5d SX4vr  1 4.300000e-01    2.920000e+00
   N4d SX4vr  1 4.300000e-01    2.930000e+00
   N3d SX4vr  1 4.300000e-01    2.920000e+00
   N2d SX4vr  1 4.300000e-01    2.920000e+00
   N1d SX4vr  1 4.300000e-01    2.530000e+00
   P6d SC1vr  1 5.140000e-01    1.110000e+00
   P5d SC1vr  1 4.730000e-01    1.280000e+00
   P4d SC1vr  1 4.730000e-01    1.280000e+00
   P3d SC1vr  1 4.730000e-01    1.280000e+00
   P2d SC1vr  1 4.430000e-01    1.480000e+00
   P1d SC1vr  1 4.430000e-01    1.480000e+00
   N6d SC1vr  1 4.300000e-01    1.730000e+00
   N5d SC1vr  1 4.300000e-01    1.730000e+00
   N4d SC1vr  1 4.300000e-01    1.730000e+00
   N3d SC1vr  1 4.300000e-01    1.930000e+00
   N2d SC1vr  1 4.300000e-01    1.930000e+00
   N1d SC1vr  1 4.300000e-01    1.930000e+00
   P6d SC2vr  1 4.730000e-01    1.280000e+00
   P5d SC2vr  1 4.430000e-01    1.480000e+00
   P4d SC2vr  1 4.430000e-01    1.480000e+00
   P3d SC2vr  1 4.430000e-01    1.480000e+00
   P2d SC2vr  1 4.300000e-01    1.730000e+00
   P1d SC2vr  1 4.300000e-01    1.730000e+00
   N6d SC2vr  1 4.300000e-01    1.930000e+00
   N5d SC2vr  1 4.300000e-01    1.930000e+00
   N4d SC2vr  1 4.300000e-01    1.930000e+00
   N3d SC2vr  1 4.300000e-01    2.160000e+00
   N2d SC2vr  1 4.300000e-01    2.160000e+00
   N1d SC2vr  1 4.300000e-01    2.160000e+00
   P6d SC3vr  1 4.730000e-01    1.280000e+00
   P5d SC3vr  1 4.430000e-01    1.480000e+00
   P4d SC3vr  1 4.430000e-01    1.480000e+00
   P3d SC3vr  1 4.430000e-01    1.480000e+00
   P2d SC3vr  1 4.300000e-01    1.730000e+00
   P1d SC3vr  1 4.300000e-01    1.730000e+00
   N6d SC3vr  1 4.300000e-01    1.930000e+00
   N5d SC3vr  1 4.300000e-01    2.160000e+00
   N4d SC3vr  1 4.300000e-01    2.160000e+00
   N3d SC3vr  1 4.300000e-01    2.160000e+00
   N2d SC3vr  1 4.300000e-01    2.320000e+00
   N1d SC3vr  1 4.300000e-01    2.320000e+00
   P6d SC4vr  1 4.430000e-01    1.480000e+00
   P5d SC4vr  1 4.300000e-01    1.730000e+00
   P4d SC4vr  1 4.300000e-01    1.730000e+00
   P3d SC4vr  1 4.300000e-01    1.930000e+00
   P2d SC4vr  1 4.300000e-01    1.930000e+00
   P1d SC4vr  1 4.300000e-01    1.930000e+00
   N6d SC4vr  1 4.300000e-01    2.160000e+00
   N5d SC4vr  1 4.300000e-01    2.160000e+00
   N4d SC4vr  1 4.300000e-01    2.320000e+00
   N3d SC4vr  1 4.300000e-01    2.320000e+00
   N2d SC4vr  1 4.300000e-01    2.320000e+00
   N1d SC4vr  1 4.300000e-01    2.530000e+00
   P6d SC5vr  1 4.300000e-01    1.730000e+00
   P5d SC5vr  1 4.300000e-01    1.930000e+00
   P4d SC5vr  1 4.300000e-01    1.930000e+00
   P3d SC5vr  1 4.300000e-01    2.160000e+00
   P2d SC5vr  1 4.300000e-01    2.160000e+00
   P1d SC5vr  1 4.300000e-01    2.160000e+00
   N6d SC5vr  1 4.300000e-01    2.320000e+00
   N5d SC5vr  1 4.300000e-01    2.320000e+00
   N4d SC5vr  1 4.300000e-01    2.320000e+00
   N3d SC5vr  1 4.300000e-01    2.320000e+00
   N2d SC5vr  1 4.300000e-01    2.320000e+00
   N1d SC5vr  1 4.300000e-01    2.530000e+00
   P6d SC6vr  1 4.300000e-01    1.930000e+00
   P5d SC6vr  1 4.300000e-01    1.930000e+00
   P4d SC6vr  1 4.300000e-01    2.160000e+00
   P3d SC6vr  1 4.300000e-01    2.320000e+00
   P2d SC6vr  1 4.300000e-01    2.320000e+00
   P1d SC6vr  1 4.300000e-01    2.320000e+00
   N6d SC6vr  1 4.300000e-01    2.530000e+00
   N5d SC6vr  1 4.300000e-01    2.530000e+00
   N4d SC6vr  1 4.300000e-01    2.530000e+00
   N3d SC6vr  1 4.300000e-01    2.530000e+00
   N2d SC6vr  1 4.300000e-01    2.530000e+00
   N1d SC6vr  1 4.300000e-01    2.920000e+00
  SP6d  X1vr  1 4.300000e-01    1.730000e+00
  SP5d  X1vr  1 4.300000e-01    1.730000e+00
  SP4d  X1vr  1 4.300000e-01    1.930000e+00
  SP3d  X1vr  1 4.300000e-01    1.930000e+00
  SP2d  X1vr  1 4.300000e-01    1.930000e+00
  SP1d  X1vr  1 4.300000e-01    1.930000e+00
  SN6d  X1vr  1 4.300000e-01    1.930000e+00
  SN5d  X1vr  1 4.300000e-01    2.160000e+00
  SN4d  X1vr  1 4.300000e-01    2.160000e+00
  SN3d  X1vr  1 4.300000e-01    2.320000e+00
  SN2d  X1vr  1 4.300000e-01    2.320000e+00
  SN1d  X1vr  1 4.300000e-01    2.320000e+00
  SP6d  X2vr  1 4.300000e-01    1.930000e+00
  SP5d  X2vr  1 4.300000e-01    2.160000e+00
  SP4d  X2vr  1 4.300000e-01    2.160000e+00
  SP3d  X2vr  1 4.300000e-01    2.160000e+00
  SP2d  X2vr  1 4.300000e-01    2.160000e+00
  SP1d  X2vr  1 4.300000e-01    2.160000e+00
  SN6d  X2vr  1 4.300000e-01    2.160000e+00
  SN5d  X2vr  1 4.300000e-01    2.320000e+00
  SN4d  X2vr  1 4.300000e-01    2.320000e+00
  SN3d  X2vr  1 4.300000e-01    2.320000e+00
  SN2d  X2vr  1 4.300000e-01    2.320000e+00
  SN1d  X2vr  1 4.300000e-01    2.320000e+00
  SP6d  X3vr  1 4.300000e-01    2.160000e+00
  SP5d  X3vr  1 4.300000e-01    2.160000e+00
  SP4d  X3vr  1 4.300000e-01    2.160000e+00
  SP3d  X3vr  1 4.300000e-01    2.320000e+00
  SP2d  X3vr  1 4.300000e-01    2.320000e+00
  SP1d  X3vr  1 4.300000e-01    2.320000e+00
  SN6d  X3vr  1 4.300000e-01    2.320000e+00
  SN5d  X3vr  1 4.300000e-01    2.530000e+00
  SN4d  X3vr  1 4.300000e-01    2.920000e+00
  SN3d  X3vr  1 4.300000e-01    2.530000e+00
  SN2d  X3vr  1 4.300000e-01    2.530000e+00
  SN1d  X3vr  1 4.300000e-01    2.530000e+00
  SP6d  X4vr  1 4.300000e-01    2.160000e+00
  SP5d  X4vr  1 4.300000e-01    2.320000e+00
  SP4d  X4vr  1 4.300000e-01    2.320000e+00
  SP3d  X4vr  1 4.300000e-01    2.320000e+00
  SP2d  X4vr  1 4.300000e-01    2.320000e+00
  SP1d  X4vr  1 4.300000e-01    2.320000e+00
  SN6d  X4vr  1 4.300000e-01    2.530000e+00
  SN5d  X4vr  1 4.300000e-01    2.920000e+00
  SN4d  X4vr  1 4.300000e-01    2.930000e+00
  SN3d  X4vr  1 4.300000e-01    2.920000e+00
  SN2d  X4vr  1 4.300000e-01    2.920000e+00
  SN1d  X4vr  1 4.300000e-01    2.530000e+00
  SP6d  C1vr  1 5.140000e-01    1.110000e+00
  SP5d  C1vr  1 4.730000e-01    1.280000e+00
  SP4d  C1vr  1 4.730000e-01    1.280000e+00
  SP3d  C1vr  1 4.730000e-01    1.280000e+00
  SP2d  C1vr  1 4.430000e-01    1.480000e+00
  SP1d  C1vr  1 4.430000e-01    1.480000e+00
  SN6d  C1vr  1 4.300000e-01    1.730000e+00
  SN5d  C1vr  1 4.300000e-01    1.730000e+00
  SN4d  C1vr  1 4.300000e-01    1.730000e+00
  SN3d  C1vr  1 4.300000e-01    1.930000e+00
  SN2d  C1vr  1 4.300000e-01    1.930000e+00
  SN1d  C1vr  1 4.300000e-01    1.930000e+00
  SP6d  C2vr  1 4.730000e-01    1.280000e+00
  SP5d  C2vr  1 4.430000e-01    1.480000e+00
  SP4d  C2vr  1 4.430000e-01    1.480000e+00
  SP3d  C2vr  1 4.430000e-01    1.480000e+00
  SP2d  C2vr  1 4.300000e-01    1.730000e+00
  SP1d  C2vr  1 4.300000e-01    1.730000e+00
  SN6d  C2vr  1 4.300000e-01    1.930000e+00
  SN5d  C2vr  1 4.300000e-01    1.930000e+00
  SN4d  C2vr  1 4.300000e-01    1.930000e+00
  SN3d  C2vr  1 4.300000e-01    2.160000e+00
  SN2d  C2vr  1 4.300000e-01    2.160000e+00
  SN1d  C2vr  1 4.300000e-01    2.160000e+00
  SP6d  C3vr  1 4.730000e-01    1.280000e+00
  SP5d  C3vr  1 4.430000e-01    1.480000e+00
  SP4d  C3vr  1 4.430000e-01    1.480000e+00
  SP3d  C3vr  1 4.430000e-01    1.480000e+00
  SP2d  C3vr  1 4.300000e-01    1.730000e+00
  SP1d  C3vr  1 4.300000e-01    1.730000e+00
  SN6d  C3vr  1 4.300000e-01    1.930000e+00
  SN5d  C3vr  1 4.300000e-01    2.160000e+00
  SN4d  C3vr  1 4.300000e-01    2.160000e+00
  SN3d  C3vr  1 4.300000e-01    2.160000e+00
  SN2d  C3vr  1 4.300000e-01    2.320000e+00
  SN1d  C3vr  1 4.300000e-01    2.320000e+00
  SP6d  C4vr  1 4.430000e-01    1.480000e+00
  SP5d  C4vr  1 4.300000e-01    1.730000e+00
  SP4d  C4vr  1 4.300000e-01    1.730000e+00
  SP3d  C4vr  1 4.300000e-01    1.930000e+00
  SP2d  C4vr  1 4.300000e-01    1.930000e+00
  SP1d  C4vr  1 4.300000e-01    1.930000e+00
  SN6d  C4vr  1 4.300000e-01    2.160000e+00
  SN5d  C4vr  1 4.300000e-01    2.160000e+00
  SN4d  C4vr  1 4.300000e-01    2.320000e+00
  SN3d  C4vr  1 4.300000e-01    2.320000e+00
  SN2d  C4vr  1 4.300000e-01    2.320000e+00
  SN1d  C4vr  1 4.300000e-01    2.530000e+00
  SP6d  C5vr  1 4.300000e-01    1.730000e+00
  SP5d  C5vr  1 4.300000e-01    1.930000e+00
  SP4d  C5vr  1 4.300000e-01    1.930000e+00
  SP3d  C5vr  1 4.300000e-01    2.160000e+00
  SP2d  C5vr  1 4.300000e-01    2.160000e+00
  SP1d  C5vr  1 4.300000e-01    2.160000e+00
  SN6d  C5vr  1 4.300000e-01    2.320000e+00
  SN5d  C5vr  1 4.300000e-01    2.320000e+00
  SN4d  C5vr  1 4.300000e-01    2.320000e+00
  SN3d  C5vr  1 4.300000e-01    2.320000e+00
  SN2d  C5vr  1 4.300000e-01    2.320000e+00
  SN1d  C5vr  1 4.300000e-01    2.530000e+00
  SP6d  C6vr  1 4.300000e-01    1.930000e+00
  SP5d  C6vr  1 4.300000e-01    1.930000e+00
  SP4d  C6vr  1 4.300000e-01    2.160000e+00
  SP3d  C6vr  1 4.300000e-01    2.320000e+00
  SP2d  C6vr  1 4.300000e-01    2.320000e+00
  SP1d  C6vr  1 4.300000e-01    2.320000e+00
  SN6d  C6vr  1 4.300000e-01    2.530000e+00
  SN5d  C6vr  1 4.300000e-01    2.530000e+00
  SN4d  C6vr  1 4.300000e-01    2.530000e+00
  SN3d  C6vr  1 4.300000e-01    2.530000e+00
  SN2d  C6vr  1 4.300000e-01    2.530000e+00
  SN1d  C6vr  1 4.300000e-01    2.920000e+00
  P6dq  SC6v  1 4.300000e-01    2.320000e+00
  P6dq  SC5v  1 4.300000e-01    2.160000e+00
  P6dq  SC4v  1 4.300000e-01    1.930000e+00
  P6dq  SC3v  1 4.300000e-01    1.730000e+00
  P6dq  SC2v  1 4.300000e-01    1.730000e+00
  P6dq  SC1v  1 4.730000e-01    1.280000e+00
  P6dq  SX4v  1 4.300000e-01    2.530000e+00
  P6dq  SX3v  1 4.300000e-01    2.530000e+00
  P6dq  SX2v  1 4.300000e-01    2.320000e+00
  P6dq  SX1v  1 4.300000e-01    2.160000e+00
  P5dq  SC6v  1 4.300000e-01    2.320000e+00
  P5dq  SC5v  1 4.300000e-01    2.320000e+00
  P5dq  SC4v  1 4.300000e-01    2.160000e+00
  P5dq  SC3v  1 4.300000e-01    1.930000e+00
  P5dq  SC2v  1 4.300000e-01    1.930000e+00
  P5dq  SC1v  1 4.300000e-01    1.730000e+00
  P5dq  SX4v  1 4.300000e-01    2.920000e+00
  P5dq  SX3v  1 4.300000e-01    2.530000e+00
  P5dq  SX2v  1 4.300000e-01    2.530000e+00
  P5dq  SX1v  1 4.300000e-01    2.160000e+00
  P4dq  SC6v  1 4.300000e-01    2.530000e+00
  P4dq  SC5v  1 4.300000e-01    2.320000e+00
  P4dq  SC4v  1 4.300000e-01    2.160000e+00
  P4dq  SC3v  1 4.300000e-01    1.930000e+00
  P4dq  SC2v  1 4.300000e-01    1.930000e+00
  P4dq  SC1v  1 4.300000e-01    1.730000e+00
  P4dq  SX4v  1 4.300000e-01    2.920000e+00
  P4dq  SX3v  1 4.300000e-01    2.530000e+00
  P4dq  SX2v  1 4.300000e-01    2.530000e+00
  P4dq  SX1v  1 4.300000e-01    2.320000e+00
  P3dq  SC6v  1 4.300000e-01    2.920000e+00
  P3dq  SC5v  1 4.300000e-01    2.530000e+00
  P3dq  SC4v  1 4.300000e-01    2.320000e+00
  P3dq  SC3v  1 4.300000e-01    1.930000e+00
  P3dq  SC2v  1 4.300000e-01    1.930000e+00
  P3dq  SC1v  1 4.300000e-01    1.730000e+00
  P3dq  SX4v  1 4.300000e-01    2.920000e+00
  P3dq  SX3v  1 4.300000e-01    2.920000e+00
  P3dq  SX2v  1 4.300000e-01    2.530000e+00
  P3dq  SX1v  1 4.300000e-01    2.320000e+00
  P2dq  SC6v  1 4.300000e-01    2.920000e+00
  P2dq  SC5v  1 4.300000e-01    2.530000e+00
  P2dq  SC4v  1 4.300000e-01    2.320000e+00
  P2dq  SC3v  1 4.300000e-01    2.160000e+00
  P2dq  SC2v  1 4.300000e-01    2.160000e+00
  P2dq  SC1v  1 4.300000e-01    1.930000e+00
  P2dq  SX4v  1 4.300000e-01    2.920000e+00
  P2dq  SX3v  1 4.300000e-01    2.920000e+00
  P2dq  SX2v  1 4.300000e-01    2.530000e+00
  P2dq  SX1v  1 4.300000e-01    2.320000e+00
  P1dq  SC6v  1 4.300000e-01    2.920000e+00
  P1dq  SC5v  1 4.300000e-01    2.530000e+00
  P1dq  SC4v  1 4.300000e-01    2.320000e+00
  P1dq  SC3v  1 4.300000e-01    2.160000e+00
  P1dq  SC2v  1 4.300000e-01    2.160000e+00
  P1dq  SC1v  1 4.300000e-01    1.930000e+00
  P1dq  SX4v  1 4.300000e-01    2.920000e+00
  P1dq  SX3v  1 4.300000e-01    2.920000e+00
  P1dq  SX2v  1 4.300000e-01    2.530000e+00
  P1dq  SX1v  1 4.300000e-01    2.320000e+00
  N6dq  SC6v  1 4.300000e-01    2.930000e+00
  N6dq  SC5v  1 4.300000e-01    2.920000e+00
  N6dq  SC4v  1 4.300000e-01    2.530000e+00
  N6dq  SC3v  1 4.300000e-01    2.320000e+00
  N6dq  SC2v  1 4.300000e-01    2.320000e+00
  N6dq  SC1v  1 4.300000e-01    2.160000e+00
  N6dq  SX4v  1 4.300000e-01    2.930000e+00
  N6dq  SX3v  1 4.300000e-01    2.920000e+00
  N6dq  SX2v  1 4.300000e-01    2.530000e+00
  N6dq  SX1v  1 4.300000e-01    2.320000e+00
  N5dq  SC6v  1 4.300000e-01    2.930000e+00
  N5dq  SC5v  1 4.300000e-01    2.920000e+00
  N5dq  SC4v  1 4.300000e-01    2.530000e+00
  N5dq  SC3v  1 4.300000e-01    2.530000e+00
  N5dq  SC2v  1 4.300000e-01    2.320000e+00
  N5dq  SC1v  1 4.300000e-01    2.160000e+00
  N5dq  SX4v  1 4.300000e-01    3.160000e+00
  N5dq  SX3v  1 4.300000e-01    2.930000e+00
  N5dq  SX2v  1 4.300000e-01    2.920000e+00
  N5dq  SX1v  1 4.300000e-01    2.530000e+00
  N4dq  SC6v  1 4.300000e-01    2.930000e+00
  N4dq  SC5v  1 4.300000e-01    2.920000e+00
  N4dq  SC4v  1 4.300000e-01    2.920000e+00
  N4dq  SC3v  1 4.300000e-01    2.530000e+00
  N4dq  SC2v  1 4.300000e-01    2.320000e+00
  N4dq  SC1v  1 4.300000e-01    2.160000e+00
  N4dq  SX4v  1 4.300000e-01    3.380000e+00
  N4dq  SX3v  1 4.300000e-01    3.160000e+00
  N4dq  SX2v  1 4.300000e-01    2.920000e+00
  N4dq  SX1v  1 4.300000e-01    2.530000e+00
  N3dq  SC6v  1 4.300000e-01    2.930000e+00
  N3dq  SC5v  1 4.300000e-01    2.920000e+00
  N3dq  SC4v  1 4.300000e-01    2.920000e+00
  N3dq  SC3v  1 4.300000e-01    2.530000e+00
  N3dq  SC2v  1 4.300000e-01    2.530000e+00
  N3dq  SC1v  1 4.300000e-01    2.320000e+00
  N3dq  SX4v  1 4.300000e-01    3.160000e+00
  N3dq  SX3v  1 4.300000e-01    2.930000e+00
  N3dq  SX2v  1 4.300000e-01    2.920000e+00
  N3dq  SX1v  1 4.300000e-01    2.920000e+00
  N2dq  SC6v  1 4.300000e-01    2.930000e+00
  N2dq  SC5v  1 4.300000e-01    2.920000e+00
  N2dq  SC4v  1 4.300000e-01    2.920000e+00
  N2dq  SC3v  1 4.300000e-01    2.920000e+00
  N2dq  SC2v  1 4.300000e-01    2.530000e+00
  N2dq  SC1v  1 4.300000e-01    2.320000e+00
  N2dq  SX4v  1 4.300000e-01    3.160000e+00
  N2dq  SX3v  1 4.300000e-01    2.930000e+00
  N2dq  SX2v  1 4.300000e-01    2.920000e+00
  N2dq  SX1v  1 4.300000e-01    2.920000e+00
  N1dq  SC6v  1 4.300000e-01    3.160000e+00
  N1dq  SC5v  1 4.300000e-01    2.930000e+00
  N1dq  SC4v  1 4.300000e-01    2.930000e+00
  N1dq  SC3v  1 4.300000e-01    2.920000e+00
  N1dq  SC2v  1 4.300000e-01    2.530000e+00
  N1dq  SC1v  1 4.300000e-01    2.320000e+00
  N1dq  SX4v  1 4.300000e-01    2.930000e+00
  N1dq  SX3v  1 4.300000e-01    2.930000e+00
  N1dq  SX2v  1 4.300000e-01    2.920000e+00
  N1dq  SX1v  1 4.300000e-01    2.920000e+00
 SP6dq   C6v  1 4.300000e-01    2.320000e+00
 SP6dq   C5v  1 4.300000e-01    2.160000e+00
 SP6dq   C4v  1 4.300000e-01    1.930000e+00
 SP6dq   C3v  1 4.300000e-01    1.730000e+00
 SP6dq   C2v  1 4.300000e-01    1.730000e+00
 SP6dq   C1v  1 4.730000e-01    1.280000e+00
 SP6dq   X4v  1 4.300000e-01    2.530000e+00
 SP6dq   X3v  1 4.300000e-01    2.530000e+00
 SP6dq   X2v  1 4.300000e-01    2.320000e+00
 SP6dq   X1v  1 4.300000e-01    2.160000e+00
 SP5dq   C6v  1 4.300000e-01    2.320000e+00
 SP5dq   C5v  1 4.300000e-01    2.320000e+00
 SP5dq   C4v  1 4.300000e-01    2.160000e+00
 SP5dq   C3v  1 4.300000e-01    1.930000e+00
 SP5dq   C2v  1 4.300000e-01    1.930000e+00
 SP5dq   C1v  1 4.300000e-01    1.730000e+00
 SP5dq   X4v  1 4.300000e-01    2.920000e+00
 SP5dq   X3v  1 4.300000e-01    2.530000e+00
 SP5dq   X2v  1 4.300000e-01    2.530000e+00
 SP5dq   X1v  1 4.300000e-01    2.160000e+00
 SP4dq   C6v  1 4.300000e-01    2.530000e+00
 SP4dq   C5v  1 4.300000e-01    2.320000e+00
 SP4dq   C4v  1 4.300000e-01    2.160000e+00
 SP4dq   C3v  1 4.300000e-01    1.930000e+00
 SP4dq   C2v  1 4.300000e-01    1.930000e+00
 SP4dq   C1v  1 4.300000e-01    1.730000e+00
 SP4dq   X4v  1 4.300000e-01    2.920000e+00
 SP4dq   X3v  1 4.300000e-01    2.530000e+00
 SP4dq   X2v  1 4.300000e-01    2.530000e+00
 SP4dq   X1v  1 4.300000e-01    2.320000e+00
 SP3dq   C6v  1 4.300000e-01    2.920000e+00
 SP3dq   C5v  1 4.300000e-01    2.530000e+00
 SP3dq   C4v  1 4.300000e-01    2.320000e+00
 SP3dq   C3v  1 4.300000e-01    1.930000e+00
 SP3dq   C2v  1 4.300000e-01    1.930000e+00
 SP3dq   C1v  1 4.300000e-01    1.730000e+00
 SP3dq   X4v  1 4.300000e-01    2.920000e+00
 SP3dq   X3v  1 4.300000e-01    2.920000e+00
 SP3dq   X2v  1 4.300000e-01    2.530000e+00
 SP3dq   X1v  1 4.300000e-01    2.320000e+00
 SP2dq   C6v  1 4.300000e-01    2.920000e+00
 SP2dq   C5v  1 4.300000e-01    2.530000e+00
 SP2dq   C4v  1 4.300000e-01    2.320000e+00
 SP2dq   C3v  1 4.300000e-01    2.160000e+00
 SP2dq   C2v  1 4.300000e-01    2.160000e+00
 SP2dq   C1v  1 4.300000e-01    1.930000e+00
 SP2dq   X4v  1 4.300000e-01    2.920000e+00
 SP2dq   X3v  1 4.300000e-01    2.920000e+00
 SP2dq   X2v  1 4.300000e-01    2.530000e+00
 SP2dq   X1v  1 4.300000e-01    2.320000e+00
 SP1dq   C6v  1 4.300000e-01    2.920000e+00
 SP1dq   C5v  1 4.300000e-01    2.530000e+00
 SP1dq   C4v  1 4.300000e-01    2.320000e+00
 SP1dq   C3v  1 4.300000e-01    2.160000e+00
 SP1dq   C2v  1 4.300000e-01    2.160000e+00
 SP1dq   C1v  1 4.300000e-01    1.930000e+00
 SP1dq   X4v  1 4.300000e-01    2.920000e+00
 SP1dq   X3v  1 4.300000e-01    2.920000e+00
 SP1dq   X2v  1 4.300000e-01    2.530000e+00
 SP1dq   X1v  1 4.300000e-01    2.320000e+00
 SN6dq   C6v  1 4.300000e-01    2.930000e+00
 SN6dq   C5v  1 4.300000e-01    2.920000e+00
 SN6dq   C4v  1 4.300000e-01    2.530000e+00
 SN6dq   C3v  1 4.300000e-01    2.320000e+00
 SN6dq   C2v  1 4.300000e-01    2.320000e+00
 SN6dq   C1v  1 4.300000e-01    2.160000e+00
 SN6dq   X4v  1 4.300000e-01    2.930000e+00
 SN6dq   X3v  1 4.300000e-01    2.920000e+00
 SN6dq   X2v  1 4.300000e-01    2.530000e+00
 SN6dq   X1v  1 4.300000e-01    2.320000e+00
 SN5dq   C6v  1 4.300000e-01    2.930000e+00
 SN5dq   C5v  1 4.300000e-01    2.920000e+00
 SN5dq   C4v  1 4.300000e-01    2.530000e+00
 SN5dq   C3v  1 4.300000e-01    2.530000e+00
 SN5dq   C2v  1 4.300000e-01    2.320000e+00
 SN5dq   C1v  1 4.300000e-01    2.160000e+00
 SN5dq   X4v  1 4.300000e-01    3.160000e+00
 SN5dq   X3v  1 4.300000e-01    2.930000e+00
 SN5dq   X2v  1 4.300000e-01    2.920000e+00
 SN5dq   X1v  1 4.300000e-01    2.530000e+00
 SN4dq   C6v  1 4.300000e-01    2.930000e+00
 SN4dq   C5v  1 4.300000e-01    2.920000e+00
 SN4dq   C4v  1 4.300000e-01    2.920000e+00
 SN4dq   C3v  1 4.300000e-01    2.530000e+00
 SN4dq   C2v  1 4.300000e-01    2.320000e+00
 SN4dq   C1v  1 4.300000e-01    2.160000e+00
 SN4dq   X4v  1 4.300000e-01    3.380000e+00
 SN4dq   X3v  1 4.300000e-01    3.160000e+00
 SN4dq   X2v  1 4.300000e-01    2.920000e+00
 SN4dq   X1v  1 4.300000e-01    2.530000e+00
 SN3dq   C6v  1 4.300000e-01    2.930000e+00
 SN3dq   C5v  1 4.300000e-01    2.920000e+00
 SN3dq   C4v  1 4.300000e-01    2.920000e+00
 SN3dq   C3v  1 4.300000e-01    2.530000e+00
 SN3dq   C2v  1 4.300000e-01    2.530000e+00
 SN3dq   C1v  1 4.300000e-01    2.320000e+00
 SN3dq   X4v  1 4.300000e-01    3.160000e+00
 SN3dq   X3v  1 4.300000e-01    2.930000e+00
 SN3dq   X2v  1 4.300000e-01    2.920000e+00
 SN3dq   X1v  1 4.300000e-01    2.920000e+00
 SN2dq   C6v  1 4.300000e-01    2.930000e+00
 SN2dq   C5v  1 4.300000e-01    2.920000e+00
 SN2dq   C4v  1 4.300000e-01    2.920000e+00
 SN2dq   C3v  1 4.300000e-01    2.920000e+00
 SN2dq   C2v  1 4.300000e-01    2.530000e+00
 SN2dq   C1v  1 4.300000e-01    2.320000e+00
 SN2dq   X4v  1 4.300000e-01    3.160000e+00
 SN2dq   X3v  1 4.300000e-01    2.930000e+00
 SN2dq   X2v  1 4.300000e-01    2.920000e+00
 SN2dq   X1v  1 4.300000e-01    2.920000e+00
 SN1dq   C6v  1 4.300000e-01    3.160000e+00
 SN1dq   C5v  1 4.300000e-01    2.930000e+00
 SN1dq   C4v  1 4.300000e-01    2.930000e+00
 SN1dq   C3v  1 4.300000e-01    2.920000e+00
 SN1dq   C2v  1 4.300000e-01    2.530000e+00
 SN1dq   C1v  1 4.300000e-01    2.320000e+00
 SN1dq   X4v  1 4.300000e-01    2.930000e+00
 SN1dq   X3v  1 4.300000e-01    2.930000e+00
 SN1dq   X2v  1 4.300000e-01    2.920000e+00
 SN1dq   X1v  1 4.300000e-01    2.920000e+00
  P6dq SC6vq  1 4.300000e-01    2.320000e+00
  P6dq SC5vq  1 4.300000e-01    2.160000e+00
  P6dq SC4vq  1 4.300000e-01    1.930000e+00
  P6dq SC3vq  1 4.300000e-01    1.730000e+00
  P6dq SC2vq  1 4.300000e-01    1.730000e+00
  P6dq SC1vq  1 4.730000e-01    1.280000e+00
  P6dq SX4vq  1 4.300000e-01    2.530000e+00
  P6dq SX3vq  1 4.300000e-01    2.530000e+00
  P6dq SX2vq  1 4.300000e-01    2.320000e+00
  P6dq SX1vq  1 4.300000e-01    2.160000e+00
  P5dq SC6vq  1 4.300000e-01    2.320000e+00
  P5dq SC5vq  1 4.300000e-01    2.320000e+00
  P5dq SC4vq  1 4.300000e-01    2.160000e+00
  P5dq SC3vq  1 4.300000e-01    1.930000e+00
  P5dq SC2vq  1 4.300000e-01    1.930000e+00
  P5dq SC1vq  1 4.300000e-01    1.730000e+00
  P5dq SX4vq  1 4.300000e-01    2.920000e+00
  P5dq SX3vq  1 4.300000e-01    2.530000e+00
  P5dq SX2vq  1 4.300000e-01    2.530000e+00
  P5dq SX1vq  1 4.300000e-01    2.160000e+00
  P4dq SC6vq  1 4.300000e-01    2.530000e+00
  P4dq SC5vq  1 4.300000e-01    2.320000e+00
  P4dq SC4vq  1 4.300000e-01    2.160000e+00
  P4dq SC3vq  1 4.300000e-01    1.930000e+00
  P4dq SC2vq  1 4.300000e-01    1.930000e+00
  P4dq SC1vq  1 4.300000e-01    1.730000e+00
  P4dq SX4vq  1 4.300000e-01    2.920000e+00
  P4dq SX3vq  1 4.300000e-01    2.530000e+00
  P4dq SX2vq  1 4.300000e-01    2.530000e+00
  P4dq SX1vq  1 4.300000e-01    2.320000e+00
  P3dq SC6vq  1 4.300000e-01    2.920000e+00
  P3dq SC5vq  1 4.300000e-01    2.530000e+00
  P3dq SC4vq  1 4.300000e-01    2.320000e+00
  P3dq SC3vq  1 4.300000e-01    1.930000e+00
  P3dq SC2vq  1 4.300000e-01    1.930000e+00
  P3dq SC1vq  1 4.300000e-01    1.730000e+00
  P3dq SX4vq  1 4.300000e-01    2.920000e+00
  P3dq SX3vq  1 4.300000e-01    2.920000e+00
  P3dq SX2vq  1 4.300000e-01    2.530000e+00
  P3dq SX1vq  1 4.300000e-01    2.320000e+00
  P2dq SC6vq  1 4.300000e-01    2.920000e+00
  P2dq SC5vq  1 4.300000e-01    2.530000e+00
  P2dq SC4vq  1 4.300000e-01    2.320000e+00
  P2dq SC3vq  1 4.300000e-01    2.160000e+00
  P2dq SC2vq  1 4.300000e-01    2.160000e+00
  P2dq SC1vq  1 4.300000e-01    1.930000e+00
  P2dq SX4vq  1 4.300000e-01    2.920000e+00
  P2dq SX3vq  1 4.300000e-01    2.920000e+00
  P2dq SX2vq  1 4.300000e-01    2.530000e+00
  P2dq SX1vq  1 4.300000e-01    2.320000e+00
  P1dq SC6vq  1 4.300000e-01    2.920000e+00
  P1dq SC5vq  1 4.300000e-01    2.530000e+00
  P1dq SC4vq  1 4.300000e-01    2.320000e+00
  P1dq SC3vq  1 4.300000e-01    2.160000e+00
  P1dq SC2vq  1 4.300000e-01    2.160000e+00
  P1dq SC1vq  1 4.300000e-01    1.930000e+00
  P1dq SX4vq  1 4.300000e-01    2.920000e+00
  P1dq SX3vq  1 4.300000e-01    2.920000e+00
  P1dq SX2vq  1 4.300000e-01    2.530000e+00
  P1dq SX1vq  1 4.300000e-01    2.320000e+00
  N6dq SC6vq  1 4.300000e-01    2.930000e+00
  N6dq SC5vq  1 4.300000e-01    2.920000e+00
  N6dq SC4vq  1 4.300000e-01    2.530000e+00
  N6dq SC3vq  1 4.300000e-01    2.320000e+00
  N6dq SC2vq  1 4.300000e-01    2.320000e+00
  N6dq SC1vq  1 4.300000e-01    2.160000e+00
  N6dq SX4vq  1 4.300000e-01    2.930000e+00
  N6dq SX3vq  1 4.300000e-01    2.920000e+00
  N6dq SX2vq  1 4.300000e-01    2.530000e+00
  N6dq SX1vq  1 4.300000e-01    2.320000e+00
  N5dq SC6vq  1 4.300000e-01    2.930000e+00
  N5dq SC5vq  1 4.300000e-01    2.920000e+00
  N5dq SC4vq  1 4.300000e-01    2.530000e+00
  N5dq SC3vq  1 4.300000e-01    2.530000e+00
  N5dq SC2vq  1 4.300000e-01    2.320000e+00
  N5dq SC1vq  1 4.300000e-01    2.160000e+00
  N5dq SX4vq  1 4.300000e-01    3.160000e+00
  N5dq SX3vq  1 4.300000e-01    2.930000e+00
  N5dq SX2vq  1 4.300000e-01    2.920000e+00
  N5dq SX1vq  1 4.300000e-01    2.530000e+00
  N4dq SC6vq  1 4.300000e-01    2.930000e+00
  N4dq SC5vq  1 4.300000e-01    2.920000e+00
  N4dq SC4vq  1 4.300000e-01    2.920000e+00
  N4dq SC3vq  1 4.300000e-01    2.530000e+00
  N4dq SC2vq  1 4.300000e-01    2.320000e+00
  N4dq SC1vq  1 4.300000e-01    2.160000e+00
  N4dq SX4vq  1 4.300000e-01    3.380000e+00
  N4dq SX3vq  1 4.300000e-01    3.160000e+00
  N4dq SX2vq  1 4.300000e-01    2.920000e+00
  N4dq SX1vq  1 4.300000e-01    2.530000e+00
  N3dq SC6vq  1 4.300000e-01    2.930000e+00
  N3dq SC5vq  1 4.300000e-01    2.920000e+00
  N3dq SC4vq  1 4.300000e-01    2.920000e+00
  N3dq SC3vq  1 4.300000e-01    2.530000e+00
  N3dq SC2vq  1 4.300000e-01    2.530000e+00
  N3dq SC1vq  1 4.300000e-01    2.320000e+00
  N3dq SX4vq  1 4.300000e-01    3.160000e+00
  N3dq SX3vq  1 4.300000e-01    2.930000e+00
  N3dq SX2vq  1 4.300000e-01    2.920000e+00
  N3dq SX1vq  1 4.300000e-01    2.920000e+00
  N2dq SC6vq  1 4.300000e-01    2.930000e+00
  N2dq SC5vq  1 4.300000e-01    2.920000e+00
  N2dq SC4vq  1 4.300000e-01    2.920000e+00
  N2dq SC3vq  1 4.300000e-01    2.920000e+00
  N2dq SC2vq  1 4.300000e-01    2.530000e+00
  N2dq SC1vq  1 4.300000e-01    2.320000e+00
  N2dq SX4vq  1 4.300000e-01    3.160000e+00
  N2dq SX3vq  1 4.300000e-01    2.930000e+00
  N2dq SX2vq  1 4.300000e-01    2.920000e+00
  N2dq SX1vq  1 4.300000e-01    2.920000e+00
  N1dq SC6vq  1 4.300000e-01    3.160000e+00
  N1dq SC5vq  1 4.300000e-01    2.930000e+00
  N1dq SC4vq  1 4.300000e-01    2.930000e+00
  N1dq SC3vq  1 4.300000e-01    2.920000e+00
  N1dq SC2vq  1 4.300000e-01    2.530000e+00
  N1dq SC1vq  1 4.300000e-01    2.320000e+00
  N1dq SX4vq  1 4.300000e-01    2.930000e+00
  N1dq SX3vq  1 4.300000e-01    2.930000e+00
  N1dq SX2vq  1 4.300000e-01    2.920000e+00
  N1dq SX1vq  1 4.300000e-01    2.920000e+00
 SP6dq  C6vq  1 4.300000e-01    2.320000e+00
 SP6dq  C5vq  1 4.300000e-01    2.160000e+00
 SP6dq  C4vq  1 4.300000e-01    1.930000e+00
 SP6dq  C3vq  1 4.300000e-01    1.730000e+00
 SP6dq  C2vq  1 4.300000e-01    1.730000e+00
 SP6dq  C1vq  1 4.730000e-01    1.280000e+00
 SP6dq  X4vq  1 4.300000e-01    2.530000e+00
 SP6dq  X3vq  1 4.300000e-01    2.530000e+00
 SP6dq  X2vq  1 4.300000e-01    2.320000e+00
 SP6dq  X1vq  1 4.300000e-01    2.160000e+00
 SP5dq  C6vq  1 4.300000e-01    2.320000e+00
 SP5dq  C5vq  1 4.300000e-01    2.320000e+00
 SP5dq  C4vq  1 4.300000e-01    2.160000e+00
 SP5dq  C3vq  1 4.300000e-01    1.930000e+00
 SP5dq  C2vq  1 4.300000e-01    1.930000e+00
 SP5dq  C1vq  1 4.300000e-01    1.730000e+00
 SP5dq  X4vq  1 4.300000e-01    2.920000e+00
 SP5dq  X3vq  1 4.300000e-01    2.530000e+00
 SP5dq  X2vq  1 4.300000e-01    2.530000e+00
 SP5dq  X1vq  1 4.300000e-01    2.160000e+00
 SP4dq  C6vq  1 4.300000e-01    2.530000e+00
 SP4dq  C5vq  1 4.300000e-01    2.320000e+00
 SP4dq  C4vq  1 4.300000e-01    2.160000e+00
 SP4dq  C3vq  1 4.300000e-01    1.930000e+00
 SP4dq  C2vq  1 4.300000e-01    1.930000e+00
 SP4dq  C1vq  1 4.300000e-01    1.730000e+00
 SP4dq  X4vq  1 4.300000e-01    2.920000e+00
 SP4dq  X3vq  1 4.300000e-01    2.530000e+00
 SP4dq  X2vq  1 4.300000e-01    2.530000e+00
 SP4dq  X1vq  1 4.300000e-01    2.320000e+00
 SP3dq  C6vq  1 4.300000e-01    2.920000e+00
 SP3dq  C5vq  1 4.300000e-01    2.530000e+00
 SP3dq  C4vq  1 4.300000e-01    2.320000e+00
 SP3dq  C3vq  1 4.300000e-01    1.930000e+00
 SP3dq  C2vq  1 4.300000e-01    1.930000e+00
 SP3dq  C1vq  1 4.300000e-01    1.730000e+00
 SP3dq  X4vq  1 4.300000e-01    2.920000e+00
 SP3dq  X3vq  1 4.300000e-01    2.920000e+00
 SP3dq  X2vq  1 4.300000e-01    2.530000e+00
 SP3dq  X1vq  1 4.300000e-01    2.320000e+00
 SP2dq  C6vq  1 4.300000e-01    2.920000e+00
 SP2dq  C5vq  1 4.300000e-01    2.530000e+00
 SP2dq  C4vq  1 4.300000e-01    2.320000e+00
 SP2dq  C3vq  1 4.300000e-01    2.160000e+00
 SP2dq  C2vq  1 4.300000e-01    2.160000e+00
 SP2dq  C1vq  1 4.300000e-01    1.930000e+00
 SP2dq  X4vq  1 4.300000e-01    2.920000e+00
 SP2dq  X3vq  1 4.300000e-01    2.920000e+00
 SP2dq  X2vq  1 4.300000e-01    2.530000e+00
 SP2dq  X1vq  1 4.300000e-01    2.320000e+00
 SP1dq  C6vq  1 4.300000e-01    2.920000e+00
 SP1dq  C5vq  1 4.300000e-01    2.530000e+00
 SP1dq  C4vq  1 4.300000e-01    2.320000e+00
 SP1dq  C3vq  1 4.300000e-01    2.160000e+00
 SP1dq  C2vq  1 4.300000e-01    2.160000e+00
 SP1dq  C1vq  1 4.300000e-01    1.930000e+00
 SP1dq  X4vq  1 4.300000e-01    2.920000e+00
 SP1dq  X3vq  1 4.300000e-01    2.920000e+00
 SP1dq  X2vq  1 4.300000e-01    2.530000e+00
 SP1dq  X1vq  1 4.300000e-01    2.320000e+00
 SN6dq  C6vq  1 4.300000e-01    2.930000e+00
 SN6dq  C5vq  1 4.300000e-01    2.920000e+00
 SN6dq  C4vq  1 4.300000e-01    2.530000e+00
 SN6dq  C3vq  1 4.300000e-01    2.320000e+00
 SN6dq  C2vq  1 4.300000e-01    2.320000e+00
 SN6dq  C1vq  1 4.300000e-01    2.160000e+00
 SN6dq  X4vq  1 4.300000e-01    2.930000e+00
 SN6dq  X3vq  1 4.300000e-01    2.920000e+00
 SN6dq  X2vq  1 4.300000e-01    2.530000e+00
 SN6dq  X1vq  1 4.300000e-01    2.320000e+00
 SN5dq  C6vq  1 4.300000e-01    2.930000e+00
 SN5dq  C5vq  1 4.300000e-01    2.920000e+00
 SN5dq  C4vq  1 4.300000e-01    2.530000e+00
 SN5dq  C3vq  1 4.300000e-01    2.530000e+00
 SN5dq  C2vq  1 4.300000e-01    2.320000e+00
 SN5dq  C1vq  1 4.300000e-01    2.160000e+00
 SN5dq  X4vq  1 4.300000e-01    3.160000e+00
 SN5dq  X3vq  1 4.300000e-01    2.930000e+00
 SN5dq  X2vq  1 4.300000e-01    2.920000e+00
 SN5dq  X1vq  1 4.300000e-01    2.530000e+00
 SN4dq  C6vq  1 4.300000e-01    2.930000e+00
 SN4dq  C5vq  1 4.300000e-01    2.920000e+00
 SN4dq  C4vq  1 4.300000e-01    2.920000e+00
 SN4dq  C3vq  1 4.300000e-01    2.530000e+00
 SN4dq  C2vq  1 4.300000e-01    2.320000e+00
 SN4dq  C1vq  1 4.300000e-01    2.160000e+00
 SN4dq  X4vq  1 4.300000e-01    3.380000e+00
 SN4dq  X3vq  1 4.300000e-01    3.160000e+00
 SN4dq  X2vq  1 4.300000e-01    2.920000e+00
 SN4dq  X1vq  1 4.300000e-01    2.530000e+00
 SN3dq  C6vq  1 4.300000e-01    2.930000e+00
 SN3dq  C5vq  1 4.300000e-01    2.920000e+00
 SN3dq  C4vq  1 4.300000e-01    2.920000e+00
 SN3dq  C3vq  1 4.300000e-01    2.530000e+00
 SN3dq  C2vq  1 4.300000e-01    2.530000e+00
 SN3dq  C1vq  1 4.300000e-01    2.320000e+00
 SN3dq  X4vq  1 4.300000e-01    3.160000e+00
 SN3dq  X3vq  1 4.300000e-01    2.930000e+00
 SN3dq  X2vq  1 4.300000e-01    2.920000e+00
 SN3dq  X1vq  1 4.300000e-01    2.920000e+00
 SN2dq  C6vq  1 4.300000e-01    2.930000e+00
 SN2dq  C5vq  1 4.300000e-01    2.920000e+00
 SN2dq  C4vq  1 4.300000e-01    2.920000e+00
 SN2dq  C3vq  1 4.300000e-01    2.920000e+00
 SN2dq  C2vq  1 4.300000e-01    2.530000e+00
 SN2dq  C1vq  1 4.300000e-01    2.320000e+00
 SN2dq  X4vq  1 4.300000e-01    3.160000e+00
 SN2dq  X3vq  1 4.300000e-01    2.930000e+00
 SN2dq  X2vq  1 4.300000e-01    2.920000e+00
 SN2dq  X1vq  1 4.300000e-01    2.920000e+00
 SN1dq  C6vq  1 4.300000e-01    3.160000e+00
 SN1dq  C5vq  1 4.300000e-01    2.930000e+00
 SN1dq  C4vq  1 4.300000e-01    2.930000e+00
 SN1dq  C3vq  1 4.300000e-01    2.920000e+00
 SN1dq  C2vq  1 4.300000e-01    2.530000e+00
 SN1dq  C1vq  1 4.300000e-01    2.320000e+00
 SN1dq  X4vq  1 4.300000e-01    2.930000e+00
 SN1dq  X3vq  1 4.300000e-01    2.930000e+00
 SN1dq  X2vq  1 4.300000e-01    2.920000e+00
 SN1dq  X1vq  1 4.300000e-01    2.920000e+00
  P6dq SC6vh  1 4.300000e-01    2.320000e+00
  P5dq SC6vh  1 4.300000e-01    2.320000e+00
  P4dq SC6vh  1 4.300000e-01    2.530000e+00
  P3dq SC6vh  1 4.300000e-01    2.920000e+00
  P2dq SC6vh  1 4.300000e-01    2.920000e+00
  P1dq SC6vh  1 4.300000e-01    2.920000e+00
  N6dq SC6vh  1 4.300000e-01    2.930000e+00
  N5dq SC6vh  1 4.300000e-01    2.930000e+00
  N4dq SC6vh  1 4.300000e-01    2.930000e+00
  N3dq SC6vh  1 4.300000e-01    2.930000e+00
  N2dq SC6vh  1 4.300000e-01    2.930000e+00
  N1dq SC6vh  1 4.300000e-01    3.160000e+00
  P6dq SC5vh  1 4.300000e-01    2.160000e+00
  P5dq SC5vh  1 4.300000e-01    2.320000e+00
  P4dq SC5vh  1 4.300000e-01    2.320000e+00
  P3dq SC5vh  1 4.300000e-01    2.530000e+00
  P2dq SC5vh  1 4.300000e-01    2.530000e+00
  P1dq SC5vh  1 4.300000e-01    2.530000e+00
  N6dq SC5vh  1 4.300000e-01    2.920000e+00
  N5dq SC5vh  1 4.300000e-01    2.920000e+00
  N4dq SC5vh  1 4.300000e-01    2.920000e+00
  N3dq SC5vh  1 4.300000e-01    2.920000e+00
  N2dq SC5vh  1 4.300000e-01    2.920000e+00
  N1dq SC5vh  1 4.300000e-01    2.930000e+00
  P6dq SC4vh  1 4.300000e-01    1.930000e+00
  P5dq SC4vh  1 4.300000e-01    2.160000e+00
  P4dq SC4vh  1 4.300000e-01    2.160000e+00
  P3dq SC4vh  1 4.300000e-01    2.320000e+00
  P2dq SC4vh  1 4.300000e-01    2.320000e+00
  P1dq SC4vh  1 4.300000e-01    2.320000e+00
  N6dq SC4vh  1 4.300000e-01    2.530000e+00
  N5dq SC4vh  1 4.300000e-01    2.530000e+00
  N4dq SC4vh  1 4.300000e-01    2.920000e+00
  N3dq SC4vh  1 4.300000e-01    2.920000e+00
  N2dq SC4vh  1 4.300000e-01    2.920000e+00
  N1dq SC4vh  1 4.300000e-01    2.930000e+00
  P6dq SC3vh  1 4.300000e-01    1.730000e+00
  P5dq SC3vh  1 4.300000e-01    1.930000e+00
  P4dq SC3vh  1 4.300000e-01    1.930000e+00
  P3dq SC3vh  1 4.300000e-01    1.930000e+00
  P2dq SC3vh  1 4.300000e-01    2.160000e+00
  P1dq SC3vh  1 4.300000e-01    2.160000e+00
  N6dq SC3vh  1 4.300000e-01    2.320000e+00
  N5dq SC3vh  1 4.300000e-01    2.530000e+00
  N4dq SC3vh  1 4.300000e-01    2.530000e+00
  N3dq SC3vh  1 4.300000e-01    2.530000e+00
  N2dq SC3vh  1 4.300000e-01    2.920000e+00
  N1dq SC3vh  1 4.300000e-01    2.920000e+00
  P6dq SC2vh  1 4.300000e-01    1.730000e+00
  P5dq SC2vh  1 4.300000e-01    1.930000e+00
  P4dq SC2vh  1 4.300000e-01    1.930000e+00
  P3dq SC2vh  1 4.300000e-01    1.930000e+00
  P2dq SC2vh  1 4.300000e-01    2.160000e+00
  P1dq SC2vh  1 4.300000e-01    2.160000e+00
  N6dq SC2vh  1 4.300000e-01    2.320000e+00
  N5dq SC2vh  1 4.300000e-01    2.320000e+00
  N4dq SC2vh  1 4.300000e-01    2.320000e+00
  N3dq SC2vh  1 4.300000e-01    2.530000e+00
  N2dq SC2vh  1 4.300000e-01    2.530000e+00
  N1dq SC2vh  1 4.300000e-01    2.530000e+00
  P6dq SC1vh  1 4.730000e-01    1.280000e+00
  P5dq SC1vh  1 4.300000e-01    1.730000e+00
  P4dq SC1vh  1 4.300000e-01    1.730000e+00
  P3dq SC1vh  1 4.300000e-01    1.730000e+00
  P2dq SC1vh  1 4.300000e-01    1.930000e+00
  P1dq SC1vh  1 4.300000e-01    1.930000e+00
  N6dq SC1vh  1 4.300000e-01    2.160000e+00
  N5dq SC1vh  1 4.300000e-01    2.160000e+00
  N4dq SC1vh  1 4.300000e-01    2.160000e+00
  N3dq SC1vh  1 4.300000e-01    2.320000e+00
  N2dq SC1vh  1 4.300000e-01    2.320000e+00
  N1dq SC1vh  1 4.300000e-01    2.320000e+00
  P6dq SX4vh  1 4.300000e-01    2.530000e+00
  P5dq SX4vh  1 4.300000e-01    2.920000e+00
  P4dq SX4vh  1 4.300000e-01    2.920000e+00
  P3dq SX4vh  1 4.300000e-01    2.920000e+00
  P2dq SX4vh  1 4.300000e-01    2.920000e+00
  P1dq SX4vh  1 4.300000e-01    2.920000e+00
  N6dq SX4vh  1 4.300000e-01    2.930000e+00
  N5dq SX4vh  1 4.300000e-01    3.160000e+00
  N4dq SX4vh  1 4.300000e-01    3.380000e+00
  N3dq SX4vh  1 4.300000e-01    3.160000e+00
  N2dq SX4vh  1 4.300000e-01    3.160000e+00
  N1dq SX4vh  1 4.300000e-01    2.930000e+00
  P6dq SX3vh  1 4.300000e-01    2.530000e+00
  P5dq SX3vh  1 4.300000e-01    2.530000e+00
  P4dq SX3vh  1 4.300000e-01    2.530000e+00
  P3dq SX3vh  1 4.300000e-01    2.920000e+00
  P2dq SX3vh  1 4.300000e-01    2.920000e+00
  P1dq SX3vh  1 4.300000e-01    2.920000e+00
  N6dq SX3vh  1 4.300000e-01    2.920000e+00
  N5dq SX3vh  1 4.300000e-01    2.930000e+00
  N4dq SX3vh  1 4.300000e-01    3.160000e+00
  N3dq SX3vh  1 4.300000e-01    2.930000e+00
  N2dq SX3vh  1 4.300000e-01    2.930000e+00
  N1dq SX3vh  1 4.300000e-01    2.930000e+00
  P6dq SX2vh  1 4.300000e-01    2.320000e+00
  P5dq SX2vh  1 4.300000e-01    2.530000e+00
  P4dq SX2vh  1 4.300000e-01    2.530000e+00
  P3dq SX2vh  1 4.300000e-01    2.530000e+00
  P2dq SX2vh  1 4.300000e-01    2.530000e+00
  P1dq SX2vh  1 4.300000e-01    2.530000e+00
  N6dq SX2vh  1 4.300000e-01    2.530000e+00
  N5dq SX2vh  1 4.300000e-01    2.920000e+00
  N4dq SX2vh  1 4.300000e-01    2.920000e+00
  N3dq SX2vh  1 4.300000e-01    2.920000e+00
  N2dq SX2vh  1 4.300000e-01    2.920000e+00
  N1dq SX2vh  1 4.300000e-01    2.920000e+00
  P6dq SX1vh  1 4.300000e-01    2.160000e+00
  P5dq SX1vh  1 4.300000e-01    2.160000e+00
  P4dq SX1vh  1 4.300000e-01    2.320000e+00
  P3dq SX1vh  1 4.300000e-01    2.320000e+00
  P2dq SX1vh  1 4.300000e-01    2.320000e+00
  P1dq SX1vh  1 4.300000e-01    2.320000e+00
  N6dq SX1vh  1 4.300000e-01    2.320000e+00
  N5dq SX1vh  1 4.300000e-01    2.530000e+00
  N4dq SX1vh  1 4.300000e-01    2.530000e+00
  N3dq SX1vh  1 4.300000e-01    2.920000e+00
  N2dq SX1vh  1 4.300000e-01    2.920000e+00
  N1dq SX1vh  1 4.300000e-01    2.920000e+00
 SP6dq  C6vh  1 4.300000e-01    2.320000e+00
 SP5dq  C6vh  1 4.300000e-01    2.320000e+00
 SP4dq  C6vh  1 4.300000e-01    2.530000e+00
 SP3dq  C6vh  1 4.300000e-01    2.920000e+00
 SP2dq  C6vh  1 4.300000e-01    2.920000e+00
 SP1dq  C6vh  1 4.300000e-01    2.920000e+00
 SN6dq  C6vh  1 4.300000e-01    2.930000e+00
 SN5dq  C6vh  1 4.300000e-01    2.930000e+00
 SN4dq  C6vh  1 4.300000e-01    2.930000e+00
 SN3dq  C6vh  1 4.300000e-01    2.930000e+00
 SN2dq  C6vh  1 4.300000e-01    2.930000e+00
 SN1dq  C6vh  1 4.300000e-01    3.160000e+00
 SP6dq  C5vh  1 4.300000e-01    2.160000e+00
 SP5dq  C5vh  1 4.300000e-01    2.320000e+00
 SP4dq  C5vh  1 4.300000e-01    2.320000e+00
 SP3dq  C5vh  1 4.300000e-01    2.530000e+00
 SP2dq  C5vh  1 4.300000e-01    2.530000e+00
 SP1dq  C5vh  1 4.300000e-01    2.530000e+00
 SN6dq  C5vh  1 4.300000e-01    2.920000e+00
 SN5dq  C5vh  1 4.300000e-01    2.920000e+00
 SN4dq  C5vh  1 4.300000e-01    2.920000e+00
 SN3dq  C5vh  1 4.300000e-01    2.920000e+00
 SN2dq  C5vh  1 4.300000e-01    2.920000e+00
 SN1dq  C5vh  1 4.300000e-01    2.930000e+00
 SP6dq  C4vh  1 4.300000e-01    1.930000e+00
 SP5dq  C4vh  1 4.300000e-01    2.160000e+00
 SP4dq  C4vh  1 4.300000e-01    2.160000e+00
 SP3dq  C4vh  1 4.300000e-01    2.320000e+00
 SP2dq  C4vh  1 4.300000e-01    2.320000e+00
 SP1dq  C4vh  1 4.300000e-01    2.320000e+00
 SN6dq  C4vh  1 4.300000e-01    2.530000e+00
 SN5dq  C4vh  1 4.300000e-01    2.530000e+00
 SN4dq  C4vh  1 4.300000e-01    2.920000e+00
 SN3dq  C4vh  1 4.300000e-01    2.920000e+00
 SN2dq  C4vh  1 4.300000e-01    2.920000e+00
 SN1dq  C4vh  1 4.300000e-01    2.930000e+00
 SP6dq  C3vh  1 4.300000e-01    1.730000e+00
 SP5dq  C3vh  1 4.300000e-01    1.930000e+00
 SP4dq  C3vh  1 4.300000e-01    1.930000e+00
 SP3dq  C3vh  1 4.300000e-01    1.930000e+00
 SP2dq  C3vh  1 4.300000e-01    2.160000e+00
 SP1dq  C3vh  1 4.300000e-01    2.160000e+00
 SN6dq  C3vh  1 4.300000e-01    2.320000e+00
 SN5dq  C3vh  1 4.300000e-01    2.530000e+00
 SN4dq  C3vh  1 4.300000e-01    2.530000e+00
 SN3dq  C3vh  1 4.300000e-01    2.530000e+00
 SN2dq  C3vh  1 4.300000e-01    2.920000e+00
 SN1dq  C3vh  1 4.300000e-01    2.920000e+00
 SP6dq  C2vh  1 4.300000e-01    1.730000e+00
 SP5dq  C2vh  1 4.300000e-01    1.930000e+00
 SP4dq  C2vh  1 4.300000e-01    1.930000e+00
 SP3dq  C2vh  1 4.300000e-01    1.930000e+00
 SP2dq  C2vh  1 4.300000e-01    2.160000e+00
 SP1dq  C2vh  1 4.300000e-01    2.160000e+00
 SN6dq  C2vh  1 4.300000e-01    2.320000e+00
 SN5dq  C2vh  1 4.300000e-01    2.320000e+00
 SN4dq  C2vh  1 4.300000e-01    2.320000e+00
 SN3dq  C2vh  1 4.300000e-01    2.530000e+00
 SN2dq  C2vh  1 4.300000e-01    2.530000e+00
 SN1dq  C2vh  1 4.300000e-01    2.530000e+00
 SP6dq  C1vh  1 4.730000e-01    1.280000e+00
 SP5dq  C1vh  1 4.300000e-01    1.730000e+00
 SP4dq  C1vh  1 4.300000e-01    1.730000e+00
 SP3dq  C1vh  1 4.300000e-01    1.730000e+00
 SP2dq  C1vh  1 4.300000e-01    1.930000e+00
 SP1dq  C1vh  1 4.300000e-01    1.930000e+00
 SN6dq  C1vh  1 4.300000e-01    2.160000e+00
 SN5dq  C1vh  1 4.300000e-01    2.160000e+00
 SN4dq  C1vh  1 4.300000e-01    2.160000e+00
 SN3dq  C1vh  1 4.300000e-01    2.320000e+00
 SN2dq  C1vh  1 4.300000e-01    2.320000e+00
 SN1dq  C1vh  1 4.300000e-01    2.320000e+00
 SP6dq  X4vh  1 4.300000e-01    2.530000e+00
 SP5dq  X4vh  1 4.300000e-01    2.920000e+00
 SP4dq  X4vh  1 4.300000e-01    2.920000e+00
 SP3dq  X4vh  1 4.300000e-01    2.920000e+00
 SP2dq  X4vh  1 4.300000e-01    2.920000e+00
 SP1dq  X4vh  1 4.300000e-01    2.920000e+00
 SN6dq  X4vh  1 4.300000e-01    2.930000e+00
 SN5dq  X4vh  1 4.300000e-01    3.160000e+00
 SN4dq  X4vh  1 4.300000e-01    3.380000e+00
 SN3dq  X4vh  1 4.300000e-01    3.160000e+00
 SN2dq  X4vh  1 4.300000e-01    3.160000e+00
 SN1dq  X4vh  1 4.300000e-01    2.930000e+00
 SP6dq  X3vh  1 4.300000e-01    2.530000e+00
 SP5dq  X3vh  1 4.300000e-01    2.530000e+00
 SP4dq  X3vh  1 4.300000e-01    2.530000e+00
 SP3dq  X3vh  1 4.300000e-01    2.920000e+00
 SP2dq  X3vh  1 4.300000e-01    2.920000e+00
 SP1dq  X3vh  1 4.300000e-01    2.920000e+00
 SN6dq  X3vh  1 4.300000e-01    2.920000e+00
 SN5dq  X3vh  1 4.300000e-01    2.930000e+00
 SN4dq  X3vh  1 4.300000e-01    3.160000e+00
 SN3dq  X3vh  1 4.300000e-01    2.930000e+00
 SN2dq  X3vh  1 4.300000e-01    2.930000e+00
 SN1dq  X3vh  1 4.300000e-01    2.930000e+00
 SP6dq  X2vh  1 4.300000e-01    2.320000e+00
 SP5dq  X2vh  1 4.300000e-01    2.530000e+00
 SP4dq  X2vh  1 4.300000e-01    2.530000e+00
 SP3dq  X2vh  1 4.300000e-01    2.530000e+00
 SP2dq  X2vh  1 4.300000e-01    2.530000e+00
 SP1dq  X2vh  1 4.300000e-01    2.530000e+00
 SN6dq  X2vh  1 4.300000e-01    2.530000e+00
 SN5dq  X2vh  1 4.300000e-01    2.920000e+00
 SN4dq  X2vh  1 4.300000e-01    2.920000e+00
 SN3dq  X2vh  1 4.300000e-01    2.920000e+00
 SN2dq  X2vh  1 4.300000e-01    2.920000e+00
 SN1dq  X2vh  1 4.300000e-01    2.920000e+00
 SP6dq  X1vh  1 4.300000e-01    2.160000e+00
 SP5dq  X1vh  1 4.300000e-01    2.160000e+00
 SP4dq  X1vh  1 4.300000e-01    2.320000e+00
 SP3dq  X1vh  1 4.300000e-01    2.320000e+00
 SP2dq  X1vh  1 4.300000e-01    2.320000e+00
 SP1dq  X1vh  1 4.300000e-01    2.320000e+00
 SN6dq  X1vh  1 4.300000e-01    2.320000e+00
 SN5dq  X1vh  1 4.300000e-01    2.530000e+00
 SN4dq  X1vh  1 4.300000e-01    2.530000e+00
 SN3dq  X1vh  1 4.300000e-01    2.920000e+00
 SN2dq  X1vh  1 4.300000e-01    2.920000e+00
 SN1dq  X1vh  1 4.300000e-01    2.920000e+00
  P6dq SC6vr  1 4.300000e-01    2.320000e+00
  P5dq SC6vr  1 4.300000e-01    2.320000e+00
  P4dq SC6vr  1 4.300000e-01    2.530000e+00
  P3dq SC6vr  1 4.300000e-01    2.920000e+00
  P2dq SC6vr  1 4.300000e-01    2.920000e+00
  P1dq SC6vr  1 4.300000e-01    2.920000e+00
  N6dq SC6vr  1 4.300000e-01    2.930000e+00
  N5dq SC6vr  1 4.300000e-01    2.930000e+00
  N4dq SC6vr  1 4.300000e-01    2.930000e+00
  N3dq SC6vr  1 4.300000e-01    2.930000e+00
  N2dq SC6vr  1 4.300000e-01    2.930000e+00
  N1dq SC6vr  1 4.300000e-01    3.160000e+00
  P6dq SC5vr  1 4.300000e-01    2.160000e+00
  P5dq SC5vr  1 4.300000e-01    2.320000e+00
  P4dq SC5vr  1 4.300000e-01    2.320000e+00
  P3dq SC5vr  1 4.300000e-01    2.530000e+00
  P2dq SC5vr  1 4.300000e-01    2.530000e+00
  P1dq SC5vr  1 4.300000e-01    2.530000e+00
  N6dq SC5vr  1 4.300000e-01    2.920000e+00
  N5dq SC5vr  1 4.300000e-01    2.920000e+00
  N4dq SC5vr  1 4.300000e-01    2.920000e+00
  N3dq SC5vr  1 4.300000e-01    2.920000e+00
  N2dq SC5vr  1 4.300000e-01    2.920000e+00
  N1dq SC5vr  1 4.300000e-01    2.930000e+00
  P6dq SC4vr  1 4.300000e-01    1.930000e+00
  P5dq SC4vr  1 4.300000e-01    2.160000e+00
  P4dq SC4vr  1 4.300000e-01    2.160000e+00
  P3dq SC4vr  1 4.300000e-01    2.320000e+00
  P2dq SC4vr  1 4.300000e-01    2.320000e+00
  P1dq SC4vr  1 4.300000e-01    2.320000e+00
  N6dq SC4vr  1 4.300000e-01    2.530000e+00
  N5dq SC4vr  1 4.300000e-01    2.530000e+00
  N4dq SC4vr  1 4.300000e-01    2.920000e+00
  N3dq SC4vr  1 4.300000e-01    2.920000e+00
  N2dq SC4vr  1 4.300000e-01    2.920000e+00
  N1dq SC4vr  1 4.300000e-01    2.930000e+00
  P6dq SC3vr  1 4.300000e-01    1.730000e+00
  P5dq SC3vr  1 4.300000e-01    1.930000e+00
  P4dq SC3vr  1 4.300000e-01    1.930000e+00
  P3dq SC3vr  1 4.300000e-01    1.930000e+00
  P2dq SC3vr  1 4.300000e-01    2.160000e+00
  P1dq SC3vr  1 4.300000e-01    2.160000e+00
  N6dq SC3vr  1 4.300000e-01    2.320000e+00
  N5dq SC3vr  1 4.300000e-01    2.530000e+00
  N4dq SC3vr  1 4.300000e-01    2.530000e+00
  N3dq SC3vr  1 4.300000e-01    2.530000e+00
  N2dq SC3vr  1 4.300000e-01    2.920000e+00
  N1dq SC3vr  1 4.300000e-01    2.920000e+00
  P6dq SC2vr  1 4.300000e-01    1.730000e+00
  P5dq SC2vr  1 4.300000e-01    1.930000e+00
  P4dq SC2vr  1 4.300000e-01    1.930000e+00
  P3dq SC2vr  1 4.300000e-01    1.930000e+00
  P2dq SC2vr  1 4.300000e-01    2.160000e+00
  P1dq SC2vr  1 4.300000e-01    2.160000e+00
  N6dq SC2vr  1 4.300000e-01    2.320000e+00
  N5dq SC2vr  1 4.300000e-01    2.320000e+00
  N4dq SC2vr  1 4.300000e-01    2.320000e+00
  N3dq SC2vr  1 4.300000e-01    2.530000e+00
  N2dq SC2vr  1 4.300000e-01    2.530000e+00
  N1dq SC2vr  1 4.300000e-01    2.530000e+00
  P6dq SC1vr  1 4.730000e-01    1.280000e+00
  P5dq SC1vr  1 4.300000e-01    1.730000e+00
  P4dq SC1vr  1 4.300000e-01    1.730000e+00
  P3dq SC1vr  1 4.300000e-01    1.730000e+00
  P2dq SC1vr  1 4.300000e-01    1.930000e+00
  P1dq SC1vr  1 4.300000e-01    1.930000e+00
  N6dq SC1vr  1 4.300000e-01    2.160000e+00
  N5dq SC1vr  1 4.300000e-01    2.160000e+00
  N4dq SC1vr  1 4.300000e-01    2.160000e+00
  N3dq SC1vr  1 4.300000e-01    2.320000e+00
  N2dq SC1vr  1 4.300000e-01    2.320000e+00
  N1dq SC1vr  1 4.300000e-01    2.320000e+00
  P6dq SX4vr  1 4.300000e-01    2.530000e+00
  P5dq SX4vr  1 4.300000e-01    2.920000e+00
  P4dq SX4vr  1 4.300000e-01    2.920000e+00
  P3dq SX4vr  1 4.300000e-01    2.920000e+00
  P2dq SX4vr  1 4.300000e-01    2.920000e+00
  P1dq SX4vr  1 4.300000e-01    2.920000e+00
  N6dq SX4vr  1 4.300000e-01    2.930000e+00
  N5dq SX4vr  1 4.300000e-01    3.160000e+00
  N4dq SX4vr  1 4.300000e-01    3.380000e+00
  N3dq SX4vr  1 4.300000e-01    3.160000e+00
  N2dq SX4vr  1 4.300000e-01    3.160000e+00
  N1dq SX4vr  1 4.300000e-01    2.930000e+00
  P6dq SX3vr  1 4.300000e-01    2.530000e+00
  P5dq SX3vr  1 4.300000e-01    2.530000e+00
  P4dq SX3vr  1 4.300000e-01    2.530000e+00
  P3dq SX3vr  1 4.300000e-01    2.920000e+00
  P2dq SX3vr  1 4.300000e-01    2.920000e+00
  P1dq SX3vr  1 4.300000e-01    2.920000e+00
  N6dq SX3vr  1 4.300000e-01    2.920000e+00
  N5dq SX3vr  1 4.300000e-01    2.930000e+00
  N4dq SX3vr  1 4.300000e-01    3.160000e+00
  N3dq SX3vr  1 4.300000e-01    2.930000e+00
  N2dq SX3vr  1 4.300000e-01    2.930000e+00
  N1dq SX3vr  1 4.300000e-01    2.930000e+00
  P6dq SX2vr  1 4.300000e-01    2.320000e+00
  P5dq SX2vr  1 4.300000e-01    2.530000e+00
  P4dq SX2vr  1 4.300000e-01    2.530000e+00
  P3dq SX2vr  1 4.300000e-01    2.530000e+00
  P2dq SX2vr  1 4.300000e-01    2.530000e+00
  P1dq SX2vr  1 4.300000e-01    2.530000e+00
  N6dq SX2vr  1 4.300000e-01    2.530000e+00
  N5dq SX2vr  1 4.300000e-01    2.920000e+00
  N4dq SX2vr  1 4.300000e-01    2.920000e+00
  N3dq SX2vr  1 4.300000e-01    2.920000e+00
  N2dq SX2vr  1 4.300000e-01    2.920000e+00
  N1dq SX2vr  1 4.300000e-01    2.920000e+00
  P6dq SX1vr  1 4.300000e-01    2.160000e+00
  P5dq SX1vr  1 4.300000e-01    2.160000e+00
  P4dq SX1vr  1 4.300000e-01    2.320000e+00
  P3dq SX1vr  1 4.300000e-01    2.320000e+00
  P2dq SX1vr  1 4.300000e-01    2.320000e+00
  P1dq SX1vr  1 4.300000e-01    2.320000e+00
  N6dq SX1vr  1 4.300000e-01    2.320000e+00
  N5dq SX1vr  1 4.300000e-01    2.530000e+00
  N4dq SX1vr  1 4.300000e-01    2.530000e+00
  N3dq SX1vr  1 4.300000e-01    2.920000e+00
  N2dq SX1vr  1 4.300000e-01    2.920000e+00
  N1dq SX1vr  1 4.300000e-01    2.920000e+00
 SP6dq  C6vr  1 4.300000e-01    2.320000e+00
 SP5dq  C6vr  1 4.300000e-01    2.320000e+00
 SP4dq  C6vr  1 4.300000e-01    2.530000e+00
 SP3dq  C6vr  1 4.300000e-01    2.920000e+00
 SP2dq  C6vr  1 4.300000e-01    2.920000e+00
 SP1dq  C6vr  1 4.300000e-01    2.920000e+00
 SN6dq  C6vr  1 4.300000e-01    2.930000e+00
 SN5dq  C6vr  1 4.300000e-01    2.930000e+00
 SN4dq  C6vr  1 4.300000e-01    2.930000e+00
 SN3dq  C6vr  1 4.300000e-01    2.930000e+00
 SN2dq  C6vr  1 4.300000e-01    2.930000e+00
 SN1dq  C6vr  1 4.300000e-01    3.160000e+00
 SP6dq  C5vr  1 4.300000e-01    2.160000e+00
 SP5dq  C5vr  1 4.300000e-01    2.320000e+00
 SP4dq  C5vr  1 4.300000e-01    2.320000e+00
 SP3dq  C5vr  1 4.300000e-01    2.530000e+00
 SP2dq  C5vr  1 4.300000e-01    2.530000e+00
 SP1dq  C5vr  1 4.300000e-01    2.530000e+00
 SN6dq  C5vr  1 4.300000e-01    2.920000e+00
 SN5dq  C5vr  1 4.300000e-01    2.920000e+00
 SN4dq  C5vr  1 4.300000e-01    2.920000e+00
 SN3dq  C5vr  1 4.300000e-01    2.920000e+00
 SN2dq  C5vr  1 4.300000e-01    2.920000e+00
 SN1dq  C5vr  1 4.300000e-01    2.930000e+00
 SP6dq  C4vr  1 4.300000e-01    1.930000e+00
 SP5dq  C4vr  1 4.300000e-01    2.160000e+00
 SP4dq  C4vr  1 4.300000e-01    2.160000e+00
 SP3dq  C4vr  1 4.300000e-01    2.320000e+00
 SP2dq  C4vr  1 4.300000e-01    2.320000e+00
 SP1dq  C4vr  1 4.300000e-01    2.320000e+00
 SN6dq  C4vr  1 4.300000e-01    2.530000e+00
 SN5dq  C4vr  1 4.300000e-01    2.530000e+00
 SN4dq  C4vr  1 4.300000e-01    2.920000e+00
 SN3dq  C4vr  1 4.300000e-01    2.920000e+00
 SN2dq  C4vr  1 4.300000e-01    2.920000e+00
 SN1dq  C4vr  1 4.300000e-01    2.930000e+00
 SP6dq  C3vr  1 4.300000e-01    1.730000e+00
 SP5dq  C3vr  1 4.300000e-01    1.930000e+00
 SP4dq  C3vr  1 4.300000e-01    1.930000e+00
 SP3dq  C3vr  1 4.300000e-01    1.930000e+00
 SP2dq  C3vr  1 4.300000e-01    2.160000e+00
 SP1dq  C3vr  1 4.300000e-01    2.160000e+00
 SN6dq  C3vr  1 4.300000e-01    2.320000e+00
 SN5dq  C3vr  1 4.300000e-01    2.530000e+00
 SN4dq  C3vr  1 4.300000e-01    2.530000e+00
 SN3dq  C3vr  1 4.300000e-01    2.530000e+00
 SN2dq  C3vr  1 4.300000e-01    2.920000e+00
 SN1dq  C3vr  1 4.300000e-01    2.920000e+00
 SP6dq  C2vr  1 4.300000e-01    1.730000e+00
 SP5dq  C2vr  1 4.300000e-01    1.930000e+00
 SP4dq  C2vr  1 4.300000e-01    1.930000e+00
 SP3dq  C2vr  1 4.300000e-01    1.930000e+00
 SP2dq  C2vr  1 4.300000e-01    2.160000e+00
 SP1dq  C2vr  1 4.300000e-01    2.160000e+00
 SN6dq  C2vr  1 4.300000e-01    2.320000e+00
 SN5dq  C2vr  1 4.300000e-01    2.320000e+00
 SN4dq  C2vr  1 4.300000e-01    2.320000e+00
 SN3dq  C2vr  1 4.300000e-01    2.530000e+00
 SN2dq  C2vr  1 4.300000e-01    2.530000e+00
 SN1dq  C2vr  1 4.300000e-01    2.530000e+00
 SP6dq  C1vr  1 4.730000e-01    1.280000e+00
 SP5dq  C1vr  1 4.300000e-01    1.730000e+00
 SP4dq  C1vr  1 4.300000e-01    1.730000e+00
 SP3dq  C1vr  1 4.300000e-01    1.730000e+00
 SP2dq  C1vr  1 4.300000e-01    1.930000e+00
 SP1dq  C1vr  1 4.300000e-01    1.930000e+00
 SN6dq  C1vr  1 4.300000e-01    2.160000e+00
 SN5dq  C1vr  1 4.300000e-01    2.160000e+00
 SN4dq  C1vr  1 4.300000e-01    2.160000e+00
 SN3dq  C1vr  1 4.300000e-01    2.320000e+00
 SN2dq  C1vr  1 4.300000e-01    2.320000e+00
 SN1dq  C1vr  1 4.300000e-01    2.320000e+00
 SP6dq  X4vr  1 4.300000e-01    2.530000e+00
 SP5dq  X4vr  1 4.300000e-01    2.920000e+00
 SP4dq  X4vr  1 4.300000e-01    2.920000e+00
 SP3dq  X4vr  1 4.300000e-01    2.920000e+00
 SP2dq  X4vr  1 4.300000e-01    2.920000e+00
 SP1dq  X4vr  1 4.300000e-01    2.920000e+00
 SN6dq  X4vr  1 4.300000e-01    2.930000e+00
 SN5dq  X4vr  1 4.300000e-01    3.160000e+00
 SN4dq  X4vr  1 4.300000e-01    3.380000e+00
 SN3dq  X4vr  1 4.300000e-01    3.160000e+00
 SN2dq  X4vr  1 4.300000e-01    3.160000e+00
 SN1dq  X4vr  1 4.300000e-01    2.930000e+00
 SP6dq  X3vr  1 4.300000e-01    2.530000e+00
 SP5dq  X3vr  1 4.300000e-01    2.530000e+00
 SP4dq  X3vr  1 4.300000e-01    2.530000e+00
 SP3dq  X3vr  1 4.300000e-01    2.920000e+00
 SP2dq  X3vr  1 4.300000e-01    2.920000e+00
 SP1dq  X3vr  1 4.300000e-01    2.920000e+00
 SN6dq  X3vr  1 4.300000e-01    2.920000e+00
 SN5dq  X3vr  1 4.300000e-01    2.930000e+00
 SN4dq  X3vr  1 4.300000e-01    3.160000e+00
 SN3dq  X3vr  1 4.300000e-01    2.930000e+00
 SN2dq  X3vr  1 4.300000e-01    2.930000e+00
 SN1dq  X3vr  1 4.300000e-01    2.930000e+00
 SP6dq  X2vr  1 4.300000e-01    2.320000e+00
 SP5dq  X2vr  1 4.300000e-01    2.530000e+00
 SP4dq  X2vr  1 4.300000e-01    2.530000e+00
 SP3dq  X2vr  1 4.300000e-01    2.530000e+00
 SP2dq  X2vr  1 4.300000e-01    2.530000e+00
 SP1dq  X2vr  1 4.300000e-01    2.530000e+00
 SN6dq  X2vr  1 4.300000e-01    2.530000e+00
 SN5dq  X2vr  1 4.300000e-01    2.920000e+00
 SN4dq  X2vr  1 4.300000e-01    2.920000e+00
 SN3dq  X2vr  1 4.300000e-01    2.920000e+00
 SN2dq  X2vr  1 4.300000e-01    2.920000e+00
 SN1dq  X2vr  1 4.300000e-01    2.920000e+00
 SP6dq  X1vr  1 4.300000e-01    2.160000e+00
 SP5dq  X1vr  1 4.300000e-01    2.160000e+00
 SP4dq  X1vr  1 4.300000e-01    2.320000e+00
 SP3dq  X1vr  1 4.300000e-01    2.320000e+00
 SP2dq  X1vr  1 4.300000e-01    2.320000e+00
 SP1dq  X1vr  1 4.300000e-01    2.320000e+00
 SN6dq  X1vr  1 4.300000e-01    2.320000e+00
 SN5dq  X1vr  1 4.300000e-01    2.530000e+00
 SN4dq  X1vr  1 4.300000e-01    2.530000e+00
 SN3dq  X1vr  1 4.300000e-01    2.920000e+00
 SN2dq  X1vr  1 4.300000e-01    2.920000e+00
 SN1dq  X1vr  1 4.300000e-01    2.920000e+00
  P6dh  SC6v  1 4.300000e-01    1.930000e+00
  P6dh  SC5v  1 4.300000e-01    1.730000e+00
  P6dh  SC4v  1 4.430000e-01    1.480000e+00
  P6dh  SC3v  1 4.730000e-01    1.280000e+00
  P6dh  SC2v  1 4.730000e-01    1.280000e+00
  P6dh  SC1v  1 5.140000e-01    1.110000e+00
  P6dh  SX4v  1 4.300000e-01    2.160000e+00
  P6dh  SX3v  1 4.300000e-01    2.160000e+00
  P6dh  SX2v  1 4.300000e-01    1.930000e+00
  P6dh  SX1v  1 4.300000e-01    1.730000e+00
  P5dh  SC6v  1 4.300000e-01    1.930000e+00
  P5dh  SC5v  1 4.300000e-01    1.930000e+00
  P5dh  SC4v  1 4.300000e-01    1.730000e+00
  P5dh  SC3v  1 4.430000e-01    1.480000e+00
  P5dh  SC2v  1 4.430000e-01    1.480000e+00
  P5dh  SC1v  1 4.730000e-01    1.280000e+00
  P5dh  SX4v  1 4.300000e-01    2.320000e+00
  P5dh  SX3v  1 4.300000e-01    2.160000e+00
  P5dh  SX2v  1 4.300000e-01    2.160000e+00
  P5dh  SX1v  1 4.300000e-01    1.730000e+00
  P4dh  SC6v  1 4.300000e-01    2.160000e+00
  P4dh  SC5v  1 4.300000e-01    1.930000e+00
  P4dh  SC4v  1 4.300000e-01    1.730000e+00
  P4dh  SC3v  1 4.430000e-01    1.480000e+00
  P4dh  SC2v  1 4.430000e-01    1.480000e+00
  P4dh  SC1v  1 4.730000e-01    1.280000e+00
  P4dh  SX4v  1 4.300000e-01    2.320000e+00
  P4dh  SX3v  1 4.300000e-01    2.160000e+00
  P4dh  SX2v  1 4.300000e-01    2.160000e+00
  P4dh  SX1v  1 4.300000e-01    1.930000e+00
  P3dh  SC6v  1 4.300000e-01    2.320000e+00
  P3dh  SC5v  1 4.300000e-01    2.160000e+00
  P3dh  SC4v  1 4.300000e-01    1.930000e+00
  P3dh  SC3v  1 4.430000e-01    1.480000e+00
  P3dh  SC2v  1 4.430000e-01    1.480000e+00
  P3dh  SC1v  1 4.730000e-01    1.280000e+00
  P3dh  SX4v  1 4.300000e-01    2.320000e+00
  P3dh  SX3v  1 4.300000e-01    2.320000e+00
  P3dh  SX2v  1 4.300000e-01    2.160000e+00
  P3dh  SX1v  1 4.300000e-01    1.930000e+00
  P2dh  SC6v  1 4.300000e-01    2.320000e+00
  P2dh  SC5v  1 4.300000e-01    2.160000e+00
  P2dh  SC4v  1 4.300000e-01    1.930000e+00
  P2dh  SC3v  1 4.300000e-01    1.730000e+00
  P2dh  SC2v  1 4.300000e-01    1.730000e+00
  P2dh  SC1v  1 4.430000e-01    1.480000e+00
  P2dh  SX4v  1 4.300000e-01    2.320000e+00
  P2dh  SX3v  1 4.300000e-01    2.320000e+00
  P2dh  SX2v  1 4.300000e-01    2.160000e+00
  P2dh  SX1v  1 4.300000e-01    1.930000e+00
  P1dh  SC6v  1 4.300000e-01    2.320000e+00
  P1dh  SC5v  1 4.300000e-01    2.160000e+00
  P1dh  SC4v  1 4.300000e-01    1.930000e+00
  P1dh  SC3v  1 4.300000e-01    1.730000e+00
  P1dh  SC2v  1 4.300000e-01    1.730000e+00
  P1dh  SC1v  1 4.430000e-01    1.480000e+00
  P1dh  SX4v  1 4.300000e-01    2.320000e+00
  P1dh  SX3v  1 4.300000e-01    2.320000e+00
  P1dh  SX2v  1 4.300000e-01    2.160000e+00
  P1dh  SX1v  1 4.300000e-01    1.930000e+00
  N6dh  SC6v  1 4.300000e-01    2.530000e+00
  N6dh  SC5v  1 4.300000e-01    2.320000e+00
  N6dh  SC4v  1 4.300000e-01    2.160000e+00
  N6dh  SC3v  1 4.300000e-01    1.930000e+00
  N6dh  SC2v  1 4.300000e-01    1.930000e+00
  N6dh  SC1v  1 4.300000e-01    1.730000e+00
  N6dh  SX4v  1 4.300000e-01    2.530000e+00
  N6dh  SX3v  1 4.300000e-01    2.320000e+00
  N6dh  SX2v  1 4.300000e-01    2.160000e+00
  N6dh  SX1v  1 4.300000e-01    1.930000e+00
  N5dh  SC6v  1 4.300000e-01    2.530000e+00
  N5dh  SC5v  1 4.300000e-01    2.320000e+00
  N5dh  SC4v  1 4.300000e-01    2.160000e+00
  N5dh  SC3v  1 4.300000e-01    2.160000e+00
  N5dh  SC2v  1 4.300000e-01    1.930000e+00
  N5dh  SC1v  1 4.300000e-01    1.730000e+00
  N5dh  SX4v  1 4.300000e-01    2.920000e+00
  N5dh  SX3v  1 4.300000e-01    2.530000e+00
  N5dh  SX2v  1 4.300000e-01    2.320000e+00
  N5dh  SX1v  1 4.300000e-01    2.160000e+00
  N4dh  SC6v  1 4.300000e-01    2.530000e+00
  N4dh  SC5v  1 4.300000e-01    2.320000e+00
  N4dh  SC4v  1 4.300000e-01    2.320000e+00
  N4dh  SC3v  1 4.300000e-01    2.160000e+00
  N4dh  SC2v  1 4.300000e-01    1.930000e+00
  N4dh  SC1v  1 4.300000e-01    1.730000e+00
  N4dh  SX4v  1 4.300000e-01    2.930000e+00
  N4dh  SX3v  1 4.300000e-01    2.920000e+00
  N4dh  SX2v  1 4.300000e-01    2.320000e+00
  N4dh  SX1v  1 4.300000e-01    2.160000e+00
  N3dh  SC6v  1 4.300000e-01    2.530000e+00
  N3dh  SC5v  1 4.300000e-01    2.320000e+00
  N3dh  SC4v  1 4.300000e-01    2.320000e+00
  N3dh  SC3v  1 4.300000e-01    2.160000e+00
  N3dh  SC2v  1 4.300000e-01    2.160000e+00
  N3dh  SC1v  1 4.300000e-01    1.930000e+00
  N3dh  SX4v  1 4.300000e-01    2.920000e+00
  N3dh  SX3v  1 4.300000e-01    2.530000e+00
  N3dh  SX2v  1 4.300000e-01    2.320000e+00
  N3dh  SX1v  1 4.300000e-01    2.320000e+00
  N2dh  SC6v  1 4.300000e-01    2.530000e+00
  N2dh  SC5v  1 4.300000e-01    2.320000e+00
  N2dh  SC4v  1 4.300000e-01    2.320000e+00
  N2dh  SC3v  1 4.300000e-01    2.320000e+00
  N2dh  SC2v  1 4.300000e-01    2.160000e+00
  N2dh  SC1v  1 4.300000e-01    1.930000e+00
  N2dh  SX4v  1 4.300000e-01    2.920000e+00
  N2dh  SX3v  1 4.300000e-01    2.530000e+00
  N2dh  SX2v  1 4.300000e-01    2.320000e+00
  N2dh  SX1v  1 4.300000e-01    2.320000e+00
  N1dh  SC6v  1 4.300000e-01    2.920000e+00
  N1dh  SC5v  1 4.300000e-01    2.530000e+00
  N1dh  SC4v  1 4.300000e-01    2.530000e+00
  N1dh  SC3v  1 4.300000e-01    2.320000e+00
  N1dh  SC2v  1 4.300000e-01    2.160000e+00
  N1dh  SC1v  1 4.300000e-01    1.930000e+00
  N1dh  SX4v  1 4.300000e-01    2.530000e+00
  N1dh  SX3v  1 4.300000e-01    2.530000e+00
  N1dh  SX2v  1 4.300000e-01    2.320000e+00
  N1dh  SX1v  1 4.300000e-01    2.320000e+00
 SP6dh   C6v  1 4.300000e-01    1.930000e+00
 SP6dh   C5v  1 4.300000e-01    1.730000e+00
 SP6dh   C4v  1 4.430000e-01    1.480000e+00
 SP6dh   C3v  1 4.730000e-01    1.280000e+00
 SP6dh   C2v  1 4.730000e-01    1.280000e+00
 SP6dh   C1v  1 5.140000e-01    1.110000e+00
 SP6dh   X4v  1 4.300000e-01    2.160000e+00
 SP6dh   X3v  1 4.300000e-01    2.160000e+00
 SP6dh   X2v  1 4.300000e-01    1.930000e+00
 SP6dh   X1v  1 4.300000e-01    1.730000e+00
 SP5dh   C6v  1 4.300000e-01    1.930000e+00
 SP5dh   C5v  1 4.300000e-01    1.930000e+00
 SP5dh   C4v  1 4.300000e-01    1.730000e+00
 SP5dh   C3v  1 4.430000e-01    1.480000e+00
 SP5dh   C2v  1 4.430000e-01    1.480000e+00
 SP5dh   C1v  1 4.730000e-01    1.280000e+00
 SP5dh   X4v  1 4.300000e-01    2.320000e+00
 SP5dh   X3v  1 4.300000e-01    2.160000e+00
 SP5dh   X2v  1 4.300000e-01    2.160000e+00
 SP5dh   X1v  1 4.300000e-01    1.730000e+00
 SP4dh   C6v  1 4.300000e-01    2.160000e+00
 SP4dh   C5v  1 4.300000e-01    1.930000e+00
 SP4dh   C4v  1 4.300000e-01    1.730000e+00
 SP4dh   C3v  1 4.430000e-01    1.480000e+00
 SP4dh   C2v  1 4.430000e-01    1.480000e+00
 SP4dh   C1v  1 4.730000e-01    1.280000e+00
 SP4dh   X4v  1 4.300000e-01    2.320000e+00
 SP4dh   X3v  1 4.300000e-01    2.160000e+00
 SP4dh   X2v  1 4.300000e-01    2.160000e+00
 SP4dh   X1v  1 4.300000e-01    1.930000e+00
 SP3dh   C6v  1 4.300000e-01    2.320000e+00
 SP3dh   C5v  1 4.300000e-01    2.160000e+00
 SP3dh   C4v  1 4.300000e-01    1.930000e+00
 SP3dh   C3v  1 4.430000e-01    1.480000e+00
 SP3dh   C2v  1 4.430000e-01    1.480000e+00
 SP3dh   C1v  1 4.730000e-01    1.280000e+00
 SP3dh   X4v  1 4.300000e-01    2.320000e+00
 SP3dh   X3v  1 4.300000e-01    2.320000e+00
 SP3dh   X2v  1 4.300000e-01    2.160000e+00
 SP3dh   X1v  1 4.300000e-01    1.930000e+00
 SP2dh   C6v  1 4.300000e-01    2.320000e+00
 SP2dh   C5v  1 4.300000e-01    2.160000e+00
 SP2dh   C4v  1 4.300000e-01    1.930000e+00
 SP2dh   C3v  1 4.300000e-01    1.730000e+00
 SP2dh   C2v  1 4.300000e-01    1.730000e+00
 SP2dh   C1v  1 4.430000e-01    1.480000e+00
 SP2dh   X4v  1 4.300000e-01    2.320000e+00
 SP2dh   X3v  1 4.300000e-01    2.320000e+00
 SP2dh   X2v  1 4.300000e-01    2.160000e+00
 SP2dh   X1v  1 4.300000e-01    1.930000e+00
 SP1dh   C6v  1 4.300000e-01    2.320000e+00
 SP1dh   C5v  1 4.300000e-01    2.160000e+00
 SP1dh   C4v  1 4.300000e-01    1.930000e+00
 SP1dh   C3v  1 4.300000e-01    1.730000e+00
 SP1dh   C2v  1 4.300000e-01    1.730000e+00
 SP1dh   C1v  1 4.430000e-01    1.480000e+00
 SP1dh   X4v  1 4.300000e-01    2.320000e+00
 SP1dh   X3v  1 4.300000e-01    2.320000e+00
 SP1dh   X2v  1 4.300000e-01    2.160000e+00
 SP1dh   X1v  1 4.300000e-01    1.930000e+00
 SN6dh   C6v  1 4.300000e-01    2.530000e+00
 SN6dh   C5v  1 4.300000e-01    2.320000e+00
 SN6dh   C4v  1 4.300000e-01    2.160000e+00
 SN6dh   C3v  1 4.300000e-01    1.930000e+00
 SN6dh   C2v  1 4.300000e-01    1.930000e+00
 SN6dh   C1v  1 4.300000e-01    1.730000e+00
 SN6dh   X4v  1 4.300000e-01    2.530000e+00
 SN6dh   X3v  1 4.300000e-01    2.320000e+00
 SN6dh   X2v  1 4.300000e-01    2.160000e+00
 SN6dh   X1v  1 4.300000e-01    1.930000e+00
 SN5dh   C6v  1 4.300000e-01    2.530000e+00
 SN5dh   C5v  1 4.300000e-01    2.320000e+00
 SN5dh   C4v  1 4.300000e-01    2.160000e+00
 SN5dh   C3v  1 4.300000e-01    2.160000e+00
 SN5dh   C2v  1 4.300000e-01    1.930000e+00
 SN5dh   C1v  1 4.300000e-01    1.730000e+00
 SN5dh   X4v  1 4.300000e-01    2.920000e+00
 SN5dh   X3v  1 4.300000e-01    2.530000e+00
 SN5dh   X2v  1 4.300000e-01    2.320000e+00
 SN5dh   X1v  1 4.300000e-01    2.160000e+00
 SN4dh   C6v  1 4.300000e-01    2.530000e+00
 SN4dh   C5v  1 4.300000e-01    2.320000e+00
 SN4dh   C4v  1 4.300000e-01    2.320000e+00
 SN4dh   C3v  1 4.300000e-01    2.160000e+00
 SN4dh   C2v  1 4.300000e-01    1.930000e+00
 SN4dh   C1v  1 4.300000e-01    1.730000e+00
 SN4dh   X4v  1 4.300000e-01    2.930000e+00
 SN4dh   X3v  1 4.300000e-01    2.920000e+00
 SN4dh   X2v  1 4.300000e-01    2.320000e+00
 SN4dh   X1v  1 4.300000e-01    2.160000e+00
 SN3dh   C6v  1 4.300000e-01    2.530000e+00
 SN3dh   C5v  1 4.300000e-01    2.320000e+00
 SN3dh   C4v  1 4.300000e-01    2.320000e+00
 SN3dh   C3v  1 4.300000e-01    2.160000e+00
 SN3dh   C2v  1 4.300000e-01    2.160000e+00
 SN3dh   C1v  1 4.300000e-01    1.930000e+00
 SN3dh   X4v  1 4.300000e-01    2.920000e+00
 SN3dh   X3v  1 4.300000e-01    2.530000e+00
 SN3dh   X2v  1 4.300000e-01    2.320000e+00
 SN3dh   X1v  1 4.300000e-01    2.320000e+00
 SN2dh   C6v  1 4.300000e-01    2.530000e+00
 SN2dh   C5v  1 4.300000e-01    2.320000e+00
 SN2dh   C4v  1 4.300000e-01    2.320000e+00
 SN2dh   C3v  1 4.300000e-01    2.320000e+00
 SN2dh   C2v  1 4.300000e-01    2.160000e+00
 SN2dh   C1v  1 4.300000e-01    1.930000e+00
 SN2dh   X4v  1 4.300000e-01    2.920000e+00
 SN2dh   X3v  1 4.300000e-01    2.530000e+00
 SN2dh   X2v  1 4.300000e-01    2.320000e+00
 SN2dh   X1v  1 4.300000e-01    2.320000e+00
 SN1dh   C6v  1 4.300000e-01    2.920000e+00
 SN1dh   C5v  1 4.300000e-01    2.530000e+00
 SN1dh   C4v  1 4.300000e-01    2.530000e+00
 SN1dh   C3v  1 4.300000e-01    2.320000e+00
 SN1dh   C2v  1 4.300000e-01    2.160000e+00
 SN1dh   C1v  1 4.300000e-01    1.930000e+00
 SN1dh   X4v  1 4.300000e-01    2.530000e+00
 SN1dh   X3v  1 4.300000e-01    2.530000e+00
 SN1dh   X2v  1 4.300000e-01    2.320000e+00
 SN1dh   X1v  1 4.300000e-01    2.320000e+00
  P6dh SX1vq  1 4.300000e-01    2.160000e+00
  P6dh SX2vq  1 4.300000e-01    2.320000e+00
  P6dh SX3vq  1 4.300000e-01    2.530000e+00
  P6dh SX4vq  1 4.300000e-01    2.530000e+00
  P6dh SC1vq  1 4.730000e-01    1.280000e+00
  P6dh SC2vq  1 4.300000e-01    1.730000e+00
  P6dh SC3vq  1 4.300000e-01    1.730000e+00
  P6dh SC4vq  1 4.300000e-01    1.930000e+00
  P6dh SC5vq  1 4.300000e-01    2.160000e+00
  P6dh SC6vq  1 4.300000e-01    2.320000e+00
  P5dh SX1vq  1 4.300000e-01    2.160000e+00
  P5dh SX2vq  1 4.300000e-01    2.530000e+00
  P5dh SX3vq  1 4.300000e-01    2.530000e+00
  P5dh SX4vq  1 4.300000e-01    2.920000e+00
  P5dh SC1vq  1 4.300000e-01    1.730000e+00
  P5dh SC2vq  1 4.300000e-01    1.930000e+00
  P5dh SC3vq  1 4.300000e-01    1.930000e+00
  P5dh SC4vq  1 4.300000e-01    2.160000e+00
  P5dh SC5vq  1 4.300000e-01    2.320000e+00
  P5dh SC6vq  1 4.300000e-01    2.320000e+00
  P4dh SX1vq  1 4.300000e-01    2.320000e+00
  P4dh SX2vq  1 4.300000e-01    2.530000e+00
  P4dh SX3vq  1 4.300000e-01    2.530000e+00
  P4dh SX4vq  1 4.300000e-01    2.920000e+00
  P4dh SC1vq  1 4.300000e-01    1.730000e+00
  P4dh SC2vq  1 4.300000e-01    1.930000e+00
  P4dh SC3vq  1 4.300000e-01    1.930000e+00
  P4dh SC4vq  1 4.300000e-01    2.160000e+00
  P4dh SC5vq  1 4.300000e-01    2.320000e+00
  P4dh SC6vq  1 4.300000e-01    2.530000e+00
  P3dh SX1vq  1 4.300000e-01    2.320000e+00
  P3dh SX2vq  1 4.300000e-01    2.530000e+00
  P3dh SX3vq  1 4.300000e-01    2.920000e+00
  P3dh SX4vq  1 4.300000e-01    2.920000e+00
  P3dh SC1vq  1 4.300000e-01    1.730000e+00
  P3dh SC2vq  1 4.300000e-01    1.930000e+00
  P3dh SC3vq  1 4.300000e-01    1.930000e+00
  P3dh SC4vq  1 4.300000e-01    2.320000e+00
  P3dh SC5vq  1 4.300000e-01    2.530000e+00
  P3dh SC6vq  1 4.300000e-01    2.920000e+00
  P2dh SX1vq  1 4.300000e-01    2.320000e+00
  P2dh SX2vq  1 4.300000e-01    2.530000e+00
  P2dh SX3vq  1 4.300000e-01    2.920000e+00
  P2dh SX4vq  1 4.300000e-01    2.920000e+00
  P2dh SC1vq  1 4.300000e-01    1.930000e+00
  P2dh SC2vq  1 4.300000e-01    2.160000e+00
  P2dh SC3vq  1 4.300000e-01    2.160000e+00
  P2dh SC4vq  1 4.300000e-01    2.320000e+00
  P2dh SC5vq  1 4.300000e-01    2.530000e+00
  P2dh SC6vq  1 4.300000e-01    2.920000e+00
  P1dh SX1vq  1 4.300000e-01    2.320000e+00
  P1dh SX2vq  1 4.300000e-01    2.530000e+00
  P1dh SX3vq  1 4.300000e-01    2.920000e+00
  P1dh SX4vq  1 4.300000e-01    2.920000e+00
  P1dh SC1vq  1 4.300000e-01    1.930000e+00
  P1dh SC2vq  1 4.300000e-01    2.160000e+00
  P1dh SC3vq  1 4.300000e-01    2.160000e+00
  P1dh SC4vq  1 4.300000e-01    2.320000e+00
  P1dh SC5vq  1 4.300000e-01    2.530000e+00
  P1dh SC6vq  1 4.300000e-01    2.920000e+00
  N6dh SX1vq  1 4.300000e-01    2.320000e+00
  N6dh SX2vq  1 4.300000e-01    2.530000e+00
  N6dh SX3vq  1 4.300000e-01    2.920000e+00
  N6dh SX4vq  1 4.300000e-01    2.930000e+00
  N6dh SC1vq  1 4.300000e-01    2.160000e+00
  N6dh SC2vq  1 4.300000e-01    2.320000e+00
  N6dh SC3vq  1 4.300000e-01    2.320000e+00
  N6dh SC4vq  1 4.300000e-01    2.530000e+00
  N6dh SC5vq  1 4.300000e-01    2.920000e+00
  N6dh SC6vq  1 4.300000e-01    2.930000e+00
  N5dh SX1vq  1 4.300000e-01    2.530000e+00
  N5dh SX2vq  1 4.300000e-01    2.920000e+00
  N5dh SX3vq  1 4.300000e-01    2.930000e+00
  N5dh SX4vq  1 4.300000e-01    3.160000e+00
  N5dh SC1vq  1 4.300000e-01    2.160000e+00
  N5dh SC2vq  1 4.300000e-01    2.320000e+00
  N5dh SC3vq  1 4.300000e-01    2.530000e+00
  N5dh SC4vq  1 4.300000e-01    2.530000e+00
  N5dh SC5vq  1 4.300000e-01    2.920000e+00
  N5dh SC6vq  1 4.300000e-01    2.930000e+00
  N4dh SX1vq  1 4.300000e-01    2.530000e+00
  N4dh SX2vq  1 4.300000e-01    2.920000e+00
  N4dh SX3vq  1 4.300000e-01    3.160000e+00
  N4dh SX4vq  1 4.300000e-01    3.380000e+00
  N4dh SC1vq  1 4.300000e-01    2.160000e+00
  N4dh SC2vq  1 4.300000e-01    2.320000e+00
  N4dh SC3vq  1 4.300000e-01    2.530000e+00
  N4dh SC4vq  1 4.300000e-01    2.920000e+00
  N4dh SC5vq  1 4.300000e-01    2.920000e+00
  N4dh SC6vq  1 4.300000e-01    2.930000e+00
  N3dh SX1vq  1 4.300000e-01    2.920000e+00
  N3dh SX2vq  1 4.300000e-01    2.920000e+00
  N3dh SX3vq  1 4.300000e-01    2.930000e+00
  N3dh SX4vq  1 4.300000e-01    3.160000e+00
  N3dh SC1vq  1 4.300000e-01    2.320000e+00
  N3dh SC2vq  1 4.300000e-01    2.530000e+00
  N3dh SC3vq  1 4.300000e-01    2.530000e+00
  N3dh SC4vq  1 4.300000e-01    2.920000e+00
  N3dh SC5vq  1 4.300000e-01    2.920000e+00
  N3dh SC6vq  1 4.300000e-01    2.930000e+00
  N2dh SX1vq  1 4.300000e-01    2.920000e+00
  N2dh SX2vq  1 4.300000e-01    2.920000e+00
  N2dh SX3vq  1 4.300000e-01    2.930000e+00
  N2dh SX4vq  1 4.300000e-01    3.160000e+00
  N2dh SC1vq  1 4.300000e-01    2.320000e+00
  N2dh SC2vq  1 4.300000e-01    2.530000e+00
  N2dh SC3vq  1 4.300000e-01    2.920000e+00
  N2dh SC4vq  1 4.300000e-01    2.920000e+00
  N2dh SC5vq  1 4.300000e-01    2.920000e+00
  N2dh SC6vq  1 4.300000e-01    2.930000e+00
  N1dh SX1vq  1 4.300000e-01    2.920000e+00
  N1dh SX2vq  1 4.300000e-01    2.920000e+00
  N1dh SX3vq  1 4.300000e-01    2.930000e+00
  N1dh SX4vq  1 4.300000e-01    2.930000e+00
  N1dh SC1vq  1 4.300000e-01    2.320000e+00
  N1dh SC2vq  1 4.300000e-01    2.530000e+00
  N1dh SC3vq  1 4.300000e-01    2.920000e+00
  N1dh SC4vq  1 4.300000e-01    2.930000e+00
  N1dh SC5vq  1 4.300000e-01    2.930000e+00
  N1dh SC6vq  1 4.300000e-01    3.160000e+00
 SP6dh  X1vq  1 4.300000e-01    2.160000e+00
 SP6dh  X2vq  1 4.300000e-01    2.320000e+00
 SP6dh  X3vq  1 4.300000e-01    2.530000e+00
 SP6dh  X4vq  1 4.300000e-01    2.530000e+00
 SP6dh  C1vq  1 4.730000e-01    1.280000e+00
 SP6dh  C2vq  1 4.300000e-01    1.730000e+00
 SP6dh  C3vq  1 4.300000e-01    1.730000e+00
 SP6dh  C4vq  1 4.300000e-01    1.930000e+00
 SP6dh  C5vq  1 4.300000e-01    2.160000e+00
 SP6dh  C6vq  1 4.300000e-01    2.320000e+00
 SP5dh  X1vq  1 4.300000e-01    2.160000e+00
 SP5dh  X2vq  1 4.300000e-01    2.530000e+00
 SP5dh  X3vq  1 4.300000e-01    2.530000e+00
 SP5dh  X4vq  1 4.300000e-01    2.920000e+00
 SP5dh  C1vq  1 4.300000e-01    1.730000e+00
 SP5dh  C2vq  1 4.300000e-01    1.930000e+00
 SP5dh  C3vq  1 4.300000e-01    1.930000e+00
 SP5dh  C4vq  1 4.300000e-01    2.160000e+00
 SP5dh  C5vq  1 4.300000e-01    2.320000e+00
 SP5dh  C6vq  1 4.300000e-01    2.320000e+00
 SP4dh  X1vq  1 4.300000e-01    2.320000e+00
 SP4dh  X2vq  1 4.300000e-01    2.530000e+00
 SP4dh  X3vq  1 4.300000e-01    2.530000e+00
 SP4dh  X4vq  1 4.300000e-01    2.920000e+00
 SP4dh  C1vq  1 4.300000e-01    1.730000e+00
 SP4dh  C2vq  1 4.300000e-01    1.930000e+00
 SP4dh  C3vq  1 4.300000e-01    1.930000e+00
 SP4dh  C4vq  1 4.300000e-01    2.160000e+00
 SP4dh  C5vq  1 4.300000e-01    2.320000e+00
 SP4dh  C6vq  1 4.300000e-01    2.530000e+00
 SP3dh  X1vq  1 4.300000e-01    2.320000e+00
 SP3dh  X2vq  1 4.300000e-01    2.530000e+00
 SP3dh  X3vq  1 4.300000e-01    2.920000e+00
 SP3dh  X4vq  1 4.300000e-01    2.920000e+00
 SP3dh  C1vq  1 4.300000e-01    1.730000e+00
 SP3dh  C2vq  1 4.300000e-01    1.930000e+00
 SP3dh  C3vq  1 4.300000e-01    1.930000e+00
 SP3dh  C4vq  1 4.300000e-01    2.320000e+00
 SP3dh  C5vq  1 4.300000e-01    2.530000e+00
 SP3dh  C6vq  1 4.300000e-01    2.920000e+00
 SP2dh  X1vq  1 4.300000e-01    2.320000e+00
 SP2dh  X2vq  1 4.300000e-01    2.530000e+00
 SP2dh  X3vq  1 4.300000e-01    2.920000e+00
 SP2dh  X4vq  1 4.300000e-01    2.920000e+00
 SP2dh  C1vq  1 4.300000e-01    1.930000e+00
 SP2dh  C2vq  1 4.300000e-01    2.160000e+00
 SP2dh  C3vq  1 4.300000e-01    2.160000e+00
 SP2dh  C4vq  1 4.300000e-01    2.320000e+00
 SP2dh  C5vq  1 4.300000e-01    2.530000e+00
 SP2dh  C6vq  1 4.300000e-01    2.920000e+00
 SP1dh  X1vq  1 4.300000e-01    2.320000e+00
 SP1dh  X2vq  1 4.300000e-01    2.530000e+00
 SP1dh  X3vq  1 4.300000e-01    2.920000e+00
 SP1dh  X4vq  1 4.300000e-01    2.920000e+00
 SP1dh  C1vq  1 4.300000e-01    1.930000e+00
 SP1dh  C2vq  1 4.300000e-01    2.160000e+00
 SP1dh  C3vq  1 4.300000e-01    2.160000e+00
 SP1dh  C4vq  1 4.300000e-01    2.320000e+00
 SP1dh  C5vq  1 4.300000e-01    2.530000e+00
 SP1dh  C6vq  1 4.300000e-01    2.920000e+00
 SN6dh  X1vq  1 4.300000e-01    2.320000e+00
 SN6dh  X2vq  1 4.300000e-01    2.530000e+00
 SN6dh  X3vq  1 4.300000e-01    2.920000e+00
 SN6dh  X4vq  1 4.300000e-01    2.930000e+00
 SN6dh  C1vq  1 4.300000e-01    2.160000e+00
 SN6dh  C2vq  1 4.300000e-01    2.320000e+00
 SN6dh  C3vq  1 4.300000e-01    2.320000e+00
 SN6dh  C4vq  1 4.300000e-01    2.530000e+00
 SN6dh  C5vq  1 4.300000e-01    2.920000e+00
 SN6dh  C6vq  1 4.300000e-01    2.930000e+00
 SN5dh  X1vq  1 4.300000e-01    2.530000e+00
 SN5dh  X2vq  1 4.300000e-01    2.920000e+00
 SN5dh  X3vq  1 4.300000e-01    2.930000e+00
 SN5dh  X4vq  1 4.300000e-01    3.160000e+00
 SN5dh  C1vq  1 4.300000e-01    2.160000e+00
 SN5dh  C2vq  1 4.300000e-01    2.320000e+00
 SN5dh  C3vq  1 4.300000e-01    2.530000e+00
 SN5dh  C4vq  1 4.300000e-01    2.530000e+00
 SN5dh  C5vq  1 4.300000e-01    2.920000e+00
 SN5dh  C6vq  1 4.300000e-01    2.930000e+00
 SN4dh  X1vq  1 4.300000e-01    2.530000e+00
 SN4dh  X2vq  1 4.300000e-01    2.920000e+00
 SN4dh  X3vq  1 4.300000e-01    3.160000e+00
 SN4dh  X4vq  1 4.300000e-01    3.380000e+00
 SN4dh  C1vq  1 4.300000e-01    2.160000e+00
 SN4dh  C2vq  1 4.300000e-01    2.320000e+00
 SN4dh  C3vq  1 4.300000e-01    2.530000e+00
 SN4dh  C4vq  1 4.300000e-01    2.920000e+00
 SN4dh  C5vq  1 4.300000e-01    2.920000e+00
 SN4dh  C6vq  1 4.300000e-01    2.930000e+00
 SN3dh  X1vq  1 4.300000e-01    2.920000e+00
 SN3dh  X2vq  1 4.300000e-01    2.920000e+00
 SN3dh  X3vq  1 4.300000e-01    2.930000e+00
 SN3dh  X4vq  1 4.300000e-01    3.160000e+00
 SN3dh  C1vq  1 4.300000e-01    2.320000e+00
 SN3dh  C2vq  1 4.300000e-01    2.530000e+00
 SN3dh  C3vq  1 4.300000e-01    2.530000e+00
 SN3dh  C4vq  1 4.300000e-01    2.920000e+00
 SN3dh  C5vq  1 4.300000e-01    2.920000e+00
 SN3dh  C6vq  1 4.300000e-01    2.930000e+00
 SN2dh  X1vq  1 4.300000e-01    2.920000e+00
 SN2dh  X2vq  1 4.300000e-01    2.920000e+00
 SN2dh  X3vq  1 4.300000e-01    2.930000e+00
 SN2dh  X4vq  1 4.300000e-01    3.160000e+00
 SN2dh  C1vq  1 4.300000e-01    2.320000e+00
 SN2dh  C2vq  1 4.300000e-01    2.530000e+00
 SN2dh  C3vq  1 4.300000e-01    2.920000e+00
 SN2dh  C4vq  1 4.300000e-01    2.920000e+00
 SN2dh  C5vq  1 4.300000e-01    2.920000e+00
 SN2dh  C6vq  1 4.300000e-01    2.930000e+00
 SN1dh  X1vq  1 4.300000e-01    2.920000e+00
 SN1dh  X2vq  1 4.300000e-01    2.920000e+00
 SN1dh  X3vq  1 4.300000e-01    2.930000e+00
 SN1dh  X4vq  1 4.300000e-01    2.930000e+00
 SN1dh  C1vq  1 4.300000e-01    2.320000e+00
 SN1dh  C2vq  1 4.300000e-01    2.530000e+00
 SN1dh  C3vq  1 4.300000e-01    2.920000e+00
 SN1dh  C4vq  1 4.300000e-01    2.930000e+00
 SN1dh  C5vq  1 4.300000e-01    2.930000e+00
 SN1dh  C6vq  1 4.300000e-01    3.160000e+00
  P6dh SC6vh  1 4.300000e-01    1.930000e+00
  P6dh SC5vh  1 4.300000e-01    1.730000e+00
  P6dh SC4vh  1 4.430000e-01    1.480000e+00
  P6dh SC3vh  1 4.730000e-01    1.280000e+00
  P6dh SC2vh  1 4.730000e-01    1.280000e+00
  P6dh SC1vh  1 5.140000e-01    1.110000e+00
  P6dh SX4vh  1 4.300000e-01    2.160000e+00
  P6dh SX3vh  1 4.300000e-01    2.160000e+00
  P6dh SX2vh  1 4.300000e-01    1.930000e+00
  P6dh SX1vh  1 4.300000e-01    1.730000e+00
  P5dh SC6vh  1 4.300000e-01    1.930000e+00
  P5dh SC5vh  1 4.300000e-01    1.930000e+00
  P5dh SC4vh  1 4.300000e-01    1.730000e+00
  P5dh SC3vh  1 4.430000e-01    1.480000e+00
  P5dh SC2vh  1 4.430000e-01    1.480000e+00
  P5dh SC1vh  1 4.730000e-01    1.280000e+00
  P5dh SX4vh  1 4.300000e-01    2.320000e+00
  P5dh SX3vh  1 4.300000e-01    2.160000e+00
  P5dh SX2vh  1 4.300000e-01    2.160000e+00
  P5dh SX1vh  1 4.300000e-01    1.730000e+00
  P4dh SC6vh  1 4.300000e-01    2.160000e+00
  P4dh SC5vh  1 4.300000e-01    1.930000e+00
  P4dh SC4vh  1 4.300000e-01    1.730000e+00
  P4dh SC3vh  1 4.430000e-01    1.480000e+00
  P4dh SC2vh  1 4.430000e-01    1.480000e+00
  P4dh SC1vh  1 4.730000e-01    1.280000e+00
  P4dh SX4vh  1 4.300000e-01    2.320000e+00
  P4dh SX3vh  1 4.300000e-01    2.160000e+00
  P4dh SX2vh  1 4.300000e-01    2.160000e+00
  P4dh SX1vh  1 4.300000e-01    1.930000e+00
  P3dh SC6vh  1 4.300000e-01    2.320000e+00
  P3dh SC5vh  1 4.300000e-01    2.160000e+00
  P3dh SC4vh  1 4.300000e-01    1.930000e+00
  P3dh SC3vh  1 4.430000e-01    1.480000e+00
  P3dh SC2vh  1 4.430000e-01    1.480000e+00
  P3dh SC1vh  1 4.730000e-01    1.280000e+00
  P3dh SX4vh  1 4.300000e-01    2.320000e+00
  P3dh SX3vh  1 4.300000e-01    2.320000e+00
  P3dh SX2vh  1 4.300000e-01    2.160000e+00
  P3dh SX1vh  1 4.300000e-01    1.930000e+00
  P2dh SC6vh  1 4.300000e-01    2.320000e+00
  P2dh SC5vh  1 4.300000e-01    2.160000e+00
  P2dh SC4vh  1 4.300000e-01    1.930000e+00
  P2dh SC3vh  1 4.300000e-01    1.730000e+00
  P2dh SC2vh  1 4.300000e-01    1.730000e+00
  P2dh SC1vh  1 4.430000e-01    1.480000e+00
  P2dh SX4vh  1 4.300000e-01    2.320000e+00
  P2dh SX3vh  1 4.300000e-01    2.320000e+00
  P2dh SX2vh  1 4.300000e-01    2.160000e+00
  P2dh SX1vh  1 4.300000e-01    1.930000e+00
  P1dh SC6vh  1 4.300000e-01    2.320000e+00
  P1dh SC5vh  1 4.300000e-01    2.160000e+00
  P1dh SC4vh  1 4.300000e-01    1.930000e+00
  P1dh SC3vh  1 4.300000e-01    1.730000e+00
  P1dh SC2vh  1 4.300000e-01    1.730000e+00
  P1dh SC1vh  1 4.430000e-01    1.480000e+00
  P1dh SX4vh  1 4.300000e-01    2.320000e+00
  P1dh SX3vh  1 4.300000e-01    2.320000e+00
  P1dh SX2vh  1 4.300000e-01    2.160000e+00
  P1dh SX1vh  1 4.300000e-01    1.930000e+00
  N6dh SC6vh  1 4.300000e-01    2.530000e+00
  N6dh SC5vh  1 4.300000e-01    2.320000e+00
  N6dh SC4vh  1 4.300000e-01    2.160000e+00
  N6dh SC3vh  1 4.300000e-01    1.930000e+00
  N6dh SC2vh  1 4.300000e-01    1.930000e+00
  N6dh SC1vh  1 4.300000e-01    1.730000e+00
  N6dh SX4vh  1 4.300000e-01    2.530000e+00
  N6dh SX3vh  1 4.300000e-01    2.320000e+00
  N6dh SX2vh  1 4.300000e-01    2.160000e+00
  N6dh SX1vh  1 4.300000e-01    1.930000e+00
  N5dh SC6vh  1 4.300000e-01    2.530000e+00
  N5dh SC5vh  1 4.300000e-01    2.320000e+00
  N5dh SC4vh  1 4.300000e-01    2.160000e+00
  N5dh SC3vh  1 4.300000e-01    2.160000e+00
  N5dh SC2vh  1 4.300000e-01    1.930000e+00
  N5dh SC1vh  1 4.300000e-01    1.730000e+00
  N5dh SX4vh  1 4.300000e-01    2.920000e+00
  N5dh SX3vh  1 4.300000e-01    2.530000e+00
  N5dh SX2vh  1 4.300000e-01    2.320000e+00
  N5dh SX1vh  1 4.300000e-01    2.160000e+00
  N4dh SC6vh  1 4.300000e-01    2.530000e+00
  N4dh SC5vh  1 4.300000e-01    2.320000e+00
  N4dh SC4vh  1 4.300000e-01    2.320000e+00
  N4dh SC3vh  1 4.300000e-01    2.160000e+00
  N4dh SC2vh  1 4.300000e-01    1.930000e+00
  N4dh SC1vh  1 4.300000e-01    1.730000e+00
  N4dh SX4vh  1 4.300000e-01    2.930000e+00
  N4dh SX3vh  1 4.300000e-01    2.920000e+00
  N4dh SX2vh  1 4.300000e-01    2.320000e+00
  N4dh SX1vh  1 4.300000e-01    2.160000e+00
  N3dh SC6vh  1 4.300000e-01    2.530000e+00
  N3dh SC5vh  1 4.300000e-01    2.320000e+00
  N3dh SC4vh  1 4.300000e-01    2.320000e+00
  N3dh SC3vh  1 4.300000e-01    2.160000e+00
  N3dh SC2vh  1 4.300000e-01    2.160000e+00
  N3dh SC1vh  1 4.300000e-01    1.930000e+00
  N3dh SX4vh  1 4.300000e-01    2.920000e+00
  N3dh SX3vh  1 4.300000e-01    2.530000e+00
  N3dh SX2vh  1 4.300000e-01    2.320000e+00
  N3dh SX1vh  1 4.300000e-01    2.320000e+00
  N2dh SC6vh  1 4.300000e-01    2.530000e+00
  N2dh SC5vh  1 4.300000e-01    2.320000e+00
  N2dh SC4vh  1 4.300000e-01    2.320000e+00
  N2dh SC3vh  1 4.300000e-01    2.320000e+00
  N2dh SC2vh  1 4.300000e-01    2.160000e+00
  N2dh SC1vh  1 4.300000e-01    1.930000e+00
  N2dh SX4vh  1 4.300000e-01    2.920000e+00
  N2dh SX3vh  1 4.300000e-01    2.530000e+00
  N2dh SX2vh  1 4.300000e-01    2.320000e+00
  N2dh SX1vh  1 4.300000e-01    2.320000e+00
  N1dh SC6vh  1 4.300000e-01    2.920000e+00
  N1dh SC5vh  1 4.300000e-01    2.530000e+00
  N1dh SC4vh  1 4.300000e-01    2.530000e+00
  N1dh SC3vh  1 4.300000e-01    2.320000e+00
  N1dh SC2vh  1 4.300000e-01    2.160000e+00
  N1dh SC1vh  1 4.300000e-01    1.930000e+00
  N1dh SX4vh  1 4.300000e-01    2.530000e+00
  N1dh SX3vh  1 4.300000e-01    2.530000e+00
  N1dh SX2vh  1 4.300000e-01    2.320000e+00
  N1dh SX1vh  1 4.300000e-01    2.320000e+00
 SP6dh  C6vh  1 4.300000e-01    1.930000e+00
 SP6dh  C5vh  1 4.300000e-01    1.730000e+00
 SP6dh  C4vh  1 4.430000e-01    1.480000e+00
 SP6dh  C3vh  1 4.730000e-01    1.280000e+00
 SP6dh  C2vh  1 4.730000e-01    1.280000e+00
 SP6dh  C1vh  1 5.140000e-01    1.110000e+00
 SP6dh  X4vh  1 4.300000e-01    2.160000e+00
 SP6dh  X3vh  1 4.300000e-01    2.160000e+00
 SP6dh  X2vh  1 4.300000e-01    1.930000e+00
 SP6dh  X1vh  1 4.300000e-01    1.730000e+00
 SP5dh  C6vh  1 4.300000e-01    1.930000e+00
 SP5dh  C5vh  1 4.300000e-01    1.930000e+00
 SP5dh  C4vh  1 4.300000e-01    1.730000e+00
 SP5dh  C3vh  1 4.430000e-01    1.480000e+00
 SP5dh  C2vh  1 4.430000e-01    1.480000e+00
 SP5dh  C1vh  1 4.730000e-01    1.280000e+00
 SP5dh  X4vh  1 4.300000e-01    2.320000e+00
 SP5dh  X3vh  1 4.300000e-01    2.160000e+00
 SP5dh  X2vh  1 4.300000e-01    2.160000e+00
 SP5dh  X1vh  1 4.300000e-01    1.730000e+00
 SP4dh  C6vh  1 4.300000e-01    2.160000e+00
 SP4dh  C5vh  1 4.300000e-01    1.930000e+00
 SP4dh  C4vh  1 4.300000e-01    1.730000e+00
 SP4dh  C3vh  1 4.430000e-01    1.480000e+00
 SP4dh  C2vh  1 4.430000e-01    1.480000e+00
 SP4dh  C1vh  1 4.730000e-01    1.280000e+00
 SP4dh  X4vh  1 4.300000e-01    2.320000e+00
 SP4dh  X3vh  1 4.300000e-01    2.160000e+00
 SP4dh  X2vh  1 4.300000e-01    2.160000e+00
 SP4dh  X1vh  1 4.300000e-01    1.930000e+00
 SP3dh  C6vh  1 4.300000e-01    2.320000e+00
 SP3dh  C5vh  1 4.300000e-01    2.160000e+00
 SP3dh  C4vh  1 4.300000e-01    1.930000e+00
 SP3dh  C3vh  1 4.430000e-01    1.480000e+00
 SP3dh  C2vh  1 4.430000e-01    1.480000e+00
 SP3dh  C1vh  1 4.730000e-01    1.280000e+00
 SP3dh  X4vh  1 4.300000e-01    2.320000e+00
 SP3dh  X3vh  1 4.300000e-01    2.320000e+00
 SP3dh  X2vh  1 4.300000e-01    2.160000e+00
 SP3dh  X1vh  1 4.300000e-01    1.930000e+00
 SP2dh  C6vh  1 4.300000e-01    2.320000e+00
 SP2dh  C5vh  1 4.300000e-01    2.160000e+00
 SP2dh  C4vh  1 4.300000e-01    1.930000e+00
 SP2dh  C3vh  1 4.300000e-01    1.730000e+00
 SP2dh  C2vh  1 4.300000e-01    1.730000e+00
 SP2dh  C1vh  1 4.430000e-01    1.480000e+00
 SP2dh  X4vh  1 4.300000e-01    2.320000e+00
 SP2dh  X3vh  1 4.300000e-01    2.320000e+00
 SP2dh  X2vh  1 4.300000e-01    2.160000e+00
 SP2dh  X1vh  1 4.300000e-01    1.930000e+00
 SP1dh  C6vh  1 4.300000e-01    2.320000e+00
 SP1dh  C5vh  1 4.300000e-01    2.160000e+00
 SP1dh  C4vh  1 4.300000e-01    1.930000e+00
 SP1dh  C3vh  1 4.300000e-01    1.730000e+00
 SP1dh  C2vh  1 4.300000e-01    1.730000e+00
 SP1dh  C1vh  1 4.430000e-01    1.480000e+00
 SP1dh  X4vh  1 4.300000e-01    2.320000e+00
 SP1dh  X3vh  1 4.300000e-01    2.320000e+00
 SP1dh  X2vh  1 4.300000e-01    2.160000e+00
 SP1dh  X1vh  1 4.300000e-01    1.930000e+00
 SN6dh  C6vh  1 4.300000e-01    2.530000e+00
 SN6dh  C5vh  1 4.300000e-01    2.320000e+00
 SN6dh  C4vh  1 4.300000e-01    2.160000e+00
 SN6dh  C3vh  1 4.300000e-01    1.930000e+00
 SN6dh  C2vh  1 4.300000e-01    1.930000e+00
 SN6dh  C1vh  1 4.300000e-01    1.730000e+00
 SN6dh  X4vh  1 4.300000e-01    2.530000e+00
 SN6dh  X3vh  1 4.300000e-01    2.320000e+00
 SN6dh  X2vh  1 4.300000e-01    2.160000e+00
 SN6dh  X1vh  1 4.300000e-01    1.930000e+00
 SN5dh  C6vh  1 4.300000e-01    2.530000e+00
 SN5dh  C5vh  1 4.300000e-01    2.320000e+00
 SN5dh  C4vh  1 4.300000e-01    2.160000e+00
 SN5dh  C3vh  1 4.300000e-01    2.160000e+00
 SN5dh  C2vh  1 4.300000e-01    1.930000e+00
 SN5dh  C1vh  1 4.300000e-01    1.730000e+00
 SN5dh  X4vh  1 4.300000e-01    2.920000e+00
 SN5dh  X3vh  1 4.300000e-01    2.530000e+00
 SN5dh  X2vh  1 4.300000e-01    2.320000e+00
 SN5dh  X1vh  1 4.300000e-01    2.160000e+00
 SN4dh  C6vh  1 4.300000e-01    2.530000e+00
 SN4dh  C5vh  1 4.300000e-01    2.320000e+00
 SN4dh  C4vh  1 4.300000e-01    2.320000e+00
 SN4dh  C3vh  1 4.300000e-01    2.160000e+00
 SN4dh  C2vh  1 4.300000e-01    1.930000e+00
 SN4dh  C1vh  1 4.300000e-01    1.730000e+00
 SN4dh  X4vh  1 4.300000e-01    2.930000e+00
 SN4dh  X3vh  1 4.300000e-01    2.920000e+00
 SN4dh  X2vh  1 4.300000e-01    2.320000e+00
 SN4dh  X1vh  1 4.300000e-01    2.160000e+00
 SN3dh  C6vh  1 4.300000e-01    2.530000e+00
 SN3dh  C5vh  1 4.300000e-01    2.320000e+00
 SN3dh  C4vh  1 4.300000e-01    2.320000e+00
 SN3dh  C3vh  1 4.300000e-01    2.160000e+00
 SN3dh  C2vh  1 4.300000e-01    2.160000e+00
 SN3dh  C1vh  1 4.300000e-01    1.930000e+00
 SN3dh  X4vh  1 4.300000e-01    2.920000e+00
 SN3dh  X3vh  1 4.300000e-01    2.530000e+00
 SN3dh  X2vh  1 4.300000e-01    2.320000e+00
 SN3dh  X1vh  1 4.300000e-01    2.320000e+00
 SN2dh  C6vh  1 4.300000e-01    2.530000e+00
 SN2dh  C5vh  1 4.300000e-01    2.320000e+00
 SN2dh  C4vh  1 4.300000e-01    2.320000e+00
 SN2dh  C3vh  1 4.300000e-01    2.320000e+00
 SN2dh  C2vh  1 4.300000e-01    2.160000e+00
 SN2dh  C1vh  1 4.300000e-01    1.930000e+00
 SN2dh  X4vh  1 4.300000e-01    2.920000e+00
 SN2dh  X3vh  1 4.300000e-01    2.530000e+00
 SN2dh  X2vh  1 4.300000e-01    2.320000e+00
 SN2dh  X1vh  1 4.300000e-01    2.320000e+00
 SN1dh  C6vh  1 4.300000e-01    2.920000e+00
 SN1dh  C5vh  1 4.300000e-01    2.530000e+00
 SN1dh  C4vh  1 4.300000e-01    2.530000e+00
 SN1dh  C3vh  1 4.300000e-01    2.320000e+00
 SN1dh  C2vh  1 4.300000e-01    2.160000e+00
 SN1dh  C1vh  1 4.300000e-01    1.930000e+00
 SN1dh  X4vh  1 4.300000e-01    2.530000e+00
 SN1dh  X3vh  1 4.300000e-01    2.530000e+00
 SN1dh  X2vh  1 4.300000e-01    2.320000e+00
 SN1dh  X1vh  1 4.300000e-01    2.320000e+00
  P6dh SC6vr  1 4.300000e-01    1.930000e+00
  P6dh SC5vr  1 4.300000e-01    1.730000e+00
  P6dh SC4vr  1 4.430000e-01    1.480000e+00
  P6dh SC3vr  1 4.730000e-01    1.280000e+00
  P6dh SC2vr  1 4.730000e-01    1.280000e+00
  P6dh SC1vr  1 5.140000e-01    1.110000e+00
  P6dh SX4vr  1 4.300000e-01    2.160000e+00
  P6dh SX3vr  1 4.300000e-01    2.160000e+00
  P6dh SX2vr  1 4.300000e-01    1.930000e+00
  P6dh SX1vr  1 4.300000e-01    1.730000e+00
  P5dh SC6vr  1 4.300000e-01    1.930000e+00
  P5dh SC5vr  1 4.300000e-01    1.930000e+00
  P5dh SC4vr  1 4.300000e-01    1.730000e+00
  P5dh SC3vr  1 4.430000e-01    1.480000e+00
  P5dh SC2vr  1 4.430000e-01    1.480000e+00
  P5dh SC1vr  1 4.730000e-01    1.280000e+00
  P5dh SX4vr  1 4.300000e-01    2.320000e+00
  P5dh SX3vr  1 4.300000e-01    2.160000e+00
  P5dh SX2vr  1 4.300000e-01    2.160000e+00
  P5dh SX1vr  1 4.300000e-01    1.730000e+00
  P4dh SC6vr  1 4.300000e-01    2.160000e+00
  P4dh SC5vr  1 4.300000e-01    1.930000e+00
  P4dh SC4vr  1 4.300000e-01    1.730000e+00
  P4dh SC3vr  1 4.430000e-01    1.480000e+00
  P4dh SC2vr  1 4.430000e-01    1.480000e+00
  P4dh SC1vr  1 4.730000e-01    1.280000e+00
  P4dh SX4vr  1 4.300000e-01    2.320000e+00
  P4dh SX3vr  1 4.300000e-01    2.160000e+00
  P4dh SX2vr  1 4.300000e-01    2.160000e+00
  P4dh SX1vr  1 4.300000e-01    1.930000e+00
  P3dh SC6vr  1 4.300000e-01    2.320000e+00
  P3dh SC5vr  1 4.300000e-01    2.160000e+00
  P3dh SC4vr  1 4.300000e-01    1.930000e+00
  P3dh SC3vr  1 4.430000e-01    1.480000e+00
  P3dh SC2vr  1 4.430000e-01    1.480000e+00
  P3dh SC1vr  1 4.730000e-01    1.280000e+00
  P3dh SX4vr  1 4.300000e-01    2.320000e+00
  P3dh SX3vr  1 4.300000e-01    2.320000e+00
  P3dh SX2vr  1 4.300000e-01    2.160000e+00
  P3dh SX1vr  1 4.300000e-01    1.930000e+00
  P2dh SC6vr  1 4.300000e-01    2.320000e+00
  P2dh SC5vr  1 4.300000e-01    2.160000e+00
  P2dh SC4vr  1 4.300000e-01    1.930000e+00
  P2dh SC3vr  1 4.300000e-01    1.730000e+00
  P2dh SC2vr  1 4.300000e-01    1.730000e+00
  P2dh SC1vr  1 4.430000e-01    1.480000e+00
  P2dh SX4vr  1 4.300000e-01    2.320000e+00
  P2dh SX3vr  1 4.300000e-01    2.320000e+00
  P2dh SX2vr  1 4.300000e-01    2.160000e+00
  P2dh SX1vr  1 4.300000e-01    1.930000e+00
  P1dh SC6vr  1 4.300000e-01    2.320000e+00
  P1dh SC5vr  1 4.300000e-01    2.160000e+00
  P1dh SC4vr  1 4.300000e-01    1.930000e+00
  P1dh SC3vr  1 4.300000e-01    1.730000e+00
  P1dh SC2vr  1 4.300000e-01    1.730000e+00
  P1dh SC1vr  1 4.430000e-01    1.480000e+00
  P1dh SX4vr  1 4.300000e-01    2.320000e+00
  P1dh SX3vr  1 4.300000e-01    2.320000e+00
  P1dh SX2vr  1 4.300000e-01    2.160000e+00
  P1dh SX1vr  1 4.300000e-01    1.930000e+00
  N6dh SC6vr  1 4.300000e-01    2.530000e+00
  N6dh SC5vr  1 4.300000e-01    2.320000e+00
  N6dh SC4vr  1 4.300000e-01    2.160000e+00
  N6dh SC3vr  1 4.300000e-01    1.930000e+00
  N6dh SC2vr  1 4.300000e-01    1.930000e+00
  N6dh SC1vr  1 4.300000e-01    1.730000e+00
  N6dh SX4vr  1 4.300000e-01    2.530000e+00
  N6dh SX3vr  1 4.300000e-01    2.320000e+00
  N6dh SX2vr  1 4.300000e-01    2.160000e+00
  N6dh SX1vr  1 4.300000e-01    1.930000e+00
  N5dh SC6vr  1 4.300000e-01    2.530000e+00
  N5dh SC5vr  1 4.300000e-01    2.320000e+00
  N5dh SC4vr  1 4.300000e-01    2.160000e+00
  N5dh SC3vr  1 4.300000e-01    2.160000e+00
  N5dh SC2vr  1 4.300000e-01    1.930000e+00
  N5dh SC1vr  1 4.300000e-01    1.730000e+00
  N5dh SX4vr  1 4.300000e-01    2.920000e+00
  N5dh SX3vr  1 4.300000e-01    2.530000e+00
  N5dh SX2vr  1 4.300000e-01    2.320000e+00
  N5dh SX1vr  1 4.300000e-01    2.160000e+00
  N4dh SC6vr  1 4.300000e-01    2.530000e+00
  N4dh SC5vr  1 4.300000e-01    2.320000e+00
  N4dh SC4vr  1 4.300000e-01    2.320000e+00
  N4dh SC3vr  1 4.300000e-01    2.160000e+00
  N4dh SC2vr  1 4.300000e-01    1.930000e+00
  N4dh SC1vr  1 4.300000e-01    1.730000e+00
  N4dh SX4vr  1 4.300000e-01    2.930000e+00
  N4dh SX3vr  1 4.300000e-01    2.920000e+00
  N4dh SX2vr  1 4.300000e-01    2.320000e+00
  N4dh SX1vr  1 4.300000e-01    2.160000e+00
  N3dh SC6vr  1 4.300000e-01    2.530000e+00
  N3dh SC5vr  1 4.300000e-01    2.320000e+00
  N3dh SC4vr  1 4.300000e-01    2.320000e+00
  N3dh SC3vr  1 4.300000e-01    2.160000e+00
  N3dh SC2vr  1 4.300000e-01    2.160000e+00
  N3dh SC1vr  1 4.300000e-01    1.930000e+00
  N3dh SX4vr  1 4.300000e-01    2.920000e+00
  N3dh SX3vr  1 4.300000e-01    2.530000e+00
  N3dh SX2vr  1 4.300000e-01    2.320000e+00
  N3dh SX1vr  1 4.300000e-01    2.320000e+00
  N2dh SC6vr  1 4.300000e-01    2.530000e+00
  N2dh SC5vr  1 4.300000e-01    2.320000e+00
  N2dh SC4vr  1 4.300000e-01    2.320000e+00
  N2dh SC3vr  1 4.300000e-01    2.320000e+00
  N2dh SC2vr  1 4.300000e-01    2.160000e+00
  N2dh SC1vr  1 4.300000e-01    1.930000e+00
  N2dh SX4vr  1 4.300000e-01    2.920000e+00
  N2dh SX3vr  1 4.300000e-01    2.530000e+00
  N2dh SX2vr  1 4.300000e-01    2.320000e+00
  N2dh SX1vr  1 4.300000e-01    2.320000e+00
  N1dh SC6vr  1 4.300000e-01    2.920000e+00
  N1dh SC5vr  1 4.300000e-01    2.530000e+00
  N1dh SC4vr  1 4.300000e-01    2.530000e+00
  N1dh SC3vr  1 4.300000e-01    2.320000e+00
  N1dh SC2vr  1 4.300000e-01    2.160000e+00
  N1dh SC1vr  1 4.300000e-01    1.930000e+00
  N1dh SX4vr  1 4.300000e-01    2.530000e+00
  N1dh SX3vr  1 4.300000e-01    2.530000e+00
  N1dh SX2vr  1 4.300000e-01    2.320000e+00
  N1dh SX1vr  1 4.300000e-01    2.320000e+00
 SP6dh  C6vr  1 4.300000e-01    1.930000e+00
 SP6dh  C5vr  1 4.300000e-01    1.730000e+00
 SP6dh  C4vr  1 4.430000e-01    1.480000e+00
 SP6dh  C3vr  1 4.730000e-01    1.280000e+00
 SP6dh  C2vr  1 4.730000e-01    1.280000e+00
 SP6dh  C1vr  1 5.140000e-01    1.110000e+00
 SP6dh  X4vr  1 4.300000e-01    2.160000e+00
 SP6dh  X3vr  1 4.300000e-01    2.160000e+00
 SP6dh  X2vr  1 4.300000e-01    1.930000e+00
 SP6dh  X1vr  1 4.300000e-01    1.730000e+00
 SP5dh  C6vr  1 4.300000e-01    1.930000e+00
 SP5dh  C5vr  1 4.300000e-01    1.930000e+00
 SP5dh  C4vr  1 4.300000e-01    1.730000e+00
 SP5dh  C3vr  1 4.430000e-01    1.480000e+00
 SP5dh  C2vr  1 4.430000e-01    1.480000e+00
 SP5dh  C1vr  1 4.730000e-01    1.280000e+00
 SP5dh  X4vr  1 4.300000e-01    2.320000e+00
 SP5dh  X3vr  1 4.300000e-01    2.160000e+00
 SP5dh  X2vr  1 4.300000e-01    2.160000e+00
 SP5dh  X1vr  1 4.300000e-01    1.730000e+00
 SP4dh  C6vr  1 4.300000e-01    2.160000e+00
 SP4dh  C5vr  1 4.300000e-01    1.930000e+00
 SP4dh  C4vr  1 4.300000e-01    1.730000e+00
 SP4dh  C3vr  1 4.430000e-01    1.480000e+00
 SP4dh  C2vr  1 4.430000e-01    1.480000e+00
 SP4dh  C1vr  1 4.730000e-01    1.280000e+00
 SP4dh  X4vr  1 4.300000e-01    2.320000e+00
 SP4dh  X3vr  1 4.300000e-01    2.160000e+00
 SP4dh  X2vr  1 4.300000e-01    2.160000e+00
 SP4dh  X1vr  1 4.300000e-01    1.930000e+00
 SP3dh  C6vr  1 4.300000e-01    2.320000e+00
 SP3dh  C5vr  1 4.300000e-01    2.160000e+00
 SP3dh  C4vr  1 4.300000e-01    1.930000e+00
 SP3dh  C3vr  1 4.430000e-01    1.480000e+00
 SP3dh  C2vr  1 4.430000e-01    1.480000e+00
 SP3dh  C1vr  1 4.730000e-01    1.280000e+00
 SP3dh  X4vr  1 4.300000e-01    2.320000e+00
 SP3dh  X3vr  1 4.300000e-01    2.320000e+00
 SP3dh  X2vr  1 4.300000e-01    2.160000e+00
 SP3dh  X1vr  1 4.300000e-01    1.930000e+00
 SP2dh  C6vr  1 4.300000e-01    2.320000e+00
 SP2dh  C5vr  1 4.300000e-01    2.160000e+00
 SP2dh  C4vr  1 4.300000e-01    1.930000e+00
 SP2dh  C3vr  1 4.300000e-01    1.730000e+00
 SP2dh  C2vr  1 4.300000e-01    1.730000e+00
 SP2dh  C1vr  1 4.430000e-01    1.480000e+00
 SP2dh  X4vr  1 4.300000e-01    2.320000e+00
 SP2dh  X3vr  1 4.300000e-01    2.320000e+00
 SP2dh  X2vr  1 4.300000e-01    2.160000e+00
 SP2dh  X1vr  1 4.300000e-01    1.930000e+00
 SP1dh  C6vr  1 4.300000e-01    2.320000e+00
 SP1dh  C5vr  1 4.300000e-01    2.160000e+00
 SP1dh  C4vr  1 4.300000e-01    1.930000e+00
 SP1dh  C3vr  1 4.300000e-01    1.730000e+00
 SP1dh  C2vr  1 4.300000e-01    1.730000e+00
 SP1dh  C1vr  1 4.430000e-01    1.480000e+00
 SP1dh  X4vr  1 4.300000e-01    2.320000e+00
 SP1dh  X3vr  1 4.300000e-01    2.320000e+00
 SP1dh  X2vr  1 4.300000e-01    2.160000e+00
 SP1dh  X1vr  1 4.300000e-01    1.930000e+00
 SN6dh  C6vr  1 4.300000e-01    2.530000e+00
 SN6dh  C5vr  1 4.300000e-01    2.320000e+00
 SN6dh  C4vr  1 4.300000e-01    2.160000e+00
 SN6dh  C3vr  1 4.300000e-01    1.930000e+00
 SN6dh  C2vr  1 4.300000e-01    1.930000e+00
 SN6dh  C1vr  1 4.300000e-01    1.730000e+00
 SN6dh  X4vr  1 4.300000e-01    2.530000e+00
 SN6dh  X3vr  1 4.300000e-01    2.320000e+00
 SN6dh  X2vr  1 4.300000e-01    2.160000e+00
 SN6dh  X1vr  1 4.300000e-01    1.930000e+00
 SN5dh  C6vr  1 4.300000e-01    2.530000e+00
 SN5dh  C5vr  1 4.300000e-01    2.320000e+00
 SN5dh  C4vr  1 4.300000e-01    2.160000e+00
 SN5dh  C3vr  1 4.300000e-01    2.160000e+00
 SN5dh  C2vr  1 4.300000e-01    1.930000e+00
 SN5dh  C1vr  1 4.300000e-01    1.730000e+00
 SN5dh  X4vr  1 4.300000e-01    2.920000e+00
 SN5dh  X3vr  1 4.300000e-01    2.530000e+00
 SN5dh  X2vr  1 4.300000e-01    2.320000e+00
 SN5dh  X1vr  1 4.300000e-01    2.160000e+00
 SN4dh  C6vr  1 4.300000e-01    2.530000e+00
 SN4dh  C5vr  1 4.300000e-01    2.320000e+00
 SN4dh  C4vr  1 4.300000e-01    2.320000e+00
 SN4dh  C3vr  1 4.300000e-01    2.160000e+00
 SN4dh  C2vr  1 4.300000e-01    1.930000e+00
 SN4dh  C1vr  1 4.300000e-01    1.730000e+00
 SN4dh  X4vr  1 4.300000e-01    2.930000e+00
 SN4dh  X3vr  1 4.300000e-01    2.920000e+00
 SN4dh  X2vr  1 4.300000e-01    2.320000e+00
 SN4dh  X1vr  1 4.300000e-01    2.160000e+00
 SN3dh  C6vr  1 4.300000e-01    2.530000e+00
 SN3dh  C5vr  1 4.300000e-01    2.320000e+00
 SN3dh  C4vr  1 4.300000e-01    2.320000e+00
 SN3dh  C3vr  1 4.300000e-01    2.160000e+00
 SN3dh  C2vr  1 4.300000e-01    2.160000e+00
 SN3dh  C1vr  1 4.300000e-01    1.930000e+00
 SN3dh  X4vr  1 4.300000e-01    2.920000e+00
 SN3dh  X3vr  1 4.300000e-01    2.530000e+00
 SN3dh  X2vr  1 4.300000e-01    2.320000e+00
 SN3dh  X1vr  1 4.300000e-01    2.320000e+00
 SN2dh  C6vr  1 4.300000e-01    2.530000e+00
 SN2dh  C5vr  1 4.300000e-01    2.320000e+00
 SN2dh  C4vr  1 4.300000e-01    2.320000e+00
 SN2dh  C3vr  1 4.300000e-01    2.320000e+00
 SN2dh  C2vr  1 4.300000e-01    2.160000e+00
 SN2dh  C1vr  1 4.300000e-01    1.930000e+00
 SN2dh  X4vr  1 4.300000e-01    2.920000e+00
 SN2dh  X3vr  1 4.300000e-01    2.530000e+00
 SN2dh  X2vr  1 4.300000e-01    2.320000e+00
 SN2dh  X1vr  1 4.300000e-01    2.320000e+00
 SN1dh  C6vr  1 4.300000e-01    2.920000e+00
 SN1dh  C5vr  1 4.300000e-01    2.530000e+00
 SN1dh  C4vr  1 4.300000e-01    2.530000e+00
 SN1dh  C3vr  1 4.300000e-01    2.320000e+00
 SN1dh  C2vr  1 4.300000e-01    2.160000e+00
 SN1dh  C1vr  1 4.300000e-01    1.930000e+00
 SN1dh  X4vr  1 4.300000e-01    2.530000e+00
 SN1dh  X3vr  1 4.300000e-01    2.530000e+00
 SN1dh  X2vr  1 4.300000e-01    2.320000e+00
 SN1dh  X1vr  1 4.300000e-01    2.320000e+00
  P6dr  SC6v  1 4.300000e-01    1.930000e+00
  P6dr  SC5v  1 4.300000e-01    1.730000e+00
  P6dr  SC4v  1 4.430000e-01    1.480000e+00
  P6dr  SC3v  1 4.730000e-01    1.280000e+00
  P6dr  SC2v  1 4.730000e-01    1.280000e+00
  P6dr  SC1v  1 5.140000e-01    1.110000e+00
  P6dr  SX4v  1 4.300000e-01    2.160000e+00
  P6dr  SX3v  1 4.300000e-01    2.160000e+00
  P6dr  SX2v  1 4.300000e-01    1.930000e+00
  P6dr  SX1v  1 4.300000e-01    1.730000e+00
  P5dr  SC6v  1 4.300000e-01    1.930000e+00
  P5dr  SC5v  1 4.300000e-01    1.930000e+00
  P5dr  SC4v  1 4.300000e-01    1.730000e+00
  P5dr  SC3v  1 4.430000e-01    1.480000e+00
  P5dr  SC2v  1 4.430000e-01    1.480000e+00
  P5dr  SC1v  1 4.730000e-01    1.280000e+00
  P5dr  SX4v  1 4.300000e-01    2.320000e+00
  P5dr  SX3v  1 4.300000e-01    2.160000e+00
  P5dr  SX2v  1 4.300000e-01    2.160000e+00
  P5dr  SX1v  1 4.300000e-01    1.730000e+00
  P4dr  SC6v  1 4.300000e-01    2.160000e+00
  P4dr  SC5v  1 4.300000e-01    1.930000e+00
  P4dr  SC4v  1 4.300000e-01    1.730000e+00
  P4dr  SC3v  1 4.430000e-01    1.480000e+00
  P4dr  SC2v  1 4.430000e-01    1.480000e+00
  P4dr  SC1v  1 4.730000e-01    1.280000e+00
  P4dr  SX4v  1 4.300000e-01    2.320000e+00
  P4dr  SX3v  1 4.300000e-01    2.160000e+00
  P4dr  SX2v  1 4.300000e-01    2.160000e+00
  P4dr  SX1v  1 4.300000e-01    1.930000e+00
  P3dr  SC6v  1 4.300000e-01    2.320000e+00
  P3dr  SC5v  1 4.300000e-01    2.160000e+00
  P3dr  SC4v  1 4.300000e-01    1.930000e+00
  P3dr  SC3v  1 4.430000e-01    1.480000e+00
  P3dr  SC2v  1 4.430000e-01    1.480000e+00
  P3dr  SC1v  1 4.730000e-01    1.280000e+00
  P3dr  SX4v  1 4.300000e-01    2.320000e+00
  P3dr  SX3v  1 4.300000e-01    2.320000e+00
  P3dr  SX2v  1 4.300000e-01    2.160000e+00
  P3dr  SX1v  1 4.300000e-01    1.930000e+00
  P2dr  SC6v  1 4.300000e-01    2.320000e+00
  P2dr  SC5v  1 4.300000e-01    2.160000e+00
  P2dr  SC4v  1 4.300000e-01    1.930000e+00
  P2dr  SC3v  1 4.300000e-01    1.730000e+00
  P2dr  SC2v  1 4.300000e-01    1.730000e+00
  P2dr  SC1v  1 4.430000e-01    1.480000e+00
  P2dr  SX4v  1 4.300000e-01    2.320000e+00
  P2dr  SX3v  1 4.300000e-01    2.320000e+00
  P2dr  SX2v  1 4.300000e-01    2.160000e+00
  P2dr  SX1v  1 4.300000e-01    1.930000e+00
  P1dr  SC6v  1 4.300000e-01    2.320000e+00
  P1dr  SC5v  1 4.300000e-01    2.160000e+00
  P1dr  SC4v  1 4.300000e-01    1.930000e+00
  P1dr  SC3v  1 4.300000e-01    1.730000e+00
  P1dr  SC2v  1 4.300000e-01    1.730000e+00
  P1dr  SC1v  1 4.430000e-01    1.480000e+00
  P1dr  SX4v  1 4.300000e-01    2.320000e+00
  P1dr  SX3v  1 4.300000e-01    2.320000e+00
  P1dr  SX2v  1 4.300000e-01    2.160000e+00
  P1dr  SX1v  1 4.300000e-01    1.930000e+00
  N6dr  SC6v  1 4.300000e-01    2.530000e+00
  N6dr  SC5v  1 4.300000e-01    2.320000e+00
  N6dr  SC4v  1 4.300000e-01    2.160000e+00
  N6dr  SC3v  1 4.300000e-01    1.930000e+00
  N6dr  SC2v  1 4.300000e-01    1.930000e+00
  N6dr  SC1v  1 4.300000e-01    1.730000e+00
  N6dr  SX4v  1 4.300000e-01    2.530000e+00
  N6dr  SX3v  1 4.300000e-01    2.320000e+00
  N6dr  SX2v  1 4.300000e-01    2.160000e+00
  N6dr  SX1v  1 4.300000e-01    1.930000e+00
  N5dr  SC6v  1 4.300000e-01    2.530000e+00
  N5dr  SC5v  1 4.300000e-01    2.320000e+00
  N5dr  SC4v  1 4.300000e-01    2.160000e+00
  N5dr  SC3v  1 4.300000e-01    2.160000e+00
  N5dr  SC2v  1 4.300000e-01    1.930000e+00
  N5dr  SC1v  1 4.300000e-01    1.730000e+00
  N5dr  SX4v  1 4.300000e-01    2.920000e+00
  N5dr  SX3v  1 4.300000e-01    2.530000e+00
  N5dr  SX2v  1 4.300000e-01    2.320000e+00
  N5dr  SX1v  1 4.300000e-01    2.160000e+00
  N4dr  SC6v  1 4.300000e-01    2.530000e+00
  N4dr  SC5v  1 4.300000e-01    2.320000e+00
  N4dr  SC4v  1 4.300000e-01    2.320000e+00
  N4dr  SC3v  1 4.300000e-01    2.160000e+00
  N4dr  SC2v  1 4.300000e-01    1.930000e+00
  N4dr  SC1v  1 4.300000e-01    1.730000e+00
  N4dr  SX4v  1 4.300000e-01    2.930000e+00
  N4dr  SX3v  1 4.300000e-01    2.920000e+00
  N4dr  SX2v  1 4.300000e-01    2.320000e+00
  N4dr  SX1v  1 4.300000e-01    2.160000e+00
  N3dr  SC6v  1 4.300000e-01    2.530000e+00
  N3dr  SC5v  1 4.300000e-01    2.320000e+00
  N3dr  SC4v  1 4.300000e-01    2.320000e+00
  N3dr  SC3v  1 4.300000e-01    2.160000e+00
  N3dr  SC2v  1 4.300000e-01    2.160000e+00
  N3dr  SC1v  1 4.300000e-01    1.930000e+00
  N3dr  SX4v  1 4.300000e-01    2.920000e+00
  N3dr  SX3v  1 4.300000e-01    2.530000e+00
  N3dr  SX2v  1 4.300000e-01    2.320000e+00
  N3dr  SX1v  1 4.300000e-01    2.320000e+00
  N2dr  SC6v  1 4.300000e-01    2.530000e+00
  N2dr  SC5v  1 4.300000e-01    2.320000e+00
  N2dr  SC4v  1 4.300000e-01    2.320000e+00
  N2dr  SC3v  1 4.300000e-01    2.320000e+00
  N2dr  SC2v  1 4.300000e-01    2.160000e+00
  N2dr  SC1v  1 4.300000e-01    1.930000e+00
  N2dr  SX4v  1 4.300000e-01    2.920000e+00
  N2dr  SX3v  1 4.300000e-01    2.530000e+00
  N2dr  SX2v  1 4.300000e-01    2.320000e+00
  N2dr  SX1v  1 4.300000e-01    2.320000e+00
  N1dr  SC6v  1 4.300000e-01    2.920000e+00
  N1dr  SC5v  1 4.300000e-01    2.530000e+00
  N1dr  SC4v  1 4.300000e-01    2.530000e+00
  N1dr  SC3v  1 4.300000e-01    2.320000e+00
  N1dr  SC2v  1 4.300000e-01    2.160000e+00
  N1dr  SC1v  1 4.300000e-01    1.930000e+00
  N1dr  SX4v  1 4.300000e-01    2.530000e+00
  N1dr  SX3v  1 4.300000e-01    2.530000e+00
  N1dr  SX2v  1 4.300000e-01    2.320000e+00
  N1dr  SX1v  1 4.300000e-01    2.320000e+00
 SP6dr   C6v  1 4.300000e-01    1.930000e+00
 SP6dr   C5v  1 4.300000e-01    1.730000e+00
 SP6dr   C4v  1 4.430000e-01    1.480000e+00
 SP6dr   C3v  1 4.730000e-01    1.280000e+00
 SP6dr   C2v  1 4.730000e-01    1.280000e+00
 SP6dr   C1v  1 5.140000e-01    1.110000e+00
 SP6dr   X4v  1 4.300000e-01    2.160000e+00
 SP6dr   X3v  1 4.300000e-01    2.160000e+00
 SP6dr   X2v  1 4.300000e-01    1.930000e+00
 SP6dr   X1v  1 4.300000e-01    1.730000e+00
 SP5dr   C6v  1 4.300000e-01    1.930000e+00
 SP5dr   C5v  1 4.300000e-01    1.930000e+00
 SP5dr   C4v  1 4.300000e-01    1.730000e+00
 SP5dr   C3v  1 4.430000e-01    1.480000e+00
 SP5dr   C2v  1 4.430000e-01    1.480000e+00
 SP5dr   C1v  1 4.730000e-01    1.280000e+00
 SP5dr   X4v  1 4.300000e-01    2.320000e+00
 SP5dr   X3v  1 4.300000e-01    2.160000e+00
 SP5dr   X2v  1 4.300000e-01    2.160000e+00
 SP5dr   X1v  1 4.300000e-01    1.730000e+00
 SP4dr   C6v  1 4.300000e-01    2.160000e+00
 SP4dr   C5v  1 4.300000e-01    1.930000e+00
 SP4dr   C4v  1 4.300000e-01    1.730000e+00
 SP4dr   C3v  1 4.430000e-01    1.480000e+00
 SP4dr   C2v  1 4.430000e-01    1.480000e+00
 SP4dr   C1v  1 4.730000e-01    1.280000e+00
 SP4dr   X4v  1 4.300000e-01    2.320000e+00
 SP4dr   X3v  1 4.300000e-01    2.160000e+00
 SP4dr   X2v  1 4.300000e-01    2.160000e+00
 SP4dr   X1v  1 4.300000e-01    1.930000e+00
 SP3dr   C6v  1 4.300000e-01    2.320000e+00
 SP3dr   C5v  1 4.300000e-01    2.160000e+00
 SP3dr   C4v  1 4.300000e-01    1.930000e+00
 SP3dr   C3v  1 4.430000e-01    1.480000e+00
 SP3dr   C2v  1 4.430000e-01    1.480000e+00
 SP3dr   C1v  1 4.730000e-01    1.280000e+00
 SP3dr   X4v  1 4.300000e-01    2.320000e+00
 SP3dr   X3v  1 4.300000e-01    2.320000e+00
 SP3dr   X2v  1 4.300000e-01    2.160000e+00
 SP3dr   X1v  1 4.300000e-01    1.930000e+00
 SP2dr   C6v  1 4.300000e-01    2.320000e+00
 SP2dr   C5v  1 4.300000e-01    2.160000e+00
 SP2dr   C4v  1 4.300000e-01    1.930000e+00
 SP2dr   C3v  1 4.300000e-01    1.730000e+00
 SP2dr   C2v  1 4.300000e-01    1.730000e+00
 SP2dr   C1v  1 4.430000e-01    1.480000e+00
 SP2dr   X4v  1 4.300000e-01    2.320000e+00
 SP2dr   X3v  1 4.300000e-01    2.320000e+00
 SP2dr   X2v  1 4.300000e-01    2.160000e+00
 SP2dr   X1v  1 4.300000e-01    1.930000e+00
 SP1dr   C6v  1 4.300000e-01    2.320000e+00
 SP1dr   C5v  1 4.300000e-01    2.160000e+00
 SP1dr   C4v  1 4.300000e-01    1.930000e+00
 SP1dr   C3v  1 4.300000e-01    1.730000e+00
 SP1dr   C2v  1 4.300000e-01    1.730000e+00
 SP1dr   C1v  1 4.430000e-01    1.480000e+00
 SP1dr   X4v  1 4.300000e-01    2.320000e+00
 SP1dr   X3v  1 4.300000e-01    2.320000e+00
 SP1dr   X2v  1 4.300000e-01    2.160000e+00
 SP1dr   X1v  1 4.300000e-01    1.930000e+00
 SN6dr   C6v  1 4.300000e-01    2.530000e+00
 SN6dr   C5v  1 4.300000e-01    2.320000e+00
 SN6dr   C4v  1 4.300000e-01    2.160000e+00
 SN6dr   C3v  1 4.300000e-01    1.930000e+00
 SN6dr   C2v  1 4.300000e-01    1.930000e+00
 SN6dr   C1v  1 4.300000e-01    1.730000e+00
 SN6dr   X4v  1 4.300000e-01    2.530000e+00
 SN6dr   X3v  1 4.300000e-01    2.320000e+00
 SN6dr   X2v  1 4.300000e-01    2.160000e+00
 SN6dr   X1v  1 4.300000e-01    1.930000e+00
 SN5dr   C6v  1 4.300000e-01    2.530000e+00
 SN5dr   C5v  1 4.300000e-01    2.320000e+00
 SN5dr   C4v  1 4.300000e-01    2.160000e+00
 SN5dr   C3v  1 4.300000e-01    2.160000e+00
 SN5dr   C2v  1 4.300000e-01    1.930000e+00
 SN5dr   C1v  1 4.300000e-01    1.730000e+00
 SN5dr   X4v  1 4.300000e-01    2.920000e+00
 SN5dr   X3v  1 4.300000e-01    2.530000e+00
 SN5dr   X2v  1 4.300000e-01    2.320000e+00
 SN5dr   X1v  1 4.300000e-01    2.160000e+00
 SN4dr   C6v  1 4.300000e-01    2.530000e+00
 SN4dr   C5v  1 4.300000e-01    2.320000e+00
 SN4dr   C4v  1 4.300000e-01    2.320000e+00
 SN4dr   C3v  1 4.300000e-01    2.160000e+00
 SN4dr   C2v  1 4.300000e-01    1.930000e+00
 SN4dr   C1v  1 4.300000e-01    1.730000e+00
 SN4dr   X4v  1 4.300000e-01    2.930000e+00
 SN4dr   X3v  1 4.300000e-01    2.920000e+00
 SN4dr   X2v  1 4.300000e-01    2.320000e+00
 SN4dr   X1v  1 4.300000e-01    2.160000e+00
 SN3dr   C6v  1 4.300000e-01    2.530000e+00
 SN3dr   C5v  1 4.300000e-01    2.320000e+00
 SN3dr   C4v  1 4.300000e-01    2.320000e+00
 SN3dr   C3v  1 4.300000e-01    2.160000e+00
 SN3dr   C2v  1 4.300000e-01    2.160000e+00
 SN3dr   C1v  1 4.300000e-01    1.930000e+00
 SN3dr   X4v  1 4.300000e-01    2.920000e+00
 SN3dr   X3v  1 4.300000e-01    2.530000e+00
 SN3dr   X2v  1 4.300000e-01    2.320000e+00
 SN3dr   X1v  1 4.300000e-01    2.320000e+00
 SN2dr   C6v  1 4.300000e-01    2.530000e+00
 SN2dr   C5v  1 4.300000e-01    2.320000e+00
 SN2dr   C4v  1 4.300000e-01    2.320000e+00
 SN2dr   C3v  1 4.300000e-01    2.320000e+00
 SN2dr   C2v  1 4.300000e-01    2.160000e+00
 SN2dr   C1v  1 4.300000e-01    1.930000e+00
 SN2dr   X4v  1 4.300000e-01    2.920000e+00
 SN2dr   X3v  1 4.300000e-01    2.530000e+00
 SN2dr   X2v  1 4.300000e-01    2.320000e+00
 SN2dr   X1v  1 4.300000e-01    2.320000e+00
 SN1dr   C6v  1 4.300000e-01    2.920000e+00
 SN1dr   C5v  1 4.300000e-01    2.530000e+00
 SN1dr   C4v  1 4.300000e-01    2.530000e+00
 SN1dr   C3v  1 4.300000e-01    2.320000e+00
 SN1dr   C2v  1 4.300000e-01    2.160000e+00
 SN1dr   C1v  1 4.300000e-01    1.930000e+00
 SN1dr   X4v  1 4.300000e-01    2.530000e+00
 SN1dr   X3v  1 4.300000e-01    2.530000e+00
 SN1dr   X2v  1 4.300000e-01    2.320000e+00
 SN1dr   X1v  1 4.300000e-01    2.320000e+00
  P6dr SX1vq  1 4.300000e-01    2.160000e+00
  P6dr SX2vq  1 4.300000e-01    2.320000e+00
  P6dr SX3vq  1 4.300000e-01    2.530000e+00
  P6dr SX4vq  1 4.300000e-01    2.530000e+00
  P6dr SC1vq  1 4.730000e-01    1.280000e+00
  P6dr SC2vq  1 4.300000e-01    1.730000e+00
  P6dr SC3vq  1 4.300000e-01    1.730000e+00
  P6dr SC4vq  1 4.300000e-01    1.930000e+00
  P6dr SC5vq  1 4.300000e-01    2.160000e+00
  P6dr SC6vq  1 4.300000e-01    2.320000e+00
  P5dr SX1vq  1 4.300000e-01    2.160000e+00
  P5dr SX2vq  1 4.300000e-01    2.530000e+00
  P5dr SX3vq  1 4.300000e-01    2.530000e+00
  P5dr SX4vq  1 4.300000e-01    2.920000e+00
  P5dr SC1vq  1 4.300000e-01    1.730000e+00
  P5dr SC2vq  1 4.300000e-01    1.930000e+00
  P5dr SC3vq  1 4.300000e-01    1.930000e+00
  P5dr SC4vq  1 4.300000e-01    2.160000e+00
  P5dr SC5vq  1 4.300000e-01    2.320000e+00
  P5dr SC6vq  1 4.300000e-01    2.320000e+00
  P4dr SX1vq  1 4.300000e-01    2.320000e+00
  P4dr SX2vq  1 4.300000e-01    2.530000e+00
  P4dr SX3vq  1 4.300000e-01    2.530000e+00
  P4dr SX4vq  1 4.300000e-01    2.920000e+00
  P4dr SC1vq  1 4.300000e-01    1.730000e+00
  P4dr SC2vq  1 4.300000e-01    1.930000e+00
  P4dr SC3vq  1 4.300000e-01    1.930000e+00
  P4dr SC4vq  1 4.300000e-01    2.160000e+00
  P4dr SC5vq  1 4.300000e-01    2.320000e+00
  P4dr SC6vq  1 4.300000e-01    2.530000e+00
  P3dr SX1vq  1 4.300000e-01    2.320000e+00
  P3dr SX2vq  1 4.300000e-01    2.530000e+00
  P3dr SX3vq  1 4.300000e-01    2.920000e+00
  P3dr SX4vq  1 4.300000e-01    2.920000e+00
  P3dr SC1vq  1 4.300000e-01    1.730000e+00
  P3dr SC2vq  1 4.300000e-01    1.930000e+00
  P3dr SC3vq  1 4.300000e-01    1.930000e+00
  P3dr SC4vq  1 4.300000e-01    2.320000e+00
  P3dr SC5vq  1 4.300000e-01    2.530000e+00
  P3dr SC6vq  1 4.300000e-01    2.920000e+00
  P2dr SX1vq  1 4.300000e-01    2.320000e+00
  P2dr SX2vq  1 4.300000e-01    2.530000e+00
  P2dr SX3vq  1 4.300000e-01    2.920000e+00
  P2dr SX4vq  1 4.300000e-01    2.920000e+00
  P2dr SC1vq  1 4.300000e-01    1.930000e+00
  P2dr SC2vq  1 4.300000e-01    2.160000e+00
  P2dr SC3vq  1 4.300000e-01    2.160000e+00
  P2dr SC4vq  1 4.300000e-01    2.320000e+00
  P2dr SC5vq  1 4.300000e-01    2.530000e+00
  P2dr SC6vq  1 4.300000e-01    2.920000e+00
  P1dr SX1vq  1 4.300000e-01    2.320000e+00
  P1dr SX2vq  1 4.300000e-01    2.530000e+00
  P1dr SX3vq  1 4.300000e-01    2.920000e+00
  P1dr SX4vq  1 4.300000e-01    2.920000e+00
  P1dr SC1vq  1 4.300000e-01    1.930000e+00
  P1dr SC2vq  1 4.300000e-01    2.160000e+00
  P1dr SC3vq  1 4.300000e-01    2.160000e+00
  P1dr SC4vq  1 4.300000e-01    2.320000e+00
  P1dr SC5vq  1 4.300000e-01    2.530000e+00
  P1dr SC6vq  1 4.300000e-01    2.920000e+00
  N6dr SX1vq  1 4.300000e-01    2.320000e+00
  N6dr SX2vq  1 4.300000e-01    2.530000e+00
  N6dr SX3vq  1 4.300000e-01    2.920000e+00
  N6dr SX4vq  1 4.300000e-01    2.930000e+00
  N6dr SC1vq  1 4.300000e-01    2.160000e+00
  N6dr SC2vq  1 4.300000e-01    2.320000e+00
  N6dr SC3vq  1 4.300000e-01    2.320000e+00
  N6dr SC4vq  1 4.300000e-01    2.530000e+00
  N6dr SC5vq  1 4.300000e-01    2.920000e+00
  N6dr SC6vq  1 4.300000e-01    2.930000e+00
  N5dr SX1vq  1 4.300000e-01    2.530000e+00
  N5dr SX2vq  1 4.300000e-01    2.920000e+00
  N5dr SX3vq  1 4.300000e-01    2.930000e+00
  N5dr SX4vq  1 4.300000e-01    3.160000e+00
  N5dr SC1vq  1 4.300000e-01    2.160000e+00
  N5dr SC2vq  1 4.300000e-01    2.320000e+00
  N5dr SC3vq  1 4.300000e-01    2.530000e+00
  N5dr SC4vq  1 4.300000e-01    2.530000e+00
  N5dr SC5vq  1 4.300000e-01    2.920000e+00
  N5dr SC6vq  1 4.300000e-01    2.930000e+00
  N4dr SX1vq  1 4.300000e-01    2.530000e+00
  N4dr SX2vq  1 4.300000e-01    2.920000e+00
  N4dr SX3vq  1 4.300000e-01    3.160000e+00
  N4dr SX4vq  1 4.300000e-01    3.380000e+00
  N4dr SC1vq  1 4.300000e-01    2.160000e+00
  N4dr SC2vq  1 4.300000e-01    2.320000e+00
  N4dr SC3vq  1 4.300000e-01    2.530000e+00
  N4dr SC4vq  1 4.300000e-01    2.920000e+00
  N4dr SC5vq  1 4.300000e-01    2.920000e+00
  N4dr SC6vq  1 4.300000e-01    2.930000e+00
  N3dr SX1vq  1 4.300000e-01    2.920000e+00
  N3dr SX2vq  1 4.300000e-01    2.920000e+00
  N3dr SX3vq  1 4.300000e-01    2.930000e+00
  N3dr SX4vq  1 4.300000e-01    3.160000e+00
  N3dr SC1vq  1 4.300000e-01    2.320000e+00
  N3dr SC2vq  1 4.300000e-01    2.530000e+00
  N3dr SC3vq  1 4.300000e-01    2.530000e+00
  N3dr SC4vq  1 4.300000e-01    2.920000e+00
  N3dr SC5vq  1 4.300000e-01    2.920000e+00
  N3dr SC6vq  1 4.300000e-01    2.930000e+00
  N2dr SX1vq  1 4.300000e-01    2.920000e+00
  N2dr SX2vq  1 4.300000e-01    2.920000e+00
  N2dr SX3vq  1 4.300000e-01    2.930000e+00
  N2dr SX4vq  1 4.300000e-01    3.160000e+00
  N2dr SC1vq  1 4.300000e-01    2.320000e+00
  N2dr SC2vq  1 4.300000e-01    2.530000e+00
  N2dr SC3vq  1 4.300000e-01    2.920000e+00
  N2dr SC4vq  1 4.300000e-01    2.920000e+00
  N2dr SC5vq  1 4.300000e-01    2.920000e+00
  N2dr SC6vq  1 4.300000e-01    2.930000e+00
  N1dr SX1vq  1 4.300000e-01    2.920000e+00
  N1dr SX2vq  1 4.300000e-01    2.920000e+00
  N1dr SX3vq  1 4.300000e-01    2.930000e+00
  N1dr SX4vq  1 4.300000e-01    2.930000e+00
  N1dr SC1vq  1 4.300000e-01    2.320000e+00
  N1dr SC2vq  1 4.300000e-01    2.530000e+00
  N1dr SC3vq  1 4.300000e-01    2.920000e+00
  N1dr SC4vq  1 4.300000e-01    2.930000e+00
  N1dr SC5vq  1 4.300000e-01    2.930000e+00
  N1dr SC6vq  1 4.300000e-01    3.160000e+00
 SP6dr  X1vq  1 4.300000e-01    2.160000e+00
 SP6dr  X2vq  1 4.300000e-01    2.320000e+00
 SP6dr  X3vq  1 4.300000e-01    2.530000e+00
 SP6dr  X4vq  1 4.300000e-01    2.530000e+00
 SP6dr  C1vq  1 4.730000e-01    1.280000e+00
 SP6dr  C2vq  1 4.300000e-01    1.730000e+00
 SP6dr  C3vq  1 4.300000e-01    1.730000e+00
 SP6dr  C4vq  1 4.300000e-01    1.930000e+00
 SP6dr  C5vq  1 4.300000e-01    2.160000e+00
 SP6dr  C6vq  1 4.300000e-01    2.320000e+00
 SP5dr  X1vq  1 4.300000e-01    2.160000e+00
 SP5dr  X2vq  1 4.300000e-01    2.530000e+00
 SP5dr  X3vq  1 4.300000e-01    2.530000e+00
 SP5dr  X4vq  1 4.300000e-01    2.920000e+00
 SP5dr  C1vq  1 4.300000e-01    1.730000e+00
 SP5dr  C2vq  1 4.300000e-01    1.930000e+00
 SP5dr  C3vq  1 4.300000e-01    1.930000e+00
 SP5dr  C4vq  1 4.300000e-01    2.160000e+00
 SP5dr  C5vq  1 4.300000e-01    2.320000e+00
 SP5dr  C6vq  1 4.300000e-01    2.320000e+00
 SP4dr  X1vq  1 4.300000e-01    2.320000e+00
 SP4dr  X2vq  1 4.300000e-01    2.530000e+00
 SP4dr  X3vq  1 4.300000e-01    2.530000e+00
 SP4dr  X4vq  1 4.300000e-01    2.920000e+00
 SP4dr  C1vq  1 4.300000e-01    1.730000e+00
 SP4dr  C2vq  1 4.300000e-01    1.930000e+00
 SP4dr  C3vq  1 4.300000e-01    1.930000e+00
 SP4dr  C4vq  1 4.300000e-01    2.160000e+00
 SP4dr  C5vq  1 4.300000e-01    2.320000e+00
 SP4dr  C6vq  1 4.300000e-01    2.530000e+00
 SP3dr  X1vq  1 4.300000e-01    2.320000e+00
 SP3dr  X2vq  1 4.300000e-01    2.530000e+00
 SP3dr  X3vq  1 4.300000e-01    2.920000e+00
 SP3dr  X4vq  1 4.300000e-01    2.920000e+00
 SP3dr  C1vq  1 4.300000e-01    1.730000e+00
 SP3dr  C2vq  1 4.300000e-01    1.930000e+00
 SP3dr  C3vq  1 4.300000e-01    1.930000e+00
 SP3dr  C4vq  1 4.300000e-01    2.320000e+00
 SP3dr  C5vq  1 4.300000e-01    2.530000e+00
 SP3dr  C6vq  1 4.300000e-01    2.920000e+00
 SP2dr  X1vq  1 4.300000e-01    2.320000e+00
 SP2dr  X2vq  1 4.300000e-01    2.530000e+00
 SP2dr  X3vq  1 4.300000e-01    2.920000e+00
 SP2dr  X4vq  1 4.300000e-01    2.920000e+00
 SP2dr  C1vq  1 4.300000e-01    1.930000e+00
 SP2dr  C2vq  1 4.300000e-01    2.160000e+00
 SP2dr  C3vq  1 4.300000e-01    2.160000e+00
 SP2dr  C4vq  1 4.300000e-01    2.320000e+00
 SP2dr  C5vq  1 4.300000e-01    2.530000e+00
 SP2dr  C6vq  1 4.300000e-01    2.920000e+00
 SP1dr  X1vq  1 4.300000e-01    2.320000e+00
 SP1dr  X2vq  1 4.300000e-01    2.530000e+00
 SP1dr  X3vq  1 4.300000e-01    2.920000e+00
 SP1dr  X4vq  1 4.300000e-01    2.920000e+00
 SP1dr  C1vq  1 4.300000e-01    1.930000e+00
 SP1dr  C2vq  1 4.300000e-01    2.160000e+00
 SP1dr  C3vq  1 4.300000e-01    2.160000e+00
 SP1dr  C4vq  1 4.300000e-01    2.320000e+00
 SP1dr  C5vq  1 4.300000e-01    2.530000e+00
 SP1dr  C6vq  1 4.300000e-01    2.920000e+00
 SN6dr  X1vq  1 4.300000e-01    2.320000e+00
 SN6dr  X2vq  1 4.300000e-01    2.530000e+00
 SN6dr  X3vq  1 4.300000e-01    2.920000e+00
 SN6dr  X4vq  1 4.300000e-01    2.930000e+00
 SN6dr  C1vq  1 4.300000e-01    2.160000e+00
 SN6dr  C2vq  1 4.300000e-01    2.320000e+00
 SN6dr  C3vq  1 4.300000e-01    2.320000e+00
 SN6dr  C4vq  1 4.300000e-01    2.530000e+00
 SN6dr  C5vq  1 4.300000e-01    2.920000e+00
 SN6dr  C6vq  1 4.300000e-01    2.930000e+00
 SN5dr  X1vq  1 4.300000e-01    2.530000e+00
 SN5dr  X2vq  1 4.300000e-01    2.920000e+00
 SN5dr  X3vq  1 4.300000e-01    2.930000e+00
 SN5dr  X4vq  1 4.300000e-01    3.160000e+00
 SN5dr  C1vq  1 4.300000e-01    2.160000e+00
 SN5dr  C2vq  1 4.300000e-01    2.320000e+00
 SN5dr  C3vq  1 4.300000e-01    2.530000e+00
 SN5dr  C4vq  1 4.300000e-01    2.530000e+00
 SN5dr  C5vq  1 4.300000e-01    2.920000e+00
 SN5dr  C6vq  1 4.300000e-01    2.930000e+00
 SN4dr  X1vq  1 4.300000e-01    2.530000e+00
 SN4dr  X2vq  1 4.300000e-01    2.920000e+00
 SN4dr  X3vq  1 4.300000e-01    3.160000e+00
 SN4dr  X4vq  1 4.300000e-01    3.380000e+00
 SN4dr  C1vq  1 4.300000e-01    2.160000e+00
 SN4dr  C2vq  1 4.300000e-01    2.320000e+00
 SN4dr  C3vq  1 4.300000e-01    2.530000e+00
 SN4dr  C4vq  1 4.300000e-01    2.920000e+00
 SN4dr  C5vq  1 4.300000e-01    2.920000e+00
 SN4dr  C6vq  1 4.300000e-01    2.930000e+00
 SN3dr  X1vq  1 4.300000e-01    2.920000e+00
 SN3dr  X2vq  1 4.300000e-01    2.920000e+00
 SN3dr  X3vq  1 4.300000e-01    2.930000e+00
 SN3dr  X4vq  1 4.300000e-01    3.160000e+00
 SN3dr  C1vq  1 4.300000e-01    2.320000e+00
 SN3dr  C2vq  1 4.300000e-01    2.530000e+00
 SN3dr  C3vq  1 4.300000e-01    2.530000e+00
 SN3dr  C4vq  1 4.300000e-01    2.920000e+00
 SN3dr  C5vq  1 4.300000e-01    2.920000e+00
 SN3dr  C6vq  1 4.300000e-01    2.930000e+00
 SN2dr  X1vq  1 4.300000e-01    2.920000e+00
 SN2dr  X2vq  1 4.300000e-01    2.920000e+00
 SN2dr  X3vq  1 4.300000e-01    2.930000e+00
 SN2dr  X4vq  1 4.300000e-01    3.160000e+00
 SN2dr  C1vq  1 4.300000e-01    2.320000e+00
 SN2dr  C2vq  1 4.300000e-01    2.530000e+00
 SN2dr  C3vq  1 4.300000e-01    2.920000e+00
 SN2dr  C4vq  1 4.300000e-01    2.920000e+00
 SN2dr  C5vq  1 4.300000e-01    2.920000e+00
 SN2dr  C6vq  1 4.300000e-01    2.930000e+00
 SN1dr  X1vq  1 4.300000e-01    2.920000e+00
 SN1dr  X2vq  1 4.300000e-01    2.920000e+00
 SN1dr  X3vq  1 4.300000e-01    2.930000e+00
 SN1dr  X4vq  1 4.300000e-01    2.930000e+00
 SN1dr  C1vq  1 4.300000e-01    2.320000e+00
 SN1dr  C2vq  1 4.300000e-01    2.530000e+00
 SN1dr  C3vq  1 4.300000e-01    2.920000e+00
 SN1dr  C4vq  1 4.300000e-01    2.930000e+00
 SN1dr  C5vq  1 4.300000e-01    2.930000e+00
 SN1dr  C6vq  1 4.300000e-01    3.160000e+00
  P6dr SC6vh  1 4.300000e-01    1.930000e+00
  P6dr SC5vh  1 4.300000e-01    1.730000e+00
  P6dr SC4vh  1 4.430000e-01    1.480000e+00
  P6dr SC3vh  1 4.730000e-01    1.280000e+00
  P6dr SC2vh  1 4.730000e-01    1.280000e+00
  P6dr SC1vh  1 5.140000e-01    1.110000e+00
  P6dr SX4vh  1 4.300000e-01    2.160000e+00
  P6dr SX3vh  1 4.300000e-01    2.160000e+00
  P6dr SX2vh  1 4.300000e-01    1.930000e+00
  P6dr SX1vh  1 4.300000e-01    1.730000e+00
  P5dr SC6vh  1 4.300000e-01    1.930000e+00
  P5dr SC5vh  1 4.300000e-01    1.930000e+00
  P5dr SC4vh  1 4.300000e-01    1.730000e+00
  P5dr SC3vh  1 4.430000e-01    1.480000e+00
  P5dr SC2vh  1 4.430000e-01    1.480000e+00
  P5dr SC1vh  1 4.730000e-01    1.280000e+00
  P5dr SX4vh  1 4.300000e-01    2.320000e+00
  P5dr SX3vh  1 4.300000e-01    2.160000e+00
  P5dr SX2vh  1 4.300000e-01    2.160000e+00
  P5dr SX1vh  1 4.300000e-01    1.730000e+00
  P4dr SC6vh  1 4.300000e-01    2.160000e+00
  P4dr SC5vh  1 4.300000e-01    1.930000e+00
  P4dr SC4vh  1 4.300000e-01    1.730000e+00
  P4dr SC3vh  1 4.430000e-01    1.480000e+00
  P4dr SC2vh  1 4.430000e-01    1.480000e+00
  P4dr SC1vh  1 4.730000e-01    1.280000e+00
  P4dr SX4vh  1 4.300000e-01    2.320000e+00
  P4dr SX3vh  1 4.300000e-01    2.160000e+00
  P4dr SX2vh  1 4.300000e-01    2.160000e+00
  P4dr SX1vh  1 4.300000e-01    1.930000e+00
  P3dr SC6vh  1 4.300000e-01    2.320000e+00
  P3dr SC5vh  1 4.300000e-01    2.160000e+00
  P3dr SC4vh  1 4.300000e-01    1.930000e+00
  P3dr SC3vh  1 4.430000e-01    1.480000e+00
  P3dr SC2vh  1 4.430000e-01    1.480000e+00
  P3dr SC1vh  1 4.730000e-01    1.280000e+00
  P3dr SX4vh  1 4.300000e-01    2.320000e+00
  P3dr SX3vh  1 4.300000e-01    2.320000e+00
  P3dr SX2vh  1 4.300000e-01    2.160000e+00
  P3dr SX1vh  1 4.300000e-01    1.930000e+00
  P2dr SC6vh  1 4.300000e-01    2.320000e+00
  P2dr SC5vh  1 4.300000e-01    2.160000e+00
  P2dr SC4vh  1 4.300000e-01    1.930000e+00
  P2dr SC3vh  1 4.300000e-01    1.730000e+00
  P2dr SC2vh  1 4.300000e-01    1.730000e+00
  P2dr SC1vh  1 4.430000e-01    1.480000e+00
  P2dr SX4vh  1 4.300000e-01    2.320000e+00
  P2dr SX3vh  1 4.300000e-01    2.320000e+00
  P2dr SX2vh  1 4.300000e-01    2.160000e+00
  P2dr SX1vh  1 4.300000e-01    1.930000e+00
  P1dr SC6vh  1 4.300000e-01    2.320000e+00
  P1dr SC5vh  1 4.300000e-01    2.160000e+00
  P1dr SC4vh  1 4.300000e-01    1.930000e+00
  P1dr SC3vh  1 4.300000e-01    1.730000e+00
  P1dr SC2vh  1 4.300000e-01    1.730000e+00
  P1dr SC1vh  1 4.430000e-01    1.480000e+00
  P1dr SX4vh  1 4.300000e-01    2.320000e+00
  P1dr SX3vh  1 4.300000e-01    2.320000e+00
  P1dr SX2vh  1 4.300000e-01    2.160000e+00
  P1dr SX1vh  1 4.300000e-01    1.930000e+00
  N6dr SC6vh  1 4.300000e-01    2.530000e+00
  N6dr SC5vh  1 4.300000e-01    2.320000e+00
  N6dr SC4vh  1 4.300000e-01    2.160000e+00
  N6dr SC3vh  1 4.300000e-01    1.930000e+00
  N6dr SC2vh  1 4.300000e-01    1.930000e+00
  N6dr SC1vh  1 4.300000e-01    1.730000e+00
  N6dr SX4vh  1 4.300000e-01    2.530000e+00
  N6dr SX3vh  1 4.300000e-01    2.320000e+00
  N6dr SX2vh  1 4.300000e-01    2.160000e+00
  N6dr SX1vh  1 4.300000e-01    1.930000e+00
  N5dr SC6vh  1 4.300000e-01    2.530000e+00
  N5dr SC5vh  1 4.300000e-01    2.320000e+00
  N5dr SC4vh  1 4.300000e-01    2.160000e+00
  N5dr SC3vh  1 4.300000e-01    2.160000e+00
  N5dr SC2vh  1 4.300000e-01    1.930000e+00
  N5dr SC1vh  1 4.300000e-01    1.730000e+00
  N5dr SX4vh  1 4.300000e-01    2.920000e+00
  N5dr SX3vh  1 4.300000e-01    2.530000e+00
  N5dr SX2vh  1 4.300000e-01    2.320000e+00
  N5dr SX1vh  1 4.300000e-01    2.160000e+00
  N4dr SC6vh  1 4.300000e-01    2.530000e+00
  N4dr SC5vh  1 4.300000e-01    2.320000e+00
  N4dr SC4vh  1 4.300000e-01    2.320000e+00
  N4dr SC3vh  1 4.300000e-01    2.160000e+00
  N4dr SC2vh  1 4.300000e-01    1.930000e+00
  N4dr SC1vh  1 4.300000e-01    1.730000e+00
  N4dr SX4vh  1 4.300000e-01    2.930000e+00
  N4dr SX3vh  1 4.300000e-01    2.920000e+00
  N4dr SX2vh  1 4.300000e-01    2.320000e+00
  N4dr SX1vh  1 4.300000e-01    2.160000e+00
  N3dr SC6vh  1 4.300000e-01    2.530000e+00
  N3dr SC5vh  1 4.300000e-01    2.320000e+00
  N3dr SC4vh  1 4.300000e-01    2.320000e+00
  N3dr SC3vh  1 4.300000e-01    2.160000e+00
  N3dr SC2vh  1 4.300000e-01    2.160000e+00
  N3dr SC1vh  1 4.300000e-01    1.930000e+00
  N3dr SX4vh  1 4.300000e-01    2.920000e+00
  N3dr SX3vh  1 4.300000e-01    2.530000e+00
  N3dr SX2vh  1 4.300000e-01    2.320000e+00
  N3dr SX1vh  1 4.300000e-01    2.320000e+00
  N2dr SC6vh  1 4.300000e-01    2.530000e+00
  N2dr SC5vh  1 4.300000e-01    2.320000e+00
  N2dr SC4vh  1 4.300000e-01    2.320000e+00
  N2dr SC3vh  1 4.300000e-01    2.320000e+00
  N2dr SC2vh  1 4.300000e-01    2.160000e+00
  N2dr SC1vh  1 4.300000e-01    1.930000e+00
  N2dr SX4vh  1 4.300000e-01    2.920000e+00
  N2dr SX3vh  1 4.300000e-01    2.530000e+00
  N2dr SX2vh  1 4.300000e-01    2.320000e+00
  N2dr SX1vh  1 4.300000e-01    2.320000e+00
  N1dr SC6vh  1 4.300000e-01    2.920000e+00
  N1dr SC5vh  1 4.300000e-01    2.530000e+00
  N1dr SC4vh  1 4.300000e-01    2.530000e+00
  N1dr SC3vh  1 4.300000e-01    2.320000e+00
  N1dr SC2vh  1 4.300000e-01    2.160000e+00
  N1dr SC1vh  1 4.300000e-01    1.930000e+00
  N1dr SX4vh  1 4.300000e-01    2.530000e+00
  N1dr SX3vh  1 4.300000e-01    2.530000e+00
  N1dr SX2vh  1 4.300000e-01    2.320000e+00
  N1dr SX1vh  1 4.300000e-01    2.320000e+00
 SP6dr  C6vh  1 4.300000e-01    1.930000e+00
 SP6dr  C5vh  1 4.300000e-01    1.730000e+00
 SP6dr  C4vh  1 4.430000e-01    1.480000e+00
 SP6dr  C3vh  1 4.730000e-01    1.280000e+00
 SP6dr  C2vh  1 4.730000e-01    1.280000e+00
 SP6dr  C1vh  1 5.140000e-01    1.110000e+00
 SP6dr  X4vh  1 4.300000e-01    2.160000e+00
 SP6dr  X3vh  1 4.300000e-01    2.160000e+00
 SP6dr  X2vh  1 4.300000e-01    1.930000e+00
 SP6dr  X1vh  1 4.300000e-01    1.730000e+00
 SP5dr  C6vh  1 4.300000e-01    1.930000e+00
 SP5dr  C5vh  1 4.300000e-01    1.930000e+00
 SP5dr  C4vh  1 4.300000e-01    1.730000e+00
 SP5dr  C3vh  1 4.430000e-01    1.480000e+00
 SP5dr  C2vh  1 4.430000e-01    1.480000e+00
 SP5dr  C1vh  1 4.730000e-01    1.280000e+00
 SP5dr  X4vh  1 4.300000e-01    2.320000e+00
 SP5dr  X3vh  1 4.300000e-01    2.160000e+00
 SP5dr  X2vh  1 4.300000e-01    2.160000e+00
 SP5dr  X1vh  1 4.300000e-01    1.730000e+00
 SP4dr  C6vh  1 4.300000e-01    2.160000e+00
 SP4dr  C5vh  1 4.300000e-01    1.930000e+00
 SP4dr  C4vh  1 4.300000e-01    1.730000e+00
 SP4dr  C3vh  1 4.430000e-01    1.480000e+00
 SP4dr  C2vh  1 4.430000e-01    1.480000e+00
 SP4dr  C1vh  1 4.730000e-01    1.280000e+00
 SP4dr  X4vh  1 4.300000e-01    2.320000e+00
 SP4dr  X3vh  1 4.300000e-01    2.160000e+00
 SP4dr  X2vh  1 4.300000e-01    2.160000e+00
 SP4dr  X1vh  1 4.300000e-01    1.930000e+00
 SP3dr  C6vh  1 4.300000e-01    2.320000e+00
 SP3dr  C5vh  1 4.300000e-01    2.160000e+00
 SP3dr  C4vh  1 4.300000e-01    1.930000e+00
 SP3dr  C3vh  1 4.430000e-01    1.480000e+00
 SP3dr  C2vh  1 4.430000e-01    1.480000e+00
 SP3dr  C1vh  1 4.730000e-01    1.280000e+00
 SP3dr  X4vh  1 4.300000e-01    2.320000e+00
 SP3dr  X3vh  1 4.300000e-01    2.320000e+00
 SP3dr  X2vh  1 4.300000e-01    2.160000e+00
 SP3dr  X1vh  1 4.300000e-01    1.930000e+00
 SP2dr  C6vh  1 4.300000e-01    2.320000e+00
 SP2dr  C5vh  1 4.300000e-01    2.160000e+00
 SP2dr  C4vh  1 4.300000e-01    1.930000e+00
 SP2dr  C3vh  1 4.300000e-01    1.730000e+00
 SP2dr  C2vh  1 4.300000e-01    1.730000e+00
 SP2dr  C1vh  1 4.430000e-01    1.480000e+00
 SP2dr  X4vh  1 4.300000e-01    2.320000e+00
 SP2dr  X3vh  1 4.300000e-01    2.320000e+00
 SP2dr  X2vh  1 4.300000e-01    2.160000e+00
 SP2dr  X1vh  1 4.300000e-01    1.930000e+00
 SP1dr  C6vh  1 4.300000e-01    2.320000e+00
 SP1dr  C5vh  1 4.300000e-01    2.160000e+00
 SP1dr  C4vh  1 4.300000e-01    1.930000e+00
 SP1dr  C3vh  1 4.300000e-01    1.730000e+00
 SP1dr  C2vh  1 4.300000e-01    1.730000e+00
 SP1dr  C1vh  1 4.430000e-01    1.480000e+00
 SP1dr  X4vh  1 4.300000e-01    2.320000e+00
 SP1dr  X3vh  1 4.300000e-01    2.320000e+00
 SP1dr  X2vh  1 4.300000e-01    2.160000e+00
 SP1dr  X1vh  1 4.300000e-01    1.930000e+00
 SN6dr  C6vh  1 4.300000e-01    2.530000e+00
 SN6dr  C5vh  1 4.300000e-01    2.320000e+00
 SN6dr  C4vh  1 4.300000e-01    2.160000e+00
 SN6dr  C3vh  1 4.300000e-01    1.930000e+00
 SN6dr  C2vh  1 4.300000e-01    1.930000e+00
 SN6dr  C1vh  1 4.300000e-01    1.730000e+00
 SN6dr  X4vh  1 4.300000e-01    2.530000e+00
 SN6dr  X3vh  1 4.300000e-01    2.320000e+00
 SN6dr  X2vh  1 4.300000e-01    2.160000e+00
 SN6dr  X1vh  1 4.300000e-01    1.930000e+00
 SN5dr  C6vh  1 4.300000e-01    2.530000e+00
 SN5dr  C5vh  1 4.300000e-01    2.320000e+00
 SN5dr  C4vh  1 4.300000e-01    2.160000e+00
 SN5dr  C3vh  1 4.300000e-01    2.160000e+00
 SN5dr  C2vh  1 4.300000e-01    1.930000e+00
 SN5dr  C1vh  1 4.300000e-01    1.730000e+00
 SN5dr  X4vh  1 4.300000e-01    2.920000e+00
 SN5dr  X3vh  1 4.300000e-01    2.530000e+00
 SN5dr  X2vh  1 4.300000e-01    2.320000e+00
 SN5dr  X1vh  1 4.300000e-01    2.160000e+00
 SN4dr  C6vh  1 4.300000e-01    2.530000e+00
 SN4dr  C5vh  1 4.300000e-01    2.320000e+00
 SN4dr  C4vh  1 4.300000e-01    2.320000e+00
 SN4dr  C3vh  1 4.300000e-01    2.160000e+00
 SN4dr  C2vh  1 4.300000e-01    1.930000e+00
 SN4dr  C1vh  1 4.300000e-01    1.730000e+00
 SN4dr  X4vh  1 4.300000e-01    2.930000e+00
 SN4dr  X3vh  1 4.300000e-01    2.920000e+00
 SN4dr  X2vh  1 4.300000e-01    2.320000e+00
 SN4dr  X1vh  1 4.300000e-01    2.160000e+00
 SN3dr  C6vh  1 4.300000e-01    2.530000e+00
 SN3dr  C5vh  1 4.300000e-01    2.320000e+00
 SN3dr  C4vh  1 4.300000e-01    2.320000e+00
 SN3dr  C3vh  1 4.300000e-01    2.160000e+00
 SN3dr  C2vh  1 4.300000e-01    2.160000e+00
 SN3dr  C1vh  1 4.300000e-01    1.930000e+00
 SN3dr  X4vh  1 4.300000e-01    2.920000e+00
 SN3dr  X3vh  1 4.300000e-01    2.530000e+00
 SN3dr  X2vh  1 4.300000e-01    2.320000e+00
 SN3dr  X1vh  1 4.300000e-01    2.320000e+00
 SN2dr  C6vh  1 4.300000e-01    2.530000e+00
 SN2dr  C5vh  1 4.300000e-01    2.320000e+00
 SN2dr  C4vh  1 4.300000e-01    2.320000e+00
 SN2dr  C3vh  1 4.300000e-01    2.320000e+00
 SN2dr  C2vh  1 4.300000e-01    2.160000e+00
 SN2dr  C1vh  1 4.300000e-01    1.930000e+00
 SN2dr  X4vh  1 4.300000e-01    2.920000e+00
 SN2dr  X3vh  1 4.300000e-01    2.530000e+00
 SN2dr  X2vh  1 4.300000e-01    2.320000e+00
 SN2dr  X1vh  1 4.300000e-01    2.320000e+00
 SN1dr  C6vh  1 4.300000e-01    2.920000e+00
 SN1dr  C5vh  1 4.300000e-01    2.530000e+00
 SN1dr  C4vh  1 4.300000e-01    2.530000e+00
 SN1dr  C3vh  1 4.300000e-01    2.320000e+00
 SN1dr  C2vh  1 4.300000e-01    2.160000e+00
 SN1dr  C1vh  1 4.300000e-01    1.930000e+00
 SN1dr  X4vh  1 4.300000e-01    2.530000e+00
 SN1dr  X3vh  1 4.300000e-01    2.530000e+00
 SN1dr  X2vh  1 4.300000e-01    2.320000e+00
 SN1dr  X1vh  1 4.300000e-01    2.320000e+00
  P6dr SC6vr  1 4.300000e-01    1.930000e+00
  P6dr SC5vr  1 4.300000e-01    1.730000e+00
  P6dr SC4vr  1 4.430000e-01    1.480000e+00
  P6dr SC3vr  1 4.730000e-01    1.280000e+00
  P6dr SC2vr  1 4.730000e-01    1.280000e+00
  P6dr SC1vr  1 5.140000e-01    1.110000e+00
  P6dr SX4vr  1 4.300000e-01    2.160000e+00
  P6dr SX3vr  1 4.300000e-01    2.160000e+00
  P6dr SX2vr  1 4.300000e-01    1.930000e+00
  P6dr SX1vr  1 4.300000e-01    1.730000e+00
  P5dr SC6vr  1 4.300000e-01    1.930000e+00
  P5dr SC5vr  1 4.300000e-01    1.930000e+00
  P5dr SC4vr  1 4.300000e-01    1.730000e+00
  P5dr SC3vr  1 4.430000e-01    1.480000e+00
  P5dr SC2vr  1 4.430000e-01    1.480000e+00
  P5dr SC1vr  1 4.730000e-01    1.280000e+00
  P5dr SX4vr  1 4.300000e-01    2.320000e+00
  P5dr SX3vr  1 4.300000e-01    2.160000e+00
  P5dr SX2vr  1 4.300000e-01    2.160000e+00
  P5dr SX1vr  1 4.300000e-01    1.730000e+00
  P4dr SC6vr  1 4.300000e-01    2.160000e+00
  P4dr SC5vr  1 4.300000e-01    1.930000e+00
  P4dr SC4vr  1 4.300000e-01    1.730000e+00
  P4dr SC3vr  1 4.430000e-01    1.480000e+00
  P4dr SC2vr  1 4.430000e-01    1.480000e+00
  P4dr SC1vr  1 4.730000e-01    1.280000e+00
  P4dr SX4vr  1 4.300000e-01    2.320000e+00
  P4dr SX3vr  1 4.300000e-01    2.160000e+00
  P4dr SX2vr  1 4.300000e-01    2.160000e+00
  P4dr SX1vr  1 4.300000e-01    1.930000e+00
  P3dr SC6vr  1 4.300000e-01    2.320000e+00
  P3dr SC5vr  1 4.300000e-01    2.160000e+00
  P3dr SC4vr  1 4.300000e-01    1.930000e+00
  P3dr SC3vr  1 4.430000e-01    1.480000e+00
  P3dr SC2vr  1 4.430000e-01    1.480000e+00
  P3dr SC1vr  1 4.730000e-01    1.280000e+00
  P3dr SX4vr  1 4.300000e-01    2.320000e+00
  P3dr SX3vr  1 4.300000e-01    2.320000e+00
  P3dr SX2vr  1 4.300000e-01    2.160000e+00
  P3dr SX1vr  1 4.300000e-01    1.930000e+00
  P2dr SC6vr  1 4.300000e-01    2.320000e+00
  P2dr SC5vr  1 4.300000e-01    2.160000e+00
  P2dr SC4vr  1 4.300000e-01    1.930000e+00
  P2dr SC3vr  1 4.300000e-01    1.730000e+00
  P2dr SC2vr  1 4.300000e-01    1.730000e+00
  P2dr SC1vr  1 4.430000e-01    1.480000e+00
  P2dr SX4vr  1 4.300000e-01    2.320000e+00
  P2dr SX3vr  1 4.300000e-01    2.320000e+00
  P2dr SX2vr  1 4.300000e-01    2.160000e+00
  P2dr SX1vr  1 4.300000e-01    1.930000e+00
  P1dr SC6vr  1 4.300000e-01    2.320000e+00
  P1dr SC5vr  1 4.300000e-01    2.160000e+00
  P1dr SC4vr  1 4.300000e-01    1.930000e+00
  P1dr SC3vr  1 4.300000e-01    1.730000e+00
  P1dr SC2vr  1 4.300000e-01    1.730000e+00
  P1dr SC1vr  1 4.430000e-01    1.480000e+00
  P1dr SX4vr  1 4.300000e-01    2.320000e+00
  P1dr SX3vr  1 4.300000e-01    2.320000e+00
  P1dr SX2vr  1 4.300000e-01    2.160000e+00
  P1dr SX1vr  1 4.300000e-01    1.930000e+00
  N6dr SC6vr  1 4.300000e-01    2.530000e+00
  N6dr SC5vr  1 4.300000e-01    2.320000e+00
  N6dr SC4vr  1 4.300000e-01    2.160000e+00
  N6dr SC3vr  1 4.300000e-01    1.930000e+00
  N6dr SC2vr  1 4.300000e-01    1.930000e+00
  N6dr SC1vr  1 4.300000e-01    1.730000e+00
  N6dr SX4vr  1 4.300000e-01    2.530000e+00
  N6dr SX3vr  1 4.300000e-01    2.320000e+00
  N6dr SX2vr  1 4.300000e-01    2.160000e+00
  N6dr SX1vr  1 4.300000e-01    1.930000e+00
  N5dr SC6vr  1 4.300000e-01    2.530000e+00
  N5dr SC5vr  1 4.300000e-01    2.320000e+00
  N5dr SC4vr  1 4.300000e-01    2.160000e+00
  N5dr SC3vr  1 4.300000e-01    2.160000e+00
  N5dr SC2vr  1 4.300000e-01    1.930000e+00
  N5dr SC1vr  1 4.300000e-01    1.730000e+00
  N5dr SX4vr  1 4.300000e-01    2.920000e+00
  N5dr SX3vr  1 4.300000e-01    2.530000e+00
  N5dr SX2vr  1 4.300000e-01    2.320000e+00
  N5dr SX1vr  1 4.300000e-01    2.160000e+00
  N4dr SC6vr  1 4.300000e-01    2.530000e+00
  N4dr SC5vr  1 4.300000e-01    2.320000e+00
  N4dr SC4vr  1 4.300000e-01    2.320000e+00
  N4dr SC3vr  1 4.300000e-01    2.160000e+00
  N4dr SC2vr  1 4.300000e-01    1.930000e+00
  N4dr SC1vr  1 4.300000e-01    1.730000e+00
  N4dr SX4vr  1 4.300000e-01    2.930000e+00
  N4dr SX3vr  1 4.300000e-01    2.920000e+00
  N4dr SX2vr  1 4.300000e-01    2.320000e+00
  N4dr SX1vr  1 4.300000e-01    2.160000e+00
  N3dr SC6vr  1 4.300000e-01    2.530000e+00
  N3dr SC5vr  1 4.300000e-01    2.320000e+00
  N3dr SC4vr  1 4.300000e-01    2.320000e+00
  N3dr SC3vr  1 4.300000e-01    2.160000e+00
  N3dr SC2vr  1 4.300000e-01    2.160000e+00
  N3dr SC1vr  1 4.300000e-01    1.930000e+00
  N3dr SX4vr  1 4.300000e-01    2.920000e+00
  N3dr SX3vr  1 4.300000e-01    2.530000e+00
  N3dr SX2vr  1 4.300000e-01    2.320000e+00
  N3dr SX1vr  1 4.300000e-01    2.320000e+00
  N2dr SC6vr  1 4.300000e-01    2.530000e+00
  N2dr SC5vr  1 4.300000e-01    2.320000e+00
  N2dr SC4vr  1 4.300000e-01    2.320000e+00
  N2dr SC3vr  1 4.300000e-01    2.320000e+00
  N2dr SC2vr  1 4.300000e-01    2.160000e+00
  N2dr SC1vr  1 4.300000e-01    1.930000e+00
  N2dr SX4vr  1 4.300000e-01    2.920000e+00
  N2dr SX3vr  1 4.300000e-01    2.530000e+00
  N2dr SX2vr  1 4.300000e-01    2.320000e+00
  N2dr SX1vr  1 4.300000e-01    2.320000e+00
  N1dr SC6vr  1 4.300000e-01    2.920000e+00
  N1dr SC5vr  1 4.300000e-01    2.530000e+00
  N1dr SC4vr  1 4.300000e-01    2.530000e+00
  N1dr SC3vr  1 4.300000e-01    2.320000e+00
  N1dr SC2vr  1 4.300000e-01    2.160000e+00
  N1dr SC1vr  1 4.300000e-01    1.930000e+00
  N1dr SX4vr  1 4.300000e-01    2.530000e+00
  N1dr SX3vr  1 4.300000e-01    2.530000e+00
  N1dr SX2vr  1 4.300000e-01    2.320000e+00
  N1dr SX1vr  1 4.300000e-01    2.320000e+00
 SP6dr  C6vr  1 4.300000e-01    1.930000e+00
 SP6dr  C5vr  1 4.300000e-01    1.730000e+00
 SP6dr  C4vr  1 4.430000e-01    1.480000e+00
 SP6dr  C3vr  1 4.730000e-01    1.280000e+00
 SP6dr  C2vr  1 4.730000e-01    1.280000e+00
 SP6dr  C1vr  1 5.140000e-01    1.110000e+00
 SP6dr  X4vr  1 4.300000e-01    2.160000e+00
 SP6dr  X3vr  1 4.300000e-01    2.160000e+00
 SP6dr  X2vr  1 4.300000e-01    1.930000e+00
 SP6dr  X1vr  1 4.300000e-01    1.730000e+00
 SP5dr  C6vr  1 4.300000e-01    1.930000e+00
 SP5dr  C5vr  1 4.300000e-01    1.930000e+00
 SP5dr  C4vr  1 4.300000e-01    1.730000e+00
 SP5dr  C3vr  1 4.430000e-01    1.480000e+00
 SP5dr  C2vr  1 4.430000e-01    1.480000e+00
 SP5dr  C1vr  1 4.730000e-01    1.280000e+00
 SP5dr  X4vr  1 4.300000e-01    2.320000e+00
 SP5dr  X3vr  1 4.300000e-01    2.160000e+00
 SP5dr  X2vr  1 4.300000e-01    2.160000e+00
 SP5dr  X1vr  1 4.300000e-01    1.730000e+00
 SP4dr  C6vr  1 4.300000e-01    2.160000e+00
 SP4dr  C5vr  1 4.300000e-01    1.930000e+00
 SP4dr  C4vr  1 4.300000e-01    1.730000e+00
 SP4dr  C3vr  1 4.430000e-01    1.480000e+00
 SP4dr  C2vr  1 4.430000e-01    1.480000e+00
 SP4dr  C1vr  1 4.730000e-01    1.280000e+00
 SP4dr  X4vr  1 4.300000e-01    2.320000e+00
 SP4dr  X3vr  1 4.300000e-01    2.160000e+00
 SP4dr  X2vr  1 4.300000e-01    2.160000e+00
 SP4dr  X1vr  1 4.300000e-01    1.930000e+00
 SP3dr  C6vr  1 4.300000e-01    2.320000e+00
 SP3dr  C5vr  1 4.300000e-01    2.160000e+00
 SP3dr  C4vr  1 4.300000e-01    1.930000e+00
 SP3dr  C3vr  1 4.430000e-01    1.480000e+00
 SP3dr  C2vr  1 4.430000e-01    1.480000e+00
 SP3dr  C1vr  1 4.730000e-01    1.280000e+00
 SP3dr  X4vr  1 4.300000e-01    2.320000e+00
 SP3dr  X3vr  1 4.300000e-01    2.320000e+00
 SP3dr  X2vr  1 4.300000e-01    2.160000e+00
 SP3dr  X1vr  1 4.300000e-01    1.930000e+00
 SP2dr  C6vr  1 4.300000e-01    2.320000e+00
 SP2dr  C5vr  1 4.300000e-01    2.160000e+00
 SP2dr  C4vr  1 4.300000e-01    1.930000e+00
 SP2dr  C3vr  1 4.300000e-01    1.730000e+00
 SP2dr  C2vr  1 4.300000e-01    1.730000e+00
 SP2dr  C1vr  1 4.430000e-01    1.480000e+00
 SP2dr  X4vr  1 4.300000e-01    2.320000e+00
 SP2dr  X3vr  1 4.300000e-01    2.320000e+00
 SP2dr  X2vr  1 4.300000e-01    2.160000e+00
 SP2dr  X1vr  1 4.300000e-01    1.930000e+00
 SP1dr  C6vr  1 4.300000e-01    2.320000e+00
 SP1dr  C5vr  1 4.300000e-01    2.160000e+00
 SP1dr  C4vr  1 4.300000e-01    1.930000e+00
 SP1dr  C3vr  1 4.300000e-01    1.730000e+00
 SP1dr  C2vr  1 4.300000e-01    1.730000e+00
 SP1dr  C1vr  1 4.430000e-01    1.480000e+00
 SP1dr  X4vr  1 4.300000e-01    2.320000e+00
 SP1dr  X3vr  1 4.300000e-01    2.320000e+00
 SP1dr  X2vr  1 4.300000e-01    2.160000e+00
 SP1dr  X1vr  1 4.300000e-01    1.930000e+00
 SN6dr  C6vr  1 4.300000e-01    2.530000e+00
 SN6dr  C5vr  1 4.300000e-01    2.320000e+00
 SN6dr  C4vr  1 4.300000e-01    2.160000e+00
 SN6dr  C3vr  1 4.300000e-01    1.930000e+00
 SN6dr  C2vr  1 4.300000e-01    1.930000e+00
 SN6dr  C1vr  1 4.300000e-01    1.730000e+00
 SN6dr  X4vr  1 4.300000e-01    2.530000e+00
 SN6dr  X3vr  1 4.300000e-01    2.320000e+00
 SN6dr  X2vr  1 4.300000e-01    2.160000e+00
 SN6dr  X1vr  1 4.300000e-01    1.930000e+00
 SN5dr  C6vr  1 4.300000e-01    2.530000e+00
 SN5dr  C5vr  1 4.300000e-01    2.320000e+00
 SN5dr  C4vr  1 4.300000e-01    2.160000e+00
 SN5dr  C3vr  1 4.300000e-01    2.160000e+00
 SN5dr  C2vr  1 4.300000e-01    1.930000e+00
 SN5dr  C1vr  1 4.300000e-01    1.730000e+00
 SN5dr  X4vr  1 4.300000e-01    2.920000e+00
 SN5dr  X3vr  1 4.300000e-01    2.530000e+00
 SN5dr  X2vr  1 4.300000e-01    2.320000e+00
 SN5dr  X1vr  1 4.300000e-01    2.160000e+00
 SN4dr  C6vr  1 4.300000e-01    2.530000e+00
 SN4dr  C5vr  1 4.300000e-01    2.320000e+00
 SN4dr  C4vr  1 4.300000e-01    2.320000e+00
 SN4dr  C3vr  1 4.300000e-01    2.160000e+00
 SN4dr  C2vr  1 4.300000e-01    1.930000e+00
 SN4dr  C1vr  1 4.300000e-01    1.730000e+00
 SN4dr  X4vr  1 4.300000e-01    2.930000e+00
 SN4dr  X3vr  1 4.300000e-01    2.920000e+00
 SN4dr  X2vr  1 4.300000e-01    2.320000e+00
 SN4dr  X1vr  1 4.300000e-01    2.160000e+00
 SN3dr  C6vr  1 4.300000e-01    2.530000e+00
 SN3dr  C5vr  1 4.300000e-01    2.320000e+00
 SN3dr  C4vr  1 4.300000e-01    2.320000e+00
 SN3dr  C3vr  1 4.300000e-01    2.160000e+00
 SN3dr  C2vr  1 4.300000e-01    2.160000e+00
 SN3dr  C1vr  1 4.300000e-01    1.930000e+00
 SN3dr  X4vr  1 4.300000e-01    2.920000e+00
 SN3dr  X3vr  1 4.300000e-01    2.530000e+00
 SN3dr  X2vr  1 4.300000e-01    2.320000e+00
 SN3dr  X1vr  1 4.300000e-01    2.320000e+00
 SN2dr  C6vr  1 4.300000e-01    2.530000e+00
 SN2dr  C5vr  1 4.300000e-01    2.320000e+00
 SN2dr  C4vr  1 4.300000e-01    2.320000e+00
 SN2dr  C3vr  1 4.300000e-01    2.320000e+00
 SN2dr  C2vr  1 4.300000e-01    2.160000e+00
 SN2dr  C1vr  1 4.300000e-01    1.930000e+00
 SN2dr  X4vr  1 4.300000e-01    2.920000e+00
 SN2dr  X3vr  1 4.300000e-01    2.530000e+00
 SN2dr  X2vr  1 4.300000e-01    2.320000e+00
 SN2dr  X1vr  1 4.300000e-01    2.320000e+00
 SN1dr  C6vr  1 4.300000e-01    2.920000e+00
 SN1dr  C5vr  1 4.300000e-01    2.530000e+00
 SN1dr  C4vr  1 4.300000e-01    2.530000e+00
 SN1dr  C3vr  1 4.300000e-01    2.320000e+00
 SN1dr  C2vr  1 4.300000e-01    2.160000e+00
 SN1dr  C1vr  1 4.300000e-01    1.930000e+00
 SN1dr  X4vr  1 4.300000e-01    2.530000e+00
 SN1dr  X3vr  1 4.300000e-01    2.530000e+00
 SN1dr  X2vr  1 4.300000e-01    2.320000e+00
 SN1dr  X1vr  1 4.300000e-01    2.320000e+00
   P6a  SC6e  1 4.300000e-01    1.930000e+00
   P6a  SC5e  1 4.300000e-01    1.730000e+00
   P6a  SC4e  1 4.430000e-01    1.480000e+00
   P6a  SC3e  1 4.730000e-01    1.280000e+00
   P6a  SC2e  1 4.730000e-01    1.280000e+00
   P6a  SC1e  1 5.140000e-01    1.110000e+00
   P6a  SX4e  1 4.300000e-01    2.160000e+00
   P6a  SX3e  1 4.300000e-01    2.160000e+00
   P6a  SX2e  1 4.300000e-01    1.930000e+00
   P6a  SX1e  1 4.300000e-01    1.730000e+00
   P5a  SC6e  1 4.300000e-01    1.930000e+00
   P5a  SC5e  1 4.300000e-01    1.930000e+00
   P5a  SC4e  1 4.300000e-01    1.730000e+00
   P5a  SC3e  1 4.430000e-01    1.480000e+00
   P5a  SC2e  1 4.430000e-01    1.480000e+00
   P5a  SC1e  1 4.730000e-01    1.280000e+00
   P5a  SX4e  1 4.300000e-01    2.320000e+00
   P5a  SX3e  1 4.300000e-01    2.160000e+00
   P5a  SX2e  1 4.300000e-01    2.160000e+00
   P5a  SX1e  1 4.300000e-01    1.730000e+00
   P4a  SC6e  1 4.300000e-01    2.160000e+00
   P4a  SC5e  1 4.300000e-01    1.930000e+00
   P4a  SC4e  1 4.300000e-01    1.730000e+00
   P4a  SC3e  1 4.430000e-01    1.480000e+00
   P4a  SC2e  1 4.430000e-01    1.480000e+00
   P4a  SC1e  1 4.730000e-01    1.280000e+00
   P4a  SX4e  1 4.300000e-01    2.320000e+00
   P4a  SX3e  1 4.300000e-01    2.160000e+00
   P4a  SX2e  1 4.300000e-01    2.160000e+00
   P4a  SX1e  1 4.300000e-01    1.930000e+00
   P3a  SC6e  1 4.300000e-01    2.320000e+00
   P3a  SC5e  1 4.300000e-01    2.160000e+00
   P3a  SC4e  1 4.300000e-01    1.930000e+00
   P3a  SC3e  1 4.430000e-01    1.480000e+00
   P3a  SC2e  1 4.430000e-01    1.480000e+00
   P3a  SC1e  1 4.730000e-01    1.280000e+00
   P3a  SX4e  1 4.300000e-01    2.320000e+00
   P3a  SX3e  1 4.300000e-01    2.320000e+00
   P3a  SX2e  1 4.300000e-01    2.160000e+00
   P3a  SX1e  1 4.300000e-01    1.930000e+00
   P2a  SC6e  1 4.300000e-01    2.320000e+00
   P2a  SC5e  1 4.300000e-01    2.160000e+00
   P2a  SC4e  1 4.300000e-01    1.930000e+00
   P2a  SC3e  1 4.300000e-01    1.730000e+00
   P2a  SC2e  1 4.300000e-01    1.730000e+00
   P2a  SC1e  1 4.430000e-01    1.480000e+00
   P2a  SX4e  1 4.300000e-01    2.320000e+00
   P2a  SX3e  1 4.300000e-01    2.320000e+00
   P2a  SX2e  1 4.300000e-01    2.160000e+00
   P2a  SX1e  1 4.300000e-01    1.930000e+00
   P1a  SC6e  1 4.300000e-01    2.320000e+00
   P1a  SC5e  1 4.300000e-01    2.160000e+00
   P1a  SC4e  1 4.300000e-01    1.930000e+00
   P1a  SC3e  1 4.300000e-01    1.730000e+00
   P1a  SC2e  1 4.300000e-01    1.730000e+00
   P1a  SC1e  1 4.430000e-01    1.480000e+00
   P1a  SX4e  1 4.300000e-01    2.320000e+00
   P1a  SX3e  1 4.300000e-01    2.320000e+00
   P1a  SX2e  1 4.300000e-01    2.160000e+00
   P1a  SX1e  1 4.300000e-01    1.930000e+00
   N6a  SC6e  1 4.300000e-01    2.530000e+00
   N6a  SC5e  1 4.300000e-01    2.320000e+00
   N6a  SC4e  1 4.300000e-01    2.160000e+00
   N6a  SC3e  1 4.300000e-01    1.930000e+00
   N6a  SC2e  1 4.300000e-01    1.930000e+00
   N6a  SC1e  1 4.300000e-01    1.730000e+00
   N6a  SX4e  1 4.300000e-01    2.530000e+00
   N6a  SX3e  1 4.300000e-01    2.320000e+00
   N6a  SX2e  1 4.300000e-01    2.160000e+00
   N6a  SX1e  1 4.300000e-01    1.930000e+00
   N5a  SC6e  1 4.300000e-01    2.530000e+00
   N5a  SC5e  1 4.300000e-01    2.320000e+00
   N5a  SC4e  1 4.300000e-01    2.160000e+00
   N5a  SC3e  1 4.300000e-01    2.160000e+00
   N5a  SC2e  1 4.300000e-01    1.930000e+00
   N5a  SC1e  1 4.300000e-01    1.730000e+00
   N5a  SX4e  1 4.300000e-01    2.920000e+00
   N5a  SX3e  1 4.300000e-01    2.530000e+00
   N5a  SX2e  1 4.300000e-01    2.320000e+00
   N5a  SX1e  1 4.300000e-01    2.160000e+00
   N4a  SC6e  1 4.300000e-01    2.530000e+00
   N4a  SC5e  1 4.300000e-01    2.320000e+00
   N4a  SC4e  1 4.300000e-01    2.320000e+00
   N4a  SC3e  1 4.300000e-01    2.160000e+00
   N4a  SC2e  1 4.300000e-01    1.930000e+00
   N4a  SC1e  1 4.300000e-01    1.730000e+00
   N4a  SX4e  1 4.300000e-01    2.930000e+00
   N4a  SX3e  1 4.300000e-01    2.920000e+00
   N4a  SX2e  1 4.300000e-01    2.320000e+00
   N4a  SX1e  1 4.300000e-01    2.160000e+00
   N3a  SC6e  1 4.300000e-01    2.530000e+00
   N3a  SC5e  1 4.300000e-01    2.320000e+00
   N3a  SC4e  1 4.300000e-01    2.320000e+00
   N3a  SC3e  1 4.300000e-01    2.160000e+00
   N3a  SC2e  1 4.300000e-01    2.160000e+00
   N3a  SC1e  1 4.300000e-01    1.930000e+00
   N3a  SX4e  1 4.300000e-01    2.920000e+00
   N3a  SX3e  1 4.300000e-01    2.530000e+00
   N3a  SX2e  1 4.300000e-01    2.320000e+00
   N3a  SX1e  1 4.300000e-01    2.320000e+00
   N2a  SC6e  1 4.300000e-01    2.530000e+00
   N2a  SC5e  1 4.300000e-01    2.320000e+00
   N2a  SC4e  1 4.300000e-01    2.320000e+00
   N2a  SC3e  1 4.300000e-01    2.320000e+00
   N2a  SC2e  1 4.300000e-01    2.160000e+00
   N2a  SC1e  1 4.300000e-01    1.930000e+00
   N2a  SX4e  1 4.300000e-01    2.920000e+00
   N2a  SX3e  1 4.300000e-01    2.530000e+00
   N2a  SX2e  1 4.300000e-01    2.320000e+00
   N2a  SX1e  1 4.300000e-01    2.320000e+00
   N1a  SC6e  1 4.300000e-01    2.920000e+00
   N1a  SC5e  1 4.300000e-01    2.530000e+00
   N1a  SC4e  1 4.300000e-01    2.530000e+00
   N1a  SC3e  1 4.300000e-01    2.320000e+00
   N1a  SC2e  1 4.300000e-01    2.160000e+00
   N1a  SC1e  1 4.300000e-01    1.930000e+00
   N1a  SX4e  1 4.300000e-01    2.530000e+00
   N1a  SX3e  1 4.300000e-01    2.530000e+00
   N1a  SX2e  1 4.300000e-01    2.320000e+00
   N1a  SX1e  1 4.300000e-01    2.320000e+00
  SP6a   C6e  1 4.300000e-01    1.930000e+00
  SP6a   C5e  1 4.300000e-01    1.730000e+00
  SP6a   C4e  1 4.430000e-01    1.480000e+00
  SP6a   C3e  1 4.730000e-01    1.280000e+00
  SP6a   C2e  1 4.730000e-01    1.280000e+00
  SP6a   C1e  1 5.140000e-01    1.110000e+00
  SP6a   X4e  1 4.300000e-01    2.160000e+00
  SP6a   X3e  1 4.300000e-01    2.160000e+00
  SP6a   X2e  1 4.300000e-01    1.930000e+00
  SP6a   X1e  1 4.300000e-01    1.730000e+00
  SP5a   C6e  1 4.300000e-01    1.930000e+00
  SP5a   C5e  1 4.300000e-01    1.930000e+00
  SP5a   C4e  1 4.300000e-01    1.730000e+00
  SP5a   C3e  1 4.430000e-01    1.480000e+00
  SP5a   C2e  1 4.430000e-01    1.480000e+00
  SP5a   C1e  1 4.730000e-01    1.280000e+00
  SP5a   X4e  1 4.300000e-01    2.320000e+00
  SP5a   X3e  1 4.300000e-01    2.160000e+00
  SP5a   X2e  1 4.300000e-01    2.160000e+00
  SP5a   X1e  1 4.300000e-01    1.730000e+00
  SP4a   C6e  1 4.300000e-01    2.160000e+00
  SP4a   C5e  1 4.300000e-01    1.930000e+00
  SP4a   C4e  1 4.300000e-01    1.730000e+00
  SP4a   C3e  1 4.430000e-01    1.480000e+00
  SP4a   C2e  1 4.430000e-01    1.480000e+00
  SP4a   C1e  1 4.730000e-01    1.280000e+00
  SP4a   X4e  1 4.300000e-01    2.320000e+00
  SP4a   X3e  1 4.300000e-01    2.160000e+00
  SP4a   X2e  1 4.300000e-01    2.160000e+00
  SP4a   X1e  1 4.300000e-01    1.930000e+00
  SP3a   C6e  1 4.300000e-01    2.320000e+00
  SP3a   C5e  1 4.300000e-01    2.160000e+00
  SP3a   C4e  1 4.300000e-01    1.930000e+00
  SP3a   C3e  1 4.430000e-01    1.480000e+00
  SP3a   C2e  1 4.430000e-01    1.480000e+00
  SP3a   C1e  1 4.730000e-01    1.280000e+00
  SP3a   X4e  1 4.300000e-01    2.320000e+00
  SP3a   X3e  1 4.300000e-01    2.320000e+00
  SP3a   X2e  1 4.300000e-01    2.160000e+00
  SP3a   X1e  1 4.300000e-01    1.930000e+00
  SP2a   C6e  1 4.300000e-01    2.320000e+00
  SP2a   C5e  1 4.300000e-01    2.160000e+00
  SP2a   C4e  1 4.300000e-01    1.930000e+00
  SP2a   C3e  1 4.300000e-01    1.730000e+00
  SP2a   C2e  1 4.300000e-01    1.730000e+00
  SP2a   C1e  1 4.430000e-01    1.480000e+00
  SP2a   X4e  1 4.300000e-01    2.320000e+00
  SP2a   X3e  1 4.300000e-01    2.320000e+00
  SP2a   X2e  1 4.300000e-01    2.160000e+00
  SP2a   X1e  1 4.300000e-01    1.930000e+00
  SP1a   C6e  1 4.300000e-01    2.320000e+00
  SP1a   C5e  1 4.300000e-01    2.160000e+00
  SP1a   C4e  1 4.300000e-01    1.930000e+00
  SP1a   C3e  1 4.300000e-01    1.730000e+00
  SP1a   C2e  1 4.300000e-01    1.730000e+00
  SP1a   C1e  1 4.430000e-01    1.480000e+00
  SP1a   X4e  1 4.300000e-01    2.320000e+00
  SP1a   X3e  1 4.300000e-01    2.320000e+00
  SP1a   X2e  1 4.300000e-01    2.160000e+00
  SP1a   X1e  1 4.300000e-01    1.930000e+00
  SN6a   C6e  1 4.300000e-01    2.530000e+00
  SN6a   C5e  1 4.300000e-01    2.320000e+00
  SN6a   C4e  1 4.300000e-01    2.160000e+00
  SN6a   C3e  1 4.300000e-01    1.930000e+00
  SN6a   C2e  1 4.300000e-01    1.930000e+00
  SN6a   C1e  1 4.300000e-01    1.730000e+00
  SN6a   X4e  1 4.300000e-01    2.530000e+00
  SN6a   X3e  1 4.300000e-01    2.320000e+00
  SN6a   X2e  1 4.300000e-01    2.160000e+00
  SN6a   X1e  1 4.300000e-01    1.930000e+00
  SN5a   C6e  1 4.300000e-01    2.530000e+00
  SN5a   C5e  1 4.300000e-01    2.320000e+00
  SN5a   C4e  1 4.300000e-01    2.160000e+00
  SN5a   C3e  1 4.300000e-01    2.160000e+00
  SN5a   C2e  1 4.300000e-01    1.930000e+00
  SN5a   C1e  1 4.300000e-01    1.730000e+00
  SN5a   X4e  1 4.300000e-01    2.920000e+00
  SN5a   X3e  1 4.300000e-01    2.530000e+00
  SN5a   X2e  1 4.300000e-01    2.320000e+00
  SN5a   X1e  1 4.300000e-01    2.160000e+00
  SN4a   C6e  1 4.300000e-01    2.530000e+00
  SN4a   C5e  1 4.300000e-01    2.320000e+00
  SN4a   C4e  1 4.300000e-01    2.320000e+00
  SN4a   C3e  1 4.300000e-01    2.160000e+00
  SN4a   C2e  1 4.300000e-01    1.930000e+00
  SN4a   C1e  1 4.300000e-01    1.730000e+00
  SN4a   X4e  1 4.300000e-01    2.930000e+00
  SN4a   X3e  1 4.300000e-01    2.920000e+00
  SN4a   X2e  1 4.300000e-01    2.320000e+00
  SN4a   X1e  1 4.300000e-01    2.160000e+00
  SN3a   C6e  1 4.300000e-01    2.530000e+00
  SN3a   C5e  1 4.300000e-01    2.320000e+00
  SN3a   C4e  1 4.300000e-01    2.320000e+00
  SN3a   C3e  1 4.300000e-01    2.160000e+00
  SN3a   C2e  1 4.300000e-01    2.160000e+00
  SN3a   C1e  1 4.300000e-01    1.930000e+00
  SN3a   X4e  1 4.300000e-01    2.920000e+00
  SN3a   X3e  1 4.300000e-01    2.530000e+00
  SN3a   X2e  1 4.300000e-01    2.320000e+00
  SN3a   X1e  1 4.300000e-01    2.320000e+00
  SN2a   C6e  1 4.300000e-01    2.530000e+00
  SN2a   C5e  1 4.300000e-01    2.320000e+00
  SN2a   C4e  1 4.300000e-01    2.320000e+00
  SN2a   C3e  1 4.300000e-01    2.320000e+00
  SN2a   C2e  1 4.300000e-01    2.160000e+00
  SN2a   C1e  1 4.300000e-01    1.930000e+00
  SN2a   X4e  1 4.300000e-01    2.920000e+00
  SN2a   X3e  1 4.300000e-01    2.530000e+00
  SN2a   X2e  1 4.300000e-01    2.320000e+00
  SN2a   X1e  1 4.300000e-01    2.320000e+00
  SN1a   C6e  1 4.300000e-01    2.920000e+00
  SN1a   C5e  1 4.300000e-01    2.530000e+00
  SN1a   C4e  1 4.300000e-01    2.530000e+00
  SN1a   C3e  1 4.300000e-01    2.320000e+00
  SN1a   C2e  1 4.300000e-01    2.160000e+00
  SN1a   C1e  1 4.300000e-01    1.930000e+00
  SN1a   X4e  1 4.300000e-01    2.530000e+00
  SN1a   X3e  1 4.300000e-01    2.530000e+00
  SN1a   X2e  1 4.300000e-01    2.320000e+00
  SN1a   X1e  1 4.300000e-01    2.320000e+00
   P6a SX1eq  1 4.300000e-01    2.160000e+00
   P5a SX1eq  1 4.300000e-01    2.160000e+00
   P4a SX1eq  1 4.300000e-01    2.320000e+00
   P3a SX1eq  1 4.300000e-01    2.320000e+00
   P2a SX1eq  1 4.300000e-01    2.320000e+00
   P1a SX1eq  1 4.300000e-01    2.320000e+00
   N6a SX1eq  1 4.300000e-01    2.320000e+00
   N5a SX1eq  1 4.300000e-01    2.530000e+00
   N4a SX1eq  1 4.300000e-01    2.530000e+00
   N3a SX1eq  1 4.300000e-01    2.920000e+00
   N2a SX1eq  1 4.300000e-01    2.920000e+00
   N1a SX1eq  1 4.300000e-01    2.920000e+00
   P6a SX2eq  1 4.300000e-01    2.320000e+00
   P5a SX2eq  1 4.300000e-01    2.530000e+00
   P4a SX2eq  1 4.300000e-01    2.530000e+00
   P3a SX2eq  1 4.300000e-01    2.530000e+00
   P2a SX2eq  1 4.300000e-01    2.530000e+00
   P1a SX2eq  1 4.300000e-01    2.530000e+00
   N6a SX2eq  1 4.300000e-01    2.530000e+00
   N5a SX2eq  1 4.300000e-01    2.920000e+00
   N4a SX2eq  1 4.300000e-01    2.920000e+00
   N3a SX2eq  1 4.300000e-01    2.920000e+00
   N2a SX2eq  1 4.300000e-01    2.920000e+00
   N1a SX2eq  1 4.300000e-01    2.920000e+00
   P6a SX3eq  1 4.300000e-01    2.530000e+00
   P5a SX3eq  1 4.300000e-01    2.530000e+00
   P4a SX3eq  1 4.300000e-01    2.530000e+00
   P3a SX3eq  1 4.300000e-01    2.920000e+00
   P2a SX3eq  1 4.300000e-01    2.920000e+00
   P1a SX3eq  1 4.300000e-01    2.920000e+00
   N6a SX3eq  1 4.300000e-01    2.920000e+00
   N5a SX3eq  1 4.300000e-01    2.930000e+00
   N4a SX3eq  1 4.300000e-01    3.160000e+00
   N3a SX3eq  1 4.300000e-01    2.930000e+00
   N2a SX3eq  1 4.300000e-01    2.930000e+00
   N1a SX3eq  1 4.300000e-01    2.930000e+00
   P6a SX4eq  1 4.300000e-01    2.530000e+00
   P5a SX4eq  1 4.300000e-01    2.920000e+00
   P4a SX4eq  1 4.300000e-01    2.920000e+00
   P3a SX4eq  1 4.300000e-01    2.920000e+00
   P2a SX4eq  1 4.300000e-01    2.920000e+00
   P1a SX4eq  1 4.300000e-01    2.920000e+00
   N6a SX4eq  1 4.300000e-01    2.930000e+00
   N5a SX4eq  1 4.300000e-01    3.160000e+00
   N4a SX4eq  1 4.300000e-01    3.380000e+00
   N3a SX4eq  1 4.300000e-01    3.160000e+00
   N2a SX4eq  1 4.300000e-01    3.160000e+00
   N1a SX4eq  1 4.300000e-01    2.930000e+00
   P6a SC1eq  1 4.730000e-01    1.280000e+00
   P5a SC1eq  1 4.300000e-01    1.730000e+00
   P4a SC1eq  1 4.300000e-01    1.730000e+00
   P3a SC1eq  1 4.300000e-01    1.730000e+00
   P2a SC1eq  1 4.300000e-01    1.930000e+00
   P1a SC1eq  1 4.300000e-01    1.930000e+00
   N6a SC1eq  1 4.300000e-01    2.160000e+00
   N5a SC1eq  1 4.300000e-01    2.160000e+00
   N4a SC1eq  1 4.300000e-01    2.160000e+00
   N3a SC1eq  1 4.300000e-01    2.320000e+00
   N2a SC1eq  1 4.300000e-01    2.320000e+00
   N1a SC1eq  1 4.300000e-01    2.320000e+00
   P6a SC2eq  1 4.300000e-01    1.730000e+00
   P5a SC2eq  1 4.300000e-01    1.930000e+00
   P4a SC2eq  1 4.300000e-01    1.930000e+00
   P3a SC2eq  1 4.300000e-01    1.930000e+00
   P2a SC2eq  1 4.300000e-01    2.160000e+00
   P1a SC2eq  1 4.300000e-01    2.160000e+00
   N6a SC2eq  1 4.300000e-01    2.320000e+00
   N5a SC2eq  1 4.300000e-01    2.320000e+00
   N4a SC2eq  1 4.300000e-01    2.320000e+00
   N3a SC2eq  1 4.300000e-01    2.530000e+00
   N2a SC2eq  1 4.300000e-01    2.530000e+00
   N1a SC2eq  1 4.300000e-01    2.530000e+00
   P6a SC3eq  1 4.300000e-01    1.730000e+00
   P5a SC3eq  1 4.300000e-01    1.930000e+00
   P4a SC3eq  1 4.300000e-01    1.930000e+00
   P3a SC3eq  1 4.300000e-01    1.930000e+00
   P2a SC3eq  1 4.300000e-01    2.160000e+00
   P1a SC3eq  1 4.300000e-01    2.160000e+00
   N6a SC3eq  1 4.300000e-01    2.320000e+00
   N5a SC3eq  1 4.300000e-01    2.530000e+00
   N4a SC3eq  1 4.300000e-01    2.530000e+00
   N3a SC3eq  1 4.300000e-01    2.530000e+00
   N2a SC3eq  1 4.300000e-01    2.920000e+00
   N1a SC3eq  1 4.300000e-01    2.920000e+00
   P6a SC4eq  1 4.300000e-01    1.930000e+00
   P5a SC4eq  1 4.300000e-01    2.160000e+00
   P4a SC4eq  1 4.300000e-01    2.160000e+00
   P3a SC4eq  1 4.300000e-01    2.320000e+00
   P2a SC4eq  1 4.300000e-01    2.320000e+00
   P1a SC4eq  1 4.300000e-01    2.320000e+00
   N6a SC4eq  1 4.300000e-01    2.530000e+00
   N5a SC4eq  1 4.300000e-01    2.530000e+00
   N4a SC4eq  1 4.300000e-01    2.920000e+00
   N3a SC4eq  1 4.300000e-01    2.920000e+00
   N2a SC4eq  1 4.300000e-01    2.920000e+00
   N1a SC4eq  1 4.300000e-01    2.930000e+00
   P6a SC5eq  1 4.300000e-01    2.160000e+00
   P5a SC5eq  1 4.300000e-01    2.320000e+00
   P4a SC5eq  1 4.300000e-01    2.320000e+00
   P3a SC5eq  1 4.300000e-01    2.530000e+00
   P2a SC5eq  1 4.300000e-01    2.530000e+00
   P1a SC5eq  1 4.300000e-01    2.530000e+00
   N6a SC5eq  1 4.300000e-01    2.920000e+00
   N5a SC5eq  1 4.300000e-01    2.920000e+00
   N4a SC5eq  1 4.300000e-01    2.920000e+00
   N3a SC5eq  1 4.300000e-01    2.920000e+00
   N2a SC5eq  1 4.300000e-01    2.920000e+00
   N1a SC5eq  1 4.300000e-01    2.930000e+00
   P6a SC6eq  1 4.300000e-01    2.320000e+00
   P5a SC6eq  1 4.300000e-01    2.320000e+00
   P4a SC6eq  1 4.300000e-01    2.530000e+00
   P3a SC6eq  1 4.300000e-01    2.920000e+00
   P2a SC6eq  1 4.300000e-01    2.920000e+00
   P1a SC6eq  1 4.300000e-01    2.920000e+00
   N6a SC6eq  1 4.300000e-01    2.930000e+00
   N5a SC6eq  1 4.300000e-01    2.930000e+00
   N4a SC6eq  1 4.300000e-01    2.930000e+00
   N3a SC6eq  1 4.300000e-01    2.930000e+00
   N2a SC6eq  1 4.300000e-01    2.930000e+00
   N1a SC6eq  1 4.300000e-01    3.160000e+00
  SP6a  X1eq  1 4.300000e-01    2.160000e+00
  SP5a  X1eq  1 4.300000e-01    2.160000e+00
  SP4a  X1eq  1 4.300000e-01    2.320000e+00
  SP3a  X1eq  1 4.300000e-01    2.320000e+00
  SP2a  X1eq  1 4.300000e-01    2.320000e+00
  SP1a  X1eq  1 4.300000e-01    2.320000e+00
  SN6a  X1eq  1 4.300000e-01    2.320000e+00
  SN5a  X1eq  1 4.300000e-01    2.530000e+00
  SN4a  X1eq  1 4.300000e-01    2.530000e+00
  SN3a  X1eq  1 4.300000e-01    2.920000e+00
  SN2a  X1eq  1 4.300000e-01    2.920000e+00
  SN1a  X1eq  1 4.300000e-01    2.920000e+00
  SP6a  X2eq  1 4.300000e-01    2.320000e+00
  SP5a  X2eq  1 4.300000e-01    2.530000e+00
  SP4a  X2eq  1 4.300000e-01    2.530000e+00
  SP3a  X2eq  1 4.300000e-01    2.530000e+00
  SP2a  X2eq  1 4.300000e-01    2.530000e+00
  SP1a  X2eq  1 4.300000e-01    2.530000e+00
  SN6a  X2eq  1 4.300000e-01    2.530000e+00
  SN5a  X2eq  1 4.300000e-01    2.920000e+00
  SN4a  X2eq  1 4.300000e-01    2.920000e+00
  SN3a  X2eq  1 4.300000e-01    2.920000e+00
  SN2a  X2eq  1 4.300000e-01    2.920000e+00
  SN1a  X2eq  1 4.300000e-01    2.920000e+00
  SP6a  X3eq  1 4.300000e-01    2.530000e+00
  SP5a  X3eq  1 4.300000e-01    2.530000e+00
  SP4a  X3eq  1 4.300000e-01    2.530000e+00
  SP3a  X3eq  1 4.300000e-01    2.920000e+00
  SP2a  X3eq  1 4.300000e-01    2.920000e+00
  SP1a  X3eq  1 4.300000e-01    2.920000e+00
  SN6a  X3eq  1 4.300000e-01    2.920000e+00
  SN5a  X3eq  1 4.300000e-01    2.930000e+00
  SN4a  X3eq  1 4.300000e-01    3.160000e+00
  SN3a  X3eq  1 4.300000e-01    2.930000e+00
  SN2a  X3eq  1 4.300000e-01    2.930000e+00
  SN1a  X3eq  1 4.300000e-01    2.930000e+00
  SP6a  X4eq  1 4.300000e-01    2.530000e+00
  SP5a  X4eq  1 4.300000e-01    2.920000e+00
  SP4a  X4eq  1 4.300000e-01    2.920000e+00
  SP3a  X4eq  1 4.300000e-01    2.920000e+00
  SP2a  X4eq  1 4.300000e-01    2.920000e+00
  SP1a  X4eq  1 4.300000e-01    2.920000e+00
  SN6a  X4eq  1 4.300000e-01    2.930000e+00
  SN5a  X4eq  1 4.300000e-01    3.160000e+00
  SN4a  X4eq  1 4.300000e-01    3.380000e+00
  SN3a  X4eq  1 4.300000e-01    3.160000e+00
  SN2a  X4eq  1 4.300000e-01    3.160000e+00
  SN1a  X4eq  1 4.300000e-01    2.930000e+00
  SP6a  C1eq  1 4.730000e-01    1.280000e+00
  SP5a  C1eq  1 4.300000e-01    1.730000e+00
  SP4a  C1eq  1 4.300000e-01    1.730000e+00
  SP3a  C1eq  1 4.300000e-01    1.730000e+00
  SP2a  C1eq  1 4.300000e-01    1.930000e+00
  SP1a  C1eq  1 4.300000e-01    1.930000e+00
  SN6a  C1eq  1 4.300000e-01    2.160000e+00
  SN5a  C1eq  1 4.300000e-01    2.160000e+00
  SN4a  C1eq  1 4.300000e-01    2.160000e+00
  SN3a  C1eq  1 4.300000e-01    2.320000e+00
  SN2a  C1eq  1 4.300000e-01    2.320000e+00
  SN1a  C1eq  1 4.300000e-01    2.320000e+00
  SP6a  C2eq  1 4.300000e-01    1.730000e+00
  SP5a  C2eq  1 4.300000e-01    1.930000e+00
  SP4a  C2eq  1 4.300000e-01    1.930000e+00
  SP3a  C2eq  1 4.300000e-01    1.930000e+00
  SP2a  C2eq  1 4.300000e-01    2.160000e+00
  SP1a  C2eq  1 4.300000e-01    2.160000e+00
  SN6a  C2eq  1 4.300000e-01    2.320000e+00
  SN5a  C2eq  1 4.300000e-01    2.320000e+00
  SN4a  C2eq  1 4.300000e-01    2.320000e+00
  SN3a  C2eq  1 4.300000e-01    2.530000e+00
  SN2a  C2eq  1 4.300000e-01    2.530000e+00
  SN1a  C2eq  1 4.300000e-01    2.530000e+00
  SP6a  C3eq  1 4.300000e-01    1.730000e+00
  SP5a  C3eq  1 4.300000e-01    1.930000e+00
  SP4a  C3eq  1 4.300000e-01    1.930000e+00
  SP3a  C3eq  1 4.300000e-01    1.930000e+00
  SP2a  C3eq  1 4.300000e-01    2.160000e+00
  SP1a  C3eq  1 4.300000e-01    2.160000e+00
  SN6a  C3eq  1 4.300000e-01    2.320000e+00
  SN5a  C3eq  1 4.300000e-01    2.530000e+00
  SN4a  C3eq  1 4.300000e-01    2.530000e+00
  SN3a  C3eq  1 4.300000e-01    2.530000e+00
  SN2a  C3eq  1 4.300000e-01    2.920000e+00
  SN1a  C3eq  1 4.300000e-01    2.920000e+00
  SP6a  C4eq  1 4.300000e-01    1.930000e+00
  SP5a  C4eq  1 4.300000e-01    2.160000e+00
  SP4a  C4eq  1 4.300000e-01    2.160000e+00
  SP3a  C4eq  1 4.300000e-01    2.320000e+00
  SP2a  C4eq  1 4.300000e-01    2.320000e+00
  SP1a  C4eq  1 4.300000e-01    2.320000e+00
  SN6a  C4eq  1 4.300000e-01    2.530000e+00
  SN5a  C4eq  1 4.300000e-01    2.530000e+00
  SN4a  C4eq  1 4.300000e-01    2.920000e+00
  SN3a  C4eq  1 4.300000e-01    2.920000e+00
  SN2a  C4eq  1 4.300000e-01    2.920000e+00
  SN1a  C4eq  1 4.300000e-01    2.930000e+00
  SP6a  C5eq  1 4.300000e-01    2.160000e+00
  SP5a  C5eq  1 4.300000e-01    2.320000e+00
  SP4a  C5eq  1 4.300000e-01    2.320000e+00
  SP3a  C5eq  1 4.300000e-01    2.530000e+00
  SP2a  C5eq  1 4.300000e-01    2.530000e+00
  SP1a  C5eq  1 4.300000e-01    2.530000e+00
  SN6a  C5eq  1 4.300000e-01    2.920000e+00
  SN5a  C5eq  1 4.300000e-01    2.920000e+00
  SN4a  C5eq  1 4.300000e-01    2.920000e+00
  SN3a  C5eq  1 4.300000e-01    2.920000e+00
  SN2a  C5eq  1 4.300000e-01    2.920000e+00
  SN1a  C5eq  1 4.300000e-01    2.930000e+00
  SP6a  C6eq  1 4.300000e-01    2.320000e+00
  SP5a  C6eq  1 4.300000e-01    2.320000e+00
  SP4a  C6eq  1 4.300000e-01    2.530000e+00
  SP3a  C6eq  1 4.300000e-01    2.920000e+00
  SP2a  C6eq  1 4.300000e-01    2.920000e+00
  SP1a  C6eq  1 4.300000e-01    2.920000e+00
  SN6a  C6eq  1 4.300000e-01    2.930000e+00
  SN5a  C6eq  1 4.300000e-01    2.930000e+00
  SN4a  C6eq  1 4.300000e-01    2.930000e+00
  SN3a  C6eq  1 4.300000e-01    2.930000e+00
  SN2a  C6eq  1 4.300000e-01    2.930000e+00
  SN1a  C6eq  1 4.300000e-01    3.160000e+00
   P6a SX1eh  1 4.300000e-01    1.730000e+00
   P5a SX1eh  1 4.300000e-01    1.730000e+00
   P4a SX1eh  1 4.300000e-01    1.930000e+00
   P3a SX1eh  1 4.300000e-01    1.930000e+00
   P2a SX1eh  1 4.300000e-01    1.930000e+00
   P1a SX1eh  1 4.300000e-01    1.930000e+00
   N6a SX1eh  1 4.300000e-01    1.930000e+00
   N5a SX1eh  1 4.300000e-01    2.160000e+00
   N4a SX1eh  1 4.300000e-01    2.160000e+00
   N3a SX1eh  1 4.300000e-01    2.320000e+00
   N2a SX1eh  1 4.300000e-01    2.320000e+00
   N1a SX1eh  1 4.300000e-01    2.320000e+00
   P6a SX2eh  1 4.300000e-01    1.930000e+00
   P5a SX2eh  1 4.300000e-01    2.160000e+00
   P4a SX2eh  1 4.300000e-01    2.160000e+00
   P3a SX2eh  1 4.300000e-01    2.160000e+00
   P2a SX2eh  1 4.300000e-01    2.160000e+00
   P1a SX2eh  1 4.300000e-01    2.160000e+00
   N6a SX2eh  1 4.300000e-01    2.160000e+00
   N5a SX2eh  1 4.300000e-01    2.320000e+00
   N4a SX2eh  1 4.300000e-01    2.320000e+00
   N3a SX2eh  1 4.300000e-01    2.320000e+00
   N2a SX2eh  1 4.300000e-01    2.320000e+00
   N1a SX2eh  1 4.300000e-01    2.320000e+00
   P6a SX3eh  1 4.300000e-01    2.160000e+00
   P5a SX3eh  1 4.300000e-01    2.160000e+00
   P4a SX3eh  1 4.300000e-01    2.160000e+00
   P3a SX3eh  1 4.300000e-01    2.320000e+00
   P2a SX3eh  1 4.300000e-01    2.320000e+00
   P1a SX3eh  1 4.300000e-01    2.320000e+00
   N6a SX3eh  1 4.300000e-01    2.320000e+00
   N5a SX3eh  1 4.300000e-01    2.530000e+00
   N4a SX3eh  1 4.300000e-01    2.920000e+00
   N3a SX3eh  1 4.300000e-01    2.530000e+00
   N2a SX3eh  1 4.300000e-01    2.530000e+00
   N1a SX3eh  1 4.300000e-01    2.530000e+00
   P6a SX4eh  1 4.300000e-01    2.160000e+00
   P5a SX4eh  1 4.300000e-01    2.320000e+00
   P4a SX4eh  1 4.300000e-01    2.320000e+00
   P3a SX4eh  1 4.300000e-01    2.320000e+00
   P2a SX4eh  1 4.300000e-01    2.320000e+00
   P1a SX4eh  1 4.300000e-01    2.320000e+00
   N6a SX4eh  1 4.300000e-01    2.530000e+00
   N5a SX4eh  1 4.300000e-01    2.920000e+00
   N4a SX4eh  1 4.300000e-01    2.930000e+00
   N3a SX4eh  1 4.300000e-01    2.920000e+00
   N2a SX4eh  1 4.300000e-01    2.920000e+00
   N1a SX4eh  1 4.300000e-01    2.530000e+00
   P6a SC1eh  1 5.140000e-01    1.110000e+00
   P5a SC1eh  1 4.730000e-01    1.280000e+00
   P4a SC1eh  1 4.730000e-01    1.280000e+00
   P3a SC1eh  1 4.730000e-01    1.280000e+00
   P2a SC1eh  1 4.430000e-01    1.480000e+00
   P1a SC1eh  1 4.430000e-01    1.480000e+00
   N6a SC1eh  1 4.300000e-01    1.730000e+00
   N5a SC1eh  1 4.300000e-01    1.730000e+00
   N4a SC1eh  1 4.300000e-01    1.730000e+00
   N3a SC1eh  1 4.300000e-01    1.930000e+00
   N2a SC1eh  1 4.300000e-01    1.930000e+00
   N1a SC1eh  1 4.300000e-01    1.930000e+00
   P6a SC2eh  1 4.730000e-01    1.280000e+00
   P5a SC2eh  1 4.430000e-01    1.480000e+00
   P4a SC2eh  1 4.430000e-01    1.480000e+00
   P3a SC2eh  1 4.430000e-01    1.480000e+00
   P2a SC2eh  1 4.300000e-01    1.730000e+00
   P1a SC2eh  1 4.300000e-01    1.730000e+00
   N6a SC2eh  1 4.300000e-01    1.930000e+00
   N5a SC2eh  1 4.300000e-01    1.930000e+00
   N4a SC2eh  1 4.300000e-01    1.930000e+00
   N3a SC2eh  1 4.300000e-01    2.160000e+00
   N2a SC2eh  1 4.300000e-01    2.160000e+00
   N1a SC2eh  1 4.300000e-01    2.160000e+00
   P6a SC3eh  1 4.730000e-01    1.280000e+00
   P5a SC3eh  1 4.430000e-01    1.480000e+00
   P4a SC3eh  1 4.430000e-01    1.480000e+00
   P3a SC3eh  1 4.430000e-01    1.480000e+00
   P2a SC3eh  1 4.300000e-01    1.730000e+00
   P1a SC3eh  1 4.300000e-01    1.730000e+00
   N6a SC3eh  1 4.300000e-01    1.930000e+00
   N5a SC3eh  1 4.300000e-01    2.160000e+00
   N4a SC3eh  1 4.300000e-01    2.160000e+00
   N3a SC3eh  1 4.300000e-01    2.160000e+00
   N2a SC3eh  1 4.300000e-01    2.320000e+00
   N1a SC3eh  1 4.300000e-01    2.320000e+00
   P6a SC4eh  1 4.430000e-01    1.480000e+00
   P5a SC4eh  1 4.300000e-01    1.730000e+00
   P4a SC4eh  1 4.300000e-01    1.730000e+00
   P3a SC4eh  1 4.300000e-01    1.930000e+00
   P2a SC4eh  1 4.300000e-01    1.930000e+00
   P1a SC4eh  1 4.300000e-01    1.930000e+00
   N6a SC4eh  1 4.300000e-01    2.160000e+00
   N5a SC4eh  1 4.300000e-01    2.160000e+00
   N4a SC4eh  1 4.300000e-01    2.320000e+00
   N3a SC4eh  1 4.300000e-01    2.320000e+00
   N2a SC4eh  1 4.300000e-01    2.320000e+00
   N1a SC4eh  1 4.300000e-01    2.530000e+00
   P6a SC5eh  1 4.300000e-01    1.730000e+00
   P5a SC5eh  1 4.300000e-01    1.930000e+00
   P4a SC5eh  1 4.300000e-01    1.930000e+00
   P3a SC5eh  1 4.300000e-01    2.160000e+00
   P2a SC5eh  1 4.300000e-01    2.160000e+00
   P1a SC5eh  1 4.300000e-01    2.160000e+00
   N6a SC5eh  1 4.300000e-01    2.320000e+00
   N5a SC5eh  1 4.300000e-01    2.320000e+00
   N4a SC5eh  1 4.300000e-01    2.320000e+00
   N3a SC5eh  1 4.300000e-01    2.320000e+00
   N2a SC5eh  1 4.300000e-01    2.320000e+00
   N1a SC5eh  1 4.300000e-01    2.530000e+00
   P6a SC6eh  1 4.300000e-01    1.930000e+00
   P5a SC6eh  1 4.300000e-01    1.930000e+00
   P4a SC6eh  1 4.300000e-01    2.160000e+00
   P3a SC6eh  1 4.300000e-01    2.320000e+00
   P2a SC6eh  1 4.300000e-01    2.320000e+00
   P1a SC6eh  1 4.300000e-01    2.320000e+00
   N6a SC6eh  1 4.300000e-01    2.530000e+00
   N5a SC6eh  1 4.300000e-01    2.530000e+00
   N4a SC6eh  1 4.300000e-01    2.530000e+00
   N3a SC6eh  1 4.300000e-01    2.530000e+00
   N2a SC6eh  1 4.300000e-01    2.530000e+00
   N1a SC6eh  1 4.300000e-01    2.920000e+00
  SP6a  X1eh  1 4.300000e-01    1.730000e+00
  SP5a  X1eh  1 4.300000e-01    1.730000e+00
  SP4a  X1eh  1 4.300000e-01    1.930000e+00
  SP3a  X1eh  1 4.300000e-01    1.930000e+00
  SP2a  X1eh  1 4.300000e-01    1.930000e+00
  SP1a  X1eh  1 4.300000e-01    1.930000e+00
  SN6a  X1eh  1 4.300000e-01    1.930000e+00
  SN5a  X1eh  1 4.300000e-01    2.160000e+00
  SN4a  X1eh  1 4.300000e-01    2.160000e+00
  SN3a  X1eh  1 4.300000e-01    2.320000e+00
  SN2a  X1eh  1 4.300000e-01    2.320000e+00
  SN1a  X1eh  1 4.300000e-01    2.320000e+00
  SP6a  X2eh  1 4.300000e-01    1.930000e+00
  SP5a  X2eh  1 4.300000e-01    2.160000e+00
  SP4a  X2eh  1 4.300000e-01    2.160000e+00
  SP3a  X2eh  1 4.300000e-01    2.160000e+00
  SP2a  X2eh  1 4.300000e-01    2.160000e+00
  SP1a  X2eh  1 4.300000e-01    2.160000e+00
  SN6a  X2eh  1 4.300000e-01    2.160000e+00
  SN5a  X2eh  1 4.300000e-01    2.320000e+00
  SN4a  X2eh  1 4.300000e-01    2.320000e+00
  SN3a  X2eh  1 4.300000e-01    2.320000e+00
  SN2a  X2eh  1 4.300000e-01    2.320000e+00
  SN1a  X2eh  1 4.300000e-01    2.320000e+00
  SP6a  X3eh  1 4.300000e-01    2.160000e+00
  SP5a  X3eh  1 4.300000e-01    2.160000e+00
  SP4a  X3eh  1 4.300000e-01    2.160000e+00
  SP3a  X3eh  1 4.300000e-01    2.320000e+00
  SP2a  X3eh  1 4.300000e-01    2.320000e+00
  SP1a  X3eh  1 4.300000e-01    2.320000e+00
  SN6a  X3eh  1 4.300000e-01    2.320000e+00
  SN5a  X3eh  1 4.300000e-01    2.530000e+00
  SN4a  X3eh  1 4.300000e-01    2.920000e+00
  SN3a  X3eh  1 4.300000e-01    2.530000e+00
  SN2a  X3eh  1 4.300000e-01    2.530000e+00
  SN1a  X3eh  1 4.300000e-01    2.530000e+00
  SP6a  X4eh  1 4.300000e-01    2.160000e+00
  SP5a  X4eh  1 4.300000e-01    2.320000e+00
  SP4a  X4eh  1 4.300000e-01    2.320000e+00
  SP3a  X4eh  1 4.300000e-01    2.320000e+00
  SP2a  X4eh  1 4.300000e-01    2.320000e+00
  SP1a  X4eh  1 4.300000e-01    2.320000e+00
  SN6a  X4eh  1 4.300000e-01    2.530000e+00
  SN5a  X4eh  1 4.300000e-01    2.920000e+00
  SN4a  X4eh  1 4.300000e-01    2.930000e+00
  SN3a  X4eh  1 4.300000e-01    2.920000e+00
  SN2a  X4eh  1 4.300000e-01    2.920000e+00
  SN1a  X4eh  1 4.300000e-01    2.530000e+00
  SP6a  C1eh  1 5.140000e-01    1.110000e+00
  SP5a  C1eh  1 4.730000e-01    1.280000e+00
  SP4a  C1eh  1 4.730000e-01    1.280000e+00
  SP3a  C1eh  1 4.730000e-01    1.280000e+00
  SP2a  C1eh  1 4.430000e-01    1.480000e+00
  SP1a  C1eh  1 4.430000e-01    1.480000e+00
  SN6a  C1eh  1 4.300000e-01    1.730000e+00
  SN5a  C1eh  1 4.300000e-01    1.730000e+00
  SN4a  C1eh  1 4.300000e-01    1.730000e+00
  SN3a  C1eh  1 4.300000e-01    1.930000e+00
  SN2a  C1eh  1 4.300000e-01    1.930000e+00
  SN1a  C1eh  1 4.300000e-01    1.930000e+00
  SP6a  C2eh  1 4.730000e-01    1.280000e+00
  SP5a  C2eh  1 4.430000e-01    1.480000e+00
  SP4a  C2eh  1 4.430000e-01    1.480000e+00
  SP3a  C2eh  1 4.430000e-01    1.480000e+00
  SP2a  C2eh  1 4.300000e-01    1.730000e+00
  SP1a  C2eh  1 4.300000e-01    1.730000e+00
  SN6a  C2eh  1 4.300000e-01    1.930000e+00
  SN5a  C2eh  1 4.300000e-01    1.930000e+00
  SN4a  C2eh  1 4.300000e-01    1.930000e+00
  SN3a  C2eh  1 4.300000e-01    2.160000e+00
  SN2a  C2eh  1 4.300000e-01    2.160000e+00
  SN1a  C2eh  1 4.300000e-01    2.160000e+00
  SP6a  C3eh  1 4.730000e-01    1.280000e+00
  SP5a  C3eh  1 4.430000e-01    1.480000e+00
  SP4a  C3eh  1 4.430000e-01    1.480000e+00
  SP3a  C3eh  1 4.430000e-01    1.480000e+00
  SP2a  C3eh  1 4.300000e-01    1.730000e+00
  SP1a  C3eh  1 4.300000e-01    1.730000e+00
  SN6a  C3eh  1 4.300000e-01    1.930000e+00
  SN5a  C3eh  1 4.300000e-01    2.160000e+00
  SN4a  C3eh  1 4.300000e-01    2.160000e+00
  SN3a  C3eh  1 4.300000e-01    2.160000e+00
  SN2a  C3eh  1 4.300000e-01    2.320000e+00
  SN1a  C3eh  1 4.300000e-01    2.320000e+00
  SP6a  C4eh  1 4.430000e-01    1.480000e+00
  SP5a  C4eh  1 4.300000e-01    1.730000e+00
  SP4a  C4eh  1 4.300000e-01    1.730000e+00
  SP3a  C4eh  1 4.300000e-01    1.930000e+00
  SP2a  C4eh  1 4.300000e-01    1.930000e+00
  SP1a  C4eh  1 4.300000e-01    1.930000e+00
  SN6a  C4eh  1 4.300000e-01    2.160000e+00
  SN5a  C4eh  1 4.300000e-01    2.160000e+00
  SN4a  C4eh  1 4.300000e-01    2.320000e+00
  SN3a  C4eh  1 4.300000e-01    2.320000e+00
  SN2a  C4eh  1 4.300000e-01    2.320000e+00
  SN1a  C4eh  1 4.300000e-01    2.530000e+00
  SP6a  C5eh  1 4.300000e-01    1.730000e+00
  SP5a  C5eh  1 4.300000e-01    1.930000e+00
  SP4a  C5eh  1 4.300000e-01    1.930000e+00
  SP3a  C5eh  1 4.300000e-01    2.160000e+00
  SP2a  C5eh  1 4.300000e-01    2.160000e+00
  SP1a  C5eh  1 4.300000e-01    2.160000e+00
  SN6a  C5eh  1 4.300000e-01    2.320000e+00
  SN5a  C5eh  1 4.300000e-01    2.320000e+00
  SN4a  C5eh  1 4.300000e-01    2.320000e+00
  SN3a  C5eh  1 4.300000e-01    2.320000e+00
  SN2a  C5eh  1 4.300000e-01    2.320000e+00
  SN1a  C5eh  1 4.300000e-01    2.530000e+00
  SP6a  C6eh  1 4.300000e-01    1.930000e+00
  SP5a  C6eh  1 4.300000e-01    1.930000e+00
  SP4a  C6eh  1 4.300000e-01    2.160000e+00
  SP3a  C6eh  1 4.300000e-01    2.320000e+00
  SP2a  C6eh  1 4.300000e-01    2.320000e+00
  SP1a  C6eh  1 4.300000e-01    2.320000e+00
  SN6a  C6eh  1 4.300000e-01    2.530000e+00
  SN5a  C6eh  1 4.300000e-01    2.530000e+00
  SN4a  C6eh  1 4.300000e-01    2.530000e+00
  SN3a  C6eh  1 4.300000e-01    2.530000e+00
  SN2a  C6eh  1 4.300000e-01    2.530000e+00
  SN1a  C6eh  1 4.300000e-01    2.920000e+00
   P6a SX1er  1 4.300000e-01    1.730000e+00
   P5a SX1er  1 4.300000e-01    1.730000e+00
   P4a SX1er  1 4.300000e-01    1.930000e+00
   P3a SX1er  1 4.300000e-01    1.930000e+00
   P2a SX1er  1 4.300000e-01    1.930000e+00
   P1a SX1er  1 4.300000e-01    1.930000e+00
   N6a SX1er  1 4.300000e-01    1.930000e+00
   N5a SX1er  1 4.300000e-01    2.160000e+00
   N4a SX1er  1 4.300000e-01    2.160000e+00
   N3a SX1er  1 4.300000e-01    2.320000e+00
   N2a SX1er  1 4.300000e-01    2.320000e+00
   N1a SX1er  1 4.300000e-01    2.320000e+00
   P6a SX2er  1 4.300000e-01    1.930000e+00
   P5a SX2er  1 4.300000e-01    2.160000e+00
   P4a SX2er  1 4.300000e-01    2.160000e+00
   P3a SX2er  1 4.300000e-01    2.160000e+00
   P2a SX2er  1 4.300000e-01    2.160000e+00
   P1a SX2er  1 4.300000e-01    2.160000e+00
   N6a SX2er  1 4.300000e-01    2.160000e+00
   N5a SX2er  1 4.300000e-01    2.320000e+00
   N4a SX2er  1 4.300000e-01    2.320000e+00
   N3a SX2er  1 4.300000e-01    2.320000e+00
   N2a SX2er  1 4.300000e-01    2.320000e+00
   N1a SX2er  1 4.300000e-01    2.320000e+00
   P6a SX3er  1 4.300000e-01    2.160000e+00
   P5a SX3er  1 4.300000e-01    2.160000e+00
   P4a SX3er  1 4.300000e-01    2.160000e+00
   P3a SX3er  1 4.300000e-01    2.320000e+00
   P2a SX3er  1 4.300000e-01    2.320000e+00
   P1a SX3er  1 4.300000e-01    2.320000e+00
   N6a SX3er  1 4.300000e-01    2.320000e+00
   N5a SX3er  1 4.300000e-01    2.530000e+00
   N4a SX3er  1 4.300000e-01    2.920000e+00
   N3a SX3er  1 4.300000e-01    2.530000e+00
   N2a SX3er  1 4.300000e-01    2.530000e+00
   N1a SX3er  1 4.300000e-01    2.530000e+00
   P6a SX4er  1 4.300000e-01    2.160000e+00
   P5a SX4er  1 4.300000e-01    2.320000e+00
   P4a SX4er  1 4.300000e-01    2.320000e+00
   P3a SX4er  1 4.300000e-01    2.320000e+00
   P2a SX4er  1 4.300000e-01    2.320000e+00
   P1a SX4er  1 4.300000e-01    2.320000e+00
   N6a SX4er  1 4.300000e-01    2.530000e+00
   N5a SX4er  1 4.300000e-01    2.920000e+00
   N4a SX4er  1 4.300000e-01    2.930000e+00
   N3a SX4er  1 4.300000e-01    2.920000e+00
   N2a SX4er  1 4.300000e-01    2.920000e+00
   N1a SX4er  1 4.300000e-01    2.530000e+00
   P6a SC1er  1 5.140000e-01    1.110000e+00
   P5a SC1er  1 4.730000e-01    1.280000e+00
   P4a SC1er  1 4.730000e-01    1.280000e+00
   P3a SC1er  1 4.730000e-01    1.280000e+00
   P2a SC1er  1 4.430000e-01    1.480000e+00
   P1a SC1er  1 4.430000e-01    1.480000e+00
   N6a SC1er  1 4.300000e-01    1.730000e+00
   N5a SC1er  1 4.300000e-01    1.730000e+00
   N4a SC1er  1 4.300000e-01    1.730000e+00
   N3a SC1er  1 4.300000e-01    1.930000e+00
   N2a SC1er  1 4.300000e-01    1.930000e+00
   N1a SC1er  1 4.300000e-01    1.930000e+00
   P6a SC2er  1 4.730000e-01    1.280000e+00
   P5a SC2er  1 4.430000e-01    1.480000e+00
   P4a SC2er  1 4.430000e-01    1.480000e+00
   P3a SC2er  1 4.430000e-01    1.480000e+00
   P2a SC2er  1 4.300000e-01    1.730000e+00
   P1a SC2er  1 4.300000e-01    1.730000e+00
   N6a SC2er  1 4.300000e-01    1.930000e+00
   N5a SC2er  1 4.300000e-01    1.930000e+00
   N4a SC2er  1 4.300000e-01    1.930000e+00
   N3a SC2er  1 4.300000e-01    2.160000e+00
   N2a SC2er  1 4.300000e-01    2.160000e+00
   N1a SC2er  1 4.300000e-01    2.160000e+00
   P6a SC3er  1 4.730000e-01    1.280000e+00
   P5a SC3er  1 4.430000e-01    1.480000e+00
   P4a SC3er  1 4.430000e-01    1.480000e+00
   P3a SC3er  1 4.430000e-01    1.480000e+00
   P2a SC3er  1 4.300000e-01    1.730000e+00
   P1a SC3er  1 4.300000e-01    1.730000e+00
   N6a SC3er  1 4.300000e-01    1.930000e+00
   N5a SC3er  1 4.300000e-01    2.160000e+00
   N4a SC3er  1 4.300000e-01    2.160000e+00
   N3a SC3er  1 4.300000e-01    2.160000e+00
   N2a SC3er  1 4.300000e-01    2.320000e+00
   N1a SC3er  1 4.300000e-01    2.320000e+00
   P6a SC4er  1 4.430000e-01    1.480000e+00
   P5a SC4er  1 4.300000e-01    1.730000e+00
   P4a SC4er  1 4.300000e-01    1.730000e+00
   P3a SC4er  1 4.300000e-01    1.930000e+00
   P2a SC4er  1 4.300000e-01    1.930000e+00
   P1a SC4er  1 4.300000e-01    1.930000e+00
   N6a SC4er  1 4.300000e-01    2.160000e+00
   N5a SC4er  1 4.300000e-01    2.160000e+00
   N4a SC4er  1 4.300000e-01    2.320000e+00
   N3a SC4er  1 4.300000e-01    2.320000e+00
   N2a SC4er  1 4.300000e-01    2.320000e+00
   N1a SC4er  1 4.300000e-01    2.530000e+00
   P6a SC5er  1 4.300000e-01    1.730000e+00
   P5a SC5er  1 4.300000e-01    1.930000e+00
   P4a SC5er  1 4.300000e-01    1.930000e+00
   P3a SC5er  1 4.300000e-01    2.160000e+00
   P2a SC5er  1 4.300000e-01    2.160000e+00
   P1a SC5er  1 4.300000e-01    2.160000e+00
   N6a SC5er  1 4.300000e-01    2.320000e+00
   N5a SC5er  1 4.300000e-01    2.320000e+00
   N4a SC5er  1 4.300000e-01    2.320000e+00
   N3a SC5er  1 4.300000e-01    2.320000e+00
   N2a SC5er  1 4.300000e-01    2.320000e+00
   N1a SC5er  1 4.300000e-01    2.530000e+00
   P6a SC6er  1 4.300000e-01    1.930000e+00
   P5a SC6er  1 4.300000e-01    1.930000e+00
   P4a SC6er  1 4.300000e-01    2.160000e+00
   P3a SC6er  1 4.300000e-01    2.320000e+00
   P2a SC6er  1 4.300000e-01    2.320000e+00
   P1a SC6er  1 4.300000e-01    2.320000e+00
   N6a SC6er  1 4.300000e-01    2.530000e+00
   N5a SC6er  1 4.300000e-01    2.530000e+00
   N4a SC6er  1 4.300000e-01    2.530000e+00
   N3a SC6er  1 4.300000e-01    2.530000e+00
   N2a SC6er  1 4.300000e-01    2.530000e+00
   N1a SC6er  1 4.300000e-01    2.920000e+00
  SP6a  X1er  1 4.300000e-01    1.730000e+00
  SP5a  X1er  1 4.300000e-01    1.730000e+00
  SP4a  X1er  1 4.300000e-01    1.930000e+00
  SP3a  X1er  1 4.300000e-01    1.930000e+00
  SP2a  X1er  1 4.300000e-01    1.930000e+00
  SP1a  X1er  1 4.300000e-01    1.930000e+00
  SN6a  X1er  1 4.300000e-01    1.930000e+00
  SN5a  X1er  1 4.300000e-01    2.160000e+00
  SN4a  X1er  1 4.300000e-01    2.160000e+00
  SN3a  X1er  1 4.300000e-01    2.320000e+00
  SN2a  X1er  1 4.300000e-01    2.320000e+00
  SN1a  X1er  1 4.300000e-01    2.320000e+00
  SP6a  X2er  1 4.300000e-01    1.930000e+00
  SP5a  X2er  1 4.300000e-01    2.160000e+00
  SP4a  X2er  1 4.300000e-01    2.160000e+00
  SP3a  X2er  1 4.300000e-01    2.160000e+00
  SP2a  X2er  1 4.300000e-01    2.160000e+00
  SP1a  X2er  1 4.300000e-01    2.160000e+00
  SN6a  X2er  1 4.300000e-01    2.160000e+00
  SN5a  X2er  1 4.300000e-01    2.320000e+00
  SN4a  X2er  1 4.300000e-01    2.320000e+00
  SN3a  X2er  1 4.300000e-01    2.320000e+00
  SN2a  X2er  1 4.300000e-01    2.320000e+00
  SN1a  X2er  1 4.300000e-01    2.320000e+00
  SP6a  X3er  1 4.300000e-01    2.160000e+00
  SP5a  X3er  1 4.300000e-01    2.160000e+00
  SP4a  X3er  1 4.300000e-01    2.160000e+00
  SP3a  X3er  1 4.300000e-01    2.320000e+00
  SP2a  X3er  1 4.300000e-01    2.320000e+00
  SP1a  X3er  1 4.300000e-01    2.320000e+00
  SN6a  X3er  1 4.300000e-01    2.320000e+00
  SN5a  X3er  1 4.300000e-01    2.530000e+00
  SN4a  X3er  1 4.300000e-01    2.920000e+00
  SN3a  X3er  1 4.300000e-01    2.530000e+00
  SN2a  X3er  1 4.300000e-01    2.530000e+00
  SN1a  X3er  1 4.300000e-01    2.530000e+00
  SP6a  X4er  1 4.300000e-01    2.160000e+00
  SP5a  X4er  1 4.300000e-01    2.320000e+00
  SP4a  X4er  1 4.300000e-01    2.320000e+00
  SP3a  X4er  1 4.300000e-01    2.320000e+00
  SP2a  X4er  1 4.300000e-01    2.320000e+00
  SP1a  X4er  1 4.300000e-01    2.320000e+00
  SN6a  X4er  1 4.300000e-01    2.530000e+00
  SN5a  X4er  1 4.300000e-01    2.920000e+00
  SN4a  X4er  1 4.300000e-01    2.930000e+00
  SN3a  X4er  1 4.300000e-01    2.920000e+00
  SN2a  X4er  1 4.300000e-01    2.920000e+00
  SN1a  X4er  1 4.300000e-01    2.530000e+00
  SP6a  C1er  1 5.140000e-01    1.110000e+00
  SP5a  C1er  1 4.730000e-01    1.280000e+00
  SP4a  C1er  1 4.730000e-01    1.280000e+00
  SP3a  C1er  1 4.730000e-01    1.280000e+00
  SP2a  C1er  1 4.430000e-01    1.480000e+00
  SP1a  C1er  1 4.430000e-01    1.480000e+00
  SN6a  C1er  1 4.300000e-01    1.730000e+00
  SN5a  C1er  1 4.300000e-01    1.730000e+00
  SN4a  C1er  1 4.300000e-01    1.730000e+00
  SN3a  C1er  1 4.300000e-01    1.930000e+00
  SN2a  C1er  1 4.300000e-01    1.930000e+00
  SN1a  C1er  1 4.300000e-01    1.930000e+00
  SP6a  C2er  1 4.730000e-01    1.280000e+00
  SP5a  C2er  1 4.430000e-01    1.480000e+00
  SP4a  C2er  1 4.430000e-01    1.480000e+00
  SP3a  C2er  1 4.430000e-01    1.480000e+00
  SP2a  C2er  1 4.300000e-01    1.730000e+00
  SP1a  C2er  1 4.300000e-01    1.730000e+00
  SN6a  C2er  1 4.300000e-01    1.930000e+00
  SN5a  C2er  1 4.300000e-01    1.930000e+00
  SN4a  C2er  1 4.300000e-01    1.930000e+00
  SN3a  C2er  1 4.300000e-01    2.160000e+00
  SN2a  C2er  1 4.300000e-01    2.160000e+00
  SN1a  C2er  1 4.300000e-01    2.160000e+00
  SP6a  C3er  1 4.730000e-01    1.280000e+00
  SP5a  C3er  1 4.430000e-01    1.480000e+00
  SP4a  C3er  1 4.430000e-01    1.480000e+00
  SP3a  C3er  1 4.430000e-01    1.480000e+00
  SP2a  C3er  1 4.300000e-01    1.730000e+00
  SP1a  C3er  1 4.300000e-01    1.730000e+00
  SN6a  C3er  1 4.300000e-01    1.930000e+00
  SN5a  C3er  1 4.300000e-01    2.160000e+00
  SN4a  C3er  1 4.300000e-01    2.160000e+00
  SN3a  C3er  1 4.300000e-01    2.160000e+00
  SN2a  C3er  1 4.300000e-01    2.320000e+00
  SN1a  C3er  1 4.300000e-01    2.320000e+00
  SP6a  C4er  1 4.430000e-01    1.480000e+00
  SP5a  C4er  1 4.300000e-01    1.730000e+00
  SP4a  C4er  1 4.300000e-01    1.730000e+00
  SP3a  C4er  1 4.300000e-01    1.930000e+00
  SP2a  C4er  1 4.300000e-01    1.930000e+00
  SP1a  C4er  1 4.300000e-01    1.930000e+00
  SN6a  C4er  1 4.300000e-01    2.160000e+00
  SN5a  C4er  1 4.300000e-01    2.160000e+00
  SN4a  C4er  1 4.300000e-01    2.320000e+00
  SN3a  C4er  1 4.300000e-01    2.320000e+00
  SN2a  C4er  1 4.300000e-01    2.320000e+00
  SN1a  C4er  1 4.300000e-01    2.530000e+00
  SP6a  C5er  1 4.300000e-01    1.730000e+00
  SP5a  C5er  1 4.300000e-01    1.930000e+00
  SP4a  C5er  1 4.300000e-01    1.930000e+00
  SP3a  C5er  1 4.300000e-01    2.160000e+00
  SP2a  C5er  1 4.300000e-01    2.160000e+00
  SP1a  C5er  1 4.300000e-01    2.160000e+00
  SN6a  C5er  1 4.300000e-01    2.320000e+00
  SN5a  C5er  1 4.300000e-01    2.320000e+00
  SN4a  C5er  1 4.300000e-01    2.320000e+00
  SN3a  C5er  1 4.300000e-01    2.320000e+00
  SN2a  C5er  1 4.300000e-01    2.320000e+00
  SN1a  C5er  1 4.300000e-01    2.530000e+00
  SP6a  C6er  1 4.300000e-01    1.930000e+00
  SP5a  C6er  1 4.300000e-01    1.930000e+00
  SP4a  C6er  1 4.300000e-01    2.160000e+00
  SP3a  C6er  1 4.300000e-01    2.320000e+00
  SP2a  C6er  1 4.300000e-01    2.320000e+00
  SP1a  C6er  1 4.300000e-01    2.320000e+00
  SN6a  C6er  1 4.300000e-01    2.530000e+00
  SN5a  C6er  1 4.300000e-01    2.530000e+00
  SN4a  C6er  1 4.300000e-01    2.530000e+00
  SN3a  C6er  1 4.300000e-01    2.530000e+00
  SN2a  C6er  1 4.300000e-01    2.530000e+00
  SN1a  C6er  1 4.300000e-01    2.920000e+00
  P6aq  SC6e  1 4.300000e-01    2.320000e+00
  P6aq  SC5e  1 4.300000e-01    2.160000e+00
  P6aq  SC4e  1 4.300000e-01    1.930000e+00
  P6aq  SC3e  1 4.300000e-01    1.730000e+00
  P6aq  SC2e  1 4.300000e-01    1.730000e+00
  P6aq  SC1e  1 4.730000e-01    1.280000e+00
  P6aq  SX4e  1 4.300000e-01    2.530000e+00
  P6aq  SX3e  1 4.300000e-01    2.530000e+00
  P6aq  SX2e  1 4.300000e-01    2.320000e+00
  P6aq  SX1e  1 4.300000e-01    2.160000e+00
  P5aq  SC6e  1 4.300000e-01    2.320000e+00
  P5aq  SC5e  1 4.300000e-01    2.320000e+00
  P5aq  SC4e  1 4.300000e-01    2.160000e+00
  P5aq  SC3e  1 4.300000e-01    1.930000e+00
  P5aq  SC2e  1 4.300000e-01    1.930000e+00
  P5aq  SC1e  1 4.300000e-01    1.730000e+00
  P5aq  SX4e  1 4.300000e-01    2.920000e+00
  P5aq  SX3e  1 4.300000e-01    2.530000e+00
  P5aq  SX2e  1 4.300000e-01    2.530000e+00
  P5aq  SX1e  1 4.300000e-01    2.160000e+00
  P4aq  SC6e  1 4.300000e-01    2.530000e+00
  P4aq  SC5e  1 4.300000e-01    2.320000e+00
  P4aq  SC4e  1 4.300000e-01    2.160000e+00
  P4aq  SC3e  1 4.300000e-01    1.930000e+00
  P4aq  SC2e  1 4.300000e-01    1.930000e+00
  P4aq  SC1e  1 4.300000e-01    1.730000e+00
  P4aq  SX4e  1 4.300000e-01    2.920000e+00
  P4aq  SX3e  1 4.300000e-01    2.530000e+00
  P4aq  SX2e  1 4.300000e-01    2.530000e+00
  P4aq  SX1e  1 4.300000e-01    2.320000e+00
  P3aq  SC6e  1 4.300000e-01    2.920000e+00
  P3aq  SC5e  1 4.300000e-01    2.530000e+00
  P3aq  SC4e  1 4.300000e-01    2.320000e+00
  P3aq  SC3e  1 4.300000e-01    1.930000e+00
  P3aq  SC2e  1 4.300000e-01    1.930000e+00
  P3aq  SC1e  1 4.300000e-01    1.730000e+00
  P3aq  SX4e  1 4.300000e-01    2.920000e+00
  P3aq  SX3e  1 4.300000e-01    2.920000e+00
  P3aq  SX2e  1 4.300000e-01    2.530000e+00
  P3aq  SX1e  1 4.300000e-01    2.320000e+00
  P2aq  SC6e  1 4.300000e-01    2.920000e+00
  P2aq  SC5e  1 4.300000e-01    2.530000e+00
  P2aq  SC4e  1 4.300000e-01    2.320000e+00
  P2aq  SC3e  1 4.300000e-01    2.160000e+00
  P2aq  SC2e  1 4.300000e-01    2.160000e+00
  P2aq  SC1e  1 4.300000e-01    1.930000e+00
  P2aq  SX4e  1 4.300000e-01    2.920000e+00
  P2aq  SX3e  1 4.300000e-01    2.920000e+00
  P2aq  SX2e  1 4.300000e-01    2.530000e+00
  P2aq  SX1e  1 4.300000e-01    2.320000e+00
  P1aq  SC6e  1 4.300000e-01    2.920000e+00
  P1aq  SC5e  1 4.300000e-01    2.530000e+00
  P1aq  SC4e  1 4.300000e-01    2.320000e+00
  P1aq  SC3e  1 4.300000e-01    2.160000e+00
  P1aq  SC2e  1 4.300000e-01    2.160000e+00
  P1aq  SC1e  1 4.300000e-01    1.930000e+00
  P1aq  SX4e  1 4.300000e-01    2.920000e+00
  P1aq  SX3e  1 4.300000e-01    2.920000e+00
  P1aq  SX2e  1 4.300000e-01    2.530000e+00
  P1aq  SX1e  1 4.300000e-01    2.320000e+00
  N6aq  SC6e  1 4.300000e-01    2.930000e+00
  N6aq  SC5e  1 4.300000e-01    2.920000e+00
  N6aq  SC4e  1 4.300000e-01    2.530000e+00
  N6aq  SC3e  1 4.300000e-01    2.320000e+00
  N6aq  SC2e  1 4.300000e-01    2.320000e+00
  N6aq  SC1e  1 4.300000e-01    2.160000e+00
  N6aq  SX4e  1 4.300000e-01    2.930000e+00
  N6aq  SX3e  1 4.300000e-01    2.920000e+00
  N6aq  SX2e  1 4.300000e-01    2.530000e+00
  N6aq  SX1e  1 4.300000e-01    2.320000e+00
  N5aq  SC6e  1 4.300000e-01    2.930000e+00
  N5aq  SC5e  1 4.300000e-01    2.920000e+00
  N5aq  SC4e  1 4.300000e-01    2.530000e+00
  N5aq  SC3e  1 4.300000e-01    2.530000e+00
  N5aq  SC2e  1 4.300000e-01    2.320000e+00
  N5aq  SC1e  1 4.300000e-01    2.160000e+00
  N5aq  SX4e  1 4.300000e-01    3.160000e+00
  N5aq  SX3e  1 4.300000e-01    2.930000e+00
  N5aq  SX2e  1 4.300000e-01    2.920000e+00
  N5aq  SX1e  1 4.300000e-01    2.530000e+00
  N4aq  SC6e  1 4.300000e-01    2.930000e+00
  N4aq  SC5e  1 4.300000e-01    2.920000e+00
  N4aq  SC4e  1 4.300000e-01    2.920000e+00
  N4aq  SC3e  1 4.300000e-01    2.530000e+00
  N4aq  SC2e  1 4.300000e-01    2.320000e+00
  N4aq  SC1e  1 4.300000e-01    2.160000e+00
  N4aq  SX4e  1 4.300000e-01    3.380000e+00
  N4aq  SX3e  1 4.300000e-01    3.160000e+00
  N4aq  SX2e  1 4.300000e-01    2.920000e+00
  N4aq  SX1e  1 4.300000e-01    2.530000e+00
  N3aq  SC6e  1 4.300000e-01    2.930000e+00
  N3aq  SC5e  1 4.300000e-01    2.920000e+00
  N3aq  SC4e  1 4.300000e-01    2.920000e+00
  N3aq  SC3e  1 4.300000e-01    2.530000e+00
  N3aq  SC2e  1 4.300000e-01    2.530000e+00
  N3aq  SC1e  1 4.300000e-01    2.320000e+00
  N3aq  SX4e  1 4.300000e-01    3.160000e+00
  N3aq  SX3e  1 4.300000e-01    2.930000e+00
  N3aq  SX2e  1 4.300000e-01    2.920000e+00
  N3aq  SX1e  1 4.300000e-01    2.920000e+00
  N2aq  SC6e  1 4.300000e-01    2.930000e+00
  N2aq  SC5e  1 4.300000e-01    2.920000e+00
  N2aq  SC4e  1 4.300000e-01    2.920000e+00
  N2aq  SC3e  1 4.300000e-01    2.920000e+00
  N2aq  SC2e  1 4.300000e-01    2.530000e+00
  N2aq  SC1e  1 4.300000e-01    2.320000e+00
  N2aq  SX4e  1 4.300000e-01    3.160000e+00
  N2aq  SX3e  1 4.300000e-01    2.930000e+00
  N2aq  SX2e  1 4.300000e-01    2.920000e+00
  N2aq  SX1e  1 4.300000e-01    2.920000e+00
  N1aq  SC6e  1 4.300000e-01    3.160000e+00
  N1aq  SC5e  1 4.300000e-01    2.930000e+00
  N1aq  SC4e  1 4.300000e-01    2.930000e+00
  N1aq  SC3e  1 4.300000e-01    2.920000e+00
  N1aq  SC2e  1 4.300000e-01    2.530000e+00
  N1aq  SC1e  1 4.300000e-01    2.320000e+00
  N1aq  SX4e  1 4.300000e-01    2.930000e+00
  N1aq  SX3e  1 4.300000e-01    2.930000e+00
  N1aq  SX2e  1 4.300000e-01    2.920000e+00
  N1aq  SX1e  1 4.300000e-01    2.920000e+00
 SP6aq   C6e  1 4.300000e-01    2.320000e+00
 SP6aq   C5e  1 4.300000e-01    2.160000e+00
 SP6aq   C4e  1 4.300000e-01    1.930000e+00
 SP6aq   C3e  1 4.300000e-01    1.730000e+00
 SP6aq   C2e  1 4.300000e-01    1.730000e+00
 SP6aq   C1e  1 4.730000e-01    1.280000e+00
 SP6aq   X4e  1 4.300000e-01    2.530000e+00
 SP6aq   X3e  1 4.300000e-01    2.530000e+00
 SP6aq   X2e  1 4.300000e-01    2.320000e+00
 SP6aq   X1e  1 4.300000e-01    2.160000e+00
 SP5aq   C6e  1 4.300000e-01    2.320000e+00
 SP5aq   C5e  1 4.300000e-01    2.320000e+00
 SP5aq   C4e  1 4.300000e-01    2.160000e+00
 SP5aq   C3e  1 4.300000e-01    1.930000e+00
 SP5aq   C2e  1 4.300000e-01    1.930000e+00
 SP5aq   C1e  1 4.300000e-01    1.730000e+00
 SP5aq   X4e  1 4.300000e-01    2.920000e+00
 SP5aq   X3e  1 4.300000e-01    2.530000e+00
 SP5aq   X2e  1 4.300000e-01    2.530000e+00
 SP5aq   X1e  1 4.300000e-01    2.160000e+00
 SP4aq   C6e  1 4.300000e-01    2.530000e+00
 SP4aq   C5e  1 4.300000e-01    2.320000e+00
 SP4aq   C4e  1 4.300000e-01    2.160000e+00
 SP4aq   C3e  1 4.300000e-01    1.930000e+00
 SP4aq   C2e  1 4.300000e-01    1.930000e+00
 SP4aq   C1e  1 4.300000e-01    1.730000e+00
 SP4aq   X4e  1 4.300000e-01    2.920000e+00
 SP4aq   X3e  1 4.300000e-01    2.530000e+00
 SP4aq   X2e  1 4.300000e-01    2.530000e+00
 SP4aq   X1e  1 4.300000e-01    2.320000e+00
 SP3aq   C6e  1 4.300000e-01    2.920000e+00
 SP3aq   C5e  1 4.300000e-01    2.530000e+00
 SP3aq   C4e  1 4.300000e-01    2.320000e+00
 SP3aq   C3e  1 4.300000e-01    1.930000e+00
 SP3aq   C2e  1 4.300000e-01    1.930000e+00
 SP3aq   C1e  1 4.300000e-01    1.730000e+00
 SP3aq   X4e  1 4.300000e-01    2.920000e+00
 SP3aq   X3e  1 4.300000e-01    2.920000e+00
 SP3aq   X2e  1 4.300000e-01    2.530000e+00
 SP3aq   X1e  1 4.300000e-01    2.320000e+00
 SP2aq   C6e  1 4.300000e-01    2.920000e+00
 SP2aq   C5e  1 4.300000e-01    2.530000e+00
 SP2aq   C4e  1 4.300000e-01    2.320000e+00
 SP2aq   C3e  1 4.300000e-01    2.160000e+00
 SP2aq   C2e  1 4.300000e-01    2.160000e+00
 SP2aq   C1e  1 4.300000e-01    1.930000e+00
 SP2aq   X4e  1 4.300000e-01    2.920000e+00
 SP2aq   X3e  1 4.300000e-01    2.920000e+00
 SP2aq   X2e  1 4.300000e-01    2.530000e+00
 SP2aq   X1e  1 4.300000e-01    2.320000e+00
 SP1aq   C6e  1 4.300000e-01    2.920000e+00
 SP1aq   C5e  1 4.300000e-01    2.530000e+00
 SP1aq   C4e  1 4.300000e-01    2.320000e+00
 SP1aq   C3e  1 4.300000e-01    2.160000e+00
 SP1aq   C2e  1 4.300000e-01    2.160000e+00
 SP1aq   C1e  1 4.300000e-01    1.930000e+00
 SP1aq   X4e  1 4.300000e-01    2.920000e+00
 SP1aq   X3e  1 4.300000e-01    2.920000e+00
 SP1aq   X2e  1 4.300000e-01    2.530000e+00
 SP1aq   X1e  1 4.300000e-01    2.320000e+00
 SN6aq   C6e  1 4.300000e-01    2.930000e+00
 SN6aq   C5e  1 4.300000e-01    2.920000e+00
 SN6aq   C4e  1 4.300000e-01    2.530000e+00
 SN6aq   C3e  1 4.300000e-01    2.320000e+00
 SN6aq   C2e  1 4.300000e-01    2.320000e+00
 SN6aq   C1e  1 4.300000e-01    2.160000e+00
 SN6aq   X4e  1 4.300000e-01    2.930000e+00
 SN6aq   X3e  1 4.300000e-01    2.920000e+00
 SN6aq   X2e  1 4.300000e-01    2.530000e+00
 SN6aq   X1e  1 4.300000e-01    2.320000e+00
 SN5aq   C6e  1 4.300000e-01    2.930000e+00
 SN5aq   C5e  1 4.300000e-01    2.920000e+00
 SN5aq   C4e  1 4.300000e-01    2.530000e+00
 SN5aq   C3e  1 4.300000e-01    2.530000e+00
 SN5aq   C2e  1 4.300000e-01    2.320000e+00
 SN5aq   C1e  1 4.300000e-01    2.160000e+00
 SN5aq   X4e  1 4.300000e-01    3.160000e+00
 SN5aq   X3e  1 4.300000e-01    2.930000e+00
 SN5aq   X2e  1 4.300000e-01    2.920000e+00
 SN5aq   X1e  1 4.300000e-01    2.530000e+00
 SN4aq   C6e  1 4.300000e-01    2.930000e+00
 SN4aq   C5e  1 4.300000e-01    2.920000e+00
 SN4aq   C4e  1 4.300000e-01    2.920000e+00
 SN4aq   C3e  1 4.300000e-01    2.530000e+00
 SN4aq   C2e  1 4.300000e-01    2.320000e+00
 SN4aq   C1e  1 4.300000e-01    2.160000e+00
 SN4aq   X4e  1 4.300000e-01    3.380000e+00
 SN4aq   X3e  1 4.300000e-01    3.160000e+00
 SN4aq   X2e  1 4.300000e-01    2.920000e+00
 SN4aq   X1e  1 4.300000e-01    2.530000e+00
 SN3aq   C6e  1 4.300000e-01    2.930000e+00
 SN3aq   C5e  1 4.300000e-01    2.920000e+00
 SN3aq   C4e  1 4.300000e-01    2.920000e+00
 SN3aq   C3e  1 4.300000e-01    2.530000e+00
 SN3aq   C2e  1 4.300000e-01    2.530000e+00
 SN3aq   C1e  1 4.300000e-01    2.320000e+00
 SN3aq   X4e  1 4.300000e-01    3.160000e+00
 SN3aq   X3e  1 4.300000e-01    2.930000e+00
 SN3aq   X2e  1 4.300000e-01    2.920000e+00
 SN3aq   X1e  1 4.300000e-01    2.920000e+00
 SN2aq   C6e  1 4.300000e-01    2.930000e+00
 SN2aq   C5e  1 4.300000e-01    2.920000e+00
 SN2aq   C4e  1 4.300000e-01    2.920000e+00
 SN2aq   C3e  1 4.300000e-01    2.920000e+00
 SN2aq   C2e  1 4.300000e-01    2.530000e+00
 SN2aq   C1e  1 4.300000e-01    2.320000e+00
 SN2aq   X4e  1 4.300000e-01    3.160000e+00
 SN2aq   X3e  1 4.300000e-01    2.930000e+00
 SN2aq   X2e  1 4.300000e-01    2.920000e+00
 SN2aq   X1e  1 4.300000e-01    2.920000e+00
 SN1aq   C6e  1 4.300000e-01    3.160000e+00
 SN1aq   C5e  1 4.300000e-01    2.930000e+00
 SN1aq   C4e  1 4.300000e-01    2.930000e+00
 SN1aq   C3e  1 4.300000e-01    2.920000e+00
 SN1aq   C2e  1 4.300000e-01    2.530000e+00
 SN1aq   C1e  1 4.300000e-01    2.320000e+00
 SN1aq   X4e  1 4.300000e-01    2.930000e+00
 SN1aq   X3e  1 4.300000e-01    2.930000e+00
 SN1aq   X2e  1 4.300000e-01    2.920000e+00
 SN1aq   X1e  1 4.300000e-01    2.920000e+00
  P6aq SC6eq  1 4.300000e-01    2.320000e+00
  P6aq SC5eq  1 4.300000e-01    2.160000e+00
  P6aq SC4eq  1 4.300000e-01    1.930000e+00
  P6aq SC3eq  1 4.300000e-01    1.730000e+00
  P6aq SC2eq  1 4.300000e-01    1.730000e+00
  P6aq SC1eq  1 4.730000e-01    1.280000e+00
  P6aq SX4eq  1 4.300000e-01    2.530000e+00
  P6aq SX3eq  1 4.300000e-01    2.530000e+00
  P6aq SX2eq  1 4.300000e-01    2.320000e+00
  P6aq SX1eq  1 4.300000e-01    2.160000e+00
  P5aq SC6eq  1 4.300000e-01    2.320000e+00
  P5aq SC5eq  1 4.300000e-01    2.320000e+00
  P5aq SC4eq  1 4.300000e-01    2.160000e+00
  P5aq SC3eq  1 4.300000e-01    1.930000e+00
  P5aq SC2eq  1 4.300000e-01    1.930000e+00
  P5aq SC1eq  1 4.300000e-01    1.730000e+00
  P5aq SX4eq  1 4.300000e-01    2.920000e+00
  P5aq SX3eq  1 4.300000e-01    2.530000e+00
  P5aq SX2eq  1 4.300000e-01    2.530000e+00
  P5aq SX1eq  1 4.300000e-01    2.160000e+00
  P4aq SC6eq  1 4.300000e-01    2.530000e+00
  P4aq SC5eq  1 4.300000e-01    2.320000e+00
  P4aq SC4eq  1 4.300000e-01    2.160000e+00
  P4aq SC3eq  1 4.300000e-01    1.930000e+00
  P4aq SC2eq  1 4.300000e-01    1.930000e+00
  P4aq SC1eq  1 4.300000e-01    1.730000e+00
  P4aq SX4eq  1 4.300000e-01    2.920000e+00
  P4aq SX3eq  1 4.300000e-01    2.530000e+00
  P4aq SX2eq  1 4.300000e-01    2.530000e+00
  P4aq SX1eq  1 4.300000e-01    2.320000e+00
  P3aq SC6eq  1 4.300000e-01    2.920000e+00
  P3aq SC5eq  1 4.300000e-01    2.530000e+00
  P3aq SC4eq  1 4.300000e-01    2.320000e+00
  P3aq SC3eq  1 4.300000e-01    1.930000e+00
  P3aq SC2eq  1 4.300000e-01    1.930000e+00
  P3aq SC1eq  1 4.300000e-01    1.730000e+00
  P3aq SX4eq  1 4.300000e-01    2.920000e+00
  P3aq SX3eq  1 4.300000e-01    2.920000e+00
  P3aq SX2eq  1 4.300000e-01    2.530000e+00
  P3aq SX1eq  1 4.300000e-01    2.320000e+00
  P2aq SC6eq  1 4.300000e-01    2.920000e+00
  P2aq SC5eq  1 4.300000e-01    2.530000e+00
  P2aq SC4eq  1 4.300000e-01    2.320000e+00
  P2aq SC3eq  1 4.300000e-01    2.160000e+00
  P2aq SC2eq  1 4.300000e-01    2.160000e+00
  P2aq SC1eq  1 4.300000e-01    1.930000e+00
  P2aq SX4eq  1 4.300000e-01    2.920000e+00
  P2aq SX3eq  1 4.300000e-01    2.920000e+00
  P2aq SX2eq  1 4.300000e-01    2.530000e+00
  P2aq SX1eq  1 4.300000e-01    2.320000e+00
  P1aq SC6eq  1 4.300000e-01    2.920000e+00
  P1aq SC5eq  1 4.300000e-01    2.530000e+00
  P1aq SC4eq  1 4.300000e-01    2.320000e+00
  P1aq SC3eq  1 4.300000e-01    2.160000e+00
  P1aq SC2eq  1 4.300000e-01    2.160000e+00
  P1aq SC1eq  1 4.300000e-01    1.930000e+00
  P1aq SX4eq  1 4.300000e-01    2.920000e+00
  P1aq SX3eq  1 4.300000e-01    2.920000e+00
  P1aq SX2eq  1 4.300000e-01    2.530000e+00
  P1aq SX1eq  1 4.300000e-01    2.320000e+00
  N6aq SC6eq  1 4.300000e-01    2.930000e+00
  N6aq SC5eq  1 4.300000e-01    2.920000e+00
  N6aq SC4eq  1 4.300000e-01    2.530000e+00
  N6aq SC3eq  1 4.300000e-01    2.320000e+00
  N6aq SC2eq  1 4.300000e-01    2.320000e+00
  N6aq SC1eq  1 4.300000e-01    2.160000e+00
  N6aq SX4eq  1 4.300000e-01    2.930000e+00
  N6aq SX3eq  1 4.300000e-01    2.920000e+00
  N6aq SX2eq  1 4.300000e-01    2.530000e+00
  N6aq SX1eq  1 4.300000e-01    2.320000e+00
  N5aq SC6eq  1 4.300000e-01    2.930000e+00
  N5aq SC5eq  1 4.300000e-01    2.920000e+00
  N5aq SC4eq  1 4.300000e-01    2.530000e+00
  N5aq SC3eq  1 4.300000e-01    2.530000e+00
  N5aq SC2eq  1 4.300000e-01    2.320000e+00
  N5aq SC1eq  1 4.300000e-01    2.160000e+00
  N5aq SX4eq  1 4.300000e-01    3.160000e+00
  N5aq SX3eq  1 4.300000e-01    2.930000e+00
  N5aq SX2eq  1 4.300000e-01    2.920000e+00
  N5aq SX1eq  1 4.300000e-01    2.530000e+00
  N4aq SC6eq  1 4.300000e-01    2.930000e+00
  N4aq SC5eq  1 4.300000e-01    2.920000e+00
  N4aq SC4eq  1 4.300000e-01    2.920000e+00
  N4aq SC3eq  1 4.300000e-01    2.530000e+00
  N4aq SC2eq  1 4.300000e-01    2.320000e+00
  N4aq SC1eq  1 4.300000e-01    2.160000e+00
  N4aq SX4eq  1 4.300000e-01    3.380000e+00
  N4aq SX3eq  1 4.300000e-01    3.160000e+00
  N4aq SX2eq  1 4.300000e-01    2.920000e+00
  N4aq SX1eq  1 4.300000e-01    2.530000e+00
  N3aq SC6eq  1 4.300000e-01    2.930000e+00
  N3aq SC5eq  1 4.300000e-01    2.920000e+00
  N3aq SC4eq  1 4.300000e-01    2.920000e+00
  N3aq SC3eq  1 4.300000e-01    2.530000e+00
  N3aq SC2eq  1 4.300000e-01    2.530000e+00
  N3aq SC1eq  1 4.300000e-01    2.320000e+00
  N3aq SX4eq  1 4.300000e-01    3.160000e+00
  N3aq SX3eq  1 4.300000e-01    2.930000e+00
  N3aq SX2eq  1 4.300000e-01    2.920000e+00
  N3aq SX1eq  1 4.300000e-01    2.920000e+00
  N2aq SC6eq  1 4.300000e-01    2.930000e+00
  N2aq SC5eq  1 4.300000e-01    2.920000e+00
  N2aq SC4eq  1 4.300000e-01    2.920000e+00
  N2aq SC3eq  1 4.300000e-01    2.920000e+00
  N2aq SC2eq  1 4.300000e-01    2.530000e+00
  N2aq SC1eq  1 4.300000e-01    2.320000e+00
  N2aq SX4eq  1 4.300000e-01    3.160000e+00
  N2aq SX3eq  1 4.300000e-01    2.930000e+00
  N2aq SX2eq  1 4.300000e-01    2.920000e+00
  N2aq SX1eq  1 4.300000e-01    2.920000e+00
  N1aq SC6eq  1 4.300000e-01    3.160000e+00
  N1aq SC5eq  1 4.300000e-01    2.930000e+00
  N1aq SC4eq  1 4.300000e-01    2.930000e+00
  N1aq SC3eq  1 4.300000e-01    2.920000e+00
  N1aq SC2eq  1 4.300000e-01    2.530000e+00
  N1aq SC1eq  1 4.300000e-01    2.320000e+00
  N1aq SX4eq  1 4.300000e-01    2.930000e+00
  N1aq SX3eq  1 4.300000e-01    2.930000e+00
  N1aq SX2eq  1 4.300000e-01    2.920000e+00
  N1aq SX1eq  1 4.300000e-01    2.920000e+00
 SP6aq  C6eq  1 4.300000e-01    2.320000e+00
 SP6aq  C5eq  1 4.300000e-01    2.160000e+00
 SP6aq  C4eq  1 4.300000e-01    1.930000e+00
 SP6aq  C3eq  1 4.300000e-01    1.730000e+00
 SP6aq  C2eq  1 4.300000e-01    1.730000e+00
 SP6aq  C1eq  1 4.730000e-01    1.280000e+00
 SP6aq  X4eq  1 4.300000e-01    2.530000e+00
 SP6aq  X3eq  1 4.300000e-01    2.530000e+00
 SP6aq  X2eq  1 4.300000e-01    2.320000e+00
 SP6aq  X1eq  1 4.300000e-01    2.160000e+00
 SP5aq  C6eq  1 4.300000e-01    2.320000e+00
 SP5aq  C5eq  1 4.300000e-01    2.320000e+00
 SP5aq  C4eq  1 4.300000e-01    2.160000e+00
 SP5aq  C3eq  1 4.300000e-01    1.930000e+00
 SP5aq  C2eq  1 4.300000e-01    1.930000e+00
 SP5aq  C1eq  1 4.300000e-01    1.730000e+00
 SP5aq  X4eq  1 4.300000e-01    2.920000e+00
 SP5aq  X3eq  1 4.300000e-01    2.530000e+00
 SP5aq  X2eq  1 4.300000e-01    2.530000e+00
 SP5aq  X1eq  1 4.300000e-01    2.160000e+00
 SP4aq  C6eq  1 4.300000e-01    2.530000e+00
 SP4aq  C5eq  1 4.300000e-01    2.320000e+00
 SP4aq  C4eq  1 4.300000e-01    2.160000e+00
 SP4aq  C3eq  1 4.300000e-01    1.930000e+00
 SP4aq  C2eq  1 4.300000e-01    1.930000e+00
 SP4aq  C1eq  1 4.300000e-01    1.730000e+00
 SP4aq  X4eq  1 4.300000e-01    2.920000e+00
 SP4aq  X3eq  1 4.300000e-01    2.530000e+00
 SP4aq  X2eq  1 4.300000e-01    2.530000e+00
 SP4aq  X1eq  1 4.300000e-01    2.320000e+00
 SP3aq  C6eq  1 4.300000e-01    2.920000e+00
 SP3aq  C5eq  1 4.300000e-01    2.530000e+00
 SP3aq  C4eq  1 4.300000e-01    2.320000e+00
 SP3aq  C3eq  1 4.300000e-01    1.930000e+00
 SP3aq  C2eq  1 4.300000e-01    1.930000e+00
 SP3aq  C1eq  1 4.300000e-01    1.730000e+00
 SP3aq  X4eq  1 4.300000e-01    2.920000e+00
 SP3aq  X3eq  1 4.300000e-01    2.920000e+00
 SP3aq  X2eq  1 4.300000e-01    2.530000e+00
 SP3aq  X1eq  1 4.300000e-01    2.320000e+00
 SP2aq  C6eq  1 4.300000e-01    2.920000e+00
 SP2aq  C5eq  1 4.300000e-01    2.530000e+00
 SP2aq  C4eq  1 4.300000e-01    2.320000e+00
 SP2aq  C3eq  1 4.300000e-01    2.160000e+00
 SP2aq  C2eq  1 4.300000e-01    2.160000e+00
 SP2aq  C1eq  1 4.300000e-01    1.930000e+00
 SP2aq  X4eq  1 4.300000e-01    2.920000e+00
 SP2aq  X3eq  1 4.300000e-01    2.920000e+00
 SP2aq  X2eq  1 4.300000e-01    2.530000e+00
 SP2aq  X1eq  1 4.300000e-01    2.320000e+00
 SP1aq  C6eq  1 4.300000e-01    2.920000e+00
 SP1aq  C5eq  1 4.300000e-01    2.530000e+00
 SP1aq  C4eq  1 4.300000e-01    2.320000e+00
 SP1aq  C3eq  1 4.300000e-01    2.160000e+00
 SP1aq  C2eq  1 4.300000e-01    2.160000e+00
 SP1aq  C1eq  1 4.300000e-01    1.930000e+00
 SP1aq  X4eq  1 4.300000e-01    2.920000e+00
 SP1aq  X3eq  1 4.300000e-01    2.920000e+00
 SP1aq  X2eq  1 4.300000e-01    2.530000e+00
 SP1aq  X1eq  1 4.300000e-01    2.320000e+00
 SN6aq  C6eq  1 4.300000e-01    2.930000e+00
 SN6aq  C5eq  1 4.300000e-01    2.920000e+00
 SN6aq  C4eq  1 4.300000e-01    2.530000e+00
 SN6aq  C3eq  1 4.300000e-01    2.320000e+00
 SN6aq  C2eq  1 4.300000e-01    2.320000e+00
 SN6aq  C1eq  1 4.300000e-01    2.160000e+00
 SN6aq  X4eq  1 4.300000e-01    2.930000e+00
 SN6aq  X3eq  1 4.300000e-01    2.920000e+00
 SN6aq  X2eq  1 4.300000e-01    2.530000e+00
 SN6aq  X1eq  1 4.300000e-01    2.320000e+00
 SN5aq  C6eq  1 4.300000e-01    2.930000e+00
 SN5aq  C5eq  1 4.300000e-01    2.920000e+00
 SN5aq  C4eq  1 4.300000e-01    2.530000e+00
 SN5aq  C3eq  1 4.300000e-01    2.530000e+00
 SN5aq  C2eq  1 4.300000e-01    2.320000e+00
 SN5aq  C1eq  1 4.300000e-01    2.160000e+00
 SN5aq  X4eq  1 4.300000e-01    3.160000e+00
 SN5aq  X3eq  1 4.300000e-01    2.930000e+00
 SN5aq  X2eq  1 4.300000e-01    2.920000e+00
 SN5aq  X1eq  1 4.300000e-01    2.530000e+00
 SN4aq  C6eq  1 4.300000e-01    2.930000e+00
 SN4aq  C5eq  1 4.300000e-01    2.920000e+00
 SN4aq  C4eq  1 4.300000e-01    2.920000e+00
 SN4aq  C3eq  1 4.300000e-01    2.530000e+00
 SN4aq  C2eq  1 4.300000e-01    2.320000e+00
 SN4aq  C1eq  1 4.300000e-01    2.160000e+00
 SN4aq  X4eq  1 4.300000e-01    3.380000e+00
 SN4aq  X3eq  1 4.300000e-01    3.160000e+00
 SN4aq  X2eq  1 4.300000e-01    2.920000e+00
 SN4aq  X1eq  1 4.300000e-01    2.530000e+00
 SN3aq  C6eq  1 4.300000e-01    2.930000e+00
 SN3aq  C5eq  1 4.300000e-01    2.920000e+00
 SN3aq  C4eq  1 4.300000e-01    2.920000e+00
 SN3aq  C3eq  1 4.300000e-01    2.530000e+00
 SN3aq  C2eq  1 4.300000e-01    2.530000e+00
 SN3aq  C1eq  1 4.300000e-01    2.320000e+00
 SN3aq  X4eq  1 4.300000e-01    3.160000e+00
 SN3aq  X3eq  1 4.300000e-01    2.930000e+00
 SN3aq  X2eq  1 4.300000e-01    2.920000e+00
 SN3aq  X1eq  1 4.300000e-01    2.920000e+00
 SN2aq  C6eq  1 4.300000e-01    2.930000e+00
 SN2aq  C5eq  1 4.300000e-01    2.920000e+00
 SN2aq  C4eq  1 4.300000e-01    2.920000e+00
 SN2aq  C3eq  1 4.300000e-01    2.920000e+00
 SN2aq  C2eq  1 4.300000e-01    2.530000e+00
 SN2aq  C1eq  1 4.300000e-01    2.320000e+00
 SN2aq  X4eq  1 4.300000e-01    3.160000e+00
 SN2aq  X3eq  1 4.300000e-01    2.930000e+00
 SN2aq  X2eq  1 4.300000e-01    2.920000e+00
 SN2aq  X1eq  1 4.300000e-01    2.920000e+00
 SN1aq  C6eq  1 4.300000e-01    3.160000e+00
 SN1aq  C5eq  1 4.300000e-01    2.930000e+00
 SN1aq  C4eq  1 4.300000e-01    2.930000e+00
 SN1aq  C3eq  1 4.300000e-01    2.920000e+00
 SN1aq  C2eq  1 4.300000e-01    2.530000e+00
 SN1aq  C1eq  1 4.300000e-01    2.320000e+00
 SN1aq  X4eq  1 4.300000e-01    2.930000e+00
 SN1aq  X3eq  1 4.300000e-01    2.930000e+00
 SN1aq  X2eq  1 4.300000e-01    2.920000e+00
 SN1aq  X1eq  1 4.300000e-01    2.920000e+00
  P6aq SC6eh  1 4.300000e-01    2.320000e+00
  P5aq SC6eh  1 4.300000e-01    2.320000e+00
  P4aq SC6eh  1 4.300000e-01    2.530000e+00
  P3aq SC6eh  1 4.300000e-01    2.920000e+00
  P2aq SC6eh  1 4.300000e-01    2.920000e+00
  P1aq SC6eh  1 4.300000e-01    2.920000e+00
  N6aq SC6eh  1 4.300000e-01    2.930000e+00
  N5aq SC6eh  1 4.300000e-01    2.930000e+00
  N4aq SC6eh  1 4.300000e-01    2.930000e+00
  N3aq SC6eh  1 4.300000e-01    2.930000e+00
  N2aq SC6eh  1 4.300000e-01    2.930000e+00
  N1aq SC6eh  1 4.300000e-01    3.160000e+00
  P6aq SC5eh  1 4.300000e-01    2.160000e+00
  P5aq SC5eh  1 4.300000e-01    2.320000e+00
  P4aq SC5eh  1 4.300000e-01    2.320000e+00
  P3aq SC5eh  1 4.300000e-01    2.530000e+00
  P2aq SC5eh  1 4.300000e-01    2.530000e+00
  P1aq SC5eh  1 4.300000e-01    2.530000e+00
  N6aq SC5eh  1 4.300000e-01    2.920000e+00
  N5aq SC5eh  1 4.300000e-01    2.920000e+00
  N4aq SC5eh  1 4.300000e-01    2.920000e+00
  N3aq SC5eh  1 4.300000e-01    2.920000e+00
  N2aq SC5eh  1 4.300000e-01    2.920000e+00
  N1aq SC5eh  1 4.300000e-01    2.930000e+00
  P6aq SC4eh  1 4.300000e-01    1.930000e+00
  P5aq SC4eh  1 4.300000e-01    2.160000e+00
  P4aq SC4eh  1 4.300000e-01    2.160000e+00
  P3aq SC4eh  1 4.300000e-01    2.320000e+00
  P2aq SC4eh  1 4.300000e-01    2.320000e+00
  P1aq SC4eh  1 4.300000e-01    2.320000e+00
  N6aq SC4eh  1 4.300000e-01    2.530000e+00
  N5aq SC4eh  1 4.300000e-01    2.530000e+00
  N4aq SC4eh  1 4.300000e-01    2.920000e+00
  N3aq SC4eh  1 4.300000e-01    2.920000e+00
  N2aq SC4eh  1 4.300000e-01    2.920000e+00
  N1aq SC4eh  1 4.300000e-01    2.930000e+00
  P6aq SC3eh  1 4.300000e-01    1.730000e+00
  P5aq SC3eh  1 4.300000e-01    1.930000e+00
  P4aq SC3eh  1 4.300000e-01    1.930000e+00
  P3aq SC3eh  1 4.300000e-01    1.930000e+00
  P2aq SC3eh  1 4.300000e-01    2.160000e+00
  P1aq SC3eh  1 4.300000e-01    2.160000e+00
  N6aq SC3eh  1 4.300000e-01    2.320000e+00
  N5aq SC3eh  1 4.300000e-01    2.530000e+00
  N4aq SC3eh  1 4.300000e-01    2.530000e+00
  N3aq SC3eh  1 4.300000e-01    2.530000e+00
  N2aq SC3eh  1 4.300000e-01    2.920000e+00
  N1aq SC3eh  1 4.300000e-01    2.920000e+00
  P6aq SC2eh  1 4.300000e-01    1.730000e+00
  P5aq SC2eh  1 4.300000e-01    1.930000e+00
  P4aq SC2eh  1 4.300000e-01    1.930000e+00
  P3aq SC2eh  1 4.300000e-01    1.930000e+00
  P2aq SC2eh  1 4.300000e-01    2.160000e+00
  P1aq SC2eh  1 4.300000e-01    2.160000e+00
  N6aq SC2eh  1 4.300000e-01    2.320000e+00
  N5aq SC2eh  1 4.300000e-01    2.320000e+00
  N4aq SC2eh  1 4.300000e-01    2.320000e+00
  N3aq SC2eh  1 4.300000e-01    2.530000e+00
  N2aq SC2eh  1 4.300000e-01    2.530000e+00
  N1aq SC2eh  1 4.300000e-01    2.530000e+00
  P6aq SC1eh  1 4.730000e-01    1.280000e+00
  P5aq SC1eh  1 4.300000e-01    1.730000e+00
  P4aq SC1eh  1 4.300000e-01    1.730000e+00
  P3aq SC1eh  1 4.300000e-01    1.730000e+00
  P2aq SC1eh  1 4.300000e-01    1.930000e+00
  P1aq SC1eh  1 4.300000e-01    1.930000e+00
  N6aq SC1eh  1 4.300000e-01    2.160000e+00
  N5aq SC1eh  1 4.300000e-01    2.160000e+00
  N4aq SC1eh  1 4.300000e-01    2.160000e+00
  N3aq SC1eh  1 4.300000e-01    2.320000e+00
  N2aq SC1eh  1 4.300000e-01    2.320000e+00
  N1aq SC1eh  1 4.300000e-01    2.320000e+00
  P6aq SX4eh  1 4.300000e-01    2.530000e+00
  P5aq SX4eh  1 4.300000e-01    2.920000e+00
  P4aq SX4eh  1 4.300000e-01    2.920000e+00
  P3aq SX4eh  1 4.300000e-01    2.920000e+00
  P2aq SX4eh  1 4.300000e-01    2.920000e+00
  P1aq SX4eh  1 4.300000e-01    2.920000e+00
  N6aq SX4eh  1 4.300000e-01    2.930000e+00
  N5aq SX4eh  1 4.300000e-01    3.160000e+00
  N4aq SX4eh  1 4.300000e-01    3.380000e+00
  N3aq SX4eh  1 4.300000e-01    3.160000e+00
  N2aq SX4eh  1 4.300000e-01    3.160000e+00
  N1aq SX4eh  1 4.300000e-01    2.930000e+00
  P6aq SX3eh  1 4.300000e-01    2.530000e+00
  P5aq SX3eh  1 4.300000e-01    2.530000e+00
  P4aq SX3eh  1 4.300000e-01    2.530000e+00
  P3aq SX3eh  1 4.300000e-01    2.920000e+00
  P2aq SX3eh  1 4.300000e-01    2.920000e+00
  P1aq SX3eh  1 4.300000e-01    2.920000e+00
  N6aq SX3eh  1 4.300000e-01    2.920000e+00
  N5aq SX3eh  1 4.300000e-01    2.930000e+00
  N4aq SX3eh  1 4.300000e-01    3.160000e+00
  N3aq SX3eh  1 4.300000e-01    2.930000e+00
  N2aq SX3eh  1 4.300000e-01    2.930000e+00
  N1aq SX3eh  1 4.300000e-01    2.930000e+00
  P6aq SX2eh  1 4.300000e-01    2.320000e+00
  P5aq SX2eh  1 4.300000e-01    2.530000e+00
  P4aq SX2eh  1 4.300000e-01    2.530000e+00
  P3aq SX2eh  1 4.300000e-01    2.530000e+00
  P2aq SX2eh  1 4.300000e-01    2.530000e+00
  P1aq SX2eh  1 4.300000e-01    2.530000e+00
  N6aq SX2eh  1 4.300000e-01    2.530000e+00
  N5aq SX2eh  1 4.300000e-01    2.920000e+00
  N4aq SX2eh  1 4.300000e-01    2.920000e+00
  N3aq SX2eh  1 4.300000e-01    2.920000e+00
  N2aq SX2eh  1 4.300000e-01    2.920000e+00
  N1aq SX2eh  1 4.300000e-01    2.920000e+00
  P6aq SX1eh  1 4.300000e-01    2.160000e+00
  P5aq SX1eh  1 4.300000e-01    2.160000e+00
  P4aq SX1eh  1 4.300000e-01    2.320000e+00
  P3aq SX1eh  1 4.300000e-01    2.320000e+00
  P2aq SX1eh  1 4.300000e-01    2.320000e+00
  P1aq SX1eh  1 4.300000e-01    2.320000e+00
  N6aq SX1eh  1 4.300000e-01    2.320000e+00
  N5aq SX1eh  1 4.300000e-01    2.530000e+00
  N4aq SX1eh  1 4.300000e-01    2.530000e+00
  N3aq SX1eh  1 4.300000e-01    2.920000e+00
  N2aq SX1eh  1 4.300000e-01    2.920000e+00
  N1aq SX1eh  1 4.300000e-01    2.920000e+00
 SP6aq  C6eh  1 4.300000e-01    2.320000e+00
 SP5aq  C6eh  1 4.300000e-01    2.320000e+00
 SP4aq  C6eh  1 4.300000e-01    2.530000e+00
 SP3aq  C6eh  1 4.300000e-01    2.920000e+00
 SP2aq  C6eh  1 4.300000e-01    2.920000e+00
 SP1aq  C6eh  1 4.300000e-01    2.920000e+00
 SN6aq  C6eh  1 4.300000e-01    2.930000e+00
 SN5aq  C6eh  1 4.300000e-01    2.930000e+00
 SN4aq  C6eh  1 4.300000e-01    2.930000e+00
 SN3aq  C6eh  1 4.300000e-01    2.930000e+00
 SN2aq  C6eh  1 4.300000e-01    2.930000e+00
 SN1aq  C6eh  1 4.300000e-01    3.160000e+00
 SP6aq  C5eh  1 4.300000e-01    2.160000e+00
 SP5aq  C5eh  1 4.300000e-01    2.320000e+00
 SP4aq  C5eh  1 4.300000e-01    2.320000e+00
 SP3aq  C5eh  1 4.300000e-01    2.530000e+00
 SP2aq  C5eh  1 4.300000e-01    2.530000e+00
 SP1aq  C5eh  1 4.300000e-01    2.530000e+00
 SN6aq  C5eh  1 4.300000e-01    2.920000e+00
 SN5aq  C5eh  1 4.300000e-01    2.920000e+00
 SN4aq  C5eh  1 4.300000e-01    2.920000e+00
 SN3aq  C5eh  1 4.300000e-01    2.920000e+00
 SN2aq  C5eh  1 4.300000e-01    2.920000e+00
 SN1aq  C5eh  1 4.300000e-01    2.930000e+00
 SP6aq  C4eh  1 4.300000e-01    1.930000e+00
 SP5aq  C4eh  1 4.300000e-01    2.160000e+00
 SP4aq  C4eh  1 4.300000e-01    2.160000e+00
 SP3aq  C4eh  1 4.300000e-01    2.320000e+00
 SP2aq  C4eh  1 4.300000e-01    2.320000e+00
 SP1aq  C4eh  1 4.300000e-01    2.320000e+00
 SN6aq  C4eh  1 4.300000e-01    2.530000e+00
 SN5aq  C4eh  1 4.300000e-01    2.530000e+00
 SN4aq  C4eh  1 4.300000e-01    2.920000e+00
 SN3aq  C4eh  1 4.300000e-01    2.920000e+00
 SN2aq  C4eh  1 4.300000e-01    2.920000e+00
 SN1aq  C4eh  1 4.300000e-01    2.930000e+00
 SP6aq  C3eh  1 4.300000e-01    1.730000e+00
 SP5aq  C3eh  1 4.300000e-01    1.930000e+00
 SP4aq  C3eh  1 4.300000e-01    1.930000e+00
 SP3aq  C3eh  1 4.300000e-01    1.930000e+00
 SP2aq  C3eh  1 4.300000e-01    2.160000e+00
 SP1aq  C3eh  1 4.300000e-01    2.160000e+00
 SN6aq  C3eh  1 4.300000e-01    2.320000e+00
 SN5aq  C3eh  1 4.300000e-01    2.530000e+00
 SN4aq  C3eh  1 4.300000e-01    2.530000e+00
 SN3aq  C3eh  1 4.300000e-01    2.530000e+00
 SN2aq  C3eh  1 4.300000e-01    2.920000e+00
 SN1aq  C3eh  1 4.300000e-01    2.920000e+00
 SP6aq  C2eh  1 4.300000e-01    1.730000e+00
 SP5aq  C2eh  1 4.300000e-01    1.930000e+00
 SP4aq  C2eh  1 4.300000e-01    1.930000e+00
 SP3aq  C2eh  1 4.300000e-01    1.930000e+00
 SP2aq  C2eh  1 4.300000e-01    2.160000e+00
 SP1aq  C2eh  1 4.300000e-01    2.160000e+00
 SN6aq  C2eh  1 4.300000e-01    2.320000e+00
 SN5aq  C2eh  1 4.300000e-01    2.320000e+00
 SN4aq  C2eh  1 4.300000e-01    2.320000e+00
 SN3aq  C2eh  1 4.300000e-01    2.530000e+00
 SN2aq  C2eh  1 4.300000e-01    2.530000e+00
 SN1aq  C2eh  1 4.300000e-01    2.530000e+00
 SP6aq  C1eh  1 4.730000e-01    1.280000e+00
 SP5aq  C1eh  1 4.300000e-01    1.730000e+00
 SP4aq  C1eh  1 4.300000e-01    1.730000e+00
 SP3aq  C1eh  1 4.300000e-01    1.730000e+00
 SP2aq  C1eh  1 4.300000e-01    1.930000e+00
 SP1aq  C1eh  1 4.300000e-01    1.930000e+00
 SN6aq  C1eh  1 4.300000e-01    2.160000e+00
 SN5aq  C1eh  1 4.300000e-01    2.160000e+00
 SN4aq  C1eh  1 4.300000e-01    2.160000e+00
 SN3aq  C1eh  1 4.300000e-01    2.320000e+00
 SN2aq  C1eh  1 4.300000e-01    2.320000e+00
 SN1aq  C1eh  1 4.300000e-01    2.320000e+00
 SP6aq  X4eh  1 4.300000e-01    2.530000e+00
 SP5aq  X4eh  1 4.300000e-01    2.920000e+00
 SP4aq  X4eh  1 4.300000e-01    2.920000e+00
 SP3aq  X4eh  1 4.300000e-01    2.920000e+00
 SP2aq  X4eh  1 4.300000e-01    2.920000e+00
 SP1aq  X4eh  1 4.300000e-01    2.920000e+00
 SN6aq  X4eh  1 4.300000e-01    2.930000e+00
 SN5aq  X4eh  1 4.300000e-01    3.160000e+00
 SN4aq  X4eh  1 4.300000e-01    3.380000e+00
 SN3aq  X4eh  1 4.300000e-01    3.160000e+00
 SN2aq  X4eh  1 4.300000e-01    3.160000e+00
 SN1aq  X4eh  1 4.300000e-01    2.930000e+00
 SP6aq  X3eh  1 4.300000e-01    2.530000e+00
 SP5aq  X3eh  1 4.300000e-01    2.530000e+00
 SP4aq  X3eh  1 4.300000e-01    2.530000e+00
 SP3aq  X3eh  1 4.300000e-01    2.920000e+00
 SP2aq  X3eh  1 4.300000e-01    2.920000e+00
 SP1aq  X3eh  1 4.300000e-01    2.920000e+00
 SN6aq  X3eh  1 4.300000e-01    2.920000e+00
 SN5aq  X3eh  1 4.300000e-01    2.930000e+00
 SN4aq  X3eh  1 4.300000e-01    3.160000e+00
 SN3aq  X3eh  1 4.300000e-01    2.930000e+00
 SN2aq  X3eh  1 4.300000e-01    2.930000e+00
 SN1aq  X3eh  1 4.300000e-01    2.930000e+00
 SP6aq  X2eh  1 4.300000e-01    2.320000e+00
 SP5aq  X2eh  1 4.300000e-01    2.530000e+00
 SP4aq  X2eh  1 4.300000e-01    2.530000e+00
 SP3aq  X2eh  1 4.300000e-01    2.530000e+00
 SP2aq  X2eh  1 4.300000e-01    2.530000e+00
 SP1aq  X2eh  1 4.300000e-01    2.530000e+00
 SN6aq  X2eh  1 4.300000e-01    2.530000e+00
 SN5aq  X2eh  1 4.300000e-01    2.920000e+00
 SN4aq  X2eh  1 4.300000e-01    2.920000e+00
 SN3aq  X2eh  1 4.300000e-01    2.920000e+00
 SN2aq  X2eh  1 4.300000e-01    2.920000e+00
 SN1aq  X2eh  1 4.300000e-01    2.920000e+00
 SP6aq  X1eh  1 4.300000e-01    2.160000e+00
 SP5aq  X1eh  1 4.300000e-01    2.160000e+00
 SP4aq  X1eh  1 4.300000e-01    2.320000e+00
 SP3aq  X1eh  1 4.300000e-01    2.320000e+00
 SP2aq  X1eh  1 4.300000e-01    2.320000e+00
 SP1aq  X1eh  1 4.300000e-01    2.320000e+00
 SN6aq  X1eh  1 4.300000e-01    2.320000e+00
 SN5aq  X1eh  1 4.300000e-01    2.530000e+00
 SN4aq  X1eh  1 4.300000e-01    2.530000e+00
 SN3aq  X1eh  1 4.300000e-01    2.920000e+00
 SN2aq  X1eh  1 4.300000e-01    2.920000e+00
 SN1aq  X1eh  1 4.300000e-01    2.920000e+00
  P6aq SC6er  1 4.300000e-01    2.320000e+00
  P5aq SC6er  1 4.300000e-01    2.320000e+00
  P4aq SC6er  1 4.300000e-01    2.530000e+00
  P3aq SC6er  1 4.300000e-01    2.920000e+00
  P2aq SC6er  1 4.300000e-01    2.920000e+00
  P1aq SC6er  1 4.300000e-01    2.920000e+00
  N6aq SC6er  1 4.300000e-01    2.930000e+00
  N5aq SC6er  1 4.300000e-01    2.930000e+00
  N4aq SC6er  1 4.300000e-01    2.930000e+00
  N3aq SC6er  1 4.300000e-01    2.930000e+00
  N2aq SC6er  1 4.300000e-01    2.930000e+00
  N1aq SC6er  1 4.300000e-01    3.160000e+00
  P6aq SC5er  1 4.300000e-01    2.160000e+00
  P5aq SC5er  1 4.300000e-01    2.320000e+00
  P4aq SC5er  1 4.300000e-01    2.320000e+00
  P3aq SC5er  1 4.300000e-01    2.530000e+00
  P2aq SC5er  1 4.300000e-01    2.530000e+00
  P1aq SC5er  1 4.300000e-01    2.530000e+00
  N6aq SC5er  1 4.300000e-01    2.920000e+00
  N5aq SC5er  1 4.300000e-01    2.920000e+00
  N4aq SC5er  1 4.300000e-01    2.920000e+00
  N3aq SC5er  1 4.300000e-01    2.920000e+00
  N2aq SC5er  1 4.300000e-01    2.920000e+00
  N1aq SC5er  1 4.300000e-01    2.930000e+00
  P6aq SC4er  1 4.300000e-01    1.930000e+00
  P5aq SC4er  1 4.300000e-01    2.160000e+00
  P4aq SC4er  1 4.300000e-01    2.160000e+00
  P3aq SC4er  1 4.300000e-01    2.320000e+00
  P2aq SC4er  1 4.300000e-01    2.320000e+00
  P1aq SC4er  1 4.300000e-01    2.320000e+00
  N6aq SC4er  1 4.300000e-01    2.530000e+00
  N5aq SC4er  1 4.300000e-01    2.530000e+00
  N4aq SC4er  1 4.300000e-01    2.920000e+00
  N3aq SC4er  1 4.300000e-01    2.920000e+00
  N2aq SC4er  1 4.300000e-01    2.920000e+00
  N1aq SC4er  1 4.300000e-01    2.930000e+00
  P6aq SC3er  1 4.300000e-01    1.730000e+00
  P5aq SC3er  1 4.300000e-01    1.930000e+00
  P4aq SC3er  1 4.300000e-01    1.930000e+00
  P3aq SC3er  1 4.300000e-01    1.930000e+00
  P2aq SC3er  1 4.300000e-01    2.160000e+00
  P1aq SC3er  1 4.300000e-01    2.160000e+00
  N6aq SC3er  1 4.300000e-01    2.320000e+00
  N5aq SC3er  1 4.300000e-01    2.530000e+00
  N4aq SC3er  1 4.300000e-01    2.530000e+00
  N3aq SC3er  1 4.300000e-01    2.530000e+00
  N2aq SC3er  1 4.300000e-01    2.920000e+00
  N1aq SC3er  1 4.300000e-01    2.920000e+00
  P6aq SC2er  1 4.300000e-01    1.730000e+00
  P5aq SC2er  1 4.300000e-01    1.930000e+00
  P4aq SC2er  1 4.300000e-01    1.930000e+00
  P3aq SC2er  1 4.300000e-01    1.930000e+00
  P2aq SC2er  1 4.300000e-01    2.160000e+00
  P1aq SC2er  1 4.300000e-01    2.160000e+00
  N6aq SC2er  1 4.300000e-01    2.320000e+00
  N5aq SC2er  1 4.300000e-01    2.320000e+00
  N4aq SC2er  1 4.300000e-01    2.320000e+00
  N3aq SC2er  1 4.300000e-01    2.530000e+00
  N2aq SC2er  1 4.300000e-01    2.530000e+00
  N1aq SC2er  1 4.300000e-01    2.530000e+00
  P6aq SC1er  1 4.730000e-01    1.280000e+00
  P5aq SC1er  1 4.300000e-01    1.730000e+00
  P4aq SC1er  1 4.300000e-01    1.730000e+00
  P3aq SC1er  1 4.300000e-01    1.730000e+00
  P2aq SC1er  1 4.300000e-01    1.930000e+00
  P1aq SC1er  1 4.300000e-01    1.930000e+00
  N6aq SC1er  1 4.300000e-01    2.160000e+00
  N5aq SC1er  1 4.300000e-01    2.160000e+00
  N4aq SC1er  1 4.300000e-01    2.160000e+00
  N3aq SC1er  1 4.300000e-01    2.320000e+00
  N2aq SC1er  1 4.300000e-01    2.320000e+00
  N1aq SC1er  1 4.300000e-01    2.320000e+00
  P6aq SX4er  1 4.300000e-01    2.530000e+00
  P5aq SX4er  1 4.300000e-01    2.920000e+00
  P4aq SX4er  1 4.300000e-01    2.920000e+00
  P3aq SX4er  1 4.300000e-01    2.920000e+00
  P2aq SX4er  1 4.300000e-01    2.920000e+00
  P1aq SX4er  1 4.300000e-01    2.920000e+00
  N6aq SX4er  1 4.300000e-01    2.930000e+00
  N5aq SX4er  1 4.300000e-01    3.160000e+00
  N4aq SX4er  1 4.300000e-01    3.380000e+00
  N3aq SX4er  1 4.300000e-01    3.160000e+00
  N2aq SX4er  1 4.300000e-01    3.160000e+00
  N1aq SX4er  1 4.300000e-01    2.930000e+00
  P6aq SX3er  1 4.300000e-01    2.530000e+00
  P5aq SX3er  1 4.300000e-01    2.530000e+00
  P4aq SX3er  1 4.300000e-01    2.530000e+00
  P3aq SX3er  1 4.300000e-01    2.920000e+00
  P2aq SX3er  1 4.300000e-01    2.920000e+00
  P1aq SX3er  1 4.300000e-01    2.920000e+00
  N6aq SX3er  1 4.300000e-01    2.920000e+00
  N5aq SX3er  1 4.300000e-01    2.930000e+00
  N4aq SX3er  1 4.300000e-01    3.160000e+00
  N3aq SX3er  1 4.300000e-01    2.930000e+00
  N2aq SX3er  1 4.300000e-01    2.930000e+00
  N1aq SX3er  1 4.300000e-01    2.930000e+00
  P6aq SX2er  1 4.300000e-01    2.320000e+00
  P5aq SX2er  1 4.300000e-01    2.530000e+00
  P4aq SX2er  1 4.300000e-01    2.530000e+00
  P3aq SX2er  1 4.300000e-01    2.530000e+00
  P2aq SX2er  1 4.300000e-01    2.530000e+00
  P1aq SX2er  1 4.300000e-01    2.530000e+00
  N6aq SX2er  1 4.300000e-01    2.530000e+00
  N5aq SX2er  1 4.300000e-01    2.920000e+00
  N4aq SX2er  1 4.300000e-01    2.920000e+00
  N3aq SX2er  1 4.300000e-01    2.920000e+00
  N2aq SX2er  1 4.300000e-01    2.920000e+00
  N1aq SX2er  1 4.300000e-01    2.920000e+00
  P6aq SX1er  1 4.300000e-01    2.160000e+00
  P5aq SX1er  1 4.300000e-01    2.160000e+00
  P4aq SX1er  1 4.300000e-01    2.320000e+00
  P3aq SX1er  1 4.300000e-01    2.320000e+00
  P2aq SX1er  1 4.300000e-01    2.320000e+00
  P1aq SX1er  1 4.300000e-01    2.320000e+00
  N6aq SX1er  1 4.300000e-01    2.320000e+00
  N5aq SX1er  1 4.300000e-01    2.530000e+00
  N4aq SX1er  1 4.300000e-01    2.530000e+00
  N3aq SX1er  1 4.300000e-01    2.920000e+00
  N2aq SX1er  1 4.300000e-01    2.920000e+00
  N1aq SX1er  1 4.300000e-01    2.920000e+00
 SP6aq  C6er  1 4.300000e-01    2.320000e+00
 SP5aq  C6er  1 4.300000e-01    2.320000e+00
 SP4aq  C6er  1 4.300000e-01    2.530000e+00
 SP3aq  C6er  1 4.300000e-01    2.920000e+00
 SP2aq  C6er  1 4.300000e-01    2.920000e+00
 SP1aq  C6er  1 4.300000e-01    2.920000e+00
 SN6aq  C6er  1 4.300000e-01    2.930000e+00
 SN5aq  C6er  1 4.300000e-01    2.930000e+00
 SN4aq  C6er  1 4.300000e-01    2.930000e+00
 SN3aq  C6er  1 4.300000e-01    2.930000e+00
 SN2aq  C6er  1 4.300000e-01    2.930000e+00
 SN1aq  C6er  1 4.300000e-01    3.160000e+00
 SP6aq  C5er  1 4.300000e-01    2.160000e+00
 SP5aq  C5er  1 4.300000e-01    2.320000e+00
 SP4aq  C5er  1 4.300000e-01    2.320000e+00
 SP3aq  C5er  1 4.300000e-01    2.530000e+00
 SP2aq  C5er  1 4.300000e-01    2.530000e+00
 SP1aq  C5er  1 4.300000e-01    2.530000e+00
 SN6aq  C5er  1 4.300000e-01    2.920000e+00
 SN5aq  C5er  1 4.300000e-01    2.920000e+00
 SN4aq  C5er  1 4.300000e-01    2.920000e+00
 SN3aq  C5er  1 4.300000e-01    2.920000e+00
 SN2aq  C5er  1 4.300000e-01    2.920000e+00
 SN1aq  C5er  1 4.300000e-01    2.930000e+00
 SP6aq  C4er  1 4.300000e-01    1.930000e+00
 SP5aq  C4er  1 4.300000e-01    2.160000e+00
 SP4aq  C4er  1 4.300000e-01    2.160000e+00
 SP3aq  C4er  1 4.300000e-01    2.320000e+00
 SP2aq  C4er  1 4.300000e-01    2.320000e+00
 SP1aq  C4er  1 4.300000e-01    2.320000e+00
 SN6aq  C4er  1 4.300000e-01    2.530000e+00
 SN5aq  C4er  1 4.300000e-01    2.530000e+00
 SN4aq  C4er  1 4.300000e-01    2.920000e+00
 SN3aq  C4er  1 4.300000e-01    2.920000e+00
 SN2aq  C4er  1 4.300000e-01    2.920000e+00
 SN1aq  C4er  1 4.300000e-01    2.930000e+00
 SP6aq  C3er  1 4.300000e-01    1.730000e+00
 SP5aq  C3er  1 4.300000e-01    1.930000e+00
 SP4aq  C3er  1 4.300000e-01    1.930000e+00
 SP3aq  C3er  1 4.300000e-01    1.930000e+00
 SP2aq  C3er  1 4.300000e-01    2.160000e+00
 SP1aq  C3er  1 4.300000e-01    2.160000e+00
 SN6aq  C3er  1 4.300000e-01    2.320000e+00
 SN5aq  C3er  1 4.300000e-01    2.530000e+00
 SN4aq  C3er  1 4.300000e-01    2.530000e+00
 SN3aq  C3er  1 4.300000e-01    2.530000e+00
 SN2aq  C3er  1 4.300000e-01    2.920000e+00
 SN1aq  C3er  1 4.300000e-01    2.920000e+00
 SP6aq  C2er  1 4.300000e-01    1.730000e+00
 SP5aq  C2er  1 4.300000e-01    1.930000e+00
 SP4aq  C2er  1 4.300000e-01    1.930000e+00
 SP3aq  C2er  1 4.300000e-01    1.930000e+00
 SP2aq  C2er  1 4.300000e-01    2.160000e+00
 SP1aq  C2er  1 4.300000e-01    2.160000e+00
 SN6aq  C2er  1 4.300000e-01    2.320000e+00
 SN5aq  C2er  1 4.300000e-01    2.320000e+00
 SN4aq  C2er  1 4.300000e-01    2.320000e+00
 SN3aq  C2er  1 4.300000e-01    2.530000e+00
 SN2aq  C2er  1 4.300000e-01    2.530000e+00
 SN1aq  C2er  1 4.300000e-01    2.530000e+00
 SP6aq  C1er  1 4.730000e-01    1.280000e+00
 SP5aq  C1er  1 4.300000e-01    1.730000e+00
 SP4aq  C1er  1 4.300000e-01    1.730000e+00
 SP3aq  C1er  1 4.300000e-01    1.730000e+00
 SP2aq  C1er  1 4.300000e-01    1.930000e+00
 SP1aq  C1er  1 4.300000e-01    1.930000e+00
 SN6aq  C1er  1 4.300000e-01    2.160000e+00
 SN5aq  C1er  1 4.300000e-01    2.160000e+00
 SN4aq  C1er  1 4.300000e-01    2.160000e+00
 SN3aq  C1er  1 4.300000e-01    2.320000e+00
 SN2aq  C1er  1 4.300000e-01    2.320000e+00
 SN1aq  C1er  1 4.300000e-01    2.320000e+00
 SP6aq  X4er  1 4.300000e-01    2.530000e+00
 SP5aq  X4er  1 4.300000e-01    2.920000e+00
 SP4aq  X4er  1 4.300000e-01    2.920000e+00
 SP3aq  X4er  1 4.300000e-01    2.920000e+00
 SP2aq  X4er  1 4.300000e-01    2.920000e+00
 SP1aq  X4er  1 4.300000e-01    2.920000e+00
 SN6aq  X4er  1 4.300000e-01    2.930000e+00
 SN5aq  X4er  1 4.300000e-01    3.160000e+00
 SN4aq  X4er  1 4.300000e-01    3.380000e+00
 SN3aq  X4er  1 4.300000e-01    3.160000e+00
 SN2aq  X4er  1 4.300000e-01    3.160000e+00
 SN1aq  X4er  1 4.300000e-01    2.930000e+00
 SP6aq  X3er  1 4.300000e-01    2.530000e+00
 SP5aq  X3er  1 4.300000e-01    2.530000e+00
 SP4aq  X3er  1 4.300000e-01    2.530000e+00
 SP3aq  X3er  1 4.300000e-01    2.920000e+00
 SP2aq  X3er  1 4.300000e-01    2.920000e+00
 SP1aq  X3er  1 4.300000e-01    2.920000e+00
 SN6aq  X3er  1 4.300000e-01    2.920000e+00
 SN5aq  X3er  1 4.300000e-01    2.930000e+00
 SN4aq  X3er  1 4.300000e-01    3.160000e+00
 SN3aq  X3er  1 4.300000e-01    2.930000e+00
 SN2aq  X3er  1 4.300000e-01    2.930000e+00
 SN1aq  X3er  1 4.300000e-01    2.930000e+00
 SP6aq  X2er  1 4.300000e-01    2.320000e+00
 SP5aq  X2er  1 4.300000e-01    2.530000e+00
 SP4aq  X2er  1 4.300000e-01    2.530000e+00
 SP3aq  X2er  1 4.300000e-01    2.530000e+00
 SP2aq  X2er  1 4.300000e-01    2.530000e+00
 SP1aq  X2er  1 4.300000e-01    2.530000e+00
 SN6aq  X2er  1 4.300000e-01    2.530000e+00
 SN5aq  X2er  1 4.300000e-01    2.920000e+00
 SN4aq  X2er  1 4.300000e-01    2.920000e+00
 SN3aq  X2er  1 4.300000e-01    2.920000e+00
 SN2aq  X2er  1 4.300000e-01    2.920000e+00
 SN1aq  X2er  1 4.300000e-01    2.920000e+00
 SP6aq  X1er  1 4.300000e-01    2.160000e+00
 SP5aq  X1er  1 4.300000e-01    2.160000e+00
 SP4aq  X1er  1 4.300000e-01    2.320000e+00
 SP3aq  X1er  1 4.300000e-01    2.320000e+00
 SP2aq  X1er  1 4.300000e-01    2.320000e+00
 SP1aq  X1er  1 4.300000e-01    2.320000e+00
 SN6aq  X1er  1 4.300000e-01    2.320000e+00
 SN5aq  X1er  1 4.300000e-01    2.530000e+00
 SN4aq  X1er  1 4.300000e-01    2.530000e+00
 SN3aq  X1er  1 4.300000e-01    2.920000e+00
 SN2aq  X1er  1 4.300000e-01    2.920000e+00
 SN1aq  X1er  1 4.300000e-01    2.920000e+00
  P6ah  SC6e  1 4.300000e-01    1.930000e+00
  P6ah  SC5e  1 4.300000e-01    1.730000e+00
  P6ah  SC4e  1 4.430000e-01    1.480000e+00
  P6ah  SC3e  1 4.730000e-01    1.280000e+00
  P6ah  SC2e  1 4.730000e-01    1.280000e+00
  P6ah  SC1e  1 5.140000e-01    1.110000e+00
  P6ah  SX4e  1 4.300000e-01    2.160000e+00
  P6ah  SX3e  1 4.300000e-01    2.160000e+00
  P6ah  SX2e  1 4.300000e-01    1.930000e+00
  P6ah  SX1e  1 4.300000e-01    1.730000e+00
  P5ah  SC6e  1 4.300000e-01    1.930000e+00
  P5ah  SC5e  1 4.300000e-01    1.930000e+00
  P5ah  SC4e  1 4.300000e-01    1.730000e+00
  P5ah  SC3e  1 4.430000e-01    1.480000e+00
  P5ah  SC2e  1 4.430000e-01    1.480000e+00
  P5ah  SC1e  1 4.730000e-01    1.280000e+00
  P5ah  SX4e  1 4.300000e-01    2.320000e+00
  P5ah  SX3e  1 4.300000e-01    2.160000e+00
  P5ah  SX2e  1 4.300000e-01    2.160000e+00
  P5ah  SX1e  1 4.300000e-01    1.730000e+00
  P4ah  SC6e  1 4.300000e-01    2.160000e+00
  P4ah  SC5e  1 4.300000e-01    1.930000e+00
  P4ah  SC4e  1 4.300000e-01    1.730000e+00
  P4ah  SC3e  1 4.430000e-01    1.480000e+00
  P4ah  SC2e  1 4.430000e-01    1.480000e+00
  P4ah  SC1e  1 4.730000e-01    1.280000e+00
  P4ah  SX4e  1 4.300000e-01    2.320000e+00
  P4ah  SX3e  1 4.300000e-01    2.160000e+00
  P4ah  SX2e  1 4.300000e-01    2.160000e+00
  P4ah  SX1e  1 4.300000e-01    1.930000e+00
  P3ah  SC6e  1 4.300000e-01    2.320000e+00
  P3ah  SC5e  1 4.300000e-01    2.160000e+00
  P3ah  SC4e  1 4.300000e-01    1.930000e+00
  P3ah  SC3e  1 4.430000e-01    1.480000e+00
  P3ah  SC2e  1 4.430000e-01    1.480000e+00
  P3ah  SC1e  1 4.730000e-01    1.280000e+00
  P3ah  SX4e  1 4.300000e-01    2.320000e+00
  P3ah  SX3e  1 4.300000e-01    2.320000e+00
  P3ah  SX2e  1 4.300000e-01    2.160000e+00
  P3ah  SX1e  1 4.300000e-01    1.930000e+00
  P2ah  SC6e  1 4.300000e-01    2.320000e+00
  P2ah  SC5e  1 4.300000e-01    2.160000e+00
  P2ah  SC4e  1 4.300000e-01    1.930000e+00
  P2ah  SC3e  1 4.300000e-01    1.730000e+00
  P2ah  SC2e  1 4.300000e-01    1.730000e+00
  P2ah  SC1e  1 4.430000e-01    1.480000e+00
  P2ah  SX4e  1 4.300000e-01    2.320000e+00
  P2ah  SX3e  1 4.300000e-01    2.320000e+00
  P2ah  SX2e  1 4.300000e-01    2.160000e+00
  P2ah  SX1e  1 4.300000e-01    1.930000e+00
  P1ah  SC6e  1 4.300000e-01    2.320000e+00
  P1ah  SC5e  1 4.300000e-01    2.160000e+00
  P1ah  SC4e  1 4.300000e-01    1.930000e+00
  P1ah  SC3e  1 4.300000e-01    1.730000e+00
  P1ah  SC2e  1 4.300000e-01    1.730000e+00
  P1ah  SC1e  1 4.430000e-01    1.480000e+00
  P1ah  SX4e  1 4.300000e-01    2.320000e+00
  P1ah  SX3e  1 4.300000e-01    2.320000e+00
  P1ah  SX2e  1 4.300000e-01    2.160000e+00
  P1ah  SX1e  1 4.300000e-01    1.930000e+00
  N6ah  SC6e  1 4.300000e-01    2.530000e+00
  N6ah  SC5e  1 4.300000e-01    2.320000e+00
  N6ah  SC4e  1 4.300000e-01    2.160000e+00
  N6ah  SC3e  1 4.300000e-01    1.930000e+00
  N6ah  SC2e  1 4.300000e-01    1.930000e+00
  N6ah  SC1e  1 4.300000e-01    1.730000e+00
  N6ah  SX4e  1 4.300000e-01    2.530000e+00
  N6ah  SX3e  1 4.300000e-01    2.320000e+00
  N6ah  SX2e  1 4.300000e-01    2.160000e+00
  N6ah  SX1e  1 4.300000e-01    1.930000e+00
  N5ah  SC6e  1 4.300000e-01    2.530000e+00
  N5ah  SC5e  1 4.300000e-01    2.320000e+00
  N5ah  SC4e  1 4.300000e-01    2.160000e+00
  N5ah  SC3e  1 4.300000e-01    2.160000e+00
  N5ah  SC2e  1 4.300000e-01    1.930000e+00
  N5ah  SC1e  1 4.300000e-01    1.730000e+00
  N5ah  SX4e  1 4.300000e-01    2.920000e+00
  N5ah  SX3e  1 4.300000e-01    2.530000e+00
  N5ah  SX2e  1 4.300000e-01    2.320000e+00
  N5ah  SX1e  1 4.300000e-01    2.160000e+00
  N4ah  SC6e  1 4.300000e-01    2.530000e+00
  N4ah  SC5e  1 4.300000e-01    2.320000e+00
  N4ah  SC4e  1 4.300000e-01    2.320000e+00
  N4ah  SC3e  1 4.300000e-01    2.160000e+00
  N4ah  SC2e  1 4.300000e-01    1.930000e+00
  N4ah  SC1e  1 4.300000e-01    1.730000e+00
  N4ah  SX4e  1 4.300000e-01    2.930000e+00
  N4ah  SX3e  1 4.300000e-01    2.920000e+00
  N4ah  SX2e  1 4.300000e-01    2.320000e+00
  N4ah  SX1e  1 4.300000e-01    2.160000e+00
  N3ah  SC6e  1 4.300000e-01    2.530000e+00
  N3ah  SC5e  1 4.300000e-01    2.320000e+00
  N3ah  SC4e  1 4.300000e-01    2.320000e+00
  N3ah  SC3e  1 4.300000e-01    2.160000e+00
  N3ah  SC2e  1 4.300000e-01    2.160000e+00
  N3ah  SC1e  1 4.300000e-01    1.930000e+00
  N3ah  SX4e  1 4.300000e-01    2.920000e+00
  N3ah  SX3e  1 4.300000e-01    2.530000e+00
  N3ah  SX2e  1 4.300000e-01    2.320000e+00
  N3ah  SX1e  1 4.300000e-01    2.320000e+00
  N2ah  SC6e  1 4.300000e-01    2.530000e+00
  N2ah  SC5e  1 4.300000e-01    2.320000e+00
  N2ah  SC4e  1 4.300000e-01    2.320000e+00
  N2ah  SC3e  1 4.300000e-01    2.320000e+00
  N2ah  SC2e  1 4.300000e-01    2.160000e+00
  N2ah  SC1e  1 4.300000e-01    1.930000e+00
  N2ah  SX4e  1 4.300000e-01    2.920000e+00
  N2ah  SX3e  1 4.300000e-01    2.530000e+00
  N2ah  SX2e  1 4.300000e-01    2.320000e+00
  N2ah  SX1e  1 4.300000e-01    2.320000e+00
  N1ah  SC6e  1 4.300000e-01    2.920000e+00
  N1ah  SC5e  1 4.300000e-01    2.530000e+00
  N1ah  SC4e  1 4.300000e-01    2.530000e+00
  N1ah  SC3e  1 4.300000e-01    2.320000e+00
  N1ah  SC2e  1 4.300000e-01    2.160000e+00
  N1ah  SC1e  1 4.300000e-01    1.930000e+00
  N1ah  SX4e  1 4.300000e-01    2.530000e+00
  N1ah  SX3e  1 4.300000e-01    2.530000e+00
  N1ah  SX2e  1 4.300000e-01    2.320000e+00
  N1ah  SX1e  1 4.300000e-01    2.320000e+00
 SP6ah   C6e  1 4.300000e-01    1.930000e+00
 SP6ah   C5e  1 4.300000e-01    1.730000e+00
 SP6ah   C4e  1 4.430000e-01    1.480000e+00
 SP6ah   C3e  1 4.730000e-01    1.280000e+00
 SP6ah   C2e  1 4.730000e-01    1.280000e+00
 SP6ah   C1e  1 5.140000e-01    1.110000e+00
 SP6ah   X4e  1 4.300000e-01    2.160000e+00
 SP6ah   X3e  1 4.300000e-01    2.160000e+00
 SP6ah   X2e  1 4.300000e-01    1.930000e+00
 SP6ah   X1e  1 4.300000e-01    1.730000e+00
 SP5ah   C6e  1 4.300000e-01    1.930000e+00
 SP5ah   C5e  1 4.300000e-01    1.930000e+00
 SP5ah   C4e  1 4.300000e-01    1.730000e+00
 SP5ah   C3e  1 4.430000e-01    1.480000e+00
 SP5ah   C2e  1 4.430000e-01    1.480000e+00
 SP5ah   C1e  1 4.730000e-01    1.280000e+00
 SP5ah   X4e  1 4.300000e-01    2.320000e+00
 SP5ah   X3e  1 4.300000e-01    2.160000e+00
 SP5ah   X2e  1 4.300000e-01    2.160000e+00
 SP5ah   X1e  1 4.300000e-01    1.730000e+00
 SP4ah   C6e  1 4.300000e-01    2.160000e+00
 SP4ah   C5e  1 4.300000e-01    1.930000e+00
 SP4ah   C4e  1 4.300000e-01    1.730000e+00
 SP4ah   C3e  1 4.430000e-01    1.480000e+00
 SP4ah   C2e  1 4.430000e-01    1.480000e+00
 SP4ah   C1e  1 4.730000e-01    1.280000e+00
 SP4ah   X4e  1 4.300000e-01    2.320000e+00
 SP4ah   X3e  1 4.300000e-01    2.160000e+00
 SP4ah   X2e  1 4.300000e-01    2.160000e+00
 SP4ah   X1e  1 4.300000e-01    1.930000e+00
 SP3ah   C6e  1 4.300000e-01    2.320000e+00
 SP3ah   C5e  1 4.300000e-01    2.160000e+00
 SP3ah   C4e  1 4.300000e-01    1.930000e+00
 SP3ah   C3e  1 4.430000e-01    1.480000e+00
 SP3ah   C2e  1 4.430000e-01    1.480000e+00
 SP3ah   C1e  1 4.730000e-01    1.280000e+00
 SP3ah   X4e  1 4.300000e-01    2.320000e+00
 SP3ah   X3e  1 4.300000e-01    2.320000e+00
 SP3ah   X2e  1 4.300000e-01    2.160000e+00
 SP3ah   X1e  1 4.300000e-01    1.930000e+00
 SP2ah   C6e  1 4.300000e-01    2.320000e+00
 SP2ah   C5e  1 4.300000e-01    2.160000e+00
 SP2ah   C4e  1 4.300000e-01    1.930000e+00
 SP2ah   C3e  1 4.300000e-01    1.730000e+00
 SP2ah   C2e  1 4.300000e-01    1.730000e+00
 SP2ah   C1e  1 4.430000e-01    1.480000e+00
 SP2ah   X4e  1 4.300000e-01    2.320000e+00
 SP2ah   X3e  1 4.300000e-01    2.320000e+00
 SP2ah   X2e  1 4.300000e-01    2.160000e+00
 SP2ah   X1e  1 4.300000e-01    1.930000e+00
 SP1ah   C6e  1 4.300000e-01    2.320000e+00
 SP1ah   C5e  1 4.300000e-01    2.160000e+00
 SP1ah   C4e  1 4.300000e-01    1.930000e+00
 SP1ah   C3e  1 4.300000e-01    1.730000e+00
 SP1ah   C2e  1 4.300000e-01    1.730000e+00
 SP1ah   C1e  1 4.430000e-01    1.480000e+00
 SP1ah   X4e  1 4.300000e-01    2.320000e+00
 SP1ah   X3e  1 4.300000e-01    2.320000e+00
 SP1ah   X2e  1 4.300000e-01    2.160000e+00
 SP1ah   X1e  1 4.300000e-01    1.930000e+00
 SN6ah   C6e  1 4.300000e-01    2.530000e+00
 SN6ah   C5e  1 4.300000e-01    2.320000e+00
 SN6ah   C4e  1 4.300000e-01    2.160000e+00
 SN6ah   C3e  1 4.300000e-01    1.930000e+00
 SN6ah   C2e  1 4.300000e-01    1.930000e+00
 SN6ah   C1e  1 4.300000e-01    1.730000e+00
 SN6ah   X4e  1 4.300000e-01    2.530000e+00
 SN6ah   X3e  1 4.300000e-01    2.320000e+00
 SN6ah   X2e  1 4.300000e-01    2.160000e+00
 SN6ah   X1e  1 4.300000e-01    1.930000e+00
 SN5ah   C6e  1 4.300000e-01    2.530000e+00
 SN5ah   C5e  1 4.300000e-01    2.320000e+00
 SN5ah   C4e  1 4.300000e-01    2.160000e+00
 SN5ah   C3e  1 4.300000e-01    2.160000e+00
 SN5ah   C2e  1 4.300000e-01    1.930000e+00
 SN5ah   C1e  1 4.300000e-01    1.730000e+00
 SN5ah   X4e  1 4.300000e-01    2.920000e+00
 SN5ah   X3e  1 4.300000e-01    2.530000e+00
 SN5ah   X2e  1 4.300000e-01    2.320000e+00
 SN5ah   X1e  1 4.300000e-01    2.160000e+00
 SN4ah   C6e  1 4.300000e-01    2.530000e+00
 SN4ah   C5e  1 4.300000e-01    2.320000e+00
 SN4ah   C4e  1 4.300000e-01    2.320000e+00
 SN4ah   C3e  1 4.300000e-01    2.160000e+00
 SN4ah   C2e  1 4.300000e-01    1.930000e+00
 SN4ah   C1e  1 4.300000e-01    1.730000e+00
 SN4ah   X4e  1 4.300000e-01    2.930000e+00
 SN4ah   X3e  1 4.300000e-01    2.920000e+00
 SN4ah   X2e  1 4.300000e-01    2.320000e+00
 SN4ah   X1e  1 4.300000e-01    2.160000e+00
 SN3ah   C6e  1 4.300000e-01    2.530000e+00
 SN3ah   C5e  1 4.300000e-01    2.320000e+00
 SN3ah   C4e  1 4.300000e-01    2.320000e+00
 SN3ah   C3e  1 4.300000e-01    2.160000e+00
 SN3ah   C2e  1 4.300000e-01    2.160000e+00
 SN3ah   C1e  1 4.300000e-01    1.930000e+00
 SN3ah   X4e  1 4.300000e-01    2.920000e+00
 SN3ah   X3e  1 4.300000e-01    2.530000e+00
 SN3ah   X2e  1 4.300000e-01    2.320000e+00
 SN3ah   X1e  1 4.300000e-01    2.320000e+00
 SN2ah   C6e  1 4.300000e-01    2.530000e+00
 SN2ah   C5e  1 4.300000e-01    2.320000e+00
 SN2ah   C4e  1 4.300000e-01    2.320000e+00
 SN2ah   C3e  1 4.300000e-01    2.320000e+00
 SN2ah   C2e  1 4.300000e-01    2.160000e+00
 SN2ah   C1e  1 4.300000e-01    1.930000e+00
 SN2ah   X4e  1 4.300000e-01    2.920000e+00
 SN2ah   X3e  1 4.300000e-01    2.530000e+00
 SN2ah   X2e  1 4.300000e-01    2.320000e+00
 SN2ah   X1e  1 4.300000e-01    2.320000e+00
 SN1ah   C6e  1 4.300000e-01    2.920000e+00
 SN1ah   C5e  1 4.300000e-01    2.530000e+00
 SN1ah   C4e  1 4.300000e-01    2.530000e+00
 SN1ah   C3e  1 4.300000e-01    2.320000e+00
 SN1ah   C2e  1 4.300000e-01    2.160000e+00
 SN1ah   C1e  1 4.300000e-01    1.930000e+00
 SN1ah   X4e  1 4.300000e-01    2.530000e+00
 SN1ah   X3e  1 4.300000e-01    2.530000e+00
 SN1ah   X2e  1 4.300000e-01    2.320000e+00
 SN1ah   X1e  1 4.300000e-01    2.320000e+00
  P6ah SX1eq  1 4.300000e-01    2.160000e+00
  P6ah SX2eq  1 4.300000e-01    2.320000e+00
  P6ah SX3eq  1 4.300000e-01    2.530000e+00
  P6ah SX4eq  1 4.300000e-01    2.530000e+00
  P6ah SC1eq  1 4.730000e-01    1.280000e+00
  P6ah SC2eq  1 4.300000e-01    1.730000e+00
  P6ah SC3eq  1 4.300000e-01    1.730000e+00
  P6ah SC4eq  1 4.300000e-01    1.930000e+00
  P6ah SC5eq  1 4.300000e-01    2.160000e+00
  P6ah SC6eq  1 4.300000e-01    2.320000e+00
  P5ah SX1eq  1 4.300000e-01    2.160000e+00
  P5ah SX2eq  1 4.300000e-01    2.530000e+00
  P5ah SX3eq  1 4.300000e-01    2.530000e+00
  P5ah SX4eq  1 4.300000e-01    2.920000e+00
  P5ah SC1eq  1 4.300000e-01    1.730000e+00
  P5ah SC2eq  1 4.300000e-01    1.930000e+00
  P5ah SC3eq  1 4.300000e-01    1.930000e+00
  P5ah SC4eq  1 4.300000e-01    2.160000e+00
  P5ah SC5eq  1 4.300000e-01    2.320000e+00
  P5ah SC6eq  1 4.300000e-01    2.320000e+00
  P4ah SX1eq  1 4.300000e-01    2.320000e+00
  P4ah SX2eq  1 4.300000e-01    2.530000e+00
  P4ah SX3eq  1 4.300000e-01    2.530000e+00
  P4ah SX4eq  1 4.300000e-01    2.920000e+00
  P4ah SC1eq  1 4.300000e-01    1.730000e+00
  P4ah SC2eq  1 4.300000e-01    1.930000e+00
  P4ah SC3eq  1 4.300000e-01    1.930000e+00
  P4ah SC4eq  1 4.300000e-01    2.160000e+00
  P4ah SC5eq  1 4.300000e-01    2.320000e+00
  P4ah SC6eq  1 4.300000e-01    2.530000e+00
  P3ah SX1eq  1 4.300000e-01    2.320000e+00
  P3ah SX2eq  1 4.300000e-01    2.530000e+00
  P3ah SX3eq  1 4.300000e-01    2.920000e+00
  P3ah SX4eq  1 4.300000e-01    2.920000e+00
  P3ah SC1eq  1 4.300000e-01    1.730000e+00
  P3ah SC2eq  1 4.300000e-01    1.930000e+00
  P3ah SC3eq  1 4.300000e-01    1.930000e+00
  P3ah SC4eq  1 4.300000e-01    2.320000e+00
  P3ah SC5eq  1 4.300000e-01    2.530000e+00
  P3ah SC6eq  1 4.300000e-01    2.920000e+00
  P2ah SX1eq  1 4.300000e-01    2.320000e+00
  P2ah SX2eq  1 4.300000e-01    2.530000e+00
  P2ah SX3eq  1 4.300000e-01    2.920000e+00
  P2ah SX4eq  1 4.300000e-01    2.920000e+00
  P2ah SC1eq  1 4.300000e-01    1.930000e+00
  P2ah SC2eq  1 4.300000e-01    2.160000e+00
  P2ah SC3eq  1 4.300000e-01    2.160000e+00
  P2ah SC4eq  1 4.300000e-01    2.320000e+00
  P2ah SC5eq  1 4.300000e-01    2.530000e+00
  P2ah SC6eq  1 4.300000e-01    2.920000e+00
  P1ah SX1eq  1 4.300000e-01    2.320000e+00
  P1ah SX2eq  1 4.300000e-01    2.530000e+00
  P1ah SX3eq  1 4.300000e-01    2.920000e+00
  P1ah SX4eq  1 4.300000e-01    2.920000e+00
  P1ah SC1eq  1 4.300000e-01    1.930000e+00
  P1ah SC2eq  1 4.300000e-01    2.160000e+00
  P1ah SC3eq  1 4.300000e-01    2.160000e+00
  P1ah SC4eq  1 4.300000e-01    2.320000e+00
  P1ah SC5eq  1 4.300000e-01    2.530000e+00
  P1ah SC6eq  1 4.300000e-01    2.920000e+00
  N6ah SX1eq  1 4.300000e-01    2.320000e+00
  N6ah SX2eq  1 4.300000e-01    2.530000e+00
  N6ah SX3eq  1 4.300000e-01    2.920000e+00
  N6ah SX4eq  1 4.300000e-01    2.930000e+00
  N6ah SC1eq  1 4.300000e-01    2.160000e+00
  N6ah SC2eq  1 4.300000e-01    2.320000e+00
  N6ah SC3eq  1 4.300000e-01    2.320000e+00
  N6ah SC4eq  1 4.300000e-01    2.530000e+00
  N6ah SC5eq  1 4.300000e-01    2.920000e+00
  N6ah SC6eq  1 4.300000e-01    2.930000e+00
  N5ah SX1eq  1 4.300000e-01    2.530000e+00
  N5ah SX2eq  1 4.300000e-01    2.920000e+00
  N5ah SX3eq  1 4.300000e-01    2.930000e+00
  N5ah SX4eq  1 4.300000e-01    3.160000e+00
  N5ah SC1eq  1 4.300000e-01    2.160000e+00
  N5ah SC2eq  1 4.300000e-01    2.320000e+00
  N5ah SC3eq  1 4.300000e-01    2.530000e+00
  N5ah SC4eq  1 4.300000e-01    2.530000e+00
  N5ah SC5eq  1 4.300000e-01    2.920000e+00
  N5ah SC6eq  1 4.300000e-01    2.930000e+00
  N4ah SX1eq  1 4.300000e-01    2.530000e+00
  N4ah SX2eq  1 4.300000e-01    2.920000e+00
  N4ah SX3eq  1 4.300000e-01    3.160000e+00
  N4ah SX4eq  1 4.300000e-01    3.380000e+00
  N4ah SC1eq  1 4.300000e-01    2.160000e+00
  N4ah SC2eq  1 4.300000e-01    2.320000e+00
  N4ah SC3eq  1 4.300000e-01    2.530000e+00
  N4ah SC4eq  1 4.300000e-01    2.920000e+00
  N4ah SC5eq  1 4.300000e-01    2.920000e+00
  N4ah SC6eq  1 4.300000e-01    2.930000e+00
  N3ah SX1eq  1 4.300000e-01    2.920000e+00
  N3ah SX2eq  1 4.300000e-01    2.920000e+00
  N3ah SX3eq  1 4.300000e-01    2.930000e+00
  N3ah SX4eq  1 4.300000e-01    3.160000e+00
  N3ah SC1eq  1 4.300000e-01    2.320000e+00
  N3ah SC2eq  1 4.300000e-01    2.530000e+00
  N3ah SC3eq  1 4.300000e-01    2.530000e+00
  N3ah SC4eq  1 4.300000e-01    2.920000e+00
  N3ah SC5eq  1 4.300000e-01    2.920000e+00
  N3ah SC6eq  1 4.300000e-01    2.930000e+00
  N2ah SX1eq  1 4.300000e-01    2.920000e+00
  N2ah SX2eq  1 4.300000e-01    2.920000e+00
  N2ah SX3eq  1 4.300000e-01    2.930000e+00
  N2ah SX4eq  1 4.300000e-01    3.160000e+00
  N2ah SC1eq  1 4.300000e-01    2.320000e+00
  N2ah SC2eq  1 4.300000e-01    2.530000e+00
  N2ah SC3eq  1 4.300000e-01    2.920000e+00
  N2ah SC4eq  1 4.300000e-01    2.920000e+00
  N2ah SC5eq  1 4.300000e-01    2.920000e+00
  N2ah SC6eq  1 4.300000e-01    2.930000e+00
  N1ah SX1eq  1 4.300000e-01    2.920000e+00
  N1ah SX2eq  1 4.300000e-01    2.920000e+00
  N1ah SX3eq  1 4.300000e-01    2.930000e+00
  N1ah SX4eq  1 4.300000e-01    2.930000e+00
  N1ah SC1eq  1 4.300000e-01    2.320000e+00
  N1ah SC2eq  1 4.300000e-01    2.530000e+00
  N1ah SC3eq  1 4.300000e-01    2.920000e+00
  N1ah SC4eq  1 4.300000e-01    2.930000e+00
  N1ah SC5eq  1 4.300000e-01    2.930000e+00
  N1ah SC6eq  1 4.300000e-01    3.160000e+00
 SP6ah  X1eq  1 4.300000e-01    2.160000e+00
 SP6ah  X2eq  1 4.300000e-01    2.320000e+00
 SP6ah  X3eq  1 4.300000e-01    2.530000e+00
 SP6ah  X4eq  1 4.300000e-01    2.530000e+00
 SP6ah  C1eq  1 4.730000e-01    1.280000e+00
 SP6ah  C2eq  1 4.300000e-01    1.730000e+00
 SP6ah  C3eq  1 4.300000e-01    1.730000e+00
 SP6ah  C4eq  1 4.300000e-01    1.930000e+00
 SP6ah  C5eq  1 4.300000e-01    2.160000e+00
 SP6ah  C6eq  1 4.300000e-01    2.320000e+00
 SP5ah  X1eq  1 4.300000e-01    2.160000e+00
 SP5ah  X2eq  1 4.300000e-01    2.530000e+00
 SP5ah  X3eq  1 4.300000e-01    2.530000e+00
 SP5ah  X4eq  1 4.300000e-01    2.920000e+00
 SP5ah  C1eq  1 4.300000e-01    1.730000e+00
 SP5ah  C2eq  1 4.300000e-01    1.930000e+00
 SP5ah  C3eq  1 4.300000e-01    1.930000e+00
 SP5ah  C4eq  1 4.300000e-01    2.160000e+00
 SP5ah  C5eq  1 4.300000e-01    2.320000e+00
 SP5ah  C6eq  1 4.300000e-01    2.320000e+00
 SP4ah  X1eq  1 4.300000e-01    2.320000e+00
 SP4ah  X2eq  1 4.300000e-01    2.530000e+00
 SP4ah  X3eq  1 4.300000e-01    2.530000e+00
 SP4ah  X4eq  1 4.300000e-01    2.920000e+00
 SP4ah  C1eq  1 4.300000e-01    1.730000e+00
 SP4ah  C2eq  1 4.300000e-01    1.930000e+00
 SP4ah  C3eq  1 4.300000e-01    1.930000e+00
 SP4ah  C4eq  1 4.300000e-01    2.160000e+00
 SP4ah  C5eq  1 4.300000e-01    2.320000e+00
 SP4ah  C6eq  1 4.300000e-01    2.530000e+00
 SP3ah  X1eq  1 4.300000e-01    2.320000e+00
 SP3ah  X2eq  1 4.300000e-01    2.530000e+00
 SP3ah  X3eq  1 4.300000e-01    2.920000e+00
 SP3ah  X4eq  1 4.300000e-01    2.920000e+00
 SP3ah  C1eq  1 4.300000e-01    1.730000e+00
 SP3ah  C2eq  1 4.300000e-01    1.930000e+00
 SP3ah  C3eq  1 4.300000e-01    1.930000e+00
 SP3ah  C4eq  1 4.300000e-01    2.320000e+00
 SP3ah  C5eq  1 4.300000e-01    2.530000e+00
 SP3ah  C6eq  1 4.300000e-01    2.920000e+00
 SP2ah  X1eq  1 4.300000e-01    2.320000e+00
 SP2ah  X2eq  1 4.300000e-01    2.530000e+00
 SP2ah  X3eq  1 4.300000e-01    2.920000e+00
 SP2ah  X4eq  1 4.300000e-01    2.920000e+00
 SP2ah  C1eq  1 4.300000e-01    1.930000e+00
 SP2ah  C2eq  1 4.300000e-01    2.160000e+00
 SP2ah  C3eq  1 4.300000e-01    2.160000e+00
 SP2ah  C4eq  1 4.300000e-01    2.320000e+00
 SP2ah  C5eq  1 4.300000e-01    2.530000e+00
 SP2ah  C6eq  1 4.300000e-01    2.920000e+00
 SP1ah  X1eq  1 4.300000e-01    2.320000e+00
 SP1ah  X2eq  1 4.300000e-01    2.530000e+00
 SP1ah  X3eq  1 4.300000e-01    2.920000e+00
 SP1ah  X4eq  1 4.300000e-01    2.920000e+00
 SP1ah  C1eq  1 4.300000e-01    1.930000e+00
 SP1ah  C2eq  1 4.300000e-01    2.160000e+00
 SP1ah  C3eq  1 4.300000e-01    2.160000e+00
 SP1ah  C4eq  1 4.300000e-01    2.320000e+00
 SP1ah  C5eq  1 4.300000e-01    2.530000e+00
 SP1ah  C6eq  1 4.300000e-01    2.920000e+00
 SN6ah  X1eq  1 4.300000e-01    2.320000e+00
 SN6ah  X2eq  1 4.300000e-01    2.530000e+00
 SN6ah  X3eq  1 4.300000e-01    2.920000e+00
 SN6ah  X4eq  1 4.300000e-01    2.930000e+00
 SN6ah  C1eq  1 4.300000e-01    2.160000e+00
 SN6ah  C2eq  1 4.300000e-01    2.320000e+00
 SN6ah  C3eq  1 4.300000e-01    2.320000e+00
 SN6ah  C4eq  1 4.300000e-01    2.530000e+00
 SN6ah  C5eq  1 4.300000e-01    2.920000e+00
 SN6ah  C6eq  1 4.300000e-01    2.930000e+00
 SN5ah  X1eq  1 4.300000e-01    2.530000e+00
 SN5ah  X2eq  1 4.300000e-01    2.920000e+00
 SN5ah  X3eq  1 4.300000e-01    2.930000e+00
 SN5ah  X4eq  1 4.300000e-01    3.160000e+00
 SN5ah  C1eq  1 4.300000e-01    2.160000e+00
 SN5ah  C2eq  1 4.300000e-01    2.320000e+00
 SN5ah  C3eq  1 4.300000e-01    2.530000e+00
 SN5ah  C4eq  1 4.300000e-01    2.530000e+00
 SN5ah  C5eq  1 4.300000e-01    2.920000e+00
 SN5ah  C6eq  1 4.300000e-01    2.930000e+00
 SN4ah  X1eq  1 4.300000e-01    2.530000e+00
 SN4ah  X2eq  1 4.300000e-01    2.920000e+00
 SN4ah  X3eq  1 4.300000e-01    3.160000e+00
 SN4ah  X4eq  1 4.300000e-01    3.380000e+00
 SN4ah  C1eq  1 4.300000e-01    2.160000e+00
 SN4ah  C2eq  1 4.300000e-01    2.320000e+00
 SN4ah  C3eq  1 4.300000e-01    2.530000e+00
 SN4ah  C4eq  1 4.300000e-01    2.920000e+00
 SN4ah  C5eq  1 4.300000e-01    2.920000e+00
 SN4ah  C6eq  1 4.300000e-01    2.930000e+00
 SN3ah  X1eq  1 4.300000e-01    2.920000e+00
 SN3ah  X2eq  1 4.300000e-01    2.920000e+00
 SN3ah  X3eq  1 4.300000e-01    2.930000e+00
 SN3ah  X4eq  1 4.300000e-01    3.160000e+00
 SN3ah  C1eq  1 4.300000e-01    2.320000e+00
 SN3ah  C2eq  1 4.300000e-01    2.530000e+00
 SN3ah  C3eq  1 4.300000e-01    2.530000e+00
 SN3ah  C4eq  1 4.300000e-01    2.920000e+00
 SN3ah  C5eq  1 4.300000e-01    2.920000e+00
 SN3ah  C6eq  1 4.300000e-01    2.930000e+00
 SN2ah  X1eq  1 4.300000e-01    2.920000e+00
 SN2ah  X2eq  1 4.300000e-01    2.920000e+00
 SN2ah  X3eq  1 4.300000e-01    2.930000e+00
 SN2ah  X4eq  1 4.300000e-01    3.160000e+00
 SN2ah  C1eq  1 4.300000e-01    2.320000e+00
 SN2ah  C2eq  1 4.300000e-01    2.530000e+00
 SN2ah  C3eq  1 4.300000e-01    2.920000e+00
 SN2ah  C4eq  1 4.300000e-01    2.920000e+00
 SN2ah  C5eq  1 4.300000e-01    2.920000e+00
 SN2ah  C6eq  1 4.300000e-01    2.930000e+00
 SN1ah  X1eq  1 4.300000e-01    2.920000e+00
 SN1ah  X2eq  1 4.300000e-01    2.920000e+00
 SN1ah  X3eq  1 4.300000e-01    2.930000e+00
 SN1ah  X4eq  1 4.300000e-01    2.930000e+00
 SN1ah  C1eq  1 4.300000e-01    2.320000e+00
 SN1ah  C2eq  1 4.300000e-01    2.530000e+00
 SN1ah  C3eq  1 4.300000e-01    2.920000e+00
 SN1ah  C4eq  1 4.300000e-01    2.930000e+00
 SN1ah  C5eq  1 4.300000e-01    2.930000e+00
 SN1ah  C6eq  1 4.300000e-01    3.160000e+00
  P6ah SC6eh  1 4.300000e-01    1.930000e+00
  P6ah SC5eh  1 4.300000e-01    1.730000e+00
  P6ah SC4eh  1 4.430000e-01    1.480000e+00
  P6ah SC3eh  1 4.730000e-01    1.280000e+00
  P6ah SC2eh  1 4.730000e-01    1.280000e+00
  P6ah SC1eh  1 5.140000e-01    1.110000e+00
  P6ah SX4eh  1 4.300000e-01    2.160000e+00
  P6ah SX3eh  1 4.300000e-01    2.160000e+00
  P6ah SX2eh  1 4.300000e-01    1.930000e+00
  P6ah SX1eh  1 4.300000e-01    1.730000e+00
  P5ah SC6eh  1 4.300000e-01    1.930000e+00
  P5ah SC5eh  1 4.300000e-01    1.930000e+00
  P5ah SC4eh  1 4.300000e-01    1.730000e+00
  P5ah SC3eh  1 4.430000e-01    1.480000e+00
  P5ah SC2eh  1 4.430000e-01    1.480000e+00
  P5ah SC1eh  1 4.730000e-01    1.280000e+00
  P5ah SX4eh  1 4.300000e-01    2.320000e+00
  P5ah SX3eh  1 4.300000e-01    2.160000e+00
  P5ah SX2eh  1 4.300000e-01    2.160000e+00
  P5ah SX1eh  1 4.300000e-01    1.730000e+00
  P4ah SC6eh  1 4.300000e-01    2.160000e+00
  P4ah SC5eh  1 4.300000e-01    1.930000e+00
  P4ah SC4eh  1 4.300000e-01    1.730000e+00
  P4ah SC3eh  1 4.430000e-01    1.480000e+00
  P4ah SC2eh  1 4.430000e-01    1.480000e+00
  P4ah SC1eh  1 4.730000e-01    1.280000e+00
  P4ah SX4eh  1 4.300000e-01    2.320000e+00
  P4ah SX3eh  1 4.300000e-01    2.160000e+00
  P4ah SX2eh  1 4.300000e-01    2.160000e+00
  P4ah SX1eh  1 4.300000e-01    1.930000e+00
  P3ah SC6eh  1 4.300000e-01    2.320000e+00
  P3ah SC5eh  1 4.300000e-01    2.160000e+00
  P3ah SC4eh  1 4.300000e-01    1.930000e+00
  P3ah SC3eh  1 4.430000e-01    1.480000e+00
  P3ah SC2eh  1 4.430000e-01    1.480000e+00
  P3ah SC1eh  1 4.730000e-01    1.280000e+00
  P3ah SX4eh  1 4.300000e-01    2.320000e+00
  P3ah SX3eh  1 4.300000e-01    2.320000e+00
  P3ah SX2eh  1 4.300000e-01    2.160000e+00
  P3ah SX1eh  1 4.300000e-01    1.930000e+00
  P2ah SC6eh  1 4.300000e-01    2.320000e+00
  P2ah SC5eh  1 4.300000e-01    2.160000e+00
  P2ah SC4eh  1 4.300000e-01    1.930000e+00
  P2ah SC3eh  1 4.300000e-01    1.730000e+00
  P2ah SC2eh  1 4.300000e-01    1.730000e+00
  P2ah SC1eh  1 4.430000e-01    1.480000e+00
  P2ah SX4eh  1 4.300000e-01    2.320000e+00
  P2ah SX3eh  1 4.300000e-01    2.320000e+00
  P2ah SX2eh  1 4.300000e-01    2.160000e+00
  P2ah SX1eh  1 4.300000e-01    1.930000e+00
  P1ah SC6eh  1 4.300000e-01    2.320000e+00
  P1ah SC5eh  1 4.300000e-01    2.160000e+00
  P1ah SC4eh  1 4.300000e-01    1.930000e+00
  P1ah SC3eh  1 4.300000e-01    1.730000e+00
  P1ah SC2eh  1 4.300000e-01    1.730000e+00
  P1ah SC1eh  1 4.430000e-01    1.480000e+00
  P1ah SX4eh  1 4.300000e-01    2.320000e+00
  P1ah SX3eh  1 4.300000e-01    2.320000e+00
  P1ah SX2eh  1 4.300000e-01    2.160000e+00
  P1ah SX1eh  1 4.300000e-01    1.930000e+00
  N6ah SC6eh  1 4.300000e-01    2.530000e+00
  N6ah SC5eh  1 4.300000e-01    2.320000e+00
  N6ah SC4eh  1 4.300000e-01    2.160000e+00
  N6ah SC3eh  1 4.300000e-01    1.930000e+00
  N6ah SC2eh  1 4.300000e-01    1.930000e+00
  N6ah SC1eh  1 4.300000e-01    1.730000e+00
  N6ah SX4eh  1 4.300000e-01    2.530000e+00
  N6ah SX3eh  1 4.300000e-01    2.320000e+00
  N6ah SX2eh  1 4.300000e-01    2.160000e+00
  N6ah SX1eh  1 4.300000e-01    1.930000e+00
  N5ah SC6eh  1 4.300000e-01    2.530000e+00
  N5ah SC5eh  1 4.300000e-01    2.320000e+00
  N5ah SC4eh  1 4.300000e-01    2.160000e+00
  N5ah SC3eh  1 4.300000e-01    2.160000e+00
  N5ah SC2eh  1 4.300000e-01    1.930000e+00
  N5ah SC1eh  1 4.300000e-01    1.730000e+00
  N5ah SX4eh  1 4.300000e-01    2.920000e+00
  N5ah SX3eh  1 4.300000e-01    2.530000e+00
  N5ah SX2eh  1 4.300000e-01    2.320000e+00
  N5ah SX1eh  1 4.300000e-01    2.160000e+00
  N4ah SC6eh  1 4.300000e-01    2.530000e+00
  N4ah SC5eh  1 4.300000e-01    2.320000e+00
  N4ah SC4eh  1 4.300000e-01    2.320000e+00
  N4ah SC3eh  1 4.300000e-01    2.160000e+00
  N4ah SC2eh  1 4.300000e-01    1.930000e+00
  N4ah SC1eh  1 4.300000e-01    1.730000e+00
  N4ah SX4eh  1 4.300000e-01    2.930000e+00
  N4ah SX3eh  1 4.300000e-01    2.920000e+00
  N4ah SX2eh  1 4.300000e-01    2.320000e+00
  N4ah SX1eh  1 4.300000e-01    2.160000e+00
  N3ah SC6eh  1 4.300000e-01    2.530000e+00
  N3ah SC5eh  1 4.300000e-01    2.320000e+00
  N3ah SC4eh  1 4.300000e-01    2.320000e+00
  N3ah SC3eh  1 4.300000e-01    2.160000e+00
  N3ah SC2eh  1 4.300000e-01    2.160000e+00
  N3ah SC1eh  1 4.300000e-01    1.930000e+00
  N3ah SX4eh  1 4.300000e-01    2.920000e+00
  N3ah SX3eh  1 4.300000e-01    2.530000e+00
  N3ah SX2eh  1 4.300000e-01    2.320000e+00
  N3ah SX1eh  1 4.300000e-01    2.320000e+00
  N2ah SC6eh  1 4.300000e-01    2.530000e+00
  N2ah SC5eh  1 4.300000e-01    2.320000e+00
  N2ah SC4eh  1 4.300000e-01    2.320000e+00
  N2ah SC3eh  1 4.300000e-01    2.320000e+00
  N2ah SC2eh  1 4.300000e-01    2.160000e+00
  N2ah SC1eh  1 4.300000e-01    1.930000e+00
  N2ah SX4eh  1 4.300000e-01    2.920000e+00
  N2ah SX3eh  1 4.300000e-01    2.530000e+00
  N2ah SX2eh  1 4.300000e-01    2.320000e+00
  N2ah SX1eh  1 4.300000e-01    2.320000e+00
  N1ah SC6eh  1 4.300000e-01    2.920000e+00
  N1ah SC5eh  1 4.300000e-01    2.530000e+00
  N1ah SC4eh  1 4.300000e-01    2.530000e+00
  N1ah SC3eh  1 4.300000e-01    2.320000e+00
  N1ah SC2eh  1 4.300000e-01    2.160000e+00
  N1ah SC1eh  1 4.300000e-01    1.930000e+00
  N1ah SX4eh  1 4.300000e-01    2.530000e+00
  N1ah SX3eh  1 4.300000e-01    2.530000e+00
  N1ah SX2eh  1 4.300000e-01    2.320000e+00
  N1ah SX1eh  1 4.300000e-01    2.320000e+00
 SP6ah  C6eh  1 4.300000e-01    1.930000e+00
 SP6ah  C5eh  1 4.300000e-01    1.730000e+00
 SP6ah  C4eh  1 4.430000e-01    1.480000e+00
 SP6ah  C3eh  1 4.730000e-01    1.280000e+00
 SP6ah  C2eh  1 4.730000e-01    1.280000e+00
 SP6ah  C1eh  1 5.140000e-01    1.110000e+00
 SP6ah  X4eh  1 4.300000e-01    2.160000e+00
 SP6ah  X3eh  1 4.300000e-01    2.160000e+00
 SP6ah  X2eh  1 4.300000e-01    1.930000e+00
 SP6ah  X1eh  1 4.300000e-01    1.730000e+00
 SP5ah  C6eh  1 4.300000e-01    1.930000e+00
 SP5ah  C5eh  1 4.300000e-01    1.930000e+00
 SP5ah  C4eh  1 4.300000e-01    1.730000e+00
 SP5ah  C3eh  1 4.430000e-01    1.480000e+00
 SP5ah  C2eh  1 4.430000e-01    1.480000e+00
 SP5ah  C1eh  1 4.730000e-01    1.280000e+00
 SP5ah  X4eh  1 4.300000e-01    2.320000e+00
 SP5ah  X3eh  1 4.300000e-01    2.160000e+00
 SP5ah  X2eh  1 4.300000e-01    2.160000e+00
 SP5ah  X1eh  1 4.300000e-01    1.730000e+00
 SP4ah  C6eh  1 4.300000e-01    2.160000e+00
 SP4ah  C5eh  1 4.300000e-01    1.930000e+00
 SP4ah  C4eh  1 4.300000e-01    1.730000e+00
 SP4ah  C3eh  1 4.430000e-01    1.480000e+00
 SP4ah  C2eh  1 4.430000e-01    1.480000e+00
 SP4ah  C1eh  1 4.730000e-01    1.280000e+00
 SP4ah  X4eh  1 4.300000e-01    2.320000e+00
 SP4ah  X3eh  1 4.300000e-01    2.160000e+00
 SP4ah  X2eh  1 4.300000e-01    2.160000e+00
 SP4ah  X1eh  1 4.300000e-01    1.930000e+00
 SP3ah  C6eh  1 4.300000e-01    2.320000e+00
 SP3ah  C5eh  1 4.300000e-01    2.160000e+00
 SP3ah  C4eh  1 4.300000e-01    1.930000e+00
 SP3ah  C3eh  1 4.430000e-01    1.480000e+00
 SP3ah  C2eh  1 4.430000e-01    1.480000e+00
 SP3ah  C1eh  1 4.730000e-01    1.280000e+00
 SP3ah  X4eh  1 4.300000e-01    2.320000e+00
 SP3ah  X3eh  1 4.300000e-01    2.320000e+00
 SP3ah  X2eh  1 4.300000e-01    2.160000e+00
 SP3ah  X1eh  1 4.300000e-01    1.930000e+00
 SP2ah  C6eh  1 4.300000e-01    2.320000e+00
 SP2ah  C5eh  1 4.300000e-01    2.160000e+00
 SP2ah  C4eh  1 4.300000e-01    1.930000e+00
 SP2ah  C3eh  1 4.300000e-01    1.730000e+00
 SP2ah  C2eh  1 4.300000e-01    1.730000e+00
 SP2ah  C1eh  1 4.430000e-01    1.480000e+00
 SP2ah  X4eh  1 4.300000e-01    2.320000e+00
 SP2ah  X3eh  1 4.300000e-01    2.320000e+00
 SP2ah  X2eh  1 4.300000e-01    2.160000e+00
 SP2ah  X1eh  1 4.300000e-01    1.930000e+00
 SP1ah  C6eh  1 4.300000e-01    2.320000e+00
 SP1ah  C5eh  1 4.300000e-01    2.160000e+00
 SP1ah  C4eh  1 4.300000e-01    1.930000e+00
 SP1ah  C3eh  1 4.300000e-01    1.730000e+00
 SP1ah  C2eh  1 4.300000e-01    1.730000e+00
 SP1ah  C1eh  1 4.430000e-01    1.480000e+00
 SP1ah  X4eh  1 4.300000e-01    2.320000e+00
 SP1ah  X3eh  1 4.300000e-01    2.320000e+00
 SP1ah  X2eh  1 4.300000e-01    2.160000e+00
 SP1ah  X1eh  1 4.300000e-01    1.930000e+00
 SN6ah  C6eh  1 4.300000e-01    2.530000e+00
 SN6ah  C5eh  1 4.300000e-01    2.320000e+00
 SN6ah  C4eh  1 4.300000e-01    2.160000e+00
 SN6ah  C3eh  1 4.300000e-01    1.930000e+00
 SN6ah  C2eh  1 4.300000e-01    1.930000e+00
 SN6ah  C1eh  1 4.300000e-01    1.730000e+00
 SN6ah  X4eh  1 4.300000e-01    2.530000e+00
 SN6ah  X3eh  1 4.300000e-01    2.320000e+00
 SN6ah  X2eh  1 4.300000e-01    2.160000e+00
 SN6ah  X1eh  1 4.300000e-01    1.930000e+00
 SN5ah  C6eh  1 4.300000e-01    2.530000e+00
 SN5ah  C5eh  1 4.300000e-01    2.320000e+00
 SN5ah  C4eh  1 4.300000e-01    2.160000e+00
 SN5ah  C3eh  1 4.300000e-01    2.160000e+00
 SN5ah  C2eh  1 4.300000e-01    1.930000e+00
 SN5ah  C1eh  1 4.300000e-01    1.730000e+00
 SN5ah  X4eh  1 4.300000e-01    2.920000e+00
 SN5ah  X3eh  1 4.300000e-01    2.530000e+00
 SN5ah  X2eh  1 4.300000e-01    2.320000e+00
 SN5ah  X1eh  1 4.300000e-01    2.160000e+00
 SN4ah  C6eh  1 4.300000e-01    2.530000e+00
 SN4ah  C5eh  1 4.300000e-01    2.320000e+00
 SN4ah  C4eh  1 4.300000e-01    2.320000e+00
 SN4ah  C3eh  1 4.300000e-01    2.160000e+00
 SN4ah  C2eh  1 4.300000e-01    1.930000e+00
 SN4ah  C1eh  1 4.300000e-01    1.730000e+00
 SN4ah  X4eh  1 4.300000e-01    2.930000e+00
 SN4ah  X3eh  1 4.300000e-01    2.920000e+00
 SN4ah  X2eh  1 4.300000e-01    2.320000e+00
 SN4ah  X1eh  1 4.300000e-01    2.160000e+00
 SN3ah  C6eh  1 4.300000e-01    2.530000e+00
 SN3ah  C5eh  1 4.300000e-01    2.320000e+00
 SN3ah  C4eh  1 4.300000e-01    2.320000e+00
 SN3ah  C3eh  1 4.300000e-01    2.160000e+00
 SN3ah  C2eh  1 4.300000e-01    2.160000e+00
 SN3ah  C1eh  1 4.300000e-01    1.930000e+00
 SN3ah  X4eh  1 4.300000e-01    2.920000e+00
 SN3ah  X3eh  1 4.300000e-01    2.530000e+00
 SN3ah  X2eh  1 4.300000e-01    2.320000e+00
 SN3ah  X1eh  1 4.300000e-01    2.320000e+00
 SN2ah  C6eh  1 4.300000e-01    2.530000e+00
 SN2ah  C5eh  1 4.300000e-01    2.320000e+00
 SN2ah  C4eh  1 4.300000e-01    2.320000e+00
 SN2ah  C3eh  1 4.300000e-01    2.320000e+00
 SN2ah  C2eh  1 4.300000e-01    2.160000e+00
 SN2ah  C1eh  1 4.300000e-01    1.930000e+00
 SN2ah  X4eh  1 4.300000e-01    2.920000e+00
 SN2ah  X3eh  1 4.300000e-01    2.530000e+00
 SN2ah  X2eh  1 4.300000e-01    2.320000e+00
 SN2ah  X1eh  1 4.300000e-01    2.320000e+00
 SN1ah  C6eh  1 4.300000e-01    2.920000e+00
 SN1ah  C5eh  1 4.300000e-01    2.530000e+00
 SN1ah  C4eh  1 4.300000e-01    2.530000e+00
 SN1ah  C3eh  1 4.300000e-01    2.320000e+00
 SN1ah  C2eh  1 4.300000e-01    2.160000e+00
 SN1ah  C1eh  1 4.300000e-01    1.930000e+00
 SN1ah  X4eh  1 4.300000e-01    2.530000e+00
 SN1ah  X3eh  1 4.300000e-01    2.530000e+00
 SN1ah  X2eh  1 4.300000e-01    2.320000e+00
 SN1ah  X1eh  1 4.300000e-01    2.320000e+00
  P6ah SC6er  1 4.300000e-01    1.930000e+00
  P6ah SC5er  1 4.300000e-01    1.730000e+00
  P6ah SC4er  1 4.430000e-01    1.480000e+00
  P6ah SC3er  1 4.730000e-01    1.280000e+00
  P6ah SC2er  1 4.730000e-01    1.280000e+00
  P6ah SC1er  1 5.140000e-01    1.110000e+00
  P6ah SX4er  1 4.300000e-01    2.160000e+00
  P6ah SX3er  1 4.300000e-01    2.160000e+00
  P6ah SX2er  1 4.300000e-01    1.930000e+00
  P6ah SX1er  1 4.300000e-01    1.730000e+00
  P5ah SC6er  1 4.300000e-01    1.930000e+00
  P5ah SC5er  1 4.300000e-01    1.930000e+00
  P5ah SC4er  1 4.300000e-01    1.730000e+00
  P5ah SC3er  1 4.430000e-01    1.480000e+00
  P5ah SC2er  1 4.430000e-01    1.480000e+00
  P5ah SC1er  1 4.730000e-01    1.280000e+00
  P5ah SX4er  1 4.300000e-01    2.320000e+00
  P5ah SX3er  1 4.300000e-01    2.160000e+00
  P5ah SX2er  1 4.300000e-01    2.160000e+00
  P5ah SX1er  1 4.300000e-01    1.730000e+00
  P4ah SC6er  1 4.300000e-01    2.160000e+00
  P4ah SC5er  1 4.300000e-01    1.930000e+00
  P4ah SC4er  1 4.300000e-01    1.730000e+00
  P4ah SC3er  1 4.430000e-01    1.480000e+00
  P4ah SC2er  1 4.430000e-01    1.480000e+00
  P4ah SC1er  1 4.730000e-01    1.280000e+00
  P4ah SX4er  1 4.300000e-01    2.320000e+00
  P4ah SX3er  1 4.300000e-01    2.160000e+00
  P4ah SX2er  1 4.300000e-01    2.160000e+00
  P4ah SX1er  1 4.300000e-01    1.930000e+00
  P3ah SC6er  1 4.300000e-01    2.320000e+00
  P3ah SC5er  1 4.300000e-01    2.160000e+00
  P3ah SC4er  1 4.300000e-01    1.930000e+00
  P3ah SC3er  1 4.430000e-01    1.480000e+00
  P3ah SC2er  1 4.430000e-01    1.480000e+00
  P3ah SC1er  1 4.730000e-01    1.280000e+00
  P3ah SX4er  1 4.300000e-01    2.320000e+00
  P3ah SX3er  1 4.300000e-01    2.320000e+00
  P3ah SX2er  1 4.300000e-01    2.160000e+00
  P3ah SX1er  1 4.300000e-01    1.930000e+00
  P2ah SC6er  1 4.300000e-01    2.320000e+00
  P2ah SC5er  1 4.300000e-01    2.160000e+00
  P2ah SC4er  1 4.300000e-01    1.930000e+00
  P2ah SC3er  1 4.300000e-01    1.730000e+00
  P2ah SC2er  1 4.300000e-01    1.730000e+00
  P2ah SC1er  1 4.430000e-01    1.480000e+00
  P2ah SX4er  1 4.300000e-01    2.320000e+00
  P2ah SX3er  1 4.300000e-01    2.320000e+00
  P2ah SX2er  1 4.300000e-01    2.160000e+00
  P2ah SX1er  1 4.300000e-01    1.930000e+00
  P1ah SC6er  1 4.300000e-01    2.320000e+00
  P1ah SC5er  1 4.300000e-01    2.160000e+00
  P1ah SC4er  1 4.300000e-01    1.930000e+00
  P1ah SC3er  1 4.300000e-01    1.730000e+00
  P1ah SC2er  1 4.300000e-01    1.730000e+00
  P1ah SC1er  1 4.430000e-01    1.480000e+00
  P1ah SX4er  1 4.300000e-01    2.320000e+00
  P1ah SX3er  1 4.300000e-01    2.320000e+00
  P1ah SX2er  1 4.300000e-01    2.160000e+00
  P1ah SX1er  1 4.300000e-01    1.930000e+00
  N6ah SC6er  1 4.300000e-01    2.530000e+00
  N6ah SC5er  1 4.300000e-01    2.320000e+00
  N6ah SC4er  1 4.300000e-01    2.160000e+00
  N6ah SC3er  1 4.300000e-01    1.930000e+00
  N6ah SC2er  1 4.300000e-01    1.930000e+00
  N6ah SC1er  1 4.300000e-01    1.730000e+00
  N6ah SX4er  1 4.300000e-01    2.530000e+00
  N6ah SX3er  1 4.300000e-01    2.320000e+00
  N6ah SX2er  1 4.300000e-01    2.160000e+00
  N6ah SX1er  1 4.300000e-01    1.930000e+00
  N5ah SC6er  1 4.300000e-01    2.530000e+00
  N5ah SC5er  1 4.300000e-01    2.320000e+00
  N5ah SC4er  1 4.300000e-01    2.160000e+00
  N5ah SC3er  1 4.300000e-01    2.160000e+00
  N5ah SC2er  1 4.300000e-01    1.930000e+00
  N5ah SC1er  1 4.300000e-01    1.730000e+00
  N5ah SX4er  1 4.300000e-01    2.920000e+00
  N5ah SX3er  1 4.300000e-01    2.530000e+00
  N5ah SX2er  1 4.300000e-01    2.320000e+00
  N5ah SX1er  1 4.300000e-01    2.160000e+00
  N4ah SC6er  1 4.300000e-01    2.530000e+00
  N4ah SC5er  1 4.300000e-01    2.320000e+00
  N4ah SC4er  1 4.300000e-01    2.320000e+00
  N4ah SC3er  1 4.300000e-01    2.160000e+00
  N4ah SC2er  1 4.300000e-01    1.930000e+00
  N4ah SC1er  1 4.300000e-01    1.730000e+00
  N4ah SX4er  1 4.300000e-01    2.930000e+00
  N4ah SX3er  1 4.300000e-01    2.920000e+00
  N4ah SX2er  1 4.300000e-01    2.320000e+00
  N4ah SX1er  1 4.300000e-01    2.160000e+00
  N3ah SC6er  1 4.300000e-01    2.530000e+00
  N3ah SC5er  1 4.300000e-01    2.320000e+00
  N3ah SC4er  1 4.300000e-01    2.320000e+00
  N3ah SC3er  1 4.300000e-01    2.160000e+00
  N3ah SC2er  1 4.300000e-01    2.160000e+00
  N3ah SC1er  1 4.300000e-01    1.930000e+00
  N3ah SX4er  1 4.300000e-01    2.920000e+00
  N3ah SX3er  1 4.300000e-01    2.530000e+00
  N3ah SX2er  1 4.300000e-01    2.320000e+00
  N3ah SX1er  1 4.300000e-01    2.320000e+00
  N2ah SC6er  1 4.300000e-01    2.530000e+00
  N2ah SC5er  1 4.300000e-01    2.320000e+00
  N2ah SC4er  1 4.300000e-01    2.320000e+00
  N2ah SC3er  1 4.300000e-01    2.320000e+00
  N2ah SC2er  1 4.300000e-01    2.160000e+00
  N2ah SC1er  1 4.300000e-01    1.930000e+00
  N2ah SX4er  1 4.300000e-01    2.920000e+00
  N2ah SX3er  1 4.300000e-01    2.530000e+00
  N2ah SX2er  1 4.300000e-01    2.320000e+00
  N2ah SX1er  1 4.300000e-01    2.320000e+00
  N1ah SC6er  1 4.300000e-01    2.920000e+00
  N1ah SC5er  1 4.300000e-01    2.530000e+00
  N1ah SC4er  1 4.300000e-01    2.530000e+00
  N1ah SC3er  1 4.300000e-01    2.320000e+00
  N1ah SC2er  1 4.300000e-01    2.160000e+00
  N1ah SC1er  1 4.300000e-01    1.930000e+00
  N1ah SX4er  1 4.300000e-01    2.530000e+00
  N1ah SX3er  1 4.300000e-01    2.530000e+00
  N1ah SX2er  1 4.300000e-01    2.320000e+00
  N1ah SX1er  1 4.300000e-01    2.320000e+00
 SP6ah  C6er  1 4.300000e-01    1.930000e+00
 SP6ah  C5er  1 4.300000e-01    1.730000e+00
 SP6ah  C4er  1 4.430000e-01    1.480000e+00
 SP6ah  C3er  1 4.730000e-01    1.280000e+00
 SP6ah  C2er  1 4.730000e-01    1.280000e+00
 SP6ah  C1er  1 5.140000e-01    1.110000e+00
 SP6ah  X4er  1 4.300000e-01    2.160000e+00
 SP6ah  X3er  1 4.300000e-01    2.160000e+00
 SP6ah  X2er  1 4.300000e-01    1.930000e+00
 SP6ah  X1er  1 4.300000e-01    1.730000e+00
 SP5ah  C6er  1 4.300000e-01    1.930000e+00
 SP5ah  C5er  1 4.300000e-01    1.930000e+00
 SP5ah  C4er  1 4.300000e-01    1.730000e+00
 SP5ah  C3er  1 4.430000e-01    1.480000e+00
 SP5ah  C2er  1 4.430000e-01    1.480000e+00
 SP5ah  C1er  1 4.730000e-01    1.280000e+00
 SP5ah  X4er  1 4.300000e-01    2.320000e+00
 SP5ah  X3er  1 4.300000e-01    2.160000e+00
 SP5ah  X2er  1 4.300000e-01    2.160000e+00
 SP5ah  X1er  1 4.300000e-01    1.730000e+00
 SP4ah  C6er  1 4.300000e-01    2.160000e+00
 SP4ah  C5er  1 4.300000e-01    1.930000e+00
 SP4ah  C4er  1 4.300000e-01    1.730000e+00
 SP4ah  C3er  1 4.430000e-01    1.480000e+00
 SP4ah  C2er  1 4.430000e-01    1.480000e+00
 SP4ah  C1er  1 4.730000e-01    1.280000e+00
 SP4ah  X4er  1 4.300000e-01    2.320000e+00
 SP4ah  X3er  1 4.300000e-01    2.160000e+00
 SP4ah  X2er  1 4.300000e-01    2.160000e+00
 SP4ah  X1er  1 4.300000e-01    1.930000e+00
 SP3ah  C6er  1 4.300000e-01    2.320000e+00
 SP3ah  C5er  1 4.300000e-01    2.160000e+00
 SP3ah  C4er  1 4.300000e-01    1.930000e+00
 SP3ah  C3er  1 4.430000e-01    1.480000e+00
 SP3ah  C2er  1 4.430000e-01    1.480000e+00
 SP3ah  C1er  1 4.730000e-01    1.280000e+00
 SP3ah  X4er  1 4.300000e-01    2.320000e+00
 SP3ah  X3er  1 4.300000e-01    2.320000e+00
 SP3ah  X2er  1 4.300000e-01    2.160000e+00
 SP3ah  X1er  1 4.300000e-01    1.930000e+00
 SP2ah  C6er  1 4.300000e-01    2.320000e+00
 SP2ah  C5er  1 4.300000e-01    2.160000e+00
 SP2ah  C4er  1 4.300000e-01    1.930000e+00
 SP2ah  C3er  1 4.300000e-01    1.730000e+00
 SP2ah  C2er  1 4.300000e-01    1.730000e+00
 SP2ah  C1er  1 4.430000e-01    1.480000e+00
 SP2ah  X4er  1 4.300000e-01    2.320000e+00
 SP2ah  X3er  1 4.300000e-01    2.320000e+00
 SP2ah  X2er  1 4.300000e-01    2.160000e+00
 SP2ah  X1er  1 4.300000e-01    1.930000e+00
 SP1ah  C6er  1 4.300000e-01    2.320000e+00
 SP1ah  C5er  1 4.300000e-01    2.160000e+00
 SP1ah  C4er  1 4.300000e-01    1.930000e+00
 SP1ah  C3er  1 4.300000e-01    1.730000e+00
 SP1ah  C2er  1 4.300000e-01    1.730000e+00
 SP1ah  C1er  1 4.430000e-01    1.480000e+00
 SP1ah  X4er  1 4.300000e-01    2.320000e+00
 SP1ah  X3er  1 4.300000e-01    2.320000e+00
 SP1ah  X2er  1 4.300000e-01    2.160000e+00
 SP1ah  X1er  1 4.300000e-01    1.930000e+00
 SN6ah  C6er  1 4.300000e-01    2.530000e+00
 SN6ah  C5er  1 4.300000e-01    2.320000e+00
 SN6ah  C4er  1 4.300000e-01    2.160000e+00
 SN6ah  C3er  1 4.300000e-01    1.930000e+00
 SN6ah  C2er  1 4.300000e-01    1.930000e+00
 SN6ah  C1er  1 4.300000e-01    1.730000e+00
 SN6ah  X4er  1 4.300000e-01    2.530000e+00
 SN6ah  X3er  1 4.300000e-01    2.320000e+00
 SN6ah  X2er  1 4.300000e-01    2.160000e+00
 SN6ah  X1er  1 4.300000e-01    1.930000e+00
 SN5ah  C6er  1 4.300000e-01    2.530000e+00
 SN5ah  C5er  1 4.300000e-01    2.320000e+00
 SN5ah  C4er  1 4.300000e-01    2.160000e+00
 SN5ah  C3er  1 4.300000e-01    2.160000e+00
 SN5ah  C2er  1 4.300000e-01    1.930000e+00
 SN5ah  C1er  1 4.300000e-01    1.730000e+00
 SN5ah  X4er  1 4.300000e-01    2.920000e+00
 SN5ah  X3er  1 4.300000e-01    2.530000e+00
 SN5ah  X2er  1 4.300000e-01    2.320000e+00
 SN5ah  X1er  1 4.300000e-01    2.160000e+00
 SN4ah  C6er  1 4.300000e-01    2.530000e+00
 SN4ah  C5er  1 4.300000e-01    2.320000e+00
 SN4ah  C4er  1 4.300000e-01    2.320000e+00
 SN4ah  C3er  1 4.300000e-01    2.160000e+00
 SN4ah  C2er  1 4.300000e-01    1.930000e+00
 SN4ah  C1er  1 4.300000e-01    1.730000e+00
 SN4ah  X4er  1 4.300000e-01    2.930000e+00
 SN4ah  X3er  1 4.300000e-01    2.920000e+00
 SN4ah  X2er  1 4.300000e-01    2.320000e+00
 SN4ah  X1er  1 4.300000e-01    2.160000e+00
 SN3ah  C6er  1 4.300000e-01    2.530000e+00
 SN3ah  C5er  1 4.300000e-01    2.320000e+00
 SN3ah  C4er  1 4.300000e-01    2.320000e+00
 SN3ah  C3er  1 4.300000e-01    2.160000e+00
 SN3ah  C2er  1 4.300000e-01    2.160000e+00
 SN3ah  C1er  1 4.300000e-01    1.930000e+00
 SN3ah  X4er  1 4.300000e-01    2.920000e+00
 SN3ah  X3er  1 4.300000e-01    2.530000e+00
 SN3ah  X2er  1 4.300000e-01    2.320000e+00
 SN3ah  X1er  1 4.300000e-01    2.320000e+00
 SN2ah  C6er  1 4.300000e-01    2.530000e+00
 SN2ah  C5er  1 4.300000e-01    2.320000e+00
 SN2ah  C4er  1 4.300000e-01    2.320000e+00
 SN2ah  C3er  1 4.300000e-01    2.320000e+00
 SN2ah  C2er  1 4.300000e-01    2.160000e+00
 SN2ah  C1er  1 4.300000e-01    1.930000e+00
 SN2ah  X4er  1 4.300000e-01    2.920000e+00
 SN2ah  X3er  1 4.300000e-01    2.530000e+00
 SN2ah  X2er  1 4.300000e-01    2.320000e+00
 SN2ah  X1er  1 4.300000e-01    2.320000e+00
 SN1ah  C6er  1 4.300000e-01    2.920000e+00
 SN1ah  C5er  1 4.300000e-01    2.530000e+00
 SN1ah  C4er  1 4.300000e-01    2.530000e+00
 SN1ah  C3er  1 4.300000e-01    2.320000e+00
 SN1ah  C2er  1 4.300000e-01    2.160000e+00
 SN1ah  C1er  1 4.300000e-01    1.930000e+00
 SN1ah  X4er  1 4.300000e-01    2.530000e+00
 SN1ah  X3er  1 4.300000e-01    2.530000e+00
 SN1ah  X2er  1 4.300000e-01    2.320000e+00
 SN1ah  X1er  1 4.300000e-01    2.320000e+00
  P6ar  SC6e  1 4.300000e-01    1.930000e+00
  P6ar  SC5e  1 4.300000e-01    1.730000e+00
  P6ar  SC4e  1 4.430000e-01    1.480000e+00
  P6ar  SC3e  1 4.730000e-01    1.280000e+00
  P6ar  SC2e  1 4.730000e-01    1.280000e+00
  P6ar  SC1e  1 5.140000e-01    1.110000e+00
  P6ar  SX4e  1 4.300000e-01    2.160000e+00
  P6ar  SX3e  1 4.300000e-01    2.160000e+00
  P6ar  SX2e  1 4.300000e-01    1.930000e+00
  P6ar  SX1e  1 4.300000e-01    1.730000e+00
  P5ar  SC6e  1 4.300000e-01    1.930000e+00
  P5ar  SC5e  1 4.300000e-01    1.930000e+00
  P5ar  SC4e  1 4.300000e-01    1.730000e+00
  P5ar  SC3e  1 4.430000e-01    1.480000e+00
  P5ar  SC2e  1 4.430000e-01    1.480000e+00
  P5ar  SC1e  1 4.730000e-01    1.280000e+00
  P5ar  SX4e  1 4.300000e-01    2.320000e+00
  P5ar  SX3e  1 4.300000e-01    2.160000e+00
  P5ar  SX2e  1 4.300000e-01    2.160000e+00
  P5ar  SX1e  1 4.300000e-01    1.730000e+00
  P4ar  SC6e  1 4.300000e-01    2.160000e+00
  P4ar  SC5e  1 4.300000e-01    1.930000e+00
  P4ar  SC4e  1 4.300000e-01    1.730000e+00
  P4ar  SC3e  1 4.430000e-01    1.480000e+00
  P4ar  SC2e  1 4.430000e-01    1.480000e+00
  P4ar  SC1e  1 4.730000e-01    1.280000e+00
  P4ar  SX4e  1 4.300000e-01    2.320000e+00
  P4ar  SX3e  1 4.300000e-01    2.160000e+00
  P4ar  SX2e  1 4.300000e-01    2.160000e+00
  P4ar  SX1e  1 4.300000e-01    1.930000e+00
  P3ar  SC6e  1 4.300000e-01    2.320000e+00
  P3ar  SC5e  1 4.300000e-01    2.160000e+00
  P3ar  SC4e  1 4.300000e-01    1.930000e+00
  P3ar  SC3e  1 4.430000e-01    1.480000e+00
  P3ar  SC2e  1 4.430000e-01    1.480000e+00
  P3ar  SC1e  1 4.730000e-01    1.280000e+00
  P3ar  SX4e  1 4.300000e-01    2.320000e+00
  P3ar  SX3e  1 4.300000e-01    2.320000e+00
  P3ar  SX2e  1 4.300000e-01    2.160000e+00
  P3ar  SX1e  1 4.300000e-01    1.930000e+00
  P2ar  SC6e  1 4.300000e-01    2.320000e+00
  P2ar  SC5e  1 4.300000e-01    2.160000e+00
  P2ar  SC4e  1 4.300000e-01    1.930000e+00
  P2ar  SC3e  1 4.300000e-01    1.730000e+00
  P2ar  SC2e  1 4.300000e-01    1.730000e+00
  P2ar  SC1e  1 4.430000e-01    1.480000e+00
  P2ar  SX4e  1 4.300000e-01    2.320000e+00
  P2ar  SX3e  1 4.300000e-01    2.320000e+00
  P2ar  SX2e  1 4.300000e-01    2.160000e+00
  P2ar  SX1e  1 4.300000e-01    1.930000e+00
  P1ar  SC6e  1 4.300000e-01    2.320000e+00
  P1ar  SC5e  1 4.300000e-01    2.160000e+00
  P1ar  SC4e  1 4.300000e-01    1.930000e+00
  P1ar  SC3e  1 4.300000e-01    1.730000e+00
  P1ar  SC2e  1 4.300000e-01    1.730000e+00
  P1ar  SC1e  1 4.430000e-01    1.480000e+00
  P1ar  SX4e  1 4.300000e-01    2.320000e+00
  P1ar  SX3e  1 4.300000e-01    2.320000e+00
  P1ar  SX2e  1 4.300000e-01    2.160000e+00
  P1ar  SX1e  1 4.300000e-01    1.930000e+00
  N6ar  SC6e  1 4.300000e-01    2.530000e+00
  N6ar  SC5e  1 4.300000e-01    2.320000e+00
  N6ar  SC4e  1 4.300000e-01    2.160000e+00
  N6ar  SC3e  1 4.300000e-01    1.930000e+00
  N6ar  SC2e  1 4.300000e-01    1.930000e+00
  N6ar  SC1e  1 4.300000e-01    1.730000e+00
  N6ar  SX4e  1 4.300000e-01    2.530000e+00
  N6ar  SX3e  1 4.300000e-01    2.320000e+00
  N6ar  SX2e  1 4.300000e-01    2.160000e+00
  N6ar  SX1e  1 4.300000e-01    1.930000e+00
  N5ar  SC6e  1 4.300000e-01    2.530000e+00
  N5ar  SC5e  1 4.300000e-01    2.320000e+00
  N5ar  SC4e  1 4.300000e-01    2.160000e+00
  N5ar  SC3e  1 4.300000e-01    2.160000e+00
  N5ar  SC2e  1 4.300000e-01    1.930000e+00
  N5ar  SC1e  1 4.300000e-01    1.730000e+00
  N5ar  SX4e  1 4.300000e-01    2.920000e+00
  N5ar  SX3e  1 4.300000e-01    2.530000e+00
  N5ar  SX2e  1 4.300000e-01    2.320000e+00
  N5ar  SX1e  1 4.300000e-01    2.160000e+00
  N4ar  SC6e  1 4.300000e-01    2.530000e+00
  N4ar  SC5e  1 4.300000e-01    2.320000e+00
  N4ar  SC4e  1 4.300000e-01    2.320000e+00
  N4ar  SC3e  1 4.300000e-01    2.160000e+00
  N4ar  SC2e  1 4.300000e-01    1.930000e+00
  N4ar  SC1e  1 4.300000e-01    1.730000e+00
  N4ar  SX4e  1 4.300000e-01    2.930000e+00
  N4ar  SX3e  1 4.300000e-01    2.920000e+00
  N4ar  SX2e  1 4.300000e-01    2.320000e+00
  N4ar  SX1e  1 4.300000e-01    2.160000e+00
  N3ar  SC6e  1 4.300000e-01    2.530000e+00
  N3ar  SC5e  1 4.300000e-01    2.320000e+00
  N3ar  SC4e  1 4.300000e-01    2.320000e+00
  N3ar  SC3e  1 4.300000e-01    2.160000e+00
  N3ar  SC2e  1 4.300000e-01    2.160000e+00
  N3ar  SC1e  1 4.300000e-01    1.930000e+00
  N3ar  SX4e  1 4.300000e-01    2.920000e+00
  N3ar  SX3e  1 4.300000e-01    2.530000e+00
  N3ar  SX2e  1 4.300000e-01    2.320000e+00
  N3ar  SX1e  1 4.300000e-01    2.320000e+00
  N2ar  SC6e  1 4.300000e-01    2.530000e+00
  N2ar  SC5e  1 4.300000e-01    2.320000e+00
  N2ar  SC4e  1 4.300000e-01    2.320000e+00
  N2ar  SC3e  1 4.300000e-01    2.320000e+00
  N2ar  SC2e  1 4.300000e-01    2.160000e+00
  N2ar  SC1e  1 4.300000e-01    1.930000e+00
  N2ar  SX4e  1 4.300000e-01    2.920000e+00
  N2ar  SX3e  1 4.300000e-01    2.530000e+00
  N2ar  SX2e  1 4.300000e-01    2.320000e+00
  N2ar  SX1e  1 4.300000e-01    2.320000e+00
  N1ar  SC6e  1 4.300000e-01    2.920000e+00
  N1ar  SC5e  1 4.300000e-01    2.530000e+00
  N1ar  SC4e  1 4.300000e-01    2.530000e+00
  N1ar  SC3e  1 4.300000e-01    2.320000e+00
  N1ar  SC2e  1 4.300000e-01    2.160000e+00
  N1ar  SC1e  1 4.300000e-01    1.930000e+00
  N1ar  SX4e  1 4.300000e-01    2.530000e+00
  N1ar  SX3e  1 4.300000e-01    2.530000e+00
  N1ar  SX2e  1 4.300000e-01    2.320000e+00
  N1ar  SX1e  1 4.300000e-01    2.320000e+00
 SP6ar   C6e  1 4.300000e-01    1.930000e+00
 SP6ar   C5e  1 4.300000e-01    1.730000e+00
 SP6ar   C4e  1 4.430000e-01    1.480000e+00
 SP6ar   C3e  1 4.730000e-01    1.280000e+00
 SP6ar   C2e  1 4.730000e-01    1.280000e+00
 SP6ar   C1e  1 5.140000e-01    1.110000e+00
 SP6ar   X4e  1 4.300000e-01    2.160000e+00
 SP6ar   X3e  1 4.300000e-01    2.160000e+00
 SP6ar   X2e  1 4.300000e-01    1.930000e+00
 SP6ar   X1e  1 4.300000e-01    1.730000e+00
 SP5ar   C6e  1 4.300000e-01    1.930000e+00
 SP5ar   C5e  1 4.300000e-01    1.930000e+00
 SP5ar   C4e  1 4.300000e-01    1.730000e+00
 SP5ar   C3e  1 4.430000e-01    1.480000e+00
 SP5ar   C2e  1 4.430000e-01    1.480000e+00
 SP5ar   C1e  1 4.730000e-01    1.280000e+00
 SP5ar   X4e  1 4.300000e-01    2.320000e+00
 SP5ar   X3e  1 4.300000e-01    2.160000e+00
 SP5ar   X2e  1 4.300000e-01    2.160000e+00
 SP5ar   X1e  1 4.300000e-01    1.730000e+00
 SP4ar   C6e  1 4.300000e-01    2.160000e+00
 SP4ar   C5e  1 4.300000e-01    1.930000e+00
 SP4ar   C4e  1 4.300000e-01    1.730000e+00
 SP4ar   C3e  1 4.430000e-01    1.480000e+00
 SP4ar   C2e  1 4.430000e-01    1.480000e+00
 SP4ar   C1e  1 4.730000e-01    1.280000e+00
 SP4ar   X4e  1 4.300000e-01    2.320000e+00
 SP4ar   X3e  1 4.300000e-01    2.160000e+00
 SP4ar   X2e  1 4.300000e-01    2.160000e+00
 SP4ar   X1e  1 4.300000e-01    1.930000e+00
 SP3ar   C6e  1 4.300000e-01    2.320000e+00
 SP3ar   C5e  1 4.300000e-01    2.160000e+00
 SP3ar   C4e  1 4.300000e-01    1.930000e+00
 SP3ar   C3e  1 4.430000e-01    1.480000e+00
 SP3ar   C2e  1 4.430000e-01    1.480000e+00
 SP3ar   C1e  1 4.730000e-01    1.280000e+00
 SP3ar   X4e  1 4.300000e-01    2.320000e+00
 SP3ar   X3e  1 4.300000e-01    2.320000e+00
 SP3ar   X2e  1 4.300000e-01    2.160000e+00
 SP3ar   X1e  1 4.300000e-01    1.930000e+00
 SP2ar   C6e  1 4.300000e-01    2.320000e+00
 SP2ar   C5e  1 4.300000e-01    2.160000e+00
 SP2ar   C4e  1 4.300000e-01    1.930000e+00
 SP2ar   C3e  1 4.300000e-01    1.730000e+00
 SP2ar   C2e  1 4.300000e-01    1.730000e+00
 SP2ar   C1e  1 4.430000e-01    1.480000e+00
 SP2ar   X4e  1 4.300000e-01    2.320000e+00
 SP2ar   X3e  1 4.300000e-01    2.320000e+00
 SP2ar   X2e  1 4.300000e-01    2.160000e+00
 SP2ar   X1e  1 4.300000e-01    1.930000e+00
 SP1ar   C6e  1 4.300000e-01    2.320000e+00
 SP1ar   C5e  1 4.300000e-01    2.160000e+00
 SP1ar   C4e  1 4.300000e-01    1.930000e+00
 SP1ar   C3e  1 4.300000e-01    1.730000e+00
 SP1ar   C2e  1 4.300000e-01    1.730000e+00
 SP1ar   C1e  1 4.430000e-01    1.480000e+00
 SP1ar   X4e  1 4.300000e-01    2.320000e+00
 SP1ar   X3e  1 4.300000e-01    2.320000e+00
 SP1ar   X2e  1 4.300000e-01    2.160000e+00
 SP1ar   X1e  1 4.300000e-01    1.930000e+00
 SN6ar   C6e  1 4.300000e-01    2.530000e+00
 SN6ar   C5e  1 4.300000e-01    2.320000e+00
 SN6ar   C4e  1 4.300000e-01    2.160000e+00
 SN6ar   C3e  1 4.300000e-01    1.930000e+00
 SN6ar   C2e  1 4.300000e-01    1.930000e+00
 SN6ar   C1e  1 4.300000e-01    1.730000e+00
 SN6ar   X4e  1 4.300000e-01    2.530000e+00
 SN6ar   X3e  1 4.300000e-01    2.320000e+00
 SN6ar   X2e  1 4.300000e-01    2.160000e+00
 SN6ar   X1e  1 4.300000e-01    1.930000e+00
 SN5ar   C6e  1 4.300000e-01    2.530000e+00
 SN5ar   C5e  1 4.300000e-01    2.320000e+00
 SN5ar   C4e  1 4.300000e-01    2.160000e+00
 SN5ar   C3e  1 4.300000e-01    2.160000e+00
 SN5ar   C2e  1 4.300000e-01    1.930000e+00
 SN5ar   C1e  1 4.300000e-01    1.730000e+00
 SN5ar   X4e  1 4.300000e-01    2.920000e+00
 SN5ar   X3e  1 4.300000e-01    2.530000e+00
 SN5ar   X2e  1 4.300000e-01    2.320000e+00
 SN5ar   X1e  1 4.300000e-01    2.160000e+00
 SN4ar   C6e  1 4.300000e-01    2.530000e+00
 SN4ar   C5e  1 4.300000e-01    2.320000e+00
 SN4ar   C4e  1 4.300000e-01    2.320000e+00
 SN4ar   C3e  1 4.300000e-01    2.160000e+00
 SN4ar   C2e  1 4.300000e-01    1.930000e+00
 SN4ar   C1e  1 4.300000e-01    1.730000e+00
 SN4ar   X4e  1 4.300000e-01    2.930000e+00
 SN4ar   X3e  1 4.300000e-01    2.920000e+00
 SN4ar   X2e  1 4.300000e-01    2.320000e+00
 SN4ar   X1e  1 4.300000e-01    2.160000e+00
 SN3ar   C6e  1 4.300000e-01    2.530000e+00
 SN3ar   C5e  1 4.300000e-01    2.320000e+00
 SN3ar   C4e  1 4.300000e-01    2.320000e+00
 SN3ar   C3e  1 4.300000e-01    2.160000e+00
 SN3ar   C2e  1 4.300000e-01    2.160000e+00
 SN3ar   C1e  1 4.300000e-01    1.930000e+00
 SN3ar   X4e  1 4.300000e-01    2.920000e+00
 SN3ar   X3e  1 4.300000e-01    2.530000e+00
 SN3ar   X2e  1 4.300000e-01    2.320000e+00
 SN3ar   X1e  1 4.300000e-01    2.320000e+00
 SN2ar   C6e  1 4.300000e-01    2.530000e+00
 SN2ar   C5e  1 4.300000e-01    2.320000e+00
 SN2ar   C4e  1 4.300000e-01    2.320000e+00
 SN2ar   C3e  1 4.300000e-01    2.320000e+00
 SN2ar   C2e  1 4.300000e-01    2.160000e+00
 SN2ar   C1e  1 4.300000e-01    1.930000e+00
 SN2ar   X4e  1 4.300000e-01    2.920000e+00
 SN2ar   X3e  1 4.300000e-01    2.530000e+00
 SN2ar   X2e  1 4.300000e-01    2.320000e+00
 SN2ar   X1e  1 4.300000e-01    2.320000e+00
 SN1ar   C6e  1 4.300000e-01    2.920000e+00
 SN1ar   C5e  1 4.300000e-01    2.530000e+00
 SN1ar   C4e  1 4.300000e-01    2.530000e+00
 SN1ar   C3e  1 4.300000e-01    2.320000e+00
 SN1ar   C2e  1 4.300000e-01    2.160000e+00
 SN1ar   C1e  1 4.300000e-01    1.930000e+00
 SN1ar   X4e  1 4.300000e-01    2.530000e+00
 SN1ar   X3e  1 4.300000e-01    2.530000e+00
 SN1ar   X2e  1 4.300000e-01    2.320000e+00
 SN1ar   X1e  1 4.300000e-01    2.320000e+00
  P6ar SX1eq  1 4.300000e-01    2.160000e+00
  P6ar SX2eq  1 4.300000e-01    2.320000e+00
  P6ar SX3eq  1 4.300000e-01    2.530000e+00
  P6ar SX4eq  1 4.300000e-01    2.530000e+00
  P6ar SC1eq  1 4.730000e-01    1.280000e+00
  P6ar SC2eq  1 4.300000e-01    1.730000e+00
  P6ar SC3eq  1 4.300000e-01    1.730000e+00
  P6ar SC4eq  1 4.300000e-01    1.930000e+00
  P6ar SC5eq  1 4.300000e-01    2.160000e+00
  P6ar SC6eq  1 4.300000e-01    2.320000e+00
  P5ar SX1eq  1 4.300000e-01    2.160000e+00
  P5ar SX2eq  1 4.300000e-01    2.530000e+00
  P5ar SX3eq  1 4.300000e-01    2.530000e+00
  P5ar SX4eq  1 4.300000e-01    2.920000e+00
  P5ar SC1eq  1 4.300000e-01    1.730000e+00
  P5ar SC2eq  1 4.300000e-01    1.930000e+00
  P5ar SC3eq  1 4.300000e-01    1.930000e+00
  P5ar SC4eq  1 4.300000e-01    2.160000e+00
  P5ar SC5eq  1 4.300000e-01    2.320000e+00
  P5ar SC6eq  1 4.300000e-01    2.320000e+00
  P4ar SX1eq  1 4.300000e-01    2.320000e+00
  P4ar SX2eq  1 4.300000e-01    2.530000e+00
  P4ar SX3eq  1 4.300000e-01    2.530000e+00
  P4ar SX4eq  1 4.300000e-01    2.920000e+00
  P4ar SC1eq  1 4.300000e-01    1.730000e+00
  P4ar SC2eq  1 4.300000e-01    1.930000e+00
  P4ar SC3eq  1 4.300000e-01    1.930000e+00
  P4ar SC4eq  1 4.300000e-01    2.160000e+00
  P4ar SC5eq  1 4.300000e-01    2.320000e+00
  P4ar SC6eq  1 4.300000e-01    2.530000e+00
  P3ar SX1eq  1 4.300000e-01    2.320000e+00
  P3ar SX2eq  1 4.300000e-01    2.530000e+00
  P3ar SX3eq  1 4.300000e-01    2.920000e+00
  P3ar SX4eq  1 4.300000e-01    2.920000e+00
  P3ar SC1eq  1 4.300000e-01    1.730000e+00
  P3ar SC2eq  1 4.300000e-01    1.930000e+00
  P3ar SC3eq  1 4.300000e-01    1.930000e+00
  P3ar SC4eq  1 4.300000e-01    2.320000e+00
  P3ar SC5eq  1 4.300000e-01    2.530000e+00
  P3ar SC6eq  1 4.300000e-01    2.920000e+00
  P2ar SX1eq  1 4.300000e-01    2.320000e+00
  P2ar SX2eq  1 4.300000e-01    2.530000e+00
  P2ar SX3eq  1 4.300000e-01    2.920000e+00
  P2ar SX4eq  1 4.300000e-01    2.920000e+00
  P2ar SC1eq  1 4.300000e-01    1.930000e+00
  P2ar SC2eq  1 4.300000e-01    2.160000e+00
  P2ar SC3eq  1 4.300000e-01    2.160000e+00
  P2ar SC4eq  1 4.300000e-01    2.320000e+00
  P2ar SC5eq  1 4.300000e-01    2.530000e+00
  P2ar SC6eq  1 4.300000e-01    2.920000e+00
  P1ar SX1eq  1 4.300000e-01    2.320000e+00
  P1ar SX2eq  1 4.300000e-01    2.530000e+00
  P1ar SX3eq  1 4.300000e-01    2.920000e+00
  P1ar SX4eq  1 4.300000e-01    2.920000e+00
  P1ar SC1eq  1 4.300000e-01    1.930000e+00
  P1ar SC2eq  1 4.300000e-01    2.160000e+00
  P1ar SC3eq  1 4.300000e-01    2.160000e+00
  P1ar SC4eq  1 4.300000e-01    2.320000e+00
  P1ar SC5eq  1 4.300000e-01    2.530000e+00
  P1ar SC6eq  1 4.300000e-01    2.920000e+00
  N6ar SX1eq  1 4.300000e-01    2.320000e+00
  N6ar SX2eq  1 4.300000e-01    2.530000e+00
  N6ar SX3eq  1 4.300000e-01    2.920000e+00
  N6ar SX4eq  1 4.300000e-01    2.930000e+00
  N6ar SC1eq  1 4.300000e-01    2.160000e+00
  N6ar SC2eq  1 4.300000e-01    2.320000e+00
  N6ar SC3eq  1 4.300000e-01    2.320000e+00
  N6ar SC4eq  1 4.300000e-01    2.530000e+00
  N6ar SC5eq  1 4.300000e-01    2.920000e+00
  N6ar SC6eq  1 4.300000e-01    2.930000e+00
  N5ar SX1eq  1 4.300000e-01    2.530000e+00
  N5ar SX2eq  1 4.300000e-01    2.920000e+00
  N5ar SX3eq  1 4.300000e-01    2.930000e+00
  N5ar SX4eq  1 4.300000e-01    3.160000e+00
  N5ar SC1eq  1 4.300000e-01    2.160000e+00
  N5ar SC2eq  1 4.300000e-01    2.320000e+00
  N5ar SC3eq  1 4.300000e-01    2.530000e+00
  N5ar SC4eq  1 4.300000e-01    2.530000e+00
  N5ar SC5eq  1 4.300000e-01    2.920000e+00
  N5ar SC6eq  1 4.300000e-01    2.930000e+00
  N4ar SX1eq  1 4.300000e-01    2.530000e+00
  N4ar SX2eq  1 4.300000e-01    2.920000e+00
  N4ar SX3eq  1 4.300000e-01    3.160000e+00
  N4ar SX4eq  1 4.300000e-01    3.380000e+00
  N4ar SC1eq  1 4.300000e-01    2.160000e+00
  N4ar SC2eq  1 4.300000e-01    2.320000e+00
  N4ar SC3eq  1 4.300000e-01    2.530000e+00
  N4ar SC4eq  1 4.300000e-01    2.920000e+00
  N4ar SC5eq  1 4.300000e-01    2.920000e+00
  N4ar SC6eq  1 4.300000e-01    2.930000e+00
  N3ar SX1eq  1 4.300000e-01    2.920000e+00
  N3ar SX2eq  1 4.300000e-01    2.920000e+00
  N3ar SX3eq  1 4.300000e-01    2.930000e+00
  N3ar SX4eq  1 4.300000e-01    3.160000e+00
  N3ar SC1eq  1 4.300000e-01    2.320000e+00
  N3ar SC2eq  1 4.300000e-01    2.530000e+00
  N3ar SC3eq  1 4.300000e-01    2.530000e+00
  N3ar SC4eq  1 4.300000e-01    2.920000e+00
  N3ar SC5eq  1 4.300000e-01    2.920000e+00
  N3ar SC6eq  1 4.300000e-01    2.930000e+00
  N2ar SX1eq  1 4.300000e-01    2.920000e+00
  N2ar SX2eq  1 4.300000e-01    2.920000e+00
  N2ar SX3eq  1 4.300000e-01    2.930000e+00
  N2ar SX4eq  1 4.300000e-01    3.160000e+00
  N2ar SC1eq  1 4.300000e-01    2.320000e+00
  N2ar SC2eq  1 4.300000e-01    2.530000e+00
  N2ar SC3eq  1 4.300000e-01    2.920000e+00
  N2ar SC4eq  1 4.300000e-01    2.920000e+00
  N2ar SC5eq  1 4.300000e-01    2.920000e+00
  N2ar SC6eq  1 4.300000e-01    2.930000e+00
  N1ar SX1eq  1 4.300000e-01    2.920000e+00
  N1ar SX2eq  1 4.300000e-01    2.920000e+00
  N1ar SX3eq  1 4.300000e-01    2.930000e+00
  N1ar SX4eq  1 4.300000e-01    2.930000e+00
  N1ar SC1eq  1 4.300000e-01    2.320000e+00
  N1ar SC2eq  1 4.300000e-01    2.530000e+00
  N1ar SC3eq  1 4.300000e-01    2.920000e+00
  N1ar SC4eq  1 4.300000e-01    2.930000e+00
  N1ar SC5eq  1 4.300000e-01    2.930000e+00
  N1ar SC6eq  1 4.300000e-01    3.160000e+00
 SP6ar  X1eq  1 4.300000e-01    2.160000e+00
 SP6ar  X2eq  1 4.300000e-01    2.320000e+00
 SP6ar  X3eq  1 4.300000e-01    2.530000e+00
 SP6ar  X4eq  1 4.300000e-01    2.530000e+00
 SP6ar  C1eq  1 4.730000e-01    1.280000e+00
 SP6ar  C2eq  1 4.300000e-01    1.730000e+00
 SP6ar  C3eq  1 4.300000e-01    1.730000e+00
 SP6ar  C4eq  1 4.300000e-01    1.930000e+00
 SP6ar  C5eq  1 4.300000e-01    2.160000e+00
 SP6ar  C6eq  1 4.300000e-01    2.320000e+00
 SP5ar  X1eq  1 4.300000e-01    2.160000e+00
 SP5ar  X2eq  1 4.300000e-01    2.530000e+00
 SP5ar  X3eq  1 4.300000e-01    2.530000e+00
 SP5ar  X4eq  1 4.300000e-01    2.920000e+00
 SP5ar  C1eq  1 4.300000e-01    1.730000e+00
 SP5ar  C2eq  1 4.300000e-01    1.930000e+00
 SP5ar  C3eq  1 4.300000e-01    1.930000e+00
 SP5ar  C4eq  1 4.300000e-01    2.160000e+00
 SP5ar  C5eq  1 4.300000e-01    2.320000e+00
 SP5ar  C6eq  1 4.300000e-01    2.320000e+00
 SP4ar  X1eq  1 4.300000e-01    2.320000e+00
 SP4ar  X2eq  1 4.300000e-01    2.530000e+00
 SP4ar  X3eq  1 4.300000e-01    2.530000e+00
 SP4ar  X4eq  1 4.300000e-01    2.920000e+00
 SP4ar  C1eq  1 4.300000e-01    1.730000e+00
 SP4ar  C2eq  1 4.300000e-01    1.930000e+00
 SP4ar  C3eq  1 4.300000e-01    1.930000e+00
 SP4ar  C4eq  1 4.300000e-01    2.160000e+00
 SP4ar  C5eq  1 4.300000e-01    2.320000e+00
 SP4ar  C6eq  1 4.300000e-01    2.530000e+00
 SP3ar  X1eq  1 4.300000e-01    2.320000e+00
 SP3ar  X2eq  1 4.300000e-01    2.530000e+00
 SP3ar  X3eq  1 4.300000e-01    2.920000e+00
 SP3ar  X4eq  1 4.300000e-01    2.920000e+00
 SP3ar  C1eq  1 4.300000e-01    1.730000e+00
 SP3ar  C2eq  1 4.300000e-01    1.930000e+00
 SP3ar  C3eq  1 4.300000e-01    1.930000e+00
 SP3ar  C4eq  1 4.300000e-01    2.320000e+00
 SP3ar  C5eq  1 4.300000e-01    2.530000e+00
 SP3ar  C6eq  1 4.300000e-01    2.920000e+00
 SP2ar  X1eq  1 4.300000e-01    2.320000e+00
 SP2ar  X2eq  1 4.300000e-01    2.530000e+00
 SP2ar  X3eq  1 4.300000e-01    2.920000e+00
 SP2ar  X4eq  1 4.300000e-01    2.920000e+00
 SP2ar  C1eq  1 4.300000e-01    1.930000e+00
 SP2ar  C2eq  1 4.300000e-01    2.160000e+00
 SP2ar  C3eq  1 4.300000e-01    2.160000e+00
 SP2ar  C4eq  1 4.300000e-01    2.320000e+00
 SP2ar  C5eq  1 4.300000e-01    2.530000e+00
 SP2ar  C6eq  1 4.300000e-01    2.920000e+00
 SP1ar  X1eq  1 4.300000e-01    2.320000e+00
 SP1ar  X2eq  1 4.300000e-01    2.530000e+00
 SP1ar  X3eq  1 4.300000e-01    2.920000e+00
 SP1ar  X4eq  1 4.300000e-01    2.920000e+00
 SP1ar  C1eq  1 4.300000e-01    1.930000e+00
 SP1ar  C2eq  1 4.300000e-01    2.160000e+00
 SP1ar  C3eq  1 4.300000e-01    2.160000e+00
 SP1ar  C4eq  1 4.300000e-01    2.320000e+00
 SP1ar  C5eq  1 4.300000e-01    2.530000e+00
 SP1ar  C6eq  1 4.300000e-01    2.920000e+00
 SN6ar  X1eq  1 4.300000e-01    2.320000e+00
 SN6ar  X2eq  1 4.300000e-01    2.530000e+00
 SN6ar  X3eq  1 4.300000e-01    2.920000e+00
 SN6ar  X4eq  1 4.300000e-01    2.930000e+00
 SN6ar  C1eq  1 4.300000e-01    2.160000e+00
 SN6ar  C2eq  1 4.300000e-01    2.320000e+00
 SN6ar  C3eq  1 4.300000e-01    2.320000e+00
 SN6ar  C4eq  1 4.300000e-01    2.530000e+00
 SN6ar  C5eq  1 4.300000e-01    2.920000e+00
 SN6ar  C6eq  1 4.300000e-01    2.930000e+00
 SN5ar  X1eq  1 4.300000e-01    2.530000e+00
 SN5ar  X2eq  1 4.300000e-01    2.920000e+00
 SN5ar  X3eq  1 4.300000e-01    2.930000e+00
 SN5ar  X4eq  1 4.300000e-01    3.160000e+00
 SN5ar  C1eq  1 4.300000e-01    2.160000e+00
 SN5ar  C2eq  1 4.300000e-01    2.320000e+00
 SN5ar  C3eq  1 4.300000e-01    2.530000e+00
 SN5ar  C4eq  1 4.300000e-01    2.530000e+00
 SN5ar  C5eq  1 4.300000e-01    2.920000e+00
 SN5ar  C6eq  1 4.300000e-01    2.930000e+00
 SN4ar  X1eq  1 4.300000e-01    2.530000e+00
 SN4ar  X2eq  1 4.300000e-01    2.920000e+00
 SN4ar  X3eq  1 4.300000e-01    3.160000e+00
 SN4ar  X4eq  1 4.300000e-01    3.380000e+00
 SN4ar  C1eq  1 4.300000e-01    2.160000e+00
 SN4ar  C2eq  1 4.300000e-01    2.320000e+00
 SN4ar  C3eq  1 4.300000e-01    2.530000e+00
 SN4ar  C4eq  1 4.300000e-01    2.920000e+00
 SN4ar  C5eq  1 4.300000e-01    2.920000e+00
 SN4ar  C6eq  1 4.300000e-01    2.930000e+00
 SN3ar  X1eq  1 4.300000e-01    2.920000e+00
 SN3ar  X2eq  1 4.300000e-01    2.920000e+00
 SN3ar  X3eq  1 4.300000e-01    2.930000e+00
 SN3ar  X4eq  1 4.300000e-01    3.160000e+00
 SN3ar  C1eq  1 4.300000e-01    2.320000e+00
 SN3ar  C2eq  1 4.300000e-01    2.530000e+00
 SN3ar  C3eq  1 4.300000e-01    2.530000e+00
 SN3ar  C4eq  1 4.300000e-01    2.920000e+00
 SN3ar  C5eq  1 4.300000e-01    2.920000e+00
 SN3ar  C6eq  1 4.300000e-01    2.930000e+00
 SN2ar  X1eq  1 4.300000e-01    2.920000e+00
 SN2ar  X2eq  1 4.300000e-01    2.920000e+00
 SN2ar  X3eq  1 4.300000e-01    2.930000e+00
 SN2ar  X4eq  1 4.300000e-01    3.160000e+00
 SN2ar  C1eq  1 4.300000e-01    2.320000e+00
 SN2ar  C2eq  1 4.300000e-01    2.530000e+00
 SN2ar  C3eq  1 4.300000e-01    2.920000e+00
 SN2ar  C4eq  1 4.300000e-01    2.920000e+00
 SN2ar  C5eq  1 4.300000e-01    2.920000e+00
 SN2ar  C6eq  1 4.300000e-01    2.930000e+00
 SN1ar  X1eq  1 4.300000e-01    2.920000e+00
 SN1ar  X2eq  1 4.300000e-01    2.920000e+00
 SN1ar  X3eq  1 4.300000e-01    2.930000e+00
 SN1ar  X4eq  1 4.300000e-01    2.930000e+00
 SN1ar  C1eq  1 4.300000e-01    2.320000e+00
 SN1ar  C2eq  1 4.300000e-01    2.530000e+00
 SN1ar  C3eq  1 4.300000e-01    2.920000e+00
 SN1ar  C4eq  1 4.300000e-01    2.930000e+00
 SN1ar  C5eq  1 4.300000e-01    2.930000e+00
 SN1ar  C6eq  1 4.300000e-01    3.160000e+00
  P6ar SC6eh  1 4.300000e-01    1.930000e+00
  P6ar SC5eh  1 4.300000e-01    1.730000e+00
  P6ar SC4eh  1 4.430000e-01    1.480000e+00
  P6ar SC3eh  1 4.730000e-01    1.280000e+00
  P6ar SC2eh  1 4.730000e-01    1.280000e+00
  P6ar SC1eh  1 5.140000e-01    1.110000e+00
  P6ar SX4eh  1 4.300000e-01    2.160000e+00
  P6ar SX3eh  1 4.300000e-01    2.160000e+00
  P6ar SX2eh  1 4.300000e-01    1.930000e+00
  P6ar SX1eh  1 4.300000e-01    1.730000e+00
  P5ar SC6eh  1 4.300000e-01    1.930000e+00
  P5ar SC5eh  1 4.300000e-01    1.930000e+00
  P5ar SC4eh  1 4.300000e-01    1.730000e+00
  P5ar SC3eh  1 4.430000e-01    1.480000e+00
  P5ar SC2eh  1 4.430000e-01    1.480000e+00
  P5ar SC1eh  1 4.730000e-01    1.280000e+00
  P5ar SX4eh  1 4.300000e-01    2.320000e+00
  P5ar SX3eh  1 4.300000e-01    2.160000e+00
  P5ar SX2eh  1 4.300000e-01    2.160000e+00
  P5ar SX1eh  1 4.300000e-01    1.730000e+00
  P4ar SC6eh  1 4.300000e-01    2.160000e+00
  P4ar SC5eh  1 4.300000e-01    1.930000e+00
  P4ar SC4eh  1 4.300000e-01    1.730000e+00
  P4ar SC3eh  1 4.430000e-01    1.480000e+00
  P4ar SC2eh  1 4.430000e-01    1.480000e+00
  P4ar SC1eh  1 4.730000e-01    1.280000e+00
  P4ar SX4eh  1 4.300000e-01    2.320000e+00
  P4ar SX3eh  1 4.300000e-01    2.160000e+00
  P4ar SX2eh  1 4.300000e-01    2.160000e+00
  P4ar SX1eh  1 4.300000e-01    1.930000e+00
  P3ar SC6eh  1 4.300000e-01    2.320000e+00
  P3ar SC5eh  1 4.300000e-01    2.160000e+00
  P3ar SC4eh  1 4.300000e-01    1.930000e+00
  P3ar SC3eh  1 4.430000e-01    1.480000e+00
  P3ar SC2eh  1 4.430000e-01    1.480000e+00
  P3ar SC1eh  1 4.730000e-01    1.280000e+00
  P3ar SX4eh  1 4.300000e-01    2.320000e+00
  P3ar SX3eh  1 4.300000e-01    2.320000e+00
  P3ar SX2eh  1 4.300000e-01    2.160000e+00
  P3ar SX1eh  1 4.300000e-01    1.930000e+00
  P2ar SC6eh  1 4.300000e-01    2.320000e+00
  P2ar SC5eh  1 4.300000e-01    2.160000e+00
  P2ar SC4eh  1 4.300000e-01    1.930000e+00
  P2ar SC3eh  1 4.300000e-01    1.730000e+00
  P2ar SC2eh  1 4.300000e-01    1.730000e+00
  P2ar SC1eh  1 4.430000e-01    1.480000e+00
  P2ar SX4eh  1 4.300000e-01    2.320000e+00
  P2ar SX3eh  1 4.300000e-01    2.320000e+00
  P2ar SX2eh  1 4.300000e-01    2.160000e+00
  P2ar SX1eh  1 4.300000e-01    1.930000e+00
  P1ar SC6eh  1 4.300000e-01    2.320000e+00
  P1ar SC5eh  1 4.300000e-01    2.160000e+00
  P1ar SC4eh  1 4.300000e-01    1.930000e+00
  P1ar SC3eh  1 4.300000e-01    1.730000e+00
  P1ar SC2eh  1 4.300000e-01    1.730000e+00
  P1ar SC1eh  1 4.430000e-01    1.480000e+00
  P1ar SX4eh  1 4.300000e-01    2.320000e+00
  P1ar SX3eh  1 4.300000e-01    2.320000e+00
  P1ar SX2eh  1 4.300000e-01    2.160000e+00
  P1ar SX1eh  1 4.300000e-01    1.930000e+00
  N6ar SC6eh  1 4.300000e-01    2.530000e+00
  N6ar SC5eh  1 4.300000e-01    2.320000e+00
  N6ar SC4eh  1 4.300000e-01    2.160000e+00
  N6ar SC3eh  1 4.300000e-01    1.930000e+00
  N6ar SC2eh  1 4.300000e-01    1.930000e+00
  N6ar SC1eh  1 4.300000e-01    1.730000e+00
  N6ar SX4eh  1 4.300000e-01    2.530000e+00
  N6ar SX3eh  1 4.300000e-01    2.320000e+00
  N6ar SX2eh  1 4.300000e-01    2.160000e+00
  N6ar SX1eh  1 4.300000e-01    1.930000e+00
  N5ar SC6eh  1 4.300000e-01    2.530000e+00
  N5ar SC5eh  1 4.300000e-01    2.320000e+00
  N5ar SC4eh  1 4.300000e-01    2.160000e+00
  N5ar SC3eh  1 4.300000e-01    2.160000e+00
  N5ar SC2eh  1 4.300000e-01    1.930000e+00
  N5ar SC1eh  1 4.300000e-01    1.730000e+00
  N5ar SX4eh  1 4.300000e-01    2.920000e+00
  N5ar SX3eh  1 4.300000e-01    2.530000e+00
  N5ar SX2eh  1 4.300000e-01    2.320000e+00
  N5ar SX1eh  1 4.300000e-01    2.160000e+00
  N4ar SC6eh  1 4.300000e-01    2.530000e+00
  N4ar SC5eh  1 4.300000e-01    2.320000e+00
  N4ar SC4eh  1 4.300000e-01    2.320000e+00
  N4ar SC3eh  1 4.300000e-01    2.160000e+00
  N4ar SC2eh  1 4.300000e-01    1.930000e+00
  N4ar SC1eh  1 4.300000e-01    1.730000e+00
  N4ar SX4eh  1 4.300000e-01    2.930000e+00
  N4ar SX3eh  1 4.300000e-01    2.920000e+00
  N4ar SX2eh  1 4.300000e-01    2.320000e+00
  N4ar SX1eh  1 4.300000e-01    2.160000e+00
  N3ar SC6eh  1 4.300000e-01    2.530000e+00
  N3ar SC5eh  1 4.300000e-01    2.320000e+00
  N3ar SC4eh  1 4.300000e-01    2.320000e+00
  N3ar SC3eh  1 4.300000e-01    2.160000e+00
  N3ar SC2eh  1 4.300000e-01    2.160000e+00
  N3ar SC1eh  1 4.300000e-01    1.930000e+00
  N3ar SX4eh  1 4.300000e-01    2.920000e+00
  N3ar SX3eh  1 4.300000e-01    2.530000e+00
  N3ar SX2eh  1 4.300000e-01    2.320000e+00
  N3ar SX1eh  1 4.300000e-01    2.320000e+00
  N2ar SC6eh  1 4.300000e-01    2.530000e+00
  N2ar SC5eh  1 4.300000e-01    2.320000e+00
  N2ar SC4eh  1 4.300000e-01    2.320000e+00
  N2ar SC3eh  1 4.300000e-01    2.320000e+00
  N2ar SC2eh  1 4.300000e-01    2.160000e+00
  N2ar SC1eh  1 4.300000e-01    1.930000e+00
  N2ar SX4eh  1 4.300000e-01    2.920000e+00
  N2ar SX3eh  1 4.300000e-01    2.530000e+00
  N2ar SX2eh  1 4.300000e-01    2.320000e+00
  N2ar SX1eh  1 4.300000e-01    2.320000e+00
  N1ar SC6eh  1 4.300000e-01    2.920000e+00
  N1ar SC5eh  1 4.300000e-01    2.530000e+00
  N1ar SC4eh  1 4.300000e-01    2.530000e+00
  N1ar SC3eh  1 4.300000e-01    2.320000e+00
  N1ar SC2eh  1 4.300000e-01    2.160000e+00
  N1ar SC1eh  1 4.300000e-01    1.930000e+00
  N1ar SX4eh  1 4.300000e-01    2.530000e+00
  N1ar SX3eh  1 4.300000e-01    2.530000e+00
  N1ar SX2eh  1 4.300000e-01    2.320000e+00
  N1ar SX1eh  1 4.300000e-01    2.320000e+00
 SP6ar  C6eh  1 4.300000e-01    1.930000e+00
 SP6ar  C5eh  1 4.300000e-01    1.730000e+00
 SP6ar  C4eh  1 4.430000e-01    1.480000e+00
 SP6ar  C3eh  1 4.730000e-01    1.280000e+00
 SP6ar  C2eh  1 4.730000e-01    1.280000e+00
 SP6ar  C1eh  1 5.140000e-01    1.110000e+00
 SP6ar  X4eh  1 4.300000e-01    2.160000e+00
 SP6ar  X3eh  1 4.300000e-01    2.160000e+00
 SP6ar  X2eh  1 4.300000e-01    1.930000e+00
 SP6ar  X1eh  1 4.300000e-01    1.730000e+00
 SP5ar  C6eh  1 4.300000e-01    1.930000e+00
 SP5ar  C5eh  1 4.300000e-01    1.930000e+00
 SP5ar  C4eh  1 4.300000e-01    1.730000e+00
 SP5ar  C3eh  1 4.430000e-01    1.480000e+00
 SP5ar  C2eh  1 4.430000e-01    1.480000e+00
 SP5ar  C1eh  1 4.730000e-01    1.280000e+00
 SP5ar  X4eh  1 4.300000e-01    2.320000e+00
 SP5ar  X3eh  1 4.300000e-01    2.160000e+00
 SP5ar  X2eh  1 4.300000e-01    2.160000e+00
 SP5ar  X1eh  1 4.300000e-01    1.730000e+00
 SP4ar  C6eh  1 4.300000e-01    2.160000e+00
 SP4ar  C5eh  1 4.300000e-01    1.930000e+00
 SP4ar  C4eh  1 4.300000e-01    1.730000e+00
 SP4ar  C3eh  1 4.430000e-01    1.480000e+00
 SP4ar  C2eh  1 4.430000e-01    1.480000e+00
 SP4ar  C1eh  1 4.730000e-01    1.280000e+00
 SP4ar  X4eh  1 4.300000e-01    2.320000e+00
 SP4ar  X3eh  1 4.300000e-01    2.160000e+00
 SP4ar  X2eh  1 4.300000e-01    2.160000e+00
 SP4ar  X1eh  1 4.300000e-01    1.930000e+00
 SP3ar  C6eh  1 4.300000e-01    2.320000e+00
 SP3ar  C5eh  1 4.300000e-01    2.160000e+00
 SP3ar  C4eh  1 4.300000e-01    1.930000e+00
 SP3ar  C3eh  1 4.430000e-01    1.480000e+00
 SP3ar  C2eh  1 4.430000e-01    1.480000e+00
 SP3ar  C1eh  1 4.730000e-01    1.280000e+00
 SP3ar  X4eh  1 4.300000e-01    2.320000e+00
 SP3ar  X3eh  1 4.300000e-01    2.320000e+00
 SP3ar  X2eh  1 4.300000e-01    2.160000e+00
 SP3ar  X1eh  1 4.300000e-01    1.930000e+00
 SP2ar  C6eh  1 4.300000e-01    2.320000e+00
 SP2ar  C5eh  1 4.300000e-01    2.160000e+00
 SP2ar  C4eh  1 4.300000e-01    1.930000e+00
 SP2ar  C3eh  1 4.300000e-01    1.730000e+00
 SP2ar  C2eh  1 4.300000e-01    1.730000e+00
 SP2ar  C1eh  1 4.430000e-01    1.480000e+00
 SP2ar  X4eh  1 4.300000e-01    2.320000e+00
 SP2ar  X3eh  1 4.300000e-01    2.320000e+00
 SP2ar  X2eh  1 4.300000e-01    2.160000e+00
 SP2ar  X1eh  1 4.300000e-01    1.930000e+00
 SP1ar  C6eh  1 4.300000e-01    2.320000e+00
 SP1ar  C5eh  1 4.300000e-01    2.160000e+00
 SP1ar  C4eh  1 4.300000e-01    1.930000e+00
 SP1ar  C3eh  1 4.300000e-01    1.730000e+00
 SP1ar  C2eh  1 4.300000e-01    1.730000e+00
 SP1ar  C1eh  1 4.430000e-01    1.480000e+00
 SP1ar  X4eh  1 4.300000e-01    2.320000e+00
 SP1ar  X3eh  1 4.300000e-01    2.320000e+00
 SP1ar  X2eh  1 4.300000e-01    2.160000e+00
 SP1ar  X1eh  1 4.300000e-01    1.930000e+00
 SN6ar  C6eh  1 4.300000e-01    2.530000e+00
 SN6ar  C5eh  1 4.300000e-01    2.320000e+00
 SN6ar  C4eh  1 4.300000e-01    2.160000e+00
 SN6ar  C3eh  1 4.300000e-01    1.930000e+00
 SN6ar  C2eh  1 4.300000e-01    1.930000e+00
 SN6ar  C1eh  1 4.300000e-01    1.730000e+00
 SN6ar  X4eh  1 4.300000e-01    2.530000e+00
 SN6ar  X3eh  1 4.300000e-01    2.320000e+00
 SN6ar  X2eh  1 4.300000e-01    2.160000e+00
 SN6ar  X1eh  1 4.300000e-01    1.930000e+00
 SN5ar  C6eh  1 4.300000e-01    2.530000e+00
 SN5ar  C5eh  1 4.300000e-01    2.320000e+00
 SN5ar  C4eh  1 4.300000e-01    2.160000e+00
 SN5ar  C3eh  1 4.300000e-01    2.160000e+00
 SN5ar  C2eh  1 4.300000e-01    1.930000e+00
 SN5ar  C1eh  1 4.300000e-01    1.730000e+00
 SN5ar  X4eh  1 4.300000e-01    2.920000e+00
 SN5ar  X3eh  1 4.300000e-01    2.530000e+00
 SN5ar  X2eh  1 4.300000e-01    2.320000e+00
 SN5ar  X1eh  1 4.300000e-01    2.160000e+00
 SN4ar  C6eh  1 4.300000e-01    2.530000e+00
 SN4ar  C5eh  1 4.300000e-01    2.320000e+00
 SN4ar  C4eh  1 4.300000e-01    2.320000e+00
 SN4ar  C3eh  1 4.300000e-01    2.160000e+00
 SN4ar  C2eh  1 4.300000e-01    1.930000e+00
 SN4ar  C1eh  1 4.300000e-01    1.730000e+00
 SN4ar  X4eh  1 4.300000e-01    2.930000e+00
 SN4ar  X3eh  1 4.300000e-01    2.920000e+00
 SN4ar  X2eh  1 4.300000e-01    2.320000e+00
 SN4ar  X1eh  1 4.300000e-01    2.160000e+00
 SN3ar  C6eh  1 4.300000e-01    2.530000e+00
 SN3ar  C5eh  1 4.300000e-01    2.320000e+00
 SN3ar  C4eh  1 4.300000e-01    2.320000e+00
 SN3ar  C3eh  1 4.300000e-01    2.160000e+00
 SN3ar  C2eh  1 4.300000e-01    2.160000e+00
 SN3ar  C1eh  1 4.300000e-01    1.930000e+00
 SN3ar  X4eh  1 4.300000e-01    2.920000e+00
 SN3ar  X3eh  1 4.300000e-01    2.530000e+00
 SN3ar  X2eh  1 4.300000e-01    2.320000e+00
 SN3ar  X1eh  1 4.300000e-01    2.320000e+00
 SN2ar  C6eh  1 4.300000e-01    2.530000e+00
 SN2ar  C5eh  1 4.300000e-01    2.320000e+00
 SN2ar  C4eh  1 4.300000e-01    2.320000e+00
 SN2ar  C3eh  1 4.300000e-01    2.320000e+00
 SN2ar  C2eh  1 4.300000e-01    2.160000e+00
 SN2ar  C1eh  1 4.300000e-01    1.930000e+00
 SN2ar  X4eh  1 4.300000e-01    2.920000e+00
 SN2ar  X3eh  1 4.300000e-01    2.530000e+00
 SN2ar  X2eh  1 4.300000e-01    2.320000e+00
 SN2ar  X1eh  1 4.300000e-01    2.320000e+00
 SN1ar  C6eh  1 4.300000e-01    2.920000e+00
 SN1ar  C5eh  1 4.300000e-01    2.530000e+00
 SN1ar  C4eh  1 4.300000e-01    2.530000e+00
 SN1ar  C3eh  1 4.300000e-01    2.320000e+00
 SN1ar  C2eh  1 4.300000e-01    2.160000e+00
 SN1ar  C1eh  1 4.300000e-01    1.930000e+00
 SN1ar  X4eh  1 4.300000e-01    2.530000e+00
 SN1ar  X3eh  1 4.300000e-01    2.530000e+00
 SN1ar  X2eh  1 4.300000e-01    2.320000e+00
 SN1ar  X1eh  1 4.300000e-01    2.320000e+00
  P6ar SC6er  1 4.300000e-01    1.930000e+00
  P6ar SC5er  1 4.300000e-01    1.730000e+00
  P6ar SC4er  1 4.430000e-01    1.480000e+00
  P6ar SC3er  1 4.730000e-01    1.280000e+00
  P6ar SC2er  1 4.730000e-01    1.280000e+00
  P6ar SC1er  1 5.140000e-01    1.110000e+00
  P6ar SX4er  1 4.300000e-01    2.160000e+00
  P6ar SX3er  1 4.300000e-01    2.160000e+00
  P6ar SX2er  1 4.300000e-01    1.930000e+00
  P6ar SX1er  1 4.300000e-01    1.730000e+00
  P5ar SC6er  1 4.300000e-01    1.930000e+00
  P5ar SC5er  1 4.300000e-01    1.930000e+00
  P5ar SC4er  1 4.300000e-01    1.730000e+00
  P5ar SC3er  1 4.430000e-01    1.480000e+00
  P5ar SC2er  1 4.430000e-01    1.480000e+00
  P5ar SC1er  1 4.730000e-01    1.280000e+00
  P5ar SX4er  1 4.300000e-01    2.320000e+00
  P5ar SX3er  1 4.300000e-01    2.160000e+00
  P5ar SX2er  1 4.300000e-01    2.160000e+00
  P5ar SX1er  1 4.300000e-01    1.730000e+00
  P4ar SC6er  1 4.300000e-01    2.160000e+00
  P4ar SC5er  1 4.300000e-01    1.930000e+00
  P4ar SC4er  1 4.300000e-01    1.730000e+00
  P4ar SC3er  1 4.430000e-01    1.480000e+00
  P4ar SC2er  1 4.430000e-01    1.480000e+00
  P4ar SC1er  1 4.730000e-01    1.280000e+00
  P4ar SX4er  1 4.300000e-01    2.320000e+00
  P4ar SX3er  1 4.300000e-01    2.160000e+00
  P4ar SX2er  1 4.300000e-01    2.160000e+00
  P4ar SX1er  1 4.300000e-01    1.930000e+00
  P3ar SC6er  1 4.300000e-01    2.320000e+00
  P3ar SC5er  1 4.300000e-01    2.160000e+00
  P3ar SC4er  1 4.300000e-01    1.930000e+00
  P3ar SC3er  1 4.430000e-01    1.480000e+00
  P3ar SC2er  1 4.430000e-01    1.480000e+00
  P3ar SC1er  1 4.730000e-01    1.280000e+00
  P3ar SX4er  1 4.300000e-01    2.320000e+00
  P3ar SX3er  1 4.300000e-01    2.320000e+00
  P3ar SX2er  1 4.300000e-01    2.160000e+00
  P3ar SX1er  1 4.300000e-01    1.930000e+00
  P2ar SC6er  1 4.300000e-01    2.320000e+00
  P2ar SC5er  1 4.300000e-01    2.160000e+00
  P2ar SC4er  1 4.300000e-01    1.930000e+00
  P2ar SC3er  1 4.300000e-01    1.730000e+00
  P2ar SC2er  1 4.300000e-01    1.730000e+00
  P2ar SC1er  1 4.430000e-01    1.480000e+00
  P2ar SX4er  1 4.300000e-01    2.320000e+00
  P2ar SX3er  1 4.300000e-01    2.320000e+00
  P2ar SX2er  1 4.300000e-01    2.160000e+00
  P2ar SX1er  1 4.300000e-01    1.930000e+00
  P1ar SC6er  1 4.300000e-01    2.320000e+00
  P1ar SC5er  1 4.300000e-01    2.160000e+00
  P1ar SC4er  1 4.300000e-01    1.930000e+00
  P1ar SC3er  1 4.300000e-01    1.730000e+00
  P1ar SC2er  1 4.300000e-01    1.730000e+00
  P1ar SC1er  1 4.430000e-01    1.480000e+00
  P1ar SX4er  1 4.300000e-01    2.320000e+00
  P1ar SX3er  1 4.300000e-01    2.320000e+00
  P1ar SX2er  1 4.300000e-01    2.160000e+00
  P1ar SX1er  1 4.300000e-01    1.930000e+00
  N6ar SC6er  1 4.300000e-01    2.530000e+00
  N6ar SC5er  1 4.300000e-01    2.320000e+00
  N6ar SC4er  1 4.300000e-01    2.160000e+00
  N6ar SC3er  1 4.300000e-01    1.930000e+00
  N6ar SC2er  1 4.300000e-01    1.930000e+00
  N6ar SC1er  1 4.300000e-01    1.730000e+00
  N6ar SX4er  1 4.300000e-01    2.530000e+00
  N6ar SX3er  1 4.300000e-01    2.320000e+00
  N6ar SX2er  1 4.300000e-01    2.160000e+00
  N6ar SX1er  1 4.300000e-01    1.930000e+00
  N5ar SC6er  1 4.300000e-01    2.530000e+00
  N5ar SC5er  1 4.300000e-01    2.320000e+00
  N5ar SC4er  1 4.300000e-01    2.160000e+00
  N5ar SC3er  1 4.300000e-01    2.160000e+00
  N5ar SC2er  1 4.300000e-01    1.930000e+00
  N5ar SC1er  1 4.300000e-01    1.730000e+00
  N5ar SX4er  1 4.300000e-01    2.920000e+00
  N5ar SX3er  1 4.300000e-01    2.530000e+00
  N5ar SX2er  1 4.300000e-01    2.320000e+00
  N5ar SX1er  1 4.300000e-01    2.160000e+00
  N4ar SC6er  1 4.300000e-01    2.530000e+00
  N4ar SC5er  1 4.300000e-01    2.320000e+00
  N4ar SC4er  1 4.300000e-01    2.320000e+00
  N4ar SC3er  1 4.300000e-01    2.160000e+00
  N4ar SC2er  1 4.300000e-01    1.930000e+00
  N4ar SC1er  1 4.300000e-01    1.730000e+00
  N4ar SX4er  1 4.300000e-01    2.930000e+00
  N4ar SX3er  1 4.300000e-01    2.920000e+00
  N4ar SX2er  1 4.300000e-01    2.320000e+00
  N4ar SX1er  1 4.300000e-01    2.160000e+00
  N3ar SC6er  1 4.300000e-01    2.530000e+00
  N3ar SC5er  1 4.300000e-01    2.320000e+00
  N3ar SC4er  1 4.300000e-01    2.320000e+00
  N3ar SC3er  1 4.300000e-01    2.160000e+00
  N3ar SC2er  1 4.300000e-01    2.160000e+00
  N3ar SC1er  1 4.300000e-01    1.930000e+00
  N3ar SX4er  1 4.300000e-01    2.920000e+00
  N3ar SX3er  1 4.300000e-01    2.530000e+00
  N3ar SX2er  1 4.300000e-01    2.320000e+00
  N3ar SX1er  1 4.300000e-01    2.320000e+00
  N2ar SC6er  1 4.300000e-01    2.530000e+00
  N2ar SC5er  1 4.300000e-01    2.320000e+00
  N2ar SC4er  1 4.300000e-01    2.320000e+00
  N2ar SC3er  1 4.300000e-01    2.320000e+00
  N2ar SC2er  1 4.300000e-01    2.160000e+00
  N2ar SC1er  1 4.300000e-01    1.930000e+00
  N2ar SX4er  1 4.300000e-01    2.920000e+00
  N2ar SX3er  1 4.300000e-01    2.530000e+00
  N2ar SX2er  1 4.300000e-01    2.320000e+00
  N2ar SX1er  1 4.300000e-01    2.320000e+00
  N1ar SC6er  1 4.300000e-01    2.920000e+00
  N1ar SC5er  1 4.300000e-01    2.530000e+00
  N1ar SC4er  1 4.300000e-01    2.530000e+00
  N1ar SC3er  1 4.300000e-01    2.320000e+00
  N1ar SC2er  1 4.300000e-01    2.160000e+00
  N1ar SC1er  1 4.300000e-01    1.930000e+00
  N1ar SX4er  1 4.300000e-01    2.530000e+00
  N1ar SX3er  1 4.300000e-01    2.530000e+00
  N1ar SX2er  1 4.300000e-01    2.320000e+00
  N1ar SX1er  1 4.300000e-01    2.320000e+00
 SP6ar  C6er  1 4.300000e-01    1.930000e+00
 SP6ar  C5er  1 4.300000e-01    1.730000e+00
 SP6ar  C4er  1 4.430000e-01    1.480000e+00
 SP6ar  C3er  1 4.730000e-01    1.280000e+00
 SP6ar  C2er  1 4.730000e-01    1.280000e+00
 SP6ar  C1er  1 5.140000e-01    1.110000e+00
 SP6ar  X4er  1 4.300000e-01    2.160000e+00
 SP6ar  X3er  1 4.300000e-01    2.160000e+00
 SP6ar  X2er  1 4.300000e-01    1.930000e+00
 SP6ar  X1er  1 4.300000e-01    1.730000e+00
 SP5ar  C6er  1 4.300000e-01    1.930000e+00
 SP5ar  C5er  1 4.300000e-01    1.930000e+00
 SP5ar  C4er  1 4.300000e-01    1.730000e+00
 SP5ar  C3er  1 4.430000e-01    1.480000e+00
 SP5ar  C2er  1 4.430000e-01    1.480000e+00
 SP5ar  C1er  1 4.730000e-01    1.280000e+00
 SP5ar  X4er  1 4.300000e-01    2.320000e+00
 SP5ar  X3er  1 4.300000e-01    2.160000e+00
 SP5ar  X2er  1 4.300000e-01    2.160000e+00
 SP5ar  X1er  1 4.300000e-01    1.730000e+00
 SP4ar  C6er  1 4.300000e-01    2.160000e+00
 SP4ar  C5er  1 4.300000e-01    1.930000e+00
 SP4ar  C4er  1 4.300000e-01    1.730000e+00
 SP4ar  C3er  1 4.430000e-01    1.480000e+00
 SP4ar  C2er  1 4.430000e-01    1.480000e+00
 SP4ar  C1er  1 4.730000e-01    1.280000e+00
 SP4ar  X4er  1 4.300000e-01    2.320000e+00
 SP4ar  X3er  1 4.300000e-01    2.160000e+00
 SP4ar  X2er  1 4.300000e-01    2.160000e+00
 SP4ar  X1er  1 4.300000e-01    1.930000e+00
 SP3ar  C6er  1 4.300000e-01    2.320000e+00
 SP3ar  C5er  1 4.300000e-01    2.160000e+00
 SP3ar  C4er  1 4.300000e-01    1.930000e+00
 SP3ar  C3er  1 4.430000e-01    1.480000e+00
 SP3ar  C2er  1 4.430000e-01    1.480000e+00
 SP3ar  C1er  1 4.730000e-01    1.280000e+00
 SP3ar  X4er  1 4.300000e-01    2.320000e+00
 SP3ar  X3er  1 4.300000e-01    2.320000e+00
 SP3ar  X2er  1 4.300000e-01    2.160000e+00
 SP3ar  X1er  1 4.300000e-01    1.930000e+00
 SP2ar  C6er  1 4.300000e-01    2.320000e+00
 SP2ar  C5er  1 4.300000e-01    2.160000e+00
 SP2ar  C4er  1 4.300000e-01    1.930000e+00
 SP2ar  C3er  1 4.300000e-01    1.730000e+00
 SP2ar  C2er  1 4.300000e-01    1.730000e+00
 SP2ar  C1er  1 4.430000e-01    1.480000e+00
 SP2ar  X4er  1 4.300000e-01    2.320000e+00
 SP2ar  X3er  1 4.300000e-01    2.320000e+00
 SP2ar  X2er  1 4.300000e-01    2.160000e+00
 SP2ar  X1er  1 4.300000e-01    1.930000e+00
 SP1ar  C6er  1 4.300000e-01    2.320000e+00
 SP1ar  C5er  1 4.300000e-01    2.160000e+00
 SP1ar  C4er  1 4.300000e-01    1.930000e+00
 SP1ar  C3er  1 4.300000e-01    1.730000e+00
 SP1ar  C2er  1 4.300000e-01    1.730000e+00
 SP1ar  C1er  1 4.430000e-01    1.480000e+00
 SP1ar  X4er  1 4.300000e-01    2.320000e+00
 SP1ar  X3er  1 4.300000e-01    2.320000e+00
 SP1ar  X2er  1 4.300000e-01    2.160000e+00
 SP1ar  X1er  1 4.300000e-01    1.930000e+00
 SN6ar  C6er  1 4.300000e-01    2.530000e+00
 SN6ar  C5er  1 4.300000e-01    2.320000e+00
 SN6ar  C4er  1 4.300000e-01    2.160000e+00
 SN6ar  C3er  1 4.300000e-01    1.930000e+00
 SN6ar  C2er  1 4.300000e-01    1.930000e+00
 SN6ar  C1er  1 4.300000e-01    1.730000e+00
 SN6ar  X4er  1 4.300000e-01    2.530000e+00
 SN6ar  X3er  1 4.300000e-01    2.320000e+00
 SN6ar  X2er  1 4.300000e-01    2.160000e+00
 SN6ar  X1er  1 4.300000e-01    1.930000e+00
 SN5ar  C6er  1 4.300000e-01    2.530000e+00
 SN5ar  C5er  1 4.300000e-01    2.320000e+00
 SN5ar  C4er  1 4.300000e-01    2.160000e+00
 SN5ar  C3er  1 4.300000e-01    2.160000e+00
 SN5ar  C2er  1 4.300000e-01    1.930000e+00
 SN5ar  C1er  1 4.300000e-01    1.730000e+00
 SN5ar  X4er  1 4.300000e-01    2.920000e+00
 SN5ar  X3er  1 4.300000e-01    2.530000e+00
 SN5ar  X2er  1 4.300000e-01    2.320000e+00
 SN5ar  X1er  1 4.300000e-01    2.160000e+00
 SN4ar  C6er  1 4.300000e-01    2.530000e+00
 SN4ar  C5er  1 4.300000e-01    2.320000e+00
 SN4ar  C4er  1 4.300000e-01    2.320000e+00
 SN4ar  C3er  1 4.300000e-01    2.160000e+00
 SN4ar  C2er  1 4.300000e-01    1.930000e+00
 SN4ar  C1er  1 4.300000e-01    1.730000e+00
 SN4ar  X4er  1 4.300000e-01    2.930000e+00
 SN4ar  X3er  1 4.300000e-01    2.920000e+00
 SN4ar  X2er  1 4.300000e-01    2.320000e+00
 SN4ar  X1er  1 4.300000e-01    2.160000e+00
 SN3ar  C6er  1 4.300000e-01    2.530000e+00
 SN3ar  C5er  1 4.300000e-01    2.320000e+00
 SN3ar  C4er  1 4.300000e-01    2.320000e+00
 SN3ar  C3er  1 4.300000e-01    2.160000e+00
 SN3ar  C2er  1 4.300000e-01    2.160000e+00
 SN3ar  C1er  1 4.300000e-01    1.930000e+00
 SN3ar  X4er  1 4.300000e-01    2.920000e+00
 SN3ar  X3er  1 4.300000e-01    2.530000e+00
 SN3ar  X2er  1 4.300000e-01    2.320000e+00
 SN3ar  X1er  1 4.300000e-01    2.320000e+00
 SN2ar  C6er  1 4.300000e-01    2.530000e+00
 SN2ar  C5er  1 4.300000e-01    2.320000e+00
 SN2ar  C4er  1 4.300000e-01    2.320000e+00
 SN2ar  C3er  1 4.300000e-01    2.320000e+00
 SN2ar  C2er  1 4.300000e-01    2.160000e+00
 SN2ar  C1er  1 4.300000e-01    1.930000e+00
 SN2ar  X4er  1 4.300000e-01    2.920000e+00
 SN2ar  X3er  1 4.300000e-01    2.530000e+00
 SN2ar  X2er  1 4.300000e-01    2.320000e+00
 SN2ar  X1er  1 4.300000e-01    2.320000e+00
 SN1ar  C6er  1 4.300000e-01    2.920000e+00
 SN1ar  C5er  1 4.300000e-01    2.530000e+00
 SN1ar  C4er  1 4.300000e-01    2.530000e+00
 SN1ar  C3er  1 4.300000e-01    2.320000e+00
 SN1ar  C2er  1 4.300000e-01    2.160000e+00
 SN1ar  C1er  1 4.300000e-01    1.930000e+00
 SN1ar  X4er  1 4.300000e-01    2.530000e+00
 SN1ar  X3er  1 4.300000e-01    2.530000e+00
 SN1ar  X2er  1 4.300000e-01    2.320000e+00
 SN1ar  X1er  1 4.300000e-01    2.320000e+00
  TP6d  TC6e  1 3.520000e-01    1.050000e+00
  TP6d  TC5e  1 3.660000e-01    9.350000e-01
  TP6d  TC4e  1 3.850000e-01    8.550000e-01
  TP6d  TC3e  1 4.110000e-01    8.010000e-01
  TP6d  TC2e  1 4.110000e-01    8.010000e-01
  TP6d  TC1e  1 4.380000e-01    7.310000e-01
  TP6d  TX4e  1 3.400000e-01    1.230000e+00
  TP6d  TX3e  1 3.400000e-01    1.230000e+00
  TP6d  TX2e  1 3.520000e-01    1.050000e+00
  TP6d  TX1e  1 3.660000e-01    9.350000e-01
  TP5d  TC6e  1 3.520000e-01    1.050000e+00
  TP5d  TC5e  1 3.520000e-01    1.050000e+00
  TP5d  TC4e  1 3.660000e-01    9.350000e-01
  TP5d  TC3e  1 3.850000e-01    8.550000e-01
  TP5d  TC2e  1 3.850000e-01    8.550000e-01
  TP5d  TC1e  1 4.110000e-01    8.010000e-01
  TP5d  TX4e  1 3.400000e-01    1.510000e+00
  TP5d  TX3e  1 3.400000e-01    1.230000e+00
  TP5d  TX2e  1 3.400000e-01    1.230000e+00
  TP5d  TX1e  1 3.660000e-01    9.350000e-01
  TP4d  TC6e  1 3.400000e-01    1.230000e+00
  TP4d  TC5e  1 3.520000e-01    1.050000e+00
  TP4d  TC4e  1 3.660000e-01    9.350000e-01
  TP4d  TC3e  1 3.850000e-01    8.550000e-01
  TP4d  TC2e  1 3.850000e-01    8.550000e-01
  TP4d  TC1e  1 4.110000e-01    8.010000e-01
  TP4d  TX4e  1 3.400000e-01    1.510000e+00
  TP4d  TX3e  1 3.400000e-01    1.230000e+00
  TP4d  TX2e  1 3.400000e-01    1.230000e+00
  TP4d  TX1e  1 3.520000e-01    1.050000e+00
  TP3d  TC6e  1 3.400000e-01    1.510000e+00
  TP3d  TC5e  1 3.400000e-01    1.230000e+00
  TP3d  TC4e  1 3.520000e-01    1.050000e+00
  TP3d  TC3e  1 3.850000e-01    8.550000e-01
  TP3d  TC2e  1 3.850000e-01    8.550000e-01
  TP3d  TC1e  1 4.110000e-01    8.010000e-01
  TP3d  TX4e  1 3.400000e-01    1.510000e+00
  TP3d  TX3e  1 3.400000e-01    1.510000e+00
  TP3d  TX2e  1 3.400000e-01    1.230000e+00
  TP3d  TX1e  1 3.520000e-01    1.050000e+00
  TP2d  TC6e  1 3.400000e-01    1.510000e+00
  TP2d  TC5e  1 3.400000e-01    1.230000e+00
  TP2d  TC4e  1 3.520000e-01    1.050000e+00
  TP2d  TC3e  1 3.660000e-01    9.350000e-01
  TP2d  TC2e  1 3.660000e-01    9.350000e-01
  TP2d  TC1e  1 3.850000e-01    8.550000e-01
  TP2d  TX4e  1 3.400000e-01    1.510000e+00
  TP2d  TX3e  1 3.400000e-01    1.510000e+00
  TP2d  TX2e  1 3.400000e-01    1.230000e+00
  TP2d  TX1e  1 3.520000e-01    1.050000e+00
  TP1d  TC6e  1 3.400000e-01    1.510000e+00
  TP1d  TC5e  1 3.400000e-01    1.230000e+00
  TP1d  TC4e  1 3.520000e-01    1.050000e+00
  TP1d  TC3e  1 3.660000e-01    9.350000e-01
  TP1d  TC2e  1 3.660000e-01    9.350000e-01
  TP1d  TC1e  1 3.850000e-01    8.550000e-01
  TP1d  TX4e  1 3.400000e-01    1.510000e+00
  TP1d  TX3e  1 3.400000e-01    1.510000e+00
  TP1d  TX2e  1 3.400000e-01    1.230000e+00
  TP1d  TX1e  1 3.520000e-01    1.050000e+00
  TN6d  TC6e  1 3.400000e-01    1.770000e+00
  TN6d  TC5e  1 3.400000e-01    1.510000e+00
  TN6d  TC4e  1 3.400000e-01    1.230000e+00
  TN6d  TC3e  1 3.520000e-01    1.050000e+00
  TN6d  TC2e  1 3.520000e-01    1.050000e+00
  TN6d  TC1e  1 3.660000e-01    9.350000e-01
  TN6d  TX4e  1 3.400000e-01    1.770000e+00
  TN6d  TX3e  1 3.400000e-01    1.510000e+00
  TN6d  TX2e  1 3.400000e-01    1.230000e+00
  TN6d  TX1e  1 3.520000e-01    1.050000e+00
  TN5d  TC6e  1 3.400000e-01    1.770000e+00
  TN5d  TC5e  1 3.400000e-01    1.510000e+00
  TN5d  TC4e  1 3.400000e-01    1.230000e+00
  TN5d  TC3e  1 3.400000e-01    1.230000e+00
  TN5d  TC2e  1 3.520000e-01    1.050000e+00
  TN5d  TC1e  1 3.660000e-01    9.350000e-01
  TN5d  TX4e  1 3.400000e-01    2.020000e+00
  TN5d  TX3e  1 3.400000e-01    1.770000e+00
  TN5d  TX2e  1 3.400000e-01    1.510000e+00
  TN5d  TX1e  1 3.400000e-01    1.230000e+00
  TN4d  TC6e  1 3.400000e-01    1.770000e+00
  TN4d  TC5e  1 3.400000e-01    1.510000e+00
  TN4d  TC4e  1 3.400000e-01    1.510000e+00
  TN4d  TC3e  1 3.400000e-01    1.230000e+00
  TN4d  TC2e  1 3.520000e-01    1.050000e+00
  TN4d  TC1e  1 3.660000e-01    9.350000e-01
  TN4d  TX4e  1 3.400000e-01    2.280000e+00
  TN4d  TX3e  1 3.400000e-01    2.020000e+00
  TN4d  TX2e  1 3.400000e-01    1.510000e+00
  TN4d  TX1e  1 3.400000e-01    1.230000e+00
  TN3d  TC6e  1 3.400000e-01    1.770000e+00
  TN3d  TC5e  1 3.400000e-01    1.510000e+00
  TN3d  TC4e  1 3.400000e-01    1.510000e+00
  TN3d  TC3e  1 3.400000e-01    1.230000e+00
  TN3d  TC2e  1 3.400000e-01    1.230000e+00
  TN3d  TC1e  1 3.520000e-01    1.050000e+00
  TN3d  TX4e  1 3.400000e-01    2.020000e+00
  TN3d  TX3e  1 3.400000e-01    1.770000e+00
  TN3d  TX2e  1 3.400000e-01    1.510000e+00
  TN3d  TX1e  1 3.400000e-01    1.510000e+00
  TN2d  TC6e  1 3.400000e-01    1.770000e+00
  TN2d  TC5e  1 3.400000e-01    1.510000e+00
  TN2d  TC4e  1 3.400000e-01    1.510000e+00
  TN2d  TC3e  1 3.400000e-01    1.510000e+00
  TN2d  TC2e  1 3.400000e-01    1.230000e+00
  TN2d  TC1e  1 3.520000e-01    1.050000e+00
  TN2d  TX4e  1 3.400000e-01    2.020000e+00
  TN2d  TX3e  1 3.400000e-01    1.770000e+00
  TN2d  TX2e  1 3.400000e-01    1.510000e+00
  TN2d  TX1e  1 3.400000e-01    1.510000e+00
  TN1d  TC6e  1 3.400000e-01    2.020000e+00
  TN1d  TC5e  1 3.400000e-01    1.770000e+00
  TN1d  TC4e  1 3.400000e-01    1.770000e+00
  TN1d  TC3e  1 3.400000e-01    1.510000e+00
  TN1d  TC2e  1 3.400000e-01    1.230000e+00
  TN1d  TC1e  1 3.520000e-01    1.050000e+00
  TN1d  TX4e  1 3.400000e-01    1.770000e+00
  TN1d  TX3e  1 3.400000e-01    1.770000e+00
  TN1d  TX2e  1 3.400000e-01    1.510000e+00
  TN1d  TX1e  1 3.400000e-01    1.510000e+00
  TP6d TX1eq  1 3.400000e-01    1.230000e+00
  TP5d TX1eq  1 3.400000e-01    1.230000e+00
  TP4d TX1eq  1 3.400000e-01    1.510000e+00
  TP3d TX1eq  1 3.400000e-01    1.510000e+00
  TP2d TX1eq  1 3.400000e-01    1.510000e+00
  TP1d TX1eq  1 3.400000e-01    1.510000e+00
  TN6d TX1eq  1 3.400000e-01    1.510000e+00
  TN5d TX1eq  1 3.400000e-01    1.770000e+00
  TN4d TX1eq  1 3.400000e-01    1.770000e+00
  TN3d TX1eq  1 3.400000e-01    2.020000e+00
  TN2d TX1eq  1 3.400000e-01    2.020000e+00
  TN1d TX1eq  1 3.400000e-01    2.020000e+00
  TP6d TX2eq  1 3.400000e-01    1.510000e+00
  TP5d TX2eq  1 3.400000e-01    1.770000e+00
  TP4d TX2eq  1 3.400000e-01    1.770000e+00
  TP3d TX2eq  1 3.400000e-01    1.770000e+00
  TP2d TX2eq  1 3.400000e-01    1.770000e+00
  TP1d TX2eq  1 3.400000e-01    1.770000e+00
  TN6d TX2eq  1 3.400000e-01    1.770000e+00
  TN5d TX2eq  1 3.400000e-01    2.020000e+00
  TN4d TX2eq  1 3.400000e-01    2.020000e+00
  TN3d TX2eq  1 3.400000e-01    2.020000e+00
  TN2d TX2eq  1 3.400000e-01    2.020000e+00
  TN1d TX2eq  1 3.400000e-01    2.020000e+00
  TP6d TX3eq  1 3.400000e-01    1.770000e+00
  TP5d TX3eq  1 3.400000e-01    1.770000e+00
  TP4d TX3eq  1 3.400000e-01    1.770000e+00
  TP3d TX3eq  1 3.400000e-01    2.020000e+00
  TP2d TX3eq  1 3.400000e-01    2.020000e+00
  TP1d TX3eq  1 3.400000e-01    2.020000e+00
  TN6d TX3eq  1 3.400000e-01    2.020000e+00
  TN5d TX3eq  1 3.400000e-01    2.280000e+00
  TN4d TX3eq  1 3.400000e-01    2.500000e+00
  TN3d TX3eq  1 3.400000e-01    2.280000e+00
  TN2d TX3eq  1 3.400000e-01    2.280000e+00
  TN1d TX3eq  1 3.400000e-01    2.280000e+00
  TP6d TX4eq  1 3.400000e-01    1.770000e+00
  TP5d TX4eq  1 3.400000e-01    2.020000e+00
  TP4d TX4eq  1 3.400000e-01    2.020000e+00
  TP3d TX4eq  1 3.400000e-01    2.020000e+00
  TP2d TX4eq  1 3.400000e-01    2.020000e+00
  TP1d TX4eq  1 3.400000e-01    2.020000e+00
  TN6d TX4eq  1 3.400000e-01    2.280000e+00
  TN5d TX4eq  1 3.400000e-01    2.500000e+00
  TN4d TX4eq  1 3.400000e-01    2.740000e+00
  TN3d TX4eq  1 3.400000e-01    2.500000e+00
  TN2d TX4eq  1 3.400000e-01    2.500000e+00
  TN1d TX4eq  1 3.400000e-01    2.280000e+00
  TP6d TC1eq  1 4.110000e-01    8.010000e-01
  TP5d TC1eq  1 3.660000e-01    9.350000e-01
  TP4d TC1eq  1 3.660000e-01    9.350000e-01
  TP3d TC1eq  1 3.660000e-01    9.350000e-01
  TP2d TC1eq  1 3.520000e-01    1.050000e+00
  TP1d TC1eq  1 3.520000e-01    1.050000e+00
  TN6d TC1eq  1 3.400000e-01    1.230000e+00
  TN5d TC1eq  1 3.400000e-01    1.230000e+00
  TN4d TC1eq  1 3.400000e-01    1.230000e+00
  TN3d TC1eq  1 3.400000e-01    1.510000e+00
  TN2d TC1eq  1 3.400000e-01    1.510000e+00
  TN1d TC1eq  1 3.400000e-01    1.510000e+00
  TP6d TC2eq  1 3.660000e-01    9.350000e-01
  TP5d TC2eq  1 3.520000e-01    1.050000e+00
  TP4d TC2eq  1 3.520000e-01    1.050000e+00
  TP3d TC2eq  1 3.520000e-01    1.050000e+00
  TP2d TC2eq  1 3.400000e-01    1.230000e+00
  TP1d TC2eq  1 3.400000e-01    1.230000e+00
  TN6d TC2eq  1 3.400000e-01    1.510000e+00
  TN5d TC2eq  1 3.400000e-01    1.510000e+00
  TN4d TC2eq  1 3.400000e-01    1.510000e+00
  TN3d TC2eq  1 3.400000e-01    1.770000e+00
  TN2d TC2eq  1 3.400000e-01    1.770000e+00
  TN1d TC2eq  1 3.400000e-01    1.770000e+00
  TP6d TC3eq  1 3.660000e-01    9.350000e-01
  TP5d TC3eq  1 3.520000e-01    1.050000e+00
  TP4d TC3eq  1 3.520000e-01    1.050000e+00
  TP3d TC3eq  1 3.520000e-01    1.050000e+00
  TP2d TC3eq  1 3.400000e-01    1.230000e+00
  TP1d TC3eq  1 3.400000e-01    1.230000e+00
  TN6d TC3eq  1 3.400000e-01    1.510000e+00
  TN5d TC3eq  1 3.400000e-01    1.770000e+00
  TN4d TC3eq  1 3.400000e-01    1.770000e+00
  TN3d TC3eq  1 3.400000e-01    1.770000e+00
  TN2d TC3eq  1 3.400000e-01    2.020000e+00
  TN1d TC3eq  1 3.400000e-01    2.020000e+00
  TP6d TC4eq  1 3.520000e-01    1.050000e+00
  TP5d TC4eq  1 3.400000e-01    1.230000e+00
  TP4d TC4eq  1 3.400000e-01    1.230000e+00
  TP3d TC4eq  1 3.400000e-01    1.510000e+00
  TP2d TC4eq  1 3.400000e-01    1.510000e+00
  TP1d TC4eq  1 3.400000e-01    1.510000e+00
  TN6d TC4eq  1 3.400000e-01    1.770000e+00
  TN5d TC4eq  1 3.400000e-01    1.770000e+00
  TN4d TC4eq  1 3.400000e-01    2.020000e+00
  TN3d TC4eq  1 3.400000e-01    2.020000e+00
  TN2d TC4eq  1 3.400000e-01    2.020000e+00
  TN1d TC4eq  1 3.400000e-01    2.280000e+00
  TP6d TC5eq  1 3.400000e-01    1.230000e+00
  TP5d TC5eq  1 3.400000e-01    1.510000e+00
  TP4d TC5eq  1 3.400000e-01    1.510000e+00
  TP3d TC5eq  1 3.400000e-01    1.770000e+00
  TP2d TC5eq  1 3.400000e-01    1.770000e+00
  TP1d TC5eq  1 3.400000e-01    1.770000e+00
  TN6d TC5eq  1 3.400000e-01    2.020000e+00
  TN5d TC5eq  1 3.400000e-01    2.020000e+00
  TN4d TC5eq  1 3.400000e-01    2.020000e+00
  TN3d TC5eq  1 3.400000e-01    2.020000e+00
  TN2d TC5eq  1 3.400000e-01    2.020000e+00
  TN1d TC5eq  1 3.400000e-01    2.280000e+00
  TP6d TC6eq  1 3.400000e-01    1.510000e+00
  TP5d TC6eq  1 3.400000e-01    1.510000e+00
  TP4d TC6eq  1 3.400000e-01    1.770000e+00
  TP3d TC6eq  1 3.400000e-01    2.020000e+00
  TP2d TC6eq  1 3.400000e-01    2.020000e+00
  TP1d TC6eq  1 3.400000e-01    2.020000e+00
  TN6d TC6eq  1 3.400000e-01    2.280000e+00
  TN5d TC6eq  1 3.400000e-01    2.280000e+00
  TN4d TC6eq  1 3.400000e-01    2.280000e+00
  TN3d TC6eq  1 3.400000e-01    2.280000e+00
  TN2d TC6eq  1 3.400000e-01    2.280000e+00
  TN1d TC6eq  1 3.400000e-01    2.500000e+00
  TP6d TX1eh  1 3.660000e-01    9.350000e-01
  TP5d TX1eh  1 3.660000e-01    9.350000e-01
  TP4d TX1eh  1 3.520000e-01    1.050000e+00
  TP3d TX1eh  1 3.520000e-01    1.050000e+00
  TP2d TX1eh  1 3.520000e-01    1.050000e+00
  TP1d TX1eh  1 3.520000e-01    1.050000e+00
  TN6d TX1eh  1 3.520000e-01    1.050000e+00
  TN5d TX1eh  1 3.400000e-01    1.230000e+00
  TN4d TX1eh  1 3.400000e-01    1.230000e+00
  TN3d TX1eh  1 3.400000e-01    1.510000e+00
  TN2d TX1eh  1 3.400000e-01    1.510000e+00
  TN1d TX1eh  1 3.400000e-01    1.510000e+00
  TP6d TX2eh  1 3.520000e-01    1.050000e+00
  TP5d TX2eh  1 3.400000e-01    1.230000e+00
  TP4d TX2eh  1 3.400000e-01    1.230000e+00
  TP3d TX2eh  1 3.400000e-01    1.230000e+00
  TP2d TX2eh  1 3.400000e-01    1.230000e+00
  TP1d TX2eh  1 3.400000e-01    1.230000e+00
  TN6d TX2eh  1 3.400000e-01    1.230000e+00
  TN5d TX2eh  1 3.400000e-01    1.510000e+00
  TN4d TX2eh  1 3.400000e-01    1.510000e+00
  TN3d TX2eh  1 3.400000e-01    1.510000e+00
  TN2d TX2eh  1 3.400000e-01    1.510000e+00
  TN1d TX2eh  1 3.400000e-01    1.510000e+00
  TP6d TX3eh  1 3.400000e-01    1.230000e+00
  TP5d TX3eh  1 3.400000e-01    1.230000e+00
  TP4d TX3eh  1 3.400000e-01    1.230000e+00
  TP3d TX3eh  1 3.400000e-01    1.510000e+00
  TP2d TX3eh  1 3.400000e-01    1.510000e+00
  TP1d TX3eh  1 3.400000e-01    1.510000e+00
  TN6d TX3eh  1 3.400000e-01    1.510000e+00
  TN5d TX3eh  1 3.400000e-01    1.770000e+00
  TN4d TX3eh  1 3.400000e-01    2.020000e+00
  TN3d TX3eh  1 3.400000e-01    1.770000e+00
  TN2d TX3eh  1 3.400000e-01    1.770000e+00
  TN1d TX3eh  1 3.400000e-01    1.770000e+00
  TP6d TX4eh  1 3.400000e-01    1.230000e+00
  TP5d TX4eh  1 3.400000e-01    1.510000e+00
  TP4d TX4eh  1 3.400000e-01    1.510000e+00
  TP3d TX4eh  1 3.400000e-01    1.510000e+00
  TP2d TX4eh  1 3.400000e-01    1.510000e+00
  TP1d TX4eh  1 3.400000e-01    1.510000e+00
  TN6d TX4eh  1 3.400000e-01    1.770000e+00
  TN5d TX4eh  1 3.400000e-01    2.020000e+00
  TN4d TX4eh  1 3.400000e-01    2.280000e+00
  TN3d TX4eh  1 3.400000e-01    2.020000e+00
  TN2d TX4eh  1 3.400000e-01    2.020000e+00
  TN1d TX4eh  1 3.400000e-01    1.770000e+00
  TP6d TC1eh  1 4.380000e-01    7.310000e-01
  TP5d TC1eh  1 4.110000e-01    8.010000e-01
  TP4d TC1eh  1 4.110000e-01    8.010000e-01
  TP3d TC1eh  1 4.110000e-01    8.010000e-01
  TP2d TC1eh  1 3.850000e-01    8.550000e-01
  TP1d TC1eh  1 3.850000e-01    8.550000e-01
  TN6d TC1eh  1 3.660000e-01    9.350000e-01
  TN5d TC1eh  1 3.660000e-01    9.350000e-01
  TN4d TC1eh  1 3.660000e-01    9.350000e-01
  TN3d TC1eh  1 3.520000e-01    1.050000e+00
  TN2d TC1eh  1 3.520000e-01    1.050000e+00
  TN1d TC1eh  1 3.520000e-01    1.050000e+00
  TP6d TC2eh  1 4.110000e-01    8.010000e-01
  TP5d TC2eh  1 3.850000e-01    8.550000e-01
  TP4d TC2eh  1 3.850000e-01    8.550000e-01
  TP3d TC2eh  1 3.850000e-01    8.550000e-01
  TP2d TC2eh  1 3.660000e-01    9.350000e-01
  TP1d TC2eh  1 3.660000e-01    9.350000e-01
  TN6d TC2eh  1 3.520000e-01    1.050000e+00
  TN5d TC2eh  1 3.520000e-01    1.050000e+00
  TN4d TC2eh  1 3.520000e-01    1.050000e+00
  TN3d TC2eh  1 3.400000e-01    1.230000e+00
  TN2d TC2eh  1 3.400000e-01    1.230000e+00
  TN1d TC2eh  1 3.400000e-01    1.230000e+00
  TP6d TC3eh  1 4.110000e-01    8.010000e-01
  TP5d TC3eh  1 3.850000e-01    8.550000e-01
  TP4d TC3eh  1 3.850000e-01    8.550000e-01
  TP3d TC3eh  1 3.850000e-01    8.550000e-01
  TP2d TC3eh  1 3.660000e-01    9.350000e-01
  TP1d TC3eh  1 3.660000e-01    9.350000e-01
  TN6d TC3eh  1 3.520000e-01    1.050000e+00
  TN5d TC3eh  1 3.400000e-01    1.230000e+00
  TN4d TC3eh  1 3.400000e-01    1.230000e+00
  TN3d TC3eh  1 3.400000e-01    1.230000e+00
  TN2d TC3eh  1 3.400000e-01    1.510000e+00
  TN1d TC3eh  1 3.400000e-01    1.510000e+00
  TP6d TC4eh  1 3.850000e-01    8.550000e-01
  TP5d TC4eh  1 3.660000e-01    9.350000e-01
  TP4d TC4eh  1 3.660000e-01    9.350000e-01
  TP3d TC4eh  1 3.520000e-01    1.050000e+00
  TP2d TC4eh  1 3.520000e-01    1.050000e+00
  TP1d TC4eh  1 3.520000e-01    1.050000e+00
  TN6d TC4eh  1 3.400000e-01    1.230000e+00
  TN5d TC4eh  1 3.400000e-01    1.230000e+00
  TN4d TC4eh  1 3.400000e-01    1.510000e+00
  TN3d TC4eh  1 3.400000e-01    1.510000e+00
  TN2d TC4eh  1 3.400000e-01    1.510000e+00
  TN1d TC4eh  1 3.400000e-01    1.770000e+00
  TP6d TC5eh  1 3.660000e-01    9.350000e-01
  TP5d TC5eh  1 3.520000e-01    1.050000e+00
  TP4d TC5eh  1 3.520000e-01    1.050000e+00
  TP3d TC5eh  1 3.400000e-01    1.230000e+00
  TP2d TC5eh  1 3.400000e-01    1.230000e+00
  TP1d TC5eh  1 3.400000e-01    1.230000e+00
  TN6d TC5eh  1 3.400000e-01    1.510000e+00
  TN5d TC5eh  1 3.400000e-01    1.510000e+00
  TN4d TC5eh  1 3.400000e-01    1.510000e+00
  TN3d TC5eh  1 3.400000e-01    1.510000e+00
  TN2d TC5eh  1 3.400000e-01    1.510000e+00
  TN1d TC5eh  1 3.400000e-01    1.770000e+00
  TP6d TC6eh  1 3.520000e-01    1.050000e+00
  TP5d TC6eh  1 3.520000e-01    1.050000e+00
  TP4d TC6eh  1 3.400000e-01    1.230000e+00
  TP3d TC6eh  1 3.400000e-01    1.510000e+00
  TP2d TC6eh  1 3.400000e-01    1.510000e+00
  TP1d TC6eh  1 3.400000e-01    1.510000e+00
  TN6d TC6eh  1 3.400000e-01    1.770000e+00
  TN5d TC6eh  1 3.400000e-01    1.770000e+00
  TN4d TC6eh  1 3.400000e-01    1.770000e+00
  TN3d TC6eh  1 3.400000e-01    1.770000e+00
  TN2d TC6eh  1 3.400000e-01    1.770000e+00
  TN1d TC6eh  1 3.400000e-01    2.020000e+00
  TP6d TX1er  1 3.660000e-01    9.350000e-01
  TP5d TX1er  1 3.660000e-01    9.350000e-01
  TP4d TX1er  1 3.520000e-01    1.050000e+00
  TP3d TX1er  1 3.520000e-01    1.050000e+00
  TP2d TX1er  1 3.520000e-01    1.050000e+00
  TP1d TX1er  1 3.520000e-01    1.050000e+00
  TN6d TX1er  1 3.520000e-01    1.050000e+00
  TN5d TX1er  1 3.400000e-01    1.230000e+00
  TN4d TX1er  1 3.400000e-01    1.230000e+00
  TN3d TX1er  1 3.400000e-01    1.510000e+00
  TN2d TX1er  1 3.400000e-01    1.510000e+00
  TN1d TX1er  1 3.400000e-01    1.510000e+00
  TP6d TX2er  1 3.520000e-01    1.050000e+00
  TP5d TX2er  1 3.400000e-01    1.230000e+00
  TP4d TX2er  1 3.400000e-01    1.230000e+00
  TP3d TX2er  1 3.400000e-01    1.230000e+00
  TP2d TX2er  1 3.400000e-01    1.230000e+00
  TP1d TX2er  1 3.400000e-01    1.230000e+00
  TN6d TX2er  1 3.400000e-01    1.230000e+00
  TN5d TX2er  1 3.400000e-01    1.510000e+00
  TN4d TX2er  1 3.400000e-01    1.510000e+00
  TN3d TX2er  1 3.400000e-01    1.510000e+00
  TN2d TX2er  1 3.400000e-01    1.510000e+00
  TN1d TX2er  1 3.400000e-01    1.510000e+00
  TP6d TX3er  1 3.400000e-01    1.230000e+00
  TP5d TX3er  1 3.400000e-01    1.230000e+00
  TP4d TX3er  1 3.400000e-01    1.230000e+00
  TP3d TX3er  1 3.400000e-01    1.510000e+00
  TP2d TX3er  1 3.400000e-01    1.510000e+00
  TP1d TX3er  1 3.400000e-01    1.510000e+00
  TN6d TX3er  1 3.400000e-01    1.510000e+00
  TN5d TX3er  1 3.400000e-01    1.770000e+00
  TN4d TX3er  1 3.400000e-01    2.020000e+00
  TN3d TX3er  1 3.400000e-01    1.770000e+00
  TN2d TX3er  1 3.400000e-01    1.770000e+00
  TN1d TX3er  1 3.400000e-01    1.770000e+00
  TP6d TX4er  1 3.400000e-01    1.230000e+00
  TP5d TX4er  1 3.400000e-01    1.510000e+00
  TP4d TX4er  1 3.400000e-01    1.510000e+00
  TP3d TX4er  1 3.400000e-01    1.510000e+00
  TP2d TX4er  1 3.400000e-01    1.510000e+00
  TP1d TX4er  1 3.400000e-01    1.510000e+00
  TN6d TX4er  1 3.400000e-01    1.770000e+00
  TN5d TX4er  1 3.400000e-01    2.020000e+00
  TN4d TX4er  1 3.400000e-01    2.280000e+00
  TN3d TX4er  1 3.400000e-01    2.020000e+00
  TN2d TX4er  1 3.400000e-01    2.020000e+00
  TN1d TX4er  1 3.400000e-01    1.770000e+00
  TP6d TC1er  1 4.380000e-01    7.310000e-01
  TP5d TC1er  1 4.110000e-01    8.010000e-01
  TP4d TC1er  1 4.110000e-01    8.010000e-01
  TP3d TC1er  1 4.110000e-01    8.010000e-01
  TP2d TC1er  1 3.850000e-01    8.550000e-01
  TP1d TC1er  1 3.850000e-01    8.550000e-01
  TN6d TC1er  1 3.660000e-01    9.350000e-01
  TN5d TC1er  1 3.660000e-01    9.350000e-01
  TN4d TC1er  1 3.660000e-01    9.350000e-01
  TN3d TC1er  1 3.520000e-01    1.050000e+00
  TN2d TC1er  1 3.520000e-01    1.050000e+00
  TN1d TC1er  1 3.520000e-01    1.050000e+00
  TP6d TC2er  1 4.110000e-01    8.010000e-01
  TP5d TC2er  1 3.850000e-01    8.550000e-01
  TP4d TC2er  1 3.850000e-01    8.550000e-01
  TP3d TC2er  1 3.850000e-01    8.550000e-01
  TP2d TC2er  1 3.660000e-01    9.350000e-01
  TP1d TC2er  1 3.660000e-01    9.350000e-01
  TN6d TC2er  1 3.520000e-01    1.050000e+00
  TN5d TC2er  1 3.520000e-01    1.050000e+00
  TN4d TC2er  1 3.520000e-01    1.050000e+00
  TN3d TC2er  1 3.400000e-01    1.230000e+00
  TN2d TC2er  1 3.400000e-01    1.230000e+00
  TN1d TC2er  1 3.400000e-01    1.230000e+00
  TP6d TC3er  1 4.110000e-01    8.010000e-01
  TP5d TC3er  1 3.850000e-01    8.550000e-01
  TP4d TC3er  1 3.850000e-01    8.550000e-01
  TP3d TC3er  1 3.850000e-01    8.550000e-01
  TP2d TC3er  1 3.660000e-01    9.350000e-01
  TP1d TC3er  1 3.660000e-01    9.350000e-01
  TN6d TC3er  1 3.520000e-01    1.050000e+00
  TN5d TC3er  1 3.400000e-01    1.230000e+00
  TN4d TC3er  1 3.400000e-01    1.230000e+00
  TN3d TC3er  1 3.400000e-01    1.230000e+00
  TN2d TC3er  1 3.400000e-01    1.510000e+00
  TN1d TC3er  1 3.400000e-01    1.510000e+00
  TP6d TC4er  1 3.850000e-01    8.550000e-01
  TP5d TC4er  1 3.660000e-01    9.350000e-01
  TP4d TC4er  1 3.660000e-01    9.350000e-01
  TP3d TC4er  1 3.520000e-01    1.050000e+00
  TP2d TC4er  1 3.520000e-01    1.050000e+00
  TP1d TC4er  1 3.520000e-01    1.050000e+00
  TN6d TC4er  1 3.400000e-01    1.230000e+00
  TN5d TC4er  1 3.400000e-01    1.230000e+00
  TN4d TC4er  1 3.400000e-01    1.510000e+00
  TN3d TC4er  1 3.400000e-01    1.510000e+00
  TN2d TC4er  1 3.400000e-01    1.510000e+00
  TN1d TC4er  1 3.400000e-01    1.770000e+00
  TP6d TC5er  1 3.660000e-01    9.350000e-01
  TP5d TC5er  1 3.520000e-01    1.050000e+00
  TP4d TC5er  1 3.520000e-01    1.050000e+00
  TP3d TC5er  1 3.400000e-01    1.230000e+00
  TP2d TC5er  1 3.400000e-01    1.230000e+00
  TP1d TC5er  1 3.400000e-01    1.230000e+00
  TN6d TC5er  1 3.400000e-01    1.510000e+00
  TN5d TC5er  1 3.400000e-01    1.510000e+00
  TN4d TC5er  1 3.400000e-01    1.510000e+00
  TN3d TC5er  1 3.400000e-01    1.510000e+00
  TN2d TC5er  1 3.400000e-01    1.510000e+00
  TN1d TC5er  1 3.400000e-01    1.770000e+00
  TP6d TC6er  1 3.520000e-01    1.050000e+00
  TP5d TC6er  1 3.520000e-01    1.050000e+00
  TP4d TC6er  1 3.400000e-01    1.230000e+00
  TP3d TC6er  1 3.400000e-01    1.510000e+00
  TP2d TC6er  1 3.400000e-01    1.510000e+00
  TP1d TC6er  1 3.400000e-01    1.510000e+00
  TN6d TC6er  1 3.400000e-01    1.770000e+00
  TN5d TC6er  1 3.400000e-01    1.770000e+00
  TN4d TC6er  1 3.400000e-01    1.770000e+00
  TN3d TC6er  1 3.400000e-01    1.770000e+00
  TN2d TC6er  1 3.400000e-01    1.770000e+00
  TN1d TC6er  1 3.400000e-01    2.020000e+00
 TP6dq  TC6e  1 3.400000e-01    1.510000e+00
 TP6dq  TC5e  1 3.400000e-01    1.230000e+00
 TP6dq  TC4e  1 3.520000e-01    1.050000e+00
 TP6dq  TC3e  1 3.660000e-01    9.350000e-01
 TP6dq  TC2e  1 3.660000e-01    9.350000e-01
 TP6dq  TC1e  1 4.110000e-01    8.010000e-01
 TP6dq  TX4e  1 3.400000e-01    1.770000e+00
 TP6dq  TX3e  1 3.400000e-01    1.770000e+00
 TP6dq  TX2e  1 3.400000e-01    1.510000e+00
 TP6dq  TX1e  1 3.400000e-01    1.230000e+00
 TP5dq  TC6e  1 3.400000e-01    1.510000e+00
 TP5dq  TC5e  1 3.400000e-01    1.510000e+00
 TP5dq  TC4e  1 3.400000e-01    1.230000e+00
 TP5dq  TC3e  1 3.520000e-01    1.050000e+00
 TP5dq  TC2e  1 3.520000e-01    1.050000e+00
 TP5dq  TC1e  1 3.660000e-01    9.350000e-01
 TP5dq  TX4e  1 3.400000e-01    2.020000e+00
 TP5dq  TX3e  1 3.400000e-01    1.770000e+00
 TP5dq  TX2e  1 3.400000e-01    1.770000e+00
 TP5dq  TX1e  1 3.400000e-01    1.230000e+00
 TP4dq  TC6e  1 3.400000e-01    1.770000e+00
 TP4dq  TC5e  1 3.400000e-01    1.510000e+00
 TP4dq  TC4e  1 3.400000e-01    1.230000e+00
 TP4dq  TC3e  1 3.520000e-01    1.050000e+00
 TP4dq  TC2e  1 3.520000e-01    1.050000e+00
 TP4dq  TC1e  1 3.660000e-01    9.350000e-01
 TP4dq  TX4e  1 3.400000e-01    2.020000e+00
 TP4dq  TX3e  1 3.400000e-01    1.770000e+00
 TP4dq  TX2e  1 3.400000e-01    1.770000e+00
 TP4dq  TX1e  1 3.400000e-01    1.510000e+00
 TP3dq  TC6e  1 3.400000e-01    2.020000e+00
 TP3dq  TC5e  1 3.400000e-01    1.770000e+00
 TP3dq  TC4e  1 3.400000e-01    1.510000e+00
 TP3dq  TC3e  1 3.520000e-01    1.050000e+00
 TP3dq  TC2e  1 3.520000e-01    1.050000e+00
 TP3dq  TC1e  1 3.660000e-01    9.350000e-01
 TP3dq  TX4e  1 3.400000e-01    2.020000e+00
 TP3dq  TX3e  1 3.400000e-01    2.020000e+00
 TP3dq  TX2e  1 3.400000e-01    1.770000e+00
 TP3dq  TX1e  1 3.400000e-01    1.510000e+00
 TP2dq  TC6e  1 3.400000e-01    2.020000e+00
 TP2dq  TC5e  1 3.400000e-01    1.770000e+00
 TP2dq  TC4e  1 3.400000e-01    1.510000e+00
 TP2dq  TC3e  1 3.400000e-01    1.230000e+00
 TP2dq  TC2e  1 3.400000e-01    1.230000e+00
 TP2dq  TC1e  1 3.520000e-01    1.050000e+00
 TP2dq  TX4e  1 3.400000e-01    2.020000e+00
 TP2dq  TX3e  1 3.400000e-01    2.020000e+00
 TP2dq  TX2e  1 3.400000e-01    1.770000e+00
 TP2dq  TX1e  1 3.400000e-01    1.510000e+00
 TP1dq  TC6e  1 3.400000e-01    2.020000e+00
 TP1dq  TC5e  1 3.400000e-01    1.770000e+00
 TP1dq  TC4e  1 3.400000e-01    1.510000e+00
 TP1dq  TC3e  1 3.400000e-01    1.230000e+00
 TP1dq  TC2e  1 3.400000e-01    1.230000e+00
 TP1dq  TC1e  1 3.520000e-01    1.050000e+00
 TP1dq  TX4e  1 3.400000e-01    2.020000e+00
 TP1dq  TX3e  1 3.400000e-01    2.020000e+00
 TP1dq  TX2e  1 3.400000e-01    1.770000e+00
 TP1dq  TX1e  1 3.400000e-01    1.510000e+00
 TN6dq  TC6e  1 3.400000e-01    2.280000e+00
 TN6dq  TC5e  1 3.400000e-01    2.020000e+00
 TN6dq  TC4e  1 3.400000e-01    1.770000e+00
 TN6dq  TC3e  1 3.400000e-01    1.510000e+00
 TN6dq  TC2e  1 3.400000e-01    1.510000e+00
 TN6dq  TC1e  1 3.400000e-01    1.230000e+00
 TN6dq  TX4e  1 3.400000e-01    2.280000e+00
 TN6dq  TX3e  1 3.400000e-01    2.020000e+00
 TN6dq  TX2e  1 3.400000e-01    1.770000e+00
 TN6dq  TX1e  1 3.400000e-01    1.510000e+00
 TN5dq  TC6e  1 3.400000e-01    2.280000e+00
 TN5dq  TC5e  1 3.400000e-01    2.020000e+00
 TN5dq  TC4e  1 3.400000e-01    1.770000e+00
 TN5dq  TC3e  1 3.400000e-01    1.770000e+00
 TN5dq  TC2e  1 3.400000e-01    1.510000e+00
 TN5dq  TC1e  1 3.400000e-01    1.230000e+00
 TN5dq  TX4e  1 3.400000e-01    2.500000e+00
 TN5dq  TX3e  1 3.400000e-01    2.280000e+00
 TN5dq  TX2e  1 3.400000e-01    2.020000e+00
 TN5dq  TX1e  1 3.400000e-01    1.770000e+00
 TN4dq  TC6e  1 3.400000e-01    2.280000e+00
 TN4dq  TC5e  1 3.400000e-01    2.020000e+00
 TN4dq  TC4e  1 3.400000e-01    2.020000e+00
 TN4dq  TC3e  1 3.400000e-01    1.770000e+00
 TN4dq  TC2e  1 3.400000e-01    1.510000e+00
 TN4dq  TC1e  1 3.400000e-01    1.230000e+00
 TN4dq  TX4e  1 3.400000e-01    2.740000e+00
 TN4dq  TX3e  1 3.400000e-01    2.500000e+00
 TN4dq  TX2e  1 3.400000e-01    2.020000e+00
 TN4dq  TX1e  1 3.400000e-01    1.770000e+00
 TN3dq  TC6e  1 3.400000e-01    2.280000e+00
 TN3dq  TC5e  1 3.400000e-01    2.020000e+00
 TN3dq  TC4e  1 3.400000e-01    2.020000e+00
 TN3dq  TC3e  1 3.400000e-01    1.770000e+00
 TN3dq  TC2e  1 3.400000e-01    1.770000e+00
 TN3dq  TC1e  1 3.400000e-01    1.510000e+00
 TN3dq  TX4e  1 3.400000e-01    2.500000e+00
 TN3dq  TX3e  1 3.400000e-01    2.280000e+00
 TN3dq  TX2e  1 3.400000e-01    2.020000e+00
 TN3dq  TX1e  1 3.400000e-01    2.020000e+00
 TN2dq  TC6e  1 3.400000e-01    2.280000e+00
 TN2dq  TC5e  1 3.400000e-01    2.020000e+00
 TN2dq  TC4e  1 3.400000e-01    2.020000e+00
 TN2dq  TC3e  1 3.400000e-01    2.020000e+00
 TN2dq  TC2e  1 3.400000e-01    1.770000e+00
 TN2dq  TC1e  1 3.400000e-01    1.510000e+00
 TN2dq  TX4e  1 3.400000e-01    2.500000e+00
 TN2dq  TX3e  1 3.400000e-01    2.280000e+00
 TN2dq  TX2e  1 3.400000e-01    2.020000e+00
 TN2dq  TX1e  1 3.400000e-01    2.020000e+00
 TN1dq  TC6e  1 3.400000e-01    2.500000e+00
 TN1dq  TC5e  1 3.400000e-01    2.280000e+00
 TN1dq  TC4e  1 3.400000e-01    2.280000e+00
 TN1dq  TC3e  1 3.400000e-01    2.020000e+00
 TN1dq  TC2e  1 3.400000e-01    1.770000e+00
 TN1dq  TC1e  1 3.400000e-01    1.510000e+00
 TN1dq  TX4e  1 3.400000e-01    2.280000e+00
 TN1dq  TX3e  1 3.400000e-01    2.280000e+00
 TN1dq  TX2e  1 3.400000e-01    2.020000e+00
 TN1dq  TX1e  1 3.400000e-01    2.020000e+00
 TP6dq TC6eq  1 3.400000e-01    1.510000e+00
 TP6dq TC5eq  1 3.400000e-01    1.230000e+00
 TP6dq TC4eq  1 3.520000e-01    1.050000e+00
 TP6dq TC3eq  1 3.660000e-01    9.350000e-01
 TP6dq TC2eq  1 3.660000e-01    9.350000e-01
 TP6dq TC1eq  1 4.110000e-01    8.010000e-01
 TP6dq TX4eq  1 3.400000e-01    1.770000e+00
 TP6dq TX3eq  1 3.400000e-01    1.770000e+00
 TP6dq TX2eq  1 3.400000e-01    1.510000e+00
 TP6dq TX1eq  1 3.400000e-01    1.230000e+00
 TP5dq TC6eq  1 3.400000e-01    1.510000e+00
 TP5dq TC5eq  1 3.400000e-01    1.510000e+00
 TP5dq TC4eq  1 3.400000e-01    1.230000e+00
 TP5dq TC3eq  1 3.520000e-01    1.050000e+00
 TP5dq TC2eq  1 3.520000e-01    1.050000e+00
 TP5dq TC1eq  1 3.660000e-01    9.350000e-01
 TP5dq TX4eq  1 3.400000e-01    2.020000e+00
 TP5dq TX3eq  1 3.400000e-01    1.770000e+00
 TP5dq TX2eq  1 3.400000e-01    1.770000e+00
 TP5dq TX1eq  1 3.400000e-01    1.230000e+00
 TP4dq TC6eq  1 3.400000e-01    1.770000e+00
 TP4dq TC5eq  1 3.400000e-01    1.510000e+00
 TP4dq TC4eq  1 3.400000e-01    1.230000e+00
 TP4dq TC3eq  1 3.520000e-01    1.050000e+00
 TP4dq TC2eq  1 3.520000e-01    1.050000e+00
 TP4dq TC1eq  1 3.660000e-01    9.350000e-01
 TP4dq TX4eq  1 3.400000e-01    2.020000e+00
 TP4dq TX3eq  1 3.400000e-01    1.770000e+00
 TP4dq TX2eq  1 3.400000e-01    1.770000e+00
 TP4dq TX1eq  1 3.400000e-01    1.510000e+00
 TP3dq TC6eq  1 3.400000e-01    2.020000e+00
 TP3dq TC5eq  1 3.400000e-01    1.770000e+00
 TP3dq TC4eq  1 3.400000e-01    1.510000e+00
 TP3dq TC3eq  1 3.520000e-01    1.050000e+00
 TP3dq TC2eq  1 3.520000e-01    1.050000e+00
 TP3dq TC1eq  1 3.660000e-01    9.350000e-01
 TP3dq TX4eq  1 3.400000e-01    2.020000e+00
 TP3dq TX3eq  1 3.400000e-01    2.020000e+00
 TP3dq TX2eq  1 3.400000e-01    1.770000e+00
 TP3dq TX1eq  1 3.400000e-01    1.510000e+00
 TP2dq TC6eq  1 3.400000e-01    2.020000e+00
 TP2dq TC5eq  1 3.400000e-01    1.770000e+00
 TP2dq TC4eq  1 3.400000e-01    1.510000e+00
 TP2dq TC3eq  1 3.400000e-01    1.230000e+00
 TP2dq TC2eq  1 3.400000e-01    1.230000e+00
 TP2dq TC1eq  1 3.520000e-01    1.050000e+00
 TP2dq TX4eq  1 3.400000e-01    2.020000e+00
 TP2dq TX3eq  1 3.400000e-01    2.020000e+00
 TP2dq TX2eq  1 3.400000e-01    1.770000e+00
 TP2dq TX1eq  1 3.400000e-01    1.510000e+00
 TP1dq TC6eq  1 3.400000e-01    2.020000e+00
 TP1dq TC5eq  1 3.400000e-01    1.770000e+00
 TP1dq TC4eq  1 3.400000e-01    1.510000e+00
 TP1dq TC3eq  1 3.400000e-01    1.230000e+00
 TP1dq TC2eq  1 3.400000e-01    1.230000e+00
 TP1dq TC1eq  1 3.520000e-01    1.050000e+00
 TP1dq TX4eq  1 3.400000e-01    2.020000e+00
 TP1dq TX3eq  1 3.400000e-01    2.020000e+00
 TP1dq TX2eq  1 3.400000e-01    1.770000e+00
 TP1dq TX1eq  1 3.400000e-01    1.510000e+00
 TN6dq TC6eq  1 3.400000e-01    2.280000e+00
 TN6dq TC5eq  1 3.400000e-01    2.020000e+00
 TN6dq TC4eq  1 3.400000e-01    1.770000e+00
 TN6dq TC3eq  1 3.400000e-01    1.510000e+00
 TN6dq TC2eq  1 3.400000e-01    1.510000e+00
 TN6dq TC1eq  1 3.400000e-01    1.230000e+00
 TN6dq TX4eq  1 3.400000e-01    2.280000e+00
 TN6dq TX3eq  1 3.400000e-01    2.020000e+00
 TN6dq TX2eq  1 3.400000e-01    1.770000e+00
 TN6dq TX1eq  1 3.400000e-01    1.510000e+00
 TN5dq TC6eq  1 3.400000e-01    2.280000e+00
 TN5dq TC5eq  1 3.400000e-01    2.020000e+00
 TN5dq TC4eq  1 3.400000e-01    1.770000e+00
 TN5dq TC3eq  1 3.400000e-01    1.770000e+00
 TN5dq TC2eq  1 3.400000e-01    1.510000e+00
 TN5dq TC1eq  1 3.400000e-01    1.230000e+00
 TN5dq TX4eq  1 3.400000e-01    2.500000e+00
 TN5dq TX3eq  1 3.400000e-01    2.280000e+00
 TN5dq TX2eq  1 3.400000e-01    2.020000e+00
 TN5dq TX1eq  1 3.400000e-01    1.770000e+00
 TN4dq TC6eq  1 3.400000e-01    2.280000e+00
 TN4dq TC5eq  1 3.400000e-01    2.020000e+00
 TN4dq TC4eq  1 3.400000e-01    2.020000e+00
 TN4dq TC3eq  1 3.400000e-01    1.770000e+00
 TN4dq TC2eq  1 3.400000e-01    1.510000e+00
 TN4dq TC1eq  1 3.400000e-01    1.230000e+00
 TN4dq TX4eq  1 3.400000e-01    2.740000e+00
 TN4dq TX3eq  1 3.400000e-01    2.500000e+00
 TN4dq TX2eq  1 3.400000e-01    2.020000e+00
 TN4dq TX1eq  1 3.400000e-01    1.770000e+00
 TN3dq TC6eq  1 3.400000e-01    2.280000e+00
 TN3dq TC5eq  1 3.400000e-01    2.020000e+00
 TN3dq TC4eq  1 3.400000e-01    2.020000e+00
 TN3dq TC3eq  1 3.400000e-01    1.770000e+00
 TN3dq TC2eq  1 3.400000e-01    1.770000e+00
 TN3dq TC1eq  1 3.400000e-01    1.510000e+00
 TN3dq TX4eq  1 3.400000e-01    2.500000e+00
 TN3dq TX3eq  1 3.400000e-01    2.280000e+00
 TN3dq TX2eq  1 3.400000e-01    2.020000e+00
 TN3dq TX1eq  1 3.400000e-01    2.020000e+00
 TN2dq TC6eq  1 3.400000e-01    2.280000e+00
 TN2dq TC5eq  1 3.400000e-01    2.020000e+00
 TN2dq TC4eq  1 3.400000e-01    2.020000e+00
 TN2dq TC3eq  1 3.400000e-01    2.020000e+00
 TN2dq TC2eq  1 3.400000e-01    1.770000e+00
 TN2dq TC1eq  1 3.400000e-01    1.510000e+00
 TN2dq TX4eq  1 3.400000e-01    2.500000e+00
 TN2dq TX3eq  1 3.400000e-01    2.280000e+00
 TN2dq TX2eq  1 3.400000e-01    2.020000e+00
 TN2dq TX1eq  1 3.400000e-01    2.020000e+00
 TN1dq TC6eq  1 3.400000e-01    2.500000e+00
 TN1dq TC5eq  1 3.400000e-01    2.280000e+00
 TN1dq TC4eq  1 3.400000e-01    2.280000e+00
 TN1dq TC3eq  1 3.400000e-01    2.020000e+00
 TN1dq TC2eq  1 3.400000e-01    1.770000e+00
 TN1dq TC1eq  1 3.400000e-01    1.510000e+00
 TN1dq TX4eq  1 3.400000e-01    2.280000e+00
 TN1dq TX3eq  1 3.400000e-01    2.280000e+00
 TN1dq TX2eq  1 3.400000e-01    2.020000e+00
 TN1dq TX1eq  1 3.400000e-01    2.020000e+00
 TP6dq TC6eh  1 3.400000e-01    1.510000e+00
 TP5dq TC6eh  1 3.400000e-01    1.510000e+00
 TP4dq TC6eh  1 3.400000e-01    1.770000e+00
 TP3dq TC6eh  1 3.400000e-01    2.020000e+00
 TP2dq TC6eh  1 3.400000e-01    2.020000e+00
 TP1dq TC6eh  1 3.400000e-01    2.020000e+00
 TN6dq TC6eh  1 3.400000e-01    2.280000e+00
 TN5dq TC6eh  1 3.400000e-01    2.280000e+00
 TN4dq TC6eh  1 3.400000e-01    2.280000e+00
 TN3dq TC6eh  1 3.400000e-01    2.280000e+00
 TN2dq TC6eh  1 3.400000e-01    2.280000e+00
 TN1dq TC6eh  1 3.400000e-01    2.500000e+00
 TP6dq TC5eh  1 3.400000e-01    1.230000e+00
 TP5dq TC5eh  1 3.400000e-01    1.510000e+00
 TP4dq TC5eh  1 3.400000e-01    1.510000e+00
 TP3dq TC5eh  1 3.400000e-01    1.770000e+00
 TP2dq TC5eh  1 3.400000e-01    1.770000e+00
 TP1dq TC5eh  1 3.400000e-01    1.770000e+00
 TN6dq TC5eh  1 3.400000e-01    2.020000e+00
 TN5dq TC5eh  1 3.400000e-01    2.020000e+00
 TN4dq TC5eh  1 3.400000e-01    2.020000e+00
 TN3dq TC5eh  1 3.400000e-01    2.020000e+00
 TN2dq TC5eh  1 3.400000e-01    2.020000e+00
 TN1dq TC5eh  1 3.400000e-01    2.280000e+00
 TP6dq TC4eh  1 3.520000e-01    1.050000e+00
 TP5dq TC4eh  1 3.400000e-01    1.230000e+00
 TP4dq TC4eh  1 3.400000e-01    1.230000e+00
 TP3dq TC4eh  1 3.400000e-01    1.510000e+00
 TP2dq TC4eh  1 3.400000e-01    1.510000e+00
 TP1dq TC4eh  1 3.400000e-01    1.510000e+00
 TN6dq TC4eh  1 3.400000e-01    1.770000e+00
 TN5dq TC4eh  1 3.400000e-01    1.770000e+00
 TN4dq TC4eh  1 3.400000e-01    2.020000e+00
 TN3dq TC4eh  1 3.400000e-01    2.020000e+00
 TN2dq TC4eh  1 3.400000e-01    2.020000e+00
 TN1dq TC4eh  1 3.400000e-01    2.280000e+00
 TP6dq TC3eh  1 3.660000e-01    9.350000e-01
 TP5dq TC3eh  1 3.520000e-01    1.050000e+00
 TP4dq TC3eh  1 3.520000e-01    1.050000e+00
 TP3dq TC3eh  1 3.520000e-01    1.050000e+00
 TP2dq TC3eh  1 3.400000e-01    1.230000e+00
 TP1dq TC3eh  1 3.400000e-01    1.230000e+00
 TN6dq TC3eh  1 3.400000e-01    1.510000e+00
 TN5dq TC3eh  1 3.400000e-01    1.770000e+00
 TN4dq TC3eh  1 3.400000e-01    1.770000e+00
 TN3dq TC3eh  1 3.400000e-01    1.770000e+00
 TN2dq TC3eh  1 3.400000e-01    2.020000e+00
 TN1dq TC3eh  1 3.400000e-01    2.020000e+00
 TP6dq TC2eh  1 3.660000e-01    9.350000e-01
 TP5dq TC2eh  1 3.520000e-01    1.050000e+00
 TP4dq TC2eh  1 3.520000e-01    1.050000e+00
 TP3dq TC2eh  1 3.520000e-01    1.050000e+00
 TP2dq TC2eh  1 3.400000e-01    1.230000e+00
 TP1dq TC2eh  1 3.400000e-01    1.230000e+00
 TN6dq TC2eh  1 3.400000e-01    1.510000e+00
 TN5dq TC2eh  1 3.400000e-01    1.510000e+00
 TN4dq TC2eh  1 3.400000e-01    1.510000e+00
 TN3dq TC2eh  1 3.400000e-01    1.770000e+00
 TN2dq TC2eh  1 3.400000e-01    1.770000e+00
 TN1dq TC2eh  1 3.400000e-01    1.770000e+00
 TP6dq TC1eh  1 4.110000e-01    8.010000e-01
 TP5dq TC1eh  1 3.660000e-01    9.350000e-01
 TP4dq TC1eh  1 3.660000e-01    9.350000e-01
 TP3dq TC1eh  1 3.660000e-01    9.350000e-01
 TP2dq TC1eh  1 3.520000e-01    1.050000e+00
 TP1dq TC1eh  1 3.520000e-01    1.050000e+00
 TN6dq TC1eh  1 3.400000e-01    1.230000e+00
 TN5dq TC1eh  1 3.400000e-01    1.230000e+00
 TN4dq TC1eh  1 3.400000e-01    1.230000e+00
 TN3dq TC1eh  1 3.400000e-01    1.510000e+00
 TN2dq TC1eh  1 3.400000e-01    1.510000e+00
 TN1dq TC1eh  1 3.400000e-01    1.510000e+00
 TP6dq TX4eh  1 3.400000e-01    1.770000e+00
 TP5dq TX4eh  1 3.400000e-01    2.020000e+00
 TP4dq TX4eh  1 3.400000e-01    2.020000e+00
 TP3dq TX4eh  1 3.400000e-01    2.020000e+00
 TP2dq TX4eh  1 3.400000e-01    2.020000e+00
 TP1dq TX4eh  1 3.400000e-01    2.020000e+00
 TN6dq TX4eh  1 3.400000e-01    2.280000e+00
 TN5dq TX4eh  1 3.400000e-01    2.500000e+00
 TN4dq TX4eh  1 3.400000e-01    2.740000e+00
 TN3dq TX4eh  1 3.400000e-01    2.500000e+00
 TN2dq TX4eh  1 3.400000e-01    2.500000e+00
 TN1dq TX4eh  1 3.400000e-01    2.280000e+00
 TP6dq TX3eh  1 3.400000e-01    1.770000e+00
 TP5dq TX3eh  1 3.400000e-01    1.770000e+00
 TP4dq TX3eh  1 3.400000e-01    1.770000e+00
 TP3dq TX3eh  1 3.400000e-01    2.020000e+00
 TP2dq TX3eh  1 3.400000e-01    2.020000e+00
 TP1dq TX3eh  1 3.400000e-01    2.020000e+00
 TN6dq TX3eh  1 3.400000e-01    2.020000e+00
 TN5dq TX3eh  1 3.400000e-01    2.280000e+00
 TN4dq TX3eh  1 3.400000e-01    2.500000e+00
 TN3dq TX3eh  1 3.400000e-01    2.280000e+00
 TN2dq TX3eh  1 3.400000e-01    2.280000e+00
 TN1dq TX3eh  1 3.400000e-01    2.280000e+00
 TP6dq TX2eh  1 3.400000e-01    1.510000e+00
 TP5dq TX2eh  1 3.400000e-01    1.770000e+00
 TP4dq TX2eh  1 3.400000e-01    1.770000e+00
 TP3dq TX2eh  1 3.400000e-01    1.770000e+00
 TP2dq TX2eh  1 3.400000e-01    1.770000e+00
 TP1dq TX2eh  1 3.400000e-01    1.770000e+00
 TN6dq TX2eh  1 3.400000e-01    1.770000e+00
 TN5dq TX2eh  1 3.400000e-01    2.020000e+00
 TN4dq TX2eh  1 3.400000e-01    2.020000e+00
 TN3dq TX2eh  1 3.400000e-01    2.020000e+00
 TN2dq TX2eh  1 3.400000e-01    2.020000e+00
 TN1dq TX2eh  1 3.400000e-01    2.020000e+00
 TP6dq TX1eh  1 3.400000e-01    1.230000e+00
 TP5dq TX1eh  1 3.400000e-01    1.230000e+00
 TP4dq TX1eh  1 3.400000e-01    1.510000e+00
 TP3dq TX1eh  1 3.400000e-01    1.510000e+00
 TP2dq TX1eh  1 3.400000e-01    1.510000e+00
 TP1dq TX1eh  1 3.400000e-01    1.510000e+00
 TN6dq TX1eh  1 3.400000e-01    1.510000e+00
 TN5dq TX1eh  1 3.400000e-01    1.770000e+00
 TN4dq TX1eh  1 3.400000e-01    1.770000e+00
 TN3dq TX1eh  1 3.400000e-01    2.020000e+00
 TN2dq TX1eh  1 3.400000e-01    2.020000e+00
 TN1dq TX1eh  1 3.400000e-01    2.020000e+00
 TP6dq TC6er  1 3.400000e-01    1.510000e+00
 TP5dq TC6er  1 3.400000e-01    1.510000e+00
 TP4dq TC6er  1 3.400000e-01    1.770000e+00
 TP3dq TC6er  1 3.400000e-01    2.020000e+00
 TP2dq TC6er  1 3.400000e-01    2.020000e+00
 TP1dq TC6er  1 3.400000e-01    2.020000e+00
 TN6dq TC6er  1 3.400000e-01    2.280000e+00
 TN5dq TC6er  1 3.400000e-01    2.280000e+00
 TN4dq TC6er  1 3.400000e-01    2.280000e+00
 TN3dq TC6er  1 3.400000e-01    2.280000e+00
 TN2dq TC6er  1 3.400000e-01    2.280000e+00
 TN1dq TC6er  1 3.400000e-01    2.500000e+00
 TP6dq TC5er  1 3.400000e-01    1.230000e+00
 TP5dq TC5er  1 3.400000e-01    1.510000e+00
 TP4dq TC5er  1 3.400000e-01    1.510000e+00
 TP3dq TC5er  1 3.400000e-01    1.770000e+00
 TP2dq TC5er  1 3.400000e-01    1.770000e+00
 TP1dq TC5er  1 3.400000e-01    1.770000e+00
 TN6dq TC5er  1 3.400000e-01    2.020000e+00
 TN5dq TC5er  1 3.400000e-01    2.020000e+00
 TN4dq TC5er  1 3.400000e-01    2.020000e+00
 TN3dq TC5er  1 3.400000e-01    2.020000e+00
 TN2dq TC5er  1 3.400000e-01    2.020000e+00
 TN1dq TC5er  1 3.400000e-01    2.280000e+00
 TP6dq TC4er  1 3.520000e-01    1.050000e+00
 TP5dq TC4er  1 3.400000e-01    1.230000e+00
 TP4dq TC4er  1 3.400000e-01    1.230000e+00
 TP3dq TC4er  1 3.400000e-01    1.510000e+00
 TP2dq TC4er  1 3.400000e-01    1.510000e+00
 TP1dq TC4er  1 3.400000e-01    1.510000e+00
 TN6dq TC4er  1 3.400000e-01    1.770000e+00
 TN5dq TC4er  1 3.400000e-01    1.770000e+00
 TN4dq TC4er  1 3.400000e-01    2.020000e+00
 TN3dq TC4er  1 3.400000e-01    2.020000e+00
 TN2dq TC4er  1 3.400000e-01    2.020000e+00
 TN1dq TC4er  1 3.400000e-01    2.280000e+00
 TP6dq TC3er  1 3.660000e-01    9.350000e-01
 TP5dq TC3er  1 3.520000e-01    1.050000e+00
 TP4dq TC3er  1 3.520000e-01    1.050000e+00
 TP3dq TC3er  1 3.520000e-01    1.050000e+00
 TP2dq TC3er  1 3.400000e-01    1.230000e+00
 TP1dq TC3er  1 3.400000e-01    1.230000e+00
 TN6dq TC3er  1 3.400000e-01    1.510000e+00
 TN5dq TC3er  1 3.400000e-01    1.770000e+00
 TN4dq TC3er  1 3.400000e-01    1.770000e+00
 TN3dq TC3er  1 3.400000e-01    1.770000e+00
 TN2dq TC3er  1 3.400000e-01    2.020000e+00
 TN1dq TC3er  1 3.400000e-01    2.020000e+00
 TP6dq TC2er  1 3.660000e-01    9.350000e-01
 TP5dq TC2er  1 3.520000e-01    1.050000e+00
 TP4dq TC2er  1 3.520000e-01    1.050000e+00
 TP3dq TC2er  1 3.520000e-01    1.050000e+00
 TP2dq TC2er  1 3.400000e-01    1.230000e+00
 TP1dq TC2er  1 3.400000e-01    1.230000e+00
 TN6dq TC2er  1 3.400000e-01    1.510000e+00
 TN5dq TC2er  1 3.400000e-01    1.510000e+00
 TN4dq TC2er  1 3.400000e-01    1.510000e+00
 TN3dq TC2er  1 3.400000e-01    1.770000e+00
 TN2dq TC2er  1 3.400000e-01    1.770000e+00
 TN1dq TC2er  1 3.400000e-01    1.770000e+00
 TP6dq TC1er  1 4.110000e-01    8.010000e-01
 TP5dq TC1er  1 3.660000e-01    9.350000e-01
 TP4dq TC1er  1 3.660000e-01    9.350000e-01
 TP3dq TC1er  1 3.660000e-01    9.350000e-01
 TP2dq TC1er  1 3.520000e-01    1.050000e+00
 TP1dq TC1er  1 3.520000e-01    1.050000e+00
 TN6dq TC1er  1 3.400000e-01    1.230000e+00
 TN5dq TC1er  1 3.400000e-01    1.230000e+00
 TN4dq TC1er  1 3.400000e-01    1.230000e+00
 TN3dq TC1er  1 3.400000e-01    1.510000e+00
 TN2dq TC1er  1 3.400000e-01    1.510000e+00
 TN1dq TC1er  1 3.400000e-01    1.510000e+00
 TP6dq TX4er  1 3.400000e-01    1.770000e+00
 TP5dq TX4er  1 3.400000e-01    2.020000e+00
 TP4dq TX4er  1 3.400000e-01    2.020000e+00
 TP3dq TX4er  1 3.400000e-01    2.020000e+00
 TP2dq TX4er  1 3.400000e-01    2.020000e+00
 TP1dq TX4er  1 3.400000e-01    2.020000e+00
 TN6dq TX4er  1 3.400000e-01    2.280000e+00
 TN5dq TX4er  1 3.400000e-01    2.500000e+00
 TN4dq TX4er  1 3.400000e-01    2.740000e+00
 TN3dq TX4er  1 3.400000e-01    2.500000e+00
 TN2dq TX4er  1 3.400000e-01    2.500000e+00
 TN1dq TX4er  1 3.400000e-01    2.280000e+00
 TP6dq TX3er  1 3.400000e-01    1.770000e+00
 TP5dq TX3er  1 3.400000e-01    1.770000e+00
 TP4dq TX3er  1 3.400000e-01    1.770000e+00
 TP3dq TX3er  1 3.400000e-01    2.020000e+00
 TP2dq TX3er  1 3.400000e-01    2.020000e+00
 TP1dq TX3er  1 3.400000e-01    2.020000e+00
 TN6dq TX3er  1 3.400000e-01    2.020000e+00
 TN5dq TX3er  1 3.400000e-01    2.280000e+00
 TN4dq TX3er  1 3.400000e-01    2.500000e+00
 TN3dq TX3er  1 3.400000e-01    2.280000e+00
 TN2dq TX3er  1 3.400000e-01    2.280000e+00
 TN1dq TX3er  1 3.400000e-01    2.280000e+00
 TP6dq TX2er  1 3.400000e-01    1.510000e+00
 TP5dq TX2er  1 3.400000e-01    1.770000e+00
 TP4dq TX2er  1 3.400000e-01    1.770000e+00
 TP3dq TX2er  1 3.400000e-01    1.770000e+00
 TP2dq TX2er  1 3.400000e-01    1.770000e+00
 TP1dq TX2er  1 3.400000e-01    1.770000e+00
 TN6dq TX2er  1 3.400000e-01    1.770000e+00
 TN5dq TX2er  1 3.400000e-01    2.020000e+00
 TN4dq TX2er  1 3.400000e-01    2.020000e+00
 TN3dq TX2er  1 3.400000e-01    2.020000e+00
 TN2dq TX2er  1 3.400000e-01    2.020000e+00
 TN1dq TX2er  1 3.400000e-01    2.020000e+00
 TP6dq TX1er  1 3.400000e-01    1.230000e+00
 TP5dq TX1er  1 3.400000e-01    1.230000e+00
 TP4dq TX1er  1 3.400000e-01    1.510000e+00
 TP3dq TX1er  1 3.400000e-01    1.510000e+00
 TP2dq TX1er  1 3.400000e-01    1.510000e+00
 TP1dq TX1er  1 3.400000e-01    1.510000e+00
 TN6dq TX1er  1 3.400000e-01    1.510000e+00
 TN5dq TX1er  1 3.400000e-01    1.770000e+00
 TN4dq TX1er  1 3.400000e-01    1.770000e+00
 TN3dq TX1er  1 3.400000e-01    2.020000e+00
 TN2dq TX1er  1 3.400000e-01    2.020000e+00
 TN1dq TX1er  1 3.400000e-01    2.020000e+00
 TP6dh  TC6e  1 3.520000e-01    1.050000e+00
 TP6dh  TC5e  1 3.660000e-01    9.350000e-01
 TP6dh  TC4e  1 3.850000e-01    8.550000e-01
 TP6dh  TC3e  1 4.110000e-01    8.010000e-01
 TP6dh  TC2e  1 4.110000e-01    8.010000e-01
 TP6dh  TC1e  1 4.380000e-01    7.310000e-01
 TP6dh  TX4e  1 3.400000e-01    1.230000e+00
 TP6dh  TX3e  1 3.400000e-01    1.230000e+00
 TP6dh  TX2e  1 3.520000e-01    1.050000e+00
 TP6dh  TX1e  1 3.660000e-01    9.350000e-01
 TP5dh  TC6e  1 3.520000e-01    1.050000e+00
 TP5dh  TC5e  1 3.520000e-01    1.050000e+00
 TP5dh  TC4e  1 3.660000e-01    9.350000e-01
 TP5dh  TC3e  1 3.850000e-01    8.550000e-01
 TP5dh  TC2e  1 3.850000e-01    8.550000e-01
 TP5dh  TC1e  1 4.110000e-01    8.010000e-01
 TP5dh  TX4e  1 3.400000e-01    1.510000e+00
 TP5dh  TX3e  1 3.400000e-01    1.230000e+00
 TP5dh  TX2e  1 3.400000e-01    1.230000e+00
 TP5dh  TX1e  1 3.660000e-01    9.350000e-01
 TP4dh  TC6e  1 3.400000e-01    1.230000e+00
 TP4dh  TC5e  1 3.520000e-01    1.050000e+00
 TP4dh  TC4e  1 3.660000e-01    9.350000e-01
 TP4dh  TC3e  1 3.850000e-01    8.550000e-01
 TP4dh  TC2e  1 3.850000e-01    8.550000e-01
 TP4dh  TC1e  1 4.110000e-01    8.010000e-01
 TP4dh  TX4e  1 3.400000e-01    1.510000e+00
 TP4dh  TX3e  1 3.400000e-01    1.230000e+00
 TP4dh  TX2e  1 3.400000e-01    1.230000e+00
 TP4dh  TX1e  1 3.520000e-01    1.050000e+00
 TP3dh  TC6e  1 3.400000e-01    1.510000e+00
 TP3dh  TC5e  1 3.400000e-01    1.230000e+00
 TP3dh  TC4e  1 3.520000e-01    1.050000e+00
 TP3dh  TC3e  1 3.850000e-01    8.550000e-01
 TP3dh  TC2e  1 3.850000e-01    8.550000e-01
 TP3dh  TC1e  1 4.110000e-01    8.010000e-01
 TP3dh  TX4e  1 3.400000e-01    1.510000e+00
 TP3dh  TX3e  1 3.400000e-01    1.510000e+00
 TP3dh  TX2e  1 3.400000e-01    1.230000e+00
 TP3dh  TX1e  1 3.520000e-01    1.050000e+00
 TP2dh  TC6e  1 3.400000e-01    1.510000e+00
 TP2dh  TC5e  1 3.400000e-01    1.230000e+00
 TP2dh  TC4e  1 3.520000e-01    1.050000e+00
 TP2dh  TC3e  1 3.660000e-01    9.350000e-01
 TP2dh  TC2e  1 3.660000e-01    9.350000e-01
 TP2dh  TC1e  1 3.850000e-01    8.550000e-01
 TP2dh  TX4e  1 3.400000e-01    1.510000e+00
 TP2dh  TX3e  1 3.400000e-01    1.510000e+00
 TP2dh  TX2e  1 3.400000e-01    1.230000e+00
 TP2dh  TX1e  1 3.520000e-01    1.050000e+00
 TP1dh  TC6e  1 3.400000e-01    1.510000e+00
 TP1dh  TC5e  1 3.400000e-01    1.230000e+00
 TP1dh  TC4e  1 3.520000e-01    1.050000e+00
 TP1dh  TC3e  1 3.660000e-01    9.350000e-01
 TP1dh  TC2e  1 3.660000e-01    9.350000e-01
 TP1dh  TC1e  1 3.850000e-01    8.550000e-01
 TP1dh  TX4e  1 3.400000e-01    1.510000e+00
 TP1dh  TX3e  1 3.400000e-01    1.510000e+00
 TP1dh  TX2e  1 3.400000e-01    1.230000e+00
 TP1dh  TX1e  1 3.520000e-01    1.050000e+00
 TN6dh  TC6e  1 3.400000e-01    1.770000e+00
 TN6dh  TC5e  1 3.400000e-01    1.510000e+00
 TN6dh  TC4e  1 3.400000e-01    1.230000e+00
 TN6dh  TC3e  1 3.520000e-01    1.050000e+00
 TN6dh  TC2e  1 3.520000e-01    1.050000e+00
 TN6dh  TC1e  1 3.660000e-01    9.350000e-01
 TN6dh  TX4e  1 3.400000e-01    1.770000e+00
 TN6dh  TX3e  1 3.400000e-01    1.510000e+00
 TN6dh  TX2e  1 3.400000e-01    1.230000e+00
 TN6dh  TX1e  1 3.520000e-01    1.050000e+00
 TN5dh  TC6e  1 3.400000e-01    1.770000e+00
 TN5dh  TC5e  1 3.400000e-01    1.510000e+00
 TN5dh  TC4e  1 3.400000e-01    1.230000e+00
 TN5dh  TC3e  1 3.400000e-01    1.230000e+00
 TN5dh  TC2e  1 3.520000e-01    1.050000e+00
 TN5dh  TC1e  1 3.660000e-01    9.350000e-01
 TN5dh  TX4e  1 3.400000e-01    2.020000e+00
 TN5dh  TX3e  1 3.400000e-01    1.770000e+00
 TN5dh  TX2e  1 3.400000e-01    1.510000e+00
 TN5dh  TX1e  1 3.400000e-01    1.230000e+00
 TN4dh  TC6e  1 3.400000e-01    1.770000e+00
 TN4dh  TC5e  1 3.400000e-01    1.510000e+00
 TN4dh  TC4e  1 3.400000e-01    1.510000e+00
 TN4dh  TC3e  1 3.400000e-01    1.230000e+00
 TN4dh  TC2e  1 3.520000e-01    1.050000e+00
 TN4dh  TC1e  1 3.660000e-01    9.350000e-01
 TN4dh  TX4e  1 3.400000e-01    2.280000e+00
 TN4dh  TX3e  1 3.400000e-01    2.020000e+00
 TN4dh  TX2e  1 3.400000e-01    1.510000e+00
 TN4dh  TX1e  1 3.400000e-01    1.230000e+00
 TN3dh  TC6e  1 3.400000e-01    1.770000e+00
 TN3dh  TC5e  1 3.400000e-01    1.510000e+00
 TN3dh  TC4e  1 3.400000e-01    1.510000e+00
 TN3dh  TC3e  1 3.400000e-01    1.230000e+00
 TN3dh  TC2e  1 3.400000e-01    1.230000e+00
 TN3dh  TC1e  1 3.520000e-01    1.050000e+00
 TN3dh  TX4e  1 3.400000e-01    2.020000e+00
 TN3dh  TX3e  1 3.400000e-01    1.770000e+00
 TN3dh  TX2e  1 3.400000e-01    1.510000e+00
 TN3dh  TX1e  1 3.400000e-01    1.510000e+00
 TN2dh  TC6e  1 3.400000e-01    1.770000e+00
 TN2dh  TC5e  1 3.400000e-01    1.510000e+00
 TN2dh  TC4e  1 3.400000e-01    1.510000e+00
 TN2dh  TC3e  1 3.400000e-01    1.510000e+00
 TN2dh  TC2e  1 3.400000e-01    1.230000e+00
 TN2dh  TC1e  1 3.520000e-01    1.050000e+00
 TN2dh  TX4e  1 3.400000e-01    2.020000e+00
 TN2dh  TX3e  1 3.400000e-01    1.770000e+00
 TN2dh  TX2e  1 3.400000e-01    1.510000e+00
 TN2dh  TX1e  1 3.400000e-01    1.510000e+00
 TN1dh  TC6e  1 3.400000e-01    2.020000e+00
 TN1dh  TC5e  1 3.400000e-01    1.770000e+00
 TN1dh  TC4e  1 3.400000e-01    1.770000e+00
 TN1dh  TC3e  1 3.400000e-01    1.510000e+00
 TN1dh  TC2e  1 3.400000e-01    1.230000e+00
 TN1dh  TC1e  1 3.520000e-01    1.050000e+00
 TN1dh  TX4e  1 3.400000e-01    1.770000e+00
 TN1dh  TX3e  1 3.400000e-01    1.770000e+00
 TN1dh  TX2e  1 3.400000e-01    1.510000e+00
 TN1dh  TX1e  1 3.400000e-01    1.510000e+00
 TP6dh TX1eq  1 3.400000e-01    1.230000e+00
 TP6dh TX2eq  1 3.400000e-01    1.510000e+00
 TP6dh TX3eq  1 3.400000e-01    1.770000e+00
 TP6dh TX4eq  1 3.400000e-01    1.770000e+00
 TP6dh TC1eq  1 4.110000e-01    8.010000e-01
 TP6dh TC2eq  1 3.660000e-01    9.350000e-01
 TP6dh TC3eq  1 3.660000e-01    9.350000e-01
 TP6dh TC4eq  1 3.520000e-01    1.050000e+00
 TP6dh TC5eq  1 3.400000e-01    1.230000e+00
 TP6dh TC6eq  1 3.400000e-01    1.510000e+00
 TP5dh TX1eq  1 3.400000e-01    1.230000e+00
 TP5dh TX2eq  1 3.400000e-01    1.770000e+00
 TP5dh TX3eq  1 3.400000e-01    1.770000e+00
 TP5dh TX4eq  1 3.400000e-01    2.020000e+00
 TP5dh TC1eq  1 3.660000e-01    9.350000e-01
 TP5dh TC2eq  1 3.520000e-01    1.050000e+00
 TP5dh TC3eq  1 3.520000e-01    1.050000e+00
 TP5dh TC4eq  1 3.400000e-01    1.230000e+00
 TP5dh TC5eq  1 3.400000e-01    1.510000e+00
 TP5dh TC6eq  1 3.400000e-01    1.510000e+00
 TP4dh TX1eq  1 3.400000e-01    1.510000e+00
 TP4dh TX2eq  1 3.400000e-01    1.770000e+00
 TP4dh TX3eq  1 3.400000e-01    1.770000e+00
 TP4dh TX4eq  1 3.400000e-01    2.020000e+00
 TP4dh TC1eq  1 3.660000e-01    9.350000e-01
 TP4dh TC2eq  1 3.520000e-01    1.050000e+00
 TP4dh TC3eq  1 3.520000e-01    1.050000e+00
 TP4dh TC4eq  1 3.400000e-01    1.230000e+00
 TP4dh TC5eq  1 3.400000e-01    1.510000e+00
 TP4dh TC6eq  1 3.400000e-01    1.770000e+00
 TP3dh TX1eq  1 3.400000e-01    1.510000e+00
 TP3dh TX2eq  1 3.400000e-01    1.770000e+00
 TP3dh TX3eq  1 3.400000e-01    2.020000e+00
 TP3dh TX4eq  1 3.400000e-01    2.020000e+00
 TP3dh TC1eq  1 3.660000e-01    9.350000e-01
 TP3dh TC2eq  1 3.520000e-01    1.050000e+00
 TP3dh TC3eq  1 3.520000e-01    1.050000e+00
 TP3dh TC4eq  1 3.400000e-01    1.510000e+00
 TP3dh TC5eq  1 3.400000e-01    1.770000e+00
 TP3dh TC6eq  1 3.400000e-01    2.020000e+00
 TP2dh TX1eq  1 3.400000e-01    1.510000e+00
 TP2dh TX2eq  1 3.400000e-01    1.770000e+00
 TP2dh TX3eq  1 3.400000e-01    2.020000e+00
 TP2dh TX4eq  1 3.400000e-01    2.020000e+00
 TP2dh TC1eq  1 3.520000e-01    1.050000e+00
 TP2dh TC2eq  1 3.400000e-01    1.230000e+00
 TP2dh TC3eq  1 3.400000e-01    1.230000e+00
 TP2dh TC4eq  1 3.400000e-01    1.510000e+00
 TP2dh TC5eq  1 3.400000e-01    1.770000e+00
 TP2dh TC6eq  1 3.400000e-01    2.020000e+00
 TP1dh TX1eq  1 3.400000e-01    1.510000e+00
 TP1dh TX2eq  1 3.400000e-01    1.770000e+00
 TP1dh TX3eq  1 3.400000e-01    2.020000e+00
 TP1dh TX4eq  1 3.400000e-01    2.020000e+00
 TP1dh TC1eq  1 3.520000e-01    1.050000e+00
 TP1dh TC2eq  1 3.400000e-01    1.230000e+00
 TP1dh TC3eq  1 3.400000e-01    1.230000e+00
 TP1dh TC4eq  1 3.400000e-01    1.510000e+00
 TP1dh TC5eq  1 3.400000e-01    1.770000e+00
 TP1dh TC6eq  1 3.400000e-01    2.020000e+00
 TN6dh TX1eq  1 3.400000e-01    1.510000e+00
 TN6dh TX2eq  1 3.400000e-01    1.770000e+00
 TN6dh TX3eq  1 3.400000e-01    2.020000e+00
 TN6dh TX4eq  1 3.400000e-01    2.280000e+00
 TN6dh TC1eq  1 3.400000e-01    1.230000e+00
 TN6dh TC2eq  1 3.400000e-01    1.510000e+00
 TN6dh TC3eq  1 3.400000e-01    1.510000e+00
 TN6dh TC4eq  1 3.400000e-01    1.770000e+00
 TN6dh TC5eq  1 3.400000e-01    2.020000e+00
 TN6dh TC6eq  1 3.400000e-01    2.280000e+00
 TN5dh TX1eq  1 3.400000e-01    1.770000e+00
 TN5dh TX2eq  1 3.400000e-01    2.020000e+00
 TN5dh TX3eq  1 3.400000e-01    2.280000e+00
 TN5dh TX4eq  1 3.400000e-01    2.500000e+00
 TN5dh TC1eq  1 3.400000e-01    1.230000e+00
 TN5dh TC2eq  1 3.400000e-01    1.510000e+00
 TN5dh TC3eq  1 3.400000e-01    1.770000e+00
 TN5dh TC4eq  1 3.400000e-01    1.770000e+00
 TN5dh TC5eq  1 3.400000e-01    2.020000e+00
 TN5dh TC6eq  1 3.400000e-01    2.280000e+00
 TN4dh TX1eq  1 3.400000e-01    1.770000e+00
 TN4dh TX2eq  1 3.400000e-01    2.020000e+00
 TN4dh TX3eq  1 3.400000e-01    2.500000e+00
 TN4dh TX4eq  1 3.400000e-01    2.740000e+00
 TN4dh TC1eq  1 3.400000e-01    1.230000e+00
 TN4dh TC2eq  1 3.400000e-01    1.510000e+00
 TN4dh TC3eq  1 3.400000e-01    1.770000e+00
 TN4dh TC4eq  1 3.400000e-01    2.020000e+00
 TN4dh TC5eq  1 3.400000e-01    2.020000e+00
 TN4dh TC6eq  1 3.400000e-01    2.280000e+00
 TN3dh TX1eq  1 3.400000e-01    2.020000e+00
 TN3dh TX2eq  1 3.400000e-01    2.020000e+00
 TN3dh TX3eq  1 3.400000e-01    2.280000e+00
 TN3dh TX4eq  1 3.400000e-01    2.500000e+00
 TN3dh TC1eq  1 3.400000e-01    1.510000e+00
 TN3dh TC2eq  1 3.400000e-01    1.770000e+00
 TN3dh TC3eq  1 3.400000e-01    1.770000e+00
 TN3dh TC4eq  1 3.400000e-01    2.020000e+00
 TN3dh TC5eq  1 3.400000e-01    2.020000e+00
 TN3dh TC6eq  1 3.400000e-01    2.280000e+00
 TN2dh TX1eq  1 3.400000e-01    2.020000e+00
 TN2dh TX2eq  1 3.400000e-01    2.020000e+00
 TN2dh TX3eq  1 3.400000e-01    2.280000e+00
 TN2dh TX4eq  1 3.400000e-01    2.500000e+00
 TN2dh TC1eq  1 3.400000e-01    1.510000e+00
 TN2dh TC2eq  1 3.400000e-01    1.770000e+00
 TN2dh TC3eq  1 3.400000e-01    2.020000e+00
 TN2dh TC4eq  1 3.400000e-01    2.020000e+00
 TN2dh TC5eq  1 3.400000e-01    2.020000e+00
 TN2dh TC6eq  1 3.400000e-01    2.280000e+00
 TN1dh TX1eq  1 3.400000e-01    2.020000e+00
 TN1dh TX2eq  1 3.400000e-01    2.020000e+00
 TN1dh TX3eq  1 3.400000e-01    2.280000e+00
 TN1dh TX4eq  1 3.400000e-01    2.280000e+00
 TN1dh TC1eq  1 3.400000e-01    1.510000e+00
 TN1dh TC2eq  1 3.400000e-01    1.770000e+00
 TN1dh TC3eq  1 3.400000e-01    2.020000e+00
 TN1dh TC4eq  1 3.400000e-01    2.280000e+00
 TN1dh TC5eq  1 3.400000e-01    2.280000e+00
 TN1dh TC6eq  1 3.400000e-01    2.500000e+00
 TP6dh TC6eh  1 3.520000e-01    1.050000e+00
 TP6dh TC5eh  1 3.660000e-01    9.350000e-01
 TP6dh TC4eh  1 3.850000e-01    8.550000e-01
 TP6dh TC3eh  1 4.110000e-01    8.010000e-01
 TP6dh TC2eh  1 4.110000e-01    8.010000e-01
 TP6dh TC1eh  1 4.380000e-01    7.310000e-01
 TP6dh TX4eh  1 3.400000e-01    1.230000e+00
 TP6dh TX3eh  1 3.400000e-01    1.230000e+00
 TP6dh TX2eh  1 3.520000e-01    1.050000e+00
 TP6dh TX1eh  1 3.660000e-01    9.350000e-01
 TP5dh TC6eh  1 3.520000e-01    1.050000e+00
 TP5dh TC5eh  1 3.520000e-01    1.050000e+00
 TP5dh TC4eh  1 3.660000e-01    9.350000e-01
 TP5dh TC3eh  1 3.850000e-01    8.550000e-01
 TP5dh TC2eh  1 3.850000e-01    8.550000e-01
 TP5dh TC1eh  1 4.110000e-01    8.010000e-01
 TP5dh TX4eh  1 3.400000e-01    1.510000e+00
 TP5dh TX3eh  1 3.400000e-01    1.230000e+00
 TP5dh TX2eh  1 3.400000e-01    1.230000e+00
 TP5dh TX1eh  1 3.660000e-01    9.350000e-01
 TP4dh TC6eh  1 3.400000e-01    1.230000e+00
 TP4dh TC5eh  1 3.520000e-01    1.050000e+00
 TP4dh TC4eh  1 3.660000e-01    9.350000e-01
 TP4dh TC3eh  1 3.850000e-01    8.550000e-01
 TP4dh TC2eh  1 3.850000e-01    8.550000e-01
 TP4dh TC1eh  1 4.110000e-01    8.010000e-01
 TP4dh TX4eh  1 3.400000e-01    1.510000e+00
 TP4dh TX3eh  1 3.400000e-01    1.230000e+00
 TP4dh TX2eh  1 3.400000e-01    1.230000e+00
 TP4dh TX1eh  1 3.520000e-01    1.050000e+00
 TP3dh TC6eh  1 3.400000e-01    1.510000e+00
 TP3dh TC5eh  1 3.400000e-01    1.230000e+00
 TP3dh TC4eh  1 3.520000e-01    1.050000e+00
 TP3dh TC3eh  1 3.850000e-01    8.550000e-01
 TP3dh TC2eh  1 3.850000e-01    8.550000e-01
 TP3dh TC1eh  1 4.110000e-01    8.010000e-01
 TP3dh TX4eh  1 3.400000e-01    1.510000e+00
 TP3dh TX3eh  1 3.400000e-01    1.510000e+00
 TP3dh TX2eh  1 3.400000e-01    1.230000e+00
 TP3dh TX1eh  1 3.520000e-01    1.050000e+00
 TP2dh TC6eh  1 3.400000e-01    1.510000e+00
 TP2dh TC5eh  1 3.400000e-01    1.230000e+00
 TP2dh TC4eh  1 3.520000e-01    1.050000e+00
 TP2dh TC3eh  1 3.660000e-01    9.350000e-01
 TP2dh TC2eh  1 3.660000e-01    9.350000e-01
 TP2dh TC1eh  1 3.850000e-01    8.550000e-01
 TP2dh TX4eh  1 3.400000e-01    1.510000e+00
 TP2dh TX3eh  1 3.400000e-01    1.510000e+00
 TP2dh TX2eh  1 3.400000e-01    1.230000e+00
 TP2dh TX1eh  1 3.520000e-01    1.050000e+00
 TP1dh TC6eh  1 3.400000e-01    1.510000e+00
 TP1dh TC5eh  1 3.400000e-01    1.230000e+00
 TP1dh TC4eh  1 3.520000e-01    1.050000e+00
 TP1dh TC3eh  1 3.660000e-01    9.350000e-01
 TP1dh TC2eh  1 3.660000e-01    9.350000e-01
 TP1dh TC1eh  1 3.850000e-01    8.550000e-01
 TP1dh TX4eh  1 3.400000e-01    1.510000e+00
 TP1dh TX3eh  1 3.400000e-01    1.510000e+00
 TP1dh TX2eh  1 3.400000e-01    1.230000e+00
 TP1dh TX1eh  1 3.520000e-01    1.050000e+00
 TN6dh TC6eh  1 3.400000e-01    1.770000e+00
 TN6dh TC5eh  1 3.400000e-01    1.510000e+00
 TN6dh TC4eh  1 3.400000e-01    1.230000e+00
 TN6dh TC3eh  1 3.520000e-01    1.050000e+00
 TN6dh TC2eh  1 3.520000e-01    1.050000e+00
 TN6dh TC1eh  1 3.660000e-01    9.350000e-01
 TN6dh TX4eh  1 3.400000e-01    1.770000e+00
 TN6dh TX3eh  1 3.400000e-01    1.510000e+00
 TN6dh TX2eh  1 3.400000e-01    1.230000e+00
 TN6dh TX1eh  1 3.520000e-01    1.050000e+00
 TN5dh TC6eh  1 3.400000e-01    1.770000e+00
 TN5dh TC5eh  1 3.400000e-01    1.510000e+00
 TN5dh TC4eh  1 3.400000e-01    1.230000e+00
 TN5dh TC3eh  1 3.400000e-01    1.230000e+00
 TN5dh TC2eh  1 3.520000e-01    1.050000e+00
 TN5dh TC1eh  1 3.660000e-01    9.350000e-01
 TN5dh TX4eh  1 3.400000e-01    2.020000e+00
 TN5dh TX3eh  1 3.400000e-01    1.770000e+00
 TN5dh TX2eh  1 3.400000e-01    1.510000e+00
 TN5dh TX1eh  1 3.400000e-01    1.230000e+00
 TN4dh TC6eh  1 3.400000e-01    1.770000e+00
 TN4dh TC5eh  1 3.400000e-01    1.510000e+00
 TN4dh TC4eh  1 3.400000e-01    1.510000e+00
 TN4dh TC3eh  1 3.400000e-01    1.230000e+00
 TN4dh TC2eh  1 3.520000e-01    1.050000e+00
 TN4dh TC1eh  1 3.660000e-01    9.350000e-01
 TN4dh TX4eh  1 3.400000e-01    2.280000e+00
 TN4dh TX3eh  1 3.400000e-01    2.020000e+00
 TN4dh TX2eh  1 3.400000e-01    1.510000e+00
 TN4dh TX1eh  1 3.400000e-01    1.230000e+00
 TN3dh TC6eh  1 3.400000e-01    1.770000e+00
 TN3dh TC5eh  1 3.400000e-01    1.510000e+00
 TN3dh TC4eh  1 3.400000e-01    1.510000e+00
 TN3dh TC3eh  1 3.400000e-01    1.230000e+00
 TN3dh TC2eh  1 3.400000e-01    1.230000e+00
 TN3dh TC1eh  1 3.520000e-01    1.050000e+00
 TN3dh TX4eh  1 3.400000e-01    2.020000e+00
 TN3dh TX3eh  1 3.400000e-01    1.770000e+00
 TN3dh TX2eh  1 3.400000e-01    1.510000e+00
 TN3dh TX1eh  1 3.400000e-01    1.510000e+00
 TN2dh TC6eh  1 3.400000e-01    1.770000e+00
 TN2dh TC5eh  1 3.400000e-01    1.510000e+00
 TN2dh TC4eh  1 3.400000e-01    1.510000e+00
 TN2dh TC3eh  1 3.400000e-01    1.510000e+00
 TN2dh TC2eh  1 3.400000e-01    1.230000e+00
 TN2dh TC1eh  1 3.520000e-01    1.050000e+00
 TN2dh TX4eh  1 3.400000e-01    2.020000e+00
 TN2dh TX3eh  1 3.400000e-01    1.770000e+00
 TN2dh TX2eh  1 3.400000e-01    1.510000e+00
 TN2dh TX1eh  1 3.400000e-01    1.510000e+00
 TN1dh TC6eh  1 3.400000e-01    2.020000e+00
 TN1dh TC5eh  1 3.400000e-01    1.770000e+00
 TN1dh TC4eh  1 3.400000e-01    1.770000e+00
 TN1dh TC3eh  1 3.400000e-01    1.510000e+00
 TN1dh TC2eh  1 3.400000e-01    1.230000e+00
 TN1dh TC1eh  1 3.520000e-01    1.050000e+00
 TN1dh TX4eh  1 3.400000e-01    1.770000e+00
 TN1dh TX3eh  1 3.400000e-01    1.770000e+00
 TN1dh TX2eh  1 3.400000e-01    1.510000e+00
 TN1dh TX1eh  1 3.400000e-01    1.510000e+00
 TP6dh TC6er  1 3.520000e-01    1.050000e+00
 TP6dh TC5er  1 3.660000e-01    9.350000e-01
 TP6dh TC4er  1 3.850000e-01    8.550000e-01
 TP6dh TC3er  1 4.110000e-01    8.010000e-01
 TP6dh TC2er  1 4.110000e-01    8.010000e-01
 TP6dh TC1er  1 4.380000e-01    7.310000e-01
 TP6dh TX4er  1 3.400000e-01    1.230000e+00
 TP6dh TX3er  1 3.400000e-01    1.230000e+00
 TP6dh TX2er  1 3.520000e-01    1.050000e+00
 TP6dh TX1er  1 3.660000e-01    9.350000e-01
 TP5dh TC6er  1 3.520000e-01    1.050000e+00
 TP5dh TC5er  1 3.520000e-01    1.050000e+00
 TP5dh TC4er  1 3.660000e-01    9.350000e-01
 TP5dh TC3er  1 3.850000e-01    8.550000e-01
 TP5dh TC2er  1 3.850000e-01    8.550000e-01
 TP5dh TC1er  1 4.110000e-01    8.010000e-01
 TP5dh TX4er  1 3.400000e-01    1.510000e+00
 TP5dh TX3er  1 3.400000e-01    1.230000e+00
 TP5dh TX2er  1 3.400000e-01    1.230000e+00
 TP5dh TX1er  1 3.660000e-01    9.350000e-01
 TP4dh TC6er  1 3.400000e-01    1.230000e+00
 TP4dh TC5er  1 3.520000e-01    1.050000e+00
 TP4dh TC4er  1 3.660000e-01    9.350000e-01
 TP4dh TC3er  1 3.850000e-01    8.550000e-01
 TP4dh TC2er  1 3.850000e-01    8.550000e-01
 TP4dh TC1er  1 4.110000e-01    8.010000e-01
 TP4dh TX4er  1 3.400000e-01    1.510000e+00
 TP4dh TX3er  1 3.400000e-01    1.230000e+00
 TP4dh TX2er  1 3.400000e-01    1.230000e+00
 TP4dh TX1er  1 3.520000e-01    1.050000e+00
 TP3dh TC6er  1 3.400000e-01    1.510000e+00
 TP3dh TC5er  1 3.400000e-01    1.230000e+00
 TP3dh TC4er  1 3.520000e-01    1.050000e+00
 TP3dh TC3er  1 3.850000e-01    8.550000e-01
 TP3dh TC2er  1 3.850000e-01    8.550000e-01
 TP3dh TC1er  1 4.110000e-01    8.010000e-01
 TP3dh TX4er  1 3.400000e-01    1.510000e+00
 TP3dh TX3er  1 3.400000e-01    1.510000e+00
 TP3dh TX2er  1 3.400000e-01    1.230000e+00
 TP3dh TX1er  1 3.520000e-01    1.050000e+00
 TP2dh TC6er  1 3.400000e-01    1.510000e+00
 TP2dh TC5er  1 3.400000e-01    1.230000e+00
 TP2dh TC4er  1 3.520000e-01    1.050000e+00
 TP2dh TC3er  1 3.660000e-01    9.350000e-01
 TP2dh TC2er  1 3.660000e-01    9.350000e-01
 TP2dh TC1er  1 3.850000e-01    8.550000e-01
 TP2dh TX4er  1 3.400000e-01    1.510000e+00
 TP2dh TX3er  1 3.400000e-01    1.510000e+00
 TP2dh TX2er  1 3.400000e-01    1.230000e+00
 TP2dh TX1er  1 3.520000e-01    1.050000e+00
 TP1dh TC6er  1 3.400000e-01    1.510000e+00
 TP1dh TC5er  1 3.400000e-01    1.230000e+00
 TP1dh TC4er  1 3.520000e-01    1.050000e+00
 TP1dh TC3er  1 3.660000e-01    9.350000e-01
 TP1dh TC2er  1 3.660000e-01    9.350000e-01
 TP1dh TC1er  1 3.850000e-01    8.550000e-01
 TP1dh TX4er  1 3.400000e-01    1.510000e+00
 TP1dh TX3er  1 3.400000e-01    1.510000e+00
 TP1dh TX2er  1 3.400000e-01    1.230000e+00
 TP1dh TX1er  1 3.520000e-01    1.050000e+00
 TN6dh TC6er  1 3.400000e-01    1.770000e+00
 TN6dh TC5er  1 3.400000e-01    1.510000e+00
 TN6dh TC4er  1 3.400000e-01    1.230000e+00
 TN6dh TC3er  1 3.520000e-01    1.050000e+00
 TN6dh TC2er  1 3.520000e-01    1.050000e+00
 TN6dh TC1er  1 3.660000e-01    9.350000e-01
 TN6dh TX4er  1 3.400000e-01    1.770000e+00
 TN6dh TX3er  1 3.400000e-01    1.510000e+00
 TN6dh TX2er  1 3.400000e-01    1.230000e+00
 TN6dh TX1er  1 3.520000e-01    1.050000e+00
 TN5dh TC6er  1 3.400000e-01    1.770000e+00
 TN5dh TC5er  1 3.400000e-01    1.510000e+00
 TN5dh TC4er  1 3.400000e-01    1.230000e+00
 TN5dh TC3er  1 3.400000e-01    1.230000e+00
 TN5dh TC2er  1 3.520000e-01    1.050000e+00
 TN5dh TC1er  1 3.660000e-01    9.350000e-01
 TN5dh TX4er  1 3.400000e-01    2.020000e+00
 TN5dh TX3er  1 3.400000e-01    1.770000e+00
 TN5dh TX2er  1 3.400000e-01    1.510000e+00
 TN5dh TX1er  1 3.400000e-01    1.230000e+00
 TN4dh TC6er  1 3.400000e-01    1.770000e+00
 TN4dh TC5er  1 3.400000e-01    1.510000e+00
 TN4dh TC4er  1 3.400000e-01    1.510000e+00
 TN4dh TC3er  1 3.400000e-01    1.230000e+00
 TN4dh TC2er  1 3.520000e-01    1.050000e+00
 TN4dh TC1er  1 3.660000e-01    9.350000e-01
 TN4dh TX4er  1 3.400000e-01    2.280000e+00
 TN4dh TX3er  1 3.400000e-01    2.020000e+00
 TN4dh TX2er  1 3.400000e-01    1.510000e+00
 TN4dh TX1er  1 3.400000e-01    1.230000e+00
 TN3dh TC6er  1 3.400000e-01    1.770000e+00
 TN3dh TC5er  1 3.400000e-01    1.510000e+00
 TN3dh TC4er  1 3.400000e-01    1.510000e+00
 TN3dh TC3er  1 3.400000e-01    1.230000e+00
 TN3dh TC2er  1 3.400000e-01    1.230000e+00
 TN3dh TC1er  1 3.520000e-01    1.050000e+00
 TN3dh TX4er  1 3.400000e-01    2.020000e+00
 TN3dh TX3er  1 3.400000e-01    1.770000e+00
 TN3dh TX2er  1 3.400000e-01    1.510000e+00
 TN3dh TX1er  1 3.400000e-01    1.510000e+00
 TN2dh TC6er  1 3.400000e-01    1.770000e+00
 TN2dh TC5er  1 3.400000e-01    1.510000e+00
 TN2dh TC4er  1 3.400000e-01    1.510000e+00
 TN2dh TC3er  1 3.400000e-01    1.510000e+00
 TN2dh TC2er  1 3.400000e-01    1.230000e+00
 TN2dh TC1er  1 3.520000e-01    1.050000e+00
 TN2dh TX4er  1 3.400000e-01    2.020000e+00
 TN2dh TX3er  1 3.400000e-01    1.770000e+00
 TN2dh TX2er  1 3.400000e-01    1.510000e+00
 TN2dh TX1er  1 3.400000e-01    1.510000e+00
 TN1dh TC6er  1 3.400000e-01    2.020000e+00
 TN1dh TC5er  1 3.400000e-01    1.770000e+00
 TN1dh TC4er  1 3.400000e-01    1.770000e+00
 TN1dh TC3er  1 3.400000e-01    1.510000e+00
 TN1dh TC2er  1 3.400000e-01    1.230000e+00
 TN1dh TC1er  1 3.520000e-01    1.050000e+00
 TN1dh TX4er  1 3.400000e-01    1.770000e+00
 TN1dh TX3er  1 3.400000e-01    1.770000e+00
 TN1dh TX2er  1 3.400000e-01    1.510000e+00
 TN1dh TX1er  1 3.400000e-01    1.510000e+00
 TP6dr  TC6e  1 3.520000e-01    1.050000e+00
 TP6dr  TC5e  1 3.660000e-01    9.350000e-01
 TP6dr  TC4e  1 3.850000e-01    8.550000e-01
 TP6dr  TC3e  1 4.110000e-01    8.010000e-01
 TP6dr  TC2e  1 4.110000e-01    8.010000e-01
 TP6dr  TC1e  1 4.380000e-01    7.310000e-01
 TP6dr  TX4e  1 3.400000e-01    1.230000e+00
 TP6dr  TX3e  1 3.400000e-01    1.230000e+00
 TP6dr  TX2e  1 3.520000e-01    1.050000e+00
 TP6dr  TX1e  1 3.660000e-01    9.350000e-01
 TP5dr  TC6e  1 3.520000e-01    1.050000e+00
 TP5dr  TC5e  1 3.520000e-01    1.050000e+00
 TP5dr  TC4e  1 3.660000e-01    9.350000e-01
 TP5dr  TC3e  1 3.850000e-01    8.550000e-01
 TP5dr  TC2e  1 3.850000e-01    8.550000e-01
 TP5dr  TC1e  1 4.110000e-01    8.010000e-01
 TP5dr  TX4e  1 3.400000e-01    1.510000e+00
 TP5dr  TX3e  1 3.400000e-01    1.230000e+00
 TP5dr  TX2e  1 3.400000e-01    1.230000e+00
 TP5dr  TX1e  1 3.660000e-01    9.350000e-01
 TP4dr  TC6e  1 3.400000e-01    1.230000e+00
 TP4dr  TC5e  1 3.520000e-01    1.050000e+00
 TP4dr  TC4e  1 3.660000e-01    9.350000e-01
 TP4dr  TC3e  1 3.850000e-01    8.550000e-01
 TP4dr  TC2e  1 3.850000e-01    8.550000e-01
 TP4dr  TC1e  1 4.110000e-01    8.010000e-01
 TP4dr  TX4e  1 3.400000e-01    1.510000e+00
 TP4dr  TX3e  1 3.400000e-01    1.230000e+00
 TP4dr  TX2e  1 3.400000e-01    1.230000e+00
 TP4dr  TX1e  1 3.520000e-01    1.050000e+00
 TP3dr  TC6e  1 3.400000e-01    1.510000e+00
 TP3dr  TC5e  1 3.400000e-01    1.230000e+00
 TP3dr  TC4e  1 3.520000e-01    1.050000e+00
 TP3dr  TC3e  1 3.850000e-01    8.550000e-01
 TP3dr  TC2e  1 3.850000e-01    8.550000e-01
 TP3dr  TC1e  1 4.110000e-01    8.010000e-01
 TP3dr  TX4e  1 3.400000e-01    1.510000e+00
 TP3dr  TX3e  1 3.400000e-01    1.510000e+00
 TP3dr  TX2e  1 3.400000e-01    1.230000e+00
 TP3dr  TX1e  1 3.520000e-01    1.050000e+00
 TP2dr  TC6e  1 3.400000e-01    1.510000e+00
 TP2dr  TC5e  1 3.400000e-01    1.230000e+00
 TP2dr  TC4e  1 3.520000e-01    1.050000e+00
 TP2dr  TC3e  1 3.660000e-01    9.350000e-01
 TP2dr  TC2e  1 3.660000e-01    9.350000e-01
 TP2dr  TC1e  1 3.850000e-01    8.550000e-01
 TP2dr  TX4e  1 3.400000e-01    1.510000e+00
 TP2dr  TX3e  1 3.400000e-01    1.510000e+00
 TP2dr  TX2e  1 3.400000e-01    1.230000e+00
 TP2dr  TX1e  1 3.520000e-01    1.050000e+00
 TP1dr  TC6e  1 3.400000e-01    1.510000e+00
 TP1dr  TC5e  1 3.400000e-01    1.230000e+00
 TP1dr  TC4e  1 3.520000e-01    1.050000e+00
 TP1dr  TC3e  1 3.660000e-01    9.350000e-01
 TP1dr  TC2e  1 3.660000e-01    9.350000e-01
 TP1dr  TC1e  1 3.850000e-01    8.550000e-01
 TP1dr  TX4e  1 3.400000e-01    1.510000e+00
 TP1dr  TX3e  1 3.400000e-01    1.510000e+00
 TP1dr  TX2e  1 3.400000e-01    1.230000e+00
 TP1dr  TX1e  1 3.520000e-01    1.050000e+00
 TN6dr  TC6e  1 3.400000e-01    1.770000e+00
 TN6dr  TC5e  1 3.400000e-01    1.510000e+00
 TN6dr  TC4e  1 3.400000e-01    1.230000e+00
 TN6dr  TC3e  1 3.520000e-01    1.050000e+00
 TN6dr  TC2e  1 3.520000e-01    1.050000e+00
 TN6dr  TC1e  1 3.660000e-01    9.350000e-01
 TN6dr  TX4e  1 3.400000e-01    1.770000e+00
 TN6dr  TX3e  1 3.400000e-01    1.510000e+00
 TN6dr  TX2e  1 3.400000e-01    1.230000e+00
 TN6dr  TX1e  1 3.520000e-01    1.050000e+00
 TN5dr  TC6e  1 3.400000e-01    1.770000e+00
 TN5dr  TC5e  1 3.400000e-01    1.510000e+00
 TN5dr  TC4e  1 3.400000e-01    1.230000e+00
 TN5dr  TC3e  1 3.400000e-01    1.230000e+00
 TN5dr  TC2e  1 3.520000e-01    1.050000e+00
 TN5dr  TC1e  1 3.660000e-01    9.350000e-01
 TN5dr  TX4e  1 3.400000e-01    2.020000e+00
 TN5dr  TX3e  1 3.400000e-01    1.770000e+00
 TN5dr  TX2e  1 3.400000e-01    1.510000e+00
 TN5dr  TX1e  1 3.400000e-01    1.230000e+00
 TN4dr  TC6e  1 3.400000e-01    1.770000e+00
 TN4dr  TC5e  1 3.400000e-01    1.510000e+00
 TN4dr  TC4e  1 3.400000e-01    1.510000e+00
 TN4dr  TC3e  1 3.400000e-01    1.230000e+00
 TN4dr  TC2e  1 3.520000e-01    1.050000e+00
 TN4dr  TC1e  1 3.660000e-01    9.350000e-01
 TN4dr  TX4e  1 3.400000e-01    2.280000e+00
 TN4dr  TX3e  1 3.400000e-01    2.020000e+00
 TN4dr  TX2e  1 3.400000e-01    1.510000e+00
 TN4dr  TX1e  1 3.400000e-01    1.230000e+00
 TN3dr  TC6e  1 3.400000e-01    1.770000e+00
 TN3dr  TC5e  1 3.400000e-01    1.510000e+00
 TN3dr  TC4e  1 3.400000e-01    1.510000e+00
 TN3dr  TC3e  1 3.400000e-01    1.230000e+00
 TN3dr  TC2e  1 3.400000e-01    1.230000e+00
 TN3dr  TC1e  1 3.520000e-01    1.050000e+00
 TN3dr  TX4e  1 3.400000e-01    2.020000e+00
 TN3dr  TX3e  1 3.400000e-01    1.770000e+00
 TN3dr  TX2e  1 3.400000e-01    1.510000e+00
 TN3dr  TX1e  1 3.400000e-01    1.510000e+00
 TN2dr  TC6e  1 3.400000e-01    1.770000e+00
 TN2dr  TC5e  1 3.400000e-01    1.510000e+00
 TN2dr  TC4e  1 3.400000e-01    1.510000e+00
 TN2dr  TC3e  1 3.400000e-01    1.510000e+00
 TN2dr  TC2e  1 3.400000e-01    1.230000e+00
 TN2dr  TC1e  1 3.520000e-01    1.050000e+00
 TN2dr  TX4e  1 3.400000e-01    2.020000e+00
 TN2dr  TX3e  1 3.400000e-01    1.770000e+00
 TN2dr  TX2e  1 3.400000e-01    1.510000e+00
 TN2dr  TX1e  1 3.400000e-01    1.510000e+00
 TN1dr  TC6e  1 3.400000e-01    2.020000e+00
 TN1dr  TC5e  1 3.400000e-01    1.770000e+00
 TN1dr  TC4e  1 3.400000e-01    1.770000e+00
 TN1dr  TC3e  1 3.400000e-01    1.510000e+00
 TN1dr  TC2e  1 3.400000e-01    1.230000e+00
 TN1dr  TC1e  1 3.520000e-01    1.050000e+00
 TN1dr  TX4e  1 3.400000e-01    1.770000e+00
 TN1dr  TX3e  1 3.400000e-01    1.770000e+00
 TN1dr  TX2e  1 3.400000e-01    1.510000e+00
 TN1dr  TX1e  1 3.400000e-01    1.510000e+00
 TP6dr TX1eq  1 3.400000e-01    1.230000e+00
 TP6dr TX2eq  1 3.400000e-01    1.510000e+00
 TP6dr TX3eq  1 3.400000e-01    1.770000e+00
 TP6dr TX4eq  1 3.400000e-01    1.770000e+00
 TP6dr TC1eq  1 4.110000e-01    8.010000e-01
 TP6dr TC2eq  1 3.660000e-01    9.350000e-01
 TP6dr TC3eq  1 3.660000e-01    9.350000e-01
 TP6dr TC4eq  1 3.520000e-01    1.050000e+00
 TP6dr TC5eq  1 3.400000e-01    1.230000e+00
 TP6dr TC6eq  1 3.400000e-01    1.510000e+00
 TP5dr TX1eq  1 3.400000e-01    1.230000e+00
 TP5dr TX2eq  1 3.400000e-01    1.770000e+00
 TP5dr TX3eq  1 3.400000e-01    1.770000e+00
 TP5dr TX4eq  1 3.400000e-01    2.020000e+00
 TP5dr TC1eq  1 3.660000e-01    9.350000e-01
 TP5dr TC2eq  1 3.520000e-01    1.050000e+00
 TP5dr TC3eq  1 3.520000e-01    1.050000e+00
 TP5dr TC4eq  1 3.400000e-01    1.230000e+00
 TP5dr TC5eq  1 3.400000e-01    1.510000e+00
 TP5dr TC6eq  1 3.400000e-01    1.510000e+00
 TP4dr TX1eq  1 3.400000e-01    1.510000e+00
 TP4dr TX2eq  1 3.400000e-01    1.770000e+00
 TP4dr TX3eq  1 3.400000e-01    1.770000e+00
 TP4dr TX4eq  1 3.400000e-01    2.020000e+00
 TP4dr TC1eq  1 3.660000e-01    9.350000e-01
 TP4dr TC2eq  1 3.520000e-01    1.050000e+00
 TP4dr TC3eq  1 3.520000e-01    1.050000e+00
 TP4dr TC4eq  1 3.400000e-01    1.230000e+00
 TP4dr TC5eq  1 3.400000e-01    1.510000e+00
 TP4dr TC6eq  1 3.400000e-01    1.770000e+00
 TP3dr TX1eq  1 3.400000e-01    1.510000e+00
 TP3dr TX2eq  1 3.400000e-01    1.770000e+00
 TP3dr TX3eq  1 3.400000e-01    2.020000e+00
 TP3dr TX4eq  1 3.400000e-01    2.020000e+00
 TP3dr TC1eq  1 3.660000e-01    9.350000e-01
 TP3dr TC2eq  1 3.520000e-01    1.050000e+00
 TP3dr TC3eq  1 3.520000e-01    1.050000e+00
 TP3dr TC4eq  1 3.400000e-01    1.510000e+00
 TP3dr TC5eq  1 3.400000e-01    1.770000e+00
 TP3dr TC6eq  1 3.400000e-01    2.020000e+00
 TP2dr TX1eq  1 3.400000e-01    1.510000e+00
 TP2dr TX2eq  1 3.400000e-01    1.770000e+00
 TP2dr TX3eq  1 3.400000e-01    2.020000e+00
 TP2dr TX4eq  1 3.400000e-01    2.020000e+00
 TP2dr TC1eq  1 3.520000e-01    1.050000e+00
 TP2dr TC2eq  1 3.400000e-01    1.230000e+00
 TP2dr TC3eq  1 3.400000e-01    1.230000e+00
 TP2dr TC4eq  1 3.400000e-01    1.510000e+00
 TP2dr TC5eq  1 3.400000e-01    1.770000e+00
 TP2dr TC6eq  1 3.400000e-01    2.020000e+00
 TP1dr TX1eq  1 3.400000e-01    1.510000e+00
 TP1dr TX2eq  1 3.400000e-01    1.770000e+00
 TP1dr TX3eq  1 3.400000e-01    2.020000e+00
 TP1dr TX4eq  1 3.400000e-01    2.020000e+00
 TP1dr TC1eq  1 3.520000e-01    1.050000e+00
 TP1dr TC2eq  1 3.400000e-01    1.230000e+00
 TP1dr TC3eq  1 3.400000e-01    1.230000e+00
 TP1dr TC4eq  1 3.400000e-01    1.510000e+00
 TP1dr TC5eq  1 3.400000e-01    1.770000e+00
 TP1dr TC6eq  1 3.400000e-01    2.020000e+00
 TN6dr TX1eq  1 3.400000e-01    1.510000e+00
 TN6dr TX2eq  1 3.400000e-01    1.770000e+00
 TN6dr TX3eq  1 3.400000e-01    2.020000e+00
 TN6dr TX4eq  1 3.400000e-01    2.280000e+00
 TN6dr TC1eq  1 3.400000e-01    1.230000e+00
 TN6dr TC2eq  1 3.400000e-01    1.510000e+00
 TN6dr TC3eq  1 3.400000e-01    1.510000e+00
 TN6dr TC4eq  1 3.400000e-01    1.770000e+00
 TN6dr TC5eq  1 3.400000e-01    2.020000e+00
 TN6dr TC6eq  1 3.400000e-01    2.280000e+00
 TN5dr TX1eq  1 3.400000e-01    1.770000e+00
 TN5dr TX2eq  1 3.400000e-01    2.020000e+00
 TN5dr TX3eq  1 3.400000e-01    2.280000e+00
 TN5dr TX4eq  1 3.400000e-01    2.500000e+00
 TN5dr TC1eq  1 3.400000e-01    1.230000e+00
 TN5dr TC2eq  1 3.400000e-01    1.510000e+00
 TN5dr TC3eq  1 3.400000e-01    1.770000e+00
 TN5dr TC4eq  1 3.400000e-01    1.770000e+00
 TN5dr TC5eq  1 3.400000e-01    2.020000e+00
 TN5dr TC6eq  1 3.400000e-01    2.280000e+00
 TN4dr TX1eq  1 3.400000e-01    1.770000e+00
 TN4dr TX2eq  1 3.400000e-01    2.020000e+00
 TN4dr TX3eq  1 3.400000e-01    2.500000e+00
 TN4dr TX4eq  1 3.400000e-01    2.740000e+00
 TN4dr TC1eq  1 3.400000e-01    1.230000e+00
 TN4dr TC2eq  1 3.400000e-01    1.510000e+00
 TN4dr TC3eq  1 3.400000e-01    1.770000e+00
 TN4dr TC4eq  1 3.400000e-01    2.020000e+00
 TN4dr TC5eq  1 3.400000e-01    2.020000e+00
 TN4dr TC6eq  1 3.400000e-01    2.280000e+00
 TN3dr TX1eq  1 3.400000e-01    2.020000e+00
 TN3dr TX2eq  1 3.400000e-01    2.020000e+00
 TN3dr TX3eq  1 3.400000e-01    2.280000e+00
 TN3dr TX4eq  1 3.400000e-01    2.500000e+00
 TN3dr TC1eq  1 3.400000e-01    1.510000e+00
 TN3dr TC2eq  1 3.400000e-01    1.770000e+00
 TN3dr TC3eq  1 3.400000e-01    1.770000e+00
 TN3dr TC4eq  1 3.400000e-01    2.020000e+00
 TN3dr TC5eq  1 3.400000e-01    2.020000e+00
 TN3dr TC6eq  1 3.400000e-01    2.280000e+00
 TN2dr TX1eq  1 3.400000e-01    2.020000e+00
 TN2dr TX2eq  1 3.400000e-01    2.020000e+00
 TN2dr TX3eq  1 3.400000e-01    2.280000e+00
 TN2dr TX4eq  1 3.400000e-01    2.500000e+00
 TN2dr TC1eq  1 3.400000e-01    1.510000e+00
 TN2dr TC2eq  1 3.400000e-01    1.770000e+00
 TN2dr TC3eq  1 3.400000e-01    2.020000e+00
 TN2dr TC4eq  1 3.400000e-01    2.020000e+00
 TN2dr TC5eq  1 3.400000e-01    2.020000e+00
 TN2dr TC6eq  1 3.400000e-01    2.280000e+00
 TN1dr TX1eq  1 3.400000e-01    2.020000e+00
 TN1dr TX2eq  1 3.400000e-01    2.020000e+00
 TN1dr TX3eq  1 3.400000e-01    2.280000e+00
 TN1dr TX4eq  1 3.400000e-01    2.280000e+00
 TN1dr TC1eq  1 3.400000e-01    1.510000e+00
 TN1dr TC2eq  1 3.400000e-01    1.770000e+00
 TN1dr TC3eq  1 3.400000e-01    2.020000e+00
 TN1dr TC4eq  1 3.400000e-01    2.280000e+00
 TN1dr TC5eq  1 3.400000e-01    2.280000e+00
 TN1dr TC6eq  1 3.400000e-01    2.500000e+00
 TP6dr TC6eh  1 3.520000e-01    1.050000e+00
 TP6dr TC5eh  1 3.660000e-01    9.350000e-01
 TP6dr TC4eh  1 3.850000e-01    8.550000e-01
 TP6dr TC3eh  1 4.110000e-01    8.010000e-01
 TP6dr TC2eh  1 4.110000e-01    8.010000e-01
 TP6dr TC1eh  1 4.380000e-01    7.310000e-01
 TP6dr TX4eh  1 3.400000e-01    1.230000e+00
 TP6dr TX3eh  1 3.400000e-01    1.230000e+00
 TP6dr TX2eh  1 3.520000e-01    1.050000e+00
 TP6dr TX1eh  1 3.660000e-01    9.350000e-01
 TP5dr TC6eh  1 3.520000e-01    1.050000e+00
 TP5dr TC5eh  1 3.520000e-01    1.050000e+00
 TP5dr TC4eh  1 3.660000e-01    9.350000e-01
 TP5dr TC3eh  1 3.850000e-01    8.550000e-01
 TP5dr TC2eh  1 3.850000e-01    8.550000e-01
 TP5dr TC1eh  1 4.110000e-01    8.010000e-01
 TP5dr TX4eh  1 3.400000e-01    1.510000e+00
 TP5dr TX3eh  1 3.400000e-01    1.230000e+00
 TP5dr TX2eh  1 3.400000e-01    1.230000e+00
 TP5dr TX1eh  1 3.660000e-01    9.350000e-01
 TP4dr TC6eh  1 3.400000e-01    1.230000e+00
 TP4dr TC5eh  1 3.520000e-01    1.050000e+00
 TP4dr TC4eh  1 3.660000e-01    9.350000e-01
 TP4dr TC3eh  1 3.850000e-01    8.550000e-01
 TP4dr TC2eh  1 3.850000e-01    8.550000e-01
 TP4dr TC1eh  1 4.110000e-01    8.010000e-01
 TP4dr TX4eh  1 3.400000e-01    1.510000e+00
 TP4dr TX3eh  1 3.400000e-01    1.230000e+00
 TP4dr TX2eh  1 3.400000e-01    1.230000e+00
 TP4dr TX1eh  1 3.520000e-01    1.050000e+00
 TP3dr TC6eh  1 3.400000e-01    1.510000e+00
 TP3dr TC5eh  1 3.400000e-01    1.230000e+00
 TP3dr TC4eh  1 3.520000e-01    1.050000e+00
 TP3dr TC3eh  1 3.850000e-01    8.550000e-01
 TP3dr TC2eh  1 3.850000e-01    8.550000e-01
 TP3dr TC1eh  1 4.110000e-01    8.010000e-01
 TP3dr TX4eh  1 3.400000e-01    1.510000e+00
 TP3dr TX3eh  1 3.400000e-01    1.510000e+00
 TP3dr TX2eh  1 3.400000e-01    1.230000e+00
 TP3dr TX1eh  1 3.520000e-01    1.050000e+00
 TP2dr TC6eh  1 3.400000e-01    1.510000e+00
 TP2dr TC5eh  1 3.400000e-01    1.230000e+00
 TP2dr TC4eh  1 3.520000e-01    1.050000e+00
 TP2dr TC3eh  1 3.660000e-01    9.350000e-01
 TP2dr TC2eh  1 3.660000e-01    9.350000e-01
 TP2dr TC1eh  1 3.850000e-01    8.550000e-01
 TP2dr TX4eh  1 3.400000e-01    1.510000e+00
 TP2dr TX3eh  1 3.400000e-01    1.510000e+00
 TP2dr TX2eh  1 3.400000e-01    1.230000e+00
 TP2dr TX1eh  1 3.520000e-01    1.050000e+00
 TP1dr TC6eh  1 3.400000e-01    1.510000e+00
 TP1dr TC5eh  1 3.400000e-01    1.230000e+00
 TP1dr TC4eh  1 3.520000e-01    1.050000e+00
 TP1dr TC3eh  1 3.660000e-01    9.350000e-01
 TP1dr TC2eh  1 3.660000e-01    9.350000e-01
 TP1dr TC1eh  1 3.850000e-01    8.550000e-01
 TP1dr TX4eh  1 3.400000e-01    1.510000e+00
 TP1dr TX3eh  1 3.400000e-01    1.510000e+00
 TP1dr TX2eh  1 3.400000e-01    1.230000e+00
 TP1dr TX1eh  1 3.520000e-01    1.050000e+00
 TN6dr TC6eh  1 3.400000e-01    1.770000e+00
 TN6dr TC5eh  1 3.400000e-01    1.510000e+00
 TN6dr TC4eh  1 3.400000e-01    1.230000e+00
 TN6dr TC3eh  1 3.520000e-01    1.050000e+00
 TN6dr TC2eh  1 3.520000e-01    1.050000e+00
 TN6dr TC1eh  1 3.660000e-01    9.350000e-01
 TN6dr TX4eh  1 3.400000e-01    1.770000e+00
 TN6dr TX3eh  1 3.400000e-01    1.510000e+00
 TN6dr TX2eh  1 3.400000e-01    1.230000e+00
 TN6dr TX1eh  1 3.520000e-01    1.050000e+00
 TN5dr TC6eh  1 3.400000e-01    1.770000e+00
 TN5dr TC5eh  1 3.400000e-01    1.510000e+00
 TN5dr TC4eh  1 3.400000e-01    1.230000e+00
 TN5dr TC3eh  1 3.400000e-01    1.230000e+00
 TN5dr TC2eh  1 3.520000e-01    1.050000e+00
 TN5dr TC1eh  1 3.660000e-01    9.350000e-01
 TN5dr TX4eh  1 3.400000e-01    2.020000e+00
 TN5dr TX3eh  1 3.400000e-01    1.770000e+00
 TN5dr TX2eh  1 3.400000e-01    1.510000e+00
 TN5dr TX1eh  1 3.400000e-01    1.230000e+00
 TN4dr TC6eh  1 3.400000e-01    1.770000e+00
 TN4dr TC5eh  1 3.400000e-01    1.510000e+00
 TN4dr TC4eh  1 3.400000e-01    1.510000e+00
 TN4dr TC3eh  1 3.400000e-01    1.230000e+00
 TN4dr TC2eh  1 3.520000e-01    1.050000e+00
 TN4dr TC1eh  1 3.660000e-01    9.350000e-01
 TN4dr TX4eh  1 3.400000e-01    2.280000e+00
 TN4dr TX3eh  1 3.400000e-01    2.020000e+00
 TN4dr TX2eh  1 3.400000e-01    1.510000e+00
 TN4dr TX1eh  1 3.400000e-01    1.230000e+00
 TN3dr TC6eh  1 3.400000e-01    1.770000e+00
 TN3dr TC5eh  1 3.400000e-01    1.510000e+00
 TN3dr TC4eh  1 3.400000e-01    1.510000e+00
 TN3dr TC3eh  1 3.400000e-01    1.230000e+00
 TN3dr TC2eh  1 3.400000e-01    1.230000e+00
 TN3dr TC1eh  1 3.520000e-01    1.050000e+00
 TN3dr TX4eh  1 3.400000e-01    2.020000e+00
 TN3dr TX3eh  1 3.400000e-01    1.770000e+00
 TN3dr TX2eh  1 3.400000e-01    1.510000e+00
 TN3dr TX1eh  1 3.400000e-01    1.510000e+00
 TN2dr TC6eh  1 3.400000e-01    1.770000e+00
 TN2dr TC5eh  1 3.400000e-01    1.510000e+00
 TN2dr TC4eh  1 3.400000e-01    1.510000e+00
 TN2dr TC3eh  1 3.400000e-01    1.510000e+00
 TN2dr TC2eh  1 3.400000e-01    1.230000e+00
 TN2dr TC1eh  1 3.520000e-01    1.050000e+00
 TN2dr TX4eh  1 3.400000e-01    2.020000e+00
 TN2dr TX3eh  1 3.400000e-01    1.770000e+00
 TN2dr TX2eh  1 3.400000e-01    1.510000e+00
 TN2dr TX1eh  1 3.400000e-01    1.510000e+00
 TN1dr TC6eh  1 3.400000e-01    2.020000e+00
 TN1dr TC5eh  1 3.400000e-01    1.770000e+00
 TN1dr TC4eh  1 3.400000e-01    1.770000e+00
 TN1dr TC3eh  1 3.400000e-01    1.510000e+00
 TN1dr TC2eh  1 3.400000e-01    1.230000e+00
 TN1dr TC1eh  1 3.520000e-01    1.050000e+00
 TN1dr TX4eh  1 3.400000e-01    1.770000e+00
 TN1dr TX3eh  1 3.400000e-01    1.770000e+00
 TN1dr TX2eh  1 3.400000e-01    1.510000e+00
 TN1dr TX1eh  1 3.400000e-01    1.510000e+00
 TP6dr TC6er  1 3.520000e-01    1.050000e+00
 TP6dr TC5er  1 3.660000e-01    9.350000e-01
 TP6dr TC4er  1 3.850000e-01    8.550000e-01
 TP6dr TC3er  1 4.110000e-01    8.010000e-01
 TP6dr TC2er  1 4.110000e-01    8.010000e-01
 TP6dr TC1er  1 4.380000e-01    7.310000e-01
 TP6dr TX4er  1 3.400000e-01    1.230000e+00
 TP6dr TX3er  1 3.400000e-01    1.230000e+00
 TP6dr TX2er  1 3.520000e-01    1.050000e+00
 TP6dr TX1er  1 3.660000e-01    9.350000e-01
 TP5dr TC6er  1 3.520000e-01    1.050000e+00
 TP5dr TC5er  1 3.520000e-01    1.050000e+00
 TP5dr TC4er  1 3.660000e-01    9.350000e-01
 TP5dr TC3er  1 3.850000e-01    8.550000e-01
 TP5dr TC2er  1 3.850000e-01    8.550000e-01
 TP5dr TC1er  1 4.110000e-01    8.010000e-01
 TP5dr TX4er  1 3.400000e-01    1.510000e+00
 TP5dr TX3er  1 3.400000e-01    1.230000e+00
 TP5dr TX2er  1 3.400000e-01    1.230000e+00
 TP5dr TX1er  1 3.660000e-01    9.350000e-01
 TP4dr TC6er  1 3.400000e-01    1.230000e+00
 TP4dr TC5er  1 3.520000e-01    1.050000e+00
 TP4dr TC4er  1 3.660000e-01    9.350000e-01
 TP4dr TC3er  1 3.850000e-01    8.550000e-01
 TP4dr TC2er  1 3.850000e-01    8.550000e-01
 TP4dr TC1er  1 4.110000e-01    8.010000e-01
 TP4dr TX4er  1 3.400000e-01    1.510000e+00
 TP4dr TX3er  1 3.400000e-01    1.230000e+00
 TP4dr TX2er  1 3.400000e-01    1.230000e+00
 TP4dr TX1er  1 3.520000e-01    1.050000e+00
 TP3dr TC6er  1 3.400000e-01    1.510000e+00
 TP3dr TC5er  1 3.400000e-01    1.230000e+00
 TP3dr TC4er  1 3.520000e-01    1.050000e+00
 TP3dr TC3er  1 3.850000e-01    8.550000e-01
 TP3dr TC2er  1 3.850000e-01    8.550000e-01
 TP3dr TC1er  1 4.110000e-01    8.010000e-01
 TP3dr TX4er  1 3.400000e-01    1.510000e+00
 TP3dr TX3er  1 3.400000e-01    1.510000e+00
 TP3dr TX2er  1 3.400000e-01    1.230000e+00
 TP3dr TX1er  1 3.520000e-01    1.050000e+00
 TP2dr TC6er  1 3.400000e-01    1.510000e+00
 TP2dr TC5er  1 3.400000e-01    1.230000e+00
 TP2dr TC4er  1 3.520000e-01    1.050000e+00
 TP2dr TC3er  1 3.660000e-01    9.350000e-01
 TP2dr TC2er  1 3.660000e-01    9.350000e-01
 TP2dr TC1er  1 3.850000e-01    8.550000e-01
 TP2dr TX4er  1 3.400000e-01    1.510000e+00
 TP2dr TX3er  1 3.400000e-01    1.510000e+00
 TP2dr TX2er  1 3.400000e-01    1.230000e+00
 TP2dr TX1er  1 3.520000e-01    1.050000e+00
 TP1dr TC6er  1 3.400000e-01    1.510000e+00
 TP1dr TC5er  1 3.400000e-01    1.230000e+00
 TP1dr TC4er  1 3.520000e-01    1.050000e+00
 TP1dr TC3er  1 3.660000e-01    9.350000e-01
 TP1dr TC2er  1 3.660000e-01    9.350000e-01
 TP1dr TC1er  1 3.850000e-01    8.550000e-01
 TP1dr TX4er  1 3.400000e-01    1.510000e+00
 TP1dr TX3er  1 3.400000e-01    1.510000e+00
 TP1dr TX2er  1 3.400000e-01    1.230000e+00
 TP1dr TX1er  1 3.520000e-01    1.050000e+00
 TN6dr TC6er  1 3.400000e-01    1.770000e+00
 TN6dr TC5er  1 3.400000e-01    1.510000e+00
 TN6dr TC4er  1 3.400000e-01    1.230000e+00
 TN6dr TC3er  1 3.520000e-01    1.050000e+00
 TN6dr TC2er  1 3.520000e-01    1.050000e+00
 TN6dr TC1er  1 3.660000e-01    9.350000e-01
 TN6dr TX4er  1 3.400000e-01    1.770000e+00
 TN6dr TX3er  1 3.400000e-01    1.510000e+00
 TN6dr TX2er  1 3.400000e-01    1.230000e+00
 TN6dr TX1er  1 3.520000e-01    1.050000e+00
 TN5dr TC6er  1 3.400000e-01    1.770000e+00
 TN5dr TC5er  1 3.400000e-01    1.510000e+00
 TN5dr TC4er  1 3.400000e-01    1.230000e+00
 TN5dr TC3er  1 3.400000e-01    1.230000e+00
 TN5dr TC2er  1 3.520000e-01    1.050000e+00
 TN5dr TC1er  1 3.660000e-01    9.350000e-01
 TN5dr TX4er  1 3.400000e-01    2.020000e+00
 TN5dr TX3er  1 3.400000e-01    1.770000e+00
 TN5dr TX2er  1 3.400000e-01    1.510000e+00
 TN5dr TX1er  1 3.400000e-01    1.230000e+00
 TN4dr TC6er  1 3.400000e-01    1.770000e+00
 TN4dr TC5er  1 3.400000e-01    1.510000e+00
 TN4dr TC4er  1 3.400000e-01    1.510000e+00
 TN4dr TC3er  1 3.400000e-01    1.230000e+00
 TN4dr TC2er  1 3.520000e-01    1.050000e+00
 TN4dr TC1er  1 3.660000e-01    9.350000e-01
 TN4dr TX4er  1 3.400000e-01    2.280000e+00
 TN4dr TX3er  1 3.400000e-01    2.020000e+00
 TN4dr TX2er  1 3.400000e-01    1.510000e+00
 TN4dr TX1er  1 3.400000e-01    1.230000e+00
 TN3dr TC6er  1 3.400000e-01    1.770000e+00
 TN3dr TC5er  1 3.400000e-01    1.510000e+00
 TN3dr TC4er  1 3.400000e-01    1.510000e+00
 TN3dr TC3er  1 3.400000e-01    1.230000e+00
 TN3dr TC2er  1 3.400000e-01    1.230000e+00
 TN3dr TC1er  1 3.520000e-01    1.050000e+00
 TN3dr TX4er  1 3.400000e-01    2.020000e+00
 TN3dr TX3er  1 3.400000e-01    1.770000e+00
 TN3dr TX2er  1 3.400000e-01    1.510000e+00
 TN3dr TX1er  1 3.400000e-01    1.510000e+00
 TN2dr TC6er  1 3.400000e-01    1.770000e+00
 TN2dr TC5er  1 3.400000e-01    1.510000e+00
 TN2dr TC4er  1 3.400000e-01    1.510000e+00
 TN2dr TC3er  1 3.400000e-01    1.510000e+00
 TN2dr TC2er  1 3.400000e-01    1.230000e+00
 TN2dr TC1er  1 3.520000e-01    1.050000e+00
 TN2dr TX4er  1 3.400000e-01    2.020000e+00
 TN2dr TX3er  1 3.400000e-01    1.770000e+00
 TN2dr TX2er  1 3.400000e-01    1.510000e+00
 TN2dr TX1er  1 3.400000e-01    1.510000e+00
 TN1dr TC6er  1 3.400000e-01    2.020000e+00
 TN1dr TC5er  1 3.400000e-01    1.770000e+00
 TN1dr TC4er  1 3.400000e-01    1.770000e+00
 TN1dr TC3er  1 3.400000e-01    1.510000e+00
 TN1dr TC2er  1 3.400000e-01    1.230000e+00
 TN1dr TC1er  1 3.520000e-01    1.050000e+00
 TN1dr TX4er  1 3.400000e-01    1.770000e+00
 TN1dr TX3er  1 3.400000e-01    1.770000e+00
 TN1dr TX2er  1 3.400000e-01    1.510000e+00
 TN1dr TX1er  1 3.400000e-01    1.510000e+00
  TP6a  TC6v  1 3.520000e-01    1.050000e+00
  TP6a  TC5v  1 3.660000e-01    9.350000e-01
  TP6a  TC4v  1 3.850000e-01    8.550000e-01
  TP6a  TC3v  1 4.110000e-01    8.010000e-01
  TP6a  TC2v  1 4.110000e-01    8.010000e-01
  TP6a  TC1v  1 4.380000e-01    7.310000e-01
  TP6a  TX4v  1 3.400000e-01    1.230000e+00
  TP6a  TX3v  1 3.400000e-01    1.230000e+00
  TP6a  TX2v  1 3.520000e-01    1.050000e+00
  TP6a  TX1v  1 3.660000e-01    9.350000e-01
  TP5a  TC6v  1 3.520000e-01    1.050000e+00
  TP5a  TC5v  1 3.520000e-01    1.050000e+00
  TP5a  TC4v  1 3.660000e-01    9.350000e-01
  TP5a  TC3v  1 3.850000e-01    8.550000e-01
  TP5a  TC2v  1 3.850000e-01    8.550000e-01
  TP5a  TC1v  1 4.110000e-01    8.010000e-01
  TP5a  TX4v  1 3.400000e-01    1.510000e+00
  TP5a  TX3v  1 3.400000e-01    1.230000e+00
  TP5a  TX2v  1 3.400000e-01    1.230000e+00
  TP5a  TX1v  1 3.660000e-01    9.350000e-01
  TP4a  TC6v  1 3.400000e-01    1.230000e+00
  TP4a  TC5v  1 3.520000e-01    1.050000e+00
  TP4a  TC4v  1 3.660000e-01    9.350000e-01
  TP4a  TC3v  1 3.850000e-01    8.550000e-01
  TP4a  TC2v  1 3.850000e-01    8.550000e-01
  TP4a  TC1v  1 4.110000e-01    8.010000e-01
  TP4a  TX4v  1 3.400000e-01    1.510000e+00
  TP4a  TX3v  1 3.400000e-01    1.230000e+00
  TP4a  TX2v  1 3.400000e-01    1.230000e+00
  TP4a  TX1v  1 3.520000e-01    1.050000e+00
  TP3a  TC6v  1 3.400000e-01    1.510000e+00
  TP3a  TC5v  1 3.400000e-01    1.230000e+00
  TP3a  TC4v  1 3.520000e-01    1.050000e+00
  TP3a  TC3v  1 3.850000e-01    8.550000e-01
  TP3a  TC2v  1 3.850000e-01    8.550000e-01
  TP3a  TC1v  1 4.110000e-01    8.010000e-01
  TP3a  TX4v  1 3.400000e-01    1.510000e+00
  TP3a  TX3v  1 3.400000e-01    1.510000e+00
  TP3a  TX2v  1 3.400000e-01    1.230000e+00
  TP3a  TX1v  1 3.520000e-01    1.050000e+00
  TP2a  TC6v  1 3.400000e-01    1.510000e+00
  TP2a  TC5v  1 3.400000e-01    1.230000e+00
  TP2a  TC4v  1 3.520000e-01    1.050000e+00
  TP2a  TC3v  1 3.660000e-01    9.350000e-01
  TP2a  TC2v  1 3.660000e-01    9.350000e-01
  TP2a  TC1v  1 3.850000e-01    8.550000e-01
  TP2a  TX4v  1 3.400000e-01    1.510000e+00
  TP2a  TX3v  1 3.400000e-01    1.510000e+00
  TP2a  TX2v  1 3.400000e-01    1.230000e+00
  TP2a  TX1v  1 3.520000e-01    1.050000e+00
  TP1a  TC6v  1 3.400000e-01    1.510000e+00
  TP1a  TC5v  1 3.400000e-01    1.230000e+00
  TP1a  TC4v  1 3.520000e-01    1.050000e+00
  TP1a  TC3v  1 3.660000e-01    9.350000e-01
  TP1a  TC2v  1 3.660000e-01    9.350000e-01
  TP1a  TC1v  1 3.850000e-01    8.550000e-01
  TP1a  TX4v  1 3.400000e-01    1.510000e+00
  TP1a  TX3v  1 3.400000e-01    1.510000e+00
  TP1a  TX2v  1 3.400000e-01    1.230000e+00
  TP1a  TX1v  1 3.520000e-01    1.050000e+00
  TN6a  TC6v  1 3.400000e-01    1.770000e+00
  TN6a  TC5v  1 3.400000e-01    1.510000e+00
  TN6a  TC4v  1 3.400000e-01    1.230000e+00
  TN6a  TC3v  1 3.520000e-01    1.050000e+00
  TN6a  TC2v  1 3.520000e-01    1.050000e+00
  TN6a  TC1v  1 3.660000e-01    9.350000e-01
  TN6a  TX4v  1 3.400000e-01    1.770000e+00
  TN6a  TX3v  1 3.400000e-01    1.510000e+00
  TN6a  TX2v  1 3.400000e-01    1.230000e+00
  TN6a  TX1v  1 3.520000e-01    1.050000e+00
  TN5a  TC6v  1 3.400000e-01    1.770000e+00
  TN5a  TC5v  1 3.400000e-01    1.510000e+00
  TN5a  TC4v  1 3.400000e-01    1.230000e+00
  TN5a  TC3v  1 3.400000e-01    1.230000e+00
  TN5a  TC2v  1 3.520000e-01    1.050000e+00
  TN5a  TC1v  1 3.660000e-01    9.350000e-01
  TN5a  TX4v  1 3.400000e-01    2.020000e+00
  TN5a  TX3v  1 3.400000e-01    1.770000e+00
  TN5a  TX2v  1 3.400000e-01    1.510000e+00
  TN5a  TX1v  1 3.400000e-01    1.230000e+00
  TN4a  TC6v  1 3.400000e-01    1.770000e+00
  TN4a  TC5v  1 3.400000e-01    1.510000e+00
  TN4a  TC4v  1 3.400000e-01    1.510000e+00
  TN4a  TC3v  1 3.400000e-01    1.230000e+00
  TN4a  TC2v  1 3.520000e-01    1.050000e+00
  TN4a  TC1v  1 3.660000e-01    9.350000e-01
  TN4a  TX4v  1 3.400000e-01    2.280000e+00
  TN4a  TX3v  1 3.400000e-01    2.020000e+00
  TN4a  TX2v  1 3.400000e-01    1.510000e+00
  TN4a  TX1v  1 3.400000e-01    1.230000e+00
  TN3a  TC6v  1 3.400000e-01    1.770000e+00
  TN3a  TC5v  1 3.400000e-01    1.510000e+00
  TN3a  TC4v  1 3.400000e-01    1.510000e+00
  TN3a  TC3v  1 3.400000e-01    1.230000e+00
  TN3a  TC2v  1 3.400000e-01    1.230000e+00
  TN3a  TC1v  1 3.520000e-01    1.050000e+00
  TN3a  TX4v  1 3.400000e-01    2.020000e+00
  TN3a  TX3v  1 3.400000e-01    1.770000e+00
  TN3a  TX2v  1 3.400000e-01    1.510000e+00
  TN3a  TX1v  1 3.400000e-01    1.510000e+00
  TN2a  TC6v  1 3.400000e-01    1.770000e+00
  TN2a  TC5v  1 3.400000e-01    1.510000e+00
  TN2a  TC4v  1 3.400000e-01    1.510000e+00
  TN2a  TC3v  1 3.400000e-01    1.510000e+00
  TN2a  TC2v  1 3.400000e-01    1.230000e+00
  TN2a  TC1v  1 3.520000e-01    1.050000e+00
  TN2a  TX4v  1 3.400000e-01    2.020000e+00
  TN2a  TX3v  1 3.400000e-01    1.770000e+00
  TN2a  TX2v  1 3.400000e-01    1.510000e+00
  TN2a  TX1v  1 3.400000e-01    1.510000e+00
  TN1a  TC6v  1 3.400000e-01    2.020000e+00
  TN1a  TC5v  1 3.400000e-01    1.770000e+00
  TN1a  TC4v  1 3.400000e-01    1.770000e+00
  TN1a  TC3v  1 3.400000e-01    1.510000e+00
  TN1a  TC2v  1 3.400000e-01    1.230000e+00
  TN1a  TC1v  1 3.520000e-01    1.050000e+00
  TN1a  TX4v  1 3.400000e-01    1.770000e+00
  TN1a  TX3v  1 3.400000e-01    1.770000e+00
  TN1a  TX2v  1 3.400000e-01    1.510000e+00
  TN1a  TX1v  1 3.400000e-01    1.510000e+00
  TP6a TX1vq  1 3.400000e-01    1.230000e+00
  TP5a TX1vq  1 3.400000e-01    1.230000e+00
  TP4a TX1vq  1 3.400000e-01    1.510000e+00
  TP3a TX1vq  1 3.400000e-01    1.510000e+00
  TP2a TX1vq  1 3.400000e-01    1.510000e+00
  TP1a TX1vq  1 3.400000e-01    1.510000e+00
  TN6a TX1vq  1 3.400000e-01    1.510000e+00
  TN5a TX1vq  1 3.400000e-01    1.770000e+00
  TN4a TX1vq  1 3.400000e-01    1.770000e+00
  TN3a TX1vq  1 3.400000e-01    2.020000e+00
  TN2a TX1vq  1 3.400000e-01    2.020000e+00
  TN1a TX1vq  1 3.400000e-01    2.020000e+00
  TP6a TX2vq  1 3.400000e-01    1.510000e+00
  TP5a TX2vq  1 3.400000e-01    1.770000e+00
  TP4a TX2vq  1 3.400000e-01    1.770000e+00
  TP3a TX2vq  1 3.400000e-01    1.770000e+00
  TP2a TX2vq  1 3.400000e-01    1.770000e+00
  TP1a TX2vq  1 3.400000e-01    1.770000e+00
  TN6a TX2vq  1 3.400000e-01    1.770000e+00
  TN5a TX2vq  1 3.400000e-01    2.020000e+00
  TN4a TX2vq  1 3.400000e-01    2.020000e+00
  TN3a TX2vq  1 3.400000e-01    2.020000e+00
  TN2a TX2vq  1 3.400000e-01    2.020000e+00
  TN1a TX2vq  1 3.400000e-01    2.020000e+00
  TP6a TX3vq  1 3.400000e-01    1.770000e+00
  TP5a TX3vq  1 3.400000e-01    1.770000e+00
  TP4a TX3vq  1 3.400000e-01    1.770000e+00
  TP3a TX3vq  1 3.400000e-01    2.020000e+00
  TP2a TX3vq  1 3.400000e-01    2.020000e+00
  TP1a TX3vq  1 3.400000e-01    2.020000e+00
  TN6a TX3vq  1 3.400000e-01    2.020000e+00
  TN5a TX3vq  1 3.400000e-01    2.280000e+00
  TN4a TX3vq  1 3.400000e-01    2.500000e+00
  TN3a TX3vq  1 3.400000e-01    2.280000e+00
  TN2a TX3vq  1 3.400000e-01    2.280000e+00
  TN1a TX3vq  1 3.400000e-01    2.280000e+00
  TP6a TX4vq  1 3.400000e-01    1.770000e+00
  TP5a TX4vq  1 3.400000e-01    2.020000e+00
  TP4a TX4vq  1 3.400000e-01    2.020000e+00
  TP3a TX4vq  1 3.400000e-01    2.020000e+00
  TP2a TX4vq  1 3.400000e-01    2.020000e+00
  TP1a TX4vq  1 3.400000e-01    2.020000e+00
  TN6a TX4vq  1 3.400000e-01    2.280000e+00
  TN5a TX4vq  1 3.400000e-01    2.500000e+00
  TN4a TX4vq  1 3.400000e-01    2.740000e+00
  TN3a TX4vq  1 3.400000e-01    2.500000e+00
  TN2a TX4vq  1 3.400000e-01    2.500000e+00
  TN1a TX4vq  1 3.400000e-01    2.280000e+00
  TP6a TC1vq  1 4.110000e-01    8.010000e-01
  TP5a TC1vq  1 3.660000e-01    9.350000e-01
  TP4a TC1vq  1 3.660000e-01    9.350000e-01
  TP3a TC1vq  1 3.660000e-01    9.350000e-01
  TP2a TC1vq  1 3.520000e-01    1.050000e+00
  TP1a TC1vq  1 3.520000e-01    1.050000e+00
  TN6a TC1vq  1 3.400000e-01    1.230000e+00
  TN5a TC1vq  1 3.400000e-01    1.230000e+00
  TN4a TC1vq  1 3.400000e-01    1.230000e+00
  TN3a TC1vq  1 3.400000e-01    1.510000e+00
  TN2a TC1vq  1 3.400000e-01    1.510000e+00
  TN1a TC1vq  1 3.400000e-01    1.510000e+00
  TP6a TC2vq  1 3.660000e-01    9.350000e-01
  TP5a TC2vq  1 3.520000e-01    1.050000e+00
  TP4a TC2vq  1 3.520000e-01    1.050000e+00
  TP3a TC2vq  1 3.520000e-01    1.050000e+00
  TP2a TC2vq  1 3.400000e-01    1.230000e+00
  TP1a TC2vq  1 3.400000e-01    1.230000e+00
  TN6a TC2vq  1 3.400000e-01    1.510000e+00
  TN5a TC2vq  1 3.400000e-01    1.510000e+00
  TN4a TC2vq  1 3.400000e-01    1.510000e+00
  TN3a TC2vq  1 3.400000e-01    1.770000e+00
  TN2a TC2vq  1 3.400000e-01    1.770000e+00
  TN1a TC2vq  1 3.400000e-01    1.770000e+00
  TP6a TC3vq  1 3.660000e-01    9.350000e-01
  TP5a TC3vq  1 3.520000e-01    1.050000e+00
  TP4a TC3vq  1 3.520000e-01    1.050000e+00
  TP3a TC3vq  1 3.520000e-01    1.050000e+00
  TP2a TC3vq  1 3.400000e-01    1.230000e+00
  TP1a TC3vq  1 3.400000e-01    1.230000e+00
  TN6a TC3vq  1 3.400000e-01    1.510000e+00
  TN5a TC3vq  1 3.400000e-01    1.770000e+00
  TN4a TC3vq  1 3.400000e-01    1.770000e+00
  TN3a TC3vq  1 3.400000e-01    1.770000e+00
  TN2a TC3vq  1 3.400000e-01    2.020000e+00
  TN1a TC3vq  1 3.400000e-01    2.020000e+00
  TP6a TC4vq  1 3.520000e-01    1.050000e+00
  TP5a TC4vq  1 3.400000e-01    1.230000e+00
  TP4a TC4vq  1 3.400000e-01    1.230000e+00
  TP3a TC4vq  1 3.400000e-01    1.510000e+00
  TP2a TC4vq  1 3.400000e-01    1.510000e+00
  TP1a TC4vq  1 3.400000e-01    1.510000e+00
  TN6a TC4vq  1 3.400000e-01    1.770000e+00
  TN5a TC4vq  1 3.400000e-01    1.770000e+00
  TN4a TC4vq  1 3.400000e-01    2.020000e+00
  TN3a TC4vq  1 3.400000e-01    2.020000e+00
  TN2a TC4vq  1 3.400000e-01    2.020000e+00
  TN1a TC4vq  1 3.400000e-01    2.280000e+00
  TP6a TC5vq  1 3.400000e-01    1.230000e+00
  TP5a TC5vq  1 3.400000e-01    1.510000e+00
  TP4a TC5vq  1 3.400000e-01    1.510000e+00
  TP3a TC5vq  1 3.400000e-01    1.770000e+00
  TP2a TC5vq  1 3.400000e-01    1.770000e+00
  TP1a TC5vq  1 3.400000e-01    1.770000e+00
  TN6a TC5vq  1 3.400000e-01    2.020000e+00
  TN5a TC5vq  1 3.400000e-01    2.020000e+00
  TN4a TC5vq  1 3.400000e-01    2.020000e+00
  TN3a TC5vq  1 3.400000e-01    2.020000e+00
  TN2a TC5vq  1 3.400000e-01    2.020000e+00
  TN1a TC5vq  1 3.400000e-01    2.280000e+00
  TP6a TC6vq  1 3.400000e-01    1.510000e+00
  TP5a TC6vq  1 3.400000e-01    1.510000e+00
  TP4a TC6vq  1 3.400000e-01    1.770000e+00
  TP3a TC6vq  1 3.400000e-01    2.020000e+00
  TP2a TC6vq  1 3.400000e-01    2.020000e+00
  TP1a TC6vq  1 3.400000e-01    2.020000e+00
  TN6a TC6vq  1 3.400000e-01    2.280000e+00
  TN5a TC6vq  1 3.400000e-01    2.280000e+00
  TN4a TC6vq  1 3.400000e-01    2.280000e+00
  TN3a TC6vq  1 3.400000e-01    2.280000e+00
  TN2a TC6vq  1 3.400000e-01    2.280000e+00
  TN1a TC6vq  1 3.400000e-01    2.500000e+00
  TP6a TX1vh  1 3.660000e-01    9.350000e-01
  TP5a TX1vh  1 3.660000e-01    9.350000e-01
  TP4a TX1vh  1 3.520000e-01    1.050000e+00
  TP3a TX1vh  1 3.520000e-01    1.050000e+00
  TP2a TX1vh  1 3.520000e-01    1.050000e+00
  TP1a TX1vh  1 3.520000e-01    1.050000e+00
  TN6a TX1vh  1 3.520000e-01    1.050000e+00
  TN5a TX1vh  1 3.400000e-01    1.230000e+00
  TN4a TX1vh  1 3.400000e-01    1.230000e+00
  TN3a TX1vh  1 3.400000e-01    1.510000e+00
  TN2a TX1vh  1 3.400000e-01    1.510000e+00
  TN1a TX1vh  1 3.400000e-01    1.510000e+00
  TP6a TX2vh  1 3.520000e-01    1.050000e+00
  TP5a TX2vh  1 3.400000e-01    1.230000e+00
  TP4a TX2vh  1 3.400000e-01    1.230000e+00
  TP3a TX2vh  1 3.400000e-01    1.230000e+00
  TP2a TX2vh  1 3.400000e-01    1.230000e+00
  TP1a TX2vh  1 3.400000e-01    1.230000e+00
  TN6a TX2vh  1 3.400000e-01    1.230000e+00
  TN5a TX2vh  1 3.400000e-01    1.510000e+00
  TN4a TX2vh  1 3.400000e-01    1.510000e+00
  TN3a TX2vh  1 3.400000e-01    1.510000e+00
  TN2a TX2vh  1 3.400000e-01    1.510000e+00
  TN1a TX2vh  1 3.400000e-01    1.510000e+00
  TP6a TX3vh  1 3.400000e-01    1.230000e+00
  TP5a TX3vh  1 3.400000e-01    1.230000e+00
  TP4a TX3vh  1 3.400000e-01    1.230000e+00
  TP3a TX3vh  1 3.400000e-01    1.510000e+00
  TP2a TX3vh  1 3.400000e-01    1.510000e+00
  TP1a TX3vh  1 3.400000e-01    1.510000e+00
  TN6a TX3vh  1 3.400000e-01    1.510000e+00
  TN5a TX3vh  1 3.400000e-01    1.770000e+00
  TN4a TX3vh  1 3.400000e-01    2.020000e+00
  TN3a TX3vh  1 3.400000e-01    1.770000e+00
  TN2a TX3vh  1 3.400000e-01    1.770000e+00
  TN1a TX3vh  1 3.400000e-01    1.770000e+00
  TP6a TX4vh  1 3.400000e-01    1.230000e+00
  TP5a TX4vh  1 3.400000e-01    1.510000e+00
  TP4a TX4vh  1 3.400000e-01    1.510000e+00
  TP3a TX4vh  1 3.400000e-01    1.510000e+00
  TP2a TX4vh  1 3.400000e-01    1.510000e+00
  TP1a TX4vh  1 3.400000e-01    1.510000e+00
  TN6a TX4vh  1 3.400000e-01    1.770000e+00
  TN5a TX4vh  1 3.400000e-01    2.020000e+00
  TN4a TX4vh  1 3.400000e-01    2.280000e+00
  TN3a TX4vh  1 3.400000e-01    2.020000e+00
  TN2a TX4vh  1 3.400000e-01    2.020000e+00
  TN1a TX4vh  1 3.400000e-01    1.770000e+00
  TP6a TC1vh  1 4.380000e-01    7.310000e-01
  TP5a TC1vh  1 4.110000e-01    8.010000e-01
  TP4a TC1vh  1 4.110000e-01    8.010000e-01
  TP3a TC1vh  1 4.110000e-01    8.010000e-01
  TP2a TC1vh  1 3.850000e-01    8.550000e-01
  TP1a TC1vh  1 3.850000e-01    8.550000e-01
  TN6a TC1vh  1 3.660000e-01    9.350000e-01
  TN5a TC1vh  1 3.660000e-01    9.350000e-01
  TN4a TC1vh  1 3.660000e-01    9.350000e-01
  TN3a TC1vh  1 3.520000e-01    1.050000e+00
  TN2a TC1vh  1 3.520000e-01    1.050000e+00
  TN1a TC1vh  1 3.520000e-01    1.050000e+00
  TP6a TC2vh  1 4.110000e-01    8.010000e-01
  TP5a TC2vh  1 3.850000e-01    8.550000e-01
  TP4a TC2vh  1 3.850000e-01    8.550000e-01
  TP3a TC2vh  1 3.850000e-01    8.550000e-01
  TP2a TC2vh  1 3.660000e-01    9.350000e-01
  TP1a TC2vh  1 3.660000e-01    9.350000e-01
  TN6a TC2vh  1 3.520000e-01    1.050000e+00
  TN5a TC2vh  1 3.520000e-01    1.050000e+00
  TN4a TC2vh  1 3.520000e-01    1.050000e+00
  TN3a TC2vh  1 3.400000e-01    1.230000e+00
  TN2a TC2vh  1 3.400000e-01    1.230000e+00
  TN1a TC2vh  1 3.400000e-01    1.230000e+00
  TP6a TC3vh  1 4.110000e-01    8.010000e-01
  TP5a TC3vh  1 3.850000e-01    8.550000e-01
  TP4a TC3vh  1 3.850000e-01    8.550000e-01
  TP3a TC3vh  1 3.850000e-01    8.550000e-01
  TP2a TC3vh  1 3.660000e-01    9.350000e-01
  TP1a TC3vh  1 3.660000e-01    9.350000e-01
  TN6a TC3vh  1 3.520000e-01    1.050000e+00
  TN5a TC3vh  1 3.400000e-01    1.230000e+00
  TN4a TC3vh  1 3.400000e-01    1.230000e+00
  TN3a TC3vh  1 3.400000e-01    1.230000e+00
  TN2a TC3vh  1 3.400000e-01    1.510000e+00
  TN1a TC3vh  1 3.400000e-01    1.510000e+00
  TP6a TC4vh  1 3.850000e-01    8.550000e-01
  TP5a TC4vh  1 3.660000e-01    9.350000e-01
  TP4a TC4vh  1 3.660000e-01    9.350000e-01
  TP3a TC4vh  1 3.520000e-01    1.050000e+00
  TP2a TC4vh  1 3.520000e-01    1.050000e+00
  TP1a TC4vh  1 3.520000e-01    1.050000e+00
  TN6a TC4vh  1 3.400000e-01    1.230000e+00
  TN5a TC4vh  1 3.400000e-01    1.230000e+00
  TN4a TC4vh  1 3.400000e-01    1.510000e+00
  TN3a TC4vh  1 3.400000e-01    1.510000e+00
  TN2a TC4vh  1 3.400000e-01    1.510000e+00
  TN1a TC4vh  1 3.400000e-01    1.770000e+00
  TP6a TC5vh  1 3.660000e-01    9.350000e-01
  TP5a TC5vh  1 3.520000e-01    1.050000e+00
  TP4a TC5vh  1 3.520000e-01    1.050000e+00
  TP3a TC5vh  1 3.400000e-01    1.230000e+00
  TP2a TC5vh  1 3.400000e-01    1.230000e+00
  TP1a TC5vh  1 3.400000e-01    1.230000e+00
  TN6a TC5vh  1 3.400000e-01    1.510000e+00
  TN5a TC5vh  1 3.400000e-01    1.510000e+00
  TN4a TC5vh  1 3.400000e-01    1.510000e+00
  TN3a TC5vh  1 3.400000e-01    1.510000e+00
  TN2a TC5vh  1 3.400000e-01    1.510000e+00
  TN1a TC5vh  1 3.400000e-01    1.770000e+00
  TP6a TC6vh  1 3.520000e-01    1.050000e+00
  TP5a TC6vh  1 3.520000e-01    1.050000e+00
  TP4a TC6vh  1 3.400000e-01    1.230000e+00
  TP3a TC6vh  1 3.400000e-01    1.510000e+00
  TP2a TC6vh  1 3.400000e-01    1.510000e+00
  TP1a TC6vh  1 3.400000e-01    1.510000e+00
  TN6a TC6vh  1 3.400000e-01    1.770000e+00
  TN5a TC6vh  1 3.400000e-01    1.770000e+00
  TN4a TC6vh  1 3.400000e-01    1.770000e+00
  TN3a TC6vh  1 3.400000e-01    1.770000e+00
  TN2a TC6vh  1 3.400000e-01    1.770000e+00
  TN1a TC6vh  1 3.400000e-01    2.020000e+00
  TP6a TX1vr  1 3.660000e-01    9.350000e-01
  TP5a TX1vr  1 3.660000e-01    9.350000e-01
  TP4a TX1vr  1 3.520000e-01    1.050000e+00
  TP3a TX1vr  1 3.520000e-01    1.050000e+00
  TP2a TX1vr  1 3.520000e-01    1.050000e+00
  TP1a TX1vr  1 3.520000e-01    1.050000e+00
  TN6a TX1vr  1 3.520000e-01    1.050000e+00
  TN5a TX1vr  1 3.400000e-01    1.230000e+00
  TN4a TX1vr  1 3.400000e-01    1.230000e+00
  TN3a TX1vr  1 3.400000e-01    1.510000e+00
  TN2a TX1vr  1 3.400000e-01    1.510000e+00
  TN1a TX1vr  1 3.400000e-01    1.510000e+00
  TP6a TX2vr  1 3.520000e-01    1.050000e+00
  TP5a TX2vr  1 3.400000e-01    1.230000e+00
  TP4a TX2vr  1 3.400000e-01    1.230000e+00
  TP3a TX2vr  1 3.400000e-01    1.230000e+00
  TP2a TX2vr  1 3.400000e-01    1.230000e+00
  TP1a TX2vr  1 3.400000e-01    1.230000e+00
  TN6a TX2vr  1 3.400000e-01    1.230000e+00
  TN5a TX2vr  1 3.400000e-01    1.510000e+00
  TN4a TX2vr  1 3.400000e-01    1.510000e+00
  TN3a TX2vr  1 3.400000e-01    1.510000e+00
  TN2a TX2vr  1 3.400000e-01    1.510000e+00
  TN1a TX2vr  1 3.400000e-01    1.510000e+00
  TP6a TX3vr  1 3.400000e-01    1.230000e+00
  TP5a TX3vr  1 3.400000e-01    1.230000e+00
  TP4a TX3vr  1 3.400000e-01    1.230000e+00
  TP3a TX3vr  1 3.400000e-01    1.510000e+00
  TP2a TX3vr  1 3.400000e-01    1.510000e+00
  TP1a TX3vr  1 3.400000e-01    1.510000e+00
  TN6a TX3vr  1 3.400000e-01    1.510000e+00
  TN5a TX3vr  1 3.400000e-01    1.770000e+00
  TN4a TX3vr  1 3.400000e-01    2.020000e+00
  TN3a TX3vr  1 3.400000e-01    1.770000e+00
  TN2a TX3vr  1 3.400000e-01    1.770000e+00
  TN1a TX3vr  1 3.400000e-01    1.770000e+00
  TP6a TX4vr  1 3.400000e-01    1.230000e+00
  TP5a TX4vr  1 3.400000e-01    1.510000e+00
  TP4a TX4vr  1 3.400000e-01    1.510000e+00
  TP3a TX4vr  1 3.400000e-01    1.510000e+00
  TP2a TX4vr  1 3.400000e-01    1.510000e+00
  TP1a TX4vr  1 3.400000e-01    1.510000e+00
  TN6a TX4vr  1 3.400000e-01    1.770000e+00
  TN5a TX4vr  1 3.400000e-01    2.020000e+00
  TN4a TX4vr  1 3.400000e-01    2.280000e+00
  TN3a TX4vr  1 3.400000e-01    2.020000e+00
  TN2a TX4vr  1 3.400000e-01    2.020000e+00
  TN1a TX4vr  1 3.400000e-01    1.770000e+00
  TP6a TC1vr  1 4.380000e-01    7.310000e-01
  TP5a TC1vr  1 4.110000e-01    8.010000e-01
  TP4a TC1vr  1 4.110000e-01    8.010000e-01
  TP3a TC1vr  1 4.110000e-01    8.010000e-01
  TP2a TC1vr  1 3.850000e-01    8.550000e-01
  TP1a TC1vr  1 3.850000e-01    8.550000e-01
  TN6a TC1vr  1 3.660000e-01    9.350000e-01
  TN5a TC1vr  1 3.660000e-01    9.350000e-01
  TN4a TC1vr  1 3.660000e-01    9.350000e-01
  TN3a TC1vr  1 3.520000e-01    1.050000e+00
  TN2a TC1vr  1 3.520000e-01    1.050000e+00
  TN1a TC1vr  1 3.520000e-01    1.050000e+00
  TP6a TC2vr  1 4.110000e-01    8.010000e-01
  TP5a TC2vr  1 3.850000e-01    8.550000e-01
  TP4a TC2vr  1 3.850000e-01    8.550000e-01
  TP3a TC2vr  1 3.850000e-01    8.550000e-01
  TP2a TC2vr  1 3.660000e-01    9.350000e-01
  TP1a TC2vr  1 3.660000e-01    9.350000e-01
  TN6a TC2vr  1 3.520000e-01    1.050000e+00
  TN5a TC2vr  1 3.520000e-01    1.050000e+00
  TN4a TC2vr  1 3.520000e-01    1.050000e+00
  TN3a TC2vr  1 3.400000e-01    1.230000e+00
  TN2a TC2vr  1 3.400000e-01    1.230000e+00
  TN1a TC2vr  1 3.400000e-01    1.230000e+00
  TP6a TC3vr  1 4.110000e-01    8.010000e-01
  TP5a TC3vr  1 3.850000e-01    8.550000e-01
  TP4a TC3vr  1 3.850000e-01    8.550000e-01
  TP3a TC3vr  1 3.850000e-01    8.550000e-01
  TP2a TC3vr  1 3.660000e-01    9.350000e-01
  TP1a TC3vr  1 3.660000e-01    9.350000e-01
  TN6a TC3vr  1 3.520000e-01    1.050000e+00
  TN5a TC3vr  1 3.400000e-01    1.230000e+00
  TN4a TC3vr  1 3.400000e-01    1.230000e+00
  TN3a TC3vr  1 3.400000e-01    1.230000e+00
  TN2a TC3vr  1 3.400000e-01    1.510000e+00
  TN1a TC3vr  1 3.400000e-01    1.510000e+00
  TP6a TC4vr  1 3.850000e-01    8.550000e-01
  TP5a TC4vr  1 3.660000e-01    9.350000e-01
  TP4a TC4vr  1 3.660000e-01    9.350000e-01
  TP3a TC4vr  1 3.520000e-01    1.050000e+00
  TP2a TC4vr  1 3.520000e-01    1.050000e+00
  TP1a TC4vr  1 3.520000e-01    1.050000e+00
  TN6a TC4vr  1 3.400000e-01    1.230000e+00
  TN5a TC4vr  1 3.400000e-01    1.230000e+00
  TN4a TC4vr  1 3.400000e-01    1.510000e+00
  TN3a TC4vr  1 3.400000e-01    1.510000e+00
  TN2a TC4vr  1 3.400000e-01    1.510000e+00
  TN1a TC4vr  1 3.400000e-01    1.770000e+00
  TP6a TC5vr  1 3.660000e-01    9.350000e-01
  TP5a TC5vr  1 3.520000e-01    1.050000e+00
  TP4a TC5vr  1 3.520000e-01    1.050000e+00
  TP3a TC5vr  1 3.400000e-01    1.230000e+00
  TP2a TC5vr  1 3.400000e-01    1.230000e+00
  TP1a TC5vr  1 3.400000e-01    1.230000e+00
  TN6a TC5vr  1 3.400000e-01    1.510000e+00
  TN5a TC5vr  1 3.400000e-01    1.510000e+00
  TN4a TC5vr  1 3.400000e-01    1.510000e+00
  TN3a TC5vr  1 3.400000e-01    1.510000e+00
  TN2a TC5vr  1 3.400000e-01    1.510000e+00
  TN1a TC5vr  1 3.400000e-01    1.770000e+00
  TP6a TC6vr  1 3.520000e-01    1.050000e+00
  TP5a TC6vr  1 3.520000e-01    1.050000e+00
  TP4a TC6vr  1 3.400000e-01    1.230000e+00
  TP3a TC6vr  1 3.400000e-01    1.510000e+00
  TP2a TC6vr  1 3.400000e-01    1.510000e+00
  TP1a TC6vr  1 3.400000e-01    1.510000e+00
  TN6a TC6vr  1 3.400000e-01    1.770000e+00
  TN5a TC6vr  1 3.400000e-01    1.770000e+00
  TN4a TC6vr  1 3.400000e-01    1.770000e+00
  TN3a TC6vr  1 3.400000e-01    1.770000e+00
  TN2a TC6vr  1 3.400000e-01    1.770000e+00
  TN1a TC6vr  1 3.400000e-01    2.020000e+00
 TP6aq  TC6v  1 3.400000e-01    1.510000e+00
 TP6aq  TC5v  1 3.400000e-01    1.230000e+00
 TP6aq  TC4v  1 3.520000e-01    1.050000e+00
 TP6aq  TC3v  1 3.660000e-01    9.350000e-01
 TP6aq  TC2v  1 3.660000e-01    9.350000e-01
 TP6aq  TC1v  1 4.110000e-01    8.010000e-01
 TP6aq  TX4v  1 3.400000e-01    1.770000e+00
 TP6aq  TX3v  1 3.400000e-01    1.770000e+00
 TP6aq  TX2v  1 3.400000e-01    1.510000e+00
 TP6aq  TX1v  1 3.400000e-01    1.230000e+00
 TP5aq  TC6v  1 3.400000e-01    1.510000e+00
 TP5aq  TC5v  1 3.400000e-01    1.510000e+00
 TP5aq  TC4v  1 3.400000e-01    1.230000e+00
 TP5aq  TC3v  1 3.520000e-01    1.050000e+00
 TP5aq  TC2v  1 3.520000e-01    1.050000e+00
 TP5aq  TC1v  1 3.660000e-01    9.350000e-01
 TP5aq  TX4v  1 3.400000e-01    2.020000e+00
 TP5aq  TX3v  1 3.400000e-01    1.770000e+00
 TP5aq  TX2v  1 3.400000e-01    1.770000e+00
 TP5aq  TX1v  1 3.400000e-01    1.230000e+00
 TP4aq  TC6v  1 3.400000e-01    1.770000e+00
 TP4aq  TC5v  1 3.400000e-01    1.510000e+00
 TP4aq  TC4v  1 3.400000e-01    1.230000e+00
 TP4aq  TC3v  1 3.520000e-01    1.050000e+00
 TP4aq  TC2v  1 3.520000e-01    1.050000e+00
 TP4aq  TC1v  1 3.660000e-01    9.350000e-01
 TP4aq  TX4v  1 3.400000e-01    2.020000e+00
 TP4aq  TX3v  1 3.400000e-01    1.770000e+00
 TP4aq  TX2v  1 3.400000e-01    1.770000e+00
 TP4aq  TX1v  1 3.400000e-01    1.510000e+00
 TP3aq  TC6v  1 3.400000e-01    2.020000e+00
 TP3aq  TC5v  1 3.400000e-01    1.770000e+00
 TP3aq  TC4v  1 3.400000e-01    1.510000e+00
 TP3aq  TC3v  1 3.520000e-01    1.050000e+00
 TP3aq  TC2v  1 3.520000e-01    1.050000e+00
 TP3aq  TC1v  1 3.660000e-01    9.350000e-01
 TP3aq  TX4v  1 3.400000e-01    2.020000e+00
 TP3aq  TX3v  1 3.400000e-01    2.020000e+00
 TP3aq  TX2v  1 3.400000e-01    1.770000e+00
 TP3aq  TX1v  1 3.400000e-01    1.510000e+00
 TP2aq  TC6v  1 3.400000e-01    2.020000e+00
 TP2aq  TC5v  1 3.400000e-01    1.770000e+00
 TP2aq  TC4v  1 3.400000e-01    1.510000e+00
 TP2aq  TC3v  1 3.400000e-01    1.230000e+00
 TP2aq  TC2v  1 3.400000e-01    1.230000e+00
 TP2aq  TC1v  1 3.520000e-01    1.050000e+00
 TP2aq  TX4v  1 3.400000e-01    2.020000e+00
 TP2aq  TX3v  1 3.400000e-01    2.020000e+00
 TP2aq  TX2v  1 3.400000e-01    1.770000e+00
 TP2aq  TX1v  1 3.400000e-01    1.510000e+00
 TP1aq  TC6v  1 3.400000e-01    2.020000e+00
 TP1aq  TC5v  1 3.400000e-01    1.770000e+00
 TP1aq  TC4v  1 3.400000e-01    1.510000e+00
 TP1aq  TC3v  1 3.400000e-01    1.230000e+00
 TP1aq  TC2v  1 3.400000e-01    1.230000e+00
 TP1aq  TC1v  1 3.520000e-01    1.050000e+00
 TP1aq  TX4v  1 3.400000e-01    2.020000e+00
 TP1aq  TX3v  1 3.400000e-01    2.020000e+00
 TP1aq  TX2v  1 3.400000e-01    1.770000e+00
 TP1aq  TX1v  1 3.400000e-01    1.510000e+00
 TN6aq  TC6v  1 3.400000e-01    2.280000e+00
 TN6aq  TC5v  1 3.400000e-01    2.020000e+00
 TN6aq  TC4v  1 3.400000e-01    1.770000e+00
 TN6aq  TC3v  1 3.400000e-01    1.510000e+00
 TN6aq  TC2v  1 3.400000e-01    1.510000e+00
 TN6aq  TC1v  1 3.400000e-01    1.230000e+00
 TN6aq  TX4v  1 3.400000e-01    2.280000e+00
 TN6aq  TX3v  1 3.400000e-01    2.020000e+00
 TN6aq  TX2v  1 3.400000e-01    1.770000e+00
 TN6aq  TX1v  1 3.400000e-01    1.510000e+00
 TN5aq  TC6v  1 3.400000e-01    2.280000e+00
 TN5aq  TC5v  1 3.400000e-01    2.020000e+00
 TN5aq  TC4v  1 3.400000e-01    1.770000e+00
 TN5aq  TC3v  1 3.400000e-01    1.770000e+00
 TN5aq  TC2v  1 3.400000e-01    1.510000e+00
 TN5aq  TC1v  1 3.400000e-01    1.230000e+00
 TN5aq  TX4v  1 3.400000e-01    2.500000e+00
 TN5aq  TX3v  1 3.400000e-01    2.280000e+00
 TN5aq  TX2v  1 3.400000e-01    2.020000e+00
 TN5aq  TX1v  1 3.400000e-01    1.770000e+00
 TN4aq  TC6v  1 3.400000e-01    2.280000e+00
 TN4aq  TC5v  1 3.400000e-01    2.020000e+00
 TN4aq  TC4v  1 3.400000e-01    2.020000e+00
 TN4aq  TC3v  1 3.400000e-01    1.770000e+00
 TN4aq  TC2v  1 3.400000e-01    1.510000e+00
 TN4aq  TC1v  1 3.400000e-01    1.230000e+00
 TN4aq  TX4v  1 3.400000e-01    2.740000e+00
 TN4aq  TX3v  1 3.400000e-01    2.500000e+00
 TN4aq  TX2v  1 3.400000e-01    2.020000e+00
 TN4aq  TX1v  1 3.400000e-01    1.770000e+00
 TN3aq  TC6v  1 3.400000e-01    2.280000e+00
 TN3aq  TC5v  1 3.400000e-01    2.020000e+00
 TN3aq  TC4v  1 3.400000e-01    2.020000e+00
 TN3aq  TC3v  1 3.400000e-01    1.770000e+00
 TN3aq  TC2v  1 3.400000e-01    1.770000e+00
 TN3aq  TC1v  1 3.400000e-01    1.510000e+00
 TN3aq  TX4v  1 3.400000e-01    2.500000e+00
 TN3aq  TX3v  1 3.400000e-01    2.280000e+00
 TN3aq  TX2v  1 3.400000e-01    2.020000e+00
 TN3aq  TX1v  1 3.400000e-01    2.020000e+00
 TN2aq  TC6v  1 3.400000e-01    2.280000e+00
 TN2aq  TC5v  1 3.400000e-01    2.020000e+00
 TN2aq  TC4v  1 3.400000e-01    2.020000e+00
 TN2aq  TC3v  1 3.400000e-01    2.020000e+00
 TN2aq  TC2v  1 3.400000e-01    1.770000e+00
 TN2aq  TC1v  1 3.400000e-01    1.510000e+00
 TN2aq  TX4v  1 3.400000e-01    2.500000e+00
 TN2aq  TX3v  1 3.400000e-01    2.280000e+00
 TN2aq  TX2v  1 3.400000e-01    2.020000e+00
 TN2aq  TX1v  1 3.400000e-01    2.020000e+00
 TN1aq  TC6v  1 3.400000e-01    2.500000e+00
 TN1aq  TC5v  1 3.400000e-01    2.280000e+00
 TN1aq  TC4v  1 3.400000e-01    2.280000e+00
 TN1aq  TC3v  1 3.400000e-01    2.020000e+00
 TN1aq  TC2v  1 3.400000e-01    1.770000e+00
 TN1aq  TC1v  1 3.400000e-01    1.510000e+00
 TN1aq  TX4v  1 3.400000e-01    2.280000e+00
 TN1aq  TX3v  1 3.400000e-01    2.280000e+00
 TN1aq  TX2v  1 3.400000e-01    2.020000e+00
 TN1aq  TX1v  1 3.400000e-01    2.020000e+00
 TP6aq TC6vq  1 3.400000e-01    1.510000e+00
 TP6aq TC5vq  1 3.400000e-01    1.230000e+00
 TP6aq TC4vq  1 3.520000e-01    1.050000e+00
 TP6aq TC3vq  1 3.660000e-01    9.350000e-01
 TP6aq TC2vq  1 3.660000e-01    9.350000e-01
 TP6aq TC1vq  1 4.110000e-01    8.010000e-01
 TP6aq TX4vq  1 3.400000e-01    1.770000e+00
 TP6aq TX3vq  1 3.400000e-01    1.770000e+00
 TP6aq TX2vq  1 3.400000e-01    1.510000e+00
 TP6aq TX1vq  1 3.400000e-01    1.230000e+00
 TP5aq TC6vq  1 3.400000e-01    1.510000e+00
 TP5aq TC5vq  1 3.400000e-01    1.510000e+00
 TP5aq TC4vq  1 3.400000e-01    1.230000e+00
 TP5aq TC3vq  1 3.520000e-01    1.050000e+00
 TP5aq TC2vq  1 3.520000e-01    1.050000e+00
 TP5aq TC1vq  1 3.660000e-01    9.350000e-01
 TP5aq TX4vq  1 3.400000e-01    2.020000e+00
 TP5aq TX3vq  1 3.400000e-01    1.770000e+00
 TP5aq TX2vq  1 3.400000e-01    1.770000e+00
 TP5aq TX1vq  1 3.400000e-01    1.230000e+00
 TP4aq TC6vq  1 3.400000e-01    1.770000e+00
 TP4aq TC5vq  1 3.400000e-01    1.510000e+00
 TP4aq TC4vq  1 3.400000e-01    1.230000e+00
 TP4aq TC3vq  1 3.520000e-01    1.050000e+00
 TP4aq TC2vq  1 3.520000e-01    1.050000e+00
 TP4aq TC1vq  1 3.660000e-01    9.350000e-01
 TP4aq TX4vq  1 3.400000e-01    2.020000e+00
 TP4aq TX3vq  1 3.400000e-01    1.770000e+00
 TP4aq TX2vq  1 3.400000e-01    1.770000e+00
 TP4aq TX1vq  1 3.400000e-01    1.510000e+00
 TP3aq TC6vq  1 3.400000e-01    2.020000e+00
 TP3aq TC5vq  1 3.400000e-01    1.770000e+00
 TP3aq TC4vq  1 3.400000e-01    1.510000e+00
 TP3aq TC3vq  1 3.520000e-01    1.050000e+00
 TP3aq TC2vq  1 3.520000e-01    1.050000e+00
 TP3aq TC1vq  1 3.660000e-01    9.350000e-01
 TP3aq TX4vq  1 3.400000e-01    2.020000e+00
 TP3aq TX3vq  1 3.400000e-01    2.020000e+00
 TP3aq TX2vq  1 3.400000e-01    1.770000e+00
 TP3aq TX1vq  1 3.400000e-01    1.510000e+00
 TP2aq TC6vq  1 3.400000e-01    2.020000e+00
 TP2aq TC5vq  1 3.400000e-01    1.770000e+00
 TP2aq TC4vq  1 3.400000e-01    1.510000e+00
 TP2aq TC3vq  1 3.400000e-01    1.230000e+00
 TP2aq TC2vq  1 3.400000e-01    1.230000e+00
 TP2aq TC1vq  1 3.520000e-01    1.050000e+00
 TP2aq TX4vq  1 3.400000e-01    2.020000e+00
 TP2aq TX3vq  1 3.400000e-01    2.020000e+00
 TP2aq TX2vq  1 3.400000e-01    1.770000e+00
 TP2aq TX1vq  1 3.400000e-01    1.510000e+00
 TP1aq TC6vq  1 3.400000e-01    2.020000e+00
 TP1aq TC5vq  1 3.400000e-01    1.770000e+00
 TP1aq TC4vq  1 3.400000e-01    1.510000e+00
 TP1aq TC3vq  1 3.400000e-01    1.230000e+00
 TP1aq TC2vq  1 3.400000e-01    1.230000e+00
 TP1aq TC1vq  1 3.520000e-01    1.050000e+00
 TP1aq TX4vq  1 3.400000e-01    2.020000e+00
 TP1aq TX3vq  1 3.400000e-01    2.020000e+00
 TP1aq TX2vq  1 3.400000e-01    1.770000e+00
 TP1aq TX1vq  1 3.400000e-01    1.510000e+00
 TN6aq TC6vq  1 3.400000e-01    2.280000e+00
 TN6aq TC5vq  1 3.400000e-01    2.020000e+00
 TN6aq TC4vq  1 3.400000e-01    1.770000e+00
 TN6aq TC3vq  1 3.400000e-01    1.510000e+00
 TN6aq TC2vq  1 3.400000e-01    1.510000e+00
 TN6aq TC1vq  1 3.400000e-01    1.230000e+00
 TN6aq TX4vq  1 3.400000e-01    2.280000e+00
 TN6aq TX3vq  1 3.400000e-01    2.020000e+00
 TN6aq TX2vq  1 3.400000e-01    1.770000e+00
 TN6aq TX1vq  1 3.400000e-01    1.510000e+00
 TN5aq TC6vq  1 3.400000e-01    2.280000e+00
 TN5aq TC5vq  1 3.400000e-01    2.020000e+00
 TN5aq TC4vq  1 3.400000e-01    1.770000e+00
 TN5aq TC3vq  1 3.400000e-01    1.770000e+00
 TN5aq TC2vq  1 3.400000e-01    1.510000e+00
 TN5aq TC1vq  1 3.400000e-01    1.230000e+00
 TN5aq TX4vq  1 3.400000e-01    2.500000e+00
 TN5aq TX3vq  1 3.400000e-01    2.280000e+00
 TN5aq TX2vq  1 3.400000e-01    2.020000e+00
 TN5aq TX1vq  1 3.400000e-01    1.770000e+00
 TN4aq TC6vq  1 3.400000e-01    2.280000e+00
 TN4aq TC5vq  1 3.400000e-01    2.020000e+00
 TN4aq TC4vq  1 3.400000e-01    2.020000e+00
 TN4aq TC3vq  1 3.400000e-01    1.770000e+00
 TN4aq TC2vq  1 3.400000e-01    1.510000e+00
 TN4aq TC1vq  1 3.400000e-01    1.230000e+00
 TN4aq TX4vq  1 3.400000e-01    2.740000e+00
 TN4aq TX3vq  1 3.400000e-01    2.500000e+00
 TN4aq TX2vq  1 3.400000e-01    2.020000e+00
 TN4aq TX1vq  1 3.400000e-01    1.770000e+00
 TN3aq TC6vq  1 3.400000e-01    2.280000e+00
 TN3aq TC5vq  1 3.400000e-01    2.020000e+00
 TN3aq TC4vq  1 3.400000e-01    2.020000e+00
 TN3aq TC3vq  1 3.400000e-01    1.770000e+00
 TN3aq TC2vq  1 3.400000e-01    1.770000e+00
 TN3aq TC1vq  1 3.400000e-01    1.510000e+00
 TN3aq TX4vq  1 3.400000e-01    2.500000e+00
 TN3aq TX3vq  1 3.400000e-01    2.280000e+00
 TN3aq TX2vq  1 3.400000e-01    2.020000e+00
 TN3aq TX1vq  1 3.400000e-01    2.020000e+00
 TN2aq TC6vq  1 3.400000e-01    2.280000e+00
 TN2aq TC5vq  1 3.400000e-01    2.020000e+00
 TN2aq TC4vq  1 3.400000e-01    2.020000e+00
 TN2aq TC3vq  1 3.400000e-01    2.020000e+00
 TN2aq TC2vq  1 3.400000e-01    1.770000e+00
 TN2aq TC1vq  1 3.400000e-01    1.510000e+00
 TN2aq TX4vq  1 3.400000e-01    2.500000e+00
 TN2aq TX3vq  1 3.400000e-01    2.280000e+00
 TN2aq TX2vq  1 3.400000e-01    2.020000e+00
 TN2aq TX1vq  1 3.400000e-01    2.020000e+00
 TN1aq TC6vq  1 3.400000e-01    2.500000e+00
 TN1aq TC5vq  1 3.400000e-01    2.280000e+00
 TN1aq TC4vq  1 3.400000e-01    2.280000e+00
 TN1aq TC3vq  1 3.400000e-01    2.020000e+00
 TN1aq TC2vq  1 3.400000e-01    1.770000e+00
 TN1aq TC1vq  1 3.400000e-01    1.510000e+00
 TN1aq TX4vq  1 3.400000e-01    2.280000e+00
 TN1aq TX3vq  1 3.400000e-01    2.280000e+00
 TN1aq TX2vq  1 3.400000e-01    2.020000e+00
 TN1aq TX1vq  1 3.400000e-01    2.020000e+00
 TP6aq TC6vh  1 3.400000e-01    1.510000e+00
 TP5aq TC6vh  1 3.400000e-01    1.510000e+00
 TP4aq TC6vh  1 3.400000e-01    1.770000e+00
 TP3aq TC6vh  1 3.400000e-01    2.020000e+00
 TP2aq TC6vh  1 3.400000e-01    2.020000e+00
 TP1aq TC6vh  1 3.400000e-01    2.020000e+00
 TN6aq TC6vh  1 3.400000e-01    2.280000e+00
 TN5aq TC6vh  1 3.400000e-01    2.280000e+00
 TN4aq TC6vh  1 3.400000e-01    2.280000e+00
 TN3aq TC6vh  1 3.400000e-01    2.280000e+00
 TN2aq TC6vh  1 3.400000e-01    2.280000e+00
 TN1aq TC6vh  1 3.400000e-01    2.500000e+00
 TP6aq TC5vh  1 3.400000e-01    1.230000e+00
 TP5aq TC5vh  1 3.400000e-01    1.510000e+00
 TP4aq TC5vh  1 3.400000e-01    1.510000e+00
 TP3aq TC5vh  1 3.400000e-01    1.770000e+00
 TP2aq TC5vh  1 3.400000e-01    1.770000e+00
 TP1aq TC5vh  1 3.400000e-01    1.770000e+00
 TN6aq TC5vh  1 3.400000e-01    2.020000e+00
 TN5aq TC5vh  1 3.400000e-01    2.020000e+00
 TN4aq TC5vh  1 3.400000e-01    2.020000e+00
 TN3aq TC5vh  1 3.400000e-01    2.020000e+00
 TN2aq TC5vh  1 3.400000e-01    2.020000e+00
 TN1aq TC5vh  1 3.400000e-01    2.280000e+00
 TP6aq TC4vh  1 3.520000e-01    1.050000e+00
 TP5aq TC4vh  1 3.400000e-01    1.230000e+00
 TP4aq TC4vh  1 3.400000e-01    1.230000e+00
 TP3aq TC4vh  1 3.400000e-01    1.510000e+00
 TP2aq TC4vh  1 3.400000e-01    1.510000e+00
 TP1aq TC4vh  1 3.400000e-01    1.510000e+00
 TN6aq TC4vh  1 3.400000e-01    1.770000e+00
 TN5aq TC4vh  1 3.400000e-01    1.770000e+00
 TN4aq TC4vh  1 3.400000e-01    2.020000e+00
 TN3aq TC4vh  1 3.400000e-01    2.020000e+00
 TN2aq TC4vh  1 3.400000e-01    2.020000e+00
 TN1aq TC4vh  1 3.400000e-01    2.280000e+00
 TP6aq TC3vh  1 3.660000e-01    9.350000e-01
 TP5aq TC3vh  1 3.520000e-01    1.050000e+00
 TP4aq TC3vh  1 3.520000e-01    1.050000e+00
 TP3aq TC3vh  1 3.520000e-01    1.050000e+00
 TP2aq TC3vh  1 3.400000e-01    1.230000e+00
 TP1aq TC3vh  1 3.400000e-01    1.230000e+00
 TN6aq TC3vh  1 3.400000e-01    1.510000e+00
 TN5aq TC3vh  1 3.400000e-01    1.770000e+00
 TN4aq TC3vh  1 3.400000e-01    1.770000e+00
 TN3aq TC3vh  1 3.400000e-01    1.770000e+00
 TN2aq TC3vh  1 3.400000e-01    2.020000e+00
 TN1aq TC3vh  1 3.400000e-01    2.020000e+00
 TP6aq TC2vh  1 3.660000e-01    9.350000e-01
 TP5aq TC2vh  1 3.520000e-01    1.050000e+00
 TP4aq TC2vh  1 3.520000e-01    1.050000e+00
 TP3aq TC2vh  1 3.520000e-01    1.050000e+00
 TP2aq TC2vh  1 3.400000e-01    1.230000e+00
 TP1aq TC2vh  1 3.400000e-01    1.230000e+00
 TN6aq TC2vh  1 3.400000e-01    1.510000e+00
 TN5aq TC2vh  1 3.400000e-01    1.510000e+00
 TN4aq TC2vh  1 3.400000e-01    1.510000e+00
 TN3aq TC2vh  1 3.400000e-01    1.770000e+00
 TN2aq TC2vh  1 3.400000e-01    1.770000e+00
 TN1aq TC2vh  1 3.400000e-01    1.770000e+00
 TP6aq TC1vh  1 4.110000e-01    8.010000e-01
 TP5aq TC1vh  1 3.660000e-01    9.350000e-01
 TP4aq TC1vh  1 3.660000e-01    9.350000e-01
 TP3aq TC1vh  1 3.660000e-01    9.350000e-01
 TP2aq TC1vh  1 3.520000e-01    1.050000e+00
 TP1aq TC1vh  1 3.520000e-01    1.050000e+00
 TN6aq TC1vh  1 3.400000e-01    1.230000e+00
 TN5aq TC1vh  1 3.400000e-01    1.230000e+00
 TN4aq TC1vh  1 3.400000e-01    1.230000e+00
 TN3aq TC1vh  1 3.400000e-01    1.510000e+00
 TN2aq TC1vh  1 3.400000e-01    1.510000e+00
 TN1aq TC1vh  1 3.400000e-01    1.510000e+00
 TP6aq TX4vh  1 3.400000e-01    1.770000e+00
 TP5aq TX4vh  1 3.400000e-01    2.020000e+00
 TP4aq TX4vh  1 3.400000e-01    2.020000e+00
 TP3aq TX4vh  1 3.400000e-01    2.020000e+00
 TP2aq TX4vh  1 3.400000e-01    2.020000e+00
 TP1aq TX4vh  1 3.400000e-01    2.020000e+00
 TN6aq TX4vh  1 3.400000e-01    2.280000e+00
 TN5aq TX4vh  1 3.400000e-01    2.500000e+00
 TN4aq TX4vh  1 3.400000e-01    2.740000e+00
 TN3aq TX4vh  1 3.400000e-01    2.500000e+00
 TN2aq TX4vh  1 3.400000e-01    2.500000e+00
 TN1aq TX4vh  1 3.400000e-01    2.280000e+00
 TP6aq TX3vh  1 3.400000e-01    1.770000e+00
 TP5aq TX3vh  1 3.400000e-01    1.770000e+00
 TP4aq TX3vh  1 3.400000e-01    1.770000e+00
 TP3aq TX3vh  1 3.400000e-01    2.020000e+00
 TP2aq TX3vh  1 3.400000e-01    2.020000e+00
 TP1aq TX3vh  1 3.400000e-01    2.020000e+00
 TN6aq TX3vh  1 3.400000e-01    2.020000e+00
 TN5aq TX3vh  1 3.400000e-01    2.280000e+00
 TN4aq TX3vh  1 3.400000e-01    2.500000e+00
 TN3aq TX3vh  1 3.400000e-01    2.280000e+00
 TN2aq TX3vh  1 3.400000e-01    2.280000e+00
 TN1aq TX3vh  1 3.400000e-01    2.280000e+00
 TP6aq TX2vh  1 3.400000e-01    1.510000e+00
 TP5aq TX2vh  1 3.400000e-01    1.770000e+00
 TP4aq TX2vh  1 3.400000e-01    1.770000e+00
 TP3aq TX2vh  1 3.400000e-01    1.770000e+00
 TP2aq TX2vh  1 3.400000e-01    1.770000e+00
 TP1aq TX2vh  1 3.400000e-01    1.770000e+00
 TN6aq TX2vh  1 3.400000e-01    1.770000e+00
 TN5aq TX2vh  1 3.400000e-01    2.020000e+00
 TN4aq TX2vh  1 3.400000e-01    2.020000e+00
 TN3aq TX2vh  1 3.400000e-01    2.020000e+00
 TN2aq TX2vh  1 3.400000e-01    2.020000e+00
 TN1aq TX2vh  1 3.400000e-01    2.020000e+00
 TP6aq TX1vh  1 3.400000e-01    1.230000e+00
 TP5aq TX1vh  1 3.400000e-01    1.230000e+00
 TP4aq TX1vh  1 3.400000e-01    1.510000e+00
 TP3aq TX1vh  1 3.400000e-01    1.510000e+00
 TP2aq TX1vh  1 3.400000e-01    1.510000e+00
 TP1aq TX1vh  1 3.400000e-01    1.510000e+00
 TN6aq TX1vh  1 3.400000e-01    1.510000e+00
 TN5aq TX1vh  1 3.400000e-01    1.770000e+00
 TN4aq TX1vh  1 3.400000e-01    1.770000e+00
 TN3aq TX1vh  1 3.400000e-01    2.020000e+00
 TN2aq TX1vh  1 3.400000e-01    2.020000e+00
 TN1aq TX1vh  1 3.400000e-01    2.020000e+00
 TP6aq TC6vr  1 3.400000e-01    1.510000e+00
 TP5aq TC6vr  1 3.400000e-01    1.510000e+00
 TP4aq TC6vr  1 3.400000e-01    1.770000e+00
 TP3aq TC6vr  1 3.400000e-01    2.020000e+00
 TP2aq TC6vr  1 3.400000e-01    2.020000e+00
 TP1aq TC6vr  1 3.400000e-01    2.020000e+00
 TN6aq TC6vr  1 3.400000e-01    2.280000e+00
 TN5aq TC6vr  1 3.400000e-01    2.280000e+00
 TN4aq TC6vr  1 3.400000e-01    2.280000e+00
 TN3aq TC6vr  1 3.400000e-01    2.280000e+00
 TN2aq TC6vr  1 3.400000e-01    2.280000e+00
 TN1aq TC6vr  1 3.400000e-01    2.500000e+00
 TP6aq TC5vr  1 3.400000e-01    1.230000e+00
 TP5aq TC5vr  1 3.400000e-01    1.510000e+00
 TP4aq TC5vr  1 3.400000e-01    1.510000e+00
 TP3aq TC5vr  1 3.400000e-01    1.770000e+00
 TP2aq TC5vr  1 3.400000e-01    1.770000e+00
 TP1aq TC5vr  1 3.400000e-01    1.770000e+00
 TN6aq TC5vr  1 3.400000e-01    2.020000e+00
 TN5aq TC5vr  1 3.400000e-01    2.020000e+00
 TN4aq TC5vr  1 3.400000e-01    2.020000e+00
 TN3aq TC5vr  1 3.400000e-01    2.020000e+00
 TN2aq TC5vr  1 3.400000e-01    2.020000e+00
 TN1aq TC5vr  1 3.400000e-01    2.280000e+00
 TP6aq TC4vr  1 3.520000e-01    1.050000e+00
 TP5aq TC4vr  1 3.400000e-01    1.230000e+00
 TP4aq TC4vr  1 3.400000e-01    1.230000e+00
 TP3aq TC4vr  1 3.400000e-01    1.510000e+00
 TP2aq TC4vr  1 3.400000e-01    1.510000e+00
 TP1aq TC4vr  1 3.400000e-01    1.510000e+00
 TN6aq TC4vr  1 3.400000e-01    1.770000e+00
 TN5aq TC4vr  1 3.400000e-01    1.770000e+00
 TN4aq TC4vr  1 3.400000e-01    2.020000e+00
 TN3aq TC4vr  1 3.400000e-01    2.020000e+00
 TN2aq TC4vr  1 3.400000e-01    2.020000e+00
 TN1aq TC4vr  1 3.400000e-01    2.280000e+00
 TP6aq TC3vr  1 3.660000e-01    9.350000e-01
 TP5aq TC3vr  1 3.520000e-01    1.050000e+00
 TP4aq TC3vr  1 3.520000e-01    1.050000e+00
 TP3aq TC3vr  1 3.520000e-01    1.050000e+00
 TP2aq TC3vr  1 3.400000e-01    1.230000e+00
 TP1aq TC3vr  1 3.400000e-01    1.230000e+00
 TN6aq TC3vr  1 3.400000e-01    1.510000e+00
 TN5aq TC3vr  1 3.400000e-01    1.770000e+00
 TN4aq TC3vr  1 3.400000e-01    1.770000e+00
 TN3aq TC3vr  1 3.400000e-01    1.770000e+00
 TN2aq TC3vr  1 3.400000e-01    2.020000e+00
 TN1aq TC3vr  1 3.400000e-01    2.020000e+00
 TP6aq TC2vr  1 3.660000e-01    9.350000e-01
 TP5aq TC2vr  1 3.520000e-01    1.050000e+00
 TP4aq TC2vr  1 3.520000e-01    1.050000e+00
 TP3aq TC2vr  1 3.520000e-01    1.050000e+00
 TP2aq TC2vr  1 3.400000e-01    1.230000e+00
 TP1aq TC2vr  1 3.400000e-01    1.230000e+00
 TN6aq TC2vr  1 3.400000e-01    1.510000e+00
 TN5aq TC2vr  1 3.400000e-01    1.510000e+00
 TN4aq TC2vr  1 3.400000e-01    1.510000e+00
 TN3aq TC2vr  1 3.400000e-01    1.770000e+00
 TN2aq TC2vr  1 3.400000e-01    1.770000e+00
 TN1aq TC2vr  1 3.400000e-01    1.770000e+00
 TP6aq TC1vr  1 4.110000e-01    8.010000e-01
 TP5aq TC1vr  1 3.660000e-01    9.350000e-01
 TP4aq TC1vr  1 3.660000e-01    9.350000e-01
 TP3aq TC1vr  1 3.660000e-01    9.350000e-01
 TP2aq TC1vr  1 3.520000e-01    1.050000e+00
 TP1aq TC1vr  1 3.520000e-01    1.050000e+00
 TN6aq TC1vr  1 3.400000e-01    1.230000e+00
 TN5aq TC1vr  1 3.400000e-01    1.230000e+00
 TN4aq TC1vr  1 3.400000e-01    1.230000e+00
 TN3aq TC1vr  1 3.400000e-01    1.510000e+00
 TN2aq TC1vr  1 3.400000e-01    1.510000e+00
 TN1aq TC1vr  1 3.400000e-01    1.510000e+00
 TP6aq TX4vr  1 3.400000e-01    1.770000e+00
 TP5aq TX4vr  1 3.400000e-01    2.020000e+00
 TP4aq TX4vr  1 3.400000e-01    2.020000e+00
 TP3aq TX4vr  1 3.400000e-01    2.020000e+00
 TP2aq TX4vr  1 3.400000e-01    2.020000e+00
 TP1aq TX4vr  1 3.400000e-01    2.020000e+00
 TN6aq TX4vr  1 3.400000e-01    2.280000e+00
 TN5aq TX4vr  1 3.400000e-01    2.500000e+00
 TN4aq TX4vr  1 3.400000e-01    2.740000e+00
 TN3aq TX4vr  1 3.400000e-01    2.500000e+00
 TN2aq TX4vr  1 3.400000e-01    2.500000e+00
 TN1aq TX4vr  1 3.400000e-01    2.280000e+00
 TP6aq TX3vr  1 3.400000e-01    1.770000e+00
 TP5aq TX3vr  1 3.400000e-01    1.770000e+00
 TP4aq TX3vr  1 3.400000e-01    1.770000e+00
 TP3aq TX3vr  1 3.400000e-01    2.020000e+00
 TP2aq TX3vr  1 3.400000e-01    2.020000e+00
 TP1aq TX3vr  1 3.400000e-01    2.020000e+00
 TN6aq TX3vr  1 3.400000e-01    2.020000e+00
 TN5aq TX3vr  1 3.400000e-01    2.280000e+00
 TN4aq TX3vr  1 3.400000e-01    2.500000e+00
 TN3aq TX3vr  1 3.400000e-01    2.280000e+00
 TN2aq TX3vr  1 3.400000e-01    2.280000e+00
 TN1aq TX3vr  1 3.400000e-01    2.280000e+00
 TP6aq TX2vr  1 3.400000e-01    1.510000e+00
 TP5aq TX2vr  1 3.400000e-01    1.770000e+00
 TP4aq TX2vr  1 3.400000e-01    1.770000e+00
 TP3aq TX2vr  1 3.400000e-01    1.770000e+00
 TP2aq TX2vr  1 3.400000e-01    1.770000e+00
 TP1aq TX2vr  1 3.400000e-01    1.770000e+00
 TN6aq TX2vr  1 3.400000e-01    1.770000e+00
 TN5aq TX2vr  1 3.400000e-01    2.020000e+00
 TN4aq TX2vr  1 3.400000e-01    2.020000e+00
 TN3aq TX2vr  1 3.400000e-01    2.020000e+00
 TN2aq TX2vr  1 3.400000e-01    2.020000e+00
 TN1aq TX2vr  1 3.400000e-01    2.020000e+00
 TP6aq TX1vr  1 3.400000e-01    1.230000e+00
 TP5aq TX1vr  1 3.400000e-01    1.230000e+00
 TP4aq TX1vr  1 3.400000e-01    1.510000e+00
 TP3aq TX1vr  1 3.400000e-01    1.510000e+00
 TP2aq TX1vr  1 3.400000e-01    1.510000e+00
 TP1aq TX1vr  1 3.400000e-01    1.510000e+00
 TN6aq TX1vr  1 3.400000e-01    1.510000e+00
 TN5aq TX1vr  1 3.400000e-01    1.770000e+00
 TN4aq TX1vr  1 3.400000e-01    1.770000e+00
 TN3aq TX1vr  1 3.400000e-01    2.020000e+00
 TN2aq TX1vr  1 3.400000e-01    2.020000e+00
 TN1aq TX1vr  1 3.400000e-01    2.020000e+00
 TP6ah  TC6v  1 3.520000e-01    1.050000e+00
 TP6ah  TC5v  1 3.660000e-01    9.350000e-01
 TP6ah  TC4v  1 3.850000e-01    8.550000e-01
 TP6ah  TC3v  1 4.110000e-01    8.010000e-01
 TP6ah  TC2v  1 4.110000e-01    8.010000e-01
 TP6ah  TC1v  1 4.380000e-01    7.310000e-01
 TP6ah  TX4v  1 3.400000e-01    1.230000e+00
 TP6ah  TX3v  1 3.400000e-01    1.230000e+00
 TP6ah  TX2v  1 3.520000e-01    1.050000e+00
 TP6ah  TX1v  1 3.660000e-01    9.350000e-01
 TP5ah  TC6v  1 3.520000e-01    1.050000e+00
 TP5ah  TC5v  1 3.520000e-01    1.050000e+00
 TP5ah  TC4v  1 3.660000e-01    9.350000e-01
 TP5ah  TC3v  1 3.850000e-01    8.550000e-01
 TP5ah  TC2v  1 3.850000e-01    8.550000e-01
 TP5ah  TC1v  1 4.110000e-01    8.010000e-01
 TP5ah  TX4v  1 3.400000e-01    1.510000e+00
 TP5ah  TX3v  1 3.400000e-01    1.230000e+00
 TP5ah  TX2v  1 3.400000e-01    1.230000e+00
 TP5ah  TX1v  1 3.660000e-01    9.350000e-01
 TP4ah  TC6v  1 3.400000e-01    1.230000e+00
 TP4ah  TC5v  1 3.520000e-01    1.050000e+00
 TP4ah  TC4v  1 3.660000e-01    9.350000e-01
 TP4ah  TC3v  1 3.850000e-01    8.550000e-01
 TP4ah  TC2v  1 3.850000e-01    8.550000e-01
 TP4ah  TC1v  1 4.110000e-01    8.010000e-01
 TP4ah  TX4v  1 3.400000e-01    1.510000e+00
 TP4ah  TX3v  1 3.400000e-01    1.230000e+00
 TP4ah  TX2v  1 3.400000e-01    1.230000e+00
 TP4ah  TX1v  1 3.520000e-01    1.050000e+00
 TP3ah  TC6v  1 3.400000e-01    1.510000e+00
 TP3ah  TC5v  1 3.400000e-01    1.230000e+00
 TP3ah  TC4v  1 3.520000e-01    1.050000e+00
 TP3ah  TC3v  1 3.850000e-01    8.550000e-01
 TP3ah  TC2v  1 3.850000e-01    8.550000e-01
 TP3ah  TC1v  1 4.110000e-01    8.010000e-01
 TP3ah  TX4v  1 3.400000e-01    1.510000e+00
 TP3ah  TX3v  1 3.400000e-01    1.510000e+00
 TP3ah  TX2v  1 3.400000e-01    1.230000e+00
 TP3ah  TX1v  1 3.520000e-01    1.050000e+00
 TP2ah  TC6v  1 3.400000e-01    1.510000e+00
 TP2ah  TC5v  1 3.400000e-01    1.230000e+00
 TP2ah  TC4v  1 3.520000e-01    1.050000e+00
 TP2ah  TC3v  1 3.660000e-01    9.350000e-01
 TP2ah  TC2v  1 3.660000e-01    9.350000e-01
 TP2ah  TC1v  1 3.850000e-01    8.550000e-01
 TP2ah  TX4v  1 3.400000e-01    1.510000e+00
 TP2ah  TX3v  1 3.400000e-01    1.510000e+00
 TP2ah  TX2v  1 3.400000e-01    1.230000e+00
 TP2ah  TX1v  1 3.520000e-01    1.050000e+00
 TP1ah  TC6v  1 3.400000e-01    1.510000e+00
 TP1ah  TC5v  1 3.400000e-01    1.230000e+00
 TP1ah  TC4v  1 3.520000e-01    1.050000e+00
 TP1ah  TC3v  1 3.660000e-01    9.350000e-01
 TP1ah  TC2v  1 3.660000e-01    9.350000e-01
 TP1ah  TC1v  1 3.850000e-01    8.550000e-01
 TP1ah  TX4v  1 3.400000e-01    1.510000e+00
 TP1ah  TX3v  1 3.400000e-01    1.510000e+00
 TP1ah  TX2v  1 3.400000e-01    1.230000e+00
 TP1ah  TX1v  1 3.520000e-01    1.050000e+00
 TN6ah  TC6v  1 3.400000e-01    1.770000e+00
 TN6ah  TC5v  1 3.400000e-01    1.510000e+00
 TN6ah  TC4v  1 3.400000e-01    1.230000e+00
 TN6ah  TC3v  1 3.520000e-01    1.050000e+00
 TN6ah  TC2v  1 3.520000e-01    1.050000e+00
 TN6ah  TC1v  1 3.660000e-01    9.350000e-01
 TN6ah  TX4v  1 3.400000e-01    1.770000e+00
 TN6ah  TX3v  1 3.400000e-01    1.510000e+00
 TN6ah  TX2v  1 3.400000e-01    1.230000e+00
 TN6ah  TX1v  1 3.520000e-01    1.050000e+00
 TN5ah  TC6v  1 3.400000e-01    1.770000e+00
 TN5ah  TC5v  1 3.400000e-01    1.510000e+00
 TN5ah  TC4v  1 3.400000e-01    1.230000e+00
 TN5ah  TC3v  1 3.400000e-01    1.230000e+00
 TN5ah  TC2v  1 3.520000e-01    1.050000e+00
 TN5ah  TC1v  1 3.660000e-01    9.350000e-01
 TN5ah  TX4v  1 3.400000e-01    2.020000e+00
 TN5ah  TX3v  1 3.400000e-01    1.770000e+00
 TN5ah  TX2v  1 3.400000e-01    1.510000e+00
 TN5ah  TX1v  1 3.400000e-01    1.230000e+00
 TN4ah  TC6v  1 3.400000e-01    1.770000e+00
 TN4ah  TC5v  1 3.400000e-01    1.510000e+00
 TN4ah  TC4v  1 3.400000e-01    1.510000e+00
 TN4ah  TC3v  1 3.400000e-01    1.230000e+00
 TN4ah  TC2v  1 3.520000e-01    1.050000e+00
 TN4ah  TC1v  1 3.660000e-01    9.350000e-01
 TN4ah  TX4v  1 3.400000e-01    2.280000e+00
 TN4ah  TX3v  1 3.400000e-01    2.020000e+00
 TN4ah  TX2v  1 3.400000e-01    1.510000e+00
 TN4ah  TX1v  1 3.400000e-01    1.230000e+00
 TN3ah  TC6v  1 3.400000e-01    1.770000e+00
 TN3ah  TC5v  1 3.400000e-01    1.510000e+00
 TN3ah  TC4v  1 3.400000e-01    1.510000e+00
 TN3ah  TC3v  1 3.400000e-01    1.230000e+00
 TN3ah  TC2v  1 3.400000e-01    1.230000e+00
 TN3ah  TC1v  1 3.520000e-01    1.050000e+00
 TN3ah  TX4v  1 3.400000e-01    2.020000e+00
 TN3ah  TX3v  1 3.400000e-01    1.770000e+00
 TN3ah  TX2v  1 3.400000e-01    1.510000e+00
 TN3ah  TX1v  1 3.400000e-01    1.510000e+00
 TN2ah  TC6v  1 3.400000e-01    1.770000e+00
 TN2ah  TC5v  1 3.400000e-01    1.510000e+00
 TN2ah  TC4v  1 3.400000e-01    1.510000e+00
 TN2ah  TC3v  1 3.400000e-01    1.510000e+00
 TN2ah  TC2v  1 3.400000e-01    1.230000e+00
 TN2ah  TC1v  1 3.520000e-01    1.050000e+00
 TN2ah  TX4v  1 3.400000e-01    2.020000e+00
 TN2ah  TX3v  1 3.400000e-01    1.770000e+00
 TN2ah  TX2v  1 3.400000e-01    1.510000e+00
 TN2ah  TX1v  1 3.400000e-01    1.510000e+00
 TN1ah  TC6v  1 3.400000e-01    2.020000e+00
 TN1ah  TC5v  1 3.400000e-01    1.770000e+00
 TN1ah  TC4v  1 3.400000e-01    1.770000e+00
 TN1ah  TC3v  1 3.400000e-01    1.510000e+00
 TN1ah  TC2v  1 3.400000e-01    1.230000e+00
 TN1ah  TC1v  1 3.520000e-01    1.050000e+00
 TN1ah  TX4v  1 3.400000e-01    1.770000e+00
 TN1ah  TX3v  1 3.400000e-01    1.770000e+00
 TN1ah  TX2v  1 3.400000e-01    1.510000e+00
 TN1ah  TX1v  1 3.400000e-01    1.510000e+00
 TP6ah TX1vq  1 3.400000e-01    1.230000e+00
 TP6ah TX2vq  1 3.400000e-01    1.510000e+00
 TP6ah TX3vq  1 3.400000e-01    1.770000e+00
 TP6ah TX4vq  1 3.400000e-01    1.770000e+00
 TP6ah TC1vq  1 4.110000e-01    8.010000e-01
 TP6ah TC2vq  1 3.660000e-01    9.350000e-01
 TP6ah TC3vq  1 3.660000e-01    9.350000e-01
 TP6ah TC4vq  1 3.520000e-01    1.050000e+00
 TP6ah TC5vq  1 3.400000e-01    1.230000e+00
 TP6ah TC6vq  1 3.400000e-01    1.510000e+00
 TP5ah TX1vq  1 3.400000e-01    1.230000e+00
 TP5ah TX2vq  1 3.400000e-01    1.770000e+00
 TP5ah TX3vq  1 3.400000e-01    1.770000e+00
 TP5ah TX4vq  1 3.400000e-01    2.020000e+00
 TP5ah TC1vq  1 3.660000e-01    9.350000e-01
 TP5ah TC2vq  1 3.520000e-01    1.050000e+00
 TP5ah TC3vq  1 3.520000e-01    1.050000e+00
 TP5ah TC4vq  1 3.400000e-01    1.230000e+00
 TP5ah TC5vq  1 3.400000e-01    1.510000e+00
 TP5ah TC6vq  1 3.400000e-01    1.510000e+00
 TP4ah TX1vq  1 3.400000e-01    1.510000e+00
 TP4ah TX2vq  1 3.400000e-01    1.770000e+00
 TP4ah TX3vq  1 3.400000e-01    1.770000e+00
 TP4ah TX4vq  1 3.400000e-01    2.020000e+00
 TP4ah TC1vq  1 3.660000e-01    9.350000e-01
 TP4ah TC2vq  1 3.520000e-01    1.050000e+00
 TP4ah TC3vq  1 3.520000e-01    1.050000e+00
 TP4ah TC4vq  1 3.400000e-01    1.230000e+00
 TP4ah TC5vq  1 3.400000e-01    1.510000e+00
 TP4ah TC6vq  1 3.400000e-01    1.770000e+00
 TP3ah TX1vq  1 3.400000e-01    1.510000e+00
 TP3ah TX2vq  1 3.400000e-01    1.770000e+00
 TP3ah TX3vq  1 3.400000e-01    2.020000e+00
 TP3ah TX4vq  1 3.400000e-01    2.020000e+00
 TP3ah TC1vq  1 3.660000e-01    9.350000e-01
 TP3ah TC2vq  1 3.520000e-01    1.050000e+00
 TP3ah TC3vq  1 3.520000e-01    1.050000e+00
 TP3ah TC4vq  1 3.400000e-01    1.510000e+00
 TP3ah TC5vq  1 3.400000e-01    1.770000e+00
 TP3ah TC6vq  1 3.400000e-01    2.020000e+00
 TP2ah TX1vq  1 3.400000e-01    1.510000e+00
 TP2ah TX2vq  1 3.400000e-01    1.770000e+00
 TP2ah TX3vq  1 3.400000e-01    2.020000e+00
 TP2ah TX4vq  1 3.400000e-01    2.020000e+00
 TP2ah TC1vq  1 3.520000e-01    1.050000e+00
 TP2ah TC2vq  1 3.400000e-01    1.230000e+00
 TP2ah TC3vq  1 3.400000e-01    1.230000e+00
 TP2ah TC4vq  1 3.400000e-01    1.510000e+00
 TP2ah TC5vq  1 3.400000e-01    1.770000e+00
 TP2ah TC6vq  1 3.400000e-01    2.020000e+00
 TP1ah TX1vq  1 3.400000e-01    1.510000e+00
 TP1ah TX2vq  1 3.400000e-01    1.770000e+00
 TP1ah TX3vq  1 3.400000e-01    2.020000e+00
 TP1ah TX4vq  1 3.400000e-01    2.020000e+00
 TP1ah TC1vq  1 3.520000e-01    1.050000e+00
 TP1ah TC2vq  1 3.400000e-01    1.230000e+00
 TP1ah TC3vq  1 3.400000e-01    1.230000e+00
 TP1ah TC4vq  1 3.400000e-01    1.510000e+00
 TP1ah TC5vq  1 3.400000e-01    1.770000e+00
 TP1ah TC6vq  1 3.400000e-01    2.020000e+00
 TN6ah TX1vq  1 3.400000e-01    1.510000e+00
 TN6ah TX2vq  1 3.400000e-01    1.770000e+00
 TN6ah TX3vq  1 3.400000e-01    2.020000e+00
 TN6ah TX4vq  1 3.400000e-01    2.280000e+00
 TN6ah TC1vq  1 3.400000e-01    1.230000e+00
 TN6ah TC2vq  1 3.400000e-01    1.510000e+00
 TN6ah TC3vq  1 3.400000e-01    1.510000e+00
 TN6ah TC4vq  1 3.400000e-01    1.770000e+00
 TN6ah TC5vq  1 3.400000e-01    2.020000e+00
 TN6ah TC6vq  1 3.400000e-01    2.280000e+00
 TN5ah TX1vq  1 3.400000e-01    1.770000e+00
 TN5ah TX2vq  1 3.400000e-01    2.020000e+00
 TN5ah TX3vq  1 3.400000e-01    2.280000e+00
 TN5ah TX4vq  1 3.400000e-01    2.500000e+00
 TN5ah TC1vq  1 3.400000e-01    1.230000e+00
 TN5ah TC2vq  1 3.400000e-01    1.510000e+00
 TN5ah TC3vq  1 3.400000e-01    1.770000e+00
 TN5ah TC4vq  1 3.400000e-01    1.770000e+00
 TN5ah TC5vq  1 3.400000e-01    2.020000e+00
 TN5ah TC6vq  1 3.400000e-01    2.280000e+00
 TN4ah TX1vq  1 3.400000e-01    1.770000e+00
 TN4ah TX2vq  1 3.400000e-01    2.020000e+00
 TN4ah TX3vq  1 3.400000e-01    2.500000e+00
 TN4ah TX4vq  1 3.400000e-01    2.740000e+00
 TN4ah TC1vq  1 3.400000e-01    1.230000e+00
 TN4ah TC2vq  1 3.400000e-01    1.510000e+00
 TN4ah TC3vq  1 3.400000e-01    1.770000e+00
 TN4ah TC4vq  1 3.400000e-01    2.020000e+00
 TN4ah TC5vq  1 3.400000e-01    2.020000e+00
 TN4ah TC6vq  1 3.400000e-01    2.280000e+00
 TN3ah TX1vq  1 3.400000e-01    2.020000e+00
 TN3ah TX2vq  1 3.400000e-01    2.020000e+00
 TN3ah TX3vq  1 3.400000e-01    2.280000e+00
 TN3ah TX4vq  1 3.400000e-01    2.500000e+00
 TN3ah TC1vq  1 3.400000e-01    1.510000e+00
 TN3ah TC2vq  1 3.400000e-01    1.770000e+00
 TN3ah TC3vq  1 3.400000e-01    1.770000e+00
 TN3ah TC4vq  1 3.400000e-01    2.020000e+00
 TN3ah TC5vq  1 3.400000e-01    2.020000e+00
 TN3ah TC6vq  1 3.400000e-01    2.280000e+00
 TN2ah TX1vq  1 3.400000e-01    2.020000e+00
 TN2ah TX2vq  1 3.400000e-01    2.020000e+00
 TN2ah TX3vq  1 3.400000e-01    2.280000e+00
 TN2ah TX4vq  1 3.400000e-01    2.500000e+00
 TN2ah TC1vq  1 3.400000e-01    1.510000e+00
 TN2ah TC2vq  1 3.400000e-01    1.770000e+00
 TN2ah TC3vq  1 3.400000e-01    2.020000e+00
 TN2ah TC4vq  1 3.400000e-01    2.020000e+00
 TN2ah TC5vq  1 3.400000e-01    2.020000e+00
 TN2ah TC6vq  1 3.400000e-01    2.280000e+00
 TN1ah TX1vq  1 3.400000e-01    2.020000e+00
 TN1ah TX2vq  1 3.400000e-01    2.020000e+00
 TN1ah TX3vq  1 3.400000e-01    2.280000e+00
 TN1ah TX4vq  1 3.400000e-01    2.280000e+00
 TN1ah TC1vq  1 3.400000e-01    1.510000e+00
 TN1ah TC2vq  1 3.400000e-01    1.770000e+00
 TN1ah TC3vq  1 3.400000e-01    2.020000e+00
 TN1ah TC4vq  1 3.400000e-01    2.280000e+00
 TN1ah TC5vq  1 3.400000e-01    2.280000e+00
 TN1ah TC6vq  1 3.400000e-01    2.500000e+00
 TP6ah TC6vh  1 3.520000e-01    1.050000e+00
 TP6ah TC5vh  1 3.660000e-01    9.350000e-01
 TP6ah TC4vh  1 3.850000e-01    8.550000e-01
 TP6ah TC3vh  1 4.110000e-01    8.010000e-01
 TP6ah TC2vh  1 4.110000e-01    8.010000e-01
 TP6ah TC1vh  1 4.380000e-01    7.310000e-01
 TP6ah TX4vh  1 3.400000e-01    1.230000e+00
 TP6ah TX3vh  1 3.400000e-01    1.230000e+00
 TP6ah TX2vh  1 3.520000e-01    1.050000e+00
 TP6ah TX1vh  1 3.660000e-01    9.350000e-01
 TP5ah TC6vh  1 3.520000e-01    1.050000e+00
 TP5ah TC5vh  1 3.520000e-01    1.050000e+00
 TP5ah TC4vh  1 3.660000e-01    9.350000e-01
 TP5ah TC3vh  1 3.850000e-01    8.550000e-01
 TP5ah TC2vh  1 3.850000e-01    8.550000e-01
 TP5ah TC1vh  1 4.110000e-01    8.010000e-01
 TP5ah TX4vh  1 3.400000e-01    1.510000e+00
 TP5ah TX3vh  1 3.400000e-01    1.230000e+00
 TP5ah TX2vh  1 3.400000e-01    1.230000e+00
 TP5ah TX1vh  1 3.660000e-01    9.350000e-01
 TP4ah TC6vh  1 3.400000e-01    1.230000e+00
 TP4ah TC5vh  1 3.520000e-01    1.050000e+00
 TP4ah TC4vh  1 3.660000e-01    9.350000e-01
 TP4ah TC3vh  1 3.850000e-01    8.550000e-01
 TP4ah TC2vh  1 3.850000e-01    8.550000e-01
 TP4ah TC1vh  1 4.110000e-01    8.010000e-01
 TP4ah TX4vh  1 3.400000e-01    1.510000e+00
 TP4ah TX3vh  1 3.400000e-01    1.230000e+00
 TP4ah TX2vh  1 3.400000e-01    1.230000e+00
 TP4ah TX1vh  1 3.520000e-01    1.050000e+00
 TP3ah TC6vh  1 3.400000e-01    1.510000e+00
 TP3ah TC5vh  1 3.400000e-01    1.230000e+00
 TP3ah TC4vh  1 3.520000e-01    1.050000e+00
 TP3ah TC3vh  1 3.850000e-01    8.550000e-01
 TP3ah TC2vh  1 3.850000e-01    8.550000e-01
 TP3ah TC1vh  1 4.110000e-01    8.010000e-01
 TP3ah TX4vh  1 3.400000e-01    1.510000e+00
 TP3ah TX3vh  1 3.400000e-01    1.510000e+00
 TP3ah TX2vh  1 3.400000e-01    1.230000e+00
 TP3ah TX1vh  1 3.520000e-01    1.050000e+00
 TP2ah TC6vh  1 3.400000e-01    1.510000e+00
 TP2ah TC5vh  1 3.400000e-01    1.230000e+00
 TP2ah TC4vh  1 3.520000e-01    1.050000e+00
 TP2ah TC3vh  1 3.660000e-01    9.350000e-01
 TP2ah TC2vh  1 3.660000e-01    9.350000e-01
 TP2ah TC1vh  1 3.850000e-01    8.550000e-01
 TP2ah TX4vh  1 3.400000e-01    1.510000e+00
 TP2ah TX3vh  1 3.400000e-01    1.510000e+00
 TP2ah TX2vh  1 3.400000e-01    1.230000e+00
 TP2ah TX1vh  1 3.520000e-01    1.050000e+00
 TP1ah TC6vh  1 3.400000e-01    1.510000e+00
 TP1ah TC5vh  1 3.400000e-01    1.230000e+00
 TP1ah TC4vh  1 3.520000e-01    1.050000e+00
 TP1ah TC3vh  1 3.660000e-01    9.350000e-01
 TP1ah TC2vh  1 3.660000e-01    9.350000e-01
 TP1ah TC1vh  1 3.850000e-01    8.550000e-01
 TP1ah TX4vh  1 3.400000e-01    1.510000e+00
 TP1ah TX3vh  1 3.400000e-01    1.510000e+00
 TP1ah TX2vh  1 3.400000e-01    1.230000e+00
 TP1ah TX1vh  1 3.520000e-01    1.050000e+00
 TN6ah TC6vh  1 3.400000e-01    1.770000e+00
 TN6ah TC5vh  1 3.400000e-01    1.510000e+00
 TN6ah TC4vh  1 3.400000e-01    1.230000e+00
 TN6ah TC3vh  1 3.520000e-01    1.050000e+00
 TN6ah TC2vh  1 3.520000e-01    1.050000e+00
 TN6ah TC1vh  1 3.660000e-01    9.350000e-01
 TN6ah TX4vh  1 3.400000e-01    1.770000e+00
 TN6ah TX3vh  1 3.400000e-01    1.510000e+00
 TN6ah TX2vh  1 3.400000e-01    1.230000e+00
 TN6ah TX1vh  1 3.520000e-01    1.050000e+00
 TN5ah TC6vh  1 3.400000e-01    1.770000e+00
 TN5ah TC5vh  1 3.400000e-01    1.510000e+00
 TN5ah TC4vh  1 3.400000e-01    1.230000e+00
 TN5ah TC3vh  1 3.400000e-01    1.230000e+00
 TN5ah TC2vh  1 3.520000e-01    1.050000e+00
 TN5ah TC1vh  1 3.660000e-01    9.350000e-01
 TN5ah TX4vh  1 3.400000e-01    2.020000e+00
 TN5ah TX3vh  1 3.400000e-01    1.770000e+00
 TN5ah TX2vh  1 3.400000e-01    1.510000e+00
 TN5ah TX1vh  1 3.400000e-01    1.230000e+00
 TN4ah TC6vh  1 3.400000e-01    1.770000e+00
 TN4ah TC5vh  1 3.400000e-01    1.510000e+00
 TN4ah TC4vh  1 3.400000e-01    1.510000e+00
 TN4ah TC3vh  1 3.400000e-01    1.230000e+00
 TN4ah TC2vh  1 3.520000e-01    1.050000e+00
 TN4ah TC1vh  1 3.660000e-01    9.350000e-01
 TN4ah TX4vh  1 3.400000e-01    2.280000e+00
 TN4ah TX3vh  1 3.400000e-01    2.020000e+00
 TN4ah TX2vh  1 3.400000e-01    1.510000e+00
 TN4ah TX1vh  1 3.400000e-01    1.230000e+00
 TN3ah TC6vh  1 3.400000e-01    1.770000e+00
 TN3ah TC5vh  1 3.400000e-01    1.510000e+00
 TN3ah TC4vh  1 3.400000e-01    1.510000e+00
 TN3ah TC3vh  1 3.400000e-01    1.230000e+00
 TN3ah TC2vh  1 3.400000e-01    1.230000e+00
 TN3ah TC1vh  1 3.520000e-01    1.050000e+00
 TN3ah TX4vh  1 3.400000e-01    2.020000e+00
 TN3ah TX3vh  1 3.400000e-01    1.770000e+00
 TN3ah TX2vh  1 3.400000e-01    1.510000e+00
 TN3ah TX1vh  1 3.400000e-01    1.510000e+00
 TN2ah TC6vh  1 3.400000e-01    1.770000e+00
 TN2ah TC5vh  1 3.400000e-01    1.510000e+00
 TN2ah TC4vh  1 3.400000e-01    1.510000e+00
 TN2ah TC3vh  1 3.400000e-01    1.510000e+00
 TN2ah TC2vh  1 3.400000e-01    1.230000e+00
 TN2ah TC1vh  1 3.520000e-01    1.050000e+00
 TN2ah TX4vh  1 3.400000e-01    2.020000e+00
 TN2ah TX3vh  1 3.400000e-01    1.770000e+00
 TN2ah TX2vh  1 3.400000e-01    1.510000e+00
 TN2ah TX1vh  1 3.400000e-01    1.510000e+00
 TN1ah TC6vh  1 3.400000e-01    2.020000e+00
 TN1ah TC5vh  1 3.400000e-01    1.770000e+00
 TN1ah TC4vh  1 3.400000e-01    1.770000e+00
 TN1ah TC3vh  1 3.400000e-01    1.510000e+00
 TN1ah TC2vh  1 3.400000e-01    1.230000e+00
 TN1ah TC1vh  1 3.520000e-01    1.050000e+00
 TN1ah TX4vh  1 3.400000e-01    1.770000e+00
 TN1ah TX3vh  1 3.400000e-01    1.770000e+00
 TN1ah TX2vh  1 3.400000e-01    1.510000e+00
 TN1ah TX1vh  1 3.400000e-01    1.510000e+00
 TP6ah TC6vr  1 3.520000e-01    1.050000e+00
 TP6ah TC5vr  1 3.660000e-01    9.350000e-01
 TP6ah TC4vr  1 3.850000e-01    8.550000e-01
 TP6ah TC3vr  1 4.110000e-01    8.010000e-01
 TP6ah TC2vr  1 4.110000e-01    8.010000e-01
 TP6ah TC1vr  1 4.380000e-01    7.310000e-01
 TP6ah TX4vr  1 3.400000e-01    1.230000e+00
 TP6ah TX3vr  1 3.400000e-01    1.230000e+00
 TP6ah TX2vr  1 3.520000e-01    1.050000e+00
 TP6ah TX1vr  1 3.660000e-01    9.350000e-01
 TP5ah TC6vr  1 3.520000e-01    1.050000e+00
 TP5ah TC5vr  1 3.520000e-01    1.050000e+00
 TP5ah TC4vr  1 3.660000e-01    9.350000e-01
 TP5ah TC3vr  1 3.850000e-01    8.550000e-01
 TP5ah TC2vr  1 3.850000e-01    8.550000e-01
 TP5ah TC1vr  1 4.110000e-01    8.010000e-01
 TP5ah TX4vr  1 3.400000e-01    1.510000e+00
 TP5ah TX3vr  1 3.400000e-01    1.230000e+00
 TP5ah TX2vr  1 3.400000e-01    1.230000e+00
 TP5ah TX1vr  1 3.660000e-01    9.350000e-01
 TP4ah TC6vr  1 3.400000e-01    1.230000e+00
 TP4ah TC5vr  1 3.520000e-01    1.050000e+00
 TP4ah TC4vr  1 3.660000e-01    9.350000e-01
 TP4ah TC3vr  1 3.850000e-01    8.550000e-01
 TP4ah TC2vr  1 3.850000e-01    8.550000e-01
 TP4ah TC1vr  1 4.110000e-01    8.010000e-01
 TP4ah TX4vr  1 3.400000e-01    1.510000e+00
 TP4ah TX3vr  1 3.400000e-01    1.230000e+00
 TP4ah TX2vr  1 3.400000e-01    1.230000e+00
 TP4ah TX1vr  1 3.520000e-01    1.050000e+00
 TP3ah TC6vr  1 3.400000e-01    1.510000e+00
 TP3ah TC5vr  1 3.400000e-01    1.230000e+00
 TP3ah TC4vr  1 3.520000e-01    1.050000e+00
 TP3ah TC3vr  1 3.850000e-01    8.550000e-01
 TP3ah TC2vr  1 3.850000e-01    8.550000e-01
 TP3ah TC1vr  1 4.110000e-01    8.010000e-01
 TP3ah TX4vr  1 3.400000e-01    1.510000e+00
 TP3ah TX3vr  1 3.400000e-01    1.510000e+00
 TP3ah TX2vr  1 3.400000e-01    1.230000e+00
 TP3ah TX1vr  1 3.520000e-01    1.050000e+00
 TP2ah TC6vr  1 3.400000e-01    1.510000e+00
 TP2ah TC5vr  1 3.400000e-01    1.230000e+00
 TP2ah TC4vr  1 3.520000e-01    1.050000e+00
 TP2ah TC3vr  1 3.660000e-01    9.350000e-01
 TP2ah TC2vr  1 3.660000e-01    9.350000e-01
 TP2ah TC1vr  1 3.850000e-01    8.550000e-01
 TP2ah TX4vr  1 3.400000e-01    1.510000e+00
 TP2ah TX3vr  1 3.400000e-01    1.510000e+00
 TP2ah TX2vr  1 3.400000e-01    1.230000e+00
 TP2ah TX1vr  1 3.520000e-01    1.050000e+00
 TP1ah TC6vr  1 3.400000e-01    1.510000e+00
 TP1ah TC5vr  1 3.400000e-01    1.230000e+00
 TP1ah TC4vr  1 3.520000e-01    1.050000e+00
 TP1ah TC3vr  1 3.660000e-01    9.350000e-01
 TP1ah TC2vr  1 3.660000e-01    9.350000e-01
 TP1ah TC1vr  1 3.850000e-01    8.550000e-01
 TP1ah TX4vr  1 3.400000e-01    1.510000e+00
 TP1ah TX3vr  1 3.400000e-01    1.510000e+00
 TP1ah TX2vr  1 3.400000e-01    1.230000e+00
 TP1ah TX1vr  1 3.520000e-01    1.050000e+00
 TN6ah TC6vr  1 3.400000e-01    1.770000e+00
 TN6ah TC5vr  1 3.400000e-01    1.510000e+00
 TN6ah TC4vr  1 3.400000e-01    1.230000e+00
 TN6ah TC3vr  1 3.520000e-01    1.050000e+00
 TN6ah TC2vr  1 3.520000e-01    1.050000e+00
 TN6ah TC1vr  1 3.660000e-01    9.350000e-01
 TN6ah TX4vr  1 3.400000e-01    1.770000e+00
 TN6ah TX3vr  1 3.400000e-01    1.510000e+00
 TN6ah TX2vr  1 3.400000e-01    1.230000e+00
 TN6ah TX1vr  1 3.520000e-01    1.050000e+00
 TN5ah TC6vr  1 3.400000e-01    1.770000e+00
 TN5ah TC5vr  1 3.400000e-01    1.510000e+00
 TN5ah TC4vr  1 3.400000e-01    1.230000e+00
 TN5ah TC3vr  1 3.400000e-01    1.230000e+00
 TN5ah TC2vr  1 3.520000e-01    1.050000e+00
 TN5ah TC1vr  1 3.660000e-01    9.350000e-01
 TN5ah TX4vr  1 3.400000e-01    2.020000e+00
 TN5ah TX3vr  1 3.400000e-01    1.770000e+00
 TN5ah TX2vr  1 3.400000e-01    1.510000e+00
 TN5ah TX1vr  1 3.400000e-01    1.230000e+00
 TN4ah TC6vr  1 3.400000e-01    1.770000e+00
 TN4ah TC5vr  1 3.400000e-01    1.510000e+00
 TN4ah TC4vr  1 3.400000e-01    1.510000e+00
 TN4ah TC3vr  1 3.400000e-01    1.230000e+00
 TN4ah TC2vr  1 3.520000e-01    1.050000e+00
 TN4ah TC1vr  1 3.660000e-01    9.350000e-01
 TN4ah TX4vr  1 3.400000e-01    2.280000e+00
 TN4ah TX3vr  1 3.400000e-01    2.020000e+00
 TN4ah TX2vr  1 3.400000e-01    1.510000e+00
 TN4ah TX1vr  1 3.400000e-01    1.230000e+00
 TN3ah TC6vr  1 3.400000e-01    1.770000e+00
 TN3ah TC5vr  1 3.400000e-01    1.510000e+00
 TN3ah TC4vr  1 3.400000e-01    1.510000e+00
 TN3ah TC3vr  1 3.400000e-01    1.230000e+00
 TN3ah TC2vr  1 3.400000e-01    1.230000e+00
 TN3ah TC1vr  1 3.520000e-01    1.050000e+00
 TN3ah TX4vr  1 3.400000e-01    2.020000e+00
 TN3ah TX3vr  1 3.400000e-01    1.770000e+00
 TN3ah TX2vr  1 3.400000e-01    1.510000e+00
 TN3ah TX1vr  1 3.400000e-01    1.510000e+00
 TN2ah TC6vr  1 3.400000e-01    1.770000e+00
 TN2ah TC5vr  1 3.400000e-01    1.510000e+00
 TN2ah TC4vr  1 3.400000e-01    1.510000e+00
 TN2ah TC3vr  1 3.400000e-01    1.510000e+00
 TN2ah TC2vr  1 3.400000e-01    1.230000e+00
 TN2ah TC1vr  1 3.520000e-01    1.050000e+00
 TN2ah TX4vr  1 3.400000e-01    2.020000e+00
 TN2ah TX3vr  1 3.400000e-01    1.770000e+00
 TN2ah TX2vr  1 3.400000e-01    1.510000e+00
 TN2ah TX1vr  1 3.400000e-01    1.510000e+00
 TN1ah TC6vr  1 3.400000e-01    2.020000e+00
 TN1ah TC5vr  1 3.400000e-01    1.770000e+00
 TN1ah TC4vr  1 3.400000e-01    1.770000e+00
 TN1ah TC3vr  1 3.400000e-01    1.510000e+00
 TN1ah TC2vr  1 3.400000e-01    1.230000e+00
 TN1ah TC1vr  1 3.520000e-01    1.050000e+00
 TN1ah TX4vr  1 3.400000e-01    1.770000e+00
 TN1ah TX3vr  1 3.400000e-01    1.770000e+00
 TN1ah TX2vr  1 3.400000e-01    1.510000e+00
 TN1ah TX1vr  1 3.400000e-01    1.510000e+00
 TP6ar  TC6v  1 3.520000e-01    1.050000e+00
 TP6ar  TC5v  1 3.660000e-01    9.350000e-01
 TP6ar  TC4v  1 3.850000e-01    8.550000e-01
 TP6ar  TC3v  1 4.110000e-01    8.010000e-01
 TP6ar  TC2v  1 4.110000e-01    8.010000e-01
 TP6ar  TC1v  1 4.380000e-01    7.310000e-01
 TP6ar  TX4v  1 3.400000e-01    1.230000e+00
 TP6ar  TX3v  1 3.400000e-01    1.230000e+00
 TP6ar  TX2v  1 3.520000e-01    1.050000e+00
 TP6ar  TX1v  1 3.660000e-01    9.350000e-01
 TP5ar  TC6v  1 3.520000e-01    1.050000e+00
 TP5ar  TC5v  1 3.520000e-01    1.050000e+00
 TP5ar  TC4v  1 3.660000e-01    9.350000e-01
 TP5ar  TC3v  1 3.850000e-01    8.550000e-01
 TP5ar  TC2v  1 3.850000e-01    8.550000e-01
 TP5ar  TC1v  1 4.110000e-01    8.010000e-01
 TP5ar  TX4v  1 3.400000e-01    1.510000e+00
 TP5ar  TX3v  1 3.400000e-01    1.230000e+00
 TP5ar  TX2v  1 3.400000e-01    1.230000e+00
 TP5ar  TX1v  1 3.660000e-01    9.350000e-01
 TP4ar  TC6v  1 3.400000e-01    1.230000e+00
 TP4ar  TC5v  1 3.520000e-01    1.050000e+00
 TP4ar  TC4v  1 3.660000e-01    9.350000e-01
 TP4ar  TC3v  1 3.850000e-01    8.550000e-01
 TP4ar  TC2v  1 3.850000e-01    8.550000e-01
 TP4ar  TC1v  1 4.110000e-01    8.010000e-01
 TP4ar  TX4v  1 3.400000e-01    1.510000e+00
 TP4ar  TX3v  1 3.400000e-01    1.230000e+00
 TP4ar  TX2v  1 3.400000e-01    1.230000e+00
 TP4ar  TX1v  1 3.520000e-01    1.050000e+00
 TP3ar  TC6v  1 3.400000e-01    1.510000e+00
 TP3ar  TC5v  1 3.400000e-01    1.230000e+00
 TP3ar  TC4v  1 3.520000e-01    1.050000e+00
 TP3ar  TC3v  1 3.850000e-01    8.550000e-01
 TP3ar  TC2v  1 3.850000e-01    8.550000e-01
 TP3ar  TC1v  1 4.110000e-01    8.010000e-01
 TP3ar  TX4v  1 3.400000e-01    1.510000e+00
 TP3ar  TX3v  1 3.400000e-01    1.510000e+00
 TP3ar  TX2v  1 3.400000e-01    1.230000e+00
 TP3ar  TX1v  1 3.520000e-01    1.050000e+00
 TP2ar  TC6v  1 3.400000e-01    1.510000e+00
 TP2ar  TC5v  1 3.400000e-01    1.230000e+00
 TP2ar  TC4v  1 3.520000e-01    1.050000e+00
 TP2ar  TC3v  1 3.660000e-01    9.350000e-01
 TP2ar  TC2v  1 3.660000e-01    9.350000e-01
 TP2ar  TC1v  1 3.850000e-01    8.550000e-01
 TP2ar  TX4v  1 3.400000e-01    1.510000e+00
 TP2ar  TX3v  1 3.400000e-01    1.510000e+00
 TP2ar  TX2v  1 3.400000e-01    1.230000e+00
 TP2ar  TX1v  1 3.520000e-01    1.050000e+00
 TP1ar  TC6v  1 3.400000e-01    1.510000e+00
 TP1ar  TC5v  1 3.400000e-01    1.230000e+00
 TP1ar  TC4v  1 3.520000e-01    1.050000e+00
 TP1ar  TC3v  1 3.660000e-01    9.350000e-01
 TP1ar  TC2v  1 3.660000e-01    9.350000e-01
 TP1ar  TC1v  1 3.850000e-01    8.550000e-01
 TP1ar  TX4v  1 3.400000e-01    1.510000e+00
 TP1ar  TX3v  1 3.400000e-01    1.510000e+00
 TP1ar  TX2v  1 3.400000e-01    1.230000e+00
 TP1ar  TX1v  1 3.520000e-01    1.050000e+00
 TN6ar  TC6v  1 3.400000e-01    1.770000e+00
 TN6ar  TC5v  1 3.400000e-01    1.510000e+00
 TN6ar  TC4v  1 3.400000e-01    1.230000e+00
 TN6ar  TC3v  1 3.520000e-01    1.050000e+00
 TN6ar  TC2v  1 3.520000e-01    1.050000e+00
 TN6ar  TC1v  1 3.660000e-01    9.350000e-01
 TN6ar  TX4v  1 3.400000e-01    1.770000e+00
 TN6ar  TX3v  1 3.400000e-01    1.510000e+00
 TN6ar  TX2v  1 3.400000e-01    1.230000e+00
 TN6ar  TX1v  1 3.520000e-01    1.050000e+00
 TN5ar  TC6v  1 3.400000e-01    1.770000e+00
 TN5ar  TC5v  1 3.400000e-01    1.510000e+00
 TN5ar  TC4v  1 3.400000e-01    1.230000e+00
 TN5ar  TC3v  1 3.400000e-01    1.230000e+00
 TN5ar  TC2v  1 3.520000e-01    1.050000e+00
 TN5ar  TC1v  1 3.660000e-01    9.350000e-01
 TN5ar  TX4v  1 3.400000e-01    2.020000e+00
 TN5ar  TX3v  1 3.400000e-01    1.770000e+00
 TN5ar  TX2v  1 3.400000e-01    1.510000e+00
 TN5ar  TX1v  1 3.400000e-01    1.230000e+00
 TN4ar  TC6v  1 3.400000e-01    1.770000e+00
 TN4ar  TC5v  1 3.400000e-01    1.510000e+00
 TN4ar  TC4v  1 3.400000e-01    1.510000e+00
 TN4ar  TC3v  1 3.400000e-01    1.230000e+00
 TN4ar  TC2v  1 3.520000e-01    1.050000e+00
 TN4ar  TC1v  1 3.660000e-01    9.350000e-01
 TN4ar  TX4v  1 3.400000e-01    2.280000e+00
 TN4ar  TX3v  1 3.400000e-01    2.020000e+00
 TN4ar  TX2v  1 3.400000e-01    1.510000e+00
 TN4ar  TX1v  1 3.400000e-01    1.230000e+00
 TN3ar  TC6v  1 3.400000e-01    1.770000e+00
 TN3ar  TC5v  1 3.400000e-01    1.510000e+00
 TN3ar  TC4v  1 3.400000e-01    1.510000e+00
 TN3ar  TC3v  1 3.400000e-01    1.230000e+00
 TN3ar  TC2v  1 3.400000e-01    1.230000e+00
 TN3ar  TC1v  1 3.520000e-01    1.050000e+00
 TN3ar  TX4v  1 3.400000e-01    2.020000e+00
 TN3ar  TX3v  1 3.400000e-01    1.770000e+00
 TN3ar  TX2v  1 3.400000e-01    1.510000e+00
 TN3ar  TX1v  1 3.400000e-01    1.510000e+00
 TN2ar  TC6v  1 3.400000e-01    1.770000e+00
 TN2ar  TC5v  1 3.400000e-01    1.510000e+00
 TN2ar  TC4v  1 3.400000e-01    1.510000e+00
 TN2ar  TC3v  1 3.400000e-01    1.510000e+00
 TN2ar  TC2v  1 3.400000e-01    1.230000e+00
 TN2ar  TC1v  1 3.520000e-01    1.050000e+00
 TN2ar  TX4v  1 3.400000e-01    2.020000e+00
 TN2ar  TX3v  1 3.400000e-01    1.770000e+00
 TN2ar  TX2v  1 3.400000e-01    1.510000e+00
 TN2ar  TX1v  1 3.400000e-01    1.510000e+00
 TN1ar  TC6v  1 3.400000e-01    2.020000e+00
 TN1ar  TC5v  1 3.400000e-01    1.770000e+00
 TN1ar  TC4v  1 3.400000e-01    1.770000e+00
 TN1ar  TC3v  1 3.400000e-01    1.510000e+00
 TN1ar  TC2v  1 3.400000e-01    1.230000e+00
 TN1ar  TC1v  1 3.520000e-01    1.050000e+00
 TN1ar  TX4v  1 3.400000e-01    1.770000e+00
 TN1ar  TX3v  1 3.400000e-01    1.770000e+00
 TN1ar  TX2v  1 3.400000e-01    1.510000e+00
 TN1ar  TX1v  1 3.400000e-01    1.510000e+00
 TP6ar TX1vq  1 3.400000e-01    1.230000e+00
 TP6ar TX2vq  1 3.400000e-01    1.510000e+00
 TP6ar TX3vq  1 3.400000e-01    1.770000e+00
 TP6ar TX4vq  1 3.400000e-01    1.770000e+00
 TP6ar TC1vq  1 4.110000e-01    8.010000e-01
 TP6ar TC2vq  1 3.660000e-01    9.350000e-01
 TP6ar TC3vq  1 3.660000e-01    9.350000e-01
 TP6ar TC4vq  1 3.520000e-01    1.050000e+00
 TP6ar TC5vq  1 3.400000e-01    1.230000e+00
 TP6ar TC6vq  1 3.400000e-01    1.510000e+00
 TP5ar TX1vq  1 3.400000e-01    1.230000e+00
 TP5ar TX2vq  1 3.400000e-01    1.770000e+00
 TP5ar TX3vq  1 3.400000e-01    1.770000e+00
 TP5ar TX4vq  1 3.400000e-01    2.020000e+00
 TP5ar TC1vq  1 3.660000e-01    9.350000e-01
 TP5ar TC2vq  1 3.520000e-01    1.050000e+00
 TP5ar TC3vq  1 3.520000e-01    1.050000e+00
 TP5ar TC4vq  1 3.400000e-01    1.230000e+00
 TP5ar TC5vq  1 3.400000e-01    1.510000e+00
 TP5ar TC6vq  1 3.400000e-01    1.510000e+00
 TP4ar TX1vq  1 3.400000e-01    1.510000e+00
 TP4ar TX2vq  1 3.400000e-01    1.770000e+00
 TP4ar TX3vq  1 3.400000e-01    1.770000e+00
 TP4ar TX4vq  1 3.400000e-01    2.020000e+00
 TP4ar TC1vq  1 3.660000e-01    9.350000e-01
 TP4ar TC2vq  1 3.520000e-01    1.050000e+00
 TP4ar TC3vq  1 3.520000e-01    1.050000e+00
 TP4ar TC4vq  1 3.400000e-01    1.230000e+00
 TP4ar TC5vq  1 3.400000e-01    1.510000e+00
 TP4ar TC6vq  1 3.400000e-01    1.770000e+00
 TP3ar TX1vq  1 3.400000e-01    1.510000e+00
 TP3ar TX2vq  1 3.400000e-01    1.770000e+00
 TP3ar TX3vq  1 3.400000e-01    2.020000e+00
 TP3ar TX4vq  1 3.400000e-01    2.020000e+00
 TP3ar TC1vq  1 3.660000e-01    9.350000e-01
 TP3ar TC2vq  1 3.520000e-01    1.050000e+00
 TP3ar TC3vq  1 3.520000e-01    1.050000e+00
 TP3ar TC4vq  1 3.400000e-01    1.510000e+00
 TP3ar TC5vq  1 3.400000e-01    1.770000e+00
 TP3ar TC6vq  1 3.400000e-01    2.020000e+00
 TP2ar TX1vq  1 3.400000e-01    1.510000e+00
 TP2ar TX2vq  1 3.400000e-01    1.770000e+00
 TP2ar TX3vq  1 3.400000e-01    2.020000e+00
 TP2ar TX4vq  1 3.400000e-01    2.020000e+00
 TP2ar TC1vq  1 3.520000e-01    1.050000e+00
 TP2ar TC2vq  1 3.400000e-01    1.230000e+00
 TP2ar TC3vq  1 3.400000e-01    1.230000e+00
 TP2ar TC4vq  1 3.400000e-01    1.510000e+00
 TP2ar TC5vq  1 3.400000e-01    1.770000e+00
 TP2ar TC6vq  1 3.400000e-01    2.020000e+00
 TP1ar TX1vq  1 3.400000e-01    1.510000e+00
 TP1ar TX2vq  1 3.400000e-01    1.770000e+00
 TP1ar TX3vq  1 3.400000e-01    2.020000e+00
 TP1ar TX4vq  1 3.400000e-01    2.020000e+00
 TP1ar TC1vq  1 3.520000e-01    1.050000e+00
 TP1ar TC2vq  1 3.400000e-01    1.230000e+00
 TP1ar TC3vq  1 3.400000e-01    1.230000e+00
 TP1ar TC4vq  1 3.400000e-01    1.510000e+00
 TP1ar TC5vq  1 3.400000e-01    1.770000e+00
 TP1ar TC6vq  1 3.400000e-01    2.020000e+00
 TN6ar TX1vq  1 3.400000e-01    1.510000e+00
 TN6ar TX2vq  1 3.400000e-01    1.770000e+00
 TN6ar TX3vq  1 3.400000e-01    2.020000e+00
 TN6ar TX4vq  1 3.400000e-01    2.280000e+00
 TN6ar TC1vq  1 3.400000e-01    1.230000e+00
 TN6ar TC2vq  1 3.400000e-01    1.510000e+00
 TN6ar TC3vq  1 3.400000e-01    1.510000e+00
 TN6ar TC4vq  1 3.400000e-01    1.770000e+00
 TN6ar TC5vq  1 3.400000e-01    2.020000e+00
 TN6ar TC6vq  1 3.400000e-01    2.280000e+00
 TN5ar TX1vq  1 3.400000e-01    1.770000e+00
 TN5ar TX2vq  1 3.400000e-01    2.020000e+00
 TN5ar TX3vq  1 3.400000e-01    2.280000e+00
 TN5ar TX4vq  1 3.400000e-01    2.500000e+00
 TN5ar TC1vq  1 3.400000e-01    1.230000e+00
 TN5ar TC2vq  1 3.400000e-01    1.510000e+00
 TN5ar TC3vq  1 3.400000e-01    1.770000e+00
 TN5ar TC4vq  1 3.400000e-01    1.770000e+00
 TN5ar TC5vq  1 3.400000e-01    2.020000e+00
 TN5ar TC6vq  1 3.400000e-01    2.280000e+00
 TN4ar TX1vq  1 3.400000e-01    1.770000e+00
 TN4ar TX2vq  1 3.400000e-01    2.020000e+00
 TN4ar TX3vq  1 3.400000e-01    2.500000e+00
 TN4ar TX4vq  1 3.400000e-01    2.740000e+00
 TN4ar TC1vq  1 3.400000e-01    1.230000e+00
 TN4ar TC2vq  1 3.400000e-01    1.510000e+00
 TN4ar TC3vq  1 3.400000e-01    1.770000e+00
 TN4ar TC4vq  1 3.400000e-01    2.020000e+00
 TN4ar TC5vq  1 3.400000e-01    2.020000e+00
 TN4ar TC6vq  1 3.400000e-01    2.280000e+00
 TN3ar TX1vq  1 3.400000e-01    2.020000e+00
 TN3ar TX2vq  1 3.400000e-01    2.020000e+00
 TN3ar TX3vq  1 3.400000e-01    2.280000e+00
 TN3ar TX4vq  1 3.400000e-01    2.500000e+00
 TN3ar TC1vq  1 3.400000e-01    1.510000e+00
 TN3ar TC2vq  1 3.400000e-01    1.770000e+00
 TN3ar TC3vq  1 3.400000e-01    1.770000e+00
 TN3ar TC4vq  1 3.400000e-01    2.020000e+00
 TN3ar TC5vq  1 3.400000e-01    2.020000e+00
 TN3ar TC6vq  1 3.400000e-01    2.280000e+00
 TN2ar TX1vq  1 3.400000e-01    2.020000e+00
 TN2ar TX2vq  1 3.400000e-01    2.020000e+00
 TN2ar TX3vq  1 3.400000e-01    2.280000e+00
 TN2ar TX4vq  1 3.400000e-01    2.500000e+00
 TN2ar TC1vq  1 3.400000e-01    1.510000e+00
 TN2ar TC2vq  1 3.400000e-01    1.770000e+00
 TN2ar TC3vq  1 3.400000e-01    2.020000e+00
 TN2ar TC4vq  1 3.400000e-01    2.020000e+00
 TN2ar TC5vq  1 3.400000e-01    2.020000e+00
 TN2ar TC6vq  1 3.400000e-01    2.280000e+00
 TN1ar TX1vq  1 3.400000e-01    2.020000e+00
 TN1ar TX2vq  1 3.400000e-01    2.020000e+00
 TN1ar TX3vq  1 3.400000e-01    2.280000e+00
 TN1ar TX4vq  1 3.400000e-01    2.280000e+00
 TN1ar TC1vq  1 3.400000e-01    1.510000e+00
 TN1ar TC2vq  1 3.400000e-01    1.770000e+00
 TN1ar TC3vq  1 3.400000e-01    2.020000e+00
 TN1ar TC4vq  1 3.400000e-01    2.280000e+00
 TN1ar TC5vq  1 3.400000e-01    2.280000e+00
 TN1ar TC6vq  1 3.400000e-01    2.500000e+00
 TP6ar TC6vh  1 3.520000e-01    1.050000e+00
 TP6ar TC5vh  1 3.660000e-01    9.350000e-01
 TP6ar TC4vh  1 3.850000e-01    8.550000e-01
 TP6ar TC3vh  1 4.110000e-01    8.010000e-01
 TP6ar TC2vh  1 4.110000e-01    8.010000e-01
 TP6ar TC1vh  1 4.380000e-01    7.310000e-01
 TP6ar TX4vh  1 3.400000e-01    1.230000e+00
 TP6ar TX3vh  1 3.400000e-01    1.230000e+00
 TP6ar TX2vh  1 3.520000e-01    1.050000e+00
 TP6ar TX1vh  1 3.660000e-01    9.350000e-01
 TP5ar TC6vh  1 3.520000e-01    1.050000e+00
 TP5ar TC5vh  1 3.520000e-01    1.050000e+00
 TP5ar TC4vh  1 3.660000e-01    9.350000e-01
 TP5ar TC3vh  1 3.850000e-01    8.550000e-01
 TP5ar TC2vh  1 3.850000e-01    8.550000e-01
 TP5ar TC1vh  1 4.110000e-01    8.010000e-01
 TP5ar TX4vh  1 3.400000e-01    1.510000e+00
 TP5ar TX3vh  1 3.400000e-01    1.230000e+00
 TP5ar TX2vh  1 3.400000e-01    1.230000e+00
 TP5ar TX1vh  1 3.660000e-01    9.350000e-01
 TP4ar TC6vh  1 3.400000e-01    1.230000e+00
 TP4ar TC5vh  1 3.520000e-01    1.050000e+00
 TP4ar TC4vh  1 3.660000e-01    9.350000e-01
 TP4ar TC3vh  1 3.850000e-01    8.550000e-01
 TP4ar TC2vh  1 3.850000e-01    8.550000e-01
 TP4ar TC1vh  1 4.110000e-01    8.010000e-01
 TP4ar TX4vh  1 3.400000e-01    1.510000e+00
 TP4ar TX3vh  1 3.400000e-01    1.230000e+00
 TP4ar TX2vh  1 3.400000e-01    1.230000e+00
 TP4ar TX1vh  1 3.520000e-01    1.050000e+00
 TP3ar TC6vh  1 3.400000e-01    1.510000e+00
 TP3ar TC5vh  1 3.400000e-01    1.230000e+00
 TP3ar TC4vh  1 3.520000e-01    1.050000e+00
 TP3ar TC3vh  1 3.850000e-01    8.550000e-01
 TP3ar TC2vh  1 3.850000e-01    8.550000e-01
 TP3ar TC1vh  1 4.110000e-01    8.010000e-01
 TP3ar TX4vh  1 3.400000e-01    1.510000e+00
 TP3ar TX3vh  1 3.400000e-01    1.510000e+00
 TP3ar TX2vh  1 3.400000e-01    1.230000e+00
 TP3ar TX1vh  1 3.520000e-01    1.050000e+00
 TP2ar TC6vh  1 3.400000e-01    1.510000e+00
 TP2ar TC5vh  1 3.400000e-01    1.230000e+00
 TP2ar TC4vh  1 3.520000e-01    1.050000e+00
 TP2ar TC3vh  1 3.660000e-01    9.350000e-01
 TP2ar TC2vh  1 3.660000e-01    9.350000e-01
 TP2ar TC1vh  1 3.850000e-01    8.550000e-01
 TP2ar TX4vh  1 3.400000e-01    1.510000e+00
 TP2ar TX3vh  1 3.400000e-01    1.510000e+00
 TP2ar TX2vh  1 3.400000e-01    1.230000e+00
 TP2ar TX1vh  1 3.520000e-01    1.050000e+00
 TP1ar TC6vh  1 3.400000e-01    1.510000e+00
 TP1ar TC5vh  1 3.400000e-01    1.230000e+00
 TP1ar TC4vh  1 3.520000e-01    1.050000e+00
 TP1ar TC3vh  1 3.660000e-01    9.350000e-01
 TP1ar TC2vh  1 3.660000e-01    9.350000e-01
 TP1ar TC1vh  1 3.850000e-01    8.550000e-01
 TP1ar TX4vh  1 3.400000e-01    1.510000e+00
 TP1ar TX3vh  1 3.400000e-01    1.510000e+00
 TP1ar TX2vh  1 3.400000e-01    1.230000e+00
 TP1ar TX1vh  1 3.520000e-01    1.050000e+00
 TN6ar TC6vh  1 3.400000e-01    1.770000e+00
 TN6ar TC5vh  1 3.400000e-01    1.510000e+00
 TN6ar TC4vh  1 3.400000e-01    1.230000e+00
 TN6ar TC3vh  1 3.520000e-01    1.050000e+00
 TN6ar TC2vh  1 3.520000e-01    1.050000e+00
 TN6ar TC1vh  1 3.660000e-01    9.350000e-01
 TN6ar TX4vh  1 3.400000e-01    1.770000e+00
 TN6ar TX3vh  1 3.400000e-01    1.510000e+00
 TN6ar TX2vh  1 3.400000e-01    1.230000e+00
 TN6ar TX1vh  1 3.520000e-01    1.050000e+00
 TN5ar TC6vh  1 3.400000e-01    1.770000e+00
 TN5ar TC5vh  1 3.400000e-01    1.510000e+00
 TN5ar TC4vh  1 3.400000e-01    1.230000e+00
 TN5ar TC3vh  1 3.400000e-01    1.230000e+00
 TN5ar TC2vh  1 3.520000e-01    1.050000e+00
 TN5ar TC1vh  1 3.660000e-01    9.350000e-01
 TN5ar TX4vh  1 3.400000e-01    2.020000e+00
 TN5ar TX3vh  1 3.400000e-01    1.770000e+00
 TN5ar TX2vh  1 3.400000e-01    1.510000e+00
 TN5ar TX1vh  1 3.400000e-01    1.230000e+00
 TN4ar TC6vh  1 3.400000e-01    1.770000e+00
 TN4ar TC5vh  1 3.400000e-01    1.510000e+00
 TN4ar TC4vh  1 3.400000e-01    1.510000e+00
 TN4ar TC3vh  1 3.400000e-01    1.230000e+00
 TN4ar TC2vh  1 3.520000e-01    1.050000e+00
 TN4ar TC1vh  1 3.660000e-01    9.350000e-01
 TN4ar TX4vh  1 3.400000e-01    2.280000e+00
 TN4ar TX3vh  1 3.400000e-01    2.020000e+00
 TN4ar TX2vh  1 3.400000e-01    1.510000e+00
 TN4ar TX1vh  1 3.400000e-01    1.230000e+00
 TN3ar TC6vh  1 3.400000e-01    1.770000e+00
 TN3ar TC5vh  1 3.400000e-01    1.510000e+00
 TN3ar TC4vh  1 3.400000e-01    1.510000e+00
 TN3ar TC3vh  1 3.400000e-01    1.230000e+00
 TN3ar TC2vh  1 3.400000e-01    1.230000e+00
 TN3ar TC1vh  1 3.520000e-01    1.050000e+00
 TN3ar TX4vh  1 3.400000e-01    2.020000e+00
 TN3ar TX3vh  1 3.400000e-01    1.770000e+00
 TN3ar TX2vh  1 3.400000e-01    1.510000e+00
 TN3ar TX1vh  1 3.400000e-01    1.510000e+00
 TN2ar TC6vh  1 3.400000e-01    1.770000e+00
 TN2ar TC5vh  1 3.400000e-01    1.510000e+00
 TN2ar TC4vh  1 3.400000e-01    1.510000e+00
 TN2ar TC3vh  1 3.400000e-01    1.510000e+00
 TN2ar TC2vh  1 3.400000e-01    1.230000e+00
 TN2ar TC1vh  1 3.520000e-01    1.050000e+00
 TN2ar TX4vh  1 3.400000e-01    2.020000e+00
 TN2ar TX3vh  1 3.400000e-01    1.770000e+00
 TN2ar TX2vh  1 3.400000e-01    1.510000e+00
 TN2ar TX1vh  1 3.400000e-01    1.510000e+00
 TN1ar TC6vh  1 3.400000e-01    2.020000e+00
 TN1ar TC5vh  1 3.400000e-01    1.770000e+00
 TN1ar TC4vh  1 3.400000e-01    1.770000e+00
 TN1ar TC3vh  1 3.400000e-01    1.510000e+00
 TN1ar TC2vh  1 3.400000e-01    1.230000e+00
 TN1ar TC1vh  1 3.520000e-01    1.050000e+00
 TN1ar TX4vh  1 3.400000e-01    1.770000e+00
 TN1ar TX3vh  1 3.400000e-01    1.770000e+00
 TN1ar TX2vh  1 3.400000e-01    1.510000e+00
 TN1ar TX1vh  1 3.400000e-01    1.510000e+00
 TP6ar TC6vr  1 3.520000e-01    1.050000e+00
 TP6ar TC5vr  1 3.660000e-01    9.350000e-01
 TP6ar TC4vr  1 3.850000e-01    8.550000e-01
 TP6ar TC3vr  1 4.110000e-01    8.010000e-01
 TP6ar TC2vr  1 4.110000e-01    8.010000e-01
 TP6ar TC1vr  1 4.380000e-01    7.310000e-01
 TP6ar TX4vr  1 3.400000e-01    1.230000e+00
 TP6ar TX3vr  1 3.400000e-01    1.230000e+00
 TP6ar TX2vr  1 3.520000e-01    1.050000e+00
 TP6ar TX1vr  1 3.660000e-01    9.350000e-01
 TP5ar TC6vr  1 3.520000e-01    1.050000e+00
 TP5ar TC5vr  1 3.520000e-01    1.050000e+00
 TP5ar TC4vr  1 3.660000e-01    9.350000e-01
 TP5ar TC3vr  1 3.850000e-01    8.550000e-01
 TP5ar TC2vr  1 3.850000e-01    8.550000e-01
 TP5ar TC1vr  1 4.110000e-01    8.010000e-01
 TP5ar TX4vr  1 3.400000e-01    1.510000e+00
 TP5ar TX3vr  1 3.400000e-01    1.230000e+00
 TP5ar TX2vr  1 3.400000e-01    1.230000e+00
 TP5ar TX1vr  1 3.660000e-01    9.350000e-01
 TP4ar TC6vr  1 3.400000e-01    1.230000e+00
 TP4ar TC5vr  1 3.520000e-01    1.050000e+00
 TP4ar TC4vr  1 3.660000e-01    9.350000e-01
 TP4ar TC3vr  1 3.850000e-01    8.550000e-01
 TP4ar TC2vr  1 3.850000e-01    8.550000e-01
 TP4ar TC1vr  1 4.110000e-01    8.010000e-01
 TP4ar TX4vr  1 3.400000e-01    1.510000e+00
 TP4ar TX3vr  1 3.400000e-01    1.230000e+00
 TP4ar TX2vr  1 3.400000e-01    1.230000e+00
 TP4ar TX1vr  1 3.520000e-01    1.050000e+00
 TP3ar TC6vr  1 3.400000e-01    1.510000e+00
 TP3ar TC5vr  1 3.400000e-01    1.230000e+00
 TP3ar TC4vr  1 3.520000e-01    1.050000e+00
 TP3ar TC3vr  1 3.850000e-01    8.550000e-01
 TP3ar TC2vr  1 3.850000e-01    8.550000e-01
 TP3ar TC1vr  1 4.110000e-01    8.010000e-01
 TP3ar TX4vr  1 3.400000e-01    1.510000e+00
 TP3ar TX3vr  1 3.400000e-01    1.510000e+00
 TP3ar TX2vr  1 3.400000e-01    1.230000e+00
 TP3ar TX1vr  1 3.520000e-01    1.050000e+00
 TP2ar TC6vr  1 3.400000e-01    1.510000e+00
 TP2ar TC5vr  1 3.400000e-01    1.230000e+00
 TP2ar TC4vr  1 3.520000e-01    1.050000e+00
 TP2ar TC3vr  1 3.660000e-01    9.350000e-01
 TP2ar TC2vr  1 3.660000e-01    9.350000e-01
 TP2ar TC1vr  1 3.850000e-01    8.550000e-01
 TP2ar TX4vr  1 3.400000e-01    1.510000e+00
 TP2ar TX3vr  1 3.400000e-01    1.510000e+00
 TP2ar TX2vr  1 3.400000e-01    1.230000e+00
 TP2ar TX1vr  1 3.520000e-01    1.050000e+00
 TP1ar TC6vr  1 3.400000e-01    1.510000e+00
 TP1ar TC5vr  1 3.400000e-01    1.230000e+00
 TP1ar TC4vr  1 3.520000e-01    1.050000e+00
 TP1ar TC3vr  1 3.660000e-01    9.350000e-01
 TP1ar TC2vr  1 3.660000e-01    9.350000e-01
 TP1ar TC1vr  1 3.850000e-01    8.550000e-01
 TP1ar TX4vr  1 3.400000e-01    1.510000e+00
 TP1ar TX3vr  1 3.400000e-01    1.510000e+00
 TP1ar TX2vr  1 3.400000e-01    1.230000e+00
 TP1ar TX1vr  1 3.520000e-01    1.050000e+00
 TN6ar TC6vr  1 3.400000e-01    1.770000e+00
 TN6ar TC5vr  1 3.400000e-01    1.510000e+00
 TN6ar TC4vr  1 3.400000e-01    1.230000e+00
 TN6ar TC3vr  1 3.520000e-01    1.050000e+00
 TN6ar TC2vr  1 3.520000e-01    1.050000e+00
 TN6ar TC1vr  1 3.660000e-01    9.350000e-01
 TN6ar TX4vr  1 3.400000e-01    1.770000e+00
 TN6ar TX3vr  1 3.400000e-01    1.510000e+00
 TN6ar TX2vr  1 3.400000e-01    1.230000e+00
 TN6ar TX1vr  1 3.520000e-01    1.050000e+00
 TN5ar TC6vr  1 3.400000e-01    1.770000e+00
 TN5ar TC5vr  1 3.400000e-01    1.510000e+00
 TN5ar TC4vr  1 3.400000e-01    1.230000e+00
 TN5ar TC3vr  1 3.400000e-01    1.230000e+00
 TN5ar TC2vr  1 3.520000e-01    1.050000e+00
 TN5ar TC1vr  1 3.660000e-01    9.350000e-01
 TN5ar TX4vr  1 3.400000e-01    2.020000e+00
 TN5ar TX3vr  1 3.400000e-01    1.770000e+00
 TN5ar TX2vr  1 3.400000e-01    1.510000e+00
 TN5ar TX1vr  1 3.400000e-01    1.230000e+00
 TN4ar TC6vr  1 3.400000e-01    1.770000e+00
 TN4ar TC5vr  1 3.400000e-01    1.510000e+00
 TN4ar TC4vr  1 3.400000e-01    1.510000e+00
 TN4ar TC3vr  1 3.400000e-01    1.230000e+00
 TN4ar TC2vr  1 3.520000e-01    1.050000e+00
 TN4ar TC1vr  1 3.660000e-01    9.350000e-01
 TN4ar TX4vr  1 3.400000e-01    2.280000e+00
 TN4ar TX3vr  1 3.400000e-01    2.020000e+00
 TN4ar TX2vr  1 3.400000e-01    1.510000e+00
 TN4ar TX1vr  1 3.400000e-01    1.230000e+00
 TN3ar TC6vr  1 3.400000e-01    1.770000e+00
 TN3ar TC5vr  1 3.400000e-01    1.510000e+00
 TN3ar TC4vr  1 3.400000e-01    1.510000e+00
 TN3ar TC3vr  1 3.400000e-01    1.230000e+00
 TN3ar TC2vr  1 3.400000e-01    1.230000e+00
 TN3ar TC1vr  1 3.520000e-01    1.050000e+00
 TN3ar TX4vr  1 3.400000e-01    2.020000e+00
 TN3ar TX3vr  1 3.400000e-01    1.770000e+00
 TN3ar TX2vr  1 3.400000e-01    1.510000e+00
 TN3ar TX1vr  1 3.400000e-01    1.510000e+00
 TN2ar TC6vr  1 3.400000e-01    1.770000e+00
 TN2ar TC5vr  1 3.400000e-01    1.510000e+00
 TN2ar TC4vr  1 3.400000e-01    1.510000e+00
 TN2ar TC3vr  1 3.400000e-01    1.510000e+00
 TN2ar TC2vr  1 3.400000e-01    1.230000e+00
 TN2ar TC1vr  1 3.520000e-01    1.050000e+00
 TN2ar TX4vr  1 3.400000e-01    2.020000e+00
 TN2ar TX3vr  1 3.400000e-01    1.770000e+00
 TN2ar TX2vr  1 3.400000e-01    1.510000e+00
 TN2ar TX1vr  1 3.400000e-01    1.510000e+00
 TN1ar TC6vr  1 3.400000e-01    2.020000e+00
 TN1ar TC5vr  1 3.400000e-01    1.770000e+00
 TN1ar TC4vr  1 3.400000e-01    1.770000e+00
 TN1ar TC3vr  1 3.400000e-01    1.510000e+00
 TN1ar TC2vr  1 3.400000e-01    1.230000e+00
 TN1ar TC1vr  1 3.520000e-01    1.050000e+00
 TN1ar TX4vr  1 3.400000e-01    1.770000e+00
 TN1ar TX3vr  1 3.400000e-01    1.770000e+00
 TN1ar TX2vr  1 3.400000e-01    1.510000e+00
 TN1ar TX1vr  1 3.400000e-01    1.510000e+00
  TP6d  TC6v  1 3.850000e-01    8.550000e-01
  TP6d  TC5v  1 4.110000e-01    8.010000e-01
  TP6d  TC4v  1 4.240000e-01    7.760000e-01
  TP6d  TC3v  1 4.380000e-01    7.310000e-01
  TP6d  TC2v  1 4.380000e-01    7.310000e-01
  TP6d  TC1v  1 5.610000e-01    6.300000e-01
  TP6d  TX4v  1 3.660000e-01    9.350000e-01
  TP6d  TX3v  1 3.660000e-01    9.350000e-01
  TP6d  TX2v  1 3.850000e-01    8.550000e-01
  TP6d  TX1v  1 4.110000e-01    8.010000e-01
  TP5d  TC6v  1 3.850000e-01    8.550000e-01
  TP5d  TC5v  1 3.850000e-01    8.550000e-01
  TP5d  TC4v  1 4.110000e-01    8.010000e-01
  TP5d  TC3v  1 4.240000e-01    7.760000e-01
  TP5d  TC2v  1 4.240000e-01    7.760000e-01
  TP5d  TC1v  1 4.380000e-01    7.310000e-01
  TP5d  TX4v  1 3.520000e-01    1.050000e+00
  TP5d  TX3v  1 3.660000e-01    9.350000e-01
  TP5d  TX2v  1 3.660000e-01    9.350000e-01
  TP5d  TX1v  1 4.110000e-01    8.010000e-01
  TP4d  TC6v  1 3.660000e-01    9.350000e-01
  TP4d  TC5v  1 3.850000e-01    8.550000e-01
  TP4d  TC4v  1 4.110000e-01    8.010000e-01
  TP4d  TC3v  1 4.240000e-01    7.760000e-01
  TP4d  TC2v  1 4.240000e-01    7.760000e-01
  TP4d  TC1v  1 4.380000e-01    7.310000e-01
  TP4d  TX4v  1 3.520000e-01    1.050000e+00
  TP4d  TX3v  1 3.660000e-01    9.350000e-01
  TP4d  TX2v  1 3.660000e-01    9.350000e-01
  TP4d  TX1v  1 3.850000e-01    8.550000e-01
  TP3d  TC6v  1 3.520000e-01    1.050000e+00
  TP3d  TC5v  1 3.660000e-01    9.350000e-01
  TP3d  TC4v  1 3.850000e-01    8.550000e-01
  TP3d  TC3v  1 4.240000e-01    7.760000e-01
  TP3d  TC2v  1 4.240000e-01    7.760000e-01
  TP3d  TC1v  1 4.380000e-01    7.310000e-01
  TP3d  TX4v  1 3.520000e-01    1.050000e+00
  TP3d  TX3v  1 3.520000e-01    1.050000e+00
  TP3d  TX2v  1 3.660000e-01    9.350000e-01
  TP3d  TX1v  1 3.850000e-01    8.550000e-01
  TP2d  TC6v  1 3.520000e-01    1.050000e+00
  TP2d  TC5v  1 3.660000e-01    9.350000e-01
  TP2d  TC4v  1 3.850000e-01    8.550000e-01
  TP2d  TC3v  1 4.110000e-01    8.010000e-01
  TP2d  TC2v  1 4.110000e-01    8.010000e-01
  TP2d  TC1v  1 4.240000e-01    7.760000e-01
  TP2d  TX4v  1 3.520000e-01    1.050000e+00
  TP2d  TX3v  1 3.520000e-01    1.050000e+00
  TP2d  TX2v  1 3.660000e-01    9.350000e-01
  TP2d  TX1v  1 3.850000e-01    8.550000e-01
  TP1d  TC6v  1 3.520000e-01    1.050000e+00
  TP1d  TC5v  1 3.660000e-01    9.350000e-01
  TP1d  TC4v  1 3.850000e-01    8.550000e-01
  TP1d  TC3v  1 4.110000e-01    8.010000e-01
  TP1d  TC2v  1 4.110000e-01    8.010000e-01
  TP1d  TC1v  1 4.240000e-01    7.760000e-01
  TP1d  TX4v  1 3.520000e-01    1.050000e+00
  TP1d  TX3v  1 3.520000e-01    1.050000e+00
  TP1d  TX2v  1 3.660000e-01    9.350000e-01
  TP1d  TX1v  1 3.850000e-01    8.550000e-01
  TN6d  TC6v  1 3.400000e-01    1.230000e+00
  TN6d  TC5v  1 3.520000e-01    1.050000e+00
  TN6d  TC4v  1 3.660000e-01    9.350000e-01
  TN6d  TC3v  1 3.850000e-01    8.550000e-01
  TN6d  TC2v  1 3.850000e-01    8.550000e-01
  TN6d  TC1v  1 4.110000e-01    8.010000e-01
  TN6d  TX4v  1 3.400000e-01    1.230000e+00
  TN6d  TX3v  1 3.520000e-01    1.050000e+00
  TN6d  TX2v  1 3.660000e-01    9.350000e-01
  TN6d  TX1v  1 3.850000e-01    8.550000e-01
  TN5d  TC6v  1 3.400000e-01    1.230000e+00
  TN5d  TC5v  1 3.520000e-01    1.050000e+00
  TN5d  TC4v  1 3.660000e-01    9.350000e-01
  TN5d  TC3v  1 3.660000e-01    9.350000e-01
  TN5d  TC2v  1 3.850000e-01    8.550000e-01
  TN5d  TC1v  1 4.110000e-01    8.010000e-01
  TN5d  TX4v  1 3.400000e-01    1.510000e+00
  TN5d  TX3v  1 3.400000e-01    1.230000e+00
  TN5d  TX2v  1 3.520000e-01    1.050000e+00
  TN5d  TX1v  1 3.660000e-01    9.350000e-01
  TN4d  TC6v  1 3.400000e-01    1.230000e+00
  TN4d  TC5v  1 3.520000e-01    1.050000e+00
  TN4d  TC4v  1 3.520000e-01    1.050000e+00
  TN4d  TC3v  1 3.660000e-01    9.350000e-01
  TN4d  TC2v  1 3.850000e-01    8.550000e-01
  TN4d  TC1v  1 4.110000e-01    8.010000e-01
  TN4d  TX4v  1 3.400000e-01    1.770000e+00
  TN4d  TX3v  1 3.400000e-01    1.510000e+00
  TN4d  TX2v  1 3.520000e-01    1.050000e+00
  TN4d  TX1v  1 3.660000e-01    9.350000e-01
  TN3d  TC6v  1 3.400000e-01    1.230000e+00
  TN3d  TC5v  1 3.520000e-01    1.050000e+00
  TN3d  TC4v  1 3.520000e-01    1.050000e+00
  TN3d  TC3v  1 3.660000e-01    9.350000e-01
  TN3d  TC2v  1 3.660000e-01    9.350000e-01
  TN3d  TC1v  1 3.850000e-01    8.550000e-01
  TN3d  TX4v  1 3.400000e-01    1.510000e+00
  TN3d  TX3v  1 3.400000e-01    1.230000e+00
  TN3d  TX2v  1 3.520000e-01    1.050000e+00
  TN3d  TX1v  1 3.520000e-01    1.050000e+00
  TN2d  TC6v  1 3.400000e-01    1.230000e+00
  TN2d  TC5v  1 3.520000e-01    1.050000e+00
  TN2d  TC4v  1 3.520000e-01    1.050000e+00
  TN2d  TC3v  1 3.520000e-01    1.050000e+00
  TN2d  TC2v  1 3.660000e-01    9.350000e-01
  TN2d  TC1v  1 3.850000e-01    8.550000e-01
  TN2d  TX4v  1 3.400000e-01    1.510000e+00
  TN2d  TX3v  1 3.400000e-01    1.230000e+00
  TN2d  TX2v  1 3.520000e-01    1.050000e+00
  TN2d  TX1v  1 3.520000e-01    1.050000e+00
  TN1d  TC6v  1 3.400000e-01    1.510000e+00
  TN1d  TC5v  1 3.400000e-01    1.230000e+00
  TN1d  TC4v  1 3.400000e-01    1.230000e+00
  TN1d  TC3v  1 3.520000e-01    1.050000e+00
  TN1d  TC2v  1 3.660000e-01    9.350000e-01
  TN1d  TC1v  1 3.850000e-01    8.550000e-01
  TN1d  TX4v  1 3.400000e-01    1.230000e+00
  TN1d  TX3v  1 3.400000e-01    1.230000e+00
  TN1d  TX2v  1 3.520000e-01    1.050000e+00
  TN1d  TX1v  1 3.520000e-01    1.050000e+00
  TP6d TX1vq  1 3.660000e-01    9.350000e-01
  TP5d TX1vq  1 3.660000e-01    9.350000e-01
  TP4d TX1vq  1 3.520000e-01    1.050000e+00
  TP3d TX1vq  1 3.520000e-01    1.050000e+00
  TP2d TX1vq  1 3.520000e-01    1.050000e+00
  TP1d TX1vq  1 3.520000e-01    1.050000e+00
  TN6d TX1vq  1 3.520000e-01    1.050000e+00
  TN5d TX1vq  1 3.400000e-01    1.230000e+00
  TN4d TX1vq  1 3.400000e-01    1.230000e+00
  TN3d TX1vq  1 3.400000e-01    1.510000e+00
  TN2d TX1vq  1 3.400000e-01    1.510000e+00
  TN1d TX1vq  1 3.400000e-01    1.510000e+00
  TP6d TX2vq  1 3.520000e-01    1.050000e+00
  TP5d TX2vq  1 3.400000e-01    1.230000e+00
  TP4d TX2vq  1 3.400000e-01    1.230000e+00
  TP3d TX2vq  1 3.400000e-01    1.230000e+00
  TP2d TX2vq  1 3.400000e-01    1.230000e+00
  TP1d TX2vq  1 3.400000e-01    1.230000e+00
  TN6d TX2vq  1 3.400000e-01    1.230000e+00
  TN5d TX2vq  1 3.400000e-01    1.510000e+00
  TN4d TX2vq  1 3.400000e-01    1.510000e+00
  TN3d TX2vq  1 3.400000e-01    1.510000e+00
  TN2d TX2vq  1 3.400000e-01    1.510000e+00
  TN1d TX2vq  1 3.400000e-01    1.510000e+00
  TP6d TX3vq  1 3.400000e-01    1.230000e+00
  TP5d TX3vq  1 3.400000e-01    1.230000e+00
  TP4d TX3vq  1 3.400000e-01    1.230000e+00
  TP3d TX3vq  1 3.400000e-01    1.510000e+00
  TP2d TX3vq  1 3.400000e-01    1.510000e+00
  TP1d TX3vq  1 3.400000e-01    1.510000e+00
  TN6d TX3vq  1 3.400000e-01    1.510000e+00
  TN5d TX3vq  1 3.400000e-01    1.770000e+00
  TN4d TX3vq  1 3.400000e-01    2.020000e+00
  TN3d TX3vq  1 3.400000e-01    1.770000e+00
  TN2d TX3vq  1 3.400000e-01    1.770000e+00
  TN1d TX3vq  1 3.400000e-01    1.770000e+00
  TP6d TX4vq  1 3.400000e-01    1.230000e+00
  TP5d TX4vq  1 3.400000e-01    1.510000e+00
  TP4d TX4vq  1 3.400000e-01    1.510000e+00
  TP3d TX4vq  1 3.400000e-01    1.510000e+00
  TP2d TX4vq  1 3.400000e-01    1.510000e+00
  TP1d TX4vq  1 3.400000e-01    1.510000e+00
  TN6d TX4vq  1 3.400000e-01    1.770000e+00
  TN5d TX4vq  1 3.400000e-01    2.020000e+00
  TN4d TX4vq  1 3.400000e-01    2.280000e+00
  TN3d TX4vq  1 3.400000e-01    2.020000e+00
  TN2d TX4vq  1 3.400000e-01    2.020000e+00
  TN1d TX4vq  1 3.400000e-01    1.770000e+00
  TP6d TC1vq  1 4.380000e-01    7.310000e-01
  TP5d TC1vq  1 4.110000e-01    8.010000e-01
  TP4d TC1vq  1 4.110000e-01    8.010000e-01
  TP3d TC1vq  1 4.110000e-01    8.010000e-01
  TP2d TC1vq  1 3.850000e-01    8.550000e-01
  TP1d TC1vq  1 3.850000e-01    8.550000e-01
  TN6d TC1vq  1 3.660000e-01    9.350000e-01
  TN5d TC1vq  1 3.660000e-01    9.350000e-01
  TN4d TC1vq  1 3.660000e-01    9.350000e-01
  TN3d TC1vq  1 3.520000e-01    1.050000e+00
  TN2d TC1vq  1 3.520000e-01    1.050000e+00
  TN1d TC1vq  1 3.520000e-01    1.050000e+00
  TP6d TC2vq  1 4.110000e-01    8.010000e-01
  TP5d TC2vq  1 3.850000e-01    8.550000e-01
  TP4d TC2vq  1 3.850000e-01    8.550000e-01
  TP3d TC2vq  1 3.850000e-01    8.550000e-01
  TP2d TC2vq  1 3.660000e-01    9.350000e-01
  TP1d TC2vq  1 3.660000e-01    9.350000e-01
  TN6d TC2vq  1 3.520000e-01    1.050000e+00
  TN5d TC2vq  1 3.520000e-01    1.050000e+00
  TN4d TC2vq  1 3.520000e-01    1.050000e+00
  TN3d TC2vq  1 3.400000e-01    1.230000e+00
  TN2d TC2vq  1 3.400000e-01    1.230000e+00
  TN1d TC2vq  1 3.400000e-01    1.230000e+00
  TP6d TC3vq  1 4.110000e-01    8.010000e-01
  TP5d TC3vq  1 3.850000e-01    8.550000e-01
  TP4d TC3vq  1 3.850000e-01    8.550000e-01
  TP3d TC3vq  1 3.850000e-01    8.550000e-01
  TP2d TC3vq  1 3.660000e-01    9.350000e-01
  TP1d TC3vq  1 3.660000e-01    9.350000e-01
  TN6d TC3vq  1 3.520000e-01    1.050000e+00
  TN5d TC3vq  1 3.400000e-01    1.230000e+00
  TN4d TC3vq  1 3.400000e-01    1.230000e+00
  TN3d TC3vq  1 3.400000e-01    1.230000e+00
  TN2d TC3vq  1 3.400000e-01    1.510000e+00
  TN1d TC3vq  1 3.400000e-01    1.510000e+00
  TP6d TC4vq  1 3.850000e-01    8.550000e-01
  TP5d TC4vq  1 3.660000e-01    9.350000e-01
  TP4d TC4vq  1 3.660000e-01    9.350000e-01
  TP3d TC4vq  1 3.520000e-01    1.050000e+00
  TP2d TC4vq  1 3.520000e-01    1.050000e+00
  TP1d TC4vq  1 3.520000e-01    1.050000e+00
  TN6d TC4vq  1 3.400000e-01    1.230000e+00
  TN5d TC4vq  1 3.400000e-01    1.230000e+00
  TN4d TC4vq  1 3.400000e-01    1.510000e+00
  TN3d TC4vq  1 3.400000e-01    1.510000e+00
  TN2d TC4vq  1 3.400000e-01    1.510000e+00
  TN1d TC4vq  1 3.400000e-01    1.770000e+00
  TP6d TC5vq  1 3.660000e-01    9.350000e-01
  TP5d TC5vq  1 3.520000e-01    1.050000e+00
  TP4d TC5vq  1 3.520000e-01    1.050000e+00
  TP3d TC5vq  1 3.400000e-01    1.230000e+00
  TP2d TC5vq  1 3.400000e-01    1.230000e+00
  TP1d TC5vq  1 3.400000e-01    1.230000e+00
  TN6d TC5vq  1 3.400000e-01    1.510000e+00
  TN5d TC5vq  1 3.400000e-01    1.510000e+00
  TN4d TC5vq  1 3.400000e-01    1.510000e+00
  TN3d TC5vq  1 3.400000e-01    1.510000e+00
  TN2d TC5vq  1 3.400000e-01    1.510000e+00
  TN1d TC5vq  1 3.400000e-01    1.770000e+00
  TP6d TC6vq  1 3.520000e-01    1.050000e+00
  TP5d TC6vq  1 3.520000e-01    1.050000e+00
  TP4d TC6vq  1 3.400000e-01    1.230000e+00
  TP3d TC6vq  1 3.400000e-01    1.510000e+00
  TP2d TC6vq  1 3.400000e-01    1.510000e+00
  TP1d TC6vq  1 3.400000e-01    1.510000e+00
  TN6d TC6vq  1 3.400000e-01    1.770000e+00
  TN5d TC6vq  1 3.400000e-01    1.770000e+00
  TN4d TC6vq  1 3.400000e-01    1.770000e+00
  TN3d TC6vq  1 3.400000e-01    1.770000e+00
  TN2d TC6vq  1 3.400000e-01    1.770000e+00
  TN1d TC6vq  1 3.400000e-01    2.020000e+00
  TP6d TX1vh  1 4.110000e-01    8.010000e-01
  TP5d TX1vh  1 4.110000e-01    8.010000e-01
  TP4d TX1vh  1 3.850000e-01    8.550000e-01
  TP3d TX1vh  1 3.850000e-01    8.550000e-01
  TP2d TX1vh  1 3.850000e-01    8.550000e-01
  TP1d TX1vh  1 3.850000e-01    8.550000e-01
  TN6d TX1vh  1 3.850000e-01    8.550000e-01
  TN5d TX1vh  1 3.660000e-01    9.350000e-01
  TN4d TX1vh  1 3.660000e-01    9.350000e-01
  TN3d TX1vh  1 3.520000e-01    1.050000e+00
  TN2d TX1vh  1 3.520000e-01    1.050000e+00
  TN1d TX1vh  1 3.520000e-01    1.050000e+00
  TP6d TX2vh  1 3.850000e-01    8.550000e-01
  TP5d TX2vh  1 3.660000e-01    9.350000e-01
  TP4d TX2vh  1 3.660000e-01    9.350000e-01
  TP3d TX2vh  1 3.660000e-01    9.350000e-01
  TP2d TX2vh  1 3.660000e-01    9.350000e-01
  TP1d TX2vh  1 3.660000e-01    9.350000e-01
  TN6d TX2vh  1 3.660000e-01    9.350000e-01
  TN5d TX2vh  1 3.520000e-01    1.050000e+00
  TN4d TX2vh  1 3.520000e-01    1.050000e+00
  TN3d TX2vh  1 3.520000e-01    1.050000e+00
  TN2d TX2vh  1 3.520000e-01    1.050000e+00
  TN1d TX2vh  1 3.520000e-01    1.050000e+00
  TP6d TX3vh  1 3.660000e-01    9.350000e-01
  TP5d TX3vh  1 3.660000e-01    9.350000e-01
  TP4d TX3vh  1 3.660000e-01    9.350000e-01
  TP3d TX3vh  1 3.520000e-01    1.050000e+00
  TP2d TX3vh  1 3.520000e-01    1.050000e+00
  TP1d TX3vh  1 3.520000e-01    1.050000e+00
  TN6d TX3vh  1 3.520000e-01    1.050000e+00
  TN5d TX3vh  1 3.400000e-01    1.230000e+00
  TN4d TX3vh  1 3.400000e-01    1.510000e+00
  TN3d TX3vh  1 3.400000e-01    1.230000e+00
  TN2d TX3vh  1 3.400000e-01    1.230000e+00
  TN1d TX3vh  1 3.400000e-01    1.230000e+00
  TP6d TX4vh  1 3.660000e-01    9.350000e-01
  TP5d TX4vh  1 3.520000e-01    1.050000e+00
  TP4d TX4vh  1 3.520000e-01    1.050000e+00
  TP3d TX4vh  1 3.520000e-01    1.050000e+00
  TP2d TX4vh  1 3.520000e-01    1.050000e+00
  TP1d TX4vh  1 3.520000e-01    1.050000e+00
  TN6d TX4vh  1 3.400000e-01    1.230000e+00
  TN5d TX4vh  1 3.400000e-01    1.510000e+00
  TN4d TX4vh  1 3.400000e-01    1.770000e+00
  TN3d TX4vh  1 3.400000e-01    1.510000e+00
  TN2d TX4vh  1 3.400000e-01    1.510000e+00
  TN1d TX4vh  1 3.400000e-01    1.230000e+00
  TP6d TC1vh  1 5.610000e-01    6.300000e-01
  TP5d TC1vh  1 4.380000e-01    7.310000e-01
  TP4d TC1vh  1 4.380000e-01    7.310000e-01
  TP3d TC1vh  1 4.380000e-01    7.310000e-01
  TP2d TC1vh  1 4.240000e-01    7.760000e-01
  TP1d TC1vh  1 4.240000e-01    7.760000e-01
  TN6d TC1vh  1 4.110000e-01    8.010000e-01
  TN5d TC1vh  1 4.110000e-01    8.010000e-01
  TN4d TC1vh  1 4.110000e-01    8.010000e-01
  TN3d TC1vh  1 3.850000e-01    8.550000e-01
  TN2d TC1vh  1 3.850000e-01    8.550000e-01
  TN1d TC1vh  1 3.850000e-01    8.550000e-01
  TP6d TC2vh  1 4.380000e-01    7.310000e-01
  TP5d TC2vh  1 4.240000e-01    7.760000e-01
  TP4d TC2vh  1 4.240000e-01    7.760000e-01
  TP3d TC2vh  1 4.240000e-01    7.760000e-01
  TP2d TC2vh  1 4.110000e-01    8.010000e-01
  TP1d TC2vh  1 4.110000e-01    8.010000e-01
  TN6d TC2vh  1 3.850000e-01    8.550000e-01
  TN5d TC2vh  1 3.850000e-01    8.550000e-01
  TN4d TC2vh  1 3.850000e-01    8.550000e-01
  TN3d TC2vh  1 3.660000e-01    9.350000e-01
  TN2d TC2vh  1 3.660000e-01    9.350000e-01
  TN1d TC2vh  1 3.660000e-01    9.350000e-01
  TP6d TC3vh  1 4.380000e-01    7.310000e-01
  TP5d TC3vh  1 4.240000e-01    7.760000e-01
  TP4d TC3vh  1 4.240000e-01    7.760000e-01
  TP3d TC3vh  1 4.240000e-01    7.760000e-01
  TP2d TC3vh  1 4.110000e-01    8.010000e-01
  TP1d TC3vh  1 4.110000e-01    8.010000e-01
  TN6d TC3vh  1 3.850000e-01    8.550000e-01
  TN5d TC3vh  1 3.660000e-01    9.350000e-01
  TN4d TC3vh  1 3.660000e-01    9.350000e-01
  TN3d TC3vh  1 3.660000e-01    9.350000e-01
  TN2d TC3vh  1 3.520000e-01    1.050000e+00
  TN1d TC3vh  1 3.520000e-01    1.050000e+00
  TP6d TC4vh  1 4.240000e-01    7.760000e-01
  TP5d TC4vh  1 4.110000e-01    8.010000e-01
  TP4d TC4vh  1 4.110000e-01    8.010000e-01
  TP3d TC4vh  1 3.850000e-01    8.550000e-01
  TP2d TC4vh  1 3.850000e-01    8.550000e-01
  TP1d TC4vh  1 3.850000e-01    8.550000e-01
  TN6d TC4vh  1 3.660000e-01    9.350000e-01
  TN5d TC4vh  1 3.660000e-01    9.350000e-01
  TN4d TC4vh  1 3.520000e-01    1.050000e+00
  TN3d TC4vh  1 3.520000e-01    1.050000e+00
  TN2d TC4vh  1 3.520000e-01    1.050000e+00
  TN1d TC4vh  1 3.400000e-01    1.230000e+00
  TP6d TC5vh  1 4.110000e-01    8.010000e-01
  TP5d TC5vh  1 3.850000e-01    8.550000e-01
  TP4d TC5vh  1 3.850000e-01    8.550000e-01
  TP3d TC5vh  1 3.660000e-01    9.350000e-01
  TP2d TC5vh  1 3.660000e-01    9.350000e-01
  TP1d TC5vh  1 3.660000e-01    9.350000e-01
  TN6d TC5vh  1 3.520000e-01    1.050000e+00
  TN5d TC5vh  1 3.520000e-01    1.050000e+00
  TN4d TC5vh  1 3.520000e-01    1.050000e+00
  TN3d TC5vh  1 3.520000e-01    1.050000e+00
  TN2d TC5vh  1 3.520000e-01    1.050000e+00
  TN1d TC5vh  1 3.400000e-01    1.230000e+00
  TP6d TC6vh  1 3.850000e-01    8.550000e-01
  TP5d TC6vh  1 3.850000e-01    8.550000e-01
  TP4d TC6vh  1 3.660000e-01    9.350000e-01
  TP3d TC6vh  1 3.520000e-01    1.050000e+00
  TP2d TC6vh  1 3.520000e-01    1.050000e+00
  TP1d TC6vh  1 3.520000e-01    1.050000e+00
  TN6d TC6vh  1 3.400000e-01    1.230000e+00
  TN5d TC6vh  1 3.400000e-01    1.230000e+00
  TN4d TC6vh  1 3.400000e-01    1.230000e+00
  TN3d TC6vh  1 3.400000e-01    1.230000e+00
  TN2d TC6vh  1 3.400000e-01    1.230000e+00
  TN1d TC6vh  1 3.400000e-01    1.510000e+00
  TP6d TX1vr  1 4.110000e-01    8.010000e-01
  TP5d TX1vr  1 4.110000e-01    8.010000e-01
  TP4d TX1vr  1 3.850000e-01    8.550000e-01
  TP3d TX1vr  1 3.850000e-01    8.550000e-01
  TP2d TX1vr  1 3.850000e-01    8.550000e-01
  TP1d TX1vr  1 3.850000e-01    8.550000e-01
  TN6d TX1vr  1 3.850000e-01    8.550000e-01
  TN5d TX1vr  1 3.660000e-01    9.350000e-01
  TN4d TX1vr  1 3.660000e-01    9.350000e-01
  TN3d TX1vr  1 3.520000e-01    1.050000e+00
  TN2d TX1vr  1 3.520000e-01    1.050000e+00
  TN1d TX1vr  1 3.520000e-01    1.050000e+00
  TP6d TX2vr  1 3.850000e-01    8.550000e-01
  TP5d TX2vr  1 3.660000e-01    9.350000e-01
  TP4d TX2vr  1 3.660000e-01    9.350000e-01
  TP3d TX2vr  1 3.660000e-01    9.350000e-01
  TP2d TX2vr  1 3.660000e-01    9.350000e-01
  TP1d TX2vr  1 3.660000e-01    9.350000e-01
  TN6d TX2vr  1 3.660000e-01    9.350000e-01
  TN5d TX2vr  1 3.520000e-01    1.050000e+00
  TN4d TX2vr  1 3.520000e-01    1.050000e+00
  TN3d TX2vr  1 3.520000e-01    1.050000e+00
  TN2d TX2vr  1 3.520000e-01    1.050000e+00
  TN1d TX2vr  1 3.520000e-01    1.050000e+00
  TP6d TX3vr  1 3.660000e-01    9.350000e-01
  TP5d TX3vr  1 3.660000e-01    9.350000e-01
  TP4d TX3vr  1 3.660000e-01    9.350000e-01
  TP3d TX3vr  1 3.520000e-01    1.050000e+00
  TP2d TX3vr  1 3.520000e-01    1.050000e+00
  TP1d TX3vr  1 3.520000e-01    1.050000e+00
  TN6d TX3vr  1 3.520000e-01    1.050000e+00
  TN5d TX3vr  1 3.400000e-01    1.230000e+00
  TN4d TX3vr  1 3.400000e-01    1.510000e+00
  TN3d TX3vr  1 3.400000e-01    1.230000e+00
  TN2d TX3vr  1 3.400000e-01    1.230000e+00
  TN1d TX3vr  1 3.400000e-01    1.230000e+00
  TP6d TX4vr  1 3.660000e-01    9.350000e-01
  TP5d TX4vr  1 3.520000e-01    1.050000e+00
  TP4d TX4vr  1 3.520000e-01    1.050000e+00
  TP3d TX4vr  1 3.520000e-01    1.050000e+00
  TP2d TX4vr  1 3.520000e-01    1.050000e+00
  TP1d TX4vr  1 3.520000e-01    1.050000e+00
  TN6d TX4vr  1 3.400000e-01    1.230000e+00
  TN5d TX4vr  1 3.400000e-01    1.510000e+00
  TN4d TX4vr  1 3.400000e-01    1.770000e+00
  TN3d TX4vr  1 3.400000e-01    1.510000e+00
  TN2d TX4vr  1 3.400000e-01    1.510000e+00
  TN1d TX4vr  1 3.400000e-01    1.230000e+00
  TP6d TC1vr  1 5.610000e-01    6.300000e-01
  TP5d TC1vr  1 4.380000e-01    7.310000e-01
  TP4d TC1vr  1 4.380000e-01    7.310000e-01
  TP3d TC1vr  1 4.380000e-01    7.310000e-01
  TP2d TC1vr  1 4.240000e-01    7.760000e-01
  TP1d TC1vr  1 4.240000e-01    7.760000e-01
  TN6d TC1vr  1 4.110000e-01    8.010000e-01
  TN5d TC1vr  1 4.110000e-01    8.010000e-01
  TN4d TC1vr  1 4.110000e-01    8.010000e-01
  TN3d TC1vr  1 3.850000e-01    8.550000e-01
  TN2d TC1vr  1 3.850000e-01    8.550000e-01
  TN1d TC1vr  1 3.850000e-01    8.550000e-01
  TP6d TC2vr  1 4.380000e-01    7.310000e-01
  TP5d TC2vr  1 4.240000e-01    7.760000e-01
  TP4d TC2vr  1 4.240000e-01    7.760000e-01
  TP3d TC2vr  1 4.240000e-01    7.760000e-01
  TP2d TC2vr  1 4.110000e-01    8.010000e-01
  TP1d TC2vr  1 4.110000e-01    8.010000e-01
  TN6d TC2vr  1 3.850000e-01    8.550000e-01
  TN5d TC2vr  1 3.850000e-01    8.550000e-01
  TN4d TC2vr  1 3.850000e-01    8.550000e-01
  TN3d TC2vr  1 3.660000e-01    9.350000e-01
  TN2d TC2vr  1 3.660000e-01    9.350000e-01
  TN1d TC2vr  1 3.660000e-01    9.350000e-01
  TP6d TC3vr  1 4.380000e-01    7.310000e-01
  TP5d TC3vr  1 4.240000e-01    7.760000e-01
  TP4d TC3vr  1 4.240000e-01    7.760000e-01
  TP3d TC3vr  1 4.240000e-01    7.760000e-01
  TP2d TC3vr  1 4.110000e-01    8.010000e-01
  TP1d TC3vr  1 4.110000e-01    8.010000e-01
  TN6d TC3vr  1 3.850000e-01    8.550000e-01
  TN5d TC3vr  1 3.660000e-01    9.350000e-01
  TN4d TC3vr  1 3.660000e-01    9.350000e-01
  TN3d TC3vr  1 3.660000e-01    9.350000e-01
  TN2d TC3vr  1 3.520000e-01    1.050000e+00
  TN1d TC3vr  1 3.520000e-01    1.050000e+00
  TP6d TC4vr  1 4.240000e-01    7.760000e-01
  TP5d TC4vr  1 4.110000e-01    8.010000e-01
  TP4d TC4vr  1 4.110000e-01    8.010000e-01
  TP3d TC4vr  1 3.850000e-01    8.550000e-01
  TP2d TC4vr  1 3.850000e-01    8.550000e-01
  TP1d TC4vr  1 3.850000e-01    8.550000e-01
  TN6d TC4vr  1 3.660000e-01    9.350000e-01
  TN5d TC4vr  1 3.660000e-01    9.350000e-01
  TN4d TC4vr  1 3.520000e-01    1.050000e+00
  TN3d TC4vr  1 3.520000e-01    1.050000e+00
  TN2d TC4vr  1 3.520000e-01    1.050000e+00
  TN1d TC4vr  1 3.400000e-01    1.230000e+00
  TP6d TC5vr  1 4.110000e-01    8.010000e-01
  TP5d TC5vr  1 3.850000e-01    8.550000e-01
  TP4d TC5vr  1 3.850000e-01    8.550000e-01
  TP3d TC5vr  1 3.660000e-01    9.350000e-01
  TP2d TC5vr  1 3.660000e-01    9.350000e-01
  TP1d TC5vr  1 3.660000e-01    9.350000e-01
  TN6d TC5vr  1 3.520000e-01    1.050000e+00
  TN5d TC5vr  1 3.520000e-01    1.050000e+00
  TN4d TC5vr  1 3.520000e-01    1.050000e+00
  TN3d TC5vr  1 3.520000e-01    1.050000e+00
  TN2d TC5vr  1 3.520000e-01    1.050000e+00
  TN1d TC5vr  1 3.400000e-01    1.230000e+00
  TP6d TC6vr  1 3.850000e-01    8.550000e-01
  TP5d TC6vr  1 3.850000e-01    8.550000e-01
  TP4d TC6vr  1 3.660000e-01    9.350000e-01
  TP3d TC6vr  1 3.520000e-01    1.050000e+00
  TP2d TC6vr  1 3.520000e-01    1.050000e+00
  TP1d TC6vr  1 3.520000e-01    1.050000e+00
  TN6d TC6vr  1 3.400000e-01    1.230000e+00
  TN5d TC6vr  1 3.400000e-01    1.230000e+00
  TN4d TC6vr  1 3.400000e-01    1.230000e+00
  TN3d TC6vr  1 3.400000e-01    1.230000e+00
  TN2d TC6vr  1 3.400000e-01    1.230000e+00
  TN1d TC6vr  1 3.400000e-01    1.510000e+00
 TP6dq  TC6v  1 3.520000e-01    1.050000e+00
 TP6dq  TC5v  1 3.660000e-01    9.350000e-01
 TP6dq  TC4v  1 3.850000e-01    8.550000e-01
 TP6dq  TC3v  1 4.110000e-01    8.010000e-01
 TP6dq  TC2v  1 4.110000e-01    8.010000e-01
 TP6dq  TC1v  1 4.380000e-01    7.310000e-01
 TP6dq  TX4v  1 3.400000e-01    1.230000e+00
 TP6dq  TX3v  1 3.400000e-01    1.230000e+00
 TP6dq  TX2v  1 3.520000e-01    1.050000e+00
 TP6dq  TX1v  1 3.660000e-01    9.350000e-01
 TP5dq  TC6v  1 3.520000e-01    1.050000e+00
 TP5dq  TC5v  1 3.520000e-01    1.050000e+00
 TP5dq  TC4v  1 3.660000e-01    9.350000e-01
 TP5dq  TC3v  1 3.850000e-01    8.550000e-01
 TP5dq  TC2v  1 3.850000e-01    8.550000e-01
 TP5dq  TC1v  1 4.110000e-01    8.010000e-01
 TP5dq  TX4v  1 3.400000e-01    1.510000e+00
 TP5dq  TX3v  1 3.400000e-01    1.230000e+00
 TP5dq  TX2v  1 3.400000e-01    1.230000e+00
 TP5dq  TX1v  1 3.660000e-01    9.350000e-01
 TP4dq  TC6v  1 3.400000e-01    1.230000e+00
 TP4dq  TC5v  1 3.520000e-01    1.050000e+00
 TP4dq  TC4v  1 3.660000e-01    9.350000e-01
 TP4dq  TC3v  1 3.850000e-01    8.550000e-01
 TP4dq  TC2v  1 3.850000e-01    8.550000e-01
 TP4dq  TC1v  1 4.110000e-01    8.010000e-01
 TP4dq  TX4v  1 3.400000e-01    1.510000e+00
 TP4dq  TX3v  1 3.400000e-01    1.230000e+00
 TP4dq  TX2v  1 3.400000e-01    1.230000e+00
 TP4dq  TX1v  1 3.520000e-01    1.050000e+00
 TP3dq  TC6v  1 3.400000e-01    1.510000e+00
 TP3dq  TC5v  1 3.400000e-01    1.230000e+00
 TP3dq  TC4v  1 3.520000e-01    1.050000e+00
 TP3dq  TC3v  1 3.850000e-01    8.550000e-01
 TP3dq  TC2v  1 3.850000e-01    8.550000e-01
 TP3dq  TC1v  1 4.110000e-01    8.010000e-01
 TP3dq  TX4v  1 3.400000e-01    1.510000e+00
 TP3dq  TX3v  1 3.400000e-01    1.510000e+00
 TP3dq  TX2v  1 3.400000e-01    1.230000e+00
 TP3dq  TX1v  1 3.520000e-01    1.050000e+00
 TP2dq  TC6v  1 3.400000e-01    1.510000e+00
 TP2dq  TC5v  1 3.400000e-01    1.230000e+00
 TP2dq  TC4v  1 3.520000e-01    1.050000e+00
 TP2dq  TC3v  1 3.660000e-01    9.350000e-01
 TP2dq  TC2v  1 3.660000e-01    9.350000e-01
 TP2dq  TC1v  1 3.850000e-01    8.550000e-01
 TP2dq  TX4v  1 3.400000e-01    1.510000e+00
 TP2dq  TX3v  1 3.400000e-01    1.510000e+00
 TP2dq  TX2v  1 3.400000e-01    1.230000e+00
 TP2dq  TX1v  1 3.520000e-01    1.050000e+00
 TP1dq  TC6v  1 3.400000e-01    1.510000e+00
 TP1dq  TC5v  1 3.400000e-01    1.230000e+00
 TP1dq  TC4v  1 3.520000e-01    1.050000e+00
 TP1dq  TC3v  1 3.660000e-01    9.350000e-01
 TP1dq  TC2v  1 3.660000e-01    9.350000e-01
 TP1dq  TC1v  1 3.850000e-01    8.550000e-01
 TP1dq  TX4v  1 3.400000e-01    1.510000e+00
 TP1dq  TX3v  1 3.400000e-01    1.510000e+00
 TP1dq  TX2v  1 3.400000e-01    1.230000e+00
 TP1dq  TX1v  1 3.520000e-01    1.050000e+00
 TN6dq  TC6v  1 3.400000e-01    1.770000e+00
 TN6dq  TC5v  1 3.400000e-01    1.510000e+00
 TN6dq  TC4v  1 3.400000e-01    1.230000e+00
 TN6dq  TC3v  1 3.520000e-01    1.050000e+00
 TN6dq  TC2v  1 3.520000e-01    1.050000e+00
 TN6dq  TC1v  1 3.660000e-01    9.350000e-01
 TN6dq  TX4v  1 3.400000e-01    1.770000e+00
 TN6dq  TX3v  1 3.400000e-01    1.510000e+00
 TN6dq  TX2v  1 3.400000e-01    1.230000e+00
 TN6dq  TX1v  1 3.520000e-01    1.050000e+00
 TN5dq  TC6v  1 3.400000e-01    1.770000e+00
 TN5dq  TC5v  1 3.400000e-01    1.510000e+00
 TN5dq  TC4v  1 3.400000e-01    1.230000e+00
 TN5dq  TC3v  1 3.400000e-01    1.230000e+00
 TN5dq  TC2v  1 3.520000e-01    1.050000e+00
 TN5dq  TC1v  1 3.660000e-01    9.350000e-01
 TN5dq  TX4v  1 3.400000e-01    2.020000e+00
 TN5dq  TX3v  1 3.400000e-01    1.770000e+00
 TN5dq  TX2v  1 3.400000e-01    1.510000e+00
 TN5dq  TX1v  1 3.400000e-01    1.230000e+00
 TN4dq  TC6v  1 3.400000e-01    1.770000e+00
 TN4dq  TC5v  1 3.400000e-01    1.510000e+00
 TN4dq  TC4v  1 3.400000e-01    1.510000e+00
 TN4dq  TC3v  1 3.400000e-01    1.230000e+00
 TN4dq  TC2v  1 3.520000e-01    1.050000e+00
 TN4dq  TC1v  1 3.660000e-01    9.350000e-01
 TN4dq  TX4v  1 3.400000e-01    2.280000e+00
 TN4dq  TX3v  1 3.400000e-01    2.020000e+00
 TN4dq  TX2v  1 3.400000e-01    1.510000e+00
 TN4dq  TX1v  1 3.400000e-01    1.230000e+00
 TN3dq  TC6v  1 3.400000e-01    1.770000e+00
 TN3dq  TC5v  1 3.400000e-01    1.510000e+00
 TN3dq  TC4v  1 3.400000e-01    1.510000e+00
 TN3dq  TC3v  1 3.400000e-01    1.230000e+00
 TN3dq  TC2v  1 3.400000e-01    1.230000e+00
 TN3dq  TC1v  1 3.520000e-01    1.050000e+00
 TN3dq  TX4v  1 3.400000e-01    2.020000e+00
 TN3dq  TX3v  1 3.400000e-01    1.770000e+00
 TN3dq  TX2v  1 3.400000e-01    1.510000e+00
 TN3dq  TX1v  1 3.400000e-01    1.510000e+00
 TN2dq  TC6v  1 3.400000e-01    1.770000e+00
 TN2dq  TC5v  1 3.400000e-01    1.510000e+00
 TN2dq  TC4v  1 3.400000e-01    1.510000e+00
 TN2dq  TC3v  1 3.400000e-01    1.510000e+00
 TN2dq  TC2v  1 3.400000e-01    1.230000e+00
 TN2dq  TC1v  1 3.520000e-01    1.050000e+00
 TN2dq  TX4v  1 3.400000e-01    2.020000e+00
 TN2dq  TX3v  1 3.400000e-01    1.770000e+00
 TN2dq  TX2v  1 3.400000e-01    1.510000e+00
 TN2dq  TX1v  1 3.400000e-01    1.510000e+00
 TN1dq  TC6v  1 3.400000e-01    2.020000e+00
 TN1dq  TC5v  1 3.400000e-01    1.770000e+00
 TN1dq  TC4v  1 3.400000e-01    1.770000e+00
 TN1dq  TC3v  1 3.400000e-01    1.510000e+00
 TN1dq  TC2v  1 3.400000e-01    1.230000e+00
 TN1dq  TC1v  1 3.520000e-01    1.050000e+00
 TN1dq  TX4v  1 3.400000e-01    1.770000e+00
 TN1dq  TX3v  1 3.400000e-01    1.770000e+00
 TN1dq  TX2v  1 3.400000e-01    1.510000e+00
 TN1dq  TX1v  1 3.400000e-01    1.510000e+00
 TP6dq TC6vq  1 3.520000e-01    1.050000e+00
 TP6dq TC5vq  1 3.660000e-01    9.350000e-01
 TP6dq TC4vq  1 3.850000e-01    8.550000e-01
 TP6dq TC3vq  1 4.110000e-01    8.010000e-01
 TP6dq TC2vq  1 4.110000e-01    8.010000e-01
 TP6dq TC1vq  1 4.380000e-01    7.310000e-01
 TP6dq TX4vq  1 3.400000e-01    1.230000e+00
 TP6dq TX3vq  1 3.400000e-01    1.230000e+00
 TP6dq TX2vq  1 3.520000e-01    1.050000e+00
 TP6dq TX1vq  1 3.660000e-01    9.350000e-01
 TP5dq TC6vq  1 3.520000e-01    1.050000e+00
 TP5dq TC5vq  1 3.520000e-01    1.050000e+00
 TP5dq TC4vq  1 3.660000e-01    9.350000e-01
 TP5dq TC3vq  1 3.850000e-01    8.550000e-01
 TP5dq TC2vq  1 3.850000e-01    8.550000e-01
 TP5dq TC1vq  1 4.110000e-01    8.010000e-01
 TP5dq TX4vq  1 3.400000e-01    1.510000e+00
 TP5dq TX3vq  1 3.400000e-01    1.230000e+00
 TP5dq TX2vq  1 3.400000e-01    1.230000e+00
 TP5dq TX1vq  1 3.660000e-01    9.350000e-01
 TP4dq TC6vq  1 3.400000e-01    1.230000e+00
 TP4dq TC5vq  1 3.520000e-01    1.050000e+00
 TP4dq TC4vq  1 3.660000e-01    9.350000e-01
 TP4dq TC3vq  1 3.850000e-01    8.550000e-01
 TP4dq TC2vq  1 3.850000e-01    8.550000e-01
 TP4dq TC1vq  1 4.110000e-01    8.010000e-01
 TP4dq TX4vq  1 3.400000e-01    1.510000e+00
 TP4dq TX3vq  1 3.400000e-01    1.230000e+00
 TP4dq TX2vq  1 3.400000e-01    1.230000e+00
 TP4dq TX1vq  1 3.520000e-01    1.050000e+00
 TP3dq TC6vq  1 3.400000e-01    1.510000e+00
 TP3dq TC5vq  1 3.400000e-01    1.230000e+00
 TP3dq TC4vq  1 3.520000e-01    1.050000e+00
 TP3dq TC3vq  1 3.850000e-01    8.550000e-01
 TP3dq TC2vq  1 3.850000e-01    8.550000e-01
 TP3dq TC1vq  1 4.110000e-01    8.010000e-01
 TP3dq TX4vq  1 3.400000e-01    1.510000e+00
 TP3dq TX3vq  1 3.400000e-01    1.510000e+00
 TP3dq TX2vq  1 3.400000e-01    1.230000e+00
 TP3dq TX1vq  1 3.520000e-01    1.050000e+00
 TP2dq TC6vq  1 3.400000e-01    1.510000e+00
 TP2dq TC5vq  1 3.400000e-01    1.230000e+00
 TP2dq TC4vq  1 3.520000e-01    1.050000e+00
 TP2dq TC3vq  1 3.660000e-01    9.350000e-01
 TP2dq TC2vq  1 3.660000e-01    9.350000e-01
 TP2dq TC1vq  1 3.850000e-01    8.550000e-01
 TP2dq TX4vq  1 3.400000e-01    1.510000e+00
 TP2dq TX3vq  1 3.400000e-01    1.510000e+00
 TP2dq TX2vq  1 3.400000e-01    1.230000e+00
 TP2dq TX1vq  1 3.520000e-01    1.050000e+00
 TP1dq TC6vq  1 3.400000e-01    1.510000e+00
 TP1dq TC5vq  1 3.400000e-01    1.230000e+00
 TP1dq TC4vq  1 3.520000e-01    1.050000e+00
 TP1dq TC3vq  1 3.660000e-01    9.350000e-01
 TP1dq TC2vq  1 3.660000e-01    9.350000e-01
 TP1dq TC1vq  1 3.850000e-01    8.550000e-01
 TP1dq TX4vq  1 3.400000e-01    1.510000e+00
 TP1dq TX3vq  1 3.400000e-01    1.510000e+00
 TP1dq TX2vq  1 3.400000e-01    1.230000e+00
 TP1dq TX1vq  1 3.520000e-01    1.050000e+00
 TN6dq TC6vq  1 3.400000e-01    1.770000e+00
 TN6dq TC5vq  1 3.400000e-01    1.510000e+00
 TN6dq TC4vq  1 3.400000e-01    1.230000e+00
 TN6dq TC3vq  1 3.520000e-01    1.050000e+00
 TN6dq TC2vq  1 3.520000e-01    1.050000e+00
 TN6dq TC1vq  1 3.660000e-01    9.350000e-01
 TN6dq TX4vq  1 3.400000e-01    1.770000e+00
 TN6dq TX3vq  1 3.400000e-01    1.510000e+00
 TN6dq TX2vq  1 3.400000e-01    1.230000e+00
 TN6dq TX1vq  1 3.520000e-01    1.050000e+00
 TN5dq TC6vq  1 3.400000e-01    1.770000e+00
 TN5dq TC5vq  1 3.400000e-01    1.510000e+00
 TN5dq TC4vq  1 3.400000e-01    1.230000e+00
 TN5dq TC3vq  1 3.400000e-01    1.230000e+00
 TN5dq TC2vq  1 3.520000e-01    1.050000e+00
 TN5dq TC1vq  1 3.660000e-01    9.350000e-01
 TN5dq TX4vq  1 3.400000e-01    2.020000e+00
 TN5dq TX3vq  1 3.400000e-01    1.770000e+00
 TN5dq TX2vq  1 3.400000e-01    1.510000e+00
 TN5dq TX1vq  1 3.400000e-01    1.230000e+00
 TN4dq TC6vq  1 3.400000e-01    1.770000e+00
 TN4dq TC5vq  1 3.400000e-01    1.510000e+00
 TN4dq TC4vq  1 3.400000e-01    1.510000e+00
 TN4dq TC3vq  1 3.400000e-01    1.230000e+00
 TN4dq TC2vq  1 3.520000e-01    1.050000e+00
 TN4dq TC1vq  1 3.660000e-01    9.350000e-01
 TN4dq TX4vq  1 3.400000e-01    2.280000e+00
 TN4dq TX3vq  1 3.400000e-01    2.020000e+00
 TN4dq TX2vq  1 3.400000e-01    1.510000e+00
 TN4dq TX1vq  1 3.400000e-01    1.230000e+00
 TN3dq TC6vq  1 3.400000e-01    1.770000e+00
 TN3dq TC5vq  1 3.400000e-01    1.510000e+00
 TN3dq TC4vq  1 3.400000e-01    1.510000e+00
 TN3dq TC3vq  1 3.400000e-01    1.230000e+00
 TN3dq TC2vq  1 3.400000e-01    1.230000e+00
 TN3dq TC1vq  1 3.520000e-01    1.050000e+00
 TN3dq TX4vq  1 3.400000e-01    2.020000e+00
 TN3dq TX3vq  1 3.400000e-01    1.770000e+00
 TN3dq TX2vq  1 3.400000e-01    1.510000e+00
 TN3dq TX1vq  1 3.400000e-01    1.510000e+00
 TN2dq TC6vq  1 3.400000e-01    1.770000e+00
 TN2dq TC5vq  1 3.400000e-01    1.510000e+00
 TN2dq TC4vq  1 3.400000e-01    1.510000e+00
 TN2dq TC3vq  1 3.400000e-01    1.510000e+00
 TN2dq TC2vq  1 3.400000e-01    1.230000e+00
 TN2dq TC1vq  1 3.520000e-01    1.050000e+00
 TN2dq TX4vq  1 3.400000e-01    2.020000e+00
 TN2dq TX3vq  1 3.400000e-01    1.770000e+00
 TN2dq TX2vq  1 3.400000e-01    1.510000e+00
 TN2dq TX1vq  1 3.400000e-01    1.510000e+00
 TN1dq TC6vq  1 3.400000e-01    2.020000e+00
 TN1dq TC5vq  1 3.400000e-01    1.770000e+00
 TN1dq TC4vq  1 3.400000e-01    1.770000e+00
 TN1dq TC3vq  1 3.400000e-01    1.510000e+00
 TN1dq TC2vq  1 3.400000e-01    1.230000e+00
 TN1dq TC1vq  1 3.520000e-01    1.050000e+00
 TN1dq TX4vq  1 3.400000e-01    1.770000e+00
 TN1dq TX3vq  1 3.400000e-01    1.770000e+00
 TN1dq TX2vq  1 3.400000e-01    1.510000e+00
 TN1dq TX1vq  1 3.400000e-01    1.510000e+00
 TP6dq TC6vh  1 3.520000e-01    1.050000e+00
 TP5dq TC6vh  1 3.520000e-01    1.050000e+00
 TP4dq TC6vh  1 3.400000e-01    1.230000e+00
 TP3dq TC6vh  1 3.400000e-01    1.510000e+00
 TP2dq TC6vh  1 3.400000e-01    1.510000e+00
 TP1dq TC6vh  1 3.400000e-01    1.510000e+00
 TN6dq TC6vh  1 3.400000e-01    1.770000e+00
 TN5dq TC6vh  1 3.400000e-01    1.770000e+00
 TN4dq TC6vh  1 3.400000e-01    1.770000e+00
 TN3dq TC6vh  1 3.400000e-01    1.770000e+00
 TN2dq TC6vh  1 3.400000e-01    1.770000e+00
 TN1dq TC6vh  1 3.400000e-01    2.020000e+00
 TP6dq TC5vh  1 3.660000e-01    9.350000e-01
 TP5dq TC5vh  1 3.520000e-01    1.050000e+00
 TP4dq TC5vh  1 3.520000e-01    1.050000e+00
 TP3dq TC5vh  1 3.400000e-01    1.230000e+00
 TP2dq TC5vh  1 3.400000e-01    1.230000e+00
 TP1dq TC5vh  1 3.400000e-01    1.230000e+00
 TN6dq TC5vh  1 3.400000e-01    1.510000e+00
 TN5dq TC5vh  1 3.400000e-01    1.510000e+00
 TN4dq TC5vh  1 3.400000e-01    1.510000e+00
 TN3dq TC5vh  1 3.400000e-01    1.510000e+00
 TN2dq TC5vh  1 3.400000e-01    1.510000e+00
 TN1dq TC5vh  1 3.400000e-01    1.770000e+00
 TP6dq TC4vh  1 3.850000e-01    8.550000e-01
 TP5dq TC4vh  1 3.660000e-01    9.350000e-01
 TP4dq TC4vh  1 3.660000e-01    9.350000e-01
 TP3dq TC4vh  1 3.520000e-01    1.050000e+00
 TP2dq TC4vh  1 3.520000e-01    1.050000e+00
 TP1dq TC4vh  1 3.520000e-01    1.050000e+00
 TN6dq TC4vh  1 3.400000e-01    1.230000e+00
 TN5dq TC4vh  1 3.400000e-01    1.230000e+00
 TN4dq TC4vh  1 3.400000e-01    1.510000e+00
 TN3dq TC4vh  1 3.400000e-01    1.510000e+00
 TN2dq TC4vh  1 3.400000e-01    1.510000e+00
 TN1dq TC4vh  1 3.400000e-01    1.770000e+00
 TP6dq TC3vh  1 4.110000e-01    8.010000e-01
 TP5dq TC3vh  1 3.850000e-01    8.550000e-01
 TP4dq TC3vh  1 3.850000e-01    8.550000e-01
 TP3dq TC3vh  1 3.850000e-01    8.550000e-01
 TP2dq TC3vh  1 3.660000e-01    9.350000e-01
 TP1dq TC3vh  1 3.660000e-01    9.350000e-01
 TN6dq TC3vh  1 3.520000e-01    1.050000e+00
 TN5dq TC3vh  1 3.400000e-01    1.230000e+00
 TN4dq TC3vh  1 3.400000e-01    1.230000e+00
 TN3dq TC3vh  1 3.400000e-01    1.230000e+00
 TN2dq TC3vh  1 3.400000e-01    1.510000e+00
 TN1dq TC3vh  1 3.400000e-01    1.510000e+00
 TP6dq TC2vh  1 4.110000e-01    8.010000e-01
 TP5dq TC2vh  1 3.850000e-01    8.550000e-01
 TP4dq TC2vh  1 3.850000e-01    8.550000e-01
 TP3dq TC2vh  1 3.850000e-01    8.550000e-01
 TP2dq TC2vh  1 3.660000e-01    9.350000e-01
 TP1dq TC2vh  1 3.660000e-01    9.350000e-01
 TN6dq TC2vh  1 3.520000e-01    1.050000e+00
 TN5dq TC2vh  1 3.520000e-01    1.050000e+00
 TN4dq TC2vh  1 3.520000e-01    1.050000e+00
 TN3dq TC2vh  1 3.400000e-01    1.230000e+00
 TN2dq TC2vh  1 3.400000e-01    1.230000e+00
 TN1dq TC2vh  1 3.400000e-01    1.230000e+00
 TP6dq TC1vh  1 4.380000e-01    7.310000e-01
 TP5dq TC1vh  1 4.110000e-01    8.010000e-01
 TP4dq TC1vh  1 4.110000e-01    8.010000e-01
 TP3dq TC1vh  1 4.110000e-01    8.010000e-01
 TP2dq TC1vh  1 3.850000e-01    8.550000e-01
 TP1dq TC1vh  1 3.850000e-01    8.550000e-01
 TN6dq TC1vh  1 3.660000e-01    9.350000e-01
 TN5dq TC1vh  1 3.660000e-01    9.350000e-01
 TN4dq TC1vh  1 3.660000e-01    9.350000e-01
 TN3dq TC1vh  1 3.520000e-01    1.050000e+00
 TN2dq TC1vh  1 3.520000e-01    1.050000e+00
 TN1dq TC1vh  1 3.520000e-01    1.050000e+00
 TP6dq TX4vh  1 3.400000e-01    1.230000e+00
 TP5dq TX4vh  1 3.400000e-01    1.510000e+00
 TP4dq TX4vh  1 3.400000e-01    1.510000e+00
 TP3dq TX4vh  1 3.400000e-01    1.510000e+00
 TP2dq TX4vh  1 3.400000e-01    1.510000e+00
 TP1dq TX4vh  1 3.400000e-01    1.510000e+00
 TN6dq TX4vh  1 3.400000e-01    1.770000e+00
 TN5dq TX4vh  1 3.400000e-01    2.020000e+00
 TN4dq TX4vh  1 3.400000e-01    2.280000e+00
 TN3dq TX4vh  1 3.400000e-01    2.020000e+00
 TN2dq TX4vh  1 3.400000e-01    2.020000e+00
 TN1dq TX4vh  1 3.400000e-01    1.770000e+00
 TP6dq TX3vh  1 3.400000e-01    1.230000e+00
 TP5dq TX3vh  1 3.400000e-01    1.230000e+00
 TP4dq TX3vh  1 3.400000e-01    1.230000e+00
 TP3dq TX3vh  1 3.400000e-01    1.510000e+00
 TP2dq TX3vh  1 3.400000e-01    1.510000e+00
 TP1dq TX3vh  1 3.400000e-01    1.510000e+00
 TN6dq TX3vh  1 3.400000e-01    1.510000e+00
 TN5dq TX3vh  1 3.400000e-01    1.770000e+00
 TN4dq TX3vh  1 3.400000e-01    2.020000e+00
 TN3dq TX3vh  1 3.400000e-01    1.770000e+00
 TN2dq TX3vh  1 3.400000e-01    1.770000e+00
 TN1dq TX3vh  1 3.400000e-01    1.770000e+00
 TP6dq TX2vh  1 3.520000e-01    1.050000e+00
 TP5dq TX2vh  1 3.400000e-01    1.230000e+00
 TP4dq TX2vh  1 3.400000e-01    1.230000e+00
 TP3dq TX2vh  1 3.400000e-01    1.230000e+00
 TP2dq TX2vh  1 3.400000e-01    1.230000e+00
 TP1dq TX2vh  1 3.400000e-01    1.230000e+00
 TN6dq TX2vh  1 3.400000e-01    1.230000e+00
 TN5dq TX2vh  1 3.400000e-01    1.510000e+00
 TN4dq TX2vh  1 3.400000e-01    1.510000e+00
 TN3dq TX2vh  1 3.400000e-01    1.510000e+00
 TN2dq TX2vh  1 3.400000e-01    1.510000e+00
 TN1dq TX2vh  1 3.400000e-01    1.510000e+00
 TP6dq TX1vh  1 3.660000e-01    9.350000e-01
 TP5dq TX1vh  1 3.660000e-01    9.350000e-01
 TP4dq TX1vh  1 3.520000e-01    1.050000e+00
 TP3dq TX1vh  1 3.520000e-01    1.050000e+00
 TP2dq TX1vh  1 3.520000e-01    1.050000e+00
 TP1dq TX1vh  1 3.520000e-01    1.050000e+00
 TN6dq TX1vh  1 3.520000e-01    1.050000e+00
 TN5dq TX1vh  1 3.400000e-01    1.230000e+00
 TN4dq TX1vh  1 3.400000e-01    1.230000e+00
 TN3dq TX1vh  1 3.400000e-01    1.510000e+00
 TN2dq TX1vh  1 3.400000e-01    1.510000e+00
 TN1dq TX1vh  1 3.400000e-01    1.510000e+00
 TP6dq TC6vr  1 3.520000e-01    1.050000e+00
 TP5dq TC6vr  1 3.520000e-01    1.050000e+00
 TP4dq TC6vr  1 3.400000e-01    1.230000e+00
 TP3dq TC6vr  1 3.400000e-01    1.510000e+00
 TP2dq TC6vr  1 3.400000e-01    1.510000e+00
 TP1dq TC6vr  1 3.400000e-01    1.510000e+00
 TN6dq TC6vr  1 3.400000e-01    1.770000e+00
 TN5dq TC6vr  1 3.400000e-01    1.770000e+00
 TN4dq TC6vr  1 3.400000e-01    1.770000e+00
 TN3dq TC6vr  1 3.400000e-01    1.770000e+00
 TN2dq TC6vr  1 3.400000e-01    1.770000e+00
 TN1dq TC6vr  1 3.400000e-01    2.020000e+00
 TP6dq TC5vr  1 3.660000e-01    9.350000e-01
 TP5dq TC5vr  1 3.520000e-01    1.050000e+00
 TP4dq TC5vr  1 3.520000e-01    1.050000e+00
 TP3dq TC5vr  1 3.400000e-01    1.230000e+00
 TP2dq TC5vr  1 3.400000e-01    1.230000e+00
 TP1dq TC5vr  1 3.400000e-01    1.230000e+00
 TN6dq TC5vr  1 3.400000e-01    1.510000e+00
 TN5dq TC5vr  1 3.400000e-01    1.510000e+00
 TN4dq TC5vr  1 3.400000e-01    1.510000e+00
 TN3dq TC5vr  1 3.400000e-01    1.510000e+00
 TN2dq TC5vr  1 3.400000e-01    1.510000e+00
 TN1dq TC5vr  1 3.400000e-01    1.770000e+00
 TP6dq TC4vr  1 3.850000e-01    8.550000e-01
 TP5dq TC4vr  1 3.660000e-01    9.350000e-01
 TP4dq TC4vr  1 3.660000e-01    9.350000e-01
 TP3dq TC4vr  1 3.520000e-01    1.050000e+00
 TP2dq TC4vr  1 3.520000e-01    1.050000e+00
 TP1dq TC4vr  1 3.520000e-01    1.050000e+00
 TN6dq TC4vr  1 3.400000e-01    1.230000e+00
 TN5dq TC4vr  1 3.400000e-01    1.230000e+00
 TN4dq TC4vr  1 3.400000e-01    1.510000e+00
 TN3dq TC4vr  1 3.400000e-01    1.510000e+00
 TN2dq TC4vr  1 3.400000e-01    1.510000e+00
 TN1dq TC4vr  1 3.400000e-01    1.770000e+00
 TP6dq TC3vr  1 4.110000e-01    8.010000e-01
 TP5dq TC3vr  1 3.850000e-01    8.550000e-01
 TP4dq TC3vr  1 3.850000e-01    8.550000e-01
 TP3dq TC3vr  1 3.850000e-01    8.550000e-01
 TP2dq TC3vr  1 3.660000e-01    9.350000e-01
 TP1dq TC3vr  1 3.660000e-01    9.350000e-01
 TN6dq TC3vr  1 3.520000e-01    1.050000e+00
 TN5dq TC3vr  1 3.400000e-01    1.230000e+00
 TN4dq TC3vr  1 3.400000e-01    1.230000e+00
 TN3dq TC3vr  1 3.400000e-01    1.230000e+00
 TN2dq TC3vr  1 3.400000e-01    1.510000e+00
 TN1dq TC3vr  1 3.400000e-01    1.510000e+00
 TP6dq TC2vr  1 4.110000e-01    8.010000e-01
 TP5dq TC2vr  1 3.850000e-01    8.550000e-01
 TP4dq TC2vr  1 3.850000e-01    8.550000e-01
 TP3dq TC2vr  1 3.850000e-01    8.550000e-01
 TP2dq TC2vr  1 3.660000e-01    9.350000e-01
 TP1dq TC2vr  1 3.660000e-01    9.350000e-01
 TN6dq TC2vr  1 3.520000e-01    1.050000e+00
 TN5dq TC2vr  1 3.520000e-01    1.050000e+00
 TN4dq TC2vr  1 3.520000e-01    1.050000e+00
 TN3dq TC2vr  1 3.400000e-01    1.230000e+00
 TN2dq TC2vr  1 3.400000e-01    1.230000e+00
 TN1dq TC2vr  1 3.400000e-01    1.230000e+00
 TP6dq TC1vr  1 4.380000e-01    7.310000e-01
 TP5dq TC1vr  1 4.110000e-01    8.010000e-01
 TP4dq TC1vr  1 4.110000e-01    8.010000e-01
 TP3dq TC1vr  1 4.110000e-01    8.010000e-01
 TP2dq TC1vr  1 3.850000e-01    8.550000e-01
 TP1dq TC1vr  1 3.850000e-01    8.550000e-01
 TN6dq TC1vr  1 3.660000e-01    9.350000e-01
 TN5dq TC1vr  1 3.660000e-01    9.350000e-01
 TN4dq TC1vr  1 3.660000e-01    9.350000e-01
 TN3dq TC1vr  1 3.520000e-01    1.050000e+00
 TN2dq TC1vr  1 3.520000e-01    1.050000e+00
 TN1dq TC1vr  1 3.520000e-01    1.050000e+00
 TP6dq TX4vr  1 3.400000e-01    1.230000e+00
 TP5dq TX4vr  1 3.400000e-01    1.510000e+00
 TP4dq TX4vr  1 3.400000e-01    1.510000e+00
 TP3dq TX4vr  1 3.400000e-01    1.510000e+00
 TP2dq TX4vr  1 3.400000e-01    1.510000e+00
 TP1dq TX4vr  1 3.400000e-01    1.510000e+00
 TN6dq TX4vr  1 3.400000e-01    1.770000e+00
 TN5dq TX4vr  1 3.400000e-01    2.020000e+00
 TN4dq TX4vr  1 3.400000e-01    2.280000e+00
 TN3dq TX4vr  1 3.400000e-01    2.020000e+00
 TN2dq TX4vr  1 3.400000e-01    2.020000e+00
 TN1dq TX4vr  1 3.400000e-01    1.770000e+00
 TP6dq TX3vr  1 3.400000e-01    1.230000e+00
 TP5dq TX3vr  1 3.400000e-01    1.230000e+00
 TP4dq TX3vr  1 3.400000e-01    1.230000e+00
 TP3dq TX3vr  1 3.400000e-01    1.510000e+00
 TP2dq TX3vr  1 3.400000e-01    1.510000e+00
 TP1dq TX3vr  1 3.400000e-01    1.510000e+00
 TN6dq TX3vr  1 3.400000e-01    1.510000e+00
 TN5dq TX3vr  1 3.400000e-01    1.770000e+00
 TN4dq TX3vr  1 3.400000e-01    2.020000e+00
 TN3dq TX3vr  1 3.400000e-01    1.770000e+00
 TN2dq TX3vr  1 3.400000e-01    1.770000e+00
 TN1dq TX3vr  1 3.400000e-01    1.770000e+00
 TP6dq TX2vr  1 3.520000e-01    1.050000e+00
 TP5dq TX2vr  1 3.400000e-01    1.230000e+00
 TP4dq TX2vr  1 3.400000e-01    1.230000e+00
 TP3dq TX2vr  1 3.400000e-01    1.230000e+00
 TP2dq TX2vr  1 3.400000e-01    1.230000e+00
 TP1dq TX2vr  1 3.400000e-01    1.230000e+00
 TN6dq TX2vr  1 3.400000e-01    1.230000e+00
 TN5dq TX2vr  1 3.400000e-01    1.510000e+00
 TN4dq TX2vr  1 3.400000e-01    1.510000e+00
 TN3dq TX2vr  1 3.400000e-01    1.510000e+00
 TN2dq TX2vr  1 3.400000e-01    1.510000e+00
 TN1dq TX2vr  1 3.400000e-01    1.510000e+00
 TP6dq TX1vr  1 3.660000e-01    9.350000e-01
 TP5dq TX1vr  1 3.660000e-01    9.350000e-01
 TP4dq TX1vr  1 3.520000e-01    1.050000e+00
 TP3dq TX1vr  1 3.520000e-01    1.050000e+00
 TP2dq TX1vr  1 3.520000e-01    1.050000e+00
 TP1dq TX1vr  1 3.520000e-01    1.050000e+00
 TN6dq TX1vr  1 3.520000e-01    1.050000e+00
 TN5dq TX1vr  1 3.400000e-01    1.230000e+00
 TN4dq TX1vr  1 3.400000e-01    1.230000e+00
 TN3dq TX1vr  1 3.400000e-01    1.510000e+00
 TN2dq TX1vr  1 3.400000e-01    1.510000e+00
 TN1dq TX1vr  1 3.400000e-01    1.510000e+00
 TP6dh  TC6v  1 3.850000e-01    8.550000e-01
 TP6dh  TC5v  1 4.110000e-01    8.010000e-01
 TP6dh  TC4v  1 4.240000e-01    7.760000e-01
 TP6dh  TC3v  1 4.380000e-01    7.310000e-01
 TP6dh  TC2v  1 4.380000e-01    7.310000e-01
 TP6dh  TC1v  1 5.610000e-01    6.300000e-01
 TP6dh  TX4v  1 3.660000e-01    9.350000e-01
 TP6dh  TX3v  1 3.660000e-01    9.350000e-01
 TP6dh  TX2v  1 3.850000e-01    8.550000e-01
 TP6dh  TX1v  1 4.110000e-01    8.010000e-01
 TP5dh  TC6v  1 3.850000e-01    8.550000e-01
 TP5dh  TC5v  1 3.850000e-01    8.550000e-01
 TP5dh  TC4v  1 4.110000e-01    8.010000e-01
 TP5dh  TC3v  1 4.240000e-01    7.760000e-01
 TP5dh  TC2v  1 4.240000e-01    7.760000e-01
 TP5dh  TC1v  1 4.380000e-01    7.310000e-01
 TP5dh  TX4v  1 3.520000e-01    1.050000e+00
 TP5dh  TX3v  1 3.660000e-01    9.350000e-01
 TP5dh  TX2v  1 3.660000e-01    9.350000e-01
 TP5dh  TX1v  1 4.110000e-01    8.010000e-01
 TP4dh  TC6v  1 3.660000e-01    9.350000e-01
 TP4dh  TC5v  1 3.850000e-01    8.550000e-01
 TP4dh  TC4v  1 4.110000e-01    8.010000e-01
 TP4dh  TC3v  1 4.240000e-01    7.760000e-01
 TP4dh  TC2v  1 4.240000e-01    7.760000e-01
 TP4dh  TC1v  1 4.380000e-01    7.310000e-01
 TP4dh  TX4v  1 3.520000e-01    1.050000e+00
 TP4dh  TX3v  1 3.660000e-01    9.350000e-01
 TP4dh  TX2v  1 3.660000e-01    9.350000e-01
 TP4dh  TX1v  1 3.850000e-01    8.550000e-01
 TP3dh  TC6v  1 3.520000e-01    1.050000e+00
 TP3dh  TC5v  1 3.660000e-01    9.350000e-01
 TP3dh  TC4v  1 3.850000e-01    8.550000e-01
 TP3dh  TC3v  1 4.240000e-01    7.760000e-01
 TP3dh  TC2v  1 4.240000e-01    7.760000e-01
 TP3dh  TC1v  1 4.380000e-01    7.310000e-01
 TP3dh  TX4v  1 3.520000e-01    1.050000e+00
 TP3dh  TX3v  1 3.520000e-01    1.050000e+00
 TP3dh  TX2v  1 3.660000e-01    9.350000e-01
 TP3dh  TX1v  1 3.850000e-01    8.550000e-01
 TP2dh  TC6v  1 3.520000e-01    1.050000e+00
 TP2dh  TC5v  1 3.660000e-01    9.350000e-01
 TP2dh  TC4v  1 3.850000e-01    8.550000e-01
 TP2dh  TC3v  1 4.110000e-01    8.010000e-01
 TP2dh  TC2v  1 4.110000e-01    8.010000e-01
 TP2dh  TC1v  1 4.240000e-01    7.760000e-01
 TP2dh  TX4v  1 3.520000e-01    1.050000e+00
 TP2dh  TX3v  1 3.520000e-01    1.050000e+00
 TP2dh  TX2v  1 3.660000e-01    9.350000e-01
 TP2dh  TX1v  1 3.850000e-01    8.550000e-01
 TP1dh  TC6v  1 3.520000e-01    1.050000e+00
 TP1dh  TC5v  1 3.660000e-01    9.350000e-01
 TP1dh  TC4v  1 3.850000e-01    8.550000e-01
 TP1dh  TC3v  1 4.110000e-01    8.010000e-01
 TP1dh  TC2v  1 4.110000e-01    8.010000e-01
 TP1dh  TC1v  1 4.240000e-01    7.760000e-01
 TP1dh  TX4v  1 3.520000e-01    1.050000e+00
 TP1dh  TX3v  1 3.520000e-01    1.050000e+00
 TP1dh  TX2v  1 3.660000e-01    9.350000e-01
 TP1dh  TX1v  1 3.850000e-01    8.550000e-01
 TN6dh  TC6v  1 3.400000e-01    1.230000e+00
 TN6dh  TC5v  1 3.520000e-01    1.050000e+00
 TN6dh  TC4v  1 3.660000e-01    9.350000e-01
 TN6dh  TC3v  1 3.850000e-01    8.550000e-01
 TN6dh  TC2v  1 3.850000e-01    8.550000e-01
 TN6dh  TC1v  1 4.110000e-01    8.010000e-01
 TN6dh  TX4v  1 3.400000e-01    1.230000e+00
 TN6dh  TX3v  1 3.520000e-01    1.050000e+00
 TN6dh  TX2v  1 3.660000e-01    9.350000e-01
 TN6dh  TX1v  1 3.850000e-01    8.550000e-01
 TN5dh  TC6v  1 3.400000e-01    1.230000e+00
 TN5dh  TC5v  1 3.520000e-01    1.050000e+00
 TN5dh  TC4v  1 3.660000e-01    9.350000e-01
 TN5dh  TC3v  1 3.660000e-01    9.350000e-01
 TN5dh  TC2v  1 3.850000e-01    8.550000e-01
 TN5dh  TC1v  1 4.110000e-01    8.010000e-01
 TN5dh  TX4v  1 3.400000e-01    1.510000e+00
 TN5dh  TX3v  1 3.400000e-01    1.230000e+00
 TN5dh  TX2v  1 3.520000e-01    1.050000e+00
 TN5dh  TX1v  1 3.660000e-01    9.350000e-01
 TN4dh  TC6v  1 3.400000e-01    1.230000e+00
 TN4dh  TC5v  1 3.520000e-01    1.050000e+00
 TN4dh  TC4v  1 3.520000e-01    1.050000e+00
 TN4dh  TC3v  1 3.660000e-01    9.350000e-01
 TN4dh  TC2v  1 3.850000e-01    8.550000e-01
 TN4dh  TC1v  1 4.110000e-01    8.010000e-01
 TN4dh  TX4v  1 3.400000e-01    1.770000e+00
 TN4dh  TX3v  1 3.400000e-01    1.510000e+00
 TN4dh  TX2v  1 3.520000e-01    1.050000e+00
 TN4dh  TX1v  1 3.660000e-01    9.350000e-01
 TN3dh  TC6v  1 3.400000e-01    1.230000e+00
 TN3dh  TC5v  1 3.520000e-01    1.050000e+00
 TN3dh  TC4v  1 3.520000e-01    1.050000e+00
 TN3dh  TC3v  1 3.660000e-01    9.350000e-01
 TN3dh  TC2v  1 3.660000e-01    9.350000e-01
 TN3dh  TC1v  1 3.850000e-01    8.550000e-01
 TN3dh  TX4v  1 3.400000e-01    1.510000e+00
 TN3dh  TX3v  1 3.400000e-01    1.230000e+00
 TN3dh  TX2v  1 3.520000e-01    1.050000e+00
 TN3dh  TX1v  1 3.520000e-01    1.050000e+00
 TN2dh  TC6v  1 3.400000e-01    1.230000e+00
 TN2dh  TC5v  1 3.520000e-01    1.050000e+00
 TN2dh  TC4v  1 3.520000e-01    1.050000e+00
 TN2dh  TC3v  1 3.520000e-01    1.050000e+00
 TN2dh  TC2v  1 3.660000e-01    9.350000e-01
 TN2dh  TC1v  1 3.850000e-01    8.550000e-01
 TN2dh  TX4v  1 3.400000e-01    1.510000e+00
 TN2dh  TX3v  1 3.400000e-01    1.230000e+00
 TN2dh  TX2v  1 3.520000e-01    1.050000e+00
 TN2dh  TX1v  1 3.520000e-01    1.050000e+00
 TN1dh  TC6v  1 3.400000e-01    1.510000e+00
 TN1dh  TC5v  1 3.400000e-01    1.230000e+00
 TN1dh  TC4v  1 3.400000e-01    1.230000e+00
 TN1dh  TC3v  1 3.520000e-01    1.050000e+00
 TN1dh  TC2v  1 3.660000e-01    9.350000e-01
 TN1dh  TC1v  1 3.850000e-01    8.550000e-01
 TN1dh  TX4v  1 3.400000e-01    1.230000e+00
 TN1dh  TX3v  1 3.400000e-01    1.230000e+00
 TN1dh  TX2v  1 3.520000e-01    1.050000e+00
 TN1dh  TX1v  1 3.520000e-01    1.050000e+00
 TP6dh TX1vq  1 3.660000e-01    9.350000e-01
 TP6dh TX2vq  1 3.520000e-01    1.050000e+00
 TP6dh TX3vq  1 3.400000e-01    1.230000e+00
 TP6dh TX4vq  1 3.400000e-01    1.230000e+00
 TP6dh TC1vq  1 4.380000e-01    7.310000e-01
 TP6dh TC2vq  1 4.110000e-01    8.010000e-01
 TP6dh TC3vq  1 4.110000e-01    8.010000e-01
 TP6dh TC4vq  1 3.850000e-01    8.550000e-01
 TP6dh TC5vq  1 3.660000e-01    9.350000e-01
 TP6dh TC6vq  1 3.520000e-01    1.050000e+00
 TP5dh TX1vq  1 3.660000e-01    9.350000e-01
 TP5dh TX2vq  1 3.400000e-01    1.230000e+00
 TP5dh TX3vq  1 3.400000e-01    1.230000e+00
 TP5dh TX4vq  1 3.400000e-01    1.510000e+00
 TP5dh TC1vq  1 4.110000e-01    8.010000e-01
 TP5dh TC2vq  1 3.850000e-01    8.550000e-01
 TP5dh TC3vq  1 3.850000e-01    8.550000e-01
 TP5dh TC4vq  1 3.660000e-01    9.350000e-01
 TP5dh TC5vq  1 3.520000e-01    1.050000e+00
 TP5dh TC6vq  1 3.520000e-01    1.050000e+00
 TP4dh TX1vq  1 3.520000e-01    1.050000e+00
 TP4dh TX2vq  1 3.400000e-01    1.230000e+00
 TP4dh TX3vq  1 3.400000e-01    1.230000e+00
 TP4dh TX4vq  1 3.400000e-01    1.510000e+00
 TP4dh TC1vq  1 4.110000e-01    8.010000e-01
 TP4dh TC2vq  1 3.850000e-01    8.550000e-01
 TP4dh TC3vq  1 3.850000e-01    8.550000e-01
 TP4dh TC4vq  1 3.660000e-01    9.350000e-01
 TP4dh TC5vq  1 3.520000e-01    1.050000e+00
 TP4dh TC6vq  1 3.400000e-01    1.230000e+00
 TP3dh TX1vq  1 3.520000e-01    1.050000e+00
 TP3dh TX2vq  1 3.400000e-01    1.230000e+00
 TP3dh TX3vq  1 3.400000e-01    1.510000e+00
 TP3dh TX4vq  1 3.400000e-01    1.510000e+00
 TP3dh TC1vq  1 4.110000e-01    8.010000e-01
 TP3dh TC2vq  1 3.850000e-01    8.550000e-01
 TP3dh TC3vq  1 3.850000e-01    8.550000e-01
 TP3dh TC4vq  1 3.520000e-01    1.050000e+00
 TP3dh TC5vq  1 3.400000e-01    1.230000e+00
 TP3dh TC6vq  1 3.400000e-01    1.510000e+00
 TP2dh TX1vq  1 3.520000e-01    1.050000e+00
 TP2dh TX2vq  1 3.400000e-01    1.230000e+00
 TP2dh TX3vq  1 3.400000e-01    1.510000e+00
 TP2dh TX4vq  1 3.400000e-01    1.510000e+00
 TP2dh TC1vq  1 3.850000e-01    8.550000e-01
 TP2dh TC2vq  1 3.660000e-01    9.350000e-01
 TP2dh TC3vq  1 3.660000e-01    9.350000e-01
 TP2dh TC4vq  1 3.520000e-01    1.050000e+00
 TP2dh TC5vq  1 3.400000e-01    1.230000e+00
 TP2dh TC6vq  1 3.400000e-01    1.510000e+00
 TP1dh TX1vq  1 3.520000e-01    1.050000e+00
 TP1dh TX2vq  1 3.400000e-01    1.230000e+00
 TP1dh TX3vq  1 3.400000e-01    1.510000e+00
 TP1dh TX4vq  1 3.400000e-01    1.510000e+00
 TP1dh TC1vq  1 3.850000e-01    8.550000e-01
 TP1dh TC2vq  1 3.660000e-01    9.350000e-01
 TP1dh TC3vq  1 3.660000e-01    9.350000e-01
 TP1dh TC4vq  1 3.520000e-01    1.050000e+00
 TP1dh TC5vq  1 3.400000e-01    1.230000e+00
 TP1dh TC6vq  1 3.400000e-01    1.510000e+00
 TN6dh TX1vq  1 3.520000e-01    1.050000e+00
 TN6dh TX2vq  1 3.400000e-01    1.230000e+00
 TN6dh TX3vq  1 3.400000e-01    1.510000e+00
 TN6dh TX4vq  1 3.400000e-01    1.770000e+00
 TN6dh TC1vq  1 3.660000e-01    9.350000e-01
 TN6dh TC2vq  1 3.520000e-01    1.050000e+00
 TN6dh TC3vq  1 3.520000e-01    1.050000e+00
 TN6dh TC4vq  1 3.400000e-01    1.230000e+00
 TN6dh TC5vq  1 3.400000e-01    1.510000e+00
 TN6dh TC6vq  1 3.400000e-01    1.770000e+00
 TN5dh TX1vq  1 3.400000e-01    1.230000e+00
 TN5dh TX2vq  1 3.400000e-01    1.510000e+00
 TN5dh TX3vq  1 3.400000e-01    1.770000e+00
 TN5dh TX4vq  1 3.400000e-01    2.020000e+00
 TN5dh TC1vq  1 3.660000e-01    9.350000e-01
 TN5dh TC2vq  1 3.520000e-01    1.050000e+00
 TN5dh TC3vq  1 3.400000e-01    1.230000e+00
 TN5dh TC4vq  1 3.400000e-01    1.230000e+00
 TN5dh TC5vq  1 3.400000e-01    1.510000e+00
 TN5dh TC6vq  1 3.400000e-01    1.770000e+00
 TN4dh TX1vq  1 3.400000e-01    1.230000e+00
 TN4dh TX2vq  1 3.400000e-01    1.510000e+00
 TN4dh TX3vq  1 3.400000e-01    2.020000e+00
 TN4dh TX4vq  1 3.400000e-01    2.280000e+00
 TN4dh TC1vq  1 3.660000e-01    9.350000e-01
 TN4dh TC2vq  1 3.520000e-01    1.050000e+00
 TN4dh TC3vq  1 3.400000e-01    1.230000e+00
 TN4dh TC4vq  1 3.400000e-01    1.510000e+00
 TN4dh TC5vq  1 3.400000e-01    1.510000e+00
 TN4dh TC6vq  1 3.400000e-01    1.770000e+00
 TN3dh TX1vq  1 3.400000e-01    1.510000e+00
 TN3dh TX2vq  1 3.400000e-01    1.510000e+00
 TN3dh TX3vq  1 3.400000e-01    1.770000e+00
 TN3dh TX4vq  1 3.400000e-01    2.020000e+00
 TN3dh TC1vq  1 3.520000e-01    1.050000e+00
 TN3dh TC2vq  1 3.400000e-01    1.230000e+00
 TN3dh TC3vq  1 3.400000e-01    1.230000e+00
 TN3dh TC4vq  1 3.400000e-01    1.510000e+00
 TN3dh TC5vq  1 3.400000e-01    1.510000e+00
 TN3dh TC6vq  1 3.400000e-01    1.770000e+00
 TN2dh TX1vq  1 3.400000e-01    1.510000e+00
 TN2dh TX2vq  1 3.400000e-01    1.510000e+00
 TN2dh TX3vq  1 3.400000e-01    1.770000e+00
 TN2dh TX4vq  1 3.400000e-01    2.020000e+00
 TN2dh TC1vq  1 3.520000e-01    1.050000e+00
 TN2dh TC2vq  1 3.400000e-01    1.230000e+00
 TN2dh TC3vq  1 3.400000e-01    1.510000e+00
 TN2dh TC4vq  1 3.400000e-01    1.510000e+00
 TN2dh TC5vq  1 3.400000e-01    1.510000e+00
 TN2dh TC6vq  1 3.400000e-01    1.770000e+00
 TN1dh TX1vq  1 3.400000e-01    1.510000e+00
 TN1dh TX2vq  1 3.400000e-01    1.510000e+00
 TN1dh TX3vq  1 3.400000e-01    1.770000e+00
 TN1dh TX4vq  1 3.400000e-01    1.770000e+00
 TN1dh TC1vq  1 3.520000e-01    1.050000e+00
 TN1dh TC2vq  1 3.400000e-01    1.230000e+00
 TN1dh TC3vq  1 3.400000e-01    1.510000e+00
 TN1dh TC4vq  1 3.400000e-01    1.770000e+00
 TN1dh TC5vq  1 3.400000e-01    1.770000e+00
 TN1dh TC6vq  1 3.400000e-01    2.020000e+00
 TP6dh TC6vh  1 3.850000e-01    8.550000e-01
 TP6dh TC5vh  1 4.110000e-01    8.010000e-01
 TP6dh TC4vh  1 4.240000e-01    7.760000e-01
 TP6dh TC3vh  1 4.380000e-01    7.310000e-01
 TP6dh TC2vh  1 4.380000e-01    7.310000e-01
 TP6dh TC1vh  1 5.610000e-01    6.300000e-01
 TP6dh TX4vh  1 3.660000e-01    9.350000e-01
 TP6dh TX3vh  1 3.660000e-01    9.350000e-01
 TP6dh TX2vh  1 3.850000e-01    8.550000e-01
 TP6dh TX1vh  1 4.110000e-01    8.010000e-01
 TP5dh TC6vh  1 3.850000e-01    8.550000e-01
 TP5dh TC5vh  1 3.850000e-01    8.550000e-01
 TP5dh TC4vh  1 4.110000e-01    8.010000e-01
 TP5dh TC3vh  1 4.240000e-01    7.760000e-01
 TP5dh TC2vh  1 4.240000e-01    7.760000e-01
 TP5dh TC1vh  1 4.380000e-01    7.310000e-01
 TP5dh TX4vh  1 3.520000e-01    1.050000e+00
 TP5dh TX3vh  1 3.660000e-01    9.350000e-01
 TP5dh TX2vh  1 3.660000e-01    9.350000e-01
 TP5dh TX1vh  1 4.110000e-01    8.010000e-01
 TP4dh TC6vh  1 3.660000e-01    9.350000e-01
 TP4dh TC5vh  1 3.850000e-01    8.550000e-01
 TP4dh TC4vh  1 4.110000e-01    8.010000e-01
 TP4dh TC3vh  1 4.240000e-01    7.760000e-01
 TP4dh TC2vh  1 4.240000e-01    7.760000e-01
 TP4dh TC1vh  1 4.380000e-01    7.310000e-01
 TP4dh TX4vh  1 3.520000e-01    1.050000e+00
 TP4dh TX3vh  1 3.660000e-01    9.350000e-01
 TP4dh TX2vh  1 3.660000e-01    9.350000e-01
 TP4dh TX1vh  1 3.850000e-01    8.550000e-01
 TP3dh TC6vh  1 3.520000e-01    1.050000e+00
 TP3dh TC5vh  1 3.660000e-01    9.350000e-01
 TP3dh TC4vh  1 3.850000e-01    8.550000e-01
 TP3dh TC3vh  1 4.240000e-01    7.760000e-01
 TP3dh TC2vh  1 4.240000e-01    7.760000e-01
 TP3dh TC1vh  1 4.380000e-01    7.310000e-01
 TP3dh TX4vh  1 3.520000e-01    1.050000e+00
 TP3dh TX3vh  1 3.520000e-01    1.050000e+00
 TP3dh TX2vh  1 3.660000e-01    9.350000e-01
 TP3dh TX1vh  1 3.850000e-01    8.550000e-01
 TP2dh TC6vh  1 3.520000e-01    1.050000e+00
 TP2dh TC5vh  1 3.660000e-01    9.350000e-01
 TP2dh TC4vh  1 3.850000e-01    8.550000e-01
 TP2dh TC3vh  1 4.110000e-01    8.010000e-01
 TP2dh TC2vh  1 4.110000e-01    8.010000e-01
 TP2dh TC1vh  1 4.240000e-01    7.760000e-01
 TP2dh TX4vh  1 3.520000e-01    1.050000e+00
 TP2dh TX3vh  1 3.520000e-01    1.050000e+00
 TP2dh TX2vh  1 3.660000e-01    9.350000e-01
 TP2dh TX1vh  1 3.850000e-01    8.550000e-01
 TP1dh TC6vh  1 3.520000e-01    1.050000e+00
 TP1dh TC5vh  1 3.660000e-01    9.350000e-01
 TP1dh TC4vh  1 3.850000e-01    8.550000e-01
 TP1dh TC3vh  1 4.110000e-01    8.010000e-01
 TP1dh TC2vh  1 4.110000e-01    8.010000e-01
 TP1dh TC1vh  1 4.240000e-01    7.760000e-01
 TP1dh TX4vh  1 3.520000e-01    1.050000e+00
 TP1dh TX3vh  1 3.520000e-01    1.050000e+00
 TP1dh TX2vh  1 3.660000e-01    9.350000e-01
 TP1dh TX1vh  1 3.850000e-01    8.550000e-01
 TN6dh TC6vh  1 3.400000e-01    1.230000e+00
 TN6dh TC5vh  1 3.520000e-01    1.050000e+00
 TN6dh TC4vh  1 3.660000e-01    9.350000e-01
 TN6dh TC3vh  1 3.850000e-01    8.550000e-01
 TN6dh TC2vh  1 3.850000e-01    8.550000e-01
 TN6dh TC1vh  1 4.110000e-01    8.010000e-01
 TN6dh TX4vh  1 3.400000e-01    1.230000e+00
 TN6dh TX3vh  1 3.520000e-01    1.050000e+00
 TN6dh TX2vh  1 3.660000e-01    9.350000e-01
 TN6dh TX1vh  1 3.850000e-01    8.550000e-01
 TN5dh TC6vh  1 3.400000e-01    1.230000e+00
 TN5dh TC5vh  1 3.520000e-01    1.050000e+00
 TN5dh TC4vh  1 3.660000e-01    9.350000e-01
 TN5dh TC3vh  1 3.660000e-01    9.350000e-01
 TN5dh TC2vh  1 3.850000e-01    8.550000e-01
 TN5dh TC1vh  1 4.110000e-01    8.010000e-01
 TN5dh TX4vh  1 3.400000e-01    1.510000e+00
 TN5dh TX3vh  1 3.400000e-01    1.230000e+00
 TN5dh TX2vh  1 3.520000e-01    1.050000e+00
 TN5dh TX1vh  1 3.660000e-01    9.350000e-01
 TN4dh TC6vh  1 3.400000e-01    1.230000e+00
 TN4dh TC5vh  1 3.520000e-01    1.050000e+00
 TN4dh TC4vh  1 3.520000e-01    1.050000e+00
 TN4dh TC3vh  1 3.660000e-01    9.350000e-01
 TN4dh TC2vh  1 3.850000e-01    8.550000e-01
 TN4dh TC1vh  1 4.110000e-01    8.010000e-01
 TN4dh TX4vh  1 3.400000e-01    1.770000e+00
 TN4dh TX3vh  1 3.400000e-01    1.510000e+00
 TN4dh TX2vh  1 3.520000e-01    1.050000e+00
 TN4dh TX1vh  1 3.660000e-01    9.350000e-01
 TN3dh TC6vh  1 3.400000e-01    1.230000e+00
 TN3dh TC5vh  1 3.520000e-01    1.050000e+00
 TN3dh TC4vh  1 3.520000e-01    1.050000e+00
 TN3dh TC3vh  1 3.660000e-01    9.350000e-01
 TN3dh TC2vh  1 3.660000e-01    9.350000e-01
 TN3dh TC1vh  1 3.850000e-01    8.550000e-01
 TN3dh TX4vh  1 3.400000e-01    1.510000e+00
 TN3dh TX3vh  1 3.400000e-01    1.230000e+00
 TN3dh TX2vh  1 3.520000e-01    1.050000e+00
 TN3dh TX1vh  1 3.520000e-01    1.050000e+00
 TN2dh TC6vh  1 3.400000e-01    1.230000e+00
 TN2dh TC5vh  1 3.520000e-01    1.050000e+00
 TN2dh TC4vh  1 3.520000e-01    1.050000e+00
 TN2dh TC3vh  1 3.520000e-01    1.050000e+00
 TN2dh TC2vh  1 3.660000e-01    9.350000e-01
 TN2dh TC1vh  1 3.850000e-01    8.550000e-01
 TN2dh TX4vh  1 3.400000e-01    1.510000e+00
 TN2dh TX3vh  1 3.400000e-01    1.230000e+00
 TN2dh TX2vh  1 3.520000e-01    1.050000e+00
 TN2dh TX1vh  1 3.520000e-01    1.050000e+00
 TN1dh TC6vh  1 3.400000e-01    1.510000e+00
 TN1dh TC5vh  1 3.400000e-01    1.230000e+00
 TN1dh TC4vh  1 3.400000e-01    1.230000e+00
 TN1dh TC3vh  1 3.520000e-01    1.050000e+00
 TN1dh TC2vh  1 3.660000e-01    9.350000e-01
 TN1dh TC1vh  1 3.850000e-01    8.550000e-01
 TN1dh TX4vh  1 3.400000e-01    1.230000e+00
 TN1dh TX3vh  1 3.400000e-01    1.230000e+00
 TN1dh TX2vh  1 3.520000e-01    1.050000e+00
 TN1dh TX1vh  1 3.520000e-01    1.050000e+00
 TP6dh TC6vr  1 3.850000e-01    8.550000e-01
 TP6dh TC5vr  1 4.110000e-01    8.010000e-01
 TP6dh TC4vr  1 4.240000e-01    7.760000e-01
 TP6dh TC3vr  1 4.380000e-01    7.310000e-01
 TP6dh TC2vr  1 4.380000e-01    7.310000e-01
 TP6dh TC1vr  1 5.610000e-01    6.300000e-01
 TP6dh TX4vr  1 3.660000e-01    9.350000e-01
 TP6dh TX3vr  1 3.660000e-01    9.350000e-01
 TP6dh TX2vr  1 3.850000e-01    8.550000e-01
 TP6dh TX1vr  1 4.110000e-01    8.010000e-01
 TP5dh TC6vr  1 3.850000e-01    8.550000e-01
 TP5dh TC5vr  1 3.850000e-01    8.550000e-01
 TP5dh TC4vr  1 4.110000e-01    8.010000e-01
 TP5dh TC3vr  1 4.240000e-01    7.760000e-01
 TP5dh TC2vr  1 4.240000e-01    7.760000e-01
 TP5dh TC1vr  1 4.380000e-01    7.310000e-01
 TP5dh TX4vr  1 3.520000e-01    1.050000e+00
 TP5dh TX3vr  1 3.660000e-01    9.350000e-01
 TP5dh TX2vr  1 3.660000e-01    9.350000e-01
 TP5dh TX1vr  1 4.110000e-01    8.010000e-01
 TP4dh TC6vr  1 3.660000e-01    9.350000e-01
 TP4dh TC5vr  1 3.850000e-01    8.550000e-01
 TP4dh TC4vr  1 4.110000e-01    8.010000e-01
 TP4dh TC3vr  1 4.240000e-01    7.760000e-01
 TP4dh TC2vr  1 4.240000e-01    7.760000e-01
 TP4dh TC1vr  1 4.380000e-01    7.310000e-01
 TP4dh TX4vr  1 3.520000e-01    1.050000e+00
 TP4dh TX3vr  1 3.660000e-01    9.350000e-01
 TP4dh TX2vr  1 3.660000e-01    9.350000e-01
 TP4dh TX1vr  1 3.850000e-01    8.550000e-01
 TP3dh TC6vr  1 3.520000e-01    1.050000e+00
 TP3dh TC5vr  1 3.660000e-01    9.350000e-01
 TP3dh TC4vr  1 3.850000e-01    8.550000e-01
 TP3dh TC3vr  1 4.240000e-01    7.760000e-01
 TP3dh TC2vr  1 4.240000e-01    7.760000e-01
 TP3dh TC1vr  1 4.380000e-01    7.310000e-01
 TP3dh TX4vr  1 3.520000e-01    1.050000e+00
 TP3dh TX3vr  1 3.520000e-01    1.050000e+00
 TP3dh TX2vr  1 3.660000e-01    9.350000e-01
 TP3dh TX1vr  1 3.850000e-01    8.550000e-01
 TP2dh TC6vr  1 3.520000e-01    1.050000e+00
 TP2dh TC5vr  1 3.660000e-01    9.350000e-01
 TP2dh TC4vr  1 3.850000e-01    8.550000e-01
 TP2dh TC3vr  1 4.110000e-01    8.010000e-01
 TP2dh TC2vr  1 4.110000e-01    8.010000e-01
 TP2dh TC1vr  1 4.240000e-01    7.760000e-01
 TP2dh TX4vr  1 3.520000e-01    1.050000e+00
 TP2dh TX3vr  1 3.520000e-01    1.050000e+00
 TP2dh TX2vr  1 3.660000e-01    9.350000e-01
 TP2dh TX1vr  1 3.850000e-01    8.550000e-01
 TP1dh TC6vr  1 3.520000e-01    1.050000e+00
 TP1dh TC5vr  1 3.660000e-01    9.350000e-01
 TP1dh TC4vr  1 3.850000e-01    8.550000e-01
 TP1dh TC3vr  1 4.110000e-01    8.010000e-01
 TP1dh TC2vr  1 4.110000e-01    8.010000e-01
 TP1dh TC1vr  1 4.240000e-01    7.760000e-01
 TP1dh TX4vr  1 3.520000e-01    1.050000e+00
 TP1dh TX3vr  1 3.520000e-01    1.050000e+00
 TP1dh TX2vr  1 3.660000e-01    9.350000e-01
 TP1dh TX1vr  1 3.850000e-01    8.550000e-01
 TN6dh TC6vr  1 3.400000e-01    1.230000e+00
 TN6dh TC5vr  1 3.520000e-01    1.050000e+00
 TN6dh TC4vr  1 3.660000e-01    9.350000e-01
 TN6dh TC3vr  1 3.850000e-01    8.550000e-01
 TN6dh TC2vr  1 3.850000e-01    8.550000e-01
 TN6dh TC1vr  1 4.110000e-01    8.010000e-01
 TN6dh TX4vr  1 3.400000e-01    1.230000e+00
 TN6dh TX3vr  1 3.520000e-01    1.050000e+00
 TN6dh TX2vr  1 3.660000e-01    9.350000e-01
 TN6dh TX1vr  1 3.850000e-01    8.550000e-01
 TN5dh TC6vr  1 3.400000e-01    1.230000e+00
 TN5dh TC5vr  1 3.520000e-01    1.050000e+00
 TN5dh TC4vr  1 3.660000e-01    9.350000e-01
 TN5dh TC3vr  1 3.660000e-01    9.350000e-01
 TN5dh TC2vr  1 3.850000e-01    8.550000e-01
 TN5dh TC1vr  1 4.110000e-01    8.010000e-01
 TN5dh TX4vr  1 3.400000e-01    1.510000e+00
 TN5dh TX3vr  1 3.400000e-01    1.230000e+00
 TN5dh TX2vr  1 3.520000e-01    1.050000e+00
 TN5dh TX1vr  1 3.660000e-01    9.350000e-01
 TN4dh TC6vr  1 3.400000e-01    1.230000e+00
 TN4dh TC5vr  1 3.520000e-01    1.050000e+00
 TN4dh TC4vr  1 3.520000e-01    1.050000e+00
 TN4dh TC3vr  1 3.660000e-01    9.350000e-01
 TN4dh TC2vr  1 3.850000e-01    8.550000e-01
 TN4dh TC1vr  1 4.110000e-01    8.010000e-01
 TN4dh TX4vr  1 3.400000e-01    1.770000e+00
 TN4dh TX3vr  1 3.400000e-01    1.510000e+00
 TN4dh TX2vr  1 3.520000e-01    1.050000e+00
 TN4dh TX1vr  1 3.660000e-01    9.350000e-01
 TN3dh TC6vr  1 3.400000e-01    1.230000e+00
 TN3dh TC5vr  1 3.520000e-01    1.050000e+00
 TN3dh TC4vr  1 3.520000e-01    1.050000e+00
 TN3dh TC3vr  1 3.660000e-01    9.350000e-01
 TN3dh TC2vr  1 3.660000e-01    9.350000e-01
 TN3dh TC1vr  1 3.850000e-01    8.550000e-01
 TN3dh TX4vr  1 3.400000e-01    1.510000e+00
 TN3dh TX3vr  1 3.400000e-01    1.230000e+00
 TN3dh TX2vr  1 3.520000e-01    1.050000e+00
 TN3dh TX1vr  1 3.520000e-01    1.050000e+00
 TN2dh TC6vr  1 3.400000e-01    1.230000e+00
 TN2dh TC5vr  1 3.520000e-01    1.050000e+00
 TN2dh TC4vr  1 3.520000e-01    1.050000e+00
 TN2dh TC3vr  1 3.520000e-01    1.050000e+00
 TN2dh TC2vr  1 3.660000e-01    9.350000e-01
 TN2dh TC1vr  1 3.850000e-01    8.550000e-01
 TN2dh TX4vr  1 3.400000e-01    1.510000e+00
 TN2dh TX3vr  1 3.400000e-01    1.230000e+00
 TN2dh TX2vr  1 3.520000e-01    1.050000e+00
 TN2dh TX1vr  1 3.520000e-01    1.050000e+00
 TN1dh TC6vr  1 3.400000e-01    1.510000e+00
 TN1dh TC5vr  1 3.400000e-01    1.230000e+00
 TN1dh TC4vr  1 3.400000e-01    1.230000e+00
 TN1dh TC3vr  1 3.520000e-01    1.050000e+00
 TN1dh TC2vr  1 3.660000e-01    9.350000e-01
 TN1dh TC1vr  1 3.850000e-01    8.550000e-01
 TN1dh TX4vr  1 3.400000e-01    1.230000e+00
 TN1dh TX3vr  1 3.400000e-01    1.230000e+00
 TN1dh TX2vr  1 3.520000e-01    1.050000e+00
 TN1dh TX1vr  1 3.520000e-01    1.050000e+00
 TP6dr  TC6v  1 3.850000e-01    8.550000e-01
 TP6dr  TC5v  1 4.110000e-01    8.010000e-01
 TP6dr  TC4v  1 4.240000e-01    7.760000e-01
 TP6dr  TC3v  1 4.380000e-01    7.310000e-01
 TP6dr  TC2v  1 4.380000e-01    7.310000e-01
 TP6dr  TC1v  1 5.610000e-01    6.300000e-01
 TP6dr  TX4v  1 3.660000e-01    9.350000e-01
 TP6dr  TX3v  1 3.660000e-01    9.350000e-01
 TP6dr  TX2v  1 3.850000e-01    8.550000e-01
 TP6dr  TX1v  1 4.110000e-01    8.010000e-01
 TP5dr  TC6v  1 3.850000e-01    8.550000e-01
 TP5dr  TC5v  1 3.850000e-01    8.550000e-01
 TP5dr  TC4v  1 4.110000e-01    8.010000e-01
 TP5dr  TC3v  1 4.240000e-01    7.760000e-01
 TP5dr  TC2v  1 4.240000e-01    7.760000e-01
 TP5dr  TC1v  1 4.380000e-01    7.310000e-01
 TP5dr  TX4v  1 3.520000e-01    1.050000e+00
 TP5dr  TX3v  1 3.660000e-01    9.350000e-01
 TP5dr  TX2v  1 3.660000e-01    9.350000e-01
 TP5dr  TX1v  1 4.110000e-01    8.010000e-01
 TP4dr  TC6v  1 3.660000e-01    9.350000e-01
 TP4dr  TC5v  1 3.850000e-01    8.550000e-01
 TP4dr  TC4v  1 4.110000e-01    8.010000e-01
 TP4dr  TC3v  1 4.240000e-01    7.760000e-01
 TP4dr  TC2v  1 4.240000e-01    7.760000e-01
 TP4dr  TC1v  1 4.380000e-01    7.310000e-01
 TP4dr  TX4v  1 3.520000e-01    1.050000e+00
 TP4dr  TX3v  1 3.660000e-01    9.350000e-01
 TP4dr  TX2v  1 3.660000e-01    9.350000e-01
 TP4dr  TX1v  1 3.850000e-01    8.550000e-01
 TP3dr  TC6v  1 3.520000e-01    1.050000e+00
 TP3dr  TC5v  1 3.660000e-01    9.350000e-01
 TP3dr  TC4v  1 3.850000e-01    8.550000e-01
 TP3dr  TC3v  1 4.240000e-01    7.760000e-01
 TP3dr  TC2v  1 4.240000e-01    7.760000e-01
 TP3dr  TC1v  1 4.380000e-01    7.310000e-01
 TP3dr  TX4v  1 3.520000e-01    1.050000e+00
 TP3dr  TX3v  1 3.520000e-01    1.050000e+00
 TP3dr  TX2v  1 3.660000e-01    9.350000e-01
 TP3dr  TX1v  1 3.850000e-01    8.550000e-01
 TP2dr  TC6v  1 3.520000e-01    1.050000e+00
 TP2dr  TC5v  1 3.660000e-01    9.350000e-01
 TP2dr  TC4v  1 3.850000e-01    8.550000e-01
 TP2dr  TC3v  1 4.110000e-01    8.010000e-01
 TP2dr  TC2v  1 4.110000e-01    8.010000e-01
 TP2dr  TC1v  1 4.240000e-01    7.760000e-01
 TP2dr  TX4v  1 3.520000e-01    1.050000e+00
 TP2dr  TX3v  1 3.520000e-01    1.050000e+00
 TP2dr  TX2v  1 3.660000e-01    9.350000e-01
 TP2dr  TX1v  1 3.850000e-01    8.550000e-01
 TP1dr  TC6v  1 3.520000e-01    1.050000e+00
 TP1dr  TC5v  1 3.660000e-01    9.350000e-01
 TP1dr  TC4v  1 3.850000e-01    8.550000e-01
 TP1dr  TC3v  1 4.110000e-01    8.010000e-01
 TP1dr  TC2v  1 4.110000e-01    8.010000e-01
 TP1dr  TC1v  1 4.240000e-01    7.760000e-01
 TP1dr  TX4v  1 3.520000e-01    1.050000e+00
 TP1dr  TX3v  1 3.520000e-01    1.050000e+00
 TP1dr  TX2v  1 3.660000e-01    9.350000e-01
 TP1dr  TX1v  1 3.850000e-01    8.550000e-01
 TN6dr  TC6v  1 3.400000e-01    1.230000e+00
 TN6dr  TC5v  1 3.520000e-01    1.050000e+00
 TN6dr  TC4v  1 3.660000e-01    9.350000e-01
 TN6dr  TC3v  1 3.850000e-01    8.550000e-01
 TN6dr  TC2v  1 3.850000e-01    8.550000e-01
 TN6dr  TC1v  1 4.110000e-01    8.010000e-01
 TN6dr  TX4v  1 3.400000e-01    1.230000e+00
 TN6dr  TX3v  1 3.520000e-01    1.050000e+00
 TN6dr  TX2v  1 3.660000e-01    9.350000e-01
 TN6dr  TX1v  1 3.850000e-01    8.550000e-01
 TN5dr  TC6v  1 3.400000e-01    1.230000e+00
 TN5dr  TC5v  1 3.520000e-01    1.050000e+00
 TN5dr  TC4v  1 3.660000e-01    9.350000e-01
 TN5dr  TC3v  1 3.660000e-01    9.350000e-01
 TN5dr  TC2v  1 3.850000e-01    8.550000e-01
 TN5dr  TC1v  1 4.110000e-01    8.010000e-01
 TN5dr  TX4v  1 3.400000e-01    1.510000e+00
 TN5dr  TX3v  1 3.400000e-01    1.230000e+00
 TN5dr  TX2v  1 3.520000e-01    1.050000e+00
 TN5dr  TX1v  1 3.660000e-01    9.350000e-01
 TN4dr  TC6v  1 3.400000e-01    1.230000e+00
 TN4dr  TC5v  1 3.520000e-01    1.050000e+00
 TN4dr  TC4v  1 3.520000e-01    1.050000e+00
 TN4dr  TC3v  1 3.660000e-01    9.350000e-01
 TN4dr  TC2v  1 3.850000e-01    8.550000e-01
 TN4dr  TC1v  1 4.110000e-01    8.010000e-01
 TN4dr  TX4v  1 3.400000e-01    1.770000e+00
 TN4dr  TX3v  1 3.400000e-01    1.510000e+00
 TN4dr  TX2v  1 3.520000e-01    1.050000e+00
 TN4dr  TX1v  1 3.660000e-01    9.350000e-01
 TN3dr  TC6v  1 3.400000e-01    1.230000e+00
 TN3dr  TC5v  1 3.520000e-01    1.050000e+00
 TN3dr  TC4v  1 3.520000e-01    1.050000e+00
 TN3dr  TC3v  1 3.660000e-01    9.350000e-01
 TN3dr  TC2v  1 3.660000e-01    9.350000e-01
 TN3dr  TC1v  1 3.850000e-01    8.550000e-01
 TN3dr  TX4v  1 3.400000e-01    1.510000e+00
 TN3dr  TX3v  1 3.400000e-01    1.230000e+00
 TN3dr  TX2v  1 3.520000e-01    1.050000e+00
 TN3dr  TX1v  1 3.520000e-01    1.050000e+00
 TN2dr  TC6v  1 3.400000e-01    1.230000e+00
 TN2dr  TC5v  1 3.520000e-01    1.050000e+00
 TN2dr  TC4v  1 3.520000e-01    1.050000e+00
 TN2dr  TC3v  1 3.520000e-01    1.050000e+00
 TN2dr  TC2v  1 3.660000e-01    9.350000e-01
 TN2dr  TC1v  1 3.850000e-01    8.550000e-01
 TN2dr  TX4v  1 3.400000e-01    1.510000e+00
 TN2dr  TX3v  1 3.400000e-01    1.230000e+00
 TN2dr  TX2v  1 3.520000e-01    1.050000e+00
 TN2dr  TX1v  1 3.520000e-01    1.050000e+00
 TN1dr  TC6v  1 3.400000e-01    1.510000e+00
 TN1dr  TC5v  1 3.400000e-01    1.230000e+00
 TN1dr  TC4v  1 3.400000e-01    1.230000e+00
 TN1dr  TC3v  1 3.520000e-01    1.050000e+00
 TN1dr  TC2v  1 3.660000e-01    9.350000e-01
 TN1dr  TC1v  1 3.850000e-01    8.550000e-01
 TN1dr  TX4v  1 3.400000e-01    1.230000e+00
 TN1dr  TX3v  1 3.400000e-01    1.230000e+00
 TN1dr  TX2v  1 3.520000e-01    1.050000e+00
 TN1dr  TX1v  1 3.520000e-01    1.050000e+00
 TP6dr TX1vq  1 3.660000e-01    9.350000e-01
 TP6dr TX2vq  1 3.520000e-01    1.050000e+00
 TP6dr TX3vq  1 3.400000e-01    1.230000e+00
 TP6dr TX4vq  1 3.400000e-01    1.230000e+00
 TP6dr TC1vq  1 4.380000e-01    7.310000e-01
 TP6dr TC2vq  1 4.110000e-01    8.010000e-01
 TP6dr TC3vq  1 4.110000e-01    8.010000e-01
 TP6dr TC4vq  1 3.850000e-01    8.550000e-01
 TP6dr TC5vq  1 3.660000e-01    9.350000e-01
 TP6dr TC6vq  1 3.520000e-01    1.050000e+00
 TP5dr TX1vq  1 3.660000e-01    9.350000e-01
 TP5dr TX2vq  1 3.400000e-01    1.230000e+00
 TP5dr TX3vq  1 3.400000e-01    1.230000e+00
 TP5dr TX4vq  1 3.400000e-01    1.510000e+00
 TP5dr TC1vq  1 4.110000e-01    8.010000e-01
 TP5dr TC2vq  1 3.850000e-01    8.550000e-01
 TP5dr TC3vq  1 3.850000e-01    8.550000e-01
 TP5dr TC4vq  1 3.660000e-01    9.350000e-01
 TP5dr TC5vq  1 3.520000e-01    1.050000e+00
 TP5dr TC6vq  1 3.520000e-01    1.050000e+00
 TP4dr TX1vq  1 3.520000e-01    1.050000e+00
 TP4dr TX2vq  1 3.400000e-01    1.230000e+00
 TP4dr TX3vq  1 3.400000e-01    1.230000e+00
 TP4dr TX4vq  1 3.400000e-01    1.510000e+00
 TP4dr TC1vq  1 4.110000e-01    8.010000e-01
 TP4dr TC2vq  1 3.850000e-01    8.550000e-01
 TP4dr TC3vq  1 3.850000e-01    8.550000e-01
 TP4dr TC4vq  1 3.660000e-01    9.350000e-01
 TP4dr TC5vq  1 3.520000e-01    1.050000e+00
 TP4dr TC6vq  1 3.400000e-01    1.230000e+00
 TP3dr TX1vq  1 3.520000e-01    1.050000e+00
 TP3dr TX2vq  1 3.400000e-01    1.230000e+00
 TP3dr TX3vq  1 3.400000e-01    1.510000e+00
 TP3dr TX4vq  1 3.400000e-01    1.510000e+00
 TP3dr TC1vq  1 4.110000e-01    8.010000e-01
 TP3dr TC2vq  1 3.850000e-01    8.550000e-01
 TP3dr TC3vq  1 3.850000e-01    8.550000e-01
 TP3dr TC4vq  1 3.520000e-01    1.050000e+00
 TP3dr TC5vq  1 3.400000e-01    1.230000e+00
 TP3dr TC6vq  1 3.400000e-01    1.510000e+00
 TP2dr TX1vq  1 3.520000e-01    1.050000e+00
 TP2dr TX2vq  1 3.400000e-01    1.230000e+00
 TP2dr TX3vq  1 3.400000e-01    1.510000e+00
 TP2dr TX4vq  1 3.400000e-01    1.510000e+00
 TP2dr TC1vq  1 3.850000e-01    8.550000e-01
 TP2dr TC2vq  1 3.660000e-01    9.350000e-01
 TP2dr TC3vq  1 3.660000e-01    9.350000e-01
 TP2dr TC4vq  1 3.520000e-01    1.050000e+00
 TP2dr TC5vq  1 3.400000e-01    1.230000e+00
 TP2dr TC6vq  1 3.400000e-01    1.510000e+00
 TP1dr TX1vq  1 3.520000e-01    1.050000e+00
 TP1dr TX2vq  1 3.400000e-01    1.230000e+00
 TP1dr TX3vq  1 3.400000e-01    1.510000e+00
 TP1dr TX4vq  1 3.400000e-01    1.510000e+00
 TP1dr TC1vq  1 3.850000e-01    8.550000e-01
 TP1dr TC2vq  1 3.660000e-01    9.350000e-01
 TP1dr TC3vq  1 3.660000e-01    9.350000e-01
 TP1dr TC4vq  1 3.520000e-01    1.050000e+00
 TP1dr TC5vq  1 3.400000e-01    1.230000e+00
 TP1dr TC6vq  1 3.400000e-01    1.510000e+00
 TN6dr TX1vq  1 3.520000e-01    1.050000e+00
 TN6dr TX2vq  1 3.400000e-01    1.230000e+00
 TN6dr TX3vq  1 3.400000e-01    1.510000e+00
 TN6dr TX4vq  1 3.400000e-01    1.770000e+00
 TN6dr TC1vq  1 3.660000e-01    9.350000e-01
 TN6dr TC2vq  1 3.520000e-01    1.050000e+00
 TN6dr TC3vq  1 3.520000e-01    1.050000e+00
 TN6dr TC4vq  1 3.400000e-01    1.230000e+00
 TN6dr TC5vq  1 3.400000e-01    1.510000e+00
 TN6dr TC6vq  1 3.400000e-01    1.770000e+00
 TN5dr TX1vq  1 3.400000e-01    1.230000e+00
 TN5dr TX2vq  1 3.400000e-01    1.510000e+00
 TN5dr TX3vq  1 3.400000e-01    1.770000e+00
 TN5dr TX4vq  1 3.400000e-01    2.020000e+00
 TN5dr TC1vq  1 3.660000e-01    9.350000e-01
 TN5dr TC2vq  1 3.520000e-01    1.050000e+00
 TN5dr TC3vq  1 3.400000e-01    1.230000e+00
 TN5dr TC4vq  1 3.400000e-01    1.230000e+00
 TN5dr TC5vq  1 3.400000e-01    1.510000e+00
 TN5dr TC6vq  1 3.400000e-01    1.770000e+00
 TN4dr TX1vq  1 3.400000e-01    1.230000e+00
 TN4dr TX2vq  1 3.400000e-01    1.510000e+00
 TN4dr TX3vq  1 3.400000e-01    2.020000e+00
 TN4dr TX4vq  1 3.400000e-01    2.280000e+00
 TN4dr TC1vq  1 3.660000e-01    9.350000e-01
 TN4dr TC2vq  1 3.520000e-01    1.050000e+00
 TN4dr TC3vq  1 3.400000e-01    1.230000e+00
 TN4dr TC4vq  1 3.400000e-01    1.510000e+00
 TN4dr TC5vq  1 3.400000e-01    1.510000e+00
 TN4dr TC6vq  1 3.400000e-01    1.770000e+00
 TN3dr TX1vq  1 3.400000e-01    1.510000e+00
 TN3dr TX2vq  1 3.400000e-01    1.510000e+00
 TN3dr TX3vq  1 3.400000e-01    1.770000e+00
 TN3dr TX4vq  1 3.400000e-01    2.020000e+00
 TN3dr TC1vq  1 3.520000e-01    1.050000e+00
 TN3dr TC2vq  1 3.400000e-01    1.230000e+00
 TN3dr TC3vq  1 3.400000e-01    1.230000e+00
 TN3dr TC4vq  1 3.400000e-01    1.510000e+00
 TN3dr TC5vq  1 3.400000e-01    1.510000e+00
 TN3dr TC6vq  1 3.400000e-01    1.770000e+00
 TN2dr TX1vq  1 3.400000e-01    1.510000e+00
 TN2dr TX2vq  1 3.400000e-01    1.510000e+00
 TN2dr TX3vq  1 3.400000e-01    1.770000e+00
 TN2dr TX4vq  1 3.400000e-01    2.020000e+00
 TN2dr TC1vq  1 3.520000e-01    1.050000e+00
 TN2dr TC2vq  1 3.400000e-01    1.230000e+00
 TN2dr TC3vq  1 3.400000e-01    1.510000e+00
 TN2dr TC4vq  1 3.400000e-01    1.510000e+00
 TN2dr TC5vq  1 3.400000e-01    1.510000e+00
 TN2dr TC6vq  1 3.400000e-01    1.770000e+00
 TN1dr TX1vq  1 3.400000e-01    1.510000e+00
 TN1dr TX2vq  1 3.400000e-01    1.510000e+00
 TN1dr TX3vq  1 3.400000e-01    1.770000e+00
 TN1dr TX4vq  1 3.400000e-01    1.770000e+00
 TN1dr TC1vq  1 3.520000e-01    1.050000e+00
 TN1dr TC2vq  1 3.400000e-01    1.230000e+00
 TN1dr TC3vq  1 3.400000e-01    1.510000e+00
 TN1dr TC4vq  1 3.400000e-01    1.770000e+00
 TN1dr TC5vq  1 3.400000e-01    1.770000e+00
 TN1dr TC6vq  1 3.400000e-01    2.020000e+00
 TP6dr TC6vh  1 3.850000e-01    8.550000e-01
 TP6dr TC5vh  1 4.110000e-01    8.010000e-01
 TP6dr TC4vh  1 4.240000e-01    7.760000e-01
 TP6dr TC3vh  1 4.380000e-01    7.310000e-01
 TP6dr TC2vh  1 4.380000e-01    7.310000e-01
 TP6dr TC1vh  1 5.610000e-01    6.300000e-01
 TP6dr TX4vh  1 3.660000e-01    9.350000e-01
 TP6dr TX3vh  1 3.660000e-01    9.350000e-01
 TP6dr TX2vh  1 3.850000e-01    8.550000e-01
 TP6dr TX1vh  1 4.110000e-01    8.010000e-01
 TP5dr TC6vh  1 3.850000e-01    8.550000e-01
 TP5dr TC5vh  1 3.850000e-01    8.550000e-01
 TP5dr TC4vh  1 4.110000e-01    8.010000e-01
 TP5dr TC3vh  1 4.240000e-01    7.760000e-01
 TP5dr TC2vh  1 4.240000e-01    7.760000e-01
 TP5dr TC1vh  1 4.380000e-01    7.310000e-01
 TP5dr TX4vh  1 3.520000e-01    1.050000e+00
 TP5dr TX3vh  1 3.660000e-01    9.350000e-01
 TP5dr TX2vh  1 3.660000e-01    9.350000e-01
 TP5dr TX1vh  1 4.110000e-01    8.010000e-01
 TP4dr TC6vh  1 3.660000e-01    9.350000e-01
 TP4dr TC5vh  1 3.850000e-01    8.550000e-01
 TP4dr TC4vh  1 4.110000e-01    8.010000e-01
 TP4dr TC3vh  1 4.240000e-01    7.760000e-01
 TP4dr TC2vh  1 4.240000e-01    7.760000e-01
 TP4dr TC1vh  1 4.380000e-01    7.310000e-01
 TP4dr TX4vh  1 3.520000e-01    1.050000e+00
 TP4dr TX3vh  1 3.660000e-01    9.350000e-01
 TP4dr TX2vh  1 3.660000e-01    9.350000e-01
 TP4dr TX1vh  1 3.850000e-01    8.550000e-01
 TP3dr TC6vh  1 3.520000e-01    1.050000e+00
 TP3dr TC5vh  1 3.660000e-01    9.350000e-01
 TP3dr TC4vh  1 3.850000e-01    8.550000e-01
 TP3dr TC3vh  1 4.240000e-01    7.760000e-01
 TP3dr TC2vh  1 4.240000e-01    7.760000e-01
 TP3dr TC1vh  1 4.380000e-01    7.310000e-01
 TP3dr TX4vh  1 3.520000e-01    1.050000e+00
 TP3dr TX3vh  1 3.520000e-01    1.050000e+00
 TP3dr TX2vh  1 3.660000e-01    9.350000e-01
 TP3dr TX1vh  1 3.850000e-01    8.550000e-01
 TP2dr TC6vh  1 3.520000e-01    1.050000e+00
 TP2dr TC5vh  1 3.660000e-01    9.350000e-01
 TP2dr TC4vh  1 3.850000e-01    8.550000e-01
 TP2dr TC3vh  1 4.110000e-01    8.010000e-01
 TP2dr TC2vh  1 4.110000e-01    8.010000e-01
 TP2dr TC1vh  1 4.240000e-01    7.760000e-01
 TP2dr TX4vh  1 3.520000e-01    1.050000e+00
 TP2dr TX3vh  1 3.520000e-01    1.050000e+00
 TP2dr TX2vh  1 3.660000e-01    9.350000e-01
 TP2dr TX1vh  1 3.850000e-01    8.550000e-01
 TP1dr TC6vh  1 3.520000e-01    1.050000e+00
 TP1dr TC5vh  1 3.660000e-01    9.350000e-01
 TP1dr TC4vh  1 3.850000e-01    8.550000e-01
 TP1dr TC3vh  1 4.110000e-01    8.010000e-01
 TP1dr TC2vh  1 4.110000e-01    8.010000e-01
 TP1dr TC1vh  1 4.240000e-01    7.760000e-01
 TP1dr TX4vh  1 3.520000e-01    1.050000e+00
 TP1dr TX3vh  1 3.520000e-01    1.050000e+00
 TP1dr TX2vh  1 3.660000e-01    9.350000e-01
 TP1dr TX1vh  1 3.850000e-01    8.550000e-01
 TN6dr TC6vh  1 3.400000e-01    1.230000e+00
 TN6dr TC5vh  1 3.520000e-01    1.050000e+00
 TN6dr TC4vh  1 3.660000e-01    9.350000e-01
 TN6dr TC3vh  1 3.850000e-01    8.550000e-01
 TN6dr TC2vh  1 3.850000e-01    8.550000e-01
 TN6dr TC1vh  1 4.110000e-01    8.010000e-01
 TN6dr TX4vh  1 3.400000e-01    1.230000e+00
 TN6dr TX3vh  1 3.520000e-01    1.050000e+00
 TN6dr TX2vh  1 3.660000e-01    9.350000e-01
 TN6dr TX1vh  1 3.850000e-01    8.550000e-01
 TN5dr TC6vh  1 3.400000e-01    1.230000e+00
 TN5dr TC5vh  1 3.520000e-01    1.050000e+00
 TN5dr TC4vh  1 3.660000e-01    9.350000e-01
 TN5dr TC3vh  1 3.660000e-01    9.350000e-01
 TN5dr TC2vh  1 3.850000e-01    8.550000e-01
 TN5dr TC1vh  1 4.110000e-01    8.010000e-01
 TN5dr TX4vh  1 3.400000e-01    1.510000e+00
 TN5dr TX3vh  1 3.400000e-01    1.230000e+00
 TN5dr TX2vh  1 3.520000e-01    1.050000e+00
 TN5dr TX1vh  1 3.660000e-01    9.350000e-01
 TN4dr TC6vh  1 3.400000e-01    1.230000e+00
 TN4dr TC5vh  1 3.520000e-01    1.050000e+00
 TN4dr TC4vh  1 3.520000e-01    1.050000e+00
 TN4dr TC3vh  1 3.660000e-01    9.350000e-01
 TN4dr TC2vh  1 3.850000e-01    8.550000e-01
 TN4dr TC1vh  1 4.110000e-01    8.010000e-01
 TN4dr TX4vh  1 3.400000e-01    1.770000e+00
 TN4dr TX3vh  1 3.400000e-01    1.510000e+00
 TN4dr TX2vh  1 3.520000e-01    1.050000e+00
 TN4dr TX1vh  1 3.660000e-01    9.350000e-01
 TN3dr TC6vh  1 3.400000e-01    1.230000e+00
 TN3dr TC5vh  1 3.520000e-01    1.050000e+00
 TN3dr TC4vh  1 3.520000e-01    1.050000e+00
 TN3dr TC3vh  1 3.660000e-01    9.350000e-01
 TN3dr TC2vh  1 3.660000e-01    9.350000e-01
 TN3dr TC1vh  1 3.850000e-01    8.550000e-01
 TN3dr TX4vh  1 3.400000e-01    1.510000e+00
 TN3dr TX3vh  1 3.400000e-01    1.230000e+00
 TN3dr TX2vh  1 3.520000e-01    1.050000e+00
 TN3dr TX1vh  1 3.520000e-01    1.050000e+00
 TN2dr TC6vh  1 3.400000e-01    1.230000e+00
 TN2dr TC5vh  1 3.520000e-01    1.050000e+00
 TN2dr TC4vh  1 3.520000e-01    1.050000e+00
 TN2dr TC3vh  1 3.520000e-01    1.050000e+00
 TN2dr TC2vh  1 3.660000e-01    9.350000e-01
 TN2dr TC1vh  1 3.850000e-01    8.550000e-01
 TN2dr TX4vh  1 3.400000e-01    1.510000e+00
 TN2dr TX3vh  1 3.400000e-01    1.230000e+00
 TN2dr TX2vh  1 3.520000e-01    1.050000e+00
 TN2dr TX1vh  1 3.520000e-01    1.050000e+00
 TN1dr TC6vh  1 3.400000e-01    1.510000e+00
 TN1dr TC5vh  1 3.400000e-01    1.230000e+00
 TN1dr TC4vh  1 3.400000e-01    1.230000e+00
 TN1dr TC3vh  1 3.520000e-01    1.050000e+00
 TN1dr TC2vh  1 3.660000e-01    9.350000e-01
 TN1dr TC1vh  1 3.850000e-01    8.550000e-01
 TN1dr TX4vh  1 3.400000e-01    1.230000e+00
 TN1dr TX3vh  1 3.400000e-01    1.230000e+00
 TN1dr TX2vh  1 3.520000e-01    1.050000e+00
 TN1dr TX1vh  1 3.520000e-01    1.050000e+00
 TP6dr TC6vr  1 3.850000e-01    8.550000e-01
 TP6dr TC5vr  1 4.110000e-01    8.010000e-01
 TP6dr TC4vr  1 4.240000e-01    7.760000e-01
 TP6dr TC3vr  1 4.380000e-01    7.310000e-01
 TP6dr TC2vr  1 4.380000e-01    7.310000e-01
 TP6dr TC1vr  1 5.610000e-01    6.300000e-01
 TP6dr TX4vr  1 3.660000e-01    9.350000e-01
 TP6dr TX3vr  1 3.660000e-01    9.350000e-01
 TP6dr TX2vr  1 3.850000e-01    8.550000e-01
 TP6dr TX1vr  1 4.110000e-01    8.010000e-01
 TP5dr TC6vr  1 3.850000e-01    8.550000e-01
 TP5dr TC5vr  1 3.850000e-01    8.550000e-01
 TP5dr TC4vr  1 4.110000e-01    8.010000e-01
 TP5dr TC3vr  1 4.240000e-01    7.760000e-01
 TP5dr TC2vr  1 4.240000e-01    7.760000e-01
 TP5dr TC1vr  1 4.380000e-01    7.310000e-01
 TP5dr TX4vr  1 3.520000e-01    1.050000e+00
 TP5dr TX3vr  1 3.660000e-01    9.350000e-01
 TP5dr TX2vr  1 3.660000e-01    9.350000e-01
 TP5dr TX1vr  1 4.110000e-01    8.010000e-01
 TP4dr TC6vr  1 3.660000e-01    9.350000e-01
 TP4dr TC5vr  1 3.850000e-01    8.550000e-01
 TP4dr TC4vr  1 4.110000e-01    8.010000e-01
 TP4dr TC3vr  1 4.240000e-01    7.760000e-01
 TP4dr TC2vr  1 4.240000e-01    7.760000e-01
 TP4dr TC1vr  1 4.380000e-01    7.310000e-01
 TP4dr TX4vr  1 3.520000e-01    1.050000e+00
 TP4dr TX3vr  1 3.660000e-01    9.350000e-01
 TP4dr TX2vr  1 3.660000e-01    9.350000e-01
 TP4dr TX1vr  1 3.850000e-01    8.550000e-01
 TP3dr TC6vr  1 3.520000e-01    1.050000e+00
 TP3dr TC5vr  1 3.660000e-01    9.350000e-01
 TP3dr TC4vr  1 3.850000e-01    8.550000e-01
 TP3dr TC3vr  1 4.240000e-01    7.760000e-01
 TP3dr TC2vr  1 4.240000e-01    7.760000e-01
 TP3dr TC1vr  1 4.380000e-01    7.310000e-01
 TP3dr TX4vr  1 3.520000e-01    1.050000e+00
 TP3dr TX3vr  1 3.520000e-01    1.050000e+00
 TP3dr TX2vr  1 3.660000e-01    9.350000e-01
 TP3dr TX1vr  1 3.850000e-01    8.550000e-01
 TP2dr TC6vr  1 3.520000e-01    1.050000e+00
 TP2dr TC5vr  1 3.660000e-01    9.350000e-01
 TP2dr TC4vr  1 3.850000e-01    8.550000e-01
 TP2dr TC3vr  1 4.110000e-01    8.010000e-01
 TP2dr TC2vr  1 4.110000e-01    8.010000e-01
 TP2dr TC1vr  1 4.240000e-01    7.760000e-01
 TP2dr TX4vr  1 3.520000e-01    1.050000e+00
 TP2dr TX3vr  1 3.520000e-01    1.050000e+00
 TP2dr TX2vr  1 3.660000e-01    9.350000e-01
 TP2dr TX1vr  1 3.850000e-01    8.550000e-01
 TP1dr TC6vr  1 3.520000e-01    1.050000e+00
 TP1dr TC5vr  1 3.660000e-01    9.350000e-01
 TP1dr TC4vr  1 3.850000e-01    8.550000e-01
 TP1dr TC3vr  1 4.110000e-01    8.010000e-01
 TP1dr TC2vr  1 4.110000e-01    8.010000e-01
 TP1dr TC1vr  1 4.240000e-01    7.760000e-01
 TP1dr TX4vr  1 3.520000e-01    1.050000e+00
 TP1dr TX3vr  1 3.520000e-01    1.050000e+00
 TP1dr TX2vr  1 3.660000e-01    9.350000e-01
 TP1dr TX1vr  1 3.850000e-01    8.550000e-01
 TN6dr TC6vr  1 3.400000e-01    1.230000e+00
 TN6dr TC5vr  1 3.520000e-01    1.050000e+00
 TN6dr TC4vr  1 3.660000e-01    9.350000e-01
 TN6dr TC3vr  1 3.850000e-01    8.550000e-01
 TN6dr TC2vr  1 3.850000e-01    8.550000e-01
 TN6dr TC1vr  1 4.110000e-01    8.010000e-01
 TN6dr TX4vr  1 3.400000e-01    1.230000e+00
 TN6dr TX3vr  1 3.520000e-01    1.050000e+00
 TN6dr TX2vr  1 3.660000e-01    9.350000e-01
 TN6dr TX1vr  1 3.850000e-01    8.550000e-01
 TN5dr TC6vr  1 3.400000e-01    1.230000e+00
 TN5dr TC5vr  1 3.520000e-01    1.050000e+00
 TN5dr TC4vr  1 3.660000e-01    9.350000e-01
 TN5dr TC3vr  1 3.660000e-01    9.350000e-01
 TN5dr TC2vr  1 3.850000e-01    8.550000e-01
 TN5dr TC1vr  1 4.110000e-01    8.010000e-01
 TN5dr TX4vr  1 3.400000e-01    1.510000e+00
 TN5dr TX3vr  1 3.400000e-01    1.230000e+00
 TN5dr TX2vr  1 3.520000e-01    1.050000e+00
 TN5dr TX1vr  1 3.660000e-01    9.350000e-01
 TN4dr TC6vr  1 3.400000e-01    1.230000e+00
 TN4dr TC5vr  1 3.520000e-01    1.050000e+00
 TN4dr TC4vr  1 3.520000e-01    1.050000e+00
 TN4dr TC3vr  1 3.660000e-01    9.350000e-01
 TN4dr TC2vr  1 3.850000e-01    8.550000e-01
 TN4dr TC1vr  1 4.110000e-01    8.010000e-01
 TN4dr TX4vr  1 3.400000e-01    1.770000e+00
 TN4dr TX3vr  1 3.400000e-01    1.510000e+00
 TN4dr TX2vr  1 3.520000e-01    1.050000e+00
 TN4dr TX1vr  1 3.660000e-01    9.350000e-01
 TN3dr TC6vr  1 3.400000e-01    1.230000e+00
 TN3dr TC5vr  1 3.520000e-01    1.050000e+00
 TN3dr TC4vr  1 3.520000e-01    1.050000e+00
 TN3dr TC3vr  1 3.660000e-01    9.350000e-01
 TN3dr TC2vr  1 3.660000e-01    9.350000e-01
 TN3dr TC1vr  1 3.850000e-01    8.550000e-01
 TN3dr TX4vr  1 3.400000e-01    1.510000e+00
 TN3dr TX3vr  1 3.400000e-01    1.230000e+00
 TN3dr TX2vr  1 3.520000e-01    1.050000e+00
 TN3dr TX1vr  1 3.520000e-01    1.050000e+00
 TN2dr TC6vr  1 3.400000e-01    1.230000e+00
 TN2dr TC5vr  1 3.520000e-01    1.050000e+00
 TN2dr TC4vr  1 3.520000e-01    1.050000e+00
 TN2dr TC3vr  1 3.520000e-01    1.050000e+00
 TN2dr TC2vr  1 3.660000e-01    9.350000e-01
 TN2dr TC1vr  1 3.850000e-01    8.550000e-01
 TN2dr TX4vr  1 3.400000e-01    1.510000e+00
 TN2dr TX3vr  1 3.400000e-01    1.230000e+00
 TN2dr TX2vr  1 3.520000e-01    1.050000e+00
 TN2dr TX1vr  1 3.520000e-01    1.050000e+00
 TN1dr TC6vr  1 3.400000e-01    1.510000e+00
 TN1dr TC5vr  1 3.400000e-01    1.230000e+00
 TN1dr TC4vr  1 3.400000e-01    1.230000e+00
 TN1dr TC3vr  1 3.520000e-01    1.050000e+00
 TN1dr TC2vr  1 3.660000e-01    9.350000e-01
 TN1dr TC1vr  1 3.850000e-01    8.550000e-01
 TN1dr TX4vr  1 3.400000e-01    1.230000e+00
 TN1dr TX3vr  1 3.400000e-01    1.230000e+00
 TN1dr TX2vr  1 3.520000e-01    1.050000e+00
 TN1dr TX1vr  1 3.520000e-01    1.050000e+00
  TP6a  TC6e  1 3.850000e-01    8.550000e-01
  TP6a  TC5e  1 4.110000e-01    8.010000e-01
  TP6a  TC4e  1 4.240000e-01    7.760000e-01
  TP6a  TC3e  1 4.380000e-01    7.310000e-01
  TP6a  TC2e  1 4.380000e-01    7.310000e-01
  TP6a  TC1e  1 5.610000e-01    6.300000e-01
  TP6a  TX4e  1 3.660000e-01    9.350000e-01
  TP6a  TX3e  1 3.660000e-01    9.350000e-01
  TP6a  TX2e  1 3.850000e-01    8.550000e-01
  TP6a  TX1e  1 4.110000e-01    8.010000e-01
  TP5a  TC6e  1 3.850000e-01    8.550000e-01
  TP5a  TC5e  1 3.850000e-01    8.550000e-01
  TP5a  TC4e  1 4.110000e-01    8.010000e-01
  TP5a  TC3e  1 4.240000e-01    7.760000e-01
  TP5a  TC2e  1 4.240000e-01    7.760000e-01
  TP5a  TC1e  1 4.380000e-01    7.310000e-01
  TP5a  TX4e  1 3.520000e-01    1.050000e+00
  TP5a  TX3e  1 3.660000e-01    9.350000e-01
  TP5a  TX2e  1 3.660000e-01    9.350000e-01
  TP5a  TX1e  1 4.110000e-01    8.010000e-01
  TP4a  TC6e  1 3.660000e-01    9.350000e-01
  TP4a  TC5e  1 3.850000e-01    8.550000e-01
  TP4a  TC4e  1 4.110000e-01    8.010000e-01
  TP4a  TC3e  1 4.240000e-01    7.760000e-01
  TP4a  TC2e  1 4.240000e-01    7.760000e-01
  TP4a  TC1e  1 4.380000e-01    7.310000e-01
  TP4a  TX4e  1 3.520000e-01    1.050000e+00
  TP4a  TX3e  1 3.660000e-01    9.350000e-01
  TP4a  TX2e  1 3.660000e-01    9.350000e-01
  TP4a  TX1e  1 3.850000e-01    8.550000e-01
  TP3a  TC6e  1 3.520000e-01    1.050000e+00
  TP3a  TC5e  1 3.660000e-01    9.350000e-01
  TP3a  TC4e  1 3.850000e-01    8.550000e-01
  TP3a  TC3e  1 4.240000e-01    7.760000e-01
  TP3a  TC2e  1 4.240000e-01    7.760000e-01
  TP3a  TC1e  1 4.380000e-01    7.310000e-01
  TP3a  TX4e  1 3.520000e-01    1.050000e+00
  TP3a  TX3e  1 3.520000e-01    1.050000e+00
  TP3a  TX2e  1 3.660000e-01    9.350000e-01
  TP3a  TX1e  1 3.850000e-01    8.550000e-01
  TP2a  TC6e  1 3.520000e-01    1.050000e+00
  TP2a  TC5e  1 3.660000e-01    9.350000e-01
  TP2a  TC4e  1 3.850000e-01    8.550000e-01
  TP2a  TC3e  1 4.110000e-01    8.010000e-01
  TP2a  TC2e  1 4.110000e-01    8.010000e-01
  TP2a  TC1e  1 4.240000e-01    7.760000e-01
  TP2a  TX4e  1 3.520000e-01    1.050000e+00
  TP2a  TX3e  1 3.520000e-01    1.050000e+00
  TP2a  TX2e  1 3.660000e-01    9.350000e-01
  TP2a  TX1e  1 3.850000e-01    8.550000e-01
  TP1a  TC6e  1 3.520000e-01    1.050000e+00
  TP1a  TC5e  1 3.660000e-01    9.350000e-01
  TP1a  TC4e  1 3.850000e-01    8.550000e-01
  TP1a  TC3e  1 4.110000e-01    8.010000e-01
  TP1a  TC2e  1 4.110000e-01    8.010000e-01
  TP1a  TC1e  1 4.240000e-01    7.760000e-01
  TP1a  TX4e  1 3.520000e-01    1.050000e+00
  TP1a  TX3e  1 3.520000e-01    1.050000e+00
  TP1a  TX2e  1 3.660000e-01    9.350000e-01
  TP1a  TX1e  1 3.850000e-01    8.550000e-01
  TN6a  TC6e  1 3.400000e-01    1.230000e+00
  TN6a  TC5e  1 3.520000e-01    1.050000e+00
  TN6a  TC4e  1 3.660000e-01    9.350000e-01
  TN6a  TC3e  1 3.850000e-01    8.550000e-01
  TN6a  TC2e  1 3.850000e-01    8.550000e-01
  TN6a  TC1e  1 4.110000e-01    8.010000e-01
  TN6a  TX4e  1 3.400000e-01    1.230000e+00
  TN6a  TX3e  1 3.520000e-01    1.050000e+00
  TN6a  TX2e  1 3.660000e-01    9.350000e-01
  TN6a  TX1e  1 3.850000e-01    8.550000e-01
  TN5a  TC6e  1 3.400000e-01    1.230000e+00
  TN5a  TC5e  1 3.520000e-01    1.050000e+00
  TN5a  TC4e  1 3.660000e-01    9.350000e-01
  TN5a  TC3e  1 3.660000e-01    9.350000e-01
  TN5a  TC2e  1 3.850000e-01    8.550000e-01
  TN5a  TC1e  1 4.110000e-01    8.010000e-01
  TN5a  TX4e  1 3.400000e-01    1.510000e+00
  TN5a  TX3e  1 3.400000e-01    1.230000e+00
  TN5a  TX2e  1 3.520000e-01    1.050000e+00
  TN5a  TX1e  1 3.660000e-01    9.350000e-01
  TN4a  TC6e  1 3.400000e-01    1.230000e+00
  TN4a  TC5e  1 3.520000e-01    1.050000e+00
  TN4a  TC4e  1 3.520000e-01    1.050000e+00
  TN4a  TC3e  1 3.660000e-01    9.350000e-01
  TN4a  TC2e  1 3.850000e-01    8.550000e-01
  TN4a  TC1e  1 4.110000e-01    8.010000e-01
  TN4a  TX4e  1 3.400000e-01    1.770000e+00
  TN4a  TX3e  1 3.400000e-01    1.510000e+00
  TN4a  TX2e  1 3.520000e-01    1.050000e+00
  TN4a  TX1e  1 3.660000e-01    9.350000e-01
  TN3a  TC6e  1 3.400000e-01    1.230000e+00
  TN3a  TC5e  1 3.520000e-01    1.050000e+00
  TN3a  TC4e  1 3.520000e-01    1.050000e+00
  TN3a  TC3e  1 3.660000e-01    9.350000e-01
  TN3a  TC2e  1 3.660000e-01    9.350000e-01
  TN3a  TC1e  1 3.850000e-01    8.550000e-01
  TN3a  TX4e  1 3.400000e-01    1.510000e+00
  TN3a  TX3e  1 3.400000e-01    1.230000e+00
  TN3a  TX2e  1 3.520000e-01    1.050000e+00
  TN3a  TX1e  1 3.520000e-01    1.050000e+00
  TN2a  TC6e  1 3.400000e-01    1.230000e+00
  TN2a  TC5e  1 3.520000e-01    1.050000e+00
  TN2a  TC4e  1 3.520000e-01    1.050000e+00
  TN2a  TC3e  1 3.520000e-01    1.050000e+00
  TN2a  TC2e  1 3.660000e-01    9.350000e-01
  TN2a  TC1e  1 3.850000e-01    8.550000e-01
  TN2a  TX4e  1 3.400000e-01    1.510000e+00
  TN2a  TX3e  1 3.400000e-01    1.230000e+00
  TN2a  TX2e  1 3.520000e-01    1.050000e+00
  TN2a  TX1e  1 3.520000e-01    1.050000e+00
  TN1a  TC6e  1 3.400000e-01    1.510000e+00
  TN1a  TC5e  1 3.400000e-01    1.230000e+00
  TN1a  TC4e  1 3.400000e-01    1.230000e+00
  TN1a  TC3e  1 3.520000e-01    1.050000e+00
  TN1a  TC2e  1 3.660000e-01    9.350000e-01
  TN1a  TC1e  1 3.850000e-01    8.550000e-01
  TN1a  TX4e  1 3.400000e-01    1.230000e+00
  TN1a  TX3e  1 3.400000e-01    1.230000e+00
  TN1a  TX2e  1 3.520000e-01    1.050000e+00
  TN1a  TX1e  1 3.520000e-01    1.050000e+00
  TP6a TX1eq  1 3.660000e-01    9.350000e-01
  TP5a TX1eq  1 3.660000e-01    9.350000e-01
  TP4a TX1eq  1 3.520000e-01    1.050000e+00
  TP3a TX1eq  1 3.520000e-01    1.050000e+00
  TP2a TX1eq  1 3.520000e-01    1.050000e+00
  TP1a TX1eq  1 3.520000e-01    1.050000e+00
  TN6a TX1eq  1 3.520000e-01    1.050000e+00
  TN5a TX1eq  1 3.400000e-01    1.230000e+00
  TN4a TX1eq  1 3.400000e-01    1.230000e+00
  TN3a TX1eq  1 3.400000e-01    1.510000e+00
  TN2a TX1eq  1 3.400000e-01    1.510000e+00
  TN1a TX1eq  1 3.400000e-01    1.510000e+00
  TP6a TX2eq  1 3.520000e-01    1.050000e+00
  TP5a TX2eq  1 3.400000e-01    1.230000e+00
  TP4a TX2eq  1 3.400000e-01    1.230000e+00
  TP3a TX2eq  1 3.400000e-01    1.230000e+00
  TP2a TX2eq  1 3.400000e-01    1.230000e+00
  TP1a TX2eq  1 3.400000e-01    1.230000e+00
  TN6a TX2eq  1 3.400000e-01    1.230000e+00
  TN5a TX2eq  1 3.400000e-01    1.510000e+00
  TN4a TX2eq  1 3.400000e-01    1.510000e+00
  TN3a TX2eq  1 3.400000e-01    1.510000e+00
  TN2a TX2eq  1 3.400000e-01    1.510000e+00
  TN1a TX2eq  1 3.400000e-01    1.510000e+00
  TP6a TX3eq  1 3.400000e-01    1.230000e+00
  TP5a TX3eq  1 3.400000e-01    1.230000e+00
  TP4a TX3eq  1 3.400000e-01    1.230000e+00
  TP3a TX3eq  1 3.400000e-01    1.510000e+00
  TP2a TX3eq  1 3.400000e-01    1.510000e+00
  TP1a TX3eq  1 3.400000e-01    1.510000e+00
  TN6a TX3eq  1 3.400000e-01    1.510000e+00
  TN5a TX3eq  1 3.400000e-01    1.770000e+00
  TN4a TX3eq  1 3.400000e-01    2.020000e+00
  TN3a TX3eq  1 3.400000e-01    1.770000e+00
  TN2a TX3eq  1 3.400000e-01    1.770000e+00
  TN1a TX3eq  1 3.400000e-01    1.770000e+00
  TP6a TX4eq  1 3.400000e-01    1.230000e+00
  TP5a TX4eq  1 3.400000e-01    1.510000e+00
  TP4a TX4eq  1 3.400000e-01    1.510000e+00
  TP3a TX4eq  1 3.400000e-01    1.510000e+00
  TP2a TX4eq  1 3.400000e-01    1.510000e+00
  TP1a TX4eq  1 3.400000e-01    1.510000e+00
  TN6a TX4eq  1 3.400000e-01    1.770000e+00
  TN5a TX4eq  1 3.400000e-01    2.020000e+00
  TN4a TX4eq  1 3.400000e-01    2.280000e+00
  TN3a TX4eq  1 3.400000e-01    2.020000e+00
  TN2a TX4eq  1 3.400000e-01    2.020000e+00
  TN1a TX4eq  1 3.400000e-01    1.770000e+00
  TP6a TC1eq  1 4.380000e-01    7.310000e-01
  TP5a TC1eq  1 4.110000e-01    8.010000e-01
  TP4a TC1eq  1 4.110000e-01    8.010000e-01
  TP3a TC1eq  1 4.110000e-01    8.010000e-01
  TP2a TC1eq  1 3.850000e-01    8.550000e-01
  TP1a TC1eq  1 3.850000e-01    8.550000e-01
  TN6a TC1eq  1 3.660000e-01    9.350000e-01
  TN5a TC1eq  1 3.660000e-01    9.350000e-01
  TN4a TC1eq  1 3.660000e-01    9.350000e-01
  TN3a TC1eq  1 3.520000e-01    1.050000e+00
  TN2a TC1eq  1 3.520000e-01    1.050000e+00
  TN1a TC1eq  1 3.520000e-01    1.050000e+00
  TP6a TC2eq  1 4.110000e-01    8.010000e-01
  TP5a TC2eq  1 3.850000e-01    8.550000e-01
  TP4a TC2eq  1 3.850000e-01    8.550000e-01
  TP3a TC2eq  1 3.850000e-01    8.550000e-01
  TP2a TC2eq  1 3.660000e-01    9.350000e-01
  TP1a TC2eq  1 3.660000e-01    9.350000e-01
  TN6a TC2eq  1 3.520000e-01    1.050000e+00
  TN5a TC2eq  1 3.520000e-01    1.050000e+00
  TN4a TC2eq  1 3.520000e-01    1.050000e+00
  TN3a TC2eq  1 3.400000e-01    1.230000e+00
  TN2a TC2eq  1 3.400000e-01    1.230000e+00
  TN1a TC2eq  1 3.400000e-01    1.230000e+00
  TP6a TC3eq  1 4.110000e-01    8.010000e-01
  TP5a TC3eq  1 3.850000e-01    8.550000e-01
  TP4a TC3eq  1 3.850000e-01    8.550000e-01
  TP3a TC3eq  1 3.850000e-01    8.550000e-01
  TP2a TC3eq  1 3.660000e-01    9.350000e-01
  TP1a TC3eq  1 3.660000e-01    9.350000e-01
  TN6a TC3eq  1 3.520000e-01    1.050000e+00
  TN5a TC3eq  1 3.400000e-01    1.230000e+00
  TN4a TC3eq  1 3.400000e-01    1.230000e+00
  TN3a TC3eq  1 3.400000e-01    1.230000e+00
  TN2a TC3eq  1 3.400000e-01    1.510000e+00
  TN1a TC3eq  1 3.400000e-01    1.510000e+00
  TP6a TC4eq  1 3.850000e-01    8.550000e-01
  TP5a TC4eq  1 3.660000e-01    9.350000e-01
  TP4a TC4eq  1 3.660000e-01    9.350000e-01
  TP3a TC4eq  1 3.520000e-01    1.050000e+00
  TP2a TC4eq  1 3.520000e-01    1.050000e+00
  TP1a TC4eq  1 3.520000e-01    1.050000e+00
  TN6a TC4eq  1 3.400000e-01    1.230000e+00
  TN5a TC4eq  1 3.400000e-01    1.230000e+00
  TN4a TC4eq  1 3.400000e-01    1.510000e+00
  TN3a TC4eq  1 3.400000e-01    1.510000e+00
  TN2a TC4eq  1 3.400000e-01    1.510000e+00
  TN1a TC4eq  1 3.400000e-01    1.770000e+00
  TP6a TC5eq  1 3.660000e-01    9.350000e-01
  TP5a TC5eq  1 3.520000e-01    1.050000e+00
  TP4a TC5eq  1 3.520000e-01    1.050000e+00
  TP3a TC5eq  1 3.400000e-01    1.230000e+00
  TP2a TC5eq  1 3.400000e-01    1.230000e+00
  TP1a TC5eq  1 3.400000e-01    1.230000e+00
  TN6a TC5eq  1 3.400000e-01    1.510000e+00
  TN5a TC5eq  1 3.400000e-01    1.510000e+00
  TN4a TC5eq  1 3.400000e-01    1.510000e+00
  TN3a TC5eq  1 3.400000e-01    1.510000e+00
  TN2a TC5eq  1 3.400000e-01    1.510000e+00
  TN1a TC5eq  1 3.400000e-01    1.770000e+00
  TP6a TC6eq  1 3.520000e-01    1.050000e+00
  TP5a TC6eq  1 3.520000e-01    1.050000e+00
  TP4a TC6eq  1 3.400000e-01    1.230000e+00
  TP3a TC6eq  1 3.400000e-01    1.510000e+00
  TP2a TC6eq  1 3.400000e-01    1.510000e+00
  TP1a TC6eq  1 3.400000e-01    1.510000e+00
  TN6a TC6eq  1 3.400000e-01    1.770000e+00
  TN5a TC6eq  1 3.400000e-01    1.770000e+00
  TN4a TC6eq  1 3.400000e-01    1.770000e+00
  TN3a TC6eq  1 3.400000e-01    1.770000e+00
  TN2a TC6eq  1 3.400000e-01    1.770000e+00
  TN1a TC6eq  1 3.400000e-01    2.020000e+00
  TP6a TX1eh  1 4.110000e-01    8.010000e-01
  TP5a TX1eh  1 4.110000e-01    8.010000e-01
  TP4a TX1eh  1 3.850000e-01    8.550000e-01
  TP3a TX1eh  1 3.850000e-01    8.550000e-01
  TP2a TX1eh  1 3.850000e-01    8.550000e-01
  TP1a TX1eh  1 3.850000e-01    8.550000e-01
  TN6a TX1eh  1 3.850000e-01    8.550000e-01
  TN5a TX1eh  1 3.660000e-01    9.350000e-01
  TN4a TX1eh  1 3.660000e-01    9.350000e-01
  TN3a TX1eh  1 3.520000e-01    1.050000e+00
  TN2a TX1eh  1 3.520000e-01    1.050000e+00
  TN1a TX1eh  1 3.520000e-01    1.050000e+00
  TP6a TX2eh  1 3.850000e-01    8.550000e-01
  TP5a TX2eh  1 3.660000e-01    9.350000e-01
  TP4a TX2eh  1 3.660000e-01    9.350000e-01
  TP3a TX2eh  1 3.660000e-01    9.350000e-01
  TP2a TX2eh  1 3.660000e-01    9.350000e-01
  TP1a TX2eh  1 3.660000e-01    9.350000e-01
  TN6a TX2eh  1 3.660000e-01    9.350000e-01
  TN5a TX2eh  1 3.520000e-01    1.050000e+00
  TN4a TX2eh  1 3.520000e-01    1.050000e+00
  TN3a TX2eh  1 3.520000e-01    1.050000e+00
  TN2a TX2eh  1 3.520000e-01    1.050000e+00
  TN1a TX2eh  1 3.520000e-01    1.050000e+00
  TP6a TX3eh  1 3.660000e-01    9.350000e-01
  TP5a TX3eh  1 3.660000e-01    9.350000e-01
  TP4a TX3eh  1 3.660000e-01    9.350000e-01
  TP3a TX3eh  1 3.520000e-01    1.050000e+00
  TP2a TX3eh  1 3.520000e-01    1.050000e+00
  TP1a TX3eh  1 3.520000e-01    1.050000e+00
  TN6a TX3eh  1 3.520000e-01    1.050000e+00
  TN5a TX3eh  1 3.400000e-01    1.230000e+00
  TN4a TX3eh  1 3.400000e-01    1.510000e+00
  TN3a TX3eh  1 3.400000e-01    1.230000e+00
  TN2a TX3eh  1 3.400000e-01    1.230000e+00
  TN1a TX3eh  1 3.400000e-01    1.230000e+00
  TP6a TX4eh  1 3.660000e-01    9.350000e-01
  TP5a TX4eh  1 3.520000e-01    1.050000e+00
  TP4a TX4eh  1 3.520000e-01    1.050000e+00
  TP3a TX4eh  1 3.520000e-01    1.050000e+00
  TP2a TX4eh  1 3.520000e-01    1.050000e+00
  TP1a TX4eh  1 3.520000e-01    1.050000e+00
  TN6a TX4eh  1 3.400000e-01    1.230000e+00
  TN5a TX4eh  1 3.400000e-01    1.510000e+00
  TN4a TX4eh  1 3.400000e-01    1.770000e+00
  TN3a TX4eh  1 3.400000e-01    1.510000e+00
  TN2a TX4eh  1 3.400000e-01    1.510000e+00
  TN1a TX4eh  1 3.400000e-01    1.230000e+00
  TP6a TC1eh  1 5.610000e-01    6.300000e-01
  TP5a TC1eh  1 4.380000e-01    7.310000e-01
  TP4a TC1eh  1 4.380000e-01    7.310000e-01
  TP3a TC1eh  1 4.380000e-01    7.310000e-01
  TP2a TC1eh  1 4.240000e-01    7.760000e-01
  TP1a TC1eh  1 4.240000e-01    7.760000e-01
  TN6a TC1eh  1 4.110000e-01    8.010000e-01
  TN5a TC1eh  1 4.110000e-01    8.010000e-01
  TN4a TC1eh  1 4.110000e-01    8.010000e-01
  TN3a TC1eh  1 3.850000e-01    8.550000e-01
  TN2a TC1eh  1 3.850000e-01    8.550000e-01
  TN1a TC1eh  1 3.850000e-01    8.550000e-01
  TP6a TC2eh  1 4.380000e-01    7.310000e-01
  TP5a TC2eh  1 4.240000e-01    7.760000e-01
  TP4a TC2eh  1 4.240000e-01    7.760000e-01
  TP3a TC2eh  1 4.240000e-01    7.760000e-01
  TP2a TC2eh  1 4.110000e-01    8.010000e-01
  TP1a TC2eh  1 4.110000e-01    8.010000e-01
  TN6a TC2eh  1 3.850000e-01    8.550000e-01
  TN5a TC2eh  1 3.850000e-01    8.550000e-01
  TN4a TC2eh  1 3.850000e-01    8.550000e-01
  TN3a TC2eh  1 3.660000e-01    9.350000e-01
  TN2a TC2eh  1 3.660000e-01    9.350000e-01
  TN1a TC2eh  1 3.660000e-01    9.350000e-01
  TP6a TC3eh  1 4.380000e-01    7.310000e-01
  TP5a TC3eh  1 4.240000e-01    7.760000e-01
  TP4a TC3eh  1 4.240000e-01    7.760000e-01
  TP3a TC3eh  1 4.240000e-01    7.760000e-01
  TP2a TC3eh  1 4.110000e-01    8.010000e-01
  TP1a TC3eh  1 4.110000e-01    8.010000e-01
  TN6a TC3eh  1 3.850000e-01    8.550000e-01
  TN5a TC3eh  1 3.660000e-01    9.350000e-01
  TN4a TC3eh  1 3.660000e-01    9.350000e-01
  TN3a TC3eh  1 3.660000e-01    9.350000e-01
  TN2a TC3eh  1 3.520000e-01    1.050000e+00
  TN1a TC3eh  1 3.520000e-01    1.050000e+00
  TP6a TC4eh  1 4.240000e-01    7.760000e-01
  TP5a TC4eh  1 4.110000e-01    8.010000e-01
  TP4a TC4eh  1 4.110000e-01    8.010000e-01
  TP3a TC4eh  1 3.850000e-01    8.550000e-01
  TP2a TC4eh  1 3.850000e-01    8.550000e-01
  TP1a TC4eh  1 3.850000e-01    8.550000e-01
  TN6a TC4eh  1 3.660000e-01    9.350000e-01
  TN5a TC4eh  1 3.660000e-01    9.350000e-01
  TN4a TC4eh  1 3.520000e-01    1.050000e+00
  TN3a TC4eh  1 3.520000e-01    1.050000e+00
  TN2a TC4eh  1 3.520000e-01    1.050000e+00
  TN1a TC4eh  1 3.400000e-01    1.230000e+00
  TP6a TC5eh  1 4.110000e-01    8.010000e-01
  TP5a TC5eh  1 3.850000e-01    8.550000e-01
  TP4a TC5eh  1 3.850000e-01    8.550000e-01
  TP3a TC5eh  1 3.660000e-01    9.350000e-01
  TP2a TC5eh  1 3.660000e-01    9.350000e-01
  TP1a TC5eh  1 3.660000e-01    9.350000e-01
  TN6a TC5eh  1 3.520000e-01    1.050000e+00
  TN5a TC5eh  1 3.520000e-01    1.050000e+00
  TN4a TC5eh  1 3.520000e-01    1.050000e+00
  TN3a TC5eh  1 3.520000e-01    1.050000e+00
  TN2a TC5eh  1 3.520000e-01    1.050000e+00
  TN1a TC5eh  1 3.400000e-01    1.230000e+00
  TP6a TC6eh  1 3.850000e-01    8.550000e-01
  TP5a TC6eh  1 3.850000e-01    8.550000e-01
  TP4a TC6eh  1 3.660000e-01    9.350000e-01
  TP3a TC6eh  1 3.520000e-01    1.050000e+00
  TP2a TC6eh  1 3.520000e-01    1.050000e+00
  TP1a TC6eh  1 3.520000e-01    1.050000e+00
  TN6a TC6eh  1 3.400000e-01    1.230000e+00
  TN5a TC6eh  1 3.400000e-01    1.230000e+00
  TN4a TC6eh  1 3.400000e-01    1.230000e+00
  TN3a TC6eh  1 3.400000e-01    1.230000e+00
  TN2a TC6eh  1 3.400000e-01    1.230000e+00
  TN1a TC6eh  1 3.400000e-01    1.510000e+00
  TP6a TX1er  1 4.110000e-01    8.010000e-01
  TP5a TX1er  1 4.110000e-01    8.010000e-01
  TP4a TX1er  1 3.850000e-01    8.550000e-01
  TP3a TX1er  1 3.850000e-01    8.550000e-01
  TP2a TX1er  1 3.850000e-01    8.550000e-01
  TP1a TX1er  1 3.850000e-01    8.550000e-01
  TN6a TX1er  1 3.850000e-01    8.550000e-01
  TN5a TX1er  1 3.660000e-01    9.350000e-01
  TN4a TX1er  1 3.660000e-01    9.350000e-01
  TN3a TX1er  1 3.520000e-01    1.050000e+00
  TN2a TX1er  1 3.520000e-01    1.050000e+00
  TN1a TX1er  1 3.520000e-01    1.050000e+00
  TP6a TX2er  1 3.850000e-01    8.550000e-01
  TP5a TX2er  1 3.660000e-01    9.350000e-01
  TP4a TX2er  1 3.660000e-01    9.350000e-01
  TP3a TX2er  1 3.660000e-01    9.350000e-01
  TP2a TX2er  1 3.660000e-01    9.350000e-01
  TP1a TX2er  1 3.660000e-01    9.350000e-01
  TN6a TX2er  1 3.660000e-01    9.350000e-01
  TN5a TX2er  1 3.520000e-01    1.050000e+00
  TN4a TX2er  1 3.520000e-01    1.050000e+00
  TN3a TX2er  1 3.520000e-01    1.050000e+00
  TN2a TX2er  1 3.520000e-01    1.050000e+00
  TN1a TX2er  1 3.520000e-01    1.050000e+00
  TP6a TX3er  1 3.660000e-01    9.350000e-01
  TP5a TX3er  1 3.660000e-01    9.350000e-01
  TP4a TX3er  1 3.660000e-01    9.350000e-01
  TP3a TX3er  1 3.520000e-01    1.050000e+00
  TP2a TX3er  1 3.520000e-01    1.050000e+00
  TP1a TX3er  1 3.520000e-01    1.050000e+00
  TN6a TX3er  1 3.520000e-01    1.050000e+00
  TN5a TX3er  1 3.400000e-01    1.230000e+00
  TN4a TX3er  1 3.400000e-01    1.510000e+00
  TN3a TX3er  1 3.400000e-01    1.230000e+00
  TN2a TX3er  1 3.400000e-01    1.230000e+00
  TN1a TX3er  1 3.400000e-01    1.230000e+00
  TP6a TX4er  1 3.660000e-01    9.350000e-01
  TP5a TX4er  1 3.520000e-01    1.050000e+00
  TP4a TX4er  1 3.520000e-01    1.050000e+00
  TP3a TX4er  1 3.520000e-01    1.050000e+00
  TP2a TX4er  1 3.520000e-01    1.050000e+00
  TP1a TX4er  1 3.520000e-01    1.050000e+00
  TN6a TX4er  1 3.400000e-01    1.230000e+00
  TN5a TX4er  1 3.400000e-01    1.510000e+00
  TN4a TX4er  1 3.400000e-01    1.770000e+00
  TN3a TX4er  1 3.400000e-01    1.510000e+00
  TN2a TX4er  1 3.400000e-01    1.510000e+00
  TN1a TX4er  1 3.400000e-01    1.230000e+00
  TP6a TC1er  1 5.610000e-01    6.300000e-01
  TP5a TC1er  1 4.380000e-01    7.310000e-01
  TP4a TC1er  1 4.380000e-01    7.310000e-01
  TP3a TC1er  1 4.380000e-01    7.310000e-01
  TP2a TC1er  1 4.240000e-01    7.760000e-01
  TP1a TC1er  1 4.240000e-01    7.760000e-01
  TN6a TC1er  1 4.110000e-01    8.010000e-01
  TN5a TC1er  1 4.110000e-01    8.010000e-01
  TN4a TC1er  1 4.110000e-01    8.010000e-01
  TN3a TC1er  1 3.850000e-01    8.550000e-01
  TN2a TC1er  1 3.850000e-01    8.550000e-01
  TN1a TC1er  1 3.850000e-01    8.550000e-01
  TP6a TC2er  1 4.380000e-01    7.310000e-01
  TP5a TC2er  1 4.240000e-01    7.760000e-01
  TP4a TC2er  1 4.240000e-01    7.760000e-01
  TP3a TC2er  1 4.240000e-01    7.760000e-01
  TP2a TC2er  1 4.110000e-01    8.010000e-01
  TP1a TC2er  1 4.110000e-01    8.010000e-01
  TN6a TC2er  1 3.850000e-01    8.550000e-01
  TN5a TC2er  1 3.850000e-01    8.550000e-01
  TN4a TC2er  1 3.850000e-01    8.550000e-01
  TN3a TC2er  1 3.660000e-01    9.350000e-01
  TN2a TC2er  1 3.660000e-01    9.350000e-01
  TN1a TC2er  1 3.660000e-01    9.350000e-01
  TP6a TC3er  1 4.380000e-01    7.310000e-01
  TP5a TC3er  1 4.240000e-01    7.760000e-01
  TP4a TC3er  1 4.240000e-01    7.760000e-01
  TP3a TC3er  1 4.240000e-01    7.760000e-01
  TP2a TC3er  1 4.110000e-01    8.010000e-01
  TP1a TC3er  1 4.110000e-01    8.010000e-01
  TN6a TC3er  1 3.850000e-01    8.550000e-01
  TN5a TC3er  1 3.660000e-01    9.350000e-01
  TN4a TC3er  1 3.660000e-01    9.350000e-01
  TN3a TC3er  1 3.660000e-01    9.350000e-01
  TN2a TC3er  1 3.520000e-01    1.050000e+00
  TN1a TC3er  1 3.520000e-01    1.050000e+00
  TP6a TC4er  1 4.240000e-01    7.760000e-01
  TP5a TC4er  1 4.110000e-01    8.010000e-01
  TP4a TC4er  1 4.110000e-01    8.010000e-01
  TP3a TC4er  1 3.850000e-01    8.550000e-01
  TP2a TC4er  1 3.850000e-01    8.550000e-01
  TP1a TC4er  1 3.850000e-01    8.550000e-01
  TN6a TC4er  1 3.660000e-01    9.350000e-01
  TN5a TC4er  1 3.660000e-01    9.350000e-01
  TN4a TC4er  1 3.520000e-01    1.050000e+00
  TN3a TC4er  1 3.520000e-01    1.050000e+00
  TN2a TC4er  1 3.520000e-01    1.050000e+00
  TN1a TC4er  1 3.400000e-01    1.230000e+00
  TP6a TC5er  1 4.110000e-01    8.010000e-01
  TP5a TC5er  1 3.850000e-01    8.550000e-01
  TP4a TC5er  1 3.850000e-01    8.550000e-01
  TP3a TC5er  1 3.660000e-01    9.350000e-01
  TP2a TC5er  1 3.660000e-01    9.350000e-01
  TP1a TC5er  1 3.660000e-01    9.350000e-01
  TN6a TC5er  1 3.520000e-01    1.050000e+00
  TN5a TC5er  1 3.520000e-01    1.050000e+00
  TN4a TC5er  1 3.520000e-01    1.050000e+00
  TN3a TC5er  1 3.520000e-01    1.050000e+00
  TN2a TC5er  1 3.520000e-01    1.050000e+00
  TN1a TC5er  1 3.400000e-01    1.230000e+00
  TP6a TC6er  1 3.850000e-01    8.550000e-01
  TP5a TC6er  1 3.850000e-01    8.550000e-01
  TP4a TC6er  1 3.660000e-01    9.350000e-01
  TP3a TC6er  1 3.520000e-01    1.050000e+00
  TP2a TC6er  1 3.520000e-01    1.050000e+00
  TP1a TC6er  1 3.520000e-01    1.050000e+00
  TN6a TC6er  1 3.400000e-01    1.230000e+00
  TN5a TC6er  1 3.400000e-01    1.230000e+00
  TN4a TC6er  1 3.400000e-01    1.230000e+00
  TN3a TC6er  1 3.400000e-01    1.230000e+00
  TN2a TC6er  1 3.400000e-01    1.230000e+00
  TN1a TC6er  1 3.400000e-01    1.510000e+00
 TP6aq  TC6e  1 3.520000e-01    1.050000e+00
 TP6aq  TC5e  1 3.660000e-01    9.350000e-01
 TP6aq  TC4e  1 3.850000e-01    8.550000e-01
 TP6aq  TC3e  1 4.110000e-01    8.010000e-01
 TP6aq  TC2e  1 4.110000e-01    8.010000e-01
 TP6aq  TC1e  1 4.380000e-01    7.310000e-01
 TP6aq  TX4e  1 3.400000e-01    1.230000e+00
 TP6aq  TX3e  1 3.400000e-01    1.230000e+00
 TP6aq  TX2e  1 3.520000e-01    1.050000e+00
 TP6aq  TX1e  1 3.660000e-01    9.350000e-01
 TP5aq  TC6e  1 3.520000e-01    1.050000e+00
 TP5aq  TC5e  1 3.520000e-01    1.050000e+00
 TP5aq  TC4e  1 3.660000e-01    9.350000e-01
 TP5aq  TC3e  1 3.850000e-01    8.550000e-01
 TP5aq  TC2e  1 3.850000e-01    8.550000e-01
 TP5aq  TC1e  1 4.110000e-01    8.010000e-01
 TP5aq  TX4e  1 3.400000e-01    1.510000e+00
 TP5aq  TX3e  1 3.400000e-01    1.230000e+00
 TP5aq  TX2e  1 3.400000e-01    1.230000e+00
 TP5aq  TX1e  1 3.660000e-01    9.350000e-01
 TP4aq  TC6e  1 3.400000e-01    1.230000e+00
 TP4aq  TC5e  1 3.520000e-01    1.050000e+00
 TP4aq  TC4e  1 3.660000e-01    9.350000e-01
 TP4aq  TC3e  1 3.850000e-01    8.550000e-01
 TP4aq  TC2e  1 3.850000e-01    8.550000e-01
 TP4aq  TC1e  1 4.110000e-01    8.010000e-01
 TP4aq  TX4e  1 3.400000e-01    1.510000e+00
 TP4aq  TX3e  1 3.400000e-01    1.230000e+00
 TP4aq  TX2e  1 3.400000e-01    1.230000e+00
 TP4aq  TX1e  1 3.520000e-01    1.050000e+00
 TP3aq  TC6e  1 3.400000e-01    1.510000e+00
 TP3aq  TC5e  1 3.400000e-01    1.230000e+00
 TP3aq  TC4e  1 3.520000e-01    1.050000e+00
 TP3aq  TC3e  1 3.850000e-01    8.550000e-01
 TP3aq  TC2e  1 3.850000e-01    8.550000e-01
 TP3aq  TC1e  1 4.110000e-01    8.010000e-01
 TP3aq  TX4e  1 3.400000e-01    1.510000e+00
 TP3aq  TX3e  1 3.400000e-01    1.510000e+00
 TP3aq  TX2e  1 3.400000e-01    1.230000e+00
 TP3aq  TX1e  1 3.520000e-01    1.050000e+00
 TP2aq  TC6e  1 3.400000e-01    1.510000e+00
 TP2aq  TC5e  1 3.400000e-01    1.230000e+00
 TP2aq  TC4e  1 3.520000e-01    1.050000e+00
 TP2aq  TC3e  1 3.660000e-01    9.350000e-01
 TP2aq  TC2e  1 3.660000e-01    9.350000e-01
 TP2aq  TC1e  1 3.850000e-01    8.550000e-01
 TP2aq  TX4e  1 3.400000e-01    1.510000e+00
 TP2aq  TX3e  1 3.400000e-01    1.510000e+00
 TP2aq  TX2e  1 3.400000e-01    1.230000e+00
 TP2aq  TX1e  1 3.520000e-01    1.050000e+00
 TP1aq  TC6e  1 3.400000e-01    1.510000e+00
 TP1aq  TC5e  1 3.400000e-01    1.230000e+00
 TP1aq  TC4e  1 3.520000e-01    1.050000e+00
 TP1aq  TC3e  1 3.660000e-01    9.350000e-01
 TP1aq  TC2e  1 3.660000e-01    9.350000e-01
 TP1aq  TC1e  1 3.850000e-01    8.550000e-01
 TP1aq  TX4e  1 3.400000e-01    1.510000e+00
 TP1aq  TX3e  1 3.400000e-01    1.510000e+00
 TP1aq  TX2e  1 3.400000e-01    1.230000e+00
 TP1aq  TX1e  1 3.520000e-01    1.050000e+00
 TN6aq  TC6e  1 3.400000e-01    1.770000e+00
 TN6aq  TC5e  1 3.400000e-01    1.510000e+00
 TN6aq  TC4e  1 3.400000e-01    1.230000e+00
 TN6aq  TC3e  1 3.520000e-01    1.050000e+00
 TN6aq  TC2e  1 3.520000e-01    1.050000e+00
 TN6aq  TC1e  1 3.660000e-01    9.350000e-01
 TN6aq  TX4e  1 3.400000e-01    1.770000e+00
 TN6aq  TX3e  1 3.400000e-01    1.510000e+00
 TN6aq  TX2e  1 3.400000e-01    1.230000e+00
 TN6aq  TX1e  1 3.520000e-01    1.050000e+00
 TN5aq  TC6e  1 3.400000e-01    1.770000e+00
 TN5aq  TC5e  1 3.400000e-01    1.510000e+00
 TN5aq  TC4e  1 3.400000e-01    1.230000e+00
 TN5aq  TC3e  1 3.400000e-01    1.230000e+00
 TN5aq  TC2e  1 3.520000e-01    1.050000e+00
 TN5aq  TC1e  1 3.660000e-01    9.350000e-01
 TN5aq  TX4e  1 3.400000e-01    2.020000e+00
 TN5aq  TX3e  1 3.400000e-01    1.770000e+00
 TN5aq  TX2e  1 3.400000e-01    1.510000e+00
 TN5aq  TX1e  1 3.400000e-01    1.230000e+00
 TN4aq  TC6e  1 3.400000e-01    1.770000e+00
 TN4aq  TC5e  1 3.400000e-01    1.510000e+00
 TN4aq  TC4e  1 3.400000e-01    1.510000e+00
 TN4aq  TC3e  1 3.400000e-01    1.230000e+00
 TN4aq  TC2e  1 3.520000e-01    1.050000e+00
 TN4aq  TC1e  1 3.660000e-01    9.350000e-01
 TN4aq  TX4e  1 3.400000e-01    2.280000e+00
 TN4aq  TX3e  1 3.400000e-01    2.020000e+00
 TN4aq  TX2e  1 3.400000e-01    1.510000e+00
 TN4aq  TX1e  1 3.400000e-01    1.230000e+00
 TN3aq  TC6e  1 3.400000e-01    1.770000e+00
 TN3aq  TC5e  1 3.400000e-01    1.510000e+00
 TN3aq  TC4e  1 3.400000e-01    1.510000e+00
 TN3aq  TC3e  1 3.400000e-01    1.230000e+00
 TN3aq  TC2e  1 3.400000e-01    1.230000e+00
 TN3aq  TC1e  1 3.520000e-01    1.050000e+00
 TN3aq  TX4e  1 3.400000e-01    2.020000e+00
 TN3aq  TX3e  1 3.400000e-01    1.770000e+00
 TN3aq  TX2e  1 3.400000e-01    1.510000e+00
 TN3aq  TX1e  1 3.400000e-01    1.510000e+00
 TN2aq  TC6e  1 3.400000e-01    1.770000e+00
 TN2aq  TC5e  1 3.400000e-01    1.510000e+00
 TN2aq  TC4e  1 3.400000e-01    1.510000e+00
 TN2aq  TC3e  1 3.400000e-01    1.510000e+00
 TN2aq  TC2e  1 3.400000e-01    1.230000e+00
 TN2aq  TC1e  1 3.520000e-01    1.050000e+00
 TN2aq  TX4e  1 3.400000e-01    2.020000e+00
 TN2aq  TX3e  1 3.400000e-01    1.770000e+00
 TN2aq  TX2e  1 3.400000e-01    1.510000e+00
 TN2aq  TX1e  1 3.400000e-01    1.510000e+00
 TN1aq  TC6e  1 3.400000e-01    2.020000e+00
 TN1aq  TC5e  1 3.400000e-01    1.770000e+00
 TN1aq  TC4e  1 3.400000e-01    1.770000e+00
 TN1aq  TC3e  1 3.400000e-01    1.510000e+00
 TN1aq  TC2e  1 3.400000e-01    1.230000e+00
 TN1aq  TC1e  1 3.520000e-01    1.050000e+00
 TN1aq  TX4e  1 3.400000e-01    1.770000e+00
 TN1aq  TX3e  1 3.400000e-01    1.770000e+00
 TN1aq  TX2e  1 3.400000e-01    1.510000e+00
 TN1aq  TX1e  1 3.400000e-01    1.510000e+00
 TP6aq TC6eq  1 3.520000e-01    1.050000e+00
 TP6aq TC5eq  1 3.660000e-01    9.350000e-01
 TP6aq TC4eq  1 3.850000e-01    8.550000e-01
 TP6aq TC3eq  1 4.110000e-01    8.010000e-01
 TP6aq TC2eq  1 4.110000e-01    8.010000e-01
 TP6aq TC1eq  1 4.380000e-01    7.310000e-01
 TP6aq TX4eq  1 3.400000e-01    1.230000e+00
 TP6aq TX3eq  1 3.400000e-01    1.230000e+00
 TP6aq TX2eq  1 3.520000e-01    1.050000e+00
 TP6aq TX1eq  1 3.660000e-01    9.350000e-01
 TP5aq TC6eq  1 3.520000e-01    1.050000e+00
 TP5aq TC5eq  1 3.520000e-01    1.050000e+00
 TP5aq TC4eq  1 3.660000e-01    9.350000e-01
 TP5aq TC3eq  1 3.850000e-01    8.550000e-01
 TP5aq TC2eq  1 3.850000e-01    8.550000e-01
 TP5aq TC1eq  1 4.110000e-01    8.010000e-01
 TP5aq TX4eq  1 3.400000e-01    1.510000e+00
 TP5aq TX3eq  1 3.400000e-01    1.230000e+00
 TP5aq TX2eq  1 3.400000e-01    1.230000e+00
 TP5aq TX1eq  1 3.660000e-01    9.350000e-01
 TP4aq TC6eq  1 3.400000e-01    1.230000e+00
 TP4aq TC5eq  1 3.520000e-01    1.050000e+00
 TP4aq TC4eq  1 3.660000e-01    9.350000e-01
 TP4aq TC3eq  1 3.850000e-01    8.550000e-01
 TP4aq TC2eq  1 3.850000e-01    8.550000e-01
 TP4aq TC1eq  1 4.110000e-01    8.010000e-01
 TP4aq TX4eq  1 3.400000e-01    1.510000e+00
 TP4aq TX3eq  1 3.400000e-01    1.230000e+00
 TP4aq TX2eq  1 3.400000e-01    1.230000e+00
 TP4aq TX1eq  1 3.520000e-01    1.050000e+00
 TP3aq TC6eq  1 3.400000e-01    1.510000e+00
 TP3aq TC5eq  1 3.400000e-01    1.230000e+00
 TP3aq TC4eq  1 3.520000e-01    1.050000e+00
 TP3aq TC3eq  1 3.850000e-01    8.550000e-01
 TP3aq TC2eq  1 3.850000e-01    8.550000e-01
 TP3aq TC1eq  1 4.110000e-01    8.010000e-01
 TP3aq TX4eq  1 3.400000e-01    1.510000e+00
 TP3aq TX3eq  1 3.400000e-01    1.510000e+00
 TP3aq TX2eq  1 3.400000e-01    1.230000e+00
 TP3aq TX1eq  1 3.520000e-01    1.050000e+00
 TP2aq TC6eq  1 3.400000e-01    1.510000e+00
 TP2aq TC5eq  1 3.400000e-01    1.230000e+00
 TP2aq TC4eq  1 3.520000e-01    1.050000e+00
 TP2aq TC3eq  1 3.660000e-01    9.350000e-01
 TP2aq TC2eq  1 3.660000e-01    9.350000e-01
 TP2aq TC1eq  1 3.850000e-01    8.550000e-01
 TP2aq TX4eq  1 3.400000e-01    1.510000e+00
 TP2aq TX3eq  1 3.400000e-01    1.510000e+00
 TP2aq TX2eq  1 3.400000e-01    1.230000e+00
 TP2aq TX1eq  1 3.520000e-01    1.050000e+00
 TP1aq TC6eq  1 3.400000e-01    1.510000e+00
 TP1aq TC5eq  1 3.400000e-01    1.230000e+00
 TP1aq TC4eq  1 3.520000e-01    1.050000e+00
 TP1aq TC3eq  1 3.660000e-01    9.350000e-01
 TP1aq TC2eq  1 3.660000e-01    9.350000e-01
 TP1aq TC1eq  1 3.850000e-01    8.550000e-01
 TP1aq TX4eq  1 3.400000e-01    1.510000e+00
 TP1aq TX3eq  1 3.400000e-01    1.510000e+00
 TP1aq TX2eq  1 3.400000e-01    1.230000e+00
 TP1aq TX1eq  1 3.520000e-01    1.050000e+00
 TN6aq TC6eq  1 3.400000e-01    1.770000e+00
 TN6aq TC5eq  1 3.400000e-01    1.510000e+00
 TN6aq TC4eq  1 3.400000e-01    1.230000e+00
 TN6aq TC3eq  1 3.520000e-01    1.050000e+00
 TN6aq TC2eq  1 3.520000e-01    1.050000e+00
 TN6aq TC1eq  1 3.660000e-01    9.350000e-01
 TN6aq TX4eq  1 3.400000e-01    1.770000e+00
 TN6aq TX3eq  1 3.400000e-01    1.510000e+00
 TN6aq TX2eq  1 3.400000e-01    1.230000e+00
 TN6aq TX1eq  1 3.520000e-01    1.050000e+00
 TN5aq TC6eq  1 3.400000e-01    1.770000e+00
 TN5aq TC5eq  1 3.400000e-01    1.510000e+00
 TN5aq TC4eq  1 3.400000e-01    1.230000e+00
 TN5aq TC3eq  1 3.400000e-01    1.230000e+00
 TN5aq TC2eq  1 3.520000e-01    1.050000e+00
 TN5aq TC1eq  1 3.660000e-01    9.350000e-01
 TN5aq TX4eq  1 3.400000e-01    2.020000e+00
 TN5aq TX3eq  1 3.400000e-01    1.770000e+00
 TN5aq TX2eq  1 3.400000e-01    1.510000e+00
 TN5aq TX1eq  1 3.400000e-01    1.230000e+00
 TN4aq TC6eq  1 3.400000e-01    1.770000e+00
 TN4aq TC5eq  1 3.400000e-01    1.510000e+00
 TN4aq TC4eq  1 3.400000e-01    1.510000e+00
 TN4aq TC3eq  1 3.400000e-01    1.230000e+00
 TN4aq TC2eq  1 3.520000e-01    1.050000e+00
 TN4aq TC1eq  1 3.660000e-01    9.350000e-01
 TN4aq TX4eq  1 3.400000e-01    2.280000e+00
 TN4aq TX3eq  1 3.400000e-01    2.020000e+00
 TN4aq TX2eq  1 3.400000e-01    1.510000e+00
 TN4aq TX1eq  1 3.400000e-01    1.230000e+00
 TN3aq TC6eq  1 3.400000e-01    1.770000e+00
 TN3aq TC5eq  1 3.400000e-01    1.510000e+00
 TN3aq TC4eq  1 3.400000e-01    1.510000e+00
 TN3aq TC3eq  1 3.400000e-01    1.230000e+00
 TN3aq TC2eq  1 3.400000e-01    1.230000e+00
 TN3aq TC1eq  1 3.520000e-01    1.050000e+00
 TN3aq TX4eq  1 3.400000e-01    2.020000e+00
 TN3aq TX3eq  1 3.400000e-01    1.770000e+00
 TN3aq TX2eq  1 3.400000e-01    1.510000e+00
 TN3aq TX1eq  1 3.400000e-01    1.510000e+00
 TN2aq TC6eq  1 3.400000e-01    1.770000e+00
 TN2aq TC5eq  1 3.400000e-01    1.510000e+00
 TN2aq TC4eq  1 3.400000e-01    1.510000e+00
 TN2aq TC3eq  1 3.400000e-01    1.510000e+00
 TN2aq TC2eq  1 3.400000e-01    1.230000e+00
 TN2aq TC1eq  1 3.520000e-01    1.050000e+00
 TN2aq TX4eq  1 3.400000e-01    2.020000e+00
 TN2aq TX3eq  1 3.400000e-01    1.770000e+00
 TN2aq TX2eq  1 3.400000e-01    1.510000e+00
 TN2aq TX1eq  1 3.400000e-01    1.510000e+00
 TN1aq TC6eq  1 3.400000e-01    2.020000e+00
 TN1aq TC5eq  1 3.400000e-01    1.770000e+00
 TN1aq TC4eq  1 3.400000e-01    1.770000e+00
 TN1aq TC3eq  1 3.400000e-01    1.510000e+00
 TN1aq TC2eq  1 3.400000e-01    1.230000e+00
 TN1aq TC1eq  1 3.520000e-01    1.050000e+00
 TN1aq TX4eq  1 3.400000e-01    1.770000e+00
 TN1aq TX3eq  1 3.400000e-01    1.770000e+00
 TN1aq TX2eq  1 3.400000e-01    1.510000e+00
 TN1aq TX1eq  1 3.400000e-01    1.510000e+00
 TP6aq TC6eh  1 3.520000e-01    1.050000e+00
 TP5aq TC6eh  1 3.520000e-01    1.050000e+00
 TP4aq TC6eh  1 3.400000e-01    1.230000e+00
 TP3aq TC6eh  1 3.400000e-01    1.510000e+00
 TP2aq TC6eh  1 3.400000e-01    1.510000e+00
 TP1aq TC6eh  1 3.400000e-01    1.510000e+00
 TN6aq TC6eh  1 3.400000e-01    1.770000e+00
 TN5aq TC6eh  1 3.400000e-01    1.770000e+00
 TN4aq TC6eh  1 3.400000e-01    1.770000e+00
 TN3aq TC6eh  1 3.400000e-01    1.770000e+00
 TN2aq TC6eh  1 3.400000e-01    1.770000e+00
 TN1aq TC6eh  1 3.400000e-01    2.020000e+00
 TP6aq TC5eh  1 3.660000e-01    9.350000e-01
 TP5aq TC5eh  1 3.520000e-01    1.050000e+00
 TP4aq TC5eh  1 3.520000e-01    1.050000e+00
 TP3aq TC5eh  1 3.400000e-01    1.230000e+00
 TP2aq TC5eh  1 3.400000e-01    1.230000e+00
 TP1aq TC5eh  1 3.400000e-01    1.230000e+00
 TN6aq TC5eh  1 3.400000e-01    1.510000e+00
 TN5aq TC5eh  1 3.400000e-01    1.510000e+00
 TN4aq TC5eh  1 3.400000e-01    1.510000e+00
 TN3aq TC5eh  1 3.400000e-01    1.510000e+00
 TN2aq TC5eh  1 3.400000e-01    1.510000e+00
 TN1aq TC5eh  1 3.400000e-01    1.770000e+00
 TP6aq TC4eh  1 3.850000e-01    8.550000e-01
 TP5aq TC4eh  1 3.660000e-01    9.350000e-01
 TP4aq TC4eh  1 3.660000e-01    9.350000e-01
 TP3aq TC4eh  1 3.520000e-01    1.050000e+00
 TP2aq TC4eh  1 3.520000e-01    1.050000e+00
 TP1aq TC4eh  1 3.520000e-01    1.050000e+00
 TN6aq TC4eh  1 3.400000e-01    1.230000e+00
 TN5aq TC4eh  1 3.400000e-01    1.230000e+00
 TN4aq TC4eh  1 3.400000e-01    1.510000e+00
 TN3aq TC4eh  1 3.400000e-01    1.510000e+00
 TN2aq TC4eh  1 3.400000e-01    1.510000e+00
 TN1aq TC4eh  1 3.400000e-01    1.770000e+00
 TP6aq TC3eh  1 4.110000e-01    8.010000e-01
 TP5aq TC3eh  1 3.850000e-01    8.550000e-01
 TP4aq TC3eh  1 3.850000e-01    8.550000e-01
 TP3aq TC3eh  1 3.850000e-01    8.550000e-01
 TP2aq TC3eh  1 3.660000e-01    9.350000e-01
 TP1aq TC3eh  1 3.660000e-01    9.350000e-01
 TN6aq TC3eh  1 3.520000e-01    1.050000e+00
 TN5aq TC3eh  1 3.400000e-01    1.230000e+00
 TN4aq TC3eh  1 3.400000e-01    1.230000e+00
 TN3aq TC3eh  1 3.400000e-01    1.230000e+00
 TN2aq TC3eh  1 3.400000e-01    1.510000e+00
 TN1aq TC3eh  1 3.400000e-01    1.510000e+00
 TP6aq TC2eh  1 4.110000e-01    8.010000e-01
 TP5aq TC2eh  1 3.850000e-01    8.550000e-01
 TP4aq TC2eh  1 3.850000e-01    8.550000e-01
 TP3aq TC2eh  1 3.850000e-01    8.550000e-01
 TP2aq TC2eh  1 3.660000e-01    9.350000e-01
 TP1aq TC2eh  1 3.660000e-01    9.350000e-01
 TN6aq TC2eh  1 3.520000e-01    1.050000e+00
 TN5aq TC2eh  1 3.520000e-01    1.050000e+00
 TN4aq TC2eh  1 3.520000e-01    1.050000e+00
 TN3aq TC2eh  1 3.400000e-01    1.230000e+00
 TN2aq TC2eh  1 3.400000e-01    1.230000e+00
 TN1aq TC2eh  1 3.400000e-01    1.230000e+00
 TP6aq TC1eh  1 4.380000e-01    7.310000e-01
 TP5aq TC1eh  1 4.110000e-01    8.010000e-01
 TP4aq TC1eh  1 4.110000e-01    8.010000e-01
 TP3aq TC1eh  1 4.110000e-01    8.010000e-01
 TP2aq TC1eh  1 3.850000e-01    8.550000e-01
 TP1aq TC1eh  1 3.850000e-01    8.550000e-01
 TN6aq TC1eh  1 3.660000e-01    9.350000e-01
 TN5aq TC1eh  1 3.660000e-01    9.350000e-01
 TN4aq TC1eh  1 3.660000e-01    9.350000e-01
 TN3aq TC1eh  1 3.520000e-01    1.050000e+00
 TN2aq TC1eh  1 3.520000e-01    1.050000e+00
 TN1aq TC1eh  1 3.520000e-01    1.050000e+00
 TP6aq TX4eh  1 3.400000e-01    1.230000e+00
 TP5aq TX4eh  1 3.400000e-01    1.510000e+00
 TP4aq TX4eh  1 3.400000e-01    1.510000e+00
 TP3aq TX4eh  1 3.400000e-01    1.510000e+00
 TP2aq TX4eh  1 3.400000e-01    1.510000e+00
 TP1aq TX4eh  1 3.400000e-01    1.510000e+00
 TN6aq TX4eh  1 3.400000e-01    1.770000e+00
 TN5aq TX4eh  1 3.400000e-01    2.020000e+00
 TN4aq TX4eh  1 3.400000e-01    2.280000e+00
 TN3aq TX4eh  1 3.400000e-01    2.020000e+00
 TN2aq TX4eh  1 3.400000e-01    2.020000e+00
 TN1aq TX4eh  1 3.400000e-01    1.770000e+00
 TP6aq TX3eh  1 3.400000e-01    1.230000e+00
 TP5aq TX3eh  1 3.400000e-01    1.230000e+00
 TP4aq TX3eh  1 3.400000e-01    1.230000e+00
 TP3aq TX3eh  1 3.400000e-01    1.510000e+00
 TP2aq TX3eh  1 3.400000e-01    1.510000e+00
 TP1aq TX3eh  1 3.400000e-01    1.510000e+00
 TN6aq TX3eh  1 3.400000e-01    1.510000e+00
 TN5aq TX3eh  1 3.400000e-01    1.770000e+00
 TN4aq TX3eh  1 3.400000e-01    2.020000e+00
 TN3aq TX3eh  1 3.400000e-01    1.770000e+00
 TN2aq TX3eh  1 3.400000e-01    1.770000e+00
 TN1aq TX3eh  1 3.400000e-01    1.770000e+00
 TP6aq TX2eh  1 3.520000e-01    1.050000e+00
 TP5aq TX2eh  1 3.400000e-01    1.230000e+00
 TP4aq TX2eh  1 3.400000e-01    1.230000e+00
 TP3aq TX2eh  1 3.400000e-01    1.230000e+00
 TP2aq TX2eh  1 3.400000e-01    1.230000e+00
 TP1aq TX2eh  1 3.400000e-01    1.230000e+00
 TN6aq TX2eh  1 3.400000e-01    1.230000e+00
 TN5aq TX2eh  1 3.400000e-01    1.510000e+00
 TN4aq TX2eh  1 3.400000e-01    1.510000e+00
 TN3aq TX2eh  1 3.400000e-01    1.510000e+00
 TN2aq TX2eh  1 3.400000e-01    1.510000e+00
 TN1aq TX2eh  1 3.400000e-01    1.510000e+00
 TP6aq TX1eh  1 3.660000e-01    9.350000e-01
 TP5aq TX1eh  1 3.660000e-01    9.350000e-01
 TP4aq TX1eh  1 3.520000e-01    1.050000e+00
 TP3aq TX1eh  1 3.520000e-01    1.050000e+00
 TP2aq TX1eh  1 3.520000e-01    1.050000e+00
 TP1aq TX1eh  1 3.520000e-01    1.050000e+00
 TN6aq TX1eh  1 3.520000e-01    1.050000e+00
 TN5aq TX1eh  1 3.400000e-01    1.230000e+00
 TN4aq TX1eh  1 3.400000e-01    1.230000e+00
 TN3aq TX1eh  1 3.400000e-01    1.510000e+00
 TN2aq TX1eh  1 3.400000e-01    1.510000e+00
 TN1aq TX1eh  1 3.400000e-01    1.510000e+00
 TP6aq TC6er  1 3.520000e-01    1.050000e+00
 TP5aq TC6er  1 3.520000e-01    1.050000e+00
 TP4aq TC6er  1 3.400000e-01    1.230000e+00
 TP3aq TC6er  1 3.400000e-01    1.510000e+00
 TP2aq TC6er  1 3.400000e-01    1.510000e+00
 TP1aq TC6er  1 3.400000e-01    1.510000e+00
 TN6aq TC6er  1 3.400000e-01    1.770000e+00
 TN5aq TC6er  1 3.400000e-01    1.770000e+00
 TN4aq TC6er  1 3.400000e-01    1.770000e+00
 TN3aq TC6er  1 3.400000e-01    1.770000e+00
 TN2aq TC6er  1 3.400000e-01    1.770000e+00
 TN1aq TC6er  1 3.400000e-01    2.020000e+00
 TP6aq TC5er  1 3.660000e-01    9.350000e-01
 TP5aq TC5er  1 3.520000e-01    1.050000e+00
 TP4aq TC5er  1 3.520000e-01    1.050000e+00
 TP3aq TC5er  1 3.400000e-01    1.230000e+00
 TP2aq TC5er  1 3.400000e-01    1.230000e+00
 TP1aq TC5er  1 3.400000e-01    1.230000e+00
 TN6aq TC5er  1 3.400000e-01    1.510000e+00
 TN5aq TC5er  1 3.400000e-01    1.510000e+00
 TN4aq TC5er  1 3.400000e-01    1.510000e+00
 TN3aq TC5er  1 3.400000e-01    1.510000e+00
 TN2aq TC5er  1 3.400000e-01    1.510000e+00
 TN1aq TC5er  1 3.400000e-01    1.770000e+00
 TP6aq TC4er  1 3.850000e-01    8.550000e-01
 TP5aq TC4er  1 3.660000e-01    9.350000e-01
 TP4aq TC4er  1 3.660000e-01    9.350000e-01
 TP3aq TC4er  1 3.520000e-01    1.050000e+00
 TP2aq TC4er  1 3.520000e-01    1.050000e+00
 TP1aq TC4er  1 3.520000e-01    1.050000e+00
 TN6aq TC4er  1 3.400000e-01    1.230000e+00
 TN5aq TC4er  1 3.400000e-01    1.230000e+00
 TN4aq TC4er  1 3.400000e-01    1.510000e+00
 TN3aq TC4er  1 3.400000e-01    1.510000e+00
 TN2aq TC4er  1 3.400000e-01    1.510000e+00
 TN1aq TC4er  1 3.400000e-01    1.770000e+00
 TP6aq TC3er  1 4.110000e-01    8.010000e-01
 TP5aq TC3er  1 3.850000e-01    8.550000e-01
 TP4aq TC3er  1 3.850000e-01    8.550000e-01
 TP3aq TC3er  1 3.850000e-01    8.550000e-01
 TP2aq TC3er  1 3.660000e-01    9.350000e-01
 TP1aq TC3er  1 3.660000e-01    9.350000e-01
 TN6aq TC3er  1 3.520000e-01    1.050000e+00
 TN5aq TC3er  1 3.400000e-01    1.230000e+00
 TN4aq TC3er  1 3.400000e-01    1.230000e+00
 TN3aq TC3er  1 3.400000e-01    1.230000e+00
 TN2aq TC3er  1 3.400000e-01    1.510000e+00
 TN1aq TC3er  1 3.400000e-01    1.510000e+00
 TP6aq TC2er  1 4.110000e-01    8.010000e-01
 TP5aq TC2er  1 3.850000e-01    8.550000e-01
 TP4aq TC2er  1 3.850000e-01    8.550000e-01
 TP3aq TC2er  1 3.850000e-01    8.550000e-01
 TP2aq TC2er  1 3.660000e-01    9.350000e-01
 TP1aq TC2er  1 3.660000e-01    9.350000e-01
 TN6aq TC2er  1 3.520000e-01    1.050000e+00
 TN5aq TC2er  1 3.520000e-01    1.050000e+00
 TN4aq TC2er  1 3.520000e-01    1.050000e+00
 TN3aq TC2er  1 3.400000e-01    1.230000e+00
 TN2aq TC2er  1 3.400000e-01    1.230000e+00
 TN1aq TC2er  1 3.400000e-01    1.230000e+00
 TP6aq TC1er  1 4.380000e-01    7.310000e-01
 TP5aq TC1er  1 4.110000e-01    8.010000e-01
 TP4aq TC1er  1 4.110000e-01    8.010000e-01
 TP3aq TC1er  1 4.110000e-01    8.010000e-01
 TP2aq TC1er  1 3.850000e-01    8.550000e-01
 TP1aq TC1er  1 3.850000e-01    8.550000e-01
 TN6aq TC1er  1 3.660000e-01    9.350000e-01
 TN5aq TC1er  1 3.660000e-01    9.350000e-01
 TN4aq TC1er  1 3.660000e-01    9.350000e-01
 TN3aq TC1er  1 3.520000e-01    1.050000e+00
 TN2aq TC1er  1 3.520000e-01    1.050000e+00
 TN1aq TC1er  1 3.520000e-01    1.050000e+00
 TP6aq TX4er  1 3.400000e-01    1.230000e+00
 TP5aq TX4er  1 3.400000e-01    1.510000e+00
 TP4aq TX4er  1 3.400000e-01    1.510000e+00
 TP3aq TX4er  1 3.400000e-01    1.510000e+00
 TP2aq TX4er  1 3.400000e-01    1.510000e+00
 TP1aq TX4er  1 3.400000e-01    1.510000e+00
 TN6aq TX4er  1 3.400000e-01    1.770000e+00
 TN5aq TX4er  1 3.400000e-01    2.020000e+00
 TN4aq TX4er  1 3.400000e-01    2.280000e+00
 TN3aq TX4er  1 3.400000e-01    2.020000e+00
 TN2aq TX4er  1 3.400000e-01    2.020000e+00
 TN1aq TX4er  1 3.400000e-01    1.770000e+00
 TP6aq TX3er  1 3.400000e-01    1.230000e+00
 TP5aq TX3er  1 3.400000e-01    1.230000e+00
 TP4aq TX3er  1 3.400000e-01    1.230000e+00
 TP3aq TX3er  1 3.400000e-01    1.510000e+00
 TP2aq TX3er  1 3.400000e-01    1.510000e+00
 TP1aq TX3er  1 3.400000e-01    1.510000e+00
 TN6aq TX3er  1 3.400000e-01    1.510000e+00
 TN5aq TX3er  1 3.400000e-01    1.770000e+00
 TN4aq TX3er  1 3.400000e-01    2.020000e+00
 TN3aq TX3er  1 3.400000e-01    1.770000e+00
 TN2aq TX3er  1 3.400000e-01    1.770000e+00
 TN1aq TX3er  1 3.400000e-01    1.770000e+00
 TP6aq TX2er  1 3.520000e-01    1.050000e+00
 TP5aq TX2er  1 3.400000e-01    1.230000e+00
 TP4aq TX2er  1 3.400000e-01    1.230000e+00
 TP3aq TX2er  1 3.400000e-01    1.230000e+00
 TP2aq TX2er  1 3.400000e-01    1.230000e+00
 TP1aq TX2er  1 3.400000e-01    1.230000e+00
 TN6aq TX2er  1 3.400000e-01    1.230000e+00
 TN5aq TX2er  1 3.400000e-01    1.510000e+00
 TN4aq TX2er  1 3.400000e-01    1.510000e+00
 TN3aq TX2er  1 3.400000e-01    1.510000e+00
 TN2aq TX2er  1 3.400000e-01    1.510000e+00
 TN1aq TX2er  1 3.400000e-01    1.510000e+00
 TP6aq TX1er  1 3.660000e-01    9.350000e-01
 TP5aq TX1er  1 3.660000e-01    9.350000e-01
 TP4aq TX1er  1 3.520000e-01    1.050000e+00
 TP3aq TX1er  1 3.520000e-01    1.050000e+00
 TP2aq TX1er  1 3.520000e-01    1.050000e+00
 TP1aq TX1er  1 3.520000e-01    1.050000e+00
 TN6aq TX1er  1 3.520000e-01    1.050000e+00
 TN5aq TX1er  1 3.400000e-01    1.230000e+00
 TN4aq TX1er  1 3.400000e-01    1.230000e+00
 TN3aq TX1er  1 3.400000e-01    1.510000e+00
 TN2aq TX1er  1 3.400000e-01    1.510000e+00
 TN1aq TX1er  1 3.400000e-01    1.510000e+00
 TP6ah  TC6e  1 3.850000e-01    8.550000e-01
 TP6ah  TC5e  1 4.110000e-01    8.010000e-01
 TP6ah  TC4e  1 4.240000e-01    7.760000e-01
 TP6ah  TC3e  1 4.380000e-01    7.310000e-01
 TP6ah  TC2e  1 4.380000e-01    7.310000e-01
 TP6ah  TC1e  1 5.610000e-01    6.300000e-01
 TP6ah  TX4e  1 3.660000e-01    9.350000e-01
 TP6ah  TX3e  1 3.660000e-01    9.350000e-01
 TP6ah  TX2e  1 3.850000e-01    8.550000e-01
 TP6ah  TX1e  1 4.110000e-01    8.010000e-01
 TP5ah  TC6e  1 3.850000e-01    8.550000e-01
 TP5ah  TC5e  1 3.850000e-01    8.550000e-01
 TP5ah  TC4e  1 4.110000e-01    8.010000e-01
 TP5ah  TC3e  1 4.240000e-01    7.760000e-01
 TP5ah  TC2e  1 4.240000e-01    7.760000e-01
 TP5ah  TC1e  1 4.380000e-01    7.310000e-01
 TP5ah  TX4e  1 3.520000e-01    1.050000e+00
 TP5ah  TX3e  1 3.660000e-01    9.350000e-01
 TP5ah  TX2e  1 3.660000e-01    9.350000e-01
 TP5ah  TX1e  1 4.110000e-01    8.010000e-01
 TP4ah  TC6e  1 3.660000e-01    9.350000e-01
 TP4ah  TC5e  1 3.850000e-01    8.550000e-01
 TP4ah  TC4e  1 4.110000e-01    8.010000e-01
 TP4ah  TC3e  1 4.240000e-01    7.760000e-01
 TP4ah  TC2e  1 4.240000e-01    7.760000e-01
 TP4ah  TC1e  1 4.380000e-01    7.310000e-01
 TP4ah  TX4e  1 3.520000e-01    1.050000e+00
 TP4ah  TX3e  1 3.660000e-01    9.350000e-01
 TP4ah  TX2e  1 3.660000e-01    9.350000e-01
 TP4ah  TX1e  1 3.850000e-01    8.550000e-01
 TP3ah  TC6e  1 3.520000e-01    1.050000e+00
 TP3ah  TC5e  1 3.660000e-01    9.350000e-01
 TP3ah  TC4e  1 3.850000e-01    8.550000e-01
 TP3ah  TC3e  1 4.240000e-01    7.760000e-01
 TP3ah  TC2e  1 4.240000e-01    7.760000e-01
 TP3ah  TC1e  1 4.380000e-01    7.310000e-01
 TP3ah  TX4e  1 3.520000e-01    1.050000e+00
 TP3ah  TX3e  1 3.520000e-01    1.050000e+00
 TP3ah  TX2e  1 3.660000e-01    9.350000e-01
 TP3ah  TX1e  1 3.850000e-01    8.550000e-01
 TP2ah  TC6e  1 3.520000e-01    1.050000e+00
 TP2ah  TC5e  1 3.660000e-01    9.350000e-01
 TP2ah  TC4e  1 3.850000e-01    8.550000e-01
 TP2ah  TC3e  1 4.110000e-01    8.010000e-01
 TP2ah  TC2e  1 4.110000e-01    8.010000e-01
 TP2ah  TC1e  1 4.240000e-01    7.760000e-01
 TP2ah  TX4e  1 3.520000e-01    1.050000e+00
 TP2ah  TX3e  1 3.520000e-01    1.050000e+00
 TP2ah  TX2e  1 3.660000e-01    9.350000e-01
 TP2ah  TX1e  1 3.850000e-01    8.550000e-01
 TP1ah  TC6e  1 3.520000e-01    1.050000e+00
 TP1ah  TC5e  1 3.660000e-01    9.350000e-01
 TP1ah  TC4e  1 3.850000e-01    8.550000e-01
 TP1ah  TC3e  1 4.110000e-01    8.010000e-01
 TP1ah  TC2e  1 4.110000e-01    8.010000e-01
 TP1ah  TC1e  1 4.240000e-01    7.760000e-01
 TP1ah  TX4e  1 3.520000e-01    1.050000e+00
 TP1ah  TX3e  1 3.520000e-01    1.050000e+00
 TP1ah  TX2e  1 3.660000e-01    9.350000e-01
 TP1ah  TX1e  1 3.850000e-01    8.550000e-01
 TN6ah  TC6e  1 3.400000e-01    1.230000e+00
 TN6ah  TC5e  1 3.520000e-01    1.050000e+00
 TN6ah  TC4e  1 3.660000e-01    9.350000e-01
 TN6ah  TC3e  1 3.850000e-01    8.550000e-01
 TN6ah  TC2e  1 3.850000e-01    8.550000e-01
 TN6ah  TC1e  1 4.110000e-01    8.010000e-01
 TN6ah  TX4e  1 3.400000e-01    1.230000e+00
 TN6ah  TX3e  1 3.520000e-01    1.050000e+00
 TN6ah  TX2e  1 3.660000e-01    9.350000e-01
 TN6ah  TX1e  1 3.850000e-01    8.550000e-01
 TN5ah  TC6e  1 3.400000e-01    1.230000e+00
 TN5ah  TC5e  1 3.520000e-01    1.050000e+00
 TN5ah  TC4e  1 3.660000e-01    9.350000e-01
 TN5ah  TC3e  1 3.660000e-01    9.350000e-01
 TN5ah  TC2e  1 3.850000e-01    8.550000e-01
 TN5ah  TC1e  1 4.110000e-01    8.010000e-01
 TN5ah  TX4e  1 3.400000e-01    1.510000e+00
 TN5ah  TX3e  1 3.400000e-01    1.230000e+00
 TN5ah  TX2e  1 3.520000e-01    1.050000e+00
 TN5ah  TX1e  1 3.660000e-01    9.350000e-01
 TN4ah  TC6e  1 3.400000e-01    1.230000e+00
 TN4ah  TC5e  1 3.520000e-01    1.050000e+00
 TN4ah  TC4e  1 3.520000e-01    1.050000e+00
 TN4ah  TC3e  1 3.660000e-01    9.350000e-01
 TN4ah  TC2e  1 3.850000e-01    8.550000e-01
 TN4ah  TC1e  1 4.110000e-01    8.010000e-01
 TN4ah  TX4e  1 3.400000e-01    1.770000e+00
 TN4ah  TX3e  1 3.400000e-01    1.510000e+00
 TN4ah  TX2e  1 3.520000e-01    1.050000e+00
 TN4ah  TX1e  1 3.660000e-01    9.350000e-01
 TN3ah  TC6e  1 3.400000e-01    1.230000e+00
 TN3ah  TC5e  1 3.520000e-01    1.050000e+00
 TN3ah  TC4e  1 3.520000e-01    1.050000e+00
 TN3ah  TC3e  1 3.660000e-01    9.350000e-01
 TN3ah  TC2e  1 3.660000e-01    9.350000e-01
 TN3ah  TC1e  1 3.850000e-01    8.550000e-01
 TN3ah  TX4e  1 3.400000e-01    1.510000e+00
 TN3ah  TX3e  1 3.400000e-01    1.230000e+00
 TN3ah  TX2e  1 3.520000e-01    1.050000e+00
 TN3ah  TX1e  1 3.520000e-01    1.050000e+00
 TN2ah  TC6e  1 3.400000e-01    1.230000e+00
 TN2ah  TC5e  1 3.520000e-01    1.050000e+00
 TN2ah  TC4e  1 3.520000e-01    1.050000e+00
 TN2ah  TC3e  1 3.520000e-01    1.050000e+00
 TN2ah  TC2e  1 3.660000e-01    9.350000e-01
 TN2ah  TC1e  1 3.850000e-01    8.550000e-01
 TN2ah  TX4e  1 3.400000e-01    1.510000e+00
 TN2ah  TX3e  1 3.400000e-01    1.230000e+00
 TN2ah  TX2e  1 3.520000e-01    1.050000e+00
 TN2ah  TX1e  1 3.520000e-01    1.050000e+00
 TN1ah  TC6e  1 3.400000e-01    1.510000e+00
 TN1ah  TC5e  1 3.400000e-01    1.230000e+00
 TN1ah  TC4e  1 3.400000e-01    1.230000e+00
 TN1ah  TC3e  1 3.520000e-01    1.050000e+00
 TN1ah  TC2e  1 3.660000e-01    9.350000e-01
 TN1ah  TC1e  1 3.850000e-01    8.550000e-01
 TN1ah  TX4e  1 3.400000e-01    1.230000e+00
 TN1ah  TX3e  1 3.400000e-01    1.230000e+00
 TN1ah  TX2e  1 3.520000e-01    1.050000e+00
 TN1ah  TX1e  1 3.520000e-01    1.050000e+00
 TP6ah TX1eq  1 3.660000e-01    9.350000e-01
 TP6ah TX2eq  1 3.520000e-01    1.050000e+00
 TP6ah TX3eq  1 3.400000e-01    1.230000e+00
 TP6ah TX4eq  1 3.400000e-01    1.230000e+00
 TP6ah TC1eq  1 4.380000e-01    7.310000e-01
 TP6ah TC2eq  1 4.110000e-01    8.010000e-01
 TP6ah TC3eq  1 4.110000e-01    8.010000e-01
 TP6ah TC4eq  1 3.850000e-01    8.550000e-01
 TP6ah TC5eq  1 3.660000e-01    9.350000e-01
 TP6ah TC6eq  1 3.520000e-01    1.050000e+00
 TP5ah TX1eq  1 3.660000e-01    9.350000e-01
 TP5ah TX2eq  1 3.400000e-01    1.230000e+00
 TP5ah TX3eq  1 3.400000e-01    1.230000e+00
 TP5ah TX4eq  1 3.400000e-01    1.510000e+00
 TP5ah TC1eq  1 4.110000e-01    8.010000e-01
 TP5ah TC2eq  1 3.850000e-01    8.550000e-01
 TP5ah TC3eq  1 3.850000e-01    8.550000e-01
 TP5ah TC4eq  1 3.660000e-01    9.350000e-01
 TP5ah TC5eq  1 3.520000e-01    1.050000e+00
 TP5ah TC6eq  1 3.520000e-01    1.050000e+00
 TP4ah TX1eq  1 3.520000e-01    1.050000e+00
 TP4ah TX2eq  1 3.400000e-01    1.230000e+00
 TP4ah TX3eq  1 3.400000e-01    1.230000e+00
 TP4ah TX4eq  1 3.400000e-01    1.510000e+00
 TP4ah TC1eq  1 4.110000e-01    8.010000e-01
 TP4ah TC2eq  1 3.850000e-01    8.550000e-01
 TP4ah TC3eq  1 3.850000e-01    8.550000e-01
 TP4ah TC4eq  1 3.660000e-01    9.350000e-01
 TP4ah TC5eq  1 3.520000e-01    1.050000e+00
 TP4ah TC6eq  1 3.400000e-01    1.230000e+00
 TP3ah TX1eq  1 3.520000e-01    1.050000e+00
 TP3ah TX2eq  1 3.400000e-01    1.230000e+00
 TP3ah TX3eq  1 3.400000e-01    1.510000e+00
 TP3ah TX4eq  1 3.400000e-01    1.510000e+00
 TP3ah TC1eq  1 4.110000e-01    8.010000e-01
 TP3ah TC2eq  1 3.850000e-01    8.550000e-01
 TP3ah TC3eq  1 3.850000e-01    8.550000e-01
 TP3ah TC4eq  1 3.520000e-01    1.050000e+00
 TP3ah TC5eq  1 3.400000e-01    1.230000e+00
 TP3ah TC6eq  1 3.400000e-01    1.510000e+00
 TP2ah TX1eq  1 3.520000e-01    1.050000e+00
 TP2ah TX2eq  1 3.400000e-01    1.230000e+00
 TP2ah TX3eq  1 3.400000e-01    1.510000e+00
 TP2ah TX4eq  1 3.400000e-01    1.510000e+00
 TP2ah TC1eq  1 3.850000e-01    8.550000e-01
 TP2ah TC2eq  1 3.660000e-01    9.350000e-01
 TP2ah TC3eq  1 3.660000e-01    9.350000e-01
 TP2ah TC4eq  1 3.520000e-01    1.050000e+00
 TP2ah TC5eq  1 3.400000e-01    1.230000e+00
 TP2ah TC6eq  1 3.400000e-01    1.510000e+00
 TP1ah TX1eq  1 3.520000e-01    1.050000e+00
 TP1ah TX2eq  1 3.400000e-01    1.230000e+00
 TP1ah TX3eq  1 3.400000e-01    1.510000e+00
 TP1ah TX4eq  1 3.400000e-01    1.510000e+00
 TP1ah TC1eq  1 3.850000e-01    8.550000e-01
 TP1ah TC2eq  1 3.660000e-01    9.350000e-01
 TP1ah TC3eq  1 3.660000e-01    9.350000e-01
 TP1ah TC4eq  1 3.520000e-01    1.050000e+00
 TP1ah TC5eq  1 3.400000e-01    1.230000e+00
 TP1ah TC6eq  1 3.400000e-01    1.510000e+00
 TN6ah TX1eq  1 3.520000e-01    1.050000e+00
 TN6ah TX2eq  1 3.400000e-01    1.230000e+00
 TN6ah TX3eq  1 3.400000e-01    1.510000e+00
 TN6ah TX4eq  1 3.400000e-01    1.770000e+00
 TN6ah TC1eq  1 3.660000e-01    9.350000e-01
 TN6ah TC2eq  1 3.520000e-01    1.050000e+00
 TN6ah TC3eq  1 3.520000e-01    1.050000e+00
 TN6ah TC4eq  1 3.400000e-01    1.230000e+00
 TN6ah TC5eq  1 3.400000e-01    1.510000e+00
 TN6ah TC6eq  1 3.400000e-01    1.770000e+00
 TN5ah TX1eq  1 3.400000e-01    1.230000e+00
 TN5ah TX2eq  1 3.400000e-01    1.510000e+00
 TN5ah TX3eq  1 3.400000e-01    1.770000e+00
 TN5ah TX4eq  1 3.400000e-01    2.020000e+00
 TN5ah TC1eq  1 3.660000e-01    9.350000e-01
 TN5ah TC2eq  1 3.520000e-01    1.050000e+00
 TN5ah TC3eq  1 3.400000e-01    1.230000e+00
 TN5ah TC4eq  1 3.400000e-01    1.230000e+00
 TN5ah TC5eq  1 3.400000e-01    1.510000e+00
 TN5ah TC6eq  1 3.400000e-01    1.770000e+00
 TN4ah TX1eq  1 3.400000e-01    1.230000e+00
 TN4ah TX2eq  1 3.400000e-01    1.510000e+00
 TN4ah TX3eq  1 3.400000e-01    2.020000e+00
 TN4ah TX4eq  1 3.400000e-01    2.280000e+00
 TN4ah TC1eq  1 3.660000e-01    9.350000e-01
 TN4ah TC2eq  1 3.520000e-01    1.050000e+00
 TN4ah TC3eq  1 3.400000e-01    1.230000e+00
 TN4ah TC4eq  1 3.400000e-01    1.510000e+00
 TN4ah TC5eq  1 3.400000e-01    1.510000e+00
 TN4ah TC6eq  1 3.400000e-01    1.770000e+00
 TN3ah TX1eq  1 3.400000e-01    1.510000e+00
 TN3ah TX2eq  1 3.400000e-01    1.510000e+00
 TN3ah TX3eq  1 3.400000e-01    1.770000e+00
 TN3ah TX4eq  1 3.400000e-01    2.020000e+00
 TN3ah TC1eq  1 3.520000e-01    1.050000e+00
 TN3ah TC2eq  1 3.400000e-01    1.230000e+00
 TN3ah TC3eq  1 3.400000e-01    1.230000e+00
 TN3ah TC4eq  1 3.400000e-01    1.510000e+00
 TN3ah TC5eq  1 3.400000e-01    1.510000e+00
 TN3ah TC6eq  1 3.400000e-01    1.770000e+00
 TN2ah TX1eq  1 3.400000e-01    1.510000e+00
 TN2ah TX2eq  1 3.400000e-01    1.510000e+00
 TN2ah TX3eq  1 3.400000e-01    1.770000e+00
 TN2ah TX4eq  1 3.400000e-01    2.020000e+00
 TN2ah TC1eq  1 3.520000e-01    1.050000e+00
 TN2ah TC2eq  1 3.400000e-01    1.230000e+00
 TN2ah TC3eq  1 3.400000e-01    1.510000e+00
 TN2ah TC4eq  1 3.400000e-01    1.510000e+00
 TN2ah TC5eq  1 3.400000e-01    1.510000e+00
 TN2ah TC6eq  1 3.400000e-01    1.770000e+00
 TN1ah TX1eq  1 3.400000e-01    1.510000e+00
 TN1ah TX2eq  1 3.400000e-01    1.510000e+00
 TN1ah TX3eq  1 3.400000e-01    1.770000e+00
 TN1ah TX4eq  1 3.400000e-01    1.770000e+00
 TN1ah TC1eq  1 3.520000e-01    1.050000e+00
 TN1ah TC2eq  1 3.400000e-01    1.230000e+00
 TN1ah TC3eq  1 3.400000e-01    1.510000e+00
 TN1ah TC4eq  1 3.400000e-01    1.770000e+00
 TN1ah TC5eq  1 3.400000e-01    1.770000e+00
 TN1ah TC6eq  1 3.400000e-01    2.020000e+00
 TP6ah TC6eh  1 3.850000e-01    8.550000e-01
 TP6ah TC5eh  1 4.110000e-01    8.010000e-01
 TP6ah TC4eh  1 4.240000e-01    7.760000e-01
 TP6ah TC3eh  1 4.380000e-01    7.310000e-01
 TP6ah TC2eh  1 4.380000e-01    7.310000e-01
 TP6ah TC1eh  1 5.610000e-01    6.300000e-01
 TP6ah TX4eh  1 3.660000e-01    9.350000e-01
 TP6ah TX3eh  1 3.660000e-01    9.350000e-01
 TP6ah TX2eh  1 3.850000e-01    8.550000e-01
 TP6ah TX1eh  1 4.110000e-01    8.010000e-01
 TP5ah TC6eh  1 3.850000e-01    8.550000e-01
 TP5ah TC5eh  1 3.850000e-01    8.550000e-01
 TP5ah TC4eh  1 4.110000e-01    8.010000e-01
 TP5ah TC3eh  1 4.240000e-01    7.760000e-01
 TP5ah TC2eh  1 4.240000e-01    7.760000e-01
 TP5ah TC1eh  1 4.380000e-01    7.310000e-01
 TP5ah TX4eh  1 3.520000e-01    1.050000e+00
 TP5ah TX3eh  1 3.660000e-01    9.350000e-01
 TP5ah TX2eh  1 3.660000e-01    9.350000e-01
 TP5ah TX1eh  1 4.110000e-01    8.010000e-01
 TP4ah TC6eh  1 3.660000e-01    9.350000e-01
 TP4ah TC5eh  1 3.850000e-01    8.550000e-01
 TP4ah TC4eh  1 4.110000e-01    8.010000e-01
 TP4ah TC3eh  1 4.240000e-01    7.760000e-01
 TP4ah TC2eh  1 4.240000e-01    7.760000e-01
 TP4ah TC1eh  1 4.380000e-01    7.310000e-01
 TP4ah TX4eh  1 3.520000e-01    1.050000e+00
 TP4ah TX3eh  1 3.660000e-01    9.350000e-01
 TP4ah TX2eh  1 3.660000e-01    9.350000e-01
 TP4ah TX1eh  1 3.850000e-01    8.550000e-01
 TP3ah TC6eh  1 3.520000e-01    1.050000e+00
 TP3ah TC5eh  1 3.660000e-01    9.350000e-01
 TP3ah TC4eh  1 3.850000e-01    8.550000e-01
 TP3ah TC3eh  1 4.240000e-01    7.760000e-01
 TP3ah TC2eh  1 4.240000e-01    7.760000e-01
 TP3ah TC1eh  1 4.380000e-01    7.310000e-01
 TP3ah TX4eh  1 3.520000e-01    1.050000e+00
 TP3ah TX3eh  1 3.520000e-01    1.050000e+00
 TP3ah TX2eh  1 3.660000e-01    9.350000e-01
 TP3ah TX1eh  1 3.850000e-01    8.550000e-01
 TP2ah TC6eh  1 3.520000e-01    1.050000e+00
 TP2ah TC5eh  1 3.660000e-01    9.350000e-01
 TP2ah TC4eh  1 3.850000e-01    8.550000e-01
 TP2ah TC3eh  1 4.110000e-01    8.010000e-01
 TP2ah TC2eh  1 4.110000e-01    8.010000e-01
 TP2ah TC1eh  1 4.240000e-01    7.760000e-01
 TP2ah TX4eh  1 3.520000e-01    1.050000e+00
 TP2ah TX3eh  1 3.520000e-01    1.050000e+00
 TP2ah TX2eh  1 3.660000e-01    9.350000e-01
 TP2ah TX1eh  1 3.850000e-01    8.550000e-01
 TP1ah TC6eh  1 3.520000e-01    1.050000e+00
 TP1ah TC5eh  1 3.660000e-01    9.350000e-01
 TP1ah TC4eh  1 3.850000e-01    8.550000e-01
 TP1ah TC3eh  1 4.110000e-01    8.010000e-01
 TP1ah TC2eh  1 4.110000e-01    8.010000e-01
 TP1ah TC1eh  1 4.240000e-01    7.760000e-01
 TP1ah TX4eh  1 3.520000e-01    1.050000e+00
 TP1ah TX3eh  1 3.520000e-01    1.050000e+00
 TP1ah TX2eh  1 3.660000e-01    9.350000e-01
 TP1ah TX1eh  1 3.850000e-01    8.550000e-01
 TN6ah TC6eh  1 3.400000e-01    1.230000e+00
 TN6ah TC5eh  1 3.520000e-01    1.050000e+00
 TN6ah TC4eh  1 3.660000e-01    9.350000e-01
 TN6ah TC3eh  1 3.850000e-01    8.550000e-01
 TN6ah TC2eh  1 3.850000e-01    8.550000e-01
 TN6ah TC1eh  1 4.110000e-01    8.010000e-01
 TN6ah TX4eh  1 3.400000e-01    1.230000e+00
 TN6ah TX3eh  1 3.520000e-01    1.050000e+00
 TN6ah TX2eh  1 3.660000e-01    9.350000e-01
 TN6ah TX1eh  1 3.850000e-01    8.550000e-01
 TN5ah TC6eh  1 3.400000e-01    1.230000e+00
 TN5ah TC5eh  1 3.520000e-01    1.050000e+00
 TN5ah TC4eh  1 3.660000e-01    9.350000e-01
 TN5ah TC3eh  1 3.660000e-01    9.350000e-01
 TN5ah TC2eh  1 3.850000e-01    8.550000e-01
 TN5ah TC1eh  1 4.110000e-01    8.010000e-01
 TN5ah TX4eh  1 3.400000e-01    1.510000e+00
 TN5ah TX3eh  1 3.400000e-01    1.230000e+00
 TN5ah TX2eh  1 3.520000e-01    1.050000e+00
 TN5ah TX1eh  1 3.660000e-01    9.350000e-01
 TN4ah TC6eh  1 3.400000e-01    1.230000e+00
 TN4ah TC5eh  1 3.520000e-01    1.050000e+00
 TN4ah TC4eh  1 3.520000e-01    1.050000e+00
 TN4ah TC3eh  1 3.660000e-01    9.350000e-01
 TN4ah TC2eh  1 3.850000e-01    8.550000e-01
 TN4ah TC1eh  1 4.110000e-01    8.010000e-01
 TN4ah TX4eh  1 3.400000e-01    1.770000e+00
 TN4ah TX3eh  1 3.400000e-01    1.510000e+00
 TN4ah TX2eh  1 3.520000e-01    1.050000e+00
 TN4ah TX1eh  1 3.660000e-01    9.350000e-01
 TN3ah TC6eh  1 3.400000e-01    1.230000e+00
 TN3ah TC5eh  1 3.520000e-01    1.050000e+00
 TN3ah TC4eh  1 3.520000e-01    1.050000e+00
 TN3ah TC3eh  1 3.660000e-01    9.350000e-01
 TN3ah TC2eh  1 3.660000e-01    9.350000e-01
 TN3ah TC1eh  1 3.850000e-01    8.550000e-01
 TN3ah TX4eh  1 3.400000e-01    1.510000e+00
 TN3ah TX3eh  1 3.400000e-01    1.230000e+00
 TN3ah TX2eh  1 3.520000e-01    1.050000e+00
 TN3ah TX1eh  1 3.520000e-01    1.050000e+00
 TN2ah TC6eh  1 3.400000e-01    1.230000e+00
 TN2ah TC5eh  1 3.520000e-01    1.050000e+00
 TN2ah TC4eh  1 3.520000e-01    1.050000e+00
 TN2ah TC3eh  1 3.520000e-01    1.050000e+00
 TN2ah TC2eh  1 3.660000e-01    9.350000e-01
 TN2ah TC1eh  1 3.850000e-01    8.550000e-01
 TN2ah TX4eh  1 3.400000e-01    1.510000e+00
 TN2ah TX3eh  1 3.400000e-01    1.230000e+00
 TN2ah TX2eh  1 3.520000e-01    1.050000e+00
 TN2ah TX1eh  1 3.520000e-01    1.050000e+00
 TN1ah TC6eh  1 3.400000e-01    1.510000e+00
 TN1ah TC5eh  1 3.400000e-01    1.230000e+00
 TN1ah TC4eh  1 3.400000e-01    1.230000e+00
 TN1ah TC3eh  1 3.520000e-01    1.050000e+00
 TN1ah TC2eh  1 3.660000e-01    9.350000e-01
 TN1ah TC1eh  1 3.850000e-01    8.550000e-01
 TN1ah TX4eh  1 3.400000e-01    1.230000e+00
 TN1ah TX3eh  1 3.400000e-01    1.230000e+00
 TN1ah TX2eh  1 3.520000e-01    1.050000e+00
 TN1ah TX1eh  1 3.520000e-01    1.050000e+00
 TP6ah TC6er  1 3.850000e-01    8.550000e-01
 TP6ah TC5er  1 4.110000e-01    8.010000e-01
 TP6ah TC4er  1 4.240000e-01    7.760000e-01
 TP6ah TC3er  1 4.380000e-01    7.310000e-01
 TP6ah TC2er  1 4.380000e-01    7.310000e-01
 TP6ah TC1er  1 5.610000e-01    6.300000e-01
 TP6ah TX4er  1 3.660000e-01    9.350000e-01
 TP6ah TX3er  1 3.660000e-01    9.350000e-01
 TP6ah TX2er  1 3.850000e-01    8.550000e-01
 TP6ah TX1er  1 4.110000e-01    8.010000e-01
 TP5ah TC6er  1 3.850000e-01    8.550000e-01
 TP5ah TC5er  1 3.850000e-01    8.550000e-01
 TP5ah TC4er  1 4.110000e-01    8.010000e-01
 TP5ah TC3er  1 4.240000e-01    7.760000e-01
 TP5ah TC2er  1 4.240000e-01    7.760000e-01
 TP5ah TC1er  1 4.380000e-01    7.310000e-01
 TP5ah TX4er  1 3.520000e-01    1.050000e+00
 TP5ah TX3er  1 3.660000e-01    9.350000e-01
 TP5ah TX2er  1 3.660000e-01    9.350000e-01
 TP5ah TX1er  1 4.110000e-01    8.010000e-01
 TP4ah TC6er  1 3.660000e-01    9.350000e-01
 TP4ah TC5er  1 3.850000e-01    8.550000e-01
 TP4ah TC4er  1 4.110000e-01    8.010000e-01
 TP4ah TC3er  1 4.240000e-01    7.760000e-01
 TP4ah TC2er  1 4.240000e-01    7.760000e-01
 TP4ah TC1er  1 4.380000e-01    7.310000e-01
 TP4ah TX4er  1 3.520000e-01    1.050000e+00
 TP4ah TX3er  1 3.660000e-01    9.350000e-01
 TP4ah TX2er  1 3.660000e-01    9.350000e-01
 TP4ah TX1er  1 3.850000e-01    8.550000e-01
 TP3ah TC6er  1 3.520000e-01    1.050000e+00
 TP3ah TC5er  1 3.660000e-01    9.350000e-01
 TP3ah TC4er  1 3.850000e-01    8.550000e-01
 TP3ah TC3er  1 4.240000e-01    7.760000e-01
 TP3ah TC2er  1 4.240000e-01    7.760000e-01
 TP3ah TC1er  1 4.380000e-01    7.310000e-01
 TP3ah TX4er  1 3.520000e-01    1.050000e+00
 TP3ah TX3er  1 3.520000e-01    1.050000e+00
 TP3ah TX2er  1 3.660000e-01    9.350000e-01
 TP3ah TX1er  1 3.850000e-01    8.550000e-01
 TP2ah TC6er  1 3.520000e-01    1.050000e+00
 TP2ah TC5er  1 3.660000e-01    9.350000e-01
 TP2ah TC4er  1 3.850000e-01    8.550000e-01
 TP2ah TC3er  1 4.110000e-01    8.010000e-01
 TP2ah TC2er  1 4.110000e-01    8.010000e-01
 TP2ah TC1er  1 4.240000e-01    7.760000e-01
 TP2ah TX4er  1 3.520000e-01    1.050000e+00
 TP2ah TX3er  1 3.520000e-01    1.050000e+00
 TP2ah TX2er  1 3.660000e-01    9.350000e-01
 TP2ah TX1er  1 3.850000e-01    8.550000e-01
 TP1ah TC6er  1 3.520000e-01    1.050000e+00
 TP1ah TC5er  1 3.660000e-01    9.350000e-01
 TP1ah TC4er  1 3.850000e-01    8.550000e-01
 TP1ah TC3er  1 4.110000e-01    8.010000e-01
 TP1ah TC2er  1 4.110000e-01    8.010000e-01
 TP1ah TC1er  1 4.240000e-01    7.760000e-01
 TP1ah TX4er  1 3.520000e-01    1.050000e+00
 TP1ah TX3er  1 3.520000e-01    1.050000e+00
 TP1ah TX2er  1 3.660000e-01    9.350000e-01
 TP1ah TX1er  1 3.850000e-01    8.550000e-01
 TN6ah TC6er  1 3.400000e-01    1.230000e+00
 TN6ah TC5er  1 3.520000e-01    1.050000e+00
 TN6ah TC4er  1 3.660000e-01    9.350000e-01
 TN6ah TC3er  1 3.850000e-01    8.550000e-01
 TN6ah TC2er  1 3.850000e-01    8.550000e-01
 TN6ah TC1er  1 4.110000e-01    8.010000e-01
 TN6ah TX4er  1 3.400000e-01    1.230000e+00
 TN6ah TX3er  1 3.520000e-01    1.050000e+00
 TN6ah TX2er  1 3.660000e-01    9.350000e-01
 TN6ah TX1er  1 3.850000e-01    8.550000e-01
 TN5ah TC6er  1 3.400000e-01    1.230000e+00
 TN5ah TC5er  1 3.520000e-01    1.050000e+00
 TN5ah TC4er  1 3.660000e-01    9.350000e-01
 TN5ah TC3er  1 3.660000e-01    9.350000e-01
 TN5ah TC2er  1 3.850000e-01    8.550000e-01
 TN5ah TC1er  1 4.110000e-01    8.010000e-01
 TN5ah TX4er  1 3.400000e-01    1.510000e+00
 TN5ah TX3er  1 3.400000e-01    1.230000e+00
 TN5ah TX2er  1 3.520000e-01    1.050000e+00
 TN5ah TX1er  1 3.660000e-01    9.350000e-01
 TN4ah TC6er  1 3.400000e-01    1.230000e+00
 TN4ah TC5er  1 3.520000e-01    1.050000e+00
 TN4ah TC4er  1 3.520000e-01    1.050000e+00
 TN4ah TC3er  1 3.660000e-01    9.350000e-01
 TN4ah TC2er  1 3.850000e-01    8.550000e-01
 TN4ah TC1er  1 4.110000e-01    8.010000e-01
 TN4ah TX4er  1 3.400000e-01    1.770000e+00
 TN4ah TX3er  1 3.400000e-01    1.510000e+00
 TN4ah TX2er  1 3.520000e-01    1.050000e+00
 TN4ah TX1er  1 3.660000e-01    9.350000e-01
 TN3ah TC6er  1 3.400000e-01    1.230000e+00
 TN3ah TC5er  1 3.520000e-01    1.050000e+00
 TN3ah TC4er  1 3.520000e-01    1.050000e+00
 TN3ah TC3er  1 3.660000e-01    9.350000e-01
 TN3ah TC2er  1 3.660000e-01    9.350000e-01
 TN3ah TC1er  1 3.850000e-01    8.550000e-01
 TN3ah TX4er  1 3.400000e-01    1.510000e+00
 TN3ah TX3er  1 3.400000e-01    1.230000e+00
 TN3ah TX2er  1 3.520000e-01    1.050000e+00
 TN3ah TX1er  1 3.520000e-01    1.050000e+00
 TN2ah TC6er  1 3.400000e-01    1.230000e+00
 TN2ah TC5er  1 3.520000e-01    1.050000e+00
 TN2ah TC4er  1 3.520000e-01    1.050000e+00
 TN2ah TC3er  1 3.520000e-01    1.050000e+00
 TN2ah TC2er  1 3.660000e-01    9.350000e-01
 TN2ah TC1er  1 3.850000e-01    8.550000e-01
 TN2ah TX4er  1 3.400000e-01    1.510000e+00
 TN2ah TX3er  1 3.400000e-01    1.230000e+00
 TN2ah TX2er  1 3.520000e-01    1.050000e+00
 TN2ah TX1er  1 3.520000e-01    1.050000e+00
 TN1ah TC6er  1 3.400000e-01    1.510000e+00
 TN1ah TC5er  1 3.400000e-01    1.230000e+00
 TN1ah TC4er  1 3.400000e-01    1.230000e+00
 TN1ah TC3er  1 3.520000e-01    1.050000e+00
 TN1ah TC2er  1 3.660000e-01    9.350000e-01
 TN1ah TC1er  1 3.850000e-01    8.550000e-01
 TN1ah TX4er  1 3.400000e-01    1.230000e+00
 TN1ah TX3er  1 3.400000e-01    1.230000e+00
 TN1ah TX2er  1 3.520000e-01    1.050000e+00
 TN1ah TX1er  1 3.520000e-01    1.050000e+00
 TP6ar  TC6e  1 3.850000e-01    8.550000e-01
 TP6ar  TC5e  1 4.110000e-01    8.010000e-01
 TP6ar  TC4e  1 4.240000e-01    7.760000e-01
 TP6ar  TC3e  1 4.380000e-01    7.310000e-01
 TP6ar  TC2e  1 4.380000e-01    7.310000e-01
 TP6ar  TC1e  1 5.610000e-01    6.300000e-01
 TP6ar  TX4e  1 3.660000e-01    9.350000e-01
 TP6ar  TX3e  1 3.660000e-01    9.350000e-01
 TP6ar  TX2e  1 3.850000e-01    8.550000e-01
 TP6ar  TX1e  1 4.110000e-01    8.010000e-01
 TP5ar  TC6e  1 3.850000e-01    8.550000e-01
 TP5ar  TC5e  1 3.850000e-01    8.550000e-01
 TP5ar  TC4e  1 4.110000e-01    8.010000e-01
 TP5ar  TC3e  1 4.240000e-01    7.760000e-01
 TP5ar  TC2e  1 4.240000e-01    7.760000e-01
 TP5ar  TC1e  1 4.380000e-01    7.310000e-01
 TP5ar  TX4e  1 3.520000e-01    1.050000e+00
 TP5ar  TX3e  1 3.660000e-01    9.350000e-01
 TP5ar  TX2e  1 3.660000e-01    9.350000e-01
 TP5ar  TX1e  1 4.110000e-01    8.010000e-01
 TP4ar  TC6e  1 3.660000e-01    9.350000e-01
 TP4ar  TC5e  1 3.850000e-01    8.550000e-01
 TP4ar  TC4e  1 4.110000e-01    8.010000e-01
 TP4ar  TC3e  1 4.240000e-01    7.760000e-01
 TP4ar  TC2e  1 4.240000e-01    7.760000e-01
 TP4ar  TC1e  1 4.380000e-01    7.310000e-01
 TP4ar  TX4e  1 3.520000e-01    1.050000e+00
 TP4ar  TX3e  1 3.660000e-01    9.350000e-01
 TP4ar  TX2e  1 3.660000e-01    9.350000e-01
 TP4ar  TX1e  1 3.850000e-01    8.550000e-01
 TP3ar  TC6e  1 3.520000e-01    1.050000e+00
 TP3ar  TC5e  1 3.660000e-01    9.350000e-01
 TP3ar  TC4e  1 3.850000e-01    8.550000e-01
 TP3ar  TC3e  1 4.240000e-01    7.760000e-01
 TP3ar  TC2e  1 4.240000e-01    7.760000e-01
 TP3ar  TC1e  1 4.380000e-01    7.310000e-01
 TP3ar  TX4e  1 3.520000e-01    1.050000e+00
 TP3ar  TX3e  1 3.520000e-01    1.050000e+00
 TP3ar  TX2e  1 3.660000e-01    9.350000e-01
 TP3ar  TX1e  1 3.850000e-01    8.550000e-01
 TP2ar  TC6e  1 3.520000e-01    1.050000e+00
 TP2ar  TC5e  1 3.660000e-01    9.350000e-01
 TP2ar  TC4e  1 3.850000e-01    8.550000e-01
 TP2ar  TC3e  1 4.110000e-01    8.010000e-01
 TP2ar  TC2e  1 4.110000e-01    8.010000e-01
 TP2ar  TC1e  1 4.240000e-01    7.760000e-01
 TP2ar  TX4e  1 3.520000e-01    1.050000e+00
 TP2ar  TX3e  1 3.520000e-01    1.050000e+00
 TP2ar  TX2e  1 3.660000e-01    9.350000e-01
 TP2ar  TX1e  1 3.850000e-01    8.550000e-01
 TP1ar  TC6e  1 3.520000e-01    1.050000e+00
 TP1ar  TC5e  1 3.660000e-01    9.350000e-01
 TP1ar  TC4e  1 3.850000e-01    8.550000e-01
 TP1ar  TC3e  1 4.110000e-01    8.010000e-01
 TP1ar  TC2e  1 4.110000e-01    8.010000e-01
 TP1ar  TC1e  1 4.240000e-01    7.760000e-01
 TP1ar  TX4e  1 3.520000e-01    1.050000e+00
 TP1ar  TX3e  1 3.520000e-01    1.050000e+00
 TP1ar  TX2e  1 3.660000e-01    9.350000e-01
 TP1ar  TX1e  1 3.850000e-01    8.550000e-01
 TN6ar  TC6e  1 3.400000e-01    1.230000e+00
 TN6ar  TC5e  1 3.520000e-01    1.050000e+00
 TN6ar  TC4e  1 3.660000e-01    9.350000e-01
 TN6ar  TC3e  1 3.850000e-01    8.550000e-01
 TN6ar  TC2e  1 3.850000e-01    8.550000e-01
 TN6ar  TC1e  1 4.110000e-01    8.010000e-01
 TN6ar  TX4e  1 3.400000e-01    1.230000e+00
 TN6ar  TX3e  1 3.520000e-01    1.050000e+00
 TN6ar  TX2e  1 3.660000e-01    9.350000e-01
 TN6ar  TX1e  1 3.850000e-01    8.550000e-01
 TN5ar  TC6e  1 3.400000e-01    1.230000e+00
 TN5ar  TC5e  1 3.520000e-01    1.050000e+00
 TN5ar  TC4e  1 3.660000e-01    9.350000e-01
 TN5ar  TC3e  1 3.660000e-01    9.350000e-01
 TN5ar  TC2e  1 3.850000e-01    8.550000e-01
 TN5ar  TC1e  1 4.110000e-01    8.010000e-01
 TN5ar  TX4e  1 3.400000e-01    1.510000e+00
 TN5ar  TX3e  1 3.400000e-01    1.230000e+00
 TN5ar  TX2e  1 3.520000e-01    1.050000e+00
 TN5ar  TX1e  1 3.660000e-01    9.350000e-01
 TN4ar  TC6e  1 3.400000e-01    1.230000e+00
 TN4ar  TC5e  1 3.520000e-01    1.050000e+00
 TN4ar  TC4e  1 3.520000e-01    1.050000e+00
 TN4ar  TC3e  1 3.660000e-01    9.350000e-01
 TN4ar  TC2e  1 3.850000e-01    8.550000e-01
 TN4ar  TC1e  1 4.110000e-01    8.010000e-01
 TN4ar  TX4e  1 3.400000e-01    1.770000e+00
 TN4ar  TX3e  1 3.400000e-01    1.510000e+00
 TN4ar  TX2e  1 3.520000e-01    1.050000e+00
 TN4ar  TX1e  1 3.660000e-01    9.350000e-01
 TN3ar  TC6e  1 3.400000e-01    1.230000e+00
 TN3ar  TC5e  1 3.520000e-01    1.050000e+00
 TN3ar  TC4e  1 3.520000e-01    1.050000e+00
 TN3ar  TC3e  1 3.660000e-01    9.350000e-01
 TN3ar  TC2e  1 3.660000e-01    9.350000e-01
 TN3ar  TC1e  1 3.850000e-01    8.550000e-01
 TN3ar  TX4e  1 3.400000e-01    1.510000e+00
 TN3ar  TX3e  1 3.400000e-01    1.230000e+00
 TN3ar  TX2e  1 3.520000e-01    1.050000e+00
 TN3ar  TX1e  1 3.520000e-01    1.050000e+00
 TN2ar  TC6e  1 3.400000e-01    1.230000e+00
 TN2ar  TC5e  1 3.520000e-01    1.050000e+00
 TN2ar  TC4e  1 3.520000e-01    1.050000e+00
 TN2ar  TC3e  1 3.520000e-01    1.050000e+00
 TN2ar  TC2e  1 3.660000e-01    9.350000e-01
 TN2ar  TC1e  1 3.850000e-01    8.550000e-01
 TN2ar  TX4e  1 3.400000e-01    1.510000e+00
 TN2ar  TX3e  1 3.400000e-01    1.230000e+00
 TN2ar  TX2e  1 3.520000e-01    1.050000e+00
 TN2ar  TX1e  1 3.520000e-01    1.050000e+00
 TN1ar  TC6e  1 3.400000e-01    1.510000e+00
 TN1ar  TC5e  1 3.400000e-01    1.230000e+00
 TN1ar  TC4e  1 3.400000e-01    1.230000e+00
 TN1ar  TC3e  1 3.520000e-01    1.050000e+00
 TN1ar  TC2e  1 3.660000e-01    9.350000e-01
 TN1ar  TC1e  1 3.850000e-01    8.550000e-01
 TN1ar  TX4e  1 3.400000e-01    1.230000e+00
 TN1ar  TX3e  1 3.400000e-01    1.230000e+00
 TN1ar  TX2e  1 3.520000e-01    1.050000e+00
 TN1ar  TX1e  1 3.520000e-01    1.050000e+00
 TP6ar TX1eq  1 3.660000e-01    9.350000e-01
 TP6ar TX2eq  1 3.520000e-01    1.050000e+00
 TP6ar TX3eq  1 3.400000e-01    1.230000e+00
 TP6ar TX4eq  1 3.400000e-01    1.230000e+00
 TP6ar TC1eq  1 4.380000e-01    7.310000e-01
 TP6ar TC2eq  1 4.110000e-01    8.010000e-01
 TP6ar TC3eq  1 4.110000e-01    8.010000e-01
 TP6ar TC4eq  1 3.850000e-01    8.550000e-01
 TP6ar TC5eq  1 3.660000e-01    9.350000e-01
 TP6ar TC6eq  1 3.520000e-01    1.050000e+00
 TP5ar TX1eq  1 3.660000e-01    9.350000e-01
 TP5ar TX2eq  1 3.400000e-01    1.230000e+00
 TP5ar TX3eq  1 3.400000e-01    1.230000e+00
 TP5ar TX4eq  1 3.400000e-01    1.510000e+00
 TP5ar TC1eq  1 4.110000e-01    8.010000e-01
 TP5ar TC2eq  1 3.850000e-01    8.550000e-01
 TP5ar TC3eq  1 3.850000e-01    8.550000e-01
 TP5ar TC4eq  1 3.660000e-01    9.350000e-01
 TP5ar TC5eq  1 3.520000e-01    1.050000e+00
 TP5ar TC6eq  1 3.520000e-01    1.050000e+00
 TP4ar TX1eq  1 3.520000e-01    1.050000e+00
 TP4ar TX2eq  1 3.400000e-01    1.230000e+00
 TP4ar TX3eq  1 3.400000e-01    1.230000e+00
 TP4ar TX4eq  1 3.400000e-01    1.510000e+00
 TP4ar TC1eq  1 4.110000e-01    8.010000e-01
 TP4ar TC2eq  1 3.850000e-01    8.550000e-01
 TP4ar TC3eq  1 3.850000e-01    8.550000e-01
 TP4ar TC4eq  1 3.660000e-01    9.350000e-01
 TP4ar TC5eq  1 3.520000e-01    1.050000e+00
 TP4ar TC6eq  1 3.400000e-01    1.230000e+00
 TP3ar TX1eq  1 3.520000e-01    1.050000e+00
 TP3ar TX2eq  1 3.400000e-01    1.230000e+00
 TP3ar TX3eq  1 3.400000e-01    1.510000e+00
 TP3ar TX4eq  1 3.400000e-01    1.510000e+00
 TP3ar TC1eq  1 4.110000e-01    8.010000e-01
 TP3ar TC2eq  1 3.850000e-01    8.550000e-01
 TP3ar TC3eq  1 3.850000e-01    8.550000e-01
 TP3ar TC4eq  1 3.520000e-01    1.050000e+00
 TP3ar TC5eq  1 3.400000e-01    1.230000e+00
 TP3ar TC6eq  1 3.400000e-01    1.510000e+00
 TP2ar TX1eq  1 3.520000e-01    1.050000e+00
 TP2ar TX2eq  1 3.400000e-01    1.230000e+00
 TP2ar TX3eq  1 3.400000e-01    1.510000e+00
 TP2ar TX4eq  1 3.400000e-01    1.510000e+00
 TP2ar TC1eq  1 3.850000e-01    8.550000e-01
 TP2ar TC2eq  1 3.660000e-01    9.350000e-01
 TP2ar TC3eq  1 3.660000e-01    9.350000e-01
 TP2ar TC4eq  1 3.520000e-01    1.050000e+00
 TP2ar TC5eq  1 3.400000e-01    1.230000e+00
 TP2ar TC6eq  1 3.400000e-01    1.510000e+00
 TP1ar TX1eq  1 3.520000e-01    1.050000e+00
 TP1ar TX2eq  1 3.400000e-01    1.230000e+00
 TP1ar TX3eq  1 3.400000e-01    1.510000e+00
 TP1ar TX4eq  1 3.400000e-01    1.510000e+00
 TP1ar TC1eq  1 3.850000e-01    8.550000e-01
 TP1ar TC2eq  1 3.660000e-01    9.350000e-01
 TP1ar TC3eq  1 3.660000e-01    9.350000e-01
 TP1ar TC4eq  1 3.520000e-01    1.050000e+00
 TP1ar TC5eq  1 3.400000e-01    1.230000e+00
 TP1ar TC6eq  1 3.400000e-01    1.510000e+00
 TN6ar TX1eq  1 3.520000e-01    1.050000e+00
 TN6ar TX2eq  1 3.400000e-01    1.230000e+00
 TN6ar TX3eq  1 3.400000e-01    1.510000e+00
 TN6ar TX4eq  1 3.400000e-01    1.770000e+00
 TN6ar TC1eq  1 3.660000e-01    9.350000e-01
 TN6ar TC2eq  1 3.520000e-01    1.050000e+00
 TN6ar TC3eq  1 3.520000e-01    1.050000e+00
 TN6ar TC4eq  1 3.400000e-01    1.230000e+00
 TN6ar TC5eq  1 3.400000e-01    1.510000e+00
 TN6ar TC6eq  1 3.400000e-01    1.770000e+00
 TN5ar TX1eq  1 3.400000e-01    1.230000e+00
 TN5ar TX2eq  1 3.400000e-01    1.510000e+00
 TN5ar TX3eq  1 3.400000e-01    1.770000e+00
 TN5ar TX4eq  1 3.400000e-01    2.020000e+00
 TN5ar TC1eq  1 3.660000e-01    9.350000e-01
 TN5ar TC2eq  1 3.520000e-01    1.050000e+00
 TN5ar TC3eq  1 3.400000e-01    1.230000e+00
 TN5ar TC4eq  1 3.400000e-01    1.230000e+00
 TN5ar TC5eq  1 3.400000e-01    1.510000e+00
 TN5ar TC6eq  1 3.400000e-01    1.770000e+00
 TN4ar TX1eq  1 3.400000e-01    1.230000e+00
 TN4ar TX2eq  1 3.400000e-01    1.510000e+00
 TN4ar TX3eq  1 3.400000e-01    2.020000e+00
 TN4ar TX4eq  1 3.400000e-01    2.280000e+00
 TN4ar TC1eq  1 3.660000e-01    9.350000e-01
 TN4ar TC2eq  1 3.520000e-01    1.050000e+00
 TN4ar TC3eq  1 3.400000e-01    1.230000e+00
 TN4ar TC4eq  1 3.400000e-01    1.510000e+00
 TN4ar TC5eq  1 3.400000e-01    1.510000e+00
 TN4ar TC6eq  1 3.400000e-01    1.770000e+00
 TN3ar TX1eq  1 3.400000e-01    1.510000e+00
 TN3ar TX2eq  1 3.400000e-01    1.510000e+00
 TN3ar TX3eq  1 3.400000e-01    1.770000e+00
 TN3ar TX4eq  1 3.400000e-01    2.020000e+00
 TN3ar TC1eq  1 3.520000e-01    1.050000e+00
 TN3ar TC2eq  1 3.400000e-01    1.230000e+00
 TN3ar TC3eq  1 3.400000e-01    1.230000e+00
 TN3ar TC4eq  1 3.400000e-01    1.510000e+00
 TN3ar TC5eq  1 3.400000e-01    1.510000e+00
 TN3ar TC6eq  1 3.400000e-01    1.770000e+00
 TN2ar TX1eq  1 3.400000e-01    1.510000e+00
 TN2ar TX2eq  1 3.400000e-01    1.510000e+00
 TN2ar TX3eq  1 3.400000e-01    1.770000e+00
 TN2ar TX4eq  1 3.400000e-01    2.020000e+00
 TN2ar TC1eq  1 3.520000e-01    1.050000e+00
 TN2ar TC2eq  1 3.400000e-01    1.230000e+00
 TN2ar TC3eq  1 3.400000e-01    1.510000e+00
 TN2ar TC4eq  1 3.400000e-01    1.510000e+00
 TN2ar TC5eq  1 3.400000e-01    1.510000e+00
 TN2ar TC6eq  1 3.400000e-01    1.770000e+00
 TN1ar TX1eq  1 3.400000e-01    1.510000e+00
 TN1ar TX2eq  1 3.400000e-01    1.510000e+00
 TN1ar TX3eq  1 3.400000e-01    1.770000e+00
 TN1ar TX4eq  1 3.400000e-01    1.770000e+00
 TN1ar TC1eq  1 3.520000e-01    1.050000e+00
 TN1ar TC2eq  1 3.400000e-01    1.230000e+00
 TN1ar TC3eq  1 3.400000e-01    1.510000e+00
 TN1ar TC4eq  1 3.400000e-01    1.770000e+00
 TN1ar TC5eq  1 3.400000e-01    1.770000e+00
 TN1ar TC6eq  1 3.400000e-01    2.020000e+00
 TP6ar TC6eh  1 3.850000e-01    8.550000e-01
 TP6ar TC5eh  1 4.110000e-01    8.010000e-01
 TP6ar TC4eh  1 4.240000e-01    7.760000e-01
 TP6ar TC3eh  1 4.380000e-01    7.310000e-01
 TP6ar TC2eh  1 4.380000e-01    7.310000e-01
 TP6ar TC1eh  1 5.610000e-01    6.300000e-01
 TP6ar TX4eh  1 3.660000e-01    9.350000e-01
 TP6ar TX3eh  1 3.660000e-01    9.350000e-01
 TP6ar TX2eh  1 3.850000e-01    8.550000e-01
 TP6ar TX1eh  1 4.110000e-01    8.010000e-01
 TP5ar TC6eh  1 3.850000e-01    8.550000e-01
 TP5ar TC5eh  1 3.850000e-01    8.550000e-01
 TP5ar TC4eh  1 4.110000e-01    8.010000e-01
 TP5ar TC3eh  1 4.240000e-01    7.760000e-01
 TP5ar TC2eh  1 4.240000e-01    7.760000e-01
 TP5ar TC1eh  1 4.380000e-01    7.310000e-01
 TP5ar TX4eh  1 3.520000e-01    1.050000e+00
 TP5ar TX3eh  1 3.660000e-01    9.350000e-01
 TP5ar TX2eh  1 3.660000e-01    9.350000e-01
 TP5ar TX1eh  1 4.110000e-01    8.010000e-01
 TP4ar TC6eh  1 3.660000e-01    9.350000e-01
 TP4ar TC5eh  1 3.850000e-01    8.550000e-01
 TP4ar TC4eh  1 4.110000e-01    8.010000e-01
 TP4ar TC3eh  1 4.240000e-01    7.760000e-01
 TP4ar TC2eh  1 4.240000e-01    7.760000e-01
 TP4ar TC1eh  1 4.380000e-01    7.310000e-01
 TP4ar TX4eh  1 3.520000e-01    1.050000e+00
 TP4ar TX3eh  1 3.660000e-01    9.350000e-01
 TP4ar TX2eh  1 3.660000e-01    9.350000e-01
 TP4ar TX1eh  1 3.850000e-01    8.550000e-01
 TP3ar TC6eh  1 3.520000e-01    1.050000e+00
 TP3ar TC5eh  1 3.660000e-01    9.350000e-01
 TP3ar TC4eh  1 3.850000e-01    8.550000e-01
 TP3ar TC3eh  1 4.240000e-01    7.760000e-01
 TP3ar TC2eh  1 4.240000e-01    7.760000e-01
 TP3ar TC1eh  1 4.380000e-01    7.310000e-01
 TP3ar TX4eh  1 3.520000e-01    1.050000e+00
 TP3ar TX3eh  1 3.520000e-01    1.050000e+00
 TP3ar TX2eh  1 3.660000e-01    9.350000e-01
 TP3ar TX1eh  1 3.850000e-01    8.550000e-01
 TP2ar TC6eh  1 3.520000e-01    1.050000e+00
 TP2ar TC5eh  1 3.660000e-01    9.350000e-01
 TP2ar TC4eh  1 3.850000e-01    8.550000e-01
 TP2ar TC3eh  1 4.110000e-01    8.010000e-01
 TP2ar TC2eh  1 4.110000e-01    8.010000e-01
 TP2ar TC1eh  1 4.240000e-01    7.760000e-01
 TP2ar TX4eh  1 3.520000e-01    1.050000e+00
 TP2ar TX3eh  1 3.520000e-01    1.050000e+00
 TP2ar TX2eh  1 3.660000e-01    9.350000e-01
 TP2ar TX1eh  1 3.850000e-01    8.550000e-01
 TP1ar TC6eh  1 3.520000e-01    1.050000e+00
 TP1ar TC5eh  1 3.660000e-01    9.350000e-01
 TP1ar TC4eh  1 3.850000e-01    8.550000e-01
 TP1ar TC3eh  1 4.110000e-01    8.010000e-01
 TP1ar TC2eh  1 4.110000e-01    8.010000e-01
 TP1ar TC1eh  1 4.240000e-01    7.760000e-01
 TP1ar TX4eh  1 3.520000e-01    1.050000e+00
 TP1ar TX3eh  1 3.520000e-01    1.050000e+00
 TP1ar TX2eh  1 3.660000e-01    9.350000e-01
 TP1ar TX1eh  1 3.850000e-01    8.550000e-01
 TN6ar TC6eh  1 3.400000e-01    1.230000e+00
 TN6ar TC5eh  1 3.520000e-01    1.050000e+00
 TN6ar TC4eh  1 3.660000e-01    9.350000e-01
 TN6ar TC3eh  1 3.850000e-01    8.550000e-01
 TN6ar TC2eh  1 3.850000e-01    8.550000e-01
 TN6ar TC1eh  1 4.110000e-01    8.010000e-01
 TN6ar TX4eh  1 3.400000e-01    1.230000e+00
 TN6ar TX3eh  1 3.520000e-01    1.050000e+00
 TN6ar TX2eh  1 3.660000e-01    9.350000e-01
 TN6ar TX1eh  1 3.850000e-01    8.550000e-01
 TN5ar TC6eh  1 3.400000e-01    1.230000e+00
 TN5ar TC5eh  1 3.520000e-01    1.050000e+00
 TN5ar TC4eh  1 3.660000e-01    9.350000e-01
 TN5ar TC3eh  1 3.660000e-01    9.350000e-01
 TN5ar TC2eh  1 3.850000e-01    8.550000e-01
 TN5ar TC1eh  1 4.110000e-01    8.010000e-01
 TN5ar TX4eh  1 3.400000e-01    1.510000e+00
 TN5ar TX3eh  1 3.400000e-01    1.230000e+00
 TN5ar TX2eh  1 3.520000e-01    1.050000e+00
 TN5ar TX1eh  1 3.660000e-01    9.350000e-01
 TN4ar TC6eh  1 3.400000e-01    1.230000e+00
 TN4ar TC5eh  1 3.520000e-01    1.050000e+00
 TN4ar TC4eh  1 3.520000e-01    1.050000e+00
 TN4ar TC3eh  1 3.660000e-01    9.350000e-01
 TN4ar TC2eh  1 3.850000e-01    8.550000e-01
 TN4ar TC1eh  1 4.110000e-01    8.010000e-01
 TN4ar TX4eh  1 3.400000e-01    1.770000e+00
 TN4ar TX3eh  1 3.400000e-01    1.510000e+00
 TN4ar TX2eh  1 3.520000e-01    1.050000e+00
 TN4ar TX1eh  1 3.660000e-01    9.350000e-01
 TN3ar TC6eh  1 3.400000e-01    1.230000e+00
 TN3ar TC5eh  1 3.520000e-01    1.050000e+00
 TN3ar TC4eh  1 3.520000e-01    1.050000e+00
 TN3ar TC3eh  1 3.660000e-01    9.350000e-01
 TN3ar TC2eh  1 3.660000e-01    9.350000e-01
 TN3ar TC1eh  1 3.850000e-01    8.550000e-01
 TN3ar TX4eh  1 3.400000e-01    1.510000e+00
 TN3ar TX3eh  1 3.400000e-01    1.230000e+00
 TN3ar TX2eh  1 3.520000e-01    1.050000e+00
 TN3ar TX1eh  1 3.520000e-01    1.050000e+00
 TN2ar TC6eh  1 3.400000e-01    1.230000e+00
 TN2ar TC5eh  1 3.520000e-01    1.050000e+00
 TN2ar TC4eh  1 3.520000e-01    1.050000e+00
 TN2ar TC3eh  1 3.520000e-01    1.050000e+00
 TN2ar TC2eh  1 3.660000e-01    9.350000e-01
 TN2ar TC1eh  1 3.850000e-01    8.550000e-01
 TN2ar TX4eh  1 3.400000e-01    1.510000e+00
 TN2ar TX3eh  1 3.400000e-01    1.230000e+00
 TN2ar TX2eh  1 3.520000e-01    1.050000e+00
 TN2ar TX1eh  1 3.520000e-01    1.050000e+00
 TN1ar TC6eh  1 3.400000e-01    1.510000e+00
 TN1ar TC5eh  1 3.400000e-01    1.230000e+00
 TN1ar TC4eh  1 3.400000e-01    1.230000e+00
 TN1ar TC3eh  1 3.520000e-01    1.050000e+00
 TN1ar TC2eh  1 3.660000e-01    9.350000e-01
 TN1ar TC1eh  1 3.850000e-01    8.550000e-01
 TN1ar TX4eh  1 3.400000e-01    1.230000e+00
 TN1ar TX3eh  1 3.400000e-01    1.230000e+00
 TN1ar TX2eh  1 3.520000e-01    1.050000e+00
 TN1ar TX1eh  1 3.520000e-01    1.050000e+00
 TP6ar TC6er  1 3.850000e-01    8.550000e-01
 TP6ar TC5er  1 4.110000e-01    8.010000e-01
 TP6ar TC4er  1 4.240000e-01    7.760000e-01
 TP6ar TC3er  1 4.380000e-01    7.310000e-01
 TP6ar TC2er  1 4.380000e-01    7.310000e-01
 TP6ar TC1er  1 5.610000e-01    6.300000e-01
 TP6ar TX4er  1 3.660000e-01    9.350000e-01
 TP6ar TX3er  1 3.660000e-01    9.350000e-01
 TP6ar TX2er  1 3.850000e-01    8.550000e-01
 TP6ar TX1er  1 4.110000e-01    8.010000e-01
 TP5ar TC6er  1 3.850000e-01    8.550000e-01
 TP5ar TC5er  1 3.850000e-01    8.550000e-01
 TP5ar TC4er  1 4.110000e-01    8.010000e-01
 TP5ar TC3er  1 4.240000e-01    7.760000e-01
 TP5ar TC2er  1 4.240000e-01    7.760000e-01
 TP5ar TC1er  1 4.380000e-01    7.310000e-01
 TP5ar TX4er  1 3.520000e-01    1.050000e+00
 TP5ar TX3er  1 3.660000e-01    9.350000e-01
 TP5ar TX2er  1 3.660000e-01    9.350000e-01
 TP5ar TX1er  1 4.110000e-01    8.010000e-01
 TP4ar TC6er  1 3.660000e-01    9.350000e-01
 TP4ar TC5er  1 3.850000e-01    8.550000e-01
 TP4ar TC4er  1 4.110000e-01    8.010000e-01
 TP4ar TC3er  1 4.240000e-01    7.760000e-01
 TP4ar TC2er  1 4.240000e-01    7.760000e-01
 TP4ar TC1er  1 4.380000e-01    7.310000e-01
 TP4ar TX4er  1 3.520000e-01    1.050000e+00
 TP4ar TX3er  1 3.660000e-01    9.350000e-01
 TP4ar TX2er  1 3.660000e-01    9.350000e-01
 TP4ar TX1er  1 3.850000e-01    8.550000e-01
 TP3ar TC6er  1 3.520000e-01    1.050000e+00
 TP3ar TC5er  1 3.660000e-01    9.350000e-01
 TP3ar TC4er  1 3.850000e-01    8.550000e-01
 TP3ar TC3er  1 4.240000e-01    7.760000e-01
 TP3ar TC2er  1 4.240000e-01    7.760000e-01
 TP3ar TC1er  1 4.380000e-01    7.310000e-01
 TP3ar TX4er  1 3.520000e-01    1.050000e+00
 TP3ar TX3er  1 3.520000e-01    1.050000e+00
 TP3ar TX2er  1 3.660000e-01    9.350000e-01
 TP3ar TX1er  1 3.850000e-01    8.550000e-01
 TP2ar TC6er  1 3.520000e-01    1.050000e+00
 TP2ar TC5er  1 3.660000e-01    9.350000e-01
 TP2ar TC4er  1 3.850000e-01    8.550000e-01
 TP2ar TC3er  1 4.110000e-01    8.010000e-01
 TP2ar TC2er  1 4.110000e-01    8.010000e-01
 TP2ar TC1er  1 4.240000e-01    7.760000e-01
 TP2ar TX4er  1 3.520000e-01    1.050000e+00
 TP2ar TX3er  1 3.520000e-01    1.050000e+00
 TP2ar TX2er  1 3.660000e-01    9.350000e-01
 TP2ar TX1er  1 3.850000e-01    8.550000e-01
 TP1ar TC6er  1 3.520000e-01    1.050000e+00
 TP1ar TC5er  1 3.660000e-01    9.350000e-01
 TP1ar TC4er  1 3.850000e-01    8.550000e-01
 TP1ar TC3er  1 4.110000e-01    8.010000e-01
 TP1ar TC2er  1 4.110000e-01    8.010000e-01
 TP1ar TC1er  1 4.240000e-01    7.760000e-01
 TP1ar TX4er  1 3.520000e-01    1.050000e+00
 TP1ar TX3er  1 3.520000e-01    1.050000e+00
 TP1ar TX2er  1 3.660000e-01    9.350000e-01
 TP1ar TX1er  1 3.850000e-01    8.550000e-01
 TN6ar TC6er  1 3.400000e-01    1.230000e+00
 TN6ar TC5er  1 3.520000e-01    1.050000e+00
 TN6ar TC4er  1 3.660000e-01    9.350000e-01
 TN6ar TC3er  1 3.850000e-01    8.550000e-01
 TN6ar TC2er  1 3.850000e-01    8.550000e-01
 TN6ar TC1er  1 4.110000e-01    8.010000e-01
 TN6ar TX4er  1 3.400000e-01    1.230000e+00
 TN6ar TX3er  1 3.520000e-01    1.050000e+00
 TN6ar TX2er  1 3.660000e-01    9.350000e-01
 TN6ar TX1er  1 3.850000e-01    8.550000e-01
 TN5ar TC6er  1 3.400000e-01    1.230000e+00
 TN5ar TC5er  1 3.520000e-01    1.050000e+00
 TN5ar TC4er  1 3.660000e-01    9.350000e-01
 TN5ar TC3er  1 3.660000e-01    9.350000e-01
 TN5ar TC2er  1 3.850000e-01    8.550000e-01
 TN5ar TC1er  1 4.110000e-01    8.010000e-01
 TN5ar TX4er  1 3.400000e-01    1.510000e+00
 TN5ar TX3er  1 3.400000e-01    1.230000e+00
 TN5ar TX2er  1 3.520000e-01    1.050000e+00
 TN5ar TX1er  1 3.660000e-01    9.350000e-01
 TN4ar TC6er  1 3.400000e-01    1.230000e+00
 TN4ar TC5er  1 3.520000e-01    1.050000e+00
 TN4ar TC4er  1 3.520000e-01    1.050000e+00
 TN4ar TC3er  1 3.660000e-01    9.350000e-01
 TN4ar TC2er  1 3.850000e-01    8.550000e-01
 TN4ar TC1er  1 4.110000e-01    8.010000e-01
 TN4ar TX4er  1 3.400000e-01    1.770000e+00
 TN4ar TX3er  1 3.400000e-01    1.510000e+00
 TN4ar TX2er  1 3.520000e-01    1.050000e+00
 TN4ar TX1er  1 3.660000e-01    9.350000e-01
 TN3ar TC6er  1 3.400000e-01    1.230000e+00
 TN3ar TC5er  1 3.520000e-01    1.050000e+00
 TN3ar TC4er  1 3.520000e-01    1.050000e+00
 TN3ar TC3er  1 3.660000e-01    9.350000e-01
 TN3ar TC2er  1 3.660000e-01    9.350000e-01
 TN3ar TC1er  1 3.850000e-01    8.550000e-01
 TN3ar TX4er  1 3.400000e-01    1.510000e+00
 TN3ar TX3er  1 3.400000e-01    1.230000e+00
 TN3ar TX2er  1 3.520000e-01    1.050000e+00
 TN3ar TX1er  1 3.520000e-01    1.050000e+00
 TN2ar TC6er  1 3.400000e-01    1.230000e+00
 TN2ar TC5er  1 3.520000e-01    1.050000e+00
 TN2ar TC4er  1 3.520000e-01    1.050000e+00
 TN2ar TC3er  1 3.520000e-01    1.050000e+00
 TN2ar TC2er  1 3.660000e-01    9.350000e-01
 TN2ar TC1er  1 3.850000e-01    8.550000e-01
 TN2ar TX4er  1 3.400000e-01    1.510000e+00
 TN2ar TX3er  1 3.400000e-01    1.230000e+00
 TN2ar TX2er  1 3.520000e-01    1.050000e+00
 TN2ar TX1er  1 3.520000e-01    1.050000e+00
 TN1ar TC6er  1 3.400000e-01    1.510000e+00
 TN1ar TC5er  1 3.400000e-01    1.230000e+00
 TN1ar TC4er  1 3.400000e-01    1.230000e+00
 TN1ar TC3er  1 3.520000e-01    1.050000e+00
 TN1ar TC2er  1 3.660000e-01    9.350000e-01
 TN1ar TC1er  1 3.850000e-01    8.550000e-01
 TN1ar TX4er  1 3.400000e-01    1.230000e+00
 TN1ar TX3er  1 3.400000e-01    1.230000e+00
 TN1ar TX2er  1 3.520000e-01    1.050000e+00
 TN1ar TX1er  1 3.520000e-01    1.050000e+00
   P6q   P6q  1 4.700000e-01    5.790000e+00
   P6q   P5q  1 4.700000e-01    5.490000e+00
   P6q   P4q  1 4.700000e-01    5.240000e+00
   P6q   P3q  1 4.700000e-01    4.990000e+00
   P6q   P2q  1 4.700000e-01    4.990000e+00
   P6q   P1q  1 4.700000e-01    4.730000e+00
   P6q   N6q  1 4.700000e-01    4.480000e+00
   P6q   N5q  1 4.700000e-01    4.060000e+00
   P6q   N4q  1 4.700000e-01    3.880000e+00
   P6q   N3q  1 4.700000e-01    3.690000e+00
   P6q   N2q  1 4.700000e-01    3.520000e+00
   P6q   N1q  1 4.700000e-01    3.390000e+00
   P6q   C6q  1 4.700000e-01    3.390000e+00
   P6q   C5q  1 4.700000e-01    3.240000e+00
   P6q   C4q  1 4.700000e-01    3.070000e+00
   P6q   C3q  1 4.700000e-01    2.960000e+00
   P6q   C2q  1 4.700000e-01    2.960000e+00
   P6q   C1q  1 4.700000e-01    2.620000e+00
   P6q   X4q  1 4.700000e-01    3.520000e+00
   P6q   X3q  1 4.700000e-01    3.520000e+00
   P6q   X2q  1 4.700000e-01    3.390000e+00
   P6q   X1q  1 4.700000e-01    3.240000e+00
   P6q  P6dq  1 4.700000e-01    5.790000e+00
   P6q  P5dq  1 4.700000e-01    5.490000e+00
   P6q  P4dq  1 4.700000e-01    5.240000e+00
   P6q  P3dq  1 4.700000e-01    4.990000e+00
   P6q  P2dq  1 4.700000e-01    4.990000e+00
   P6q  P1dq  1 4.700000e-01    4.730000e+00
   P6q  N6dq  1 4.700000e-01    4.480000e+00
   P6q  N5dq  1 4.700000e-01    4.060000e+00
   P6q  N4dq  1 4.700000e-01    3.880000e+00
   P6q  N3dq  1 4.700000e-01    3.690000e+00
   P6q  N2dq  1 4.700000e-01    3.520000e+00
   P6q  N1dq  1 4.700000e-01    3.390000e+00
   P6q  P6aq  1 4.700000e-01    5.790000e+00
   P6q  P5aq  1 4.700000e-01    5.490000e+00
   P6q  P4aq  1 4.700000e-01    5.240000e+00
   P6q  P3aq  1 4.700000e-01    4.990000e+00
   P6q  P2aq  1 4.700000e-01    4.990000e+00
   P6q  P1aq  1 4.700000e-01    4.730000e+00
   P6q  N6aq  1 4.700000e-01    4.480000e+00
   P6q  N5aq  1 4.700000e-01    4.060000e+00
   P6q  N4aq  1 4.700000e-01    3.880000e+00
   P6q  N3aq  1 4.700000e-01    3.690000e+00
   P6q  N2aq  1 4.700000e-01    3.520000e+00
   P6q  N1aq  1 4.700000e-01    3.390000e+00
   P6q  C6vq  1 4.700000e-01    3.520000e+00
   P6q  C5vq  1 4.700000e-01    3.390000e+00
   P6q  C4vq  1 4.700000e-01    3.240000e+00
   P6q  C3vq  1 4.700000e-01    3.070000e+00
   P6q  C2vq  1 4.700000e-01    3.070000e+00
   P6q  C1vq  1 4.700000e-01    2.790000e+00
   P6q  X4vq  1 4.700000e-01    3.690000e+00
   P6q  X3vq  1 4.700000e-01    3.690000e+00
   P6q  X2vq  1 4.700000e-01    3.520000e+00
   P6q  X1vq  1 4.700000e-01    3.390000e+00
   P6q  C6eq  1 4.700000e-01    3.520000e+00
   P6q  C5eq  1 4.700000e-01    3.390000e+00
   P6q  C4eq  1 4.700000e-01    3.240000e+00
   P6q  C3eq  1 4.700000e-01    3.070000e+00
   P6q  C2eq  1 4.700000e-01    3.070000e+00
   P6q  C1eq  1 4.700000e-01    2.790000e+00
   P6q  X4eq  1 4.700000e-01    3.690000e+00
   P6q  X3eq  1 4.700000e-01    3.690000e+00
   P6q  X2eq  1 4.700000e-01    3.520000e+00
   P6q  X1eq  1 4.700000e-01    3.390000e+00
   P5q   P5q  1 4.700000e-01    5.240000e+00
   P5q   P4q  1 4.700000e-01    4.990000e+00
   P5q   P3q  1 4.700000e-01    4.730000e+00
   P5q   P2q  1 4.700000e-01    4.730000e+00
   P5q   P1q  1 4.700000e-01    4.480000e+00
   P5q   N6q  1 4.700000e-01    4.250000e+00
   P5q   N5q  1 4.700000e-01    4.060000e+00
   P5q   N4q  1 4.700000e-01    4.060000e+00
   P5q   N3q  1 4.700000e-01    3.690000e+00
   P5q   N2q  1 4.700000e-01    3.520000e+00
   P5q   N1q  1 4.700000e-01    3.390000e+00
   P5q   C6q  1 4.700000e-01    3.390000e+00
   P5q   C5q  1 4.700000e-01    3.390000e+00
   P5q   C4q  1 4.700000e-01    3.240000e+00
   P5q   C3q  1 4.700000e-01    3.070000e+00
   P5q   C2q  1 4.700000e-01    3.070000e+00
   P5q   C1q  1 4.700000e-01    2.960000e+00
   P5q   X4q  1 4.700000e-01    3.690000e+00
   P5q   X3q  1 4.700000e-01    3.520000e+00
   P5q   X2q  1 4.700000e-01    3.520000e+00
   P5q   X1q  1 4.700000e-01    3.240000e+00
   P5q  P5dq  1 4.700000e-01    5.240000e+00
   P5q  P4dq  1 4.700000e-01    4.990000e+00
   P5q  P3dq  1 4.700000e-01    4.730000e+00
   P5q  P2dq  1 4.700000e-01    4.730000e+00
   P5q  P1dq  1 4.700000e-01    4.480000e+00
   P5q  N6dq  1 4.700000e-01    4.250000e+00
   P5q  N5dq  1 4.700000e-01    4.060000e+00
   P5q  N4dq  1 4.700000e-01    4.060000e+00
   P5q  N3dq  1 4.700000e-01    3.690000e+00
   P5q  N2dq  1 4.700000e-01    3.520000e+00
   P5q  N1dq  1 4.700000e-01    3.390000e+00
   P5q  P5aq  1 4.700000e-01    5.240000e+00
   P5q  P4aq  1 4.700000e-01    4.990000e+00
   P5q  P3aq  1 4.700000e-01    4.730000e+00
   P5q  P2aq  1 4.700000e-01    4.730000e+00
   P5q  P1aq  1 4.700000e-01    4.480000e+00
   P5q  N6aq  1 4.700000e-01    4.250000e+00
   P5q  N5aq  1 4.700000e-01    4.060000e+00
   P5q  N4aq  1 4.700000e-01    4.060000e+00
   P5q  N3aq  1 4.700000e-01    3.690000e+00
   P5q  N2aq  1 4.700000e-01    3.520000e+00
   P5q  N1aq  1 4.700000e-01    3.390000e+00
   P5q  C6vq  1 4.700000e-01    3.520000e+00
   P5q  C5vq  1 4.700000e-01    3.520000e+00
   P5q  C4vq  1 4.700000e-01    3.390000e+00
   P5q  C3vq  1 4.700000e-01    3.240000e+00
   P5q  C2vq  1 4.700000e-01    3.240000e+00
   P5q  C1vq  1 4.700000e-01    3.070000e+00
   P5q  X4vq  1 4.700000e-01    3.880000e+00
   P5q  X3vq  1 4.700000e-01    3.690000e+00
   P5q  X2vq  1 4.700000e-01    3.690000e+00
   P5q  X1vq  1 4.700000e-01    3.390000e+00
   P5q  C6eq  1 4.700000e-01    3.520000e+00
   P5q  C5eq  1 4.700000e-01    3.520000e+00
   P5q  C4eq  1 4.700000e-01    3.390000e+00
   P5q  C3eq  1 4.700000e-01    3.240000e+00
   P5q  C2eq  1 4.700000e-01    3.240000e+00
   P5q  C1eq  1 4.700000e-01    3.070000e+00
   P5q  X4eq  1 4.700000e-01    3.880000e+00
   P5q  X3eq  1 4.700000e-01    3.690000e+00
   P5q  X2eq  1 4.700000e-01    3.690000e+00
   P5q  X1eq  1 4.700000e-01    3.390000e+00
   P4q   P4q  1 4.700000e-01    4.990000e+00
   P4q   P3q  1 4.700000e-01    4.730000e+00
   P4q   P2q  1 4.700000e-01    4.730000e+00
   P4q   P1q  1 4.700000e-01    4.480000e+00
   P4q   N6q  1 4.700000e-01    4.250000e+00
   P4q   N5q  1 4.700000e-01    4.060000e+00
   P4q   N4q  1 4.700000e-01    4.060000e+00
   P4q   N3q  1 4.700000e-01    3.880000e+00
   P4q   N2q  1 4.700000e-01    3.690000e+00
   P4q   N1q  1 4.700000e-01    3.520000e+00
   P4q   C6q  1 4.700000e-01    3.520000e+00
   P4q   C5q  1 4.700000e-01    3.390000e+00
   P4q   C4q  1 4.700000e-01    3.240000e+00
   P4q   C3q  1 4.700000e-01    3.070000e+00
   P4q   C2q  1 4.700000e-01    3.070000e+00
   P4q   C1q  1 4.700000e-01    2.960000e+00
   P4q   X4q  1 4.700000e-01    3.690000e+00
   P4q   X3q  1 4.700000e-01    3.520000e+00
   P4q   X2q  1 4.700000e-01    3.520000e+00
   P4q   X1q  1 4.700000e-01    3.390000e+00
   P4q  P4dq  1 4.700000e-01    4.990000e+00
   P4q  P3dq  1 4.700000e-01    4.730000e+00
   P4q  P2dq  1 4.700000e-01    4.730000e+00
   P4q  P1dq  1 4.700000e-01    4.480000e+00
   P4q  N6dq  1 4.700000e-01    4.250000e+00
   P4q  N5dq  1 4.700000e-01    4.060000e+00
   P4q  N4dq  1 4.700000e-01    4.060000e+00
   P4q  N3dq  1 4.700000e-01    3.880000e+00
   P4q  N2dq  1 4.700000e-01    3.690000e+00
   P4q  N1dq  1 4.700000e-01    3.520000e+00
   P4q  P4aq  1 4.700000e-01    4.990000e+00
   P4q  P3aq  1 4.700000e-01    4.730000e+00
   P4q  P2aq  1 4.700000e-01    4.730000e+00
   P4q  P1aq  1 4.700000e-01    4.480000e+00
   P4q  N6aq  1 4.700000e-01    4.250000e+00
   P4q  N5aq  1 4.700000e-01    4.060000e+00
   P4q  N4aq  1 4.700000e-01    4.060000e+00
   P4q  N3aq  1 4.700000e-01    3.880000e+00
   P4q  N2aq  1 4.700000e-01    3.690000e+00
   P4q  N1aq  1 4.700000e-01    3.520000e+00
   P4q  C6vq  1 4.700000e-01    3.690000e+00
   P4q  C5vq  1 4.700000e-01    3.520000e+00
   P4q  C4vq  1 4.700000e-01    3.390000e+00
   P4q  C3vq  1 4.700000e-01    3.240000e+00
   P4q  C2vq  1 4.700000e-01    3.240000e+00
   P4q  C1vq  1 4.700000e-01    3.070000e+00
   P4q  X4vq  1 4.700000e-01    3.880000e+00
   P4q  X3vq  1 4.700000e-01    3.690000e+00
   P4q  X2vq  1 4.700000e-01    3.690000e+00
   P4q  X1vq  1 4.700000e-01    3.520000e+00
   P4q  C6eq  1 4.700000e-01    3.690000e+00
   P4q  C5eq  1 4.700000e-01    3.520000e+00
   P4q  C4eq  1 4.700000e-01    3.390000e+00
   P4q  C3eq  1 4.700000e-01    3.240000e+00
   P4q  C2eq  1 4.700000e-01    3.240000e+00
   P4q  C1eq  1 4.700000e-01    3.070000e+00
   P4q  X4eq  1 4.700000e-01    3.880000e+00
   P4q  X3eq  1 4.700000e-01    3.690000e+00
   P4q  X2eq  1 4.700000e-01    3.690000e+00
   P4q  X1eq  1 4.700000e-01    3.520000e+00
   P3q   P3q  1 4.700000e-01    4.730000e+00
   P3q   P2q  1 4.700000e-01    4.730000e+00
   P3q   P1q  1 4.700000e-01    4.480000e+00
   P3q   N6q  1 4.700000e-01    4.250000e+00
   P3q   N5q  1 4.700000e-01    4.060000e+00
   P3q   N4q  1 4.700000e-01    4.060000e+00
   P3q   N3q  1 4.700000e-01    3.880000e+00
   P3q   N2q  1 4.700000e-01    3.880000e+00
   P3q   N1q  1 4.700000e-01    3.690000e+00
   P3q   C6q  1 4.700000e-01    3.690000e+00
   P3q   C5q  1 4.700000e-01    3.520000e+00
   P3q   C4q  1 4.700000e-01    3.390000e+00
   P3q   C3q  1 4.700000e-01    3.070000e+00
   P3q   C2q  1 4.700000e-01    3.070000e+00
   P3q   C1q  1 4.700000e-01    2.960000e+00
   P3q   X4q  1 4.700000e-01    3.690000e+00
   P3q   X3q  1 4.700000e-01    3.690000e+00
   P3q   X2q  1 4.700000e-01    3.520000e+00
   P3q   X1q  1 4.700000e-01    3.390000e+00
   P3q  P3dq  1 4.700000e-01    4.730000e+00
   P3q  P2dq  1 4.700000e-01    4.730000e+00
   P3q  P1dq  1 4.700000e-01    4.480000e+00
   P3q  N6dq  1 4.700000e-01    4.250000e+00
   P3q  N5dq  1 4.700000e-01    4.060000e+00
   P3q  N4dq  1 4.700000e-01    4.060000e+00
   P3q  N3dq  1 4.700000e-01    3.880000e+00
   P3q  N2dq  1 4.700000e-01    3.880000e+00
   P3q  N1dq  1 4.700000e-01    3.690000e+00
   P3q  P3aq  1 4.700000e-01    4.730000e+00
   P3q  P2aq  1 4.700000e-01    4.730000e+00
   P3q  P1aq  1 4.700000e-01    4.480000e+00
   P3q  N6aq  1 4.700000e-01    4.250000e+00
   P3q  N5aq  1 4.700000e-01    4.060000e+00
   P3q  N4aq  1 4.700000e-01    4.060000e+00
   P3q  N3aq  1 4.700000e-01    3.880000e+00
   P3q  N2aq  1 4.700000e-01    3.880000e+00
   P3q  N1aq  1 4.700000e-01    3.690000e+00
   P3q  C6vq  1 4.700000e-01    3.880000e+00
   P3q  C5vq  1 4.700000e-01    3.690000e+00
   P3q  C4vq  1 4.700000e-01    3.520000e+00
   P3q  C3vq  1 4.700000e-01    3.240000e+00
   P3q  C2vq  1 4.700000e-01    3.240000e+00
   P3q  C1vq  1 4.700000e-01    3.070000e+00
   P3q  X4vq  1 4.700000e-01    3.880000e+00
   P3q  X3vq  1 4.700000e-01    3.880000e+00
   P3q  X2vq  1 4.700000e-01    3.690000e+00
   P3q  X1vq  1 4.700000e-01    3.520000e+00
   P3q  C6eq  1 4.700000e-01    3.880000e+00
   P3q  C5eq  1 4.700000e-01    3.690000e+00
   P3q  C4eq  1 4.700000e-01    3.520000e+00
   P3q  C3eq  1 4.700000e-01    3.240000e+00
   P3q  C2eq  1 4.700000e-01    3.240000e+00
   P3q  C1eq  1 4.700000e-01    3.070000e+00
   P3q  X4eq  1 4.700000e-01    3.880000e+00
   P3q  X3eq  1 4.700000e-01    3.880000e+00
   P3q  X2eq  1 4.700000e-01    3.690000e+00
   P3q  X1eq  1 4.700000e-01    3.520000e+00
   P2q   P2q  1 4.700000e-01    4.730000e+00
   P2q   P1q  1 4.700000e-01    4.480000e+00
   P2q   N6q  1 4.700000e-01    4.480000e+00
   P2q   N5q  1 4.700000e-01    4.250000e+00
   P2q   N4q  1 4.700000e-01    4.060000e+00
   P2q   N3q  1 4.700000e-01    3.880000e+00
   P2q   N2q  1 4.700000e-01    3.880000e+00
   P2q   N1q  1 4.700000e-01    3.880000e+00
   P2q   C6q  1 4.700000e-01    3.690000e+00
   P2q   C5q  1 4.700000e-01    3.520000e+00
   P2q   C4q  1 4.700000e-01    3.390000e+00
   P2q   C3q  1 4.700000e-01    3.240000e+00
   P2q   C2q  1 4.700000e-01    3.240000e+00
   P2q   C1q  1 4.700000e-01    3.070000e+00
   P2q   X4q  1 4.700000e-01    3.690000e+00
   P2q   X3q  1 4.700000e-01    3.690000e+00
   P2q   X2q  1 4.700000e-01    3.520000e+00
   P2q   X1q  1 4.700000e-01    3.390000e+00
   P2q  P2dq  1 4.700000e-01    4.730000e+00
   P2q  P1dq  1 4.700000e-01    4.480000e+00
   P2q  N6dq  1 4.700000e-01    4.480000e+00
   P2q  N5dq  1 4.700000e-01    4.250000e+00
   P2q  N4dq  1 4.700000e-01    4.060000e+00
   P2q  N3dq  1 4.700000e-01    3.880000e+00
   P2q  N2dq  1 4.700000e-01    3.880000e+00
   P2q  N1dq  1 4.700000e-01    3.880000e+00
   P2q  P2aq  1 4.700000e-01    4.730000e+00
   P2q  P1aq  1 4.700000e-01    4.480000e+00
   P2q  N6aq  1 4.700000e-01    4.480000e+00
   P2q  N5aq  1 4.700000e-01    4.250000e+00
   P2q  N4aq  1 4.700000e-01    4.060000e+00
   P2q  N3aq  1 4.700000e-01    3.880000e+00
   P2q  N2aq  1 4.700000e-01    3.880000e+00
   P2q  N1aq  1 4.700000e-01    3.880000e+00
   P2q  C6vq  1 4.700000e-01    3.880000e+00
   P2q  C5vq  1 4.700000e-01    3.690000e+00
   P2q  C4vq  1 4.700000e-01    3.520000e+00
   P2q  C3vq  1 4.700000e-01    3.390000e+00
   P2q  C2vq  1 4.700000e-01    3.390000e+00
   P2q  C1vq  1 4.700000e-01    3.240000e+00
   P2q  X4vq  1 4.700000e-01    3.880000e+00
   P2q  X3vq  1 4.700000e-01    3.880000e+00
   P2q  X2vq  1 4.700000e-01    3.690000e+00
   P2q  X1vq  1 4.700000e-01    3.520000e+00
   P2q  C6eq  1 4.700000e-01    3.880000e+00
   P2q  C5eq  1 4.700000e-01    3.690000e+00
   P2q  C4eq  1 4.700000e-01    3.520000e+00
   P2q  C3eq  1 4.700000e-01    3.390000e+00
   P2q  C2eq  1 4.700000e-01    3.390000e+00
   P2q  C1eq  1 4.700000e-01    3.240000e+00
   P2q  X4eq  1 4.700000e-01    3.880000e+00
   P2q  X3eq  1 4.700000e-01    3.880000e+00
   P2q  X2eq  1 4.700000e-01    3.690000e+00
   P2q  X1eq  1 4.700000e-01    3.520000e+00
   P1q   P1q  1 4.700000e-01    4.480000e+00
   P1q   N6q  1 4.700000e-01    4.480000e+00
   P1q   N5q  1 4.700000e-01    4.250000e+00
   P1q   N4q  1 4.700000e-01    4.250000e+00
   P1q   N3q  1 4.700000e-01    3.880000e+00
   P1q   N2q  1 4.700000e-01    3.880000e+00
   P1q   N1q  1 4.700000e-01    3.880000e+00
   P1q   C6q  1 4.700000e-01    3.690000e+00
   P1q   C5q  1 4.700000e-01    3.520000e+00
   P1q   C4q  1 4.700000e-01    3.390000e+00
   P1q   C3q  1 4.700000e-01    3.240000e+00
   P1q   C2q  1 4.700000e-01    3.240000e+00
   P1q   C1q  1 4.700000e-01    3.070000e+00
   P1q   X4q  1 4.700000e-01    3.690000e+00
   P1q   X3q  1 4.700000e-01    3.690000e+00
   P1q   X2q  1 4.700000e-01    3.520000e+00
   P1q   X1q  1 4.700000e-01    3.390000e+00
   P1q  P1dq  1 4.700000e-01    4.480000e+00
   P1q  N6dq  1 4.700000e-01    4.480000e+00
   P1q  N5dq  1 4.700000e-01    4.250000e+00
   P1q  N4dq  1 4.700000e-01    4.250000e+00
   P1q  N3dq  1 4.700000e-01    3.880000e+00
   P1q  N2dq  1 4.700000e-01    3.880000e+00
   P1q  N1dq  1 4.700000e-01    3.880000e+00
   P1q  P1aq  1 4.700000e-01    4.480000e+00
   P1q  N6aq  1 4.700000e-01    4.480000e+00
   P1q  N5aq  1 4.700000e-01    4.250000e+00
   P1q  N4aq  1 4.700000e-01    4.250000e+00
   P1q  N3aq  1 4.700000e-01    3.880000e+00
   P1q  N2aq  1 4.700000e-01    3.880000e+00
   P1q  N1aq  1 4.700000e-01    3.880000e+00
   P1q  C6vq  1 4.700000e-01    3.880000e+00
   P1q  C5vq  1 4.700000e-01    3.690000e+00
   P1q  C4vq  1 4.700000e-01    3.520000e+00
   P1q  C3vq  1 4.700000e-01    3.390000e+00
   P1q  C2vq  1 4.700000e-01    3.390000e+00
   P1q  C1vq  1 4.700000e-01    3.240000e+00
   P1q  X4vq  1 4.700000e-01    3.880000e+00
   P1q  X3vq  1 4.700000e-01    3.880000e+00
   P1q  X2vq  1 4.700000e-01    3.690000e+00
   P1q  X1vq  1 4.700000e-01    3.520000e+00
   P1q  C6eq  1 4.700000e-01    3.880000e+00
   P1q  C5eq  1 4.700000e-01    3.690000e+00
   P1q  C4eq  1 4.700000e-01    3.520000e+00
   P1q  C3eq  1 4.700000e-01    3.390000e+00
   P1q  C2eq  1 4.700000e-01    3.390000e+00
   P1q  C1eq  1 4.700000e-01    3.240000e+00
   P1q  X4eq  1 4.700000e-01    3.880000e+00
   P1q  X3eq  1 4.700000e-01    3.880000e+00
   P1q  X2eq  1 4.700000e-01    3.690000e+00
   P1q  X1eq  1 4.700000e-01    3.520000e+00
   N6q   N6q  1 4.700000e-01    4.480000e+00
   N6q   N5q  1 4.700000e-01    4.480000e+00
   N6q   N4q  1 4.700000e-01    4.480000e+00
   N6q   N3q  1 4.700000e-01    4.060000e+00
   N6q   N2q  1 4.700000e-01    3.880000e+00
   N6q   N1q  1 4.700000e-01    3.880000e+00
   N6q   C6q  1 4.700000e-01    3.880000e+00
   N6q   C5q  1 4.700000e-01    3.690000e+00
   N6q   C4q  1 4.700000e-01    3.520000e+00
   N6q   C3q  1 4.700000e-01    3.390000e+00
   N6q   C2q  1 4.700000e-01    3.390000e+00
   N6q   C1q  1 4.700000e-01    3.240000e+00
   N6q   X4q  1 4.700000e-01    3.880000e+00
   N6q   X3q  1 4.700000e-01    3.690000e+00
   N6q   X2q  1 4.700000e-01    3.520000e+00
   N6q   X1q  1 4.700000e-01    3.390000e+00
   N6q  N6dq  1 4.700000e-01    4.480000e+00
   N6q  N5dq  1 4.700000e-01    4.480000e+00
   N6q  N4dq  1 4.700000e-01    4.480000e+00
   N6q  N3dq  1 4.700000e-01    4.060000e+00
   N6q  N2dq  1 4.700000e-01    3.880000e+00
   N6q  N1dq  1 4.700000e-01    3.880000e+00
   N6q  N6aq  1 4.700000e-01    4.480000e+00
   N6q  N5aq  1 4.700000e-01    4.480000e+00
   N6q  N4aq  1 4.700000e-01    4.480000e+00
   N6q  N3aq  1 4.700000e-01    4.060000e+00
   N6q  N2aq  1 4.700000e-01    3.880000e+00
   N6q  N1aq  1 4.700000e-01    3.880000e+00
   N6q  C6vq  1 4.700000e-01    4.060000e+00
   N6q  C5vq  1 4.700000e-01    3.880000e+00
   N6q  C4vq  1 4.700000e-01    3.690000e+00
   N6q  C3vq  1 4.700000e-01    3.520000e+00
   N6q  C2vq  1 4.700000e-01    3.520000e+00
   N6q  C1vq  1 4.700000e-01    3.390000e+00
   N6q  X4vq  1 4.700000e-01    4.060000e+00
   N6q  X3vq  1 4.700000e-01    3.880000e+00
   N6q  X2vq  1 4.700000e-01    3.690000e+00
   N6q  X1vq  1 4.700000e-01    3.520000e+00
   N6q  C6eq  1 4.700000e-01    4.060000e+00
   N6q  C5eq  1 4.700000e-01    3.880000e+00
   N6q  C4eq  1 4.700000e-01    3.690000e+00
   N6q  C3eq  1 4.700000e-01    3.520000e+00
   N6q  C2eq  1 4.700000e-01    3.520000e+00
   N6q  C1eq  1 4.700000e-01    3.390000e+00
   N6q  X4eq  1 4.700000e-01    4.060000e+00
   N6q  X3eq  1 4.700000e-01    3.880000e+00
   N6q  X2eq  1 4.700000e-01    3.690000e+00
   N6q  X1eq  1 4.700000e-01    3.520000e+00
   N5q   N5q  1 4.700000e-01    4.250000e+00
   N5q   N4q  1 4.700000e-01    4.250000e+00
   N5q   N3q  1 4.700000e-01    4.060000e+00
   N5q   N2q  1 4.700000e-01    4.060000e+00
   N5q   N1q  1 4.700000e-01    3.880000e+00
   N5q   C6q  1 4.700000e-01    3.880000e+00
   N5q   C5q  1 4.700000e-01    3.690000e+00
   N5q   C4q  1 4.700000e-01    3.520000e+00
   N5q   C3q  1 4.700000e-01    3.520000e+00
   N5q   C2q  1 4.700000e-01    3.390000e+00
   N5q   C1q  1 4.700000e-01    3.240000e+00
   N5q   X4q  1 4.700000e-01    4.060000e+00
   N5q   X3q  1 4.700000e-01    3.880000e+00
   N5q   X2q  1 4.700000e-01    3.690000e+00
   N5q   X1q  1 4.700000e-01    3.520000e+00
   N5q  N5dq  1 4.700000e-01    4.250000e+00
   N5q  N4dq  1 4.700000e-01    4.250000e+00
   N5q  N3dq  1 4.700000e-01    4.060000e+00
   N5q  N2dq  1 4.700000e-01    4.060000e+00
   N5q  N1dq  1 4.700000e-01    3.880000e+00
   N5q  N5aq  1 4.700000e-01    4.250000e+00
   N5q  N4aq  1 4.700000e-01    4.250000e+00
   N5q  N3aq  1 4.700000e-01    4.060000e+00
   N5q  N2aq  1 4.700000e-01    4.060000e+00
   N5q  N1aq  1 4.700000e-01    3.880000e+00
   N5q  C6vq  1 4.700000e-01    4.060000e+00
   N5q  C5vq  1 4.700000e-01    3.880000e+00
   N5q  C4vq  1 4.700000e-01    3.690000e+00
   N5q  C3vq  1 4.700000e-01    3.690000e+00
   N5q  C2vq  1 4.700000e-01    3.520000e+00
   N5q  C1vq  1 4.700000e-01    3.390000e+00
   N5q  X4vq  1 4.700000e-01    4.250000e+00
   N5q  X3vq  1 4.700000e-01    4.060000e+00
   N5q  X2vq  1 4.700000e-01    3.880000e+00
   N5q  X1vq  1 4.700000e-01    3.690000e+00
   N5q  C6eq  1 4.700000e-01    4.060000e+00
   N5q  C5eq  1 4.700000e-01    3.880000e+00
   N5q  C4eq  1 4.700000e-01    3.690000e+00
   N5q  C3eq  1 4.700000e-01    3.690000e+00
   N5q  C2eq  1 4.700000e-01    3.520000e+00
   N5q  C1eq  1 4.700000e-01    3.390000e+00
   N5q  X4eq  1 4.700000e-01    4.250000e+00
   N5q  X3eq  1 4.700000e-01    4.060000e+00
   N5q  X2eq  1 4.700000e-01    3.880000e+00
   N5q  X1eq  1 4.700000e-01    3.690000e+00
   N4q   N4q  1 4.700000e-01    4.250000e+00
   N4q   N3q  1 4.700000e-01    4.060000e+00
   N4q   N2q  1 4.700000e-01    4.060000e+00
   N4q   N1q  1 4.700000e-01    3.880000e+00
   N4q   C6q  1 4.700000e-01    3.880000e+00
   N4q   C5q  1 4.700000e-01    3.690000e+00
   N4q   C4q  1 4.700000e-01    3.690000e+00
   N4q   C3q  1 4.700000e-01    3.520000e+00
   N4q   C2q  1 4.700000e-01    3.390000e+00
   N4q   C1q  1 4.700000e-01    3.240000e+00
   N4q   X4q  1 4.700000e-01    4.250000e+00
   N4q   X3q  1 4.700000e-01    4.060000e+00
   N4q   X2q  1 4.700000e-01    3.690000e+00
   N4q   X1q  1 4.700000e-01    3.520000e+00
   N4q  N4dq  1 4.700000e-01    4.250000e+00
   N4q  N3dq  1 4.700000e-01    4.060000e+00
   N4q  N2dq  1 4.700000e-01    4.060000e+00
   N4q  N1dq  1 4.700000e-01    3.880000e+00
   N4q  N4aq  1 4.700000e-01    4.250000e+00
   N4q  N3aq  1 4.700000e-01    4.060000e+00
   N4q  N2aq  1 4.700000e-01    4.060000e+00
   N4q  N1aq  1 4.700000e-01    3.880000e+00
   N4q  C6vq  1 4.700000e-01    4.060000e+00
   N4q  C5vq  1 4.700000e-01    3.880000e+00
   N4q  C4vq  1 4.700000e-01    3.880000e+00
   N4q  C3vq  1 4.700000e-01    3.690000e+00
   N4q  C2vq  1 4.700000e-01    3.520000e+00
   N4q  C1vq  1 4.700000e-01    3.390000e+00
   N4q  X4vq  1 4.700000e-01    4.480000e+00
   N4q  X3vq  1 4.700000e-01    4.250000e+00
   N4q  X2vq  1 4.700000e-01    3.880000e+00
   N4q  X1vq  1 4.700000e-01    3.690000e+00
   N4q  C6eq  1 4.700000e-01    4.060000e+00
   N4q  C5eq  1 4.700000e-01    3.880000e+00
   N4q  C4eq  1 4.700000e-01    3.880000e+00
   N4q  C3eq  1 4.700000e-01    3.690000e+00
   N4q  C2eq  1 4.700000e-01    3.520000e+00
   N4q  C1eq  1 4.700000e-01    3.390000e+00
   N4q  X4eq  1 4.700000e-01    4.480000e+00
   N4q  X3eq  1 4.700000e-01    4.250000e+00
   N4q  X2eq  1 4.700000e-01    3.880000e+00
   N4q  X1eq  1 4.700000e-01    3.690000e+00
   N3q   N3q  1 4.700000e-01    4.060000e+00
   N3q   N2q  1 4.700000e-01    4.060000e+00
   N3q   N1q  1 4.700000e-01    3.880000e+00
   N3q   C6q  1 4.700000e-01    3.880000e+00
   N3q   C5q  1 4.700000e-01    3.690000e+00
   N3q   C4q  1 4.700000e-01    3.690000e+00
   N3q   C3q  1 4.700000e-01    3.520000e+00
   N3q   C2q  1 4.700000e-01    3.520000e+00
   N3q   C1q  1 4.700000e-01    3.390000e+00
   N3q   X4q  1 4.700000e-01    4.060000e+00
   N3q   X3q  1 4.700000e-01    3.880000e+00
   N3q   X2q  1 4.700000e-01    3.690000e+00
   N3q   X1q  1 4.700000e-01    3.690000e+00
   N3q  N3dq  1 4.700000e-01    4.060000e+00
   N3q  N2dq  1 4.700000e-01    4.060000e+00
   N3q  N1dq  1 4.700000e-01    3.880000e+00
   N3q  N3aq  1 4.700000e-01    4.060000e+00
   N3q  N2aq  1 4.700000e-01    4.060000e+00
   N3q  N1aq  1 4.700000e-01    3.880000e+00
   N3q  C6vq  1 4.700000e-01    4.060000e+00
   N3q  C5vq  1 4.700000e-01    3.880000e+00
   N3q  C4vq  1 4.700000e-01    3.880000e+00
   N3q  C3vq  1 4.700000e-01    3.690000e+00
   N3q  C2vq  1 4.700000e-01    3.690000e+00
   N3q  C1vq  1 4.700000e-01    3.520000e+00
   N3q  X4vq  1 4.700000e-01    4.250000e+00
   N3q  X3vq  1 4.700000e-01    4.060000e+00
   N3q  X2vq  1 4.700000e-01    3.880000e+00
   N3q  X1vq  1 4.700000e-01    3.880000e+00
   N3q  C6eq  1 4.700000e-01    4.060000e+00
   N3q  C5eq  1 4.700000e-01    3.880000e+00
   N3q  C4eq  1 4.700000e-01    3.880000e+00
   N3q  C3eq  1 4.700000e-01    3.690000e+00
   N3q  C2eq  1 4.700000e-01    3.690000e+00
   N3q  C1eq  1 4.700000e-01    3.520000e+00
   N3q  X4eq  1 4.700000e-01    4.250000e+00
   N3q  X3eq  1 4.700000e-01    4.060000e+00
   N3q  X2eq  1 4.700000e-01    3.880000e+00
   N3q  X1eq  1 4.700000e-01    3.880000e+00
   N2q   N2q  1 4.700000e-01    4.060000e+00
   N2q   N1q  1 4.700000e-01    3.880000e+00
   N2q   C6q  1 4.700000e-01    3.880000e+00
   N2q   C5q  1 4.700000e-01    3.690000e+00
   N2q   C4q  1 4.700000e-01    3.690000e+00
   N2q   C3q  1 4.700000e-01    3.690000e+00
   N2q   C2q  1 4.700000e-01    3.520000e+00
   N2q   C1q  1 4.700000e-01    3.390000e+00
   N2q   X4q  1 4.700000e-01    4.060000e+00
   N2q   X3q  1 4.700000e-01    3.880000e+00
   N2q   X2q  1 4.700000e-01    3.690000e+00
   N2q   X1q  1 4.700000e-01    3.690000e+00
   N2q  N2dq  1 4.700000e-01    4.060000e+00
   N2q  N1dq  1 4.700000e-01    3.880000e+00
   N2q  N2aq  1 4.700000e-01    4.060000e+00
   N2q  N1aq  1 4.700000e-01    3.880000e+00
   N2q  C6vq  1 4.700000e-01    4.060000e+00
   N2q  C5vq  1 4.700000e-01    3.880000e+00
   N2q  C4vq  1 4.700000e-01    3.880000e+00
   N2q  C3vq  1 4.700000e-01    3.880000e+00
   N2q  C2vq  1 4.700000e-01    3.690000e+00
   N2q  C1vq  1 4.700000e-01    3.520000e+00
   N2q  X4vq  1 4.700000e-01    4.250000e+00
   N2q  X3vq  1 4.700000e-01    4.060000e+00
   N2q  X2vq  1 4.700000e-01    3.880000e+00
   N2q  X1vq  1 4.700000e-01    3.880000e+00
   N2q  C6eq  1 4.700000e-01    4.060000e+00
   N2q  C5eq  1 4.700000e-01    3.880000e+00
   N2q  C4eq  1 4.700000e-01    3.880000e+00
   N2q  C3eq  1 4.700000e-01    3.880000e+00
   N2q  C2eq  1 4.700000e-01    3.690000e+00
   N2q  C1eq  1 4.700000e-01    3.520000e+00
   N2q  X4eq  1 4.700000e-01    4.250000e+00
   N2q  X3eq  1 4.700000e-01    4.060000e+00
   N2q  X2eq  1 4.700000e-01    3.880000e+00
   N2q  X1eq  1 4.700000e-01    3.880000e+00
   N1q   N1q  1 4.700000e-01    4.060000e+00
   N1q   C6q  1 4.700000e-01    4.060000e+00
   N1q   C5q  1 4.700000e-01    3.880000e+00
   N1q   C4q  1 4.700000e-01    3.880000e+00
   N1q   C3q  1 4.700000e-01    3.690000e+00
   N1q   C2q  1 4.700000e-01    3.520000e+00
   N1q   C1q  1 4.700000e-01    3.390000e+00
   N1q   X4q  1 4.700000e-01    3.880000e+00
   N1q   X3q  1 4.700000e-01    3.880000e+00
   N1q   X2q  1 4.700000e-01    3.690000e+00
   N1q   X1q  1 4.700000e-01    3.690000e+00
   N1q  N1dq  1 4.700000e-01    4.060000e+00
   N1q  N1aq  1 4.700000e-01    4.060000e+00
   N1q  C6vq  1 4.700000e-01    4.250000e+00
   N1q  C5vq  1 4.700000e-01    4.060000e+00
   N1q  C4vq  1 4.700000e-01    4.060000e+00
   N1q  C3vq  1 4.700000e-01    3.880000e+00
   N1q  C2vq  1 4.700000e-01    3.690000e+00
   N1q  C1vq  1 4.700000e-01    3.520000e+00
   N1q  X4vq  1 4.700000e-01    4.060000e+00
   N1q  X3vq  1 4.700000e-01    4.060000e+00
   N1q  X2vq  1 4.700000e-01    3.880000e+00
   N1q  X1vq  1 4.700000e-01    3.880000e+00
   N1q  C6eq  1 4.700000e-01    4.250000e+00
   N1q  C5eq  1 4.700000e-01    4.060000e+00
   N1q  C4eq  1 4.700000e-01    4.060000e+00
   N1q  C3eq  1 4.700000e-01    3.880000e+00
   N1q  C2eq  1 4.700000e-01    3.690000e+00
   N1q  C1eq  1 4.700000e-01    3.520000e+00
   N1q  X4eq  1 4.700000e-01    4.060000e+00
   N1q  X3eq  1 4.700000e-01    4.060000e+00
   N1q  X2eq  1 4.700000e-01    3.880000e+00
   N1q  X1eq  1 4.700000e-01    3.880000e+00
   C6q   C6q  1 4.700000e-01    4.060000e+00
   C6q   C5q  1 4.700000e-01    3.880000e+00
   C6q   C4q  1 4.700000e-01    3.880000e+00
   C6q   C3q  1 4.700000e-01    3.690000e+00
   C6q   C2q  1 4.700000e-01    3.520000e+00
   C6q   C1q  1 4.700000e-01    3.390000e+00
   C6q   X4q  1 4.700000e-01    3.880000e+00
   C6q   X3q  1 4.700000e-01    3.880000e+00
   C6q   X2q  1 4.700000e-01    3.880000e+00
   C6q   X1q  1 4.700000e-01    3.880000e+00
   C6q  C6vq  1 4.700000e-01    4.250000e+00
   C6q  C5vq  1 4.700000e-01    4.060000e+00
   C6q  C4vq  1 4.700000e-01    4.060000e+00
   C6q  C3vq  1 4.700000e-01    3.880000e+00
   C6q  C2vq  1 4.700000e-01    3.690000e+00
   C6q  C1vq  1 4.700000e-01    3.520000e+00
   C6q  X4vq  1 4.700000e-01    4.060000e+00
   C6q  X3vq  1 4.700000e-01    4.060000e+00
   C6q  X2vq  1 4.700000e-01    4.060000e+00
   C6q  X1vq  1 4.700000e-01    4.060000e+00
   C6q  C6eq  1 4.700000e-01    4.250000e+00
   C6q  C5eq  1 4.700000e-01    4.060000e+00
   C6q  C4eq  1 4.700000e-01    4.060000e+00
   C6q  C3eq  1 4.700000e-01    3.880000e+00
   C6q  C2eq  1 4.700000e-01    3.690000e+00
   C6q  C1eq  1 4.700000e-01    3.520000e+00
   C6q  X4eq  1 4.700000e-01    4.060000e+00
   C6q  X3eq  1 4.700000e-01    4.060000e+00
   C6q  X2eq  1 4.700000e-01    4.060000e+00
   C6q  X1eq  1 4.700000e-01    4.060000e+00
   C5q   C5q  1 4.700000e-01    3.880000e+00
   C5q   C4q  1 4.700000e-01    3.880000e+00
   C5q   C3q  1 4.700000e-01    3.690000e+00
   C5q   C2q  1 4.700000e-01    3.520000e+00
   C5q   C1q  1 4.700000e-01    3.520000e+00
   C5q   X4q  1 4.700000e-01    3.690000e+00
   C5q   X3q  1 4.700000e-01    3.690000e+00
   C5q   X2q  1 4.700000e-01    3.690000e+00
   C5q   X1q  1 4.700000e-01    3.880000e+00
   C5q  C5vq  1 4.700000e-01    4.060000e+00
   C5q  C4vq  1 4.700000e-01    4.060000e+00
   C5q  C3vq  1 4.700000e-01    3.880000e+00
   C5q  C2vq  1 4.700000e-01    3.690000e+00
   C5q  C1vq  1 4.700000e-01    3.690000e+00
   C5q  X4vq  1 4.700000e-01    3.880000e+00
   C5q  X3vq  1 4.700000e-01    3.880000e+00
   C5q  X2vq  1 4.700000e-01    3.880000e+00
   C5q  X1vq  1 4.700000e-01    4.060000e+00
   C5q  C5eq  1 4.700000e-01    4.060000e+00
   C5q  C4eq  1 4.700000e-01    4.060000e+00
   C5q  C3eq  1 4.700000e-01    3.880000e+00
   C5q  C2eq  1 4.700000e-01    3.690000e+00
   C5q  C1eq  1 4.700000e-01    3.690000e+00
   C5q  X4eq  1 4.700000e-01    3.880000e+00
   C5q  X3eq  1 4.700000e-01    3.880000e+00
   C5q  X2eq  1 4.700000e-01    3.880000e+00
   C5q  X1eq  1 4.700000e-01    4.060000e+00
   C4q   C4q  1 4.700000e-01    3.880000e+00
   C4q   C3q  1 4.700000e-01    3.880000e+00
   C4q   C2q  1 4.700000e-01    3.690000e+00
   C4q   C1q  1 4.700000e-01    3.520000e+00
   C4q   X4q  1 4.700000e-01    3.690000e+00
   C4q   X3q  1 4.700000e-01    3.690000e+00
   C4q   X2q  1 4.700000e-01    3.690000e+00
   C4q   X1q  1 4.700000e-01    3.880000e+00
   C4q  C4vq  1 4.700000e-01    4.060000e+00
   C4q  C3vq  1 4.700000e-01    4.060000e+00
   C4q  C2vq  1 4.700000e-01    3.880000e+00
   C4q  C1vq  1 4.700000e-01    3.690000e+00
   C4q  X4vq  1 4.700000e-01    3.880000e+00
   C4q  X3vq  1 4.700000e-01    3.880000e+00
   C4q  X2vq  1 4.700000e-01    3.880000e+00
   C4q  X1vq  1 4.700000e-01    4.060000e+00
   C4q  C4eq  1 4.700000e-01    4.060000e+00
   C4q  C3eq  1 4.700000e-01    4.060000e+00
   C4q  C2eq  1 4.700000e-01    3.880000e+00
   C4q  C1eq  1 4.700000e-01    3.690000e+00
   C4q  X4eq  1 4.700000e-01    3.880000e+00
   C4q  X3eq  1 4.700000e-01    3.880000e+00
   C4q  X2eq  1 4.700000e-01    3.880000e+00
   C4q  X1eq  1 4.700000e-01    4.060000e+00
   C3q   C3q  1 4.700000e-01    3.880000e+00
   C3q   C2q  1 4.700000e-01    3.880000e+00
   C3q   C1q  1 4.700000e-01    3.880000e+00
   C3q   X4q  1 4.700000e-01    3.690000e+00
   C3q   X3q  1 4.700000e-01    3.690000e+00
   C3q   X2q  1 4.700000e-01    3.690000e+00
   C3q   X1q  1 4.700000e-01    3.880000e+00
   C3q  C3vq  1 4.700000e-01    4.060000e+00
   C3q  C2vq  1 4.700000e-01    4.060000e+00
   C3q  C1vq  1 4.700000e-01    4.060000e+00
   C3q  X4vq  1 4.700000e-01    3.880000e+00
   C3q  X3vq  1 4.700000e-01    3.880000e+00
   C3q  X2vq  1 4.700000e-01    3.880000e+00
   C3q  X1vq  1 4.700000e-01    4.060000e+00
   C3q  C3eq  1 4.700000e-01    4.060000e+00
   C3q  C2eq  1 4.700000e-01    4.060000e+00
   C3q  C1eq  1 4.700000e-01    4.060000e+00
   C3q  X4eq  1 4.700000e-01    3.880000e+00
   C3q  X3eq  1 4.700000e-01    3.880000e+00
   C3q  X2eq  1 4.700000e-01    3.880000e+00
   C3q  X1eq  1 4.700000e-01    4.060000e+00
   C2q   C2q  1 4.700000e-01    3.880000e+00
   C2q   C1q  1 4.700000e-01    4.060000e+00
   C2q   X4q  1 4.700000e-01    3.390000e+00
   C2q   X3q  1 4.700000e-01    3.690000e+00
   C2q   X2q  1 4.700000e-01    3.690000e+00
   C2q   X1q  1 4.700000e-01    3.690000e+00
   C2q  C2vq  1 4.700000e-01    4.060000e+00
   C2q  C1vq  1 4.700000e-01    4.250000e+00
   C2q  X4vq  1 4.700000e-01    3.520000e+00
   C2q  X3vq  1 4.700000e-01    3.880000e+00
   C2q  X2vq  1 4.700000e-01    3.880000e+00
   C2q  X1vq  1 4.700000e-01    3.880000e+00
   C2q  C2eq  1 4.700000e-01    4.060000e+00
   C2q  C1eq  1 4.700000e-01    4.250000e+00
   C2q  X4eq  1 4.700000e-01    3.520000e+00
   C2q  X3eq  1 4.700000e-01    3.880000e+00
   C2q  X2eq  1 4.700000e-01    3.880000e+00
   C2q  X1eq  1 4.700000e-01    3.880000e+00
   C1q   C1q  1 4.700000e-01    3.880000e+00
   C1q   X4q  1 4.700000e-01    3.390000e+00
   C1q   X3q  1 4.700000e-01    3.690000e+00
   C1q   X2q  1 4.700000e-01    3.690000e+00
   C1q   X1q  1 4.700000e-01    3.690000e+00
   C1q  C1vq  1 4.700000e-01    4.060000e+00
   C1q  X4vq  1 4.700000e-01    3.520000e+00
   C1q  X3vq  1 4.700000e-01    3.880000e+00
   C1q  X2vq  1 4.700000e-01    3.880000e+00
   C1q  X1vq  1 4.700000e-01    3.880000e+00
   C1q  C1eq  1 4.700000e-01    4.060000e+00
   C1q  X4eq  1 4.700000e-01    3.520000e+00
   C1q  X3eq  1 4.700000e-01    3.880000e+00
   C1q  X2eq  1 4.700000e-01    3.880000e+00
   C1q  X1eq  1 4.700000e-01    3.880000e+00
   X4q   X4q  1 4.700000e-01    3.880000e+00
   X4q   X3q  1 4.700000e-01    3.880000e+00
   X4q   X2q  1 4.700000e-01    3.880000e+00
   X4q   X1q  1 4.700000e-01    3.880000e+00
   X4q  X4vq  1 4.700000e-01    4.060000e+00
   X4q  X3vq  1 4.700000e-01    4.060000e+00
   X4q  X2vq  1 4.700000e-01    4.060000e+00
   X4q  X1vq  1 4.700000e-01    4.060000e+00
   X4q  X4eq  1 4.700000e-01    4.060000e+00
   X4q  X3eq  1 4.700000e-01    4.060000e+00
   X4q  X2eq  1 4.700000e-01    4.060000e+00
   X4q  X1eq  1 4.700000e-01    4.060000e+00
   X3q   X3q  1 4.700000e-01    3.880000e+00
   X3q   X2q  1 4.700000e-01    4.060000e+00
   X3q   X1q  1 4.700000e-01    4.060000e+00
   X3q  X3vq  1 4.700000e-01    4.060000e+00
   X3q  X2vq  1 4.700000e-01    4.250000e+00
   X3q  X1vq  1 4.700000e-01    4.250000e+00
   X3q  X3eq  1 4.700000e-01    4.060000e+00
   X3q  X2eq  1 4.700000e-01    4.250000e+00
   X3q  X1eq  1 4.700000e-01    4.250000e+00
   X2q   X2q  1 4.700000e-01    4.060000e+00
   X2q   X1q  1 4.700000e-01    4.060000e+00
   X2q  X2vq  1 4.700000e-01    4.250000e+00
   X2q  X1vq  1 4.700000e-01    4.250000e+00
   X2q  X2eq  1 4.700000e-01    4.250000e+00
   X2q  X1eq  1 4.700000e-01    4.250000e+00
   X1q   X1q  1 4.700000e-01    4.250000e+00
   X1q  X1vq  1 4.700000e-01    4.480000e+00
   X1q  X1eq  1 4.700000e-01    4.480000e+00
  P6dq   P5q  1 4.700000e-01    5.490000e+00
  P6dq   P4q  1 4.700000e-01    5.240000e+00
  P6dq   P3q  1 4.700000e-01    4.990000e+00
  P6dq   P2q  1 4.700000e-01    4.990000e+00
  P6dq   P1q  1 4.700000e-01    4.730000e+00
  P6dq   N6q  1 4.700000e-01    4.480000e+00
  P6dq   N5q  1 4.700000e-01    4.060000e+00
  P6dq   N4q  1 4.700000e-01    3.880000e+00
  P6dq   N3q  1 4.700000e-01    3.690000e+00
  P6dq   N2q  1 4.700000e-01    3.520000e+00
  P6dq   N1q  1 4.700000e-01    3.390000e+00
  P6dq   C6q  1 4.700000e-01    3.390000e+00
  P6dq   C5q  1 4.700000e-01    3.240000e+00
  P6dq   C4q  1 4.700000e-01    3.070000e+00
  P6dq   C3q  1 4.700000e-01    2.960000e+00
  P6dq   C2q  1 4.700000e-01    2.960000e+00
  P6dq   C1q  1 4.700000e-01    2.620000e+00
  P6dq   X4q  1 4.700000e-01    3.520000e+00
  P6dq   X3q  1 4.700000e-01    3.520000e+00
  P6dq   X2q  1 4.700000e-01    3.390000e+00
  P6dq   X1q  1 4.700000e-01    3.240000e+00
  P5dq   P4q  1 4.700000e-01    4.990000e+00
  P5dq   P3q  1 4.700000e-01    4.730000e+00
  P5dq   P2q  1 4.700000e-01    4.730000e+00
  P5dq   P1q  1 4.700000e-01    4.480000e+00
  P5dq   N6q  1 4.700000e-01    4.250000e+00
  P5dq   N5q  1 4.700000e-01    4.060000e+00
  P5dq   N4q  1 4.700000e-01    4.060000e+00
  P5dq   N3q  1 4.700000e-01    3.690000e+00
  P5dq   N2q  1 4.700000e-01    3.520000e+00
  P5dq   N1q  1 4.700000e-01    3.390000e+00
  P5dq   C6q  1 4.700000e-01    3.390000e+00
  P5dq   C5q  1 4.700000e-01    3.390000e+00
  P5dq   C4q  1 4.700000e-01    3.240000e+00
  P5dq   C3q  1 4.700000e-01    3.070000e+00
  P5dq   C2q  1 4.700000e-01    3.070000e+00
  P5dq   C1q  1 4.700000e-01    2.960000e+00
  P5dq   X4q  1 4.700000e-01    3.690000e+00
  P5dq   X3q  1 4.700000e-01    3.520000e+00
  P5dq   X2q  1 4.700000e-01    3.520000e+00
  P5dq   X1q  1 4.700000e-01    3.240000e+00
  P4dq   P3q  1 4.700000e-01    4.730000e+00
  P4dq   P2q  1 4.700000e-01    4.730000e+00
  P4dq   P1q  1 4.700000e-01    4.480000e+00
  P4dq   N6q  1 4.700000e-01    4.250000e+00
  P4dq   N5q  1 4.700000e-01    4.060000e+00
  P4dq   N4q  1 4.700000e-01    4.060000e+00
  P4dq   N3q  1 4.700000e-01    3.880000e+00
  P4dq   N2q  1 4.700000e-01    3.690000e+00
  P4dq   N1q  1 4.700000e-01    3.520000e+00
  P4dq   C6q  1 4.700000e-01    3.520000e+00
  P4dq   C5q  1 4.700000e-01    3.390000e+00
  P4dq   C4q  1 4.700000e-01    3.240000e+00
  P4dq   C3q  1 4.700000e-01    3.070000e+00
  P4dq   C2q  1 4.700000e-01    3.070000e+00
  P4dq   C1q  1 4.700000e-01    2.960000e+00
  P4dq   X4q  1 4.700000e-01    3.690000e+00
  P4dq   X3q  1 4.700000e-01    3.520000e+00
  P4dq   X2q  1 4.700000e-01    3.520000e+00
  P4dq   X1q  1 4.700000e-01    3.390000e+00
  P3dq   P2q  1 4.700000e-01    4.730000e+00
  P3dq   P1q  1 4.700000e-01    4.480000e+00
  P3dq   N6q  1 4.700000e-01    4.250000e+00
  P3dq   N5q  1 4.700000e-01    4.060000e+00
  P3dq   N4q  1 4.700000e-01    4.060000e+00
  P3dq   N3q  1 4.700000e-01    3.880000e+00
  P3dq   N2q  1 4.700000e-01    3.880000e+00
  P3dq   N1q  1 4.700000e-01    3.690000e+00
  P3dq   C6q  1 4.700000e-01    3.690000e+00
  P3dq   C5q  1 4.700000e-01    3.520000e+00
  P3dq   C4q  1 4.700000e-01    3.390000e+00
  P3dq   C3q  1 4.700000e-01    3.070000e+00
  P3dq   C2q  1 4.700000e-01    3.070000e+00
  P3dq   C1q  1 4.700000e-01    2.960000e+00
  P3dq   X4q  1 4.700000e-01    3.690000e+00
  P3dq   X3q  1 4.700000e-01    3.690000e+00
  P3dq   X2q  1 4.700000e-01    3.520000e+00
  P3dq   X1q  1 4.700000e-01    3.390000e+00
  P2dq   P1q  1 4.700000e-01    4.480000e+00
  P2dq   N6q  1 4.700000e-01    4.480000e+00
  P2dq   N5q  1 4.700000e-01    4.250000e+00
  P2dq   N4q  1 4.700000e-01    4.060000e+00
  P2dq   N3q  1 4.700000e-01    3.880000e+00
  P2dq   N2q  1 4.700000e-01    3.880000e+00
  P2dq   N1q  1 4.700000e-01    3.880000e+00
  P2dq   C6q  1 4.700000e-01    3.690000e+00
  P2dq   C5q  1 4.700000e-01    3.520000e+00
  P2dq   C4q  1 4.700000e-01    3.390000e+00
  P2dq   C3q  1 4.700000e-01    3.240000e+00
  P2dq   C2q  1 4.700000e-01    3.240000e+00
  P2dq   C1q  1 4.700000e-01    3.070000e+00
  P2dq   X4q  1 4.700000e-01    3.690000e+00
  P2dq   X3q  1 4.700000e-01    3.690000e+00
  P2dq   X2q  1 4.700000e-01    3.520000e+00
  P2dq   X1q  1 4.700000e-01    3.390000e+00
  P1dq   N6q  1 4.700000e-01    4.480000e+00
  P1dq   N5q  1 4.700000e-01    4.250000e+00
  P1dq   N4q  1 4.700000e-01    4.250000e+00
  P1dq   N3q  1 4.700000e-01    3.880000e+00
  P1dq   N2q  1 4.700000e-01    3.880000e+00
  P1dq   N1q  1 4.700000e-01    3.880000e+00
  P1dq   C6q  1 4.700000e-01    3.690000e+00
  P1dq   C5q  1 4.700000e-01    3.520000e+00
  P1dq   C4q  1 4.700000e-01    3.390000e+00
  P1dq   C3q  1 4.700000e-01    3.240000e+00
  P1dq   C2q  1 4.700000e-01    3.240000e+00
  P1dq   C1q  1 4.700000e-01    3.070000e+00
  P1dq   X4q  1 4.700000e-01    3.690000e+00
  P1dq   X3q  1 4.700000e-01    3.690000e+00
  P1dq   X2q  1 4.700000e-01    3.520000e+00
  P1dq   X1q  1 4.700000e-01    3.390000e+00
  N6dq   N5q  1 4.700000e-01    4.480000e+00
  N6dq   N4q  1 4.700000e-01    4.480000e+00
  N6dq   N3q  1 4.700000e-01    4.060000e+00
  N6dq   N2q  1 4.700000e-01    3.880000e+00
  N6dq   N1q  1 4.700000e-01    3.880000e+00
  N6dq   C6q  1 4.700000e-01    3.880000e+00
  N6dq   C5q  1 4.700000e-01    3.690000e+00
  N6dq   C4q  1 4.700000e-01    3.520000e+00
  N6dq   C3q  1 4.700000e-01    3.390000e+00
  N6dq   C2q  1 4.700000e-01    3.390000e+00
  N6dq   C1q  1 4.700000e-01    3.240000e+00
  N6dq   X4q  1 4.700000e-01    3.880000e+00
  N6dq   X3q  1 4.700000e-01    3.690000e+00
  N6dq   X2q  1 4.700000e-01    3.520000e+00
  N6dq   X1q  1 4.700000e-01    3.390000e+00
  N5dq   N4q  1 4.700000e-01    4.250000e+00
  N5dq   N3q  1 4.700000e-01    4.060000e+00
  N5dq   N2q  1 4.700000e-01    4.060000e+00
  N5dq   N1q  1 4.700000e-01    3.880000e+00
  N5dq   C6q  1 4.700000e-01    3.880000e+00
  N5dq   C5q  1 4.700000e-01    3.690000e+00
  N5dq   C4q  1 4.700000e-01    3.520000e+00
  N5dq   C3q  1 4.700000e-01    3.520000e+00
  N5dq   C2q  1 4.700000e-01    3.390000e+00
  N5dq   C1q  1 4.700000e-01    3.240000e+00
  N5dq   X4q  1 4.700000e-01    4.060000e+00
  N5dq   X3q  1 4.700000e-01    3.880000e+00
  N5dq   X2q  1 4.700000e-01    3.690000e+00
  N5dq   X1q  1 4.700000e-01    3.520000e+00
  N4dq   N3q  1 4.700000e-01    4.060000e+00
  N4dq   N2q  1 4.700000e-01    4.060000e+00
  N4dq   N1q  1 4.700000e-01    3.880000e+00
  N4dq   C6q  1 4.700000e-01    3.880000e+00
  N4dq   C5q  1 4.700000e-01    3.690000e+00
  N4dq   C4q  1 4.700000e-01    3.690000e+00
  N4dq   C3q  1 4.700000e-01    3.520000e+00
  N4dq   C2q  1 4.700000e-01    3.390000e+00
  N4dq   C1q  1 4.700000e-01    3.240000e+00
  N4dq   X4q  1 4.700000e-01    4.250000e+00
  N4dq   X3q  1 4.700000e-01    4.060000e+00
  N4dq   X2q  1 4.700000e-01    3.690000e+00
  N4dq   X1q  1 4.700000e-01    3.520000e+00
  N3dq   N2q  1 4.700000e-01    4.060000e+00
  N3dq   N1q  1 4.700000e-01    3.880000e+00
  N3dq   C6q  1 4.700000e-01    3.880000e+00
  N3dq   C5q  1 4.700000e-01    3.690000e+00
  N3dq   C4q  1 4.700000e-01    3.690000e+00
  N3dq   C3q  1 4.700000e-01    3.520000e+00
  N3dq   C2q  1 4.700000e-01    3.520000e+00
  N3dq   C1q  1 4.700000e-01    3.390000e+00
  N3dq   X4q  1 4.700000e-01    4.060000e+00
  N3dq   X3q  1 4.700000e-01    3.880000e+00
  N3dq   X2q  1 4.700000e-01    3.690000e+00
  N3dq   X1q  1 4.700000e-01    3.690000e+00
  N2dq   N1q  1 4.700000e-01    3.880000e+00
  N2dq   C6q  1 4.700000e-01    3.880000e+00
  N2dq   C5q  1 4.700000e-01    3.690000e+00
  N2dq   C4q  1 4.700000e-01    3.690000e+00
  N2dq   C3q  1 4.700000e-01    3.690000e+00
  N2dq   C2q  1 4.700000e-01    3.520000e+00
  N2dq   C1q  1 4.700000e-01    3.390000e+00
  N2dq   X4q  1 4.700000e-01    4.060000e+00
  N2dq   X3q  1 4.700000e-01    3.880000e+00
  N2dq   X2q  1 4.700000e-01    3.690000e+00
  N2dq   X1q  1 4.700000e-01    3.690000e+00
  N1dq   C6q  1 4.700000e-01    4.060000e+00
  N1dq   C5q  1 4.700000e-01    3.880000e+00
  N1dq   C4q  1 4.700000e-01    3.880000e+00
  N1dq   C3q  1 4.700000e-01    3.690000e+00
  N1dq   C2q  1 4.700000e-01    3.520000e+00
  N1dq   C1q  1 4.700000e-01    3.390000e+00
  N1dq   X4q  1 4.700000e-01    3.880000e+00
  N1dq   X3q  1 4.700000e-01    3.880000e+00
  N1dq   X2q  1 4.700000e-01    3.690000e+00
  N1dq   X1q  1 4.700000e-01    3.690000e+00
  P6aq   P5q  1 4.700000e-01    5.490000e+00
  P6aq   P4q  1 4.700000e-01    5.240000e+00
  P6aq   P3q  1 4.700000e-01    4.990000e+00
  P6aq   P2q  1 4.700000e-01    4.990000e+00
  P6aq   P1q  1 4.700000e-01    4.730000e+00
  P6aq   N6q  1 4.700000e-01    4.480000e+00
  P6aq   N5q  1 4.700000e-01    4.060000e+00
  P6aq   N4q  1 4.700000e-01    3.880000e+00
  P6aq   N3q  1 4.700000e-01    3.690000e+00
  P6aq   N2q  1 4.700000e-01    3.520000e+00
  P6aq   N1q  1 4.700000e-01    3.390000e+00
  P6aq   C6q  1 4.700000e-01    3.390000e+00
  P6aq   C5q  1 4.700000e-01    3.240000e+00
  P6aq   C4q  1 4.700000e-01    3.070000e+00
  P6aq   C3q  1 4.700000e-01    2.960000e+00
  P6aq   C2q  1 4.700000e-01    2.960000e+00
  P6aq   C1q  1 4.700000e-01    2.620000e+00
  P6aq   X4q  1 4.700000e-01    3.520000e+00
  P6aq   X3q  1 4.700000e-01    3.520000e+00
  P6aq   X2q  1 4.700000e-01    3.390000e+00
  P6aq   X1q  1 4.700000e-01    3.240000e+00
  P5aq   P4q  1 4.700000e-01    4.990000e+00
  P5aq   P3q  1 4.700000e-01    4.730000e+00
  P5aq   P2q  1 4.700000e-01    4.730000e+00
  P5aq   P1q  1 4.700000e-01    4.480000e+00
  P5aq   N6q  1 4.700000e-01    4.250000e+00
  P5aq   N5q  1 4.700000e-01    4.060000e+00
  P5aq   N4q  1 4.700000e-01    4.060000e+00
  P5aq   N3q  1 4.700000e-01    3.690000e+00
  P5aq   N2q  1 4.700000e-01    3.520000e+00
  P5aq   N1q  1 4.700000e-01    3.390000e+00
  P5aq   C6q  1 4.700000e-01    3.390000e+00
  P5aq   C5q  1 4.700000e-01    3.390000e+00
  P5aq   C4q  1 4.700000e-01    3.240000e+00
  P5aq   C3q  1 4.700000e-01    3.070000e+00
  P5aq   C2q  1 4.700000e-01    3.070000e+00
  P5aq   C1q  1 4.700000e-01    2.960000e+00
  P5aq   X4q  1 4.700000e-01    3.690000e+00
  P5aq   X3q  1 4.700000e-01    3.520000e+00
  P5aq   X2q  1 4.700000e-01    3.520000e+00
  P5aq   X1q  1 4.700000e-01    3.240000e+00
  P4aq   P3q  1 4.700000e-01    4.730000e+00
  P4aq   P2q  1 4.700000e-01    4.730000e+00
  P4aq   P1q  1 4.700000e-01    4.480000e+00
  P4aq   N6q  1 4.700000e-01    4.250000e+00
  P4aq   N5q  1 4.700000e-01    4.060000e+00
  P4aq   N4q  1 4.700000e-01    4.060000e+00
  P4aq   N3q  1 4.700000e-01    3.880000e+00
  P4aq   N2q  1 4.700000e-01    3.690000e+00
  P4aq   N1q  1 4.700000e-01    3.520000e+00
  P4aq   C6q  1 4.700000e-01    3.520000e+00
  P4aq   C5q  1 4.700000e-01    3.390000e+00
  P4aq   C4q  1 4.700000e-01    3.240000e+00
  P4aq   C3q  1 4.700000e-01    3.070000e+00
  P4aq   C2q  1 4.700000e-01    3.070000e+00
  P4aq   C1q  1 4.700000e-01    2.960000e+00
  P4aq   X4q  1 4.700000e-01    3.690000e+00
  P4aq   X3q  1 4.700000e-01    3.520000e+00
  P4aq   X2q  1 4.700000e-01    3.520000e+00
  P4aq   X1q  1 4.700000e-01    3.390000e+00
  P3aq   P2q  1 4.700000e-01    4.730000e+00
  P3aq   P1q  1 4.700000e-01    4.480000e+00
  P3aq   N6q  1 4.700000e-01    4.250000e+00
  P3aq   N5q  1 4.700000e-01    4.060000e+00
  P3aq   N4q  1 4.700000e-01    4.060000e+00
  P3aq   N3q  1 4.700000e-01    3.880000e+00
  P3aq   N2q  1 4.700000e-01    3.880000e+00
  P3aq   N1q  1 4.700000e-01    3.690000e+00
  P3aq   C6q  1 4.700000e-01    3.690000e+00
  P3aq   C5q  1 4.700000e-01    3.520000e+00
  P3aq   C4q  1 4.700000e-01    3.390000e+00
  P3aq   C3q  1 4.700000e-01    3.070000e+00
  P3aq   C2q  1 4.700000e-01    3.070000e+00
  P3aq   C1q  1 4.700000e-01    2.960000e+00
  P3aq   X4q  1 4.700000e-01    3.690000e+00
  P3aq   X3q  1 4.700000e-01    3.690000e+00
  P3aq   X2q  1 4.700000e-01    3.520000e+00
  P3aq   X1q  1 4.700000e-01    3.390000e+00
  P2aq   P1q  1 4.700000e-01    4.480000e+00
  P2aq   N6q  1 4.700000e-01    4.480000e+00
  P2aq   N5q  1 4.700000e-01    4.250000e+00
  P2aq   N4q  1 4.700000e-01    4.060000e+00
  P2aq   N3q  1 4.700000e-01    3.880000e+00
  P2aq   N2q  1 4.700000e-01    3.880000e+00
  P2aq   N1q  1 4.700000e-01    3.880000e+00
  P2aq   C6q  1 4.700000e-01    3.690000e+00
  P2aq   C5q  1 4.700000e-01    3.520000e+00
  P2aq   C4q  1 4.700000e-01    3.390000e+00
  P2aq   C3q  1 4.700000e-01    3.240000e+00
  P2aq   C2q  1 4.700000e-01    3.240000e+00
  P2aq   C1q  1 4.700000e-01    3.070000e+00
  P2aq   X4q  1 4.700000e-01    3.690000e+00
  P2aq   X3q  1 4.700000e-01    3.690000e+00
  P2aq   X2q  1 4.700000e-01    3.520000e+00
  P2aq   X1q  1 4.700000e-01    3.390000e+00
  P1aq   N6q  1 4.700000e-01    4.480000e+00
  P1aq   N5q  1 4.700000e-01    4.250000e+00
  P1aq   N4q  1 4.700000e-01    4.250000e+00
  P1aq   N3q  1 4.700000e-01    3.880000e+00
  P1aq   N2q  1 4.700000e-01    3.880000e+00
  P1aq   N1q  1 4.700000e-01    3.880000e+00
  P1aq   C6q  1 4.700000e-01    3.690000e+00
  P1aq   C5q  1 4.700000e-01    3.520000e+00
  P1aq   C4q  1 4.700000e-01    3.390000e+00
  P1aq   C3q  1 4.700000e-01    3.240000e+00
  P1aq   C2q  1 4.700000e-01    3.240000e+00
  P1aq   C1q  1 4.700000e-01    3.070000e+00
  P1aq   X4q  1 4.700000e-01    3.690000e+00
  P1aq   X3q  1 4.700000e-01    3.690000e+00
  P1aq   X2q  1 4.700000e-01    3.520000e+00
  P1aq   X1q  1 4.700000e-01    3.390000e+00
  N6aq   N5q  1 4.700000e-01    4.480000e+00
  N6aq   N4q  1 4.700000e-01    4.480000e+00
  N6aq   N3q  1 4.700000e-01    4.060000e+00
  N6aq   N2q  1 4.700000e-01    3.880000e+00
  N6aq   N1q  1 4.700000e-01    3.880000e+00
  N6aq   C6q  1 4.700000e-01    3.880000e+00
  N6aq   C5q  1 4.700000e-01    3.690000e+00
  N6aq   C4q  1 4.700000e-01    3.520000e+00
  N6aq   C3q  1 4.700000e-01    3.390000e+00
  N6aq   C2q  1 4.700000e-01    3.390000e+00
  N6aq   C1q  1 4.700000e-01    3.240000e+00
  N6aq   X4q  1 4.700000e-01    3.880000e+00
  N6aq   X3q  1 4.700000e-01    3.690000e+00
  N6aq   X2q  1 4.700000e-01    3.520000e+00
  N6aq   X1q  1 4.700000e-01    3.390000e+00
  N5aq   N4q  1 4.700000e-01    4.250000e+00
  N5aq   N3q  1 4.700000e-01    4.060000e+00
  N5aq   N2q  1 4.700000e-01    4.060000e+00
  N5aq   N1q  1 4.700000e-01    3.880000e+00
  N5aq   C6q  1 4.700000e-01    3.880000e+00
  N5aq   C5q  1 4.700000e-01    3.690000e+00
  N5aq   C4q  1 4.700000e-01    3.520000e+00
  N5aq   C3q  1 4.700000e-01    3.520000e+00
  N5aq   C2q  1 4.700000e-01    3.390000e+00
  N5aq   C1q  1 4.700000e-01    3.240000e+00
  N5aq   X4q  1 4.700000e-01    4.060000e+00
  N5aq   X3q  1 4.700000e-01    3.880000e+00
  N5aq   X2q  1 4.700000e-01    3.690000e+00
  N5aq   X1q  1 4.700000e-01    3.520000e+00
  N4aq   N3q  1 4.700000e-01    4.060000e+00
  N4aq   N2q  1 4.700000e-01    4.060000e+00
  N4aq   N1q  1 4.700000e-01    3.880000e+00
  N4aq   C6q  1 4.700000e-01    3.880000e+00
  N4aq   C5q  1 4.700000e-01    3.690000e+00
  N4aq   C4q  1 4.700000e-01    3.690000e+00
  N4aq   C3q  1 4.700000e-01    3.520000e+00
  N4aq   C2q  1 4.700000e-01    3.390000e+00
  N4aq   C1q  1 4.700000e-01    3.240000e+00
  N4aq   X4q  1 4.700000e-01    4.250000e+00
  N4aq   X3q  1 4.700000e-01    4.060000e+00
  N4aq   X2q  1 4.700000e-01    3.690000e+00
  N4aq   X1q  1 4.700000e-01    3.520000e+00
  N3aq   N2q  1 4.700000e-01    4.060000e+00
  N3aq   N1q  1 4.700000e-01    3.880000e+00
  N3aq   C6q  1 4.700000e-01    3.880000e+00
  N3aq   C5q  1 4.700000e-01    3.690000e+00
  N3aq   C4q  1 4.700000e-01    3.690000e+00
  N3aq   C3q  1 4.700000e-01    3.520000e+00
  N3aq   C2q  1 4.700000e-01    3.520000e+00
  N3aq   C1q  1 4.700000e-01    3.390000e+00
  N3aq   X4q  1 4.700000e-01    4.060000e+00
  N3aq   X3q  1 4.700000e-01    3.880000e+00
  N3aq   X2q  1 4.700000e-01    3.690000e+00
  N3aq   X1q  1 4.700000e-01    3.690000e+00
  N2aq   N1q  1 4.700000e-01    3.880000e+00
  N2aq   C6q  1 4.700000e-01    3.880000e+00
  N2aq   C5q  1 4.700000e-01    3.690000e+00
  N2aq   C4q  1 4.700000e-01    3.690000e+00
  N2aq   C3q  1 4.700000e-01    3.690000e+00
  N2aq   C2q  1 4.700000e-01    3.520000e+00
  N2aq   C1q  1 4.700000e-01    3.390000e+00
  N2aq   X4q  1 4.700000e-01    4.060000e+00
  N2aq   X3q  1 4.700000e-01    3.880000e+00
  N2aq   X2q  1 4.700000e-01    3.690000e+00
  N2aq   X1q  1 4.700000e-01    3.690000e+00
  N1aq   C6q  1 4.700000e-01    4.060000e+00
  N1aq   C5q  1 4.700000e-01    3.880000e+00
  N1aq   C4q  1 4.700000e-01    3.880000e+00
  N1aq   C3q  1 4.700000e-01    3.690000e+00
  N1aq   C2q  1 4.700000e-01    3.520000e+00
  N1aq   C1q  1 4.700000e-01    3.390000e+00
  N1aq   X4q  1 4.700000e-01    3.880000e+00
  N1aq   X3q  1 4.700000e-01    3.880000e+00
  N1aq   X2q  1 4.700000e-01    3.690000e+00
  N1aq   X1q  1 4.700000e-01    3.690000e+00
  C6vq  C6vq  1 4.700000e-01    3.880000e+00
  C6vq   C5q  1 4.700000e-01    4.060000e+00
  C6vq   C4q  1 4.700000e-01    4.060000e+00
  C6vq   C3q  1 4.700000e-01    3.880000e+00
  C6vq   C2q  1 4.700000e-01    3.690000e+00
  C6vq   C1q  1 4.700000e-01    3.520000e+00
  C6vq   X4q  1 4.700000e-01    4.060000e+00
  C6vq   X3q  1 4.700000e-01    4.060000e+00
  C6vq   X2q  1 4.700000e-01    4.060000e+00
  C6vq   X1q  1 4.700000e-01    4.060000e+00
  C6vq  C5vq  1 4.700000e-01    3.690000e+00
  C6vq  C4vq  1 4.700000e-01    3.690000e+00
  C6vq  C3vq  1 4.700000e-01    3.520000e+00
  C6vq  C2vq  1 4.700000e-01    3.390000e+00
  C6vq  C1vq  1 4.700000e-01    3.240000e+00
  C6vq  X4vq  1 4.700000e-01    3.690000e+00
  C6vq  X3vq  1 4.700000e-01    3.690000e+00
  C6vq  X2vq  1 4.700000e-01    3.690000e+00
  C6vq  X1vq  1 4.700000e-01    3.690000e+00
  C5vq  C5vq  1 4.700000e-01    3.690000e+00
  C5vq   C4q  1 4.700000e-01    4.060000e+00
  C5vq   C3q  1 4.700000e-01    3.880000e+00
  C5vq   C2q  1 4.700000e-01    3.690000e+00
  C5vq   C1q  1 4.700000e-01    3.690000e+00
  C5vq   X4q  1 4.700000e-01    3.880000e+00
  C5vq   X3q  1 4.700000e-01    3.880000e+00
  C5vq   X2q  1 4.700000e-01    3.880000e+00
  C5vq   X1q  1 4.700000e-01    4.060000e+00
  C5vq  C4vq  1 4.700000e-01    3.690000e+00
  C5vq  C3vq  1 4.700000e-01    3.520000e+00
  C5vq  C2vq  1 4.700000e-01    3.390000e+00
  C5vq  C1vq  1 4.700000e-01    3.390000e+00
  C5vq  X4vq  1 4.700000e-01    3.520000e+00
  C5vq  X3vq  1 4.700000e-01    3.520000e+00
  C5vq  X2vq  1 4.700000e-01    3.520000e+00
  C5vq  X1vq  1 4.700000e-01    3.690000e+00
  C4vq  C4vq  1 4.700000e-01    3.690000e+00
  C4vq   C3q  1 4.700000e-01    4.060000e+00
  C4vq   C2q  1 4.700000e-01    3.880000e+00
  C4vq   C1q  1 4.700000e-01    3.690000e+00
  C4vq   X4q  1 4.700000e-01    3.880000e+00
  C4vq   X3q  1 4.700000e-01    3.880000e+00
  C4vq   X2q  1 4.700000e-01    3.880000e+00
  C4vq   X1q  1 4.700000e-01    4.060000e+00
  C4vq  C3vq  1 4.700000e-01    3.690000e+00
  C4vq  C2vq  1 4.700000e-01    3.520000e+00
  C4vq  C1vq  1 4.700000e-01    3.390000e+00
  C4vq  X4vq  1 4.700000e-01    3.520000e+00
  C4vq  X3vq  1 4.700000e-01    3.520000e+00
  C4vq  X2vq  1 4.700000e-01    3.520000e+00
  C4vq  X1vq  1 4.700000e-01    3.690000e+00
  C3vq  C3vq  1 4.700000e-01    3.690000e+00
  C3vq   C2q  1 4.700000e-01    4.060000e+00
  C3vq   C1q  1 4.700000e-01    4.060000e+00
  C3vq   X4q  1 4.700000e-01    3.880000e+00
  C3vq   X3q  1 4.700000e-01    3.880000e+00
  C3vq   X2q  1 4.700000e-01    3.880000e+00
  C3vq   X1q  1 4.700000e-01    4.060000e+00
  C3vq  C2vq  1 4.700000e-01    3.690000e+00
  C3vq  C1vq  1 4.700000e-01    3.690000e+00
  C3vq  X4vq  1 4.700000e-01    3.520000e+00
  C3vq  X3vq  1 4.700000e-01    3.520000e+00
  C3vq  X2vq  1 4.700000e-01    3.520000e+00
  C3vq  X1vq  1 4.700000e-01    3.690000e+00
  C2vq  C2vq  1 4.700000e-01    3.690000e+00
  C2vq   C1q  1 4.700000e-01    4.250000e+00
  C2vq   X4q  1 4.700000e-01    3.520000e+00
  C2vq   X3q  1 4.700000e-01    3.880000e+00
  C2vq   X2q  1 4.700000e-01    3.880000e+00
  C2vq   X1q  1 4.700000e-01    3.880000e+00
  C2vq  C1vq  1 4.700000e-01    3.880000e+00
  C2vq  X4vq  1 4.700000e-01    3.240000e+00
  C2vq  X3vq  1 4.700000e-01    3.520000e+00
  C2vq  X2vq  1 4.700000e-01    3.520000e+00
  C2vq  X1vq  1 4.700000e-01    3.520000e+00
  C1vq  C1vq  1 4.700000e-01    3.690000e+00
  C1vq   X4q  1 4.700000e-01    3.520000e+00
  C1vq   X3q  1 4.700000e-01    3.880000e+00
  C1vq   X2q  1 4.700000e-01    3.880000e+00
  C1vq   X1q  1 4.700000e-01    3.880000e+00
  C1vq  X4vq  1 4.700000e-01    3.240000e+00
  C1vq  X3vq  1 4.700000e-01    3.520000e+00
  C1vq  X2vq  1 4.700000e-01    3.520000e+00
  C1vq  X1vq  1 4.700000e-01    3.520000e+00
  X4vq  X4vq  1 4.700000e-01    3.690000e+00
  X4vq   X3q  1 4.700000e-01    4.060000e+00
  X4vq   X2q  1 4.700000e-01    4.060000e+00
  X4vq   X1q  1 4.700000e-01    4.060000e+00
  X4vq  X3vq  1 4.700000e-01    3.690000e+00
  X4vq  X2vq  1 4.700000e-01    3.690000e+00
  X4vq  X1vq  1 4.700000e-01    3.690000e+00
  X3vq  X3vq  1 4.700000e-01    3.690000e+00
  X3vq   X2q  1 4.700000e-01    4.250000e+00
  X3vq   X1q  1 4.700000e-01    4.250000e+00
  X3vq  X2vq  1 4.700000e-01    3.880000e+00
  X3vq  X1vq  1 4.700000e-01    3.880000e+00
  X2vq  X2vq  1 4.700000e-01    3.880000e+00
  X2vq   X1q  1 4.700000e-01    4.250000e+00
  X2vq  X1vq  1 4.700000e-01    3.880000e+00
  X1vq  X1vq  1 4.700000e-01    4.060000e+00
  C6eq  C6eq  1 4.700000e-01    3.880000e+00
  C6eq   C5q  1 4.700000e-01    4.060000e+00
  C6eq   C4q  1 4.700000e-01    4.060000e+00
  C6eq   C3q  1 4.700000e-01    3.880000e+00
  C6eq   C2q  1 4.700000e-01    3.690000e+00
  C6eq   C1q  1 4.700000e-01    3.520000e+00
  C6eq   X4q  1 4.700000e-01    4.060000e+00
  C6eq   X3q  1 4.700000e-01    4.060000e+00
  C6eq   X2q  1 4.700000e-01    4.060000e+00
  C6eq   X1q  1 4.700000e-01    4.060000e+00
  C6eq  C5eq  1 4.700000e-01    3.690000e+00
  C6eq  C4eq  1 4.700000e-01    3.690000e+00
  C6eq  C3eq  1 4.700000e-01    3.520000e+00
  C6eq  C2eq  1 4.700000e-01    3.390000e+00
  C6eq  C1eq  1 4.700000e-01    3.240000e+00
  C6eq  X4eq  1 4.700000e-01    3.690000e+00
  C6eq  X3eq  1 4.700000e-01    3.690000e+00
  C6eq  X2eq  1 4.700000e-01    3.690000e+00
  C6eq  X1eq  1 4.700000e-01    3.690000e+00
  C5eq  C5eq  1 4.700000e-01    3.690000e+00
  C5eq   C4q  1 4.700000e-01    4.060000e+00
  C5eq   C3q  1 4.700000e-01    3.880000e+00
  C5eq   C2q  1 4.700000e-01    3.690000e+00
  C5eq   C1q  1 4.700000e-01    3.690000e+00
  C5eq   X4q  1 4.700000e-01    3.880000e+00
  C5eq   X3q  1 4.700000e-01    3.880000e+00
  C5eq   X2q  1 4.700000e-01    3.880000e+00
  C5eq   X1q  1 4.700000e-01    4.060000e+00
  C5eq  C4eq  1 4.700000e-01    3.690000e+00
  C5eq  C3eq  1 4.700000e-01    3.520000e+00
  C5eq  C2eq  1 4.700000e-01    3.390000e+00
  C5eq  C1eq  1 4.700000e-01    3.390000e+00
  C5eq  X4eq  1 4.700000e-01    3.520000e+00
  C5eq  X3eq  1 4.700000e-01    3.520000e+00
  C5eq  X2eq  1 4.700000e-01    3.520000e+00
  C5eq  X1eq  1 4.700000e-01    3.690000e+00
  C4eq  C4eq  1 4.700000e-01    3.690000e+00
  C4eq   C3q  1 4.700000e-01    4.060000e+00
  C4eq   C2q  1 4.700000e-01    3.880000e+00
  C4eq   C1q  1 4.700000e-01    3.690000e+00
  C4eq   X4q  1 4.700000e-01    3.880000e+00
  C4eq   X3q  1 4.700000e-01    3.880000e+00
  C4eq   X2q  1 4.700000e-01    3.880000e+00
  C4eq   X1q  1 4.700000e-01    4.060000e+00
  C4eq  C3eq  1 4.700000e-01    3.690000e+00
  C4eq  C2eq  1 4.700000e-01    3.520000e+00
  C4eq  C1eq  1 4.700000e-01    3.390000e+00
  C4eq  X4eq  1 4.700000e-01    3.520000e+00
  C4eq  X3eq  1 4.700000e-01    3.520000e+00
  C4eq  X2eq  1 4.700000e-01    3.520000e+00
  C4eq  X1eq  1 4.700000e-01    3.690000e+00
  C3eq  C3eq  1 4.700000e-01    3.690000e+00
  C3eq   C2q  1 4.700000e-01    4.060000e+00
  C3eq   C1q  1 4.700000e-01    4.060000e+00
  C3eq   X4q  1 4.700000e-01    3.880000e+00
  C3eq   X3q  1 4.700000e-01    3.880000e+00
  C3eq   X2q  1 4.700000e-01    3.880000e+00
  C3eq   X1q  1 4.700000e-01    4.060000e+00
  C3eq  C2eq  1 4.700000e-01    3.690000e+00
  C3eq  C1eq  1 4.700000e-01    3.690000e+00
  C3eq  X4eq  1 4.700000e-01    3.520000e+00
  C3eq  X3eq  1 4.700000e-01    3.520000e+00
  C3eq  X2eq  1 4.700000e-01    3.520000e+00
  C3eq  X1eq  1 4.700000e-01    3.690000e+00
  C2eq  C2eq  1 4.700000e-01    3.690000e+00
  C2eq   C1q  1 4.700000e-01    4.250000e+00
  C2eq   X4q  1 4.700000e-01    3.520000e+00
  C2eq   X3q  1 4.700000e-01    3.880000e+00
  C2eq   X2q  1 4.700000e-01    3.880000e+00
  C2eq   X1q  1 4.700000e-01    3.880000e+00
  C2eq  C1eq  1 4.700000e-01    3.880000e+00
  C2eq  X4eq  1 4.700000e-01    3.240000e+00
  C2eq  X3eq  1 4.700000e-01    3.520000e+00
  C2eq  X2eq  1 4.700000e-01    3.520000e+00
  C2eq  X1eq  1 4.700000e-01    3.520000e+00
  C1eq  C1eq  1 4.700000e-01    3.690000e+00
  C1eq   X4q  1 4.700000e-01    3.520000e+00
  C1eq   X3q  1 4.700000e-01    3.880000e+00
  C1eq   X2q  1 4.700000e-01    3.880000e+00
  C1eq   X1q  1 4.700000e-01    3.880000e+00
  C1eq  X4eq  1 4.700000e-01    3.240000e+00
  C1eq  X3eq  1 4.700000e-01    3.520000e+00
  C1eq  X2eq  1 4.700000e-01    3.520000e+00
  C1eq  X1eq  1 4.700000e-01    3.520000e+00
  X4eq  X4eq  1 4.700000e-01    3.690000e+00
  X4eq   X3q  1 4.700000e-01    4.060000e+00
  X4eq   X2q  1 4.700000e-01    4.060000e+00
  X4eq   X1q  1 4.700000e-01    4.060000e+00
  X4eq  X3eq  1 4.700000e-01    3.690000e+00
  X4eq  X2eq  1 4.700000e-01    3.690000e+00
  X4eq  X1eq  1 4.700000e-01    3.690000e+00
  X3eq  X3eq  1 4.700000e-01    3.690000e+00
  X3eq   X2q  1 4.700000e-01    4.250000e+00
  X3eq   X1q  1 4.700000e-01    4.250000e+00
  X3eq  X2eq  1 4.700000e-01    3.880000e+00
  X3eq  X1eq  1 4.700000e-01    3.880000e+00
  X2eq  X2eq  1 4.700000e-01    3.880000e+00
  X2eq   X1q  1 4.700000e-01    4.250000e+00
  X2eq  X1eq  1 4.700000e-01    3.880000e+00
  X1eq  X1eq  1 4.700000e-01    4.060000e+00
   P6q  SP6q  1 4.300000e-01    5.510000e+00
   P6q  SP5q  1 4.300000e-01    5.210000e+00
   P6q  SP4q  1 4.300000e-01    4.920000e+00
   P6q  SP3q  1 4.300000e-01    4.680000e+00
   P6q  SP2q  1 4.300000e-01    4.680000e+00
   P6q  SP1q  1 4.300000e-01    4.400000e+00
   P6q  SN6q  1 4.300000e-01    4.170000e+00
   P6q  SN5q  1 4.300000e-01    3.770000e+00
   P6q  SN4q  1 4.300000e-01    3.590000e+00
   P6q  SN3q  1 4.300000e-01    3.380000e+00
   P6q  SN2q  1 4.300000e-01    2.920000e+00
   P6q  SN1q  1 4.300000e-01    2.930000e+00
   P6q  SC6q  1 4.300000e-01    2.930000e+00
   P6q  SC5q  1 4.300000e-01    2.770000e+00
   P6q  SC4q  1 4.300000e-01    2.530000e+00
   P6q  SC3q  1 4.300000e-01    2.320000e+00
   P6q  SC2q  1 4.300000e-01    2.320000e+00
   P6q  SC1q  1 4.300000e-01    1.930000e+00
   P6q  SX4q  1 4.300000e-01    2.920000e+00
   P6q  SX3q  1 4.300000e-01    2.920000e+00
   P6q  SX2q  1 4.300000e-01    2.930000e+00
   P6q  SX1q  1 4.300000e-01    2.770000e+00
   P6q SP6dq  1 4.300000e-01    5.510000e+00
   P6q SP5dq  1 4.300000e-01    5.210000e+00
   P6q SP4dq  1 4.300000e-01    4.920000e+00
   P6q SP3dq  1 4.300000e-01    4.680000e+00
   P6q SP2dq  1 4.300000e-01    4.680000e+00
   P6q SP1dq  1 4.300000e-01    4.400000e+00
   P6q SN6dq  1 4.300000e-01    4.170000e+00
   P6q SN5dq  1 4.300000e-01    3.770000e+00
   P6q SN4dq  1 4.300000e-01    3.590000e+00
   P6q SN3dq  1 4.300000e-01    3.380000e+00
   P6q SN2dq  1 4.300000e-01    2.920000e+00
   P6q SN1dq  1 4.300000e-01    2.930000e+00
   P6q SP6aq  1 4.300000e-01    5.510000e+00
   P6q SP5aq  1 4.300000e-01    5.210000e+00
   P6q SP4aq  1 4.300000e-01    4.920000e+00
   P6q SP3aq  1 4.300000e-01    4.680000e+00
   P6q SP2aq  1 4.300000e-01    4.680000e+00
   P6q SP1aq  1 4.300000e-01    4.400000e+00
   P6q SN6aq  1 4.300000e-01    4.170000e+00
   P6q SN5aq  1 4.300000e-01    3.770000e+00
   P6q SN4aq  1 4.300000e-01    3.590000e+00
   P6q SN3aq  1 4.300000e-01    3.380000e+00
   P6q SN2aq  1 4.300000e-01    2.920000e+00
   P6q SN1aq  1 4.300000e-01    2.930000e+00
   P6q SC6vq  1 4.300000e-01    2.920000e+00
   P6q SC5vq  1 4.300000e-01    2.930000e+00
   P6q SC4vq  1 4.300000e-01    2.770000e+00
   P6q SC3vq  1 4.300000e-01    2.530000e+00
   P6q SC2vq  1 4.300000e-01    2.530000e+00
   P6q SC1vq  1 4.300000e-01    2.160000e+00
   P6q SX4vq  1 4.300000e-01    3.380000e+00
   P6q SX3vq  1 4.300000e-01    3.380000e+00
   P6q SX2vq  1 4.300000e-01    2.920000e+00
   P6q SX1vq  1 4.300000e-01    2.930000e+00
   P6q SC6eq  1 4.300000e-01    2.920000e+00
   P6q SC5eq  1 4.300000e-01    2.930000e+00
   P6q SC4eq  1 4.300000e-01    2.770000e+00
   P6q SC3eq  1 4.300000e-01    2.530000e+00
   P6q SC2eq  1 4.300000e-01    2.530000e+00
   P6q SC1eq  1 4.300000e-01    2.160000e+00
   P6q SX4eq  1 4.300000e-01    3.380000e+00
   P6q SX3eq  1 4.300000e-01    3.380000e+00
   P6q SX2eq  1 4.300000e-01    2.920000e+00
   P6q SX1eq  1 4.300000e-01    2.930000e+00
   P5q  SP5q  1 4.300000e-01    4.920000e+00
   P5q  SP4q  1 4.300000e-01    4.680000e+00
   P5q  SP3q  1 4.300000e-01    4.400000e+00
   P5q  SP2q  1 4.300000e-01    4.400000e+00
   P5q  SP1q  1 4.300000e-01    4.170000e+00
   P5q  SN6q  1 4.300000e-01    3.970000e+00
   P5q  SN5q  1 4.300000e-01    3.770000e+00
   P5q  SN4q  1 4.300000e-01    3.770000e+00
   P5q  SN3q  1 4.300000e-01    3.380000e+00
   P5q  SN2q  1 4.300000e-01    2.920000e+00
   P5q  SN1q  1 4.300000e-01    2.930000e+00
   P5q  SC6q  1 4.300000e-01    2.930000e+00
   P5q  SC5q  1 4.300000e-01    2.930000e+00
   P5q  SC4q  1 4.300000e-01    2.770000e+00
   P5q  SC3q  1 4.300000e-01    2.530000e+00
   P5q  SC2q  1 4.300000e-01    2.530000e+00
   P5q  SC1q  1 4.300000e-01    2.320000e+00
   P5q  SX4q  1 4.300000e-01    3.380000e+00
   P5q  SX3q  1 4.300000e-01    2.920000e+00
   P5q  SX2q  1 4.300000e-01    2.920000e+00
   P5q  SX1q  1 4.300000e-01    2.770000e+00
   P5q SP5dq  1 4.300000e-01    4.920000e+00
   P5q SP4dq  1 4.300000e-01    4.680000e+00
   P5q SP3dq  1 4.300000e-01    4.400000e+00
   P5q SP2dq  1 4.300000e-01    4.400000e+00
   P5q SP1dq  1 4.300000e-01    4.170000e+00
   P5q SN6dq  1 4.300000e-01    3.970000e+00
   P5q SN5dq  1 4.300000e-01    3.770000e+00
   P5q SN4dq  1 4.300000e-01    3.770000e+00
   P5q SN3dq  1 4.300000e-01    3.380000e+00
   P5q SN2dq  1 4.300000e-01    2.920000e+00
   P5q SN1dq  1 4.300000e-01    2.930000e+00
   P5q SP5aq  1 4.300000e-01    4.920000e+00
   P5q SP4aq  1 4.300000e-01    4.680000e+00
   P5q SP3aq  1 4.300000e-01    4.400000e+00
   P5q SP2aq  1 4.300000e-01    4.400000e+00
   P5q SP1aq  1 4.300000e-01    4.170000e+00
   P5q SN6aq  1 4.300000e-01    3.970000e+00
   P5q SN5aq  1 4.300000e-01    3.770000e+00
   P5q SN4aq  1 4.300000e-01    3.770000e+00
   P5q SN3aq  1 4.300000e-01    3.380000e+00
   P5q SN2aq  1 4.300000e-01    2.920000e+00
   P5q SN1aq  1 4.300000e-01    2.930000e+00
   P5q SC6vq  1 4.300000e-01    2.920000e+00
   P5q SC5vq  1 4.300000e-01    2.920000e+00
   P5q SC4vq  1 4.300000e-01    2.930000e+00
   P5q SC3vq  1 4.300000e-01    2.770000e+00
   P5q SC2vq  1 4.300000e-01    2.770000e+00
   P5q SC1vq  1 4.300000e-01    2.530000e+00
   P5q SX4vq  1 4.300000e-01    3.590000e+00
   P5q SX3vq  1 4.300000e-01    3.380000e+00
   P5q SX2vq  1 4.300000e-01    3.380000e+00
   P5q SX1vq  1 4.300000e-01    2.930000e+00
   P5q SC6eq  1 4.300000e-01    2.920000e+00
   P5q SC5eq  1 4.300000e-01    2.920000e+00
   P5q SC4eq  1 4.300000e-01    2.930000e+00
   P5q SC3eq  1 4.300000e-01    2.770000e+00
   P5q SC2eq  1 4.300000e-01    2.770000e+00
   P5q SC1eq  1 4.300000e-01    2.530000e+00
   P5q SX4eq  1 4.300000e-01    3.590000e+00
   P5q SX3eq  1 4.300000e-01    3.380000e+00
   P5q SX2eq  1 4.300000e-01    3.380000e+00
   P5q SX1eq  1 4.300000e-01    2.930000e+00
   P4q  SP4q  1 4.300000e-01    4.680000e+00
   P4q  SP3q  1 4.300000e-01    4.400000e+00
   P4q  SP2q  1 4.300000e-01    4.400000e+00
   P4q  SP1q  1 4.300000e-01    4.170000e+00
   P4q  SN6q  1 4.300000e-01    3.970000e+00
   P4q  SN5q  1 4.300000e-01    3.770000e+00
   P4q  SN4q  1 4.300000e-01    3.770000e+00
   P4q  SN3q  1 4.300000e-01    3.590000e+00
   P4q  SN2q  1 4.300000e-01    3.380000e+00
   P4q  SN1q  1 4.300000e-01    2.920000e+00
   P4q  SC6q  1 4.300000e-01    2.920000e+00
   P4q  SC5q  1 4.300000e-01    2.930000e+00
   P4q  SC4q  1 4.300000e-01    2.770000e+00
   P4q  SC3q  1 4.300000e-01    2.530000e+00
   P4q  SC2q  1 4.300000e-01    2.530000e+00
   P4q  SC1q  1 4.300000e-01    2.320000e+00
   P4q  SX4q  1 4.300000e-01    3.380000e+00
   P4q  SX3q  1 4.300000e-01    2.920000e+00
   P4q  SX2q  1 4.300000e-01    2.920000e+00
   P4q  SX1q  1 4.300000e-01    2.930000e+00
   P4q SP4dq  1 4.300000e-01    4.680000e+00
   P4q SP3dq  1 4.300000e-01    4.400000e+00
   P4q SP2dq  1 4.300000e-01    4.400000e+00
   P4q SP1dq  1 4.300000e-01    4.170000e+00
   P4q SN6dq  1 4.300000e-01    3.970000e+00
   P4q SN5dq  1 4.300000e-01    3.770000e+00
   P4q SN4dq  1 4.300000e-01    3.770000e+00
   P4q SN3dq  1 4.300000e-01    3.590000e+00
   P4q SN2dq  1 4.300000e-01    3.380000e+00
   P4q SN1dq  1 4.300000e-01    2.920000e+00
   P4q SP4aq  1 4.300000e-01    4.680000e+00
   P4q SP3aq  1 4.300000e-01    4.400000e+00
   P4q SP2aq  1 4.300000e-01    4.400000e+00
   P4q SP1aq  1 4.300000e-01    4.170000e+00
   P4q SN6aq  1 4.300000e-01    3.970000e+00
   P4q SN5aq  1 4.300000e-01    3.770000e+00
   P4q SN4aq  1 4.300000e-01    3.770000e+00
   P4q SN3aq  1 4.300000e-01    3.590000e+00
   P4q SN2aq  1 4.300000e-01    3.380000e+00
   P4q SN1aq  1 4.300000e-01    2.920000e+00
   P4q SC6vq  1 4.300000e-01    3.380000e+00
   P4q SC5vq  1 4.300000e-01    2.920000e+00
   P4q SC4vq  1 4.300000e-01    2.930000e+00
   P4q SC3vq  1 4.300000e-01    2.770000e+00
   P4q SC2vq  1 4.300000e-01    2.770000e+00
   P4q SC1vq  1 4.300000e-01    2.530000e+00
   P4q SX4vq  1 4.300000e-01    3.590000e+00
   P4q SX3vq  1 4.300000e-01    3.380000e+00
   P4q SX2vq  1 4.300000e-01    3.380000e+00
   P4q SX1vq  1 4.300000e-01    2.920000e+00
   P4q SC6eq  1 4.300000e-01    3.380000e+00
   P4q SC5eq  1 4.300000e-01    2.920000e+00
   P4q SC4eq  1 4.300000e-01    2.930000e+00
   P4q SC3eq  1 4.300000e-01    2.770000e+00
   P4q SC2eq  1 4.300000e-01    2.770000e+00
   P4q SC1eq  1 4.300000e-01    2.530000e+00
   P4q SX4eq  1 4.300000e-01    3.590000e+00
   P4q SX3eq  1 4.300000e-01    3.380000e+00
   P4q SX2eq  1 4.300000e-01    3.380000e+00
   P4q SX1eq  1 4.300000e-01    2.920000e+00
   P3q  SP3q  1 4.300000e-01    4.400000e+00
   P3q  SP2q  1 4.300000e-01    4.400000e+00
   P3q  SP1q  1 4.300000e-01    4.170000e+00
   P3q  SN6q  1 4.300000e-01    3.970000e+00
   P3q  SN5q  1 4.300000e-01    3.770000e+00
   P3q  SN4q  1 4.300000e-01    3.770000e+00
   P3q  SN3q  1 4.300000e-01    3.590000e+00
   P3q  SN2q  1 4.300000e-01    3.590000e+00
   P3q  SN1q  1 4.300000e-01    3.380000e+00
   P3q  SC6q  1 4.300000e-01    3.380000e+00
   P3q  SC5q  1 4.300000e-01    2.920000e+00
   P3q  SC4q  1 4.300000e-01    2.930000e+00
   P3q  SC3q  1 4.300000e-01    2.530000e+00
   P3q  SC2q  1 4.300000e-01    2.530000e+00
   P3q  SC1q  1 4.300000e-01    2.320000e+00
   P3q  SX4q  1 4.300000e-01    3.380000e+00
   P3q  SX3q  1 4.300000e-01    3.380000e+00
   P3q  SX2q  1 4.300000e-01    2.920000e+00
   P3q  SX1q  1 4.300000e-01    2.930000e+00
   P3q SP3dq  1 4.300000e-01    4.400000e+00
   P3q SP2dq  1 4.300000e-01    4.400000e+00
   P3q SP1dq  1 4.300000e-01    4.170000e+00
   P3q SN6dq  1 4.300000e-01    3.970000e+00
   P3q SN5dq  1 4.300000e-01    3.770000e+00
   P3q SN4dq  1 4.300000e-01    3.770000e+00
   P3q SN3dq  1 4.300000e-01    3.590000e+00
   P3q SN2dq  1 4.300000e-01    3.590000e+00
   P3q SN1dq  1 4.300000e-01    3.380000e+00
   P3q SP3aq  1 4.300000e-01    4.400000e+00
   P3q SP2aq  1 4.300000e-01    4.400000e+00
   P3q SP1aq  1 4.300000e-01    4.170000e+00
   P3q SN6aq  1 4.300000e-01    3.970000e+00
   P3q SN5aq  1 4.300000e-01    3.770000e+00
   P3q SN4aq  1 4.300000e-01    3.770000e+00
   P3q SN3aq  1 4.300000e-01    3.590000e+00
   P3q SN2aq  1 4.300000e-01    3.590000e+00
   P3q SN1aq  1 4.300000e-01    3.380000e+00
   P3q SC6vq  1 4.300000e-01    3.590000e+00
   P3q SC5vq  1 4.300000e-01    3.380000e+00
   P3q SC4vq  1 4.300000e-01    2.920000e+00
   P3q SC3vq  1 4.300000e-01    2.770000e+00
   P3q SC2vq  1 4.300000e-01    2.770000e+00
   P3q SC1vq  1 4.300000e-01    2.530000e+00
   P3q SX4vq  1 4.300000e-01    3.590000e+00
   P3q SX3vq  1 4.300000e-01    3.590000e+00
   P3q SX2vq  1 4.300000e-01    3.380000e+00
   P3q SX1vq  1 4.300000e-01    2.920000e+00
   P3q SC6eq  1 4.300000e-01    3.590000e+00
   P3q SC5eq  1 4.300000e-01    3.380000e+00
   P3q SC4eq  1 4.300000e-01    2.920000e+00
   P3q SC3eq  1 4.300000e-01    2.770000e+00
   P3q SC2eq  1 4.300000e-01    2.770000e+00
   P3q SC1eq  1 4.300000e-01    2.530000e+00
   P3q SX4eq  1 4.300000e-01    3.590000e+00
   P3q SX3eq  1 4.300000e-01    3.590000e+00
   P3q SX2eq  1 4.300000e-01    3.380000e+00
   P3q SX1eq  1 4.300000e-01    2.920000e+00
   P2q  SP2q  1 4.300000e-01    4.400000e+00
   P2q  SP1q  1 4.300000e-01    4.170000e+00
   P2q  SN6q  1 4.300000e-01    4.170000e+00
   P2q  SN5q  1 4.300000e-01    3.970000e+00
   P2q  SN4q  1 4.300000e-01    3.770000e+00
   P2q  SN3q  1 4.300000e-01    3.590000e+00
   P2q  SN2q  1 4.300000e-01    3.590000e+00
   P2q  SN1q  1 4.300000e-01    3.590000e+00
   P2q  SC6q  1 4.300000e-01    3.380000e+00
   P2q  SC5q  1 4.300000e-01    2.920000e+00
   P2q  SC4q  1 4.300000e-01    2.930000e+00
   P2q  SC3q  1 4.300000e-01    2.770000e+00
   P2q  SC2q  1 4.300000e-01    2.770000e+00
   P2q  SC1q  1 4.300000e-01    2.530000e+00
   P2q  SX4q  1 4.300000e-01    3.380000e+00
   P2q  SX3q  1 4.300000e-01    3.380000e+00
   P2q  SX2q  1 4.300000e-01    2.920000e+00
   P2q  SX1q  1 4.300000e-01    2.930000e+00
   P2q SP2dq  1 4.300000e-01    4.400000e+00
   P2q SP1dq  1 4.300000e-01    4.170000e+00
   P2q SN6dq  1 4.300000e-01    4.170000e+00
   P2q SN5dq  1 4.300000e-01    3.970000e+00
   P2q SN4dq  1 4.300000e-01    3.770000e+00
   P2q SN3dq  1 4.300000e-01    3.590000e+00
   P2q SN2dq  1 4.300000e-01    3.590000e+00
   P2q SN1dq  1 4.300000e-01    3.590000e+00
   P2q SP2aq  1 4.300000e-01    4.400000e+00
   P2q SP1aq  1 4.300000e-01    4.170000e+00
   P2q SN6aq  1 4.300000e-01    4.170000e+00
   P2q SN5aq  1 4.300000e-01    3.970000e+00
   P2q SN4aq  1 4.300000e-01    3.770000e+00
   P2q SN3aq  1 4.300000e-01    3.590000e+00
   P2q SN2aq  1 4.300000e-01    3.590000e+00
   P2q SN1aq  1 4.300000e-01    3.590000e+00
   P2q SC6vq  1 4.300000e-01    3.590000e+00
   P2q SC5vq  1 4.300000e-01    3.380000e+00
   P2q SC4vq  1 4.300000e-01    2.920000e+00
   P2q SC3vq  1 4.300000e-01    2.930000e+00
   P2q SC2vq  1 4.300000e-01    2.930000e+00
   P2q SC1vq  1 4.300000e-01    2.770000e+00
   P2q SX4vq  1 4.300000e-01    3.590000e+00
   P2q SX3vq  1 4.300000e-01    3.590000e+00
   P2q SX2vq  1 4.300000e-01    3.380000e+00
   P2q SX1vq  1 4.300000e-01    2.920000e+00
   P2q SC6eq  1 4.300000e-01    3.590000e+00
   P2q SC5eq  1 4.300000e-01    3.380000e+00
   P2q SC4eq  1 4.300000e-01    2.920000e+00
   P2q SC3eq  1 4.300000e-01    2.930000e+00
   P2q SC2eq  1 4.300000e-01    2.930000e+00
   P2q SC1eq  1 4.300000e-01    2.770000e+00
   P2q SX4eq  1 4.300000e-01    3.590000e+00
   P2q SX3eq  1 4.300000e-01    3.590000e+00
   P2q SX2eq  1 4.300000e-01    3.380000e+00
   P2q SX1eq  1 4.300000e-01    2.920000e+00
   P1q  SP1q  1 4.300000e-01    4.170000e+00
   P1q  SN6q  1 4.300000e-01    4.170000e+00
   P1q  SN5q  1 4.300000e-01    3.970000e+00
   P1q  SN4q  1 4.300000e-01    3.970000e+00
   P1q  SN3q  1 4.300000e-01    3.590000e+00
   P1q  SN2q  1 4.300000e-01    3.590000e+00
   P1q  SN1q  1 4.300000e-01    3.590000e+00
   P1q  SC6q  1 4.300000e-01    3.380000e+00
   P1q  SC5q  1 4.300000e-01    2.920000e+00
   P1q  SC4q  1 4.300000e-01    2.930000e+00
   P1q  SC3q  1 4.300000e-01    2.770000e+00
   P1q  SC2q  1 4.300000e-01    2.770000e+00
   P1q  SC1q  1 4.300000e-01    2.530000e+00
   P1q  SX4q  1 4.300000e-01    3.380000e+00
   P1q  SX3q  1 4.300000e-01    3.380000e+00
   P1q  SX2q  1 4.300000e-01    2.920000e+00
   P1q  SX1q  1 4.300000e-01    2.930000e+00
   P1q SP1dq  1 4.300000e-01    4.170000e+00
   P1q SN6dq  1 4.300000e-01    4.170000e+00
   P1q SN5dq  1 4.300000e-01    3.970000e+00
   P1q SN4dq  1 4.300000e-01    3.970000e+00
   P1q SN3dq  1 4.300000e-01    3.590000e+00
   P1q SN2dq  1 4.300000e-01    3.590000e+00
   P1q SN1dq  1 4.300000e-01    3.590000e+00
   P1q SP1aq  1 4.300000e-01    4.170000e+00
   P1q SN6aq  1 4.300000e-01    4.170000e+00
   P1q SN5aq  1 4.300000e-01    3.970000e+00
   P1q SN4aq  1 4.300000e-01    3.970000e+00
   P1q SN3aq  1 4.300000e-01    3.590000e+00
   P1q SN2aq  1 4.300000e-01    3.590000e+00
   P1q SN1aq  1 4.300000e-01    3.590000e+00
   P1q SC6vq  1 4.300000e-01    3.590000e+00
   P1q SC5vq  1 4.300000e-01    3.380000e+00
   P1q SC4vq  1 4.300000e-01    2.920000e+00
   P1q SC3vq  1 4.300000e-01    2.930000e+00
   P1q SC2vq  1 4.300000e-01    2.930000e+00
   P1q SC1vq  1 4.300000e-01    2.770000e+00
   P1q SX4vq  1 4.300000e-01    3.590000e+00
   P1q SX3vq  1 4.300000e-01    3.590000e+00
   P1q SX2vq  1 4.300000e-01    3.380000e+00
   P1q SX1vq  1 4.300000e-01    2.920000e+00
   P1q SC6eq  1 4.300000e-01    3.590000e+00
   P1q SC5eq  1 4.300000e-01    3.380000e+00
   P1q SC4eq  1 4.300000e-01    2.920000e+00
   P1q SC3eq  1 4.300000e-01    2.930000e+00
   P1q SC2eq  1 4.300000e-01    2.930000e+00
   P1q SC1eq  1 4.300000e-01    2.770000e+00
   P1q SX4eq  1 4.300000e-01    3.590000e+00
   P1q SX3eq  1 4.300000e-01    3.590000e+00
   P1q SX2eq  1 4.300000e-01    3.380000e+00
   P1q SX1eq  1 4.300000e-01    2.920000e+00
   N6q  SN6q  1 4.300000e-01    4.170000e+00
   N6q  SN5q  1 4.300000e-01    4.170000e+00
   N6q  SN4q  1 4.300000e-01    4.170000e+00
   N6q  SN3q  1 4.300000e-01    3.770000e+00
   N6q  SN2q  1 4.300000e-01    3.590000e+00
   N6q  SN1q  1 4.300000e-01    3.590000e+00
   N6q  SC6q  1 4.300000e-01    3.590000e+00
   N6q  SC5q  1 4.300000e-01    3.380000e+00
   N6q  SC4q  1 4.300000e-01    2.920000e+00
   N6q  SC3q  1 4.300000e-01    2.930000e+00
   N6q  SC2q  1 4.300000e-01    2.930000e+00
   N6q  SC1q  1 4.300000e-01    2.770000e+00
   N6q  SX4q  1 4.300000e-01    3.590000e+00
   N6q  SX3q  1 4.300000e-01    3.380000e+00
   N6q  SX2q  1 4.300000e-01    2.920000e+00
   N6q  SX1q  1 4.300000e-01    2.930000e+00
   N6q SN6dq  1 4.300000e-01    4.170000e+00
   N6q SN5dq  1 4.300000e-01    4.170000e+00
   N6q SN4dq  1 4.300000e-01    4.170000e+00
   N6q SN3dq  1 4.300000e-01    3.770000e+00
   N6q SN2dq  1 4.300000e-01    3.590000e+00
   N6q SN1dq  1 4.300000e-01    3.590000e+00
   N6q SN6aq  1 4.300000e-01    4.170000e+00
   N6q SN5aq  1 4.300000e-01    4.170000e+00
   N6q SN4aq  1 4.300000e-01    4.170000e+00
   N6q SN3aq  1 4.300000e-01    3.770000e+00
   N6q SN2aq  1 4.300000e-01    3.590000e+00
   N6q SN1aq  1 4.300000e-01    3.590000e+00
   N6q SC6vq  1 4.300000e-01    3.770000e+00
   N6q SC5vq  1 4.300000e-01    3.590000e+00
   N6q SC4vq  1 4.300000e-01    3.380000e+00
   N6q SC3vq  1 4.300000e-01    2.920000e+00
   N6q SC2vq  1 4.300000e-01    2.920000e+00
   N6q SC1vq  1 4.300000e-01    2.930000e+00
   N6q SX4vq  1 4.300000e-01    3.770000e+00
   N6q SX3vq  1 4.300000e-01    3.590000e+00
   N6q SX2vq  1 4.300000e-01    3.380000e+00
   N6q SX1vq  1 4.300000e-01    2.920000e+00
   N6q SC6eq  1 4.300000e-01    3.770000e+00
   N6q SC5eq  1 4.300000e-01    3.590000e+00
   N6q SC4eq  1 4.300000e-01    3.380000e+00
   N6q SC3eq  1 4.300000e-01    2.920000e+00
   N6q SC2eq  1 4.300000e-01    2.920000e+00
   N6q SC1eq  1 4.300000e-01    2.930000e+00
   N6q SX4eq  1 4.300000e-01    3.770000e+00
   N6q SX3eq  1 4.300000e-01    3.590000e+00
   N6q SX2eq  1 4.300000e-01    3.380000e+00
   N6q SX1eq  1 4.300000e-01    2.920000e+00
   N5q  SN5q  1 4.300000e-01    3.970000e+00
   N5q  SN4q  1 4.300000e-01    3.970000e+00
   N5q  SN3q  1 4.300000e-01    3.770000e+00
   N5q  SN2q  1 4.300000e-01    3.770000e+00
   N5q  SN1q  1 4.300000e-01    3.590000e+00
   N5q  SC6q  1 4.300000e-01    3.590000e+00
   N5q  SC5q  1 4.300000e-01    3.380000e+00
   N5q  SC4q  1 4.300000e-01    2.920000e+00
   N5q  SC3q  1 4.300000e-01    2.920000e+00
   N5q  SC2q  1 4.300000e-01    2.930000e+00
   N5q  SC1q  1 4.300000e-01    2.770000e+00
   N5q  SX4q  1 4.300000e-01    3.770000e+00
   N5q  SX3q  1 4.300000e-01    3.590000e+00
   N5q  SX2q  1 4.300000e-01    3.380000e+00
   N5q  SX1q  1 4.300000e-01    2.920000e+00
   N5q SN5dq  1 4.300000e-01    3.970000e+00
   N5q SN4dq  1 4.300000e-01    3.970000e+00
   N5q SN3dq  1 4.300000e-01    3.770000e+00
   N5q SN2dq  1 4.300000e-01    3.770000e+00
   N5q SN1dq  1 4.300000e-01    3.590000e+00
   N5q SN5aq  1 4.300000e-01    3.970000e+00
   N5q SN4aq  1 4.300000e-01    3.970000e+00
   N5q SN3aq  1 4.300000e-01    3.770000e+00
   N5q SN2aq  1 4.300000e-01    3.770000e+00
   N5q SN1aq  1 4.300000e-01    3.590000e+00
   N5q SC6vq  1 4.300000e-01    3.770000e+00
   N5q SC5vq  1 4.300000e-01    3.590000e+00
   N5q SC4vq  1 4.300000e-01    3.380000e+00
   N5q SC3vq  1 4.300000e-01    3.380000e+00
   N5q SC2vq  1 4.300000e-01    2.920000e+00
   N5q SC1vq  1 4.300000e-01    2.930000e+00
   N5q SX4vq  1 4.300000e-01    3.970000e+00
   N5q SX3vq  1 4.300000e-01    3.770000e+00
   N5q SX2vq  1 4.300000e-01    3.590000e+00
   N5q SX1vq  1 4.300000e-01    3.380000e+00
   N5q SC6eq  1 4.300000e-01    3.770000e+00
   N5q SC5eq  1 4.300000e-01    3.590000e+00
   N5q SC4eq  1 4.300000e-01    3.380000e+00
   N5q SC3eq  1 4.300000e-01    3.380000e+00
   N5q SC2eq  1 4.300000e-01    2.920000e+00
   N5q SC1eq  1 4.300000e-01    2.930000e+00
   N5q SX4eq  1 4.300000e-01    3.970000e+00
   N5q SX3eq  1 4.300000e-01    3.770000e+00
   N5q SX2eq  1 4.300000e-01    3.590000e+00
   N5q SX1eq  1 4.300000e-01    3.380000e+00
   N4q  SN4q  1 4.300000e-01    3.970000e+00
   N4q  SN3q  1 4.300000e-01    3.770000e+00
   N4q  SN2q  1 4.300000e-01    3.770000e+00
   N4q  SN1q  1 4.300000e-01    3.590000e+00
   N4q  SC6q  1 4.300000e-01    3.590000e+00
   N4q  SC5q  1 4.300000e-01    3.380000e+00
   N4q  SC4q  1 4.300000e-01    3.380000e+00
   N4q  SC3q  1 4.300000e-01    2.920000e+00
   N4q  SC2q  1 4.300000e-01    2.930000e+00
   N4q  SC1q  1 4.300000e-01    2.770000e+00
   N4q  SX4q  1 4.300000e-01    3.970000e+00
   N4q  SX3q  1 4.300000e-01    3.770000e+00
   N4q  SX2q  1 4.300000e-01    3.380000e+00
   N4q  SX1q  1 4.300000e-01    2.920000e+00
   N4q SN4dq  1 4.300000e-01    3.970000e+00
   N4q SN3dq  1 4.300000e-01    3.770000e+00
   N4q SN2dq  1 4.300000e-01    3.770000e+00
   N4q SN1dq  1 4.300000e-01    3.590000e+00
   N4q SN4aq  1 4.300000e-01    3.970000e+00
   N4q SN3aq  1 4.300000e-01    3.770000e+00
   N4q SN2aq  1 4.300000e-01    3.770000e+00
   N4q SN1aq  1 4.300000e-01    3.590000e+00
   N4q SC6vq  1 4.300000e-01    3.770000e+00
   N4q SC5vq  1 4.300000e-01    3.590000e+00
   N4q SC4vq  1 4.300000e-01    3.590000e+00
   N4q SC3vq  1 4.300000e-01    3.380000e+00
   N4q SC2vq  1 4.300000e-01    2.920000e+00
   N4q SC1vq  1 4.300000e-01    2.930000e+00
   N4q SX4vq  1 4.300000e-01    4.170000e+00
   N4q SX3vq  1 4.300000e-01    3.970000e+00
   N4q SX2vq  1 4.300000e-01    3.590000e+00
   N4q SX1vq  1 4.300000e-01    3.380000e+00
   N4q SC6eq  1 4.300000e-01    3.770000e+00
   N4q SC5eq  1 4.300000e-01    3.590000e+00
   N4q SC4eq  1 4.300000e-01    3.590000e+00
   N4q SC3eq  1 4.300000e-01    3.380000e+00
   N4q SC2eq  1 4.300000e-01    2.920000e+00
   N4q SC1eq  1 4.300000e-01    2.930000e+00
   N4q SX4eq  1 4.300000e-01    4.170000e+00
   N4q SX3eq  1 4.300000e-01    3.970000e+00
   N4q SX2eq  1 4.300000e-01    3.590000e+00
   N4q SX1eq  1 4.300000e-01    3.380000e+00
   N3q  SN3q  1 4.300000e-01    3.770000e+00
   N3q  SN2q  1 4.300000e-01    3.770000e+00
   N3q  SN1q  1 4.300000e-01    3.590000e+00
   N3q  SC6q  1 4.300000e-01    3.590000e+00
   N3q  SC5q  1 4.300000e-01    3.380000e+00
   N3q  SC4q  1 4.300000e-01    3.380000e+00
   N3q  SC3q  1 4.300000e-01    2.920000e+00
   N3q  SC2q  1 4.300000e-01    2.920000e+00
   N3q  SC1q  1 4.300000e-01    2.930000e+00
   N3q  SX4q  1 4.300000e-01    3.770000e+00
   N3q  SX3q  1 4.300000e-01    3.590000e+00
   N3q  SX2q  1 4.300000e-01    3.380000e+00
   N3q  SX1q  1 4.300000e-01    3.380000e+00
   N3q SN3dq  1 4.300000e-01    3.770000e+00
   N3q SN2dq  1 4.300000e-01    3.770000e+00
   N3q SN1dq  1 4.300000e-01    3.590000e+00
   N3q SN3aq  1 4.300000e-01    3.770000e+00
   N3q SN2aq  1 4.300000e-01    3.770000e+00
   N3q SN1aq  1 4.300000e-01    3.590000e+00
   N3q SC6vq  1 4.300000e-01    3.770000e+00
   N3q SC5vq  1 4.300000e-01    3.590000e+00
   N3q SC4vq  1 4.300000e-01    3.590000e+00
   N3q SC3vq  1 4.300000e-01    3.380000e+00
   N3q SC2vq  1 4.300000e-01    3.380000e+00
   N3q SC1vq  1 4.300000e-01    2.920000e+00
   N3q SX4vq  1 4.300000e-01    3.970000e+00
   N3q SX3vq  1 4.300000e-01    3.770000e+00
   N3q SX2vq  1 4.300000e-01    3.590000e+00
   N3q SX1vq  1 4.300000e-01    3.590000e+00
   N3q SC6eq  1 4.300000e-01    3.770000e+00
   N3q SC5eq  1 4.300000e-01    3.590000e+00
   N3q SC4eq  1 4.300000e-01    3.590000e+00
   N3q SC3eq  1 4.300000e-01    3.380000e+00
   N3q SC2eq  1 4.300000e-01    3.380000e+00
   N3q SC1eq  1 4.300000e-01    2.920000e+00
   N3q SX4eq  1 4.300000e-01    3.970000e+00
   N3q SX3eq  1 4.300000e-01    3.770000e+00
   N3q SX2eq  1 4.300000e-01    3.590000e+00
   N3q SX1eq  1 4.300000e-01    3.590000e+00
   N2q  SN2q  1 4.300000e-01    3.770000e+00
   N2q  SN1q  1 4.300000e-01    3.590000e+00
   N2q  SC6q  1 4.300000e-01    3.590000e+00
   N2q  SC5q  1 4.300000e-01    3.380000e+00
   N2q  SC4q  1 4.300000e-01    3.380000e+00
   N2q  SC3q  1 4.300000e-01    3.380000e+00
   N2q  SC2q  1 4.300000e-01    2.920000e+00
   N2q  SC1q  1 4.300000e-01    2.930000e+00
   N2q  SX4q  1 4.300000e-01    3.770000e+00
   N2q  SX3q  1 4.300000e-01    3.590000e+00
   N2q  SX2q  1 4.300000e-01    3.380000e+00
   N2q  SX1q  1 4.300000e-01    3.380000e+00
   N2q SN2dq  1 4.300000e-01    3.770000e+00
   N2q SN1dq  1 4.300000e-01    3.590000e+00
   N2q SN2aq  1 4.300000e-01    3.770000e+00
   N2q SN1aq  1 4.300000e-01    3.590000e+00
   N2q SC6vq  1 4.300000e-01    3.770000e+00
   N2q SC5vq  1 4.300000e-01    3.590000e+00
   N2q SC4vq  1 4.300000e-01    3.590000e+00
   N2q SC3vq  1 4.300000e-01    3.590000e+00
   N2q SC2vq  1 4.300000e-01    3.380000e+00
   N2q SC1vq  1 4.300000e-01    2.920000e+00
   N2q SX4vq  1 4.300000e-01    3.970000e+00
   N2q SX3vq  1 4.300000e-01    3.770000e+00
   N2q SX2vq  1 4.300000e-01    3.590000e+00
   N2q SX1vq  1 4.300000e-01    3.590000e+00
   N2q SC6eq  1 4.300000e-01    3.770000e+00
   N2q SC5eq  1 4.300000e-01    3.590000e+00
   N2q SC4eq  1 4.300000e-01    3.590000e+00
   N2q SC3eq  1 4.300000e-01    3.590000e+00
   N2q SC2eq  1 4.300000e-01    3.380000e+00
   N2q SC1eq  1 4.300000e-01    2.920000e+00
   N2q SX4eq  1 4.300000e-01    3.970000e+00
   N2q SX3eq  1 4.300000e-01    3.770000e+00
   N2q SX2eq  1 4.300000e-01    3.590000e+00
   N2q SX1eq  1 4.300000e-01    3.590000e+00
   N1q  SN1q  1 4.300000e-01    3.770000e+00
   N1q  SC6q  1 4.300000e-01    3.770000e+00
   N1q  SC5q  1 4.300000e-01    3.590000e+00
   N1q  SC4q  1 4.300000e-01    3.590000e+00
   N1q  SC3q  1 4.300000e-01    3.380000e+00
   N1q  SC2q  1 4.300000e-01    2.920000e+00
   N1q  SC1q  1 4.300000e-01    2.930000e+00
   N1q  SX4q  1 4.300000e-01    3.590000e+00
   N1q  SX3q  1 4.300000e-01    3.590000e+00
   N1q  SX2q  1 4.300000e-01    3.380000e+00
   N1q  SX1q  1 4.300000e-01    3.380000e+00
   N1q SN1dq  1 4.300000e-01    3.770000e+00
   N1q SN1aq  1 4.300000e-01    3.770000e+00
   N1q SC6vq  1 4.300000e-01    3.970000e+00
   N1q SC5vq  1 4.300000e-01    3.770000e+00
   N1q SC4vq  1 4.300000e-01    3.770000e+00
   N1q SC3vq  1 4.300000e-01    3.590000e+00
   N1q SC2vq  1 4.300000e-01    3.380000e+00
   N1q SC1vq  1 4.300000e-01    2.920000e+00
   N1q SX4vq  1 4.300000e-01    3.770000e+00
   N1q SX3vq  1 4.300000e-01    3.770000e+00
   N1q SX2vq  1 4.300000e-01    3.590000e+00
   N1q SX1vq  1 4.300000e-01    3.590000e+00
   N1q SC6eq  1 4.300000e-01    3.970000e+00
   N1q SC5eq  1 4.300000e-01    3.770000e+00
   N1q SC4eq  1 4.300000e-01    3.770000e+00
   N1q SC3eq  1 4.300000e-01    3.590000e+00
   N1q SC2eq  1 4.300000e-01    3.380000e+00
   N1q SC1eq  1 4.300000e-01    2.920000e+00
   N1q SX4eq  1 4.300000e-01    3.770000e+00
   N1q SX3eq  1 4.300000e-01    3.770000e+00
   N1q SX2eq  1 4.300000e-01    3.590000e+00
   N1q SX1eq  1 4.300000e-01    3.590000e+00
   C6q  SC6q  1 4.300000e-01    3.770000e+00
   C6q  SC5q  1 4.300000e-01    3.590000e+00
   C6q  SC4q  1 4.300000e-01    3.590000e+00
   C6q  SC3q  1 4.300000e-01    3.380000e+00
   C6q  SC2q  1 4.300000e-01    2.920000e+00
   C6q  SC1q  1 4.300000e-01    2.930000e+00
   C6q  SX4q  1 4.300000e-01    3.590000e+00
   C6q  SX3q  1 4.300000e-01    3.590000e+00
   C6q  SX2q  1 4.300000e-01    3.590000e+00
   C6q  SX1q  1 4.300000e-01    3.590000e+00
   C6q SC6vq  1 4.300000e-01    3.970000e+00
   C6q SC5vq  1 4.300000e-01    3.770000e+00
   C6q SC4vq  1 4.300000e-01    3.770000e+00
   C6q SC3vq  1 4.300000e-01    3.590000e+00
   C6q SC2vq  1 4.300000e-01    3.380000e+00
   C6q SC1vq  1 4.300000e-01    2.920000e+00
   C6q SX4vq  1 4.300000e-01    3.770000e+00
   C6q SX3vq  1 4.300000e-01    3.770000e+00
   C6q SX2vq  1 4.300000e-01    3.770000e+00
   C6q SX1vq  1 4.300000e-01    3.770000e+00
   C6q SC6eq  1 4.300000e-01    3.970000e+00
   C6q SC5eq  1 4.300000e-01    3.770000e+00
   C6q SC4eq  1 4.300000e-01    3.770000e+00
   C6q SC3eq  1 4.300000e-01    3.590000e+00
   C6q SC2eq  1 4.300000e-01    3.380000e+00
   C6q SC1eq  1 4.300000e-01    2.920000e+00
   C6q SX4eq  1 4.300000e-01    3.770000e+00
   C6q SX3eq  1 4.300000e-01    3.770000e+00
   C6q SX2eq  1 4.300000e-01    3.770000e+00
   C6q SX1eq  1 4.300000e-01    3.770000e+00
   C5q  SC5q  1 4.300000e-01    3.590000e+00
   C5q  SC4q  1 4.300000e-01    3.590000e+00
   C5q  SC3q  1 4.300000e-01    3.380000e+00
   C5q  SC2q  1 4.300000e-01    2.920000e+00
   C5q  SC1q  1 4.300000e-01    2.920000e+00
   C5q  SX4q  1 4.300000e-01    3.380000e+00
   C5q  SX3q  1 4.300000e-01    3.380000e+00
   C5q  SX2q  1 4.300000e-01    3.380000e+00
   C5q  SX1q  1 4.300000e-01    3.590000e+00
   C5q SC5vq  1 4.300000e-01    3.770000e+00
   C5q SC4vq  1 4.300000e-01    3.770000e+00
   C5q SC3vq  1 4.300000e-01    3.590000e+00
   C5q SC2vq  1 4.300000e-01    3.380000e+00
   C5q SC1vq  1 4.300000e-01    3.380000e+00
   C5q SX4vq  1 4.300000e-01    3.590000e+00
   C5q SX3vq  1 4.300000e-01    3.590000e+00
   C5q SX2vq  1 4.300000e-01    3.590000e+00
   C5q SX1vq  1 4.300000e-01    3.770000e+00
   C5q SC5eq  1 4.300000e-01    3.770000e+00
   C5q SC4eq  1 4.300000e-01    3.770000e+00
   C5q SC3eq  1 4.300000e-01    3.590000e+00
   C5q SC2eq  1 4.300000e-01    3.380000e+00
   C5q SC1eq  1 4.300000e-01    3.380000e+00
   C5q SX4eq  1 4.300000e-01    3.590000e+00
   C5q SX3eq  1 4.300000e-01    3.590000e+00
   C5q SX2eq  1 4.300000e-01    3.590000e+00
   C5q SX1eq  1 4.300000e-01    3.770000e+00
   C4q  SC4q  1 4.300000e-01    3.590000e+00
   C4q  SC3q  1 4.300000e-01    3.590000e+00
   C4q  SC2q  1 4.300000e-01    3.380000e+00
   C4q  SC1q  1 4.300000e-01    2.920000e+00
   C4q  SX4q  1 4.300000e-01    3.380000e+00
   C4q  SX3q  1 4.300000e-01    3.380000e+00
   C4q  SX2q  1 4.300000e-01    3.380000e+00
   C4q  SX1q  1 4.300000e-01    3.590000e+00
   C4q SC4vq  1 4.300000e-01    3.770000e+00
   C4q SC3vq  1 4.300000e-01    3.770000e+00
   C4q SC2vq  1 4.300000e-01    3.590000e+00
   C4q SC1vq  1 4.300000e-01    3.380000e+00
   C4q SX4vq  1 4.300000e-01    3.590000e+00
   C4q SX3vq  1 4.300000e-01    3.590000e+00
   C4q SX2vq  1 4.300000e-01    3.590000e+00
   C4q SX1vq  1 4.300000e-01    3.770000e+00
   C4q SC4eq  1 4.300000e-01    3.770000e+00
   C4q SC3eq  1 4.300000e-01    3.770000e+00
   C4q SC2eq  1 4.300000e-01    3.590000e+00
   C4q SC1eq  1 4.300000e-01    3.380000e+00
   C4q SX4eq  1 4.300000e-01    3.590000e+00
   C4q SX3eq  1 4.300000e-01    3.590000e+00
   C4q SX2eq  1 4.300000e-01    3.590000e+00
   C4q SX1eq  1 4.300000e-01    3.770000e+00
   C3q  SC3q  1 4.300000e-01    3.590000e+00
   C3q  SC2q  1 4.300000e-01    3.590000e+00
   C3q  SC1q  1 4.300000e-01    3.590000e+00
   C3q  SX4q  1 4.300000e-01    3.380000e+00
   C3q  SX3q  1 4.300000e-01    3.380000e+00
   C3q  SX2q  1 4.300000e-01    3.380000e+00
   C3q  SX1q  1 4.300000e-01    3.590000e+00
   C3q SC3vq  1 4.300000e-01    3.770000e+00
   C3q SC2vq  1 4.300000e-01    3.770000e+00
   C3q SC1vq  1 4.300000e-01    3.770000e+00
   C3q SX4vq  1 4.300000e-01    3.590000e+00
   C3q SX3vq  1 4.300000e-01    3.590000e+00
   C3q SX2vq  1 4.300000e-01    3.590000e+00
   C3q SX1vq  1 4.300000e-01    3.770000e+00
   C3q SC3eq  1 4.300000e-01    3.770000e+00
   C3q SC2eq  1 4.300000e-01    3.770000e+00
   C3q SC1eq  1 4.300000e-01    3.770000e+00
   C3q SX4eq  1 4.300000e-01    3.590000e+00
   C3q SX3eq  1 4.300000e-01    3.590000e+00
   C3q SX2eq  1 4.300000e-01    3.590000e+00
   C3q SX1eq  1 4.300000e-01    3.770000e+00
   C2q  SC2q  1 4.300000e-01    3.590000e+00
   C2q  SC1q  1 4.300000e-01    3.770000e+00
   C2q  SX4q  1 4.300000e-01    2.930000e+00
   C2q  SX3q  1 4.300000e-01    3.380000e+00
   C2q  SX2q  1 4.300000e-01    3.380000e+00
   C2q  SX1q  1 4.300000e-01    3.380000e+00
   C2q SC2vq  1 4.300000e-01    3.770000e+00
   C2q SC1vq  1 4.300000e-01    3.970000e+00
   C2q SX4vq  1 4.300000e-01    2.920000e+00
   C2q SX3vq  1 4.300000e-01    3.590000e+00
   C2q SX2vq  1 4.300000e-01    3.590000e+00
   C2q SX1vq  1 4.300000e-01    3.590000e+00
   C2q SC2eq  1 4.300000e-01    3.770000e+00
   C2q SC1eq  1 4.300000e-01    3.970000e+00
   C2q SX4eq  1 4.300000e-01    2.920000e+00
   C2q SX3eq  1 4.300000e-01    3.590000e+00
   C2q SX2eq  1 4.300000e-01    3.590000e+00
   C2q SX1eq  1 4.300000e-01    3.590000e+00
   C1q  SC1q  1 4.300000e-01    3.590000e+00
   C1q  SX4q  1 4.300000e-01    2.930000e+00
   C1q  SX3q  1 4.300000e-01    3.380000e+00
   C1q  SX2q  1 4.300000e-01    3.380000e+00
   C1q  SX1q  1 4.300000e-01    3.380000e+00
   C1q SC1vq  1 4.300000e-01    3.770000e+00
   C1q SX4vq  1 4.300000e-01    2.920000e+00
   C1q SX3vq  1 4.300000e-01    3.590000e+00
   C1q SX2vq  1 4.300000e-01    3.590000e+00
   C1q SX1vq  1 4.300000e-01    3.590000e+00
   C1q SC1eq  1 4.300000e-01    3.770000e+00
   C1q SX4eq  1 4.300000e-01    2.920000e+00
   C1q SX3eq  1 4.300000e-01    3.590000e+00
   C1q SX2eq  1 4.300000e-01    3.590000e+00
   C1q SX1eq  1 4.300000e-01    3.590000e+00
   X4q  SX4q  1 4.300000e-01    3.590000e+00
   X4q  SX3q  1 4.300000e-01    3.590000e+00
   X4q  SX2q  1 4.300000e-01    3.590000e+00
   X4q  SX1q  1 4.300000e-01    3.590000e+00
   X4q SX4vq  1 4.300000e-01    3.770000e+00
   X4q SX3vq  1 4.300000e-01    3.770000e+00
   X4q SX2vq  1 4.300000e-01    3.770000e+00
   X4q SX1vq  1 4.300000e-01    3.770000e+00
   X4q SX4eq  1 4.300000e-01    3.770000e+00
   X4q SX3eq  1 4.300000e-01    3.770000e+00
   X4q SX2eq  1 4.300000e-01    3.770000e+00
   X4q SX1eq  1 4.300000e-01    3.770000e+00
   X3q  SX3q  1 4.300000e-01    3.590000e+00
   X3q  SX2q  1 4.300000e-01    3.770000e+00
   X3q  SX1q  1 4.300000e-01    3.770000e+00
   X3q SX3vq  1 4.300000e-01    3.770000e+00
   X3q SX2vq  1 4.300000e-01    3.970000e+00
   X3q SX1vq  1 4.300000e-01    3.970000e+00
   X3q SX3eq  1 4.300000e-01    3.770000e+00
   X3q SX2eq  1 4.300000e-01    3.970000e+00
   X3q SX1eq  1 4.300000e-01    3.970000e+00
   X2q  SX2q  1 4.300000e-01    3.770000e+00
   X2q  SX1q  1 4.300000e-01    3.770000e+00
   X2q SX2vq  1 4.300000e-01    3.970000e+00
   X2q SX1vq  1 4.300000e-01    3.970000e+00
   X2q SX2eq  1 4.300000e-01    3.970000e+00
   X2q SX1eq  1 4.300000e-01    3.970000e+00
   X1q  SX1q  1 4.300000e-01    3.970000e+00
   X1q SX1vq  1 4.300000e-01    4.170000e+00
   X1q SX1eq  1 4.300000e-01    4.170000e+00
  P6dq  SP5q  1 4.300000e-01    5.210000e+00
  P6dq  SP4q  1 4.300000e-01    4.920000e+00
  P6dq  SP3q  1 4.300000e-01    4.680000e+00
  P6dq  SP2q  1 4.300000e-01    4.680000e+00
  P6dq  SP1q  1 4.300000e-01    4.400000e+00
  P6dq  SN6q  1 4.300000e-01    4.170000e+00
  P6dq  SN5q  1 4.300000e-01    3.770000e+00
  P6dq  SN4q  1 4.300000e-01    3.590000e+00
  P6dq  SN3q  1 4.300000e-01    3.380000e+00
  P6dq  SN2q  1 4.300000e-01    2.920000e+00
  P6dq  SN1q  1 4.300000e-01    2.930000e+00
  P6dq  SC6q  1 4.300000e-01    2.930000e+00
  P6dq  SC5q  1 4.300000e-01    2.770000e+00
  P6dq  SC4q  1 4.300000e-01    2.530000e+00
  P6dq  SC3q  1 4.300000e-01    2.320000e+00
  P6dq  SC2q  1 4.300000e-01    2.320000e+00
  P6dq  SC1q  1 4.300000e-01    1.930000e+00
  P6dq  SX4q  1 4.300000e-01    2.920000e+00
  P6dq  SX3q  1 4.300000e-01    2.920000e+00
  P6dq  SX2q  1 4.300000e-01    2.930000e+00
  P6dq  SX1q  1 4.300000e-01    2.770000e+00
  P5dq  SP4q  1 4.300000e-01    4.680000e+00
  P5dq  SP3q  1 4.300000e-01    4.400000e+00
  P5dq  SP2q  1 4.300000e-01    4.400000e+00
  P5dq  SP1q  1 4.300000e-01    4.170000e+00
  P5dq  SN6q  1 4.300000e-01    3.970000e+00
  P5dq  SN5q  1 4.300000e-01    3.770000e+00
  P5dq  SN4q  1 4.300000e-01    3.770000e+00
  P5dq  SN3q  1 4.300000e-01    3.380000e+00
  P5dq  SN2q  1 4.300000e-01    2.920000e+00
  P5dq  SN1q  1 4.300000e-01    2.930000e+00
  P5dq  SC6q  1 4.300000e-01    2.930000e+00
  P5dq  SC5q  1 4.300000e-01    2.930000e+00
  P5dq  SC4q  1 4.300000e-01    2.770000e+00
  P5dq  SC3q  1 4.300000e-01    2.530000e+00
  P5dq  SC2q  1 4.300000e-01    2.530000e+00
  P5dq  SC1q  1 4.300000e-01    2.320000e+00
  P5dq  SX4q  1 4.300000e-01    3.380000e+00
  P5dq  SX3q  1 4.300000e-01    2.920000e+00
  P5dq  SX2q  1 4.300000e-01    2.920000e+00
  P5dq  SX1q  1 4.300000e-01    2.770000e+00
  P4dq  SP3q  1 4.300000e-01    4.400000e+00
  P4dq  SP2q  1 4.300000e-01    4.400000e+00
  P4dq  SP1q  1 4.300000e-01    4.170000e+00
  P4dq  SN6q  1 4.300000e-01    3.970000e+00
  P4dq  SN5q  1 4.300000e-01    3.770000e+00
  P4dq  SN4q  1 4.300000e-01    3.770000e+00
  P4dq  SN3q  1 4.300000e-01    3.590000e+00
  P4dq  SN2q  1 4.300000e-01    3.380000e+00
  P4dq  SN1q  1 4.300000e-01    2.920000e+00
  P4dq  SC6q  1 4.300000e-01    2.920000e+00
  P4dq  SC5q  1 4.300000e-01    2.930000e+00
  P4dq  SC4q  1 4.300000e-01    2.770000e+00
  P4dq  SC3q  1 4.300000e-01    2.530000e+00
  P4dq  SC2q  1 4.300000e-01    2.530000e+00
  P4dq  SC1q  1 4.300000e-01    2.320000e+00
  P4dq  SX4q  1 4.300000e-01    3.380000e+00
  P4dq  SX3q  1 4.300000e-01    2.920000e+00
  P4dq  SX2q  1 4.300000e-01    2.920000e+00
  P4dq  SX1q  1 4.300000e-01    2.930000e+00
  P3dq  SP2q  1 4.300000e-01    4.400000e+00
  P3dq  SP1q  1 4.300000e-01    4.170000e+00
  P3dq  SN6q  1 4.300000e-01    3.970000e+00
  P3dq  SN5q  1 4.300000e-01    3.770000e+00
  P3dq  SN4q  1 4.300000e-01    3.770000e+00
  P3dq  SN3q  1 4.300000e-01    3.590000e+00
  P3dq  SN2q  1 4.300000e-01    3.590000e+00
  P3dq  SN1q  1 4.300000e-01    3.380000e+00
  P3dq  SC6q  1 4.300000e-01    3.380000e+00
  P3dq  SC5q  1 4.300000e-01    2.920000e+00
  P3dq  SC4q  1 4.300000e-01    2.930000e+00
  P3dq  SC3q  1 4.300000e-01    2.530000e+00
  P3dq  SC2q  1 4.300000e-01    2.530000e+00
  P3dq  SC1q  1 4.300000e-01    2.320000e+00
  P3dq  SX4q  1 4.300000e-01    3.380000e+00
  P3dq  SX3q  1 4.300000e-01    3.380000e+00
  P3dq  SX2q  1 4.300000e-01    2.920000e+00
  P3dq  SX1q  1 4.300000e-01    2.930000e+00
  P2dq  SP1q  1 4.300000e-01    4.170000e+00
  P2dq  SN6q  1 4.300000e-01    4.170000e+00
  P2dq  SN5q  1 4.300000e-01    3.970000e+00
  P2dq  SN4q  1 4.300000e-01    3.770000e+00
  P2dq  SN3q  1 4.300000e-01    3.590000e+00
  P2dq  SN2q  1 4.300000e-01    3.590000e+00
  P2dq  SN1q  1 4.300000e-01    3.590000e+00
  P2dq  SC6q  1 4.300000e-01    3.380000e+00
  P2dq  SC5q  1 4.300000e-01    2.920000e+00
  P2dq  SC4q  1 4.300000e-01    2.930000e+00
  P2dq  SC3q  1 4.300000e-01    2.770000e+00
  P2dq  SC2q  1 4.300000e-01    2.770000e+00
  P2dq  SC1q  1 4.300000e-01    2.530000e+00
  P2dq  SX4q  1 4.300000e-01    3.380000e+00
  P2dq  SX3q  1 4.300000e-01    3.380000e+00
  P2dq  SX2q  1 4.300000e-01    2.920000e+00
  P2dq  SX1q  1 4.300000e-01    2.930000e+00
  P1dq  SN6q  1 4.300000e-01    4.170000e+00
  P1dq  SN5q  1 4.300000e-01    3.970000e+00
  P1dq  SN4q  1 4.300000e-01    3.970000e+00
  P1dq  SN3q  1 4.300000e-01    3.590000e+00
  P1dq  SN2q  1 4.300000e-01    3.590000e+00
  P1dq  SN1q  1 4.300000e-01    3.590000e+00
  P1dq  SC6q  1 4.300000e-01    3.380000e+00
  P1dq  SC5q  1 4.300000e-01    2.920000e+00
  P1dq  SC4q  1 4.300000e-01    2.930000e+00
  P1dq  SC3q  1 4.300000e-01    2.770000e+00
  P1dq  SC2q  1 4.300000e-01    2.770000e+00
  P1dq  SC1q  1 4.300000e-01    2.530000e+00
  P1dq  SX4q  1 4.300000e-01    3.380000e+00
  P1dq  SX3q  1 4.300000e-01    3.380000e+00
  P1dq  SX2q  1 4.300000e-01    2.920000e+00
  P1dq  SX1q  1 4.300000e-01    2.930000e+00
  N6dq  SN5q  1 4.300000e-01    4.170000e+00
  N6dq  SN4q  1 4.300000e-01    4.170000e+00
  N6dq  SN3q  1 4.300000e-01    3.770000e+00
  N6dq  SN2q  1 4.300000e-01    3.590000e+00
  N6dq  SN1q  1 4.300000e-01    3.590000e+00
  N6dq  SC6q  1 4.300000e-01    3.590000e+00
  N6dq  SC5q  1 4.300000e-01    3.380000e+00
  N6dq  SC4q  1 4.300000e-01    2.920000e+00
  N6dq  SC3q  1 4.300000e-01    2.930000e+00
  N6dq  SC2q  1 4.300000e-01    2.930000e+00
  N6dq  SC1q  1 4.300000e-01    2.770000e+00
  N6dq  SX4q  1 4.300000e-01    3.590000e+00
  N6dq  SX3q  1 4.300000e-01    3.380000e+00
  N6dq  SX2q  1 4.300000e-01    2.920000e+00
  N6dq  SX1q  1 4.300000e-01    2.930000e+00
  N5dq  SN4q  1 4.300000e-01    3.970000e+00
  N5dq  SN3q  1 4.300000e-01    3.770000e+00
  N5dq  SN2q  1 4.300000e-01    3.770000e+00
  N5dq  SN1q  1 4.300000e-01    3.590000e+00
  N5dq  SC6q  1 4.300000e-01    3.590000e+00
  N5dq  SC5q  1 4.300000e-01    3.380000e+00
  N5dq  SC4q  1 4.300000e-01    2.920000e+00
  N5dq  SC3q  1 4.300000e-01    2.920000e+00
  N5dq  SC2q  1 4.300000e-01    2.930000e+00
  N5dq  SC1q  1 4.300000e-01    2.770000e+00
  N5dq  SX4q  1 4.300000e-01    3.770000e+00
  N5dq  SX3q  1 4.300000e-01    3.590000e+00
  N5dq  SX2q  1 4.300000e-01    3.380000e+00
  N5dq  SX1q  1 4.300000e-01    2.920000e+00
  N4dq  SN3q  1 4.300000e-01    3.770000e+00
  N4dq  SN2q  1 4.300000e-01    3.770000e+00
  N4dq  SN1q  1 4.300000e-01    3.590000e+00
  N4dq  SC6q  1 4.300000e-01    3.590000e+00
  N4dq  SC5q  1 4.300000e-01    3.380000e+00
  N4dq  SC4q  1 4.300000e-01    3.380000e+00
  N4dq  SC3q  1 4.300000e-01    2.920000e+00
  N4dq  SC2q  1 4.300000e-01    2.930000e+00
  N4dq  SC1q  1 4.300000e-01    2.770000e+00
  N4dq  SX4q  1 4.300000e-01    3.970000e+00
  N4dq  SX3q  1 4.300000e-01    3.770000e+00
  N4dq  SX2q  1 4.300000e-01    3.380000e+00
  N4dq  SX1q  1 4.300000e-01    2.920000e+00
  N3dq  SN2q  1 4.300000e-01    3.770000e+00
  N3dq  SN1q  1 4.300000e-01    3.590000e+00
  N3dq  SC6q  1 4.300000e-01    3.590000e+00
  N3dq  SC5q  1 4.300000e-01    3.380000e+00
  N3dq  SC4q  1 4.300000e-01    3.380000e+00
  N3dq  SC3q  1 4.300000e-01    2.920000e+00
  N3dq  SC2q  1 4.300000e-01    2.920000e+00
  N3dq  SC1q  1 4.300000e-01    2.930000e+00
  N3dq  SX4q  1 4.300000e-01    3.770000e+00
  N3dq  SX3q  1 4.300000e-01    3.590000e+00
  N3dq  SX2q  1 4.300000e-01    3.380000e+00
  N3dq  SX1q  1 4.300000e-01    3.380000e+00
  N2dq  SN1q  1 4.300000e-01    3.590000e+00
  N2dq  SC6q  1 4.300000e-01    3.590000e+00
  N2dq  SC5q  1 4.300000e-01    3.380000e+00
  N2dq  SC4q  1 4.300000e-01    3.380000e+00
  N2dq  SC3q  1 4.300000e-01    3.380000e+00
  N2dq  SC2q  1 4.300000e-01    2.920000e+00
  N2dq  SC1q  1 4.300000e-01    2.930000e+00
  N2dq  SX4q  1 4.300000e-01    3.770000e+00
  N2dq  SX3q  1 4.300000e-01    3.590000e+00
  N2dq  SX2q  1 4.300000e-01    3.380000e+00
  N2dq  SX1q  1 4.300000e-01    3.380000e+00
  N1dq  SC6q  1 4.300000e-01    3.770000e+00
  N1dq  SC5q  1 4.300000e-01    3.590000e+00
  N1dq  SC4q  1 4.300000e-01    3.590000e+00
  N1dq  SC3q  1 4.300000e-01    3.380000e+00
  N1dq  SC2q  1 4.300000e-01    2.920000e+00
  N1dq  SC1q  1 4.300000e-01    2.930000e+00
  N1dq  SX4q  1 4.300000e-01    3.590000e+00
  N1dq  SX3q  1 4.300000e-01    3.590000e+00
  N1dq  SX2q  1 4.300000e-01    3.380000e+00
  N1dq  SX1q  1 4.300000e-01    3.380000e+00
  P6aq  SP5q  1 4.300000e-01    5.210000e+00
  P6aq  SP4q  1 4.300000e-01    4.920000e+00
  P6aq  SP3q  1 4.300000e-01    4.680000e+00
  P6aq  SP2q  1 4.300000e-01    4.680000e+00
  P6aq  SP1q  1 4.300000e-01    4.400000e+00
  P6aq  SN6q  1 4.300000e-01    4.170000e+00
  P6aq  SN5q  1 4.300000e-01    3.770000e+00
  P6aq  SN4q  1 4.300000e-01    3.590000e+00
  P6aq  SN3q  1 4.300000e-01    3.380000e+00
  P6aq  SN2q  1 4.300000e-01    2.920000e+00
  P6aq  SN1q  1 4.300000e-01    2.930000e+00
  P6aq  SC6q  1 4.300000e-01    2.930000e+00
  P6aq  SC5q  1 4.300000e-01    2.770000e+00
  P6aq  SC4q  1 4.300000e-01    2.530000e+00
  P6aq  SC3q  1 4.300000e-01    2.320000e+00
  P6aq  SC2q  1 4.300000e-01    2.320000e+00
  P6aq  SC1q  1 4.300000e-01    1.930000e+00
  P6aq  SX4q  1 4.300000e-01    2.920000e+00
  P6aq  SX3q  1 4.300000e-01    2.920000e+00
  P6aq  SX2q  1 4.300000e-01    2.930000e+00
  P6aq  SX1q  1 4.300000e-01    2.770000e+00
  P5aq  SP4q  1 4.300000e-01    4.680000e+00
  P5aq  SP3q  1 4.300000e-01    4.400000e+00
  P5aq  SP2q  1 4.300000e-01    4.400000e+00
  P5aq  SP1q  1 4.300000e-01    4.170000e+00
  P5aq  SN6q  1 4.300000e-01    3.970000e+00
  P5aq  SN5q  1 4.300000e-01    3.770000e+00
  P5aq  SN4q  1 4.300000e-01    3.770000e+00
  P5aq  SN3q  1 4.300000e-01    3.380000e+00
  P5aq  SN2q  1 4.300000e-01    2.920000e+00
  P5aq  SN1q  1 4.300000e-01    2.930000e+00
  P5aq  SC6q  1 4.300000e-01    2.930000e+00
  P5aq  SC5q  1 4.300000e-01    2.930000e+00
  P5aq  SC4q  1 4.300000e-01    2.770000e+00
  P5aq  SC3q  1 4.300000e-01    2.530000e+00
  P5aq  SC2q  1 4.300000e-01    2.530000e+00
  P5aq  SC1q  1 4.300000e-01    2.320000e+00
  P5aq  SX4q  1 4.300000e-01    3.380000e+00
  P5aq  SX3q  1 4.300000e-01    2.920000e+00
  P5aq  SX2q  1 4.300000e-01    2.920000e+00
  P5aq  SX1q  1 4.300000e-01    2.770000e+00
  P4aq  SP3q  1 4.300000e-01    4.400000e+00
  P4aq  SP2q  1 4.300000e-01    4.400000e+00
  P4aq  SP1q  1 4.300000e-01    4.170000e+00
  P4aq  SN6q  1 4.300000e-01    3.970000e+00
  P4aq  SN5q  1 4.300000e-01    3.770000e+00
  P4aq  SN4q  1 4.300000e-01    3.770000e+00
  P4aq  SN3q  1 4.300000e-01    3.590000e+00
  P4aq  SN2q  1 4.300000e-01    3.380000e+00
  P4aq  SN1q  1 4.300000e-01    2.920000e+00
  P4aq  SC6q  1 4.300000e-01    2.920000e+00
  P4aq  SC5q  1 4.300000e-01    2.930000e+00
  P4aq  SC4q  1 4.300000e-01    2.770000e+00
  P4aq  SC3q  1 4.300000e-01    2.530000e+00
  P4aq  SC2q  1 4.300000e-01    2.530000e+00
  P4aq  SC1q  1 4.300000e-01    2.320000e+00
  P4aq  SX4q  1 4.300000e-01    3.380000e+00
  P4aq  SX3q  1 4.300000e-01    2.920000e+00
  P4aq  SX2q  1 4.300000e-01    2.920000e+00
  P4aq  SX1q  1 4.300000e-01    2.930000e+00
  P3aq  SP2q  1 4.300000e-01    4.400000e+00
  P3aq  SP1q  1 4.300000e-01    4.170000e+00
  P3aq  SN6q  1 4.300000e-01    3.970000e+00
  P3aq  SN5q  1 4.300000e-01    3.770000e+00
  P3aq  SN4q  1 4.300000e-01    3.770000e+00
  P3aq  SN3q  1 4.300000e-01    3.590000e+00
  P3aq  SN2q  1 4.300000e-01    3.590000e+00
  P3aq  SN1q  1 4.300000e-01    3.380000e+00
  P3aq  SC6q  1 4.300000e-01    3.380000e+00
  P3aq  SC5q  1 4.300000e-01    2.920000e+00
  P3aq  SC4q  1 4.300000e-01    2.930000e+00
  P3aq  SC3q  1 4.300000e-01    2.530000e+00
  P3aq  SC2q  1 4.300000e-01    2.530000e+00
  P3aq  SC1q  1 4.300000e-01    2.320000e+00
  P3aq  SX4q  1 4.300000e-01    3.380000e+00
  P3aq  SX3q  1 4.300000e-01    3.380000e+00
  P3aq  SX2q  1 4.300000e-01    2.920000e+00
  P3aq  SX1q  1 4.300000e-01    2.930000e+00
  P2aq  SP1q  1 4.300000e-01    4.170000e+00
  P2aq  SN6q  1 4.300000e-01    4.170000e+00
  P2aq  SN5q  1 4.300000e-01    3.970000e+00
  P2aq  SN4q  1 4.300000e-01    3.770000e+00
  P2aq  SN3q  1 4.300000e-01    3.590000e+00
  P2aq  SN2q  1 4.300000e-01    3.590000e+00
  P2aq  SN1q  1 4.300000e-01    3.590000e+00
  P2aq  SC6q  1 4.300000e-01    3.380000e+00
  P2aq  SC5q  1 4.300000e-01    2.920000e+00
  P2aq  SC4q  1 4.300000e-01    2.930000e+00
  P2aq  SC3q  1 4.300000e-01    2.770000e+00
  P2aq  SC2q  1 4.300000e-01    2.770000e+00
  P2aq  SC1q  1 4.300000e-01    2.530000e+00
  P2aq  SX4q  1 4.300000e-01    3.380000e+00
  P2aq  SX3q  1 4.300000e-01    3.380000e+00
  P2aq  SX2q  1 4.300000e-01    2.920000e+00
  P2aq  SX1q  1 4.300000e-01    2.930000e+00
  P1aq  SN6q  1 4.300000e-01    4.170000e+00
  P1aq  SN5q  1 4.300000e-01    3.970000e+00
  P1aq  SN4q  1 4.300000e-01    3.970000e+00
  P1aq  SN3q  1 4.300000e-01    3.590000e+00
  P1aq  SN2q  1 4.300000e-01    3.590000e+00
  P1aq  SN1q  1 4.300000e-01    3.590000e+00
  P1aq  SC6q  1 4.300000e-01    3.380000e+00
  P1aq  SC5q  1 4.300000e-01    2.920000e+00
  P1aq  SC4q  1 4.300000e-01    2.930000e+00
  P1aq  SC3q  1 4.300000e-01    2.770000e+00
  P1aq  SC2q  1 4.300000e-01    2.770000e+00
  P1aq  SC1q  1 4.300000e-01    2.530000e+00
  P1aq  SX4q  1 4.300000e-01    3.380000e+00
  P1aq  SX3q  1 4.300000e-01    3.380000e+00
  P1aq  SX2q  1 4.300000e-01    2.920000e+00
  P1aq  SX1q  1 4.300000e-01    2.930000e+00
  N6aq  SN5q  1 4.300000e-01    4.170000e+00
  N6aq  SN4q  1 4.300000e-01    4.170000e+00
  N6aq  SN3q  1 4.300000e-01    3.770000e+00
  N6aq  SN2q  1 4.300000e-01    3.590000e+00
  N6aq  SN1q  1 4.300000e-01    3.590000e+00
  N6aq  SC6q  1 4.300000e-01    3.590000e+00
  N6aq  SC5q  1 4.300000e-01    3.380000e+00
  N6aq  SC4q  1 4.300000e-01    2.920000e+00
  N6aq  SC3q  1 4.300000e-01    2.930000e+00
  N6aq  SC2q  1 4.300000e-01    2.930000e+00
  N6aq  SC1q  1 4.300000e-01    2.770000e+00
  N6aq  SX4q  1 4.300000e-01    3.590000e+00
  N6aq  SX3q  1 4.300000e-01    3.380000e+00
  N6aq  SX2q  1 4.300000e-01    2.920000e+00
  N6aq  SX1q  1 4.300000e-01    2.930000e+00
  N5aq  SN4q  1 4.300000e-01    3.970000e+00
  N5aq  SN3q  1 4.300000e-01    3.770000e+00
  N5aq  SN2q  1 4.300000e-01    3.770000e+00
  N5aq  SN1q  1 4.300000e-01    3.590000e+00
  N5aq  SC6q  1 4.300000e-01    3.590000e+00
  N5aq  SC5q  1 4.300000e-01    3.380000e+00
  N5aq  SC4q  1 4.300000e-01    2.920000e+00
  N5aq  SC3q  1 4.300000e-01    2.920000e+00
  N5aq  SC2q  1 4.300000e-01    2.930000e+00
  N5aq  SC1q  1 4.300000e-01    2.770000e+00
  N5aq  SX4q  1 4.300000e-01    3.770000e+00
  N5aq  SX3q  1 4.300000e-01    3.590000e+00
  N5aq  SX2q  1 4.300000e-01    3.380000e+00
  N5aq  SX1q  1 4.300000e-01    2.920000e+00
  N4aq  SN3q  1 4.300000e-01    3.770000e+00
  N4aq  SN2q  1 4.300000e-01    3.770000e+00
  N4aq  SN1q  1 4.300000e-01    3.590000e+00
  N4aq  SC6q  1 4.300000e-01    3.590000e+00
  N4aq  SC5q  1 4.300000e-01    3.380000e+00
  N4aq  SC4q  1 4.300000e-01    3.380000e+00
  N4aq  SC3q  1 4.300000e-01    2.920000e+00
  N4aq  SC2q  1 4.300000e-01    2.930000e+00
  N4aq  SC1q  1 4.300000e-01    2.770000e+00
  N4aq  SX4q  1 4.300000e-01    3.970000e+00
  N4aq  SX3q  1 4.300000e-01    3.770000e+00
  N4aq  SX2q  1 4.300000e-01    3.380000e+00
  N4aq  SX1q  1 4.300000e-01    2.920000e+00
  N3aq  SN2q  1 4.300000e-01    3.770000e+00
  N3aq  SN1q  1 4.300000e-01    3.590000e+00
  N3aq  SC6q  1 4.300000e-01    3.590000e+00
  N3aq  SC5q  1 4.300000e-01    3.380000e+00
  N3aq  SC4q  1 4.300000e-01    3.380000e+00
  N3aq  SC3q  1 4.300000e-01    2.920000e+00
  N3aq  SC2q  1 4.300000e-01    2.920000e+00
  N3aq  SC1q  1 4.300000e-01    2.930000e+00
  N3aq  SX4q  1 4.300000e-01    3.770000e+00
  N3aq  SX3q  1 4.300000e-01    3.590000e+00
  N3aq  SX2q  1 4.300000e-01    3.380000e+00
  N3aq  SX1q  1 4.300000e-01    3.380000e+00
  N2aq  SN1q  1 4.300000e-01    3.590000e+00
  N2aq  SC6q  1 4.300000e-01    3.590000e+00
  N2aq  SC5q  1 4.300000e-01    3.380000e+00
  N2aq  SC4q  1 4.300000e-01    3.380000e+00
  N2aq  SC3q  1 4.300000e-01    3.380000e+00
  N2aq  SC2q  1 4.300000e-01    2.920000e+00
  N2aq  SC1q  1 4.300000e-01    2.930000e+00
  N2aq  SX4q  1 4.300000e-01    3.770000e+00
  N2aq  SX3q  1 4.300000e-01    3.590000e+00
  N2aq  SX2q  1 4.300000e-01    3.380000e+00
  N2aq  SX1q  1 4.300000e-01    3.380000e+00
  N1aq  SC6q  1 4.300000e-01    3.770000e+00
  N1aq  SC5q  1 4.300000e-01    3.590000e+00
  N1aq  SC4q  1 4.300000e-01    3.590000e+00
  N1aq  SC3q  1 4.300000e-01    3.380000e+00
  N1aq  SC2q  1 4.300000e-01    2.920000e+00
  N1aq  SC1q  1 4.300000e-01    2.930000e+00
  N1aq  SX4q  1 4.300000e-01    3.590000e+00
  N1aq  SX3q  1 4.300000e-01    3.590000e+00
  N1aq  SX2q  1 4.300000e-01    3.380000e+00
  N1aq  SX1q  1 4.300000e-01    3.380000e+00
  C6vq SC6vq  1 4.300000e-01    3.590000e+00
  C6vq  SC5q  1 4.300000e-01    3.770000e+00
  C6vq  SC4q  1 4.300000e-01    3.770000e+00
  C6vq  SC3q  1 4.300000e-01    3.590000e+00
  C6vq  SC2q  1 4.300000e-01    3.380000e+00
  C6vq  SC1q  1 4.300000e-01    2.920000e+00
  C6vq  SX4q  1 4.300000e-01    3.770000e+00
  C6vq  SX3q  1 4.300000e-01    3.770000e+00
  C6vq  SX2q  1 4.300000e-01    3.770000e+00
  C6vq  SX1q  1 4.300000e-01    3.770000e+00
  C6vq SC5vq  1 4.300000e-01    3.380000e+00
  C6vq SC4vq  1 4.300000e-01    3.380000e+00
  C6vq SC3vq  1 4.300000e-01    2.920000e+00
  C6vq SC2vq  1 4.300000e-01    2.930000e+00
  C6vq SC1vq  1 4.300000e-01    2.770000e+00
  C6vq SX4vq  1 4.300000e-01    3.380000e+00
  C6vq SX3vq  1 4.300000e-01    3.380000e+00
  C6vq SX2vq  1 4.300000e-01    3.380000e+00
  C6vq SX1vq  1 4.300000e-01    3.380000e+00
  C5vq SC5vq  1 4.300000e-01    3.380000e+00
  C5vq  SC4q  1 4.300000e-01    3.770000e+00
  C5vq  SC3q  1 4.300000e-01    3.590000e+00
  C5vq  SC2q  1 4.300000e-01    3.380000e+00
  C5vq  SC1q  1 4.300000e-01    3.380000e+00
  C5vq  SX4q  1 4.300000e-01    3.590000e+00
  C5vq  SX3q  1 4.300000e-01    3.590000e+00
  C5vq  SX2q  1 4.300000e-01    3.590000e+00
  C5vq  SX1q  1 4.300000e-01    3.770000e+00
  C5vq SC4vq  1 4.300000e-01    3.380000e+00
  C5vq SC3vq  1 4.300000e-01    2.920000e+00
  C5vq SC2vq  1 4.300000e-01    2.930000e+00
  C5vq SC1vq  1 4.300000e-01    2.930000e+00
  C5vq SX4vq  1 4.300000e-01    2.920000e+00
  C5vq SX3vq  1 4.300000e-01    2.920000e+00
  C5vq SX2vq  1 4.300000e-01    2.920000e+00
  C5vq SX1vq  1 4.300000e-01    3.380000e+00
  C4vq SC4vq  1 4.300000e-01    3.380000e+00
  C4vq  SC3q  1 4.300000e-01    3.770000e+00
  C4vq  SC2q  1 4.300000e-01    3.590000e+00
  C4vq  SC1q  1 4.300000e-01    3.380000e+00
  C4vq  SX4q  1 4.300000e-01    3.590000e+00
  C4vq  SX3q  1 4.300000e-01    3.590000e+00
  C4vq  SX2q  1 4.300000e-01    3.590000e+00
  C4vq  SX1q  1 4.300000e-01    3.770000e+00
  C4vq SC3vq  1 4.300000e-01    3.380000e+00
  C4vq SC2vq  1 4.300000e-01    2.920000e+00
  C4vq SC1vq  1 4.300000e-01    2.930000e+00
  C4vq SX4vq  1 4.300000e-01    2.920000e+00
  C4vq SX3vq  1 4.300000e-01    2.920000e+00
  C4vq SX2vq  1 4.300000e-01    2.920000e+00
  C4vq SX1vq  1 4.300000e-01    3.380000e+00
  C3vq SC3vq  1 4.300000e-01    3.380000e+00
  C3vq  SC2q  1 4.300000e-01    3.770000e+00
  C3vq  SC1q  1 4.300000e-01    3.770000e+00
  C3vq  SX4q  1 4.300000e-01    3.590000e+00
  C3vq  SX3q  1 4.300000e-01    3.590000e+00
  C3vq  SX2q  1 4.300000e-01    3.590000e+00
  C3vq  SX1q  1 4.300000e-01    3.770000e+00
  C3vq SC2vq  1 4.300000e-01    3.380000e+00
  C3vq SC1vq  1 4.300000e-01    3.380000e+00
  C3vq SX4vq  1 4.300000e-01    2.920000e+00
  C3vq SX3vq  1 4.300000e-01    2.920000e+00
  C3vq SX2vq  1 4.300000e-01    2.920000e+00
  C3vq SX1vq  1 4.300000e-01    3.380000e+00
  C2vq SC2vq  1 4.300000e-01    3.380000e+00
  C2vq  SC1q  1 4.300000e-01    3.970000e+00
  C2vq  SX4q  1 4.300000e-01    2.920000e+00
  C2vq  SX3q  1 4.300000e-01    3.590000e+00
  C2vq  SX2q  1 4.300000e-01    3.590000e+00
  C2vq  SX1q  1 4.300000e-01    3.590000e+00
  C2vq SC1vq  1 4.300000e-01    3.590000e+00
  C2vq SX4vq  1 4.300000e-01    2.770000e+00
  C2vq SX3vq  1 4.300000e-01    2.920000e+00
  C2vq SX2vq  1 4.300000e-01    2.920000e+00
  C2vq SX1vq  1 4.300000e-01    2.920000e+00
  C1vq SC1vq  1 4.300000e-01    3.380000e+00
  C1vq  SX4q  1 4.300000e-01    2.920000e+00
  C1vq  SX3q  1 4.300000e-01    3.590000e+00
  C1vq  SX2q  1 4.300000e-01    3.590000e+00
  C1vq  SX1q  1 4.300000e-01    3.590000e+00
  C1vq SX4vq  1 4.300000e-01    2.770000e+00
  C1vq SX3vq  1 4.300000e-01    2.920000e+00
  C1vq SX2vq  1 4.300000e-01    2.920000e+00
  C1vq SX1vq  1 4.300000e-01    2.920000e+00
  X4vq SX4vq  1 4.300000e-01    3.380000e+00
  X4vq  SX3q  1 4.300000e-01    3.770000e+00
  X4vq  SX2q  1 4.300000e-01    3.770000e+00
  X4vq  SX1q  1 4.300000e-01    3.770000e+00
  X4vq SX3vq  1 4.300000e-01    3.380000e+00
  X4vq SX2vq  1 4.300000e-01    3.380000e+00
  X4vq SX1vq  1 4.300000e-01    3.380000e+00
  X3vq SX3vq  1 4.300000e-01    3.380000e+00
  X3vq  SX2q  1 4.300000e-01    3.970000e+00
  X3vq  SX1q  1 4.300000e-01    3.970000e+00
  X3vq SX2vq  1 4.300000e-01    3.590000e+00
  X3vq SX1vq  1 4.300000e-01    3.590000e+00
  X2vq SX2vq  1 4.300000e-01    3.590000e+00
  X2vq  SX1q  1 4.300000e-01    3.970000e+00
  X2vq SX1vq  1 4.300000e-01    3.590000e+00
  X1vq SX1vq  1 4.300000e-01    3.770000e+00
  C6eq SC6eq  1 4.300000e-01    3.590000e+00
  C6eq  SC5q  1 4.300000e-01    3.770000e+00
  C6eq  SC4q  1 4.300000e-01    3.770000e+00
  C6eq  SC3q  1 4.300000e-01    3.590000e+00
  C6eq  SC2q  1 4.300000e-01    3.380000e+00
  C6eq  SC1q  1 4.300000e-01    2.920000e+00
  C6eq  SX4q  1 4.300000e-01    3.770000e+00
  C6eq  SX3q  1 4.300000e-01    3.770000e+00
  C6eq  SX2q  1 4.300000e-01    3.770000e+00
  C6eq  SX1q  1 4.300000e-01    3.770000e+00
  C6eq SC5eq  1 4.300000e-01    3.380000e+00
  C6eq SC4eq  1 4.300000e-01    3.380000e+00
  C6eq SC3eq  1 4.300000e-01    2.920000e+00
  C6eq SC2eq  1 4.300000e-01    2.930000e+00
  C6eq SC1eq  1 4.300000e-01    2.770000e+00
  C6eq SX4eq  1 4.300000e-01    3.380000e+00
  C6eq SX3eq  1 4.300000e-01    3.380000e+00
  C6eq SX2eq  1 4.300000e-01    3.380000e+00
  C6eq SX1eq  1 4.300000e-01    3.380000e+00
  C5eq SC5eq  1 4.300000e-01    3.380000e+00
  C5eq  SC4q  1 4.300000e-01    3.770000e+00
  C5eq  SC3q  1 4.300000e-01    3.590000e+00
  C5eq  SC2q  1 4.300000e-01    3.380000e+00
  C5eq  SC1q  1 4.300000e-01    3.380000e+00
  C5eq  SX4q  1 4.300000e-01    3.590000e+00
  C5eq  SX3q  1 4.300000e-01    3.590000e+00
  C5eq  SX2q  1 4.300000e-01    3.590000e+00
  C5eq  SX1q  1 4.300000e-01    3.770000e+00
  C5eq SC4eq  1 4.300000e-01    3.380000e+00
  C5eq SC3eq  1 4.300000e-01    2.920000e+00
  C5eq SC2eq  1 4.300000e-01    2.930000e+00
  C5eq SC1eq  1 4.300000e-01    2.930000e+00
  C5eq SX4eq  1 4.300000e-01    2.920000e+00
  C5eq SX3eq  1 4.300000e-01    2.920000e+00
  C5eq SX2eq  1 4.300000e-01    2.920000e+00
  C5eq SX1eq  1 4.300000e-01    3.380000e+00
  C4eq SC4eq  1 4.300000e-01    3.380000e+00
  C4eq  SC3q  1 4.300000e-01    3.770000e+00
  C4eq  SC2q  1 4.300000e-01    3.590000e+00
  C4eq  SC1q  1 4.300000e-01    3.380000e+00
  C4eq  SX4q  1 4.300000e-01    3.590000e+00
  C4eq  SX3q  1 4.300000e-01    3.590000e+00
  C4eq  SX2q  1 4.300000e-01    3.590000e+00
  C4eq  SX1q  1 4.300000e-01    3.770000e+00
  C4eq SC3eq  1 4.300000e-01    3.380000e+00
  C4eq SC2eq  1 4.300000e-01    2.920000e+00
  C4eq SC1eq  1 4.300000e-01    2.930000e+00
  C4eq SX4eq  1 4.300000e-01    2.920000e+00
  C4eq SX3eq  1 4.300000e-01    2.920000e+00
  C4eq SX2eq  1 4.300000e-01    2.920000e+00
  C4eq SX1eq  1 4.300000e-01    3.380000e+00
  C3eq SC3eq  1 4.300000e-01    3.380000e+00
  C3eq  SC2q  1 4.300000e-01    3.770000e+00
  C3eq  SC1q  1 4.300000e-01    3.770000e+00
  C3eq  SX4q  1 4.300000e-01    3.590000e+00
  C3eq  SX3q  1 4.300000e-01    3.590000e+00
  C3eq  SX2q  1 4.300000e-01    3.590000e+00
  C3eq  SX1q  1 4.300000e-01    3.770000e+00
  C3eq SC2eq  1 4.300000e-01    3.380000e+00
  C3eq SC1eq  1 4.300000e-01    3.380000e+00
  C3eq SX4eq  1 4.300000e-01    2.920000e+00
  C3eq SX3eq  1 4.300000e-01    2.920000e+00
  C3eq SX2eq  1 4.300000e-01    2.920000e+00
  C3eq SX1eq  1 4.300000e-01    3.380000e+00
  C2eq SC2eq  1 4.300000e-01    3.380000e+00
  C2eq  SC1q  1 4.300000e-01    3.970000e+00
  C2eq  SX4q  1 4.300000e-01    2.920000e+00
  C2eq  SX3q  1 4.300000e-01    3.590000e+00
  C2eq  SX2q  1 4.300000e-01    3.590000e+00
  C2eq  SX1q  1 4.300000e-01    3.590000e+00
  C2eq SC1eq  1 4.300000e-01    3.590000e+00
  C2eq SX4eq  1 4.300000e-01    2.770000e+00
  C2eq SX3eq  1 4.300000e-01    2.920000e+00
  C2eq SX2eq  1 4.300000e-01    2.920000e+00
  C2eq SX1eq  1 4.300000e-01    2.920000e+00
  C1eq SC1eq  1 4.300000e-01    3.380000e+00
  C1eq  SX4q  1 4.300000e-01    2.920000e+00
  C1eq  SX3q  1 4.300000e-01    3.590000e+00
  C1eq  SX2q  1 4.300000e-01    3.590000e+00
  C1eq  SX1q  1 4.300000e-01    3.590000e+00
  C1eq SX4eq  1 4.300000e-01    2.770000e+00
  C1eq SX3eq  1 4.300000e-01    2.920000e+00
  C1eq SX2eq  1 4.300000e-01    2.920000e+00
  C1eq SX1eq  1 4.300000e-01    2.920000e+00
  X4eq SX4eq  1 4.300000e-01    3.380000e+00
  X4eq  SX3q  1 4.300000e-01    3.770000e+00
  X4eq  SX2q  1 4.300000e-01    3.770000e+00
  X4eq  SX1q  1 4.300000e-01    3.770000e+00
  X4eq SX3eq  1 4.300000e-01    3.380000e+00
  X4eq SX2eq  1 4.300000e-01    3.380000e+00
  X4eq SX1eq  1 4.300000e-01    3.380000e+00
  X3eq SX3eq  1 4.300000e-01    3.380000e+00
  X3eq  SX2q  1 4.300000e-01    3.970000e+00
  X3eq  SX1q  1 4.300000e-01    3.970000e+00
  X3eq SX2eq  1 4.300000e-01    3.590000e+00
  X3eq SX1eq  1 4.300000e-01    3.590000e+00
  X2eq SX2eq  1 4.300000e-01    3.590000e+00
  X2eq  SX1q  1 4.300000e-01    3.970000e+00
  X2eq SX1eq  1 4.300000e-01    3.590000e+00
  X1eq SX1eq  1 4.300000e-01    3.770000e+00
  SP6q   P5q  1 4.300000e-01    5.210000e+00
  SP6q   P4q  1 4.300000e-01    4.920000e+00
  SP6q   P3q  1 4.300000e-01    4.680000e+00
  SP6q   P2q  1 4.300000e-01    4.680000e+00
  SP6q   P1q  1 4.300000e-01    4.400000e+00
  SP6q   N6q  1 4.300000e-01    4.170000e+00
  SP6q   N5q  1 4.300000e-01    3.770000e+00
  SP6q   N4q  1 4.300000e-01    3.590000e+00
  SP6q   N3q  1 4.300000e-01    3.380000e+00
  SP6q   N2q  1 4.300000e-01    2.920000e+00
  SP6q   N1q  1 4.300000e-01    2.930000e+00
  SP6q   C6q  1 4.300000e-01    2.930000e+00
  SP6q   C5q  1 4.300000e-01    2.770000e+00
  SP6q   C4q  1 4.300000e-01    2.530000e+00
  SP6q   C3q  1 4.300000e-01    2.320000e+00
  SP6q   C2q  1 4.300000e-01    2.320000e+00
  SP6q   C1q  1 4.300000e-01    1.930000e+00
  SP6q   X4q  1 4.300000e-01    2.920000e+00
  SP6q   X3q  1 4.300000e-01    2.920000e+00
  SP6q   X2q  1 4.300000e-01    2.930000e+00
  SP6q   X1q  1 4.300000e-01    2.770000e+00
  SP6q  P6dq  1 4.300000e-01    5.510000e+00
  SP6q  P5dq  1 4.300000e-01    5.210000e+00
  SP6q  P4dq  1 4.300000e-01    4.920000e+00
  SP6q  P3dq  1 4.300000e-01    4.680000e+00
  SP6q  P2dq  1 4.300000e-01    4.680000e+00
  SP6q  P1dq  1 4.300000e-01    4.400000e+00
  SP6q  N6dq  1 4.300000e-01    4.170000e+00
  SP6q  N5dq  1 4.300000e-01    3.770000e+00
  SP6q  N4dq  1 4.300000e-01    3.590000e+00
  SP6q  N3dq  1 4.300000e-01    3.380000e+00
  SP6q  N2dq  1 4.300000e-01    2.920000e+00
  SP6q  N1dq  1 4.300000e-01    2.930000e+00
  SP6q  P6aq  1 4.300000e-01    5.510000e+00
  SP6q  P5aq  1 4.300000e-01    5.210000e+00
  SP6q  P4aq  1 4.300000e-01    4.920000e+00
  SP6q  P3aq  1 4.300000e-01    4.680000e+00
  SP6q  P2aq  1 4.300000e-01    4.680000e+00
  SP6q  P1aq  1 4.300000e-01    4.400000e+00
  SP6q  N6aq  1 4.300000e-01    4.170000e+00
  SP6q  N5aq  1 4.300000e-01    3.770000e+00
  SP6q  N4aq  1 4.300000e-01    3.590000e+00
  SP6q  N3aq  1 4.300000e-01    3.380000e+00
  SP6q  N2aq  1 4.300000e-01    2.920000e+00
  SP6q  N1aq  1 4.300000e-01    2.930000e+00
  SP6q  C6vq  1 4.300000e-01    2.920000e+00
  SP6q  C5vq  1 4.300000e-01    2.930000e+00
  SP6q  C4vq  1 4.300000e-01    2.770000e+00
  SP6q  C3vq  1 4.300000e-01    2.530000e+00
  SP6q  C2vq  1 4.300000e-01    2.530000e+00
  SP6q  C1vq  1 4.300000e-01    2.160000e+00
  SP6q  X4vq  1 4.300000e-01    3.380000e+00
  SP6q  X3vq  1 4.300000e-01    3.380000e+00
  SP6q  X2vq  1 4.300000e-01    2.920000e+00
  SP6q  X1vq  1 4.300000e-01    2.930000e+00
  SP6q  C6eq  1 4.300000e-01    2.920000e+00
  SP6q  C5eq  1 4.300000e-01    2.930000e+00
  SP6q  C4eq  1 4.300000e-01    2.770000e+00
  SP6q  C3eq  1 4.300000e-01    2.530000e+00
  SP6q  C2eq  1 4.300000e-01    2.530000e+00
  SP6q  C1eq  1 4.300000e-01    2.160000e+00
  SP6q  X4eq  1 4.300000e-01    3.380000e+00
  SP6q  X3eq  1 4.300000e-01    3.380000e+00
  SP6q  X2eq  1 4.300000e-01    2.920000e+00
  SP6q  X1eq  1 4.300000e-01    2.930000e+00
  SP5q   P4q  1 4.300000e-01    4.680000e+00
  SP5q   P3q  1 4.300000e-01    4.400000e+00
  SP5q   P2q  1 4.300000e-01    4.400000e+00
  SP5q   P1q  1 4.300000e-01    4.170000e+00
  SP5q   N6q  1 4.300000e-01    3.970000e+00
  SP5q   N5q  1 4.300000e-01    3.770000e+00
  SP5q   N4q  1 4.300000e-01    3.770000e+00
  SP5q   N3q  1 4.300000e-01    3.380000e+00
  SP5q   N2q  1 4.300000e-01    2.920000e+00
  SP5q   N1q  1 4.300000e-01    2.930000e+00
  SP5q   C6q  1 4.300000e-01    2.930000e+00
  SP5q   C5q  1 4.300000e-01    2.930000e+00
  SP5q   C4q  1 4.300000e-01    2.770000e+00
  SP5q   C3q  1 4.300000e-01    2.530000e+00
  SP5q   C2q  1 4.300000e-01    2.530000e+00
  SP5q   C1q  1 4.300000e-01    2.320000e+00
  SP5q   X4q  1 4.300000e-01    3.380000e+00
  SP5q   X3q  1 4.300000e-01    2.920000e+00
  SP5q   X2q  1 4.300000e-01    2.920000e+00
  SP5q   X1q  1 4.300000e-01    2.770000e+00
  SP5q  P5dq  1 4.300000e-01    4.920000e+00
  SP5q  P4dq  1 4.300000e-01    4.680000e+00
  SP5q  P3dq  1 4.300000e-01    4.400000e+00
  SP5q  P2dq  1 4.300000e-01    4.400000e+00
  SP5q  P1dq  1 4.300000e-01    4.170000e+00
  SP5q  N6dq  1 4.300000e-01    3.970000e+00
  SP5q  N5dq  1 4.300000e-01    3.770000e+00
  SP5q  N4dq  1 4.300000e-01    3.770000e+00
  SP5q  N3dq  1 4.300000e-01    3.380000e+00
  SP5q  N2dq  1 4.300000e-01    2.920000e+00
  SP5q  N1dq  1 4.300000e-01    2.930000e+00
  SP5q  P5aq  1 4.300000e-01    4.920000e+00
  SP5q  P4aq  1 4.300000e-01    4.680000e+00
  SP5q  P3aq  1 4.300000e-01    4.400000e+00
  SP5q  P2aq  1 4.300000e-01    4.400000e+00
  SP5q  P1aq  1 4.300000e-01    4.170000e+00
  SP5q  N6aq  1 4.300000e-01    3.970000e+00
  SP5q  N5aq  1 4.300000e-01    3.770000e+00
  SP5q  N4aq  1 4.300000e-01    3.770000e+00
  SP5q  N3aq  1 4.300000e-01    3.380000e+00
  SP5q  N2aq  1 4.300000e-01    2.920000e+00
  SP5q  N1aq  1 4.300000e-01    2.930000e+00
  SP5q  C6vq  1 4.300000e-01    2.920000e+00
  SP5q  C5vq  1 4.300000e-01    2.920000e+00
  SP5q  C4vq  1 4.300000e-01    2.930000e+00
  SP5q  C3vq  1 4.300000e-01    2.770000e+00
  SP5q  C2vq  1 4.300000e-01    2.770000e+00
  SP5q  C1vq  1 4.300000e-01    2.530000e+00
  SP5q  X4vq  1 4.300000e-01    3.590000e+00
  SP5q  X3vq  1 4.300000e-01    3.380000e+00
  SP5q  X2vq  1 4.300000e-01    3.380000e+00
  SP5q  X1vq  1 4.300000e-01    2.930000e+00
  SP5q  C6eq  1 4.300000e-01    2.920000e+00
  SP5q  C5eq  1 4.300000e-01    2.920000e+00
  SP5q  C4eq  1 4.300000e-01    2.930000e+00
  SP5q  C3eq  1 4.300000e-01    2.770000e+00
  SP5q  C2eq  1 4.300000e-01    2.770000e+00
  SP5q  C1eq  1 4.300000e-01    2.530000e+00
  SP5q  X4eq  1 4.300000e-01    3.590000e+00
  SP5q  X3eq  1 4.300000e-01    3.380000e+00
  SP5q  X2eq  1 4.300000e-01    3.380000e+00
  SP5q  X1eq  1 4.300000e-01    2.930000e+00
  SP4q   P3q  1 4.300000e-01    4.400000e+00
  SP4q   P2q  1 4.300000e-01    4.400000e+00
  SP4q   P1q  1 4.300000e-01    4.170000e+00
  SP4q   N6q  1 4.300000e-01    3.970000e+00
  SP4q   N5q  1 4.300000e-01    3.770000e+00
  SP4q   N4q  1 4.300000e-01    3.770000e+00
  SP4q   N3q  1 4.300000e-01    3.590000e+00
  SP4q   N2q  1 4.300000e-01    3.380000e+00
  SP4q   N1q  1 4.300000e-01    2.920000e+00
  SP4q   C6q  1 4.300000e-01    2.920000e+00
  SP4q   C5q  1 4.300000e-01    2.930000e+00
  SP4q   C4q  1 4.300000e-01    2.770000e+00
  SP4q   C3q  1 4.300000e-01    2.530000e+00
  SP4q   C2q  1 4.300000e-01    2.530000e+00
  SP4q   C1q  1 4.300000e-01    2.320000e+00
  SP4q   X4q  1 4.300000e-01    3.380000e+00
  SP4q   X3q  1 4.300000e-01    2.920000e+00
  SP4q   X2q  1 4.300000e-01    2.920000e+00
  SP4q   X1q  1 4.300000e-01    2.930000e+00
  SP4q  P4dq  1 4.300000e-01    4.680000e+00
  SP4q  P3dq  1 4.300000e-01    4.400000e+00
  SP4q  P2dq  1 4.300000e-01    4.400000e+00
  SP4q  P1dq  1 4.300000e-01    4.170000e+00
  SP4q  N6dq  1 4.300000e-01    3.970000e+00
  SP4q  N5dq  1 4.300000e-01    3.770000e+00
  SP4q  N4dq  1 4.300000e-01    3.770000e+00
  SP4q  N3dq  1 4.300000e-01    3.590000e+00
  SP4q  N2dq  1 4.300000e-01    3.380000e+00
  SP4q  N1dq  1 4.300000e-01    2.920000e+00
  SP4q  P4aq  1 4.300000e-01    4.680000e+00
  SP4q  P3aq  1 4.300000e-01    4.400000e+00
  SP4q  P2aq  1 4.300000e-01    4.400000e+00
  SP4q  P1aq  1 4.300000e-01    4.170000e+00
  SP4q  N6aq  1 4.300000e-01    3.970000e+00
  SP4q  N5aq  1 4.300000e-01    3.770000e+00
  SP4q  N4aq  1 4.300000e-01    3.770000e+00
  SP4q  N3aq  1 4.300000e-01    3.590000e+00
  SP4q  N2aq  1 4.300000e-01    3.380000e+00
  SP4q  N1aq  1 4.300000e-01    2.920000e+00
  SP4q  C6vq  1 4.300000e-01    3.380000e+00
  SP4q  C5vq  1 4.300000e-01    2.920000e+00
  SP4q  C4vq  1 4.300000e-01    2.930000e+00
  SP4q  C3vq  1 4.300000e-01    2.770000e+00
  SP4q  C2vq  1 4.300000e-01    2.770000e+00
  SP4q  C1vq  1 4.300000e-01    2.530000e+00
  SP4q  X4vq  1 4.300000e-01    3.590000e+00
  SP4q  X3vq  1 4.300000e-01    3.380000e+00
  SP4q  X2vq  1 4.300000e-01    3.380000e+00
  SP4q  X1vq  1 4.300000e-01    2.920000e+00
  SP4q  C6eq  1 4.300000e-01    3.380000e+00
  SP4q  C5eq  1 4.300000e-01    2.920000e+00
  SP4q  C4eq  1 4.300000e-01    2.930000e+00
  SP4q  C3eq  1 4.300000e-01    2.770000e+00
  SP4q  C2eq  1 4.300000e-01    2.770000e+00
  SP4q  C1eq  1 4.300000e-01    2.530000e+00
  SP4q  X4eq  1 4.300000e-01    3.590000e+00
  SP4q  X3eq  1 4.300000e-01    3.380000e+00
  SP4q  X2eq  1 4.300000e-01    3.380000e+00
  SP4q  X1eq  1 4.300000e-01    2.920000e+00
  SP3q   P2q  1 4.300000e-01    4.400000e+00
  SP3q   P1q  1 4.300000e-01    4.170000e+00
  SP3q   N6q  1 4.300000e-01    3.970000e+00
  SP3q   N5q  1 4.300000e-01    3.770000e+00
  SP3q   N4q  1 4.300000e-01    3.770000e+00
  SP3q   N3q  1 4.300000e-01    3.590000e+00
  SP3q   N2q  1 4.300000e-01    3.590000e+00
  SP3q   N1q  1 4.300000e-01    3.380000e+00
  SP3q   C6q  1 4.300000e-01    3.380000e+00
  SP3q   C5q  1 4.300000e-01    2.920000e+00
  SP3q   C4q  1 4.300000e-01    2.930000e+00
  SP3q   C3q  1 4.300000e-01    2.530000e+00
  SP3q   C2q  1 4.300000e-01    2.530000e+00
  SP3q   C1q  1 4.300000e-01    2.320000e+00
  SP3q   X4q  1 4.300000e-01    3.380000e+00
  SP3q   X3q  1 4.300000e-01    3.380000e+00
  SP3q   X2q  1 4.300000e-01    2.920000e+00
  SP3q   X1q  1 4.300000e-01    2.930000e+00
  SP3q  P3dq  1 4.300000e-01    4.400000e+00
  SP3q  P2dq  1 4.300000e-01    4.400000e+00
  SP3q  P1dq  1 4.300000e-01    4.170000e+00
  SP3q  N6dq  1 4.300000e-01    3.970000e+00
  SP3q  N5dq  1 4.300000e-01    3.770000e+00
  SP3q  N4dq  1 4.300000e-01    3.770000e+00
  SP3q  N3dq  1 4.300000e-01    3.590000e+00
  SP3q  N2dq  1 4.300000e-01    3.590000e+00
  SP3q  N1dq  1 4.300000e-01    3.380000e+00
  SP3q  P3aq  1 4.300000e-01    4.400000e+00
  SP3q  P2aq  1 4.300000e-01    4.400000e+00
  SP3q  P1aq  1 4.300000e-01    4.170000e+00
  SP3q  N6aq  1 4.300000e-01    3.970000e+00
  SP3q  N5aq  1 4.300000e-01    3.770000e+00
  SP3q  N4aq  1 4.300000e-01    3.770000e+00
  SP3q  N3aq  1 4.300000e-01    3.590000e+00
  SP3q  N2aq  1 4.300000e-01    3.590000e+00
  SP3q  N1aq  1 4.300000e-01    3.380000e+00
  SP3q  C6vq  1 4.300000e-01    3.590000e+00
  SP3q  C5vq  1 4.300000e-01    3.380000e+00
  SP3q  C4vq  1 4.300000e-01    2.920000e+00
  SP3q  C3vq  1 4.300000e-01    2.770000e+00
  SP3q  C2vq  1 4.300000e-01    2.770000e+00
  SP3q  C1vq  1 4.300000e-01    2.530000e+00
  SP3q  X4vq  1 4.300000e-01    3.590000e+00
  SP3q  X3vq  1 4.300000e-01    3.590000e+00
  SP3q  X2vq  1 4.300000e-01    3.380000e+00
  SP3q  X1vq  1 4.300000e-01    2.920000e+00
  SP3q  C6eq  1 4.300000e-01    3.590000e+00
  SP3q  C5eq  1 4.300000e-01    3.380000e+00
  SP3q  C4eq  1 4.300000e-01    2.920000e+00
  SP3q  C3eq  1 4.300000e-01    2.770000e+00
  SP3q  C2eq  1 4.300000e-01    2.770000e+00
  SP3q  C1eq  1 4.300000e-01    2.530000e+00
  SP3q  X4eq  1 4.300000e-01    3.590000e+00
  SP3q  X3eq  1 4.300000e-01    3.590000e+00
  SP3q  X2eq  1 4.300000e-01    3.380000e+00
  SP3q  X1eq  1 4.300000e-01    2.920000e+00
  SP2q   P1q  1 4.300000e-01    4.170000e+00
  SP2q   N6q  1 4.300000e-01    4.170000e+00
  SP2q   N5q  1 4.300000e-01    3.970000e+00
  SP2q   N4q  1 4.300000e-01    3.770000e+00
  SP2q   N3q  1 4.300000e-01    3.590000e+00
  SP2q   N2q  1 4.300000e-01    3.590000e+00
  SP2q   N1q  1 4.300000e-01    3.590000e+00
  SP2q   C6q  1 4.300000e-01    3.380000e+00
  SP2q   C5q  1 4.300000e-01    2.920000e+00
  SP2q   C4q  1 4.300000e-01    2.930000e+00
  SP2q   C3q  1 4.300000e-01    2.770000e+00
  SP2q   C2q  1 4.300000e-01    2.770000e+00
  SP2q   C1q  1 4.300000e-01    2.530000e+00
  SP2q   X4q  1 4.300000e-01    3.380000e+00
  SP2q   X3q  1 4.300000e-01    3.380000e+00
  SP2q   X2q  1 4.300000e-01    2.920000e+00
  SP2q   X1q  1 4.300000e-01    2.930000e+00
  SP2q  P2dq  1 4.300000e-01    4.400000e+00
  SP2q  P1dq  1 4.300000e-01    4.170000e+00
  SP2q  N6dq  1 4.300000e-01    4.170000e+00
  SP2q  N5dq  1 4.300000e-01    3.970000e+00
  SP2q  N4dq  1 4.300000e-01    3.770000e+00
  SP2q  N3dq  1 4.300000e-01    3.590000e+00
  SP2q  N2dq  1 4.300000e-01    3.590000e+00
  SP2q  N1dq  1 4.300000e-01    3.590000e+00
  SP2q  P2aq  1 4.300000e-01    4.400000e+00
  SP2q  P1aq  1 4.300000e-01    4.170000e+00
  SP2q  N6aq  1 4.300000e-01    4.170000e+00
  SP2q  N5aq  1 4.300000e-01    3.970000e+00
  SP2q  N4aq  1 4.300000e-01    3.770000e+00
  SP2q  N3aq  1 4.300000e-01    3.590000e+00
  SP2q  N2aq  1 4.300000e-01    3.590000e+00
  SP2q  N1aq  1 4.300000e-01    3.590000e+00
  SP2q  C6vq  1 4.300000e-01    3.590000e+00
  SP2q  C5vq  1 4.300000e-01    3.380000e+00
  SP2q  C4vq  1 4.300000e-01    2.920000e+00
  SP2q  C3vq  1 4.300000e-01    2.930000e+00
  SP2q  C2vq  1 4.300000e-01    2.930000e+00
  SP2q  C1vq  1 4.300000e-01    2.770000e+00
  SP2q  X4vq  1 4.300000e-01    3.590000e+00
  SP2q  X3vq  1 4.300000e-01    3.590000e+00
  SP2q  X2vq  1 4.300000e-01    3.380000e+00
  SP2q  X1vq  1 4.300000e-01    2.920000e+00
  SP2q  C6eq  1 4.300000e-01    3.590000e+00
  SP2q  C5eq  1 4.300000e-01    3.380000e+00
  SP2q  C4eq  1 4.300000e-01    2.920000e+00
  SP2q  C3eq  1 4.300000e-01    2.930000e+00
  SP2q  C2eq  1 4.300000e-01    2.930000e+00
  SP2q  C1eq  1 4.300000e-01    2.770000e+00
  SP2q  X4eq  1 4.300000e-01    3.590000e+00
  SP2q  X3eq  1 4.300000e-01    3.590000e+00
  SP2q  X2eq  1 4.300000e-01    3.380000e+00
  SP2q  X1eq  1 4.300000e-01    2.920000e+00
  SP1q   N6q  1 4.300000e-01    4.170000e+00
  SP1q   N5q  1 4.300000e-01    3.970000e+00
  SP1q   N4q  1 4.300000e-01    3.970000e+00
  SP1q   N3q  1 4.300000e-01    3.590000e+00
  SP1q   N2q  1 4.300000e-01    3.590000e+00
  SP1q   N1q  1 4.300000e-01    3.590000e+00
  SP1q   C6q  1 4.300000e-01    3.380000e+00
  SP1q   C5q  1 4.300000e-01    2.920000e+00
  SP1q   C4q  1 4.300000e-01    2.930000e+00
  SP1q   C3q  1 4.300000e-01    2.770000e+00
  SP1q   C2q  1 4.300000e-01    2.770000e+00
  SP1q   C1q  1 4.300000e-01    2.530000e+00
  SP1q   X4q  1 4.300000e-01    3.380000e+00
  SP1q   X3q  1 4.300000e-01    3.380000e+00
  SP1q   X2q  1 4.300000e-01    2.920000e+00
  SP1q   X1q  1 4.300000e-01    2.930000e+00
  SP1q  P1dq  1 4.300000e-01    4.170000e+00
  SP1q  N6dq  1 4.300000e-01    4.170000e+00
  SP1q  N5dq  1 4.300000e-01    3.970000e+00
  SP1q  N4dq  1 4.300000e-01    3.970000e+00
  SP1q  N3dq  1 4.300000e-01    3.590000e+00
  SP1q  N2dq  1 4.300000e-01    3.590000e+00
  SP1q  N1dq  1 4.300000e-01    3.590000e+00
  SP1q  P1aq  1 4.300000e-01    4.170000e+00
  SP1q  N6aq  1 4.300000e-01    4.170000e+00
  SP1q  N5aq  1 4.300000e-01    3.970000e+00
  SP1q  N4aq  1 4.300000e-01    3.970000e+00
  SP1q  N3aq  1 4.300000e-01    3.590000e+00
  SP1q  N2aq  1 4.300000e-01    3.590000e+00
  SP1q  N1aq  1 4.300000e-01    3.590000e+00
  SP1q  C6vq  1 4.300000e-01    3.590000e+00
  SP1q  C5vq  1 4.300000e-01    3.380000e+00
  SP1q  C4vq  1 4.300000e-01    2.920000e+00
  SP1q  C3vq  1 4.300000e-01    2.930000e+00
  SP1q  C2vq  1 4.300000e-01    2.930000e+00
  SP1q  C1vq  1 4.300000e-01    2.770000e+00
  SP1q  X4vq  1 4.300000e-01    3.590000e+00
  SP1q  X3vq  1 4.300000e-01    3.590000e+00
  SP1q  X2vq  1 4.300000e-01    3.380000e+00
  SP1q  X1vq  1 4.300000e-01    2.920000e+00
  SP1q  C6eq  1 4.300000e-01    3.590000e+00
  SP1q  C5eq  1 4.300000e-01    3.380000e+00
  SP1q  C4eq  1 4.300000e-01    2.920000e+00
  SP1q  C3eq  1 4.300000e-01    2.930000e+00
  SP1q  C2eq  1 4.300000e-01    2.930000e+00
  SP1q  C1eq  1 4.300000e-01    2.770000e+00
  SP1q  X4eq  1 4.300000e-01    3.590000e+00
  SP1q  X3eq  1 4.300000e-01    3.590000e+00
  SP1q  X2eq  1 4.300000e-01    3.380000e+00
  SP1q  X1eq  1 4.300000e-01    2.920000e+00
  SN6q   N5q  1 4.300000e-01    4.170000e+00
  SN6q   N4q  1 4.300000e-01    4.170000e+00
  SN6q   N3q  1 4.300000e-01    3.770000e+00
  SN6q   N2q  1 4.300000e-01    3.590000e+00
  SN6q   N1q  1 4.300000e-01    3.590000e+00
  SN6q   C6q  1 4.300000e-01    3.590000e+00
  SN6q   C5q  1 4.300000e-01    3.380000e+00
  SN6q   C4q  1 4.300000e-01    2.920000e+00
  SN6q   C3q  1 4.300000e-01    2.930000e+00
  SN6q   C2q  1 4.300000e-01    2.930000e+00
  SN6q   C1q  1 4.300000e-01    2.770000e+00
  SN6q   X4q  1 4.300000e-01    3.590000e+00
  SN6q   X3q  1 4.300000e-01    3.380000e+00
  SN6q   X2q  1 4.300000e-01    2.920000e+00
  SN6q   X1q  1 4.300000e-01    2.930000e+00
  SN6q  N6dq  1 4.300000e-01    4.170000e+00
  SN6q  N5dq  1 4.300000e-01    4.170000e+00
  SN6q  N4dq  1 4.300000e-01    4.170000e+00
  SN6q  N3dq  1 4.300000e-01    3.770000e+00
  SN6q  N2dq  1 4.300000e-01    3.590000e+00
  SN6q  N1dq  1 4.300000e-01    3.590000e+00
  SN6q  N6aq  1 4.300000e-01    4.170000e+00
  SN6q  N5aq  1 4.300000e-01    4.170000e+00
  SN6q  N4aq  1 4.300000e-01    4.170000e+00
  SN6q  N3aq  1 4.300000e-01    3.770000e+00
  SN6q  N2aq  1 4.300000e-01    3.590000e+00
  SN6q  N1aq  1 4.300000e-01    3.590000e+00
  SN6q  C6vq  1 4.300000e-01    3.770000e+00
  SN6q  C5vq  1 4.300000e-01    3.590000e+00
  SN6q  C4vq  1 4.300000e-01    3.380000e+00
  SN6q  C3vq  1 4.300000e-01    2.920000e+00
  SN6q  C2vq  1 4.300000e-01    2.920000e+00
  SN6q  C1vq  1 4.300000e-01    2.930000e+00
  SN6q  X4vq  1 4.300000e-01    3.770000e+00
  SN6q  X3vq  1 4.300000e-01    3.590000e+00
  SN6q  X2vq  1 4.300000e-01    3.380000e+00
  SN6q  X1vq  1 4.300000e-01    2.920000e+00
  SN6q  C6eq  1 4.300000e-01    3.770000e+00
  SN6q  C5eq  1 4.300000e-01    3.590000e+00
  SN6q  C4eq  1 4.300000e-01    3.380000e+00
  SN6q  C3eq  1 4.300000e-01    2.920000e+00
  SN6q  C2eq  1 4.300000e-01    2.920000e+00
  SN6q  C1eq  1 4.300000e-01    2.930000e+00
  SN6q  X4eq  1 4.300000e-01    3.770000e+00
  SN6q  X3eq  1 4.300000e-01    3.590000e+00
  SN6q  X2eq  1 4.300000e-01    3.380000e+00
  SN6q  X1eq  1 4.300000e-01    2.920000e+00
  SN5q   N4q  1 4.300000e-01    3.970000e+00
  SN5q   N3q  1 4.300000e-01    3.770000e+00
  SN5q   N2q  1 4.300000e-01    3.770000e+00
  SN5q   N1q  1 4.300000e-01    3.590000e+00
  SN5q   C6q  1 4.300000e-01    3.590000e+00
  SN5q   C5q  1 4.300000e-01    3.380000e+00
  SN5q   C4q  1 4.300000e-01    2.920000e+00
  SN5q   C3q  1 4.300000e-01    2.920000e+00
  SN5q   C2q  1 4.300000e-01    2.930000e+00
  SN5q   C1q  1 4.300000e-01    2.770000e+00
  SN5q   X4q  1 4.300000e-01    3.770000e+00
  SN5q   X3q  1 4.300000e-01    3.590000e+00
  SN5q   X2q  1 4.300000e-01    3.380000e+00
  SN5q   X1q  1 4.300000e-01    2.920000e+00
  SN5q  N5dq  1 4.300000e-01    3.970000e+00
  SN5q  N4dq  1 4.300000e-01    3.970000e+00
  SN5q  N3dq  1 4.300000e-01    3.770000e+00
  SN5q  N2dq  1 4.300000e-01    3.770000e+00
  SN5q  N1dq  1 4.300000e-01    3.590000e+00
  SN5q  N5aq  1 4.300000e-01    3.970000e+00
  SN5q  N4aq  1 4.300000e-01    3.970000e+00
  SN5q  N3aq  1 4.300000e-01    3.770000e+00
  SN5q  N2aq  1 4.300000e-01    3.770000e+00
  SN5q  N1aq  1 4.300000e-01    3.590000e+00
  SN5q  C6vq  1 4.300000e-01    3.770000e+00
  SN5q  C5vq  1 4.300000e-01    3.590000e+00
  SN5q  C4vq  1 4.300000e-01    3.380000e+00
  SN5q  C3vq  1 4.300000e-01    3.380000e+00
  SN5q  C2vq  1 4.300000e-01    2.920000e+00
  SN5q  C1vq  1 4.300000e-01    2.930000e+00
  SN5q  X4vq  1 4.300000e-01    3.970000e+00
  SN5q  X3vq  1 4.300000e-01    3.770000e+00
  SN5q  X2vq  1 4.300000e-01    3.590000e+00
  SN5q  X1vq  1 4.300000e-01    3.380000e+00
  SN5q  C6eq  1 4.300000e-01    3.770000e+00
  SN5q  C5eq  1 4.300000e-01    3.590000e+00
  SN5q  C4eq  1 4.300000e-01    3.380000e+00
  SN5q  C3eq  1 4.300000e-01    3.380000e+00
  SN5q  C2eq  1 4.300000e-01    2.920000e+00
  SN5q  C1eq  1 4.300000e-01    2.930000e+00
  SN5q  X4eq  1 4.300000e-01    3.970000e+00
  SN5q  X3eq  1 4.300000e-01    3.770000e+00
  SN5q  X2eq  1 4.300000e-01    3.590000e+00
  SN5q  X1eq  1 4.300000e-01    3.380000e+00
  SN4q   N3q  1 4.300000e-01    3.770000e+00
  SN4q   N2q  1 4.300000e-01    3.770000e+00
  SN4q   N1q  1 4.300000e-01    3.590000e+00
  SN4q   C6q  1 4.300000e-01    3.590000e+00
  SN4q   C5q  1 4.300000e-01    3.380000e+00
  SN4q   C4q  1 4.300000e-01    3.380000e+00
  SN4q   C3q  1 4.300000e-01    2.920000e+00
  SN4q   C2q  1 4.300000e-01    2.930000e+00
  SN4q   C1q  1 4.300000e-01    2.770000e+00
  SN4q   X4q  1 4.300000e-01    3.970000e+00
  SN4q   X3q  1 4.300000e-01    3.770000e+00
  SN4q   X2q  1 4.300000e-01    3.380000e+00
  SN4q   X1q  1 4.300000e-01    2.920000e+00
  SN4q  N4dq  1 4.300000e-01    3.970000e+00
  SN4q  N3dq  1 4.300000e-01    3.770000e+00
  SN4q  N2dq  1 4.300000e-01    3.770000e+00
  SN4q  N1dq  1 4.300000e-01    3.590000e+00
  SN4q  N4aq  1 4.300000e-01    3.970000e+00
  SN4q  N3aq  1 4.300000e-01    3.770000e+00
  SN4q  N2aq  1 4.300000e-01    3.770000e+00
  SN4q  N1aq  1 4.300000e-01    3.590000e+00
  SN4q  C6vq  1 4.300000e-01    3.770000e+00
  SN4q  C5vq  1 4.300000e-01    3.590000e+00
  SN4q  C4vq  1 4.300000e-01    3.590000e+00
  SN4q  C3vq  1 4.300000e-01    3.380000e+00
  SN4q  C2vq  1 4.300000e-01    2.920000e+00
  SN4q  C1vq  1 4.300000e-01    2.930000e+00
  SN4q  X4vq  1 4.300000e-01    4.170000e+00
  SN4q  X3vq  1 4.300000e-01    3.970000e+00
  SN4q  X2vq  1 4.300000e-01    3.590000e+00
  SN4q  X1vq  1 4.300000e-01    3.380000e+00
  SN4q  C6eq  1 4.300000e-01    3.770000e+00
  SN4q  C5eq  1 4.300000e-01    3.590000e+00
  SN4q  C4eq  1 4.300000e-01    3.590000e+00
  SN4q  C3eq  1 4.300000e-01    3.380000e+00
  SN4q  C2eq  1 4.300000e-01    2.920000e+00
  SN4q  C1eq  1 4.300000e-01    2.930000e+00
  SN4q  X4eq  1 4.300000e-01    4.170000e+00
  SN4q  X3eq  1 4.300000e-01    3.970000e+00
  SN4q  X2eq  1 4.300000e-01    3.590000e+00
  SN4q  X1eq  1 4.300000e-01    3.380000e+00
  SN3q   N2q  1 4.300000e-01    3.770000e+00
  SN3q   N1q  1 4.300000e-01    3.590000e+00
  SN3q   C6q  1 4.300000e-01    3.590000e+00
  SN3q   C5q  1 4.300000e-01    3.380000e+00
  SN3q   C4q  1 4.300000e-01    3.380000e+00
  SN3q   C3q  1 4.300000e-01    2.920000e+00
  SN3q   C2q  1 4.300000e-01    2.920000e+00
  SN3q   C1q  1 4.300000e-01    2.930000e+00
  SN3q   X4q  1 4.300000e-01    3.770000e+00
  SN3q   X3q  1 4.300000e-01    3.590000e+00
  SN3q   X2q  1 4.300000e-01    3.380000e+00
  SN3q   X1q  1 4.300000e-01    3.380000e+00
  SN3q  N3dq  1 4.300000e-01    3.770000e+00
  SN3q  N2dq  1 4.300000e-01    3.770000e+00
  SN3q  N1dq  1 4.300000e-01    3.590000e+00
  SN3q  N3aq  1 4.300000e-01    3.770000e+00
  SN3q  N2aq  1 4.300000e-01    3.770000e+00
  SN3q  N1aq  1 4.300000e-01    3.590000e+00
  SN3q  C6vq  1 4.300000e-01    3.770000e+00
  SN3q  C5vq  1 4.300000e-01    3.590000e+00
  SN3q  C4vq  1 4.300000e-01    3.590000e+00
  SN3q  C3vq  1 4.300000e-01    3.380000e+00
  SN3q  C2vq  1 4.300000e-01    3.380000e+00
  SN3q  C1vq  1 4.300000e-01    2.920000e+00
  SN3q  X4vq  1 4.300000e-01    3.970000e+00
  SN3q  X3vq  1 4.300000e-01    3.770000e+00
  SN3q  X2vq  1 4.300000e-01    3.590000e+00
  SN3q  X1vq  1 4.300000e-01    3.590000e+00
  SN3q  C6eq  1 4.300000e-01    3.770000e+00
  SN3q  C5eq  1 4.300000e-01    3.590000e+00
  SN3q  C4eq  1 4.300000e-01    3.590000e+00
  SN3q  C3eq  1 4.300000e-01    3.380000e+00
  SN3q  C2eq  1 4.300000e-01    3.380000e+00
  SN3q  C1eq  1 4.300000e-01    2.920000e+00
  SN3q  X4eq  1 4.300000e-01    3.970000e+00
  SN3q  X3eq  1 4.300000e-01    3.770000e+00
  SN3q  X2eq  1 4.300000e-01    3.590000e+00
  SN3q  X1eq  1 4.300000e-01    3.590000e+00
  SN2q   N1q  1 4.300000e-01    3.590000e+00
  SN2q   C6q  1 4.300000e-01    3.590000e+00
  SN2q   C5q  1 4.300000e-01    3.380000e+00
  SN2q   C4q  1 4.300000e-01    3.380000e+00
  SN2q   C3q  1 4.300000e-01    3.380000e+00
  SN2q   C2q  1 4.300000e-01    2.920000e+00
  SN2q   C1q  1 4.300000e-01    2.930000e+00
  SN2q   X4q  1 4.300000e-01    3.770000e+00
  SN2q   X3q  1 4.300000e-01    3.590000e+00
  SN2q   X2q  1 4.300000e-01    3.380000e+00
  SN2q   X1q  1 4.300000e-01    3.380000e+00
  SN2q  N2dq  1 4.300000e-01    3.770000e+00
  SN2q  N1dq  1 4.300000e-01    3.590000e+00
  SN2q  N2aq  1 4.300000e-01    3.770000e+00
  SN2q  N1aq  1 4.300000e-01    3.590000e+00
  SN2q  C6vq  1 4.300000e-01    3.770000e+00
  SN2q  C5vq  1 4.300000e-01    3.590000e+00
  SN2q  C4vq  1 4.300000e-01    3.590000e+00
  SN2q  C3vq  1 4.300000e-01    3.590000e+00
  SN2q  C2vq  1 4.300000e-01    3.380000e+00
  SN2q  C1vq  1 4.300000e-01    2.920000e+00
  SN2q  X4vq  1 4.300000e-01    3.970000e+00
  SN2q  X3vq  1 4.300000e-01    3.770000e+00
  SN2q  X2vq  1 4.300000e-01    3.590000e+00
  SN2q  X1vq  1 4.300000e-01    3.590000e+00
  SN2q  C6eq  1 4.300000e-01    3.770000e+00
  SN2q  C5eq  1 4.300000e-01    3.590000e+00
  SN2q  C4eq  1 4.300000e-01    3.590000e+00
  SN2q  C3eq  1 4.300000e-01    3.590000e+00
  SN2q  C2eq  1 4.300000e-01    3.380000e+00
  SN2q  C1eq  1 4.300000e-01    2.920000e+00
  SN2q  X4eq  1 4.300000e-01    3.970000e+00
  SN2q  X3eq  1 4.300000e-01    3.770000e+00
  SN2q  X2eq  1 4.300000e-01    3.590000e+00
  SN2q  X1eq  1 4.300000e-01    3.590000e+00
  SN1q   C6q  1 4.300000e-01    3.770000e+00
  SN1q   C5q  1 4.300000e-01    3.590000e+00
  SN1q   C4q  1 4.300000e-01    3.590000e+00
  SN1q   C3q  1 4.300000e-01    3.380000e+00
  SN1q   C2q  1 4.300000e-01    2.920000e+00
  SN1q   C1q  1 4.300000e-01    2.930000e+00
  SN1q   X4q  1 4.300000e-01    3.590000e+00
  SN1q   X3q  1 4.300000e-01    3.590000e+00
  SN1q   X2q  1 4.300000e-01    3.380000e+00
  SN1q   X1q  1 4.300000e-01    3.380000e+00
  SN1q  N1dq  1 4.300000e-01    3.770000e+00
  SN1q  N1aq  1 4.300000e-01    3.770000e+00
  SN1q  C6vq  1 4.300000e-01    3.970000e+00
  SN1q  C5vq  1 4.300000e-01    3.770000e+00
  SN1q  C4vq  1 4.300000e-01    3.770000e+00
  SN1q  C3vq  1 4.300000e-01    3.590000e+00
  SN1q  C2vq  1 4.300000e-01    3.380000e+00
  SN1q  C1vq  1 4.300000e-01    2.920000e+00
  SN1q  X4vq  1 4.300000e-01    3.770000e+00
  SN1q  X3vq  1 4.300000e-01    3.770000e+00
  SN1q  X2vq  1 4.300000e-01    3.590000e+00
  SN1q  X1vq  1 4.300000e-01    3.590000e+00
  SN1q  C6eq  1 4.300000e-01    3.970000e+00
  SN1q  C5eq  1 4.300000e-01    3.770000e+00
  SN1q  C4eq  1 4.300000e-01    3.770000e+00
  SN1q  C3eq  1 4.300000e-01    3.590000e+00
  SN1q  C2eq  1 4.300000e-01    3.380000e+00
  SN1q  C1eq  1 4.300000e-01    2.920000e+00
  SN1q  X4eq  1 4.300000e-01    3.770000e+00
  SN1q  X3eq  1 4.300000e-01    3.770000e+00
  SN1q  X2eq  1 4.300000e-01    3.590000e+00
  SN1q  X1eq  1 4.300000e-01    3.590000e+00
  SC6q   C5q  1 4.300000e-01    3.590000e+00
  SC6q   C4q  1 4.300000e-01    3.590000e+00
  SC6q   C3q  1 4.300000e-01    3.380000e+00
  SC6q   C2q  1 4.300000e-01    2.920000e+00
  SC6q   C1q  1 4.300000e-01    2.930000e+00
  SC6q   X4q  1 4.300000e-01    3.590000e+00
  SC6q   X3q  1 4.300000e-01    3.590000e+00
  SC6q   X2q  1 4.300000e-01    3.590000e+00
  SC6q   X1q  1 4.300000e-01    3.590000e+00
  SC6q  C6vq  1 4.300000e-01    3.970000e+00
  SC6q  C5vq  1 4.300000e-01    3.770000e+00
  SC6q  C4vq  1 4.300000e-01    3.770000e+00
  SC6q  C3vq  1 4.300000e-01    3.590000e+00
  SC6q  C2vq  1 4.300000e-01    3.380000e+00
  SC6q  C1vq  1 4.300000e-01    2.920000e+00
  SC6q  X4vq  1 4.300000e-01    3.770000e+00
  SC6q  X3vq  1 4.300000e-01    3.770000e+00
  SC6q  X2vq  1 4.300000e-01    3.770000e+00
  SC6q  X1vq  1 4.300000e-01    3.770000e+00
  SC6q  C6eq  1 4.300000e-01    3.970000e+00
  SC6q  C5eq  1 4.300000e-01    3.770000e+00
  SC6q  C4eq  1 4.300000e-01    3.770000e+00
  SC6q  C3eq  1 4.300000e-01    3.590000e+00
  SC6q  C2eq  1 4.300000e-01    3.380000e+00
  SC6q  C1eq  1 4.300000e-01    2.920000e+00
  SC6q  X4eq  1 4.300000e-01    3.770000e+00
  SC6q  X3eq  1 4.300000e-01    3.770000e+00
  SC6q  X2eq  1 4.300000e-01    3.770000e+00
  SC6q  X1eq  1 4.300000e-01    3.770000e+00
  SC5q   C4q  1 4.300000e-01    3.590000e+00
  SC5q   C3q  1 4.300000e-01    3.380000e+00
  SC5q   C2q  1 4.300000e-01    2.920000e+00
  SC5q   C1q  1 4.300000e-01    2.920000e+00
  SC5q   X4q  1 4.300000e-01    3.380000e+00
  SC5q   X3q  1 4.300000e-01    3.380000e+00
  SC5q   X2q  1 4.300000e-01    3.380000e+00
  SC5q   X1q  1 4.300000e-01    3.590000e+00
  SC5q  C5vq  1 4.300000e-01    3.770000e+00
  SC5q  C4vq  1 4.300000e-01    3.770000e+00
  SC5q  C3vq  1 4.300000e-01    3.590000e+00
  SC5q  C2vq  1 4.300000e-01    3.380000e+00
  SC5q  C1vq  1 4.300000e-01    3.380000e+00
  SC5q  X4vq  1 4.300000e-01    3.590000e+00
  SC5q  X3vq  1 4.300000e-01    3.590000e+00
  SC5q  X2vq  1 4.300000e-01    3.590000e+00
  SC5q  X1vq  1 4.300000e-01    3.770000e+00
  SC5q  C5eq  1 4.300000e-01    3.770000e+00
  SC5q  C4eq  1 4.300000e-01    3.770000e+00
  SC5q  C3eq  1 4.300000e-01    3.590000e+00
  SC5q  C2eq  1 4.300000e-01    3.380000e+00
  SC5q  C1eq  1 4.300000e-01    3.380000e+00
  SC5q  X4eq  1 4.300000e-01    3.590000e+00
  SC5q  X3eq  1 4.300000e-01    3.590000e+00
  SC5q  X2eq  1 4.300000e-01    3.590000e+00
  SC5q  X1eq  1 4.300000e-01    3.770000e+00
  SC4q   C3q  1 4.300000e-01    3.590000e+00
  SC4q   C2q  1 4.300000e-01    3.380000e+00
  SC4q   C1q  1 4.300000e-01    2.920000e+00
  SC4q   X4q  1 4.300000e-01    3.380000e+00
  SC4q   X3q  1 4.300000e-01    3.380000e+00
  SC4q   X2q  1 4.300000e-01    3.380000e+00
  SC4q   X1q  1 4.300000e-01    3.590000e+00
  SC4q  C4vq  1 4.300000e-01    3.770000e+00
  SC4q  C3vq  1 4.300000e-01    3.770000e+00
  SC4q  C2vq  1 4.300000e-01    3.590000e+00
  SC4q  C1vq  1 4.300000e-01    3.380000e+00
  SC4q  X4vq  1 4.300000e-01    3.590000e+00
  SC4q  X3vq  1 4.300000e-01    3.590000e+00
  SC4q  X2vq  1 4.300000e-01    3.590000e+00
  SC4q  X1vq  1 4.300000e-01    3.770000e+00
  SC4q  C4eq  1 4.300000e-01    3.770000e+00
  SC4q  C3eq  1 4.300000e-01    3.770000e+00
  SC4q  C2eq  1 4.300000e-01    3.590000e+00
  SC4q  C1eq  1 4.300000e-01    3.380000e+00
  SC4q  X4eq  1 4.300000e-01    3.590000e+00
  SC4q  X3eq  1 4.300000e-01    3.590000e+00
  SC4q  X2eq  1 4.300000e-01    3.590000e+00
  SC4q  X1eq  1 4.300000e-01    3.770000e+00
  SC3q   C2q  1 4.300000e-01    3.590000e+00
  SC3q   C1q  1 4.300000e-01    3.590000e+00
  SC3q   X4q  1 4.300000e-01    3.380000e+00
  SC3q   X3q  1 4.300000e-01    3.380000e+00
  SC3q   X2q  1 4.300000e-01    3.380000e+00
  SC3q   X1q  1 4.300000e-01    3.590000e+00
  SC3q  C3vq  1 4.300000e-01    3.770000e+00
  SC3q  C2vq  1 4.300000e-01    3.770000e+00
  SC3q  C1vq  1 4.300000e-01    3.770000e+00
  SC3q  X4vq  1 4.300000e-01    3.590000e+00
  SC3q  X3vq  1 4.300000e-01    3.590000e+00
  SC3q  X2vq  1 4.300000e-01    3.590000e+00
  SC3q  X1vq  1 4.300000e-01    3.770000e+00
  SC3q  C3eq  1 4.300000e-01    3.770000e+00
  SC3q  C2eq  1 4.300000e-01    3.770000e+00
  SC3q  C1eq  1 4.300000e-01    3.770000e+00
  SC3q  X4eq  1 4.300000e-01    3.590000e+00
  SC3q  X3eq  1 4.300000e-01    3.590000e+00
  SC3q  X2eq  1 4.300000e-01    3.590000e+00
  SC3q  X1eq  1 4.300000e-01    3.770000e+00
  SC2q   C1q  1 4.300000e-01    3.770000e+00
  SC2q   X4q  1 4.300000e-01    2.930000e+00
  SC2q   X3q  1 4.300000e-01    3.380000e+00
  SC2q   X2q  1 4.300000e-01    3.380000e+00
  SC2q   X1q  1 4.300000e-01    3.380000e+00
  SC2q  C2vq  1 4.300000e-01    3.770000e+00
  SC2q  C1vq  1 4.300000e-01    3.970000e+00
  SC2q  X4vq  1 4.300000e-01    2.920000e+00
  SC2q  X3vq  1 4.300000e-01    3.590000e+00
  SC2q  X2vq  1 4.300000e-01    3.590000e+00
  SC2q  X1vq  1 4.300000e-01    3.590000e+00
  SC2q  C2eq  1 4.300000e-01    3.770000e+00
  SC2q  C1eq  1 4.300000e-01    3.970000e+00
  SC2q  X4eq  1 4.300000e-01    2.920000e+00
  SC2q  X3eq  1 4.300000e-01    3.590000e+00
  SC2q  X2eq  1 4.300000e-01    3.590000e+00
  SC2q  X1eq  1 4.300000e-01    3.590000e+00
  SC1q   X4q  1 4.300000e-01    2.930000e+00
  SC1q   X3q  1 4.300000e-01    3.380000e+00
  SC1q   X2q  1 4.300000e-01    3.380000e+00
  SC1q   X1q  1 4.300000e-01    3.380000e+00
  SC1q  C1vq  1 4.300000e-01    3.770000e+00
  SC1q  X4vq  1 4.300000e-01    2.920000e+00
  SC1q  X3vq  1 4.300000e-01    3.590000e+00
  SC1q  X2vq  1 4.300000e-01    3.590000e+00
  SC1q  X1vq  1 4.300000e-01    3.590000e+00
  SC1q  C1eq  1 4.300000e-01    3.770000e+00
  SC1q  X4eq  1 4.300000e-01    2.920000e+00
  SC1q  X3eq  1 4.300000e-01    3.590000e+00
  SC1q  X2eq  1 4.300000e-01    3.590000e+00
  SC1q  X1eq  1 4.300000e-01    3.590000e+00
  SX4q   X3q  1 4.300000e-01    3.590000e+00
  SX4q   X2q  1 4.300000e-01    3.590000e+00
  SX4q   X1q  1 4.300000e-01    3.590000e+00
  SX4q  X4vq  1 4.300000e-01    3.770000e+00
  SX4q  X3vq  1 4.300000e-01    3.770000e+00
  SX4q  X2vq  1 4.300000e-01    3.770000e+00
  SX4q  X1vq  1 4.300000e-01    3.770000e+00
  SX4q  X4eq  1 4.300000e-01    3.770000e+00
  SX4q  X3eq  1 4.300000e-01    3.770000e+00
  SX4q  X2eq  1 4.300000e-01    3.770000e+00
  SX4q  X1eq  1 4.300000e-01    3.770000e+00
  SX3q   X2q  1 4.300000e-01    3.770000e+00
  SX3q   X1q  1 4.300000e-01    3.770000e+00
  SX3q  X3vq  1 4.300000e-01    3.770000e+00
  SX3q  X2vq  1 4.300000e-01    3.970000e+00
  SX3q  X1vq  1 4.300000e-01    3.970000e+00
  SX3q  X3eq  1 4.300000e-01    3.770000e+00
  SX3q  X2eq  1 4.300000e-01    3.970000e+00
  SX3q  X1eq  1 4.300000e-01    3.970000e+00
  SX2q   X1q  1 4.300000e-01    3.770000e+00
  SX2q  X2vq  1 4.300000e-01    3.970000e+00
  SX2q  X1vq  1 4.300000e-01    3.970000e+00
  SX2q  X2eq  1 4.300000e-01    3.970000e+00
  SX2q  X1eq  1 4.300000e-01    3.970000e+00
  SX1q  X1vq  1 4.300000e-01    4.170000e+00
  SX1q  X1eq  1 4.300000e-01    4.170000e+00
 SP6dq   P5q  1 4.300000e-01    5.210000e+00
 SP6dq   P4q  1 4.300000e-01    4.920000e+00
 SP6dq   P3q  1 4.300000e-01    4.680000e+00
 SP6dq   P2q  1 4.300000e-01    4.680000e+00
 SP6dq   P1q  1 4.300000e-01    4.400000e+00
 SP6dq   N6q  1 4.300000e-01    4.170000e+00
 SP6dq   N5q  1 4.300000e-01    3.770000e+00
 SP6dq   N4q  1 4.300000e-01    3.590000e+00
 SP6dq   N3q  1 4.300000e-01    3.380000e+00
 SP6dq   N2q  1 4.300000e-01    2.920000e+00
 SP6dq   N1q  1 4.300000e-01    2.930000e+00
 SP6dq   C6q  1 4.300000e-01    2.930000e+00
 SP6dq   C5q  1 4.300000e-01    2.770000e+00
 SP6dq   C4q  1 4.300000e-01    2.530000e+00
 SP6dq   C3q  1 4.300000e-01    2.320000e+00
 SP6dq   C2q  1 4.300000e-01    2.320000e+00
 SP6dq   C1q  1 4.300000e-01    1.930000e+00
 SP6dq   X4q  1 4.300000e-01    2.920000e+00
 SP6dq   X3q  1 4.300000e-01    2.920000e+00
 SP6dq   X2q  1 4.300000e-01    2.930000e+00
 SP6dq   X1q  1 4.300000e-01    2.770000e+00
 SP5dq   P4q  1 4.300000e-01    4.680000e+00
 SP5dq   P3q  1 4.300000e-01    4.400000e+00
 SP5dq   P2q  1 4.300000e-01    4.400000e+00
 SP5dq   P1q  1 4.300000e-01    4.170000e+00
 SP5dq   N6q  1 4.300000e-01    3.970000e+00
 SP5dq   N5q  1 4.300000e-01    3.770000e+00
 SP5dq   N4q  1 4.300000e-01    3.770000e+00
 SP5dq   N3q  1 4.300000e-01    3.380000e+00
 SP5dq   N2q  1 4.300000e-01    2.920000e+00
 SP5dq   N1q  1 4.300000e-01    2.930000e+00
 SP5dq   C6q  1 4.300000e-01    2.930000e+00
 SP5dq   C5q  1 4.300000e-01    2.930000e+00
 SP5dq   C4q  1 4.300000e-01    2.770000e+00
 SP5dq   C3q  1 4.300000e-01    2.530000e+00
 SP5dq   C2q  1 4.300000e-01    2.530000e+00
 SP5dq   C1q  1 4.300000e-01    2.320000e+00
 SP5dq   X4q  1 4.300000e-01    3.380000e+00
 SP5dq   X3q  1 4.300000e-01    2.920000e+00
 SP5dq   X2q  1 4.300000e-01    2.920000e+00
 SP5dq   X1q  1 4.300000e-01    2.770000e+00
 SP4dq   P3q  1 4.300000e-01    4.400000e+00
 SP4dq   P2q  1 4.300000e-01    4.400000e+00
 SP4dq   P1q  1 4.300000e-01    4.170000e+00
 SP4dq   N6q  1 4.300000e-01    3.970000e+00
 SP4dq   N5q  1 4.300000e-01    3.770000e+00
 SP4dq   N4q  1 4.300000e-01    3.770000e+00
 SP4dq   N3q  1 4.300000e-01    3.590000e+00
 SP4dq   N2q  1 4.300000e-01    3.380000e+00
 SP4dq   N1q  1 4.300000e-01    2.920000e+00
 SP4dq   C6q  1 4.300000e-01    2.920000e+00
 SP4dq   C5q  1 4.300000e-01    2.930000e+00
 SP4dq   C4q  1 4.300000e-01    2.770000e+00
 SP4dq   C3q  1 4.300000e-01    2.530000e+00
 SP4dq   C2q  1 4.300000e-01    2.530000e+00
 SP4dq   C1q  1 4.300000e-01    2.320000e+00
 SP4dq   X4q  1 4.300000e-01    3.380000e+00
 SP4dq   X3q  1 4.300000e-01    2.920000e+00
 SP4dq   X2q  1 4.300000e-01    2.920000e+00
 SP4dq   X1q  1 4.300000e-01    2.930000e+00
 SP3dq   P2q  1 4.300000e-01    4.400000e+00
 SP3dq   P1q  1 4.300000e-01    4.170000e+00
 SP3dq   N6q  1 4.300000e-01    3.970000e+00
 SP3dq   N5q  1 4.300000e-01    3.770000e+00
 SP3dq   N4q  1 4.300000e-01    3.770000e+00
 SP3dq   N3q  1 4.300000e-01    3.590000e+00
 SP3dq   N2q  1 4.300000e-01    3.590000e+00
 SP3dq   N1q  1 4.300000e-01    3.380000e+00
 SP3dq   C6q  1 4.300000e-01    3.380000e+00
 SP3dq   C5q  1 4.300000e-01    2.920000e+00
 SP3dq   C4q  1 4.300000e-01    2.930000e+00
 SP3dq   C3q  1 4.300000e-01    2.530000e+00
 SP3dq   C2q  1 4.300000e-01    2.530000e+00
 SP3dq   C1q  1 4.300000e-01    2.320000e+00
 SP3dq   X4q  1 4.300000e-01    3.380000e+00
 SP3dq   X3q  1 4.300000e-01    3.380000e+00
 SP3dq   X2q  1 4.300000e-01    2.920000e+00
 SP3dq   X1q  1 4.300000e-01    2.930000e+00
 SP2dq   P1q  1 4.300000e-01    4.170000e+00
 SP2dq   N6q  1 4.300000e-01    4.170000e+00
 SP2dq   N5q  1 4.300000e-01    3.970000e+00
 SP2dq   N4q  1 4.300000e-01    3.770000e+00
 SP2dq   N3q  1 4.300000e-01    3.590000e+00
 SP2dq   N2q  1 4.300000e-01    3.590000e+00
 SP2dq   N1q  1 4.300000e-01    3.590000e+00
 SP2dq   C6q  1 4.300000e-01    3.380000e+00
 SP2dq   C5q  1 4.300000e-01    2.920000e+00
 SP2dq   C4q  1 4.300000e-01    2.930000e+00
 SP2dq   C3q  1 4.300000e-01    2.770000e+00
 SP2dq   C2q  1 4.300000e-01    2.770000e+00
 SP2dq   C1q  1 4.300000e-01    2.530000e+00
 SP2dq   X4q  1 4.300000e-01    3.380000e+00
 SP2dq   X3q  1 4.300000e-01    3.380000e+00
 SP2dq   X2q  1 4.300000e-01    2.920000e+00
 SP2dq   X1q  1 4.300000e-01    2.930000e+00
 SP1dq   N6q  1 4.300000e-01    4.170000e+00
 SP1dq   N5q  1 4.300000e-01    3.970000e+00
 SP1dq   N4q  1 4.300000e-01    3.970000e+00
 SP1dq   N3q  1 4.300000e-01    3.590000e+00
 SP1dq   N2q  1 4.300000e-01    3.590000e+00
 SP1dq   N1q  1 4.300000e-01    3.590000e+00
 SP1dq   C6q  1 4.300000e-01    3.380000e+00
 SP1dq   C5q  1 4.300000e-01    2.920000e+00
 SP1dq   C4q  1 4.300000e-01    2.930000e+00
 SP1dq   C3q  1 4.300000e-01    2.770000e+00
 SP1dq   C2q  1 4.300000e-01    2.770000e+00
 SP1dq   C1q  1 4.300000e-01    2.530000e+00
 SP1dq   X4q  1 4.300000e-01    3.380000e+00
 SP1dq   X3q  1 4.300000e-01    3.380000e+00
 SP1dq   X2q  1 4.300000e-01    2.920000e+00
 SP1dq   X1q  1 4.300000e-01    2.930000e+00
 SN6dq   N5q  1 4.300000e-01    4.170000e+00
 SN6dq   N4q  1 4.300000e-01    4.170000e+00
 SN6dq   N3q  1 4.300000e-01    3.770000e+00
 SN6dq   N2q  1 4.300000e-01    3.590000e+00
 SN6dq   N1q  1 4.300000e-01    3.590000e+00
 SN6dq   C6q  1 4.300000e-01    3.590000e+00
 SN6dq   C5q  1 4.300000e-01    3.380000e+00
 SN6dq   C4q  1 4.300000e-01    2.920000e+00
 SN6dq   C3q  1 4.300000e-01    2.930000e+00
 SN6dq   C2q  1 4.300000e-01    2.930000e+00
 SN6dq   C1q  1 4.300000e-01    2.770000e+00
 SN6dq   X4q  1 4.300000e-01    3.590000e+00
 SN6dq   X3q  1 4.300000e-01    3.380000e+00
 SN6dq   X2q  1 4.300000e-01    2.920000e+00
 SN6dq   X1q  1 4.300000e-01    2.930000e+00
 SN5dq   N4q  1 4.300000e-01    3.970000e+00
 SN5dq   N3q  1 4.300000e-01    3.770000e+00
 SN5dq   N2q  1 4.300000e-01    3.770000e+00
 SN5dq   N1q  1 4.300000e-01    3.590000e+00
 SN5dq   C6q  1 4.300000e-01    3.590000e+00
 SN5dq   C5q  1 4.300000e-01    3.380000e+00
 SN5dq   C4q  1 4.300000e-01    2.920000e+00
 SN5dq   C3q  1 4.300000e-01    2.920000e+00
 SN5dq   C2q  1 4.300000e-01    2.930000e+00
 SN5dq   C1q  1 4.300000e-01    2.770000e+00
 SN5dq   X4q  1 4.300000e-01    3.770000e+00
 SN5dq   X3q  1 4.300000e-01    3.590000e+00
 SN5dq   X2q  1 4.300000e-01    3.380000e+00
 SN5dq   X1q  1 4.300000e-01    2.920000e+00
 SN4dq   N3q  1 4.300000e-01    3.770000e+00
 SN4dq   N2q  1 4.300000e-01    3.770000e+00
 SN4dq   N1q  1 4.300000e-01    3.590000e+00
 SN4dq   C6q  1 4.300000e-01    3.590000e+00
 SN4dq   C5q  1 4.300000e-01    3.380000e+00
 SN4dq   C4q  1 4.300000e-01    3.380000e+00
 SN4dq   C3q  1 4.300000e-01    2.920000e+00
 SN4dq   C2q  1 4.300000e-01    2.930000e+00
 SN4dq   C1q  1 4.300000e-01    2.770000e+00
 SN4dq   X4q  1 4.300000e-01    3.970000e+00
 SN4dq   X3q  1 4.300000e-01    3.770000e+00
 SN4dq   X2q  1 4.300000e-01    3.380000e+00
 SN4dq   X1q  1 4.300000e-01    2.920000e+00
 SN3dq   N2q  1 4.300000e-01    3.770000e+00
 SN3dq   N1q  1 4.300000e-01    3.590000e+00
 SN3dq   C6q  1 4.300000e-01    3.590000e+00
 SN3dq   C5q  1 4.300000e-01    3.380000e+00
 SN3dq   C4q  1 4.300000e-01    3.380000e+00
 SN3dq   C3q  1 4.300000e-01    2.920000e+00
 SN3dq   C2q  1 4.300000e-01    2.920000e+00
 SN3dq   C1q  1 4.300000e-01    2.930000e+00
 SN3dq   X4q  1 4.300000e-01    3.770000e+00
 SN3dq   X3q  1 4.300000e-01    3.590000e+00
 SN3dq   X2q  1 4.300000e-01    3.380000e+00
 SN3dq   X1q  1 4.300000e-01    3.380000e+00
 SN2dq   N1q  1 4.300000e-01    3.590000e+00
 SN2dq   C6q  1 4.300000e-01    3.590000e+00
 SN2dq   C5q  1 4.300000e-01    3.380000e+00
 SN2dq   C4q  1 4.300000e-01    3.380000e+00
 SN2dq   C3q  1 4.300000e-01    3.380000e+00
 SN2dq   C2q  1 4.300000e-01    2.920000e+00
 SN2dq   C1q  1 4.300000e-01    2.930000e+00
 SN2dq   X4q  1 4.300000e-01    3.770000e+00
 SN2dq   X3q  1 4.300000e-01    3.590000e+00
 SN2dq   X2q  1 4.300000e-01    3.380000e+00
 SN2dq   X1q  1 4.300000e-01    3.380000e+00
 SN1dq   C6q  1 4.300000e-01    3.770000e+00
 SN1dq   C5q  1 4.300000e-01    3.590000e+00
 SN1dq   C4q  1 4.300000e-01    3.590000e+00
 SN1dq   C3q  1 4.300000e-01    3.380000e+00
 SN1dq   C2q  1 4.300000e-01    2.920000e+00
 SN1dq   C1q  1 4.300000e-01    2.930000e+00
 SN1dq   X4q  1 4.300000e-01    3.590000e+00
 SN1dq   X3q  1 4.300000e-01    3.590000e+00
 SN1dq   X2q  1 4.300000e-01    3.380000e+00
 SN1dq   X1q  1 4.300000e-01    3.380000e+00
 SP6aq   P5q  1 4.300000e-01    5.210000e+00
 SP6aq   P4q  1 4.300000e-01    4.920000e+00
 SP6aq   P3q  1 4.300000e-01    4.680000e+00
 SP6aq   P2q  1 4.300000e-01    4.680000e+00
 SP6aq   P1q  1 4.300000e-01    4.400000e+00
 SP6aq   N6q  1 4.300000e-01    4.170000e+00
 SP6aq   N5q  1 4.300000e-01    3.770000e+00
 SP6aq   N4q  1 4.300000e-01    3.590000e+00
 SP6aq   N3q  1 4.300000e-01    3.380000e+00
 SP6aq   N2q  1 4.300000e-01    2.920000e+00
 SP6aq   N1q  1 4.300000e-01    2.930000e+00
 SP6aq   C6q  1 4.300000e-01    2.930000e+00
 SP6aq   C5q  1 4.300000e-01    2.770000e+00
 SP6aq   C4q  1 4.300000e-01    2.530000e+00
 SP6aq   C3q  1 4.300000e-01    2.320000e+00
 SP6aq   C2q  1 4.300000e-01    2.320000e+00
 SP6aq   C1q  1 4.300000e-01    1.930000e+00
 SP6aq   X4q  1 4.300000e-01    2.920000e+00
 SP6aq   X3q  1 4.300000e-01    2.920000e+00
 SP6aq   X2q  1 4.300000e-01    2.930000e+00
 SP6aq   X1q  1 4.300000e-01    2.770000e+00
 SP5aq   P4q  1 4.300000e-01    4.680000e+00
 SP5aq   P3q  1 4.300000e-01    4.400000e+00
 SP5aq   P2q  1 4.300000e-01    4.400000e+00
 SP5aq   P1q  1 4.300000e-01    4.170000e+00
 SP5aq   N6q  1 4.300000e-01    3.970000e+00
 SP5aq   N5q  1 4.300000e-01    3.770000e+00
 SP5aq   N4q  1 4.300000e-01    3.770000e+00
 SP5aq   N3q  1 4.300000e-01    3.380000e+00
 SP5aq   N2q  1 4.300000e-01    2.920000e+00
 SP5aq   N1q  1 4.300000e-01    2.930000e+00
 SP5aq   C6q  1 4.300000e-01    2.930000e+00
 SP5aq   C5q  1 4.300000e-01    2.930000e+00
 SP5aq   C4q  1 4.300000e-01    2.770000e+00
 SP5aq   C3q  1 4.300000e-01    2.530000e+00
 SP5aq   C2q  1 4.300000e-01    2.530000e+00
 SP5aq   C1q  1 4.300000e-01    2.320000e+00
 SP5aq   X4q  1 4.300000e-01    3.380000e+00
 SP5aq   X3q  1 4.300000e-01    2.920000e+00
 SP5aq   X2q  1 4.300000e-01    2.920000e+00
 SP5aq   X1q  1 4.300000e-01    2.770000e+00
 SP4aq   P3q  1 4.300000e-01    4.400000e+00
 SP4aq   P2q  1 4.300000e-01    4.400000e+00
 SP4aq   P1q  1 4.300000e-01    4.170000e+00
 SP4aq   N6q  1 4.300000e-01    3.970000e+00
 SP4aq   N5q  1 4.300000e-01    3.770000e+00
 SP4aq   N4q  1 4.300000e-01    3.770000e+00
 SP4aq   N3q  1 4.300000e-01    3.590000e+00
 SP4aq   N2q  1 4.300000e-01    3.380000e+00
 SP4aq   N1q  1 4.300000e-01    2.920000e+00
 SP4aq   C6q  1 4.300000e-01    2.920000e+00
 SP4aq   C5q  1 4.300000e-01    2.930000e+00
 SP4aq   C4q  1 4.300000e-01    2.770000e+00
 SP4aq   C3q  1 4.300000e-01    2.530000e+00
 SP4aq   C2q  1 4.300000e-01    2.530000e+00
 SP4aq   C1q  1 4.300000e-01    2.320000e+00
 SP4aq   X4q  1 4.300000e-01    3.380000e+00
 SP4aq   X3q  1 4.300000e-01    2.920000e+00
 SP4aq   X2q  1 4.300000e-01    2.920000e+00
 SP4aq   X1q  1 4.300000e-01    2.930000e+00
 SP3aq   P2q  1 4.300000e-01    4.400000e+00
 SP3aq   P1q  1 4.300000e-01    4.170000e+00
 SP3aq   N6q  1 4.300000e-01    3.970000e+00
 SP3aq   N5q  1 4.300000e-01    3.770000e+00
 SP3aq   N4q  1 4.300000e-01    3.770000e+00
 SP3aq   N3q  1 4.300000e-01    3.590000e+00
 SP3aq   N2q  1 4.300000e-01    3.590000e+00
 SP3aq   N1q  1 4.300000e-01    3.380000e+00
 SP3aq   C6q  1 4.300000e-01    3.380000e+00
 SP3aq   C5q  1 4.300000e-01    2.920000e+00
 SP3aq   C4q  1 4.300000e-01    2.930000e+00
 SP3aq   C3q  1 4.300000e-01    2.530000e+00
 SP3aq   C2q  1 4.300000e-01    2.530000e+00
 SP3aq   C1q  1 4.300000e-01    2.320000e+00
 SP3aq   X4q  1 4.300000e-01    3.380000e+00
 SP3aq   X3q  1 4.300000e-01    3.380000e+00
 SP3aq   X2q  1 4.300000e-01    2.920000e+00
 SP3aq   X1q  1 4.300000e-01    2.930000e+00
 SP2aq   P1q  1 4.300000e-01    4.170000e+00
 SP2aq   N6q  1 4.300000e-01    4.170000e+00
 SP2aq   N5q  1 4.300000e-01    3.970000e+00
 SP2aq   N4q  1 4.300000e-01    3.770000e+00
 SP2aq   N3q  1 4.300000e-01    3.590000e+00
 SP2aq   N2q  1 4.300000e-01    3.590000e+00
 SP2aq   N1q  1 4.300000e-01    3.590000e+00
 SP2aq   C6q  1 4.300000e-01    3.380000e+00
 SP2aq   C5q  1 4.300000e-01    2.920000e+00
 SP2aq   C4q  1 4.300000e-01    2.930000e+00
 SP2aq   C3q  1 4.300000e-01    2.770000e+00
 SP2aq   C2q  1 4.300000e-01    2.770000e+00
 SP2aq   C1q  1 4.300000e-01    2.530000e+00
 SP2aq   X4q  1 4.300000e-01    3.380000e+00
 SP2aq   X3q  1 4.300000e-01    3.380000e+00
 SP2aq   X2q  1 4.300000e-01    2.920000e+00
 SP2aq   X1q  1 4.300000e-01    2.930000e+00
 SP1aq   N6q  1 4.300000e-01    4.170000e+00
 SP1aq   N5q  1 4.300000e-01    3.970000e+00
 SP1aq   N4q  1 4.300000e-01    3.970000e+00
 SP1aq   N3q  1 4.300000e-01    3.590000e+00
 SP1aq   N2q  1 4.300000e-01    3.590000e+00
 SP1aq   N1q  1 4.300000e-01    3.590000e+00
 SP1aq   C6q  1 4.300000e-01    3.380000e+00
 SP1aq   C5q  1 4.300000e-01    2.920000e+00
 SP1aq   C4q  1 4.300000e-01    2.930000e+00
 SP1aq   C3q  1 4.300000e-01    2.770000e+00
 SP1aq   C2q  1 4.300000e-01    2.770000e+00
 SP1aq   C1q  1 4.300000e-01    2.530000e+00
 SP1aq   X4q  1 4.300000e-01    3.380000e+00
 SP1aq   X3q  1 4.300000e-01    3.380000e+00
 SP1aq   X2q  1 4.300000e-01    2.920000e+00
 SP1aq   X1q  1 4.300000e-01    2.930000e+00
 SN6aq   N5q  1 4.300000e-01    4.170000e+00
 SN6aq   N4q  1 4.300000e-01    4.170000e+00
 SN6aq   N3q  1 4.300000e-01    3.770000e+00
 SN6aq   N2q  1 4.300000e-01    3.590000e+00
 SN6aq   N1q  1 4.300000e-01    3.590000e+00
 SN6aq   C6q  1 4.300000e-01    3.590000e+00
 SN6aq   C5q  1 4.300000e-01    3.380000e+00
 SN6aq   C4q  1 4.300000e-01    2.920000e+00
 SN6aq   C3q  1 4.300000e-01    2.930000e+00
 SN6aq   C2q  1 4.300000e-01    2.930000e+00
 SN6aq   C1q  1 4.300000e-01    2.770000e+00
 SN6aq   X4q  1 4.300000e-01    3.590000e+00
 SN6aq   X3q  1 4.300000e-01    3.380000e+00
 SN6aq   X2q  1 4.300000e-01    2.920000e+00
 SN6aq   X1q  1 4.300000e-01    2.930000e+00
 SN5aq   N4q  1 4.300000e-01    3.970000e+00
 SN5aq   N3q  1 4.300000e-01    3.770000e+00
 SN5aq   N2q  1 4.300000e-01    3.770000e+00
 SN5aq   N1q  1 4.300000e-01    3.590000e+00
 SN5aq   C6q  1 4.300000e-01    3.590000e+00
 SN5aq   C5q  1 4.300000e-01    3.380000e+00
 SN5aq   C4q  1 4.300000e-01    2.920000e+00
 SN5aq   C3q  1 4.300000e-01    2.920000e+00
 SN5aq   C2q  1 4.300000e-01    2.930000e+00
 SN5aq   C1q  1 4.300000e-01    2.770000e+00
 SN5aq   X4q  1 4.300000e-01    3.770000e+00
 SN5aq   X3q  1 4.300000e-01    3.590000e+00
 SN5aq   X2q  1 4.300000e-01    3.380000e+00
 SN5aq   X1q  1 4.300000e-01    2.920000e+00
 SN4aq   N3q  1 4.300000e-01    3.770000e+00
 SN4aq   N2q  1 4.300000e-01    3.770000e+00
 SN4aq   N1q  1 4.300000e-01    3.590000e+00
 SN4aq   C6q  1 4.300000e-01    3.590000e+00
 SN4aq   C5q  1 4.300000e-01    3.380000e+00
 SN4aq   C4q  1 4.300000e-01    3.380000e+00
 SN4aq   C3q  1 4.300000e-01    2.920000e+00
 SN4aq   C2q  1 4.300000e-01    2.930000e+00
 SN4aq   C1q  1 4.300000e-01    2.770000e+00
 SN4aq   X4q  1 4.300000e-01    3.970000e+00
 SN4aq   X3q  1 4.300000e-01    3.770000e+00
 SN4aq   X2q  1 4.300000e-01    3.380000e+00
 SN4aq   X1q  1 4.300000e-01    2.920000e+00
 SN3aq   N2q  1 4.300000e-01    3.770000e+00
 SN3aq   N1q  1 4.300000e-01    3.590000e+00
 SN3aq   C6q  1 4.300000e-01    3.590000e+00
 SN3aq   C5q  1 4.300000e-01    3.380000e+00
 SN3aq   C4q  1 4.300000e-01    3.380000e+00
 SN3aq   C3q  1 4.300000e-01    2.920000e+00
 SN3aq   C2q  1 4.300000e-01    2.920000e+00
 SN3aq   C1q  1 4.300000e-01    2.930000e+00
 SN3aq   X4q  1 4.300000e-01    3.770000e+00
 SN3aq   X3q  1 4.300000e-01    3.590000e+00
 SN3aq   X2q  1 4.300000e-01    3.380000e+00
 SN3aq   X1q  1 4.300000e-01    3.380000e+00
 SN2aq   N1q  1 4.300000e-01    3.590000e+00
 SN2aq   C6q  1 4.300000e-01    3.590000e+00
 SN2aq   C5q  1 4.300000e-01    3.380000e+00
 SN2aq   C4q  1 4.300000e-01    3.380000e+00
 SN2aq   C3q  1 4.300000e-01    3.380000e+00
 SN2aq   C2q  1 4.300000e-01    2.920000e+00
 SN2aq   C1q  1 4.300000e-01    2.930000e+00
 SN2aq   X4q  1 4.300000e-01    3.770000e+00
 SN2aq   X3q  1 4.300000e-01    3.590000e+00
 SN2aq   X2q  1 4.300000e-01    3.380000e+00
 SN2aq   X1q  1 4.300000e-01    3.380000e+00
 SN1aq   C6q  1 4.300000e-01    3.770000e+00
 SN1aq   C5q  1 4.300000e-01    3.590000e+00
 SN1aq   C4q  1 4.300000e-01    3.590000e+00
 SN1aq   C3q  1 4.300000e-01    3.380000e+00
 SN1aq   C2q  1 4.300000e-01    2.920000e+00
 SN1aq   C1q  1 4.300000e-01    2.930000e+00
 SN1aq   X4q  1 4.300000e-01    3.590000e+00
 SN1aq   X3q  1 4.300000e-01    3.590000e+00
 SN1aq   X2q  1 4.300000e-01    3.380000e+00
 SN1aq   X1q  1 4.300000e-01    3.380000e+00
 SC6vq   C5q  1 4.300000e-01    3.770000e+00
 SC6vq   C4q  1 4.300000e-01    3.770000e+00
 SC6vq   C3q  1 4.300000e-01    3.590000e+00
 SC6vq   C2q  1 4.300000e-01    3.380000e+00
 SC6vq   C1q  1 4.300000e-01    2.920000e+00
 SC6vq   X4q  1 4.300000e-01    3.770000e+00
 SC6vq   X3q  1 4.300000e-01    3.770000e+00
 SC6vq   X2q  1 4.300000e-01    3.770000e+00
 SC6vq   X1q  1 4.300000e-01    3.770000e+00
 SC6vq  C5vq  1 4.300000e-01    3.380000e+00
 SC6vq  C4vq  1 4.300000e-01    3.380000e+00
 SC6vq  C3vq  1 4.300000e-01    2.920000e+00
 SC6vq  C2vq  1 4.300000e-01    2.930000e+00
 SC6vq  C1vq  1 4.300000e-01    2.770000e+00
 SC6vq  X4vq  1 4.300000e-01    3.380000e+00
 SC6vq  X3vq  1 4.300000e-01    3.380000e+00
 SC6vq  X2vq  1 4.300000e-01    3.380000e+00
 SC6vq  X1vq  1 4.300000e-01    3.380000e+00
 SC5vq   C4q  1 4.300000e-01    3.770000e+00
 SC5vq   C3q  1 4.300000e-01    3.590000e+00
 SC5vq   C2q  1 4.300000e-01    3.380000e+00
 SC5vq   C1q  1 4.300000e-01    3.380000e+00
 SC5vq   X4q  1 4.300000e-01    3.590000e+00
 SC5vq   X3q  1 4.300000e-01    3.590000e+00
 SC5vq   X2q  1 4.300000e-01    3.590000e+00
 SC5vq   X1q  1 4.300000e-01    3.770000e+00
 SC5vq  C4vq  1 4.300000e-01    3.380000e+00
 SC5vq  C3vq  1 4.300000e-01    2.920000e+00
 SC5vq  C2vq  1 4.300000e-01    2.930000e+00
 SC5vq  C1vq  1 4.300000e-01    2.930000e+00
 SC5vq  X4vq  1 4.300000e-01    2.920000e+00
 SC5vq  X3vq  1 4.300000e-01    2.920000e+00
 SC5vq  X2vq  1 4.300000e-01    2.920000e+00
 SC5vq  X1vq  1 4.300000e-01    3.380000e+00
 SC4vq   C3q  1 4.300000e-01    3.770000e+00
 SC4vq   C2q  1 4.300000e-01    3.590000e+00
 SC4vq   C1q  1 4.300000e-01    3.380000e+00
 SC4vq   X4q  1 4.300000e-01    3.590000e+00
 SC4vq   X3q  1 4.300000e-01    3.590000e+00
 SC4vq   X2q  1 4.300000e-01    3.590000e+00
 SC4vq   X1q  1 4.300000e-01    3.770000e+00
 SC4vq  C3vq  1 4.300000e-01    3.380000e+00
 SC4vq  C2vq  1 4.300000e-01    2.920000e+00
 SC4vq  C1vq  1 4.300000e-01    2.930000e+00
 SC4vq  X4vq  1 4.300000e-01    2.920000e+00
 SC4vq  X3vq  1 4.300000e-01    2.920000e+00
 SC4vq  X2vq  1 4.300000e-01    2.920000e+00
 SC4vq  X1vq  1 4.300000e-01    3.380000e+00
 SC3vq   C2q  1 4.300000e-01    3.770000e+00
 SC3vq   C1q  1 4.300000e-01    3.770000e+00
 SC3vq   X4q  1 4.300000e-01    3.590000e+00
 SC3vq   X3q  1 4.300000e-01    3.590000e+00
 SC3vq   X2q  1 4.300000e-01    3.590000e+00
 SC3vq   X1q  1 4.300000e-01    3.770000e+00
 SC3vq  C2vq  1 4.300000e-01    3.380000e+00
 SC3vq  C1vq  1 4.300000e-01    3.380000e+00
 SC3vq  X4vq  1 4.300000e-01    2.920000e+00
 SC3vq  X3vq  1 4.300000e-01    2.920000e+00
 SC3vq  X2vq  1 4.300000e-01    2.920000e+00
 SC3vq  X1vq  1 4.300000e-01    3.380000e+00
 SC2vq   C1q  1 4.300000e-01    3.970000e+00
 SC2vq   X4q  1 4.300000e-01    2.920000e+00
 SC2vq   X3q  1 4.300000e-01    3.590000e+00
 SC2vq   X2q  1 4.300000e-01    3.590000e+00
 SC2vq   X1q  1 4.300000e-01    3.590000e+00
 SC2vq  C1vq  1 4.300000e-01    3.590000e+00
 SC2vq  X4vq  1 4.300000e-01    2.770000e+00
 SC2vq  X3vq  1 4.300000e-01    2.920000e+00
 SC2vq  X2vq  1 4.300000e-01    2.920000e+00
 SC2vq  X1vq  1 4.300000e-01    2.920000e+00
 SC1vq   X4q  1 4.300000e-01    2.920000e+00
 SC1vq   X3q  1 4.300000e-01    3.590000e+00
 SC1vq   X2q  1 4.300000e-01    3.590000e+00
 SC1vq   X1q  1 4.300000e-01    3.590000e+00
 SC1vq  X4vq  1 4.300000e-01    2.770000e+00
 SC1vq  X3vq  1 4.300000e-01    2.920000e+00
 SC1vq  X2vq  1 4.300000e-01    2.920000e+00
 SC1vq  X1vq  1 4.300000e-01    2.920000e+00
 SX4vq   X3q  1 4.300000e-01    3.770000e+00
 SX4vq   X2q  1 4.300000e-01    3.770000e+00
 SX4vq   X1q  1 4.300000e-01    3.770000e+00
 SX4vq  X3vq  1 4.300000e-01    3.380000e+00
 SX4vq  X2vq  1 4.300000e-01    3.380000e+00
 SX4vq  X1vq  1 4.300000e-01    3.380000e+00
 SX3vq   X2q  1 4.300000e-01    3.970000e+00
 SX3vq   X1q  1 4.300000e-01    3.970000e+00
 SX3vq  X2vq  1 4.300000e-01    3.590000e+00
 SX3vq  X1vq  1 4.300000e-01    3.590000e+00
 SX2vq   X1q  1 4.300000e-01    3.970000e+00
 SX2vq  X1vq  1 4.300000e-01    3.590000e+00
 SC6eq   C5q  1 4.300000e-01    3.770000e+00
 SC6eq   C4q  1 4.300000e-01    3.770000e+00
 SC6eq   C3q  1 4.300000e-01    3.590000e+00
 SC6eq   C2q  1 4.300000e-01    3.380000e+00
 SC6eq   C1q  1 4.300000e-01    2.920000e+00
 SC6eq   X4q  1 4.300000e-01    3.770000e+00
 SC6eq   X3q  1 4.300000e-01    3.770000e+00
 SC6eq   X2q  1 4.300000e-01    3.770000e+00
 SC6eq   X1q  1 4.300000e-01    3.770000e+00
 SC6eq  C5eq  1 4.300000e-01    3.380000e+00
 SC6eq  C4eq  1 4.300000e-01    3.380000e+00
 SC6eq  C3eq  1 4.300000e-01    2.920000e+00
 SC6eq  C2eq  1 4.300000e-01    2.930000e+00
 SC6eq  C1eq  1 4.300000e-01    2.770000e+00
 SC6eq  X4eq  1 4.300000e-01    3.380000e+00
 SC6eq  X3eq  1 4.300000e-01    3.380000e+00
 SC6eq  X2eq  1 4.300000e-01    3.380000e+00
 SC6eq  X1eq  1 4.300000e-01    3.380000e+00
 SC5eq   C4q  1 4.300000e-01    3.770000e+00
 SC5eq   C3q  1 4.300000e-01    3.590000e+00
 SC5eq   C2q  1 4.300000e-01    3.380000e+00
 SC5eq   C1q  1 4.300000e-01    3.380000e+00
 SC5eq   X4q  1 4.300000e-01    3.590000e+00
 SC5eq   X3q  1 4.300000e-01    3.590000e+00
 SC5eq   X2q  1 4.300000e-01    3.590000e+00
 SC5eq   X1q  1 4.300000e-01    3.770000e+00
 SC5eq  C4eq  1 4.300000e-01    3.380000e+00
 SC5eq  C3eq  1 4.300000e-01    2.920000e+00
 SC5eq  C2eq  1 4.300000e-01    2.930000e+00
 SC5eq  C1eq  1 4.300000e-01    2.930000e+00
 SC5eq  X4eq  1 4.300000e-01    2.920000e+00
 SC5eq  X3eq  1 4.300000e-01    2.920000e+00
 SC5eq  X2eq  1 4.300000e-01    2.920000e+00
 SC5eq  X1eq  1 4.300000e-01    3.380000e+00
 SC4eq   C3q  1 4.300000e-01    3.770000e+00
 SC4eq   C2q  1 4.300000e-01    3.590000e+00
 SC4eq   C1q  1 4.300000e-01    3.380000e+00
 SC4eq   X4q  1 4.300000e-01    3.590000e+00
 SC4eq   X3q  1 4.300000e-01    3.590000e+00
 SC4eq   X2q  1 4.300000e-01    3.590000e+00
 SC4eq   X1q  1 4.300000e-01    3.770000e+00
 SC4eq  C3eq  1 4.300000e-01    3.380000e+00
 SC4eq  C2eq  1 4.300000e-01    2.920000e+00
 SC4eq  C1eq  1 4.300000e-01    2.930000e+00
 SC4eq  X4eq  1 4.300000e-01    2.920000e+00
 SC4eq  X3eq  1 4.300000e-01    2.920000e+00
 SC4eq  X2eq  1 4.300000e-01    2.920000e+00
 SC4eq  X1eq  1 4.300000e-01    3.380000e+00
 SC3eq   C2q  1 4.300000e-01    3.770000e+00
 SC3eq   C1q  1 4.300000e-01    3.770000e+00
 SC3eq   X4q  1 4.300000e-01    3.590000e+00
 SC3eq   X3q  1 4.300000e-01    3.590000e+00
 SC3eq   X2q  1 4.300000e-01    3.590000e+00
 SC3eq   X1q  1 4.300000e-01    3.770000e+00
 SC3eq  C2eq  1 4.300000e-01    3.380000e+00
 SC3eq  C1eq  1 4.300000e-01    3.380000e+00
 SC3eq  X4eq  1 4.300000e-01    2.920000e+00
 SC3eq  X3eq  1 4.300000e-01    2.920000e+00
 SC3eq  X2eq  1 4.300000e-01    2.920000e+00
 SC3eq  X1eq  1 4.300000e-01    3.380000e+00
 SC2eq   C1q  1 4.300000e-01    3.970000e+00
 SC2eq   X4q  1 4.300000e-01    2.920000e+00
 SC2eq   X3q  1 4.300000e-01    3.590000e+00
 SC2eq   X2q  1 4.300000e-01    3.590000e+00
 SC2eq   X1q  1 4.300000e-01    3.590000e+00
 SC2eq  C1eq  1 4.300000e-01    3.590000e+00
 SC2eq  X4eq  1 4.300000e-01    2.770000e+00
 SC2eq  X3eq  1 4.300000e-01    2.920000e+00
 SC2eq  X2eq  1 4.300000e-01    2.920000e+00
 SC2eq  X1eq  1 4.300000e-01    2.920000e+00
 SC1eq   X4q  1 4.300000e-01    2.920000e+00
 SC1eq   X3q  1 4.300000e-01    3.590000e+00
 SC1eq   X2q  1 4.300000e-01    3.590000e+00
 SC1eq   X1q  1 4.300000e-01    3.590000e+00
 SC1eq  X4eq  1 4.300000e-01    2.770000e+00
 SC1eq  X3eq  1 4.300000e-01    2.920000e+00
 SC1eq  X2eq  1 4.300000e-01    2.920000e+00
 SC1eq  X1eq  1 4.300000e-01    2.920000e+00
 SX4eq   X3q  1 4.300000e-01    3.770000e+00
 SX4eq   X2q  1 4.300000e-01    3.770000e+00
 SX4eq   X1q  1 4.300000e-01    3.770000e+00
 SX4eq  X3eq  1 4.300000e-01    3.380000e+00
 SX4eq  X2eq  1 4.300000e-01    3.380000e+00
 SX4eq  X1eq  1 4.300000e-01    3.380000e+00
 SX3eq   X2q  1 4.300000e-01    3.970000e+00
 SX3eq   X1q  1 4.300000e-01    3.970000e+00
 SX3eq  X2eq  1 4.300000e-01    3.590000e+00
 SX3eq  X1eq  1 4.300000e-01    3.590000e+00
 SX2eq   X1q  1 4.300000e-01    3.970000e+00
 SX2eq  X1eq  1 4.300000e-01    3.590000e+00
  TP6q TP6dq  1 3.400000e-01    3.750000e+00
  TP6q TP5dq  1 3.400000e-01    3.470000e+00
  TP6q TP4dq  1 3.400000e-01    3.220000e+00
  TP6q TP3dq  1 3.400000e-01    2.990000e+00
  TP6q TP2dq  1 3.400000e-01    2.990000e+00
  TP6q TP1dq  1 3.400000e-01    2.740000e+00
  TP6q TN6dq  1 3.400000e-01    2.500000e+00
  TP6q TN5dq  1 3.400000e-01    2.020000e+00
  TP6q TN4dq  1 3.400000e-01    1.770000e+00
  TP6q TN3dq  1 3.400000e-01    1.510000e+00
  TP6q TN2dq  1 3.400000e-01    1.230000e+00
  TP6q TN1dq  1 3.520000e-01    1.050000e+00
  TP6q TP6aq  1 3.400000e-01    3.750000e+00
  TP6q TP5aq  1 3.400000e-01    3.470000e+00
  TP6q TP4aq  1 3.400000e-01    3.220000e+00
  TP6q TP3aq  1 3.400000e-01    2.990000e+00
  TP6q TP2aq  1 3.400000e-01    2.990000e+00
  TP6q TP1aq  1 3.400000e-01    2.740000e+00
  TP6q TN6aq  1 3.400000e-01    2.500000e+00
  TP6q TN5aq  1 3.400000e-01    2.020000e+00
  TP6q TN4aq  1 3.400000e-01    1.770000e+00
  TP6q TN3aq  1 3.400000e-01    1.510000e+00
  TP6q TN2aq  1 3.400000e-01    1.230000e+00
  TP6q TN1aq  1 3.520000e-01    1.050000e+00
  TP6q TC6vq  1 3.400000e-01    1.230000e+00
  TP6q TC5vq  1 3.520000e-01    1.050000e+00
  TP6q TC4vq  1 3.630000e-01    9.350000e-01
  TP6q TC3vq  1 3.660000e-01    9.350000e-01
  TP6q TC2vq  1 3.660000e-01    9.350000e-01
  TP6q TC1vq  1 4.240000e-01    7.760000e-01
  TP6q TX4vq  1 3.400000e-01    1.510000e+00
  TP6q TX3vq  1 3.400000e-01    1.510000e+00
  TP6q TX2vq  1 3.400000e-01    1.230000e+00
  TP6q TX1vq  1 3.520000e-01    1.050000e+00
  TP6q TC6eq  1 3.400000e-01    1.230000e+00
  TP6q TC5eq  1 3.520000e-01    1.050000e+00
  TP6q TC4eq  1 3.630000e-01    9.350000e-01
  TP6q TC3eq  1 3.660000e-01    9.350000e-01
  TP6q TC2eq  1 3.660000e-01    9.350000e-01
  TP6q TC1eq  1 4.240000e-01    7.760000e-01
  TP6q TX4eq  1 3.400000e-01    1.510000e+00
  TP6q TX3eq  1 3.400000e-01    1.510000e+00
  TP6q TX2eq  1 3.400000e-01    1.230000e+00
  TP6q TX1eq  1 3.520000e-01    1.050000e+00
  TP5q TP5dq  1 3.400000e-01    3.220000e+00
  TP5q TP4dq  1 3.400000e-01    2.990000e+00
  TP5q TP3dq  1 3.400000e-01    2.740000e+00
  TP5q TP2dq  1 3.400000e-01    2.740000e+00
  TP5q TP1dq  1 3.400000e-01    2.500000e+00
  TP5q TN6dq  1 3.400000e-01    2.280000e+00
  TP5q TN5dq  1 3.400000e-01    2.020000e+00
  TP5q TN4dq  1 3.400000e-01    2.020000e+00
  TP5q TN3dq  1 3.400000e-01    1.510000e+00
  TP5q TN2dq  1 3.400000e-01    1.230000e+00
  TP5q TN1dq  1 3.520000e-01    1.050000e+00
  TP5q TP5aq  1 3.400000e-01    3.220000e+00
  TP5q TP4aq  1 3.400000e-01    2.990000e+00
  TP5q TP3aq  1 3.400000e-01    2.740000e+00
  TP5q TP2aq  1 3.400000e-01    2.740000e+00
  TP5q TP1aq  1 3.400000e-01    2.500000e+00
  TP5q TN6aq  1 3.400000e-01    2.280000e+00
  TP5q TN5aq  1 3.400000e-01    2.020000e+00
  TP5q TN4aq  1 3.400000e-01    2.020000e+00
  TP5q TN3aq  1 3.400000e-01    1.510000e+00
  TP5q TN2aq  1 3.400000e-01    1.230000e+00
  TP5q TN1aq  1 3.520000e-01    1.050000e+00
  TP5q TC6vq  1 3.400000e-01    1.230000e+00
  TP5q TC5vq  1 3.400000e-01    1.230000e+00
  TP5q TC4vq  1 3.520000e-01    1.050000e+00
  TP5q TC3vq  1 3.630000e-01    9.350000e-01
  TP5q TC2vq  1 3.630000e-01    9.350000e-01
  TP5q TC1vq  1 3.660000e-01    9.350000e-01
  TP5q TX4vq  1 3.400000e-01    1.770000e+00
  TP5q TX3vq  1 3.400000e-01    1.510000e+00
  TP5q TX2vq  1 3.400000e-01    1.510000e+00
  TP5q TX1vq  1 3.520000e-01    1.050000e+00
  TP5q TC6eq  1 3.400000e-01    1.230000e+00
  TP5q TC5eq  1 3.400000e-01    1.230000e+00
  TP5q TC4eq  1 3.520000e-01    1.050000e+00
  TP5q TC3eq  1 3.630000e-01    9.350000e-01
  TP5q TC2eq  1 3.630000e-01    9.350000e-01
  TP5q TC1eq  1 3.660000e-01    9.350000e-01
  TP5q TX4eq  1 3.400000e-01    1.770000e+00
  TP5q TX3eq  1 3.400000e-01    1.510000e+00
  TP5q TX2eq  1 3.400000e-01    1.510000e+00
  TP5q TX1eq  1 3.520000e-01    1.050000e+00
  TP4q TP4dq  1 3.400000e-01    2.990000e+00
  TP4q TP3dq  1 3.400000e-01    2.740000e+00
  TP4q TP2dq  1 3.400000e-01    2.740000e+00
  TP4q TP1dq  1 3.400000e-01    2.500000e+00
  TP4q TN6dq  1 3.400000e-01    2.280000e+00
  TP4q TN5dq  1 3.400000e-01    2.020000e+00
  TP4q TN4dq  1 3.400000e-01    2.020000e+00
  TP4q TN3dq  1 3.400000e-01    1.770000e+00
  TP4q TN2dq  1 3.400000e-01    1.510000e+00
  TP4q TN1dq  1 3.400000e-01    1.230000e+00
  TP4q TP4aq  1 3.400000e-01    2.990000e+00
  TP4q TP3aq  1 3.400000e-01    2.740000e+00
  TP4q TP2aq  1 3.400000e-01    2.740000e+00
  TP4q TP1aq  1 3.400000e-01    2.500000e+00
  TP4q TN6aq  1 3.400000e-01    2.280000e+00
  TP4q TN5aq  1 3.400000e-01    2.020000e+00
  TP4q TN4aq  1 3.400000e-01    2.020000e+00
  TP4q TN3aq  1 3.400000e-01    1.770000e+00
  TP4q TN2aq  1 3.400000e-01    1.510000e+00
  TP4q TN1aq  1 3.400000e-01    1.230000e+00
  TP4q TC6vq  1 3.400000e-01    1.510000e+00
  TP4q TC5vq  1 3.400000e-01    1.230000e+00
  TP4q TC4vq  1 3.520000e-01    1.050000e+00
  TP4q TC3vq  1 3.630000e-01    9.350000e-01
  TP4q TC2vq  1 3.630000e-01    9.350000e-01
  TP4q TC1vq  1 3.660000e-01    9.350000e-01
  TP4q TX4vq  1 3.400000e-01    1.770000e+00
  TP4q TX3vq  1 3.400000e-01    1.510000e+00
  TP4q TX2vq  1 3.400000e-01    1.510000e+00
  TP4q TX1vq  1 3.400000e-01    1.230000e+00
  TP4q TC6eq  1 3.400000e-01    1.510000e+00
  TP4q TC5eq  1 3.400000e-01    1.230000e+00
  TP4q TC4eq  1 3.520000e-01    1.050000e+00
  TP4q TC3eq  1 3.630000e-01    9.350000e-01
  TP4q TC2eq  1 3.630000e-01    9.350000e-01
  TP4q TC1eq  1 3.660000e-01    9.350000e-01
  TP4q TX4eq  1 3.400000e-01    1.770000e+00
  TP4q TX3eq  1 3.400000e-01    1.510000e+00
  TP4q TX2eq  1 3.400000e-01    1.510000e+00
  TP4q TX1eq  1 3.400000e-01    1.230000e+00
  TP3q TP3dq  1 3.400000e-01    2.740000e+00
  TP3q TP2dq  1 3.400000e-01    2.740000e+00
  TP3q TP1dq  1 3.400000e-01    2.500000e+00
  TP3q TN6dq  1 3.400000e-01    2.280000e+00
  TP3q TN5dq  1 3.400000e-01    2.020000e+00
  TP3q TN4dq  1 3.400000e-01    2.020000e+00
  TP3q TN3dq  1 3.400000e-01    1.770000e+00
  TP3q TN2dq  1 3.400000e-01    1.770000e+00
  TP3q TN1dq  1 3.400000e-01    1.510000e+00
  TP3q TP3aq  1 3.400000e-01    2.740000e+00
  TP3q TP2aq  1 3.400000e-01    2.740000e+00
  TP3q TP1aq  1 3.400000e-01    2.500000e+00
  TP3q TN6aq  1 3.400000e-01    2.280000e+00
  TP3q TN5aq  1 3.400000e-01    2.020000e+00
  TP3q TN4aq  1 3.400000e-01    2.020000e+00
  TP3q TN3aq  1 3.400000e-01    1.770000e+00
  TP3q TN2aq  1 3.400000e-01    1.770000e+00
  TP3q TN1aq  1 3.400000e-01    1.510000e+00
  TP3q TC6vq  1 3.400000e-01    1.770000e+00
  TP3q TC5vq  1 3.400000e-01    1.510000e+00
  TP3q TC4vq  1 3.400000e-01    1.230000e+00
  TP3q TC3vq  1 3.630000e-01    9.350000e-01
  TP3q TC2vq  1 3.630000e-01    9.350000e-01
  TP3q TC1vq  1 3.660000e-01    9.350000e-01
  TP3q TX4vq  1 3.400000e-01    1.770000e+00
  TP3q TX3vq  1 3.400000e-01    1.770000e+00
  TP3q TX2vq  1 3.400000e-01    1.510000e+00
  TP3q TX1vq  1 3.400000e-01    1.230000e+00
  TP3q TC6eq  1 3.400000e-01    1.770000e+00
  TP3q TC5eq  1 3.400000e-01    1.510000e+00
  TP3q TC4eq  1 3.400000e-01    1.230000e+00
  TP3q TC3eq  1 3.630000e-01    9.350000e-01
  TP3q TC2eq  1 3.630000e-01    9.350000e-01
  TP3q TC1eq  1 3.660000e-01    9.350000e-01
  TP3q TX4eq  1 3.400000e-01    1.770000e+00
  TP3q TX3eq  1 3.400000e-01    1.770000e+00
  TP3q TX2eq  1 3.400000e-01    1.510000e+00
  TP3q TX1eq  1 3.400000e-01    1.230000e+00
  TP2q TP2dq  1 3.400000e-01    2.740000e+00
  TP2q TP1dq  1 3.400000e-01    2.500000e+00
  TP2q TN6dq  1 3.400000e-01    2.500000e+00
  TP2q TN5dq  1 3.400000e-01    2.280000e+00
  TP2q TN4dq  1 3.400000e-01    2.020000e+00
  TP2q TN3dq  1 3.400000e-01    1.770000e+00
  TP2q TN2dq  1 3.400000e-01    1.770000e+00
  TP2q TN1dq  1 3.400000e-01    1.770000e+00
  TP2q TP2aq  1 3.400000e-01    2.740000e+00
  TP2q TP1aq  1 3.400000e-01    2.500000e+00
  TP2q TN6aq  1 3.400000e-01    2.500000e+00
  TP2q TN5aq  1 3.400000e-01    2.280000e+00
  TP2q TN4aq  1 3.400000e-01    2.020000e+00
  TP2q TN3aq  1 3.400000e-01    1.770000e+00
  TP2q TN2aq  1 3.400000e-01    1.770000e+00
  TP2q TN1aq  1 3.400000e-01    1.770000e+00
  TP2q TC6vq  1 3.400000e-01    1.770000e+00
  TP2q TC5vq  1 3.400000e-01    1.510000e+00
  TP2q TC4vq  1 3.400000e-01    1.230000e+00
  TP2q TC3vq  1 3.520000e-01    1.050000e+00
  TP2q TC2vq  1 3.520000e-01    1.050000e+00
  TP2q TC1vq  1 3.630000e-01    9.350000e-01
  TP2q TX4vq  1 3.400000e-01    1.770000e+00
  TP2q TX3vq  1 3.400000e-01    1.770000e+00
  TP2q TX2vq  1 3.400000e-01    1.510000e+00
  TP2q TX1vq  1 3.400000e-01    1.230000e+00
  TP2q TC6eq  1 3.400000e-01    1.770000e+00
  TP2q TC5eq  1 3.400000e-01    1.510000e+00
  TP2q TC4eq  1 3.400000e-01    1.230000e+00
  TP2q TC3eq  1 3.520000e-01    1.050000e+00
  TP2q TC2eq  1 3.520000e-01    1.050000e+00
  TP2q TC1eq  1 3.630000e-01    9.350000e-01
  TP2q TX4eq  1 3.400000e-01    1.770000e+00
  TP2q TX3eq  1 3.400000e-01    1.770000e+00
  TP2q TX2eq  1 3.400000e-01    1.510000e+00
  TP2q TX1eq  1 3.400000e-01    1.230000e+00
  TP1q TP1dq  1 3.400000e-01    2.500000e+00
  TP1q TN6dq  1 3.400000e-01    2.500000e+00
  TP1q TN5dq  1 3.400000e-01    2.280000e+00
  TP1q TN4dq  1 3.400000e-01    2.280000e+00
  TP1q TN3dq  1 3.400000e-01    1.770000e+00
  TP1q TN2dq  1 3.400000e-01    1.770000e+00
  TP1q TN1dq  1 3.400000e-01    1.770000e+00
  TP1q TP1aq  1 3.400000e-01    2.500000e+00
  TP1q TN6aq  1 3.400000e-01    2.500000e+00
  TP1q TN5aq  1 3.400000e-01    2.280000e+00
  TP1q TN4aq  1 3.400000e-01    2.280000e+00
  TP1q TN3aq  1 3.400000e-01    1.770000e+00
  TP1q TN2aq  1 3.400000e-01    1.770000e+00
  TP1q TN1aq  1 3.400000e-01    1.770000e+00
  TP1q TC6vq  1 3.400000e-01    1.770000e+00
  TP1q TC5vq  1 3.400000e-01    1.510000e+00
  TP1q TC4vq  1 3.400000e-01    1.230000e+00
  TP1q TC3vq  1 3.520000e-01    1.050000e+00
  TP1q TC2vq  1 3.520000e-01    1.050000e+00
  TP1q TC1vq  1 3.630000e-01    9.350000e-01
  TP1q TX4vq  1 3.400000e-01    1.770000e+00
  TP1q TX3vq  1 3.400000e-01    1.770000e+00
  TP1q TX2vq  1 3.400000e-01    1.510000e+00
  TP1q TX1vq  1 3.400000e-01    1.230000e+00
  TP1q TC6eq  1 3.400000e-01    1.770000e+00
  TP1q TC5eq  1 3.400000e-01    1.510000e+00
  TP1q TC4eq  1 3.400000e-01    1.230000e+00
  TP1q TC3eq  1 3.520000e-01    1.050000e+00
  TP1q TC2eq  1 3.520000e-01    1.050000e+00
  TP1q TC1eq  1 3.630000e-01    9.350000e-01
  TP1q TX4eq  1 3.400000e-01    1.770000e+00
  TP1q TX3eq  1 3.400000e-01    1.770000e+00
  TP1q TX2eq  1 3.400000e-01    1.510000e+00
  TP1q TX1eq  1 3.400000e-01    1.230000e+00
  TN6q TN6dq  1 3.400000e-01    2.500000e+00
  TN6q TN5dq  1 3.400000e-01    2.500000e+00
  TN6q TN4dq  1 3.400000e-01    2.500000e+00
  TN6q TN3dq  1 3.400000e-01    2.020000e+00
  TN6q TN2dq  1 3.400000e-01    1.770000e+00
  TN6q TN1dq  1 3.400000e-01    1.770000e+00
  TN6q TN6aq  1 3.400000e-01    2.500000e+00
  TN6q TN5aq  1 3.400000e-01    2.500000e+00
  TN6q TN4aq  1 3.400000e-01    2.500000e+00
  TN6q TN3aq  1 3.400000e-01    2.020000e+00
  TN6q TN2aq  1 3.400000e-01    1.770000e+00
  TN6q TN1aq  1 3.400000e-01    1.770000e+00
  TN6q TC6vq  1 3.400000e-01    2.020000e+00
  TN6q TC5vq  1 3.400000e-01    1.770000e+00
  TN6q TC4vq  1 3.400000e-01    1.510000e+00
  TN6q TC3vq  1 3.400000e-01    1.230000e+00
  TN6q TC2vq  1 3.400000e-01    1.230000e+00
  TN6q TC1vq  1 3.520000e-01    1.050000e+00
  TN6q TX4vq  1 3.400000e-01    2.020000e+00
  TN6q TX3vq  1 3.400000e-01    1.770000e+00
  TN6q TX2vq  1 3.400000e-01    1.510000e+00
  TN6q TX1vq  1 3.400000e-01    1.230000e+00
  TN6q TC6eq  1 3.400000e-01    2.020000e+00
  TN6q TC5eq  1 3.400000e-01    1.770000e+00
  TN6q TC4eq  1 3.400000e-01    1.510000e+00
  TN6q TC3eq  1 3.400000e-01    1.230000e+00
  TN6q TC2eq  1 3.400000e-01    1.230000e+00
  TN6q TC1eq  1 3.520000e-01    1.050000e+00
  TN6q TX4eq  1 3.400000e-01    2.020000e+00
  TN6q TX3eq  1 3.400000e-01    1.770000e+00
  TN6q TX2eq  1 3.400000e-01    1.510000e+00
  TN6q TX1eq  1 3.400000e-01    1.230000e+00
  TN5q TN5dq  1 3.400000e-01    2.280000e+00
  TN5q TN4dq  1 3.400000e-01    2.280000e+00
  TN5q TN3dq  1 3.400000e-01    2.020000e+00
  TN5q TN2dq  1 3.400000e-01    2.020000e+00
  TN5q TN1dq  1 3.400000e-01    1.770000e+00
  TN5q TN5aq  1 3.400000e-01    2.280000e+00
  TN5q TN4aq  1 3.400000e-01    2.280000e+00
  TN5q TN3aq  1 3.400000e-01    2.020000e+00
  TN5q TN2aq  1 3.400000e-01    2.020000e+00
  TN5q TN1aq  1 3.400000e-01    1.770000e+00
  TN5q TC6vq  1 3.400000e-01    2.020000e+00
  TN5q TC5vq  1 3.400000e-01    1.770000e+00
  TN5q TC4vq  1 3.400000e-01    1.510000e+00
  TN5q TC3vq  1 3.400000e-01    1.510000e+00
  TN5q TC2vq  1 3.400000e-01    1.230000e+00
  TN5q TC1vq  1 3.520000e-01    1.050000e+00
  TN5q TX4vq  1 3.400000e-01    2.280000e+00
  TN5q TX3vq  1 3.400000e-01    2.020000e+00
  TN5q TX2vq  1 3.400000e-01    1.770000e+00
  TN5q TX1vq  1 3.400000e-01    1.510000e+00
  TN5q TC6eq  1 3.400000e-01    2.020000e+00
  TN5q TC5eq  1 3.400000e-01    1.770000e+00
  TN5q TC4eq  1 3.400000e-01    1.510000e+00
  TN5q TC3eq  1 3.400000e-01    1.510000e+00
  TN5q TC2eq  1 3.400000e-01    1.230000e+00
  TN5q TC1eq  1 3.520000e-01    1.050000e+00
  TN5q TX4eq  1 3.400000e-01    2.280000e+00
  TN5q TX3eq  1 3.400000e-01    2.020000e+00
  TN5q TX2eq  1 3.400000e-01    1.770000e+00
  TN5q TX1eq  1 3.400000e-01    1.510000e+00
  TN4q TN4dq  1 3.400000e-01    2.280000e+00
  TN4q TN3dq  1 3.400000e-01    2.020000e+00
  TN4q TN2dq  1 3.400000e-01    2.020000e+00
  TN4q TN1dq  1 3.400000e-01    1.770000e+00
  TN4q TN4aq  1 3.400000e-01    2.280000e+00
  TN4q TN3aq  1 3.400000e-01    2.020000e+00
  TN4q TN2aq  1 3.400000e-01    2.020000e+00
  TN4q TN1aq  1 3.400000e-01    1.770000e+00
  TN4q TC6vq  1 3.400000e-01    2.020000e+00
  TN4q TC5vq  1 3.400000e-01    1.770000e+00
  TN4q TC4vq  1 3.400000e-01    1.770000e+00
  TN4q TC3vq  1 3.400000e-01    1.510000e+00
  TN4q TC2vq  1 3.400000e-01    1.230000e+00
  TN4q TC1vq  1 3.520000e-01    1.050000e+00
  TN4q TX4vq  1 3.400000e-01    2.500000e+00
  TN4q TX3vq  1 3.400000e-01    2.280000e+00
  TN4q TX2vq  1 3.400000e-01    1.770000e+00
  TN4q TX1vq  1 3.400000e-01    1.510000e+00
  TN4q TC6eq  1 3.400000e-01    2.020000e+00
  TN4q TC5eq  1 3.400000e-01    1.770000e+00
  TN4q TC4eq  1 3.400000e-01    1.770000e+00
  TN4q TC3eq  1 3.400000e-01    1.510000e+00
  TN4q TC2eq  1 3.400000e-01    1.230000e+00
  TN4q TC1eq  1 3.520000e-01    1.050000e+00
  TN4q TX4eq  1 3.400000e-01    2.500000e+00
  TN4q TX3eq  1 3.400000e-01    2.280000e+00
  TN4q TX2eq  1 3.400000e-01    1.770000e+00
  TN4q TX1eq  1 3.400000e-01    1.510000e+00
  TN3q TN3dq  1 3.400000e-01    2.020000e+00
  TN3q TN2dq  1 3.400000e-01    2.020000e+00
  TN3q TN1dq  1 3.400000e-01    1.770000e+00
  TN3q TN3aq  1 3.400000e-01    2.020000e+00
  TN3q TN2aq  1 3.400000e-01    2.020000e+00
  TN3q TN1aq  1 3.400000e-01    1.770000e+00
  TN3q TC6vq  1 3.400000e-01    2.020000e+00
  TN3q TC5vq  1 3.400000e-01    1.770000e+00
  TN3q TC4vq  1 3.400000e-01    1.770000e+00
  TN3q TC3vq  1 3.400000e-01    1.510000e+00
  TN3q TC2vq  1 3.400000e-01    1.510000e+00
  TN3q TC1vq  1 3.400000e-01    1.230000e+00
  TN3q TX4vq  1 3.400000e-01    2.280000e+00
  TN3q TX3vq  1 3.400000e-01    2.020000e+00
  TN3q TX2vq  1 3.400000e-01    1.770000e+00
  TN3q TX1vq  1 3.400000e-01    1.770000e+00
  TN3q TC6eq  1 3.400000e-01    2.020000e+00
  TN3q TC5eq  1 3.400000e-01    1.770000e+00
  TN3q TC4eq  1 3.400000e-01    1.770000e+00
  TN3q TC3eq  1 3.400000e-01    1.510000e+00
  TN3q TC2eq  1 3.400000e-01    1.510000e+00
  TN3q TC1eq  1 3.400000e-01    1.230000e+00
  TN3q TX4eq  1 3.400000e-01    2.280000e+00
  TN3q TX3eq  1 3.400000e-01    2.020000e+00
  TN3q TX2eq  1 3.400000e-01    1.770000e+00
  TN3q TX1eq  1 3.400000e-01    1.770000e+00
  TN2q TN2dq  1 3.400000e-01    2.020000e+00
  TN2q TN1dq  1 3.400000e-01    1.770000e+00
  TN2q TN2aq  1 3.400000e-01    2.020000e+00
  TN2q TN1aq  1 3.400000e-01    1.770000e+00
  TN2q TC6vq  1 3.400000e-01    2.020000e+00
  TN2q TC5vq  1 3.400000e-01    1.770000e+00
  TN2q TC4vq  1 3.400000e-01    1.770000e+00
  TN2q TC3vq  1 3.400000e-01    1.770000e+00
  TN2q TC2vq  1 3.400000e-01    1.510000e+00
  TN2q TC1vq  1 3.400000e-01    1.230000e+00
  TN2q TX4vq  1 3.400000e-01    2.280000e+00
  TN2q TX3vq  1 3.400000e-01    2.020000e+00
  TN2q TX2vq  1 3.400000e-01    1.770000e+00
  TN2q TX1vq  1 3.400000e-01    1.770000e+00
  TN2q TC6eq  1 3.400000e-01    2.020000e+00
  TN2q TC5eq  1 3.400000e-01    1.770000e+00
  TN2q TC4eq  1 3.400000e-01    1.770000e+00
  TN2q TC3eq  1 3.400000e-01    1.770000e+00
  TN2q TC2eq  1 3.400000e-01    1.510000e+00
  TN2q TC1eq  1 3.400000e-01    1.230000e+00
  TN2q TX4eq  1 3.400000e-01    2.280000e+00
  TN2q TX3eq  1 3.400000e-01    2.020000e+00
  TN2q TX2eq  1 3.400000e-01    1.770000e+00
  TN2q TX1eq  1 3.400000e-01    1.770000e+00
  TN1q TN1dq  1 3.400000e-01    2.020000e+00
  TN1q TN1aq  1 3.400000e-01    2.020000e+00
  TN1q TC6vq  1 3.400000e-01    2.280000e+00
  TN1q TC5vq  1 3.400000e-01    2.020000e+00
  TN1q TC4vq  1 3.400000e-01    2.020000e+00
  TN1q TC3vq  1 3.400000e-01    1.770000e+00
  TN1q TC2vq  1 3.400000e-01    1.510000e+00
  TN1q TC1vq  1 3.400000e-01    1.230000e+00
  TN1q TX4vq  1 3.400000e-01    2.020000e+00
  TN1q TX3vq  1 3.400000e-01    2.020000e+00
  TN1q TX2vq  1 3.400000e-01    1.770000e+00
  TN1q TX1vq  1 3.400000e-01    1.770000e+00
  TN1q TC6eq  1 3.400000e-01    2.280000e+00
  TN1q TC5eq  1 3.400000e-01    2.020000e+00
  TN1q TC4eq  1 3.400000e-01    2.020000e+00
  TN1q TC3eq  1 3.400000e-01    1.770000e+00
  TN1q TC2eq  1 3.400000e-01    1.510000e+00
  TN1q TC1eq  1 3.400000e-01    1.230000e+00
  TN1q TX4eq  1 3.400000e-01    2.020000e+00
  TN1q TX3eq  1 3.400000e-01    2.020000e+00
  TN1q TX2eq  1 3.400000e-01    1.770000e+00
  TN1q TX1eq  1 3.400000e-01    1.770000e+00
  TC6q TC6vq  1 3.400000e-01    2.280000e+00
  TC6q TC5vq  1 3.400000e-01    2.020000e+00
  TC6q TC4vq  1 3.400000e-01    2.020000e+00
  TC6q TC3vq  1 3.400000e-01    1.770000e+00
  TC6q TC2vq  1 3.400000e-01    1.510000e+00
  TC6q TC1vq  1 3.400000e-01    1.230000e+00
  TC6q TX4vq  1 3.400000e-01    2.020000e+00
  TC6q TX3vq  1 3.400000e-01    2.020000e+00
  TC6q TX2vq  1 3.400000e-01    2.020000e+00
  TC6q TX1vq  1 3.400000e-01    2.020000e+00
  TC6q TC6eq  1 3.400000e-01    2.280000e+00
  TC6q TC5eq  1 3.400000e-01    2.020000e+00
  TC6q TC4eq  1 3.400000e-01    2.020000e+00
  TC6q TC3eq  1 3.400000e-01    1.770000e+00
  TC6q TC2eq  1 3.400000e-01    1.510000e+00
  TC6q TC1eq  1 3.400000e-01    1.230000e+00
  TC6q TX4eq  1 3.400000e-01    2.020000e+00
  TC6q TX3eq  1 3.400000e-01    2.020000e+00
  TC6q TX2eq  1 3.400000e-01    2.020000e+00
  TC6q TX1eq  1 3.400000e-01    2.020000e+00
  TC5q TC5vq  1 3.400000e-01    2.020000e+00
  TC5q TC4vq  1 3.400000e-01    2.020000e+00
  TC5q TC3vq  1 3.400000e-01    1.770000e+00
  TC5q TC2vq  1 3.400000e-01    1.510000e+00
  TC5q TC1vq  1 3.400000e-01    1.510000e+00
  TC5q TX4vq  1 3.400000e-01    1.770000e+00
  TC5q TX3vq  1 3.400000e-01    1.770000e+00
  TC5q TX2vq  1 3.400000e-01    1.770000e+00
  TC5q TX1vq  1 3.400000e-01    2.020000e+00
  TC5q TC5eq  1 3.400000e-01    2.020000e+00
  TC5q TC4eq  1 3.400000e-01    2.020000e+00
  TC5q TC3eq  1 3.400000e-01    1.770000e+00
  TC5q TC2eq  1 3.400000e-01    1.510000e+00
  TC5q TC1eq  1 3.400000e-01    1.510000e+00
  TC5q TX4eq  1 3.400000e-01    1.770000e+00
  TC5q TX3eq  1 3.400000e-01    1.770000e+00
  TC5q TX2eq  1 3.400000e-01    1.770000e+00
  TC5q TX1eq  1 3.400000e-01    2.020000e+00
  TC4q TC4vq  1 3.400000e-01    2.020000e+00
  TC4q TC3vq  1 3.400000e-01    2.020000e+00
  TC4q TC2vq  1 3.400000e-01    1.770000e+00
  TC4q TC1vq  1 3.400000e-01    1.510000e+00
  TC4q TX4vq  1 3.400000e-01    1.770000e+00
  TC4q TX3vq  1 3.400000e-01    1.770000e+00
  TC4q TX2vq  1 3.400000e-01    1.770000e+00
  TC4q TX1vq  1 3.400000e-01    2.020000e+00
  TC4q TC4eq  1 3.400000e-01    2.020000e+00
  TC4q TC3eq  1 3.400000e-01    2.020000e+00
  TC4q TC2eq  1 3.400000e-01    1.770000e+00
  TC4q TC1eq  1 3.400000e-01    1.510000e+00
  TC4q TX4eq  1 3.400000e-01    1.770000e+00
  TC4q TX3eq  1 3.400000e-01    1.770000e+00
  TC4q TX2eq  1 3.400000e-01    1.770000e+00
  TC4q TX1eq  1 3.400000e-01    2.020000e+00
  TC3q TC3vq  1 3.400000e-01    2.020000e+00
  TC3q TC2vq  1 3.400000e-01    2.020000e+00
  TC3q TC1vq  1 3.400000e-01    2.020000e+00
  TC3q TX4vq  1 3.400000e-01    1.770000e+00
  TC3q TX3vq  1 3.400000e-01    1.770000e+00
  TC3q TX2vq  1 3.400000e-01    1.770000e+00
  TC3q TX1vq  1 3.400000e-01    2.020000e+00
  TC3q TC3eq  1 3.400000e-01    2.020000e+00
  TC3q TC2eq  1 3.400000e-01    2.020000e+00
  TC3q TC1eq  1 3.400000e-01    2.020000e+00
  TC3q TX4eq  1 3.400000e-01    1.770000e+00
  TC3q TX3eq  1 3.400000e-01    1.770000e+00
  TC3q TX2eq  1 3.400000e-01    1.770000e+00
  TC3q TX1eq  1 3.400000e-01    2.020000e+00
  TC2q TC2vq  1 3.400000e-01    2.020000e+00
  TC2q TC1vq  1 3.400000e-01    2.280000e+00
  TC2q TX4vq  1 3.400000e-01    1.230000e+00
  TC2q TX3vq  1 3.400000e-01    1.770000e+00
  TC2q TX2vq  1 3.400000e-01    1.770000e+00
  TC2q TX1vq  1 3.400000e-01    1.770000e+00
  TC2q TC2eq  1 3.400000e-01    2.020000e+00
  TC2q TC1eq  1 3.400000e-01    2.280000e+00
  TC2q TX4eq  1 3.400000e-01    1.230000e+00
  TC2q TX3eq  1 3.400000e-01    1.770000e+00
  TC2q TX2eq  1 3.400000e-01    1.770000e+00
  TC2q TX1eq  1 3.400000e-01    1.770000e+00
  TC1q TC1vq  1 3.400000e-01    2.020000e+00
  TC1q TX4vq  1 3.400000e-01    1.230000e+00
  TC1q TX3vq  1 3.400000e-01    1.770000e+00
  TC1q TX2vq  1 3.400000e-01    1.770000e+00
  TC1q TX1vq  1 3.400000e-01    1.770000e+00
  TC1q TC1eq  1 3.400000e-01    2.020000e+00
  TC1q TX4eq  1 3.400000e-01    1.230000e+00
  TC1q TX3eq  1 3.400000e-01    1.770000e+00
  TC1q TX2eq  1 3.400000e-01    1.770000e+00
  TC1q TX1eq  1 3.400000e-01    1.770000e+00
  TX4q TX4vq  1 3.400000e-01    2.020000e+00
  TX4q TX3vq  1 3.400000e-01    2.020000e+00
  TX4q TX2vq  1 3.400000e-01    2.020000e+00
  TX4q TX1vq  1 3.400000e-01    2.020000e+00
  TX4q TX4eq  1 3.400000e-01    2.020000e+00
  TX4q TX3eq  1 3.400000e-01    2.020000e+00
  TX4q TX2eq  1 3.400000e-01    2.020000e+00
  TX4q TX1eq  1 3.400000e-01    2.020000e+00
  TX3q TX3vq  1 3.400000e-01    2.020000e+00
  TX3q TX2vq  1 3.400000e-01    2.280000e+00
  TX3q TX1vq  1 3.400000e-01    2.280000e+00
  TX3q TX3eq  1 3.400000e-01    2.020000e+00
  TX3q TX2eq  1 3.400000e-01    2.280000e+00
  TX3q TX1eq  1 3.400000e-01    2.280000e+00
  TX2q TX2vq  1 3.400000e-01    2.280000e+00
  TX2q TX1vq  1 3.400000e-01    2.280000e+00
  TX2q TX2eq  1 3.400000e-01    2.280000e+00
  TX2q TX1eq  1 3.400000e-01    2.280000e+00
  TX1q TX1vq  1 3.400000e-01    2.500000e+00
  TX1q TX1eq  1 3.400000e-01    2.500000e+00
  TP6q  TP6q  1 3.400000e-01    3.750000e+00
  TP6q  TP5q  1 3.400000e-01    3.470000e+00
  TP6q  TP4q  1 3.400000e-01    3.220000e+00
  TP6q  TP3q  1 3.400000e-01    2.990000e+00
  TP6q  TP2q  1 3.400000e-01    2.990000e+00
  TP6q  TP1q  1 3.400000e-01    2.740000e+00
  TP6q  TN6q  1 3.400000e-01    2.500000e+00
  TP6q  TN5q  1 3.400000e-01    2.020000e+00
  TP6q  TN4q  1 3.400000e-01    1.770000e+00
  TP6q  TN3q  1 3.400000e-01    1.510000e+00
  TP6q  TN2q  1 3.400000e-01    1.230000e+00
  TP6q  TN1q  1 3.520000e-01    1.050000e+00
  TP6q  TC6q  1 3.520000e-01    1.050000e+00
  TP6q  TC5q  1 3.630000e-01    9.350000e-01
  TP6q  TC4q  1 3.660000e-01    9.350000e-01
  TP6q  TC3q  1 3.850000e-01    8.550000e-01
  TP6q  TC2q  1 3.850000e-01    8.550000e-01
  TP6q  TC1q  1 4.380000e-01    7.310000e-01
  TP6q  TX4q  1 3.400000e-01    1.230000e+00
  TP6q  TX3q  1 3.400000e-01    1.230000e+00
  TP6q  TX2q  1 3.520000e-01    1.050000e+00
  TP6q  TX1q  1 3.630000e-01    9.350000e-01
  TP5q  TP5q  1 3.400000e-01    3.220000e+00
  TP5q  TP4q  1 3.400000e-01    2.990000e+00
  TP5q  TP3q  1 3.400000e-01    2.740000e+00
  TP5q  TP2q  1 3.400000e-01    2.740000e+00
  TP5q  TP1q  1 3.400000e-01    2.500000e+00
  TP5q  TN6q  1 3.400000e-01    2.280000e+00
  TP5q  TN5q  1 3.400000e-01    2.020000e+00
  TP5q  TN4q  1 3.400000e-01    2.020000e+00
  TP5q  TN3q  1 3.400000e-01    1.510000e+00
  TP5q  TN2q  1 3.400000e-01    1.230000e+00
  TP5q  TN1q  1 3.520000e-01    1.050000e+00
  TP5q  TC6q  1 3.520000e-01    1.050000e+00
  TP5q  TC5q  1 3.520000e-01    1.050000e+00
  TP5q  TC4q  1 3.630000e-01    9.350000e-01
  TP5q  TC3q  1 3.660000e-01    9.350000e-01
  TP5q  TC2q  1 3.660000e-01    9.350000e-01
  TP5q  TC1q  1 3.850000e-01    8.550000e-01
  TP5q  TX4q  1 3.400000e-01    1.510000e+00
  TP5q  TX3q  1 3.400000e-01    1.230000e+00
  TP5q  TX2q  1 3.400000e-01    1.230000e+00
  TP5q  TX1q  1 3.630000e-01    9.350000e-01
  TP4q  TP4q  1 3.400000e-01    2.990000e+00
  TP4q  TP3q  1 3.400000e-01    2.740000e+00
  TP4q  TP2q  1 3.400000e-01    2.740000e+00
  TP4q  TP1q  1 3.400000e-01    2.500000e+00
  TP4q  TN6q  1 3.400000e-01    2.280000e+00
  TP4q  TN5q  1 3.400000e-01    2.020000e+00
  TP4q  TN4q  1 3.400000e-01    2.020000e+00
  TP4q  TN3q  1 3.400000e-01    1.770000e+00
  TP4q  TN2q  1 3.400000e-01    1.510000e+00
  TP4q  TN1q  1 3.400000e-01    1.230000e+00
  TP4q  TC6q  1 3.400000e-01    1.230000e+00
  TP4q  TC5q  1 3.520000e-01    1.050000e+00
  TP4q  TC4q  1 3.630000e-01    9.350000e-01
  TP4q  TC3q  1 3.660000e-01    9.350000e-01
  TP4q  TC2q  1 3.660000e-01    9.350000e-01
  TP4q  TC1q  1 3.850000e-01    8.550000e-01
  TP4q  TX4q  1 3.400000e-01    1.510000e+00
  TP4q  TX3q  1 3.400000e-01    1.230000e+00
  TP4q  TX2q  1 3.400000e-01    1.230000e+00
  TP4q  TX1q  1 3.520000e-01    1.050000e+00
  TP3q  TP3q  1 3.400000e-01    2.740000e+00
  TP3q  TP2q  1 3.400000e-01    2.740000e+00
  TP3q  TP1q  1 3.400000e-01    2.500000e+00
  TP3q  TN6q  1 3.400000e-01    2.280000e+00
  TP3q  TN5q  1 3.400000e-01    2.020000e+00
  TP3q  TN4q  1 3.400000e-01    2.020000e+00
  TP3q  TN3q  1 3.400000e-01    1.770000e+00
  TP3q  TN2q  1 3.400000e-01    1.770000e+00
  TP3q  TN1q  1 3.400000e-01    1.510000e+00
  TP3q  TC6q  1 3.400000e-01    1.510000e+00
  TP3q  TC5q  1 3.400000e-01    1.230000e+00
  TP3q  TC4q  1 3.520000e-01    1.050000e+00
  TP3q  TC3q  1 3.660000e-01    9.350000e-01
  TP3q  TC2q  1 3.660000e-01    9.350000e-01
  TP3q  TC1q  1 3.850000e-01    8.550000e-01
  TP3q  TX4q  1 3.400000e-01    1.510000e+00
  TP3q  TX3q  1 3.400000e-01    1.510000e+00
  TP3q  TX2q  1 3.400000e-01    1.230000e+00
  TP3q  TX1q  1 3.520000e-01    1.050000e+00
  TP2q  TP2q  1 3.400000e-01    2.740000e+00
  TP2q  TP1q  1 3.400000e-01    2.500000e+00
  TP2q  TN6q  1 3.400000e-01    2.500000e+00
  TP2q  TN5q  1 3.400000e-01    2.280000e+00
  TP2q  TN4q  1 3.400000e-01    2.020000e+00
  TP2q  TN3q  1 3.400000e-01    1.770000e+00
  TP2q  TN2q  1 3.400000e-01    1.770000e+00
  TP2q  TN1q  1 3.400000e-01    1.770000e+00
  TP2q  TC6q  1 3.400000e-01    1.510000e+00
  TP2q  TC5q  1 3.400000e-01    1.230000e+00
  TP2q  TC4q  1 3.520000e-01    1.050000e+00
  TP2q  TC3q  1 3.630000e-01    9.350000e-01
  TP2q  TC2q  1 3.630000e-01    9.350000e-01
  TP2q  TC1q  1 3.660000e-01    9.350000e-01
  TP2q  TX4q  1 3.400000e-01    1.510000e+00
  TP2q  TX3q  1 3.400000e-01    1.510000e+00
  TP2q  TX2q  1 3.400000e-01    1.230000e+00
  TP2q  TX1q  1 3.520000e-01    1.050000e+00
  TP1q  TP1q  1 3.400000e-01    2.500000e+00
  TP1q  TN6q  1 3.400000e-01    2.500000e+00
  TP1q  TN5q  1 3.400000e-01    2.280000e+00
  TP1q  TN4q  1 3.400000e-01    2.280000e+00
  TP1q  TN3q  1 3.400000e-01    1.770000e+00
  TP1q  TN2q  1 3.400000e-01    1.770000e+00
  TP1q  TN1q  1 3.400000e-01    1.770000e+00
  TP1q  TC6q  1 3.400000e-01    1.510000e+00
  TP1q  TC5q  1 3.400000e-01    1.230000e+00
  TP1q  TC4q  1 3.520000e-01    1.050000e+00
  TP1q  TC3q  1 3.630000e-01    9.350000e-01
  TP1q  TC2q  1 3.630000e-01    9.350000e-01
  TP1q  TC1q  1 3.660000e-01    9.350000e-01
  TP1q  TX4q  1 3.400000e-01    1.510000e+00
  TP1q  TX3q  1 3.400000e-01    1.510000e+00
  TP1q  TX2q  1 3.400000e-01    1.230000e+00
  TP1q  TX1q  1 3.520000e-01    1.050000e+00
  TN6q  TN6q  1 3.400000e-01    2.500000e+00
  TN6q  TN5q  1 3.400000e-01    2.500000e+00
  TN6q  TN4q  1 3.400000e-01    2.500000e+00
  TN6q  TN3q  1 3.400000e-01    2.020000e+00
  TN6q  TN2q  1 3.400000e-01    1.770000e+00
  TN6q  TN1q  1 3.400000e-01    1.770000e+00
  TN6q  TC6q  1 3.400000e-01    1.770000e+00
  TN6q  TC5q  1 3.400000e-01    1.510000e+00
  TN6q  TC4q  1 3.400000e-01    1.230000e+00
  TN6q  TC3q  1 3.520000e-01    1.050000e+00
  TN6q  TC2q  1 3.520000e-01    1.050000e+00
  TN6q  TC1q  1 3.630000e-01    9.350000e-01
  TN6q  TX4q  1 3.400000e-01    1.770000e+00
  TN6q  TX3q  1 3.400000e-01    1.510000e+00
  TN6q  TX2q  1 3.400000e-01    1.230000e+00
  TN6q  TX1q  1 3.520000e-01    1.050000e+00
  TN5q  TN5q  1 3.400000e-01    2.280000e+00
  TN5q  TN4q  1 3.400000e-01    2.280000e+00
  TN5q  TN3q  1 3.400000e-01    2.020000e+00
  TN5q  TN2q  1 3.400000e-01    2.020000e+00
  TN5q  TN1q  1 3.400000e-01    1.770000e+00
  TN5q  TC6q  1 3.400000e-01    1.770000e+00
  TN5q  TC5q  1 3.400000e-01    1.510000e+00
  TN5q  TC4q  1 3.400000e-01    1.230000e+00
  TN5q  TC3q  1 3.400000e-01    1.230000e+00
  TN5q  TC2q  1 3.520000e-01    1.050000e+00
  TN5q  TC1q  1 3.630000e-01    9.350000e-01
  TN5q  TX4q  1 3.400000e-01    2.020000e+00
  TN5q  TX3q  1 3.400000e-01    1.770000e+00
  TN5q  TX2q  1 3.400000e-01    1.510000e+00
  TN5q  TX1q  1 3.400000e-01    1.230000e+00
  TN4q  TN4q  1 3.400000e-01    2.280000e+00
  TN4q  TN3q  1 3.400000e-01    2.020000e+00
  TN4q  TN2q  1 3.400000e-01    2.020000e+00
  TN4q  TN1q  1 3.400000e-01    1.770000e+00
  TN4q  TC6q  1 3.400000e-01    1.770000e+00
  TN4q  TC5q  1 3.400000e-01    1.510000e+00
  TN4q  TC4q  1 3.400000e-01    1.510000e+00
  TN4q  TC3q  1 3.400000e-01    1.230000e+00
  TN4q  TC2q  1 3.520000e-01    1.050000e+00
  TN4q  TC1q  1 3.630000e-01    9.350000e-01
  TN4q  TX4q  1 3.400000e-01    2.280000e+00
  TN4q  TX3q  1 3.400000e-01    2.020000e+00
  TN4q  TX2q  1 3.400000e-01    1.510000e+00
  TN4q  TX1q  1 3.400000e-01    1.230000e+00
  TN3q  TN3q  1 3.400000e-01    2.020000e+00
  TN3q  TN2q  1 3.400000e-01    2.020000e+00
  TN3q  TN1q  1 3.400000e-01    1.770000e+00
  TN3q  TC6q  1 3.400000e-01    1.770000e+00
  TN3q  TC5q  1 3.400000e-01    1.510000e+00
  TN3q  TC4q  1 3.400000e-01    1.510000e+00
  TN3q  TC3q  1 3.400000e-01    1.230000e+00
  TN3q  TC2q  1 3.400000e-01    1.230000e+00
  TN3q  TC1q  1 3.520000e-01    1.050000e+00
  TN3q  TX4q  1 3.400000e-01    2.020000e+00
  TN3q  TX3q  1 3.400000e-01    1.770000e+00
  TN3q  TX2q  1 3.400000e-01    1.510000e+00
  TN3q  TX1q  1 3.400000e-01    1.510000e+00
  TN2q  TN2q  1 3.400000e-01    2.020000e+00
  TN2q  TN1q  1 3.400000e-01    1.770000e+00
  TN2q  TC6q  1 3.400000e-01    1.770000e+00
  TN2q  TC5q  1 3.400000e-01    1.510000e+00
  TN2q  TC4q  1 3.400000e-01    1.510000e+00
  TN2q  TC3q  1 3.400000e-01    1.510000e+00
  TN2q  TC2q  1 3.400000e-01    1.230000e+00
  TN2q  TC1q  1 3.520000e-01    1.050000e+00
  TN2q  TX4q  1 3.400000e-01    2.020000e+00
  TN2q  TX3q  1 3.400000e-01    1.770000e+00
  TN2q  TX2q  1 3.400000e-01    1.510000e+00
  TN2q  TX1q  1 3.400000e-01    1.510000e+00
  TN1q  TN1q  1 3.400000e-01    2.020000e+00
  TN1q  TC6q  1 3.400000e-01    2.020000e+00
  TN1q  TC5q  1 3.400000e-01    1.770000e+00
  TN1q  TC4q  1 3.400000e-01    1.770000e+00
  TN1q  TC3q  1 3.400000e-01    1.510000e+00
  TN1q  TC2q  1 3.400000e-01    1.230000e+00
  TN1q  TC1q  1 3.520000e-01    1.050000e+00
  TN1q  TX4q  1 3.400000e-01    1.770000e+00
  TN1q  TX3q  1 3.400000e-01    1.770000e+00
  TN1q  TX2q  1 3.400000e-01    1.510000e+00
  TN1q  TX1q  1 3.400000e-01    1.510000e+00
  TC6q  TC6q  1 3.400000e-01    2.020000e+00
  TC6q  TC5q  1 3.400000e-01    1.770000e+00
  TC6q  TC4q  1 3.400000e-01    1.770000e+00
  TC6q  TC3q  1 3.400000e-01    1.510000e+00
  TC6q  TC2q  1 3.400000e-01    1.230000e+00
  TC6q  TC1q  1 3.520000e-01    1.050000e+00
  TC6q  TX4q  1 3.400000e-01    1.770000e+00
  TC6q  TX3q  1 3.400000e-01    1.770000e+00
  TC6q  TX2q  1 3.400000e-01    1.770000e+00
  TC6q  TX1q  1 3.400000e-01    1.770000e+00
  TC5q  TC5q  1 3.400000e-01    1.770000e+00
  TC5q  TC4q  1 3.400000e-01    1.770000e+00
  TC5q  TC3q  1 3.400000e-01    1.510000e+00
  TC5q  TC2q  1 3.400000e-01    1.230000e+00
  TC5q  TC1q  1 3.400000e-01    1.230000e+00
  TC5q  TX4q  1 3.400000e-01    1.510000e+00
  TC5q  TX3q  1 3.400000e-01    1.510000e+00
  TC5q  TX2q  1 3.400000e-01    1.510000e+00
  TC5q  TX1q  1 3.400000e-01    1.770000e+00
  TC4q  TC4q  1 3.400000e-01    1.770000e+00
  TC4q  TC3q  1 3.400000e-01    1.770000e+00
  TC4q  TC2q  1 3.400000e-01    1.510000e+00
  TC4q  TC1q  1 3.400000e-01    1.230000e+00
  TC4q  TX4q  1 3.400000e-01    1.510000e+00
  TC4q  TX3q  1 3.400000e-01    1.510000e+00
  TC4q  TX2q  1 3.400000e-01    1.510000e+00
  TC4q  TX1q  1 3.400000e-01    1.770000e+00
  TC3q  TC3q  1 3.400000e-01    1.770000e+00
  TC3q  TC2q  1 3.400000e-01    1.770000e+00
  TC3q  TC1q  1 3.400000e-01    1.770000e+00
  TC3q  TX4q  1 3.400000e-01    1.510000e+00
  TC3q  TX3q  1 3.400000e-01    1.510000e+00
  TC3q  TX2q  1 3.400000e-01    1.510000e+00
  TC3q  TX1q  1 3.400000e-01    1.770000e+00
  TC2q  TC2q  1 3.400000e-01    1.770000e+00
  TC2q  TC1q  1 3.400000e-01    2.020000e+00
  TC2q  TX4q  1 3.520000e-01    1.050000e+00
  TC2q  TX3q  1 3.400000e-01    1.510000e+00
  TC2q  TX2q  1 3.400000e-01    1.510000e+00
  TC2q  TX1q  1 3.400000e-01    1.510000e+00
  TC1q  TC1q  1 3.400000e-01    1.770000e+00
  TC1q  TX4q  1 3.520000e-01    1.050000e+00
  TC1q  TX3q  1 3.400000e-01    1.510000e+00
  TC1q  TX2q  1 3.400000e-01    1.510000e+00
  TC1q  TX1q  1 3.400000e-01    1.510000e+00
  TX4q  TX4q  1 3.400000e-01    1.770000e+00
  TX4q  TX3q  1 3.400000e-01    1.770000e+00
  TX4q  TX2q  1 3.400000e-01    1.770000e+00
  TX4q  TX1q  1 3.400000e-01    1.770000e+00
  TX3q  TX3q  1 3.400000e-01    1.770000e+00
  TX3q  TX2q  1 3.400000e-01    2.020000e+00
  TX3q  TX1q  1 3.400000e-01    2.020000e+00
  TX2q  TX2q  1 3.400000e-01    2.020000e+00
  TX2q  TX1q  1 3.400000e-01    2.020000e+00
  TX1q  TX1q  1 3.400000e-01    2.280000e+00
 TP6dq TP6dq  1 3.400000e-01    3.470000e+00
 TP6dq TP5dq  1 3.400000e-01    3.220000e+00
 TP6dq TP4dq  1 3.400000e-01    2.990000e+00
 TP6dq TP3dq  1 3.400000e-01    2.740000e+00
 TP6dq TP2dq  1 3.400000e-01    2.740000e+00
 TP6dq TP1dq  1 3.400000e-01    2.500000e+00
 TP6dq TN6dq  1 3.400000e-01    2.280000e+00
 TP6dq TN5dq  1 3.400000e-01    1.770000e+00
 TP6dq TN4dq  1 3.400000e-01    1.510000e+00
 TP6dq TN3dq  1 3.400000e-01    1.510000e+00
 TP6dq TN2dq  1 3.400000e-01    1.230000e+00
 TP6dq TN1dq  1 3.520000e-01    1.050000e+00
 TP5dq TP5dq  1 3.400000e-01    2.990000e+00
 TP5dq TP4dq  1 3.400000e-01    2.740000e+00
 TP5dq TP3dq  1 3.400000e-01    2.500000e+00
 TP5dq TP2dq  1 3.400000e-01    2.500000e+00
 TP5dq TP1dq  1 3.400000e-01    2.280000e+00
 TP5dq TN6dq  1 3.400000e-01    2.020000e+00
 TP5dq TN5dq  1 3.400000e-01    1.770000e+00
 TP5dq TN4dq  1 3.400000e-01    1.770000e+00
 TP5dq TN3dq  1 3.400000e-01    1.510000e+00
 TP5dq TN2dq  1 3.400000e-01    1.230000e+00
 TP5dq TN1dq  1 3.520000e-01    1.050000e+00
 TP4dq TP4dq  1 3.400000e-01    2.740000e+00
 TP4dq TP3dq  1 3.400000e-01    2.500000e+00
 TP4dq TP2dq  1 3.400000e-01    2.500000e+00
 TP4dq TP1dq  1 3.400000e-01    2.280000e+00
 TP4dq TN6dq  1 3.400000e-01    2.020000e+00
 TP4dq TN5dq  1 3.400000e-01    1.770000e+00
 TP4dq TN4dq  1 3.400000e-01    1.770000e+00
 TP4dq TN3dq  1 3.400000e-01    1.510000e+00
 TP4dq TN2dq  1 3.400000e-01    1.510000e+00
 TP4dq TN1dq  1 3.400000e-01    1.230000e+00
 TP3dq TP3dq  1 3.400000e-01    2.500000e+00
 TP3dq TP2dq  1 3.400000e-01    2.500000e+00
 TP3dq TP1dq  1 3.400000e-01    2.280000e+00
 TP3dq TN6dq  1 3.400000e-01    2.020000e+00
 TP3dq TN5dq  1 3.400000e-01    1.770000e+00
 TP3dq TN4dq  1 3.400000e-01    1.770000e+00
 TP3dq TN3dq  1 3.400000e-01    1.510000e+00
 TP3dq TN2dq  1 3.400000e-01    1.510000e+00
 TP3dq TN1dq  1 3.400000e-01    1.510000e+00
 TP2dq TP2dq  1 3.400000e-01    2.500000e+00
 TP2dq TP1dq  1 3.400000e-01    2.280000e+00
 TP2dq TN6dq  1 3.400000e-01    2.280000e+00
 TP2dq TN5dq  1 3.400000e-01    2.020000e+00
 TP2dq TN4dq  1 3.400000e-01    1.770000e+00
 TP2dq TN3dq  1 3.400000e-01    1.510000e+00
 TP2dq TN2dq  1 3.400000e-01    1.510000e+00
 TP2dq TN1dq  1 3.400000e-01    1.510000e+00
 TP1dq TP1dq  1 3.400000e-01    2.280000e+00
 TP1dq TN6dq  1 3.400000e-01    2.280000e+00
 TP1dq TN5dq  1 3.400000e-01    2.020000e+00
 TP1dq TN4dq  1 3.400000e-01    2.020000e+00
 TP1dq TN3dq  1 3.400000e-01    1.510000e+00
 TP1dq TN2dq  1 3.400000e-01    1.510000e+00
 TP1dq TN1dq  1 3.400000e-01    1.510000e+00
 TN6dq TN6dq  1 3.400000e-01    2.280000e+00
 TN6dq TN5dq  1 3.400000e-01    2.280000e+00
 TN6dq TN4dq  1 3.400000e-01    2.280000e+00
 TN6dq TN3dq  1 3.400000e-01    1.770000e+00
 TN6dq TN2dq  1 3.400000e-01    1.510000e+00
 TN6dq TN1dq  1 3.400000e-01    1.510000e+00
 TN5dq TN5dq  1 3.400000e-01    2.020000e+00
 TN5dq TN4dq  1 3.400000e-01    2.020000e+00
 TN5dq TN3dq  1 3.400000e-01    1.770000e+00
 TN5dq TN2dq  1 3.400000e-01    1.770000e+00
 TN5dq TN1dq  1 3.400000e-01    1.510000e+00
 TN4dq TN4dq  1 3.400000e-01    2.020000e+00
 TN4dq TN3dq  1 3.400000e-01    1.770000e+00
 TN4dq TN2dq  1 3.400000e-01    1.770000e+00
 TN4dq TN1dq  1 3.400000e-01    1.510000e+00
 TN3dq TN3dq  1 3.400000e-01    1.770000e+00
 TN3dq TN2dq  1 3.400000e-01    1.770000e+00
 TN3dq TN1dq  1 3.400000e-01    1.510000e+00
 TN2dq TN2dq  1 3.400000e-01    1.770000e+00
 TN2dq TN1dq  1 3.400000e-01    1.510000e+00
 TN1dq TN1dq  1 3.400000e-01    1.770000e+00
 TP6aq TP6aq  1 3.400000e-01    3.470000e+00
 TP6aq TP5aq  1 3.400000e-01    3.220000e+00
 TP6aq TP4aq  1 3.400000e-01    2.990000e+00
 TP6aq TP3aq  1 3.400000e-01    2.740000e+00
 TP6aq TP2aq  1 3.400000e-01    2.740000e+00
 TP6aq TP1aq  1 3.400000e-01    2.500000e+00
 TP6aq TN6aq  1 3.400000e-01    2.280000e+00
 TP6aq TN5aq  1 3.400000e-01    1.770000e+00
 TP6aq TN4aq  1 3.400000e-01    1.510000e+00
 TP6aq TN3aq  1 3.400000e-01    1.510000e+00
 TP6aq TN2aq  1 3.400000e-01    1.230000e+00
 TP6aq TN1aq  1 3.520000e-01    1.050000e+00
 TP5aq TP5aq  1 3.400000e-01    2.990000e+00
 TP5aq TP4aq  1 3.400000e-01    2.740000e+00
 TP5aq TP3aq  1 3.400000e-01    2.500000e+00
 TP5aq TP2aq  1 3.400000e-01    2.500000e+00
 TP5aq TP1aq  1 3.400000e-01    2.280000e+00
 TP5aq TN6aq  1 3.400000e-01    2.020000e+00
 TP5aq TN5aq  1 3.400000e-01    1.770000e+00
 TP5aq TN4aq  1 3.400000e-01    1.770000e+00
 TP5aq TN3aq  1 3.400000e-01    1.510000e+00
 TP5aq TN2aq  1 3.400000e-01    1.230000e+00
 TP5aq TN1aq  1 3.520000e-01    1.050000e+00
 TP4aq TP4aq  1 3.400000e-01    2.740000e+00
 TP4aq TP3aq  1 3.400000e-01    2.500000e+00
 TP4aq TP2aq  1 3.400000e-01    2.500000e+00
 TP4aq TP1aq  1 3.400000e-01    2.280000e+00
 TP4aq TN6aq  1 3.400000e-01    2.020000e+00
 TP4aq TN5aq  1 3.400000e-01    1.770000e+00
 TP4aq TN4aq  1 3.400000e-01    1.770000e+00
 TP4aq TN3aq  1 3.400000e-01    1.510000e+00
 TP4aq TN2aq  1 3.400000e-01    1.510000e+00
 TP4aq TN1aq  1 3.400000e-01    1.230000e+00
 TP3aq TP3aq  1 3.400000e-01    2.500000e+00
 TP3aq TP2aq  1 3.400000e-01    2.500000e+00
 TP3aq TP1aq  1 3.400000e-01    2.280000e+00
 TP3aq TN6aq  1 3.400000e-01    2.020000e+00
 TP3aq TN5aq  1 3.400000e-01    1.770000e+00
 TP3aq TN4aq  1 3.400000e-01    1.770000e+00
 TP3aq TN3aq  1 3.400000e-01    1.510000e+00
 TP3aq TN2aq  1 3.400000e-01    1.510000e+00
 TP3aq TN1aq  1 3.400000e-01    1.510000e+00
 TP2aq TP2aq  1 3.400000e-01    2.500000e+00
 TP2aq TP1aq  1 3.400000e-01    2.280000e+00
 TP2aq TN6aq  1 3.400000e-01    2.280000e+00
 TP2aq TN5aq  1 3.400000e-01    2.020000e+00
 TP2aq TN4aq  1 3.400000e-01    1.770000e+00
 TP2aq TN3aq  1 3.400000e-01    1.510000e+00
 TP2aq TN2aq  1 3.400000e-01    1.510000e+00
 TP2aq TN1aq  1 3.400000e-01    1.510000e+00
 TP1aq TP1aq  1 3.400000e-01    2.280000e+00
 TP1aq TN6aq  1 3.400000e-01    2.280000e+00
 TP1aq TN5aq  1 3.400000e-01    2.020000e+00
 TP1aq TN4aq  1 3.400000e-01    2.020000e+00
 TP1aq TN3aq  1 3.400000e-01    1.510000e+00
 TP1aq TN2aq  1 3.400000e-01    1.510000e+00
 TP1aq TN1aq  1 3.400000e-01    1.510000e+00
 TN6aq TN6aq  1 3.400000e-01    2.280000e+00
 TN6aq TN5aq  1 3.400000e-01    2.280000e+00
 TN6aq TN4aq  1 3.400000e-01    2.280000e+00
 TN6aq TN3aq  1 3.400000e-01    1.770000e+00
 TN6aq TN2aq  1 3.400000e-01    1.510000e+00
 TN6aq TN1aq  1 3.400000e-01    1.510000e+00
 TN5aq TN5aq  1 3.400000e-01    2.020000e+00
 TN5aq TN4aq  1 3.400000e-01    2.020000e+00
 TN5aq TN3aq  1 3.400000e-01    1.770000e+00
 TN5aq TN2aq  1 3.400000e-01    1.770000e+00
 TN5aq TN1aq  1 3.400000e-01    1.510000e+00
 TN4aq TN4aq  1 3.400000e-01    2.020000e+00
 TN4aq TN3aq  1 3.400000e-01    1.770000e+00
 TN4aq TN2aq  1 3.400000e-01    1.770000e+00
 TN4aq TN1aq  1 3.400000e-01    1.510000e+00
 TN3aq TN3aq  1 3.400000e-01    1.770000e+00
 TN3aq TN2aq  1 3.400000e-01    1.770000e+00
 TN3aq TN1aq  1 3.400000e-01    1.510000e+00
 TN2aq TN2aq  1 3.400000e-01    1.770000e+00
 TN2aq TN1aq  1 3.400000e-01    1.510000e+00
 TN1aq TN1aq  1 3.400000e-01    1.770000e+00
 TP6dq  TP5q  1 3.400000e-01    3.470000e+00
 TP6dq  TP4q  1 3.400000e-01    3.220000e+00
 TP6dq  TP3q  1 3.400000e-01    2.990000e+00
 TP6dq  TP2q  1 3.400000e-01    2.990000e+00
 TP6dq  TP1q  1 3.400000e-01    2.740000e+00
 TP6dq  TN6q  1 3.400000e-01    2.500000e+00
 TP6dq  TN5q  1 3.400000e-01    2.020000e+00
 TP6dq  TN4q  1 3.400000e-01    1.770000e+00
 TP6dq  TN3q  1 3.400000e-01    1.510000e+00
 TP6dq  TN2q  1 3.400000e-01    1.230000e+00
 TP6dq  TN1q  1 3.520000e-01    1.050000e+00
 TP6dq  TC6q  1 3.520000e-01    1.050000e+00
 TP6dq  TC5q  1 3.630000e-01    9.350000e-01
 TP6dq  TC4q  1 3.660000e-01    9.350000e-01
 TP6dq  TC3q  1 3.850000e-01    8.550000e-01
 TP6dq  TC2q  1 3.850000e-01    8.550000e-01
 TP6dq  TC1q  1 4.380000e-01    7.310000e-01
 TP6dq  TX4q  1 3.400000e-01    1.230000e+00
 TP6dq  TX3q  1 3.400000e-01    1.230000e+00
 TP6dq  TX2q  1 3.520000e-01    1.050000e+00
 TP6dq  TX1q  1 3.630000e-01    9.350000e-01
 TP5dq  TP4q  1 3.400000e-01    2.990000e+00
 TP5dq  TP3q  1 3.400000e-01    2.740000e+00
 TP5dq  TP2q  1 3.400000e-01    2.740000e+00
 TP5dq  TP1q  1 3.400000e-01    2.500000e+00
 TP5dq  TN6q  1 3.400000e-01    2.280000e+00
 TP5dq  TN5q  1 3.400000e-01    2.020000e+00
 TP5dq  TN4q  1 3.400000e-01    2.020000e+00
 TP5dq  TN3q  1 3.400000e-01    1.510000e+00
 TP5dq  TN2q  1 3.400000e-01    1.230000e+00
 TP5dq  TN1q  1 3.520000e-01    1.050000e+00
 TP5dq  TC6q  1 3.520000e-01    1.050000e+00
 TP5dq  TC5q  1 3.520000e-01    1.050000e+00
 TP5dq  TC4q  1 3.630000e-01    9.350000e-01
 TP5dq  TC3q  1 3.660000e-01    9.350000e-01
 TP5dq  TC2q  1 3.660000e-01    9.350000e-01
 TP5dq  TC1q  1 3.850000e-01    8.550000e-01
 TP5dq  TX4q  1 3.400000e-01    1.510000e+00
 TP5dq  TX3q  1 3.400000e-01    1.230000e+00
 TP5dq  TX2q  1 3.400000e-01    1.230000e+00
 TP5dq  TX1q  1 3.630000e-01    9.350000e-01
 TP4dq  TP3q  1 3.400000e-01    2.740000e+00
 TP4dq  TP2q  1 3.400000e-01    2.740000e+00
 TP4dq  TP1q  1 3.400000e-01    2.500000e+00
 TP4dq  TN6q  1 3.400000e-01    2.280000e+00
 TP4dq  TN5q  1 3.400000e-01    2.020000e+00
 TP4dq  TN4q  1 3.400000e-01    2.020000e+00
 TP4dq  TN3q  1 3.400000e-01    1.770000e+00
 TP4dq  TN2q  1 3.400000e-01    1.510000e+00
 TP4dq  TN1q  1 3.400000e-01    1.230000e+00
 TP4dq  TC6q  1 3.400000e-01    1.230000e+00
 TP4dq  TC5q  1 3.520000e-01    1.050000e+00
 TP4dq  TC4q  1 3.630000e-01    9.350000e-01
 TP4dq  TC3q  1 3.660000e-01    9.350000e-01
 TP4dq  TC2q  1 3.660000e-01    9.350000e-01
 TP4dq  TC1q  1 3.850000e-01    8.550000e-01
 TP4dq  TX4q  1 3.400000e-01    1.510000e+00
 TP4dq  TX3q  1 3.400000e-01    1.230000e+00
 TP4dq  TX2q  1 3.400000e-01    1.230000e+00
 TP4dq  TX1q  1 3.520000e-01    1.050000e+00
 TP3dq  TP2q  1 3.400000e-01    2.740000e+00
 TP3dq  TP1q  1 3.400000e-01    2.500000e+00
 TP3dq  TN6q  1 3.400000e-01    2.280000e+00
 TP3dq  TN5q  1 3.400000e-01    2.020000e+00
 TP3dq  TN4q  1 3.400000e-01    2.020000e+00
 TP3dq  TN3q  1 3.400000e-01    1.770000e+00
 TP3dq  TN2q  1 3.400000e-01    1.770000e+00
 TP3dq  TN1q  1 3.400000e-01    1.510000e+00
 TP3dq  TC6q  1 3.400000e-01    1.510000e+00
 TP3dq  TC5q  1 3.400000e-01    1.230000e+00
 TP3dq  TC4q  1 3.520000e-01    1.050000e+00
 TP3dq  TC3q  1 3.660000e-01    9.350000e-01
 TP3dq  TC2q  1 3.660000e-01    9.350000e-01
 TP3dq  TC1q  1 3.850000e-01    8.550000e-01
 TP3dq  TX4q  1 3.400000e-01    1.510000e+00
 TP3dq  TX3q  1 3.400000e-01    1.510000e+00
 TP3dq  TX2q  1 3.400000e-01    1.230000e+00
 TP3dq  TX1q  1 3.520000e-01    1.050000e+00
 TP2dq  TP1q  1 3.400000e-01    2.500000e+00
 TP2dq  TN6q  1 3.400000e-01    2.500000e+00
 TP2dq  TN5q  1 3.400000e-01    2.280000e+00
 TP2dq  TN4q  1 3.400000e-01    2.020000e+00
 TP2dq  TN3q  1 3.400000e-01    1.770000e+00
 TP2dq  TN2q  1 3.400000e-01    1.770000e+00
 TP2dq  TN1q  1 3.400000e-01    1.770000e+00
 TP2dq  TC6q  1 3.400000e-01    1.510000e+00
 TP2dq  TC5q  1 3.400000e-01    1.230000e+00
 TP2dq  TC4q  1 3.520000e-01    1.050000e+00
 TP2dq  TC3q  1 3.630000e-01    9.350000e-01
 TP2dq  TC2q  1 3.630000e-01    9.350000e-01
 TP2dq  TC1q  1 3.660000e-01    9.350000e-01
 TP2dq  TX4q  1 3.400000e-01    1.510000e+00
 TP2dq  TX3q  1 3.400000e-01    1.510000e+00
 TP2dq  TX2q  1 3.400000e-01    1.230000e+00
 TP2dq  TX1q  1 3.520000e-01    1.050000e+00
 TP1dq  TN6q  1 3.400000e-01    2.500000e+00
 TP1dq  TN5q  1 3.400000e-01    2.280000e+00
 TP1dq  TN4q  1 3.400000e-01    2.280000e+00
 TP1dq  TN3q  1 3.400000e-01    1.770000e+00
 TP1dq  TN2q  1 3.400000e-01    1.770000e+00
 TP1dq  TN1q  1 3.400000e-01    1.770000e+00
 TP1dq  TC6q  1 3.400000e-01    1.510000e+00
 TP1dq  TC5q  1 3.400000e-01    1.230000e+00
 TP1dq  TC4q  1 3.520000e-01    1.050000e+00
 TP1dq  TC3q  1 3.630000e-01    9.350000e-01
 TP1dq  TC2q  1 3.630000e-01    9.350000e-01
 TP1dq  TC1q  1 3.660000e-01    9.350000e-01
 TP1dq  TX4q  1 3.400000e-01    1.510000e+00
 TP1dq  TX3q  1 3.400000e-01    1.510000e+00
 TP1dq  TX2q  1 3.400000e-01    1.230000e+00
 TP1dq  TX1q  1 3.520000e-01    1.050000e+00
 TN6dq  TN5q  1 3.400000e-01    2.500000e+00
 TN6dq  TN4q  1 3.400000e-01    2.500000e+00
 TN6dq  TN3q  1 3.400000e-01    2.020000e+00
 TN6dq  TN2q  1 3.400000e-01    1.770000e+00
 TN6dq  TN1q  1 3.400000e-01    1.770000e+00
 TN6dq  TC6q  1 3.400000e-01    1.770000e+00
 TN6dq  TC5q  1 3.400000e-01    1.510000e+00
 TN6dq  TC4q  1 3.400000e-01    1.230000e+00
 TN6dq  TC3q  1 3.520000e-01    1.050000e+00
 TN6dq  TC2q  1 3.520000e-01    1.050000e+00
 TN6dq  TC1q  1 3.630000e-01    9.350000e-01
 TN6dq  TX4q  1 3.400000e-01    1.770000e+00
 TN6dq  TX3q  1 3.400000e-01    1.510000e+00
 TN6dq  TX2q  1 3.400000e-01    1.230000e+00
 TN6dq  TX1q  1 3.520000e-01    1.050000e+00
 TN5dq  TN4q  1 3.400000e-01    2.280000e+00
 TN5dq  TN3q  1 3.400000e-01    2.020000e+00
 TN5dq  TN2q  1 3.400000e-01    2.020000e+00
 TN5dq  TN1q  1 3.400000e-01    1.770000e+00
 TN5dq  TC6q  1 3.400000e-01    1.770000e+00
 TN5dq  TC5q  1 3.400000e-01    1.510000e+00
 TN5dq  TC4q  1 3.400000e-01    1.230000e+00
 TN5dq  TC3q  1 3.400000e-01    1.230000e+00
 TN5dq  TC2q  1 3.520000e-01    1.050000e+00
 TN5dq  TC1q  1 3.630000e-01    9.350000e-01
 TN5dq  TX4q  1 3.400000e-01    2.020000e+00
 TN5dq  TX3q  1 3.400000e-01    1.770000e+00
 TN5dq  TX2q  1 3.400000e-01    1.510000e+00
 TN5dq  TX1q  1 3.400000e-01    1.230000e+00
 TN4dq  TN3q  1 3.400000e-01    2.020000e+00
 TN4dq  TN2q  1 3.400000e-01    2.020000e+00
 TN4dq  TN1q  1 3.400000e-01    1.770000e+00
 TN4dq  TC6q  1 3.400000e-01    1.770000e+00
 TN4dq  TC5q  1 3.400000e-01    1.510000e+00
 TN4dq  TC4q  1 3.400000e-01    1.510000e+00
 TN4dq  TC3q  1 3.400000e-01    1.230000e+00
 TN4dq  TC2q  1 3.520000e-01    1.050000e+00
 TN4dq  TC1q  1 3.630000e-01    9.350000e-01
 TN4dq  TX4q  1 3.400000e-01    2.280000e+00
 TN4dq  TX3q  1 3.400000e-01    2.020000e+00
 TN4dq  TX2q  1 3.400000e-01    1.510000e+00
 TN4dq  TX1q  1 3.400000e-01    1.230000e+00
 TN3dq  TN2q  1 3.400000e-01    2.020000e+00
 TN3dq  TN1q  1 3.400000e-01    1.770000e+00
 TN3dq  TC6q  1 3.400000e-01    1.770000e+00
 TN3dq  TC5q  1 3.400000e-01    1.510000e+00
 TN3dq  TC4q  1 3.400000e-01    1.510000e+00
 TN3dq  TC3q  1 3.400000e-01    1.230000e+00
 TN3dq  TC2q  1 3.400000e-01    1.230000e+00
 TN3dq  TC1q  1 3.520000e-01    1.050000e+00
 TN3dq  TX4q  1 3.400000e-01    2.020000e+00
 TN3dq  TX3q  1 3.400000e-01    1.770000e+00
 TN3dq  TX2q  1 3.400000e-01    1.510000e+00
 TN3dq  TX1q  1 3.400000e-01    1.510000e+00
 TN2dq  TN1q  1 3.400000e-01    1.770000e+00
 TN2dq  TC6q  1 3.400000e-01    1.770000e+00
 TN2dq  TC5q  1 3.400000e-01    1.510000e+00
 TN2dq  TC4q  1 3.400000e-01    1.510000e+00
 TN2dq  TC3q  1 3.400000e-01    1.510000e+00
 TN2dq  TC2q  1 3.400000e-01    1.230000e+00
 TN2dq  TC1q  1 3.520000e-01    1.050000e+00
 TN2dq  TX4q  1 3.400000e-01    2.020000e+00
 TN2dq  TX3q  1 3.400000e-01    1.770000e+00
 TN2dq  TX2q  1 3.400000e-01    1.510000e+00
 TN2dq  TX1q  1 3.400000e-01    1.510000e+00
 TN1dq  TC6q  1 3.400000e-01    2.020000e+00
 TN1dq  TC5q  1 3.400000e-01    1.770000e+00
 TN1dq  TC4q  1 3.400000e-01    1.770000e+00
 TN1dq  TC3q  1 3.400000e-01    1.510000e+00
 TN1dq  TC2q  1 3.400000e-01    1.230000e+00
 TN1dq  TC1q  1 3.520000e-01    1.050000e+00
 TN1dq  TX4q  1 3.400000e-01    1.770000e+00
 TN1dq  TX3q  1 3.400000e-01    1.770000e+00
 TN1dq  TX2q  1 3.400000e-01    1.510000e+00
 TN1dq  TX1q  1 3.400000e-01    1.510000e+00
 TP6aq  TP5q  1 3.400000e-01    3.470000e+00
 TP6aq  TP4q  1 3.400000e-01    3.220000e+00
 TP6aq  TP3q  1 3.400000e-01    2.990000e+00
 TP6aq  TP2q  1 3.400000e-01    2.990000e+00
 TP6aq  TP1q  1 3.400000e-01    2.740000e+00
 TP6aq  TN6q  1 3.400000e-01    2.500000e+00
 TP6aq  TN5q  1 3.400000e-01    2.020000e+00
 TP6aq  TN4q  1 3.400000e-01    1.770000e+00
 TP6aq  TN3q  1 3.400000e-01    1.510000e+00
 TP6aq  TN2q  1 3.400000e-01    1.230000e+00
 TP6aq  TN1q  1 3.520000e-01    1.050000e+00
 TP6aq  TC6q  1 3.520000e-01    1.050000e+00
 TP6aq  TC5q  1 3.630000e-01    9.350000e-01
 TP6aq  TC4q  1 3.660000e-01    9.350000e-01
 TP6aq  TC3q  1 3.850000e-01    8.550000e-01
 TP6aq  TC2q  1 3.850000e-01    8.550000e-01
 TP6aq  TC1q  1 4.380000e-01    7.310000e-01
 TP6aq  TX4q  1 3.400000e-01    1.230000e+00
 TP6aq  TX3q  1 3.400000e-01    1.230000e+00
 TP6aq  TX2q  1 3.520000e-01    1.050000e+00
 TP6aq  TX1q  1 3.630000e-01    9.350000e-01
 TP5aq  TP4q  1 3.400000e-01    2.990000e+00
 TP5aq  TP3q  1 3.400000e-01    2.740000e+00
 TP5aq  TP2q  1 3.400000e-01    2.740000e+00
 TP5aq  TP1q  1 3.400000e-01    2.500000e+00
 TP5aq  TN6q  1 3.400000e-01    2.280000e+00
 TP5aq  TN5q  1 3.400000e-01    2.020000e+00
 TP5aq  TN4q  1 3.400000e-01    2.020000e+00
 TP5aq  TN3q  1 3.400000e-01    1.510000e+00
 TP5aq  TN2q  1 3.400000e-01    1.230000e+00
 TP5aq  TN1q  1 3.520000e-01    1.050000e+00
 TP5aq  TC6q  1 3.520000e-01    1.050000e+00
 TP5aq  TC5q  1 3.520000e-01    1.050000e+00
 TP5aq  TC4q  1 3.630000e-01    9.350000e-01
 TP5aq  TC3q  1 3.660000e-01    9.350000e-01
 TP5aq  TC2q  1 3.660000e-01    9.350000e-01
 TP5aq  TC1q  1 3.850000e-01    8.550000e-01
 TP5aq  TX4q  1 3.400000e-01    1.510000e+00
 TP5aq  TX3q  1 3.400000e-01    1.230000e+00
 TP5aq  TX2q  1 3.400000e-01    1.230000e+00
 TP5aq  TX1q  1 3.630000e-01    9.350000e-01
 TP4aq  TP3q  1 3.400000e-01    2.740000e+00
 TP4aq  TP2q  1 3.400000e-01    2.740000e+00
 TP4aq  TP1q  1 3.400000e-01    2.500000e+00
 TP4aq  TN6q  1 3.400000e-01    2.280000e+00
 TP4aq  TN5q  1 3.400000e-01    2.020000e+00
 TP4aq  TN4q  1 3.400000e-01    2.020000e+00
 TP4aq  TN3q  1 3.400000e-01    1.770000e+00
 TP4aq  TN2q  1 3.400000e-01    1.510000e+00
 TP4aq  TN1q  1 3.400000e-01    1.230000e+00
 TP4aq  TC6q  1 3.400000e-01    1.230000e+00
 TP4aq  TC5q  1 3.520000e-01    1.050000e+00
 TP4aq  TC4q  1 3.630000e-01    9.350000e-01
 TP4aq  TC3q  1 3.660000e-01    9.350000e-01
 TP4aq  TC2q  1 3.660000e-01    9.350000e-01
 TP4aq  TC1q  1 3.850000e-01    8.550000e-01
 TP4aq  TX4q  1 3.400000e-01    1.510000e+00
 TP4aq  TX3q  1 3.400000e-01    1.230000e+00
 TP4aq  TX2q  1 3.400000e-01    1.230000e+00
 TP4aq  TX1q  1 3.520000e-01    1.050000e+00
 TP3aq  TP2q  1 3.400000e-01    2.740000e+00
 TP3aq  TP1q  1 3.400000e-01    2.500000e+00
 TP3aq  TN6q  1 3.400000e-01    2.280000e+00
 TP3aq  TN5q  1 3.400000e-01    2.020000e+00
 TP3aq  TN4q  1 3.400000e-01    2.020000e+00
 TP3aq  TN3q  1 3.400000e-01    1.770000e+00
 TP3aq  TN2q  1 3.400000e-01    1.770000e+00
 TP3aq  TN1q  1 3.400000e-01    1.510000e+00
 TP3aq  TC6q  1 3.400000e-01    1.510000e+00
 TP3aq  TC5q  1 3.400000e-01    1.230000e+00
 TP3aq  TC4q  1 3.520000e-01    1.050000e+00
 TP3aq  TC3q  1 3.660000e-01    9.350000e-01
 TP3aq  TC2q  1 3.660000e-01    9.350000e-01
 TP3aq  TC1q  1 3.850000e-01    8.550000e-01
 TP3aq  TX4q  1 3.400000e-01    1.510000e+00
 TP3aq  TX3q  1 3.400000e-01    1.510000e+00
 TP3aq  TX2q  1 3.400000e-01    1.230000e+00
 TP3aq  TX1q  1 3.520000e-01    1.050000e+00
 TP2aq  TP1q  1 3.400000e-01    2.500000e+00
 TP2aq  TN6q  1 3.400000e-01    2.500000e+00
 TP2aq  TN5q  1 3.400000e-01    2.280000e+00
 TP2aq  TN4q  1 3.400000e-01    2.020000e+00
 TP2aq  TN3q  1 3.400000e-01    1.770000e+00
 TP2aq  TN2q  1 3.400000e-01    1.770000e+00
 TP2aq  TN1q  1 3.400000e-01    1.770000e+00
 TP2aq  TC6q  1 3.400000e-01    1.510000e+00
 TP2aq  TC5q  1 3.400000e-01    1.230000e+00
 TP2aq  TC4q  1 3.520000e-01    1.050000e+00
 TP2aq  TC3q  1 3.630000e-01    9.350000e-01
 TP2aq  TC2q  1 3.630000e-01    9.350000e-01
 TP2aq  TC1q  1 3.660000e-01    9.350000e-01
 TP2aq  TX4q  1 3.400000e-01    1.510000e+00
 TP2aq  TX3q  1 3.400000e-01    1.510000e+00
 TP2aq  TX2q  1 3.400000e-01    1.230000e+00
 TP2aq  TX1q  1 3.520000e-01    1.050000e+00
 TP1aq  TN6q  1 3.400000e-01    2.500000e+00
 TP1aq  TN5q  1 3.400000e-01    2.280000e+00
 TP1aq  TN4q  1 3.400000e-01    2.280000e+00
 TP1aq  TN3q  1 3.400000e-01    1.770000e+00
 TP1aq  TN2q  1 3.400000e-01    1.770000e+00
 TP1aq  TN1q  1 3.400000e-01    1.770000e+00
 TP1aq  TC6q  1 3.400000e-01    1.510000e+00
 TP1aq  TC5q  1 3.400000e-01    1.230000e+00
 TP1aq  TC4q  1 3.520000e-01    1.050000e+00
 TP1aq  TC3q  1 3.630000e-01    9.350000e-01
 TP1aq  TC2q  1 3.630000e-01    9.350000e-01
 TP1aq  TC1q  1 3.660000e-01    9.350000e-01
 TP1aq  TX4q  1 3.400000e-01    1.510000e+00
 TP1aq  TX3q  1 3.400000e-01    1.510000e+00
 TP1aq  TX2q  1 3.400000e-01    1.230000e+00
 TP1aq  TX1q  1 3.520000e-01    1.050000e+00
 TN6aq  TN5q  1 3.400000e-01    2.500000e+00
 TN6aq  TN4q  1 3.400000e-01    2.500000e+00
 TN6aq  TN3q  1 3.400000e-01    2.020000e+00
 TN6aq  TN2q  1 3.400000e-01    1.770000e+00
 TN6aq  TN1q  1 3.400000e-01    1.770000e+00
 TN6aq  TC6q  1 3.400000e-01    1.770000e+00
 TN6aq  TC5q  1 3.400000e-01    1.510000e+00
 TN6aq  TC4q  1 3.400000e-01    1.230000e+00
 TN6aq  TC3q  1 3.520000e-01    1.050000e+00
 TN6aq  TC2q  1 3.520000e-01    1.050000e+00
 TN6aq  TC1q  1 3.630000e-01    9.350000e-01
 TN6aq  TX4q  1 3.400000e-01    1.770000e+00
 TN6aq  TX3q  1 3.400000e-01    1.510000e+00
 TN6aq  TX2q  1 3.400000e-01    1.230000e+00
 TN6aq  TX1q  1 3.520000e-01    1.050000e+00
 TN5aq  TN4q  1 3.400000e-01    2.280000e+00
 TN5aq  TN3q  1 3.400000e-01    2.020000e+00
 TN5aq  TN2q  1 3.400000e-01    2.020000e+00
 TN5aq  TN1q  1 3.400000e-01    1.770000e+00
 TN5aq  TC6q  1 3.400000e-01    1.770000e+00
 TN5aq  TC5q  1 3.400000e-01    1.510000e+00
 TN5aq  TC4q  1 3.400000e-01    1.230000e+00
 TN5aq  TC3q  1 3.400000e-01    1.230000e+00
 TN5aq  TC2q  1 3.520000e-01    1.050000e+00
 TN5aq  TC1q  1 3.630000e-01    9.350000e-01
 TN5aq  TX4q  1 3.400000e-01    2.020000e+00
 TN5aq  TX3q  1 3.400000e-01    1.770000e+00
 TN5aq  TX2q  1 3.400000e-01    1.510000e+00
 TN5aq  TX1q  1 3.400000e-01    1.230000e+00
 TN4aq  TN3q  1 3.400000e-01    2.020000e+00
 TN4aq  TN2q  1 3.400000e-01    2.020000e+00
 TN4aq  TN1q  1 3.400000e-01    1.770000e+00
 TN4aq  TC6q  1 3.400000e-01    1.770000e+00
 TN4aq  TC5q  1 3.400000e-01    1.510000e+00
 TN4aq  TC4q  1 3.400000e-01    1.510000e+00
 TN4aq  TC3q  1 3.400000e-01    1.230000e+00
 TN4aq  TC2q  1 3.520000e-01    1.050000e+00
 TN4aq  TC1q  1 3.630000e-01    9.350000e-01
 TN4aq  TX4q  1 3.400000e-01    2.280000e+00
 TN4aq  TX3q  1 3.400000e-01    2.020000e+00
 TN4aq  TX2q  1 3.400000e-01    1.510000e+00
 TN4aq  TX1q  1 3.400000e-01    1.230000e+00
 TN3aq  TN2q  1 3.400000e-01    2.020000e+00
 TN3aq  TN1q  1 3.400000e-01    1.770000e+00
 TN3aq  TC6q  1 3.400000e-01    1.770000e+00
 TN3aq  TC5q  1 3.400000e-01    1.510000e+00
 TN3aq  TC4q  1 3.400000e-01    1.510000e+00
 TN3aq  TC3q  1 3.400000e-01    1.230000e+00
 TN3aq  TC2q  1 3.400000e-01    1.230000e+00
 TN3aq  TC1q  1 3.520000e-01    1.050000e+00
 TN3aq  TX4q  1 3.400000e-01    2.020000e+00
 TN3aq  TX3q  1 3.400000e-01    1.770000e+00
 TN3aq  TX2q  1 3.400000e-01    1.510000e+00
 TN3aq  TX1q  1 3.400000e-01    1.510000e+00
 TN2aq  TN1q  1 3.400000e-01    1.770000e+00
 TN2aq  TC6q  1 3.400000e-01    1.770000e+00
 TN2aq  TC5q  1 3.400000e-01    1.510000e+00
 TN2aq  TC4q  1 3.400000e-01    1.510000e+00
 TN2aq  TC3q  1 3.400000e-01    1.510000e+00
 TN2aq  TC2q  1 3.400000e-01    1.230000e+00
 TN2aq  TC1q  1 3.520000e-01    1.050000e+00
 TN2aq  TX4q  1 3.400000e-01    2.020000e+00
 TN2aq  TX3q  1 3.400000e-01    1.770000e+00
 TN2aq  TX2q  1 3.400000e-01    1.510000e+00
 TN2aq  TX1q  1 3.400000e-01    1.510000e+00
 TN1aq  TC6q  1 3.400000e-01    2.020000e+00
 TN1aq  TC5q  1 3.400000e-01    1.770000e+00
 TN1aq  TC4q  1 3.400000e-01    1.770000e+00
 TN1aq  TC3q  1 3.400000e-01    1.510000e+00
 TN1aq  TC2q  1 3.400000e-01    1.230000e+00
 TN1aq  TC1q  1 3.520000e-01    1.050000e+00
 TN1aq  TX4q  1 3.400000e-01    1.770000e+00
 TN1aq  TX3q  1 3.400000e-01    1.770000e+00
 TN1aq  TX2q  1 3.400000e-01    1.510000e+00
 TN1aq  TX1q  1 3.400000e-01    1.510000e+00
 TC6vq  TC5q  1 3.400000e-01    2.020000e+00
 TC6vq  TC4q  1 3.400000e-01    2.020000e+00
 TC6vq  TC3q  1 3.400000e-01    1.770000e+00
 TC6vq  TC2q  1 3.400000e-01    1.510000e+00
 TC6vq  TC1q  1 3.400000e-01    1.230000e+00
 TC6vq  TX4q  1 3.400000e-01    2.020000e+00
 TC6vq  TX3q  1 3.400000e-01    2.020000e+00
 TC6vq  TX2q  1 3.400000e-01    2.020000e+00
 TC6vq  TX1q  1 3.400000e-01    2.020000e+00
 TC5vq  TC4q  1 3.400000e-01    2.020000e+00
 TC5vq  TC3q  1 3.400000e-01    1.770000e+00
 TC5vq  TC2q  1 3.400000e-01    1.510000e+00
 TC5vq  TC1q  1 3.400000e-01    1.510000e+00
 TC5vq  TX4q  1 3.400000e-01    1.770000e+00
 TC5vq  TX3q  1 3.400000e-01    1.770000e+00
 TC5vq  TX2q  1 3.400000e-01    1.770000e+00
 TC5vq  TX1q  1 3.400000e-01    2.020000e+00
 TC4vq  TC3q  1 3.400000e-01    2.020000e+00
 TC4vq  TC2q  1 3.400000e-01    1.770000e+00
 TC4vq  TC1q  1 3.400000e-01    1.510000e+00
 TC4vq  TX4q  1 3.400000e-01    1.770000e+00
 TC4vq  TX3q  1 3.400000e-01    1.770000e+00
 TC4vq  TX2q  1 3.400000e-01    1.770000e+00
 TC4vq  TX1q  1 3.400000e-01    2.020000e+00
 TC3vq  TC2q  1 3.400000e-01    2.020000e+00
 TC3vq  TC1q  1 3.400000e-01    2.020000e+00
 TC3vq  TX4q  1 3.400000e-01    1.770000e+00
 TC3vq  TX3q  1 3.400000e-01    1.770000e+00
 TC3vq  TX2q  1 3.400000e-01    1.770000e+00
 TC3vq  TX1q  1 3.400000e-01    2.020000e+00
 TC2vq  TC1q  1 3.400000e-01    2.280000e+00
 TC2vq  TX4q  1 3.400000e-01    1.230000e+00
 TC2vq  TX3q  1 3.400000e-01    1.770000e+00
 TC2vq  TX2q  1 3.400000e-01    1.770000e+00
 TC2vq  TX1q  1 3.400000e-01    1.770000e+00
 TC1vq  TX4q  1 3.400000e-01    1.230000e+00
 TC1vq  TX3q  1 3.400000e-01    1.770000e+00
 TC1vq  TX2q  1 3.400000e-01    1.770000e+00
 TC1vq  TX1q  1 3.400000e-01    1.770000e+00
 TX4vq  TX3q  1 3.400000e-01    2.020000e+00
 TX4vq  TX2q  1 3.400000e-01    2.020000e+00
 TX4vq  TX1q  1 3.400000e-01    2.020000e+00
 TX3vq  TX2q  1 3.400000e-01    2.280000e+00
 TX3vq  TX1q  1 3.400000e-01    2.280000e+00
 TX2vq  TX1q  1 3.400000e-01    2.280000e+00
 TC6eq  TC5q  1 3.400000e-01    2.020000e+00
 TC6eq  TC4q  1 3.400000e-01    2.020000e+00
 TC6eq  TC3q  1 3.400000e-01    1.770000e+00
 TC6eq  TC2q  1 3.400000e-01    1.510000e+00
 TC6eq  TC1q  1 3.400000e-01    1.230000e+00
 TC6eq  TX4q  1 3.400000e-01    2.020000e+00
 TC6eq  TX3q  1 3.400000e-01    2.020000e+00
 TC6eq  TX2q  1 3.400000e-01    2.020000e+00
 TC6eq  TX1q  1 3.400000e-01    2.020000e+00
 TC5eq  TC4q  1 3.400000e-01    2.020000e+00
 TC5eq  TC3q  1 3.400000e-01    1.770000e+00
 TC5eq  TC2q  1 3.400000e-01    1.510000e+00
 TC5eq  TC1q  1 3.400000e-01    1.510000e+00
 TC5eq  TX4q  1 3.400000e-01    1.770000e+00
 TC5eq  TX3q  1 3.400000e-01    1.770000e+00
 TC5eq  TX2q  1 3.400000e-01    1.770000e+00
 TC5eq  TX1q  1 3.400000e-01    2.020000e+00
 TC4eq  TC3q  1 3.400000e-01    2.020000e+00
 TC4eq  TC2q  1 3.400000e-01    1.770000e+00
 TC4eq  TC1q  1 3.400000e-01    1.510000e+00
 TC4eq  TX4q  1 3.400000e-01    1.770000e+00
 TC4eq  TX3q  1 3.400000e-01    1.770000e+00
 TC4eq  TX2q  1 3.400000e-01    1.770000e+00
 TC4eq  TX1q  1 3.400000e-01    2.020000e+00
 TC3eq  TC2q  1 3.400000e-01    2.020000e+00
 TC3eq  TC1q  1 3.400000e-01    2.020000e+00
 TC3eq  TX4q  1 3.400000e-01    1.770000e+00
 TC3eq  TX3q  1 3.400000e-01    1.770000e+00
 TC3eq  TX2q  1 3.400000e-01    1.770000e+00
 TC3eq  TX1q  1 3.400000e-01    2.020000e+00
 TC2eq  TC1q  1 3.400000e-01    2.280000e+00
 TC2eq  TX4q  1 3.400000e-01    1.230000e+00
 TC2eq  TX3q  1 3.400000e-01    1.770000e+00
 TC2eq  TX2q  1 3.400000e-01    1.770000e+00
 TC2eq  TX1q  1 3.400000e-01    1.770000e+00
 TC1eq  TX4q  1 3.400000e-01    1.230000e+00
 TC1eq  TX3q  1 3.400000e-01    1.770000e+00
 TC1eq  TX2q  1 3.400000e-01    1.770000e+00
 TC1eq  TX1q  1 3.400000e-01    1.770000e+00
 TX4eq  TX3q  1 3.400000e-01    2.020000e+00
 TX4eq  TX2q  1 3.400000e-01    2.020000e+00
 TX4eq  TX1q  1 3.400000e-01    2.020000e+00
 TX3eq  TX2q  1 3.400000e-01    2.280000e+00
 TX3eq  TX1q  1 3.400000e-01    2.280000e+00
 TX2eq  TX1q  1 3.400000e-01    2.280000e+00
   C6v   C6v  1 4.700000e-01    3.390000e+00
   C6v   C5v  1 4.700000e-01    3.240000e+00
   C6v   C4v  1 4.700000e-01    3.240000e+00
   C6v   C3v  1 4.700000e-01    3.070000e+00
   C6v   C2v  1 4.700000e-01    2.960000e+00
   C6v   C1v  1 4.700000e-01    2.790000e+00
   C6v   X4v  1 4.700000e-01    3.240000e+00
   C6v   X3v  1 4.700000e-01    3.240000e+00
   C6v   X2v  1 4.700000e-01    3.240000e+00
   C6v   X1v  1 4.700000e-01    3.240000e+00
   C5v   C5v  1 4.700000e-01    3.240000e+00
   C5v   C4v  1 4.700000e-01    3.240000e+00
   C5v   C3v  1 4.700000e-01    3.070000e+00
   C5v   C2v  1 4.700000e-01    2.960000e+00
   C5v   C1v  1 4.700000e-01    2.960000e+00
   C5v   X4v  1 4.700000e-01    3.070000e+00
   C5v   X3v  1 4.700000e-01    3.070000e+00
   C5v   X2v  1 4.700000e-01    3.070000e+00
   C5v   X1v  1 4.700000e-01    3.240000e+00
   C4v   C4v  1 4.700000e-01    3.240000e+00
   C4v   C3v  1 4.700000e-01    3.240000e+00
   C4v   C2v  1 4.700000e-01    3.070000e+00
   C4v   C1v  1 4.700000e-01    2.960000e+00
   C4v   X4v  1 4.700000e-01    3.070000e+00
   C4v   X3v  1 4.700000e-01    3.070000e+00
   C4v   X2v  1 4.700000e-01    3.070000e+00
   C4v   X1v  1 4.700000e-01    3.240000e+00
   C3v   C3v  1 4.700000e-01    3.240000e+00
   C3v   C2v  1 4.700000e-01    3.240000e+00
   C3v   C1v  1 4.700000e-01    3.240000e+00
   C3v   X4v  1 4.700000e-01    3.070000e+00
   C3v   X3v  1 4.700000e-01    3.070000e+00
   C3v   X2v  1 4.700000e-01    3.070000e+00
   C3v   X1v  1 4.700000e-01    3.240000e+00
   C2v   C2v  1 4.700000e-01    3.240000e+00
   C2v   C1v  1 4.700000e-01    3.390000e+00
   C2v   X4v  1 4.700000e-01    2.790000e+00
   C2v   X3v  1 4.700000e-01    3.070000e+00
   C2v   X2v  1 4.700000e-01    3.070000e+00
   C2v   X1v  1 4.700000e-01    3.070000e+00
   C1v   C1v  1 4.700000e-01    3.240000e+00
   C1v   X4v  1 4.700000e-01    2.790000e+00
   C1v   X3v  1 4.700000e-01    3.070000e+00
   C1v   X2v  1 4.700000e-01    3.070000e+00
   C1v   X1v  1 4.700000e-01    3.070000e+00
   X4v   X4v  1 4.700000e-01    3.240000e+00
   X4v   X3v  1 4.700000e-01    3.240000e+00
   X4v   X2v  1 4.700000e-01    3.240000e+00
   X4v   X1v  1 4.700000e-01    3.240000e+00
   X3v   X3v  1 4.700000e-01    3.240000e+00
   X3v   X2v  1 4.700000e-01    3.390000e+00
   X3v   X1v  1 4.700000e-01    3.390000e+00
   X2v   X2v  1 4.700000e-01    3.390000e+00
   X2v   X1v  1 4.700000e-01    3.390000e+00
   X1v   X1v  1 4.700000e-01    3.520000e+00
   C6e   C6e  1 4.700000e-01    3.390000e+00
   C6e   C5e  1 4.700000e-01    3.240000e+00
   C6e   C4e  1 4.700000e-01    3.240000e+00
   C6e   C3e  1 4.700000e-01    3.070000e+00
   C6e   C2e  1 4.700000e-01    2.960000e+00
   C6e   C1e  1 4.700000e-01    2.790000e+00
   C6e   X4e  1 4.700000e-01    3.240000e+00
   C6e   X3e  1 4.700000e-01    3.240000e+00
   C6e   X2e  1 4.700000e-01    3.240000e+00
   C6e   X1e  1 4.700000e-01    3.240000e+00
   C5e   C5e  1 4.700000e-01    3.240000e+00
   C5e   C4e  1 4.700000e-01    3.240000e+00
   C5e   C3e  1 4.700000e-01    3.070000e+00
   C5e   C2e  1 4.700000e-01    2.960000e+00
   C5e   C1e  1 4.700000e-01    2.960000e+00
   C5e   X4e  1 4.700000e-01    3.070000e+00
   C5e   X3e  1 4.700000e-01    3.070000e+00
   C5e   X2e  1 4.700000e-01    3.070000e+00
   C5e   X1e  1 4.700000e-01    3.240000e+00
   C4e   C4e  1 4.700000e-01    3.240000e+00
   C4e   C3e  1 4.700000e-01    3.240000e+00
   C4e   C2e  1 4.700000e-01    3.070000e+00
   C4e   C1e  1 4.700000e-01    2.960000e+00
   C4e   X4e  1 4.700000e-01    3.070000e+00
   C4e   X3e  1 4.700000e-01    3.070000e+00
   C4e   X2e  1 4.700000e-01    3.070000e+00
   C4e   X1e  1 4.700000e-01    3.240000e+00
   C3e   C3e  1 4.700000e-01    3.240000e+00
   C3e   C2e  1 4.700000e-01    3.240000e+00
   C3e   C1e  1 4.700000e-01    3.240000e+00
   C3e   X4e  1 4.700000e-01    3.070000e+00
   C3e   X3e  1 4.700000e-01    3.070000e+00
   C3e   X2e  1 4.700000e-01    3.070000e+00
   C3e   X1e  1 4.700000e-01    3.240000e+00
   C2e   C2e  1 4.700000e-01    3.240000e+00
   C2e   C1e  1 4.700000e-01    3.390000e+00
   C2e   X4e  1 4.700000e-01    2.790000e+00
   C2e   X3e  1 4.700000e-01    3.070000e+00
   C2e   X2e  1 4.700000e-01    3.070000e+00
   C2e   X1e  1 4.700000e-01    3.070000e+00
   C1e   C1e  1 4.700000e-01    3.240000e+00
   C1e   X4e  1 4.700000e-01    2.790000e+00
   C1e   X3e  1 4.700000e-01    3.070000e+00
   C1e   X2e  1 4.700000e-01    3.070000e+00
   C1e   X1e  1 4.700000e-01    3.070000e+00
   X4e   X4e  1 4.700000e-01    3.240000e+00
   X4e   X3e  1 4.700000e-01    3.240000e+00
   X4e   X2e  1 4.700000e-01    3.240000e+00
   X4e   X1e  1 4.700000e-01    3.240000e+00
   X3e   X3e  1 4.700000e-01    3.240000e+00
   X3e   X2e  1 4.700000e-01    3.390000e+00
   X3e   X1e  1 4.700000e-01    3.390000e+00
   X2e   X2e  1 4.700000e-01    3.390000e+00
   X2e   X1e  1 4.700000e-01    3.390000e+00
   X1e   X1e  1 4.700000e-01    3.520000e+00
   P6q   P6d  1 4.700000e-01    5.490000e+00
   P6q   N1d  1 4.700000e-01    3.240000e+00
   P6q   N2d  1 4.700000e-01    3.390000e+00
   P6q   N3d  1 4.700000e-01    3.520000e+00
   P6q   N4d  1 4.700000e-01    3.690000e+00
   P6q   N5d  1 4.700000e-01    3.880000e+00
   P6q   N6d  1 4.700000e-01    4.250000e+00
   P6q   P1d  1 4.700000e-01    4.480000e+00
   P6q   P2d  1 4.700000e-01    4.730000e+00
   P6q   P3d  1 4.700000e-01    4.730000e+00
   P6q   P4d  1 4.700000e-01    4.990000e+00
   P6q   P5d  1 4.700000e-01    5.240000e+00
   P6q   P6a  1 4.700000e-01    5.490000e+00
   P6q   N1a  1 4.700000e-01    3.240000e+00
   P6q   N2a  1 4.700000e-01    3.390000e+00
   P6q   N3a  1 4.700000e-01    3.520000e+00
   P6q   N4a  1 4.700000e-01    3.690000e+00
   P6q   N5a  1 4.700000e-01    3.880000e+00
   P6q   N6a  1 4.700000e-01    4.250000e+00
   P6q   P1a  1 4.700000e-01    4.480000e+00
   P6q   P2a  1 4.700000e-01    4.730000e+00
   P6q   P3a  1 4.700000e-01    4.730000e+00
   P6q   P4a  1 4.700000e-01    4.990000e+00
   P6q   P5a  1 4.700000e-01    5.240000e+00
   P6q   C6v  1 4.700000e-01    3.390000e+00
   P6q   C5v  1 4.700000e-01    3.240000e+00
   P6q   C4v  1 4.700000e-01    3.070000e+00
   P6q   C3v  1 4.700000e-01    2.960000e+00
   P6q   C2v  1 4.700000e-01    2.960000e+00
   P6q   C1v  1 4.700000e-01    2.620000e+00
   P6q   X4v  1 4.700000e-01    3.520000e+00
   P6q   X3v  1 4.700000e-01    3.520000e+00
   P6q   X2v  1 4.700000e-01    3.390000e+00
   P6q   X1v  1 4.700000e-01    3.240000e+00
   P6q   C6e  1 4.700000e-01    3.390000e+00
   P6q   C5e  1 4.700000e-01    3.240000e+00
   P6q   C4e  1 4.700000e-01    3.070000e+00
   P6q   C3e  1 4.700000e-01    2.960000e+00
   P6q   C2e  1 4.700000e-01    2.960000e+00
   P6q   C1e  1 4.700000e-01    2.620000e+00
   P6q   X4e  1 4.700000e-01    3.520000e+00
   P6q   X3e  1 4.700000e-01    3.520000e+00
   P6q   X2e  1 4.700000e-01    3.390000e+00
   P6q   X1e  1 4.700000e-01    3.240000e+00
   P6d   P5q  1 4.700000e-01    5.240000e+00
   P5q   P5d  1 4.700000e-01    4.990000e+00
   P5q   N1d  1 4.700000e-01    3.240000e+00
   P5q   N2d  1 4.700000e-01    3.390000e+00
   P5q   N3d  1 4.700000e-01    3.520000e+00
   P5q   N4d  1 4.700000e-01    3.880000e+00
   P5q   N5d  1 4.700000e-01    3.880000e+00
   P5q   N6d  1 4.700000e-01    4.060000e+00
   P5q   P1d  1 4.700000e-01    4.250000e+00
   P5q   P2d  1 4.700000e-01    4.480000e+00
   P5q   P3d  1 4.700000e-01    4.480000e+00
   P5q   P4d  1 4.700000e-01    4.730000e+00
   P6a   P5q  1 4.700000e-01    5.240000e+00
   P5q   P5a  1 4.700000e-01    4.990000e+00
   P5q   N1a  1 4.700000e-01    3.240000e+00
   P5q   N2a  1 4.700000e-01    3.390000e+00
   P5q   N3a  1 4.700000e-01    3.520000e+00
   P5q   N4a  1 4.700000e-01    3.880000e+00
   P5q   N5a  1 4.700000e-01    3.880000e+00
   P5q   N6a  1 4.700000e-01    4.060000e+00
   P5q   P1a  1 4.700000e-01    4.250000e+00
   P5q   P2a  1 4.700000e-01    4.480000e+00
   P5q   P3a  1 4.700000e-01    4.480000e+00
   P5q   P4a  1 4.700000e-01    4.730000e+00
   P5q   C6v  1 4.700000e-01    3.390000e+00
   P5q   C5v  1 4.700000e-01    3.390000e+00
   P5q   C4v  1 4.700000e-01    3.240000e+00
   P5q   C3v  1 4.700000e-01    3.070000e+00
   P5q   C2v  1 4.700000e-01    3.070000e+00
   P5q   C1v  1 4.700000e-01    2.960000e+00
   P5q   X4v  1 4.700000e-01    3.690000e+00
   P5q   X3v  1 4.700000e-01    3.520000e+00
   P5q   X2v  1 4.700000e-01    3.520000e+00
   P5q   X1v  1 4.700000e-01    3.240000e+00
   P5q   C6e  1 4.700000e-01    3.390000e+00
   P5q   C5e  1 4.700000e-01    3.390000e+00
   P5q   C4e  1 4.700000e-01    3.240000e+00
   P5q   C3e  1 4.700000e-01    3.070000e+00
   P5q   C2e  1 4.700000e-01    3.070000e+00
   P5q   C1e  1 4.700000e-01    2.960000e+00
   P5q   X4e  1 4.700000e-01    3.690000e+00
   P5q   X3e  1 4.700000e-01    3.520000e+00
   P5q   X2e  1 4.700000e-01    3.520000e+00
   P5q   X1e  1 4.700000e-01    3.240000e+00
   P6d   P4q  1 4.700000e-01    4.990000e+00
   P5d   P4q  1 4.700000e-01    4.730000e+00
   P4q   P4d  1 4.700000e-01    4.730000e+00
   P4q   N1d  1 4.700000e-01    3.390000e+00
   P4q   N2d  1 4.700000e-01    3.520000e+00
   P4q   N3d  1 4.700000e-01    3.690000e+00
   P4q   N4d  1 4.700000e-01    3.880000e+00
   P4q   N5d  1 4.700000e-01    3.880000e+00
   P4q   N6d  1 4.700000e-01    4.060000e+00
   P4q   P1d  1 4.700000e-01    4.250000e+00
   P4q   P2d  1 4.700000e-01    4.480000e+00
   P4q   P3d  1 4.700000e-01    4.480000e+00
   P6a   P4q  1 4.700000e-01    4.990000e+00
   P5a   P4q  1 4.700000e-01    4.730000e+00
   P4q   P4a  1 4.700000e-01    4.730000e+00
   P4q   N1a  1 4.700000e-01    3.390000e+00
   P4q   N2a  1 4.700000e-01    3.520000e+00
   P4q   N3a  1 4.700000e-01    3.690000e+00
   P4q   N4a  1 4.700000e-01    3.880000e+00
   P4q   N5a  1 4.700000e-01    3.880000e+00
   P4q   N6a  1 4.700000e-01    4.060000e+00
   P4q   P1a  1 4.700000e-01    4.250000e+00
   P4q   P2a  1 4.700000e-01    4.480000e+00
   P4q   P3a  1 4.700000e-01    4.480000e+00
   P4q   C6v  1 4.700000e-01    3.520000e+00
   P4q   C5v  1 4.700000e-01    3.390000e+00
   P4q   C4v  1 4.700000e-01    3.240000e+00
   P4q   C3v  1 4.700000e-01    3.070000e+00
   P4q   C2v  1 4.700000e-01    3.070000e+00
   P4q   C1v  1 4.700000e-01    2.960000e+00
   P4q   X4v  1 4.700000e-01    3.690000e+00
   P4q   X3v  1 4.700000e-01    3.520000e+00
   P4q   X2v  1 4.700000e-01    3.520000e+00
   P4q   X1v  1 4.700000e-01    3.390000e+00
   P4q   C6e  1 4.700000e-01    3.520000e+00
   P4q   C5e  1 4.700000e-01    3.390000e+00
   P4q   C4e  1 4.700000e-01    3.240000e+00
   P4q   C3e  1 4.700000e-01    3.070000e+00
   P4q   C2e  1 4.700000e-01    3.070000e+00
   P4q   C1e  1 4.700000e-01    2.960000e+00
   P4q   X4e  1 4.700000e-01    3.690000e+00
   P4q   X3e  1 4.700000e-01    3.520000e+00
   P4q   X2e  1 4.700000e-01    3.520000e+00
   P4q   X1e  1 4.700000e-01    3.390000e+00
   P6d   P3q  1 4.700000e-01    4.730000e+00
   P5d   P3q  1 4.700000e-01    4.480000e+00
   P4d   P3q  1 4.700000e-01    4.480000e+00
   P3q   P3d  1 4.700000e-01    4.480000e+00
   P3q   N1d  1 4.700000e-01    3.520000e+00
   P3q   N2d  1 4.700000e-01    3.690000e+00
   P3q   N3d  1 4.700000e-01    3.690000e+00
   P3q   N4d  1 4.700000e-01    3.880000e+00
   P3q   N5d  1 4.700000e-01    3.880000e+00
   P3q   N6d  1 4.700000e-01    4.060000e+00
   P3q   P1d  1 4.700000e-01    4.250000e+00
   P3q   P2d  1 4.700000e-01    4.480000e+00
   P6a   P3q  1 4.700000e-01    4.730000e+00
   P5a   P3q  1 4.700000e-01    4.480000e+00
   P4a   P3q  1 4.700000e-01    4.480000e+00
   P3q   P3a  1 4.700000e-01    4.480000e+00
   P3q   N1a  1 4.700000e-01    3.520000e+00
   P3q   N2a  1 4.700000e-01    3.690000e+00
   P3q   N3a  1 4.700000e-01    3.690000e+00
   P3q   N4a  1 4.700000e-01    3.880000e+00
   P3q   N5a  1 4.700000e-01    3.880000e+00
   P3q   N6a  1 4.700000e-01    4.060000e+00
   P3q   P1a  1 4.700000e-01    4.250000e+00
   P3q   P2a  1 4.700000e-01    4.480000e+00
   P3q   C6v  1 4.700000e-01    3.690000e+00
   P3q   C5v  1 4.700000e-01    3.520000e+00
   P3q   C4v  1 4.700000e-01    3.390000e+00
   P3q   C3v  1 4.700000e-01    3.070000e+00
   P3q   C2v  1 4.700000e-01    3.070000e+00
   P3q   C1v  1 4.700000e-01    2.960000e+00
   P3q   X4v  1 4.700000e-01    3.690000e+00
   P3q   X3v  1 4.700000e-01    3.690000e+00
   P3q   X2v  1 4.700000e-01    3.520000e+00
   P3q   X1v  1 4.700000e-01    3.390000e+00
   P3q   C6e  1 4.700000e-01    3.690000e+00
   P3q   C5e  1 4.700000e-01    3.520000e+00
   P3q   C4e  1 4.700000e-01    3.390000e+00
   P3q   C3e  1 4.700000e-01    3.070000e+00
   P3q   C2e  1 4.700000e-01    3.070000e+00
   P3q   C1e  1 4.700000e-01    2.960000e+00
   P3q   X4e  1 4.700000e-01    3.690000e+00
   P3q   X3e  1 4.700000e-01    3.690000e+00
   P3q   X2e  1 4.700000e-01    3.520000e+00
   P3q   X1e  1 4.700000e-01    3.390000e+00
   P6d   P2q  1 4.700000e-01    4.730000e+00
   P5d   P2q  1 4.700000e-01    4.480000e+00
   P4d   P2q  1 4.700000e-01    4.480000e+00
   P3d   P2q  1 4.700000e-01    4.480000e+00
   P2q   P2d  1 4.700000e-01    4.480000e+00
   P2q   N1d  1 4.700000e-01    3.690000e+00
   P2q   N2d  1 4.700000e-01    3.690000e+00
   P2q   N3d  1 4.700000e-01    3.690000e+00
   P2q   N4d  1 4.700000e-01    3.880000e+00
   P2q   N5d  1 4.700000e-01    4.060000e+00
   P2q   N6d  1 4.700000e-01    4.250000e+00
   P2q   P1d  1 4.700000e-01    4.250000e+00
   P6a   P2q  1 4.700000e-01    4.730000e+00
   P5a   P2q  1 4.700000e-01    4.480000e+00
   P4a   P2q  1 4.700000e-01    4.480000e+00
   P3a   P2q  1 4.700000e-01    4.480000e+00
   P2q   P2a  1 4.700000e-01    4.480000e+00
   P2q   N1a  1 4.700000e-01    3.690000e+00
   P2q   N2a  1 4.700000e-01    3.690000e+00
   P2q   N3a  1 4.700000e-01    3.690000e+00
   P2q   N4a  1 4.700000e-01    3.880000e+00
   P2q   N5a  1 4.700000e-01    4.060000e+00
   P2q   N6a  1 4.700000e-01    4.250000e+00
   P2q   P1a  1 4.700000e-01    4.250000e+00
   P2q   C6v  1 4.700000e-01    3.690000e+00
   P2q   C5v  1 4.700000e-01    3.520000e+00
   P2q   C4v  1 4.700000e-01    3.390000e+00
   P2q   C3v  1 4.700000e-01    3.240000e+00
   P2q   C2v  1 4.700000e-01    3.240000e+00
   P2q   C1v  1 4.700000e-01    3.070000e+00
   P2q   X4v  1 4.700000e-01    3.690000e+00
   P2q   X3v  1 4.700000e-01    3.690000e+00
   P2q   X2v  1 4.700000e-01    3.520000e+00
   P2q   X1v  1 4.700000e-01    3.390000e+00
   P2q   C6e  1 4.700000e-01    3.690000e+00
   P2q   C5e  1 4.700000e-01    3.520000e+00
   P2q   C4e  1 4.700000e-01    3.390000e+00
   P2q   C3e  1 4.700000e-01    3.240000e+00
   P2q   C2e  1 4.700000e-01    3.240000e+00
   P2q   C1e  1 4.700000e-01    3.070000e+00
   P2q   X4e  1 4.700000e-01    3.690000e+00
   P2q   X3e  1 4.700000e-01    3.690000e+00
   P2q   X2e  1 4.700000e-01    3.520000e+00
   P2q   X1e  1 4.700000e-01    3.390000e+00
   P6d   P1q  1 4.700000e-01    4.480000e+00
   P5d   P1q  1 4.700000e-01    4.250000e+00
   P4d   P1q  1 4.700000e-01    4.250000e+00
   P3d   P1q  1 4.700000e-01    4.250000e+00
   P2d   P1q  1 4.700000e-01    4.250000e+00
   P1q   P1d  1 4.700000e-01    4.250000e+00
   P1q   N1d  1 4.700000e-01    3.690000e+00
   P1q   N2d  1 4.700000e-01    3.690000e+00
   P1q   N3d  1 4.700000e-01    3.690000e+00
   P1q   N4d  1 4.700000e-01    4.060000e+00
   P1q   N5d  1 4.700000e-01    4.060000e+00
   P1q   N6d  1 4.700000e-01    4.250000e+00
   P6a   P1q  1 4.700000e-01    4.480000e+00
   P5a   P1q  1 4.700000e-01    4.250000e+00
   P4a   P1q  1 4.700000e-01    4.250000e+00
   P3a   P1q  1 4.700000e-01    4.250000e+00
   P2a   P1q  1 4.700000e-01    4.250000e+00
   P1q   P1a  1 4.700000e-01    4.250000e+00
   P1q   N1a  1 4.700000e-01    3.690000e+00
   P1q   N2a  1 4.700000e-01    3.690000e+00
   P1q   N3a  1 4.700000e-01    3.690000e+00
   P1q   N4a  1 4.700000e-01    4.060000e+00
   P1q   N5a  1 4.700000e-01    4.060000e+00
   P1q   N6a  1 4.700000e-01    4.250000e+00
   P1q   C6v  1 4.700000e-01    3.690000e+00
   P1q   C5v  1 4.700000e-01    3.520000e+00
   P1q   C4v  1 4.700000e-01    3.390000e+00
   P1q   C3v  1 4.700000e-01    3.240000e+00
   P1q   C2v  1 4.700000e-01    3.240000e+00
   P1q   C1v  1 4.700000e-01    3.070000e+00
   P1q   X4v  1 4.700000e-01    3.690000e+00
   P1q   X3v  1 4.700000e-01    3.690000e+00
   P1q   X2v  1 4.700000e-01    3.520000e+00
   P1q   X1v  1 4.700000e-01    3.390000e+00
   P1q   C6e  1 4.700000e-01    3.690000e+00
   P1q   C5e  1 4.700000e-01    3.520000e+00
   P1q   C4e  1 4.700000e-01    3.390000e+00
   P1q   C3e  1 4.700000e-01    3.240000e+00
   P1q   C2e  1 4.700000e-01    3.240000e+00
   P1q   C1e  1 4.700000e-01    3.070000e+00
   P1q   X4e  1 4.700000e-01    3.690000e+00
   P1q   X3e  1 4.700000e-01    3.690000e+00
   P1q   X2e  1 4.700000e-01    3.520000e+00
   P1q   X1e  1 4.700000e-01    3.390000e+00
   P6d   N6q  1 4.700000e-01    4.250000e+00
   P5d   N6q  1 4.700000e-01    4.060000e+00
   P4d   N6q  1 4.700000e-01    4.060000e+00
   P3d   N6q  1 4.700000e-01    4.060000e+00
   P2d   N6q  1 4.700000e-01    4.250000e+00
   P1d   N6q  1 4.700000e-01    4.250000e+00
   N6q   N6d  1 4.700000e-01    4.250000e+00
   N6q   N1d  1 4.700000e-01    3.690000e+00
   N6q   N2d  1 4.700000e-01    3.690000e+00
   N6q   N3d  1 4.700000e-01    3.880000e+00
   N6q   N4d  1 4.700000e-01    4.250000e+00
   N6q   N5d  1 4.700000e-01    4.250000e+00
   P6a   N6q  1 4.700000e-01    4.250000e+00
   P5a   N6q  1 4.700000e-01    4.060000e+00
   P4a   N6q  1 4.700000e-01    4.060000e+00
   P3a   N6q  1 4.700000e-01    4.060000e+00
   P2a   N6q  1 4.700000e-01    4.250000e+00
   P1a   N6q  1 4.700000e-01    4.250000e+00
   N6q   N6a  1 4.700000e-01    4.250000e+00
   N6q   N1a  1 4.700000e-01    3.690000e+00
   N6q   N2a  1 4.700000e-01    3.690000e+00
   N6q   N3a  1 4.700000e-01    3.880000e+00
   N6q   N4a  1 4.700000e-01    4.250000e+00
   N6q   N5a  1 4.700000e-01    4.250000e+00
   N6q   C6v  1 4.700000e-01    3.880000e+00
   N6q   C5v  1 4.700000e-01    3.690000e+00
   N6q   C4v  1 4.700000e-01    3.520000e+00
   N6q   C3v  1 4.700000e-01    3.390000e+00
   N6q   C2v  1 4.700000e-01    3.390000e+00
   N6q   C1v  1 4.700000e-01    3.240000e+00
   N6q   X4v  1 4.700000e-01    3.880000e+00
   N6q   X3v  1 4.700000e-01    3.690000e+00
   N6q   X2v  1 4.700000e-01    3.520000e+00
   N6q   X1v  1 4.700000e-01    3.390000e+00
   N6q   C6e  1 4.700000e-01    3.880000e+00
   N6q   C5e  1 4.700000e-01    3.690000e+00
   N6q   C4e  1 4.700000e-01    3.520000e+00
   N6q   C3e  1 4.700000e-01    3.390000e+00
   N6q   C2e  1 4.700000e-01    3.390000e+00
   N6q   C1e  1 4.700000e-01    3.240000e+00
   N6q   X4e  1 4.700000e-01    3.880000e+00
   N6q   X3e  1 4.700000e-01    3.690000e+00
   N6q   X2e  1 4.700000e-01    3.520000e+00
   N6q   X1e  1 4.700000e-01    3.390000e+00
   P6d   N5q  1 4.700000e-01    3.880000e+00
   P5d   N5q  1 4.700000e-01    3.880000e+00
   P4d   N5q  1 4.700000e-01    3.880000e+00
   P3d   N5q  1 4.700000e-01    3.880000e+00
   P2d   N5q  1 4.700000e-01    4.060000e+00
   P1d   N5q  1 4.700000e-01    4.060000e+00
   N6d   N5q  1 4.700000e-01    4.250000e+00
   N5q   N5d  1 4.700000e-01    4.060000e+00
   N5q   N1d  1 4.700000e-01    3.690000e+00
   N5q   N2d  1 4.700000e-01    3.880000e+00
   N5q   N3d  1 4.700000e-01    3.880000e+00
   N5q   N4d  1 4.700000e-01    4.060000e+00
   P6a   N5q  1 4.700000e-01    3.880000e+00
   P5a   N5q  1 4.700000e-01    3.880000e+00
   P4a   N5q  1 4.700000e-01    3.880000e+00
   P3a   N5q  1 4.700000e-01    3.880000e+00
   P2a   N5q  1 4.700000e-01    4.060000e+00
   P1a   N5q  1 4.700000e-01    4.060000e+00
   N6a   N5q  1 4.700000e-01    4.250000e+00
   N5q   N5a  1 4.700000e-01    4.060000e+00
   N5q   N1a  1 4.700000e-01    3.690000e+00
   N5q   N2a  1 4.700000e-01    3.880000e+00
   N5q   N3a  1 4.700000e-01    3.880000e+00
   N5q   N4a  1 4.700000e-01    4.060000e+00
   N5q   C6v  1 4.700000e-01    3.880000e+00
   N5q   C5v  1 4.700000e-01    3.690000e+00
   N5q   C4v  1 4.700000e-01    3.520000e+00
   N5q   C3v  1 4.700000e-01    3.520000e+00
   N5q   C2v  1 4.700000e-01    3.390000e+00
   N5q   C1v  1 4.700000e-01    3.240000e+00
   N5q   X4v  1 4.700000e-01    4.060000e+00
   N5q   X3v  1 4.700000e-01    3.880000e+00
   N5q   X2v  1 4.700000e-01    3.690000e+00
   N5q   X1v  1 4.700000e-01    3.520000e+00
   N5q   C6e  1 4.700000e-01    3.880000e+00
   N5q   C5e  1 4.700000e-01    3.690000e+00
   N5q   C4e  1 4.700000e-01    3.520000e+00
   N5q   C3e  1 4.700000e-01    3.520000e+00
   N5q   C2e  1 4.700000e-01    3.390000e+00
   N5q   C1e  1 4.700000e-01    3.240000e+00
   N5q   X4e  1 4.700000e-01    4.060000e+00
   N5q   X3e  1 4.700000e-01    3.880000e+00
   N5q   X2e  1 4.700000e-01    3.690000e+00
   N5q   X1e  1 4.700000e-01    3.520000e+00
   P6d   N4q  1 4.700000e-01    3.690000e+00
   P5d   N4q  1 4.700000e-01    3.880000e+00
   P4d   N4q  1 4.700000e-01    3.880000e+00
   P3d   N4q  1 4.700000e-01    3.880000e+00
   P2d   N4q  1 4.700000e-01    3.880000e+00
   P1d   N4q  1 4.700000e-01    4.060000e+00
   N6d   N4q  1 4.700000e-01    4.250000e+00
   N5d   N4q  1 4.700000e-01    4.060000e+00
   N4q   N4d  1 4.700000e-01    4.060000e+00
   N4q   N1d  1 4.700000e-01    3.690000e+00
   N4q   N2d  1 4.700000e-01    3.880000e+00
   N4q   N3d  1 4.700000e-01    3.880000e+00
   P6a   N4q  1 4.700000e-01    3.690000e+00
   P5a   N4q  1 4.700000e-01    3.880000e+00
   P4a   N4q  1 4.700000e-01    3.880000e+00
   P3a   N4q  1 4.700000e-01    3.880000e+00
   P2a   N4q  1 4.700000e-01    3.880000e+00
   P1a   N4q  1 4.700000e-01    4.060000e+00
   N6a   N4q  1 4.700000e-01    4.250000e+00
   N5a   N4q  1 4.700000e-01    4.060000e+00
   N4q   N4a  1 4.700000e-01    4.060000e+00
   N4q   N1a  1 4.700000e-01    3.690000e+00
   N4q   N2a  1 4.700000e-01    3.880000e+00
   N4q   N3a  1 4.700000e-01    3.880000e+00
   N4q   C6v  1 4.700000e-01    3.880000e+00
   N4q   C5v  1 4.700000e-01    3.690000e+00
   N4q   C4v  1 4.700000e-01    3.690000e+00
   N4q   C3v  1 4.700000e-01    3.520000e+00
   N4q   C2v  1 4.700000e-01    3.390000e+00
   N4q   C1v  1 4.700000e-01    3.240000e+00
   N4q   X4v  1 4.700000e-01    4.250000e+00
   N4q   X3v  1 4.700000e-01    4.060000e+00
   N4q   X2v  1 4.700000e-01    3.690000e+00
   N4q   X1v  1 4.700000e-01    3.520000e+00
   N4q   C6e  1 4.700000e-01    3.880000e+00
   N4q   C5e  1 4.700000e-01    3.690000e+00
   N4q   C4e  1 4.700000e-01    3.690000e+00
   N4q   C3e  1 4.700000e-01    3.520000e+00
   N4q   C2e  1 4.700000e-01    3.390000e+00
   N4q   C1e  1 4.700000e-01    3.240000e+00
   N4q   X4e  1 4.700000e-01    4.250000e+00
   N4q   X3e  1 4.700000e-01    4.060000e+00
   N4q   X2e  1 4.700000e-01    3.690000e+00
   N4q   X1e  1 4.700000e-01    3.520000e+00
   P6d   N3q  1 4.700000e-01    3.520000e+00
   P5d   N3q  1 4.700000e-01    3.520000e+00
   P4d   N3q  1 4.700000e-01    3.690000e+00
   P3d   N3q  1 4.700000e-01    3.690000e+00
   P2d   N3q  1 4.700000e-01    3.690000e+00
   P1d   N3q  1 4.700000e-01    3.690000e+00
   N6d   N3q  1 4.700000e-01    3.880000e+00
   N5d   N3q  1 4.700000e-01    3.880000e+00
   N4d   N3q  1 4.700000e-01    3.880000e+00
   N3q   N3d  1 4.700000e-01    3.880000e+00
   N3q   N1d  1 4.700000e-01    3.690000e+00
   N3q   N2d  1 4.700000e-01    3.880000e+00
   P6a   N3q  1 4.700000e-01    3.520000e+00
   P5a   N3q  1 4.700000e-01    3.520000e+00
   P4a   N3q  1 4.700000e-01    3.690000e+00
   P3a   N3q  1 4.700000e-01    3.690000e+00
   P2a   N3q  1 4.700000e-01    3.690000e+00
   P1a   N3q  1 4.700000e-01    3.690000e+00
   N6a   N3q  1 4.700000e-01    3.880000e+00
   N5a   N3q  1 4.700000e-01    3.880000e+00
   N4a   N3q  1 4.700000e-01    3.880000e+00
   N3q   N3a  1 4.700000e-01    3.880000e+00
   N3q   N1a  1 4.700000e-01    3.690000e+00
   N3q   N2a  1 4.700000e-01    3.880000e+00
   N3q   C6v  1 4.700000e-01    3.880000e+00
   N3q   C5v  1 4.700000e-01    3.690000e+00
   N3q   C4v  1 4.700000e-01    3.690000e+00
   N3q   C3v  1 4.700000e-01    3.520000e+00
   N3q   C2v  1 4.700000e-01    3.520000e+00
   N3q   C1v  1 4.700000e-01    3.390000e+00
   N3q   X4v  1 4.700000e-01    4.060000e+00
   N3q   X3v  1 4.700000e-01    3.880000e+00
   N3q   X2v  1 4.700000e-01    3.690000e+00
   N3q   X1v  1 4.700000e-01    3.690000e+00
   N3q   C6e  1 4.700000e-01    3.880000e+00
   N3q   C5e  1 4.700000e-01    3.690000e+00
   N3q   C4e  1 4.700000e-01    3.690000e+00
   N3q   C3e  1 4.700000e-01    3.520000e+00
   N3q   C2e  1 4.700000e-01    3.520000e+00
   N3q   C1e  1 4.700000e-01    3.390000e+00
   N3q   X4e  1 4.700000e-01    4.060000e+00
   N3q   X3e  1 4.700000e-01    3.880000e+00
   N3q   X2e  1 4.700000e-01    3.690000e+00
   N3q   X1e  1 4.700000e-01    3.690000e+00
   P6d   N2q  1 4.700000e-01    3.390000e+00
   P5d   N2q  1 4.700000e-01    3.390000e+00
   P4d   N2q  1 4.700000e-01    3.520000e+00
   P3d   N2q  1 4.700000e-01    3.690000e+00
   P2d   N2q  1 4.700000e-01    3.690000e+00
   P1d   N2q  1 4.700000e-01    3.690000e+00
   N6d   N2q  1 4.700000e-01    3.690000e+00
   N5d   N2q  1 4.700000e-01    3.880000e+00
   N4d   N2q  1 4.700000e-01    3.880000e+00
   N3d   N2q  1 4.700000e-01    3.880000e+00
   N2q   N2d  1 4.700000e-01    3.880000e+00
   N2q   N1d  1 4.700000e-01    3.690000e+00
   P6a   N2q  1 4.700000e-01    3.390000e+00
   P5a   N2q  1 4.700000e-01    3.390000e+00
   P4a   N2q  1 4.700000e-01    3.520000e+00
   P3a   N2q  1 4.700000e-01    3.690000e+00
   P2a   N2q  1 4.700000e-01    3.690000e+00
   P1a   N2q  1 4.700000e-01    3.690000e+00
   N6a   N2q  1 4.700000e-01    3.690000e+00
   N5a   N2q  1 4.700000e-01    3.880000e+00
   N4a   N2q  1 4.700000e-01    3.880000e+00
   N3a   N2q  1 4.700000e-01    3.880000e+00
   N2q   N2a  1 4.700000e-01    3.880000e+00
   N2q   N1a  1 4.700000e-01    3.690000e+00
   N2q   C6v  1 4.700000e-01    3.880000e+00
   N2q   C5v  1 4.700000e-01    3.690000e+00
   N2q   C4v  1 4.700000e-01    3.690000e+00
   N2q   C3v  1 4.700000e-01    3.690000e+00
   N2q   C2v  1 4.700000e-01    3.520000e+00
   N2q   C1v  1 4.700000e-01    3.390000e+00
   N2q   X4v  1 4.700000e-01    4.060000e+00
   N2q   X3v  1 4.700000e-01    3.880000e+00
   N2q   X2v  1 4.700000e-01    3.690000e+00
   N2q   X1v  1 4.700000e-01    3.690000e+00
   N2q   C6e  1 4.700000e-01    3.880000e+00
   N2q   C5e  1 4.700000e-01    3.690000e+00
   N2q   C4e  1 4.700000e-01    3.690000e+00
   N2q   C3e  1 4.700000e-01    3.690000e+00
   N2q   C2e  1 4.700000e-01    3.520000e+00
   N2q   C1e  1 4.700000e-01    3.390000e+00
   N2q   X4e  1 4.700000e-01    4.060000e+00
   N2q   X3e  1 4.700000e-01    3.880000e+00
   N2q   X2e  1 4.700000e-01    3.690000e+00
   N2q   X1e  1 4.700000e-01    3.690000e+00
   P6d   N1q  1 4.700000e-01    3.240000e+00
   P5d   N1q  1 4.700000e-01    3.240000e+00
   P4d   N1q  1 4.700000e-01    3.390000e+00
   P3d   N1q  1 4.700000e-01    3.520000e+00
   P2d   N1q  1 4.700000e-01    3.690000e+00
   P1d   N1q  1 4.700000e-01    3.690000e+00
   N6d   N1q  1 4.700000e-01    3.690000e+00
   N5d   N1q  1 4.700000e-01    3.690000e+00
   N4d   N1q  1 4.700000e-01    3.690000e+00
   N3d   N1q  1 4.700000e-01    3.690000e+00
   N2d   N1q  1 4.700000e-01    3.690000e+00
   N1q   N1d  1 4.700000e-01    3.880000e+00
   P6a   N1q  1 4.700000e-01    3.240000e+00
   P5a   N1q  1 4.700000e-01    3.240000e+00
   P4a   N1q  1 4.700000e-01    3.390000e+00
   P3a   N1q  1 4.700000e-01    3.520000e+00
   P2a   N1q  1 4.700000e-01    3.690000e+00
   P1a   N1q  1 4.700000e-01    3.690000e+00
   N6a   N1q  1 4.700000e-01    3.690000e+00
   N5a   N1q  1 4.700000e-01    3.690000e+00
   N4a   N1q  1 4.700000e-01    3.690000e+00
   N3a   N1q  1 4.700000e-01    3.690000e+00
   N2a   N1q  1 4.700000e-01    3.690000e+00
   N1q   N1a  1 4.700000e-01    3.880000e+00
   N1q   C6v  1 4.700000e-01    4.060000e+00
   N1q   C5v  1 4.700000e-01    3.880000e+00
   N1q   C4v  1 4.700000e-01    3.880000e+00
   N1q   C3v  1 4.700000e-01    3.690000e+00
   N1q   C2v  1 4.700000e-01    3.520000e+00
   N1q   C1v  1 4.700000e-01    3.390000e+00
   N1q   X4v  1 4.700000e-01    3.880000e+00
   N1q   X3v  1 4.700000e-01    3.880000e+00
   N1q   X2v  1 4.700000e-01    3.690000e+00
   N1q   X1v  1 4.700000e-01    3.690000e+00
   N1q   C6e  1 4.700000e-01    4.060000e+00
   N1q   C5e  1 4.700000e-01    3.880000e+00
   N1q   C4e  1 4.700000e-01    3.880000e+00
   N1q   C3e  1 4.700000e-01    3.690000e+00
   N1q   C2e  1 4.700000e-01    3.520000e+00
   N1q   C1e  1 4.700000e-01    3.390000e+00
   N1q   X4e  1 4.700000e-01    3.880000e+00
   N1q   X3e  1 4.700000e-01    3.880000e+00
   N1q   X2e  1 4.700000e-01    3.690000e+00
   N1q   X1e  1 4.700000e-01    3.690000e+00
   P6d   C6q  1 4.700000e-01    3.240000e+00
   P5d   C6q  1 4.700000e-01    3.240000e+00
   P4d   C6q  1 4.700000e-01    3.390000e+00
   P3d   C6q  1 4.700000e-01    3.520000e+00
   P2d   C6q  1 4.700000e-01    3.520000e+00
   P1d   C6q  1 4.700000e-01    3.520000e+00
   N6d   C6q  1 4.700000e-01    3.690000e+00
   N5d   C6q  1 4.700000e-01    3.690000e+00
   N4d   C6q  1 4.700000e-01    3.690000e+00
   N3d   C6q  1 4.700000e-01    3.690000e+00
   N2d   C6q  1 4.700000e-01    3.690000e+00
   N1d   C6q  1 4.700000e-01    3.880000e+00
   P6a   C6q  1 4.700000e-01    3.240000e+00
   P5a   C6q  1 4.700000e-01    3.240000e+00
   P4a   C6q  1 4.700000e-01    3.390000e+00
   P3a   C6q  1 4.700000e-01    3.520000e+00
   P2a   C6q  1 4.700000e-01    3.520000e+00
   P1a   C6q  1 4.700000e-01    3.520000e+00
   N6a   C6q  1 4.700000e-01    3.690000e+00
   N5a   C6q  1 4.700000e-01    3.690000e+00
   N4a   C6q  1 4.700000e-01    3.690000e+00
   N3a   C6q  1 4.700000e-01    3.690000e+00
   N2a   C6q  1 4.700000e-01    3.690000e+00
   N1a   C6q  1 4.700000e-01    3.880000e+00
   C6q   C6v  1 4.700000e-01    4.060000e+00
   C6q   X1v  1 4.700000e-01    3.880000e+00
   C6q   X2v  1 4.700000e-01    3.880000e+00
   C6q   X3v  1 4.700000e-01    3.880000e+00
   C6q   X4v  1 4.700000e-01    3.880000e+00
   C6q   C1v  1 4.700000e-01    3.390000e+00
   C6q   C2v  1 4.700000e-01    3.520000e+00
   C6q   C3v  1 4.700000e-01    3.690000e+00
   C6q   C4v  1 4.700000e-01    3.880000e+00
   C6q   C5v  1 4.700000e-01    3.880000e+00
   C6q   C6e  1 4.700000e-01    4.060000e+00
   C6q   X1e  1 4.700000e-01    3.880000e+00
   C6q   X2e  1 4.700000e-01    3.880000e+00
   C6q   X3e  1 4.700000e-01    3.880000e+00
   C6q   X4e  1 4.700000e-01    3.880000e+00
   C6q   C1e  1 4.700000e-01    3.390000e+00
   C6q   C2e  1 4.700000e-01    3.520000e+00
   C6q   C3e  1 4.700000e-01    3.690000e+00
   C6q   C4e  1 4.700000e-01    3.880000e+00
   C6q   C5e  1 4.700000e-01    3.880000e+00
   P6d   C5q  1 4.700000e-01    3.070000e+00
   P5d   C5q  1 4.700000e-01    3.240000e+00
   P4d   C5q  1 4.700000e-01    3.240000e+00
   P3d   C5q  1 4.700000e-01    3.390000e+00
   P2d   C5q  1 4.700000e-01    3.390000e+00
   P1d   C5q  1 4.700000e-01    3.390000e+00
   N6d   C5q  1 4.700000e-01    3.520000e+00
   N5d   C5q  1 4.700000e-01    3.520000e+00
   N4d   C5q  1 4.700000e-01    3.520000e+00
   N3d   C5q  1 4.700000e-01    3.520000e+00
   N2d   C5q  1 4.700000e-01    3.520000e+00
   N1d   C5q  1 4.700000e-01    3.690000e+00
   P6a   C5q  1 4.700000e-01    3.070000e+00
   P5a   C5q  1 4.700000e-01    3.240000e+00
   P4a   C5q  1 4.700000e-01    3.240000e+00
   P3a   C5q  1 4.700000e-01    3.390000e+00
   P2a   C5q  1 4.700000e-01    3.390000e+00
   P1a   C5q  1 4.700000e-01    3.390000e+00
   N6a   C5q  1 4.700000e-01    3.520000e+00
   N5a   C5q  1 4.700000e-01    3.520000e+00
   N4a   C5q  1 4.700000e-01    3.520000e+00
   N3a   C5q  1 4.700000e-01    3.520000e+00
   N2a   C5q  1 4.700000e-01    3.520000e+00
   N1a   C5q  1 4.700000e-01    3.690000e+00
   C6v   C5q  1 4.700000e-01    3.880000e+00
   C5q   C5v  1 4.700000e-01    3.880000e+00
   C5q   X1v  1 4.700000e-01    3.880000e+00
   C5q   X2v  1 4.700000e-01    3.690000e+00
   C5q   X3v  1 4.700000e-01    3.690000e+00
   C5q   X4v  1 4.700000e-01    3.690000e+00
   C5q   C1v  1 4.700000e-01    3.520000e+00
   C5q   C2v  1 4.700000e-01    3.520000e+00
   C5q   C3v  1 4.700000e-01    3.690000e+00
   C5q   C4v  1 4.700000e-01    3.880000e+00
   C6e   C5q  1 4.700000e-01    3.880000e+00
   C5q   C5e  1 4.700000e-01    3.880000e+00
   C5q   X1e  1 4.700000e-01    3.880000e+00
   C5q   X2e  1 4.700000e-01    3.690000e+00
   C5q   X3e  1 4.700000e-01    3.690000e+00
   C5q   X4e  1 4.700000e-01    3.690000e+00
   C5q   C1e  1 4.700000e-01    3.520000e+00
   C5q   C2e  1 4.700000e-01    3.520000e+00
   C5q   C3e  1 4.700000e-01    3.690000e+00
   C5q   C4e  1 4.700000e-01    3.880000e+00
   P6d   C4q  1 4.700000e-01    2.960000e+00
   P5d   C4q  1 4.700000e-01    3.070000e+00
   P4d   C4q  1 4.700000e-01    3.070000e+00
   P3d   C4q  1 4.700000e-01    3.240000e+00
   P2d   C4q  1 4.700000e-01    3.240000e+00
   P1d   C4q  1 4.700000e-01    3.240000e+00
   N6d   C4q  1 4.700000e-01    3.390000e+00
   N5d   C4q  1 4.700000e-01    3.390000e+00
   N4d   C4q  1 4.700000e-01    3.520000e+00
   N3d   C4q  1 4.700000e-01    3.520000e+00
   N2d   C4q  1 4.700000e-01    3.520000e+00
   N1d   C4q  1 4.700000e-01    3.690000e+00
   P6a   C4q  1 4.700000e-01    2.960000e+00
   P5a   C4q  1 4.700000e-01    3.070000e+00
   P4a   C4q  1 4.700000e-01    3.070000e+00
   P3a   C4q  1 4.700000e-01    3.240000e+00
   P2a   C4q  1 4.700000e-01    3.240000e+00
   P1a   C4q  1 4.700000e-01    3.240000e+00
   N6a   C4q  1 4.700000e-01    3.390000e+00
   N5a   C4q  1 4.700000e-01    3.390000e+00
   N4a   C4q  1 4.700000e-01    3.520000e+00
   N3a   C4q  1 4.700000e-01    3.520000e+00
   N2a   C4q  1 4.700000e-01    3.520000e+00
   N1a   C4q  1 4.700000e-01    3.690000e+00
   C6v   C4q  1 4.700000e-01    3.880000e+00
   C5v   C4q  1 4.700000e-01    3.880000e+00
   C4q   C4v  1 4.700000e-01    3.880000e+00
   C4q   X1v  1 4.700000e-01    3.880000e+00
   C4q   X2v  1 4.700000e-01    3.690000e+00
   C4q   X3v  1 4.700000e-01    3.690000e+00
   C4q   X4v  1 4.700000e-01    3.690000e+00
   C4q   C1v  1 4.700000e-01    3.520000e+00
   C4q   C2v  1 4.700000e-01    3.690000e+00
   C4q   C3v  1 4.700000e-01    3.880000e+00
   C6e   C4q  1 4.700000e-01    3.880000e+00
   C5e   C4q  1 4.700000e-01    3.880000e+00
   C4q   C4e  1 4.700000e-01    3.880000e+00
   C4q   X1e  1 4.700000e-01    3.880000e+00
   C4q   X2e  1 4.700000e-01    3.690000e+00
   C4q   X3e  1 4.700000e-01    3.690000e+00
   C4q   X4e  1 4.700000e-01    3.690000e+00
   C4q   C1e  1 4.700000e-01    3.520000e+00
   C4q   C2e  1 4.700000e-01    3.690000e+00
   C4q   C3e  1 4.700000e-01    3.880000e+00
   P6d   C3q  1 4.700000e-01    2.790000e+00
   P5d   C3q  1 4.700000e-01    2.960000e+00
   P4d   C3q  1 4.700000e-01    2.960000e+00
   P3d   C3q  1 4.700000e-01    2.960000e+00
   P2d   C3q  1 4.700000e-01    3.070000e+00
   P1d   C3q  1 4.700000e-01    3.070000e+00
   N6d   C3q  1 4.700000e-01    3.240000e+00
   N5d   C3q  1 4.700000e-01    3.390000e+00
   N4d   C3q  1 4.700000e-01    3.390000e+00
   N3d   C3q  1 4.700000e-01    3.390000e+00
   N2d   C3q  1 4.700000e-01    3.520000e+00
   N1d   C3q  1 4.700000e-01    3.520000e+00
   P6a   C3q  1 4.700000e-01    2.790000e+00
   P5a   C3q  1 4.700000e-01    2.960000e+00
   P4a   C3q  1 4.700000e-01    2.960000e+00
   P3a   C3q  1 4.700000e-01    2.960000e+00
   P2a   C3q  1 4.700000e-01    3.070000e+00
   P1a   C3q  1 4.700000e-01    3.070000e+00
   N6a   C3q  1 4.700000e-01    3.240000e+00
   N5a   C3q  1 4.700000e-01    3.390000e+00
   N4a   C3q  1 4.700000e-01    3.390000e+00
   N3a   C3q  1 4.700000e-01    3.390000e+00
   N2a   C3q  1 4.700000e-01    3.520000e+00
   N1a   C3q  1 4.700000e-01    3.520000e+00
   C6v   C3q  1 4.700000e-01    3.690000e+00
   C5v   C3q  1 4.700000e-01    3.690000e+00
   C4v   C3q  1 4.700000e-01    3.880000e+00
   C3q   C3v  1 4.700000e-01    3.880000e+00
   C3q   X1v  1 4.700000e-01    3.880000e+00
   C3q   X2v  1 4.700000e-01    3.690000e+00
   C3q   X3v  1 4.700000e-01    3.690000e+00
   C3q   X4v  1 4.700000e-01    3.690000e+00
   C3q   C1v  1 4.700000e-01    3.880000e+00
   C3q   C2v  1 4.700000e-01    3.880000e+00
   C6e   C3q  1 4.700000e-01    3.690000e+00
   C5e   C3q  1 4.700000e-01    3.690000e+00
   C4e   C3q  1 4.700000e-01    3.880000e+00
   C3q   C3e  1 4.700000e-01    3.880000e+00
   C3q   X1e  1 4.700000e-01    3.880000e+00
   C3q   X2e  1 4.700000e-01    3.690000e+00
   C3q   X3e  1 4.700000e-01    3.690000e+00
   C3q   X4e  1 4.700000e-01    3.690000e+00
   C3q   C1e  1 4.700000e-01    3.880000e+00
   C3q   C2e  1 4.700000e-01    3.880000e+00
   P6d   C2q  1 4.700000e-01    2.790000e+00
   P5d   C2q  1 4.700000e-01    2.960000e+00
   P4d   C2q  1 4.700000e-01    2.960000e+00
   P3d   C2q  1 4.700000e-01    2.960000e+00
   P2d   C2q  1 4.700000e-01    3.070000e+00
   P1d   C2q  1 4.700000e-01    3.070000e+00
   N6d   C2q  1 4.700000e-01    3.240000e+00
   N5d   C2q  1 4.700000e-01    3.240000e+00
   N4d   C2q  1 4.700000e-01    3.240000e+00
   N3d   C2q  1 4.700000e-01    3.390000e+00
   N2d   C2q  1 4.700000e-01    3.390000e+00
   N1d   C2q  1 4.700000e-01    3.390000e+00
   P6a   C2q  1 4.700000e-01    2.790000e+00
   P5a   C2q  1 4.700000e-01    2.960000e+00
   P4a   C2q  1 4.700000e-01    2.960000e+00
   P3a   C2q  1 4.700000e-01    2.960000e+00
   P2a   C2q  1 4.700000e-01    3.070000e+00
   P1a   C2q  1 4.700000e-01    3.070000e+00
   N6a   C2q  1 4.700000e-01    3.240000e+00
   N5a   C2q  1 4.700000e-01    3.240000e+00
   N4a   C2q  1 4.700000e-01    3.240000e+00
   N3a   C2q  1 4.700000e-01    3.390000e+00
   N2a   C2q  1 4.700000e-01    3.390000e+00
   N1a   C2q  1 4.700000e-01    3.390000e+00
   C6v   C2q  1 4.700000e-01    3.520000e+00
   C5v   C2q  1 4.700000e-01    3.520000e+00
   C4v   C2q  1 4.700000e-01    3.690000e+00
   C3v   C2q  1 4.700000e-01    3.880000e+00
   C2q   C2v  1 4.700000e-01    3.880000e+00
   C2q   X1v  1 4.700000e-01    3.690000e+00
   C2q   X2v  1 4.700000e-01    3.690000e+00
   C2q   X3v  1 4.700000e-01    3.690000e+00
   C2q   X4v  1 4.700000e-01    3.390000e+00
   C2q   C1v  1 4.700000e-01    4.060000e+00
   C6e   C2q  1 4.700000e-01    3.520000e+00
   C5e   C2q  1 4.700000e-01    3.520000e+00
   C4e   C2q  1 4.700000e-01    3.690000e+00
   C3e   C2q  1 4.700000e-01    3.880000e+00
   C2q   C2e  1 4.700000e-01    3.880000e+00
   C2q   X1e  1 4.700000e-01    3.690000e+00
   C2q   X2e  1 4.700000e-01    3.690000e+00
   C2q   X3e  1 4.700000e-01    3.690000e+00
   C2q   X4e  1 4.700000e-01    3.390000e+00
   C2q   C1e  1 4.700000e-01    4.060000e+00
   P6d   C1q  1 4.700000e-01    2.440000e+00
   P5d   C1q  1 4.700000e-01    2.790000e+00
   P4d   C1q  1 4.700000e-01    2.790000e+00
   P3d   C1q  1 4.700000e-01    2.790000e+00
   P2d   C1q  1 4.700000e-01    2.960000e+00
   P1d   C1q  1 4.700000e-01    2.960000e+00
   N6d   C1q  1 4.700000e-01    3.070000e+00
   N5d   C1q  1 4.700000e-01    3.070000e+00
   N4d   C1q  1 4.700000e-01    3.070000e+00
   N3d   C1q  1 4.700000e-01    3.240000e+00
   N2d   C1q  1 4.700000e-01    3.240000e+00
   N1d   C1q  1 4.700000e-01    3.240000e+00
   P6a   C1q  1 4.700000e-01    2.440000e+00
   P5a   C1q  1 4.700000e-01    2.790000e+00
   P4a   C1q  1 4.700000e-01    2.790000e+00
   P3a   C1q  1 4.700000e-01    2.790000e+00
   P2a   C1q  1 4.700000e-01    2.960000e+00
   P1a   C1q  1 4.700000e-01    2.960000e+00
   N6a   C1q  1 4.700000e-01    3.070000e+00
   N5a   C1q  1 4.700000e-01    3.070000e+00
   N4a   C1q  1 4.700000e-01    3.070000e+00
   N3a   C1q  1 4.700000e-01    3.240000e+00
   N2a   C1q  1 4.700000e-01    3.240000e+00
   N1a   C1q  1 4.700000e-01    3.240000e+00
   C6v   C1q  1 4.700000e-01    3.390000e+00
   C5v   C1q  1 4.700000e-01    3.520000e+00
   C4v   C1q  1 4.700000e-01    3.520000e+00
   C3v   C1q  1 4.700000e-01    3.880000e+00
   C2v   C1q  1 4.700000e-01    4.060000e+00
   C1q   C1v  1 4.700000e-01    3.880000e+00
   C1q   X1v  1 4.700000e-01    3.690000e+00
   C1q   X2v  1 4.700000e-01    3.690000e+00
   C1q   X3v  1 4.700000e-01    3.690000e+00
   C1q   X4v  1 4.700000e-01    3.390000e+00
   C6e   C1q  1 4.700000e-01    3.390000e+00
   C5e   C1q  1 4.700000e-01    3.520000e+00
   C4e   C1q  1 4.700000e-01    3.520000e+00
   C3e   C1q  1 4.700000e-01    3.880000e+00
   C2e   C1q  1 4.700000e-01    4.060000e+00
   C1q   C1e  1 4.700000e-01    3.880000e+00
   C1q   X1e  1 4.700000e-01    3.690000e+00
   C1q   X2e  1 4.700000e-01    3.690000e+00
   C1q   X3e  1 4.700000e-01    3.690000e+00
   C1q   X4e  1 4.700000e-01    3.390000e+00
   P6d   X4q  1 4.700000e-01    3.390000e+00
   P5d   X4q  1 4.700000e-01    3.520000e+00
   P4d   X4q  1 4.700000e-01    3.520000e+00
   P3d   X4q  1 4.700000e-01    3.520000e+00
   P2d   X4q  1 4.700000e-01    3.520000e+00
   P1d   X4q  1 4.700000e-01    3.520000e+00
   N6d   X4q  1 4.700000e-01    3.690000e+00
   N5d   X4q  1 4.700000e-01    3.880000e+00
   N4d   X4q  1 4.700000e-01    4.060000e+00
   N3d   X4q  1 4.700000e-01    3.880000e+00
   N2d   X4q  1 4.700000e-01    3.880000e+00
   N1d   X4q  1 4.700000e-01    3.690000e+00
   P6a   X4q  1 4.700000e-01    3.390000e+00
   P5a   X4q  1 4.700000e-01    3.520000e+00
   P4a   X4q  1 4.700000e-01    3.520000e+00
   P3a   X4q  1 4.700000e-01    3.520000e+00
   P2a   X4q  1 4.700000e-01    3.520000e+00
   P1a   X4q  1 4.700000e-01    3.520000e+00
   N6a   X4q  1 4.700000e-01    3.690000e+00
   N5a   X4q  1 4.700000e-01    3.880000e+00
   N4a   X4q  1 4.700000e-01    4.060000e+00
   N3a   X4q  1 4.700000e-01    3.880000e+00
   N2a   X4q  1 4.700000e-01    3.880000e+00
   N1a   X4q  1 4.700000e-01    3.690000e+00
   C6v   X4q  1 4.700000e-01    3.880000e+00
   C5v   X4q  1 4.700000e-01    3.690000e+00
   C4v   X4q  1 4.700000e-01    3.690000e+00
   C3v   X4q  1 4.700000e-01    3.690000e+00
   C2v   X4q  1 4.700000e-01    3.390000e+00
   C1v   X4q  1 4.700000e-01    3.390000e+00
   X4q   X4v  1 4.700000e-01    3.880000e+00
   X4q   X1v  1 4.700000e-01    3.880000e+00
   X4q   X2v  1 4.700000e-01    3.880000e+00
   X4q   X3v  1 4.700000e-01    3.880000e+00
   C6e   X4q  1 4.700000e-01    3.880000e+00
   C5e   X4q  1 4.700000e-01    3.690000e+00
   C4e   X4q  1 4.700000e-01    3.690000e+00
   C3e   X4q  1 4.700000e-01    3.690000e+00
   C2e   X4q  1 4.700000e-01    3.390000e+00
   C1e   X4q  1 4.700000e-01    3.390000e+00
   X4q   X4e  1 4.700000e-01    3.880000e+00
   X4q   X1e  1 4.700000e-01    3.880000e+00
   X4q   X2e  1 4.700000e-01    3.880000e+00
   X4q   X3e  1 4.700000e-01    3.880000e+00
   P6d   X3q  1 4.700000e-01    3.390000e+00
   P5d   X3q  1 4.700000e-01    3.390000e+00
   P4d   X3q  1 4.700000e-01    3.390000e+00
   P3d   X3q  1 4.700000e-01    3.520000e+00
   P2d   X3q  1 4.700000e-01    3.520000e+00
   P1d   X3q  1 4.700000e-01    3.520000e+00
   N6d   X3q  1 4.700000e-01    3.520000e+00
   N5d   X3q  1 4.700000e-01    3.690000e+00
   N4d   X3q  1 4.700000e-01    3.880000e+00
   N3d   X3q  1 4.700000e-01    3.690000e+00
   N2d   X3q  1 4.700000e-01    3.690000e+00
   N1d   X3q  1 4.700000e-01    3.690000e+00
   P6a   X3q  1 4.700000e-01    3.390000e+00
   P5a   X3q  1 4.700000e-01    3.390000e+00
   P4a   X3q  1 4.700000e-01    3.390000e+00
   P3a   X3q  1 4.700000e-01    3.520000e+00
   P2a   X3q  1 4.700000e-01    3.520000e+00
   P1a   X3q  1 4.700000e-01    3.520000e+00
   N6a   X3q  1 4.700000e-01    3.520000e+00
   N5a   X3q  1 4.700000e-01    3.690000e+00
   N4a   X3q  1 4.700000e-01    3.880000e+00
   N3a   X3q  1 4.700000e-01    3.690000e+00
   N2a   X3q  1 4.700000e-01    3.690000e+00
   N1a   X3q  1 4.700000e-01    3.690000e+00
   C6v   X3q  1 4.700000e-01    3.880000e+00
   C5v   X3q  1 4.700000e-01    3.690000e+00
   C4v   X3q  1 4.700000e-01    3.690000e+00
   C3v   X3q  1 4.700000e-01    3.690000e+00
   C2v   X3q  1 4.700000e-01    3.690000e+00
   C1v   X3q  1 4.700000e-01    3.690000e+00
   X4v   X3q  1 4.700000e-01    3.880000e+00
   X3q   X3v  1 4.700000e-01    3.880000e+00
   X3q   X1v  1 4.700000e-01    4.060000e+00
   X3q   X2v  1 4.700000e-01    4.060000e+00
   C6e   X3q  1 4.700000e-01    3.880000e+00
   C5e   X3q  1 4.700000e-01    3.690000e+00
   C4e   X3q  1 4.700000e-01    3.690000e+00
   C3e   X3q  1 4.700000e-01    3.690000e+00
   C2e   X3q  1 4.700000e-01    3.690000e+00
   C1e   X3q  1 4.700000e-01    3.690000e+00
   X4e   X3q  1 4.700000e-01    3.880000e+00
   X3q   X3e  1 4.700000e-01    3.880000e+00
   X3q   X1e  1 4.700000e-01    4.060000e+00
   X3q   X2e  1 4.700000e-01    4.060000e+00
   P6d   X2q  1 4.700000e-01    3.240000e+00
   P5d   X2q  1 4.700000e-01    3.390000e+00
   P4d   X2q  1 4.700000e-01    3.390000e+00
   P3d   X2q  1 4.700000e-01    3.390000e+00
   P2d   X2q  1 4.700000e-01    3.390000e+00
   P1d   X2q  1 4.700000e-01    3.390000e+00
   N6d   X2q  1 4.700000e-01    3.390000e+00
   N5d   X2q  1 4.700000e-01    3.520000e+00
   N4d   X2q  1 4.700000e-01    3.520000e+00
   N3d   X2q  1 4.700000e-01    3.520000e+00
   N2d   X2q  1 4.700000e-01    3.520000e+00
   N1d   X2q  1 4.700000e-01    3.520000e+00
   P6a   X2q  1 4.700000e-01    3.240000e+00
   P5a   X2q  1 4.700000e-01    3.390000e+00
   P4a   X2q  1 4.700000e-01    3.390000e+00
   P3a   X2q  1 4.700000e-01    3.390000e+00
   P2a   X2q  1 4.700000e-01    3.390000e+00
   P1a   X2q  1 4.700000e-01    3.390000e+00
   N6a   X2q  1 4.700000e-01    3.390000e+00
   N5a   X2q  1 4.700000e-01    3.520000e+00
   N4a   X2q  1 4.700000e-01    3.520000e+00
   N3a   X2q  1 4.700000e-01    3.520000e+00
   N2a   X2q  1 4.700000e-01    3.520000e+00
   N1a   X2q  1 4.700000e-01    3.520000e+00
   C6v   X2q  1 4.700000e-01    3.880000e+00
   C5v   X2q  1 4.700000e-01    3.690000e+00
   C4v   X2q  1 4.700000e-01    3.690000e+00
   C3v   X2q  1 4.700000e-01    3.690000e+00
   C2v   X2q  1 4.700000e-01    3.690000e+00
   C1v   X2q  1 4.700000e-01    3.690000e+00
   X4v   X2q  1 4.700000e-01    3.880000e+00
   X3v   X2q  1 4.700000e-01    4.060000e+00
   X2q   X2v  1 4.700000e-01    4.060000e+00
   X2q   X1v  1 4.700000e-01    4.060000e+00
   C6e   X2q  1 4.700000e-01    3.880000e+00
   C5e   X2q  1 4.700000e-01    3.690000e+00
   C4e   X2q  1 4.700000e-01    3.690000e+00
   C3e   X2q  1 4.700000e-01    3.690000e+00
   C2e   X2q  1 4.700000e-01    3.690000e+00
   C1e   X2q  1 4.700000e-01    3.690000e+00
   X4e   X2q  1 4.700000e-01    3.880000e+00
   X3e   X2q  1 4.700000e-01    4.060000e+00
   X2q   X2e  1 4.700000e-01    4.060000e+00
   X2q   X1e  1 4.700000e-01    4.060000e+00
   P6d   X1q  1 4.700000e-01    3.070000e+00
   P5d   X1q  1 4.700000e-01    3.070000e+00
   P4d   X1q  1 4.700000e-01    3.240000e+00
   P3d   X1q  1 4.700000e-01    3.240000e+00
   P2d   X1q  1 4.700000e-01    3.240000e+00
   P1d   X1q  1 4.700000e-01    3.240000e+00
   N6d   X1q  1 4.700000e-01    3.240000e+00
   N5d   X1q  1 4.700000e-01    3.390000e+00
   N4d   X1q  1 4.700000e-01    3.390000e+00
   N3d   X1q  1 4.700000e-01    3.520000e+00
   N2d   X1q  1 4.700000e-01    3.520000e+00
   N1d   X1q  1 4.700000e-01    3.520000e+00
   P6a   X1q  1 4.700000e-01    3.070000e+00
   P5a   X1q  1 4.700000e-01    3.070000e+00
   P4a   X1q  1 4.700000e-01    3.240000e+00
   P3a   X1q  1 4.700000e-01    3.240000e+00
   P2a   X1q  1 4.700000e-01    3.240000e+00
   P1a   X1q  1 4.700000e-01    3.240000e+00
   N6a   X1q  1 4.700000e-01    3.240000e+00
   N5a   X1q  1 4.700000e-01    3.390000e+00
   N4a   X1q  1 4.700000e-01    3.390000e+00
   N3a   X1q  1 4.700000e-01    3.520000e+00
   N2a   X1q  1 4.700000e-01    3.520000e+00
   N1a   X1q  1 4.700000e-01    3.520000e+00
   C6v   X1q  1 4.700000e-01    3.880000e+00
   C5v   X1q  1 4.700000e-01    3.880000e+00
   C4v   X1q  1 4.700000e-01    3.880000e+00
   C3v   X1q  1 4.700000e-01    3.880000e+00
   C2v   X1q  1 4.700000e-01    3.690000e+00
   C1v   X1q  1 4.700000e-01    3.690000e+00
   X4v   X1q  1 4.700000e-01    3.880000e+00
   X3v   X1q  1 4.700000e-01    4.060000e+00
   X2v   X1q  1 4.700000e-01    4.060000e+00
   X1q   X1v  1 4.700000e-01    4.250000e+00
   C6e   X1q  1 4.700000e-01    3.880000e+00
   C5e   X1q  1 4.700000e-01    3.880000e+00
   C4e   X1q  1 4.700000e-01    3.880000e+00
   C3e   X1q  1 4.700000e-01    3.880000e+00
   C2e   X1q  1 4.700000e-01    3.690000e+00
   C1e   X1q  1 4.700000e-01    3.690000e+00
   X4e   X1q  1 4.700000e-01    3.880000e+00
   X3e   X1q  1 4.700000e-01    4.060000e+00
   X2e   X1q  1 4.700000e-01    4.060000e+00
   X1q   X1e  1 4.700000e-01    4.250000e+00
   C6v  C6vq  1 4.700000e-01    3.690000e+00
  C6vq   C5v  1 4.700000e-01    3.520000e+00
  C6vq   C4v  1 4.700000e-01    3.520000e+00
  C6vq   C3v  1 4.700000e-01    3.390000e+00
  C6vq   C2v  1 4.700000e-01    3.240000e+00
  C6vq   C1v  1 4.700000e-01    3.070000e+00
  C6vq   X4v  1 4.700000e-01    3.520000e+00
  C6vq   X3v  1 4.700000e-01    3.520000e+00
  C6vq   X2v  1 4.700000e-01    3.520000e+00
  C6vq   X1v  1 4.700000e-01    3.520000e+00
   C5v  C5vq  1 4.700000e-01    3.520000e+00
  C5vq   C4v  1 4.700000e-01    3.520000e+00
  C5vq   C3v  1 4.700000e-01    3.390000e+00
  C5vq   C2v  1 4.700000e-01    3.240000e+00
  C5vq   C1v  1 4.700000e-01    3.240000e+00
  C5vq   X4v  1 4.700000e-01    3.390000e+00
  C5vq   X3v  1 4.700000e-01    3.390000e+00
  C5vq   X2v  1 4.700000e-01    3.390000e+00
  C5vq   X1v  1 4.700000e-01    3.520000e+00
   C4v  C4vq  1 4.700000e-01    3.520000e+00
  C4vq   C3v  1 4.700000e-01    3.520000e+00
  C4vq   C2v  1 4.700000e-01    3.390000e+00
  C4vq   C1v  1 4.700000e-01    3.240000e+00
  C4vq   X4v  1 4.700000e-01    3.390000e+00
  C4vq   X3v  1 4.700000e-01    3.390000e+00
  C4vq   X2v  1 4.700000e-01    3.390000e+00
  C4vq   X1v  1 4.700000e-01    3.520000e+00
   C3v  C3vq  1 4.700000e-01    3.520000e+00
  C3vq   C2v  1 4.700000e-01    3.520000e+00
  C3vq   C1v  1 4.700000e-01    3.520000e+00
  C3vq   X4v  1 4.700000e-01    3.390000e+00
  C3vq   X3v  1 4.700000e-01    3.390000e+00
  C3vq   X2v  1 4.700000e-01    3.390000e+00
  C3vq   X1v  1 4.700000e-01    3.520000e+00
   C2v  C2vq  1 4.700000e-01    3.520000e+00
  C2vq   C1v  1 4.700000e-01    3.690000e+00
  C2vq   X4v  1 4.700000e-01    3.070000e+00
  C2vq   X3v  1 4.700000e-01    3.390000e+00
  C2vq   X2v  1 4.700000e-01    3.390000e+00
  C2vq   X1v  1 4.700000e-01    3.390000e+00
   C1v  C1vq  1 4.700000e-01    3.520000e+00
  C1vq   X4v  1 4.700000e-01    3.070000e+00
  C1vq   X3v  1 4.700000e-01    3.390000e+00
  C1vq   X2v  1 4.700000e-01    3.390000e+00
  C1vq   X1v  1 4.700000e-01    3.390000e+00
   X4v  X4vq  1 4.700000e-01    3.520000e+00
  X4vq   X3v  1 4.700000e-01    3.520000e+00
  X4vq   X2v  1 4.700000e-01    3.520000e+00
  X4vq   X1v  1 4.700000e-01    3.520000e+00
   X3v  X3vq  1 4.700000e-01    3.520000e+00
  X3vq   X2v  1 4.700000e-01    3.690000e+00
  X3vq   X1v  1 4.700000e-01    3.690000e+00
   X2v  X2vq  1 4.700000e-01    3.690000e+00
  X2vq   X1v  1 4.700000e-01    3.690000e+00
   X1v  X1vq  1 4.700000e-01    3.880000e+00
   C6e  C6eq  1 4.700000e-01    3.690000e+00
  C6eq   C5e  1 4.700000e-01    3.520000e+00
  C6eq   C4e  1 4.700000e-01    3.520000e+00
  C6eq   C3e  1 4.700000e-01    3.390000e+00
  C6eq   C2e  1 4.700000e-01    3.240000e+00
  C6eq   C1e  1 4.700000e-01    3.070000e+00
  C6eq   X4e  1 4.700000e-01    3.520000e+00
  C6eq   X3e  1 4.700000e-01    3.520000e+00
  C6eq   X2e  1 4.700000e-01    3.520000e+00
  C6eq   X1e  1 4.700000e-01    3.520000e+00
   C5e  C5eq  1 4.700000e-01    3.520000e+00
  C5eq   C4e  1 4.700000e-01    3.520000e+00
  C5eq   C3e  1 4.700000e-01    3.390000e+00
  C5eq   C2e  1 4.700000e-01    3.240000e+00
  C5eq   C1e  1 4.700000e-01    3.240000e+00
  C5eq   X4e  1 4.700000e-01    3.390000e+00
  C5eq   X3e  1 4.700000e-01    3.390000e+00
  C5eq   X2e  1 4.700000e-01    3.390000e+00
  C5eq   X1e  1 4.700000e-01    3.520000e+00
   C4e  C4eq  1 4.700000e-01    3.520000e+00
  C4eq   C3e  1 4.700000e-01    3.520000e+00
  C4eq   C2e  1 4.700000e-01    3.390000e+00
  C4eq   C1e  1 4.700000e-01    3.240000e+00
  C4eq   X4e  1 4.700000e-01    3.390000e+00
  C4eq   X3e  1 4.700000e-01    3.390000e+00
  C4eq   X2e  1 4.700000e-01    3.390000e+00
  C4eq   X1e  1 4.700000e-01    3.520000e+00
   C3e  C3eq  1 4.700000e-01    3.520000e+00
  C3eq   C2e  1 4.700000e-01    3.520000e+00
  C3eq   C1e  1 4.700000e-01    3.520000e+00
  C3eq   X4e  1 4.700000e-01    3.390000e+00
  C3eq   X3e  1 4.700000e-01    3.390000e+00
  C3eq   X2e  1 4.700000e-01    3.390000e+00
  C3eq   X1e  1 4.700000e-01    3.520000e+00
   C2e  C2eq  1 4.700000e-01    3.520000e+00
  C2eq   C1e  1 4.700000e-01    3.690000e+00
  C2eq   X4e  1 4.700000e-01    3.070000e+00
  C2eq   X3e  1 4.700000e-01    3.390000e+00
  C2eq   X2e  1 4.700000e-01    3.390000e+00
  C2eq   X1e  1 4.700000e-01    3.390000e+00
   C1e  C1eq  1 4.700000e-01    3.520000e+00
  C1eq   X4e  1 4.700000e-01    3.070000e+00
  C1eq   X3e  1 4.700000e-01    3.390000e+00
  C1eq   X2e  1 4.700000e-01    3.390000e+00
  C1eq   X1e  1 4.700000e-01    3.390000e+00
   X4e  X4eq  1 4.700000e-01    3.520000e+00
  X4eq   X3e  1 4.700000e-01    3.520000e+00
  X4eq   X2e  1 4.700000e-01    3.520000e+00
  X4eq   X1e  1 4.700000e-01    3.520000e+00
   X3e  X3eq  1 4.700000e-01    3.520000e+00
  X3eq   X2e  1 4.700000e-01    3.690000e+00
  X3eq   X1e  1 4.700000e-01    3.690000e+00
   X2e  X2eq  1 4.700000e-01    3.690000e+00
  X2eq   X1e  1 4.700000e-01    3.690000e+00
   X1e  X1eq  1 4.700000e-01    3.880000e+00
   C6e  X1eq  1 4.700000e-01    3.520000e+00
   C5e  X1eq  1 4.700000e-01    3.520000e+00
   C4e  X1eq  1 4.700000e-01    3.520000e+00
   C3e  X1eq  1 4.700000e-01    3.520000e+00
   C2e  X1eq  1 4.700000e-01    3.390000e+00
   C1e  X1eq  1 4.700000e-01    3.390000e+00
   X4e  X1eq  1 4.700000e-01    3.520000e+00
   X3e  X1eq  1 4.700000e-01    3.690000e+00
   X2e  X1eq  1 4.700000e-01    3.690000e+00
   C6e  X2eq  1 4.700000e-01    3.520000e+00
   C5e  X2eq  1 4.700000e-01    3.390000e+00
   C4e  X2eq  1 4.700000e-01    3.390000e+00
   C3e  X2eq  1 4.700000e-01    3.390000e+00
   C2e  X2eq  1 4.700000e-01    3.390000e+00
   C1e  X2eq  1 4.700000e-01    3.390000e+00
   X4e  X2eq  1 4.700000e-01    3.520000e+00
   X3e  X2eq  1 4.700000e-01    3.690000e+00
   C6e  X3eq  1 4.700000e-01    3.520000e+00
   C5e  X3eq  1 4.700000e-01    3.390000e+00
   C4e  X3eq  1 4.700000e-01    3.390000e+00
   C3e  X3eq  1 4.700000e-01    3.390000e+00
   C2e  X3eq  1 4.700000e-01    3.390000e+00
   C1e  X3eq  1 4.700000e-01    3.390000e+00
   X4e  X3eq  1 4.700000e-01    3.520000e+00
   C6e  X4eq  1 4.700000e-01    3.520000e+00
   C5e  X4eq  1 4.700000e-01    3.390000e+00
   C4e  X4eq  1 4.700000e-01    3.390000e+00
   C3e  X4eq  1 4.700000e-01    3.390000e+00
   C2e  X4eq  1 4.700000e-01    3.070000e+00
   C1e  X4eq  1 4.700000e-01    3.070000e+00
   C6e  C1eq  1 4.700000e-01    3.070000e+00
   C5e  C1eq  1 4.700000e-01    3.240000e+00
   C4e  C1eq  1 4.700000e-01    3.240000e+00
   C3e  C1eq  1 4.700000e-01    3.520000e+00
   C2e  C1eq  1 4.700000e-01    3.690000e+00
   C6e  C2eq  1 4.700000e-01    3.240000e+00
   C5e  C2eq  1 4.700000e-01    3.240000e+00
   C4e  C2eq  1 4.700000e-01    3.390000e+00
   C3e  C2eq  1 4.700000e-01    3.520000e+00
   C6e  C3eq  1 4.700000e-01    3.390000e+00
   C5e  C3eq  1 4.700000e-01    3.390000e+00
   C4e  C3eq  1 4.700000e-01    3.520000e+00
   C6e  C4eq  1 4.700000e-01    3.520000e+00
   C5e  C4eq  1 4.700000e-01    3.520000e+00
   C6e  C5eq  1 4.700000e-01    3.520000e+00
   C6v  X1vq  1 4.700000e-01    3.520000e+00
   C5v  X1vq  1 4.700000e-01    3.520000e+00
   C4v  X1vq  1 4.700000e-01    3.520000e+00
   C3v  X1vq  1 4.700000e-01    3.520000e+00
   C2v  X1vq  1 4.700000e-01    3.390000e+00
   C1v  X1vq  1 4.700000e-01    3.390000e+00
   X4v  X1vq  1 4.700000e-01    3.520000e+00
   X3v  X1vq  1 4.700000e-01    3.690000e+00
   X2v  X1vq  1 4.700000e-01    3.690000e+00
   C6v  X2vq  1 4.700000e-01    3.520000e+00
   C5v  X2vq  1 4.700000e-01    3.390000e+00
   C4v  X2vq  1 4.700000e-01    3.390000e+00
   C3v  X2vq  1 4.700000e-01    3.390000e+00
   C2v  X2vq  1 4.700000e-01    3.390000e+00
   C1v  X2vq  1 4.700000e-01    3.390000e+00
   X4v  X2vq  1 4.700000e-01    3.520000e+00
   X3v  X2vq  1 4.700000e-01    3.690000e+00
   C6v  X3vq  1 4.700000e-01    3.520000e+00
   C5v  X3vq  1 4.700000e-01    3.390000e+00
   C4v  X3vq  1 4.700000e-01    3.390000e+00
   C3v  X3vq  1 4.700000e-01    3.390000e+00
   C2v  X3vq  1 4.700000e-01    3.390000e+00
   C1v  X3vq  1 4.700000e-01    3.390000e+00
   X4v  X3vq  1 4.700000e-01    3.520000e+00
   C6v  X4vq  1 4.700000e-01    3.520000e+00
   C5v  X4vq  1 4.700000e-01    3.390000e+00
   C4v  X4vq  1 4.700000e-01    3.390000e+00
   C3v  X4vq  1 4.700000e-01    3.390000e+00
   C2v  X4vq  1 4.700000e-01    3.070000e+00
   C1v  X4vq  1 4.700000e-01    3.070000e+00
   C6v  C1vq  1 4.700000e-01    3.070000e+00
   C5v  C1vq  1 4.700000e-01    3.240000e+00
   C4v  C1vq  1 4.700000e-01    3.240000e+00
   C3v  C1vq  1 4.700000e-01    3.520000e+00
   C2v  C1vq  1 4.700000e-01    3.690000e+00
   C6v  C2vq  1 4.700000e-01    3.240000e+00
   C5v  C2vq  1 4.700000e-01    3.240000e+00
   C4v  C2vq  1 4.700000e-01    3.390000e+00
   C3v  C2vq  1 4.700000e-01    3.520000e+00
   C6v  C3vq  1 4.700000e-01    3.390000e+00
   C5v  C3vq  1 4.700000e-01    3.390000e+00
   C4v  C3vq  1 4.700000e-01    3.520000e+00
   C6v  C4vq  1 4.700000e-01    3.520000e+00
   C5v  C4vq  1 4.700000e-01    3.520000e+00
   C6v  C5vq  1 4.700000e-01    3.520000e+00
   P6h   P6d  1 4.700000e-01    4.990000e+00
   P6h   N1d  1 4.700000e-01    2.960000e+00
   P6h   N2d  1 4.700000e-01    3.070000e+00
   P6h   N3d  1 4.700000e-01    3.240000e+00
   P6h   N4d  1 4.700000e-01    3.390000e+00
   P6h   N5d  1 4.700000e-01    3.520000e+00
   P6h   N6d  1 4.700000e-01    3.880000e+00
   P6h   P1d  1 4.700000e-01    4.060000e+00
   P6h   P2d  1 4.700000e-01    4.250000e+00
   P6h   P3d  1 4.700000e-01    4.250000e+00
   P6h   P4d  1 4.700000e-01    4.480000e+00
   P6h   P5d  1 4.700000e-01    4.730000e+00
   P6h   P6a  1 4.700000e-01    4.990000e+00
   P6h   N1a  1 4.700000e-01    2.960000e+00
   P6h   N2a  1 4.700000e-01    3.070000e+00
   P6h   N3a  1 4.700000e-01    3.240000e+00
   P6h   N4a  1 4.700000e-01    3.390000e+00
   P6h   N5a  1 4.700000e-01    3.520000e+00
   P6h   N6a  1 4.700000e-01    3.880000e+00
   P6h   P1a  1 4.700000e-01    4.060000e+00
   P6h   P2a  1 4.700000e-01    4.250000e+00
   P6h   P3a  1 4.700000e-01    4.250000e+00
   P6h   P4a  1 4.700000e-01    4.480000e+00
   P6h   P5a  1 4.700000e-01    4.730000e+00
   P6h   C6v  1 4.700000e-01    3.070000e+00
   P6h   C5v  1 4.700000e-01    2.960000e+00
   P6h   C4v  1 4.700000e-01    2.790000e+00
   P6h   C3v  1 4.700000e-01    2.620000e+00
   P6h   C2v  1 4.700000e-01    2.620000e+00
   P6h   C1v  1 4.850000e-01    2.240000e+00
   P6h   X4v  1 4.700000e-01    3.240000e+00
   P6h   X3v  1 4.700000e-01    3.240000e+00
   P6h   X2v  1 4.700000e-01    3.070000e+00
   P6h   X1v  1 4.700000e-01    2.960000e+00
   P6h   C6e  1 4.700000e-01    3.070000e+00
   P6h   C5e  1 4.700000e-01    2.960000e+00
   P6h   C4e  1 4.700000e-01    2.790000e+00
   P6h   C3e  1 4.700000e-01    2.620000e+00
   P6h   C2e  1 4.700000e-01    2.620000e+00
   P6h   C1e  1 4.850000e-01    2.240000e+00
   P6h   X4e  1 4.700000e-01    3.240000e+00
   P6h   X3e  1 4.700000e-01    3.240000e+00
   P6h   X2e  1 4.700000e-01    3.070000e+00
   P6h   X1e  1 4.700000e-01    2.960000e+00
   P6h   P6q  1 4.700000e-01    5.490000e+00
   P6h  X1eq  1 4.700000e-01    3.240000e+00
   P6h  X2eq  1 4.700000e-01    3.390000e+00
   P6h  X3eq  1 4.700000e-01    3.520000e+00
   P6h  X4eq  1 4.700000e-01    3.520000e+00
   P6h  C1eq  1 4.700000e-01    2.620000e+00
   P6h  C2eq  1 4.700000e-01    2.960000e+00
   P6h  C3eq  1 4.700000e-01    2.960000e+00
   P6h  C4eq  1 4.700000e-01    3.070000e+00
   P6h  C5eq  1 4.700000e-01    3.240000e+00
   P6h  C6eq  1 4.700000e-01    3.390000e+00
   P6h  X1vq  1 4.700000e-01    3.240000e+00
   P6h  X2vq  1 4.700000e-01    3.390000e+00
   P6h  X3vq  1 4.700000e-01    3.520000e+00
   P6h  X4vq  1 4.700000e-01    3.520000e+00
   P6h  C1vq  1 4.700000e-01    2.620000e+00
   P6h  C2vq  1 4.700000e-01    2.960000e+00
   P6h  C3vq  1 4.700000e-01    2.960000e+00
   P6h  C4vq  1 4.700000e-01    3.070000e+00
   P6h  C5vq  1 4.700000e-01    3.240000e+00
   P6h  C6vq  1 4.700000e-01    3.390000e+00
   P6h  N1aq  1 4.700000e-01    3.240000e+00
   P6h  N2aq  1 4.700000e-01    3.390000e+00
   P6h  N3aq  1 4.700000e-01    3.520000e+00
   P6h  N4aq  1 4.700000e-01    3.690000e+00
   P6h  N5aq  1 4.700000e-01    3.880000e+00
   P6h  N6aq  1 4.700000e-01    4.250000e+00
   P6h  P1aq  1 4.700000e-01    4.480000e+00
   P6h  P2aq  1 4.700000e-01    4.730000e+00
   P6h  P3aq  1 4.700000e-01    4.730000e+00
   P6h  P4aq  1 4.700000e-01    4.990000e+00
   P6h  P5aq  1 4.700000e-01    5.240000e+00
   P6h  P6aq  1 4.700000e-01    5.490000e+00
   P6h  N1dq  1 4.700000e-01    3.240000e+00
   P6h  N2dq  1 4.700000e-01    3.390000e+00
   P6h  N3dq  1 4.700000e-01    3.520000e+00
   P6h  N4dq  1 4.700000e-01    3.690000e+00
   P6h  N5dq  1 4.700000e-01    3.880000e+00
   P6h  N6dq  1 4.700000e-01    4.250000e+00
   P6h  P1dq  1 4.700000e-01    4.480000e+00
   P6h  P2dq  1 4.700000e-01    4.730000e+00
   P6h  P3dq  1 4.700000e-01    4.730000e+00
   P6h  P4dq  1 4.700000e-01    4.990000e+00
   P6h  P5dq  1 4.700000e-01    5.240000e+00
   P6h  P6dq  1 4.700000e-01    5.490000e+00
   P6h   X1q  1 4.700000e-01    3.070000e+00
   P6h   X2q  1 4.700000e-01    3.240000e+00
   P6h   X3q  1 4.700000e-01    3.390000e+00
   P6h   X4q  1 4.700000e-01    3.390000e+00
   P6h   C1q  1 4.700000e-01    2.440000e+00
   P6h   C2q  1 4.700000e-01    2.790000e+00
   P6h   C3q  1 4.700000e-01    2.790000e+00
   P6h   C4q  1 4.700000e-01    2.960000e+00
   P6h   C5q  1 4.700000e-01    3.070000e+00
   P6h   C6q  1 4.700000e-01    3.240000e+00
   P6h   N1q  1 4.700000e-01    3.240000e+00
   P6h   N2q  1 4.700000e-01    3.390000e+00
   P6h   N3q  1 4.700000e-01    3.520000e+00
   P6h   N4q  1 4.700000e-01    3.690000e+00
   P6h   N5q  1 4.700000e-01    3.880000e+00
   P6h   N6q  1 4.700000e-01    4.250000e+00
   P6h   P1q  1 4.700000e-01    4.480000e+00
   P6h   P2q  1 4.700000e-01    4.730000e+00
   P6h   P3q  1 4.700000e-01    4.730000e+00
   P6h   P4q  1 4.700000e-01    4.990000e+00
   P6h   P5q  1 4.700000e-01    5.240000e+00
   P6d   P5h  1 4.700000e-01    4.730000e+00
   P5h   P5d  1 4.700000e-01    4.480000e+00
   P5h   N1d  1 4.700000e-01    2.960000e+00
   P5h   N2d  1 4.700000e-01    3.070000e+00
   P5h   N3d  1 4.700000e-01    3.240000e+00
   P5h   N4d  1 4.700000e-01    3.520000e+00
   P5h   N5d  1 4.700000e-01    3.520000e+00
   P5h   N6d  1 4.700000e-01    3.690000e+00
   P5h   P1d  1 4.700000e-01    3.880000e+00
   P5h   P2d  1 4.700000e-01    4.060000e+00
   P5h   P3d  1 4.700000e-01    4.060000e+00
   P5h   P4d  1 4.700000e-01    4.250000e+00
   P6a   P5h  1 4.700000e-01    4.730000e+00
   P5h   P5a  1 4.700000e-01    4.480000e+00
   P5h   N1a  1 4.700000e-01    2.960000e+00
   P5h   N2a  1 4.700000e-01    3.070000e+00
   P5h   N3a  1 4.700000e-01    3.240000e+00
   P5h   N4a  1 4.700000e-01    3.520000e+00
   P5h   N5a  1 4.700000e-01    3.520000e+00
   P5h   N6a  1 4.700000e-01    3.690000e+00
   P5h   P1a  1 4.700000e-01    3.880000e+00
   P5h   P2a  1 4.700000e-01    4.060000e+00
   P5h   P3a  1 4.700000e-01    4.060000e+00
   P5h   P4a  1 4.700000e-01    4.250000e+00
   P5h   C6v  1 4.700000e-01    3.070000e+00
   P5h   C5v  1 4.700000e-01    3.070000e+00
   P5h   C4v  1 4.700000e-01    2.960000e+00
   P5h   C3v  1 4.700000e-01    2.790000e+00
   P5h   C2v  1 4.700000e-01    2.790000e+00
   P5h   C1v  1 4.700000e-01    2.620000e+00
   P5h   X4v  1 4.700000e-01    3.390000e+00
   P5h   X3v  1 4.700000e-01    3.240000e+00
   P5h   X2v  1 4.700000e-01    3.240000e+00
   P5h   X1v  1 4.700000e-01    2.960000e+00
   P5h   C6e  1 4.700000e-01    3.070000e+00
   P5h   C5e  1 4.700000e-01    3.070000e+00
   P5h   C4e  1 4.700000e-01    2.960000e+00
   P5h   C3e  1 4.700000e-01    2.790000e+00
   P5h   C2e  1 4.700000e-01    2.790000e+00
   P5h   C1e  1 4.700000e-01    2.620000e+00
   P5h   X4e  1 4.700000e-01    3.390000e+00
   P5h   X3e  1 4.700000e-01    3.240000e+00
   P5h   X2e  1 4.700000e-01    3.240000e+00
   P5h   X1e  1 4.700000e-01    2.960000e+00
   P6q   P5h  1 4.700000e-01    5.240000e+00
   P5h   P5q  1 4.700000e-01    4.990000e+00
   P5h  X1eq  1 4.700000e-01    3.240000e+00
   P5h  X2eq  1 4.700000e-01    3.520000e+00
   P5h  X3eq  1 4.700000e-01    3.520000e+00
   P5h  X4eq  1 4.700000e-01    3.690000e+00
   P5h  C1eq  1 4.700000e-01    2.960000e+00
   P5h  C2eq  1 4.700000e-01    3.070000e+00
   P5h  C3eq  1 4.700000e-01    3.070000e+00
   P5h  C4eq  1 4.700000e-01    3.240000e+00
   P5h  C5eq  1 4.700000e-01    3.390000e+00
   P5h  C6eq  1 4.700000e-01    3.390000e+00
   P5h  X1vq  1 4.700000e-01    3.240000e+00
   P5h  X2vq  1 4.700000e-01    3.520000e+00
   P5h  X3vq  1 4.700000e-01    3.520000e+00
   P5h  X4vq  1 4.700000e-01    3.690000e+00
   P5h  C1vq  1 4.700000e-01    2.960000e+00
   P5h  C2vq  1 4.700000e-01    3.070000e+00
   P5h  C3vq  1 4.700000e-01    3.070000e+00
   P5h  C4vq  1 4.700000e-01    3.240000e+00
   P5h  C5vq  1 4.700000e-01    3.390000e+00
   P5h  C6vq  1 4.700000e-01    3.390000e+00
   P5h  N1aq  1 4.700000e-01    3.240000e+00
   P5h  N2aq  1 4.700000e-01    3.390000e+00
   P5h  N3aq  1 4.700000e-01    3.520000e+00
   P5h  N4aq  1 4.700000e-01    3.880000e+00
   P5h  N5aq  1 4.700000e-01    3.880000e+00
   P5h  N6aq  1 4.700000e-01    4.060000e+00
   P5h  P1aq  1 4.700000e-01    4.250000e+00
   P5h  P2aq  1 4.700000e-01    4.480000e+00
   P5h  P3aq  1 4.700000e-01    4.480000e+00
   P5h  P4aq  1 4.700000e-01    4.730000e+00
   P5h  P5aq  1 4.700000e-01    4.990000e+00
  P6aq   P5h  1 4.700000e-01    5.240000e+00
   P5h  N1dq  1 4.700000e-01    3.240000e+00
   P5h  N2dq  1 4.700000e-01    3.390000e+00
   P5h  N3dq  1 4.700000e-01    3.520000e+00
   P5h  N4dq  1 4.700000e-01    3.880000e+00
   P5h  N5dq  1 4.700000e-01    3.880000e+00
   P5h  N6dq  1 4.700000e-01    4.060000e+00
   P5h  P1dq  1 4.700000e-01    4.250000e+00
   P5h  P2dq  1 4.700000e-01    4.480000e+00
   P5h  P3dq  1 4.700000e-01    4.480000e+00
   P5h  P4dq  1 4.700000e-01    4.730000e+00
   P5h  P5dq  1 4.700000e-01    4.990000e+00
  P6dq   P5h  1 4.700000e-01    5.240000e+00
   P5h   X1q  1 4.700000e-01    3.070000e+00
   P5h   X2q  1 4.700000e-01    3.390000e+00
   P5h   X3q  1 4.700000e-01    3.390000e+00
   P5h   X4q  1 4.700000e-01    3.520000e+00
   P5h   C1q  1 4.700000e-01    2.790000e+00
   P5h   C2q  1 4.700000e-01    2.960000e+00
   P5h   C3q  1 4.700000e-01    2.960000e+00
   P5h   C4q  1 4.700000e-01    3.070000e+00
   P5h   C5q  1 4.700000e-01    3.240000e+00
   P5h   C6q  1 4.700000e-01    3.240000e+00
   P5h   N1q  1 4.700000e-01    3.240000e+00
   P5h   N2q  1 4.700000e-01    3.390000e+00
   P5h   N3q  1 4.700000e-01    3.520000e+00
   P5h   N4q  1 4.700000e-01    3.880000e+00
   P5h   N5q  1 4.700000e-01    3.880000e+00
   P5h   N6q  1 4.700000e-01    4.060000e+00
   P5h   P1q  1 4.700000e-01    4.250000e+00
   P5h   P2q  1 4.700000e-01    4.480000e+00
   P5h   P3q  1 4.700000e-01    4.480000e+00
   P5h   P4q  1 4.700000e-01    4.730000e+00
   P6d   P4h  1 4.700000e-01    4.480000e+00
   P5d   P4h  1 4.700000e-01    4.250000e+00
   P4h   P4d  1 4.700000e-01    4.250000e+00
   P4h   N1d  1 4.700000e-01    3.070000e+00
   P4h   N2d  1 4.700000e-01    3.240000e+00
   P4h   N3d  1 4.700000e-01    3.390000e+00
   P4h   N4d  1 4.700000e-01    3.520000e+00
   P4h   N5d  1 4.700000e-01    3.520000e+00
   P4h   N6d  1 4.700000e-01    3.690000e+00
   P4h   P1d  1 4.700000e-01    3.880000e+00
   P4h   P2d  1 4.700000e-01    4.060000e+00
   P4h   P3d  1 4.700000e-01    4.060000e+00
   P6a   P4h  1 4.700000e-01    4.480000e+00
   P5a   P4h  1 4.700000e-01    4.250000e+00
   P4h   P4a  1 4.700000e-01    4.250000e+00
   P4h   N1a  1 4.700000e-01    3.070000e+00
   P4h   N2a  1 4.700000e-01    3.240000e+00
   P4h   N3a  1 4.700000e-01    3.390000e+00
   P4h   N4a  1 4.700000e-01    3.520000e+00
   P4h   N5a  1 4.700000e-01    3.520000e+00
   P4h   N6a  1 4.700000e-01    3.690000e+00
   P4h   P1a  1 4.700000e-01    3.880000e+00
   P4h   P2a  1 4.700000e-01    4.060000e+00
   P4h   P3a  1 4.700000e-01    4.060000e+00
   P4h   C6v  1 4.700000e-01    3.240000e+00
   P4h   C5v  1 4.700000e-01    3.070000e+00
   P4h   C4v  1 4.700000e-01    2.960000e+00
   P4h   C3v  1 4.700000e-01    2.790000e+00
   P4h   C2v  1 4.700000e-01    2.790000e+00
   P4h   C1v  1 4.700000e-01    2.620000e+00
   P4h   X4v  1 4.700000e-01    3.390000e+00
   P4h   X3v  1 4.700000e-01    3.240000e+00
   P4h   X2v  1 4.700000e-01    3.240000e+00
   P4h   X1v  1 4.700000e-01    3.070000e+00
   P4h   C6e  1 4.700000e-01    3.240000e+00
   P4h   C5e  1 4.700000e-01    3.070000e+00
   P4h   C4e  1 4.700000e-01    2.960000e+00
   P4h   C3e  1 4.700000e-01    2.790000e+00
   P4h   C2e  1 4.700000e-01    2.790000e+00
   P4h   C1e  1 4.700000e-01    2.620000e+00
   P4h   X4e  1 4.700000e-01    3.390000e+00
   P4h   X3e  1 4.700000e-01    3.240000e+00
   P4h   X2e  1 4.700000e-01    3.240000e+00
   P4h   X1e  1 4.700000e-01    3.070000e+00
   P6q   P4h  1 4.700000e-01    4.990000e+00
   P5q   P4h  1 4.700000e-01    4.730000e+00
   P4h   P4q  1 4.700000e-01    4.730000e+00
   P4h  X1eq  1 4.700000e-01    3.390000e+00
   P4h  X2eq  1 4.700000e-01    3.520000e+00
   P4h  X3eq  1 4.700000e-01    3.520000e+00
   P4h  X4eq  1 4.700000e-01    3.690000e+00
   P4h  C1eq  1 4.700000e-01    2.960000e+00
   P4h  C2eq  1 4.700000e-01    3.070000e+00
   P4h  C3eq  1 4.700000e-01    3.070000e+00
   P4h  C4eq  1 4.700000e-01    3.240000e+00
   P4h  C5eq  1 4.700000e-01    3.390000e+00
   P4h  C6eq  1 4.700000e-01    3.520000e+00
   P4h  X1vq  1 4.700000e-01    3.390000e+00
   P4h  X2vq  1 4.700000e-01    3.520000e+00
   P4h  X3vq  1 4.700000e-01    3.520000e+00
   P4h  X4vq  1 4.700000e-01    3.690000e+00
   P4h  C1vq  1 4.700000e-01    2.960000e+00
   P4h  C2vq  1 4.700000e-01    3.070000e+00
   P4h  C3vq  1 4.700000e-01    3.070000e+00
   P4h  C4vq  1 4.700000e-01    3.240000e+00
   P4h  C5vq  1 4.700000e-01    3.390000e+00
   P4h  C6vq  1 4.700000e-01    3.520000e+00
   P4h  N1aq  1 4.700000e-01    3.390000e+00
   P4h  N2aq  1 4.700000e-01    3.520000e+00
   P4h  N3aq  1 4.700000e-01    3.690000e+00
   P4h  N4aq  1 4.700000e-01    3.880000e+00
   P4h  N5aq  1 4.700000e-01    3.880000e+00
   P4h  N6aq  1 4.700000e-01    4.060000e+00
   P4h  P1aq  1 4.700000e-01    4.250000e+00
   P4h  P2aq  1 4.700000e-01    4.480000e+00
   P4h  P3aq  1 4.700000e-01    4.480000e+00
   P4h  P4aq  1 4.700000e-01    4.730000e+00
  P5aq   P4h  1 4.700000e-01    4.730000e+00
  P6aq   P4h  1 4.700000e-01    4.990000e+00
   P4h  N1dq  1 4.700000e-01    3.390000e+00
   P4h  N2dq  1 4.700000e-01    3.520000e+00
   P4h  N3dq  1 4.700000e-01    3.690000e+00
   P4h  N4dq  1 4.700000e-01    3.880000e+00
   P4h  N5dq  1 4.700000e-01    3.880000e+00
   P4h  N6dq  1 4.700000e-01    4.060000e+00
   P4h  P1dq  1 4.700000e-01    4.250000e+00
   P4h  P2dq  1 4.700000e-01    4.480000e+00
   P4h  P3dq  1 4.700000e-01    4.480000e+00
   P4h  P4dq  1 4.700000e-01    4.730000e+00
  P5dq   P4h  1 4.700000e-01    4.730000e+00
  P6dq   P4h  1 4.700000e-01    4.990000e+00
   P4h   X1q  1 4.700000e-01    3.240000e+00
   P4h   X2q  1 4.700000e-01    3.390000e+00
   P4h   X3q  1 4.700000e-01    3.390000e+00
   P4h   X4q  1 4.700000e-01    3.520000e+00
   P4h   C1q  1 4.700000e-01    2.790000e+00
   P4h   C2q  1 4.700000e-01    2.960000e+00
   P4h   C3q  1 4.700000e-01    2.960000e+00
   P4h   C4q  1 4.700000e-01    3.070000e+00
   P4h   C5q  1 4.700000e-01    3.240000e+00
   P4h   C6q  1 4.700000e-01    3.390000e+00
   P4h   N1q  1 4.700000e-01    3.390000e+00
   P4h   N2q  1 4.700000e-01    3.520000e+00
   P4h   N3q  1 4.700000e-01    3.690000e+00
   P4h   N4q  1 4.700000e-01    3.880000e+00
   P4h   N5q  1 4.700000e-01    3.880000e+00
   P4h   N6q  1 4.700000e-01    4.060000e+00
   P4h   P1q  1 4.700000e-01    4.250000e+00
   P4h   P2q  1 4.700000e-01    4.480000e+00
   P4h   P3q  1 4.700000e-01    4.480000e+00
   P6d   P3h  1 4.700000e-01    4.250000e+00
   P5d   P3h  1 4.700000e-01    4.060000e+00
   P4d   P3h  1 4.700000e-01    4.060000e+00
   P3h   P3d  1 4.700000e-01    4.060000e+00
   P3h   N1d  1 4.700000e-01    3.240000e+00
   P3h   N2d  1 4.700000e-01    3.390000e+00
   P3h   N3d  1 4.700000e-01    3.390000e+00
   P3h   N4d  1 4.700000e-01    3.520000e+00
   P3h   N5d  1 4.700000e-01    3.520000e+00
   P3h   N6d  1 4.700000e-01    3.690000e+00
   P3h   P1d  1 4.700000e-01    3.880000e+00
   P3h   P2d  1 4.700000e-01    4.060000e+00
   P6a   P3h  1 4.700000e-01    4.250000e+00
   P5a   P3h  1 4.700000e-01    4.060000e+00
   P4a   P3h  1 4.700000e-01    4.060000e+00
   P3h   P3a  1 4.700000e-01    4.060000e+00
   P3h   N1a  1 4.700000e-01    3.240000e+00
   P3h   N2a  1 4.700000e-01    3.390000e+00
   P3h   N3a  1 4.700000e-01    3.390000e+00
   P3h   N4a  1 4.700000e-01    3.520000e+00
   P3h   N5a  1 4.700000e-01    3.520000e+00
   P3h   N6a  1 4.700000e-01    3.690000e+00
   P3h   P1a  1 4.700000e-01    3.880000e+00
   P3h   P2a  1 4.700000e-01    4.060000e+00
   P3h   C6v  1 4.700000e-01    3.390000e+00
   P3h   C5v  1 4.700000e-01    3.240000e+00
   P3h   C4v  1 4.700000e-01    3.070000e+00
   P3h   C3v  1 4.700000e-01    2.790000e+00
   P3h   C2v  1 4.700000e-01    2.790000e+00
   P3h   C1v  1 4.700000e-01    2.620000e+00
   P3h   X4v  1 4.700000e-01    3.390000e+00
   P3h   X3v  1 4.700000e-01    3.390000e+00
   P3h   X2v  1 4.700000e-01    3.240000e+00
   P3h   X1v  1 4.700000e-01    3.070000e+00
   P3h   C6e  1 4.700000e-01    3.390000e+00
   P3h   C5e  1 4.700000e-01    3.240000e+00
   P3h   C4e  1 4.700000e-01    3.070000e+00
   P3h   C3e  1 4.700000e-01    2.790000e+00
   P3h   C2e  1 4.700000e-01    2.790000e+00
   P3h   C1e  1 4.700000e-01    2.620000e+00
   P3h   X4e  1 4.700000e-01    3.390000e+00
   P3h   X3e  1 4.700000e-01    3.390000e+00
   P3h   X2e  1 4.700000e-01    3.240000e+00
   P3h   X1e  1 4.700000e-01    3.070000e+00
   P6q   P3h  1 4.700000e-01    4.730000e+00
   P5q   P3h  1 4.700000e-01    4.480000e+00
   P4q   P3h  1 4.700000e-01    4.480000e+00
   P3h   P3q  1 4.700000e-01    4.480000e+00
   P3h  X1eq  1 4.700000e-01    3.390000e+00
   P3h  X2eq  1 4.700000e-01    3.520000e+00
   P3h  X3eq  1 4.700000e-01    3.690000e+00
   P3h  X4eq  1 4.700000e-01    3.690000e+00
   P3h  C1eq  1 4.700000e-01    2.960000e+00
   P3h  C2eq  1 4.700000e-01    3.070000e+00
   P3h  C3eq  1 4.700000e-01    3.070000e+00
   P3h  C4eq  1 4.700000e-01    3.390000e+00
   P3h  C5eq  1 4.700000e-01    3.520000e+00
   P3h  C6eq  1 4.700000e-01    3.690000e+00
   P3h  X1vq  1 4.700000e-01    3.390000e+00
   P3h  X2vq  1 4.700000e-01    3.520000e+00
   P3h  X3vq  1 4.700000e-01    3.690000e+00
   P3h  X4vq  1 4.700000e-01    3.690000e+00
   P3h  C1vq  1 4.700000e-01    2.960000e+00
   P3h  C2vq  1 4.700000e-01    3.070000e+00
   P3h  C3vq  1 4.700000e-01    3.070000e+00
   P3h  C4vq  1 4.700000e-01    3.390000e+00
   P3h  C5vq  1 4.700000e-01    3.520000e+00
   P3h  C6vq  1 4.700000e-01    3.690000e+00
   P3h  N1aq  1 4.700000e-01    3.520000e+00
   P3h  N2aq  1 4.700000e-01    3.690000e+00
   P3h  N3aq  1 4.700000e-01    3.690000e+00
   P3h  N4aq  1 4.700000e-01    3.880000e+00
   P3h  N5aq  1 4.700000e-01    3.880000e+00
   P3h  N6aq  1 4.700000e-01    4.060000e+00
   P3h  P1aq  1 4.700000e-01    4.250000e+00
   P3h  P2aq  1 4.700000e-01    4.480000e+00
   P3h  P3aq  1 4.700000e-01    4.480000e+00
  P4aq   P3h  1 4.700000e-01    4.480000e+00
  P5aq   P3h  1 4.700000e-01    4.480000e+00
  P6aq   P3h  1 4.700000e-01    4.730000e+00
   P3h  N1dq  1 4.700000e-01    3.520000e+00
   P3h  N2dq  1 4.700000e-01    3.690000e+00
   P3h  N3dq  1 4.700000e-01    3.690000e+00
   P3h  N4dq  1 4.700000e-01    3.880000e+00
   P3h  N5dq  1 4.700000e-01    3.880000e+00
   P3h  N6dq  1 4.700000e-01    4.060000e+00
   P3h  P1dq  1 4.700000e-01    4.250000e+00
   P3h  P2dq  1 4.700000e-01    4.480000e+00
   P3h  P3dq  1 4.700000e-01    4.480000e+00
  P4dq   P3h  1 4.700000e-01    4.480000e+00
  P5dq   P3h  1 4.700000e-01    4.480000e+00
  P6dq   P3h  1 4.700000e-01    4.730000e+00
   P3h   X1q  1 4.700000e-01    3.240000e+00
   P3h   X2q  1 4.700000e-01    3.390000e+00
   P3h   X3q  1 4.700000e-01    3.520000e+00
   P3h   X4q  1 4.700000e-01    3.520000e+00
   P3h   C1q  1 4.700000e-01    2.790000e+00
   P3h   C2q  1 4.700000e-01    2.960000e+00
   P3h   C3q  1 4.700000e-01    2.960000e+00
   P3h   C4q  1 4.700000e-01    3.240000e+00
   P3h   C5q  1 4.700000e-01    3.390000e+00
   P3h   C6q  1 4.700000e-01    3.520000e+00
   P3h   N1q  1 4.700000e-01    3.520000e+00
   P3h   N2q  1 4.700000e-01    3.690000e+00
   P3h   N3q  1 4.700000e-01    3.690000e+00
   P3h   N4q  1 4.700000e-01    3.880000e+00
   P3h   N5q  1 4.700000e-01    3.880000e+00
   P3h   N6q  1 4.700000e-01    4.060000e+00
   P3h   P1q  1 4.700000e-01    4.250000e+00
   P3h   P2q  1 4.700000e-01    4.480000e+00
   P6d   P2h  1 4.700000e-01    4.250000e+00
   P5d   P2h  1 4.700000e-01    4.060000e+00
   P4d   P2h  1 4.700000e-01    4.060000e+00
   P3d   P2h  1 4.700000e-01    4.060000e+00
   P2h   P2d  1 4.700000e-01    4.060000e+00
   P2h   N1d  1 4.700000e-01    3.390000e+00
   P2h   N2d  1 4.700000e-01    3.390000e+00
   P2h   N3d  1 4.700000e-01    3.390000e+00
   P2h   N4d  1 4.700000e-01    3.520000e+00
   P2h   N5d  1 4.700000e-01    3.690000e+00
   P2h   N6d  1 4.700000e-01    3.880000e+00
   P2h   P1d  1 4.700000e-01    3.880000e+00
   P6a   P2h  1 4.700000e-01    4.250000e+00
   P5a   P2h  1 4.700000e-01    4.060000e+00
   P4a   P2h  1 4.700000e-01    4.060000e+00
   P3a   P2h  1 4.700000e-01    4.060000e+00
   P2h   P2a  1 4.700000e-01    4.060000e+00
   P2h   N1a  1 4.700000e-01    3.390000e+00
   P2h   N2a  1 4.700000e-01    3.390000e+00
   P2h   N3a  1 4.700000e-01    3.390000e+00
   P2h   N4a  1 4.700000e-01    3.520000e+00
   P2h   N5a  1 4.700000e-01    3.690000e+00
   P2h   N6a  1 4.700000e-01    3.880000e+00
   P2h   P1a  1 4.700000e-01    3.880000e+00
   P2h   C6v  1 4.700000e-01    3.390000e+00
   P2h   C5v  1 4.700000e-01    3.240000e+00
   P2h   C4v  1 4.700000e-01    3.070000e+00
   P2h   C3v  1 4.700000e-01    2.960000e+00
   P2h   C2v  1 4.700000e-01    2.960000e+00
   P2h   C1v  1 4.700000e-01    2.790000e+00
   P2h   X4v  1 4.700000e-01    3.390000e+00
   P2h   X3v  1 4.700000e-01    3.390000e+00
   P2h   X2v  1 4.700000e-01    3.240000e+00
   P2h   X1v  1 4.700000e-01    3.070000e+00
   P2h   C6e  1 4.700000e-01    3.390000e+00
   P2h   C5e  1 4.700000e-01    3.240000e+00
   P2h   C4e  1 4.700000e-01    3.070000e+00
   P2h   C3e  1 4.700000e-01    2.960000e+00
   P2h   C2e  1 4.700000e-01    2.960000e+00
   P2h   C1e  1 4.700000e-01    2.790000e+00
   P2h   X4e  1 4.700000e-01    3.390000e+00
   P2h   X3e  1 4.700000e-01    3.390000e+00
   P2h   X2e  1 4.700000e-01    3.240000e+00
   P2h   X1e  1 4.700000e-01    3.070000e+00
   P6q   P2h  1 4.700000e-01    4.730000e+00
   P5q   P2h  1 4.700000e-01    4.480000e+00
   P4q   P2h  1 4.700000e-01    4.480000e+00
   P3q   P2h  1 4.700000e-01    4.480000e+00
   P2h   P2q  1 4.700000e-01    4.480000e+00
   P2h  X1eq  1 4.700000e-01    3.390000e+00
   P2h  X2eq  1 4.700000e-01    3.520000e+00
   P2h  X3eq  1 4.700000e-01    3.690000e+00
   P2h  X4eq  1 4.700000e-01    3.690000e+00
   P2h  C1eq  1 4.700000e-01    3.070000e+00
   P2h  C2eq  1 4.700000e-01    3.240000e+00
   P2h  C3eq  1 4.700000e-01    3.240000e+00
   P2h  C4eq  1 4.700000e-01    3.390000e+00
   P2h  C5eq  1 4.700000e-01    3.520000e+00
   P2h  C6eq  1 4.700000e-01    3.690000e+00
   P2h  X1vq  1 4.700000e-01    3.390000e+00
   P2h  X2vq  1 4.700000e-01    3.520000e+00
   P2h  X3vq  1 4.700000e-01    3.690000e+00
   P2h  X4vq  1 4.700000e-01    3.690000e+00
   P2h  C1vq  1 4.700000e-01    3.070000e+00
   P2h  C2vq  1 4.700000e-01    3.240000e+00
   P2h  C3vq  1 4.700000e-01    3.240000e+00
   P2h  C4vq  1 4.700000e-01    3.390000e+00
   P2h  C5vq  1 4.700000e-01    3.520000e+00
   P2h  C6vq  1 4.700000e-01    3.690000e+00
   P2h  N1aq  1 4.700000e-01    3.690000e+00
   P2h  N2aq  1 4.700000e-01    3.690000e+00
   P2h  N3aq  1 4.700000e-01    3.690000e+00
   P2h  N4aq  1 4.700000e-01    3.880000e+00
   P2h  N5aq  1 4.700000e-01    4.060000e+00
   P2h  N6aq  1 4.700000e-01    4.250000e+00
   P2h  P1aq  1 4.700000e-01    4.250000e+00
   P2h  P2aq  1 4.700000e-01    4.480000e+00
  P3aq   P2h  1 4.700000e-01    4.480000e+00
  P4aq   P2h  1 4.700000e-01    4.480000e+00
  P5aq   P2h  1 4.700000e-01    4.480000e+00
  P6aq   P2h  1 4.700000e-01    4.730000e+00
   P2h  N1dq  1 4.700000e-01    3.690000e+00
   P2h  N2dq  1 4.700000e-01    3.690000e+00
   P2h  N3dq  1 4.700000e-01    3.690000e+00
   P2h  N4dq  1 4.700000e-01    3.880000e+00
   P2h  N5dq  1 4.700000e-01    4.060000e+00
   P2h  N6dq  1 4.700000e-01    4.250000e+00
   P2h  P1dq  1 4.700000e-01    4.250000e+00
   P2h  P2dq  1 4.700000e-01    4.480000e+00
  P3dq   P2h  1 4.700000e-01    4.480000e+00
  P4dq   P2h  1 4.700000e-01    4.480000e+00
  P5dq   P2h  1 4.700000e-01    4.480000e+00
  P6dq   P2h  1 4.700000e-01    4.730000e+00
   P2h   X1q  1 4.700000e-01    3.240000e+00
   P2h   X2q  1 4.700000e-01    3.390000e+00
   P2h   X3q  1 4.700000e-01    3.520000e+00
   P2h   X4q  1 4.700000e-01    3.520000e+00
   P2h   C1q  1 4.700000e-01    2.960000e+00
   P2h   C2q  1 4.700000e-01    3.070000e+00
   P2h   C3q  1 4.700000e-01    3.070000e+00
   P2h   C4q  1 4.700000e-01    3.240000e+00
   P2h   C5q  1 4.700000e-01    3.390000e+00
   P2h   C6q  1 4.700000e-01    3.520000e+00
   P2h   N1q  1 4.700000e-01    3.690000e+00
   P2h   N2q  1 4.700000e-01    3.690000e+00
   P2h   N3q  1 4.700000e-01    3.690000e+00
   P2h   N4q  1 4.700000e-01    3.880000e+00
   P2h   N5q  1 4.700000e-01    4.060000e+00
   P2h   N6q  1 4.700000e-01    4.250000e+00
   P2h   P1q  1 4.700000e-01    4.250000e+00
   P6d   P1h  1 4.700000e-01    4.060000e+00
   P5d   P1h  1 4.700000e-01    3.880000e+00
   P4d   P1h  1 4.700000e-01    3.880000e+00
   P3d   P1h  1 4.700000e-01    3.880000e+00
   P2d   P1h  1 4.700000e-01    3.880000e+00
   P1h   P1d  1 4.700000e-01    3.880000e+00
   P1h   N1d  1 4.700000e-01    3.390000e+00
   P1h   N2d  1 4.700000e-01    3.390000e+00
   P1h   N3d  1 4.700000e-01    3.390000e+00
   P1h   N4d  1 4.700000e-01    3.690000e+00
   P1h   N5d  1 4.700000e-01    3.690000e+00
   P1h   N6d  1 4.700000e-01    3.880000e+00
   P6a   P1h  1 4.700000e-01    4.060000e+00
   P5a   P1h  1 4.700000e-01    3.880000e+00
   P4a   P1h  1 4.700000e-01    3.880000e+00
   P3a   P1h  1 4.700000e-01    3.880000e+00
   P2a   P1h  1 4.700000e-01    3.880000e+00
   P1h   P1a  1 4.700000e-01    3.880000e+00
   P1h   N1a  1 4.700000e-01    3.390000e+00
   P1h   N2a  1 4.700000e-01    3.390000e+00
   P1h   N3a  1 4.700000e-01    3.390000e+00
   P1h   N4a  1 4.700000e-01    3.690000e+00
   P1h   N5a  1 4.700000e-01    3.690000e+00
   P1h   N6a  1 4.700000e-01    3.880000e+00
   P1h   C6v  1 4.700000e-01    3.390000e+00
   P1h   C5v  1 4.700000e-01    3.240000e+00
   P1h   C4v  1 4.700000e-01    3.070000e+00
   P1h   C3v  1 4.700000e-01    2.960000e+00
   P1h   C2v  1 4.700000e-01    2.960000e+00
   P1h   C1v  1 4.700000e-01    2.790000e+00
   P1h   X4v  1 4.700000e-01    3.390000e+00
   P1h   X3v  1 4.700000e-01    3.390000e+00
   P1h   X2v  1 4.700000e-01    3.240000e+00
   P1h   X1v  1 4.700000e-01    3.070000e+00
   P1h   C6e  1 4.700000e-01    3.390000e+00
   P1h   C5e  1 4.700000e-01    3.240000e+00
   P1h   C4e  1 4.700000e-01    3.070000e+00
   P1h   C3e  1 4.700000e-01    2.960000e+00
   P1h   C2e  1 4.700000e-01    2.960000e+00
   P1h   C1e  1 4.700000e-01    2.790000e+00
   P1h   X4e  1 4.700000e-01    3.390000e+00
   P1h   X3e  1 4.700000e-01    3.390000e+00
   P1h   X2e  1 4.700000e-01    3.240000e+00
   P1h   X1e  1 4.700000e-01    3.070000e+00
   P6q   P1h  1 4.700000e-01    4.480000e+00
   P5q   P1h  1 4.700000e-01    4.250000e+00
   P4q   P1h  1 4.700000e-01    4.250000e+00
   P3q   P1h  1 4.700000e-01    4.250000e+00
   P2q   P1h  1 4.700000e-01    4.250000e+00
   P1h   P1q  1 4.700000e-01    4.250000e+00
   P1h  X1eq  1 4.700000e-01    3.390000e+00
   P1h  X2eq  1 4.700000e-01    3.520000e+00
   P1h  X3eq  1 4.700000e-01    3.690000e+00
   P1h  X4eq  1 4.700000e-01    3.690000e+00
   P1h  C1eq  1 4.700000e-01    3.070000e+00
   P1h  C2eq  1 4.700000e-01    3.240000e+00
   P1h  C3eq  1 4.700000e-01    3.240000e+00
   P1h  C4eq  1 4.700000e-01    3.390000e+00
   P1h  C5eq  1 4.700000e-01    3.520000e+00
   P1h  C6eq  1 4.700000e-01    3.690000e+00
   P1h  X1vq  1 4.700000e-01    3.390000e+00
   P1h  X2vq  1 4.700000e-01    3.520000e+00
   P1h  X3vq  1 4.700000e-01    3.690000e+00
   P1h  X4vq  1 4.700000e-01    3.690000e+00
   P1h  C1vq  1 4.700000e-01    3.070000e+00
   P1h  C2vq  1 4.700000e-01    3.240000e+00
   P1h  C3vq  1 4.700000e-01    3.240000e+00
   P1h  C4vq  1 4.700000e-01    3.390000e+00
   P1h  C5vq  1 4.700000e-01    3.520000e+00
   P1h  C6vq  1 4.700000e-01    3.690000e+00
   P1h  N1aq  1 4.700000e-01    3.690000e+00
   P1h  N2aq  1 4.700000e-01    3.690000e+00
   P1h  N3aq  1 4.700000e-01    3.690000e+00
   P1h  N4aq  1 4.700000e-01    4.060000e+00
   P1h  N5aq  1 4.700000e-01    4.060000e+00
   P1h  N6aq  1 4.700000e-01    4.250000e+00
   P1h  P1aq  1 4.700000e-01    4.250000e+00
  P2aq   P1h  1 4.700000e-01    4.250000e+00
  P3aq   P1h  1 4.700000e-01    4.250000e+00
  P4aq   P1h  1 4.700000e-01    4.250000e+00
  P5aq   P1h  1 4.700000e-01    4.250000e+00
  P6aq   P1h  1 4.700000e-01    4.480000e+00
   P1h  N1dq  1 4.700000e-01    3.690000e+00
   P1h  N2dq  1 4.700000e-01    3.690000e+00
   P1h  N3dq  1 4.700000e-01    3.690000e+00
   P1h  N4dq  1 4.700000e-01    4.060000e+00
   P1h  N5dq  1 4.700000e-01    4.060000e+00
   P1h  N6dq  1 4.700000e-01    4.250000e+00
   P1h  P1dq  1 4.700000e-01    4.250000e+00
  P2dq   P1h  1 4.700000e-01    4.250000e+00
  P3dq   P1h  1 4.700000e-01    4.250000e+00
  P4dq   P1h  1 4.700000e-01    4.250000e+00
  P5dq   P1h  1 4.700000e-01    4.250000e+00
  P6dq   P1h  1 4.700000e-01    4.480000e+00
   P1h   X1q  1 4.700000e-01    3.240000e+00
   P1h   X2q  1 4.700000e-01    3.390000e+00
   P1h   X3q  1 4.700000e-01    3.520000e+00
   P1h   X4q  1 4.700000e-01    3.520000e+00
   P1h   C1q  1 4.700000e-01    2.960000e+00
   P1h   C2q  1 4.700000e-01    3.070000e+00
   P1h   C3q  1 4.700000e-01    3.070000e+00
   P1h   C4q  1 4.700000e-01    3.240000e+00
   P1h   C5q  1 4.700000e-01    3.390000e+00
   P1h   C6q  1 4.700000e-01    3.520000e+00
   P1h   N1q  1 4.700000e-01    3.690000e+00
   P1h   N2q  1 4.700000e-01    3.690000e+00
   P1h   N3q  1 4.700000e-01    3.690000e+00
   P1h   N4q  1 4.700000e-01    4.060000e+00
   P1h   N5q  1 4.700000e-01    4.060000e+00
   P1h   N6q  1 4.700000e-01    4.250000e+00
   P6d   N6h  1 4.700000e-01    3.880000e+00
   P5d   N6h  1 4.700000e-01    3.690000e+00
   P4d   N6h  1 4.700000e-01    3.690000e+00
   P3d   N6h  1 4.700000e-01    3.690000e+00
   P2d   N6h  1 4.700000e-01    3.880000e+00
   P1d   N6h  1 4.700000e-01    3.880000e+00
   N6h   N6d  1 4.700000e-01    3.880000e+00
   N6h   N1d  1 4.700000e-01    3.390000e+00
   N6h   N2d  1 4.700000e-01    3.390000e+00
   N6h   N3d  1 4.700000e-01    3.520000e+00
   N6h   N4d  1 4.700000e-01    3.880000e+00
   N6h   N5d  1 4.700000e-01    3.880000e+00
   P6a   N6h  1 4.700000e-01    3.880000e+00
   P5a   N6h  1 4.700000e-01    3.690000e+00
   P4a   N6h  1 4.700000e-01    3.690000e+00
   P3a   N6h  1 4.700000e-01    3.690000e+00
   P2a   N6h  1 4.700000e-01    3.880000e+00
   P1a   N6h  1 4.700000e-01    3.880000e+00
   N6h   N6a  1 4.700000e-01    3.880000e+00
   N6h   N1a  1 4.700000e-01    3.390000e+00
   N6h   N2a  1 4.700000e-01    3.390000e+00
   N6h   N3a  1 4.700000e-01    3.520000e+00
   N6h   N4a  1 4.700000e-01    3.880000e+00
   N6h   N5a  1 4.700000e-01    3.880000e+00
   N6h   C6v  1 4.700000e-01    3.520000e+00
   N6h   C5v  1 4.700000e-01    3.390000e+00
   N6h   C4v  1 4.700000e-01    3.240000e+00
   N6h   C3v  1 4.700000e-01    3.070000e+00
   N6h   C2v  1 4.700000e-01    3.070000e+00
   N6h   C1v  1 4.700000e-01    2.960000e+00
   N6h   X4v  1 4.700000e-01    3.520000e+00
   N6h   X3v  1 4.700000e-01    3.390000e+00
   N6h   X2v  1 4.700000e-01    3.240000e+00
   N6h   X1v  1 4.700000e-01    3.070000e+00
   N6h   C6e  1 4.700000e-01    3.520000e+00
   N6h   C5e  1 4.700000e-01    3.390000e+00
   N6h   C4e  1 4.700000e-01    3.240000e+00
   N6h   C3e  1 4.700000e-01    3.070000e+00
   N6h   C2e  1 4.700000e-01    3.070000e+00
   N6h   C1e  1 4.700000e-01    2.960000e+00
   N6h   X4e  1 4.700000e-01    3.520000e+00
   N6h   X3e  1 4.700000e-01    3.390000e+00
   N6h   X2e  1 4.700000e-01    3.240000e+00
   N6h   X1e  1 4.700000e-01    3.070000e+00
   P6q   N6h  1 4.700000e-01    4.250000e+00
   P5q   N6h  1 4.700000e-01    4.060000e+00
   P4q   N6h  1 4.700000e-01    4.060000e+00
   P3q   N6h  1 4.700000e-01    4.060000e+00
   P2q   N6h  1 4.700000e-01    4.250000e+00
   P1q   N6h  1 4.700000e-01    4.250000e+00
   N6h   N6q  1 4.700000e-01    4.250000e+00
   N6h  X1eq  1 4.700000e-01    3.390000e+00
   N6h  X2eq  1 4.700000e-01    3.520000e+00
   N6h  X3eq  1 4.700000e-01    3.690000e+00
   N6h  X4eq  1 4.700000e-01    3.880000e+00
   N6h  C1eq  1 4.700000e-01    3.240000e+00
   N6h  C2eq  1 4.700000e-01    3.390000e+00
   N6h  C3eq  1 4.700000e-01    3.390000e+00
   N6h  C4eq  1 4.700000e-01    3.520000e+00
   N6h  C5eq  1 4.700000e-01    3.690000e+00
   N6h  C6eq  1 4.700000e-01    3.880000e+00
   N6h  X1vq  1 4.700000e-01    3.390000e+00
   N6h  X2vq  1 4.700000e-01    3.520000e+00
   N6h  X3vq  1 4.700000e-01    3.690000e+00
   N6h  X4vq  1 4.700000e-01    3.880000e+00
   N6h  C1vq  1 4.700000e-01    3.240000e+00
   N6h  C2vq  1 4.700000e-01    3.390000e+00
   N6h  C3vq  1 4.700000e-01    3.390000e+00
   N6h  C4vq  1 4.700000e-01    3.520000e+00
   N6h  C5vq  1 4.700000e-01    3.690000e+00
   N6h  C6vq  1 4.700000e-01    3.880000e+00
   N6h  N1aq  1 4.700000e-01    3.690000e+00
   N6h  N2aq  1 4.700000e-01    3.690000e+00
   N6h  N3aq  1 4.700000e-01    3.880000e+00
   N6h  N4aq  1 4.700000e-01    4.250000e+00
   N6h  N5aq  1 4.700000e-01    4.250000e+00
   N6h  N6aq  1 4.700000e-01    4.250000e+00
  P1aq   N6h  1 4.700000e-01    4.250000e+00
  P2aq   N6h  1 4.700000e-01    4.250000e+00
  P3aq   N6h  1 4.700000e-01    4.060000e+00
  P4aq   N6h  1 4.700000e-01    4.060000e+00
  P5aq   N6h  1 4.700000e-01    4.060000e+00
  P6aq   N6h  1 4.700000e-01    4.250000e+00
   N6h  N1dq  1 4.700000e-01    3.690000e+00
   N6h  N2dq  1 4.700000e-01    3.690000e+00
   N6h  N3dq  1 4.700000e-01    3.880000e+00
   N6h  N4dq  1 4.700000e-01    4.250000e+00
   N6h  N5dq  1 4.700000e-01    4.250000e+00
   N6h  N6dq  1 4.700000e-01    4.250000e+00
  P1dq   N6h  1 4.700000e-01    4.250000e+00
  P2dq   N6h  1 4.700000e-01    4.250000e+00
  P3dq   N6h  1 4.700000e-01    4.060000e+00
  P4dq   N6h  1 4.700000e-01    4.060000e+00
  P5dq   N6h  1 4.700000e-01    4.060000e+00
  P6dq   N6h  1 4.700000e-01    4.250000e+00
   N6h   X1q  1 4.700000e-01    3.240000e+00
   N6h   X2q  1 4.700000e-01    3.390000e+00
   N6h   X3q  1 4.700000e-01    3.520000e+00
   N6h   X4q  1 4.700000e-01    3.690000e+00
   N6h   C1q  1 4.700000e-01    3.070000e+00
   N6h   C2q  1 4.700000e-01    3.240000e+00
   N6h   C3q  1 4.700000e-01    3.240000e+00
   N6h   C4q  1 4.700000e-01    3.390000e+00
   N6h   C5q  1 4.700000e-01    3.520000e+00
   N6h   C6q  1 4.700000e-01    3.690000e+00
   N6h   N1q  1 4.700000e-01    3.690000e+00
   N6h   N2q  1 4.700000e-01    3.690000e+00
   N6h   N3q  1 4.700000e-01    3.880000e+00
   N6h   N4q  1 4.700000e-01    4.250000e+00
   N6h   N5q  1 4.700000e-01    4.250000e+00
   P6d   N5h  1 4.700000e-01    3.520000e+00
   P5d   N5h  1 4.700000e-01    3.520000e+00
   P4d   N5h  1 4.700000e-01    3.520000e+00
   P3d   N5h  1 4.700000e-01    3.520000e+00
   P2d   N5h  1 4.700000e-01    3.690000e+00
   P1d   N5h  1 4.700000e-01    3.690000e+00
   N6d   N5h  1 4.700000e-01    3.880000e+00
   N5h   N5d  1 4.700000e-01    3.690000e+00
   N5h   N1d  1 4.700000e-01    3.390000e+00
   N5h   N2d  1 4.700000e-01    3.520000e+00
   N5h   N3d  1 4.700000e-01    3.520000e+00
   N5h   N4d  1 4.700000e-01    3.690000e+00
   P6a   N5h  1 4.700000e-01    3.520000e+00
   P5a   N5h  1 4.700000e-01    3.520000e+00
   P4a   N5h  1 4.700000e-01    3.520000e+00
   P3a   N5h  1 4.700000e-01    3.520000e+00
   P2a   N5h  1 4.700000e-01    3.690000e+00
   P1a   N5h  1 4.700000e-01    3.690000e+00
   N6a   N5h  1 4.700000e-01    3.880000e+00
   N5h   N5a  1 4.700000e-01    3.690000e+00
   N5h   N1a  1 4.700000e-01    3.390000e+00
   N5h   N2a  1 4.700000e-01    3.520000e+00
   N5h   N3a  1 4.700000e-01    3.520000e+00
   N5h   N4a  1 4.700000e-01    3.690000e+00
   N5h   C6v  1 4.700000e-01    3.520000e+00
   N5h   C5v  1 4.700000e-01    3.390000e+00
   N5h   C4v  1 4.700000e-01    3.240000e+00
   N5h   C3v  1 4.700000e-01    3.240000e+00
   N5h   C2v  1 4.700000e-01    3.070000e+00
   N5h   C1v  1 4.700000e-01    2.960000e+00
   N5h   X4v  1 4.700000e-01    3.690000e+00
   N5h   X3v  1 4.700000e-01    3.520000e+00
   N5h   X2v  1 4.700000e-01    3.390000e+00
   N5h   X1v  1 4.700000e-01    3.240000e+00
   N5h   C6e  1 4.700000e-01    3.520000e+00
   N5h   C5e  1 4.700000e-01    3.390000e+00
   N5h   C4e  1 4.700000e-01    3.240000e+00
   N5h   C3e  1 4.700000e-01    3.240000e+00
   N5h   C2e  1 4.700000e-01    3.070000e+00
   N5h   C1e  1 4.700000e-01    2.960000e+00
   N5h   X4e  1 4.700000e-01    3.690000e+00
   N5h   X3e  1 4.700000e-01    3.520000e+00
   N5h   X2e  1 4.700000e-01    3.390000e+00
   N5h   X1e  1 4.700000e-01    3.240000e+00
   P6q   N5h  1 4.700000e-01    3.880000e+00
   P5q   N5h  1 4.700000e-01    3.880000e+00
   P4q   N5h  1 4.700000e-01    3.880000e+00
   P3q   N5h  1 4.700000e-01    3.880000e+00
   P2q   N5h  1 4.700000e-01    4.060000e+00
   P1q   N5h  1 4.700000e-01    4.060000e+00
   N6q   N5h  1 4.700000e-01    4.250000e+00
   N5h   N5q  1 4.700000e-01    4.060000e+00
   N5h  X1eq  1 4.700000e-01    3.520000e+00
   N5h  X2eq  1 4.700000e-01    3.690000e+00
   N5h  X3eq  1 4.700000e-01    3.880000e+00
   N5h  X4eq  1 4.700000e-01    4.060000e+00
   N5h  C1eq  1 4.700000e-01    3.240000e+00
   N5h  C2eq  1 4.700000e-01    3.390000e+00
   N5h  C3eq  1 4.700000e-01    3.520000e+00
   N5h  C4eq  1 4.700000e-01    3.520000e+00
   N5h  C5eq  1 4.700000e-01    3.690000e+00
   N5h  C6eq  1 4.700000e-01    3.880000e+00
   N5h  X1vq  1 4.700000e-01    3.520000e+00
   N5h  X2vq  1 4.700000e-01    3.690000e+00
   N5h  X3vq  1 4.700000e-01    3.880000e+00
   N5h  X4vq  1 4.700000e-01    4.060000e+00
   N5h  C1vq  1 4.700000e-01    3.240000e+00
   N5h  C2vq  1 4.700000e-01    3.390000e+00
   N5h  C3vq  1 4.700000e-01    3.520000e+00
   N5h  C4vq  1 4.700000e-01    3.520000e+00
   N5h  C5vq  1 4.700000e-01    3.690000e+00
   N5h  C6vq  1 4.700000e-01    3.880000e+00
   N5h  N1aq  1 4.700000e-01    3.690000e+00
   N5h  N2aq  1 4.700000e-01    3.880000e+00
   N5h  N3aq  1 4.700000e-01    3.880000e+00
   N5h  N4aq  1 4.700000e-01    4.060000e+00
   N5h  N5aq  1 4.700000e-01    4.060000e+00
  N6aq   N5h  1 4.700000e-01    4.250000e+00
  P1aq   N5h  1 4.700000e-01    4.060000e+00
  P2aq   N5h  1 4.700000e-01    4.060000e+00
  P3aq   N5h  1 4.700000e-01    3.880000e+00
  P4aq   N5h  1 4.700000e-01    3.880000e+00
  P5aq   N5h  1 4.700000e-01    3.880000e+00
  P6aq   N5h  1 4.700000e-01    3.880000e+00
   N5h  N1dq  1 4.700000e-01    3.690000e+00
   N5h  N2dq  1 4.700000e-01    3.880000e+00
   N5h  N3dq  1 4.700000e-01    3.880000e+00
   N5h  N4dq  1 4.700000e-01    4.060000e+00
   N5h  N5dq  1 4.700000e-01    4.060000e+00
  N6dq   N5h  1 4.700000e-01    4.250000e+00
  P1dq   N5h  1 4.700000e-01    4.060000e+00
  P2dq   N5h  1 4.700000e-01    4.060000e+00
  P3dq   N5h  1 4.700000e-01    3.880000e+00
  P4dq   N5h  1 4.700000e-01    3.880000e+00
  P5dq   N5h  1 4.700000e-01    3.880000e+00
  P6dq   N5h  1 4.700000e-01    3.880000e+00
   N5h   X1q  1 4.700000e-01    3.390000e+00
   N5h   X2q  1 4.700000e-01    3.520000e+00
   N5h   X3q  1 4.700000e-01    3.690000e+00
   N5h   X4q  1 4.700000e-01    3.880000e+00
   N5h   C1q  1 4.700000e-01    3.070000e+00
   N5h   C2q  1 4.700000e-01    3.240000e+00
   N5h   C3q  1 4.700000e-01    3.390000e+00
   N5h   C4q  1 4.700000e-01    3.390000e+00
   N5h   C5q  1 4.700000e-01    3.520000e+00
   N5h   C6q  1 4.700000e-01    3.690000e+00
   N5h   N1q  1 4.700000e-01    3.690000e+00
   N5h   N2q  1 4.700000e-01    3.880000e+00
   N5h   N3q  1 4.700000e-01    3.880000e+00
   N5h   N4q  1 4.700000e-01    4.060000e+00
   P6d   N4h  1 4.700000e-01    3.390000e+00
   P5d   N4h  1 4.700000e-01    3.520000e+00
   P4d   N4h  1 4.700000e-01    3.520000e+00
   P3d   N4h  1 4.700000e-01    3.520000e+00
   P2d   N4h  1 4.700000e-01    3.520000e+00
   P1d   N4h  1 4.700000e-01    3.690000e+00
   N6d   N4h  1 4.700000e-01    3.880000e+00
   N5d   N4h  1 4.700000e-01    3.690000e+00
   N4h   N4d  1 4.700000e-01    3.690000e+00
   N4h   N1d  1 4.700000e-01    3.390000e+00
   N4h   N2d  1 4.700000e-01    3.520000e+00
   N4h   N3d  1 4.700000e-01    3.520000e+00
   P6a   N4h  1 4.700000e-01    3.390000e+00
   P5a   N4h  1 4.700000e-01    3.520000e+00
   P4a   N4h  1 4.700000e-01    3.520000e+00
   P3a   N4h  1 4.700000e-01    3.520000e+00
   P2a   N4h  1 4.700000e-01    3.520000e+00
   P1a   N4h  1 4.700000e-01    3.690000e+00
   N6a   N4h  1 4.700000e-01    3.880000e+00
   N5a   N4h  1 4.700000e-01    3.690000e+00
   N4h   N4a  1 4.700000e-01    3.690000e+00
   N4h   N1a  1 4.700000e-01    3.390000e+00
   N4h   N2a  1 4.700000e-01    3.520000e+00
   N4h   N3a  1 4.700000e-01    3.520000e+00
   N4h   C6v  1 4.700000e-01    3.520000e+00
   N4h   C5v  1 4.700000e-01    3.390000e+00
   N4h   C4v  1 4.700000e-01    3.390000e+00
   N4h   C3v  1 4.700000e-01    3.240000e+00
   N4h   C2v  1 4.700000e-01    3.070000e+00
   N4h   C1v  1 4.700000e-01    2.960000e+00
   N4h   X4v  1 4.700000e-01    3.880000e+00
   N4h   X3v  1 4.700000e-01    3.690000e+00
   N4h   X2v  1 4.700000e-01    3.390000e+00
   N4h   X1v  1 4.700000e-01    3.240000e+00
   N4h   C6e  1 4.700000e-01    3.520000e+00
   N4h   C5e  1 4.700000e-01    3.390000e+00
   N4h   C4e  1 4.700000e-01    3.390000e+00
   N4h   C3e  1 4.700000e-01    3.240000e+00
   N4h   C2e  1 4.700000e-01    3.070000e+00
   N4h   C1e  1 4.700000e-01    2.960000e+00
   N4h   X4e  1 4.700000e-01    3.880000e+00
   N4h   X3e  1 4.700000e-01    3.690000e+00
   N4h   X2e  1 4.700000e-01    3.390000e+00
   N4h   X1e  1 4.700000e-01    3.240000e+00
   P6q   N4h  1 4.700000e-01    3.690000e+00
   P5q   N4h  1 4.700000e-01    3.880000e+00
   P4q   N4h  1 4.700000e-01    3.880000e+00
   P3q   N4h  1 4.700000e-01    3.880000e+00
   P2q   N4h  1 4.700000e-01    3.880000e+00
   P1q   N4h  1 4.700000e-01    4.060000e+00
   N6q   N4h  1 4.700000e-01    4.250000e+00
   N5q   N4h  1 4.700000e-01    4.060000e+00
   N4h   N4q  1 4.700000e-01    4.060000e+00
   N4h  X1eq  1 4.700000e-01    3.520000e+00
   N4h  X2eq  1 4.700000e-01    3.690000e+00
   N4h  X3eq  1 4.700000e-01    4.060000e+00
   N4h  X4eq  1 4.700000e-01    4.250000e+00
   N4h  C1eq  1 4.700000e-01    3.240000e+00
   N4h  C2eq  1 4.700000e-01    3.390000e+00
   N4h  C3eq  1 4.700000e-01    3.520000e+00
   N4h  C4eq  1 4.700000e-01    3.690000e+00
   N4h  C5eq  1 4.700000e-01    3.690000e+00
   N4h  C6eq  1 4.700000e-01    3.880000e+00
   N4h  X1vq  1 4.700000e-01    3.520000e+00
   N4h  X2vq  1 4.700000e-01    3.690000e+00
   N4h  X3vq  1 4.700000e-01    4.060000e+00
   N4h  X4vq  1 4.700000e-01    4.250000e+00
   N4h  C1vq  1 4.700000e-01    3.240000e+00
   N4h  C2vq  1 4.700000e-01    3.390000e+00
   N4h  C3vq  1 4.700000e-01    3.520000e+00
   N4h  C4vq  1 4.700000e-01    3.690000e+00
   N4h  C5vq  1 4.700000e-01    3.690000e+00
   N4h  C6vq  1 4.700000e-01    3.880000e+00
   N4h  N1aq  1 4.700000e-01    3.690000e+00
   N4h  N2aq  1 4.700000e-01    3.880000e+00
   N4h  N3aq  1 4.700000e-01    3.880000e+00
   N4h  N4aq  1 4.700000e-01    4.060000e+00
  N5aq   N4h  1 4.700000e-01    4.060000e+00
  N6aq   N4h  1 4.700000e-01    4.250000e+00
  P1aq   N4h  1 4.700000e-01    4.060000e+00
  P2aq   N4h  1 4.700000e-01    3.880000e+00
  P3aq   N4h  1 4.700000e-01    3.880000e+00
  P4aq   N4h  1 4.700000e-01    3.880000e+00
  P5aq   N4h  1 4.700000e-01    3.880000e+00
  P6aq   N4h  1 4.700000e-01    3.690000e+00
   N4h  N1dq  1 4.700000e-01    3.690000e+00
   N4h  N2dq  1 4.700000e-01    3.880000e+00
   N4h  N3dq  1 4.700000e-01    3.880000e+00
   N4h  N4dq  1 4.700000e-01    4.060000e+00
  N5dq   N4h  1 4.700000e-01    4.060000e+00
  N6dq   N4h  1 4.700000e-01    4.250000e+00
  P1dq   N4h  1 4.700000e-01    4.060000e+00
  P2dq   N4h  1 4.700000e-01    3.880000e+00
  P3dq   N4h  1 4.700000e-01    3.880000e+00
  P4dq   N4h  1 4.700000e-01    3.880000e+00
  P5dq   N4h  1 4.700000e-01    3.880000e+00
  P6dq   N4h  1 4.700000e-01    3.690000e+00
   N4h   X1q  1 4.700000e-01    3.390000e+00
   N4h   X2q  1 4.700000e-01    3.520000e+00
   N4h   X3q  1 4.700000e-01    3.880000e+00
   N4h   X4q  1 4.700000e-01    4.060000e+00
   N4h   C1q  1 4.700000e-01    3.070000e+00
   N4h   C2q  1 4.700000e-01    3.240000e+00
   N4h   C3q  1 4.700000e-01    3.390000e+00
   N4h   C4q  1 4.700000e-01    3.520000e+00
   N4h   C5q  1 4.700000e-01    3.520000e+00
   N4h   C6q  1 4.700000e-01    3.690000e+00
   N4h   N1q  1 4.700000e-01    3.690000e+00
   N4h   N2q  1 4.700000e-01    3.880000e+00
   N4h   N3q  1 4.700000e-01    3.880000e+00
   P6d   N3h  1 4.700000e-01    3.240000e+00
   P5d   N3h  1 4.700000e-01    3.240000e+00
   P4d   N3h  1 4.700000e-01    3.390000e+00
   P3d   N3h  1 4.700000e-01    3.390000e+00
   P2d   N3h  1 4.700000e-01    3.390000e+00
   P1d   N3h  1 4.700000e-01    3.390000e+00
   N6d   N3h  1 4.700000e-01    3.520000e+00
   N5d   N3h  1 4.700000e-01    3.520000e+00
   N4d   N3h  1 4.700000e-01    3.520000e+00
   N3h   N3d  1 4.700000e-01    3.520000e+00
   N3h   N1d  1 4.700000e-01    3.390000e+00
   N3h   N2d  1 4.700000e-01    3.520000e+00
   P6a   N3h  1 4.700000e-01    3.240000e+00
   P5a   N3h  1 4.700000e-01    3.240000e+00
   P4a   N3h  1 4.700000e-01    3.390000e+00
   P3a   N3h  1 4.700000e-01    3.390000e+00
   P2a   N3h  1 4.700000e-01    3.390000e+00
   P1a   N3h  1 4.700000e-01    3.390000e+00
   N6a   N3h  1 4.700000e-01    3.520000e+00
   N5a   N3h  1 4.700000e-01    3.520000e+00
   N4a   N3h  1 4.700000e-01    3.520000e+00
   N3h   N3a  1 4.700000e-01    3.520000e+00
   N3h   N1a  1 4.700000e-01    3.390000e+00
   N3h   N2a  1 4.700000e-01    3.520000e+00
   N3h   C6v  1 4.700000e-01    3.520000e+00
   N3h   C5v  1 4.700000e-01    3.390000e+00
   N3h   C4v  1 4.700000e-01    3.390000e+00
   N3h   C3v  1 4.700000e-01    3.240000e+00
   N3h   C2v  1 4.700000e-01    3.240000e+00
   N3h   C1v  1 4.700000e-01    3.070000e+00
   N3h   X4v  1 4.700000e-01    3.690000e+00
   N3h   X3v  1 4.700000e-01    3.520000e+00
   N3h   X2v  1 4.700000e-01    3.390000e+00
   N3h   X1v  1 4.700000e-01    3.390000e+00
   N3h   C6e  1 4.700000e-01    3.520000e+00
   N3h   C5e  1 4.700000e-01    3.390000e+00
   N3h   C4e  1 4.700000e-01    3.390000e+00
   N3h   C3e  1 4.700000e-01    3.240000e+00
   N3h   C2e  1 4.700000e-01    3.240000e+00
   N3h   C1e  1 4.700000e-01    3.070000e+00
   N3h   X4e  1 4.700000e-01    3.690000e+00
   N3h   X3e  1 4.700000e-01    3.520000e+00
   N3h   X2e  1 4.700000e-01    3.390000e+00
   N3h   X1e  1 4.700000e-01    3.390000e+00
   P6q   N3h  1 4.700000e-01    3.520000e+00
   P5q   N3h  1 4.700000e-01    3.520000e+00
   P4q   N3h  1 4.700000e-01    3.690000e+00
   P3q   N3h  1 4.700000e-01    3.690000e+00
   P2q   N3h  1 4.700000e-01    3.690000e+00
   P1q   N3h  1 4.700000e-01    3.690000e+00
   N6q   N3h  1 4.700000e-01    3.880000e+00
   N5q   N3h  1 4.700000e-01    3.880000e+00
   N4q   N3h  1 4.700000e-01    3.880000e+00
   N3h   N3q  1 4.700000e-01    3.880000e+00
   N3h  X1eq  1 4.700000e-01    3.690000e+00
   N3h  X2eq  1 4.700000e-01    3.690000e+00
   N3h  X3eq  1 4.700000e-01    3.880000e+00
   N3h  X4eq  1 4.700000e-01    4.060000e+00
   N3h  C1eq  1 4.700000e-01    3.390000e+00
   N3h  C2eq  1 4.700000e-01    3.520000e+00
   N3h  C3eq  1 4.700000e-01    3.520000e+00
   N3h  C4eq  1 4.700000e-01    3.690000e+00
   N3h  C5eq  1 4.700000e-01    3.690000e+00
   N3h  C6eq  1 4.700000e-01    3.880000e+00
   N3h  X1vq  1 4.700000e-01    3.690000e+00
   N3h  X2vq  1 4.700000e-01    3.690000e+00
   N3h  X3vq  1 4.700000e-01    3.880000e+00
   N3h  X4vq  1 4.700000e-01    4.060000e+00
   N3h  C1vq  1 4.700000e-01    3.390000e+00
   N3h  C2vq  1 4.700000e-01    3.520000e+00
   N3h  C3vq  1 4.700000e-01    3.520000e+00
   N3h  C4vq  1 4.700000e-01    3.690000e+00
   N3h  C5vq  1 4.700000e-01    3.690000e+00
   N3h  C6vq  1 4.700000e-01    3.880000e+00
   N3h  N1aq  1 4.700000e-01    3.690000e+00
   N3h  N2aq  1 4.700000e-01    3.880000e+00
   N3h  N3aq  1 4.700000e-01    3.880000e+00
  N4aq   N3h  1 4.700000e-01    3.880000e+00
  N5aq   N3h  1 4.700000e-01    3.880000e+00
  N6aq   N3h  1 4.700000e-01    3.880000e+00
  P1aq   N3h  1 4.700000e-01    3.690000e+00
  P2aq   N3h  1 4.700000e-01    3.690000e+00
  P3aq   N3h  1 4.700000e-01    3.690000e+00
  P4aq   N3h  1 4.700000e-01    3.690000e+00
  P5aq   N3h  1 4.700000e-01    3.520000e+00
  P6aq   N3h  1 4.700000e-01    3.520000e+00
   N3h  N1dq  1 4.700000e-01    3.690000e+00
   N3h  N2dq  1 4.700000e-01    3.880000e+00
   N3h  N3dq  1 4.700000e-01    3.880000e+00
  N4dq   N3h  1 4.700000e-01    3.880000e+00
  N5dq   N3h  1 4.700000e-01    3.880000e+00
  N6dq   N3h  1 4.700000e-01    3.880000e+00
  P1dq   N3h  1 4.700000e-01    3.690000e+00
  P2dq   N3h  1 4.700000e-01    3.690000e+00
  P3dq   N3h  1 4.700000e-01    3.690000e+00
  P4dq   N3h  1 4.700000e-01    3.690000e+00
  P5dq   N3h  1 4.700000e-01    3.520000e+00
  P6dq   N3h  1 4.700000e-01    3.520000e+00
   N3h   X1q  1 4.700000e-01    3.520000e+00
   N3h   X2q  1 4.700000e-01    3.520000e+00
   N3h   X3q  1 4.700000e-01    3.690000e+00
   N3h   X4q  1 4.700000e-01    3.880000e+00
   N3h   C1q  1 4.700000e-01    3.240000e+00
   N3h   C2q  1 4.700000e-01    3.390000e+00
   N3h   C3q  1 4.700000e-01    3.390000e+00
   N3h   C4q  1 4.700000e-01    3.520000e+00
   N3h   C5q  1 4.700000e-01    3.520000e+00
   N3h   C6q  1 4.700000e-01    3.690000e+00
   N3h   N1q  1 4.700000e-01    3.690000e+00
   N3h   N2q  1 4.700000e-01    3.880000e+00
   P6d   N2h  1 4.700000e-01    3.070000e+00
   P5d   N2h  1 4.700000e-01    3.070000e+00
   P4d   N2h  1 4.700000e-01    3.240000e+00
   P3d   N2h  1 4.700000e-01    3.390000e+00
   P2d   N2h  1 4.700000e-01    3.390000e+00
   P1d   N2h  1 4.700000e-01    3.390000e+00
   N6d   N2h  1 4.700000e-01    3.390000e+00
   N5d   N2h  1 4.700000e-01    3.520000e+00
   N4d   N2h  1 4.700000e-01    3.520000e+00
   N3d   N2h  1 4.700000e-01    3.520000e+00
   N2h   N2d  1 4.700000e-01    3.520000e+00
   N2h   N1d  1 4.700000e-01    3.390000e+00
   P6a   N2h  1 4.700000e-01    3.070000e+00
   P5a   N2h  1 4.700000e-01    3.070000e+00
   P4a   N2h  1 4.700000e-01    3.240000e+00
   P3a   N2h  1 4.700000e-01    3.390000e+00
   P2a   N2h  1 4.700000e-01    3.390000e+00
   P1a   N2h  1 4.700000e-01    3.390000e+00
   N6a   N2h  1 4.700000e-01    3.390000e+00
   N5a   N2h  1 4.700000e-01    3.520000e+00
   N4a   N2h  1 4.700000e-01    3.520000e+00
   N3a   N2h  1 4.700000e-01    3.520000e+00
   N2h   N2a  1 4.700000e-01    3.520000e+00
   N2h   N1a  1 4.700000e-01    3.390000e+00
   N2h   C6v  1 4.700000e-01    3.520000e+00
   N2h   C5v  1 4.700000e-01    3.390000e+00
   N2h   C4v  1 4.700000e-01    3.390000e+00
   N2h   C3v  1 4.700000e-01    3.390000e+00
   N2h   C2v  1 4.700000e-01    3.240000e+00
   N2h   C1v  1 4.700000e-01    3.070000e+00
   N2h   X4v  1 4.700000e-01    3.690000e+00
   N2h   X3v  1 4.700000e-01    3.520000e+00
   N2h   X2v  1 4.700000e-01    3.390000e+00
   N2h   X1v  1 4.700000e-01    3.390000e+00
   N2h   C6e  1 4.700000e-01    3.520000e+00
   N2h   C5e  1 4.700000e-01    3.390000e+00
   N2h   C4e  1 4.700000e-01    3.390000e+00
   N2h   C3e  1 4.700000e-01    3.390000e+00
   N2h   C2e  1 4.700000e-01    3.240000e+00
   N2h   C1e  1 4.700000e-01    3.070000e+00
   N2h   X4e  1 4.700000e-01    3.690000e+00
   N2h   X3e  1 4.700000e-01    3.520000e+00
   N2h   X2e  1 4.700000e-01    3.390000e+00
   N2h   X1e  1 4.700000e-01    3.390000e+00
   P6q   N2h  1 4.700000e-01    3.390000e+00
   P5q   N2h  1 4.700000e-01    3.390000e+00
   P4q   N2h  1 4.700000e-01    3.520000e+00
   P3q   N2h  1 4.700000e-01    3.690000e+00
   P2q   N2h  1 4.700000e-01    3.690000e+00
   P1q   N2h  1 4.700000e-01    3.690000e+00
   N6q   N2h  1 4.700000e-01    3.690000e+00
   N5q   N2h  1 4.700000e-01    3.880000e+00
   N4q   N2h  1 4.700000e-01    3.880000e+00
   N3q   N2h  1 4.700000e-01    3.880000e+00
   N2h   N2q  1 4.700000e-01    3.880000e+00
   N2h  X1eq  1 4.700000e-01    3.690000e+00
   N2h  X2eq  1 4.700000e-01    3.690000e+00
   N2h  X3eq  1 4.700000e-01    3.880000e+00
   N2h  X4eq  1 4.700000e-01    4.060000e+00
   N2h  C1eq  1 4.700000e-01    3.390000e+00
   N2h  C2eq  1 4.700000e-01    3.520000e+00
   N2h  C3eq  1 4.700000e-01    3.690000e+00
   N2h  C4eq  1 4.700000e-01    3.690000e+00
   N2h  C5eq  1 4.700000e-01    3.690000e+00
   N2h  C6eq  1 4.700000e-01    3.880000e+00
   N2h  X1vq  1 4.700000e-01    3.690000e+00
   N2h  X2vq  1 4.700000e-01    3.690000e+00
   N2h  X3vq  1 4.700000e-01    3.880000e+00
   N2h  X4vq  1 4.700000e-01    4.060000e+00
   N2h  C1vq  1 4.700000e-01    3.390000e+00
   N2h  C2vq  1 4.700000e-01    3.520000e+00
   N2h  C3vq  1 4.700000e-01    3.690000e+00
   N2h  C4vq  1 4.700000e-01    3.690000e+00
   N2h  C5vq  1 4.700000e-01    3.690000e+00
   N2h  C6vq  1 4.700000e-01    3.880000e+00
   N2h  N1aq  1 4.700000e-01    3.690000e+00
   N2h  N2aq  1 4.700000e-01    3.880000e+00
  N3aq   N2h  1 4.700000e-01    3.880000e+00
  N4aq   N2h  1 4.700000e-01    3.880000e+00
  N5aq   N2h  1 4.700000e-01    3.880000e+00
  N6aq   N2h  1 4.700000e-01    3.690000e+00
  P1aq   N2h  1 4.700000e-01    3.690000e+00
  P2aq   N2h  1 4.700000e-01    3.690000e+00
  P3aq   N2h  1 4.700000e-01    3.690000e+00
  P4aq   N2h  1 4.700000e-01    3.520000e+00
  P5aq   N2h  1 4.700000e-01    3.390000e+00
  P6aq   N2h  1 4.700000e-01    3.390000e+00
   N2h  N1dq  1 4.700000e-01    3.690000e+00
   N2h  N2dq  1 4.700000e-01    3.880000e+00
  N3dq   N2h  1 4.700000e-01    3.880000e+00
  N4dq   N2h  1 4.700000e-01    3.880000e+00
  N5dq   N2h  1 4.700000e-01    3.880000e+00
  N6dq   N2h  1 4.700000e-01    3.690000e+00
  P1dq   N2h  1 4.700000e-01    3.690000e+00
  P2dq   N2h  1 4.700000e-01    3.690000e+00
  P3dq   N2h  1 4.700000e-01    3.690000e+00
  P4dq   N2h  1 4.700000e-01    3.520000e+00
  P5dq   N2h  1 4.700000e-01    3.390000e+00
  P6dq   N2h  1 4.700000e-01    3.390000e+00
   N2h   X1q  1 4.700000e-01    3.520000e+00
   N2h   X2q  1 4.700000e-01    3.520000e+00
   N2h   X3q  1 4.700000e-01    3.690000e+00
   N2h   X4q  1 4.700000e-01    3.880000e+00
   N2h   C1q  1 4.700000e-01    3.240000e+00
   N2h   C2q  1 4.700000e-01    3.390000e+00
   N2h   C3q  1 4.700000e-01    3.520000e+00
   N2h   C4q  1 4.700000e-01    3.520000e+00
   N2h   C5q  1 4.700000e-01    3.520000e+00
   N2h   C6q  1 4.700000e-01    3.690000e+00
   N2h   N1q  1 4.700000e-01    3.690000e+00
   P6d   N1h  1 4.700000e-01    2.960000e+00
   P5d   N1h  1 4.700000e-01    2.960000e+00
   P4d   N1h  1 4.700000e-01    3.070000e+00
   P3d   N1h  1 4.700000e-01    3.240000e+00
   P2d   N1h  1 4.700000e-01    3.390000e+00
   P1d   N1h  1 4.700000e-01    3.390000e+00
   N6d   N1h  1 4.700000e-01    3.390000e+00
   N5d   N1h  1 4.700000e-01    3.390000e+00
   N4d   N1h  1 4.700000e-01    3.390000e+00
   N3d   N1h  1 4.700000e-01    3.390000e+00
   N2d   N1h  1 4.700000e-01    3.390000e+00
   N1h   N1d  1 4.700000e-01    3.520000e+00
   P6a   N1h  1 4.700000e-01    2.960000e+00
   P5a   N1h  1 4.700000e-01    2.960000e+00
   P4a   N1h  1 4.700000e-01    3.070000e+00
   P3a   N1h  1 4.700000e-01    3.240000e+00
   P2a   N1h  1 4.700000e-01    3.390000e+00
   P1a   N1h  1 4.700000e-01    3.390000e+00
   N6a   N1h  1 4.700000e-01    3.390000e+00
   N5a   N1h  1 4.700000e-01    3.390000e+00
   N4a   N1h  1 4.700000e-01    3.390000e+00
   N3a   N1h  1 4.700000e-01    3.390000e+00
   N2a   N1h  1 4.700000e-01    3.390000e+00
   N1h   N1a  1 4.700000e-01    3.520000e+00
   N1h   C6v  1 4.700000e-01    3.690000e+00
   N1h   C5v  1 4.700000e-01    3.520000e+00
   N1h   C4v  1 4.700000e-01    3.520000e+00
   N1h   C3v  1 4.700000e-01    3.390000e+00
   N1h   C2v  1 4.700000e-01    3.240000e+00
   N1h   C1v  1 4.700000e-01    3.070000e+00
   N1h   X4v  1 4.700000e-01    3.520000e+00
   N1h   X3v  1 4.700000e-01    3.520000e+00
   N1h   X2v  1 4.700000e-01    3.390000e+00
   N1h   X1v  1 4.700000e-01    3.390000e+00
   N1h   C6e  1 4.700000e-01    3.690000e+00
   N1h   C5e  1 4.700000e-01    3.520000e+00
   N1h   C4e  1 4.700000e-01    3.520000e+00
   N1h   C3e  1 4.700000e-01    3.390000e+00
   N1h   C2e  1 4.700000e-01    3.240000e+00
   N1h   C1e  1 4.700000e-01    3.070000e+00
   N1h   X4e  1 4.700000e-01    3.520000e+00
   N1h   X3e  1 4.700000e-01    3.520000e+00
   N1h   X2e  1 4.700000e-01    3.390000e+00
   N1h   X1e  1 4.700000e-01    3.390000e+00
   P6q   N1h  1 4.700000e-01    3.240000e+00
   P5q   N1h  1 4.700000e-01    3.240000e+00
   P4q   N1h  1 4.700000e-01    3.390000e+00
   P3q   N1h  1 4.700000e-01    3.520000e+00
   P2q   N1h  1 4.700000e-01    3.690000e+00
   P1q   N1h  1 4.700000e-01    3.690000e+00
   N6q   N1h  1 4.700000e-01    3.690000e+00
   N5q   N1h  1 4.700000e-01    3.690000e+00
   N4q   N1h  1 4.700000e-01    3.690000e+00
   N3q   N1h  1 4.700000e-01    3.690000e+00
   N2q   N1h  1 4.700000e-01    3.690000e+00
   N1h   N1q  1 4.700000e-01    3.880000e+00
   N1h  X1eq  1 4.700000e-01    3.690000e+00
   N1h  X2eq  1 4.700000e-01    3.690000e+00
   N1h  X3eq  1 4.700000e-01    3.880000e+00
   N1h  X4eq  1 4.700000e-01    3.880000e+00
   N1h  C1eq  1 4.700000e-01    3.390000e+00
   N1h  C2eq  1 4.700000e-01    3.520000e+00
   N1h  C3eq  1 4.700000e-01    3.690000e+00
   N1h  C4eq  1 4.700000e-01    3.880000e+00
   N1h  C5eq  1 4.700000e-01    3.880000e+00
   N1h  C6eq  1 4.700000e-01    4.060000e+00
   N1h  X1vq  1 4.700000e-01    3.690000e+00
   N1h  X2vq  1 4.700000e-01    3.690000e+00
   N1h  X3vq  1 4.700000e-01    3.880000e+00
   N1h  X4vq  1 4.700000e-01    3.880000e+00
   N1h  C1vq  1 4.700000e-01    3.390000e+00
   N1h  C2vq  1 4.700000e-01    3.520000e+00
   N1h  C3vq  1 4.700000e-01    3.690000e+00
   N1h  C4vq  1 4.700000e-01    3.880000e+00
   N1h  C5vq  1 4.700000e-01    3.880000e+00
   N1h  C6vq  1 4.700000e-01    4.060000e+00
   N1h  N1aq  1 4.700000e-01    3.880000e+00
  N2aq   N1h  1 4.700000e-01    3.690000e+00
  N3aq   N1h  1 4.700000e-01    3.690000e+00
  N4aq   N1h  1 4.700000e-01    3.690000e+00
  N5aq   N1h  1 4.700000e-01    3.690000e+00
  N6aq   N1h  1 4.700000e-01    3.690000e+00
  P1aq   N1h  1 4.700000e-01    3.690000e+00
  P2aq   N1h  1 4.700000e-01    3.690000e+00
  P3aq   N1h  1 4.700000e-01    3.520000e+00
  P4aq   N1h  1 4.700000e-01    3.390000e+00
  P5aq   N1h  1 4.700000e-01    3.240000e+00
  P6aq   N1h  1 4.700000e-01    3.240000e+00
   N1h  N1dq  1 4.700000e-01    3.880000e+00
  N2dq   N1h  1 4.700000e-01    3.690000e+00
  N3dq   N1h  1 4.700000e-01    3.690000e+00
  N4dq   N1h  1 4.700000e-01    3.690000e+00
  N5dq   N1h  1 4.700000e-01    3.690000e+00
  N6dq   N1h  1 4.700000e-01    3.690000e+00
  P1dq   N1h  1 4.700000e-01    3.690000e+00
  P2dq   N1h  1 4.700000e-01    3.690000e+00
  P3dq   N1h  1 4.700000e-01    3.520000e+00
  P4dq   N1h  1 4.700000e-01    3.390000e+00
  P5dq   N1h  1 4.700000e-01    3.240000e+00
  P6dq   N1h  1 4.700000e-01    3.240000e+00
   N1h   X1q  1 4.700000e-01    3.520000e+00
   N1h   X2q  1 4.700000e-01    3.520000e+00
   N1h   X3q  1 4.700000e-01    3.690000e+00
   N1h   X4q  1 4.700000e-01    3.690000e+00
   N1h   C1q  1 4.700000e-01    3.240000e+00
   N1h   C2q  1 4.700000e-01    3.390000e+00
   N1h   C3q  1 4.700000e-01    3.520000e+00
   N1h   C4q  1 4.700000e-01    3.690000e+00
   N1h   C5q  1 4.700000e-01    3.690000e+00
   N1h   C6q  1 4.700000e-01    3.880000e+00
   P6d   C6h  1 4.700000e-01    2.960000e+00
   P5d   C6h  1 4.700000e-01    2.960000e+00
   P4d   C6h  1 4.700000e-01    3.070000e+00
   P3d   C6h  1 4.700000e-01    3.240000e+00
   P2d   C6h  1 4.700000e-01    3.240000e+00
   P1d   C6h  1 4.700000e-01    3.240000e+00
   N6d   C6h  1 4.700000e-01    3.390000e+00
   N5d   C6h  1 4.700000e-01    3.390000e+00
   N4d   C6h  1 4.700000e-01    3.390000e+00
   N3d   C6h  1 4.700000e-01    3.390000e+00
   N2d   C6h  1 4.700000e-01    3.390000e+00
   N1d   C6h  1 4.700000e-01    3.520000e+00
   P6a   C6h  1 4.700000e-01    2.960000e+00
   P5a   C6h  1 4.700000e-01    2.960000e+00
   P4a   C6h  1 4.700000e-01    3.070000e+00
   P3a   C6h  1 4.700000e-01    3.240000e+00
   P2a   C6h  1 4.700000e-01    3.240000e+00
   P1a   C6h  1 4.700000e-01    3.240000e+00
   N6a   C6h  1 4.700000e-01    3.390000e+00
   N5a   C6h  1 4.700000e-01    3.390000e+00
   N4a   C6h  1 4.700000e-01    3.390000e+00
   N3a   C6h  1 4.700000e-01    3.390000e+00
   N2a   C6h  1 4.700000e-01    3.390000e+00
   N1a   C6h  1 4.700000e-01    3.520000e+00
   C6h   C6v  1 4.700000e-01    3.690000e+00
   C6h   X1v  1 4.700000e-01    3.520000e+00
   C6h   X2v  1 4.700000e-01    3.520000e+00
   C6h   X3v  1 4.700000e-01    3.520000e+00
   C6h   X4v  1 4.700000e-01    3.520000e+00
   C6h   C1v  1 4.700000e-01    3.070000e+00
   C6h   C2v  1 4.700000e-01    3.240000e+00
   C6h   C3v  1 4.700000e-01    3.390000e+00
   C6h   C4v  1 4.700000e-01    3.520000e+00
   C6h   C5v  1 4.700000e-01    3.520000e+00
   C6h   C6e  1 4.700000e-01    3.690000e+00
   C6h   X1e  1 4.700000e-01    3.520000e+00
   C6h   X2e  1 4.700000e-01    3.520000e+00
   C6h   X3e  1 4.700000e-01    3.520000e+00
   C6h   X4e  1 4.700000e-01    3.520000e+00
   C6h   C1e  1 4.700000e-01    3.070000e+00
   C6h   C2e  1 4.700000e-01    3.240000e+00
   C6h   C3e  1 4.700000e-01    3.390000e+00
   C6h   C4e  1 4.700000e-01    3.520000e+00
   C6h   C5e  1 4.700000e-01    3.520000e+00
   P6q   C6h  1 4.700000e-01    3.240000e+00
   P5q   C6h  1 4.700000e-01    3.240000e+00
   P4q   C6h  1 4.700000e-01    3.390000e+00
   P3q   C6h  1 4.700000e-01    3.520000e+00
   P2q   C6h  1 4.700000e-01    3.520000e+00
   P1q   C6h  1 4.700000e-01    3.520000e+00
   N6q   C6h  1 4.700000e-01    3.690000e+00
   N5q   C6h  1 4.700000e-01    3.690000e+00
   N4q   C6h  1 4.700000e-01    3.690000e+00
   N3q   C6h  1 4.700000e-01    3.690000e+00
   N2q   C6h  1 4.700000e-01    3.690000e+00
   N1q   C6h  1 4.700000e-01    3.880000e+00
   C6h   C6q  1 4.700000e-01    3.880000e+00
   C6h  X1eq  1 4.700000e-01    3.880000e+00
   C6h  X2eq  1 4.700000e-01    3.880000e+00
   C6h  X3eq  1 4.700000e-01    3.880000e+00
   C6h  X4eq  1 4.700000e-01    3.880000e+00
   C6h  C1eq  1 4.700000e-01    3.390000e+00
   C6h  C2eq  1 4.700000e-01    3.520000e+00
   C6h  C3eq  1 4.700000e-01    3.690000e+00
   C6h  C4eq  1 4.700000e-01    3.880000e+00
   C6h  C5eq  1 4.700000e-01    3.880000e+00
   C6h  C6eq  1 4.700000e-01    4.060000e+00
   C6h  X1vq  1 4.700000e-01    3.880000e+00
   C6h  X2vq  1 4.700000e-01    3.880000e+00
   C6h  X3vq  1 4.700000e-01    3.880000e+00
   C6h  X4vq  1 4.700000e-01    3.880000e+00
   C6h  C1vq  1 4.700000e-01    3.390000e+00
   C6h  C2vq  1 4.700000e-01    3.520000e+00
   C6h  C3vq  1 4.700000e-01    3.690000e+00
   C6h  C4vq  1 4.700000e-01    3.880000e+00
   C6h  C5vq  1 4.700000e-01    3.880000e+00
   C6h  C6vq  1 4.700000e-01    4.060000e+00
  N1aq   C6h  1 4.700000e-01    3.880000e+00
  N2aq   C6h  1 4.700000e-01    3.690000e+00
  N3aq   C6h  1 4.700000e-01    3.690000e+00
  N4aq   C6h  1 4.700000e-01    3.690000e+00
  N5aq   C6h  1 4.700000e-01    3.690000e+00
  N6aq   C6h  1 4.700000e-01    3.690000e+00
  P1aq   C6h  1 4.700000e-01    3.520000e+00
  P2aq   C6h  1 4.700000e-01    3.520000e+00
  P3aq   C6h  1 4.700000e-01    3.520000e+00
  P4aq   C6h  1 4.700000e-01    3.390000e+00
  P5aq   C6h  1 4.700000e-01    3.240000e+00
  P6aq   C6h  1 4.700000e-01    3.240000e+00
  N1dq   C6h  1 4.700000e-01    3.880000e+00
  N2dq   C6h  1 4.700000e-01    3.690000e+00
  N3dq   C6h  1 4.700000e-01    3.690000e+00
  N4dq   C6h  1 4.700000e-01    3.690000e+00
  N5dq   C6h  1 4.700000e-01    3.690000e+00
  N6dq   C6h  1 4.700000e-01    3.690000e+00
  P1dq   C6h  1 4.700000e-01    3.520000e+00
  P2dq   C6h  1 4.700000e-01    3.520000e+00
  P3dq   C6h  1 4.700000e-01    3.520000e+00
  P4dq   C6h  1 4.700000e-01    3.390000e+00
  P5dq   C6h  1 4.700000e-01    3.240000e+00
  P6dq   C6h  1 4.700000e-01    3.240000e+00
   C6h   X1q  1 4.700000e-01    3.690000e+00
   C6h   X2q  1 4.700000e-01    3.690000e+00
   C6h   X3q  1 4.700000e-01    3.690000e+00
   C6h   X4q  1 4.700000e-01    3.690000e+00
   C6h   C1q  1 4.700000e-01    3.240000e+00
   C6h   C2q  1 4.700000e-01    3.390000e+00
   C6h   C3q  1 4.700000e-01    3.520000e+00
   C6h   C4q  1 4.700000e-01    3.690000e+00
   C6h   C5q  1 4.700000e-01    3.690000e+00
   P6d   C5h  1 4.700000e-01    2.790000e+00
   P5d   C5h  1 4.700000e-01    2.960000e+00
   P4d   C5h  1 4.700000e-01    2.960000e+00
   P3d   C5h  1 4.700000e-01    3.070000e+00
   P2d   C5h  1 4.700000e-01    3.070000e+00
   P1d   C5h  1 4.700000e-01    3.070000e+00
   N6d   C5h  1 4.700000e-01    3.240000e+00
   N5d   C5h  1 4.700000e-01    3.240000e+00
   N4d   C5h  1 4.700000e-01    3.240000e+00
   N3d   C5h  1 4.700000e-01    3.240000e+00
   N2d   C5h  1 4.700000e-01    3.240000e+00
   N1d   C5h  1 4.700000e-01    3.390000e+00
   P6a   C5h  1 4.700000e-01    2.790000e+00
   P5a   C5h  1 4.700000e-01    2.960000e+00
   P4a   C5h  1 4.700000e-01    2.960000e+00
   P3a   C5h  1 4.700000e-01    3.070000e+00
   P2a   C5h  1 4.700000e-01    3.070000e+00
   P1a   C5h  1 4.700000e-01    3.070000e+00
   N6a   C5h  1 4.700000e-01    3.240000e+00
   N5a   C5h  1 4.700000e-01    3.240000e+00
   N4a   C5h  1 4.700000e-01    3.240000e+00
   N3a   C5h  1 4.700000e-01    3.240000e+00
   N2a   C5h  1 4.700000e-01    3.240000e+00
   N1a   C5h  1 4.700000e-01    3.390000e+00
   C6v   C5h  1 4.700000e-01    3.520000e+00
   C5h   C5v  1 4.700000e-01    3.520000e+00
   C5h   X1v  1 4.700000e-01    3.520000e+00
   C5h   X2v  1 4.700000e-01    3.390000e+00
   C5h   X3v  1 4.700000e-01    3.390000e+00
   C5h   X4v  1 4.700000e-01    3.390000e+00
   C5h   C1v  1 4.700000e-01    3.240000e+00
   C5h   C2v  1 4.700000e-01    3.240000e+00
   C5h   C3v  1 4.700000e-01    3.390000e+00
   C5h   C4v  1 4.700000e-01    3.520000e+00
   C6e   C5h  1 4.700000e-01    3.520000e+00
   C5h   C5e  1 4.700000e-01    3.520000e+00
   C5h   X1e  1 4.700000e-01    3.520000e+00
   C5h   X2e  1 4.700000e-01    3.390000e+00
   C5h   X3e  1 4.700000e-01    3.390000e+00
   C5h   X4e  1 4.700000e-01    3.390000e+00
   C5h   C1e  1 4.700000e-01    3.240000e+00
   C5h   C2e  1 4.700000e-01    3.240000e+00
   C5h   C3e  1 4.700000e-01    3.390000e+00
   C5h   C4e  1 4.700000e-01    3.520000e+00
   P6q   C5h  1 4.700000e-01    3.070000e+00
   P5q   C5h  1 4.700000e-01    3.240000e+00
   P4q   C5h  1 4.700000e-01    3.240000e+00
   P3q   C5h  1 4.700000e-01    3.390000e+00
   P2q   C5h  1 4.700000e-01    3.390000e+00
   P1q   C5h  1 4.700000e-01    3.390000e+00
   N6q   C5h  1 4.700000e-01    3.520000e+00
   N5q   C5h  1 4.700000e-01    3.520000e+00
   N4q   C5h  1 4.700000e-01    3.520000e+00
   N3q   C5h  1 4.700000e-01    3.520000e+00
   N2q   C5h  1 4.700000e-01    3.520000e+00
   N1q   C5h  1 4.700000e-01    3.690000e+00
   C6q   C5h  1 4.700000e-01    3.690000e+00
   C5h   C5q  1 4.700000e-01    3.690000e+00
   C5h  X1eq  1 4.700000e-01    3.880000e+00
   C5h  X2eq  1 4.700000e-01    3.690000e+00
   C5h  X3eq  1 4.700000e-01    3.690000e+00
   C5h  X4eq  1 4.700000e-01    3.690000e+00
   C5h  C1eq  1 4.700000e-01    3.520000e+00
   C5h  C2eq  1 4.700000e-01    3.520000e+00
   C5h  C3eq  1 4.700000e-01    3.690000e+00
   C5h  C4eq  1 4.700000e-01    3.880000e+00
   C5h  C5eq  1 4.700000e-01    3.880000e+00
  C6eq   C5h  1 4.700000e-01    3.880000e+00
   C5h  X1vq  1 4.700000e-01    3.880000e+00
   C5h  X2vq  1 4.700000e-01    3.690000e+00
   C5h  X3vq  1 4.700000e-01    3.690000e+00
   C5h  X4vq  1 4.700000e-01    3.690000e+00
   C5h  C1vq  1 4.700000e-01    3.520000e+00
   C5h  C2vq  1 4.700000e-01    3.520000e+00
   C5h  C3vq  1 4.700000e-01    3.690000e+00
   C5h  C4vq  1 4.700000e-01    3.880000e+00
   C5h  C5vq  1 4.700000e-01    3.880000e+00
  C6vq   C5h  1 4.700000e-01    3.880000e+00
  N1aq   C5h  1 4.700000e-01    3.690000e+00
  N2aq   C5h  1 4.700000e-01    3.520000e+00
  N3aq   C5h  1 4.700000e-01    3.520000e+00
  N4aq   C5h  1 4.700000e-01    3.520000e+00
  N5aq   C5h  1 4.700000e-01    3.520000e+00
  N6aq   C5h  1 4.700000e-01    3.520000e+00
  P1aq   C5h  1 4.700000e-01    3.390000e+00
  P2aq   C5h  1 4.700000e-01    3.390000e+00
  P3aq   C5h  1 4.700000e-01    3.390000e+00
  P4aq   C5h  1 4.700000e-01    3.240000e+00
  P5aq   C5h  1 4.700000e-01    3.240000e+00
  P6aq   C5h  1 4.700000e-01    3.070000e+00
  N1dq   C5h  1 4.700000e-01    3.690000e+00
  N2dq   C5h  1 4.700000e-01    3.520000e+00
  N3dq   C5h  1 4.700000e-01    3.520000e+00
  N4dq   C5h  1 4.700000e-01    3.520000e+00
  N5dq   C5h  1 4.700000e-01    3.520000e+00
  N6dq   C5h  1 4.700000e-01    3.520000e+00
  P1dq   C5h  1 4.700000e-01    3.390000e+00
  P2dq   C5h  1 4.700000e-01    3.390000e+00
  P3dq   C5h  1 4.700000e-01    3.390000e+00
  P4dq   C5h  1 4.700000e-01    3.240000e+00
  P5dq   C5h  1 4.700000e-01    3.240000e+00
  P6dq   C5h  1 4.700000e-01    3.070000e+00
   C5h   X1q  1 4.700000e-01    3.690000e+00
   C5h   X2q  1 4.700000e-01    3.520000e+00
   C5h   X3q  1 4.700000e-01    3.520000e+00
   C5h   X4q  1 4.700000e-01    3.520000e+00
   C5h   C1q  1 4.700000e-01    3.390000e+00
   C5h   C2q  1 4.700000e-01    3.390000e+00
   C5h   C3q  1 4.700000e-01    3.520000e+00
   C5h   C4q  1 4.700000e-01    3.690000e+00
   P6d   C4h  1 4.700000e-01    2.620000e+00
   P5d   C4h  1 4.700000e-01    2.790000e+00
   P4d   C4h  1 4.700000e-01    2.790000e+00
   P3d   C4h  1 4.700000e-01    2.960000e+00
   P2d   C4h  1 4.700000e-01    2.960000e+00
   P1d   C4h  1 4.700000e-01    2.960000e+00
   N6d   C4h  1 4.700000e-01    3.070000e+00
   N5d   C4h  1 4.700000e-01    3.070000e+00
   N4d   C4h  1 4.700000e-01    3.240000e+00
   N3d   C4h  1 4.700000e-01    3.240000e+00
   N2d   C4h  1 4.700000e-01    3.240000e+00
   N1d   C4h  1 4.700000e-01    3.390000e+00
   P6a   C4h  1 4.700000e-01    2.620000e+00
   P5a   C4h  1 4.700000e-01    2.790000e+00
   P4a   C4h  1 4.700000e-01    2.790000e+00
   P3a   C4h  1 4.700000e-01    2.960000e+00
   P2a   C4h  1 4.700000e-01    2.960000e+00
   P1a   C4h  1 4.700000e-01    2.960000e+00
   N6a   C4h  1 4.700000e-01    3.070000e+00
   N5a   C4h  1 4.700000e-01    3.070000e+00
   N4a   C4h  1 4.700000e-01    3.240000e+00
   N3a   C4h  1 4.700000e-01    3.240000e+00
   N2a   C4h  1 4.700000e-01    3.240000e+00
   N1a   C4h  1 4.700000e-01    3.390000e+00
   C6v   C4h  1 4.700000e-01    3.520000e+00
   C5v   C4h  1 4.700000e-01    3.520000e+00
   C4h   C4v  1 4.700000e-01    3.520000e+00
   C4h   X1v  1 4.700000e-01    3.520000e+00
   C4h   X2v  1 4.700000e-01    3.390000e+00
   C4h   X3v  1 4.700000e-01    3.390000e+00
   C4h   X4v  1 4.700000e-01    3.390000e+00
   C4h   C1v  1 4.700000e-01    3.240000e+00
   C4h   C2v  1 4.700000e-01    3.390000e+00
   C4h   C3v  1 4.700000e-01    3.520000e+00
   C6e   C4h  1 4.700000e-01    3.520000e+00
   C5e   C4h  1 4.700000e-01    3.520000e+00
   C4h   C4e  1 4.700000e-01    3.520000e+00
   C4h   X1e  1 4.700000e-01    3.520000e+00
   C4h   X2e  1 4.700000e-01    3.390000e+00
   C4h   X3e  1 4.700000e-01    3.390000e+00
   C4h   X4e  1 4.700000e-01    3.390000e+00
   C4h   C1e  1 4.700000e-01    3.240000e+00
   C4h   C2e  1 4.700000e-01    3.390000e+00
   C4h   C3e  1 4.700000e-01    3.520000e+00
   P6q   C4h  1 4.700000e-01    2.960000e+00
   P5q   C4h  1 4.700000e-01    3.070000e+00
   P4q   C4h  1 4.700000e-01    3.070000e+00
   P3q   C4h  1 4.700000e-01    3.240000e+00
   P2q   C4h  1 4.700000e-01    3.240000e+00
   P1q   C4h  1 4.700000e-01    3.240000e+00
   N6q   C4h  1 4.700000e-01    3.390000e+00
   N5q   C4h  1 4.700000e-01    3.390000e+00
   N4q   C4h  1 4.700000e-01    3.520000e+00
   N3q   C4h  1 4.700000e-01    3.520000e+00
   N2q   C4h  1 4.700000e-01    3.520000e+00
   N1q   C4h  1 4.700000e-01    3.690000e+00
   C6q   C4h  1 4.700000e-01    3.690000e+00
   C5q   C4h  1 4.700000e-01    3.690000e+00
   C4h   C4q  1 4.700000e-01    3.690000e+00
   C4h  X1eq  1 4.700000e-01    3.880000e+00
   C4h  X2eq  1 4.700000e-01    3.690000e+00
   C4h  X3eq  1 4.700000e-01    3.690000e+00
   C4h  X4eq  1 4.700000e-01    3.690000e+00
   C4h  C1eq  1 4.700000e-01    3.520000e+00
   C4h  C2eq  1 4.700000e-01    3.690000e+00
   C4h  C3eq  1 4.700000e-01    3.880000e+00
   C4h  C4eq  1 4.700000e-01    3.880000e+00
  C5eq   C4h  1 4.700000e-01    3.880000e+00
  C6eq   C4h  1 4.700000e-01    3.880000e+00
   C4h  X1vq  1 4.700000e-01    3.880000e+00
   C4h  X2vq  1 4.700000e-01    3.690000e+00
   C4h  X3vq  1 4.700000e-01    3.690000e+00
   C4h  X4vq  1 4.700000e-01    3.690000e+00
   C4h  C1vq  1 4.700000e-01    3.520000e+00
   C4h  C2vq  1 4.700000e-01    3.690000e+00
   C4h  C3vq  1 4.700000e-01    3.880000e+00
   C4h  C4vq  1 4.700000e-01    3.880000e+00
  C5vq   C4h  1 4.700000e-01    3.880000e+00
  C6vq   C4h  1 4.700000e-01    3.880000e+00
  N1aq   C4h  1 4.700000e-01    3.690000e+00
  N2aq   C4h  1 4.700000e-01    3.520000e+00
  N3aq   C4h  1 4.700000e-01    3.520000e+00
  N4aq   C4h  1 4.700000e-01    3.520000e+00
  N5aq   C4h  1 4.700000e-01    3.390000e+00
  N6aq   C4h  1 4.700000e-01    3.390000e+00
  P1aq   C4h  1 4.700000e-01    3.240000e+00
  P2aq   C4h  1 4.700000e-01    3.240000e+00
  P3aq   C4h  1 4.700000e-01    3.240000e+00
  P4aq   C4h  1 4.700000e-01    3.070000e+00
  P5aq   C4h  1 4.700000e-01    3.070000e+00
  P6aq   C4h  1 4.700000e-01    2.960000e+00
  N1dq   C4h  1 4.700000e-01    3.690000e+00
  N2dq   C4h  1 4.700000e-01    3.520000e+00
  N3dq   C4h  1 4.700000e-01    3.520000e+00
  N4dq   C4h  1 4.700000e-01    3.520000e+00
  N5dq   C4h  1 4.700000e-01    3.390000e+00
  N6dq   C4h  1 4.700000e-01    3.390000e+00
  P1dq   C4h  1 4.700000e-01    3.240000e+00
  P2dq   C4h  1 4.700000e-01    3.240000e+00
  P3dq   C4h  1 4.700000e-01    3.240000e+00
  P4dq   C4h  1 4.700000e-01    3.070000e+00
  P5dq   C4h  1 4.700000e-01    3.070000e+00
  P6dq   C4h  1 4.700000e-01    2.960000e+00
   C4h   X1q  1 4.700000e-01    3.690000e+00
   C4h   X2q  1 4.700000e-01    3.520000e+00
   C4h   X3q  1 4.700000e-01    3.520000e+00
   C4h   X4q  1 4.700000e-01    3.520000e+00
   C4h   C1q  1 4.700000e-01    3.390000e+00
   C4h   C2q  1 4.700000e-01    3.520000e+00
   C4h   C3q  1 4.700000e-01    3.690000e+00
   P6d   C3h  1 4.700000e-01    2.440000e+00
   P5d   C3h  1 4.700000e-01    2.620000e+00
   P4d   C3h  1 4.700000e-01    2.620000e+00
   P3d   C3h  1 4.700000e-01    2.620000e+00
   P2d   C3h  1 4.700000e-01    2.790000e+00
   P1d   C3h  1 4.700000e-01    2.790000e+00
   N6d   C3h  1 4.700000e-01    2.960000e+00
   N5d   C3h  1 4.700000e-01    3.070000e+00
   N4d   C3h  1 4.700000e-01    3.070000e+00
   N3d   C3h  1 4.700000e-01    3.070000e+00
   N2d   C3h  1 4.700000e-01    3.240000e+00
   N1d   C3h  1 4.700000e-01    3.240000e+00
   P6a   C3h  1 4.700000e-01    2.440000e+00
   P5a   C3h  1 4.700000e-01    2.620000e+00
   P4a   C3h  1 4.700000e-01    2.620000e+00
   P3a   C3h  1 4.700000e-01    2.620000e+00
   P2a   C3h  1 4.700000e-01    2.790000e+00
   P1a   C3h  1 4.700000e-01    2.790000e+00
   N6a   C3h  1 4.700000e-01    2.960000e+00
   N5a   C3h  1 4.700000e-01    3.070000e+00
   N4a   C3h  1 4.700000e-01    3.070000e+00
   N3a   C3h  1 4.700000e-01    3.070000e+00
   N2a   C3h  1 4.700000e-01    3.240000e+00
   N1a   C3h  1 4.700000e-01    3.240000e+00
   C6v   C3h  1 4.700000e-01    3.390000e+00
   C5v   C3h  1 4.700000e-01    3.390000e+00
   C4v   C3h  1 4.700000e-01    3.520000e+00
   C3h   C3v  1 4.700000e-01    3.520000e+00
   C3h   X1v  1 4.700000e-01    3.520000e+00
   C3h   X2v  1 4.700000e-01    3.390000e+00
   C3h   X3v  1 4.700000e-01    3.390000e+00
   C3h   X4v  1 4.700000e-01    3.390000e+00
   C3h   C1v  1 4.700000e-01    3.520000e+00
   C3h   C2v  1 4.700000e-01    3.520000e+00
   C6e   C3h  1 4.700000e-01    3.390000e+00
   C5e   C3h  1 4.700000e-01    3.390000e+00
   C4e   C3h  1 4.700000e-01    3.520000e+00
   C3h   C3e  1 4.700000e-01    3.520000e+00
   C3h   X1e  1 4.700000e-01    3.520000e+00
   C3h   X2e  1 4.700000e-01    3.390000e+00
   C3h   X3e  1 4.700000e-01    3.390000e+00
   C3h   X4e  1 4.700000e-01    3.390000e+00
   C3h   C1e  1 4.700000e-01    3.520000e+00
   C3h   C2e  1 4.700000e-01    3.520000e+00
   P6q   C3h  1 4.700000e-01    2.790000e+00
   P5q   C3h  1 4.700000e-01    2.960000e+00
   P4q   C3h  1 4.700000e-01    2.960000e+00
   P3q   C3h  1 4.700000e-01    2.960000e+00
   P2q   C3h  1 4.700000e-01    3.070000e+00
   P1q   C3h  1 4.700000e-01    3.070000e+00
   N6q   C3h  1 4.700000e-01    3.240000e+00
   N5q   C3h  1 4.700000e-01    3.390000e+00
   N4q   C3h  1 4.700000e-01    3.390000e+00
   N3q   C3h  1 4.700000e-01    3.390000e+00
   N2q   C3h  1 4.700000e-01    3.520000e+00
   N1q   C3h  1 4.700000e-01    3.520000e+00
   C6q   C3h  1 4.700000e-01    3.520000e+00
   C5q   C3h  1 4.700000e-01    3.520000e+00
   C4q   C3h  1 4.700000e-01    3.690000e+00
   C3h   C3q  1 4.700000e-01    3.690000e+00
   C3h  X1eq  1 4.700000e-01    3.880000e+00
   C3h  X2eq  1 4.700000e-01    3.690000e+00
   C3h  X3eq  1 4.700000e-01    3.690000e+00
   C3h  X4eq  1 4.700000e-01    3.690000e+00
   C3h  C1eq  1 4.700000e-01    3.880000e+00
   C3h  C2eq  1 4.700000e-01    3.880000e+00
   C3h  C3eq  1 4.700000e-01    3.880000e+00
  C4eq   C3h  1 4.700000e-01    3.880000e+00
  C5eq   C3h  1 4.700000e-01    3.690000e+00
  C6eq   C3h  1 4.700000e-01    3.690000e+00
   C3h  X1vq  1 4.700000e-01    3.880000e+00
   C3h  X2vq  1 4.700000e-01    3.690000e+00
   C3h  X3vq  1 4.700000e-01    3.690000e+00
   C3h  X4vq  1 4.700000e-01    3.690000e+00
   C3h  C1vq  1 4.700000e-01    3.880000e+00
   C3h  C2vq  1 4.700000e-01    3.880000e+00
   C3h  C3vq  1 4.700000e-01    3.880000e+00
  C4vq   C3h  1 4.700000e-01    3.880000e+00
  C5vq   C3h  1 4.700000e-01    3.690000e+00
  C6vq   C3h  1 4.700000e-01    3.690000e+00
  N1aq   C3h  1 4.700000e-01    3.520000e+00
  N2aq   C3h  1 4.700000e-01    3.520000e+00
  N3aq   C3h  1 4.700000e-01    3.390000e+00
  N4aq   C3h  1 4.700000e-01    3.390000e+00
  N5aq   C3h  1 4.700000e-01    3.390000e+00
  N6aq   C3h  1 4.700000e-01    3.240000e+00
  P1aq   C3h  1 4.700000e-01    3.070000e+00
  P2aq   C3h  1 4.700000e-01    3.070000e+00
  P3aq   C3h  1 4.700000e-01    2.960000e+00
  P4aq   C3h  1 4.700000e-01    2.960000e+00
  P5aq   C3h  1 4.700000e-01    2.960000e+00
  P6aq   C3h  1 4.700000e-01    2.790000e+00
  N1dq   C3h  1 4.700000e-01    3.520000e+00
  N2dq   C3h  1 4.700000e-01    3.520000e+00
  N3dq   C3h  1 4.700000e-01    3.390000e+00
  N4dq   C3h  1 4.700000e-01    3.390000e+00
  N5dq   C3h  1 4.700000e-01    3.390000e+00
  N6dq   C3h  1 4.700000e-01    3.240000e+00
  P1dq   C3h  1 4.700000e-01    3.070000e+00
  P2dq   C3h  1 4.700000e-01    3.070000e+00
  P3dq   C3h  1 4.700000e-01    2.960000e+00
  P4dq   C3h  1 4.700000e-01    2.960000e+00
  P5dq   C3h  1 4.700000e-01    2.960000e+00
  P6dq   C3h  1 4.700000e-01    2.790000e+00
   C3h   X1q  1 4.700000e-01    3.690000e+00
   C3h   X2q  1 4.700000e-01    3.520000e+00
   C3h   X3q  1 4.700000e-01    3.520000e+00
   C3h   X4q  1 4.700000e-01    3.520000e+00
   C3h   C1q  1 4.700000e-01    3.690000e+00
   C3h   C2q  1 4.700000e-01    3.690000e+00
   P6d   C2h  1 4.700000e-01    2.440000e+00
   P5d   C2h  1 4.700000e-01    2.620000e+00
   P4d   C2h  1 4.700000e-01    2.620000e+00
   P3d   C2h  1 4.700000e-01    2.620000e+00
   P2d   C2h  1 4.700000e-01    2.790000e+00
   P1d   C2h  1 4.700000e-01    2.790000e+00
   N6d   C2h  1 4.700000e-01    2.960000e+00
   N5d   C2h  1 4.700000e-01    2.960000e+00
   N4d   C2h  1 4.700000e-01    2.960000e+00
   N3d   C2h  1 4.700000e-01    3.070000e+00
   N2d   C2h  1 4.700000e-01    3.070000e+00
   N1d   C2h  1 4.700000e-01    3.070000e+00
   P6a   C2h  1 4.700000e-01    2.440000e+00
   P5a   C2h  1 4.700000e-01    2.620000e+00
   P4a   C2h  1 4.700000e-01    2.620000e+00
   P3a   C2h  1 4.700000e-01    2.620000e+00
   P2a   C2h  1 4.700000e-01    2.790000e+00
   P1a   C2h  1 4.700000e-01    2.790000e+00
   N6a   C2h  1 4.700000e-01    2.960000e+00
   N5a   C2h  1 4.700000e-01    2.960000e+00
   N4a   C2h  1 4.700000e-01    2.960000e+00
   N3a   C2h  1 4.700000e-01    3.070000e+00
   N2a   C2h  1 4.700000e-01    3.070000e+00
   N1a   C2h  1 4.700000e-01    3.070000e+00
   C6v   C2h  1 4.700000e-01    3.240000e+00
   C5v   C2h  1 4.700000e-01    3.240000e+00
   C4v   C2h  1 4.700000e-01    3.390000e+00
   C3v   C2h  1 4.700000e-01    3.520000e+00
   C2h   C2v  1 4.700000e-01    3.520000e+00
   C2h   X1v  1 4.700000e-01    3.390000e+00
   C2h   X2v  1 4.700000e-01    3.390000e+00
   C2h   X3v  1 4.700000e-01    3.390000e+00
   C2h   X4v  1 4.700000e-01    3.070000e+00
   C2h   C1v  1 4.700000e-01    3.690000e+00
   C6e   C2h  1 4.700000e-01    3.240000e+00
   C5e   C2h  1 4.700000e-01    3.240000e+00
   C4e   C2h  1 4.700000e-01    3.390000e+00
   C3e   C2h  1 4.700000e-01    3.520000e+00
   C2h   C2e  1 4.700000e-01    3.520000e+00
   C2h   X1e  1 4.700000e-01    3.390000e+00
   C2h   X2e  1 4.700000e-01    3.390000e+00
   C2h   X3e  1 4.700000e-01    3.390000e+00
   C2h   X4e  1 4.700000e-01    3.070000e+00
   C2h   C1e  1 4.700000e-01    3.690000e+00
   P6q   C2h  1 4.700000e-01    2.790000e+00
   P5q   C2h  1 4.700000e-01    2.960000e+00
   P4q   C2h  1 4.700000e-01    2.960000e+00
   P3q   C2h  1 4.700000e-01    2.960000e+00
   P2q   C2h  1 4.700000e-01    3.070000e+00
   P1q   C2h  1 4.700000e-01    3.070000e+00
   N6q   C2h  1 4.700000e-01    3.240000e+00
   N5q   C2h  1 4.700000e-01    3.240000e+00
   N4q   C2h  1 4.700000e-01    3.240000e+00
   N3q   C2h  1 4.700000e-01    3.390000e+00
   N2q   C2h  1 4.700000e-01    3.390000e+00
   N1q   C2h  1 4.700000e-01    3.390000e+00
   C6q   C2h  1 4.700000e-01    3.390000e+00
   C5q   C2h  1 4.700000e-01    3.390000e+00
   C4q   C2h  1 4.700000e-01    3.520000e+00
   C3q   C2h  1 4.700000e-01    3.690000e+00
   C2h   C2q  1 4.700000e-01    3.690000e+00
   C2h  X1eq  1 4.700000e-01    3.690000e+00
   C2h  X2eq  1 4.700000e-01    3.690000e+00
   C2h  X3eq  1 4.700000e-01    3.690000e+00
   C2h  X4eq  1 4.700000e-01    3.390000e+00
   C2h  C1eq  1 4.700000e-01    4.060000e+00
   C2h  C2eq  1 4.700000e-01    3.880000e+00
  C3eq   C2h  1 4.700000e-01    3.880000e+00
  C4eq   C2h  1 4.700000e-01    3.690000e+00
  C5eq   C2h  1 4.700000e-01    3.520000e+00
  C6eq   C2h  1 4.700000e-01    3.520000e+00
   C2h  X1vq  1 4.700000e-01    3.690000e+00
   C2h  X2vq  1 4.700000e-01    3.690000e+00
   C2h  X3vq  1 4.700000e-01    3.690000e+00
   C2h  X4vq  1 4.700000e-01    3.390000e+00
   C2h  C1vq  1 4.700000e-01    4.060000e+00
   C2h  C2vq  1 4.700000e-01    3.880000e+00
  C3vq   C2h  1 4.700000e-01    3.880000e+00
  C4vq   C2h  1 4.700000e-01    3.690000e+00
  C5vq   C2h  1 4.700000e-01    3.520000e+00
  C6vq   C2h  1 4.700000e-01    3.520000e+00
  N1aq   C2h  1 4.700000e-01    3.390000e+00
  N2aq   C2h  1 4.700000e-01    3.390000e+00
  N3aq   C2h  1 4.700000e-01    3.390000e+00
  N4aq   C2h  1 4.700000e-01    3.240000e+00
  N5aq   C2h  1 4.700000e-01    3.240000e+00
  N6aq   C2h  1 4.700000e-01    3.240000e+00
  P1aq   C2h  1 4.700000e-01    3.070000e+00
  P2aq   C2h  1 4.700000e-01    3.070000e+00
  P3aq   C2h  1 4.700000e-01    2.960000e+00
  P4aq   C2h  1 4.700000e-01    2.960000e+00
  P5aq   C2h  1 4.700000e-01    2.960000e+00
  P6aq   C2h  1 4.700000e-01    2.790000e+00
  N1dq   C2h  1 4.700000e-01    3.390000e+00
  N2dq   C2h  1 4.700000e-01    3.390000e+00
  N3dq   C2h  1 4.700000e-01    3.390000e+00
  N4dq   C2h  1 4.700000e-01    3.240000e+00
  N5dq   C2h  1 4.700000e-01    3.240000e+00
  N6dq   C2h  1 4.700000e-01    3.240000e+00
  P1dq   C2h  1 4.700000e-01    3.070000e+00
  P2dq   C2h  1 4.700000e-01    3.070000e+00
  P3dq   C2h  1 4.700000e-01    2.960000e+00
  P4dq   C2h  1 4.700000e-01    2.960000e+00
  P5dq   C2h  1 4.700000e-01    2.960000e+00
  P6dq   C2h  1 4.700000e-01    2.790000e+00
   C2h   X1q  1 4.700000e-01    3.520000e+00
   C2h   X2q  1 4.700000e-01    3.520000e+00
   C2h   X3q  1 4.700000e-01    3.520000e+00
   C2h   X4q  1 4.700000e-01    3.240000e+00
   C2h   C1q  1 4.700000e-01    3.880000e+00
   P6d   C1h  1 5.200000e-01    2.120000e+00
   P5d   C1h  1 4.700000e-01    2.440000e+00
   P4d   C1h  1 4.700000e-01    2.440000e+00
   P3d   C1h  1 4.700000e-01    2.440000e+00
   P2d   C1h  1 4.700000e-01    2.620000e+00
   P1d   C1h  1 4.700000e-01    2.620000e+00
   N6d   C1h  1 4.700000e-01    2.790000e+00
   N5d   C1h  1 4.700000e-01    2.790000e+00
   N4d   C1h  1 4.700000e-01    2.790000e+00
   N3d   C1h  1 4.700000e-01    2.960000e+00
   N2d   C1h  1 4.700000e-01    2.960000e+00
   N1d   C1h  1 4.700000e-01    2.960000e+00
   P6a   C1h  1 5.200000e-01    2.120000e+00
   P5a   C1h  1 4.700000e-01    2.440000e+00
   P4a   C1h  1 4.700000e-01    2.440000e+00
   P3a   C1h  1 4.700000e-01    2.440000e+00
   P2a   C1h  1 4.700000e-01    2.620000e+00
   P1a   C1h  1 4.700000e-01    2.620000e+00
   N6a   C1h  1 4.700000e-01    2.790000e+00
   N5a   C1h  1 4.700000e-01    2.790000e+00
   N4a   C1h  1 4.700000e-01    2.790000e+00
   N3a   C1h  1 4.700000e-01    2.960000e+00
   N2a   C1h  1 4.700000e-01    2.960000e+00
   N1a   C1h  1 4.700000e-01    2.960000e+00
   C6v   C1h  1 4.700000e-01    3.070000e+00
   C5v   C1h  1 4.700000e-01    3.240000e+00
   C4v   C1h  1 4.700000e-01    3.240000e+00
   C3v   C1h  1 4.700000e-01    3.520000e+00
   C2v   C1h  1 4.700000e-01    3.690000e+00
   C1h   C1v  1 4.700000e-01    3.520000e+00
   C1h   X1v  1 4.700000e-01    3.390000e+00
   C1h   X2v  1 4.700000e-01    3.390000e+00
   C1h   X3v  1 4.700000e-01    3.390000e+00
   C1h   X4v  1 4.700000e-01    3.070000e+00
   C6e   C1h  1 4.700000e-01    3.070000e+00
   C5e   C1h  1 4.700000e-01    3.240000e+00
   C4e   C1h  1 4.700000e-01    3.240000e+00
   C3e   C1h  1 4.700000e-01    3.520000e+00
   C2e   C1h  1 4.700000e-01    3.690000e+00
   C1h   C1e  1 4.700000e-01    3.520000e+00
   C1h   X1e  1 4.700000e-01    3.390000e+00
   C1h   X2e  1 4.700000e-01    3.390000e+00
   C1h   X3e  1 4.700000e-01    3.390000e+00
   C1h   X4e  1 4.700000e-01    3.070000e+00
   P6q   C1h  1 4.700000e-01    2.440000e+00
   P5q   C1h  1 4.700000e-01    2.790000e+00
   P4q   C1h  1 4.700000e-01    2.790000e+00
   P3q   C1h  1 4.700000e-01    2.790000e+00
   P2q   C1h  1 4.700000e-01    2.960000e+00
   P1q   C1h  1 4.700000e-01    2.960000e+00
   N6q   C1h  1 4.700000e-01    3.070000e+00
   N5q   C1h  1 4.700000e-01    3.070000e+00
   N4q   C1h  1 4.700000e-01    3.070000e+00
   N3q   C1h  1 4.700000e-01    3.240000e+00
   N2q   C1h  1 4.700000e-01    3.240000e+00
   N1q   C1h  1 4.700000e-01    3.240000e+00
   C6q   C1h  1 4.700000e-01    3.240000e+00
   C5q   C1h  1 4.700000e-01    3.390000e+00
   C4q   C1h  1 4.700000e-01    3.390000e+00
   C3q   C1h  1 4.700000e-01    3.690000e+00
   C2q   C1h  1 4.700000e-01    3.880000e+00
   C1h   C1q  1 4.700000e-01    3.690000e+00
   C1h  X1eq  1 4.700000e-01    3.690000e+00
   C1h  X2eq  1 4.700000e-01    3.690000e+00
   C1h  X3eq  1 4.700000e-01    3.690000e+00
   C1h  X4eq  1 4.700000e-01    3.390000e+00
   C1h  C1eq  1 4.700000e-01    3.880000e+00
  C2eq   C1h  1 4.700000e-01    4.060000e+00
  C3eq   C1h  1 4.700000e-01    3.880000e+00
  C4eq   C1h  1 4.700000e-01    3.520000e+00
  C5eq   C1h  1 4.700000e-01    3.520000e+00
  C6eq   C1h  1 4.700000e-01    3.390000e+00
   C1h  X1vq  1 4.700000e-01    3.690000e+00
   C1h  X2vq  1 4.700000e-01    3.690000e+00
   C1h  X3vq  1 4.700000e-01    3.690000e+00
   C1h  X4vq  1 4.700000e-01    3.390000e+00
   C1h  C1vq  1 4.700000e-01    3.880000e+00
  C2vq   C1h  1 4.700000e-01    4.060000e+00
  C3vq   C1h  1 4.700000e-01    3.880000e+00
  C4vq   C1h  1 4.700000e-01    3.520000e+00
  C5vq   C1h  1 4.700000e-01    3.520000e+00
  C6vq   C1h  1 4.700000e-01    3.390000e+00
  N1aq   C1h  1 4.700000e-01    3.240000e+00
  N2aq   C1h  1 4.700000e-01    3.240000e+00
  N3aq   C1h  1 4.700000e-01    3.240000e+00
  N4aq   C1h  1 4.700000e-01    3.070000e+00
  N5aq   C1h  1 4.700000e-01    3.070000e+00
  N6aq   C1h  1 4.700000e-01    3.070000e+00
  P1aq   C1h  1 4.700000e-01    2.960000e+00
  P2aq   C1h  1 4.700000e-01    2.960000e+00
  P3aq   C1h  1 4.700000e-01    2.790000e+00
  P4aq   C1h  1 4.700000e-01    2.790000e+00
  P5aq   C1h  1 4.700000e-01    2.790000e+00
  P6aq   C1h  1 4.700000e-01    2.440000e+00
  N1dq   C1h  1 4.700000e-01    3.240000e+00
  N2dq   C1h  1 4.700000e-01    3.240000e+00
  N3dq   C1h  1 4.700000e-01    3.240000e+00
  N4dq   C1h  1 4.700000e-01    3.070000e+00
  N5dq   C1h  1 4.700000e-01    3.070000e+00
  N6dq   C1h  1 4.700000e-01    3.070000e+00
  P1dq   C1h  1 4.700000e-01    2.960000e+00
  P2dq   C1h  1 4.700000e-01    2.960000e+00
  P3dq   C1h  1 4.700000e-01    2.790000e+00
  P4dq   C1h  1 4.700000e-01    2.790000e+00
  P5dq   C1h  1 4.700000e-01    2.790000e+00
  P6dq   C1h  1 4.700000e-01    2.440000e+00
   C1h   X1q  1 4.700000e-01    3.520000e+00
   C1h   X2q  1 4.700000e-01    3.520000e+00
   C1h   X3q  1 4.700000e-01    3.520000e+00
   C1h   X4q  1 4.700000e-01    3.240000e+00
   P6d   X4h  1 4.700000e-01    3.070000e+00
   P5d   X4h  1 4.700000e-01    3.240000e+00
   P4d   X4h  1 4.700000e-01    3.240000e+00
   P3d   X4h  1 4.700000e-01    3.240000e+00
   P2d   X4h  1 4.700000e-01    3.240000e+00
   P1d   X4h  1 4.700000e-01    3.240000e+00
   N6d   X4h  1 4.700000e-01    3.390000e+00
   N5d   X4h  1 4.700000e-01    3.520000e+00
   N4d   X4h  1 4.700000e-01    3.690000e+00
   N3d   X4h  1 4.700000e-01    3.520000e+00
   N2d   X4h  1 4.700000e-01    3.520000e+00
   N1d   X4h  1 4.700000e-01    3.390000e+00
   P6a   X4h  1 4.700000e-01    3.070000e+00
   P5a   X4h  1 4.700000e-01    3.240000e+00
   P4a   X4h  1 4.700000e-01    3.240000e+00
   P3a   X4h  1 4.700000e-01    3.240000e+00
   P2a   X4h  1 4.700000e-01    3.240000e+00
   P1a   X4h  1 4.700000e-01    3.240000e+00
   N6a   X4h  1 4.700000e-01    3.390000e+00
   N5a   X4h  1 4.700000e-01    3.520000e+00
   N4a   X4h  1 4.700000e-01    3.690000e+00
   N3a   X4h  1 4.700000e-01    3.520000e+00
   N2a   X4h  1 4.700000e-01    3.520000e+00
   N1a   X4h  1 4.700000e-01    3.390000e+00
   C6v   X4h  1 4.700000e-01    3.520000e+00
   C5v   X4h  1 4.700000e-01    3.390000e+00
   C4v   X4h  1 4.700000e-01    3.390000e+00
   C3v   X4h  1 4.700000e-01    3.390000e+00
   C2v   X4h  1 4.700000e-01    3.070000e+00
   C1v   X4h  1 4.700000e-01    3.070000e+00
   X4h   X4v  1 4.700000e-01    3.520000e+00
   X4h   X1v  1 4.700000e-01    3.520000e+00
   X4h   X2v  1 4.700000e-01    3.520000e+00
   X4h   X3v  1 4.700000e-01    3.520000e+00
   C6e   X4h  1 4.700000e-01    3.520000e+00
   C5e   X4h  1 4.700000e-01    3.390000e+00
   C4e   X4h  1 4.700000e-01    3.390000e+00
   C3e   X4h  1 4.700000e-01    3.390000e+00
   C2e   X4h  1 4.700000e-01    3.070000e+00
   C1e   X4h  1 4.700000e-01    3.070000e+00
   X4h   X4e  1 4.700000e-01    3.520000e+00
   X4h   X1e  1 4.700000e-01    3.520000e+00
   X4h   X2e  1 4.700000e-01    3.520000e+00
   X4h   X3e  1 4.700000e-01    3.520000e+00
   P6q   X4h  1 4.700000e-01    3.390000e+00
   P5q   X4h  1 4.700000e-01    3.520000e+00
   P4q   X4h  1 4.700000e-01    3.520000e+00
   P3q   X4h  1 4.700000e-01    3.520000e+00
   P2q   X4h  1 4.700000e-01    3.520000e+00
   P1q   X4h  1 4.700000e-01    3.520000e+00
   N6q   X4h  1 4.700000e-01    3.690000e+00
   N5q   X4h  1 4.700000e-01    3.880000e+00
   N4q   X4h  1 4.700000e-01    4.060000e+00
   N3q   X4h  1 4.700000e-01    3.880000e+00
   N2q   X4h  1 4.700000e-01    3.880000e+00
   N1q   X4h  1 4.700000e-01    3.690000e+00
   C6q   X4h  1 4.700000e-01    3.690000e+00
   C5q   X4h  1 4.700000e-01    3.520000e+00
   C4q   X4h  1 4.700000e-01    3.520000e+00
   C3q   X4h  1 4.700000e-01    3.520000e+00
   C2q   X4h  1 4.700000e-01    3.240000e+00
   C1q   X4h  1 4.700000e-01    3.240000e+00
   X4h   X4q  1 4.700000e-01    3.690000e+00
   X4h  X1eq  1 4.700000e-01    3.880000e+00
   X4h  X2eq  1 4.700000e-01    3.880000e+00
   X4h  X3eq  1 4.700000e-01    3.880000e+00
   X4h  X4eq  1 4.700000e-01    3.880000e+00
  C1eq   X4h  1 4.700000e-01    3.390000e+00
  C2eq   X4h  1 4.700000e-01    3.390000e+00
  C3eq   X4h  1 4.700000e-01    3.690000e+00
  C4eq   X4h  1 4.700000e-01    3.690000e+00
  C5eq   X4h  1 4.700000e-01    3.690000e+00
  C6eq   X4h  1 4.700000e-01    3.880000e+00
   X4h  X1vq  1 4.700000e-01    3.880000e+00
   X4h  X2vq  1 4.700000e-01    3.880000e+00
   X4h  X3vq  1 4.700000e-01    3.880000e+00
   X4h  X4vq  1 4.700000e-01    3.880000e+00
  C1vq   X4h  1 4.700000e-01    3.390000e+00
  C2vq   X4h  1 4.700000e-01    3.390000e+00
  C3vq   X4h  1 4.700000e-01    3.690000e+00
  C4vq   X4h  1 4.700000e-01    3.690000e+00
  C5vq   X4h  1 4.700000e-01    3.690000e+00
  C6vq   X4h  1 4.700000e-01    3.880000e+00
  N1aq   X4h  1 4.700000e-01    3.690000e+00
  N2aq   X4h  1 4.700000e-01    3.880000e+00
  N3aq   X4h  1 4.700000e-01    3.880000e+00
  N4aq   X4h  1 4.700000e-01    4.060000e+00
  N5aq   X4h  1 4.700000e-01    3.880000e+00
  N6aq   X4h  1 4.700000e-01    3.690000e+00
  P1aq   X4h  1 4.700000e-01    3.520000e+00
  P2aq   X4h  1 4.700000e-01    3.520000e+00
  P3aq   X4h  1 4.700000e-01    3.520000e+00
  P4aq   X4h  1 4.700000e-01    3.520000e+00
  P5aq   X4h  1 4.700000e-01    3.520000e+00
  P6aq   X4h  1 4.700000e-01    3.390000e+00
  N1dq   X4h  1 4.700000e-01    3.690000e+00
  N2dq   X4h  1 4.700000e-01    3.880000e+00
  N3dq   X4h  1 4.700000e-01    3.880000e+00
  N4dq   X4h  1 4.700000e-01    4.060000e+00
  N5dq   X4h  1 4.700000e-01    3.880000e+00
  N6dq   X4h  1 4.700000e-01    3.690000e+00
  P1dq   X4h  1 4.700000e-01    3.520000e+00
  P2dq   X4h  1 4.700000e-01    3.520000e+00
  P3dq   X4h  1 4.700000e-01    3.520000e+00
  P4dq   X4h  1 4.700000e-01    3.520000e+00
  P5dq   X4h  1 4.700000e-01    3.520000e+00
  P6dq   X4h  1 4.700000e-01    3.390000e+00
   X4h   X1q  1 4.700000e-01    3.690000e+00
   X4h   X2q  1 4.700000e-01    3.690000e+00
   X4h   X3q  1 4.700000e-01    3.690000e+00
   P6d   X3h  1 4.700000e-01    3.070000e+00
   P5d   X3h  1 4.700000e-01    3.070000e+00
   P4d   X3h  1 4.700000e-01    3.070000e+00
   P3d   X3h  1 4.700000e-01    3.240000e+00
   P2d   X3h  1 4.700000e-01    3.240000e+00
   P1d   X3h  1 4.700000e-01    3.240000e+00
   N6d   X3h  1 4.700000e-01    3.240000e+00
   N5d   X3h  1 4.700000e-01    3.390000e+00
   N4d   X3h  1 4.700000e-01    3.520000e+00
   N3d   X3h  1 4.700000e-01    3.390000e+00
   N2d   X3h  1 4.700000e-01    3.390000e+00
   N1d   X3h  1 4.700000e-01    3.390000e+00
   P6a   X3h  1 4.700000e-01    3.070000e+00
   P5a   X3h  1 4.700000e-01    3.070000e+00
   P4a   X3h  1 4.700000e-01    3.070000e+00
   P3a   X3h  1 4.700000e-01    3.240000e+00
   P2a   X3h  1 4.700000e-01    3.240000e+00
   P1a   X3h  1 4.700000e-01    3.240000e+00
   N6a   X3h  1 4.700000e-01    3.240000e+00
   N5a   X3h  1 4.700000e-01    3.390000e+00
   N4a   X3h  1 4.700000e-01    3.520000e+00
   N3a   X3h  1 4.700000e-01    3.390000e+00
   N2a   X3h  1 4.700000e-01    3.390000e+00
   N1a   X3h  1 4.700000e-01    3.390000e+00
   C6v   X3h  1 4.700000e-01    3.520000e+00
   C5v   X3h  1 4.700000e-01    3.390000e+00
   C4v   X3h  1 4.700000e-01    3.390000e+00
   C3v   X3h  1 4.700000e-01    3.390000e+00
   C2v   X3h  1 4.700000e-01    3.390000e+00
   C1v   X3h  1 4.700000e-01    3.390000e+00
   X4v   X3h  1 4.700000e-01    3.520000e+00
   X3h   X3v  1 4.700000e-01    3.520000e+00
   X3h   X1v  1 4.700000e-01    3.690000e+00
   X3h   X2v  1 4.700000e-01    3.690000e+00
   C6e   X3h  1 4.700000e-01    3.520000e+00
   C5e   X3h  1 4.700000e-01    3.390000e+00
   C4e   X3h  1 4.700000e-01    3.390000e+00
   C3e   X3h  1 4.700000e-01    3.390000e+00
   C2e   X3h  1 4.700000e-01    3.390000e+00
   C1e   X3h  1 4.700000e-01    3.390000e+00
   X4e   X3h  1 4.700000e-01    3.520000e+00
   X3h   X3e  1 4.700000e-01    3.520000e+00
   X3h   X1e  1 4.700000e-01    3.690000e+00
   X3h   X2e  1 4.700000e-01    3.690000e+00
   P6q   X3h  1 4.700000e-01    3.390000e+00
   P5q   X3h  1 4.700000e-01    3.390000e+00
   P4q   X3h  1 4.700000e-01    3.390000e+00
   P3q   X3h  1 4.700000e-01    3.520000e+00
   P2q   X3h  1 4.700000e-01    3.520000e+00
   P1q   X3h  1 4.700000e-01    3.520000e+00
   N6q   X3h  1 4.700000e-01    3.520000e+00
   N5q   X3h  1 4.700000e-01    3.690000e+00
   N4q   X3h  1 4.700000e-01    3.880000e+00
   N3q   X3h  1 4.700000e-01    3.690000e+00
   N2q   X3h  1 4.700000e-01    3.690000e+00
   N1q   X3h  1 4.700000e-01    3.690000e+00
   C6q   X3h  1 4.700000e-01    3.690000e+00
   C5q   X3h  1 4.700000e-01    3.520000e+00
   C4q   X3h  1 4.700000e-01    3.520000e+00
   C3q   X3h  1 4.700000e-01    3.520000e+00
   C2q   X3h  1 4.700000e-01    3.520000e+00
   C1q   X3h  1 4.700000e-01    3.520000e+00
   X4q   X3h  1 4.700000e-01    3.690000e+00
   X3h   X3q  1 4.700000e-01    3.690000e+00
   X3h  X1eq  1 4.700000e-01    4.060000e+00
   X3h  X2eq  1 4.700000e-01    4.060000e+00
   X3h  X3eq  1 4.700000e-01    3.880000e+00
  X4eq   X3h  1 4.700000e-01    3.880000e+00
  C1eq   X3h  1 4.700000e-01    3.690000e+00
  C2eq   X3h  1 4.700000e-01    3.690000e+00
  C3eq   X3h  1 4.700000e-01    3.690000e+00
  C4eq   X3h  1 4.700000e-01    3.690000e+00
  C5eq   X3h  1 4.700000e-01    3.690000e+00
  C6eq   X3h  1 4.700000e-01    3.880000e+00
   X3h  X1vq  1 4.700000e-01    4.060000e+00
   X3h  X2vq  1 4.700000e-01    4.060000e+00
   X3h  X3vq  1 4.700000e-01    3.880000e+00
  X4vq   X3h  1 4.700000e-01    3.880000e+00
  C1vq   X3h  1 4.700000e-01    3.690000e+00
  C2vq   X3h  1 4.700000e-01    3.690000e+00
  C3vq   X3h  1 4.700000e-01    3.690000e+00
  C4vq   X3h  1 4.700000e-01    3.690000e+00
  C5vq   X3h  1 4.700000e-01    3.690000e+00
  C6vq   X3h  1 4.700000e-01    3.880000e+00
  N1aq   X3h  1 4.700000e-01    3.690000e+00
  N2aq   X3h  1 4.700000e-01    3.690000e+00
  N3aq   X3h  1 4.700000e-01    3.690000e+00
  N4aq   X3h  1 4.700000e-01    3.880000e+00
  N5aq   X3h  1 4.700000e-01    3.690000e+00
  N6aq   X3h  1 4.700000e-01    3.520000e+00
  P1aq   X3h  1 4.700000e-01    3.520000e+00
  P2aq   X3h  1 4.700000e-01    3.520000e+00
  P3aq   X3h  1 4.700000e-01    3.520000e+00
  P4aq   X3h  1 4.700000e-01    3.390000e+00
  P5aq   X3h  1 4.700000e-01    3.390000e+00
  P6aq   X3h  1 4.700000e-01    3.390000e+00
  N1dq   X3h  1 4.700000e-01    3.690000e+00
  N2dq   X3h  1 4.700000e-01    3.690000e+00
  N3dq   X3h  1 4.700000e-01    3.690000e+00
  N4dq   X3h  1 4.700000e-01    3.880000e+00
  N5dq   X3h  1 4.700000e-01    3.690000e+00
  N6dq   X3h  1 4.700000e-01    3.520000e+00
  P1dq   X3h  1 4.700000e-01    3.520000e+00
  P2dq   X3h  1 4.700000e-01    3.520000e+00
  P3dq   X3h  1 4.700000e-01    3.520000e+00
  P4dq   X3h  1 4.700000e-01    3.390000e+00
  P5dq   X3h  1 4.700000e-01    3.390000e+00
  P6dq   X3h  1 4.700000e-01    3.390000e+00
   X3h   X1q  1 4.700000e-01    3.880000e+00
   X3h   X2q  1 4.700000e-01    3.880000e+00
   P6d   X2h  1 4.700000e-01    2.960000e+00
   P5d   X2h  1 4.700000e-01    3.070000e+00
   P4d   X2h  1 4.700000e-01    3.070000e+00
   P3d   X2h  1 4.700000e-01    3.070000e+00
   P2d   X2h  1 4.700000e-01    3.070000e+00
   P1d   X2h  1 4.700000e-01    3.070000e+00
   N6d   X2h  1 4.700000e-01    3.070000e+00
   N5d   X2h  1 4.700000e-01    3.240000e+00
   N4d   X2h  1 4.700000e-01    3.240000e+00
   N3d   X2h  1 4.700000e-01    3.240000e+00
   N2d   X2h  1 4.700000e-01    3.240000e+00
   N1d   X2h  1 4.700000e-01    3.240000e+00
   P6a   X2h  1 4.700000e-01    2.960000e+00
   P5a   X2h  1 4.700000e-01    3.070000e+00
   P4a   X2h  1 4.700000e-01    3.070000e+00
   P3a   X2h  1 4.700000e-01    3.070000e+00
   P2a   X2h  1 4.700000e-01    3.070000e+00
   P1a   X2h  1 4.700000e-01    3.070000e+00
   N6a   X2h  1 4.700000e-01    3.070000e+00
   N5a   X2h  1 4.700000e-01    3.240000e+00
   N4a   X2h  1 4.700000e-01    3.240000e+00
   N3a   X2h  1 4.700000e-01    3.240000e+00
   N2a   X2h  1 4.700000e-01    3.240000e+00
   N1a   X2h  1 4.700000e-01    3.240000e+00
   C6v   X2h  1 4.700000e-01    3.520000e+00
   C5v   X2h  1 4.700000e-01    3.390000e+00
   C4v   X2h  1 4.700000e-01    3.390000e+00
   C3v   X2h  1 4.700000e-01    3.390000e+00
   C2v   X2h  1 4.700000e-01    3.390000e+00
   C1v   X2h  1 4.700000e-01    3.390000e+00
   X4v   X2h  1 4.700000e-01    3.520000e+00
   X3v   X2h  1 4.700000e-01    3.690000e+00
   X2h   X2v  1 4.700000e-01    3.690000e+00
   X2h   X1v  1 4.700000e-01    3.690000e+00
   C6e   X2h  1 4.700000e-01    3.520000e+00
   C5e   X2h  1 4.700000e-01    3.390000e+00
   C4e   X2h  1 4.700000e-01    3.390000e+00
   C3e   X2h  1 4.700000e-01    3.390000e+00
   C2e   X2h  1 4.700000e-01    3.390000e+00
   C1e   X2h  1 4.700000e-01    3.390000e+00
   X4e   X2h  1 4.700000e-01    3.520000e+00
   X3e   X2h  1 4.700000e-01    3.690000e+00
   X2h   X2e  1 4.700000e-01    3.690000e+00
   X2h   X1e  1 4.700000e-01    3.690000e+00
   P6q   X2h  1 4.700000e-01    3.240000e+00
   P5q   X2h  1 4.700000e-01    3.390000e+00
   P4q   X2h  1 4.700000e-01    3.390000e+00
   P3q   X2h  1 4.700000e-01    3.390000e+00
   P2q   X2h  1 4.700000e-01    3.390000e+00
   P1q   X2h  1 4.700000e-01    3.390000e+00
   N6q   X2h  1 4.700000e-01    3.390000e+00
   N5q   X2h  1 4.700000e-01    3.520000e+00
   N4q   X2h  1 4.700000e-01    3.520000e+00
   N3q   X2h  1 4.700000e-01    3.520000e+00
   N2q   X2h  1 4.700000e-01    3.520000e+00
   N1q   X2h  1 4.700000e-01    3.520000e+00
   C6q   X2h  1 4.700000e-01    3.690000e+00
   C5q   X2h  1 4.700000e-01    3.520000e+00
   C4q   X2h  1 4.700000e-01    3.520000e+00
   C3q   X2h  1 4.700000e-01    3.520000e+00
   C2q   X2h  1 4.700000e-01    3.520000e+00
   C1q   X2h  1 4.700000e-01    3.520000e+00
   X4q   X2h  1 4.700000e-01    3.690000e+00
   X3q   X2h  1 4.700000e-01    3.880000e+00
   X2h   X2q  1 4.700000e-01    3.880000e+00
   X2h  X1eq  1 4.700000e-01    4.060000e+00
   X2h  X2eq  1 4.700000e-01    4.060000e+00
  X3eq   X2h  1 4.700000e-01    4.060000e+00
  X4eq   X2h  1 4.700000e-01    3.880000e+00
  C1eq   X2h  1 4.700000e-01    3.690000e+00
  C2eq   X2h  1 4.700000e-01    3.690000e+00
  C3eq   X2h  1 4.700000e-01    3.690000e+00
  C4eq   X2h  1 4.700000e-01    3.690000e+00
  C5eq   X2h  1 4.700000e-01    3.690000e+00
  C6eq   X2h  1 4.700000e-01    3.880000e+00
   X2h  X1vq  1 4.700000e-01    4.060000e+00
   X2h  X2vq  1 4.700000e-01    4.060000e+00
  X3vq   X2h  1 4.700000e-01    4.060000e+00
  X4vq   X2h  1 4.700000e-01    3.880000e+00
  C1vq   X2h  1 4.700000e-01    3.690000e+00
  C2vq   X2h  1 4.700000e-01    3.690000e+00
  C3vq   X2h  1 4.700000e-01    3.690000e+00
  C4vq   X2h  1 4.700000e-01    3.690000e+00
  C5vq   X2h  1 4.700000e-01    3.690000e+00
  C6vq   X2h  1 4.700000e-01    3.880000e+00
  N1aq   X2h  1 4.700000e-01    3.520000e+00
  N2aq   X2h  1 4.700000e-01    3.520000e+00
  N3aq   X2h  1 4.700000e-01    3.520000e+00
  N4aq   X2h  1 4.700000e-01    3.520000e+00
  N5aq   X2h  1 4.700000e-01    3.520000e+00
  N6aq   X2h  1 4.700000e-01    3.390000e+00
  P1aq   X2h  1 4.700000e-01    3.390000e+00
  P2aq   X2h  1 4.700000e-01    3.390000e+00
  P3aq   X2h  1 4.700000e-01    3.390000e+00
  P4aq   X2h  1 4.700000e-01    3.390000e+00
  P5aq   X2h  1 4.700000e-01    3.390000e+00
  P6aq   X2h  1 4.700000e-01    3.240000e+00
  N1dq   X2h  1 4.700000e-01    3.520000e+00
  N2dq   X2h  1 4.700000e-01    3.520000e+00
  N3dq   X2h  1 4.700000e-01    3.520000e+00
  N4dq   X2h  1 4.700000e-01    3.520000e+00
  N5dq   X2h  1 4.700000e-01    3.520000e+00
  N6dq   X2h  1 4.700000e-01    3.390000e+00
  P1dq   X2h  1 4.700000e-01    3.390000e+00
  P2dq   X2h  1 4.700000e-01    3.390000e+00
  P3dq   X2h  1 4.700000e-01    3.390000e+00
  P4dq   X2h  1 4.700000e-01    3.390000e+00
  P5dq   X2h  1 4.700000e-01    3.390000e+00
  P6dq   X2h  1 4.700000e-01    3.240000e+00
   X2h   X1q  1 4.700000e-01    3.880000e+00
   P6d   X1h  1 4.700000e-01    2.790000e+00
   P5d   X1h  1 4.700000e-01    2.790000e+00
   P4d   X1h  1 4.700000e-01    2.960000e+00
   P3d   X1h  1 4.700000e-01    2.960000e+00
   P2d   X1h  1 4.700000e-01    2.960000e+00
   P1d   X1h  1 4.700000e-01    2.960000e+00
   N6d   X1h  1 4.700000e-01    2.960000e+00
   N5d   X1h  1 4.700000e-01    3.070000e+00
   N4d   X1h  1 4.700000e-01    3.070000e+00
   N3d   X1h  1 4.700000e-01    3.240000e+00
   N2d   X1h  1 4.700000e-01    3.240000e+00
   N1d   X1h  1 4.700000e-01    3.240000e+00
   P6a   X1h  1 4.700000e-01    2.790000e+00
   P5a   X1h  1 4.700000e-01    2.790000e+00
   P4a   X1h  1 4.700000e-01    2.960000e+00
   P3a   X1h  1 4.700000e-01    2.960000e+00
   P2a   X1h  1 4.700000e-01    2.960000e+00
   P1a   X1h  1 4.700000e-01    2.960000e+00
   N6a   X1h  1 4.700000e-01    2.960000e+00
   N5a   X1h  1 4.700000e-01    3.070000e+00
   N4a   X1h  1 4.700000e-01    3.070000e+00
   N3a   X1h  1 4.700000e-01    3.240000e+00
   N2a   X1h  1 4.700000e-01    3.240000e+00
   N1a   X1h  1 4.700000e-01    3.240000e+00
   C6v   X1h  1 4.700000e-01    3.520000e+00
   C5v   X1h  1 4.700000e-01    3.520000e+00
   C4v   X1h  1 4.700000e-01    3.520000e+00
   C3v   X1h  1 4.700000e-01    3.520000e+00
   C2v   X1h  1 4.700000e-01    3.390000e+00
   C1v   X1h  1 4.700000e-01    3.390000e+00
   X4v   X1h  1 4.700000e-01    3.520000e+00
   X3v   X1h  1 4.700000e-01    3.690000e+00
   X2v   X1h  1 4.700000e-01    3.690000e+00
   X1h   X1v  1 4.700000e-01    3.880000e+00
   C6e   X1h  1 4.700000e-01    3.520000e+00
   C5e   X1h  1 4.700000e-01    3.520000e+00
   C4e   X1h  1 4.700000e-01    3.520000e+00
   C3e   X1h  1 4.700000e-01    3.520000e+00
   C2e   X1h  1 4.700000e-01    3.390000e+00
   C1e   X1h  1 4.700000e-01    3.390000e+00
   X4e   X1h  1 4.700000e-01    3.520000e+00
   X3e   X1h  1 4.700000e-01    3.690000e+00
   X2e   X1h  1 4.700000e-01    3.690000e+00
   X1h   X1e  1 4.700000e-01    3.880000e+00
   P6q   X1h  1 4.700000e-01    3.070000e+00
   P5q   X1h  1 4.700000e-01    3.070000e+00
   P4q   X1h  1 4.700000e-01    3.240000e+00
   P3q   X1h  1 4.700000e-01    3.240000e+00
   P2q   X1h  1 4.700000e-01    3.240000e+00
   P1q   X1h  1 4.700000e-01    3.240000e+00
   N6q   X1h  1 4.700000e-01    3.240000e+00
   N5q   X1h  1 4.700000e-01    3.390000e+00
   N4q   X1h  1 4.700000e-01    3.390000e+00
   N3q   X1h  1 4.700000e-01    3.520000e+00
   N2q   X1h  1 4.700000e-01    3.520000e+00
   N1q   X1h  1 4.700000e-01    3.520000e+00
   C6q   X1h  1 4.700000e-01    3.690000e+00
   C5q   X1h  1 4.700000e-01    3.690000e+00
   C4q   X1h  1 4.700000e-01    3.690000e+00
   C3q   X1h  1 4.700000e-01    3.690000e+00
   C2q   X1h  1 4.700000e-01    3.520000e+00
   C1q   X1h  1 4.700000e-01    3.520000e+00
   X4q   X1h  1 4.700000e-01    3.690000e+00
   X3q   X1h  1 4.700000e-01    3.880000e+00
   X2q   X1h  1 4.700000e-01    3.880000e+00
   X1h   X1q  1 4.700000e-01    4.060000e+00
   X1h  X1eq  1 4.700000e-01    4.250000e+00
  X2eq   X1h  1 4.700000e-01    4.060000e+00
  X3eq   X1h  1 4.700000e-01    4.060000e+00
  X4eq   X1h  1 4.700000e-01    3.880000e+00
  C1eq   X1h  1 4.700000e-01    3.690000e+00
  C2eq   X1h  1 4.700000e-01    3.690000e+00
  C3eq   X1h  1 4.700000e-01    3.880000e+00
  C4eq   X1h  1 4.700000e-01    3.880000e+00
  C5eq   X1h  1 4.700000e-01    3.880000e+00
  C6eq   X1h  1 4.700000e-01    3.880000e+00
   X1h  X1vq  1 4.700000e-01    4.250000e+00
  X2vq   X1h  1 4.700000e-01    4.060000e+00
  X3vq   X1h  1 4.700000e-01    4.060000e+00
  X4vq   X1h  1 4.700000e-01    3.880000e+00
  C1vq   X1h  1 4.700000e-01    3.690000e+00
  C2vq   X1h  1 4.700000e-01    3.690000e+00
  C3vq   X1h  1 4.700000e-01    3.880000e+00
  C4vq   X1h  1 4.700000e-01    3.880000e+00
  C5vq   X1h  1 4.700000e-01    3.880000e+00
  C6vq   X1h  1 4.700000e-01    3.880000e+00
  N1aq   X1h  1 4.700000e-01    3.520000e+00
  N2aq   X1h  1 4.700000e-01    3.520000e+00
  N3aq   X1h  1 4.700000e-01    3.520000e+00
  N4aq   X1h  1 4.700000e-01    3.390000e+00
  N5aq   X1h  1 4.700000e-01    3.390000e+00
  N6aq   X1h  1 4.700000e-01    3.240000e+00
  P1aq   X1h  1 4.700000e-01    3.240000e+00
  P2aq   X1h  1 4.700000e-01    3.240000e+00
  P3aq   X1h  1 4.700000e-01    3.240000e+00
  P4aq   X1h  1 4.700000e-01    3.240000e+00
  P5aq   X1h  1 4.700000e-01    3.070000e+00
  P6aq   X1h  1 4.700000e-01    3.070000e+00
  N1dq   X1h  1 4.700000e-01    3.520000e+00
  N2dq   X1h  1 4.700000e-01    3.520000e+00
  N3dq   X1h  1 4.700000e-01    3.520000e+00
  N4dq   X1h  1 4.700000e-01    3.390000e+00
  N5dq   X1h  1 4.700000e-01    3.390000e+00
  N6dq   X1h  1 4.700000e-01    3.240000e+00
  P1dq   X1h  1 4.700000e-01    3.240000e+00
  P2dq   X1h  1 4.700000e-01    3.240000e+00
  P3dq   X1h  1 4.700000e-01    3.240000e+00
  P4dq   X1h  1 4.700000e-01    3.240000e+00
  P5dq   X1h  1 4.700000e-01    3.070000e+00
  P6dq   X1h  1 4.700000e-01    3.070000e+00
   P6q  P6dh  1 4.700000e-01    5.490000e+00
  P6dh   P5q  1 4.700000e-01    5.240000e+00
  P6dh   P4q  1 4.700000e-01    4.990000e+00
  P6dh   P3q  1 4.700000e-01    4.730000e+00
  P6dh   P2q  1 4.700000e-01    4.730000e+00
  P6dh   P1q  1 4.700000e-01    4.480000e+00
  P6dh   N6q  1 4.700000e-01    4.250000e+00
  P6dh   N5q  1 4.700000e-01    3.880000e+00
  P6dh   N4q  1 4.700000e-01    3.690000e+00
  P6dh   N3q  1 4.700000e-01    3.520000e+00
  P6dh   N2q  1 4.700000e-01    3.390000e+00
  P6dh   N1q  1 4.700000e-01    3.240000e+00
  P6dh   C6q  1 4.700000e-01    3.240000e+00
  P6dh   C5q  1 4.700000e-01    3.070000e+00
  P6dh   C4q  1 4.700000e-01    2.960000e+00
  P6dh   C3q  1 4.700000e-01    2.790000e+00
  P6dh   C2q  1 4.700000e-01    2.790000e+00
  P6dh   C1q  1 4.700000e-01    2.440000e+00
  P6dh   X4q  1 4.700000e-01    3.390000e+00
  P6dh   X3q  1 4.700000e-01    3.390000e+00
  P6dh   X2q  1 4.700000e-01    3.240000e+00
  P6dh   X1q  1 4.700000e-01    3.070000e+00
   P6q  P5dh  1 4.700000e-01    5.240000e+00
   P5q  P5dh  1 4.700000e-01    4.990000e+00
  P5dh   P4q  1 4.700000e-01    4.730000e+00
  P5dh   P3q  1 4.700000e-01    4.480000e+00
  P5dh   P2q  1 4.700000e-01    4.480000e+00
  P5dh   P1q  1 4.700000e-01    4.250000e+00
  P5dh   N6q  1 4.700000e-01    4.060000e+00
  P5dh   N5q  1 4.700000e-01    3.880000e+00
  P5dh   N4q  1 4.700000e-01    3.880000e+00
  P5dh   N3q  1 4.700000e-01    3.520000e+00
  P5dh   N2q  1 4.700000e-01    3.390000e+00
  P5dh   N1q  1 4.700000e-01    3.240000e+00
  P5dh   C6q  1 4.700000e-01    3.240000e+00
  P5dh   C5q  1 4.700000e-01    3.240000e+00
  P5dh   C4q  1 4.700000e-01    3.070000e+00
  P5dh   C3q  1 4.700000e-01    2.960000e+00
  P5dh   C2q  1 4.700000e-01    2.960000e+00
  P5dh   C1q  1 4.700000e-01    2.790000e+00
  P5dh   X4q  1 4.700000e-01    3.520000e+00
  P5dh   X3q  1 4.700000e-01    3.390000e+00
  P5dh   X2q  1 4.700000e-01    3.390000e+00
  P5dh   X1q  1 4.700000e-01    3.070000e+00
   P6q  P4dh  1 4.700000e-01    4.990000e+00
   P5q  P4dh  1 4.700000e-01    4.730000e+00
   P4q  P4dh  1 4.700000e-01    4.730000e+00
  P4dh   P3q  1 4.700000e-01    4.480000e+00
  P4dh   P2q  1 4.700000e-01    4.480000e+00
  P4dh   P1q  1 4.700000e-01    4.250000e+00
  P4dh   N6q  1 4.700000e-01    4.060000e+00
  P4dh   N5q  1 4.700000e-01    3.880000e+00
  P4dh   N4q  1 4.700000e-01    3.880000e+00
  P4dh   N3q  1 4.700000e-01    3.690000e+00
  P4dh   N2q  1 4.700000e-01    3.520000e+00
  P4dh   N1q  1 4.700000e-01    3.390000e+00
  P4dh   C6q  1 4.700000e-01    3.390000e+00
  P4dh   C5q  1 4.700000e-01    3.240000e+00
  P4dh   C4q  1 4.700000e-01    3.070000e+00
  P4dh   C3q  1 4.700000e-01    2.960000e+00
  P4dh   C2q  1 4.700000e-01    2.960000e+00
  P4dh   C1q  1 4.700000e-01    2.790000e+00
  P4dh   X4q  1 4.700000e-01    3.520000e+00
  P4dh   X3q  1 4.700000e-01    3.390000e+00
  P4dh   X2q  1 4.700000e-01    3.390000e+00
  P4dh   X1q  1 4.700000e-01    3.240000e+00
   P6q  P3dh  1 4.700000e-01    4.730000e+00
   P5q  P3dh  1 4.700000e-01    4.480000e+00
   P4q  P3dh  1 4.700000e-01    4.480000e+00
   P3q  P3dh  1 4.700000e-01    4.480000e+00
  P3dh   P2q  1 4.700000e-01    4.480000e+00
  P3dh   P1q  1 4.700000e-01    4.250000e+00
  P3dh   N6q  1 4.700000e-01    4.060000e+00
  P3dh   N5q  1 4.700000e-01    3.880000e+00
  P3dh   N4q  1 4.700000e-01    3.880000e+00
  P3dh   N3q  1 4.700000e-01    3.690000e+00
  P3dh   N2q  1 4.700000e-01    3.690000e+00
  P3dh   N1q  1 4.700000e-01    3.520000e+00
  P3dh   C6q  1 4.700000e-01    3.520000e+00
  P3dh   C5q  1 4.700000e-01    3.390000e+00
  P3dh   C4q  1 4.700000e-01    3.240000e+00
  P3dh   C3q  1 4.700000e-01    2.960000e+00
  P3dh   C2q  1 4.700000e-01    2.960000e+00
  P3dh   C1q  1 4.700000e-01    2.790000e+00
  P3dh   X4q  1 4.700000e-01    3.520000e+00
  P3dh   X3q  1 4.700000e-01    3.520000e+00
  P3dh   X2q  1 4.700000e-01    3.390000e+00
  P3dh   X1q  1 4.700000e-01    3.240000e+00
   P6q  P2dh  1 4.700000e-01    4.730000e+00
   P5q  P2dh  1 4.700000e-01    4.480000e+00
   P4q  P2dh  1 4.700000e-01    4.480000e+00
   P3q  P2dh  1 4.700000e-01    4.480000e+00
   P2q  P2dh  1 4.700000e-01    4.480000e+00
  P2dh   P1q  1 4.700000e-01    4.250000e+00
  P2dh   N6q  1 4.700000e-01    4.250000e+00
  P2dh   N5q  1 4.700000e-01    4.060000e+00
  P2dh   N4q  1 4.700000e-01    3.880000e+00
  P2dh   N3q  1 4.700000e-01    3.690000e+00
  P2dh   N2q  1 4.700000e-01    3.690000e+00
  P2dh   N1q  1 4.700000e-01    3.690000e+00
  P2dh   C6q  1 4.700000e-01    3.520000e+00
  P2dh   C5q  1 4.700000e-01    3.390000e+00
  P2dh   C4q  1 4.700000e-01    3.240000e+00
  P2dh   C3q  1 4.700000e-01    3.070000e+00
  P2dh   C2q  1 4.700000e-01    3.070000e+00
  P2dh   C1q  1 4.700000e-01    2.960000e+00
  P2dh   X4q  1 4.700000e-01    3.520000e+00
  P2dh   X3q  1 4.700000e-01    3.520000e+00
  P2dh   X2q  1 4.700000e-01    3.390000e+00
  P2dh   X1q  1 4.700000e-01    3.240000e+00
   P6q  P1dh  1 4.700000e-01    4.480000e+00
   P5q  P1dh  1 4.700000e-01    4.250000e+00
   P4q  P1dh  1 4.700000e-01    4.250000e+00
   P3q  P1dh  1 4.700000e-01    4.250000e+00
   P2q  P1dh  1 4.700000e-01    4.250000e+00
   P1q  P1dh  1 4.700000e-01    4.250000e+00
  P1dh   N6q  1 4.700000e-01    4.250000e+00
  P1dh   N5q  1 4.700000e-01    4.060000e+00
  P1dh   N4q  1 4.700000e-01    4.060000e+00
  P1dh   N3q  1 4.700000e-01    3.690000e+00
  P1dh   N2q  1 4.700000e-01    3.690000e+00
  P1dh   N1q  1 4.700000e-01    3.690000e+00
  P1dh   C6q  1 4.700000e-01    3.520000e+00
  P1dh   C5q  1 4.700000e-01    3.390000e+00
  P1dh   C4q  1 4.700000e-01    3.240000e+00
  P1dh   C3q  1 4.700000e-01    3.070000e+00
  P1dh   C2q  1 4.700000e-01    3.070000e+00
  P1dh   C1q  1 4.700000e-01    2.960000e+00
  P1dh   X4q  1 4.700000e-01    3.520000e+00
  P1dh   X3q  1 4.700000e-01    3.520000e+00
  P1dh   X2q  1 4.700000e-01    3.390000e+00
  P1dh   X1q  1 4.700000e-01    3.240000e+00
   P6q  N6dh  1 4.700000e-01    4.250000e+00
   P5q  N6dh  1 4.700000e-01    4.060000e+00
   P4q  N6dh  1 4.700000e-01    4.060000e+00
   P3q  N6dh  1 4.700000e-01    4.060000e+00
   P2q  N6dh  1 4.700000e-01    4.250000e+00
   P1q  N6dh  1 4.700000e-01    4.250000e+00
   N6q  N6dh  1 4.700000e-01    4.250000e+00
  N6dh   N5q  1 4.700000e-01    4.250000e+00
  N6dh   N4q  1 4.700000e-01    4.250000e+00
  N6dh   N3q  1 4.700000e-01    3.880000e+00
  N6dh   N2q  1 4.700000e-01    3.690000e+00
  N6dh   N1q  1 4.700000e-01    3.690000e+00
  N6dh   C6q  1 4.700000e-01    3.690000e+00
  N6dh   C5q  1 4.700000e-01    3.520000e+00
  N6dh   C4q  1 4.700000e-01    3.390000e+00
  N6dh   C3q  1 4.700000e-01    3.240000e+00
  N6dh   C2q  1 4.700000e-01    3.240000e+00
  N6dh   C1q  1 4.700000e-01    3.070000e+00
  N6dh   X4q  1 4.700000e-01    3.690000e+00
  N6dh   X3q  1 4.700000e-01    3.520000e+00
  N6dh   X2q  1 4.700000e-01    3.390000e+00
  N6dh   X1q  1 4.700000e-01    3.240000e+00
   P6q  N5dh  1 4.700000e-01    3.880000e+00
   P5q  N5dh  1 4.700000e-01    3.880000e+00
   P4q  N5dh  1 4.700000e-01    3.880000e+00
   P3q  N5dh  1 4.700000e-01    3.880000e+00
   P2q  N5dh  1 4.700000e-01    4.060000e+00
   P1q  N5dh  1 4.700000e-01    4.060000e+00
   N6q  N5dh  1 4.700000e-01    4.250000e+00
   N5q  N5dh  1 4.700000e-01    4.060000e+00
  N5dh   N4q  1 4.700000e-01    4.060000e+00
  N5dh   N3q  1 4.700000e-01    3.880000e+00
  N5dh   N2q  1 4.700000e-01    3.880000e+00
  N5dh   N1q  1 4.700000e-01    3.690000e+00
  N5dh   C6q  1 4.700000e-01    3.690000e+00
  N5dh   C5q  1 4.700000e-01    3.520000e+00
  N5dh   C4q  1 4.700000e-01    3.390000e+00
  N5dh   C3q  1 4.700000e-01    3.390000e+00
  N5dh   C2q  1 4.700000e-01    3.240000e+00
  N5dh   C1q  1 4.700000e-01    3.070000e+00
  N5dh   X4q  1 4.700000e-01    3.880000e+00
  N5dh   X3q  1 4.700000e-01    3.690000e+00
  N5dh   X2q  1 4.700000e-01    3.520000e+00
  N5dh   X1q  1 4.700000e-01    3.390000e+00
   P6q  N4dh  1 4.700000e-01    3.690000e+00
   P5q  N4dh  1 4.700000e-01    3.880000e+00
   P4q  N4dh  1 4.700000e-01    3.880000e+00
   P3q  N4dh  1 4.700000e-01    3.880000e+00
   P2q  N4dh  1 4.700000e-01    3.880000e+00
   P1q  N4dh  1 4.700000e-01    4.060000e+00
   N6q  N4dh  1 4.700000e-01    4.250000e+00
   N5q  N4dh  1 4.700000e-01    4.060000e+00
   N4q  N4dh  1 4.700000e-01    4.060000e+00
  N4dh   N3q  1 4.700000e-01    3.880000e+00
  N4dh   N2q  1 4.700000e-01    3.880000e+00
  N4dh   N1q  1 4.700000e-01    3.690000e+00
  N4dh   C6q  1 4.700000e-01    3.690000e+00
  N4dh   C5q  1 4.700000e-01    3.520000e+00
  N4dh   C4q  1 4.700000e-01    3.520000e+00
  N4dh   C3q  1 4.700000e-01    3.390000e+00
  N4dh   C2q  1 4.700000e-01    3.240000e+00
  N4dh   C1q  1 4.700000e-01    3.070000e+00
  N4dh   X4q  1 4.700000e-01    4.060000e+00
  N4dh   X3q  1 4.700000e-01    3.880000e+00
  N4dh   X2q  1 4.700000e-01    3.520000e+00
  N4dh   X1q  1 4.700000e-01    3.390000e+00
   P6q  N3dh  1 4.700000e-01    3.520000e+00
   P5q  N3dh  1 4.700000e-01    3.520000e+00
   P4q  N3dh  1 4.700000e-01    3.690000e+00
   P3q  N3dh  1 4.700000e-01    3.690000e+00
   P2q  N3dh  1 4.700000e-01    3.690000e+00
   P1q  N3dh  1 4.700000e-01    3.690000e+00
   N6q  N3dh  1 4.700000e-01    3.880000e+00
   N5q  N3dh  1 4.700000e-01    3.880000e+00
   N4q  N3dh  1 4.700000e-01    3.880000e+00
   N3q  N3dh  1 4.700000e-01    3.880000e+00
  N3dh   N2q  1 4.700000e-01    3.880000e+00
  N3dh   N1q  1 4.700000e-01    3.690000e+00
  N3dh   C6q  1 4.700000e-01    3.690000e+00
  N3dh   C5q  1 4.700000e-01    3.520000e+00
  N3dh   C4q  1 4.700000e-01    3.520000e+00
  N3dh   C3q  1 4.700000e-01    3.390000e+00
  N3dh   C2q  1 4.700000e-01    3.390000e+00
  N3dh   C1q  1 4.700000e-01    3.240000e+00
  N3dh   X4q  1 4.700000e-01    3.880000e+00
  N3dh   X3q  1 4.700000e-01    3.690000e+00
  N3dh   X2q  1 4.700000e-01    3.520000e+00
  N3dh   X1q  1 4.700000e-01    3.520000e+00
   P6q  N2dh  1 4.700000e-01    3.390000e+00
   P5q  N2dh  1 4.700000e-01    3.390000e+00
   P4q  N2dh  1 4.700000e-01    3.520000e+00
   P3q  N2dh  1 4.700000e-01    3.690000e+00
   P2q  N2dh  1 4.700000e-01    3.690000e+00
   P1q  N2dh  1 4.700000e-01    3.690000e+00
   N6q  N2dh  1 4.700000e-01    3.690000e+00
   N5q  N2dh  1 4.700000e-01    3.880000e+00
   N4q  N2dh  1 4.700000e-01    3.880000e+00
   N3q  N2dh  1 4.700000e-01    3.880000e+00
   N2q  N2dh  1 4.700000e-01    3.880000e+00
  N2dh   N1q  1 4.700000e-01    3.690000e+00
  N2dh   C6q  1 4.700000e-01    3.690000e+00
  N2dh   C5q  1 4.700000e-01    3.520000e+00
  N2dh   C4q  1 4.700000e-01    3.520000e+00
  N2dh   C3q  1 4.700000e-01    3.520000e+00
  N2dh   C2q  1 4.700000e-01    3.390000e+00
  N2dh   C1q  1 4.700000e-01    3.240000e+00
  N2dh   X4q  1 4.700000e-01    3.880000e+00
  N2dh   X3q  1 4.700000e-01    3.690000e+00
  N2dh   X2q  1 4.700000e-01    3.520000e+00
  N2dh   X1q  1 4.700000e-01    3.520000e+00
   P6q  N1dh  1 4.700000e-01    3.240000e+00
   P5q  N1dh  1 4.700000e-01    3.240000e+00
   P4q  N1dh  1 4.700000e-01    3.390000e+00
   P3q  N1dh  1 4.700000e-01    3.520000e+00
   P2q  N1dh  1 4.700000e-01    3.690000e+00
   P1q  N1dh  1 4.700000e-01    3.690000e+00
   N6q  N1dh  1 4.700000e-01    3.690000e+00
   N5q  N1dh  1 4.700000e-01    3.690000e+00
   N4q  N1dh  1 4.700000e-01    3.690000e+00
   N3q  N1dh  1 4.700000e-01    3.690000e+00
   N2q  N1dh  1 4.700000e-01    3.690000e+00
   N1q  N1dh  1 4.700000e-01    3.880000e+00
  N1dh   C6q  1 4.700000e-01    3.880000e+00
  N1dh   C5q  1 4.700000e-01    3.690000e+00
  N1dh   C4q  1 4.700000e-01    3.690000e+00
  N1dh   C3q  1 4.700000e-01    3.520000e+00
  N1dh   C2q  1 4.700000e-01    3.390000e+00
  N1dh   C1q  1 4.700000e-01    3.240000e+00
  N1dh   X4q  1 4.700000e-01    3.690000e+00
  N1dh   X3q  1 4.700000e-01    3.690000e+00
  N1dh   X2q  1 4.700000e-01    3.520000e+00
  N1dh   X1q  1 4.700000e-01    3.520000e+00
   P6q  P6ah  1 4.700000e-01    5.490000e+00
  P6ah   P5q  1 4.700000e-01    5.240000e+00
  P6ah   P4q  1 4.700000e-01    4.990000e+00
  P6ah   P3q  1 4.700000e-01    4.730000e+00
  P6ah   P2q  1 4.700000e-01    4.730000e+00
  P6ah   P1q  1 4.700000e-01    4.480000e+00
  P6ah   N6q  1 4.700000e-01    4.250000e+00
  P6ah   N5q  1 4.700000e-01    3.880000e+00
  P6ah   N4q  1 4.700000e-01    3.690000e+00
  P6ah   N3q  1 4.700000e-01    3.520000e+00
  P6ah   N2q  1 4.700000e-01    3.390000e+00
  P6ah   N1q  1 4.700000e-01    3.240000e+00
  P6ah   C6q  1 4.700000e-01    3.240000e+00
  P6ah   C5q  1 4.700000e-01    3.070000e+00
  P6ah   C4q  1 4.700000e-01    2.960000e+00
  P6ah   C3q  1 4.700000e-01    2.790000e+00
  P6ah   C2q  1 4.700000e-01    2.790000e+00
  P6ah   C1q  1 4.700000e-01    2.440000e+00
  P6ah   X4q  1 4.700000e-01    3.390000e+00
  P6ah   X3q  1 4.700000e-01    3.390000e+00
  P6ah   X2q  1 4.700000e-01    3.240000e+00
  P6ah   X1q  1 4.700000e-01    3.070000e+00
   P6q  P5ah  1 4.700000e-01    5.240000e+00
   P5q  P5ah  1 4.700000e-01    4.990000e+00
  P5ah   P4q  1 4.700000e-01    4.730000e+00
  P5ah   P3q  1 4.700000e-01    4.480000e+00
  P5ah   P2q  1 4.700000e-01    4.480000e+00
  P5ah   P1q  1 4.700000e-01    4.250000e+00
  P5ah   N6q  1 4.700000e-01    4.060000e+00
  P5ah   N5q  1 4.700000e-01    3.880000e+00
  P5ah   N4q  1 4.700000e-01    3.880000e+00
  P5ah   N3q  1 4.700000e-01    3.520000e+00
  P5ah   N2q  1 4.700000e-01    3.390000e+00
  P5ah   N1q  1 4.700000e-01    3.240000e+00
  P5ah   C6q  1 4.700000e-01    3.240000e+00
  P5ah   C5q  1 4.700000e-01    3.240000e+00
  P5ah   C4q  1 4.700000e-01    3.070000e+00
  P5ah   C3q  1 4.700000e-01    2.960000e+00
  P5ah   C2q  1 4.700000e-01    2.960000e+00
  P5ah   C1q  1 4.700000e-01    2.790000e+00
  P5ah   X4q  1 4.700000e-01    3.520000e+00
  P5ah   X3q  1 4.700000e-01    3.390000e+00
  P5ah   X2q  1 4.700000e-01    3.390000e+00
  P5ah   X1q  1 4.700000e-01    3.070000e+00
   P6q  P4ah  1 4.700000e-01    4.990000e+00
   P5q  P4ah  1 4.700000e-01    4.730000e+00
   P4q  P4ah  1 4.700000e-01    4.730000e+00
  P4ah   P3q  1 4.700000e-01    4.480000e+00
  P4ah   P2q  1 4.700000e-01    4.480000e+00
  P4ah   P1q  1 4.700000e-01    4.250000e+00
  P4ah   N6q  1 4.700000e-01    4.060000e+00
  P4ah   N5q  1 4.700000e-01    3.880000e+00
  P4ah   N4q  1 4.700000e-01    3.880000e+00
  P4ah   N3q  1 4.700000e-01    3.690000e+00
  P4ah   N2q  1 4.700000e-01    3.520000e+00
  P4ah   N1q  1 4.700000e-01    3.390000e+00
  P4ah   C6q  1 4.700000e-01    3.390000e+00
  P4ah   C5q  1 4.700000e-01    3.240000e+00
  P4ah   C4q  1 4.700000e-01    3.070000e+00
  P4ah   C3q  1 4.700000e-01    2.960000e+00
  P4ah   C2q  1 4.700000e-01    2.960000e+00
  P4ah   C1q  1 4.700000e-01    2.790000e+00
  P4ah   X4q  1 4.700000e-01    3.520000e+00
  P4ah   X3q  1 4.700000e-01    3.390000e+00
  P4ah   X2q  1 4.700000e-01    3.390000e+00
  P4ah   X1q  1 4.700000e-01    3.240000e+00
   P6q  P3ah  1 4.700000e-01    4.730000e+00
   P5q  P3ah  1 4.700000e-01    4.480000e+00
   P4q  P3ah  1 4.700000e-01    4.480000e+00
   P3q  P3ah  1 4.700000e-01    4.480000e+00
  P3ah   P2q  1 4.700000e-01    4.480000e+00
  P3ah   P1q  1 4.700000e-01    4.250000e+00
  P3ah   N6q  1 4.700000e-01    4.060000e+00
  P3ah   N5q  1 4.700000e-01    3.880000e+00
  P3ah   N4q  1 4.700000e-01    3.880000e+00
  P3ah   N3q  1 4.700000e-01    3.690000e+00
  P3ah   N2q  1 4.700000e-01    3.690000e+00
  P3ah   N1q  1 4.700000e-01    3.520000e+00
  P3ah   C6q  1 4.700000e-01    3.520000e+00
  P3ah   C5q  1 4.700000e-01    3.390000e+00
  P3ah   C4q  1 4.700000e-01    3.240000e+00
  P3ah   C3q  1 4.700000e-01    2.960000e+00
  P3ah   C2q  1 4.700000e-01    2.960000e+00
  P3ah   C1q  1 4.700000e-01    2.790000e+00
  P3ah   X4q  1 4.700000e-01    3.520000e+00
  P3ah   X3q  1 4.700000e-01    3.520000e+00
  P3ah   X2q  1 4.700000e-01    3.390000e+00
  P3ah   X1q  1 4.700000e-01    3.240000e+00
   P6q  P2ah  1 4.700000e-01    4.730000e+00
   P5q  P2ah  1 4.700000e-01    4.480000e+00
   P4q  P2ah  1 4.700000e-01    4.480000e+00
   P3q  P2ah  1 4.700000e-01    4.480000e+00
   P2q  P2ah  1 4.700000e-01    4.480000e+00
  P2ah   P1q  1 4.700000e-01    4.250000e+00
  P2ah   N6q  1 4.700000e-01    4.250000e+00
  P2ah   N5q  1 4.700000e-01    4.060000e+00
  P2ah   N4q  1 4.700000e-01    3.880000e+00
  P2ah   N3q  1 4.700000e-01    3.690000e+00
  P2ah   N2q  1 4.700000e-01    3.690000e+00
  P2ah   N1q  1 4.700000e-01    3.690000e+00
  P2ah   C6q  1 4.700000e-01    3.520000e+00
  P2ah   C5q  1 4.700000e-01    3.390000e+00
  P2ah   C4q  1 4.700000e-01    3.240000e+00
  P2ah   C3q  1 4.700000e-01    3.070000e+00
  P2ah   C2q  1 4.700000e-01    3.070000e+00
  P2ah   C1q  1 4.700000e-01    2.960000e+00
  P2ah   X4q  1 4.700000e-01    3.520000e+00
  P2ah   X3q  1 4.700000e-01    3.520000e+00
  P2ah   X2q  1 4.700000e-01    3.390000e+00
  P2ah   X1q  1 4.700000e-01    3.240000e+00
   P6q  P1ah  1 4.700000e-01    4.480000e+00
   P5q  P1ah  1 4.700000e-01    4.250000e+00
   P4q  P1ah  1 4.700000e-01    4.250000e+00
   P3q  P1ah  1 4.700000e-01    4.250000e+00
   P2q  P1ah  1 4.700000e-01    4.250000e+00
   P1q  P1ah  1 4.700000e-01    4.250000e+00
  P1ah   N6q  1 4.700000e-01    4.250000e+00
  P1ah   N5q  1 4.700000e-01    4.060000e+00
  P1ah   N4q  1 4.700000e-01    4.060000e+00
  P1ah   N3q  1 4.700000e-01    3.690000e+00
  P1ah   N2q  1 4.700000e-01    3.690000e+00
  P1ah   N1q  1 4.700000e-01    3.690000e+00
  P1ah   C6q  1 4.700000e-01    3.520000e+00
  P1ah   C5q  1 4.700000e-01    3.390000e+00
  P1ah   C4q  1 4.700000e-01    3.240000e+00
  P1ah   C3q  1 4.700000e-01    3.070000e+00
  P1ah   C2q  1 4.700000e-01    3.070000e+00
  P1ah   C1q  1 4.700000e-01    2.960000e+00
  P1ah   X4q  1 4.700000e-01    3.520000e+00
  P1ah   X3q  1 4.700000e-01    3.520000e+00
  P1ah   X2q  1 4.700000e-01    3.390000e+00
  P1ah   X1q  1 4.700000e-01    3.240000e+00
   P6q  N6ah  1 4.700000e-01    4.250000e+00
   P5q  N6ah  1 4.700000e-01    4.060000e+00
   P4q  N6ah  1 4.700000e-01    4.060000e+00
   P3q  N6ah  1 4.700000e-01    4.060000e+00
   P2q  N6ah  1 4.700000e-01    4.250000e+00
   P1q  N6ah  1 4.700000e-01    4.250000e+00
   N6q  N6ah  1 4.700000e-01    4.250000e+00
  N6ah   N5q  1 4.700000e-01    4.250000e+00
  N6ah   N4q  1 4.700000e-01    4.250000e+00
  N6ah   N3q  1 4.700000e-01    3.880000e+00
  N6ah   N2q  1 4.700000e-01    3.690000e+00
  N6ah   N1q  1 4.700000e-01    3.690000e+00
  N6ah   C6q  1 4.700000e-01    3.690000e+00
  N6ah   C5q  1 4.700000e-01    3.520000e+00
  N6ah   C4q  1 4.700000e-01    3.390000e+00
  N6ah   C3q  1 4.700000e-01    3.240000e+00
  N6ah   C2q  1 4.700000e-01    3.240000e+00
  N6ah   C1q  1 4.700000e-01    3.070000e+00
  N6ah   X4q  1 4.700000e-01    3.690000e+00
  N6ah   X3q  1 4.700000e-01    3.520000e+00
  N6ah   X2q  1 4.700000e-01    3.390000e+00
  N6ah   X1q  1 4.700000e-01    3.240000e+00
   P6q  N5ah  1 4.700000e-01    3.880000e+00
   P5q  N5ah  1 4.700000e-01    3.880000e+00
   P4q  N5ah  1 4.700000e-01    3.880000e+00
   P3q  N5ah  1 4.700000e-01    3.880000e+00
   P2q  N5ah  1 4.700000e-01    4.060000e+00
   P1q  N5ah  1 4.700000e-01    4.060000e+00
   N6q  N5ah  1 4.700000e-01    4.250000e+00
   N5q  N5ah  1 4.700000e-01    4.060000e+00
  N5ah   N4q  1 4.700000e-01    4.060000e+00
  N5ah   N3q  1 4.700000e-01    3.880000e+00
  N5ah   N2q  1 4.700000e-01    3.880000e+00
  N5ah   N1q  1 4.700000e-01    3.690000e+00
  N5ah   C6q  1 4.700000e-01    3.690000e+00
  N5ah   C5q  1 4.700000e-01    3.520000e+00
  N5ah   C4q  1 4.700000e-01    3.390000e+00
  N5ah   C3q  1 4.700000e-01    3.390000e+00
  N5ah   C2q  1 4.700000e-01    3.240000e+00
  N5ah   C1q  1 4.700000e-01    3.070000e+00
  N5ah   X4q  1 4.700000e-01    3.880000e+00
  N5ah   X3q  1 4.700000e-01    3.690000e+00
  N5ah   X2q  1 4.700000e-01    3.520000e+00
  N5ah   X1q  1 4.700000e-01    3.390000e+00
   P6q  N4ah  1 4.700000e-01    3.690000e+00
   P5q  N4ah  1 4.700000e-01    3.880000e+00
   P4q  N4ah  1 4.700000e-01    3.880000e+00
   P3q  N4ah  1 4.700000e-01    3.880000e+00
   P2q  N4ah  1 4.700000e-01    3.880000e+00
   P1q  N4ah  1 4.700000e-01    4.060000e+00
   N6q  N4ah  1 4.700000e-01    4.250000e+00
   N5q  N4ah  1 4.700000e-01    4.060000e+00
   N4q  N4ah  1 4.700000e-01    4.060000e+00
  N4ah   N3q  1 4.700000e-01    3.880000e+00
  N4ah   N2q  1 4.700000e-01    3.880000e+00
  N4ah   N1q  1 4.700000e-01    3.690000e+00
  N4ah   C6q  1 4.700000e-01    3.690000e+00
  N4ah   C5q  1 4.700000e-01    3.520000e+00
  N4ah   C4q  1 4.700000e-01    3.520000e+00
  N4ah   C3q  1 4.700000e-01    3.390000e+00
  N4ah   C2q  1 4.700000e-01    3.240000e+00
  N4ah   C1q  1 4.700000e-01    3.070000e+00
  N4ah   X4q  1 4.700000e-01    4.060000e+00
  N4ah   X3q  1 4.700000e-01    3.880000e+00
  N4ah   X2q  1 4.700000e-01    3.520000e+00
  N4ah   X1q  1 4.700000e-01    3.390000e+00
   P6q  N3ah  1 4.700000e-01    3.520000e+00
   P5q  N3ah  1 4.700000e-01    3.520000e+00
   P4q  N3ah  1 4.700000e-01    3.690000e+00
   P3q  N3ah  1 4.700000e-01    3.690000e+00
   P2q  N3ah  1 4.700000e-01    3.690000e+00
   P1q  N3ah  1 4.700000e-01    3.690000e+00
   N6q  N3ah  1 4.700000e-01    3.880000e+00
   N5q  N3ah  1 4.700000e-01    3.880000e+00
   N4q  N3ah  1 4.700000e-01    3.880000e+00
   N3q  N3ah  1 4.700000e-01    3.880000e+00
  N3ah   N2q  1 4.700000e-01    3.880000e+00
  N3ah   N1q  1 4.700000e-01    3.690000e+00
  N3ah   C6q  1 4.700000e-01    3.690000e+00
  N3ah   C5q  1 4.700000e-01    3.520000e+00
  N3ah   C4q  1 4.700000e-01    3.520000e+00
  N3ah   C3q  1 4.700000e-01    3.390000e+00
  N3ah   C2q  1 4.700000e-01    3.390000e+00
  N3ah   C1q  1 4.700000e-01    3.240000e+00
  N3ah   X4q  1 4.700000e-01    3.880000e+00
  N3ah   X3q  1 4.700000e-01    3.690000e+00
  N3ah   X2q  1 4.700000e-01    3.520000e+00
  N3ah   X1q  1 4.700000e-01    3.520000e+00
   P6q  N2ah  1 4.700000e-01    3.390000e+00
   P5q  N2ah  1 4.700000e-01    3.390000e+00
   P4q  N2ah  1 4.700000e-01    3.520000e+00
   P3q  N2ah  1 4.700000e-01    3.690000e+00
   P2q  N2ah  1 4.700000e-01    3.690000e+00
   P1q  N2ah  1 4.700000e-01    3.690000e+00
   N6q  N2ah  1 4.700000e-01    3.690000e+00
   N5q  N2ah  1 4.700000e-01    3.880000e+00
   N4q  N2ah  1 4.700000e-01    3.880000e+00
   N3q  N2ah  1 4.700000e-01    3.880000e+00
   N2q  N2ah  1 4.700000e-01    3.880000e+00
  N2ah   N1q  1 4.700000e-01    3.690000e+00
  N2ah   C6q  1 4.700000e-01    3.690000e+00
  N2ah   C5q  1 4.700000e-01    3.520000e+00
  N2ah   C4q  1 4.700000e-01    3.520000e+00
  N2ah   C3q  1 4.700000e-01    3.520000e+00
  N2ah   C2q  1 4.700000e-01    3.390000e+00
  N2ah   C1q  1 4.700000e-01    3.240000e+00
  N2ah   X4q  1 4.700000e-01    3.880000e+00
  N2ah   X3q  1 4.700000e-01    3.690000e+00
  N2ah   X2q  1 4.700000e-01    3.520000e+00
  N2ah   X1q  1 4.700000e-01    3.520000e+00
   P6q  N1ah  1 4.700000e-01    3.240000e+00
   P5q  N1ah  1 4.700000e-01    3.240000e+00
   P4q  N1ah  1 4.700000e-01    3.390000e+00
   P3q  N1ah  1 4.700000e-01    3.520000e+00
   P2q  N1ah  1 4.700000e-01    3.690000e+00
   P1q  N1ah  1 4.700000e-01    3.690000e+00
   N6q  N1ah  1 4.700000e-01    3.690000e+00
   N5q  N1ah  1 4.700000e-01    3.690000e+00
   N4q  N1ah  1 4.700000e-01    3.690000e+00
   N3q  N1ah  1 4.700000e-01    3.690000e+00
   N2q  N1ah  1 4.700000e-01    3.690000e+00
   N1q  N1ah  1 4.700000e-01    3.880000e+00
  N1ah   C6q  1 4.700000e-01    3.880000e+00
  N1ah   C5q  1 4.700000e-01    3.690000e+00
  N1ah   C4q  1 4.700000e-01    3.690000e+00
  N1ah   C3q  1 4.700000e-01    3.520000e+00
  N1ah   C2q  1 4.700000e-01    3.390000e+00
  N1ah   C1q  1 4.700000e-01    3.240000e+00
  N1ah   X4q  1 4.700000e-01    3.690000e+00
  N1ah   X3q  1 4.700000e-01    3.690000e+00
  N1ah   X2q  1 4.700000e-01    3.520000e+00
  N1ah   X1q  1 4.700000e-01    3.520000e+00
   C6v  C6vh  1 4.700000e-01    3.390000e+00
  C6vh   C5v  1 4.700000e-01    3.240000e+00
  C6vh   C4v  1 4.700000e-01    3.240000e+00
  C6vh   C3v  1 4.700000e-01    3.070000e+00
  C6vh   C2v  1 4.700000e-01    2.960000e+00
  C6vh   C1v  1 4.700000e-01    2.790000e+00
  C6vh   X4v  1 4.700000e-01    3.240000e+00
  C6vh   X3v  1 4.700000e-01    3.240000e+00
  C6vh   X2v  1 4.700000e-01    3.240000e+00
  C6vh   X1v  1 4.700000e-01    3.240000e+00
   P6q  C6vh  1 4.700000e-01    3.390000e+00
   P5q  C6vh  1 4.700000e-01    3.390000e+00
   P4q  C6vh  1 4.700000e-01    3.520000e+00
   P3q  C6vh  1 4.700000e-01    3.690000e+00
   P2q  C6vh  1 4.700000e-01    3.690000e+00
   P1q  C6vh  1 4.700000e-01    3.690000e+00
   N6q  C6vh  1 4.700000e-01    3.880000e+00
   N5q  C6vh  1 4.700000e-01    3.880000e+00
   N4q  C6vh  1 4.700000e-01    3.880000e+00
   N3q  C6vh  1 4.700000e-01    3.880000e+00
   N2q  C6vh  1 4.700000e-01    3.880000e+00
   N1q  C6vh  1 4.700000e-01    4.060000e+00
   C6q  C6vh  1 4.700000e-01    4.060000e+00
  C6vh   C5q  1 4.700000e-01    3.880000e+00
  C6vh   C4q  1 4.700000e-01    3.880000e+00
  C6vh   C3q  1 4.700000e-01    3.690000e+00
  C6vh   C2q  1 4.700000e-01    3.520000e+00
  C6vh   C1q  1 4.700000e-01    3.390000e+00
  C6vh   X4q  1 4.700000e-01    3.880000e+00
  C6vh   X3q  1 4.700000e-01    3.880000e+00
  C6vh   X2q  1 4.700000e-01    3.880000e+00
  C6vh   X1q  1 4.700000e-01    3.880000e+00
  C6vh  C6vq  1 4.700000e-01    3.690000e+00
  C6vh  X1vq  1 4.700000e-01    3.520000e+00
  C6vh  X2vq  1 4.700000e-01    3.520000e+00
  C6vh  X3vq  1 4.700000e-01    3.520000e+00
  C6vh  X4vq  1 4.700000e-01    3.520000e+00
  C6vh  C1vq  1 4.700000e-01    3.070000e+00
  C6vh  C2vq  1 4.700000e-01    3.240000e+00
  C6vh  C3vq  1 4.700000e-01    3.390000e+00
  C6vh  C4vq  1 4.700000e-01    3.520000e+00
  C6vh  C5vq  1 4.700000e-01    3.520000e+00
   C5v  C5vh  1 4.700000e-01    3.240000e+00
  C5vh   C4v  1 4.700000e-01    3.240000e+00
  C5vh   C3v  1 4.700000e-01    3.070000e+00
  C5vh   C2v  1 4.700000e-01    2.960000e+00
  C5vh   C1v  1 4.700000e-01    2.960000e+00
  C5vh   X4v  1 4.700000e-01    3.070000e+00
  C5vh   X3v  1 4.700000e-01    3.070000e+00
  C5vh   X2v  1 4.700000e-01    3.070000e+00
  C5vh   X1v  1 4.700000e-01    3.240000e+00
   P6q  C5vh  1 4.700000e-01    3.240000e+00
   P5q  C5vh  1 4.700000e-01    3.390000e+00
   P4q  C5vh  1 4.700000e-01    3.390000e+00
   P3q  C5vh  1 4.700000e-01    3.520000e+00
   P2q  C5vh  1 4.700000e-01    3.520000e+00
   P1q  C5vh  1 4.700000e-01    3.520000e+00
   N6q  C5vh  1 4.700000e-01    3.690000e+00
   N5q  C5vh  1 4.700000e-01    3.690000e+00
   N4q  C5vh  1 4.700000e-01    3.690000e+00
   N3q  C5vh  1 4.700000e-01    3.690000e+00
   N2q  C5vh  1 4.700000e-01    3.690000e+00
   N1q  C5vh  1 4.700000e-01    3.880000e+00
   C6q  C5vh  1 4.700000e-01    3.880000e+00
   C5q  C5vh  1 4.700000e-01    3.880000e+00
  C5vh   C4q  1 4.700000e-01    3.880000e+00
  C5vh   C3q  1 4.700000e-01    3.690000e+00
  C5vh   C2q  1 4.700000e-01    3.520000e+00
  C5vh   C1q  1 4.700000e-01    3.520000e+00
  C5vh   X4q  1 4.700000e-01    3.690000e+00
  C5vh   X3q  1 4.700000e-01    3.690000e+00
  C5vh   X2q  1 4.700000e-01    3.690000e+00
  C5vh   X1q  1 4.700000e-01    3.880000e+00
  C6vq  C5vh  1 4.700000e-01    3.520000e+00
  C5vh  C5vq  1 4.700000e-01    3.520000e+00
  C5vh  X1vq  1 4.700000e-01    3.520000e+00
  C5vh  X2vq  1 4.700000e-01    3.390000e+00
  C5vh  X3vq  1 4.700000e-01    3.390000e+00
  C5vh  X4vq  1 4.700000e-01    3.390000e+00
  C5vh  C1vq  1 4.700000e-01    3.240000e+00
  C5vh  C2vq  1 4.700000e-01    3.240000e+00
  C5vh  C3vq  1 4.700000e-01    3.390000e+00
  C5vh  C4vq  1 4.700000e-01    3.520000e+00
   C4v  C4vh  1 4.700000e-01    3.240000e+00
  C4vh   C3v  1 4.700000e-01    3.240000e+00
  C4vh   C2v  1 4.700000e-01    3.070000e+00
  C4vh   C1v  1 4.700000e-01    2.960000e+00
  C4vh   X4v  1 4.700000e-01    3.070000e+00
  C4vh   X3v  1 4.700000e-01    3.070000e+00
  C4vh   X2v  1 4.700000e-01    3.070000e+00
  C4vh   X1v  1 4.700000e-01    3.240000e+00
   P6q  C4vh  1 4.700000e-01    3.070000e+00
   P5q  C4vh  1 4.700000e-01    3.240000e+00
   P4q  C4vh  1 4.700000e-01    3.240000e+00
   P3q  C4vh  1 4.700000e-01    3.390000e+00
   P2q  C4vh  1 4.700000e-01    3.390000e+00
   P1q  C4vh  1 4.700000e-01    3.390000e+00
   N6q  C4vh  1 4.700000e-01    3.520000e+00
   N5q  C4vh  1 4.700000e-01    3.520000e+00
   N4q  C4vh  1 4.700000e-01    3.690000e+00
   N3q  C4vh  1 4.700000e-01    3.690000e+00
   N2q  C4vh  1 4.700000e-01    3.690000e+00
   N1q  C4vh  1 4.700000e-01    3.880000e+00
   C6q  C4vh  1 4.700000e-01    3.880000e+00
   C5q  C4vh  1 4.700000e-01    3.880000e+00
   C4q  C4vh  1 4.700000e-01    3.880000e+00
  C4vh   C3q  1 4.700000e-01    3.880000e+00
  C4vh   C2q  1 4.700000e-01    3.690000e+00
  C4vh   C1q  1 4.700000e-01    3.520000e+00
  C4vh   X4q  1 4.700000e-01    3.690000e+00
  C4vh   X3q  1 4.700000e-01    3.690000e+00
  C4vh   X2q  1 4.700000e-01    3.690000e+00
  C4vh   X1q  1 4.700000e-01    3.880000e+00
  C6vq  C4vh  1 4.700000e-01    3.520000e+00
  C5vq  C4vh  1 4.700000e-01    3.520000e+00
  C4vh  C4vq  1 4.700000e-01    3.520000e+00
  C4vh  X1vq  1 4.700000e-01    3.520000e+00
  C4vh  X2vq  1 4.700000e-01    3.390000e+00
  C4vh  X3vq  1 4.700000e-01    3.390000e+00
  C4vh  X4vq  1 4.700000e-01    3.390000e+00
  C4vh  C1vq  1 4.700000e-01    3.240000e+00
  C4vh  C2vq  1 4.700000e-01    3.390000e+00
  C4vh  C3vq  1 4.700000e-01    3.520000e+00
   C3v  C3vh  1 4.700000e-01    3.240000e+00
  C3vh   C2v  1 4.700000e-01    3.240000e+00
  C3vh   C1v  1 4.700000e-01    3.240000e+00
  C3vh   X4v  1 4.700000e-01    3.070000e+00
  C3vh   X3v  1 4.700000e-01    3.070000e+00
  C3vh   X2v  1 4.700000e-01    3.070000e+00
  C3vh   X1v  1 4.700000e-01    3.240000e+00
   P6q  C3vh  1 4.700000e-01    2.960000e+00
   P5q  C3vh  1 4.700000e-01    3.070000e+00
   P4q  C3vh  1 4.700000e-01    3.070000e+00
   P3q  C3vh  1 4.700000e-01    3.070000e+00
   P2q  C3vh  1 4.700000e-01    3.240000e+00
   P1q  C3vh  1 4.700000e-01    3.240000e+00
   N6q  C3vh  1 4.700000e-01    3.390000e+00
   N5q  C3vh  1 4.700000e-01    3.520000e+00
   N4q  C3vh  1 4.700000e-01    3.520000e+00
   N3q  C3vh  1 4.700000e-01    3.520000e+00
   N2q  C3vh  1 4.700000e-01    3.690000e+00
   N1q  C3vh  1 4.700000e-01    3.690000e+00
   C6q  C3vh  1 4.700000e-01    3.690000e+00
   C5q  C3vh  1 4.700000e-01    3.690000e+00
   C4q  C3vh  1 4.700000e-01    3.880000e+00
   C3q  C3vh  1 4.700000e-01    3.880000e+00
  C3vh   C2q  1 4.700000e-01    3.880000e+00
  C3vh   C1q  1 4.700000e-01    3.880000e+00
  C3vh   X4q  1 4.700000e-01    3.690000e+00
  C3vh   X3q  1 4.700000e-01    3.690000e+00
  C3vh   X2q  1 4.700000e-01    3.690000e+00
  C3vh   X1q  1 4.700000e-01    3.880000e+00
  C6vq  C3vh  1 4.700000e-01    3.390000e+00
  C5vq  C3vh  1 4.700000e-01    3.390000e+00
  C4vq  C3vh  1 4.700000e-01    3.520000e+00
  C3vh  C3vq  1 4.700000e-01    3.520000e+00
  C3vh  X1vq  1 4.700000e-01    3.520000e+00
  C3vh  X2vq  1 4.700000e-01    3.390000e+00
  C3vh  X3vq  1 4.700000e-01    3.390000e+00
  C3vh  X4vq  1 4.700000e-01    3.390000e+00
  C3vh  C1vq  1 4.700000e-01    3.520000e+00
  C3vh  C2vq  1 4.700000e-01    3.520000e+00
   C2v  C2vh  1 4.700000e-01    3.240000e+00
  C2vh   C1v  1 4.700000e-01    3.390000e+00
  C2vh   X4v  1 4.700000e-01    2.790000e+00
  C2vh   X3v  1 4.700000e-01    3.070000e+00
  C2vh   X2v  1 4.700000e-01    3.070000e+00
  C2vh   X1v  1 4.700000e-01    3.070000e+00
   P6q  C2vh  1 4.700000e-01    2.960000e+00
   P5q  C2vh  1 4.700000e-01    3.070000e+00
   P4q  C2vh  1 4.700000e-01    3.070000e+00
   P3q  C2vh  1 4.700000e-01    3.070000e+00
   P2q  C2vh  1 4.700000e-01    3.240000e+00
   P1q  C2vh  1 4.700000e-01    3.240000e+00
   N6q  C2vh  1 4.700000e-01    3.390000e+00
   N5q  C2vh  1 4.700000e-01    3.390000e+00
   N4q  C2vh  1 4.700000e-01    3.390000e+00
   N3q  C2vh  1 4.700000e-01    3.520000e+00
   N2q  C2vh  1 4.700000e-01    3.520000e+00
   N1q  C2vh  1 4.700000e-01    3.520000e+00
   C6q  C2vh  1 4.700000e-01    3.520000e+00
   C5q  C2vh  1 4.700000e-01    3.520000e+00
   C4q  C2vh  1 4.700000e-01    3.690000e+00
   C3q  C2vh  1 4.700000e-01    3.880000e+00
   C2q  C2vh  1 4.700000e-01    3.880000e+00
  C2vh   C1q  1 4.700000e-01    4.060000e+00
  C2vh   X4q  1 4.700000e-01    3.390000e+00
  C2vh   X3q  1 4.700000e-01    3.690000e+00
  C2vh   X2q  1 4.700000e-01    3.690000e+00
  C2vh   X1q  1 4.700000e-01    3.690000e+00
  C6vq  C2vh  1 4.700000e-01    3.240000e+00
  C5vq  C2vh  1 4.700000e-01    3.240000e+00
  C4vq  C2vh  1 4.700000e-01    3.390000e+00
  C3vq  C2vh  1 4.700000e-01    3.520000e+00
  C2vh  C2vq  1 4.700000e-01    3.520000e+00
  C2vh  X1vq  1 4.700000e-01    3.390000e+00
  C2vh  X2vq  1 4.700000e-01    3.390000e+00
  C2vh  X3vq  1 4.700000e-01    3.390000e+00
  C2vh  X4vq  1 4.700000e-01    3.070000e+00
  C2vh  C1vq  1 4.700000e-01    3.690000e+00
   C1v  C1vh  1 4.700000e-01    3.240000e+00
  C1vh   X4v  1 4.700000e-01    2.790000e+00
  C1vh   X3v  1 4.700000e-01    3.070000e+00
  C1vh   X2v  1 4.700000e-01    3.070000e+00
  C1vh   X1v  1 4.700000e-01    3.070000e+00
   P6q  C1vh  1 4.700000e-01    2.620000e+00
   P5q  C1vh  1 4.700000e-01    2.960000e+00
   P4q  C1vh  1 4.700000e-01    2.960000e+00
   P3q  C1vh  1 4.700000e-01    2.960000e+00
   P2q  C1vh  1 4.700000e-01    3.070000e+00
   P1q  C1vh  1 4.700000e-01    3.070000e+00
   N6q  C1vh  1 4.700000e-01    3.240000e+00
   N5q  C1vh  1 4.700000e-01    3.240000e+00
   N4q  C1vh  1 4.700000e-01    3.240000e+00
   N3q  C1vh  1 4.700000e-01    3.390000e+00
   N2q  C1vh  1 4.700000e-01    3.390000e+00
   N1q  C1vh  1 4.700000e-01    3.390000e+00
   C6q  C1vh  1 4.700000e-01    3.390000e+00
   C5q  C1vh  1 4.700000e-01    3.520000e+00
   C4q  C1vh  1 4.700000e-01    3.520000e+00
   C3q  C1vh  1 4.700000e-01    3.880000e+00
   C2q  C1vh  1 4.700000e-01    4.060000e+00
   C1q  C1vh  1 4.700000e-01    3.880000e+00
  C1vh   X4q  1 4.700000e-01    3.390000e+00
  C1vh   X3q  1 4.700000e-01    3.690000e+00
  C1vh   X2q  1 4.700000e-01    3.690000e+00
  C1vh   X1q  1 4.700000e-01    3.690000e+00
  C6vq  C1vh  1 4.700000e-01    3.070000e+00
  C5vq  C1vh  1 4.700000e-01    3.240000e+00
  C4vq  C1vh  1 4.700000e-01    3.240000e+00
  C3vq  C1vh  1 4.700000e-01    3.520000e+00
  C2vq  C1vh  1 4.700000e-01    3.690000e+00
  C1vh  C1vq  1 4.700000e-01    3.520000e+00
  C1vh  X1vq  1 4.700000e-01    3.390000e+00
  C1vh  X2vq  1 4.700000e-01    3.390000e+00
  C1vh  X3vq  1 4.700000e-01    3.390000e+00
  C1vh  X4vq  1 4.700000e-01    3.070000e+00
   X4v  X4vh  1 4.700000e-01    3.240000e+00
  X4vh   X3v  1 4.700000e-01    3.240000e+00
  X4vh   X2v  1 4.700000e-01    3.240000e+00
  X4vh   X1v  1 4.700000e-01    3.240000e+00
   P6q  X4vh  1 4.700000e-01    3.520000e+00
   P5q  X4vh  1 4.700000e-01    3.690000e+00
   P4q  X4vh  1 4.700000e-01    3.690000e+00
   P3q  X4vh  1 4.700000e-01    3.690000e+00
   P2q  X4vh  1 4.700000e-01    3.690000e+00
   P1q  X4vh  1 4.700000e-01    3.690000e+00
   N6q  X4vh  1 4.700000e-01    3.880000e+00
   N5q  X4vh  1 4.700000e-01    4.060000e+00
   N4q  X4vh  1 4.700000e-01    4.250000e+00
   N3q  X4vh  1 4.700000e-01    4.060000e+00
   N2q  X4vh  1 4.700000e-01    4.060000e+00
   N1q  X4vh  1 4.700000e-01    3.880000e+00
   C6q  X4vh  1 4.700000e-01    3.880000e+00
   C5q  X4vh  1 4.700000e-01    3.690000e+00
   C4q  X4vh  1 4.700000e-01    3.690000e+00
   C3q  X4vh  1 4.700000e-01    3.690000e+00
   C2q  X4vh  1 4.700000e-01    3.390000e+00
   C1q  X4vh  1 4.700000e-01    3.390000e+00
   X4q  X4vh  1 4.700000e-01    3.880000e+00
  X4vh   X3q  1 4.700000e-01    3.880000e+00
  X4vh   X2q  1 4.700000e-01    3.880000e+00
  X4vh   X1q  1 4.700000e-01    3.880000e+00
  C6vq  X4vh  1 4.700000e-01    3.520000e+00
  C5vq  X4vh  1 4.700000e-01    3.390000e+00
  C4vq  X4vh  1 4.700000e-01    3.390000e+00
  C3vq  X4vh  1 4.700000e-01    3.390000e+00
  C2vq  X4vh  1 4.700000e-01    3.070000e+00
  C1vq  X4vh  1 4.700000e-01    3.070000e+00
  X4vh  X4vq  1 4.700000e-01    3.520000e+00
  X4vh  X1vq  1 4.700000e-01    3.520000e+00
  X4vh  X2vq  1 4.700000e-01    3.520000e+00
  X4vh  X3vq  1 4.700000e-01    3.520000e+00
   X3v  X3vh  1 4.700000e-01    3.240000e+00
  X3vh   X2v  1 4.700000e-01    3.390000e+00
  X3vh   X1v  1 4.700000e-01    3.390000e+00
   P6q  X3vh  1 4.700000e-01    3.520000e+00
   P5q  X3vh  1 4.700000e-01    3.520000e+00
   P4q  X3vh  1 4.700000e-01    3.520000e+00
   P3q  X3vh  1 4.700000e-01    3.690000e+00
   P2q  X3vh  1 4.700000e-01    3.690000e+00
   P1q  X3vh  1 4.700000e-01    3.690000e+00
   N6q  X3vh  1 4.700000e-01    3.690000e+00
   N5q  X3vh  1 4.700000e-01    3.880000e+00
   N4q  X3vh  1 4.700000e-01    4.060000e+00
   N3q  X3vh  1 4.700000e-01    3.880000e+00
   N2q  X3vh  1 4.700000e-01    3.880000e+00
   N1q  X3vh  1 4.700000e-01    3.880000e+00
   C6q  X3vh  1 4.700000e-01    3.880000e+00
   C5q  X3vh  1 4.700000e-01    3.690000e+00
   C4q  X3vh  1 4.700000e-01    3.690000e+00
   C3q  X3vh  1 4.700000e-01    3.690000e+00
   C2q  X3vh  1 4.700000e-01    3.690000e+00
   C1q  X3vh  1 4.700000e-01    3.690000e+00
   X4q  X3vh  1 4.700000e-01    3.880000e+00
   X3q  X3vh  1 4.700000e-01    3.880000e+00
  X3vh   X2q  1 4.700000e-01    4.060000e+00
  X3vh   X1q  1 4.700000e-01    4.060000e+00
  C6vq  X3vh  1 4.700000e-01    3.520000e+00
  C5vq  X3vh  1 4.700000e-01    3.390000e+00
  C4vq  X3vh  1 4.700000e-01    3.390000e+00
  C3vq  X3vh  1 4.700000e-01    3.390000e+00
  C2vq  X3vh  1 4.700000e-01    3.390000e+00
  C1vq  X3vh  1 4.700000e-01    3.390000e+00
  X4vq  X3vh  1 4.700000e-01    3.520000e+00
  X3vh  X3vq  1 4.700000e-01    3.520000e+00
  X3vh  X1vq  1 4.700000e-01    3.690000e+00
  X3vh  X2vq  1 4.700000e-01    3.690000e+00
   X2v  X2vh  1 4.700000e-01    3.390000e+00
  X2vh   X1v  1 4.700000e-01    3.390000e+00
   P6q  X2vh  1 4.700000e-01    3.390000e+00
   P5q  X2vh  1 4.700000e-01    3.520000e+00
   P4q  X2vh  1 4.700000e-01    3.520000e+00
   P3q  X2vh  1 4.700000e-01    3.520000e+00
   P2q  X2vh  1 4.700000e-01    3.520000e+00
   P1q  X2vh  1 4.700000e-01    3.520000e+00
   N6q  X2vh  1 4.700000e-01    3.520000e+00
   N5q  X2vh  1 4.700000e-01    3.690000e+00
   N4q  X2vh  1 4.700000e-01    3.690000e+00
   N3q  X2vh  1 4.700000e-01    3.690000e+00
   N2q  X2vh  1 4.700000e-01    3.690000e+00
   N1q  X2vh  1 4.700000e-01    3.690000e+00
   C6q  X2vh  1 4.700000e-01    3.880000e+00
   C5q  X2vh  1 4.700000e-01    3.690000e+00
   C4q  X2vh  1 4.700000e-01    3.690000e+00
   C3q  X2vh  1 4.700000e-01    3.690000e+00
   C2q  X2vh  1 4.700000e-01    3.690000e+00
   C1q  X2vh  1 4.700000e-01    3.690000e+00
   X4q  X2vh  1 4.700000e-01    3.880000e+00
   X3q  X2vh  1 4.700000e-01    4.060000e+00
   X2q  X2vh  1 4.700000e-01    4.060000e+00
  X2vh   X1q  1 4.700000e-01    4.060000e+00
  C6vq  X2vh  1 4.700000e-01    3.520000e+00
  C5vq  X2vh  1 4.700000e-01    3.390000e+00
  C4vq  X2vh  1 4.700000e-01    3.390000e+00
  C3vq  X2vh  1 4.700000e-01    3.390000e+00
  C2vq  X2vh  1 4.700000e-01    3.390000e+00
  C1vq  X2vh  1 4.700000e-01    3.390000e+00
  X4vq  X2vh  1 4.700000e-01    3.520000e+00
  X3vq  X2vh  1 4.700000e-01    3.690000e+00
  X2vh  X2vq  1 4.700000e-01    3.690000e+00
  X2vh  X1vq  1 4.700000e-01    3.690000e+00
   X1v  X1vh  1 4.700000e-01    3.520000e+00
   P6q  X1vh  1 4.700000e-01    3.240000e+00
   P5q  X1vh  1 4.700000e-01    3.240000e+00
   P4q  X1vh  1 4.700000e-01    3.390000e+00
   P3q  X1vh  1 4.700000e-01    3.390000e+00
   P2q  X1vh  1 4.700000e-01    3.390000e+00
   P1q  X1vh  1 4.700000e-01    3.390000e+00
   N6q  X1vh  1 4.700000e-01    3.390000e+00
   N5q  X1vh  1 4.700000e-01    3.520000e+00
   N4q  X1vh  1 4.700000e-01    3.520000e+00
   N3q  X1vh  1 4.700000e-01    3.690000e+00
   N2q  X1vh  1 4.700000e-01    3.690000e+00
   N1q  X1vh  1 4.700000e-01    3.690000e+00
   C6q  X1vh  1 4.700000e-01    3.880000e+00
   C5q  X1vh  1 4.700000e-01    3.880000e+00
   C4q  X1vh  1 4.700000e-01    3.880000e+00
   C3q  X1vh  1 4.700000e-01    3.880000e+00
   C2q  X1vh  1 4.700000e-01    3.690000e+00
   C1q  X1vh  1 4.700000e-01    3.690000e+00
   X4q  X1vh  1 4.700000e-01    3.880000e+00
   X3q  X1vh  1 4.700000e-01    4.060000e+00
   X2q  X1vh  1 4.700000e-01    4.060000e+00
   X1q  X1vh  1 4.700000e-01    4.250000e+00
  C6vq  X1vh  1 4.700000e-01    3.520000e+00
  C5vq  X1vh  1 4.700000e-01    3.520000e+00
  C4vq  X1vh  1 4.700000e-01    3.520000e+00
  C3vq  X1vh  1 4.700000e-01    3.520000e+00
  C2vq  X1vh  1 4.700000e-01    3.390000e+00
  C1vq  X1vh  1 4.700000e-01    3.390000e+00
  X4vq  X1vh  1 4.700000e-01    3.520000e+00
  X3vq  X1vh  1 4.700000e-01    3.690000e+00
  X2vq  X1vh  1 4.700000e-01    3.690000e+00
  X1vh  X1vq  1 4.700000e-01    3.880000e+00
   C6e  C6eh  1 4.700000e-01    3.390000e+00
  C6eh   C5e  1 4.700000e-01    3.240000e+00
  C6eh   C4e  1 4.700000e-01    3.240000e+00
  C6eh   C3e  1 4.700000e-01    3.070000e+00
  C6eh   C2e  1 4.700000e-01    2.960000e+00
  C6eh   C1e  1 4.700000e-01    2.790000e+00
  C6eh   X4e  1 4.700000e-01    3.240000e+00
  C6eh   X3e  1 4.700000e-01    3.240000e+00
  C6eh   X2e  1 4.700000e-01    3.240000e+00
  C6eh   X1e  1 4.700000e-01    3.240000e+00
   P6q  C6eh  1 4.700000e-01    3.390000e+00
   P5q  C6eh  1 4.700000e-01    3.390000e+00
   P4q  C6eh  1 4.700000e-01    3.520000e+00
   P3q  C6eh  1 4.700000e-01    3.690000e+00
   P2q  C6eh  1 4.700000e-01    3.690000e+00
   P1q  C6eh  1 4.700000e-01    3.690000e+00
   N6q  C6eh  1 4.700000e-01    3.880000e+00
   N5q  C6eh  1 4.700000e-01    3.880000e+00
   N4q  C6eh  1 4.700000e-01    3.880000e+00
   N3q  C6eh  1 4.700000e-01    3.880000e+00
   N2q  C6eh  1 4.700000e-01    3.880000e+00
   N1q  C6eh  1 4.700000e-01    4.060000e+00
   C6q  C6eh  1 4.700000e-01    4.060000e+00
  C6eh   C5q  1 4.700000e-01    3.880000e+00
  C6eh   C4q  1 4.700000e-01    3.880000e+00
  C6eh   C3q  1 4.700000e-01    3.690000e+00
  C6eh   C2q  1 4.700000e-01    3.520000e+00
  C6eh   C1q  1 4.700000e-01    3.390000e+00
  C6eh   X4q  1 4.700000e-01    3.880000e+00
  C6eh   X3q  1 4.700000e-01    3.880000e+00
  C6eh   X2q  1 4.700000e-01    3.880000e+00
  C6eh   X1q  1 4.700000e-01    3.880000e+00
  C6eh  C6eq  1 4.700000e-01    3.690000e+00
  C6eh  X1eq  1 4.700000e-01    3.520000e+00
  C6eh  X2eq  1 4.700000e-01    3.520000e+00
  C6eh  X3eq  1 4.700000e-01    3.520000e+00
  C6eh  X4eq  1 4.700000e-01    3.520000e+00
  C6eh  C1eq  1 4.700000e-01    3.070000e+00
  C6eh  C2eq  1 4.700000e-01    3.240000e+00
  C6eh  C3eq  1 4.700000e-01    3.390000e+00
  C6eh  C4eq  1 4.700000e-01    3.520000e+00
  C6eh  C5eq  1 4.700000e-01    3.520000e+00
   C5e  C5eh  1 4.700000e-01    3.240000e+00
  C5eh   C4e  1 4.700000e-01    3.240000e+00
  C5eh   C3e  1 4.700000e-01    3.070000e+00
  C5eh   C2e  1 4.700000e-01    2.960000e+00
  C5eh   C1e  1 4.700000e-01    2.960000e+00
  C5eh   X4e  1 4.700000e-01    3.070000e+00
  C5eh   X3e  1 4.700000e-01    3.070000e+00
  C5eh   X2e  1 4.700000e-01    3.070000e+00
  C5eh   X1e  1 4.700000e-01    3.240000e+00
   P6q  C5eh  1 4.700000e-01    3.240000e+00
   P5q  C5eh  1 4.700000e-01    3.390000e+00
   P4q  C5eh  1 4.700000e-01    3.390000e+00
   P3q  C5eh  1 4.700000e-01    3.520000e+00
   P2q  C5eh  1 4.700000e-01    3.520000e+00
   P1q  C5eh  1 4.700000e-01    3.520000e+00
   N6q  C5eh  1 4.700000e-01    3.690000e+00
   N5q  C5eh  1 4.700000e-01    3.690000e+00
   N4q  C5eh  1 4.700000e-01    3.690000e+00
   N3q  C5eh  1 4.700000e-01    3.690000e+00
   N2q  C5eh  1 4.700000e-01    3.690000e+00
   N1q  C5eh  1 4.700000e-01    3.880000e+00
   C6q  C5eh  1 4.700000e-01    3.880000e+00
   C5q  C5eh  1 4.700000e-01    3.880000e+00
  C5eh   C4q  1 4.700000e-01    3.880000e+00
  C5eh   C3q  1 4.700000e-01    3.690000e+00
  C5eh   C2q  1 4.700000e-01    3.520000e+00
  C5eh   C1q  1 4.700000e-01    3.520000e+00
  C5eh   X4q  1 4.700000e-01    3.690000e+00
  C5eh   X3q  1 4.700000e-01    3.690000e+00
  C5eh   X2q  1 4.700000e-01    3.690000e+00
  C5eh   X1q  1 4.700000e-01    3.880000e+00
  C6eq  C5eh  1 4.700000e-01    3.520000e+00
  C5eh  C5eq  1 4.700000e-01    3.520000e+00
  C5eh  X1eq  1 4.700000e-01    3.520000e+00
  C5eh  X2eq  1 4.700000e-01    3.390000e+00
  C5eh  X3eq  1 4.700000e-01    3.390000e+00
  C5eh  X4eq  1 4.700000e-01    3.390000e+00
  C5eh  C1eq  1 4.700000e-01    3.240000e+00
  C5eh  C2eq  1 4.700000e-01    3.240000e+00
  C5eh  C3eq  1 4.700000e-01    3.390000e+00
  C5eh  C4eq  1 4.700000e-01    3.520000e+00
   C4e  C4eh  1 4.700000e-01    3.240000e+00
  C4eh   C3e  1 4.700000e-01    3.240000e+00
  C4eh   C2e  1 4.700000e-01    3.070000e+00
  C4eh   C1e  1 4.700000e-01    2.960000e+00
  C4eh   X4e  1 4.700000e-01    3.070000e+00
  C4eh   X3e  1 4.700000e-01    3.070000e+00
  C4eh   X2e  1 4.700000e-01    3.070000e+00
  C4eh   X1e  1 4.700000e-01    3.240000e+00
   P6q  C4eh  1 4.700000e-01    3.070000e+00
   P5q  C4eh  1 4.700000e-01    3.240000e+00
   P4q  C4eh  1 4.700000e-01    3.240000e+00
   P3q  C4eh  1 4.700000e-01    3.390000e+00
   P2q  C4eh  1 4.700000e-01    3.390000e+00
   P1q  C4eh  1 4.700000e-01    3.390000e+00
   N6q  C4eh  1 4.700000e-01    3.520000e+00
   N5q  C4eh  1 4.700000e-01    3.520000e+00
   N4q  C4eh  1 4.700000e-01    3.690000e+00
   N3q  C4eh  1 4.700000e-01    3.690000e+00
   N2q  C4eh  1 4.700000e-01    3.690000e+00
   N1q  C4eh  1 4.700000e-01    3.880000e+00
   C6q  C4eh  1 4.700000e-01    3.880000e+00
   C5q  C4eh  1 4.700000e-01    3.880000e+00
   C4q  C4eh  1 4.700000e-01    3.880000e+00
  C4eh   C3q  1 4.700000e-01    3.880000e+00
  C4eh   C2q  1 4.700000e-01    3.690000e+00
  C4eh   C1q  1 4.700000e-01    3.520000e+00
  C4eh   X4q  1 4.700000e-01    3.690000e+00
  C4eh   X3q  1 4.700000e-01    3.690000e+00
  C4eh   X2q  1 4.700000e-01    3.690000e+00
  C4eh   X1q  1 4.700000e-01    3.880000e+00
  C6eq  C4eh  1 4.700000e-01    3.520000e+00
  C5eq  C4eh  1 4.700000e-01    3.520000e+00
  C4eh  C4eq  1 4.700000e-01    3.520000e+00
  C4eh  X1eq  1 4.700000e-01    3.520000e+00
  C4eh  X2eq  1 4.700000e-01    3.390000e+00
  C4eh  X3eq  1 4.700000e-01    3.390000e+00
  C4eh  X4eq  1 4.700000e-01    3.390000e+00
  C4eh  C1eq  1 4.700000e-01    3.240000e+00
  C4eh  C2eq  1 4.700000e-01    3.390000e+00
  C4eh  C3eq  1 4.700000e-01    3.520000e+00
   C3e  C3eh  1 4.700000e-01    3.240000e+00
  C3eh   C2e  1 4.700000e-01    3.240000e+00
  C3eh   C1e  1 4.700000e-01    3.240000e+00
  C3eh   X4e  1 4.700000e-01    3.070000e+00
  C3eh   X3e  1 4.700000e-01    3.070000e+00
  C3eh   X2e  1 4.700000e-01    3.070000e+00
  C3eh   X1e  1 4.700000e-01    3.240000e+00
   P6q  C3eh  1 4.700000e-01    2.960000e+00
   P5q  C3eh  1 4.700000e-01    3.070000e+00
   P4q  C3eh  1 4.700000e-01    3.070000e+00
   P3q  C3eh  1 4.700000e-01    3.070000e+00
   P2q  C3eh  1 4.700000e-01    3.240000e+00
   P1q  C3eh  1 4.700000e-01    3.240000e+00
   N6q  C3eh  1 4.700000e-01    3.390000e+00
   N5q  C3eh  1 4.700000e-01    3.520000e+00
   N4q  C3eh  1 4.700000e-01    3.520000e+00
   N3q  C3eh  1 4.700000e-01    3.520000e+00
   N2q  C3eh  1 4.700000e-01    3.690000e+00
   N1q  C3eh  1 4.700000e-01    3.690000e+00
   C6q  C3eh  1 4.700000e-01    3.690000e+00
   C5q  C3eh  1 4.700000e-01    3.690000e+00
   C4q  C3eh  1 4.700000e-01    3.880000e+00
   C3q  C3eh  1 4.700000e-01    3.880000e+00
  C3eh   C2q  1 4.700000e-01    3.880000e+00
  C3eh   C1q  1 4.700000e-01    3.880000e+00
  C3eh   X4q  1 4.700000e-01    3.690000e+00
  C3eh   X3q  1 4.700000e-01    3.690000e+00
  C3eh   X2q  1 4.700000e-01    3.690000e+00
  C3eh   X1q  1 4.700000e-01    3.880000e+00
  C6eq  C3eh  1 4.700000e-01    3.390000e+00
  C5eq  C3eh  1 4.700000e-01    3.390000e+00
  C4eq  C3eh  1 4.700000e-01    3.520000e+00
  C3eh  C3eq  1 4.700000e-01    3.520000e+00
  C3eh  X1eq  1 4.700000e-01    3.520000e+00
  C3eh  X2eq  1 4.700000e-01    3.390000e+00
  C3eh  X3eq  1 4.700000e-01    3.390000e+00
  C3eh  X4eq  1 4.700000e-01    3.390000e+00
  C3eh  C1eq  1 4.700000e-01    3.520000e+00
  C3eh  C2eq  1 4.700000e-01    3.520000e+00
   C2e  C2eh  1 4.700000e-01    3.240000e+00
  C2eh   C1e  1 4.700000e-01    3.390000e+00
  C2eh   X4e  1 4.700000e-01    2.790000e+00
  C2eh   X3e  1 4.700000e-01    3.070000e+00
  C2eh   X2e  1 4.700000e-01    3.070000e+00
  C2eh   X1e  1 4.700000e-01    3.070000e+00
   P6q  C2eh  1 4.700000e-01    2.960000e+00
   P5q  C2eh  1 4.700000e-01    3.070000e+00
   P4q  C2eh  1 4.700000e-01    3.070000e+00
   P3q  C2eh  1 4.700000e-01    3.070000e+00
   P2q  C2eh  1 4.700000e-01    3.240000e+00
   P1q  C2eh  1 4.700000e-01    3.240000e+00
   N6q  C2eh  1 4.700000e-01    3.390000e+00
   N5q  C2eh  1 4.700000e-01    3.390000e+00
   N4q  C2eh  1 4.700000e-01    3.390000e+00
   N3q  C2eh  1 4.700000e-01    3.520000e+00
   N2q  C2eh  1 4.700000e-01    3.520000e+00
   N1q  C2eh  1 4.700000e-01    3.520000e+00
   C6q  C2eh  1 4.700000e-01    3.520000e+00
   C5q  C2eh  1 4.700000e-01    3.520000e+00
   C4q  C2eh  1 4.700000e-01    3.690000e+00
   C3q  C2eh  1 4.700000e-01    3.880000e+00
   C2q  C2eh  1 4.700000e-01    3.880000e+00
  C2eh   C1q  1 4.700000e-01    4.060000e+00
  C2eh   X4q  1 4.700000e-01    3.390000e+00
  C2eh   X3q  1 4.700000e-01    3.690000e+00
  C2eh   X2q  1 4.700000e-01    3.690000e+00
  C2eh   X1q  1 4.700000e-01    3.690000e+00
  C6eq  C2eh  1 4.700000e-01    3.240000e+00
  C5eq  C2eh  1 4.700000e-01    3.240000e+00
  C4eq  C2eh  1 4.700000e-01    3.390000e+00
  C3eq  C2eh  1 4.700000e-01    3.520000e+00
  C2eh  C2eq  1 4.700000e-01    3.520000e+00
  C2eh  X1eq  1 4.700000e-01    3.390000e+00
  C2eh  X2eq  1 4.700000e-01    3.390000e+00
  C2eh  X3eq  1 4.700000e-01    3.390000e+00
  C2eh  X4eq  1 4.700000e-01    3.070000e+00
  C2eh  C1eq  1 4.700000e-01    3.690000e+00
   C1e  C1eh  1 4.700000e-01    3.240000e+00
  C1eh   X4e  1 4.700000e-01    2.790000e+00
  C1eh   X3e  1 4.700000e-01    3.070000e+00
  C1eh   X2e  1 4.700000e-01    3.070000e+00
  C1eh   X1e  1 4.700000e-01    3.070000e+00
   P6q  C1eh  1 4.700000e-01    2.620000e+00
   P5q  C1eh  1 4.700000e-01    2.960000e+00
   P4q  C1eh  1 4.700000e-01    2.960000e+00
   P3q  C1eh  1 4.700000e-01    2.960000e+00
   P2q  C1eh  1 4.700000e-01    3.070000e+00
   P1q  C1eh  1 4.700000e-01    3.070000e+00
   N6q  C1eh  1 4.700000e-01    3.240000e+00
   N5q  C1eh  1 4.700000e-01    3.240000e+00
   N4q  C1eh  1 4.700000e-01    3.240000e+00
   N3q  C1eh  1 4.700000e-01    3.390000e+00
   N2q  C1eh  1 4.700000e-01    3.390000e+00
   N1q  C1eh  1 4.700000e-01    3.390000e+00
   C6q  C1eh  1 4.700000e-01    3.390000e+00
   C5q  C1eh  1 4.700000e-01    3.520000e+00
   C4q  C1eh  1 4.700000e-01    3.520000e+00
   C3q  C1eh  1 4.700000e-01    3.880000e+00
   C2q  C1eh  1 4.700000e-01    4.060000e+00
   C1q  C1eh  1 4.700000e-01    3.880000e+00
  C1eh   X4q  1 4.700000e-01    3.390000e+00
  C1eh   X3q  1 4.700000e-01    3.690000e+00
  C1eh   X2q  1 4.700000e-01    3.690000e+00
  C1eh   X1q  1 4.700000e-01    3.690000e+00
  C6eq  C1eh  1 4.700000e-01    3.070000e+00
  C5eq  C1eh  1 4.700000e-01    3.240000e+00
  C4eq  C1eh  1 4.700000e-01    3.240000e+00
  C3eq  C1eh  1 4.700000e-01    3.520000e+00
  C2eq  C1eh  1 4.700000e-01    3.690000e+00
  C1eh  C1eq  1 4.700000e-01    3.520000e+00
  C1eh  X1eq  1 4.700000e-01    3.390000e+00
  C1eh  X2eq  1 4.700000e-01    3.390000e+00
  C1eh  X3eq  1 4.700000e-01    3.390000e+00
  C1eh  X4eq  1 4.700000e-01    3.070000e+00
   X4e  X4eh  1 4.700000e-01    3.240000e+00
  X4eh   X3e  1 4.700000e-01    3.240000e+00
  X4eh   X2e  1 4.700000e-01    3.240000e+00
  X4eh   X1e  1 4.700000e-01    3.240000e+00
   P6q  X4eh  1 4.700000e-01    3.520000e+00
   P5q  X4eh  1 4.700000e-01    3.690000e+00
   P4q  X4eh  1 4.700000e-01    3.690000e+00
   P3q  X4eh  1 4.700000e-01    3.690000e+00
   P2q  X4eh  1 4.700000e-01    3.690000e+00
   P1q  X4eh  1 4.700000e-01    3.690000e+00
   N6q  X4eh  1 4.700000e-01    3.880000e+00
   N5q  X4eh  1 4.700000e-01    4.060000e+00
   N4q  X4eh  1 4.700000e-01    4.250000e+00
   N3q  X4eh  1 4.700000e-01    4.060000e+00
   N2q  X4eh  1 4.700000e-01    4.060000e+00
   N1q  X4eh  1 4.700000e-01    3.880000e+00
   C6q  X4eh  1 4.700000e-01    3.880000e+00
   C5q  X4eh  1 4.700000e-01    3.690000e+00
   C4q  X4eh  1 4.700000e-01    3.690000e+00
   C3q  X4eh  1 4.700000e-01    3.690000e+00
   C2q  X4eh  1 4.700000e-01    3.390000e+00
   C1q  X4eh  1 4.700000e-01    3.390000e+00
   X4q  X4eh  1 4.700000e-01    3.880000e+00
  X4eh   X3q  1 4.700000e-01    3.880000e+00
  X4eh   X2q  1 4.700000e-01    3.880000e+00
  X4eh   X1q  1 4.700000e-01    3.880000e+00
  C6eq  X4eh  1 4.700000e-01    3.520000e+00
  C5eq  X4eh  1 4.700000e-01    3.390000e+00
  C4eq  X4eh  1 4.700000e-01    3.390000e+00
  C3eq  X4eh  1 4.700000e-01    3.390000e+00
  C2eq  X4eh  1 4.700000e-01    3.070000e+00
  C1eq  X4eh  1 4.700000e-01    3.070000e+00
  X4eh  X4eq  1 4.700000e-01    3.520000e+00
  X4eh  X1eq  1 4.700000e-01    3.520000e+00
  X4eh  X2eq  1 4.700000e-01    3.520000e+00
  X4eh  X3eq  1 4.700000e-01    3.520000e+00
   X3e  X3eh  1 4.700000e-01    3.240000e+00
  X3eh   X2e  1 4.700000e-01    3.390000e+00
  X3eh   X1e  1 4.700000e-01    3.390000e+00
   P6q  X3eh  1 4.700000e-01    3.520000e+00
   P5q  X3eh  1 4.700000e-01    3.520000e+00
   P4q  X3eh  1 4.700000e-01    3.520000e+00
   P3q  X3eh  1 4.700000e-01    3.690000e+00
   P2q  X3eh  1 4.700000e-01    3.690000e+00
   P1q  X3eh  1 4.700000e-01    3.690000e+00
   N6q  X3eh  1 4.700000e-01    3.690000e+00
   N5q  X3eh  1 4.700000e-01    3.880000e+00
   N4q  X3eh  1 4.700000e-01    4.060000e+00
   N3q  X3eh  1 4.700000e-01    3.880000e+00
   N2q  X3eh  1 4.700000e-01    3.880000e+00
   N1q  X3eh  1 4.700000e-01    3.880000e+00
   C6q  X3eh  1 4.700000e-01    3.880000e+00
   C5q  X3eh  1 4.700000e-01    3.690000e+00
   C4q  X3eh  1 4.700000e-01    3.690000e+00
   C3q  X3eh  1 4.700000e-01    3.690000e+00
   C2q  X3eh  1 4.700000e-01    3.690000e+00
   C1q  X3eh  1 4.700000e-01    3.690000e+00
   X4q  X3eh  1 4.700000e-01    3.880000e+00
   X3q  X3eh  1 4.700000e-01    3.880000e+00
  X3eh   X2q  1 4.700000e-01    4.060000e+00
  X3eh   X1q  1 4.700000e-01    4.060000e+00
  C6eq  X3eh  1 4.700000e-01    3.520000e+00
  C5eq  X3eh  1 4.700000e-01    3.390000e+00
  C4eq  X3eh  1 4.700000e-01    3.390000e+00
  C3eq  X3eh  1 4.700000e-01    3.390000e+00
  C2eq  X3eh  1 4.700000e-01    3.390000e+00
  C1eq  X3eh  1 4.700000e-01    3.390000e+00
  X4eq  X3eh  1 4.700000e-01    3.520000e+00
  X3eh  X3eq  1 4.700000e-01    3.520000e+00
  X3eh  X1eq  1 4.700000e-01    3.690000e+00
  X3eh  X2eq  1 4.700000e-01    3.690000e+00
   X2e  X2eh  1 4.700000e-01    3.390000e+00
  X2eh   X1e  1 4.700000e-01    3.390000e+00
   P6q  X2eh  1 4.700000e-01    3.390000e+00
   P5q  X2eh  1 4.700000e-01    3.520000e+00
   P4q  X2eh  1 4.700000e-01    3.520000e+00
   P3q  X2eh  1 4.700000e-01    3.520000e+00
   P2q  X2eh  1 4.700000e-01    3.520000e+00
   P1q  X2eh  1 4.700000e-01    3.520000e+00
   N6q  X2eh  1 4.700000e-01    3.520000e+00
   N5q  X2eh  1 4.700000e-01    3.690000e+00
   N4q  X2eh  1 4.700000e-01    3.690000e+00
   N3q  X2eh  1 4.700000e-01    3.690000e+00
   N2q  X2eh  1 4.700000e-01    3.690000e+00
   N1q  X2eh  1 4.700000e-01    3.690000e+00
   C6q  X2eh  1 4.700000e-01    3.880000e+00
   C5q  X2eh  1 4.700000e-01    3.690000e+00
   C4q  X2eh  1 4.700000e-01    3.690000e+00
   C3q  X2eh  1 4.700000e-01    3.690000e+00
   C2q  X2eh  1 4.700000e-01    3.690000e+00
   C1q  X2eh  1 4.700000e-01    3.690000e+00
   X4q  X2eh  1 4.700000e-01    3.880000e+00
   X3q  X2eh  1 4.700000e-01    4.060000e+00
   X2q  X2eh  1 4.700000e-01    4.060000e+00
  X2eh   X1q  1 4.700000e-01    4.060000e+00
  C6eq  X2eh  1 4.700000e-01    3.520000e+00
  C5eq  X2eh  1 4.700000e-01    3.390000e+00
  C4eq  X2eh  1 4.700000e-01    3.390000e+00
  C3eq  X2eh  1 4.700000e-01    3.390000e+00
  C2eq  X2eh  1 4.700000e-01    3.390000e+00
  C1eq  X2eh  1 4.700000e-01    3.390000e+00
  X4eq  X2eh  1 4.700000e-01    3.520000e+00
  X3eq  X2eh  1 4.700000e-01    3.690000e+00
  X2eh  X2eq  1 4.700000e-01    3.690000e+00
  X2eh  X1eq  1 4.700000e-01    3.690000e+00
   X1e  X1eh  1 4.700000e-01    3.520000e+00
   P6q  X1eh  1 4.700000e-01    3.240000e+00
   P5q  X1eh  1 4.700000e-01    3.240000e+00
   P4q  X1eh  1 4.700000e-01    3.390000e+00
   P3q  X1eh  1 4.700000e-01    3.390000e+00
   P2q  X1eh  1 4.700000e-01    3.390000e+00
   P1q  X1eh  1 4.700000e-01    3.390000e+00
   N6q  X1eh  1 4.700000e-01    3.390000e+00
   N5q  X1eh  1 4.700000e-01    3.520000e+00
   N4q  X1eh  1 4.700000e-01    3.520000e+00
   N3q  X1eh  1 4.700000e-01    3.690000e+00
   N2q  X1eh  1 4.700000e-01    3.690000e+00
   N1q  X1eh  1 4.700000e-01    3.690000e+00
   C6q  X1eh  1 4.700000e-01    3.880000e+00
   C5q  X1eh  1 4.700000e-01    3.880000e+00
   C4q  X1eh  1 4.700000e-01    3.880000e+00
   C3q  X1eh  1 4.700000e-01    3.880000e+00
   C2q  X1eh  1 4.700000e-01    3.690000e+00
   C1q  X1eh  1 4.700000e-01    3.690000e+00
   X4q  X1eh  1 4.700000e-01    3.880000e+00
   X3q  X1eh  1 4.700000e-01    4.060000e+00
   X2q  X1eh  1 4.700000e-01    4.060000e+00
   X1q  X1eh  1 4.700000e-01    4.250000e+00
  C6eq  X1eh  1 4.700000e-01    3.520000e+00
  C5eq  X1eh  1 4.700000e-01    3.520000e+00
  C4eq  X1eh  1 4.700000e-01    3.520000e+00
  C3eq  X1eh  1 4.700000e-01    3.520000e+00
  C2eq  X1eh  1 4.700000e-01    3.390000e+00
  C1eq  X1eh  1 4.700000e-01    3.390000e+00
  X4eq  X1eh  1 4.700000e-01    3.520000e+00
  X3eq  X1eh  1 4.700000e-01    3.690000e+00
  X2eq  X1eh  1 4.700000e-01    3.690000e+00
  X1eh  X1eq  1 4.700000e-01    3.880000e+00
   C6e  X1eh  1 4.700000e-01    3.240000e+00
   C5e  X1eh  1 4.700000e-01    3.240000e+00
   C4e  X1eh  1 4.700000e-01    3.240000e+00
   C3e  X1eh  1 4.700000e-01    3.240000e+00
   C2e  X1eh  1 4.700000e-01    3.070000e+00
   C1e  X1eh  1 4.700000e-01    3.070000e+00
   X4e  X1eh  1 4.700000e-01    3.240000e+00
   X3e  X1eh  1 4.700000e-01    3.390000e+00
   X2e  X1eh  1 4.700000e-01    3.390000e+00
   C6e  X2eh  1 4.700000e-01    3.240000e+00
   C5e  X2eh  1 4.700000e-01    3.070000e+00
   C4e  X2eh  1 4.700000e-01    3.070000e+00
   C3e  X2eh  1 4.700000e-01    3.070000e+00
   C2e  X2eh  1 4.700000e-01    3.070000e+00
   C1e  X2eh  1 4.700000e-01    3.070000e+00
   X4e  X2eh  1 4.700000e-01    3.240000e+00
   X3e  X2eh  1 4.700000e-01    3.390000e+00
   C6e  X3eh  1 4.700000e-01    3.240000e+00
   C5e  X3eh  1 4.700000e-01    3.070000e+00
   C4e  X3eh  1 4.700000e-01    3.070000e+00
   C3e  X3eh  1 4.700000e-01    3.070000e+00
   C2e  X3eh  1 4.700000e-01    3.070000e+00
   C1e  X3eh  1 4.700000e-01    3.070000e+00
   X4e  X3eh  1 4.700000e-01    3.240000e+00
   C6e  X4eh  1 4.700000e-01    3.240000e+00
   C5e  X4eh  1 4.700000e-01    3.070000e+00
   C4e  X4eh  1 4.700000e-01    3.070000e+00
   C3e  X4eh  1 4.700000e-01    3.070000e+00
   C2e  X4eh  1 4.700000e-01    2.790000e+00
   C1e  X4eh  1 4.700000e-01    2.790000e+00
   C6e  C1eh  1 4.700000e-01    2.790000e+00
   C5e  C1eh  1 4.700000e-01    2.960000e+00
   C4e  C1eh  1 4.700000e-01    2.960000e+00
   C3e  C1eh  1 4.700000e-01    3.240000e+00
   C2e  C1eh  1 4.700000e-01    3.390000e+00
   C6e  C2eh  1 4.700000e-01    2.960000e+00
   C5e  C2eh  1 4.700000e-01    2.960000e+00
   C4e  C2eh  1 4.700000e-01    3.070000e+00
   C3e  C2eh  1 4.700000e-01    3.240000e+00
   C6e  C3eh  1 4.700000e-01    3.070000e+00
   C5e  C3eh  1 4.700000e-01    3.070000e+00
   C4e  C3eh  1 4.700000e-01    3.240000e+00
   C6e  C4eh  1 4.700000e-01    3.240000e+00
   C5e  C4eh  1 4.700000e-01    3.240000e+00
   C6e  C5eh  1 4.700000e-01    3.240000e+00
   C6v  X1vh  1 4.700000e-01    3.240000e+00
   C5v  X1vh  1 4.700000e-01    3.240000e+00
   C4v  X1vh  1 4.700000e-01    3.240000e+00
   C3v  X1vh  1 4.700000e-01    3.240000e+00
   C2v  X1vh  1 4.700000e-01    3.070000e+00
   C1v  X1vh  1 4.700000e-01    3.070000e+00
   X4v  X1vh  1 4.700000e-01    3.240000e+00
   X3v  X1vh  1 4.700000e-01    3.390000e+00
   X2v  X1vh  1 4.700000e-01    3.390000e+00
   C6v  X2vh  1 4.700000e-01    3.240000e+00
   C5v  X2vh  1 4.700000e-01    3.070000e+00
   C4v  X2vh  1 4.700000e-01    3.070000e+00
   C3v  X2vh  1 4.700000e-01    3.070000e+00
   C2v  X2vh  1 4.700000e-01    3.070000e+00
   C1v  X2vh  1 4.700000e-01    3.070000e+00
   X4v  X2vh  1 4.700000e-01    3.240000e+00
   X3v  X2vh  1 4.700000e-01    3.390000e+00
   C6v  X3vh  1 4.700000e-01    3.240000e+00
   C5v  X3vh  1 4.700000e-01    3.070000e+00
   C4v  X3vh  1 4.700000e-01    3.070000e+00
   C3v  X3vh  1 4.700000e-01    3.070000e+00
   C2v  X3vh  1 4.700000e-01    3.070000e+00
   C1v  X3vh  1 4.700000e-01    3.070000e+00
   X4v  X3vh  1 4.700000e-01    3.240000e+00
   C6v  X4vh  1 4.700000e-01    3.240000e+00
   C5v  X4vh  1 4.700000e-01    3.070000e+00
   C4v  X4vh  1 4.700000e-01    3.070000e+00
   C3v  X4vh  1 4.700000e-01    3.070000e+00
   C2v  X4vh  1 4.700000e-01    2.790000e+00
   C1v  X4vh  1 4.700000e-01    2.790000e+00
   C6v  C1vh  1 4.700000e-01    2.790000e+00
   C5v  C1vh  1 4.700000e-01    2.960000e+00
   C4v  C1vh  1 4.700000e-01    2.960000e+00
   C3v  C1vh  1 4.700000e-01    3.240000e+00
   C2v  C1vh  1 4.700000e-01    3.390000e+00
   C6v  C2vh  1 4.700000e-01    2.960000e+00
   C5v  C2vh  1 4.700000e-01    2.960000e+00
   C4v  C2vh  1 4.700000e-01    3.070000e+00
   C3v  C2vh  1 4.700000e-01    3.240000e+00
   C6v  C3vh  1 4.700000e-01    3.070000e+00
   C5v  C3vh  1 4.700000e-01    3.070000e+00
   C4v  C3vh  1 4.700000e-01    3.240000e+00
   C6v  C4vh  1 4.700000e-01    3.240000e+00
   C5v  C4vh  1 4.700000e-01    3.240000e+00
   C6v  C5vh  1 4.700000e-01    3.240000e+00
   P6r   P6d  1 4.700000e-01    4.990000e+00
   P6r   N1d  1 4.700000e-01    2.960000e+00
   P6r   N2d  1 4.700000e-01    3.070000e+00
   P6r   N3d  1 4.700000e-01    3.240000e+00
   P6r   N4d  1 4.700000e-01    3.390000e+00
   P6r   N5d  1 4.700000e-01    3.520000e+00
   P6r   N6d  1 4.700000e-01    3.880000e+00
   P6r   P1d  1 4.700000e-01    4.060000e+00
   P6r   P2d  1 4.700000e-01    4.250000e+00
   P6r   P3d  1 4.700000e-01    4.250000e+00
   P6r   P4d  1 4.700000e-01    4.480000e+00
   P6r   P5d  1 4.700000e-01    4.730000e+00
   P6r   P6a  1 4.700000e-01    4.990000e+00
   P6r   N1a  1 4.700000e-01    2.960000e+00
   P6r   N2a  1 4.700000e-01    3.070000e+00
   P6r   N3a  1 4.700000e-01    3.240000e+00
   P6r   N4a  1 4.700000e-01    3.390000e+00
   P6r   N5a  1 4.700000e-01    3.520000e+00
   P6r   N6a  1 4.700000e-01    3.880000e+00
   P6r   P1a  1 4.700000e-01    4.060000e+00
   P6r   P2a  1 4.700000e-01    4.250000e+00
   P6r   P3a  1 4.700000e-01    4.250000e+00
   P6r   P4a  1 4.700000e-01    4.480000e+00
   P6r   P5a  1 4.700000e-01    4.730000e+00
   P6r   C6v  1 4.700000e-01    3.070000e+00
   P6r   C5v  1 4.700000e-01    2.960000e+00
   P6r   C4v  1 4.700000e-01    2.790000e+00
   P6r   C3v  1 4.700000e-01    2.620000e+00
   P6r   C2v  1 4.700000e-01    2.620000e+00
   P6r   C1v  1 4.850000e-01    2.240000e+00
   P6r   X4v  1 4.700000e-01    3.240000e+00
   P6r   X3v  1 4.700000e-01    3.240000e+00
   P6r   X2v  1 4.700000e-01    3.070000e+00
   P6r   X1v  1 4.700000e-01    2.960000e+00
   P6r   C6e  1 4.700000e-01    3.070000e+00
   P6r   C5e  1 4.700000e-01    2.960000e+00
   P6r   C4e  1 4.700000e-01    2.790000e+00
   P6r   C3e  1 4.700000e-01    2.620000e+00
   P6r   C2e  1 4.700000e-01    2.620000e+00
   P6r   C1e  1 4.850000e-01    2.240000e+00
   P6r   X4e  1 4.700000e-01    3.240000e+00
   P6r   X3e  1 4.700000e-01    3.240000e+00
   P6r   X2e  1 4.700000e-01    3.070000e+00
   P6r   X1e  1 4.700000e-01    2.960000e+00
   P6r   P6q  1 4.700000e-01    5.490000e+00
   P6r  X1eq  1 4.700000e-01    3.240000e+00
   P6r  X2eq  1 4.700000e-01    3.390000e+00
   P6r  X3eq  1 4.700000e-01    3.520000e+00
   P6r  X4eq  1 4.700000e-01    3.520000e+00
   P6r  C1eq  1 4.700000e-01    2.620000e+00
   P6r  C2eq  1 4.700000e-01    2.960000e+00
   P6r  C3eq  1 4.700000e-01    2.960000e+00
   P6r  C4eq  1 4.700000e-01    3.070000e+00
   P6r  C5eq  1 4.700000e-01    3.240000e+00
   P6r  C6eq  1 4.700000e-01    3.390000e+00
   P6r  X1vq  1 4.700000e-01    3.240000e+00
   P6r  X2vq  1 4.700000e-01    3.390000e+00
   P6r  X3vq  1 4.700000e-01    3.520000e+00
   P6r  X4vq  1 4.700000e-01    3.520000e+00
   P6r  C1vq  1 4.700000e-01    2.620000e+00
   P6r  C2vq  1 4.700000e-01    2.960000e+00
   P6r  C3vq  1 4.700000e-01    2.960000e+00
   P6r  C4vq  1 4.700000e-01    3.070000e+00
   P6r  C5vq  1 4.700000e-01    3.240000e+00
   P6r  C6vq  1 4.700000e-01    3.390000e+00
   P6r  N1aq  1 4.700000e-01    3.240000e+00
   P6r  N2aq  1 4.700000e-01    3.390000e+00
   P6r  N3aq  1 4.700000e-01    3.520000e+00
   P6r  N4aq  1 4.700000e-01    3.690000e+00
   P6r  N5aq  1 4.700000e-01    3.880000e+00
   P6r  N6aq  1 4.700000e-01    4.250000e+00
   P6r  P1aq  1 4.700000e-01    4.480000e+00
   P6r  P2aq  1 4.700000e-01    4.730000e+00
   P6r  P3aq  1 4.700000e-01    4.730000e+00
   P6r  P4aq  1 4.700000e-01    4.990000e+00
   P6r  P5aq  1 4.700000e-01    5.240000e+00
   P6r  P6aq  1 4.700000e-01    5.490000e+00
   P6r  N1dq  1 4.700000e-01    3.240000e+00
   P6r  N2dq  1 4.700000e-01    3.390000e+00
   P6r  N3dq  1 4.700000e-01    3.520000e+00
   P6r  N4dq  1 4.700000e-01    3.690000e+00
   P6r  N5dq  1 4.700000e-01    3.880000e+00
   P6r  N6dq  1 4.700000e-01    4.250000e+00
   P6r  P1dq  1 4.700000e-01    4.480000e+00
   P6r  P2dq  1 4.700000e-01    4.730000e+00
   P6r  P3dq  1 4.700000e-01    4.730000e+00
   P6r  P4dq  1 4.700000e-01    4.990000e+00
   P6r  P5dq  1 4.700000e-01    5.240000e+00
   P6r  P6dq  1 4.700000e-01    5.490000e+00
   P6r   X1q  1 4.700000e-01    3.070000e+00
   P6r   X2q  1 4.700000e-01    3.240000e+00
   P6r   X3q  1 4.700000e-01    3.390000e+00
   P6r   X4q  1 4.700000e-01    3.390000e+00
   P6r   C1q  1 4.700000e-01    2.440000e+00
   P6r   C2q  1 4.700000e-01    2.790000e+00
   P6r   C3q  1 4.700000e-01    2.790000e+00
   P6r   C4q  1 4.700000e-01    2.960000e+00
   P6r   C5q  1 4.700000e-01    3.070000e+00
   P6r   C6q  1 4.700000e-01    3.240000e+00
   P6r   N1q  1 4.700000e-01    3.240000e+00
   P6r   N2q  1 4.700000e-01    3.390000e+00
   P6r   N3q  1 4.700000e-01    3.520000e+00
   P6r   N4q  1 4.700000e-01    3.690000e+00
   P6r   N5q  1 4.700000e-01    3.880000e+00
   P6r   N6q  1 4.700000e-01    4.250000e+00
   P6r   P1q  1 4.700000e-01    4.480000e+00
   P6r   P2q  1 4.700000e-01    4.730000e+00
   P6r   P3q  1 4.700000e-01    4.730000e+00
   P6r   P4q  1 4.700000e-01    4.990000e+00
   P6r   P5q  1 4.700000e-01    5.240000e+00
   P6d   P5r  1 4.700000e-01    4.730000e+00
   P5r   P5d  1 4.700000e-01    4.480000e+00
   P5r   N1d  1 4.700000e-01    2.960000e+00
   P5r   N2d  1 4.700000e-01    3.070000e+00
   P5r   N3d  1 4.700000e-01    3.240000e+00
   P5r   N4d  1 4.700000e-01    3.520000e+00
   P5r   N5d  1 4.700000e-01    3.520000e+00
   P5r   N6d  1 4.700000e-01    3.690000e+00
   P5r   P1d  1 4.700000e-01    3.880000e+00
   P5r   P2d  1 4.700000e-01    4.060000e+00
   P5r   P3d  1 4.700000e-01    4.060000e+00
   P5r   P4d  1 4.700000e-01    4.250000e+00
   P6a   P5r  1 4.700000e-01    4.730000e+00
   P5r   P5a  1 4.700000e-01    4.480000e+00
   P5r   N1a  1 4.700000e-01    2.960000e+00
   P5r   N2a  1 4.700000e-01    3.070000e+00
   P5r   N3a  1 4.700000e-01    3.240000e+00
   P5r   N4a  1 4.700000e-01    3.520000e+00
   P5r   N5a  1 4.700000e-01    3.520000e+00
   P5r   N6a  1 4.700000e-01    3.690000e+00
   P5r   P1a  1 4.700000e-01    3.880000e+00
   P5r   P2a  1 4.700000e-01    4.060000e+00
   P5r   P3a  1 4.700000e-01    4.060000e+00
   P5r   P4a  1 4.700000e-01    4.250000e+00
   P5r   C6v  1 4.700000e-01    3.070000e+00
   P5r   C5v  1 4.700000e-01    3.070000e+00
   P5r   C4v  1 4.700000e-01    2.960000e+00
   P5r   C3v  1 4.700000e-01    2.790000e+00
   P5r   C2v  1 4.700000e-01    2.790000e+00
   P5r   C1v  1 4.700000e-01    2.620000e+00
   P5r   X4v  1 4.700000e-01    3.390000e+00
   P5r   X3v  1 4.700000e-01    3.240000e+00
   P5r   X2v  1 4.700000e-01    3.240000e+00
   P5r   X1v  1 4.700000e-01    2.960000e+00
   P5r   C6e  1 4.700000e-01    3.070000e+00
   P5r   C5e  1 4.700000e-01    3.070000e+00
   P5r   C4e  1 4.700000e-01    2.960000e+00
   P5r   C3e  1 4.700000e-01    2.790000e+00
   P5r   C2e  1 4.700000e-01    2.790000e+00
   P5r   C1e  1 4.700000e-01    2.620000e+00
   P5r   X4e  1 4.700000e-01    3.390000e+00
   P5r   X3e  1 4.700000e-01    3.240000e+00
   P5r   X2e  1 4.700000e-01    3.240000e+00
   P5r   X1e  1 4.700000e-01    2.960000e+00
   P6q   P5r  1 4.700000e-01    5.240000e+00
   P5r   P5q  1 4.700000e-01    4.990000e+00
   P5r  X1eq  1 4.700000e-01    3.240000e+00
   P5r  X2eq  1 4.700000e-01    3.520000e+00
   P5r  X3eq  1 4.700000e-01    3.520000e+00
   P5r  X4eq  1 4.700000e-01    3.690000e+00
   P5r  C1eq  1 4.700000e-01    2.960000e+00
   P5r  C2eq  1 4.700000e-01    3.070000e+00
   P5r  C3eq  1 4.700000e-01    3.070000e+00
   P5r  C4eq  1 4.700000e-01    3.240000e+00
   P5r  C5eq  1 4.700000e-01    3.390000e+00
   P5r  C6eq  1 4.700000e-01    3.390000e+00
   P5r  X1vq  1 4.700000e-01    3.240000e+00
   P5r  X2vq  1 4.700000e-01    3.520000e+00
   P5r  X3vq  1 4.700000e-01    3.520000e+00
   P5r  X4vq  1 4.700000e-01    3.690000e+00
   P5r  C1vq  1 4.700000e-01    2.960000e+00
   P5r  C2vq  1 4.700000e-01    3.070000e+00
   P5r  C3vq  1 4.700000e-01    3.070000e+00
   P5r  C4vq  1 4.700000e-01    3.240000e+00
   P5r  C5vq  1 4.700000e-01    3.390000e+00
   P5r  C6vq  1 4.700000e-01    3.390000e+00
   P5r  N1aq  1 4.700000e-01    3.240000e+00
   P5r  N2aq  1 4.700000e-01    3.390000e+00
   P5r  N3aq  1 4.700000e-01    3.520000e+00
   P5r  N4aq  1 4.700000e-01    3.880000e+00
   P5r  N5aq  1 4.700000e-01    3.880000e+00
   P5r  N6aq  1 4.700000e-01    4.060000e+00
   P5r  P1aq  1 4.700000e-01    4.250000e+00
   P5r  P2aq  1 4.700000e-01    4.480000e+00
   P5r  P3aq  1 4.700000e-01    4.480000e+00
   P5r  P4aq  1 4.700000e-01    4.730000e+00
   P5r  P5aq  1 4.700000e-01    4.990000e+00
  P6aq   P5r  1 4.700000e-01    5.240000e+00
   P5r  N1dq  1 4.700000e-01    3.240000e+00
   P5r  N2dq  1 4.700000e-01    3.390000e+00
   P5r  N3dq  1 4.700000e-01    3.520000e+00
   P5r  N4dq  1 4.700000e-01    3.880000e+00
   P5r  N5dq  1 4.700000e-01    3.880000e+00
   P5r  N6dq  1 4.700000e-01    4.060000e+00
   P5r  P1dq  1 4.700000e-01    4.250000e+00
   P5r  P2dq  1 4.700000e-01    4.480000e+00
   P5r  P3dq  1 4.700000e-01    4.480000e+00
   P5r  P4dq  1 4.700000e-01    4.730000e+00
   P5r  P5dq  1 4.700000e-01    4.990000e+00
  P6dq   P5r  1 4.700000e-01    5.240000e+00
   P5r   X1q  1 4.700000e-01    3.070000e+00
   P5r   X2q  1 4.700000e-01    3.390000e+00
   P5r   X3q  1 4.700000e-01    3.390000e+00
   P5r   X4q  1 4.700000e-01    3.520000e+00
   P5r   C1q  1 4.700000e-01    2.790000e+00
   P5r   C2q  1 4.700000e-01    2.960000e+00
   P5r   C3q  1 4.700000e-01    2.960000e+00
   P5r   C4q  1 4.700000e-01    3.070000e+00
   P5r   C5q  1 4.700000e-01    3.240000e+00
   P5r   C6q  1 4.700000e-01    3.240000e+00
   P5r   N1q  1 4.700000e-01    3.240000e+00
   P5r   N2q  1 4.700000e-01    3.390000e+00
   P5r   N3q  1 4.700000e-01    3.520000e+00
   P5r   N4q  1 4.700000e-01    3.880000e+00
   P5r   N5q  1 4.700000e-01    3.880000e+00
   P5r   N6q  1 4.700000e-01    4.060000e+00
   P5r   P1q  1 4.700000e-01    4.250000e+00
   P5r   P2q  1 4.700000e-01    4.480000e+00
   P5r   P3q  1 4.700000e-01    4.480000e+00
   P5r   P4q  1 4.700000e-01    4.730000e+00
   P6d   P4r  1 4.700000e-01    4.480000e+00
   P5d   P4r  1 4.700000e-01    4.250000e+00
   P4r   P4d  1 4.700000e-01    4.250000e+00
   P4r   N1d  1 4.700000e-01    3.070000e+00
   P4r   N2d  1 4.700000e-01    3.240000e+00
   P4r   N3d  1 4.700000e-01    3.390000e+00
   P4r   N4d  1 4.700000e-01    3.520000e+00
   P4r   N5d  1 4.700000e-01    3.520000e+00
   P4r   N6d  1 4.700000e-01    3.690000e+00
   P4r   P1d  1 4.700000e-01    3.880000e+00
   P4r   P2d  1 4.700000e-01    4.060000e+00
   P4r   P3d  1 4.700000e-01    4.060000e+00
   P6a   P4r  1 4.700000e-01    4.480000e+00
   P5a   P4r  1 4.700000e-01    4.250000e+00
   P4r   P4a  1 4.700000e-01    4.250000e+00
   P4r   N1a  1 4.700000e-01    3.070000e+00
   P4r   N2a  1 4.700000e-01    3.240000e+00
   P4r   N3a  1 4.700000e-01    3.390000e+00
   P4r   N4a  1 4.700000e-01    3.520000e+00
   P4r   N5a  1 4.700000e-01    3.520000e+00
   P4r   N6a  1 4.700000e-01    3.690000e+00
   P4r   P1a  1 4.700000e-01    3.880000e+00
   P4r   P2a  1 4.700000e-01    4.060000e+00
   P4r   P3a  1 4.700000e-01    4.060000e+00
   P4r   C6v  1 4.700000e-01    3.240000e+00
   P4r   C5v  1 4.700000e-01    3.070000e+00
   P4r   C4v  1 4.700000e-01    2.960000e+00
   P4r   C3v  1 4.700000e-01    2.790000e+00
   P4r   C2v  1 4.700000e-01    2.790000e+00
   P4r   C1v  1 4.700000e-01    2.620000e+00
   P4r   X4v  1 4.700000e-01    3.390000e+00
   P4r   X3v  1 4.700000e-01    3.240000e+00
   P4r   X2v  1 4.700000e-01    3.240000e+00
   P4r   X1v  1 4.700000e-01    3.070000e+00
   P4r   C6e  1 4.700000e-01    3.240000e+00
   P4r   C5e  1 4.700000e-01    3.070000e+00
   P4r   C4e  1 4.700000e-01    2.960000e+00
   P4r   C3e  1 4.700000e-01    2.790000e+00
   P4r   C2e  1 4.700000e-01    2.790000e+00
   P4r   C1e  1 4.700000e-01    2.620000e+00
   P4r   X4e  1 4.700000e-01    3.390000e+00
   P4r   X3e  1 4.700000e-01    3.240000e+00
   P4r   X2e  1 4.700000e-01    3.240000e+00
   P4r   X1e  1 4.700000e-01    3.070000e+00
   P6q   P4r  1 4.700000e-01    4.990000e+00
   P5q   P4r  1 4.700000e-01    4.730000e+00
   P4r   P4q  1 4.700000e-01    4.730000e+00
   P4r  X1eq  1 4.700000e-01    3.390000e+00
   P4r  X2eq  1 4.700000e-01    3.520000e+00
   P4r  X3eq  1 4.700000e-01    3.520000e+00
   P4r  X4eq  1 4.700000e-01    3.690000e+00
   P4r  C1eq  1 4.700000e-01    2.960000e+00
   P4r  C2eq  1 4.700000e-01    3.070000e+00
   P4r  C3eq  1 4.700000e-01    3.070000e+00
   P4r  C4eq  1 4.700000e-01    3.240000e+00
   P4r  C5eq  1 4.700000e-01    3.390000e+00
   P4r  C6eq  1 4.700000e-01    3.520000e+00
   P4r  X1vq  1 4.700000e-01    3.390000e+00
   P4r  X2vq  1 4.700000e-01    3.520000e+00
   P4r  X3vq  1 4.700000e-01    3.520000e+00
   P4r  X4vq  1 4.700000e-01    3.690000e+00
   P4r  C1vq  1 4.700000e-01    2.960000e+00
   P4r  C2vq  1 4.700000e-01    3.070000e+00
   P4r  C3vq  1 4.700000e-01    3.070000e+00
   P4r  C4vq  1 4.700000e-01    3.240000e+00
   P4r  C5vq  1 4.700000e-01    3.390000e+00
   P4r  C6vq  1 4.700000e-01    3.520000e+00
   P4r  N1aq  1 4.700000e-01    3.390000e+00
   P4r  N2aq  1 4.700000e-01    3.520000e+00
   P4r  N3aq  1 4.700000e-01    3.690000e+00
   P4r  N4aq  1 4.700000e-01    3.880000e+00
   P4r  N5aq  1 4.700000e-01    3.880000e+00
   P4r  N6aq  1 4.700000e-01    4.060000e+00
   P4r  P1aq  1 4.700000e-01    4.250000e+00
   P4r  P2aq  1 4.700000e-01    4.480000e+00
   P4r  P3aq  1 4.700000e-01    4.480000e+00
   P4r  P4aq  1 4.700000e-01    4.730000e+00
  P5aq   P4r  1 4.700000e-01    4.730000e+00
  P6aq   P4r  1 4.700000e-01    4.990000e+00
   P4r  N1dq  1 4.700000e-01    3.390000e+00
   P4r  N2dq  1 4.700000e-01    3.520000e+00
   P4r  N3dq  1 4.700000e-01    3.690000e+00
   P4r  N4dq  1 4.700000e-01    3.880000e+00
   P4r  N5dq  1 4.700000e-01    3.880000e+00
   P4r  N6dq  1 4.700000e-01    4.060000e+00
   P4r  P1dq  1 4.700000e-01    4.250000e+00
   P4r  P2dq  1 4.700000e-01    4.480000e+00
   P4r  P3dq  1 4.700000e-01    4.480000e+00
   P4r  P4dq  1 4.700000e-01    4.730000e+00
  P5dq   P4r  1 4.700000e-01    4.730000e+00
  P6dq   P4r  1 4.700000e-01    4.990000e+00
   P4r   X1q  1 4.700000e-01    3.240000e+00
   P4r   X2q  1 4.700000e-01    3.390000e+00
   P4r   X3q  1 4.700000e-01    3.390000e+00
   P4r   X4q  1 4.700000e-01    3.520000e+00
   P4r   C1q  1 4.700000e-01    2.790000e+00
   P4r   C2q  1 4.700000e-01    2.960000e+00
   P4r   C3q  1 4.700000e-01    2.960000e+00
   P4r   C4q  1 4.700000e-01    3.070000e+00
   P4r   C5q  1 4.700000e-01    3.240000e+00
   P4r   C6q  1 4.700000e-01    3.390000e+00
   P4r   N1q  1 4.700000e-01    3.390000e+00
   P4r   N2q  1 4.700000e-01    3.520000e+00
   P4r   N3q  1 4.700000e-01    3.690000e+00
   P4r   N4q  1 4.700000e-01    3.880000e+00
   P4r   N5q  1 4.700000e-01    3.880000e+00
   P4r   N6q  1 4.700000e-01    4.060000e+00
   P4r   P1q  1 4.700000e-01    4.250000e+00
   P4r   P2q  1 4.700000e-01    4.480000e+00
   P4r   P3q  1 4.700000e-01    4.480000e+00
   P6d   P3r  1 4.700000e-01    4.250000e+00
   P5d   P3r  1 4.700000e-01    4.060000e+00
   P4d   P3r  1 4.700000e-01    4.060000e+00
   P3r   P3d  1 4.700000e-01    4.060000e+00
   P3r   N1d  1 4.700000e-01    3.240000e+00
   P3r   N2d  1 4.700000e-01    3.390000e+00
   P3r   N3d  1 4.700000e-01    3.390000e+00
   P3r   N4d  1 4.700000e-01    3.520000e+00
   P3r   N5d  1 4.700000e-01    3.520000e+00
   P3r   N6d  1 4.700000e-01    3.690000e+00
   P3r   P1d  1 4.700000e-01    3.880000e+00
   P3r   P2d  1 4.700000e-01    4.060000e+00
   P6a   P3r  1 4.700000e-01    4.250000e+00
   P5a   P3r  1 4.700000e-01    4.060000e+00
   P4a   P3r  1 4.700000e-01    4.060000e+00
   P3r   P3a  1 4.700000e-01    4.060000e+00
   P3r   N1a  1 4.700000e-01    3.240000e+00
   P3r   N2a  1 4.700000e-01    3.390000e+00
   P3r   N3a  1 4.700000e-01    3.390000e+00
   P3r   N4a  1 4.700000e-01    3.520000e+00
   P3r   N5a  1 4.700000e-01    3.520000e+00
   P3r   N6a  1 4.700000e-01    3.690000e+00
   P3r   P1a  1 4.700000e-01    3.880000e+00
   P3r   P2a  1 4.700000e-01    4.060000e+00
   P3r   C6v  1 4.700000e-01    3.390000e+00
   P3r   C5v  1 4.700000e-01    3.240000e+00
   P3r   C4v  1 4.700000e-01    3.070000e+00
   P3r   C3v  1 4.700000e-01    2.790000e+00
   P3r   C2v  1 4.700000e-01    2.790000e+00
   P3r   C1v  1 4.700000e-01    2.620000e+00
   P3r   X4v  1 4.700000e-01    3.390000e+00
   P3r   X3v  1 4.700000e-01    3.390000e+00
   P3r   X2v  1 4.700000e-01    3.240000e+00
   P3r   X1v  1 4.700000e-01    3.070000e+00
   P3r   C6e  1 4.700000e-01    3.390000e+00
   P3r   C5e  1 4.700000e-01    3.240000e+00
   P3r   C4e  1 4.700000e-01    3.070000e+00
   P3r   C3e  1 4.700000e-01    2.790000e+00
   P3r   C2e  1 4.700000e-01    2.790000e+00
   P3r   C1e  1 4.700000e-01    2.620000e+00
   P3r   X4e  1 4.700000e-01    3.390000e+00
   P3r   X3e  1 4.700000e-01    3.390000e+00
   P3r   X2e  1 4.700000e-01    3.240000e+00
   P3r   X1e  1 4.700000e-01    3.070000e+00
   P6q   P3r  1 4.700000e-01    4.730000e+00
   P5q   P3r  1 4.700000e-01    4.480000e+00
   P4q   P3r  1 4.700000e-01    4.480000e+00
   P3r   P3q  1 4.700000e-01    4.480000e+00
   P3r  X1eq  1 4.700000e-01    3.390000e+00
   P3r  X2eq  1 4.700000e-01    3.520000e+00
   P3r  X3eq  1 4.700000e-01    3.690000e+00
   P3r  X4eq  1 4.700000e-01    3.690000e+00
   P3r  C1eq  1 4.700000e-01    2.960000e+00
   P3r  C2eq  1 4.700000e-01    3.070000e+00
   P3r  C3eq  1 4.700000e-01    3.070000e+00
   P3r  C4eq  1 4.700000e-01    3.390000e+00
   P3r  C5eq  1 4.700000e-01    3.520000e+00
   P3r  C6eq  1 4.700000e-01    3.690000e+00
   P3r  X1vq  1 4.700000e-01    3.390000e+00
   P3r  X2vq  1 4.700000e-01    3.520000e+00
   P3r  X3vq  1 4.700000e-01    3.690000e+00
   P3r  X4vq  1 4.700000e-01    3.690000e+00
   P3r  C1vq  1 4.700000e-01    2.960000e+00
   P3r  C2vq  1 4.700000e-01    3.070000e+00
   P3r  C3vq  1 4.700000e-01    3.070000e+00
   P3r  C4vq  1 4.700000e-01    3.390000e+00
   P3r  C5vq  1 4.700000e-01    3.520000e+00
   P3r  C6vq  1 4.700000e-01    3.690000e+00
   P3r  N1aq  1 4.700000e-01    3.520000e+00
   P3r  N2aq  1 4.700000e-01    3.690000e+00
   P3r  N3aq  1 4.700000e-01    3.690000e+00
   P3r  N4aq  1 4.700000e-01    3.880000e+00
   P3r  N5aq  1 4.700000e-01    3.880000e+00
   P3r  N6aq  1 4.700000e-01    4.060000e+00
   P3r  P1aq  1 4.700000e-01    4.250000e+00
   P3r  P2aq  1 4.700000e-01    4.480000e+00
   P3r  P3aq  1 4.700000e-01    4.480000e+00
  P4aq   P3r  1 4.700000e-01    4.480000e+00
  P5aq   P3r  1 4.700000e-01    4.480000e+00
  P6aq   P3r  1 4.700000e-01    4.730000e+00
   P3r  N1dq  1 4.700000e-01    3.520000e+00
   P3r  N2dq  1 4.700000e-01    3.690000e+00
   P3r  N3dq  1 4.700000e-01    3.690000e+00
   P3r  N4dq  1 4.700000e-01    3.880000e+00
   P3r  N5dq  1 4.700000e-01    3.880000e+00
   P3r  N6dq  1 4.700000e-01    4.060000e+00
   P3r  P1dq  1 4.700000e-01    4.250000e+00
   P3r  P2dq  1 4.700000e-01    4.480000e+00
   P3r  P3dq  1 4.700000e-01    4.480000e+00
  P4dq   P3r  1 4.700000e-01    4.480000e+00
  P5dq   P3r  1 4.700000e-01    4.480000e+00
  P6dq   P3r  1 4.700000e-01    4.730000e+00
   P3r   X1q  1 4.700000e-01    3.240000e+00
   P3r   X2q  1 4.700000e-01    3.390000e+00
   P3r   X3q  1 4.700000e-01    3.520000e+00
   P3r   X4q  1 4.700000e-01    3.520000e+00
   P3r   C1q  1 4.700000e-01    2.790000e+00
   P3r   C2q  1 4.700000e-01    2.960000e+00
   P3r   C3q  1 4.700000e-01    2.960000e+00
   P3r   C4q  1 4.700000e-01    3.240000e+00
   P3r   C5q  1 4.700000e-01    3.390000e+00
   P3r   C6q  1 4.700000e-01    3.520000e+00
   P3r   N1q  1 4.700000e-01    3.520000e+00
   P3r   N2q  1 4.700000e-01    3.690000e+00
   P3r   N3q  1 4.700000e-01    3.690000e+00
   P3r   N4q  1 4.700000e-01    3.880000e+00
   P3r   N5q  1 4.700000e-01    3.880000e+00
   P3r   N6q  1 4.700000e-01    4.060000e+00
   P3r   P1q  1 4.700000e-01    4.250000e+00
   P3r   P2q  1 4.700000e-01    4.480000e+00
   P6d   P2r  1 4.700000e-01    4.250000e+00
   P5d   P2r  1 4.700000e-01    4.060000e+00
   P4d   P2r  1 4.700000e-01    4.060000e+00
   P3d   P2r  1 4.700000e-01    4.060000e+00
   P2r   P2d  1 4.700000e-01    4.060000e+00
   P2r   N1d  1 4.700000e-01    3.390000e+00
   P2r   N2d  1 4.700000e-01    3.390000e+00
   P2r   N3d  1 4.700000e-01    3.390000e+00
   P2r   N4d  1 4.700000e-01    3.520000e+00
   P2r   N5d  1 4.700000e-01    3.690000e+00
   P2r   N6d  1 4.700000e-01    3.880000e+00
   P2r   P1d  1 4.700000e-01    3.880000e+00
   P6a   P2r  1 4.700000e-01    4.250000e+00
   P5a   P2r  1 4.700000e-01    4.060000e+00
   P4a   P2r  1 4.700000e-01    4.060000e+00
   P3a   P2r  1 4.700000e-01    4.060000e+00
   P2r   P2a  1 4.700000e-01    4.060000e+00
   P2r   N1a  1 4.700000e-01    3.390000e+00
   P2r   N2a  1 4.700000e-01    3.390000e+00
   P2r   N3a  1 4.700000e-01    3.390000e+00
   P2r   N4a  1 4.700000e-01    3.520000e+00
   P2r   N5a  1 4.700000e-01    3.690000e+00
   P2r   N6a  1 4.700000e-01    3.880000e+00
   P2r   P1a  1 4.700000e-01    3.880000e+00
   P2r   C6v  1 4.700000e-01    3.390000e+00
   P2r   C5v  1 4.700000e-01    3.240000e+00
   P2r   C4v  1 4.700000e-01    3.070000e+00
   P2r   C3v  1 4.700000e-01    2.960000e+00
   P2r   C2v  1 4.700000e-01    2.960000e+00
   P2r   C1v  1 4.700000e-01    2.790000e+00
   P2r   X4v  1 4.700000e-01    3.390000e+00
   P2r   X3v  1 4.700000e-01    3.390000e+00
   P2r   X2v  1 4.700000e-01    3.240000e+00
   P2r   X1v  1 4.700000e-01    3.070000e+00
   P2r   C6e  1 4.700000e-01    3.390000e+00
   P2r   C5e  1 4.700000e-01    3.240000e+00
   P2r   C4e  1 4.700000e-01    3.070000e+00
   P2r   C3e  1 4.700000e-01    2.960000e+00
   P2r   C2e  1 4.700000e-01    2.960000e+00
   P2r   C1e  1 4.700000e-01    2.790000e+00
   P2r   X4e  1 4.700000e-01    3.390000e+00
   P2r   X3e  1 4.700000e-01    3.390000e+00
   P2r   X2e  1 4.700000e-01    3.240000e+00
   P2r   X1e  1 4.700000e-01    3.070000e+00
   P6q   P2r  1 4.700000e-01    4.730000e+00
   P5q   P2r  1 4.700000e-01    4.480000e+00
   P4q   P2r  1 4.700000e-01    4.480000e+00
   P3q   P2r  1 4.700000e-01    4.480000e+00
   P2r   P2q  1 4.700000e-01    4.480000e+00
   P2r  X1eq  1 4.700000e-01    3.390000e+00
   P2r  X2eq  1 4.700000e-01    3.520000e+00
   P2r  X3eq  1 4.700000e-01    3.690000e+00
   P2r  X4eq  1 4.700000e-01    3.690000e+00
   P2r  C1eq  1 4.700000e-01    3.070000e+00
   P2r  C2eq  1 4.700000e-01    3.240000e+00
   P2r  C3eq  1 4.700000e-01    3.240000e+00
   P2r  C4eq  1 4.700000e-01    3.390000e+00
   P2r  C5eq  1 4.700000e-01    3.520000e+00
   P2r  C6eq  1 4.700000e-01    3.690000e+00
   P2r  X1vq  1 4.700000e-01    3.390000e+00
   P2r  X2vq  1 4.700000e-01    3.520000e+00
   P2r  X3vq  1 4.700000e-01    3.690000e+00
   P2r  X4vq  1 4.700000e-01    3.690000e+00
   P2r  C1vq  1 4.700000e-01    3.070000e+00
   P2r  C2vq  1 4.700000e-01    3.240000e+00
   P2r  C3vq  1 4.700000e-01    3.240000e+00
   P2r  C4vq  1 4.700000e-01    3.390000e+00
   P2r  C5vq  1 4.700000e-01    3.520000e+00
   P2r  C6vq  1 4.700000e-01    3.690000e+00
   P2r  N1aq  1 4.700000e-01    3.690000e+00
   P2r  N2aq  1 4.700000e-01    3.690000e+00
   P2r  N3aq  1 4.700000e-01    3.690000e+00
   P2r  N4aq  1 4.700000e-01    3.880000e+00
   P2r  N5aq  1 4.700000e-01    4.060000e+00
   P2r  N6aq  1 4.700000e-01    4.250000e+00
   P2r  P1aq  1 4.700000e-01    4.250000e+00
   P2r  P2aq  1 4.700000e-01    4.480000e+00
  P3aq   P2r  1 4.700000e-01    4.480000e+00
  P4aq   P2r  1 4.700000e-01    4.480000e+00
  P5aq   P2r  1 4.700000e-01    4.480000e+00
  P6aq   P2r  1 4.700000e-01    4.730000e+00
   P2r  N1dq  1 4.700000e-01    3.690000e+00
   P2r  N2dq  1 4.700000e-01    3.690000e+00
   P2r  N3dq  1 4.700000e-01    3.690000e+00
   P2r  N4dq  1 4.700000e-01    3.880000e+00
   P2r  N5dq  1 4.700000e-01    4.060000e+00
   P2r  N6dq  1 4.700000e-01    4.250000e+00
   P2r  P1dq  1 4.700000e-01    4.250000e+00
   P2r  P2dq  1 4.700000e-01    4.480000e+00
  P3dq   P2r  1 4.700000e-01    4.480000e+00
  P4dq   P2r  1 4.700000e-01    4.480000e+00
  P5dq   P2r  1 4.700000e-01    4.480000e+00
  P6dq   P2r  1 4.700000e-01    4.730000e+00
   P2r   X1q  1 4.700000e-01    3.240000e+00
   P2r   X2q  1 4.700000e-01    3.390000e+00
   P2r   X3q  1 4.700000e-01    3.520000e+00
   P2r   X4q  1 4.700000e-01    3.520000e+00
   P2r   C1q  1 4.700000e-01    2.960000e+00
   P2r   C2q  1 4.700000e-01    3.070000e+00
   P2r   C3q  1 4.700000e-01    3.070000e+00
   P2r   C4q  1 4.700000e-01    3.240000e+00
   P2r   C5q  1 4.700000e-01    3.390000e+00
   P2r   C6q  1 4.700000e-01    3.520000e+00
   P2r   N1q  1 4.700000e-01    3.690000e+00
   P2r   N2q  1 4.700000e-01    3.690000e+00
   P2r   N3q  1 4.700000e-01    3.690000e+00
   P2r   N4q  1 4.700000e-01    3.880000e+00
   P2r   N5q  1 4.700000e-01    4.060000e+00
   P2r   N6q  1 4.700000e-01    4.250000e+00
   P2r   P1q  1 4.700000e-01    4.250000e+00
   P6d   P1r  1 4.700000e-01    4.060000e+00
   P5d   P1r  1 4.700000e-01    3.880000e+00
   P4d   P1r  1 4.700000e-01    3.880000e+00
   P3d   P1r  1 4.700000e-01    3.880000e+00
   P2d   P1r  1 4.700000e-01    3.880000e+00
   P1r   P1d  1 4.700000e-01    3.880000e+00
   P1r   N1d  1 4.700000e-01    3.390000e+00
   P1r   N2d  1 4.700000e-01    3.390000e+00
   P1r   N3d  1 4.700000e-01    3.390000e+00
   P1r   N4d  1 4.700000e-01    3.690000e+00
   P1r   N5d  1 4.700000e-01    3.690000e+00
   P1r   N6d  1 4.700000e-01    3.880000e+00
   P6a   P1r  1 4.700000e-01    4.060000e+00
   P5a   P1r  1 4.700000e-01    3.880000e+00
   P4a   P1r  1 4.700000e-01    3.880000e+00
   P3a   P1r  1 4.700000e-01    3.880000e+00
   P2a   P1r  1 4.700000e-01    3.880000e+00
   P1r   P1a  1 4.700000e-01    3.880000e+00
   P1r   N1a  1 4.700000e-01    3.390000e+00
   P1r   N2a  1 4.700000e-01    3.390000e+00
   P1r   N3a  1 4.700000e-01    3.390000e+00
   P1r   N4a  1 4.700000e-01    3.690000e+00
   P1r   N5a  1 4.700000e-01    3.690000e+00
   P1r   N6a  1 4.700000e-01    3.880000e+00
   P1r   C6v  1 4.700000e-01    3.390000e+00
   P1r   C5v  1 4.700000e-01    3.240000e+00
   P1r   C4v  1 4.700000e-01    3.070000e+00
   P1r   C3v  1 4.700000e-01    2.960000e+00
   P1r   C2v  1 4.700000e-01    2.960000e+00
   P1r   C1v  1 4.700000e-01    2.790000e+00
   P1r   X4v  1 4.700000e-01    3.390000e+00
   P1r   X3v  1 4.700000e-01    3.390000e+00
   P1r   X2v  1 4.700000e-01    3.240000e+00
   P1r   X1v  1 4.700000e-01    3.070000e+00
   P1r   C6e  1 4.700000e-01    3.390000e+00
   P1r   C5e  1 4.700000e-01    3.240000e+00
   P1r   C4e  1 4.700000e-01    3.070000e+00
   P1r   C3e  1 4.700000e-01    2.960000e+00
   P1r   C2e  1 4.700000e-01    2.960000e+00
   P1r   C1e  1 4.700000e-01    2.790000e+00
   P1r   X4e  1 4.700000e-01    3.390000e+00
   P1r   X3e  1 4.700000e-01    3.390000e+00
   P1r   X2e  1 4.700000e-01    3.240000e+00
   P1r   X1e  1 4.700000e-01    3.070000e+00
   P6q   P1r  1 4.700000e-01    4.480000e+00
   P5q   P1r  1 4.700000e-01    4.250000e+00
   P4q   P1r  1 4.700000e-01    4.250000e+00
   P3q   P1r  1 4.700000e-01    4.250000e+00
   P2q   P1r  1 4.700000e-01    4.250000e+00
   P1r   P1q  1 4.700000e-01    4.250000e+00
   P1r  X1eq  1 4.700000e-01    3.390000e+00
   P1r  X2eq  1 4.700000e-01    3.520000e+00
   P1r  X3eq  1 4.700000e-01    3.690000e+00
   P1r  X4eq  1 4.700000e-01    3.690000e+00
   P1r  C1eq  1 4.700000e-01    3.070000e+00
   P1r  C2eq  1 4.700000e-01    3.240000e+00
   P1r  C3eq  1 4.700000e-01    3.240000e+00
   P1r  C4eq  1 4.700000e-01    3.390000e+00
   P1r  C5eq  1 4.700000e-01    3.520000e+00
   P1r  C6eq  1 4.700000e-01    3.690000e+00
   P1r  X1vq  1 4.700000e-01    3.390000e+00
   P1r  X2vq  1 4.700000e-01    3.520000e+00
   P1r  X3vq  1 4.700000e-01    3.690000e+00
   P1r  X4vq  1 4.700000e-01    3.690000e+00
   P1r  C1vq  1 4.700000e-01    3.070000e+00
   P1r  C2vq  1 4.700000e-01    3.240000e+00
   P1r  C3vq  1 4.700000e-01    3.240000e+00
   P1r  C4vq  1 4.700000e-01    3.390000e+00
   P1r  C5vq  1 4.700000e-01    3.520000e+00
   P1r  C6vq  1 4.700000e-01    3.690000e+00
   P1r  N1aq  1 4.700000e-01    3.690000e+00
   P1r  N2aq  1 4.700000e-01    3.690000e+00
   P1r  N3aq  1 4.700000e-01    3.690000e+00
   P1r  N4aq  1 4.700000e-01    4.060000e+00
   P1r  N5aq  1 4.700000e-01    4.060000e+00
   P1r  N6aq  1 4.700000e-01    4.250000e+00
   P1r  P1aq  1 4.700000e-01    4.250000e+00
  P2aq   P1r  1 4.700000e-01    4.250000e+00
  P3aq   P1r  1 4.700000e-01    4.250000e+00
  P4aq   P1r  1 4.700000e-01    4.250000e+00
  P5aq   P1r  1 4.700000e-01    4.250000e+00
  P6aq   P1r  1 4.700000e-01    4.480000e+00
   P1r  N1dq  1 4.700000e-01    3.690000e+00
   P1r  N2dq  1 4.700000e-01    3.690000e+00
   P1r  N3dq  1 4.700000e-01    3.690000e+00
   P1r  N4dq  1 4.700000e-01    4.060000e+00
   P1r  N5dq  1 4.700000e-01    4.060000e+00
   P1r  N6dq  1 4.700000e-01    4.250000e+00
   P1r  P1dq  1 4.700000e-01    4.250000e+00
  P2dq   P1r  1 4.700000e-01    4.250000e+00
  P3dq   P1r  1 4.700000e-01    4.250000e+00
  P4dq   P1r  1 4.700000e-01    4.250000e+00
  P5dq   P1r  1 4.700000e-01    4.250000e+00
  P6dq   P1r  1 4.700000e-01    4.480000e+00
   P1r   X1q  1 4.700000e-01    3.240000e+00
   P1r   X2q  1 4.700000e-01    3.390000e+00
   P1r   X3q  1 4.700000e-01    3.520000e+00
   P1r   X4q  1 4.700000e-01    3.520000e+00
   P1r   C1q  1 4.700000e-01    2.960000e+00
   P1r   C2q  1 4.700000e-01    3.070000e+00
   P1r   C3q  1 4.700000e-01    3.070000e+00
   P1r   C4q  1 4.700000e-01    3.240000e+00
   P1r   C5q  1 4.700000e-01    3.390000e+00
   P1r   C6q  1 4.700000e-01    3.520000e+00
   P1r   N1q  1 4.700000e-01    3.690000e+00
   P1r   N2q  1 4.700000e-01    3.690000e+00
   P1r   N3q  1 4.700000e-01    3.690000e+00
   P1r   N4q  1 4.700000e-01    4.060000e+00
   P1r   N5q  1 4.700000e-01    4.060000e+00
   P1r   N6q  1 4.700000e-01    4.250000e+00
   P6d   N6r  1 4.700000e-01    3.880000e+00
   P5d   N6r  1 4.700000e-01    3.690000e+00
   P4d   N6r  1 4.700000e-01    3.690000e+00
   P3d   N6r  1 4.700000e-01    3.690000e+00
   P2d   N6r  1 4.700000e-01    3.880000e+00
   P1d   N6r  1 4.700000e-01    3.880000e+00
   N6r   N6d  1 4.700000e-01    3.880000e+00
   N6r   N1d  1 4.700000e-01    3.390000e+00
   N6r   N2d  1 4.700000e-01    3.390000e+00
   N6r   N3d  1 4.700000e-01    3.520000e+00
   N6r   N4d  1 4.700000e-01    3.880000e+00
   N6r   N5d  1 4.700000e-01    3.880000e+00
   P6a   N6r  1 4.700000e-01    3.880000e+00
   P5a   N6r  1 4.700000e-01    3.690000e+00
   P4a   N6r  1 4.700000e-01    3.690000e+00
   P3a   N6r  1 4.700000e-01    3.690000e+00
   P2a   N6r  1 4.700000e-01    3.880000e+00
   P1a   N6r  1 4.700000e-01    3.880000e+00
   N6r   N6a  1 4.700000e-01    3.880000e+00
   N6r   N1a  1 4.700000e-01    3.390000e+00
   N6r   N2a  1 4.700000e-01    3.390000e+00
   N6r   N3a  1 4.700000e-01    3.520000e+00
   N6r   N4a  1 4.700000e-01    3.880000e+00
   N6r   N5a  1 4.700000e-01    3.880000e+00
   N6r   C6v  1 4.700000e-01    3.520000e+00
   N6r   C5v  1 4.700000e-01    3.390000e+00
   N6r   C4v  1 4.700000e-01    3.240000e+00
   N6r   C3v  1 4.700000e-01    3.070000e+00
   N6r   C2v  1 4.700000e-01    3.070000e+00
   N6r   C1v  1 4.700000e-01    2.960000e+00
   N6r   X4v  1 4.700000e-01    3.520000e+00
   N6r   X3v  1 4.700000e-01    3.390000e+00
   N6r   X2v  1 4.700000e-01    3.240000e+00
   N6r   X1v  1 4.700000e-01    3.070000e+00
   N6r   C6e  1 4.700000e-01    3.520000e+00
   N6r   C5e  1 4.700000e-01    3.390000e+00
   N6r   C4e  1 4.700000e-01    3.240000e+00
   N6r   C3e  1 4.700000e-01    3.070000e+00
   N6r   C2e  1 4.700000e-01    3.070000e+00
   N6r   C1e  1 4.700000e-01    2.960000e+00
   N6r   X4e  1 4.700000e-01    3.520000e+00
   N6r   X3e  1 4.700000e-01    3.390000e+00
   N6r   X2e  1 4.700000e-01    3.240000e+00
   N6r   X1e  1 4.700000e-01    3.070000e+00
   P6q   N6r  1 4.700000e-01    4.250000e+00
   P5q   N6r  1 4.700000e-01    4.060000e+00
   P4q   N6r  1 4.700000e-01    4.060000e+00
   P3q   N6r  1 4.700000e-01    4.060000e+00
   P2q   N6r  1 4.700000e-01    4.250000e+00
   P1q   N6r  1 4.700000e-01    4.250000e+00
   N6r   N6q  1 4.700000e-01    4.250000e+00
   N6r  X1eq  1 4.700000e-01    3.390000e+00
   N6r  X2eq  1 4.700000e-01    3.520000e+00
   N6r  X3eq  1 4.700000e-01    3.690000e+00
   N6r  X4eq  1 4.700000e-01    3.880000e+00
   N6r  C1eq  1 4.700000e-01    3.240000e+00
   N6r  C2eq  1 4.700000e-01    3.390000e+00
   N6r  C3eq  1 4.700000e-01    3.390000e+00
   N6r  C4eq  1 4.700000e-01    3.520000e+00
   N6r  C5eq  1 4.700000e-01    3.690000e+00
   N6r  C6eq  1 4.700000e-01    3.880000e+00
   N6r  X1vq  1 4.700000e-01    3.390000e+00
   N6r  X2vq  1 4.700000e-01    3.520000e+00
   N6r  X3vq  1 4.700000e-01    3.690000e+00
   N6r  X4vq  1 4.700000e-01    3.880000e+00
   N6r  C1vq  1 4.700000e-01    3.240000e+00
   N6r  C2vq  1 4.700000e-01    3.390000e+00
   N6r  C3vq  1 4.700000e-01    3.390000e+00
   N6r  C4vq  1 4.700000e-01    3.520000e+00
   N6r  C5vq  1 4.700000e-01    3.690000e+00
   N6r  C6vq  1 4.700000e-01    3.880000e+00
   N6r  N1aq  1 4.700000e-01    3.690000e+00
   N6r  N2aq  1 4.700000e-01    3.690000e+00
   N6r  N3aq  1 4.700000e-01    3.880000e+00
   N6r  N4aq  1 4.700000e-01    4.250000e+00
   N6r  N5aq  1 4.700000e-01    4.250000e+00
   N6r  N6aq  1 4.700000e-01    4.250000e+00
  P1aq   N6r  1 4.700000e-01    4.250000e+00
  P2aq   N6r  1 4.700000e-01    4.250000e+00
  P3aq   N6r  1 4.700000e-01    4.060000e+00
  P4aq   N6r  1 4.700000e-01    4.060000e+00
  P5aq   N6r  1 4.700000e-01    4.060000e+00
  P6aq   N6r  1 4.700000e-01    4.250000e+00
   N6r  N1dq  1 4.700000e-01    3.690000e+00
   N6r  N2dq  1 4.700000e-01    3.690000e+00
   N6r  N3dq  1 4.700000e-01    3.880000e+00
   N6r  N4dq  1 4.700000e-01    4.250000e+00
   N6r  N5dq  1 4.700000e-01    4.250000e+00
   N6r  N6dq  1 4.700000e-01    4.250000e+00
  P1dq   N6r  1 4.700000e-01    4.250000e+00
  P2dq   N6r  1 4.700000e-01    4.250000e+00
  P3dq   N6r  1 4.700000e-01    4.060000e+00
  P4dq   N6r  1 4.700000e-01    4.060000e+00
  P5dq   N6r  1 4.700000e-01    4.060000e+00
  P6dq   N6r  1 4.700000e-01    4.250000e+00
   N6r   X1q  1 4.700000e-01    3.240000e+00
   N6r   X2q  1 4.700000e-01    3.390000e+00
   N6r   X3q  1 4.700000e-01    3.520000e+00
   N6r   X4q  1 4.700000e-01    3.690000e+00
   N6r   C1q  1 4.700000e-01    3.070000e+00
   N6r   C2q  1 4.700000e-01    3.240000e+00
   N6r   C3q  1 4.700000e-01    3.240000e+00
   N6r   C4q  1 4.700000e-01    3.390000e+00
   N6r   C5q  1 4.700000e-01    3.520000e+00
   N6r   C6q  1 4.700000e-01    3.690000e+00
   N6r   N1q  1 4.700000e-01    3.690000e+00
   N6r   N2q  1 4.700000e-01    3.690000e+00
   N6r   N3q  1 4.700000e-01    3.880000e+00
   N6r   N4q  1 4.700000e-01    4.250000e+00
   N6r   N5q  1 4.700000e-01    4.250000e+00
   P6d   N5r  1 4.700000e-01    3.520000e+00
   P5d   N5r  1 4.700000e-01    3.520000e+00
   P4d   N5r  1 4.700000e-01    3.520000e+00
   P3d   N5r  1 4.700000e-01    3.520000e+00
   P2d   N5r  1 4.700000e-01    3.690000e+00
   P1d   N5r  1 4.700000e-01    3.690000e+00
   N6d   N5r  1 4.700000e-01    3.880000e+00
   N5r   N5d  1 4.700000e-01    3.690000e+00
   N5r   N1d  1 4.700000e-01    3.390000e+00
   N5r   N2d  1 4.700000e-01    3.520000e+00
   N5r   N3d  1 4.700000e-01    3.520000e+00
   N5r   N4d  1 4.700000e-01    3.690000e+00
   P6a   N5r  1 4.700000e-01    3.520000e+00
   P5a   N5r  1 4.700000e-01    3.520000e+00
   P4a   N5r  1 4.700000e-01    3.520000e+00
   P3a   N5r  1 4.700000e-01    3.520000e+00
   P2a   N5r  1 4.700000e-01    3.690000e+00
   P1a   N5r  1 4.700000e-01    3.690000e+00
   N6a   N5r  1 4.700000e-01    3.880000e+00
   N5r   N5a  1 4.700000e-01    3.690000e+00
   N5r   N1a  1 4.700000e-01    3.390000e+00
   N5r   N2a  1 4.700000e-01    3.520000e+00
   N5r   N3a  1 4.700000e-01    3.520000e+00
   N5r   N4a  1 4.700000e-01    3.690000e+00
   N5r   C6v  1 4.700000e-01    3.520000e+00
   N5r   C5v  1 4.700000e-01    3.390000e+00
   N5r   C4v  1 4.700000e-01    3.240000e+00
   N5r   C3v  1 4.700000e-01    3.240000e+00
   N5r   C2v  1 4.700000e-01    3.070000e+00
   N5r   C1v  1 4.700000e-01    2.960000e+00
   N5r   X4v  1 4.700000e-01    3.690000e+00
   N5r   X3v  1 4.700000e-01    3.520000e+00
   N5r   X2v  1 4.700000e-01    3.390000e+00
   N5r   X1v  1 4.700000e-01    3.240000e+00
   N5r   C6e  1 4.700000e-01    3.520000e+00
   N5r   C5e  1 4.700000e-01    3.390000e+00
   N5r   C4e  1 4.700000e-01    3.240000e+00
   N5r   C3e  1 4.700000e-01    3.240000e+00
   N5r   C2e  1 4.700000e-01    3.070000e+00
   N5r   C1e  1 4.700000e-01    2.960000e+00
   N5r   X4e  1 4.700000e-01    3.690000e+00
   N5r   X3e  1 4.700000e-01    3.520000e+00
   N5r   X2e  1 4.700000e-01    3.390000e+00
   N5r   X1e  1 4.700000e-01    3.240000e+00
   P6q   N5r  1 4.700000e-01    3.880000e+00
   P5q   N5r  1 4.700000e-01    3.880000e+00
   P4q   N5r  1 4.700000e-01    3.880000e+00
   P3q   N5r  1 4.700000e-01    3.880000e+00
   P2q   N5r  1 4.700000e-01    4.060000e+00
   P1q   N5r  1 4.700000e-01    4.060000e+00
   N6q   N5r  1 4.700000e-01    4.250000e+00
   N5r   N5q  1 4.700000e-01    4.060000e+00
   N5r  X1eq  1 4.700000e-01    3.520000e+00
   N5r  X2eq  1 4.700000e-01    3.690000e+00
   N5r  X3eq  1 4.700000e-01    3.880000e+00
   N5r  X4eq  1 4.700000e-01    4.060000e+00
   N5r  C1eq  1 4.700000e-01    3.240000e+00
   N5r  C2eq  1 4.700000e-01    3.390000e+00
   N5r  C3eq  1 4.700000e-01    3.520000e+00
   N5r  C4eq  1 4.700000e-01    3.520000e+00
   N5r  C5eq  1 4.700000e-01    3.690000e+00
   N5r  C6eq  1 4.700000e-01    3.880000e+00
   N5r  X1vq  1 4.700000e-01    3.520000e+00
   N5r  X2vq  1 4.700000e-01    3.690000e+00
   N5r  X3vq  1 4.700000e-01    3.880000e+00
   N5r  X4vq  1 4.700000e-01    4.060000e+00
   N5r  C1vq  1 4.700000e-01    3.240000e+00
   N5r  C2vq  1 4.700000e-01    3.390000e+00
   N5r  C3vq  1 4.700000e-01    3.520000e+00
   N5r  C4vq  1 4.700000e-01    3.520000e+00
   N5r  C5vq  1 4.700000e-01    3.690000e+00
   N5r  C6vq  1 4.700000e-01    3.880000e+00
   N5r  N1aq  1 4.700000e-01    3.690000e+00
   N5r  N2aq  1 4.700000e-01    3.880000e+00
   N5r  N3aq  1 4.700000e-01    3.880000e+00
   N5r  N4aq  1 4.700000e-01    4.060000e+00
   N5r  N5aq  1 4.700000e-01    4.060000e+00
  N6aq   N5r  1 4.700000e-01    4.250000e+00
  P1aq   N5r  1 4.700000e-01    4.060000e+00
  P2aq   N5r  1 4.700000e-01    4.060000e+00
  P3aq   N5r  1 4.700000e-01    3.880000e+00
  P4aq   N5r  1 4.700000e-01    3.880000e+00
  P5aq   N5r  1 4.700000e-01    3.880000e+00
  P6aq   N5r  1 4.700000e-01    3.880000e+00
   N5r  N1dq  1 4.700000e-01    3.690000e+00
   N5r  N2dq  1 4.700000e-01    3.880000e+00
   N5r  N3dq  1 4.700000e-01    3.880000e+00
   N5r  N4dq  1 4.700000e-01    4.060000e+00
   N5r  N5dq  1 4.700000e-01    4.060000e+00
  N6dq   N5r  1 4.700000e-01    4.250000e+00
  P1dq   N5r  1 4.700000e-01    4.060000e+00
  P2dq   N5r  1 4.700000e-01    4.060000e+00
  P3dq   N5r  1 4.700000e-01    3.880000e+00
  P4dq   N5r  1 4.700000e-01    3.880000e+00
  P5dq   N5r  1 4.700000e-01    3.880000e+00
  P6dq   N5r  1 4.700000e-01    3.880000e+00
   N5r   X1q  1 4.700000e-01    3.390000e+00
   N5r   X2q  1 4.700000e-01    3.520000e+00
   N5r   X3q  1 4.700000e-01    3.690000e+00
   N5r   X4q  1 4.700000e-01    3.880000e+00
   N5r   C1q  1 4.700000e-01    3.070000e+00
   N5r   C2q  1 4.700000e-01    3.240000e+00
   N5r   C3q  1 4.700000e-01    3.390000e+00
   N5r   C4q  1 4.700000e-01    3.390000e+00
   N5r   C5q  1 4.700000e-01    3.520000e+00
   N5r   C6q  1 4.700000e-01    3.690000e+00
   N5r   N1q  1 4.700000e-01    3.690000e+00
   N5r   N2q  1 4.700000e-01    3.880000e+00
   N5r   N3q  1 4.700000e-01    3.880000e+00
   N5r   N4q  1 4.700000e-01    4.060000e+00
   P6d   N4r  1 4.700000e-01    3.390000e+00
   P5d   N4r  1 4.700000e-01    3.520000e+00
   P4d   N4r  1 4.700000e-01    3.520000e+00
   P3d   N4r  1 4.700000e-01    3.520000e+00
   P2d   N4r  1 4.700000e-01    3.520000e+00
   P1d   N4r  1 4.700000e-01    3.690000e+00
   N6d   N4r  1 4.700000e-01    3.880000e+00
   N5d   N4r  1 4.700000e-01    3.690000e+00
   N4r   N4d  1 4.700000e-01    3.690000e+00
   N4r   N1d  1 4.700000e-01    3.390000e+00
   N4r   N2d  1 4.700000e-01    3.520000e+00
   N4r   N3d  1 4.700000e-01    3.520000e+00
   P6a   N4r  1 4.700000e-01    3.390000e+00
   P5a   N4r  1 4.700000e-01    3.520000e+00
   P4a   N4r  1 4.700000e-01    3.520000e+00
   P3a   N4r  1 4.700000e-01    3.520000e+00
   P2a   N4r  1 4.700000e-01    3.520000e+00
   P1a   N4r  1 4.700000e-01    3.690000e+00
   N6a   N4r  1 4.700000e-01    3.880000e+00
   N5a   N4r  1 4.700000e-01    3.690000e+00
   N4r   N4a  1 4.700000e-01    3.690000e+00
   N4r   N1a  1 4.700000e-01    3.390000e+00
   N4r   N2a  1 4.700000e-01    3.520000e+00
   N4r   N3a  1 4.700000e-01    3.520000e+00
   N4r   C6v  1 4.700000e-01    3.520000e+00
   N4r   C5v  1 4.700000e-01    3.390000e+00
   N4r   C4v  1 4.700000e-01    3.390000e+00
   N4r   C3v  1 4.700000e-01    3.240000e+00
   N4r   C2v  1 4.700000e-01    3.070000e+00
   N4r   C1v  1 4.700000e-01    2.960000e+00
   N4r   X4v  1 4.700000e-01    3.880000e+00
   N4r   X3v  1 4.700000e-01    3.690000e+00
   N4r   X2v  1 4.700000e-01    3.390000e+00
   N4r   X1v  1 4.700000e-01    3.240000e+00
   N4r   C6e  1 4.700000e-01    3.520000e+00
   N4r   C5e  1 4.700000e-01    3.390000e+00
   N4r   C4e  1 4.700000e-01    3.390000e+00
   N4r   C3e  1 4.700000e-01    3.240000e+00
   N4r   C2e  1 4.700000e-01    3.070000e+00
   N4r   C1e  1 4.700000e-01    2.960000e+00
   N4r   X4e  1 4.700000e-01    3.880000e+00
   N4r   X3e  1 4.700000e-01    3.690000e+00
   N4r   X2e  1 4.700000e-01    3.390000e+00
   N4r   X1e  1 4.700000e-01    3.240000e+00
   P6q   N4r  1 4.700000e-01    3.690000e+00
   P5q   N4r  1 4.700000e-01    3.880000e+00
   P4q   N4r  1 4.700000e-01    3.880000e+00
   P3q   N4r  1 4.700000e-01    3.880000e+00
   P2q   N4r  1 4.700000e-01    3.880000e+00
   P1q   N4r  1 4.700000e-01    4.060000e+00
   N6q   N4r  1 4.700000e-01    4.250000e+00
   N5q   N4r  1 4.700000e-01    4.060000e+00
   N4r   N4q  1 4.700000e-01    4.060000e+00
   N4r  X1eq  1 4.700000e-01    3.520000e+00
   N4r  X2eq  1 4.700000e-01    3.690000e+00
   N4r  X3eq  1 4.700000e-01    4.060000e+00
   N4r  X4eq  1 4.700000e-01    4.250000e+00
   N4r  C1eq  1 4.700000e-01    3.240000e+00
   N4r  C2eq  1 4.700000e-01    3.390000e+00
   N4r  C3eq  1 4.700000e-01    3.520000e+00
   N4r  C4eq  1 4.700000e-01    3.690000e+00
   N4r  C5eq  1 4.700000e-01    3.690000e+00
   N4r  C6eq  1 4.700000e-01    3.880000e+00
   N4r  X1vq  1 4.700000e-01    3.520000e+00
   N4r  X2vq  1 4.700000e-01    3.690000e+00
   N4r  X3vq  1 4.700000e-01    4.060000e+00
   N4r  X4vq  1 4.700000e-01    4.250000e+00
   N4r  C1vq  1 4.700000e-01    3.240000e+00
   N4r  C2vq  1 4.700000e-01    3.390000e+00
   N4r  C3vq  1 4.700000e-01    3.520000e+00
   N4r  C4vq  1 4.700000e-01    3.690000e+00
   N4r  C5vq  1 4.700000e-01    3.690000e+00
   N4r  C6vq  1 4.700000e-01    3.880000e+00
   N4r  N1aq  1 4.700000e-01    3.690000e+00
   N4r  N2aq  1 4.700000e-01    3.880000e+00
   N4r  N3aq  1 4.700000e-01    3.880000e+00
   N4r  N4aq  1 4.700000e-01    4.060000e+00
  N5aq   N4r  1 4.700000e-01    4.060000e+00
  N6aq   N4r  1 4.700000e-01    4.250000e+00
  P1aq   N4r  1 4.700000e-01    4.060000e+00
  P2aq   N4r  1 4.700000e-01    3.880000e+00
  P3aq   N4r  1 4.700000e-01    3.880000e+00
  P4aq   N4r  1 4.700000e-01    3.880000e+00
  P5aq   N4r  1 4.700000e-01    3.880000e+00
  P6aq   N4r  1 4.700000e-01    3.690000e+00
   N4r  N1dq  1 4.700000e-01    3.690000e+00
   N4r  N2dq  1 4.700000e-01    3.880000e+00
   N4r  N3dq  1 4.700000e-01    3.880000e+00
   N4r  N4dq  1 4.700000e-01    4.060000e+00
  N5dq   N4r  1 4.700000e-01    4.060000e+00
  N6dq   N4r  1 4.700000e-01    4.250000e+00
  P1dq   N4r  1 4.700000e-01    4.060000e+00
  P2dq   N4r  1 4.700000e-01    3.880000e+00
  P3dq   N4r  1 4.700000e-01    3.880000e+00
  P4dq   N4r  1 4.700000e-01    3.880000e+00
  P5dq   N4r  1 4.700000e-01    3.880000e+00
  P6dq   N4r  1 4.700000e-01    3.690000e+00
   N4r   X1q  1 4.700000e-01    3.390000e+00
   N4r   X2q  1 4.700000e-01    3.520000e+00
   N4r   X3q  1 4.700000e-01    3.880000e+00
   N4r   X4q  1 4.700000e-01    4.060000e+00
   N4r   C1q  1 4.700000e-01    3.070000e+00
   N4r   C2q  1 4.700000e-01    3.240000e+00
   N4r   C3q  1 4.700000e-01    3.390000e+00
   N4r   C4q  1 4.700000e-01    3.520000e+00
   N4r   C5q  1 4.700000e-01    3.520000e+00
   N4r   C6q  1 4.700000e-01    3.690000e+00
   N4r   N1q  1 4.700000e-01    3.690000e+00
   N4r   N2q  1 4.700000e-01    3.880000e+00
   N4r   N3q  1 4.700000e-01    3.880000e+00
   P6d   N3r  1 4.700000e-01    3.240000e+00
   P5d   N3r  1 4.700000e-01    3.240000e+00
   P4d   N3r  1 4.700000e-01    3.390000e+00
   P3d   N3r  1 4.700000e-01    3.390000e+00
   P2d   N3r  1 4.700000e-01    3.390000e+00
   P1d   N3r  1 4.700000e-01    3.390000e+00
   N6d   N3r  1 4.700000e-01    3.520000e+00
   N5d   N3r  1 4.700000e-01    3.520000e+00
   N4d   N3r  1 4.700000e-01    3.520000e+00
   N3r   N3d  1 4.700000e-01    3.520000e+00
   N3r   N1d  1 4.700000e-01    3.390000e+00
   N3r   N2d  1 4.700000e-01    3.520000e+00
   P6a   N3r  1 4.700000e-01    3.240000e+00
   P5a   N3r  1 4.700000e-01    3.240000e+00
   P4a   N3r  1 4.700000e-01    3.390000e+00
   P3a   N3r  1 4.700000e-01    3.390000e+00
   P2a   N3r  1 4.700000e-01    3.390000e+00
   P1a   N3r  1 4.700000e-01    3.390000e+00
   N6a   N3r  1 4.700000e-01    3.520000e+00
   N5a   N3r  1 4.700000e-01    3.520000e+00
   N4a   N3r  1 4.700000e-01    3.520000e+00
   N3r   N3a  1 4.700000e-01    3.520000e+00
   N3r   N1a  1 4.700000e-01    3.390000e+00
   N3r   N2a  1 4.700000e-01    3.520000e+00
   N3r   C6v  1 4.700000e-01    3.520000e+00
   N3r   C5v  1 4.700000e-01    3.390000e+00
   N3r   C4v  1 4.700000e-01    3.390000e+00
   N3r   C3v  1 4.700000e-01    3.240000e+00
   N3r   C2v  1 4.700000e-01    3.240000e+00
   N3r   C1v  1 4.700000e-01    3.070000e+00
   N3r   X4v  1 4.700000e-01    3.690000e+00
   N3r   X3v  1 4.700000e-01    3.520000e+00
   N3r   X2v  1 4.700000e-01    3.390000e+00
   N3r   X1v  1 4.700000e-01    3.390000e+00
   N3r   C6e  1 4.700000e-01    3.520000e+00
   N3r   C5e  1 4.700000e-01    3.390000e+00
   N3r   C4e  1 4.700000e-01    3.390000e+00
   N3r   C3e  1 4.700000e-01    3.240000e+00
   N3r   C2e  1 4.700000e-01    3.240000e+00
   N3r   C1e  1 4.700000e-01    3.070000e+00
   N3r   X4e  1 4.700000e-01    3.690000e+00
   N3r   X3e  1 4.700000e-01    3.520000e+00
   N3r   X2e  1 4.700000e-01    3.390000e+00
   N3r   X1e  1 4.700000e-01    3.390000e+00
   P6q   N3r  1 4.700000e-01    3.520000e+00
   P5q   N3r  1 4.700000e-01    3.520000e+00
   P4q   N3r  1 4.700000e-01    3.690000e+00
   P3q   N3r  1 4.700000e-01    3.690000e+00
   P2q   N3r  1 4.700000e-01    3.690000e+00
   P1q   N3r  1 4.700000e-01    3.690000e+00
   N6q   N3r  1 4.700000e-01    3.880000e+00
   N5q   N3r  1 4.700000e-01    3.880000e+00
   N4q   N3r  1 4.700000e-01    3.880000e+00
   N3r   N3q  1 4.700000e-01    3.880000e+00
   N3r  X1eq  1 4.700000e-01    3.690000e+00
   N3r  X2eq  1 4.700000e-01    3.690000e+00
   N3r  X3eq  1 4.700000e-01    3.880000e+00
   N3r  X4eq  1 4.700000e-01    4.060000e+00
   N3r  C1eq  1 4.700000e-01    3.390000e+00
   N3r  C2eq  1 4.700000e-01    3.520000e+00
   N3r  C3eq  1 4.700000e-01    3.520000e+00
   N3r  C4eq  1 4.700000e-01    3.690000e+00
   N3r  C5eq  1 4.700000e-01    3.690000e+00
   N3r  C6eq  1 4.700000e-01    3.880000e+00
   N3r  X1vq  1 4.700000e-01    3.690000e+00
   N3r  X2vq  1 4.700000e-01    3.690000e+00
   N3r  X3vq  1 4.700000e-01    3.880000e+00
   N3r  X4vq  1 4.700000e-01    4.060000e+00
   N3r  C1vq  1 4.700000e-01    3.390000e+00
   N3r  C2vq  1 4.700000e-01    3.520000e+00
   N3r  C3vq  1 4.700000e-01    3.520000e+00
   N3r  C4vq  1 4.700000e-01    3.690000e+00
   N3r  C5vq  1 4.700000e-01    3.690000e+00
   N3r  C6vq  1 4.700000e-01    3.880000e+00
   N3r  N1aq  1 4.700000e-01    3.690000e+00
   N3r  N2aq  1 4.700000e-01    3.880000e+00
   N3r  N3aq  1 4.700000e-01    3.880000e+00
  N4aq   N3r  1 4.700000e-01    3.880000e+00
  N5aq   N3r  1 4.700000e-01    3.880000e+00
  N6aq   N3r  1 4.700000e-01    3.880000e+00
  P1aq   N3r  1 4.700000e-01    3.690000e+00
  P2aq   N3r  1 4.700000e-01    3.690000e+00
  P3aq   N3r  1 4.700000e-01    3.690000e+00
  P4aq   N3r  1 4.700000e-01    3.690000e+00
  P5aq   N3r  1 4.700000e-01    3.520000e+00
  P6aq   N3r  1 4.700000e-01    3.520000e+00
   N3r  N1dq  1 4.700000e-01    3.690000e+00
   N3r  N2dq  1 4.700000e-01    3.880000e+00
   N3r  N3dq  1 4.700000e-01    3.880000e+00
  N4dq   N3r  1 4.700000e-01    3.880000e+00
  N5dq   N3r  1 4.700000e-01    3.880000e+00
  N6dq   N3r  1 4.700000e-01    3.880000e+00
  P1dq   N3r  1 4.700000e-01    3.690000e+00
  P2dq   N3r  1 4.700000e-01    3.690000e+00
  P3dq   N3r  1 4.700000e-01    3.690000e+00
  P4dq   N3r  1 4.700000e-01    3.690000e+00
  P5dq   N3r  1 4.700000e-01    3.520000e+00
  P6dq   N3r  1 4.700000e-01    3.520000e+00
   N3r   X1q  1 4.700000e-01    3.520000e+00
   N3r   X2q  1 4.700000e-01    3.520000e+00
   N3r   X3q  1 4.700000e-01    3.690000e+00
   N3r   X4q  1 4.700000e-01    3.880000e+00
   N3r   C1q  1 4.700000e-01    3.240000e+00
   N3r   C2q  1 4.700000e-01    3.390000e+00
   N3r   C3q  1 4.700000e-01    3.390000e+00
   N3r   C4q  1 4.700000e-01    3.520000e+00
   N3r   C5q  1 4.700000e-01    3.520000e+00
   N3r   C6q  1 4.700000e-01    3.690000e+00
   N3r   N1q  1 4.700000e-01    3.690000e+00
   N3r   N2q  1 4.700000e-01    3.880000e+00
   P6d   N2r  1 4.700000e-01    3.070000e+00
   P5d   N2r  1 4.700000e-01    3.070000e+00
   P4d   N2r  1 4.700000e-01    3.240000e+00
   P3d   N2r  1 4.700000e-01    3.390000e+00
   P2d   N2r  1 4.700000e-01    3.390000e+00
   P1d   N2r  1 4.700000e-01    3.390000e+00
   N6d   N2r  1 4.700000e-01    3.390000e+00
   N5d   N2r  1 4.700000e-01    3.520000e+00
   N4d   N2r  1 4.700000e-01    3.520000e+00
   N3d   N2r  1 4.700000e-01    3.520000e+00
   N2r   N2d  1 4.700000e-01    3.520000e+00
   N2r   N1d  1 4.700000e-01    3.390000e+00
   P6a   N2r  1 4.700000e-01    3.070000e+00
   P5a   N2r  1 4.700000e-01    3.070000e+00
   P4a   N2r  1 4.700000e-01    3.240000e+00
   P3a   N2r  1 4.700000e-01    3.390000e+00
   P2a   N2r  1 4.700000e-01    3.390000e+00
   P1a   N2r  1 4.700000e-01    3.390000e+00
   N6a   N2r  1 4.700000e-01    3.390000e+00
   N5a   N2r  1 4.700000e-01    3.520000e+00
   N4a   N2r  1 4.700000e-01    3.520000e+00
   N3a   N2r  1 4.700000e-01    3.520000e+00
   N2r   N2a  1 4.700000e-01    3.520000e+00
   N2r   N1a  1 4.700000e-01    3.390000e+00
   N2r   C6v  1 4.700000e-01    3.520000e+00
   N2r   C5v  1 4.700000e-01    3.390000e+00
   N2r   C4v  1 4.700000e-01    3.390000e+00
   N2r   C3v  1 4.700000e-01    3.390000e+00
   N2r   C2v  1 4.700000e-01    3.240000e+00
   N2r   C1v  1 4.700000e-01    3.070000e+00
   N2r   X4v  1 4.700000e-01    3.690000e+00
   N2r   X3v  1 4.700000e-01    3.520000e+00
   N2r   X2v  1 4.700000e-01    3.390000e+00
   N2r   X1v  1 4.700000e-01    3.390000e+00
   N2r   C6e  1 4.700000e-01    3.520000e+00
   N2r   C5e  1 4.700000e-01    3.390000e+00
   N2r   C4e  1 4.700000e-01    3.390000e+00
   N2r   C3e  1 4.700000e-01    3.390000e+00
   N2r   C2e  1 4.700000e-01    3.240000e+00
   N2r   C1e  1 4.700000e-01    3.070000e+00
   N2r   X4e  1 4.700000e-01    3.690000e+00
   N2r   X3e  1 4.700000e-01    3.520000e+00
   N2r   X2e  1 4.700000e-01    3.390000e+00
   N2r   X1e  1 4.700000e-01    3.390000e+00
   P6q   N2r  1 4.700000e-01    3.390000e+00
   P5q   N2r  1 4.700000e-01    3.390000e+00
   P4q   N2r  1 4.700000e-01    3.520000e+00
   P3q   N2r  1 4.700000e-01    3.690000e+00
   P2q   N2r  1 4.700000e-01    3.690000e+00
   P1q   N2r  1 4.700000e-01    3.690000e+00
   N6q   N2r  1 4.700000e-01    3.690000e+00
   N5q   N2r  1 4.700000e-01    3.880000e+00
   N4q   N2r  1 4.700000e-01    3.880000e+00
   N3q   N2r  1 4.700000e-01    3.880000e+00
   N2r   N2q  1 4.700000e-01    3.880000e+00
   N2r  X1eq  1 4.700000e-01    3.690000e+00
   N2r  X2eq  1 4.700000e-01    3.690000e+00
   N2r  X3eq  1 4.700000e-01    3.880000e+00
   N2r  X4eq  1 4.700000e-01    4.060000e+00
   N2r  C1eq  1 4.700000e-01    3.390000e+00
   N2r  C2eq  1 4.700000e-01    3.520000e+00
   N2r  C3eq  1 4.700000e-01    3.690000e+00
   N2r  C4eq  1 4.700000e-01    3.690000e+00
   N2r  C5eq  1 4.700000e-01    3.690000e+00
   N2r  C6eq  1 4.700000e-01    3.880000e+00
   N2r  X1vq  1 4.700000e-01    3.690000e+00
   N2r  X2vq  1 4.700000e-01    3.690000e+00
   N2r  X3vq  1 4.700000e-01    3.880000e+00
   N2r  X4vq  1 4.700000e-01    4.060000e+00
   N2r  C1vq  1 4.700000e-01    3.390000e+00
   N2r  C2vq  1 4.700000e-01    3.520000e+00
   N2r  C3vq  1 4.700000e-01    3.690000e+00
   N2r  C4vq  1 4.700000e-01    3.690000e+00
   N2r  C5vq  1 4.700000e-01    3.690000e+00
   N2r  C6vq  1 4.700000e-01    3.880000e+00
   N2r  N1aq  1 4.700000e-01    3.690000e+00
   N2r  N2aq  1 4.700000e-01    3.880000e+00
  N3aq   N2r  1 4.700000e-01    3.880000e+00
  N4aq   N2r  1 4.700000e-01    3.880000e+00
  N5aq   N2r  1 4.700000e-01    3.880000e+00
  N6aq   N2r  1 4.700000e-01    3.690000e+00
  P1aq   N2r  1 4.700000e-01    3.690000e+00
  P2aq   N2r  1 4.700000e-01    3.690000e+00
  P3aq   N2r  1 4.700000e-01    3.690000e+00
  P4aq   N2r  1 4.700000e-01    3.520000e+00
  P5aq   N2r  1 4.700000e-01    3.390000e+00
  P6aq   N2r  1 4.700000e-01    3.390000e+00
   N2r  N1dq  1 4.700000e-01    3.690000e+00
   N2r  N2dq  1 4.700000e-01    3.880000e+00
  N3dq   N2r  1 4.700000e-01    3.880000e+00
  N4dq   N2r  1 4.700000e-01    3.880000e+00
  N5dq   N2r  1 4.700000e-01    3.880000e+00
  N6dq   N2r  1 4.700000e-01    3.690000e+00
  P1dq   N2r  1 4.700000e-01    3.690000e+00
  P2dq   N2r  1 4.700000e-01    3.690000e+00
  P3dq   N2r  1 4.700000e-01    3.690000e+00
  P4dq   N2r  1 4.700000e-01    3.520000e+00
  P5dq   N2r  1 4.700000e-01    3.390000e+00
  P6dq   N2r  1 4.700000e-01    3.390000e+00
   N2r   X1q  1 4.700000e-01    3.520000e+00
   N2r   X2q  1 4.700000e-01    3.520000e+00
   N2r   X3q  1 4.700000e-01    3.690000e+00
   N2r   X4q  1 4.700000e-01    3.880000e+00
   N2r   C1q  1 4.700000e-01    3.240000e+00
   N2r   C2q  1 4.700000e-01    3.390000e+00
   N2r   C3q  1 4.700000e-01    3.520000e+00
   N2r   C4q  1 4.700000e-01    3.520000e+00
   N2r   C5q  1 4.700000e-01    3.520000e+00
   N2r   C6q  1 4.700000e-01    3.690000e+00
   N2r   N1q  1 4.700000e-01    3.690000e+00
   P6d   N1r  1 4.700000e-01    2.960000e+00
   P5d   N1r  1 4.700000e-01    2.960000e+00
   P4d   N1r  1 4.700000e-01    3.070000e+00
   P3d   N1r  1 4.700000e-01    3.240000e+00
   P2d   N1r  1 4.700000e-01    3.390000e+00
   P1d   N1r  1 4.700000e-01    3.390000e+00
   N6d   N1r  1 4.700000e-01    3.390000e+00
   N5d   N1r  1 4.700000e-01    3.390000e+00
   N4d   N1r  1 4.700000e-01    3.390000e+00
   N3d   N1r  1 4.700000e-01    3.390000e+00
   N2d   N1r  1 4.700000e-01    3.390000e+00
   N1r   N1d  1 4.700000e-01    3.520000e+00
   P6a   N1r  1 4.700000e-01    2.960000e+00
   P5a   N1r  1 4.700000e-01    2.960000e+00
   P4a   N1r  1 4.700000e-01    3.070000e+00
   P3a   N1r  1 4.700000e-01    3.240000e+00
   P2a   N1r  1 4.700000e-01    3.390000e+00
   P1a   N1r  1 4.700000e-01    3.390000e+00
   N6a   N1r  1 4.700000e-01    3.390000e+00
   N5a   N1r  1 4.700000e-01    3.390000e+00
   N4a   N1r  1 4.700000e-01    3.390000e+00
   N3a   N1r  1 4.700000e-01    3.390000e+00
   N2a   N1r  1 4.700000e-01    3.390000e+00
   N1r   N1a  1 4.700000e-01    3.520000e+00
   N1r   C6v  1 4.700000e-01    3.690000e+00
   N1r   C5v  1 4.700000e-01    3.520000e+00
   N1r   C4v  1 4.700000e-01    3.520000e+00
   N1r   C3v  1 4.700000e-01    3.390000e+00
   N1r   C2v  1 4.700000e-01    3.240000e+00
   N1r   C1v  1 4.700000e-01    3.070000e+00
   N1r   X4v  1 4.700000e-01    3.520000e+00
   N1r   X3v  1 4.700000e-01    3.520000e+00
   N1r   X2v  1 4.700000e-01    3.390000e+00
   N1r   X1v  1 4.700000e-01    3.390000e+00
   N1r   C6e  1 4.700000e-01    3.690000e+00
   N1r   C5e  1 4.700000e-01    3.520000e+00
   N1r   C4e  1 4.700000e-01    3.520000e+00
   N1r   C3e  1 4.700000e-01    3.390000e+00
   N1r   C2e  1 4.700000e-01    3.240000e+00
   N1r   C1e  1 4.700000e-01    3.070000e+00
   N1r   X4e  1 4.700000e-01    3.520000e+00
   N1r   X3e  1 4.700000e-01    3.520000e+00
   N1r   X2e  1 4.700000e-01    3.390000e+00
   N1r   X1e  1 4.700000e-01    3.390000e+00
   P6q   N1r  1 4.700000e-01    3.240000e+00
   P5q   N1r  1 4.700000e-01    3.240000e+00
   P4q   N1r  1 4.700000e-01    3.390000e+00
   P3q   N1r  1 4.700000e-01    3.520000e+00
   P2q   N1r  1 4.700000e-01    3.690000e+00
   P1q   N1r  1 4.700000e-01    3.690000e+00
   N6q   N1r  1 4.700000e-01    3.690000e+00
   N5q   N1r  1 4.700000e-01    3.690000e+00
   N4q   N1r  1 4.700000e-01    3.690000e+00
   N3q   N1r  1 4.700000e-01    3.690000e+00
   N2q   N1r  1 4.700000e-01    3.690000e+00
   N1r   N1q  1 4.700000e-01    3.880000e+00
   N1r  X1eq  1 4.700000e-01    3.690000e+00
   N1r  X2eq  1 4.700000e-01    3.690000e+00
   N1r  X3eq  1 4.700000e-01    3.880000e+00
   N1r  X4eq  1 4.700000e-01    3.880000e+00
   N1r  C1eq  1 4.700000e-01    3.390000e+00
   N1r  C2eq  1 4.700000e-01    3.520000e+00
   N1r  C3eq  1 4.700000e-01    3.690000e+00
   N1r  C4eq  1 4.700000e-01    3.880000e+00
   N1r  C5eq  1 4.700000e-01    3.880000e+00
   N1r  C6eq  1 4.700000e-01    4.060000e+00
   N1r  X1vq  1 4.700000e-01    3.690000e+00
   N1r  X2vq  1 4.700000e-01    3.690000e+00
   N1r  X3vq  1 4.700000e-01    3.880000e+00
   N1r  X4vq  1 4.700000e-01    3.880000e+00
   N1r  C1vq  1 4.700000e-01    3.390000e+00
   N1r  C2vq  1 4.700000e-01    3.520000e+00
   N1r  C3vq  1 4.700000e-01    3.690000e+00
   N1r  C4vq  1 4.700000e-01    3.880000e+00
   N1r  C5vq  1 4.700000e-01    3.880000e+00
   N1r  C6vq  1 4.700000e-01    4.060000e+00
   N1r  N1aq  1 4.700000e-01    3.880000e+00
  N2aq   N1r  1 4.700000e-01    3.690000e+00
  N3aq   N1r  1 4.700000e-01    3.690000e+00
  N4aq   N1r  1 4.700000e-01    3.690000e+00
  N5aq   N1r  1 4.700000e-01    3.690000e+00
  N6aq   N1r  1 4.700000e-01    3.690000e+00
  P1aq   N1r  1 4.700000e-01    3.690000e+00
  P2aq   N1r  1 4.700000e-01    3.690000e+00
  P3aq   N1r  1 4.700000e-01    3.520000e+00
  P4aq   N1r  1 4.700000e-01    3.390000e+00
  P5aq   N1r  1 4.700000e-01    3.240000e+00
  P6aq   N1r  1 4.700000e-01    3.240000e+00
   N1r  N1dq  1 4.700000e-01    3.880000e+00
  N2dq   N1r  1 4.700000e-01    3.690000e+00
  N3dq   N1r  1 4.700000e-01    3.690000e+00
  N4dq   N1r  1 4.700000e-01    3.690000e+00
  N5dq   N1r  1 4.700000e-01    3.690000e+00
  N6dq   N1r  1 4.700000e-01    3.690000e+00
  P1dq   N1r  1 4.700000e-01    3.690000e+00
  P2dq   N1r  1 4.700000e-01    3.690000e+00
  P3dq   N1r  1 4.700000e-01    3.520000e+00
  P4dq   N1r  1 4.700000e-01    3.390000e+00
  P5dq   N1r  1 4.700000e-01    3.240000e+00
  P6dq   N1r  1 4.700000e-01    3.240000e+00
   N1r   X1q  1 4.700000e-01    3.520000e+00
   N1r   X2q  1 4.700000e-01    3.520000e+00
   N1r   X3q  1 4.700000e-01    3.690000e+00
   N1r   X4q  1 4.700000e-01    3.690000e+00
   N1r   C1q  1 4.700000e-01    3.240000e+00
   N1r   C2q  1 4.700000e-01    3.390000e+00
   N1r   C3q  1 4.700000e-01    3.520000e+00
   N1r   C4q  1 4.700000e-01    3.690000e+00
   N1r   C5q  1 4.700000e-01    3.690000e+00
   N1r   C6q  1 4.700000e-01    3.880000e+00
   P6d   C6r  1 4.700000e-01    2.960000e+00
   P5d   C6r  1 4.700000e-01    2.960000e+00
   P4d   C6r  1 4.700000e-01    3.070000e+00
   P3d   C6r  1 4.700000e-01    3.240000e+00
   P2d   C6r  1 4.700000e-01    3.240000e+00
   P1d   C6r  1 4.700000e-01    3.240000e+00
   N6d   C6r  1 4.700000e-01    3.390000e+00
   N5d   C6r  1 4.700000e-01    3.390000e+00
   N4d   C6r  1 4.700000e-01    3.390000e+00
   N3d   C6r  1 4.700000e-01    3.390000e+00
   N2d   C6r  1 4.700000e-01    3.390000e+00
   N1d   C6r  1 4.700000e-01    3.520000e+00
   P6a   C6r  1 4.700000e-01    2.960000e+00
   P5a   C6r  1 4.700000e-01    2.960000e+00
   P4a   C6r  1 4.700000e-01    3.070000e+00
   P3a   C6r  1 4.700000e-01    3.240000e+00
   P2a   C6r  1 4.700000e-01    3.240000e+00
   P1a   C6r  1 4.700000e-01    3.240000e+00
   N6a   C6r  1 4.700000e-01    3.390000e+00
   N5a   C6r  1 4.700000e-01    3.390000e+00
   N4a   C6r  1 4.700000e-01    3.390000e+00
   N3a   C6r  1 4.700000e-01    3.390000e+00
   N2a   C6r  1 4.700000e-01    3.390000e+00
   N1a   C6r  1 4.700000e-01    3.520000e+00
   C6r   C6v  1 4.700000e-01    3.690000e+00
   C6r   X1v  1 4.700000e-01    3.520000e+00
   C6r   X2v  1 4.700000e-01    3.520000e+00
   C6r   X3v  1 4.700000e-01    3.520000e+00
   C6r   X4v  1 4.700000e-01    3.520000e+00
   C6r   C1v  1 4.700000e-01    3.070000e+00
   C6r   C2v  1 4.700000e-01    3.240000e+00
   C6r   C3v  1 4.700000e-01    3.390000e+00
   C6r   C4v  1 4.700000e-01    3.520000e+00
   C6r   C5v  1 4.700000e-01    3.520000e+00
   C6r   C6e  1 4.700000e-01    3.690000e+00
   C6r   X1e  1 4.700000e-01    3.520000e+00
   C6r   X2e  1 4.700000e-01    3.520000e+00
   C6r   X3e  1 4.700000e-01    3.520000e+00
   C6r   X4e  1 4.700000e-01    3.520000e+00
   C6r   C1e  1 4.700000e-01    3.070000e+00
   C6r   C2e  1 4.700000e-01    3.240000e+00
   C6r   C3e  1 4.700000e-01    3.390000e+00
   C6r   C4e  1 4.700000e-01    3.520000e+00
   C6r   C5e  1 4.700000e-01    3.520000e+00
   P6q   C6r  1 4.700000e-01    3.240000e+00
   P5q   C6r  1 4.700000e-01    3.240000e+00
   P4q   C6r  1 4.700000e-01    3.390000e+00
   P3q   C6r  1 4.700000e-01    3.520000e+00
   P2q   C6r  1 4.700000e-01    3.520000e+00
   P1q   C6r  1 4.700000e-01    3.520000e+00
   N6q   C6r  1 4.700000e-01    3.690000e+00
   N5q   C6r  1 4.700000e-01    3.690000e+00
   N4q   C6r  1 4.700000e-01    3.690000e+00
   N3q   C6r  1 4.700000e-01    3.690000e+00
   N2q   C6r  1 4.700000e-01    3.690000e+00
   N1q   C6r  1 4.700000e-01    3.880000e+00
   C6r   C6q  1 4.700000e-01    3.880000e+00
   C6r  X1eq  1 4.700000e-01    3.880000e+00
   C6r  X2eq  1 4.700000e-01    3.880000e+00
   C6r  X3eq  1 4.700000e-01    3.880000e+00
   C6r  X4eq  1 4.700000e-01    3.880000e+00
   C6r  C1eq  1 4.700000e-01    3.390000e+00
   C6r  C2eq  1 4.700000e-01    3.520000e+00
   C6r  C3eq  1 4.700000e-01    3.690000e+00
   C6r  C4eq  1 4.700000e-01    3.880000e+00
   C6r  C5eq  1 4.700000e-01    3.880000e+00
   C6r  C6eq  1 4.700000e-01    4.060000e+00
   C6r  X1vq  1 4.700000e-01    3.880000e+00
   C6r  X2vq  1 4.700000e-01    3.880000e+00
   C6r  X3vq  1 4.700000e-01    3.880000e+00
   C6r  X4vq  1 4.700000e-01    3.880000e+00
   C6r  C1vq  1 4.700000e-01    3.390000e+00
   C6r  C2vq  1 4.700000e-01    3.520000e+00
   C6r  C3vq  1 4.700000e-01    3.690000e+00
   C6r  C4vq  1 4.700000e-01    3.880000e+00
   C6r  C5vq  1 4.700000e-01    3.880000e+00
   C6r  C6vq  1 4.700000e-01    4.060000e+00
  N1aq   C6r  1 4.700000e-01    3.880000e+00
  N2aq   C6r  1 4.700000e-01    3.690000e+00
  N3aq   C6r  1 4.700000e-01    3.690000e+00
  N4aq   C6r  1 4.700000e-01    3.690000e+00
  N5aq   C6r  1 4.700000e-01    3.690000e+00
  N6aq   C6r  1 4.700000e-01    3.690000e+00
  P1aq   C6r  1 4.700000e-01    3.520000e+00
  P2aq   C6r  1 4.700000e-01    3.520000e+00
  P3aq   C6r  1 4.700000e-01    3.520000e+00
  P4aq   C6r  1 4.700000e-01    3.390000e+00
  P5aq   C6r  1 4.700000e-01    3.240000e+00
  P6aq   C6r  1 4.700000e-01    3.240000e+00
  N1dq   C6r  1 4.700000e-01    3.880000e+00
  N2dq   C6r  1 4.700000e-01    3.690000e+00
  N3dq   C6r  1 4.700000e-01    3.690000e+00
  N4dq   C6r  1 4.700000e-01    3.690000e+00
  N5dq   C6r  1 4.700000e-01    3.690000e+00
  N6dq   C6r  1 4.700000e-01    3.690000e+00
  P1dq   C6r  1 4.700000e-01    3.520000e+00
  P2dq   C6r  1 4.700000e-01    3.520000e+00
  P3dq   C6r  1 4.700000e-01    3.520000e+00
  P4dq   C6r  1 4.700000e-01    3.390000e+00
  P5dq   C6r  1 4.700000e-01    3.240000e+00
  P6dq   C6r  1 4.700000e-01    3.240000e+00
   C6r   X1q  1 4.700000e-01    3.690000e+00
   C6r   X2q  1 4.700000e-01    3.690000e+00
   C6r   X3q  1 4.700000e-01    3.690000e+00
   C6r   X4q  1 4.700000e-01    3.690000e+00
   C6r   C1q  1 4.700000e-01    3.240000e+00
   C6r   C2q  1 4.700000e-01    3.390000e+00
   C6r   C3q  1 4.700000e-01    3.520000e+00
   C6r   C4q  1 4.700000e-01    3.690000e+00
   C6r   C5q  1 4.700000e-01    3.690000e+00
   P6d   C5r  1 4.700000e-01    2.790000e+00
   P5d   C5r  1 4.700000e-01    2.960000e+00
   P4d   C5r  1 4.700000e-01    2.960000e+00
   P3d   C5r  1 4.700000e-01    3.070000e+00
   P2d   C5r  1 4.700000e-01    3.070000e+00
   P1d   C5r  1 4.700000e-01    3.070000e+00
   N6d   C5r  1 4.700000e-01    3.240000e+00
   N5d   C5r  1 4.700000e-01    3.240000e+00
   N4d   C5r  1 4.700000e-01    3.240000e+00
   N3d   C5r  1 4.700000e-01    3.240000e+00
   N2d   C5r  1 4.700000e-01    3.240000e+00
   N1d   C5r  1 4.700000e-01    3.390000e+00
   P6a   C5r  1 4.700000e-01    2.790000e+00
   P5a   C5r  1 4.700000e-01    2.960000e+00
   P4a   C5r  1 4.700000e-01    2.960000e+00
   P3a   C5r  1 4.700000e-01    3.070000e+00
   P2a   C5r  1 4.700000e-01    3.070000e+00
   P1a   C5r  1 4.700000e-01    3.070000e+00
   N6a   C5r  1 4.700000e-01    3.240000e+00
   N5a   C5r  1 4.700000e-01    3.240000e+00
   N4a   C5r  1 4.700000e-01    3.240000e+00
   N3a   C5r  1 4.700000e-01    3.240000e+00
   N2a   C5r  1 4.700000e-01    3.240000e+00
   N1a   C5r  1 4.700000e-01    3.390000e+00
   C6v   C5r  1 4.700000e-01    3.520000e+00
   C5r   C5v  1 4.700000e-01    3.520000e+00
   C5r   X1v  1 4.700000e-01    3.520000e+00
   C5r   X2v  1 4.700000e-01    3.390000e+00
   C5r   X3v  1 4.700000e-01    3.390000e+00
   C5r   X4v  1 4.700000e-01    3.390000e+00
   C5r   C1v  1 4.700000e-01    3.240000e+00
   C5r   C2v  1 4.700000e-01    3.240000e+00
   C5r   C3v  1 4.700000e-01    3.390000e+00
   C5r   C4v  1 4.700000e-01    3.520000e+00
   C6e   C5r  1 4.700000e-01    3.520000e+00
   C5r   C5e  1 4.700000e-01    3.520000e+00
   C5r   X1e  1 4.700000e-01    3.520000e+00
   C5r   X2e  1 4.700000e-01    3.390000e+00
   C5r   X3e  1 4.700000e-01    3.390000e+00
   C5r   X4e  1 4.700000e-01    3.390000e+00
   C5r   C1e  1 4.700000e-01    3.240000e+00
   C5r   C2e  1 4.700000e-01    3.240000e+00
   C5r   C3e  1 4.700000e-01    3.390000e+00
   C5r   C4e  1 4.700000e-01    3.520000e+00
   P6q   C5r  1 4.700000e-01    3.070000e+00
   P5q   C5r  1 4.700000e-01    3.240000e+00
   P4q   C5r  1 4.700000e-01    3.240000e+00
   P3q   C5r  1 4.700000e-01    3.390000e+00
   P2q   C5r  1 4.700000e-01    3.390000e+00
   P1q   C5r  1 4.700000e-01    3.390000e+00
   N6q   C5r  1 4.700000e-01    3.520000e+00
   N5q   C5r  1 4.700000e-01    3.520000e+00
   N4q   C5r  1 4.700000e-01    3.520000e+00
   N3q   C5r  1 4.700000e-01    3.520000e+00
   N2q   C5r  1 4.700000e-01    3.520000e+00
   N1q   C5r  1 4.700000e-01    3.690000e+00
   C6q   C5r  1 4.700000e-01    3.690000e+00
   C5r   C5q  1 4.700000e-01    3.690000e+00
   C5r  X1eq  1 4.700000e-01    3.880000e+00
   C5r  X2eq  1 4.700000e-01    3.690000e+00
   C5r  X3eq  1 4.700000e-01    3.690000e+00
   C5r  X4eq  1 4.700000e-01    3.690000e+00
   C5r  C1eq  1 4.700000e-01    3.520000e+00
   C5r  C2eq  1 4.700000e-01    3.520000e+00
   C5r  C3eq  1 4.700000e-01    3.690000e+00
   C5r  C4eq  1 4.700000e-01    3.880000e+00
   C5r  C5eq  1 4.700000e-01    3.880000e+00
  C6eq   C5r  1 4.700000e-01    3.880000e+00
   C5r  X1vq  1 4.700000e-01    3.880000e+00
   C5r  X2vq  1 4.700000e-01    3.690000e+00
   C5r  X3vq  1 4.700000e-01    3.690000e+00
   C5r  X4vq  1 4.700000e-01    3.690000e+00
   C5r  C1vq  1 4.700000e-01    3.520000e+00
   C5r  C2vq  1 4.700000e-01    3.520000e+00
   C5r  C3vq  1 4.700000e-01    3.690000e+00
   C5r  C4vq  1 4.700000e-01    3.880000e+00
   C5r  C5vq  1 4.700000e-01    3.880000e+00
  C6vq   C5r  1 4.700000e-01    3.880000e+00
  N1aq   C5r  1 4.700000e-01    3.690000e+00
  N2aq   C5r  1 4.700000e-01    3.520000e+00
  N3aq   C5r  1 4.700000e-01    3.520000e+00
  N4aq   C5r  1 4.700000e-01    3.520000e+00
  N5aq   C5r  1 4.700000e-01    3.520000e+00
  N6aq   C5r  1 4.700000e-01    3.520000e+00
  P1aq   C5r  1 4.700000e-01    3.390000e+00
  P2aq   C5r  1 4.700000e-01    3.390000e+00
  P3aq   C5r  1 4.700000e-01    3.390000e+00
  P4aq   C5r  1 4.700000e-01    3.240000e+00
  P5aq   C5r  1 4.700000e-01    3.240000e+00
  P6aq   C5r  1 4.700000e-01    3.070000e+00
  N1dq   C5r  1 4.700000e-01    3.690000e+00
  N2dq   C5r  1 4.700000e-01    3.520000e+00
  N3dq   C5r  1 4.700000e-01    3.520000e+00
  N4dq   C5r  1 4.700000e-01    3.520000e+00
  N5dq   C5r  1 4.700000e-01    3.520000e+00
  N6dq   C5r  1 4.700000e-01    3.520000e+00
  P1dq   C5r  1 4.700000e-01    3.390000e+00
  P2dq   C5r  1 4.700000e-01    3.390000e+00
  P3dq   C5r  1 4.700000e-01    3.390000e+00
  P4dq   C5r  1 4.700000e-01    3.240000e+00
  P5dq   C5r  1 4.700000e-01    3.240000e+00
  P6dq   C5r  1 4.700000e-01    3.070000e+00
   C5r   X1q  1 4.700000e-01    3.690000e+00
   C5r   X2q  1 4.700000e-01    3.520000e+00
   C5r   X3q  1 4.700000e-01    3.520000e+00
   C5r   X4q  1 4.700000e-01    3.520000e+00
   C5r   C1q  1 4.700000e-01    3.390000e+00
   C5r   C2q  1 4.700000e-01    3.390000e+00
   C5r   C3q  1 4.700000e-01    3.520000e+00
   C5r   C4q  1 4.700000e-01    3.690000e+00
   P6d   C4r  1 4.700000e-01    2.620000e+00
   P5d   C4r  1 4.700000e-01    2.790000e+00
   P4d   C4r  1 4.700000e-01    2.790000e+00
   P3d   C4r  1 4.700000e-01    2.960000e+00
   P2d   C4r  1 4.700000e-01    2.960000e+00
   P1d   C4r  1 4.700000e-01    2.960000e+00
   N6d   C4r  1 4.700000e-01    3.070000e+00
   N5d   C4r  1 4.700000e-01    3.070000e+00
   N4d   C4r  1 4.700000e-01    3.240000e+00
   N3d   C4r  1 4.700000e-01    3.240000e+00
   N2d   C4r  1 4.700000e-01    3.240000e+00
   N1d   C4r  1 4.700000e-01    3.390000e+00
   P6a   C4r  1 4.700000e-01    2.620000e+00
   P5a   C4r  1 4.700000e-01    2.790000e+00
   P4a   C4r  1 4.700000e-01    2.790000e+00
   P3a   C4r  1 4.700000e-01    2.960000e+00
   P2a   C4r  1 4.700000e-01    2.960000e+00
   P1a   C4r  1 4.700000e-01    2.960000e+00
   N6a   C4r  1 4.700000e-01    3.070000e+00
   N5a   C4r  1 4.700000e-01    3.070000e+00
   N4a   C4r  1 4.700000e-01    3.240000e+00
   N3a   C4r  1 4.700000e-01    3.240000e+00
   N2a   C4r  1 4.700000e-01    3.240000e+00
   N1a   C4r  1 4.700000e-01    3.390000e+00
   C6v   C4r  1 4.700000e-01    3.520000e+00
   C5v   C4r  1 4.700000e-01    3.520000e+00
   C4r   C4v  1 4.700000e-01    3.520000e+00
   C4r   X1v  1 4.700000e-01    3.520000e+00
   C4r   X2v  1 4.700000e-01    3.390000e+00
   C4r   X3v  1 4.700000e-01    3.390000e+00
   C4r   X4v  1 4.700000e-01    3.390000e+00
   C4r   C1v  1 4.700000e-01    3.240000e+00
   C4r   C2v  1 4.700000e-01    3.390000e+00
   C4r   C3v  1 4.700000e-01    3.520000e+00
   C6e   C4r  1 4.700000e-01    3.520000e+00
   C5e   C4r  1 4.700000e-01    3.520000e+00
   C4r   C4e  1 4.700000e-01    3.520000e+00
   C4r   X1e  1 4.700000e-01    3.520000e+00
   C4r   X2e  1 4.700000e-01    3.390000e+00
   C4r   X3e  1 4.700000e-01    3.390000e+00
   C4r   X4e  1 4.700000e-01    3.390000e+00
   C4r   C1e  1 4.700000e-01    3.240000e+00
   C4r   C2e  1 4.700000e-01    3.390000e+00
   C4r   C3e  1 4.700000e-01    3.520000e+00
   P6q   C4r  1 4.700000e-01    2.960000e+00
   P5q   C4r  1 4.700000e-01    3.070000e+00
   P4q   C4r  1 4.700000e-01    3.070000e+00
   P3q   C4r  1 4.700000e-01    3.240000e+00
   P2q   C4r  1 4.700000e-01    3.240000e+00
   P1q   C4r  1 4.700000e-01    3.240000e+00
   N6q   C4r  1 4.700000e-01    3.390000e+00
   N5q   C4r  1 4.700000e-01    3.390000e+00
   N4q   C4r  1 4.700000e-01    3.520000e+00
   N3q   C4r  1 4.700000e-01    3.520000e+00
   N2q   C4r  1 4.700000e-01    3.520000e+00
   N1q   C4r  1 4.700000e-01    3.690000e+00
   C6q   C4r  1 4.700000e-01    3.690000e+00
   C5q   C4r  1 4.700000e-01    3.690000e+00
   C4r   C4q  1 4.700000e-01    3.690000e+00
   C4r  X1eq  1 4.700000e-01    3.880000e+00
   C4r  X2eq  1 4.700000e-01    3.690000e+00
   C4r  X3eq  1 4.700000e-01    3.690000e+00
   C4r  X4eq  1 4.700000e-01    3.690000e+00
   C4r  C1eq  1 4.700000e-01    3.520000e+00
   C4r  C2eq  1 4.700000e-01    3.690000e+00
   C4r  C3eq  1 4.700000e-01    3.880000e+00
   C4r  C4eq  1 4.700000e-01    3.880000e+00
  C5eq   C4r  1 4.700000e-01    3.880000e+00
  C6eq   C4r  1 4.700000e-01    3.880000e+00
   C4r  X1vq  1 4.700000e-01    3.880000e+00
   C4r  X2vq  1 4.700000e-01    3.690000e+00
   C4r  X3vq  1 4.700000e-01    3.690000e+00
   C4r  X4vq  1 4.700000e-01    3.690000e+00
   C4r  C1vq  1 4.700000e-01    3.520000e+00
   C4r  C2vq  1 4.700000e-01    3.690000e+00
   C4r  C3vq  1 4.700000e-01    3.880000e+00
   C4r  C4vq  1 4.700000e-01    3.880000e+00
  C5vq   C4r  1 4.700000e-01    3.880000e+00
  C6vq   C4r  1 4.700000e-01    3.880000e+00
  N1aq   C4r  1 4.700000e-01    3.690000e+00
  N2aq   C4r  1 4.700000e-01    3.520000e+00
  N3aq   C4r  1 4.700000e-01    3.520000e+00
  N4aq   C4r  1 4.700000e-01    3.520000e+00
  N5aq   C4r  1 4.700000e-01    3.390000e+00
  N6aq   C4r  1 4.700000e-01    3.390000e+00
  P1aq   C4r  1 4.700000e-01    3.240000e+00
  P2aq   C4r  1 4.700000e-01    3.240000e+00
  P3aq   C4r  1 4.700000e-01    3.240000e+00
  P4aq   C4r  1 4.700000e-01    3.070000e+00
  P5aq   C4r  1 4.700000e-01    3.070000e+00
  P6aq   C4r  1 4.700000e-01    2.960000e+00
  N1dq   C4r  1 4.700000e-01    3.690000e+00
  N2dq   C4r  1 4.700000e-01    3.520000e+00
  N3dq   C4r  1 4.700000e-01    3.520000e+00
  N4dq   C4r  1 4.700000e-01    3.520000e+00
  N5dq   C4r  1 4.700000e-01    3.390000e+00
  N6dq   C4r  1 4.700000e-01    3.390000e+00
  P1dq   C4r  1 4.700000e-01    3.240000e+00
  P2dq   C4r  1 4.700000e-01    3.240000e+00
  P3dq   C4r  1 4.700000e-01    3.240000e+00
  P4dq   C4r  1 4.700000e-01    3.070000e+00
  P5dq   C4r  1 4.700000e-01    3.070000e+00
  P6dq   C4r  1 4.700000e-01    2.960000e+00
   C4r   X1q  1 4.700000e-01    3.690000e+00
   C4r   X2q  1 4.700000e-01    3.520000e+00
   C4r   X3q  1 4.700000e-01    3.520000e+00
   C4r   X4q  1 4.700000e-01    3.520000e+00
   C4r   C1q  1 4.700000e-01    3.390000e+00
   C4r   C2q  1 4.700000e-01    3.520000e+00
   C4r   C3q  1 4.700000e-01    3.690000e+00
   P6d   C3r  1 4.700000e-01    2.440000e+00
   P5d   C3r  1 4.700000e-01    2.620000e+00
   P4d   C3r  1 4.700000e-01    2.620000e+00
   P3d   C3r  1 4.700000e-01    2.620000e+00
   P2d   C3r  1 4.700000e-01    2.790000e+00
   P1d   C3r  1 4.700000e-01    2.790000e+00
   N6d   C3r  1 4.700000e-01    2.960000e+00
   N5d   C3r  1 4.700000e-01    3.070000e+00
   N4d   C3r  1 4.700000e-01    3.070000e+00
   N3d   C3r  1 4.700000e-01    3.070000e+00
   N2d   C3r  1 4.700000e-01    3.240000e+00
   N1d   C3r  1 4.700000e-01    3.240000e+00
   P6a   C3r  1 4.700000e-01    2.440000e+00
   P5a   C3r  1 4.700000e-01    2.620000e+00
   P4a   C3r  1 4.700000e-01    2.620000e+00
   P3a   C3r  1 4.700000e-01    2.620000e+00
   P2a   C3r  1 4.700000e-01    2.790000e+00
   P1a   C3r  1 4.700000e-01    2.790000e+00
   N6a   C3r  1 4.700000e-01    2.960000e+00
   N5a   C3r  1 4.700000e-01    3.070000e+00
   N4a   C3r  1 4.700000e-01    3.070000e+00
   N3a   C3r  1 4.700000e-01    3.070000e+00
   N2a   C3r  1 4.700000e-01    3.240000e+00
   N1a   C3r  1 4.700000e-01    3.240000e+00
   C6v   C3r  1 4.700000e-01    3.390000e+00
   C5v   C3r  1 4.700000e-01    3.390000e+00
   C4v   C3r  1 4.700000e-01    3.520000e+00
   C3r   C3v  1 4.700000e-01    3.520000e+00
   C3r   X1v  1 4.700000e-01    3.520000e+00
   C3r   X2v  1 4.700000e-01    3.390000e+00
   C3r   X3v  1 4.700000e-01    3.390000e+00
   C3r   X4v  1 4.700000e-01    3.390000e+00
   C3r   C1v  1 4.700000e-01    3.520000e+00
   C3r   C2v  1 4.700000e-01    3.520000e+00
   C6e   C3r  1 4.700000e-01    3.390000e+00
   C5e   C3r  1 4.700000e-01    3.390000e+00
   C4e   C3r  1 4.700000e-01    3.520000e+00
   C3r   C3e  1 4.700000e-01    3.520000e+00
   C3r   X1e  1 4.700000e-01    3.520000e+00
   C3r   X2e  1 4.700000e-01    3.390000e+00
   C3r   X3e  1 4.700000e-01    3.390000e+00
   C3r   X4e  1 4.700000e-01    3.390000e+00
   C3r   C1e  1 4.700000e-01    3.520000e+00
   C3r   C2e  1 4.700000e-01    3.520000e+00
   P6q   C3r  1 4.700000e-01    2.790000e+00
   P5q   C3r  1 4.700000e-01    2.960000e+00
   P4q   C3r  1 4.700000e-01    2.960000e+00
   P3q   C3r  1 4.700000e-01    2.960000e+00
   P2q   C3r  1 4.700000e-01    3.070000e+00
   P1q   C3r  1 4.700000e-01    3.070000e+00
   N6q   C3r  1 4.700000e-01    3.240000e+00
   N5q   C3r  1 4.700000e-01    3.390000e+00
   N4q   C3r  1 4.700000e-01    3.390000e+00
   N3q   C3r  1 4.700000e-01    3.390000e+00
   N2q   C3r  1 4.700000e-01    3.520000e+00
   N1q   C3r  1 4.700000e-01    3.520000e+00
   C6q   C3r  1 4.700000e-01    3.520000e+00
   C5q   C3r  1 4.700000e-01    3.520000e+00
   C4q   C3r  1 4.700000e-01    3.690000e+00
   C3r   C3q  1 4.700000e-01    3.690000e+00
   C3r  X1eq  1 4.700000e-01    3.880000e+00
   C3r  X2eq  1 4.700000e-01    3.690000e+00
   C3r  X3eq  1 4.700000e-01    3.690000e+00
   C3r  X4eq  1 4.700000e-01    3.690000e+00
   C3r  C1eq  1 4.700000e-01    3.880000e+00
   C3r  C2eq  1 4.700000e-01    3.880000e+00
   C3r  C3eq  1 4.700000e-01    3.880000e+00
  C4eq   C3r  1 4.700000e-01    3.880000e+00
  C5eq   C3r  1 4.700000e-01    3.690000e+00
  C6eq   C3r  1 4.700000e-01    3.690000e+00
   C3r  X1vq  1 4.700000e-01    3.880000e+00
   C3r  X2vq  1 4.700000e-01    3.690000e+00
   C3r  X3vq  1 4.700000e-01    3.690000e+00
   C3r  X4vq  1 4.700000e-01    3.690000e+00
   C3r  C1vq  1 4.700000e-01    3.880000e+00
   C3r  C2vq  1 4.700000e-01    3.880000e+00
   C3r  C3vq  1 4.700000e-01    3.880000e+00
  C4vq   C3r  1 4.700000e-01    3.880000e+00
  C5vq   C3r  1 4.700000e-01    3.690000e+00
  C6vq   C3r  1 4.700000e-01    3.690000e+00
  N1aq   C3r  1 4.700000e-01    3.520000e+00
  N2aq   C3r  1 4.700000e-01    3.520000e+00
  N3aq   C3r  1 4.700000e-01    3.390000e+00
  N4aq   C3r  1 4.700000e-01    3.390000e+00
  N5aq   C3r  1 4.700000e-01    3.390000e+00
  N6aq   C3r  1 4.700000e-01    3.240000e+00
  P1aq   C3r  1 4.700000e-01    3.070000e+00
  P2aq   C3r  1 4.700000e-01    3.070000e+00
  P3aq   C3r  1 4.700000e-01    2.960000e+00
  P4aq   C3r  1 4.700000e-01    2.960000e+00
  P5aq   C3r  1 4.700000e-01    2.960000e+00
  P6aq   C3r  1 4.700000e-01    2.790000e+00
  N1dq   C3r  1 4.700000e-01    3.520000e+00
  N2dq   C3r  1 4.700000e-01    3.520000e+00
  N3dq   C3r  1 4.700000e-01    3.390000e+00
  N4dq   C3r  1 4.700000e-01    3.390000e+00
  N5dq   C3r  1 4.700000e-01    3.390000e+00
  N6dq   C3r  1 4.700000e-01    3.240000e+00
  P1dq   C3r  1 4.700000e-01    3.070000e+00
  P2dq   C3r  1 4.700000e-01    3.070000e+00
  P3dq   C3r  1 4.700000e-01    2.960000e+00
  P4dq   C3r  1 4.700000e-01    2.960000e+00
  P5dq   C3r  1 4.700000e-01    2.960000e+00
  P6dq   C3r  1 4.700000e-01    2.790000e+00
   C3r   X1q  1 4.700000e-01    3.690000e+00
   C3r   X2q  1 4.700000e-01    3.520000e+00
   C3r   X3q  1 4.700000e-01    3.520000e+00
   C3r   X4q  1 4.700000e-01    3.520000e+00
   C3r   C1q  1 4.700000e-01    3.690000e+00
   C3r   C2q  1 4.700000e-01    3.690000e+00
   P6d   C2r  1 4.700000e-01    2.440000e+00
   P5d   C2r  1 4.700000e-01    2.620000e+00
   P4d   C2r  1 4.700000e-01    2.620000e+00
   P3d   C2r  1 4.700000e-01    2.620000e+00
   P2d   C2r  1 4.700000e-01    2.790000e+00
   P1d   C2r  1 4.700000e-01    2.790000e+00
   N6d   C2r  1 4.700000e-01    2.960000e+00
   N5d   C2r  1 4.700000e-01    2.960000e+00
   N4d   C2r  1 4.700000e-01    2.960000e+00
   N3d   C2r  1 4.700000e-01    3.070000e+00
   N2d   C2r  1 4.700000e-01    3.070000e+00
   N1d   C2r  1 4.700000e-01    3.070000e+00
   P6a   C2r  1 4.700000e-01    2.440000e+00
   P5a   C2r  1 4.700000e-01    2.620000e+00
   P4a   C2r  1 4.700000e-01    2.620000e+00
   P3a   C2r  1 4.700000e-01    2.620000e+00
   P2a   C2r  1 4.700000e-01    2.790000e+00
   P1a   C2r  1 4.700000e-01    2.790000e+00
   N6a   C2r  1 4.700000e-01    2.960000e+00
   N5a   C2r  1 4.700000e-01    2.960000e+00
   N4a   C2r  1 4.700000e-01    2.960000e+00
   N3a   C2r  1 4.700000e-01    3.070000e+00
   N2a   C2r  1 4.700000e-01    3.070000e+00
   N1a   C2r  1 4.700000e-01    3.070000e+00
   C6v   C2r  1 4.700000e-01    3.240000e+00
   C5v   C2r  1 4.700000e-01    3.240000e+00
   C4v   C2r  1 4.700000e-01    3.390000e+00
   C3v   C2r  1 4.700000e-01    3.520000e+00
   C2r   C2v  1 4.700000e-01    3.520000e+00
   C2r   X1v  1 4.700000e-01    3.390000e+00
   C2r   X2v  1 4.700000e-01    3.390000e+00
   C2r   X3v  1 4.700000e-01    3.390000e+00
   C2r   X4v  1 4.700000e-01    3.070000e+00
   C2r   C1v  1 4.700000e-01    3.690000e+00
   C6e   C2r  1 4.700000e-01    3.240000e+00
   C5e   C2r  1 4.700000e-01    3.240000e+00
   C4e   C2r  1 4.700000e-01    3.390000e+00
   C3e   C2r  1 4.700000e-01    3.520000e+00
   C2r   C2e  1 4.700000e-01    3.520000e+00
   C2r   X1e  1 4.700000e-01    3.390000e+00
   C2r   X2e  1 4.700000e-01    3.390000e+00
   C2r   X3e  1 4.700000e-01    3.390000e+00
   C2r   X4e  1 4.700000e-01    3.070000e+00
   C2r   C1e  1 4.700000e-01    3.690000e+00
   P6q   C2r  1 4.700000e-01    2.790000e+00
   P5q   C2r  1 4.700000e-01    2.960000e+00
   P4q   C2r  1 4.700000e-01    2.960000e+00
   P3q   C2r  1 4.700000e-01    2.960000e+00
   P2q   C2r  1 4.700000e-01    3.070000e+00
   P1q   C2r  1 4.700000e-01    3.070000e+00
   N6q   C2r  1 4.700000e-01    3.240000e+00
   N5q   C2r  1 4.700000e-01    3.240000e+00
   N4q   C2r  1 4.700000e-01    3.240000e+00
   N3q   C2r  1 4.700000e-01    3.390000e+00
   N2q   C2r  1 4.700000e-01    3.390000e+00
   N1q   C2r  1 4.700000e-01    3.390000e+00
   C6q   C2r  1 4.700000e-01    3.390000e+00
   C5q   C2r  1 4.700000e-01    3.390000e+00
   C4q   C2r  1 4.700000e-01    3.520000e+00
   C3q   C2r  1 4.700000e-01    3.690000e+00
   C2r   C2q  1 4.700000e-01    3.690000e+00
   C2r  X1eq  1 4.700000e-01    3.690000e+00
   C2r  X2eq  1 4.700000e-01    3.690000e+00
   C2r  X3eq  1 4.700000e-01    3.690000e+00
   C2r  X4eq  1 4.700000e-01    3.390000e+00
   C2r  C1eq  1 4.700000e-01    4.060000e+00
   C2r  C2eq  1 4.700000e-01    3.880000e+00
  C3eq   C2r  1 4.700000e-01    3.880000e+00
  C4eq   C2r  1 4.700000e-01    3.690000e+00
  C5eq   C2r  1 4.700000e-01    3.520000e+00
  C6eq   C2r  1 4.700000e-01    3.520000e+00
   C2r  X1vq  1 4.700000e-01    3.690000e+00
   C2r  X2vq  1 4.700000e-01    3.690000e+00
   C2r  X3vq  1 4.700000e-01    3.690000e+00
   C2r  X4vq  1 4.700000e-01    3.390000e+00
   C2r  C1vq  1 4.700000e-01    4.060000e+00
   C2r  C2vq  1 4.700000e-01    3.880000e+00
  C3vq   C2r  1 4.700000e-01    3.880000e+00
  C4vq   C2r  1 4.700000e-01    3.690000e+00
  C5vq   C2r  1 4.700000e-01    3.520000e+00
  C6vq   C2r  1 4.700000e-01    3.520000e+00
  N1aq   C2r  1 4.700000e-01    3.390000e+00
  N2aq   C2r  1 4.700000e-01    3.390000e+00
  N3aq   C2r  1 4.700000e-01    3.390000e+00
  N4aq   C2r  1 4.700000e-01    3.240000e+00
  N5aq   C2r  1 4.700000e-01    3.240000e+00
  N6aq   C2r  1 4.700000e-01    3.240000e+00
  P1aq   C2r  1 4.700000e-01    3.070000e+00
  P2aq   C2r  1 4.700000e-01    3.070000e+00
  P3aq   C2r  1 4.700000e-01    2.960000e+00
  P4aq   C2r  1 4.700000e-01    2.960000e+00
  P5aq   C2r  1 4.700000e-01    2.960000e+00
  P6aq   C2r  1 4.700000e-01    2.790000e+00
  N1dq   C2r  1 4.700000e-01    3.390000e+00
  N2dq   C2r  1 4.700000e-01    3.390000e+00
  N3dq   C2r  1 4.700000e-01    3.390000e+00
  N4dq   C2r  1 4.700000e-01    3.240000e+00
  N5dq   C2r  1 4.700000e-01    3.240000e+00
  N6dq   C2r  1 4.700000e-01    3.240000e+00
  P1dq   C2r  1 4.700000e-01    3.070000e+00
  P2dq   C2r  1 4.700000e-01    3.070000e+00
  P3dq   C2r  1 4.700000e-01    2.960000e+00
  P4dq   C2r  1 4.700000e-01    2.960000e+00
  P5dq   C2r  1 4.700000e-01    2.960000e+00
  P6dq   C2r  1 4.700000e-01    2.790000e+00
   C2r   X1q  1 4.700000e-01    3.520000e+00
   C2r   X2q  1 4.700000e-01    3.520000e+00
   C2r   X3q  1 4.700000e-01    3.520000e+00
   C2r   X4q  1 4.700000e-01    3.240000e+00
   C2r   C1q  1 4.700000e-01    3.880000e+00
   P6d   C1r  1 5.200000e-01    2.120000e+00
   P5d   C1r  1 4.700000e-01    2.440000e+00
   P4d   C1r  1 4.700000e-01    2.440000e+00
   P3d   C1r  1 4.700000e-01    2.440000e+00
   P2d   C1r  1 4.700000e-01    2.620000e+00
   P1d   C1r  1 4.700000e-01    2.620000e+00
   N6d   C1r  1 4.700000e-01    2.790000e+00
   N5d   C1r  1 4.700000e-01    2.790000e+00
   N4d   C1r  1 4.700000e-01    2.790000e+00
   N3d   C1r  1 4.700000e-01    2.960000e+00
   N2d   C1r  1 4.700000e-01    2.960000e+00
   N1d   C1r  1 4.700000e-01    2.960000e+00
   P6a   C1r  1 5.200000e-01    2.120000e+00
   P5a   C1r  1 4.700000e-01    2.440000e+00
   P4a   C1r  1 4.700000e-01    2.440000e+00
   P3a   C1r  1 4.700000e-01    2.440000e+00
   P2a   C1r  1 4.700000e-01    2.620000e+00
   P1a   C1r  1 4.700000e-01    2.620000e+00
   N6a   C1r  1 4.700000e-01    2.790000e+00
   N5a   C1r  1 4.700000e-01    2.790000e+00
   N4a   C1r  1 4.700000e-01    2.790000e+00
   N3a   C1r  1 4.700000e-01    2.960000e+00
   N2a   C1r  1 4.700000e-01    2.960000e+00
   N1a   C1r  1 4.700000e-01    2.960000e+00
   C6v   C1r  1 4.700000e-01    3.070000e+00
   C5v   C1r  1 4.700000e-01    3.240000e+00
   C4v   C1r  1 4.700000e-01    3.240000e+00
   C3v   C1r  1 4.700000e-01    3.520000e+00
   C2v   C1r  1 4.700000e-01    3.690000e+00
   C1r   C1v  1 4.700000e-01    3.520000e+00
   C1r   X1v  1 4.700000e-01    3.390000e+00
   C1r   X2v  1 4.700000e-01    3.390000e+00
   C1r   X3v  1 4.700000e-01    3.390000e+00
   C1r   X4v  1 4.700000e-01    3.070000e+00
   C6e   C1r  1 4.700000e-01    3.070000e+00
   C5e   C1r  1 4.700000e-01    3.240000e+00
   C4e   C1r  1 4.700000e-01    3.240000e+00
   C3e   C1r  1 4.700000e-01    3.520000e+00
   C2e   C1r  1 4.700000e-01    3.690000e+00
   C1r   C1e  1 4.700000e-01    3.520000e+00
   C1r   X1e  1 4.700000e-01    3.390000e+00
   C1r   X2e  1 4.700000e-01    3.390000e+00
   C1r   X3e  1 4.700000e-01    3.390000e+00
   C1r   X4e  1 4.700000e-01    3.070000e+00
   P6q   C1r  1 4.700000e-01    2.440000e+00
   P5q   C1r  1 4.700000e-01    2.790000e+00
   P4q   C1r  1 4.700000e-01    2.790000e+00
   P3q   C1r  1 4.700000e-01    2.790000e+00
   P2q   C1r  1 4.700000e-01    2.960000e+00
   P1q   C1r  1 4.700000e-01    2.960000e+00
   N6q   C1r  1 4.700000e-01    3.070000e+00
   N5q   C1r  1 4.700000e-01    3.070000e+00
   N4q   C1r  1 4.700000e-01    3.070000e+00
   N3q   C1r  1 4.700000e-01    3.240000e+00
   N2q   C1r  1 4.700000e-01    3.240000e+00
   N1q   C1r  1 4.700000e-01    3.240000e+00
   C6q   C1r  1 4.700000e-01    3.240000e+00
   C5q   C1r  1 4.700000e-01    3.390000e+00
   C4q   C1r  1 4.700000e-01    3.390000e+00
   C3q   C1r  1 4.700000e-01    3.690000e+00
   C2q   C1r  1 4.700000e-01    3.880000e+00
   C1r   C1q  1 4.700000e-01    3.690000e+00
   C1r  X1eq  1 4.700000e-01    3.690000e+00
   C1r  X2eq  1 4.700000e-01    3.690000e+00
   C1r  X3eq  1 4.700000e-01    3.690000e+00
   C1r  X4eq  1 4.700000e-01    3.390000e+00
   C1r  C1eq  1 4.700000e-01    3.880000e+00
  C2eq   C1r  1 4.700000e-01    4.060000e+00
  C3eq   C1r  1 4.700000e-01    3.880000e+00
  C4eq   C1r  1 4.700000e-01    3.520000e+00
  C5eq   C1r  1 4.700000e-01    3.520000e+00
  C6eq   C1r  1 4.700000e-01    3.390000e+00
   C1r  X1vq  1 4.700000e-01    3.690000e+00
   C1r  X2vq  1 4.700000e-01    3.690000e+00
   C1r  X3vq  1 4.700000e-01    3.690000e+00
   C1r  X4vq  1 4.700000e-01    3.390000e+00
   C1r  C1vq  1 4.700000e-01    3.880000e+00
  C2vq   C1r  1 4.700000e-01    4.060000e+00
  C3vq   C1r  1 4.700000e-01    3.880000e+00
  C4vq   C1r  1 4.700000e-01    3.520000e+00
  C5vq   C1r  1 4.700000e-01    3.520000e+00
  C6vq   C1r  1 4.700000e-01    3.390000e+00
  N1aq   C1r  1 4.700000e-01    3.240000e+00
  N2aq   C1r  1 4.700000e-01    3.240000e+00
  N3aq   C1r  1 4.700000e-01    3.240000e+00
  N4aq   C1r  1 4.700000e-01    3.070000e+00
  N5aq   C1r  1 4.700000e-01    3.070000e+00
  N6aq   C1r  1 4.700000e-01    3.070000e+00
  P1aq   C1r  1 4.700000e-01    2.960000e+00
  P2aq   C1r  1 4.700000e-01    2.960000e+00
  P3aq   C1r  1 4.700000e-01    2.790000e+00
  P4aq   C1r  1 4.700000e-01    2.790000e+00
  P5aq   C1r  1 4.700000e-01    2.790000e+00
  P6aq   C1r  1 4.700000e-01    2.440000e+00
  N1dq   C1r  1 4.700000e-01    3.240000e+00
  N2dq   C1r  1 4.700000e-01    3.240000e+00
  N3dq   C1r  1 4.700000e-01    3.240000e+00
  N4dq   C1r  1 4.700000e-01    3.070000e+00
  N5dq   C1r  1 4.700000e-01    3.070000e+00
  N6dq   C1r  1 4.700000e-01    3.070000e+00
  P1dq   C1r  1 4.700000e-01    2.960000e+00
  P2dq   C1r  1 4.700000e-01    2.960000e+00
  P3dq   C1r  1 4.700000e-01    2.790000e+00
  P4dq   C1r  1 4.700000e-01    2.790000e+00
  P5dq   C1r  1 4.700000e-01    2.790000e+00
  P6dq   C1r  1 4.700000e-01    2.440000e+00
   C1r   X1q  1 4.700000e-01    3.520000e+00
   C1r   X2q  1 4.700000e-01    3.520000e+00
   C1r   X3q  1 4.700000e-01    3.520000e+00
   C1r   X4q  1 4.700000e-01    3.240000e+00
   P6d   X4r  1 4.700000e-01    3.070000e+00
   P5d   X4r  1 4.700000e-01    3.240000e+00
   P4d   X4r  1 4.700000e-01    3.240000e+00
   P3d   X4r  1 4.700000e-01    3.240000e+00
   P2d   X4r  1 4.700000e-01    3.240000e+00
   P1d   X4r  1 4.700000e-01    3.240000e+00
   N6d   X4r  1 4.700000e-01    3.390000e+00
   N5d   X4r  1 4.700000e-01    3.520000e+00
   N4d   X4r  1 4.700000e-01    3.690000e+00
   N3d   X4r  1 4.700000e-01    3.520000e+00
   N2d   X4r  1 4.700000e-01    3.520000e+00
   N1d   X4r  1 4.700000e-01    3.390000e+00
   P6a   X4r  1 4.700000e-01    3.070000e+00
   P5a   X4r  1 4.700000e-01    3.240000e+00
   P4a   X4r  1 4.700000e-01    3.240000e+00
   P3a   X4r  1 4.700000e-01    3.240000e+00
   P2a   X4r  1 4.700000e-01    3.240000e+00
   P1a   X4r  1 4.700000e-01    3.240000e+00
   N6a   X4r  1 4.700000e-01    3.390000e+00
   N5a   X4r  1 4.700000e-01    3.520000e+00
   N4a   X4r  1 4.700000e-01    3.690000e+00
   N3a   X4r  1 4.700000e-01    3.520000e+00
   N2a   X4r  1 4.700000e-01    3.520000e+00
   N1a   X4r  1 4.700000e-01    3.390000e+00
   C6v   X4r  1 4.700000e-01    3.520000e+00
   C5v   X4r  1 4.700000e-01    3.390000e+00
   C4v   X4r  1 4.700000e-01    3.390000e+00
   C3v   X4r  1 4.700000e-01    3.390000e+00
   C2v   X4r  1 4.700000e-01    3.070000e+00
   C1v   X4r  1 4.700000e-01    3.070000e+00
   X4r   X4v  1 4.700000e-01    3.520000e+00
   X4r   X1v  1 4.700000e-01    3.520000e+00
   X4r   X2v  1 4.700000e-01    3.520000e+00
   X4r   X3v  1 4.700000e-01    3.520000e+00
   C6e   X4r  1 4.700000e-01    3.520000e+00
   C5e   X4r  1 4.700000e-01    3.390000e+00
   C4e   X4r  1 4.700000e-01    3.390000e+00
   C3e   X4r  1 4.700000e-01    3.390000e+00
   C2e   X4r  1 4.700000e-01    3.070000e+00
   C1e   X4r  1 4.700000e-01    3.070000e+00
   X4r   X4e  1 4.700000e-01    3.520000e+00
   X4r   X1e  1 4.700000e-01    3.520000e+00
   X4r   X2e  1 4.700000e-01    3.520000e+00
   X4r   X3e  1 4.700000e-01    3.520000e+00
   P6q   X4r  1 4.700000e-01    3.390000e+00
   P5q   X4r  1 4.700000e-01    3.520000e+00
   P4q   X4r  1 4.700000e-01    3.520000e+00
   P3q   X4r  1 4.700000e-01    3.520000e+00
   P2q   X4r  1 4.700000e-01    3.520000e+00
   P1q   X4r  1 4.700000e-01    3.520000e+00
   N6q   X4r  1 4.700000e-01    3.690000e+00
   N5q   X4r  1 4.700000e-01    3.880000e+00
   N4q   X4r  1 4.700000e-01    4.060000e+00
   N3q   X4r  1 4.700000e-01    3.880000e+00
   N2q   X4r  1 4.700000e-01    3.880000e+00
   N1q   X4r  1 4.700000e-01    3.690000e+00
   C6q   X4r  1 4.700000e-01    3.690000e+00
   C5q   X4r  1 4.700000e-01    3.520000e+00
   C4q   X4r  1 4.700000e-01    3.520000e+00
   C3q   X4r  1 4.700000e-01    3.520000e+00
   C2q   X4r  1 4.700000e-01    3.240000e+00
   C1q   X4r  1 4.700000e-01    3.240000e+00
   X4r   X4q  1 4.700000e-01    3.690000e+00
   X4r  X1eq  1 4.700000e-01    3.880000e+00
   X4r  X2eq  1 4.700000e-01    3.880000e+00
   X4r  X3eq  1 4.700000e-01    3.880000e+00
   X4r  X4eq  1 4.700000e-01    3.880000e+00
  C1eq   X4r  1 4.700000e-01    3.390000e+00
  C2eq   X4r  1 4.700000e-01    3.390000e+00
  C3eq   X4r  1 4.700000e-01    3.690000e+00
  C4eq   X4r  1 4.700000e-01    3.690000e+00
  C5eq   X4r  1 4.700000e-01    3.690000e+00
  C6eq   X4r  1 4.700000e-01    3.880000e+00
   X4r  X1vq  1 4.700000e-01    3.880000e+00
   X4r  X2vq  1 4.700000e-01    3.880000e+00
   X4r  X3vq  1 4.700000e-01    3.880000e+00
   X4r  X4vq  1 4.700000e-01    3.880000e+00
  C1vq   X4r  1 4.700000e-01    3.390000e+00
  C2vq   X4r  1 4.700000e-01    3.390000e+00
  C3vq   X4r  1 4.700000e-01    3.690000e+00
  C4vq   X4r  1 4.700000e-01    3.690000e+00
  C5vq   X4r  1 4.700000e-01    3.690000e+00
  C6vq   X4r  1 4.700000e-01    3.880000e+00
  N1aq   X4r  1 4.700000e-01    3.690000e+00
  N2aq   X4r  1 4.700000e-01    3.880000e+00
  N3aq   X4r  1 4.700000e-01    3.880000e+00
  N4aq   X4r  1 4.700000e-01    4.060000e+00
  N5aq   X4r  1 4.700000e-01    3.880000e+00
  N6aq   X4r  1 4.700000e-01    3.690000e+00
  P1aq   X4r  1 4.700000e-01    3.520000e+00
  P2aq   X4r  1 4.700000e-01    3.520000e+00
  P3aq   X4r  1 4.700000e-01    3.520000e+00
  P4aq   X4r  1 4.700000e-01    3.520000e+00
  P5aq   X4r  1 4.700000e-01    3.520000e+00
  P6aq   X4r  1 4.700000e-01    3.390000e+00
  N1dq   X4r  1 4.700000e-01    3.690000e+00
  N2dq   X4r  1 4.700000e-01    3.880000e+00
  N3dq   X4r  1 4.700000e-01    3.880000e+00
  N4dq   X4r  1 4.700000e-01    4.060000e+00
  N5dq   X4r  1 4.700000e-01    3.880000e+00
  N6dq   X4r  1 4.700000e-01    3.690000e+00
  P1dq   X4r  1 4.700000e-01    3.520000e+00
  P2dq   X4r  1 4.700000e-01    3.520000e+00
  P3dq   X4r  1 4.700000e-01    3.520000e+00
  P4dq   X4r  1 4.700000e-01    3.520000e+00
  P5dq   X4r  1 4.700000e-01    3.520000e+00
  P6dq   X4r  1 4.700000e-01    3.390000e+00
   X4r   X1q  1 4.700000e-01    3.690000e+00
   X4r   X2q  1 4.700000e-01    3.690000e+00
   X4r   X3q  1 4.700000e-01    3.690000e+00
   P6d   X3r  1 4.700000e-01    3.070000e+00
   P5d   X3r  1 4.700000e-01    3.070000e+00
   P4d   X3r  1 4.700000e-01    3.070000e+00
   P3d   X3r  1 4.700000e-01    3.240000e+00
   P2d   X3r  1 4.700000e-01    3.240000e+00
   P1d   X3r  1 4.700000e-01    3.240000e+00
   N6d   X3r  1 4.700000e-01    3.240000e+00
   N5d   X3r  1 4.700000e-01    3.390000e+00
   N4d   X3r  1 4.700000e-01    3.520000e+00
   N3d   X3r  1 4.700000e-01    3.390000e+00
   N2d   X3r  1 4.700000e-01    3.390000e+00
   N1d   X3r  1 4.700000e-01    3.390000e+00
   P6a   X3r  1 4.700000e-01    3.070000e+00
   P5a   X3r  1 4.700000e-01    3.070000e+00
   P4a   X3r  1 4.700000e-01    3.070000e+00
   P3a   X3r  1 4.700000e-01    3.240000e+00
   P2a   X3r  1 4.700000e-01    3.240000e+00
   P1a   X3r  1 4.700000e-01    3.240000e+00
   N6a   X3r  1 4.700000e-01    3.240000e+00
   N5a   X3r  1 4.700000e-01    3.390000e+00
   N4a   X3r  1 4.700000e-01    3.520000e+00
   N3a   X3r  1 4.700000e-01    3.390000e+00
   N2a   X3r  1 4.700000e-01    3.390000e+00
   N1a   X3r  1 4.700000e-01    3.390000e+00
   C6v   X3r  1 4.700000e-01    3.520000e+00
   C5v   X3r  1 4.700000e-01    3.390000e+00
   C4v   X3r  1 4.700000e-01    3.390000e+00
   C3v   X3r  1 4.700000e-01    3.390000e+00
   C2v   X3r  1 4.700000e-01    3.390000e+00
   C1v   X3r  1 4.700000e-01    3.390000e+00
   X4v   X3r  1 4.700000e-01    3.520000e+00
   X3r   X3v  1 4.700000e-01    3.520000e+00
   X3r   X1v  1 4.700000e-01    3.690000e+00
   X3r   X2v  1 4.700000e-01    3.690000e+00
   C6e   X3r  1 4.700000e-01    3.520000e+00
   C5e   X3r  1 4.700000e-01    3.390000e+00
   C4e   X3r  1 4.700000e-01    3.390000e+00
   C3e   X3r  1 4.700000e-01    3.390000e+00
   C2e   X3r  1 4.700000e-01    3.390000e+00
   C1e   X3r  1 4.700000e-01    3.390000e+00
   X4e   X3r  1 4.700000e-01    3.520000e+00
   X3r   X3e  1 4.700000e-01    3.520000e+00
   X3r   X1e  1 4.700000e-01    3.690000e+00
   X3r   X2e  1 4.700000e-01    3.690000e+00
   P6q   X3r  1 4.700000e-01    3.390000e+00
   P5q   X3r  1 4.700000e-01    3.390000e+00
   P4q   X3r  1 4.700000e-01    3.390000e+00
   P3q   X3r  1 4.700000e-01    3.520000e+00
   P2q   X3r  1 4.700000e-01    3.520000e+00
   P1q   X3r  1 4.700000e-01    3.520000e+00
   N6q   X3r  1 4.700000e-01    3.520000e+00
   N5q   X3r  1 4.700000e-01    3.690000e+00
   N4q   X3r  1 4.700000e-01    3.880000e+00
   N3q   X3r  1 4.700000e-01    3.690000e+00
   N2q   X3r  1 4.700000e-01    3.690000e+00
   N1q   X3r  1 4.700000e-01    3.690000e+00
   C6q   X3r  1 4.700000e-01    3.690000e+00
   C5q   X3r  1 4.700000e-01    3.520000e+00
   C4q   X3r  1 4.700000e-01    3.520000e+00
   C3q   X3r  1 4.700000e-01    3.520000e+00
   C2q   X3r  1 4.700000e-01    3.520000e+00
   C1q   X3r  1 4.700000e-01    3.520000e+00
   X4q   X3r  1 4.700000e-01    3.690000e+00
   X3r   X3q  1 4.700000e-01    3.690000e+00
   X3r  X1eq  1 4.700000e-01    4.060000e+00
   X3r  X2eq  1 4.700000e-01    4.060000e+00
   X3r  X3eq  1 4.700000e-01    3.880000e+00
  X4eq   X3r  1 4.700000e-01    3.880000e+00
  C1eq   X3r  1 4.700000e-01    3.690000e+00
  C2eq   X3r  1 4.700000e-01    3.690000e+00
  C3eq   X3r  1 4.700000e-01    3.690000e+00
  C4eq   X3r  1 4.700000e-01    3.690000e+00
  C5eq   X3r  1 4.700000e-01    3.690000e+00
  C6eq   X3r  1 4.700000e-01    3.880000e+00
   X3r  X1vq  1 4.700000e-01    4.060000e+00
   X3r  X2vq  1 4.700000e-01    4.060000e+00
   X3r  X3vq  1 4.700000e-01    3.880000e+00
  X4vq   X3r  1 4.700000e-01    3.880000e+00
  C1vq   X3r  1 4.700000e-01    3.690000e+00
  C2vq   X3r  1 4.700000e-01    3.690000e+00
  C3vq   X3r  1 4.700000e-01    3.690000e+00
  C4vq   X3r  1 4.700000e-01    3.690000e+00
  C5vq   X3r  1 4.700000e-01    3.690000e+00
  C6vq   X3r  1 4.700000e-01    3.880000e+00
  N1aq   X3r  1 4.700000e-01    3.690000e+00
  N2aq   X3r  1 4.700000e-01    3.690000e+00
  N3aq   X3r  1 4.700000e-01    3.690000e+00
  N4aq   X3r  1 4.700000e-01    3.880000e+00
  N5aq   X3r  1 4.700000e-01    3.690000e+00
  N6aq   X3r  1 4.700000e-01    3.520000e+00
  P1aq   X3r  1 4.700000e-01    3.520000e+00
  P2aq   X3r  1 4.700000e-01    3.520000e+00
  P3aq   X3r  1 4.700000e-01    3.520000e+00
  P4aq   X3r  1 4.700000e-01    3.390000e+00
  P5aq   X3r  1 4.700000e-01    3.390000e+00
  P6aq   X3r  1 4.700000e-01    3.390000e+00
  N1dq   X3r  1 4.700000e-01    3.690000e+00
  N2dq   X3r  1 4.700000e-01    3.690000e+00
  N3dq   X3r  1 4.700000e-01    3.690000e+00
  N4dq   X3r  1 4.700000e-01    3.880000e+00
  N5dq   X3r  1 4.700000e-01    3.690000e+00
  N6dq   X3r  1 4.700000e-01    3.520000e+00
  P1dq   X3r  1 4.700000e-01    3.520000e+00
  P2dq   X3r  1 4.700000e-01    3.520000e+00
  P3dq   X3r  1 4.700000e-01    3.520000e+00
  P4dq   X3r  1 4.700000e-01    3.390000e+00
  P5dq   X3r  1 4.700000e-01    3.390000e+00
  P6dq   X3r  1 4.700000e-01    3.390000e+00
   X3r   X1q  1 4.700000e-01    3.880000e+00
   X3r   X2q  1 4.700000e-01    3.880000e+00
   P6d   X2r  1 4.700000e-01    2.960000e+00
   P5d   X2r  1 4.700000e-01    3.070000e+00
   P4d   X2r  1 4.700000e-01    3.070000e+00
   P3d   X2r  1 4.700000e-01    3.070000e+00
   P2d   X2r  1 4.700000e-01    3.070000e+00
   P1d   X2r  1 4.700000e-01    3.070000e+00
   N6d   X2r  1 4.700000e-01    3.070000e+00
   N5d   X2r  1 4.700000e-01    3.240000e+00
   N4d   X2r  1 4.700000e-01    3.240000e+00
   N3d   X2r  1 4.700000e-01    3.240000e+00
   N2d   X2r  1 4.700000e-01    3.240000e+00
   N1d   X2r  1 4.700000e-01    3.240000e+00
   P6a   X2r  1 4.700000e-01    2.960000e+00
   P5a   X2r  1 4.700000e-01    3.070000e+00
   P4a   X2r  1 4.700000e-01    3.070000e+00
   P3a   X2r  1 4.700000e-01    3.070000e+00
   P2a   X2r  1 4.700000e-01    3.070000e+00
   P1a   X2r  1 4.700000e-01    3.070000e+00
   N6a   X2r  1 4.700000e-01    3.070000e+00
   N5a   X2r  1 4.700000e-01    3.240000e+00
   N4a   X2r  1 4.700000e-01    3.240000e+00
   N3a   X2r  1 4.700000e-01    3.240000e+00
   N2a   X2r  1 4.700000e-01    3.240000e+00
   N1a   X2r  1 4.700000e-01    3.240000e+00
   C6v   X2r  1 4.700000e-01    3.520000e+00
   C5v   X2r  1 4.700000e-01    3.390000e+00
   C4v   X2r  1 4.700000e-01    3.390000e+00
   C3v   X2r  1 4.700000e-01    3.390000e+00
   C2v   X2r  1 4.700000e-01    3.390000e+00
   C1v   X2r  1 4.700000e-01    3.390000e+00
   X4v   X2r  1 4.700000e-01    3.520000e+00
   X3v   X2r  1 4.700000e-01    3.690000e+00
   X2r   X2v  1 4.700000e-01    3.690000e+00
   X2r   X1v  1 4.700000e-01    3.690000e+00
   C6e   X2r  1 4.700000e-01    3.520000e+00
   C5e   X2r  1 4.700000e-01    3.390000e+00
   C4e   X2r  1 4.700000e-01    3.390000e+00
   C3e   X2r  1 4.700000e-01    3.390000e+00
   C2e   X2r  1 4.700000e-01    3.390000e+00
   C1e   X2r  1 4.700000e-01    3.390000e+00
   X4e   X2r  1 4.700000e-01    3.520000e+00
   X3e   X2r  1 4.700000e-01    3.690000e+00
   X2r   X2e  1 4.700000e-01    3.690000e+00
   X2r   X1e  1 4.700000e-01    3.690000e+00
   P6q   X2r  1 4.700000e-01    3.240000e+00
   P5q   X2r  1 4.700000e-01    3.390000e+00
   P4q   X2r  1 4.700000e-01    3.390000e+00
   P3q   X2r  1 4.700000e-01    3.390000e+00
   P2q   X2r  1 4.700000e-01    3.390000e+00
   P1q   X2r  1 4.700000e-01    3.390000e+00
   N6q   X2r  1 4.700000e-01    3.390000e+00
   N5q   X2r  1 4.700000e-01    3.520000e+00
   N4q   X2r  1 4.700000e-01    3.520000e+00
   N3q   X2r  1 4.700000e-01    3.520000e+00
   N2q   X2r  1 4.700000e-01    3.520000e+00
   N1q   X2r  1 4.700000e-01    3.520000e+00
   C6q   X2r  1 4.700000e-01    3.690000e+00
   C5q   X2r  1 4.700000e-01    3.520000e+00
   C4q   X2r  1 4.700000e-01    3.520000e+00
   C3q   X2r  1 4.700000e-01    3.520000e+00
   C2q   X2r  1 4.700000e-01    3.520000e+00
   C1q   X2r  1 4.700000e-01    3.520000e+00
   X4q   X2r  1 4.700000e-01    3.690000e+00
   X3q   X2r  1 4.700000e-01    3.880000e+00
   X2r   X2q  1 4.700000e-01    3.880000e+00
   X2r  X1eq  1 4.700000e-01    4.060000e+00
   X2r  X2eq  1 4.700000e-01    4.060000e+00
  X3eq   X2r  1 4.700000e-01    4.060000e+00
  X4eq   X2r  1 4.700000e-01    3.880000e+00
  C1eq   X2r  1 4.700000e-01    3.690000e+00
  C2eq   X2r  1 4.700000e-01    3.690000e+00
  C3eq   X2r  1 4.700000e-01    3.690000e+00
  C4eq   X2r  1 4.700000e-01    3.690000e+00
  C5eq   X2r  1 4.700000e-01    3.690000e+00
  C6eq   X2r  1 4.700000e-01    3.880000e+00
   X2r  X1vq  1 4.700000e-01    4.060000e+00
   X2r  X2vq  1 4.700000e-01    4.060000e+00
  X3vq   X2r  1 4.700000e-01    4.060000e+00
  X4vq   X2r  1 4.700000e-01    3.880000e+00
  C1vq   X2r  1 4.700000e-01    3.690000e+00
  C2vq   X2r  1 4.700000e-01    3.690000e+00
  C3vq   X2r  1 4.700000e-01    3.690000e+00
  C4vq   X2r  1 4.700000e-01    3.690000e+00
  C5vq   X2r  1 4.700000e-01    3.690000e+00
  C6vq   X2r  1 4.700000e-01    3.880000e+00
  N1aq   X2r  1 4.700000e-01    3.520000e+00
  N2aq   X2r  1 4.700000e-01    3.520000e+00
  N3aq   X2r  1 4.700000e-01    3.520000e+00
  N4aq   X2r  1 4.700000e-01    3.520000e+00
  N5aq   X2r  1 4.700000e-01    3.520000e+00
  N6aq   X2r  1 4.700000e-01    3.390000e+00
  P1aq   X2r  1 4.700000e-01    3.390000e+00
  P2aq   X2r  1 4.700000e-01    3.390000e+00
  P3aq   X2r  1 4.700000e-01    3.390000e+00
  P4aq   X2r  1 4.700000e-01    3.390000e+00
  P5aq   X2r  1 4.700000e-01    3.390000e+00
  P6aq   X2r  1 4.700000e-01    3.240000e+00
  N1dq   X2r  1 4.700000e-01    3.520000e+00
  N2dq   X2r  1 4.700000e-01    3.520000e+00
  N3dq   X2r  1 4.700000e-01    3.520000e+00
  N4dq   X2r  1 4.700000e-01    3.520000e+00
  N5dq   X2r  1 4.700000e-01    3.520000e+00
  N6dq   X2r  1 4.700000e-01    3.390000e+00
  P1dq   X2r  1 4.700000e-01    3.390000e+00
  P2dq   X2r  1 4.700000e-01    3.390000e+00
  P3dq   X2r  1 4.700000e-01    3.390000e+00
  P4dq   X2r  1 4.700000e-01    3.390000e+00
  P5dq   X2r  1 4.700000e-01    3.390000e+00
  P6dq   X2r  1 4.700000e-01    3.240000e+00
   X2r   X1q  1 4.700000e-01    3.880000e+00
   P6d   X1r  1 4.700000e-01    2.790000e+00
   P5d   X1r  1 4.700000e-01    2.790000e+00
   P4d   X1r  1 4.700000e-01    2.960000e+00
   P3d   X1r  1 4.700000e-01    2.960000e+00
   P2d   X1r  1 4.700000e-01    2.960000e+00
   P1d   X1r  1 4.700000e-01    2.960000e+00
   N6d   X1r  1 4.700000e-01    2.960000e+00
   N5d   X1r  1 4.700000e-01    3.070000e+00
   N4d   X1r  1 4.700000e-01    3.070000e+00
   N3d   X1r  1 4.700000e-01    3.240000e+00
   N2d   X1r  1 4.700000e-01    3.240000e+00
   N1d   X1r  1 4.700000e-01    3.240000e+00
   P6a   X1r  1 4.700000e-01    2.790000e+00
   P5a   X1r  1 4.700000e-01    2.790000e+00
   P4a   X1r  1 4.700000e-01    2.960000e+00
   P3a   X1r  1 4.700000e-01    2.960000e+00
   P2a   X1r  1 4.700000e-01    2.960000e+00
   P1a   X1r  1 4.700000e-01    2.960000e+00
   N6a   X1r  1 4.700000e-01    2.960000e+00
   N5a   X1r  1 4.700000e-01    3.070000e+00
   N4a   X1r  1 4.700000e-01    3.070000e+00
   N3a   X1r  1 4.700000e-01    3.240000e+00
   N2a   X1r  1 4.700000e-01    3.240000e+00
   N1a   X1r  1 4.700000e-01    3.240000e+00
   C6v   X1r  1 4.700000e-01    3.520000e+00
   C5v   X1r  1 4.700000e-01    3.520000e+00
   C4v   X1r  1 4.700000e-01    3.520000e+00
   C3v   X1r  1 4.700000e-01    3.520000e+00
   C2v   X1r  1 4.700000e-01    3.390000e+00
   C1v   X1r  1 4.700000e-01    3.390000e+00
   X4v   X1r  1 4.700000e-01    3.520000e+00
   X3v   X1r  1 4.700000e-01    3.690000e+00
   X2v   X1r  1 4.700000e-01    3.690000e+00
   X1r   X1v  1 4.700000e-01    3.880000e+00
   C6e   X1r  1 4.700000e-01    3.520000e+00
   C5e   X1r  1 4.700000e-01    3.520000e+00
   C4e   X1r  1 4.700000e-01    3.520000e+00
   C3e   X1r  1 4.700000e-01    3.520000e+00
   C2e   X1r  1 4.700000e-01    3.390000e+00
   C1e   X1r  1 4.700000e-01    3.390000e+00
   X4e   X1r  1 4.700000e-01    3.520000e+00
   X3e   X1r  1 4.700000e-01    3.690000e+00
   X2e   X1r  1 4.700000e-01    3.690000e+00
   X1r   X1e  1 4.700000e-01    3.880000e+00
   P6q   X1r  1 4.700000e-01    3.070000e+00
   P5q   X1r  1 4.700000e-01    3.070000e+00
   P4q   X1r  1 4.700000e-01    3.240000e+00
   P3q   X1r  1 4.700000e-01    3.240000e+00
   P2q   X1r  1 4.700000e-01    3.240000e+00
   P1q   X1r  1 4.700000e-01    3.240000e+00
   N6q   X1r  1 4.700000e-01    3.240000e+00
   N5q   X1r  1 4.700000e-01    3.390000e+00
   N4q   X1r  1 4.700000e-01    3.390000e+00
   N3q   X1r  1 4.700000e-01    3.520000e+00
   N2q   X1r  1 4.700000e-01    3.520000e+00
   N1q   X1r  1 4.700000e-01    3.520000e+00
   C6q   X1r  1 4.700000e-01    3.690000e+00
   C5q   X1r  1 4.700000e-01    3.690000e+00
   C4q   X1r  1 4.700000e-01    3.690000e+00
   C3q   X1r  1 4.700000e-01    3.690000e+00
   C2q   X1r  1 4.700000e-01    3.520000e+00
   C1q   X1r  1 4.700000e-01    3.520000e+00
   X4q   X1r  1 4.700000e-01    3.690000e+00
   X3q   X1r  1 4.700000e-01    3.880000e+00
   X2q   X1r  1 4.700000e-01    3.880000e+00
   X1r   X1q  1 4.700000e-01    4.060000e+00
   X1r  X1eq  1 4.700000e-01    4.250000e+00
  X2eq   X1r  1 4.700000e-01    4.060000e+00
  X3eq   X1r  1 4.700000e-01    4.060000e+00
  X4eq   X1r  1 4.700000e-01    3.880000e+00
  C1eq   X1r  1 4.700000e-01    3.690000e+00
  C2eq   X1r  1 4.700000e-01    3.690000e+00
  C3eq   X1r  1 4.700000e-01    3.880000e+00
  C4eq   X1r  1 4.700000e-01    3.880000e+00
  C5eq   X1r  1 4.700000e-01    3.880000e+00
  C6eq   X1r  1 4.700000e-01    3.880000e+00
   X1r  X1vq  1 4.700000e-01    4.250000e+00
  X2vq   X1r  1 4.700000e-01    4.060000e+00
  X3vq   X1r  1 4.700000e-01    4.060000e+00
  X4vq   X1r  1 4.700000e-01    3.880000e+00
  C1vq   X1r  1 4.700000e-01    3.690000e+00
  C2vq   X1r  1 4.700000e-01    3.690000e+00
  C3vq   X1r  1 4.700000e-01    3.880000e+00
  C4vq   X1r  1 4.700000e-01    3.880000e+00
  C5vq   X1r  1 4.700000e-01    3.880000e+00
  C6vq   X1r  1 4.700000e-01    3.880000e+00
  N1aq   X1r  1 4.700000e-01    3.520000e+00
  N2aq   X1r  1 4.700000e-01    3.520000e+00
  N3aq   X1r  1 4.700000e-01    3.520000e+00
  N4aq   X1r  1 4.700000e-01    3.390000e+00
  N5aq   X1r  1 4.700000e-01    3.390000e+00
  N6aq   X1r  1 4.700000e-01    3.240000e+00
  P1aq   X1r  1 4.700000e-01    3.240000e+00
  P2aq   X1r  1 4.700000e-01    3.240000e+00
  P3aq   X1r  1 4.700000e-01    3.240000e+00
  P4aq   X1r  1 4.700000e-01    3.240000e+00
  P5aq   X1r  1 4.700000e-01    3.070000e+00
  P6aq   X1r  1 4.700000e-01    3.070000e+00
  N1dq   X1r  1 4.700000e-01    3.520000e+00
  N2dq   X1r  1 4.700000e-01    3.520000e+00
  N3dq   X1r  1 4.700000e-01    3.520000e+00
  N4dq   X1r  1 4.700000e-01    3.390000e+00
  N5dq   X1r  1 4.700000e-01    3.390000e+00
  N6dq   X1r  1 4.700000e-01    3.240000e+00
  P1dq   X1r  1 4.700000e-01    3.240000e+00
  P2dq   X1r  1 4.700000e-01    3.240000e+00
  P3dq   X1r  1 4.700000e-01    3.240000e+00
  P4dq   X1r  1 4.700000e-01    3.240000e+00
  P5dq   X1r  1 4.700000e-01    3.070000e+00
  P6dq   X1r  1 4.700000e-01    3.070000e+00
   P6q  P6dr  1 4.700000e-01    5.490000e+00
  P6dr   P5q  1 4.700000e-01    5.240000e+00
  P6dr   P4q  1 4.700000e-01    4.990000e+00
  P6dr   P3q  1 4.700000e-01    4.730000e+00
  P6dr   P2q  1 4.700000e-01    4.730000e+00
  P6dr   P1q  1 4.700000e-01    4.480000e+00
  P6dr   N6q  1 4.700000e-01    4.250000e+00
  P6dr   N5q  1 4.700000e-01    3.880000e+00
  P6dr   N4q  1 4.700000e-01    3.690000e+00
  P6dr   N3q  1 4.700000e-01    3.520000e+00
  P6dr   N2q  1 4.700000e-01    3.390000e+00
  P6dr   N1q  1 4.700000e-01    3.240000e+00
  P6dr   C6q  1 4.700000e-01    3.240000e+00
  P6dr   C5q  1 4.700000e-01    3.070000e+00
  P6dr   C4q  1 4.700000e-01    2.960000e+00
  P6dr   C3q  1 4.700000e-01    2.790000e+00
  P6dr   C2q  1 4.700000e-01    2.790000e+00
  P6dr   C1q  1 4.700000e-01    2.440000e+00
  P6dr   X4q  1 4.700000e-01    3.390000e+00
  P6dr   X3q  1 4.700000e-01    3.390000e+00
  P6dr   X2q  1 4.700000e-01    3.240000e+00
  P6dr   X1q  1 4.700000e-01    3.070000e+00
   P6q  P5dr  1 4.700000e-01    5.240000e+00
   P5q  P5dr  1 4.700000e-01    4.990000e+00
  P5dr   P4q  1 4.700000e-01    4.730000e+00
  P5dr   P3q  1 4.700000e-01    4.480000e+00
  P5dr   P2q  1 4.700000e-01    4.480000e+00
  P5dr   P1q  1 4.700000e-01    4.250000e+00
  P5dr   N6q  1 4.700000e-01    4.060000e+00
  P5dr   N5q  1 4.700000e-01    3.880000e+00
  P5dr   N4q  1 4.700000e-01    3.880000e+00
  P5dr   N3q  1 4.700000e-01    3.520000e+00
  P5dr   N2q  1 4.700000e-01    3.390000e+00
  P5dr   N1q  1 4.700000e-01    3.240000e+00
  P5dr   C6q  1 4.700000e-01    3.240000e+00
  P5dr   C5q  1 4.700000e-01    3.240000e+00
  P5dr   C4q  1 4.700000e-01    3.070000e+00
  P5dr   C3q  1 4.700000e-01    2.960000e+00
  P5dr   C2q  1 4.700000e-01    2.960000e+00
  P5dr   C1q  1 4.700000e-01    2.790000e+00
  P5dr   X4q  1 4.700000e-01    3.520000e+00
  P5dr   X3q  1 4.700000e-01    3.390000e+00
  P5dr   X2q  1 4.700000e-01    3.390000e+00
  P5dr   X1q  1 4.700000e-01    3.070000e+00
   P6q  P4dr  1 4.700000e-01    4.990000e+00
   P5q  P4dr  1 4.700000e-01    4.730000e+00
   P4q  P4dr  1 4.700000e-01    4.730000e+00
  P4dr   P3q  1 4.700000e-01    4.480000e+00
  P4dr   P2q  1 4.700000e-01    4.480000e+00
  P4dr   P1q  1 4.700000e-01    4.250000e+00
  P4dr   N6q  1 4.700000e-01    4.060000e+00
  P4dr   N5q  1 4.700000e-01    3.880000e+00
  P4dr   N4q  1 4.700000e-01    3.880000e+00
  P4dr   N3q  1 4.700000e-01    3.690000e+00
  P4dr   N2q  1 4.700000e-01    3.520000e+00
  P4dr   N1q  1 4.700000e-01    3.390000e+00
  P4dr   C6q  1 4.700000e-01    3.390000e+00
  P4dr   C5q  1 4.700000e-01    3.240000e+00
  P4dr   C4q  1 4.700000e-01    3.070000e+00
  P4dr   C3q  1 4.700000e-01    2.960000e+00
  P4dr   C2q  1 4.700000e-01    2.960000e+00
  P4dr   C1q  1 4.700000e-01    2.790000e+00
  P4dr   X4q  1 4.700000e-01    3.520000e+00
  P4dr   X3q  1 4.700000e-01    3.390000e+00
  P4dr   X2q  1 4.700000e-01    3.390000e+00
  P4dr   X1q  1 4.700000e-01    3.240000e+00
   P6q  P3dr  1 4.700000e-01    4.730000e+00
   P5q  P3dr  1 4.700000e-01    4.480000e+00
   P4q  P3dr  1 4.700000e-01    4.480000e+00
   P3q  P3dr  1 4.700000e-01    4.480000e+00
  P3dr   P2q  1 4.700000e-01    4.480000e+00
  P3dr   P1q  1 4.700000e-01    4.250000e+00
  P3dr   N6q  1 4.700000e-01    4.060000e+00
  P3dr   N5q  1 4.700000e-01    3.880000e+00
  P3dr   N4q  1 4.700000e-01    3.880000e+00
  P3dr   N3q  1 4.700000e-01    3.690000e+00
  P3dr   N2q  1 4.700000e-01    3.690000e+00
  P3dr   N1q  1 4.700000e-01    3.520000e+00
  P3dr   C6q  1 4.700000e-01    3.520000e+00
  P3dr   C5q  1 4.700000e-01    3.390000e+00
  P3dr   C4q  1 4.700000e-01    3.240000e+00
  P3dr   C3q  1 4.700000e-01    2.960000e+00
  P3dr   C2q  1 4.700000e-01    2.960000e+00
  P3dr   C1q  1 4.700000e-01    2.790000e+00
  P3dr   X4q  1 4.700000e-01    3.520000e+00
  P3dr   X3q  1 4.700000e-01    3.520000e+00
  P3dr   X2q  1 4.700000e-01    3.390000e+00
  P3dr   X1q  1 4.700000e-01    3.240000e+00
   P6q  P2dr  1 4.700000e-01    4.730000e+00
   P5q  P2dr  1 4.700000e-01    4.480000e+00
   P4q  P2dr  1 4.700000e-01    4.480000e+00
   P3q  P2dr  1 4.700000e-01    4.480000e+00
   P2q  P2dr  1 4.700000e-01    4.480000e+00
  P2dr   P1q  1 4.700000e-01    4.250000e+00
  P2dr   N6q  1 4.700000e-01    4.250000e+00
  P2dr   N5q  1 4.700000e-01    4.060000e+00
  P2dr   N4q  1 4.700000e-01    3.880000e+00
  P2dr   N3q  1 4.700000e-01    3.690000e+00
  P2dr   N2q  1 4.700000e-01    3.690000e+00
  P2dr   N1q  1 4.700000e-01    3.690000e+00
  P2dr   C6q  1 4.700000e-01    3.520000e+00
  P2dr   C5q  1 4.700000e-01    3.390000e+00
  P2dr   C4q  1 4.700000e-01    3.240000e+00
  P2dr   C3q  1 4.700000e-01    3.070000e+00
  P2dr   C2q  1 4.700000e-01    3.070000e+00
  P2dr   C1q  1 4.700000e-01    2.960000e+00
  P2dr   X4q  1 4.700000e-01    3.520000e+00
  P2dr   X3q  1 4.700000e-01    3.520000e+00
  P2dr   X2q  1 4.700000e-01    3.390000e+00
  P2dr   X1q  1 4.700000e-01    3.240000e+00
   P6q  P1dr  1 4.700000e-01    4.480000e+00
   P5q  P1dr  1 4.700000e-01    4.250000e+00
   P4q  P1dr  1 4.700000e-01    4.250000e+00
   P3q  P1dr  1 4.700000e-01    4.250000e+00
   P2q  P1dr  1 4.700000e-01    4.250000e+00
   P1q  P1dr  1 4.700000e-01    4.250000e+00
  P1dr   N6q  1 4.700000e-01    4.250000e+00
  P1dr   N5q  1 4.700000e-01    4.060000e+00
  P1dr   N4q  1 4.700000e-01    4.060000e+00
  P1dr   N3q  1 4.700000e-01    3.690000e+00
  P1dr   N2q  1 4.700000e-01    3.690000e+00
  P1dr   N1q  1 4.700000e-01    3.690000e+00
  P1dr   C6q  1 4.700000e-01    3.520000e+00
  P1dr   C5q  1 4.700000e-01    3.390000e+00
  P1dr   C4q  1 4.700000e-01    3.240000e+00
  P1dr   C3q  1 4.700000e-01    3.070000e+00
  P1dr   C2q  1 4.700000e-01    3.070000e+00
  P1dr   C1q  1 4.700000e-01    2.960000e+00
  P1dr   X4q  1 4.700000e-01    3.520000e+00
  P1dr   X3q  1 4.700000e-01    3.520000e+00
  P1dr   X2q  1 4.700000e-01    3.390000e+00
  P1dr   X1q  1 4.700000e-01    3.240000e+00
   P6q  N6dr  1 4.700000e-01    4.250000e+00
   P5q  N6dr  1 4.700000e-01    4.060000e+00
   P4q  N6dr  1 4.700000e-01    4.060000e+00
   P3q  N6dr  1 4.700000e-01    4.060000e+00
   P2q  N6dr  1 4.700000e-01    4.250000e+00
   P1q  N6dr  1 4.700000e-01    4.250000e+00
   N6q  N6dr  1 4.700000e-01    4.250000e+00
  N6dr   N5q  1 4.700000e-01    4.250000e+00
  N6dr   N4q  1 4.700000e-01    4.250000e+00
  N6dr   N3q  1 4.700000e-01    3.880000e+00
  N6dr   N2q  1 4.700000e-01    3.690000e+00
  N6dr   N1q  1 4.700000e-01    3.690000e+00
  N6dr   C6q  1 4.700000e-01    3.690000e+00
  N6dr   C5q  1 4.700000e-01    3.520000e+00
  N6dr   C4q  1 4.700000e-01    3.390000e+00
  N6dr   C3q  1 4.700000e-01    3.240000e+00
  N6dr   C2q  1 4.700000e-01    3.240000e+00
  N6dr   C1q  1 4.700000e-01    3.070000e+00
  N6dr   X4q  1 4.700000e-01    3.690000e+00
  N6dr   X3q  1 4.700000e-01    3.520000e+00
  N6dr   X2q  1 4.700000e-01    3.390000e+00
  N6dr   X1q  1 4.700000e-01    3.240000e+00
   P6q  N5dr  1 4.700000e-01    3.880000e+00
   P5q  N5dr  1 4.700000e-01    3.880000e+00
   P4q  N5dr  1 4.700000e-01    3.880000e+00
   P3q  N5dr  1 4.700000e-01    3.880000e+00
   P2q  N5dr  1 4.700000e-01    4.060000e+00
   P1q  N5dr  1 4.700000e-01    4.060000e+00
   N6q  N5dr  1 4.700000e-01    4.250000e+00
   N5q  N5dr  1 4.700000e-01    4.060000e+00
  N5dr   N4q  1 4.700000e-01    4.060000e+00
  N5dr   N3q  1 4.700000e-01    3.880000e+00
  N5dr   N2q  1 4.700000e-01    3.880000e+00
  N5dr   N1q  1 4.700000e-01    3.690000e+00
  N5dr   C6q  1 4.700000e-01    3.690000e+00
  N5dr   C5q  1 4.700000e-01    3.520000e+00
  N5dr   C4q  1 4.700000e-01    3.390000e+00
  N5dr   C3q  1 4.700000e-01    3.390000e+00
  N5dr   C2q  1 4.700000e-01    3.240000e+00
  N5dr   C1q  1 4.700000e-01    3.070000e+00
  N5dr   X4q  1 4.700000e-01    3.880000e+00
  N5dr   X3q  1 4.700000e-01    3.690000e+00
  N5dr   X2q  1 4.700000e-01    3.520000e+00
  N5dr   X1q  1 4.700000e-01    3.390000e+00
   P6q  N4dr  1 4.700000e-01    3.690000e+00
   P5q  N4dr  1 4.700000e-01    3.880000e+00
   P4q  N4dr  1 4.700000e-01    3.880000e+00
   P3q  N4dr  1 4.700000e-01    3.880000e+00
   P2q  N4dr  1 4.700000e-01    3.880000e+00
   P1q  N4dr  1 4.700000e-01    4.060000e+00
   N6q  N4dr  1 4.700000e-01    4.250000e+00
   N5q  N4dr  1 4.700000e-01    4.060000e+00
   N4q  N4dr  1 4.700000e-01    4.060000e+00
  N4dr   N3q  1 4.700000e-01    3.880000e+00
  N4dr   N2q  1 4.700000e-01    3.880000e+00
  N4dr   N1q  1 4.700000e-01    3.690000e+00
  N4dr   C6q  1 4.700000e-01    3.690000e+00
  N4dr   C5q  1 4.700000e-01    3.520000e+00
  N4dr   C4q  1 4.700000e-01    3.520000e+00
  N4dr   C3q  1 4.700000e-01    3.390000e+00
  N4dr   C2q  1 4.700000e-01    3.240000e+00
  N4dr   C1q  1 4.700000e-01    3.070000e+00
  N4dr   X4q  1 4.700000e-01    4.060000e+00
  N4dr   X3q  1 4.700000e-01    3.880000e+00
  N4dr   X2q  1 4.700000e-01    3.520000e+00
  N4dr   X1q  1 4.700000e-01    3.390000e+00
   P6q  N3dr  1 4.700000e-01    3.520000e+00
   P5q  N3dr  1 4.700000e-01    3.520000e+00
   P4q  N3dr  1 4.700000e-01    3.690000e+00
   P3q  N3dr  1 4.700000e-01    3.690000e+00
   P2q  N3dr  1 4.700000e-01    3.690000e+00
   P1q  N3dr  1 4.700000e-01    3.690000e+00
   N6q  N3dr  1 4.700000e-01    3.880000e+00
   N5q  N3dr  1 4.700000e-01    3.880000e+00
   N4q  N3dr  1 4.700000e-01    3.880000e+00
   N3q  N3dr  1 4.700000e-01    3.880000e+00
  N3dr   N2q  1 4.700000e-01    3.880000e+00
  N3dr   N1q  1 4.700000e-01    3.690000e+00
  N3dr   C6q  1 4.700000e-01    3.690000e+00
  N3dr   C5q  1 4.700000e-01    3.520000e+00
  N3dr   C4q  1 4.700000e-01    3.520000e+00
  N3dr   C3q  1 4.700000e-01    3.390000e+00
  N3dr   C2q  1 4.700000e-01    3.390000e+00
  N3dr   C1q  1 4.700000e-01    3.240000e+00
  N3dr   X4q  1 4.700000e-01    3.880000e+00
  N3dr   X3q  1 4.700000e-01    3.690000e+00
  N3dr   X2q  1 4.700000e-01    3.520000e+00
  N3dr   X1q  1 4.700000e-01    3.520000e+00
   P6q  N2dr  1 4.700000e-01    3.390000e+00
   P5q  N2dr  1 4.700000e-01    3.390000e+00
   P4q  N2dr  1 4.700000e-01    3.520000e+00
   P3q  N2dr  1 4.700000e-01    3.690000e+00
   P2q  N2dr  1 4.700000e-01    3.690000e+00
   P1q  N2dr  1 4.700000e-01    3.690000e+00
   N6q  N2dr  1 4.700000e-01    3.690000e+00
   N5q  N2dr  1 4.700000e-01    3.880000e+00
   N4q  N2dr  1 4.700000e-01    3.880000e+00
   N3q  N2dr  1 4.700000e-01    3.880000e+00
   N2q  N2dr  1 4.700000e-01    3.880000e+00
  N2dr   N1q  1 4.700000e-01    3.690000e+00
  N2dr   C6q  1 4.700000e-01    3.690000e+00
  N2dr   C5q  1 4.700000e-01    3.520000e+00
  N2dr   C4q  1 4.700000e-01    3.520000e+00
  N2dr   C3q  1 4.700000e-01    3.520000e+00
  N2dr   C2q  1 4.700000e-01    3.390000e+00
  N2dr   C1q  1 4.700000e-01    3.240000e+00
  N2dr   X4q  1 4.700000e-01    3.880000e+00
  N2dr   X3q  1 4.700000e-01    3.690000e+00
  N2dr   X2q  1 4.700000e-01    3.520000e+00
  N2dr   X1q  1 4.700000e-01    3.520000e+00
   P6q  N1dr  1 4.700000e-01    3.240000e+00
   P5q  N1dr  1 4.700000e-01    3.240000e+00
   P4q  N1dr  1 4.700000e-01    3.390000e+00
   P3q  N1dr  1 4.700000e-01    3.520000e+00
   P2q  N1dr  1 4.700000e-01    3.690000e+00
   P1q  N1dr  1 4.700000e-01    3.690000e+00
   N6q  N1dr  1 4.700000e-01    3.690000e+00
   N5q  N1dr  1 4.700000e-01    3.690000e+00
   N4q  N1dr  1 4.700000e-01    3.690000e+00
   N3q  N1dr  1 4.700000e-01    3.690000e+00
   N2q  N1dr  1 4.700000e-01    3.690000e+00
   N1q  N1dr  1 4.700000e-01    3.880000e+00
  N1dr   C6q  1 4.700000e-01    3.880000e+00
  N1dr   C5q  1 4.700000e-01    3.690000e+00
  N1dr   C4q  1 4.700000e-01    3.690000e+00
  N1dr   C3q  1 4.700000e-01    3.520000e+00
  N1dr   C2q  1 4.700000e-01    3.390000e+00
  N1dr   C1q  1 4.700000e-01    3.240000e+00
  N1dr   X4q  1 4.700000e-01    3.690000e+00
  N1dr   X3q  1 4.700000e-01    3.690000e+00
  N1dr   X2q  1 4.700000e-01    3.520000e+00
  N1dr   X1q  1 4.700000e-01    3.520000e+00
   P6q  P6ar  1 4.700000e-01    5.490000e+00
  P6ar   P5q  1 4.700000e-01    5.240000e+00
  P6ar   P4q  1 4.700000e-01    4.990000e+00
  P6ar   P3q  1 4.700000e-01    4.730000e+00
  P6ar   P2q  1 4.700000e-01    4.730000e+00
  P6ar   P1q  1 4.700000e-01    4.480000e+00
  P6ar   N6q  1 4.700000e-01    4.250000e+00
  P6ar   N5q  1 4.700000e-01    3.880000e+00
  P6ar   N4q  1 4.700000e-01    3.690000e+00
  P6ar   N3q  1 4.700000e-01    3.520000e+00
  P6ar   N2q  1 4.700000e-01    3.390000e+00
  P6ar   N1q  1 4.700000e-01    3.240000e+00
  P6ar   C6q  1 4.700000e-01    3.240000e+00
  P6ar   C5q  1 4.700000e-01    3.070000e+00
  P6ar   C4q  1 4.700000e-01    2.960000e+00
  P6ar   C3q  1 4.700000e-01    2.790000e+00
  P6ar   C2q  1 4.700000e-01    2.790000e+00
  P6ar   C1q  1 4.700000e-01    2.440000e+00
  P6ar   X4q  1 4.700000e-01    3.390000e+00
  P6ar   X3q  1 4.700000e-01    3.390000e+00
  P6ar   X2q  1 4.700000e-01    3.240000e+00
  P6ar   X1q  1 4.700000e-01    3.070000e+00
   P6q  P5ar  1 4.700000e-01    5.240000e+00
   P5q  P5ar  1 4.700000e-01    4.990000e+00
  P5ar   P4q  1 4.700000e-01    4.730000e+00
  P5ar   P3q  1 4.700000e-01    4.480000e+00
  P5ar   P2q  1 4.700000e-01    4.480000e+00
  P5ar   P1q  1 4.700000e-01    4.250000e+00
  P5ar   N6q  1 4.700000e-01    4.060000e+00
  P5ar   N5q  1 4.700000e-01    3.880000e+00
  P5ar   N4q  1 4.700000e-01    3.880000e+00
  P5ar   N3q  1 4.700000e-01    3.520000e+00
  P5ar   N2q  1 4.700000e-01    3.390000e+00
  P5ar   N1q  1 4.700000e-01    3.240000e+00
  P5ar   C6q  1 4.700000e-01    3.240000e+00
  P5ar   C5q  1 4.700000e-01    3.240000e+00
  P5ar   C4q  1 4.700000e-01    3.070000e+00
  P5ar   C3q  1 4.700000e-01    2.960000e+00
  P5ar   C2q  1 4.700000e-01    2.960000e+00
  P5ar   C1q  1 4.700000e-01    2.790000e+00
  P5ar   X4q  1 4.700000e-01    3.520000e+00
  P5ar   X3q  1 4.700000e-01    3.390000e+00
  P5ar   X2q  1 4.700000e-01    3.390000e+00
  P5ar   X1q  1 4.700000e-01    3.070000e+00
   P6q  P4ar  1 4.700000e-01    4.990000e+00
   P5q  P4ar  1 4.700000e-01    4.730000e+00
   P4q  P4ar  1 4.700000e-01    4.730000e+00
  P4ar   P3q  1 4.700000e-01    4.480000e+00
  P4ar   P2q  1 4.700000e-01    4.480000e+00
  P4ar   P1q  1 4.700000e-01    4.250000e+00
  P4ar   N6q  1 4.700000e-01    4.060000e+00
  P4ar   N5q  1 4.700000e-01    3.880000e+00
  P4ar   N4q  1 4.700000e-01    3.880000e+00
  P4ar   N3q  1 4.700000e-01    3.690000e+00
  P4ar   N2q  1 4.700000e-01    3.520000e+00
  P4ar   N1q  1 4.700000e-01    3.390000e+00
  P4ar   C6q  1 4.700000e-01    3.390000e+00
  P4ar   C5q  1 4.700000e-01    3.240000e+00
  P4ar   C4q  1 4.700000e-01    3.070000e+00
  P4ar   C3q  1 4.700000e-01    2.960000e+00
  P4ar   C2q  1 4.700000e-01    2.960000e+00
  P4ar   C1q  1 4.700000e-01    2.790000e+00
  P4ar   X4q  1 4.700000e-01    3.520000e+00
  P4ar   X3q  1 4.700000e-01    3.390000e+00
  P4ar   X2q  1 4.700000e-01    3.390000e+00
  P4ar   X1q  1 4.700000e-01    3.240000e+00
   P6q  P3ar  1 4.700000e-01    4.730000e+00
   P5q  P3ar  1 4.700000e-01    4.480000e+00
   P4q  P3ar  1 4.700000e-01    4.480000e+00
   P3q  P3ar  1 4.700000e-01    4.480000e+00
  P3ar   P2q  1 4.700000e-01    4.480000e+00
  P3ar   P1q  1 4.700000e-01    4.250000e+00
  P3ar   N6q  1 4.700000e-01    4.060000e+00
  P3ar   N5q  1 4.700000e-01    3.880000e+00
  P3ar   N4q  1 4.700000e-01    3.880000e+00
  P3ar   N3q  1 4.700000e-01    3.690000e+00
  P3ar   N2q  1 4.700000e-01    3.690000e+00
  P3ar   N1q  1 4.700000e-01    3.520000e+00
  P3ar   C6q  1 4.700000e-01    3.520000e+00
  P3ar   C5q  1 4.700000e-01    3.390000e+00
  P3ar   C4q  1 4.700000e-01    3.240000e+00
  P3ar   C3q  1 4.700000e-01    2.960000e+00
  P3ar   C2q  1 4.700000e-01    2.960000e+00
  P3ar   C1q  1 4.700000e-01    2.790000e+00
  P3ar   X4q  1 4.700000e-01    3.520000e+00
  P3ar   X3q  1 4.700000e-01    3.520000e+00
  P3ar   X2q  1 4.700000e-01    3.390000e+00
  P3ar   X1q  1 4.700000e-01    3.240000e+00
   P6q  P2ar  1 4.700000e-01    4.730000e+00
   P5q  P2ar  1 4.700000e-01    4.480000e+00
   P4q  P2ar  1 4.700000e-01    4.480000e+00
   P3q  P2ar  1 4.700000e-01    4.480000e+00
   P2q  P2ar  1 4.700000e-01    4.480000e+00
  P2ar   P1q  1 4.700000e-01    4.250000e+00
  P2ar   N6q  1 4.700000e-01    4.250000e+00
  P2ar   N5q  1 4.700000e-01    4.060000e+00
  P2ar   N4q  1 4.700000e-01    3.880000e+00
  P2ar   N3q  1 4.700000e-01    3.690000e+00
  P2ar   N2q  1 4.700000e-01    3.690000e+00
  P2ar   N1q  1 4.700000e-01    3.690000e+00
  P2ar   C6q  1 4.700000e-01    3.520000e+00
  P2ar   C5q  1 4.700000e-01    3.390000e+00
  P2ar   C4q  1 4.700000e-01    3.240000e+00
  P2ar   C3q  1 4.700000e-01    3.070000e+00
  P2ar   C2q  1 4.700000e-01    3.070000e+00
  P2ar   C1q  1 4.700000e-01    2.960000e+00
  P2ar   X4q  1 4.700000e-01    3.520000e+00
  P2ar   X3q  1 4.700000e-01    3.520000e+00
  P2ar   X2q  1 4.700000e-01    3.390000e+00
  P2ar   X1q  1 4.700000e-01    3.240000e+00
   P6q  P1ar  1 4.700000e-01    4.480000e+00
   P5q  P1ar  1 4.700000e-01    4.250000e+00
   P4q  P1ar  1 4.700000e-01    4.250000e+00
   P3q  P1ar  1 4.700000e-01    4.250000e+00
   P2q  P1ar  1 4.700000e-01    4.250000e+00
   P1q  P1ar  1 4.700000e-01    4.250000e+00
  P1ar   N6q  1 4.700000e-01    4.250000e+00
  P1ar   N5q  1 4.700000e-01    4.060000e+00
  P1ar   N4q  1 4.700000e-01    4.060000e+00
  P1ar   N3q  1 4.700000e-01    3.690000e+00
  P1ar   N2q  1 4.700000e-01    3.690000e+00
  P1ar   N1q  1 4.700000e-01    3.690000e+00
  P1ar   C6q  1 4.700000e-01    3.520000e+00
  P1ar   C5q  1 4.700000e-01    3.390000e+00
  P1ar   C4q  1 4.700000e-01    3.240000e+00
  P1ar   C3q  1 4.700000e-01    3.070000e+00
  P1ar   C2q  1 4.700000e-01    3.070000e+00
  P1ar   C1q  1 4.700000e-01    2.960000e+00
  P1ar   X4q  1 4.700000e-01    3.520000e+00
  P1ar   X3q  1 4.700000e-01    3.520000e+00
  P1ar   X2q  1 4.700000e-01    3.390000e+00
  P1ar   X1q  1 4.700000e-01    3.240000e+00
   P6q  N6ar  1 4.700000e-01    4.250000e+00
   P5q  N6ar  1 4.700000e-01    4.060000e+00
   P4q  N6ar  1 4.700000e-01    4.060000e+00
   P3q  N6ar  1 4.700000e-01    4.060000e+00
   P2q  N6ar  1 4.700000e-01    4.250000e+00
   P1q  N6ar  1 4.700000e-01    4.250000e+00
   N6q  N6ar  1 4.700000e-01    4.250000e+00
  N6ar   N5q  1 4.700000e-01    4.250000e+00
  N6ar   N4q  1 4.700000e-01    4.250000e+00
  N6ar   N3q  1 4.700000e-01    3.880000e+00
  N6ar   N2q  1 4.700000e-01    3.690000e+00
  N6ar   N1q  1 4.700000e-01    3.690000e+00
  N6ar   C6q  1 4.700000e-01    3.690000e+00
  N6ar   C5q  1 4.700000e-01    3.520000e+00
  N6ar   C4q  1 4.700000e-01    3.390000e+00
  N6ar   C3q  1 4.700000e-01    3.240000e+00
  N6ar   C2q  1 4.700000e-01    3.240000e+00
  N6ar   C1q  1 4.700000e-01    3.070000e+00
  N6ar   X4q  1 4.700000e-01    3.690000e+00
  N6ar   X3q  1 4.700000e-01    3.520000e+00
  N6ar   X2q  1 4.700000e-01    3.390000e+00
  N6ar   X1q  1 4.700000e-01    3.240000e+00
   P6q  N5ar  1 4.700000e-01    3.880000e+00
   P5q  N5ar  1 4.700000e-01    3.880000e+00
   P4q  N5ar  1 4.700000e-01    3.880000e+00
   P3q  N5ar  1 4.700000e-01    3.880000e+00
   P2q  N5ar  1 4.700000e-01    4.060000e+00
   P1q  N5ar  1 4.700000e-01    4.060000e+00
   N6q  N5ar  1 4.700000e-01    4.250000e+00
   N5q  N5ar  1 4.700000e-01    4.060000e+00
  N5ar   N4q  1 4.700000e-01    4.060000e+00
  N5ar   N3q  1 4.700000e-01    3.880000e+00
  N5ar   N2q  1 4.700000e-01    3.880000e+00
  N5ar   N1q  1 4.700000e-01    3.690000e+00
  N5ar   C6q  1 4.700000e-01    3.690000e+00
  N5ar   C5q  1 4.700000e-01    3.520000e+00
  N5ar   C4q  1 4.700000e-01    3.390000e+00
  N5ar   C3q  1 4.700000e-01    3.390000e+00
  N5ar   C2q  1 4.700000e-01    3.240000e+00
  N5ar   C1q  1 4.700000e-01    3.070000e+00
  N5ar   X4q  1 4.700000e-01    3.880000e+00
  N5ar   X3q  1 4.700000e-01    3.690000e+00
  N5ar   X2q  1 4.700000e-01    3.520000e+00
  N5ar   X1q  1 4.700000e-01    3.390000e+00
   P6q  N4ar  1 4.700000e-01    3.690000e+00
   P5q  N4ar  1 4.700000e-01    3.880000e+00
   P4q  N4ar  1 4.700000e-01    3.880000e+00
   P3q  N4ar  1 4.700000e-01    3.880000e+00
   P2q  N4ar  1 4.700000e-01    3.880000e+00
   P1q  N4ar  1 4.700000e-01    4.060000e+00
   N6q  N4ar  1 4.700000e-01    4.250000e+00
   N5q  N4ar  1 4.700000e-01    4.060000e+00
   N4q  N4ar  1 4.700000e-01    4.060000e+00
  N4ar   N3q  1 4.700000e-01    3.880000e+00
  N4ar   N2q  1 4.700000e-01    3.880000e+00
  N4ar   N1q  1 4.700000e-01    3.690000e+00
  N4ar   C6q  1 4.700000e-01    3.690000e+00
  N4ar   C5q  1 4.700000e-01    3.520000e+00
  N4ar   C4q  1 4.700000e-01    3.520000e+00
  N4ar   C3q  1 4.700000e-01    3.390000e+00
  N4ar   C2q  1 4.700000e-01    3.240000e+00
  N4ar   C1q  1 4.700000e-01    3.070000e+00
  N4ar   X4q  1 4.700000e-01    4.060000e+00
  N4ar   X3q  1 4.700000e-01    3.880000e+00
  N4ar   X2q  1 4.700000e-01    3.520000e+00
  N4ar   X1q  1 4.700000e-01    3.390000e+00
   P6q  N3ar  1 4.700000e-01    3.520000e+00
   P5q  N3ar  1 4.700000e-01    3.520000e+00
   P4q  N3ar  1 4.700000e-01    3.690000e+00
   P3q  N3ar  1 4.700000e-01    3.690000e+00
   P2q  N3ar  1 4.700000e-01    3.690000e+00
   P1q  N3ar  1 4.700000e-01    3.690000e+00
   N6q  N3ar  1 4.700000e-01    3.880000e+00
   N5q  N3ar  1 4.700000e-01    3.880000e+00
   N4q  N3ar  1 4.700000e-01    3.880000e+00
   N3q  N3ar  1 4.700000e-01    3.880000e+00
  N3ar   N2q  1 4.700000e-01    3.880000e+00
  N3ar   N1q  1 4.700000e-01    3.690000e+00
  N3ar   C6q  1 4.700000e-01    3.690000e+00
  N3ar   C5q  1 4.700000e-01    3.520000e+00
  N3ar   C4q  1 4.700000e-01    3.520000e+00
  N3ar   C3q  1 4.700000e-01    3.390000e+00
  N3ar   C2q  1 4.700000e-01    3.390000e+00
  N3ar   C1q  1 4.700000e-01    3.240000e+00
  N3ar   X4q  1 4.700000e-01    3.880000e+00
  N3ar   X3q  1 4.700000e-01    3.690000e+00
  N3ar   X2q  1 4.700000e-01    3.520000e+00
  N3ar   X1q  1 4.700000e-01    3.520000e+00
   P6q  N2ar  1 4.700000e-01    3.390000e+00
   P5q  N2ar  1 4.700000e-01    3.390000e+00
   P4q  N2ar  1 4.700000e-01    3.520000e+00
   P3q  N2ar  1 4.700000e-01    3.690000e+00
   P2q  N2ar  1 4.700000e-01    3.690000e+00
   P1q  N2ar  1 4.700000e-01    3.690000e+00
   N6q  N2ar  1 4.700000e-01    3.690000e+00
   N5q  N2ar  1 4.700000e-01    3.880000e+00
   N4q  N2ar  1 4.700000e-01    3.880000e+00
   N3q  N2ar  1 4.700000e-01    3.880000e+00
   N2q  N2ar  1 4.700000e-01    3.880000e+00
  N2ar   N1q  1 4.700000e-01    3.690000e+00
  N2ar   C6q  1 4.700000e-01    3.690000e+00
  N2ar   C5q  1 4.700000e-01    3.520000e+00
  N2ar   C4q  1 4.700000e-01    3.520000e+00
  N2ar   C3q  1 4.700000e-01    3.520000e+00
  N2ar   C2q  1 4.700000e-01    3.390000e+00
  N2ar   C1q  1 4.700000e-01    3.240000e+00
  N2ar   X4q  1 4.700000e-01    3.880000e+00
  N2ar   X3q  1 4.700000e-01    3.690000e+00
  N2ar   X2q  1 4.700000e-01    3.520000e+00
  N2ar   X1q  1 4.700000e-01    3.520000e+00
   P6q  N1ar  1 4.700000e-01    3.240000e+00
   P5q  N1ar  1 4.700000e-01    3.240000e+00
   P4q  N1ar  1 4.700000e-01    3.390000e+00
   P3q  N1ar  1 4.700000e-01    3.520000e+00
   P2q  N1ar  1 4.700000e-01    3.690000e+00
   P1q  N1ar  1 4.700000e-01    3.690000e+00
   N6q  N1ar  1 4.700000e-01    3.690000e+00
   N5q  N1ar  1 4.700000e-01    3.690000e+00
   N4q  N1ar  1 4.700000e-01    3.690000e+00
   N3q  N1ar  1 4.700000e-01    3.690000e+00
   N2q  N1ar  1 4.700000e-01    3.690000e+00
   N1q  N1ar  1 4.700000e-01    3.880000e+00
  N1ar   C6q  1 4.700000e-01    3.880000e+00
  N1ar   C5q  1 4.700000e-01    3.690000e+00
  N1ar   C4q  1 4.700000e-01    3.690000e+00
  N1ar   C3q  1 4.700000e-01    3.520000e+00
  N1ar   C2q  1 4.700000e-01    3.390000e+00
  N1ar   C1q  1 4.700000e-01    3.240000e+00
  N1ar   X4q  1 4.700000e-01    3.690000e+00
  N1ar   X3q  1 4.700000e-01    3.690000e+00
  N1ar   X2q  1 4.700000e-01    3.520000e+00
  N1ar   X1q  1 4.700000e-01    3.520000e+00
   C6v  C6vr  1 4.700000e-01    3.390000e+00
  C6vr   C5v  1 4.700000e-01    3.240000e+00
  C6vr   C4v  1 4.700000e-01    3.240000e+00
  C6vr   C3v  1 4.700000e-01    3.070000e+00
  C6vr   C2v  1 4.700000e-01    2.960000e+00
  C6vr   C1v  1 4.700000e-01    2.790000e+00
  C6vr   X4v  1 4.700000e-01    3.240000e+00
  C6vr   X3v  1 4.700000e-01    3.240000e+00
  C6vr   X2v  1 4.700000e-01    3.240000e+00
  C6vr   X1v  1 4.700000e-01    3.240000e+00
   P6q  C6vr  1 4.700000e-01    3.390000e+00
   P5q  C6vr  1 4.700000e-01    3.390000e+00
   P4q  C6vr  1 4.700000e-01    3.520000e+00
   P3q  C6vr  1 4.700000e-01    3.690000e+00
   P2q  C6vr  1 4.700000e-01    3.690000e+00
   P1q  C6vr  1 4.700000e-01    3.690000e+00
   N6q  C6vr  1 4.700000e-01    3.880000e+00
   N5q  C6vr  1 4.700000e-01    3.880000e+00
   N4q  C6vr  1 4.700000e-01    3.880000e+00
   N3q  C6vr  1 4.700000e-01    3.880000e+00
   N2q  C6vr  1 4.700000e-01    3.880000e+00
   N1q  C6vr  1 4.700000e-01    4.060000e+00
   C6q  C6vr  1 4.700000e-01    4.060000e+00
  C6vr   C5q  1 4.700000e-01    3.880000e+00
  C6vr   C4q  1 4.700000e-01    3.880000e+00
  C6vr   C3q  1 4.700000e-01    3.690000e+00
  C6vr   C2q  1 4.700000e-01    3.520000e+00
  C6vr   C1q  1 4.700000e-01    3.390000e+00
  C6vr   X4q  1 4.700000e-01    3.880000e+00
  C6vr   X3q  1 4.700000e-01    3.880000e+00
  C6vr   X2q  1 4.700000e-01    3.880000e+00
  C6vr   X1q  1 4.700000e-01    3.880000e+00
  C6vr  C6vq  1 4.700000e-01    3.690000e+00
  C6vr  X1vq  1 4.700000e-01    3.520000e+00
  C6vr  X2vq  1 4.700000e-01    3.520000e+00
  C6vr  X3vq  1 4.700000e-01    3.520000e+00
  C6vr  X4vq  1 4.700000e-01    3.520000e+00
  C6vr  C1vq  1 4.700000e-01    3.070000e+00
  C6vr  C2vq  1 4.700000e-01    3.240000e+00
  C6vr  C3vq  1 4.700000e-01    3.390000e+00
  C6vr  C4vq  1 4.700000e-01    3.520000e+00
  C6vr  C5vq  1 4.700000e-01    3.520000e+00
   C5v  C5vr  1 4.700000e-01    3.240000e+00
  C5vr   C4v  1 4.700000e-01    3.240000e+00
  C5vr   C3v  1 4.700000e-01    3.070000e+00
  C5vr   C2v  1 4.700000e-01    2.960000e+00
  C5vr   C1v  1 4.700000e-01    2.960000e+00
  C5vr   X4v  1 4.700000e-01    3.070000e+00
  C5vr   X3v  1 4.700000e-01    3.070000e+00
  C5vr   X2v  1 4.700000e-01    3.070000e+00
  C5vr   X1v  1 4.700000e-01    3.240000e+00
   P6q  C5vr  1 4.700000e-01    3.240000e+00
   P5q  C5vr  1 4.700000e-01    3.390000e+00
   P4q  C5vr  1 4.700000e-01    3.390000e+00
   P3q  C5vr  1 4.700000e-01    3.520000e+00
   P2q  C5vr  1 4.700000e-01    3.520000e+00
   P1q  C5vr  1 4.700000e-01    3.520000e+00
   N6q  C5vr  1 4.700000e-01    3.690000e+00
   N5q  C5vr  1 4.700000e-01    3.690000e+00
   N4q  C5vr  1 4.700000e-01    3.690000e+00
   N3q  C5vr  1 4.700000e-01    3.690000e+00
   N2q  C5vr  1 4.700000e-01    3.690000e+00
   N1q  C5vr  1 4.700000e-01    3.880000e+00
   C6q  C5vr  1 4.700000e-01    3.880000e+00
   C5q  C5vr  1 4.700000e-01    3.880000e+00
  C5vr   C4q  1 4.700000e-01    3.880000e+00
  C5vr   C3q  1 4.700000e-01    3.690000e+00
  C5vr   C2q  1 4.700000e-01    3.520000e+00
  C5vr   C1q  1 4.700000e-01    3.520000e+00
  C5vr   X4q  1 4.700000e-01    3.690000e+00
  C5vr   X3q  1 4.700000e-01    3.690000e+00
  C5vr   X2q  1 4.700000e-01    3.690000e+00
  C5vr   X1q  1 4.700000e-01    3.880000e+00
  C6vq  C5vr  1 4.700000e-01    3.520000e+00
  C5vr  C5vq  1 4.700000e-01    3.520000e+00
  C5vr  X1vq  1 4.700000e-01    3.520000e+00
  C5vr  X2vq  1 4.700000e-01    3.390000e+00
  C5vr  X3vq  1 4.700000e-01    3.390000e+00
  C5vr  X4vq  1 4.700000e-01    3.390000e+00
  C5vr  C1vq  1 4.700000e-01    3.240000e+00
  C5vr  C2vq  1 4.700000e-01    3.240000e+00
  C5vr  C3vq  1 4.700000e-01    3.390000e+00
  C5vr  C4vq  1 4.700000e-01    3.520000e+00
   C4v  C4vr  1 4.700000e-01    3.240000e+00
  C4vr   C3v  1 4.700000e-01    3.240000e+00
  C4vr   C2v  1 4.700000e-01    3.070000e+00
  C4vr   C1v  1 4.700000e-01    2.960000e+00
  C4vr   X4v  1 4.700000e-01    3.070000e+00
  C4vr   X3v  1 4.700000e-01    3.070000e+00
  C4vr   X2v  1 4.700000e-01    3.070000e+00
  C4vr   X1v  1 4.700000e-01    3.240000e+00
   P6q  C4vr  1 4.700000e-01    3.070000e+00
   P5q  C4vr  1 4.700000e-01    3.240000e+00
   P4q  C4vr  1 4.700000e-01    3.240000e+00
   P3q  C4vr  1 4.700000e-01    3.390000e+00
   P2q  C4vr  1 4.700000e-01    3.390000e+00
   P1q  C4vr  1 4.700000e-01    3.390000e+00
   N6q  C4vr  1 4.700000e-01    3.520000e+00
   N5q  C4vr  1 4.700000e-01    3.520000e+00
   N4q  C4vr  1 4.700000e-01    3.690000e+00
   N3q  C4vr  1 4.700000e-01    3.690000e+00
   N2q  C4vr  1 4.700000e-01    3.690000e+00
   N1q  C4vr  1 4.700000e-01    3.880000e+00
   C6q  C4vr  1 4.700000e-01    3.880000e+00
   C5q  C4vr  1 4.700000e-01    3.880000e+00
   C4q  C4vr  1 4.700000e-01    3.880000e+00
  C4vr   C3q  1 4.700000e-01    3.880000e+00
  C4vr   C2q  1 4.700000e-01    3.690000e+00
  C4vr   C1q  1 4.700000e-01    3.520000e+00
  C4vr   X4q  1 4.700000e-01    3.690000e+00
  C4vr   X3q  1 4.700000e-01    3.690000e+00
  C4vr   X2q  1 4.700000e-01    3.690000e+00
  C4vr   X1q  1 4.700000e-01    3.880000e+00
  C6vq  C4vr  1 4.700000e-01    3.520000e+00
  C5vq  C4vr  1 4.700000e-01    3.520000e+00
  C4vr  C4vq  1 4.700000e-01    3.520000e+00
  C4vr  X1vq  1 4.700000e-01    3.520000e+00
  C4vr  X2vq  1 4.700000e-01    3.390000e+00
  C4vr  X3vq  1 4.700000e-01    3.390000e+00
  C4vr  X4vq  1 4.700000e-01    3.390000e+00
  C4vr  C1vq  1 4.700000e-01    3.240000e+00
  C4vr  C2vq  1 4.700000e-01    3.390000e+00
  C4vr  C3vq  1 4.700000e-01    3.520000e+00
   C3v  C3vr  1 4.700000e-01    3.240000e+00
  C3vr   C2v  1 4.700000e-01    3.240000e+00
  C3vr   C1v  1 4.700000e-01    3.240000e+00
  C3vr   X4v  1 4.700000e-01    3.070000e+00
  C3vr   X3v  1 4.700000e-01    3.070000e+00
  C3vr   X2v  1 4.700000e-01    3.070000e+00
  C3vr   X1v  1 4.700000e-01    3.240000e+00
   P6q  C3vr  1 4.700000e-01    2.960000e+00
   P5q  C3vr  1 4.700000e-01    3.070000e+00
   P4q  C3vr  1 4.700000e-01    3.070000e+00
   P3q  C3vr  1 4.700000e-01    3.070000e+00
   P2q  C3vr  1 4.700000e-01    3.240000e+00
   P1q  C3vr  1 4.700000e-01    3.240000e+00
   N6q  C3vr  1 4.700000e-01    3.390000e+00
   N5q  C3vr  1 4.700000e-01    3.520000e+00
   N4q  C3vr  1 4.700000e-01    3.520000e+00
   N3q  C3vr  1 4.700000e-01    3.520000e+00
   N2q  C3vr  1 4.700000e-01    3.690000e+00
   N1q  C3vr  1 4.700000e-01    3.690000e+00
   C6q  C3vr  1 4.700000e-01    3.690000e+00
   C5q  C3vr  1 4.700000e-01    3.690000e+00
   C4q  C3vr  1 4.700000e-01    3.880000e+00
   C3q  C3vr  1 4.700000e-01    3.880000e+00
  C3vr   C2q  1 4.700000e-01    3.880000e+00
  C3vr   C1q  1 4.700000e-01    3.880000e+00
  C3vr   X4q  1 4.700000e-01    3.690000e+00
  C3vr   X3q  1 4.700000e-01    3.690000e+00
  C3vr   X2q  1 4.700000e-01    3.690000e+00
  C3vr   X1q  1 4.700000e-01    3.880000e+00
  C6vq  C3vr  1 4.700000e-01    3.390000e+00
  C5vq  C3vr  1 4.700000e-01    3.390000e+00
  C4vq  C3vr  1 4.700000e-01    3.520000e+00
  C3vr  C3vq  1 4.700000e-01    3.520000e+00
  C3vr  X1vq  1 4.700000e-01    3.520000e+00
  C3vr  X2vq  1 4.700000e-01    3.390000e+00
  C3vr  X3vq  1 4.700000e-01    3.390000e+00
  C3vr  X4vq  1 4.700000e-01    3.390000e+00
  C3vr  C1vq  1 4.700000e-01    3.520000e+00
  C3vr  C2vq  1 4.700000e-01    3.520000e+00
   C2v  C2vr  1 4.700000e-01    3.240000e+00
  C2vr   C1v  1 4.700000e-01    3.390000e+00
  C2vr   X4v  1 4.700000e-01    2.790000e+00
  C2vr   X3v  1 4.700000e-01    3.070000e+00
  C2vr   X2v  1 4.700000e-01    3.070000e+00
  C2vr   X1v  1 4.700000e-01    3.070000e+00
   P6q  C2vr  1 4.700000e-01    2.960000e+00
   P5q  C2vr  1 4.700000e-01    3.070000e+00
   P4q  C2vr  1 4.700000e-01    3.070000e+00
   P3q  C2vr  1 4.700000e-01    3.070000e+00
   P2q  C2vr  1 4.700000e-01    3.240000e+00
   P1q  C2vr  1 4.700000e-01    3.240000e+00
   N6q  C2vr  1 4.700000e-01    3.390000e+00
   N5q  C2vr  1 4.700000e-01    3.390000e+00
   N4q  C2vr  1 4.700000e-01    3.390000e+00
   N3q  C2vr  1 4.700000e-01    3.520000e+00
   N2q  C2vr  1 4.700000e-01    3.520000e+00
   N1q  C2vr  1 4.700000e-01    3.520000e+00
   C6q  C2vr  1 4.700000e-01    3.520000e+00
   C5q  C2vr  1 4.700000e-01    3.520000e+00
   C4q  C2vr  1 4.700000e-01    3.690000e+00
   C3q  C2vr  1 4.700000e-01    3.880000e+00
   C2q  C2vr  1 4.700000e-01    3.880000e+00
  C2vr   C1q  1 4.700000e-01    4.060000e+00
  C2vr   X4q  1 4.700000e-01    3.390000e+00
  C2vr   X3q  1 4.700000e-01    3.690000e+00
  C2vr   X2q  1 4.700000e-01    3.690000e+00
  C2vr   X1q  1 4.700000e-01    3.690000e+00
  C6vq  C2vr  1 4.700000e-01    3.240000e+00
  C5vq  C2vr  1 4.700000e-01    3.240000e+00
  C4vq  C2vr  1 4.700000e-01    3.390000e+00
  C3vq  C2vr  1 4.700000e-01    3.520000e+00
  C2vr  C2vq  1 4.700000e-01    3.520000e+00
  C2vr  X1vq  1 4.700000e-01    3.390000e+00
  C2vr  X2vq  1 4.700000e-01    3.390000e+00
  C2vr  X3vq  1 4.700000e-01    3.390000e+00
  C2vr  X4vq  1 4.700000e-01    3.070000e+00
  C2vr  C1vq  1 4.700000e-01    3.690000e+00
   C1v  C1vr  1 4.700000e-01    3.240000e+00
  C1vr   X4v  1 4.700000e-01    2.790000e+00
  C1vr   X3v  1 4.700000e-01    3.070000e+00
  C1vr   X2v  1 4.700000e-01    3.070000e+00
  C1vr   X1v  1 4.700000e-01    3.070000e+00
   P6q  C1vr  1 4.700000e-01    2.620000e+00
   P5q  C1vr  1 4.700000e-01    2.960000e+00
   P4q  C1vr  1 4.700000e-01    2.960000e+00
   P3q  C1vr  1 4.700000e-01    2.960000e+00
   P2q  C1vr  1 4.700000e-01    3.070000e+00
   P1q  C1vr  1 4.700000e-01    3.070000e+00
   N6q  C1vr  1 4.700000e-01    3.240000e+00
   N5q  C1vr  1 4.700000e-01    3.240000e+00
   N4q  C1vr  1 4.700000e-01    3.240000e+00
   N3q  C1vr  1 4.700000e-01    3.390000e+00
   N2q  C1vr  1 4.700000e-01    3.390000e+00
   N1q  C1vr  1 4.700000e-01    3.390000e+00
   C6q  C1vr  1 4.700000e-01    3.390000e+00
   C5q  C1vr  1 4.700000e-01    3.520000e+00
   C4q  C1vr  1 4.700000e-01    3.520000e+00
   C3q  C1vr  1 4.700000e-01    3.880000e+00
   C2q  C1vr  1 4.700000e-01    4.060000e+00
   C1q  C1vr  1 4.700000e-01    3.880000e+00
  C1vr   X4q  1 4.700000e-01    3.390000e+00
  C1vr   X3q  1 4.700000e-01    3.690000e+00
  C1vr   X2q  1 4.700000e-01    3.690000e+00
  C1vr   X1q  1 4.700000e-01    3.690000e+00
  C6vq  C1vr  1 4.700000e-01    3.070000e+00
  C5vq  C1vr  1 4.700000e-01    3.240000e+00
  C4vq  C1vr  1 4.700000e-01    3.240000e+00
  C3vq  C1vr  1 4.700000e-01    3.520000e+00
  C2vq  C1vr  1 4.700000e-01    3.690000e+00
  C1vr  C1vq  1 4.700000e-01    3.520000e+00
  C1vr  X1vq  1 4.700000e-01    3.390000e+00
  C1vr  X2vq  1 4.700000e-01    3.390000e+00
  C1vr  X3vq  1 4.700000e-01    3.390000e+00
  C1vr  X4vq  1 4.700000e-01    3.070000e+00
   X4v  X4vr  1 4.700000e-01    3.240000e+00
  X4vr   X3v  1 4.700000e-01    3.240000e+00
  X4vr   X2v  1 4.700000e-01    3.240000e+00
  X4vr   X1v  1 4.700000e-01    3.240000e+00
   P6q  X4vr  1 4.700000e-01    3.520000e+00
   P5q  X4vr  1 4.700000e-01    3.690000e+00
   P4q  X4vr  1 4.700000e-01    3.690000e+00
   P3q  X4vr  1 4.700000e-01    3.690000e+00
   P2q  X4vr  1 4.700000e-01    3.690000e+00
   P1q  X4vr  1 4.700000e-01    3.690000e+00
   N6q  X4vr  1 4.700000e-01    3.880000e+00
   N5q  X4vr  1 4.700000e-01    4.060000e+00
   N4q  X4vr  1 4.700000e-01    4.250000e+00
   N3q  X4vr  1 4.700000e-01    4.060000e+00
   N2q  X4vr  1 4.700000e-01    4.060000e+00
   N1q  X4vr  1 4.700000e-01    3.880000e+00
   C6q  X4vr  1 4.700000e-01    3.880000e+00
   C5q  X4vr  1 4.700000e-01    3.690000e+00
   C4q  X4vr  1 4.700000e-01    3.690000e+00
   C3q  X4vr  1 4.700000e-01    3.690000e+00
   C2q  X4vr  1 4.700000e-01    3.390000e+00
   C1q  X4vr  1 4.700000e-01    3.390000e+00
   X4q  X4vr  1 4.700000e-01    3.880000e+00
  X4vr   X3q  1 4.700000e-01    3.880000e+00
  X4vr   X2q  1 4.700000e-01    3.880000e+00
  X4vr   X1q  1 4.700000e-01    3.880000e+00
  C6vq  X4vr  1 4.700000e-01    3.520000e+00
  C5vq  X4vr  1 4.700000e-01    3.390000e+00
  C4vq  X4vr  1 4.700000e-01    3.390000e+00
  C3vq  X4vr  1 4.700000e-01    3.390000e+00
  C2vq  X4vr  1 4.700000e-01    3.070000e+00
  C1vq  X4vr  1 4.700000e-01    3.070000e+00
  X4vr  X4vq  1 4.700000e-01    3.520000e+00
  X4vr  X1vq  1 4.700000e-01    3.520000e+00
  X4vr  X2vq  1 4.700000e-01    3.520000e+00
  X4vr  X3vq  1 4.700000e-01    3.520000e+00
   X3v  X3vr  1 4.700000e-01    3.240000e+00
  X3vr   X2v  1 4.700000e-01    3.390000e+00
  X3vr   X1v  1 4.700000e-01    3.390000e+00
   P6q  X3vr  1 4.700000e-01    3.520000e+00
   P5q  X3vr  1 4.700000e-01    3.520000e+00
   P4q  X3vr  1 4.700000e-01    3.520000e+00
   P3q  X3vr  1 4.700000e-01    3.690000e+00
   P2q  X3vr  1 4.700000e-01    3.690000e+00
   P1q  X3vr  1 4.700000e-01    3.690000e+00
   N6q  X3vr  1 4.700000e-01    3.690000e+00
   N5q  X3vr  1 4.700000e-01    3.880000e+00
   N4q  X3vr  1 4.700000e-01    4.060000e+00
   N3q  X3vr  1 4.700000e-01    3.880000e+00
   N2q  X3vr  1 4.700000e-01    3.880000e+00
   N1q  X3vr  1 4.700000e-01    3.880000e+00
   C6q  X3vr  1 4.700000e-01    3.880000e+00
   C5q  X3vr  1 4.700000e-01    3.690000e+00
   C4q  X3vr  1 4.700000e-01    3.690000e+00
   C3q  X3vr  1 4.700000e-01    3.690000e+00
   C2q  X3vr  1 4.700000e-01    3.690000e+00
   C1q  X3vr  1 4.700000e-01    3.690000e+00
   X4q  X3vr  1 4.700000e-01    3.880000e+00
   X3q  X3vr  1 4.700000e-01    3.880000e+00
  X3vr   X2q  1 4.700000e-01    4.060000e+00
  X3vr   X1q  1 4.700000e-01    4.060000e+00
  C6vq  X3vr  1 4.700000e-01    3.520000e+00
  C5vq  X3vr  1 4.700000e-01    3.390000e+00
  C4vq  X3vr  1 4.700000e-01    3.390000e+00
  C3vq  X3vr  1 4.700000e-01    3.390000e+00
  C2vq  X3vr  1 4.700000e-01    3.390000e+00
  C1vq  X3vr  1 4.700000e-01    3.390000e+00
  X4vq  X3vr  1 4.700000e-01    3.520000e+00
  X3vr  X3vq  1 4.700000e-01    3.520000e+00
  X3vr  X1vq  1 4.700000e-01    3.690000e+00
  X3vr  X2vq  1 4.700000e-01    3.690000e+00
   X2v  X2vr  1 4.700000e-01    3.390000e+00
  X2vr   X1v  1 4.700000e-01    3.390000e+00
   P6q  X2vr  1 4.700000e-01    3.390000e+00
   P5q  X2vr  1 4.700000e-01    3.520000e+00
   P4q  X2vr  1 4.700000e-01    3.520000e+00
   P3q  X2vr  1 4.700000e-01    3.520000e+00
   P2q  X2vr  1 4.700000e-01    3.520000e+00
   P1q  X2vr  1 4.700000e-01    3.520000e+00
   N6q  X2vr  1 4.700000e-01    3.520000e+00
   N5q  X2vr  1 4.700000e-01    3.690000e+00
   N4q  X2vr  1 4.700000e-01    3.690000e+00
   N3q  X2vr  1 4.700000e-01    3.690000e+00
   N2q  X2vr  1 4.700000e-01    3.690000e+00
   N1q  X2vr  1 4.700000e-01    3.690000e+00
   C6q  X2vr  1 4.700000e-01    3.880000e+00
   C5q  X2vr  1 4.700000e-01    3.690000e+00
   C4q  X2vr  1 4.700000e-01    3.690000e+00
   C3q  X2vr  1 4.700000e-01    3.690000e+00
   C2q  X2vr  1 4.700000e-01    3.690000e+00
   C1q  X2vr  1 4.700000e-01    3.690000e+00
   X4q  X2vr  1 4.700000e-01    3.880000e+00
   X3q  X2vr  1 4.700000e-01    4.060000e+00
   X2q  X2vr  1 4.700000e-01    4.060000e+00
  X2vr   X1q  1 4.700000e-01    4.060000e+00
  C6vq  X2vr  1 4.700000e-01    3.520000e+00
  C5vq  X2vr  1 4.700000e-01    3.390000e+00
  C4vq  X2vr  1 4.700000e-01    3.390000e+00
  C3vq  X2vr  1 4.700000e-01    3.390000e+00
  C2vq  X2vr  1 4.700000e-01    3.390000e+00
  C1vq  X2vr  1 4.700000e-01    3.390000e+00
  X4vq  X2vr  1 4.700000e-01    3.520000e+00
  X3vq  X2vr  1 4.700000e-01    3.690000e+00
  X2vr  X2vq  1 4.700000e-01    3.690000e+00
  X2vr  X1vq  1 4.700000e-01    3.690000e+00
   X1v  X1vr  1 4.700000e-01    3.520000e+00
   P6q  X1vr  1 4.700000e-01    3.240000e+00
   P5q  X1vr  1 4.700000e-01    3.240000e+00
   P4q  X1vr  1 4.700000e-01    3.390000e+00
   P3q  X1vr  1 4.700000e-01    3.390000e+00
   P2q  X1vr  1 4.700000e-01    3.390000e+00
   P1q  X1vr  1 4.700000e-01    3.390000e+00
   N6q  X1vr  1 4.700000e-01    3.390000e+00
   N5q  X1vr  1 4.700000e-01    3.520000e+00
   N4q  X1vr  1 4.700000e-01    3.520000e+00
   N3q  X1vr  1 4.700000e-01    3.690000e+00
   N2q  X1vr  1 4.700000e-01    3.690000e+00
   N1q  X1vr  1 4.700000e-01    3.690000e+00
   C6q  X1vr  1 4.700000e-01    3.880000e+00
   C5q  X1vr  1 4.700000e-01    3.880000e+00
   C4q  X1vr  1 4.700000e-01    3.880000e+00
   C3q  X1vr  1 4.700000e-01    3.880000e+00
   C2q  X1vr  1 4.700000e-01    3.690000e+00
   C1q  X1vr  1 4.700000e-01    3.690000e+00
   X4q  X1vr  1 4.700000e-01    3.880000e+00
   X3q  X1vr  1 4.700000e-01    4.060000e+00
   X2q  X1vr  1 4.700000e-01    4.060000e+00
   X1q  X1vr  1 4.700000e-01    4.250000e+00
  C6vq  X1vr  1 4.700000e-01    3.520000e+00
  C5vq  X1vr  1 4.700000e-01    3.520000e+00
  C4vq  X1vr  1 4.700000e-01    3.520000e+00
  C3vq  X1vr  1 4.700000e-01    3.520000e+00
  C2vq  X1vr  1 4.700000e-01    3.390000e+00
  C1vq  X1vr  1 4.700000e-01    3.390000e+00
  X4vq  X1vr  1 4.700000e-01    3.520000e+00
  X3vq  X1vr  1 4.700000e-01    3.690000e+00
  X2vq  X1vr  1 4.700000e-01    3.690000e+00
  X1vr  X1vq  1 4.700000e-01    3.880000e+00
   C6e  C6er  1 4.700000e-01    3.390000e+00
  C6er   C5e  1 4.700000e-01    3.240000e+00
  C6er   C4e  1 4.700000e-01    3.240000e+00
  C6er   C3e  1 4.700000e-01    3.070000e+00
  C6er   C2e  1 4.700000e-01    2.960000e+00
  C6er   C1e  1 4.700000e-01    2.790000e+00
  C6er   X4e  1 4.700000e-01    3.240000e+00
  C6er   X3e  1 4.700000e-01    3.240000e+00
  C6er   X2e  1 4.700000e-01    3.240000e+00
  C6er   X1e  1 4.700000e-01    3.240000e+00
   P6q  C6er  1 4.700000e-01    3.390000e+00
   P5q  C6er  1 4.700000e-01    3.390000e+00
   P4q  C6er  1 4.700000e-01    3.520000e+00
   P3q  C6er  1 4.700000e-01    3.690000e+00
   P2q  C6er  1 4.700000e-01    3.690000e+00
   P1q  C6er  1 4.700000e-01    3.690000e+00
   N6q  C6er  1 4.700000e-01    3.880000e+00
   N5q  C6er  1 4.700000e-01    3.880000e+00
   N4q  C6er  1 4.700000e-01    3.880000e+00
   N3q  C6er  1 4.700000e-01    3.880000e+00
   N2q  C6er  1 4.700000e-01    3.880000e+00
   N1q  C6er  1 4.700000e-01    4.060000e+00
   C6q  C6er  1 4.700000e-01    4.060000e+00
  C6er   C5q  1 4.700000e-01    3.880000e+00
  C6er   C4q  1 4.700000e-01    3.880000e+00
  C6er   C3q  1 4.700000e-01    3.690000e+00
  C6er   C2q  1 4.700000e-01    3.520000e+00
  C6er   C1q  1 4.700000e-01    3.390000e+00
  C6er   X4q  1 4.700000e-01    3.880000e+00
  C6er   X3q  1 4.700000e-01    3.880000e+00
  C6er   X2q  1 4.700000e-01    3.880000e+00
  C6er   X1q  1 4.700000e-01    3.880000e+00
  C6er  C6eq  1 4.700000e-01    3.690000e+00
  C6er  X1eq  1 4.700000e-01    3.520000e+00
  C6er  X2eq  1 4.700000e-01    3.520000e+00
  C6er  X3eq  1 4.700000e-01    3.520000e+00
  C6er  X4eq  1 4.700000e-01    3.520000e+00
  C6er  C1eq  1 4.700000e-01    3.070000e+00
  C6er  C2eq  1 4.700000e-01    3.240000e+00
  C6er  C3eq  1 4.700000e-01    3.390000e+00
  C6er  C4eq  1 4.700000e-01    3.520000e+00
  C6er  C5eq  1 4.700000e-01    3.520000e+00
   C5e  C5er  1 4.700000e-01    3.240000e+00
  C5er   C4e  1 4.700000e-01    3.240000e+00
  C5er   C3e  1 4.700000e-01    3.070000e+00
  C5er   C2e  1 4.700000e-01    2.960000e+00
  C5er   C1e  1 4.700000e-01    2.960000e+00
  C5er   X4e  1 4.700000e-01    3.070000e+00
  C5er   X3e  1 4.700000e-01    3.070000e+00
  C5er   X2e  1 4.700000e-01    3.070000e+00
  C5er   X1e  1 4.700000e-01    3.240000e+00
   P6q  C5er  1 4.700000e-01    3.240000e+00
   P5q  C5er  1 4.700000e-01    3.390000e+00
   P4q  C5er  1 4.700000e-01    3.390000e+00
   P3q  C5er  1 4.700000e-01    3.520000e+00
   P2q  C5er  1 4.700000e-01    3.520000e+00
   P1q  C5er  1 4.700000e-01    3.520000e+00
   N6q  C5er  1 4.700000e-01    3.690000e+00
   N5q  C5er  1 4.700000e-01    3.690000e+00
   N4q  C5er  1 4.700000e-01    3.690000e+00
   N3q  C5er  1 4.700000e-01    3.690000e+00
   N2q  C5er  1 4.700000e-01    3.690000e+00
   N1q  C5er  1 4.700000e-01    3.880000e+00
   C6q  C5er  1 4.700000e-01    3.880000e+00
   C5q  C5er  1 4.700000e-01    3.880000e+00
  C5er   C4q  1 4.700000e-01    3.880000e+00
  C5er   C3q  1 4.700000e-01    3.690000e+00
  C5er   C2q  1 4.700000e-01    3.520000e+00
  C5er   C1q  1 4.700000e-01    3.520000e+00
  C5er   X4q  1 4.700000e-01    3.690000e+00
  C5er   X3q  1 4.700000e-01    3.690000e+00
  C5er   X2q  1 4.700000e-01    3.690000e+00
  C5er   X1q  1 4.700000e-01    3.880000e+00
  C6eq  C5er  1 4.700000e-01    3.520000e+00
  C5er  C5eq  1 4.700000e-01    3.520000e+00
  C5er  X1eq  1 4.700000e-01    3.520000e+00
  C5er  X2eq  1 4.700000e-01    3.390000e+00
  C5er  X3eq  1 4.700000e-01    3.390000e+00
  C5er  X4eq  1 4.700000e-01    3.390000e+00
  C5er  C1eq  1 4.700000e-01    3.240000e+00
  C5er  C2eq  1 4.700000e-01    3.240000e+00
  C5er  C3eq  1 4.700000e-01    3.390000e+00
  C5er  C4eq  1 4.700000e-01    3.520000e+00
   C4e  C4er  1 4.700000e-01    3.240000e+00
  C4er   C3e  1 4.700000e-01    3.240000e+00
  C4er   C2e  1 4.700000e-01    3.070000e+00
  C4er   C1e  1 4.700000e-01    2.960000e+00
  C4er   X4e  1 4.700000e-01    3.070000e+00
  C4er   X3e  1 4.700000e-01    3.070000e+00
  C4er   X2e  1 4.700000e-01    3.070000e+00
  C4er   X1e  1 4.700000e-01    3.240000e+00
   P6q  C4er  1 4.700000e-01    3.070000e+00
   P5q  C4er  1 4.700000e-01    3.240000e+00
   P4q  C4er  1 4.700000e-01    3.240000e+00
   P3q  C4er  1 4.700000e-01    3.390000e+00
   P2q  C4er  1 4.700000e-01    3.390000e+00
   P1q  C4er  1 4.700000e-01    3.390000e+00
   N6q  C4er  1 4.700000e-01    3.520000e+00
   N5q  C4er  1 4.700000e-01    3.520000e+00
   N4q  C4er  1 4.700000e-01    3.690000e+00
   N3q  C4er  1 4.700000e-01    3.690000e+00
   N2q  C4er  1 4.700000e-01    3.690000e+00
   N1q  C4er  1 4.700000e-01    3.880000e+00
   C6q  C4er  1 4.700000e-01    3.880000e+00
   C5q  C4er  1 4.700000e-01    3.880000e+00
   C4q  C4er  1 4.700000e-01    3.880000e+00
  C4er   C3q  1 4.700000e-01    3.880000e+00
  C4er   C2q  1 4.700000e-01    3.690000e+00
  C4er   C1q  1 4.700000e-01    3.520000e+00
  C4er   X4q  1 4.700000e-01    3.690000e+00
  C4er   X3q  1 4.700000e-01    3.690000e+00
  C4er   X2q  1 4.700000e-01    3.690000e+00
  C4er   X1q  1 4.700000e-01    3.880000e+00
  C6eq  C4er  1 4.700000e-01    3.520000e+00
  C5eq  C4er  1 4.700000e-01    3.520000e+00
  C4er  C4eq  1 4.700000e-01    3.520000e+00
  C4er  X1eq  1 4.700000e-01    3.520000e+00
  C4er  X2eq  1 4.700000e-01    3.390000e+00
  C4er  X3eq  1 4.700000e-01    3.390000e+00
  C4er  X4eq  1 4.700000e-01    3.390000e+00
  C4er  C1eq  1 4.700000e-01    3.240000e+00
  C4er  C2eq  1 4.700000e-01    3.390000e+00
  C4er  C3eq  1 4.700000e-01    3.520000e+00
   C3e  C3er  1 4.700000e-01    3.240000e+00
  C3er   C2e  1 4.700000e-01    3.240000e+00
  C3er   C1e  1 4.700000e-01    3.240000e+00
  C3er   X4e  1 4.700000e-01    3.070000e+00
  C3er   X3e  1 4.700000e-01    3.070000e+00
  C3er   X2e  1 4.700000e-01    3.070000e+00
  C3er   X1e  1 4.700000e-01    3.240000e+00
   P6q  C3er  1 4.700000e-01    2.960000e+00
   P5q  C3er  1 4.700000e-01    3.070000e+00
   P4q  C3er  1 4.700000e-01    3.070000e+00
   P3q  C3er  1 4.700000e-01    3.070000e+00
   P2q  C3er  1 4.700000e-01    3.240000e+00
   P1q  C3er  1 4.700000e-01    3.240000e+00
   N6q  C3er  1 4.700000e-01    3.390000e+00
   N5q  C3er  1 4.700000e-01    3.520000e+00
   N4q  C3er  1 4.700000e-01    3.520000e+00
   N3q  C3er  1 4.700000e-01    3.520000e+00
   N2q  C3er  1 4.700000e-01    3.690000e+00
   N1q  C3er  1 4.700000e-01    3.690000e+00
   C6q  C3er  1 4.700000e-01    3.690000e+00
   C5q  C3er  1 4.700000e-01    3.690000e+00
   C4q  C3er  1 4.700000e-01    3.880000e+00
   C3q  C3er  1 4.700000e-01    3.880000e+00
  C3er   C2q  1 4.700000e-01    3.880000e+00
  C3er   C1q  1 4.700000e-01    3.880000e+00
  C3er   X4q  1 4.700000e-01    3.690000e+00
  C3er   X3q  1 4.700000e-01    3.690000e+00
  C3er   X2q  1 4.700000e-01    3.690000e+00
  C3er   X1q  1 4.700000e-01    3.880000e+00
  C6eq  C3er  1 4.700000e-01    3.390000e+00
  C5eq  C3er  1 4.700000e-01    3.390000e+00
  C4eq  C3er  1 4.700000e-01    3.520000e+00
  C3er  C3eq  1 4.700000e-01    3.520000e+00
  C3er  X1eq  1 4.700000e-01    3.520000e+00
  C3er  X2eq  1 4.700000e-01    3.390000e+00
  C3er  X3eq  1 4.700000e-01    3.390000e+00
  C3er  X4eq  1 4.700000e-01    3.390000e+00
  C3er  C1eq  1 4.700000e-01    3.520000e+00
  C3er  C2eq  1 4.700000e-01    3.520000e+00
   C2e  C2er  1 4.700000e-01    3.240000e+00
  C2er   C1e  1 4.700000e-01    3.390000e+00
  C2er   X4e  1 4.700000e-01    2.790000e+00
  C2er   X3e  1 4.700000e-01    3.070000e+00
  C2er   X2e  1 4.700000e-01    3.070000e+00
  C2er   X1e  1 4.700000e-01    3.070000e+00
   P6q  C2er  1 4.700000e-01    2.960000e+00
   P5q  C2er  1 4.700000e-01    3.070000e+00
   P4q  C2er  1 4.700000e-01    3.070000e+00
   P3q  C2er  1 4.700000e-01    3.070000e+00
   P2q  C2er  1 4.700000e-01    3.240000e+00
   P1q  C2er  1 4.700000e-01    3.240000e+00
   N6q  C2er  1 4.700000e-01    3.390000e+00
   N5q  C2er  1 4.700000e-01    3.390000e+00
   N4q  C2er  1 4.700000e-01    3.390000e+00
   N3q  C2er  1 4.700000e-01    3.520000e+00
   N2q  C2er  1 4.700000e-01    3.520000e+00
   N1q  C2er  1 4.700000e-01    3.520000e+00
   C6q  C2er  1 4.700000e-01    3.520000e+00
   C5q  C2er  1 4.700000e-01    3.520000e+00
   C4q  C2er  1 4.700000e-01    3.690000e+00
   C3q  C2er  1 4.700000e-01    3.880000e+00
   C2q  C2er  1 4.700000e-01    3.880000e+00
  C2er   C1q  1 4.700000e-01    4.060000e+00
  C2er   X4q  1 4.700000e-01    3.390000e+00
  C2er   X3q  1 4.700000e-01    3.690000e+00
  C2er   X2q  1 4.700000e-01    3.690000e+00
  C2er   X1q  1 4.700000e-01    3.690000e+00
  C6eq  C2er  1 4.700000e-01    3.240000e+00
  C5eq  C2er  1 4.700000e-01    3.240000e+00
  C4eq  C2er  1 4.700000e-01    3.390000e+00
  C3eq  C2er  1 4.700000e-01    3.520000e+00
  C2er  C2eq  1 4.700000e-01    3.520000e+00
  C2er  X1eq  1 4.700000e-01    3.390000e+00
  C2er  X2eq  1 4.700000e-01    3.390000e+00
  C2er  X3eq  1 4.700000e-01    3.390000e+00
  C2er  X4eq  1 4.700000e-01    3.070000e+00
  C2er  C1eq  1 4.700000e-01    3.690000e+00
   C1e  C1er  1 4.700000e-01    3.240000e+00
  C1er   X4e  1 4.700000e-01    2.790000e+00
  C1er   X3e  1 4.700000e-01    3.070000e+00
  C1er   X2e  1 4.700000e-01    3.070000e+00
  C1er   X1e  1 4.700000e-01    3.070000e+00
   P6q  C1er  1 4.700000e-01    2.620000e+00
   P5q  C1er  1 4.700000e-01    2.960000e+00
   P4q  C1er  1 4.700000e-01    2.960000e+00
   P3q  C1er  1 4.700000e-01    2.960000e+00
   P2q  C1er  1 4.700000e-01    3.070000e+00
   P1q  C1er  1 4.700000e-01    3.070000e+00
   N6q  C1er  1 4.700000e-01    3.240000e+00
   N5q  C1er  1 4.700000e-01    3.240000e+00
   N4q  C1er  1 4.700000e-01    3.240000e+00
   N3q  C1er  1 4.700000e-01    3.390000e+00
   N2q  C1er  1 4.700000e-01    3.390000e+00
   N1q  C1er  1 4.700000e-01    3.390000e+00
   C6q  C1er  1 4.700000e-01    3.390000e+00
   C5q  C1er  1 4.700000e-01    3.520000e+00
   C4q  C1er  1 4.700000e-01    3.520000e+00
   C3q  C1er  1 4.700000e-01    3.880000e+00
   C2q  C1er  1 4.700000e-01    4.060000e+00
   C1q  C1er  1 4.700000e-01    3.880000e+00
  C1er   X4q  1 4.700000e-01    3.390000e+00
  C1er   X3q  1 4.700000e-01    3.690000e+00
  C1er   X2q  1 4.700000e-01    3.690000e+00
  C1er   X1q  1 4.700000e-01    3.690000e+00
  C6eq  C1er  1 4.700000e-01    3.070000e+00
  C5eq  C1er  1 4.700000e-01    3.240000e+00
  C4eq  C1er  1 4.700000e-01    3.240000e+00
  C3eq  C1er  1 4.700000e-01    3.520000e+00
  C2eq  C1er  1 4.700000e-01    3.690000e+00
  C1er  C1eq  1 4.700000e-01    3.520000e+00
  C1er  X1eq  1 4.700000e-01    3.390000e+00
  C1er  X2eq  1 4.700000e-01    3.390000e+00
  C1er  X3eq  1 4.700000e-01    3.390000e+00
  C1er  X4eq  1 4.700000e-01    3.070000e+00
   X4e  X4er  1 4.700000e-01    3.240000e+00
  X4er   X3e  1 4.700000e-01    3.240000e+00
  X4er   X2e  1 4.700000e-01    3.240000e+00
  X4er   X1e  1 4.700000e-01    3.240000e+00
   P6q  X4er  1 4.700000e-01    3.520000e+00
   P5q  X4er  1 4.700000e-01    3.690000e+00
   P4q  X4er  1 4.700000e-01    3.690000e+00
   P3q  X4er  1 4.700000e-01    3.690000e+00
   P2q  X4er  1 4.700000e-01    3.690000e+00
   P1q  X4er  1 4.700000e-01    3.690000e+00
   N6q  X4er  1 4.700000e-01    3.880000e+00
   N5q  X4er  1 4.700000e-01    4.060000e+00
   N4q  X4er  1 4.700000e-01    4.250000e+00
   N3q  X4er  1 4.700000e-01    4.060000e+00
   N2q  X4er  1 4.700000e-01    4.060000e+00
   N1q  X4er  1 4.700000e-01    3.880000e+00
   C6q  X4er  1 4.700000e-01    3.880000e+00
   C5q  X4er  1 4.700000e-01    3.690000e+00
   C4q  X4er  1 4.700000e-01    3.690000e+00
   C3q  X4er  1 4.700000e-01    3.690000e+00
   C2q  X4er  1 4.700000e-01    3.390000e+00
   C1q  X4er  1 4.700000e-01    3.390000e+00
   X4q  X4er  1 4.700000e-01    3.880000e+00
  X4er   X3q  1 4.700000e-01    3.880000e+00
  X4er   X2q  1 4.700000e-01    3.880000e+00
  X4er   X1q  1 4.700000e-01    3.880000e+00
  C6eq  X4er  1 4.700000e-01    3.520000e+00
  C5eq  X4er  1 4.700000e-01    3.390000e+00
  C4eq  X4er  1 4.700000e-01    3.390000e+00
  C3eq  X4er  1 4.700000e-01    3.390000e+00
  C2eq  X4er  1 4.700000e-01    3.070000e+00
  C1eq  X4er  1 4.700000e-01    3.070000e+00
  X4er  X4eq  1 4.700000e-01    3.520000e+00
  X4er  X1eq  1 4.700000e-01    3.520000e+00
  X4er  X2eq  1 4.700000e-01    3.520000e+00
  X4er  X3eq  1 4.700000e-01    3.520000e+00
   X3e  X3er  1 4.700000e-01    3.240000e+00
  X3er   X2e  1 4.700000e-01    3.390000e+00
  X3er   X1e  1 4.700000e-01    3.390000e+00
   P6q  X3er  1 4.700000e-01    3.520000e+00
   P5q  X3er  1 4.700000e-01    3.520000e+00
   P4q  X3er  1 4.700000e-01    3.520000e+00
   P3q  X3er  1 4.700000e-01    3.690000e+00
   P2q  X3er  1 4.700000e-01    3.690000e+00
   P1q  X3er  1 4.700000e-01    3.690000e+00
   N6q  X3er  1 4.700000e-01    3.690000e+00
   N5q  X3er  1 4.700000e-01    3.880000e+00
   N4q  X3er  1 4.700000e-01    4.060000e+00
   N3q  X3er  1 4.700000e-01    3.880000e+00
   N2q  X3er  1 4.700000e-01    3.880000e+00
   N1q  X3er  1 4.700000e-01    3.880000e+00
   C6q  X3er  1 4.700000e-01    3.880000e+00
   C5q  X3er  1 4.700000e-01    3.690000e+00
   C4q  X3er  1 4.700000e-01    3.690000e+00
   C3q  X3er  1 4.700000e-01    3.690000e+00
   C2q  X3er  1 4.700000e-01    3.690000e+00
   C1q  X3er  1 4.700000e-01    3.690000e+00
   X4q  X3er  1 4.700000e-01    3.880000e+00
   X3q  X3er  1 4.700000e-01    3.880000e+00
  X3er   X2q  1 4.700000e-01    4.060000e+00
  X3er   X1q  1 4.700000e-01    4.060000e+00
  C6eq  X3er  1 4.700000e-01    3.520000e+00
  C5eq  X3er  1 4.700000e-01    3.390000e+00
  C4eq  X3er  1 4.700000e-01    3.390000e+00
  C3eq  X3er  1 4.700000e-01    3.390000e+00
  C2eq  X3er  1 4.700000e-01    3.390000e+00
  C1eq  X3er  1 4.700000e-01    3.390000e+00
  X4eq  X3er  1 4.700000e-01    3.520000e+00
  X3er  X3eq  1 4.700000e-01    3.520000e+00
  X3er  X1eq  1 4.700000e-01    3.690000e+00
  X3er  X2eq  1 4.700000e-01    3.690000e+00
   X2e  X2er  1 4.700000e-01    3.390000e+00
  X2er   X1e  1 4.700000e-01    3.390000e+00
   P6q  X2er  1 4.700000e-01    3.390000e+00
   P5q  X2er  1 4.700000e-01    3.520000e+00
   P4q  X2er  1 4.700000e-01    3.520000e+00
   P3q  X2er  1 4.700000e-01    3.520000e+00
   P2q  X2er  1 4.700000e-01    3.520000e+00
   P1q  X2er  1 4.700000e-01    3.520000e+00
   N6q  X2er  1 4.700000e-01    3.520000e+00
   N5q  X2er  1 4.700000e-01    3.690000e+00
   N4q  X2er  1 4.700000e-01    3.690000e+00
   N3q  X2er  1 4.700000e-01    3.690000e+00
   N2q  X2er  1 4.700000e-01    3.690000e+00
   N1q  X2er  1 4.700000e-01    3.690000e+00
   C6q  X2er  1 4.700000e-01    3.880000e+00
   C5q  X2er  1 4.700000e-01    3.690000e+00
   C4q  X2er  1 4.700000e-01    3.690000e+00
   C3q  X2er  1 4.700000e-01    3.690000e+00
   C2q  X2er  1 4.700000e-01    3.690000e+00
   C1q  X2er  1 4.700000e-01    3.690000e+00
   X4q  X2er  1 4.700000e-01    3.880000e+00
   X3q  X2er  1 4.700000e-01    4.060000e+00
   X2q  X2er  1 4.700000e-01    4.060000e+00
  X2er   X1q  1 4.700000e-01    4.060000e+00
  C6eq  X2er  1 4.700000e-01    3.520000e+00
  C5eq  X2er  1 4.700000e-01    3.390000e+00
  C4eq  X2er  1 4.700000e-01    3.390000e+00
  C3eq  X2er  1 4.700000e-01    3.390000e+00
  C2eq  X2er  1 4.700000e-01    3.390000e+00
  C1eq  X2er  1 4.700000e-01    3.390000e+00
  X4eq  X2er  1 4.700000e-01    3.520000e+00
  X3eq  X2er  1 4.700000e-01    3.690000e+00
  X2er  X2eq  1 4.700000e-01    3.690000e+00
  X2er  X1eq  1 4.700000e-01    3.690000e+00
   X1e  X1er  1 4.700000e-01    3.520000e+00
   P6q  X1er  1 4.700000e-01    3.240000e+00
   P5q  X1er  1 4.700000e-01    3.240000e+00
   P4q  X1er  1 4.700000e-01    3.390000e+00
   P3q  X1er  1 4.700000e-01    3.390000e+00
   P2q  X1er  1 4.700000e-01    3.390000e+00
   P1q  X1er  1 4.700000e-01    3.390000e+00
   N6q  X1er  1 4.700000e-01    3.390000e+00
   N5q  X1er  1 4.700000e-01    3.520000e+00
   N4q  X1er  1 4.700000e-01    3.520000e+00
   N3q  X1er  1 4.700000e-01    3.690000e+00
   N2q  X1er  1 4.700000e-01    3.690000e+00
   N1q  X1er  1 4.700000e-01    3.690000e+00
   C6q  X1er  1 4.700000e-01    3.880000e+00
   C5q  X1er  1 4.700000e-01    3.880000e+00
   C4q  X1er  1 4.700000e-01    3.880000e+00
   C3q  X1er  1 4.700000e-01    3.880000e+00
   C2q  X1er  1 4.700000e-01    3.690000e+00
   C1q  X1er  1 4.700000e-01    3.690000e+00
   X4q  X1er  1 4.700000e-01    3.880000e+00
   X3q  X1er  1 4.700000e-01    4.060000e+00
   X2q  X1er  1 4.700000e-01    4.060000e+00
   X1q  X1er  1 4.700000e-01    4.250000e+00
  C6eq  X1er  1 4.700000e-01    3.520000e+00
  C5eq  X1er  1 4.700000e-01    3.520000e+00
  C4eq  X1er  1 4.700000e-01    3.520000e+00
  C3eq  X1er  1 4.700000e-01    3.520000e+00
  C2eq  X1er  1 4.700000e-01    3.390000e+00
  C1eq  X1er  1 4.700000e-01    3.390000e+00
  X4eq  X1er  1 4.700000e-01    3.520000e+00
  X3eq  X1er  1 4.700000e-01    3.690000e+00
  X2eq  X1er  1 4.700000e-01    3.690000e+00
  X1er  X1eq  1 4.700000e-01    3.880000e+00
   C6e  X1er  1 4.700000e-01    3.240000e+00
   C5e  X1er  1 4.700000e-01    3.240000e+00
   C4e  X1er  1 4.700000e-01    3.240000e+00
   C3e  X1er  1 4.700000e-01    3.240000e+00
   C2e  X1er  1 4.700000e-01    3.070000e+00
   C1e  X1er  1 4.700000e-01    3.070000e+00
   X4e  X1er  1 4.700000e-01    3.240000e+00
   X3e  X1er  1 4.700000e-01    3.390000e+00
   X2e  X1er  1 4.700000e-01    3.390000e+00
   C6e  X2er  1 4.700000e-01    3.240000e+00
   C5e  X2er  1 4.700000e-01    3.070000e+00
   C4e  X2er  1 4.700000e-01    3.070000e+00
   C3e  X2er  1 4.700000e-01    3.070000e+00
   C2e  X2er  1 4.700000e-01    3.070000e+00
   C1e  X2er  1 4.700000e-01    3.070000e+00
   X4e  X2er  1 4.700000e-01    3.240000e+00
   X3e  X2er  1 4.700000e-01    3.390000e+00
   C6e  X3er  1 4.700000e-01    3.240000e+00
   C5e  X3er  1 4.700000e-01    3.070000e+00
   C4e  X3er  1 4.700000e-01    3.070000e+00
   C3e  X3er  1 4.700000e-01    3.070000e+00
   C2e  X3er  1 4.700000e-01    3.070000e+00
   C1e  X3er  1 4.700000e-01    3.070000e+00
   X4e  X3er  1 4.700000e-01    3.240000e+00
   C6e  X4er  1 4.700000e-01    3.240000e+00
   C5e  X4er  1 4.700000e-01    3.070000e+00
   C4e  X4er  1 4.700000e-01    3.070000e+00
   C3e  X4er  1 4.700000e-01    3.070000e+00
   C2e  X4er  1 4.700000e-01    2.790000e+00
   C1e  X4er  1 4.700000e-01    2.790000e+00
   C6e  C1er  1 4.700000e-01    2.790000e+00
   C5e  C1er  1 4.700000e-01    2.960000e+00
   C4e  C1er  1 4.700000e-01    2.960000e+00
   C3e  C1er  1 4.700000e-01    3.240000e+00
   C2e  C1er  1 4.700000e-01    3.390000e+00
   C6e  C2er  1 4.700000e-01    2.960000e+00
   C5e  C2er  1 4.700000e-01    2.960000e+00
   C4e  C2er  1 4.700000e-01    3.070000e+00
   C3e  C2er  1 4.700000e-01    3.240000e+00
   C6e  C3er  1 4.700000e-01    3.070000e+00
   C5e  C3er  1 4.700000e-01    3.070000e+00
   C4e  C3er  1 4.700000e-01    3.240000e+00
   C6e  C4er  1 4.700000e-01    3.240000e+00
   C5e  C4er  1 4.700000e-01    3.240000e+00
   C6e  C5er  1 4.700000e-01    3.240000e+00
   C6v  X1vr  1 4.700000e-01    3.240000e+00
   C5v  X1vr  1 4.700000e-01    3.240000e+00
   C4v  X1vr  1 4.700000e-01    3.240000e+00
   C3v  X1vr  1 4.700000e-01    3.240000e+00
   C2v  X1vr  1 4.700000e-01    3.070000e+00
   C1v  X1vr  1 4.700000e-01    3.070000e+00
   X4v  X1vr  1 4.700000e-01    3.240000e+00
   X3v  X1vr  1 4.700000e-01    3.390000e+00
   X2v  X1vr  1 4.700000e-01    3.390000e+00
   C6v  X2vr  1 4.700000e-01    3.240000e+00
   C5v  X2vr  1 4.700000e-01    3.070000e+00
   C4v  X2vr  1 4.700000e-01    3.070000e+00
   C3v  X2vr  1 4.700000e-01    3.070000e+00
   C2v  X2vr  1 4.700000e-01    3.070000e+00
   C1v  X2vr  1 4.700000e-01    3.070000e+00
   X4v  X2vr  1 4.700000e-01    3.240000e+00
   X3v  X2vr  1 4.700000e-01    3.390000e+00
   C6v  X3vr  1 4.700000e-01    3.240000e+00
   C5v  X3vr  1 4.700000e-01    3.070000e+00
   C4v  X3vr  1 4.700000e-01    3.070000e+00
   C3v  X3vr  1 4.700000e-01    3.070000e+00
   C2v  X3vr  1 4.700000e-01    3.070000e+00
   C1v  X3vr  1 4.700000e-01    3.070000e+00
   X4v  X3vr  1 4.700000e-01    3.240000e+00
   C6v  X4vr  1 4.700000e-01    3.240000e+00
   C5v  X4vr  1 4.700000e-01    3.070000e+00
   C4v  X4vr  1 4.700000e-01    3.070000e+00
   C3v  X4vr  1 4.700000e-01    3.070000e+00
   C2v  X4vr  1 4.700000e-01    2.790000e+00
   C1v  X4vr  1 4.700000e-01    2.790000e+00
   C6v  C1vr  1 4.700000e-01    2.790000e+00
   C5v  C1vr  1 4.700000e-01    2.960000e+00
   C4v  C1vr  1 4.700000e-01    2.960000e+00
   C3v  C1vr  1 4.700000e-01    3.240000e+00
   C2v  C1vr  1 4.700000e-01    3.390000e+00
   C6v  C2vr  1 4.700000e-01    2.960000e+00
   C5v  C2vr  1 4.700000e-01    2.960000e+00
   C4v  C2vr  1 4.700000e-01    3.070000e+00
   C3v  C2vr  1 4.700000e-01    3.240000e+00
   C6v  C3vr  1 4.700000e-01    3.070000e+00
   C5v  C3vr  1 4.700000e-01    3.070000e+00
   C4v  C3vr  1 4.700000e-01    3.240000e+00
   C6v  C4vr  1 4.700000e-01    3.240000e+00
   C5v  C4vr  1 4.700000e-01    3.240000e+00
   C6v  C5vr  1 4.700000e-01    3.240000e+00
   P6r   P6r  1 4.700000e-01    4.730000e+00
   P5r   P5r  1 4.700000e-01    4.250000e+00
   P4r   P4r  1 4.700000e-01    4.060000e+00
   P3r   P3r  1 4.700000e-01    3.880000e+00
   P2r   P2r  1 4.700000e-01    3.880000e+00
   P1r   P1r  1 4.700000e-01    3.690000e+00
   N6r   N6r  1 4.700000e-01    3.690000e+00
   N5r   N5r  1 4.700000e-01    3.520000e+00
   N4r   N4r  1 4.700000e-01    3.520000e+00
   N3r   N3r  1 4.700000e-01    3.390000e+00
   N2r   N2r  1 4.700000e-01    3.390000e+00
   N1r   N1r  1 4.700000e-01    3.390000e+00
   P6r   P5r  1 4.700000e-01    4.480000e+00
   P6r   P4r  1 4.700000e-01    4.250000e+00
   P6r   P3r  1 4.700000e-01    4.060000e+00
   P6r   P2r  1 4.700000e-01    4.060000e+00
   P6r   P1r  1 4.700000e-01    3.880000e+00
   P6r   N6r  1 4.700000e-01    3.690000e+00
   P6r   N5r  1 4.700000e-01    3.390000e+00
   P6r   N4r  1 4.700000e-01    3.240000e+00
   P6r   N3r  1 4.700000e-01    3.070000e+00
   P6r   N2r  1 4.700000e-01    2.960000e+00
   P6r   N1r  1 4.700000e-01    2.790000e+00
   P6r  P6dr  1 4.700000e-01    4.730000e+00
   P6r  P5dr  1 4.700000e-01    4.480000e+00
   P6r  P4dr  1 4.700000e-01    4.250000e+00
   P6r  P3dr  1 4.700000e-01    4.060000e+00
   P6r  P2dr  1 4.700000e-01    4.060000e+00
   P6r  P1dr  1 4.700000e-01    3.880000e+00
   P6r  N6dr  1 4.700000e-01    3.690000e+00
   P6r  N5dr  1 4.700000e-01    3.390000e+00
   P6r  N4dr  1 4.700000e-01    3.240000e+00
   P6r  N3dr  1 4.700000e-01    3.070000e+00
   P6r  N2dr  1 4.700000e-01    2.960000e+00
   P6r  N1dr  1 4.700000e-01    2.790000e+00
   P6r  P6ar  1 4.700000e-01    4.730000e+00
   P6r  P5ar  1 4.700000e-01    4.480000e+00
   P6r  P4ar  1 4.700000e-01    4.250000e+00
   P6r  P3ar  1 4.700000e-01    4.060000e+00
   P6r  P2ar  1 4.700000e-01    4.060000e+00
   P6r  P1ar  1 4.700000e-01    3.880000e+00
   P6r  N6ar  1 4.700000e-01    3.690000e+00
   P6r  N5ar  1 4.700000e-01    3.390000e+00
   P6r  N4ar  1 4.700000e-01    3.240000e+00
   P6r  N3ar  1 4.700000e-01    3.070000e+00
   P6r  N2ar  1 4.700000e-01    2.960000e+00
   P6r  N1ar  1 4.700000e-01    2.790000e+00
   P5r   P4r  1 4.700000e-01    4.060000e+00
   P5r   P3r  1 4.700000e-01    3.880000e+00
   P5r   P2r  1 4.700000e-01    3.880000e+00
   P5r   P1r  1 4.700000e-01    3.690000e+00
   P5r   N6r  1 4.700000e-01    3.520000e+00
   P5r   N5r  1 4.700000e-01    3.390000e+00
   P5r   N4r  1 4.700000e-01    3.390000e+00
   P5r   N3r  1 4.700000e-01    3.070000e+00
   P5r   N2r  1 4.700000e-01    2.960000e+00
   P5r   N1r  1 4.700000e-01    2.790000e+00
   P5r  P5dr  1 4.700000e-01    4.250000e+00
   P5r  P4dr  1 4.700000e-01    4.060000e+00
   P5r  P3dr  1 4.700000e-01    3.880000e+00
   P5r  P2dr  1 4.700000e-01    3.880000e+00
   P5r  P1dr  1 4.700000e-01    3.690000e+00
   P5r  N6dr  1 4.700000e-01    3.520000e+00
   P5r  N5dr  1 4.700000e-01    3.390000e+00
   P5r  N4dr  1 4.700000e-01    3.390000e+00
   P5r  N3dr  1 4.700000e-01    3.070000e+00
   P5r  N2dr  1 4.700000e-01    2.960000e+00
   P5r  N1dr  1 4.700000e-01    2.790000e+00
   P5r  P5ar  1 4.700000e-01    4.250000e+00
   P5r  P4ar  1 4.700000e-01    4.060000e+00
   P5r  P3ar  1 4.700000e-01    3.880000e+00
   P5r  P2ar  1 4.700000e-01    3.880000e+00
   P5r  P1ar  1 4.700000e-01    3.690000e+00
   P5r  N6ar  1 4.700000e-01    3.520000e+00
   P5r  N5ar  1 4.700000e-01    3.390000e+00
   P5r  N4ar  1 4.700000e-01    3.390000e+00
   P5r  N3ar  1 4.700000e-01    3.070000e+00
   P5r  N2ar  1 4.700000e-01    2.960000e+00
   P5r  N1ar  1 4.700000e-01    2.790000e+00
   P4r   P3r  1 4.700000e-01    3.880000e+00
   P4r   P2r  1 4.700000e-01    3.880000e+00
   P4r   P1r  1 4.700000e-01    3.690000e+00
   P4r   N6r  1 4.700000e-01    3.520000e+00
   P4r   N5r  1 4.700000e-01    3.390000e+00
   P4r   N4r  1 4.700000e-01    3.390000e+00
   P4r   N3r  1 4.700000e-01    3.240000e+00
   P4r   N2r  1 4.700000e-01    3.070000e+00
   P4r   N1r  1 4.700000e-01    2.960000e+00
   P4r  P4dr  1 4.700000e-01    4.060000e+00
   P4r  P3dr  1 4.700000e-01    3.880000e+00
   P4r  P2dr  1 4.700000e-01    3.880000e+00
   P4r  P1dr  1 4.700000e-01    3.690000e+00
   P4r  N6dr  1 4.700000e-01    3.520000e+00
   P4r  N5dr  1 4.700000e-01    3.390000e+00
   P4r  N4dr  1 4.700000e-01    3.390000e+00
   P4r  N3dr  1 4.700000e-01    3.240000e+00
   P4r  N2dr  1 4.700000e-01    3.070000e+00
   P4r  N1dr  1 4.700000e-01    2.960000e+00
   P4r  P4ar  1 4.700000e-01    4.060000e+00
   P4r  P3ar  1 4.700000e-01    3.880000e+00
   P4r  P2ar  1 4.700000e-01    3.880000e+00
   P4r  P1ar  1 4.700000e-01    3.690000e+00
   P4r  N6ar  1 4.700000e-01    3.520000e+00
   P4r  N5ar  1 4.700000e-01    3.390000e+00
   P4r  N4ar  1 4.700000e-01    3.390000e+00
   P4r  N3ar  1 4.700000e-01    3.240000e+00
   P4r  N2ar  1 4.700000e-01    3.070000e+00
   P4r  N1ar  1 4.700000e-01    2.960000e+00
   P3r   P2r  1 4.700000e-01    3.880000e+00
   P3r   P1r  1 4.700000e-01    3.690000e+00
   P3r   N6r  1 4.700000e-01    3.520000e+00
   P3r   N5r  1 4.700000e-01    3.390000e+00
   P3r   N4r  1 4.700000e-01    3.390000e+00
   P3r   N3r  1 4.700000e-01    3.240000e+00
   P3r   N2r  1 4.700000e-01    3.240000e+00
   P3r   N1r  1 4.700000e-01    3.070000e+00
   P3r  P3dr  1 4.700000e-01    3.880000e+00
   P3r  P2dr  1 4.700000e-01    3.880000e+00
   P3r  P1dr  1 4.700000e-01    3.690000e+00
   P3r  N6dr  1 4.700000e-01    3.520000e+00
   P3r  N5dr  1 4.700000e-01    3.390000e+00
   P3r  N4dr  1 4.700000e-01    3.390000e+00
   P3r  N3dr  1 4.700000e-01    3.240000e+00
   P3r  N2dr  1 4.700000e-01    3.240000e+00
   P3r  N1dr  1 4.700000e-01    3.070000e+00
   P3r  P3ar  1 4.700000e-01    3.880000e+00
   P3r  P2ar  1 4.700000e-01    3.880000e+00
   P3r  P1ar  1 4.700000e-01    3.690000e+00
   P3r  N6ar  1 4.700000e-01    3.520000e+00
   P3r  N5ar  1 4.700000e-01    3.390000e+00
   P3r  N4ar  1 4.700000e-01    3.390000e+00
   P3r  N3ar  1 4.700000e-01    3.240000e+00
   P3r  N2ar  1 4.700000e-01    3.240000e+00
   P3r  N1ar  1 4.700000e-01    3.070000e+00
   P2r   P1r  1 4.700000e-01    3.690000e+00
   P2r   N6r  1 4.700000e-01    3.690000e+00
   P2r   N5r  1 4.700000e-01    3.520000e+00
   P2r   N4r  1 4.700000e-01    3.390000e+00
   P2r   N3r  1 4.700000e-01    3.240000e+00
   P2r   N2r  1 4.700000e-01    3.240000e+00
   P2r   N1r  1 4.700000e-01    3.240000e+00
   P2r  P2dr  1 4.700000e-01    3.880000e+00
   P2r  P1dr  1 4.700000e-01    3.690000e+00
   P2r  N6dr  1 4.700000e-01    3.690000e+00
   P2r  N5dr  1 4.700000e-01    3.520000e+00
   P2r  N4dr  1 4.700000e-01    3.390000e+00
   P2r  N3dr  1 4.700000e-01    3.240000e+00
   P2r  N2dr  1 4.700000e-01    3.240000e+00
   P2r  N1dr  1 4.700000e-01    3.240000e+00
   P2r  P2ar  1 4.700000e-01    3.880000e+00
   P2r  P1ar  1 4.700000e-01    3.690000e+00
   P2r  N6ar  1 4.700000e-01    3.690000e+00
   P2r  N5ar  1 4.700000e-01    3.520000e+00
   P2r  N4ar  1 4.700000e-01    3.390000e+00
   P2r  N3ar  1 4.700000e-01    3.240000e+00
   P2r  N2ar  1 4.700000e-01    3.240000e+00
   P2r  N1ar  1 4.700000e-01    3.240000e+00
   P1r   N6r  1 4.700000e-01    3.690000e+00
   P1r   N5r  1 4.700000e-01    3.520000e+00
   P1r   N4r  1 4.700000e-01    3.520000e+00
   P1r   N3r  1 4.700000e-01    3.240000e+00
   P1r   N2r  1 4.700000e-01    3.240000e+00
   P1r   N1r  1 4.700000e-01    3.240000e+00
   P1r  P1dr  1 4.700000e-01    3.690000e+00
   P1r  N6dr  1 4.700000e-01    3.690000e+00
   P1r  N5dr  1 4.700000e-01    3.520000e+00
   P1r  N4dr  1 4.700000e-01    3.520000e+00
   P1r  N3dr  1 4.700000e-01    3.240000e+00
   P1r  N2dr  1 4.700000e-01    3.240000e+00
   P1r  N1dr  1 4.700000e-01    3.240000e+00
   P1r  P1ar  1 4.700000e-01    3.690000e+00
   P1r  N6ar  1 4.700000e-01    3.690000e+00
   P1r  N5ar  1 4.700000e-01    3.520000e+00
   P1r  N4ar  1 4.700000e-01    3.520000e+00
   P1r  N3ar  1 4.700000e-01    3.240000e+00
   P1r  N2ar  1 4.700000e-01    3.240000e+00
   P1r  N1ar  1 4.700000e-01    3.240000e+00
   N6r   N5r  1 4.700000e-01    3.690000e+00
   N6r   N4r  1 4.700000e-01    3.690000e+00
   N6r   N3r  1 4.700000e-01    3.390000e+00
   N6r   N2r  1 4.700000e-01    3.240000e+00
   N6r   N1r  1 4.700000e-01    3.240000e+00
   N6r  N6dr  1 4.700000e-01    3.690000e+00
   N6r  N5dr  1 4.700000e-01    3.690000e+00
   N6r  N4dr  1 4.700000e-01    3.690000e+00
   N6r  N3dr  1 4.700000e-01    3.390000e+00
   N6r  N2dr  1 4.700000e-01    3.240000e+00
   N6r  N1dr  1 4.700000e-01    3.240000e+00
   N6r  N6ar  1 4.700000e-01    3.690000e+00
   N6r  N5ar  1 4.700000e-01    3.690000e+00
   N6r  N4ar  1 4.700000e-01    3.690000e+00
   N6r  N3ar  1 4.700000e-01    3.390000e+00
   N6r  N2ar  1 4.700000e-01    3.240000e+00
   N6r  N1ar  1 4.700000e-01    3.240000e+00
   N5r   N4r  1 4.700000e-01    3.520000e+00
   N5r   N3r  1 4.700000e-01    3.390000e+00
   N5r   N2r  1 4.700000e-01    3.390000e+00
   N5r   N1r  1 4.700000e-01    3.240000e+00
   N5r  N5dr  1 4.700000e-01    3.520000e+00
   N5r  N4dr  1 4.700000e-01    3.520000e+00
   N5r  N3dr  1 4.700000e-01    3.390000e+00
   N5r  N2dr  1 4.700000e-01    3.390000e+00
   N5r  N1dr  1 4.700000e-01    3.240000e+00
   N5r  N5ar  1 4.700000e-01    3.520000e+00
   N5r  N4ar  1 4.700000e-01    3.520000e+00
   N5r  N3ar  1 4.700000e-01    3.390000e+00
   N5r  N2ar  1 4.700000e-01    3.390000e+00
   N5r  N1ar  1 4.700000e-01    3.240000e+00
   N4r   N3r  1 4.700000e-01    3.390000e+00
   N4r   N2r  1 4.700000e-01    3.390000e+00
   N4r   N1r  1 4.700000e-01    3.240000e+00
   N4r  N4dr  1 4.700000e-01    3.520000e+00
   N4r  N3dr  1 4.700000e-01    3.390000e+00
   N4r  N2dr  1 4.700000e-01    3.390000e+00
   N4r  N1dr  1 4.700000e-01    3.240000e+00
   N4r  N4ar  1 4.700000e-01    3.520000e+00
   N4r  N3ar  1 4.700000e-01    3.390000e+00
   N4r  N2ar  1 4.700000e-01    3.390000e+00
   N4r  N1ar  1 4.700000e-01    3.240000e+00
   N3r   N2r  1 4.700000e-01    3.390000e+00
   N3r   N1r  1 4.700000e-01    3.240000e+00
   N3r  N3dr  1 4.700000e-01    3.390000e+00
   N3r  N2dr  1 4.700000e-01    3.390000e+00
   N3r  N1dr  1 4.700000e-01    3.240000e+00
   N3r  N3ar  1 4.700000e-01    3.390000e+00
   N3r  N2ar  1 4.700000e-01    3.390000e+00
   N3r  N1ar  1 4.700000e-01    3.240000e+00
   N2r   N1r  1 4.700000e-01    3.240000e+00
   N2r  N2dr  1 4.700000e-01    3.390000e+00
   N2r  N1dr  1 4.700000e-01    3.240000e+00
   N2r  N2ar  1 4.700000e-01    3.390000e+00
   N2r  N1ar  1 4.700000e-01    3.240000e+00
   N1r  N1dr  1 4.700000e-01    3.390000e+00
   N1r  N1ar  1 4.700000e-01    3.390000e+00
  P6dr   P5r  1 4.700000e-01    4.480000e+00
  P6dr   P4r  1 4.700000e-01    4.250000e+00
  P6dr   P3r  1 4.700000e-01    4.060000e+00
  P6dr   P2r  1 4.700000e-01    4.060000e+00
  P6dr   P1r  1 4.700000e-01    3.880000e+00
  P6dr   N6r  1 4.700000e-01    3.690000e+00
  P6dr   N5r  1 4.700000e-01    3.390000e+00
  P6dr   N4r  1 4.700000e-01    3.240000e+00
  P6dr   N3r  1 4.700000e-01    3.070000e+00
  P6dr   N2r  1 4.700000e-01    2.960000e+00
  P6dr   N1r  1 4.700000e-01    2.790000e+00
  P5dr   P4r  1 4.700000e-01    4.060000e+00
  P5dr   P3r  1 4.700000e-01    3.880000e+00
  P5dr   P2r  1 4.700000e-01    3.880000e+00
  P5dr   P1r  1 4.700000e-01    3.690000e+00
  P5dr   N6r  1 4.700000e-01    3.520000e+00
  P5dr   N5r  1 4.700000e-01    3.390000e+00
  P5dr   N4r  1 4.700000e-01    3.390000e+00
  P5dr   N3r  1 4.700000e-01    3.070000e+00
  P5dr   N2r  1 4.700000e-01    2.960000e+00
  P5dr   N1r  1 4.700000e-01    2.790000e+00
  P4dr   P3r  1 4.700000e-01    3.880000e+00
  P4dr   P2r  1 4.700000e-01    3.880000e+00
  P4dr   P1r  1 4.700000e-01    3.690000e+00
  P4dr   N6r  1 4.700000e-01    3.520000e+00
  P4dr   N5r  1 4.700000e-01    3.390000e+00
  P4dr   N4r  1 4.700000e-01    3.390000e+00
  P4dr   N3r  1 4.700000e-01    3.240000e+00
  P4dr   N2r  1 4.700000e-01    3.070000e+00
  P4dr   N1r  1 4.700000e-01    2.960000e+00
  P3dr   P2r  1 4.700000e-01    3.880000e+00
  P3dr   P1r  1 4.700000e-01    3.690000e+00
  P3dr   N6r  1 4.700000e-01    3.520000e+00
  P3dr   N5r  1 4.700000e-01    3.390000e+00
  P3dr   N4r  1 4.700000e-01    3.390000e+00
  P3dr   N3r  1 4.700000e-01    3.240000e+00
  P3dr   N2r  1 4.700000e-01    3.240000e+00
  P3dr   N1r  1 4.700000e-01    3.070000e+00
  P2dr   P1r  1 4.700000e-01    3.690000e+00
  P2dr   N6r  1 4.700000e-01    3.690000e+00
  P2dr   N5r  1 4.700000e-01    3.520000e+00
  P2dr   N4r  1 4.700000e-01    3.390000e+00
  P2dr   N3r  1 4.700000e-01    3.240000e+00
  P2dr   N2r  1 4.700000e-01    3.240000e+00
  P2dr   N1r  1 4.700000e-01    3.240000e+00
  P1dr   N6r  1 4.700000e-01    3.690000e+00
  P1dr   N5r  1 4.700000e-01    3.520000e+00
  P1dr   N4r  1 4.700000e-01    3.520000e+00
  P1dr   N3r  1 4.700000e-01    3.240000e+00
  P1dr   N2r  1 4.700000e-01    3.240000e+00
  P1dr   N1r  1 4.700000e-01    3.240000e+00
  N6dr   N5r  1 4.700000e-01    3.690000e+00
  N6dr   N4r  1 4.700000e-01    3.690000e+00
  N6dr   N3r  1 4.700000e-01    3.390000e+00
  N6dr   N2r  1 4.700000e-01    3.240000e+00
  N6dr   N1r  1 4.700000e-01    3.240000e+00
  N5dr   N4r  1 4.700000e-01    3.520000e+00
  N5dr   N3r  1 4.700000e-01    3.390000e+00
  N5dr   N2r  1 4.700000e-01    3.390000e+00
  N5dr   N1r  1 4.700000e-01    3.240000e+00
  N4dr   N3r  1 4.700000e-01    3.390000e+00
  N4dr   N2r  1 4.700000e-01    3.390000e+00
  N4dr   N1r  1 4.700000e-01    3.240000e+00
  N3dr   N2r  1 4.700000e-01    3.390000e+00
  N3dr   N1r  1 4.700000e-01    3.240000e+00
  N2dr   N1r  1 4.700000e-01    3.240000e+00
  P6ar   P5r  1 4.700000e-01    4.480000e+00
  P6ar   P4r  1 4.700000e-01    4.250000e+00
  P6ar   P3r  1 4.700000e-01    4.060000e+00
  P6ar   P2r  1 4.700000e-01    4.060000e+00
  P6ar   P1r  1 4.700000e-01    3.880000e+00
  P6ar   N6r  1 4.700000e-01    3.690000e+00
  P6ar   N5r  1 4.700000e-01    3.390000e+00
  P6ar   N4r  1 4.700000e-01    3.240000e+00
  P6ar   N3r  1 4.700000e-01    3.070000e+00
  P6ar   N2r  1 4.700000e-01    2.960000e+00
  P6ar   N1r  1 4.700000e-01    2.790000e+00
  P5ar   P4r  1 4.700000e-01    4.060000e+00
  P5ar   P3r  1 4.700000e-01    3.880000e+00
  P5ar   P2r  1 4.700000e-01    3.880000e+00
  P5ar   P1r  1 4.700000e-01    3.690000e+00
  P5ar   N6r  1 4.700000e-01    3.520000e+00
  P5ar   N5r  1 4.700000e-01    3.390000e+00
  P5ar   N4r  1 4.700000e-01    3.390000e+00
  P5ar   N3r  1 4.700000e-01    3.070000e+00
  P5ar   N2r  1 4.700000e-01    2.960000e+00
  P5ar   N1r  1 4.700000e-01    2.790000e+00
  P4ar   P3r  1 4.700000e-01    3.880000e+00
  P4ar   P2r  1 4.700000e-01    3.880000e+00
  P4ar   P1r  1 4.700000e-01    3.690000e+00
  P4ar   N6r  1 4.700000e-01    3.520000e+00
  P4ar   N5r  1 4.700000e-01    3.390000e+00
  P4ar   N4r  1 4.700000e-01    3.390000e+00
  P4ar   N3r  1 4.700000e-01    3.240000e+00
  P4ar   N2r  1 4.700000e-01    3.070000e+00
  P4ar   N1r  1 4.700000e-01    2.960000e+00
  P3ar   P2r  1 4.700000e-01    3.880000e+00
  P3ar   P1r  1 4.700000e-01    3.690000e+00
  P3ar   N6r  1 4.700000e-01    3.520000e+00
  P3ar   N5r  1 4.700000e-01    3.390000e+00
  P3ar   N4r  1 4.700000e-01    3.390000e+00
  P3ar   N3r  1 4.700000e-01    3.240000e+00
  P3ar   N2r  1 4.700000e-01    3.240000e+00
  P3ar   N1r  1 4.700000e-01    3.070000e+00
  P2ar   P1r  1 4.700000e-01    3.690000e+00
  P2ar   N6r  1 4.700000e-01    3.690000e+00
  P2ar   N5r  1 4.700000e-01    3.520000e+00
  P2ar   N4r  1 4.700000e-01    3.390000e+00
  P2ar   N3r  1 4.700000e-01    3.240000e+00
  P2ar   N2r  1 4.700000e-01    3.240000e+00
  P2ar   N1r  1 4.700000e-01    3.240000e+00
  P1ar   N6r  1 4.700000e-01    3.690000e+00
  P1ar   N5r  1 4.700000e-01    3.520000e+00
  P1ar   N4r  1 4.700000e-01    3.520000e+00
  P1ar   N3r  1 4.700000e-01    3.240000e+00
  P1ar   N2r  1 4.700000e-01    3.240000e+00
  P1ar   N1r  1 4.700000e-01    3.240000e+00
  N6ar   N5r  1 4.700000e-01    3.690000e+00
  N6ar   N4r  1 4.700000e-01    3.690000e+00
  N6ar   N3r  1 4.700000e-01    3.390000e+00
  N6ar   N2r  1 4.700000e-01    3.240000e+00
  N6ar   N1r  1 4.700000e-01    3.240000e+00
  N5ar   N4r  1 4.700000e-01    3.520000e+00
  N5ar   N3r  1 4.700000e-01    3.390000e+00
  N5ar   N2r  1 4.700000e-01    3.390000e+00
  N5ar   N1r  1 4.700000e-01    3.240000e+00
  N4ar   N3r  1 4.700000e-01    3.390000e+00
  N4ar   N2r  1 4.700000e-01    3.390000e+00
  N4ar   N1r  1 4.700000e-01    3.240000e+00
  N3ar   N2r  1 4.700000e-01    3.390000e+00
  N3ar   N1r  1 4.700000e-01    3.240000e+00
  N2ar   N1r  1 4.700000e-01    3.240000e+00
   C6r   C6r  1 4.700000e-01    3.390000e+00
   C5r   C5r  1 4.700000e-01    3.240000e+00
   C4r   C4r  1 4.700000e-01    3.240000e+00
   C3r   C3r  1 4.700000e-01    3.240000e+00
   C2r   C2r  1 4.700000e-01    3.240000e+00
   C1r   C1r  1 4.700000e-01    3.240000e+00
   X4r   X4r  1 4.700000e-01    3.240000e+00
   X3r   X3r  1 4.700000e-01    3.240000e+00
   X2r   X2r  1 4.700000e-01    3.390000e+00
   X1r   X1r  1 4.700000e-01    3.520000e+00
  C6vr  C6vr  1 4.700000e-01    3.240000e+00
  C5vr  C5vr  1 4.700000e-01    3.070000e+00
  C4vr  C4vr  1 4.700000e-01    3.070000e+00
  C3vr  C3vr  1 4.700000e-01    3.070000e+00
  C2vr  C2vr  1 4.700000e-01    3.070000e+00
  C1vr  C1vr  1 4.700000e-01    3.070000e+00
  X4vr  X4vr  1 4.700000e-01    3.070000e+00
  X3vr  X3vr  1 4.700000e-01    3.070000e+00
  X2vr  X2vr  1 4.700000e-01    3.240000e+00
  X1vr  X1vr  1 4.700000e-01    3.390000e+00
  C6er  C6er  1 4.700000e-01    3.240000e+00
  C5er  C5er  1 4.700000e-01    3.070000e+00
  C4er  C4er  1 4.700000e-01    3.070000e+00
  C3er  C3er  1 4.700000e-01    3.070000e+00
  C2er  C2er  1 4.700000e-01    3.070000e+00
  C1er  C1er  1 4.700000e-01    3.070000e+00
  X4er  X4er  1 4.700000e-01    3.070000e+00
  X3er  X3er  1 4.700000e-01    3.070000e+00
  X2er  X2er  1 4.700000e-01    3.240000e+00
  X1er  X1er  1 4.700000e-01    3.390000e+00
   C6r   C5r  1 4.700000e-01    3.240000e+00
   C6r   C4r  1 4.700000e-01    3.240000e+00
   C6r   C3r  1 4.700000e-01    3.070000e+00
   C6r   C2r  1 4.700000e-01    2.960000e+00
   C6r   C1r  1 4.700000e-01    2.790000e+00
   C6r   X4r  1 4.700000e-01    3.240000e+00
   C6r   X3r  1 4.700000e-01    3.240000e+00
   C6r   X2r  1 4.700000e-01    3.240000e+00
   C6r   X1r  1 4.700000e-01    3.240000e+00
   C6r  C6vr  1 4.700000e-01    3.520000e+00
   C6r  C5vr  1 4.700000e-01    3.390000e+00
   C6r  C4vr  1 4.700000e-01    3.390000e+00
   C6r  C3vr  1 4.700000e-01    3.240000e+00
   C6r  C2vr  1 4.700000e-01    3.070000e+00
   C6r  C1vr  1 4.700000e-01    2.960000e+00
   C6r  X4vr  1 4.700000e-01    3.390000e+00
   C6r  X3vr  1 4.700000e-01    3.390000e+00
   C6r  X2vr  1 4.700000e-01    3.390000e+00
   C6r  X1vr  1 4.700000e-01    3.390000e+00
   C6r  C6er  1 4.700000e-01    3.520000e+00
   C6r  C5er  1 4.700000e-01    3.390000e+00
   C6r  C4er  1 4.700000e-01    3.390000e+00
   C6r  C3er  1 4.700000e-01    3.240000e+00
   C6r  C2er  1 4.700000e-01    3.070000e+00
   C6r  C1er  1 4.700000e-01    2.960000e+00
   C6r  X4er  1 4.700000e-01    3.390000e+00
   C6r  X3er  1 4.700000e-01    3.390000e+00
   C6r  X2er  1 4.700000e-01    3.390000e+00
   C6r  X1er  1 4.700000e-01    3.390000e+00
   C5r   C4r  1 4.700000e-01    3.240000e+00
   C5r   C3r  1 4.700000e-01    3.070000e+00
   C5r   C2r  1 4.700000e-01    2.960000e+00
   C5r   C1r  1 4.700000e-01    2.960000e+00
   C5r   X4r  1 4.700000e-01    3.070000e+00
   C5r   X3r  1 4.700000e-01    3.070000e+00
   C5r   X2r  1 4.700000e-01    3.070000e+00
   C5r   X1r  1 4.700000e-01    3.240000e+00
   C5r  C5vr  1 4.700000e-01    3.390000e+00
   C5r  C4vr  1 4.700000e-01    3.390000e+00
   C5r  C3vr  1 4.700000e-01    3.240000e+00
   C5r  C2vr  1 4.700000e-01    3.070000e+00
   C5r  C1vr  1 4.700000e-01    3.070000e+00
   C5r  X4vr  1 4.700000e-01    3.240000e+00
   C5r  X3vr  1 4.700000e-01    3.240000e+00
   C5r  X2vr  1 4.700000e-01    3.240000e+00
   C5r  X1vr  1 4.700000e-01    3.390000e+00
   C5r  C5er  1 4.700000e-01    3.390000e+00
   C5r  C4er  1 4.700000e-01    3.390000e+00
   C5r  C3er  1 4.700000e-01    3.240000e+00
   C5r  C2er  1 4.700000e-01    3.070000e+00
   C5r  C1er  1 4.700000e-01    3.070000e+00
   C5r  X4er  1 4.700000e-01    3.240000e+00
   C5r  X3er  1 4.700000e-01    3.240000e+00
   C5r  X2er  1 4.700000e-01    3.240000e+00
   C5r  X1er  1 4.700000e-01    3.390000e+00
   C4r   C3r  1 4.700000e-01    3.240000e+00
   C4r   C2r  1 4.700000e-01    3.070000e+00
   C4r   C1r  1 4.700000e-01    2.960000e+00
   C4r   X4r  1 4.700000e-01    3.070000e+00
   C4r   X3r  1 4.700000e-01    3.070000e+00
   C4r   X2r  1 4.700000e-01    3.070000e+00
   C4r   X1r  1 4.700000e-01    3.240000e+00
   C4r  C4vr  1 4.700000e-01    3.390000e+00
   C4r  C3vr  1 4.700000e-01    3.390000e+00
   C4r  C2vr  1 4.700000e-01    3.240000e+00
   C4r  C1vr  1 4.700000e-01    3.070000e+00
   C4r  X4vr  1 4.700000e-01    3.240000e+00
   C4r  X3vr  1 4.700000e-01    3.240000e+00
   C4r  X2vr  1 4.700000e-01    3.240000e+00
   C4r  X1vr  1 4.700000e-01    3.390000e+00
   C4r  C4er  1 4.700000e-01    3.390000e+00
   C4r  C3er  1 4.700000e-01    3.390000e+00
   C4r  C2er  1 4.700000e-01    3.240000e+00
   C4r  C1er  1 4.700000e-01    3.070000e+00
   C4r  X4er  1 4.700000e-01    3.240000e+00
   C4r  X3er  1 4.700000e-01    3.240000e+00
   C4r  X2er  1 4.700000e-01    3.240000e+00
   C4r  X1er  1 4.700000e-01    3.390000e+00
   C3r   C2r  1 4.700000e-01    3.240000e+00
   C3r   C1r  1 4.700000e-01    3.240000e+00
   C3r   X4r  1 4.700000e-01    3.070000e+00
   C3r   X3r  1 4.700000e-01    3.070000e+00
   C3r   X2r  1 4.700000e-01    3.070000e+00
   C3r   X1r  1 4.700000e-01    3.240000e+00
   C3r  C3vr  1 4.700000e-01    3.390000e+00
   C3r  C2vr  1 4.700000e-01    3.390000e+00
   C3r  C1vr  1 4.700000e-01    3.390000e+00
   C3r  X4vr  1 4.700000e-01    3.240000e+00
   C3r  X3vr  1 4.700000e-01    3.240000e+00
   C3r  X2vr  1 4.700000e-01    3.240000e+00
   C3r  X1vr  1 4.700000e-01    3.390000e+00
   C3r  C3er  1 4.700000e-01    3.390000e+00
   C3r  C2er  1 4.700000e-01    3.390000e+00
   C3r  C1er  1 4.700000e-01    3.390000e+00
   C3r  X4er  1 4.700000e-01    3.240000e+00
   C3r  X3er  1 4.700000e-01    3.240000e+00
   C3r  X2er  1 4.700000e-01    3.240000e+00
   C3r  X1er  1 4.700000e-01    3.390000e+00
   C2r   C1r  1 4.700000e-01    3.390000e+00
   C2r   X4r  1 4.700000e-01    2.790000e+00
   C2r   X3r  1 4.700000e-01    3.070000e+00
   C2r   X2r  1 4.700000e-01    3.070000e+00
   C2r   X1r  1 4.700000e-01    3.070000e+00
   C2r  C2vr  1 4.700000e-01    3.390000e+00
   C2r  C1vr  1 4.700000e-01    3.520000e+00
   C2r  X4vr  1 4.700000e-01    2.960000e+00
   C2r  X3vr  1 4.700000e-01    3.240000e+00
   C2r  X2vr  1 4.700000e-01    3.240000e+00
   C2r  X1vr  1 4.700000e-01    3.240000e+00
   C2r  C2er  1 4.700000e-01    3.390000e+00
   C2r  C1er  1 4.700000e-01    3.520000e+00
   C2r  X4er  1 4.700000e-01    2.960000e+00
   C2r  X3er  1 4.700000e-01    3.240000e+00
   C2r  X2er  1 4.700000e-01    3.240000e+00
   C2r  X1er  1 4.700000e-01    3.240000e+00
   C1r   X4r  1 4.700000e-01    2.790000e+00
   C1r   X3r  1 4.700000e-01    3.070000e+00
   C1r   X2r  1 4.700000e-01    3.070000e+00
   C1r   X1r  1 4.700000e-01    3.070000e+00
   C1r  C1vr  1 4.700000e-01    3.390000e+00
   C1r  X4vr  1 4.700000e-01    2.960000e+00
   C1r  X3vr  1 4.700000e-01    3.240000e+00
   C1r  X2vr  1 4.700000e-01    3.240000e+00
   C1r  X1vr  1 4.700000e-01    3.240000e+00
   C1r  C1er  1 4.700000e-01    3.390000e+00
   C1r  X4er  1 4.700000e-01    2.960000e+00
   C1r  X3er  1 4.700000e-01    3.240000e+00
   C1r  X2er  1 4.700000e-01    3.240000e+00
   C1r  X1er  1 4.700000e-01    3.240000e+00
   X4r   X3r  1 4.700000e-01    3.240000e+00
   X4r   X2r  1 4.700000e-01    3.240000e+00
   X4r   X1r  1 4.700000e-01    3.240000e+00
   X4r  X4vr  1 4.700000e-01    3.390000e+00
   X4r  X3vr  1 4.700000e-01    3.390000e+00
   X4r  X2vr  1 4.700000e-01    3.390000e+00
   X4r  X1vr  1 4.700000e-01    3.390000e+00
   X4r  X4er  1 4.700000e-01    3.390000e+00
   X4r  X3er  1 4.700000e-01    3.390000e+00
   X4r  X2er  1 4.700000e-01    3.390000e+00
   X4r  X1er  1 4.700000e-01    3.390000e+00
   X3r   X2r  1 4.700000e-01    3.390000e+00
   X3r   X1r  1 4.700000e-01    3.390000e+00
   X3r  X3vr  1 4.700000e-01    3.390000e+00
   X3r  X2vr  1 4.700000e-01    3.520000e+00
   X3r  X1vr  1 4.700000e-01    3.520000e+00
   X3r  X3er  1 4.700000e-01    3.390000e+00
   X3r  X2er  1 4.700000e-01    3.520000e+00
   X3r  X1er  1 4.700000e-01    3.520000e+00
   X2r   X1r  1 4.700000e-01    3.390000e+00
   X2r  X2vr  1 4.700000e-01    3.520000e+00
   X2r  X1vr  1 4.700000e-01    3.520000e+00
   X2r  X2er  1 4.700000e-01    3.520000e+00
   X2r  X1er  1 4.700000e-01    3.520000e+00
   X1r  X1vr  1 4.700000e-01    3.690000e+00
   X1r  X1er  1 4.700000e-01    3.690000e+00
  C6vr   C5r  1 4.700000e-01    3.390000e+00
  C6vr   C4r  1 4.700000e-01    3.390000e+00
  C6vr   C3r  1 4.700000e-01    3.240000e+00
  C6vr   C2r  1 4.700000e-01    3.070000e+00
  C6vr   C1r  1 4.700000e-01    2.960000e+00
  C6vr   X4r  1 4.700000e-01    3.390000e+00
  C6vr   X3r  1 4.700000e-01    3.390000e+00
  C6vr   X2r  1 4.700000e-01    3.390000e+00
  C6vr   X1r  1 4.700000e-01    3.390000e+00
  C6vr  C5vr  1 4.700000e-01    3.070000e+00
  C6vr  C4vr  1 4.700000e-01    3.070000e+00
  C6vr  C3vr  1 4.700000e-01    2.960000e+00
  C6vr  C2vr  1 4.700000e-01    2.790000e+00
  C6vr  C1vr  1 4.700000e-01    2.620000e+00
  C6vr  X4vr  1 4.700000e-01    3.070000e+00
  C6vr  X3vr  1 4.700000e-01    3.070000e+00
  C6vr  X2vr  1 4.700000e-01    3.070000e+00
  C6vr  X1vr  1 4.700000e-01    3.070000e+00
  C5vr   C4r  1 4.700000e-01    3.390000e+00
  C5vr   C3r  1 4.700000e-01    3.240000e+00
  C5vr   C2r  1 4.700000e-01    3.070000e+00
  C5vr   C1r  1 4.700000e-01    3.070000e+00
  C5vr   X4r  1 4.700000e-01    3.240000e+00
  C5vr   X3r  1 4.700000e-01    3.240000e+00
  C5vr   X2r  1 4.700000e-01    3.240000e+00
  C5vr   X1r  1 4.700000e-01    3.390000e+00
  C5vr  C4vr  1 4.700000e-01    3.070000e+00
  C5vr  C3vr  1 4.700000e-01    2.960000e+00
  C5vr  C2vr  1 4.700000e-01    2.790000e+00
  C5vr  C1vr  1 4.700000e-01    2.790000e+00
  C5vr  X4vr  1 4.700000e-01    2.960000e+00
  C5vr  X3vr  1 4.700000e-01    2.960000e+00
  C5vr  X2vr  1 4.700000e-01    2.960000e+00
  C5vr  X1vr  1 4.700000e-01    3.070000e+00
  C4vr   C3r  1 4.700000e-01    3.390000e+00
  C4vr   C2r  1 4.700000e-01    3.240000e+00
  C4vr   C1r  1 4.700000e-01    3.070000e+00
  C4vr   X4r  1 4.700000e-01    3.240000e+00
  C4vr   X3r  1 4.700000e-01    3.240000e+00
  C4vr   X2r  1 4.700000e-01    3.240000e+00
  C4vr   X1r  1 4.700000e-01    3.390000e+00
  C4vr  C3vr  1 4.700000e-01    3.070000e+00
  C4vr  C2vr  1 4.700000e-01    2.960000e+00
  C4vr  C1vr  1 4.700000e-01    2.790000e+00
  C4vr  X4vr  1 4.700000e-01    2.960000e+00
  C4vr  X3vr  1 4.700000e-01    2.960000e+00
  C4vr  X2vr  1 4.700000e-01    2.960000e+00
  C4vr  X1vr  1 4.700000e-01    3.070000e+00
  C3vr   C2r  1 4.700000e-01    3.390000e+00
  C3vr   C1r  1 4.700000e-01    3.390000e+00
  C3vr   X4r  1 4.700000e-01    3.240000e+00
  C3vr   X3r  1 4.700000e-01    3.240000e+00
  C3vr   X2r  1 4.700000e-01    3.240000e+00
  C3vr   X1r  1 4.700000e-01    3.390000e+00
  C3vr  C2vr  1 4.700000e-01    3.070000e+00
  C3vr  C1vr  1 4.700000e-01    3.070000e+00
  C3vr  X4vr  1 4.700000e-01    2.960000e+00
  C3vr  X3vr  1 4.700000e-01    2.960000e+00
  C3vr  X2vr  1 4.700000e-01    2.960000e+00
  C3vr  X1vr  1 4.700000e-01    3.070000e+00
  C2vr   C1r  1 4.700000e-01    3.520000e+00
  C2vr   X4r  1 4.700000e-01    2.960000e+00
  C2vr   X3r  1 4.700000e-01    3.240000e+00
  C2vr   X2r  1 4.700000e-01    3.240000e+00
  C2vr   X1r  1 4.700000e-01    3.240000e+00
  C2vr  C1vr  1 4.700000e-01    3.240000e+00
  C2vr  X4vr  1 4.700000e-01    2.620000e+00
  C2vr  X3vr  1 4.700000e-01    2.960000e+00
  C2vr  X2vr  1 4.700000e-01    2.960000e+00
  C2vr  X1vr  1 4.700000e-01    2.960000e+00
  C1vr   X4r  1 4.700000e-01    2.960000e+00
  C1vr   X3r  1 4.700000e-01    3.240000e+00
  C1vr   X2r  1 4.700000e-01    3.240000e+00
  C1vr   X1r  1 4.700000e-01    3.240000e+00
  C1vr  X4vr  1 4.700000e-01    2.620000e+00
  C1vr  X3vr  1 4.700000e-01    2.960000e+00
  C1vr  X2vr  1 4.700000e-01    2.960000e+00
  C1vr  X1vr  1 4.700000e-01    2.960000e+00
  X4vr   X3r  1 4.700000e-01    3.390000e+00
  X4vr   X2r  1 4.700000e-01    3.390000e+00
  X4vr   X1r  1 4.700000e-01    3.390000e+00
  X4vr  X3vr  1 4.700000e-01    3.070000e+00
  X4vr  X2vr  1 4.700000e-01    3.070000e+00
  X4vr  X1vr  1 4.700000e-01    3.070000e+00
  X3vr   X2r  1 4.700000e-01    3.520000e+00
  X3vr   X1r  1 4.700000e-01    3.520000e+00
  X3vr  X2vr  1 4.700000e-01    3.240000e+00
  X3vr  X1vr  1 4.700000e-01    3.240000e+00
  X2vr   X1r  1 4.700000e-01    3.520000e+00
  X2vr  X1vr  1 4.700000e-01    3.240000e+00
  C6er   C5r  1 4.700000e-01    3.390000e+00
  C6er   C4r  1 4.700000e-01    3.390000e+00
  C6er   C3r  1 4.700000e-01    3.240000e+00
  C6er   C2r  1 4.700000e-01    3.070000e+00
  C6er   C1r  1 4.700000e-01    2.960000e+00
  C6er   X4r  1 4.700000e-01    3.390000e+00
  C6er   X3r  1 4.700000e-01    3.390000e+00
  C6er   X2r  1 4.700000e-01    3.390000e+00
  C6er   X1r  1 4.700000e-01    3.390000e+00
  C6er  C5er  1 4.700000e-01    3.070000e+00
  C6er  C4er  1 4.700000e-01    3.070000e+00
  C6er  C3er  1 4.700000e-01    2.960000e+00
  C6er  C2er  1 4.700000e-01    2.790000e+00
  C6er  C1er  1 4.700000e-01    2.620000e+00
  C6er  X4er  1 4.700000e-01    3.070000e+00
  C6er  X3er  1 4.700000e-01    3.070000e+00
  C6er  X2er  1 4.700000e-01    3.070000e+00
  C6er  X1er  1 4.700000e-01    3.070000e+00
  C5er   C4r  1 4.700000e-01    3.390000e+00
  C5er   C3r  1 4.700000e-01    3.240000e+00
  C5er   C2r  1 4.700000e-01    3.070000e+00
  C5er   C1r  1 4.700000e-01    3.070000e+00
  C5er   X4r  1 4.700000e-01    3.240000e+00
  C5er   X3r  1 4.700000e-01    3.240000e+00
  C5er   X2r  1 4.700000e-01    3.240000e+00
  C5er   X1r  1 4.700000e-01    3.390000e+00
  C5er  C4er  1 4.700000e-01    3.070000e+00
  C5er  C3er  1 4.700000e-01    2.960000e+00
  C5er  C2er  1 4.700000e-01    2.790000e+00
  C5er  C1er  1 4.700000e-01    2.790000e+00
  C5er  X4er  1 4.700000e-01    2.960000e+00
  C5er  X3er  1 4.700000e-01    2.960000e+00
  C5er  X2er  1 4.700000e-01    2.960000e+00
  C5er  X1er  1 4.700000e-01    3.070000e+00
  C4er   C3r  1 4.700000e-01    3.390000e+00
  C4er   C2r  1 4.700000e-01    3.240000e+00
  C4er   C1r  1 4.700000e-01    3.070000e+00
  C4er   X4r  1 4.700000e-01    3.240000e+00
  C4er   X3r  1 4.700000e-01    3.240000e+00
  C4er   X2r  1 4.700000e-01    3.240000e+00
  C4er   X1r  1 4.700000e-01    3.390000e+00
  C4er  C3er  1 4.700000e-01    3.070000e+00
  C4er  C2er  1 4.700000e-01    2.960000e+00
  C4er  C1er  1 4.700000e-01    2.790000e+00
  C4er  X4er  1 4.700000e-01    2.960000e+00
  C4er  X3er  1 4.700000e-01    2.960000e+00
  C4er  X2er  1 4.700000e-01    2.960000e+00
  C4er  X1er  1 4.700000e-01    3.070000e+00
  C3er   C2r  1 4.700000e-01    3.390000e+00
  C3er   C1r  1 4.700000e-01    3.390000e+00
  C3er   X4r  1 4.700000e-01    3.240000e+00
  C3er   X3r  1 4.700000e-01    3.240000e+00
  C3er   X2r  1 4.700000e-01    3.240000e+00
  C3er   X1r  1 4.700000e-01    3.390000e+00
  C3er  C2er  1 4.700000e-01    3.070000e+00
  C3er  C1er  1 4.700000e-01    3.070000e+00
  C3er  X4er  1 4.700000e-01    2.960000e+00
  C3er  X3er  1 4.700000e-01    2.960000e+00
  C3er  X2er  1 4.700000e-01    2.960000e+00
  C3er  X1er  1 4.700000e-01    3.070000e+00
  C2er   C1r  1 4.700000e-01    3.520000e+00
  C2er   X4r  1 4.700000e-01    2.960000e+00
  C2er   X3r  1 4.700000e-01    3.240000e+00
  C2er   X2r  1 4.700000e-01    3.240000e+00
  C2er   X1r  1 4.700000e-01    3.240000e+00
  C2er  C1er  1 4.700000e-01    3.240000e+00
  C2er  X4er  1 4.700000e-01    2.620000e+00
  C2er  X3er  1 4.700000e-01    2.960000e+00
  C2er  X2er  1 4.700000e-01    2.960000e+00
  C2er  X1er  1 4.700000e-01    2.960000e+00
  C1er   X4r  1 4.700000e-01    2.960000e+00
  C1er   X3r  1 4.700000e-01    3.240000e+00
  C1er   X2r  1 4.700000e-01    3.240000e+00
  C1er   X1r  1 4.700000e-01    3.240000e+00
  C1er  X4er  1 4.700000e-01    2.620000e+00
  C1er  X3er  1 4.700000e-01    2.960000e+00
  C1er  X2er  1 4.700000e-01    2.960000e+00
  C1er  X1er  1 4.700000e-01    2.960000e+00
  X4er   X3r  1 4.700000e-01    3.390000e+00
  X4er   X2r  1 4.700000e-01    3.390000e+00
  X4er   X1r  1 4.700000e-01    3.390000e+00
  X4er  X3er  1 4.700000e-01    3.070000e+00
  X4er  X2er  1 4.700000e-01    3.070000e+00
  X4er  X1er  1 4.700000e-01    3.070000e+00
  X3er   X2r  1 4.700000e-01    3.520000e+00
  X3er   X1r  1 4.700000e-01    3.520000e+00
  X3er  X2er  1 4.700000e-01    3.240000e+00
  X3er  X1er  1 4.700000e-01    3.240000e+00
  X2er   X1r  1 4.700000e-01    3.520000e+00
  X2er  X1er  1 4.700000e-01    3.240000e+00
   P6r   C6r  1 4.700000e-01    2.960000e+00
   P6r   C5r  1 4.700000e-01    2.790000e+00
   P6r   C4r  1 4.700000e-01    2.620000e+00
   P6r   C3r  1 4.700000e-01    2.440000e+00
   P6r   C2r  1 4.700000e-01    2.440000e+00
   P6r   C1r  1 5.200000e-01    2.120000e+00
   P6r   X4r  1 4.700000e-01    3.070000e+00
   P6r   X3r  1 4.700000e-01    3.070000e+00
   P6r   X2r  1 4.700000e-01    2.960000e+00
   P6r   X1r  1 4.700000e-01    2.790000e+00
   P6r  C6vr  1 4.700000e-01    3.070000e+00
   P6r  C5vr  1 4.700000e-01    2.960000e+00
   P6r  C4vr  1 4.700000e-01    2.790000e+00
   P6r  C3vr  1 4.700000e-01    2.620000e+00
   P6r  C2vr  1 4.700000e-01    2.620000e+00
   P6r  C1vr  1 4.850000e-01    2.240000e+00
   P6r  X4vr  1 4.700000e-01    3.240000e+00
   P6r  X3vr  1 4.700000e-01    3.240000e+00
   P6r  X2vr  1 4.700000e-01    3.070000e+00
   P6r  X1vr  1 4.700000e-01    2.960000e+00
   P6r  C6er  1 4.700000e-01    3.070000e+00
   P6r  C5er  1 4.700000e-01    2.960000e+00
   P6r  C4er  1 4.700000e-01    2.790000e+00
   P6r  C3er  1 4.700000e-01    2.620000e+00
   P6r  C2er  1 4.700000e-01    2.620000e+00
   P6r  C1er  1 4.850000e-01    2.240000e+00
   P6r  X4er  1 4.700000e-01    3.240000e+00
   P6r  X3er  1 4.700000e-01    3.240000e+00
   P6r  X2er  1 4.700000e-01    3.070000e+00
   P6r  X1er  1 4.700000e-01    2.960000e+00
   P5r   C6r  1 4.700000e-01    2.960000e+00
   P5r   C5r  1 4.700000e-01    2.960000e+00
   P5r   C4r  1 4.700000e-01    2.790000e+00
   P5r   C3r  1 4.700000e-01    2.620000e+00
   P5r   C2r  1 4.700000e-01    2.620000e+00
   P5r   C1r  1 4.700000e-01    2.440000e+00
   P5r   X4r  1 4.700000e-01    3.240000e+00
   P5r   X3r  1 4.700000e-01    3.070000e+00
   P5r   X2r  1 4.700000e-01    3.070000e+00
   P5r   X1r  1 4.700000e-01    2.790000e+00
   P5r  C6vr  1 4.700000e-01    3.070000e+00
   P5r  C5vr  1 4.700000e-01    3.070000e+00
   P5r  C4vr  1 4.700000e-01    2.960000e+00
   P5r  C3vr  1 4.700000e-01    2.790000e+00
   P5r  C2vr  1 4.700000e-01    2.790000e+00
   P5r  C1vr  1 4.700000e-01    2.620000e+00
   P5r  X4vr  1 4.700000e-01    3.390000e+00
   P5r  X3vr  1 4.700000e-01    3.240000e+00
   P5r  X2vr  1 4.700000e-01    3.240000e+00
   P5r  X1vr  1 4.700000e-01    2.960000e+00
   P5r  C6er  1 4.700000e-01    3.070000e+00
   P5r  C5er  1 4.700000e-01    3.070000e+00
   P5r  C4er  1 4.700000e-01    2.960000e+00
   P5r  C3er  1 4.700000e-01    2.790000e+00
   P5r  C2er  1 4.700000e-01    2.790000e+00
   P5r  C1er  1 4.700000e-01    2.620000e+00
   P5r  X4er  1 4.700000e-01    3.390000e+00
   P5r  X3er  1 4.700000e-01    3.240000e+00
   P5r  X2er  1 4.700000e-01    3.240000e+00
   P5r  X1er  1 4.700000e-01    2.960000e+00
   P4r   C6r  1 4.700000e-01    3.070000e+00
   P4r   C5r  1 4.700000e-01    2.960000e+00
   P4r   C4r  1 4.700000e-01    2.790000e+00
   P4r   C3r  1 4.700000e-01    2.620000e+00
   P4r   C2r  1 4.700000e-01    2.620000e+00
   P4r   C1r  1 4.700000e-01    2.440000e+00
   P4r   X4r  1 4.700000e-01    3.240000e+00
   P4r   X3r  1 4.700000e-01    3.070000e+00
   P4r   X2r  1 4.700000e-01    3.070000e+00
   P4r   X1r  1 4.700000e-01    2.960000e+00
   P4r  C6vr  1 4.700000e-01    3.240000e+00
   P4r  C5vr  1 4.700000e-01    3.070000e+00
   P4r  C4vr  1 4.700000e-01    2.960000e+00
   P4r  C3vr  1 4.700000e-01    2.790000e+00
   P4r  C2vr  1 4.700000e-01    2.790000e+00
   P4r  C1vr  1 4.700000e-01    2.620000e+00
   P4r  X4vr  1 4.700000e-01    3.390000e+00
   P4r  X3vr  1 4.700000e-01    3.240000e+00
   P4r  X2vr  1 4.700000e-01    3.240000e+00
   P4r  X1vr  1 4.700000e-01    3.070000e+00
   P4r  C6er  1 4.700000e-01    3.240000e+00
   P4r  C5er  1 4.700000e-01    3.070000e+00
   P4r  C4er  1 4.700000e-01    2.960000e+00
   P4r  C3er  1 4.700000e-01    2.790000e+00
   P4r  C2er  1 4.700000e-01    2.790000e+00
   P4r  C1er  1 4.700000e-01    2.620000e+00
   P4r  X4er  1 4.700000e-01    3.390000e+00
   P4r  X3er  1 4.700000e-01    3.240000e+00
   P4r  X2er  1 4.700000e-01    3.240000e+00
   P4r  X1er  1 4.700000e-01    3.070000e+00
   P3r   C6r  1 4.700000e-01    3.240000e+00
   P3r   C5r  1 4.700000e-01    3.070000e+00
   P3r   C4r  1 4.700000e-01    2.960000e+00
   P3r   C3r  1 4.700000e-01    2.620000e+00
   P3r   C2r  1 4.700000e-01    2.620000e+00
   P3r   C1r  1 4.700000e-01    2.440000e+00
   P3r   X4r  1 4.700000e-01    3.240000e+00
   P3r   X3r  1 4.700000e-01    3.240000e+00
   P3r   X2r  1 4.700000e-01    3.070000e+00
   P3r   X1r  1 4.700000e-01    2.960000e+00
   P3r  C6vr  1 4.700000e-01    3.390000e+00
   P3r  C5vr  1 4.700000e-01    3.240000e+00
   P3r  C4vr  1 4.700000e-01    3.070000e+00
   P3r  C3vr  1 4.700000e-01    2.790000e+00
   P3r  C2vr  1 4.700000e-01    2.790000e+00
   P3r  C1vr  1 4.700000e-01    2.620000e+00
   P3r  X4vr  1 4.700000e-01    3.390000e+00
   P3r  X3vr  1 4.700000e-01    3.390000e+00
   P3r  X2vr  1 4.700000e-01    3.240000e+00
   P3r  X1vr  1 4.700000e-01    3.070000e+00
   P3r  C6er  1 4.700000e-01    3.390000e+00
   P3r  C5er  1 4.700000e-01    3.240000e+00
   P3r  C4er  1 4.700000e-01    3.070000e+00
   P3r  C3er  1 4.700000e-01    2.790000e+00
   P3r  C2er  1 4.700000e-01    2.790000e+00
   P3r  C1er  1 4.700000e-01    2.620000e+00
   P3r  X4er  1 4.700000e-01    3.390000e+00
   P3r  X3er  1 4.700000e-01    3.390000e+00
   P3r  X2er  1 4.700000e-01    3.240000e+00
   P3r  X1er  1 4.700000e-01    3.070000e+00
   P2r   C6r  1 4.700000e-01    3.240000e+00
   P2r   C5r  1 4.700000e-01    3.070000e+00
   P2r   C4r  1 4.700000e-01    2.960000e+00
   P2r   C3r  1 4.700000e-01    2.790000e+00
   P2r   C2r  1 4.700000e-01    2.790000e+00
   P2r   C1r  1 4.700000e-01    2.620000e+00
   P2r   X4r  1 4.700000e-01    3.240000e+00
   P2r   X3r  1 4.700000e-01    3.240000e+00
   P2r   X2r  1 4.700000e-01    3.070000e+00
   P2r   X1r  1 4.700000e-01    2.960000e+00
   P2r  C6vr  1 4.700000e-01    3.390000e+00
   P2r  C5vr  1 4.700000e-01    3.240000e+00
   P2r  C4vr  1 4.700000e-01    3.070000e+00
   P2r  C3vr  1 4.700000e-01    2.960000e+00
   P2r  C2vr  1 4.700000e-01    2.960000e+00
   P2r  C1vr  1 4.700000e-01    2.790000e+00
   P2r  X4vr  1 4.700000e-01    3.390000e+00
   P2r  X3vr  1 4.700000e-01    3.390000e+00
   P2r  X2vr  1 4.700000e-01    3.240000e+00
   P2r  X1vr  1 4.700000e-01    3.070000e+00
   P2r  C6er  1 4.700000e-01    3.390000e+00
   P2r  C5er  1 4.700000e-01    3.240000e+00
   P2r  C4er  1 4.700000e-01    3.070000e+00
   P2r  C3er  1 4.700000e-01    2.960000e+00
   P2r  C2er  1 4.700000e-01    2.960000e+00
   P2r  C1er  1 4.700000e-01    2.790000e+00
   P2r  X4er  1 4.700000e-01    3.390000e+00
   P2r  X3er  1 4.700000e-01    3.390000e+00
   P2r  X2er  1 4.700000e-01    3.240000e+00
   P2r  X1er  1 4.700000e-01    3.070000e+00
   P1r   C6r  1 4.700000e-01    3.240000e+00
   P1r   C5r  1 4.700000e-01    3.070000e+00
   P1r   C4r  1 4.700000e-01    2.960000e+00
   P1r   C3r  1 4.700000e-01    2.790000e+00
   P1r   C2r  1 4.700000e-01    2.790000e+00
   P1r   C1r  1 4.700000e-01    2.620000e+00
   P1r   X4r  1 4.700000e-01    3.240000e+00
   P1r   X3r  1 4.700000e-01    3.240000e+00
   P1r   X2r  1 4.700000e-01    3.070000e+00
   P1r   X1r  1 4.700000e-01    2.960000e+00
   P1r  C6vr  1 4.700000e-01    3.390000e+00
   P1r  C5vr  1 4.700000e-01    3.240000e+00
   P1r  C4vr  1 4.700000e-01    3.070000e+00
   P1r  C3vr  1 4.700000e-01    2.960000e+00
   P1r  C2vr  1 4.700000e-01    2.960000e+00
   P1r  C1vr  1 4.700000e-01    2.790000e+00
   P1r  X4vr  1 4.700000e-01    3.390000e+00
   P1r  X3vr  1 4.700000e-01    3.390000e+00
   P1r  X2vr  1 4.700000e-01    3.240000e+00
   P1r  X1vr  1 4.700000e-01    3.070000e+00
   P1r  C6er  1 4.700000e-01    3.390000e+00
   P1r  C5er  1 4.700000e-01    3.240000e+00
   P1r  C4er  1 4.700000e-01    3.070000e+00
   P1r  C3er  1 4.700000e-01    2.960000e+00
   P1r  C2er  1 4.700000e-01    2.960000e+00
   P1r  C1er  1 4.700000e-01    2.790000e+00
   P1r  X4er  1 4.700000e-01    3.390000e+00
   P1r  X3er  1 4.700000e-01    3.390000e+00
   P1r  X2er  1 4.700000e-01    3.240000e+00
   P1r  X1er  1 4.700000e-01    3.070000e+00
   N6r   C6r  1 4.700000e-01    3.390000e+00
   N6r   C5r  1 4.700000e-01    3.240000e+00
   N6r   C4r  1 4.700000e-01    3.070000e+00
   N6r   C3r  1 4.700000e-01    2.960000e+00
   N6r   C2r  1 4.700000e-01    2.960000e+00
   N6r   C1r  1 4.700000e-01    2.790000e+00
   N6r   X4r  1 4.700000e-01    3.390000e+00
   N6r   X3r  1 4.700000e-01    3.240000e+00
   N6r   X2r  1 4.700000e-01    3.070000e+00
   N6r   X1r  1 4.700000e-01    2.960000e+00
   N6r  C6vr  1 4.700000e-01    3.520000e+00
   N6r  C5vr  1 4.700000e-01    3.390000e+00
   N6r  C4vr  1 4.700000e-01    3.240000e+00
   N6r  C3vr  1 4.700000e-01    3.070000e+00
   N6r  C2vr  1 4.700000e-01    3.070000e+00
   N6r  C1vr  1 4.700000e-01    2.960000e+00
   N6r  X4vr  1 4.700000e-01    3.520000e+00
   N6r  X3vr  1 4.700000e-01    3.390000e+00
   N6r  X2vr  1 4.700000e-01    3.240000e+00
   N6r  X1vr  1 4.700000e-01    3.070000e+00
   N6r  C6er  1 4.700000e-01    3.520000e+00
   N6r  C5er  1 4.700000e-01    3.390000e+00
   N6r  C4er  1 4.700000e-01    3.240000e+00
   N6r  C3er  1 4.700000e-01    3.070000e+00
   N6r  C2er  1 4.700000e-01    3.070000e+00
   N6r  C1er  1 4.700000e-01    2.960000e+00
   N6r  X4er  1 4.700000e-01    3.520000e+00
   N6r  X3er  1 4.700000e-01    3.390000e+00
   N6r  X2er  1 4.700000e-01    3.240000e+00
   N6r  X1er  1 4.700000e-01    3.070000e+00
   N5r   C6r  1 4.700000e-01    3.390000e+00
   N5r   C5r  1 4.700000e-01    3.240000e+00
   N5r   C4r  1 4.700000e-01    3.070000e+00
   N5r   C3r  1 4.700000e-01    3.070000e+00
   N5r   C2r  1 4.700000e-01    2.960000e+00
   N5r   C1r  1 4.700000e-01    2.790000e+00
   N5r   X4r  1 4.700000e-01    3.520000e+00
   N5r   X3r  1 4.700000e-01    3.390000e+00
   N5r   X2r  1 4.700000e-01    3.240000e+00
   N5r   X1r  1 4.700000e-01    3.070000e+00
   N5r  C6vr  1 4.700000e-01    3.520000e+00
   N5r  C5vr  1 4.700000e-01    3.390000e+00
   N5r  C4vr  1 4.700000e-01    3.240000e+00
   N5r  C3vr  1 4.700000e-01    3.240000e+00
   N5r  C2vr  1 4.700000e-01    3.070000e+00
   N5r  C1vr  1 4.700000e-01    2.960000e+00
   N5r  X4vr  1 4.700000e-01    3.690000e+00
   N5r  X3vr  1 4.700000e-01    3.520000e+00
   N5r  X2vr  1 4.700000e-01    3.390000e+00
   N5r  X1vr  1 4.700000e-01    3.240000e+00
   N5r  C6er  1 4.700000e-01    3.520000e+00
   N5r  C5er  1 4.700000e-01    3.390000e+00
   N5r  C4er  1 4.700000e-01    3.240000e+00
   N5r  C3er  1 4.700000e-01    3.240000e+00
   N5r  C2er  1 4.700000e-01    3.070000e+00
   N5r  C1er  1 4.700000e-01    2.960000e+00
   N5r  X4er  1 4.700000e-01    3.690000e+00
   N5r  X3er  1 4.700000e-01    3.520000e+00
   N5r  X2er  1 4.700000e-01    3.390000e+00
   N5r  X1er  1 4.700000e-01    3.240000e+00
   N4r   C6r  1 4.700000e-01    3.390000e+00
   N4r   C5r  1 4.700000e-01    3.240000e+00
   N4r   C4r  1 4.700000e-01    3.240000e+00
   N4r   C3r  1 4.700000e-01    3.070000e+00
   N4r   C2r  1 4.700000e-01    2.960000e+00
   N4r   C1r  1 4.700000e-01    2.790000e+00
   N4r   X4r  1 4.700000e-01    3.690000e+00
   N4r   X3r  1 4.700000e-01    3.520000e+00
   N4r   X2r  1 4.700000e-01    3.240000e+00
   N4r   X1r  1 4.700000e-01    3.070000e+00
   N4r  C6vr  1 4.700000e-01    3.520000e+00
   N4r  C5vr  1 4.700000e-01    3.390000e+00
   N4r  C4vr  1 4.700000e-01    3.390000e+00
   N4r  C3vr  1 4.700000e-01    3.240000e+00
   N4r  C2vr  1 4.700000e-01    3.070000e+00
   N4r  C1vr  1 4.700000e-01    2.960000e+00
   N4r  X4vr  1 4.700000e-01    3.880000e+00
   N4r  X3vr  1 4.700000e-01    3.690000e+00
   N4r  X2vr  1 4.700000e-01    3.390000e+00
   N4r  X1vr  1 4.700000e-01    3.240000e+00
   N4r  C6er  1 4.700000e-01    3.520000e+00
   N4r  C5er  1 4.700000e-01    3.390000e+00
   N4r  C4er  1 4.700000e-01    3.390000e+00
   N4r  C3er  1 4.700000e-01    3.240000e+00
   N4r  C2er  1 4.700000e-01    3.070000e+00
   N4r  C1er  1 4.700000e-01    2.960000e+00
   N4r  X4er  1 4.700000e-01    3.880000e+00
   N4r  X3er  1 4.700000e-01    3.690000e+00
   N4r  X2er  1 4.700000e-01    3.390000e+00
   N4r  X1er  1 4.700000e-01    3.240000e+00
   N3r   C6r  1 4.700000e-01    3.390000e+00
   N3r   C5r  1 4.700000e-01    3.240000e+00
   N3r   C4r  1 4.700000e-01    3.240000e+00
   N3r   C3r  1 4.700000e-01    3.070000e+00
   N3r   C2r  1 4.700000e-01    3.070000e+00
   N3r   C1r  1 4.700000e-01    2.960000e+00
   N3r   X4r  1 4.700000e-01    3.520000e+00
   N3r   X3r  1 4.700000e-01    3.390000e+00
   N3r   X2r  1 4.700000e-01    3.240000e+00
   N3r   X1r  1 4.700000e-01    3.240000e+00
   N3r  C6vr  1 4.700000e-01    3.520000e+00
   N3r  C5vr  1 4.700000e-01    3.390000e+00
   N3r  C4vr  1 4.700000e-01    3.390000e+00
   N3r  C3vr  1 4.700000e-01    3.240000e+00
   N3r  C2vr  1 4.700000e-01    3.240000e+00
   N3r  C1vr  1 4.700000e-01    3.070000e+00
   N3r  X4vr  1 4.700000e-01    3.690000e+00
   N3r  X3vr  1 4.700000e-01    3.520000e+00
   N3r  X2vr  1 4.700000e-01    3.390000e+00
   N3r  X1vr  1 4.700000e-01    3.390000e+00
   N3r  C6er  1 4.700000e-01    3.520000e+00
   N3r  C5er  1 4.700000e-01    3.390000e+00
   N3r  C4er  1 4.700000e-01    3.390000e+00
   N3r  C3er  1 4.700000e-01    3.240000e+00
   N3r  C2er  1 4.700000e-01    3.240000e+00
   N3r  C1er  1 4.700000e-01    3.070000e+00
   N3r  X4er  1 4.700000e-01    3.690000e+00
   N3r  X3er  1 4.700000e-01    3.520000e+00
   N3r  X2er  1 4.700000e-01    3.390000e+00
   N3r  X1er  1 4.700000e-01    3.390000e+00
   N2r   C6r  1 4.700000e-01    3.390000e+00
   N2r   C5r  1 4.700000e-01    3.240000e+00
   N2r   C4r  1 4.700000e-01    3.240000e+00
   N2r   C3r  1 4.700000e-01    3.240000e+00
   N2r   C2r  1 4.700000e-01    3.070000e+00
   N2r   C1r  1 4.700000e-01    2.960000e+00
   N2r   X4r  1 4.700000e-01    3.520000e+00
   N2r   X3r  1 4.700000e-01    3.390000e+00
   N2r   X2r  1 4.700000e-01    3.240000e+00
   N2r   X1r  1 4.700000e-01    3.240000e+00
   N2r  C6vr  1 4.700000e-01    3.520000e+00
   N2r  C5vr  1 4.700000e-01    3.390000e+00
   N2r  C4vr  1 4.700000e-01    3.390000e+00
   N2r  C3vr  1 4.700000e-01    3.390000e+00
   N2r  C2vr  1 4.700000e-01    3.240000e+00
   N2r  C1vr  1 4.700000e-01    3.070000e+00
   N2r  X4vr  1 4.700000e-01    3.690000e+00
   N2r  X3vr  1 4.700000e-01    3.520000e+00
   N2r  X2vr  1 4.700000e-01    3.390000e+00
   N2r  X1vr  1 4.700000e-01    3.390000e+00
   N2r  C6er  1 4.700000e-01    3.520000e+00
   N2r  C5er  1 4.700000e-01    3.390000e+00
   N2r  C4er  1 4.700000e-01    3.390000e+00
   N2r  C3er  1 4.700000e-01    3.390000e+00
   N2r  C2er  1 4.700000e-01    3.240000e+00
   N2r  C1er  1 4.700000e-01    3.070000e+00
   N2r  X4er  1 4.700000e-01    3.690000e+00
   N2r  X3er  1 4.700000e-01    3.520000e+00
   N2r  X2er  1 4.700000e-01    3.390000e+00
   N2r  X1er  1 4.700000e-01    3.390000e+00
   N1r   C6r  1 4.700000e-01    3.520000e+00
   N1r   C5r  1 4.700000e-01    3.390000e+00
   N1r   C4r  1 4.700000e-01    3.390000e+00
   N1r   C3r  1 4.700000e-01    3.240000e+00
   N1r   C2r  1 4.700000e-01    3.070000e+00
   N1r   C1r  1 4.700000e-01    2.960000e+00
   N1r   X4r  1 4.700000e-01    3.390000e+00
   N1r   X3r  1 4.700000e-01    3.390000e+00
   N1r   X2r  1 4.700000e-01    3.240000e+00
   N1r   X1r  1 4.700000e-01    3.240000e+00
   N1r  C6vr  1 4.700000e-01    3.690000e+00
   N1r  C5vr  1 4.700000e-01    3.520000e+00
   N1r  C4vr  1 4.700000e-01    3.520000e+00
   N1r  C3vr  1 4.700000e-01    3.390000e+00
   N1r  C2vr  1 4.700000e-01    3.240000e+00
   N1r  C1vr  1 4.700000e-01    3.070000e+00
   N1r  X4vr  1 4.700000e-01    3.520000e+00
   N1r  X3vr  1 4.700000e-01    3.520000e+00
   N1r  X2vr  1 4.700000e-01    3.390000e+00
   N1r  X1vr  1 4.700000e-01    3.390000e+00
   N1r  C6er  1 4.700000e-01    3.690000e+00
   N1r  C5er  1 4.700000e-01    3.520000e+00
   N1r  C4er  1 4.700000e-01    3.520000e+00
   N1r  C3er  1 4.700000e-01    3.390000e+00
   N1r  C2er  1 4.700000e-01    3.240000e+00
   N1r  C1er  1 4.700000e-01    3.070000e+00
   N1r  X4er  1 4.700000e-01    3.520000e+00
   N1r  X3er  1 4.700000e-01    3.520000e+00
   N1r  X2er  1 4.700000e-01    3.390000e+00
   N1r  X1er  1 4.700000e-01    3.390000e+00
  P6dr   C6r  1 4.700000e-01    2.960000e+00
  P6dr   C5r  1 4.700000e-01    2.790000e+00
  P6dr   C4r  1 4.700000e-01    2.620000e+00
  P6dr   C3r  1 4.700000e-01    2.440000e+00
  P6dr   C2r  1 4.700000e-01    2.440000e+00
  P6dr   C1r  1 5.200000e-01    2.120000e+00
  P6dr   X4r  1 4.700000e-01    3.070000e+00
  P6dr   X3r  1 4.700000e-01    3.070000e+00
  P6dr   X2r  1 4.700000e-01    2.960000e+00
  P6dr   X1r  1 4.700000e-01    2.790000e+00
  P5dr   C6r  1 4.700000e-01    2.960000e+00
  P5dr   C5r  1 4.700000e-01    2.960000e+00
  P5dr   C4r  1 4.700000e-01    2.790000e+00
  P5dr   C3r  1 4.700000e-01    2.620000e+00
  P5dr   C2r  1 4.700000e-01    2.620000e+00
  P5dr   C1r  1 4.700000e-01    2.440000e+00
  P5dr   X4r  1 4.700000e-01    3.240000e+00
  P5dr   X3r  1 4.700000e-01    3.070000e+00
  P5dr   X2r  1 4.700000e-01    3.070000e+00
  P5dr   X1r  1 4.700000e-01    2.790000e+00
  P4dr   C6r  1 4.700000e-01    3.070000e+00
  P4dr   C5r  1 4.700000e-01    2.960000e+00
  P4dr   C4r  1 4.700000e-01    2.790000e+00
  P4dr   C3r  1 4.700000e-01    2.620000e+00
  P4dr   C2r  1 4.700000e-01    2.620000e+00
  P4dr   C1r  1 4.700000e-01    2.440000e+00
  P4dr   X4r  1 4.700000e-01    3.240000e+00
  P4dr   X3r  1 4.700000e-01    3.070000e+00
  P4dr   X2r  1 4.700000e-01    3.070000e+00
  P4dr   X1r  1 4.700000e-01    2.960000e+00
  P3dr   C6r  1 4.700000e-01    3.240000e+00
  P3dr   C5r  1 4.700000e-01    3.070000e+00
  P3dr   C4r  1 4.700000e-01    2.960000e+00
  P3dr   C3r  1 4.700000e-01    2.620000e+00
  P3dr   C2r  1 4.700000e-01    2.620000e+00
  P3dr   C1r  1 4.700000e-01    2.440000e+00
  P3dr   X4r  1 4.700000e-01    3.240000e+00
  P3dr   X3r  1 4.700000e-01    3.240000e+00
  P3dr   X2r  1 4.700000e-01    3.070000e+00
  P3dr   X1r  1 4.700000e-01    2.960000e+00
  P2dr   C6r  1 4.700000e-01    3.240000e+00
  P2dr   C5r  1 4.700000e-01    3.070000e+00
  P2dr   C4r  1 4.700000e-01    2.960000e+00
  P2dr   C3r  1 4.700000e-01    2.790000e+00
  P2dr   C2r  1 4.700000e-01    2.790000e+00
  P2dr   C1r  1 4.700000e-01    2.620000e+00
  P2dr   X4r  1 4.700000e-01    3.240000e+00
  P2dr   X3r  1 4.700000e-01    3.240000e+00
  P2dr   X2r  1 4.700000e-01    3.070000e+00
  P2dr   X1r  1 4.700000e-01    2.960000e+00
  P1dr   C6r  1 4.700000e-01    3.240000e+00
  P1dr   C5r  1 4.700000e-01    3.070000e+00
  P1dr   C4r  1 4.700000e-01    2.960000e+00
  P1dr   C3r  1 4.700000e-01    2.790000e+00
  P1dr   C2r  1 4.700000e-01    2.790000e+00
  P1dr   C1r  1 4.700000e-01    2.620000e+00
  P1dr   X4r  1 4.700000e-01    3.240000e+00
  P1dr   X3r  1 4.700000e-01    3.240000e+00
  P1dr   X2r  1 4.700000e-01    3.070000e+00
  P1dr   X1r  1 4.700000e-01    2.960000e+00
  N6dr   C6r  1 4.700000e-01    3.390000e+00
  N6dr   C5r  1 4.700000e-01    3.240000e+00
  N6dr   C4r  1 4.700000e-01    3.070000e+00
  N6dr   C3r  1 4.700000e-01    2.960000e+00
  N6dr   C2r  1 4.700000e-01    2.960000e+00
  N6dr   C1r  1 4.700000e-01    2.790000e+00
  N6dr   X4r  1 4.700000e-01    3.390000e+00
  N6dr   X3r  1 4.700000e-01    3.240000e+00
  N6dr   X2r  1 4.700000e-01    3.070000e+00
  N6dr   X1r  1 4.700000e-01    2.960000e+00
  N5dr   C6r  1 4.700000e-01    3.390000e+00
  N5dr   C5r  1 4.700000e-01    3.240000e+00
  N5dr   C4r  1 4.700000e-01    3.070000e+00
  N5dr   C3r  1 4.700000e-01    3.070000e+00
  N5dr   C2r  1 4.700000e-01    2.960000e+00
  N5dr   C1r  1 4.700000e-01    2.790000e+00
  N5dr   X4r  1 4.700000e-01    3.520000e+00
  N5dr   X3r  1 4.700000e-01    3.390000e+00
  N5dr   X2r  1 4.700000e-01    3.240000e+00
  N5dr   X1r  1 4.700000e-01    3.070000e+00
  N4dr   C6r  1 4.700000e-01    3.390000e+00
  N4dr   C5r  1 4.700000e-01    3.240000e+00
  N4dr   C4r  1 4.700000e-01    3.240000e+00
  N4dr   C3r  1 4.700000e-01    3.070000e+00
  N4dr   C2r  1 4.700000e-01    2.960000e+00
  N4dr   C1r  1 4.700000e-01    2.790000e+00
  N4dr   X4r  1 4.700000e-01    3.690000e+00
  N4dr   X3r  1 4.700000e-01    3.520000e+00
  N4dr   X2r  1 4.700000e-01    3.240000e+00
  N4dr   X1r  1 4.700000e-01    3.070000e+00
  N3dr   C6r  1 4.700000e-01    3.390000e+00
  N3dr   C5r  1 4.700000e-01    3.240000e+00
  N3dr   C4r  1 4.700000e-01    3.240000e+00
  N3dr   C3r  1 4.700000e-01    3.070000e+00
  N3dr   C2r  1 4.700000e-01    3.070000e+00
  N3dr   C1r  1 4.700000e-01    2.960000e+00
  N3dr   X4r  1 4.700000e-01    3.520000e+00
  N3dr   X3r  1 4.700000e-01    3.390000e+00
  N3dr   X2r  1 4.700000e-01    3.240000e+00
  N3dr   X1r  1 4.700000e-01    3.240000e+00
  N2dr   C6r  1 4.700000e-01    3.390000e+00
  N2dr   C5r  1 4.700000e-01    3.240000e+00
  N2dr   C4r  1 4.700000e-01    3.240000e+00
  N2dr   C3r  1 4.700000e-01    3.240000e+00
  N2dr   C2r  1 4.700000e-01    3.070000e+00
  N2dr   C1r  1 4.700000e-01    2.960000e+00
  N2dr   X4r  1 4.700000e-01    3.520000e+00
  N2dr   X3r  1 4.700000e-01    3.390000e+00
  N2dr   X2r  1 4.700000e-01    3.240000e+00
  N2dr   X1r  1 4.700000e-01    3.240000e+00
  N1dr   C6r  1 4.700000e-01    3.520000e+00
  N1dr   C5r  1 4.700000e-01    3.390000e+00
  N1dr   C4r  1 4.700000e-01    3.390000e+00
  N1dr   C3r  1 4.700000e-01    3.240000e+00
  N1dr   C2r  1 4.700000e-01    3.070000e+00
  N1dr   C1r  1 4.700000e-01    2.960000e+00
  N1dr   X4r  1 4.700000e-01    3.390000e+00
  N1dr   X3r  1 4.700000e-01    3.390000e+00
  N1dr   X2r  1 4.700000e-01    3.240000e+00
  N1dr   X1r  1 4.700000e-01    3.240000e+00
  P6ar   C6r  1 4.700000e-01    2.960000e+00
  P6ar   C5r  1 4.700000e-01    2.790000e+00
  P6ar   C4r  1 4.700000e-01    2.620000e+00
  P6ar   C3r  1 4.700000e-01    2.440000e+00
  P6ar   C2r  1 4.700000e-01    2.440000e+00
  P6ar   C1r  1 5.200000e-01    2.120000e+00
  P6ar   X4r  1 4.700000e-01    3.070000e+00
  P6ar   X3r  1 4.700000e-01    3.070000e+00
  P6ar   X2r  1 4.700000e-01    2.960000e+00
  P6ar   X1r  1 4.700000e-01    2.790000e+00
  P5ar   C6r  1 4.700000e-01    2.960000e+00
  P5ar   C5r  1 4.700000e-01    2.960000e+00
  P5ar   C4r  1 4.700000e-01    2.790000e+00
  P5ar   C3r  1 4.700000e-01    2.620000e+00
  P5ar   C2r  1 4.700000e-01    2.620000e+00
  P5ar   C1r  1 4.700000e-01    2.440000e+00
  P5ar   X4r  1 4.700000e-01    3.240000e+00
  P5ar   X3r  1 4.700000e-01    3.070000e+00
  P5ar   X2r  1 4.700000e-01    3.070000e+00
  P5ar   X1r  1 4.700000e-01    2.790000e+00
  P4ar   C6r  1 4.700000e-01    3.070000e+00
  P4ar   C5r  1 4.700000e-01    2.960000e+00
  P4ar   C4r  1 4.700000e-01    2.790000e+00
  P4ar   C3r  1 4.700000e-01    2.620000e+00
  P4ar   C2r  1 4.700000e-01    2.620000e+00
  P4ar   C1r  1 4.700000e-01    2.440000e+00
  P4ar   X4r  1 4.700000e-01    3.240000e+00
  P4ar   X3r  1 4.700000e-01    3.070000e+00
  P4ar   X2r  1 4.700000e-01    3.070000e+00
  P4ar   X1r  1 4.700000e-01    2.960000e+00
  P3ar   C6r  1 4.700000e-01    3.240000e+00
  P3ar   C5r  1 4.700000e-01    3.070000e+00
  P3ar   C4r  1 4.700000e-01    2.960000e+00
  P3ar   C3r  1 4.700000e-01    2.620000e+00
  P3ar   C2r  1 4.700000e-01    2.620000e+00
  P3ar   C1r  1 4.700000e-01    2.440000e+00
  P3ar   X4r  1 4.700000e-01    3.240000e+00
  P3ar   X3r  1 4.700000e-01    3.240000e+00
  P3ar   X2r  1 4.700000e-01    3.070000e+00
  P3ar   X1r  1 4.700000e-01    2.960000e+00
  P2ar   C6r  1 4.700000e-01    3.240000e+00
  P2ar   C5r  1 4.700000e-01    3.070000e+00
  P2ar   C4r  1 4.700000e-01    2.960000e+00
  P2ar   C3r  1 4.700000e-01    2.790000e+00
  P2ar   C2r  1 4.700000e-01    2.790000e+00
  P2ar   C1r  1 4.700000e-01    2.620000e+00
  P2ar   X4r  1 4.700000e-01    3.240000e+00
  P2ar   X3r  1 4.700000e-01    3.240000e+00
  P2ar   X2r  1 4.700000e-01    3.070000e+00
  P2ar   X1r  1 4.700000e-01    2.960000e+00
  P1ar   C6r  1 4.700000e-01    3.240000e+00
  P1ar   C5r  1 4.700000e-01    3.070000e+00
  P1ar   C4r  1 4.700000e-01    2.960000e+00
  P1ar   C3r  1 4.700000e-01    2.790000e+00
  P1ar   C2r  1 4.700000e-01    2.790000e+00
  P1ar   C1r  1 4.700000e-01    2.620000e+00
  P1ar   X4r  1 4.700000e-01    3.240000e+00
  P1ar   X3r  1 4.700000e-01    3.240000e+00
  P1ar   X2r  1 4.700000e-01    3.070000e+00
  P1ar   X1r  1 4.700000e-01    2.960000e+00
  N6ar   C6r  1 4.700000e-01    3.390000e+00
  N6ar   C5r  1 4.700000e-01    3.240000e+00
  N6ar   C4r  1 4.700000e-01    3.070000e+00
  N6ar   C3r  1 4.700000e-01    2.960000e+00
  N6ar   C2r  1 4.700000e-01    2.960000e+00
  N6ar   C1r  1 4.700000e-01    2.790000e+00
  N6ar   X4r  1 4.700000e-01    3.390000e+00
  N6ar   X3r  1 4.700000e-01    3.240000e+00
  N6ar   X2r  1 4.700000e-01    3.070000e+00
  N6ar   X1r  1 4.700000e-01    2.960000e+00
  N5ar   C6r  1 4.700000e-01    3.390000e+00
  N5ar   C5r  1 4.700000e-01    3.240000e+00
  N5ar   C4r  1 4.700000e-01    3.070000e+00
  N5ar   C3r  1 4.700000e-01    3.070000e+00
  N5ar   C2r  1 4.700000e-01    2.960000e+00
  N5ar   C1r  1 4.700000e-01    2.790000e+00
  N5ar   X4r  1 4.700000e-01    3.520000e+00
  N5ar   X3r  1 4.700000e-01    3.390000e+00
  N5ar   X2r  1 4.700000e-01    3.240000e+00
  N5ar   X1r  1 4.700000e-01    3.070000e+00
  N4ar   C6r  1 4.700000e-01    3.390000e+00
  N4ar   C5r  1 4.700000e-01    3.240000e+00
  N4ar   C4r  1 4.700000e-01    3.240000e+00
  N4ar   C3r  1 4.700000e-01    3.070000e+00
  N4ar   C2r  1 4.700000e-01    2.960000e+00
  N4ar   C1r  1 4.700000e-01    2.790000e+00
  N4ar   X4r  1 4.700000e-01    3.690000e+00
  N4ar   X3r  1 4.700000e-01    3.520000e+00
  N4ar   X2r  1 4.700000e-01    3.240000e+00
  N4ar   X1r  1 4.700000e-01    3.070000e+00
  N3ar   C6r  1 4.700000e-01    3.390000e+00
  N3ar   C5r  1 4.700000e-01    3.240000e+00
  N3ar   C4r  1 4.700000e-01    3.240000e+00
  N3ar   C3r  1 4.700000e-01    3.070000e+00
  N3ar   C2r  1 4.700000e-01    3.070000e+00
  N3ar   C1r  1 4.700000e-01    2.960000e+00
  N3ar   X4r  1 4.700000e-01    3.520000e+00
  N3ar   X3r  1 4.700000e-01    3.390000e+00
  N3ar   X2r  1 4.700000e-01    3.240000e+00
  N3ar   X1r  1 4.700000e-01    3.240000e+00
  N2ar   C6r  1 4.700000e-01    3.390000e+00
  N2ar   C5r  1 4.700000e-01    3.240000e+00
  N2ar   C4r  1 4.700000e-01    3.240000e+00
  N2ar   C3r  1 4.700000e-01    3.240000e+00
  N2ar   C2r  1 4.700000e-01    3.070000e+00
  N2ar   C1r  1 4.700000e-01    2.960000e+00
  N2ar   X4r  1 4.700000e-01    3.520000e+00
  N2ar   X3r  1 4.700000e-01    3.390000e+00
  N2ar   X2r  1 4.700000e-01    3.240000e+00
  N2ar   X1r  1 4.700000e-01    3.240000e+00
  N1ar   C6r  1 4.700000e-01    3.520000e+00
  N1ar   C5r  1 4.700000e-01    3.390000e+00
  N1ar   C4r  1 4.700000e-01    3.390000e+00
  N1ar   C3r  1 4.700000e-01    3.240000e+00
  N1ar   C2r  1 4.700000e-01    3.070000e+00
  N1ar   C1r  1 4.700000e-01    2.960000e+00
  N1ar   X4r  1 4.700000e-01    3.390000e+00
  N1ar   X3r  1 4.700000e-01    3.390000e+00
  N1ar   X2r  1 4.700000e-01    3.240000e+00
  N1ar   X1r  1 4.700000e-01    3.240000e+00
   P6h   P6h  1 4.700000e-01    5.240000e+00
   P5h   P5h  1 4.700000e-01    4.730000e+00
   P4h   P4h  1 4.700000e-01    4.480000e+00
   P3h   P3h  1 4.700000e-01    4.250000e+00
   P2h   P2h  1 4.700000e-01    4.250000e+00
   P1h   P1h  1 4.700000e-01    4.060000e+00
   N6h   N6h  1 4.700000e-01    4.060000e+00
   N5h   N5h  1 4.700000e-01    3.880000e+00
   N4h   N4h  1 4.700000e-01    3.880000e+00
   N3h   N3h  1 4.700000e-01    3.690000e+00
   N2h   N2h  1 4.700000e-01    3.690000e+00
   N1h   N1h  1 4.700000e-01    3.690000e+00
   P6h   P5h  1 4.700000e-01    4.990000e+00
   P6h   P4h  1 4.700000e-01    4.730000e+00
   P6h   P3h  1 4.700000e-01    4.480000e+00
   P6h   P2h  1 4.700000e-01    4.480000e+00
   P6h   P1h  1 4.700000e-01    4.250000e+00
   P6h   N6h  1 4.700000e-01    4.060000e+00
   P6h   N5h  1 4.700000e-01    3.690000e+00
   P6h   N4h  1 4.700000e-01    3.520000e+00
   P6h   N3h  1 4.700000e-01    3.390000e+00
   P6h   N2h  1 4.700000e-01    3.240000e+00
   P6h   N1h  1 4.700000e-01    3.070000e+00
   P6h  P6dh  1 4.700000e-01    5.240000e+00
   P6h  P5dh  1 4.700000e-01    4.990000e+00
   P6h  P4dh  1 4.700000e-01    4.730000e+00
   P6h  P3dh  1 4.700000e-01    4.480000e+00
   P6h  P2dh  1 4.700000e-01    4.480000e+00
   P6h  P1dh  1 4.700000e-01    4.250000e+00
   P6h  N6dh  1 4.700000e-01    4.060000e+00
   P6h  N5dh  1 4.700000e-01    3.690000e+00
   P6h  N4dh  1 4.700000e-01    3.520000e+00
   P6h  N3dh  1 4.700000e-01    3.390000e+00
   P6h  N2dh  1 4.700000e-01    3.240000e+00
   P6h  N1dh  1 4.700000e-01    3.070000e+00
   P6h  P6ah  1 4.700000e-01    5.240000e+00
   P6h  P5ah  1 4.700000e-01    4.990000e+00
   P6h  P4ah  1 4.700000e-01    4.730000e+00
   P6h  P3ah  1 4.700000e-01    4.480000e+00
   P6h  P2ah  1 4.700000e-01    4.480000e+00
   P6h  P1ah  1 4.700000e-01    4.250000e+00
   P6h  N6ah  1 4.700000e-01    4.060000e+00
   P6h  N5ah  1 4.700000e-01    3.690000e+00
   P6h  N4ah  1 4.700000e-01    3.520000e+00
   P6h  N3ah  1 4.700000e-01    3.390000e+00
   P6h  N2ah  1 4.700000e-01    3.240000e+00
   P6h  N1ah  1 4.700000e-01    3.070000e+00
   P5h   P4h  1 4.700000e-01    4.480000e+00
   P5h   P3h  1 4.700000e-01    4.250000e+00
   P5h   P2h  1 4.700000e-01    4.250000e+00
   P5h   P1h  1 4.700000e-01    4.060000e+00
   P5h   N6h  1 4.700000e-01    3.880000e+00
   P5h   N5h  1 4.700000e-01    3.690000e+00
   P5h   N4h  1 4.700000e-01    3.690000e+00
   P5h   N3h  1 4.700000e-01    3.390000e+00
   P5h   N2h  1 4.700000e-01    3.240000e+00
   P5h   N1h  1 4.700000e-01    3.070000e+00
   P5h  P5dh  1 4.700000e-01    4.730000e+00
   P5h  P4dh  1 4.700000e-01    4.480000e+00
   P5h  P3dh  1 4.700000e-01    4.250000e+00
   P5h  P2dh  1 4.700000e-01    4.250000e+00
   P5h  P1dh  1 4.700000e-01    4.060000e+00
   P5h  N6dh  1 4.700000e-01    3.880000e+00
   P5h  N5dh  1 4.700000e-01    3.690000e+00
   P5h  N4dh  1 4.700000e-01    3.690000e+00
   P5h  N3dh  1 4.700000e-01    3.390000e+00
   P5h  N2dh  1 4.700000e-01    3.240000e+00
   P5h  N1dh  1 4.700000e-01    3.070000e+00
   P5h  P5ah  1 4.700000e-01    4.730000e+00
   P5h  P4ah  1 4.700000e-01    4.480000e+00
   P5h  P3ah  1 4.700000e-01    4.250000e+00
   P5h  P2ah  1 4.700000e-01    4.250000e+00
   P5h  P1ah  1 4.700000e-01    4.060000e+00
   P5h  N6ah  1 4.700000e-01    3.880000e+00
   P5h  N5ah  1 4.700000e-01    3.690000e+00
   P5h  N4ah  1 4.700000e-01    3.690000e+00
   P5h  N3ah  1 4.700000e-01    3.390000e+00
   P5h  N2ah  1 4.700000e-01    3.240000e+00
   P5h  N1ah  1 4.700000e-01    3.070000e+00
   P4h   P3h  1 4.700000e-01    4.250000e+00
   P4h   P2h  1 4.700000e-01    4.250000e+00
   P4h   P1h  1 4.700000e-01    4.060000e+00
   P4h   N6h  1 4.700000e-01    3.880000e+00
   P4h   N5h  1 4.700000e-01    3.690000e+00
   P4h   N4h  1 4.700000e-01    3.690000e+00
   P4h   N3h  1 4.700000e-01    3.520000e+00
   P4h   N2h  1 4.700000e-01    3.390000e+00
   P4h   N1h  1 4.700000e-01    3.240000e+00
   P4h  P4dh  1 4.700000e-01    4.480000e+00
   P4h  P3dh  1 4.700000e-01    4.250000e+00
   P4h  P2dh  1 4.700000e-01    4.250000e+00
   P4h  P1dh  1 4.700000e-01    4.060000e+00
   P4h  N6dh  1 4.700000e-01    3.880000e+00
   P4h  N5dh  1 4.700000e-01    3.690000e+00
   P4h  N4dh  1 4.700000e-01    3.690000e+00
   P4h  N3dh  1 4.700000e-01    3.520000e+00
   P4h  N2dh  1 4.700000e-01    3.390000e+00
   P4h  N1dh  1 4.700000e-01    3.240000e+00
   P4h  P4ah  1 4.700000e-01    4.480000e+00
   P4h  P3ah  1 4.700000e-01    4.250000e+00
   P4h  P2ah  1 4.700000e-01    4.250000e+00
   P4h  P1ah  1 4.700000e-01    4.060000e+00
   P4h  N6ah  1 4.700000e-01    3.880000e+00
   P4h  N5ah  1 4.700000e-01    3.690000e+00
   P4h  N4ah  1 4.700000e-01    3.690000e+00
   P4h  N3ah  1 4.700000e-01    3.520000e+00
   P4h  N2ah  1 4.700000e-01    3.390000e+00
   P4h  N1ah  1 4.700000e-01    3.240000e+00
   P3h   P2h  1 4.700000e-01    4.250000e+00
   P3h   P1h  1 4.700000e-01    4.060000e+00
   P3h   N6h  1 4.700000e-01    3.880000e+00
   P3h   N5h  1 4.700000e-01    3.690000e+00
   P3h   N4h  1 4.700000e-01    3.690000e+00
   P3h   N3h  1 4.700000e-01    3.520000e+00
   P3h   N2h  1 4.700000e-01    3.520000e+00
   P3h   N1h  1 4.700000e-01    3.390000e+00
   P3h  P3dh  1 4.700000e-01    4.250000e+00
   P3h  P2dh  1 4.700000e-01    4.250000e+00
   P3h  P1dh  1 4.700000e-01    4.060000e+00
   P3h  N6dh  1 4.700000e-01    3.880000e+00
   P3h  N5dh  1 4.700000e-01    3.690000e+00
   P3h  N4dh  1 4.700000e-01    3.690000e+00
   P3h  N3dh  1 4.700000e-01    3.520000e+00
   P3h  N2dh  1 4.700000e-01    3.520000e+00
   P3h  N1dh  1 4.700000e-01    3.390000e+00
   P3h  P3ah  1 4.700000e-01    4.250000e+00
   P3h  P2ah  1 4.700000e-01    4.250000e+00
   P3h  P1ah  1 4.700000e-01    4.060000e+00
   P3h  N6ah  1 4.700000e-01    3.880000e+00
   P3h  N5ah  1 4.700000e-01    3.690000e+00
   P3h  N4ah  1 4.700000e-01    3.690000e+00
   P3h  N3ah  1 4.700000e-01    3.520000e+00
   P3h  N2ah  1 4.700000e-01    3.520000e+00
   P3h  N1ah  1 4.700000e-01    3.390000e+00
   P2h   P1h  1 4.700000e-01    4.060000e+00
   P2h   N6h  1 4.700000e-01    4.060000e+00
   P2h   N5h  1 4.700000e-01    3.880000e+00
   P2h   N4h  1 4.700000e-01    3.690000e+00
   P2h   N3h  1 4.700000e-01    3.520000e+00
   P2h   N2h  1 4.700000e-01    3.520000e+00
   P2h   N1h  1 4.700000e-01    3.520000e+00
   P2h  P2dh  1 4.700000e-01    4.250000e+00
   P2h  P1dh  1 4.700000e-01    4.060000e+00
   P2h  N6dh  1 4.700000e-01    4.060000e+00
   P2h  N5dh  1 4.700000e-01    3.880000e+00
   P2h  N4dh  1 4.700000e-01    3.690000e+00
   P2h  N3dh  1 4.700000e-01    3.520000e+00
   P2h  N2dh  1 4.700000e-01    3.520000e+00
   P2h  N1dh  1 4.700000e-01    3.520000e+00
   P2h  P2ah  1 4.700000e-01    4.250000e+00
   P2h  P1ah  1 4.700000e-01    4.060000e+00
   P2h  N6ah  1 4.700000e-01    4.060000e+00
   P2h  N5ah  1 4.700000e-01    3.880000e+00
   P2h  N4ah  1 4.700000e-01    3.690000e+00
   P2h  N3ah  1 4.700000e-01    3.520000e+00
   P2h  N2ah  1 4.700000e-01    3.520000e+00
   P2h  N1ah  1 4.700000e-01    3.520000e+00
   P1h   N6h  1 4.700000e-01    4.060000e+00
   P1h   N5h  1 4.700000e-01    3.880000e+00
   P1h   N4h  1 4.700000e-01    3.880000e+00
   P1h   N3h  1 4.700000e-01    3.520000e+00
   P1h   N2h  1 4.700000e-01    3.520000e+00
   P1h   N1h  1 4.700000e-01    3.520000e+00
   P1h  P1dh  1 4.700000e-01    4.060000e+00
   P1h  N6dh  1 4.700000e-01    4.060000e+00
   P1h  N5dh  1 4.700000e-01    3.880000e+00
   P1h  N4dh  1 4.700000e-01    3.880000e+00
   P1h  N3dh  1 4.700000e-01    3.520000e+00
   P1h  N2dh  1 4.700000e-01    3.520000e+00
   P1h  N1dh  1 4.700000e-01    3.520000e+00
   P1h  P1ah  1 4.700000e-01    4.060000e+00
   P1h  N6ah  1 4.700000e-01    4.060000e+00
   P1h  N5ah  1 4.700000e-01    3.880000e+00
   P1h  N4ah  1 4.700000e-01    3.880000e+00
   P1h  N3ah  1 4.700000e-01    3.520000e+00
   P1h  N2ah  1 4.700000e-01    3.520000e+00
   P1h  N1ah  1 4.700000e-01    3.520000e+00
   N6h   N5h  1 4.700000e-01    4.060000e+00
   N6h   N4h  1 4.700000e-01    4.060000e+00
   N6h   N3h  1 4.700000e-01    3.690000e+00
   N6h   N2h  1 4.700000e-01    3.520000e+00
   N6h   N1h  1 4.700000e-01    3.520000e+00
   N6h  N6dh  1 4.700000e-01    4.060000e+00
   N6h  N5dh  1 4.700000e-01    4.060000e+00
   N6h  N4dh  1 4.700000e-01    4.060000e+00
   N6h  N3dh  1 4.700000e-01    3.690000e+00
   N6h  N2dh  1 4.700000e-01    3.520000e+00
   N6h  N1dh  1 4.700000e-01    3.520000e+00
   N6h  N6ah  1 4.700000e-01    4.060000e+00
   N6h  N5ah  1 4.700000e-01    4.060000e+00
   N6h  N4ah  1 4.700000e-01    4.060000e+00
   N6h  N3ah  1 4.700000e-01    3.690000e+00
   N6h  N2ah  1 4.700000e-01    3.520000e+00
   N6h  N1ah  1 4.700000e-01    3.520000e+00
   N5h   N4h  1 4.700000e-01    3.880000e+00
   N5h   N3h  1 4.700000e-01    3.690000e+00
   N5h   N2h  1 4.700000e-01    3.690000e+00
   N5h   N1h  1 4.700000e-01    3.520000e+00
   N5h  N5dh  1 4.700000e-01    3.880000e+00
   N5h  N4dh  1 4.700000e-01    3.880000e+00
   N5h  N3dh  1 4.700000e-01    3.690000e+00
   N5h  N2dh  1 4.700000e-01    3.690000e+00
   N5h  N1dh  1 4.700000e-01    3.520000e+00
   N5h  N5ah  1 4.700000e-01    3.880000e+00
   N5h  N4ah  1 4.700000e-01    3.880000e+00
   N5h  N3ah  1 4.700000e-01    3.690000e+00
   N5h  N2ah  1 4.700000e-01    3.690000e+00
   N5h  N1ah  1 4.700000e-01    3.520000e+00
   N4h   N3h  1 4.700000e-01    3.690000e+00
   N4h   N2h  1 4.700000e-01    3.690000e+00
   N4h   N1h  1 4.700000e-01    3.520000e+00
   N4h  N4dh  1 4.700000e-01    3.880000e+00
   N4h  N3dh  1 4.700000e-01    3.690000e+00
   N4h  N2dh  1 4.700000e-01    3.690000e+00
   N4h  N1dh  1 4.700000e-01    3.520000e+00
   N4h  N4ah  1 4.700000e-01    3.880000e+00
   N4h  N3ah  1 4.700000e-01    3.690000e+00
   N4h  N2ah  1 4.700000e-01    3.690000e+00
   N4h  N1ah  1 4.700000e-01    3.520000e+00
   N3h   N2h  1 4.700000e-01    3.690000e+00
   N3h   N1h  1 4.700000e-01    3.520000e+00
   N3h  N3dh  1 4.700000e-01    3.690000e+00
   N3h  N2dh  1 4.700000e-01    3.690000e+00
   N3h  N1dh  1 4.700000e-01    3.520000e+00
   N3h  N3ah  1 4.700000e-01    3.690000e+00
   N3h  N2ah  1 4.700000e-01    3.690000e+00
   N3h  N1ah  1 4.700000e-01    3.520000e+00
   N2h   N1h  1 4.700000e-01    3.520000e+00
   N2h  N2dh  1 4.700000e-01    3.690000e+00
   N2h  N1dh  1 4.700000e-01    3.520000e+00
   N2h  N2ah  1 4.700000e-01    3.690000e+00
   N2h  N1ah  1 4.700000e-01    3.520000e+00
   N1h  N1dh  1 4.700000e-01    3.690000e+00
   N1h  N1ah  1 4.700000e-01    3.690000e+00
  P6dh   P5h  1 4.700000e-01    4.990000e+00
  P6dh   P4h  1 4.700000e-01    4.730000e+00
  P6dh   P3h  1 4.700000e-01    4.480000e+00
  P6dh   P2h  1 4.700000e-01    4.480000e+00
  P6dh   P1h  1 4.700000e-01    4.250000e+00
  P6dh   N6h  1 4.700000e-01    4.060000e+00
  P6dh   N5h  1 4.700000e-01    3.690000e+00
  P6dh   N4h  1 4.700000e-01    3.520000e+00
  P6dh   N3h  1 4.700000e-01    3.390000e+00
  P6dh   N2h  1 4.700000e-01    3.240000e+00
  P6dh   N1h  1 4.700000e-01    3.070000e+00
  P5dh   P4h  1 4.700000e-01    4.480000e+00
  P5dh   P3h  1 4.700000e-01    4.250000e+00
  P5dh   P2h  1 4.700000e-01    4.250000e+00
  P5dh   P1h  1 4.700000e-01    4.060000e+00
  P5dh   N6h  1 4.700000e-01    3.880000e+00
  P5dh   N5h  1 4.700000e-01    3.690000e+00
  P5dh   N4h  1 4.700000e-01    3.690000e+00
  P5dh   N3h  1 4.700000e-01    3.390000e+00
  P5dh   N2h  1 4.700000e-01    3.240000e+00
  P5dh   N1h  1 4.700000e-01    3.070000e+00
  P4dh   P3h  1 4.700000e-01    4.250000e+00
  P4dh   P2h  1 4.700000e-01    4.250000e+00
  P4dh   P1h  1 4.700000e-01    4.060000e+00
  P4dh   N6h  1 4.700000e-01    3.880000e+00
  P4dh   N5h  1 4.700000e-01    3.690000e+00
  P4dh   N4h  1 4.700000e-01    3.690000e+00
  P4dh   N3h  1 4.700000e-01    3.520000e+00
  P4dh   N2h  1 4.700000e-01    3.390000e+00
  P4dh   N1h  1 4.700000e-01    3.240000e+00
  P3dh   P2h  1 4.700000e-01    4.250000e+00
  P3dh   P1h  1 4.700000e-01    4.060000e+00
  P3dh   N6h  1 4.700000e-01    3.880000e+00
  P3dh   N5h  1 4.700000e-01    3.690000e+00
  P3dh   N4h  1 4.700000e-01    3.690000e+00
  P3dh   N3h  1 4.700000e-01    3.520000e+00
  P3dh   N2h  1 4.700000e-01    3.520000e+00
  P3dh   N1h  1 4.700000e-01    3.390000e+00
  P2dh   P1h  1 4.700000e-01    4.060000e+00
  P2dh   N6h  1 4.700000e-01    4.060000e+00
  P2dh   N5h  1 4.700000e-01    3.880000e+00
  P2dh   N4h  1 4.700000e-01    3.690000e+00
  P2dh   N3h  1 4.700000e-01    3.520000e+00
  P2dh   N2h  1 4.700000e-01    3.520000e+00
  P2dh   N1h  1 4.700000e-01    3.520000e+00
  P1dh   N6h  1 4.700000e-01    4.060000e+00
  P1dh   N5h  1 4.700000e-01    3.880000e+00
  P1dh   N4h  1 4.700000e-01    3.880000e+00
  P1dh   N3h  1 4.700000e-01    3.520000e+00
  P1dh   N2h  1 4.700000e-01    3.520000e+00
  P1dh   N1h  1 4.700000e-01    3.520000e+00
  N6dh   N5h  1 4.700000e-01    4.060000e+00
  N6dh   N4h  1 4.700000e-01    4.060000e+00
  N6dh   N3h  1 4.700000e-01    3.690000e+00
  N6dh   N2h  1 4.700000e-01    3.520000e+00
  N6dh   N1h  1 4.700000e-01    3.520000e+00
  N5dh   N4h  1 4.700000e-01    3.880000e+00
  N5dh   N3h  1 4.700000e-01    3.690000e+00
  N5dh   N2h  1 4.700000e-01    3.690000e+00
  N5dh   N1h  1 4.700000e-01    3.520000e+00
  N4dh   N3h  1 4.700000e-01    3.690000e+00
  N4dh   N2h  1 4.700000e-01    3.690000e+00
  N4dh   N1h  1 4.700000e-01    3.520000e+00
  N3dh   N2h  1 4.700000e-01    3.690000e+00
  N3dh   N1h  1 4.700000e-01    3.520000e+00
  N2dh   N1h  1 4.700000e-01    3.520000e+00
  P6ah   P5h  1 4.700000e-01    4.990000e+00
  P6ah   P4h  1 4.700000e-01    4.730000e+00
  P6ah   P3h  1 4.700000e-01    4.480000e+00
  P6ah   P2h  1 4.700000e-01    4.480000e+00
  P6ah   P1h  1 4.700000e-01    4.250000e+00
  P6ah   N6h  1 4.700000e-01    4.060000e+00
  P6ah   N5h  1 4.700000e-01    3.690000e+00
  P6ah   N4h  1 4.700000e-01    3.520000e+00
  P6ah   N3h  1 4.700000e-01    3.390000e+00
  P6ah   N2h  1 4.700000e-01    3.240000e+00
  P6ah   N1h  1 4.700000e-01    3.070000e+00
  P5ah   P4h  1 4.700000e-01    4.480000e+00
  P5ah   P3h  1 4.700000e-01    4.250000e+00
  P5ah   P2h  1 4.700000e-01    4.250000e+00
  P5ah   P1h  1 4.700000e-01    4.060000e+00
  P5ah   N6h  1 4.700000e-01    3.880000e+00
  P5ah   N5h  1 4.700000e-01    3.690000e+00
  P5ah   N4h  1 4.700000e-01    3.690000e+00
  P5ah   N3h  1 4.700000e-01    3.390000e+00
  P5ah   N2h  1 4.700000e-01    3.240000e+00
  P5ah   N1h  1 4.700000e-01    3.070000e+00
  P4ah   P3h  1 4.700000e-01    4.250000e+00
  P4ah   P2h  1 4.700000e-01    4.250000e+00
  P4ah   P1h  1 4.700000e-01    4.060000e+00
  P4ah   N6h  1 4.700000e-01    3.880000e+00
  P4ah   N5h  1 4.700000e-01    3.690000e+00
  P4ah   N4h  1 4.700000e-01    3.690000e+00
  P4ah   N3h  1 4.700000e-01    3.520000e+00
  P4ah   N2h  1 4.700000e-01    3.390000e+00
  P4ah   N1h  1 4.700000e-01    3.240000e+00
  P3ah   P2h  1 4.700000e-01    4.250000e+00
  P3ah   P1h  1 4.700000e-01    4.060000e+00
  P3ah   N6h  1 4.700000e-01    3.880000e+00
  P3ah   N5h  1 4.700000e-01    3.690000e+00
  P3ah   N4h  1 4.700000e-01    3.690000e+00
  P3ah   N3h  1 4.700000e-01    3.520000e+00
  P3ah   N2h  1 4.700000e-01    3.520000e+00
  P3ah   N1h  1 4.700000e-01    3.390000e+00
  P2ah   P1h  1 4.700000e-01    4.060000e+00
  P2ah   N6h  1 4.700000e-01    4.060000e+00
  P2ah   N5h  1 4.700000e-01    3.880000e+00
  P2ah   N4h  1 4.700000e-01    3.690000e+00
  P2ah   N3h  1 4.700000e-01    3.520000e+00
  P2ah   N2h  1 4.700000e-01    3.520000e+00
  P2ah   N1h  1 4.700000e-01    3.520000e+00
  P1ah   N6h  1 4.700000e-01    4.060000e+00
  P1ah   N5h  1 4.700000e-01    3.880000e+00
  P1ah   N4h  1 4.700000e-01    3.880000e+00
  P1ah   N3h  1 4.700000e-01    3.520000e+00
  P1ah   N2h  1 4.700000e-01    3.520000e+00
  P1ah   N1h  1 4.700000e-01    3.520000e+00
  N6ah   N5h  1 4.700000e-01    4.060000e+00
  N6ah   N4h  1 4.700000e-01    4.060000e+00
  N6ah   N3h  1 4.700000e-01    3.690000e+00
  N6ah   N2h  1 4.700000e-01    3.520000e+00
  N6ah   N1h  1 4.700000e-01    3.520000e+00
  N5ah   N4h  1 4.700000e-01    3.880000e+00
  N5ah   N3h  1 4.700000e-01    3.690000e+00
  N5ah   N2h  1 4.700000e-01    3.690000e+00
  N5ah   N1h  1 4.700000e-01    3.520000e+00
  N4ah   N3h  1 4.700000e-01    3.690000e+00
  N4ah   N2h  1 4.700000e-01    3.690000e+00
  N4ah   N1h  1 4.700000e-01    3.520000e+00
  N3ah   N2h  1 4.700000e-01    3.690000e+00
  N3ah   N1h  1 4.700000e-01    3.520000e+00
  N2ah   N1h  1 4.700000e-01    3.520000e+00
   C6h   C6h  1 4.700000e-01    3.690000e+00
   C5h   C5h  1 4.700000e-01    3.520000e+00
   C4h   C4h  1 4.700000e-01    3.520000e+00
   C3h   C3h  1 4.700000e-01    3.520000e+00
   C2h   C2h  1 4.700000e-01    3.520000e+00
   C1h   C1h  1 4.700000e-01    3.520000e+00
   X4h   X4h  1 4.700000e-01    3.520000e+00
   X3h   X3h  1 4.700000e-01    3.520000e+00
   X2h   X2h  1 4.700000e-01    3.690000e+00
   X1h   X1h  1 4.700000e-01    3.880000e+00
  C6vh  C6vh  1 4.700000e-01    3.520000e+00
  C5vh  C5vh  1 4.700000e-01    3.390000e+00
  C4vh  C4vh  1 4.700000e-01    3.390000e+00
  C3vh  C3vh  1 4.700000e-01    3.390000e+00
  C2vh  C2vh  1 4.700000e-01    3.390000e+00
  C1vh  C1vh  1 4.700000e-01    3.390000e+00
  X4vh  X4vh  1 4.700000e-01    3.390000e+00
  X3vh  X3vh  1 4.700000e-01    3.390000e+00
  X2vh  X2vh  1 4.700000e-01    3.520000e+00
  X1vh  X1vh  1 4.700000e-01    3.690000e+00
  C6eh  C6eh  1 4.700000e-01    3.520000e+00
  C5eh  C5eh  1 4.700000e-01    3.390000e+00
  C4eh  C4eh  1 4.700000e-01    3.390000e+00
  C3eh  C3eh  1 4.700000e-01    3.390000e+00
  C2eh  C2eh  1 4.700000e-01    3.390000e+00
  C1eh  C1eh  1 4.700000e-01    3.390000e+00
  X4eh  X4eh  1 4.700000e-01    3.390000e+00
  X3eh  X3eh  1 4.700000e-01    3.390000e+00
  X2eh  X2eh  1 4.700000e-01    3.520000e+00
  X1eh  X1eh  1 4.700000e-01    3.690000e+00
   C6h   C5h  1 4.700000e-01    3.520000e+00
   C6h   C4h  1 4.700000e-01    3.520000e+00
   C6h   C3h  1 4.700000e-01    3.390000e+00
   C6h   C2h  1 4.700000e-01    3.240000e+00
   C6h   C1h  1 4.700000e-01    3.070000e+00
   C6h   X4h  1 4.700000e-01    3.520000e+00
   C6h   X3h  1 4.700000e-01    3.520000e+00
   C6h   X2h  1 4.700000e-01    3.520000e+00
   C6h   X1h  1 4.700000e-01    3.520000e+00
   C6h  C6vh  1 4.700000e-01    3.880000e+00
   C6h  C5vh  1 4.700000e-01    3.690000e+00
   C6h  C4vh  1 4.700000e-01    3.690000e+00
   C6h  C3vh  1 4.700000e-01    3.520000e+00
   C6h  C2vh  1 4.700000e-01    3.390000e+00
   C6h  C1vh  1 4.700000e-01    3.240000e+00
   C6h  X4vh  1 4.700000e-01    3.690000e+00
   C6h  X3vh  1 4.700000e-01    3.690000e+00
   C6h  X2vh  1 4.700000e-01    3.690000e+00
   C6h  X1vh  1 4.700000e-01    3.690000e+00
   C6h  C6eh  1 4.700000e-01    3.880000e+00
   C6h  C5eh  1 4.700000e-01    3.690000e+00
   C6h  C4eh  1 4.700000e-01    3.690000e+00
   C6h  C3eh  1 4.700000e-01    3.520000e+00
   C6h  C2eh  1 4.700000e-01    3.390000e+00
   C6h  C1eh  1 4.700000e-01    3.240000e+00
   C6h  X4eh  1 4.700000e-01    3.690000e+00
   C6h  X3eh  1 4.700000e-01    3.690000e+00
   C6h  X2eh  1 4.700000e-01    3.690000e+00
   C6h  X1eh  1 4.700000e-01    3.690000e+00
   C5h   C4h  1 4.700000e-01    3.520000e+00
   C5h   C3h  1 4.700000e-01    3.390000e+00
   C5h   C2h  1 4.700000e-01    3.240000e+00
   C5h   C1h  1 4.700000e-01    3.240000e+00
   C5h   X4h  1 4.700000e-01    3.390000e+00
   C5h   X3h  1 4.700000e-01    3.390000e+00
   C5h   X2h  1 4.700000e-01    3.390000e+00
   C5h   X1h  1 4.700000e-01    3.520000e+00
   C5h  C5vh  1 4.700000e-01    3.690000e+00
   C5h  C4vh  1 4.700000e-01    3.690000e+00
   C5h  C3vh  1 4.700000e-01    3.520000e+00
   C5h  C2vh  1 4.700000e-01    3.390000e+00
   C5h  C1vh  1 4.700000e-01    3.390000e+00
   C5h  X4vh  1 4.700000e-01    3.520000e+00
   C5h  X3vh  1 4.700000e-01    3.520000e+00
   C5h  X2vh  1 4.700000e-01    3.520000e+00
   C5h  X1vh  1 4.700000e-01    3.690000e+00
   C5h  C5eh  1 4.700000e-01    3.690000e+00
   C5h  C4eh  1 4.700000e-01    3.690000e+00
   C5h  C3eh  1 4.700000e-01    3.520000e+00
   C5h  C2eh  1 4.700000e-01    3.390000e+00
   C5h  C1eh  1 4.700000e-01    3.390000e+00
   C5h  X4eh  1 4.700000e-01    3.520000e+00
   C5h  X3eh  1 4.700000e-01    3.520000e+00
   C5h  X2eh  1 4.700000e-01    3.520000e+00
   C5h  X1eh  1 4.700000e-01    3.690000e+00
   C4h   C3h  1 4.700000e-01    3.520000e+00
   C4h   C2h  1 4.700000e-01    3.390000e+00
   C4h   C1h  1 4.700000e-01    3.240000e+00
   C4h   X4h  1 4.700000e-01    3.390000e+00
   C4h   X3h  1 4.700000e-01    3.390000e+00
   C4h   X2h  1 4.700000e-01    3.390000e+00
   C4h   X1h  1 4.700000e-01    3.520000e+00
   C4h  C4vh  1 4.700000e-01    3.690000e+00
   C4h  C3vh  1 4.700000e-01    3.690000e+00
   C4h  C2vh  1 4.700000e-01    3.520000e+00
   C4h  C1vh  1 4.700000e-01    3.390000e+00
   C4h  X4vh  1 4.700000e-01    3.520000e+00
   C4h  X3vh  1 4.700000e-01    3.520000e+00
   C4h  X2vh  1 4.700000e-01    3.520000e+00
   C4h  X1vh  1 4.700000e-01    3.690000e+00
   C4h  C4eh  1 4.700000e-01    3.690000e+00
   C4h  C3eh  1 4.700000e-01    3.690000e+00
   C4h  C2eh  1 4.700000e-01    3.520000e+00
   C4h  C1eh  1 4.700000e-01    3.390000e+00
   C4h  X4eh  1 4.700000e-01    3.520000e+00
   C4h  X3eh  1 4.700000e-01    3.520000e+00
   C4h  X2eh  1 4.700000e-01    3.520000e+00
   C4h  X1eh  1 4.700000e-01    3.690000e+00
   C3h   C2h  1 4.700000e-01    3.520000e+00
   C3h   C1h  1 4.700000e-01    3.520000e+00
   C3h   X4h  1 4.700000e-01    3.390000e+00
   C3h   X3h  1 4.700000e-01    3.390000e+00
   C3h   X2h  1 4.700000e-01    3.390000e+00
   C3h   X1h  1 4.700000e-01    3.520000e+00
   C3h  C3vh  1 4.700000e-01    3.690000e+00
   C3h  C2vh  1 4.700000e-01    3.690000e+00
   C3h  C1vh  1 4.700000e-01    3.690000e+00
   C3h  X4vh  1 4.700000e-01    3.520000e+00
   C3h  X3vh  1 4.700000e-01    3.520000e+00
   C3h  X2vh  1 4.700000e-01    3.520000e+00
   C3h  X1vh  1 4.700000e-01    3.690000e+00
   C3h  C3eh  1 4.700000e-01    3.690000e+00
   C3h  C2eh  1 4.700000e-01    3.690000e+00
   C3h  C1eh  1 4.700000e-01    3.690000e+00
   C3h  X4eh  1 4.700000e-01    3.520000e+00
   C3h  X3eh  1 4.700000e-01    3.520000e+00
   C3h  X2eh  1 4.700000e-01    3.520000e+00
   C3h  X1eh  1 4.700000e-01    3.690000e+00
   C2h   C1h  1 4.700000e-01    3.690000e+00
   C2h   X4h  1 4.700000e-01    3.070000e+00
   C2h   X3h  1 4.700000e-01    3.390000e+00
   C2h   X2h  1 4.700000e-01    3.390000e+00
   C2h   X1h  1 4.700000e-01    3.390000e+00
   C2h  C2vh  1 4.700000e-01    3.690000e+00
   C2h  C1vh  1 4.700000e-01    3.880000e+00
   C2h  X4vh  1 4.700000e-01    3.240000e+00
   C2h  X3vh  1 4.700000e-01    3.520000e+00
   C2h  X2vh  1 4.700000e-01    3.520000e+00
   C2h  X1vh  1 4.700000e-01    3.520000e+00
   C2h  C2eh  1 4.700000e-01    3.690000e+00
   C2h  C1eh  1 4.700000e-01    3.880000e+00
   C2h  X4eh  1 4.700000e-01    3.240000e+00
   C2h  X3eh  1 4.700000e-01    3.520000e+00
   C2h  X2eh  1 4.700000e-01    3.520000e+00
   C2h  X1eh  1 4.700000e-01    3.520000e+00
   C1h   X4h  1 4.700000e-01    3.070000e+00
   C1h   X3h  1 4.700000e-01    3.390000e+00
   C1h   X2h  1 4.700000e-01    3.390000e+00
   C1h   X1h  1 4.700000e-01    3.390000e+00
   C1h  C1vh  1 4.700000e-01    3.690000e+00
   C1h  X4vh  1 4.700000e-01    3.240000e+00
   C1h  X3vh  1 4.700000e-01    3.520000e+00
   C1h  X2vh  1 4.700000e-01    3.520000e+00
   C1h  X1vh  1 4.700000e-01    3.520000e+00
   C1h  C1eh  1 4.700000e-01    3.690000e+00
   C1h  X4eh  1 4.700000e-01    3.240000e+00
   C1h  X3eh  1 4.700000e-01    3.520000e+00
   C1h  X2eh  1 4.700000e-01    3.520000e+00
   C1h  X1eh  1 4.700000e-01    3.520000e+00
   X4h   X3h  1 4.700000e-01    3.520000e+00
   X4h   X2h  1 4.700000e-01    3.520000e+00
   X4h   X1h  1 4.700000e-01    3.520000e+00
   X4h  X4vh  1 4.700000e-01    3.690000e+00
   X4h  X3vh  1 4.700000e-01    3.690000e+00
   X4h  X2vh  1 4.700000e-01    3.690000e+00
   X4h  X1vh  1 4.700000e-01    3.690000e+00
   X4h  X4eh  1 4.700000e-01    3.690000e+00
   X4h  X3eh  1 4.700000e-01    3.690000e+00
   X4h  X2eh  1 4.700000e-01    3.690000e+00
   X4h  X1eh  1 4.700000e-01    3.690000e+00
   X3h   X2h  1 4.700000e-01    3.690000e+00
   X3h   X1h  1 4.700000e-01    3.690000e+00
   X3h  X3vh  1 4.700000e-01    3.690000e+00
   X3h  X2vh  1 4.700000e-01    3.880000e+00
   X3h  X1vh  1 4.700000e-01    3.880000e+00
   X3h  X3eh  1 4.700000e-01    3.690000e+00
   X3h  X2eh  1 4.700000e-01    3.880000e+00
   X3h  X1eh  1 4.700000e-01    3.880000e+00
   X2h   X1h  1 4.700000e-01    3.690000e+00
   X2h  X2vh  1 4.700000e-01    3.880000e+00
   X2h  X1vh  1 4.700000e-01    3.880000e+00
   X2h  X2eh  1 4.700000e-01    3.880000e+00
   X2h  X1eh  1 4.700000e-01    3.880000e+00
   X1h  X1vh  1 4.700000e-01    4.060000e+00
   X1h  X1eh  1 4.700000e-01    4.060000e+00
  C6vh   C5h  1 4.700000e-01    3.690000e+00
  C6vh   C4h  1 4.700000e-01    3.690000e+00
  C6vh   C3h  1 4.700000e-01    3.520000e+00
  C6vh   C2h  1 4.700000e-01    3.390000e+00
  C6vh   C1h  1 4.700000e-01    3.240000e+00
  C6vh   X4h  1 4.700000e-01    3.690000e+00
  C6vh   X3h  1 4.700000e-01    3.690000e+00
  C6vh   X2h  1 4.700000e-01    3.690000e+00
  C6vh   X1h  1 4.700000e-01    3.690000e+00
  C6vh  C5vh  1 4.700000e-01    3.390000e+00
  C6vh  C4vh  1 4.700000e-01    3.390000e+00
  C6vh  C3vh  1 4.700000e-01    3.240000e+00
  C6vh  C2vh  1 4.700000e-01    3.070000e+00
  C6vh  C1vh  1 4.700000e-01    2.960000e+00
  C6vh  X4vh  1 4.700000e-01    3.390000e+00
  C6vh  X3vh  1 4.700000e-01    3.390000e+00
  C6vh  X2vh  1 4.700000e-01    3.390000e+00
  C6vh  X1vh  1 4.700000e-01    3.390000e+00
  C5vh   C4h  1 4.700000e-01    3.690000e+00
  C5vh   C3h  1 4.700000e-01    3.520000e+00
  C5vh   C2h  1 4.700000e-01    3.390000e+00
  C5vh   C1h  1 4.700000e-01    3.390000e+00
  C5vh   X4h  1 4.700000e-01    3.520000e+00
  C5vh   X3h  1 4.700000e-01    3.520000e+00
  C5vh   X2h  1 4.700000e-01    3.520000e+00
  C5vh   X1h  1 4.700000e-01    3.690000e+00
  C5vh  C4vh  1 4.700000e-01    3.390000e+00
  C5vh  C3vh  1 4.700000e-01    3.240000e+00
  C5vh  C2vh  1 4.700000e-01    3.070000e+00
  C5vh  C1vh  1 4.700000e-01    3.070000e+00
  C5vh  X4vh  1 4.700000e-01    3.240000e+00
  C5vh  X3vh  1 4.700000e-01    3.240000e+00
  C5vh  X2vh  1 4.700000e-01    3.240000e+00
  C5vh  X1vh  1 4.700000e-01    3.390000e+00
  C4vh   C3h  1 4.700000e-01    3.690000e+00
  C4vh   C2h  1 4.700000e-01    3.520000e+00
  C4vh   C1h  1 4.700000e-01    3.390000e+00
  C4vh   X4h  1 4.700000e-01    3.520000e+00
  C4vh   X3h  1 4.700000e-01    3.520000e+00
  C4vh   X2h  1 4.700000e-01    3.520000e+00
  C4vh   X1h  1 4.700000e-01    3.690000e+00
  C4vh  C3vh  1 4.700000e-01    3.390000e+00
  C4vh  C2vh  1 4.700000e-01    3.240000e+00
  C4vh  C1vh  1 4.700000e-01    3.070000e+00
  C4vh  X4vh  1 4.700000e-01    3.240000e+00
  C4vh  X3vh  1 4.700000e-01    3.240000e+00
  C4vh  X2vh  1 4.700000e-01    3.240000e+00
  C4vh  X1vh  1 4.700000e-01    3.390000e+00
  C3vh   C2h  1 4.700000e-01    3.690000e+00
  C3vh   C1h  1 4.700000e-01    3.690000e+00
  C3vh   X4h  1 4.700000e-01    3.520000e+00
  C3vh   X3h  1 4.700000e-01    3.520000e+00
  C3vh   X2h  1 4.700000e-01    3.520000e+00
  C3vh   X1h  1 4.700000e-01    3.690000e+00
  C3vh  C2vh  1 4.700000e-01    3.390000e+00
  C3vh  C1vh  1 4.700000e-01    3.390000e+00
  C3vh  X4vh  1 4.700000e-01    3.240000e+00
  C3vh  X3vh  1 4.700000e-01    3.240000e+00
  C3vh  X2vh  1 4.700000e-01    3.240000e+00
  C3vh  X1vh  1 4.700000e-01    3.390000e+00
  C2vh   C1h  1 4.700000e-01    3.880000e+00
  C2vh   X4h  1 4.700000e-01    3.240000e+00
  C2vh   X3h  1 4.700000e-01    3.520000e+00
  C2vh   X2h  1 4.700000e-01    3.520000e+00
  C2vh   X1h  1 4.700000e-01    3.520000e+00
  C2vh  C1vh  1 4.700000e-01    3.520000e+00
  C2vh  X4vh  1 4.700000e-01    2.960000e+00
  C2vh  X3vh  1 4.700000e-01    3.240000e+00
  C2vh  X2vh  1 4.700000e-01    3.240000e+00
  C2vh  X1vh  1 4.700000e-01    3.240000e+00
  C1vh   X4h  1 4.700000e-01    3.240000e+00
  C1vh   X3h  1 4.700000e-01    3.520000e+00
  C1vh   X2h  1 4.700000e-01    3.520000e+00
  C1vh   X1h  1 4.700000e-01    3.520000e+00
  C1vh  X4vh  1 4.700000e-01    2.960000e+00
  C1vh  X3vh  1 4.700000e-01    3.240000e+00
  C1vh  X2vh  1 4.700000e-01    3.240000e+00
  C1vh  X1vh  1 4.700000e-01    3.240000e+00
  X4vh   X3h  1 4.700000e-01    3.690000e+00
  X4vh   X2h  1 4.700000e-01    3.690000e+00
  X4vh   X1h  1 4.700000e-01    3.690000e+00
  X4vh  X3vh  1 4.700000e-01    3.390000e+00
  X4vh  X2vh  1 4.700000e-01    3.390000e+00
  X4vh  X1vh  1 4.700000e-01    3.390000e+00
  X3vh   X2h  1 4.700000e-01    3.880000e+00
  X3vh   X1h  1 4.700000e-01    3.880000e+00
  X3vh  X2vh  1 4.700000e-01    3.520000e+00
  X3vh  X1vh  1 4.700000e-01    3.520000e+00
  X2vh   X1h  1 4.700000e-01    3.880000e+00
  X2vh  X1vh  1 4.700000e-01    3.520000e+00
  C6eh   C5h  1 4.700000e-01    3.690000e+00
  C6eh   C4h  1 4.700000e-01    3.690000e+00
  C6eh   C3h  1 4.700000e-01    3.520000e+00
  C6eh   C2h  1 4.700000e-01    3.390000e+00
  C6eh   C1h  1 4.700000e-01    3.240000e+00
  C6eh   X4h  1 4.700000e-01    3.690000e+00
  C6eh   X3h  1 4.700000e-01    3.690000e+00
  C6eh   X2h  1 4.700000e-01    3.690000e+00
  C6eh   X1h  1 4.700000e-01    3.690000e+00
  C6eh  C5eh  1 4.700000e-01    3.390000e+00
  C6eh  C4eh  1 4.700000e-01    3.390000e+00
  C6eh  C3eh  1 4.700000e-01    3.240000e+00
  C6eh  C2eh  1 4.700000e-01    3.070000e+00
  C6eh  C1eh  1 4.700000e-01    2.960000e+00
  C6eh  X4eh  1 4.700000e-01    3.390000e+00
  C6eh  X3eh  1 4.700000e-01    3.390000e+00
  C6eh  X2eh  1 4.700000e-01    3.390000e+00
  C6eh  X1eh  1 4.700000e-01    3.390000e+00
  C5eh   C4h  1 4.700000e-01    3.690000e+00
  C5eh   C3h  1 4.700000e-01    3.520000e+00
  C5eh   C2h  1 4.700000e-01    3.390000e+00
  C5eh   C1h  1 4.700000e-01    3.390000e+00
  C5eh   X4h  1 4.700000e-01    3.520000e+00
  C5eh   X3h  1 4.700000e-01    3.520000e+00
  C5eh   X2h  1 4.700000e-01    3.520000e+00
  C5eh   X1h  1 4.700000e-01    3.690000e+00
  C5eh  C4eh  1 4.700000e-01    3.390000e+00
  C5eh  C3eh  1 4.700000e-01    3.240000e+00
  C5eh  C2eh  1 4.700000e-01    3.070000e+00
  C5eh  C1eh  1 4.700000e-01    3.070000e+00
  C5eh  X4eh  1 4.700000e-01    3.240000e+00
  C5eh  X3eh  1 4.700000e-01    3.240000e+00
  C5eh  X2eh  1 4.700000e-01    3.240000e+00
  C5eh  X1eh  1 4.700000e-01    3.390000e+00
  C4eh   C3h  1 4.700000e-01    3.690000e+00
  C4eh   C2h  1 4.700000e-01    3.520000e+00
  C4eh   C1h  1 4.700000e-01    3.390000e+00
  C4eh   X4h  1 4.700000e-01    3.520000e+00
  C4eh   X3h  1 4.700000e-01    3.520000e+00
  C4eh   X2h  1 4.700000e-01    3.520000e+00
  C4eh   X1h  1 4.700000e-01    3.690000e+00
  C4eh  C3eh  1 4.700000e-01    3.390000e+00
  C4eh  C2eh  1 4.700000e-01    3.240000e+00
  C4eh  C1eh  1 4.700000e-01    3.070000e+00
  C4eh  X4eh  1 4.700000e-01    3.240000e+00
  C4eh  X3eh  1 4.700000e-01    3.240000e+00
  C4eh  X2eh  1 4.700000e-01    3.240000e+00
  C4eh  X1eh  1 4.700000e-01    3.390000e+00
  C3eh   C2h  1 4.700000e-01    3.690000e+00
  C3eh   C1h  1 4.700000e-01    3.690000e+00
  C3eh   X4h  1 4.700000e-01    3.520000e+00
  C3eh   X3h  1 4.700000e-01    3.520000e+00
  C3eh   X2h  1 4.700000e-01    3.520000e+00
  C3eh   X1h  1 4.700000e-01    3.690000e+00
  C3eh  C2eh  1 4.700000e-01    3.390000e+00
  C3eh  C1eh  1 4.700000e-01    3.390000e+00
  C3eh  X4eh  1 4.700000e-01    3.240000e+00
  C3eh  X3eh  1 4.700000e-01    3.240000e+00
  C3eh  X2eh  1 4.700000e-01    3.240000e+00
  C3eh  X1eh  1 4.700000e-01    3.390000e+00
  C2eh   C1h  1 4.700000e-01    3.880000e+00
  C2eh   X4h  1 4.700000e-01    3.240000e+00
  C2eh   X3h  1 4.700000e-01    3.520000e+00
  C2eh   X2h  1 4.700000e-01    3.520000e+00
  C2eh   X1h  1 4.700000e-01    3.520000e+00
  C2eh  C1eh  1 4.700000e-01    3.520000e+00
  C2eh  X4eh  1 4.700000e-01    2.960000e+00
  C2eh  X3eh  1 4.700000e-01    3.240000e+00
  C2eh  X2eh  1 4.700000e-01    3.240000e+00
  C2eh  X1eh  1 4.700000e-01    3.240000e+00
  C1eh   X4h  1 4.700000e-01    3.240000e+00
  C1eh   X3h  1 4.700000e-01    3.520000e+00
  C1eh   X2h  1 4.700000e-01    3.520000e+00
  C1eh   X1h  1 4.700000e-01    3.520000e+00
  C1eh  X4eh  1 4.700000e-01    2.960000e+00
  C1eh  X3eh  1 4.700000e-01    3.240000e+00
  C1eh  X2eh  1 4.700000e-01    3.240000e+00
  C1eh  X1eh  1 4.700000e-01    3.240000e+00
  X4eh   X3h  1 4.700000e-01    3.690000e+00
  X4eh   X2h  1 4.700000e-01    3.690000e+00
  X4eh   X1h  1 4.700000e-01    3.690000e+00
  X4eh  X3eh  1 4.700000e-01    3.390000e+00
  X4eh  X2eh  1 4.700000e-01    3.390000e+00
  X4eh  X1eh  1 4.700000e-01    3.390000e+00
  X3eh   X2h  1 4.700000e-01    3.880000e+00
  X3eh   X1h  1 4.700000e-01    3.880000e+00
  X3eh  X2eh  1 4.700000e-01    3.520000e+00
  X3eh  X1eh  1 4.700000e-01    3.520000e+00
  X2eh   X1h  1 4.700000e-01    3.880000e+00
  X2eh  X1eh  1 4.700000e-01    3.520000e+00
   P6h   C6h  1 4.700000e-01    2.960000e+00
   P6h   C5h  1 4.700000e-01    2.790000e+00
   P6h   C4h  1 4.700000e-01    2.620000e+00
   P6h   C3h  1 4.700000e-01    2.440000e+00
   P6h   C2h  1 4.700000e-01    2.440000e+00
   P6h   C1h  1 5.200000e-01    2.120000e+00
   P6h   X4h  1 4.700000e-01    3.070000e+00
   P6h   X3h  1 4.700000e-01    3.070000e+00
   P6h   X2h  1 4.700000e-01    2.960000e+00
   P6h   X1h  1 4.700000e-01    2.790000e+00
   P6h  C6vh  1 4.700000e-01    3.070000e+00
   P6h  C5vh  1 4.700000e-01    2.960000e+00
   P6h  C4vh  1 4.700000e-01    2.790000e+00
   P6h  C3vh  1 4.700000e-01    2.620000e+00
   P6h  C2vh  1 4.700000e-01    2.620000e+00
   P6h  C1vh  1 4.850000e-01    2.240000e+00
   P6h  X4vh  1 4.700000e-01    3.240000e+00
   P6h  X3vh  1 4.700000e-01    3.240000e+00
   P6h  X2vh  1 4.700000e-01    3.070000e+00
   P6h  X1vh  1 4.700000e-01    2.960000e+00
   P6h  C6eh  1 4.700000e-01    3.070000e+00
   P6h  C5eh  1 4.700000e-01    2.960000e+00
   P6h  C4eh  1 4.700000e-01    2.790000e+00
   P6h  C3eh  1 4.700000e-01    2.620000e+00
   P6h  C2eh  1 4.700000e-01    2.620000e+00
   P6h  C1eh  1 4.850000e-01    2.240000e+00
   P6h  X4eh  1 4.700000e-01    3.240000e+00
   P6h  X3eh  1 4.700000e-01    3.240000e+00
   P6h  X2eh  1 4.700000e-01    3.070000e+00
   P6h  X1eh  1 4.700000e-01    2.960000e+00
   P5h   C6h  1 4.700000e-01    2.960000e+00
   P5h   C5h  1 4.700000e-01    2.960000e+00
   P5h   C4h  1 4.700000e-01    2.790000e+00
   P5h   C3h  1 4.700000e-01    2.620000e+00
   P5h   C2h  1 4.700000e-01    2.620000e+00
   P5h   C1h  1 4.700000e-01    2.440000e+00
   P5h   X4h  1 4.700000e-01    3.240000e+00
   P5h   X3h  1 4.700000e-01    3.070000e+00
   P5h   X2h  1 4.700000e-01    3.070000e+00
   P5h   X1h  1 4.700000e-01    2.790000e+00
   P5h  C6vh  1 4.700000e-01    3.070000e+00
   P5h  C5vh  1 4.700000e-01    3.070000e+00
   P5h  C4vh  1 4.700000e-01    2.960000e+00
   P5h  C3vh  1 4.700000e-01    2.790000e+00
   P5h  C2vh  1 4.700000e-01    2.790000e+00
   P5h  C1vh  1 4.700000e-01    2.620000e+00
   P5h  X4vh  1 4.700000e-01    3.390000e+00
   P5h  X3vh  1 4.700000e-01    3.240000e+00
   P5h  X2vh  1 4.700000e-01    3.240000e+00
   P5h  X1vh  1 4.700000e-01    2.960000e+00
   P5h  C6eh  1 4.700000e-01    3.070000e+00
   P5h  C5eh  1 4.700000e-01    3.070000e+00
   P5h  C4eh  1 4.700000e-01    2.960000e+00
   P5h  C3eh  1 4.700000e-01    2.790000e+00
   P5h  C2eh  1 4.700000e-01    2.790000e+00
   P5h  C1eh  1 4.700000e-01    2.620000e+00
   P5h  X4eh  1 4.700000e-01    3.390000e+00
   P5h  X3eh  1 4.700000e-01    3.240000e+00
   P5h  X2eh  1 4.700000e-01    3.240000e+00
   P5h  X1eh  1 4.700000e-01    2.960000e+00
   P4h   C6h  1 4.700000e-01    3.070000e+00
   P4h   C5h  1 4.700000e-01    2.960000e+00
   P4h   C4h  1 4.700000e-01    2.790000e+00
   P4h   C3h  1 4.700000e-01    2.620000e+00
   P4h   C2h  1 4.700000e-01    2.620000e+00
   P4h   C1h  1 4.700000e-01    2.440000e+00
   P4h   X4h  1 4.700000e-01    3.240000e+00
   P4h   X3h  1 4.700000e-01    3.070000e+00
   P4h   X2h  1 4.700000e-01    3.070000e+00
   P4h   X1h  1 4.700000e-01    2.960000e+00
   P4h  C6vh  1 4.700000e-01    3.240000e+00
   P4h  C5vh  1 4.700000e-01    3.070000e+00
   P4h  C4vh  1 4.700000e-01    2.960000e+00
   P4h  C3vh  1 4.700000e-01    2.790000e+00
   P4h  C2vh  1 4.700000e-01    2.790000e+00
   P4h  C1vh  1 4.700000e-01    2.620000e+00
   P4h  X4vh  1 4.700000e-01    3.390000e+00
   P4h  X3vh  1 4.700000e-01    3.240000e+00
   P4h  X2vh  1 4.700000e-01    3.240000e+00
   P4h  X1vh  1 4.700000e-01    3.070000e+00
   P4h  C6eh  1 4.700000e-01    3.240000e+00
   P4h  C5eh  1 4.700000e-01    3.070000e+00
   P4h  C4eh  1 4.700000e-01    2.960000e+00
   P4h  C3eh  1 4.700000e-01    2.790000e+00
   P4h  C2eh  1 4.700000e-01    2.790000e+00
   P4h  C1eh  1 4.700000e-01    2.620000e+00
   P4h  X4eh  1 4.700000e-01    3.390000e+00
   P4h  X3eh  1 4.700000e-01    3.240000e+00
   P4h  X2eh  1 4.700000e-01    3.240000e+00
   P4h  X1eh  1 4.700000e-01    3.070000e+00
   P3h   C6h  1 4.700000e-01    3.240000e+00
   P3h   C5h  1 4.700000e-01    3.070000e+00
   P3h   C4h  1 4.700000e-01    2.960000e+00
   P3h   C3h  1 4.700000e-01    2.620000e+00
   P3h   C2h  1 4.700000e-01    2.620000e+00
   P3h   C1h  1 4.700000e-01    2.440000e+00
   P3h   X4h  1 4.700000e-01    3.240000e+00
   P3h   X3h  1 4.700000e-01    3.240000e+00
   P3h   X2h  1 4.700000e-01    3.070000e+00
   P3h   X1h  1 4.700000e-01    2.960000e+00
   P3h  C6vh  1 4.700000e-01    3.390000e+00
   P3h  C5vh  1 4.700000e-01    3.240000e+00
   P3h  C4vh  1 4.700000e-01    3.070000e+00
   P3h  C3vh  1 4.700000e-01    2.790000e+00
   P3h  C2vh  1 4.700000e-01    2.790000e+00
   P3h  C1vh  1 4.700000e-01    2.620000e+00
   P3h  X4vh  1 4.700000e-01    3.390000e+00
   P3h  X3vh  1 4.700000e-01    3.390000e+00
   P3h  X2vh  1 4.700000e-01    3.240000e+00
   P3h  X1vh  1 4.700000e-01    3.070000e+00
   P3h  C6eh  1 4.700000e-01    3.390000e+00
   P3h  C5eh  1 4.700000e-01    3.240000e+00
   P3h  C4eh  1 4.700000e-01    3.070000e+00
   P3h  C3eh  1 4.700000e-01    2.790000e+00
   P3h  C2eh  1 4.700000e-01    2.790000e+00
   P3h  C1eh  1 4.700000e-01    2.620000e+00
   P3h  X4eh  1 4.700000e-01    3.390000e+00
   P3h  X3eh  1 4.700000e-01    3.390000e+00
   P3h  X2eh  1 4.700000e-01    3.240000e+00
   P3h  X1eh  1 4.700000e-01    3.070000e+00
   P2h   C6h  1 4.700000e-01    3.240000e+00
   P2h   C5h  1 4.700000e-01    3.070000e+00
   P2h   C4h  1 4.700000e-01    2.960000e+00
   P2h   C3h  1 4.700000e-01    2.790000e+00
   P2h   C2h  1 4.700000e-01    2.790000e+00
   P2h   C1h  1 4.700000e-01    2.620000e+00
   P2h   X4h  1 4.700000e-01    3.240000e+00
   P2h   X3h  1 4.700000e-01    3.240000e+00
   P2h   X2h  1 4.700000e-01    3.070000e+00
   P2h   X1h  1 4.700000e-01    2.960000e+00
   P2h  C6vh  1 4.700000e-01    3.390000e+00
   P2h  C5vh  1 4.700000e-01    3.240000e+00
   P2h  C4vh  1 4.700000e-01    3.070000e+00
   P2h  C3vh  1 4.700000e-01    2.960000e+00
   P2h  C2vh  1 4.700000e-01    2.960000e+00
   P2h  C1vh  1 4.700000e-01    2.790000e+00
   P2h  X4vh  1 4.700000e-01    3.390000e+00
   P2h  X3vh  1 4.700000e-01    3.390000e+00
   P2h  X2vh  1 4.700000e-01    3.240000e+00
   P2h  X1vh  1 4.700000e-01    3.070000e+00
   P2h  C6eh  1 4.700000e-01    3.390000e+00
   P2h  C5eh  1 4.700000e-01    3.240000e+00
   P2h  C4eh  1 4.700000e-01    3.070000e+00
   P2h  C3eh  1 4.700000e-01    2.960000e+00
   P2h  C2eh  1 4.700000e-01    2.960000e+00
   P2h  C1eh  1 4.700000e-01    2.790000e+00
   P2h  X4eh  1 4.700000e-01    3.390000e+00
   P2h  X3eh  1 4.700000e-01    3.390000e+00
   P2h  X2eh  1 4.700000e-01    3.240000e+00
   P2h  X1eh  1 4.700000e-01    3.070000e+00
   P1h   C6h  1 4.700000e-01    3.240000e+00
   P1h   C5h  1 4.700000e-01    3.070000e+00
   P1h   C4h  1 4.700000e-01    2.960000e+00
   P1h   C3h  1 4.700000e-01    2.790000e+00
   P1h   C2h  1 4.700000e-01    2.790000e+00
   P1h   C1h  1 4.700000e-01    2.620000e+00
   P1h   X4h  1 4.700000e-01    3.240000e+00
   P1h   X3h  1 4.700000e-01    3.240000e+00
   P1h   X2h  1 4.700000e-01    3.070000e+00
   P1h   X1h  1 4.700000e-01    2.960000e+00
   P1h  C6vh  1 4.700000e-01    3.390000e+00
   P1h  C5vh  1 4.700000e-01    3.240000e+00
   P1h  C4vh  1 4.700000e-01    3.070000e+00
   P1h  C3vh  1 4.700000e-01    2.960000e+00
   P1h  C2vh  1 4.700000e-01    2.960000e+00
   P1h  C1vh  1 4.700000e-01    2.790000e+00
   P1h  X4vh  1 4.700000e-01    3.390000e+00
   P1h  X3vh  1 4.700000e-01    3.390000e+00
   P1h  X2vh  1 4.700000e-01    3.240000e+00
   P1h  X1vh  1 4.700000e-01    3.070000e+00
   P1h  C6eh  1 4.700000e-01    3.390000e+00
   P1h  C5eh  1 4.700000e-01    3.240000e+00
   P1h  C4eh  1 4.700000e-01    3.070000e+00
   P1h  C3eh  1 4.700000e-01    2.960000e+00
   P1h  C2eh  1 4.700000e-01    2.960000e+00
   P1h  C1eh  1 4.700000e-01    2.790000e+00
   P1h  X4eh  1 4.700000e-01    3.390000e+00
   P1h  X3eh  1 4.700000e-01    3.390000e+00
   P1h  X2eh  1 4.700000e-01    3.240000e+00
   P1h  X1eh  1 4.700000e-01    3.070000e+00
   N6h   C6h  1 4.700000e-01    3.390000e+00
   N6h   C5h  1 4.700000e-01    3.240000e+00
   N6h   C4h  1 4.700000e-01    3.070000e+00
   N6h   C3h  1 4.700000e-01    2.960000e+00
   N6h   C2h  1 4.700000e-01    2.960000e+00
   N6h   C1h  1 4.700000e-01    2.790000e+00
   N6h   X4h  1 4.700000e-01    3.390000e+00
   N6h   X3h  1 4.700000e-01    3.240000e+00
   N6h   X2h  1 4.700000e-01    3.070000e+00
   N6h   X1h  1 4.700000e-01    2.960000e+00
   N6h  C6vh  1 4.700000e-01    3.520000e+00
   N6h  C5vh  1 4.700000e-01    3.390000e+00
   N6h  C4vh  1 4.700000e-01    3.240000e+00
   N6h  C3vh  1 4.700000e-01    3.070000e+00
   N6h  C2vh  1 4.700000e-01    3.070000e+00
   N6h  C1vh  1 4.700000e-01    2.960000e+00
   N6h  X4vh  1 4.700000e-01    3.520000e+00
   N6h  X3vh  1 4.700000e-01    3.390000e+00
   N6h  X2vh  1 4.700000e-01    3.240000e+00
   N6h  X1vh  1 4.700000e-01    3.070000e+00
   N6h  C6eh  1 4.700000e-01    3.520000e+00
   N6h  C5eh  1 4.700000e-01    3.390000e+00
   N6h  C4eh  1 4.700000e-01    3.240000e+00
   N6h  C3eh  1 4.700000e-01    3.070000e+00
   N6h  C2eh  1 4.700000e-01    3.070000e+00
   N6h  C1eh  1 4.700000e-01    2.960000e+00
   N6h  X4eh  1 4.700000e-01    3.520000e+00
   N6h  X3eh  1 4.700000e-01    3.390000e+00
   N6h  X2eh  1 4.700000e-01    3.240000e+00
   N6h  X1eh  1 4.700000e-01    3.070000e+00
   N5h   C6h  1 4.700000e-01    3.390000e+00
   N5h   C5h  1 4.700000e-01    3.240000e+00
   N5h   C4h  1 4.700000e-01    3.070000e+00
   N5h   C3h  1 4.700000e-01    3.070000e+00
   N5h   C2h  1 4.700000e-01    2.960000e+00
   N5h   C1h  1 4.700000e-01    2.790000e+00
   N5h   X4h  1 4.700000e-01    3.520000e+00
   N5h   X3h  1 4.700000e-01    3.390000e+00
   N5h   X2h  1 4.700000e-01    3.240000e+00
   N5h   X1h  1 4.700000e-01    3.070000e+00
   N5h  C6vh  1 4.700000e-01    3.520000e+00
   N5h  C5vh  1 4.700000e-01    3.390000e+00
   N5h  C4vh  1 4.700000e-01    3.240000e+00
   N5h  C3vh  1 4.700000e-01    3.240000e+00
   N5h  C2vh  1 4.700000e-01    3.070000e+00
   N5h  C1vh  1 4.700000e-01    2.960000e+00
   N5h  X4vh  1 4.700000e-01    3.690000e+00
   N5h  X3vh  1 4.700000e-01    3.520000e+00
   N5h  X2vh  1 4.700000e-01    3.390000e+00
   N5h  X1vh  1 4.700000e-01    3.240000e+00
   N5h  C6eh  1 4.700000e-01    3.520000e+00
   N5h  C5eh  1 4.700000e-01    3.390000e+00
   N5h  C4eh  1 4.700000e-01    3.240000e+00
   N5h  C3eh  1 4.700000e-01    3.240000e+00
   N5h  C2eh  1 4.700000e-01    3.070000e+00
   N5h  C1eh  1 4.700000e-01    2.960000e+00
   N5h  X4eh  1 4.700000e-01    3.690000e+00
   N5h  X3eh  1 4.700000e-01    3.520000e+00
   N5h  X2eh  1 4.700000e-01    3.390000e+00
   N5h  X1eh  1 4.700000e-01    3.240000e+00
   N4h   C6h  1 4.700000e-01    3.390000e+00
   N4h   C5h  1 4.700000e-01    3.240000e+00
   N4h   C4h  1 4.700000e-01    3.240000e+00
   N4h   C3h  1 4.700000e-01    3.070000e+00
   N4h   C2h  1 4.700000e-01    2.960000e+00
   N4h   C1h  1 4.700000e-01    2.790000e+00
   N4h   X4h  1 4.700000e-01    3.690000e+00
   N4h   X3h  1 4.700000e-01    3.520000e+00
   N4h   X2h  1 4.700000e-01    3.240000e+00
   N4h   X1h  1 4.700000e-01    3.070000e+00
   N4h  C6vh  1 4.700000e-01    3.520000e+00
   N4h  C5vh  1 4.700000e-01    3.390000e+00
   N4h  C4vh  1 4.700000e-01    3.390000e+00
   N4h  C3vh  1 4.700000e-01    3.240000e+00
   N4h  C2vh  1 4.700000e-01    3.070000e+00
   N4h  C1vh  1 4.700000e-01    2.960000e+00
   N4h  X4vh  1 4.700000e-01    3.880000e+00
   N4h  X3vh  1 4.700000e-01    3.690000e+00
   N4h  X2vh  1 4.700000e-01    3.390000e+00
   N4h  X1vh  1 4.700000e-01    3.240000e+00
   N4h  C6eh  1 4.700000e-01    3.520000e+00
   N4h  C5eh  1 4.700000e-01    3.390000e+00
   N4h  C4eh  1 4.700000e-01    3.390000e+00
   N4h  C3eh  1 4.700000e-01    3.240000e+00
   N4h  C2eh  1 4.700000e-01    3.070000e+00
   N4h  C1eh  1 4.700000e-01    2.960000e+00
   N4h  X4eh  1 4.700000e-01    3.880000e+00
   N4h  X3eh  1 4.700000e-01    3.690000e+00
   N4h  X2eh  1 4.700000e-01    3.390000e+00
   N4h  X1eh  1 4.700000e-01    3.240000e+00
   N3h   C6h  1 4.700000e-01    3.390000e+00
   N3h   C5h  1 4.700000e-01    3.240000e+00
   N3h   C4h  1 4.700000e-01    3.240000e+00
   N3h   C3h  1 4.700000e-01    3.070000e+00
   N3h   C2h  1 4.700000e-01    3.070000e+00
   N3h   C1h  1 4.700000e-01    2.960000e+00
   N3h   X4h  1 4.700000e-01    3.520000e+00
   N3h   X3h  1 4.700000e-01    3.390000e+00
   N3h   X2h  1 4.700000e-01    3.240000e+00
   N3h   X1h  1 4.700000e-01    3.240000e+00
   N3h  C6vh  1 4.700000e-01    3.520000e+00
   N3h  C5vh  1 4.700000e-01    3.390000e+00
   N3h  C4vh  1 4.700000e-01    3.390000e+00
   N3h  C3vh  1 4.700000e-01    3.240000e+00
   N3h  C2vh  1 4.700000e-01    3.240000e+00
   N3h  C1vh  1 4.700000e-01    3.070000e+00
   N3h  X4vh  1 4.700000e-01    3.690000e+00
   N3h  X3vh  1 4.700000e-01    3.520000e+00
   N3h  X2vh  1 4.700000e-01    3.390000e+00
   N3h  X1vh  1 4.700000e-01    3.390000e+00
   N3h  C6eh  1 4.700000e-01    3.520000e+00
   N3h  C5eh  1 4.700000e-01    3.390000e+00
   N3h  C4eh  1 4.700000e-01    3.390000e+00
   N3h  C3eh  1 4.700000e-01    3.240000e+00
   N3h  C2eh  1 4.700000e-01    3.240000e+00
   N3h  C1eh  1 4.700000e-01    3.070000e+00
   N3h  X4eh  1 4.700000e-01    3.690000e+00
   N3h  X3eh  1 4.700000e-01    3.520000e+00
   N3h  X2eh  1 4.700000e-01    3.390000e+00
   N3h  X1eh  1 4.700000e-01    3.390000e+00
   N2h   C6h  1 4.700000e-01    3.390000e+00
   N2h   C5h  1 4.700000e-01    3.240000e+00
   N2h   C4h  1 4.700000e-01    3.240000e+00
   N2h   C3h  1 4.700000e-01    3.240000e+00
   N2h   C2h  1 4.700000e-01    3.070000e+00
   N2h   C1h  1 4.700000e-01    2.960000e+00
   N2h   X4h  1 4.700000e-01    3.520000e+00
   N2h   X3h  1 4.700000e-01    3.390000e+00
   N2h   X2h  1 4.700000e-01    3.240000e+00
   N2h   X1h  1 4.700000e-01    3.240000e+00
   N2h  C6vh  1 4.700000e-01    3.520000e+00
   N2h  C5vh  1 4.700000e-01    3.390000e+00
   N2h  C4vh  1 4.700000e-01    3.390000e+00
   N2h  C3vh  1 4.700000e-01    3.390000e+00
   N2h  C2vh  1 4.700000e-01    3.240000e+00
   N2h  C1vh  1 4.700000e-01    3.070000e+00
   N2h  X4vh  1 4.700000e-01    3.690000e+00
   N2h  X3vh  1 4.700000e-01    3.520000e+00
   N2h  X2vh  1 4.700000e-01    3.390000e+00
   N2h  X1vh  1 4.700000e-01    3.390000e+00
   N2h  C6eh  1 4.700000e-01    3.520000e+00
   N2h  C5eh  1 4.700000e-01    3.390000e+00
   N2h  C4eh  1 4.700000e-01    3.390000e+00
   N2h  C3eh  1 4.700000e-01    3.390000e+00
   N2h  C2eh  1 4.700000e-01    3.240000e+00
   N2h  C1eh  1 4.700000e-01    3.070000e+00
   N2h  X4eh  1 4.700000e-01    3.690000e+00
   N2h  X3eh  1 4.700000e-01    3.520000e+00
   N2h  X2eh  1 4.700000e-01    3.390000e+00
   N2h  X1eh  1 4.700000e-01    3.390000e+00
   N1h   C6h  1 4.700000e-01    3.520000e+00
   N1h   C5h  1 4.700000e-01    3.390000e+00
   N1h   C4h  1 4.700000e-01    3.390000e+00
   N1h   C3h  1 4.700000e-01    3.240000e+00
   N1h   C2h  1 4.700000e-01    3.070000e+00
   N1h   C1h  1 4.700000e-01    2.960000e+00
   N1h   X4h  1 4.700000e-01    3.390000e+00
   N1h   X3h  1 4.700000e-01    3.390000e+00
   N1h   X2h  1 4.700000e-01    3.240000e+00
   N1h   X1h  1 4.700000e-01    3.240000e+00
   N1h  C6vh  1 4.700000e-01    3.690000e+00
   N1h  C5vh  1 4.700000e-01    3.520000e+00
   N1h  C4vh  1 4.700000e-01    3.520000e+00
   N1h  C3vh  1 4.700000e-01    3.390000e+00
   N1h  C2vh  1 4.700000e-01    3.240000e+00
   N1h  C1vh  1 4.700000e-01    3.070000e+00
   N1h  X4vh  1 4.700000e-01    3.520000e+00
   N1h  X3vh  1 4.700000e-01    3.520000e+00
   N1h  X2vh  1 4.700000e-01    3.390000e+00
   N1h  X1vh  1 4.700000e-01    3.390000e+00
   N1h  C6eh  1 4.700000e-01    3.690000e+00
   N1h  C5eh  1 4.700000e-01    3.520000e+00
   N1h  C4eh  1 4.700000e-01    3.520000e+00
   N1h  C3eh  1 4.700000e-01    3.390000e+00
   N1h  C2eh  1 4.700000e-01    3.240000e+00
   N1h  C1eh  1 4.700000e-01    3.070000e+00
   N1h  X4eh  1 4.700000e-01    3.520000e+00
   N1h  X3eh  1 4.700000e-01    3.520000e+00
   N1h  X2eh  1 4.700000e-01    3.390000e+00
   N1h  X1eh  1 4.700000e-01    3.390000e+00
  P6dh   C6h  1 4.700000e-01    2.960000e+00
  P6dh   C5h  1 4.700000e-01    2.790000e+00
  P6dh   C4h  1 4.700000e-01    2.620000e+00
  P6dh   C3h  1 4.700000e-01    2.440000e+00
  P6dh   C2h  1 4.700000e-01    2.440000e+00
  P6dh   C1h  1 5.200000e-01    2.120000e+00
  P6dh   X4h  1 4.700000e-01    3.070000e+00
  P6dh   X3h  1 4.700000e-01    3.070000e+00
  P6dh   X2h  1 4.700000e-01    2.960000e+00
  P6dh   X1h  1 4.700000e-01    2.790000e+00
  P5dh   C6h  1 4.700000e-01    2.960000e+00
  P5dh   C5h  1 4.700000e-01    2.960000e+00
  P5dh   C4h  1 4.700000e-01    2.790000e+00
  P5dh   C3h  1 4.700000e-01    2.620000e+00
  P5dh   C2h  1 4.700000e-01    2.620000e+00
  P5dh   C1h  1 4.700000e-01    2.440000e+00
  P5dh   X4h  1 4.700000e-01    3.240000e+00
  P5dh   X3h  1 4.700000e-01    3.070000e+00
  P5dh   X2h  1 4.700000e-01    3.070000e+00
  P5dh   X1h  1 4.700000e-01    2.790000e+00
  P4dh   C6h  1 4.700000e-01    3.070000e+00
  P4dh   C5h  1 4.700000e-01    2.960000e+00
  P4dh   C4h  1 4.700000e-01    2.790000e+00
  P4dh   C3h  1 4.700000e-01    2.620000e+00
  P4dh   C2h  1 4.700000e-01    2.620000e+00
  P4dh   C1h  1 4.700000e-01    2.440000e+00
  P4dh   X4h  1 4.700000e-01    3.240000e+00
  P4dh   X3h  1 4.700000e-01    3.070000e+00
  P4dh   X2h  1 4.700000e-01    3.070000e+00
  P4dh   X1h  1 4.700000e-01    2.960000e+00
  P3dh   C6h  1 4.700000e-01    3.240000e+00
  P3dh   C5h  1 4.700000e-01    3.070000e+00
  P3dh   C4h  1 4.700000e-01    2.960000e+00
  P3dh   C3h  1 4.700000e-01    2.620000e+00
  P3dh   C2h  1 4.700000e-01    2.620000e+00
  P3dh   C1h  1 4.700000e-01    2.440000e+00
  P3dh   X4h  1 4.700000e-01    3.240000e+00
  P3dh   X3h  1 4.700000e-01    3.240000e+00
  P3dh   X2h  1 4.700000e-01    3.070000e+00
  P3dh   X1h  1 4.700000e-01    2.960000e+00
  P2dh   C6h  1 4.700000e-01    3.240000e+00
  P2dh   C5h  1 4.700000e-01    3.070000e+00
  P2dh   C4h  1 4.700000e-01    2.960000e+00
  P2dh   C3h  1 4.700000e-01    2.790000e+00
  P2dh   C2h  1 4.700000e-01    2.790000e+00
  P2dh   C1h  1 4.700000e-01    2.620000e+00
  P2dh   X4h  1 4.700000e-01    3.240000e+00
  P2dh   X3h  1 4.700000e-01    3.240000e+00
  P2dh   X2h  1 4.700000e-01    3.070000e+00
  P2dh   X1h  1 4.700000e-01    2.960000e+00
  P1dh   C6h  1 4.700000e-01    3.240000e+00
  P1dh   C5h  1 4.700000e-01    3.070000e+00
  P1dh   C4h  1 4.700000e-01    2.960000e+00
  P1dh   C3h  1 4.700000e-01    2.790000e+00
  P1dh   C2h  1 4.700000e-01    2.790000e+00
  P1dh   C1h  1 4.700000e-01    2.620000e+00
  P1dh   X4h  1 4.700000e-01    3.240000e+00
  P1dh   X3h  1 4.700000e-01    3.240000e+00
  P1dh   X2h  1 4.700000e-01    3.070000e+00
  P1dh   X1h  1 4.700000e-01    2.960000e+00
  N6dh   C6h  1 4.700000e-01    3.390000e+00
  N6dh   C5h  1 4.700000e-01    3.240000e+00
  N6dh   C4h  1 4.700000e-01    3.070000e+00
  N6dh   C3h  1 4.700000e-01    2.960000e+00
  N6dh   C2h  1 4.700000e-01    2.960000e+00
  N6dh   C1h  1 4.700000e-01    2.790000e+00
  N6dh   X4h  1 4.700000e-01    3.390000e+00
  N6dh   X3h  1 4.700000e-01    3.240000e+00
  N6dh   X2h  1 4.700000e-01    3.070000e+00
  N6dh   X1h  1 4.700000e-01    2.960000e+00
  N5dh   C6h  1 4.700000e-01    3.390000e+00
  N5dh   C5h  1 4.700000e-01    3.240000e+00
  N5dh   C4h  1 4.700000e-01    3.070000e+00
  N5dh   C3h  1 4.700000e-01    3.070000e+00
  N5dh   C2h  1 4.700000e-01    2.960000e+00
  N5dh   C1h  1 4.700000e-01    2.790000e+00
  N5dh   X4h  1 4.700000e-01    3.520000e+00
  N5dh   X3h  1 4.700000e-01    3.390000e+00
  N5dh   X2h  1 4.700000e-01    3.240000e+00
  N5dh   X1h  1 4.700000e-01    3.070000e+00
  N4dh   C6h  1 4.700000e-01    3.390000e+00
  N4dh   C5h  1 4.700000e-01    3.240000e+00
  N4dh   C4h  1 4.700000e-01    3.240000e+00
  N4dh   C3h  1 4.700000e-01    3.070000e+00
  N4dh   C2h  1 4.700000e-01    2.960000e+00
  N4dh   C1h  1 4.700000e-01    2.790000e+00
  N4dh   X4h  1 4.700000e-01    3.690000e+00
  N4dh   X3h  1 4.700000e-01    3.520000e+00
  N4dh   X2h  1 4.700000e-01    3.240000e+00
  N4dh   X1h  1 4.700000e-01    3.070000e+00
  N3dh   C6h  1 4.700000e-01    3.390000e+00
  N3dh   C5h  1 4.700000e-01    3.240000e+00
  N3dh   C4h  1 4.700000e-01    3.240000e+00
  N3dh   C3h  1 4.700000e-01    3.070000e+00
  N3dh   C2h  1 4.700000e-01    3.070000e+00
  N3dh   C1h  1 4.700000e-01    2.960000e+00
  N3dh   X4h  1 4.700000e-01    3.520000e+00
  N3dh   X3h  1 4.700000e-01    3.390000e+00
  N3dh   X2h  1 4.700000e-01    3.240000e+00
  N3dh   X1h  1 4.700000e-01    3.240000e+00
  N2dh   C6h  1 4.700000e-01    3.390000e+00
  N2dh   C5h  1 4.700000e-01    3.240000e+00
  N2dh   C4h  1 4.700000e-01    3.240000e+00
  N2dh   C3h  1 4.700000e-01    3.240000e+00
  N2dh   C2h  1 4.700000e-01    3.070000e+00
  N2dh   C1h  1 4.700000e-01    2.960000e+00
  N2dh   X4h  1 4.700000e-01    3.520000e+00
  N2dh   X3h  1 4.700000e-01    3.390000e+00
  N2dh   X2h  1 4.700000e-01    3.240000e+00
  N2dh   X1h  1 4.700000e-01    3.240000e+00
  N1dh   C6h  1 4.700000e-01    3.520000e+00
  N1dh   C5h  1 4.700000e-01    3.390000e+00
  N1dh   C4h  1 4.700000e-01    3.390000e+00
  N1dh   C3h  1 4.700000e-01    3.240000e+00
  N1dh   C2h  1 4.700000e-01    3.070000e+00
  N1dh   C1h  1 4.700000e-01    2.960000e+00
  N1dh   X4h  1 4.700000e-01    3.390000e+00
  N1dh   X3h  1 4.700000e-01    3.390000e+00
  N1dh   X2h  1 4.700000e-01    3.240000e+00
  N1dh   X1h  1 4.700000e-01    3.240000e+00
  P6ah   C6h  1 4.700000e-01    2.960000e+00
  P6ah   C5h  1 4.700000e-01    2.790000e+00
  P6ah   C4h  1 4.700000e-01    2.620000e+00
  P6ah   C3h  1 4.700000e-01    2.440000e+00
  P6ah   C2h  1 4.700000e-01    2.440000e+00
  P6ah   C1h  1 5.200000e-01    2.120000e+00
  P6ah   X4h  1 4.700000e-01    3.070000e+00
  P6ah   X3h  1 4.700000e-01    3.070000e+00
  P6ah   X2h  1 4.700000e-01    2.960000e+00
  P6ah   X1h  1 4.700000e-01    2.790000e+00
  P5ah   C6h  1 4.700000e-01    2.960000e+00
  P5ah   C5h  1 4.700000e-01    2.960000e+00
  P5ah   C4h  1 4.700000e-01    2.790000e+00
  P5ah   C3h  1 4.700000e-01    2.620000e+00
  P5ah   C2h  1 4.700000e-01    2.620000e+00
  P5ah   C1h  1 4.700000e-01    2.440000e+00
  P5ah   X4h  1 4.700000e-01    3.240000e+00
  P5ah   X3h  1 4.700000e-01    3.070000e+00
  P5ah   X2h  1 4.700000e-01    3.070000e+00
  P5ah   X1h  1 4.700000e-01    2.790000e+00
  P4ah   C6h  1 4.700000e-01    3.070000e+00
  P4ah   C5h  1 4.700000e-01    2.960000e+00
  P4ah   C4h  1 4.700000e-01    2.790000e+00
  P4ah   C3h  1 4.700000e-01    2.620000e+00
  P4ah   C2h  1 4.700000e-01    2.620000e+00
  P4ah   C1h  1 4.700000e-01    2.440000e+00
  P4ah   X4h  1 4.700000e-01    3.240000e+00
  P4ah   X3h  1 4.700000e-01    3.070000e+00
  P4ah   X2h  1 4.700000e-01    3.070000e+00
  P4ah   X1h  1 4.700000e-01    2.960000e+00
  P3ah   C6h  1 4.700000e-01    3.240000e+00
  P3ah   C5h  1 4.700000e-01    3.070000e+00
  P3ah   C4h  1 4.700000e-01    2.960000e+00
  P3ah   C3h  1 4.700000e-01    2.620000e+00
  P3ah   C2h  1 4.700000e-01    2.620000e+00
  P3ah   C1h  1 4.700000e-01    2.440000e+00
  P3ah   X4h  1 4.700000e-01    3.240000e+00
  P3ah   X3h  1 4.700000e-01    3.240000e+00
  P3ah   X2h  1 4.700000e-01    3.070000e+00
  P3ah   X1h  1 4.700000e-01    2.960000e+00
  P2ah   C6h  1 4.700000e-01    3.240000e+00
  P2ah   C5h  1 4.700000e-01    3.070000e+00
  P2ah   C4h  1 4.700000e-01    2.960000e+00
  P2ah   C3h  1 4.700000e-01    2.790000e+00
  P2ah   C2h  1 4.700000e-01    2.790000e+00
  P2ah   C1h  1 4.700000e-01    2.620000e+00
  P2ah   X4h  1 4.700000e-01    3.240000e+00
  P2ah   X3h  1 4.700000e-01    3.240000e+00
  P2ah   X2h  1 4.700000e-01    3.070000e+00
  P2ah   X1h  1 4.700000e-01    2.960000e+00
  P1ah   C6h  1 4.700000e-01    3.240000e+00
  P1ah   C5h  1 4.700000e-01    3.070000e+00
  P1ah   C4h  1 4.700000e-01    2.960000e+00
  P1ah   C3h  1 4.700000e-01    2.790000e+00
  P1ah   C2h  1 4.700000e-01    2.790000e+00
  P1ah   C1h  1 4.700000e-01    2.620000e+00
  P1ah   X4h  1 4.700000e-01    3.240000e+00
  P1ah   X3h  1 4.700000e-01    3.240000e+00
  P1ah   X2h  1 4.700000e-01    3.070000e+00
  P1ah   X1h  1 4.700000e-01    2.960000e+00
  N6ah   C6h  1 4.700000e-01    3.390000e+00
  N6ah   C5h  1 4.700000e-01    3.240000e+00
  N6ah   C4h  1 4.700000e-01    3.070000e+00
  N6ah   C3h  1 4.700000e-01    2.960000e+00
  N6ah   C2h  1 4.700000e-01    2.960000e+00
  N6ah   C1h  1 4.700000e-01    2.790000e+00
  N6ah   X4h  1 4.700000e-01    3.390000e+00
  N6ah   X3h  1 4.700000e-01    3.240000e+00
  N6ah   X2h  1 4.700000e-01    3.070000e+00
  N6ah   X1h  1 4.700000e-01    2.960000e+00
  N5ah   C6h  1 4.700000e-01    3.390000e+00
  N5ah   C5h  1 4.700000e-01    3.240000e+00
  N5ah   C4h  1 4.700000e-01    3.070000e+00
  N5ah   C3h  1 4.700000e-01    3.070000e+00
  N5ah   C2h  1 4.700000e-01    2.960000e+00
  N5ah   C1h  1 4.700000e-01    2.790000e+00
  N5ah   X4h  1 4.700000e-01    3.520000e+00
  N5ah   X3h  1 4.700000e-01    3.390000e+00
  N5ah   X2h  1 4.700000e-01    3.240000e+00
  N5ah   X1h  1 4.700000e-01    3.070000e+00
  N4ah   C6h  1 4.700000e-01    3.390000e+00
  N4ah   C5h  1 4.700000e-01    3.240000e+00
  N4ah   C4h  1 4.700000e-01    3.240000e+00
  N4ah   C3h  1 4.700000e-01    3.070000e+00
  N4ah   C2h  1 4.700000e-01    2.960000e+00
  N4ah   C1h  1 4.700000e-01    2.790000e+00
  N4ah   X4h  1 4.700000e-01    3.690000e+00
  N4ah   X3h  1 4.700000e-01    3.520000e+00
  N4ah   X2h  1 4.700000e-01    3.240000e+00
  N4ah   X1h  1 4.700000e-01    3.070000e+00
  N3ah   C6h  1 4.700000e-01    3.390000e+00
  N3ah   C5h  1 4.700000e-01    3.240000e+00
  N3ah   C4h  1 4.700000e-01    3.240000e+00
  N3ah   C3h  1 4.700000e-01    3.070000e+00
  N3ah   C2h  1 4.700000e-01    3.070000e+00
  N3ah   C1h  1 4.700000e-01    2.960000e+00
  N3ah   X4h  1 4.700000e-01    3.520000e+00
  N3ah   X3h  1 4.700000e-01    3.390000e+00
  N3ah   X2h  1 4.700000e-01    3.240000e+00
  N3ah   X1h  1 4.700000e-01    3.240000e+00
  N2ah   C6h  1 4.700000e-01    3.390000e+00
  N2ah   C5h  1 4.700000e-01    3.240000e+00
  N2ah   C4h  1 4.700000e-01    3.240000e+00
  N2ah   C3h  1 4.700000e-01    3.240000e+00
  N2ah   C2h  1 4.700000e-01    3.070000e+00
  N2ah   C1h  1 4.700000e-01    2.960000e+00
  N2ah   X4h  1 4.700000e-01    3.520000e+00
  N2ah   X3h  1 4.700000e-01    3.390000e+00
  N2ah   X2h  1 4.700000e-01    3.240000e+00
  N2ah   X1h  1 4.700000e-01    3.240000e+00
  N1ah   C6h  1 4.700000e-01    3.520000e+00
  N1ah   C5h  1 4.700000e-01    3.390000e+00
  N1ah   C4h  1 4.700000e-01    3.390000e+00
  N1ah   C3h  1 4.700000e-01    3.240000e+00
  N1ah   C2h  1 4.700000e-01    3.070000e+00
  N1ah   C1h  1 4.700000e-01    2.960000e+00
  N1ah   X4h  1 4.700000e-01    3.390000e+00
  N1ah   X3h  1 4.700000e-01    3.390000e+00
  N1ah   X2h  1 4.700000e-01    3.240000e+00
  N1ah   X1h  1 4.700000e-01    3.240000e+00
   P6h   P6r  1 4.700000e-01    4.990000e+00
   P6h   P5r  1 4.700000e-01    4.730000e+00
   P6r   P5h  1 4.700000e-01    4.730000e+00
   P6h   P4r  1 4.700000e-01    4.480000e+00
   P6r   P4h  1 4.700000e-01    4.480000e+00
   P6h   P3r  1 4.700000e-01    4.250000e+00
   P6r   P3h  1 4.700000e-01    4.250000e+00
   P6h   P2r  1 4.700000e-01    4.250000e+00
   P6r   P2h  1 4.700000e-01    4.250000e+00
   P6h   P1r  1 4.700000e-01    4.060000e+00
   P6r   P1h  1 4.700000e-01    4.060000e+00
   P6h   N6r  1 4.700000e-01    3.880000e+00
   P6r   N6h  1 4.700000e-01    3.880000e+00
   P6h   N5r  1 4.700000e-01    3.520000e+00
   P6r   N5h  1 4.700000e-01    3.520000e+00
   P6h   N4r  1 4.700000e-01    3.390000e+00
   P6r   N4h  1 4.700000e-01    3.390000e+00
   P6h   N3r  1 4.700000e-01    3.240000e+00
   P6r   N3h  1 4.700000e-01    3.240000e+00
   P6h   N2r  1 4.700000e-01    3.070000e+00
   P6r   N2h  1 4.700000e-01    3.070000e+00
   P6h   N1r  1 4.700000e-01    2.960000e+00
   P6r   N1h  1 4.700000e-01    2.960000e+00
   P6h  P6dr  1 4.700000e-01    4.990000e+00
   P6r  P6dh  1 4.700000e-01    4.990000e+00
   P6h  P5dr  1 4.700000e-01    4.730000e+00
   P6r  P5dh  1 4.700000e-01    4.730000e+00
   P6h  P4dr  1 4.700000e-01    4.480000e+00
   P6r  P4dh  1 4.700000e-01    4.480000e+00
   P6h  P3dr  1 4.700000e-01    4.250000e+00
   P6r  P3dh  1 4.700000e-01    4.250000e+00
   P6h  P2dr  1 4.700000e-01    4.250000e+00
   P6r  P2dh  1 4.700000e-01    4.250000e+00
   P6h  P1dr  1 4.700000e-01    4.060000e+00
   P6r  P1dh  1 4.700000e-01    4.060000e+00
   P6h  N6dr  1 4.700000e-01    3.880000e+00
   P6r  N6dh  1 4.700000e-01    3.880000e+00
   P6h  N5dr  1 4.700000e-01    3.520000e+00
   P6r  N5dh  1 4.700000e-01    3.520000e+00
   P6h  N4dr  1 4.700000e-01    3.390000e+00
   P6r  N4dh  1 4.700000e-01    3.390000e+00
   P6h  N3dr  1 4.700000e-01    3.240000e+00
   P6r  N3dh  1 4.700000e-01    3.240000e+00
   P6h  N2dr  1 4.700000e-01    3.070000e+00
   P6r  N2dh  1 4.700000e-01    3.070000e+00
   P6h  N1dr  1 4.700000e-01    2.960000e+00
   P6r  N1dh  1 4.700000e-01    2.960000e+00
   P6h  P6ar  1 4.700000e-01    4.990000e+00
   P6r  P6ah  1 4.700000e-01    4.990000e+00
   P6h  P5ar  1 4.700000e-01    4.730000e+00
   P6r  P5ah  1 4.700000e-01    4.730000e+00
   P6h  P4ar  1 4.700000e-01    4.480000e+00
   P6r  P4ah  1 4.700000e-01    4.480000e+00
   P6h  P3ar  1 4.700000e-01    4.250000e+00
   P6r  P3ah  1 4.700000e-01    4.250000e+00
   P6h  P2ar  1 4.700000e-01    4.250000e+00
   P6r  P2ah  1 4.700000e-01    4.250000e+00
   P6h  P1ar  1 4.700000e-01    4.060000e+00
   P6r  P1ah  1 4.700000e-01    4.060000e+00
   P6h  N6ar  1 4.700000e-01    3.880000e+00
   P6r  N6ah  1 4.700000e-01    3.880000e+00
   P6h  N5ar  1 4.700000e-01    3.520000e+00
   P6r  N5ah  1 4.700000e-01    3.520000e+00
   P6h  N4ar  1 4.700000e-01    3.390000e+00
   P6r  N4ah  1 4.700000e-01    3.390000e+00
   P6h  N3ar  1 4.700000e-01    3.240000e+00
   P6r  N3ah  1 4.700000e-01    3.240000e+00
   P6h  N2ar  1 4.700000e-01    3.070000e+00
   P6r  N2ah  1 4.700000e-01    3.070000e+00
   P6h  N1ar  1 4.700000e-01    2.960000e+00
   P6r  N1ah  1 4.700000e-01    2.960000e+00
   P5h   P5r  1 4.700000e-01    4.480000e+00
   P5h   P4r  1 4.700000e-01    4.250000e+00
   P5r   P4h  1 4.700000e-01    4.250000e+00
   P5h   P3r  1 4.700000e-01    4.060000e+00
   P5r   P3h  1 4.700000e-01    4.060000e+00
   P5h   P2r  1 4.700000e-01    4.060000e+00
   P5r   P2h  1 4.700000e-01    4.060000e+00
   P5h   P1r  1 4.700000e-01    3.880000e+00
   P5r   P1h  1 4.700000e-01    3.880000e+00
   P5h   N6r  1 4.700000e-01    3.690000e+00
   P5r   N6h  1 4.700000e-01    3.690000e+00
   P5h   N5r  1 4.700000e-01    3.520000e+00
   P5r   N5h  1 4.700000e-01    3.520000e+00
   P5h   N4r  1 4.700000e-01    3.520000e+00
   P5r   N4h  1 4.700000e-01    3.520000e+00
   P5h   N3r  1 4.700000e-01    3.240000e+00
   P5r   N3h  1 4.700000e-01    3.240000e+00
   P5h   N2r  1 4.700000e-01    3.070000e+00
   P5r   N2h  1 4.700000e-01    3.070000e+00
   P5h   N1r  1 4.700000e-01    2.960000e+00
   P5r   N1h  1 4.700000e-01    2.960000e+00
   P5h  P5dr  1 4.700000e-01    4.480000e+00
   P5r  P5dh  1 4.700000e-01    4.480000e+00
   P5h  P4dr  1 4.700000e-01    4.250000e+00
   P5r  P4dh  1 4.700000e-01    4.250000e+00
   P5h  P3dr  1 4.700000e-01    4.060000e+00
   P5r  P3dh  1 4.700000e-01    4.060000e+00
   P5h  P2dr  1 4.700000e-01    4.060000e+00
   P5r  P2dh  1 4.700000e-01    4.060000e+00
   P5h  P1dr  1 4.700000e-01    3.880000e+00
   P5r  P1dh  1 4.700000e-01    3.880000e+00
   P5h  N6dr  1 4.700000e-01    3.690000e+00
   P5r  N6dh  1 4.700000e-01    3.690000e+00
   P5h  N5dr  1 4.700000e-01    3.520000e+00
   P5r  N5dh  1 4.700000e-01    3.520000e+00
   P5h  N4dr  1 4.700000e-01    3.520000e+00
   P5r  N4dh  1 4.700000e-01    3.520000e+00
   P5h  N3dr  1 4.700000e-01    3.240000e+00
   P5r  N3dh  1 4.700000e-01    3.240000e+00
   P5h  N2dr  1 4.700000e-01    3.070000e+00
   P5r  N2dh  1 4.700000e-01    3.070000e+00
   P5h  N1dr  1 4.700000e-01    2.960000e+00
   P5r  N1dh  1 4.700000e-01    2.960000e+00
   P5h  P5ar  1 4.700000e-01    4.480000e+00
   P5r  P5ah  1 4.700000e-01    4.480000e+00
   P5h  P4ar  1 4.700000e-01    4.250000e+00
   P5r  P4ah  1 4.700000e-01    4.250000e+00
   P5h  P3ar  1 4.700000e-01    4.060000e+00
   P5r  P3ah  1 4.700000e-01    4.060000e+00
   P5h  P2ar  1 4.700000e-01    4.060000e+00
   P5r  P2ah  1 4.700000e-01    4.060000e+00
   P5h  P1ar  1 4.700000e-01    3.880000e+00
   P5r  P1ah  1 4.700000e-01    3.880000e+00
   P5h  N6ar  1 4.700000e-01    3.690000e+00
   P5r  N6ah  1 4.700000e-01    3.690000e+00
   P5h  N5ar  1 4.700000e-01    3.520000e+00
   P5r  N5ah  1 4.700000e-01    3.520000e+00
   P5h  N4ar  1 4.700000e-01    3.520000e+00
   P5r  N4ah  1 4.700000e-01    3.520000e+00
   P5h  N3ar  1 4.700000e-01    3.240000e+00
   P5r  N3ah  1 4.700000e-01    3.240000e+00
   P5h  N2ar  1 4.700000e-01    3.070000e+00
   P5r  N2ah  1 4.700000e-01    3.070000e+00
   P5h  N1ar  1 4.700000e-01    2.960000e+00
   P5r  N1ah  1 4.700000e-01    2.960000e+00
   P4h   P4r  1 4.700000e-01    4.250000e+00
   P4h   P3r  1 4.700000e-01    4.060000e+00
   P4r   P3h  1 4.700000e-01    4.060000e+00
   P4h   P2r  1 4.700000e-01    4.060000e+00
   P4r   P2h  1 4.700000e-01    4.060000e+00
   P4h   P1r  1 4.700000e-01    3.880000e+00
   P4r   P1h  1 4.700000e-01    3.880000e+00
   P4h   N6r  1 4.700000e-01    3.690000e+00
   P4r   N6h  1 4.700000e-01    3.690000e+00
   P4h   N5r  1 4.700000e-01    3.520000e+00
   P4r   N5h  1 4.700000e-01    3.520000e+00
   P4h   N4r  1 4.700000e-01    3.520000e+00
   P4r   N4h  1 4.700000e-01    3.520000e+00
   P4h   N3r  1 4.700000e-01    3.390000e+00
   P4r   N3h  1 4.700000e-01    3.390000e+00
   P4h   N2r  1 4.700000e-01    3.240000e+00
   P4r   N2h  1 4.700000e-01    3.240000e+00
   P4h   N1r  1 4.700000e-01    3.070000e+00
   P4r   N1h  1 4.700000e-01    3.070000e+00
   P4h  P4dr  1 4.700000e-01    4.250000e+00
   P4r  P4dh  1 4.700000e-01    4.250000e+00
   P4h  P3dr  1 4.700000e-01    4.060000e+00
   P4r  P3dh  1 4.700000e-01    4.060000e+00
   P4h  P2dr  1 4.700000e-01    4.060000e+00
   P4r  P2dh  1 4.700000e-01    4.060000e+00
   P4h  P1dr  1 4.700000e-01    3.880000e+00
   P4r  P1dh  1 4.700000e-01    3.880000e+00
   P4h  N6dr  1 4.700000e-01    3.690000e+00
   P4r  N6dh  1 4.700000e-01    3.690000e+00
   P4h  N5dr  1 4.700000e-01    3.520000e+00
   P4r  N5dh  1 4.700000e-01    3.520000e+00
   P4h  N4dr  1 4.700000e-01    3.520000e+00
   P4r  N4dh  1 4.700000e-01    3.520000e+00
   P4h  N3dr  1 4.700000e-01    3.390000e+00
   P4r  N3dh  1 4.700000e-01    3.390000e+00
   P4h  N2dr  1 4.700000e-01    3.240000e+00
   P4r  N2dh  1 4.700000e-01    3.240000e+00
   P4h  N1dr  1 4.700000e-01    3.070000e+00
   P4r  N1dh  1 4.700000e-01    3.070000e+00
   P4h  P4ar  1 4.700000e-01    4.250000e+00
   P4r  P4ah  1 4.700000e-01    4.250000e+00
   P4h  P3ar  1 4.700000e-01    4.060000e+00
   P4r  P3ah  1 4.700000e-01    4.060000e+00
   P4h  P2ar  1 4.700000e-01    4.060000e+00
   P4r  P2ah  1 4.700000e-01    4.060000e+00
   P4h  P1ar  1 4.700000e-01    3.880000e+00
   P4r  P1ah  1 4.700000e-01    3.880000e+00
   P4h  N6ar  1 4.700000e-01    3.690000e+00
   P4r  N6ah  1 4.700000e-01    3.690000e+00
   P4h  N5ar  1 4.700000e-01    3.520000e+00
   P4r  N5ah  1 4.700000e-01    3.520000e+00
   P4h  N4ar  1 4.700000e-01    3.520000e+00
   P4r  N4ah  1 4.700000e-01    3.520000e+00
   P4h  N3ar  1 4.700000e-01    3.390000e+00
   P4r  N3ah  1 4.700000e-01    3.390000e+00
   P4h  N2ar  1 4.700000e-01    3.240000e+00
   P4r  N2ah  1 4.700000e-01    3.240000e+00
   P4h  N1ar  1 4.700000e-01    3.070000e+00
   P4r  N1ah  1 4.700000e-01    3.070000e+00
   P3h   P3r  1 4.700000e-01    4.060000e+00
   P3h   P2r  1 4.700000e-01    4.060000e+00
   P3r   P2h  1 4.700000e-01    4.060000e+00
   P3h   P1r  1 4.700000e-01    3.880000e+00
   P3r   P1h  1 4.700000e-01    3.880000e+00
   P3h   N6r  1 4.700000e-01    3.690000e+00
   P3r   N6h  1 4.700000e-01    3.690000e+00
   P3h   N5r  1 4.700000e-01    3.520000e+00
   P3r   N5h  1 4.700000e-01    3.520000e+00
   P3h   N4r  1 4.700000e-01    3.520000e+00
   P3r   N4h  1 4.700000e-01    3.520000e+00
   P3h   N3r  1 4.700000e-01    3.390000e+00
   P3r   N3h  1 4.700000e-01    3.390000e+00
   P3h   N2r  1 4.700000e-01    3.390000e+00
   P3r   N2h  1 4.700000e-01    3.390000e+00
   P3h   N1r  1 4.700000e-01    3.240000e+00
   P3r   N1h  1 4.700000e-01    3.240000e+00
   P3h  P3dr  1 4.700000e-01    4.060000e+00
   P3r  P3dh  1 4.700000e-01    4.060000e+00
   P3h  P2dr  1 4.700000e-01    4.060000e+00
   P3r  P2dh  1 4.700000e-01    4.060000e+00
   P3h  P1dr  1 4.700000e-01    3.880000e+00
   P3r  P1dh  1 4.700000e-01    3.880000e+00
   P3h  N6dr  1 4.700000e-01    3.690000e+00
   P3r  N6dh  1 4.700000e-01    3.690000e+00
   P3h  N5dr  1 4.700000e-01    3.520000e+00
   P3r  N5dh  1 4.700000e-01    3.520000e+00
   P3h  N4dr  1 4.700000e-01    3.520000e+00
   P3r  N4dh  1 4.700000e-01    3.520000e+00
   P3h  N3dr  1 4.700000e-01    3.390000e+00
   P3r  N3dh  1 4.700000e-01    3.390000e+00
   P3h  N2dr  1 4.700000e-01    3.390000e+00
   P3r  N2dh  1 4.700000e-01    3.390000e+00
   P3h  N1dr  1 4.700000e-01    3.240000e+00
   P3r  N1dh  1 4.700000e-01    3.240000e+00
   P3h  P3ar  1 4.700000e-01    4.060000e+00
   P3r  P3ah  1 4.700000e-01    4.060000e+00
   P3h  P2ar  1 4.700000e-01    4.060000e+00
   P3r  P2ah  1 4.700000e-01    4.060000e+00
   P3h  P1ar  1 4.700000e-01    3.880000e+00
   P3r  P1ah  1 4.700000e-01    3.880000e+00
   P3h  N6ar  1 4.700000e-01    3.690000e+00
   P3r  N6ah  1 4.700000e-01    3.690000e+00
   P3h  N5ar  1 4.700000e-01    3.520000e+00
   P3r  N5ah  1 4.700000e-01    3.520000e+00
   P3h  N4ar  1 4.700000e-01    3.520000e+00
   P3r  N4ah  1 4.700000e-01    3.520000e+00
   P3h  N3ar  1 4.700000e-01    3.390000e+00
   P3r  N3ah  1 4.700000e-01    3.390000e+00
   P3h  N2ar  1 4.700000e-01    3.390000e+00
   P3r  N2ah  1 4.700000e-01    3.390000e+00
   P3h  N1ar  1 4.700000e-01    3.240000e+00
   P3r  N1ah  1 4.700000e-01    3.240000e+00
   P2h   P2r  1 4.700000e-01    4.060000e+00
   P2h   P1r  1 4.700000e-01    3.880000e+00
   P2r   P1h  1 4.700000e-01    3.880000e+00
   P2h   N6r  1 4.700000e-01    3.880000e+00
   P2r   N6h  1 4.700000e-01    3.880000e+00
   P2h   N5r  1 4.700000e-01    3.690000e+00
   P2r   N5h  1 4.700000e-01    3.690000e+00
   P2h   N4r  1 4.700000e-01    3.520000e+00
   P2r   N4h  1 4.700000e-01    3.520000e+00
   P2h   N3r  1 4.700000e-01    3.390000e+00
   P2r   N3h  1 4.700000e-01    3.390000e+00
   P2h   N2r  1 4.700000e-01    3.390000e+00
   P2r   N2h  1 4.700000e-01    3.390000e+00
   P2h   N1r  1 4.700000e-01    3.390000e+00
   P2r   N1h  1 4.700000e-01    3.390000e+00
   P2h  P2dr  1 4.700000e-01    4.060000e+00
   P2r  P2dh  1 4.700000e-01    4.060000e+00
   P2h  P1dr  1 4.700000e-01    3.880000e+00
   P2r  P1dh  1 4.700000e-01    3.880000e+00
   P2h  N6dr  1 4.700000e-01    3.880000e+00
   P2r  N6dh  1 4.700000e-01    3.880000e+00
   P2h  N5dr  1 4.700000e-01    3.690000e+00
   P2r  N5dh  1 4.700000e-01    3.690000e+00
   P2h  N4dr  1 4.700000e-01    3.520000e+00
   P2r  N4dh  1 4.700000e-01    3.520000e+00
   P2h  N3dr  1 4.700000e-01    3.390000e+00
   P2r  N3dh  1 4.700000e-01    3.390000e+00
   P2h  N2dr  1 4.700000e-01    3.390000e+00
   P2r  N2dh  1 4.700000e-01    3.390000e+00
   P2h  N1dr  1 4.700000e-01    3.390000e+00
   P2r  N1dh  1 4.700000e-01    3.390000e+00
   P2h  P2ar  1 4.700000e-01    4.060000e+00
   P2r  P2ah  1 4.700000e-01    4.060000e+00
   P2h  P1ar  1 4.700000e-01    3.880000e+00
   P2r  P1ah  1 4.700000e-01    3.880000e+00
   P2h  N6ar  1 4.700000e-01    3.880000e+00
   P2r  N6ah  1 4.700000e-01    3.880000e+00
   P2h  N5ar  1 4.700000e-01    3.690000e+00
   P2r  N5ah  1 4.700000e-01    3.690000e+00
   P2h  N4ar  1 4.700000e-01    3.520000e+00
   P2r  N4ah  1 4.700000e-01    3.520000e+00
   P2h  N3ar  1 4.700000e-01    3.390000e+00
   P2r  N3ah  1 4.700000e-01    3.390000e+00
   P2h  N2ar  1 4.700000e-01    3.390000e+00
   P2r  N2ah  1 4.700000e-01    3.390000e+00
   P2h  N1ar  1 4.700000e-01    3.390000e+00
   P2r  N1ah  1 4.700000e-01    3.390000e+00
   P1h   P1r  1 4.700000e-01    3.880000e+00
   P1h   N6r  1 4.700000e-01    3.880000e+00
   P1r   N6h  1 4.700000e-01    3.880000e+00
   P1h   N5r  1 4.700000e-01    3.690000e+00
   P1r   N5h  1 4.700000e-01    3.690000e+00
   P1h   N4r  1 4.700000e-01    3.690000e+00
   P1r   N4h  1 4.700000e-01    3.690000e+00
   P1h   N3r  1 4.700000e-01    3.390000e+00
   P1r   N3h  1 4.700000e-01    3.390000e+00
   P1h   N2r  1 4.700000e-01    3.390000e+00
   P1r   N2h  1 4.700000e-01    3.390000e+00
   P1h   N1r  1 4.700000e-01    3.390000e+00
   P1r   N1h  1 4.700000e-01    3.390000e+00
   P1h  P1dr  1 4.700000e-01    3.880000e+00
   P1r  P1dh  1 4.700000e-01    3.880000e+00
   P1h  N6dr  1 4.700000e-01    3.880000e+00
   P1r  N6dh  1 4.700000e-01    3.880000e+00
   P1h  N5dr  1 4.700000e-01    3.690000e+00
   P1r  N5dh  1 4.700000e-01    3.690000e+00
   P1h  N4dr  1 4.700000e-01    3.690000e+00
   P1r  N4dh  1 4.700000e-01    3.690000e+00
   P1h  N3dr  1 4.700000e-01    3.390000e+00
   P1r  N3dh  1 4.700000e-01    3.390000e+00
   P1h  N2dr  1 4.700000e-01    3.390000e+00
   P1r  N2dh  1 4.700000e-01    3.390000e+00
   P1h  N1dr  1 4.700000e-01    3.390000e+00
   P1r  N1dh  1 4.700000e-01    3.390000e+00
   P1h  P1ar  1 4.700000e-01    3.880000e+00
   P1r  P1ah  1 4.700000e-01    3.880000e+00
   P1h  N6ar  1 4.700000e-01    3.880000e+00
   P1r  N6ah  1 4.700000e-01    3.880000e+00
   P1h  N5ar  1 4.700000e-01    3.690000e+00
   P1r  N5ah  1 4.700000e-01    3.690000e+00
   P1h  N4ar  1 4.700000e-01    3.690000e+00
   P1r  N4ah  1 4.700000e-01    3.690000e+00
   P1h  N3ar  1 4.700000e-01    3.390000e+00
   P1r  N3ah  1 4.700000e-01    3.390000e+00
   P1h  N2ar  1 4.700000e-01    3.390000e+00
   P1r  N2ah  1 4.700000e-01    3.390000e+00
   P1h  N1ar  1 4.700000e-01    3.390000e+00
   P1r  N1ah  1 4.700000e-01    3.390000e+00
   N6h   N6r  1 4.700000e-01    3.880000e+00
   N6h   N5r  1 4.700000e-01    3.880000e+00
   N6r   N5h  1 4.700000e-01    3.880000e+00
   N6h   N4r  1 4.700000e-01    3.880000e+00
   N6r   N4h  1 4.700000e-01    3.880000e+00
   N6h   N3r  1 4.700000e-01    3.520000e+00
   N6r   N3h  1 4.700000e-01    3.520000e+00
   N6h   N2r  1 4.700000e-01    3.390000e+00
   N6r   N2h  1 4.700000e-01    3.390000e+00
   N6h   N1r  1 4.700000e-01    3.390000e+00
   N6r   N1h  1 4.700000e-01    3.390000e+00
   N6h  N6dr  1 4.700000e-01    3.880000e+00
   N6r  N6dh  1 4.700000e-01    3.880000e+00
   N6h  N5dr  1 4.700000e-01    3.880000e+00
   N6r  N5dh  1 4.700000e-01    3.880000e+00
   N6h  N4dr  1 4.700000e-01    3.880000e+00
   N6r  N4dh  1 4.700000e-01    3.880000e+00
   N6h  N3dr  1 4.700000e-01    3.520000e+00
   N6r  N3dh  1 4.700000e-01    3.520000e+00
   N6h  N2dr  1 4.700000e-01    3.390000e+00
   N6r  N2dh  1 4.700000e-01    3.390000e+00
   N6h  N1dr  1 4.700000e-01    3.390000e+00
   N6r  N1dh  1 4.700000e-01    3.390000e+00
   N6h  N6ar  1 4.700000e-01    3.880000e+00
   N6r  N6ah  1 4.700000e-01    3.880000e+00
   N6h  N5ar  1 4.700000e-01    3.880000e+00
   N6r  N5ah  1 4.700000e-01    3.880000e+00
   N6h  N4ar  1 4.700000e-01    3.880000e+00
   N6r  N4ah  1 4.700000e-01    3.880000e+00
   N6h  N3ar  1 4.700000e-01    3.520000e+00
   N6r  N3ah  1 4.700000e-01    3.520000e+00
   N6h  N2ar  1 4.700000e-01    3.390000e+00
   N6r  N2ah  1 4.700000e-01    3.390000e+00
   N6h  N1ar  1 4.700000e-01    3.390000e+00
   N6r  N1ah  1 4.700000e-01    3.390000e+00
   N5h   N5r  1 4.700000e-01    3.690000e+00
   N5h   N4r  1 4.700000e-01    3.690000e+00
   N5r   N4h  1 4.700000e-01    3.690000e+00
   N5h   N3r  1 4.700000e-01    3.520000e+00
   N5r   N3h  1 4.700000e-01    3.520000e+00
   N5h   N2r  1 4.700000e-01    3.520000e+00
   N5r   N2h  1 4.700000e-01    3.520000e+00
   N5h   N1r  1 4.700000e-01    3.390000e+00
   N5r   N1h  1 4.700000e-01    3.390000e+00
   N5h  N5dr  1 4.700000e-01    3.690000e+00
   N5r  N5dh  1 4.700000e-01    3.690000e+00
   N5h  N4dr  1 4.700000e-01    3.690000e+00
   N5r  N4dh  1 4.700000e-01    3.690000e+00
   N5h  N3dr  1 4.700000e-01    3.520000e+00
   N5r  N3dh  1 4.700000e-01    3.520000e+00
   N5h  N2dr  1 4.700000e-01    3.520000e+00
   N5r  N2dh  1 4.700000e-01    3.520000e+00
   N5h  N1dr  1 4.700000e-01    3.390000e+00
   N5r  N1dh  1 4.700000e-01    3.390000e+00
   N5h  N5ar  1 4.700000e-01    3.690000e+00
   N5r  N5ah  1 4.700000e-01    3.690000e+00
   N5h  N4ar  1 4.700000e-01    3.690000e+00
   N5r  N4ah  1 4.700000e-01    3.690000e+00
   N5h  N3ar  1 4.700000e-01    3.520000e+00
   N5r  N3ah  1 4.700000e-01    3.520000e+00
   N5h  N2ar  1 4.700000e-01    3.520000e+00
   N5r  N2ah  1 4.700000e-01    3.520000e+00
   N5h  N1ar  1 4.700000e-01    3.390000e+00
   N5r  N1ah  1 4.700000e-01    3.390000e+00
   N4h   N4r  1 4.700000e-01    3.690000e+00
   N4h   N3r  1 4.700000e-01    3.520000e+00
   N4r   N3h  1 4.700000e-01    3.520000e+00
   N4h   N2r  1 4.700000e-01    3.520000e+00
   N4r   N2h  1 4.700000e-01    3.520000e+00
   N4h   N1r  1 4.700000e-01    3.390000e+00
   N4r   N1h  1 4.700000e-01    3.390000e+00
   N4h  N4dr  1 4.700000e-01    3.690000e+00
   N4r  N4dh  1 4.700000e-01    3.690000e+00
   N4h  N3dr  1 4.700000e-01    3.520000e+00
   N4r  N3dh  1 4.700000e-01    3.520000e+00
   N4h  N2dr  1 4.700000e-01    3.520000e+00
   N4r  N2dh  1 4.700000e-01    3.520000e+00
   N4h  N1dr  1 4.700000e-01    3.390000e+00
   N4r  N1dh  1 4.700000e-01    3.390000e+00
   N4h  N4ar  1 4.700000e-01    3.690000e+00
   N4r  N4ah  1 4.700000e-01    3.690000e+00
   N4h  N3ar  1 4.700000e-01    3.520000e+00
   N4r  N3ah  1 4.700000e-01    3.520000e+00
   N4h  N2ar  1 4.700000e-01    3.520000e+00
   N4r  N2ah  1 4.700000e-01    3.520000e+00
   N4h  N1ar  1 4.700000e-01    3.390000e+00
   N4r  N1ah  1 4.700000e-01    3.390000e+00
   N3h   N3r  1 4.700000e-01    3.520000e+00
   N3h   N2r  1 4.700000e-01    3.520000e+00
   N3r   N2h  1 4.700000e-01    3.520000e+00
   N3h   N1r  1 4.700000e-01    3.390000e+00
   N3r   N1h  1 4.700000e-01    3.390000e+00
   N3h  N3dr  1 4.700000e-01    3.520000e+00
   N3r  N3dh  1 4.700000e-01    3.520000e+00
   N3h  N2dr  1 4.700000e-01    3.520000e+00
   N3r  N2dh  1 4.700000e-01    3.520000e+00
   N3h  N1dr  1 4.700000e-01    3.390000e+00
   N3r  N1dh  1 4.700000e-01    3.390000e+00
   N3h  N3ar  1 4.700000e-01    3.520000e+00
   N3r  N3ah  1 4.700000e-01    3.520000e+00
   N3h  N2ar  1 4.700000e-01    3.520000e+00
   N3r  N2ah  1 4.700000e-01    3.520000e+00
   N3h  N1ar  1 4.700000e-01    3.390000e+00
   N3r  N1ah  1 4.700000e-01    3.390000e+00
   N2h   N2r  1 4.700000e-01    3.520000e+00
   N2h   N1r  1 4.700000e-01    3.390000e+00
   N2r   N1h  1 4.700000e-01    3.390000e+00
   N2h  N2dr  1 4.700000e-01    3.520000e+00
   N2r  N2dh  1 4.700000e-01    3.520000e+00
   N2h  N1dr  1 4.700000e-01    3.390000e+00
   N2r  N1dh  1 4.700000e-01    3.390000e+00
   N2h  N2ar  1 4.700000e-01    3.520000e+00
   N2r  N2ah  1 4.700000e-01    3.520000e+00
   N2h  N1ar  1 4.700000e-01    3.390000e+00
   N2r  N1ah  1 4.700000e-01    3.390000e+00
   N1h   N1r  1 4.700000e-01    3.520000e+00
   N1h  N1dr  1 4.700000e-01    3.520000e+00
   N1r  N1dh  1 4.700000e-01    3.520000e+00
   N1h  N1ar  1 4.700000e-01    3.520000e+00
   N1r  N1ah  1 4.700000e-01    3.520000e+00
  P6dh   P5r  1 4.700000e-01    4.730000e+00
  P6dr   P5h  1 4.700000e-01    4.730000e+00
  P6dh   P4r  1 4.700000e-01    4.480000e+00
  P6dr   P4h  1 4.700000e-01    4.480000e+00
  P6dh   P3r  1 4.700000e-01    4.250000e+00
  P6dr   P3h  1 4.700000e-01    4.250000e+00
  P6dh   P2r  1 4.700000e-01    4.250000e+00
  P6dr   P2h  1 4.700000e-01    4.250000e+00
  P6dh   P1r  1 4.700000e-01    4.060000e+00
  P6dr   P1h  1 4.700000e-01    4.060000e+00
  P6dh   N6r  1 4.700000e-01    3.880000e+00
  P6dr   N6h  1 4.700000e-01    3.880000e+00
  P6dh   N5r  1 4.700000e-01    3.520000e+00
  P6dr   N5h  1 4.700000e-01    3.520000e+00
  P6dh   N4r  1 4.700000e-01    3.390000e+00
  P6dr   N4h  1 4.700000e-01    3.390000e+00
  P6dh   N3r  1 4.700000e-01    3.240000e+00
  P6dr   N3h  1 4.700000e-01    3.240000e+00
  P6dh   N2r  1 4.700000e-01    3.070000e+00
  P6dr   N2h  1 4.700000e-01    3.070000e+00
  P6dh   N1r  1 4.700000e-01    2.960000e+00
  P6dr   N1h  1 4.700000e-01    2.960000e+00
  P5dh   P4r  1 4.700000e-01    4.250000e+00
  P5dr   P4h  1 4.700000e-01    4.250000e+00
  P5dh   P3r  1 4.700000e-01    4.060000e+00
  P5dr   P3h  1 4.700000e-01    4.060000e+00
  P5dh   P2r  1 4.700000e-01    4.060000e+00
  P5dr   P2h  1 4.700000e-01    4.060000e+00
  P5dh   P1r  1 4.700000e-01    3.880000e+00
  P5dr   P1h  1 4.700000e-01    3.880000e+00
  P5dh   N6r  1 4.700000e-01    3.690000e+00
  P5dr   N6h  1 4.700000e-01    3.690000e+00
  P5dh   N5r  1 4.700000e-01    3.520000e+00
  P5dr   N5h  1 4.700000e-01    3.520000e+00
  P5dh   N4r  1 4.700000e-01    3.520000e+00
  P5dr   N4h  1 4.700000e-01    3.520000e+00
  P5dh   N3r  1 4.700000e-01    3.240000e+00
  P5dr   N3h  1 4.700000e-01    3.240000e+00
  P5dh   N2r  1 4.700000e-01    3.070000e+00
  P5dr   N2h  1 4.700000e-01    3.070000e+00
  P5dh   N1r  1 4.700000e-01    2.960000e+00
  P5dr   N1h  1 4.700000e-01    2.960000e+00
  P4dh   P3r  1 4.700000e-01    4.060000e+00
  P4dr   P3h  1 4.700000e-01    4.060000e+00
  P4dh   P2r  1 4.700000e-01    4.060000e+00
  P4dr   P2h  1 4.700000e-01    4.060000e+00
  P4dh   P1r  1 4.700000e-01    3.880000e+00
  P4dr   P1h  1 4.700000e-01    3.880000e+00
  P4dh   N6r  1 4.700000e-01    3.690000e+00
  P4dr   N6h  1 4.700000e-01    3.690000e+00
  P4dh   N5r  1 4.700000e-01    3.520000e+00
  P4dr   N5h  1 4.700000e-01    3.520000e+00
  P4dh   N4r  1 4.700000e-01    3.520000e+00
  P4dr   N4h  1 4.700000e-01    3.520000e+00
  P4dh   N3r  1 4.700000e-01    3.390000e+00
  P4dr   N3h  1 4.700000e-01    3.390000e+00
  P4dh   N2r  1 4.700000e-01    3.240000e+00
  P4dr   N2h  1 4.700000e-01    3.240000e+00
  P4dh   N1r  1 4.700000e-01    3.070000e+00
  P4dr   N1h  1 4.700000e-01    3.070000e+00
  P3dh   P2r  1 4.700000e-01    4.060000e+00
  P3dr   P2h  1 4.700000e-01    4.060000e+00
  P3dh   P1r  1 4.700000e-01    3.880000e+00
  P3dr   P1h  1 4.700000e-01    3.880000e+00
  P3dh   N6r  1 4.700000e-01    3.690000e+00
  P3dr   N6h  1 4.700000e-01    3.690000e+00
  P3dh   N5r  1 4.700000e-01    3.520000e+00
  P3dr   N5h  1 4.700000e-01    3.520000e+00
  P3dh   N4r  1 4.700000e-01    3.520000e+00
  P3dr   N4h  1 4.700000e-01    3.520000e+00
  P3dh   N3r  1 4.700000e-01    3.390000e+00
  P3dr   N3h  1 4.700000e-01    3.390000e+00
  P3dh   N2r  1 4.700000e-01    3.390000e+00
  P3dr   N2h  1 4.700000e-01    3.390000e+00
  P3dh   N1r  1 4.700000e-01    3.240000e+00
  P3dr   N1h  1 4.700000e-01    3.240000e+00
  P2dh   P1r  1 4.700000e-01    3.880000e+00
  P2dr   P1h  1 4.700000e-01    3.880000e+00
  P2dh   N6r  1 4.700000e-01    3.880000e+00
  P2dr   N6h  1 4.700000e-01    3.880000e+00
  P2dh   N5r  1 4.700000e-01    3.690000e+00
  P2dr   N5h  1 4.700000e-01    3.690000e+00
  P2dh   N4r  1 4.700000e-01    3.520000e+00
  P2dr   N4h  1 4.700000e-01    3.520000e+00
  P2dh   N3r  1 4.700000e-01    3.390000e+00
  P2dr   N3h  1 4.700000e-01    3.390000e+00
  P2dh   N2r  1 4.700000e-01    3.390000e+00
  P2dr   N2h  1 4.700000e-01    3.390000e+00
  P2dh   N1r  1 4.700000e-01    3.390000e+00
  P2dr   N1h  1 4.700000e-01    3.390000e+00
  P1dh   N6r  1 4.700000e-01    3.880000e+00
  P1dr   N6h  1 4.700000e-01    3.880000e+00
  P1dh   N5r  1 4.700000e-01    3.690000e+00
  P1dr   N5h  1 4.700000e-01    3.690000e+00
  P1dh   N4r  1 4.700000e-01    3.690000e+00
  P1dr   N4h  1 4.700000e-01    3.690000e+00
  P1dh   N3r  1 4.700000e-01    3.390000e+00
  P1dr   N3h  1 4.700000e-01    3.390000e+00
  P1dh   N2r  1 4.700000e-01    3.390000e+00
  P1dr   N2h  1 4.700000e-01    3.390000e+00
  P1dh   N1r  1 4.700000e-01    3.390000e+00
  P1dr   N1h  1 4.700000e-01    3.390000e+00
  N6dh   N5r  1 4.700000e-01    3.880000e+00
  N6dr   N5h  1 4.700000e-01    3.880000e+00
  N6dh   N4r  1 4.700000e-01    3.880000e+00
  N6dr   N4h  1 4.700000e-01    3.880000e+00
  N6dh   N3r  1 4.700000e-01    3.520000e+00
  N6dr   N3h  1 4.700000e-01    3.520000e+00
  N6dh   N2r  1 4.700000e-01    3.390000e+00
  N6dr   N2h  1 4.700000e-01    3.390000e+00
  N6dh   N1r  1 4.700000e-01    3.390000e+00
  N6dr   N1h  1 4.700000e-01    3.390000e+00
  N5dh   N4r  1 4.700000e-01    3.690000e+00
  N5dr   N4h  1 4.700000e-01    3.690000e+00
  N5dh   N3r  1 4.700000e-01    3.520000e+00
  N5dr   N3h  1 4.700000e-01    3.520000e+00
  N5dh   N2r  1 4.700000e-01    3.520000e+00
  N5dr   N2h  1 4.700000e-01    3.520000e+00
  N5dh   N1r  1 4.700000e-01    3.390000e+00
  N5dr   N1h  1 4.700000e-01    3.390000e+00
  N4dh   N3r  1 4.700000e-01    3.520000e+00
  N4dr   N3h  1 4.700000e-01    3.520000e+00
  N4dh   N2r  1 4.700000e-01    3.520000e+00
  N4dr   N2h  1 4.700000e-01    3.520000e+00
  N4dh   N1r  1 4.700000e-01    3.390000e+00
  N4dr   N1h  1 4.700000e-01    3.390000e+00
  N3dh   N2r  1 4.700000e-01    3.520000e+00
  N3dr   N2h  1 4.700000e-01    3.520000e+00
  N3dh   N1r  1 4.700000e-01    3.390000e+00
  N3dr   N1h  1 4.700000e-01    3.390000e+00
  N2dh   N1r  1 4.700000e-01    3.390000e+00
  N2dr   N1h  1 4.700000e-01    3.390000e+00
  P6ah   P5r  1 4.700000e-01    4.730000e+00
  P6ar   P5h  1 4.700000e-01    4.730000e+00
  P6ah   P4r  1 4.700000e-01    4.480000e+00
  P6ar   P4h  1 4.700000e-01    4.480000e+00
  P6ah   P3r  1 4.700000e-01    4.250000e+00
  P6ar   P3h  1 4.700000e-01    4.250000e+00
  P6ah   P2r  1 4.700000e-01    4.250000e+00
  P6ar   P2h  1 4.700000e-01    4.250000e+00
  P6ah   P1r  1 4.700000e-01    4.060000e+00
  P6ar   P1h  1 4.700000e-01    4.060000e+00
  P6ah   N6r  1 4.700000e-01    3.880000e+00
  P6ar   N6h  1 4.700000e-01    3.880000e+00
  P6ah   N5r  1 4.700000e-01    3.520000e+00
  P6ar   N5h  1 4.700000e-01    3.520000e+00
  P6ah   N4r  1 4.700000e-01    3.390000e+00
  P6ar   N4h  1 4.700000e-01    3.390000e+00
  P6ah   N3r  1 4.700000e-01    3.240000e+00
  P6ar   N3h  1 4.700000e-01    3.240000e+00
  P6ah   N2r  1 4.700000e-01    3.070000e+00
  P6ar   N2h  1 4.700000e-01    3.070000e+00
  P6ah   N1r  1 4.700000e-01    2.960000e+00
  P6ar   N1h  1 4.700000e-01    2.960000e+00
  P5ah   P4r  1 4.700000e-01    4.250000e+00
  P5ar   P4h  1 4.700000e-01    4.250000e+00
  P5ah   P3r  1 4.700000e-01    4.060000e+00
  P5ar   P3h  1 4.700000e-01    4.060000e+00
  P5ah   P2r  1 4.700000e-01    4.060000e+00
  P5ar   P2h  1 4.700000e-01    4.060000e+00
  P5ah   P1r  1 4.700000e-01    3.880000e+00
  P5ar   P1h  1 4.700000e-01    3.880000e+00
  P5ah   N6r  1 4.700000e-01    3.690000e+00
  P5ar   N6h  1 4.700000e-01    3.690000e+00
  P5ah   N5r  1 4.700000e-01    3.520000e+00
  P5ar   N5h  1 4.700000e-01    3.520000e+00
  P5ah   N4r  1 4.700000e-01    3.520000e+00
  P5ar   N4h  1 4.700000e-01    3.520000e+00
  P5ah   N3r  1 4.700000e-01    3.240000e+00
  P5ar   N3h  1 4.700000e-01    3.240000e+00
  P5ah   N2r  1 4.700000e-01    3.070000e+00
  P5ar   N2h  1 4.700000e-01    3.070000e+00
  P5ah   N1r  1 4.700000e-01    2.960000e+00
  P5ar   N1h  1 4.700000e-01    2.960000e+00
  P4ah   P3r  1 4.700000e-01    4.060000e+00
  P4ar   P3h  1 4.700000e-01    4.060000e+00
  P4ah   P2r  1 4.700000e-01    4.060000e+00
  P4ar   P2h  1 4.700000e-01    4.060000e+00
  P4ah   P1r  1 4.700000e-01    3.880000e+00
  P4ar   P1h  1 4.700000e-01    3.880000e+00
  P4ah   N6r  1 4.700000e-01    3.690000e+00
  P4ar   N6h  1 4.700000e-01    3.690000e+00
  P4ah   N5r  1 4.700000e-01    3.520000e+00
  P4ar   N5h  1 4.700000e-01    3.520000e+00
  P4ah   N4r  1 4.700000e-01    3.520000e+00
  P4ar   N4h  1 4.700000e-01    3.520000e+00
  P4ah   N3r  1 4.700000e-01    3.390000e+00
  P4ar   N3h  1 4.700000e-01    3.390000e+00
  P4ah   N2r  1 4.700000e-01    3.240000e+00
  P4ar   N2h  1 4.700000e-01    3.240000e+00
  P4ah   N1r  1 4.700000e-01    3.070000e+00
  P4ar   N1h  1 4.700000e-01    3.070000e+00
  P3ah   P2r  1 4.700000e-01    4.060000e+00
  P3ar   P2h  1 4.700000e-01    4.060000e+00
  P3ah   P1r  1 4.700000e-01    3.880000e+00
  P3ar   P1h  1 4.700000e-01    3.880000e+00
  P3ah   N6r  1 4.700000e-01    3.690000e+00
  P3ar   N6h  1 4.700000e-01    3.690000e+00
  P3ah   N5r  1 4.700000e-01    3.520000e+00
  P3ar   N5h  1 4.700000e-01    3.520000e+00
  P3ah   N4r  1 4.700000e-01    3.520000e+00
  P3ar   N4h  1 4.700000e-01    3.520000e+00
  P3ah   N3r  1 4.700000e-01    3.390000e+00
  P3ar   N3h  1 4.700000e-01    3.390000e+00
  P3ah   N2r  1 4.700000e-01    3.390000e+00
  P3ar   N2h  1 4.700000e-01    3.390000e+00
  P3ah   N1r  1 4.700000e-01    3.240000e+00
  P3ar   N1h  1 4.700000e-01    3.240000e+00
  P2ah   P1r  1 4.700000e-01    3.880000e+00
  P2ar   P1h  1 4.700000e-01    3.880000e+00
  P2ah   N6r  1 4.700000e-01    3.880000e+00
  P2ar   N6h  1 4.700000e-01    3.880000e+00
  P2ah   N5r  1 4.700000e-01    3.690000e+00
  P2ar   N5h  1 4.700000e-01    3.690000e+00
  P2ah   N4r  1 4.700000e-01    3.520000e+00
  P2ar   N4h  1 4.700000e-01    3.520000e+00
  P2ah   N3r  1 4.700000e-01    3.390000e+00
  P2ar   N3h  1 4.700000e-01    3.390000e+00
  P2ah   N2r  1 4.700000e-01    3.390000e+00
  P2ar   N2h  1 4.700000e-01    3.390000e+00
  P2ah   N1r  1 4.700000e-01    3.390000e+00
  P2ar   N1h  1 4.700000e-01    3.390000e+00
  P1ah   N6r  1 4.700000e-01    3.880000e+00
  P1ar   N6h  1 4.700000e-01    3.880000e+00
  P1ah   N5r  1 4.700000e-01    3.690000e+00
  P1ar   N5h  1 4.700000e-01    3.690000e+00
  P1ah   N4r  1 4.700000e-01    3.690000e+00
  P1ar   N4h  1 4.700000e-01    3.690000e+00
  P1ah   N3r  1 4.700000e-01    3.390000e+00
  P1ar   N3h  1 4.700000e-01    3.390000e+00
  P1ah   N2r  1 4.700000e-01    3.390000e+00
  P1ar   N2h  1 4.700000e-01    3.390000e+00
  P1ah   N1r  1 4.700000e-01    3.390000e+00
  P1ar   N1h  1 4.700000e-01    3.390000e+00
  N6ah   N5r  1 4.700000e-01    3.880000e+00
  N6ar   N5h  1 4.700000e-01    3.880000e+00
  N6ah   N4r  1 4.700000e-01    3.880000e+00
  N6ar   N4h  1 4.700000e-01    3.880000e+00
  N6ah   N3r  1 4.700000e-01    3.520000e+00
  N6ar   N3h  1 4.700000e-01    3.520000e+00
  N6ah   N2r  1 4.700000e-01    3.390000e+00
  N6ar   N2h  1 4.700000e-01    3.390000e+00
  N6ah   N1r  1 4.700000e-01    3.390000e+00
  N6ar   N1h  1 4.700000e-01    3.390000e+00
  N5ah   N4r  1 4.700000e-01    3.690000e+00
  N5ar   N4h  1 4.700000e-01    3.690000e+00
  N5ah   N3r  1 4.700000e-01    3.520000e+00
  N5ar   N3h  1 4.700000e-01    3.520000e+00
  N5ah   N2r  1 4.700000e-01    3.520000e+00
  N5ar   N2h  1 4.700000e-01    3.520000e+00
  N5ah   N1r  1 4.700000e-01    3.390000e+00
  N5ar   N1h  1 4.700000e-01    3.390000e+00
  N4ah   N3r  1 4.700000e-01    3.520000e+00
  N4ar   N3h  1 4.700000e-01    3.520000e+00
  N4ah   N2r  1 4.700000e-01    3.520000e+00
  N4ar   N2h  1 4.700000e-01    3.520000e+00
  N4ah   N1r  1 4.700000e-01    3.390000e+00
  N4ar   N1h  1 4.700000e-01    3.390000e+00
  N3ah   N2r  1 4.700000e-01    3.520000e+00
  N3ar   N2h  1 4.700000e-01    3.520000e+00
  N3ah   N1r  1 4.700000e-01    3.390000e+00
  N3ar   N1h  1 4.700000e-01    3.390000e+00
  N2ah   N1r  1 4.700000e-01    3.390000e+00
  N2ar   N1h  1 4.700000e-01    3.390000e+00
   C6h   C6r  1 4.700000e-01    3.520000e+00
   C6h   C5r  1 4.700000e-01    3.390000e+00
   C6r   C5h  1 4.700000e-01    3.390000e+00
   C6h   C4r  1 4.700000e-01    3.390000e+00
   C6r   C4h  1 4.700000e-01    3.390000e+00
   C6h   C3r  1 4.700000e-01    3.240000e+00
   C6r   C3h  1 4.700000e-01    3.240000e+00
   C6h   C2r  1 4.700000e-01    3.070000e+00
   C6r   C2h  1 4.700000e-01    3.070000e+00
   C6h   C1r  1 4.700000e-01    2.960000e+00
   C6r   C1h  1 4.700000e-01    2.960000e+00
   C6h   X4r  1 4.700000e-01    3.390000e+00
   C6r   X4h  1 4.700000e-01    3.390000e+00
   C6h   X3r  1 4.700000e-01    3.390000e+00
   C6r   X3h  1 4.700000e-01    3.390000e+00
   C6h   X2r  1 4.700000e-01    3.390000e+00
   C6r   X2h  1 4.700000e-01    3.390000e+00
   C6h   X1r  1 4.700000e-01    3.390000e+00
   C6r   X1h  1 4.700000e-01    3.390000e+00
   C6h  C6vr  1 4.700000e-01    3.690000e+00
   C6r  C6vh  1 4.700000e-01    3.690000e+00
   C6h  C5vr  1 4.700000e-01    3.520000e+00
   C6r  C5vh  1 4.700000e-01    3.520000e+00
   C6h  C4vr  1 4.700000e-01    3.520000e+00
   C6r  C4vh  1 4.700000e-01    3.520000e+00
   C6h  C3vr  1 4.700000e-01    3.390000e+00
   C6r  C3vh  1 4.700000e-01    3.390000e+00
   C6h  C2vr  1 4.700000e-01    3.240000e+00
   C6r  C2vh  1 4.700000e-01    3.240000e+00
   C6h  C1vr  1 4.700000e-01    3.070000e+00
   C6r  C1vh  1 4.700000e-01    3.070000e+00
   C6h  X4vr  1 4.700000e-01    3.520000e+00
   C6r  X4vh  1 4.700000e-01    3.520000e+00
   C6h  X3vr  1 4.700000e-01    3.520000e+00
   C6r  X3vh  1 4.700000e-01    3.520000e+00
   C6h  X2vr  1 4.700000e-01    3.520000e+00
   C6r  X2vh  1 4.700000e-01    3.520000e+00
   C6h  X1vr  1 4.700000e-01    3.520000e+00
   C6r  X1vh  1 4.700000e-01    3.520000e+00
   C6h  C6er  1 4.700000e-01    3.690000e+00
   C6r  C6eh  1 4.700000e-01    3.690000e+00
   C6h  C5er  1 4.700000e-01    3.520000e+00
   C6r  C5eh  1 4.700000e-01    3.520000e+00
   C6h  C4er  1 4.700000e-01    3.520000e+00
   C6r  C4eh  1 4.700000e-01    3.520000e+00
   C6h  C3er  1 4.700000e-01    3.390000e+00
   C6r  C3eh  1 4.700000e-01    3.390000e+00
   C6h  C2er  1 4.700000e-01    3.240000e+00
   C6r  C2eh  1 4.700000e-01    3.240000e+00
   C6h  C1er  1 4.700000e-01    3.070000e+00
   C6r  C1eh  1 4.700000e-01    3.070000e+00
   C6h  X4er  1 4.700000e-01    3.520000e+00
   C6r  X4eh  1 4.700000e-01    3.520000e+00
   C6h  X3er  1 4.700000e-01    3.520000e+00
   C6r  X3eh  1 4.700000e-01    3.520000e+00
   C6h  X2er  1 4.700000e-01    3.520000e+00
   C6r  X2eh  1 4.700000e-01    3.520000e+00
   C6h  X1er  1 4.700000e-01    3.520000e+00
   C6r  X1eh  1 4.700000e-01    3.520000e+00
   C5h   C5r  1 4.700000e-01    3.390000e+00
   C5h   C4r  1 4.700000e-01    3.390000e+00
   C5r   C4h  1 4.700000e-01    3.390000e+00
   C5h   C3r  1 4.700000e-01    3.240000e+00
   C5r   C3h  1 4.700000e-01    3.240000e+00
   C5h   C2r  1 4.700000e-01    3.070000e+00
   C5r   C2h  1 4.700000e-01    3.070000e+00
   C5h   C1r  1 4.700000e-01    3.070000e+00
   C5r   C1h  1 4.700000e-01    3.070000e+00
   C5h   X4r  1 4.700000e-01    3.240000e+00
   C5r   X4h  1 4.700000e-01    3.240000e+00
   C5h   X3r  1 4.700000e-01    3.240000e+00
   C5r   X3h  1 4.700000e-01    3.240000e+00
   C5h   X2r  1 4.700000e-01    3.240000e+00
   C5r   X2h  1 4.700000e-01    3.240000e+00
   C5h   X1r  1 4.700000e-01    3.390000e+00
   C5r   X1h  1 4.700000e-01    3.390000e+00
   C5h  C5vr  1 4.700000e-01    3.520000e+00
   C5r  C5vh  1 4.700000e-01    3.520000e+00
   C5h  C4vr  1 4.700000e-01    3.520000e+00
   C5r  C4vh  1 4.700000e-01    3.520000e+00
   C5h  C3vr  1 4.700000e-01    3.390000e+00
   C5r  C3vh  1 4.700000e-01    3.390000e+00
   C5h  C2vr  1 4.700000e-01    3.240000e+00
   C5r  C2vh  1 4.700000e-01    3.240000e+00
   C5h  C1vr  1 4.700000e-01    3.240000e+00
   C5r  C1vh  1 4.700000e-01    3.240000e+00
   C5h  X4vr  1 4.700000e-01    3.390000e+00
   C5r  X4vh  1 4.700000e-01    3.390000e+00
   C5h  X3vr  1 4.700000e-01    3.390000e+00
   C5r  X3vh  1 4.700000e-01    3.390000e+00
   C5h  X2vr  1 4.700000e-01    3.390000e+00
   C5r  X2vh  1 4.700000e-01    3.390000e+00
   C5h  X1vr  1 4.700000e-01    3.520000e+00
   C5r  X1vh  1 4.700000e-01    3.520000e+00
   C5h  C5er  1 4.700000e-01    3.520000e+00
   C5r  C5eh  1 4.700000e-01    3.520000e+00
   C5h  C4er  1 4.700000e-01    3.520000e+00
   C5r  C4eh  1 4.700000e-01    3.520000e+00
   C5h  C3er  1 4.700000e-01    3.390000e+00
   C5r  C3eh  1 4.700000e-01    3.390000e+00
   C5h  C2er  1 4.700000e-01    3.240000e+00
   C5r  C2eh  1 4.700000e-01    3.240000e+00
   C5h  C1er  1 4.700000e-01    3.240000e+00
   C5r  C1eh  1 4.700000e-01    3.240000e+00
   C5h  X4er  1 4.700000e-01    3.390000e+00
   C5r  X4eh  1 4.700000e-01    3.390000e+00
   C5h  X3er  1 4.700000e-01    3.390000e+00
   C5r  X3eh  1 4.700000e-01    3.390000e+00
   C5h  X2er  1 4.700000e-01    3.390000e+00
   C5r  X2eh  1 4.700000e-01    3.390000e+00
   C5h  X1er  1 4.700000e-01    3.520000e+00
   C5r  X1eh  1 4.700000e-01    3.520000e+00
   C4h   C4r  1 4.700000e-01    3.390000e+00
   C4h   C3r  1 4.700000e-01    3.390000e+00
   C4r   C3h  1 4.700000e-01    3.390000e+00
   C4h   C2r  1 4.700000e-01    3.240000e+00
   C4r   C2h  1 4.700000e-01    3.240000e+00
   C4h   C1r  1 4.700000e-01    3.070000e+00
   C4r   C1h  1 4.700000e-01    3.070000e+00
   C4h   X4r  1 4.700000e-01    3.240000e+00
   C4r   X4h  1 4.700000e-01    3.240000e+00
   C4h   X3r  1 4.700000e-01    3.240000e+00
   C4r   X3h  1 4.700000e-01    3.240000e+00
   C4h   X2r  1 4.700000e-01    3.240000e+00
   C4r   X2h  1 4.700000e-01    3.240000e+00
   C4h   X1r  1 4.700000e-01    3.390000e+00
   C4r   X1h  1 4.700000e-01    3.390000e+00
   C4h  C4vr  1 4.700000e-01    3.520000e+00
   C4r  C4vh  1 4.700000e-01    3.520000e+00
   C4h  C3vr  1 4.700000e-01    3.520000e+00
   C4r  C3vh  1 4.700000e-01    3.520000e+00
   C4h  C2vr  1 4.700000e-01    3.390000e+00
   C4r  C2vh  1 4.700000e-01    3.390000e+00
   C4h  C1vr  1 4.700000e-01    3.240000e+00
   C4r  C1vh  1 4.700000e-01    3.240000e+00
   C4h  X4vr  1 4.700000e-01    3.390000e+00
   C4r  X4vh  1 4.700000e-01    3.390000e+00
   C4h  X3vr  1 4.700000e-01    3.390000e+00
   C4r  X3vh  1 4.700000e-01    3.390000e+00
   C4h  X2vr  1 4.700000e-01    3.390000e+00
   C4r  X2vh  1 4.700000e-01    3.390000e+00
   C4h  X1vr  1 4.700000e-01    3.520000e+00
   C4r  X1vh  1 4.700000e-01    3.520000e+00
   C4h  C4er  1 4.700000e-01    3.520000e+00
   C4r  C4eh  1 4.700000e-01    3.520000e+00
   C4h  C3er  1 4.700000e-01    3.520000e+00
   C4r  C3eh  1 4.700000e-01    3.520000e+00
   C4h  C2er  1 4.700000e-01    3.390000e+00
   C4r  C2eh  1 4.700000e-01    3.390000e+00
   C4h  C1er  1 4.700000e-01    3.240000e+00
   C4r  C1eh  1 4.700000e-01    3.240000e+00
   C4h  X4er  1 4.700000e-01    3.390000e+00
   C4r  X4eh  1 4.700000e-01    3.390000e+00
   C4h  X3er  1 4.700000e-01    3.390000e+00
   C4r  X3eh  1 4.700000e-01    3.390000e+00
   C4h  X2er  1 4.700000e-01    3.390000e+00
   C4r  X2eh  1 4.700000e-01    3.390000e+00
   C4h  X1er  1 4.700000e-01    3.520000e+00
   C4r  X1eh  1 4.700000e-01    3.520000e+00
   C3h   C3r  1 4.700000e-01    3.390000e+00
   C3h   C2r  1 4.700000e-01    3.390000e+00
   C3r   C2h  1 4.700000e-01    3.390000e+00
   C3h   C1r  1 4.700000e-01    3.390000e+00
   C3r   C1h  1 4.700000e-01    3.390000e+00
   C3h   X4r  1 4.700000e-01    3.240000e+00
   C3r   X4h  1 4.700000e-01    3.240000e+00
   C3h   X3r  1 4.700000e-01    3.240000e+00
   C3r   X3h  1 4.700000e-01    3.240000e+00
   C3h   X2r  1 4.700000e-01    3.240000e+00
   C3r   X2h  1 4.700000e-01    3.240000e+00
   C3h   X1r  1 4.700000e-01    3.390000e+00
   C3r   X1h  1 4.700000e-01    3.390000e+00
   C3h  C3vr  1 4.700000e-01    3.520000e+00
   C3r  C3vh  1 4.700000e-01    3.520000e+00
   C3h  C2vr  1 4.700000e-01    3.520000e+00
   C3r  C2vh  1 4.700000e-01    3.520000e+00
   C3h  C1vr  1 4.700000e-01    3.520000e+00
   C3r  C1vh  1 4.700000e-01    3.520000e+00
   C3h  X4vr  1 4.700000e-01    3.390000e+00
   C3r  X4vh  1 4.700000e-01    3.390000e+00
   C3h  X3vr  1 4.700000e-01    3.390000e+00
   C3r  X3vh  1 4.700000e-01    3.390000e+00
   C3h  X2vr  1 4.700000e-01    3.390000e+00
   C3r  X2vh  1 4.700000e-01    3.390000e+00
   C3h  X1vr  1 4.700000e-01    3.520000e+00
   C3r  X1vh  1 4.700000e-01    3.520000e+00
   C3h  C3er  1 4.700000e-01    3.520000e+00
   C3r  C3eh  1 4.700000e-01    3.520000e+00
   C3h  C2er  1 4.700000e-01    3.520000e+00
   C3r  C2eh  1 4.700000e-01    3.520000e+00
   C3h  C1er  1 4.700000e-01    3.520000e+00
   C3r  C1eh  1 4.700000e-01    3.520000e+00
   C3h  X4er  1 4.700000e-01    3.390000e+00
   C3r  X4eh  1 4.700000e-01    3.390000e+00
   C3h  X3er  1 4.700000e-01    3.390000e+00
   C3r  X3eh  1 4.700000e-01    3.390000e+00
   C3h  X2er  1 4.700000e-01    3.390000e+00
   C3r  X2eh  1 4.700000e-01    3.390000e+00
   C3h  X1er  1 4.700000e-01    3.520000e+00
   C3r  X1eh  1 4.700000e-01    3.520000e+00
   C2h   C2r  1 4.700000e-01    3.390000e+00
   C2h   C1r  1 4.700000e-01    3.520000e+00
   C2r   C1h  1 4.700000e-01    3.520000e+00
   C2h   X4r  1 4.700000e-01    2.960000e+00
   C2r   X4h  1 4.700000e-01    2.960000e+00
   C2h   X3r  1 4.700000e-01    3.240000e+00
   C2r   X3h  1 4.700000e-01    3.240000e+00
   C2h   X2r  1 4.700000e-01    3.240000e+00
   C2r   X2h  1 4.700000e-01    3.240000e+00
   C2h   X1r  1 4.700000e-01    3.240000e+00
   C2r   X1h  1 4.700000e-01    3.240000e+00
   C2h  C2vr  1 4.700000e-01    3.520000e+00
   C2r  C2vh  1 4.700000e-01    3.520000e+00
   C2h  C1vr  1 4.700000e-01    3.690000e+00
   C2r  C1vh  1 4.700000e-01    3.690000e+00
   C2h  X4vr  1 4.700000e-01    3.070000e+00
   C2r  X4vh  1 4.700000e-01    3.070000e+00
   C2h  X3vr  1 4.700000e-01    3.390000e+00
   C2r  X3vh  1 4.700000e-01    3.390000e+00
   C2h  X2vr  1 4.700000e-01    3.390000e+00
   C2r  X2vh  1 4.700000e-01    3.390000e+00
   C2h  X1vr  1 4.700000e-01    3.390000e+00
   C2r  X1vh  1 4.700000e-01    3.390000e+00
   C2h  C2er  1 4.700000e-01    3.520000e+00
   C2r  C2eh  1 4.700000e-01    3.520000e+00
   C2h  C1er  1 4.700000e-01    3.690000e+00
   C2r  C1eh  1 4.700000e-01    3.690000e+00
   C2h  X4er  1 4.700000e-01    3.070000e+00
   C2r  X4eh  1 4.700000e-01    3.070000e+00
   C2h  X3er  1 4.700000e-01    3.390000e+00
   C2r  X3eh  1 4.700000e-01    3.390000e+00
   C2h  X2er  1 4.700000e-01    3.390000e+00
   C2r  X2eh  1 4.700000e-01    3.390000e+00
   C2h  X1er  1 4.700000e-01    3.390000e+00
   C2r  X1eh  1 4.700000e-01    3.390000e+00
   C1h   C1r  1 4.700000e-01    3.390000e+00
   C1h   X4r  1 4.700000e-01    2.960000e+00
   C1r   X4h  1 4.700000e-01    2.960000e+00
   C1h   X3r  1 4.700000e-01    3.240000e+00
   C1r   X3h  1 4.700000e-01    3.240000e+00
   C1h   X2r  1 4.700000e-01    3.240000e+00
   C1r   X2h  1 4.700000e-01    3.240000e+00
   C1h   X1r  1 4.700000e-01    3.240000e+00
   C1r   X1h  1 4.700000e-01    3.240000e+00
   C1h  C1vr  1 4.700000e-01    3.520000e+00
   C1r  C1vh  1 4.700000e-01    3.520000e+00
   C1h  X4vr  1 4.700000e-01    3.070000e+00
   C1r  X4vh  1 4.700000e-01    3.070000e+00
   C1h  X3vr  1 4.700000e-01    3.390000e+00
   C1r  X3vh  1 4.700000e-01    3.390000e+00
   C1h  X2vr  1 4.700000e-01    3.390000e+00
   C1r  X2vh  1 4.700000e-01    3.390000e+00
   C1h  X1vr  1 4.700000e-01    3.390000e+00
   C1r  X1vh  1 4.700000e-01    3.390000e+00
   C1h  C1er  1 4.700000e-01    3.520000e+00
   C1r  C1eh  1 4.700000e-01    3.520000e+00
   C1h  X4er  1 4.700000e-01    3.070000e+00
   C1r  X4eh  1 4.700000e-01    3.070000e+00
   C1h  X3er  1 4.700000e-01    3.390000e+00
   C1r  X3eh  1 4.700000e-01    3.390000e+00
   C1h  X2er  1 4.700000e-01    3.390000e+00
   C1r  X2eh  1 4.700000e-01    3.390000e+00
   C1h  X1er  1 4.700000e-01    3.390000e+00
   C1r  X1eh  1 4.700000e-01    3.390000e+00
   X4h   X4r  1 4.700000e-01    3.390000e+00
   X4h   X3r  1 4.700000e-01    3.390000e+00
   X4r   X3h  1 4.700000e-01    3.390000e+00
   X4h   X2r  1 4.700000e-01    3.390000e+00
   X4r   X2h  1 4.700000e-01    3.390000e+00
   X4h   X1r  1 4.700000e-01    3.390000e+00
   X4r   X1h  1 4.700000e-01    3.390000e+00
   X4h  X4vr  1 4.700000e-01    3.520000e+00
   X4r  X4vh  1 4.700000e-01    3.520000e+00
   X4h  X3vr  1 4.700000e-01    3.520000e+00
   X4r  X3vh  1 4.700000e-01    3.520000e+00
   X4h  X2vr  1 4.700000e-01    3.520000e+00
   X4r  X2vh  1 4.700000e-01    3.520000e+00
   X4h  X1vr  1 4.700000e-01    3.520000e+00
   X4r  X1vh  1 4.700000e-01    3.520000e+00
   X4h  X4er  1 4.700000e-01    3.520000e+00
   X4r  X4eh  1 4.700000e-01    3.520000e+00
   X4h  X3er  1 4.700000e-01    3.520000e+00
   X4r  X3eh  1 4.700000e-01    3.520000e+00
   X4h  X2er  1 4.700000e-01    3.520000e+00
   X4r  X2eh  1 4.700000e-01    3.520000e+00
   X4h  X1er  1 4.700000e-01    3.520000e+00
   X4r  X1eh  1 4.700000e-01    3.520000e+00
   X3h   X3r  1 4.700000e-01    3.390000e+00
   X3h   X2r  1 4.700000e-01    3.520000e+00
   X3r   X2h  1 4.700000e-01    3.520000e+00
   X3h   X1r  1 4.700000e-01    3.520000e+00
   X3r   X1h  1 4.700000e-01    3.520000e+00
   X3h  X3vr  1 4.700000e-01    3.520000e+00
   X3r  X3vh  1 4.700000e-01    3.520000e+00
   X3h  X2vr  1 4.700000e-01    3.690000e+00
   X3r  X2vh  1 4.700000e-01    3.690000e+00
   X3h  X1vr  1 4.700000e-01    3.690000e+00
   X3r  X1vh  1 4.700000e-01    3.690000e+00
   X3h  X3er  1 4.700000e-01    3.520000e+00
   X3r  X3eh  1 4.700000e-01    3.520000e+00
   X3h  X2er  1 4.700000e-01    3.690000e+00
   X3r  X2eh  1 4.700000e-01    3.690000e+00
   X3h  X1er  1 4.700000e-01    3.690000e+00
   X3r  X1eh  1 4.700000e-01    3.690000e+00
   X2h   X2r  1 4.700000e-01    3.520000e+00
   X2h   X1r  1 4.700000e-01    3.520000e+00
   X2r   X1h  1 4.700000e-01    3.520000e+00
   X2h  X2vr  1 4.700000e-01    3.690000e+00
   X2r  X2vh  1 4.700000e-01    3.690000e+00
   X2h  X1vr  1 4.700000e-01    3.690000e+00
   X2r  X1vh  1 4.700000e-01    3.690000e+00
   X2h  X2er  1 4.700000e-01    3.690000e+00
   X2r  X2eh  1 4.700000e-01    3.690000e+00
   X2h  X1er  1 4.700000e-01    3.690000e+00
   X2r  X1eh  1 4.700000e-01    3.690000e+00
   X1h   X1r  1 4.700000e-01    3.690000e+00
   X1h  X1vr  1 4.700000e-01    3.880000e+00
   X1r  X1vh  1 4.700000e-01    3.880000e+00
   X1h  X1er  1 4.700000e-01    3.880000e+00
   X1r  X1eh  1 4.700000e-01    3.880000e+00
  C6vh  C6vr  1 4.700000e-01    3.390000e+00
  C6vh   C5r  1 4.700000e-01    3.520000e+00
  C6vr   C5h  1 4.700000e-01    3.520000e+00
  C6vh   C4r  1 4.700000e-01    3.520000e+00
  C6vr   C4h  1 4.700000e-01    3.520000e+00
  C6vh   C3r  1 4.700000e-01    3.390000e+00
  C6vr   C3h  1 4.700000e-01    3.390000e+00
  C6vh   C2r  1 4.700000e-01    3.240000e+00
  C6vr   C2h  1 4.700000e-01    3.240000e+00
  C6vh   C1r  1 4.700000e-01    3.070000e+00
  C6vr   C1h  1 4.700000e-01    3.070000e+00
  C6vh   X4r  1 4.700000e-01    3.520000e+00
  C6vr   X4h  1 4.700000e-01    3.520000e+00
  C6vh   X3r  1 4.700000e-01    3.520000e+00
  C6vr   X3h  1 4.700000e-01    3.520000e+00
  C6vh   X2r  1 4.700000e-01    3.520000e+00
  C6vr   X2h  1 4.700000e-01    3.520000e+00
  C6vh   X1r  1 4.700000e-01    3.520000e+00
  C6vr   X1h  1 4.700000e-01    3.520000e+00
  C6vh  C5vr  1 4.700000e-01    3.240000e+00
  C6vr  C5vh  1 4.700000e-01    3.240000e+00
  C6vh  C4vr  1 4.700000e-01    3.240000e+00
  C6vr  C4vh  1 4.700000e-01    3.240000e+00
  C6vh  C3vr  1 4.700000e-01    3.070000e+00
  C6vr  C3vh  1 4.700000e-01    3.070000e+00
  C6vh  C2vr  1 4.700000e-01    2.960000e+00
  C6vr  C2vh  1 4.700000e-01    2.960000e+00
  C6vh  C1vr  1 4.700000e-01    2.790000e+00
  C6vr  C1vh  1 4.700000e-01    2.790000e+00
  C6vh  X4vr  1 4.700000e-01    3.240000e+00
  C6vr  X4vh  1 4.700000e-01    3.240000e+00
  C6vh  X3vr  1 4.700000e-01    3.240000e+00
  C6vr  X3vh  1 4.700000e-01    3.240000e+00
  C6vh  X2vr  1 4.700000e-01    3.240000e+00
  C6vr  X2vh  1 4.700000e-01    3.240000e+00
  C6vh  X1vr  1 4.700000e-01    3.240000e+00
  C6vr  X1vh  1 4.700000e-01    3.240000e+00
  C5vh  C5vr  1 4.700000e-01    3.240000e+00
  C5vh   C4r  1 4.700000e-01    3.520000e+00
  C5vr   C4h  1 4.700000e-01    3.520000e+00
  C5vh   C3r  1 4.700000e-01    3.390000e+00
  C5vr   C3h  1 4.700000e-01    3.390000e+00
  C5vh   C2r  1 4.700000e-01    3.240000e+00
  C5vr   C2h  1 4.700000e-01    3.240000e+00
  C5vh   C1r  1 4.700000e-01    3.240000e+00
  C5vr   C1h  1 4.700000e-01    3.240000e+00
  C5vh   X4r  1 4.700000e-01    3.390000e+00
  C5vr   X4h  1 4.700000e-01    3.390000e+00
  C5vh   X3r  1 4.700000e-01    3.390000e+00
  C5vr   X3h  1 4.700000e-01    3.390000e+00
  C5vh   X2r  1 4.700000e-01    3.390000e+00
  C5vr   X2h  1 4.700000e-01    3.390000e+00
  C5vh   X1r  1 4.700000e-01    3.520000e+00
  C5vr   X1h  1 4.700000e-01    3.520000e+00
  C5vh  C4vr  1 4.700000e-01    3.240000e+00
  C5vr  C4vh  1 4.700000e-01    3.240000e+00
  C5vh  C3vr  1 4.700000e-01    3.070000e+00
  C5vr  C3vh  1 4.700000e-01    3.070000e+00
  C5vh  C2vr  1 4.700000e-01    2.960000e+00
  C5vr  C2vh  1 4.700000e-01    2.960000e+00
  C5vh  C1vr  1 4.700000e-01    2.960000e+00
  C5vr  C1vh  1 4.700000e-01    2.960000e+00
  C5vh  X4vr  1 4.700000e-01    3.070000e+00
  C5vr  X4vh  1 4.700000e-01    3.070000e+00
  C5vh  X3vr  1 4.700000e-01    3.070000e+00
  C5vr  X3vh  1 4.700000e-01    3.070000e+00
  C5vh  X2vr  1 4.700000e-01    3.070000e+00
  C5vr  X2vh  1 4.700000e-01    3.070000e+00
  C5vh  X1vr  1 4.700000e-01    3.240000e+00
  C5vr  X1vh  1 4.700000e-01    3.240000e+00
  C4vh  C4vr  1 4.700000e-01    3.240000e+00
  C4vh   C3r  1 4.700000e-01    3.520000e+00
  C4vr   C3h  1 4.700000e-01    3.520000e+00
  C4vh   C2r  1 4.700000e-01    3.390000e+00
  C4vr   C2h  1 4.700000e-01    3.390000e+00
  C4vh   C1r  1 4.700000e-01    3.240000e+00
  C4vr   C1h  1 4.700000e-01    3.240000e+00
  C4vh   X4r  1 4.700000e-01    3.390000e+00
  C4vr   X4h  1 4.700000e-01    3.390000e+00
  C4vh   X3r  1 4.700000e-01    3.390000e+00
  C4vr   X3h  1 4.700000e-01    3.390000e+00
  C4vh   X2r  1 4.700000e-01    3.390000e+00
  C4vr   X2h  1 4.700000e-01    3.390000e+00
  C4vh   X1r  1 4.700000e-01    3.520000e+00
  C4vr   X1h  1 4.700000e-01    3.520000e+00
  C4vh  C3vr  1 4.700000e-01    3.240000e+00
  C4vr  C3vh  1 4.700000e-01    3.240000e+00
  C4vh  C2vr  1 4.700000e-01    3.070000e+00
  C4vr  C2vh  1 4.700000e-01    3.070000e+00
  C4vh  C1vr  1 4.700000e-01    2.960000e+00
  C4vr  C1vh  1 4.700000e-01    2.960000e+00
  C4vh  X4vr  1 4.700000e-01    3.070000e+00
  C4vr  X4vh  1 4.700000e-01    3.070000e+00
  C4vh  X3vr  1 4.700000e-01    3.070000e+00
  C4vr  X3vh  1 4.700000e-01    3.070000e+00
  C4vh  X2vr  1 4.700000e-01    3.070000e+00
  C4vr  X2vh  1 4.700000e-01    3.070000e+00
  C4vh  X1vr  1 4.700000e-01    3.240000e+00
  C4vr  X1vh  1 4.700000e-01    3.240000e+00
  C3vh  C3vr  1 4.700000e-01    3.240000e+00
  C3vh   C2r  1 4.700000e-01    3.520000e+00
  C3vr   C2h  1 4.700000e-01    3.520000e+00
  C3vh   C1r  1 4.700000e-01    3.520000e+00
  C3vr   C1h  1 4.700000e-01    3.520000e+00
  C3vh   X4r  1 4.700000e-01    3.390000e+00
  C3vr   X4h  1 4.700000e-01    3.390000e+00
  C3vh   X3r  1 4.700000e-01    3.390000e+00
  C3vr   X3h  1 4.700000e-01    3.390000e+00
  C3vh   X2r  1 4.700000e-01    3.390000e+00
  C3vr   X2h  1 4.700000e-01    3.390000e+00
  C3vh   X1r  1 4.700000e-01    3.520000e+00
  C3vr   X1h  1 4.700000e-01    3.520000e+00
  C3vh  C2vr  1 4.700000e-01    3.240000e+00
  C3vr  C2vh  1 4.700000e-01    3.240000e+00
  C3vh  C1vr  1 4.700000e-01    3.240000e+00
  C3vr  C1vh  1 4.700000e-01    3.240000e+00
  C3vh  X4vr  1 4.700000e-01    3.070000e+00
  C3vr  X4vh  1 4.700000e-01    3.070000e+00
  C3vh  X3vr  1 4.700000e-01    3.070000e+00
  C3vr  X3vh  1 4.700000e-01    3.070000e+00
  C3vh  X2vr  1 4.700000e-01    3.070000e+00
  C3vr  X2vh  1 4.700000e-01    3.070000e+00
  C3vh  X1vr  1 4.700000e-01    3.240000e+00
  C3vr  X1vh  1 4.700000e-01    3.240000e+00
  C2vh  C2vr  1 4.700000e-01    3.240000e+00
  C2vh   C1r  1 4.700000e-01    3.690000e+00
  C2vr   C1h  1 4.700000e-01    3.690000e+00
  C2vh   X4r  1 4.700000e-01    3.070000e+00
  C2vr   X4h  1 4.700000e-01    3.070000e+00
  C2vh   X3r  1 4.700000e-01    3.390000e+00
  C2vr   X3h  1 4.700000e-01    3.390000e+00
  C2vh   X2r  1 4.700000e-01    3.390000e+00
  C2vr   X2h  1 4.700000e-01    3.390000e+00
  C2vh   X1r  1 4.700000e-01    3.390000e+00
  C2vr   X1h  1 4.700000e-01    3.390000e+00
  C2vh  C1vr  1 4.700000e-01    3.390000e+00
  C2vr  C1vh  1 4.700000e-01    3.390000e+00
  C2vh  X4vr  1 4.700000e-01    2.790000e+00
  C2vr  X4vh  1 4.700000e-01    2.790000e+00
  C2vh  X3vr  1 4.700000e-01    3.070000e+00
  C2vr  X3vh  1 4.700000e-01    3.070000e+00
  C2vh  X2vr  1 4.700000e-01    3.070000e+00
  C2vr  X2vh  1 4.700000e-01    3.070000e+00
  C2vh  X1vr  1 4.700000e-01    3.070000e+00
  C2vr  X1vh  1 4.700000e-01    3.070000e+00
  C1vh  C1vr  1 4.700000e-01    3.240000e+00
  C1vh   X4r  1 4.700000e-01    3.070000e+00
  C1vr   X4h  1 4.700000e-01    3.070000e+00
  C1vh   X3r  1 4.700000e-01    3.390000e+00
  C1vr   X3h  1 4.700000e-01    3.390000e+00
  C1vh   X2r  1 4.700000e-01    3.390000e+00
  C1vr   X2h  1 4.700000e-01    3.390000e+00
  C1vh   X1r  1 4.700000e-01    3.390000e+00
  C1vr   X1h  1 4.700000e-01    3.390000e+00
  C1vh  X4vr  1 4.700000e-01    2.790000e+00
  C1vr  X4vh  1 4.700000e-01    2.790000e+00
  C1vh  X3vr  1 4.700000e-01    3.070000e+00
  C1vr  X3vh  1 4.700000e-01    3.070000e+00
  C1vh  X2vr  1 4.700000e-01    3.070000e+00
  C1vr  X2vh  1 4.700000e-01    3.070000e+00
  C1vh  X1vr  1 4.700000e-01    3.070000e+00
  C1vr  X1vh  1 4.700000e-01    3.070000e+00
  X4vh  X4vr  1 4.700000e-01    3.240000e+00
  X4vh   X3r  1 4.700000e-01    3.520000e+00
  X4vr   X3h  1 4.700000e-01    3.520000e+00
  X4vh   X2r  1 4.700000e-01    3.520000e+00
  X4vr   X2h  1 4.700000e-01    3.520000e+00
  X4vh   X1r  1 4.700000e-01    3.520000e+00
  X4vr   X1h  1 4.700000e-01    3.520000e+00
  X4vh  X3vr  1 4.700000e-01    3.240000e+00
  X4vr  X3vh  1 4.700000e-01    3.240000e+00
  X4vh  X2vr  1 4.700000e-01    3.240000e+00
  X4vr  X2vh  1 4.700000e-01    3.240000e+00
  X4vh  X1vr  1 4.700000e-01    3.240000e+00
  X4vr  X1vh  1 4.700000e-01    3.240000e+00
  X3vh  X3vr  1 4.700000e-01    3.240000e+00
  X3vh   X2r  1 4.700000e-01    3.690000e+00
  X3vr   X2h  1 4.700000e-01    3.690000e+00
  X3vh   X1r  1 4.700000e-01    3.690000e+00
  X3vr   X1h  1 4.700000e-01    3.690000e+00
  X3vh  X2vr  1 4.700000e-01    3.390000e+00
  X3vr  X2vh  1 4.700000e-01    3.390000e+00
  X3vh  X1vr  1 4.700000e-01    3.390000e+00
  X3vr  X1vh  1 4.700000e-01    3.390000e+00
  X2vh  X2vr  1 4.700000e-01    3.390000e+00
  X2vh   X1r  1 4.700000e-01    3.690000e+00
  X2vr   X1h  1 4.700000e-01    3.690000e+00
  X2vh  X1vr  1 4.700000e-01    3.390000e+00
  X2vr  X1vh  1 4.700000e-01    3.390000e+00
  X1vh  X1vr  1 4.700000e-01    3.520000e+00
  C6eh  C6er  1 4.700000e-01    3.390000e+00
  C6eh   C5r  1 4.700000e-01    3.520000e+00
  C6er   C5h  1 4.700000e-01    3.520000e+00
  C6eh   C4r  1 4.700000e-01    3.520000e+00
  C6er   C4h  1 4.700000e-01    3.520000e+00
  C6eh   C3r  1 4.700000e-01    3.390000e+00
  C6er   C3h  1 4.700000e-01    3.390000e+00
  C6eh   C2r  1 4.700000e-01    3.240000e+00
  C6er   C2h  1 4.700000e-01    3.240000e+00
  C6eh   C1r  1 4.700000e-01    3.070000e+00
  C6er   C1h  1 4.700000e-01    3.070000e+00
  C6eh   X4r  1 4.700000e-01    3.520000e+00
  C6er   X4h  1 4.700000e-01    3.520000e+00
  C6eh   X3r  1 4.700000e-01    3.520000e+00
  C6er   X3h  1 4.700000e-01    3.520000e+00
  C6eh   X2r  1 4.700000e-01    3.520000e+00
  C6er   X2h  1 4.700000e-01    3.520000e+00
  C6eh   X1r  1 4.700000e-01    3.520000e+00
  C6er   X1h  1 4.700000e-01    3.520000e+00
  C6eh  C5er  1 4.700000e-01    3.240000e+00
  C6er  C5eh  1 4.700000e-01    3.240000e+00
  C6eh  C4er  1 4.700000e-01    3.240000e+00
  C6er  C4eh  1 4.700000e-01    3.240000e+00
  C6eh  C3er  1 4.700000e-01    3.070000e+00
  C6er  C3eh  1 4.700000e-01    3.070000e+00
  C6eh  C2er  1 4.700000e-01    2.960000e+00
  C6er  C2eh  1 4.700000e-01    2.960000e+00
  C6eh  C1er  1 4.700000e-01    2.790000e+00
  C6er  C1eh  1 4.700000e-01    2.790000e+00
  C6eh  X4er  1 4.700000e-01    3.240000e+00
  C6er  X4eh  1 4.700000e-01    3.240000e+00
  C6eh  X3er  1 4.700000e-01    3.240000e+00
  C6er  X3eh  1 4.700000e-01    3.240000e+00
  C6eh  X2er  1 4.700000e-01    3.240000e+00
  C6er  X2eh  1 4.700000e-01    3.240000e+00
  C6eh  X1er  1 4.700000e-01    3.240000e+00
  C6er  X1eh  1 4.700000e-01    3.240000e+00
  C5eh  C5er  1 4.700000e-01    3.240000e+00
  C5eh   C4r  1 4.700000e-01    3.520000e+00
  C5er   C4h  1 4.700000e-01    3.520000e+00
  C5eh   C3r  1 4.700000e-01    3.390000e+00
  C5er   C3h  1 4.700000e-01    3.390000e+00
  C5eh   C2r  1 4.700000e-01    3.240000e+00
  C5er   C2h  1 4.700000e-01    3.240000e+00
  C5eh   C1r  1 4.700000e-01    3.240000e+00
  C5er   C1h  1 4.700000e-01    3.240000e+00
  C5eh   X4r  1 4.700000e-01    3.390000e+00
  C5er   X4h  1 4.700000e-01    3.390000e+00
  C5eh   X3r  1 4.700000e-01    3.390000e+00
  C5er   X3h  1 4.700000e-01    3.390000e+00
  C5eh   X2r  1 4.700000e-01    3.390000e+00
  C5er   X2h  1 4.700000e-01    3.390000e+00
  C5eh   X1r  1 4.700000e-01    3.520000e+00
  C5er   X1h  1 4.700000e-01    3.520000e+00
  C5eh  C4er  1 4.700000e-01    3.240000e+00
  C5er  C4eh  1 4.700000e-01    3.240000e+00
  C5eh  C3er  1 4.700000e-01    3.070000e+00
  C5er  C3eh  1 4.700000e-01    3.070000e+00
  C5eh  C2er  1 4.700000e-01    2.960000e+00
  C5er  C2eh  1 4.700000e-01    2.960000e+00
  C5eh  C1er  1 4.700000e-01    2.960000e+00
  C5er  C1eh  1 4.700000e-01    2.960000e+00
  C5eh  X4er  1 4.700000e-01    3.070000e+00
  C5er  X4eh  1 4.700000e-01    3.070000e+00
  C5eh  X3er  1 4.700000e-01    3.070000e+00
  C5er  X3eh  1 4.700000e-01    3.070000e+00
  C5eh  X2er  1 4.700000e-01    3.070000e+00
  C5er  X2eh  1 4.700000e-01    3.070000e+00
  C5eh  X1er  1 4.700000e-01    3.240000e+00
  C5er  X1eh  1 4.700000e-01    3.240000e+00
  C4eh  C4er  1 4.700000e-01    3.240000e+00
  C4eh   C3r  1 4.700000e-01    3.520000e+00
  C4er   C3h  1 4.700000e-01    3.520000e+00
  C4eh   C2r  1 4.700000e-01    3.390000e+00
  C4er   C2h  1 4.700000e-01    3.390000e+00
  C4eh   C1r  1 4.700000e-01    3.240000e+00
  C4er   C1h  1 4.700000e-01    3.240000e+00
  C4eh   X4r  1 4.700000e-01    3.390000e+00
  C4er   X4h  1 4.700000e-01    3.390000e+00
  C4eh   X3r  1 4.700000e-01    3.390000e+00
  C4er   X3h  1 4.700000e-01    3.390000e+00
  C4eh   X2r  1 4.700000e-01    3.390000e+00
  C4er   X2h  1 4.700000e-01    3.390000e+00
  C4eh   X1r  1 4.700000e-01    3.520000e+00
  C4er   X1h  1 4.700000e-01    3.520000e+00
  C4eh  C3er  1 4.700000e-01    3.240000e+00
  C4er  C3eh  1 4.700000e-01    3.240000e+00
  C4eh  C2er  1 4.700000e-01    3.070000e+00
  C4er  C2eh  1 4.700000e-01    3.070000e+00
  C4eh  C1er  1 4.700000e-01    2.960000e+00
  C4er  C1eh  1 4.700000e-01    2.960000e+00
  C4eh  X4er  1 4.700000e-01    3.070000e+00
  C4er  X4eh  1 4.700000e-01    3.070000e+00
  C4eh  X3er  1 4.700000e-01    3.070000e+00
  C4er  X3eh  1 4.700000e-01    3.070000e+00
  C4eh  X2er  1 4.700000e-01    3.070000e+00
  C4er  X2eh  1 4.700000e-01    3.070000e+00
  C4eh  X1er  1 4.700000e-01    3.240000e+00
  C4er  X1eh  1 4.700000e-01    3.240000e+00
  C3eh  C3er  1 4.700000e-01    3.240000e+00
  C3eh   C2r  1 4.700000e-01    3.520000e+00
  C3er   C2h  1 4.700000e-01    3.520000e+00
  C3eh   C1r  1 4.700000e-01    3.520000e+00
  C3er   C1h  1 4.700000e-01    3.520000e+00
  C3eh   X4r  1 4.700000e-01    3.390000e+00
  C3er   X4h  1 4.700000e-01    3.390000e+00
  C3eh   X3r  1 4.700000e-01    3.390000e+00
  C3er   X3h  1 4.700000e-01    3.390000e+00
  C3eh   X2r  1 4.700000e-01    3.390000e+00
  C3er   X2h  1 4.700000e-01    3.390000e+00
  C3eh   X1r  1 4.700000e-01    3.520000e+00
  C3er   X1h  1 4.700000e-01    3.520000e+00
  C3eh  C2er  1 4.700000e-01    3.240000e+00
  C3er  C2eh  1 4.700000e-01    3.240000e+00
  C3eh  C1er  1 4.700000e-01    3.240000e+00
  C3er  C1eh  1 4.700000e-01    3.240000e+00
  C3eh  X4er  1 4.700000e-01    3.070000e+00
  C3er  X4eh  1 4.700000e-01    3.070000e+00
  C3eh  X3er  1 4.700000e-01    3.070000e+00
  C3er  X3eh  1 4.700000e-01    3.070000e+00
  C3eh  X2er  1 4.700000e-01    3.070000e+00
  C3er  X2eh  1 4.700000e-01    3.070000e+00
  C3eh  X1er  1 4.700000e-01    3.240000e+00
  C3er  X1eh  1 4.700000e-01    3.240000e+00
  C2eh  C2er  1 4.700000e-01    3.240000e+00
  C2eh   C1r  1 4.700000e-01    3.690000e+00
  C2er   C1h  1 4.700000e-01    3.690000e+00
  C2eh   X4r  1 4.700000e-01    3.070000e+00
  C2er   X4h  1 4.700000e-01    3.070000e+00
  C2eh   X3r  1 4.700000e-01    3.390000e+00
  C2er   X3h  1 4.700000e-01    3.390000e+00
  C2eh   X2r  1 4.700000e-01    3.390000e+00
  C2er   X2h  1 4.700000e-01    3.390000e+00
  C2eh   X1r  1 4.700000e-01    3.390000e+00
  C2er   X1h  1 4.700000e-01    3.390000e+00
  C2eh  C1er  1 4.700000e-01    3.390000e+00
  C2er  C1eh  1 4.700000e-01    3.390000e+00
  C2eh  X4er  1 4.700000e-01    2.790000e+00
  C2er  X4eh  1 4.700000e-01    2.790000e+00
  C2eh  X3er  1 4.700000e-01    3.070000e+00
  C2er  X3eh  1 4.700000e-01    3.070000e+00
  C2eh  X2er  1 4.700000e-01    3.070000e+00
  C2er  X2eh  1 4.700000e-01    3.070000e+00
  C2eh  X1er  1 4.700000e-01    3.070000e+00
  C2er  X1eh  1 4.700000e-01    3.070000e+00
  C1eh  C1er  1 4.700000e-01    3.240000e+00
  C1eh   X4r  1 4.700000e-01    3.070000e+00
  C1er   X4h  1 4.700000e-01    3.070000e+00
  C1eh   X3r  1 4.700000e-01    3.390000e+00
  C1er   X3h  1 4.700000e-01    3.390000e+00
  C1eh   X2r  1 4.700000e-01    3.390000e+00
  C1er   X2h  1 4.700000e-01    3.390000e+00
  C1eh   X1r  1 4.700000e-01    3.390000e+00
  C1er   X1h  1 4.700000e-01    3.390000e+00
  C1eh  X4er  1 4.700000e-01    2.790000e+00
  C1er  X4eh  1 4.700000e-01    2.790000e+00
  C1eh  X3er  1 4.700000e-01    3.070000e+00
  C1er  X3eh  1 4.700000e-01    3.070000e+00
  C1eh  X2er  1 4.700000e-01    3.070000e+00
  C1er  X2eh  1 4.700000e-01    3.070000e+00
  C1eh  X1er  1 4.700000e-01    3.070000e+00
  C1er  X1eh  1 4.700000e-01    3.070000e+00
  X4eh  X4er  1 4.700000e-01    3.240000e+00
  X4eh   X3r  1 4.700000e-01    3.520000e+00
  X4er   X3h  1 4.700000e-01    3.520000e+00
  X4eh   X2r  1 4.700000e-01    3.520000e+00
  X4er   X2h  1 4.700000e-01    3.520000e+00
  X4eh   X1r  1 4.700000e-01    3.520000e+00
  X4er   X1h  1 4.700000e-01    3.520000e+00
  X4eh  X3er  1 4.700000e-01    3.240000e+00
  X4er  X3eh  1 4.700000e-01    3.240000e+00
  X4eh  X2er  1 4.700000e-01    3.240000e+00
  X4er  X2eh  1 4.700000e-01    3.240000e+00
  X4eh  X1er  1 4.700000e-01    3.240000e+00
  X4er  X1eh  1 4.700000e-01    3.240000e+00
  X3eh  X3er  1 4.700000e-01    3.240000e+00
  X3eh   X2r  1 4.700000e-01    3.690000e+00
  X3er   X2h  1 4.700000e-01    3.690000e+00
  X3eh   X1r  1 4.700000e-01    3.690000e+00
  X3er   X1h  1 4.700000e-01    3.690000e+00
  X3eh  X2er  1 4.700000e-01    3.390000e+00
  X3er  X2eh  1 4.700000e-01    3.390000e+00
  X3eh  X1er  1 4.700000e-01    3.390000e+00
  X3er  X1eh  1 4.700000e-01    3.390000e+00
  X2eh  X2er  1 4.700000e-01    3.390000e+00
  X2eh   X1r  1 4.700000e-01    3.690000e+00
  X2er   X1h  1 4.700000e-01    3.690000e+00
  X2eh  X1er  1 4.700000e-01    3.390000e+00
  X2er  X1eh  1 4.700000e-01    3.390000e+00
  X1eh  X1er  1 4.700000e-01    3.520000e+00
   P6h   C6r  1 4.700000e-01    2.960000e+00
   P6r   C6h  1 4.700000e-01    2.960000e+00
   P6h   C5r  1 4.700000e-01    2.790000e+00
   P6r   C5h  1 4.700000e-01    2.790000e+00
   P6h   C4r  1 4.700000e-01    2.620000e+00
   P6r   C4h  1 4.700000e-01    2.620000e+00
   P6h   C3r  1 4.700000e-01    2.440000e+00
   P6r   C3h  1 4.700000e-01    2.440000e+00
   P6h   C2r  1 4.700000e-01    2.440000e+00
   P6r   C2h  1 4.700000e-01    2.440000e+00
   P6h   C1r  1 5.200000e-01    2.120000e+00
   P6r   C1h  1 5.200000e-01    2.120000e+00
   P6h   X4r  1 4.700000e-01    3.070000e+00
   P6r   X4h  1 4.700000e-01    3.070000e+00
   P6h   X3r  1 4.700000e-01    3.070000e+00
   P6r   X3h  1 4.700000e-01    3.070000e+00
   P6h   X2r  1 4.700000e-01    2.960000e+00
   P6r   X2h  1 4.700000e-01    2.960000e+00
   P6h   X1r  1 4.700000e-01    2.790000e+00
   P6r   X1h  1 4.700000e-01    2.790000e+00
   P6h  C6vr  1 4.700000e-01    3.070000e+00
   P6r  C6vh  1 4.700000e-01    3.070000e+00
   P6h  C5vr  1 4.700000e-01    2.960000e+00
   P6r  C5vh  1 4.700000e-01    2.960000e+00
   P6h  C4vr  1 4.700000e-01    2.790000e+00
   P6r  C4vh  1 4.700000e-01    2.790000e+00
   P6h  C3vr  1 4.700000e-01    2.620000e+00
   P6r  C3vh  1 4.700000e-01    2.620000e+00
   P6h  C2vr  1 4.700000e-01    2.620000e+00
   P6r  C2vh  1 4.700000e-01    2.620000e+00
   P6h  C1vr  1 4.850000e-01    2.240000e+00
   P6r  C1vh  1 4.850000e-01    2.240000e+00
   P6h  X4vr  1 4.700000e-01    3.240000e+00
   P6r  X4vh  1 4.700000e-01    3.240000e+00
   P6h  X3vr  1 4.700000e-01    3.240000e+00
   P6r  X3vh  1 4.700000e-01    3.240000e+00
   P6h  X2vr  1 4.700000e-01    3.070000e+00
   P6r  X2vh  1 4.700000e-01    3.070000e+00
   P6h  X1vr  1 4.700000e-01    2.960000e+00
   P6r  X1vh  1 4.700000e-01    2.960000e+00
   P6h  C6er  1 4.700000e-01    3.070000e+00
   P6r  C6eh  1 4.700000e-01    3.070000e+00
   P6h  C5er  1 4.700000e-01    2.960000e+00
   P6r  C5eh  1 4.700000e-01    2.960000e+00
   P6h  C4er  1 4.700000e-01    2.790000e+00
   P6r  C4eh  1 4.700000e-01    2.790000e+00
   P6h  C3er  1 4.700000e-01    2.620000e+00
   P6r  C3eh  1 4.700000e-01    2.620000e+00
   P6h  C2er  1 4.700000e-01    2.620000e+00
   P6r  C2eh  1 4.700000e-01    2.620000e+00
   P6h  C1er  1 4.850000e-01    2.240000e+00
   P6r  C1eh  1 4.850000e-01    2.240000e+00
   P6h  X4er  1 4.700000e-01    3.240000e+00
   P6r  X4eh  1 4.700000e-01    3.240000e+00
   P6h  X3er  1 4.700000e-01    3.240000e+00
   P6r  X3eh  1 4.700000e-01    3.240000e+00
   P6h  X2er  1 4.700000e-01    3.070000e+00
   P6r  X2eh  1 4.700000e-01    3.070000e+00
   P6h  X1er  1 4.700000e-01    2.960000e+00
   P6r  X1eh  1 4.700000e-01    2.960000e+00
   P5h   C6r  1 4.700000e-01    2.960000e+00
   P5r   C6h  1 4.700000e-01    2.960000e+00
   P5h   C5r  1 4.700000e-01    2.960000e+00
   P5r   C5h  1 4.700000e-01    2.960000e+00
   P5h   C4r  1 4.700000e-01    2.790000e+00
   P5r   C4h  1 4.700000e-01    2.790000e+00
   P5h   C3r  1 4.700000e-01    2.620000e+00
   P5r   C3h  1 4.700000e-01    2.620000e+00
   P5h   C2r  1 4.700000e-01    2.620000e+00
   P5r   C2h  1 4.700000e-01    2.620000e+00
   P5h   C1r  1 4.700000e-01    2.440000e+00
   P5r   C1h  1 4.700000e-01    2.440000e+00
   P5h   X4r  1 4.700000e-01    3.240000e+00
   P5r   X4h  1 4.700000e-01    3.240000e+00
   P5h   X3r  1 4.700000e-01    3.070000e+00
   P5r   X3h  1 4.700000e-01    3.070000e+00
   P5h   X2r  1 4.700000e-01    3.070000e+00
   P5r   X2h  1 4.700000e-01    3.070000e+00
   P5h   X1r  1 4.700000e-01    2.790000e+00
   P5r   X1h  1 4.700000e-01    2.790000e+00
   P5h  C6vr  1 4.700000e-01    3.070000e+00
   P5r  C6vh  1 4.700000e-01    3.070000e+00
   P5h  C5vr  1 4.700000e-01    3.070000e+00
   P5r  C5vh  1 4.700000e-01    3.070000e+00
   P5h  C4vr  1 4.700000e-01    2.960000e+00
   P5r  C4vh  1 4.700000e-01    2.960000e+00
   P5h  C3vr  1 4.700000e-01    2.790000e+00
   P5r  C3vh  1 4.700000e-01    2.790000e+00
   P5h  C2vr  1 4.700000e-01    2.790000e+00
   P5r  C2vh  1 4.700000e-01    2.790000e+00
   P5h  C1vr  1 4.700000e-01    2.620000e+00
   P5r  C1vh  1 4.700000e-01    2.620000e+00
   P5h  X4vr  1 4.700000e-01    3.390000e+00
   P5r  X4vh  1 4.700000e-01    3.390000e+00
   P5h  X3vr  1 4.700000e-01    3.240000e+00
   P5r  X3vh  1 4.700000e-01    3.240000e+00
   P5h  X2vr  1 4.700000e-01    3.240000e+00
   P5r  X2vh  1 4.700000e-01    3.240000e+00
   P5h  X1vr  1 4.700000e-01    2.960000e+00
   P5r  X1vh  1 4.700000e-01    2.960000e+00
   P5h  C6er  1 4.700000e-01    3.070000e+00
   P5r  C6eh  1 4.700000e-01    3.070000e+00
   P5h  C5er  1 4.700000e-01    3.070000e+00
   P5r  C5eh  1 4.700000e-01    3.070000e+00
   P5h  C4er  1 4.700000e-01    2.960000e+00
   P5r  C4eh  1 4.700000e-01    2.960000e+00
   P5h  C3er  1 4.700000e-01    2.790000e+00
   P5r  C3eh  1 4.700000e-01    2.790000e+00
   P5h  C2er  1 4.700000e-01    2.790000e+00
   P5r  C2eh  1 4.700000e-01    2.790000e+00
   P5h  C1er  1 4.700000e-01    2.620000e+00
   P5r  C1eh  1 4.700000e-01    2.620000e+00
   P5h  X4er  1 4.700000e-01    3.390000e+00
   P5r  X4eh  1 4.700000e-01    3.390000e+00
   P5h  X3er  1 4.700000e-01    3.240000e+00
   P5r  X3eh  1 4.700000e-01    3.240000e+00
   P5h  X2er  1 4.700000e-01    3.240000e+00
   P5r  X2eh  1 4.700000e-01    3.240000e+00
   P5h  X1er  1 4.700000e-01    2.960000e+00
   P5r  X1eh  1 4.700000e-01    2.960000e+00
   P4h   C6r  1 4.700000e-01    3.070000e+00
   P4r   C6h  1 4.700000e-01    3.070000e+00
   P4h   C5r  1 4.700000e-01    2.960000e+00
   P4r   C5h  1 4.700000e-01    2.960000e+00
   P4h   C4r  1 4.700000e-01    2.790000e+00
   P4r   C4h  1 4.700000e-01    2.790000e+00
   P4h   C3r  1 4.700000e-01    2.620000e+00
   P4r   C3h  1 4.700000e-01    2.620000e+00
   P4h   C2r  1 4.700000e-01    2.620000e+00
   P4r   C2h  1 4.700000e-01    2.620000e+00
   P4h   C1r  1 4.700000e-01    2.440000e+00
   P4r   C1h  1 4.700000e-01    2.440000e+00
   P4h   X4r  1 4.700000e-01    3.240000e+00
   P4r   X4h  1 4.700000e-01    3.240000e+00
   P4h   X3r  1 4.700000e-01    3.070000e+00
   P4r   X3h  1 4.700000e-01    3.070000e+00
   P4h   X2r  1 4.700000e-01    3.070000e+00
   P4r   X2h  1 4.700000e-01    3.070000e+00
   P4h   X1r  1 4.700000e-01    2.960000e+00
   P4r   X1h  1 4.700000e-01    2.960000e+00
   P4h  C6vr  1 4.700000e-01    3.240000e+00
   P4r  C6vh  1 4.700000e-01    3.240000e+00
   P4h  C5vr  1 4.700000e-01    3.070000e+00
   P4r  C5vh  1 4.700000e-01    3.070000e+00
   P4h  C4vr  1 4.700000e-01    2.960000e+00
   P4r  C4vh  1 4.700000e-01    2.960000e+00
   P4h  C3vr  1 4.700000e-01    2.790000e+00
   P4r  C3vh  1 4.700000e-01    2.790000e+00
   P4h  C2vr  1 4.700000e-01    2.790000e+00
   P4r  C2vh  1 4.700000e-01    2.790000e+00
   P4h  C1vr  1 4.700000e-01    2.620000e+00
   P4r  C1vh  1 4.700000e-01    2.620000e+00
   P4h  X4vr  1 4.700000e-01    3.390000e+00
   P4r  X4vh  1 4.700000e-01    3.390000e+00
   P4h  X3vr  1 4.700000e-01    3.240000e+00
   P4r  X3vh  1 4.700000e-01    3.240000e+00
   P4h  X2vr  1 4.700000e-01    3.240000e+00
   P4r  X2vh  1 4.700000e-01    3.240000e+00
   P4h  X1vr  1 4.700000e-01    3.070000e+00
   P4r  X1vh  1 4.700000e-01    3.070000e+00
   P4h  C6er  1 4.700000e-01    3.240000e+00
   P4r  C6eh  1 4.700000e-01    3.240000e+00
   P4h  C5er  1 4.700000e-01    3.070000e+00
   P4r  C5eh  1 4.700000e-01    3.070000e+00
   P4h  C4er  1 4.700000e-01    2.960000e+00
   P4r  C4eh  1 4.700000e-01    2.960000e+00
   P4h  C3er  1 4.700000e-01    2.790000e+00
   P4r  C3eh  1 4.700000e-01    2.790000e+00
   P4h  C2er  1 4.700000e-01    2.790000e+00
   P4r  C2eh  1 4.700000e-01    2.790000e+00
   P4h  C1er  1 4.700000e-01    2.620000e+00
   P4r  C1eh  1 4.700000e-01    2.620000e+00
   P4h  X4er  1 4.700000e-01    3.390000e+00
   P4r  X4eh  1 4.700000e-01    3.390000e+00
   P4h  X3er  1 4.700000e-01    3.240000e+00
   P4r  X3eh  1 4.700000e-01    3.240000e+00
   P4h  X2er  1 4.700000e-01    3.240000e+00
   P4r  X2eh  1 4.700000e-01    3.240000e+00
   P4h  X1er  1 4.700000e-01    3.070000e+00
   P4r  X1eh  1 4.700000e-01    3.070000e+00
   P3h   C6r  1 4.700000e-01    3.240000e+00
   P3r   C6h  1 4.700000e-01    3.240000e+00
   P3h   C5r  1 4.700000e-01    3.070000e+00
   P3r   C5h  1 4.700000e-01    3.070000e+00
   P3h   C4r  1 4.700000e-01    2.960000e+00
   P3r   C4h  1 4.700000e-01    2.960000e+00
   P3h   C3r  1 4.700000e-01    2.620000e+00
   P3r   C3h  1 4.700000e-01    2.620000e+00
   P3h   C2r  1 4.700000e-01    2.620000e+00
   P3r   C2h  1 4.700000e-01    2.620000e+00
   P3h   C1r  1 4.700000e-01    2.440000e+00
   P3r   C1h  1 4.700000e-01    2.440000e+00
   P3h   X4r  1 4.700000e-01    3.240000e+00
   P3r   X4h  1 4.700000e-01    3.240000e+00
   P3h   X3r  1 4.700000e-01    3.240000e+00
   P3r   X3h  1 4.700000e-01    3.240000e+00
   P3h   X2r  1 4.700000e-01    3.070000e+00
   P3r   X2h  1 4.700000e-01    3.070000e+00
   P3h   X1r  1 4.700000e-01    2.960000e+00
   P3r   X1h  1 4.700000e-01    2.960000e+00
   P3h  C6vr  1 4.700000e-01    3.390000e+00
   P3r  C6vh  1 4.700000e-01    3.390000e+00
   P3h  C5vr  1 4.700000e-01    3.240000e+00
   P3r  C5vh  1 4.700000e-01    3.240000e+00
   P3h  C4vr  1 4.700000e-01    3.070000e+00
   P3r  C4vh  1 4.700000e-01    3.070000e+00
   P3h  C3vr  1 4.700000e-01    2.790000e+00
   P3r  C3vh  1 4.700000e-01    2.790000e+00
   P3h  C2vr  1 4.700000e-01    2.790000e+00
   P3r  C2vh  1 4.700000e-01    2.790000e+00
   P3h  C1vr  1 4.700000e-01    2.620000e+00
   P3r  C1vh  1 4.700000e-01    2.620000e+00
   P3h  X4vr  1 4.700000e-01    3.390000e+00
   P3r  X4vh  1 4.700000e-01    3.390000e+00
   P3h  X3vr  1 4.700000e-01    3.390000e+00
   P3r  X3vh  1 4.700000e-01    3.390000e+00
   P3h  X2vr  1 4.700000e-01    3.240000e+00
   P3r  X2vh  1 4.700000e-01    3.240000e+00
   P3h  X1vr  1 4.700000e-01    3.070000e+00
   P3r  X1vh  1 4.700000e-01    3.070000e+00
   P3h  C6er  1 4.700000e-01    3.390000e+00
   P3r  C6eh  1 4.700000e-01    3.390000e+00
   P3h  C5er  1 4.700000e-01    3.240000e+00
   P3r  C5eh  1 4.700000e-01    3.240000e+00
   P3h  C4er  1 4.700000e-01    3.070000e+00
   P3r  C4eh  1 4.700000e-01    3.070000e+00
   P3h  C3er  1 4.700000e-01    2.790000e+00
   P3r  C3eh  1 4.700000e-01    2.790000e+00
   P3h  C2er  1 4.700000e-01    2.790000e+00
   P3r  C2eh  1 4.700000e-01    2.790000e+00
   P3h  C1er  1 4.700000e-01    2.620000e+00
   P3r  C1eh  1 4.700000e-01    2.620000e+00
   P3h  X4er  1 4.700000e-01    3.390000e+00
   P3r  X4eh  1 4.700000e-01    3.390000e+00
   P3h  X3er  1 4.700000e-01    3.390000e+00
   P3r  X3eh  1 4.700000e-01    3.390000e+00
   P3h  X2er  1 4.700000e-01    3.240000e+00
   P3r  X2eh  1 4.700000e-01    3.240000e+00
   P3h  X1er  1 4.700000e-01    3.070000e+00
   P3r  X1eh  1 4.700000e-01    3.070000e+00
   P2h   C6r  1 4.700000e-01    3.240000e+00
   P2r   C6h  1 4.700000e-01    3.240000e+00
   P2h   C5r  1 4.700000e-01    3.070000e+00
   P2r   C5h  1 4.700000e-01    3.070000e+00
   P2h   C4r  1 4.700000e-01    2.960000e+00
   P2r   C4h  1 4.700000e-01    2.960000e+00
   P2h   C3r  1 4.700000e-01    2.790000e+00
   P2r   C3h  1 4.700000e-01    2.790000e+00
   P2h   C2r  1 4.700000e-01    2.790000e+00
   P2r   C2h  1 4.700000e-01    2.790000e+00
   P2h   C1r  1 4.700000e-01    2.620000e+00
   P2r   C1h  1 4.700000e-01    2.620000e+00
   P2h   X4r  1 4.700000e-01    3.240000e+00
   P2r   X4h  1 4.700000e-01    3.240000e+00
   P2h   X3r  1 4.700000e-01    3.240000e+00
   P2r   X3h  1 4.700000e-01    3.240000e+00
   P2h   X2r  1 4.700000e-01    3.070000e+00
   P2r   X2h  1 4.700000e-01    3.070000e+00
   P2h   X1r  1 4.700000e-01    2.960000e+00
   P2r   X1h  1 4.700000e-01    2.960000e+00
   P2h  C6vr  1 4.700000e-01    3.390000e+00
   P2r  C6vh  1 4.700000e-01    3.390000e+00
   P2h  C5vr  1 4.700000e-01    3.240000e+00
   P2r  C5vh  1 4.700000e-01    3.240000e+00
   P2h  C4vr  1 4.700000e-01    3.070000e+00
   P2r  C4vh  1 4.700000e-01    3.070000e+00
   P2h  C3vr  1 4.700000e-01    2.960000e+00
   P2r  C3vh  1 4.700000e-01    2.960000e+00
   P2h  C2vr  1 4.700000e-01    2.960000e+00
   P2r  C2vh  1 4.700000e-01    2.960000e+00
   P2h  C1vr  1 4.700000e-01    2.790000e+00
   P2r  C1vh  1 4.700000e-01    2.790000e+00
   P2h  X4vr  1 4.700000e-01    3.390000e+00
   P2r  X4vh  1 4.700000e-01    3.390000e+00
   P2h  X3vr  1 4.700000e-01    3.390000e+00
   P2r  X3vh  1 4.700000e-01    3.390000e+00
   P2h  X2vr  1 4.700000e-01    3.240000e+00
   P2r  X2vh  1 4.700000e-01    3.240000e+00
   P2h  X1vr  1 4.700000e-01    3.070000e+00
   P2r  X1vh  1 4.700000e-01    3.070000e+00
   P2h  C6er  1 4.700000e-01    3.390000e+00
   P2r  C6eh  1 4.700000e-01    3.390000e+00
   P2h  C5er  1 4.700000e-01    3.240000e+00
   P2r  C5eh  1 4.700000e-01    3.240000e+00
   P2h  C4er  1 4.700000e-01    3.070000e+00
   P2r  C4eh  1 4.700000e-01    3.070000e+00
   P2h  C3er  1 4.700000e-01    2.960000e+00
   P2r  C3eh  1 4.700000e-01    2.960000e+00
   P2h  C2er  1 4.700000e-01    2.960000e+00
   P2r  C2eh  1 4.700000e-01    2.960000e+00
   P2h  C1er  1 4.700000e-01    2.790000e+00
   P2r  C1eh  1 4.700000e-01    2.790000e+00
   P2h  X4er  1 4.700000e-01    3.390000e+00
   P2r  X4eh  1 4.700000e-01    3.390000e+00
   P2h  X3er  1 4.700000e-01    3.390000e+00
   P2r  X3eh  1 4.700000e-01    3.390000e+00
   P2h  X2er  1 4.700000e-01    3.240000e+00
   P2r  X2eh  1 4.700000e-01    3.240000e+00
   P2h  X1er  1 4.700000e-01    3.070000e+00
   P2r  X1eh  1 4.700000e-01    3.070000e+00
   P1h   C6r  1 4.700000e-01    3.240000e+00
   P1r   C6h  1 4.700000e-01    3.240000e+00
   P1h   C5r  1 4.700000e-01    3.070000e+00
   P1r   C5h  1 4.700000e-01    3.070000e+00
   P1h   C4r  1 4.700000e-01    2.960000e+00
   P1r   C4h  1 4.700000e-01    2.960000e+00
   P1h   C3r  1 4.700000e-01    2.790000e+00
   P1r   C3h  1 4.700000e-01    2.790000e+00
   P1h   C2r  1 4.700000e-01    2.790000e+00
   P1r   C2h  1 4.700000e-01    2.790000e+00
   P1h   C1r  1 4.700000e-01    2.620000e+00
   P1r   C1h  1 4.700000e-01    2.620000e+00
   P1h   X4r  1 4.700000e-01    3.240000e+00
   P1r   X4h  1 4.700000e-01    3.240000e+00
   P1h   X3r  1 4.700000e-01    3.240000e+00
   P1r   X3h  1 4.700000e-01    3.240000e+00
   P1h   X2r  1 4.700000e-01    3.070000e+00
   P1r   X2h  1 4.700000e-01    3.070000e+00
   P1h   X1r  1 4.700000e-01    2.960000e+00
   P1r   X1h  1 4.700000e-01    2.960000e+00
   P1h  C6vr  1 4.700000e-01    3.390000e+00
   P1r  C6vh  1 4.700000e-01    3.390000e+00
   P1h  C5vr  1 4.700000e-01    3.240000e+00
   P1r  C5vh  1 4.700000e-01    3.240000e+00
   P1h  C4vr  1 4.700000e-01    3.070000e+00
   P1r  C4vh  1 4.700000e-01    3.070000e+00
   P1h  C3vr  1 4.700000e-01    2.960000e+00
   P1r  C3vh  1 4.700000e-01    2.960000e+00
   P1h  C2vr  1 4.700000e-01    2.960000e+00
   P1r  C2vh  1 4.700000e-01    2.960000e+00
   P1h  C1vr  1 4.700000e-01    2.790000e+00
   P1r  C1vh  1 4.700000e-01    2.790000e+00
   P1h  X4vr  1 4.700000e-01    3.390000e+00
   P1r  X4vh  1 4.700000e-01    3.390000e+00
   P1h  X3vr  1 4.700000e-01    3.390000e+00
   P1r  X3vh  1 4.700000e-01    3.390000e+00
   P1h  X2vr  1 4.700000e-01    3.240000e+00
   P1r  X2vh  1 4.700000e-01    3.240000e+00
   P1h  X1vr  1 4.700000e-01    3.070000e+00
   P1r  X1vh  1 4.700000e-01    3.070000e+00
   P1h  C6er  1 4.700000e-01    3.390000e+00
   P1r  C6eh  1 4.700000e-01    3.390000e+00
   P1h  C5er  1 4.700000e-01    3.240000e+00
   P1r  C5eh  1 4.700000e-01    3.240000e+00
   P1h  C4er  1 4.700000e-01    3.070000e+00
   P1r  C4eh  1 4.700000e-01    3.070000e+00
   P1h  C3er  1 4.700000e-01    2.960000e+00
   P1r  C3eh  1 4.700000e-01    2.960000e+00
   P1h  C2er  1 4.700000e-01    2.960000e+00
   P1r  C2eh  1 4.700000e-01    2.960000e+00
   P1h  C1er  1 4.700000e-01    2.790000e+00
   P1r  C1eh  1 4.700000e-01    2.790000e+00
   P1h  X4er  1 4.700000e-01    3.390000e+00
   P1r  X4eh  1 4.700000e-01    3.390000e+00
   P1h  X3er  1 4.700000e-01    3.390000e+00
   P1r  X3eh  1 4.700000e-01    3.390000e+00
   P1h  X2er  1 4.700000e-01    3.240000e+00
   P1r  X2eh  1 4.700000e-01    3.240000e+00
   P1h  X1er  1 4.700000e-01    3.070000e+00
   P1r  X1eh  1 4.700000e-01    3.070000e+00
   N6h   C6r  1 4.700000e-01    3.390000e+00
   N6r   C6h  1 4.700000e-01    3.390000e+00
   N6h   C5r  1 4.700000e-01    3.240000e+00
   N6r   C5h  1 4.700000e-01    3.240000e+00
   N6h   C4r  1 4.700000e-01    3.070000e+00
   N6r   C4h  1 4.700000e-01    3.070000e+00
   N6h   C3r  1 4.700000e-01    2.960000e+00
   N6r   C3h  1 4.700000e-01    2.960000e+00
   N6h   C2r  1 4.700000e-01    2.960000e+00
   N6r   C2h  1 4.700000e-01    2.960000e+00
   N6h   C1r  1 4.700000e-01    2.790000e+00
   N6r   C1h  1 4.700000e-01    2.790000e+00
   N6h   X4r  1 4.700000e-01    3.390000e+00
   N6r   X4h  1 4.700000e-01    3.390000e+00
   N6h   X3r  1 4.700000e-01    3.240000e+00
   N6r   X3h  1 4.700000e-01    3.240000e+00
   N6h   X2r  1 4.700000e-01    3.070000e+00
   N6r   X2h  1 4.700000e-01    3.070000e+00
   N6h   X1r  1 4.700000e-01    2.960000e+00
   N6r   X1h  1 4.700000e-01    2.960000e+00
   N6h  C6vr  1 4.700000e-01    3.520000e+00
   N6r  C6vh  1 4.700000e-01    3.520000e+00
   N6h  C5vr  1 4.700000e-01    3.390000e+00
   N6r  C5vh  1 4.700000e-01    3.390000e+00
   N6h  C4vr  1 4.700000e-01    3.240000e+00
   N6r  C4vh  1 4.700000e-01    3.240000e+00
   N6h  C3vr  1 4.700000e-01    3.070000e+00
   N6r  C3vh  1 4.700000e-01    3.070000e+00
   N6h  C2vr  1 4.700000e-01    3.070000e+00
   N6r  C2vh  1 4.700000e-01    3.070000e+00
   N6h  C1vr  1 4.700000e-01    2.960000e+00
   N6r  C1vh  1 4.700000e-01    2.960000e+00
   N6h  X4vr  1 4.700000e-01    3.520000e+00
   N6r  X4vh  1 4.700000e-01    3.520000e+00
   N6h  X3vr  1 4.700000e-01    3.390000e+00
   N6r  X3vh  1 4.700000e-01    3.390000e+00
   N6h  X2vr  1 4.700000e-01    3.240000e+00
   N6r  X2vh  1 4.700000e-01    3.240000e+00
   N6h  X1vr  1 4.700000e-01    3.070000e+00
   N6r  X1vh  1 4.700000e-01    3.070000e+00
   N6h  C6er  1 4.700000e-01    3.520000e+00
   N6r  C6eh  1 4.700000e-01    3.520000e+00
   N6h  C5er  1 4.700000e-01    3.390000e+00
   N6r  C5eh  1 4.700000e-01    3.390000e+00
   N6h  C4er  1 4.700000e-01    3.240000e+00
   N6r  C4eh  1 4.700000e-01    3.240000e+00
   N6h  C3er  1 4.700000e-01    3.070000e+00
   N6r  C3eh  1 4.700000e-01    3.070000e+00
   N6h  C2er  1 4.700000e-01    3.070000e+00
   N6r  C2eh  1 4.700000e-01    3.070000e+00
   N6h  C1er  1 4.700000e-01    2.960000e+00
   N6r  C1eh  1 4.700000e-01    2.960000e+00
   N6h  X4er  1 4.700000e-01    3.520000e+00
   N6r  X4eh  1 4.700000e-01    3.520000e+00
   N6h  X3er  1 4.700000e-01    3.390000e+00
   N6r  X3eh  1 4.700000e-01    3.390000e+00
   N6h  X2er  1 4.700000e-01    3.240000e+00
   N6r  X2eh  1 4.700000e-01    3.240000e+00
   N6h  X1er  1 4.700000e-01    3.070000e+00
   N6r  X1eh  1 4.700000e-01    3.070000e+00
   N5h   C6r  1 4.700000e-01    3.390000e+00
   N5r   C6h  1 4.700000e-01    3.390000e+00
   N5h   C5r  1 4.700000e-01    3.240000e+00
   N5r   C5h  1 4.700000e-01    3.240000e+00
   N5h   C4r  1 4.700000e-01    3.070000e+00
   N5r   C4h  1 4.700000e-01    3.070000e+00
   N5h   C3r  1 4.700000e-01    3.070000e+00
   N5r   C3h  1 4.700000e-01    3.070000e+00
   N5h   C2r  1 4.700000e-01    2.960000e+00
   N5r   C2h  1 4.700000e-01    2.960000e+00
   N5h   C1r  1 4.700000e-01    2.790000e+00
   N5r   C1h  1 4.700000e-01    2.790000e+00
   N5h   X4r  1 4.700000e-01    3.520000e+00
   N5r   X4h  1 4.700000e-01    3.520000e+00
   N5h   X3r  1 4.700000e-01    3.390000e+00
   N5r   X3h  1 4.700000e-01    3.390000e+00
   N5h   X2r  1 4.700000e-01    3.240000e+00
   N5r   X2h  1 4.700000e-01    3.240000e+00
   N5h   X1r  1 4.700000e-01    3.070000e+00
   N5r   X1h  1 4.700000e-01    3.070000e+00
   N5h  C6vr  1 4.700000e-01    3.520000e+00
   N5r  C6vh  1 4.700000e-01    3.520000e+00
   N5h  C5vr  1 4.700000e-01    3.390000e+00
   N5r  C5vh  1 4.700000e-01    3.390000e+00
   N5h  C4vr  1 4.700000e-01    3.240000e+00
   N5r  C4vh  1 4.700000e-01    3.240000e+00
   N5h  C3vr  1 4.700000e-01    3.240000e+00
   N5r  C3vh  1 4.700000e-01    3.240000e+00
   N5h  C2vr  1 4.700000e-01    3.070000e+00
   N5r  C2vh  1 4.700000e-01    3.070000e+00
   N5h  C1vr  1 4.700000e-01    2.960000e+00
   N5r  C1vh  1 4.700000e-01    2.960000e+00
   N5h  X4vr  1 4.700000e-01    3.690000e+00
   N5r  X4vh  1 4.700000e-01    3.690000e+00
   N5h  X3vr  1 4.700000e-01    3.520000e+00
   N5r  X3vh  1 4.700000e-01    3.520000e+00
   N5h  X2vr  1 4.700000e-01    3.390000e+00
   N5r  X2vh  1 4.700000e-01    3.390000e+00
   N5h  X1vr  1 4.700000e-01    3.240000e+00
   N5r  X1vh  1 4.700000e-01    3.240000e+00
   N5h  C6er  1 4.700000e-01    3.520000e+00
   N5r  C6eh  1 4.700000e-01    3.520000e+00
   N5h  C5er  1 4.700000e-01    3.390000e+00
   N5r  C5eh  1 4.700000e-01    3.390000e+00
   N5h  C4er  1 4.700000e-01    3.240000e+00
   N5r  C4eh  1 4.700000e-01    3.240000e+00
   N5h  C3er  1 4.700000e-01    3.240000e+00
   N5r  C3eh  1 4.700000e-01    3.240000e+00
   N5h  C2er  1 4.700000e-01    3.070000e+00
   N5r  C2eh  1 4.700000e-01    3.070000e+00
   N5h  C1er  1 4.700000e-01    2.960000e+00
   N5r  C1eh  1 4.700000e-01    2.960000e+00
   N5h  X4er  1 4.700000e-01    3.690000e+00
   N5r  X4eh  1 4.700000e-01    3.690000e+00
   N5h  X3er  1 4.700000e-01    3.520000e+00
   N5r  X3eh  1 4.700000e-01    3.520000e+00
   N5h  X2er  1 4.700000e-01    3.390000e+00
   N5r  X2eh  1 4.700000e-01    3.390000e+00
   N5h  X1er  1 4.700000e-01    3.240000e+00
   N5r  X1eh  1 4.700000e-01    3.240000e+00
   N4h   C6r  1 4.700000e-01    3.390000e+00
   N4r   C6h  1 4.700000e-01    3.390000e+00
   N4h   C5r  1 4.700000e-01    3.240000e+00
   N4r   C5h  1 4.700000e-01    3.240000e+00
   N4h   C4r  1 4.700000e-01    3.240000e+00
   N4r   C4h  1 4.700000e-01    3.240000e+00
   N4h   C3r  1 4.700000e-01    3.070000e+00
   N4r   C3h  1 4.700000e-01    3.070000e+00
   N4h   C2r  1 4.700000e-01    2.960000e+00
   N4r   C2h  1 4.700000e-01    2.960000e+00
   N4h   C1r  1 4.700000e-01    2.790000e+00
   N4r   C1h  1 4.700000e-01    2.790000e+00
   N4h   X4r  1 4.700000e-01    3.690000e+00
   N4r   X4h  1 4.700000e-01    3.690000e+00
   N4h   X3r  1 4.700000e-01    3.520000e+00
   N4r   X3h  1 4.700000e-01    3.520000e+00
   N4h   X2r  1 4.700000e-01    3.240000e+00
   N4r   X2h  1 4.700000e-01    3.240000e+00
   N4h   X1r  1 4.700000e-01    3.070000e+00
   N4r   X1h  1 4.700000e-01    3.070000e+00
   N4h  C6vr  1 4.700000e-01    3.520000e+00
   N4r  C6vh  1 4.700000e-01    3.520000e+00
   N4h  C5vr  1 4.700000e-01    3.390000e+00
   N4r  C5vh  1 4.700000e-01    3.390000e+00
   N4h  C4vr  1 4.700000e-01    3.390000e+00
   N4r  C4vh  1 4.700000e-01    3.390000e+00
   N4h  C3vr  1 4.700000e-01    3.240000e+00
   N4r  C3vh  1 4.700000e-01    3.240000e+00
   N4h  C2vr  1 4.700000e-01    3.070000e+00
   N4r  C2vh  1 4.700000e-01    3.070000e+00
   N4h  C1vr  1 4.700000e-01    2.960000e+00
   N4r  C1vh  1 4.700000e-01    2.960000e+00
   N4h  X4vr  1 4.700000e-01    3.880000e+00
   N4r  X4vh  1 4.700000e-01    3.880000e+00
   N4h  X3vr  1 4.700000e-01    3.690000e+00
   N4r  X3vh  1 4.700000e-01    3.690000e+00
   N4h  X2vr  1 4.700000e-01    3.390000e+00
   N4r  X2vh  1 4.700000e-01    3.390000e+00
   N4h  X1vr  1 4.700000e-01    3.240000e+00
   N4r  X1vh  1 4.700000e-01    3.240000e+00
   N4h  C6er  1 4.700000e-01    3.520000e+00
   N4r  C6eh  1 4.700000e-01    3.520000e+00
   N4h  C5er  1 4.700000e-01    3.390000e+00
   N4r  C5eh  1 4.700000e-01    3.390000e+00
   N4h  C4er  1 4.700000e-01    3.390000e+00
   N4r  C4eh  1 4.700000e-01    3.390000e+00
   N4h  C3er  1 4.700000e-01    3.240000e+00
   N4r  C3eh  1 4.700000e-01    3.240000e+00
   N4h  C2er  1 4.700000e-01    3.070000e+00
   N4r  C2eh  1 4.700000e-01    3.070000e+00
   N4h  C1er  1 4.700000e-01    2.960000e+00
   N4r  C1eh  1 4.700000e-01    2.960000e+00
   N4h  X4er  1 4.700000e-01    3.880000e+00
   N4r  X4eh  1 4.700000e-01    3.880000e+00
   N4h  X3er  1 4.700000e-01    3.690000e+00
   N4r  X3eh  1 4.700000e-01    3.690000e+00
   N4h  X2er  1 4.700000e-01    3.390000e+00
   N4r  X2eh  1 4.700000e-01    3.390000e+00
   N4h  X1er  1 4.700000e-01    3.240000e+00
   N4r  X1eh  1 4.700000e-01    3.240000e+00
   N3h   C6r  1 4.700000e-01    3.390000e+00
   N3r   C6h  1 4.700000e-01    3.390000e+00
   N3h   C5r  1 4.700000e-01    3.240000e+00
   N3r   C5h  1 4.700000e-01    3.240000e+00
   N3h   C4r  1 4.700000e-01    3.240000e+00
   N3r   C4h  1 4.700000e-01    3.240000e+00
   N3h   C3r  1 4.700000e-01    3.070000e+00
   N3r   C3h  1 4.700000e-01    3.070000e+00
   N3h   C2r  1 4.700000e-01    3.070000e+00
   N3r   C2h  1 4.700000e-01    3.070000e+00
   N3h   C1r  1 4.700000e-01    2.960000e+00
   N3r   C1h  1 4.700000e-01    2.960000e+00
   N3h   X4r  1 4.700000e-01    3.520000e+00
   N3r   X4h  1 4.700000e-01    3.520000e+00
   N3h   X3r  1 4.700000e-01    3.390000e+00
   N3r   X3h  1 4.700000e-01    3.390000e+00
   N3h   X2r  1 4.700000e-01    3.240000e+00
   N3r   X2h  1 4.700000e-01    3.240000e+00
   N3h   X1r  1 4.700000e-01    3.240000e+00
   N3r   X1h  1 4.700000e-01    3.240000e+00
   N3h  C6vr  1 4.700000e-01    3.520000e+00
   N3r  C6vh  1 4.700000e-01    3.520000e+00
   N3h  C5vr  1 4.700000e-01    3.390000e+00
   N3r  C5vh  1 4.700000e-01    3.390000e+00
   N3h  C4vr  1 4.700000e-01    3.390000e+00
   N3r  C4vh  1 4.700000e-01    3.390000e+00
   N3h  C3vr  1 4.700000e-01    3.240000e+00
   N3r  C3vh  1 4.700000e-01    3.240000e+00
   N3h  C2vr  1 4.700000e-01    3.240000e+00
   N3r  C2vh  1 4.700000e-01    3.240000e+00
   N3h  C1vr  1 4.700000e-01    3.070000e+00
   N3r  C1vh  1 4.700000e-01    3.070000e+00
   N3h  X4vr  1 4.700000e-01    3.690000e+00
   N3r  X4vh  1 4.700000e-01    3.690000e+00
   N3h  X3vr  1 4.700000e-01    3.520000e+00
   N3r  X3vh  1 4.700000e-01    3.520000e+00
   N3h  X2vr  1 4.700000e-01    3.390000e+00
   N3r  X2vh  1 4.700000e-01    3.390000e+00
   N3h  X1vr  1 4.700000e-01    3.390000e+00
   N3r  X1vh  1 4.700000e-01    3.390000e+00
   N3h  C6er  1 4.700000e-01    3.520000e+00
   N3r  C6eh  1 4.700000e-01    3.520000e+00
   N3h  C5er  1 4.700000e-01    3.390000e+00
   N3r  C5eh  1 4.700000e-01    3.390000e+00
   N3h  C4er  1 4.700000e-01    3.390000e+00
   N3r  C4eh  1 4.700000e-01    3.390000e+00
   N3h  C3er  1 4.700000e-01    3.240000e+00
   N3r  C3eh  1 4.700000e-01    3.240000e+00
   N3h  C2er  1 4.700000e-01    3.240000e+00
   N3r  C2eh  1 4.700000e-01    3.240000e+00
   N3h  C1er  1 4.700000e-01    3.070000e+00
   N3r  C1eh  1 4.700000e-01    3.070000e+00
   N3h  X4er  1 4.700000e-01    3.690000e+00
   N3r  X4eh  1 4.700000e-01    3.690000e+00
   N3h  X3er  1 4.700000e-01    3.520000e+00
   N3r  X3eh  1 4.700000e-01    3.520000e+00
   N3h  X2er  1 4.700000e-01    3.390000e+00
   N3r  X2eh  1 4.700000e-01    3.390000e+00
   N3h  X1er  1 4.700000e-01    3.390000e+00
   N3r  X1eh  1 4.700000e-01    3.390000e+00
   N2h   C6r  1 4.700000e-01    3.390000e+00
   N2r   C6h  1 4.700000e-01    3.390000e+00
   N2h   C5r  1 4.700000e-01    3.240000e+00
   N2r   C5h  1 4.700000e-01    3.240000e+00
   N2h   C4r  1 4.700000e-01    3.240000e+00
   N2r   C4h  1 4.700000e-01    3.240000e+00
   N2h   C3r  1 4.700000e-01    3.240000e+00
   N2r   C3h  1 4.700000e-01    3.240000e+00
   N2h   C2r  1 4.700000e-01    3.070000e+00
   N2r   C2h  1 4.700000e-01    3.070000e+00
   N2h   C1r  1 4.700000e-01    2.960000e+00
   N2r   C1h  1 4.700000e-01    2.960000e+00
   N2h   X4r  1 4.700000e-01    3.520000e+00
   N2r   X4h  1 4.700000e-01    3.520000e+00
   N2h   X3r  1 4.700000e-01    3.390000e+00
   N2r   X3h  1 4.700000e-01    3.390000e+00
   N2h   X2r  1 4.700000e-01    3.240000e+00
   N2r   X2h  1 4.700000e-01    3.240000e+00
   N2h   X1r  1 4.700000e-01    3.240000e+00
   N2r   X1h  1 4.700000e-01    3.240000e+00
   N2h  C6vr  1 4.700000e-01    3.520000e+00
   N2r  C6vh  1 4.700000e-01    3.520000e+00
   N2h  C5vr  1 4.700000e-01    3.390000e+00
   N2r  C5vh  1 4.700000e-01    3.390000e+00
   N2h  C4vr  1 4.700000e-01    3.390000e+00
   N2r  C4vh  1 4.700000e-01    3.390000e+00
   N2h  C3vr  1 4.700000e-01    3.390000e+00
   N2r  C3vh  1 4.700000e-01    3.390000e+00
   N2h  C2vr  1 4.700000e-01    3.240000e+00
   N2r  C2vh  1 4.700000e-01    3.240000e+00
   N2h  C1vr  1 4.700000e-01    3.070000e+00
   N2r  C1vh  1 4.700000e-01    3.070000e+00
   N2h  X4vr  1 4.700000e-01    3.690000e+00
   N2r  X4vh  1 4.700000e-01    3.690000e+00
   N2h  X3vr  1 4.700000e-01    3.520000e+00
   N2r  X3vh  1 4.700000e-01    3.520000e+00
   N2h  X2vr  1 4.700000e-01    3.390000e+00
   N2r  X2vh  1 4.700000e-01    3.390000e+00
   N2h  X1vr  1 4.700000e-01    3.390000e+00
   N2r  X1vh  1 4.700000e-01    3.390000e+00
   N2h  C6er  1 4.700000e-01    3.520000e+00
   N2r  C6eh  1 4.700000e-01    3.520000e+00
   N2h  C5er  1 4.700000e-01    3.390000e+00
   N2r  C5eh  1 4.700000e-01    3.390000e+00
   N2h  C4er  1 4.700000e-01    3.390000e+00
   N2r  C4eh  1 4.700000e-01    3.390000e+00
   N2h  C3er  1 4.700000e-01    3.390000e+00
   N2r  C3eh  1 4.700000e-01    3.390000e+00
   N2h  C2er  1 4.700000e-01    3.240000e+00
   N2r  C2eh  1 4.700000e-01    3.240000e+00
   N2h  C1er  1 4.700000e-01    3.070000e+00
   N2r  C1eh  1 4.700000e-01    3.070000e+00
   N2h  X4er  1 4.700000e-01    3.690000e+00
   N2r  X4eh  1 4.700000e-01    3.690000e+00
   N2h  X3er  1 4.700000e-01    3.520000e+00
   N2r  X3eh  1 4.700000e-01    3.520000e+00
   N2h  X2er  1 4.700000e-01    3.390000e+00
   N2r  X2eh  1 4.700000e-01    3.390000e+00
   N2h  X1er  1 4.700000e-01    3.390000e+00
   N2r  X1eh  1 4.700000e-01    3.390000e+00
   N1h   C6r  1 4.700000e-01    3.520000e+00
   N1r   C6h  1 4.700000e-01    3.520000e+00
   N1h   C5r  1 4.700000e-01    3.390000e+00
   N1r   C5h  1 4.700000e-01    3.390000e+00
   N1h   C4r  1 4.700000e-01    3.390000e+00
   N1r   C4h  1 4.700000e-01    3.390000e+00
   N1h   C3r  1 4.700000e-01    3.240000e+00
   N1r   C3h  1 4.700000e-01    3.240000e+00
   N1h   C2r  1 4.700000e-01    3.070000e+00
   N1r   C2h  1 4.700000e-01    3.070000e+00
   N1h   C1r  1 4.700000e-01    2.960000e+00
   N1r   C1h  1 4.700000e-01    2.960000e+00
   N1h   X4r  1 4.700000e-01    3.390000e+00
   N1r   X4h  1 4.700000e-01    3.390000e+00
   N1h   X3r  1 4.700000e-01    3.390000e+00
   N1r   X3h  1 4.700000e-01    3.390000e+00
   N1h   X2r  1 4.700000e-01    3.240000e+00
   N1r   X2h  1 4.700000e-01    3.240000e+00
   N1h   X1r  1 4.700000e-01    3.240000e+00
   N1r   X1h  1 4.700000e-01    3.240000e+00
   N1h  C6vr  1 4.700000e-01    3.690000e+00
   N1r  C6vh  1 4.700000e-01    3.690000e+00
   N1h  C5vr  1 4.700000e-01    3.520000e+00
   N1r  C5vh  1 4.700000e-01    3.520000e+00
   N1h  C4vr  1 4.700000e-01    3.520000e+00
   N1r  C4vh  1 4.700000e-01    3.520000e+00
   N1h  C3vr  1 4.700000e-01    3.390000e+00
   N1r  C3vh  1 4.700000e-01    3.390000e+00
   N1h  C2vr  1 4.700000e-01    3.240000e+00
   N1r  C2vh  1 4.700000e-01    3.240000e+00
   N1h  C1vr  1 4.700000e-01    3.070000e+00
   N1r  C1vh  1 4.700000e-01    3.070000e+00
   N1h  X4vr  1 4.700000e-01    3.520000e+00
   N1r  X4vh  1 4.700000e-01    3.520000e+00
   N1h  X3vr  1 4.700000e-01    3.520000e+00
   N1r  X3vh  1 4.700000e-01    3.520000e+00
   N1h  X2vr  1 4.700000e-01    3.390000e+00
   N1r  X2vh  1 4.700000e-01    3.390000e+00
   N1h  X1vr  1 4.700000e-01    3.390000e+00
   N1r  X1vh  1 4.700000e-01    3.390000e+00
   N1h  C6er  1 4.700000e-01    3.690000e+00
   N1r  C6eh  1 4.700000e-01    3.690000e+00
   N1h  C5er  1 4.700000e-01    3.520000e+00
   N1r  C5eh  1 4.700000e-01    3.520000e+00
   N1h  C4er  1 4.700000e-01    3.520000e+00
   N1r  C4eh  1 4.700000e-01    3.520000e+00
   N1h  C3er  1 4.700000e-01    3.390000e+00
   N1r  C3eh  1 4.700000e-01    3.390000e+00
   N1h  C2er  1 4.700000e-01    3.240000e+00
   N1r  C2eh  1 4.700000e-01    3.240000e+00
   N1h  C1er  1 4.700000e-01    3.070000e+00
   N1r  C1eh  1 4.700000e-01    3.070000e+00
   N1h  X4er  1 4.700000e-01    3.520000e+00
   N1r  X4eh  1 4.700000e-01    3.520000e+00
   N1h  X3er  1 4.700000e-01    3.520000e+00
   N1r  X3eh  1 4.700000e-01    3.520000e+00
   N1h  X2er  1 4.700000e-01    3.390000e+00
   N1r  X2eh  1 4.700000e-01    3.390000e+00
   N1h  X1er  1 4.700000e-01    3.390000e+00
   N1r  X1eh  1 4.700000e-01    3.390000e+00
  P6dh   C6r  1 4.700000e-01    2.960000e+00
  P6dr   C6h  1 4.700000e-01    2.960000e+00
  P6dh   C5r  1 4.700000e-01    2.790000e+00
  P6dr   C5h  1 4.700000e-01    2.790000e+00
  P6dh   C4r  1 4.700000e-01    2.620000e+00
  P6dr   C4h  1 4.700000e-01    2.620000e+00
  P6dh   C3r  1 4.700000e-01    2.440000e+00
  P6dr   C3h  1 4.700000e-01    2.440000e+00
  P6dh   C2r  1 4.700000e-01    2.440000e+00
  P6dr   C2h  1 4.700000e-01    2.440000e+00
  P6dh   C1r  1 5.200000e-01    2.120000e+00
  P6dr   C1h  1 5.200000e-01    2.120000e+00
  P6dh   X4r  1 4.700000e-01    3.070000e+00
  P6dr   X4h  1 4.700000e-01    3.070000e+00
  P6dh   X3r  1 4.700000e-01    3.070000e+00
  P6dr   X3h  1 4.700000e-01    3.070000e+00
  P6dh   X2r  1 4.700000e-01    2.960000e+00
  P6dr   X2h  1 4.700000e-01    2.960000e+00
  P6dh   X1r  1 4.700000e-01    2.790000e+00
  P6dr   X1h  1 4.700000e-01    2.790000e+00
  P5dh   C6r  1 4.700000e-01    2.960000e+00
  P5dr   C6h  1 4.700000e-01    2.960000e+00
  P5dh   C5r  1 4.700000e-01    2.960000e+00
  P5dr   C5h  1 4.700000e-01    2.960000e+00
  P5dh   C4r  1 4.700000e-01    2.790000e+00
  P5dr   C4h  1 4.700000e-01    2.790000e+00
  P5dh   C3r  1 4.700000e-01    2.620000e+00
  P5dr   C3h  1 4.700000e-01    2.620000e+00
  P5dh   C2r  1 4.700000e-01    2.620000e+00
  P5dr   C2h  1 4.700000e-01    2.620000e+00
  P5dh   C1r  1 4.700000e-01    2.440000e+00
  P5dr   C1h  1 4.700000e-01    2.440000e+00
  P5dh   X4r  1 4.700000e-01    3.240000e+00
  P5dr   X4h  1 4.700000e-01    3.240000e+00
  P5dh   X3r  1 4.700000e-01    3.070000e+00
  P5dr   X3h  1 4.700000e-01    3.070000e+00
  P5dh   X2r  1 4.700000e-01    3.070000e+00
  P5dr   X2h  1 4.700000e-01    3.070000e+00
  P5dh   X1r  1 4.700000e-01    2.790000e+00
  P5dr   X1h  1 4.700000e-01    2.790000e+00
  P4dh   C6r  1 4.700000e-01    3.070000e+00
  P4dr   C6h  1 4.700000e-01    3.070000e+00
  P4dh   C5r  1 4.700000e-01    2.960000e+00
  P4dr   C5h  1 4.700000e-01    2.960000e+00
  P4dh   C4r  1 4.700000e-01    2.790000e+00
  P4dr   C4h  1 4.700000e-01    2.790000e+00
  P4dh   C3r  1 4.700000e-01    2.620000e+00
  P4dr   C3h  1 4.700000e-01    2.620000e+00
  P4dh   C2r  1 4.700000e-01    2.620000e+00
  P4dr   C2h  1 4.700000e-01    2.620000e+00
  P4dh   C1r  1 4.700000e-01    2.440000e+00
  P4dr   C1h  1 4.700000e-01    2.440000e+00
  P4dh   X4r  1 4.700000e-01    3.240000e+00
  P4dr   X4h  1 4.700000e-01    3.240000e+00
  P4dh   X3r  1 4.700000e-01    3.070000e+00
  P4dr   X3h  1 4.700000e-01    3.070000e+00
  P4dh   X2r  1 4.700000e-01    3.070000e+00
  P4dr   X2h  1 4.700000e-01    3.070000e+00
  P4dh   X1r  1 4.700000e-01    2.960000e+00
  P4dr   X1h  1 4.700000e-01    2.960000e+00
  P3dh   C6r  1 4.700000e-01    3.240000e+00
  P3dr   C6h  1 4.700000e-01    3.240000e+00
  P3dh   C5r  1 4.700000e-01    3.070000e+00
  P3dr   C5h  1 4.700000e-01    3.070000e+00
  P3dh   C4r  1 4.700000e-01    2.960000e+00
  P3dr   C4h  1 4.700000e-01    2.960000e+00
  P3dh   C3r  1 4.700000e-01    2.620000e+00
  P3dr   C3h  1 4.700000e-01    2.620000e+00
  P3dh   C2r  1 4.700000e-01    2.620000e+00
  P3dr   C2h  1 4.700000e-01    2.620000e+00
  P3dh   C1r  1 4.700000e-01    2.440000e+00
  P3dr   C1h  1 4.700000e-01    2.440000e+00
  P3dh   X4r  1 4.700000e-01    3.240000e+00
  P3dr   X4h  1 4.700000e-01    3.240000e+00
  P3dh   X3r  1 4.700000e-01    3.240000e+00
  P3dr   X3h  1 4.700000e-01    3.240000e+00
  P3dh   X2r  1 4.700000e-01    3.070000e+00
  P3dr   X2h  1 4.700000e-01    3.070000e+00
  P3dh   X1r  1 4.700000e-01    2.960000e+00
  P3dr   X1h  1 4.700000e-01    2.960000e+00
  P2dh   C6r  1 4.700000e-01    3.240000e+00
  P2dr   C6h  1 4.700000e-01    3.240000e+00
  P2dh   C5r  1 4.700000e-01    3.070000e+00
  P2dr   C5h  1 4.700000e-01    3.070000e+00
  P2dh   C4r  1 4.700000e-01    2.960000e+00
  P2dr   C4h  1 4.700000e-01    2.960000e+00
  P2dh   C3r  1 4.700000e-01    2.790000e+00
  P2dr   C3h  1 4.700000e-01    2.790000e+00
  P2dh   C2r  1 4.700000e-01    2.790000e+00
  P2dr   C2h  1 4.700000e-01    2.790000e+00
  P2dh   C1r  1 4.700000e-01    2.620000e+00
  P2dr   C1h  1 4.700000e-01    2.620000e+00
  P2dh   X4r  1 4.700000e-01    3.240000e+00
  P2dr   X4h  1 4.700000e-01    3.240000e+00
  P2dh   X3r  1 4.700000e-01    3.240000e+00
  P2dr   X3h  1 4.700000e-01    3.240000e+00
  P2dh   X2r  1 4.700000e-01    3.070000e+00
  P2dr   X2h  1 4.700000e-01    3.070000e+00
  P2dh   X1r  1 4.700000e-01    2.960000e+00
  P2dr   X1h  1 4.700000e-01    2.960000e+00
  P1dh   C6r  1 4.700000e-01    3.240000e+00
  P1dr   C6h  1 4.700000e-01    3.240000e+00
  P1dh   C5r  1 4.700000e-01    3.070000e+00
  P1dr   C5h  1 4.700000e-01    3.070000e+00
  P1dh   C4r  1 4.700000e-01    2.960000e+00
  P1dr   C4h  1 4.700000e-01    2.960000e+00
  P1dh   C3r  1 4.700000e-01    2.790000e+00
  P1dr   C3h  1 4.700000e-01    2.790000e+00
  P1dh   C2r  1 4.700000e-01    2.790000e+00
  P1dr   C2h  1 4.700000e-01    2.790000e+00
  P1dh   C1r  1 4.700000e-01    2.620000e+00
  P1dr   C1h  1 4.700000e-01    2.620000e+00
  P1dh   X4r  1 4.700000e-01    3.240000e+00
  P1dr   X4h  1 4.700000e-01    3.240000e+00
  P1dh   X3r  1 4.700000e-01    3.240000e+00
  P1dr   X3h  1 4.700000e-01    3.240000e+00
  P1dh   X2r  1 4.700000e-01    3.070000e+00
  P1dr   X2h  1 4.700000e-01    3.070000e+00
  P1dh   X1r  1 4.700000e-01    2.960000e+00
  P1dr   X1h  1 4.700000e-01    2.960000e+00
  N6dh   C6r  1 4.700000e-01    3.390000e+00
  N6dr   C6h  1 4.700000e-01    3.390000e+00
  N6dh   C5r  1 4.700000e-01    3.240000e+00
  N6dr   C5h  1 4.700000e-01    3.240000e+00
  N6dh   C4r  1 4.700000e-01    3.070000e+00
  N6dr   C4h  1 4.700000e-01    3.070000e+00
  N6dh   C3r  1 4.700000e-01    2.960000e+00
  N6dr   C3h  1 4.700000e-01    2.960000e+00
  N6dh   C2r  1 4.700000e-01    2.960000e+00
  N6dr   C2h  1 4.700000e-01    2.960000e+00
  N6dh   C1r  1 4.700000e-01    2.790000e+00
  N6dr   C1h  1 4.700000e-01    2.790000e+00
  N6dh   X4r  1 4.700000e-01    3.390000e+00
  N6dr   X4h  1 4.700000e-01    3.390000e+00
  N6dh   X3r  1 4.700000e-01    3.240000e+00
  N6dr   X3h  1 4.700000e-01    3.240000e+00
  N6dh   X2r  1 4.700000e-01    3.070000e+00
  N6dr   X2h  1 4.700000e-01    3.070000e+00
  N6dh   X1r  1 4.700000e-01    2.960000e+00
  N6dr   X1h  1 4.700000e-01    2.960000e+00
  N5dh   C6r  1 4.700000e-01    3.390000e+00
  N5dr   C6h  1 4.700000e-01    3.390000e+00
  N5dh   C5r  1 4.700000e-01    3.240000e+00
  N5dr   C5h  1 4.700000e-01    3.240000e+00
  N5dh   C4r  1 4.700000e-01    3.070000e+00
  N5dr   C4h  1 4.700000e-01    3.070000e+00
  N5dh   C3r  1 4.700000e-01    3.070000e+00
  N5dr   C3h  1 4.700000e-01    3.070000e+00
  N5dh   C2r  1 4.700000e-01    2.960000e+00
  N5dr   C2h  1 4.700000e-01    2.960000e+00
  N5dh   C1r  1 4.700000e-01    2.790000e+00
  N5dr   C1h  1 4.700000e-01    2.790000e+00
  N5dh   X4r  1 4.700000e-01    3.520000e+00
  N5dr   X4h  1 4.700000e-01    3.520000e+00
  N5dh   X3r  1 4.700000e-01    3.390000e+00
  N5dr   X3h  1 4.700000e-01    3.390000e+00
  N5dh   X2r  1 4.700000e-01    3.240000e+00
  N5dr   X2h  1 4.700000e-01    3.240000e+00
  N5dh   X1r  1 4.700000e-01    3.070000e+00
  N5dr   X1h  1 4.700000e-01    3.070000e+00
  N4dh   C6r  1 4.700000e-01    3.390000e+00
  N4dr   C6h  1 4.700000e-01    3.390000e+00
  N4dh   C5r  1 4.700000e-01    3.240000e+00
  N4dr   C5h  1 4.700000e-01    3.240000e+00
  N4dh   C4r  1 4.700000e-01    3.240000e+00
  N4dr   C4h  1 4.700000e-01    3.240000e+00
  N4dh   C3r  1 4.700000e-01    3.070000e+00
  N4dr   C3h  1 4.700000e-01    3.070000e+00
  N4dh   C2r  1 4.700000e-01    2.960000e+00
  N4dr   C2h  1 4.700000e-01    2.960000e+00
  N4dh   C1r  1 4.700000e-01    2.790000e+00
  N4dr   C1h  1 4.700000e-01    2.790000e+00
  N4dh   X4r  1 4.700000e-01    3.690000e+00
  N4dr   X4h  1 4.700000e-01    3.690000e+00
  N4dh   X3r  1 4.700000e-01    3.520000e+00
  N4dr   X3h  1 4.700000e-01    3.520000e+00
  N4dh   X2r  1 4.700000e-01    3.240000e+00
  N4dr   X2h  1 4.700000e-01    3.240000e+00
  N4dh   X1r  1 4.700000e-01    3.070000e+00
  N4dr   X1h  1 4.700000e-01    3.070000e+00
  N3dh   C6r  1 4.700000e-01    3.390000e+00
  N3dr   C6h  1 4.700000e-01    3.390000e+00
  N3dh   C5r  1 4.700000e-01    3.240000e+00
  N3dr   C5h  1 4.700000e-01    3.240000e+00
  N3dh   C4r  1 4.700000e-01    3.240000e+00
  N3dr   C4h  1 4.700000e-01    3.240000e+00
  N3dh   C3r  1 4.700000e-01    3.070000e+00
  N3dr   C3h  1 4.700000e-01    3.070000e+00
  N3dh   C2r  1 4.700000e-01    3.070000e+00
  N3dr   C2h  1 4.700000e-01    3.070000e+00
  N3dh   C1r  1 4.700000e-01    2.960000e+00
  N3dr   C1h  1 4.700000e-01    2.960000e+00
  N3dh   X4r  1 4.700000e-01    3.520000e+00
  N3dr   X4h  1 4.700000e-01    3.520000e+00
  N3dh   X3r  1 4.700000e-01    3.390000e+00
  N3dr   X3h  1 4.700000e-01    3.390000e+00
  N3dh   X2r  1 4.700000e-01    3.240000e+00
  N3dr   X2h  1 4.700000e-01    3.240000e+00
  N3dh   X1r  1 4.700000e-01    3.240000e+00
  N3dr   X1h  1 4.700000e-01    3.240000e+00
  N2dh   C6r  1 4.700000e-01    3.390000e+00
  N2dr   C6h  1 4.700000e-01    3.390000e+00
  N2dh   C5r  1 4.700000e-01    3.240000e+00
  N2dr   C5h  1 4.700000e-01    3.240000e+00
  N2dh   C4r  1 4.700000e-01    3.240000e+00
  N2dr   C4h  1 4.700000e-01    3.240000e+00
  N2dh   C3r  1 4.700000e-01    3.240000e+00
  N2dr   C3h  1 4.700000e-01    3.240000e+00
  N2dh   C2r  1 4.700000e-01    3.070000e+00
  N2dr   C2h  1 4.700000e-01    3.070000e+00
  N2dh   C1r  1 4.700000e-01    2.960000e+00
  N2dr   C1h  1 4.700000e-01    2.960000e+00
  N2dh   X4r  1 4.700000e-01    3.520000e+00
  N2dr   X4h  1 4.700000e-01    3.520000e+00
  N2dh   X3r  1 4.700000e-01    3.390000e+00
  N2dr   X3h  1 4.700000e-01    3.390000e+00
  N2dh   X2r  1 4.700000e-01    3.240000e+00
  N2dr   X2h  1 4.700000e-01    3.240000e+00
  N2dh   X1r  1 4.700000e-01    3.240000e+00
  N2dr   X1h  1 4.700000e-01    3.240000e+00
  N1dh   C6r  1 4.700000e-01    3.520000e+00
  N1dr   C6h  1 4.700000e-01    3.520000e+00
  N1dh   C5r  1 4.700000e-01    3.390000e+00
  N1dr   C5h  1 4.700000e-01    3.390000e+00
  N1dh   C4r  1 4.700000e-01    3.390000e+00
  N1dr   C4h  1 4.700000e-01    3.390000e+00
  N1dh   C3r  1 4.700000e-01    3.240000e+00
  N1dr   C3h  1 4.700000e-01    3.240000e+00
  N1dh   C2r  1 4.700000e-01    3.070000e+00
  N1dr   C2h  1 4.700000e-01    3.070000e+00
  N1dh   C1r  1 4.700000e-01    2.960000e+00
  N1dr   C1h  1 4.700000e-01    2.960000e+00
  N1dh   X4r  1 4.700000e-01    3.390000e+00
  N1dr   X4h  1 4.700000e-01    3.390000e+00
  N1dh   X3r  1 4.700000e-01    3.390000e+00
  N1dr   X3h  1 4.700000e-01    3.390000e+00
  N1dh   X2r  1 4.700000e-01    3.240000e+00
  N1dr   X2h  1 4.700000e-01    3.240000e+00
  N1dh   X1r  1 4.700000e-01    3.240000e+00
  N1dr   X1h  1 4.700000e-01    3.240000e+00
  P6ah   C6r  1 4.700000e-01    2.960000e+00
  P6ar   C6h  1 4.700000e-01    2.960000e+00
  P6ah   C5r  1 4.700000e-01    2.790000e+00
  P6ar   C5h  1 4.700000e-01    2.790000e+00
  P6ah   C4r  1 4.700000e-01    2.620000e+00
  P6ar   C4h  1 4.700000e-01    2.620000e+00
  P6ah   C3r  1 4.700000e-01    2.440000e+00
  P6ar   C3h  1 4.700000e-01    2.440000e+00
  P6ah   C2r  1 4.700000e-01    2.440000e+00
  P6ar   C2h  1 4.700000e-01    2.440000e+00
  P6ah   C1r  1 5.200000e-01    2.120000e+00
  P6ar   C1h  1 5.200000e-01    2.120000e+00
  P6ah   X4r  1 4.700000e-01    3.070000e+00
  P6ar   X4h  1 4.700000e-01    3.070000e+00
  P6ah   X3r  1 4.700000e-01    3.070000e+00
  P6ar   X3h  1 4.700000e-01    3.070000e+00
  P6ah   X2r  1 4.700000e-01    2.960000e+00
  P6ar   X2h  1 4.700000e-01    2.960000e+00
  P6ah   X1r  1 4.700000e-01    2.790000e+00
  P6ar   X1h  1 4.700000e-01    2.790000e+00
  P5ah   C6r  1 4.700000e-01    2.960000e+00
  P5ar   C6h  1 4.700000e-01    2.960000e+00
  P5ah   C5r  1 4.700000e-01    2.960000e+00
  P5ar   C5h  1 4.700000e-01    2.960000e+00
  P5ah   C4r  1 4.700000e-01    2.790000e+00
  P5ar   C4h  1 4.700000e-01    2.790000e+00
  P5ah   C3r  1 4.700000e-01    2.620000e+00
  P5ar   C3h  1 4.700000e-01    2.620000e+00
  P5ah   C2r  1 4.700000e-01    2.620000e+00
  P5ar   C2h  1 4.700000e-01    2.620000e+00
  P5ah   C1r  1 4.700000e-01    2.440000e+00
  P5ar   C1h  1 4.700000e-01    2.440000e+00
  P5ah   X4r  1 4.700000e-01    3.240000e+00
  P5ar   X4h  1 4.700000e-01    3.240000e+00
  P5ah   X3r  1 4.700000e-01    3.070000e+00
  P5ar   X3h  1 4.700000e-01    3.070000e+00
  P5ah   X2r  1 4.700000e-01    3.070000e+00
  P5ar   X2h  1 4.700000e-01    3.070000e+00
  P5ah   X1r  1 4.700000e-01    2.790000e+00
  P5ar   X1h  1 4.700000e-01    2.790000e+00
  P4ah   C6r  1 4.700000e-01    3.070000e+00
  P4ar   C6h  1 4.700000e-01    3.070000e+00
  P4ah   C5r  1 4.700000e-01    2.960000e+00
  P4ar   C5h  1 4.700000e-01    2.960000e+00
  P4ah   C4r  1 4.700000e-01    2.790000e+00
  P4ar   C4h  1 4.700000e-01    2.790000e+00
  P4ah   C3r  1 4.700000e-01    2.620000e+00
  P4ar   C3h  1 4.700000e-01    2.620000e+00
  P4ah   C2r  1 4.700000e-01    2.620000e+00
  P4ar   C2h  1 4.700000e-01    2.620000e+00
  P4ah   C1r  1 4.700000e-01    2.440000e+00
  P4ar   C1h  1 4.700000e-01    2.440000e+00
  P4ah   X4r  1 4.700000e-01    3.240000e+00
  P4ar   X4h  1 4.700000e-01    3.240000e+00
  P4ah   X3r  1 4.700000e-01    3.070000e+00
  P4ar   X3h  1 4.700000e-01    3.070000e+00
  P4ah   X2r  1 4.700000e-01    3.070000e+00
  P4ar   X2h  1 4.700000e-01    3.070000e+00
  P4ah   X1r  1 4.700000e-01    2.960000e+00
  P4ar   X1h  1 4.700000e-01    2.960000e+00
  P3ah   C6r  1 4.700000e-01    3.240000e+00
  P3ar   C6h  1 4.700000e-01    3.240000e+00
  P3ah   C5r  1 4.700000e-01    3.070000e+00
  P3ar   C5h  1 4.700000e-01    3.070000e+00
  P3ah   C4r  1 4.700000e-01    2.960000e+00
  P3ar   C4h  1 4.700000e-01    2.960000e+00
  P3ah   C3r  1 4.700000e-01    2.620000e+00
  P3ar   C3h  1 4.700000e-01    2.620000e+00
  P3ah   C2r  1 4.700000e-01    2.620000e+00
  P3ar   C2h  1 4.700000e-01    2.620000e+00
  P3ah   C1r  1 4.700000e-01    2.440000e+00
  P3ar   C1h  1 4.700000e-01    2.440000e+00
  P3ah   X4r  1 4.700000e-01    3.240000e+00
  P3ar   X4h  1 4.700000e-01    3.240000e+00
  P3ah   X3r  1 4.700000e-01    3.240000e+00
  P3ar   X3h  1 4.700000e-01    3.240000e+00
  P3ah   X2r  1 4.700000e-01    3.070000e+00
  P3ar   X2h  1 4.700000e-01    3.070000e+00
  P3ah   X1r  1 4.700000e-01    2.960000e+00
  P3ar   X1h  1 4.700000e-01    2.960000e+00
  P2ah   C6r  1 4.700000e-01    3.240000e+00
  P2ar   C6h  1 4.700000e-01    3.240000e+00
  P2ah   C5r  1 4.700000e-01    3.070000e+00
  P2ar   C5h  1 4.700000e-01    3.070000e+00
  P2ah   C4r  1 4.700000e-01    2.960000e+00
  P2ar   C4h  1 4.700000e-01    2.960000e+00
  P2ah   C3r  1 4.700000e-01    2.790000e+00
  P2ar   C3h  1 4.700000e-01    2.790000e+00
  P2ah   C2r  1 4.700000e-01    2.790000e+00
  P2ar   C2h  1 4.700000e-01    2.790000e+00
  P2ah   C1r  1 4.700000e-01    2.620000e+00
  P2ar   C1h  1 4.700000e-01    2.620000e+00
  P2ah   X4r  1 4.700000e-01    3.240000e+00
  P2ar   X4h  1 4.700000e-01    3.240000e+00
  P2ah   X3r  1 4.700000e-01    3.240000e+00
  P2ar   X3h  1 4.700000e-01    3.240000e+00
  P2ah   X2r  1 4.700000e-01    3.070000e+00
  P2ar   X2h  1 4.700000e-01    3.070000e+00
  P2ah   X1r  1 4.700000e-01    2.960000e+00
  P2ar   X1h  1 4.700000e-01    2.960000e+00
  P1ah   C6r  1 4.700000e-01    3.240000e+00
  P1ar   C6h  1 4.700000e-01    3.240000e+00
  P1ah   C5r  1 4.700000e-01    3.070000e+00
  P1ar   C5h  1 4.700000e-01    3.070000e+00
  P1ah   C4r  1 4.700000e-01    2.960000e+00
  P1ar   C4h  1 4.700000e-01    2.960000e+00
  P1ah   C3r  1 4.700000e-01    2.790000e+00
  P1ar   C3h  1 4.700000e-01    2.790000e+00
  P1ah   C2r  1 4.700000e-01    2.790000e+00
  P1ar   C2h  1 4.700000e-01    2.790000e+00
  P1ah   C1r  1 4.700000e-01    2.620000e+00
  P1ar   C1h  1 4.700000e-01    2.620000e+00
  P1ah   X4r  1 4.700000e-01    3.240000e+00
  P1ar   X4h  1 4.700000e-01    3.240000e+00
  P1ah   X3r  1 4.700000e-01    3.240000e+00
  P1ar   X3h  1 4.700000e-01    3.240000e+00
  P1ah   X2r  1 4.700000e-01    3.070000e+00
  P1ar   X2h  1 4.700000e-01    3.070000e+00
  P1ah   X1r  1 4.700000e-01    2.960000e+00
  P1ar   X1h  1 4.700000e-01    2.960000e+00
  N6ah   C6r  1 4.700000e-01    3.390000e+00
  N6ar   C6h  1 4.700000e-01    3.390000e+00
  N6ah   C5r  1 4.700000e-01    3.240000e+00
  N6ar   C5h  1 4.700000e-01    3.240000e+00
  N6ah   C4r  1 4.700000e-01    3.070000e+00
  N6ar   C4h  1 4.700000e-01    3.070000e+00
  N6ah   C3r  1 4.700000e-01    2.960000e+00
  N6ar   C3h  1 4.700000e-01    2.960000e+00
  N6ah   C2r  1 4.700000e-01    2.960000e+00
  N6ar   C2h  1 4.700000e-01    2.960000e+00
  N6ah   C1r  1 4.700000e-01    2.790000e+00
  N6ar   C1h  1 4.700000e-01    2.790000e+00
  N6ah   X4r  1 4.700000e-01    3.390000e+00
  N6ar   X4h  1 4.700000e-01    3.390000e+00
  N6ah   X3r  1 4.700000e-01    3.240000e+00
  N6ar   X3h  1 4.700000e-01    3.240000e+00
  N6ah   X2r  1 4.700000e-01    3.070000e+00
  N6ar   X2h  1 4.700000e-01    3.070000e+00
  N6ah   X1r  1 4.700000e-01    2.960000e+00
  N6ar   X1h  1 4.700000e-01    2.960000e+00
  N5ah   C6r  1 4.700000e-01    3.390000e+00
  N5ar   C6h  1 4.700000e-01    3.390000e+00
  N5ah   C5r  1 4.700000e-01    3.240000e+00
  N5ar   C5h  1 4.700000e-01    3.240000e+00
  N5ah   C4r  1 4.700000e-01    3.070000e+00
  N5ar   C4h  1 4.700000e-01    3.070000e+00
  N5ah   C3r  1 4.700000e-01    3.070000e+00
  N5ar   C3h  1 4.700000e-01    3.070000e+00
  N5ah   C2r  1 4.700000e-01    2.960000e+00
  N5ar   C2h  1 4.700000e-01    2.960000e+00
  N5ah   C1r  1 4.700000e-01    2.790000e+00
  N5ar   C1h  1 4.700000e-01    2.790000e+00
  N5ah   X4r  1 4.700000e-01    3.520000e+00
  N5ar   X4h  1 4.700000e-01    3.520000e+00
  N5ah   X3r  1 4.700000e-01    3.390000e+00
  N5ar   X3h  1 4.700000e-01    3.390000e+00
  N5ah   X2r  1 4.700000e-01    3.240000e+00
  N5ar   X2h  1 4.700000e-01    3.240000e+00
  N5ah   X1r  1 4.700000e-01    3.070000e+00
  N5ar   X1h  1 4.700000e-01    3.070000e+00
  N4ah   C6r  1 4.700000e-01    3.390000e+00
  N4ar   C6h  1 4.700000e-01    3.390000e+00
  N4ah   C5r  1 4.700000e-01    3.240000e+00
  N4ar   C5h  1 4.700000e-01    3.240000e+00
  N4ah   C4r  1 4.700000e-01    3.240000e+00
  N4ar   C4h  1 4.700000e-01    3.240000e+00
  N4ah   C3r  1 4.700000e-01    3.070000e+00
  N4ar   C3h  1 4.700000e-01    3.070000e+00
  N4ah   C2r  1 4.700000e-01    2.960000e+00
  N4ar   C2h  1 4.700000e-01    2.960000e+00
  N4ah   C1r  1 4.700000e-01    2.790000e+00
  N4ar   C1h  1 4.700000e-01    2.790000e+00
  N4ah   X4r  1 4.700000e-01    3.690000e+00
  N4ar   X4h  1 4.700000e-01    3.690000e+00
  N4ah   X3r  1 4.700000e-01    3.520000e+00
  N4ar   X3h  1 4.700000e-01    3.520000e+00
  N4ah   X2r  1 4.700000e-01    3.240000e+00
  N4ar   X2h  1 4.700000e-01    3.240000e+00
  N4ah   X1r  1 4.700000e-01    3.070000e+00
  N4ar   X1h  1 4.700000e-01    3.070000e+00
  N3ah   C6r  1 4.700000e-01    3.390000e+00
  N3ar   C6h  1 4.700000e-01    3.390000e+00
  N3ah   C5r  1 4.700000e-01    3.240000e+00
  N3ar   C5h  1 4.700000e-01    3.240000e+00
  N3ah   C4r  1 4.700000e-01    3.240000e+00
  N3ar   C4h  1 4.700000e-01    3.240000e+00
  N3ah   C3r  1 4.700000e-01    3.070000e+00
  N3ar   C3h  1 4.700000e-01    3.070000e+00
  N3ah   C2r  1 4.700000e-01    3.070000e+00
  N3ar   C2h  1 4.700000e-01    3.070000e+00
  N3ah   C1r  1 4.700000e-01    2.960000e+00
  N3ar   C1h  1 4.700000e-01    2.960000e+00
  N3ah   X4r  1 4.700000e-01    3.520000e+00
  N3ar   X4h  1 4.700000e-01    3.520000e+00
  N3ah   X3r  1 4.700000e-01    3.390000e+00
  N3ar   X3h  1 4.700000e-01    3.390000e+00
  N3ah   X2r  1 4.700000e-01    3.240000e+00
  N3ar   X2h  1 4.700000e-01    3.240000e+00
  N3ah   X1r  1 4.700000e-01    3.240000e+00
  N3ar   X1h  1 4.700000e-01    3.240000e+00
  N2ah   C6r  1 4.700000e-01    3.390000e+00
  N2ar   C6h  1 4.700000e-01    3.390000e+00
  N2ah   C5r  1 4.700000e-01    3.240000e+00
  N2ar   C5h  1 4.700000e-01    3.240000e+00
  N2ah   C4r  1 4.700000e-01    3.240000e+00
  N2ar   C4h  1 4.700000e-01    3.240000e+00
  N2ah   C3r  1 4.700000e-01    3.240000e+00
  N2ar   C3h  1 4.700000e-01    3.240000e+00
  N2ah   C2r  1 4.700000e-01    3.070000e+00
  N2ar   C2h  1 4.700000e-01    3.070000e+00
  N2ah   C1r  1 4.700000e-01    2.960000e+00
  N2ar   C1h  1 4.700000e-01    2.960000e+00
  N2ah   X4r  1 4.700000e-01    3.520000e+00
  N2ar   X4h  1 4.700000e-01    3.520000e+00
  N2ah   X3r  1 4.700000e-01    3.390000e+00
  N2ar   X3h  1 4.700000e-01    3.390000e+00
  N2ah   X2r  1 4.700000e-01    3.240000e+00
  N2ar   X2h  1 4.700000e-01    3.240000e+00
  N2ah   X1r  1 4.700000e-01    3.240000e+00
  N2ar   X1h  1 4.700000e-01    3.240000e+00
  N1ah   C6r  1 4.700000e-01    3.520000e+00
  N1ar   C6h  1 4.700000e-01    3.520000e+00
  N1ah   C5r  1 4.700000e-01    3.390000e+00
  N1ar   C5h  1 4.700000e-01    3.390000e+00
  N1ah   C4r  1 4.700000e-01    3.390000e+00
  N1ar   C4h  1 4.700000e-01    3.390000e+00
  N1ah   C3r  1 4.700000e-01    3.240000e+00
  N1ar   C3h  1 4.700000e-01    3.240000e+00
  N1ah   C2r  1 4.700000e-01    3.070000e+00
  N1ar   C2h  1 4.700000e-01    3.070000e+00
  N1ah   C1r  1 4.700000e-01    2.960000e+00
  N1ar   C1h  1 4.700000e-01    2.960000e+00
  N1ah   X4r  1 4.700000e-01    3.390000e+00
  N1ar   X4h  1 4.700000e-01    3.390000e+00
  N1ah   X3r  1 4.700000e-01    3.390000e+00
  N1ar   X3h  1 4.700000e-01    3.390000e+00
  N1ah   X2r  1 4.700000e-01    3.240000e+00
  N1ar   X2h  1 4.700000e-01    3.240000e+00
  N1ah   X1r  1 4.700000e-01    3.240000e+00
  N1ar   X1h  1 4.700000e-01    3.240000e+00
   C6v  SC6v  1 4.300000e-01    2.920000e+00
   C6v  SC5v  1 4.300000e-01    2.770000e+00
   C6v  SC4v  1 4.300000e-01    2.770000e+00
   C6v  SC3v  1 4.300000e-01    2.530000e+00
   C6v  SC2v  1 4.300000e-01    2.320000e+00
   C6v  SC1v  1 4.300000e-01    2.160000e+00
   C6v  SX4v  1 4.300000e-01    2.770000e+00
   C6v  SX3v  1 4.300000e-01    2.770000e+00
   C6v  SX2v  1 4.300000e-01    2.770000e+00
   C6v  SX1v  1 4.300000e-01    2.770000e+00
   C5v  SC5v  1 4.300000e-01    2.770000e+00
   C5v  SC4v  1 4.300000e-01    2.770000e+00
   C5v  SC3v  1 4.300000e-01    2.530000e+00
   C5v  SC2v  1 4.300000e-01    2.320000e+00
   C5v  SC1v  1 4.300000e-01    2.320000e+00
   C5v  SX4v  1 4.300000e-01    2.530000e+00
   C5v  SX3v  1 4.300000e-01    2.530000e+00
   C5v  SX2v  1 4.300000e-01    2.530000e+00
   C5v  SX1v  1 4.300000e-01    2.770000e+00
   C4v  SC4v  1 4.300000e-01    2.770000e+00
   C4v  SC3v  1 4.300000e-01    2.770000e+00
   C4v  SC2v  1 4.300000e-01    2.530000e+00
   C4v  SC1v  1 4.300000e-01    2.320000e+00
   C4v  SX4v  1 4.300000e-01    2.530000e+00
   C4v  SX3v  1 4.300000e-01    2.530000e+00
   C4v  SX2v  1 4.300000e-01    2.530000e+00
   C4v  SX1v  1 4.300000e-01    2.770000e+00
   C3v  SC3v  1 4.300000e-01    2.770000e+00
   C3v  SC2v  1 4.300000e-01    2.770000e+00
   C3v  SC1v  1 4.300000e-01    2.770000e+00
   C3v  SX4v  1 4.300000e-01    2.530000e+00
   C3v  SX3v  1 4.300000e-01    2.530000e+00
   C3v  SX2v  1 4.300000e-01    2.530000e+00
   C3v  SX1v  1 4.300000e-01    2.770000e+00
   C2v  SC2v  1 4.300000e-01    2.770000e+00
   C2v  SC1v  1 4.300000e-01    2.920000e+00
   C2v  SX4v  1 4.300000e-01    2.160000e+00
   C2v  SX3v  1 4.300000e-01    2.530000e+00
   C2v  SX2v  1 4.300000e-01    2.530000e+00
   C2v  SX1v  1 4.300000e-01    2.530000e+00
   C1v  SC1v  1 4.300000e-01    2.770000e+00
   C1v  SX4v  1 4.300000e-01    2.160000e+00
   C1v  SX3v  1 4.300000e-01    2.530000e+00
   C1v  SX2v  1 4.300000e-01    2.530000e+00
   C1v  SX1v  1 4.300000e-01    2.530000e+00
   X4v  SX4v  1 4.300000e-01    2.770000e+00
   X4v  SX3v  1 4.300000e-01    2.770000e+00
   X4v  SX2v  1 4.300000e-01    2.770000e+00
   X4v  SX1v  1 4.300000e-01    2.770000e+00
   X3v  SX3v  1 4.300000e-01    2.770000e+00
   X3v  SX2v  1 4.300000e-01    2.920000e+00
   X3v  SX1v  1 4.300000e-01    2.920000e+00
   X2v  SX2v  1 4.300000e-01    2.920000e+00
   X2v  SX1v  1 4.300000e-01    2.920000e+00
   X1v  SX1v  1 4.300000e-01    3.160000e+00
   C6e  SC6e  1 4.300000e-01    2.920000e+00
   C6e  SC5e  1 4.300000e-01    2.770000e+00
   C6e  SC4e  1 4.300000e-01    2.770000e+00
   C6e  SC3e  1 4.300000e-01    2.530000e+00
   C6e  SC2e  1 4.300000e-01    2.320000e+00
   C6e  SC1e  1 4.300000e-01    2.160000e+00
   C6e  SX4e  1 4.300000e-01    2.770000e+00
   C6e  SX3e  1 4.300000e-01    2.770000e+00
   C6e  SX2e  1 4.300000e-01    2.770000e+00
   C6e  SX1e  1 4.300000e-01    2.770000e+00
   C5e  SC5e  1 4.300000e-01    2.770000e+00
   C5e  SC4e  1 4.300000e-01    2.770000e+00
   C5e  SC3e  1 4.300000e-01    2.530000e+00
   C5e  SC2e  1 4.300000e-01    2.320000e+00
   C5e  SC1e  1 4.300000e-01    2.320000e+00
   C5e  SX4e  1 4.300000e-01    2.530000e+00
   C5e  SX3e  1 4.300000e-01    2.530000e+00
   C5e  SX2e  1 4.300000e-01    2.530000e+00
   C5e  SX1e  1 4.300000e-01    2.770000e+00
   C4e  SC4e  1 4.300000e-01    2.770000e+00
   C4e  SC3e  1 4.300000e-01    2.770000e+00
   C4e  SC2e  1 4.300000e-01    2.530000e+00
   C4e  SC1e  1 4.300000e-01    2.320000e+00
   C4e  SX4e  1 4.300000e-01    2.530000e+00
   C4e  SX3e  1 4.300000e-01    2.530000e+00
   C4e  SX2e  1 4.300000e-01    2.530000e+00
   C4e  SX1e  1 4.300000e-01    2.770000e+00
   C3e  SC3e  1 4.300000e-01    2.770000e+00
   C3e  SC2e  1 4.300000e-01    2.770000e+00
   C3e  SC1e  1 4.300000e-01    2.770000e+00
   C3e  SX4e  1 4.300000e-01    2.530000e+00
   C3e  SX3e  1 4.300000e-01    2.530000e+00
   C3e  SX2e  1 4.300000e-01    2.530000e+00
   C3e  SX1e  1 4.300000e-01    2.770000e+00
   C2e  SC2e  1 4.300000e-01    2.770000e+00
   C2e  SC1e  1 4.300000e-01    2.920000e+00
   C2e  SX4e  1 4.300000e-01    2.160000e+00
   C2e  SX3e  1 4.300000e-01    2.530000e+00
   C2e  SX2e  1 4.300000e-01    2.530000e+00
   C2e  SX1e  1 4.300000e-01    2.530000e+00
   C1e  SC1e  1 4.300000e-01    2.770000e+00
   C1e  SX4e  1 4.300000e-01    2.160000e+00
   C1e  SX3e  1 4.300000e-01    2.530000e+00
   C1e  SX2e  1 4.300000e-01    2.530000e+00
   C1e  SX1e  1 4.300000e-01    2.530000e+00
   X4e  SX4e  1 4.300000e-01    2.770000e+00
   X4e  SX3e  1 4.300000e-01    2.770000e+00
   X4e  SX2e  1 4.300000e-01    2.770000e+00
   X4e  SX1e  1 4.300000e-01    2.770000e+00
   X3e  SX3e  1 4.300000e-01    2.770000e+00
   X3e  SX2e  1 4.300000e-01    2.920000e+00
   X3e  SX1e  1 4.300000e-01    2.920000e+00
   X2e  SX2e  1 4.300000e-01    2.920000e+00
   X2e  SX1e  1 4.300000e-01    2.920000e+00
   X1e  SX1e  1 4.300000e-01    3.160000e+00
   P6q  SP6d  1 4.300000e-01    5.210000e+00
   P6q  SN1d  1 4.300000e-01    2.770000e+00
   P6q  SN2d  1 4.300000e-01    2.920000e+00
   P6q  SN3d  1 4.300000e-01    3.160000e+00
   P6q  SN4d  1 4.300000e-01    3.380000e+00
   P6q  SN5d  1 4.300000e-01    3.590000e+00
   P6q  SN6d  1 4.300000e-01    3.970000e+00
   P6q  SP1d  1 4.300000e-01    4.170000e+00
   P6q  SP2d  1 4.300000e-01    4.400000e+00
   P6q  SP3d  1 4.300000e-01    4.400000e+00
   P6q  SP4d  1 4.300000e-01    4.680000e+00
   P6q  SP5d  1 4.300000e-01    4.920000e+00
   P6q  SP6a  1 4.300000e-01    5.210000e+00
   P6q  SN1a  1 4.300000e-01    2.770000e+00
   P6q  SN2a  1 4.300000e-01    2.920000e+00
   P6q  SN3a  1 4.300000e-01    3.160000e+00
   P6q  SN4a  1 4.300000e-01    3.380000e+00
   P6q  SN5a  1 4.300000e-01    3.590000e+00
   P6q  SN6a  1 4.300000e-01    3.970000e+00
   P6q  SP1a  1 4.300000e-01    4.170000e+00
   P6q  SP2a  1 4.300000e-01    4.400000e+00
   P6q  SP3a  1 4.300000e-01    4.400000e+00
   P6q  SP4a  1 4.300000e-01    4.680000e+00
   P6q  SP5a  1 4.300000e-01    4.920000e+00
   P6q  SC6v  1 4.300000e-01    2.920000e+00
   P6q  SC5v  1 4.300000e-01    2.770000e+00
   P6q  SC4v  1 4.300000e-01    2.530000e+00
   P6q  SC3v  1 4.300000e-01    2.320000e+00
   P6q  SC2v  1 4.300000e-01    2.320000e+00
   P6q  SC1v  1 4.300000e-01    1.930000e+00
   P6q  SX4v  1 4.300000e-01    3.160000e+00
   P6q  SX3v  1 4.300000e-01    3.160000e+00
   P6q  SX2v  1 4.300000e-01    2.920000e+00
   P6q  SX1v  1 4.300000e-01    2.770000e+00
   P6q  SC6e  1 4.300000e-01    2.920000e+00
   P6q  SC5e  1 4.300000e-01    2.770000e+00
   P6q  SC4e  1 4.300000e-01    2.530000e+00
   P6q  SC3e  1 4.300000e-01    2.320000e+00
   P6q  SC2e  1 4.300000e-01    2.320000e+00
   P6q  SC1e  1 4.300000e-01    1.930000e+00
   P6q  SX4e  1 4.300000e-01    3.160000e+00
   P6q  SX3e  1 4.300000e-01    3.160000e+00
   P6q  SX2e  1 4.300000e-01    2.920000e+00
   P6q  SX1e  1 4.300000e-01    2.770000e+00
   P6d  SP5q  1 4.300000e-01    4.920000e+00
   P5q  SP5d  1 4.300000e-01    4.680000e+00
   P5q  SN1d  1 4.300000e-01    2.770000e+00
   P5q  SN2d  1 4.300000e-01    2.920000e+00
   P5q  SN3d  1 4.300000e-01    3.160000e+00
   P5q  SN4d  1 4.300000e-01    3.590000e+00
   P5q  SN5d  1 4.300000e-01    3.590000e+00
   P5q  SN6d  1 4.300000e-01    3.770000e+00
   P5q  SP1d  1 4.300000e-01    3.970000e+00
   P5q  SP2d  1 4.300000e-01    4.170000e+00
   P5q  SP3d  1 4.300000e-01    4.170000e+00
   P5q  SP4d  1 4.300000e-01    4.400000e+00
   P6a  SP5q  1 4.300000e-01    4.920000e+00
   P5q  SP5a  1 4.300000e-01    4.680000e+00
   P5q  SN1a  1 4.300000e-01    2.770000e+00
   P5q  SN2a  1 4.300000e-01    2.920000e+00
   P5q  SN3a  1 4.300000e-01    3.160000e+00
   P5q  SN4a  1 4.300000e-01    3.590000e+00
   P5q  SN5a  1 4.300000e-01    3.590000e+00
   P5q  SN6a  1 4.300000e-01    3.770000e+00
   P5q  SP1a  1 4.300000e-01    3.970000e+00
   P5q  SP2a  1 4.300000e-01    4.170000e+00
   P5q  SP3a  1 4.300000e-01    4.170000e+00
   P5q  SP4a  1 4.300000e-01    4.400000e+00
   P5q  SC6v  1 4.300000e-01    2.920000e+00
   P5q  SC5v  1 4.300000e-01    2.920000e+00
   P5q  SC4v  1 4.300000e-01    2.770000e+00
   P5q  SC3v  1 4.300000e-01    2.530000e+00
   P5q  SC2v  1 4.300000e-01    2.530000e+00
   P5q  SC1v  1 4.300000e-01    2.320000e+00
   P5q  SX4v  1 4.300000e-01    3.380000e+00
   P5q  SX3v  1 4.300000e-01    3.160000e+00
   P5q  SX2v  1 4.300000e-01    3.160000e+00
   P5q  SX1v  1 4.300000e-01    2.770000e+00
   P5q  SC6e  1 4.300000e-01    2.920000e+00
   P5q  SC5e  1 4.300000e-01    2.920000e+00
   P5q  SC4e  1 4.300000e-01    2.770000e+00
   P5q  SC3e  1 4.300000e-01    2.530000e+00
   P5q  SC2e  1 4.300000e-01    2.530000e+00
   P5q  SC1e  1 4.300000e-01    2.320000e+00
   P5q  SX4e  1 4.300000e-01    3.380000e+00
   P5q  SX3e  1 4.300000e-01    3.160000e+00
   P5q  SX2e  1 4.300000e-01    3.160000e+00
   P5q  SX1e  1 4.300000e-01    2.770000e+00
   P6d  SP4q  1 4.300000e-01    4.680000e+00
   P5d  SP4q  1 4.300000e-01    4.400000e+00
   P4q  SP4d  1 4.300000e-01    4.400000e+00
   P4q  SN1d  1 4.300000e-01    2.920000e+00
   P4q  SN2d  1 4.300000e-01    3.160000e+00
   P4q  SN3d  1 4.300000e-01    3.380000e+00
   P4q  SN4d  1 4.300000e-01    3.590000e+00
   P4q  SN5d  1 4.300000e-01    3.590000e+00
   P4q  SN6d  1 4.300000e-01    3.770000e+00
   P4q  SP1d  1 4.300000e-01    3.970000e+00
   P4q  SP2d  1 4.300000e-01    4.170000e+00
   P4q  SP3d  1 4.300000e-01    4.170000e+00
   P6a  SP4q  1 4.300000e-01    4.680000e+00
   P5a  SP4q  1 4.300000e-01    4.400000e+00
   P4q  SP4a  1 4.300000e-01    4.400000e+00
   P4q  SN1a  1 4.300000e-01    2.920000e+00
   P4q  SN2a  1 4.300000e-01    3.160000e+00
   P4q  SN3a  1 4.300000e-01    3.380000e+00
   P4q  SN4a  1 4.300000e-01    3.590000e+00
   P4q  SN5a  1 4.300000e-01    3.590000e+00
   P4q  SN6a  1 4.300000e-01    3.770000e+00
   P4q  SP1a  1 4.300000e-01    3.970000e+00
   P4q  SP2a  1 4.300000e-01    4.170000e+00
   P4q  SP3a  1 4.300000e-01    4.170000e+00
   P4q  SC6v  1 4.300000e-01    3.160000e+00
   P4q  SC5v  1 4.300000e-01    2.920000e+00
   P4q  SC4v  1 4.300000e-01    2.770000e+00
   P4q  SC3v  1 4.300000e-01    2.530000e+00
   P4q  SC2v  1 4.300000e-01    2.530000e+00
   P4q  SC1v  1 4.300000e-01    2.320000e+00
   P4q  SX4v  1 4.300000e-01    3.380000e+00
   P4q  SX3v  1 4.300000e-01    3.160000e+00
   P4q  SX2v  1 4.300000e-01    3.160000e+00
   P4q  SX1v  1 4.300000e-01    2.920000e+00
   P4q  SC6e  1 4.300000e-01    3.160000e+00
   P4q  SC5e  1 4.300000e-01    2.920000e+00
   P4q  SC4e  1 4.300000e-01    2.770000e+00
   P4q  SC3e  1 4.300000e-01    2.530000e+00
   P4q  SC2e  1 4.300000e-01    2.530000e+00
   P4q  SC1e  1 4.300000e-01    2.320000e+00
   P4q  SX4e  1 4.300000e-01    3.380000e+00
   P4q  SX3e  1 4.300000e-01    3.160000e+00
   P4q  SX2e  1 4.300000e-01    3.160000e+00
   P4q  SX1e  1 4.300000e-01    2.920000e+00
   P6d  SP3q  1 4.300000e-01    4.400000e+00
   P5d  SP3q  1 4.300000e-01    4.170000e+00
   P4d  SP3q  1 4.300000e-01    4.170000e+00
   P3q  SP3d  1 4.300000e-01    4.170000e+00
   P3q  SN1d  1 4.300000e-01    3.160000e+00
   P3q  SN2d  1 4.300000e-01    3.380000e+00
   P3q  SN3d  1 4.300000e-01    3.380000e+00
   P3q  SN4d  1 4.300000e-01    3.590000e+00
   P3q  SN5d  1 4.300000e-01    3.590000e+00
   P3q  SN6d  1 4.300000e-01    3.770000e+00
   P3q  SP1d  1 4.300000e-01    3.970000e+00
   P3q  SP2d  1 4.300000e-01    4.170000e+00
   P6a  SP3q  1 4.300000e-01    4.400000e+00
   P5a  SP3q  1 4.300000e-01    4.170000e+00
   P4a  SP3q  1 4.300000e-01    4.170000e+00
   P3q  SP3a  1 4.300000e-01    4.170000e+00
   P3q  SN1a  1 4.300000e-01    3.160000e+00
   P3q  SN2a  1 4.300000e-01    3.380000e+00
   P3q  SN3a  1 4.300000e-01    3.380000e+00
   P3q  SN4a  1 4.300000e-01    3.590000e+00
   P3q  SN5a  1 4.300000e-01    3.590000e+00
   P3q  SN6a  1 4.300000e-01    3.770000e+00
   P3q  SP1a  1 4.300000e-01    3.970000e+00
   P3q  SP2a  1 4.300000e-01    4.170000e+00
   P3q  SC6v  1 4.300000e-01    3.380000e+00
   P3q  SC5v  1 4.300000e-01    3.160000e+00
   P3q  SC4v  1 4.300000e-01    2.920000e+00
   P3q  SC3v  1 4.300000e-01    2.530000e+00
   P3q  SC2v  1 4.300000e-01    2.530000e+00
   P3q  SC1v  1 4.300000e-01    2.320000e+00
   P3q  SX4v  1 4.300000e-01    3.380000e+00
   P3q  SX3v  1 4.300000e-01    3.380000e+00
   P3q  SX2v  1 4.300000e-01    3.160000e+00
   P3q  SX1v  1 4.300000e-01    2.920000e+00
   P3q  SC6e  1 4.300000e-01    3.380000e+00
   P3q  SC5e  1 4.300000e-01    3.160000e+00
   P3q  SC4e  1 4.300000e-01    2.920000e+00
   P3q  SC3e  1 4.300000e-01    2.530000e+00
   P3q  SC2e  1 4.300000e-01    2.530000e+00
   P3q  SC1e  1 4.300000e-01    2.320000e+00
   P3q  SX4e  1 4.300000e-01    3.380000e+00
   P3q  SX3e  1 4.300000e-01    3.380000e+00
   P3q  SX2e  1 4.300000e-01    3.160000e+00
   P3q  SX1e  1 4.300000e-01    2.920000e+00
   P6d  SP2q  1 4.300000e-01    4.400000e+00
   P5d  SP2q  1 4.300000e-01    4.170000e+00
   P4d  SP2q  1 4.300000e-01    4.170000e+00
   P3d  SP2q  1 4.300000e-01    4.170000e+00
   P2q  SP2d  1 4.300000e-01    4.170000e+00
   P2q  SN1d  1 4.300000e-01    3.380000e+00
   P2q  SN2d  1 4.300000e-01    3.380000e+00
   P2q  SN3d  1 4.300000e-01    3.380000e+00
   P2q  SN4d  1 4.300000e-01    3.590000e+00
   P2q  SN5d  1 4.300000e-01    3.770000e+00
   P2q  SN6d  1 4.300000e-01    3.970000e+00
   P2q  SP1d  1 4.300000e-01    3.970000e+00
   P6a  SP2q  1 4.300000e-01    4.400000e+00
   P5a  SP2q  1 4.300000e-01    4.170000e+00
   P4a  SP2q  1 4.300000e-01    4.170000e+00
   P3a  SP2q  1 4.300000e-01    4.170000e+00
   P2q  SP2a  1 4.300000e-01    4.170000e+00
   P2q  SN1a  1 4.300000e-01    3.380000e+00
   P2q  SN2a  1 4.300000e-01    3.380000e+00
   P2q  SN3a  1 4.300000e-01    3.380000e+00
   P2q  SN4a  1 4.300000e-01    3.590000e+00
   P2q  SN5a  1 4.300000e-01    3.770000e+00
   P2q  SN6a  1 4.300000e-01    3.970000e+00
   P2q  SP1a  1 4.300000e-01    3.970000e+00
   P2q  SC6v  1 4.300000e-01    3.380000e+00
   P2q  SC5v  1 4.300000e-01    3.160000e+00
   P2q  SC4v  1 4.300000e-01    2.920000e+00
   P2q  SC3v  1 4.300000e-01    2.770000e+00
   P2q  SC2v  1 4.300000e-01    2.770000e+00
   P2q  SC1v  1 4.300000e-01    2.530000e+00
   P2q  SX4v  1 4.300000e-01    3.380000e+00
   P2q  SX3v  1 4.300000e-01    3.380000e+00
   P2q  SX2v  1 4.300000e-01    3.160000e+00
   P2q  SX1v  1 4.300000e-01    2.920000e+00
   P2q  SC6e  1 4.300000e-01    3.380000e+00
   P2q  SC5e  1 4.300000e-01    3.160000e+00
   P2q  SC4e  1 4.300000e-01    2.920000e+00
   P2q  SC3e  1 4.300000e-01    2.770000e+00
   P2q  SC2e  1 4.300000e-01    2.770000e+00
   P2q  SC1e  1 4.300000e-01    2.530000e+00
   P2q  SX4e  1 4.300000e-01    3.380000e+00
   P2q  SX3e  1 4.300000e-01    3.380000e+00
   P2q  SX2e  1 4.300000e-01    3.160000e+00
   P2q  SX1e  1 4.300000e-01    2.920000e+00
   P6d  SP1q  1 4.300000e-01    4.170000e+00
   P5d  SP1q  1 4.300000e-01    3.970000e+00
   P4d  SP1q  1 4.300000e-01    3.970000e+00
   P3d  SP1q  1 4.300000e-01    3.970000e+00
   P2d  SP1q  1 4.300000e-01    3.970000e+00
   P1q  SP1d  1 4.300000e-01    3.970000e+00
   P1q  SN1d  1 4.300000e-01    3.380000e+00
   P1q  SN2d  1 4.300000e-01    3.380000e+00
   P1q  SN3d  1 4.300000e-01    3.380000e+00
   P1q  SN4d  1 4.300000e-01    3.770000e+00
   P1q  SN5d  1 4.300000e-01    3.770000e+00
   P1q  SN6d  1 4.300000e-01    3.970000e+00
   P6a  SP1q  1 4.300000e-01    4.170000e+00
   P5a  SP1q  1 4.300000e-01    3.970000e+00
   P4a  SP1q  1 4.300000e-01    3.970000e+00
   P3a  SP1q  1 4.300000e-01    3.970000e+00
   P2a  SP1q  1 4.300000e-01    3.970000e+00
   P1q  SP1a  1 4.300000e-01    3.970000e+00
   P1q  SN1a  1 4.300000e-01    3.380000e+00
   P1q  SN2a  1 4.300000e-01    3.380000e+00
   P1q  SN3a  1 4.300000e-01    3.380000e+00
   P1q  SN4a  1 4.300000e-01    3.770000e+00
   P1q  SN5a  1 4.300000e-01    3.770000e+00
   P1q  SN6a  1 4.300000e-01    3.970000e+00
   P1q  SC6v  1 4.300000e-01    3.380000e+00
   P1q  SC5v  1 4.300000e-01    3.160000e+00
   P1q  SC4v  1 4.300000e-01    2.920000e+00
   P1q  SC3v  1 4.300000e-01    2.770000e+00
   P1q  SC2v  1 4.300000e-01    2.770000e+00
   P1q  SC1v  1 4.300000e-01    2.530000e+00
   P1q  SX4v  1 4.300000e-01    3.380000e+00
   P1q  SX3v  1 4.300000e-01    3.380000e+00
   P1q  SX2v  1 4.300000e-01    3.160000e+00
   P1q  SX1v  1 4.300000e-01    2.920000e+00
   P1q  SC6e  1 4.300000e-01    3.380000e+00
   P1q  SC5e  1 4.300000e-01    3.160000e+00
   P1q  SC4e  1 4.300000e-01    2.920000e+00
   P1q  SC3e  1 4.300000e-01    2.770000e+00
   P1q  SC2e  1 4.300000e-01    2.770000e+00
   P1q  SC1e  1 4.300000e-01    2.530000e+00
   P1q  SX4e  1 4.300000e-01    3.380000e+00
   P1q  SX3e  1 4.300000e-01    3.380000e+00
   P1q  SX2e  1 4.300000e-01    3.160000e+00
   P1q  SX1e  1 4.300000e-01    2.920000e+00
   P6d  SN6q  1 4.300000e-01    3.970000e+00
   P5d  SN6q  1 4.300000e-01    3.770000e+00
   P4d  SN6q  1 4.300000e-01    3.770000e+00
   P3d  SN6q  1 4.300000e-01    3.770000e+00
   P2d  SN6q  1 4.300000e-01    3.970000e+00
   P1d  SN6q  1 4.300000e-01    3.970000e+00
   N6q  SN6d  1 4.300000e-01    3.970000e+00
   N6q  SN1d  1 4.300000e-01    3.380000e+00
   N6q  SN2d  1 4.300000e-01    3.380000e+00
   N6q  SN3d  1 4.300000e-01    3.590000e+00
   N6q  SN4d  1 4.300000e-01    3.970000e+00
   N6q  SN5d  1 4.300000e-01    3.970000e+00
   P6a  SN6q  1 4.300000e-01    3.970000e+00
   P5a  SN6q  1 4.300000e-01    3.770000e+00
   P4a  SN6q  1 4.300000e-01    3.770000e+00
   P3a  SN6q  1 4.300000e-01    3.770000e+00
   P2a  SN6q  1 4.300000e-01    3.970000e+00
   P1a  SN6q  1 4.300000e-01    3.970000e+00
   N6q  SN6a  1 4.300000e-01    3.970000e+00
   N6q  SN1a  1 4.300000e-01    3.380000e+00
   N6q  SN2a  1 4.300000e-01    3.380000e+00
   N6q  SN3a  1 4.300000e-01    3.590000e+00
   N6q  SN4a  1 4.300000e-01    3.970000e+00
   N6q  SN5a  1 4.300000e-01    3.970000e+00
   N6q  SC6v  1 4.300000e-01    3.590000e+00
   N6q  SC5v  1 4.300000e-01    3.380000e+00
   N6q  SC4v  1 4.300000e-01    3.160000e+00
   N6q  SC3v  1 4.300000e-01    2.920000e+00
   N6q  SC2v  1 4.300000e-01    2.920000e+00
   N6q  SC1v  1 4.300000e-01    2.770000e+00
   N6q  SX4v  1 4.300000e-01    3.590000e+00
   N6q  SX3v  1 4.300000e-01    3.380000e+00
   N6q  SX2v  1 4.300000e-01    3.160000e+00
   N6q  SX1v  1 4.300000e-01    2.920000e+00
   N6q  SC6e  1 4.300000e-01    3.590000e+00
   N6q  SC5e  1 4.300000e-01    3.380000e+00
   N6q  SC4e  1 4.300000e-01    3.160000e+00
   N6q  SC3e  1 4.300000e-01    2.920000e+00
   N6q  SC2e  1 4.300000e-01    2.920000e+00
   N6q  SC1e  1 4.300000e-01    2.770000e+00
   N6q  SX4e  1 4.300000e-01    3.590000e+00
   N6q  SX3e  1 4.300000e-01    3.380000e+00
   N6q  SX2e  1 4.300000e-01    3.160000e+00
   N6q  SX1e  1 4.300000e-01    2.920000e+00
   P6d  SN5q  1 4.300000e-01    3.590000e+00
   P5d  SN5q  1 4.300000e-01    3.590000e+00
   P4d  SN5q  1 4.300000e-01    3.590000e+00
   P3d  SN5q  1 4.300000e-01    3.590000e+00
   P2d  SN5q  1 4.300000e-01    3.770000e+00
   P1d  SN5q  1 4.300000e-01    3.770000e+00
   N6d  SN5q  1 4.300000e-01    3.970000e+00
   N5q  SN5d  1 4.300000e-01    3.770000e+00
   N5q  SN1d  1 4.300000e-01    3.380000e+00
   N5q  SN2d  1 4.300000e-01    3.590000e+00
   N5q  SN3d  1 4.300000e-01    3.590000e+00
   N5q  SN4d  1 4.300000e-01    3.770000e+00
   P6a  SN5q  1 4.300000e-01    3.590000e+00
   P5a  SN5q  1 4.300000e-01    3.590000e+00
   P4a  SN5q  1 4.300000e-01    3.590000e+00
   P3a  SN5q  1 4.300000e-01    3.590000e+00
   P2a  SN5q  1 4.300000e-01    3.770000e+00
   P1a  SN5q  1 4.300000e-01    3.770000e+00
   N6a  SN5q  1 4.300000e-01    3.970000e+00
   N5q  SN5a  1 4.300000e-01    3.770000e+00
   N5q  SN1a  1 4.300000e-01    3.380000e+00
   N5q  SN2a  1 4.300000e-01    3.590000e+00
   N5q  SN3a  1 4.300000e-01    3.590000e+00
   N5q  SN4a  1 4.300000e-01    3.770000e+00
   N5q  SC6v  1 4.300000e-01    3.590000e+00
   N5q  SC5v  1 4.300000e-01    3.380000e+00
   N5q  SC4v  1 4.300000e-01    3.160000e+00
   N5q  SC3v  1 4.300000e-01    3.160000e+00
   N5q  SC2v  1 4.300000e-01    2.920000e+00
   N5q  SC1v  1 4.300000e-01    2.770000e+00
   N5q  SX4v  1 4.300000e-01    3.770000e+00
   N5q  SX3v  1 4.300000e-01    3.590000e+00
   N5q  SX2v  1 4.300000e-01    3.380000e+00
   N5q  SX1v  1 4.300000e-01    3.160000e+00
   N5q  SC6e  1 4.300000e-01    3.590000e+00
   N5q  SC5e  1 4.300000e-01    3.380000e+00
   N5q  SC4e  1 4.300000e-01    3.160000e+00
   N5q  SC3e  1 4.300000e-01    3.160000e+00
   N5q  SC2e  1 4.300000e-01    2.920000e+00
   N5q  SC1e  1 4.300000e-01    2.770000e+00
   N5q  SX4e  1 4.300000e-01    3.770000e+00
   N5q  SX3e  1 4.300000e-01    3.590000e+00
   N5q  SX2e  1 4.300000e-01    3.380000e+00
   N5q  SX1e  1 4.300000e-01    3.160000e+00
   P6d  SN4q  1 4.300000e-01    3.380000e+00
   P5d  SN4q  1 4.300000e-01    3.590000e+00
   P4d  SN4q  1 4.300000e-01    3.590000e+00
   P3d  SN4q  1 4.300000e-01    3.590000e+00
   P2d  SN4q  1 4.300000e-01    3.590000e+00
   P1d  SN4q  1 4.300000e-01    3.770000e+00
   N6d  SN4q  1 4.300000e-01    3.970000e+00
   N5d  SN4q  1 4.300000e-01    3.770000e+00
   N4q  SN4d  1 4.300000e-01    3.770000e+00
   N4q  SN1d  1 4.300000e-01    3.380000e+00
   N4q  SN2d  1 4.300000e-01    3.590000e+00
   N4q  SN3d  1 4.300000e-01    3.590000e+00
   P6a  SN4q  1 4.300000e-01    3.380000e+00
   P5a  SN4q  1 4.300000e-01    3.590000e+00
   P4a  SN4q  1 4.300000e-01    3.590000e+00
   P3a  SN4q  1 4.300000e-01    3.590000e+00
   P2a  SN4q  1 4.300000e-01    3.590000e+00
   P1a  SN4q  1 4.300000e-01    3.770000e+00
   N6a  SN4q  1 4.300000e-01    3.970000e+00
   N5a  SN4q  1 4.300000e-01    3.770000e+00
   N4q  SN4a  1 4.300000e-01    3.770000e+00
   N4q  SN1a  1 4.300000e-01    3.380000e+00
   N4q  SN2a  1 4.300000e-01    3.590000e+00
   N4q  SN3a  1 4.300000e-01    3.590000e+00
   N4q  SC6v  1 4.300000e-01    3.590000e+00
   N4q  SC5v  1 4.300000e-01    3.380000e+00
   N4q  SC4v  1 4.300000e-01    3.380000e+00
   N4q  SC3v  1 4.300000e-01    3.160000e+00
   N4q  SC2v  1 4.300000e-01    2.920000e+00
   N4q  SC1v  1 4.300000e-01    2.770000e+00
   N4q  SX4v  1 4.300000e-01    3.970000e+00
   N4q  SX3v  1 4.300000e-01    3.770000e+00
   N4q  SX2v  1 4.300000e-01    3.380000e+00
   N4q  SX1v  1 4.300000e-01    3.160000e+00
   N4q  SC6e  1 4.300000e-01    3.590000e+00
   N4q  SC5e  1 4.300000e-01    3.380000e+00
   N4q  SC4e  1 4.300000e-01    3.380000e+00
   N4q  SC3e  1 4.300000e-01    3.160000e+00
   N4q  SC2e  1 4.300000e-01    2.920000e+00
   N4q  SC1e  1 4.300000e-01    2.770000e+00
   N4q  SX4e  1 4.300000e-01    3.970000e+00
   N4q  SX3e  1 4.300000e-01    3.770000e+00
   N4q  SX2e  1 4.300000e-01    3.380000e+00
   N4q  SX1e  1 4.300000e-01    3.160000e+00
   P6d  SN3q  1 4.300000e-01    3.160000e+00
   P5d  SN3q  1 4.300000e-01    3.160000e+00
   P4d  SN3q  1 4.300000e-01    3.380000e+00
   P3d  SN3q  1 4.300000e-01    3.380000e+00
   P2d  SN3q  1 4.300000e-01    3.380000e+00
   P1d  SN3q  1 4.300000e-01    3.380000e+00
   N6d  SN3q  1 4.300000e-01    3.590000e+00
   N5d  SN3q  1 4.300000e-01    3.590000e+00
   N4d  SN3q  1 4.300000e-01    3.590000e+00
   N3q  SN3d  1 4.300000e-01    3.590000e+00
   N3q  SN1d  1 4.300000e-01    3.380000e+00
   N3q  SN2d  1 4.300000e-01    3.590000e+00
   P6a  SN3q  1 4.300000e-01    3.160000e+00
   P5a  SN3q  1 4.300000e-01    3.160000e+00
   P4a  SN3q  1 4.300000e-01    3.380000e+00
   P3a  SN3q  1 4.300000e-01    3.380000e+00
   P2a  SN3q  1 4.300000e-01    3.380000e+00
   P1a  SN3q  1 4.300000e-01    3.380000e+00
   N6a  SN3q  1 4.300000e-01    3.590000e+00
   N5a  SN3q  1 4.300000e-01    3.590000e+00
   N4a  SN3q  1 4.300000e-01    3.590000e+00
   N3q  SN3a  1 4.300000e-01    3.590000e+00
   N3q  SN1a  1 4.300000e-01    3.380000e+00
   N3q  SN2a  1 4.300000e-01    3.590000e+00
   N3q  SC6v  1 4.300000e-01    3.590000e+00
   N3q  SC5v  1 4.300000e-01    3.380000e+00
   N3q  SC4v  1 4.300000e-01    3.380000e+00
   N3q  SC3v  1 4.300000e-01    3.160000e+00
   N3q  SC2v  1 4.300000e-01    3.160000e+00
   N3q  SC1v  1 4.300000e-01    2.920000e+00
   N3q  SX4v  1 4.300000e-01    3.770000e+00
   N3q  SX3v  1 4.300000e-01    3.590000e+00
   N3q  SX2v  1 4.300000e-01    3.380000e+00
   N3q  SX1v  1 4.300000e-01    3.380000e+00
   N3q  SC6e  1 4.300000e-01    3.590000e+00
   N3q  SC5e  1 4.300000e-01    3.380000e+00
   N3q  SC4e  1 4.300000e-01    3.380000e+00
   N3q  SC3e  1 4.300000e-01    3.160000e+00
   N3q  SC2e  1 4.300000e-01    3.160000e+00
   N3q  SC1e  1 4.300000e-01    2.920000e+00
   N3q  SX4e  1 4.300000e-01    3.770000e+00
   N3q  SX3e  1 4.300000e-01    3.590000e+00
   N3q  SX2e  1 4.300000e-01    3.380000e+00
   N3q  SX1e  1 4.300000e-01    3.380000e+00
   P6d  SN2q  1 4.300000e-01    2.920000e+00
   P5d  SN2q  1 4.300000e-01    2.920000e+00
   P4d  SN2q  1 4.300000e-01    3.160000e+00
   P3d  SN2q  1 4.300000e-01    3.380000e+00
   P2d  SN2q  1 4.300000e-01    3.380000e+00
   P1d  SN2q  1 4.300000e-01    3.380000e+00
   N6d  SN2q  1 4.300000e-01    3.380000e+00
   N5d  SN2q  1 4.300000e-01    3.590000e+00
   N4d  SN2q  1 4.300000e-01    3.590000e+00
   N3d  SN2q  1 4.300000e-01    3.590000e+00
   N2q  SN2d  1 4.300000e-01    3.590000e+00
   N2q  SN1d  1 4.300000e-01    3.380000e+00
   P6a  SN2q  1 4.300000e-01    2.920000e+00
   P5a  SN2q  1 4.300000e-01    2.920000e+00
   P4a  SN2q  1 4.300000e-01    3.160000e+00
   P3a  SN2q  1 4.300000e-01    3.380000e+00
   P2a  SN2q  1 4.300000e-01    3.380000e+00
   P1a  SN2q  1 4.300000e-01    3.380000e+00
   N6a  SN2q  1 4.300000e-01    3.380000e+00
   N5a  SN2q  1 4.300000e-01    3.590000e+00
   N4a  SN2q  1 4.300000e-01    3.590000e+00
   N3a  SN2q  1 4.300000e-01    3.590000e+00
   N2q  SN2a  1 4.300000e-01    3.590000e+00
   N2q  SN1a  1 4.300000e-01    3.380000e+00
   N2q  SC6v  1 4.300000e-01    3.590000e+00
   N2q  SC5v  1 4.300000e-01    3.380000e+00
   N2q  SC4v  1 4.300000e-01    3.380000e+00
   N2q  SC3v  1 4.300000e-01    3.380000e+00
   N2q  SC2v  1 4.300000e-01    3.160000e+00
   N2q  SC1v  1 4.300000e-01    2.920000e+00
   N2q  SX4v  1 4.300000e-01    3.770000e+00
   N2q  SX3v  1 4.300000e-01    3.590000e+00
   N2q  SX2v  1 4.300000e-01    3.380000e+00
   N2q  SX1v  1 4.300000e-01    3.380000e+00
   N2q  SC6e  1 4.300000e-01    3.590000e+00
   N2q  SC5e  1 4.300000e-01    3.380000e+00
   N2q  SC4e  1 4.300000e-01    3.380000e+00
   N2q  SC3e  1 4.300000e-01    3.380000e+00
   N2q  SC2e  1 4.300000e-01    3.160000e+00
   N2q  SC1e  1 4.300000e-01    2.920000e+00
   N2q  SX4e  1 4.300000e-01    3.770000e+00
   N2q  SX3e  1 4.300000e-01    3.590000e+00
   N2q  SX2e  1 4.300000e-01    3.380000e+00
   N2q  SX1e  1 4.300000e-01    3.380000e+00
   P6d  SN1q  1 4.300000e-01    2.770000e+00
   P5d  SN1q  1 4.300000e-01    2.770000e+00
   P4d  SN1q  1 4.300000e-01    2.920000e+00
   P3d  SN1q  1 4.300000e-01    3.160000e+00
   P2d  SN1q  1 4.300000e-01    3.380000e+00
   P1d  SN1q  1 4.300000e-01    3.380000e+00
   N6d  SN1q  1 4.300000e-01    3.380000e+00
   N5d  SN1q  1 4.300000e-01    3.380000e+00
   N4d  SN1q  1 4.300000e-01    3.380000e+00
   N3d  SN1q  1 4.300000e-01    3.380000e+00
   N2d  SN1q  1 4.300000e-01    3.380000e+00
   N1q  SN1d  1 4.300000e-01    3.590000e+00
   P6a  SN1q  1 4.300000e-01    2.770000e+00
   P5a  SN1q  1 4.300000e-01    2.770000e+00
   P4a  SN1q  1 4.300000e-01    2.920000e+00
   P3a  SN1q  1 4.300000e-01    3.160000e+00
   P2a  SN1q  1 4.300000e-01    3.380000e+00
   P1a  SN1q  1 4.300000e-01    3.380000e+00
   N6a  SN1q  1 4.300000e-01    3.380000e+00
   N5a  SN1q  1 4.300000e-01    3.380000e+00
   N4a  SN1q  1 4.300000e-01    3.380000e+00
   N3a  SN1q  1 4.300000e-01    3.380000e+00
   N2a  SN1q  1 4.300000e-01    3.380000e+00
   N1q  SN1a  1 4.300000e-01    3.590000e+00
   N1q  SC6v  1 4.300000e-01    3.770000e+00
   N1q  SC5v  1 4.300000e-01    3.590000e+00
   N1q  SC4v  1 4.300000e-01    3.590000e+00
   N1q  SC3v  1 4.300000e-01    3.380000e+00
   N1q  SC2v  1 4.300000e-01    3.160000e+00
   N1q  SC1v  1 4.300000e-01    2.920000e+00
   N1q  SX4v  1 4.300000e-01    3.590000e+00
   N1q  SX3v  1 4.300000e-01    3.590000e+00
   N1q  SX2v  1 4.300000e-01    3.380000e+00
   N1q  SX1v  1 4.300000e-01    3.380000e+00
   N1q  SC6e  1 4.300000e-01    3.770000e+00
   N1q  SC5e  1 4.300000e-01    3.590000e+00
   N1q  SC4e  1 4.300000e-01    3.590000e+00
   N1q  SC3e  1 4.300000e-01    3.380000e+00
   N1q  SC2e  1 4.300000e-01    3.160000e+00
   N1q  SC1e  1 4.300000e-01    2.920000e+00
   N1q  SX4e  1 4.300000e-01    3.590000e+00
   N1q  SX3e  1 4.300000e-01    3.590000e+00
   N1q  SX2e  1 4.300000e-01    3.380000e+00
   N1q  SX1e  1 4.300000e-01    3.380000e+00
   P6d  SC6q  1 4.300000e-01    2.770000e+00
   P5d  SC6q  1 4.300000e-01    2.770000e+00
   P4d  SC6q  1 4.300000e-01    2.920000e+00
   P3d  SC6q  1 4.300000e-01    3.160000e+00
   P2d  SC6q  1 4.300000e-01    3.160000e+00
   P1d  SC6q  1 4.300000e-01    3.160000e+00
   N6d  SC6q  1 4.300000e-01    3.380000e+00
   N5d  SC6q  1 4.300000e-01    3.380000e+00
   N4d  SC6q  1 4.300000e-01    3.380000e+00
   N3d  SC6q  1 4.300000e-01    3.380000e+00
   N2d  SC6q  1 4.300000e-01    3.380000e+00
   N1d  SC6q  1 4.300000e-01    3.590000e+00
   P6a  SC6q  1 4.300000e-01    2.770000e+00
   P5a  SC6q  1 4.300000e-01    2.770000e+00
   P4a  SC6q  1 4.300000e-01    2.920000e+00
   P3a  SC6q  1 4.300000e-01    3.160000e+00
   P2a  SC6q  1 4.300000e-01    3.160000e+00
   P1a  SC6q  1 4.300000e-01    3.160000e+00
   N6a  SC6q  1 4.300000e-01    3.380000e+00
   N5a  SC6q  1 4.300000e-01    3.380000e+00
   N4a  SC6q  1 4.300000e-01    3.380000e+00
   N3a  SC6q  1 4.300000e-01    3.380000e+00
   N2a  SC6q  1 4.300000e-01    3.380000e+00
   N1a  SC6q  1 4.300000e-01    3.590000e+00
   C6q  SC6v  1 4.300000e-01    3.770000e+00
   C6q  SX1v  1 4.300000e-01    3.590000e+00
   C6q  SX2v  1 4.300000e-01    3.590000e+00
   C6q  SX3v  1 4.300000e-01    3.590000e+00
   C6q  SX4v  1 4.300000e-01    3.590000e+00
   C6q  SC1v  1 4.300000e-01    2.920000e+00
   C6q  SC2v  1 4.300000e-01    3.160000e+00
   C6q  SC3v  1 4.300000e-01    3.380000e+00
   C6q  SC4v  1 4.300000e-01    3.590000e+00
   C6q  SC5v  1 4.300000e-01    3.590000e+00
   C6q  SC6e  1 4.300000e-01    3.770000e+00
   C6q  SX1e  1 4.300000e-01    3.590000e+00
   C6q  SX2e  1 4.300000e-01    3.590000e+00
   C6q  SX3e  1 4.300000e-01    3.590000e+00
   C6q  SX4e  1 4.300000e-01    3.590000e+00
   C6q  SC1e  1 4.300000e-01    2.920000e+00
   C6q  SC2e  1 4.300000e-01    3.160000e+00
   C6q  SC3e  1 4.300000e-01    3.380000e+00
   C6q  SC4e  1 4.300000e-01    3.590000e+00
   C6q  SC5e  1 4.300000e-01    3.590000e+00
   P6d  SC5q  1 4.300000e-01    2.530000e+00
   P5d  SC5q  1 4.300000e-01    2.770000e+00
   P4d  SC5q  1 4.300000e-01    2.770000e+00
   P3d  SC5q  1 4.300000e-01    2.920000e+00
   P2d  SC5q  1 4.300000e-01    2.920000e+00
   P1d  SC5q  1 4.300000e-01    2.920000e+00
   N6d  SC5q  1 4.300000e-01    3.160000e+00
   N5d  SC5q  1 4.300000e-01    3.160000e+00
   N4d  SC5q  1 4.300000e-01    3.160000e+00
   N3d  SC5q  1 4.300000e-01    3.160000e+00
   N2d  SC5q  1 4.300000e-01    3.160000e+00
   N1d  SC5q  1 4.300000e-01    3.380000e+00
   P6a  SC5q  1 4.300000e-01    2.530000e+00
   P5a  SC5q  1 4.300000e-01    2.770000e+00
   P4a  SC5q  1 4.300000e-01    2.770000e+00
   P3a  SC5q  1 4.300000e-01    2.920000e+00
   P2a  SC5q  1 4.300000e-01    2.920000e+00
   P1a  SC5q  1 4.300000e-01    2.920000e+00
   N6a  SC5q  1 4.300000e-01    3.160000e+00
   N5a  SC5q  1 4.300000e-01    3.160000e+00
   N4a  SC5q  1 4.300000e-01    3.160000e+00
   N3a  SC5q  1 4.300000e-01    3.160000e+00
   N2a  SC5q  1 4.300000e-01    3.160000e+00
   N1a  SC5q  1 4.300000e-01    3.380000e+00
   C6v  SC5q  1 4.300000e-01    3.590000e+00
   C5q  SC5v  1 4.300000e-01    3.590000e+00
   C5q  SX1v  1 4.300000e-01    3.590000e+00
   C5q  SX2v  1 4.300000e-01    3.380000e+00
   C5q  SX3v  1 4.300000e-01    3.380000e+00
   C5q  SX4v  1 4.300000e-01    3.380000e+00
   C5q  SC1v  1 4.300000e-01    3.160000e+00
   C5q  SC2v  1 4.300000e-01    3.160000e+00
   C5q  SC3v  1 4.300000e-01    3.380000e+00
   C5q  SC4v  1 4.300000e-01    3.590000e+00
   C6e  SC5q  1 4.300000e-01    3.590000e+00
   C5q  SC5e  1 4.300000e-01    3.590000e+00
   C5q  SX1e  1 4.300000e-01    3.590000e+00
   C5q  SX2e  1 4.300000e-01    3.380000e+00
   C5q  SX3e  1 4.300000e-01    3.380000e+00
   C5q  SX4e  1 4.300000e-01    3.380000e+00
   C5q  SC1e  1 4.300000e-01    3.160000e+00
   C5q  SC2e  1 4.300000e-01    3.160000e+00
   C5q  SC3e  1 4.300000e-01    3.380000e+00
   C5q  SC4e  1 4.300000e-01    3.590000e+00
   P6d  SC4q  1 4.300000e-01    2.320000e+00
   P5d  SC4q  1 4.300000e-01    2.530000e+00
   P4d  SC4q  1 4.300000e-01    2.530000e+00
   P3d  SC4q  1 4.300000e-01    2.770000e+00
   P2d  SC4q  1 4.300000e-01    2.770000e+00
   P1d  SC4q  1 4.300000e-01    2.770000e+00
   N6d  SC4q  1 4.300000e-01    2.920000e+00
   N5d  SC4q  1 4.300000e-01    2.920000e+00
   N4d  SC4q  1 4.300000e-01    3.160000e+00
   N3d  SC4q  1 4.300000e-01    3.160000e+00
   N2d  SC4q  1 4.300000e-01    3.160000e+00
   N1d  SC4q  1 4.300000e-01    3.380000e+00
   P6a  SC4q  1 4.300000e-01    2.320000e+00
   P5a  SC4q  1 4.300000e-01    2.530000e+00
   P4a  SC4q  1 4.300000e-01    2.530000e+00
   P3a  SC4q  1 4.300000e-01    2.770000e+00
   P2a  SC4q  1 4.300000e-01    2.770000e+00
   P1a  SC4q  1 4.300000e-01    2.770000e+00
   N6a  SC4q  1 4.300000e-01    2.920000e+00
   N5a  SC4q  1 4.300000e-01    2.920000e+00
   N4a  SC4q  1 4.300000e-01    3.160000e+00
   N3a  SC4q  1 4.300000e-01    3.160000e+00
   N2a  SC4q  1 4.300000e-01    3.160000e+00
   N1a  SC4q  1 4.300000e-01    3.380000e+00
   C6v  SC4q  1 4.300000e-01    3.590000e+00
   C5v  SC4q  1 4.300000e-01    3.590000e+00
   C4q  SC4v  1 4.300000e-01    3.590000e+00
   C4q  SX1v  1 4.300000e-01    3.590000e+00
   C4q  SX2v  1 4.300000e-01    3.380000e+00
   C4q  SX3v  1 4.300000e-01    3.380000e+00
   C4q  SX4v  1 4.300000e-01    3.380000e+00
   C4q  SC1v  1 4.300000e-01    3.160000e+00
   C4q  SC2v  1 4.300000e-01    3.380000e+00
   C4q  SC3v  1 4.300000e-01    3.590000e+00
   C6e  SC4q  1 4.300000e-01    3.590000e+00
   C5e  SC4q  1 4.300000e-01    3.590000e+00
   C4q  SC4e  1 4.300000e-01    3.590000e+00
   C4q  SX1e  1 4.300000e-01    3.590000e+00
   C4q  SX2e  1 4.300000e-01    3.380000e+00
   C4q  SX3e  1 4.300000e-01    3.380000e+00
   C4q  SX4e  1 4.300000e-01    3.380000e+00
   C4q  SC1e  1 4.300000e-01    3.160000e+00
   C4q  SC2e  1 4.300000e-01    3.380000e+00
   C4q  SC3e  1 4.300000e-01    3.590000e+00
   P6d  SC3q  1 4.300000e-01    2.160000e+00
   P5d  SC3q  1 4.300000e-01    2.320000e+00
   P4d  SC3q  1 4.300000e-01    2.320000e+00
   P3d  SC3q  1 4.300000e-01    2.320000e+00
   P2d  SC3q  1 4.300000e-01    2.530000e+00
   P1d  SC3q  1 4.300000e-01    2.530000e+00
   N6d  SC3q  1 4.300000e-01    2.770000e+00
   N5d  SC3q  1 4.300000e-01    2.920000e+00
   N4d  SC3q  1 4.300000e-01    2.920000e+00
   N3d  SC3q  1 4.300000e-01    2.920000e+00
   N2d  SC3q  1 4.300000e-01    3.160000e+00
   N1d  SC3q  1 4.300000e-01    3.160000e+00
   P6a  SC3q  1 4.300000e-01    2.160000e+00
   P5a  SC3q  1 4.300000e-01    2.320000e+00
   P4a  SC3q  1 4.300000e-01    2.320000e+00
   P3a  SC3q  1 4.300000e-01    2.320000e+00
   P2a  SC3q  1 4.300000e-01    2.530000e+00
   P1a  SC3q  1 4.300000e-01    2.530000e+00
   N6a  SC3q  1 4.300000e-01    2.770000e+00
   N5a  SC3q  1 4.300000e-01    2.920000e+00
   N4a  SC3q  1 4.300000e-01    2.920000e+00
   N3a  SC3q  1 4.300000e-01    2.920000e+00
   N2a  SC3q  1 4.300000e-01    3.160000e+00
   N1a  SC3q  1 4.300000e-01    3.160000e+00
   C6v  SC3q  1 4.300000e-01    3.380000e+00
   C5v  SC3q  1 4.300000e-01    3.380000e+00
   C4v  SC3q  1 4.300000e-01    3.590000e+00
   C3q  SC3v  1 4.300000e-01    3.590000e+00
   C3q  SX1v  1 4.300000e-01    3.590000e+00
   C3q  SX2v  1 4.300000e-01    3.380000e+00
   C3q  SX3v  1 4.300000e-01    3.380000e+00
   C3q  SX4v  1 4.300000e-01    3.380000e+00
   C3q  SC1v  1 4.300000e-01    3.590000e+00
   C3q  SC2v  1 4.300000e-01    3.590000e+00
   C6e  SC3q  1 4.300000e-01    3.380000e+00
   C5e  SC3q  1 4.300000e-01    3.380000e+00
   C4e  SC3q  1 4.300000e-01    3.590000e+00
   C3q  SC3e  1 4.300000e-01    3.590000e+00
   C3q  SX1e  1 4.300000e-01    3.590000e+00
   C3q  SX2e  1 4.300000e-01    3.380000e+00
   C3q  SX3e  1 4.300000e-01    3.380000e+00
   C3q  SX4e  1 4.300000e-01    3.380000e+00
   C3q  SC1e  1 4.300000e-01    3.590000e+00
   C3q  SC2e  1 4.300000e-01    3.590000e+00
   P6d  SC2q  1 4.300000e-01    2.160000e+00
   P5d  SC2q  1 4.300000e-01    2.320000e+00
   P4d  SC2q  1 4.300000e-01    2.320000e+00
   P3d  SC2q  1 4.300000e-01    2.320000e+00
   P2d  SC2q  1 4.300000e-01    2.530000e+00
   P1d  SC2q  1 4.300000e-01    2.530000e+00
   N6d  SC2q  1 4.300000e-01    2.770000e+00
   N5d  SC2q  1 4.300000e-01    2.770000e+00
   N4d  SC2q  1 4.300000e-01    2.770000e+00
   N3d  SC2q  1 4.300000e-01    2.920000e+00
   N2d  SC2q  1 4.300000e-01    2.920000e+00
   N1d  SC2q  1 4.300000e-01    2.920000e+00
   P6a  SC2q  1 4.300000e-01    2.160000e+00
   P5a  SC2q  1 4.300000e-01    2.320000e+00
   P4a  SC2q  1 4.300000e-01    2.320000e+00
   P3a  SC2q  1 4.300000e-01    2.320000e+00
   P2a  SC2q  1 4.300000e-01    2.530000e+00
   P1a  SC2q  1 4.300000e-01    2.530000e+00
   N6a  SC2q  1 4.300000e-01    2.770000e+00
   N5a  SC2q  1 4.300000e-01    2.770000e+00
   N4a  SC2q  1 4.300000e-01    2.770000e+00
   N3a  SC2q  1 4.300000e-01    2.920000e+00
   N2a  SC2q  1 4.300000e-01    2.920000e+00
   N1a  SC2q  1 4.300000e-01    2.920000e+00
   C6v  SC2q  1 4.300000e-01    3.160000e+00
   C5v  SC2q  1 4.300000e-01    3.160000e+00
   C4v  SC2q  1 4.300000e-01    3.380000e+00
   C3v  SC2q  1 4.300000e-01    3.590000e+00
   C2q  SC2v  1 4.300000e-01    3.590000e+00
   C2q  SX1v  1 4.300000e-01    3.380000e+00
   C2q  SX2v  1 4.300000e-01    3.380000e+00
   C2q  SX3v  1 4.300000e-01    3.380000e+00
   C2q  SX4v  1 4.300000e-01    2.920000e+00
   C2q  SC1v  1 4.300000e-01    3.770000e+00
   C6e  SC2q  1 4.300000e-01    3.160000e+00
   C5e  SC2q  1 4.300000e-01    3.160000e+00
   C4e  SC2q  1 4.300000e-01    3.380000e+00
   C3e  SC2q  1 4.300000e-01    3.590000e+00
   C2q  SC2e  1 4.300000e-01    3.590000e+00
   C2q  SX1e  1 4.300000e-01    3.380000e+00
   C2q  SX2e  1 4.300000e-01    3.380000e+00
   C2q  SX3e  1 4.300000e-01    3.380000e+00
   C2q  SX4e  1 4.300000e-01    2.920000e+00
   C2q  SC1e  1 4.300000e-01    3.770000e+00
   P6d  SC1q  1 4.300000e-01    1.730000e+00
   P5d  SC1q  1 4.300000e-01    2.160000e+00
   P4d  SC1q  1 4.300000e-01    2.160000e+00
   P3d  SC1q  1 4.300000e-01    2.160000e+00
   P2d  SC1q  1 4.300000e-01    2.320000e+00
   P1d  SC1q  1 4.300000e-01    2.320000e+00
   N6d  SC1q  1 4.300000e-01    2.530000e+00
   N5d  SC1q  1 4.300000e-01    2.530000e+00
   N4d  SC1q  1 4.300000e-01    2.530000e+00
   N3d  SC1q  1 4.300000e-01    2.770000e+00
   N2d  SC1q  1 4.300000e-01    2.770000e+00
   N1d  SC1q  1 4.300000e-01    2.770000e+00
   P6a  SC1q  1 4.300000e-01    1.730000e+00
   P5a  SC1q  1 4.300000e-01    2.160000e+00
   P4a  SC1q  1 4.300000e-01    2.160000e+00
   P3a  SC1q  1 4.300000e-01    2.160000e+00
   P2a  SC1q  1 4.300000e-01    2.320000e+00
   P1a  SC1q  1 4.300000e-01    2.320000e+00
   N6a  SC1q  1 4.300000e-01    2.530000e+00
   N5a  SC1q  1 4.300000e-01    2.530000e+00
   N4a  SC1q  1 4.300000e-01    2.530000e+00
   N3a  SC1q  1 4.300000e-01    2.770000e+00
   N2a  SC1q  1 4.300000e-01    2.770000e+00
   N1a  SC1q  1 4.300000e-01    2.770000e+00
   C6v  SC1q  1 4.300000e-01    2.920000e+00
   C5v  SC1q  1 4.300000e-01    3.160000e+00
   C4v  SC1q  1 4.300000e-01    3.160000e+00
   C3v  SC1q  1 4.300000e-01    3.590000e+00
   C2v  SC1q  1 4.300000e-01    3.770000e+00
   C1q  SC1v  1 4.300000e-01    3.590000e+00
   C1q  SX1v  1 4.300000e-01    3.380000e+00
   C1q  SX2v  1 4.300000e-01    3.380000e+00
   C1q  SX3v  1 4.300000e-01    3.380000e+00
   C1q  SX4v  1 4.300000e-01    2.920000e+00
   C6e  SC1q  1 4.300000e-01    2.920000e+00
   C5e  SC1q  1 4.300000e-01    3.160000e+00
   C4e  SC1q  1 4.300000e-01    3.160000e+00
   C3e  SC1q  1 4.300000e-01    3.590000e+00
   C2e  SC1q  1 4.300000e-01    3.770000e+00
   C1q  SC1e  1 4.300000e-01    3.590000e+00
   C1q  SX1e  1 4.300000e-01    3.380000e+00
   C1q  SX2e  1 4.300000e-01    3.380000e+00
   C1q  SX3e  1 4.300000e-01    3.380000e+00
   C1q  SX4e  1 4.300000e-01    2.920000e+00
   P6d  SX4q  1 4.300000e-01    2.920000e+00
   P5d  SX4q  1 4.300000e-01    3.160000e+00
   P4d  SX4q  1 4.300000e-01    3.160000e+00
   P3d  SX4q  1 4.300000e-01    3.160000e+00
   P2d  SX4q  1 4.300000e-01    3.160000e+00
   P1d  SX4q  1 4.300000e-01    3.160000e+00
   N6d  SX4q  1 4.300000e-01    3.380000e+00
   N5d  SX4q  1 4.300000e-01    3.590000e+00
   N4d  SX4q  1 4.300000e-01    3.770000e+00
   N3d  SX4q  1 4.300000e-01    3.590000e+00
   N2d  SX4q  1 4.300000e-01    3.590000e+00
   N1d  SX4q  1 4.300000e-01    3.380000e+00
   P6a  SX4q  1 4.300000e-01    2.920000e+00
   P5a  SX4q  1 4.300000e-01    3.160000e+00
   P4a  SX4q  1 4.300000e-01    3.160000e+00
   P3a  SX4q  1 4.300000e-01    3.160000e+00
   P2a  SX4q  1 4.300000e-01    3.160000e+00
   P1a  SX4q  1 4.300000e-01    3.160000e+00
   N6a  SX4q  1 4.300000e-01    3.380000e+00
   N5a  SX4q  1 4.300000e-01    3.590000e+00
   N4a  SX4q  1 4.300000e-01    3.770000e+00
   N3a  SX4q  1 4.300000e-01    3.590000e+00
   N2a  SX4q  1 4.300000e-01    3.590000e+00
   N1a  SX4q  1 4.300000e-01    3.380000e+00
   C6v  SX4q  1 4.300000e-01    3.590000e+00
   C5v  SX4q  1 4.300000e-01    3.380000e+00
   C4v  SX4q  1 4.300000e-01    3.380000e+00
   C3v  SX4q  1 4.300000e-01    3.380000e+00
   C2v  SX4q  1 4.300000e-01    2.920000e+00
   C1v  SX4q  1 4.300000e-01    2.920000e+00
   X4q  SX4v  1 4.300000e-01    3.590000e+00
   X4q  SX1v  1 4.300000e-01    3.590000e+00
   X4q  SX2v  1 4.300000e-01    3.590000e+00
   X4q  SX3v  1 4.300000e-01    3.590000e+00
   C6e  SX4q  1 4.300000e-01    3.590000e+00
   C5e  SX4q  1 4.300000e-01    3.380000e+00
   C4e  SX4q  1 4.300000e-01    3.380000e+00
   C3e  SX4q  1 4.300000e-01    3.380000e+00
   C2e  SX4q  1 4.300000e-01    2.920000e+00
   C1e  SX4q  1 4.300000e-01    2.920000e+00
   X4q  SX4e  1 4.300000e-01    3.590000e+00
   X4q  SX1e  1 4.300000e-01    3.590000e+00
   X4q  SX2e  1 4.300000e-01    3.590000e+00
   X4q  SX3e  1 4.300000e-01    3.590000e+00
   P6d  SX3q  1 4.300000e-01    2.920000e+00
   P5d  SX3q  1 4.300000e-01    2.920000e+00
   P4d  SX3q  1 4.300000e-01    2.920000e+00
   P3d  SX3q  1 4.300000e-01    3.160000e+00
   P2d  SX3q  1 4.300000e-01    3.160000e+00
   P1d  SX3q  1 4.300000e-01    3.160000e+00
   N6d  SX3q  1 4.300000e-01    3.160000e+00
   N5d  SX3q  1 4.300000e-01    3.380000e+00
   N4d  SX3q  1 4.300000e-01    3.590000e+00
   N3d  SX3q  1 4.300000e-01    3.380000e+00
   N2d  SX3q  1 4.300000e-01    3.380000e+00
   N1d  SX3q  1 4.300000e-01    3.380000e+00
   P6a  SX3q  1 4.300000e-01    2.920000e+00
   P5a  SX3q  1 4.300000e-01    2.920000e+00
   P4a  SX3q  1 4.300000e-01    2.920000e+00
   P3a  SX3q  1 4.300000e-01    3.160000e+00
   P2a  SX3q  1 4.300000e-01    3.160000e+00
   P1a  SX3q  1 4.300000e-01    3.160000e+00
   N6a  SX3q  1 4.300000e-01    3.160000e+00
   N5a  SX3q  1 4.300000e-01    3.380000e+00
   N4a  SX3q  1 4.300000e-01    3.590000e+00
   N3a  SX3q  1 4.300000e-01    3.380000e+00
   N2a  SX3q  1 4.300000e-01    3.380000e+00
   N1a  SX3q  1 4.300000e-01    3.380000e+00
   C6v  SX3q  1 4.300000e-01    3.590000e+00
   C5v  SX3q  1 4.300000e-01    3.380000e+00
   C4v  SX3q  1 4.300000e-01    3.380000e+00
   C3v  SX3q  1 4.300000e-01    3.380000e+00
   C2v  SX3q  1 4.300000e-01    3.380000e+00
   C1v  SX3q  1 4.300000e-01    3.380000e+00
   X4v  SX3q  1 4.300000e-01    3.590000e+00
   X3q  SX3v  1 4.300000e-01    3.590000e+00
   X3q  SX1v  1 4.300000e-01    3.770000e+00
   X3q  SX2v  1 4.300000e-01    3.770000e+00
   C6e  SX3q  1 4.300000e-01    3.590000e+00
   C5e  SX3q  1 4.300000e-01    3.380000e+00
   C4e  SX3q  1 4.300000e-01    3.380000e+00
   C3e  SX3q  1 4.300000e-01    3.380000e+00
   C2e  SX3q  1 4.300000e-01    3.380000e+00
   C1e  SX3q  1 4.300000e-01    3.380000e+00
   X4e  SX3q  1 4.300000e-01    3.590000e+00
   X3q  SX3e  1 4.300000e-01    3.590000e+00
   X3q  SX1e  1 4.300000e-01    3.770000e+00
   X3q  SX2e  1 4.300000e-01    3.770000e+00
   P6d  SX2q  1 4.300000e-01    2.770000e+00
   P5d  SX2q  1 4.300000e-01    2.920000e+00
   P4d  SX2q  1 4.300000e-01    2.920000e+00
   P3d  SX2q  1 4.300000e-01    2.920000e+00
   P2d  SX2q  1 4.300000e-01    2.920000e+00
   P1d  SX2q  1 4.300000e-01    2.920000e+00
   N6d  SX2q  1 4.300000e-01    2.920000e+00
   N5d  SX2q  1 4.300000e-01    3.160000e+00
   N4d  SX2q  1 4.300000e-01    3.160000e+00
   N3d  SX2q  1 4.300000e-01    3.160000e+00
   N2d  SX2q  1 4.300000e-01    3.160000e+00
   N1d  SX2q  1 4.300000e-01    3.160000e+00
   P6a  SX2q  1 4.300000e-01    2.770000e+00
   P5a  SX2q  1 4.300000e-01    2.920000e+00
   P4a  SX2q  1 4.300000e-01    2.920000e+00
   P3a  SX2q  1 4.300000e-01    2.920000e+00
   P2a  SX2q  1 4.300000e-01    2.920000e+00
   P1a  SX2q  1 4.300000e-01    2.920000e+00
   N6a  SX2q  1 4.300000e-01    2.920000e+00
   N5a  SX2q  1 4.300000e-01    3.160000e+00
   N4a  SX2q  1 4.300000e-01    3.160000e+00
   N3a  SX2q  1 4.300000e-01    3.160000e+00
   N2a  SX2q  1 4.300000e-01    3.160000e+00
   N1a  SX2q  1 4.300000e-01    3.160000e+00
   C6v  SX2q  1 4.300000e-01    3.590000e+00
   C5v  SX2q  1 4.300000e-01    3.380000e+00
   C4v  SX2q  1 4.300000e-01    3.380000e+00
   C3v  SX2q  1 4.300000e-01    3.380000e+00
   C2v  SX2q  1 4.300000e-01    3.380000e+00
   C1v  SX2q  1 4.300000e-01    3.380000e+00
   X4v  SX2q  1 4.300000e-01    3.590000e+00
   X3v  SX2q  1 4.300000e-01    3.770000e+00
   X2q  SX2v  1 4.300000e-01    3.770000e+00
   X2q  SX1v  1 4.300000e-01    3.770000e+00
   C6e  SX2q  1 4.300000e-01    3.590000e+00
   C5e  SX2q  1 4.300000e-01    3.380000e+00
   C4e  SX2q  1 4.300000e-01    3.380000e+00
   C3e  SX2q  1 4.300000e-01    3.380000e+00
   C2e  SX2q  1 4.300000e-01    3.380000e+00
   C1e  SX2q  1 4.300000e-01    3.380000e+00
   X4e  SX2q  1 4.300000e-01    3.590000e+00
   X3e  SX2q  1 4.300000e-01    3.770000e+00
   X2q  SX2e  1 4.300000e-01    3.770000e+00
   X2q  SX1e  1 4.300000e-01    3.770000e+00
   P6d  SX1q  1 4.300000e-01    2.530000e+00
   P5d  SX1q  1 4.300000e-01    2.530000e+00
   P4d  SX1q  1 4.300000e-01    2.770000e+00
   P3d  SX1q  1 4.300000e-01    2.770000e+00
   P2d  SX1q  1 4.300000e-01    2.770000e+00
   P1d  SX1q  1 4.300000e-01    2.770000e+00
   N6d  SX1q  1 4.300000e-01    2.770000e+00
   N5d  SX1q  1 4.300000e-01    2.920000e+00
   N4d  SX1q  1 4.300000e-01    2.920000e+00
   N3d  SX1q  1 4.300000e-01    3.160000e+00
   N2d  SX1q  1 4.300000e-01    3.160000e+00
   N1d  SX1q  1 4.300000e-01    3.160000e+00
   P6a  SX1q  1 4.300000e-01    2.530000e+00
   P5a  SX1q  1 4.300000e-01    2.530000e+00
   P4a  SX1q  1 4.300000e-01    2.770000e+00
   P3a  SX1q  1 4.300000e-01    2.770000e+00
   P2a  SX1q  1 4.300000e-01    2.770000e+00
   P1a  SX1q  1 4.300000e-01    2.770000e+00
   N6a  SX1q  1 4.300000e-01    2.770000e+00
   N5a  SX1q  1 4.300000e-01    2.920000e+00
   N4a  SX1q  1 4.300000e-01    2.920000e+00
   N3a  SX1q  1 4.300000e-01    3.160000e+00
   N2a  SX1q  1 4.300000e-01    3.160000e+00
   N1a  SX1q  1 4.300000e-01    3.160000e+00
   C6v  SX1q  1 4.300000e-01    3.590000e+00
   C5v  SX1q  1 4.300000e-01    3.590000e+00
   C4v  SX1q  1 4.300000e-01    3.590000e+00
   C3v  SX1q  1 4.300000e-01    3.590000e+00
   C2v  SX1q  1 4.300000e-01    3.380000e+00
   C1v  SX1q  1 4.300000e-01    3.380000e+00
   X4v  SX1q  1 4.300000e-01    3.590000e+00
   X3v  SX1q  1 4.300000e-01    3.770000e+00
   X2v  SX1q  1 4.300000e-01    3.770000e+00
   X1q  SX1v  1 4.300000e-01    3.970000e+00
   C6e  SX1q  1 4.300000e-01    3.590000e+00
   C5e  SX1q  1 4.300000e-01    3.590000e+00
   C4e  SX1q  1 4.300000e-01    3.590000e+00
   C3e  SX1q  1 4.300000e-01    3.590000e+00
   C2e  SX1q  1 4.300000e-01    3.380000e+00
   C1e  SX1q  1 4.300000e-01    3.380000e+00
   X4e  SX1q  1 4.300000e-01    3.590000e+00
   X3e  SX1q  1 4.300000e-01    3.770000e+00
   X2e  SX1q  1 4.300000e-01    3.770000e+00
   X1q  SX1e  1 4.300000e-01    3.970000e+00
   C6v SC6vq  1 4.300000e-01    3.380000e+00
  C6vq  SC5v  1 4.300000e-01    3.160000e+00
  C6vq  SC4v  1 4.300000e-01    3.160000e+00
  C6vq  SC3v  1 4.300000e-01    2.920000e+00
  C6vq  SC2v  1 4.300000e-01    2.770000e+00
  C6vq  SC1v  1 4.300000e-01    2.530000e+00
  C6vq  SX4v  1 4.300000e-01    3.160000e+00
  C6vq  SX3v  1 4.300000e-01    3.160000e+00
  C6vq  SX2v  1 4.300000e-01    3.160000e+00
  C6vq  SX1v  1 4.300000e-01    3.160000e+00
   C5v SC5vq  1 4.300000e-01    3.160000e+00
  C5vq  SC4v  1 4.300000e-01    3.160000e+00
  C5vq  SC3v  1 4.300000e-01    2.920000e+00
  C5vq  SC2v  1 4.300000e-01    2.770000e+00
  C5vq  SC1v  1 4.300000e-01    2.770000e+00
  C5vq  SX4v  1 4.300000e-01    2.920000e+00
  C5vq  SX3v  1 4.300000e-01    2.920000e+00
  C5vq  SX2v  1 4.300000e-01    2.920000e+00
  C5vq  SX1v  1 4.300000e-01    3.160000e+00
   C4v SC4vq  1 4.300000e-01    3.160000e+00
  C4vq  SC3v  1 4.300000e-01    3.160000e+00
  C4vq  SC2v  1 4.300000e-01    2.920000e+00
  C4vq  SC1v  1 4.300000e-01    2.770000e+00
  C4vq  SX4v  1 4.300000e-01    2.920000e+00
  C4vq  SX3v  1 4.300000e-01    2.920000e+00
  C4vq  SX2v  1 4.300000e-01    2.920000e+00
  C4vq  SX1v  1 4.300000e-01    3.160000e+00
   C3v SC3vq  1 4.300000e-01    3.160000e+00
  C3vq  SC2v  1 4.300000e-01    3.160000e+00
  C3vq  SC1v  1 4.300000e-01    3.160000e+00
  C3vq  SX4v  1 4.300000e-01    2.920000e+00
  C3vq  SX3v  1 4.300000e-01    2.920000e+00
  C3vq  SX2v  1 4.300000e-01    2.920000e+00
  C3vq  SX1v  1 4.300000e-01    3.160000e+00
   C2v SC2vq  1 4.300000e-01    3.160000e+00
  C2vq  SC1v  1 4.300000e-01    3.380000e+00
  C2vq  SX4v  1 4.300000e-01    2.530000e+00
  C2vq  SX3v  1 4.300000e-01    2.920000e+00
  C2vq  SX2v  1 4.300000e-01    2.920000e+00
  C2vq  SX1v  1 4.300000e-01    2.920000e+00
   C1v SC1vq  1 4.300000e-01    3.160000e+00
  C1vq  SX4v  1 4.300000e-01    2.530000e+00
  C1vq  SX3v  1 4.300000e-01    2.920000e+00
  C1vq  SX2v  1 4.300000e-01    2.920000e+00
  C1vq  SX1v  1 4.300000e-01    2.920000e+00
   X4v SX4vq  1 4.300000e-01    3.160000e+00
  X4vq  SX3v  1 4.300000e-01    3.160000e+00
  X4vq  SX2v  1 4.300000e-01    3.160000e+00
  X4vq  SX1v  1 4.300000e-01    3.160000e+00
   X3v SX3vq  1 4.300000e-01    3.160000e+00
  X3vq  SX2v  1 4.300000e-01    3.380000e+00
  X3vq  SX1v  1 4.300000e-01    3.380000e+00
   X2v SX2vq  1 4.300000e-01    3.380000e+00
  X2vq  SX1v  1 4.300000e-01    3.380000e+00
   X1v SX1vq  1 4.300000e-01    3.590000e+00
   C6e SC6eq  1 4.300000e-01    3.380000e+00
  C6eq  SC5e  1 4.300000e-01    3.160000e+00
  C6eq  SC4e  1 4.300000e-01    3.160000e+00
  C6eq  SC3e  1 4.300000e-01    2.920000e+00
  C6eq  SC2e  1 4.300000e-01    2.770000e+00
  C6eq  SC1e  1 4.300000e-01    2.530000e+00
  C6eq  SX4e  1 4.300000e-01    3.160000e+00
  C6eq  SX3e  1 4.300000e-01    3.160000e+00
  C6eq  SX2e  1 4.300000e-01    3.160000e+00
  C6eq  SX1e  1 4.300000e-01    3.160000e+00
   C5e SC5eq  1 4.300000e-01    3.160000e+00
  C5eq  SC4e  1 4.300000e-01    3.160000e+00
  C5eq  SC3e  1 4.300000e-01    2.920000e+00
  C5eq  SC2e  1 4.300000e-01    2.770000e+00
  C5eq  SC1e  1 4.300000e-01    2.770000e+00
  C5eq  SX4e  1 4.300000e-01    2.920000e+00
  C5eq  SX3e  1 4.300000e-01    2.920000e+00
  C5eq  SX2e  1 4.300000e-01    2.920000e+00
  C5eq  SX1e  1 4.300000e-01    3.160000e+00
   C4e SC4eq  1 4.300000e-01    3.160000e+00
  C4eq  SC3e  1 4.300000e-01    3.160000e+00
  C4eq  SC2e  1 4.300000e-01    2.920000e+00
  C4eq  SC1e  1 4.300000e-01    2.770000e+00
  C4eq  SX4e  1 4.300000e-01    2.920000e+00
  C4eq  SX3e  1 4.300000e-01    2.920000e+00
  C4eq  SX2e  1 4.300000e-01    2.920000e+00
  C4eq  SX1e  1 4.300000e-01    3.160000e+00
   C3e SC3eq  1 4.300000e-01    3.160000e+00
  C3eq  SC2e  1 4.300000e-01    3.160000e+00
  C3eq  SC1e  1 4.300000e-01    3.160000e+00
  C3eq  SX4e  1 4.300000e-01    2.920000e+00
  C3eq  SX3e  1 4.300000e-01    2.920000e+00
  C3eq  SX2e  1 4.300000e-01    2.920000e+00
  C3eq  SX1e  1 4.300000e-01    3.160000e+00
   C2e SC2eq  1 4.300000e-01    3.160000e+00
  C2eq  SC1e  1 4.300000e-01    3.380000e+00
  C2eq  SX4e  1 4.300000e-01    2.530000e+00
  C2eq  SX3e  1 4.300000e-01    2.920000e+00
  C2eq  SX2e  1 4.300000e-01    2.920000e+00
  C2eq  SX1e  1 4.300000e-01    2.920000e+00
   C1e SC1eq  1 4.300000e-01    3.160000e+00
  C1eq  SX4e  1 4.300000e-01    2.530000e+00
  C1eq  SX3e  1 4.300000e-01    2.920000e+00
  C1eq  SX2e  1 4.300000e-01    2.920000e+00
  C1eq  SX1e  1 4.300000e-01    2.920000e+00
   X4e SX4eq  1 4.300000e-01    3.160000e+00
  X4eq  SX3e  1 4.300000e-01    3.160000e+00
  X4eq  SX2e  1 4.300000e-01    3.160000e+00
  X4eq  SX1e  1 4.300000e-01    3.160000e+00
   X3e SX3eq  1 4.300000e-01    3.160000e+00
  X3eq  SX2e  1 4.300000e-01    3.380000e+00
  X3eq  SX1e  1 4.300000e-01    3.380000e+00
   X2e SX2eq  1 4.300000e-01    3.380000e+00
  X2eq  SX1e  1 4.300000e-01    3.380000e+00
   X1e SX1eq  1 4.300000e-01    3.590000e+00
   C6e SX1eq  1 4.300000e-01    3.160000e+00
   C5e SX1eq  1 4.300000e-01    3.160000e+00
   C4e SX1eq  1 4.300000e-01    3.160000e+00
   C3e SX1eq  1 4.300000e-01    3.160000e+00
   C2e SX1eq  1 4.300000e-01    2.920000e+00
   C1e SX1eq  1 4.300000e-01    2.920000e+00
   X4e SX1eq  1 4.300000e-01    3.160000e+00
   X3e SX1eq  1 4.300000e-01    3.380000e+00
   X2e SX1eq  1 4.300000e-01    3.380000e+00
   C6e SX2eq  1 4.300000e-01    3.160000e+00
   C5e SX2eq  1 4.300000e-01    2.920000e+00
   C4e SX2eq  1 4.300000e-01    2.920000e+00
   C3e SX2eq  1 4.300000e-01    2.920000e+00
   C2e SX2eq  1 4.300000e-01    2.920000e+00
   C1e SX2eq  1 4.300000e-01    2.920000e+00
   X4e SX2eq  1 4.300000e-01    3.160000e+00
   X3e SX2eq  1 4.300000e-01    3.380000e+00
   C6e SX3eq  1 4.300000e-01    3.160000e+00
   C5e SX3eq  1 4.300000e-01    2.920000e+00
   C4e SX3eq  1 4.300000e-01    2.920000e+00
   C3e SX3eq  1 4.300000e-01    2.920000e+00
   C2e SX3eq  1 4.300000e-01    2.920000e+00
   C1e SX3eq  1 4.300000e-01    2.920000e+00
   X4e SX3eq  1 4.300000e-01    3.160000e+00
   C6e SX4eq  1 4.300000e-01    3.160000e+00
   C5e SX4eq  1 4.300000e-01    2.920000e+00
   C4e SX4eq  1 4.300000e-01    2.920000e+00
   C3e SX4eq  1 4.300000e-01    2.920000e+00
   C2e SX4eq  1 4.300000e-01    2.530000e+00
   C1e SX4eq  1 4.300000e-01    2.530000e+00
   C6e SC1eq  1 4.300000e-01    2.530000e+00
   C5e SC1eq  1 4.300000e-01    2.770000e+00
   C4e SC1eq  1 4.300000e-01    2.770000e+00
   C3e SC1eq  1 4.300000e-01    3.160000e+00
   C2e SC1eq  1 4.300000e-01    3.380000e+00
   C6e SC2eq  1 4.300000e-01    2.770000e+00
   C5e SC2eq  1 4.300000e-01    2.770000e+00
   C4e SC2eq  1 4.300000e-01    2.920000e+00
   C3e SC2eq  1 4.300000e-01    3.160000e+00
   C6e SC3eq  1 4.300000e-01    2.920000e+00
   C5e SC3eq  1 4.300000e-01    2.920000e+00
   C4e SC3eq  1 4.300000e-01    3.160000e+00
   C6e SC4eq  1 4.300000e-01    3.160000e+00
   C5e SC4eq  1 4.300000e-01    3.160000e+00
   C6e SC5eq  1 4.300000e-01    3.160000e+00
   C6v SX1vq  1 4.300000e-01    3.160000e+00
   C5v SX1vq  1 4.300000e-01    3.160000e+00
   C4v SX1vq  1 4.300000e-01    3.160000e+00
   C3v SX1vq  1 4.300000e-01    3.160000e+00
   C2v SX1vq  1 4.300000e-01    2.920000e+00
   C1v SX1vq  1 4.300000e-01    2.920000e+00
   X4v SX1vq  1 4.300000e-01    3.160000e+00
   X3v SX1vq  1 4.300000e-01    3.380000e+00
   X2v SX1vq  1 4.300000e-01    3.380000e+00
   C6v SX2vq  1 4.300000e-01    3.160000e+00
   C5v SX2vq  1 4.300000e-01    2.920000e+00
   C4v SX2vq  1 4.300000e-01    2.920000e+00
   C3v SX2vq  1 4.300000e-01    2.920000e+00
   C2v SX2vq  1 4.300000e-01    2.920000e+00
   C1v SX2vq  1 4.300000e-01    2.920000e+00
   X4v SX2vq  1 4.300000e-01    3.160000e+00
   X3v SX2vq  1 4.300000e-01    3.380000e+00
   C6v SX3vq  1 4.300000e-01    3.160000e+00
   C5v SX3vq  1 4.300000e-01    2.920000e+00
   C4v SX3vq  1 4.300000e-01    2.920000e+00
   C3v SX3vq  1 4.300000e-01    2.920000e+00
   C2v SX3vq  1 4.300000e-01    2.920000e+00
   C1v SX3vq  1 4.300000e-01    2.920000e+00
   X4v SX3vq  1 4.300000e-01    3.160000e+00
   C6v SX4vq  1 4.300000e-01    3.160000e+00
   C5v SX4vq  1 4.300000e-01    2.920000e+00
   C4v SX4vq  1 4.300000e-01    2.920000e+00
   C3v SX4vq  1 4.300000e-01    2.920000e+00
   C2v SX4vq  1 4.300000e-01    2.530000e+00
   C1v SX4vq  1 4.300000e-01    2.530000e+00
   C6v SC1vq  1 4.300000e-01    2.530000e+00
   C5v SC1vq  1 4.300000e-01    2.770000e+00
   C4v SC1vq  1 4.300000e-01    2.770000e+00
   C3v SC1vq  1 4.300000e-01    3.160000e+00
   C2v SC1vq  1 4.300000e-01    3.380000e+00
   C6v SC2vq  1 4.300000e-01    2.770000e+00
   C5v SC2vq  1 4.300000e-01    2.770000e+00
   C4v SC2vq  1 4.300000e-01    2.920000e+00
   C3v SC2vq  1 4.300000e-01    3.160000e+00
   C6v SC3vq  1 4.300000e-01    2.920000e+00
   C5v SC3vq  1 4.300000e-01    2.920000e+00
   C4v SC3vq  1 4.300000e-01    3.160000e+00
   C6v SC4vq  1 4.300000e-01    3.160000e+00
   C5v SC4vq  1 4.300000e-01    3.160000e+00
   C6v SC5vq  1 4.300000e-01    3.160000e+00
   P6h  SP6d  1 4.300000e-01    4.680000e+00
   P6h  SN1d  1 4.300000e-01    2.320000e+00
   P6h  SN2d  1 4.300000e-01    2.530000e+00
   P6h  SN3d  1 4.300000e-01    2.770000e+00
   P6h  SN4d  1 4.300000e-01    2.920000e+00
   P6h  SN5d  1 4.300000e-01    3.160000e+00
   P6h  SN6d  1 4.300000e-01    3.590000e+00
   P6h  SP1d  1 4.300000e-01    3.770000e+00
   P6h  SP2d  1 4.300000e-01    3.970000e+00
   P6h  SP3d  1 4.300000e-01    3.970000e+00
   P6h  SP4d  1 4.300000e-01    4.170000e+00
   P6h  SP5d  1 4.300000e-01    4.400000e+00
   P6h  SP6a  1 4.300000e-01    4.680000e+00
   P6h  SN1a  1 4.300000e-01    2.320000e+00
   P6h  SN2a  1 4.300000e-01    2.530000e+00
   P6h  SN3a  1 4.300000e-01    2.770000e+00
   P6h  SN4a  1 4.300000e-01    2.920000e+00
   P6h  SN5a  1 4.300000e-01    3.160000e+00
   P6h  SN6a  1 4.300000e-01    3.590000e+00
   P6h  SP1a  1 4.300000e-01    3.770000e+00
   P6h  SP2a  1 4.300000e-01    3.970000e+00
   P6h  SP3a  1 4.300000e-01    3.970000e+00
   P6h  SP4a  1 4.300000e-01    4.170000e+00
   P6h  SP5a  1 4.300000e-01    4.400000e+00
   P6h  SC6v  1 4.300000e-01    2.530000e+00
   P6h  SC5v  1 4.300000e-01    2.320000e+00
   P6h  SC4v  1 4.300000e-01    2.160000e+00
   P6h  SC3v  1 4.300000e-01    1.930000e+00
   P6h  SC2v  1 4.300000e-01    1.930000e+00
   P6h  SC1v  1 4.430000e-01    1.480000e+00
   P6h  SX4v  1 4.300000e-01    2.770000e+00
   P6h  SX3v  1 4.300000e-01    2.770000e+00
   P6h  SX2v  1 4.300000e-01    2.530000e+00
   P6h  SX1v  1 4.300000e-01    2.320000e+00
   P6h  SC6e  1 4.300000e-01    2.530000e+00
   P6h  SC5e  1 4.300000e-01    2.320000e+00
   P6h  SC4e  1 4.300000e-01    2.160000e+00
   P6h  SC3e  1 4.300000e-01    1.930000e+00
   P6h  SC2e  1 4.300000e-01    1.930000e+00
   P6h  SC1e  1 4.430000e-01    1.480000e+00
   P6h  SX4e  1 4.300000e-01    2.770000e+00
   P6h  SX3e  1 4.300000e-01    2.770000e+00
   P6h  SX2e  1 4.300000e-01    2.530000e+00
   P6h  SX1e  1 4.300000e-01    2.320000e+00
   P6h  SP6q  1 4.300000e-01    5.210000e+00
   P6h SX1eq  1 4.300000e-01    2.770000e+00
   P6h SX2eq  1 4.300000e-01    2.920000e+00
   P6h SX3eq  1 4.300000e-01    3.160000e+00
   P6h SX4eq  1 4.300000e-01    3.160000e+00
   P6h SC1eq  1 4.300000e-01    1.930000e+00
   P6h SC2eq  1 4.300000e-01    2.320000e+00
   P6h SC3eq  1 4.300000e-01    2.320000e+00
   P6h SC4eq  1 4.300000e-01    2.530000e+00
   P6h SC5eq  1 4.300000e-01    2.770000e+00
   P6h SC6eq  1 4.300000e-01    2.920000e+00
   P6h SX1vq  1 4.300000e-01    2.770000e+00
   P6h SX2vq  1 4.300000e-01    2.920000e+00
   P6h SX3vq  1 4.300000e-01    3.160000e+00
   P6h SX4vq  1 4.300000e-01    3.160000e+00
   P6h SC1vq  1 4.300000e-01    1.930000e+00
   P6h SC2vq  1 4.300000e-01    2.320000e+00
   P6h SC3vq  1 4.300000e-01    2.320000e+00
   P6h SC4vq  1 4.300000e-01    2.530000e+00
   P6h SC5vq  1 4.300000e-01    2.770000e+00
   P6h SC6vq  1 4.300000e-01    2.920000e+00
   P6h SN1aq  1 4.300000e-01    2.770000e+00
   P6h SN2aq  1 4.300000e-01    2.920000e+00
   P6h SN3aq  1 4.300000e-01    3.160000e+00
   P6h SN4aq  1 4.300000e-01    3.380000e+00
   P6h SN5aq  1 4.300000e-01    3.590000e+00
   P6h SN6aq  1 4.300000e-01    3.970000e+00
   P6h SP1aq  1 4.300000e-01    4.170000e+00
   P6h SP2aq  1 4.300000e-01    4.400000e+00
   P6h SP3aq  1 4.300000e-01    4.400000e+00
   P6h SP4aq  1 4.300000e-01    4.680000e+00
   P6h SP5aq  1 4.300000e-01    4.920000e+00
   P6h SP6aq  1 4.300000e-01    5.210000e+00
   P6h SN1dq  1 4.300000e-01    2.770000e+00
   P6h SN2dq  1 4.300000e-01    2.920000e+00
   P6h SN3dq  1 4.300000e-01    3.160000e+00
   P6h SN4dq  1 4.300000e-01    3.380000e+00
   P6h SN5dq  1 4.300000e-01    3.590000e+00
   P6h SN6dq  1 4.300000e-01    3.970000e+00
   P6h SP1dq  1 4.300000e-01    4.170000e+00
   P6h SP2dq  1 4.300000e-01    4.400000e+00
   P6h SP3dq  1 4.300000e-01    4.400000e+00
   P6h SP4dq  1 4.300000e-01    4.680000e+00
   P6h SP5dq  1 4.300000e-01    4.920000e+00
   P6h SP6dq  1 4.300000e-01    5.210000e+00
   P6h  SX1q  1 4.300000e-01    2.530000e+00
   P6h  SX2q  1 4.300000e-01    2.770000e+00
   P6h  SX3q  1 4.300000e-01    2.920000e+00
   P6h  SX4q  1 4.300000e-01    2.920000e+00
   P6h  SC1q  1 4.300000e-01    1.730000e+00
   P6h  SC2q  1 4.300000e-01    2.160000e+00
   P6h  SC3q  1 4.300000e-01    2.160000e+00
   P6h  SC4q  1 4.300000e-01    2.320000e+00
   P6h  SC5q  1 4.300000e-01    2.530000e+00
   P6h  SC6q  1 4.300000e-01    2.770000e+00
   P6h  SN1q  1 4.300000e-01    2.770000e+00
   P6h  SN2q  1 4.300000e-01    2.920000e+00
   P6h  SN3q  1 4.300000e-01    3.160000e+00
   P6h  SN4q  1 4.300000e-01    3.380000e+00
   P6h  SN5q  1 4.300000e-01    3.590000e+00
   P6h  SN6q  1 4.300000e-01    3.970000e+00
   P6h  SP1q  1 4.300000e-01    4.170000e+00
   P6h  SP2q  1 4.300000e-01    4.400000e+00
   P6h  SP3q  1 4.300000e-01    4.400000e+00
   P6h  SP4q  1 4.300000e-01    4.680000e+00
   P6h  SP5q  1 4.300000e-01    4.920000e+00
   P6d  SP5h  1 4.300000e-01    4.400000e+00
   P5h  SP5d  1 4.300000e-01    4.170000e+00
   P5h  SN1d  1 4.300000e-01    2.320000e+00
   P5h  SN2d  1 4.300000e-01    2.530000e+00
   P5h  SN3d  1 4.300000e-01    2.770000e+00
   P5h  SN4d  1 4.300000e-01    3.160000e+00
   P5h  SN5d  1 4.300000e-01    3.160000e+00
   P5h  SN6d  1 4.300000e-01    3.380000e+00
   P5h  SP1d  1 4.300000e-01    3.590000e+00
   P5h  SP2d  1 4.300000e-01    3.770000e+00
   P5h  SP3d  1 4.300000e-01    3.770000e+00
   P5h  SP4d  1 4.300000e-01    3.970000e+00
   P6a  SP5h  1 4.300000e-01    4.400000e+00
   P5h  SP5a  1 4.300000e-01    4.170000e+00
   P5h  SN1a  1 4.300000e-01    2.320000e+00
   P5h  SN2a  1 4.300000e-01    2.530000e+00
   P5h  SN3a  1 4.300000e-01    2.770000e+00
   P5h  SN4a  1 4.300000e-01    3.160000e+00
   P5h  SN5a  1 4.300000e-01    3.160000e+00
   P5h  SN6a  1 4.300000e-01    3.380000e+00
   P5h  SP1a  1 4.300000e-01    3.590000e+00
   P5h  SP2a  1 4.300000e-01    3.770000e+00
   P5h  SP3a  1 4.300000e-01    3.770000e+00
   P5h  SP4a  1 4.300000e-01    3.970000e+00
   P5h  SC6v  1 4.300000e-01    2.530000e+00
   P5h  SC5v  1 4.300000e-01    2.530000e+00
   P5h  SC4v  1 4.300000e-01    2.320000e+00
   P5h  SC3v  1 4.300000e-01    2.160000e+00
   P5h  SC2v  1 4.300000e-01    2.160000e+00
   P5h  SC1v  1 4.300000e-01    1.930000e+00
   P5h  SX4v  1 4.300000e-01    2.920000e+00
   P5h  SX3v  1 4.300000e-01    2.770000e+00
   P5h  SX2v  1 4.300000e-01    2.770000e+00
   P5h  SX1v  1 4.300000e-01    2.320000e+00
   P5h  SC6e  1 4.300000e-01    2.530000e+00
   P5h  SC5e  1 4.300000e-01    2.530000e+00
   P5h  SC4e  1 4.300000e-01    2.320000e+00
   P5h  SC3e  1 4.300000e-01    2.160000e+00
   P5h  SC2e  1 4.300000e-01    2.160000e+00
   P5h  SC1e  1 4.300000e-01    1.930000e+00
   P5h  SX4e  1 4.300000e-01    2.920000e+00
   P5h  SX3e  1 4.300000e-01    2.770000e+00
   P5h  SX2e  1 4.300000e-01    2.770000e+00
   P5h  SX1e  1 4.300000e-01    2.320000e+00
   P6q  SP5h  1 4.300000e-01    4.920000e+00
   P5h  SP5q  1 4.300000e-01    4.680000e+00
   P5h SX1eq  1 4.300000e-01    2.770000e+00
   P5h SX2eq  1 4.300000e-01    3.160000e+00
   P5h SX3eq  1 4.300000e-01    3.160000e+00
   P5h SX4eq  1 4.300000e-01    3.380000e+00
   P5h SC1eq  1 4.300000e-01    2.320000e+00
   P5h SC2eq  1 4.300000e-01    2.530000e+00
   P5h SC3eq  1 4.300000e-01    2.530000e+00
   P5h SC4eq  1 4.300000e-01    2.770000e+00
   P5h SC5eq  1 4.300000e-01    2.920000e+00
   P5h SC6eq  1 4.300000e-01    2.920000e+00
   P5h SX1vq  1 4.300000e-01    2.770000e+00
   P5h SX2vq  1 4.300000e-01    3.160000e+00
   P5h SX3vq  1 4.300000e-01    3.160000e+00
   P5h SX4vq  1 4.300000e-01    3.380000e+00
   P5h SC1vq  1 4.300000e-01    2.320000e+00
   P5h SC2vq  1 4.300000e-01    2.530000e+00
   P5h SC3vq  1 4.300000e-01    2.530000e+00
   P5h SC4vq  1 4.300000e-01    2.770000e+00
   P5h SC5vq  1 4.300000e-01    2.920000e+00
   P5h SC6vq  1 4.300000e-01    2.920000e+00
   P5h SN1aq  1 4.300000e-01    2.770000e+00
   P5h SN2aq  1 4.300000e-01    2.920000e+00
   P5h SN3aq  1 4.300000e-01    3.160000e+00
   P5h SN4aq  1 4.300000e-01    3.590000e+00
   P5h SN5aq  1 4.300000e-01    3.590000e+00
   P5h SN6aq  1 4.300000e-01    3.770000e+00
   P5h SP1aq  1 4.300000e-01    3.970000e+00
   P5h SP2aq  1 4.300000e-01    4.170000e+00
   P5h SP3aq  1 4.300000e-01    4.170000e+00
   P5h SP4aq  1 4.300000e-01    4.400000e+00
   P5h SP5aq  1 4.300000e-01    4.680000e+00
  P6aq  SP5h  1 4.300000e-01    4.920000e+00
   P5h SN1dq  1 4.300000e-01    2.770000e+00
   P5h SN2dq  1 4.300000e-01    2.920000e+00
   P5h SN3dq  1 4.300000e-01    3.160000e+00
   P5h SN4dq  1 4.300000e-01    3.590000e+00
   P5h SN5dq  1 4.300000e-01    3.590000e+00
   P5h SN6dq  1 4.300000e-01    3.770000e+00
   P5h SP1dq  1 4.300000e-01    3.970000e+00
   P5h SP2dq  1 4.300000e-01    4.170000e+00
   P5h SP3dq  1 4.300000e-01    4.170000e+00
   P5h SP4dq  1 4.300000e-01    4.400000e+00
   P5h SP5dq  1 4.300000e-01    4.680000e+00
  P6dq  SP5h  1 4.300000e-01    4.920000e+00
   P5h  SX1q  1 4.300000e-01    2.530000e+00
   P5h  SX2q  1 4.300000e-01    2.920000e+00
   P5h  SX3q  1 4.300000e-01    2.920000e+00
   P5h  SX4q  1 4.300000e-01    3.160000e+00
   P5h  SC1q  1 4.300000e-01    2.160000e+00
   P5h  SC2q  1 4.300000e-01    2.320000e+00
   P5h  SC3q  1 4.300000e-01    2.320000e+00
   P5h  SC4q  1 4.300000e-01    2.530000e+00
   P5h  SC5q  1 4.300000e-01    2.770000e+00
   P5h  SC6q  1 4.300000e-01    2.770000e+00
   P5h  SN1q  1 4.300000e-01    2.770000e+00
   P5h  SN2q  1 4.300000e-01    2.920000e+00
   P5h  SN3q  1 4.300000e-01    3.160000e+00
   P5h  SN4q  1 4.300000e-01    3.590000e+00
   P5h  SN5q  1 4.300000e-01    3.590000e+00
   P5h  SN6q  1 4.300000e-01    3.770000e+00
   P5h  SP1q  1 4.300000e-01    3.970000e+00
   P5h  SP2q  1 4.300000e-01    4.170000e+00
   P5h  SP3q  1 4.300000e-01    4.170000e+00
   P5h  SP4q  1 4.300000e-01    4.400000e+00
   P6d  SP4h  1 4.300000e-01    4.170000e+00
   P5d  SP4h  1 4.300000e-01    3.970000e+00
   P4h  SP4d  1 4.300000e-01    3.970000e+00
   P4h  SN1d  1 4.300000e-01    2.530000e+00
   P4h  SN2d  1 4.300000e-01    2.770000e+00
   P4h  SN3d  1 4.300000e-01    2.920000e+00
   P4h  SN4d  1 4.300000e-01    3.160000e+00
   P4h  SN5d  1 4.300000e-01    3.160000e+00
   P4h  SN6d  1 4.300000e-01    3.380000e+00
   P4h  SP1d  1 4.300000e-01    3.590000e+00
   P4h  SP2d  1 4.300000e-01    3.770000e+00
   P4h  SP3d  1 4.300000e-01    3.770000e+00
   P6a  SP4h  1 4.300000e-01    4.170000e+00
   P5a  SP4h  1 4.300000e-01    3.970000e+00
   P4h  SP4a  1 4.300000e-01    3.970000e+00
   P4h  SN1a  1 4.300000e-01    2.530000e+00
   P4h  SN2a  1 4.300000e-01    2.770000e+00
   P4h  SN3a  1 4.300000e-01    2.920000e+00
   P4h  SN4a  1 4.300000e-01    3.160000e+00
   P4h  SN5a  1 4.300000e-01    3.160000e+00
   P4h  SN6a  1 4.300000e-01    3.380000e+00
   P4h  SP1a  1 4.300000e-01    3.590000e+00
   P4h  SP2a  1 4.300000e-01    3.770000e+00
   P4h  SP3a  1 4.300000e-01    3.770000e+00
   P4h  SC6v  1 4.300000e-01    2.770000e+00
   P4h  SC5v  1 4.300000e-01    2.530000e+00
   P4h  SC4v  1 4.300000e-01    2.320000e+00
   P4h  SC3v  1 4.300000e-01    2.160000e+00
   P4h  SC2v  1 4.300000e-01    2.160000e+00
   P4h  SC1v  1 4.300000e-01    1.930000e+00
   P4h  SX4v  1 4.300000e-01    2.920000e+00
   P4h  SX3v  1 4.300000e-01    2.770000e+00
   P4h  SX2v  1 4.300000e-01    2.770000e+00
   P4h  SX1v  1 4.300000e-01    2.530000e+00
   P4h  SC6e  1 4.300000e-01    2.770000e+00
   P4h  SC5e  1 4.300000e-01    2.530000e+00
   P4h  SC4e  1 4.300000e-01    2.320000e+00
   P4h  SC3e  1 4.300000e-01    2.160000e+00
   P4h  SC2e  1 4.300000e-01    2.160000e+00
   P4h  SC1e  1 4.300000e-01    1.930000e+00
   P4h  SX4e  1 4.300000e-01    2.920000e+00
   P4h  SX3e  1 4.300000e-01    2.770000e+00
   P4h  SX2e  1 4.300000e-01    2.770000e+00
   P4h  SX1e  1 4.300000e-01    2.530000e+00
   P6q  SP4h  1 4.300000e-01    4.680000e+00
   P5q  SP4h  1 4.300000e-01    4.400000e+00
   P4h  SP4q  1 4.300000e-01    4.400000e+00
   P4h SX1eq  1 4.300000e-01    2.920000e+00
   P4h SX2eq  1 4.300000e-01    3.160000e+00
   P4h SX3eq  1 4.300000e-01    3.160000e+00
   P4h SX4eq  1 4.300000e-01    3.380000e+00
   P4h SC1eq  1 4.300000e-01    2.320000e+00
   P4h SC2eq  1 4.300000e-01    2.530000e+00
   P4h SC3eq  1 4.300000e-01    2.530000e+00
   P4h SC4eq  1 4.300000e-01    2.770000e+00
   P4h SC5eq  1 4.300000e-01    2.920000e+00
   P4h SC6eq  1 4.300000e-01    3.160000e+00
   P4h SX1vq  1 4.300000e-01    2.920000e+00
   P4h SX2vq  1 4.300000e-01    3.160000e+00
   P4h SX3vq  1 4.300000e-01    3.160000e+00
   P4h SX4vq  1 4.300000e-01    3.380000e+00
   P4h SC1vq  1 4.300000e-01    2.320000e+00
   P4h SC2vq  1 4.300000e-01    2.530000e+00
   P4h SC3vq  1 4.300000e-01    2.530000e+00
   P4h SC4vq  1 4.300000e-01    2.770000e+00
   P4h SC5vq  1 4.300000e-01    2.920000e+00
   P4h SC6vq  1 4.300000e-01    3.160000e+00
   P4h SN1aq  1 4.300000e-01    2.920000e+00
   P4h SN2aq  1 4.300000e-01    3.160000e+00
   P4h SN3aq  1 4.300000e-01    3.380000e+00
   P4h SN4aq  1 4.300000e-01    3.590000e+00
   P4h SN5aq  1 4.300000e-01    3.590000e+00
   P4h SN6aq  1 4.300000e-01    3.770000e+00
   P4h SP1aq  1 4.300000e-01    3.970000e+00
   P4h SP2aq  1 4.300000e-01    4.170000e+00
   P4h SP3aq  1 4.300000e-01    4.170000e+00
   P4h SP4aq  1 4.300000e-01    4.400000e+00
  P5aq  SP4h  1 4.300000e-01    4.400000e+00
  P6aq  SP4h  1 4.300000e-01    4.680000e+00
   P4h SN1dq  1 4.300000e-01    2.920000e+00
   P4h SN2dq  1 4.300000e-01    3.160000e+00
   P4h SN3dq  1 4.300000e-01    3.380000e+00
   P4h SN4dq  1 4.300000e-01    3.590000e+00
   P4h SN5dq  1 4.300000e-01    3.590000e+00
   P4h SN6dq  1 4.300000e-01    3.770000e+00
   P4h SP1dq  1 4.300000e-01    3.970000e+00
   P4h SP2dq  1 4.300000e-01    4.170000e+00
   P4h SP3dq  1 4.300000e-01    4.170000e+00
   P4h SP4dq  1 4.300000e-01    4.400000e+00
  P5dq  SP4h  1 4.300000e-01    4.400000e+00
  P6dq  SP4h  1 4.300000e-01    4.680000e+00
   P4h  SX1q  1 4.300000e-01    2.770000e+00
   P4h  SX2q  1 4.300000e-01    2.920000e+00
   P4h  SX3q  1 4.300000e-01    2.920000e+00
   P4h  SX4q  1 4.300000e-01    3.160000e+00
   P4h  SC1q  1 4.300000e-01    2.160000e+00
   P4h  SC2q  1 4.300000e-01    2.320000e+00
   P4h  SC3q  1 4.300000e-01    2.320000e+00
   P4h  SC4q  1 4.300000e-01    2.530000e+00
   P4h  SC5q  1 4.300000e-01    2.770000e+00
   P4h  SC6q  1 4.300000e-01    2.920000e+00
   P4h  SN1q  1 4.300000e-01    2.920000e+00
   P4h  SN2q  1 4.300000e-01    3.160000e+00
   P4h  SN3q  1 4.300000e-01    3.380000e+00
   P4h  SN4q  1 4.300000e-01    3.590000e+00
   P4h  SN5q  1 4.300000e-01    3.590000e+00
   P4h  SN6q  1 4.300000e-01    3.770000e+00
   P4h  SP1q  1 4.300000e-01    3.970000e+00
   P4h  SP2q  1 4.300000e-01    4.170000e+00
   P4h  SP3q  1 4.300000e-01    4.170000e+00
   P6d  SP3h  1 4.300000e-01    3.970000e+00
   P5d  SP3h  1 4.300000e-01    3.770000e+00
   P4d  SP3h  1 4.300000e-01    3.770000e+00
   P3h  SP3d  1 4.300000e-01    3.770000e+00
   P3h  SN1d  1 4.300000e-01    2.770000e+00
   P3h  SN2d  1 4.300000e-01    2.920000e+00
   P3h  SN3d  1 4.300000e-01    2.920000e+00
   P3h  SN4d  1 4.300000e-01    3.160000e+00
   P3h  SN5d  1 4.300000e-01    3.160000e+00
   P3h  SN6d  1 4.300000e-01    3.380000e+00
   P3h  SP1d  1 4.300000e-01    3.590000e+00
   P3h  SP2d  1 4.300000e-01    3.770000e+00
   P6a  SP3h  1 4.300000e-01    3.970000e+00
   P5a  SP3h  1 4.300000e-01    3.770000e+00
   P4a  SP3h  1 4.300000e-01    3.770000e+00
   P3h  SP3a  1 4.300000e-01    3.770000e+00
   P3h  SN1a  1 4.300000e-01    2.770000e+00
   P3h  SN2a  1 4.300000e-01    2.920000e+00
   P3h  SN3a  1 4.300000e-01    2.920000e+00
   P3h  SN4a  1 4.300000e-01    3.160000e+00
   P3h  SN5a  1 4.300000e-01    3.160000e+00
   P3h  SN6a  1 4.300000e-01    3.380000e+00
   P3h  SP1a  1 4.300000e-01    3.590000e+00
   P3h  SP2a  1 4.300000e-01    3.770000e+00
   P3h  SC6v  1 4.300000e-01    2.920000e+00
   P3h  SC5v  1 4.300000e-01    2.770000e+00
   P3h  SC4v  1 4.300000e-01    2.530000e+00
   P3h  SC3v  1 4.300000e-01    2.160000e+00
   P3h  SC2v  1 4.300000e-01    2.160000e+00
   P3h  SC1v  1 4.300000e-01    1.930000e+00
   P3h  SX4v  1 4.300000e-01    2.920000e+00
   P3h  SX3v  1 4.300000e-01    2.920000e+00
   P3h  SX2v  1 4.300000e-01    2.770000e+00
   P3h  SX1v  1 4.300000e-01    2.530000e+00
   P3h  SC6e  1 4.300000e-01    2.920000e+00
   P3h  SC5e  1 4.300000e-01    2.770000e+00
   P3h  SC4e  1 4.300000e-01    2.530000e+00
   P3h  SC3e  1 4.300000e-01    2.160000e+00
   P3h  SC2e  1 4.300000e-01    2.160000e+00
   P3h  SC1e  1 4.300000e-01    1.930000e+00
   P3h  SX4e  1 4.300000e-01    2.920000e+00
   P3h  SX3e  1 4.300000e-01    2.920000e+00
   P3h  SX2e  1 4.300000e-01    2.770000e+00
   P3h  SX1e  1 4.300000e-01    2.530000e+00
   P6q  SP3h  1 4.300000e-01    4.400000e+00
   P5q  SP3h  1 4.300000e-01    4.170000e+00
   P4q  SP3h  1 4.300000e-01    4.170000e+00
   P3h  SP3q  1 4.300000e-01    4.170000e+00
   P3h SX1eq  1 4.300000e-01    2.920000e+00
   P3h SX2eq  1 4.300000e-01    3.160000e+00
   P3h SX3eq  1 4.300000e-01    3.380000e+00
   P3h SX4eq  1 4.300000e-01    3.380000e+00
   P3h SC1eq  1 4.300000e-01    2.320000e+00
   P3h SC2eq  1 4.300000e-01    2.530000e+00
   P3h SC3eq  1 4.300000e-01    2.530000e+00
   P3h SC4eq  1 4.300000e-01    2.920000e+00
   P3h SC5eq  1 4.300000e-01    3.160000e+00
   P3h SC6eq  1 4.300000e-01    3.380000e+00
   P3h SX1vq  1 4.300000e-01    2.920000e+00
   P3h SX2vq  1 4.300000e-01    3.160000e+00
   P3h SX3vq  1 4.300000e-01    3.380000e+00
   P3h SX4vq  1 4.300000e-01    3.380000e+00
   P3h SC1vq  1 4.300000e-01    2.320000e+00
   P3h SC2vq  1 4.300000e-01    2.530000e+00
   P3h SC3vq  1 4.300000e-01    2.530000e+00
   P3h SC4vq  1 4.300000e-01    2.920000e+00
   P3h SC5vq  1 4.300000e-01    3.160000e+00
   P3h SC6vq  1 4.300000e-01    3.380000e+00
   P3h SN1aq  1 4.300000e-01    3.160000e+00
   P3h SN2aq  1 4.300000e-01    3.380000e+00
   P3h SN3aq  1 4.300000e-01    3.380000e+00
   P3h SN4aq  1 4.300000e-01    3.590000e+00
   P3h SN5aq  1 4.300000e-01    3.590000e+00
   P3h SN6aq  1 4.300000e-01    3.770000e+00
   P3h SP1aq  1 4.300000e-01    3.970000e+00
   P3h SP2aq  1 4.300000e-01    4.170000e+00
   P3h SP3aq  1 4.300000e-01    4.170000e+00
  P4aq  SP3h  1 4.300000e-01    4.170000e+00
  P5aq  SP3h  1 4.300000e-01    4.170000e+00
  P6aq  SP3h  1 4.300000e-01    4.400000e+00
   P3h SN1dq  1 4.300000e-01    3.160000e+00
   P3h SN2dq  1 4.300000e-01    3.380000e+00
   P3h SN3dq  1 4.300000e-01    3.380000e+00
   P3h SN4dq  1 4.300000e-01    3.590000e+00
   P3h SN5dq  1 4.300000e-01    3.590000e+00
   P3h SN6dq  1 4.300000e-01    3.770000e+00
   P3h SP1dq  1 4.300000e-01    3.970000e+00
   P3h SP2dq  1 4.300000e-01    4.170000e+00
   P3h SP3dq  1 4.300000e-01    4.170000e+00
  P4dq  SP3h  1 4.300000e-01    4.170000e+00
  P5dq  SP3h  1 4.300000e-01    4.170000e+00
  P6dq  SP3h  1 4.300000e-01    4.400000e+00
   P3h  SX1q  1 4.300000e-01    2.770000e+00
   P3h  SX2q  1 4.300000e-01    2.920000e+00
   P3h  SX3q  1 4.300000e-01    3.160000e+00
   P3h  SX4q  1 4.300000e-01    3.160000e+00
   P3h  SC1q  1 4.300000e-01    2.160000e+00
   P3h  SC2q  1 4.300000e-01    2.320000e+00
   P3h  SC3q  1 4.300000e-01    2.320000e+00
   P3h  SC4q  1 4.300000e-01    2.770000e+00
   P3h  SC5q  1 4.300000e-01    2.920000e+00
   P3h  SC6q  1 4.300000e-01    3.160000e+00
   P3h  SN1q  1 4.300000e-01    3.160000e+00
   P3h  SN2q  1 4.300000e-01    3.380000e+00
   P3h  SN3q  1 4.300000e-01    3.380000e+00
   P3h  SN4q  1 4.300000e-01    3.590000e+00
   P3h  SN5q  1 4.300000e-01    3.590000e+00
   P3h  SN6q  1 4.300000e-01    3.770000e+00
   P3h  SP1q  1 4.300000e-01    3.970000e+00
   P3h  SP2q  1 4.300000e-01    4.170000e+00
   P6d  SP2h  1 4.300000e-01    3.970000e+00
   P5d  SP2h  1 4.300000e-01    3.770000e+00
   P4d  SP2h  1 4.300000e-01    3.770000e+00
   P3d  SP2h  1 4.300000e-01    3.770000e+00
   P2h  SP2d  1 4.300000e-01    3.770000e+00
   P2h  SN1d  1 4.300000e-01    2.920000e+00
   P2h  SN2d  1 4.300000e-01    2.920000e+00
   P2h  SN3d  1 4.300000e-01    2.920000e+00
   P2h  SN4d  1 4.300000e-01    3.160000e+00
   P2h  SN5d  1 4.300000e-01    3.380000e+00
   P2h  SN6d  1 4.300000e-01    3.590000e+00
   P2h  SP1d  1 4.300000e-01    3.590000e+00
   P6a  SP2h  1 4.300000e-01    3.970000e+00
   P5a  SP2h  1 4.300000e-01    3.770000e+00
   P4a  SP2h  1 4.300000e-01    3.770000e+00
   P3a  SP2h  1 4.300000e-01    3.770000e+00
   P2h  SP2a  1 4.300000e-01    3.770000e+00
   P2h  SN1a  1 4.300000e-01    2.920000e+00
   P2h  SN2a  1 4.300000e-01    2.920000e+00
   P2h  SN3a  1 4.300000e-01    2.920000e+00
   P2h  SN4a  1 4.300000e-01    3.160000e+00
   P2h  SN5a  1 4.300000e-01    3.380000e+00
   P2h  SN6a  1 4.300000e-01    3.590000e+00
   P2h  SP1a  1 4.300000e-01    3.590000e+00
   P2h  SC6v  1 4.300000e-01    2.920000e+00
   P2h  SC5v  1 4.300000e-01    2.770000e+00
   P2h  SC4v  1 4.300000e-01    2.530000e+00
   P2h  SC3v  1 4.300000e-01    2.320000e+00
   P2h  SC2v  1 4.300000e-01    2.320000e+00
   P2h  SC1v  1 4.300000e-01    2.160000e+00
   P2h  SX4v  1 4.300000e-01    2.920000e+00
   P2h  SX3v  1 4.300000e-01    2.920000e+00
   P2h  SX2v  1 4.300000e-01    2.770000e+00
   P2h  SX1v  1 4.300000e-01    2.530000e+00
   P2h  SC6e  1 4.300000e-01    2.920000e+00
   P2h  SC5e  1 4.300000e-01    2.770000e+00
   P2h  SC4e  1 4.300000e-01    2.530000e+00
   P2h  SC3e  1 4.300000e-01    2.320000e+00
   P2h  SC2e  1 4.300000e-01    2.320000e+00
   P2h  SC1e  1 4.300000e-01    2.160000e+00
   P2h  SX4e  1 4.300000e-01    2.920000e+00
   P2h  SX3e  1 4.300000e-01    2.920000e+00
   P2h  SX2e  1 4.300000e-01    2.770000e+00
   P2h  SX1e  1 4.300000e-01    2.530000e+00
   P6q  SP2h  1 4.300000e-01    4.400000e+00
   P5q  SP2h  1 4.300000e-01    4.170000e+00
   P4q  SP2h  1 4.300000e-01    4.170000e+00
   P3q  SP2h  1 4.300000e-01    4.170000e+00
   P2h  SP2q  1 4.300000e-01    4.170000e+00
   P2h SX1eq  1 4.300000e-01    2.920000e+00
   P2h SX2eq  1 4.300000e-01    3.160000e+00
   P2h SX3eq  1 4.300000e-01    3.380000e+00
   P2h SX4eq  1 4.300000e-01    3.380000e+00
   P2h SC1eq  1 4.300000e-01    2.530000e+00
   P2h SC2eq  1 4.300000e-01    2.770000e+00
   P2h SC3eq  1 4.300000e-01    2.770000e+00
   P2h SC4eq  1 4.300000e-01    2.920000e+00
   P2h SC5eq  1 4.300000e-01    3.160000e+00
   P2h SC6eq  1 4.300000e-01    3.380000e+00
   P2h SX1vq  1 4.300000e-01    2.920000e+00
   P2h SX2vq  1 4.300000e-01    3.160000e+00
   P2h SX3vq  1 4.300000e-01    3.380000e+00
   P2h SX4vq  1 4.300000e-01    3.380000e+00
   P2h SC1vq  1 4.300000e-01    2.530000e+00
   P2h SC2vq  1 4.300000e-01    2.770000e+00
   P2h SC3vq  1 4.300000e-01    2.770000e+00
   P2h SC4vq  1 4.300000e-01    2.920000e+00
   P2h SC5vq  1 4.300000e-01    3.160000e+00
   P2h SC6vq  1 4.300000e-01    3.380000e+00
   P2h SN1aq  1 4.300000e-01    3.380000e+00
   P2h SN2aq  1 4.300000e-01    3.380000e+00
   P2h SN3aq  1 4.300000e-01    3.380000e+00
   P2h SN4aq  1 4.300000e-01    3.590000e+00
   P2h SN5aq  1 4.300000e-01    3.770000e+00
   P2h SN6aq  1 4.300000e-01    3.970000e+00
   P2h SP1aq  1 4.300000e-01    3.970000e+00
   P2h SP2aq  1 4.300000e-01    4.170000e+00
  P3aq  SP2h  1 4.300000e-01    4.170000e+00
  P4aq  SP2h  1 4.300000e-01    4.170000e+00
  P5aq  SP2h  1 4.300000e-01    4.170000e+00
  P6aq  SP2h  1 4.300000e-01    4.400000e+00
   P2h SN1dq  1 4.300000e-01    3.380000e+00
   P2h SN2dq  1 4.300000e-01    3.380000e+00
   P2h SN3dq  1 4.300000e-01    3.380000e+00
   P2h SN4dq  1 4.300000e-01    3.590000e+00
   P2h SN5dq  1 4.300000e-01    3.770000e+00
   P2h SN6dq  1 4.300000e-01    3.970000e+00
   P2h SP1dq  1 4.300000e-01    3.970000e+00
   P2h SP2dq  1 4.300000e-01    4.170000e+00
  P3dq  SP2h  1 4.300000e-01    4.170000e+00
  P4dq  SP2h  1 4.300000e-01    4.170000e+00
  P5dq  SP2h  1 4.300000e-01    4.170000e+00
  P6dq  SP2h  1 4.300000e-01    4.400000e+00
   P2h  SX1q  1 4.300000e-01    2.770000e+00
   P2h  SX2q  1 4.300000e-01    2.920000e+00
   P2h  SX3q  1 4.300000e-01    3.160000e+00
   P2h  SX4q  1 4.300000e-01    3.160000e+00
   P2h  SC1q  1 4.300000e-01    2.320000e+00
   P2h  SC2q  1 4.300000e-01    2.530000e+00
   P2h  SC3q  1 4.300000e-01    2.530000e+00
   P2h  SC4q  1 4.300000e-01    2.770000e+00
   P2h  SC5q  1 4.300000e-01    2.920000e+00
   P2h  SC6q  1 4.300000e-01    3.160000e+00
   P2h  SN1q  1 4.300000e-01    3.380000e+00
   P2h  SN2q  1 4.300000e-01    3.380000e+00
   P2h  SN3q  1 4.300000e-01    3.380000e+00
   P2h  SN4q  1 4.300000e-01    3.590000e+00
   P2h  SN5q  1 4.300000e-01    3.770000e+00
   P2h  SN6q  1 4.300000e-01    3.970000e+00
   P2h  SP1q  1 4.300000e-01    3.970000e+00
   P6d  SP1h  1 4.300000e-01    3.770000e+00
   P5d  SP1h  1 4.300000e-01    3.590000e+00
   P4d  SP1h  1 4.300000e-01    3.590000e+00
   P3d  SP1h  1 4.300000e-01    3.590000e+00
   P2d  SP1h  1 4.300000e-01    3.590000e+00
   P1h  SP1d  1 4.300000e-01    3.590000e+00
   P1h  SN1d  1 4.300000e-01    2.920000e+00
   P1h  SN2d  1 4.300000e-01    2.920000e+00
   P1h  SN3d  1 4.300000e-01    2.920000e+00
   P1h  SN4d  1 4.300000e-01    3.380000e+00
   P1h  SN5d  1 4.300000e-01    3.380000e+00
   P1h  SN6d  1 4.300000e-01    3.590000e+00
   P6a  SP1h  1 4.300000e-01    3.770000e+00
   P5a  SP1h  1 4.300000e-01    3.590000e+00
   P4a  SP1h  1 4.300000e-01    3.590000e+00
   P3a  SP1h  1 4.300000e-01    3.590000e+00
   P2a  SP1h  1 4.300000e-01    3.590000e+00
   P1h  SP1a  1 4.300000e-01    3.590000e+00
   P1h  SN1a  1 4.300000e-01    2.920000e+00
   P1h  SN2a  1 4.300000e-01    2.920000e+00
   P1h  SN3a  1 4.300000e-01    2.920000e+00
   P1h  SN4a  1 4.300000e-01    3.380000e+00
   P1h  SN5a  1 4.300000e-01    3.380000e+00
   P1h  SN6a  1 4.300000e-01    3.590000e+00
   P1h  SC6v  1 4.300000e-01    2.920000e+00
   P1h  SC5v  1 4.300000e-01    2.770000e+00
   P1h  SC4v  1 4.300000e-01    2.530000e+00
   P1h  SC3v  1 4.300000e-01    2.320000e+00
   P1h  SC2v  1 4.300000e-01    2.320000e+00
   P1h  SC1v  1 4.300000e-01    2.160000e+00
   P1h  SX4v  1 4.300000e-01    2.920000e+00
   P1h  SX3v  1 4.300000e-01    2.920000e+00
   P1h  SX2v  1 4.300000e-01    2.770000e+00
   P1h  SX1v  1 4.300000e-01    2.530000e+00
   P1h  SC6e  1 4.300000e-01    2.920000e+00
   P1h  SC5e  1 4.300000e-01    2.770000e+00
   P1h  SC4e  1 4.300000e-01    2.530000e+00
   P1h  SC3e  1 4.300000e-01    2.320000e+00
   P1h  SC2e  1 4.300000e-01    2.320000e+00
   P1h  SC1e  1 4.300000e-01    2.160000e+00
   P1h  SX4e  1 4.300000e-01    2.920000e+00
   P1h  SX3e  1 4.300000e-01    2.920000e+00
   P1h  SX2e  1 4.300000e-01    2.770000e+00
   P1h  SX1e  1 4.300000e-01    2.530000e+00
   P6q  SP1h  1 4.300000e-01    4.170000e+00
   P5q  SP1h  1 4.300000e-01    3.970000e+00
   P4q  SP1h  1 4.300000e-01    3.970000e+00
   P3q  SP1h  1 4.300000e-01    3.970000e+00
   P2q  SP1h  1 4.300000e-01    3.970000e+00
   P1h  SP1q  1 4.300000e-01    3.970000e+00
   P1h SX1eq  1 4.300000e-01    2.920000e+00
   P1h SX2eq  1 4.300000e-01    3.160000e+00
   P1h SX3eq  1 4.300000e-01    3.380000e+00
   P1h SX4eq  1 4.300000e-01    3.380000e+00
   P1h SC1eq  1 4.300000e-01    2.530000e+00
   P1h SC2eq  1 4.300000e-01    2.770000e+00
   P1h SC3eq  1 4.300000e-01    2.770000e+00
   P1h SC4eq  1 4.300000e-01    2.920000e+00
   P1h SC5eq  1 4.300000e-01    3.160000e+00
   P1h SC6eq  1 4.300000e-01    3.380000e+00
   P1h SX1vq  1 4.300000e-01    2.920000e+00
   P1h SX2vq  1 4.300000e-01    3.160000e+00
   P1h SX3vq  1 4.300000e-01    3.380000e+00
   P1h SX4vq  1 4.300000e-01    3.380000e+00
   P1h SC1vq  1 4.300000e-01    2.530000e+00
   P1h SC2vq  1 4.300000e-01    2.770000e+00
   P1h SC3vq  1 4.300000e-01    2.770000e+00
   P1h SC4vq  1 4.300000e-01    2.920000e+00
   P1h SC5vq  1 4.300000e-01    3.160000e+00
   P1h SC6vq  1 4.300000e-01    3.380000e+00
   P1h SN1aq  1 4.300000e-01    3.380000e+00
   P1h SN2aq  1 4.300000e-01    3.380000e+00
   P1h SN3aq  1 4.300000e-01    3.380000e+00
   P1h SN4aq  1 4.300000e-01    3.770000e+00
   P1h SN5aq  1 4.300000e-01    3.770000e+00
   P1h SN6aq  1 4.300000e-01    3.970000e+00
   P1h SP1aq  1 4.300000e-01    3.970000e+00
  P2aq  SP1h  1 4.300000e-01    3.970000e+00
  P3aq  SP1h  1 4.300000e-01    3.970000e+00
  P4aq  SP1h  1 4.300000e-01    3.970000e+00
  P5aq  SP1h  1 4.300000e-01    3.970000e+00
  P6aq  SP1h  1 4.300000e-01    4.170000e+00
   P1h SN1dq  1 4.300000e-01    3.380000e+00
   P1h SN2dq  1 4.300000e-01    3.380000e+00
   P1h SN3dq  1 4.300000e-01    3.380000e+00
   P1h SN4dq  1 4.300000e-01    3.770000e+00
   P1h SN5dq  1 4.300000e-01    3.770000e+00
   P1h SN6dq  1 4.300000e-01    3.970000e+00
   P1h SP1dq  1 4.300000e-01    3.970000e+00
  P2dq  SP1h  1 4.300000e-01    3.970000e+00
  P3dq  SP1h  1 4.300000e-01    3.970000e+00
  P4dq  SP1h  1 4.300000e-01    3.970000e+00
  P5dq  SP1h  1 4.300000e-01    3.970000e+00
  P6dq  SP1h  1 4.300000e-01    4.170000e+00
   P1h  SX1q  1 4.300000e-01    2.770000e+00
   P1h  SX2q  1 4.300000e-01    2.920000e+00
   P1h  SX3q  1 4.300000e-01    3.160000e+00
   P1h  SX4q  1 4.300000e-01    3.160000e+00
   P1h  SC1q  1 4.300000e-01    2.320000e+00
   P1h  SC2q  1 4.300000e-01    2.530000e+00
   P1h  SC3q  1 4.300000e-01    2.530000e+00
   P1h  SC4q  1 4.300000e-01    2.770000e+00
   P1h  SC5q  1 4.300000e-01    2.920000e+00
   P1h  SC6q  1 4.300000e-01    3.160000e+00
   P1h  SN1q  1 4.300000e-01    3.380000e+00
   P1h  SN2q  1 4.300000e-01    3.380000e+00
   P1h  SN3q  1 4.300000e-01    3.380000e+00
   P1h  SN4q  1 4.300000e-01    3.770000e+00
   P1h  SN5q  1 4.300000e-01    3.770000e+00
   P1h  SN6q  1 4.300000e-01    3.970000e+00
   P6d  SN6h  1 4.300000e-01    3.590000e+00
   P5d  SN6h  1 4.300000e-01    3.380000e+00
   P4d  SN6h  1 4.300000e-01    3.380000e+00
   P3d  SN6h  1 4.300000e-01    3.380000e+00
   P2d  SN6h  1 4.300000e-01    3.590000e+00
   P1d  SN6h  1 4.300000e-01    3.590000e+00
   N6h  SN6d  1 4.300000e-01    3.590000e+00
   N6h  SN1d  1 4.300000e-01    2.920000e+00
   N6h  SN2d  1 4.300000e-01    2.920000e+00
   N6h  SN3d  1 4.300000e-01    3.160000e+00
   N6h  SN4d  1 4.300000e-01    3.590000e+00
   N6h  SN5d  1 4.300000e-01    3.590000e+00
   P6a  SN6h  1 4.300000e-01    3.590000e+00
   P5a  SN6h  1 4.300000e-01    3.380000e+00
   P4a  SN6h  1 4.300000e-01    3.380000e+00
   P3a  SN6h  1 4.300000e-01    3.380000e+00
   P2a  SN6h  1 4.300000e-01    3.590000e+00
   P1a  SN6h  1 4.300000e-01    3.590000e+00
   N6h  SN6a  1 4.300000e-01    3.590000e+00
   N6h  SN1a  1 4.300000e-01    2.920000e+00
   N6h  SN2a  1 4.300000e-01    2.920000e+00
   N6h  SN3a  1 4.300000e-01    3.160000e+00
   N6h  SN4a  1 4.300000e-01    3.590000e+00
   N6h  SN5a  1 4.300000e-01    3.590000e+00
   N6h  SC6v  1 4.300000e-01    3.160000e+00
   N6h  SC5v  1 4.300000e-01    2.920000e+00
   N6h  SC4v  1 4.300000e-01    2.770000e+00
   N6h  SC3v  1 4.300000e-01    2.530000e+00
   N6h  SC2v  1 4.300000e-01    2.530000e+00
   N6h  SC1v  1 4.300000e-01    2.320000e+00
   N6h  SX4v  1 4.300000e-01    3.160000e+00
   N6h  SX3v  1 4.300000e-01    2.920000e+00
   N6h  SX2v  1 4.300000e-01    2.770000e+00
   N6h  SX1v  1 4.300000e-01    2.530000e+00
   N6h  SC6e  1 4.300000e-01    3.160000e+00
   N6h  SC5e  1 4.300000e-01    2.920000e+00
   N6h  SC4e  1 4.300000e-01    2.770000e+00
   N6h  SC3e  1 4.300000e-01    2.530000e+00
   N6h  SC2e  1 4.300000e-01    2.530000e+00
   N6h  SC1e  1 4.300000e-01    2.320000e+00
   N6h  SX4e  1 4.300000e-01    3.160000e+00
   N6h  SX3e  1 4.300000e-01    2.920000e+00
   N6h  SX2e  1 4.300000e-01    2.770000e+00
   N6h  SX1e  1 4.300000e-01    2.530000e+00
   P6q  SN6h  1 4.300000e-01    3.970000e+00
   P5q  SN6h  1 4.300000e-01    3.770000e+00
   P4q  SN6h  1 4.300000e-01    3.770000e+00
   P3q  SN6h  1 4.300000e-01    3.770000e+00
   P2q  SN6h  1 4.300000e-01    3.970000e+00
   P1q  SN6h  1 4.300000e-01    3.970000e+00
   N6h  SN6q  1 4.300000e-01    3.970000e+00
   N6h SX1eq  1 4.300000e-01    2.920000e+00
   N6h SX2eq  1 4.300000e-01    3.160000e+00
   N6h SX3eq  1 4.300000e-01    3.380000e+00
   N6h SX4eq  1 4.300000e-01    3.590000e+00
   N6h SC1eq  1 4.300000e-01    2.770000e+00
   N6h SC2eq  1 4.300000e-01    2.920000e+00
   N6h SC3eq  1 4.300000e-01    2.920000e+00
   N6h SC4eq  1 4.300000e-01    3.160000e+00
   N6h SC5eq  1 4.300000e-01    3.380000e+00
   N6h SC6eq  1 4.300000e-01    3.590000e+00
   N6h SX1vq  1 4.300000e-01    2.920000e+00
   N6h SX2vq  1 4.300000e-01    3.160000e+00
   N6h SX3vq  1 4.300000e-01    3.380000e+00
   N6h SX4vq  1 4.300000e-01    3.590000e+00
   N6h SC1vq  1 4.300000e-01    2.770000e+00
   N6h SC2vq  1 4.300000e-01    2.920000e+00
   N6h SC3vq  1 4.300000e-01    2.920000e+00
   N6h SC4vq  1 4.300000e-01    3.160000e+00
   N6h SC5vq  1 4.300000e-01    3.380000e+00
   N6h SC6vq  1 4.300000e-01    3.590000e+00
   N6h SN1aq  1 4.300000e-01    3.380000e+00
   N6h SN2aq  1 4.300000e-01    3.380000e+00
   N6h SN3aq  1 4.300000e-01    3.590000e+00
   N6h SN4aq  1 4.300000e-01    3.970000e+00
   N6h SN5aq  1 4.300000e-01    3.970000e+00
   N6h SN6aq  1 4.300000e-01    3.970000e+00
  P1aq  SN6h  1 4.300000e-01    3.970000e+00
  P2aq  SN6h  1 4.300000e-01    3.970000e+00
  P3aq  SN6h  1 4.300000e-01    3.770000e+00
  P4aq  SN6h  1 4.300000e-01    3.770000e+00
  P5aq  SN6h  1 4.300000e-01    3.770000e+00
  P6aq  SN6h  1 4.300000e-01    3.970000e+00
   N6h SN1dq  1 4.300000e-01    3.380000e+00
   N6h SN2dq  1 4.300000e-01    3.380000e+00
   N6h SN3dq  1 4.300000e-01    3.590000e+00
   N6h SN4dq  1 4.300000e-01    3.970000e+00
   N6h SN5dq  1 4.300000e-01    3.970000e+00
   N6h SN6dq  1 4.300000e-01    3.970000e+00
  P1dq  SN6h  1 4.300000e-01    3.970000e+00
  P2dq  SN6h  1 4.300000e-01    3.970000e+00
  P3dq  SN6h  1 4.300000e-01    3.770000e+00
  P4dq  SN6h  1 4.300000e-01    3.770000e+00
  P5dq  SN6h  1 4.300000e-01    3.770000e+00
  P6dq  SN6h  1 4.300000e-01    3.970000e+00
   N6h  SX1q  1 4.300000e-01    2.770000e+00
   N6h  SX2q  1 4.300000e-01    2.920000e+00
   N6h  SX3q  1 4.300000e-01    3.160000e+00
   N6h  SX4q  1 4.300000e-01    3.380000e+00
   N6h  SC1q  1 4.300000e-01    2.530000e+00
   N6h  SC2q  1 4.300000e-01    2.770000e+00
   N6h  SC3q  1 4.300000e-01    2.770000e+00
   N6h  SC4q  1 4.300000e-01    2.920000e+00
   N6h  SC5q  1 4.300000e-01    3.160000e+00
   N6h  SC6q  1 4.300000e-01    3.380000e+00
   N6h  SN1q  1 4.300000e-01    3.380000e+00
   N6h  SN2q  1 4.300000e-01    3.380000e+00
   N6h  SN3q  1 4.300000e-01    3.590000e+00
   N6h  SN4q  1 4.300000e-01    3.970000e+00
   N6h  SN5q  1 4.300000e-01    3.970000e+00
   P6d  SN5h  1 4.300000e-01    3.160000e+00
   P5d  SN5h  1 4.300000e-01    3.160000e+00
   P4d  SN5h  1 4.300000e-01    3.160000e+00
   P3d  SN5h  1 4.300000e-01    3.160000e+00
   P2d  SN5h  1 4.300000e-01    3.380000e+00
   P1d  SN5h  1 4.300000e-01    3.380000e+00
   N6d  SN5h  1 4.300000e-01    3.590000e+00
   N5h  SN5d  1 4.300000e-01    3.380000e+00
   N5h  SN1d  1 4.300000e-01    2.920000e+00
   N5h  SN2d  1 4.300000e-01    3.160000e+00
   N5h  SN3d  1 4.300000e-01    3.160000e+00
   N5h  SN4d  1 4.300000e-01    3.380000e+00
   P6a  SN5h  1 4.300000e-01    3.160000e+00
   P5a  SN5h  1 4.300000e-01    3.160000e+00
   P4a  SN5h  1 4.300000e-01    3.160000e+00
   P3a  SN5h  1 4.300000e-01    3.160000e+00
   P2a  SN5h  1 4.300000e-01    3.380000e+00
   P1a  SN5h  1 4.300000e-01    3.380000e+00
   N6a  SN5h  1 4.300000e-01    3.590000e+00
   N5h  SN5a  1 4.300000e-01    3.380000e+00
   N5h  SN1a  1 4.300000e-01    2.920000e+00
   N5h  SN2a  1 4.300000e-01    3.160000e+00
   N5h  SN3a  1 4.300000e-01    3.160000e+00
   N5h  SN4a  1 4.300000e-01    3.380000e+00
   N5h  SC6v  1 4.300000e-01    3.160000e+00
   N5h  SC5v  1 4.300000e-01    2.920000e+00
   N5h  SC4v  1 4.300000e-01    2.770000e+00
   N5h  SC3v  1 4.300000e-01    2.770000e+00
   N5h  SC2v  1 4.300000e-01    2.530000e+00
   N5h  SC1v  1 4.300000e-01    2.320000e+00
   N5h  SX4v  1 4.300000e-01    3.380000e+00
   N5h  SX3v  1 4.300000e-01    3.160000e+00
   N5h  SX2v  1 4.300000e-01    2.920000e+00
   N5h  SX1v  1 4.300000e-01    2.770000e+00
   N5h  SC6e  1 4.300000e-01    3.160000e+00
   N5h  SC5e  1 4.300000e-01    2.920000e+00
   N5h  SC4e  1 4.300000e-01    2.770000e+00
   N5h  SC3e  1 4.300000e-01    2.770000e+00
   N5h  SC2e  1 4.300000e-01    2.530000e+00
   N5h  SC1e  1 4.300000e-01    2.320000e+00
   N5h  SX4e  1 4.300000e-01    3.380000e+00
   N5h  SX3e  1 4.300000e-01    3.160000e+00
   N5h  SX2e  1 4.300000e-01    2.920000e+00
   N5h  SX1e  1 4.300000e-01    2.770000e+00
   P6q  SN5h  1 4.300000e-01    3.590000e+00
   P5q  SN5h  1 4.300000e-01    3.590000e+00
   P4q  SN5h  1 4.300000e-01    3.590000e+00
   P3q  SN5h  1 4.300000e-01    3.590000e+00
   P2q  SN5h  1 4.300000e-01    3.770000e+00
   P1q  SN5h  1 4.300000e-01    3.770000e+00
   N6q  SN5h  1 4.300000e-01    3.970000e+00
   N5h  SN5q  1 4.300000e-01    3.770000e+00
   N5h SX1eq  1 4.300000e-01    3.160000e+00
   N5h SX2eq  1 4.300000e-01    3.380000e+00
   N5h SX3eq  1 4.300000e-01    3.590000e+00
   N5h SX4eq  1 4.300000e-01    3.770000e+00
   N5h SC1eq  1 4.300000e-01    2.770000e+00
   N5h SC2eq  1 4.300000e-01    2.920000e+00
   N5h SC3eq  1 4.300000e-01    3.160000e+00
   N5h SC4eq  1 4.300000e-01    3.160000e+00
   N5h SC5eq  1 4.300000e-01    3.380000e+00
   N5h SC6eq  1 4.300000e-01    3.590000e+00
   N5h SX1vq  1 4.300000e-01    3.160000e+00
   N5h SX2vq  1 4.300000e-01    3.380000e+00
   N5h SX3vq  1 4.300000e-01    3.590000e+00
   N5h SX4vq  1 4.300000e-01    3.770000e+00
   N5h SC1vq  1 4.300000e-01    2.770000e+00
   N5h SC2vq  1 4.300000e-01    2.920000e+00
   N5h SC3vq  1 4.300000e-01    3.160000e+00
   N5h SC4vq  1 4.300000e-01    3.160000e+00
   N5h SC5vq  1 4.300000e-01    3.380000e+00
   N5h SC6vq  1 4.300000e-01    3.590000e+00
   N5h SN1aq  1 4.300000e-01    3.380000e+00
   N5h SN2aq  1 4.300000e-01    3.590000e+00
   N5h SN3aq  1 4.300000e-01    3.590000e+00
   N5h SN4aq  1 4.300000e-01    3.770000e+00
   N5h SN5aq  1 4.300000e-01    3.770000e+00
  N6aq  SN5h  1 4.300000e-01    3.970000e+00
  P1aq  SN5h  1 4.300000e-01    3.770000e+00
  P2aq  SN5h  1 4.300000e-01    3.770000e+00
  P3aq  SN5h  1 4.300000e-01    3.590000e+00
  P4aq  SN5h  1 4.300000e-01    3.590000e+00
  P5aq  SN5h  1 4.300000e-01    3.590000e+00
  P6aq  SN5h  1 4.300000e-01    3.590000e+00
   N5h SN1dq  1 4.300000e-01    3.380000e+00
   N5h SN2dq  1 4.300000e-01    3.590000e+00
   N5h SN3dq  1 4.300000e-01    3.590000e+00
   N5h SN4dq  1 4.300000e-01    3.770000e+00
   N5h SN5dq  1 4.300000e-01    3.770000e+00
  N6dq  SN5h  1 4.300000e-01    3.970000e+00
  P1dq  SN5h  1 4.300000e-01    3.770000e+00
  P2dq  SN5h  1 4.300000e-01    3.770000e+00
  P3dq  SN5h  1 4.300000e-01    3.590000e+00
  P4dq  SN5h  1 4.300000e-01    3.590000e+00
  P5dq  SN5h  1 4.300000e-01    3.590000e+00
  P6dq  SN5h  1 4.300000e-01    3.590000e+00
   N5h  SX1q  1 4.300000e-01    2.920000e+00
   N5h  SX2q  1 4.300000e-01    3.160000e+00
   N5h  SX3q  1 4.300000e-01    3.380000e+00
   N5h  SX4q  1 4.300000e-01    3.590000e+00
   N5h  SC1q  1 4.300000e-01    2.530000e+00
   N5h  SC2q  1 4.300000e-01    2.770000e+00
   N5h  SC3q  1 4.300000e-01    2.920000e+00
   N5h  SC4q  1 4.300000e-01    2.920000e+00
   N5h  SC5q  1 4.300000e-01    3.160000e+00
   N5h  SC6q  1 4.300000e-01    3.380000e+00
   N5h  SN1q  1 4.300000e-01    3.380000e+00
   N5h  SN2q  1 4.300000e-01    3.590000e+00
   N5h  SN3q  1 4.300000e-01    3.590000e+00
   N5h  SN4q  1 4.300000e-01    3.770000e+00
   P6d  SN4h  1 4.300000e-01    2.920000e+00
   P5d  SN4h  1 4.300000e-01    3.160000e+00
   P4d  SN4h  1 4.300000e-01    3.160000e+00
   P3d  SN4h  1 4.300000e-01    3.160000e+00
   P2d  SN4h  1 4.300000e-01    3.160000e+00
   P1d  SN4h  1 4.300000e-01    3.380000e+00
   N6d  SN4h  1 4.300000e-01    3.590000e+00
   N5d  SN4h  1 4.300000e-01    3.380000e+00
   N4h  SN4d  1 4.300000e-01    3.380000e+00
   N4h  SN1d  1 4.300000e-01    2.920000e+00
   N4h  SN2d  1 4.300000e-01    3.160000e+00
   N4h  SN3d  1 4.300000e-01    3.160000e+00
   P6a  SN4h  1 4.300000e-01    2.920000e+00
   P5a  SN4h  1 4.300000e-01    3.160000e+00
   P4a  SN4h  1 4.300000e-01    3.160000e+00
   P3a  SN4h  1 4.300000e-01    3.160000e+00
   P2a  SN4h  1 4.300000e-01    3.160000e+00
   P1a  SN4h  1 4.300000e-01    3.380000e+00
   N6a  SN4h  1 4.300000e-01    3.590000e+00
   N5a  SN4h  1 4.300000e-01    3.380000e+00
   N4h  SN4a  1 4.300000e-01    3.380000e+00
   N4h  SN1a  1 4.300000e-01    2.920000e+00
   N4h  SN2a  1 4.300000e-01    3.160000e+00
   N4h  SN3a  1 4.300000e-01    3.160000e+00
   N4h  SC6v  1 4.300000e-01    3.160000e+00
   N4h  SC5v  1 4.300000e-01    2.920000e+00
   N4h  SC4v  1 4.300000e-01    2.920000e+00
   N4h  SC3v  1 4.300000e-01    2.770000e+00
   N4h  SC2v  1 4.300000e-01    2.530000e+00
   N4h  SC1v  1 4.300000e-01    2.320000e+00
   N4h  SX4v  1 4.300000e-01    3.590000e+00
   N4h  SX3v  1 4.300000e-01    3.380000e+00
   N4h  SX2v  1 4.300000e-01    2.920000e+00
   N4h  SX1v  1 4.300000e-01    2.770000e+00
   N4h  SC6e  1 4.300000e-01    3.160000e+00
   N4h  SC5e  1 4.300000e-01    2.920000e+00
   N4h  SC4e  1 4.300000e-01    2.920000e+00
   N4h  SC3e  1 4.300000e-01    2.770000e+00
   N4h  SC2e  1 4.300000e-01    2.530000e+00
   N4h  SC1e  1 4.300000e-01    2.320000e+00
   N4h  SX4e  1 4.300000e-01    3.590000e+00
   N4h  SX3e  1 4.300000e-01    3.380000e+00
   N4h  SX2e  1 4.300000e-01    2.920000e+00
   N4h  SX1e  1 4.300000e-01    2.770000e+00
   P6q  SN4h  1 4.300000e-01    3.380000e+00
   P5q  SN4h  1 4.300000e-01    3.590000e+00
   P4q  SN4h  1 4.300000e-01    3.590000e+00
   P3q  SN4h  1 4.300000e-01    3.590000e+00
   P2q  SN4h  1 4.300000e-01    3.590000e+00
   P1q  SN4h  1 4.300000e-01    3.770000e+00
   N6q  SN4h  1 4.300000e-01    3.970000e+00
   N5q  SN4h  1 4.300000e-01    3.770000e+00
   N4h  SN4q  1 4.300000e-01    3.770000e+00
   N4h SX1eq  1 4.300000e-01    3.160000e+00
   N4h SX2eq  1 4.300000e-01    3.380000e+00
   N4h SX3eq  1 4.300000e-01    3.770000e+00
   N4h SX4eq  1 4.300000e-01    3.970000e+00
   N4h SC1eq  1 4.300000e-01    2.770000e+00
   N4h SC2eq  1 4.300000e-01    2.920000e+00
   N4h SC3eq  1 4.300000e-01    3.160000e+00
   N4h SC4eq  1 4.300000e-01    3.380000e+00
   N4h SC5eq  1 4.300000e-01    3.380000e+00
   N4h SC6eq  1 4.300000e-01    3.590000e+00
   N4h SX1vq  1 4.300000e-01    3.160000e+00
   N4h SX2vq  1 4.300000e-01    3.380000e+00
   N4h SX3vq  1 4.300000e-01    3.770000e+00
   N4h SX4vq  1 4.300000e-01    3.970000e+00
   N4h SC1vq  1 4.300000e-01    2.770000e+00
   N4h SC2vq  1 4.300000e-01    2.920000e+00
   N4h SC3vq  1 4.300000e-01    3.160000e+00
   N4h SC4vq  1 4.300000e-01    3.380000e+00
   N4h SC5vq  1 4.300000e-01    3.380000e+00
   N4h SC6vq  1 4.300000e-01    3.590000e+00
   N4h SN1aq  1 4.300000e-01    3.380000e+00
   N4h SN2aq  1 4.300000e-01    3.590000e+00
   N4h SN3aq  1 4.300000e-01    3.590000e+00
   N4h SN4aq  1 4.300000e-01    3.770000e+00
  N5aq  SN4h  1 4.300000e-01    3.770000e+00
  N6aq  SN4h  1 4.300000e-01    3.970000e+00
  P1aq  SN4h  1 4.300000e-01    3.770000e+00
  P2aq  SN4h  1 4.300000e-01    3.590000e+00
  P3aq  SN4h  1 4.300000e-01    3.590000e+00
  P4aq  SN4h  1 4.300000e-01    3.590000e+00
  P5aq  SN4h  1 4.300000e-01    3.590000e+00
  P6aq  SN4h  1 4.300000e-01    3.380000e+00
   N4h SN1dq  1 4.300000e-01    3.380000e+00
   N4h SN2dq  1 4.300000e-01    3.590000e+00
   N4h SN3dq  1 4.300000e-01    3.590000e+00
   N4h SN4dq  1 4.300000e-01    3.770000e+00
  N5dq  SN4h  1 4.300000e-01    3.770000e+00
  N6dq  SN4h  1 4.300000e-01    3.970000e+00
  P1dq  SN4h  1 4.300000e-01    3.770000e+00
  P2dq  SN4h  1 4.300000e-01    3.590000e+00
  P3dq  SN4h  1 4.300000e-01    3.590000e+00
  P4dq  SN4h  1 4.300000e-01    3.590000e+00
  P5dq  SN4h  1 4.300000e-01    3.590000e+00
  P6dq  SN4h  1 4.300000e-01    3.380000e+00
   N4h  SX1q  1 4.300000e-01    2.920000e+00
   N4h  SX2q  1 4.300000e-01    3.160000e+00
   N4h  SX3q  1 4.300000e-01    3.590000e+00
   N4h  SX4q  1 4.300000e-01    3.770000e+00
   N4h  SC1q  1 4.300000e-01    2.530000e+00
   N4h  SC2q  1 4.300000e-01    2.770000e+00
   N4h  SC3q  1 4.300000e-01    2.920000e+00
   N4h  SC4q  1 4.300000e-01    3.160000e+00
   N4h  SC5q  1 4.300000e-01    3.160000e+00
   N4h  SC6q  1 4.300000e-01    3.380000e+00
   N4h  SN1q  1 4.300000e-01    3.380000e+00
   N4h  SN2q  1 4.300000e-01    3.590000e+00
   N4h  SN3q  1 4.300000e-01    3.590000e+00
   P6d  SN3h  1 4.300000e-01    2.770000e+00
   P5d  SN3h  1 4.300000e-01    2.770000e+00
   P4d  SN3h  1 4.300000e-01    2.920000e+00
   P3d  SN3h  1 4.300000e-01    2.920000e+00
   P2d  SN3h  1 4.300000e-01    2.920000e+00
   P1d  SN3h  1 4.300000e-01    2.920000e+00
   N6d  SN3h  1 4.300000e-01    3.160000e+00
   N5d  SN3h  1 4.300000e-01    3.160000e+00
   N4d  SN3h  1 4.300000e-01    3.160000e+00
   N3h  SN3d  1 4.300000e-01    3.160000e+00
   N3h  SN1d  1 4.300000e-01    2.920000e+00
   N3h  SN2d  1 4.300000e-01    3.160000e+00
   P6a  SN3h  1 4.300000e-01    2.770000e+00
   P5a  SN3h  1 4.300000e-01    2.770000e+00
   P4a  SN3h  1 4.300000e-01    2.920000e+00
   P3a  SN3h  1 4.300000e-01    2.920000e+00
   P2a  SN3h  1 4.300000e-01    2.920000e+00
   P1a  SN3h  1 4.300000e-01    2.920000e+00
   N6a  SN3h  1 4.300000e-01    3.160000e+00
   N5a  SN3h  1 4.300000e-01    3.160000e+00
   N4a  SN3h  1 4.300000e-01    3.160000e+00
   N3h  SN3a  1 4.300000e-01    3.160000e+00
   N3h  SN1a  1 4.300000e-01    2.920000e+00
   N3h  SN2a  1 4.300000e-01    3.160000e+00
   N3h  SC6v  1 4.300000e-01    3.160000e+00
   N3h  SC5v  1 4.300000e-01    2.920000e+00
   N3h  SC4v  1 4.300000e-01    2.920000e+00
   N3h  SC3v  1 4.300000e-01    2.770000e+00
   N3h  SC2v  1 4.300000e-01    2.770000e+00
   N3h  SC1v  1 4.300000e-01    2.530000e+00
   N3h  SX4v  1 4.300000e-01    3.380000e+00
   N3h  SX3v  1 4.300000e-01    3.160000e+00
   N3h  SX2v  1 4.300000e-01    2.920000e+00
   N3h  SX1v  1 4.300000e-01    2.920000e+00
   N3h  SC6e  1 4.300000e-01    3.160000e+00
   N3h  SC5e  1 4.300000e-01    2.920000e+00
   N3h  SC4e  1 4.300000e-01    2.920000e+00
   N3h  SC3e  1 4.300000e-01    2.770000e+00
   N3h  SC2e  1 4.300000e-01    2.770000e+00
   N3h  SC1e  1 4.300000e-01    2.530000e+00
   N3h  SX4e  1 4.300000e-01    3.380000e+00
   N3h  SX3e  1 4.300000e-01    3.160000e+00
   N3h  SX2e  1 4.300000e-01    2.920000e+00
   N3h  SX1e  1 4.300000e-01    2.920000e+00
   P6q  SN3h  1 4.300000e-01    3.160000e+00
   P5q  SN3h  1 4.300000e-01    3.160000e+00
   P4q  SN3h  1 4.300000e-01    3.380000e+00
   P3q  SN3h  1 4.300000e-01    3.380000e+00
   P2q  SN3h  1 4.300000e-01    3.380000e+00
   P1q  SN3h  1 4.300000e-01    3.380000e+00
   N6q  SN3h  1 4.300000e-01    3.590000e+00
   N5q  SN3h  1 4.300000e-01    3.590000e+00
   N4q  SN3h  1 4.300000e-01    3.590000e+00
   N3h  SN3q  1 4.300000e-01    3.590000e+00
   N3h SX1eq  1 4.300000e-01    3.380000e+00
   N3h SX2eq  1 4.300000e-01    3.380000e+00
   N3h SX3eq  1 4.300000e-01    3.590000e+00
   N3h SX4eq  1 4.300000e-01    3.770000e+00
   N3h SC1eq  1 4.300000e-01    2.920000e+00
   N3h SC2eq  1 4.300000e-01    3.160000e+00
   N3h SC3eq  1 4.300000e-01    3.160000e+00
   N3h SC4eq  1 4.300000e-01    3.380000e+00
   N3h SC5eq  1 4.300000e-01    3.380000e+00
   N3h SC6eq  1 4.300000e-01    3.590000e+00
   N3h SX1vq  1 4.300000e-01    3.380000e+00
   N3h SX2vq  1 4.300000e-01    3.380000e+00
   N3h SX3vq  1 4.300000e-01    3.590000e+00
   N3h SX4vq  1 4.300000e-01    3.770000e+00
   N3h SC1vq  1 4.300000e-01    2.920000e+00
   N3h SC2vq  1 4.300000e-01    3.160000e+00
   N3h SC3vq  1 4.300000e-01    3.160000e+00
   N3h SC4vq  1 4.300000e-01    3.380000e+00
   N3h SC5vq  1 4.300000e-01    3.380000e+00
   N3h SC6vq  1 4.300000e-01    3.590000e+00
   N3h SN1aq  1 4.300000e-01    3.380000e+00
   N3h SN2aq  1 4.300000e-01    3.590000e+00
   N3h SN3aq  1 4.300000e-01    3.590000e+00
  N4aq  SN3h  1 4.300000e-01    3.590000e+00
  N5aq  SN3h  1 4.300000e-01    3.590000e+00
  N6aq  SN3h  1 4.300000e-01    3.590000e+00
  P1aq  SN3h  1 4.300000e-01    3.380000e+00
  P2aq  SN3h  1 4.300000e-01    3.380000e+00
  P3aq  SN3h  1 4.300000e-01    3.380000e+00
  P4aq  SN3h  1 4.300000e-01    3.380000e+00
  P5aq  SN3h  1 4.300000e-01    3.160000e+00
  P6aq  SN3h  1 4.300000e-01    3.160000e+00
   N3h SN1dq  1 4.300000e-01    3.380000e+00
   N3h SN2dq  1 4.300000e-01    3.590000e+00
   N3h SN3dq  1 4.300000e-01    3.590000e+00
  N4dq  SN3h  1 4.300000e-01    3.590000e+00
  N5dq  SN3h  1 4.300000e-01    3.590000e+00
  N6dq  SN3h  1 4.300000e-01    3.590000e+00
  P1dq  SN3h  1 4.300000e-01    3.380000e+00
  P2dq  SN3h  1 4.300000e-01    3.380000e+00
  P3dq  SN3h  1 4.300000e-01    3.380000e+00
  P4dq  SN3h  1 4.300000e-01    3.380000e+00
  P5dq  SN3h  1 4.300000e-01    3.160000e+00
  P6dq  SN3h  1 4.300000e-01    3.160000e+00
   N3h  SX1q  1 4.300000e-01    3.160000e+00
   N3h  SX2q  1 4.300000e-01    3.160000e+00
   N3h  SX3q  1 4.300000e-01    3.380000e+00
   N3h  SX4q  1 4.300000e-01    3.590000e+00
   N3h  SC1q  1 4.300000e-01    2.770000e+00
   N3h  SC2q  1 4.300000e-01    2.920000e+00
   N3h  SC3q  1 4.300000e-01    2.920000e+00
   N3h  SC4q  1 4.300000e-01    3.160000e+00
   N3h  SC5q  1 4.300000e-01    3.160000e+00
   N3h  SC6q  1 4.300000e-01    3.380000e+00
   N3h  SN1q  1 4.300000e-01    3.380000e+00
   N3h  SN2q  1 4.300000e-01    3.590000e+00
   P6d  SN2h  1 4.300000e-01    2.530000e+00
   P5d  SN2h  1 4.300000e-01    2.530000e+00
   P4d  SN2h  1 4.300000e-01    2.770000e+00
   P3d  SN2h  1 4.300000e-01    2.920000e+00
   P2d  SN2h  1 4.300000e-01    2.920000e+00
   P1d  SN2h  1 4.300000e-01    2.920000e+00
   N6d  SN2h  1 4.300000e-01    2.920000e+00
   N5d  SN2h  1 4.300000e-01    3.160000e+00
   N4d  SN2h  1 4.300000e-01    3.160000e+00
   N3d  SN2h  1 4.300000e-01    3.160000e+00
   N2h  SN2d  1 4.300000e-01    3.160000e+00
   N2h  SN1d  1 4.300000e-01    2.920000e+00
   P6a  SN2h  1 4.300000e-01    2.530000e+00
   P5a  SN2h  1 4.300000e-01    2.530000e+00
   P4a  SN2h  1 4.300000e-01    2.770000e+00
   P3a  SN2h  1 4.300000e-01    2.920000e+00
   P2a  SN2h  1 4.300000e-01    2.920000e+00
   P1a  SN2h  1 4.300000e-01    2.920000e+00
   N6a  SN2h  1 4.300000e-01    2.920000e+00
   N5a  SN2h  1 4.300000e-01    3.160000e+00
   N4a  SN2h  1 4.300000e-01    3.160000e+00
   N3a  SN2h  1 4.300000e-01    3.160000e+00
   N2h  SN2a  1 4.300000e-01    3.160000e+00
   N2h  SN1a  1 4.300000e-01    2.920000e+00
   N2h  SC6v  1 4.300000e-01    3.160000e+00
   N2h  SC5v  1 4.300000e-01    2.920000e+00
   N2h  SC4v  1 4.300000e-01    2.920000e+00
   N2h  SC3v  1 4.300000e-01    2.920000e+00
   N2h  SC2v  1 4.300000e-01    2.770000e+00
   N2h  SC1v  1 4.300000e-01    2.530000e+00
   N2h  SX4v  1 4.300000e-01    3.380000e+00
   N2h  SX3v  1 4.300000e-01    3.160000e+00
   N2h  SX2v  1 4.300000e-01    2.920000e+00
   N2h  SX1v  1 4.300000e-01    2.920000e+00
   N2h  SC6e  1 4.300000e-01    3.160000e+00
   N2h  SC5e  1 4.300000e-01    2.920000e+00
   N2h  SC4e  1 4.300000e-01    2.920000e+00
   N2h  SC3e  1 4.300000e-01    2.920000e+00
   N2h  SC2e  1 4.300000e-01    2.770000e+00
   N2h  SC1e  1 4.300000e-01    2.530000e+00
   N2h  SX4e  1 4.300000e-01    3.380000e+00
   N2h  SX3e  1 4.300000e-01    3.160000e+00
   N2h  SX2e  1 4.300000e-01    2.920000e+00
   N2h  SX1e  1 4.300000e-01    2.920000e+00
   P6q  SN2h  1 4.300000e-01    2.920000e+00
   P5q  SN2h  1 4.300000e-01    2.920000e+00
   P4q  SN2h  1 4.300000e-01    3.160000e+00
   P3q  SN2h  1 4.300000e-01    3.380000e+00
   P2q  SN2h  1 4.300000e-01    3.380000e+00
   P1q  SN2h  1 4.300000e-01    3.380000e+00
   N6q  SN2h  1 4.300000e-01    3.380000e+00
   N5q  SN2h  1 4.300000e-01    3.590000e+00
   N4q  SN2h  1 4.300000e-01    3.590000e+00
   N3q  SN2h  1 4.300000e-01    3.590000e+00
   N2h  SN2q  1 4.300000e-01    3.590000e+00
   N2h SX1eq  1 4.300000e-01    3.380000e+00
   N2h SX2eq  1 4.300000e-01    3.380000e+00
   N2h SX3eq  1 4.300000e-01    3.590000e+00
   N2h SX4eq  1 4.300000e-01    3.770000e+00
   N2h SC1eq  1 4.300000e-01    2.920000e+00
   N2h SC2eq  1 4.300000e-01    3.160000e+00
   N2h SC3eq  1 4.300000e-01    3.380000e+00
   N2h SC4eq  1 4.300000e-01    3.380000e+00
   N2h SC5eq  1 4.300000e-01    3.380000e+00
   N2h SC6eq  1 4.300000e-01    3.590000e+00
   N2h SX1vq  1 4.300000e-01    3.380000e+00
   N2h SX2vq  1 4.300000e-01    3.380000e+00
   N2h SX3vq  1 4.300000e-01    3.590000e+00
   N2h SX4vq  1 4.300000e-01    3.770000e+00
   N2h SC1vq  1 4.300000e-01    2.920000e+00
   N2h SC2vq  1 4.300000e-01    3.160000e+00
   N2h SC3vq  1 4.300000e-01    3.380000e+00
   N2h SC4vq  1 4.300000e-01    3.380000e+00
   N2h SC5vq  1 4.300000e-01    3.380000e+00
   N2h SC6vq  1 4.300000e-01    3.590000e+00
   N2h SN1aq  1 4.300000e-01    3.380000e+00
   N2h SN2aq  1 4.300000e-01    3.590000e+00
  N3aq  SN2h  1 4.300000e-01    3.590000e+00
  N4aq  SN2h  1 4.300000e-01    3.590000e+00
  N5aq  SN2h  1 4.300000e-01    3.590000e+00
  N6aq  SN2h  1 4.300000e-01    3.380000e+00
  P1aq  SN2h  1 4.300000e-01    3.380000e+00
  P2aq  SN2h  1 4.300000e-01    3.380000e+00
  P3aq  SN2h  1 4.300000e-01    3.380000e+00
  P4aq  SN2h  1 4.300000e-01    3.160000e+00
  P5aq  SN2h  1 4.300000e-01    2.920000e+00
  P6aq  SN2h  1 4.300000e-01    2.920000e+00
   N2h SN1dq  1 4.300000e-01    3.380000e+00
   N2h SN2dq  1 4.300000e-01    3.590000e+00
  N3dq  SN2h  1 4.300000e-01    3.590000e+00
  N4dq  SN2h  1 4.300000e-01    3.590000e+00
  N5dq  SN2h  1 4.300000e-01    3.590000e+00
  N6dq  SN2h  1 4.300000e-01    3.380000e+00
  P1dq  SN2h  1 4.300000e-01    3.380000e+00
  P2dq  SN2h  1 4.300000e-01    3.380000e+00
  P3dq  SN2h  1 4.300000e-01    3.380000e+00
  P4dq  SN2h  1 4.300000e-01    3.160000e+00
  P5dq  SN2h  1 4.300000e-01    2.920000e+00
  P6dq  SN2h  1 4.300000e-01    2.920000e+00
   N2h  SX1q  1 4.300000e-01    3.160000e+00
   N2h  SX2q  1 4.300000e-01    3.160000e+00
   N2h  SX3q  1 4.300000e-01    3.380000e+00
   N2h  SX4q  1 4.300000e-01    3.590000e+00
   N2h  SC1q  1 4.300000e-01    2.770000e+00
   N2h  SC2q  1 4.300000e-01    2.920000e+00
   N2h  SC3q  1 4.300000e-01    3.160000e+00
   N2h  SC4q  1 4.300000e-01    3.160000e+00
   N2h  SC5q  1 4.300000e-01    3.160000e+00
   N2h  SC6q  1 4.300000e-01    3.380000e+00
   N2h  SN1q  1 4.300000e-01    3.380000e+00
   P6d  SN1h  1 4.300000e-01    2.320000e+00
   P5d  SN1h  1 4.300000e-01    2.320000e+00
   P4d  SN1h  1 4.300000e-01    2.530000e+00
   P3d  SN1h  1 4.300000e-01    2.770000e+00
   P2d  SN1h  1 4.300000e-01    2.920000e+00
   P1d  SN1h  1 4.300000e-01    2.920000e+00
   N6d  SN1h  1 4.300000e-01    2.920000e+00
   N5d  SN1h  1 4.300000e-01    2.920000e+00
   N4d  SN1h  1 4.300000e-01    2.920000e+00
   N3d  SN1h  1 4.300000e-01    2.920000e+00
   N2d  SN1h  1 4.300000e-01    2.920000e+00
   N1h  SN1d  1 4.300000e-01    3.160000e+00
   P6a  SN1h  1 4.300000e-01    2.320000e+00
   P5a  SN1h  1 4.300000e-01    2.320000e+00
   P4a  SN1h  1 4.300000e-01    2.530000e+00
   P3a  SN1h  1 4.300000e-01    2.770000e+00
   P2a  SN1h  1 4.300000e-01    2.920000e+00
   P1a  SN1h  1 4.300000e-01    2.920000e+00
   N6a  SN1h  1 4.300000e-01    2.920000e+00
   N5a  SN1h  1 4.300000e-01    2.920000e+00
   N4a  SN1h  1 4.300000e-01    2.920000e+00
   N3a  SN1h  1 4.300000e-01    2.920000e+00
   N2a  SN1h  1 4.300000e-01    2.920000e+00
   N1h  SN1a  1 4.300000e-01    3.160000e+00
   N1h  SC6v  1 4.300000e-01    3.380000e+00
   N1h  SC5v  1 4.300000e-01    3.160000e+00
   N1h  SC4v  1 4.300000e-01    3.160000e+00
   N1h  SC3v  1 4.300000e-01    2.920000e+00
   N1h  SC2v  1 4.300000e-01    2.770000e+00
   N1h  SC1v  1 4.300000e-01    2.530000e+00
   N1h  SX4v  1 4.300000e-01    3.160000e+00
   N1h  SX3v  1 4.300000e-01    3.160000e+00
   N1h  SX2v  1 4.300000e-01    2.920000e+00
   N1h  SX1v  1 4.300000e-01    2.920000e+00
   N1h  SC6e  1 4.300000e-01    3.380000e+00
   N1h  SC5e  1 4.300000e-01    3.160000e+00
   N1h  SC4e  1 4.300000e-01    3.160000e+00
   N1h  SC3e  1 4.300000e-01    2.920000e+00
   N1h  SC2e  1 4.300000e-01    2.770000e+00
   N1h  SC1e  1 4.300000e-01    2.530000e+00
   N1h  SX4e  1 4.300000e-01    3.160000e+00
   N1h  SX3e  1 4.300000e-01    3.160000e+00
   N1h  SX2e  1 4.300000e-01    2.920000e+00
   N1h  SX1e  1 4.300000e-01    2.920000e+00
   P6q  SN1h  1 4.300000e-01    2.770000e+00
   P5q  SN1h  1 4.300000e-01    2.770000e+00
   P4q  SN1h  1 4.300000e-01    2.920000e+00
   P3q  SN1h  1 4.300000e-01    3.160000e+00
   P2q  SN1h  1 4.300000e-01    3.380000e+00
   P1q  SN1h  1 4.300000e-01    3.380000e+00
   N6q  SN1h  1 4.300000e-01    3.380000e+00
   N5q  SN1h  1 4.300000e-01    3.380000e+00
   N4q  SN1h  1 4.300000e-01    3.380000e+00
   N3q  SN1h  1 4.300000e-01    3.380000e+00
   N2q  SN1h  1 4.300000e-01    3.380000e+00
   N1h  SN1q  1 4.300000e-01    3.590000e+00
   N1h SX1eq  1 4.300000e-01    3.380000e+00
   N1h SX2eq  1 4.300000e-01    3.380000e+00
   N1h SX3eq  1 4.300000e-01    3.590000e+00
   N1h SX4eq  1 4.300000e-01    3.590000e+00
   N1h SC1eq  1 4.300000e-01    2.920000e+00
   N1h SC2eq  1 4.300000e-01    3.160000e+00
   N1h SC3eq  1 4.300000e-01    3.380000e+00
   N1h SC4eq  1 4.300000e-01    3.590000e+00
   N1h SC5eq  1 4.300000e-01    3.590000e+00
   N1h SC6eq  1 4.300000e-01    3.770000e+00
   N1h SX1vq  1 4.300000e-01    3.380000e+00
   N1h SX2vq  1 4.300000e-01    3.380000e+00
   N1h SX3vq  1 4.300000e-01    3.590000e+00
   N1h SX4vq  1 4.300000e-01    3.590000e+00
   N1h SC1vq  1 4.300000e-01    2.920000e+00
   N1h SC2vq  1 4.300000e-01    3.160000e+00
   N1h SC3vq  1 4.300000e-01    3.380000e+00
   N1h SC4vq  1 4.300000e-01    3.590000e+00
   N1h SC5vq  1 4.300000e-01    3.590000e+00
   N1h SC6vq  1 4.300000e-01    3.770000e+00
   N1h SN1aq  1 4.300000e-01    3.590000e+00
  N2aq  SN1h  1 4.300000e-01    3.380000e+00
  N3aq  SN1h  1 4.300000e-01    3.380000e+00
  N4aq  SN1h  1 4.300000e-01    3.380000e+00
  N5aq  SN1h  1 4.300000e-01    3.380000e+00
  N6aq  SN1h  1 4.300000e-01    3.380000e+00
  P1aq  SN1h  1 4.300000e-01    3.380000e+00
  P2aq  SN1h  1 4.300000e-01    3.380000e+00
  P3aq  SN1h  1 4.300000e-01    3.160000e+00
  P4aq  SN1h  1 4.300000e-01    2.920000e+00
  P5aq  SN1h  1 4.300000e-01    2.770000e+00
  P6aq  SN1h  1 4.300000e-01    2.770000e+00
   N1h SN1dq  1 4.300000e-01    3.590000e+00
  N2dq  SN1h  1 4.300000e-01    3.380000e+00
  N3dq  SN1h  1 4.300000e-01    3.380000e+00
  N4dq  SN1h  1 4.300000e-01    3.380000e+00
  N5dq  SN1h  1 4.300000e-01    3.380000e+00
  N6dq  SN1h  1 4.300000e-01    3.380000e+00
  P1dq  SN1h  1 4.300000e-01    3.380000e+00
  P2dq  SN1h  1 4.300000e-01    3.380000e+00
  P3dq  SN1h  1 4.300000e-01    3.160000e+00
  P4dq  SN1h  1 4.300000e-01    2.920000e+00
  P5dq  SN1h  1 4.300000e-01    2.770000e+00
  P6dq  SN1h  1 4.300000e-01    2.770000e+00
   N1h  SX1q  1 4.300000e-01    3.160000e+00
   N1h  SX2q  1 4.300000e-01    3.160000e+00
   N1h  SX3q  1 4.300000e-01    3.380000e+00
   N1h  SX4q  1 4.300000e-01    3.380000e+00
   N1h  SC1q  1 4.300000e-01    2.770000e+00
   N1h  SC2q  1 4.300000e-01    2.920000e+00
   N1h  SC3q  1 4.300000e-01    3.160000e+00
   N1h  SC4q  1 4.300000e-01    3.380000e+00
   N1h  SC5q  1 4.300000e-01    3.380000e+00
   N1h  SC6q  1 4.300000e-01    3.590000e+00
   P6d  SC6h  1 4.300000e-01    2.320000e+00
   P5d  SC6h  1 4.300000e-01    2.320000e+00
   P4d  SC6h  1 4.300000e-01    2.530000e+00
   P3d  SC6h  1 4.300000e-01    2.770000e+00
   P2d  SC6h  1 4.300000e-01    2.770000e+00
   P1d  SC6h  1 4.300000e-01    2.770000e+00
   N6d  SC6h  1 4.300000e-01    2.920000e+00
   N5d  SC6h  1 4.300000e-01    2.920000e+00
   N4d  SC6h  1 4.300000e-01    2.920000e+00
   N3d  SC6h  1 4.300000e-01    2.920000e+00
   N2d  SC6h  1 4.300000e-01    2.920000e+00
   N1d  SC6h  1 4.300000e-01    3.160000e+00
   P6a  SC6h  1 4.300000e-01    2.320000e+00
   P5a  SC6h  1 4.300000e-01    2.320000e+00
   P4a  SC6h  1 4.300000e-01    2.530000e+00
   P3a  SC6h  1 4.300000e-01    2.770000e+00
   P2a  SC6h  1 4.300000e-01    2.770000e+00
   P1a  SC6h  1 4.300000e-01    2.770000e+00
   N6a  SC6h  1 4.300000e-01    2.920000e+00
   N5a  SC6h  1 4.300000e-01    2.920000e+00
   N4a  SC6h  1 4.300000e-01    2.920000e+00
   N3a  SC6h  1 4.300000e-01    2.920000e+00
   N2a  SC6h  1 4.300000e-01    2.920000e+00
   N1a  SC6h  1 4.300000e-01    3.160000e+00
   C6h  SC6v  1 4.300000e-01    3.380000e+00
   C6h  SX1v  1 4.300000e-01    3.160000e+00
   C6h  SX2v  1 4.300000e-01    3.160000e+00
   C6h  SX3v  1 4.300000e-01    3.160000e+00
   C6h  SX4v  1 4.300000e-01    3.160000e+00
   C6h  SC1v  1 4.300000e-01    2.530000e+00
   C6h  SC2v  1 4.300000e-01    2.770000e+00
   C6h  SC3v  1 4.300000e-01    2.920000e+00
   C6h  SC4v  1 4.300000e-01    3.160000e+00
   C6h  SC5v  1 4.300000e-01    3.160000e+00
   C6h  SC6e  1 4.300000e-01    3.380000e+00
   C6h  SX1e  1 4.300000e-01    3.160000e+00
   C6h  SX2e  1 4.300000e-01    3.160000e+00
   C6h  SX3e  1 4.300000e-01    3.160000e+00
   C6h  SX4e  1 4.300000e-01    3.160000e+00
   C6h  SC1e  1 4.300000e-01    2.530000e+00
   C6h  SC2e  1 4.300000e-01    2.770000e+00
   C6h  SC3e  1 4.300000e-01    2.920000e+00
   C6h  SC4e  1 4.300000e-01    3.160000e+00
   C6h  SC5e  1 4.300000e-01    3.160000e+00
   P6q  SC6h  1 4.300000e-01    2.770000e+00
   P5q  SC6h  1 4.300000e-01    2.770000e+00
   P4q  SC6h  1 4.300000e-01    2.920000e+00
   P3q  SC6h  1 4.300000e-01    3.160000e+00
   P2q  SC6h  1 4.300000e-01    3.160000e+00
   P1q  SC6h  1 4.300000e-01    3.160000e+00
   N6q  SC6h  1 4.300000e-01    3.380000e+00
   N5q  SC6h  1 4.300000e-01    3.380000e+00
   N4q  SC6h  1 4.300000e-01    3.380000e+00
   N3q  SC6h  1 4.300000e-01    3.380000e+00
   N2q  SC6h  1 4.300000e-01    3.380000e+00
   N1q  SC6h  1 4.300000e-01    3.590000e+00
   C6h  SC6q  1 4.300000e-01    3.590000e+00
   C6h SX1eq  1 4.300000e-01    3.590000e+00
   C6h SX2eq  1 4.300000e-01    3.590000e+00
   C6h SX3eq  1 4.300000e-01    3.590000e+00
   C6h SX4eq  1 4.300000e-01    3.590000e+00
   C6h SC1eq  1 4.300000e-01    2.920000e+00
   C6h SC2eq  1 4.300000e-01    3.160000e+00
   C6h SC3eq  1 4.300000e-01    3.380000e+00
   C6h SC4eq  1 4.300000e-01    3.590000e+00
   C6h SC5eq  1 4.300000e-01    3.590000e+00
   C6h SC6eq  1 4.300000e-01    3.770000e+00
   C6h SX1vq  1 4.300000e-01    3.590000e+00
   C6h SX2vq  1 4.300000e-01    3.590000e+00
   C6h SX3vq  1 4.300000e-01    3.590000e+00
   C6h SX4vq  1 4.300000e-01    3.590000e+00
   C6h SC1vq  1 4.300000e-01    2.920000e+00
   C6h SC2vq  1 4.300000e-01    3.160000e+00
   C6h SC3vq  1 4.300000e-01    3.380000e+00
   C6h SC4vq  1 4.300000e-01    3.590000e+00
   C6h SC5vq  1 4.300000e-01    3.590000e+00
   C6h SC6vq  1 4.300000e-01    3.770000e+00
  N1aq  SC6h  1 4.300000e-01    3.590000e+00
  N2aq  SC6h  1 4.300000e-01    3.380000e+00
  N3aq  SC6h  1 4.300000e-01    3.380000e+00
  N4aq  SC6h  1 4.300000e-01    3.380000e+00
  N5aq  SC6h  1 4.300000e-01    3.380000e+00
  N6aq  SC6h  1 4.300000e-01    3.380000e+00
  P1aq  SC6h  1 4.300000e-01    3.160000e+00
  P2aq  SC6h  1 4.300000e-01    3.160000e+00
  P3aq  SC6h  1 4.300000e-01    3.160000e+00
  P4aq  SC6h  1 4.300000e-01    2.920000e+00
  P5aq  SC6h  1 4.300000e-01    2.770000e+00
  P6aq  SC6h  1 4.300000e-01    2.770000e+00
  N1dq  SC6h  1 4.300000e-01    3.590000e+00
  N2dq  SC6h  1 4.300000e-01    3.380000e+00
  N3dq  SC6h  1 4.300000e-01    3.380000e+00
  N4dq  SC6h  1 4.300000e-01    3.380000e+00
  N5dq  SC6h  1 4.300000e-01    3.380000e+00
  N6dq  SC6h  1 4.300000e-01    3.380000e+00
  P1dq  SC6h  1 4.300000e-01    3.160000e+00
  P2dq  SC6h  1 4.300000e-01    3.160000e+00
  P3dq  SC6h  1 4.300000e-01    3.160000e+00
  P4dq  SC6h  1 4.300000e-01    2.920000e+00
  P5dq  SC6h  1 4.300000e-01    2.770000e+00
  P6dq  SC6h  1 4.300000e-01    2.770000e+00
   C6h  SX1q  1 4.300000e-01    3.380000e+00
   C6h  SX2q  1 4.300000e-01    3.380000e+00
   C6h  SX3q  1 4.300000e-01    3.380000e+00
   C6h  SX4q  1 4.300000e-01    3.380000e+00
   C6h  SC1q  1 4.300000e-01    2.770000e+00
   C6h  SC2q  1 4.300000e-01    2.920000e+00
   C6h  SC3q  1 4.300000e-01    3.160000e+00
   C6h  SC4q  1 4.300000e-01    3.380000e+00
   C6h  SC5q  1 4.300000e-01    3.380000e+00
   P6d  SC5h  1 4.300000e-01    2.160000e+00
   P5d  SC5h  1 4.300000e-01    2.320000e+00
   P4d  SC5h  1 4.300000e-01    2.320000e+00
   P3d  SC5h  1 4.300000e-01    2.530000e+00
   P2d  SC5h  1 4.300000e-01    2.530000e+00
   P1d  SC5h  1 4.300000e-01    2.530000e+00
   N6d  SC5h  1 4.300000e-01    2.770000e+00
   N5d  SC5h  1 4.300000e-01    2.770000e+00
   N4d  SC5h  1 4.300000e-01    2.770000e+00
   N3d  SC5h  1 4.300000e-01    2.770000e+00
   N2d  SC5h  1 4.300000e-01    2.770000e+00
   N1d  SC5h  1 4.300000e-01    2.920000e+00
   P6a  SC5h  1 4.300000e-01    2.160000e+00
   P5a  SC5h  1 4.300000e-01    2.320000e+00
   P4a  SC5h  1 4.300000e-01    2.320000e+00
   P3a  SC5h  1 4.300000e-01    2.530000e+00
   P2a  SC5h  1 4.300000e-01    2.530000e+00
   P1a  SC5h  1 4.300000e-01    2.530000e+00
   N6a  SC5h  1 4.300000e-01    2.770000e+00
   N5a  SC5h  1 4.300000e-01    2.770000e+00
   N4a  SC5h  1 4.300000e-01    2.770000e+00
   N3a  SC5h  1 4.300000e-01    2.770000e+00
   N2a  SC5h  1 4.300000e-01    2.770000e+00
   N1a  SC5h  1 4.300000e-01    2.920000e+00
   C6v  SC5h  1 4.300000e-01    3.160000e+00
   C5h  SC5v  1 4.300000e-01    3.160000e+00
   C5h  SX1v  1 4.300000e-01    3.160000e+00
   C5h  SX2v  1 4.300000e-01    2.920000e+00
   C5h  SX3v  1 4.300000e-01    2.920000e+00
   C5h  SX4v  1 4.300000e-01    2.920000e+00
   C5h  SC1v  1 4.300000e-01    2.770000e+00
   C5h  SC2v  1 4.300000e-01    2.770000e+00
   C5h  SC3v  1 4.300000e-01    2.920000e+00
   C5h  SC4v  1 4.300000e-01    3.160000e+00
   C6e  SC5h  1 4.300000e-01    3.160000e+00
   C5h  SC5e  1 4.300000e-01    3.160000e+00
   C5h  SX1e  1 4.300000e-01    3.160000e+00
   C5h  SX2e  1 4.300000e-01    2.920000e+00
   C5h  SX3e  1 4.300000e-01    2.920000e+00
   C5h  SX4e  1 4.300000e-01    2.920000e+00
   C5h  SC1e  1 4.300000e-01    2.770000e+00
   C5h  SC2e  1 4.300000e-01    2.770000e+00
   C5h  SC3e  1 4.300000e-01    2.920000e+00
   C5h  SC4e  1 4.300000e-01    3.160000e+00
   P6q  SC5h  1 4.300000e-01    2.530000e+00
   P5q  SC5h  1 4.300000e-01    2.770000e+00
   P4q  SC5h  1 4.300000e-01    2.770000e+00
   P3q  SC5h  1 4.300000e-01    2.920000e+00
   P2q  SC5h  1 4.300000e-01    2.920000e+00
   P1q  SC5h  1 4.300000e-01    2.920000e+00
   N6q  SC5h  1 4.300000e-01    3.160000e+00
   N5q  SC5h  1 4.300000e-01    3.160000e+00
   N4q  SC5h  1 4.300000e-01    3.160000e+00
   N3q  SC5h  1 4.300000e-01    3.160000e+00
   N2q  SC5h  1 4.300000e-01    3.160000e+00
   N1q  SC5h  1 4.300000e-01    3.380000e+00
   C6q  SC5h  1 4.300000e-01    3.380000e+00
   C5h  SC5q  1 4.300000e-01    3.380000e+00
   C5h SX1eq  1 4.300000e-01    3.590000e+00
   C5h SX2eq  1 4.300000e-01    3.380000e+00
   C5h SX3eq  1 4.300000e-01    3.380000e+00
   C5h SX4eq  1 4.300000e-01    3.380000e+00
   C5h SC1eq  1 4.300000e-01    3.160000e+00
   C5h SC2eq  1 4.300000e-01    3.160000e+00
   C5h SC3eq  1 4.300000e-01    3.380000e+00
   C5h SC4eq  1 4.300000e-01    3.590000e+00
   C5h SC5eq  1 4.300000e-01    3.590000e+00
  C6eq  SC5h  1 4.300000e-01    3.590000e+00
   C5h SX1vq  1 4.300000e-01    3.590000e+00
   C5h SX2vq  1 4.300000e-01    3.380000e+00
   C5h SX3vq  1 4.300000e-01    3.380000e+00
   C5h SX4vq  1 4.300000e-01    3.380000e+00
   C5h SC1vq  1 4.300000e-01    3.160000e+00
   C5h SC2vq  1 4.300000e-01    3.160000e+00
   C5h SC3vq  1 4.300000e-01    3.380000e+00
   C5h SC4vq  1 4.300000e-01    3.590000e+00
   C5h SC5vq  1 4.300000e-01    3.590000e+00
  C6vq  SC5h  1 4.300000e-01    3.590000e+00
  N1aq  SC5h  1 4.300000e-01    3.380000e+00
  N2aq  SC5h  1 4.300000e-01    3.160000e+00
  N3aq  SC5h  1 4.300000e-01    3.160000e+00
  N4aq  SC5h  1 4.300000e-01    3.160000e+00
  N5aq  SC5h  1 4.300000e-01    3.160000e+00
  N6aq  SC5h  1 4.300000e-01    3.160000e+00
  P1aq  SC5h  1 4.300000e-01    2.920000e+00
  P2aq  SC5h  1 4.300000e-01    2.920000e+00
  P3aq  SC5h  1 4.300000e-01    2.920000e+00
  P4aq  SC5h  1 4.300000e-01    2.770000e+00
  P5aq  SC5h  1 4.300000e-01    2.770000e+00
  P6aq  SC5h  1 4.300000e-01    2.530000e+00
  N1dq  SC5h  1 4.300000e-01    3.380000e+00
  N2dq  SC5h  1 4.300000e-01    3.160000e+00
  N3dq  SC5h  1 4.300000e-01    3.160000e+00
  N4dq  SC5h  1 4.300000e-01    3.160000e+00
  N5dq  SC5h  1 4.300000e-01    3.160000e+00
  N6dq  SC5h  1 4.300000e-01    3.160000e+00
  P1dq  SC5h  1 4.300000e-01    2.920000e+00
  P2dq  SC5h  1 4.300000e-01    2.920000e+00
  P3dq  SC5h  1 4.300000e-01    2.920000e+00
  P4dq  SC5h  1 4.300000e-01    2.770000e+00
  P5dq  SC5h  1 4.300000e-01    2.770000e+00
  P6dq  SC5h  1 4.300000e-01    2.530000e+00
   C5h  SX1q  1 4.300000e-01    3.380000e+00
   C5h  SX2q  1 4.300000e-01    3.160000e+00
   C5h  SX3q  1 4.300000e-01    3.160000e+00
   C5h  SX4q  1 4.300000e-01    3.160000e+00
   C5h  SC1q  1 4.300000e-01    2.920000e+00
   C5h  SC2q  1 4.300000e-01    2.920000e+00
   C5h  SC3q  1 4.300000e-01    3.160000e+00
   C5h  SC4q  1 4.300000e-01    3.380000e+00
   P6d  SC4h  1 4.300000e-01    1.930000e+00
   P5d  SC4h  1 4.300000e-01    2.160000e+00
   P4d  SC4h  1 4.300000e-01    2.160000e+00
   P3d  SC4h  1 4.300000e-01    2.320000e+00
   P2d  SC4h  1 4.300000e-01    2.320000e+00
   P1d  SC4h  1 4.300000e-01    2.320000e+00
   N6d  SC4h  1 4.300000e-01    2.530000e+00
   N5d  SC4h  1 4.300000e-01    2.530000e+00
   N4d  SC4h  1 4.300000e-01    2.770000e+00
   N3d  SC4h  1 4.300000e-01    2.770000e+00
   N2d  SC4h  1 4.300000e-01    2.770000e+00
   N1d  SC4h  1 4.300000e-01    2.920000e+00
   P6a  SC4h  1 4.300000e-01    1.930000e+00
   P5a  SC4h  1 4.300000e-01    2.160000e+00
   P4a  SC4h  1 4.300000e-01    2.160000e+00
   P3a  SC4h  1 4.300000e-01    2.320000e+00
   P2a  SC4h  1 4.300000e-01    2.320000e+00
   P1a  SC4h  1 4.300000e-01    2.320000e+00
   N6a  SC4h  1 4.300000e-01    2.530000e+00
   N5a  SC4h  1 4.300000e-01    2.530000e+00
   N4a  SC4h  1 4.300000e-01    2.770000e+00
   N3a  SC4h  1 4.300000e-01    2.770000e+00
   N2a  SC4h  1 4.300000e-01    2.770000e+00
   N1a  SC4h  1 4.300000e-01    2.920000e+00
   C6v  SC4h  1 4.300000e-01    3.160000e+00
   C5v  SC4h  1 4.300000e-01    3.160000e+00
   C4h  SC4v  1 4.300000e-01    3.160000e+00
   C4h  SX1v  1 4.300000e-01    3.160000e+00
   C4h  SX2v  1 4.300000e-01    2.920000e+00
   C4h  SX3v  1 4.300000e-01    2.920000e+00
   C4h  SX4v  1 4.300000e-01    2.920000e+00
   C4h  SC1v  1 4.300000e-01    2.770000e+00
   C4h  SC2v  1 4.300000e-01    2.920000e+00
   C4h  SC3v  1 4.300000e-01    3.160000e+00
   C6e  SC4h  1 4.300000e-01    3.160000e+00
   C5e  SC4h  1 4.300000e-01    3.160000e+00
   C4h  SC4e  1 4.300000e-01    3.160000e+00
   C4h  SX1e  1 4.300000e-01    3.160000e+00
   C4h  SX2e  1 4.300000e-01    2.920000e+00
   C4h  SX3e  1 4.300000e-01    2.920000e+00
   C4h  SX4e  1 4.300000e-01    2.920000e+00
   C4h  SC1e  1 4.300000e-01    2.770000e+00
   C4h  SC2e  1 4.300000e-01    2.920000e+00
   C4h  SC3e  1 4.300000e-01    3.160000e+00
   P6q  SC4h  1 4.300000e-01    2.320000e+00
   P5q  SC4h  1 4.300000e-01    2.530000e+00
   P4q  SC4h  1 4.300000e-01    2.530000e+00
   P3q  SC4h  1 4.300000e-01    2.770000e+00
   P2q  SC4h  1 4.300000e-01    2.770000e+00
   P1q  SC4h  1 4.300000e-01    2.770000e+00
   N6q  SC4h  1 4.300000e-01    2.920000e+00
   N5q  SC4h  1 4.300000e-01    2.920000e+00
   N4q  SC4h  1 4.300000e-01    3.160000e+00
   N3q  SC4h  1 4.300000e-01    3.160000e+00
   N2q  SC4h  1 4.300000e-01    3.160000e+00
   N1q  SC4h  1 4.300000e-01    3.380000e+00
   C6q  SC4h  1 4.300000e-01    3.380000e+00
   C5q  SC4h  1 4.300000e-01    3.380000e+00
   C4h  SC4q  1 4.300000e-01    3.380000e+00
   C4h SX1eq  1 4.300000e-01    3.590000e+00
   C4h SX2eq  1 4.300000e-01    3.380000e+00
   C4h SX3eq  1 4.300000e-01    3.380000e+00
   C4h SX4eq  1 4.300000e-01    3.380000e+00
   C4h SC1eq  1 4.300000e-01    3.160000e+00
   C4h SC2eq  1 4.300000e-01    3.380000e+00
   C4h SC3eq  1 4.300000e-01    3.590000e+00
   C4h SC4eq  1 4.300000e-01    3.590000e+00
  C5eq  SC4h  1 4.300000e-01    3.590000e+00
  C6eq  SC4h  1 4.300000e-01    3.590000e+00
   C4h SX1vq  1 4.300000e-01    3.590000e+00
   C4h SX2vq  1 4.300000e-01    3.380000e+00
   C4h SX3vq  1 4.300000e-01    3.380000e+00
   C4h SX4vq  1 4.300000e-01    3.380000e+00
   C4h SC1vq  1 4.300000e-01    3.160000e+00
   C4h SC2vq  1 4.300000e-01    3.380000e+00
   C4h SC3vq  1 4.300000e-01    3.590000e+00
   C4h SC4vq  1 4.300000e-01    3.590000e+00
  C5vq  SC4h  1 4.300000e-01    3.590000e+00
  C6vq  SC4h  1 4.300000e-01    3.590000e+00
  N1aq  SC4h  1 4.300000e-01    3.380000e+00
  N2aq  SC4h  1 4.300000e-01    3.160000e+00
  N3aq  SC4h  1 4.300000e-01    3.160000e+00
  N4aq  SC4h  1 4.300000e-01    3.160000e+00
  N5aq  SC4h  1 4.300000e-01    2.920000e+00
  N6aq  SC4h  1 4.300000e-01    2.920000e+00
  P1aq  SC4h  1 4.300000e-01    2.770000e+00
  P2aq  SC4h  1 4.300000e-01    2.770000e+00
  P3aq  SC4h  1 4.300000e-01    2.770000e+00
  P4aq  SC4h  1 4.300000e-01    2.530000e+00
  P5aq  SC4h  1 4.300000e-01    2.530000e+00
  P6aq  SC4h  1 4.300000e-01    2.320000e+00
  N1dq  SC4h  1 4.300000e-01    3.380000e+00
  N2dq  SC4h  1 4.300000e-01    3.160000e+00
  N3dq  SC4h  1 4.300000e-01    3.160000e+00
  N4dq  SC4h  1 4.300000e-01    3.160000e+00
  N5dq  SC4h  1 4.300000e-01    2.920000e+00
  N6dq  SC4h  1 4.300000e-01    2.920000e+00
  P1dq  SC4h  1 4.300000e-01    2.770000e+00
  P2dq  SC4h  1 4.300000e-01    2.770000e+00
  P3dq  SC4h  1 4.300000e-01    2.770000e+00
  P4dq  SC4h  1 4.300000e-01    2.530000e+00
  P5dq  SC4h  1 4.300000e-01    2.530000e+00
  P6dq  SC4h  1 4.300000e-01    2.320000e+00
   C4h  SX1q  1 4.300000e-01    3.380000e+00
   C4h  SX2q  1 4.300000e-01    3.160000e+00
   C4h  SX3q  1 4.300000e-01    3.160000e+00
   C4h  SX4q  1 4.300000e-01    3.160000e+00
   C4h  SC1q  1 4.300000e-01    2.920000e+00
   C4h  SC2q  1 4.300000e-01    3.160000e+00
   C4h  SC3q  1 4.300000e-01    3.380000e+00
   P6d  SC3h  1 4.300000e-01    1.730000e+00
   P5d  SC3h  1 4.300000e-01    1.930000e+00
   P4d  SC3h  1 4.300000e-01    1.930000e+00
   P3d  SC3h  1 4.300000e-01    1.930000e+00
   P2d  SC3h  1 4.300000e-01    2.160000e+00
   P1d  SC3h  1 4.300000e-01    2.160000e+00
   N6d  SC3h  1 4.300000e-01    2.320000e+00
   N5d  SC3h  1 4.300000e-01    2.530000e+00
   N4d  SC3h  1 4.300000e-01    2.530000e+00
   N3d  SC3h  1 4.300000e-01    2.530000e+00
   N2d  SC3h  1 4.300000e-01    2.770000e+00
   N1d  SC3h  1 4.300000e-01    2.770000e+00
   P6a  SC3h  1 4.300000e-01    1.730000e+00
   P5a  SC3h  1 4.300000e-01    1.930000e+00
   P4a  SC3h  1 4.300000e-01    1.930000e+00
   P3a  SC3h  1 4.300000e-01    1.930000e+00
   P2a  SC3h  1 4.300000e-01    2.160000e+00
   P1a  SC3h  1 4.300000e-01    2.160000e+00
   N6a  SC3h  1 4.300000e-01    2.320000e+00
   N5a  SC3h  1 4.300000e-01    2.530000e+00
   N4a  SC3h  1 4.300000e-01    2.530000e+00
   N3a  SC3h  1 4.300000e-01    2.530000e+00
   N2a  SC3h  1 4.300000e-01    2.770000e+00
   N1a  SC3h  1 4.300000e-01    2.770000e+00
   C6v  SC3h  1 4.300000e-01    2.920000e+00
   C5v  SC3h  1 4.300000e-01    2.920000e+00
   C4v  SC3h  1 4.300000e-01    3.160000e+00
   C3h  SC3v  1 4.300000e-01    3.160000e+00
   C3h  SX1v  1 4.300000e-01    3.160000e+00
   C3h  SX2v  1 4.300000e-01    2.920000e+00
   C3h  SX3v  1 4.300000e-01    2.920000e+00
   C3h  SX4v  1 4.300000e-01    2.920000e+00
   C3h  SC1v  1 4.300000e-01    3.160000e+00
   C3h  SC2v  1 4.300000e-01    3.160000e+00
   C6e  SC3h  1 4.300000e-01    2.920000e+00
   C5e  SC3h  1 4.300000e-01    2.920000e+00
   C4e  SC3h  1 4.300000e-01    3.160000e+00
   C3h  SC3e  1 4.300000e-01    3.160000e+00
   C3h  SX1e  1 4.300000e-01    3.160000e+00
   C3h  SX2e  1 4.300000e-01    2.920000e+00
   C3h  SX3e  1 4.300000e-01    2.920000e+00
   C3h  SX4e  1 4.300000e-01    2.920000e+00
   C3h  SC1e  1 4.300000e-01    3.160000e+00
   C3h  SC2e  1 4.300000e-01    3.160000e+00
   P6q  SC3h  1 4.300000e-01    2.160000e+00
   P5q  SC3h  1 4.300000e-01    2.320000e+00
   P4q  SC3h  1 4.300000e-01    2.320000e+00
   P3q  SC3h  1 4.300000e-01    2.320000e+00
   P2q  SC3h  1 4.300000e-01    2.530000e+00
   P1q  SC3h  1 4.300000e-01    2.530000e+00
   N6q  SC3h  1 4.300000e-01    2.770000e+00
   N5q  SC3h  1 4.300000e-01    2.920000e+00
   N4q  SC3h  1 4.300000e-01    2.920000e+00
   N3q  SC3h  1 4.300000e-01    2.920000e+00
   N2q  SC3h  1 4.300000e-01    3.160000e+00
   N1q  SC3h  1 4.300000e-01    3.160000e+00
   C6q  SC3h  1 4.300000e-01    3.160000e+00
   C5q  SC3h  1 4.300000e-01    3.160000e+00
   C4q  SC3h  1 4.300000e-01    3.380000e+00
   C3h  SC3q  1 4.300000e-01    3.380000e+00
   C3h SX1eq  1 4.300000e-01    3.590000e+00
   C3h SX2eq  1 4.300000e-01    3.380000e+00
   C3h SX3eq  1 4.300000e-01    3.380000e+00
   C3h SX4eq  1 4.300000e-01    3.380000e+00
   C3h SC1eq  1 4.300000e-01    3.590000e+00
   C3h SC2eq  1 4.300000e-01    3.590000e+00
   C3h SC3eq  1 4.300000e-01    3.590000e+00
  C4eq  SC3h  1 4.300000e-01    3.590000e+00
  C5eq  SC3h  1 4.300000e-01    3.380000e+00
  C6eq  SC3h  1 4.300000e-01    3.380000e+00
   C3h SX1vq  1 4.300000e-01    3.590000e+00
   C3h SX2vq  1 4.300000e-01    3.380000e+00
   C3h SX3vq  1 4.300000e-01    3.380000e+00
   C3h SX4vq  1 4.300000e-01    3.380000e+00
   C3h SC1vq  1 4.300000e-01    3.590000e+00
   C3h SC2vq  1 4.300000e-01    3.590000e+00
   C3h SC3vq  1 4.300000e-01    3.590000e+00
  C4vq  SC3h  1 4.300000e-01    3.590000e+00
  C5vq  SC3h  1 4.300000e-01    3.380000e+00
  C6vq  SC3h  1 4.300000e-01    3.380000e+00
  N1aq  SC3h  1 4.300000e-01    3.160000e+00
  N2aq  SC3h  1 4.300000e-01    3.160000e+00
  N3aq  SC3h  1 4.300000e-01    2.920000e+00
  N4aq  SC3h  1 4.300000e-01    2.920000e+00
  N5aq  SC3h  1 4.300000e-01    2.920000e+00
  N6aq  SC3h  1 4.300000e-01    2.770000e+00
  P1aq  SC3h  1 4.300000e-01    2.530000e+00
  P2aq  SC3h  1 4.300000e-01    2.530000e+00
  P3aq  SC3h  1 4.300000e-01    2.320000e+00
  P4aq  SC3h  1 4.300000e-01    2.320000e+00
  P5aq  SC3h  1 4.300000e-01    2.320000e+00
  P6aq  SC3h  1 4.300000e-01    2.160000e+00
  N1dq  SC3h  1 4.300000e-01    3.160000e+00
  N2dq  SC3h  1 4.300000e-01    3.160000e+00
  N3dq  SC3h  1 4.300000e-01    2.920000e+00
  N4dq  SC3h  1 4.300000e-01    2.920000e+00
  N5dq  SC3h  1 4.300000e-01    2.920000e+00
  N6dq  SC3h  1 4.300000e-01    2.770000e+00
  P1dq  SC3h  1 4.300000e-01    2.530000e+00
  P2dq  SC3h  1 4.300000e-01    2.530000e+00
  P3dq  SC3h  1 4.300000e-01    2.320000e+00
  P4dq  SC3h  1 4.300000e-01    2.320000e+00
  P5dq  SC3h  1 4.300000e-01    2.320000e+00
  P6dq  SC3h  1 4.300000e-01    2.160000e+00
   C3h  SX1q  1 4.300000e-01    3.380000e+00
   C3h  SX2q  1 4.300000e-01    3.160000e+00
   C3h  SX3q  1 4.300000e-01    3.160000e+00
   C3h  SX4q  1 4.300000e-01    3.160000e+00
   C3h  SC1q  1 4.300000e-01    3.380000e+00
   C3h  SC2q  1 4.300000e-01    3.380000e+00
   P6d  SC2h  1 4.300000e-01    1.730000e+00
   P5d  SC2h  1 4.300000e-01    1.930000e+00
   P4d  SC2h  1 4.300000e-01    1.930000e+00
   P3d  SC2h  1 4.300000e-01    1.930000e+00
   P2d  SC2h  1 4.300000e-01    2.160000e+00
   P1d  SC2h  1 4.300000e-01    2.160000e+00
   N6d  SC2h  1 4.300000e-01    2.320000e+00
   N5d  SC2h  1 4.300000e-01    2.320000e+00
   N4d  SC2h  1 4.300000e-01    2.320000e+00
   N3d  SC2h  1 4.300000e-01    2.530000e+00
   N2d  SC2h  1 4.300000e-01    2.530000e+00
   N1d  SC2h  1 4.300000e-01    2.530000e+00
   P6a  SC2h  1 4.300000e-01    1.730000e+00
   P5a  SC2h  1 4.300000e-01    1.930000e+00
   P4a  SC2h  1 4.300000e-01    1.930000e+00
   P3a  SC2h  1 4.300000e-01    1.930000e+00
   P2a  SC2h  1 4.300000e-01    2.160000e+00
   P1a  SC2h  1 4.300000e-01    2.160000e+00
   N6a  SC2h  1 4.300000e-01    2.320000e+00
   N5a  SC2h  1 4.300000e-01    2.320000e+00
   N4a  SC2h  1 4.300000e-01    2.320000e+00
   N3a  SC2h  1 4.300000e-01    2.530000e+00
   N2a  SC2h  1 4.300000e-01    2.530000e+00
   N1a  SC2h  1 4.300000e-01    2.530000e+00
   C6v  SC2h  1 4.300000e-01    2.770000e+00
   C5v  SC2h  1 4.300000e-01    2.770000e+00
   C4v  SC2h  1 4.300000e-01    2.920000e+00
   C3v  SC2h  1 4.300000e-01    3.160000e+00
   C2h  SC2v  1 4.300000e-01    3.160000e+00
   C2h  SX1v  1 4.300000e-01    2.920000e+00
   C2h  SX2v  1 4.300000e-01    2.920000e+00
   C2h  SX3v  1 4.300000e-01    2.920000e+00
   C2h  SX4v  1 4.300000e-01    2.530000e+00
   C2h  SC1v  1 4.300000e-01    3.380000e+00
   C6e  SC2h  1 4.300000e-01    2.770000e+00
   C5e  SC2h  1 4.300000e-01    2.770000e+00
   C4e  SC2h  1 4.300000e-01    2.920000e+00
   C3e  SC2h  1 4.300000e-01    3.160000e+00
   C2h  SC2e  1 4.300000e-01    3.160000e+00
   C2h  SX1e  1 4.300000e-01    2.920000e+00
   C2h  SX2e  1 4.300000e-01    2.920000e+00
   C2h  SX3e  1 4.300000e-01    2.920000e+00
   C2h  SX4e  1 4.300000e-01    2.530000e+00
   C2h  SC1e  1 4.300000e-01    3.380000e+00
   P6q  SC2h  1 4.300000e-01    2.160000e+00
   P5q  SC2h  1 4.300000e-01    2.320000e+00
   P4q  SC2h  1 4.300000e-01    2.320000e+00
   P3q  SC2h  1 4.300000e-01    2.320000e+00
   P2q  SC2h  1 4.300000e-01    2.530000e+00
   P1q  SC2h  1 4.300000e-01    2.530000e+00
   N6q  SC2h  1 4.300000e-01    2.770000e+00
   N5q  SC2h  1 4.300000e-01    2.770000e+00
   N4q  SC2h  1 4.300000e-01    2.770000e+00
   N3q  SC2h  1 4.300000e-01    2.920000e+00
   N2q  SC2h  1 4.300000e-01    2.920000e+00
   N1q  SC2h  1 4.300000e-01    2.920000e+00
   C6q  SC2h  1 4.300000e-01    2.920000e+00
   C5q  SC2h  1 4.300000e-01    2.920000e+00
   C4q  SC2h  1 4.300000e-01    3.160000e+00
   C3q  SC2h  1 4.300000e-01    3.380000e+00
   C2h  SC2q  1 4.300000e-01    3.380000e+00
   C2h SX1eq  1 4.300000e-01    3.380000e+00
   C2h SX2eq  1 4.300000e-01    3.380000e+00
   C2h SX3eq  1 4.300000e-01    3.380000e+00
   C2h SX4eq  1 4.300000e-01    2.920000e+00
   C2h SC1eq  1 4.300000e-01    3.770000e+00
   C2h SC2eq  1 4.300000e-01    3.590000e+00
  C3eq  SC2h  1 4.300000e-01    3.590000e+00
  C4eq  SC2h  1 4.300000e-01    3.380000e+00
  C5eq  SC2h  1 4.300000e-01    3.160000e+00
  C6eq  SC2h  1 4.300000e-01    3.160000e+00
   C2h SX1vq  1 4.300000e-01    3.380000e+00
   C2h SX2vq  1 4.300000e-01    3.380000e+00
   C2h SX3vq  1 4.300000e-01    3.380000e+00
   C2h SX4vq  1 4.300000e-01    2.920000e+00
   C2h SC1vq  1 4.300000e-01    3.770000e+00
   C2h SC2vq  1 4.300000e-01    3.590000e+00
  C3vq  SC2h  1 4.300000e-01    3.590000e+00
  C4vq  SC2h  1 4.300000e-01    3.380000e+00
  C5vq  SC2h  1 4.300000e-01    3.160000e+00
  C6vq  SC2h  1 4.300000e-01    3.160000e+00
  N1aq  SC2h  1 4.300000e-01    2.920000e+00
  N2aq  SC2h  1 4.300000e-01    2.920000e+00
  N3aq  SC2h  1 4.300000e-01    2.920000e+00
  N4aq  SC2h  1 4.300000e-01    2.770000e+00
  N5aq  SC2h  1 4.300000e-01    2.770000e+00
  N6aq  SC2h  1 4.300000e-01    2.770000e+00
  P1aq  SC2h  1 4.300000e-01    2.530000e+00
  P2aq  SC2h  1 4.300000e-01    2.530000e+00
  P3aq  SC2h  1 4.300000e-01    2.320000e+00
  P4aq  SC2h  1 4.300000e-01    2.320000e+00
  P5aq  SC2h  1 4.300000e-01    2.320000e+00
  P6aq  SC2h  1 4.300000e-01    2.160000e+00
  N1dq  SC2h  1 4.300000e-01    2.920000e+00
  N2dq  SC2h  1 4.300000e-01    2.920000e+00
  N3dq  SC2h  1 4.300000e-01    2.920000e+00
  N4dq  SC2h  1 4.300000e-01    2.770000e+00
  N5dq  SC2h  1 4.300000e-01    2.770000e+00
  N6dq  SC2h  1 4.300000e-01    2.770000e+00
  P1dq  SC2h  1 4.300000e-01    2.530000e+00
  P2dq  SC2h  1 4.300000e-01    2.530000e+00
  P3dq  SC2h  1 4.300000e-01    2.320000e+00
  P4dq  SC2h  1 4.300000e-01    2.320000e+00
  P5dq  SC2h  1 4.300000e-01    2.320000e+00
  P6dq  SC2h  1 4.300000e-01    2.160000e+00
   C2h  SX1q  1 4.300000e-01    3.160000e+00
   C2h  SX2q  1 4.300000e-01    3.160000e+00
   C2h  SX3q  1 4.300000e-01    3.160000e+00
   C2h  SX4q  1 4.300000e-01    2.770000e+00
   C2h  SC1q  1 4.300000e-01    3.590000e+00
   P6d  SC1h  1 4.730000e-01    1.280000e+00
   P5d  SC1h  1 4.300000e-01    1.730000e+00
   P4d  SC1h  1 4.300000e-01    1.730000e+00
   P3d  SC1h  1 4.300000e-01    1.730000e+00
   P2d  SC1h  1 4.300000e-01    1.930000e+00
   P1d  SC1h  1 4.300000e-01    1.930000e+00
   N6d  SC1h  1 4.300000e-01    2.160000e+00
   N5d  SC1h  1 4.300000e-01    2.160000e+00
   N4d  SC1h  1 4.300000e-01    2.160000e+00
   N3d  SC1h  1 4.300000e-01    2.320000e+00
   N2d  SC1h  1 4.300000e-01    2.320000e+00
   N1d  SC1h  1 4.300000e-01    2.320000e+00
   P6a  SC1h  1 4.730000e-01    1.280000e+00
   P5a  SC1h  1 4.300000e-01    1.730000e+00
   P4a  SC1h  1 4.300000e-01    1.730000e+00
   P3a  SC1h  1 4.300000e-01    1.730000e+00
   P2a  SC1h  1 4.300000e-01    1.930000e+00
   P1a  SC1h  1 4.300000e-01    1.930000e+00
   N6a  SC1h  1 4.300000e-01    2.160000e+00
   N5a  SC1h  1 4.300000e-01    2.160000e+00
   N4a  SC1h  1 4.300000e-01    2.160000e+00
   N3a  SC1h  1 4.300000e-01    2.320000e+00
   N2a  SC1h  1 4.300000e-01    2.320000e+00
   N1a  SC1h  1 4.300000e-01    2.320000e+00
   C6v  SC1h  1 4.300000e-01    2.530000e+00
   C5v  SC1h  1 4.300000e-01    2.770000e+00
   C4v  SC1h  1 4.300000e-01    2.770000e+00
   C3v  SC1h  1 4.300000e-01    3.160000e+00
   C2v  SC1h  1 4.300000e-01    3.380000e+00
   C1h  SC1v  1 4.300000e-01    3.160000e+00
   C1h  SX1v  1 4.300000e-01    2.920000e+00
   C1h  SX2v  1 4.300000e-01    2.920000e+00
   C1h  SX3v  1 4.300000e-01    2.920000e+00
   C1h  SX4v  1 4.300000e-01    2.530000e+00
   C6e  SC1h  1 4.300000e-01    2.530000e+00
   C5e  SC1h  1 4.300000e-01    2.770000e+00
   C4e  SC1h  1 4.300000e-01    2.770000e+00
   C3e  SC1h  1 4.300000e-01    3.160000e+00
   C2e  SC1h  1 4.300000e-01    3.380000e+00
   C1h  SC1e  1 4.300000e-01    3.160000e+00
   C1h  SX1e  1 4.300000e-01    2.920000e+00
   C1h  SX2e  1 4.300000e-01    2.920000e+00
   C1h  SX3e  1 4.300000e-01    2.920000e+00
   C1h  SX4e  1 4.300000e-01    2.530000e+00
   P6q  SC1h  1 4.300000e-01    1.730000e+00
   P5q  SC1h  1 4.300000e-01    2.160000e+00
   P4q  SC1h  1 4.300000e-01    2.160000e+00
   P3q  SC1h  1 4.300000e-01    2.160000e+00
   P2q  SC1h  1 4.300000e-01    2.320000e+00
   P1q  SC1h  1 4.300000e-01    2.320000e+00
   N6q  SC1h  1 4.300000e-01    2.530000e+00
   N5q  SC1h  1 4.300000e-01    2.530000e+00
   N4q  SC1h  1 4.300000e-01    2.530000e+00
   N3q  SC1h  1 4.300000e-01    2.770000e+00
   N2q  SC1h  1 4.300000e-01    2.770000e+00
   N1q  SC1h  1 4.300000e-01    2.770000e+00
   C6q  SC1h  1 4.300000e-01    2.770000e+00
   C5q  SC1h  1 4.300000e-01    2.920000e+00
   C4q  SC1h  1 4.300000e-01    2.920000e+00
   C3q  SC1h  1 4.300000e-01    3.380000e+00
   C2q  SC1h  1 4.300000e-01    3.590000e+00
   C1h  SC1q  1 4.300000e-01    3.380000e+00
   C1h SX1eq  1 4.300000e-01    3.380000e+00
   C1h SX2eq  1 4.300000e-01    3.380000e+00
   C1h SX3eq  1 4.300000e-01    3.380000e+00
   C1h SX4eq  1 4.300000e-01    2.920000e+00
   C1h SC1eq  1 4.300000e-01    3.590000e+00
  C2eq  SC1h  1 4.300000e-01    3.770000e+00
  C3eq  SC1h  1 4.300000e-01    3.590000e+00
  C4eq  SC1h  1 4.300000e-01    3.160000e+00
  C5eq  SC1h  1 4.300000e-01    3.160000e+00
  C6eq  SC1h  1 4.300000e-01    2.920000e+00
   C1h SX1vq  1 4.300000e-01    3.380000e+00
   C1h SX2vq  1 4.300000e-01    3.380000e+00
   C1h SX3vq  1 4.300000e-01    3.380000e+00
   C1h SX4vq  1 4.300000e-01    2.920000e+00
   C1h SC1vq  1 4.300000e-01    3.590000e+00
  C2vq  SC1h  1 4.300000e-01    3.770000e+00
  C3vq  SC1h  1 4.300000e-01    3.590000e+00
  C4vq  SC1h  1 4.300000e-01    3.160000e+00
  C5vq  SC1h  1 4.300000e-01    3.160000e+00
  C6vq  SC1h  1 4.300000e-01    2.920000e+00
  N1aq  SC1h  1 4.300000e-01    2.770000e+00
  N2aq  SC1h  1 4.300000e-01    2.770000e+00
  N3aq  SC1h  1 4.300000e-01    2.770000e+00
  N4aq  SC1h  1 4.300000e-01    2.530000e+00
  N5aq  SC1h  1 4.300000e-01    2.530000e+00
  N6aq  SC1h  1 4.300000e-01    2.530000e+00
  P1aq  SC1h  1 4.300000e-01    2.320000e+00
  P2aq  SC1h  1 4.300000e-01    2.320000e+00
  P3aq  SC1h  1 4.300000e-01    2.160000e+00
  P4aq  SC1h  1 4.300000e-01    2.160000e+00
  P5aq  SC1h  1 4.300000e-01    2.160000e+00
  P6aq  SC1h  1 4.300000e-01    1.730000e+00
  N1dq  SC1h  1 4.300000e-01    2.770000e+00
  N2dq  SC1h  1 4.300000e-01    2.770000e+00
  N3dq  SC1h  1 4.300000e-01    2.770000e+00
  N4dq  SC1h  1 4.300000e-01    2.530000e+00
  N5dq  SC1h  1 4.300000e-01    2.530000e+00
  N6dq  SC1h  1 4.300000e-01    2.530000e+00
  P1dq  SC1h  1 4.300000e-01    2.320000e+00
  P2dq  SC1h  1 4.300000e-01    2.320000e+00
  P3dq  SC1h  1 4.300000e-01    2.160000e+00
  P4dq  SC1h  1 4.300000e-01    2.160000e+00
  P5dq  SC1h  1 4.300000e-01    2.160000e+00
  P6dq  SC1h  1 4.300000e-01    1.730000e+00
   C1h  SX1q  1 4.300000e-01    3.160000e+00
   C1h  SX2q  1 4.300000e-01    3.160000e+00
   C1h  SX3q  1 4.300000e-01    3.160000e+00
   C1h  SX4q  1 4.300000e-01    2.770000e+00
   P6d  SX4h  1 4.300000e-01    2.530000e+00
   P5d  SX4h  1 4.300000e-01    2.770000e+00
   P4d  SX4h  1 4.300000e-01    2.770000e+00
   P3d  SX4h  1 4.300000e-01    2.770000e+00
   P2d  SX4h  1 4.300000e-01    2.770000e+00
   P1d  SX4h  1 4.300000e-01    2.770000e+00
   N6d  SX4h  1 4.300000e-01    2.920000e+00
   N5d  SX4h  1 4.300000e-01    3.160000e+00
   N4d  SX4h  1 4.300000e-01    3.380000e+00
   N3d  SX4h  1 4.300000e-01    3.160000e+00
   N2d  SX4h  1 4.300000e-01    3.160000e+00
   N1d  SX4h  1 4.300000e-01    2.920000e+00
   P6a  SX4h  1 4.300000e-01    2.530000e+00
   P5a  SX4h  1 4.300000e-01    2.770000e+00
   P4a  SX4h  1 4.300000e-01    2.770000e+00
   P3a  SX4h  1 4.300000e-01    2.770000e+00
   P2a  SX4h  1 4.300000e-01    2.770000e+00
   P1a  SX4h  1 4.300000e-01    2.770000e+00
   N6a  SX4h  1 4.300000e-01    2.920000e+00
   N5a  SX4h  1 4.300000e-01    3.160000e+00
   N4a  SX4h  1 4.300000e-01    3.380000e+00
   N3a  SX4h  1 4.300000e-01    3.160000e+00
   N2a  SX4h  1 4.300000e-01    3.160000e+00
   N1a  SX4h  1 4.300000e-01    2.920000e+00
   C6v  SX4h  1 4.300000e-01    3.160000e+00
   C5v  SX4h  1 4.300000e-01    2.920000e+00
   C4v  SX4h  1 4.300000e-01    2.920000e+00
   C3v  SX4h  1 4.300000e-01    2.920000e+00
   C2v  SX4h  1 4.300000e-01    2.530000e+00
   C1v  SX4h  1 4.300000e-01    2.530000e+00
   X4h  SX4v  1 4.300000e-01    3.160000e+00
   X4h  SX1v  1 4.300000e-01    3.160000e+00
   X4h  SX2v  1 4.300000e-01    3.160000e+00
   X4h  SX3v  1 4.300000e-01    3.160000e+00
   C6e  SX4h  1 4.300000e-01    3.160000e+00
   C5e  SX4h  1 4.300000e-01    2.920000e+00
   C4e  SX4h  1 4.300000e-01    2.920000e+00
   C3e  SX4h  1 4.300000e-01    2.920000e+00
   C2e  SX4h  1 4.300000e-01    2.530000e+00
   C1e  SX4h  1 4.300000e-01    2.530000e+00
   X4h  SX4e  1 4.300000e-01    3.160000e+00
   X4h  SX1e  1 4.300000e-01    3.160000e+00
   X4h  SX2e  1 4.300000e-01    3.160000e+00
   X4h  SX3e  1 4.300000e-01    3.160000e+00
   P6q  SX4h  1 4.300000e-01    2.920000e+00
   P5q  SX4h  1 4.300000e-01    3.160000e+00
   P4q  SX4h  1 4.300000e-01    3.160000e+00
   P3q  SX4h  1 4.300000e-01    3.160000e+00
   P2q  SX4h  1 4.300000e-01    3.160000e+00
   P1q  SX4h  1 4.300000e-01    3.160000e+00
   N6q  SX4h  1 4.300000e-01    3.380000e+00
   N5q  SX4h  1 4.300000e-01    3.590000e+00
   N4q  SX4h  1 4.300000e-01    3.770000e+00
   N3q  SX4h  1 4.300000e-01    3.590000e+00
   N2q  SX4h  1 4.300000e-01    3.590000e+00
   N1q  SX4h  1 4.300000e-01    3.380000e+00
   C6q  SX4h  1 4.300000e-01    3.380000e+00
   C5q  SX4h  1 4.300000e-01    3.160000e+00
   C4q  SX4h  1 4.300000e-01    3.160000e+00
   C3q  SX4h  1 4.300000e-01    3.160000e+00
   C2q  SX4h  1 4.300000e-01    2.770000e+00
   C1q  SX4h  1 4.300000e-01    2.770000e+00
   X4h  SX4q  1 4.300000e-01    3.380000e+00
   X4h SX1eq  1 4.300000e-01    3.590000e+00
   X4h SX2eq  1 4.300000e-01    3.590000e+00
   X4h SX3eq  1 4.300000e-01    3.590000e+00
   X4h SX4eq  1 4.300000e-01    3.590000e+00
  C1eq  SX4h  1 4.300000e-01    2.920000e+00
  C2eq  SX4h  1 4.300000e-01    2.920000e+00
  C3eq  SX4h  1 4.300000e-01    3.380000e+00
  C4eq  SX4h  1 4.300000e-01    3.380000e+00
  C5eq  SX4h  1 4.300000e-01    3.380000e+00
  C6eq  SX4h  1 4.300000e-01    3.590000e+00
   X4h SX1vq  1 4.300000e-01    3.590000e+00
   X4h SX2vq  1 4.300000e-01    3.590000e+00
   X4h SX3vq  1 4.300000e-01    3.590000e+00
   X4h SX4vq  1 4.300000e-01    3.590000e+00
  C1vq  SX4h  1 4.300000e-01    2.920000e+00
  C2vq  SX4h  1 4.300000e-01    2.920000e+00
  C3vq  SX4h  1 4.300000e-01    3.380000e+00
  C4vq  SX4h  1 4.300000e-01    3.380000e+00
  C5vq  SX4h  1 4.300000e-01    3.380000e+00
  C6vq  SX4h  1 4.300000e-01    3.590000e+00
  N1aq  SX4h  1 4.300000e-01    3.380000e+00
  N2aq  SX4h  1 4.300000e-01    3.590000e+00
  N3aq  SX4h  1 4.300000e-01    3.590000e+00
  N4aq  SX4h  1 4.300000e-01    3.770000e+00
  N5aq  SX4h  1 4.300000e-01    3.590000e+00
  N6aq  SX4h  1 4.300000e-01    3.380000e+00
  P1aq  SX4h  1 4.300000e-01    3.160000e+00
  P2aq  SX4h  1 4.300000e-01    3.160000e+00
  P3aq  SX4h  1 4.300000e-01    3.160000e+00
  P4aq  SX4h  1 4.300000e-01    3.160000e+00
  P5aq  SX4h  1 4.300000e-01    3.160000e+00
  P6aq  SX4h  1 4.300000e-01    2.920000e+00
  N1dq  SX4h  1 4.300000e-01    3.380000e+00
  N2dq  SX4h  1 4.300000e-01    3.590000e+00
  N3dq  SX4h  1 4.300000e-01    3.590000e+00
  N4dq  SX4h  1 4.300000e-01    3.770000e+00
  N5dq  SX4h  1 4.300000e-01    3.590000e+00
  N6dq  SX4h  1 4.300000e-01    3.380000e+00
  P1dq  SX4h  1 4.300000e-01    3.160000e+00
  P2dq  SX4h  1 4.300000e-01    3.160000e+00
  P3dq  SX4h  1 4.300000e-01    3.160000e+00
  P4dq  SX4h  1 4.300000e-01    3.160000e+00
  P5dq  SX4h  1 4.300000e-01    3.160000e+00
  P6dq  SX4h  1 4.300000e-01    2.920000e+00
   X4h  SX1q  1 4.300000e-01    3.380000e+00
   X4h  SX2q  1 4.300000e-01    3.380000e+00
   X4h  SX3q  1 4.300000e-01    3.380000e+00
   P6d  SX3h  1 4.300000e-01    2.530000e+00
   P5d  SX3h  1 4.300000e-01    2.530000e+00
   P4d  SX3h  1 4.300000e-01    2.530000e+00
   P3d  SX3h  1 4.300000e-01    2.770000e+00
   P2d  SX3h  1 4.300000e-01    2.770000e+00
   P1d  SX3h  1 4.300000e-01    2.770000e+00
   N6d  SX3h  1 4.300000e-01    2.770000e+00
   N5d  SX3h  1 4.300000e-01    2.920000e+00
   N4d  SX3h  1 4.300000e-01    3.160000e+00
   N3d  SX3h  1 4.300000e-01    2.920000e+00
   N2d  SX3h  1 4.300000e-01    2.920000e+00
   N1d  SX3h  1 4.300000e-01    2.920000e+00
   P6a  SX3h  1 4.300000e-01    2.530000e+00
   P5a  SX3h  1 4.300000e-01    2.530000e+00
   P4a  SX3h  1 4.300000e-01    2.530000e+00
   P3a  SX3h  1 4.300000e-01    2.770000e+00
   P2a  SX3h  1 4.300000e-01    2.770000e+00
   P1a  SX3h  1 4.300000e-01    2.770000e+00
   N6a  SX3h  1 4.300000e-01    2.770000e+00
   N5a  SX3h  1 4.300000e-01    2.920000e+00
   N4a  SX3h  1 4.300000e-01    3.160000e+00
   N3a  SX3h  1 4.300000e-01    2.920000e+00
   N2a  SX3h  1 4.300000e-01    2.920000e+00
   N1a  SX3h  1 4.300000e-01    2.920000e+00
   C6v  SX3h  1 4.300000e-01    3.160000e+00
   C5v  SX3h  1 4.300000e-01    2.920000e+00
   C4v  SX3h  1 4.300000e-01    2.920000e+00
   C3v  SX3h  1 4.300000e-01    2.920000e+00
   C2v  SX3h  1 4.300000e-01    2.920000e+00
   C1v  SX3h  1 4.300000e-01    2.920000e+00
   X4v  SX3h  1 4.300000e-01    3.160000e+00
   X3h  SX3v  1 4.300000e-01    3.160000e+00
   X3h  SX1v  1 4.300000e-01    3.380000e+00
   X3h  SX2v  1 4.300000e-01    3.380000e+00
   C6e  SX3h  1 4.300000e-01    3.160000e+00
   C5e  SX3h  1 4.300000e-01    2.920000e+00
   C4e  SX3h  1 4.300000e-01    2.920000e+00
   C3e  SX3h  1 4.300000e-01    2.920000e+00
   C2e  SX3h  1 4.300000e-01    2.920000e+00
   C1e  SX3h  1 4.300000e-01    2.920000e+00
   X4e  SX3h  1 4.300000e-01    3.160000e+00
   X3h  SX3e  1 4.300000e-01    3.160000e+00
   X3h  SX1e  1 4.300000e-01    3.380000e+00
   X3h  SX2e  1 4.300000e-01    3.380000e+00
   P6q  SX3h  1 4.300000e-01    2.920000e+00
   P5q  SX3h  1 4.300000e-01    2.920000e+00
   P4q  SX3h  1 4.300000e-01    2.920000e+00
   P3q  SX3h  1 4.300000e-01    3.160000e+00
   P2q  SX3h  1 4.300000e-01    3.160000e+00
   P1q  SX3h  1 4.300000e-01    3.160000e+00
   N6q  SX3h  1 4.300000e-01    3.160000e+00
   N5q  SX3h  1 4.300000e-01    3.380000e+00
   N4q  SX3h  1 4.300000e-01    3.590000e+00
   N3q  SX3h  1 4.300000e-01    3.380000e+00
   N2q  SX3h  1 4.300000e-01    3.380000e+00
   N1q  SX3h  1 4.300000e-01    3.380000e+00
   C6q  SX3h  1 4.300000e-01    3.380000e+00
   C5q  SX3h  1 4.300000e-01    3.160000e+00
   C4q  SX3h  1 4.300000e-01    3.160000e+00
   C3q  SX3h  1 4.300000e-01    3.160000e+00
   C2q  SX3h  1 4.300000e-01    3.160000e+00
   C1q  SX3h  1 4.300000e-01    3.160000e+00
   X4q  SX3h  1 4.300000e-01    3.380000e+00
   X3h  SX3q  1 4.300000e-01    3.380000e+00
   X3h SX1eq  1 4.300000e-01    3.770000e+00
   X3h SX2eq  1 4.300000e-01    3.770000e+00
   X3h SX3eq  1 4.300000e-01    3.590000e+00
  X4eq  SX3h  1 4.300000e-01    3.590000e+00
  C1eq  SX3h  1 4.300000e-01    3.380000e+00
  C2eq  SX3h  1 4.300000e-01    3.380000e+00
  C3eq  SX3h  1 4.300000e-01    3.380000e+00
  C4eq  SX3h  1 4.300000e-01    3.380000e+00
  C5eq  SX3h  1 4.300000e-01    3.380000e+00
  C6eq  SX3h  1 4.300000e-01    3.590000e+00
   X3h SX1vq  1 4.300000e-01    3.770000e+00
   X3h SX2vq  1 4.300000e-01    3.770000e+00
   X3h SX3vq  1 4.300000e-01    3.590000e+00
  X4vq  SX3h  1 4.300000e-01    3.590000e+00
  C1vq  SX3h  1 4.300000e-01    3.380000e+00
  C2vq  SX3h  1 4.300000e-01    3.380000e+00
  C3vq  SX3h  1 4.300000e-01    3.380000e+00
  C4vq  SX3h  1 4.300000e-01    3.380000e+00
  C5vq  SX3h  1 4.300000e-01    3.380000e+00
  C6vq  SX3h  1 4.300000e-01    3.590000e+00
  N1aq  SX3h  1 4.300000e-01    3.380000e+00
  N2aq  SX3h  1 4.300000e-01    3.380000e+00
  N3aq  SX3h  1 4.300000e-01    3.380000e+00
  N4aq  SX3h  1 4.300000e-01    3.590000e+00
  N5aq  SX3h  1 4.300000e-01    3.380000e+00
  N6aq  SX3h  1 4.300000e-01    3.160000e+00
  P1aq  SX3h  1 4.300000e-01    3.160000e+00
  P2aq  SX3h  1 4.300000e-01    3.160000e+00
  P3aq  SX3h  1 4.300000e-01    3.160000e+00
  P4aq  SX3h  1 4.300000e-01    2.920000e+00
  P5aq  SX3h  1 4.300000e-01    2.920000e+00
  P6aq  SX3h  1 4.300000e-01    2.920000e+00
  N1dq  SX3h  1 4.300000e-01    3.380000e+00
  N2dq  SX3h  1 4.300000e-01    3.380000e+00
  N3dq  SX3h  1 4.300000e-01    3.380000e+00
  N4dq  SX3h  1 4.300000e-01    3.590000e+00
  N5dq  SX3h  1 4.300000e-01    3.380000e+00
  N6dq  SX3h  1 4.300000e-01    3.160000e+00
  P1dq  SX3h  1 4.300000e-01    3.160000e+00
  P2dq  SX3h  1 4.300000e-01    3.160000e+00
  P3dq  SX3h  1 4.300000e-01    3.160000e+00
  P4dq  SX3h  1 4.300000e-01    2.920000e+00
  P5dq  SX3h  1 4.300000e-01    2.920000e+00
  P6dq  SX3h  1 4.300000e-01    2.920000e+00
   X3h  SX1q  1 4.300000e-01    3.590000e+00
   X3h  SX2q  1 4.300000e-01    3.590000e+00
   P6d  SX2h  1 4.300000e-01    2.320000e+00
   P5d  SX2h  1 4.300000e-01    2.530000e+00
   P4d  SX2h  1 4.300000e-01    2.530000e+00
   P3d  SX2h  1 4.300000e-01    2.530000e+00
   P2d  SX2h  1 4.300000e-01    2.530000e+00
   P1d  SX2h  1 4.300000e-01    2.530000e+00
   N6d  SX2h  1 4.300000e-01    2.530000e+00
   N5d  SX2h  1 4.300000e-01    2.770000e+00
   N4d  SX2h  1 4.300000e-01    2.770000e+00
   N3d  SX2h  1 4.300000e-01    2.770000e+00
   N2d  SX2h  1 4.300000e-01    2.770000e+00
   N1d  SX2h  1 4.300000e-01    2.770000e+00
   P6a  SX2h  1 4.300000e-01    2.320000e+00
   P5a  SX2h  1 4.300000e-01    2.530000e+00
   P4a  SX2h  1 4.300000e-01    2.530000e+00
   P3a  SX2h  1 4.300000e-01    2.530000e+00
   P2a  SX2h  1 4.300000e-01    2.530000e+00
   P1a  SX2h  1 4.300000e-01    2.530000e+00
   N6a  SX2h  1 4.300000e-01    2.530000e+00
   N5a  SX2h  1 4.300000e-01    2.770000e+00
   N4a  SX2h  1 4.300000e-01    2.770000e+00
   N3a  SX2h  1 4.300000e-01    2.770000e+00
   N2a  SX2h  1 4.300000e-01    2.770000e+00
   N1a  SX2h  1 4.300000e-01    2.770000e+00
   C6v  SX2h  1 4.300000e-01    3.160000e+00
   C5v  SX2h  1 4.300000e-01    2.920000e+00
   C4v  SX2h  1 4.300000e-01    2.920000e+00
   C3v  SX2h  1 4.300000e-01    2.920000e+00
   C2v  SX2h  1 4.300000e-01    2.920000e+00
   C1v  SX2h  1 4.300000e-01    2.920000e+00
   X4v  SX2h  1 4.300000e-01    3.160000e+00
   X3v  SX2h  1 4.300000e-01    3.380000e+00
   X2h  SX2v  1 4.300000e-01    3.380000e+00
   X2h  SX1v  1 4.300000e-01    3.380000e+00
   C6e  SX2h  1 4.300000e-01    3.160000e+00
   C5e  SX2h  1 4.300000e-01    2.920000e+00
   C4e  SX2h  1 4.300000e-01    2.920000e+00
   C3e  SX2h  1 4.300000e-01    2.920000e+00
   C2e  SX2h  1 4.300000e-01    2.920000e+00
   C1e  SX2h  1 4.300000e-01    2.920000e+00
   X4e  SX2h  1 4.300000e-01    3.160000e+00
   X3e  SX2h  1 4.300000e-01    3.380000e+00
   X2h  SX2e  1 4.300000e-01    3.380000e+00
   X2h  SX1e  1 4.300000e-01    3.380000e+00
   P6q  SX2h  1 4.300000e-01    2.770000e+00
   P5q  SX2h  1 4.300000e-01    2.920000e+00
   P4q  SX2h  1 4.300000e-01    2.920000e+00
   P3q  SX2h  1 4.300000e-01    2.920000e+00
   P2q  SX2h  1 4.300000e-01    2.920000e+00
   P1q  SX2h  1 4.300000e-01    2.920000e+00
   N6q  SX2h  1 4.300000e-01    2.920000e+00
   N5q  SX2h  1 4.300000e-01    3.160000e+00
   N4q  SX2h  1 4.300000e-01    3.160000e+00
   N3q  SX2h  1 4.300000e-01    3.160000e+00
   N2q  SX2h  1 4.300000e-01    3.160000e+00
   N1q  SX2h  1 4.300000e-01    3.160000e+00
   C6q  SX2h  1 4.300000e-01    3.380000e+00
   C5q  SX2h  1 4.300000e-01    3.160000e+00
   C4q  SX2h  1 4.300000e-01    3.160000e+00
   C3q  SX2h  1 4.300000e-01    3.160000e+00
   C2q  SX2h  1 4.300000e-01    3.160000e+00
   C1q  SX2h  1 4.300000e-01    3.160000e+00
   X4q  SX2h  1 4.300000e-01    3.380000e+00
   X3q  SX2h  1 4.300000e-01    3.590000e+00
   X2h  SX2q  1 4.300000e-01    3.590000e+00
   X2h SX1eq  1 4.300000e-01    3.770000e+00
   X2h SX2eq  1 4.300000e-01    3.770000e+00
  X3eq  SX2h  1 4.300000e-01    3.770000e+00
  X4eq  SX2h  1 4.300000e-01    3.590000e+00
  C1eq  SX2h  1 4.300000e-01    3.380000e+00
  C2eq  SX2h  1 4.300000e-01    3.380000e+00
  C3eq  SX2h  1 4.300000e-01    3.380000e+00
  C4eq  SX2h  1 4.300000e-01    3.380000e+00
  C5eq  SX2h  1 4.300000e-01    3.380000e+00
  C6eq  SX2h  1 4.300000e-01    3.590000e+00
   X2h SX1vq  1 4.300000e-01    3.770000e+00
   X2h SX2vq  1 4.300000e-01    3.770000e+00
  X3vq  SX2h  1 4.300000e-01    3.770000e+00
  X4vq  SX2h  1 4.300000e-01    3.590000e+00
  C1vq  SX2h  1 4.300000e-01    3.380000e+00
  C2vq  SX2h  1 4.300000e-01    3.380000e+00
  C3vq  SX2h  1 4.300000e-01    3.380000e+00
  C4vq  SX2h  1 4.300000e-01    3.380000e+00
  C5vq  SX2h  1 4.300000e-01    3.380000e+00
  C6vq  SX2h  1 4.300000e-01    3.590000e+00
  N1aq  SX2h  1 4.300000e-01    3.160000e+00
  N2aq  SX2h  1 4.300000e-01    3.160000e+00
  N3aq  SX2h  1 4.300000e-01    3.160000e+00
  N4aq  SX2h  1 4.300000e-01    3.160000e+00
  N5aq  SX2h  1 4.300000e-01    3.160000e+00
  N6aq  SX2h  1 4.300000e-01    2.920000e+00
  P1aq  SX2h  1 4.300000e-01    2.920000e+00
  P2aq  SX2h  1 4.300000e-01    2.920000e+00
  P3aq  SX2h  1 4.300000e-01    2.920000e+00
  P4aq  SX2h  1 4.300000e-01    2.920000e+00
  P5aq  SX2h  1 4.300000e-01    2.920000e+00
  P6aq  SX2h  1 4.300000e-01    2.770000e+00
  N1dq  SX2h  1 4.300000e-01    3.160000e+00
  N2dq  SX2h  1 4.300000e-01    3.160000e+00
  N3dq  SX2h  1 4.300000e-01    3.160000e+00
  N4dq  SX2h  1 4.300000e-01    3.160000e+00
  N5dq  SX2h  1 4.300000e-01    3.160000e+00
  N6dq  SX2h  1 4.300000e-01    2.920000e+00
  P1dq  SX2h  1 4.300000e-01    2.920000e+00
  P2dq  SX2h  1 4.300000e-01    2.920000e+00
  P3dq  SX2h  1 4.300000e-01    2.920000e+00
  P4dq  SX2h  1 4.300000e-01    2.920000e+00
  P5dq  SX2h  1 4.300000e-01    2.920000e+00
  P6dq  SX2h  1 4.300000e-01    2.770000e+00
   X2h  SX1q  1 4.300000e-01    3.590000e+00
   P6d  SX1h  1 4.300000e-01    2.160000e+00
   P5d  SX1h  1 4.300000e-01    2.160000e+00
   P4d  SX1h  1 4.300000e-01    2.320000e+00
   P3d  SX1h  1 4.300000e-01    2.320000e+00
   P2d  SX1h  1 4.300000e-01    2.320000e+00
   P1d  SX1h  1 4.300000e-01    2.320000e+00
   N6d  SX1h  1 4.300000e-01    2.320000e+00
   N5d  SX1h  1 4.300000e-01    2.530000e+00
   N4d  SX1h  1 4.300000e-01    2.530000e+00
   N3d  SX1h  1 4.300000e-01    2.770000e+00
   N2d  SX1h  1 4.300000e-01    2.770000e+00
   N1d  SX1h  1 4.300000e-01    2.770000e+00
   P6a  SX1h  1 4.300000e-01    2.160000e+00
   P5a  SX1h  1 4.300000e-01    2.160000e+00
   P4a  SX1h  1 4.300000e-01    2.320000e+00
   P3a  SX1h  1 4.300000e-01    2.320000e+00
   P2a  SX1h  1 4.300000e-01    2.320000e+00
   P1a  SX1h  1 4.300000e-01    2.320000e+00
   N6a  SX1h  1 4.300000e-01    2.320000e+00
   N5a  SX1h  1 4.300000e-01    2.530000e+00
   N4a  SX1h  1 4.300000e-01    2.530000e+00
   N3a  SX1h  1 4.300000e-01    2.770000e+00
   N2a  SX1h  1 4.300000e-01    2.770000e+00
   N1a  SX1h  1 4.300000e-01    2.770000e+00
   C6v  SX1h  1 4.300000e-01    3.160000e+00
   C5v  SX1h  1 4.300000e-01    3.160000e+00
   C4v  SX1h  1 4.300000e-01    3.160000e+00
   C3v  SX1h  1 4.300000e-01    3.160000e+00
   C2v  SX1h  1 4.300000e-01    2.920000e+00
   C1v  SX1h  1 4.300000e-01    2.920000e+00
   X4v  SX1h  1 4.300000e-01    3.160000e+00
   X3v  SX1h  1 4.300000e-01    3.380000e+00
   X2v  SX1h  1 4.300000e-01    3.380000e+00
   X1h  SX1v  1 4.300000e-01    3.590000e+00
   C6e  SX1h  1 4.300000e-01    3.160000e+00
   C5e  SX1h  1 4.300000e-01    3.160000e+00
   C4e  SX1h  1 4.300000e-01    3.160000e+00
   C3e  SX1h  1 4.300000e-01    3.160000e+00
   C2e  SX1h  1 4.300000e-01    2.920000e+00
   C1e  SX1h  1 4.300000e-01    2.920000e+00
   X4e  SX1h  1 4.300000e-01    3.160000e+00
   X3e  SX1h  1 4.300000e-01    3.380000e+00
   X2e  SX1h  1 4.300000e-01    3.380000e+00
   X1h  SX1e  1 4.300000e-01    3.590000e+00
   P6q  SX1h  1 4.300000e-01    2.530000e+00
   P5q  SX1h  1 4.300000e-01    2.530000e+00
   P4q  SX1h  1 4.300000e-01    2.770000e+00
   P3q  SX1h  1 4.300000e-01    2.770000e+00
   P2q  SX1h  1 4.300000e-01    2.770000e+00
   P1q  SX1h  1 4.300000e-01    2.770000e+00
   N6q  SX1h  1 4.300000e-01    2.770000e+00
   N5q  SX1h  1 4.300000e-01    2.920000e+00
   N4q  SX1h  1 4.300000e-01    2.920000e+00
   N3q  SX1h  1 4.300000e-01    3.160000e+00
   N2q  SX1h  1 4.300000e-01    3.160000e+00
   N1q  SX1h  1 4.300000e-01    3.160000e+00
   C6q  SX1h  1 4.300000e-01    3.380000e+00
   C5q  SX1h  1 4.300000e-01    3.380000e+00
   C4q  SX1h  1 4.300000e-01    3.380000e+00
   C3q  SX1h  1 4.300000e-01    3.380000e+00
   C2q  SX1h  1 4.300000e-01    3.160000e+00
   C1q  SX1h  1 4.300000e-01    3.160000e+00
   X4q  SX1h  1 4.300000e-01    3.380000e+00
   X3q  SX1h  1 4.300000e-01    3.590000e+00
   X2q  SX1h  1 4.300000e-01    3.590000e+00
   X1h  SX1q  1 4.300000e-01    3.770000e+00
   X1h SX1eq  1 4.300000e-01    3.970000e+00
  X2eq  SX1h  1 4.300000e-01    3.770000e+00
  X3eq  SX1h  1 4.300000e-01    3.770000e+00
  X4eq  SX1h  1 4.300000e-01    3.590000e+00
  C1eq  SX1h  1 4.300000e-01    3.380000e+00
  C2eq  SX1h  1 4.300000e-01    3.380000e+00
  C3eq  SX1h  1 4.300000e-01    3.590000e+00
  C4eq  SX1h  1 4.300000e-01    3.590000e+00
  C5eq  SX1h  1 4.300000e-01    3.590000e+00
  C6eq  SX1h  1 4.300000e-01    3.590000e+00
   X1h SX1vq  1 4.300000e-01    3.970000e+00
  X2vq  SX1h  1 4.300000e-01    3.770000e+00
  X3vq  SX1h  1 4.300000e-01    3.770000e+00
  X4vq  SX1h  1 4.300000e-01    3.590000e+00
  C1vq  SX1h  1 4.300000e-01    3.380000e+00
  C2vq  SX1h  1 4.300000e-01    3.380000e+00
  C3vq  SX1h  1 4.300000e-01    3.590000e+00
  C4vq  SX1h  1 4.300000e-01    3.590000e+00
  C5vq  SX1h  1 4.300000e-01    3.590000e+00
  C6vq  SX1h  1 4.300000e-01    3.590000e+00
  N1aq  SX1h  1 4.300000e-01    3.160000e+00
  N2aq  SX1h  1 4.300000e-01    3.160000e+00
  N3aq  SX1h  1 4.300000e-01    3.160000e+00
  N4aq  SX1h  1 4.300000e-01    2.920000e+00
  N5aq  SX1h  1 4.300000e-01    2.920000e+00
  N6aq  SX1h  1 4.300000e-01    2.770000e+00
  P1aq  SX1h  1 4.300000e-01    2.770000e+00
  P2aq  SX1h  1 4.300000e-01    2.770000e+00
  P3aq  SX1h  1 4.300000e-01    2.770000e+00
  P4aq  SX1h  1 4.300000e-01    2.770000e+00
  P5aq  SX1h  1 4.300000e-01    2.530000e+00
  P6aq  SX1h  1 4.300000e-01    2.530000e+00
  N1dq  SX1h  1 4.300000e-01    3.160000e+00
  N2dq  SX1h  1 4.300000e-01    3.160000e+00
  N3dq  SX1h  1 4.300000e-01    3.160000e+00
  N4dq  SX1h  1 4.300000e-01    2.920000e+00
  N5dq  SX1h  1 4.300000e-01    2.920000e+00
  N6dq  SX1h  1 4.300000e-01    2.770000e+00
  P1dq  SX1h  1 4.300000e-01    2.770000e+00
  P2dq  SX1h  1 4.300000e-01    2.770000e+00
  P3dq  SX1h  1 4.300000e-01    2.770000e+00
  P4dq  SX1h  1 4.300000e-01    2.770000e+00
  P5dq  SX1h  1 4.300000e-01    2.530000e+00
  P6dq  SX1h  1 4.300000e-01    2.530000e+00
   P6q SP6dh  1 4.300000e-01    5.210000e+00
  P6dh  SP5q  1 4.300000e-01    4.920000e+00
  P6dh  SP4q  1 4.300000e-01    4.680000e+00
  P6dh  SP3q  1 4.300000e-01    4.400000e+00
  P6dh  SP2q  1 4.300000e-01    4.400000e+00
  P6dh  SP1q  1 4.300000e-01    4.170000e+00
  P6dh  SN6q  1 4.300000e-01    3.970000e+00
  P6dh  SN5q  1 4.300000e-01    3.590000e+00
  P6dh  SN4q  1 4.300000e-01    3.380000e+00
  P6dh  SN3q  1 4.300000e-01    3.160000e+00
  P6dh  SN2q  1 4.300000e-01    2.920000e+00
  P6dh  SN1q  1 4.300000e-01    2.770000e+00
  P6dh  SC6q  1 4.300000e-01    2.770000e+00
  P6dh  SC5q  1 4.300000e-01    2.530000e+00
  P6dh  SC4q  1 4.300000e-01    2.320000e+00
  P6dh  SC3q  1 4.300000e-01    2.160000e+00
  P6dh  SC2q  1 4.300000e-01    2.160000e+00
  P6dh  SC1q  1 4.300000e-01    1.730000e+00
  P6dh  SX4q  1 4.300000e-01    2.920000e+00
  P6dh  SX3q  1 4.300000e-01    2.920000e+00
  P6dh  SX2q  1 4.300000e-01    2.770000e+00
  P6dh  SX1q  1 4.300000e-01    2.530000e+00
   P6q SP5dh  1 4.300000e-01    4.920000e+00
   P5q SP5dh  1 4.300000e-01    4.680000e+00
  P5dh  SP4q  1 4.300000e-01    4.400000e+00
  P5dh  SP3q  1 4.300000e-01    4.170000e+00
  P5dh  SP2q  1 4.300000e-01    4.170000e+00
  P5dh  SP1q  1 4.300000e-01    3.970000e+00
  P5dh  SN6q  1 4.300000e-01    3.770000e+00
  P5dh  SN5q  1 4.300000e-01    3.590000e+00
  P5dh  SN4q  1 4.300000e-01    3.590000e+00
  P5dh  SN3q  1 4.300000e-01    3.160000e+00
  P5dh  SN2q  1 4.300000e-01    2.920000e+00
  P5dh  SN1q  1 4.300000e-01    2.770000e+00
  P5dh  SC6q  1 4.300000e-01    2.770000e+00
  P5dh  SC5q  1 4.300000e-01    2.770000e+00
  P5dh  SC4q  1 4.300000e-01    2.530000e+00
  P5dh  SC3q  1 4.300000e-01    2.320000e+00
  P5dh  SC2q  1 4.300000e-01    2.320000e+00
  P5dh  SC1q  1 4.300000e-01    2.160000e+00
  P5dh  SX4q  1 4.300000e-01    3.160000e+00
  P5dh  SX3q  1 4.300000e-01    2.920000e+00
  P5dh  SX2q  1 4.300000e-01    2.920000e+00
  P5dh  SX1q  1 4.300000e-01    2.530000e+00
   P6q SP4dh  1 4.300000e-01    4.680000e+00
   P5q SP4dh  1 4.300000e-01    4.400000e+00
   P4q SP4dh  1 4.300000e-01    4.400000e+00
  P4dh  SP3q  1 4.300000e-01    4.170000e+00
  P4dh  SP2q  1 4.300000e-01    4.170000e+00
  P4dh  SP1q  1 4.300000e-01    3.970000e+00
  P4dh  SN6q  1 4.300000e-01    3.770000e+00
  P4dh  SN5q  1 4.300000e-01    3.590000e+00
  P4dh  SN4q  1 4.300000e-01    3.590000e+00
  P4dh  SN3q  1 4.300000e-01    3.380000e+00
  P4dh  SN2q  1 4.300000e-01    3.160000e+00
  P4dh  SN1q  1 4.300000e-01    2.920000e+00
  P4dh  SC6q  1 4.300000e-01    2.920000e+00
  P4dh  SC5q  1 4.300000e-01    2.770000e+00
  P4dh  SC4q  1 4.300000e-01    2.530000e+00
  P4dh  SC3q  1 4.300000e-01    2.320000e+00
  P4dh  SC2q  1 4.300000e-01    2.320000e+00
  P4dh  SC1q  1 4.300000e-01    2.160000e+00
  P4dh  SX4q  1 4.300000e-01    3.160000e+00
  P4dh  SX3q  1 4.300000e-01    2.920000e+00
  P4dh  SX2q  1 4.300000e-01    2.920000e+00
  P4dh  SX1q  1 4.300000e-01    2.770000e+00
   P6q SP3dh  1 4.300000e-01    4.400000e+00
   P5q SP3dh  1 4.300000e-01    4.170000e+00
   P4q SP3dh  1 4.300000e-01    4.170000e+00
   P3q SP3dh  1 4.300000e-01    4.170000e+00
  P3dh  SP2q  1 4.300000e-01    4.170000e+00
  P3dh  SP1q  1 4.300000e-01    3.970000e+00
  P3dh  SN6q  1 4.300000e-01    3.770000e+00
  P3dh  SN5q  1 4.300000e-01    3.590000e+00
  P3dh  SN4q  1 4.300000e-01    3.590000e+00
  P3dh  SN3q  1 4.300000e-01    3.380000e+00
  P3dh  SN2q  1 4.300000e-01    3.380000e+00
  P3dh  SN1q  1 4.300000e-01    3.160000e+00
  P3dh  SC6q  1 4.300000e-01    3.160000e+00
  P3dh  SC5q  1 4.300000e-01    2.920000e+00
  P3dh  SC4q  1 4.300000e-01    2.770000e+00
  P3dh  SC3q  1 4.300000e-01    2.320000e+00
  P3dh  SC2q  1 4.300000e-01    2.320000e+00
  P3dh  SC1q  1 4.300000e-01    2.160000e+00
  P3dh  SX4q  1 4.300000e-01    3.160000e+00
  P3dh  SX3q  1 4.300000e-01    3.160000e+00
  P3dh  SX2q  1 4.300000e-01    2.920000e+00
  P3dh  SX1q  1 4.300000e-01    2.770000e+00
   P6q SP2dh  1 4.300000e-01    4.400000e+00
   P5q SP2dh  1 4.300000e-01    4.170000e+00
   P4q SP2dh  1 4.300000e-01    4.170000e+00
   P3q SP2dh  1 4.300000e-01    4.170000e+00
   P2q SP2dh  1 4.300000e-01    4.170000e+00
  P2dh  SP1q  1 4.300000e-01    3.970000e+00
  P2dh  SN6q  1 4.300000e-01    3.970000e+00
  P2dh  SN5q  1 4.300000e-01    3.770000e+00
  P2dh  SN4q  1 4.300000e-01    3.590000e+00
  P2dh  SN3q  1 4.300000e-01    3.380000e+00
  P2dh  SN2q  1 4.300000e-01    3.380000e+00
  P2dh  SN1q  1 4.300000e-01    3.380000e+00
  P2dh  SC6q  1 4.300000e-01    3.160000e+00
  P2dh  SC5q  1 4.300000e-01    2.920000e+00
  P2dh  SC4q  1 4.300000e-01    2.770000e+00
  P2dh  SC3q  1 4.300000e-01    2.530000e+00
  P2dh  SC2q  1 4.300000e-01    2.530000e+00
  P2dh  SC1q  1 4.300000e-01    2.320000e+00
  P2dh  SX4q  1 4.300000e-01    3.160000e+00
  P2dh  SX3q  1 4.300000e-01    3.160000e+00
  P2dh  SX2q  1 4.300000e-01    2.920000e+00
  P2dh  SX1q  1 4.300000e-01    2.770000e+00
   P6q SP1dh  1 4.300000e-01    4.170000e+00
   P5q SP1dh  1 4.300000e-01    3.970000e+00
   P4q SP1dh  1 4.300000e-01    3.970000e+00
   P3q SP1dh  1 4.300000e-01    3.970000e+00
   P2q SP1dh  1 4.300000e-01    3.970000e+00
   P1q SP1dh  1 4.300000e-01    3.970000e+00
  P1dh  SN6q  1 4.300000e-01    3.970000e+00
  P1dh  SN5q  1 4.300000e-01    3.770000e+00
  P1dh  SN4q  1 4.300000e-01    3.770000e+00
  P1dh  SN3q  1 4.300000e-01    3.380000e+00
  P1dh  SN2q  1 4.300000e-01    3.380000e+00
  P1dh  SN1q  1 4.300000e-01    3.380000e+00
  P1dh  SC6q  1 4.300000e-01    3.160000e+00
  P1dh  SC5q  1 4.300000e-01    2.920000e+00
  P1dh  SC4q  1 4.300000e-01    2.770000e+00
  P1dh  SC3q  1 4.300000e-01    2.530000e+00
  P1dh  SC2q  1 4.300000e-01    2.530000e+00
  P1dh  SC1q  1 4.300000e-01    2.320000e+00
  P1dh  SX4q  1 4.300000e-01    3.160000e+00
  P1dh  SX3q  1 4.300000e-01    3.160000e+00
  P1dh  SX2q  1 4.300000e-01    2.920000e+00
  P1dh  SX1q  1 4.300000e-01    2.770000e+00
   P6q SN6dh  1 4.300000e-01    3.970000e+00
   P5q SN6dh  1 4.300000e-01    3.770000e+00
   P4q SN6dh  1 4.300000e-01    3.770000e+00
   P3q SN6dh  1 4.300000e-01    3.770000e+00
   P2q SN6dh  1 4.300000e-01    3.970000e+00
   P1q SN6dh  1 4.300000e-01    3.970000e+00
   N6q SN6dh  1 4.300000e-01    3.970000e+00
  N6dh  SN5q  1 4.300000e-01    3.970000e+00
  N6dh  SN4q  1 4.300000e-01    3.970000e+00
  N6dh  SN3q  1 4.300000e-01    3.590000e+00
  N6dh  SN2q  1 4.300000e-01    3.380000e+00
  N6dh  SN1q  1 4.300000e-01    3.380000e+00
  N6dh  SC6q  1 4.300000e-01    3.380000e+00
  N6dh  SC5q  1 4.300000e-01    3.160000e+00
  N6dh  SC4q  1 4.300000e-01    2.920000e+00
  N6dh  SC3q  1 4.300000e-01    2.770000e+00
  N6dh  SC2q  1 4.300000e-01    2.770000e+00
  N6dh  SC1q  1 4.300000e-01    2.530000e+00
  N6dh  SX4q  1 4.300000e-01    3.380000e+00
  N6dh  SX3q  1 4.300000e-01    3.160000e+00
  N6dh  SX2q  1 4.300000e-01    2.920000e+00
  N6dh  SX1q  1 4.300000e-01    2.770000e+00
   P6q SN5dh  1 4.300000e-01    3.590000e+00
   P5q SN5dh  1 4.300000e-01    3.590000e+00
   P4q SN5dh  1 4.300000e-01    3.590000e+00
   P3q SN5dh  1 4.300000e-01    3.590000e+00
   P2q SN5dh  1 4.300000e-01    3.770000e+00
   P1q SN5dh  1 4.300000e-01    3.770000e+00
   N6q SN5dh  1 4.300000e-01    3.970000e+00
   N5q SN5dh  1 4.300000e-01    3.770000e+00
  N5dh  SN4q  1 4.300000e-01    3.770000e+00
  N5dh  SN3q  1 4.300000e-01    3.590000e+00
  N5dh  SN2q  1 4.300000e-01    3.590000e+00
  N5dh  SN1q  1 4.300000e-01    3.380000e+00
  N5dh  SC6q  1 4.300000e-01    3.380000e+00
  N5dh  SC5q  1 4.300000e-01    3.160000e+00
  N5dh  SC4q  1 4.300000e-01    2.920000e+00
  N5dh  SC3q  1 4.300000e-01    2.920000e+00
  N5dh  SC2q  1 4.300000e-01    2.770000e+00
  N5dh  SC1q  1 4.300000e-01    2.530000e+00
  N5dh  SX4q  1 4.300000e-01    3.590000e+00
  N5dh  SX3q  1 4.300000e-01    3.380000e+00
  N5dh  SX2q  1 4.300000e-01    3.160000e+00
  N5dh  SX1q  1 4.300000e-01    2.920000e+00
   P6q SN4dh  1 4.300000e-01    3.380000e+00
   P5q SN4dh  1 4.300000e-01    3.590000e+00
   P4q SN4dh  1 4.300000e-01    3.590000e+00
   P3q SN4dh  1 4.300000e-01    3.590000e+00
   P2q SN4dh  1 4.300000e-01    3.590000e+00
   P1q SN4dh  1 4.300000e-01    3.770000e+00
   N6q SN4dh  1 4.300000e-01    3.970000e+00
   N5q SN4dh  1 4.300000e-01    3.770000e+00
   N4q SN4dh  1 4.300000e-01    3.770000e+00
  N4dh  SN3q  1 4.300000e-01    3.590000e+00
  N4dh  SN2q  1 4.300000e-01    3.590000e+00
  N4dh  SN1q  1 4.300000e-01    3.380000e+00
  N4dh  SC6q  1 4.300000e-01    3.380000e+00
  N4dh  SC5q  1 4.300000e-01    3.160000e+00
  N4dh  SC4q  1 4.300000e-01    3.160000e+00
  N4dh  SC3q  1 4.300000e-01    2.920000e+00
  N4dh  SC2q  1 4.300000e-01    2.770000e+00
  N4dh  SC1q  1 4.300000e-01    2.530000e+00
  N4dh  SX4q  1 4.300000e-01    3.770000e+00
  N4dh  SX3q  1 4.300000e-01    3.590000e+00
  N4dh  SX2q  1 4.300000e-01    3.160000e+00
  N4dh  SX1q  1 4.300000e-01    2.920000e+00
   P6q SN3dh  1 4.300000e-01    3.160000e+00
   P5q SN3dh  1 4.300000e-01    3.160000e+00
   P4q SN3dh  1 4.300000e-01    3.380000e+00
   P3q SN3dh  1 4.300000e-01    3.380000e+00
   P2q SN3dh  1 4.300000e-01    3.380000e+00
   P1q SN3dh  1 4.300000e-01    3.380000e+00
   N6q SN3dh  1 4.300000e-01    3.590000e+00
   N5q SN3dh  1 4.300000e-01    3.590000e+00
   N4q SN3dh  1 4.300000e-01    3.590000e+00
   N3q SN3dh  1 4.300000e-01    3.590000e+00
  N3dh  SN2q  1 4.300000e-01    3.590000e+00
  N3dh  SN1q  1 4.300000e-01    3.380000e+00
  N3dh  SC6q  1 4.300000e-01    3.380000e+00
  N3dh  SC5q  1 4.300000e-01    3.160000e+00
  N3dh  SC4q  1 4.300000e-01    3.160000e+00
  N3dh  SC3q  1 4.300000e-01    2.920000e+00
  N3dh  SC2q  1 4.300000e-01    2.920000e+00
  N3dh  SC1q  1 4.300000e-01    2.770000e+00
  N3dh  SX4q  1 4.300000e-01    3.590000e+00
  N3dh  SX3q  1 4.300000e-01    3.380000e+00
  N3dh  SX2q  1 4.300000e-01    3.160000e+00
  N3dh  SX1q  1 4.300000e-01    3.160000e+00
   P6q SN2dh  1 4.300000e-01    2.920000e+00
   P5q SN2dh  1 4.300000e-01    2.920000e+00
   P4q SN2dh  1 4.300000e-01    3.160000e+00
   P3q SN2dh  1 4.300000e-01    3.380000e+00
   P2q SN2dh  1 4.300000e-01    3.380000e+00
   P1q SN2dh  1 4.300000e-01    3.380000e+00
   N6q SN2dh  1 4.300000e-01    3.380000e+00
   N5q SN2dh  1 4.300000e-01    3.590000e+00
   N4q SN2dh  1 4.300000e-01    3.590000e+00
   N3q SN2dh  1 4.300000e-01    3.590000e+00
   N2q SN2dh  1 4.300000e-01    3.590000e+00
  N2dh  SN1q  1 4.300000e-01    3.380000e+00
  N2dh  SC6q  1 4.300000e-01    3.380000e+00
  N2dh  SC5q  1 4.300000e-01    3.160000e+00
  N2dh  SC4q  1 4.300000e-01    3.160000e+00
  N2dh  SC3q  1 4.300000e-01    3.160000e+00
  N2dh  SC2q  1 4.300000e-01    2.920000e+00
  N2dh  SC1q  1 4.300000e-01    2.770000e+00
  N2dh  SX4q  1 4.300000e-01    3.590000e+00
  N2dh  SX3q  1 4.300000e-01    3.380000e+00
  N2dh  SX2q  1 4.300000e-01    3.160000e+00
  N2dh  SX1q  1 4.300000e-01    3.160000e+00
   P6q SN1dh  1 4.300000e-01    2.770000e+00
   P5q SN1dh  1 4.300000e-01    2.770000e+00
   P4q SN1dh  1 4.300000e-01    2.920000e+00
   P3q SN1dh  1 4.300000e-01    3.160000e+00
   P2q SN1dh  1 4.300000e-01    3.380000e+00
   P1q SN1dh  1 4.300000e-01    3.380000e+00
   N6q SN1dh  1 4.300000e-01    3.380000e+00
   N5q SN1dh  1 4.300000e-01    3.380000e+00
   N4q SN1dh  1 4.300000e-01    3.380000e+00
   N3q SN1dh  1 4.300000e-01    3.380000e+00
   N2q SN1dh  1 4.300000e-01    3.380000e+00
   N1q SN1dh  1 4.300000e-01    3.590000e+00
  N1dh  SC6q  1 4.300000e-01    3.590000e+00
  N1dh  SC5q  1 4.300000e-01    3.380000e+00
  N1dh  SC4q  1 4.300000e-01    3.380000e+00
  N1dh  SC3q  1 4.300000e-01    3.160000e+00
  N1dh  SC2q  1 4.300000e-01    2.920000e+00
  N1dh  SC1q  1 4.300000e-01    2.770000e+00
  N1dh  SX4q  1 4.300000e-01    3.380000e+00
  N1dh  SX3q  1 4.300000e-01    3.380000e+00
  N1dh  SX2q  1 4.300000e-01    3.160000e+00
  N1dh  SX1q  1 4.300000e-01    3.160000e+00
   P6q SP6ah  1 4.300000e-01    5.210000e+00
  P6ah  SP5q  1 4.300000e-01    4.920000e+00
  P6ah  SP4q  1 4.300000e-01    4.680000e+00
  P6ah  SP3q  1 4.300000e-01    4.400000e+00
  P6ah  SP2q  1 4.300000e-01    4.400000e+00
  P6ah  SP1q  1 4.300000e-01    4.170000e+00
  P6ah  SN6q  1 4.300000e-01    3.970000e+00
  P6ah  SN5q  1 4.300000e-01    3.590000e+00
  P6ah  SN4q  1 4.300000e-01    3.380000e+00
  P6ah  SN3q  1 4.300000e-01    3.160000e+00
  P6ah  SN2q  1 4.300000e-01    2.920000e+00
  P6ah  SN1q  1 4.300000e-01    2.770000e+00
  P6ah  SC6q  1 4.300000e-01    2.770000e+00
  P6ah  SC5q  1 4.300000e-01    2.530000e+00
  P6ah  SC4q  1 4.300000e-01    2.320000e+00
  P6ah  SC3q  1 4.300000e-01    2.160000e+00
  P6ah  SC2q  1 4.300000e-01    2.160000e+00
  P6ah  SC1q  1 4.300000e-01    1.730000e+00
  P6ah  SX4q  1 4.300000e-01    2.920000e+00
  P6ah  SX3q  1 4.300000e-01    2.920000e+00
  P6ah  SX2q  1 4.300000e-01    2.770000e+00
  P6ah  SX1q  1 4.300000e-01    2.530000e+00
   P6q SP5ah  1 4.300000e-01    4.920000e+00
   P5q SP5ah  1 4.300000e-01    4.680000e+00
  P5ah  SP4q  1 4.300000e-01    4.400000e+00
  P5ah  SP3q  1 4.300000e-01    4.170000e+00
  P5ah  SP2q  1 4.300000e-01    4.170000e+00
  P5ah  SP1q  1 4.300000e-01    3.970000e+00
  P5ah  SN6q  1 4.300000e-01    3.770000e+00
  P5ah  SN5q  1 4.300000e-01    3.590000e+00
  P5ah  SN4q  1 4.300000e-01    3.590000e+00
  P5ah  SN3q  1 4.300000e-01    3.160000e+00
  P5ah  SN2q  1 4.300000e-01    2.920000e+00
  P5ah  SN1q  1 4.300000e-01    2.770000e+00
  P5ah  SC6q  1 4.300000e-01    2.770000e+00
  P5ah  SC5q  1 4.300000e-01    2.770000e+00
  P5ah  SC4q  1 4.300000e-01    2.530000e+00
  P5ah  SC3q  1 4.300000e-01    2.320000e+00
  P5ah  SC2q  1 4.300000e-01    2.320000e+00
  P5ah  SC1q  1 4.300000e-01    2.160000e+00
  P5ah  SX4q  1 4.300000e-01    3.160000e+00
  P5ah  SX3q  1 4.300000e-01    2.920000e+00
  P5ah  SX2q  1 4.300000e-01    2.920000e+00
  P5ah  SX1q  1 4.300000e-01    2.530000e+00
   P6q SP4ah  1 4.300000e-01    4.680000e+00
   P5q SP4ah  1 4.300000e-01    4.400000e+00
   P4q SP4ah  1 4.300000e-01    4.400000e+00
  P4ah  SP3q  1 4.300000e-01    4.170000e+00
  P4ah  SP2q  1 4.300000e-01    4.170000e+00
  P4ah  SP1q  1 4.300000e-01    3.970000e+00
  P4ah  SN6q  1 4.300000e-01    3.770000e+00
  P4ah  SN5q  1 4.300000e-01    3.590000e+00
  P4ah  SN4q  1 4.300000e-01    3.590000e+00
  P4ah  SN3q  1 4.300000e-01    3.380000e+00
  P4ah  SN2q  1 4.300000e-01    3.160000e+00
  P4ah  SN1q  1 4.300000e-01    2.920000e+00
  P4ah  SC6q  1 4.300000e-01    2.920000e+00
  P4ah  SC5q  1 4.300000e-01    2.770000e+00
  P4ah  SC4q  1 4.300000e-01    2.530000e+00
  P4ah  SC3q  1 4.300000e-01    2.320000e+00
  P4ah  SC2q  1 4.300000e-01    2.320000e+00
  P4ah  SC1q  1 4.300000e-01    2.160000e+00
  P4ah  SX4q  1 4.300000e-01    3.160000e+00
  P4ah  SX3q  1 4.300000e-01    2.920000e+00
  P4ah  SX2q  1 4.300000e-01    2.920000e+00
  P4ah  SX1q  1 4.300000e-01    2.770000e+00
   P6q SP3ah  1 4.300000e-01    4.400000e+00
   P5q SP3ah  1 4.300000e-01    4.170000e+00
   P4q SP3ah  1 4.300000e-01    4.170000e+00
   P3q SP3ah  1 4.300000e-01    4.170000e+00
  P3ah  SP2q  1 4.300000e-01    4.170000e+00
  P3ah  SP1q  1 4.300000e-01    3.970000e+00
  P3ah  SN6q  1 4.300000e-01    3.770000e+00
  P3ah  SN5q  1 4.300000e-01    3.590000e+00
  P3ah  SN4q  1 4.300000e-01    3.590000e+00
  P3ah  SN3q  1 4.300000e-01    3.380000e+00
  P3ah  SN2q  1 4.300000e-01    3.380000e+00
  P3ah  SN1q  1 4.300000e-01    3.160000e+00
  P3ah  SC6q  1 4.300000e-01    3.160000e+00
  P3ah  SC5q  1 4.300000e-01    2.920000e+00
  P3ah  SC4q  1 4.300000e-01    2.770000e+00
  P3ah  SC3q  1 4.300000e-01    2.320000e+00
  P3ah  SC2q  1 4.300000e-01    2.320000e+00
  P3ah  SC1q  1 4.300000e-01    2.160000e+00
  P3ah  SX4q  1 4.300000e-01    3.160000e+00
  P3ah  SX3q  1 4.300000e-01    3.160000e+00
  P3ah  SX2q  1 4.300000e-01    2.920000e+00
  P3ah  SX1q  1 4.300000e-01    2.770000e+00
   P6q SP2ah  1 4.300000e-01    4.400000e+00
   P5q SP2ah  1 4.300000e-01    4.170000e+00
   P4q SP2ah  1 4.300000e-01    4.170000e+00
   P3q SP2ah  1 4.300000e-01    4.170000e+00
   P2q SP2ah  1 4.300000e-01    4.170000e+00
  P2ah  SP1q  1 4.300000e-01    3.970000e+00
  P2ah  SN6q  1 4.300000e-01    3.970000e+00
  P2ah  SN5q  1 4.300000e-01    3.770000e+00
  P2ah  SN4q  1 4.300000e-01    3.590000e+00
  P2ah  SN3q  1 4.300000e-01    3.380000e+00
  P2ah  SN2q  1 4.300000e-01    3.380000e+00
  P2ah  SN1q  1 4.300000e-01    3.380000e+00
  P2ah  SC6q  1 4.300000e-01    3.160000e+00
  P2ah  SC5q  1 4.300000e-01    2.920000e+00
  P2ah  SC4q  1 4.300000e-01    2.770000e+00
  P2ah  SC3q  1 4.300000e-01    2.530000e+00
  P2ah  SC2q  1 4.300000e-01    2.530000e+00
  P2ah  SC1q  1 4.300000e-01    2.320000e+00
  P2ah  SX4q  1 4.300000e-01    3.160000e+00
  P2ah  SX3q  1 4.300000e-01    3.160000e+00
  P2ah  SX2q  1 4.300000e-01    2.920000e+00
  P2ah  SX1q  1 4.300000e-01    2.770000e+00
   P6q SP1ah  1 4.300000e-01    4.170000e+00
   P5q SP1ah  1 4.300000e-01    3.970000e+00
   P4q SP1ah  1 4.300000e-01    3.970000e+00
   P3q SP1ah  1 4.300000e-01    3.970000e+00
   P2q SP1ah  1 4.300000e-01    3.970000e+00
   P1q SP1ah  1 4.300000e-01    3.970000e+00
  P1ah  SN6q  1 4.300000e-01    3.970000e+00
  P1ah  SN5q  1 4.300000e-01    3.770000e+00
  P1ah  SN4q  1 4.300000e-01    3.770000e+00
  P1ah  SN3q  1 4.300000e-01    3.380000e+00
  P1ah  SN2q  1 4.300000e-01    3.380000e+00
  P1ah  SN1q  1 4.300000e-01    3.380000e+00
  P1ah  SC6q  1 4.300000e-01    3.160000e+00
  P1ah  SC5q  1 4.300000e-01    2.920000e+00
  P1ah  SC4q  1 4.300000e-01    2.770000e+00
  P1ah  SC3q  1 4.300000e-01    2.530000e+00
  P1ah  SC2q  1 4.300000e-01    2.530000e+00
  P1ah  SC1q  1 4.300000e-01    2.320000e+00
  P1ah  SX4q  1 4.300000e-01    3.160000e+00
  P1ah  SX3q  1 4.300000e-01    3.160000e+00
  P1ah  SX2q  1 4.300000e-01    2.920000e+00
  P1ah  SX1q  1 4.300000e-01    2.770000e+00
   P6q SN6ah  1 4.300000e-01    3.970000e+00
   P5q SN6ah  1 4.300000e-01    3.770000e+00
   P4q SN6ah  1 4.300000e-01    3.770000e+00
   P3q SN6ah  1 4.300000e-01    3.770000e+00
   P2q SN6ah  1 4.300000e-01    3.970000e+00
   P1q SN6ah  1 4.300000e-01    3.970000e+00
   N6q SN6ah  1 4.300000e-01    3.970000e+00
  N6ah  SN5q  1 4.300000e-01    3.970000e+00
  N6ah  SN4q  1 4.300000e-01    3.970000e+00
  N6ah  SN3q  1 4.300000e-01    3.590000e+00
  N6ah  SN2q  1 4.300000e-01    3.380000e+00
  N6ah  SN1q  1 4.300000e-01    3.380000e+00
  N6ah  SC6q  1 4.300000e-01    3.380000e+00
  N6ah  SC5q  1 4.300000e-01    3.160000e+00
  N6ah  SC4q  1 4.300000e-01    2.920000e+00
  N6ah  SC3q  1 4.300000e-01    2.770000e+00
  N6ah  SC2q  1 4.300000e-01    2.770000e+00
  N6ah  SC1q  1 4.300000e-01    2.530000e+00
  N6ah  SX4q  1 4.300000e-01    3.380000e+00
  N6ah  SX3q  1 4.300000e-01    3.160000e+00
  N6ah  SX2q  1 4.300000e-01    2.920000e+00
  N6ah  SX1q  1 4.300000e-01    2.770000e+00
   P6q SN5ah  1 4.300000e-01    3.590000e+00
   P5q SN5ah  1 4.300000e-01    3.590000e+00
   P4q SN5ah  1 4.300000e-01    3.590000e+00
   P3q SN5ah  1 4.300000e-01    3.590000e+00
   P2q SN5ah  1 4.300000e-01    3.770000e+00
   P1q SN5ah  1 4.300000e-01    3.770000e+00
   N6q SN5ah  1 4.300000e-01    3.970000e+00
   N5q SN5ah  1 4.300000e-01    3.770000e+00
  N5ah  SN4q  1 4.300000e-01    3.770000e+00
  N5ah  SN3q  1 4.300000e-01    3.590000e+00
  N5ah  SN2q  1 4.300000e-01    3.590000e+00
  N5ah  SN1q  1 4.300000e-01    3.380000e+00
  N5ah  SC6q  1 4.300000e-01    3.380000e+00
  N5ah  SC5q  1 4.300000e-01    3.160000e+00
  N5ah  SC4q  1 4.300000e-01    2.920000e+00
  N5ah  SC3q  1 4.300000e-01    2.920000e+00
  N5ah  SC2q  1 4.300000e-01    2.770000e+00
  N5ah  SC1q  1 4.300000e-01    2.530000e+00
  N5ah  SX4q  1 4.300000e-01    3.590000e+00
  N5ah  SX3q  1 4.300000e-01    3.380000e+00
  N5ah  SX2q  1 4.300000e-01    3.160000e+00
  N5ah  SX1q  1 4.300000e-01    2.920000e+00
   P6q SN4ah  1 4.300000e-01    3.380000e+00
   P5q SN4ah  1 4.300000e-01    3.590000e+00
   P4q SN4ah  1 4.300000e-01    3.590000e+00
   P3q SN4ah  1 4.300000e-01    3.590000e+00
   P2q SN4ah  1 4.300000e-01    3.590000e+00
   P1q SN4ah  1 4.300000e-01    3.770000e+00
   N6q SN4ah  1 4.300000e-01    3.970000e+00
   N5q SN4ah  1 4.300000e-01    3.770000e+00
   N4q SN4ah  1 4.300000e-01    3.770000e+00
  N4ah  SN3q  1 4.300000e-01    3.590000e+00
  N4ah  SN2q  1 4.300000e-01    3.590000e+00
  N4ah  SN1q  1 4.300000e-01    3.380000e+00
  N4ah  SC6q  1 4.300000e-01    3.380000e+00
  N4ah  SC5q  1 4.300000e-01    3.160000e+00
  N4ah  SC4q  1 4.300000e-01    3.160000e+00
  N4ah  SC3q  1 4.300000e-01    2.920000e+00
  N4ah  SC2q  1 4.300000e-01    2.770000e+00
  N4ah  SC1q  1 4.300000e-01    2.530000e+00
  N4ah  SX4q  1 4.300000e-01    3.770000e+00
  N4ah  SX3q  1 4.300000e-01    3.590000e+00
  N4ah  SX2q  1 4.300000e-01    3.160000e+00
  N4ah  SX1q  1 4.300000e-01    2.920000e+00
   P6q SN3ah  1 4.300000e-01    3.160000e+00
   P5q SN3ah  1 4.300000e-01    3.160000e+00
   P4q SN3ah  1 4.300000e-01    3.380000e+00
   P3q SN3ah  1 4.300000e-01    3.380000e+00
   P2q SN3ah  1 4.300000e-01    3.380000e+00
   P1q SN3ah  1 4.300000e-01    3.380000e+00
   N6q SN3ah  1 4.300000e-01    3.590000e+00
   N5q SN3ah  1 4.300000e-01    3.590000e+00
   N4q SN3ah  1 4.300000e-01    3.590000e+00
   N3q SN3ah  1 4.300000e-01    3.590000e+00
  N3ah  SN2q  1 4.300000e-01    3.590000e+00
  N3ah  SN1q  1 4.300000e-01    3.380000e+00
  N3ah  SC6q  1 4.300000e-01    3.380000e+00
  N3ah  SC5q  1 4.300000e-01    3.160000e+00
  N3ah  SC4q  1 4.300000e-01    3.160000e+00
  N3ah  SC3q  1 4.300000e-01    2.920000e+00
  N3ah  SC2q  1 4.300000e-01    2.920000e+00
  N3ah  SC1q  1 4.300000e-01    2.770000e+00
  N3ah  SX4q  1 4.300000e-01    3.590000e+00
  N3ah  SX3q  1 4.300000e-01    3.380000e+00
  N3ah  SX2q  1 4.300000e-01    3.160000e+00
  N3ah  SX1q  1 4.300000e-01    3.160000e+00
   P6q SN2ah  1 4.300000e-01    2.920000e+00
   P5q SN2ah  1 4.300000e-01    2.920000e+00
   P4q SN2ah  1 4.300000e-01    3.160000e+00
   P3q SN2ah  1 4.300000e-01    3.380000e+00
   P2q SN2ah  1 4.300000e-01    3.380000e+00
   P1q SN2ah  1 4.300000e-01    3.380000e+00
   N6q SN2ah  1 4.300000e-01    3.380000e+00
   N5q SN2ah  1 4.300000e-01    3.590000e+00
   N4q SN2ah  1 4.300000e-01    3.590000e+00
   N3q SN2ah  1 4.300000e-01    3.590000e+00
   N2q SN2ah  1 4.300000e-01    3.590000e+00
  N2ah  SN1q  1 4.300000e-01    3.380000e+00
  N2ah  SC6q  1 4.300000e-01    3.380000e+00
  N2ah  SC5q  1 4.300000e-01    3.160000e+00
  N2ah  SC4q  1 4.300000e-01    3.160000e+00
  N2ah  SC3q  1 4.300000e-01    3.160000e+00
  N2ah  SC2q  1 4.300000e-01    2.920000e+00
  N2ah  SC1q  1 4.300000e-01    2.770000e+00
  N2ah  SX4q  1 4.300000e-01    3.590000e+00
  N2ah  SX3q  1 4.300000e-01    3.380000e+00
  N2ah  SX2q  1 4.300000e-01    3.160000e+00
  N2ah  SX1q  1 4.300000e-01    3.160000e+00
   P6q SN1ah  1 4.300000e-01    2.770000e+00
   P5q SN1ah  1 4.300000e-01    2.770000e+00
   P4q SN1ah  1 4.300000e-01    2.920000e+00
   P3q SN1ah  1 4.300000e-01    3.160000e+00
   P2q SN1ah  1 4.300000e-01    3.380000e+00
   P1q SN1ah  1 4.300000e-01    3.380000e+00
   N6q SN1ah  1 4.300000e-01    3.380000e+00
   N5q SN1ah  1 4.300000e-01    3.380000e+00
   N4q SN1ah  1 4.300000e-01    3.380000e+00
   N3q SN1ah  1 4.300000e-01    3.380000e+00
   N2q SN1ah  1 4.300000e-01    3.380000e+00
   N1q SN1ah  1 4.300000e-01    3.590000e+00
  N1ah  SC6q  1 4.300000e-01    3.590000e+00
  N1ah  SC5q  1 4.300000e-01    3.380000e+00
  N1ah  SC4q  1 4.300000e-01    3.380000e+00
  N1ah  SC3q  1 4.300000e-01    3.160000e+00
  N1ah  SC2q  1 4.300000e-01    2.920000e+00
  N1ah  SC1q  1 4.300000e-01    2.770000e+00
  N1ah  SX4q  1 4.300000e-01    3.380000e+00
  N1ah  SX3q  1 4.300000e-01    3.380000e+00
  N1ah  SX2q  1 4.300000e-01    3.160000e+00
  N1ah  SX1q  1 4.300000e-01    3.160000e+00
   C6v SC6vh  1 4.300000e-01    2.920000e+00
  C6vh  SC5v  1 4.300000e-01    2.770000e+00
  C6vh  SC4v  1 4.300000e-01    2.770000e+00
  C6vh  SC3v  1 4.300000e-01    2.530000e+00
  C6vh  SC2v  1 4.300000e-01    2.320000e+00
  C6vh  SC1v  1 4.300000e-01    2.160000e+00
  C6vh  SX4v  1 4.300000e-01    2.770000e+00
  C6vh  SX3v  1 4.300000e-01    2.770000e+00
  C6vh  SX2v  1 4.300000e-01    2.770000e+00
  C6vh  SX1v  1 4.300000e-01    2.770000e+00
   P6q SC6vh  1 4.300000e-01    2.920000e+00
   P5q SC6vh  1 4.300000e-01    2.920000e+00
   P4q SC6vh  1 4.300000e-01    3.160000e+00
   P3q SC6vh  1 4.300000e-01    3.380000e+00
   P2q SC6vh  1 4.300000e-01    3.380000e+00
   P1q SC6vh  1 4.300000e-01    3.380000e+00
   N6q SC6vh  1 4.300000e-01    3.590000e+00
   N5q SC6vh  1 4.300000e-01    3.590000e+00
   N4q SC6vh  1 4.300000e-01    3.590000e+00
   N3q SC6vh  1 4.300000e-01    3.590000e+00
   N2q SC6vh  1 4.300000e-01    3.590000e+00
   N1q SC6vh  1 4.300000e-01    3.770000e+00
   C6q SC6vh  1 4.300000e-01    3.770000e+00
  C6vh  SC5q  1 4.300000e-01    3.590000e+00
  C6vh  SC4q  1 4.300000e-01    3.590000e+00
  C6vh  SC3q  1 4.300000e-01    3.380000e+00
  C6vh  SC2q  1 4.300000e-01    3.160000e+00
  C6vh  SC1q  1 4.300000e-01    2.920000e+00
  C6vh  SX4q  1 4.300000e-01    3.590000e+00
  C6vh  SX3q  1 4.300000e-01    3.590000e+00
  C6vh  SX2q  1 4.300000e-01    3.590000e+00
  C6vh  SX1q  1 4.300000e-01    3.590000e+00
  C6vh SC6vq  1 4.300000e-01    3.380000e+00
  C6vh SX1vq  1 4.300000e-01    3.160000e+00
  C6vh SX2vq  1 4.300000e-01    3.160000e+00
  C6vh SX3vq  1 4.300000e-01    3.160000e+00
  C6vh SX4vq  1 4.300000e-01    3.160000e+00
  C6vh SC1vq  1 4.300000e-01    2.530000e+00
  C6vh SC2vq  1 4.300000e-01    2.770000e+00
  C6vh SC3vq  1 4.300000e-01    2.920000e+00
  C6vh SC4vq  1 4.300000e-01    3.160000e+00
  C6vh SC5vq  1 4.300000e-01    3.160000e+00
   C5v SC5vh  1 4.300000e-01    2.770000e+00
  C5vh  SC4v  1 4.300000e-01    2.770000e+00
  C5vh  SC3v  1 4.300000e-01    2.530000e+00
  C5vh  SC2v  1 4.300000e-01    2.320000e+00
  C5vh  SC1v  1 4.300000e-01    2.320000e+00
  C5vh  SX4v  1 4.300000e-01    2.530000e+00
  C5vh  SX3v  1 4.300000e-01    2.530000e+00
  C5vh  SX2v  1 4.300000e-01    2.530000e+00
  C5vh  SX1v  1 4.300000e-01    2.770000e+00
   P6q SC5vh  1 4.300000e-01    2.770000e+00
   P5q SC5vh  1 4.300000e-01    2.920000e+00
   P4q SC5vh  1 4.300000e-01    2.920000e+00
   P3q SC5vh  1 4.300000e-01    3.160000e+00
   P2q SC5vh  1 4.300000e-01    3.160000e+00
   P1q SC5vh  1 4.300000e-01    3.160000e+00
   N6q SC5vh  1 4.300000e-01    3.380000e+00
   N5q SC5vh  1 4.300000e-01    3.380000e+00
   N4q SC5vh  1 4.300000e-01    3.380000e+00
   N3q SC5vh  1 4.300000e-01    3.380000e+00
   N2q SC5vh  1 4.300000e-01    3.380000e+00
   N1q SC5vh  1 4.300000e-01    3.590000e+00
   C6q SC5vh  1 4.300000e-01    3.590000e+00
   C5q SC5vh  1 4.300000e-01    3.590000e+00
  C5vh  SC4q  1 4.300000e-01    3.590000e+00
  C5vh  SC3q  1 4.300000e-01    3.380000e+00
  C5vh  SC2q  1 4.300000e-01    3.160000e+00
  C5vh  SC1q  1 4.300000e-01    3.160000e+00
  C5vh  SX4q  1 4.300000e-01    3.380000e+00
  C5vh  SX3q  1 4.300000e-01    3.380000e+00
  C5vh  SX2q  1 4.300000e-01    3.380000e+00
  C5vh  SX1q  1 4.300000e-01    3.590000e+00
  C6vq SC5vh  1 4.300000e-01    3.160000e+00
  C5vh SC5vq  1 4.300000e-01    3.160000e+00
  C5vh SX1vq  1 4.300000e-01    3.160000e+00
  C5vh SX2vq  1 4.300000e-01    2.920000e+00
  C5vh SX3vq  1 4.300000e-01    2.920000e+00
  C5vh SX4vq  1 4.300000e-01    2.920000e+00
  C5vh SC1vq  1 4.300000e-01    2.770000e+00
  C5vh SC2vq  1 4.300000e-01    2.770000e+00
  C5vh SC3vq  1 4.300000e-01    2.920000e+00
  C5vh SC4vq  1 4.300000e-01    3.160000e+00
   C4v SC4vh  1 4.300000e-01    2.770000e+00
  C4vh  SC3v  1 4.300000e-01    2.770000e+00
  C4vh  SC2v  1 4.300000e-01    2.530000e+00
  C4vh  SC1v  1 4.300000e-01    2.320000e+00
  C4vh  SX4v  1 4.300000e-01    2.530000e+00
  C4vh  SX3v  1 4.300000e-01    2.530000e+00
  C4vh  SX2v  1 4.300000e-01    2.530000e+00
  C4vh  SX1v  1 4.300000e-01    2.770000e+00
   P6q SC4vh  1 4.300000e-01    2.530000e+00
   P5q SC4vh  1 4.300000e-01    2.770000e+00
   P4q SC4vh  1 4.300000e-01    2.770000e+00
   P3q SC4vh  1 4.300000e-01    2.920000e+00
   P2q SC4vh  1 4.300000e-01    2.920000e+00
   P1q SC4vh  1 4.300000e-01    2.920000e+00
   N6q SC4vh  1 4.300000e-01    3.160000e+00
   N5q SC4vh  1 4.300000e-01    3.160000e+00
   N4q SC4vh  1 4.300000e-01    3.380000e+00
   N3q SC4vh  1 4.300000e-01    3.380000e+00
   N2q SC4vh  1 4.300000e-01    3.380000e+00
   N1q SC4vh  1 4.300000e-01    3.590000e+00
   C6q SC4vh  1 4.300000e-01    3.590000e+00
   C5q SC4vh  1 4.300000e-01    3.590000e+00
   C4q SC4vh  1 4.300000e-01    3.590000e+00
  C4vh  SC3q  1 4.300000e-01    3.590000e+00
  C4vh  SC2q  1 4.300000e-01    3.380000e+00
  C4vh  SC1q  1 4.300000e-01    3.160000e+00
  C4vh  SX4q  1 4.300000e-01    3.380000e+00
  C4vh  SX3q  1 4.300000e-01    3.380000e+00
  C4vh  SX2q  1 4.300000e-01    3.380000e+00
  C4vh  SX1q  1 4.300000e-01    3.590000e+00
  C6vq SC4vh  1 4.300000e-01    3.160000e+00
  C5vq SC4vh  1 4.300000e-01    3.160000e+00
  C4vh SC4vq  1 4.300000e-01    3.160000e+00
  C4vh SX1vq  1 4.300000e-01    3.160000e+00
  C4vh SX2vq  1 4.300000e-01    2.920000e+00
  C4vh SX3vq  1 4.300000e-01    2.920000e+00
  C4vh SX4vq  1 4.300000e-01    2.920000e+00
  C4vh SC1vq  1 4.300000e-01    2.770000e+00
  C4vh SC2vq  1 4.300000e-01    2.920000e+00
  C4vh SC3vq  1 4.300000e-01    3.160000e+00
   C3v SC3vh  1 4.300000e-01    2.770000e+00
  C3vh  SC2v  1 4.300000e-01    2.770000e+00
  C3vh  SC1v  1 4.300000e-01    2.770000e+00
  C3vh  SX4v  1 4.300000e-01    2.530000e+00
  C3vh  SX3v  1 4.300000e-01    2.530000e+00
  C3vh  SX2v  1 4.300000e-01    2.530000e+00
  C3vh  SX1v  1 4.300000e-01    2.770000e+00
   P6q SC3vh  1 4.300000e-01    2.320000e+00
   P5q SC3vh  1 4.300000e-01    2.530000e+00
   P4q SC3vh  1 4.300000e-01    2.530000e+00
   P3q SC3vh  1 4.300000e-01    2.530000e+00
   P2q SC3vh  1 4.300000e-01    2.770000e+00
   P1q SC3vh  1 4.300000e-01    2.770000e+00
   N6q SC3vh  1 4.300000e-01    2.920000e+00
   N5q SC3vh  1 4.300000e-01    3.160000e+00
   N4q SC3vh  1 4.300000e-01    3.160000e+00
   N3q SC3vh  1 4.300000e-01    3.160000e+00
   N2q SC3vh  1 4.300000e-01    3.380000e+00
   N1q SC3vh  1 4.300000e-01    3.380000e+00
   C6q SC3vh  1 4.300000e-01    3.380000e+00
   C5q SC3vh  1 4.300000e-01    3.380000e+00
   C4q SC3vh  1 4.300000e-01    3.590000e+00
   C3q SC3vh  1 4.300000e-01    3.590000e+00
  C3vh  SC2q  1 4.300000e-01    3.590000e+00
  C3vh  SC1q  1 4.300000e-01    3.590000e+00
  C3vh  SX4q  1 4.300000e-01    3.380000e+00
  C3vh  SX3q  1 4.300000e-01    3.380000e+00
  C3vh  SX2q  1 4.300000e-01    3.380000e+00
  C3vh  SX1q  1 4.300000e-01    3.590000e+00
  C6vq SC3vh  1 4.300000e-01    2.920000e+00
  C5vq SC3vh  1 4.300000e-01    2.920000e+00
  C4vq SC3vh  1 4.300000e-01    3.160000e+00
  C3vh SC3vq  1 4.300000e-01    3.160000e+00
  C3vh SX1vq  1 4.300000e-01    3.160000e+00
  C3vh SX2vq  1 4.300000e-01    2.920000e+00
  C3vh SX3vq  1 4.300000e-01    2.920000e+00
  C3vh SX4vq  1 4.300000e-01    2.920000e+00
  C3vh SC1vq  1 4.300000e-01    3.160000e+00
  C3vh SC2vq  1 4.300000e-01    3.160000e+00
   C2v SC2vh  1 4.300000e-01    2.770000e+00
  C2vh  SC1v  1 4.300000e-01    2.920000e+00
  C2vh  SX4v  1 4.300000e-01    2.160000e+00
  C2vh  SX3v  1 4.300000e-01    2.530000e+00
  C2vh  SX2v  1 4.300000e-01    2.530000e+00
  C2vh  SX1v  1 4.300000e-01    2.530000e+00
   P6q SC2vh  1 4.300000e-01    2.320000e+00
   P5q SC2vh  1 4.300000e-01    2.530000e+00
   P4q SC2vh  1 4.300000e-01    2.530000e+00
   P3q SC2vh  1 4.300000e-01    2.530000e+00
   P2q SC2vh  1 4.300000e-01    2.770000e+00
   P1q SC2vh  1 4.300000e-01    2.770000e+00
   N6q SC2vh  1 4.300000e-01    2.920000e+00
   N5q SC2vh  1 4.300000e-01    2.920000e+00
   N4q SC2vh  1 4.300000e-01    2.920000e+00
   N3q SC2vh  1 4.300000e-01    3.160000e+00
   N2q SC2vh  1 4.300000e-01    3.160000e+00
   N1q SC2vh  1 4.300000e-01    3.160000e+00
   C6q SC2vh  1 4.300000e-01    3.160000e+00
   C5q SC2vh  1 4.300000e-01    3.160000e+00
   C4q SC2vh  1 4.300000e-01    3.380000e+00
   C3q SC2vh  1 4.300000e-01    3.590000e+00
   C2q SC2vh  1 4.300000e-01    3.590000e+00
  C2vh  SC1q  1 4.300000e-01    3.770000e+00
  C2vh  SX4q  1 4.300000e-01    2.920000e+00
  C2vh  SX3q  1 4.300000e-01    3.380000e+00
  C2vh  SX2q  1 4.300000e-01    3.380000e+00
  C2vh  SX1q  1 4.300000e-01    3.380000e+00
  C6vq SC2vh  1 4.300000e-01    2.770000e+00
  C5vq SC2vh  1 4.300000e-01    2.770000e+00
  C4vq SC2vh  1 4.300000e-01    2.920000e+00
  C3vq SC2vh  1 4.300000e-01    3.160000e+00
  C2vh SC2vq  1 4.300000e-01    3.160000e+00
  C2vh SX1vq  1 4.300000e-01    2.920000e+00
  C2vh SX2vq  1 4.300000e-01    2.920000e+00
  C2vh SX3vq  1 4.300000e-01    2.920000e+00
  C2vh SX4vq  1 4.300000e-01    2.530000e+00
  C2vh SC1vq  1 4.300000e-01    3.380000e+00
   C1v SC1vh  1 4.300000e-01    2.770000e+00
  C1vh  SX4v  1 4.300000e-01    2.160000e+00
  C1vh  SX3v  1 4.300000e-01    2.530000e+00
  C1vh  SX2v  1 4.300000e-01    2.530000e+00
  C1vh  SX1v  1 4.300000e-01    2.530000e+00
   P6q SC1vh  1 4.300000e-01    1.930000e+00
   P5q SC1vh  1 4.300000e-01    2.320000e+00
   P4q SC1vh  1 4.300000e-01    2.320000e+00
   P3q SC1vh  1 4.300000e-01    2.320000e+00
   P2q SC1vh  1 4.300000e-01    2.530000e+00
   P1q SC1vh  1 4.300000e-01    2.530000e+00
   N6q SC1vh  1 4.300000e-01    2.770000e+00
   N5q SC1vh  1 4.300000e-01    2.770000e+00
   N4q SC1vh  1 4.300000e-01    2.770000e+00
   N3q SC1vh  1 4.300000e-01    2.920000e+00
   N2q SC1vh  1 4.300000e-01    2.920000e+00
   N1q SC1vh  1 4.300000e-01    2.920000e+00
   C6q SC1vh  1 4.300000e-01    2.920000e+00
   C5q SC1vh  1 4.300000e-01    3.160000e+00
   C4q SC1vh  1 4.300000e-01    3.160000e+00
   C3q SC1vh  1 4.300000e-01    3.590000e+00
   C2q SC1vh  1 4.300000e-01    3.770000e+00
   C1q SC1vh  1 4.300000e-01    3.590000e+00
  C1vh  SX4q  1 4.300000e-01    2.920000e+00
  C1vh  SX3q  1 4.300000e-01    3.380000e+00
  C1vh  SX2q  1 4.300000e-01    3.380000e+00
  C1vh  SX1q  1 4.300000e-01    3.380000e+00
  C6vq SC1vh  1 4.300000e-01    2.530000e+00
  C5vq SC1vh  1 4.300000e-01    2.770000e+00
  C4vq SC1vh  1 4.300000e-01    2.770000e+00
  C3vq SC1vh  1 4.300000e-01    3.160000e+00
  C2vq SC1vh  1 4.300000e-01    3.380000e+00
  C1vh SC1vq  1 4.300000e-01    3.160000e+00
  C1vh SX1vq  1 4.300000e-01    2.920000e+00
  C1vh SX2vq  1 4.300000e-01    2.920000e+00
  C1vh SX3vq  1 4.300000e-01    2.920000e+00
  C1vh SX4vq  1 4.300000e-01    2.530000e+00
   X4v SX4vh  1 4.300000e-01    2.770000e+00
  X4vh  SX3v  1 4.300000e-01    2.770000e+00
  X4vh  SX2v  1 4.300000e-01    2.770000e+00
  X4vh  SX1v  1 4.300000e-01    2.770000e+00
   P6q SX4vh  1 4.300000e-01    3.160000e+00
   P5q SX4vh  1 4.300000e-01    3.380000e+00
   P4q SX4vh  1 4.300000e-01    3.380000e+00
   P3q SX4vh  1 4.300000e-01    3.380000e+00
   P2q SX4vh  1 4.300000e-01    3.380000e+00
   P1q SX4vh  1 4.300000e-01    3.380000e+00
   N6q SX4vh  1 4.300000e-01    3.590000e+00
   N5q SX4vh  1 4.300000e-01    3.770000e+00
   N4q SX4vh  1 4.300000e-01    3.970000e+00
   N3q SX4vh  1 4.300000e-01    3.770000e+00
   N2q SX4vh  1 4.300000e-01    3.770000e+00
   N1q SX4vh  1 4.300000e-01    3.590000e+00
   C6q SX4vh  1 4.300000e-01    3.590000e+00
   C5q SX4vh  1 4.300000e-01    3.380000e+00
   C4q SX4vh  1 4.300000e-01    3.380000e+00
   C3q SX4vh  1 4.300000e-01    3.380000e+00
   C2q SX4vh  1 4.300000e-01    2.920000e+00
   C1q SX4vh  1 4.300000e-01    2.920000e+00
   X4q SX4vh  1 4.300000e-01    3.590000e+00
  X4vh  SX3q  1 4.300000e-01    3.590000e+00
  X4vh  SX2q  1 4.300000e-01    3.590000e+00
  X4vh  SX1q  1 4.300000e-01    3.590000e+00
  C6vq SX4vh  1 4.300000e-01    3.160000e+00
  C5vq SX4vh  1 4.300000e-01    2.920000e+00
  C4vq SX4vh  1 4.300000e-01    2.920000e+00
  C3vq SX4vh  1 4.300000e-01    2.920000e+00
  C2vq SX4vh  1 4.300000e-01    2.530000e+00
  C1vq SX4vh  1 4.300000e-01    2.530000e+00
  X4vh SX4vq  1 4.300000e-01    3.160000e+00
  X4vh SX1vq  1 4.300000e-01    3.160000e+00
  X4vh SX2vq  1 4.300000e-01    3.160000e+00
  X4vh SX3vq  1 4.300000e-01    3.160000e+00
   X3v SX3vh  1 4.300000e-01    2.770000e+00
  X3vh  SX2v  1 4.300000e-01    2.920000e+00
  X3vh  SX1v  1 4.300000e-01    2.920000e+00
   P6q SX3vh  1 4.300000e-01    3.160000e+00
   P5q SX3vh  1 4.300000e-01    3.160000e+00
   P4q SX3vh  1 4.300000e-01    3.160000e+00
   P3q SX3vh  1 4.300000e-01    3.380000e+00
   P2q SX3vh  1 4.300000e-01    3.380000e+00
   P1q SX3vh  1 4.300000e-01    3.380000e+00
   N6q SX3vh  1 4.300000e-01    3.380000e+00
   N5q SX3vh  1 4.300000e-01    3.590000e+00
   N4q SX3vh  1 4.300000e-01    3.770000e+00
   N3q SX3vh  1 4.300000e-01    3.590000e+00
   N2q SX3vh  1 4.300000e-01    3.590000e+00
   N1q SX3vh  1 4.300000e-01    3.590000e+00
   C6q SX3vh  1 4.300000e-01    3.590000e+00
   C5q SX3vh  1 4.300000e-01    3.380000e+00
   C4q SX3vh  1 4.300000e-01    3.380000e+00
   C3q SX3vh  1 4.300000e-01    3.380000e+00
   C2q SX3vh  1 4.300000e-01    3.380000e+00
   C1q SX3vh  1 4.300000e-01    3.380000e+00
   X4q SX3vh  1 4.300000e-01    3.590000e+00
   X3q SX3vh  1 4.300000e-01    3.590000e+00
  X3vh  SX2q  1 4.300000e-01    3.770000e+00
  X3vh  SX1q  1 4.300000e-01    3.770000e+00
  C6vq SX3vh  1 4.300000e-01    3.160000e+00
  C5vq SX3vh  1 4.300000e-01    2.920000e+00
  C4vq SX3vh  1 4.300000e-01    2.920000e+00
  C3vq SX3vh  1 4.300000e-01    2.920000e+00
  C2vq SX3vh  1 4.300000e-01    2.920000e+00
  C1vq SX3vh  1 4.300000e-01    2.920000e+00
  X4vq SX3vh  1 4.300000e-01    3.160000e+00
  X3vh SX3vq  1 4.300000e-01    3.160000e+00
  X3vh SX1vq  1 4.300000e-01    3.380000e+00
  X3vh SX2vq  1 4.300000e-01    3.380000e+00
   X2v SX2vh  1 4.300000e-01    2.920000e+00
  X2vh  SX1v  1 4.300000e-01    2.920000e+00
   P6q SX2vh  1 4.300000e-01    2.920000e+00
   P5q SX2vh  1 4.300000e-01    3.160000e+00
   P4q SX2vh  1 4.300000e-01    3.160000e+00
   P3q SX2vh  1 4.300000e-01    3.160000e+00
   P2q SX2vh  1 4.300000e-01    3.160000e+00
   P1q SX2vh  1 4.300000e-01    3.160000e+00
   N6q SX2vh  1 4.300000e-01    3.160000e+00
   N5q SX2vh  1 4.300000e-01    3.380000e+00
   N4q SX2vh  1 4.300000e-01    3.380000e+00
   N3q SX2vh  1 4.300000e-01    3.380000e+00
   N2q SX2vh  1 4.300000e-01    3.380000e+00
   N1q SX2vh  1 4.300000e-01    3.380000e+00
   C6q SX2vh  1 4.300000e-01    3.590000e+00
   C5q SX2vh  1 4.300000e-01    3.380000e+00
   C4q SX2vh  1 4.300000e-01    3.380000e+00
   C3q SX2vh  1 4.300000e-01    3.380000e+00
   C2q SX2vh  1 4.300000e-01    3.380000e+00
   C1q SX2vh  1 4.300000e-01    3.380000e+00
   X4q SX2vh  1 4.300000e-01    3.590000e+00
   X3q SX2vh  1 4.300000e-01    3.770000e+00
   X2q SX2vh  1 4.300000e-01    3.770000e+00
  X2vh  SX1q  1 4.300000e-01    3.770000e+00
  C6vq SX2vh  1 4.300000e-01    3.160000e+00
  C5vq SX2vh  1 4.300000e-01    2.920000e+00
  C4vq SX2vh  1 4.300000e-01    2.920000e+00
  C3vq SX2vh  1 4.300000e-01    2.920000e+00
  C2vq SX2vh  1 4.300000e-01    2.920000e+00
  C1vq SX2vh  1 4.300000e-01    2.920000e+00
  X4vq SX2vh  1 4.300000e-01    3.160000e+00
  X3vq SX2vh  1 4.300000e-01    3.380000e+00
  X2vh SX2vq  1 4.300000e-01    3.380000e+00
  X2vh SX1vq  1 4.300000e-01    3.380000e+00
   X1v SX1vh  1 4.300000e-01    3.160000e+00
   P6q SX1vh  1 4.300000e-01    2.770000e+00
   P5q SX1vh  1 4.300000e-01    2.770000e+00
   P4q SX1vh  1 4.300000e-01    2.920000e+00
   P3q SX1vh  1 4.300000e-01    2.920000e+00
   P2q SX1vh  1 4.300000e-01    2.920000e+00
   P1q SX1vh  1 4.300000e-01    2.920000e+00
   N6q SX1vh  1 4.300000e-01    2.920000e+00
   N5q SX1vh  1 4.300000e-01    3.160000e+00
   N4q SX1vh  1 4.300000e-01    3.160000e+00
   N3q SX1vh  1 4.300000e-01    3.380000e+00
   N2q SX1vh  1 4.300000e-01    3.380000e+00
   N1q SX1vh  1 4.300000e-01    3.380000e+00
   C6q SX1vh  1 4.300000e-01    3.590000e+00
   C5q SX1vh  1 4.300000e-01    3.590000e+00
   C4q SX1vh  1 4.300000e-01    3.590000e+00
   C3q SX1vh  1 4.300000e-01    3.590000e+00
   C2q SX1vh  1 4.300000e-01    3.380000e+00
   C1q SX1vh  1 4.300000e-01    3.380000e+00
   X4q SX1vh  1 4.300000e-01    3.590000e+00
   X3q SX1vh  1 4.300000e-01    3.770000e+00
   X2q SX1vh  1 4.300000e-01    3.770000e+00
   X1q SX1vh  1 4.300000e-01    3.970000e+00
  C6vq SX1vh  1 4.300000e-01    3.160000e+00
  C5vq SX1vh  1 4.300000e-01    3.160000e+00
  C4vq SX1vh  1 4.300000e-01    3.160000e+00
  C3vq SX1vh  1 4.300000e-01    3.160000e+00
  C2vq SX1vh  1 4.300000e-01    2.920000e+00
  C1vq SX1vh  1 4.300000e-01    2.920000e+00
  X4vq SX1vh  1 4.300000e-01    3.160000e+00
  X3vq SX1vh  1 4.300000e-01    3.380000e+00
  X2vq SX1vh  1 4.300000e-01    3.380000e+00
  X1vh SX1vq  1 4.300000e-01    3.590000e+00
   C6e SC6eh  1 4.300000e-01    2.920000e+00
  C6eh  SC5e  1 4.300000e-01    2.770000e+00
  C6eh  SC4e  1 4.300000e-01    2.770000e+00
  C6eh  SC3e  1 4.300000e-01    2.530000e+00
  C6eh  SC2e  1 4.300000e-01    2.320000e+00
  C6eh  SC1e  1 4.300000e-01    2.160000e+00
  C6eh  SX4e  1 4.300000e-01    2.770000e+00
  C6eh  SX3e  1 4.300000e-01    2.770000e+00
  C6eh  SX2e  1 4.300000e-01    2.770000e+00
  C6eh  SX1e  1 4.300000e-01    2.770000e+00
   P6q SC6eh  1 4.300000e-01    2.920000e+00
   P5q SC6eh  1 4.300000e-01    2.920000e+00
   P4q SC6eh  1 4.300000e-01    3.160000e+00
   P3q SC6eh  1 4.300000e-01    3.380000e+00
   P2q SC6eh  1 4.300000e-01    3.380000e+00
   P1q SC6eh  1 4.300000e-01    3.380000e+00
   N6q SC6eh  1 4.300000e-01    3.590000e+00
   N5q SC6eh  1 4.300000e-01    3.590000e+00
   N4q SC6eh  1 4.300000e-01    3.590000e+00
   N3q SC6eh  1 4.300000e-01    3.590000e+00
   N2q SC6eh  1 4.300000e-01    3.590000e+00
   N1q SC6eh  1 4.300000e-01    3.770000e+00
   C6q SC6eh  1 4.300000e-01    3.770000e+00
  C6eh  SC5q  1 4.300000e-01    3.590000e+00
  C6eh  SC4q  1 4.300000e-01    3.590000e+00
  C6eh  SC3q  1 4.300000e-01    3.380000e+00
  C6eh  SC2q  1 4.300000e-01    3.160000e+00
  C6eh  SC1q  1 4.300000e-01    2.920000e+00
  C6eh  SX4q  1 4.300000e-01    3.590000e+00
  C6eh  SX3q  1 4.300000e-01    3.590000e+00
  C6eh  SX2q  1 4.300000e-01    3.590000e+00
  C6eh  SX1q  1 4.300000e-01    3.590000e+00
  C6eh SC6eq  1 4.300000e-01    3.380000e+00
  C6eh SX1eq  1 4.300000e-01    3.160000e+00
  C6eh SX2eq  1 4.300000e-01    3.160000e+00
  C6eh SX3eq  1 4.300000e-01    3.160000e+00
  C6eh SX4eq  1 4.300000e-01    3.160000e+00
  C6eh SC1eq  1 4.300000e-01    2.530000e+00
  C6eh SC2eq  1 4.300000e-01    2.770000e+00
  C6eh SC3eq  1 4.300000e-01    2.920000e+00
  C6eh SC4eq  1 4.300000e-01    3.160000e+00
  C6eh SC5eq  1 4.300000e-01    3.160000e+00
   C5e SC5eh  1 4.300000e-01    2.770000e+00
  C5eh  SC4e  1 4.300000e-01    2.770000e+00
  C5eh  SC3e  1 4.300000e-01    2.530000e+00
  C5eh  SC2e  1 4.300000e-01    2.320000e+00
  C5eh  SC1e  1 4.300000e-01    2.320000e+00
  C5eh  SX4e  1 4.300000e-01    2.530000e+00
  C5eh  SX3e  1 4.300000e-01    2.530000e+00
  C5eh  SX2e  1 4.300000e-01    2.530000e+00
  C5eh  SX1e  1 4.300000e-01    2.770000e+00
   P6q SC5eh  1 4.300000e-01    2.770000e+00
   P5q SC5eh  1 4.300000e-01    2.920000e+00
   P4q SC5eh  1 4.300000e-01    2.920000e+00
   P3q SC5eh  1 4.300000e-01    3.160000e+00
   P2q SC5eh  1 4.300000e-01    3.160000e+00
   P1q SC5eh  1 4.300000e-01    3.160000e+00
   N6q SC5eh  1 4.300000e-01    3.380000e+00
   N5q SC5eh  1 4.300000e-01    3.380000e+00
   N4q SC5eh  1 4.300000e-01    3.380000e+00
   N3q SC5eh  1 4.300000e-01    3.380000e+00
   N2q SC5eh  1 4.300000e-01    3.380000e+00
   N1q SC5eh  1 4.300000e-01    3.590000e+00
   C6q SC5eh  1 4.300000e-01    3.590000e+00
   C5q SC5eh  1 4.300000e-01    3.590000e+00
  C5eh  SC4q  1 4.300000e-01    3.590000e+00
  C5eh  SC3q  1 4.300000e-01    3.380000e+00
  C5eh  SC2q  1 4.300000e-01    3.160000e+00
  C5eh  SC1q  1 4.300000e-01    3.160000e+00
  C5eh  SX4q  1 4.300000e-01    3.380000e+00
  C5eh  SX3q  1 4.300000e-01    3.380000e+00
  C5eh  SX2q  1 4.300000e-01    3.380000e+00
  C5eh  SX1q  1 4.300000e-01    3.590000e+00
  C6eq SC5eh  1 4.300000e-01    3.160000e+00
  C5eh SC5eq  1 4.300000e-01    3.160000e+00
  C5eh SX1eq  1 4.300000e-01    3.160000e+00
  C5eh SX2eq  1 4.300000e-01    2.920000e+00
  C5eh SX3eq  1 4.300000e-01    2.920000e+00
  C5eh SX4eq  1 4.300000e-01    2.920000e+00
  C5eh SC1eq  1 4.300000e-01    2.770000e+00
  C5eh SC2eq  1 4.300000e-01    2.770000e+00
  C5eh SC3eq  1 4.300000e-01    2.920000e+00
  C5eh SC4eq  1 4.300000e-01    3.160000e+00
   C4e SC4eh  1 4.300000e-01    2.770000e+00
  C4eh  SC3e  1 4.300000e-01    2.770000e+00
  C4eh  SC2e  1 4.300000e-01    2.530000e+00
  C4eh  SC1e  1 4.300000e-01    2.320000e+00
  C4eh  SX4e  1 4.300000e-01    2.530000e+00
  C4eh  SX3e  1 4.300000e-01    2.530000e+00
  C4eh  SX2e  1 4.300000e-01    2.530000e+00
  C4eh  SX1e  1 4.300000e-01    2.770000e+00
   P6q SC4eh  1 4.300000e-01    2.530000e+00
   P5q SC4eh  1 4.300000e-01    2.770000e+00
   P4q SC4eh  1 4.300000e-01    2.770000e+00
   P3q SC4eh  1 4.300000e-01    2.920000e+00
   P2q SC4eh  1 4.300000e-01    2.920000e+00
   P1q SC4eh  1 4.300000e-01    2.920000e+00
   N6q SC4eh  1 4.300000e-01    3.160000e+00
   N5q SC4eh  1 4.300000e-01    3.160000e+00
   N4q SC4eh  1 4.300000e-01    3.380000e+00
   N3q SC4eh  1 4.300000e-01    3.380000e+00
   N2q SC4eh  1 4.300000e-01    3.380000e+00
   N1q SC4eh  1 4.300000e-01    3.590000e+00
   C6q SC4eh  1 4.300000e-01    3.590000e+00
   C5q SC4eh  1 4.300000e-01    3.590000e+00
   C4q SC4eh  1 4.300000e-01    3.590000e+00
  C4eh  SC3q  1 4.300000e-01    3.590000e+00
  C4eh  SC2q  1 4.300000e-01    3.380000e+00
  C4eh  SC1q  1 4.300000e-01    3.160000e+00
  C4eh  SX4q  1 4.300000e-01    3.380000e+00
  C4eh  SX3q  1 4.300000e-01    3.380000e+00
  C4eh  SX2q  1 4.300000e-01    3.380000e+00
  C4eh  SX1q  1 4.300000e-01    3.590000e+00
  C6eq SC4eh  1 4.300000e-01    3.160000e+00
  C5eq SC4eh  1 4.300000e-01    3.160000e+00
  C4eh SC4eq  1 4.300000e-01    3.160000e+00
  C4eh SX1eq  1 4.300000e-01    3.160000e+00
  C4eh SX2eq  1 4.300000e-01    2.920000e+00
  C4eh SX3eq  1 4.300000e-01    2.920000e+00
  C4eh SX4eq  1 4.300000e-01    2.920000e+00
  C4eh SC1eq  1 4.300000e-01    2.770000e+00
  C4eh SC2eq  1 4.300000e-01    2.920000e+00
  C4eh SC3eq  1 4.300000e-01    3.160000e+00
   C3e SC3eh  1 4.300000e-01    2.770000e+00
  C3eh  SC2e  1 4.300000e-01    2.770000e+00
  C3eh  SC1e  1 4.300000e-01    2.770000e+00
  C3eh  SX4e  1 4.300000e-01    2.530000e+00
  C3eh  SX3e  1 4.300000e-01    2.530000e+00
  C3eh  SX2e  1 4.300000e-01    2.530000e+00
  C3eh  SX1e  1 4.300000e-01    2.770000e+00
   P6q SC3eh  1 4.300000e-01    2.320000e+00
   P5q SC3eh  1 4.300000e-01    2.530000e+00
   P4q SC3eh  1 4.300000e-01    2.530000e+00
   P3q SC3eh  1 4.300000e-01    2.530000e+00
   P2q SC3eh  1 4.300000e-01    2.770000e+00
   P1q SC3eh  1 4.300000e-01    2.770000e+00
   N6q SC3eh  1 4.300000e-01    2.920000e+00
   N5q SC3eh  1 4.300000e-01    3.160000e+00
   N4q SC3eh  1 4.300000e-01    3.160000e+00
   N3q SC3eh  1 4.300000e-01    3.160000e+00
   N2q SC3eh  1 4.300000e-01    3.380000e+00
   N1q SC3eh  1 4.300000e-01    3.380000e+00
   C6q SC3eh  1 4.300000e-01    3.380000e+00
   C5q SC3eh  1 4.300000e-01    3.380000e+00
   C4q SC3eh  1 4.300000e-01    3.590000e+00
   C3q SC3eh  1 4.300000e-01    3.590000e+00
  C3eh  SC2q  1 4.300000e-01    3.590000e+00
  C3eh  SC1q  1 4.300000e-01    3.590000e+00
  C3eh  SX4q  1 4.300000e-01    3.380000e+00
  C3eh  SX3q  1 4.300000e-01    3.380000e+00
  C3eh  SX2q  1 4.300000e-01    3.380000e+00
  C3eh  SX1q  1 4.300000e-01    3.590000e+00
  C6eq SC3eh  1 4.300000e-01    2.920000e+00
  C5eq SC3eh  1 4.300000e-01    2.920000e+00
  C4eq SC3eh  1 4.300000e-01    3.160000e+00
  C3eh SC3eq  1 4.300000e-01    3.160000e+00
  C3eh SX1eq  1 4.300000e-01    3.160000e+00
  C3eh SX2eq  1 4.300000e-01    2.920000e+00
  C3eh SX3eq  1 4.300000e-01    2.920000e+00
  C3eh SX4eq  1 4.300000e-01    2.920000e+00
  C3eh SC1eq  1 4.300000e-01    3.160000e+00
  C3eh SC2eq  1 4.300000e-01    3.160000e+00
   C2e SC2eh  1 4.300000e-01    2.770000e+00
  C2eh  SC1e  1 4.300000e-01    2.920000e+00
  C2eh  SX4e  1 4.300000e-01    2.160000e+00
  C2eh  SX3e  1 4.300000e-01    2.530000e+00
  C2eh  SX2e  1 4.300000e-01    2.530000e+00
  C2eh  SX1e  1 4.300000e-01    2.530000e+00
   P6q SC2eh  1 4.300000e-01    2.320000e+00
   P5q SC2eh  1 4.300000e-01    2.530000e+00
   P4q SC2eh  1 4.300000e-01    2.530000e+00
   P3q SC2eh  1 4.300000e-01    2.530000e+00
   P2q SC2eh  1 4.300000e-01    2.770000e+00
   P1q SC2eh  1 4.300000e-01    2.770000e+00
   N6q SC2eh  1 4.300000e-01    2.920000e+00
   N5q SC2eh  1 4.300000e-01    2.920000e+00
   N4q SC2eh  1 4.300000e-01    2.920000e+00
   N3q SC2eh  1 4.300000e-01    3.160000e+00
   N2q SC2eh  1 4.300000e-01    3.160000e+00
   N1q SC2eh  1 4.300000e-01    3.160000e+00
   C6q SC2eh  1 4.300000e-01    3.160000e+00
   C5q SC2eh  1 4.300000e-01    3.160000e+00
   C4q SC2eh  1 4.300000e-01    3.380000e+00
   C3q SC2eh  1 4.300000e-01    3.590000e+00
   C2q SC2eh  1 4.300000e-01    3.590000e+00
  C2eh  SC1q  1 4.300000e-01    3.770000e+00
  C2eh  SX4q  1 4.300000e-01    2.920000e+00
  C2eh  SX3q  1 4.300000e-01    3.380000e+00
  C2eh  SX2q  1 4.300000e-01    3.380000e+00
  C2eh  SX1q  1 4.300000e-01    3.380000e+00
  C6eq SC2eh  1 4.300000e-01    2.770000e+00
  C5eq SC2eh  1 4.300000e-01    2.770000e+00
  C4eq SC2eh  1 4.300000e-01    2.920000e+00
  C3eq SC2eh  1 4.300000e-01    3.160000e+00
  C2eh SC2eq  1 4.300000e-01    3.160000e+00
  C2eh SX1eq  1 4.300000e-01    2.920000e+00
  C2eh SX2eq  1 4.300000e-01    2.920000e+00
  C2eh SX3eq  1 4.300000e-01    2.920000e+00
  C2eh SX4eq  1 4.300000e-01    2.530000e+00
  C2eh SC1eq  1 4.300000e-01    3.380000e+00
   C1e SC1eh  1 4.300000e-01    2.770000e+00
  C1eh  SX4e  1 4.300000e-01    2.160000e+00
  C1eh  SX3e  1 4.300000e-01    2.530000e+00
  C1eh  SX2e  1 4.300000e-01    2.530000e+00
  C1eh  SX1e  1 4.300000e-01    2.530000e+00
   P6q SC1eh  1 4.300000e-01    1.930000e+00
   P5q SC1eh  1 4.300000e-01    2.320000e+00
   P4q SC1eh  1 4.300000e-01    2.320000e+00
   P3q SC1eh  1 4.300000e-01    2.320000e+00
   P2q SC1eh  1 4.300000e-01    2.530000e+00
   P1q SC1eh  1 4.300000e-01    2.530000e+00
   N6q SC1eh  1 4.300000e-01    2.770000e+00
   N5q SC1eh  1 4.300000e-01    2.770000e+00
   N4q SC1eh  1 4.300000e-01    2.770000e+00
   N3q SC1eh  1 4.300000e-01    2.920000e+00
   N2q SC1eh  1 4.300000e-01    2.920000e+00
   N1q SC1eh  1 4.300000e-01    2.920000e+00
   C6q SC1eh  1 4.300000e-01    2.920000e+00
   C5q SC1eh  1 4.300000e-01    3.160000e+00
   C4q SC1eh  1 4.300000e-01    3.160000e+00
   C3q SC1eh  1 4.300000e-01    3.590000e+00
   C2q SC1eh  1 4.300000e-01    3.770000e+00
   C1q SC1eh  1 4.300000e-01    3.590000e+00
  C1eh  SX4q  1 4.300000e-01    2.920000e+00
  C1eh  SX3q  1 4.300000e-01    3.380000e+00
  C1eh  SX2q  1 4.300000e-01    3.380000e+00
  C1eh  SX1q  1 4.300000e-01    3.380000e+00
  C6eq SC1eh  1 4.300000e-01    2.530000e+00
  C5eq SC1eh  1 4.300000e-01    2.770000e+00
  C4eq SC1eh  1 4.300000e-01    2.770000e+00
  C3eq SC1eh  1 4.300000e-01    3.160000e+00
  C2eq SC1eh  1 4.300000e-01    3.380000e+00
  C1eh SC1eq  1 4.300000e-01    3.160000e+00
  C1eh SX1eq  1 4.300000e-01    2.920000e+00
  C1eh SX2eq  1 4.300000e-01    2.920000e+00
  C1eh SX3eq  1 4.300000e-01    2.920000e+00
  C1eh SX4eq  1 4.300000e-01    2.530000e+00
   X4e SX4eh  1 4.300000e-01    2.770000e+00
  X4eh  SX3e  1 4.300000e-01    2.770000e+00
  X4eh  SX2e  1 4.300000e-01    2.770000e+00
  X4eh  SX1e  1 4.300000e-01    2.770000e+00
   P6q SX4eh  1 4.300000e-01    3.160000e+00
   P5q SX4eh  1 4.300000e-01    3.380000e+00
   P4q SX4eh  1 4.300000e-01    3.380000e+00
   P3q SX4eh  1 4.300000e-01    3.380000e+00
   P2q SX4eh  1 4.300000e-01    3.380000e+00
   P1q SX4eh  1 4.300000e-01    3.380000e+00
   N6q SX4eh  1 4.300000e-01    3.590000e+00
   N5q SX4eh  1 4.300000e-01    3.770000e+00
   N4q SX4eh  1 4.300000e-01    3.970000e+00
   N3q SX4eh  1 4.300000e-01    3.770000e+00
   N2q SX4eh  1 4.300000e-01    3.770000e+00
   N1q SX4eh  1 4.300000e-01    3.590000e+00
   C6q SX4eh  1 4.300000e-01    3.590000e+00
   C5q SX4eh  1 4.300000e-01    3.380000e+00
   C4q SX4eh  1 4.300000e-01    3.380000e+00
   C3q SX4eh  1 4.300000e-01    3.380000e+00
   C2q SX4eh  1 4.300000e-01    2.920000e+00
   C1q SX4eh  1 4.300000e-01    2.920000e+00
   X4q SX4eh  1 4.300000e-01    3.590000e+00
  X4eh  SX3q  1 4.300000e-01    3.590000e+00
  X4eh  SX2q  1 4.300000e-01    3.590000e+00
  X4eh  SX1q  1 4.300000e-01    3.590000e+00
  C6eq SX4eh  1 4.300000e-01    3.160000e+00
  C5eq SX4eh  1 4.300000e-01    2.920000e+00
  C4eq SX4eh  1 4.300000e-01    2.920000e+00
  C3eq SX4eh  1 4.300000e-01    2.920000e+00
  C2eq SX4eh  1 4.300000e-01    2.530000e+00
  C1eq SX4eh  1 4.300000e-01    2.530000e+00
  X4eh SX4eq  1 4.300000e-01    3.160000e+00
  X4eh SX1eq  1 4.300000e-01    3.160000e+00
  X4eh SX2eq  1 4.300000e-01    3.160000e+00
  X4eh SX3eq  1 4.300000e-01    3.160000e+00
   X3e SX3eh  1 4.300000e-01    2.770000e+00
  X3eh  SX2e  1 4.300000e-01    2.920000e+00
  X3eh  SX1e  1 4.300000e-01    2.920000e+00
   P6q SX3eh  1 4.300000e-01    3.160000e+00
   P5q SX3eh  1 4.300000e-01    3.160000e+00
   P4q SX3eh  1 4.300000e-01    3.160000e+00
   P3q SX3eh  1 4.300000e-01    3.380000e+00
   P2q SX3eh  1 4.300000e-01    3.380000e+00
   P1q SX3eh  1 4.300000e-01    3.380000e+00
   N6q SX3eh  1 4.300000e-01    3.380000e+00
   N5q SX3eh  1 4.300000e-01    3.590000e+00
   N4q SX3eh  1 4.300000e-01    3.770000e+00
   N3q SX3eh  1 4.300000e-01    3.590000e+00
   N2q SX3eh  1 4.300000e-01    3.590000e+00
   N1q SX3eh  1 4.300000e-01    3.590000e+00
   C6q SX3eh  1 4.300000e-01    3.590000e+00
   C5q SX3eh  1 4.300000e-01    3.380000e+00
   C4q SX3eh  1 4.300000e-01    3.380000e+00
   C3q SX3eh  1 4.300000e-01    3.380000e+00
   C2q SX3eh  1 4.300000e-01    3.380000e+00
   C1q SX3eh  1 4.300000e-01    3.380000e+00
   X4q SX3eh  1 4.300000e-01    3.590000e+00
   X3q SX3eh  1 4.300000e-01    3.590000e+00
  X3eh  SX2q  1 4.300000e-01    3.770000e+00
  X3eh  SX1q  1 4.300000e-01    3.770000e+00
  C6eq SX3eh  1 4.300000e-01    3.160000e+00
  C5eq SX3eh  1 4.300000e-01    2.920000e+00
  C4eq SX3eh  1 4.300000e-01    2.920000e+00
  C3eq SX3eh  1 4.300000e-01    2.920000e+00
  C2eq SX3eh  1 4.300000e-01    2.920000e+00
  C1eq SX3eh  1 4.300000e-01    2.920000e+00
  X4eq SX3eh  1 4.300000e-01    3.160000e+00
  X3eh SX3eq  1 4.300000e-01    3.160000e+00
  X3eh SX1eq  1 4.300000e-01    3.380000e+00
  X3eh SX2eq  1 4.300000e-01    3.380000e+00
   X2e SX2eh  1 4.300000e-01    2.920000e+00
  X2eh  SX1e  1 4.300000e-01    2.920000e+00
   P6q SX2eh  1 4.300000e-01    2.920000e+00
   P5q SX2eh  1 4.300000e-01    3.160000e+00
   P4q SX2eh  1 4.300000e-01    3.160000e+00
   P3q SX2eh  1 4.300000e-01    3.160000e+00
   P2q SX2eh  1 4.300000e-01    3.160000e+00
   P1q SX2eh  1 4.300000e-01    3.160000e+00
   N6q SX2eh  1 4.300000e-01    3.160000e+00
   N5q SX2eh  1 4.300000e-01    3.380000e+00
   N4q SX2eh  1 4.300000e-01    3.380000e+00
   N3q SX2eh  1 4.300000e-01    3.380000e+00
   N2q SX2eh  1 4.300000e-01    3.380000e+00
   N1q SX2eh  1 4.300000e-01    3.380000e+00
   C6q SX2eh  1 4.300000e-01    3.590000e+00
   C5q SX2eh  1 4.300000e-01    3.380000e+00
   C4q SX2eh  1 4.300000e-01    3.380000e+00
   C3q SX2eh  1 4.300000e-01    3.380000e+00
   C2q SX2eh  1 4.300000e-01    3.380000e+00
   C1q SX2eh  1 4.300000e-01    3.380000e+00
   X4q SX2eh  1 4.300000e-01    3.590000e+00
   X3q SX2eh  1 4.300000e-01    3.770000e+00
   X2q SX2eh  1 4.300000e-01    3.770000e+00
  X2eh  SX1q  1 4.300000e-01    3.770000e+00
  C6eq SX2eh  1 4.300000e-01    3.160000e+00
  C5eq SX2eh  1 4.300000e-01    2.920000e+00
  C4eq SX2eh  1 4.300000e-01    2.920000e+00
  C3eq SX2eh  1 4.300000e-01    2.920000e+00
  C2eq SX2eh  1 4.300000e-01    2.920000e+00
  C1eq SX2eh  1 4.300000e-01    2.920000e+00
  X4eq SX2eh  1 4.300000e-01    3.160000e+00
  X3eq SX2eh  1 4.300000e-01    3.380000e+00
  X2eh SX2eq  1 4.300000e-01    3.380000e+00
  X2eh SX1eq  1 4.300000e-01    3.380000e+00
   X1e SX1eh  1 4.300000e-01    3.160000e+00
   P6q SX1eh  1 4.300000e-01    2.770000e+00
   P5q SX1eh  1 4.300000e-01    2.770000e+00
   P4q SX1eh  1 4.300000e-01    2.920000e+00
   P3q SX1eh  1 4.300000e-01    2.920000e+00
   P2q SX1eh  1 4.300000e-01    2.920000e+00
   P1q SX1eh  1 4.300000e-01    2.920000e+00
   N6q SX1eh  1 4.300000e-01    2.920000e+00
   N5q SX1eh  1 4.300000e-01    3.160000e+00
   N4q SX1eh  1 4.300000e-01    3.160000e+00
   N3q SX1eh  1 4.300000e-01    3.380000e+00
   N2q SX1eh  1 4.300000e-01    3.380000e+00
   N1q SX1eh  1 4.300000e-01    3.380000e+00
   C6q SX1eh  1 4.300000e-01    3.590000e+00
   C5q SX1eh  1 4.300000e-01    3.590000e+00
   C4q SX1eh  1 4.300000e-01    3.590000e+00
   C3q SX1eh  1 4.300000e-01    3.590000e+00
   C2q SX1eh  1 4.300000e-01    3.380000e+00
   C1q SX1eh  1 4.300000e-01    3.380000e+00
   X4q SX1eh  1 4.300000e-01    3.590000e+00
   X3q SX1eh  1 4.300000e-01    3.770000e+00
   X2q SX1eh  1 4.300000e-01    3.770000e+00
   X1q SX1eh  1 4.300000e-01    3.970000e+00
  C6eq SX1eh  1 4.300000e-01    3.160000e+00
  C5eq SX1eh  1 4.300000e-01    3.160000e+00
  C4eq SX1eh  1 4.300000e-01    3.160000e+00
  C3eq SX1eh  1 4.300000e-01    3.160000e+00
  C2eq SX1eh  1 4.300000e-01    2.920000e+00
  C1eq SX1eh  1 4.300000e-01    2.920000e+00
  X4eq SX1eh  1 4.300000e-01    3.160000e+00
  X3eq SX1eh  1 4.300000e-01    3.380000e+00
  X2eq SX1eh  1 4.300000e-01    3.380000e+00
  X1eh SX1eq  1 4.300000e-01    3.590000e+00
   C6e SX1eh  1 4.300000e-01    2.770000e+00
   C5e SX1eh  1 4.300000e-01    2.770000e+00
   C4e SX1eh  1 4.300000e-01    2.770000e+00
   C3e SX1eh  1 4.300000e-01    2.770000e+00
   C2e SX1eh  1 4.300000e-01    2.530000e+00
   C1e SX1eh  1 4.300000e-01    2.530000e+00
   X4e SX1eh  1 4.300000e-01    2.770000e+00
   X3e SX1eh  1 4.300000e-01    2.920000e+00
   X2e SX1eh  1 4.300000e-01    2.920000e+00
   C6e SX2eh  1 4.300000e-01    2.770000e+00
   C5e SX2eh  1 4.300000e-01    2.530000e+00
   C4e SX2eh  1 4.300000e-01    2.530000e+00
   C3e SX2eh  1 4.300000e-01    2.530000e+00
   C2e SX2eh  1 4.300000e-01    2.530000e+00
   C1e SX2eh  1 4.300000e-01    2.530000e+00
   X4e SX2eh  1 4.300000e-01    2.770000e+00
   X3e SX2eh  1 4.300000e-01    2.920000e+00
   C6e SX3eh  1 4.300000e-01    2.770000e+00
   C5e SX3eh  1 4.300000e-01    2.530000e+00
   C4e SX3eh  1 4.300000e-01    2.530000e+00
   C3e SX3eh  1 4.300000e-01    2.530000e+00
   C2e SX3eh  1 4.300000e-01    2.530000e+00
   C1e SX3eh  1 4.300000e-01    2.530000e+00
   X4e SX3eh  1 4.300000e-01    2.770000e+00
   C6e SX4eh  1 4.300000e-01    2.770000e+00
   C5e SX4eh  1 4.300000e-01    2.530000e+00
   C4e SX4eh  1 4.300000e-01    2.530000e+00
   C3e SX4eh  1 4.300000e-01    2.530000e+00
   C2e SX4eh  1 4.300000e-01    2.160000e+00
   C1e SX4eh  1 4.300000e-01    2.160000e+00
   C6e SC1eh  1 4.300000e-01    2.160000e+00
   C5e SC1eh  1 4.300000e-01    2.320000e+00
   C4e SC1eh  1 4.300000e-01    2.320000e+00
   C3e SC1eh  1 4.300000e-01    2.770000e+00
   C2e SC1eh  1 4.300000e-01    2.920000e+00
   C6e SC2eh  1 4.300000e-01    2.320000e+00
   C5e SC2eh  1 4.300000e-01    2.320000e+00
   C4e SC2eh  1 4.300000e-01    2.530000e+00
   C3e SC2eh  1 4.300000e-01    2.770000e+00
   C6e SC3eh  1 4.300000e-01    2.530000e+00
   C5e SC3eh  1 4.300000e-01    2.530000e+00
   C4e SC3eh  1 4.300000e-01    2.770000e+00
   C6e SC4eh  1 4.300000e-01    2.770000e+00
   C5e SC4eh  1 4.300000e-01    2.770000e+00
   C6e SC5eh  1 4.300000e-01    2.770000e+00
   C6v SX1vh  1 4.300000e-01    2.770000e+00
   C5v SX1vh  1 4.300000e-01    2.770000e+00
   C4v SX1vh  1 4.300000e-01    2.770000e+00
   C3v SX1vh  1 4.300000e-01    2.770000e+00
   C2v SX1vh  1 4.300000e-01    2.530000e+00
   C1v SX1vh  1 4.300000e-01    2.530000e+00
   X4v SX1vh  1 4.300000e-01    2.770000e+00
   X3v SX1vh  1 4.300000e-01    2.920000e+00
   X2v SX1vh  1 4.300000e-01    2.920000e+00
   C6v SX2vh  1 4.300000e-01    2.770000e+00
   C5v SX2vh  1 4.300000e-01    2.530000e+00
   C4v SX2vh  1 4.300000e-01    2.530000e+00
   C3v SX2vh  1 4.300000e-01    2.530000e+00
   C2v SX2vh  1 4.300000e-01    2.530000e+00
   C1v SX2vh  1 4.300000e-01    2.530000e+00
   X4v SX2vh  1 4.300000e-01    2.770000e+00
   X3v SX2vh  1 4.300000e-01    2.920000e+00
   C6v SX3vh  1 4.300000e-01    2.770000e+00
   C5v SX3vh  1 4.300000e-01    2.530000e+00
   C4v SX3vh  1 4.300000e-01    2.530000e+00
   C3v SX3vh  1 4.300000e-01    2.530000e+00
   C2v SX3vh  1 4.300000e-01    2.530000e+00
   C1v SX3vh  1 4.300000e-01    2.530000e+00
   X4v SX3vh  1 4.300000e-01    2.770000e+00
   C6v SX4vh  1 4.300000e-01    2.770000e+00
   C5v SX4vh  1 4.300000e-01    2.530000e+00
   C4v SX4vh  1 4.300000e-01    2.530000e+00
   C3v SX4vh  1 4.300000e-01    2.530000e+00
   C2v SX4vh  1 4.300000e-01    2.160000e+00
   C1v SX4vh  1 4.300000e-01    2.160000e+00
   C6v SC1vh  1 4.300000e-01    2.160000e+00
   C5v SC1vh  1 4.300000e-01    2.320000e+00
   C4v SC1vh  1 4.300000e-01    2.320000e+00
   C3v SC1vh  1 4.300000e-01    2.770000e+00
   C2v SC1vh  1 4.300000e-01    2.920000e+00
   C6v SC2vh  1 4.300000e-01    2.320000e+00
   C5v SC2vh  1 4.300000e-01    2.320000e+00
   C4v SC2vh  1 4.300000e-01    2.530000e+00
   C3v SC2vh  1 4.300000e-01    2.770000e+00
   C6v SC3vh  1 4.300000e-01    2.530000e+00
   C5v SC3vh  1 4.300000e-01    2.530000e+00
   C4v SC3vh  1 4.300000e-01    2.770000e+00
   C6v SC4vh  1 4.300000e-01    2.770000e+00
   C5v SC4vh  1 4.300000e-01    2.770000e+00
   C6v SC5vh  1 4.300000e-01    2.770000e+00
   P6r  SP6d  1 4.300000e-01    4.680000e+00
   P6r  SN1d  1 4.300000e-01    2.320000e+00
   P6r  SN2d  1 4.300000e-01    2.530000e+00
   P6r  SN3d  1 4.300000e-01    2.770000e+00
   P6r  SN4d  1 4.300000e-01    2.920000e+00
   P6r  SN5d  1 4.300000e-01    3.160000e+00
   P6r  SN6d  1 4.300000e-01    3.590000e+00
   P6r  SP1d  1 4.300000e-01    3.770000e+00
   P6r  SP2d  1 4.300000e-01    3.970000e+00
   P6r  SP3d  1 4.300000e-01    3.970000e+00
   P6r  SP4d  1 4.300000e-01    4.170000e+00
   P6r  SP5d  1 4.300000e-01    4.400000e+00
   P6r  SP6a  1 4.300000e-01    4.680000e+00
   P6r  SN1a  1 4.300000e-01    2.320000e+00
   P6r  SN2a  1 4.300000e-01    2.530000e+00
   P6r  SN3a  1 4.300000e-01    2.770000e+00
   P6r  SN4a  1 4.300000e-01    2.920000e+00
   P6r  SN5a  1 4.300000e-01    3.160000e+00
   P6r  SN6a  1 4.300000e-01    3.590000e+00
   P6r  SP1a  1 4.300000e-01    3.770000e+00
   P6r  SP2a  1 4.300000e-01    3.970000e+00
   P6r  SP3a  1 4.300000e-01    3.970000e+00
   P6r  SP4a  1 4.300000e-01    4.170000e+00
   P6r  SP5a  1 4.300000e-01    4.400000e+00
   P6r  SC6v  1 4.300000e-01    2.530000e+00
   P6r  SC5v  1 4.300000e-01    2.320000e+00
   P6r  SC4v  1 4.300000e-01    2.160000e+00
   P6r  SC3v  1 4.300000e-01    1.930000e+00
   P6r  SC2v  1 4.300000e-01    1.930000e+00
   P6r  SC1v  1 4.430000e-01    1.480000e+00
   P6r  SX4v  1 4.300000e-01    2.770000e+00
   P6r  SX3v  1 4.300000e-01    2.770000e+00
   P6r  SX2v  1 4.300000e-01    2.530000e+00
   P6r  SX1v  1 4.300000e-01    2.320000e+00
   P6r  SC6e  1 4.300000e-01    2.530000e+00
   P6r  SC5e  1 4.300000e-01    2.320000e+00
   P6r  SC4e  1 4.300000e-01    2.160000e+00
   P6r  SC3e  1 4.300000e-01    1.930000e+00
   P6r  SC2e  1 4.300000e-01    1.930000e+00
   P6r  SC1e  1 4.430000e-01    1.480000e+00
   P6r  SX4e  1 4.300000e-01    2.770000e+00
   P6r  SX3e  1 4.300000e-01    2.770000e+00
   P6r  SX2e  1 4.300000e-01    2.530000e+00
   P6r  SX1e  1 4.300000e-01    2.320000e+00
   P6r  SP6q  1 4.300000e-01    5.210000e+00
   P6r SX1eq  1 4.300000e-01    2.770000e+00
   P6r SX2eq  1 4.300000e-01    2.920000e+00
   P6r SX3eq  1 4.300000e-01    3.160000e+00
   P6r SX4eq  1 4.300000e-01    3.160000e+00
   P6r SC1eq  1 4.300000e-01    1.930000e+00
   P6r SC2eq  1 4.300000e-01    2.320000e+00
   P6r SC3eq  1 4.300000e-01    2.320000e+00
   P6r SC4eq  1 4.300000e-01    2.530000e+00
   P6r SC5eq  1 4.300000e-01    2.770000e+00
   P6r SC6eq  1 4.300000e-01    2.920000e+00
   P6r SX1vq  1 4.300000e-01    2.770000e+00
   P6r SX2vq  1 4.300000e-01    2.920000e+00
   P6r SX3vq  1 4.300000e-01    3.160000e+00
   P6r SX4vq  1 4.300000e-01    3.160000e+00
   P6r SC1vq  1 4.300000e-01    1.930000e+00
   P6r SC2vq  1 4.300000e-01    2.320000e+00
   P6r SC3vq  1 4.300000e-01    2.320000e+00
   P6r SC4vq  1 4.300000e-01    2.530000e+00
   P6r SC5vq  1 4.300000e-01    2.770000e+00
   P6r SC6vq  1 4.300000e-01    2.920000e+00
   P6r SN1aq  1 4.300000e-01    2.770000e+00
   P6r SN2aq  1 4.300000e-01    2.920000e+00
   P6r SN3aq  1 4.300000e-01    3.160000e+00
   P6r SN4aq  1 4.300000e-01    3.380000e+00
   P6r SN5aq  1 4.300000e-01    3.590000e+00
   P6r SN6aq  1 4.300000e-01    3.970000e+00
   P6r SP1aq  1 4.300000e-01    4.170000e+00
   P6r SP2aq  1 4.300000e-01    4.400000e+00
   P6r SP3aq  1 4.300000e-01    4.400000e+00
   P6r SP4aq  1 4.300000e-01    4.680000e+00
   P6r SP5aq  1 4.300000e-01    4.920000e+00
   P6r SP6aq  1 4.300000e-01    5.210000e+00
   P6r SN1dq  1 4.300000e-01    2.770000e+00
   P6r SN2dq  1 4.300000e-01    2.920000e+00
   P6r SN3dq  1 4.300000e-01    3.160000e+00
   P6r SN4dq  1 4.300000e-01    3.380000e+00
   P6r SN5dq  1 4.300000e-01    3.590000e+00
   P6r SN6dq  1 4.300000e-01    3.970000e+00
   P6r SP1dq  1 4.300000e-01    4.170000e+00
   P6r SP2dq  1 4.300000e-01    4.400000e+00
   P6r SP3dq  1 4.300000e-01    4.400000e+00
   P6r SP4dq  1 4.300000e-01    4.680000e+00
   P6r SP5dq  1 4.300000e-01    4.920000e+00
   P6r SP6dq  1 4.300000e-01    5.210000e+00
   P6r  SX1q  1 4.300000e-01    2.530000e+00
   P6r  SX2q  1 4.300000e-01    2.770000e+00
   P6r  SX3q  1 4.300000e-01    2.920000e+00
   P6r  SX4q  1 4.300000e-01    2.920000e+00
   P6r  SC1q  1 4.300000e-01    1.730000e+00
   P6r  SC2q  1 4.300000e-01    2.160000e+00
   P6r  SC3q  1 4.300000e-01    2.160000e+00
   P6r  SC4q  1 4.300000e-01    2.320000e+00
   P6r  SC5q  1 4.300000e-01    2.530000e+00
   P6r  SC6q  1 4.300000e-01    2.770000e+00
   P6r  SN1q  1 4.300000e-01    2.770000e+00
   P6r  SN2q  1 4.300000e-01    2.920000e+00
   P6r  SN3q  1 4.300000e-01    3.160000e+00
   P6r  SN4q  1 4.300000e-01    3.380000e+00
   P6r  SN5q  1 4.300000e-01    3.590000e+00
   P6r  SN6q  1 4.300000e-01    3.970000e+00
   P6r  SP1q  1 4.300000e-01    4.170000e+00
   P6r  SP2q  1 4.300000e-01    4.400000e+00
   P6r  SP3q  1 4.300000e-01    4.400000e+00
   P6r  SP4q  1 4.300000e-01    4.680000e+00
   P6r  SP5q  1 4.300000e-01    4.920000e+00
   P6d  SP5r  1 4.300000e-01    4.400000e+00
   P5r  SP5d  1 4.300000e-01    4.170000e+00
   P5r  SN1d  1 4.300000e-01    2.320000e+00
   P5r  SN2d  1 4.300000e-01    2.530000e+00
   P5r  SN3d  1 4.300000e-01    2.770000e+00
   P5r  SN4d  1 4.300000e-01    3.160000e+00
   P5r  SN5d  1 4.300000e-01    3.160000e+00
   P5r  SN6d  1 4.300000e-01    3.380000e+00
   P5r  SP1d  1 4.300000e-01    3.590000e+00
   P5r  SP2d  1 4.300000e-01    3.770000e+00
   P5r  SP3d  1 4.300000e-01    3.770000e+00
   P5r  SP4d  1 4.300000e-01    3.970000e+00
   P6a  SP5r  1 4.300000e-01    4.400000e+00
   P5r  SP5a  1 4.300000e-01    4.170000e+00
   P5r  SN1a  1 4.300000e-01    2.320000e+00
   P5r  SN2a  1 4.300000e-01    2.530000e+00
   P5r  SN3a  1 4.300000e-01    2.770000e+00
   P5r  SN4a  1 4.300000e-01    3.160000e+00
   P5r  SN5a  1 4.300000e-01    3.160000e+00
   P5r  SN6a  1 4.300000e-01    3.380000e+00
   P5r  SP1a  1 4.300000e-01    3.590000e+00
   P5r  SP2a  1 4.300000e-01    3.770000e+00
   P5r  SP3a  1 4.300000e-01    3.770000e+00
   P5r  SP4a  1 4.300000e-01    3.970000e+00
   P5r  SC6v  1 4.300000e-01    2.530000e+00
   P5r  SC5v  1 4.300000e-01    2.530000e+00
   P5r  SC4v  1 4.300000e-01    2.320000e+00
   P5r  SC3v  1 4.300000e-01    2.160000e+00
   P5r  SC2v  1 4.300000e-01    2.160000e+00
   P5r  SC1v  1 4.300000e-01    1.930000e+00
   P5r  SX4v  1 4.300000e-01    2.920000e+00
   P5r  SX3v  1 4.300000e-01    2.770000e+00
   P5r  SX2v  1 4.300000e-01    2.770000e+00
   P5r  SX1v  1 4.300000e-01    2.320000e+00
   P5r  SC6e  1 4.300000e-01    2.530000e+00
   P5r  SC5e  1 4.300000e-01    2.530000e+00
   P5r  SC4e  1 4.300000e-01    2.320000e+00
   P5r  SC3e  1 4.300000e-01    2.160000e+00
   P5r  SC2e  1 4.300000e-01    2.160000e+00
   P5r  SC1e  1 4.300000e-01    1.930000e+00
   P5r  SX4e  1 4.300000e-01    2.920000e+00
   P5r  SX3e  1 4.300000e-01    2.770000e+00
   P5r  SX2e  1 4.300000e-01    2.770000e+00
   P5r  SX1e  1 4.300000e-01    2.320000e+00
   P6q  SP5r  1 4.300000e-01    4.920000e+00
   P5r  SP5q  1 4.300000e-01    4.680000e+00
   P5r SX1eq  1 4.300000e-01    2.770000e+00
   P5r SX2eq  1 4.300000e-01    3.160000e+00
   P5r SX3eq  1 4.300000e-01    3.160000e+00
   P5r SX4eq  1 4.300000e-01    3.380000e+00
   P5r SC1eq  1 4.300000e-01    2.320000e+00
   P5r SC2eq  1 4.300000e-01    2.530000e+00
   P5r SC3eq  1 4.300000e-01    2.530000e+00
   P5r SC4eq  1 4.300000e-01    2.770000e+00
   P5r SC5eq  1 4.300000e-01    2.920000e+00
   P5r SC6eq  1 4.300000e-01    2.920000e+00
   P5r SX1vq  1 4.300000e-01    2.770000e+00
   P5r SX2vq  1 4.300000e-01    3.160000e+00
   P5r SX3vq  1 4.300000e-01    3.160000e+00
   P5r SX4vq  1 4.300000e-01    3.380000e+00
   P5r SC1vq  1 4.300000e-01    2.320000e+00
   P5r SC2vq  1 4.300000e-01    2.530000e+00
   P5r SC3vq  1 4.300000e-01    2.530000e+00
   P5r SC4vq  1 4.300000e-01    2.770000e+00
   P5r SC5vq  1 4.300000e-01    2.920000e+00
   P5r SC6vq  1 4.300000e-01    2.920000e+00
   P5r SN1aq  1 4.300000e-01    2.770000e+00
   P5r SN2aq  1 4.300000e-01    2.920000e+00
   P5r SN3aq  1 4.300000e-01    3.160000e+00
   P5r SN4aq  1 4.300000e-01    3.590000e+00
   P5r SN5aq  1 4.300000e-01    3.590000e+00
   P5r SN6aq  1 4.300000e-01    3.770000e+00
   P5r SP1aq  1 4.300000e-01    3.970000e+00
   P5r SP2aq  1 4.300000e-01    4.170000e+00
   P5r SP3aq  1 4.300000e-01    4.170000e+00
   P5r SP4aq  1 4.300000e-01    4.400000e+00
   P5r SP5aq  1 4.300000e-01    4.680000e+00
  P6aq  SP5r  1 4.300000e-01    4.920000e+00
   P5r SN1dq  1 4.300000e-01    2.770000e+00
   P5r SN2dq  1 4.300000e-01    2.920000e+00
   P5r SN3dq  1 4.300000e-01    3.160000e+00
   P5r SN4dq  1 4.300000e-01    3.590000e+00
   P5r SN5dq  1 4.300000e-01    3.590000e+00
   P5r SN6dq  1 4.300000e-01    3.770000e+00
   P5r SP1dq  1 4.300000e-01    3.970000e+00
   P5r SP2dq  1 4.300000e-01    4.170000e+00
   P5r SP3dq  1 4.300000e-01    4.170000e+00
   P5r SP4dq  1 4.300000e-01    4.400000e+00
   P5r SP5dq  1 4.300000e-01    4.680000e+00
  P6dq  SP5r  1 4.300000e-01    4.920000e+00
   P5r  SX1q  1 4.300000e-01    2.530000e+00
   P5r  SX2q  1 4.300000e-01    2.920000e+00
   P5r  SX3q  1 4.300000e-01    2.920000e+00
   P5r  SX4q  1 4.300000e-01    3.160000e+00
   P5r  SC1q  1 4.300000e-01    2.160000e+00
   P5r  SC2q  1 4.300000e-01    2.320000e+00
   P5r  SC3q  1 4.300000e-01    2.320000e+00
   P5r  SC4q  1 4.300000e-01    2.530000e+00
   P5r  SC5q  1 4.300000e-01    2.770000e+00
   P5r  SC6q  1 4.300000e-01    2.770000e+00
   P5r  SN1q  1 4.300000e-01    2.770000e+00
   P5r  SN2q  1 4.300000e-01    2.920000e+00
   P5r  SN3q  1 4.300000e-01    3.160000e+00
   P5r  SN4q  1 4.300000e-01    3.590000e+00
   P5r  SN5q  1 4.300000e-01    3.590000e+00
   P5r  SN6q  1 4.300000e-01    3.770000e+00
   P5r  SP1q  1 4.300000e-01    3.970000e+00
   P5r  SP2q  1 4.300000e-01    4.170000e+00
   P5r  SP3q  1 4.300000e-01    4.170000e+00
   P5r  SP4q  1 4.300000e-01    4.400000e+00
   P6d  SP4r  1 4.300000e-01    4.170000e+00
   P5d  SP4r  1 4.300000e-01    3.970000e+00
   P4r  SP4d  1 4.300000e-01    3.970000e+00
   P4r  SN1d  1 4.300000e-01    2.530000e+00
   P4r  SN2d  1 4.300000e-01    2.770000e+00
   P4r  SN3d  1 4.300000e-01    2.920000e+00
   P4r  SN4d  1 4.300000e-01    3.160000e+00
   P4r  SN5d  1 4.300000e-01    3.160000e+00
   P4r  SN6d  1 4.300000e-01    3.380000e+00
   P4r  SP1d  1 4.300000e-01    3.590000e+00
   P4r  SP2d  1 4.300000e-01    3.770000e+00
   P4r  SP3d  1 4.300000e-01    3.770000e+00
   P6a  SP4r  1 4.300000e-01    4.170000e+00
   P5a  SP4r  1 4.300000e-01    3.970000e+00
   P4r  SP4a  1 4.300000e-01    3.970000e+00
   P4r  SN1a  1 4.300000e-01    2.530000e+00
   P4r  SN2a  1 4.300000e-01    2.770000e+00
   P4r  SN3a  1 4.300000e-01    2.920000e+00
   P4r  SN4a  1 4.300000e-01    3.160000e+00
   P4r  SN5a  1 4.300000e-01    3.160000e+00
   P4r  SN6a  1 4.300000e-01    3.380000e+00
   P4r  SP1a  1 4.300000e-01    3.590000e+00
   P4r  SP2a  1 4.300000e-01    3.770000e+00
   P4r  SP3a  1 4.300000e-01    3.770000e+00
   P4r  SC6v  1 4.300000e-01    2.770000e+00
   P4r  SC5v  1 4.300000e-01    2.530000e+00
   P4r  SC4v  1 4.300000e-01    2.320000e+00
   P4r  SC3v  1 4.300000e-01    2.160000e+00
   P4r  SC2v  1 4.300000e-01    2.160000e+00
   P4r  SC1v  1 4.300000e-01    1.930000e+00
   P4r  SX4v  1 4.300000e-01    2.920000e+00
   P4r  SX3v  1 4.300000e-01    2.770000e+00
   P4r  SX2v  1 4.300000e-01    2.770000e+00
   P4r  SX1v  1 4.300000e-01    2.530000e+00
   P4r  SC6e  1 4.300000e-01    2.770000e+00
   P4r  SC5e  1 4.300000e-01    2.530000e+00
   P4r  SC4e  1 4.300000e-01    2.320000e+00
   P4r  SC3e  1 4.300000e-01    2.160000e+00
   P4r  SC2e  1 4.300000e-01    2.160000e+00
   P4r  SC1e  1 4.300000e-01    1.930000e+00
   P4r  SX4e  1 4.300000e-01    2.920000e+00
   P4r  SX3e  1 4.300000e-01    2.770000e+00
   P4r  SX2e  1 4.300000e-01    2.770000e+00
   P4r  SX1e  1 4.300000e-01    2.530000e+00
   P6q  SP4r  1 4.300000e-01    4.680000e+00
   P5q  SP4r  1 4.300000e-01    4.400000e+00
   P4r  SP4q  1 4.300000e-01    4.400000e+00
   P4r SX1eq  1 4.300000e-01    2.920000e+00
   P4r SX2eq  1 4.300000e-01    3.160000e+00
   P4r SX3eq  1 4.300000e-01    3.160000e+00
   P4r SX4eq  1 4.300000e-01    3.380000e+00
   P4r SC1eq  1 4.300000e-01    2.320000e+00
   P4r SC2eq  1 4.300000e-01    2.530000e+00
   P4r SC3eq  1 4.300000e-01    2.530000e+00
   P4r SC4eq  1 4.300000e-01    2.770000e+00
   P4r SC5eq  1 4.300000e-01    2.920000e+00
   P4r SC6eq  1 4.300000e-01    3.160000e+00
   P4r SX1vq  1 4.300000e-01    2.920000e+00
   P4r SX2vq  1 4.300000e-01    3.160000e+00
   P4r SX3vq  1 4.300000e-01    3.160000e+00
   P4r SX4vq  1 4.300000e-01    3.380000e+00
   P4r SC1vq  1 4.300000e-01    2.320000e+00
   P4r SC2vq  1 4.300000e-01    2.530000e+00
   P4r SC3vq  1 4.300000e-01    2.530000e+00
   P4r SC4vq  1 4.300000e-01    2.770000e+00
   P4r SC5vq  1 4.300000e-01    2.920000e+00
   P4r SC6vq  1 4.300000e-01    3.160000e+00
   P4r SN1aq  1 4.300000e-01    2.920000e+00
   P4r SN2aq  1 4.300000e-01    3.160000e+00
   P4r SN3aq  1 4.300000e-01    3.380000e+00
   P4r SN4aq  1 4.300000e-01    3.590000e+00
   P4r SN5aq  1 4.300000e-01    3.590000e+00
   P4r SN6aq  1 4.300000e-01    3.770000e+00
   P4r SP1aq  1 4.300000e-01    3.970000e+00
   P4r SP2aq  1 4.300000e-01    4.170000e+00
   P4r SP3aq  1 4.300000e-01    4.170000e+00
   P4r SP4aq  1 4.300000e-01    4.400000e+00
  P5aq  SP4r  1 4.300000e-01    4.400000e+00
  P6aq  SP4r  1 4.300000e-01    4.680000e+00
   P4r SN1dq  1 4.300000e-01    2.920000e+00
   P4r SN2dq  1 4.300000e-01    3.160000e+00
   P4r SN3dq  1 4.300000e-01    3.380000e+00
   P4r SN4dq  1 4.300000e-01    3.590000e+00
   P4r SN5dq  1 4.300000e-01    3.590000e+00
   P4r SN6dq  1 4.300000e-01    3.770000e+00
   P4r SP1dq  1 4.300000e-01    3.970000e+00
   P4r SP2dq  1 4.300000e-01    4.170000e+00
   P4r SP3dq  1 4.300000e-01    4.170000e+00
   P4r SP4dq  1 4.300000e-01    4.400000e+00
  P5dq  SP4r  1 4.300000e-01    4.400000e+00
  P6dq  SP4r  1 4.300000e-01    4.680000e+00
   P4r  SX1q  1 4.300000e-01    2.770000e+00
   P4r  SX2q  1 4.300000e-01    2.920000e+00
   P4r  SX3q  1 4.300000e-01    2.920000e+00
   P4r  SX4q  1 4.300000e-01    3.160000e+00
   P4r  SC1q  1 4.300000e-01    2.160000e+00
   P4r  SC2q  1 4.300000e-01    2.320000e+00
   P4r  SC3q  1 4.300000e-01    2.320000e+00
   P4r  SC4q  1 4.300000e-01    2.530000e+00
   P4r  SC5q  1 4.300000e-01    2.770000e+00
   P4r  SC6q  1 4.300000e-01    2.920000e+00
   P4r  SN1q  1 4.300000e-01    2.920000e+00
   P4r  SN2q  1 4.300000e-01    3.160000e+00
   P4r  SN3q  1 4.300000e-01    3.380000e+00
   P4r  SN4q  1 4.300000e-01    3.590000e+00
   P4r  SN5q  1 4.300000e-01    3.590000e+00
   P4r  SN6q  1 4.300000e-01    3.770000e+00
   P4r  SP1q  1 4.300000e-01    3.970000e+00
   P4r  SP2q  1 4.300000e-01    4.170000e+00
   P4r  SP3q  1 4.300000e-01    4.170000e+00
   P6d  SP3r  1 4.300000e-01    3.970000e+00
   P5d  SP3r  1 4.300000e-01    3.770000e+00
   P4d  SP3r  1 4.300000e-01    3.770000e+00
   P3r  SP3d  1 4.300000e-01    3.770000e+00
   P3r  SN1d  1 4.300000e-01    2.770000e+00
   P3r  SN2d  1 4.300000e-01    2.920000e+00
   P3r  SN3d  1 4.300000e-01    2.920000e+00
   P3r  SN4d  1 4.300000e-01    3.160000e+00
   P3r  SN5d  1 4.300000e-01    3.160000e+00
   P3r  SN6d  1 4.300000e-01    3.380000e+00
   P3r  SP1d  1 4.300000e-01    3.590000e+00
   P3r  SP2d  1 4.300000e-01    3.770000e+00
   P6a  SP3r  1 4.300000e-01    3.970000e+00
   P5a  SP3r  1 4.300000e-01    3.770000e+00
   P4a  SP3r  1 4.300000e-01    3.770000e+00
   P3r  SP3a  1 4.300000e-01    3.770000e+00
   P3r  SN1a  1 4.300000e-01    2.770000e+00
   P3r  SN2a  1 4.300000e-01    2.920000e+00
   P3r  SN3a  1 4.300000e-01    2.920000e+00
   P3r  SN4a  1 4.300000e-01    3.160000e+00
   P3r  SN5a  1 4.300000e-01    3.160000e+00
   P3r  SN6a  1 4.300000e-01    3.380000e+00
   P3r  SP1a  1 4.300000e-01    3.590000e+00
   P3r  SP2a  1 4.300000e-01    3.770000e+00
   P3r  SC6v  1 4.300000e-01    2.920000e+00
   P3r  SC5v  1 4.300000e-01    2.770000e+00
   P3r  SC4v  1 4.300000e-01    2.530000e+00
   P3r  SC3v  1 4.300000e-01    2.160000e+00
   P3r  SC2v  1 4.300000e-01    2.160000e+00
   P3r  SC1v  1 4.300000e-01    1.930000e+00
   P3r  SX4v  1 4.300000e-01    2.920000e+00
   P3r  SX3v  1 4.300000e-01    2.920000e+00
   P3r  SX2v  1 4.300000e-01    2.770000e+00
   P3r  SX1v  1 4.300000e-01    2.530000e+00
   P3r  SC6e  1 4.300000e-01    2.920000e+00
   P3r  SC5e  1 4.300000e-01    2.770000e+00
   P3r  SC4e  1 4.300000e-01    2.530000e+00
   P3r  SC3e  1 4.300000e-01    2.160000e+00
   P3r  SC2e  1 4.300000e-01    2.160000e+00
   P3r  SC1e  1 4.300000e-01    1.930000e+00
   P3r  SX4e  1 4.300000e-01    2.920000e+00
   P3r  SX3e  1 4.300000e-01    2.920000e+00
   P3r  SX2e  1 4.300000e-01    2.770000e+00
   P3r  SX1e  1 4.300000e-01    2.530000e+00
   P6q  SP3r  1 4.300000e-01    4.400000e+00
   P5q  SP3r  1 4.300000e-01    4.170000e+00
   P4q  SP3r  1 4.300000e-01    4.170000e+00
   P3r  SP3q  1 4.300000e-01    4.170000e+00
   P3r SX1eq  1 4.300000e-01    2.920000e+00
   P3r SX2eq  1 4.300000e-01    3.160000e+00
   P3r SX3eq  1 4.300000e-01    3.380000e+00
   P3r SX4eq  1 4.300000e-01    3.380000e+00
   P3r SC1eq  1 4.300000e-01    2.320000e+00
   P3r SC2eq  1 4.300000e-01    2.530000e+00
   P3r SC3eq  1 4.300000e-01    2.530000e+00
   P3r SC4eq  1 4.300000e-01    2.920000e+00
   P3r SC5eq  1 4.300000e-01    3.160000e+00
   P3r SC6eq  1 4.300000e-01    3.380000e+00
   P3r SX1vq  1 4.300000e-01    2.920000e+00
   P3r SX2vq  1 4.300000e-01    3.160000e+00
   P3r SX3vq  1 4.300000e-01    3.380000e+00
   P3r SX4vq  1 4.300000e-01    3.380000e+00
   P3r SC1vq  1 4.300000e-01    2.320000e+00
   P3r SC2vq  1 4.300000e-01    2.530000e+00
   P3r SC3vq  1 4.300000e-01    2.530000e+00
   P3r SC4vq  1 4.300000e-01    2.920000e+00
   P3r SC5vq  1 4.300000e-01    3.160000e+00
   P3r SC6vq  1 4.300000e-01    3.380000e+00
   P3r SN1aq  1 4.300000e-01    3.160000e+00
   P3r SN2aq  1 4.300000e-01    3.380000e+00
   P3r SN3aq  1 4.300000e-01    3.380000e+00
   P3r SN4aq  1 4.300000e-01    3.590000e+00
   P3r SN5aq  1 4.300000e-01    3.590000e+00
   P3r SN6aq  1 4.300000e-01    3.770000e+00
   P3r SP1aq  1 4.300000e-01    3.970000e+00
   P3r SP2aq  1 4.300000e-01    4.170000e+00
   P3r SP3aq  1 4.300000e-01    4.170000e+00
  P4aq  SP3r  1 4.300000e-01    4.170000e+00
  P5aq  SP3r  1 4.300000e-01    4.170000e+00
  P6aq  SP3r  1 4.300000e-01    4.400000e+00
   P3r SN1dq  1 4.300000e-01    3.160000e+00
   P3r SN2dq  1 4.300000e-01    3.380000e+00
   P3r SN3dq  1 4.300000e-01    3.380000e+00
   P3r SN4dq  1 4.300000e-01    3.590000e+00
   P3r SN5dq  1 4.300000e-01    3.590000e+00
   P3r SN6dq  1 4.300000e-01    3.770000e+00
   P3r SP1dq  1 4.300000e-01    3.970000e+00
   P3r SP2dq  1 4.300000e-01    4.170000e+00
   P3r SP3dq  1 4.300000e-01    4.170000e+00
  P4dq  SP3r  1 4.300000e-01    4.170000e+00
  P5dq  SP3r  1 4.300000e-01    4.170000e+00
  P6dq  SP3r  1 4.300000e-01    4.400000e+00
   P3r  SX1q  1 4.300000e-01    2.770000e+00
   P3r  SX2q  1 4.300000e-01    2.920000e+00
   P3r  SX3q  1 4.300000e-01    3.160000e+00
   P3r  SX4q  1 4.300000e-01    3.160000e+00
   P3r  SC1q  1 4.300000e-01    2.160000e+00
   P3r  SC2q  1 4.300000e-01    2.320000e+00
   P3r  SC3q  1 4.300000e-01    2.320000e+00
   P3r  SC4q  1 4.300000e-01    2.770000e+00
   P3r  SC5q  1 4.300000e-01    2.920000e+00
   P3r  SC6q  1 4.300000e-01    3.160000e+00
   P3r  SN1q  1 4.300000e-01    3.160000e+00
   P3r  SN2q  1 4.300000e-01    3.380000e+00
   P3r  SN3q  1 4.300000e-01    3.380000e+00
   P3r  SN4q  1 4.300000e-01    3.590000e+00
   P3r  SN5q  1 4.300000e-01    3.590000e+00
   P3r  SN6q  1 4.300000e-01    3.770000e+00
   P3r  SP1q  1 4.300000e-01    3.970000e+00
   P3r  SP2q  1 4.300000e-01    4.170000e+00
   P6d  SP2r  1 4.300000e-01    3.970000e+00
   P5d  SP2r  1 4.300000e-01    3.770000e+00
   P4d  SP2r  1 4.300000e-01    3.770000e+00
   P3d  SP2r  1 4.300000e-01    3.770000e+00
   P2r  SP2d  1 4.300000e-01    3.770000e+00
   P2r  SN1d  1 4.300000e-01    2.920000e+00
   P2r  SN2d  1 4.300000e-01    2.920000e+00
   P2r  SN3d  1 4.300000e-01    2.920000e+00
   P2r  SN4d  1 4.300000e-01    3.160000e+00
   P2r  SN5d  1 4.300000e-01    3.380000e+00
   P2r  SN6d  1 4.300000e-01    3.590000e+00
   P2r  SP1d  1 4.300000e-01    3.590000e+00
   P6a  SP2r  1 4.300000e-01    3.970000e+00
   P5a  SP2r  1 4.300000e-01    3.770000e+00
   P4a  SP2r  1 4.300000e-01    3.770000e+00
   P3a  SP2r  1 4.300000e-01    3.770000e+00
   P2r  SP2a  1 4.300000e-01    3.770000e+00
   P2r  SN1a  1 4.300000e-01    2.920000e+00
   P2r  SN2a  1 4.300000e-01    2.920000e+00
   P2r  SN3a  1 4.300000e-01    2.920000e+00
   P2r  SN4a  1 4.300000e-01    3.160000e+00
   P2r  SN5a  1 4.300000e-01    3.380000e+00
   P2r  SN6a  1 4.300000e-01    3.590000e+00
   P2r  SP1a  1 4.300000e-01    3.590000e+00
   P2r  SC6v  1 4.300000e-01    2.920000e+00
   P2r  SC5v  1 4.300000e-01    2.770000e+00
   P2r  SC4v  1 4.300000e-01    2.530000e+00
   P2r  SC3v  1 4.300000e-01    2.320000e+00
   P2r  SC2v  1 4.300000e-01    2.320000e+00
   P2r  SC1v  1 4.300000e-01    2.160000e+00
   P2r  SX4v  1 4.300000e-01    2.920000e+00
   P2r  SX3v  1 4.300000e-01    2.920000e+00
   P2r  SX2v  1 4.300000e-01    2.770000e+00
   P2r  SX1v  1 4.300000e-01    2.530000e+00
   P2r  SC6e  1 4.300000e-01    2.920000e+00
   P2r  SC5e  1 4.300000e-01    2.770000e+00
   P2r  SC4e  1 4.300000e-01    2.530000e+00
   P2r  SC3e  1 4.300000e-01    2.320000e+00
   P2r  SC2e  1 4.300000e-01    2.320000e+00
   P2r  SC1e  1 4.300000e-01    2.160000e+00
   P2r  SX4e  1 4.300000e-01    2.920000e+00
   P2r  SX3e  1 4.300000e-01    2.920000e+00
   P2r  SX2e  1 4.300000e-01    2.770000e+00
   P2r  SX1e  1 4.300000e-01    2.530000e+00
   P6q  SP2r  1 4.300000e-01    4.400000e+00
   P5q  SP2r  1 4.300000e-01    4.170000e+00
   P4q  SP2r  1 4.300000e-01    4.170000e+00
   P3q  SP2r  1 4.300000e-01    4.170000e+00
   P2r  SP2q  1 4.300000e-01    4.170000e+00
   P2r SX1eq  1 4.300000e-01    2.920000e+00
   P2r SX2eq  1 4.300000e-01    3.160000e+00
   P2r SX3eq  1 4.300000e-01    3.380000e+00
   P2r SX4eq  1 4.300000e-01    3.380000e+00
   P2r SC1eq  1 4.300000e-01    2.530000e+00
   P2r SC2eq  1 4.300000e-01    2.770000e+00
   P2r SC3eq  1 4.300000e-01    2.770000e+00
   P2r SC4eq  1 4.300000e-01    2.920000e+00
   P2r SC5eq  1 4.300000e-01    3.160000e+00
   P2r SC6eq  1 4.300000e-01    3.380000e+00
   P2r SX1vq  1 4.300000e-01    2.920000e+00
   P2r SX2vq  1 4.300000e-01    3.160000e+00
   P2r SX3vq  1 4.300000e-01    3.380000e+00
   P2r SX4vq  1 4.300000e-01    3.380000e+00
   P2r SC1vq  1 4.300000e-01    2.530000e+00
   P2r SC2vq  1 4.300000e-01    2.770000e+00
   P2r SC3vq  1 4.300000e-01    2.770000e+00
   P2r SC4vq  1 4.300000e-01    2.920000e+00
   P2r SC5vq  1 4.300000e-01    3.160000e+00
   P2r SC6vq  1 4.300000e-01    3.380000e+00
   P2r SN1aq  1 4.300000e-01    3.380000e+00
   P2r SN2aq  1 4.300000e-01    3.380000e+00
   P2r SN3aq  1 4.300000e-01    3.380000e+00
   P2r SN4aq  1 4.300000e-01    3.590000e+00
   P2r SN5aq  1 4.300000e-01    3.770000e+00
   P2r SN6aq  1 4.300000e-01    3.970000e+00
   P2r SP1aq  1 4.300000e-01    3.970000e+00
   P2r SP2aq  1 4.300000e-01    4.170000e+00
  P3aq  SP2r  1 4.300000e-01    4.170000e+00
  P4aq  SP2r  1 4.300000e-01    4.170000e+00
  P5aq  SP2r  1 4.300000e-01    4.170000e+00
  P6aq  SP2r  1 4.300000e-01    4.400000e+00
   P2r SN1dq  1 4.300000e-01    3.380000e+00
   P2r SN2dq  1 4.300000e-01    3.380000e+00
   P2r SN3dq  1 4.300000e-01    3.380000e+00
   P2r SN4dq  1 4.300000e-01    3.590000e+00
   P2r SN5dq  1 4.300000e-01    3.770000e+00
   P2r SN6dq  1 4.300000e-01    3.970000e+00
   P2r SP1dq  1 4.300000e-01    3.970000e+00
   P2r SP2dq  1 4.300000e-01    4.170000e+00
  P3dq  SP2r  1 4.300000e-01    4.170000e+00
  P4dq  SP2r  1 4.300000e-01    4.170000e+00
  P5dq  SP2r  1 4.300000e-01    4.170000e+00
  P6dq  SP2r  1 4.300000e-01    4.400000e+00
   P2r  SX1q  1 4.300000e-01    2.770000e+00
   P2r  SX2q  1 4.300000e-01    2.920000e+00
   P2r  SX3q  1 4.300000e-01    3.160000e+00
   P2r  SX4q  1 4.300000e-01    3.160000e+00
   P2r  SC1q  1 4.300000e-01    2.320000e+00
   P2r  SC2q  1 4.300000e-01    2.530000e+00
   P2r  SC3q  1 4.300000e-01    2.530000e+00
   P2r  SC4q  1 4.300000e-01    2.770000e+00
   P2r  SC5q  1 4.300000e-01    2.920000e+00
   P2r  SC6q  1 4.300000e-01    3.160000e+00
   P2r  SN1q  1 4.300000e-01    3.380000e+00
   P2r  SN2q  1 4.300000e-01    3.380000e+00
   P2r  SN3q  1 4.300000e-01    3.380000e+00
   P2r  SN4q  1 4.300000e-01    3.590000e+00
   P2r  SN5q  1 4.300000e-01    3.770000e+00
   P2r  SN6q  1 4.300000e-01    3.970000e+00
   P2r  SP1q  1 4.300000e-01    3.970000e+00
   P6d  SP1r  1 4.300000e-01    3.770000e+00
   P5d  SP1r  1 4.300000e-01    3.590000e+00
   P4d  SP1r  1 4.300000e-01    3.590000e+00
   P3d  SP1r  1 4.300000e-01    3.590000e+00
   P2d  SP1r  1 4.300000e-01    3.590000e+00
   P1r  SP1d  1 4.300000e-01    3.590000e+00
   P1r  SN1d  1 4.300000e-01    2.920000e+00
   P1r  SN2d  1 4.300000e-01    2.920000e+00
   P1r  SN3d  1 4.300000e-01    2.920000e+00
   P1r  SN4d  1 4.300000e-01    3.380000e+00
   P1r  SN5d  1 4.300000e-01    3.380000e+00
   P1r  SN6d  1 4.300000e-01    3.590000e+00
   P6a  SP1r  1 4.300000e-01    3.770000e+00
   P5a  SP1r  1 4.300000e-01    3.590000e+00
   P4a  SP1r  1 4.300000e-01    3.590000e+00
   P3a  SP1r  1 4.300000e-01    3.590000e+00
   P2a  SP1r  1 4.300000e-01    3.590000e+00
   P1r  SP1a  1 4.300000e-01    3.590000e+00
   P1r  SN1a  1 4.300000e-01    2.920000e+00
   P1r  SN2a  1 4.300000e-01    2.920000e+00
   P1r  SN3a  1 4.300000e-01    2.920000e+00
   P1r  SN4a  1 4.300000e-01    3.380000e+00
   P1r  SN5a  1 4.300000e-01    3.380000e+00
   P1r  SN6a  1 4.300000e-01    3.590000e+00
   P1r  SC6v  1 4.300000e-01    2.920000e+00
   P1r  SC5v  1 4.300000e-01    2.770000e+00
   P1r  SC4v  1 4.300000e-01    2.530000e+00
   P1r  SC3v  1 4.300000e-01    2.320000e+00
   P1r  SC2v  1 4.300000e-01    2.320000e+00
   P1r  SC1v  1 4.300000e-01    2.160000e+00
   P1r  SX4v  1 4.300000e-01    2.920000e+00
   P1r  SX3v  1 4.300000e-01    2.920000e+00
   P1r  SX2v  1 4.300000e-01    2.770000e+00
   P1r  SX1v  1 4.300000e-01    2.530000e+00
   P1r  SC6e  1 4.300000e-01    2.920000e+00
   P1r  SC5e  1 4.300000e-01    2.770000e+00
   P1r  SC4e  1 4.300000e-01    2.530000e+00
   P1r  SC3e  1 4.300000e-01    2.320000e+00
   P1r  SC2e  1 4.300000e-01    2.320000e+00
   P1r  SC1e  1 4.300000e-01    2.160000e+00
   P1r  SX4e  1 4.300000e-01    2.920000e+00
   P1r  SX3e  1 4.300000e-01    2.920000e+00
   P1r  SX2e  1 4.300000e-01    2.770000e+00
   P1r  SX1e  1 4.300000e-01    2.530000e+00
   P6q  SP1r  1 4.300000e-01    4.170000e+00
   P5q  SP1r  1 4.300000e-01    3.970000e+00
   P4q  SP1r  1 4.300000e-01    3.970000e+00
   P3q  SP1r  1 4.300000e-01    3.970000e+00
   P2q  SP1r  1 4.300000e-01    3.970000e+00
   P1r  SP1q  1 4.300000e-01    3.970000e+00
   P1r SX1eq  1 4.300000e-01    2.920000e+00
   P1r SX2eq  1 4.300000e-01    3.160000e+00
   P1r SX3eq  1 4.300000e-01    3.380000e+00
   P1r SX4eq  1 4.300000e-01    3.380000e+00
   P1r SC1eq  1 4.300000e-01    2.530000e+00
   P1r SC2eq  1 4.300000e-01    2.770000e+00
   P1r SC3eq  1 4.300000e-01    2.770000e+00
   P1r SC4eq  1 4.300000e-01    2.920000e+00
   P1r SC5eq  1 4.300000e-01    3.160000e+00
   P1r SC6eq  1 4.300000e-01    3.380000e+00
   P1r SX1vq  1 4.300000e-01    2.920000e+00
   P1r SX2vq  1 4.300000e-01    3.160000e+00
   P1r SX3vq  1 4.300000e-01    3.380000e+00
   P1r SX4vq  1 4.300000e-01    3.380000e+00
   P1r SC1vq  1 4.300000e-01    2.530000e+00
   P1r SC2vq  1 4.300000e-01    2.770000e+00
   P1r SC3vq  1 4.300000e-01    2.770000e+00
   P1r SC4vq  1 4.300000e-01    2.920000e+00
   P1r SC5vq  1 4.300000e-01    3.160000e+00
   P1r SC6vq  1 4.300000e-01    3.380000e+00
   P1r SN1aq  1 4.300000e-01    3.380000e+00
   P1r SN2aq  1 4.300000e-01    3.380000e+00
   P1r SN3aq  1 4.300000e-01    3.380000e+00
   P1r SN4aq  1 4.300000e-01    3.770000e+00
   P1r SN5aq  1 4.300000e-01    3.770000e+00
   P1r SN6aq  1 4.300000e-01    3.970000e+00
   P1r SP1aq  1 4.300000e-01    3.970000e+00
  P2aq  SP1r  1 4.300000e-01    3.970000e+00
  P3aq  SP1r  1 4.300000e-01    3.970000e+00
  P4aq  SP1r  1 4.300000e-01    3.970000e+00
  P5aq  SP1r  1 4.300000e-01    3.970000e+00
  P6aq  SP1r  1 4.300000e-01    4.170000e+00
   P1r SN1dq  1 4.300000e-01    3.380000e+00
   P1r SN2dq  1 4.300000e-01    3.380000e+00
   P1r SN3dq  1 4.300000e-01    3.380000e+00
   P1r SN4dq  1 4.300000e-01    3.770000e+00
   P1r SN5dq  1 4.300000e-01    3.770000e+00
   P1r SN6dq  1 4.300000e-01    3.970000e+00
   P1r SP1dq  1 4.300000e-01    3.970000e+00
  P2dq  SP1r  1 4.300000e-01    3.970000e+00
  P3dq  SP1r  1 4.300000e-01    3.970000e+00
  P4dq  SP1r  1 4.300000e-01    3.970000e+00
  P5dq  SP1r  1 4.300000e-01    3.970000e+00
  P6dq  SP1r  1 4.300000e-01    4.170000e+00
   P1r  SX1q  1 4.300000e-01    2.770000e+00
   P1r  SX2q  1 4.300000e-01    2.920000e+00
   P1r  SX3q  1 4.300000e-01    3.160000e+00
   P1r  SX4q  1 4.300000e-01    3.160000e+00
   P1r  SC1q  1 4.300000e-01    2.320000e+00
   P1r  SC2q  1 4.300000e-01    2.530000e+00
   P1r  SC3q  1 4.300000e-01    2.530000e+00
   P1r  SC4q  1 4.300000e-01    2.770000e+00
   P1r  SC5q  1 4.300000e-01    2.920000e+00
   P1r  SC6q  1 4.300000e-01    3.160000e+00
   P1r  SN1q  1 4.300000e-01    3.380000e+00
   P1r  SN2q  1 4.300000e-01    3.380000e+00
   P1r  SN3q  1 4.300000e-01    3.380000e+00
   P1r  SN4q  1 4.300000e-01    3.770000e+00
   P1r  SN5q  1 4.300000e-01    3.770000e+00
   P1r  SN6q  1 4.300000e-01    3.970000e+00
   P6d  SN6r  1 4.300000e-01    3.590000e+00
   P5d  SN6r  1 4.300000e-01    3.380000e+00
   P4d  SN6r  1 4.300000e-01    3.380000e+00
   P3d  SN6r  1 4.300000e-01    3.380000e+00
   P2d  SN6r  1 4.300000e-01    3.590000e+00
   P1d  SN6r  1 4.300000e-01    3.590000e+00
   N6r  SN6d  1 4.300000e-01    3.590000e+00
   N6r  SN1d  1 4.300000e-01    2.920000e+00
   N6r  SN2d  1 4.300000e-01    2.920000e+00
   N6r  SN3d  1 4.300000e-01    3.160000e+00
   N6r  SN4d  1 4.300000e-01    3.590000e+00
   N6r  SN5d  1 4.300000e-01    3.590000e+00
   P6a  SN6r  1 4.300000e-01    3.590000e+00
   P5a  SN6r  1 4.300000e-01    3.380000e+00
   P4a  SN6r  1 4.300000e-01    3.380000e+00
   P3a  SN6r  1 4.300000e-01    3.380000e+00
   P2a  SN6r  1 4.300000e-01    3.590000e+00
   P1a  SN6r  1 4.300000e-01    3.590000e+00
   N6r  SN6a  1 4.300000e-01    3.590000e+00
   N6r  SN1a  1 4.300000e-01    2.920000e+00
   N6r  SN2a  1 4.300000e-01    2.920000e+00
   N6r  SN3a  1 4.300000e-01    3.160000e+00
   N6r  SN4a  1 4.300000e-01    3.590000e+00
   N6r  SN5a  1 4.300000e-01    3.590000e+00
   N6r  SC6v  1 4.300000e-01    3.160000e+00
   N6r  SC5v  1 4.300000e-01    2.920000e+00
   N6r  SC4v  1 4.300000e-01    2.770000e+00
   N6r  SC3v  1 4.300000e-01    2.530000e+00
   N6r  SC2v  1 4.300000e-01    2.530000e+00
   N6r  SC1v  1 4.300000e-01    2.320000e+00
   N6r  SX4v  1 4.300000e-01    3.160000e+00
   N6r  SX3v  1 4.300000e-01    2.920000e+00
   N6r  SX2v  1 4.300000e-01    2.770000e+00
   N6r  SX1v  1 4.300000e-01    2.530000e+00
   N6r  SC6e  1 4.300000e-01    3.160000e+00
   N6r  SC5e  1 4.300000e-01    2.920000e+00
   N6r  SC4e  1 4.300000e-01    2.770000e+00
   N6r  SC3e  1 4.300000e-01    2.530000e+00
   N6r  SC2e  1 4.300000e-01    2.530000e+00
   N6r  SC1e  1 4.300000e-01    2.320000e+00
   N6r  SX4e  1 4.300000e-01    3.160000e+00
   N6r  SX3e  1 4.300000e-01    2.920000e+00
   N6r  SX2e  1 4.300000e-01    2.770000e+00
   N6r  SX1e  1 4.300000e-01    2.530000e+00
   P6q  SN6r  1 4.300000e-01    3.970000e+00
   P5q  SN6r  1 4.300000e-01    3.770000e+00
   P4q  SN6r  1 4.300000e-01    3.770000e+00
   P3q  SN6r  1 4.300000e-01    3.770000e+00
   P2q  SN6r  1 4.300000e-01    3.970000e+00
   P1q  SN6r  1 4.300000e-01    3.970000e+00
   N6r  SN6q  1 4.300000e-01    3.970000e+00
   N6r SX1eq  1 4.300000e-01    2.920000e+00
   N6r SX2eq  1 4.300000e-01    3.160000e+00
   N6r SX3eq  1 4.300000e-01    3.380000e+00
   N6r SX4eq  1 4.300000e-01    3.590000e+00
   N6r SC1eq  1 4.300000e-01    2.770000e+00
   N6r SC2eq  1 4.300000e-01    2.920000e+00
   N6r SC3eq  1 4.300000e-01    2.920000e+00
   N6r SC4eq  1 4.300000e-01    3.160000e+00
   N6r SC5eq  1 4.300000e-01    3.380000e+00
   N6r SC6eq  1 4.300000e-01    3.590000e+00
   N6r SX1vq  1 4.300000e-01    2.920000e+00
   N6r SX2vq  1 4.300000e-01    3.160000e+00
   N6r SX3vq  1 4.300000e-01    3.380000e+00
   N6r SX4vq  1 4.300000e-01    3.590000e+00
   N6r SC1vq  1 4.300000e-01    2.770000e+00
   N6r SC2vq  1 4.300000e-01    2.920000e+00
   N6r SC3vq  1 4.300000e-01    2.920000e+00
   N6r SC4vq  1 4.300000e-01    3.160000e+00
   N6r SC5vq  1 4.300000e-01    3.380000e+00
   N6r SC6vq  1 4.300000e-01    3.590000e+00
   N6r SN1aq  1 4.300000e-01    3.380000e+00
   N6r SN2aq  1 4.300000e-01    3.380000e+00
   N6r SN3aq  1 4.300000e-01    3.590000e+00
   N6r SN4aq  1 4.300000e-01    3.970000e+00
   N6r SN5aq  1 4.300000e-01    3.970000e+00
   N6r SN6aq  1 4.300000e-01    3.970000e+00
  P1aq  SN6r  1 4.300000e-01    3.970000e+00
  P2aq  SN6r  1 4.300000e-01    3.970000e+00
  P3aq  SN6r  1 4.300000e-01    3.770000e+00
  P4aq  SN6r  1 4.300000e-01    3.770000e+00
  P5aq  SN6r  1 4.300000e-01    3.770000e+00
  P6aq  SN6r  1 4.300000e-01    3.970000e+00
   N6r SN1dq  1 4.300000e-01    3.380000e+00
   N6r SN2dq  1 4.300000e-01    3.380000e+00
   N6r SN3dq  1 4.300000e-01    3.590000e+00
   N6r SN4dq  1 4.300000e-01    3.970000e+00
   N6r SN5dq  1 4.300000e-01    3.970000e+00
   N6r SN6dq  1 4.300000e-01    3.970000e+00
  P1dq  SN6r  1 4.300000e-01    3.970000e+00
  P2dq  SN6r  1 4.300000e-01    3.970000e+00
  P3dq  SN6r  1 4.300000e-01    3.770000e+00
  P4dq  SN6r  1 4.300000e-01    3.770000e+00
  P5dq  SN6r  1 4.300000e-01    3.770000e+00
  P6dq  SN6r  1 4.300000e-01    3.970000e+00
   N6r  SX1q  1 4.300000e-01    2.770000e+00
   N6r  SX2q  1 4.300000e-01    2.920000e+00
   N6r  SX3q  1 4.300000e-01    3.160000e+00
   N6r  SX4q  1 4.300000e-01    3.380000e+00
   N6r  SC1q  1 4.300000e-01    2.530000e+00
   N6r  SC2q  1 4.300000e-01    2.770000e+00
   N6r  SC3q  1 4.300000e-01    2.770000e+00
   N6r  SC4q  1 4.300000e-01    2.920000e+00
   N6r  SC5q  1 4.300000e-01    3.160000e+00
   N6r  SC6q  1 4.300000e-01    3.380000e+00
   N6r  SN1q  1 4.300000e-01    3.380000e+00
   N6r  SN2q  1 4.300000e-01    3.380000e+00
   N6r  SN3q  1 4.300000e-01    3.590000e+00
   N6r  SN4q  1 4.300000e-01    3.970000e+00
   N6r  SN5q  1 4.300000e-01    3.970000e+00
   P6d  SN5r  1 4.300000e-01    3.160000e+00
   P5d  SN5r  1 4.300000e-01    3.160000e+00
   P4d  SN5r  1 4.300000e-01    3.160000e+00
   P3d  SN5r  1 4.300000e-01    3.160000e+00
   P2d  SN5r  1 4.300000e-01    3.380000e+00
   P1d  SN5r  1 4.300000e-01    3.380000e+00
   N6d  SN5r  1 4.300000e-01    3.590000e+00
   N5r  SN5d  1 4.300000e-01    3.380000e+00
   N5r  SN1d  1 4.300000e-01    2.920000e+00
   N5r  SN2d  1 4.300000e-01    3.160000e+00
   N5r  SN3d  1 4.300000e-01    3.160000e+00
   N5r  SN4d  1 4.300000e-01    3.380000e+00
   P6a  SN5r  1 4.300000e-01    3.160000e+00
   P5a  SN5r  1 4.300000e-01    3.160000e+00
   P4a  SN5r  1 4.300000e-01    3.160000e+00
   P3a  SN5r  1 4.300000e-01    3.160000e+00
   P2a  SN5r  1 4.300000e-01    3.380000e+00
   P1a  SN5r  1 4.300000e-01    3.380000e+00
   N6a  SN5r  1 4.300000e-01    3.590000e+00
   N5r  SN5a  1 4.300000e-01    3.380000e+00
   N5r  SN1a  1 4.300000e-01    2.920000e+00
   N5r  SN2a  1 4.300000e-01    3.160000e+00
   N5r  SN3a  1 4.300000e-01    3.160000e+00
   N5r  SN4a  1 4.300000e-01    3.380000e+00
   N5r  SC6v  1 4.300000e-01    3.160000e+00
   N5r  SC5v  1 4.300000e-01    2.920000e+00
   N5r  SC4v  1 4.300000e-01    2.770000e+00
   N5r  SC3v  1 4.300000e-01    2.770000e+00
   N5r  SC2v  1 4.300000e-01    2.530000e+00
   N5r  SC1v  1 4.300000e-01    2.320000e+00
   N5r  SX4v  1 4.300000e-01    3.380000e+00
   N5r  SX3v  1 4.300000e-01    3.160000e+00
   N5r  SX2v  1 4.300000e-01    2.920000e+00
   N5r  SX1v  1 4.300000e-01    2.770000e+00
   N5r  SC6e  1 4.300000e-01    3.160000e+00
   N5r  SC5e  1 4.300000e-01    2.920000e+00
   N5r  SC4e  1 4.300000e-01    2.770000e+00
   N5r  SC3e  1 4.300000e-01    2.770000e+00
   N5r  SC2e  1 4.300000e-01    2.530000e+00
   N5r  SC1e  1 4.300000e-01    2.320000e+00
   N5r  SX4e  1 4.300000e-01    3.380000e+00
   N5r  SX3e  1 4.300000e-01    3.160000e+00
   N5r  SX2e  1 4.300000e-01    2.920000e+00
   N5r  SX1e  1 4.300000e-01    2.770000e+00
   P6q  SN5r  1 4.300000e-01    3.590000e+00
   P5q  SN5r  1 4.300000e-01    3.590000e+00
   P4q  SN5r  1 4.300000e-01    3.590000e+00
   P3q  SN5r  1 4.300000e-01    3.590000e+00
   P2q  SN5r  1 4.300000e-01    3.770000e+00
   P1q  SN5r  1 4.300000e-01    3.770000e+00
   N6q  SN5r  1 4.300000e-01    3.970000e+00
   N5r  SN5q  1 4.300000e-01    3.770000e+00
   N5r SX1eq  1 4.300000e-01    3.160000e+00
   N5r SX2eq  1 4.300000e-01    3.380000e+00
   N5r SX3eq  1 4.300000e-01    3.590000e+00
   N5r SX4eq  1 4.300000e-01    3.770000e+00
   N5r SC1eq  1 4.300000e-01    2.770000e+00
   N5r SC2eq  1 4.300000e-01    2.920000e+00
   N5r SC3eq  1 4.300000e-01    3.160000e+00
   N5r SC4eq  1 4.300000e-01    3.160000e+00
   N5r SC5eq  1 4.300000e-01    3.380000e+00
   N5r SC6eq  1 4.300000e-01    3.590000e+00
   N5r SX1vq  1 4.300000e-01    3.160000e+00
   N5r SX2vq  1 4.300000e-01    3.380000e+00
   N5r SX3vq  1 4.300000e-01    3.590000e+00
   N5r SX4vq  1 4.300000e-01    3.770000e+00
   N5r SC1vq  1 4.300000e-01    2.770000e+00
   N5r SC2vq  1 4.300000e-01    2.920000e+00
   N5r SC3vq  1 4.300000e-01    3.160000e+00
   N5r SC4vq  1 4.300000e-01    3.160000e+00
   N5r SC5vq  1 4.300000e-01    3.380000e+00
   N5r SC6vq  1 4.300000e-01    3.590000e+00
   N5r SN1aq  1 4.300000e-01    3.380000e+00
   N5r SN2aq  1 4.300000e-01    3.590000e+00
   N5r SN3aq  1 4.300000e-01    3.590000e+00
   N5r SN4aq  1 4.300000e-01    3.770000e+00
   N5r SN5aq  1 4.300000e-01    3.770000e+00
  N6aq  SN5r  1 4.300000e-01    3.970000e+00
  P1aq  SN5r  1 4.300000e-01    3.770000e+00
  P2aq  SN5r  1 4.300000e-01    3.770000e+00
  P3aq  SN5r  1 4.300000e-01    3.590000e+00
  P4aq  SN5r  1 4.300000e-01    3.590000e+00
  P5aq  SN5r  1 4.300000e-01    3.590000e+00
  P6aq  SN5r  1 4.300000e-01    3.590000e+00
   N5r SN1dq  1 4.300000e-01    3.380000e+00
   N5r SN2dq  1 4.300000e-01    3.590000e+00
   N5r SN3dq  1 4.300000e-01    3.590000e+00
   N5r SN4dq  1 4.300000e-01    3.770000e+00
   N5r SN5dq  1 4.300000e-01    3.770000e+00
  N6dq  SN5r  1 4.300000e-01    3.970000e+00
  P1dq  SN5r  1 4.300000e-01    3.770000e+00
  P2dq  SN5r  1 4.300000e-01    3.770000e+00
  P3dq  SN5r  1 4.300000e-01    3.590000e+00
  P4dq  SN5r  1 4.300000e-01    3.590000e+00
  P5dq  SN5r  1 4.300000e-01    3.590000e+00
  P6dq  SN5r  1 4.300000e-01    3.590000e+00
   N5r  SX1q  1 4.300000e-01    2.920000e+00
   N5r  SX2q  1 4.300000e-01    3.160000e+00
   N5r  SX3q  1 4.300000e-01    3.380000e+00
   N5r  SX4q  1 4.300000e-01    3.590000e+00
   N5r  SC1q  1 4.300000e-01    2.530000e+00
   N5r  SC2q  1 4.300000e-01    2.770000e+00
   N5r  SC3q  1 4.300000e-01    2.920000e+00
   N5r  SC4q  1 4.300000e-01    2.920000e+00
   N5r  SC5q  1 4.300000e-01    3.160000e+00
   N5r  SC6q  1 4.300000e-01    3.380000e+00
   N5r  SN1q  1 4.300000e-01    3.380000e+00
   N5r  SN2q  1 4.300000e-01    3.590000e+00
   N5r  SN3q  1 4.300000e-01    3.590000e+00
   N5r  SN4q  1 4.300000e-01    3.770000e+00
   P6d  SN4r  1 4.300000e-01    2.920000e+00
   P5d  SN4r  1 4.300000e-01    3.160000e+00
   P4d  SN4r  1 4.300000e-01    3.160000e+00
   P3d  SN4r  1 4.300000e-01    3.160000e+00
   P2d  SN4r  1 4.300000e-01    3.160000e+00
   P1d  SN4r  1 4.300000e-01    3.380000e+00
   N6d  SN4r  1 4.300000e-01    3.590000e+00
   N5d  SN4r  1 4.300000e-01    3.380000e+00
   N4r  SN4d  1 4.300000e-01    3.380000e+00
   N4r  SN1d  1 4.300000e-01    2.920000e+00
   N4r  SN2d  1 4.300000e-01    3.160000e+00
   N4r  SN3d  1 4.300000e-01    3.160000e+00
   P6a  SN4r  1 4.300000e-01    2.920000e+00
   P5a  SN4r  1 4.300000e-01    3.160000e+00
   P4a  SN4r  1 4.300000e-01    3.160000e+00
   P3a  SN4r  1 4.300000e-01    3.160000e+00
   P2a  SN4r  1 4.300000e-01    3.160000e+00
   P1a  SN4r  1 4.300000e-01    3.380000e+00
   N6a  SN4r  1 4.300000e-01    3.590000e+00
   N5a  SN4r  1 4.300000e-01    3.380000e+00
   N4r  SN4a  1 4.300000e-01    3.380000e+00
   N4r  SN1a  1 4.300000e-01    2.920000e+00
   N4r  SN2a  1 4.300000e-01    3.160000e+00
   N4r  SN3a  1 4.300000e-01    3.160000e+00
   N4r  SC6v  1 4.300000e-01    3.160000e+00
   N4r  SC5v  1 4.300000e-01    2.920000e+00
   N4r  SC4v  1 4.300000e-01    2.920000e+00
   N4r  SC3v  1 4.300000e-01    2.770000e+00
   N4r  SC2v  1 4.300000e-01    2.530000e+00
   N4r  SC1v  1 4.300000e-01    2.320000e+00
   N4r  SX4v  1 4.300000e-01    3.590000e+00
   N4r  SX3v  1 4.300000e-01    3.380000e+00
   N4r  SX2v  1 4.300000e-01    2.920000e+00
   N4r  SX1v  1 4.300000e-01    2.770000e+00
   N4r  SC6e  1 4.300000e-01    3.160000e+00
   N4r  SC5e  1 4.300000e-01    2.920000e+00
   N4r  SC4e  1 4.300000e-01    2.920000e+00
   N4r  SC3e  1 4.300000e-01    2.770000e+00
   N4r  SC2e  1 4.300000e-01    2.530000e+00
   N4r  SC1e  1 4.300000e-01    2.320000e+00
   N4r  SX4e  1 4.300000e-01    3.590000e+00
   N4r  SX3e  1 4.300000e-01    3.380000e+00
   N4r  SX2e  1 4.300000e-01    2.920000e+00
   N4r  SX1e  1 4.300000e-01    2.770000e+00
   P6q  SN4r  1 4.300000e-01    3.380000e+00
   P5q  SN4r  1 4.300000e-01    3.590000e+00
   P4q  SN4r  1 4.300000e-01    3.590000e+00
   P3q  SN4r  1 4.300000e-01    3.590000e+00
   P2q  SN4r  1 4.300000e-01    3.590000e+00
   P1q  SN4r  1 4.300000e-01    3.770000e+00
   N6q  SN4r  1 4.300000e-01    3.970000e+00
   N5q  SN4r  1 4.300000e-01    3.770000e+00
   N4r  SN4q  1 4.300000e-01    3.770000e+00
   N4r SX1eq  1 4.300000e-01    3.160000e+00
   N4r SX2eq  1 4.300000e-01    3.380000e+00
   N4r SX3eq  1 4.300000e-01    3.770000e+00
   N4r SX4eq  1 4.300000e-01    3.970000e+00
   N4r SC1eq  1 4.300000e-01    2.770000e+00
   N4r SC2eq  1 4.300000e-01    2.920000e+00
   N4r SC3eq  1 4.300000e-01    3.160000e+00
   N4r SC4eq  1 4.300000e-01    3.380000e+00
   N4r SC5eq  1 4.300000e-01    3.380000e+00
   N4r SC6eq  1 4.300000e-01    3.590000e+00
   N4r SX1vq  1 4.300000e-01    3.160000e+00
   N4r SX2vq  1 4.300000e-01    3.380000e+00
   N4r SX3vq  1 4.300000e-01    3.770000e+00
   N4r SX4vq  1 4.300000e-01    3.970000e+00
   N4r SC1vq  1 4.300000e-01    2.770000e+00
   N4r SC2vq  1 4.300000e-01    2.920000e+00
   N4r SC3vq  1 4.300000e-01    3.160000e+00
   N4r SC4vq  1 4.300000e-01    3.380000e+00
   N4r SC5vq  1 4.300000e-01    3.380000e+00
   N4r SC6vq  1 4.300000e-01    3.590000e+00
   N4r SN1aq  1 4.300000e-01    3.380000e+00
   N4r SN2aq  1 4.300000e-01    3.590000e+00
   N4r SN3aq  1 4.300000e-01    3.590000e+00
   N4r SN4aq  1 4.300000e-01    3.770000e+00
  N5aq  SN4r  1 4.300000e-01    3.770000e+00
  N6aq  SN4r  1 4.300000e-01    3.970000e+00
  P1aq  SN4r  1 4.300000e-01    3.770000e+00
  P2aq  SN4r  1 4.300000e-01    3.590000e+00
  P3aq  SN4r  1 4.300000e-01    3.590000e+00
  P4aq  SN4r  1 4.300000e-01    3.590000e+00
  P5aq  SN4r  1 4.300000e-01    3.590000e+00
  P6aq  SN4r  1 4.300000e-01    3.380000e+00
   N4r SN1dq  1 4.300000e-01    3.380000e+00
   N4r SN2dq  1 4.300000e-01    3.590000e+00
   N4r SN3dq  1 4.300000e-01    3.590000e+00
   N4r SN4dq  1 4.300000e-01    3.770000e+00
  N5dq  SN4r  1 4.300000e-01    3.770000e+00
  N6dq  SN4r  1 4.300000e-01    3.970000e+00
  P1dq  SN4r  1 4.300000e-01    3.770000e+00
  P2dq  SN4r  1 4.300000e-01    3.590000e+00
  P3dq  SN4r  1 4.300000e-01    3.590000e+00
  P4dq  SN4r  1 4.300000e-01    3.590000e+00
  P5dq  SN4r  1 4.300000e-01    3.590000e+00
  P6dq  SN4r  1 4.300000e-01    3.380000e+00
   N4r  SX1q  1 4.300000e-01    2.920000e+00
   N4r  SX2q  1 4.300000e-01    3.160000e+00
   N4r  SX3q  1 4.300000e-01    3.590000e+00
   N4r  SX4q  1 4.300000e-01    3.770000e+00
   N4r  SC1q  1 4.300000e-01    2.530000e+00
   N4r  SC2q  1 4.300000e-01    2.770000e+00
   N4r  SC3q  1 4.300000e-01    2.920000e+00
   N4r  SC4q  1 4.300000e-01    3.160000e+00
   N4r  SC5q  1 4.300000e-01    3.160000e+00
   N4r  SC6q  1 4.300000e-01    3.380000e+00
   N4r  SN1q  1 4.300000e-01    3.380000e+00
   N4r  SN2q  1 4.300000e-01    3.590000e+00
   N4r  SN3q  1 4.300000e-01    3.590000e+00
   P6d  SN3r  1 4.300000e-01    2.770000e+00
   P5d  SN3r  1 4.300000e-01    2.770000e+00
   P4d  SN3r  1 4.300000e-01    2.920000e+00
   P3d  SN3r  1 4.300000e-01    2.920000e+00
   P2d  SN3r  1 4.300000e-01    2.920000e+00
   P1d  SN3r  1 4.300000e-01    2.920000e+00
   N6d  SN3r  1 4.300000e-01    3.160000e+00
   N5d  SN3r  1 4.300000e-01    3.160000e+00
   N4d  SN3r  1 4.300000e-01    3.160000e+00
   N3r  SN3d  1 4.300000e-01    3.160000e+00
   N3r  SN1d  1 4.300000e-01    2.920000e+00
   N3r  SN2d  1 4.300000e-01    3.160000e+00
   P6a  SN3r  1 4.300000e-01    2.770000e+00
   P5a  SN3r  1 4.300000e-01    2.770000e+00
   P4a  SN3r  1 4.300000e-01    2.920000e+00
   P3a  SN3r  1 4.300000e-01    2.920000e+00
   P2a  SN3r  1 4.300000e-01    2.920000e+00
   P1a  SN3r  1 4.300000e-01    2.920000e+00
   N6a  SN3r  1 4.300000e-01    3.160000e+00
   N5a  SN3r  1 4.300000e-01    3.160000e+00
   N4a  SN3r  1 4.300000e-01    3.160000e+00
   N3r  SN3a  1 4.300000e-01    3.160000e+00
   N3r  SN1a  1 4.300000e-01    2.920000e+00
   N3r  SN2a  1 4.300000e-01    3.160000e+00
   N3r  SC6v  1 4.300000e-01    3.160000e+00
   N3r  SC5v  1 4.300000e-01    2.920000e+00
   N3r  SC4v  1 4.300000e-01    2.920000e+00
   N3r  SC3v  1 4.300000e-01    2.770000e+00
   N3r  SC2v  1 4.300000e-01    2.770000e+00
   N3r  SC1v  1 4.300000e-01    2.530000e+00
   N3r  SX4v  1 4.300000e-01    3.380000e+00
   N3r  SX3v  1 4.300000e-01    3.160000e+00
   N3r  SX2v  1 4.300000e-01    2.920000e+00
   N3r  SX1v  1 4.300000e-01    2.920000e+00
   N3r  SC6e  1 4.300000e-01    3.160000e+00
   N3r  SC5e  1 4.300000e-01    2.920000e+00
   N3r  SC4e  1 4.300000e-01    2.920000e+00
   N3r  SC3e  1 4.300000e-01    2.770000e+00
   N3r  SC2e  1 4.300000e-01    2.770000e+00
   N3r  SC1e  1 4.300000e-01    2.530000e+00
   N3r  SX4e  1 4.300000e-01    3.380000e+00
   N3r  SX3e  1 4.300000e-01    3.160000e+00
   N3r  SX2e  1 4.300000e-01    2.920000e+00
   N3r  SX1e  1 4.300000e-01    2.920000e+00
   P6q  SN3r  1 4.300000e-01    3.160000e+00
   P5q  SN3r  1 4.300000e-01    3.160000e+00
   P4q  SN3r  1 4.300000e-01    3.380000e+00
   P3q  SN3r  1 4.300000e-01    3.380000e+00
   P2q  SN3r  1 4.300000e-01    3.380000e+00
   P1q  SN3r  1 4.300000e-01    3.380000e+00
   N6q  SN3r  1 4.300000e-01    3.590000e+00
   N5q  SN3r  1 4.300000e-01    3.590000e+00
   N4q  SN3r  1 4.300000e-01    3.590000e+00
   N3r  SN3q  1 4.300000e-01    3.590000e+00
   N3r SX1eq  1 4.300000e-01    3.380000e+00
   N3r SX2eq  1 4.300000e-01    3.380000e+00
   N3r SX3eq  1 4.300000e-01    3.590000e+00
   N3r SX4eq  1 4.300000e-01    3.770000e+00
   N3r SC1eq  1 4.300000e-01    2.920000e+00
   N3r SC2eq  1 4.300000e-01    3.160000e+00
   N3r SC3eq  1 4.300000e-01    3.160000e+00
   N3r SC4eq  1 4.300000e-01    3.380000e+00
   N3r SC5eq  1 4.300000e-01    3.380000e+00
   N3r SC6eq  1 4.300000e-01    3.590000e+00
   N3r SX1vq  1 4.300000e-01    3.380000e+00
   N3r SX2vq  1 4.300000e-01    3.380000e+00
   N3r SX3vq  1 4.300000e-01    3.590000e+00
   N3r SX4vq  1 4.300000e-01    3.770000e+00
   N3r SC1vq  1 4.300000e-01    2.920000e+00
   N3r SC2vq  1 4.300000e-01    3.160000e+00
   N3r SC3vq  1 4.300000e-01    3.160000e+00
   N3r SC4vq  1 4.300000e-01    3.380000e+00
   N3r SC5vq  1 4.300000e-01    3.380000e+00
   N3r SC6vq  1 4.300000e-01    3.590000e+00
   N3r SN1aq  1 4.300000e-01    3.380000e+00
   N3r SN2aq  1 4.300000e-01    3.590000e+00
   N3r SN3aq  1 4.300000e-01    3.590000e+00
  N4aq  SN3r  1 4.300000e-01    3.590000e+00
  N5aq  SN3r  1 4.300000e-01    3.590000e+00
  N6aq  SN3r  1 4.300000e-01    3.590000e+00
  P1aq  SN3r  1 4.300000e-01    3.380000e+00
  P2aq  SN3r  1 4.300000e-01    3.380000e+00
  P3aq  SN3r  1 4.300000e-01    3.380000e+00
  P4aq  SN3r  1 4.300000e-01    3.380000e+00
  P5aq  SN3r  1 4.300000e-01    3.160000e+00
  P6aq  SN3r  1 4.300000e-01    3.160000e+00
   N3r SN1dq  1 4.300000e-01    3.380000e+00
   N3r SN2dq  1 4.300000e-01    3.590000e+00
   N3r SN3dq  1 4.300000e-01    3.590000e+00
  N4dq  SN3r  1 4.300000e-01    3.590000e+00
  N5dq  SN3r  1 4.300000e-01    3.590000e+00
  N6dq  SN3r  1 4.300000e-01    3.590000e+00
  P1dq  SN3r  1 4.300000e-01    3.380000e+00
  P2dq  SN3r  1 4.300000e-01    3.380000e+00
  P3dq  SN3r  1 4.300000e-01    3.380000e+00
  P4dq  SN3r  1 4.300000e-01    3.380000e+00
  P5dq  SN3r  1 4.300000e-01    3.160000e+00
  P6dq  SN3r  1 4.300000e-01    3.160000e+00
   N3r  SX1q  1 4.300000e-01    3.160000e+00
   N3r  SX2q  1 4.300000e-01    3.160000e+00
   N3r  SX3q  1 4.300000e-01    3.380000e+00
   N3r  SX4q  1 4.300000e-01    3.590000e+00
   N3r  SC1q  1 4.300000e-01    2.770000e+00
   N3r  SC2q  1 4.300000e-01    2.920000e+00
   N3r  SC3q  1 4.300000e-01    2.920000e+00
   N3r  SC4q  1 4.300000e-01    3.160000e+00
   N3r  SC5q  1 4.300000e-01    3.160000e+00
   N3r  SC6q  1 4.300000e-01    3.380000e+00
   N3r  SN1q  1 4.300000e-01    3.380000e+00
   N3r  SN2q  1 4.300000e-01    3.590000e+00
   P6d  SN2r  1 4.300000e-01    2.530000e+00
   P5d  SN2r  1 4.300000e-01    2.530000e+00
   P4d  SN2r  1 4.300000e-01    2.770000e+00
   P3d  SN2r  1 4.300000e-01    2.920000e+00
   P2d  SN2r  1 4.300000e-01    2.920000e+00
   P1d  SN2r  1 4.300000e-01    2.920000e+00
   N6d  SN2r  1 4.300000e-01    2.920000e+00
   N5d  SN2r  1 4.300000e-01    3.160000e+00
   N4d  SN2r  1 4.300000e-01    3.160000e+00
   N3d  SN2r  1 4.300000e-01    3.160000e+00
   N2r  SN2d  1 4.300000e-01    3.160000e+00
   N2r  SN1d  1 4.300000e-01    2.920000e+00
   P6a  SN2r  1 4.300000e-01    2.530000e+00
   P5a  SN2r  1 4.300000e-01    2.530000e+00
   P4a  SN2r  1 4.300000e-01    2.770000e+00
   P3a  SN2r  1 4.300000e-01    2.920000e+00
   P2a  SN2r  1 4.300000e-01    2.920000e+00
   P1a  SN2r  1 4.300000e-01    2.920000e+00
   N6a  SN2r  1 4.300000e-01    2.920000e+00
   N5a  SN2r  1 4.300000e-01    3.160000e+00
   N4a  SN2r  1 4.300000e-01    3.160000e+00
   N3a  SN2r  1 4.300000e-01    3.160000e+00
   N2r  SN2a  1 4.300000e-01    3.160000e+00
   N2r  SN1a  1 4.300000e-01    2.920000e+00
   N2r  SC6v  1 4.300000e-01    3.160000e+00
   N2r  SC5v  1 4.300000e-01    2.920000e+00
   N2r  SC4v  1 4.300000e-01    2.920000e+00
   N2r  SC3v  1 4.300000e-01    2.920000e+00
   N2r  SC2v  1 4.300000e-01    2.770000e+00
   N2r  SC1v  1 4.300000e-01    2.530000e+00
   N2r  SX4v  1 4.300000e-01    3.380000e+00
   N2r  SX3v  1 4.300000e-01    3.160000e+00
   N2r  SX2v  1 4.300000e-01    2.920000e+00
   N2r  SX1v  1 4.300000e-01    2.920000e+00
   N2r  SC6e  1 4.300000e-01    3.160000e+00
   N2r  SC5e  1 4.300000e-01    2.920000e+00
   N2r  SC4e  1 4.300000e-01    2.920000e+00
   N2r  SC3e  1 4.300000e-01    2.920000e+00
   N2r  SC2e  1 4.300000e-01    2.770000e+00
   N2r  SC1e  1 4.300000e-01    2.530000e+00
   N2r  SX4e  1 4.300000e-01    3.380000e+00
   N2r  SX3e  1 4.300000e-01    3.160000e+00
   N2r  SX2e  1 4.300000e-01    2.920000e+00
   N2r  SX1e  1 4.300000e-01    2.920000e+00
   P6q  SN2r  1 4.300000e-01    2.920000e+00
   P5q  SN2r  1 4.300000e-01    2.920000e+00
   P4q  SN2r  1 4.300000e-01    3.160000e+00
   P3q  SN2r  1 4.300000e-01    3.380000e+00
   P2q  SN2r  1 4.300000e-01    3.380000e+00
   P1q  SN2r  1 4.300000e-01    3.380000e+00
   N6q  SN2r  1 4.300000e-01    3.380000e+00
   N5q  SN2r  1 4.300000e-01    3.590000e+00
   N4q  SN2r  1 4.300000e-01    3.590000e+00
   N3q  SN2r  1 4.300000e-01    3.590000e+00
   N2r  SN2q  1 4.300000e-01    3.590000e+00
   N2r SX1eq  1 4.300000e-01    3.380000e+00
   N2r SX2eq  1 4.300000e-01    3.380000e+00
   N2r SX3eq  1 4.300000e-01    3.590000e+00
   N2r SX4eq  1 4.300000e-01    3.770000e+00
   N2r SC1eq  1 4.300000e-01    2.920000e+00
   N2r SC2eq  1 4.300000e-01    3.160000e+00
   N2r SC3eq  1 4.300000e-01    3.380000e+00
   N2r SC4eq  1 4.300000e-01    3.380000e+00
   N2r SC5eq  1 4.300000e-01    3.380000e+00
   N2r SC6eq  1 4.300000e-01    3.590000e+00
   N2r SX1vq  1 4.300000e-01    3.380000e+00
   N2r SX2vq  1 4.300000e-01    3.380000e+00
   N2r SX3vq  1 4.300000e-01    3.590000e+00
   N2r SX4vq  1 4.300000e-01    3.770000e+00
   N2r SC1vq  1 4.300000e-01    2.920000e+00
   N2r SC2vq  1 4.300000e-01    3.160000e+00
   N2r SC3vq  1 4.300000e-01    3.380000e+00
   N2r SC4vq  1 4.300000e-01    3.380000e+00
   N2r SC5vq  1 4.300000e-01    3.380000e+00
   N2r SC6vq  1 4.300000e-01    3.590000e+00
   N2r SN1aq  1 4.300000e-01    3.380000e+00
   N2r SN2aq  1 4.300000e-01    3.590000e+00
  N3aq  SN2r  1 4.300000e-01    3.590000e+00
  N4aq  SN2r  1 4.300000e-01    3.590000e+00
  N5aq  SN2r  1 4.300000e-01    3.590000e+00
  N6aq  SN2r  1 4.300000e-01    3.380000e+00
  P1aq  SN2r  1 4.300000e-01    3.380000e+00
  P2aq  SN2r  1 4.300000e-01    3.380000e+00
  P3aq  SN2r  1 4.300000e-01    3.380000e+00
  P4aq  SN2r  1 4.300000e-01    3.160000e+00
  P5aq  SN2r  1 4.300000e-01    2.920000e+00
  P6aq  SN2r  1 4.300000e-01    2.920000e+00
   N2r SN1dq  1 4.300000e-01    3.380000e+00
   N2r SN2dq  1 4.300000e-01    3.590000e+00
  N3dq  SN2r  1 4.300000e-01    3.590000e+00
  N4dq  SN2r  1 4.300000e-01    3.590000e+00
  N5dq  SN2r  1 4.300000e-01    3.590000e+00
  N6dq  SN2r  1 4.300000e-01    3.380000e+00
  P1dq  SN2r  1 4.300000e-01    3.380000e+00
  P2dq  SN2r  1 4.300000e-01    3.380000e+00
  P3dq  SN2r  1 4.300000e-01    3.380000e+00
  P4dq  SN2r  1 4.300000e-01    3.160000e+00
  P5dq  SN2r  1 4.300000e-01    2.920000e+00
  P6dq  SN2r  1 4.300000e-01    2.920000e+00
   N2r  SX1q  1 4.300000e-01    3.160000e+00
   N2r  SX2q  1 4.300000e-01    3.160000e+00
   N2r  SX3q  1 4.300000e-01    3.380000e+00
   N2r  SX4q  1 4.300000e-01    3.590000e+00
   N2r  SC1q  1 4.300000e-01    2.770000e+00
   N2r  SC2q  1 4.300000e-01    2.920000e+00
   N2r  SC3q  1 4.300000e-01    3.160000e+00
   N2r  SC4q  1 4.300000e-01    3.160000e+00
   N2r  SC5q  1 4.300000e-01    3.160000e+00
   N2r  SC6q  1 4.300000e-01    3.380000e+00
   N2r  SN1q  1 4.300000e-01    3.380000e+00
   P6d  SN1r  1 4.300000e-01    2.320000e+00
   P5d  SN1r  1 4.300000e-01    2.320000e+00
   P4d  SN1r  1 4.300000e-01    2.530000e+00
   P3d  SN1r  1 4.300000e-01    2.770000e+00
   P2d  SN1r  1 4.300000e-01    2.920000e+00
   P1d  SN1r  1 4.300000e-01    2.920000e+00
   N6d  SN1r  1 4.300000e-01    2.920000e+00
   N5d  SN1r  1 4.300000e-01    2.920000e+00
   N4d  SN1r  1 4.300000e-01    2.920000e+00
   N3d  SN1r  1 4.300000e-01    2.920000e+00
   N2d  SN1r  1 4.300000e-01    2.920000e+00
   N1r  SN1d  1 4.300000e-01    3.160000e+00
   P6a  SN1r  1 4.300000e-01    2.320000e+00
   P5a  SN1r  1 4.300000e-01    2.320000e+00
   P4a  SN1r  1 4.300000e-01    2.530000e+00
   P3a  SN1r  1 4.300000e-01    2.770000e+00
   P2a  SN1r  1 4.300000e-01    2.920000e+00
   P1a  SN1r  1 4.300000e-01    2.920000e+00
   N6a  SN1r  1 4.300000e-01    2.920000e+00
   N5a  SN1r  1 4.300000e-01    2.920000e+00
   N4a  SN1r  1 4.300000e-01    2.920000e+00
   N3a  SN1r  1 4.300000e-01    2.920000e+00
   N2a  SN1r  1 4.300000e-01    2.920000e+00
   N1r  SN1a  1 4.300000e-01    3.160000e+00
   N1r  SC6v  1 4.300000e-01    3.380000e+00
   N1r  SC5v  1 4.300000e-01    3.160000e+00
   N1r  SC4v  1 4.300000e-01    3.160000e+00
   N1r  SC3v  1 4.300000e-01    2.920000e+00
   N1r  SC2v  1 4.300000e-01    2.770000e+00
   N1r  SC1v  1 4.300000e-01    2.530000e+00
   N1r  SX4v  1 4.300000e-01    3.160000e+00
   N1r  SX3v  1 4.300000e-01    3.160000e+00
   N1r  SX2v  1 4.300000e-01    2.920000e+00
   N1r  SX1v  1 4.300000e-01    2.920000e+00
   N1r  SC6e  1 4.300000e-01    3.380000e+00
   N1r  SC5e  1 4.300000e-01    3.160000e+00
   N1r  SC4e  1 4.300000e-01    3.160000e+00
   N1r  SC3e  1 4.300000e-01    2.920000e+00
   N1r  SC2e  1 4.300000e-01    2.770000e+00
   N1r  SC1e  1 4.300000e-01    2.530000e+00
   N1r  SX4e  1 4.300000e-01    3.160000e+00
   N1r  SX3e  1 4.300000e-01    3.160000e+00
   N1r  SX2e  1 4.300000e-01    2.920000e+00
   N1r  SX1e  1 4.300000e-01    2.920000e+00
   P6q  SN1r  1 4.300000e-01    2.770000e+00
   P5q  SN1r  1 4.300000e-01    2.770000e+00
   P4q  SN1r  1 4.300000e-01    2.920000e+00
   P3q  SN1r  1 4.300000e-01    3.160000e+00
   P2q  SN1r  1 4.300000e-01    3.380000e+00
   P1q  SN1r  1 4.300000e-01    3.380000e+00
   N6q  SN1r  1 4.300000e-01    3.380000e+00
   N5q  SN1r  1 4.300000e-01    3.380000e+00
   N4q  SN1r  1 4.300000e-01    3.380000e+00
   N3q  SN1r  1 4.300000e-01    3.380000e+00
   N2q  SN1r  1 4.300000e-01    3.380000e+00
   N1r  SN1q  1 4.300000e-01    3.590000e+00
   N1r SX1eq  1 4.300000e-01    3.380000e+00
   N1r SX2eq  1 4.300000e-01    3.380000e+00
   N1r SX3eq  1 4.300000e-01    3.590000e+00
   N1r SX4eq  1 4.300000e-01    3.590000e+00
   N1r SC1eq  1 4.300000e-01    2.920000e+00
   N1r SC2eq  1 4.300000e-01    3.160000e+00
   N1r SC3eq  1 4.300000e-01    3.380000e+00
   N1r SC4eq  1 4.300000e-01    3.590000e+00
   N1r SC5eq  1 4.300000e-01    3.590000e+00
   N1r SC6eq  1 4.300000e-01    3.770000e+00
   N1r SX1vq  1 4.300000e-01    3.380000e+00
   N1r SX2vq  1 4.300000e-01    3.380000e+00
   N1r SX3vq  1 4.300000e-01    3.590000e+00
   N1r SX4vq  1 4.300000e-01    3.590000e+00
   N1r SC1vq  1 4.300000e-01    2.920000e+00
   N1r SC2vq  1 4.300000e-01    3.160000e+00
   N1r SC3vq  1 4.300000e-01    3.380000e+00
   N1r SC4vq  1 4.300000e-01    3.590000e+00
   N1r SC5vq  1 4.300000e-01    3.590000e+00
   N1r SC6vq  1 4.300000e-01    3.770000e+00
   N1r SN1aq  1 4.300000e-01    3.590000e+00
  N2aq  SN1r  1 4.300000e-01    3.380000e+00
  N3aq  SN1r  1 4.300000e-01    3.380000e+00
  N4aq  SN1r  1 4.300000e-01    3.380000e+00
  N5aq  SN1r  1 4.300000e-01    3.380000e+00
  N6aq  SN1r  1 4.300000e-01    3.380000e+00
  P1aq  SN1r  1 4.300000e-01    3.380000e+00
  P2aq  SN1r  1 4.300000e-01    3.380000e+00
  P3aq  SN1r  1 4.300000e-01    3.160000e+00
  P4aq  SN1r  1 4.300000e-01    2.920000e+00
  P5aq  SN1r  1 4.300000e-01    2.770000e+00
  P6aq  SN1r  1 4.300000e-01    2.770000e+00
   N1r SN1dq  1 4.300000e-01    3.590000e+00
  N2dq  SN1r  1 4.300000e-01    3.380000e+00
  N3dq  SN1r  1 4.300000e-01    3.380000e+00
  N4dq  SN1r  1 4.300000e-01    3.380000e+00
  N5dq  SN1r  1 4.300000e-01    3.380000e+00
  N6dq  SN1r  1 4.300000e-01    3.380000e+00
  P1dq  SN1r  1 4.300000e-01    3.380000e+00
  P2dq  SN1r  1 4.300000e-01    3.380000e+00
  P3dq  SN1r  1 4.300000e-01    3.160000e+00
  P4dq  SN1r  1 4.300000e-01    2.920000e+00
  P5dq  SN1r  1 4.300000e-01    2.770000e+00
  P6dq  SN1r  1 4.300000e-01    2.770000e+00
   N1r  SX1q  1 4.300000e-01    3.160000e+00
   N1r  SX2q  1 4.300000e-01    3.160000e+00
   N1r  SX3q  1 4.300000e-01    3.380000e+00
   N1r  SX4q  1 4.300000e-01    3.380000e+00
   N1r  SC1q  1 4.300000e-01    2.770000e+00
   N1r  SC2q  1 4.300000e-01    2.920000e+00
   N1r  SC3q  1 4.300000e-01    3.160000e+00
   N1r  SC4q  1 4.300000e-01    3.380000e+00
   N1r  SC5q  1 4.300000e-01    3.380000e+00
   N1r  SC6q  1 4.300000e-01    3.590000e+00
   P6d  SC6r  1 4.300000e-01    2.320000e+00
   P5d  SC6r  1 4.300000e-01    2.320000e+00
   P4d  SC6r  1 4.300000e-01    2.530000e+00
   P3d  SC6r  1 4.300000e-01    2.770000e+00
   P2d  SC6r  1 4.300000e-01    2.770000e+00
   P1d  SC6r  1 4.300000e-01    2.770000e+00
   N6d  SC6r  1 4.300000e-01    2.920000e+00
   N5d  SC6r  1 4.300000e-01    2.920000e+00
   N4d  SC6r  1 4.300000e-01    2.920000e+00
   N3d  SC6r  1 4.300000e-01    2.920000e+00
   N2d  SC6r  1 4.300000e-01    2.920000e+00
   N1d  SC6r  1 4.300000e-01    3.160000e+00
   P6a  SC6r  1 4.300000e-01    2.320000e+00
   P5a  SC6r  1 4.300000e-01    2.320000e+00
   P4a  SC6r  1 4.300000e-01    2.530000e+00
   P3a  SC6r  1 4.300000e-01    2.770000e+00
   P2a  SC6r  1 4.300000e-01    2.770000e+00
   P1a  SC6r  1 4.300000e-01    2.770000e+00
   N6a  SC6r  1 4.300000e-01    2.920000e+00
   N5a  SC6r  1 4.300000e-01    2.920000e+00
   N4a  SC6r  1 4.300000e-01    2.920000e+00
   N3a  SC6r  1 4.300000e-01    2.920000e+00
   N2a  SC6r  1 4.300000e-01    2.920000e+00
   N1a  SC6r  1 4.300000e-01    3.160000e+00
   C6r  SC6v  1 4.300000e-01    3.380000e+00
   C6r  SX1v  1 4.300000e-01    3.160000e+00
   C6r  SX2v  1 4.300000e-01    3.160000e+00
   C6r  SX3v  1 4.300000e-01    3.160000e+00
   C6r  SX4v  1 4.300000e-01    3.160000e+00
   C6r  SC1v  1 4.300000e-01    2.530000e+00
   C6r  SC2v  1 4.300000e-01    2.770000e+00
   C6r  SC3v  1 4.300000e-01    2.920000e+00
   C6r  SC4v  1 4.300000e-01    3.160000e+00
   C6r  SC5v  1 4.300000e-01    3.160000e+00
   C6r  SC6e  1 4.300000e-01    3.380000e+00
   C6r  SX1e  1 4.300000e-01    3.160000e+00
   C6r  SX2e  1 4.300000e-01    3.160000e+00
   C6r  SX3e  1 4.300000e-01    3.160000e+00
   C6r  SX4e  1 4.300000e-01    3.160000e+00
   C6r  SC1e  1 4.300000e-01    2.530000e+00
   C6r  SC2e  1 4.300000e-01    2.770000e+00
   C6r  SC3e  1 4.300000e-01    2.920000e+00
   C6r  SC4e  1 4.300000e-01    3.160000e+00
   C6r  SC5e  1 4.300000e-01    3.160000e+00
   P6q  SC6r  1 4.300000e-01    2.770000e+00
   P5q  SC6r  1 4.300000e-01    2.770000e+00
   P4q  SC6r  1 4.300000e-01    2.920000e+00
   P3q  SC6r  1 4.300000e-01    3.160000e+00
   P2q  SC6r  1 4.300000e-01    3.160000e+00
   P1q  SC6r  1 4.300000e-01    3.160000e+00
   N6q  SC6r  1 4.300000e-01    3.380000e+00
   N5q  SC6r  1 4.300000e-01    3.380000e+00
   N4q  SC6r  1 4.300000e-01    3.380000e+00
   N3q  SC6r  1 4.300000e-01    3.380000e+00
   N2q  SC6r  1 4.300000e-01    3.380000e+00
   N1q  SC6r  1 4.300000e-01    3.590000e+00
   C6r  SC6q  1 4.300000e-01    3.590000e+00
   C6r SX1eq  1 4.300000e-01    3.590000e+00
   C6r SX2eq  1 4.300000e-01    3.590000e+00
   C6r SX3eq  1 4.300000e-01    3.590000e+00
   C6r SX4eq  1 4.300000e-01    3.590000e+00
   C6r SC1eq  1 4.300000e-01    2.920000e+00
   C6r SC2eq  1 4.300000e-01    3.160000e+00
   C6r SC3eq  1 4.300000e-01    3.380000e+00
   C6r SC4eq  1 4.300000e-01    3.590000e+00
   C6r SC5eq  1 4.300000e-01    3.590000e+00
   C6r SC6eq  1 4.300000e-01    3.770000e+00
   C6r SX1vq  1 4.300000e-01    3.590000e+00
   C6r SX2vq  1 4.300000e-01    3.590000e+00
   C6r SX3vq  1 4.300000e-01    3.590000e+00
   C6r SX4vq  1 4.300000e-01    3.590000e+00
   C6r SC1vq  1 4.300000e-01    2.920000e+00
   C6r SC2vq  1 4.300000e-01    3.160000e+00
   C6r SC3vq  1 4.300000e-01    3.380000e+00
   C6r SC4vq  1 4.300000e-01    3.590000e+00
   C6r SC5vq  1 4.300000e-01    3.590000e+00
   C6r SC6vq  1 4.300000e-01    3.770000e+00
  N1aq  SC6r  1 4.300000e-01    3.590000e+00
  N2aq  SC6r  1 4.300000e-01    3.380000e+00
  N3aq  SC6r  1 4.300000e-01    3.380000e+00
  N4aq  SC6r  1 4.300000e-01    3.380000e+00
  N5aq  SC6r  1 4.300000e-01    3.380000e+00
  N6aq  SC6r  1 4.300000e-01    3.380000e+00
  P1aq  SC6r  1 4.300000e-01    3.160000e+00
  P2aq  SC6r  1 4.300000e-01    3.160000e+00
  P3aq  SC6r  1 4.300000e-01    3.160000e+00
  P4aq  SC6r  1 4.300000e-01    2.920000e+00
  P5aq  SC6r  1 4.300000e-01    2.770000e+00
  P6aq  SC6r  1 4.300000e-01    2.770000e+00
  N1dq  SC6r  1 4.300000e-01    3.590000e+00
  N2dq  SC6r  1 4.300000e-01    3.380000e+00
  N3dq  SC6r  1 4.300000e-01    3.380000e+00
  N4dq  SC6r  1 4.300000e-01    3.380000e+00
  N5dq  SC6r  1 4.300000e-01    3.380000e+00
  N6dq  SC6r  1 4.300000e-01    3.380000e+00
  P1dq  SC6r  1 4.300000e-01    3.160000e+00
  P2dq  SC6r  1 4.300000e-01    3.160000e+00
  P3dq  SC6r  1 4.300000e-01    3.160000e+00
  P4dq  SC6r  1 4.300000e-01    2.920000e+00
  P5dq  SC6r  1 4.300000e-01    2.770000e+00
  P6dq  SC6r  1 4.300000e-01    2.770000e+00
   C6r  SX1q  1 4.300000e-01    3.380000e+00
   C6r  SX2q  1 4.300000e-01    3.380000e+00
   C6r  SX3q  1 4.300000e-01    3.380000e+00
   C6r  SX4q  1 4.300000e-01    3.380000e+00
   C6r  SC1q  1 4.300000e-01    2.770000e+00
   C6r  SC2q  1 4.300000e-01    2.920000e+00
   C6r  SC3q  1 4.300000e-01    3.160000e+00
   C6r  SC4q  1 4.300000e-01    3.380000e+00
   C6r  SC5q  1 4.300000e-01    3.380000e+00
   P6d  SC5r  1 4.300000e-01    2.160000e+00
   P5d  SC5r  1 4.300000e-01    2.320000e+00
   P4d  SC5r  1 4.300000e-01    2.320000e+00
   P3d  SC5r  1 4.300000e-01    2.530000e+00
   P2d  SC5r  1 4.300000e-01    2.530000e+00
   P1d  SC5r  1 4.300000e-01    2.530000e+00
   N6d  SC5r  1 4.300000e-01    2.770000e+00
   N5d  SC5r  1 4.300000e-01    2.770000e+00
   N4d  SC5r  1 4.300000e-01    2.770000e+00
   N3d  SC5r  1 4.300000e-01    2.770000e+00
   N2d  SC5r  1 4.300000e-01    2.770000e+00
   N1d  SC5r  1 4.300000e-01    2.920000e+00
   P6a  SC5r  1 4.300000e-01    2.160000e+00
   P5a  SC5r  1 4.300000e-01    2.320000e+00
   P4a  SC5r  1 4.300000e-01    2.320000e+00
   P3a  SC5r  1 4.300000e-01    2.530000e+00
   P2a  SC5r  1 4.300000e-01    2.530000e+00
   P1a  SC5r  1 4.300000e-01    2.530000e+00
   N6a  SC5r  1 4.300000e-01    2.770000e+00
   N5a  SC5r  1 4.300000e-01    2.770000e+00
   N4a  SC5r  1 4.300000e-01    2.770000e+00
   N3a  SC5r  1 4.300000e-01    2.770000e+00
   N2a  SC5r  1 4.300000e-01    2.770000e+00
   N1a  SC5r  1 4.300000e-01    2.920000e+00
   C6v  SC5r  1 4.300000e-01    3.160000e+00
   C5r  SC5v  1 4.300000e-01    3.160000e+00
   C5r  SX1v  1 4.300000e-01    3.160000e+00
   C5r  SX2v  1 4.300000e-01    2.920000e+00
   C5r  SX3v  1 4.300000e-01    2.920000e+00
   C5r  SX4v  1 4.300000e-01    2.920000e+00
   C5r  SC1v  1 4.300000e-01    2.770000e+00
   C5r  SC2v  1 4.300000e-01    2.770000e+00
   C5r  SC3v  1 4.300000e-01    2.920000e+00
   C5r  SC4v  1 4.300000e-01    3.160000e+00
   C6e  SC5r  1 4.300000e-01    3.160000e+00
   C5r  SC5e  1 4.300000e-01    3.160000e+00
   C5r  SX1e  1 4.300000e-01    3.160000e+00
   C5r  SX2e  1 4.300000e-01    2.920000e+00
   C5r  SX3e  1 4.300000e-01    2.920000e+00
   C5r  SX4e  1 4.300000e-01    2.920000e+00
   C5r  SC1e  1 4.300000e-01    2.770000e+00
   C5r  SC2e  1 4.300000e-01    2.770000e+00
   C5r  SC3e  1 4.300000e-01    2.920000e+00
   C5r  SC4e  1 4.300000e-01    3.160000e+00
   P6q  SC5r  1 4.300000e-01    2.530000e+00
   P5q  SC5r  1 4.300000e-01    2.770000e+00
   P4q  SC5r  1 4.300000e-01    2.770000e+00
   P3q  SC5r  1 4.300000e-01    2.920000e+00
   P2q  SC5r  1 4.300000e-01    2.920000e+00
   P1q  SC5r  1 4.300000e-01    2.920000e+00
   N6q  SC5r  1 4.300000e-01    3.160000e+00
   N5q  SC5r  1 4.300000e-01    3.160000e+00
   N4q  SC5r  1 4.300000e-01    3.160000e+00
   N3q  SC5r  1 4.300000e-01    3.160000e+00
   N2q  SC5r  1 4.300000e-01    3.160000e+00
   N1q  SC5r  1 4.300000e-01    3.380000e+00
   C6q  SC5r  1 4.300000e-01    3.380000e+00
   C5r  SC5q  1 4.300000e-01    3.380000e+00
   C5r SX1eq  1 4.300000e-01    3.590000e+00
   C5r SX2eq  1 4.300000e-01    3.380000e+00
   C5r SX3eq  1 4.300000e-01    3.380000e+00
   C5r SX4eq  1 4.300000e-01    3.380000e+00
   C5r SC1eq  1 4.300000e-01    3.160000e+00
   C5r SC2eq  1 4.300000e-01    3.160000e+00
   C5r SC3eq  1 4.300000e-01    3.380000e+00
   C5r SC4eq  1 4.300000e-01    3.590000e+00
   C5r SC5eq  1 4.300000e-01    3.590000e+00
  C6eq  SC5r  1 4.300000e-01    3.590000e+00
   C5r SX1vq  1 4.300000e-01    3.590000e+00
   C5r SX2vq  1 4.300000e-01    3.380000e+00
   C5r SX3vq  1 4.300000e-01    3.380000e+00
   C5r SX4vq  1 4.300000e-01    3.380000e+00
   C5r SC1vq  1 4.300000e-01    3.160000e+00
   C5r SC2vq  1 4.300000e-01    3.160000e+00
   C5r SC3vq  1 4.300000e-01    3.380000e+00
   C5r SC4vq  1 4.300000e-01    3.590000e+00
   C5r SC5vq  1 4.300000e-01    3.590000e+00
  C6vq  SC5r  1 4.300000e-01    3.590000e+00
  N1aq  SC5r  1 4.300000e-01    3.380000e+00
  N2aq  SC5r  1 4.300000e-01    3.160000e+00
  N3aq  SC5r  1 4.300000e-01    3.160000e+00
  N4aq  SC5r  1 4.300000e-01    3.160000e+00
  N5aq  SC5r  1 4.300000e-01    3.160000e+00
  N6aq  SC5r  1 4.300000e-01    3.160000e+00
  P1aq  SC5r  1 4.300000e-01    2.920000e+00
  P2aq  SC5r  1 4.300000e-01    2.920000e+00
  P3aq  SC5r  1 4.300000e-01    2.920000e+00
  P4aq  SC5r  1 4.300000e-01    2.770000e+00
  P5aq  SC5r  1 4.300000e-01    2.770000e+00
  P6aq  SC5r  1 4.300000e-01    2.530000e+00
  N1dq  SC5r  1 4.300000e-01    3.380000e+00
  N2dq  SC5r  1 4.300000e-01    3.160000e+00
  N3dq  SC5r  1 4.300000e-01    3.160000e+00
  N4dq  SC5r  1 4.300000e-01    3.160000e+00
  N5dq  SC5r  1 4.300000e-01    3.160000e+00
  N6dq  SC5r  1 4.300000e-01    3.160000e+00
  P1dq  SC5r  1 4.300000e-01    2.920000e+00
  P2dq  SC5r  1 4.300000e-01    2.920000e+00
  P3dq  SC5r  1 4.300000e-01    2.920000e+00
  P4dq  SC5r  1 4.300000e-01    2.770000e+00
  P5dq  SC5r  1 4.300000e-01    2.770000e+00
  P6dq  SC5r  1 4.300000e-01    2.530000e+00
   C5r  SX1q  1 4.300000e-01    3.380000e+00
   C5r  SX2q  1 4.300000e-01    3.160000e+00
   C5r  SX3q  1 4.300000e-01    3.160000e+00
   C5r  SX4q  1 4.300000e-01    3.160000e+00
   C5r  SC1q  1 4.300000e-01    2.920000e+00
   C5r  SC2q  1 4.300000e-01    2.920000e+00
   C5r  SC3q  1 4.300000e-01    3.160000e+00
   C5r  SC4q  1 4.300000e-01    3.380000e+00
   P6d  SC4r  1 4.300000e-01    1.930000e+00
   P5d  SC4r  1 4.300000e-01    2.160000e+00
   P4d  SC4r  1 4.300000e-01    2.160000e+00
   P3d  SC4r  1 4.300000e-01    2.320000e+00
   P2d  SC4r  1 4.300000e-01    2.320000e+00
   P1d  SC4r  1 4.300000e-01    2.320000e+00
   N6d  SC4r  1 4.300000e-01    2.530000e+00
   N5d  SC4r  1 4.300000e-01    2.530000e+00
   N4d  SC4r  1 4.300000e-01    2.770000e+00
   N3d  SC4r  1 4.300000e-01    2.770000e+00
   N2d  SC4r  1 4.300000e-01    2.770000e+00
   N1d  SC4r  1 4.300000e-01    2.920000e+00
   P6a  SC4r  1 4.300000e-01    1.930000e+00
   P5a  SC4r  1 4.300000e-01    2.160000e+00
   P4a  SC4r  1 4.300000e-01    2.160000e+00
   P3a  SC4r  1 4.300000e-01    2.320000e+00
   P2a  SC4r  1 4.300000e-01    2.320000e+00
   P1a  SC4r  1 4.300000e-01    2.320000e+00
   N6a  SC4r  1 4.300000e-01    2.530000e+00
   N5a  SC4r  1 4.300000e-01    2.530000e+00
   N4a  SC4r  1 4.300000e-01    2.770000e+00
   N3a  SC4r  1 4.300000e-01    2.770000e+00
   N2a  SC4r  1 4.300000e-01    2.770000e+00
   N1a  SC4r  1 4.300000e-01    2.920000e+00
   C6v  SC4r  1 4.300000e-01    3.160000e+00
   C5v  SC4r  1 4.300000e-01    3.160000e+00
   C4r  SC4v  1 4.300000e-01    3.160000e+00
   C4r  SX1v  1 4.300000e-01    3.160000e+00
   C4r  SX2v  1 4.300000e-01    2.920000e+00
   C4r  SX3v  1 4.300000e-01    2.920000e+00
   C4r  SX4v  1 4.300000e-01    2.920000e+00
   C4r  SC1v  1 4.300000e-01    2.770000e+00
   C4r  SC2v  1 4.300000e-01    2.920000e+00
   C4r  SC3v  1 4.300000e-01    3.160000e+00
   C6e  SC4r  1 4.300000e-01    3.160000e+00
   C5e  SC4r  1 4.300000e-01    3.160000e+00
   C4r  SC4e  1 4.300000e-01    3.160000e+00
   C4r  SX1e  1 4.300000e-01    3.160000e+00
   C4r  SX2e  1 4.300000e-01    2.920000e+00
   C4r  SX3e  1 4.300000e-01    2.920000e+00
   C4r  SX4e  1 4.300000e-01    2.920000e+00
   C4r  SC1e  1 4.300000e-01    2.770000e+00
   C4r  SC2e  1 4.300000e-01    2.920000e+00
   C4r  SC3e  1 4.300000e-01    3.160000e+00
   P6q  SC4r  1 4.300000e-01    2.320000e+00
   P5q  SC4r  1 4.300000e-01    2.530000e+00
   P4q  SC4r  1 4.300000e-01    2.530000e+00
   P3q  SC4r  1 4.300000e-01    2.770000e+00
   P2q  SC4r  1 4.300000e-01    2.770000e+00
   P1q  SC4r  1 4.300000e-01    2.770000e+00
   N6q  SC4r  1 4.300000e-01    2.920000e+00
   N5q  SC4r  1 4.300000e-01    2.920000e+00
   N4q  SC4r  1 4.300000e-01    3.160000e+00
   N3q  SC4r  1 4.300000e-01    3.160000e+00
   N2q  SC4r  1 4.300000e-01    3.160000e+00
   N1q  SC4r  1 4.300000e-01    3.380000e+00
   C6q  SC4r  1 4.300000e-01    3.380000e+00
   C5q  SC4r  1 4.300000e-01    3.380000e+00
   C4r  SC4q  1 4.300000e-01    3.380000e+00
   C4r SX1eq  1 4.300000e-01    3.590000e+00
   C4r SX2eq  1 4.300000e-01    3.380000e+00
   C4r SX3eq  1 4.300000e-01    3.380000e+00
   C4r SX4eq  1 4.300000e-01    3.380000e+00
   C4r SC1eq  1 4.300000e-01    3.160000e+00
   C4r SC2eq  1 4.300000e-01    3.380000e+00
   C4r SC3eq  1 4.300000e-01    3.590000e+00
   C4r SC4eq  1 4.300000e-01    3.590000e+00
  C5eq  SC4r  1 4.300000e-01    3.590000e+00
  C6eq  SC4r  1 4.300000e-01    3.590000e+00
   C4r SX1vq  1 4.300000e-01    3.590000e+00
   C4r SX2vq  1 4.300000e-01    3.380000e+00
   C4r SX3vq  1 4.300000e-01    3.380000e+00
   C4r SX4vq  1 4.300000e-01    3.380000e+00
   C4r SC1vq  1 4.300000e-01    3.160000e+00
   C4r SC2vq  1 4.300000e-01    3.380000e+00
   C4r SC3vq  1 4.300000e-01    3.590000e+00
   C4r SC4vq  1 4.300000e-01    3.590000e+00
  C5vq  SC4r  1 4.300000e-01    3.590000e+00
  C6vq  SC4r  1 4.300000e-01    3.590000e+00
  N1aq  SC4r  1 4.300000e-01    3.380000e+00
  N2aq  SC4r  1 4.300000e-01    3.160000e+00
  N3aq  SC4r  1 4.300000e-01    3.160000e+00
  N4aq  SC4r  1 4.300000e-01    3.160000e+00
  N5aq  SC4r  1 4.300000e-01    2.920000e+00
  N6aq  SC4r  1 4.300000e-01    2.920000e+00
  P1aq  SC4r  1 4.300000e-01    2.770000e+00
  P2aq  SC4r  1 4.300000e-01    2.770000e+00
  P3aq  SC4r  1 4.300000e-01    2.770000e+00
  P4aq  SC4r  1 4.300000e-01    2.530000e+00
  P5aq  SC4r  1 4.300000e-01    2.530000e+00
  P6aq  SC4r  1 4.300000e-01    2.320000e+00
  N1dq  SC4r  1 4.300000e-01    3.380000e+00
  N2dq  SC4r  1 4.300000e-01    3.160000e+00
  N3dq  SC4r  1 4.300000e-01    3.160000e+00
  N4dq  SC4r  1 4.300000e-01    3.160000e+00
  N5dq  SC4r  1 4.300000e-01    2.920000e+00
  N6dq  SC4r  1 4.300000e-01    2.920000e+00
  P1dq  SC4r  1 4.300000e-01    2.770000e+00
  P2dq  SC4r  1 4.300000e-01    2.770000e+00
  P3dq  SC4r  1 4.300000e-01    2.770000e+00
  P4dq  SC4r  1 4.300000e-01    2.530000e+00
  P5dq  SC4r  1 4.300000e-01    2.530000e+00
  P6dq  SC4r  1 4.300000e-01    2.320000e+00
   C4r  SX1q  1 4.300000e-01    3.380000e+00
   C4r  SX2q  1 4.300000e-01    3.160000e+00
   C4r  SX3q  1 4.300000e-01    3.160000e+00
   C4r  SX4q  1 4.300000e-01    3.160000e+00
   C4r  SC1q  1 4.300000e-01    2.920000e+00
   C4r  SC2q  1 4.300000e-01    3.160000e+00
   C4r  SC3q  1 4.300000e-01    3.380000e+00
   P6d  SC3r  1 4.300000e-01    1.730000e+00
   P5d  SC3r  1 4.300000e-01    1.930000e+00
   P4d  SC3r  1 4.300000e-01    1.930000e+00
   P3d  SC3r  1 4.300000e-01    1.930000e+00
   P2d  SC3r  1 4.300000e-01    2.160000e+00
   P1d  SC3r  1 4.300000e-01    2.160000e+00
   N6d  SC3r  1 4.300000e-01    2.320000e+00
   N5d  SC3r  1 4.300000e-01    2.530000e+00
   N4d  SC3r  1 4.300000e-01    2.530000e+00
   N3d  SC3r  1 4.300000e-01    2.530000e+00
   N2d  SC3r  1 4.300000e-01    2.770000e+00
   N1d  SC3r  1 4.300000e-01    2.770000e+00
   P6a  SC3r  1 4.300000e-01    1.730000e+00
   P5a  SC3r  1 4.300000e-01    1.930000e+00
   P4a  SC3r  1 4.300000e-01    1.930000e+00
   P3a  SC3r  1 4.300000e-01    1.930000e+00
   P2a  SC3r  1 4.300000e-01    2.160000e+00
   P1a  SC3r  1 4.300000e-01    2.160000e+00
   N6a  SC3r  1 4.300000e-01    2.320000e+00
   N5a  SC3r  1 4.300000e-01    2.530000e+00
   N4a  SC3r  1 4.300000e-01    2.530000e+00
   N3a  SC3r  1 4.300000e-01    2.530000e+00
   N2a  SC3r  1 4.300000e-01    2.770000e+00
   N1a  SC3r  1 4.300000e-01    2.770000e+00
   C6v  SC3r  1 4.300000e-01    2.920000e+00
   C5v  SC3r  1 4.300000e-01    2.920000e+00
   C4v  SC3r  1 4.300000e-01    3.160000e+00
   C3r  SC3v  1 4.300000e-01    3.160000e+00
   C3r  SX1v  1 4.300000e-01    3.160000e+00
   C3r  SX2v  1 4.300000e-01    2.920000e+00
   C3r  SX3v  1 4.300000e-01    2.920000e+00
   C3r  SX4v  1 4.300000e-01    2.920000e+00
   C3r  SC1v  1 4.300000e-01    3.160000e+00
   C3r  SC2v  1 4.300000e-01    3.160000e+00
   C6e  SC3r  1 4.300000e-01    2.920000e+00
   C5e  SC3r  1 4.300000e-01    2.920000e+00
   C4e  SC3r  1 4.300000e-01    3.160000e+00
   C3r  SC3e  1 4.300000e-01    3.160000e+00
   C3r  SX1e  1 4.300000e-01    3.160000e+00
   C3r  SX2e  1 4.300000e-01    2.920000e+00
   C3r  SX3e  1 4.300000e-01    2.920000e+00
   C3r  SX4e  1 4.300000e-01    2.920000e+00
   C3r  SC1e  1 4.300000e-01    3.160000e+00
   C3r  SC2e  1 4.300000e-01    3.160000e+00
   P6q  SC3r  1 4.300000e-01    2.160000e+00
   P5q  SC3r  1 4.300000e-01    2.320000e+00
   P4q  SC3r  1 4.300000e-01    2.320000e+00
   P3q  SC3r  1 4.300000e-01    2.320000e+00
   P2q  SC3r  1 4.300000e-01    2.530000e+00
   P1q  SC3r  1 4.300000e-01    2.530000e+00
   N6q  SC3r  1 4.300000e-01    2.770000e+00
   N5q  SC3r  1 4.300000e-01    2.920000e+00
   N4q  SC3r  1 4.300000e-01    2.920000e+00
   N3q  SC3r  1 4.300000e-01    2.920000e+00
   N2q  SC3r  1 4.300000e-01    3.160000e+00
   N1q  SC3r  1 4.300000e-01    3.160000e+00
   C6q  SC3r  1 4.300000e-01    3.160000e+00
   C5q  SC3r  1 4.300000e-01    3.160000e+00
   C4q  SC3r  1 4.300000e-01    3.380000e+00
   C3r  SC3q  1 4.300000e-01    3.380000e+00
   C3r SX1eq  1 4.300000e-01    3.590000e+00
   C3r SX2eq  1 4.300000e-01    3.380000e+00
   C3r SX3eq  1 4.300000e-01    3.380000e+00
   C3r SX4eq  1 4.300000e-01    3.380000e+00
   C3r SC1eq  1 4.300000e-01    3.590000e+00
   C3r SC2eq  1 4.300000e-01    3.590000e+00
   C3r SC3eq  1 4.300000e-01    3.590000e+00
  C4eq  SC3r  1 4.300000e-01    3.590000e+00
  C5eq  SC3r  1 4.300000e-01    3.380000e+00
  C6eq  SC3r  1 4.300000e-01    3.380000e+00
   C3r SX1vq  1 4.300000e-01    3.590000e+00
   C3r SX2vq  1 4.300000e-01    3.380000e+00
   C3r SX3vq  1 4.300000e-01    3.380000e+00
   C3r SX4vq  1 4.300000e-01    3.380000e+00
   C3r SC1vq  1 4.300000e-01    3.590000e+00
   C3r SC2vq  1 4.300000e-01    3.590000e+00
   C3r SC3vq  1 4.300000e-01    3.590000e+00
  C4vq  SC3r  1 4.300000e-01    3.590000e+00
  C5vq  SC3r  1 4.300000e-01    3.380000e+00
  C6vq  SC3r  1 4.300000e-01    3.380000e+00
  N1aq  SC3r  1 4.300000e-01    3.160000e+00
  N2aq  SC3r  1 4.300000e-01    3.160000e+00
  N3aq  SC3r  1 4.300000e-01    2.920000e+00
  N4aq  SC3r  1 4.300000e-01    2.920000e+00
  N5aq  SC3r  1 4.300000e-01    2.920000e+00
  N6aq  SC3r  1 4.300000e-01    2.770000e+00
  P1aq  SC3r  1 4.300000e-01    2.530000e+00
  P2aq  SC3r  1 4.300000e-01    2.530000e+00
  P3aq  SC3r  1 4.300000e-01    2.320000e+00
  P4aq  SC3r  1 4.300000e-01    2.320000e+00
  P5aq  SC3r  1 4.300000e-01    2.320000e+00
  P6aq  SC3r  1 4.300000e-01    2.160000e+00
  N1dq  SC3r  1 4.300000e-01    3.160000e+00
  N2dq  SC3r  1 4.300000e-01    3.160000e+00
  N3dq  SC3r  1 4.300000e-01    2.920000e+00
  N4dq  SC3r  1 4.300000e-01    2.920000e+00
  N5dq  SC3r  1 4.300000e-01    2.920000e+00
  N6dq  SC3r  1 4.300000e-01    2.770000e+00
  P1dq  SC3r  1 4.300000e-01    2.530000e+00
  P2dq  SC3r  1 4.300000e-01    2.530000e+00
  P3dq  SC3r  1 4.300000e-01    2.320000e+00
  P4dq  SC3r  1 4.300000e-01    2.320000e+00
  P5dq  SC3r  1 4.300000e-01    2.320000e+00
  P6dq  SC3r  1 4.300000e-01    2.160000e+00
   C3r  SX1q  1 4.300000e-01    3.380000e+00
   C3r  SX2q  1 4.300000e-01    3.160000e+00
   C3r  SX3q  1 4.300000e-01    3.160000e+00
   C3r  SX4q  1 4.300000e-01    3.160000e+00
   C3r  SC1q  1 4.300000e-01    3.380000e+00
   C3r  SC2q  1 4.300000e-01    3.380000e+00
   P6d  SC2r  1 4.300000e-01    1.730000e+00
   P5d  SC2r  1 4.300000e-01    1.930000e+00
   P4d  SC2r  1 4.300000e-01    1.930000e+00
   P3d  SC2r  1 4.300000e-01    1.930000e+00
   P2d  SC2r  1 4.300000e-01    2.160000e+00
   P1d  SC2r  1 4.300000e-01    2.160000e+00
   N6d  SC2r  1 4.300000e-01    2.320000e+00
   N5d  SC2r  1 4.300000e-01    2.320000e+00
   N4d  SC2r  1 4.300000e-01    2.320000e+00
   N3d  SC2r  1 4.300000e-01    2.530000e+00
   N2d  SC2r  1 4.300000e-01    2.530000e+00
   N1d  SC2r  1 4.300000e-01    2.530000e+00
   P6a  SC2r  1 4.300000e-01    1.730000e+00
   P5a  SC2r  1 4.300000e-01    1.930000e+00
   P4a  SC2r  1 4.300000e-01    1.930000e+00
   P3a  SC2r  1 4.300000e-01    1.930000e+00
   P2a  SC2r  1 4.300000e-01    2.160000e+00
   P1a  SC2r  1 4.300000e-01    2.160000e+00
   N6a  SC2r  1 4.300000e-01    2.320000e+00
   N5a  SC2r  1 4.300000e-01    2.320000e+00
   N4a  SC2r  1 4.300000e-01    2.320000e+00
   N3a  SC2r  1 4.300000e-01    2.530000e+00
   N2a  SC2r  1 4.300000e-01    2.530000e+00
   N1a  SC2r  1 4.300000e-01    2.530000e+00
   C6v  SC2r  1 4.300000e-01    2.770000e+00
   C5v  SC2r  1 4.300000e-01    2.770000e+00
   C4v  SC2r  1 4.300000e-01    2.920000e+00
   C3v  SC2r  1 4.300000e-01    3.160000e+00
   C2r  SC2v  1 4.300000e-01    3.160000e+00
   C2r  SX1v  1 4.300000e-01    2.920000e+00
   C2r  SX2v  1 4.300000e-01    2.920000e+00
   C2r  SX3v  1 4.300000e-01    2.920000e+00
   C2r  SX4v  1 4.300000e-01    2.530000e+00
   C2r  SC1v  1 4.300000e-01    3.380000e+00
   C6e  SC2r  1 4.300000e-01    2.770000e+00
   C5e  SC2r  1 4.300000e-01    2.770000e+00
   C4e  SC2r  1 4.300000e-01    2.920000e+00
   C3e  SC2r  1 4.300000e-01    3.160000e+00
   C2r  SC2e  1 4.300000e-01    3.160000e+00
   C2r  SX1e  1 4.300000e-01    2.920000e+00
   C2r  SX2e  1 4.300000e-01    2.920000e+00
   C2r  SX3e  1 4.300000e-01    2.920000e+00
   C2r  SX4e  1 4.300000e-01    2.530000e+00
   C2r  SC1e  1 4.300000e-01    3.380000e+00
   P6q  SC2r  1 4.300000e-01    2.160000e+00
   P5q  SC2r  1 4.300000e-01    2.320000e+00
   P4q  SC2r  1 4.300000e-01    2.320000e+00
   P3q  SC2r  1 4.300000e-01    2.320000e+00
   P2q  SC2r  1 4.300000e-01    2.530000e+00
   P1q  SC2r  1 4.300000e-01    2.530000e+00
   N6q  SC2r  1 4.300000e-01    2.770000e+00
   N5q  SC2r  1 4.300000e-01    2.770000e+00
   N4q  SC2r  1 4.300000e-01    2.770000e+00
   N3q  SC2r  1 4.300000e-01    2.920000e+00
   N2q  SC2r  1 4.300000e-01    2.920000e+00
   N1q  SC2r  1 4.300000e-01    2.920000e+00
   C6q  SC2r  1 4.300000e-01    2.920000e+00
   C5q  SC2r  1 4.300000e-01    2.920000e+00
   C4q  SC2r  1 4.300000e-01    3.160000e+00
   C3q  SC2r  1 4.300000e-01    3.380000e+00
   C2r  SC2q  1 4.300000e-01    3.380000e+00
   C2r SX1eq  1 4.300000e-01    3.380000e+00
   C2r SX2eq  1 4.300000e-01    3.380000e+00
   C2r SX3eq  1 4.300000e-01    3.380000e+00
   C2r SX4eq  1 4.300000e-01    2.920000e+00
   C2r SC1eq  1 4.300000e-01    3.770000e+00
   C2r SC2eq  1 4.300000e-01    3.590000e+00
  C3eq  SC2r  1 4.300000e-01    3.590000e+00
  C4eq  SC2r  1 4.300000e-01    3.380000e+00
  C5eq  SC2r  1 4.300000e-01    3.160000e+00
  C6eq  SC2r  1 4.300000e-01    3.160000e+00
   C2r SX1vq  1 4.300000e-01    3.380000e+00
   C2r SX2vq  1 4.300000e-01    3.380000e+00
   C2r SX3vq  1 4.300000e-01    3.380000e+00
   C2r SX4vq  1 4.300000e-01    2.920000e+00
   C2r SC1vq  1 4.300000e-01    3.770000e+00
   C2r SC2vq  1 4.300000e-01    3.590000e+00
  C3vq  SC2r  1 4.300000e-01    3.590000e+00
  C4vq  SC2r  1 4.300000e-01    3.380000e+00
  C5vq  SC2r  1 4.300000e-01    3.160000e+00
  C6vq  SC2r  1 4.300000e-01    3.160000e+00
  N1aq  SC2r  1 4.300000e-01    2.920000e+00
  N2aq  SC2r  1 4.300000e-01    2.920000e+00
  N3aq  SC2r  1 4.300000e-01    2.920000e+00
  N4aq  SC2r  1 4.300000e-01    2.770000e+00
  N5aq  SC2r  1 4.300000e-01    2.770000e+00
  N6aq  SC2r  1 4.300000e-01    2.770000e+00
  P1aq  SC2r  1 4.300000e-01    2.530000e+00
  P2aq  SC2r  1 4.300000e-01    2.530000e+00
  P3aq  SC2r  1 4.300000e-01    2.320000e+00
  P4aq  SC2r  1 4.300000e-01    2.320000e+00
  P5aq  SC2r  1 4.300000e-01    2.320000e+00
  P6aq  SC2r  1 4.300000e-01    2.160000e+00
  N1dq  SC2r  1 4.300000e-01    2.920000e+00
  N2dq  SC2r  1 4.300000e-01    2.920000e+00
  N3dq  SC2r  1 4.300000e-01    2.920000e+00
  N4dq  SC2r  1 4.300000e-01    2.770000e+00
  N5dq  SC2r  1 4.300000e-01    2.770000e+00
  N6dq  SC2r  1 4.300000e-01    2.770000e+00
  P1dq  SC2r  1 4.300000e-01    2.530000e+00
  P2dq  SC2r  1 4.300000e-01    2.530000e+00
  P3dq  SC2r  1 4.300000e-01    2.320000e+00
  P4dq  SC2r  1 4.300000e-01    2.320000e+00
  P5dq  SC2r  1 4.300000e-01    2.320000e+00
  P6dq  SC2r  1 4.300000e-01    2.160000e+00
   C2r  SX1q  1 4.300000e-01    3.160000e+00
   C2r  SX2q  1 4.300000e-01    3.160000e+00
   C2r  SX3q  1 4.300000e-01    3.160000e+00
   C2r  SX4q  1 4.300000e-01    2.770000e+00
   C2r  SC1q  1 4.300000e-01    3.590000e+00
   P6d  SC1r  1 4.730000e-01    1.280000e+00
   P5d  SC1r  1 4.300000e-01    1.730000e+00
   P4d  SC1r  1 4.300000e-01    1.730000e+00
   P3d  SC1r  1 4.300000e-01    1.730000e+00
   P2d  SC1r  1 4.300000e-01    1.930000e+00
   P1d  SC1r  1 4.300000e-01    1.930000e+00
   N6d  SC1r  1 4.300000e-01    2.160000e+00
   N5d  SC1r  1 4.300000e-01    2.160000e+00
   N4d  SC1r  1 4.300000e-01    2.160000e+00
   N3d  SC1r  1 4.300000e-01    2.320000e+00
   N2d  SC1r  1 4.300000e-01    2.320000e+00
   N1d  SC1r  1 4.300000e-01    2.320000e+00
   P6a  SC1r  1 4.730000e-01    1.280000e+00
   P5a  SC1r  1 4.300000e-01    1.730000e+00
   P4a  SC1r  1 4.300000e-01    1.730000e+00
   P3a  SC1r  1 4.300000e-01    1.730000e+00
   P2a  SC1r  1 4.300000e-01    1.930000e+00
   P1a  SC1r  1 4.300000e-01    1.930000e+00
   N6a  SC1r  1 4.300000e-01    2.160000e+00
   N5a  SC1r  1 4.300000e-01    2.160000e+00
   N4a  SC1r  1 4.300000e-01    2.160000e+00
   N3a  SC1r  1 4.300000e-01    2.320000e+00
   N2a  SC1r  1 4.300000e-01    2.320000e+00
   N1a  SC1r  1 4.300000e-01    2.320000e+00
   C6v  SC1r  1 4.300000e-01    2.530000e+00
   C5v  SC1r  1 4.300000e-01    2.770000e+00
   C4v  SC1r  1 4.300000e-01    2.770000e+00
   C3v  SC1r  1 4.300000e-01    3.160000e+00
   C2v  SC1r  1 4.300000e-01    3.380000e+00
   C1r  SC1v  1 4.300000e-01    3.160000e+00
   C1r  SX1v  1 4.300000e-01    2.920000e+00
   C1r  SX2v  1 4.300000e-01    2.920000e+00
   C1r  SX3v  1 4.300000e-01    2.920000e+00
   C1r  SX4v  1 4.300000e-01    2.530000e+00
   C6e  SC1r  1 4.300000e-01    2.530000e+00
   C5e  SC1r  1 4.300000e-01    2.770000e+00
   C4e  SC1r  1 4.300000e-01    2.770000e+00
   C3e  SC1r  1 4.300000e-01    3.160000e+00
   C2e  SC1r  1 4.300000e-01    3.380000e+00
   C1r  SC1e  1 4.300000e-01    3.160000e+00
   C1r  SX1e  1 4.300000e-01    2.920000e+00
   C1r  SX2e  1 4.300000e-01    2.920000e+00
   C1r  SX3e  1 4.300000e-01    2.920000e+00
   C1r  SX4e  1 4.300000e-01    2.530000e+00
   P6q  SC1r  1 4.300000e-01    1.730000e+00
   P5q  SC1r  1 4.300000e-01    2.160000e+00
   P4q  SC1r  1 4.300000e-01    2.160000e+00
   P3q  SC1r  1 4.300000e-01    2.160000e+00
   P2q  SC1r  1 4.300000e-01    2.320000e+00
   P1q  SC1r  1 4.300000e-01    2.320000e+00
   N6q  SC1r  1 4.300000e-01    2.530000e+00
   N5q  SC1r  1 4.300000e-01    2.530000e+00
   N4q  SC1r  1 4.300000e-01    2.530000e+00
   N3q  SC1r  1 4.300000e-01    2.770000e+00
   N2q  SC1r  1 4.300000e-01    2.770000e+00
   N1q  SC1r  1 4.300000e-01    2.770000e+00
   C6q  SC1r  1 4.300000e-01    2.770000e+00
   C5q  SC1r  1 4.300000e-01    2.920000e+00
   C4q  SC1r  1 4.300000e-01    2.920000e+00
   C3q  SC1r  1 4.300000e-01    3.380000e+00
   C2q  SC1r  1 4.300000e-01    3.590000e+00
   C1r  SC1q  1 4.300000e-01    3.380000e+00
   C1r SX1eq  1 4.300000e-01    3.380000e+00
   C1r SX2eq  1 4.300000e-01    3.380000e+00
   C1r SX3eq  1 4.300000e-01    3.380000e+00
   C1r SX4eq  1 4.300000e-01    2.920000e+00
   C1r SC1eq  1 4.300000e-01    3.590000e+00
  C2eq  SC1r  1 4.300000e-01    3.770000e+00
  C3eq  SC1r  1 4.300000e-01    3.590000e+00
  C4eq  SC1r  1 4.300000e-01    3.160000e+00
  C5eq  SC1r  1 4.300000e-01    3.160000e+00
  C6eq  SC1r  1 4.300000e-01    2.920000e+00
   C1r SX1vq  1 4.300000e-01    3.380000e+00
   C1r SX2vq  1 4.300000e-01    3.380000e+00
   C1r SX3vq  1 4.300000e-01    3.380000e+00
   C1r SX4vq  1 4.300000e-01    2.920000e+00
   C1r SC1vq  1 4.300000e-01    3.590000e+00
  C2vq  SC1r  1 4.300000e-01    3.770000e+00
  C3vq  SC1r  1 4.300000e-01    3.590000e+00
  C4vq  SC1r  1 4.300000e-01    3.160000e+00
  C5vq  SC1r  1 4.300000e-01    3.160000e+00
  C6vq  SC1r  1 4.300000e-01    2.920000e+00
  N1aq  SC1r  1 4.300000e-01    2.770000e+00
  N2aq  SC1r  1 4.300000e-01    2.770000e+00
  N3aq  SC1r  1 4.300000e-01    2.770000e+00
  N4aq  SC1r  1 4.300000e-01    2.530000e+00
  N5aq  SC1r  1 4.300000e-01    2.530000e+00
  N6aq  SC1r  1 4.300000e-01    2.530000e+00
  P1aq  SC1r  1 4.300000e-01    2.320000e+00
  P2aq  SC1r  1 4.300000e-01    2.320000e+00
  P3aq  SC1r  1 4.300000e-01    2.160000e+00
  P4aq  SC1r  1 4.300000e-01    2.160000e+00
  P5aq  SC1r  1 4.300000e-01    2.160000e+00
  P6aq  SC1r  1 4.300000e-01    1.730000e+00
  N1dq  SC1r  1 4.300000e-01    2.770000e+00
  N2dq  SC1r  1 4.300000e-01    2.770000e+00
  N3dq  SC1r  1 4.300000e-01    2.770000e+00
  N4dq  SC1r  1 4.300000e-01    2.530000e+00
  N5dq  SC1r  1 4.300000e-01    2.530000e+00
  N6dq  SC1r  1 4.300000e-01    2.530000e+00
  P1dq  SC1r  1 4.300000e-01    2.320000e+00
  P2dq  SC1r  1 4.300000e-01    2.320000e+00
  P3dq  SC1r  1 4.300000e-01    2.160000e+00
  P4dq  SC1r  1 4.300000e-01    2.160000e+00
  P5dq  SC1r  1 4.300000e-01    2.160000e+00
  P6dq  SC1r  1 4.300000e-01    1.730000e+00
   C1r  SX1q  1 4.300000e-01    3.160000e+00
   C1r  SX2q  1 4.300000e-01    3.160000e+00
   C1r  SX3q  1 4.300000e-01    3.160000e+00
   C1r  SX4q  1 4.300000e-01    2.770000e+00
   P6d  SX4r  1 4.300000e-01    2.530000e+00
   P5d  SX4r  1 4.300000e-01    2.770000e+00
   P4d  SX4r  1 4.300000e-01    2.770000e+00
   P3d  SX4r  1 4.300000e-01    2.770000e+00
   P2d  SX4r  1 4.300000e-01    2.770000e+00
   P1d  SX4r  1 4.300000e-01    2.770000e+00
   N6d  SX4r  1 4.300000e-01    2.920000e+00
   N5d  SX4r  1 4.300000e-01    3.160000e+00
   N4d  SX4r  1 4.300000e-01    3.380000e+00
   N3d  SX4r  1 4.300000e-01    3.160000e+00
   N2d  SX4r  1 4.300000e-01    3.160000e+00
   N1d  SX4r  1 4.300000e-01    2.920000e+00
   P6a  SX4r  1 4.300000e-01    2.530000e+00
   P5a  SX4r  1 4.300000e-01    2.770000e+00
   P4a  SX4r  1 4.300000e-01    2.770000e+00
   P3a  SX4r  1 4.300000e-01    2.770000e+00
   P2a  SX4r  1 4.300000e-01    2.770000e+00
   P1a  SX4r  1 4.300000e-01    2.770000e+00
   N6a  SX4r  1 4.300000e-01    2.920000e+00
   N5a  SX4r  1 4.300000e-01    3.160000e+00
   N4a  SX4r  1 4.300000e-01    3.380000e+00
   N3a  SX4r  1 4.300000e-01    3.160000e+00
   N2a  SX4r  1 4.300000e-01    3.160000e+00
   N1a  SX4r  1 4.300000e-01    2.920000e+00
   C6v  SX4r  1 4.300000e-01    3.160000e+00
   C5v  SX4r  1 4.300000e-01    2.920000e+00
   C4v  SX4r  1 4.300000e-01    2.920000e+00
   C3v  SX4r  1 4.300000e-01    2.920000e+00
   C2v  SX4r  1 4.300000e-01    2.530000e+00
   C1v  SX4r  1 4.300000e-01    2.530000e+00
   X4r  SX4v  1 4.300000e-01    3.160000e+00
   X4r  SX1v  1 4.300000e-01    3.160000e+00
   X4r  SX2v  1 4.300000e-01    3.160000e+00
   X4r  SX3v  1 4.300000e-01    3.160000e+00
   C6e  SX4r  1 4.300000e-01    3.160000e+00
   C5e  SX4r  1 4.300000e-01    2.920000e+00
   C4e  SX4r  1 4.300000e-01    2.920000e+00
   C3e  SX4r  1 4.300000e-01    2.920000e+00
   C2e  SX4r  1 4.300000e-01    2.530000e+00
   C1e  SX4r  1 4.300000e-01    2.530000e+00
   X4r  SX4e  1 4.300000e-01    3.160000e+00
   X4r  SX1e  1 4.300000e-01    3.160000e+00
   X4r  SX2e  1 4.300000e-01    3.160000e+00
   X4r  SX3e  1 4.300000e-01    3.160000e+00
   P6q  SX4r  1 4.300000e-01    2.920000e+00
   P5q  SX4r  1 4.300000e-01    3.160000e+00
   P4q  SX4r  1 4.300000e-01    3.160000e+00
   P3q  SX4r  1 4.300000e-01    3.160000e+00
   P2q  SX4r  1 4.300000e-01    3.160000e+00
   P1q  SX4r  1 4.300000e-01    3.160000e+00
   N6q  SX4r  1 4.300000e-01    3.380000e+00
   N5q  SX4r  1 4.300000e-01    3.590000e+00
   N4q  SX4r  1 4.300000e-01    3.770000e+00
   N3q  SX4r  1 4.300000e-01    3.590000e+00
   N2q  SX4r  1 4.300000e-01    3.590000e+00
   N1q  SX4r  1 4.300000e-01    3.380000e+00
   C6q  SX4r  1 4.300000e-01    3.380000e+00
   C5q  SX4r  1 4.300000e-01    3.160000e+00
   C4q  SX4r  1 4.300000e-01    3.160000e+00
   C3q  SX4r  1 4.300000e-01    3.160000e+00
   C2q  SX4r  1 4.300000e-01    2.770000e+00
   C1q  SX4r  1 4.300000e-01    2.770000e+00
   X4r  SX4q  1 4.300000e-01    3.380000e+00
   X4r SX1eq  1 4.300000e-01    3.590000e+00
   X4r SX2eq  1 4.300000e-01    3.590000e+00
   X4r SX3eq  1 4.300000e-01    3.590000e+00
   X4r SX4eq  1 4.300000e-01    3.590000e+00
  C1eq  SX4r  1 4.300000e-01    2.920000e+00
  C2eq  SX4r  1 4.300000e-01    2.920000e+00
  C3eq  SX4r  1 4.300000e-01    3.380000e+00
  C4eq  SX4r  1 4.300000e-01    3.380000e+00
  C5eq  SX4r  1 4.300000e-01    3.380000e+00
  C6eq  SX4r  1 4.300000e-01    3.590000e+00
   X4r SX1vq  1 4.300000e-01    3.590000e+00
   X4r SX2vq  1 4.300000e-01    3.590000e+00
   X4r SX3vq  1 4.300000e-01    3.590000e+00
   X4r SX4vq  1 4.300000e-01    3.590000e+00
  C1vq  SX4r  1 4.300000e-01    2.920000e+00
  C2vq  SX4r  1 4.300000e-01    2.920000e+00
  C3vq  SX4r  1 4.300000e-01    3.380000e+00
  C4vq  SX4r  1 4.300000e-01    3.380000e+00
  C5vq  SX4r  1 4.300000e-01    3.380000e+00
  C6vq  SX4r  1 4.300000e-01    3.590000e+00
  N1aq  SX4r  1 4.300000e-01    3.380000e+00
  N2aq  SX4r  1 4.300000e-01    3.590000e+00
  N3aq  SX4r  1 4.300000e-01    3.590000e+00
  N4aq  SX4r  1 4.300000e-01    3.770000e+00
  N5aq  SX4r  1 4.300000e-01    3.590000e+00
  N6aq  SX4r  1 4.300000e-01    3.380000e+00
  P1aq  SX4r  1 4.300000e-01    3.160000e+00
  P2aq  SX4r  1 4.300000e-01    3.160000e+00
  P3aq  SX4r  1 4.300000e-01    3.160000e+00
  P4aq  SX4r  1 4.300000e-01    3.160000e+00
  P5aq  SX4r  1 4.300000e-01    3.160000e+00
  P6aq  SX4r  1 4.300000e-01    2.920000e+00
  N1dq  SX4r  1 4.300000e-01    3.380000e+00
  N2dq  SX4r  1 4.300000e-01    3.590000e+00
  N3dq  SX4r  1 4.300000e-01    3.590000e+00
  N4dq  SX4r  1 4.300000e-01    3.770000e+00
  N5dq  SX4r  1 4.300000e-01    3.590000e+00
  N6dq  SX4r  1 4.300000e-01    3.380000e+00
  P1dq  SX4r  1 4.300000e-01    3.160000e+00
  P2dq  SX4r  1 4.300000e-01    3.160000e+00
  P3dq  SX4r  1 4.300000e-01    3.160000e+00
  P4dq  SX4r  1 4.300000e-01    3.160000e+00
  P5dq  SX4r  1 4.300000e-01    3.160000e+00
  P6dq  SX4r  1 4.300000e-01    2.920000e+00
   X4r  SX1q  1 4.300000e-01    3.380000e+00
   X4r  SX2q  1 4.300000e-01    3.380000e+00
   X4r  SX3q  1 4.300000e-01    3.380000e+00
   P6d  SX3r  1 4.300000e-01    2.530000e+00
   P5d  SX3r  1 4.300000e-01    2.530000e+00
   P4d  SX3r  1 4.300000e-01    2.530000e+00
   P3d  SX3r  1 4.300000e-01    2.770000e+00
   P2d  SX3r  1 4.300000e-01    2.770000e+00
   P1d  SX3r  1 4.300000e-01    2.770000e+00
   N6d  SX3r  1 4.300000e-01    2.770000e+00
   N5d  SX3r  1 4.300000e-01    2.920000e+00
   N4d  SX3r  1 4.300000e-01    3.160000e+00
   N3d  SX3r  1 4.300000e-01    2.920000e+00
   N2d  SX3r  1 4.300000e-01    2.920000e+00
   N1d  SX3r  1 4.300000e-01    2.920000e+00
   P6a  SX3r  1 4.300000e-01    2.530000e+00
   P5a  SX3r  1 4.300000e-01    2.530000e+00
   P4a  SX3r  1 4.300000e-01    2.530000e+00
   P3a  SX3r  1 4.300000e-01    2.770000e+00
   P2a  SX3r  1 4.300000e-01    2.770000e+00
   P1a  SX3r  1 4.300000e-01    2.770000e+00
   N6a  SX3r  1 4.300000e-01    2.770000e+00
   N5a  SX3r  1 4.300000e-01    2.920000e+00
   N4a  SX3r  1 4.300000e-01    3.160000e+00
   N3a  SX3r  1 4.300000e-01    2.920000e+00
   N2a  SX3r  1 4.300000e-01    2.920000e+00
   N1a  SX3r  1 4.300000e-01    2.920000e+00
   C6v  SX3r  1 4.300000e-01    3.160000e+00
   C5v  SX3r  1 4.300000e-01    2.920000e+00
   C4v  SX3r  1 4.300000e-01    2.920000e+00
   C3v  SX3r  1 4.300000e-01    2.920000e+00
   C2v  SX3r  1 4.300000e-01    2.920000e+00
   C1v  SX3r  1 4.300000e-01    2.920000e+00
   X4v  SX3r  1 4.300000e-01    3.160000e+00
   X3r  SX3v  1 4.300000e-01    3.160000e+00
   X3r  SX1v  1 4.300000e-01    3.380000e+00
   X3r  SX2v  1 4.300000e-01    3.380000e+00
   C6e  SX3r  1 4.300000e-01    3.160000e+00
   C5e  SX3r  1 4.300000e-01    2.920000e+00
   C4e  SX3r  1 4.300000e-01    2.920000e+00
   C3e  SX3r  1 4.300000e-01    2.920000e+00
   C2e  SX3r  1 4.300000e-01    2.920000e+00
   C1e  SX3r  1 4.300000e-01    2.920000e+00
   X4e  SX3r  1 4.300000e-01    3.160000e+00
   X3r  SX3e  1 4.300000e-01    3.160000e+00
   X3r  SX1e  1 4.300000e-01    3.380000e+00
   X3r  SX2e  1 4.300000e-01    3.380000e+00
   P6q  SX3r  1 4.300000e-01    2.920000e+00
   P5q  SX3r  1 4.300000e-01    2.920000e+00
   P4q  SX3r  1 4.300000e-01    2.920000e+00
   P3q  SX3r  1 4.300000e-01    3.160000e+00
   P2q  SX3r  1 4.300000e-01    3.160000e+00
   P1q  SX3r  1 4.300000e-01    3.160000e+00
   N6q  SX3r  1 4.300000e-01    3.160000e+00
   N5q  SX3r  1 4.300000e-01    3.380000e+00
   N4q  SX3r  1 4.300000e-01    3.590000e+00
   N3q  SX3r  1 4.300000e-01    3.380000e+00
   N2q  SX3r  1 4.300000e-01    3.380000e+00
   N1q  SX3r  1 4.300000e-01    3.380000e+00
   C6q  SX3r  1 4.300000e-01    3.380000e+00
   C5q  SX3r  1 4.300000e-01    3.160000e+00
   C4q  SX3r  1 4.300000e-01    3.160000e+00
   C3q  SX3r  1 4.300000e-01    3.160000e+00
   C2q  SX3r  1 4.300000e-01    3.160000e+00
   C1q  SX3r  1 4.300000e-01    3.160000e+00
   X4q  SX3r  1 4.300000e-01    3.380000e+00
   X3r  SX3q  1 4.300000e-01    3.380000e+00
   X3r SX1eq  1 4.300000e-01    3.770000e+00
   X3r SX2eq  1 4.300000e-01    3.770000e+00
   X3r SX3eq  1 4.300000e-01    3.590000e+00
  X4eq  SX3r  1 4.300000e-01    3.590000e+00
  C1eq  SX3r  1 4.300000e-01    3.380000e+00
  C2eq  SX3r  1 4.300000e-01    3.380000e+00
  C3eq  SX3r  1 4.300000e-01    3.380000e+00
  C4eq  SX3r  1 4.300000e-01    3.380000e+00
  C5eq  SX3r  1 4.300000e-01    3.380000e+00
  C6eq  SX3r  1 4.300000e-01    3.590000e+00
   X3r SX1vq  1 4.300000e-01    3.770000e+00
   X3r SX2vq  1 4.300000e-01    3.770000e+00
   X3r SX3vq  1 4.300000e-01    3.590000e+00
  X4vq  SX3r  1 4.300000e-01    3.590000e+00
  C1vq  SX3r  1 4.300000e-01    3.380000e+00
  C2vq  SX3r  1 4.300000e-01    3.380000e+00
  C3vq  SX3r  1 4.300000e-01    3.380000e+00
  C4vq  SX3r  1 4.300000e-01    3.380000e+00
  C5vq  SX3r  1 4.300000e-01    3.380000e+00
  C6vq  SX3r  1 4.300000e-01    3.590000e+00
  N1aq  SX3r  1 4.300000e-01    3.380000e+00
  N2aq  SX3r  1 4.300000e-01    3.380000e+00
  N3aq  SX3r  1 4.300000e-01    3.380000e+00
  N4aq  SX3r  1 4.300000e-01    3.590000e+00
  N5aq  SX3r  1 4.300000e-01    3.380000e+00
  N6aq  SX3r  1 4.300000e-01    3.160000e+00
  P1aq  SX3r  1 4.300000e-01    3.160000e+00
  P2aq  SX3r  1 4.300000e-01    3.160000e+00
  P3aq  SX3r  1 4.300000e-01    3.160000e+00
  P4aq  SX3r  1 4.300000e-01    2.920000e+00
  P5aq  SX3r  1 4.300000e-01    2.920000e+00
  P6aq  SX3r  1 4.300000e-01    2.920000e+00
  N1dq  SX3r  1 4.300000e-01    3.380000e+00
  N2dq  SX3r  1 4.300000e-01    3.380000e+00
  N3dq  SX3r  1 4.300000e-01    3.380000e+00
  N4dq  SX3r  1 4.300000e-01    3.590000e+00
  N5dq  SX3r  1 4.300000e-01    3.380000e+00
  N6dq  SX3r  1 4.300000e-01    3.160000e+00
  P1dq  SX3r  1 4.300000e-01    3.160000e+00
  P2dq  SX3r  1 4.300000e-01    3.160000e+00
  P3dq  SX3r  1 4.300000e-01    3.160000e+00
  P4dq  SX3r  1 4.300000e-01    2.920000e+00
  P5dq  SX3r  1 4.300000e-01    2.920000e+00
  P6dq  SX3r  1 4.300000e-01    2.920000e+00
   X3r  SX1q  1 4.300000e-01    3.590000e+00
   X3r  SX2q  1 4.300000e-01    3.590000e+00
   P6d  SX2r  1 4.300000e-01    2.320000e+00
   P5d  SX2r  1 4.300000e-01    2.530000e+00
   P4d  SX2r  1 4.300000e-01    2.530000e+00
   P3d  SX2r  1 4.300000e-01    2.530000e+00
   P2d  SX2r  1 4.300000e-01    2.530000e+00
   P1d  SX2r  1 4.300000e-01    2.530000e+00
   N6d  SX2r  1 4.300000e-01    2.530000e+00
   N5d  SX2r  1 4.300000e-01    2.770000e+00
   N4d  SX2r  1 4.300000e-01    2.770000e+00
   N3d  SX2r  1 4.300000e-01    2.770000e+00
   N2d  SX2r  1 4.300000e-01    2.770000e+00
   N1d  SX2r  1 4.300000e-01    2.770000e+00
   P6a  SX2r  1 4.300000e-01    2.320000e+00
   P5a  SX2r  1 4.300000e-01    2.530000e+00
   P4a  SX2r  1 4.300000e-01    2.530000e+00
   P3a  SX2r  1 4.300000e-01    2.530000e+00
   P2a  SX2r  1 4.300000e-01    2.530000e+00
   P1a  SX2r  1 4.300000e-01    2.530000e+00
   N6a  SX2r  1 4.300000e-01    2.530000e+00
   N5a  SX2r  1 4.300000e-01    2.770000e+00
   N4a  SX2r  1 4.300000e-01    2.770000e+00
   N3a  SX2r  1 4.300000e-01    2.770000e+00
   N2a  SX2r  1 4.300000e-01    2.770000e+00
   N1a  SX2r  1 4.300000e-01    2.770000e+00
   C6v  SX2r  1 4.300000e-01    3.160000e+00
   C5v  SX2r  1 4.300000e-01    2.920000e+00
   C4v  SX2r  1 4.300000e-01    2.920000e+00
   C3v  SX2r  1 4.300000e-01    2.920000e+00
   C2v  SX2r  1 4.300000e-01    2.920000e+00
   C1v  SX2r  1 4.300000e-01    2.920000e+00
   X4v  SX2r  1 4.300000e-01    3.160000e+00
   X3v  SX2r  1 4.300000e-01    3.380000e+00
   X2r  SX2v  1 4.300000e-01    3.380000e+00
   X2r  SX1v  1 4.300000e-01    3.380000e+00
   C6e  SX2r  1 4.300000e-01    3.160000e+00
   C5e  SX2r  1 4.300000e-01    2.920000e+00
   C4e  SX2r  1 4.300000e-01    2.920000e+00
   C3e  SX2r  1 4.300000e-01    2.920000e+00
   C2e  SX2r  1 4.300000e-01    2.920000e+00
   C1e  SX2r  1 4.300000e-01    2.920000e+00
   X4e  SX2r  1 4.300000e-01    3.160000e+00
   X3e  SX2r  1 4.300000e-01    3.380000e+00
   X2r  SX2e  1 4.300000e-01    3.380000e+00
   X2r  SX1e  1 4.300000e-01    3.380000e+00
   P6q  SX2r  1 4.300000e-01    2.770000e+00
   P5q  SX2r  1 4.300000e-01    2.920000e+00
   P4q  SX2r  1 4.300000e-01    2.920000e+00
   P3q  SX2r  1 4.300000e-01    2.920000e+00
   P2q  SX2r  1 4.300000e-01    2.920000e+00
   P1q  SX2r  1 4.300000e-01    2.920000e+00
   N6q  SX2r  1 4.300000e-01    2.920000e+00
   N5q  SX2r  1 4.300000e-01    3.160000e+00
   N4q  SX2r  1 4.300000e-01    3.160000e+00
   N3q  SX2r  1 4.300000e-01    3.160000e+00
   N2q  SX2r  1 4.300000e-01    3.160000e+00
   N1q  SX2r  1 4.300000e-01    3.160000e+00
   C6q  SX2r  1 4.300000e-01    3.380000e+00
   C5q  SX2r  1 4.300000e-01    3.160000e+00
   C4q  SX2r  1 4.300000e-01    3.160000e+00
   C3q  SX2r  1 4.300000e-01    3.160000e+00
   C2q  SX2r  1 4.300000e-01    3.160000e+00
   C1q  SX2r  1 4.300000e-01    3.160000e+00
   X4q  SX2r  1 4.300000e-01    3.380000e+00
   X3q  SX2r  1 4.300000e-01    3.590000e+00
   X2r  SX2q  1 4.300000e-01    3.590000e+00
   X2r SX1eq  1 4.300000e-01    3.770000e+00
   X2r SX2eq  1 4.300000e-01    3.770000e+00
  X3eq  SX2r  1 4.300000e-01    3.770000e+00
  X4eq  SX2r  1 4.300000e-01    3.590000e+00
  C1eq  SX2r  1 4.300000e-01    3.380000e+00
  C2eq  SX2r  1 4.300000e-01    3.380000e+00
  C3eq  SX2r  1 4.300000e-01    3.380000e+00
  C4eq  SX2r  1 4.300000e-01    3.380000e+00
  C5eq  SX2r  1 4.300000e-01    3.380000e+00
  C6eq  SX2r  1 4.300000e-01    3.590000e+00
   X2r SX1vq  1 4.300000e-01    3.770000e+00
   X2r SX2vq  1 4.300000e-01    3.770000e+00
  X3vq  SX2r  1 4.300000e-01    3.770000e+00
  X4vq  SX2r  1 4.300000e-01    3.590000e+00
  C1vq  SX2r  1 4.300000e-01    3.380000e+00
  C2vq  SX2r  1 4.300000e-01    3.380000e+00
  C3vq  SX2r  1 4.300000e-01    3.380000e+00
  C4vq  SX2r  1 4.300000e-01    3.380000e+00
  C5vq  SX2r  1 4.300000e-01    3.380000e+00
  C6vq  SX2r  1 4.300000e-01    3.590000e+00
  N1aq  SX2r  1 4.300000e-01    3.160000e+00
  N2aq  SX2r  1 4.300000e-01    3.160000e+00
  N3aq  SX2r  1 4.300000e-01    3.160000e+00
  N4aq  SX2r  1 4.300000e-01    3.160000e+00
  N5aq  SX2r  1 4.300000e-01    3.160000e+00
  N6aq  SX2r  1 4.300000e-01    2.920000e+00
  P1aq  SX2r  1 4.300000e-01    2.920000e+00
  P2aq  SX2r  1 4.300000e-01    2.920000e+00
  P3aq  SX2r  1 4.300000e-01    2.920000e+00
  P4aq  SX2r  1 4.300000e-01    2.920000e+00
  P5aq  SX2r  1 4.300000e-01    2.920000e+00
  P6aq  SX2r  1 4.300000e-01    2.770000e+00
  N1dq  SX2r  1 4.300000e-01    3.160000e+00
  N2dq  SX2r  1 4.300000e-01    3.160000e+00
  N3dq  SX2r  1 4.300000e-01    3.160000e+00
  N4dq  SX2r  1 4.300000e-01    3.160000e+00
  N5dq  SX2r  1 4.300000e-01    3.160000e+00
  N6dq  SX2r  1 4.300000e-01    2.920000e+00
  P1dq  SX2r  1 4.300000e-01    2.920000e+00
  P2dq  SX2r  1 4.300000e-01    2.920000e+00
  P3dq  SX2r  1 4.300000e-01    2.920000e+00
  P4dq  SX2r  1 4.300000e-01    2.920000e+00
  P5dq  SX2r  1 4.300000e-01    2.920000e+00
  P6dq  SX2r  1 4.300000e-01    2.770000e+00
   X2r  SX1q  1 4.300000e-01    3.590000e+00
   P6d  SX1r  1 4.300000e-01    2.160000e+00
   P5d  SX1r  1 4.300000e-01    2.160000e+00
   P4d  SX1r  1 4.300000e-01    2.320000e+00
   P3d  SX1r  1 4.300000e-01    2.320000e+00
   P2d  SX1r  1 4.300000e-01    2.320000e+00
   P1d  SX1r  1 4.300000e-01    2.320000e+00
   N6d  SX1r  1 4.300000e-01    2.320000e+00
   N5d  SX1r  1 4.300000e-01    2.530000e+00
   N4d  SX1r  1 4.300000e-01    2.530000e+00
   N3d  SX1r  1 4.300000e-01    2.770000e+00
   N2d  SX1r  1 4.300000e-01    2.770000e+00
   N1d  SX1r  1 4.300000e-01    2.770000e+00
   P6a  SX1r  1 4.300000e-01    2.160000e+00
   P5a  SX1r  1 4.300000e-01    2.160000e+00
   P4a  SX1r  1 4.300000e-01    2.320000e+00
   P3a  SX1r  1 4.300000e-01    2.320000e+00
   P2a  SX1r  1 4.300000e-01    2.320000e+00
   P1a  SX1r  1 4.300000e-01    2.320000e+00
   N6a  SX1r  1 4.300000e-01    2.320000e+00
   N5a  SX1r  1 4.300000e-01    2.530000e+00
   N4a  SX1r  1 4.300000e-01    2.530000e+00
   N3a  SX1r  1 4.300000e-01    2.770000e+00
   N2a  SX1r  1 4.300000e-01    2.770000e+00
   N1a  SX1r  1 4.300000e-01    2.770000e+00
   C6v  SX1r  1 4.300000e-01    3.160000e+00
   C5v  SX1r  1 4.300000e-01    3.160000e+00
   C4v  SX1r  1 4.300000e-01    3.160000e+00
   C3v  SX1r  1 4.300000e-01    3.160000e+00
   C2v  SX1r  1 4.300000e-01    2.920000e+00
   C1v  SX1r  1 4.300000e-01    2.920000e+00
   X4v  SX1r  1 4.300000e-01    3.160000e+00
   X3v  SX1r  1 4.300000e-01    3.380000e+00
   X2v  SX1r  1 4.300000e-01    3.380000e+00
   X1r  SX1v  1 4.300000e-01    3.590000e+00
   C6e  SX1r  1 4.300000e-01    3.160000e+00
   C5e  SX1r  1 4.300000e-01    3.160000e+00
   C4e  SX1r  1 4.300000e-01    3.160000e+00
   C3e  SX1r  1 4.300000e-01    3.160000e+00
   C2e  SX1r  1 4.300000e-01    2.920000e+00
   C1e  SX1r  1 4.300000e-01    2.920000e+00
   X4e  SX1r  1 4.300000e-01    3.160000e+00
   X3e  SX1r  1 4.300000e-01    3.380000e+00
   X2e  SX1r  1 4.300000e-01    3.380000e+00
   X1r  SX1e  1 4.300000e-01    3.590000e+00
   P6q  SX1r  1 4.300000e-01    2.530000e+00
   P5q  SX1r  1 4.300000e-01    2.530000e+00
   P4q  SX1r  1 4.300000e-01    2.770000e+00
   P3q  SX1r  1 4.300000e-01    2.770000e+00
   P2q  SX1r  1 4.300000e-01    2.770000e+00
   P1q  SX1r  1 4.300000e-01    2.770000e+00
   N6q  SX1r  1 4.300000e-01    2.770000e+00
   N5q  SX1r  1 4.300000e-01    2.920000e+00
   N4q  SX1r  1 4.300000e-01    2.920000e+00
   N3q  SX1r  1 4.300000e-01    3.160000e+00
   N2q  SX1r  1 4.300000e-01    3.160000e+00
   N1q  SX1r  1 4.300000e-01    3.160000e+00
   C6q  SX1r  1 4.300000e-01    3.380000e+00
   C5q  SX1r  1 4.300000e-01    3.380000e+00
   C4q  SX1r  1 4.300000e-01    3.380000e+00
   C3q  SX1r  1 4.300000e-01    3.380000e+00
   C2q  SX1r  1 4.300000e-01    3.160000e+00
   C1q  SX1r  1 4.300000e-01    3.160000e+00
   X4q  SX1r  1 4.300000e-01    3.380000e+00
   X3q  SX1r  1 4.300000e-01    3.590000e+00
   X2q  SX1r  1 4.300000e-01    3.590000e+00
   X1r  SX1q  1 4.300000e-01    3.770000e+00
   X1r SX1eq  1 4.300000e-01    3.970000e+00
  X2eq  SX1r  1 4.300000e-01    3.770000e+00
  X3eq  SX1r  1 4.300000e-01    3.770000e+00
  X4eq  SX1r  1 4.300000e-01    3.590000e+00
  C1eq  SX1r  1 4.300000e-01    3.380000e+00
  C2eq  SX1r  1 4.300000e-01    3.380000e+00
  C3eq  SX1r  1 4.300000e-01    3.590000e+00
  C4eq  SX1r  1 4.300000e-01    3.590000e+00
  C5eq  SX1r  1 4.300000e-01    3.590000e+00
  C6eq  SX1r  1 4.300000e-01    3.590000e+00
   X1r SX1vq  1 4.300000e-01    3.970000e+00
  X2vq  SX1r  1 4.300000e-01    3.770000e+00
  X3vq  SX1r  1 4.300000e-01    3.770000e+00
  X4vq  SX1r  1 4.300000e-01    3.590000e+00
  C1vq  SX1r  1 4.300000e-01    3.380000e+00
  C2vq  SX1r  1 4.300000e-01    3.380000e+00
  C3vq  SX1r  1 4.300000e-01    3.590000e+00
  C4vq  SX1r  1 4.300000e-01    3.590000e+00
  C5vq  SX1r  1 4.300000e-01    3.590000e+00
  C6vq  SX1r  1 4.300000e-01    3.590000e+00
  N1aq  SX1r  1 4.300000e-01    3.160000e+00
  N2aq  SX1r  1 4.300000e-01    3.160000e+00
  N3aq  SX1r  1 4.300000e-01    3.160000e+00
  N4aq  SX1r  1 4.300000e-01    2.920000e+00
  N5aq  SX1r  1 4.300000e-01    2.920000e+00
  N6aq  SX1r  1 4.300000e-01    2.770000e+00
  P1aq  SX1r  1 4.300000e-01    2.770000e+00
  P2aq  SX1r  1 4.300000e-01    2.770000e+00
  P3aq  SX1r  1 4.300000e-01    2.770000e+00
  P4aq  SX1r  1 4.300000e-01    2.770000e+00
  P5aq  SX1r  1 4.300000e-01    2.530000e+00
  P6aq  SX1r  1 4.300000e-01    2.530000e+00
  N1dq  SX1r  1 4.300000e-01    3.160000e+00
  N2dq  SX1r  1 4.300000e-01    3.160000e+00
  N3dq  SX1r  1 4.300000e-01    3.160000e+00
  N4dq  SX1r  1 4.300000e-01    2.920000e+00
  N5dq  SX1r  1 4.300000e-01    2.920000e+00
  N6dq  SX1r  1 4.300000e-01    2.770000e+00
  P1dq  SX1r  1 4.300000e-01    2.770000e+00
  P2dq  SX1r  1 4.300000e-01    2.770000e+00
  P3dq  SX1r  1 4.300000e-01    2.770000e+00
  P4dq  SX1r  1 4.300000e-01    2.770000e+00
  P5dq  SX1r  1 4.300000e-01    2.530000e+00
  P6dq  SX1r  1 4.300000e-01    2.530000e+00
   P6q SP6dr  1 4.300000e-01    5.210000e+00
  P6dr  SP5q  1 4.300000e-01    4.920000e+00
  P6dr  SP4q  1 4.300000e-01    4.680000e+00
  P6dr  SP3q  1 4.300000e-01    4.400000e+00
  P6dr  SP2q  1 4.300000e-01    4.400000e+00
  P6dr  SP1q  1 4.300000e-01    4.170000e+00
  P6dr  SN6q  1 4.300000e-01    3.970000e+00
  P6dr  SN5q  1 4.300000e-01    3.590000e+00
  P6dr  SN4q  1 4.300000e-01    3.380000e+00
  P6dr  SN3q  1 4.300000e-01    3.160000e+00
  P6dr  SN2q  1 4.300000e-01    2.920000e+00
  P6dr  SN1q  1 4.300000e-01    2.770000e+00
  P6dr  SC6q  1 4.300000e-01    2.770000e+00
  P6dr  SC5q  1 4.300000e-01    2.530000e+00
  P6dr  SC4q  1 4.300000e-01    2.320000e+00
  P6dr  SC3q  1 4.300000e-01    2.160000e+00
  P6dr  SC2q  1 4.300000e-01    2.160000e+00
  P6dr  SC1q  1 4.300000e-01    1.730000e+00
  P6dr  SX4q  1 4.300000e-01    2.920000e+00
  P6dr  SX3q  1 4.300000e-01    2.920000e+00
  P6dr  SX2q  1 4.300000e-01    2.770000e+00
  P6dr  SX1q  1 4.300000e-01    2.530000e+00
   P6q SP5dr  1 4.300000e-01    4.920000e+00
   P5q SP5dr  1 4.300000e-01    4.680000e+00
  P5dr  SP4q  1 4.300000e-01    4.400000e+00
  P5dr  SP3q  1 4.300000e-01    4.170000e+00
  P5dr  SP2q  1 4.300000e-01    4.170000e+00
  P5dr  SP1q  1 4.300000e-01    3.970000e+00
  P5dr  SN6q  1 4.300000e-01    3.770000e+00
  P5dr  SN5q  1 4.300000e-01    3.590000e+00
  P5dr  SN4q  1 4.300000e-01    3.590000e+00
  P5dr  SN3q  1 4.300000e-01    3.160000e+00
  P5dr  SN2q  1 4.300000e-01    2.920000e+00
  P5dr  SN1q  1 4.300000e-01    2.770000e+00
  P5dr  SC6q  1 4.300000e-01    2.770000e+00
  P5dr  SC5q  1 4.300000e-01    2.770000e+00
  P5dr  SC4q  1 4.300000e-01    2.530000e+00
  P5dr  SC3q  1 4.300000e-01    2.320000e+00
  P5dr  SC2q  1 4.300000e-01    2.320000e+00
  P5dr  SC1q  1 4.300000e-01    2.160000e+00
  P5dr  SX4q  1 4.300000e-01    3.160000e+00
  P5dr  SX3q  1 4.300000e-01    2.920000e+00
  P5dr  SX2q  1 4.300000e-01    2.920000e+00
  P5dr  SX1q  1 4.300000e-01    2.530000e+00
   P6q SP4dr  1 4.300000e-01    4.680000e+00
   P5q SP4dr  1 4.300000e-01    4.400000e+00
   P4q SP4dr  1 4.300000e-01    4.400000e+00
  P4dr  SP3q  1 4.300000e-01    4.170000e+00
  P4dr  SP2q  1 4.300000e-01    4.170000e+00
  P4dr  SP1q  1 4.300000e-01    3.970000e+00
  P4dr  SN6q  1 4.300000e-01    3.770000e+00
  P4dr  SN5q  1 4.300000e-01    3.590000e+00
  P4dr  SN4q  1 4.300000e-01    3.590000e+00
  P4dr  SN3q  1 4.300000e-01    3.380000e+00
  P4dr  SN2q  1 4.300000e-01    3.160000e+00
  P4dr  SN1q  1 4.300000e-01    2.920000e+00
  P4dr  SC6q  1 4.300000e-01    2.920000e+00
  P4dr  SC5q  1 4.300000e-01    2.770000e+00
  P4dr  SC4q  1 4.300000e-01    2.530000e+00
  P4dr  SC3q  1 4.300000e-01    2.320000e+00
  P4dr  SC2q  1 4.300000e-01    2.320000e+00
  P4dr  SC1q  1 4.300000e-01    2.160000e+00
  P4dr  SX4q  1 4.300000e-01    3.160000e+00
  P4dr  SX3q  1 4.300000e-01    2.920000e+00
  P4dr  SX2q  1 4.300000e-01    2.920000e+00
  P4dr  SX1q  1 4.300000e-01    2.770000e+00
   P6q SP3dr  1 4.300000e-01    4.400000e+00
   P5q SP3dr  1 4.300000e-01    4.170000e+00
   P4q SP3dr  1 4.300000e-01    4.170000e+00
   P3q SP3dr  1 4.300000e-01    4.170000e+00
  P3dr  SP2q  1 4.300000e-01    4.170000e+00
  P3dr  SP1q  1 4.300000e-01    3.970000e+00
  P3dr  SN6q  1 4.300000e-01    3.770000e+00
  P3dr  SN5q  1 4.300000e-01    3.590000e+00
  P3dr  SN4q  1 4.300000e-01    3.590000e+00
  P3dr  SN3q  1 4.300000e-01    3.380000e+00
  P3dr  SN2q  1 4.300000e-01    3.380000e+00
  P3dr  SN1q  1 4.300000e-01    3.160000e+00
  P3dr  SC6q  1 4.300000e-01    3.160000e+00
  P3dr  SC5q  1 4.300000e-01    2.920000e+00
  P3dr  SC4q  1 4.300000e-01    2.770000e+00
  P3dr  SC3q  1 4.300000e-01    2.320000e+00
  P3dr  SC2q  1 4.300000e-01    2.320000e+00
  P3dr  SC1q  1 4.300000e-01    2.160000e+00
  P3dr  SX4q  1 4.300000e-01    3.160000e+00
  P3dr  SX3q  1 4.300000e-01    3.160000e+00
  P3dr  SX2q  1 4.300000e-01    2.920000e+00
  P3dr  SX1q  1 4.300000e-01    2.770000e+00
   P6q SP2dr  1 4.300000e-01    4.400000e+00
   P5q SP2dr  1 4.300000e-01    4.170000e+00
   P4q SP2dr  1 4.300000e-01    4.170000e+00
   P3q SP2dr  1 4.300000e-01    4.170000e+00
   P2q SP2dr  1 4.300000e-01    4.170000e+00
  P2dr  SP1q  1 4.300000e-01    3.970000e+00
  P2dr  SN6q  1 4.300000e-01    3.970000e+00
  P2dr  SN5q  1 4.300000e-01    3.770000e+00
  P2dr  SN4q  1 4.300000e-01    3.590000e+00
  P2dr  SN3q  1 4.300000e-01    3.380000e+00
  P2dr  SN2q  1 4.300000e-01    3.380000e+00
  P2dr  SN1q  1 4.300000e-01    3.380000e+00
  P2dr  SC6q  1 4.300000e-01    3.160000e+00
  P2dr  SC5q  1 4.300000e-01    2.920000e+00
  P2dr  SC4q  1 4.300000e-01    2.770000e+00
  P2dr  SC3q  1 4.300000e-01    2.530000e+00
  P2dr  SC2q  1 4.300000e-01    2.530000e+00
  P2dr  SC1q  1 4.300000e-01    2.320000e+00
  P2dr  SX4q  1 4.300000e-01    3.160000e+00
  P2dr  SX3q  1 4.300000e-01    3.160000e+00
  P2dr  SX2q  1 4.300000e-01    2.920000e+00
  P2dr  SX1q  1 4.300000e-01    2.770000e+00
   P6q SP1dr  1 4.300000e-01    4.170000e+00
   P5q SP1dr  1 4.300000e-01    3.970000e+00
   P4q SP1dr  1 4.300000e-01    3.970000e+00
   P3q SP1dr  1 4.300000e-01    3.970000e+00
   P2q SP1dr  1 4.300000e-01    3.970000e+00
   P1q SP1dr  1 4.300000e-01    3.970000e+00
  P1dr  SN6q  1 4.300000e-01    3.970000e+00
  P1dr  SN5q  1 4.300000e-01    3.770000e+00
  P1dr  SN4q  1 4.300000e-01    3.770000e+00
  P1dr  SN3q  1 4.300000e-01    3.380000e+00
  P1dr  SN2q  1 4.300000e-01    3.380000e+00
  P1dr  SN1q  1 4.300000e-01    3.380000e+00
  P1dr  SC6q  1 4.300000e-01    3.160000e+00
  P1dr  SC5q  1 4.300000e-01    2.920000e+00
  P1dr  SC4q  1 4.300000e-01    2.770000e+00
  P1dr  SC3q  1 4.300000e-01    2.530000e+00
  P1dr  SC2q  1 4.300000e-01    2.530000e+00
  P1dr  SC1q  1 4.300000e-01    2.320000e+00
  P1dr  SX4q  1 4.300000e-01    3.160000e+00
  P1dr  SX3q  1 4.300000e-01    3.160000e+00
  P1dr  SX2q  1 4.300000e-01    2.920000e+00
  P1dr  SX1q  1 4.300000e-01    2.770000e+00
   P6q SN6dr  1 4.300000e-01    3.970000e+00
   P5q SN6dr  1 4.300000e-01    3.770000e+00
   P4q SN6dr  1 4.300000e-01    3.770000e+00
   P3q SN6dr  1 4.300000e-01    3.770000e+00
   P2q SN6dr  1 4.300000e-01    3.970000e+00
   P1q SN6dr  1 4.300000e-01    3.970000e+00
   N6q SN6dr  1 4.300000e-01    3.970000e+00
  N6dr  SN5q  1 4.300000e-01    3.970000e+00
  N6dr  SN4q  1 4.300000e-01    3.970000e+00
  N6dr  SN3q  1 4.300000e-01    3.590000e+00
  N6dr  SN2q  1 4.300000e-01    3.380000e+00
  N6dr  SN1q  1 4.300000e-01    3.380000e+00
  N6dr  SC6q  1 4.300000e-01    3.380000e+00
  N6dr  SC5q  1 4.300000e-01    3.160000e+00
  N6dr  SC4q  1 4.300000e-01    2.920000e+00
  N6dr  SC3q  1 4.300000e-01    2.770000e+00
  N6dr  SC2q  1 4.300000e-01    2.770000e+00
  N6dr  SC1q  1 4.300000e-01    2.530000e+00
  N6dr  SX4q  1 4.300000e-01    3.380000e+00
  N6dr  SX3q  1 4.300000e-01    3.160000e+00
  N6dr  SX2q  1 4.300000e-01    2.920000e+00
  N6dr  SX1q  1 4.300000e-01    2.770000e+00
   P6q SN5dr  1 4.300000e-01    3.590000e+00
   P5q SN5dr  1 4.300000e-01    3.590000e+00
   P4q SN5dr  1 4.300000e-01    3.590000e+00
   P3q SN5dr  1 4.300000e-01    3.590000e+00
   P2q SN5dr  1 4.300000e-01    3.770000e+00
   P1q SN5dr  1 4.300000e-01    3.770000e+00
   N6q SN5dr  1 4.300000e-01    3.970000e+00
   N5q SN5dr  1 4.300000e-01    3.770000e+00
  N5dr  SN4q  1 4.300000e-01    3.770000e+00
  N5dr  SN3q  1 4.300000e-01    3.590000e+00
  N5dr  SN2q  1 4.300000e-01    3.590000e+00
  N5dr  SN1q  1 4.300000e-01    3.380000e+00
  N5dr  SC6q  1 4.300000e-01    3.380000e+00
  N5dr  SC5q  1 4.300000e-01    3.160000e+00
  N5dr  SC4q  1 4.300000e-01    2.920000e+00
  N5dr  SC3q  1 4.300000e-01    2.920000e+00
  N5dr  SC2q  1 4.300000e-01    2.770000e+00
  N5dr  SC1q  1 4.300000e-01    2.530000e+00
  N5dr  SX4q  1 4.300000e-01    3.590000e+00
  N5dr  SX3q  1 4.300000e-01    3.380000e+00
  N5dr  SX2q  1 4.300000e-01    3.160000e+00
  N5dr  SX1q  1 4.300000e-01    2.920000e+00
   P6q SN4dr  1 4.300000e-01    3.380000e+00
   P5q SN4dr  1 4.300000e-01    3.590000e+00
   P4q SN4dr  1 4.300000e-01    3.590000e+00
   P3q SN4dr  1 4.300000e-01    3.590000e+00
   P2q SN4dr  1 4.300000e-01    3.590000e+00
   P1q SN4dr  1 4.300000e-01    3.770000e+00
   N6q SN4dr  1 4.300000e-01    3.970000e+00
   N5q SN4dr  1 4.300000e-01    3.770000e+00
   N4q SN4dr  1 4.300000e-01    3.770000e+00
  N4dr  SN3q  1 4.300000e-01    3.590000e+00
  N4dr  SN2q  1 4.300000e-01    3.590000e+00
  N4dr  SN1q  1 4.300000e-01    3.380000e+00
  N4dr  SC6q  1 4.300000e-01    3.380000e+00
  N4dr  SC5q  1 4.300000e-01    3.160000e+00
  N4dr  SC4q  1 4.300000e-01    3.160000e+00
  N4dr  SC3q  1 4.300000e-01    2.920000e+00
  N4dr  SC2q  1 4.300000e-01    2.770000e+00
  N4dr  SC1q  1 4.300000e-01    2.530000e+00
  N4dr  SX4q  1 4.300000e-01    3.770000e+00
  N4dr  SX3q  1 4.300000e-01    3.590000e+00
  N4dr  SX2q  1 4.300000e-01    3.160000e+00
  N4dr  SX1q  1 4.300000e-01    2.920000e+00
   P6q SN3dr  1 4.300000e-01    3.160000e+00
   P5q SN3dr  1 4.300000e-01    3.160000e+00
   P4q SN3dr  1 4.300000e-01    3.380000e+00
   P3q SN3dr  1 4.300000e-01    3.380000e+00
   P2q SN3dr  1 4.300000e-01    3.380000e+00
   P1q SN3dr  1 4.300000e-01    3.380000e+00
   N6q SN3dr  1 4.300000e-01    3.590000e+00
   N5q SN3dr  1 4.300000e-01    3.590000e+00
   N4q SN3dr  1 4.300000e-01    3.590000e+00
   N3q SN3dr  1 4.300000e-01    3.590000e+00
  N3dr  SN2q  1 4.300000e-01    3.590000e+00
  N3dr  SN1q  1 4.300000e-01    3.380000e+00
  N3dr  SC6q  1 4.300000e-01    3.380000e+00
  N3dr  SC5q  1 4.300000e-01    3.160000e+00
  N3dr  SC4q  1 4.300000e-01    3.160000e+00
  N3dr  SC3q  1 4.300000e-01    2.920000e+00
  N3dr  SC2q  1 4.300000e-01    2.920000e+00
  N3dr  SC1q  1 4.300000e-01    2.770000e+00
  N3dr  SX4q  1 4.300000e-01    3.590000e+00
  N3dr  SX3q  1 4.300000e-01    3.380000e+00
  N3dr  SX2q  1 4.300000e-01    3.160000e+00
  N3dr  SX1q  1 4.300000e-01    3.160000e+00
   P6q SN2dr  1 4.300000e-01    2.920000e+00
   P5q SN2dr  1 4.300000e-01    2.920000e+00
   P4q SN2dr  1 4.300000e-01    3.160000e+00
   P3q SN2dr  1 4.300000e-01    3.380000e+00
   P2q SN2dr  1 4.300000e-01    3.380000e+00
   P1q SN2dr  1 4.300000e-01    3.380000e+00
   N6q SN2dr  1 4.300000e-01    3.380000e+00
   N5q SN2dr  1 4.300000e-01    3.590000e+00
   N4q SN2dr  1 4.300000e-01    3.590000e+00
   N3q SN2dr  1 4.300000e-01    3.590000e+00
   N2q SN2dr  1 4.300000e-01    3.590000e+00
  N2dr  SN1q  1 4.300000e-01    3.380000e+00
  N2dr  SC6q  1 4.300000e-01    3.380000e+00
  N2dr  SC5q  1 4.300000e-01    3.160000e+00
  N2dr  SC4q  1 4.300000e-01    3.160000e+00
  N2dr  SC3q  1 4.300000e-01    3.160000e+00
  N2dr  SC2q  1 4.300000e-01    2.920000e+00
  N2dr  SC1q  1 4.300000e-01    2.770000e+00
  N2dr  SX4q  1 4.300000e-01    3.590000e+00
  N2dr  SX3q  1 4.300000e-01    3.380000e+00
  N2dr  SX2q  1 4.300000e-01    3.160000e+00
  N2dr  SX1q  1 4.300000e-01    3.160000e+00
   P6q SN1dr  1 4.300000e-01    2.770000e+00
   P5q SN1dr  1 4.300000e-01    2.770000e+00
   P4q SN1dr  1 4.300000e-01    2.920000e+00
   P3q SN1dr  1 4.300000e-01    3.160000e+00
   P2q SN1dr  1 4.300000e-01    3.380000e+00
   P1q SN1dr  1 4.300000e-01    3.380000e+00
   N6q SN1dr  1 4.300000e-01    3.380000e+00
   N5q SN1dr  1 4.300000e-01    3.380000e+00
   N4q SN1dr  1 4.300000e-01    3.380000e+00
   N3q SN1dr  1 4.300000e-01    3.380000e+00
   N2q SN1dr  1 4.300000e-01    3.380000e+00
   N1q SN1dr  1 4.300000e-01    3.590000e+00
  N1dr  SC6q  1 4.300000e-01    3.590000e+00
  N1dr  SC5q  1 4.300000e-01    3.380000e+00
  N1dr  SC4q  1 4.300000e-01    3.380000e+00
  N1dr  SC3q  1 4.300000e-01    3.160000e+00
  N1dr  SC2q  1 4.300000e-01    2.920000e+00
  N1dr  SC1q  1 4.300000e-01    2.770000e+00
  N1dr  SX4q  1 4.300000e-01    3.380000e+00
  N1dr  SX3q  1 4.300000e-01    3.380000e+00
  N1dr  SX2q  1 4.300000e-01    3.160000e+00
  N1dr  SX1q  1 4.300000e-01    3.160000e+00
   P6q SP6ar  1 4.300000e-01    5.210000e+00
  P6ar  SP5q  1 4.300000e-01    4.920000e+00
  P6ar  SP4q  1 4.300000e-01    4.680000e+00
  P6ar  SP3q  1 4.300000e-01    4.400000e+00
  P6ar  SP2q  1 4.300000e-01    4.400000e+00
  P6ar  SP1q  1 4.300000e-01    4.170000e+00
  P6ar  SN6q  1 4.300000e-01    3.970000e+00
  P6ar  SN5q  1 4.300000e-01    3.590000e+00
  P6ar  SN4q  1 4.300000e-01    3.380000e+00
  P6ar  SN3q  1 4.300000e-01    3.160000e+00
  P6ar  SN2q  1 4.300000e-01    2.920000e+00
  P6ar  SN1q  1 4.300000e-01    2.770000e+00
  P6ar  SC6q  1 4.300000e-01    2.770000e+00
  P6ar  SC5q  1 4.300000e-01    2.530000e+00
  P6ar  SC4q  1 4.300000e-01    2.320000e+00
  P6ar  SC3q  1 4.300000e-01    2.160000e+00
  P6ar  SC2q  1 4.300000e-01    2.160000e+00
  P6ar  SC1q  1 4.300000e-01    1.730000e+00
  P6ar  SX4q  1 4.300000e-01    2.920000e+00
  P6ar  SX3q  1 4.300000e-01    2.920000e+00
  P6ar  SX2q  1 4.300000e-01    2.770000e+00
  P6ar  SX1q  1 4.300000e-01    2.530000e+00
   P6q SP5ar  1 4.300000e-01    4.920000e+00
   P5q SP5ar  1 4.300000e-01    4.680000e+00
  P5ar  SP4q  1 4.300000e-01    4.400000e+00
  P5ar  SP3q  1 4.300000e-01    4.170000e+00
  P5ar  SP2q  1 4.300000e-01    4.170000e+00
  P5ar  SP1q  1 4.300000e-01    3.970000e+00
  P5ar  SN6q  1 4.300000e-01    3.770000e+00
  P5ar  SN5q  1 4.300000e-01    3.590000e+00
  P5ar  SN4q  1 4.300000e-01    3.590000e+00
  P5ar  SN3q  1 4.300000e-01    3.160000e+00
  P5ar  SN2q  1 4.300000e-01    2.920000e+00
  P5ar  SN1q  1 4.300000e-01    2.770000e+00
  P5ar  SC6q  1 4.300000e-01    2.770000e+00
  P5ar  SC5q  1 4.300000e-01    2.770000e+00
  P5ar  SC4q  1 4.300000e-01    2.530000e+00
  P5ar  SC3q  1 4.300000e-01    2.320000e+00
  P5ar  SC2q  1 4.300000e-01    2.320000e+00
  P5ar  SC1q  1 4.300000e-01    2.160000e+00
  P5ar  SX4q  1 4.300000e-01    3.160000e+00
  P5ar  SX3q  1 4.300000e-01    2.920000e+00
  P5ar  SX2q  1 4.300000e-01    2.920000e+00
  P5ar  SX1q  1 4.300000e-01    2.530000e+00
   P6q SP4ar  1 4.300000e-01    4.680000e+00
   P5q SP4ar  1 4.300000e-01    4.400000e+00
   P4q SP4ar  1 4.300000e-01    4.400000e+00
  P4ar  SP3q  1 4.300000e-01    4.170000e+00
  P4ar  SP2q  1 4.300000e-01    4.170000e+00
  P4ar  SP1q  1 4.300000e-01    3.970000e+00
  P4ar  SN6q  1 4.300000e-01    3.770000e+00
  P4ar  SN5q  1 4.300000e-01    3.590000e+00
  P4ar  SN4q  1 4.300000e-01    3.590000e+00
  P4ar  SN3q  1 4.300000e-01    3.380000e+00
  P4ar  SN2q  1 4.300000e-01    3.160000e+00
  P4ar  SN1q  1 4.300000e-01    2.920000e+00
  P4ar  SC6q  1 4.300000e-01    2.920000e+00
  P4ar  SC5q  1 4.300000e-01    2.770000e+00
  P4ar  SC4q  1 4.300000e-01    2.530000e+00
  P4ar  SC3q  1 4.300000e-01    2.320000e+00
  P4ar  SC2q  1 4.300000e-01    2.320000e+00
  P4ar  SC1q  1 4.300000e-01    2.160000e+00
  P4ar  SX4q  1 4.300000e-01    3.160000e+00
  P4ar  SX3q  1 4.300000e-01    2.920000e+00
  P4ar  SX2q  1 4.300000e-01    2.920000e+00
  P4ar  SX1q  1 4.300000e-01    2.770000e+00
   P6q SP3ar  1 4.300000e-01    4.400000e+00
   P5q SP3ar  1 4.300000e-01    4.170000e+00
   P4q SP3ar  1 4.300000e-01    4.170000e+00
   P3q SP3ar  1 4.300000e-01    4.170000e+00
  P3ar  SP2q  1 4.300000e-01    4.170000e+00
  P3ar  SP1q  1 4.300000e-01    3.970000e+00
  P3ar  SN6q  1 4.300000e-01    3.770000e+00
  P3ar  SN5q  1 4.300000e-01    3.590000e+00
  P3ar  SN4q  1 4.300000e-01    3.590000e+00
  P3ar  SN3q  1 4.300000e-01    3.380000e+00
  P3ar  SN2q  1 4.300000e-01    3.380000e+00
  P3ar  SN1q  1 4.300000e-01    3.160000e+00
  P3ar  SC6q  1 4.300000e-01    3.160000e+00
  P3ar  SC5q  1 4.300000e-01    2.920000e+00
  P3ar  SC4q  1 4.300000e-01    2.770000e+00
  P3ar  SC3q  1 4.300000e-01    2.320000e+00
  P3ar  SC2q  1 4.300000e-01    2.320000e+00
  P3ar  SC1q  1 4.300000e-01    2.160000e+00
  P3ar  SX4q  1 4.300000e-01    3.160000e+00
  P3ar  SX3q  1 4.300000e-01    3.160000e+00
  P3ar  SX2q  1 4.300000e-01    2.920000e+00
  P3ar  SX1q  1 4.300000e-01    2.770000e+00
   P6q SP2ar  1 4.300000e-01    4.400000e+00
   P5q SP2ar  1 4.300000e-01    4.170000e+00
   P4q SP2ar  1 4.300000e-01    4.170000e+00
   P3q SP2ar  1 4.300000e-01    4.170000e+00
   P2q SP2ar  1 4.300000e-01    4.170000e+00
  P2ar  SP1q  1 4.300000e-01    3.970000e+00
  P2ar  SN6q  1 4.300000e-01    3.970000e+00
  P2ar  SN5q  1 4.300000e-01    3.770000e+00
  P2ar  SN4q  1 4.300000e-01    3.590000e+00
  P2ar  SN3q  1 4.300000e-01    3.380000e+00
  P2ar  SN2q  1 4.300000e-01    3.380000e+00
  P2ar  SN1q  1 4.300000e-01    3.380000e+00
  P2ar  SC6q  1 4.300000e-01    3.160000e+00
  P2ar  SC5q  1 4.300000e-01    2.920000e+00
  P2ar  SC4q  1 4.300000e-01    2.770000e+00
  P2ar  SC3q  1 4.300000e-01    2.530000e+00
  P2ar  SC2q  1 4.300000e-01    2.530000e+00
  P2ar  SC1q  1 4.300000e-01    2.320000e+00
  P2ar  SX4q  1 4.300000e-01    3.160000e+00
  P2ar  SX3q  1 4.300000e-01    3.160000e+00
  P2ar  SX2q  1 4.300000e-01    2.920000e+00
  P2ar  SX1q  1 4.300000e-01    2.770000e+00
   P6q SP1ar  1 4.300000e-01    4.170000e+00
   P5q SP1ar  1 4.300000e-01    3.970000e+00
   P4q SP1ar  1 4.300000e-01    3.970000e+00
   P3q SP1ar  1 4.300000e-01    3.970000e+00
   P2q SP1ar  1 4.300000e-01    3.970000e+00
   P1q SP1ar  1 4.300000e-01    3.970000e+00
  P1ar  SN6q  1 4.300000e-01    3.970000e+00
  P1ar  SN5q  1 4.300000e-01    3.770000e+00
  P1ar  SN4q  1 4.300000e-01    3.770000e+00
  P1ar  SN3q  1 4.300000e-01    3.380000e+00
  P1ar  SN2q  1 4.300000e-01    3.380000e+00
  P1ar  SN1q  1 4.300000e-01    3.380000e+00
  P1ar  SC6q  1 4.300000e-01    3.160000e+00
  P1ar  SC5q  1 4.300000e-01    2.920000e+00
  P1ar  SC4q  1 4.300000e-01    2.770000e+00
  P1ar  SC3q  1 4.300000e-01    2.530000e+00
  P1ar  SC2q  1 4.300000e-01    2.530000e+00
  P1ar  SC1q  1 4.300000e-01    2.320000e+00
  P1ar  SX4q  1 4.300000e-01    3.160000e+00
  P1ar  SX3q  1 4.300000e-01    3.160000e+00
  P1ar  SX2q  1 4.300000e-01    2.920000e+00
  P1ar  SX1q  1 4.300000e-01    2.770000e+00
   P6q SN6ar  1 4.300000e-01    3.970000e+00
   P5q SN6ar  1 4.300000e-01    3.770000e+00
   P4q SN6ar  1 4.300000e-01    3.770000e+00
   P3q SN6ar  1 4.300000e-01    3.770000e+00
   P2q SN6ar  1 4.300000e-01    3.970000e+00
   P1q SN6ar  1 4.300000e-01    3.970000e+00
   N6q SN6ar  1 4.300000e-01    3.970000e+00
  N6ar  SN5q  1 4.300000e-01    3.970000e+00
  N6ar  SN4q  1 4.300000e-01    3.970000e+00
  N6ar  SN3q  1 4.300000e-01    3.590000e+00
  N6ar  SN2q  1 4.300000e-01    3.380000e+00
  N6ar  SN1q  1 4.300000e-01    3.380000e+00
  N6ar  SC6q  1 4.300000e-01    3.380000e+00
  N6ar  SC5q  1 4.300000e-01    3.160000e+00
  N6ar  SC4q  1 4.300000e-01    2.920000e+00
  N6ar  SC3q  1 4.300000e-01    2.770000e+00
  N6ar  SC2q  1 4.300000e-01    2.770000e+00
  N6ar  SC1q  1 4.300000e-01    2.530000e+00
  N6ar  SX4q  1 4.300000e-01    3.380000e+00
  N6ar  SX3q  1 4.300000e-01    3.160000e+00
  N6ar  SX2q  1 4.300000e-01    2.920000e+00
  N6ar  SX1q  1 4.300000e-01    2.770000e+00
   P6q SN5ar  1 4.300000e-01    3.590000e+00
   P5q SN5ar  1 4.300000e-01    3.590000e+00
   P4q SN5ar  1 4.300000e-01    3.590000e+00
   P3q SN5ar  1 4.300000e-01    3.590000e+00
   P2q SN5ar  1 4.300000e-01    3.770000e+00
   P1q SN5ar  1 4.300000e-01    3.770000e+00
   N6q SN5ar  1 4.300000e-01    3.970000e+00
   N5q SN5ar  1 4.300000e-01    3.770000e+00
  N5ar  SN4q  1 4.300000e-01    3.770000e+00
  N5ar  SN3q  1 4.300000e-01    3.590000e+00
  N5ar  SN2q  1 4.300000e-01    3.590000e+00
  N5ar  SN1q  1 4.300000e-01    3.380000e+00
  N5ar  SC6q  1 4.300000e-01    3.380000e+00
  N5ar  SC5q  1 4.300000e-01    3.160000e+00
  N5ar  SC4q  1 4.300000e-01    2.920000e+00
  N5ar  SC3q  1 4.300000e-01    2.920000e+00
  N5ar  SC2q  1 4.300000e-01    2.770000e+00
  N5ar  SC1q  1 4.300000e-01    2.530000e+00
  N5ar  SX4q  1 4.300000e-01    3.590000e+00
  N5ar  SX3q  1 4.300000e-01    3.380000e+00
  N5ar  SX2q  1 4.300000e-01    3.160000e+00
  N5ar  SX1q  1 4.300000e-01    2.920000e+00
   P6q SN4ar  1 4.300000e-01    3.380000e+00
   P5q SN4ar  1 4.300000e-01    3.590000e+00
   P4q SN4ar  1 4.300000e-01    3.590000e+00
   P3q SN4ar  1 4.300000e-01    3.590000e+00
   P2q SN4ar  1 4.300000e-01    3.590000e+00
   P1q SN4ar  1 4.300000e-01    3.770000e+00
   N6q SN4ar  1 4.300000e-01    3.970000e+00
   N5q SN4ar  1 4.300000e-01    3.770000e+00
   N4q SN4ar  1 4.300000e-01    3.770000e+00
  N4ar  SN3q  1 4.300000e-01    3.590000e+00
  N4ar  SN2q  1 4.300000e-01    3.590000e+00
  N4ar  SN1q  1 4.300000e-01    3.380000e+00
  N4ar  SC6q  1 4.300000e-01    3.380000e+00
  N4ar  SC5q  1 4.300000e-01    3.160000e+00
  N4ar  SC4q  1 4.300000e-01    3.160000e+00
  N4ar  SC3q  1 4.300000e-01    2.920000e+00
  N4ar  SC2q  1 4.300000e-01    2.770000e+00
  N4ar  SC1q  1 4.300000e-01    2.530000e+00
  N4ar  SX4q  1 4.300000e-01    3.770000e+00
  N4ar  SX3q  1 4.300000e-01    3.590000e+00
  N4ar  SX2q  1 4.300000e-01    3.160000e+00
  N4ar  SX1q  1 4.300000e-01    2.920000e+00
   P6q SN3ar  1 4.300000e-01    3.160000e+00
   P5q SN3ar  1 4.300000e-01    3.160000e+00
   P4q SN3ar  1 4.300000e-01    3.380000e+00
   P3q SN3ar  1 4.300000e-01    3.380000e+00
   P2q SN3ar  1 4.300000e-01    3.380000e+00
   P1q SN3ar  1 4.300000e-01    3.380000e+00
   N6q SN3ar  1 4.300000e-01    3.590000e+00
   N5q SN3ar  1 4.300000e-01    3.590000e+00
   N4q SN3ar  1 4.300000e-01    3.590000e+00
   N3q SN3ar  1 4.300000e-01    3.590000e+00
  N3ar  SN2q  1 4.300000e-01    3.590000e+00
  N3ar  SN1q  1 4.300000e-01    3.380000e+00
  N3ar  SC6q  1 4.300000e-01    3.380000e+00
  N3ar  SC5q  1 4.300000e-01    3.160000e+00
  N3ar  SC4q  1 4.300000e-01    3.160000e+00
  N3ar  SC3q  1 4.300000e-01    2.920000e+00
  N3ar  SC2q  1 4.300000e-01    2.920000e+00
  N3ar  SC1q  1 4.300000e-01    2.770000e+00
  N3ar  SX4q  1 4.300000e-01    3.590000e+00
  N3ar  SX3q  1 4.300000e-01    3.380000e+00
  N3ar  SX2q  1 4.300000e-01    3.160000e+00
  N3ar  SX1q  1 4.300000e-01    3.160000e+00
   P6q SN2ar  1 4.300000e-01    2.920000e+00
   P5q SN2ar  1 4.300000e-01    2.920000e+00
   P4q SN2ar  1 4.300000e-01    3.160000e+00
   P3q SN2ar  1 4.300000e-01    3.380000e+00
   P2q SN2ar  1 4.300000e-01    3.380000e+00
   P1q SN2ar  1 4.300000e-01    3.380000e+00
   N6q SN2ar  1 4.300000e-01    3.380000e+00
   N5q SN2ar  1 4.300000e-01    3.590000e+00
   N4q SN2ar  1 4.300000e-01    3.590000e+00
   N3q SN2ar  1 4.300000e-01    3.590000e+00
   N2q SN2ar  1 4.300000e-01    3.590000e+00
  N2ar  SN1q  1 4.300000e-01    3.380000e+00
  N2ar  SC6q  1 4.300000e-01    3.380000e+00
  N2ar  SC5q  1 4.300000e-01    3.160000e+00
  N2ar  SC4q  1 4.300000e-01    3.160000e+00
  N2ar  SC3q  1 4.300000e-01    3.160000e+00
  N2ar  SC2q  1 4.300000e-01    2.920000e+00
  N2ar  SC1q  1 4.300000e-01    2.770000e+00
  N2ar  SX4q  1 4.300000e-01    3.590000e+00
  N2ar  SX3q  1 4.300000e-01    3.380000e+00
  N2ar  SX2q  1 4.300000e-01    3.160000e+00
  N2ar  SX1q  1 4.300000e-01    3.160000e+00
   P6q SN1ar  1 4.300000e-01    2.770000e+00
   P5q SN1ar  1 4.300000e-01    2.770000e+00
   P4q SN1ar  1 4.300000e-01    2.920000e+00
   P3q SN1ar  1 4.300000e-01    3.160000e+00
   P2q SN1ar  1 4.300000e-01    3.380000e+00
   P1q SN1ar  1 4.300000e-01    3.380000e+00
   N6q SN1ar  1 4.300000e-01    3.380000e+00
   N5q SN1ar  1 4.300000e-01    3.380000e+00
   N4q SN1ar  1 4.300000e-01    3.380000e+00
   N3q SN1ar  1 4.300000e-01    3.380000e+00
   N2q SN1ar  1 4.300000e-01    3.380000e+00
   N1q SN1ar  1 4.300000e-01    3.590000e+00
  N1ar  SC6q  1 4.300000e-01    3.590000e+00
  N1ar  SC5q  1 4.300000e-01    3.380000e+00
  N1ar  SC4q  1 4.300000e-01    3.380000e+00
  N1ar  SC3q  1 4.300000e-01    3.160000e+00
  N1ar  SC2q  1 4.300000e-01    2.920000e+00
  N1ar  SC1q  1 4.300000e-01    2.770000e+00
  N1ar  SX4q  1 4.300000e-01    3.380000e+00
  N1ar  SX3q  1 4.300000e-01    3.380000e+00
  N1ar  SX2q  1 4.300000e-01    3.160000e+00
  N1ar  SX1q  1 4.300000e-01    3.160000e+00
   C6v SC6vr  1 4.300000e-01    2.920000e+00
  C6vr  SC5v  1 4.300000e-01    2.770000e+00
  C6vr  SC4v  1 4.300000e-01    2.770000e+00
  C6vr  SC3v  1 4.300000e-01    2.530000e+00
  C6vr  SC2v  1 4.300000e-01    2.320000e+00
  C6vr  SC1v  1 4.300000e-01    2.160000e+00
  C6vr  SX4v  1 4.300000e-01    2.770000e+00
  C6vr  SX3v  1 4.300000e-01    2.770000e+00
  C6vr  SX2v  1 4.300000e-01    2.770000e+00
  C6vr  SX1v  1 4.300000e-01    2.770000e+00
   P6q SC6vr  1 4.300000e-01    2.920000e+00
   P5q SC6vr  1 4.300000e-01    2.920000e+00
   P4q SC6vr  1 4.300000e-01    3.160000e+00
   P3q SC6vr  1 4.300000e-01    3.380000e+00
   P2q SC6vr  1 4.300000e-01    3.380000e+00
   P1q SC6vr  1 4.300000e-01    3.380000e+00
   N6q SC6vr  1 4.300000e-01    3.590000e+00
   N5q SC6vr  1 4.300000e-01    3.590000e+00
   N4q SC6vr  1 4.300000e-01    3.590000e+00
   N3q SC6vr  1 4.300000e-01    3.590000e+00
   N2q SC6vr  1 4.300000e-01    3.590000e+00
   N1q SC6vr  1 4.300000e-01    3.770000e+00
   C6q SC6vr  1 4.300000e-01    3.770000e+00
  C6vr  SC5q  1 4.300000e-01    3.590000e+00
  C6vr  SC4q  1 4.300000e-01    3.590000e+00
  C6vr  SC3q  1 4.300000e-01    3.380000e+00
  C6vr  SC2q  1 4.300000e-01    3.160000e+00
  C6vr  SC1q  1 4.300000e-01    2.920000e+00
  C6vr  SX4q  1 4.300000e-01    3.590000e+00
  C6vr  SX3q  1 4.300000e-01    3.590000e+00
  C6vr  SX2q  1 4.300000e-01    3.590000e+00
  C6vr  SX1q  1 4.300000e-01    3.590000e+00
  C6vr SC6vq  1 4.300000e-01    3.380000e+00
  C6vr SX1vq  1 4.300000e-01    3.160000e+00
  C6vr SX2vq  1 4.300000e-01    3.160000e+00
  C6vr SX3vq  1 4.300000e-01    3.160000e+00
  C6vr SX4vq  1 4.300000e-01    3.160000e+00
  C6vr SC1vq  1 4.300000e-01    2.530000e+00
  C6vr SC2vq  1 4.300000e-01    2.770000e+00
  C6vr SC3vq  1 4.300000e-01    2.920000e+00
  C6vr SC4vq  1 4.300000e-01    3.160000e+00
  C6vr SC5vq  1 4.300000e-01    3.160000e+00
   C5v SC5vr  1 4.300000e-01    2.770000e+00
  C5vr  SC4v  1 4.300000e-01    2.770000e+00
  C5vr  SC3v  1 4.300000e-01    2.530000e+00
  C5vr  SC2v  1 4.300000e-01    2.320000e+00
  C5vr  SC1v  1 4.300000e-01    2.320000e+00
  C5vr  SX4v  1 4.300000e-01    2.530000e+00
  C5vr  SX3v  1 4.300000e-01    2.530000e+00
  C5vr  SX2v  1 4.300000e-01    2.530000e+00
  C5vr  SX1v  1 4.300000e-01    2.770000e+00
   P6q SC5vr  1 4.300000e-01    2.770000e+00
   P5q SC5vr  1 4.300000e-01    2.920000e+00
   P4q SC5vr  1 4.300000e-01    2.920000e+00
   P3q SC5vr  1 4.300000e-01    3.160000e+00
   P2q SC5vr  1 4.300000e-01    3.160000e+00
   P1q SC5vr  1 4.300000e-01    3.160000e+00
   N6q SC5vr  1 4.300000e-01    3.380000e+00
   N5q SC5vr  1 4.300000e-01    3.380000e+00
   N4q SC5vr  1 4.300000e-01    3.380000e+00
   N3q SC5vr  1 4.300000e-01    3.380000e+00
   N2q SC5vr  1 4.300000e-01    3.380000e+00
   N1q SC5vr  1 4.300000e-01    3.590000e+00
   C6q SC5vr  1 4.300000e-01    3.590000e+00
   C5q SC5vr  1 4.300000e-01    3.590000e+00
  C5vr  SC4q  1 4.300000e-01    3.590000e+00
  C5vr  SC3q  1 4.300000e-01    3.380000e+00
  C5vr  SC2q  1 4.300000e-01    3.160000e+00
  C5vr  SC1q  1 4.300000e-01    3.160000e+00
  C5vr  SX4q  1 4.300000e-01    3.380000e+00
  C5vr  SX3q  1 4.300000e-01    3.380000e+00
  C5vr  SX2q  1 4.300000e-01    3.380000e+00
  C5vr  SX1q  1 4.300000e-01    3.590000e+00
  C6vq SC5vr  1 4.300000e-01    3.160000e+00
  C5vr SC5vq  1 4.300000e-01    3.160000e+00
  C5vr SX1vq  1 4.300000e-01    3.160000e+00
  C5vr SX2vq  1 4.300000e-01    2.920000e+00
  C5vr SX3vq  1 4.300000e-01    2.920000e+00
  C5vr SX4vq  1 4.300000e-01    2.920000e+00
  C5vr SC1vq  1 4.300000e-01    2.770000e+00
  C5vr SC2vq  1 4.300000e-01    2.770000e+00
  C5vr SC3vq  1 4.300000e-01    2.920000e+00
  C5vr SC4vq  1 4.300000e-01    3.160000e+00
   C4v SC4vr  1 4.300000e-01    2.770000e+00
  C4vr  SC3v  1 4.300000e-01    2.770000e+00
  C4vr  SC2v  1 4.300000e-01    2.530000e+00
  C4vr  SC1v  1 4.300000e-01    2.320000e+00
  C4vr  SX4v  1 4.300000e-01    2.530000e+00
  C4vr  SX3v  1 4.300000e-01    2.530000e+00
  C4vr  SX2v  1 4.300000e-01    2.530000e+00
  C4vr  SX1v  1 4.300000e-01    2.770000e+00
   P6q SC4vr  1 4.300000e-01    2.530000e+00
   P5q SC4vr  1 4.300000e-01    2.770000e+00
   P4q SC4vr  1 4.300000e-01    2.770000e+00
   P3q SC4vr  1 4.300000e-01    2.920000e+00
   P2q SC4vr  1 4.300000e-01    2.920000e+00
   P1q SC4vr  1 4.300000e-01    2.920000e+00
   N6q SC4vr  1 4.300000e-01    3.160000e+00
   N5q SC4vr  1 4.300000e-01    3.160000e+00
   N4q SC4vr  1 4.300000e-01    3.380000e+00
   N3q SC4vr  1 4.300000e-01    3.380000e+00
   N2q SC4vr  1 4.300000e-01    3.380000e+00
   N1q SC4vr  1 4.300000e-01    3.590000e+00
   C6q SC4vr  1 4.300000e-01    3.590000e+00
   C5q SC4vr  1 4.300000e-01    3.590000e+00
   C4q SC4vr  1 4.300000e-01    3.590000e+00
  C4vr  SC3q  1 4.300000e-01    3.590000e+00
  C4vr  SC2q  1 4.300000e-01    3.380000e+00
  C4vr  SC1q  1 4.300000e-01    3.160000e+00
  C4vr  SX4q  1 4.300000e-01    3.380000e+00
  C4vr  SX3q  1 4.300000e-01    3.380000e+00
  C4vr  SX2q  1 4.300000e-01    3.380000e+00
  C4vr  SX1q  1 4.300000e-01    3.590000e+00
  C6vq SC4vr  1 4.300000e-01    3.160000e+00
  C5vq SC4vr  1 4.300000e-01    3.160000e+00
  C4vr SC4vq  1 4.300000e-01    3.160000e+00
  C4vr SX1vq  1 4.300000e-01    3.160000e+00
  C4vr SX2vq  1 4.300000e-01    2.920000e+00
  C4vr SX3vq  1 4.300000e-01    2.920000e+00
  C4vr SX4vq  1 4.300000e-01    2.920000e+00
  C4vr SC1vq  1 4.300000e-01    2.770000e+00
  C4vr SC2vq  1 4.300000e-01    2.920000e+00
  C4vr SC3vq  1 4.300000e-01    3.160000e+00
   C3v SC3vr  1 4.300000e-01    2.770000e+00
  C3vr  SC2v  1 4.300000e-01    2.770000e+00
  C3vr  SC1v  1 4.300000e-01    2.770000e+00
  C3vr  SX4v  1 4.300000e-01    2.530000e+00
  C3vr  SX3v  1 4.300000e-01    2.530000e+00
  C3vr  SX2v  1 4.300000e-01    2.530000e+00
  C3vr  SX1v  1 4.300000e-01    2.770000e+00
   P6q SC3vr  1 4.300000e-01    2.320000e+00
   P5q SC3vr  1 4.300000e-01    2.530000e+00
   P4q SC3vr  1 4.300000e-01    2.530000e+00
   P3q SC3vr  1 4.300000e-01    2.530000e+00
   P2q SC3vr  1 4.300000e-01    2.770000e+00
   P1q SC3vr  1 4.300000e-01    2.770000e+00
   N6q SC3vr  1 4.300000e-01    2.920000e+00
   N5q SC3vr  1 4.300000e-01    3.160000e+00
   N4q SC3vr  1 4.300000e-01    3.160000e+00
   N3q SC3vr  1 4.300000e-01    3.160000e+00
   N2q SC3vr  1 4.300000e-01    3.380000e+00
   N1q SC3vr  1 4.300000e-01    3.380000e+00
   C6q SC3vr  1 4.300000e-01    3.380000e+00
   C5q SC3vr  1 4.300000e-01    3.380000e+00
   C4q SC3vr  1 4.300000e-01    3.590000e+00
   C3q SC3vr  1 4.300000e-01    3.590000e+00
  C3vr  SC2q  1 4.300000e-01    3.590000e+00
  C3vr  SC1q  1 4.300000e-01    3.590000e+00
  C3vr  SX4q  1 4.300000e-01    3.380000e+00
  C3vr  SX3q  1 4.300000e-01    3.380000e+00
  C3vr  SX2q  1 4.300000e-01    3.380000e+00
  C3vr  SX1q  1 4.300000e-01    3.590000e+00
  C6vq SC3vr  1 4.300000e-01    2.920000e+00
  C5vq SC3vr  1 4.300000e-01    2.920000e+00
  C4vq SC3vr  1 4.300000e-01    3.160000e+00
  C3vr SC3vq  1 4.300000e-01    3.160000e+00
  C3vr SX1vq  1 4.300000e-01    3.160000e+00
  C3vr SX2vq  1 4.300000e-01    2.920000e+00
  C3vr SX3vq  1 4.300000e-01    2.920000e+00
  C3vr SX4vq  1 4.300000e-01    2.920000e+00
  C3vr SC1vq  1 4.300000e-01    3.160000e+00
  C3vr SC2vq  1 4.300000e-01    3.160000e+00
   C2v SC2vr  1 4.300000e-01    2.770000e+00
  C2vr  SC1v  1 4.300000e-01    2.920000e+00
  C2vr  SX4v  1 4.300000e-01    2.160000e+00
  C2vr  SX3v  1 4.300000e-01    2.530000e+00
  C2vr  SX2v  1 4.300000e-01    2.530000e+00
  C2vr  SX1v  1 4.300000e-01    2.530000e+00
   P6q SC2vr  1 4.300000e-01    2.320000e+00
   P5q SC2vr  1 4.300000e-01    2.530000e+00
   P4q SC2vr  1 4.300000e-01    2.530000e+00
   P3q SC2vr  1 4.300000e-01    2.530000e+00
   P2q SC2vr  1 4.300000e-01    2.770000e+00
   P1q SC2vr  1 4.300000e-01    2.770000e+00
   N6q SC2vr  1 4.300000e-01    2.920000e+00
   N5q SC2vr  1 4.300000e-01    2.920000e+00
   N4q SC2vr  1 4.300000e-01    2.920000e+00
   N3q SC2vr  1 4.300000e-01    3.160000e+00
   N2q SC2vr  1 4.300000e-01    3.160000e+00
   N1q SC2vr  1 4.300000e-01    3.160000e+00
   C6q SC2vr  1 4.300000e-01    3.160000e+00
   C5q SC2vr  1 4.300000e-01    3.160000e+00
   C4q SC2vr  1 4.300000e-01    3.380000e+00
   C3q SC2vr  1 4.300000e-01    3.590000e+00
   C2q SC2vr  1 4.300000e-01    3.590000e+00
  C2vr  SC1q  1 4.300000e-01    3.770000e+00
  C2vr  SX4q  1 4.300000e-01    2.920000e+00
  C2vr  SX3q  1 4.300000e-01    3.380000e+00
  C2vr  SX2q  1 4.300000e-01    3.380000e+00
  C2vr  SX1q  1 4.300000e-01    3.380000e+00
  C6vq SC2vr  1 4.300000e-01    2.770000e+00
  C5vq SC2vr  1 4.300000e-01    2.770000e+00
  C4vq SC2vr  1 4.300000e-01    2.920000e+00
  C3vq SC2vr  1 4.300000e-01    3.160000e+00
  C2vr SC2vq  1 4.300000e-01    3.160000e+00
  C2vr SX1vq  1 4.300000e-01    2.920000e+00
  C2vr SX2vq  1 4.300000e-01    2.920000e+00
  C2vr SX3vq  1 4.300000e-01    2.920000e+00
  C2vr SX4vq  1 4.300000e-01    2.530000e+00
  C2vr SC1vq  1 4.300000e-01    3.380000e+00
   C1v SC1vr  1 4.300000e-01    2.770000e+00
  C1vr  SX4v  1 4.300000e-01    2.160000e+00
  C1vr  SX3v  1 4.300000e-01    2.530000e+00
  C1vr  SX2v  1 4.300000e-01    2.530000e+00
  C1vr  SX1v  1 4.300000e-01    2.530000e+00
   P6q SC1vr  1 4.300000e-01    1.930000e+00
   P5q SC1vr  1 4.300000e-01    2.320000e+00
   P4q SC1vr  1 4.300000e-01    2.320000e+00
   P3q SC1vr  1 4.300000e-01    2.320000e+00
   P2q SC1vr  1 4.300000e-01    2.530000e+00
   P1q SC1vr  1 4.300000e-01    2.530000e+00
   N6q SC1vr  1 4.300000e-01    2.770000e+00
   N5q SC1vr  1 4.300000e-01    2.770000e+00
   N4q SC1vr  1 4.300000e-01    2.770000e+00
   N3q SC1vr  1 4.300000e-01    2.920000e+00
   N2q SC1vr  1 4.300000e-01    2.920000e+00
   N1q SC1vr  1 4.300000e-01    2.920000e+00
   C6q SC1vr  1 4.300000e-01    2.920000e+00
   C5q SC1vr  1 4.300000e-01    3.160000e+00
   C4q SC1vr  1 4.300000e-01    3.160000e+00
   C3q SC1vr  1 4.300000e-01    3.590000e+00
   C2q SC1vr  1 4.300000e-01    3.770000e+00
   C1q SC1vr  1 4.300000e-01    3.590000e+00
  C1vr  SX4q  1 4.300000e-01    2.920000e+00
  C1vr  SX3q  1 4.300000e-01    3.380000e+00
  C1vr  SX2q  1 4.300000e-01    3.380000e+00
  C1vr  SX1q  1 4.300000e-01    3.380000e+00
  C6vq SC1vr  1 4.300000e-01    2.530000e+00
  C5vq SC1vr  1 4.300000e-01    2.770000e+00
  C4vq SC1vr  1 4.300000e-01    2.770000e+00
  C3vq SC1vr  1 4.300000e-01    3.160000e+00
  C2vq SC1vr  1 4.300000e-01    3.380000e+00
  C1vr SC1vq  1 4.300000e-01    3.160000e+00
  C1vr SX1vq  1 4.300000e-01    2.920000e+00
  C1vr SX2vq  1 4.300000e-01    2.920000e+00
  C1vr SX3vq  1 4.300000e-01    2.920000e+00
  C1vr SX4vq  1 4.300000e-01    2.530000e+00
   X4v SX4vr  1 4.300000e-01    2.770000e+00
  X4vr  SX3v  1 4.300000e-01    2.770000e+00
  X4vr  SX2v  1 4.300000e-01    2.770000e+00
  X4vr  SX1v  1 4.300000e-01    2.770000e+00
   P6q SX4vr  1 4.300000e-01    3.160000e+00
   P5q SX4vr  1 4.300000e-01    3.380000e+00
   P4q SX4vr  1 4.300000e-01    3.380000e+00
   P3q SX4vr  1 4.300000e-01    3.380000e+00
   P2q SX4vr  1 4.300000e-01    3.380000e+00
   P1q SX4vr  1 4.300000e-01    3.380000e+00
   N6q SX4vr  1 4.300000e-01    3.590000e+00
   N5q SX4vr  1 4.300000e-01    3.770000e+00
   N4q SX4vr  1 4.300000e-01    3.970000e+00
   N3q SX4vr  1 4.300000e-01    3.770000e+00
   N2q SX4vr  1 4.300000e-01    3.770000e+00
   N1q SX4vr  1 4.300000e-01    3.590000e+00
   C6q SX4vr  1 4.300000e-01    3.590000e+00
   C5q SX4vr  1 4.300000e-01    3.380000e+00
   C4q SX4vr  1 4.300000e-01    3.380000e+00
   C3q SX4vr  1 4.300000e-01    3.380000e+00
   C2q SX4vr  1 4.300000e-01    2.920000e+00
   C1q SX4vr  1 4.300000e-01    2.920000e+00
   X4q SX4vr  1 4.300000e-01    3.590000e+00
  X4vr  SX3q  1 4.300000e-01    3.590000e+00
  X4vr  SX2q  1 4.300000e-01    3.590000e+00
  X4vr  SX1q  1 4.300000e-01    3.590000e+00
  C6vq SX4vr  1 4.300000e-01    3.160000e+00
  C5vq SX4vr  1 4.300000e-01    2.920000e+00
  C4vq SX4vr  1 4.300000e-01    2.920000e+00
  C3vq SX4vr  1 4.300000e-01    2.920000e+00
  C2vq SX4vr  1 4.300000e-01    2.530000e+00
  C1vq SX4vr  1 4.300000e-01    2.530000e+00
  X4vr SX4vq  1 4.300000e-01    3.160000e+00
  X4vr SX1vq  1 4.300000e-01    3.160000e+00
  X4vr SX2vq  1 4.300000e-01    3.160000e+00
  X4vr SX3vq  1 4.300000e-01    3.160000e+00
   X3v SX3vr  1 4.300000e-01    2.770000e+00
  X3vr  SX2v  1 4.300000e-01    2.920000e+00
  X3vr  SX1v  1 4.300000e-01    2.920000e+00
   P6q SX3vr  1 4.300000e-01    3.160000e+00
   P5q SX3vr  1 4.300000e-01    3.160000e+00
   P4q SX3vr  1 4.300000e-01    3.160000e+00
   P3q SX3vr  1 4.300000e-01    3.380000e+00
   P2q SX3vr  1 4.300000e-01    3.380000e+00
   P1q SX3vr  1 4.300000e-01    3.380000e+00
   N6q SX3vr  1 4.300000e-01    3.380000e+00
   N5q SX3vr  1 4.300000e-01    3.590000e+00
   N4q SX3vr  1 4.300000e-01    3.770000e+00
   N3q SX3vr  1 4.300000e-01    3.590000e+00
   N2q SX3vr  1 4.300000e-01    3.590000e+00
   N1q SX3vr  1 4.300000e-01    3.590000e+00
   C6q SX3vr  1 4.300000e-01    3.590000e+00
   C5q SX3vr  1 4.300000e-01    3.380000e+00
   C4q SX3vr  1 4.300000e-01    3.380000e+00
   C3q SX3vr  1 4.300000e-01    3.380000e+00
   C2q SX3vr  1 4.300000e-01    3.380000e+00
   C1q SX3vr  1 4.300000e-01    3.380000e+00
   X4q SX3vr  1 4.300000e-01    3.590000e+00
   X3q SX3vr  1 4.300000e-01    3.590000e+00
  X3vr  SX2q  1 4.300000e-01    3.770000e+00
  X3vr  SX1q  1 4.300000e-01    3.770000e+00
  C6vq SX3vr  1 4.300000e-01    3.160000e+00
  C5vq SX3vr  1 4.300000e-01    2.920000e+00
  C4vq SX3vr  1 4.300000e-01    2.920000e+00
  C3vq SX3vr  1 4.300000e-01    2.920000e+00
  C2vq SX3vr  1 4.300000e-01    2.920000e+00
  C1vq SX3vr  1 4.300000e-01    2.920000e+00
  X4vq SX3vr  1 4.300000e-01    3.160000e+00
  X3vr SX3vq  1 4.300000e-01    3.160000e+00
  X3vr SX1vq  1 4.300000e-01    3.380000e+00
  X3vr SX2vq  1 4.300000e-01    3.380000e+00
   X2v SX2vr  1 4.300000e-01    2.920000e+00
  X2vr  SX1v  1 4.300000e-01    2.920000e+00
   P6q SX2vr  1 4.300000e-01    2.920000e+00
   P5q SX2vr  1 4.300000e-01    3.160000e+00
   P4q SX2vr  1 4.300000e-01    3.160000e+00
   P3q SX2vr  1 4.300000e-01    3.160000e+00
   P2q SX2vr  1 4.300000e-01    3.160000e+00
   P1q SX2vr  1 4.300000e-01    3.160000e+00
   N6q SX2vr  1 4.300000e-01    3.160000e+00
   N5q SX2vr  1 4.300000e-01    3.380000e+00
   N4q SX2vr  1 4.300000e-01    3.380000e+00
   N3q SX2vr  1 4.300000e-01    3.380000e+00
   N2q SX2vr  1 4.300000e-01    3.380000e+00
   N1q SX2vr  1 4.300000e-01    3.380000e+00
   C6q SX2vr  1 4.300000e-01    3.590000e+00
   C5q SX2vr  1 4.300000e-01    3.380000e+00
   C4q SX2vr  1 4.300000e-01    3.380000e+00
   C3q SX2vr  1 4.300000e-01    3.380000e+00
   C2q SX2vr  1 4.300000e-01    3.380000e+00
   C1q SX2vr  1 4.300000e-01    3.380000e+00
   X4q SX2vr  1 4.300000e-01    3.590000e+00
   X3q SX2vr  1 4.300000e-01    3.770000e+00
   X2q SX2vr  1 4.300000e-01    3.770000e+00
  X2vr  SX1q  1 4.300000e-01    3.770000e+00
  C6vq SX2vr  1 4.300000e-01    3.160000e+00
  C5vq SX2vr  1 4.300000e-01    2.920000e+00
  C4vq SX2vr  1 4.300000e-01    2.920000e+00
  C3vq SX2vr  1 4.300000e-01    2.920000e+00
  C2vq SX2vr  1 4.300000e-01    2.920000e+00
  C1vq SX2vr  1 4.300000e-01    2.920000e+00
  X4vq SX2vr  1 4.300000e-01    3.160000e+00
  X3vq SX2vr  1 4.300000e-01    3.380000e+00
  X2vr SX2vq  1 4.300000e-01    3.380000e+00
  X2vr SX1vq  1 4.300000e-01    3.380000e+00
   X1v SX1vr  1 4.300000e-01    3.160000e+00
   P6q SX1vr  1 4.300000e-01    2.770000e+00
   P5q SX1vr  1 4.300000e-01    2.770000e+00
   P4q SX1vr  1 4.300000e-01    2.920000e+00
   P3q SX1vr  1 4.300000e-01    2.920000e+00
   P2q SX1vr  1 4.300000e-01    2.920000e+00
   P1q SX1vr  1 4.300000e-01    2.920000e+00
   N6q SX1vr  1 4.300000e-01    2.920000e+00
   N5q SX1vr  1 4.300000e-01    3.160000e+00
   N4q SX1vr  1 4.300000e-01    3.160000e+00
   N3q SX1vr  1 4.300000e-01    3.380000e+00
   N2q SX1vr  1 4.300000e-01    3.380000e+00
   N1q SX1vr  1 4.300000e-01    3.380000e+00
   C6q SX1vr  1 4.300000e-01    3.590000e+00
   C5q SX1vr  1 4.300000e-01    3.590000e+00
   C4q SX1vr  1 4.300000e-01    3.590000e+00
   C3q SX1vr  1 4.300000e-01    3.590000e+00
   C2q SX1vr  1 4.300000e-01    3.380000e+00
   C1q SX1vr  1 4.300000e-01    3.380000e+00
   X4q SX1vr  1 4.300000e-01    3.590000e+00
   X3q SX1vr  1 4.300000e-01    3.770000e+00
   X2q SX1vr  1 4.300000e-01    3.770000e+00
   X1q SX1vr  1 4.300000e-01    3.970000e+00
  C6vq SX1vr  1 4.300000e-01    3.160000e+00
  C5vq SX1vr  1 4.300000e-01    3.160000e+00
  C4vq SX1vr  1 4.300000e-01    3.160000e+00
  C3vq SX1vr  1 4.300000e-01    3.160000e+00
  C2vq SX1vr  1 4.300000e-01    2.920000e+00
  C1vq SX1vr  1 4.300000e-01    2.920000e+00
  X4vq SX1vr  1 4.300000e-01    3.160000e+00
  X3vq SX1vr  1 4.300000e-01    3.380000e+00
  X2vq SX1vr  1 4.300000e-01    3.380000e+00
  X1vr SX1vq  1 4.300000e-01    3.590000e+00
   C6e SC6er  1 4.300000e-01    2.920000e+00
  C6er  SC5e  1 4.300000e-01    2.770000e+00
  C6er  SC4e  1 4.300000e-01    2.770000e+00
  C6er  SC3e  1 4.300000e-01    2.530000e+00
  C6er  SC2e  1 4.300000e-01    2.320000e+00
  C6er  SC1e  1 4.300000e-01    2.160000e+00
  C6er  SX4e  1 4.300000e-01    2.770000e+00
  C6er  SX3e  1 4.300000e-01    2.770000e+00
  C6er  SX2e  1 4.300000e-01    2.770000e+00
  C6er  SX1e  1 4.300000e-01    2.770000e+00
   P6q SC6er  1 4.300000e-01    2.920000e+00
   P5q SC6er  1 4.300000e-01    2.920000e+00
   P4q SC6er  1 4.300000e-01    3.160000e+00
   P3q SC6er  1 4.300000e-01    3.380000e+00
   P2q SC6er  1 4.300000e-01    3.380000e+00
   P1q SC6er  1 4.300000e-01    3.380000e+00
   N6q SC6er  1 4.300000e-01    3.590000e+00
   N5q SC6er  1 4.300000e-01    3.590000e+00
   N4q SC6er  1 4.300000e-01    3.590000e+00
   N3q SC6er  1 4.300000e-01    3.590000e+00
   N2q SC6er  1 4.300000e-01    3.590000e+00
   N1q SC6er  1 4.300000e-01    3.770000e+00
   C6q SC6er  1 4.300000e-01    3.770000e+00
  C6er  SC5q  1 4.300000e-01    3.590000e+00
  C6er  SC4q  1 4.300000e-01    3.590000e+00
  C6er  SC3q  1 4.300000e-01    3.380000e+00
  C6er  SC2q  1 4.300000e-01    3.160000e+00
  C6er  SC1q  1 4.300000e-01    2.920000e+00
  C6er  SX4q  1 4.300000e-01    3.590000e+00
  C6er  SX3q  1 4.300000e-01    3.590000e+00
  C6er  SX2q  1 4.300000e-01    3.590000e+00
  C6er  SX1q  1 4.300000e-01    3.590000e+00
  C6er SC6eq  1 4.300000e-01    3.380000e+00
  C6er SX1eq  1 4.300000e-01    3.160000e+00
  C6er SX2eq  1 4.300000e-01    3.160000e+00
  C6er SX3eq  1 4.300000e-01    3.160000e+00
  C6er SX4eq  1 4.300000e-01    3.160000e+00
  C6er SC1eq  1 4.300000e-01    2.530000e+00
  C6er SC2eq  1 4.300000e-01    2.770000e+00
  C6er SC3eq  1 4.300000e-01    2.920000e+00
  C6er SC4eq  1 4.300000e-01    3.160000e+00
  C6er SC5eq  1 4.300000e-01    3.160000e+00
   C5e SC5er  1 4.300000e-01    2.770000e+00
  C5er  SC4e  1 4.300000e-01    2.770000e+00
  C5er  SC3e  1 4.300000e-01    2.530000e+00
  C5er  SC2e  1 4.300000e-01    2.320000e+00
  C5er  SC1e  1 4.300000e-01    2.320000e+00
  C5er  SX4e  1 4.300000e-01    2.530000e+00
  C5er  SX3e  1 4.300000e-01    2.530000e+00
  C5er  SX2e  1 4.300000e-01    2.530000e+00
  C5er  SX1e  1 4.300000e-01    2.770000e+00
   P6q SC5er  1 4.300000e-01    2.770000e+00
   P5q SC5er  1 4.300000e-01    2.920000e+00
   P4q SC5er  1 4.300000e-01    2.920000e+00
   P3q SC5er  1 4.300000e-01    3.160000e+00
   P2q SC5er  1 4.300000e-01    3.160000e+00
   P1q SC5er  1 4.300000e-01    3.160000e+00
   N6q SC5er  1 4.300000e-01    3.380000e+00
   N5q SC5er  1 4.300000e-01    3.380000e+00
   N4q SC5er  1 4.300000e-01    3.380000e+00
   N3q SC5er  1 4.300000e-01    3.380000e+00
   N2q SC5er  1 4.300000e-01    3.380000e+00
   N1q SC5er  1 4.300000e-01    3.590000e+00
   C6q SC5er  1 4.300000e-01    3.590000e+00
   C5q SC5er  1 4.300000e-01    3.590000e+00
  C5er  SC4q  1 4.300000e-01    3.590000e+00
  C5er  SC3q  1 4.300000e-01    3.380000e+00
  C5er  SC2q  1 4.300000e-01    3.160000e+00
  C5er  SC1q  1 4.300000e-01    3.160000e+00
  C5er  SX4q  1 4.300000e-01    3.380000e+00
  C5er  SX3q  1 4.300000e-01    3.380000e+00
  C5er  SX2q  1 4.300000e-01    3.380000e+00
  C5er  SX1q  1 4.300000e-01    3.590000e+00
  C6eq SC5er  1 4.300000e-01    3.160000e+00
  C5er SC5eq  1 4.300000e-01    3.160000e+00
  C5er SX1eq  1 4.300000e-01    3.160000e+00
  C5er SX2eq  1 4.300000e-01    2.920000e+00
  C5er SX3eq  1 4.300000e-01    2.920000e+00
  C5er SX4eq  1 4.300000e-01    2.920000e+00
  C5er SC1eq  1 4.300000e-01    2.770000e+00
  C5er SC2eq  1 4.300000e-01    2.770000e+00
  C5er SC3eq  1 4.300000e-01    2.920000e+00
  C5er SC4eq  1 4.300000e-01    3.160000e+00
   C4e SC4er  1 4.300000e-01    2.770000e+00
  C4er  SC3e  1 4.300000e-01    2.770000e+00
  C4er  SC2e  1 4.300000e-01    2.530000e+00
  C4er  SC1e  1 4.300000e-01    2.320000e+00
  C4er  SX4e  1 4.300000e-01    2.530000e+00
  C4er  SX3e  1 4.300000e-01    2.530000e+00
  C4er  SX2e  1 4.300000e-01    2.530000e+00
  C4er  SX1e  1 4.300000e-01    2.770000e+00
   P6q SC4er  1 4.300000e-01    2.530000e+00
   P5q SC4er  1 4.300000e-01    2.770000e+00
   P4q SC4er  1 4.300000e-01    2.770000e+00
   P3q SC4er  1 4.300000e-01    2.920000e+00
   P2q SC4er  1 4.300000e-01    2.920000e+00
   P1q SC4er  1 4.300000e-01    2.920000e+00
   N6q SC4er  1 4.300000e-01    3.160000e+00
   N5q SC4er  1 4.300000e-01    3.160000e+00
   N4q SC4er  1 4.300000e-01    3.380000e+00
   N3q SC4er  1 4.300000e-01    3.380000e+00
   N2q SC4er  1 4.300000e-01    3.380000e+00
   N1q SC4er  1 4.300000e-01    3.590000e+00
   C6q SC4er  1 4.300000e-01    3.590000e+00
   C5q SC4er  1 4.300000e-01    3.590000e+00
   C4q SC4er  1 4.300000e-01    3.590000e+00
  C4er  SC3q  1 4.300000e-01    3.590000e+00
  C4er  SC2q  1 4.300000e-01    3.380000e+00
  C4er  SC1q  1 4.300000e-01    3.160000e+00
  C4er  SX4q  1 4.300000e-01    3.380000e+00
  C4er  SX3q  1 4.300000e-01    3.380000e+00
  C4er  SX2q  1 4.300000e-01    3.380000e+00
  C4er  SX1q  1 4.300000e-01    3.590000e+00
  C6eq SC4er  1 4.300000e-01    3.160000e+00
  C5eq SC4er  1 4.300000e-01    3.160000e+00
  C4er SC4eq  1 4.300000e-01    3.160000e+00
  C4er SX1eq  1 4.300000e-01    3.160000e+00
  C4er SX2eq  1 4.300000e-01    2.920000e+00
  C4er SX3eq  1 4.300000e-01    2.920000e+00
  C4er SX4eq  1 4.300000e-01    2.920000e+00
  C4er SC1eq  1 4.300000e-01    2.770000e+00
  C4er SC2eq  1 4.300000e-01    2.920000e+00
  C4er SC3eq  1 4.300000e-01    3.160000e+00
   C3e SC3er  1 4.300000e-01    2.770000e+00
  C3er  SC2e  1 4.300000e-01    2.770000e+00
  C3er  SC1e  1 4.300000e-01    2.770000e+00
  C3er  SX4e  1 4.300000e-01    2.530000e+00
  C3er  SX3e  1 4.300000e-01    2.530000e+00
  C3er  SX2e  1 4.300000e-01    2.530000e+00
  C3er  SX1e  1 4.300000e-01    2.770000e+00
   P6q SC3er  1 4.300000e-01    2.320000e+00
   P5q SC3er  1 4.300000e-01    2.530000e+00
   P4q SC3er  1 4.300000e-01    2.530000e+00
   P3q SC3er  1 4.300000e-01    2.530000e+00
   P2q SC3er  1 4.300000e-01    2.770000e+00
   P1q SC3er  1 4.300000e-01    2.770000e+00
   N6q SC3er  1 4.300000e-01    2.920000e+00
   N5q SC3er  1 4.300000e-01    3.160000e+00
   N4q SC3er  1 4.300000e-01    3.160000e+00
   N3q SC3er  1 4.300000e-01    3.160000e+00
   N2q SC3er  1 4.300000e-01    3.380000e+00
   N1q SC3er  1 4.300000e-01    3.380000e+00
   C6q SC3er  1 4.300000e-01    3.380000e+00
   C5q SC3er  1 4.300000e-01    3.380000e+00
   C4q SC3er  1 4.300000e-01    3.590000e+00
   C3q SC3er  1 4.300000e-01    3.590000e+00
  C3er  SC2q  1 4.300000e-01    3.590000e+00
  C3er  SC1q  1 4.300000e-01    3.590000e+00
  C3er  SX4q  1 4.300000e-01    3.380000e+00
  C3er  SX3q  1 4.300000e-01    3.380000e+00
  C3er  SX2q  1 4.300000e-01    3.380000e+00
  C3er  SX1q  1 4.300000e-01    3.590000e+00
  C6eq SC3er  1 4.300000e-01    2.920000e+00
  C5eq SC3er  1 4.300000e-01    2.920000e+00
  C4eq SC3er  1 4.300000e-01    3.160000e+00
  C3er SC3eq  1 4.300000e-01    3.160000e+00
  C3er SX1eq  1 4.300000e-01    3.160000e+00
  C3er SX2eq  1 4.300000e-01    2.920000e+00
  C3er SX3eq  1 4.300000e-01    2.920000e+00
  C3er SX4eq  1 4.300000e-01    2.920000e+00
  C3er SC1eq  1 4.300000e-01    3.160000e+00
  C3er SC2eq  1 4.300000e-01    3.160000e+00
   C2e SC2er  1 4.300000e-01    2.770000e+00
  C2er  SC1e  1 4.300000e-01    2.920000e+00
  C2er  SX4e  1 4.300000e-01    2.160000e+00
  C2er  SX3e  1 4.300000e-01    2.530000e+00
  C2er  SX2e  1 4.300000e-01    2.530000e+00
  C2er  SX1e  1 4.300000e-01    2.530000e+00
   P6q SC2er  1 4.300000e-01    2.320000e+00
   P5q SC2er  1 4.300000e-01    2.530000e+00
   P4q SC2er  1 4.300000e-01    2.530000e+00
   P3q SC2er  1 4.300000e-01    2.530000e+00
   P2q SC2er  1 4.300000e-01    2.770000e+00
   P1q SC2er  1 4.300000e-01    2.770000e+00
   N6q SC2er  1 4.300000e-01    2.920000e+00
   N5q SC2er  1 4.300000e-01    2.920000e+00
   N4q SC2er  1 4.300000e-01    2.920000e+00
   N3q SC2er  1 4.300000e-01    3.160000e+00
   N2q SC2er  1 4.300000e-01    3.160000e+00
   N1q SC2er  1 4.300000e-01    3.160000e+00
   C6q SC2er  1 4.300000e-01    3.160000e+00
   C5q SC2er  1 4.300000e-01    3.160000e+00
   C4q SC2er  1 4.300000e-01    3.380000e+00
   C3q SC2er  1 4.300000e-01    3.590000e+00
   C2q SC2er  1 4.300000e-01    3.590000e+00
  C2er  SC1q  1 4.300000e-01    3.770000e+00
  C2er  SX4q  1 4.300000e-01    2.920000e+00
  C2er  SX3q  1 4.300000e-01    3.380000e+00
  C2er  SX2q  1 4.300000e-01    3.380000e+00
  C2er  SX1q  1 4.300000e-01    3.380000e+00
  C6eq SC2er  1 4.300000e-01    2.770000e+00
  C5eq SC2er  1 4.300000e-01    2.770000e+00
  C4eq SC2er  1 4.300000e-01    2.920000e+00
  C3eq SC2er  1 4.300000e-01    3.160000e+00
  C2er SC2eq  1 4.300000e-01    3.160000e+00
  C2er SX1eq  1 4.300000e-01    2.920000e+00
  C2er SX2eq  1 4.300000e-01    2.920000e+00
  C2er SX3eq  1 4.300000e-01    2.920000e+00
  C2er SX4eq  1 4.300000e-01    2.530000e+00
  C2er SC1eq  1 4.300000e-01    3.380000e+00
   C1e SC1er  1 4.300000e-01    2.770000e+00
  C1er  SX4e  1 4.300000e-01    2.160000e+00
  C1er  SX3e  1 4.300000e-01    2.530000e+00
  C1er  SX2e  1 4.300000e-01    2.530000e+00
  C1er  SX1e  1 4.300000e-01    2.530000e+00
   P6q SC1er  1 4.300000e-01    1.930000e+00
   P5q SC1er  1 4.300000e-01    2.320000e+00
   P4q SC1er  1 4.300000e-01    2.320000e+00
   P3q SC1er  1 4.300000e-01    2.320000e+00
   P2q SC1er  1 4.300000e-01    2.530000e+00
   P1q SC1er  1 4.300000e-01    2.530000e+00
   N6q SC1er  1 4.300000e-01    2.770000e+00
   N5q SC1er  1 4.300000e-01    2.770000e+00
   N4q SC1er  1 4.300000e-01    2.770000e+00
   N3q SC1er  1 4.300000e-01    2.920000e+00
   N2q SC1er  1 4.300000e-01    2.920000e+00
   N1q SC1er  1 4.300000e-01    2.920000e+00
   C6q SC1er  1 4.300000e-01    2.920000e+00
   C5q SC1er  1 4.300000e-01    3.160000e+00
   C4q SC1er  1 4.300000e-01    3.160000e+00
   C3q SC1er  1 4.300000e-01    3.590000e+00
   C2q SC1er  1 4.300000e-01    3.770000e+00
   C1q SC1er  1 4.300000e-01    3.590000e+00
  C1er  SX4q  1 4.300000e-01    2.920000e+00
  C1er  SX3q  1 4.300000e-01    3.380000e+00
  C1er  SX2q  1 4.300000e-01    3.380000e+00
  C1er  SX1q  1 4.300000e-01    3.380000e+00
  C6eq SC1er  1 4.300000e-01    2.530000e+00
  C5eq SC1er  1 4.300000e-01    2.770000e+00
  C4eq SC1er  1 4.300000e-01    2.770000e+00
  C3eq SC1er  1 4.300000e-01    3.160000e+00
  C2eq SC1er  1 4.300000e-01    3.380000e+00
  C1er SC1eq  1 4.300000e-01    3.160000e+00
  C1er SX1eq  1 4.300000e-01    2.920000e+00
  C1er SX2eq  1 4.300000e-01    2.920000e+00
  C1er SX3eq  1 4.300000e-01    2.920000e+00
  C1er SX4eq  1 4.300000e-01    2.530000e+00
   X4e SX4er  1 4.300000e-01    2.770000e+00
  X4er  SX3e  1 4.300000e-01    2.770000e+00
  X4er  SX2e  1 4.300000e-01    2.770000e+00
  X4er  SX1e  1 4.300000e-01    2.770000e+00
   P6q SX4er  1 4.300000e-01    3.160000e+00
   P5q SX4er  1 4.300000e-01    3.380000e+00
   P4q SX4er  1 4.300000e-01    3.380000e+00
   P3q SX4er  1 4.300000e-01    3.380000e+00
   P2q SX4er  1 4.300000e-01    3.380000e+00
   P1q SX4er  1 4.300000e-01    3.380000e+00
   N6q SX4er  1 4.300000e-01    3.590000e+00
   N5q SX4er  1 4.300000e-01    3.770000e+00
   N4q SX4er  1 4.300000e-01    3.970000e+00
   N3q SX4er  1 4.300000e-01    3.770000e+00
   N2q SX4er  1 4.300000e-01    3.770000e+00
   N1q SX4er  1 4.300000e-01    3.590000e+00
   C6q SX4er  1 4.300000e-01    3.590000e+00
   C5q SX4er  1 4.300000e-01    3.380000e+00
   C4q SX4er  1 4.300000e-01    3.380000e+00
   C3q SX4er  1 4.300000e-01    3.380000e+00
   C2q SX4er  1 4.300000e-01    2.920000e+00
   C1q SX4er  1 4.300000e-01    2.920000e+00
   X4q SX4er  1 4.300000e-01    3.590000e+00
  X4er  SX3q  1 4.300000e-01    3.590000e+00
  X4er  SX2q  1 4.300000e-01    3.590000e+00
  X4er  SX1q  1 4.300000e-01    3.590000e+00
  C6eq SX4er  1 4.300000e-01    3.160000e+00
  C5eq SX4er  1 4.300000e-01    2.920000e+00
  C4eq SX4er  1 4.300000e-01    2.920000e+00
  C3eq SX4er  1 4.300000e-01    2.920000e+00
  C2eq SX4er  1 4.300000e-01    2.530000e+00
  C1eq SX4er  1 4.300000e-01    2.530000e+00
  X4er SX4eq  1 4.300000e-01    3.160000e+00
  X4er SX1eq  1 4.300000e-01    3.160000e+00
  X4er SX2eq  1 4.300000e-01    3.160000e+00
  X4er SX3eq  1 4.300000e-01    3.160000e+00
   X3e SX3er  1 4.300000e-01    2.770000e+00
  X3er  SX2e  1 4.300000e-01    2.920000e+00
  X3er  SX1e  1 4.300000e-01    2.920000e+00
   P6q SX3er  1 4.300000e-01    3.160000e+00
   P5q SX3er  1 4.300000e-01    3.160000e+00
   P4q SX3er  1 4.300000e-01    3.160000e+00
   P3q SX3er  1 4.300000e-01    3.380000e+00
   P2q SX3er  1 4.300000e-01    3.380000e+00
   P1q SX3er  1 4.300000e-01    3.380000e+00
   N6q SX3er  1 4.300000e-01    3.380000e+00
   N5q SX3er  1 4.300000e-01    3.590000e+00
   N4q SX3er  1 4.300000e-01    3.770000e+00
   N3q SX3er  1 4.300000e-01    3.590000e+00
   N2q SX3er  1 4.300000e-01    3.590000e+00
   N1q SX3er  1 4.300000e-01    3.590000e+00
   C6q SX3er  1 4.300000e-01    3.590000e+00
   C5q SX3er  1 4.300000e-01    3.380000e+00
   C4q SX3er  1 4.300000e-01    3.380000e+00
   C3q SX3er  1 4.300000e-01    3.380000e+00
   C2q SX3er  1 4.300000e-01    3.380000e+00
   C1q SX3er  1 4.300000e-01    3.380000e+00
   X4q SX3er  1 4.300000e-01    3.590000e+00
   X3q SX3er  1 4.300000e-01    3.590000e+00
  X3er  SX2q  1 4.300000e-01    3.770000e+00
  X3er  SX1q  1 4.300000e-01    3.770000e+00
  C6eq SX3er  1 4.300000e-01    3.160000e+00
  C5eq SX3er  1 4.300000e-01    2.920000e+00
  C4eq SX3er  1 4.300000e-01    2.920000e+00
  C3eq SX3er  1 4.300000e-01    2.920000e+00
  C2eq SX3er  1 4.300000e-01    2.920000e+00
  C1eq SX3er  1 4.300000e-01    2.920000e+00
  X4eq SX3er  1 4.300000e-01    3.160000e+00
  X3er SX3eq  1 4.300000e-01    3.160000e+00
  X3er SX1eq  1 4.300000e-01    3.380000e+00
  X3er SX2eq  1 4.300000e-01    3.380000e+00
   X2e SX2er  1 4.300000e-01    2.920000e+00
  X2er  SX1e  1 4.300000e-01    2.920000e+00
   P6q SX2er  1 4.300000e-01    2.920000e+00
   P5q SX2er  1 4.300000e-01    3.160000e+00
   P4q SX2er  1 4.300000e-01    3.160000e+00
   P3q SX2er  1 4.300000e-01    3.160000e+00
   P2q SX2er  1 4.300000e-01    3.160000e+00
   P1q SX2er  1 4.300000e-01    3.160000e+00
   N6q SX2er  1 4.300000e-01    3.160000e+00
   N5q SX2er  1 4.300000e-01    3.380000e+00
   N4q SX2er  1 4.300000e-01    3.380000e+00
   N3q SX2er  1 4.300000e-01    3.380000e+00
   N2q SX2er  1 4.300000e-01    3.380000e+00
   N1q SX2er  1 4.300000e-01    3.380000e+00
   C6q SX2er  1 4.300000e-01    3.590000e+00
   C5q SX2er  1 4.300000e-01    3.380000e+00
   C4q SX2er  1 4.300000e-01    3.380000e+00
   C3q SX2er  1 4.300000e-01    3.380000e+00
   C2q SX2er  1 4.300000e-01    3.380000e+00
   C1q SX2er  1 4.300000e-01    3.380000e+00
   X4q SX2er  1 4.300000e-01    3.590000e+00
   X3q SX2er  1 4.300000e-01    3.770000e+00
   X2q SX2er  1 4.300000e-01    3.770000e+00
  X2er  SX1q  1 4.300000e-01    3.770000e+00
  C6eq SX2er  1 4.300000e-01    3.160000e+00
  C5eq SX2er  1 4.300000e-01    2.920000e+00
  C4eq SX2er  1 4.300000e-01    2.920000e+00
  C3eq SX2er  1 4.300000e-01    2.920000e+00
  C2eq SX2er  1 4.300000e-01    2.920000e+00
  C1eq SX2er  1 4.300000e-01    2.920000e+00
  X4eq SX2er  1 4.300000e-01    3.160000e+00
  X3eq SX2er  1 4.300000e-01    3.380000e+00
  X2er SX2eq  1 4.300000e-01    3.380000e+00
  X2er SX1eq  1 4.300000e-01    3.380000e+00
   X1e SX1er  1 4.300000e-01    3.160000e+00
   P6q SX1er  1 4.300000e-01    2.770000e+00
   P5q SX1er  1 4.300000e-01    2.770000e+00
   P4q SX1er  1 4.300000e-01    2.920000e+00
   P3q SX1er  1 4.300000e-01    2.920000e+00
   P2q SX1er  1 4.300000e-01    2.920000e+00
   P1q SX1er  1 4.300000e-01    2.920000e+00
   N6q SX1er  1 4.300000e-01    2.920000e+00
   N5q SX1er  1 4.300000e-01    3.160000e+00
   N4q SX1er  1 4.300000e-01    3.160000e+00
   N3q SX1er  1 4.300000e-01    3.380000e+00
   N2q SX1er  1 4.300000e-01    3.380000e+00
   N1q SX1er  1 4.300000e-01    3.380000e+00
   C6q SX1er  1 4.300000e-01    3.590000e+00
   C5q SX1er  1 4.300000e-01    3.590000e+00
   C4q SX1er  1 4.300000e-01    3.590000e+00
   C3q SX1er  1 4.300000e-01    3.590000e+00
   C2q SX1er  1 4.300000e-01    3.380000e+00
   C1q SX1er  1 4.300000e-01    3.380000e+00
   X4q SX1er  1 4.300000e-01    3.590000e+00
   X3q SX1er  1 4.300000e-01    3.770000e+00
   X2q SX1er  1 4.300000e-01    3.770000e+00
   X1q SX1er  1 4.300000e-01    3.970000e+00
  C6eq SX1er  1 4.300000e-01    3.160000e+00
  C5eq SX1er  1 4.300000e-01    3.160000e+00
  C4eq SX1er  1 4.300000e-01    3.160000e+00
  C3eq SX1er  1 4.300000e-01    3.160000e+00
  C2eq SX1er  1 4.300000e-01    2.920000e+00
  C1eq SX1er  1 4.300000e-01    2.920000e+00
  X4eq SX1er  1 4.300000e-01    3.160000e+00
  X3eq SX1er  1 4.300000e-01    3.380000e+00
  X2eq SX1er  1 4.300000e-01    3.380000e+00
  X1er SX1eq  1 4.300000e-01    3.590000e+00
   C6e SX1er  1 4.300000e-01    2.770000e+00
   C5e SX1er  1 4.300000e-01    2.770000e+00
   C4e SX1er  1 4.300000e-01    2.770000e+00
   C3e SX1er  1 4.300000e-01    2.770000e+00
   C2e SX1er  1 4.300000e-01    2.530000e+00
   C1e SX1er  1 4.300000e-01    2.530000e+00
   X4e SX1er  1 4.300000e-01    2.770000e+00
   X3e SX1er  1 4.300000e-01    2.920000e+00
   X2e SX1er  1 4.300000e-01    2.920000e+00
   C6e SX2er  1 4.300000e-01    2.770000e+00
   C5e SX2er  1 4.300000e-01    2.530000e+00
   C4e SX2er  1 4.300000e-01    2.530000e+00
   C3e SX2er  1 4.300000e-01    2.530000e+00
   C2e SX2er  1 4.300000e-01    2.530000e+00
   C1e SX2er  1 4.300000e-01    2.530000e+00
   X4e SX2er  1 4.300000e-01    2.770000e+00
   X3e SX2er  1 4.300000e-01    2.920000e+00
   C6e SX3er  1 4.300000e-01    2.770000e+00
   C5e SX3er  1 4.300000e-01    2.530000e+00
   C4e SX3er  1 4.300000e-01    2.530000e+00
   C3e SX3er  1 4.300000e-01    2.530000e+00
   C2e SX3er  1 4.300000e-01    2.530000e+00
   C1e SX3er  1 4.300000e-01    2.530000e+00
   X4e SX3er  1 4.300000e-01    2.770000e+00
   C6e SX4er  1 4.300000e-01    2.770000e+00
   C5e SX4er  1 4.300000e-01    2.530000e+00
   C4e SX4er  1 4.300000e-01    2.530000e+00
   C3e SX4er  1 4.300000e-01    2.530000e+00
   C2e SX4er  1 4.300000e-01    2.160000e+00
   C1e SX4er  1 4.300000e-01    2.160000e+00
   C6e SC1er  1 4.300000e-01    2.160000e+00
   C5e SC1er  1 4.300000e-01    2.320000e+00
   C4e SC1er  1 4.300000e-01    2.320000e+00
   C3e SC1er  1 4.300000e-01    2.770000e+00
   C2e SC1er  1 4.300000e-01    2.920000e+00
   C6e SC2er  1 4.300000e-01    2.320000e+00
   C5e SC2er  1 4.300000e-01    2.320000e+00
   C4e SC2er  1 4.300000e-01    2.530000e+00
   C3e SC2er  1 4.300000e-01    2.770000e+00
   C6e SC3er  1 4.300000e-01    2.530000e+00
   C5e SC3er  1 4.300000e-01    2.530000e+00
   C4e SC3er  1 4.300000e-01    2.770000e+00
   C6e SC4er  1 4.300000e-01    2.770000e+00
   C5e SC4er  1 4.300000e-01    2.770000e+00
   C6e SC5er  1 4.300000e-01    2.770000e+00
   C6v SX1vr  1 4.300000e-01    2.770000e+00
   C5v SX1vr  1 4.300000e-01    2.770000e+00
   C4v SX1vr  1 4.300000e-01    2.770000e+00
   C3v SX1vr  1 4.300000e-01    2.770000e+00
   C2v SX1vr  1 4.300000e-01    2.530000e+00
   C1v SX1vr  1 4.300000e-01    2.530000e+00
   X4v SX1vr  1 4.300000e-01    2.770000e+00
   X3v SX1vr  1 4.300000e-01    2.920000e+00
   X2v SX1vr  1 4.300000e-01    2.920000e+00
   C6v SX2vr  1 4.300000e-01    2.770000e+00
   C5v SX2vr  1 4.300000e-01    2.530000e+00
   C4v SX2vr  1 4.300000e-01    2.530000e+00
   C3v SX2vr  1 4.300000e-01    2.530000e+00
   C2v SX2vr  1 4.300000e-01    2.530000e+00
   C1v SX2vr  1 4.300000e-01    2.530000e+00
   X4v SX2vr  1 4.300000e-01    2.770000e+00
   X3v SX2vr  1 4.300000e-01    2.920000e+00
   C6v SX3vr  1 4.300000e-01    2.770000e+00
   C5v SX3vr  1 4.300000e-01    2.530000e+00
   C4v SX3vr  1 4.300000e-01    2.530000e+00
   C3v SX3vr  1 4.300000e-01    2.530000e+00
   C2v SX3vr  1 4.300000e-01    2.530000e+00
   C1v SX3vr  1 4.300000e-01    2.530000e+00
   X4v SX3vr  1 4.300000e-01    2.770000e+00
   C6v SX4vr  1 4.300000e-01    2.770000e+00
   C5v SX4vr  1 4.300000e-01    2.530000e+00
   C4v SX4vr  1 4.300000e-01    2.530000e+00
   C3v SX4vr  1 4.300000e-01    2.530000e+00
   C2v SX4vr  1 4.300000e-01    2.160000e+00
   C1v SX4vr  1 4.300000e-01    2.160000e+00
   C6v SC1vr  1 4.300000e-01    2.160000e+00
   C5v SC1vr  1 4.300000e-01    2.320000e+00
   C4v SC1vr  1 4.300000e-01    2.320000e+00
   C3v SC1vr  1 4.300000e-01    2.770000e+00
   C2v SC1vr  1 4.300000e-01    2.920000e+00
   C6v SC2vr  1 4.300000e-01    2.320000e+00
   C5v SC2vr  1 4.300000e-01    2.320000e+00
   C4v SC2vr  1 4.300000e-01    2.530000e+00
   C3v SC2vr  1 4.300000e-01    2.770000e+00
   C6v SC3vr  1 4.300000e-01    2.530000e+00
   C5v SC3vr  1 4.300000e-01    2.530000e+00
   C4v SC3vr  1 4.300000e-01    2.770000e+00
   C6v SC4vr  1 4.300000e-01    2.770000e+00
   C5v SC4vr  1 4.300000e-01    2.770000e+00
   C6v SC5vr  1 4.300000e-01    2.770000e+00
   P6r  SP6r  1 4.300000e-01    4.400000e+00
   P5r  SP5r  1 4.300000e-01    3.970000e+00
   P4r  SP4r  1 4.300000e-01    3.770000e+00
   P3r  SP3r  1 4.300000e-01    3.590000e+00
   P2r  SP2r  1 4.300000e-01    3.590000e+00
   P1r  SP1r  1 4.300000e-01    3.380000e+00
   N6r  SN6r  1 4.300000e-01    3.380000e+00
   N5r  SN5r  1 4.300000e-01    3.160000e+00
   N4r  SN4r  1 4.300000e-01    3.160000e+00
   N3r  SN3r  1 4.300000e-01    2.920000e+00
   N2r  SN2r  1 4.300000e-01    2.920000e+00
   N1r  SN1r  1 4.300000e-01    2.920000e+00
   P6r  SP5r  1 4.300000e-01    4.170000e+00
   P6r  SP4r  1 4.300000e-01    3.970000e+00
   P6r  SP3r  1 4.300000e-01    3.770000e+00
   P6r  SP2r  1 4.300000e-01    3.770000e+00
   P6r  SP1r  1 4.300000e-01    3.590000e+00
   P6r  SN6r  1 4.300000e-01    3.380000e+00
   P6r  SN5r  1 4.300000e-01    2.920000e+00
   P6r  SN4r  1 4.300000e-01    2.770000e+00
   P6r  SN3r  1 4.300000e-01    2.530000e+00
   P6r  SN2r  1 4.300000e-01    2.320000e+00
   P6r  SN1r  1 4.300000e-01    2.160000e+00
   P6r SP6dr  1 4.300000e-01    4.400000e+00
   P6r SP5dr  1 4.300000e-01    4.170000e+00
   P6r SP4dr  1 4.300000e-01    3.970000e+00
   P6r SP3dr  1 4.300000e-01    3.770000e+00
   P6r SP2dr  1 4.300000e-01    3.770000e+00
   P6r SP1dr  1 4.300000e-01    3.590000e+00
   P6r SN6dr  1 4.300000e-01    3.380000e+00
   P6r SN5dr  1 4.300000e-01    2.920000e+00
   P6r SN4dr  1 4.300000e-01    2.770000e+00
   P6r SN3dr  1 4.300000e-01    2.530000e+00
   P6r SN2dr  1 4.300000e-01    2.320000e+00
   P6r SN1dr  1 4.300000e-01    2.160000e+00
   P6r SP6ar  1 4.300000e-01    4.400000e+00
   P6r SP5ar  1 4.300000e-01    4.170000e+00
   P6r SP4ar  1 4.300000e-01    3.970000e+00
   P6r SP3ar  1 4.300000e-01    3.770000e+00
   P6r SP2ar  1 4.300000e-01    3.770000e+00
   P6r SP1ar  1 4.300000e-01    3.590000e+00
   P6r SN6ar  1 4.300000e-01    3.380000e+00
   P6r SN5ar  1 4.300000e-01    2.920000e+00
   P6r SN4ar  1 4.300000e-01    2.770000e+00
   P6r SN3ar  1 4.300000e-01    2.530000e+00
   P6r SN2ar  1 4.300000e-01    2.320000e+00
   P6r SN1ar  1 4.300000e-01    2.160000e+00
   P5r  SP4r  1 4.300000e-01    3.770000e+00
   P5r  SP3r  1 4.300000e-01    3.590000e+00
   P5r  SP2r  1 4.300000e-01    3.590000e+00
   P5r  SP1r  1 4.300000e-01    3.380000e+00
   P5r  SN6r  1 4.300000e-01    3.160000e+00
   P5r  SN5r  1 4.300000e-01    2.920000e+00
   P5r  SN4r  1 4.300000e-01    2.920000e+00
   P5r  SN3r  1 4.300000e-01    2.530000e+00
   P5r  SN2r  1 4.300000e-01    2.320000e+00
   P5r  SN1r  1 4.300000e-01    2.160000e+00
   P5r SP5dr  1 4.300000e-01    3.970000e+00
   P5r SP4dr  1 4.300000e-01    3.770000e+00
   P5r SP3dr  1 4.300000e-01    3.590000e+00
   P5r SP2dr  1 4.300000e-01    3.590000e+00
   P5r SP1dr  1 4.300000e-01    3.380000e+00
   P5r SN6dr  1 4.300000e-01    3.160000e+00
   P5r SN5dr  1 4.300000e-01    2.920000e+00
   P5r SN4dr  1 4.300000e-01    2.920000e+00
   P5r SN3dr  1 4.300000e-01    2.530000e+00
   P5r SN2dr  1 4.300000e-01    2.320000e+00
   P5r SN1dr  1 4.300000e-01    2.160000e+00
   P5r SP5ar  1 4.300000e-01    3.970000e+00
   P5r SP4ar  1 4.300000e-01    3.770000e+00
   P5r SP3ar  1 4.300000e-01    3.590000e+00
   P5r SP2ar  1 4.300000e-01    3.590000e+00
   P5r SP1ar  1 4.300000e-01    3.380000e+00
   P5r SN6ar  1 4.300000e-01    3.160000e+00
   P5r SN5ar  1 4.300000e-01    2.920000e+00
   P5r SN4ar  1 4.300000e-01    2.920000e+00
   P5r SN3ar  1 4.300000e-01    2.530000e+00
   P5r SN2ar  1 4.300000e-01    2.320000e+00
   P5r SN1ar  1 4.300000e-01    2.160000e+00
   P4r  SP3r  1 4.300000e-01    3.590000e+00
   P4r  SP2r  1 4.300000e-01    3.590000e+00
   P4r  SP1r  1 4.300000e-01    3.380000e+00
   P4r  SN6r  1 4.300000e-01    3.160000e+00
   P4r  SN5r  1 4.300000e-01    2.920000e+00
   P4r  SN4r  1 4.300000e-01    2.920000e+00
   P4r  SN3r  1 4.300000e-01    2.770000e+00
   P4r  SN2r  1 4.300000e-01    2.530000e+00
   P4r  SN1r  1 4.300000e-01    2.320000e+00
   P4r SP4dr  1 4.300000e-01    3.770000e+00
   P4r SP3dr  1 4.300000e-01    3.590000e+00
   P4r SP2dr  1 4.300000e-01    3.590000e+00
   P4r SP1dr  1 4.300000e-01    3.380000e+00
   P4r SN6dr  1 4.300000e-01    3.160000e+00
   P4r SN5dr  1 4.300000e-01    2.920000e+00
   P4r SN4dr  1 4.300000e-01    2.920000e+00
   P4r SN3dr  1 4.300000e-01    2.770000e+00
   P4r SN2dr  1 4.300000e-01    2.530000e+00
   P4r SN1dr  1 4.300000e-01    2.320000e+00
   P4r SP4ar  1 4.300000e-01    3.770000e+00
   P4r SP3ar  1 4.300000e-01    3.590000e+00
   P4r SP2ar  1 4.300000e-01    3.590000e+00
   P4r SP1ar  1 4.300000e-01    3.380000e+00
   P4r SN6ar  1 4.300000e-01    3.160000e+00
   P4r SN5ar  1 4.300000e-01    2.920000e+00
   P4r SN4ar  1 4.300000e-01    2.920000e+00
   P4r SN3ar  1 4.300000e-01    2.770000e+00
   P4r SN2ar  1 4.300000e-01    2.530000e+00
   P4r SN1ar  1 4.300000e-01    2.320000e+00
   P3r  SP2r  1 4.300000e-01    3.590000e+00
   P3r  SP1r  1 4.300000e-01    3.380000e+00
   P3r  SN6r  1 4.300000e-01    3.160000e+00
   P3r  SN5r  1 4.300000e-01    2.920000e+00
   P3r  SN4r  1 4.300000e-01    2.920000e+00
   P3r  SN3r  1 4.300000e-01    2.770000e+00
   P3r  SN2r  1 4.300000e-01    2.770000e+00
   P3r  SN1r  1 4.300000e-01    2.530000e+00
   P3r SP3dr  1 4.300000e-01    3.590000e+00
   P3r SP2dr  1 4.300000e-01    3.590000e+00
   P3r SP1dr  1 4.300000e-01    3.380000e+00
   P3r SN6dr  1 4.300000e-01    3.160000e+00
   P3r SN5dr  1 4.300000e-01    2.920000e+00
   P3r SN4dr  1 4.300000e-01    2.920000e+00
   P3r SN3dr  1 4.300000e-01    2.770000e+00
   P3r SN2dr  1 4.300000e-01    2.770000e+00
   P3r SN1dr  1 4.300000e-01    2.530000e+00
   P3r SP3ar  1 4.300000e-01    3.590000e+00
   P3r SP2ar  1 4.300000e-01    3.590000e+00
   P3r SP1ar  1 4.300000e-01    3.380000e+00
   P3r SN6ar  1 4.300000e-01    3.160000e+00
   P3r SN5ar  1 4.300000e-01    2.920000e+00
   P3r SN4ar  1 4.300000e-01    2.920000e+00
   P3r SN3ar  1 4.300000e-01    2.770000e+00
   P3r SN2ar  1 4.300000e-01    2.770000e+00
   P3r SN1ar  1 4.300000e-01    2.530000e+00
   P2r  SP1r  1 4.300000e-01    3.380000e+00
   P2r  SN6r  1 4.300000e-01    3.380000e+00
   P2r  SN5r  1 4.300000e-01    3.160000e+00
   P2r  SN4r  1 4.300000e-01    2.920000e+00
   P2r  SN3r  1 4.300000e-01    2.770000e+00
   P2r  SN2r  1 4.300000e-01    2.770000e+00
   P2r  SN1r  1 4.300000e-01    2.770000e+00
   P2r SP2dr  1 4.300000e-01    3.590000e+00
   P2r SP1dr  1 4.300000e-01    3.380000e+00
   P2r SN6dr  1 4.300000e-01    3.380000e+00
   P2r SN5dr  1 4.300000e-01    3.160000e+00
   P2r SN4dr  1 4.300000e-01    2.920000e+00
   P2r SN3dr  1 4.300000e-01    2.770000e+00
   P2r SN2dr  1 4.300000e-01    2.770000e+00
   P2r SN1dr  1 4.300000e-01    2.770000e+00
   P2r SP2ar  1 4.300000e-01    3.590000e+00
   P2r SP1ar  1 4.300000e-01    3.380000e+00
   P2r SN6ar  1 4.300000e-01    3.380000e+00
   P2r SN5ar  1 4.300000e-01    3.160000e+00
   P2r SN4ar  1 4.300000e-01    2.920000e+00
   P2r SN3ar  1 4.300000e-01    2.770000e+00
   P2r SN2ar  1 4.300000e-01    2.770000e+00
   P2r SN1ar  1 4.300000e-01    2.770000e+00
   P1r  SN6r  1 4.300000e-01    3.380000e+00
   P1r  SN5r  1 4.300000e-01    3.160000e+00
   P1r  SN4r  1 4.300000e-01    3.160000e+00
   P1r  SN3r  1 4.300000e-01    2.770000e+00
   P1r  SN2r  1 4.300000e-01    2.770000e+00
   P1r  SN1r  1 4.300000e-01    2.770000e+00
   P1r SP1dr  1 4.300000e-01    3.380000e+00
   P1r SN6dr  1 4.300000e-01    3.380000e+00
   P1r SN5dr  1 4.300000e-01    3.160000e+00
   P1r SN4dr  1 4.300000e-01    3.160000e+00
   P1r SN3dr  1 4.300000e-01    2.770000e+00
   P1r SN2dr  1 4.300000e-01    2.770000e+00
   P1r SN1dr  1 4.300000e-01    2.770000e+00
   P1r SP1ar  1 4.300000e-01    3.380000e+00
   P1r SN6ar  1 4.300000e-01    3.380000e+00
   P1r SN5ar  1 4.300000e-01    3.160000e+00
   P1r SN4ar  1 4.300000e-01    3.160000e+00
   P1r SN3ar  1 4.300000e-01    2.770000e+00
   P1r SN2ar  1 4.300000e-01    2.770000e+00
   P1r SN1ar  1 4.300000e-01    2.770000e+00
   N6r  SN5r  1 4.300000e-01    3.380000e+00
   N6r  SN4r  1 4.300000e-01    3.380000e+00
   N6r  SN3r  1 4.300000e-01    2.920000e+00
   N6r  SN2r  1 4.300000e-01    2.770000e+00
   N6r  SN1r  1 4.300000e-01    2.770000e+00
   N6r SN6dr  1 4.300000e-01    3.380000e+00
   N6r SN5dr  1 4.300000e-01    3.380000e+00
   N6r SN4dr  1 4.300000e-01    3.380000e+00
   N6r SN3dr  1 4.300000e-01    2.920000e+00
   N6r SN2dr  1 4.300000e-01    2.770000e+00
   N6r SN1dr  1 4.300000e-01    2.770000e+00
   N6r SN6ar  1 4.300000e-01    3.380000e+00
   N6r SN5ar  1 4.300000e-01    3.380000e+00
   N6r SN4ar  1 4.300000e-01    3.380000e+00
   N6r SN3ar  1 4.300000e-01    2.920000e+00
   N6r SN2ar  1 4.300000e-01    2.770000e+00
   N6r SN1ar  1 4.300000e-01    2.770000e+00
   N5r  SN4r  1 4.300000e-01    3.160000e+00
   N5r  SN3r  1 4.300000e-01    2.920000e+00
   N5r  SN2r  1 4.300000e-01    2.920000e+00
   N5r  SN1r  1 4.300000e-01    2.770000e+00
   N5r SN5dr  1 4.300000e-01    3.160000e+00
   N5r SN4dr  1 4.300000e-01    3.160000e+00
   N5r SN3dr  1 4.300000e-01    2.920000e+00
   N5r SN2dr  1 4.300000e-01    2.920000e+00
   N5r SN1dr  1 4.300000e-01    2.770000e+00
   N5r SN5ar  1 4.300000e-01    3.160000e+00
   N5r SN4ar  1 4.300000e-01    3.160000e+00
   N5r SN3ar  1 4.300000e-01    2.920000e+00
   N5r SN2ar  1 4.300000e-01    2.920000e+00
   N5r SN1ar  1 4.300000e-01    2.770000e+00
   N4r  SN3r  1 4.300000e-01    2.920000e+00
   N4r  SN2r  1 4.300000e-01    2.920000e+00
   N4r  SN1r  1 4.300000e-01    2.770000e+00
   N4r SN4dr  1 4.300000e-01    3.160000e+00
   N4r SN3dr  1 4.300000e-01    2.920000e+00
   N4r SN2dr  1 4.300000e-01    2.920000e+00
   N4r SN1dr  1 4.300000e-01    2.770000e+00
   N4r SN4ar  1 4.300000e-01    3.160000e+00
   N4r SN3ar  1 4.300000e-01    2.920000e+00
   N4r SN2ar  1 4.300000e-01    2.920000e+00
   N4r SN1ar  1 4.300000e-01    2.770000e+00
   N3r  SN2r  1 4.300000e-01    2.920000e+00
   N3r  SN1r  1 4.300000e-01    2.770000e+00
   N3r SN3dr  1 4.300000e-01    2.920000e+00
   N3r SN2dr  1 4.300000e-01    2.920000e+00
   N3r SN1dr  1 4.300000e-01    2.770000e+00
   N3r SN3ar  1 4.300000e-01    2.920000e+00
   N3r SN2ar  1 4.300000e-01    2.920000e+00
   N3r SN1ar  1 4.300000e-01    2.770000e+00
   N2r  SN1r  1 4.300000e-01    2.770000e+00
   N2r SN2dr  1 4.300000e-01    2.920000e+00
   N2r SN1dr  1 4.300000e-01    2.770000e+00
   N2r SN2ar  1 4.300000e-01    2.920000e+00
   N2r SN1ar  1 4.300000e-01    2.770000e+00
   N1r SN1dr  1 4.300000e-01    2.920000e+00
   N1r SN1ar  1 4.300000e-01    2.920000e+00
  P6dr  SP5r  1 4.300000e-01    4.170000e+00
  P6dr  SP4r  1 4.300000e-01    3.970000e+00
  P6dr  SP3r  1 4.300000e-01    3.770000e+00
  P6dr  SP2r  1 4.300000e-01    3.770000e+00
  P6dr  SP1r  1 4.300000e-01    3.590000e+00
  P6dr  SN6r  1 4.300000e-01    3.380000e+00
  P6dr  SN5r  1 4.300000e-01    2.920000e+00
  P6dr  SN4r  1 4.300000e-01    2.770000e+00
  P6dr  SN3r  1 4.300000e-01    2.530000e+00
  P6dr  SN2r  1 4.300000e-01    2.320000e+00
  P6dr  SN1r  1 4.300000e-01    2.160000e+00
  P5dr  SP4r  1 4.300000e-01    3.770000e+00
  P5dr  SP3r  1 4.300000e-01    3.590000e+00
  P5dr  SP2r  1 4.300000e-01    3.590000e+00
  P5dr  SP1r  1 4.300000e-01    3.380000e+00
  P5dr  SN6r  1 4.300000e-01    3.160000e+00
  P5dr  SN5r  1 4.300000e-01    2.920000e+00
  P5dr  SN4r  1 4.300000e-01    2.920000e+00
  P5dr  SN3r  1 4.300000e-01    2.530000e+00
  P5dr  SN2r  1 4.300000e-01    2.320000e+00
  P5dr  SN1r  1 4.300000e-01    2.160000e+00
  P4dr  SP3r  1 4.300000e-01    3.590000e+00
  P4dr  SP2r  1 4.300000e-01    3.590000e+00
  P4dr  SP1r  1 4.300000e-01    3.380000e+00
  P4dr  SN6r  1 4.300000e-01    3.160000e+00
  P4dr  SN5r  1 4.300000e-01    2.920000e+00
  P4dr  SN4r  1 4.300000e-01    2.920000e+00
  P4dr  SN3r  1 4.300000e-01    2.770000e+00
  P4dr  SN2r  1 4.300000e-01    2.530000e+00
  P4dr  SN1r  1 4.300000e-01    2.320000e+00
  P3dr  SP2r  1 4.300000e-01    3.590000e+00
  P3dr  SP1r  1 4.300000e-01    3.380000e+00
  P3dr  SN6r  1 4.300000e-01    3.160000e+00
  P3dr  SN5r  1 4.300000e-01    2.920000e+00
  P3dr  SN4r  1 4.300000e-01    2.920000e+00
  P3dr  SN3r  1 4.300000e-01    2.770000e+00
  P3dr  SN2r  1 4.300000e-01    2.770000e+00
  P3dr  SN1r  1 4.300000e-01    2.530000e+00
  P2dr  SP1r  1 4.300000e-01    3.380000e+00
  P2dr  SN6r  1 4.300000e-01    3.380000e+00
  P2dr  SN5r  1 4.300000e-01    3.160000e+00
  P2dr  SN4r  1 4.300000e-01    2.920000e+00
  P2dr  SN3r  1 4.300000e-01    2.770000e+00
  P2dr  SN2r  1 4.300000e-01    2.770000e+00
  P2dr  SN1r  1 4.300000e-01    2.770000e+00
  P1dr  SN6r  1 4.300000e-01    3.380000e+00
  P1dr  SN5r  1 4.300000e-01    3.160000e+00
  P1dr  SN4r  1 4.300000e-01    3.160000e+00
  P1dr  SN3r  1 4.300000e-01    2.770000e+00
  P1dr  SN2r  1 4.300000e-01    2.770000e+00
  P1dr  SN1r  1 4.300000e-01    2.770000e+00
  N6dr  SN5r  1 4.300000e-01    3.380000e+00
  N6dr  SN4r  1 4.300000e-01    3.380000e+00
  N6dr  SN3r  1 4.300000e-01    2.920000e+00
  N6dr  SN2r  1 4.300000e-01    2.770000e+00
  N6dr  SN1r  1 4.300000e-01    2.770000e+00
  N5dr  SN4r  1 4.300000e-01    3.160000e+00
  N5dr  SN3r  1 4.300000e-01    2.920000e+00
  N5dr  SN2r  1 4.300000e-01    2.920000e+00
  N5dr  SN1r  1 4.300000e-01    2.770000e+00
  N4dr  SN3r  1 4.300000e-01    2.920000e+00
  N4dr  SN2r  1 4.300000e-01    2.920000e+00
  N4dr  SN1r  1 4.300000e-01    2.770000e+00
  N3dr  SN2r  1 4.300000e-01    2.920000e+00
  N3dr  SN1r  1 4.300000e-01    2.770000e+00
  N2dr  SN1r  1 4.300000e-01    2.770000e+00
  P6ar  SP5r  1 4.300000e-01    4.170000e+00
  P6ar  SP4r  1 4.300000e-01    3.970000e+00
  P6ar  SP3r  1 4.300000e-01    3.770000e+00
  P6ar  SP2r  1 4.300000e-01    3.770000e+00
  P6ar  SP1r  1 4.300000e-01    3.590000e+00
  P6ar  SN6r  1 4.300000e-01    3.380000e+00
  P6ar  SN5r  1 4.300000e-01    2.920000e+00
  P6ar  SN4r  1 4.300000e-01    2.770000e+00
  P6ar  SN3r  1 4.300000e-01    2.530000e+00
  P6ar  SN2r  1 4.300000e-01    2.320000e+00
  P6ar  SN1r  1 4.300000e-01    2.160000e+00
  P5ar  SP4r  1 4.300000e-01    3.770000e+00
  P5ar  SP3r  1 4.300000e-01    3.590000e+00
  P5ar  SP2r  1 4.300000e-01    3.590000e+00
  P5ar  SP1r  1 4.300000e-01    3.380000e+00
  P5ar  SN6r  1 4.300000e-01    3.160000e+00
  P5ar  SN5r  1 4.300000e-01    2.920000e+00
  P5ar  SN4r  1 4.300000e-01    2.920000e+00
  P5ar  SN3r  1 4.300000e-01    2.530000e+00
  P5ar  SN2r  1 4.300000e-01    2.320000e+00
  P5ar  SN1r  1 4.300000e-01    2.160000e+00
  P4ar  SP3r  1 4.300000e-01    3.590000e+00
  P4ar  SP2r  1 4.300000e-01    3.590000e+00
  P4ar  SP1r  1 4.300000e-01    3.380000e+00
  P4ar  SN6r  1 4.300000e-01    3.160000e+00
  P4ar  SN5r  1 4.300000e-01    2.920000e+00
  P4ar  SN4r  1 4.300000e-01    2.920000e+00
  P4ar  SN3r  1 4.300000e-01    2.770000e+00
  P4ar  SN2r  1 4.300000e-01    2.530000e+00
  P4ar  SN1r  1 4.300000e-01    2.320000e+00
  P3ar  SP2r  1 4.300000e-01    3.590000e+00
  P3ar  SP1r  1 4.300000e-01    3.380000e+00
  P3ar  SN6r  1 4.300000e-01    3.160000e+00
  P3ar  SN5r  1 4.300000e-01    2.920000e+00
  P3ar  SN4r  1 4.300000e-01    2.920000e+00
  P3ar  SN3r  1 4.300000e-01    2.770000e+00
  P3ar  SN2r  1 4.300000e-01    2.770000e+00
  P3ar  SN1r  1 4.300000e-01    2.530000e+00
  P2ar  SP1r  1 4.300000e-01    3.380000e+00
  P2ar  SN6r  1 4.300000e-01    3.380000e+00
  P2ar  SN5r  1 4.300000e-01    3.160000e+00
  P2ar  SN4r  1 4.300000e-01    2.920000e+00
  P2ar  SN3r  1 4.300000e-01    2.770000e+00
  P2ar  SN2r  1 4.300000e-01    2.770000e+00
  P2ar  SN1r  1 4.300000e-01    2.770000e+00
  P1ar  SN6r  1 4.300000e-01    3.380000e+00
  P1ar  SN5r  1 4.300000e-01    3.160000e+00
  P1ar  SN4r  1 4.300000e-01    3.160000e+00
  P1ar  SN3r  1 4.300000e-01    2.770000e+00
  P1ar  SN2r  1 4.300000e-01    2.770000e+00
  P1ar  SN1r  1 4.300000e-01    2.770000e+00
  N6ar  SN5r  1 4.300000e-01    3.380000e+00
  N6ar  SN4r  1 4.300000e-01    3.380000e+00
  N6ar  SN3r  1 4.300000e-01    2.920000e+00
  N6ar  SN2r  1 4.300000e-01    2.770000e+00
  N6ar  SN1r  1 4.300000e-01    2.770000e+00
  N5ar  SN4r  1 4.300000e-01    3.160000e+00
  N5ar  SN3r  1 4.300000e-01    2.920000e+00
  N5ar  SN2r  1 4.300000e-01    2.920000e+00
  N5ar  SN1r  1 4.300000e-01    2.770000e+00
  N4ar  SN3r  1 4.300000e-01    2.920000e+00
  N4ar  SN2r  1 4.300000e-01    2.920000e+00
  N4ar  SN1r  1 4.300000e-01    2.770000e+00
  N3ar  SN2r  1 4.300000e-01    2.920000e+00
  N3ar  SN1r  1 4.300000e-01    2.770000e+00
  N2ar  SN1r  1 4.300000e-01    2.770000e+00
   C6r  SC6r  1 4.300000e-01    2.920000e+00
   C5r  SC5r  1 4.300000e-01    2.770000e+00
   C4r  SC4r  1 4.300000e-01    2.770000e+00
   C3r  SC3r  1 4.300000e-01    2.770000e+00
   C2r  SC2r  1 4.300000e-01    2.770000e+00
   C1r  SC1r  1 4.300000e-01    2.770000e+00
   X4r  SX4r  1 4.300000e-01    2.770000e+00
   X3r  SX3r  1 4.300000e-01    2.770000e+00
   X2r  SX2r  1 4.300000e-01    2.920000e+00
   X1r  SX1r  1 4.300000e-01    3.160000e+00
  C6vr SC6vr  1 4.300000e-01    2.770000e+00
  C5vr SC5vr  1 4.300000e-01    2.530000e+00
  C4vr SC4vr  1 4.300000e-01    2.530000e+00
  C3vr SC3vr  1 4.300000e-01    2.530000e+00
  C2vr SC2vr  1 4.300000e-01    2.530000e+00
  C1vr SC1vr  1 4.300000e-01    2.530000e+00
  X4vr SX4vr  1 4.300000e-01    2.530000e+00
  X3vr SX3vr  1 4.300000e-01    2.530000e+00
  X2vr SX2vr  1 4.300000e-01    2.770000e+00
  X1vr SX1vr  1 4.300000e-01    2.920000e+00
  C6er SC6er  1 4.300000e-01    2.770000e+00
  C5er SC5er  1 4.300000e-01    2.530000e+00
  C4er SC4er  1 4.300000e-01    2.530000e+00
  C3er SC3er  1 4.300000e-01    2.530000e+00
  C2er SC2er  1 4.300000e-01    2.530000e+00
  C1er SC1er  1 4.300000e-01    2.530000e+00
  X4er SX4er  1 4.300000e-01    2.530000e+00
  X3er SX3er  1 4.300000e-01    2.530000e+00
  X2er SX2er  1 4.300000e-01    2.770000e+00
  X1er SX1er  1 4.300000e-01    2.920000e+00
   C6r  SC5r  1 4.300000e-01    2.770000e+00
   C6r  SC4r  1 4.300000e-01    2.770000e+00
   C6r  SC3r  1 4.300000e-01    2.530000e+00
   C6r  SC2r  1 4.300000e-01    2.320000e+00
   C6r  SC1r  1 4.300000e-01    2.160000e+00
   C6r  SX4r  1 4.300000e-01    2.770000e+00
   C6r  SX3r  1 4.300000e-01    2.770000e+00
   C6r  SX2r  1 4.300000e-01    2.770000e+00
   C6r  SX1r  1 4.300000e-01    2.770000e+00
   C6r SC6vr  1 4.300000e-01    3.160000e+00
   C6r SC5vr  1 4.300000e-01    2.920000e+00
   C6r SC4vr  1 4.300000e-01    2.920000e+00
   C6r SC3vr  1 4.300000e-01    2.770000e+00
   C6r SC2vr  1 4.300000e-01    2.530000e+00
   C6r SC1vr  1 4.300000e-01    2.320000e+00
   C6r SX4vr  1 4.300000e-01    2.920000e+00
   C6r SX3vr  1 4.300000e-01    2.920000e+00
   C6r SX2vr  1 4.300000e-01    2.920000e+00
   C6r SX1vr  1 4.300000e-01    2.920000e+00
   C6r SC6er  1 4.300000e-01    3.160000e+00
   C6r SC5er  1 4.300000e-01    2.920000e+00
   C6r SC4er  1 4.300000e-01    2.920000e+00
   C6r SC3er  1 4.300000e-01    2.770000e+00
   C6r SC2er  1 4.300000e-01    2.530000e+00
   C6r SC1er  1 4.300000e-01    2.320000e+00
   C6r SX4er  1 4.300000e-01    2.920000e+00
   C6r SX3er  1 4.300000e-01    2.920000e+00
   C6r SX2er  1 4.300000e-01    2.920000e+00
   C6r SX1er  1 4.300000e-01    2.920000e+00
   C5r  SC4r  1 4.300000e-01    2.770000e+00
   C5r  SC3r  1 4.300000e-01    2.530000e+00
   C5r  SC2r  1 4.300000e-01    2.320000e+00
   C5r  SC1r  1 4.300000e-01    2.320000e+00
   C5r  SX4r  1 4.300000e-01    2.530000e+00
   C5r  SX3r  1 4.300000e-01    2.530000e+00
   C5r  SX2r  1 4.300000e-01    2.530000e+00
   C5r  SX1r  1 4.300000e-01    2.770000e+00
   C5r SC5vr  1 4.300000e-01    2.920000e+00
   C5r SC4vr  1 4.300000e-01    2.920000e+00
   C5r SC3vr  1 4.300000e-01    2.770000e+00
   C5r SC2vr  1 4.300000e-01    2.530000e+00
   C5r SC1vr  1 4.300000e-01    2.530000e+00
   C5r SX4vr  1 4.300000e-01    2.770000e+00
   C5r SX3vr  1 4.300000e-01    2.770000e+00
   C5r SX2vr  1 4.300000e-01    2.770000e+00
   C5r SX1vr  1 4.300000e-01    2.920000e+00
   C5r SC5er  1 4.300000e-01    2.920000e+00
   C5r SC4er  1 4.300000e-01    2.920000e+00
   C5r SC3er  1 4.300000e-01    2.770000e+00
   C5r SC2er  1 4.300000e-01    2.530000e+00
   C5r SC1er  1 4.300000e-01    2.530000e+00
   C5r SX4er  1 4.300000e-01    2.770000e+00
   C5r SX3er  1 4.300000e-01    2.770000e+00
   C5r SX2er  1 4.300000e-01    2.770000e+00
   C5r SX1er  1 4.300000e-01    2.920000e+00
   C4r  SC3r  1 4.300000e-01    2.770000e+00
   C4r  SC2r  1 4.300000e-01    2.530000e+00
   C4r  SC1r  1 4.300000e-01    2.320000e+00
   C4r  SX4r  1 4.300000e-01    2.530000e+00
   C4r  SX3r  1 4.300000e-01    2.530000e+00
   C4r  SX2r  1 4.300000e-01    2.530000e+00
   C4r  SX1r  1 4.300000e-01    2.770000e+00
   C4r SC4vr  1 4.300000e-01    2.920000e+00
   C4r SC3vr  1 4.300000e-01    2.920000e+00
   C4r SC2vr  1 4.300000e-01    2.770000e+00
   C4r SC1vr  1 4.300000e-01    2.530000e+00
   C4r SX4vr  1 4.300000e-01    2.770000e+00
   C4r SX3vr  1 4.300000e-01    2.770000e+00
   C4r SX2vr  1 4.300000e-01    2.770000e+00
   C4r SX1vr  1 4.300000e-01    2.920000e+00
   C4r SC4er  1 4.300000e-01    2.920000e+00
   C4r SC3er  1 4.300000e-01    2.920000e+00
   C4r SC2er  1 4.300000e-01    2.770000e+00
   C4r SC1er  1 4.300000e-01    2.530000e+00
   C4r SX4er  1 4.300000e-01    2.770000e+00
   C4r SX3er  1 4.300000e-01    2.770000e+00
   C4r SX2er  1 4.300000e-01    2.770000e+00
   C4r SX1er  1 4.300000e-01    2.920000e+00
   C3r  SC2r  1 4.300000e-01    2.770000e+00
   C3r  SC1r  1 4.300000e-01    2.770000e+00
   C3r  SX4r  1 4.300000e-01    2.530000e+00
   C3r  SX3r  1 4.300000e-01    2.530000e+00
   C3r  SX2r  1 4.300000e-01    2.530000e+00
   C3r  SX1r  1 4.300000e-01    2.770000e+00
   C3r SC3vr  1 4.300000e-01    2.920000e+00
   C3r SC2vr  1 4.300000e-01    2.920000e+00
   C3r SC1vr  1 4.300000e-01    2.920000e+00
   C3r SX4vr  1 4.300000e-01    2.770000e+00
   C3r SX3vr  1 4.300000e-01    2.770000e+00
   C3r SX2vr  1 4.300000e-01    2.770000e+00
   C3r SX1vr  1 4.300000e-01    2.920000e+00
   C3r SC3er  1 4.300000e-01    2.920000e+00
   C3r SC2er  1 4.300000e-01    2.920000e+00
   C3r SC1er  1 4.300000e-01    2.920000e+00
   C3r SX4er  1 4.300000e-01    2.770000e+00
   C3r SX3er  1 4.300000e-01    2.770000e+00
   C3r SX2er  1 4.300000e-01    2.770000e+00
   C3r SX1er  1 4.300000e-01    2.920000e+00
   C2r  SC1r  1 4.300000e-01    2.920000e+00
   C2r  SX4r  1 4.300000e-01    2.160000e+00
   C2r  SX3r  1 4.300000e-01    2.530000e+00
   C2r  SX2r  1 4.300000e-01    2.530000e+00
   C2r  SX1r  1 4.300000e-01    2.530000e+00
   C2r SC2vr  1 4.300000e-01    2.920000e+00
   C2r SC1vr  1 4.300000e-01    3.160000e+00
   C2r SX4vr  1 4.300000e-01    2.320000e+00
   C2r SX3vr  1 4.300000e-01    2.770000e+00
   C2r SX2vr  1 4.300000e-01    2.770000e+00
   C2r SX1vr  1 4.300000e-01    2.770000e+00
   C2r SC2er  1 4.300000e-01    2.920000e+00
   C2r SC1er  1 4.300000e-01    3.160000e+00
   C2r SX4er  1 4.300000e-01    2.320000e+00
   C2r SX3er  1 4.300000e-01    2.770000e+00
   C2r SX2er  1 4.300000e-01    2.770000e+00
   C2r SX1er  1 4.300000e-01    2.770000e+00
   C1r  SX4r  1 4.300000e-01    2.160000e+00
   C1r  SX3r  1 4.300000e-01    2.530000e+00
   C1r  SX2r  1 4.300000e-01    2.530000e+00
   C1r  SX1r  1 4.300000e-01    2.530000e+00
   C1r SC1vr  1 4.300000e-01    2.920000e+00
   C1r SX4vr  1 4.300000e-01    2.320000e+00
   C1r SX3vr  1 4.300000e-01    2.770000e+00
   C1r SX2vr  1 4.300000e-01    2.770000e+00
   C1r SX1vr  1 4.300000e-01    2.770000e+00
   C1r SC1er  1 4.300000e-01    2.920000e+00
   C1r SX4er  1 4.300000e-01    2.320000e+00
   C1r SX3er  1 4.300000e-01    2.770000e+00
   C1r SX2er  1 4.300000e-01    2.770000e+00
   C1r SX1er  1 4.300000e-01    2.770000e+00
   X4r  SX3r  1 4.300000e-01    2.770000e+00
   X4r  SX2r  1 4.300000e-01    2.770000e+00
   X4r  SX1r  1 4.300000e-01    2.770000e+00
   X4r SX4vr  1 4.300000e-01    2.920000e+00
   X4r SX3vr  1 4.300000e-01    2.920000e+00
   X4r SX2vr  1 4.300000e-01    2.920000e+00
   X4r SX1vr  1 4.300000e-01    2.920000e+00
   X4r SX4er  1 4.300000e-01    2.920000e+00
   X4r SX3er  1 4.300000e-01    2.920000e+00
   X4r SX2er  1 4.300000e-01    2.920000e+00
   X4r SX1er  1 4.300000e-01    2.920000e+00
   X3r  SX2r  1 4.300000e-01    2.920000e+00
   X3r  SX1r  1 4.300000e-01    2.920000e+00
   X3r SX3vr  1 4.300000e-01    2.920000e+00
   X3r SX2vr  1 4.300000e-01    3.160000e+00
   X3r SX1vr  1 4.300000e-01    3.160000e+00
   X3r SX3er  1 4.300000e-01    2.920000e+00
   X3r SX2er  1 4.300000e-01    3.160000e+00
   X3r SX1er  1 4.300000e-01    3.160000e+00
   X2r  SX1r  1 4.300000e-01    2.920000e+00
   X2r SX2vr  1 4.300000e-01    3.160000e+00
   X2r SX1vr  1 4.300000e-01    3.160000e+00
   X2r SX2er  1 4.300000e-01    3.160000e+00
   X2r SX1er  1 4.300000e-01    3.160000e+00
   X1r SX1vr  1 4.300000e-01    3.380000e+00
   X1r SX1er  1 4.300000e-01    3.380000e+00
  C6vr  SC5r  1 4.300000e-01    2.920000e+00
  C6vr  SC4r  1 4.300000e-01    2.920000e+00
  C6vr  SC3r  1 4.300000e-01    2.770000e+00
  C6vr  SC2r  1 4.300000e-01    2.530000e+00
  C6vr  SC1r  1 4.300000e-01    2.320000e+00
  C6vr  SX4r  1 4.300000e-01    2.920000e+00
  C6vr  SX3r  1 4.300000e-01    2.920000e+00
  C6vr  SX2r  1 4.300000e-01    2.920000e+00
  C6vr  SX1r  1 4.300000e-01    2.920000e+00
  C6vr SC5vr  1 4.300000e-01    2.530000e+00
  C6vr SC4vr  1 4.300000e-01    2.530000e+00
  C6vr SC3vr  1 4.300000e-01    2.320000e+00
  C6vr SC2vr  1 4.300000e-01    2.160000e+00
  C6vr SC1vr  1 4.300000e-01    1.930000e+00
  C6vr SX4vr  1 4.300000e-01    2.530000e+00
  C6vr SX3vr  1 4.300000e-01    2.530000e+00
  C6vr SX2vr  1 4.300000e-01    2.530000e+00
  C6vr SX1vr  1 4.300000e-01    2.530000e+00
  C5vr  SC4r  1 4.300000e-01    2.920000e+00
  C5vr  SC3r  1 4.300000e-01    2.770000e+00
  C5vr  SC2r  1 4.300000e-01    2.530000e+00
  C5vr  SC1r  1 4.300000e-01    2.530000e+00
  C5vr  SX4r  1 4.300000e-01    2.770000e+00
  C5vr  SX3r  1 4.300000e-01    2.770000e+00
  C5vr  SX2r  1 4.300000e-01    2.770000e+00
  C5vr  SX1r  1 4.300000e-01    2.920000e+00
  C5vr SC4vr  1 4.300000e-01    2.530000e+00
  C5vr SC3vr  1 4.300000e-01    2.320000e+00
  C5vr SC2vr  1 4.300000e-01    2.160000e+00
  C5vr SC1vr  1 4.300000e-01    2.160000e+00
  C5vr SX4vr  1 4.300000e-01    2.320000e+00
  C5vr SX3vr  1 4.300000e-01    2.320000e+00
  C5vr SX2vr  1 4.300000e-01    2.320000e+00
  C5vr SX1vr  1 4.300000e-01    2.530000e+00
  C4vr  SC3r  1 4.300000e-01    2.920000e+00
  C4vr  SC2r  1 4.300000e-01    2.770000e+00
  C4vr  SC1r  1 4.300000e-01    2.530000e+00
  C4vr  SX4r  1 4.300000e-01    2.770000e+00
  C4vr  SX3r  1 4.300000e-01    2.770000e+00
  C4vr  SX2r  1 4.300000e-01    2.770000e+00
  C4vr  SX1r  1 4.300000e-01    2.920000e+00
  C4vr SC3vr  1 4.300000e-01    2.530000e+00
  C4vr SC2vr  1 4.300000e-01    2.320000e+00
  C4vr SC1vr  1 4.300000e-01    2.160000e+00
  C4vr SX4vr  1 4.300000e-01    2.320000e+00
  C4vr SX3vr  1 4.300000e-01    2.320000e+00
  C4vr SX2vr  1 4.300000e-01    2.320000e+00
  C4vr SX1vr  1 4.300000e-01    2.530000e+00
  C3vr  SC2r  1 4.300000e-01    2.920000e+00
  C3vr  SC1r  1 4.300000e-01    2.920000e+00
  C3vr  SX4r  1 4.300000e-01    2.770000e+00
  C3vr  SX3r  1 4.300000e-01    2.770000e+00
  C3vr  SX2r  1 4.300000e-01    2.770000e+00
  C3vr  SX1r  1 4.300000e-01    2.920000e+00
  C3vr SC2vr  1 4.300000e-01    2.530000e+00
  C3vr SC1vr  1 4.300000e-01    2.530000e+00
  C3vr SX4vr  1 4.300000e-01    2.320000e+00
  C3vr SX3vr  1 4.300000e-01    2.320000e+00
  C3vr SX2vr  1 4.300000e-01    2.320000e+00
  C3vr SX1vr  1 4.300000e-01    2.530000e+00
  C2vr  SC1r  1 4.300000e-01    3.160000e+00
  C2vr  SX4r  1 4.300000e-01    2.320000e+00
  C2vr  SX3r  1 4.300000e-01    2.770000e+00
  C2vr  SX2r  1 4.300000e-01    2.770000e+00
  C2vr  SX1r  1 4.300000e-01    2.770000e+00
  C2vr SC1vr  1 4.300000e-01    2.770000e+00
  C2vr SX4vr  1 4.300000e-01    1.930000e+00
  C2vr SX3vr  1 4.300000e-01    2.320000e+00
  C2vr SX2vr  1 4.300000e-01    2.320000e+00
  C2vr SX1vr  1 4.300000e-01    2.320000e+00
  C1vr  SX4r  1 4.300000e-01    2.320000e+00
  C1vr  SX3r  1 4.300000e-01    2.770000e+00
  C1vr  SX2r  1 4.300000e-01    2.770000e+00
  C1vr  SX1r  1 4.300000e-01    2.770000e+00
  C1vr SX4vr  1 4.300000e-01    1.930000e+00
  C1vr SX3vr  1 4.300000e-01    2.320000e+00
  C1vr SX2vr  1 4.300000e-01    2.320000e+00
  C1vr SX1vr  1 4.300000e-01    2.320000e+00
  X4vr  SX3r  1 4.300000e-01    2.920000e+00
  X4vr  SX2r  1 4.300000e-01    2.920000e+00
  X4vr  SX1r  1 4.300000e-01    2.920000e+00
  X4vr SX3vr  1 4.300000e-01    2.530000e+00
  X4vr SX2vr  1 4.300000e-01    2.530000e+00
  X4vr SX1vr  1 4.300000e-01    2.530000e+00
  X3vr  SX2r  1 4.300000e-01    3.160000e+00
  X3vr  SX1r  1 4.300000e-01    3.160000e+00
  X3vr SX2vr  1 4.300000e-01    2.770000e+00
  X3vr SX1vr  1 4.300000e-01    2.770000e+00
  X2vr  SX1r  1 4.300000e-01    3.160000e+00
  X2vr SX1vr  1 4.300000e-01    2.770000e+00
  C6er  SC5r  1 4.300000e-01    2.920000e+00
  C6er  SC4r  1 4.300000e-01    2.920000e+00
  C6er  SC3r  1 4.300000e-01    2.770000e+00
  C6er  SC2r  1 4.300000e-01    2.530000e+00
  C6er  SC1r  1 4.300000e-01    2.320000e+00
  C6er  SX4r  1 4.300000e-01    2.920000e+00
  C6er  SX3r  1 4.300000e-01    2.920000e+00
  C6er  SX2r  1 4.300000e-01    2.920000e+00
  C6er  SX1r  1 4.300000e-01    2.920000e+00
  C6er SC5er  1 4.300000e-01    2.530000e+00
  C6er SC4er  1 4.300000e-01    2.530000e+00
  C6er SC3er  1 4.300000e-01    2.320000e+00
  C6er SC2er  1 4.300000e-01    2.160000e+00
  C6er SC1er  1 4.300000e-01    1.930000e+00
  C6er SX4er  1 4.300000e-01    2.530000e+00
  C6er SX3er  1 4.300000e-01    2.530000e+00
  C6er SX2er  1 4.300000e-01    2.530000e+00
  C6er SX1er  1 4.300000e-01    2.530000e+00
  C5er  SC4r  1 4.300000e-01    2.920000e+00
  C5er  SC3r  1 4.300000e-01    2.770000e+00
  C5er  SC2r  1 4.300000e-01    2.530000e+00
  C5er  SC1r  1 4.300000e-01    2.530000e+00
  C5er  SX4r  1 4.300000e-01    2.770000e+00
  C5er  SX3r  1 4.300000e-01    2.770000e+00
  C5er  SX2r  1 4.300000e-01    2.770000e+00
  C5er  SX1r  1 4.300000e-01    2.920000e+00
  C5er SC4er  1 4.300000e-01    2.530000e+00
  C5er SC3er  1 4.300000e-01    2.320000e+00
  C5er SC2er  1 4.300000e-01    2.160000e+00
  C5er SC1er  1 4.300000e-01    2.160000e+00
  C5er SX4er  1 4.300000e-01    2.320000e+00
  C5er SX3er  1 4.300000e-01    2.320000e+00
  C5er SX2er  1 4.300000e-01    2.320000e+00
  C5er SX1er  1 4.300000e-01    2.530000e+00
  C4er  SC3r  1 4.300000e-01    2.920000e+00
  C4er  SC2r  1 4.300000e-01    2.770000e+00
  C4er  SC1r  1 4.300000e-01    2.530000e+00
  C4er  SX4r  1 4.300000e-01    2.770000e+00
  C4er  SX3r  1 4.300000e-01    2.770000e+00
  C4er  SX2r  1 4.300000e-01    2.770000e+00
  C4er  SX1r  1 4.300000e-01    2.920000e+00
  C4er SC3er  1 4.300000e-01    2.530000e+00
  C4er SC2er  1 4.300000e-01    2.320000e+00
  C4er SC1er  1 4.300000e-01    2.160000e+00
  C4er SX4er  1 4.300000e-01    2.320000e+00
  C4er SX3er  1 4.300000e-01    2.320000e+00
  C4er SX2er  1 4.300000e-01    2.320000e+00
  C4er SX1er  1 4.300000e-01    2.530000e+00
  C3er  SC2r  1 4.300000e-01    2.920000e+00
  C3er  SC1r  1 4.300000e-01    2.920000e+00
  C3er  SX4r  1 4.300000e-01    2.770000e+00
  C3er  SX3r  1 4.300000e-01    2.770000e+00
  C3er  SX2r  1 4.300000e-01    2.770000e+00
  C3er  SX1r  1 4.300000e-01    2.920000e+00
  C3er SC2er  1 4.300000e-01    2.530000e+00
  C3er SC1er  1 4.300000e-01    2.530000e+00
  C3er SX4er  1 4.300000e-01    2.320000e+00
  C3er SX3er  1 4.300000e-01    2.320000e+00
  C3er SX2er  1 4.300000e-01    2.320000e+00
  C3er SX1er  1 4.300000e-01    2.530000e+00
  C2er  SC1r  1 4.300000e-01    3.160000e+00
  C2er  SX4r  1 4.300000e-01    2.320000e+00
  C2er  SX3r  1 4.300000e-01    2.770000e+00
  C2er  SX2r  1 4.300000e-01    2.770000e+00
  C2er  SX1r  1 4.300000e-01    2.770000e+00
  C2er SC1er  1 4.300000e-01    2.770000e+00
  C2er SX4er  1 4.300000e-01    1.930000e+00
  C2er SX3er  1 4.300000e-01    2.320000e+00
  C2er SX2er  1 4.300000e-01    2.320000e+00
  C2er SX1er  1 4.300000e-01    2.320000e+00
  C1er  SX4r  1 4.300000e-01    2.320000e+00
  C1er  SX3r  1 4.300000e-01    2.770000e+00
  C1er  SX2r  1 4.300000e-01    2.770000e+00
  C1er  SX1r  1 4.300000e-01    2.770000e+00
  C1er SX4er  1 4.300000e-01    1.930000e+00
  C1er SX3er  1 4.300000e-01    2.320000e+00
  C1er SX2er  1 4.300000e-01    2.320000e+00
  C1er SX1er  1 4.300000e-01    2.320000e+00
  X4er  SX3r  1 4.300000e-01    2.920000e+00
  X4er  SX2r  1 4.300000e-01    2.920000e+00
  X4er  SX1r  1 4.300000e-01    2.920000e+00
  X4er SX3er  1 4.300000e-01    2.530000e+00
  X4er SX2er  1 4.300000e-01    2.530000e+00
  X4er SX1er  1 4.300000e-01    2.530000e+00
  X3er  SX2r  1 4.300000e-01    3.160000e+00
  X3er  SX1r  1 4.300000e-01    3.160000e+00
  X3er SX2er  1 4.300000e-01    2.770000e+00
  X3er SX1er  1 4.300000e-01    2.770000e+00
  X2er  SX1r  1 4.300000e-01    3.160000e+00
  X2er SX1er  1 4.300000e-01    2.770000e+00
   P6r  SC6r  1 4.300000e-01    2.320000e+00
   P6r  SC5r  1 4.300000e-01    2.160000e+00
   P6r  SC4r  1 4.300000e-01    1.930000e+00
   P6r  SC3r  1 4.300000e-01    1.730000e+00
   P6r  SC2r  1 4.300000e-01    1.730000e+00
   P6r  SC1r  1 4.730000e-01    1.280000e+00
   P6r  SX4r  1 4.300000e-01    2.530000e+00
   P6r  SX3r  1 4.300000e-01    2.530000e+00
   P6r  SX2r  1 4.300000e-01    2.320000e+00
   P6r  SX1r  1 4.300000e-01    2.160000e+00
   P6r SC6vr  1 4.300000e-01    2.530000e+00
   P6r SC5vr  1 4.300000e-01    2.320000e+00
   P6r SC4vr  1 4.300000e-01    2.160000e+00
   P6r SC3vr  1 4.300000e-01    1.930000e+00
   P6r SC2vr  1 4.300000e-01    1.930000e+00
   P6r SC1vr  1 4.430000e-01    1.480000e+00
   P6r SX4vr  1 4.300000e-01    2.770000e+00
   P6r SX3vr  1 4.300000e-01    2.770000e+00
   P6r SX2vr  1 4.300000e-01    2.530000e+00
   P6r SX1vr  1 4.300000e-01    2.320000e+00
   P6r SC6er  1 4.300000e-01    2.530000e+00
   P6r SC5er  1 4.300000e-01    2.320000e+00
   P6r SC4er  1 4.300000e-01    2.160000e+00
   P6r SC3er  1 4.300000e-01    1.930000e+00
   P6r SC2er  1 4.300000e-01    1.930000e+00
   P6r SC1er  1 4.430000e-01    1.480000e+00
   P6r SX4er  1 4.300000e-01    2.770000e+00
   P6r SX3er  1 4.300000e-01    2.770000e+00
   P6r SX2er  1 4.300000e-01    2.530000e+00
   P6r SX1er  1 4.300000e-01    2.320000e+00
   P5r  SC6r  1 4.300000e-01    2.320000e+00
   P5r  SC5r  1 4.300000e-01    2.320000e+00
   P5r  SC4r  1 4.300000e-01    2.160000e+00
   P5r  SC3r  1 4.300000e-01    1.930000e+00
   P5r  SC2r  1 4.300000e-01    1.930000e+00
   P5r  SC1r  1 4.300000e-01    1.730000e+00
   P5r  SX4r  1 4.300000e-01    2.770000e+00
   P5r  SX3r  1 4.300000e-01    2.530000e+00
   P5r  SX2r  1 4.300000e-01    2.530000e+00
   P5r  SX1r  1 4.300000e-01    2.160000e+00
   P5r SC6vr  1 4.300000e-01    2.530000e+00
   P5r SC5vr  1 4.300000e-01    2.530000e+00
   P5r SC4vr  1 4.300000e-01    2.320000e+00
   P5r SC3vr  1 4.300000e-01    2.160000e+00
   P5r SC2vr  1 4.300000e-01    2.160000e+00
   P5r SC1vr  1 4.300000e-01    1.930000e+00
   P5r SX4vr  1 4.300000e-01    2.920000e+00
   P5r SX3vr  1 4.300000e-01    2.770000e+00
   P5r SX2vr  1 4.300000e-01    2.770000e+00
   P5r SX1vr  1 4.300000e-01    2.320000e+00
   P5r SC6er  1 4.300000e-01    2.530000e+00
   P5r SC5er  1 4.300000e-01    2.530000e+00
   P5r SC4er  1 4.300000e-01    2.320000e+00
   P5r SC3er  1 4.300000e-01    2.160000e+00
   P5r SC2er  1 4.300000e-01    2.160000e+00
   P5r SC1er  1 4.300000e-01    1.930000e+00
   P5r SX4er  1 4.300000e-01    2.920000e+00
   P5r SX3er  1 4.300000e-01    2.770000e+00
   P5r SX2er  1 4.300000e-01    2.770000e+00
   P5r SX1er  1 4.300000e-01    2.320000e+00
   P4r  SC6r  1 4.300000e-01    2.530000e+00
   P4r  SC5r  1 4.300000e-01    2.320000e+00
   P4r  SC4r  1 4.300000e-01    2.160000e+00
   P4r  SC3r  1 4.300000e-01    1.930000e+00
   P4r  SC2r  1 4.300000e-01    1.930000e+00
   P4r  SC1r  1 4.300000e-01    1.730000e+00
   P4r  SX4r  1 4.300000e-01    2.770000e+00
   P4r  SX3r  1 4.300000e-01    2.530000e+00
   P4r  SX2r  1 4.300000e-01    2.530000e+00
   P4r  SX1r  1 4.300000e-01    2.320000e+00
   P4r SC6vr  1 4.300000e-01    2.770000e+00
   P4r SC5vr  1 4.300000e-01    2.530000e+00
   P4r SC4vr  1 4.300000e-01    2.320000e+00
   P4r SC3vr  1 4.300000e-01    2.160000e+00
   P4r SC2vr  1 4.300000e-01    2.160000e+00
   P4r SC1vr  1 4.300000e-01    1.930000e+00
   P4r SX4vr  1 4.300000e-01    2.920000e+00
   P4r SX3vr  1 4.300000e-01    2.770000e+00
   P4r SX2vr  1 4.300000e-01    2.770000e+00
   P4r SX1vr  1 4.300000e-01    2.530000e+00
   P4r SC6er  1 4.300000e-01    2.770000e+00
   P4r SC5er  1 4.300000e-01    2.530000e+00
   P4r SC4er  1 4.300000e-01    2.320000e+00
   P4r SC3er  1 4.300000e-01    2.160000e+00
   P4r SC2er  1 4.300000e-01    2.160000e+00
   P4r SC1er  1 4.300000e-01    1.930000e+00
   P4r SX4er  1 4.300000e-01    2.920000e+00
   P4r SX3er  1 4.300000e-01    2.770000e+00
   P4r SX2er  1 4.300000e-01    2.770000e+00
   P4r SX1er  1 4.300000e-01    2.530000e+00
   P3r  SC6r  1 4.300000e-01    2.770000e+00
   P3r  SC5r  1 4.300000e-01    2.530000e+00
   P3r  SC4r  1 4.300000e-01    2.320000e+00
   P3r  SC3r  1 4.300000e-01    1.930000e+00
   P3r  SC2r  1 4.300000e-01    1.930000e+00
   P3r  SC1r  1 4.300000e-01    1.730000e+00
   P3r  SX4r  1 4.300000e-01    2.770000e+00
   P3r  SX3r  1 4.300000e-01    2.770000e+00
   P3r  SX2r  1 4.300000e-01    2.530000e+00
   P3r  SX1r  1 4.300000e-01    2.320000e+00
   P3r SC6vr  1 4.300000e-01    2.920000e+00
   P3r SC5vr  1 4.300000e-01    2.770000e+00
   P3r SC4vr  1 4.300000e-01    2.530000e+00
   P3r SC3vr  1 4.300000e-01    2.160000e+00
   P3r SC2vr  1 4.300000e-01    2.160000e+00
   P3r SC1vr  1 4.300000e-01    1.930000e+00
   P3r SX4vr  1 4.300000e-01    2.920000e+00
   P3r SX3vr  1 4.300000e-01    2.920000e+00
   P3r SX2vr  1 4.300000e-01    2.770000e+00
   P3r SX1vr  1 4.300000e-01    2.530000e+00
   P3r SC6er  1 4.300000e-01    2.920000e+00
   P3r SC5er  1 4.300000e-01    2.770000e+00
   P3r SC4er  1 4.300000e-01    2.530000e+00
   P3r SC3er  1 4.300000e-01    2.160000e+00
   P3r SC2er  1 4.300000e-01    2.160000e+00
   P3r SC1er  1 4.300000e-01    1.930000e+00
   P3r SX4er  1 4.300000e-01    2.920000e+00
   P3r SX3er  1 4.300000e-01    2.920000e+00
   P3r SX2er  1 4.300000e-01    2.770000e+00
   P3r SX1er  1 4.300000e-01    2.530000e+00
   P2r  SC6r  1 4.300000e-01    2.770000e+00
   P2r  SC5r  1 4.300000e-01    2.530000e+00
   P2r  SC4r  1 4.300000e-01    2.320000e+00
   P2r  SC3r  1 4.300000e-01    2.160000e+00
   P2r  SC2r  1 4.300000e-01    2.160000e+00
   P2r  SC1r  1 4.300000e-01    1.930000e+00
   P2r  SX4r  1 4.300000e-01    2.770000e+00
   P2r  SX3r  1 4.300000e-01    2.770000e+00
   P2r  SX2r  1 4.300000e-01    2.530000e+00
   P2r  SX1r  1 4.300000e-01    2.320000e+00
   P2r SC6vr  1 4.300000e-01    2.920000e+00
   P2r SC5vr  1 4.300000e-01    2.770000e+00
   P2r SC4vr  1 4.300000e-01    2.530000e+00
   P2r SC3vr  1 4.300000e-01    2.320000e+00
   P2r SC2vr  1 4.300000e-01    2.320000e+00
   P2r SC1vr  1 4.300000e-01    2.160000e+00
   P2r SX4vr  1 4.300000e-01    2.920000e+00
   P2r SX3vr  1 4.300000e-01    2.920000e+00
   P2r SX2vr  1 4.300000e-01    2.770000e+00
   P2r SX1vr  1 4.300000e-01    2.530000e+00
   P2r SC6er  1 4.300000e-01    2.920000e+00
   P2r SC5er  1 4.300000e-01    2.770000e+00
   P2r SC4er  1 4.300000e-01    2.530000e+00
   P2r SC3er  1 4.300000e-01    2.320000e+00
   P2r SC2er  1 4.300000e-01    2.320000e+00
   P2r SC1er  1 4.300000e-01    2.160000e+00
   P2r SX4er  1 4.300000e-01    2.920000e+00
   P2r SX3er  1 4.300000e-01    2.920000e+00
   P2r SX2er  1 4.300000e-01    2.770000e+00
   P2r SX1er  1 4.300000e-01    2.530000e+00
   P1r  SC6r  1 4.300000e-01    2.770000e+00
   P1r  SC5r  1 4.300000e-01    2.530000e+00
   P1r  SC4r  1 4.300000e-01    2.320000e+00
   P1r  SC3r  1 4.300000e-01    2.160000e+00
   P1r  SC2r  1 4.300000e-01    2.160000e+00
   P1r  SC1r  1 4.300000e-01    1.930000e+00
   P1r  SX4r  1 4.300000e-01    2.770000e+00
   P1r  SX3r  1 4.300000e-01    2.770000e+00
   P1r  SX2r  1 4.300000e-01    2.530000e+00
   P1r  SX1r  1 4.300000e-01    2.320000e+00
   P1r SC6vr  1 4.300000e-01    2.920000e+00
   P1r SC5vr  1 4.300000e-01    2.770000e+00
   P1r SC4vr  1 4.300000e-01    2.530000e+00
   P1r SC3vr  1 4.300000e-01    2.320000e+00
   P1r SC2vr  1 4.300000e-01    2.320000e+00
   P1r SC1vr  1 4.300000e-01    2.160000e+00
   P1r SX4vr  1 4.300000e-01    2.920000e+00
   P1r SX3vr  1 4.300000e-01    2.920000e+00
   P1r SX2vr  1 4.300000e-01    2.770000e+00
   P1r SX1vr  1 4.300000e-01    2.530000e+00
   P1r SC6er  1 4.300000e-01    2.920000e+00
   P1r SC5er  1 4.300000e-01    2.770000e+00
   P1r SC4er  1 4.300000e-01    2.530000e+00
   P1r SC3er  1 4.300000e-01    2.320000e+00
   P1r SC2er  1 4.300000e-01    2.320000e+00
   P1r SC1er  1 4.300000e-01    2.160000e+00
   P1r SX4er  1 4.300000e-01    2.920000e+00
   P1r SX3er  1 4.300000e-01    2.920000e+00
   P1r SX2er  1 4.300000e-01    2.770000e+00
   P1r SX1er  1 4.300000e-01    2.530000e+00
   N6r  SC6r  1 4.300000e-01    2.920000e+00
   N6r  SC5r  1 4.300000e-01    2.770000e+00
   N6r  SC4r  1 4.300000e-01    2.530000e+00
   N6r  SC3r  1 4.300000e-01    2.320000e+00
   N6r  SC2r  1 4.300000e-01    2.320000e+00
   N6r  SC1r  1 4.300000e-01    2.160000e+00
   N6r  SX4r  1 4.300000e-01    2.920000e+00
   N6r  SX3r  1 4.300000e-01    2.770000e+00
   N6r  SX2r  1 4.300000e-01    2.530000e+00
   N6r  SX1r  1 4.300000e-01    2.320000e+00
   N6r SC6vr  1 4.300000e-01    3.160000e+00
   N6r SC5vr  1 4.300000e-01    2.920000e+00
   N6r SC4vr  1 4.300000e-01    2.770000e+00
   N6r SC3vr  1 4.300000e-01    2.530000e+00
   N6r SC2vr  1 4.300000e-01    2.530000e+00
   N6r SC1vr  1 4.300000e-01    2.320000e+00
   N6r SX4vr  1 4.300000e-01    3.160000e+00
   N6r SX3vr  1 4.300000e-01    2.920000e+00
   N6r SX2vr  1 4.300000e-01    2.770000e+00
   N6r SX1vr  1 4.300000e-01    2.530000e+00
   N6r SC6er  1 4.300000e-01    3.160000e+00
   N6r SC5er  1 4.300000e-01    2.920000e+00
   N6r SC4er  1 4.300000e-01    2.770000e+00
   N6r SC3er  1 4.300000e-01    2.530000e+00
   N6r SC2er  1 4.300000e-01    2.530000e+00
   N6r SC1er  1 4.300000e-01    2.320000e+00
   N6r SX4er  1 4.300000e-01    3.160000e+00
   N6r SX3er  1 4.300000e-01    2.920000e+00
   N6r SX2er  1 4.300000e-01    2.770000e+00
   N6r SX1er  1 4.300000e-01    2.530000e+00
   N5r  SC6r  1 4.300000e-01    2.920000e+00
   N5r  SC5r  1 4.300000e-01    2.770000e+00
   N5r  SC4r  1 4.300000e-01    2.530000e+00
   N5r  SC3r  1 4.300000e-01    2.530000e+00
   N5r  SC2r  1 4.300000e-01    2.320000e+00
   N5r  SC1r  1 4.300000e-01    2.160000e+00
   N5r  SX4r  1 4.300000e-01    3.160000e+00
   N5r  SX3r  1 4.300000e-01    2.920000e+00
   N5r  SX2r  1 4.300000e-01    2.770000e+00
   N5r  SX1r  1 4.300000e-01    2.530000e+00
   N5r SC6vr  1 4.300000e-01    3.160000e+00
   N5r SC5vr  1 4.300000e-01    2.920000e+00
   N5r SC4vr  1 4.300000e-01    2.770000e+00
   N5r SC3vr  1 4.300000e-01    2.770000e+00
   N5r SC2vr  1 4.300000e-01    2.530000e+00
   N5r SC1vr  1 4.300000e-01    2.320000e+00
   N5r SX4vr  1 4.300000e-01    3.380000e+00
   N5r SX3vr  1 4.300000e-01    3.160000e+00
   N5r SX2vr  1 4.300000e-01    2.920000e+00
   N5r SX1vr  1 4.300000e-01    2.770000e+00
   N5r SC6er  1 4.300000e-01    3.160000e+00
   N5r SC5er  1 4.300000e-01    2.920000e+00
   N5r SC4er  1 4.300000e-01    2.770000e+00
   N5r SC3er  1 4.300000e-01    2.770000e+00
   N5r SC2er  1 4.300000e-01    2.530000e+00
   N5r SC1er  1 4.300000e-01    2.320000e+00
   N5r SX4er  1 4.300000e-01    3.380000e+00
   N5r SX3er  1 4.300000e-01    3.160000e+00
   N5r SX2er  1 4.300000e-01    2.920000e+00
   N5r SX1er  1 4.300000e-01    2.770000e+00
   N4r  SC6r  1 4.300000e-01    2.920000e+00
   N4r  SC5r  1 4.300000e-01    2.770000e+00
   N4r  SC4r  1 4.300000e-01    2.770000e+00
   N4r  SC3r  1 4.300000e-01    2.530000e+00
   N4r  SC2r  1 4.300000e-01    2.320000e+00
   N4r  SC1r  1 4.300000e-01    2.160000e+00
   N4r  SX4r  1 4.300000e-01    3.380000e+00
   N4r  SX3r  1 4.300000e-01    3.160000e+00
   N4r  SX2r  1 4.300000e-01    2.770000e+00
   N4r  SX1r  1 4.300000e-01    2.530000e+00
   N4r SC6vr  1 4.300000e-01    3.160000e+00
   N4r SC5vr  1 4.300000e-01    2.920000e+00
   N4r SC4vr  1 4.300000e-01    2.920000e+00
   N4r SC3vr  1 4.300000e-01    2.770000e+00
   N4r SC2vr  1 4.300000e-01    2.530000e+00
   N4r SC1vr  1 4.300000e-01    2.320000e+00
   N4r SX4vr  1 4.300000e-01    3.590000e+00
   N4r SX3vr  1 4.300000e-01    3.380000e+00
   N4r SX2vr  1 4.300000e-01    2.920000e+00
   N4r SX1vr  1 4.300000e-01    2.770000e+00
   N4r SC6er  1 4.300000e-01    3.160000e+00
   N4r SC5er  1 4.300000e-01    2.920000e+00
   N4r SC4er  1 4.300000e-01    2.920000e+00
   N4r SC3er  1 4.300000e-01    2.770000e+00
   N4r SC2er  1 4.300000e-01    2.530000e+00
   N4r SC1er  1 4.300000e-01    2.320000e+00
   N4r SX4er  1 4.300000e-01    3.590000e+00
   N4r SX3er  1 4.300000e-01    3.380000e+00
   N4r SX2er  1 4.300000e-01    2.920000e+00
   N4r SX1er  1 4.300000e-01    2.770000e+00
   N3r  SC6r  1 4.300000e-01    2.920000e+00
   N3r  SC5r  1 4.300000e-01    2.770000e+00
   N3r  SC4r  1 4.300000e-01    2.770000e+00
   N3r  SC3r  1 4.300000e-01    2.530000e+00
   N3r  SC2r  1 4.300000e-01    2.530000e+00
   N3r  SC1r  1 4.300000e-01    2.320000e+00
   N3r  SX4r  1 4.300000e-01    3.160000e+00
   N3r  SX3r  1 4.300000e-01    2.920000e+00
   N3r  SX2r  1 4.300000e-01    2.770000e+00
   N3r  SX1r  1 4.300000e-01    2.770000e+00
   N3r SC6vr  1 4.300000e-01    3.160000e+00
   N3r SC5vr  1 4.300000e-01    2.920000e+00
   N3r SC4vr  1 4.300000e-01    2.920000e+00
   N3r SC3vr  1 4.300000e-01    2.770000e+00
   N3r SC2vr  1 4.300000e-01    2.770000e+00
   N3r SC1vr  1 4.300000e-01    2.530000e+00
   N3r SX4vr  1 4.300000e-01    3.380000e+00
   N3r SX3vr  1 4.300000e-01    3.160000e+00
   N3r SX2vr  1 4.300000e-01    2.920000e+00
   N3r SX1vr  1 4.300000e-01    2.920000e+00
   N3r SC6er  1 4.300000e-01    3.160000e+00
   N3r SC5er  1 4.300000e-01    2.920000e+00
   N3r SC4er  1 4.300000e-01    2.920000e+00
   N3r SC3er  1 4.300000e-01    2.770000e+00
   N3r SC2er  1 4.300000e-01    2.770000e+00
   N3r SC1er  1 4.300000e-01    2.530000e+00
   N3r SX4er  1 4.300000e-01    3.380000e+00
   N3r SX3er  1 4.300000e-01    3.160000e+00
   N3r SX2er  1 4.300000e-01    2.920000e+00
   N3r SX1er  1 4.300000e-01    2.920000e+00
   N2r  SC6r  1 4.300000e-01    2.920000e+00
   N2r  SC5r  1 4.300000e-01    2.770000e+00
   N2r  SC4r  1 4.300000e-01    2.770000e+00
   N2r  SC3r  1 4.300000e-01    2.770000e+00
   N2r  SC2r  1 4.300000e-01    2.530000e+00
   N2r  SC1r  1 4.300000e-01    2.320000e+00
   N2r  SX4r  1 4.300000e-01    3.160000e+00
   N2r  SX3r  1 4.300000e-01    2.920000e+00
   N2r  SX2r  1 4.300000e-01    2.770000e+00
   N2r  SX1r  1 4.300000e-01    2.770000e+00
   N2r SC6vr  1 4.300000e-01    3.160000e+00
   N2r SC5vr  1 4.300000e-01    2.920000e+00
   N2r SC4vr  1 4.300000e-01    2.920000e+00
   N2r SC3vr  1 4.300000e-01    2.920000e+00
   N2r SC2vr  1 4.300000e-01    2.770000e+00
   N2r SC1vr  1 4.300000e-01    2.530000e+00
   N2r SX4vr  1 4.300000e-01    3.380000e+00
   N2r SX3vr  1 4.300000e-01    3.160000e+00
   N2r SX2vr  1 4.300000e-01    2.920000e+00
   N2r SX1vr  1 4.300000e-01    2.920000e+00
   N2r SC6er  1 4.300000e-01    3.160000e+00
   N2r SC5er  1 4.300000e-01    2.920000e+00
   N2r SC4er  1 4.300000e-01    2.920000e+00
   N2r SC3er  1 4.300000e-01    2.920000e+00
   N2r SC2er  1 4.300000e-01    2.770000e+00
   N2r SC1er  1 4.300000e-01    2.530000e+00
   N2r SX4er  1 4.300000e-01    3.380000e+00
   N2r SX3er  1 4.300000e-01    3.160000e+00
   N2r SX2er  1 4.300000e-01    2.920000e+00
   N2r SX1er  1 4.300000e-01    2.920000e+00
   N1r  SC6r  1 4.300000e-01    3.160000e+00
   N1r  SC5r  1 4.300000e-01    2.920000e+00
   N1r  SC4r  1 4.300000e-01    2.920000e+00
   N1r  SC3r  1 4.300000e-01    2.770000e+00
   N1r  SC2r  1 4.300000e-01    2.530000e+00
   N1r  SC1r  1 4.300000e-01    2.320000e+00
   N1r  SX4r  1 4.300000e-01    2.920000e+00
   N1r  SX3r  1 4.300000e-01    2.920000e+00
   N1r  SX2r  1 4.300000e-01    2.770000e+00
   N1r  SX1r  1 4.300000e-01    2.770000e+00
   N1r SC6vr  1 4.300000e-01    3.380000e+00
   N1r SC5vr  1 4.300000e-01    3.160000e+00
   N1r SC4vr  1 4.300000e-01    3.160000e+00
   N1r SC3vr  1 4.300000e-01    2.920000e+00
   N1r SC2vr  1 4.300000e-01    2.770000e+00
   N1r SC1vr  1 4.300000e-01    2.530000e+00
   N1r SX4vr  1 4.300000e-01    3.160000e+00
   N1r SX3vr  1 4.300000e-01    3.160000e+00
   N1r SX2vr  1 4.300000e-01    2.920000e+00
   N1r SX1vr  1 4.300000e-01    2.920000e+00
   N1r SC6er  1 4.300000e-01    3.380000e+00
   N1r SC5er  1 4.300000e-01    3.160000e+00
   N1r SC4er  1 4.300000e-01    3.160000e+00
   N1r SC3er  1 4.300000e-01    2.920000e+00
   N1r SC2er  1 4.300000e-01    2.770000e+00
   N1r SC1er  1 4.300000e-01    2.530000e+00
   N1r SX4er  1 4.300000e-01    3.160000e+00
   N1r SX3er  1 4.300000e-01    3.160000e+00
   N1r SX2er  1 4.300000e-01    2.920000e+00
   N1r SX1er  1 4.300000e-01    2.920000e+00
  P6dr  SC6r  1 4.300000e-01    2.320000e+00
  P6dr  SC5r  1 4.300000e-01    2.160000e+00
  P6dr  SC4r  1 4.300000e-01    1.930000e+00
  P6dr  SC3r  1 4.300000e-01    1.730000e+00
  P6dr  SC2r  1 4.300000e-01    1.730000e+00
  P6dr  SC1r  1 4.730000e-01    1.280000e+00
  P6dr  SX4r  1 4.300000e-01    2.530000e+00
  P6dr  SX3r  1 4.300000e-01    2.530000e+00
  P6dr  SX2r  1 4.300000e-01    2.320000e+00
  P6dr  SX1r  1 4.300000e-01    2.160000e+00
  P5dr  SC6r  1 4.300000e-01    2.320000e+00
  P5dr  SC5r  1 4.300000e-01    2.320000e+00
  P5dr  SC4r  1 4.300000e-01    2.160000e+00
  P5dr  SC3r  1 4.300000e-01    1.930000e+00
  P5dr  SC2r  1 4.300000e-01    1.930000e+00
  P5dr  SC1r  1 4.300000e-01    1.730000e+00
  P5dr  SX4r  1 4.300000e-01    2.770000e+00
  P5dr  SX3r  1 4.300000e-01    2.530000e+00
  P5dr  SX2r  1 4.300000e-01    2.530000e+00
  P5dr  SX1r  1 4.300000e-01    2.160000e+00
  P4dr  SC6r  1 4.300000e-01    2.530000e+00
  P4dr  SC5r  1 4.300000e-01    2.320000e+00
  P4dr  SC4r  1 4.300000e-01    2.160000e+00
  P4dr  SC3r  1 4.300000e-01    1.930000e+00
  P4dr  SC2r  1 4.300000e-01    1.930000e+00
  P4dr  SC1r  1 4.300000e-01    1.730000e+00
  P4dr  SX4r  1 4.300000e-01    2.770000e+00
  P4dr  SX3r  1 4.300000e-01    2.530000e+00
  P4dr  SX2r  1 4.300000e-01    2.530000e+00
  P4dr  SX1r  1 4.300000e-01    2.320000e+00
  P3dr  SC6r  1 4.300000e-01    2.770000e+00
  P3dr  SC5r  1 4.300000e-01    2.530000e+00
  P3dr  SC4r  1 4.300000e-01    2.320000e+00
  P3dr  SC3r  1 4.300000e-01    1.930000e+00
  P3dr  SC2r  1 4.300000e-01    1.930000e+00
  P3dr  SC1r  1 4.300000e-01    1.730000e+00
  P3dr  SX4r  1 4.300000e-01    2.770000e+00
  P3dr  SX3r  1 4.300000e-01    2.770000e+00
  P3dr  SX2r  1 4.300000e-01    2.530000e+00
  P3dr  SX1r  1 4.300000e-01    2.320000e+00
  P2dr  SC6r  1 4.300000e-01    2.770000e+00
  P2dr  SC5r  1 4.300000e-01    2.530000e+00
  P2dr  SC4r  1 4.300000e-01    2.320000e+00
  P2dr  SC3r  1 4.300000e-01    2.160000e+00
  P2dr  SC2r  1 4.300000e-01    2.160000e+00
  P2dr  SC1r  1 4.300000e-01    1.930000e+00
  P2dr  SX4r  1 4.300000e-01    2.770000e+00
  P2dr  SX3r  1 4.300000e-01    2.770000e+00
  P2dr  SX2r  1 4.300000e-01    2.530000e+00
  P2dr  SX1r  1 4.300000e-01    2.320000e+00
  P1dr  SC6r  1 4.300000e-01    2.770000e+00
  P1dr  SC5r  1 4.300000e-01    2.530000e+00
  P1dr  SC4r  1 4.300000e-01    2.320000e+00
  P1dr  SC3r  1 4.300000e-01    2.160000e+00
  P1dr  SC2r  1 4.300000e-01    2.160000e+00
  P1dr  SC1r  1 4.300000e-01    1.930000e+00
  P1dr  SX4r  1 4.300000e-01    2.770000e+00
  P1dr  SX3r  1 4.300000e-01    2.770000e+00
  P1dr  SX2r  1 4.300000e-01    2.530000e+00
  P1dr  SX1r  1 4.300000e-01    2.320000e+00
  N6dr  SC6r  1 4.300000e-01    2.920000e+00
  N6dr  SC5r  1 4.300000e-01    2.770000e+00
  N6dr  SC4r  1 4.300000e-01    2.530000e+00
  N6dr  SC3r  1 4.300000e-01    2.320000e+00
  N6dr  SC2r  1 4.300000e-01    2.320000e+00
  N6dr  SC1r  1 4.300000e-01    2.160000e+00
  N6dr  SX4r  1 4.300000e-01    2.920000e+00
  N6dr  SX3r  1 4.300000e-01    2.770000e+00
  N6dr  SX2r  1 4.300000e-01    2.530000e+00
  N6dr  SX1r  1 4.300000e-01    2.320000e+00
  N5dr  SC6r  1 4.300000e-01    2.920000e+00
  N5dr  SC5r  1 4.300000e-01    2.770000e+00
  N5dr  SC4r  1 4.300000e-01    2.530000e+00
  N5dr  SC3r  1 4.300000e-01    2.530000e+00
  N5dr  SC2r  1 4.300000e-01    2.320000e+00
  N5dr  SC1r  1 4.300000e-01    2.160000e+00
  N5dr  SX4r  1 4.300000e-01    3.160000e+00
  N5dr  SX3r  1 4.300000e-01    2.920000e+00
  N5dr  SX2r  1 4.300000e-01    2.770000e+00
  N5dr  SX1r  1 4.300000e-01    2.530000e+00
  N4dr  SC6r  1 4.300000e-01    2.920000e+00
  N4dr  SC5r  1 4.300000e-01    2.770000e+00
  N4dr  SC4r  1 4.300000e-01    2.770000e+00
  N4dr  SC3r  1 4.300000e-01    2.530000e+00
  N4dr  SC2r  1 4.300000e-01    2.320000e+00
  N4dr  SC1r  1 4.300000e-01    2.160000e+00
  N4dr  SX4r  1 4.300000e-01    3.380000e+00
  N4dr  SX3r  1 4.300000e-01    3.160000e+00
  N4dr  SX2r  1 4.300000e-01    2.770000e+00
  N4dr  SX1r  1 4.300000e-01    2.530000e+00
  N3dr  SC6r  1 4.300000e-01    2.920000e+00
  N3dr  SC5r  1 4.300000e-01    2.770000e+00
  N3dr  SC4r  1 4.300000e-01    2.770000e+00
  N3dr  SC3r  1 4.300000e-01    2.530000e+00
  N3dr  SC2r  1 4.300000e-01    2.530000e+00
  N3dr  SC1r  1 4.300000e-01    2.320000e+00
  N3dr  SX4r  1 4.300000e-01    3.160000e+00
  N3dr  SX3r  1 4.300000e-01    2.920000e+00
  N3dr  SX2r  1 4.300000e-01    2.770000e+00
  N3dr  SX1r  1 4.300000e-01    2.770000e+00
  N2dr  SC6r  1 4.300000e-01    2.920000e+00
  N2dr  SC5r  1 4.300000e-01    2.770000e+00
  N2dr  SC4r  1 4.300000e-01    2.770000e+00
  N2dr  SC3r  1 4.300000e-01    2.770000e+00
  N2dr  SC2r  1 4.300000e-01    2.530000e+00
  N2dr  SC1r  1 4.300000e-01    2.320000e+00
  N2dr  SX4r  1 4.300000e-01    3.160000e+00
  N2dr  SX3r  1 4.300000e-01    2.920000e+00
  N2dr  SX2r  1 4.300000e-01    2.770000e+00
  N2dr  SX1r  1 4.300000e-01    2.770000e+00
  N1dr  SC6r  1 4.300000e-01    3.160000e+00
  N1dr  SC5r  1 4.300000e-01    2.920000e+00
  N1dr  SC4r  1 4.300000e-01    2.920000e+00
  N1dr  SC3r  1 4.300000e-01    2.770000e+00
  N1dr  SC2r  1 4.300000e-01    2.530000e+00
  N1dr  SC1r  1 4.300000e-01    2.320000e+00
  N1dr  SX4r  1 4.300000e-01    2.920000e+00
  N1dr  SX3r  1 4.300000e-01    2.920000e+00
  N1dr  SX2r  1 4.300000e-01    2.770000e+00
  N1dr  SX1r  1 4.300000e-01    2.770000e+00
  P6ar  SC6r  1 4.300000e-01    2.320000e+00
  P6ar  SC5r  1 4.300000e-01    2.160000e+00
  P6ar  SC4r  1 4.300000e-01    1.930000e+00
  P6ar  SC3r  1 4.300000e-01    1.730000e+00
  P6ar  SC2r  1 4.300000e-01    1.730000e+00
  P6ar  SC1r  1 4.730000e-01    1.280000e+00
  P6ar  SX4r  1 4.300000e-01    2.530000e+00
  P6ar  SX3r  1 4.300000e-01    2.530000e+00
  P6ar  SX2r  1 4.300000e-01    2.320000e+00
  P6ar  SX1r  1 4.300000e-01    2.160000e+00
  P5ar  SC6r  1 4.300000e-01    2.320000e+00
  P5ar  SC5r  1 4.300000e-01    2.320000e+00
  P5ar  SC4r  1 4.300000e-01    2.160000e+00
  P5ar  SC3r  1 4.300000e-01    1.930000e+00
  P5ar  SC2r  1 4.300000e-01    1.930000e+00
  P5ar  SC1r  1 4.300000e-01    1.730000e+00
  P5ar  SX4r  1 4.300000e-01    2.770000e+00
  P5ar  SX3r  1 4.300000e-01    2.530000e+00
  P5ar  SX2r  1 4.300000e-01    2.530000e+00
  P5ar  SX1r  1 4.300000e-01    2.160000e+00
  P4ar  SC6r  1 4.300000e-01    2.530000e+00
  P4ar  SC5r  1 4.300000e-01    2.320000e+00
  P4ar  SC4r  1 4.300000e-01    2.160000e+00
  P4ar  SC3r  1 4.300000e-01    1.930000e+00
  P4ar  SC2r  1 4.300000e-01    1.930000e+00
  P4ar  SC1r  1 4.300000e-01    1.730000e+00
  P4ar  SX4r  1 4.300000e-01    2.770000e+00
  P4ar  SX3r  1 4.300000e-01    2.530000e+00
  P4ar  SX2r  1 4.300000e-01    2.530000e+00
  P4ar  SX1r  1 4.300000e-01    2.320000e+00
  P3ar  SC6r  1 4.300000e-01    2.770000e+00
  P3ar  SC5r  1 4.300000e-01    2.530000e+00
  P3ar  SC4r  1 4.300000e-01    2.320000e+00
  P3ar  SC3r  1 4.300000e-01    1.930000e+00
  P3ar  SC2r  1 4.300000e-01    1.930000e+00
  P3ar  SC1r  1 4.300000e-01    1.730000e+00
  P3ar  SX4r  1 4.300000e-01    2.770000e+00
  P3ar  SX3r  1 4.300000e-01    2.770000e+00
  P3ar  SX2r  1 4.300000e-01    2.530000e+00
  P3ar  SX1r  1 4.300000e-01    2.320000e+00
  P2ar  SC6r  1 4.300000e-01    2.770000e+00
  P2ar  SC5r  1 4.300000e-01    2.530000e+00
  P2ar  SC4r  1 4.300000e-01    2.320000e+00
  P2ar  SC3r  1 4.300000e-01    2.160000e+00
  P2ar  SC2r  1 4.300000e-01    2.160000e+00
  P2ar  SC1r  1 4.300000e-01    1.930000e+00
  P2ar  SX4r  1 4.300000e-01    2.770000e+00
  P2ar  SX3r  1 4.300000e-01    2.770000e+00
  P2ar  SX2r  1 4.300000e-01    2.530000e+00
  P2ar  SX1r  1 4.300000e-01    2.320000e+00
  P1ar  SC6r  1 4.300000e-01    2.770000e+00
  P1ar  SC5r  1 4.300000e-01    2.530000e+00
  P1ar  SC4r  1 4.300000e-01    2.320000e+00
  P1ar  SC3r  1 4.300000e-01    2.160000e+00
  P1ar  SC2r  1 4.300000e-01    2.160000e+00
  P1ar  SC1r  1 4.300000e-01    1.930000e+00
  P1ar  SX4r  1 4.300000e-01    2.770000e+00
  P1ar  SX3r  1 4.300000e-01    2.770000e+00
  P1ar  SX2r  1 4.300000e-01    2.530000e+00
  P1ar  SX1r  1 4.300000e-01    2.320000e+00
  N6ar  SC6r  1 4.300000e-01    2.920000e+00
  N6ar  SC5r  1 4.300000e-01    2.770000e+00
  N6ar  SC4r  1 4.300000e-01    2.530000e+00
  N6ar  SC3r  1 4.300000e-01    2.320000e+00
  N6ar  SC2r  1 4.300000e-01    2.320000e+00
  N6ar  SC1r  1 4.300000e-01    2.160000e+00
  N6ar  SX4r  1 4.300000e-01    2.920000e+00
  N6ar  SX3r  1 4.300000e-01    2.770000e+00
  N6ar  SX2r  1 4.300000e-01    2.530000e+00
  N6ar  SX1r  1 4.300000e-01    2.320000e+00
  N5ar  SC6r  1 4.300000e-01    2.920000e+00
  N5ar  SC5r  1 4.300000e-01    2.770000e+00
  N5ar  SC4r  1 4.300000e-01    2.530000e+00
  N5ar  SC3r  1 4.300000e-01    2.530000e+00
  N5ar  SC2r  1 4.300000e-01    2.320000e+00
  N5ar  SC1r  1 4.300000e-01    2.160000e+00
  N5ar  SX4r  1 4.300000e-01    3.160000e+00
  N5ar  SX3r  1 4.300000e-01    2.920000e+00
  N5ar  SX2r  1 4.300000e-01    2.770000e+00
  N5ar  SX1r  1 4.300000e-01    2.530000e+00
  N4ar  SC6r  1 4.300000e-01    2.920000e+00
  N4ar  SC5r  1 4.300000e-01    2.770000e+00
  N4ar  SC4r  1 4.300000e-01    2.770000e+00
  N4ar  SC3r  1 4.300000e-01    2.530000e+00
  N4ar  SC2r  1 4.300000e-01    2.320000e+00
  N4ar  SC1r  1 4.300000e-01    2.160000e+00
  N4ar  SX4r  1 4.300000e-01    3.380000e+00
  N4ar  SX3r  1 4.300000e-01    3.160000e+00
  N4ar  SX2r  1 4.300000e-01    2.770000e+00
  N4ar  SX1r  1 4.300000e-01    2.530000e+00
  N3ar  SC6r  1 4.300000e-01    2.920000e+00
  N3ar  SC5r  1 4.300000e-01    2.770000e+00
  N3ar  SC4r  1 4.300000e-01    2.770000e+00
  N3ar  SC3r  1 4.300000e-01    2.530000e+00
  N3ar  SC2r  1 4.300000e-01    2.530000e+00
  N3ar  SC1r  1 4.300000e-01    2.320000e+00
  N3ar  SX4r  1 4.300000e-01    3.160000e+00
  N3ar  SX3r  1 4.300000e-01    2.920000e+00
  N3ar  SX2r  1 4.300000e-01    2.770000e+00
  N3ar  SX1r  1 4.300000e-01    2.770000e+00
  N2ar  SC6r  1 4.300000e-01    2.920000e+00
  N2ar  SC5r  1 4.300000e-01    2.770000e+00
  N2ar  SC4r  1 4.300000e-01    2.770000e+00
  N2ar  SC3r  1 4.300000e-01    2.770000e+00
  N2ar  SC2r  1 4.300000e-01    2.530000e+00
  N2ar  SC1r  1 4.300000e-01    2.320000e+00
  N2ar  SX4r  1 4.300000e-01    3.160000e+00
  N2ar  SX3r  1 4.300000e-01    2.920000e+00
  N2ar  SX2r  1 4.300000e-01    2.770000e+00
  N2ar  SX1r  1 4.300000e-01    2.770000e+00
  N1ar  SC6r  1 4.300000e-01    3.160000e+00
  N1ar  SC5r  1 4.300000e-01    2.920000e+00
  N1ar  SC4r  1 4.300000e-01    2.920000e+00
  N1ar  SC3r  1 4.300000e-01    2.770000e+00
  N1ar  SC2r  1 4.300000e-01    2.530000e+00
  N1ar  SC1r  1 4.300000e-01    2.320000e+00
  N1ar  SX4r  1 4.300000e-01    2.920000e+00
  N1ar  SX3r  1 4.300000e-01    2.920000e+00
  N1ar  SX2r  1 4.300000e-01    2.770000e+00
  N1ar  SX1r  1 4.300000e-01    2.770000e+00
   P6h  SP6h  1 4.300000e-01    4.920000e+00
   P5h  SP5h  1 4.300000e-01    4.400000e+00
   P4h  SP4h  1 4.300000e-01    4.170000e+00
   P3h  SP3h  1 4.300000e-01    3.970000e+00
   P2h  SP2h  1 4.300000e-01    3.970000e+00
   P1h  SP1h  1 4.300000e-01    3.770000e+00
   N6h  SN6h  1 4.300000e-01    3.770000e+00
   N5h  SN5h  1 4.300000e-01    3.590000e+00
   N4h  SN4h  1 4.300000e-01    3.590000e+00
   N3h  SN3h  1 4.300000e-01    3.380000e+00
   N2h  SN2h  1 4.300000e-01    3.380000e+00
   N1h  SN1h  1 4.300000e-01    3.380000e+00
   P6h  SP5h  1 4.300000e-01    4.680000e+00
   P6h  SP4h  1 4.300000e-01    4.400000e+00
   P6h  SP3h  1 4.300000e-01    4.170000e+00
   P6h  SP2h  1 4.300000e-01    4.170000e+00
   P6h  SP1h  1 4.300000e-01    3.970000e+00
   P6h  SN6h  1 4.300000e-01    3.770000e+00
   P6h  SN5h  1 4.300000e-01    3.380000e+00
   P6h  SN4h  1 4.300000e-01    3.160000e+00
   P6h  SN3h  1 4.300000e-01    2.920000e+00
   P6h  SN2h  1 4.300000e-01    2.770000e+00
   P6h  SN1h  1 4.300000e-01    2.530000e+00
   P6h SP6dh  1 4.300000e-01    4.920000e+00
   P6h SP5dh  1 4.300000e-01    4.680000e+00
   P6h SP4dh  1 4.300000e-01    4.400000e+00
   P6h SP3dh  1 4.300000e-01    4.170000e+00
   P6h SP2dh  1 4.300000e-01    4.170000e+00
   P6h SP1dh  1 4.300000e-01    3.970000e+00
   P6h SN6dh  1 4.300000e-01    3.770000e+00
   P6h SN5dh  1 4.300000e-01    3.380000e+00
   P6h SN4dh  1 4.300000e-01    3.160000e+00
   P6h SN3dh  1 4.300000e-01    2.920000e+00
   P6h SN2dh  1 4.300000e-01    2.770000e+00
   P6h SN1dh  1 4.300000e-01    2.530000e+00
   P6h SP6ah  1 4.300000e-01    4.920000e+00
   P6h SP5ah  1 4.300000e-01    4.680000e+00
   P6h SP4ah  1 4.300000e-01    4.400000e+00
   P6h SP3ah  1 4.300000e-01    4.170000e+00
   P6h SP2ah  1 4.300000e-01    4.170000e+00
   P6h SP1ah  1 4.300000e-01    3.970000e+00
   P6h SN6ah  1 4.300000e-01    3.770000e+00
   P6h SN5ah  1 4.300000e-01    3.380000e+00
   P6h SN4ah  1 4.300000e-01    3.160000e+00
   P6h SN3ah  1 4.300000e-01    2.920000e+00
   P6h SN2ah  1 4.300000e-01    2.770000e+00
   P6h SN1ah  1 4.300000e-01    2.530000e+00
   P5h  SP4h  1 4.300000e-01    4.170000e+00
   P5h  SP3h  1 4.300000e-01    3.970000e+00
   P5h  SP2h  1 4.300000e-01    3.970000e+00
   P5h  SP1h  1 4.300000e-01    3.770000e+00
   P5h  SN6h  1 4.300000e-01    3.590000e+00
   P5h  SN5h  1 4.300000e-01    3.380000e+00
   P5h  SN4h  1 4.300000e-01    3.380000e+00
   P5h  SN3h  1 4.300000e-01    2.920000e+00
   P5h  SN2h  1 4.300000e-01    2.770000e+00
   P5h  SN1h  1 4.300000e-01    2.530000e+00
   P5h SP5dh  1 4.300000e-01    4.400000e+00
   P5h SP4dh  1 4.300000e-01    4.170000e+00
   P5h SP3dh  1 4.300000e-01    3.970000e+00
   P5h SP2dh  1 4.300000e-01    3.970000e+00
   P5h SP1dh  1 4.300000e-01    3.770000e+00
   P5h SN6dh  1 4.300000e-01    3.590000e+00
   P5h SN5dh  1 4.300000e-01    3.380000e+00
   P5h SN4dh  1 4.300000e-01    3.380000e+00
   P5h SN3dh  1 4.300000e-01    2.920000e+00
   P5h SN2dh  1 4.300000e-01    2.770000e+00
   P5h SN1dh  1 4.300000e-01    2.530000e+00
   P5h SP5ah  1 4.300000e-01    4.400000e+00
   P5h SP4ah  1 4.300000e-01    4.170000e+00
   P5h SP3ah  1 4.300000e-01    3.970000e+00
   P5h SP2ah  1 4.300000e-01    3.970000e+00
   P5h SP1ah  1 4.300000e-01    3.770000e+00
   P5h SN6ah  1 4.300000e-01    3.590000e+00
   P5h SN5ah  1 4.300000e-01    3.380000e+00
   P5h SN4ah  1 4.300000e-01    3.380000e+00
   P5h SN3ah  1 4.300000e-01    2.920000e+00
   P5h SN2ah  1 4.300000e-01    2.770000e+00
   P5h SN1ah  1 4.300000e-01    2.530000e+00
   P4h  SP3h  1 4.300000e-01    3.970000e+00
   P4h  SP2h  1 4.300000e-01    3.970000e+00
   P4h  SP1h  1 4.300000e-01    3.770000e+00
   P4h  SN6h  1 4.300000e-01    3.590000e+00
   P4h  SN5h  1 4.300000e-01    3.380000e+00
   P4h  SN4h  1 4.300000e-01    3.380000e+00
   P4h  SN3h  1 4.300000e-01    3.160000e+00
   P4h  SN2h  1 4.300000e-01    2.920000e+00
   P4h  SN1h  1 4.300000e-01    2.770000e+00
   P4h SP4dh  1 4.300000e-01    4.170000e+00
   P4h SP3dh  1 4.300000e-01    3.970000e+00
   P4h SP2dh  1 4.300000e-01    3.970000e+00
   P4h SP1dh  1 4.300000e-01    3.770000e+00
   P4h SN6dh  1 4.300000e-01    3.590000e+00
   P4h SN5dh  1 4.300000e-01    3.380000e+00
   P4h SN4dh  1 4.300000e-01    3.380000e+00
   P4h SN3dh  1 4.300000e-01    3.160000e+00
   P4h SN2dh  1 4.300000e-01    2.920000e+00
   P4h SN1dh  1 4.300000e-01    2.770000e+00
   P4h SP4ah  1 4.300000e-01    4.170000e+00
   P4h SP3ah  1 4.300000e-01    3.970000e+00
   P4h SP2ah  1 4.300000e-01    3.970000e+00
   P4h SP1ah  1 4.300000e-01    3.770000e+00
   P4h SN6ah  1 4.300000e-01    3.590000e+00
   P4h SN5ah  1 4.300000e-01    3.380000e+00
   P4h SN4ah  1 4.300000e-01    3.380000e+00
   P4h SN3ah  1 4.300000e-01    3.160000e+00
   P4h SN2ah  1 4.300000e-01    2.920000e+00
   P4h SN1ah  1 4.300000e-01    2.770000e+00
   P3h  SP2h  1 4.300000e-01    3.970000e+00
   P3h  SP1h  1 4.300000e-01    3.770000e+00
   P3h  SN6h  1 4.300000e-01    3.590000e+00
   P3h  SN5h  1 4.300000e-01    3.380000e+00
   P3h  SN4h  1 4.300000e-01    3.380000e+00
   P3h  SN3h  1 4.300000e-01    3.160000e+00
   P3h  SN2h  1 4.300000e-01    3.160000e+00
   P3h  SN1h  1 4.300000e-01    2.920000e+00
   P3h SP3dh  1 4.300000e-01    3.970000e+00
   P3h SP2dh  1 4.300000e-01    3.970000e+00
   P3h SP1dh  1 4.300000e-01    3.770000e+00
   P3h SN6dh  1 4.300000e-01    3.590000e+00
   P3h SN5dh  1 4.300000e-01    3.380000e+00
   P3h SN4dh  1 4.300000e-01    3.380000e+00
   P3h SN3dh  1 4.300000e-01    3.160000e+00
   P3h SN2dh  1 4.300000e-01    3.160000e+00
   P3h SN1dh  1 4.300000e-01    2.920000e+00
   P3h SP3ah  1 4.300000e-01    3.970000e+00
   P3h SP2ah  1 4.300000e-01    3.970000e+00
   P3h SP1ah  1 4.300000e-01    3.770000e+00
   P3h SN6ah  1 4.300000e-01    3.590000e+00
   P3h SN5ah  1 4.300000e-01    3.380000e+00
   P3h SN4ah  1 4.300000e-01    3.380000e+00
   P3h SN3ah  1 4.300000e-01    3.160000e+00
   P3h SN2ah  1 4.300000e-01    3.160000e+00
   P3h SN1ah  1 4.300000e-01    2.920000e+00
   P2h  SP1h  1 4.300000e-01    3.770000e+00
   P2h  SN6h  1 4.300000e-01    3.770000e+00
   P2h  SN5h  1 4.300000e-01    3.590000e+00
   P2h  SN4h  1 4.300000e-01    3.380000e+00
   P2h  SN3h  1 4.300000e-01    3.160000e+00
   P2h  SN2h  1 4.300000e-01    3.160000e+00
   P2h  SN1h  1 4.300000e-01    3.160000e+00
   P2h SP2dh  1 4.300000e-01    3.970000e+00
   P2h SP1dh  1 4.300000e-01    3.770000e+00
   P2h SN6dh  1 4.300000e-01    3.770000e+00
   P2h SN5dh  1 4.300000e-01    3.590000e+00
   P2h SN4dh  1 4.300000e-01    3.380000e+00
   P2h SN3dh  1 4.300000e-01    3.160000e+00
   P2h SN2dh  1 4.300000e-01    3.160000e+00
   P2h SN1dh  1 4.300000e-01    3.160000e+00
   P2h SP2ah  1 4.300000e-01    3.970000e+00
   P2h SP1ah  1 4.300000e-01    3.770000e+00
   P2h SN6ah  1 4.300000e-01    3.770000e+00
   P2h SN5ah  1 4.300000e-01    3.590000e+00
   P2h SN4ah  1 4.300000e-01    3.380000e+00
   P2h SN3ah  1 4.300000e-01    3.160000e+00
   P2h SN2ah  1 4.300000e-01    3.160000e+00
   P2h SN1ah  1 4.300000e-01    3.160000e+00
   P1h  SN6h  1 4.300000e-01    3.770000e+00
   P1h  SN5h  1 4.300000e-01    3.590000e+00
   P1h  SN4h  1 4.300000e-01    3.590000e+00
   P1h  SN3h  1 4.300000e-01    3.160000e+00
   P1h  SN2h  1 4.300000e-01    3.160000e+00
   P1h  SN1h  1 4.300000e-01    3.160000e+00
   P1h SP1dh  1 4.300000e-01    3.770000e+00
   P1h SN6dh  1 4.300000e-01    3.770000e+00
   P1h SN5dh  1 4.300000e-01    3.590000e+00
   P1h SN4dh  1 4.300000e-01    3.590000e+00
   P1h SN3dh  1 4.300000e-01    3.160000e+00
   P1h SN2dh  1 4.300000e-01    3.160000e+00
   P1h SN1dh  1 4.300000e-01    3.160000e+00
   P1h SP1ah  1 4.300000e-01    3.770000e+00
   P1h SN6ah  1 4.300000e-01    3.770000e+00
   P1h SN5ah  1 4.300000e-01    3.590000e+00
   P1h SN4ah  1 4.300000e-01    3.590000e+00
   P1h SN3ah  1 4.300000e-01    3.160000e+00
   P1h SN2ah  1 4.300000e-01    3.160000e+00
   P1h SN1ah  1 4.300000e-01    3.160000e+00
   N6h  SN5h  1 4.300000e-01    3.770000e+00
   N6h  SN4h  1 4.300000e-01    3.770000e+00
   N6h  SN3h  1 4.300000e-01    3.380000e+00
   N6h  SN2h  1 4.300000e-01    3.160000e+00
   N6h  SN1h  1 4.300000e-01    3.160000e+00
   N6h SN6dh  1 4.300000e-01    3.770000e+00
   N6h SN5dh  1 4.300000e-01    3.770000e+00
   N6h SN4dh  1 4.300000e-01    3.770000e+00
   N6h SN3dh  1 4.300000e-01    3.380000e+00
   N6h SN2dh  1 4.300000e-01    3.160000e+00
   N6h SN1dh  1 4.300000e-01    3.160000e+00
   N6h SN6ah  1 4.300000e-01    3.770000e+00
   N6h SN5ah  1 4.300000e-01    3.770000e+00
   N6h SN4ah  1 4.300000e-01    3.770000e+00
   N6h SN3ah  1 4.300000e-01    3.380000e+00
   N6h SN2ah  1 4.300000e-01    3.160000e+00
   N6h SN1ah  1 4.300000e-01    3.160000e+00
   N5h  SN4h  1 4.300000e-01    3.590000e+00
   N5h  SN3h  1 4.300000e-01    3.380000e+00
   N5h  SN2h  1 4.300000e-01    3.380000e+00
   N5h  SN1h  1 4.300000e-01    3.160000e+00
   N5h SN5dh  1 4.300000e-01    3.590000e+00
   N5h SN4dh  1 4.300000e-01    3.590000e+00
   N5h SN3dh  1 4.300000e-01    3.380000e+00
   N5h SN2dh  1 4.300000e-01    3.380000e+00
   N5h SN1dh  1 4.300000e-01    3.160000e+00
   N5h SN5ah  1 4.300000e-01    3.590000e+00
   N5h SN4ah  1 4.300000e-01    3.590000e+00
   N5h SN3ah  1 4.300000e-01    3.380000e+00
   N5h SN2ah  1 4.300000e-01    3.380000e+00
   N5h SN1ah  1 4.300000e-01    3.160000e+00
   N4h  SN3h  1 4.300000e-01    3.380000e+00
   N4h  SN2h  1 4.300000e-01    3.380000e+00
   N4h  SN1h  1 4.300000e-01    3.160000e+00
   N4h SN4dh  1 4.300000e-01    3.590000e+00
   N4h SN3dh  1 4.300000e-01    3.380000e+00
   N4h SN2dh  1 4.300000e-01    3.380000e+00
   N4h SN1dh  1 4.300000e-01    3.160000e+00
   N4h SN4ah  1 4.300000e-01    3.590000e+00
   N4h SN3ah  1 4.300000e-01    3.380000e+00
   N4h SN2ah  1 4.300000e-01    3.380000e+00
   N4h SN1ah  1 4.300000e-01    3.160000e+00
   N3h  SN2h  1 4.300000e-01    3.380000e+00
   N3h  SN1h  1 4.300000e-01    3.160000e+00
   N3h SN3dh  1 4.300000e-01    3.380000e+00
   N3h SN2dh  1 4.300000e-01    3.380000e+00
   N3h SN1dh  1 4.300000e-01    3.160000e+00
   N3h SN3ah  1 4.300000e-01    3.380000e+00
   N3h SN2ah  1 4.300000e-01    3.380000e+00
   N3h SN1ah  1 4.300000e-01    3.160000e+00
   N2h  SN1h  1 4.300000e-01    3.160000e+00
   N2h SN2dh  1 4.300000e-01    3.380000e+00
   N2h SN1dh  1 4.300000e-01    3.160000e+00
   N2h SN2ah  1 4.300000e-01    3.380000e+00
   N2h SN1ah  1 4.300000e-01    3.160000e+00
   N1h SN1dh  1 4.300000e-01    3.380000e+00
   N1h SN1ah  1 4.300000e-01    3.380000e+00
  P6dh  SP5h  1 4.300000e-01    4.680000e+00
  P6dh  SP4h  1 4.300000e-01    4.400000e+00
  P6dh  SP3h  1 4.300000e-01    4.170000e+00
  P6dh  SP2h  1 4.300000e-01    4.170000e+00
  P6dh  SP1h  1 4.300000e-01    3.970000e+00
  P6dh  SN6h  1 4.300000e-01    3.770000e+00
  P6dh  SN5h  1 4.300000e-01    3.380000e+00
  P6dh  SN4h  1 4.300000e-01    3.160000e+00
  P6dh  SN3h  1 4.300000e-01    2.920000e+00
  P6dh  SN2h  1 4.300000e-01    2.770000e+00
  P6dh  SN1h  1 4.300000e-01    2.530000e+00
  P5dh  SP4h  1 4.300000e-01    4.170000e+00
  P5dh  SP3h  1 4.300000e-01    3.970000e+00
  P5dh  SP2h  1 4.300000e-01    3.970000e+00
  P5dh  SP1h  1 4.300000e-01    3.770000e+00
  P5dh  SN6h  1 4.300000e-01    3.590000e+00
  P5dh  SN5h  1 4.300000e-01    3.380000e+00
  P5dh  SN4h  1 4.300000e-01    3.380000e+00
  P5dh  SN3h  1 4.300000e-01    2.920000e+00
  P5dh  SN2h  1 4.300000e-01    2.770000e+00
  P5dh  SN1h  1 4.300000e-01    2.530000e+00
  P4dh  SP3h  1 4.300000e-01    3.970000e+00
  P4dh  SP2h  1 4.300000e-01    3.970000e+00
  P4dh  SP1h  1 4.300000e-01    3.770000e+00
  P4dh  SN6h  1 4.300000e-01    3.590000e+00
  P4dh  SN5h  1 4.300000e-01    3.380000e+00
  P4dh  SN4h  1 4.300000e-01    3.380000e+00
  P4dh  SN3h  1 4.300000e-01    3.160000e+00
  P4dh  SN2h  1 4.300000e-01    2.920000e+00
  P4dh  SN1h  1 4.300000e-01    2.770000e+00
  P3dh  SP2h  1 4.300000e-01    3.970000e+00
  P3dh  SP1h  1 4.300000e-01    3.770000e+00
  P3dh  SN6h  1 4.300000e-01    3.590000e+00
  P3dh  SN5h  1 4.300000e-01    3.380000e+00
  P3dh  SN4h  1 4.300000e-01    3.380000e+00
  P3dh  SN3h  1 4.300000e-01    3.160000e+00
  P3dh  SN2h  1 4.300000e-01    3.160000e+00
  P3dh  SN1h  1 4.300000e-01    2.920000e+00
  P2dh  SP1h  1 4.300000e-01    3.770000e+00
  P2dh  SN6h  1 4.300000e-01    3.770000e+00
  P2dh  SN5h  1 4.300000e-01    3.590000e+00
  P2dh  SN4h  1 4.300000e-01    3.380000e+00
  P2dh  SN3h  1 4.300000e-01    3.160000e+00
  P2dh  SN2h  1 4.300000e-01    3.160000e+00
  P2dh  SN1h  1 4.300000e-01    3.160000e+00
  P1dh  SN6h  1 4.300000e-01    3.770000e+00
  P1dh  SN5h  1 4.300000e-01    3.590000e+00
  P1dh  SN4h  1 4.300000e-01    3.590000e+00
  P1dh  SN3h  1 4.300000e-01    3.160000e+00
  P1dh  SN2h  1 4.300000e-01    3.160000e+00
  P1dh  SN1h  1 4.300000e-01    3.160000e+00
  N6dh  SN5h  1 4.300000e-01    3.770000e+00
  N6dh  SN4h  1 4.300000e-01    3.770000e+00
  N6dh  SN3h  1 4.300000e-01    3.380000e+00
  N6dh  SN2h  1 4.300000e-01    3.160000e+00
  N6dh  SN1h  1 4.300000e-01    3.160000e+00
  N5dh  SN4h  1 4.300000e-01    3.590000e+00
  N5dh  SN3h  1 4.300000e-01    3.380000e+00
  N5dh  SN2h  1 4.300000e-01    3.380000e+00
  N5dh  SN1h  1 4.300000e-01    3.160000e+00
  N4dh  SN3h  1 4.300000e-01    3.380000e+00
  N4dh  SN2h  1 4.300000e-01    3.380000e+00
  N4dh  SN1h  1 4.300000e-01    3.160000e+00
  N3dh  SN2h  1 4.300000e-01    3.380000e+00
  N3dh  SN1h  1 4.300000e-01    3.160000e+00
  N2dh  SN1h  1 4.300000e-01    3.160000e+00
  P6ah  SP5h  1 4.300000e-01    4.680000e+00
  P6ah  SP4h  1 4.300000e-01    4.400000e+00
  P6ah  SP3h  1 4.300000e-01    4.170000e+00
  P6ah  SP2h  1 4.300000e-01    4.170000e+00
  P6ah  SP1h  1 4.300000e-01    3.970000e+00
  P6ah  SN6h  1 4.300000e-01    3.770000e+00
  P6ah  SN5h  1 4.300000e-01    3.380000e+00
  P6ah  SN4h  1 4.300000e-01    3.160000e+00
  P6ah  SN3h  1 4.300000e-01    2.920000e+00
  P6ah  SN2h  1 4.300000e-01    2.770000e+00
  P6ah  SN1h  1 4.300000e-01    2.530000e+00
  P5ah  SP4h  1 4.300000e-01    4.170000e+00
  P5ah  SP3h  1 4.300000e-01    3.970000e+00
  P5ah  SP2h  1 4.300000e-01    3.970000e+00
  P5ah  SP1h  1 4.300000e-01    3.770000e+00
  P5ah  SN6h  1 4.300000e-01    3.590000e+00
  P5ah  SN5h  1 4.300000e-01    3.380000e+00
  P5ah  SN4h  1 4.300000e-01    3.380000e+00
  P5ah  SN3h  1 4.300000e-01    2.920000e+00
  P5ah  SN2h  1 4.300000e-01    2.770000e+00
  P5ah  SN1h  1 4.300000e-01    2.530000e+00
  P4ah  SP3h  1 4.300000e-01    3.970000e+00
  P4ah  SP2h  1 4.300000e-01    3.970000e+00
  P4ah  SP1h  1 4.300000e-01    3.770000e+00
  P4ah  SN6h  1 4.300000e-01    3.590000e+00
  P4ah  SN5h  1 4.300000e-01    3.380000e+00
  P4ah  SN4h  1 4.300000e-01    3.380000e+00
  P4ah  SN3h  1 4.300000e-01    3.160000e+00
  P4ah  SN2h  1 4.300000e-01    2.920000e+00
  P4ah  SN1h  1 4.300000e-01    2.770000e+00
  P3ah  SP2h  1 4.300000e-01    3.970000e+00
  P3ah  SP1h  1 4.300000e-01    3.770000e+00
  P3ah  SN6h  1 4.300000e-01    3.590000e+00
  P3ah  SN5h  1 4.300000e-01    3.380000e+00
  P3ah  SN4h  1 4.300000e-01    3.380000e+00
  P3ah  SN3h  1 4.300000e-01    3.160000e+00
  P3ah  SN2h  1 4.300000e-01    3.160000e+00
  P3ah  SN1h  1 4.300000e-01    2.920000e+00
  P2ah  SP1h  1 4.300000e-01    3.770000e+00
  P2ah  SN6h  1 4.300000e-01    3.770000e+00
  P2ah  SN5h  1 4.300000e-01    3.590000e+00
  P2ah  SN4h  1 4.300000e-01    3.380000e+00
  P2ah  SN3h  1 4.300000e-01    3.160000e+00
  P2ah  SN2h  1 4.300000e-01    3.160000e+00
  P2ah  SN1h  1 4.300000e-01    3.160000e+00
  P1ah  SN6h  1 4.300000e-01    3.770000e+00
  P1ah  SN5h  1 4.300000e-01    3.590000e+00
  P1ah  SN4h  1 4.300000e-01    3.590000e+00
  P1ah  SN3h  1 4.300000e-01    3.160000e+00
  P1ah  SN2h  1 4.300000e-01    3.160000e+00
  P1ah  SN1h  1 4.300000e-01    3.160000e+00
  N6ah  SN5h  1 4.300000e-01    3.770000e+00
  N6ah  SN4h  1 4.300000e-01    3.770000e+00
  N6ah  SN3h  1 4.300000e-01    3.380000e+00
  N6ah  SN2h  1 4.300000e-01    3.160000e+00
  N6ah  SN1h  1 4.300000e-01    3.160000e+00
  N5ah  SN4h  1 4.300000e-01    3.590000e+00
  N5ah  SN3h  1 4.300000e-01    3.380000e+00
  N5ah  SN2h  1 4.300000e-01    3.380000e+00
  N5ah  SN1h  1 4.300000e-01    3.160000e+00
  N4ah  SN3h  1 4.300000e-01    3.380000e+00
  N4ah  SN2h  1 4.300000e-01    3.380000e+00
  N4ah  SN1h  1 4.300000e-01    3.160000e+00
  N3ah  SN2h  1 4.300000e-01    3.380000e+00
  N3ah  SN1h  1 4.300000e-01    3.160000e+00
  N2ah  SN1h  1 4.300000e-01    3.160000e+00
   C6h  SC6h  1 4.300000e-01    3.380000e+00
   C5h  SC5h  1 4.300000e-01    3.160000e+00
   C4h  SC4h  1 4.300000e-01    3.160000e+00
   C3h  SC3h  1 4.300000e-01    3.160000e+00
   C2h  SC2h  1 4.300000e-01    3.160000e+00
   C1h  SC1h  1 4.300000e-01    3.160000e+00
   X4h  SX4h  1 4.300000e-01    3.160000e+00
   X3h  SX3h  1 4.300000e-01    3.160000e+00
   X2h  SX2h  1 4.300000e-01    3.380000e+00
   X1h  SX1h  1 4.300000e-01    3.590000e+00
  C6vh SC6vh  1 4.300000e-01    3.160000e+00
  C5vh SC5vh  1 4.300000e-01    2.920000e+00
  C4vh SC4vh  1 4.300000e-01    2.920000e+00
  C3vh SC3vh  1 4.300000e-01    2.920000e+00
  C2vh SC2vh  1 4.300000e-01    2.920000e+00
  C1vh SC1vh  1 4.300000e-01    2.920000e+00
  X4vh SX4vh  1 4.300000e-01    2.920000e+00
  X3vh SX3vh  1 4.300000e-01    2.920000e+00
  X2vh SX2vh  1 4.300000e-01    3.160000e+00
  X1vh SX1vh  1 4.300000e-01    3.380000e+00
  C6eh SC6eh  1 4.300000e-01    3.160000e+00
  C5eh SC5eh  1 4.300000e-01    2.920000e+00
  C4eh SC4eh  1 4.300000e-01    2.920000e+00
  C3eh SC3eh  1 4.300000e-01    2.920000e+00
  C2eh SC2eh  1 4.300000e-01    2.920000e+00
  C1eh SC1eh  1 4.300000e-01    2.920000e+00
  X4eh SX4eh  1 4.300000e-01    2.920000e+00
  X3eh SX3eh  1 4.300000e-01    2.920000e+00
  X2eh SX2eh  1 4.300000e-01    3.160000e+00
  X1eh SX1eh  1 4.300000e-01    3.380000e+00
   C6h  SC5h  1 4.300000e-01    3.160000e+00
   C6h  SC4h  1 4.300000e-01    3.160000e+00
   C6h  SC3h  1 4.300000e-01    2.920000e+00
   C6h  SC2h  1 4.300000e-01    2.770000e+00
   C6h  SC1h  1 4.300000e-01    2.530000e+00
   C6h  SX4h  1 4.300000e-01    3.160000e+00
   C6h  SX3h  1 4.300000e-01    3.160000e+00
   C6h  SX2h  1 4.300000e-01    3.160000e+00
   C6h  SX1h  1 4.300000e-01    3.160000e+00
   C6h SC6vh  1 4.300000e-01    3.590000e+00
   C6h SC5vh  1 4.300000e-01    3.380000e+00
   C6h SC4vh  1 4.300000e-01    3.380000e+00
   C6h SC3vh  1 4.300000e-01    3.160000e+00
   C6h SC2vh  1 4.300000e-01    2.920000e+00
   C6h SC1vh  1 4.300000e-01    2.770000e+00
   C6h SX4vh  1 4.300000e-01    3.380000e+00
   C6h SX3vh  1 4.300000e-01    3.380000e+00
   C6h SX2vh  1 4.300000e-01    3.380000e+00
   C6h SX1vh  1 4.300000e-01    3.380000e+00
   C6h SC6eh  1 4.300000e-01    3.590000e+00
   C6h SC5eh  1 4.300000e-01    3.380000e+00
   C6h SC4eh  1 4.300000e-01    3.380000e+00
   C6h SC3eh  1 4.300000e-01    3.160000e+00
   C6h SC2eh  1 4.300000e-01    2.920000e+00
   C6h SC1eh  1 4.300000e-01    2.770000e+00
   C6h SX4eh  1 4.300000e-01    3.380000e+00
   C6h SX3eh  1 4.300000e-01    3.380000e+00
   C6h SX2eh  1 4.300000e-01    3.380000e+00
   C6h SX1eh  1 4.300000e-01    3.380000e+00
   C5h  SC4h  1 4.300000e-01    3.160000e+00
   C5h  SC3h  1 4.300000e-01    2.920000e+00
   C5h  SC2h  1 4.300000e-01    2.770000e+00
   C5h  SC1h  1 4.300000e-01    2.770000e+00
   C5h  SX4h  1 4.300000e-01    2.920000e+00
   C5h  SX3h  1 4.300000e-01    2.920000e+00
   C5h  SX2h  1 4.300000e-01    2.920000e+00
   C5h  SX1h  1 4.300000e-01    3.160000e+00
   C5h SC5vh  1 4.300000e-01    3.380000e+00
   C5h SC4vh  1 4.300000e-01    3.380000e+00
   C5h SC3vh  1 4.300000e-01    3.160000e+00
   C5h SC2vh  1 4.300000e-01    2.920000e+00
   C5h SC1vh  1 4.300000e-01    2.920000e+00
   C5h SX4vh  1 4.300000e-01    3.160000e+00
   C5h SX3vh  1 4.300000e-01    3.160000e+00
   C5h SX2vh  1 4.300000e-01    3.160000e+00
   C5h SX1vh  1 4.300000e-01    3.380000e+00
   C5h SC5eh  1 4.300000e-01    3.380000e+00
   C5h SC4eh  1 4.300000e-01    3.380000e+00
   C5h SC3eh  1 4.300000e-01    3.160000e+00
   C5h SC2eh  1 4.300000e-01    2.920000e+00
   C5h SC1eh  1 4.300000e-01    2.920000e+00
   C5h SX4eh  1 4.300000e-01    3.160000e+00
   C5h SX3eh  1 4.300000e-01    3.160000e+00
   C5h SX2eh  1 4.300000e-01    3.160000e+00
   C5h SX1eh  1 4.300000e-01    3.380000e+00
   C4h  SC3h  1 4.300000e-01    3.160000e+00
   C4h  SC2h  1 4.300000e-01    2.920000e+00
   C4h  SC1h  1 4.300000e-01    2.770000e+00
   C4h  SX4h  1 4.300000e-01    2.920000e+00
   C4h  SX3h  1 4.300000e-01    2.920000e+00
   C4h  SX2h  1 4.300000e-01    2.920000e+00
   C4h  SX1h  1 4.300000e-01    3.160000e+00
   C4h SC4vh  1 4.300000e-01    3.380000e+00
   C4h SC3vh  1 4.300000e-01    3.380000e+00
   C4h SC2vh  1 4.300000e-01    3.160000e+00
   C4h SC1vh  1 4.300000e-01    2.920000e+00
   C4h SX4vh  1 4.300000e-01    3.160000e+00
   C4h SX3vh  1 4.300000e-01    3.160000e+00
   C4h SX2vh  1 4.300000e-01    3.160000e+00
   C4h SX1vh  1 4.300000e-01    3.380000e+00
   C4h SC4eh  1 4.300000e-01    3.380000e+00
   C4h SC3eh  1 4.300000e-01    3.380000e+00
   C4h SC2eh  1 4.300000e-01    3.160000e+00
   C4h SC1eh  1 4.300000e-01    2.920000e+00
   C4h SX4eh  1 4.300000e-01    3.160000e+00
   C4h SX3eh  1 4.300000e-01    3.160000e+00
   C4h SX2eh  1 4.300000e-01    3.160000e+00
   C4h SX1eh  1 4.300000e-01    3.380000e+00
   C3h  SC2h  1 4.300000e-01    3.160000e+00
   C3h  SC1h  1 4.300000e-01    3.160000e+00
   C3h  SX4h  1 4.300000e-01    2.920000e+00
   C3h  SX3h  1 4.300000e-01    2.920000e+00
   C3h  SX2h  1 4.300000e-01    2.920000e+00
   C3h  SX1h  1 4.300000e-01    3.160000e+00
   C3h SC3vh  1 4.300000e-01    3.380000e+00
   C3h SC2vh  1 4.300000e-01    3.380000e+00
   C3h SC1vh  1 4.300000e-01    3.380000e+00
   C3h SX4vh  1 4.300000e-01    3.160000e+00
   C3h SX3vh  1 4.300000e-01    3.160000e+00
   C3h SX2vh  1 4.300000e-01    3.160000e+00
   C3h SX1vh  1 4.300000e-01    3.380000e+00
   C3h SC3eh  1 4.300000e-01    3.380000e+00
   C3h SC2eh  1 4.300000e-01    3.380000e+00
   C3h SC1eh  1 4.300000e-01    3.380000e+00
   C3h SX4eh  1 4.300000e-01    3.160000e+00
   C3h SX3eh  1 4.300000e-01    3.160000e+00
   C3h SX2eh  1 4.300000e-01    3.160000e+00
   C3h SX1eh  1 4.300000e-01    3.380000e+00
   C2h  SC1h  1 4.300000e-01    3.380000e+00
   C2h  SX4h  1 4.300000e-01    2.530000e+00
   C2h  SX3h  1 4.300000e-01    2.920000e+00
   C2h  SX2h  1 4.300000e-01    2.920000e+00
   C2h  SX1h  1 4.300000e-01    2.920000e+00
   C2h SC2vh  1 4.300000e-01    3.380000e+00
   C2h SC1vh  1 4.300000e-01    3.590000e+00
   C2h SX4vh  1 4.300000e-01    2.770000e+00
   C2h SX3vh  1 4.300000e-01    3.160000e+00
   C2h SX2vh  1 4.300000e-01    3.160000e+00
   C2h SX1vh  1 4.300000e-01    3.160000e+00
   C2h SC2eh  1 4.300000e-01    3.380000e+00
   C2h SC1eh  1 4.300000e-01    3.590000e+00
   C2h SX4eh  1 4.300000e-01    2.770000e+00
   C2h SX3eh  1 4.300000e-01    3.160000e+00
   C2h SX2eh  1 4.300000e-01    3.160000e+00
   C2h SX1eh  1 4.300000e-01    3.160000e+00
   C1h  SX4h  1 4.300000e-01    2.530000e+00
   C1h  SX3h  1 4.300000e-01    2.920000e+00
   C1h  SX2h  1 4.300000e-01    2.920000e+00
   C1h  SX1h  1 4.300000e-01    2.920000e+00
   C1h SC1vh  1 4.300000e-01    3.380000e+00
   C1h SX4vh  1 4.300000e-01    2.770000e+00
   C1h SX3vh  1 4.300000e-01    3.160000e+00
   C1h SX2vh  1 4.300000e-01    3.160000e+00
   C1h SX1vh  1 4.300000e-01    3.160000e+00
   C1h SC1eh  1 4.300000e-01    3.380000e+00
   C1h SX4eh  1 4.300000e-01    2.770000e+00
   C1h SX3eh  1 4.300000e-01    3.160000e+00
   C1h SX2eh  1 4.300000e-01    3.160000e+00
   C1h SX1eh  1 4.300000e-01    3.160000e+00
   X4h  SX3h  1 4.300000e-01    3.160000e+00
   X4h  SX2h  1 4.300000e-01    3.160000e+00
   X4h  SX1h  1 4.300000e-01    3.160000e+00
   X4h SX4vh  1 4.300000e-01    3.380000e+00
   X4h SX3vh  1 4.300000e-01    3.380000e+00
   X4h SX2vh  1 4.300000e-01    3.380000e+00
   X4h SX1vh  1 4.300000e-01    3.380000e+00
   X4h SX4eh  1 4.300000e-01    3.380000e+00
   X4h SX3eh  1 4.300000e-01    3.380000e+00
   X4h SX2eh  1 4.300000e-01    3.380000e+00
   X4h SX1eh  1 4.300000e-01    3.380000e+00
   X3h  SX2h  1 4.300000e-01    3.380000e+00
   X3h  SX1h  1 4.300000e-01    3.380000e+00
   X3h SX3vh  1 4.300000e-01    3.380000e+00
   X3h SX2vh  1 4.300000e-01    3.590000e+00
   X3h SX1vh  1 4.300000e-01    3.590000e+00
   X3h SX3eh  1 4.300000e-01    3.380000e+00
   X3h SX2eh  1 4.300000e-01    3.590000e+00
   X3h SX1eh  1 4.300000e-01    3.590000e+00
   X2h  SX1h  1 4.300000e-01    3.380000e+00
   X2h SX2vh  1 4.300000e-01    3.590000e+00
   X2h SX1vh  1 4.300000e-01    3.590000e+00
   X2h SX2eh  1 4.300000e-01    3.590000e+00
   X2h SX1eh  1 4.300000e-01    3.590000e+00
   X1h SX1vh  1 4.300000e-01    3.770000e+00
   X1h SX1eh  1 4.300000e-01    3.770000e+00
  C6vh  SC5h  1 4.300000e-01    3.380000e+00
  C6vh  SC4h  1 4.300000e-01    3.380000e+00
  C6vh  SC3h  1 4.300000e-01    3.160000e+00
  C6vh  SC2h  1 4.300000e-01    2.920000e+00
  C6vh  SC1h  1 4.300000e-01    2.770000e+00
  C6vh  SX4h  1 4.300000e-01    3.380000e+00
  C6vh  SX3h  1 4.300000e-01    3.380000e+00
  C6vh  SX2h  1 4.300000e-01    3.380000e+00
  C6vh  SX1h  1 4.300000e-01    3.380000e+00
  C6vh SC5vh  1 4.300000e-01    2.920000e+00
  C6vh SC4vh  1 4.300000e-01    2.920000e+00
  C6vh SC3vh  1 4.300000e-01    2.770000e+00
  C6vh SC2vh  1 4.300000e-01    2.530000e+00
  C6vh SC1vh  1 4.300000e-01    2.320000e+00
  C6vh SX4vh  1 4.300000e-01    2.920000e+00
  C6vh SX3vh  1 4.300000e-01    2.920000e+00
  C6vh SX2vh  1 4.300000e-01    2.920000e+00
  C6vh SX1vh  1 4.300000e-01    2.920000e+00
  C5vh  SC4h  1 4.300000e-01    3.380000e+00
  C5vh  SC3h  1 4.300000e-01    3.160000e+00
  C5vh  SC2h  1 4.300000e-01    2.920000e+00
  C5vh  SC1h  1 4.300000e-01    2.920000e+00
  C5vh  SX4h  1 4.300000e-01    3.160000e+00
  C5vh  SX3h  1 4.300000e-01    3.160000e+00
  C5vh  SX2h  1 4.300000e-01    3.160000e+00
  C5vh  SX1h  1 4.300000e-01    3.380000e+00
  C5vh SC4vh  1 4.300000e-01    2.920000e+00
  C5vh SC3vh  1 4.300000e-01    2.770000e+00
  C5vh SC2vh  1 4.300000e-01    2.530000e+00
  C5vh SC1vh  1 4.300000e-01    2.530000e+00
  C5vh SX4vh  1 4.300000e-01    2.770000e+00
  C5vh SX3vh  1 4.300000e-01    2.770000e+00
  C5vh SX2vh  1 4.300000e-01    2.770000e+00
  C5vh SX1vh  1 4.300000e-01    2.920000e+00
  C4vh  SC3h  1 4.300000e-01    3.380000e+00
  C4vh  SC2h  1 4.300000e-01    3.160000e+00
  C4vh  SC1h  1 4.300000e-01    2.920000e+00
  C4vh  SX4h  1 4.300000e-01    3.160000e+00
  C4vh  SX3h  1 4.300000e-01    3.160000e+00
  C4vh  SX2h  1 4.300000e-01    3.160000e+00
  C4vh  SX1h  1 4.300000e-01    3.380000e+00
  C4vh SC3vh  1 4.300000e-01    2.920000e+00
  C4vh SC2vh  1 4.300000e-01    2.770000e+00
  C4vh SC1vh  1 4.300000e-01    2.530000e+00
  C4vh SX4vh  1 4.300000e-01    2.770000e+00
  C4vh SX3vh  1 4.300000e-01    2.770000e+00
  C4vh SX2vh  1 4.300000e-01    2.770000e+00
  C4vh SX1vh  1 4.300000e-01    2.920000e+00
  C3vh  SC2h  1 4.300000e-01    3.380000e+00
  C3vh  SC1h  1 4.300000e-01    3.380000e+00
  C3vh  SX4h  1 4.300000e-01    3.160000e+00
  C3vh  SX3h  1 4.300000e-01    3.160000e+00
  C3vh  SX2h  1 4.300000e-01    3.160000e+00
  C3vh  SX1h  1 4.300000e-01    3.380000e+00
  C3vh SC2vh  1 4.300000e-01    2.920000e+00
  C3vh SC1vh  1 4.300000e-01    2.920000e+00
  C3vh SX4vh  1 4.300000e-01    2.770000e+00
  C3vh SX3vh  1 4.300000e-01    2.770000e+00
  C3vh SX2vh  1 4.300000e-01    2.770000e+00
  C3vh SX1vh  1 4.300000e-01    2.920000e+00
  C2vh  SC1h  1 4.300000e-01    3.590000e+00
  C2vh  SX4h  1 4.300000e-01    2.770000e+00
  C2vh  SX3h  1 4.300000e-01    3.160000e+00
  C2vh  SX2h  1 4.300000e-01    3.160000e+00
  C2vh  SX1h  1 4.300000e-01    3.160000e+00
  C2vh SC1vh  1 4.300000e-01    3.160000e+00
  C2vh SX4vh  1 4.300000e-01    2.320000e+00
  C2vh SX3vh  1 4.300000e-01    2.770000e+00
  C2vh SX2vh  1 4.300000e-01    2.770000e+00
  C2vh SX1vh  1 4.300000e-01    2.770000e+00
  C1vh  SX4h  1 4.300000e-01    2.770000e+00
  C1vh  SX3h  1 4.300000e-01    3.160000e+00
  C1vh  SX2h  1 4.300000e-01    3.160000e+00
  C1vh  SX1h  1 4.300000e-01    3.160000e+00
  C1vh SX4vh  1 4.300000e-01    2.320000e+00
  C1vh SX3vh  1 4.300000e-01    2.770000e+00
  C1vh SX2vh  1 4.300000e-01    2.770000e+00
  C1vh SX1vh  1 4.300000e-01    2.770000e+00
  X4vh  SX3h  1 4.300000e-01    3.380000e+00
  X4vh  SX2h  1 4.300000e-01    3.380000e+00
  X4vh  SX1h  1 4.300000e-01    3.380000e+00
  X4vh SX3vh  1 4.300000e-01    2.920000e+00
  X4vh SX2vh  1 4.300000e-01    2.920000e+00
  X4vh SX1vh  1 4.300000e-01    2.920000e+00
  X3vh  SX2h  1 4.300000e-01    3.590000e+00
  X3vh  SX1h  1 4.300000e-01    3.590000e+00
  X3vh SX2vh  1 4.300000e-01    3.160000e+00
  X3vh SX1vh  1 4.300000e-01    3.160000e+00
  X2vh  SX1h  1 4.300000e-01    3.590000e+00
  X2vh SX1vh  1 4.300000e-01    3.160000e+00
  C6eh  SC5h  1 4.300000e-01    3.380000e+00
  C6eh  SC4h  1 4.300000e-01    3.380000e+00
  C6eh  SC3h  1 4.300000e-01    3.160000e+00
  C6eh  SC2h  1 4.300000e-01    2.920000e+00
  C6eh  SC1h  1 4.300000e-01    2.770000e+00
  C6eh  SX4h  1 4.300000e-01    3.380000e+00
  C6eh  SX3h  1 4.300000e-01    3.380000e+00
  C6eh  SX2h  1 4.300000e-01    3.380000e+00
  C6eh  SX1h  1 4.300000e-01    3.380000e+00
  C6eh SC5eh  1 4.300000e-01    2.920000e+00
  C6eh SC4eh  1 4.300000e-01    2.920000e+00
  C6eh SC3eh  1 4.300000e-01    2.770000e+00
  C6eh SC2eh  1 4.300000e-01    2.530000e+00
  C6eh SC1eh  1 4.300000e-01    2.320000e+00
  C6eh SX4eh  1 4.300000e-01    2.920000e+00
  C6eh SX3eh  1 4.300000e-01    2.920000e+00
  C6eh SX2eh  1 4.300000e-01    2.920000e+00
  C6eh SX1eh  1 4.300000e-01    2.920000e+00
  C5eh  SC4h  1 4.300000e-01    3.380000e+00
  C5eh  SC3h  1 4.300000e-01    3.160000e+00
  C5eh  SC2h  1 4.300000e-01    2.920000e+00
  C5eh  SC1h  1 4.300000e-01    2.920000e+00
  C5eh  SX4h  1 4.300000e-01    3.160000e+00
  C5eh  SX3h  1 4.300000e-01    3.160000e+00
  C5eh  SX2h  1 4.300000e-01    3.160000e+00
  C5eh  SX1h  1 4.300000e-01    3.380000e+00
  C5eh SC4eh  1 4.300000e-01    2.920000e+00
  C5eh SC3eh  1 4.300000e-01    2.770000e+00
  C5eh SC2eh  1 4.300000e-01    2.530000e+00
  C5eh SC1eh  1 4.300000e-01    2.530000e+00
  C5eh SX4eh  1 4.300000e-01    2.770000e+00
  C5eh SX3eh  1 4.300000e-01    2.770000e+00
  C5eh SX2eh  1 4.300000e-01    2.770000e+00
  C5eh SX1eh  1 4.300000e-01    2.920000e+00
  C4eh  SC3h  1 4.300000e-01    3.380000e+00
  C4eh  SC2h  1 4.300000e-01    3.160000e+00
  C4eh  SC1h  1 4.300000e-01    2.920000e+00
  C4eh  SX4h  1 4.300000e-01    3.160000e+00
  C4eh  SX3h  1 4.300000e-01    3.160000e+00
  C4eh  SX2h  1 4.300000e-01    3.160000e+00
  C4eh  SX1h  1 4.300000e-01    3.380000e+00
  C4eh SC3eh  1 4.300000e-01    2.920000e+00
  C4eh SC2eh  1 4.300000e-01    2.770000e+00
  C4eh SC1eh  1 4.300000e-01    2.530000e+00
  C4eh SX4eh  1 4.300000e-01    2.770000e+00
  C4eh SX3eh  1 4.300000e-01    2.770000e+00
  C4eh SX2eh  1 4.300000e-01    2.770000e+00
  C4eh SX1eh  1 4.300000e-01    2.920000e+00
  C3eh  SC2h  1 4.300000e-01    3.380000e+00
  C3eh  SC1h  1 4.300000e-01    3.380000e+00
  C3eh  SX4h  1 4.300000e-01    3.160000e+00
  C3eh  SX3h  1 4.300000e-01    3.160000e+00
  C3eh  SX2h  1 4.300000e-01    3.160000e+00
  C3eh  SX1h  1 4.300000e-01    3.380000e+00
  C3eh SC2eh  1 4.300000e-01    2.920000e+00
  C3eh SC1eh  1 4.300000e-01    2.920000e+00
  C3eh SX4eh  1 4.300000e-01    2.770000e+00
  C3eh SX3eh  1 4.300000e-01    2.770000e+00
  C3eh SX2eh  1 4.300000e-01    2.770000e+00
  C3eh SX1eh  1 4.300000e-01    2.920000e+00
  C2eh  SC1h  1 4.300000e-01    3.590000e+00
  C2eh  SX4h  1 4.300000e-01    2.770000e+00
  C2eh  SX3h  1 4.300000e-01    3.160000e+00
  C2eh  SX2h  1 4.300000e-01    3.160000e+00
  C2eh  SX1h  1 4.300000e-01    3.160000e+00
  C2eh SC1eh  1 4.300000e-01    3.160000e+00
  C2eh SX4eh  1 4.300000e-01    2.320000e+00
  C2eh SX3eh  1 4.300000e-01    2.770000e+00
  C2eh SX2eh  1 4.300000e-01    2.770000e+00
  C2eh SX1eh  1 4.300000e-01    2.770000e+00
  C1eh  SX4h  1 4.300000e-01    2.770000e+00
  C1eh  SX3h  1 4.300000e-01    3.160000e+00
  C1eh  SX2h  1 4.300000e-01    3.160000e+00
  C1eh  SX1h  1 4.300000e-01    3.160000e+00
  C1eh SX4eh  1 4.300000e-01    2.320000e+00
  C1eh SX3eh  1 4.300000e-01    2.770000e+00
  C1eh SX2eh  1 4.300000e-01    2.770000e+00
  C1eh SX1eh  1 4.300000e-01    2.770000e+00
  X4eh  SX3h  1 4.300000e-01    3.380000e+00
  X4eh  SX2h  1 4.300000e-01    3.380000e+00
  X4eh  SX1h  1 4.300000e-01    3.380000e+00
  X4eh SX3eh  1 4.300000e-01    2.920000e+00
  X4eh SX2eh  1 4.300000e-01    2.920000e+00
  X4eh SX1eh  1 4.300000e-01    2.920000e+00
  X3eh  SX2h  1 4.300000e-01    3.590000e+00
  X3eh  SX1h  1 4.300000e-01    3.590000e+00
  X3eh SX2eh  1 4.300000e-01    3.160000e+00
  X3eh SX1eh  1 4.300000e-01    3.160000e+00
  X2eh  SX1h  1 4.300000e-01    3.590000e+00
  X2eh SX1eh  1 4.300000e-01    3.160000e+00
   P6h  SC6h  1 4.300000e-01    2.320000e+00
   P6h  SC5h  1 4.300000e-01    2.160000e+00
   P6h  SC4h  1 4.300000e-01    1.930000e+00
   P6h  SC3h  1 4.300000e-01    1.730000e+00
   P6h  SC2h  1 4.300000e-01    1.730000e+00
   P6h  SC1h  1 4.730000e-01    1.280000e+00
   P6h  SX4h  1 4.300000e-01    2.530000e+00
   P6h  SX3h  1 4.300000e-01    2.530000e+00
   P6h  SX2h  1 4.300000e-01    2.320000e+00
   P6h  SX1h  1 4.300000e-01    2.160000e+00
   P6h SC6vh  1 4.300000e-01    2.530000e+00
   P6h SC5vh  1 4.300000e-01    2.320000e+00
   P6h SC4vh  1 4.300000e-01    2.160000e+00
   P6h SC3vh  1 4.300000e-01    1.930000e+00
   P6h SC2vh  1 4.300000e-01    1.930000e+00
   P6h SC1vh  1 4.430000e-01    1.480000e+00
   P6h SX4vh  1 4.300000e-01    2.770000e+00
   P6h SX3vh  1 4.300000e-01    2.770000e+00
   P6h SX2vh  1 4.300000e-01    2.530000e+00
   P6h SX1vh  1 4.300000e-01    2.320000e+00
   P6h SC6eh  1 4.300000e-01    2.530000e+00
   P6h SC5eh  1 4.300000e-01    2.320000e+00
   P6h SC4eh  1 4.300000e-01    2.160000e+00
   P6h SC3eh  1 4.300000e-01    1.930000e+00
   P6h SC2eh  1 4.300000e-01    1.930000e+00
   P6h SC1eh  1 4.430000e-01    1.480000e+00
   P6h SX4eh  1 4.300000e-01    2.770000e+00
   P6h SX3eh  1 4.300000e-01    2.770000e+00
   P6h SX2eh  1 4.300000e-01    2.530000e+00
   P6h SX1eh  1 4.300000e-01    2.320000e+00
   P5h  SC6h  1 4.300000e-01    2.320000e+00
   P5h  SC5h  1 4.300000e-01    2.320000e+00
   P5h  SC4h  1 4.300000e-01    2.160000e+00
   P5h  SC3h  1 4.300000e-01    1.930000e+00
   P5h  SC2h  1 4.300000e-01    1.930000e+00
   P5h  SC1h  1 4.300000e-01    1.730000e+00
   P5h  SX4h  1 4.300000e-01    2.770000e+00
   P5h  SX3h  1 4.300000e-01    2.530000e+00
   P5h  SX2h  1 4.300000e-01    2.530000e+00
   P5h  SX1h  1 4.300000e-01    2.160000e+00
   P5h SC6vh  1 4.300000e-01    2.530000e+00
   P5h SC5vh  1 4.300000e-01    2.530000e+00
   P5h SC4vh  1 4.300000e-01    2.320000e+00
   P5h SC3vh  1 4.300000e-01    2.160000e+00
   P5h SC2vh  1 4.300000e-01    2.160000e+00
   P5h SC1vh  1 4.300000e-01    1.930000e+00
   P5h SX4vh  1 4.300000e-01    2.920000e+00
   P5h SX3vh  1 4.300000e-01    2.770000e+00
   P5h SX2vh  1 4.300000e-01    2.770000e+00
   P5h SX1vh  1 4.300000e-01    2.320000e+00
   P5h SC6eh  1 4.300000e-01    2.530000e+00
   P5h SC5eh  1 4.300000e-01    2.530000e+00
   P5h SC4eh  1 4.300000e-01    2.320000e+00
   P5h SC3eh  1 4.300000e-01    2.160000e+00
   P5h SC2eh  1 4.300000e-01    2.160000e+00
   P5h SC1eh  1 4.300000e-01    1.930000e+00
   P5h SX4eh  1 4.300000e-01    2.920000e+00
   P5h SX3eh  1 4.300000e-01    2.770000e+00
   P5h SX2eh  1 4.300000e-01    2.770000e+00
   P5h SX1eh  1 4.300000e-01    2.320000e+00
   P4h  SC6h  1 4.300000e-01    2.530000e+00
   P4h  SC5h  1 4.300000e-01    2.320000e+00
   P4h  SC4h  1 4.300000e-01    2.160000e+00
   P4h  SC3h  1 4.300000e-01    1.930000e+00
   P4h  SC2h  1 4.300000e-01    1.930000e+00
   P4h  SC1h  1 4.300000e-01    1.730000e+00
   P4h  SX4h  1 4.300000e-01    2.770000e+00
   P4h  SX3h  1 4.300000e-01    2.530000e+00
   P4h  SX2h  1 4.300000e-01    2.530000e+00
   P4h  SX1h  1 4.300000e-01    2.320000e+00
   P4h SC6vh  1 4.300000e-01    2.770000e+00
   P4h SC5vh  1 4.300000e-01    2.530000e+00
   P4h SC4vh  1 4.300000e-01    2.320000e+00
   P4h SC3vh  1 4.300000e-01    2.160000e+00
   P4h SC2vh  1 4.300000e-01    2.160000e+00
   P4h SC1vh  1 4.300000e-01    1.930000e+00
   P4h SX4vh  1 4.300000e-01    2.920000e+00
   P4h SX3vh  1 4.300000e-01    2.770000e+00
   P4h SX2vh  1 4.300000e-01    2.770000e+00
   P4h SX1vh  1 4.300000e-01    2.530000e+00
   P4h SC6eh  1 4.300000e-01    2.770000e+00
   P4h SC5eh  1 4.300000e-01    2.530000e+00
   P4h SC4eh  1 4.300000e-01    2.320000e+00
   P4h SC3eh  1 4.300000e-01    2.160000e+00
   P4h SC2eh  1 4.300000e-01    2.160000e+00
   P4h SC1eh  1 4.300000e-01    1.930000e+00
   P4h SX4eh  1 4.300000e-01    2.920000e+00
   P4h SX3eh  1 4.300000e-01    2.770000e+00
   P4h SX2eh  1 4.300000e-01    2.770000e+00
   P4h SX1eh  1 4.300000e-01    2.530000e+00
   P3h  SC6h  1 4.300000e-01    2.770000e+00
   P3h  SC5h  1 4.300000e-01    2.530000e+00
   P3h  SC4h  1 4.300000e-01    2.320000e+00
   P3h  SC3h  1 4.300000e-01    1.930000e+00
   P3h  SC2h  1 4.300000e-01    1.930000e+00
   P3h  SC1h  1 4.300000e-01    1.730000e+00
   P3h  SX4h  1 4.300000e-01    2.770000e+00
   P3h  SX3h  1 4.300000e-01    2.770000e+00
   P3h  SX2h  1 4.300000e-01    2.530000e+00
   P3h  SX1h  1 4.300000e-01    2.320000e+00
   P3h SC6vh  1 4.300000e-01    2.920000e+00
   P3h SC5vh  1 4.300000e-01    2.770000e+00
   P3h SC4vh  1 4.300000e-01    2.530000e+00
   P3h SC3vh  1 4.300000e-01    2.160000e+00
   P3h SC2vh  1 4.300000e-01    2.160000e+00
   P3h SC1vh  1 4.300000e-01    1.930000e+00
   P3h SX4vh  1 4.300000e-01    2.920000e+00
   P3h SX3vh  1 4.300000e-01    2.920000e+00
   P3h SX2vh  1 4.300000e-01    2.770000e+00
   P3h SX1vh  1 4.300000e-01    2.530000e+00
   P3h SC6eh  1 4.300000e-01    2.920000e+00
   P3h SC5eh  1 4.300000e-01    2.770000e+00
   P3h SC4eh  1 4.300000e-01    2.530000e+00
   P3h SC3eh  1 4.300000e-01    2.160000e+00
   P3h SC2eh  1 4.300000e-01    2.160000e+00
   P3h SC1eh  1 4.300000e-01    1.930000e+00
   P3h SX4eh  1 4.300000e-01    2.920000e+00
   P3h SX3eh  1 4.300000e-01    2.920000e+00
   P3h SX2eh  1 4.300000e-01    2.770000e+00
   P3h SX1eh  1 4.300000e-01    2.530000e+00
   P2h  SC6h  1 4.300000e-01    2.770000e+00
   P2h  SC5h  1 4.300000e-01    2.530000e+00
   P2h  SC4h  1 4.300000e-01    2.320000e+00
   P2h  SC3h  1 4.300000e-01    2.160000e+00
   P2h  SC2h  1 4.300000e-01    2.160000e+00
   P2h  SC1h  1 4.300000e-01    1.930000e+00
   P2h  SX4h  1 4.300000e-01    2.770000e+00
   P2h  SX3h  1 4.300000e-01    2.770000e+00
   P2h  SX2h  1 4.300000e-01    2.530000e+00
   P2h  SX1h  1 4.300000e-01    2.320000e+00
   P2h SC6vh  1 4.300000e-01    2.920000e+00
   P2h SC5vh  1 4.300000e-01    2.770000e+00
   P2h SC4vh  1 4.300000e-01    2.530000e+00
   P2h SC3vh  1 4.300000e-01    2.320000e+00
   P2h SC2vh  1 4.300000e-01    2.320000e+00
   P2h SC1vh  1 4.300000e-01    2.160000e+00
   P2h SX4vh  1 4.300000e-01    2.920000e+00
   P2h SX3vh  1 4.300000e-01    2.920000e+00
   P2h SX2vh  1 4.300000e-01    2.770000e+00
   P2h SX1vh  1 4.300000e-01    2.530000e+00
   P2h SC6eh  1 4.300000e-01    2.920000e+00
   P2h SC5eh  1 4.300000e-01    2.770000e+00
   P2h SC4eh  1 4.300000e-01    2.530000e+00
   P2h SC3eh  1 4.300000e-01    2.320000e+00
   P2h SC2eh  1 4.300000e-01    2.320000e+00
   P2h SC1eh  1 4.300000e-01    2.160000e+00
   P2h SX4eh  1 4.300000e-01    2.920000e+00
   P2h SX3eh  1 4.300000e-01    2.920000e+00
   P2h SX2eh  1 4.300000e-01    2.770000e+00
   P2h SX1eh  1 4.300000e-01    2.530000e+00
   P1h  SC6h  1 4.300000e-01    2.770000e+00
   P1h  SC5h  1 4.300000e-01    2.530000e+00
   P1h  SC4h  1 4.300000e-01    2.320000e+00
   P1h  SC3h  1 4.300000e-01    2.160000e+00
   P1h  SC2h  1 4.300000e-01    2.160000e+00
   P1h  SC1h  1 4.300000e-01    1.930000e+00
   P1h  SX4h  1 4.300000e-01    2.770000e+00
   P1h  SX3h  1 4.300000e-01    2.770000e+00
   P1h  SX2h  1 4.300000e-01    2.530000e+00
   P1h  SX1h  1 4.300000e-01    2.320000e+00
   P1h SC6vh  1 4.300000e-01    2.920000e+00
   P1h SC5vh  1 4.300000e-01    2.770000e+00
   P1h SC4vh  1 4.300000e-01    2.530000e+00
   P1h SC3vh  1 4.300000e-01    2.320000e+00
   P1h SC2vh  1 4.300000e-01    2.320000e+00
   P1h SC1vh  1 4.300000e-01    2.160000e+00
   P1h SX4vh  1 4.300000e-01    2.920000e+00
   P1h SX3vh  1 4.300000e-01    2.920000e+00
   P1h SX2vh  1 4.300000e-01    2.770000e+00
   P1h SX1vh  1 4.300000e-01    2.530000e+00
   P1h SC6eh  1 4.300000e-01    2.920000e+00
   P1h SC5eh  1 4.300000e-01    2.770000e+00
   P1h SC4eh  1 4.300000e-01    2.530000e+00
   P1h SC3eh  1 4.300000e-01    2.320000e+00
   P1h SC2eh  1 4.300000e-01    2.320000e+00
   P1h SC1eh  1 4.300000e-01    2.160000e+00
   P1h SX4eh  1 4.300000e-01    2.920000e+00
   P1h SX3eh  1 4.300000e-01    2.920000e+00
   P1h SX2eh  1 4.300000e-01    2.770000e+00
   P1h SX1eh  1 4.300000e-01    2.530000e+00
   N6h  SC6h  1 4.300000e-01    2.920000e+00
   N6h  SC5h  1 4.300000e-01    2.770000e+00
   N6h  SC4h  1 4.300000e-01    2.530000e+00
   N6h  SC3h  1 4.300000e-01    2.320000e+00
   N6h  SC2h  1 4.300000e-01    2.320000e+00
   N6h  SC1h  1 4.300000e-01    2.160000e+00
   N6h  SX4h  1 4.300000e-01    2.920000e+00
   N6h  SX3h  1 4.300000e-01    2.770000e+00
   N6h  SX2h  1 4.300000e-01    2.530000e+00
   N6h  SX1h  1 4.300000e-01    2.320000e+00
   N6h SC6vh  1 4.300000e-01    3.160000e+00
   N6h SC5vh  1 4.300000e-01    2.920000e+00
   N6h SC4vh  1 4.300000e-01    2.770000e+00
   N6h SC3vh  1 4.300000e-01    2.530000e+00
   N6h SC2vh  1 4.300000e-01    2.530000e+00
   N6h SC1vh  1 4.300000e-01    2.320000e+00
   N6h SX4vh  1 4.300000e-01    3.160000e+00
   N6h SX3vh  1 4.300000e-01    2.920000e+00
   N6h SX2vh  1 4.300000e-01    2.770000e+00
   N6h SX1vh  1 4.300000e-01    2.530000e+00
   N6h SC6eh  1 4.300000e-01    3.160000e+00
   N6h SC5eh  1 4.300000e-01    2.920000e+00
   N6h SC4eh  1 4.300000e-01    2.770000e+00
   N6h SC3eh  1 4.300000e-01    2.530000e+00
   N6h SC2eh  1 4.300000e-01    2.530000e+00
   N6h SC1eh  1 4.300000e-01    2.320000e+00
   N6h SX4eh  1 4.300000e-01    3.160000e+00
   N6h SX3eh  1 4.300000e-01    2.920000e+00
   N6h SX2eh  1 4.300000e-01    2.770000e+00
   N6h SX1eh  1 4.300000e-01    2.530000e+00
   N5h  SC6h  1 4.300000e-01    2.920000e+00
   N5h  SC5h  1 4.300000e-01    2.770000e+00
   N5h  SC4h  1 4.300000e-01    2.530000e+00
   N5h  SC3h  1 4.300000e-01    2.530000e+00
   N5h  SC2h  1 4.300000e-01    2.320000e+00
   N5h  SC1h  1 4.300000e-01    2.160000e+00
   N5h  SX4h  1 4.300000e-01    3.160000e+00
   N5h  SX3h  1 4.300000e-01    2.920000e+00
   N5h  SX2h  1 4.300000e-01    2.770000e+00
   N5h  SX1h  1 4.300000e-01    2.530000e+00
   N5h SC6vh  1 4.300000e-01    3.160000e+00
   N5h SC5vh  1 4.300000e-01    2.920000e+00
   N5h SC4vh  1 4.300000e-01    2.770000e+00
   N5h SC3vh  1 4.300000e-01    2.770000e+00
   N5h SC2vh  1 4.300000e-01    2.530000e+00
   N5h SC1vh  1 4.300000e-01    2.320000e+00
   N5h SX4vh  1 4.300000e-01    3.380000e+00
   N5h SX3vh  1 4.300000e-01    3.160000e+00
   N5h SX2vh  1 4.300000e-01    2.920000e+00
   N5h SX1vh  1 4.300000e-01    2.770000e+00
   N5h SC6eh  1 4.300000e-01    3.160000e+00
   N5h SC5eh  1 4.300000e-01    2.920000e+00
   N5h SC4eh  1 4.300000e-01    2.770000e+00
   N5h SC3eh  1 4.300000e-01    2.770000e+00
   N5h SC2eh  1 4.300000e-01    2.530000e+00
   N5h SC1eh  1 4.300000e-01    2.320000e+00
   N5h SX4eh  1 4.300000e-01    3.380000e+00
   N5h SX3eh  1 4.300000e-01    3.160000e+00
   N5h SX2eh  1 4.300000e-01    2.920000e+00
   N5h SX1eh  1 4.300000e-01    2.770000e+00
   N4h  SC6h  1 4.300000e-01    2.920000e+00
   N4h  SC5h  1 4.300000e-01    2.770000e+00
   N4h  SC4h  1 4.300000e-01    2.770000e+00
   N4h  SC3h  1 4.300000e-01    2.530000e+00
   N4h  SC2h  1 4.300000e-01    2.320000e+00
   N4h  SC1h  1 4.300000e-01    2.160000e+00
   N4h  SX4h  1 4.300000e-01    3.380000e+00
   N4h  SX3h  1 4.300000e-01    3.160000e+00
   N4h  SX2h  1 4.300000e-01    2.770000e+00
   N4h  SX1h  1 4.300000e-01    2.530000e+00
   N4h SC6vh  1 4.300000e-01    3.160000e+00
   N4h SC5vh  1 4.300000e-01    2.920000e+00
   N4h SC4vh  1 4.300000e-01    2.920000e+00
   N4h SC3vh  1 4.300000e-01    2.770000e+00
   N4h SC2vh  1 4.300000e-01    2.530000e+00
   N4h SC1vh  1 4.300000e-01    2.320000e+00
   N4h SX4vh  1 4.300000e-01    3.590000e+00
   N4h SX3vh  1 4.300000e-01    3.380000e+00
   N4h SX2vh  1 4.300000e-01    2.920000e+00
   N4h SX1vh  1 4.300000e-01    2.770000e+00
   N4h SC6eh  1 4.300000e-01    3.160000e+00
   N4h SC5eh  1 4.300000e-01    2.920000e+00
   N4h SC4eh  1 4.300000e-01    2.920000e+00
   N4h SC3eh  1 4.300000e-01    2.770000e+00
   N4h SC2eh  1 4.300000e-01    2.530000e+00
   N4h SC1eh  1 4.300000e-01    2.320000e+00
   N4h SX4eh  1 4.300000e-01    3.590000e+00
   N4h SX3eh  1 4.300000e-01    3.380000e+00
   N4h SX2eh  1 4.300000e-01    2.920000e+00
   N4h SX1eh  1 4.300000e-01    2.770000e+00
   N3h  SC6h  1 4.300000e-01    2.920000e+00
   N3h  SC5h  1 4.300000e-01    2.770000e+00
   N3h  SC4h  1 4.300000e-01    2.770000e+00
   N3h  SC3h  1 4.300000e-01    2.530000e+00
   N3h  SC2h  1 4.300000e-01    2.530000e+00
   N3h  SC1h  1 4.300000e-01    2.320000e+00
   N3h  SX4h  1 4.300000e-01    3.160000e+00
   N3h  SX3h  1 4.300000e-01    2.920000e+00
   N3h  SX2h  1 4.300000e-01    2.770000e+00
   N3h  SX1h  1 4.300000e-01    2.770000e+00
   N3h SC6vh  1 4.300000e-01    3.160000e+00
   N3h SC5vh  1 4.300000e-01    2.920000e+00
   N3h SC4vh  1 4.300000e-01    2.920000e+00
   N3h SC3vh  1 4.300000e-01    2.770000e+00
   N3h SC2vh  1 4.300000e-01    2.770000e+00
   N3h SC1vh  1 4.300000e-01    2.530000e+00
   N3h SX4vh  1 4.300000e-01    3.380000e+00
   N3h SX3vh  1 4.300000e-01    3.160000e+00
   N3h SX2vh  1 4.300000e-01    2.920000e+00
   N3h SX1vh  1 4.300000e-01    2.920000e+00
   N3h SC6eh  1 4.300000e-01    3.160000e+00
   N3h SC5eh  1 4.300000e-01    2.920000e+00
   N3h SC4eh  1 4.300000e-01    2.920000e+00
   N3h SC3eh  1 4.300000e-01    2.770000e+00
   N3h SC2eh  1 4.300000e-01    2.770000e+00
   N3h SC1eh  1 4.300000e-01    2.530000e+00
   N3h SX4eh  1 4.300000e-01    3.380000e+00
   N3h SX3eh  1 4.300000e-01    3.160000e+00
   N3h SX2eh  1 4.300000e-01    2.920000e+00
   N3h SX1eh  1 4.300000e-01    2.920000e+00
   N2h  SC6h  1 4.300000e-01    2.920000e+00
   N2h  SC5h  1 4.300000e-01    2.770000e+00
   N2h  SC4h  1 4.300000e-01    2.770000e+00
   N2h  SC3h  1 4.300000e-01    2.770000e+00
   N2h  SC2h  1 4.300000e-01    2.530000e+00
   N2h  SC1h  1 4.300000e-01    2.320000e+00
   N2h  SX4h  1 4.300000e-01    3.160000e+00
   N2h  SX3h  1 4.300000e-01    2.920000e+00
   N2h  SX2h  1 4.300000e-01    2.770000e+00
   N2h  SX1h  1 4.300000e-01    2.770000e+00
   N2h SC6vh  1 4.300000e-01    3.160000e+00
   N2h SC5vh  1 4.300000e-01    2.920000e+00
   N2h SC4vh  1 4.300000e-01    2.920000e+00
   N2h SC3vh  1 4.300000e-01    2.920000e+00
   N2h SC2vh  1 4.300000e-01    2.770000e+00
   N2h SC1vh  1 4.300000e-01    2.530000e+00
   N2h SX4vh  1 4.300000e-01    3.380000e+00
   N2h SX3vh  1 4.300000e-01    3.160000e+00
   N2h SX2vh  1 4.300000e-01    2.920000e+00
   N2h SX1vh  1 4.300000e-01    2.920000e+00
   N2h SC6eh  1 4.300000e-01    3.160000e+00
   N2h SC5eh  1 4.300000e-01    2.920000e+00
   N2h SC4eh  1 4.300000e-01    2.920000e+00
   N2h SC3eh  1 4.300000e-01    2.920000e+00
   N2h SC2eh  1 4.300000e-01    2.770000e+00
   N2h SC1eh  1 4.300000e-01    2.530000e+00
   N2h SX4eh  1 4.300000e-01    3.380000e+00
   N2h SX3eh  1 4.300000e-01    3.160000e+00
   N2h SX2eh  1 4.300000e-01    2.920000e+00
   N2h SX1eh  1 4.300000e-01    2.920000e+00
   N1h  SC6h  1 4.300000e-01    3.160000e+00
   N1h  SC5h  1 4.300000e-01    2.920000e+00
   N1h  SC4h  1 4.300000e-01    2.920000e+00
   N1h  SC3h  1 4.300000e-01    2.770000e+00
   N1h  SC2h  1 4.300000e-01    2.530000e+00
   N1h  SC1h  1 4.300000e-01    2.320000e+00
   N1h  SX4h  1 4.300000e-01    2.920000e+00
   N1h  SX3h  1 4.300000e-01    2.920000e+00
   N1h  SX2h  1 4.300000e-01    2.770000e+00
   N1h  SX1h  1 4.300000e-01    2.770000e+00
   N1h SC6vh  1 4.300000e-01    3.380000e+00
   N1h SC5vh  1 4.300000e-01    3.160000e+00
   N1h SC4vh  1 4.300000e-01    3.160000e+00
   N1h SC3vh  1 4.300000e-01    2.920000e+00
   N1h SC2vh  1 4.300000e-01    2.770000e+00
   N1h SC1vh  1 4.300000e-01    2.530000e+00
   N1h SX4vh  1 4.300000e-01    3.160000e+00
   N1h SX3vh  1 4.300000e-01    3.160000e+00
   N1h SX2vh  1 4.300000e-01    2.920000e+00
   N1h SX1vh  1 4.300000e-01    2.920000e+00
   N1h SC6eh  1 4.300000e-01    3.380000e+00
   N1h SC5eh  1 4.300000e-01    3.160000e+00
   N1h SC4eh  1 4.300000e-01    3.160000e+00
   N1h SC3eh  1 4.300000e-01    2.920000e+00
   N1h SC2eh  1 4.300000e-01    2.770000e+00
   N1h SC1eh  1 4.300000e-01    2.530000e+00
   N1h SX4eh  1 4.300000e-01    3.160000e+00
   N1h SX3eh  1 4.300000e-01    3.160000e+00
   N1h SX2eh  1 4.300000e-01    2.920000e+00
   N1h SX1eh  1 4.300000e-01    2.920000e+00
  P6dh  SC6h  1 4.300000e-01    2.320000e+00
  P6dh  SC5h  1 4.300000e-01    2.160000e+00
  P6dh  SC4h  1 4.300000e-01    1.930000e+00
  P6dh  SC3h  1 4.300000e-01    1.730000e+00
  P6dh  SC2h  1 4.300000e-01    1.730000e+00
  P6dh  SC1h  1 4.730000e-01    1.280000e+00
  P6dh  SX4h  1 4.300000e-01    2.530000e+00
  P6dh  SX3h  1 4.300000e-01    2.530000e+00
  P6dh  SX2h  1 4.300000e-01    2.320000e+00
  P6dh  SX1h  1 4.300000e-01    2.160000e+00
  P5dh  SC6h  1 4.300000e-01    2.320000e+00
  P5dh  SC5h  1 4.300000e-01    2.320000e+00
  P5dh  SC4h  1 4.300000e-01    2.160000e+00
  P5dh  SC3h  1 4.300000e-01    1.930000e+00
  P5dh  SC2h  1 4.300000e-01    1.930000e+00
  P5dh  SC1h  1 4.300000e-01    1.730000e+00
  P5dh  SX4h  1 4.300000e-01    2.770000e+00
  P5dh  SX3h  1 4.300000e-01    2.530000e+00
  P5dh  SX2h  1 4.300000e-01    2.530000e+00
  P5dh  SX1h  1 4.300000e-01    2.160000e+00
  P4dh  SC6h  1 4.300000e-01    2.530000e+00
  P4dh  SC5h  1 4.300000e-01    2.320000e+00
  P4dh  SC4h  1 4.300000e-01    2.160000e+00
  P4dh  SC3h  1 4.300000e-01    1.930000e+00
  P4dh  SC2h  1 4.300000e-01    1.930000e+00
  P4dh  SC1h  1 4.300000e-01    1.730000e+00
  P4dh  SX4h  1 4.300000e-01    2.770000e+00
  P4dh  SX3h  1 4.300000e-01    2.530000e+00
  P4dh  SX2h  1 4.300000e-01    2.530000e+00
  P4dh  SX1h  1 4.300000e-01    2.320000e+00
  P3dh  SC6h  1 4.300000e-01    2.770000e+00
  P3dh  SC5h  1 4.300000e-01    2.530000e+00
  P3dh  SC4h  1 4.300000e-01    2.320000e+00
  P3dh  SC3h  1 4.300000e-01    1.930000e+00
  P3dh  SC2h  1 4.300000e-01    1.930000e+00
  P3dh  SC1h  1 4.300000e-01    1.730000e+00
  P3dh  SX4h  1 4.300000e-01    2.770000e+00
  P3dh  SX3h  1 4.300000e-01    2.770000e+00
  P3dh  SX2h  1 4.300000e-01    2.530000e+00
  P3dh  SX1h  1 4.300000e-01    2.320000e+00
  P2dh  SC6h  1 4.300000e-01    2.770000e+00
  P2dh  SC5h  1 4.300000e-01    2.530000e+00
  P2dh  SC4h  1 4.300000e-01    2.320000e+00
  P2dh  SC3h  1 4.300000e-01    2.160000e+00
  P2dh  SC2h  1 4.300000e-01    2.160000e+00
  P2dh  SC1h  1 4.300000e-01    1.930000e+00
  P2dh  SX4h  1 4.300000e-01    2.770000e+00
  P2dh  SX3h  1 4.300000e-01    2.770000e+00
  P2dh  SX2h  1 4.300000e-01    2.530000e+00
  P2dh  SX1h  1 4.300000e-01    2.320000e+00
  P1dh  SC6h  1 4.300000e-01    2.770000e+00
  P1dh  SC5h  1 4.300000e-01    2.530000e+00
  P1dh  SC4h  1 4.300000e-01    2.320000e+00
  P1dh  SC3h  1 4.300000e-01    2.160000e+00
  P1dh  SC2h  1 4.300000e-01    2.160000e+00
  P1dh  SC1h  1 4.300000e-01    1.930000e+00
  P1dh  SX4h  1 4.300000e-01    2.770000e+00
  P1dh  SX3h  1 4.300000e-01    2.770000e+00
  P1dh  SX2h  1 4.300000e-01    2.530000e+00
  P1dh  SX1h  1 4.300000e-01    2.320000e+00
  N6dh  SC6h  1 4.300000e-01    2.920000e+00
  N6dh  SC5h  1 4.300000e-01    2.770000e+00
  N6dh  SC4h  1 4.300000e-01    2.530000e+00
  N6dh  SC3h  1 4.300000e-01    2.320000e+00
  N6dh  SC2h  1 4.300000e-01    2.320000e+00
  N6dh  SC1h  1 4.300000e-01    2.160000e+00
  N6dh  SX4h  1 4.300000e-01    2.920000e+00
  N6dh  SX3h  1 4.300000e-01    2.770000e+00
  N6dh  SX2h  1 4.300000e-01    2.530000e+00
  N6dh  SX1h  1 4.300000e-01    2.320000e+00
  N5dh  SC6h  1 4.300000e-01    2.920000e+00
  N5dh  SC5h  1 4.300000e-01    2.770000e+00
  N5dh  SC4h  1 4.300000e-01    2.530000e+00
  N5dh  SC3h  1 4.300000e-01    2.530000e+00
  N5dh  SC2h  1 4.300000e-01    2.320000e+00
  N5dh  SC1h  1 4.300000e-01    2.160000e+00
  N5dh  SX4h  1 4.300000e-01    3.160000e+00
  N5dh  SX3h  1 4.300000e-01    2.920000e+00
  N5dh  SX2h  1 4.300000e-01    2.770000e+00
  N5dh  SX1h  1 4.300000e-01    2.530000e+00
  N4dh  SC6h  1 4.300000e-01    2.920000e+00
  N4dh  SC5h  1 4.300000e-01    2.770000e+00
  N4dh  SC4h  1 4.300000e-01    2.770000e+00
  N4dh  SC3h  1 4.300000e-01    2.530000e+00
  N4dh  SC2h  1 4.300000e-01    2.320000e+00
  N4dh  SC1h  1 4.300000e-01    2.160000e+00
  N4dh  SX4h  1 4.300000e-01    3.380000e+00
  N4dh  SX3h  1 4.300000e-01    3.160000e+00
  N4dh  SX2h  1 4.300000e-01    2.770000e+00
  N4dh  SX1h  1 4.300000e-01    2.530000e+00
  N3dh  SC6h  1 4.300000e-01    2.920000e+00
  N3dh  SC5h  1 4.300000e-01    2.770000e+00
  N3dh  SC4h  1 4.300000e-01    2.770000e+00
  N3dh  SC3h  1 4.300000e-01    2.530000e+00
  N3dh  SC2h  1 4.300000e-01    2.530000e+00
  N3dh  SC1h  1 4.300000e-01    2.320000e+00
  N3dh  SX4h  1 4.300000e-01    3.160000e+00
  N3dh  SX3h  1 4.300000e-01    2.920000e+00
  N3dh  SX2h  1 4.300000e-01    2.770000e+00
  N3dh  SX1h  1 4.300000e-01    2.770000e+00
  N2dh  SC6h  1 4.300000e-01    2.920000e+00
  N2dh  SC5h  1 4.300000e-01    2.770000e+00
  N2dh  SC4h  1 4.300000e-01    2.770000e+00
  N2dh  SC3h  1 4.300000e-01    2.770000e+00
  N2dh  SC2h  1 4.300000e-01    2.530000e+00
  N2dh  SC1h  1 4.300000e-01    2.320000e+00
  N2dh  SX4h  1 4.300000e-01    3.160000e+00
  N2dh  SX3h  1 4.300000e-01    2.920000e+00
  N2dh  SX2h  1 4.300000e-01    2.770000e+00
  N2dh  SX1h  1 4.300000e-01    2.770000e+00
  N1dh  SC6h  1 4.300000e-01    3.160000e+00
  N1dh  SC5h  1 4.300000e-01    2.920000e+00
  N1dh  SC4h  1 4.300000e-01    2.920000e+00
  N1dh  SC3h  1 4.300000e-01    2.770000e+00
  N1dh  SC2h  1 4.300000e-01    2.530000e+00
  N1dh  SC1h  1 4.300000e-01    2.320000e+00
  N1dh  SX4h  1 4.300000e-01    2.920000e+00
  N1dh  SX3h  1 4.300000e-01    2.920000e+00
  N1dh  SX2h  1 4.300000e-01    2.770000e+00
  N1dh  SX1h  1 4.300000e-01    2.770000e+00
  P6ah  SC6h  1 4.300000e-01    2.320000e+00
  P6ah  SC5h  1 4.300000e-01    2.160000e+00
  P6ah  SC4h  1 4.300000e-01    1.930000e+00
  P6ah  SC3h  1 4.300000e-01    1.730000e+00
  P6ah  SC2h  1 4.300000e-01    1.730000e+00
  P6ah  SC1h  1 4.730000e-01    1.280000e+00
  P6ah  SX4h  1 4.300000e-01    2.530000e+00
  P6ah  SX3h  1 4.300000e-01    2.530000e+00
  P6ah  SX2h  1 4.300000e-01    2.320000e+00
  P6ah  SX1h  1 4.300000e-01    2.160000e+00
  P5ah  SC6h  1 4.300000e-01    2.320000e+00
  P5ah  SC5h  1 4.300000e-01    2.320000e+00
  P5ah  SC4h  1 4.300000e-01    2.160000e+00
  P5ah  SC3h  1 4.300000e-01    1.930000e+00
  P5ah  SC2h  1 4.300000e-01    1.930000e+00
  P5ah  SC1h  1 4.300000e-01    1.730000e+00
  P5ah  SX4h  1 4.300000e-01    2.770000e+00
  P5ah  SX3h  1 4.300000e-01    2.530000e+00
  P5ah  SX2h  1 4.300000e-01    2.530000e+00
  P5ah  SX1h  1 4.300000e-01    2.160000e+00
  P4ah  SC6h  1 4.300000e-01    2.530000e+00
  P4ah  SC5h  1 4.300000e-01    2.320000e+00
  P4ah  SC4h  1 4.300000e-01    2.160000e+00
  P4ah  SC3h  1 4.300000e-01    1.930000e+00
  P4ah  SC2h  1 4.300000e-01    1.930000e+00
  P4ah  SC1h  1 4.300000e-01    1.730000e+00
  P4ah  SX4h  1 4.300000e-01    2.770000e+00
  P4ah  SX3h  1 4.300000e-01    2.530000e+00
  P4ah  SX2h  1 4.300000e-01    2.530000e+00
  P4ah  SX1h  1 4.300000e-01    2.320000e+00
  P3ah  SC6h  1 4.300000e-01    2.770000e+00
  P3ah  SC5h  1 4.300000e-01    2.530000e+00
  P3ah  SC4h  1 4.300000e-01    2.320000e+00
  P3ah  SC3h  1 4.300000e-01    1.930000e+00
  P3ah  SC2h  1 4.300000e-01    1.930000e+00
  P3ah  SC1h  1 4.300000e-01    1.730000e+00
  P3ah  SX4h  1 4.300000e-01    2.770000e+00
  P3ah  SX3h  1 4.300000e-01    2.770000e+00
  P3ah  SX2h  1 4.300000e-01    2.530000e+00
  P3ah  SX1h  1 4.300000e-01    2.320000e+00
  P2ah  SC6h  1 4.300000e-01    2.770000e+00
  P2ah  SC5h  1 4.300000e-01    2.530000e+00
  P2ah  SC4h  1 4.300000e-01    2.320000e+00
  P2ah  SC3h  1 4.300000e-01    2.160000e+00
  P2ah  SC2h  1 4.300000e-01    2.160000e+00
  P2ah  SC1h  1 4.300000e-01    1.930000e+00
  P2ah  SX4h  1 4.300000e-01    2.770000e+00
  P2ah  SX3h  1 4.300000e-01    2.770000e+00
  P2ah  SX2h  1 4.300000e-01    2.530000e+00
  P2ah  SX1h  1 4.300000e-01    2.320000e+00
  P1ah  SC6h  1 4.300000e-01    2.770000e+00
  P1ah  SC5h  1 4.300000e-01    2.530000e+00
  P1ah  SC4h  1 4.300000e-01    2.320000e+00
  P1ah  SC3h  1 4.300000e-01    2.160000e+00
  P1ah  SC2h  1 4.300000e-01    2.160000e+00
  P1ah  SC1h  1 4.300000e-01    1.930000e+00
  P1ah  SX4h  1 4.300000e-01    2.770000e+00
  P1ah  SX3h  1 4.300000e-01    2.770000e+00
  P1ah  SX2h  1 4.300000e-01    2.530000e+00
  P1ah  SX1h  1 4.300000e-01    2.320000e+00
  N6ah  SC6h  1 4.300000e-01    2.920000e+00
  N6ah  SC5h  1 4.300000e-01    2.770000e+00
  N6ah  SC4h  1 4.300000e-01    2.530000e+00
  N6ah  SC3h  1 4.300000e-01    2.320000e+00
  N6ah  SC2h  1 4.300000e-01    2.320000e+00
  N6ah  SC1h  1 4.300000e-01    2.160000e+00
  N6ah  SX4h  1 4.300000e-01    2.920000e+00
  N6ah  SX3h  1 4.300000e-01    2.770000e+00
  N6ah  SX2h  1 4.300000e-01    2.530000e+00
  N6ah  SX1h  1 4.300000e-01    2.320000e+00
  N5ah  SC6h  1 4.300000e-01    2.920000e+00
  N5ah  SC5h  1 4.300000e-01    2.770000e+00
  N5ah  SC4h  1 4.300000e-01    2.530000e+00
  N5ah  SC3h  1 4.300000e-01    2.530000e+00
  N5ah  SC2h  1 4.300000e-01    2.320000e+00
  N5ah  SC1h  1 4.300000e-01    2.160000e+00
  N5ah  SX4h  1 4.300000e-01    3.160000e+00
  N5ah  SX3h  1 4.300000e-01    2.920000e+00
  N5ah  SX2h  1 4.300000e-01    2.770000e+00
  N5ah  SX1h  1 4.300000e-01    2.530000e+00
  N4ah  SC6h  1 4.300000e-01    2.920000e+00
  N4ah  SC5h  1 4.300000e-01    2.770000e+00
  N4ah  SC4h  1 4.300000e-01    2.770000e+00
  N4ah  SC3h  1 4.300000e-01    2.530000e+00
  N4ah  SC2h  1 4.300000e-01    2.320000e+00
  N4ah  SC1h  1 4.300000e-01    2.160000e+00
  N4ah  SX4h  1 4.300000e-01    3.380000e+00
  N4ah  SX3h  1 4.300000e-01    3.160000e+00
  N4ah  SX2h  1 4.300000e-01    2.770000e+00
  N4ah  SX1h  1 4.300000e-01    2.530000e+00
  N3ah  SC6h  1 4.300000e-01    2.920000e+00
  N3ah  SC5h  1 4.300000e-01    2.770000e+00
  N3ah  SC4h  1 4.300000e-01    2.770000e+00
  N3ah  SC3h  1 4.300000e-01    2.530000e+00
  N3ah  SC2h  1 4.300000e-01    2.530000e+00
  N3ah  SC1h  1 4.300000e-01    2.320000e+00
  N3ah  SX4h  1 4.300000e-01    3.160000e+00
  N3ah  SX3h  1 4.300000e-01    2.920000e+00
  N3ah  SX2h  1 4.300000e-01    2.770000e+00
  N3ah  SX1h  1 4.300000e-01    2.770000e+00
  N2ah  SC6h  1 4.300000e-01    2.920000e+00
  N2ah  SC5h  1 4.300000e-01    2.770000e+00
  N2ah  SC4h  1 4.300000e-01    2.770000e+00
  N2ah  SC3h  1 4.300000e-01    2.770000e+00
  N2ah  SC2h  1 4.300000e-01    2.530000e+00
  N2ah  SC1h  1 4.300000e-01    2.320000e+00
  N2ah  SX4h  1 4.300000e-01    3.160000e+00
  N2ah  SX3h  1 4.300000e-01    2.920000e+00
  N2ah  SX2h  1 4.300000e-01    2.770000e+00
  N2ah  SX1h  1 4.300000e-01    2.770000e+00
  N1ah  SC6h  1 4.300000e-01    3.160000e+00
  N1ah  SC5h  1 4.300000e-01    2.920000e+00
  N1ah  SC4h  1 4.300000e-01    2.920000e+00
  N1ah  SC3h  1 4.300000e-01    2.770000e+00
  N1ah  SC2h  1 4.300000e-01    2.530000e+00
  N1ah  SC1h  1 4.300000e-01    2.320000e+00
  N1ah  SX4h  1 4.300000e-01    2.920000e+00
  N1ah  SX3h  1 4.300000e-01    2.920000e+00
  N1ah  SX2h  1 4.300000e-01    2.770000e+00
  N1ah  SX1h  1 4.300000e-01    2.770000e+00
   P6h  SP6r  1 4.300000e-01    4.680000e+00
   P6h  SP5r  1 4.300000e-01    4.400000e+00
   P6r  SP5h  1 4.300000e-01    4.400000e+00
   P6h  SP4r  1 4.300000e-01    4.170000e+00
   P6r  SP4h  1 4.300000e-01    4.170000e+00
   P6h  SP3r  1 4.300000e-01    3.970000e+00
   P6r  SP3h  1 4.300000e-01    3.970000e+00
   P6h  SP2r  1 4.300000e-01    3.970000e+00
   P6r  SP2h  1 4.300000e-01    3.970000e+00
   P6h  SP1r  1 4.300000e-01    3.770000e+00
   P6r  SP1h  1 4.300000e-01    3.770000e+00
   P6h  SN6r  1 4.300000e-01    3.590000e+00
   P6r  SN6h  1 4.300000e-01    3.590000e+00
   P6h  SN5r  1 4.300000e-01    3.160000e+00
   P6r  SN5h  1 4.300000e-01    3.160000e+00
   P6h  SN4r  1 4.300000e-01    2.920000e+00
   P6r  SN4h  1 4.300000e-01    2.920000e+00
   P6h  SN3r  1 4.300000e-01    2.770000e+00
   P6r  SN3h  1 4.300000e-01    2.770000e+00
   P6h  SN2r  1 4.300000e-01    2.530000e+00
   P6r  SN2h  1 4.300000e-01    2.530000e+00
   P6h  SN1r  1 4.300000e-01    2.320000e+00
   P6r  SN1h  1 4.300000e-01    2.320000e+00
   P6h SP6dr  1 4.300000e-01    4.680000e+00
   P6r SP6dh  1 4.300000e-01    4.680000e+00
   P6h SP5dr  1 4.300000e-01    4.400000e+00
   P6r SP5dh  1 4.300000e-01    4.400000e+00
   P6h SP4dr  1 4.300000e-01    4.170000e+00
   P6r SP4dh  1 4.300000e-01    4.170000e+00
   P6h SP3dr  1 4.300000e-01    3.970000e+00
   P6r SP3dh  1 4.300000e-01    3.970000e+00
   P6h SP2dr  1 4.300000e-01    3.970000e+00
   P6r SP2dh  1 4.300000e-01    3.970000e+00
   P6h SP1dr  1 4.300000e-01    3.770000e+00
   P6r SP1dh  1 4.300000e-01    3.770000e+00
   P6h SN6dr  1 4.300000e-01    3.590000e+00
   P6r SN6dh  1 4.300000e-01    3.590000e+00
   P6h SN5dr  1 4.300000e-01    3.160000e+00
   P6r SN5dh  1 4.300000e-01    3.160000e+00
   P6h SN4dr  1 4.300000e-01    2.920000e+00
   P6r SN4dh  1 4.300000e-01    2.920000e+00
   P6h SN3dr  1 4.300000e-01    2.770000e+00
   P6r SN3dh  1 4.300000e-01    2.770000e+00
   P6h SN2dr  1 4.300000e-01    2.530000e+00
   P6r SN2dh  1 4.300000e-01    2.530000e+00
   P6h SN1dr  1 4.300000e-01    2.320000e+00
   P6r SN1dh  1 4.300000e-01    2.320000e+00
   P6h SP6ar  1 4.300000e-01    4.680000e+00
   P6r SP6ah  1 4.300000e-01    4.680000e+00
   P6h SP5ar  1 4.300000e-01    4.400000e+00
   P6r SP5ah  1 4.300000e-01    4.400000e+00
   P6h SP4ar  1 4.300000e-01    4.170000e+00
   P6r SP4ah  1 4.300000e-01    4.170000e+00
   P6h SP3ar  1 4.300000e-01    3.970000e+00
   P6r SP3ah  1 4.300000e-01    3.970000e+00
   P6h SP2ar  1 4.300000e-01    3.970000e+00
   P6r SP2ah  1 4.300000e-01    3.970000e+00
   P6h SP1ar  1 4.300000e-01    3.770000e+00
   P6r SP1ah  1 4.300000e-01    3.770000e+00
   P6h SN6ar  1 4.300000e-01    3.590000e+00
   P6r SN6ah  1 4.300000e-01    3.590000e+00
   P6h SN5ar  1 4.300000e-01    3.160000e+00
   P6r SN5ah  1 4.300000e-01    3.160000e+00
   P6h SN4ar  1 4.300000e-01    2.920000e+00
   P6r SN4ah  1 4.300000e-01    2.920000e+00
   P6h SN3ar  1 4.300000e-01    2.770000e+00
   P6r SN3ah  1 4.300000e-01    2.770000e+00
   P6h SN2ar  1 4.300000e-01    2.530000e+00
   P6r SN2ah  1 4.300000e-01    2.530000e+00
   P6h SN1ar  1 4.300000e-01    2.320000e+00
   P6r SN1ah  1 4.300000e-01    2.320000e+00
   P5h  SP5r  1 4.300000e-01    4.170000e+00
   P5h  SP4r  1 4.300000e-01    3.970000e+00
   P5r  SP4h  1 4.300000e-01    3.970000e+00
   P5h  SP3r  1 4.300000e-01    3.770000e+00
   P5r  SP3h  1 4.300000e-01    3.770000e+00
   P5h  SP2r  1 4.300000e-01    3.770000e+00
   P5r  SP2h  1 4.300000e-01    3.770000e+00
   P5h  SP1r  1 4.300000e-01    3.590000e+00
   P5r  SP1h  1 4.300000e-01    3.590000e+00
   P5h  SN6r  1 4.300000e-01    3.380000e+00
   P5r  SN6h  1 4.300000e-01    3.380000e+00
   P5h  SN5r  1 4.300000e-01    3.160000e+00
   P5r  SN5h  1 4.300000e-01    3.160000e+00
   P5h  SN4r  1 4.300000e-01    3.160000e+00
   P5r  SN4h  1 4.300000e-01    3.160000e+00
   P5h  SN3r  1 4.300000e-01    2.770000e+00
   P5r  SN3h  1 4.300000e-01    2.770000e+00
   P5h  SN2r  1 4.300000e-01    2.530000e+00
   P5r  SN2h  1 4.300000e-01    2.530000e+00
   P5h  SN1r  1 4.300000e-01    2.320000e+00
   P5r  SN1h  1 4.300000e-01    2.320000e+00
   P5h SP5dr  1 4.300000e-01    4.170000e+00
   P5r SP5dh  1 4.300000e-01    4.170000e+00
   P5h SP4dr  1 4.300000e-01    3.970000e+00
   P5r SP4dh  1 4.300000e-01    3.970000e+00
   P5h SP3dr  1 4.300000e-01    3.770000e+00
   P5r SP3dh  1 4.300000e-01    3.770000e+00
   P5h SP2dr  1 4.300000e-01    3.770000e+00
   P5r SP2dh  1 4.300000e-01    3.770000e+00
   P5h SP1dr  1 4.300000e-01    3.590000e+00
   P5r SP1dh  1 4.300000e-01    3.590000e+00
   P5h SN6dr  1 4.300000e-01    3.380000e+00
   P5r SN6dh  1 4.300000e-01    3.380000e+00
   P5h SN5dr  1 4.300000e-01    3.160000e+00
   P5r SN5dh  1 4.300000e-01    3.160000e+00
   P5h SN4dr  1 4.300000e-01    3.160000e+00
   P5r SN4dh  1 4.300000e-01    3.160000e+00
   P5h SN3dr  1 4.300000e-01    2.770000e+00
   P5r SN3dh  1 4.300000e-01    2.770000e+00
   P5h SN2dr  1 4.300000e-01    2.530000e+00
   P5r SN2dh  1 4.300000e-01    2.530000e+00
   P5h SN1dr  1 4.300000e-01    2.320000e+00
   P5r SN1dh  1 4.300000e-01    2.320000e+00
   P5h SP5ar  1 4.300000e-01    4.170000e+00
   P5r SP5ah  1 4.300000e-01    4.170000e+00
   P5h SP4ar  1 4.300000e-01    3.970000e+00
   P5r SP4ah  1 4.300000e-01    3.970000e+00
   P5h SP3ar  1 4.300000e-01    3.770000e+00
   P5r SP3ah  1 4.300000e-01    3.770000e+00
   P5h SP2ar  1 4.300000e-01    3.770000e+00
   P5r SP2ah  1 4.300000e-01    3.770000e+00
   P5h SP1ar  1 4.300000e-01    3.590000e+00
   P5r SP1ah  1 4.300000e-01    3.590000e+00
   P5h SN6ar  1 4.300000e-01    3.380000e+00
   P5r SN6ah  1 4.300000e-01    3.380000e+00
   P5h SN5ar  1 4.300000e-01    3.160000e+00
   P5r SN5ah  1 4.300000e-01    3.160000e+00
   P5h SN4ar  1 4.300000e-01    3.160000e+00
   P5r SN4ah  1 4.300000e-01    3.160000e+00
   P5h SN3ar  1 4.300000e-01    2.770000e+00
   P5r SN3ah  1 4.300000e-01    2.770000e+00
   P5h SN2ar  1 4.300000e-01    2.530000e+00
   P5r SN2ah  1 4.300000e-01    2.530000e+00
   P5h SN1ar  1 4.300000e-01    2.320000e+00
   P5r SN1ah  1 4.300000e-01    2.320000e+00
   P4h  SP4r  1 4.300000e-01    3.970000e+00
   P4h  SP3r  1 4.300000e-01    3.770000e+00
   P4r  SP3h  1 4.300000e-01    3.770000e+00
   P4h  SP2r  1 4.300000e-01    3.770000e+00
   P4r  SP2h  1 4.300000e-01    3.770000e+00
   P4h  SP1r  1 4.300000e-01    3.590000e+00
   P4r  SP1h  1 4.300000e-01    3.590000e+00
   P4h  SN6r  1 4.300000e-01    3.380000e+00
   P4r  SN6h  1 4.300000e-01    3.380000e+00
   P4h  SN5r  1 4.300000e-01    3.160000e+00
   P4r  SN5h  1 4.300000e-01    3.160000e+00
   P4h  SN4r  1 4.300000e-01    3.160000e+00
   P4r  SN4h  1 4.300000e-01    3.160000e+00
   P4h  SN3r  1 4.300000e-01    2.920000e+00
   P4r  SN3h  1 4.300000e-01    2.920000e+00
   P4h  SN2r  1 4.300000e-01    2.770000e+00
   P4r  SN2h  1 4.300000e-01    2.770000e+00
   P4h  SN1r  1 4.300000e-01    2.530000e+00
   P4r  SN1h  1 4.300000e-01    2.530000e+00
   P4h SP4dr  1 4.300000e-01    3.970000e+00
   P4r SP4dh  1 4.300000e-01    3.970000e+00
   P4h SP3dr  1 4.300000e-01    3.770000e+00
   P4r SP3dh  1 4.300000e-01    3.770000e+00
   P4h SP2dr  1 4.300000e-01    3.770000e+00
   P4r SP2dh  1 4.300000e-01    3.770000e+00
   P4h SP1dr  1 4.300000e-01    3.590000e+00
   P4r SP1dh  1 4.300000e-01    3.590000e+00
   P4h SN6dr  1 4.300000e-01    3.380000e+00
   P4r SN6dh  1 4.300000e-01    3.380000e+00
   P4h SN5dr  1 4.300000e-01    3.160000e+00
   P4r SN5dh  1 4.300000e-01    3.160000e+00
   P4h SN4dr  1 4.300000e-01    3.160000e+00
   P4r SN4dh  1 4.300000e-01    3.160000e+00
   P4h SN3dr  1 4.300000e-01    2.920000e+00
   P4r SN3dh  1 4.300000e-01    2.920000e+00
   P4h SN2dr  1 4.300000e-01    2.770000e+00
   P4r SN2dh  1 4.300000e-01    2.770000e+00
   P4h SN1dr  1 4.300000e-01    2.530000e+00
   P4r SN1dh  1 4.300000e-01    2.530000e+00
   P4h SP4ar  1 4.300000e-01    3.970000e+00
   P4r SP4ah  1 4.300000e-01    3.970000e+00
   P4h SP3ar  1 4.300000e-01    3.770000e+00
   P4r SP3ah  1 4.300000e-01    3.770000e+00
   P4h SP2ar  1 4.300000e-01    3.770000e+00
   P4r SP2ah  1 4.300000e-01    3.770000e+00
   P4h SP1ar  1 4.300000e-01    3.590000e+00
   P4r SP1ah  1 4.300000e-01    3.590000e+00
   P4h SN6ar  1 4.300000e-01    3.380000e+00
   P4r SN6ah  1 4.300000e-01    3.380000e+00
   P4h SN5ar  1 4.300000e-01    3.160000e+00
   P4r SN5ah  1 4.300000e-01    3.160000e+00
   P4h SN4ar  1 4.300000e-01    3.160000e+00
   P4r SN4ah  1 4.300000e-01    3.160000e+00
   P4h SN3ar  1 4.300000e-01    2.920000e+00
   P4r SN3ah  1 4.300000e-01    2.920000e+00
   P4h SN2ar  1 4.300000e-01    2.770000e+00
   P4r SN2ah  1 4.300000e-01    2.770000e+00
   P4h SN1ar  1 4.300000e-01    2.530000e+00
   P4r SN1ah  1 4.300000e-01    2.530000e+00
   P3h  SP3r  1 4.300000e-01    3.770000e+00
   P3h  SP2r  1 4.300000e-01    3.770000e+00
   P3r  SP2h  1 4.300000e-01    3.770000e+00
   P3h  SP1r  1 4.300000e-01    3.590000e+00
   P3r  SP1h  1 4.300000e-01    3.590000e+00
   P3h  SN6r  1 4.300000e-01    3.380000e+00
   P3r  SN6h  1 4.300000e-01    3.380000e+00
   P3h  SN5r  1 4.300000e-01    3.160000e+00
   P3r  SN5h  1 4.300000e-01    3.160000e+00
   P3h  SN4r  1 4.300000e-01    3.160000e+00
   P3r  SN4h  1 4.300000e-01    3.160000e+00
   P3h  SN3r  1 4.300000e-01    2.920000e+00
   P3r  SN3h  1 4.300000e-01    2.920000e+00
   P3h  SN2r  1 4.300000e-01    2.920000e+00
   P3r  SN2h  1 4.300000e-01    2.920000e+00
   P3h  SN1r  1 4.300000e-01    2.770000e+00
   P3r  SN1h  1 4.300000e-01    2.770000e+00
   P3h SP3dr  1 4.300000e-01    3.770000e+00
   P3r SP3dh  1 4.300000e-01    3.770000e+00
   P3h SP2dr  1 4.300000e-01    3.770000e+00
   P3r SP2dh  1 4.300000e-01    3.770000e+00
   P3h SP1dr  1 4.300000e-01    3.590000e+00
   P3r SP1dh  1 4.300000e-01    3.590000e+00
   P3h SN6dr  1 4.300000e-01    3.380000e+00
   P3r SN6dh  1 4.300000e-01    3.380000e+00
   P3h SN5dr  1 4.300000e-01    3.160000e+00
   P3r SN5dh  1 4.300000e-01    3.160000e+00
   P3h SN4dr  1 4.300000e-01    3.160000e+00
   P3r SN4dh  1 4.300000e-01    3.160000e+00
   P3h SN3dr  1 4.300000e-01    2.920000e+00
   P3r SN3dh  1 4.300000e-01    2.920000e+00
   P3h SN2dr  1 4.300000e-01    2.920000e+00
   P3r SN2dh  1 4.300000e-01    2.920000e+00
   P3h SN1dr  1 4.300000e-01    2.770000e+00
   P3r SN1dh  1 4.300000e-01    2.770000e+00
   P3h SP3ar  1 4.300000e-01    3.770000e+00
   P3r SP3ah  1 4.300000e-01    3.770000e+00
   P3h SP2ar  1 4.300000e-01    3.770000e+00
   P3r SP2ah  1 4.300000e-01    3.770000e+00
   P3h SP1ar  1 4.300000e-01    3.590000e+00
   P3r SP1ah  1 4.300000e-01    3.590000e+00
   P3h SN6ar  1 4.300000e-01    3.380000e+00
   P3r SN6ah  1 4.300000e-01    3.380000e+00
   P3h SN5ar  1 4.300000e-01    3.160000e+00
   P3r SN5ah  1 4.300000e-01    3.160000e+00
   P3h SN4ar  1 4.300000e-01    3.160000e+00
   P3r SN4ah  1 4.300000e-01    3.160000e+00
   P3h SN3ar  1 4.300000e-01    2.920000e+00
   P3r SN3ah  1 4.300000e-01    2.920000e+00
   P3h SN2ar  1 4.300000e-01    2.920000e+00
   P3r SN2ah  1 4.300000e-01    2.920000e+00
   P3h SN1ar  1 4.300000e-01    2.770000e+00
   P3r SN1ah  1 4.300000e-01    2.770000e+00
   P2h  SP2r  1 4.300000e-01    3.770000e+00
   P2h  SP1r  1 4.300000e-01    3.590000e+00
   P2r  SP1h  1 4.300000e-01    3.590000e+00
   P2h  SN6r  1 4.300000e-01    3.590000e+00
   P2r  SN6h  1 4.300000e-01    3.590000e+00
   P2h  SN5r  1 4.300000e-01    3.380000e+00
   P2r  SN5h  1 4.300000e-01    3.380000e+00
   P2h  SN4r  1 4.300000e-01    3.160000e+00
   P2r  SN4h  1 4.300000e-01    3.160000e+00
   P2h  SN3r  1 4.300000e-01    2.920000e+00
   P2r  SN3h  1 4.300000e-01    2.920000e+00
   P2h  SN2r  1 4.300000e-01    2.920000e+00
   P2r  SN2h  1 4.300000e-01    2.920000e+00
   P2h  SN1r  1 4.300000e-01    2.920000e+00
   P2r  SN1h  1 4.300000e-01    2.920000e+00
   P2h SP2dr  1 4.300000e-01    3.770000e+00
   P2r SP2dh  1 4.300000e-01    3.770000e+00
   P2h SP1dr  1 4.300000e-01    3.590000e+00
   P2r SP1dh  1 4.300000e-01    3.590000e+00
   P2h SN6dr  1 4.300000e-01    3.590000e+00
   P2r SN6dh  1 4.300000e-01    3.590000e+00
   P2h SN5dr  1 4.300000e-01    3.380000e+00
   P2r SN5dh  1 4.300000e-01    3.380000e+00
   P2h SN4dr  1 4.300000e-01    3.160000e+00
   P2r SN4dh  1 4.300000e-01    3.160000e+00
   P2h SN3dr  1 4.300000e-01    2.920000e+00
   P2r SN3dh  1 4.300000e-01    2.920000e+00
   P2h SN2dr  1 4.300000e-01    2.920000e+00
   P2r SN2dh  1 4.300000e-01    2.920000e+00
   P2h SN1dr  1 4.300000e-01    2.920000e+00
   P2r SN1dh  1 4.300000e-01    2.920000e+00
   P2h SP2ar  1 4.300000e-01    3.770000e+00
   P2r SP2ah  1 4.300000e-01    3.770000e+00
   P2h SP1ar  1 4.300000e-01    3.590000e+00
   P2r SP1ah  1 4.300000e-01    3.590000e+00
   P2h SN6ar  1 4.300000e-01    3.590000e+00
   P2r SN6ah  1 4.300000e-01    3.590000e+00
   P2h SN5ar  1 4.300000e-01    3.380000e+00
   P2r SN5ah  1 4.300000e-01    3.380000e+00
   P2h SN4ar  1 4.300000e-01    3.160000e+00
   P2r SN4ah  1 4.300000e-01    3.160000e+00
   P2h SN3ar  1 4.300000e-01    2.920000e+00
   P2r SN3ah  1 4.300000e-01    2.920000e+00
   P2h SN2ar  1 4.300000e-01    2.920000e+00
   P2r SN2ah  1 4.300000e-01    2.920000e+00
   P2h SN1ar  1 4.300000e-01    2.920000e+00
   P2r SN1ah  1 4.300000e-01    2.920000e+00
   P1h  SP1r  1 4.300000e-01    3.590000e+00
   P1h  SN6r  1 4.300000e-01    3.590000e+00
   P1r  SN6h  1 4.300000e-01    3.590000e+00
   P1h  SN5r  1 4.300000e-01    3.380000e+00
   P1r  SN5h  1 4.300000e-01    3.380000e+00
   P1h  SN4r  1 4.300000e-01    3.380000e+00
   P1r  SN4h  1 4.300000e-01    3.380000e+00
   P1h  SN3r  1 4.300000e-01    2.920000e+00
   P1r  SN3h  1 4.300000e-01    2.920000e+00
   P1h  SN2r  1 4.300000e-01    2.920000e+00
   P1r  SN2h  1 4.300000e-01    2.920000e+00
   P1h  SN1r  1 4.300000e-01    2.920000e+00
   P1r  SN1h  1 4.300000e-01    2.920000e+00
   P1h SP1dr  1 4.300000e-01    3.590000e+00
   P1r SP1dh  1 4.300000e-01    3.590000e+00
   P1h SN6dr  1 4.300000e-01    3.590000e+00
   P1r SN6dh  1 4.300000e-01    3.590000e+00
   P1h SN5dr  1 4.300000e-01    3.380000e+00
   P1r SN5dh  1 4.300000e-01    3.380000e+00
   P1h SN4dr  1 4.300000e-01    3.380000e+00
   P1r SN4dh  1 4.300000e-01    3.380000e+00
   P1h SN3dr  1 4.300000e-01    2.920000e+00
   P1r SN3dh  1 4.300000e-01    2.920000e+00
   P1h SN2dr  1 4.300000e-01    2.920000e+00
   P1r SN2dh  1 4.300000e-01    2.920000e+00
   P1h SN1dr  1 4.300000e-01    2.920000e+00
   P1r SN1dh  1 4.300000e-01    2.920000e+00
   P1h SP1ar  1 4.300000e-01    3.590000e+00
   P1r SP1ah  1 4.300000e-01    3.590000e+00
   P1h SN6ar  1 4.300000e-01    3.590000e+00
   P1r SN6ah  1 4.300000e-01    3.590000e+00
   P1h SN5ar  1 4.300000e-01    3.380000e+00
   P1r SN5ah  1 4.300000e-01    3.380000e+00
   P1h SN4ar  1 4.300000e-01    3.380000e+00
   P1r SN4ah  1 4.300000e-01    3.380000e+00
   P1h SN3ar  1 4.300000e-01    2.920000e+00
   P1r SN3ah  1 4.300000e-01    2.920000e+00
   P1h SN2ar  1 4.300000e-01    2.920000e+00
   P1r SN2ah  1 4.300000e-01    2.920000e+00
   P1h SN1ar  1 4.300000e-01    2.920000e+00
   P1r SN1ah  1 4.300000e-01    2.920000e+00
   N6h  SN6r  1 4.300000e-01    3.590000e+00
   N6h  SN5r  1 4.300000e-01    3.590000e+00
   N6r  SN5h  1 4.300000e-01    3.590000e+00
   N6h  SN4r  1 4.300000e-01    3.590000e+00
   N6r  SN4h  1 4.300000e-01    3.590000e+00
   N6h  SN3r  1 4.300000e-01    3.160000e+00
   N6r  SN3h  1 4.300000e-01    3.160000e+00
   N6h  SN2r  1 4.300000e-01    2.920000e+00
   N6r  SN2h  1 4.300000e-01    2.920000e+00
   N6h  SN1r  1 4.300000e-01    2.920000e+00
   N6r  SN1h  1 4.300000e-01    2.920000e+00
   N6h SN6dr  1 4.300000e-01    3.590000e+00
   N6r SN6dh  1 4.300000e-01    3.590000e+00
   N6h SN5dr  1 4.300000e-01    3.590000e+00
   N6r SN5dh  1 4.300000e-01    3.590000e+00
   N6h SN4dr  1 4.300000e-01    3.590000e+00
   N6r SN4dh  1 4.300000e-01    3.590000e+00
   N6h SN3dr  1 4.300000e-01    3.160000e+00
   N6r SN3dh  1 4.300000e-01    3.160000e+00
   N6h SN2dr  1 4.300000e-01    2.920000e+00
   N6r SN2dh  1 4.300000e-01    2.920000e+00
   N6h SN1dr  1 4.300000e-01    2.920000e+00
   N6r SN1dh  1 4.300000e-01    2.920000e+00
   N6h SN6ar  1 4.300000e-01    3.590000e+00
   N6r SN6ah  1 4.300000e-01    3.590000e+00
   N6h SN5ar  1 4.300000e-01    3.590000e+00
   N6r SN5ah  1 4.300000e-01    3.590000e+00
   N6h SN4ar  1 4.300000e-01    3.590000e+00
   N6r SN4ah  1 4.300000e-01    3.590000e+00
   N6h SN3ar  1 4.300000e-01    3.160000e+00
   N6r SN3ah  1 4.300000e-01    3.160000e+00
   N6h SN2ar  1 4.300000e-01    2.920000e+00
   N6r SN2ah  1 4.300000e-01    2.920000e+00
   N6h SN1ar  1 4.300000e-01    2.920000e+00
   N6r SN1ah  1 4.300000e-01    2.920000e+00
   N5h  SN5r  1 4.300000e-01    3.380000e+00
   N5h  SN4r  1 4.300000e-01    3.380000e+00
   N5r  SN4h  1 4.300000e-01    3.380000e+00
   N5h  SN3r  1 4.300000e-01    3.160000e+00
   N5r  SN3h  1 4.300000e-01    3.160000e+00
   N5h  SN2r  1 4.300000e-01    3.160000e+00
   N5r  SN2h  1 4.300000e-01    3.160000e+00
   N5h  SN1r  1 4.300000e-01    2.920000e+00
   N5r  SN1h  1 4.300000e-01    2.920000e+00
   N5h SN5dr  1 4.300000e-01    3.380000e+00
   N5r SN5dh  1 4.300000e-01    3.380000e+00
   N5h SN4dr  1 4.300000e-01    3.380000e+00
   N5r SN4dh  1 4.300000e-01    3.380000e+00
   N5h SN3dr  1 4.300000e-01    3.160000e+00
   N5r SN3dh  1 4.300000e-01    3.160000e+00
   N5h SN2dr  1 4.300000e-01    3.160000e+00
   N5r SN2dh  1 4.300000e-01    3.160000e+00
   N5h SN1dr  1 4.300000e-01    2.920000e+00
   N5r SN1dh  1 4.300000e-01    2.920000e+00
   N5h SN5ar  1 4.300000e-01    3.380000e+00
   N5r SN5ah  1 4.300000e-01    3.380000e+00
   N5h SN4ar  1 4.300000e-01    3.380000e+00
   N5r SN4ah  1 4.300000e-01    3.380000e+00
   N5h SN3ar  1 4.300000e-01    3.160000e+00
   N5r SN3ah  1 4.300000e-01    3.160000e+00
   N5h SN2ar  1 4.300000e-01    3.160000e+00
   N5r SN2ah  1 4.300000e-01    3.160000e+00
   N5h SN1ar  1 4.300000e-01    2.920000e+00
   N5r SN1ah  1 4.300000e-01    2.920000e+00
   N4h  SN4r  1 4.300000e-01    3.380000e+00
   N4h  SN3r  1 4.300000e-01    3.160000e+00
   N4r  SN3h  1 4.300000e-01    3.160000e+00
   N4h  SN2r  1 4.300000e-01    3.160000e+00
   N4r  SN2h  1 4.300000e-01    3.160000e+00
   N4h  SN1r  1 4.300000e-01    2.920000e+00
   N4r  SN1h  1 4.300000e-01    2.920000e+00
   N4h SN4dr  1 4.300000e-01    3.380000e+00
   N4r SN4dh  1 4.300000e-01    3.380000e+00
   N4h SN3dr  1 4.300000e-01    3.160000e+00
   N4r SN3dh  1 4.300000e-01    3.160000e+00
   N4h SN2dr  1 4.300000e-01    3.160000e+00
   N4r SN2dh  1 4.300000e-01    3.160000e+00
   N4h SN1dr  1 4.300000e-01    2.920000e+00
   N4r SN1dh  1 4.300000e-01    2.920000e+00
   N4h SN4ar  1 4.300000e-01    3.380000e+00
   N4r SN4ah  1 4.300000e-01    3.380000e+00
   N4h SN3ar  1 4.300000e-01    3.160000e+00
   N4r SN3ah  1 4.300000e-01    3.160000e+00
   N4h SN2ar  1 4.300000e-01    3.160000e+00
   N4r SN2ah  1 4.300000e-01    3.160000e+00
   N4h SN1ar  1 4.300000e-01    2.920000e+00
   N4r SN1ah  1 4.300000e-01    2.920000e+00
   N3h  SN3r  1 4.300000e-01    3.160000e+00
   N3h  SN2r  1 4.300000e-01    3.160000e+00
   N3r  SN2h  1 4.300000e-01    3.160000e+00
   N3h  SN1r  1 4.300000e-01    2.920000e+00
   N3r  SN1h  1 4.300000e-01    2.920000e+00
   N3h SN3dr  1 4.300000e-01    3.160000e+00
   N3r SN3dh  1 4.300000e-01    3.160000e+00
   N3h SN2dr  1 4.300000e-01    3.160000e+00
   N3r SN2dh  1 4.300000e-01    3.160000e+00
   N3h SN1dr  1 4.300000e-01    2.920000e+00
   N3r SN1dh  1 4.300000e-01    2.920000e+00
   N3h SN3ar  1 4.300000e-01    3.160000e+00
   N3r SN3ah  1 4.300000e-01    3.160000e+00
   N3h SN2ar  1 4.300000e-01    3.160000e+00
   N3r SN2ah  1 4.300000e-01    3.160000e+00
   N3h SN1ar  1 4.300000e-01    2.920000e+00
   N3r SN1ah  1 4.300000e-01    2.920000e+00
   N2h  SN2r  1 4.300000e-01    3.160000e+00
   N2h  SN1r  1 4.300000e-01    2.920000e+00
   N2r  SN1h  1 4.300000e-01    2.920000e+00
   N2h SN2dr  1 4.300000e-01    3.160000e+00
   N2r SN2dh  1 4.300000e-01    3.160000e+00
   N2h SN1dr  1 4.300000e-01    2.920000e+00
   N2r SN1dh  1 4.300000e-01    2.920000e+00
   N2h SN2ar  1 4.300000e-01    3.160000e+00
   N2r SN2ah  1 4.300000e-01    3.160000e+00
   N2h SN1ar  1 4.300000e-01    2.920000e+00
   N2r SN1ah  1 4.300000e-01    2.920000e+00
   N1h  SN1r  1 4.300000e-01    3.160000e+00
   N1h SN1dr  1 4.300000e-01    3.160000e+00
   N1r SN1dh  1 4.300000e-01    3.160000e+00
   N1h SN1ar  1 4.300000e-01    3.160000e+00
   N1r SN1ah  1 4.300000e-01    3.160000e+00
  P6dh  SP5r  1 4.300000e-01    4.400000e+00
  P6dr  SP5h  1 4.300000e-01    4.400000e+00
  P6dh  SP4r  1 4.300000e-01    4.170000e+00
  P6dr  SP4h  1 4.300000e-01    4.170000e+00
  P6dh  SP3r  1 4.300000e-01    3.970000e+00
  P6dr  SP3h  1 4.300000e-01    3.970000e+00
  P6dh  SP2r  1 4.300000e-01    3.970000e+00
  P6dr  SP2h  1 4.300000e-01    3.970000e+00
  P6dh  SP1r  1 4.300000e-01    3.770000e+00
  P6dr  SP1h  1 4.300000e-01    3.770000e+00
  P6dh  SN6r  1 4.300000e-01    3.590000e+00
  P6dr  SN6h  1 4.300000e-01    3.590000e+00
  P6dh  SN5r  1 4.300000e-01    3.160000e+00
  P6dr  SN5h  1 4.300000e-01    3.160000e+00
  P6dh  SN4r  1 4.300000e-01    2.920000e+00
  P6dr  SN4h  1 4.300000e-01    2.920000e+00
  P6dh  SN3r  1 4.300000e-01    2.770000e+00
  P6dr  SN3h  1 4.300000e-01    2.770000e+00
  P6dh  SN2r  1 4.300000e-01    2.530000e+00
  P6dr  SN2h  1 4.300000e-01    2.530000e+00
  P6dh  SN1r  1 4.300000e-01    2.320000e+00
  P6dr  SN1h  1 4.300000e-01    2.320000e+00
  P5dh  SP4r  1 4.300000e-01    3.970000e+00
  P5dr  SP4h  1 4.300000e-01    3.970000e+00
  P5dh  SP3r  1 4.300000e-01    3.770000e+00
  P5dr  SP3h  1 4.300000e-01    3.770000e+00
  P5dh  SP2r  1 4.300000e-01    3.770000e+00
  P5dr  SP2h  1 4.300000e-01    3.770000e+00
  P5dh  SP1r  1 4.300000e-01    3.590000e+00
  P5dr  SP1h  1 4.300000e-01    3.590000e+00
  P5dh  SN6r  1 4.300000e-01    3.380000e+00
  P5dr  SN6h  1 4.300000e-01    3.380000e+00
  P5dh  SN5r  1 4.300000e-01    3.160000e+00
  P5dr  SN5h  1 4.300000e-01    3.160000e+00
  P5dh  SN4r  1 4.300000e-01    3.160000e+00
  P5dr  SN4h  1 4.300000e-01    3.160000e+00
  P5dh  SN3r  1 4.300000e-01    2.770000e+00
  P5dr  SN3h  1 4.300000e-01    2.770000e+00
  P5dh  SN2r  1 4.300000e-01    2.530000e+00
  P5dr  SN2h  1 4.300000e-01    2.530000e+00
  P5dh  SN1r  1 4.300000e-01    2.320000e+00
  P5dr  SN1h  1 4.300000e-01    2.320000e+00
  P4dh  SP3r  1 4.300000e-01    3.770000e+00
  P4dr  SP3h  1 4.300000e-01    3.770000e+00
  P4dh  SP2r  1 4.300000e-01    3.770000e+00
  P4dr  SP2h  1 4.300000e-01    3.770000e+00
  P4dh  SP1r  1 4.300000e-01    3.590000e+00
  P4dr  SP1h  1 4.300000e-01    3.590000e+00
  P4dh  SN6r  1 4.300000e-01    3.380000e+00
  P4dr  SN6h  1 4.300000e-01    3.380000e+00
  P4dh  SN5r  1 4.300000e-01    3.160000e+00
  P4dr  SN5h  1 4.300000e-01    3.160000e+00
  P4dh  SN4r  1 4.300000e-01    3.160000e+00
  P4dr  SN4h  1 4.300000e-01    3.160000e+00
  P4dh  SN3r  1 4.300000e-01    2.920000e+00
  P4dr  SN3h  1 4.300000e-01    2.920000e+00
  P4dh  SN2r  1 4.300000e-01    2.770000e+00
  P4dr  SN2h  1 4.300000e-01    2.770000e+00
  P4dh  SN1r  1 4.300000e-01    2.530000e+00
  P4dr  SN1h  1 4.300000e-01    2.530000e+00
  P3dh  SP2r  1 4.300000e-01    3.770000e+00
  P3dr  SP2h  1 4.300000e-01    3.770000e+00
  P3dh  SP1r  1 4.300000e-01    3.590000e+00
  P3dr  SP1h  1 4.300000e-01    3.590000e+00
  P3dh  SN6r  1 4.300000e-01    3.380000e+00
  P3dr  SN6h  1 4.300000e-01    3.380000e+00
  P3dh  SN5r  1 4.300000e-01    3.160000e+00
  P3dr  SN5h  1 4.300000e-01    3.160000e+00
  P3dh  SN4r  1 4.300000e-01    3.160000e+00
  P3dr  SN4h  1 4.300000e-01    3.160000e+00
  P3dh  SN3r  1 4.300000e-01    2.920000e+00
  P3dr  SN3h  1 4.300000e-01    2.920000e+00
  P3dh  SN2r  1 4.300000e-01    2.920000e+00
  P3dr  SN2h  1 4.300000e-01    2.920000e+00
  P3dh  SN1r  1 4.300000e-01    2.770000e+00
  P3dr  SN1h  1 4.300000e-01    2.770000e+00
  P2dh  SP1r  1 4.300000e-01    3.590000e+00
  P2dr  SP1h  1 4.300000e-01    3.590000e+00
  P2dh  SN6r  1 4.300000e-01    3.590000e+00
  P2dr  SN6h  1 4.300000e-01    3.590000e+00
  P2dh  SN5r  1 4.300000e-01    3.380000e+00
  P2dr  SN5h  1 4.300000e-01    3.380000e+00
  P2dh  SN4r  1 4.300000e-01    3.160000e+00
  P2dr  SN4h  1 4.300000e-01    3.160000e+00
  P2dh  SN3r  1 4.300000e-01    2.920000e+00
  P2dr  SN3h  1 4.300000e-01    2.920000e+00
  P2dh  SN2r  1 4.300000e-01    2.920000e+00
  P2dr  SN2h  1 4.300000e-01    2.920000e+00
  P2dh  SN1r  1 4.300000e-01    2.920000e+00
  P2dr  SN1h  1 4.300000e-01    2.920000e+00
  P1dh  SN6r  1 4.300000e-01    3.590000e+00
  P1dr  SN6h  1 4.300000e-01    3.590000e+00
  P1dh  SN5r  1 4.300000e-01    3.380000e+00
  P1dr  SN5h  1 4.300000e-01    3.380000e+00
  P1dh  SN4r  1 4.300000e-01    3.380000e+00
  P1dr  SN4h  1 4.300000e-01    3.380000e+00
  P1dh  SN3r  1 4.300000e-01    2.920000e+00
  P1dr  SN3h  1 4.300000e-01    2.920000e+00
  P1dh  SN2r  1 4.300000e-01    2.920000e+00
  P1dr  SN2h  1 4.300000e-01    2.920000e+00
  P1dh  SN1r  1 4.300000e-01    2.920000e+00
  P1dr  SN1h  1 4.300000e-01    2.920000e+00
  N6dh  SN5r  1 4.300000e-01    3.590000e+00
  N6dr  SN5h  1 4.300000e-01    3.590000e+00
  N6dh  SN4r  1 4.300000e-01    3.590000e+00
  N6dr  SN4h  1 4.300000e-01    3.590000e+00
  N6dh  SN3r  1 4.300000e-01    3.160000e+00
  N6dr  SN3h  1 4.300000e-01    3.160000e+00
  N6dh  SN2r  1 4.300000e-01    2.920000e+00
  N6dr  SN2h  1 4.300000e-01    2.920000e+00
  N6dh  SN1r  1 4.300000e-01    2.920000e+00
  N6dr  SN1h  1 4.300000e-01    2.920000e+00
  N5dh  SN4r  1 4.300000e-01    3.380000e+00
  N5dr  SN4h  1 4.300000e-01    3.380000e+00
  N5dh  SN3r  1 4.300000e-01    3.160000e+00
  N5dr  SN3h  1 4.300000e-01    3.160000e+00
  N5dh  SN2r  1 4.300000e-01    3.160000e+00
  N5dr  SN2h  1 4.300000e-01    3.160000e+00
  N5dh  SN1r  1 4.300000e-01    2.920000e+00
  N5dr  SN1h  1 4.300000e-01    2.920000e+00
  N4dh  SN3r  1 4.300000e-01    3.160000e+00
  N4dr  SN3h  1 4.300000e-01    3.160000e+00
  N4dh  SN2r  1 4.300000e-01    3.160000e+00
  N4dr  SN2h  1 4.300000e-01    3.160000e+00
  N4dh  SN1r  1 4.300000e-01    2.920000e+00
  N4dr  SN1h  1 4.300000e-01    2.920000e+00
  N3dh  SN2r  1 4.300000e-01    3.160000e+00
  N3dr  SN2h  1 4.300000e-01    3.160000e+00
  N3dh  SN1r  1 4.300000e-01    2.920000e+00
  N3dr  SN1h  1 4.300000e-01    2.920000e+00
  N2dh  SN1r  1 4.300000e-01    2.920000e+00
  N2dr  SN1h  1 4.300000e-01    2.920000e+00
  P6ah  SP5r  1 4.300000e-01    4.400000e+00
  P6ar  SP5h  1 4.300000e-01    4.400000e+00
  P6ah  SP4r  1 4.300000e-01    4.170000e+00
  P6ar  SP4h  1 4.300000e-01    4.170000e+00
  P6ah  SP3r  1 4.300000e-01    3.970000e+00
  P6ar  SP3h  1 4.300000e-01    3.970000e+00
  P6ah  SP2r  1 4.300000e-01    3.970000e+00
  P6ar  SP2h  1 4.300000e-01    3.970000e+00
  P6ah  SP1r  1 4.300000e-01    3.770000e+00
  P6ar  SP1h  1 4.300000e-01    3.770000e+00
  P6ah  SN6r  1 4.300000e-01    3.590000e+00
  P6ar  SN6h  1 4.300000e-01    3.590000e+00
  P6ah  SN5r  1 4.300000e-01    3.160000e+00
  P6ar  SN5h  1 4.300000e-01    3.160000e+00
  P6ah  SN4r  1 4.300000e-01    2.920000e+00
  P6ar  SN4h  1 4.300000e-01    2.920000e+00
  P6ah  SN3r  1 4.300000e-01    2.770000e+00
  P6ar  SN3h  1 4.300000e-01    2.770000e+00
  P6ah  SN2r  1 4.300000e-01    2.530000e+00
  P6ar  SN2h  1 4.300000e-01    2.530000e+00
  P6ah  SN1r  1 4.300000e-01    2.320000e+00
  P6ar  SN1h  1 4.300000e-01    2.320000e+00
  P5ah  SP4r  1 4.300000e-01    3.970000e+00
  P5ar  SP4h  1 4.300000e-01    3.970000e+00
  P5ah  SP3r  1 4.300000e-01    3.770000e+00
  P5ar  SP3h  1 4.300000e-01    3.770000e+00
  P5ah  SP2r  1 4.300000e-01    3.770000e+00
  P5ar  SP2h  1 4.300000e-01    3.770000e+00
  P5ah  SP1r  1 4.300000e-01    3.590000e+00
  P5ar  SP1h  1 4.300000e-01    3.590000e+00
  P5ah  SN6r  1 4.300000e-01    3.380000e+00
  P5ar  SN6h  1 4.300000e-01    3.380000e+00
  P5ah  SN5r  1 4.300000e-01    3.160000e+00
  P5ar  SN5h  1 4.300000e-01    3.160000e+00
  P5ah  SN4r  1 4.300000e-01    3.160000e+00
  P5ar  SN4h  1 4.300000e-01    3.160000e+00
  P5ah  SN3r  1 4.300000e-01    2.770000e+00
  P5ar  SN3h  1 4.300000e-01    2.770000e+00
  P5ah  SN2r  1 4.300000e-01    2.530000e+00
  P5ar  SN2h  1 4.300000e-01    2.530000e+00
  P5ah  SN1r  1 4.300000e-01    2.320000e+00
  P5ar  SN1h  1 4.300000e-01    2.320000e+00
  P4ah  SP3r  1 4.300000e-01    3.770000e+00
  P4ar  SP3h  1 4.300000e-01    3.770000e+00
  P4ah  SP2r  1 4.300000e-01    3.770000e+00
  P4ar  SP2h  1 4.300000e-01    3.770000e+00
  P4ah  SP1r  1 4.300000e-01    3.590000e+00
  P4ar  SP1h  1 4.300000e-01    3.590000e+00
  P4ah  SN6r  1 4.300000e-01    3.380000e+00
  P4ar  SN6h  1 4.300000e-01    3.380000e+00
  P4ah  SN5r  1 4.300000e-01    3.160000e+00
  P4ar  SN5h  1 4.300000e-01    3.160000e+00
  P4ah  SN4r  1 4.300000e-01    3.160000e+00
  P4ar  SN4h  1 4.300000e-01    3.160000e+00
  P4ah  SN3r  1 4.300000e-01    2.920000e+00
  P4ar  SN3h  1 4.300000e-01    2.920000e+00
  P4ah  SN2r  1 4.300000e-01    2.770000e+00
  P4ar  SN2h  1 4.300000e-01    2.770000e+00
  P4ah  SN1r  1 4.300000e-01    2.530000e+00
  P4ar  SN1h  1 4.300000e-01    2.530000e+00
  P3ah  SP2r  1 4.300000e-01    3.770000e+00
  P3ar  SP2h  1 4.300000e-01    3.770000e+00
  P3ah  SP1r  1 4.300000e-01    3.590000e+00
  P3ar  SP1h  1 4.300000e-01    3.590000e+00
  P3ah  SN6r  1 4.300000e-01    3.380000e+00
  P3ar  SN6h  1 4.300000e-01    3.380000e+00
  P3ah  SN5r  1 4.300000e-01    3.160000e+00
  P3ar  SN5h  1 4.300000e-01    3.160000e+00
  P3ah  SN4r  1 4.300000e-01    3.160000e+00
  P3ar  SN4h  1 4.300000e-01    3.160000e+00
  P3ah  SN3r  1 4.300000e-01    2.920000e+00
  P3ar  SN3h  1 4.300000e-01    2.920000e+00
  P3ah  SN2r  1 4.300000e-01    2.920000e+00
  P3ar  SN2h  1 4.300000e-01    2.920000e+00
  P3ah  SN1r  1 4.300000e-01    2.770000e+00
  P3ar  SN1h  1 4.300000e-01    2.770000e+00
  P2ah  SP1r  1 4.300000e-01    3.590000e+00
  P2ar  SP1h  1 4.300000e-01    3.590000e+00
  P2ah  SN6r  1 4.300000e-01    3.590000e+00
  P2ar  SN6h  1 4.300000e-01    3.590000e+00
  P2ah  SN5r  1 4.300000e-01    3.380000e+00
  P2ar  SN5h  1 4.300000e-01    3.380000e+00
  P2ah  SN4r  1 4.300000e-01    3.160000e+00
  P2ar  SN4h  1 4.300000e-01    3.160000e+00
  P2ah  SN3r  1 4.300000e-01    2.920000e+00
  P2ar  SN3h  1 4.300000e-01    2.920000e+00
  P2ah  SN2r  1 4.300000e-01    2.920000e+00
  P2ar  SN2h  1 4.300000e-01    2.920000e+00
  P2ah  SN1r  1 4.300000e-01    2.920000e+00
  P2ar  SN1h  1 4.300000e-01    2.920000e+00
  P1ah  SN6r  1 4.300000e-01    3.590000e+00
  P1ar  SN6h  1 4.300000e-01    3.590000e+00
  P1ah  SN5r  1 4.300000e-01    3.380000e+00
  P1ar  SN5h  1 4.300000e-01    3.380000e+00
  P1ah  SN4r  1 4.300000e-01    3.380000e+00
  P1ar  SN4h  1 4.300000e-01    3.380000e+00
  P1ah  SN3r  1 4.300000e-01    2.920000e+00
  P1ar  SN3h  1 4.300000e-01    2.920000e+00
  P1ah  SN2r  1 4.300000e-01    2.920000e+00
  P1ar  SN2h  1 4.300000e-01    2.920000e+00
  P1ah  SN1r  1 4.300000e-01    2.920000e+00
  P1ar  SN1h  1 4.300000e-01    2.920000e+00
  N6ah  SN5r  1 4.300000e-01    3.590000e+00
  N6ar  SN5h  1 4.300000e-01    3.590000e+00
  N6ah  SN4r  1 4.300000e-01    3.590000e+00
  N6ar  SN4h  1 4.300000e-01    3.590000e+00
  N6ah  SN3r  1 4.300000e-01    3.160000e+00
  N6ar  SN3h  1 4.300000e-01    3.160000e+00
  N6ah  SN2r  1 4.300000e-01    2.920000e+00
  N6ar  SN2h  1 4.300000e-01    2.920000e+00
  N6ah  SN1r  1 4.300000e-01    2.920000e+00
  N6ar  SN1h  1 4.300000e-01    2.920000e+00
  N5ah  SN4r  1 4.300000e-01    3.380000e+00
  N5ar  SN4h  1 4.300000e-01    3.380000e+00
  N5ah  SN3r  1 4.300000e-01    3.160000e+00
  N5ar  SN3h  1 4.300000e-01    3.160000e+00
  N5ah  SN2r  1 4.300000e-01    3.160000e+00
  N5ar  SN2h  1 4.300000e-01    3.160000e+00
  N5ah  SN1r  1 4.300000e-01    2.920000e+00
  N5ar  SN1h  1 4.300000e-01    2.920000e+00
  N4ah  SN3r  1 4.300000e-01    3.160000e+00
  N4ar  SN3h  1 4.300000e-01    3.160000e+00
  N4ah  SN2r  1 4.300000e-01    3.160000e+00
  N4ar  SN2h  1 4.300000e-01    3.160000e+00
  N4ah  SN1r  1 4.300000e-01    2.920000e+00
  N4ar  SN1h  1 4.300000e-01    2.920000e+00
  N3ah  SN2r  1 4.300000e-01    3.160000e+00
  N3ar  SN2h  1 4.300000e-01    3.160000e+00
  N3ah  SN1r  1 4.300000e-01    2.920000e+00
  N3ar  SN1h  1 4.300000e-01    2.920000e+00
  N2ah  SN1r  1 4.300000e-01    2.920000e+00
  N2ar  SN1h  1 4.300000e-01    2.920000e+00
   C6h  SC6r  1 4.300000e-01    3.160000e+00
   C6h  SC5r  1 4.300000e-01    2.920000e+00
   C6r  SC5h  1 4.300000e-01    2.920000e+00
   C6h  SC4r  1 4.300000e-01    2.920000e+00
   C6r  SC4h  1 4.300000e-01    2.920000e+00
   C6h  SC3r  1 4.300000e-01    2.770000e+00
   C6r  SC3h  1 4.300000e-01    2.770000e+00
   C6h  SC2r  1 4.300000e-01    2.530000e+00
   C6r  SC2h  1 4.300000e-01    2.530000e+00
   C6h  SC1r  1 4.300000e-01    2.320000e+00
   C6r  SC1h  1 4.300000e-01    2.320000e+00
   C6h  SX4r  1 4.300000e-01    2.920000e+00
   C6r  SX4h  1 4.300000e-01    2.920000e+00
   C6h  SX3r  1 4.300000e-01    2.920000e+00
   C6r  SX3h  1 4.300000e-01    2.920000e+00
   C6h  SX2r  1 4.300000e-01    2.920000e+00
   C6r  SX2h  1 4.300000e-01    2.920000e+00
   C6h  SX1r  1 4.300000e-01    2.920000e+00
   C6r  SX1h  1 4.300000e-01    2.920000e+00
   C6h SC6vr  1 4.300000e-01    3.380000e+00
   C6r SC6vh  1 4.300000e-01    3.380000e+00
   C6h SC5vr  1 4.300000e-01    3.160000e+00
   C6r SC5vh  1 4.300000e-01    3.160000e+00
   C6h SC4vr  1 4.300000e-01    3.160000e+00
   C6r SC4vh  1 4.300000e-01    3.160000e+00
   C6h SC3vr  1 4.300000e-01    2.920000e+00
   C6r SC3vh  1 4.300000e-01    2.920000e+00
   C6h SC2vr  1 4.300000e-01    2.770000e+00
   C6r SC2vh  1 4.300000e-01    2.770000e+00
   C6h SC1vr  1 4.300000e-01    2.530000e+00
   C6r SC1vh  1 4.300000e-01    2.530000e+00
   C6h SX4vr  1 4.300000e-01    3.160000e+00
   C6r SX4vh  1 4.300000e-01    3.160000e+00
   C6h SX3vr  1 4.300000e-01    3.160000e+00
   C6r SX3vh  1 4.300000e-01    3.160000e+00
   C6h SX2vr  1 4.300000e-01    3.160000e+00
   C6r SX2vh  1 4.300000e-01    3.160000e+00
   C6h SX1vr  1 4.300000e-01    3.160000e+00
   C6r SX1vh  1 4.300000e-01    3.160000e+00
   C6h SC6er  1 4.300000e-01    3.380000e+00
   C6r SC6eh  1 4.300000e-01    3.380000e+00
   C6h SC5er  1 4.300000e-01    3.160000e+00
   C6r SC5eh  1 4.300000e-01    3.160000e+00
   C6h SC4er  1 4.300000e-01    3.160000e+00
   C6r SC4eh  1 4.300000e-01    3.160000e+00
   C6h SC3er  1 4.300000e-01    2.920000e+00
   C6r SC3eh  1 4.300000e-01    2.920000e+00
   C6h SC2er  1 4.300000e-01    2.770000e+00
   C6r SC2eh  1 4.300000e-01    2.770000e+00
   C6h SC1er  1 4.300000e-01    2.530000e+00
   C6r SC1eh  1 4.300000e-01    2.530000e+00
   C6h SX4er  1 4.300000e-01    3.160000e+00
   C6r SX4eh  1 4.300000e-01    3.160000e+00
   C6h SX3er  1 4.300000e-01    3.160000e+00
   C6r SX3eh  1 4.300000e-01    3.160000e+00
   C6h SX2er  1 4.300000e-01    3.160000e+00
   C6r SX2eh  1 4.300000e-01    3.160000e+00
   C6h SX1er  1 4.300000e-01    3.160000e+00
   C6r SX1eh  1 4.300000e-01    3.160000e+00
   C5h  SC5r  1 4.300000e-01    2.920000e+00
   C5h  SC4r  1 4.300000e-01    2.920000e+00
   C5r  SC4h  1 4.300000e-01    2.920000e+00
   C5h  SC3r  1 4.300000e-01    2.770000e+00
   C5r  SC3h  1 4.300000e-01    2.770000e+00
   C5h  SC2r  1 4.300000e-01    2.530000e+00
   C5r  SC2h  1 4.300000e-01    2.530000e+00
   C5h  SC1r  1 4.300000e-01    2.530000e+00
   C5r  SC1h  1 4.300000e-01    2.530000e+00
   C5h  SX4r  1 4.300000e-01    2.770000e+00
   C5r  SX4h  1 4.300000e-01    2.770000e+00
   C5h  SX3r  1 4.300000e-01    2.770000e+00
   C5r  SX3h  1 4.300000e-01    2.770000e+00
   C5h  SX2r  1 4.300000e-01    2.770000e+00
   C5r  SX2h  1 4.300000e-01    2.770000e+00
   C5h  SX1r  1 4.300000e-01    2.920000e+00
   C5r  SX1h  1 4.300000e-01    2.920000e+00
   C5h SC5vr  1 4.300000e-01    3.160000e+00
   C5r SC5vh  1 4.300000e-01    3.160000e+00
   C5h SC4vr  1 4.300000e-01    3.160000e+00
   C5r SC4vh  1 4.300000e-01    3.160000e+00
   C5h SC3vr  1 4.300000e-01    2.920000e+00
   C5r SC3vh  1 4.300000e-01    2.920000e+00
   C5h SC2vr  1 4.300000e-01    2.770000e+00
   C5r SC2vh  1 4.300000e-01    2.770000e+00
   C5h SC1vr  1 4.300000e-01    2.770000e+00
   C5r SC1vh  1 4.300000e-01    2.770000e+00
   C5h SX4vr  1 4.300000e-01    2.920000e+00
   C5r SX4vh  1 4.300000e-01    2.920000e+00
   C5h SX3vr  1 4.300000e-01    2.920000e+00
   C5r SX3vh  1 4.300000e-01    2.920000e+00
   C5h SX2vr  1 4.300000e-01    2.920000e+00
   C5r SX2vh  1 4.300000e-01    2.920000e+00
   C5h SX1vr  1 4.300000e-01    3.160000e+00
   C5r SX1vh  1 4.300000e-01    3.160000e+00
   C5h SC5er  1 4.300000e-01    3.160000e+00
   C5r SC5eh  1 4.300000e-01    3.160000e+00
   C5h SC4er  1 4.300000e-01    3.160000e+00
   C5r SC4eh  1 4.300000e-01    3.160000e+00
   C5h SC3er  1 4.300000e-01    2.920000e+00
   C5r SC3eh  1 4.300000e-01    2.920000e+00
   C5h SC2er  1 4.300000e-01    2.770000e+00
   C5r SC2eh  1 4.300000e-01    2.770000e+00
   C5h SC1er  1 4.300000e-01    2.770000e+00
   C5r SC1eh  1 4.300000e-01    2.770000e+00
   C5h SX4er  1 4.300000e-01    2.920000e+00
   C5r SX4eh  1 4.300000e-01    2.920000e+00
   C5h SX3er  1 4.300000e-01    2.920000e+00
   C5r SX3eh  1 4.300000e-01    2.920000e+00
   C5h SX2er  1 4.300000e-01    2.920000e+00
   C5r SX2eh  1 4.300000e-01    2.920000e+00
   C5h SX1er  1 4.300000e-01    3.160000e+00
   C5r SX1eh  1 4.300000e-01    3.160000e+00
   C4h  SC4r  1 4.300000e-01    2.920000e+00
   C4h  SC3r  1 4.300000e-01    2.920000e+00
   C4r  SC3h  1 4.300000e-01    2.920000e+00
   C4h  SC2r  1 4.300000e-01    2.770000e+00
   C4r  SC2h  1 4.300000e-01    2.770000e+00
   C4h  SC1r  1 4.300000e-01    2.530000e+00
   C4r  SC1h  1 4.300000e-01    2.530000e+00
   C4h  SX4r  1 4.300000e-01    2.770000e+00
   C4r  SX4h  1 4.300000e-01    2.770000e+00
   C4h  SX3r  1 4.300000e-01    2.770000e+00
   C4r  SX3h  1 4.300000e-01    2.770000e+00
   C4h  SX2r  1 4.300000e-01    2.770000e+00
   C4r  SX2h  1 4.300000e-01    2.770000e+00
   C4h  SX1r  1 4.300000e-01    2.920000e+00
   C4r  SX1h  1 4.300000e-01    2.920000e+00
   C4h SC4vr  1 4.300000e-01    3.160000e+00
   C4r SC4vh  1 4.300000e-01    3.160000e+00
   C4h SC3vr  1 4.300000e-01    3.160000e+00
   C4r SC3vh  1 4.300000e-01    3.160000e+00
   C4h SC2vr  1 4.300000e-01    2.920000e+00
   C4r SC2vh  1 4.300000e-01    2.920000e+00
   C4h SC1vr  1 4.300000e-01    2.770000e+00
   C4r SC1vh  1 4.300000e-01    2.770000e+00
   C4h SX4vr  1 4.300000e-01    2.920000e+00
   C4r SX4vh  1 4.300000e-01    2.920000e+00
   C4h SX3vr  1 4.300000e-01    2.920000e+00
   C4r SX3vh  1 4.300000e-01    2.920000e+00
   C4h SX2vr  1 4.300000e-01    2.920000e+00
   C4r SX2vh  1 4.300000e-01    2.920000e+00
   C4h SX1vr  1 4.300000e-01    3.160000e+00
   C4r SX1vh  1 4.300000e-01    3.160000e+00
   C4h SC4er  1 4.300000e-01    3.160000e+00
   C4r SC4eh  1 4.300000e-01    3.160000e+00
   C4h SC3er  1 4.300000e-01    3.160000e+00
   C4r SC3eh  1 4.300000e-01    3.160000e+00
   C4h SC2er  1 4.300000e-01    2.920000e+00
   C4r SC2eh  1 4.300000e-01    2.920000e+00
   C4h SC1er  1 4.300000e-01    2.770000e+00
   C4r SC1eh  1 4.300000e-01    2.770000e+00
   C4h SX4er  1 4.300000e-01    2.920000e+00
   C4r SX4eh  1 4.300000e-01    2.920000e+00
   C4h SX3er  1 4.300000e-01    2.920000e+00
   C4r SX3eh  1 4.300000e-01    2.920000e+00
   C4h SX2er  1 4.300000e-01    2.920000e+00
   C4r SX2eh  1 4.300000e-01    2.920000e+00
   C4h SX1er  1 4.300000e-01    3.160000e+00
   C4r SX1eh  1 4.300000e-01    3.160000e+00
   C3h  SC3r  1 4.300000e-01    2.920000e+00
   C3h  SC2r  1 4.300000e-01    2.920000e+00
   C3r  SC2h  1 4.300000e-01    2.920000e+00
   C3h  SC1r  1 4.300000e-01    2.920000e+00
   C3r  SC1h  1 4.300000e-01    2.920000e+00
   C3h  SX4r  1 4.300000e-01    2.770000e+00
   C3r  SX4h  1 4.300000e-01    2.770000e+00
   C3h  SX3r  1 4.300000e-01    2.770000e+00
   C3r  SX3h  1 4.300000e-01    2.770000e+00
   C3h  SX2r  1 4.300000e-01    2.770000e+00
   C3r  SX2h  1 4.300000e-01    2.770000e+00
   C3h  SX1r  1 4.300000e-01    2.920000e+00
   C3r  SX1h  1 4.300000e-01    2.920000e+00
   C3h SC3vr  1 4.300000e-01    3.160000e+00
   C3r SC3vh  1 4.300000e-01    3.160000e+00
   C3h SC2vr  1 4.300000e-01    3.160000e+00
   C3r SC2vh  1 4.300000e-01    3.160000e+00
   C3h SC1vr  1 4.300000e-01    3.160000e+00
   C3r SC1vh  1 4.300000e-01    3.160000e+00
   C3h SX4vr  1 4.300000e-01    2.920000e+00
   C3r SX4vh  1 4.300000e-01    2.920000e+00
   C3h SX3vr  1 4.300000e-01    2.920000e+00
   C3r SX3vh  1 4.300000e-01    2.920000e+00
   C3h SX2vr  1 4.300000e-01    2.920000e+00
   C3r SX2vh  1 4.300000e-01    2.920000e+00
   C3h SX1vr  1 4.300000e-01    3.160000e+00
   C3r SX1vh  1 4.300000e-01    3.160000e+00
   C3h SC3er  1 4.300000e-01    3.160000e+00
   C3r SC3eh  1 4.300000e-01    3.160000e+00
   C3h SC2er  1 4.300000e-01    3.160000e+00
   C3r SC2eh  1 4.300000e-01    3.160000e+00
   C3h SC1er  1 4.300000e-01    3.160000e+00
   C3r SC1eh  1 4.300000e-01    3.160000e+00
   C3h SX4er  1 4.300000e-01    2.920000e+00
   C3r SX4eh  1 4.300000e-01    2.920000e+00
   C3h SX3er  1 4.300000e-01    2.920000e+00
   C3r SX3eh  1 4.300000e-01    2.920000e+00
   C3h SX2er  1 4.300000e-01    2.920000e+00
   C3r SX2eh  1 4.300000e-01    2.920000e+00
   C3h SX1er  1 4.300000e-01    3.160000e+00
   C3r SX1eh  1 4.300000e-01    3.160000e+00
   C2h  SC2r  1 4.300000e-01    2.920000e+00
   C2h  SC1r  1 4.300000e-01    3.160000e+00
   C2r  SC1h  1 4.300000e-01    3.160000e+00
   C2h  SX4r  1 4.300000e-01    2.320000e+00
   C2r  SX4h  1 4.300000e-01    2.320000e+00
   C2h  SX3r  1 4.300000e-01    2.770000e+00
   C2r  SX3h  1 4.300000e-01    2.770000e+00
   C2h  SX2r  1 4.300000e-01    2.770000e+00
   C2r  SX2h  1 4.300000e-01    2.770000e+00
   C2h  SX1r  1 4.300000e-01    2.770000e+00
   C2r  SX1h  1 4.300000e-01    2.770000e+00
   C2h SC2vr  1 4.300000e-01    3.160000e+00
   C2r SC2vh  1 4.300000e-01    3.160000e+00
   C2h SC1vr  1 4.300000e-01    3.380000e+00
   C2r SC1vh  1 4.300000e-01    3.380000e+00
   C2h SX4vr  1 4.300000e-01    2.530000e+00
   C2r SX4vh  1 4.300000e-01    2.530000e+00
   C2h SX3vr  1 4.300000e-01    2.920000e+00
   C2r SX3vh  1 4.300000e-01    2.920000e+00
   C2h SX2vr  1 4.300000e-01    2.920000e+00
   C2r SX2vh  1 4.300000e-01    2.920000e+00
   C2h SX1vr  1 4.300000e-01    2.920000e+00
   C2r SX1vh  1 4.300000e-01    2.920000e+00
   C2h SC2er  1 4.300000e-01    3.160000e+00
   C2r SC2eh  1 4.300000e-01    3.160000e+00
   C2h SC1er  1 4.300000e-01    3.380000e+00
   C2r SC1eh  1 4.300000e-01    3.380000e+00
   C2h SX4er  1 4.300000e-01    2.530000e+00
   C2r SX4eh  1 4.300000e-01    2.530000e+00
   C2h SX3er  1 4.300000e-01    2.920000e+00
   C2r SX3eh  1 4.300000e-01    2.920000e+00
   C2h SX2er  1 4.300000e-01    2.920000e+00
   C2r SX2eh  1 4.300000e-01    2.920000e+00
   C2h SX1er  1 4.300000e-01    2.920000e+00
   C2r SX1eh  1 4.300000e-01    2.920000e+00
   C1h  SC1r  1 4.300000e-01    2.920000e+00
   C1h  SX4r  1 4.300000e-01    2.320000e+00
   C1r  SX4h  1 4.300000e-01    2.320000e+00
   C1h  SX3r  1 4.300000e-01    2.770000e+00
   C1r  SX3h  1 4.300000e-01    2.770000e+00
   C1h  SX2r  1 4.300000e-01    2.770000e+00
   C1r  SX2h  1 4.300000e-01    2.770000e+00
   C1h  SX1r  1 4.300000e-01    2.770000e+00
   C1r  SX1h  1 4.300000e-01    2.770000e+00
   C1h SC1vr  1 4.300000e-01    3.160000e+00
   C1r SC1vh  1 4.300000e-01    3.160000e+00
   C1h SX4vr  1 4.300000e-01    2.530000e+00
   C1r SX4vh  1 4.300000e-01    2.530000e+00
   C1h SX3vr  1 4.300000e-01    2.920000e+00
   C1r SX3vh  1 4.300000e-01    2.920000e+00
   C1h SX2vr  1 4.300000e-01    2.920000e+00
   C1r SX2vh  1 4.300000e-01    2.920000e+00
   C1h SX1vr  1 4.300000e-01    2.920000e+00
   C1r SX1vh  1 4.300000e-01    2.920000e+00
   C1h SC1er  1 4.300000e-01    3.160000e+00
   C1r SC1eh  1 4.300000e-01    3.160000e+00
   C1h SX4er  1 4.300000e-01    2.530000e+00
   C1r SX4eh  1 4.300000e-01    2.530000e+00
   C1h SX3er  1 4.300000e-01    2.920000e+00
   C1r SX3eh  1 4.300000e-01    2.920000e+00
   C1h SX2er  1 4.300000e-01    2.920000e+00
   C1r SX2eh  1 4.300000e-01    2.920000e+00
   C1h SX1er  1 4.300000e-01    2.920000e+00
   C1r SX1eh  1 4.300000e-01    2.920000e+00
   X4h  SX4r  1 4.300000e-01    2.920000e+00
   X4h  SX3r  1 4.300000e-01    2.920000e+00
   X4r  SX3h  1 4.300000e-01    2.920000e+00
   X4h  SX2r  1 4.300000e-01    2.920000e+00
   X4r  SX2h  1 4.300000e-01    2.920000e+00
   X4h  SX1r  1 4.300000e-01    2.920000e+00
   X4r  SX1h  1 4.300000e-01    2.920000e+00
   X4h SX4vr  1 4.300000e-01    3.160000e+00
   X4r SX4vh  1 4.300000e-01    3.160000e+00
   X4h SX3vr  1 4.300000e-01    3.160000e+00
   X4r SX3vh  1 4.300000e-01    3.160000e+00
   X4h SX2vr  1 4.300000e-01    3.160000e+00
   X4r SX2vh  1 4.300000e-01    3.160000e+00
   X4h SX1vr  1 4.300000e-01    3.160000e+00
   X4r SX1vh  1 4.300000e-01    3.160000e+00
   X4h SX4er  1 4.300000e-01    3.160000e+00
   X4r SX4eh  1 4.300000e-01    3.160000e+00
   X4h SX3er  1 4.300000e-01    3.160000e+00
   X4r SX3eh  1 4.300000e-01    3.160000e+00
   X4h SX2er  1 4.300000e-01    3.160000e+00
   X4r SX2eh  1 4.300000e-01    3.160000e+00
   X4h SX1er  1 4.300000e-01    3.160000e+00
   X4r SX1eh  1 4.300000e-01    3.160000e+00
   X3h  SX3r  1 4.300000e-01    2.920000e+00
   X3h  SX2r  1 4.300000e-01    3.160000e+00
   X3r  SX2h  1 4.300000e-01    3.160000e+00
   X3h  SX1r  1 4.300000e-01    3.160000e+00
   X3r  SX1h  1 4.300000e-01    3.160000e+00
   X3h SX3vr  1 4.300000e-01    3.160000e+00
   X3r SX3vh  1 4.300000e-01    3.160000e+00
   X3h SX2vr  1 4.300000e-01    3.380000e+00
   X3r SX2vh  1 4.300000e-01    3.380000e+00
   X3h SX1vr  1 4.300000e-01    3.380000e+00
   X3r SX1vh  1 4.300000e-01    3.380000e+00
   X3h SX3er  1 4.300000e-01    3.160000e+00
   X3r SX3eh  1 4.300000e-01    3.160000e+00
   X3h SX2er  1 4.300000e-01    3.380000e+00
   X3r SX2eh  1 4.300000e-01    3.380000e+00
   X3h SX1er  1 4.300000e-01    3.380000e+00
   X3r SX1eh  1 4.300000e-01    3.380000e+00
   X2h  SX2r  1 4.300000e-01    3.160000e+00
   X2h  SX1r  1 4.300000e-01    3.160000e+00
   X2r  SX1h  1 4.300000e-01    3.160000e+00
   X2h SX2vr  1 4.300000e-01    3.380000e+00
   X2r SX2vh  1 4.300000e-01    3.380000e+00
   X2h SX1vr  1 4.300000e-01    3.380000e+00
   X2r SX1vh  1 4.300000e-01    3.380000e+00
   X2h SX2er  1 4.300000e-01    3.380000e+00
   X2r SX2eh  1 4.300000e-01    3.380000e+00
   X2h SX1er  1 4.300000e-01    3.380000e+00
   X2r SX1eh  1 4.300000e-01    3.380000e+00
   X1h  SX1r  1 4.300000e-01    3.380000e+00
   X1h SX1vr  1 4.300000e-01    3.590000e+00
   X1r SX1vh  1 4.300000e-01    3.590000e+00
   X1h SX1er  1 4.300000e-01    3.590000e+00
   X1r SX1eh  1 4.300000e-01    3.590000e+00
  C6vh SC6vr  1 4.300000e-01    2.920000e+00
  C6vh  SC5r  1 4.300000e-01    3.160000e+00
  C6vr  SC5h  1 4.300000e-01    3.160000e+00
  C6vh  SC4r  1 4.300000e-01    3.160000e+00
  C6vr  SC4h  1 4.300000e-01    3.160000e+00
  C6vh  SC3r  1 4.300000e-01    2.920000e+00
  C6vr  SC3h  1 4.300000e-01    2.920000e+00
  C6vh  SC2r  1 4.300000e-01    2.770000e+00
  C6vr  SC2h  1 4.300000e-01    2.770000e+00
  C6vh  SC1r  1 4.300000e-01    2.530000e+00
  C6vr  SC1h  1 4.300000e-01    2.530000e+00
  C6vh  SX4r  1 4.300000e-01    3.160000e+00
  C6vr  SX4h  1 4.300000e-01    3.160000e+00
  C6vh  SX3r  1 4.300000e-01    3.160000e+00
  C6vr  SX3h  1 4.300000e-01    3.160000e+00
  C6vh  SX2r  1 4.300000e-01    3.160000e+00
  C6vr  SX2h  1 4.300000e-01    3.160000e+00
  C6vh  SX1r  1 4.300000e-01    3.160000e+00
  C6vr  SX1h  1 4.300000e-01    3.160000e+00
  C6vh SC5vr  1 4.300000e-01    2.770000e+00
  C6vr SC5vh  1 4.300000e-01    2.770000e+00
  C6vh SC4vr  1 4.300000e-01    2.770000e+00
  C6vr SC4vh  1 4.300000e-01    2.770000e+00
  C6vh SC3vr  1 4.300000e-01    2.530000e+00
  C6vr SC3vh  1 4.300000e-01    2.530000e+00
  C6vh SC2vr  1 4.300000e-01    2.320000e+00
  C6vr SC2vh  1 4.300000e-01    2.320000e+00
  C6vh SC1vr  1 4.300000e-01    2.160000e+00
  C6vr SC1vh  1 4.300000e-01    2.160000e+00
  C6vh SX4vr  1 4.300000e-01    2.770000e+00
  C6vr SX4vh  1 4.300000e-01    2.770000e+00
  C6vh SX3vr  1 4.300000e-01    2.770000e+00
  C6vr SX3vh  1 4.300000e-01    2.770000e+00
  C6vh SX2vr  1 4.300000e-01    2.770000e+00
  C6vr SX2vh  1 4.300000e-01    2.770000e+00
  C6vh SX1vr  1 4.300000e-01    2.770000e+00
  C6vr SX1vh  1 4.300000e-01    2.770000e+00
  C5vh SC5vr  1 4.300000e-01    2.770000e+00
  C5vh  SC4r  1 4.300000e-01    3.160000e+00
  C5vr  SC4h  1 4.300000e-01    3.160000e+00
  C5vh  SC3r  1 4.300000e-01    2.920000e+00
  C5vr  SC3h  1 4.300000e-01    2.920000e+00
  C5vh  SC2r  1 4.300000e-01    2.770000e+00
  C5vr  SC2h  1 4.300000e-01    2.770000e+00
  C5vh  SC1r  1 4.300000e-01    2.770000e+00
  C5vr  SC1h  1 4.300000e-01    2.770000e+00
  C5vh  SX4r  1 4.300000e-01    2.920000e+00
  C5vr  SX4h  1 4.300000e-01    2.920000e+00
  C5vh  SX3r  1 4.300000e-01    2.920000e+00
  C5vr  SX3h  1 4.300000e-01    2.920000e+00
  C5vh  SX2r  1 4.300000e-01    2.920000e+00
  C5vr  SX2h  1 4.300000e-01    2.920000e+00
  C5vh  SX1r  1 4.300000e-01    3.160000e+00
  C5vr  SX1h  1 4.300000e-01    3.160000e+00
  C5vh SC4vr  1 4.300000e-01    2.770000e+00
  C5vr SC4vh  1 4.300000e-01    2.770000e+00
  C5vh SC3vr  1 4.300000e-01    2.530000e+00
  C5vr SC3vh  1 4.300000e-01    2.530000e+00
  C5vh SC2vr  1 4.300000e-01    2.320000e+00
  C5vr SC2vh  1 4.300000e-01    2.320000e+00
  C5vh SC1vr  1 4.300000e-01    2.320000e+00
  C5vr SC1vh  1 4.300000e-01    2.320000e+00
  C5vh SX4vr  1 4.300000e-01    2.530000e+00
  C5vr SX4vh  1 4.300000e-01    2.530000e+00
  C5vh SX3vr  1 4.300000e-01    2.530000e+00
  C5vr SX3vh  1 4.300000e-01    2.530000e+00
  C5vh SX2vr  1 4.300000e-01    2.530000e+00
  C5vr SX2vh  1 4.300000e-01    2.530000e+00
  C5vh SX1vr  1 4.300000e-01    2.770000e+00
  C5vr SX1vh  1 4.300000e-01    2.770000e+00
  C4vh SC4vr  1 4.300000e-01    2.770000e+00
  C4vh  SC3r  1 4.300000e-01    3.160000e+00
  C4vr  SC3h  1 4.300000e-01    3.160000e+00
  C4vh  SC2r  1 4.300000e-01    2.920000e+00
  C4vr  SC2h  1 4.300000e-01    2.920000e+00
  C4vh  SC1r  1 4.300000e-01    2.770000e+00
  C4vr  SC1h  1 4.300000e-01    2.770000e+00
  C4vh  SX4r  1 4.300000e-01    2.920000e+00
  C4vr  SX4h  1 4.300000e-01    2.920000e+00
  C4vh  SX3r  1 4.300000e-01    2.920000e+00
  C4vr  SX3h  1 4.300000e-01    2.920000e+00
  C4vh  SX2r  1 4.300000e-01    2.920000e+00
  C4vr  SX2h  1 4.300000e-01    2.920000e+00
  C4vh  SX1r  1 4.300000e-01    3.160000e+00
  C4vr  SX1h  1 4.300000e-01    3.160000e+00
  C4vh SC3vr  1 4.300000e-01    2.770000e+00
  C4vr SC3vh  1 4.300000e-01    2.770000e+00
  C4vh SC2vr  1 4.300000e-01    2.530000e+00
  C4vr SC2vh  1 4.300000e-01    2.530000e+00
  C4vh SC1vr  1 4.300000e-01    2.320000e+00
  C4vr SC1vh  1 4.300000e-01    2.320000e+00
  C4vh SX4vr  1 4.300000e-01    2.530000e+00
  C4vr SX4vh  1 4.300000e-01    2.530000e+00
  C4vh SX3vr  1 4.300000e-01    2.530000e+00
  C4vr SX3vh  1 4.300000e-01    2.530000e+00
  C4vh SX2vr  1 4.300000e-01    2.530000e+00
  C4vr SX2vh  1 4.300000e-01    2.530000e+00
  C4vh SX1vr  1 4.300000e-01    2.770000e+00
  C4vr SX1vh  1 4.300000e-01    2.770000e+00
  C3vh SC3vr  1 4.300000e-01    2.770000e+00
  C3vh  SC2r  1 4.300000e-01    3.160000e+00
  C3vr  SC2h  1 4.300000e-01    3.160000e+00
  C3vh  SC1r  1 4.300000e-01    3.160000e+00
  C3vr  SC1h  1 4.300000e-01    3.160000e+00
  C3vh  SX4r  1 4.300000e-01    2.920000e+00
  C3vr  SX4h  1 4.300000e-01    2.920000e+00
  C3vh  SX3r  1 4.300000e-01    2.920000e+00
  C3vr  SX3h  1 4.300000e-01    2.920000e+00
  C3vh  SX2r  1 4.300000e-01    2.920000e+00
  C3vr  SX2h  1 4.300000e-01    2.920000e+00
  C3vh  SX1r  1 4.300000e-01    3.160000e+00
  C3vr  SX1h  1 4.300000e-01    3.160000e+00
  C3vh SC2vr  1 4.300000e-01    2.770000e+00
  C3vr SC2vh  1 4.300000e-01    2.770000e+00
  C3vh SC1vr  1 4.300000e-01    2.770000e+00
  C3vr SC1vh  1 4.300000e-01    2.770000e+00
  C3vh SX4vr  1 4.300000e-01    2.530000e+00
  C3vr SX4vh  1 4.300000e-01    2.530000e+00
  C3vh SX3vr  1 4.300000e-01    2.530000e+00
  C3vr SX3vh  1 4.300000e-01    2.530000e+00
  C3vh SX2vr  1 4.300000e-01    2.530000e+00
  C3vr SX2vh  1 4.300000e-01    2.530000e+00
  C3vh SX1vr  1 4.300000e-01    2.770000e+00
  C3vr SX1vh  1 4.300000e-01    2.770000e+00
  C2vh SC2vr  1 4.300000e-01    2.770000e+00
  C2vh  SC1r  1 4.300000e-01    3.380000e+00
  C2vr  SC1h  1 4.300000e-01    3.380000e+00
  C2vh  SX4r  1 4.300000e-01    2.530000e+00
  C2vr  SX4h  1 4.300000e-01    2.530000e+00
  C2vh  SX3r  1 4.300000e-01    2.920000e+00
  C2vr  SX3h  1 4.300000e-01    2.920000e+00
  C2vh  SX2r  1 4.300000e-01    2.920000e+00
  C2vr  SX2h  1 4.300000e-01    2.920000e+00
  C2vh  SX1r  1 4.300000e-01    2.920000e+00
  C2vr  SX1h  1 4.300000e-01    2.920000e+00
  C2vh SC1vr  1 4.300000e-01    2.920000e+00
  C2vr SC1vh  1 4.300000e-01    2.920000e+00
  C2vh SX4vr  1 4.300000e-01    2.160000e+00
  C2vr SX4vh  1 4.300000e-01    2.160000e+00
  C2vh SX3vr  1 4.300000e-01    2.530000e+00
  C2vr SX3vh  1 4.300000e-01    2.530000e+00
  C2vh SX2vr  1 4.300000e-01    2.530000e+00
  C2vr SX2vh  1 4.300000e-01    2.530000e+00
  C2vh SX1vr  1 4.300000e-01    2.530000e+00
  C2vr SX1vh  1 4.300000e-01    2.530000e+00
  C1vh SC1vr  1 4.300000e-01    2.770000e+00
  C1vh  SX4r  1 4.300000e-01    2.530000e+00
  C1vr  SX4h  1 4.300000e-01    2.530000e+00
  C1vh  SX3r  1 4.300000e-01    2.920000e+00
  C1vr  SX3h  1 4.300000e-01    2.920000e+00
  C1vh  SX2r  1 4.300000e-01    2.920000e+00
  C1vr  SX2h  1 4.300000e-01    2.920000e+00
  C1vh  SX1r  1 4.300000e-01    2.920000e+00
  C1vr  SX1h  1 4.300000e-01    2.920000e+00
  C1vh SX4vr  1 4.300000e-01    2.160000e+00
  C1vr SX4vh  1 4.300000e-01    2.160000e+00
  C1vh SX3vr  1 4.300000e-01    2.530000e+00
  C1vr SX3vh  1 4.300000e-01    2.530000e+00
  C1vh SX2vr  1 4.300000e-01    2.530000e+00
  C1vr SX2vh  1 4.300000e-01    2.530000e+00
  C1vh SX1vr  1 4.300000e-01    2.530000e+00
  C1vr SX1vh  1 4.300000e-01    2.530000e+00
  X4vh SX4vr  1 4.300000e-01    2.770000e+00
  X4vh  SX3r  1 4.300000e-01    3.160000e+00
  X4vr  SX3h  1 4.300000e-01    3.160000e+00
  X4vh  SX2r  1 4.300000e-01    3.160000e+00
  X4vr  SX2h  1 4.300000e-01    3.160000e+00
  X4vh  SX1r  1 4.300000e-01    3.160000e+00
  X4vr  SX1h  1 4.300000e-01    3.160000e+00
  X4vh SX3vr  1 4.300000e-01    2.770000e+00
  X4vr SX3vh  1 4.300000e-01    2.770000e+00
  X4vh SX2vr  1 4.300000e-01    2.770000e+00
  X4vr SX2vh  1 4.300000e-01    2.770000e+00
  X4vh SX1vr  1 4.300000e-01    2.770000e+00
  X4vr SX1vh  1 4.300000e-01    2.770000e+00
  X3vh SX3vr  1 4.300000e-01    2.770000e+00
  X3vh  SX2r  1 4.300000e-01    3.380000e+00
  X3vr  SX2h  1 4.300000e-01    3.380000e+00
  X3vh  SX1r  1 4.300000e-01    3.380000e+00
  X3vr  SX1h  1 4.300000e-01    3.380000e+00
  X3vh SX2vr  1 4.300000e-01    2.920000e+00
  X3vr SX2vh  1 4.300000e-01    2.920000e+00
  X3vh SX1vr  1 4.300000e-01    2.920000e+00
  X3vr SX1vh  1 4.300000e-01    2.920000e+00
  X2vh SX2vr  1 4.300000e-01    2.920000e+00
  X2vh  SX1r  1 4.300000e-01    3.380000e+00
  X2vr  SX1h  1 4.300000e-01    3.380000e+00
  X2vh SX1vr  1 4.300000e-01    2.920000e+00
  X2vr SX1vh  1 4.300000e-01    2.920000e+00
  X1vh SX1vr  1 4.300000e-01    3.160000e+00
  C6eh SC6er  1 4.300000e-01    2.920000e+00
  C6eh  SC5r  1 4.300000e-01    3.160000e+00
  C6er  SC5h  1 4.300000e-01    3.160000e+00
  C6eh  SC4r  1 4.300000e-01    3.160000e+00
  C6er  SC4h  1 4.300000e-01    3.160000e+00
  C6eh  SC3r  1 4.300000e-01    2.920000e+00
  C6er  SC3h  1 4.300000e-01    2.920000e+00
  C6eh  SC2r  1 4.300000e-01    2.770000e+00
  C6er  SC2h  1 4.300000e-01    2.770000e+00
  C6eh  SC1r  1 4.300000e-01    2.530000e+00
  C6er  SC1h  1 4.300000e-01    2.530000e+00
  C6eh  SX4r  1 4.300000e-01    3.160000e+00
  C6er  SX4h  1 4.300000e-01    3.160000e+00
  C6eh  SX3r  1 4.300000e-01    3.160000e+00
  C6er  SX3h  1 4.300000e-01    3.160000e+00
  C6eh  SX2r  1 4.300000e-01    3.160000e+00
  C6er  SX2h  1 4.300000e-01    3.160000e+00
  C6eh  SX1r  1 4.300000e-01    3.160000e+00
  C6er  SX1h  1 4.300000e-01    3.160000e+00
  C6eh SC5er  1 4.300000e-01    2.770000e+00
  C6er SC5eh  1 4.300000e-01    2.770000e+00
  C6eh SC4er  1 4.300000e-01    2.770000e+00
  C6er SC4eh  1 4.300000e-01    2.770000e+00
  C6eh SC3er  1 4.300000e-01    2.530000e+00
  C6er SC3eh  1 4.300000e-01    2.530000e+00
  C6eh SC2er  1 4.300000e-01    2.320000e+00
  C6er SC2eh  1 4.300000e-01    2.320000e+00
  C6eh SC1er  1 4.300000e-01    2.160000e+00
  C6er SC1eh  1 4.300000e-01    2.160000e+00
  C6eh SX4er  1 4.300000e-01    2.770000e+00
  C6er SX4eh  1 4.300000e-01    2.770000e+00
  C6eh SX3er  1 4.300000e-01    2.770000e+00
  C6er SX3eh  1 4.300000e-01    2.770000e+00
  C6eh SX2er  1 4.300000e-01    2.770000e+00
  C6er SX2eh  1 4.300000e-01    2.770000e+00
  C6eh SX1er  1 4.300000e-01    2.770000e+00
  C6er SX1eh  1 4.300000e-01    2.770000e+00
  C5eh SC5er  1 4.300000e-01    2.770000e+00
  C5eh  SC4r  1 4.300000e-01    3.160000e+00
  C5er  SC4h  1 4.300000e-01    3.160000e+00
  C5eh  SC3r  1 4.300000e-01    2.920000e+00
  C5er  SC3h  1 4.300000e-01    2.920000e+00
  C5eh  SC2r  1 4.300000e-01    2.770000e+00
  C5er  SC2h  1 4.300000e-01    2.770000e+00
  C5eh  SC1r  1 4.300000e-01    2.770000e+00
  C5er  SC1h  1 4.300000e-01    2.770000e+00
  C5eh  SX4r  1 4.300000e-01    2.920000e+00
  C5er  SX4h  1 4.300000e-01    2.920000e+00
  C5eh  SX3r  1 4.300000e-01    2.920000e+00
  C5er  SX3h  1 4.300000e-01    2.920000e+00
  C5eh  SX2r  1 4.300000e-01    2.920000e+00
  C5er  SX2h  1 4.300000e-01    2.920000e+00
  C5eh  SX1r  1 4.300000e-01    3.160000e+00
  C5er  SX1h  1 4.300000e-01    3.160000e+00
  C5eh SC4er  1 4.300000e-01    2.770000e+00
  C5er SC4eh  1 4.300000e-01    2.770000e+00
  C5eh SC3er  1 4.300000e-01    2.530000e+00
  C5er SC3eh  1 4.300000e-01    2.530000e+00
  C5eh SC2er  1 4.300000e-01    2.320000e+00
  C5er SC2eh  1 4.300000e-01    2.320000e+00
  C5eh SC1er  1 4.300000e-01    2.320000e+00
  C5er SC1eh  1 4.300000e-01    2.320000e+00
  C5eh SX4er  1 4.300000e-01    2.530000e+00
  C5er SX4eh  1 4.300000e-01    2.530000e+00
  C5eh SX3er  1 4.300000e-01    2.530000e+00
  C5er SX3eh  1 4.300000e-01    2.530000e+00
  C5eh SX2er  1 4.300000e-01    2.530000e+00
  C5er SX2eh  1 4.300000e-01    2.530000e+00
  C5eh SX1er  1 4.300000e-01    2.770000e+00
  C5er SX1eh  1 4.300000e-01    2.770000e+00
  C4eh SC4er  1 4.300000e-01    2.770000e+00
  C4eh  SC3r  1 4.300000e-01    3.160000e+00
  C4er  SC3h  1 4.300000e-01    3.160000e+00
  C4eh  SC2r  1 4.300000e-01    2.920000e+00
  C4er  SC2h  1 4.300000e-01    2.920000e+00
  C4eh  SC1r  1 4.300000e-01    2.770000e+00
  C4er  SC1h  1 4.300000e-01    2.770000e+00
  C4eh  SX4r  1 4.300000e-01    2.920000e+00
  C4er  SX4h  1 4.300000e-01    2.920000e+00
  C4eh  SX3r  1 4.300000e-01    2.920000e+00
  C4er  SX3h  1 4.300000e-01    2.920000e+00
  C4eh  SX2r  1 4.300000e-01    2.920000e+00
  C4er  SX2h  1 4.300000e-01    2.920000e+00
  C4eh  SX1r  1 4.300000e-01    3.160000e+00
  C4er  SX1h  1 4.300000e-01    3.160000e+00
  C4eh SC3er  1 4.300000e-01    2.770000e+00
  C4er SC3eh  1 4.300000e-01    2.770000e+00
  C4eh SC2er  1 4.300000e-01    2.530000e+00
  C4er SC2eh  1 4.300000e-01    2.530000e+00
  C4eh SC1er  1 4.300000e-01    2.320000e+00
  C4er SC1eh  1 4.300000e-01    2.320000e+00
  C4eh SX4er  1 4.300000e-01    2.530000e+00
  C4er SX4eh  1 4.300000e-01    2.530000e+00
  C4eh SX3er  1 4.300000e-01    2.530000e+00
  C4er SX3eh  1 4.300000e-01    2.530000e+00
  C4eh SX2er  1 4.300000e-01    2.530000e+00
  C4er SX2eh  1 4.300000e-01    2.530000e+00
  C4eh SX1er  1 4.300000e-01    2.770000e+00
  C4er SX1eh  1 4.300000e-01    2.770000e+00
  C3eh SC3er  1 4.300000e-01    2.770000e+00
  C3eh  SC2r  1 4.300000e-01    3.160000e+00
  C3er  SC2h  1 4.300000e-01    3.160000e+00
  C3eh  SC1r  1 4.300000e-01    3.160000e+00
  C3er  SC1h  1 4.300000e-01    3.160000e+00
  C3eh  SX4r  1 4.300000e-01    2.920000e+00
  C3er  SX4h  1 4.300000e-01    2.920000e+00
  C3eh  SX3r  1 4.300000e-01    2.920000e+00
  C3er  SX3h  1 4.300000e-01    2.920000e+00
  C3eh  SX2r  1 4.300000e-01    2.920000e+00
  C3er  SX2h  1 4.300000e-01    2.920000e+00
  C3eh  SX1r  1 4.300000e-01    3.160000e+00
  C3er  SX1h  1 4.300000e-01    3.160000e+00
  C3eh SC2er  1 4.300000e-01    2.770000e+00
  C3er SC2eh  1 4.300000e-01    2.770000e+00
  C3eh SC1er  1 4.300000e-01    2.770000e+00
  C3er SC1eh  1 4.300000e-01    2.770000e+00
  C3eh SX4er  1 4.300000e-01    2.530000e+00
  C3er SX4eh  1 4.300000e-01    2.530000e+00
  C3eh SX3er  1 4.300000e-01    2.530000e+00
  C3er SX3eh  1 4.300000e-01    2.530000e+00
  C3eh SX2er  1 4.300000e-01    2.530000e+00
  C3er SX2eh  1 4.300000e-01    2.530000e+00
  C3eh SX1er  1 4.300000e-01    2.770000e+00
  C3er SX1eh  1 4.300000e-01    2.770000e+00
  C2eh SC2er  1 4.300000e-01    2.770000e+00
  C2eh  SC1r  1 4.300000e-01    3.380000e+00
  C2er  SC1h  1 4.300000e-01    3.380000e+00
  C2eh  SX4r  1 4.300000e-01    2.530000e+00
  C2er  SX4h  1 4.300000e-01    2.530000e+00
  C2eh  SX3r  1 4.300000e-01    2.920000e+00
  C2er  SX3h  1 4.300000e-01    2.920000e+00
  C2eh  SX2r  1 4.300000e-01    2.920000e+00
  C2er  SX2h  1 4.300000e-01    2.920000e+00
  C2eh  SX1r  1 4.300000e-01    2.920000e+00
  C2er  SX1h  1 4.300000e-01    2.920000e+00
  C2eh SC1er  1 4.300000e-01    2.920000e+00
  C2er SC1eh  1 4.300000e-01    2.920000e+00
  C2eh SX4er  1 4.300000e-01    2.160000e+00
  C2er SX4eh  1 4.300000e-01    2.160000e+00
  C2eh SX3er  1 4.300000e-01    2.530000e+00
  C2er SX3eh  1 4.300000e-01    2.530000e+00
  C2eh SX2er  1 4.300000e-01    2.530000e+00
  C2er SX2eh  1 4.300000e-01    2.530000e+00
  C2eh SX1er  1 4.300000e-01    2.530000e+00
  C2er SX1eh  1 4.300000e-01    2.530000e+00
  C1eh SC1er  1 4.300000e-01    2.770000e+00
  C1eh  SX4r  1 4.300000e-01    2.530000e+00
  C1er  SX4h  1 4.300000e-01    2.530000e+00
  C1eh  SX3r  1 4.300000e-01    2.920000e+00
  C1er  SX3h  1 4.300000e-01    2.920000e+00
  C1eh  SX2r  1 4.300000e-01    2.920000e+00
  C1er  SX2h  1 4.300000e-01    2.920000e+00
  C1eh  SX1r  1 4.300000e-01    2.920000e+00
  C1er  SX1h  1 4.300000e-01    2.920000e+00
  C1eh SX4er  1 4.300000e-01    2.160000e+00
  C1er SX4eh  1 4.300000e-01    2.160000e+00
  C1eh SX3er  1 4.300000e-01    2.530000e+00
  C1er SX3eh  1 4.300000e-01    2.530000e+00
  C1eh SX2er  1 4.300000e-01    2.530000e+00
  C1er SX2eh  1 4.300000e-01    2.530000e+00
  C1eh SX1er  1 4.300000e-01    2.530000e+00
  C1er SX1eh  1 4.300000e-01    2.530000e+00
  X4eh SX4er  1 4.300000e-01    2.770000e+00
  X4eh  SX3r  1 4.300000e-01    3.160000e+00
  X4er  SX3h  1 4.300000e-01    3.160000e+00
  X4eh  SX2r  1 4.300000e-01    3.160000e+00
  X4er  SX2h  1 4.300000e-01    3.160000e+00
  X4eh  SX1r  1 4.300000e-01    3.160000e+00
  X4er  SX1h  1 4.300000e-01    3.160000e+00
  X4eh SX3er  1 4.300000e-01    2.770000e+00
  X4er SX3eh  1 4.300000e-01    2.770000e+00
  X4eh SX2er  1 4.300000e-01    2.770000e+00
  X4er SX2eh  1 4.300000e-01    2.770000e+00
  X4eh SX1er  1 4.300000e-01    2.770000e+00
  X4er SX1eh  1 4.300000e-01    2.770000e+00
  X3eh SX3er  1 4.300000e-01    2.770000e+00
  X3eh  SX2r  1 4.300000e-01    3.380000e+00
  X3er  SX2h  1 4.300000e-01    3.380000e+00
  X3eh  SX1r  1 4.300000e-01    3.380000e+00
  X3er  SX1h  1 4.300000e-01    3.380000e+00
  X3eh SX2er  1 4.300000e-01    2.920000e+00
  X3er SX2eh  1 4.300000e-01    2.920000e+00
  X3eh SX1er  1 4.300000e-01    2.920000e+00
  X3er SX1eh  1 4.300000e-01    2.920000e+00
  X2eh SX2er  1 4.300000e-01    2.920000e+00
  X2eh  SX1r  1 4.300000e-01    3.380000e+00
  X2er  SX1h  1 4.300000e-01    3.380000e+00
  X2eh SX1er  1 4.300000e-01    2.920000e+00
  X2er SX1eh  1 4.300000e-01    2.920000e+00
  X1eh SX1er  1 4.300000e-01    3.160000e+00
   P6h  SC6r  1 4.300000e-01    2.320000e+00
   P6r  SC6h  1 4.300000e-01    2.320000e+00
   P6h  SC5r  1 4.300000e-01    2.160000e+00
   P6r  SC5h  1 4.300000e-01    2.160000e+00
   P6h  SC4r  1 4.300000e-01    1.930000e+00
   P6r  SC4h  1 4.300000e-01    1.930000e+00
   P6h  SC3r  1 4.300000e-01    1.730000e+00
   P6r  SC3h  1 4.300000e-01    1.730000e+00
   P6h  SC2r  1 4.300000e-01    1.730000e+00
   P6r  SC2h  1 4.300000e-01    1.730000e+00
   P6h  SC1r  1 4.730000e-01    1.280000e+00
   P6r  SC1h  1 4.730000e-01    1.280000e+00
   P6h  SX4r  1 4.300000e-01    2.530000e+00
   P6r  SX4h  1 4.300000e-01    2.530000e+00
   P6h  SX3r  1 4.300000e-01    2.530000e+00
   P6r  SX3h  1 4.300000e-01    2.530000e+00
   P6h  SX2r  1 4.300000e-01    2.320000e+00
   P6r  SX2h  1 4.300000e-01    2.320000e+00
   P6h  SX1r  1 4.300000e-01    2.160000e+00
   P6r  SX1h  1 4.300000e-01    2.160000e+00
   P6h SC6vr  1 4.300000e-01    2.530000e+00
   P6r SC6vh  1 4.300000e-01    2.530000e+00
   P6h SC5vr  1 4.300000e-01    2.320000e+00
   P6r SC5vh  1 4.300000e-01    2.320000e+00
   P6h SC4vr  1 4.300000e-01    2.160000e+00
   P6r SC4vh  1 4.300000e-01    2.160000e+00
   P6h SC3vr  1 4.300000e-01    1.930000e+00
   P6r SC3vh  1 4.300000e-01    1.930000e+00
   P6h SC2vr  1 4.300000e-01    1.930000e+00
   P6r SC2vh  1 4.300000e-01    1.930000e+00
   P6h SC1vr  1 4.430000e-01    1.480000e+00
   P6r SC1vh  1 4.430000e-01    1.480000e+00
   P6h SX4vr  1 4.300000e-01    2.770000e+00
   P6r SX4vh  1 4.300000e-01    2.770000e+00
   P6h SX3vr  1 4.300000e-01    2.770000e+00
   P6r SX3vh  1 4.300000e-01    2.770000e+00
   P6h SX2vr  1 4.300000e-01    2.530000e+00
   P6r SX2vh  1 4.300000e-01    2.530000e+00
   P6h SX1vr  1 4.300000e-01    2.320000e+00
   P6r SX1vh  1 4.300000e-01    2.320000e+00
   P6h SC6er  1 4.300000e-01    2.530000e+00
   P6r SC6eh  1 4.300000e-01    2.530000e+00
   P6h SC5er  1 4.300000e-01    2.320000e+00
   P6r SC5eh  1 4.300000e-01    2.320000e+00
   P6h SC4er  1 4.300000e-01    2.160000e+00
   P6r SC4eh  1 4.300000e-01    2.160000e+00
   P6h SC3er  1 4.300000e-01    1.930000e+00
   P6r SC3eh  1 4.300000e-01    1.930000e+00
   P6h SC2er  1 4.300000e-01    1.930000e+00
   P6r SC2eh  1 4.300000e-01    1.930000e+00
   P6h SC1er  1 4.430000e-01    1.480000e+00
   P6r SC1eh  1 4.430000e-01    1.480000e+00
   P6h SX4er  1 4.300000e-01    2.770000e+00
   P6r SX4eh  1 4.300000e-01    2.770000e+00
   P6h SX3er  1 4.300000e-01    2.770000e+00
   P6r SX3eh  1 4.300000e-01    2.770000e+00
   P6h SX2er  1 4.300000e-01    2.530000e+00
   P6r SX2eh  1 4.300000e-01    2.530000e+00
   P6h SX1er  1 4.300000e-01    2.320000e+00
   P6r SX1eh  1 4.300000e-01    2.320000e+00
   P5h  SC6r  1 4.300000e-01    2.320000e+00
   P5r  SC6h  1 4.300000e-01    2.320000e+00
   P5h  SC5r  1 4.300000e-01    2.320000e+00
   P5r  SC5h  1 4.300000e-01    2.320000e+00
   P5h  SC4r  1 4.300000e-01    2.160000e+00
   P5r  SC4h  1 4.300000e-01    2.160000e+00
   P5h  SC3r  1 4.300000e-01    1.930000e+00
   P5r  SC3h  1 4.300000e-01    1.930000e+00
   P5h  SC2r  1 4.300000e-01    1.930000e+00
   P5r  SC2h  1 4.300000e-01    1.930000e+00
   P5h  SC1r  1 4.300000e-01    1.730000e+00
   P5r  SC1h  1 4.300000e-01    1.730000e+00
   P5h  SX4r  1 4.300000e-01    2.770000e+00
   P5r  SX4h  1 4.300000e-01    2.770000e+00
   P5h  SX3r  1 4.300000e-01    2.530000e+00
   P5r  SX3h  1 4.300000e-01    2.530000e+00
   P5h  SX2r  1 4.300000e-01    2.530000e+00
   P5r  SX2h  1 4.300000e-01    2.530000e+00
   P5h  SX1r  1 4.300000e-01    2.160000e+00
   P5r  SX1h  1 4.300000e-01    2.160000e+00
   P5h SC6vr  1 4.300000e-01    2.530000e+00
   P5r SC6vh  1 4.300000e-01    2.530000e+00
   P5h SC5vr  1 4.300000e-01    2.530000e+00
   P5r SC5vh  1 4.300000e-01    2.530000e+00
   P5h SC4vr  1 4.300000e-01    2.320000e+00
   P5r SC4vh  1 4.300000e-01    2.320000e+00
   P5h SC3vr  1 4.300000e-01    2.160000e+00
   P5r SC3vh  1 4.300000e-01    2.160000e+00
   P5h SC2vr  1 4.300000e-01    2.160000e+00
   P5r SC2vh  1 4.300000e-01    2.160000e+00
   P5h SC1vr  1 4.300000e-01    1.930000e+00
   P5r SC1vh  1 4.300000e-01    1.930000e+00
   P5h SX4vr  1 4.300000e-01    2.920000e+00
   P5r SX4vh  1 4.300000e-01    2.920000e+00
   P5h SX3vr  1 4.300000e-01    2.770000e+00
   P5r SX3vh  1 4.300000e-01    2.770000e+00
   P5h SX2vr  1 4.300000e-01    2.770000e+00
   P5r SX2vh  1 4.300000e-01    2.770000e+00
   P5h SX1vr  1 4.300000e-01    2.320000e+00
   P5r SX1vh  1 4.300000e-01    2.320000e+00
   P5h SC6er  1 4.300000e-01    2.530000e+00
   P5r SC6eh  1 4.300000e-01    2.530000e+00
   P5h SC5er  1 4.300000e-01    2.530000e+00
   P5r SC5eh  1 4.300000e-01    2.530000e+00
   P5h SC4er  1 4.300000e-01    2.320000e+00
   P5r SC4eh  1 4.300000e-01    2.320000e+00
   P5h SC3er  1 4.300000e-01    2.160000e+00
   P5r SC3eh  1 4.300000e-01    2.160000e+00
   P5h SC2er  1 4.300000e-01    2.160000e+00
   P5r SC2eh  1 4.300000e-01    2.160000e+00
   P5h SC1er  1 4.300000e-01    1.930000e+00
   P5r SC1eh  1 4.300000e-01    1.930000e+00
   P5h SX4er  1 4.300000e-01    2.920000e+00
   P5r SX4eh  1 4.300000e-01    2.920000e+00
   P5h SX3er  1 4.300000e-01    2.770000e+00
   P5r SX3eh  1 4.300000e-01    2.770000e+00
   P5h SX2er  1 4.300000e-01    2.770000e+00
   P5r SX2eh  1 4.300000e-01    2.770000e+00
   P5h SX1er  1 4.300000e-01    2.320000e+00
   P5r SX1eh  1 4.300000e-01    2.320000e+00
   P4h  SC6r  1 4.300000e-01    2.530000e+00
   P4r  SC6h  1 4.300000e-01    2.530000e+00
   P4h  SC5r  1 4.300000e-01    2.320000e+00
   P4r  SC5h  1 4.300000e-01    2.320000e+00
   P4h  SC4r  1 4.300000e-01    2.160000e+00
   P4r  SC4h  1 4.300000e-01    2.160000e+00
   P4h  SC3r  1 4.300000e-01    1.930000e+00
   P4r  SC3h  1 4.300000e-01    1.930000e+00
   P4h  SC2r  1 4.300000e-01    1.930000e+00
   P4r  SC2h  1 4.300000e-01    1.930000e+00
   P4h  SC1r  1 4.300000e-01    1.730000e+00
   P4r  SC1h  1 4.300000e-01    1.730000e+00
   P4h  SX4r  1 4.300000e-01    2.770000e+00
   P4r  SX4h  1 4.300000e-01    2.770000e+00
   P4h  SX3r  1 4.300000e-01    2.530000e+00
   P4r  SX3h  1 4.300000e-01    2.530000e+00
   P4h  SX2r  1 4.300000e-01    2.530000e+00
   P4r  SX2h  1 4.300000e-01    2.530000e+00
   P4h  SX1r  1 4.300000e-01    2.320000e+00
   P4r  SX1h  1 4.300000e-01    2.320000e+00
   P4h SC6vr  1 4.300000e-01    2.770000e+00
   P4r SC6vh  1 4.300000e-01    2.770000e+00
   P4h SC5vr  1 4.300000e-01    2.530000e+00
   P4r SC5vh  1 4.300000e-01    2.530000e+00
   P4h SC4vr  1 4.300000e-01    2.320000e+00
   P4r SC4vh  1 4.300000e-01    2.320000e+00
   P4h SC3vr  1 4.300000e-01    2.160000e+00
   P4r SC3vh  1 4.300000e-01    2.160000e+00
   P4h SC2vr  1 4.300000e-01    2.160000e+00
   P4r SC2vh  1 4.300000e-01    2.160000e+00
   P4h SC1vr  1 4.300000e-01    1.930000e+00
   P4r SC1vh  1 4.300000e-01    1.930000e+00
   P4h SX4vr  1 4.300000e-01    2.920000e+00
   P4r SX4vh  1 4.300000e-01    2.920000e+00
   P4h SX3vr  1 4.300000e-01    2.770000e+00
   P4r SX3vh  1 4.300000e-01    2.770000e+00
   P4h SX2vr  1 4.300000e-01    2.770000e+00
   P4r SX2vh  1 4.300000e-01    2.770000e+00
   P4h SX1vr  1 4.300000e-01    2.530000e+00
   P4r SX1vh  1 4.300000e-01    2.530000e+00
   P4h SC6er  1 4.300000e-01    2.770000e+00
   P4r SC6eh  1 4.300000e-01    2.770000e+00
   P4h SC5er  1 4.300000e-01    2.530000e+00
   P4r SC5eh  1 4.300000e-01    2.530000e+00
   P4h SC4er  1 4.300000e-01    2.320000e+00
   P4r SC4eh  1 4.300000e-01    2.320000e+00
   P4h SC3er  1 4.300000e-01    2.160000e+00
   P4r SC3eh  1 4.300000e-01    2.160000e+00
   P4h SC2er  1 4.300000e-01    2.160000e+00
   P4r SC2eh  1 4.300000e-01    2.160000e+00
   P4h SC1er  1 4.300000e-01    1.930000e+00
   P4r SC1eh  1 4.300000e-01    1.930000e+00
   P4h SX4er  1 4.300000e-01    2.920000e+00
   P4r SX4eh  1 4.300000e-01    2.920000e+00
   P4h SX3er  1 4.300000e-01    2.770000e+00
   P4r SX3eh  1 4.300000e-01    2.770000e+00
   P4h SX2er  1 4.300000e-01    2.770000e+00
   P4r SX2eh  1 4.300000e-01    2.770000e+00
   P4h SX1er  1 4.300000e-01    2.530000e+00
   P4r SX1eh  1 4.300000e-01    2.530000e+00
   P3h  SC6r  1 4.300000e-01    2.770000e+00
   P3r  SC6h  1 4.300000e-01    2.770000e+00
   P3h  SC5r  1 4.300000e-01    2.530000e+00
   P3r  SC5h  1 4.300000e-01    2.530000e+00
   P3h  SC4r  1 4.300000e-01    2.320000e+00
   P3r  SC4h  1 4.300000e-01    2.320000e+00
   P3h  SC3r  1 4.300000e-01    1.930000e+00
   P3r  SC3h  1 4.300000e-01    1.930000e+00
   P3h  SC2r  1 4.300000e-01    1.930000e+00
   P3r  SC2h  1 4.300000e-01    1.930000e+00
   P3h  SC1r  1 4.300000e-01    1.730000e+00
   P3r  SC1h  1 4.300000e-01    1.730000e+00
   P3h  SX4r  1 4.300000e-01    2.770000e+00
   P3r  SX4h  1 4.300000e-01    2.770000e+00
   P3h  SX3r  1 4.300000e-01    2.770000e+00
   P3r  SX3h  1 4.300000e-01    2.770000e+00
   P3h  SX2r  1 4.300000e-01    2.530000e+00
   P3r  SX2h  1 4.300000e-01    2.530000e+00
   P3h  SX1r  1 4.300000e-01    2.320000e+00
   P3r  SX1h  1 4.300000e-01    2.320000e+00
   P3h SC6vr  1 4.300000e-01    2.920000e+00
   P3r SC6vh  1 4.300000e-01    2.920000e+00
   P3h SC5vr  1 4.300000e-01    2.770000e+00
   P3r SC5vh  1 4.300000e-01    2.770000e+00
   P3h SC4vr  1 4.300000e-01    2.530000e+00
   P3r SC4vh  1 4.300000e-01    2.530000e+00
   P3h SC3vr  1 4.300000e-01    2.160000e+00
   P3r SC3vh  1 4.300000e-01    2.160000e+00
   P3h SC2vr  1 4.300000e-01    2.160000e+00
   P3r SC2vh  1 4.300000e-01    2.160000e+00
   P3h SC1vr  1 4.300000e-01    1.930000e+00
   P3r SC1vh  1 4.300000e-01    1.930000e+00
   P3h SX4vr  1 4.300000e-01    2.920000e+00
   P3r SX4vh  1 4.300000e-01    2.920000e+00
   P3h SX3vr  1 4.300000e-01    2.920000e+00
   P3r SX3vh  1 4.300000e-01    2.920000e+00
   P3h SX2vr  1 4.300000e-01    2.770000e+00
   P3r SX2vh  1 4.300000e-01    2.770000e+00
   P3h SX1vr  1 4.300000e-01    2.530000e+00
   P3r SX1vh  1 4.300000e-01    2.530000e+00
   P3h SC6er  1 4.300000e-01    2.920000e+00
   P3r SC6eh  1 4.300000e-01    2.920000e+00
   P3h SC5er  1 4.300000e-01    2.770000e+00
   P3r SC5eh  1 4.300000e-01    2.770000e+00
   P3h SC4er  1 4.300000e-01    2.530000e+00
   P3r SC4eh  1 4.300000e-01    2.530000e+00
   P3h SC3er  1 4.300000e-01    2.160000e+00
   P3r SC3eh  1 4.300000e-01    2.160000e+00
   P3h SC2er  1 4.300000e-01    2.160000e+00
   P3r SC2eh  1 4.300000e-01    2.160000e+00
   P3h SC1er  1 4.300000e-01    1.930000e+00
   P3r SC1eh  1 4.300000e-01    1.930000e+00
   P3h SX4er  1 4.300000e-01    2.920000e+00
   P3r SX4eh  1 4.300000e-01    2.920000e+00
   P3h SX3er  1 4.300000e-01    2.920000e+00
   P3r SX3eh  1 4.300000e-01    2.920000e+00
   P3h SX2er  1 4.300000e-01    2.770000e+00
   P3r SX2eh  1 4.300000e-01    2.770000e+00
   P3h SX1er  1 4.300000e-01    2.530000e+00
   P3r SX1eh  1 4.300000e-01    2.530000e+00
   P2h  SC6r  1 4.300000e-01    2.770000e+00
   P2r  SC6h  1 4.300000e-01    2.770000e+00
   P2h  SC5r  1 4.300000e-01    2.530000e+00
   P2r  SC5h  1 4.300000e-01    2.530000e+00
   P2h  SC4r  1 4.300000e-01    2.320000e+00
   P2r  SC4h  1 4.300000e-01    2.320000e+00
   P2h  SC3r  1 4.300000e-01    2.160000e+00
   P2r  SC3h  1 4.300000e-01    2.160000e+00
   P2h  SC2r  1 4.300000e-01    2.160000e+00
   P2r  SC2h  1 4.300000e-01    2.160000e+00
   P2h  SC1r  1 4.300000e-01    1.930000e+00
   P2r  SC1h  1 4.300000e-01    1.930000e+00
   P2h  SX4r  1 4.300000e-01    2.770000e+00
   P2r  SX4h  1 4.300000e-01    2.770000e+00
   P2h  SX3r  1 4.300000e-01    2.770000e+00
   P2r  SX3h  1 4.300000e-01    2.770000e+00
   P2h  SX2r  1 4.300000e-01    2.530000e+00
   P2r  SX2h  1 4.300000e-01    2.530000e+00
   P2h  SX1r  1 4.300000e-01    2.320000e+00
   P2r  SX1h  1 4.300000e-01    2.320000e+00
   P2h SC6vr  1 4.300000e-01    2.920000e+00
   P2r SC6vh  1 4.300000e-01    2.920000e+00
   P2h SC5vr  1 4.300000e-01    2.770000e+00
   P2r SC5vh  1 4.300000e-01    2.770000e+00
   P2h SC4vr  1 4.300000e-01    2.530000e+00
   P2r SC4vh  1 4.300000e-01    2.530000e+00
   P2h SC3vr  1 4.300000e-01    2.320000e+00
   P2r SC3vh  1 4.300000e-01    2.320000e+00
   P2h SC2vr  1 4.300000e-01    2.320000e+00
   P2r SC2vh  1 4.300000e-01    2.320000e+00
   P2h SC1vr  1 4.300000e-01    2.160000e+00
   P2r SC1vh  1 4.300000e-01    2.160000e+00
   P2h SX4vr  1 4.300000e-01    2.920000e+00
   P2r SX4vh  1 4.300000e-01    2.920000e+00
   P2h SX3vr  1 4.300000e-01    2.920000e+00
   P2r SX3vh  1 4.300000e-01    2.920000e+00
   P2h SX2vr  1 4.300000e-01    2.770000e+00
   P2r SX2vh  1 4.300000e-01    2.770000e+00
   P2h SX1vr  1 4.300000e-01    2.530000e+00
   P2r SX1vh  1 4.300000e-01    2.530000e+00
   P2h SC6er  1 4.300000e-01    2.920000e+00
   P2r SC6eh  1 4.300000e-01    2.920000e+00
   P2h SC5er  1 4.300000e-01    2.770000e+00
   P2r SC5eh  1 4.300000e-01    2.770000e+00
   P2h SC4er  1 4.300000e-01    2.530000e+00
   P2r SC4eh  1 4.300000e-01    2.530000e+00
   P2h SC3er  1 4.300000e-01    2.320000e+00
   P2r SC3eh  1 4.300000e-01    2.320000e+00
   P2h SC2er  1 4.300000e-01    2.320000e+00
   P2r SC2eh  1 4.300000e-01    2.320000e+00
   P2h SC1er  1 4.300000e-01    2.160000e+00
   P2r SC1eh  1 4.300000e-01    2.160000e+00
   P2h SX4er  1 4.300000e-01    2.920000e+00
   P2r SX4eh  1 4.300000e-01    2.920000e+00
   P2h SX3er  1 4.300000e-01    2.920000e+00
   P2r SX3eh  1 4.300000e-01    2.920000e+00
   P2h SX2er  1 4.300000e-01    2.770000e+00
   P2r SX2eh  1 4.300000e-01    2.770000e+00
   P2h SX1er  1 4.300000e-01    2.530000e+00
   P2r SX1eh  1 4.300000e-01    2.530000e+00
   P1h  SC6r  1 4.300000e-01    2.770000e+00
   P1r  SC6h  1 4.300000e-01    2.770000e+00
   P1h  SC5r  1 4.300000e-01    2.530000e+00
   P1r  SC5h  1 4.300000e-01    2.530000e+00
   P1h  SC4r  1 4.300000e-01    2.320000e+00
   P1r  SC4h  1 4.300000e-01    2.320000e+00
   P1h  SC3r  1 4.300000e-01    2.160000e+00
   P1r  SC3h  1 4.300000e-01    2.160000e+00
   P1h  SC2r  1 4.300000e-01    2.160000e+00
   P1r  SC2h  1 4.300000e-01    2.160000e+00
   P1h  SC1r  1 4.300000e-01    1.930000e+00
   P1r  SC1h  1 4.300000e-01    1.930000e+00
   P1h  SX4r  1 4.300000e-01    2.770000e+00
   P1r  SX4h  1 4.300000e-01    2.770000e+00
   P1h  SX3r  1 4.300000e-01    2.770000e+00
   P1r  SX3h  1 4.300000e-01    2.770000e+00
   P1h  SX2r  1 4.300000e-01    2.530000e+00
   P1r  SX2h  1 4.300000e-01    2.530000e+00
   P1h  SX1r  1 4.300000e-01    2.320000e+00
   P1r  SX1h  1 4.300000e-01    2.320000e+00
   P1h SC6vr  1 4.300000e-01    2.920000e+00
   P1r SC6vh  1 4.300000e-01    2.920000e+00
   P1h SC5vr  1 4.300000e-01    2.770000e+00
   P1r SC5vh  1 4.300000e-01    2.770000e+00
   P1h SC4vr  1 4.300000e-01    2.530000e+00
   P1r SC4vh  1 4.300000e-01    2.530000e+00
   P1h SC3vr  1 4.300000e-01    2.320000e+00
   P1r SC3vh  1 4.300000e-01    2.320000e+00
   P1h SC2vr  1 4.300000e-01    2.320000e+00
   P1r SC2vh  1 4.300000e-01    2.320000e+00
   P1h SC1vr  1 4.300000e-01    2.160000e+00
   P1r SC1vh  1 4.300000e-01    2.160000e+00
   P1h SX4vr  1 4.300000e-01    2.920000e+00
   P1r SX4vh  1 4.300000e-01    2.920000e+00
   P1h SX3vr  1 4.300000e-01    2.920000e+00
   P1r SX3vh  1 4.300000e-01    2.920000e+00
   P1h SX2vr  1 4.300000e-01    2.770000e+00
   P1r SX2vh  1 4.300000e-01    2.770000e+00
   P1h SX1vr  1 4.300000e-01    2.530000e+00
   P1r SX1vh  1 4.300000e-01    2.530000e+00
   P1h SC6er  1 4.300000e-01    2.920000e+00
   P1r SC6eh  1 4.300000e-01    2.920000e+00
   P1h SC5er  1 4.300000e-01    2.770000e+00
   P1r SC5eh  1 4.300000e-01    2.770000e+00
   P1h SC4er  1 4.300000e-01    2.530000e+00
   P1r SC4eh  1 4.300000e-01    2.530000e+00
   P1h SC3er  1 4.300000e-01    2.320000e+00
   P1r SC3eh  1 4.300000e-01    2.320000e+00
   P1h SC2er  1 4.300000e-01    2.320000e+00
   P1r SC2eh  1 4.300000e-01    2.320000e+00
   P1h SC1er  1 4.300000e-01    2.160000e+00
   P1r SC1eh  1 4.300000e-01    2.160000e+00
   P1h SX4er  1 4.300000e-01    2.920000e+00
   P1r SX4eh  1 4.300000e-01    2.920000e+00
   P1h SX3er  1 4.300000e-01    2.920000e+00
   P1r SX3eh  1 4.300000e-01    2.920000e+00
   P1h SX2er  1 4.300000e-01    2.770000e+00
   P1r SX2eh  1 4.300000e-01    2.770000e+00
   P1h SX1er  1 4.300000e-01    2.530000e+00
   P1r SX1eh  1 4.300000e-01    2.530000e+00
   N6h  SC6r  1 4.300000e-01    2.920000e+00
   N6r  SC6h  1 4.300000e-01    2.920000e+00
   N6h  SC5r  1 4.300000e-01    2.770000e+00
   N6r  SC5h  1 4.300000e-01    2.770000e+00
   N6h  SC4r  1 4.300000e-01    2.530000e+00
   N6r  SC4h  1 4.300000e-01    2.530000e+00
   N6h  SC3r  1 4.300000e-01    2.320000e+00
   N6r  SC3h  1 4.300000e-01    2.320000e+00
   N6h  SC2r  1 4.300000e-01    2.320000e+00
   N6r  SC2h  1 4.300000e-01    2.320000e+00
   N6h  SC1r  1 4.300000e-01    2.160000e+00
   N6r  SC1h  1 4.300000e-01    2.160000e+00
   N6h  SX4r  1 4.300000e-01    2.920000e+00
   N6r  SX4h  1 4.300000e-01    2.920000e+00
   N6h  SX3r  1 4.300000e-01    2.770000e+00
   N6r  SX3h  1 4.300000e-01    2.770000e+00
   N6h  SX2r  1 4.300000e-01    2.530000e+00
   N6r  SX2h  1 4.300000e-01    2.530000e+00
   N6h  SX1r  1 4.300000e-01    2.320000e+00
   N6r  SX1h  1 4.300000e-01    2.320000e+00
   N6h SC6vr  1 4.300000e-01    3.160000e+00
   N6r SC6vh  1 4.300000e-01    3.160000e+00
   N6h SC5vr  1 4.300000e-01    2.920000e+00
   N6r SC5vh  1 4.300000e-01    2.920000e+00
   N6h SC4vr  1 4.300000e-01    2.770000e+00
   N6r SC4vh  1 4.300000e-01    2.770000e+00
   N6h SC3vr  1 4.300000e-01    2.530000e+00
   N6r SC3vh  1 4.300000e-01    2.530000e+00
   N6h SC2vr  1 4.300000e-01    2.530000e+00
   N6r SC2vh  1 4.300000e-01    2.530000e+00
   N6h SC1vr  1 4.300000e-01    2.320000e+00
   N6r SC1vh  1 4.300000e-01    2.320000e+00
   N6h SX4vr  1 4.300000e-01    3.160000e+00
   N6r SX4vh  1 4.300000e-01    3.160000e+00
   N6h SX3vr  1 4.300000e-01    2.920000e+00
   N6r SX3vh  1 4.300000e-01    2.920000e+00
   N6h SX2vr  1 4.300000e-01    2.770000e+00
   N6r SX2vh  1 4.300000e-01    2.770000e+00
   N6h SX1vr  1 4.300000e-01    2.530000e+00
   N6r SX1vh  1 4.300000e-01    2.530000e+00
   N6h SC6er  1 4.300000e-01    3.160000e+00
   N6r SC6eh  1 4.300000e-01    3.160000e+00
   N6h SC5er  1 4.300000e-01    2.920000e+00
   N6r SC5eh  1 4.300000e-01    2.920000e+00
   N6h SC4er  1 4.300000e-01    2.770000e+00
   N6r SC4eh  1 4.300000e-01    2.770000e+00
   N6h SC3er  1 4.300000e-01    2.530000e+00
   N6r SC3eh  1 4.300000e-01    2.530000e+00
   N6h SC2er  1 4.300000e-01    2.530000e+00
   N6r SC2eh  1 4.300000e-01    2.530000e+00
   N6h SC1er  1 4.300000e-01    2.320000e+00
   N6r SC1eh  1 4.300000e-01    2.320000e+00
   N6h SX4er  1 4.300000e-01    3.160000e+00
   N6r SX4eh  1 4.300000e-01    3.160000e+00
   N6h SX3er  1 4.300000e-01    2.920000e+00
   N6r SX3eh  1 4.300000e-01    2.920000e+00
   N6h SX2er  1 4.300000e-01    2.770000e+00
   N6r SX2eh  1 4.300000e-01    2.770000e+00
   N6h SX1er  1 4.300000e-01    2.530000e+00
   N6r SX1eh  1 4.300000e-01    2.530000e+00
   N5h  SC6r  1 4.300000e-01    2.920000e+00
   N5r  SC6h  1 4.300000e-01    2.920000e+00
   N5h  SC5r  1 4.300000e-01    2.770000e+00
   N5r  SC5h  1 4.300000e-01    2.770000e+00
   N5h  SC4r  1 4.300000e-01    2.530000e+00
   N5r  SC4h  1 4.300000e-01    2.530000e+00
   N5h  SC3r  1 4.300000e-01    2.530000e+00
   N5r  SC3h  1 4.300000e-01    2.530000e+00
   N5h  SC2r  1 4.300000e-01    2.320000e+00
   N5r  SC2h  1 4.300000e-01    2.320000e+00
   N5h  SC1r  1 4.300000e-01    2.160000e+00
   N5r  SC1h  1 4.300000e-01    2.160000e+00
   N5h  SX4r  1 4.300000e-01    3.160000e+00
   N5r  SX4h  1 4.300000e-01    3.160000e+00
   N5h  SX3r  1 4.300000e-01    2.920000e+00
   N5r  SX3h  1 4.300000e-01    2.920000e+00
   N5h  SX2r  1 4.300000e-01    2.770000e+00
   N5r  SX2h  1 4.300000e-01    2.770000e+00
   N5h  SX1r  1 4.300000e-01    2.530000e+00
   N5r  SX1h  1 4.300000e-01    2.530000e+00
   N5h SC6vr  1 4.300000e-01    3.160000e+00
   N5r SC6vh  1 4.300000e-01    3.160000e+00
   N5h SC5vr  1 4.300000e-01    2.920000e+00
   N5r SC5vh  1 4.300000e-01    2.920000e+00
   N5h SC4vr  1 4.300000e-01    2.770000e+00
   N5r SC4vh  1 4.300000e-01    2.770000e+00
   N5h SC3vr  1 4.300000e-01    2.770000e+00
   N5r SC3vh  1 4.300000e-01    2.770000e+00
   N5h SC2vr  1 4.300000e-01    2.530000e+00
   N5r SC2vh  1 4.300000e-01    2.530000e+00
   N5h SC1vr  1 4.300000e-01    2.320000e+00
   N5r SC1vh  1 4.300000e-01    2.320000e+00
   N5h SX4vr  1 4.300000e-01    3.380000e+00
   N5r SX4vh  1 4.300000e-01    3.380000e+00
   N5h SX3vr  1 4.300000e-01    3.160000e+00
   N5r SX3vh  1 4.300000e-01    3.160000e+00
   N5h SX2vr  1 4.300000e-01    2.920000e+00
   N5r SX2vh  1 4.300000e-01    2.920000e+00
   N5h SX1vr  1 4.300000e-01    2.770000e+00
   N5r SX1vh  1 4.300000e-01    2.770000e+00
   N5h SC6er  1 4.300000e-01    3.160000e+00
   N5r SC6eh  1 4.300000e-01    3.160000e+00
   N5h SC5er  1 4.300000e-01    2.920000e+00
   N5r SC5eh  1 4.300000e-01    2.920000e+00
   N5h SC4er  1 4.300000e-01    2.770000e+00
   N5r SC4eh  1 4.300000e-01    2.770000e+00
   N5h SC3er  1 4.300000e-01    2.770000e+00
   N5r SC3eh  1 4.300000e-01    2.770000e+00
   N5h SC2er  1 4.300000e-01    2.530000e+00
   N5r SC2eh  1 4.300000e-01    2.530000e+00
   N5h SC1er  1 4.300000e-01    2.320000e+00
   N5r SC1eh  1 4.300000e-01    2.320000e+00
   N5h SX4er  1 4.300000e-01    3.380000e+00
   N5r SX4eh  1 4.300000e-01    3.380000e+00
   N5h SX3er  1 4.300000e-01    3.160000e+00
   N5r SX3eh  1 4.300000e-01    3.160000e+00
   N5h SX2er  1 4.300000e-01    2.920000e+00
   N5r SX2eh  1 4.300000e-01    2.920000e+00
   N5h SX1er  1 4.300000e-01    2.770000e+00
   N5r SX1eh  1 4.300000e-01    2.770000e+00
   N4h  SC6r  1 4.300000e-01    2.920000e+00
   N4r  SC6h  1 4.300000e-01    2.920000e+00
   N4h  SC5r  1 4.300000e-01    2.770000e+00
   N4r  SC5h  1 4.300000e-01    2.770000e+00
   N4h  SC4r  1 4.300000e-01    2.770000e+00
   N4r  SC4h  1 4.300000e-01    2.770000e+00
   N4h  SC3r  1 4.300000e-01    2.530000e+00
   N4r  SC3h  1 4.300000e-01    2.530000e+00
   N4h  SC2r  1 4.300000e-01    2.320000e+00
   N4r  SC2h  1 4.300000e-01    2.320000e+00
   N4h  SC1r  1 4.300000e-01    2.160000e+00
   N4r  SC1h  1 4.300000e-01    2.160000e+00
   N4h  SX4r  1 4.300000e-01    3.380000e+00
   N4r  SX4h  1 4.300000e-01    3.380000e+00
   N4h  SX3r  1 4.300000e-01    3.160000e+00
   N4r  SX3h  1 4.300000e-01    3.160000e+00
   N4h  SX2r  1 4.300000e-01    2.770000e+00
   N4r  SX2h  1 4.300000e-01    2.770000e+00
   N4h  SX1r  1 4.300000e-01    2.530000e+00
   N4r  SX1h  1 4.300000e-01    2.530000e+00
   N4h SC6vr  1 4.300000e-01    3.160000e+00
   N4r SC6vh  1 4.300000e-01    3.160000e+00
   N4h SC5vr  1 4.300000e-01    2.920000e+00
   N4r SC5vh  1 4.300000e-01    2.920000e+00
   N4h SC4vr  1 4.300000e-01    2.920000e+00
   N4r SC4vh  1 4.300000e-01    2.920000e+00
   N4h SC3vr  1 4.300000e-01    2.770000e+00
   N4r SC3vh  1 4.300000e-01    2.770000e+00
   N4h SC2vr  1 4.300000e-01    2.530000e+00
   N4r SC2vh  1 4.300000e-01    2.530000e+00
   N4h SC1vr  1 4.300000e-01    2.320000e+00
   N4r SC1vh  1 4.300000e-01    2.320000e+00
   N4h SX4vr  1 4.300000e-01    3.590000e+00
   N4r SX4vh  1 4.300000e-01    3.590000e+00
   N4h SX3vr  1 4.300000e-01    3.380000e+00
   N4r SX3vh  1 4.300000e-01    3.380000e+00
   N4h SX2vr  1 4.300000e-01    2.920000e+00
   N4r SX2vh  1 4.300000e-01    2.920000e+00
   N4h SX1vr  1 4.300000e-01    2.770000e+00
   N4r SX1vh  1 4.300000e-01    2.770000e+00
   N4h SC6er  1 4.300000e-01    3.160000e+00
   N4r SC6eh  1 4.300000e-01    3.160000e+00
   N4h SC5er  1 4.300000e-01    2.920000e+00
   N4r SC5eh  1 4.300000e-01    2.920000e+00
   N4h SC4er  1 4.300000e-01    2.920000e+00
   N4r SC4eh  1 4.300000e-01    2.920000e+00
   N4h SC3er  1 4.300000e-01    2.770000e+00
   N4r SC3eh  1 4.300000e-01    2.770000e+00
   N4h SC2er  1 4.300000e-01    2.530000e+00
   N4r SC2eh  1 4.300000e-01    2.530000e+00
   N4h SC1er  1 4.300000e-01    2.320000e+00
   N4r SC1eh  1 4.300000e-01    2.320000e+00
   N4h SX4er  1 4.300000e-01    3.590000e+00
   N4r SX4eh  1 4.300000e-01    3.590000e+00
   N4h SX3er  1 4.300000e-01    3.380000e+00
   N4r SX3eh  1 4.300000e-01    3.380000e+00
   N4h SX2er  1 4.300000e-01    2.920000e+00
   N4r SX2eh  1 4.300000e-01    2.920000e+00
   N4h SX1er  1 4.300000e-01    2.770000e+00
   N4r SX1eh  1 4.300000e-01    2.770000e+00
   N3h  SC6r  1 4.300000e-01    2.920000e+00
   N3r  SC6h  1 4.300000e-01    2.920000e+00
   N3h  SC5r  1 4.300000e-01    2.770000e+00
   N3r  SC5h  1 4.300000e-01    2.770000e+00
   N3h  SC4r  1 4.300000e-01    2.770000e+00
   N3r  SC4h  1 4.300000e-01    2.770000e+00
   N3h  SC3r  1 4.300000e-01    2.530000e+00
   N3r  SC3h  1 4.300000e-01    2.530000e+00
   N3h  SC2r  1 4.300000e-01    2.530000e+00
   N3r  SC2h  1 4.300000e-01    2.530000e+00
   N3h  SC1r  1 4.300000e-01    2.320000e+00
   N3r  SC1h  1 4.300000e-01    2.320000e+00
   N3h  SX4r  1 4.300000e-01    3.160000e+00
   N3r  SX4h  1 4.300000e-01    3.160000e+00
   N3h  SX3r  1 4.300000e-01    2.920000e+00
   N3r  SX3h  1 4.300000e-01    2.920000e+00
   N3h  SX2r  1 4.300000e-01    2.770000e+00
   N3r  SX2h  1 4.300000e-01    2.770000e+00
   N3h  SX1r  1 4.300000e-01    2.770000e+00
   N3r  SX1h  1 4.300000e-01    2.770000e+00
   N3h SC6vr  1 4.300000e-01    3.160000e+00
   N3r SC6vh  1 4.300000e-01    3.160000e+00
   N3h SC5vr  1 4.300000e-01    2.920000e+00
   N3r SC5vh  1 4.300000e-01    2.920000e+00
   N3h SC4vr  1 4.300000e-01    2.920000e+00
   N3r SC4vh  1 4.300000e-01    2.920000e+00
   N3h SC3vr  1 4.300000e-01    2.770000e+00
   N3r SC3vh  1 4.300000e-01    2.770000e+00
   N3h SC2vr  1 4.300000e-01    2.770000e+00
   N3r SC2vh  1 4.300000e-01    2.770000e+00
   N3h SC1vr  1 4.300000e-01    2.530000e+00
   N3r SC1vh  1 4.300000e-01    2.530000e+00
   N3h SX4vr  1 4.300000e-01    3.380000e+00
   N3r SX4vh  1 4.300000e-01    3.380000e+00
   N3h SX3vr  1 4.300000e-01    3.160000e+00
   N3r SX3vh  1 4.300000e-01    3.160000e+00
   N3h SX2vr  1 4.300000e-01    2.920000e+00
   N3r SX2vh  1 4.300000e-01    2.920000e+00
   N3h SX1vr  1 4.300000e-01    2.920000e+00
   N3r SX1vh  1 4.300000e-01    2.920000e+00
   N3h SC6er  1 4.300000e-01    3.160000e+00
   N3r SC6eh  1 4.300000e-01    3.160000e+00
   N3h SC5er  1 4.300000e-01    2.920000e+00
   N3r SC5eh  1 4.300000e-01    2.920000e+00
   N3h SC4er  1 4.300000e-01    2.920000e+00
   N3r SC4eh  1 4.300000e-01    2.920000e+00
   N3h SC3er  1 4.300000e-01    2.770000e+00
   N3r SC3eh  1 4.300000e-01    2.770000e+00
   N3h SC2er  1 4.300000e-01    2.770000e+00
   N3r SC2eh  1 4.300000e-01    2.770000e+00
   N3h SC1er  1 4.300000e-01    2.530000e+00
   N3r SC1eh  1 4.300000e-01    2.530000e+00
   N3h SX4er  1 4.300000e-01    3.380000e+00
   N3r SX4eh  1 4.300000e-01    3.380000e+00
   N3h SX3er  1 4.300000e-01    3.160000e+00
   N3r SX3eh  1 4.300000e-01    3.160000e+00
   N3h SX2er  1 4.300000e-01    2.920000e+00
   N3r SX2eh  1 4.300000e-01    2.920000e+00
   N3h SX1er  1 4.300000e-01    2.920000e+00
   N3r SX1eh  1 4.300000e-01    2.920000e+00
   N2h  SC6r  1 4.300000e-01    2.920000e+00
   N2r  SC6h  1 4.300000e-01    2.920000e+00
   N2h  SC5r  1 4.300000e-01    2.770000e+00
   N2r  SC5h  1 4.300000e-01    2.770000e+00
   N2h  SC4r  1 4.300000e-01    2.770000e+00
   N2r  SC4h  1 4.300000e-01    2.770000e+00
   N2h  SC3r  1 4.300000e-01    2.770000e+00
   N2r  SC3h  1 4.300000e-01    2.770000e+00
   N2h  SC2r  1 4.300000e-01    2.530000e+00
   N2r  SC2h  1 4.300000e-01    2.530000e+00
   N2h  SC1r  1 4.300000e-01    2.320000e+00
   N2r  SC1h  1 4.300000e-01    2.320000e+00
   N2h  SX4r  1 4.300000e-01    3.160000e+00
   N2r  SX4h  1 4.300000e-01    3.160000e+00
   N2h  SX3r  1 4.300000e-01    2.920000e+00
   N2r  SX3h  1 4.300000e-01    2.920000e+00
   N2h  SX2r  1 4.300000e-01    2.770000e+00
   N2r  SX2h  1 4.300000e-01    2.770000e+00
   N2h  SX1r  1 4.300000e-01    2.770000e+00
   N2r  SX1h  1 4.300000e-01    2.770000e+00
   N2h SC6vr  1 4.300000e-01    3.160000e+00
   N2r SC6vh  1 4.300000e-01    3.160000e+00
   N2h SC5vr  1 4.300000e-01    2.920000e+00
   N2r SC5vh  1 4.300000e-01    2.920000e+00
   N2h SC4vr  1 4.300000e-01    2.920000e+00
   N2r SC4vh  1 4.300000e-01    2.920000e+00
   N2h SC3vr  1 4.300000e-01    2.920000e+00
   N2r SC3vh  1 4.300000e-01    2.920000e+00
   N2h SC2vr  1 4.300000e-01    2.770000e+00
   N2r SC2vh  1 4.300000e-01    2.770000e+00
   N2h SC1vr  1 4.300000e-01    2.530000e+00
   N2r SC1vh  1 4.300000e-01    2.530000e+00
   N2h SX4vr  1 4.300000e-01    3.380000e+00
   N2r SX4vh  1 4.300000e-01    3.380000e+00
   N2h SX3vr  1 4.300000e-01    3.160000e+00
   N2r SX3vh  1 4.300000e-01    3.160000e+00
   N2h SX2vr  1 4.300000e-01    2.920000e+00
   N2r SX2vh  1 4.300000e-01    2.920000e+00
   N2h SX1vr  1 4.300000e-01    2.920000e+00
   N2r SX1vh  1 4.300000e-01    2.920000e+00
   N2h SC6er  1 4.300000e-01    3.160000e+00
   N2r SC6eh  1 4.300000e-01    3.160000e+00
   N2h SC5er  1 4.300000e-01    2.920000e+00
   N2r SC5eh  1 4.300000e-01    2.920000e+00
   N2h SC4er  1 4.300000e-01    2.920000e+00
   N2r SC4eh  1 4.300000e-01    2.920000e+00
   N2h SC3er  1 4.300000e-01    2.920000e+00
   N2r SC3eh  1 4.300000e-01    2.920000e+00
   N2h SC2er  1 4.300000e-01    2.770000e+00
   N2r SC2eh  1 4.300000e-01    2.770000e+00
   N2h SC1er  1 4.300000e-01    2.530000e+00
   N2r SC1eh  1 4.300000e-01    2.530000e+00
   N2h SX4er  1 4.300000e-01    3.380000e+00
   N2r SX4eh  1 4.300000e-01    3.380000e+00
   N2h SX3er  1 4.300000e-01    3.160000e+00
   N2r SX3eh  1 4.300000e-01    3.160000e+00
   N2h SX2er  1 4.300000e-01    2.920000e+00
   N2r SX2eh  1 4.300000e-01    2.920000e+00
   N2h SX1er  1 4.300000e-01    2.920000e+00
   N2r SX1eh  1 4.300000e-01    2.920000e+00
   N1h  SC6r  1 4.300000e-01    3.160000e+00
   N1r  SC6h  1 4.300000e-01    3.160000e+00
   N1h  SC5r  1 4.300000e-01    2.920000e+00
   N1r  SC5h  1 4.300000e-01    2.920000e+00
   N1h  SC4r  1 4.300000e-01    2.920000e+00
   N1r  SC4h  1 4.300000e-01    2.920000e+00
   N1h  SC3r  1 4.300000e-01    2.770000e+00
   N1r  SC3h  1 4.300000e-01    2.770000e+00
   N1h  SC2r  1 4.300000e-01    2.530000e+00
   N1r  SC2h  1 4.300000e-01    2.530000e+00
   N1h  SC1r  1 4.300000e-01    2.320000e+00
   N1r  SC1h  1 4.300000e-01    2.320000e+00
   N1h  SX4r  1 4.300000e-01    2.920000e+00
   N1r  SX4h  1 4.300000e-01    2.920000e+00
   N1h  SX3r  1 4.300000e-01    2.920000e+00
   N1r  SX3h  1 4.300000e-01    2.920000e+00
   N1h  SX2r  1 4.300000e-01    2.770000e+00
   N1r  SX2h  1 4.300000e-01    2.770000e+00
   N1h  SX1r  1 4.300000e-01    2.770000e+00
   N1r  SX1h  1 4.300000e-01    2.770000e+00
   N1h SC6vr  1 4.300000e-01    3.380000e+00
   N1r SC6vh  1 4.300000e-01    3.380000e+00
   N1h SC5vr  1 4.300000e-01    3.160000e+00
   N1r SC5vh  1 4.300000e-01    3.160000e+00
   N1h SC4vr  1 4.300000e-01    3.160000e+00
   N1r SC4vh  1 4.300000e-01    3.160000e+00
   N1h SC3vr  1 4.300000e-01    2.920000e+00
   N1r SC3vh  1 4.300000e-01    2.920000e+00
   N1h SC2vr  1 4.300000e-01    2.770000e+00
   N1r SC2vh  1 4.300000e-01    2.770000e+00
   N1h SC1vr  1 4.300000e-01    2.530000e+00
   N1r SC1vh  1 4.300000e-01    2.530000e+00
   N1h SX4vr  1 4.300000e-01    3.160000e+00
   N1r SX4vh  1 4.300000e-01    3.160000e+00
   N1h SX3vr  1 4.300000e-01    3.160000e+00
   N1r SX3vh  1 4.300000e-01    3.160000e+00
   N1h SX2vr  1 4.300000e-01    2.920000e+00
   N1r SX2vh  1 4.300000e-01    2.920000e+00
   N1h SX1vr  1 4.300000e-01    2.920000e+00
   N1r SX1vh  1 4.300000e-01    2.920000e+00
   N1h SC6er  1 4.300000e-01    3.380000e+00
   N1r SC6eh  1 4.300000e-01    3.380000e+00
   N1h SC5er  1 4.300000e-01    3.160000e+00
   N1r SC5eh  1 4.300000e-01    3.160000e+00
   N1h SC4er  1 4.300000e-01    3.160000e+00
   N1r SC4eh  1 4.300000e-01    3.160000e+00
   N1h SC3er  1 4.300000e-01    2.920000e+00
   N1r SC3eh  1 4.300000e-01    2.920000e+00
   N1h SC2er  1 4.300000e-01    2.770000e+00
   N1r SC2eh  1 4.300000e-01    2.770000e+00
   N1h SC1er  1 4.300000e-01    2.530000e+00
   N1r SC1eh  1 4.300000e-01    2.530000e+00
   N1h SX4er  1 4.300000e-01    3.160000e+00
   N1r SX4eh  1 4.300000e-01    3.160000e+00
   N1h SX3er  1 4.300000e-01    3.160000e+00
   N1r SX3eh  1 4.300000e-01    3.160000e+00
   N1h SX2er  1 4.300000e-01    2.920000e+00
   N1r SX2eh  1 4.300000e-01    2.920000e+00
   N1h SX1er  1 4.300000e-01    2.920000e+00
   N1r SX1eh  1 4.300000e-01    2.920000e+00
  P6dh  SC6r  1 4.300000e-01    2.320000e+00
  P6dr  SC6h  1 4.300000e-01    2.320000e+00
  P6dh  SC5r  1 4.300000e-01    2.160000e+00
  P6dr  SC5h  1 4.300000e-01    2.160000e+00
  P6dh  SC4r  1 4.300000e-01    1.930000e+00
  P6dr  SC4h  1 4.300000e-01    1.930000e+00
  P6dh  SC3r  1 4.300000e-01    1.730000e+00
  P6dr  SC3h  1 4.300000e-01    1.730000e+00
  P6dh  SC2r  1 4.300000e-01    1.730000e+00
  P6dr  SC2h  1 4.300000e-01    1.730000e+00
  P6dh  SC1r  1 4.730000e-01    1.280000e+00
  P6dr  SC1h  1 4.730000e-01    1.280000e+00
  P6dh  SX4r  1 4.300000e-01    2.530000e+00
  P6dr  SX4h  1 4.300000e-01    2.530000e+00
  P6dh  SX3r  1 4.300000e-01    2.530000e+00
  P6dr  SX3h  1 4.300000e-01    2.530000e+00
  P6dh  SX2r  1 4.300000e-01    2.320000e+00
  P6dr  SX2h  1 4.300000e-01    2.320000e+00
  P6dh  SX1r  1 4.300000e-01    2.160000e+00
  P6dr  SX1h  1 4.300000e-01    2.160000e+00
  P5dh  SC6r  1 4.300000e-01    2.320000e+00
  P5dr  SC6h  1 4.300000e-01    2.320000e+00
  P5dh  SC5r  1 4.300000e-01    2.320000e+00
  P5dr  SC5h  1 4.300000e-01    2.320000e+00
  P5dh  SC4r  1 4.300000e-01    2.160000e+00
  P5dr  SC4h  1 4.300000e-01    2.160000e+00
  P5dh  SC3r  1 4.300000e-01    1.930000e+00
  P5dr  SC3h  1 4.300000e-01    1.930000e+00
  P5dh  SC2r  1 4.300000e-01    1.930000e+00
  P5dr  SC2h  1 4.300000e-01    1.930000e+00
  P5dh  SC1r  1 4.300000e-01    1.730000e+00
  P5dr  SC1h  1 4.300000e-01    1.730000e+00
  P5dh  SX4r  1 4.300000e-01    2.770000e+00
  P5dr  SX4h  1 4.300000e-01    2.770000e+00
  P5dh  SX3r  1 4.300000e-01    2.530000e+00
  P5dr  SX3h  1 4.300000e-01    2.530000e+00
  P5dh  SX2r  1 4.300000e-01    2.530000e+00
  P5dr  SX2h  1 4.300000e-01    2.530000e+00
  P5dh  SX1r  1 4.300000e-01    2.160000e+00
  P5dr  SX1h  1 4.300000e-01    2.160000e+00
  P4dh  SC6r  1 4.300000e-01    2.530000e+00
  P4dr  SC6h  1 4.300000e-01    2.530000e+00
  P4dh  SC5r  1 4.300000e-01    2.320000e+00
  P4dr  SC5h  1 4.300000e-01    2.320000e+00
  P4dh  SC4r  1 4.300000e-01    2.160000e+00
  P4dr  SC4h  1 4.300000e-01    2.160000e+00
  P4dh  SC3r  1 4.300000e-01    1.930000e+00
  P4dr  SC3h  1 4.300000e-01    1.930000e+00
  P4dh  SC2r  1 4.300000e-01    1.930000e+00
  P4dr  SC2h  1 4.300000e-01    1.930000e+00
  P4dh  SC1r  1 4.300000e-01    1.730000e+00
  P4dr  SC1h  1 4.300000e-01    1.730000e+00
  P4dh  SX4r  1 4.300000e-01    2.770000e+00
  P4dr  SX4h  1 4.300000e-01    2.770000e+00
  P4dh  SX3r  1 4.300000e-01    2.530000e+00
  P4dr  SX3h  1 4.300000e-01    2.530000e+00
  P4dh  SX2r  1 4.300000e-01    2.530000e+00
  P4dr  SX2h  1 4.300000e-01    2.530000e+00
  P4dh  SX1r  1 4.300000e-01    2.320000e+00
  P4dr  SX1h  1 4.300000e-01    2.320000e+00
  P3dh  SC6r  1 4.300000e-01    2.770000e+00
  P3dr  SC6h  1 4.300000e-01    2.770000e+00
  P3dh  SC5r  1 4.300000e-01    2.530000e+00
  P3dr  SC5h  1 4.300000e-01    2.530000e+00
  P3dh  SC4r  1 4.300000e-01    2.320000e+00
  P3dr  SC4h  1 4.300000e-01    2.320000e+00
  P3dh  SC3r  1 4.300000e-01    1.930000e+00
  P3dr  SC3h  1 4.300000e-01    1.930000e+00
  P3dh  SC2r  1 4.300000e-01    1.930000e+00
  P3dr  SC2h  1 4.300000e-01    1.930000e+00
  P3dh  SC1r  1 4.300000e-01    1.730000e+00
  P3dr  SC1h  1 4.300000e-01    1.730000e+00
  P3dh  SX4r  1 4.300000e-01    2.770000e+00
  P3dr  SX4h  1 4.300000e-01    2.770000e+00
  P3dh  SX3r  1 4.300000e-01    2.770000e+00
  P3dr  SX3h  1 4.300000e-01    2.770000e+00
  P3dh  SX2r  1 4.300000e-01    2.530000e+00
  P3dr  SX2h  1 4.300000e-01    2.530000e+00
  P3dh  SX1r  1 4.300000e-01    2.320000e+00
  P3dr  SX1h  1 4.300000e-01    2.320000e+00
  P2dh  SC6r  1 4.300000e-01    2.770000e+00
  P2dr  SC6h  1 4.300000e-01    2.770000e+00
  P2dh  SC5r  1 4.300000e-01    2.530000e+00
  P2dr  SC5h  1 4.300000e-01    2.530000e+00
  P2dh  SC4r  1 4.300000e-01    2.320000e+00
  P2dr  SC4h  1 4.300000e-01    2.320000e+00
  P2dh  SC3r  1 4.300000e-01    2.160000e+00
  P2dr  SC3h  1 4.300000e-01    2.160000e+00
  P2dh  SC2r  1 4.300000e-01    2.160000e+00
  P2dr  SC2h  1 4.300000e-01    2.160000e+00
  P2dh  SC1r  1 4.300000e-01    1.930000e+00
  P2dr  SC1h  1 4.300000e-01    1.930000e+00
  P2dh  SX4r  1 4.300000e-01    2.770000e+00
  P2dr  SX4h  1 4.300000e-01    2.770000e+00
  P2dh  SX3r  1 4.300000e-01    2.770000e+00
  P2dr  SX3h  1 4.300000e-01    2.770000e+00
  P2dh  SX2r  1 4.300000e-01    2.530000e+00
  P2dr  SX2h  1 4.300000e-01    2.530000e+00
  P2dh  SX1r  1 4.300000e-01    2.320000e+00
  P2dr  SX1h  1 4.300000e-01    2.320000e+00
  P1dh  SC6r  1 4.300000e-01    2.770000e+00
  P1dr  SC6h  1 4.300000e-01    2.770000e+00
  P1dh  SC5r  1 4.300000e-01    2.530000e+00
  P1dr  SC5h  1 4.300000e-01    2.530000e+00
  P1dh  SC4r  1 4.300000e-01    2.320000e+00
  P1dr  SC4h  1 4.300000e-01    2.320000e+00
  P1dh  SC3r  1 4.300000e-01    2.160000e+00
  P1dr  SC3h  1 4.300000e-01    2.160000e+00
  P1dh  SC2r  1 4.300000e-01    2.160000e+00
  P1dr  SC2h  1 4.300000e-01    2.160000e+00
  P1dh  SC1r  1 4.300000e-01    1.930000e+00
  P1dr  SC1h  1 4.300000e-01    1.930000e+00
  P1dh  SX4r  1 4.300000e-01    2.770000e+00
  P1dr  SX4h  1 4.300000e-01    2.770000e+00
  P1dh  SX3r  1 4.300000e-01    2.770000e+00
  P1dr  SX3h  1 4.300000e-01    2.770000e+00
  P1dh  SX2r  1 4.300000e-01    2.530000e+00
  P1dr  SX2h  1 4.300000e-01    2.530000e+00
  P1dh  SX1r  1 4.300000e-01    2.320000e+00
  P1dr  SX1h  1 4.300000e-01    2.320000e+00
  N6dh  SC6r  1 4.300000e-01    2.920000e+00
  N6dr  SC6h  1 4.300000e-01    2.920000e+00
  N6dh  SC5r  1 4.300000e-01    2.770000e+00
  N6dr  SC5h  1 4.300000e-01    2.770000e+00
  N6dh  SC4r  1 4.300000e-01    2.530000e+00
  N6dr  SC4h  1 4.300000e-01    2.530000e+00
  N6dh  SC3r  1 4.300000e-01    2.320000e+00
  N6dr  SC3h  1 4.300000e-01    2.320000e+00
  N6dh  SC2r  1 4.300000e-01    2.320000e+00
  N6dr  SC2h  1 4.300000e-01    2.320000e+00
  N6dh  SC1r  1 4.300000e-01    2.160000e+00
  N6dr  SC1h  1 4.300000e-01    2.160000e+00
  N6dh  SX4r  1 4.300000e-01    2.920000e+00
  N6dr  SX4h  1 4.300000e-01    2.920000e+00
  N6dh  SX3r  1 4.300000e-01    2.770000e+00
  N6dr  SX3h  1 4.300000e-01    2.770000e+00
  N6dh  SX2r  1 4.300000e-01    2.530000e+00
  N6dr  SX2h  1 4.300000e-01    2.530000e+00
  N6dh  SX1r  1 4.300000e-01    2.320000e+00
  N6dr  SX1h  1 4.300000e-01    2.320000e+00
  N5dh  SC6r  1 4.300000e-01    2.920000e+00
  N5dr  SC6h  1 4.300000e-01    2.920000e+00
  N5dh  SC5r  1 4.300000e-01    2.770000e+00
  N5dr  SC5h  1 4.300000e-01    2.770000e+00
  N5dh  SC4r  1 4.300000e-01    2.530000e+00
  N5dr  SC4h  1 4.300000e-01    2.530000e+00
  N5dh  SC3r  1 4.300000e-01    2.530000e+00
  N5dr  SC3h  1 4.300000e-01    2.530000e+00
  N5dh  SC2r  1 4.300000e-01    2.320000e+00
  N5dr  SC2h  1 4.300000e-01    2.320000e+00
  N5dh  SC1r  1 4.300000e-01    2.160000e+00
  N5dr  SC1h  1 4.300000e-01    2.160000e+00
  N5dh  SX4r  1 4.300000e-01    3.160000e+00
  N5dr  SX4h  1 4.300000e-01    3.160000e+00
  N5dh  SX3r  1 4.300000e-01    2.920000e+00
  N5dr  SX3h  1 4.300000e-01    2.920000e+00
  N5dh  SX2r  1 4.300000e-01    2.770000e+00
  N5dr  SX2h  1 4.300000e-01    2.770000e+00
  N5dh  SX1r  1 4.300000e-01    2.530000e+00
  N5dr  SX1h  1 4.300000e-01    2.530000e+00
  N4dh  SC6r  1 4.300000e-01    2.920000e+00
  N4dr  SC6h  1 4.300000e-01    2.920000e+00
  N4dh  SC5r  1 4.300000e-01    2.770000e+00
  N4dr  SC5h  1 4.300000e-01    2.770000e+00
  N4dh  SC4r  1 4.300000e-01    2.770000e+00
  N4dr  SC4h  1 4.300000e-01    2.770000e+00
  N4dh  SC3r  1 4.300000e-01    2.530000e+00
  N4dr  SC3h  1 4.300000e-01    2.530000e+00
  N4dh  SC2r  1 4.300000e-01    2.320000e+00
  N4dr  SC2h  1 4.300000e-01    2.320000e+00
  N4dh  SC1r  1 4.300000e-01    2.160000e+00
  N4dr  SC1h  1 4.300000e-01    2.160000e+00
  N4dh  SX4r  1 4.300000e-01    3.380000e+00
  N4dr  SX4h  1 4.300000e-01    3.380000e+00
  N4dh  SX3r  1 4.300000e-01    3.160000e+00
  N4dr  SX3h  1 4.300000e-01    3.160000e+00
  N4dh  SX2r  1 4.300000e-01    2.770000e+00
  N4dr  SX2h  1 4.300000e-01    2.770000e+00
  N4dh  SX1r  1 4.300000e-01    2.530000e+00
  N4dr  SX1h  1 4.300000e-01    2.530000e+00
  N3dh  SC6r  1 4.300000e-01    2.920000e+00
  N3dr  SC6h  1 4.300000e-01    2.920000e+00
  N3dh  SC5r  1 4.300000e-01    2.770000e+00
  N3dr  SC5h  1 4.300000e-01    2.770000e+00
  N3dh  SC4r  1 4.300000e-01    2.770000e+00
  N3dr  SC4h  1 4.300000e-01    2.770000e+00
  N3dh  SC3r  1 4.300000e-01    2.530000e+00
  N3dr  SC3h  1 4.300000e-01    2.530000e+00
  N3dh  SC2r  1 4.300000e-01    2.530000e+00
  N3dr  SC2h  1 4.300000e-01    2.530000e+00
  N3dh  SC1r  1 4.300000e-01    2.320000e+00
  N3dr  SC1h  1 4.300000e-01    2.320000e+00
  N3dh  SX4r  1 4.300000e-01    3.160000e+00
  N3dr  SX4h  1 4.300000e-01    3.160000e+00
  N3dh  SX3r  1 4.300000e-01    2.920000e+00
  N3dr  SX3h  1 4.300000e-01    2.920000e+00
  N3dh  SX2r  1 4.300000e-01    2.770000e+00
  N3dr  SX2h  1 4.300000e-01    2.770000e+00
  N3dh  SX1r  1 4.300000e-01    2.770000e+00
  N3dr  SX1h  1 4.300000e-01    2.770000e+00
  N2dh  SC6r  1 4.300000e-01    2.920000e+00
  N2dr  SC6h  1 4.300000e-01    2.920000e+00
  N2dh  SC5r  1 4.300000e-01    2.770000e+00
  N2dr  SC5h  1 4.300000e-01    2.770000e+00
  N2dh  SC4r  1 4.300000e-01    2.770000e+00
  N2dr  SC4h  1 4.300000e-01    2.770000e+00
  N2dh  SC3r  1 4.300000e-01    2.770000e+00
  N2dr  SC3h  1 4.300000e-01    2.770000e+00
  N2dh  SC2r  1 4.300000e-01    2.530000e+00
  N2dr  SC2h  1 4.300000e-01    2.530000e+00
  N2dh  SC1r  1 4.300000e-01    2.320000e+00
  N2dr  SC1h  1 4.300000e-01    2.320000e+00
  N2dh  SX4r  1 4.300000e-01    3.160000e+00
  N2dr  SX4h  1 4.300000e-01    3.160000e+00
  N2dh  SX3r  1 4.300000e-01    2.920000e+00
  N2dr  SX3h  1 4.300000e-01    2.920000e+00
  N2dh  SX2r  1 4.300000e-01    2.770000e+00
  N2dr  SX2h  1 4.300000e-01    2.770000e+00
  N2dh  SX1r  1 4.300000e-01    2.770000e+00
  N2dr  SX1h  1 4.300000e-01    2.770000e+00
  N1dh  SC6r  1 4.300000e-01    3.160000e+00
  N1dr  SC6h  1 4.300000e-01    3.160000e+00
  N1dh  SC5r  1 4.300000e-01    2.920000e+00
  N1dr  SC5h  1 4.300000e-01    2.920000e+00
  N1dh  SC4r  1 4.300000e-01    2.920000e+00
  N1dr  SC4h  1 4.300000e-01    2.920000e+00
  N1dh  SC3r  1 4.300000e-01    2.770000e+00
  N1dr  SC3h  1 4.300000e-01    2.770000e+00
  N1dh  SC2r  1 4.300000e-01    2.530000e+00
  N1dr  SC2h  1 4.300000e-01    2.530000e+00
  N1dh  SC1r  1 4.300000e-01    2.320000e+00
  N1dr  SC1h  1 4.300000e-01    2.320000e+00
  N1dh  SX4r  1 4.300000e-01    2.920000e+00
  N1dr  SX4h  1 4.300000e-01    2.920000e+00
  N1dh  SX3r  1 4.300000e-01    2.920000e+00
  N1dr  SX3h  1 4.300000e-01    2.920000e+00
  N1dh  SX2r  1 4.300000e-01    2.770000e+00
  N1dr  SX2h  1 4.300000e-01    2.770000e+00
  N1dh  SX1r  1 4.300000e-01    2.770000e+00
  N1dr  SX1h  1 4.300000e-01    2.770000e+00
  P6ah  SC6r  1 4.300000e-01    2.320000e+00
  P6ar  SC6h  1 4.300000e-01    2.320000e+00
  P6ah  SC5r  1 4.300000e-01    2.160000e+00
  P6ar  SC5h  1 4.300000e-01    2.160000e+00
  P6ah  SC4r  1 4.300000e-01    1.930000e+00
  P6ar  SC4h  1 4.300000e-01    1.930000e+00
  P6ah  SC3r  1 4.300000e-01    1.730000e+00
  P6ar  SC3h  1 4.300000e-01    1.730000e+00
  P6ah  SC2r  1 4.300000e-01    1.730000e+00
  P6ar  SC2h  1 4.300000e-01    1.730000e+00
  P6ah  SC1r  1 4.730000e-01    1.280000e+00
  P6ar  SC1h  1 4.730000e-01    1.280000e+00
  P6ah  SX4r  1 4.300000e-01    2.530000e+00
  P6ar  SX4h  1 4.300000e-01    2.530000e+00
  P6ah  SX3r  1 4.300000e-01    2.530000e+00
  P6ar  SX3h  1 4.300000e-01    2.530000e+00
  P6ah  SX2r  1 4.300000e-01    2.320000e+00
  P6ar  SX2h  1 4.300000e-01    2.320000e+00
  P6ah  SX1r  1 4.300000e-01    2.160000e+00
  P6ar  SX1h  1 4.300000e-01    2.160000e+00
  P5ah  SC6r  1 4.300000e-01    2.320000e+00
  P5ar  SC6h  1 4.300000e-01    2.320000e+00
  P5ah  SC5r  1 4.300000e-01    2.320000e+00
  P5ar  SC5h  1 4.300000e-01    2.320000e+00
  P5ah  SC4r  1 4.300000e-01    2.160000e+00
  P5ar  SC4h  1 4.300000e-01    2.160000e+00
  P5ah  SC3r  1 4.300000e-01    1.930000e+00
  P5ar  SC3h  1 4.300000e-01    1.930000e+00
  P5ah  SC2r  1 4.300000e-01    1.930000e+00
  P5ar  SC2h  1 4.300000e-01    1.930000e+00
  P5ah  SC1r  1 4.300000e-01    1.730000e+00
  P5ar  SC1h  1 4.300000e-01    1.730000e+00
  P5ah  SX4r  1 4.300000e-01    2.770000e+00
  P5ar  SX4h  1 4.300000e-01    2.770000e+00
  P5ah  SX3r  1 4.300000e-01    2.530000e+00
  P5ar  SX3h  1 4.300000e-01    2.530000e+00
  P5ah  SX2r  1 4.300000e-01    2.530000e+00
  P5ar  SX2h  1 4.300000e-01    2.530000e+00
  P5ah  SX1r  1 4.300000e-01    2.160000e+00
  P5ar  SX1h  1 4.300000e-01    2.160000e+00
  P4ah  SC6r  1 4.300000e-01    2.530000e+00
  P4ar  SC6h  1 4.300000e-01    2.530000e+00
  P4ah  SC5r  1 4.300000e-01    2.320000e+00
  P4ar  SC5h  1 4.300000e-01    2.320000e+00
  P4ah  SC4r  1 4.300000e-01    2.160000e+00
  P4ar  SC4h  1 4.300000e-01    2.160000e+00
  P4ah  SC3r  1 4.300000e-01    1.930000e+00
  P4ar  SC3h  1 4.300000e-01    1.930000e+00
  P4ah  SC2r  1 4.300000e-01    1.930000e+00
  P4ar  SC2h  1 4.300000e-01    1.930000e+00
  P4ah  SC1r  1 4.300000e-01    1.730000e+00
  P4ar  SC1h  1 4.300000e-01    1.730000e+00
  P4ah  SX4r  1 4.300000e-01    2.770000e+00
  P4ar  SX4h  1 4.300000e-01    2.770000e+00
  P4ah  SX3r  1 4.300000e-01    2.530000e+00
  P4ar  SX3h  1 4.300000e-01    2.530000e+00
  P4ah  SX2r  1 4.300000e-01    2.530000e+00
  P4ar  SX2h  1 4.300000e-01    2.530000e+00
  P4ah  SX1r  1 4.300000e-01    2.320000e+00
  P4ar  SX1h  1 4.300000e-01    2.320000e+00
  P3ah  SC6r  1 4.300000e-01    2.770000e+00
  P3ar  SC6h  1 4.300000e-01    2.770000e+00
  P3ah  SC5r  1 4.300000e-01    2.530000e+00
  P3ar  SC5h  1 4.300000e-01    2.530000e+00
  P3ah  SC4r  1 4.300000e-01    2.320000e+00
  P3ar  SC4h  1 4.300000e-01    2.320000e+00
  P3ah  SC3r  1 4.300000e-01    1.930000e+00
  P3ar  SC3h  1 4.300000e-01    1.930000e+00
  P3ah  SC2r  1 4.300000e-01    1.930000e+00
  P3ar  SC2h  1 4.300000e-01    1.930000e+00
  P3ah  SC1r  1 4.300000e-01    1.730000e+00
  P3ar  SC1h  1 4.300000e-01    1.730000e+00
  P3ah  SX4r  1 4.300000e-01    2.770000e+00
  P3ar  SX4h  1 4.300000e-01    2.770000e+00
  P3ah  SX3r  1 4.300000e-01    2.770000e+00
  P3ar  SX3h  1 4.300000e-01    2.770000e+00
  P3ah  SX2r  1 4.300000e-01    2.530000e+00
  P3ar  SX2h  1 4.300000e-01    2.530000e+00
  P3ah  SX1r  1 4.300000e-01    2.320000e+00
  P3ar  SX1h  1 4.300000e-01    2.320000e+00
  P2ah  SC6r  1 4.300000e-01    2.770000e+00
  P2ar  SC6h  1 4.300000e-01    2.770000e+00
  P2ah  SC5r  1 4.300000e-01    2.530000e+00
  P2ar  SC5h  1 4.300000e-01    2.530000e+00
  P2ah  SC4r  1 4.300000e-01    2.320000e+00
  P2ar  SC4h  1 4.300000e-01    2.320000e+00
  P2ah  SC3r  1 4.300000e-01    2.160000e+00
  P2ar  SC3h  1 4.300000e-01    2.160000e+00
  P2ah  SC2r  1 4.300000e-01    2.160000e+00
  P2ar  SC2h  1 4.300000e-01    2.160000e+00
  P2ah  SC1r  1 4.300000e-01    1.930000e+00
  P2ar  SC1h  1 4.300000e-01    1.930000e+00
  P2ah  SX4r  1 4.300000e-01    2.770000e+00
  P2ar  SX4h  1 4.300000e-01    2.770000e+00
  P2ah  SX3r  1 4.300000e-01    2.770000e+00
  P2ar  SX3h  1 4.300000e-01    2.770000e+00
  P2ah  SX2r  1 4.300000e-01    2.530000e+00
  P2ar  SX2h  1 4.300000e-01    2.530000e+00
  P2ah  SX1r  1 4.300000e-01    2.320000e+00
  P2ar  SX1h  1 4.300000e-01    2.320000e+00
  P1ah  SC6r  1 4.300000e-01    2.770000e+00
  P1ar  SC6h  1 4.300000e-01    2.770000e+00
  P1ah  SC5r  1 4.300000e-01    2.530000e+00
  P1ar  SC5h  1 4.300000e-01    2.530000e+00
  P1ah  SC4r  1 4.300000e-01    2.320000e+00
  P1ar  SC4h  1 4.300000e-01    2.320000e+00
  P1ah  SC3r  1 4.300000e-01    2.160000e+00
  P1ar  SC3h  1 4.300000e-01    2.160000e+00
  P1ah  SC2r  1 4.300000e-01    2.160000e+00
  P1ar  SC2h  1 4.300000e-01    2.160000e+00
  P1ah  SC1r  1 4.300000e-01    1.930000e+00
  P1ar  SC1h  1 4.300000e-01    1.930000e+00
  P1ah  SX4r  1 4.300000e-01    2.770000e+00
  P1ar  SX4h  1 4.300000e-01    2.770000e+00
  P1ah  SX3r  1 4.300000e-01    2.770000e+00
  P1ar  SX3h  1 4.300000e-01    2.770000e+00
  P1ah  SX2r  1 4.300000e-01    2.530000e+00
  P1ar  SX2h  1 4.300000e-01    2.530000e+00
  P1ah  SX1r  1 4.300000e-01    2.320000e+00
  P1ar  SX1h  1 4.300000e-01    2.320000e+00
  N6ah  SC6r  1 4.300000e-01    2.920000e+00
  N6ar  SC6h  1 4.300000e-01    2.920000e+00
  N6ah  SC5r  1 4.300000e-01    2.770000e+00
  N6ar  SC5h  1 4.300000e-01    2.770000e+00
  N6ah  SC4r  1 4.300000e-01    2.530000e+00
  N6ar  SC4h  1 4.300000e-01    2.530000e+00
  N6ah  SC3r  1 4.300000e-01    2.320000e+00
  N6ar  SC3h  1 4.300000e-01    2.320000e+00
  N6ah  SC2r  1 4.300000e-01    2.320000e+00
  N6ar  SC2h  1 4.300000e-01    2.320000e+00
  N6ah  SC1r  1 4.300000e-01    2.160000e+00
  N6ar  SC1h  1 4.300000e-01    2.160000e+00
  N6ah  SX4r  1 4.300000e-01    2.920000e+00
  N6ar  SX4h  1 4.300000e-01    2.920000e+00
  N6ah  SX3r  1 4.300000e-01    2.770000e+00
  N6ar  SX3h  1 4.300000e-01    2.770000e+00
  N6ah  SX2r  1 4.300000e-01    2.530000e+00
  N6ar  SX2h  1 4.300000e-01    2.530000e+00
  N6ah  SX1r  1 4.300000e-01    2.320000e+00
  N6ar  SX1h  1 4.300000e-01    2.320000e+00
  N5ah  SC6r  1 4.300000e-01    2.920000e+00
  N5ar  SC6h  1 4.300000e-01    2.920000e+00
  N5ah  SC5r  1 4.300000e-01    2.770000e+00
  N5ar  SC5h  1 4.300000e-01    2.770000e+00
  N5ah  SC4r  1 4.300000e-01    2.530000e+00
  N5ar  SC4h  1 4.300000e-01    2.530000e+00
  N5ah  SC3r  1 4.300000e-01    2.530000e+00
  N5ar  SC3h  1 4.300000e-01    2.530000e+00
  N5ah  SC2r  1 4.300000e-01    2.320000e+00
  N5ar  SC2h  1 4.300000e-01    2.320000e+00
  N5ah  SC1r  1 4.300000e-01    2.160000e+00
  N5ar  SC1h  1 4.300000e-01    2.160000e+00
  N5ah  SX4r  1 4.300000e-01    3.160000e+00
  N5ar  SX4h  1 4.300000e-01    3.160000e+00
  N5ah  SX3r  1 4.300000e-01    2.920000e+00
  N5ar  SX3h  1 4.300000e-01    2.920000e+00
  N5ah  SX2r  1 4.300000e-01    2.770000e+00
  N5ar  SX2h  1 4.300000e-01    2.770000e+00
  N5ah  SX1r  1 4.300000e-01    2.530000e+00
  N5ar  SX1h  1 4.300000e-01    2.530000e+00
  N4ah  SC6r  1 4.300000e-01    2.920000e+00
  N4ar  SC6h  1 4.300000e-01    2.920000e+00
  N4ah  SC5r  1 4.300000e-01    2.770000e+00
  N4ar  SC5h  1 4.300000e-01    2.770000e+00
  N4ah  SC4r  1 4.300000e-01    2.770000e+00
  N4ar  SC4h  1 4.300000e-01    2.770000e+00
  N4ah  SC3r  1 4.300000e-01    2.530000e+00
  N4ar  SC3h  1 4.300000e-01    2.530000e+00
  N4ah  SC2r  1 4.300000e-01    2.320000e+00
  N4ar  SC2h  1 4.300000e-01    2.320000e+00
  N4ah  SC1r  1 4.300000e-01    2.160000e+00
  N4ar  SC1h  1 4.300000e-01    2.160000e+00
  N4ah  SX4r  1 4.300000e-01    3.380000e+00
  N4ar  SX4h  1 4.300000e-01    3.380000e+00
  N4ah  SX3r  1 4.300000e-01    3.160000e+00
  N4ar  SX3h  1 4.300000e-01    3.160000e+00
  N4ah  SX2r  1 4.300000e-01    2.770000e+00
  N4ar  SX2h  1 4.300000e-01    2.770000e+00
  N4ah  SX1r  1 4.300000e-01    2.530000e+00
  N4ar  SX1h  1 4.300000e-01    2.530000e+00
  N3ah  SC6r  1 4.300000e-01    2.920000e+00
  N3ar  SC6h  1 4.300000e-01    2.920000e+00
  N3ah  SC5r  1 4.300000e-01    2.770000e+00
  N3ar  SC5h  1 4.300000e-01    2.770000e+00
  N3ah  SC4r  1 4.300000e-01    2.770000e+00
  N3ar  SC4h  1 4.300000e-01    2.770000e+00
  N3ah  SC3r  1 4.300000e-01    2.530000e+00
  N3ar  SC3h  1 4.300000e-01    2.530000e+00
  N3ah  SC2r  1 4.300000e-01    2.530000e+00
  N3ar  SC2h  1 4.300000e-01    2.530000e+00
  N3ah  SC1r  1 4.300000e-01    2.320000e+00
  N3ar  SC1h  1 4.300000e-01    2.320000e+00
  N3ah  SX4r  1 4.300000e-01    3.160000e+00
  N3ar  SX4h  1 4.300000e-01    3.160000e+00
  N3ah  SX3r  1 4.300000e-01    2.920000e+00
  N3ar  SX3h  1 4.300000e-01    2.920000e+00
  N3ah  SX2r  1 4.300000e-01    2.770000e+00
  N3ar  SX2h  1 4.300000e-01    2.770000e+00
  N3ah  SX1r  1 4.300000e-01    2.770000e+00
  N3ar  SX1h  1 4.300000e-01    2.770000e+00
  N2ah  SC6r  1 4.300000e-01    2.920000e+00
  N2ar  SC6h  1 4.300000e-01    2.920000e+00
  N2ah  SC5r  1 4.300000e-01    2.770000e+00
  N2ar  SC5h  1 4.300000e-01    2.770000e+00
  N2ah  SC4r  1 4.300000e-01    2.770000e+00
  N2ar  SC4h  1 4.300000e-01    2.770000e+00
  N2ah  SC3r  1 4.300000e-01    2.770000e+00
  N2ar  SC3h  1 4.300000e-01    2.770000e+00
  N2ah  SC2r  1 4.300000e-01    2.530000e+00
  N2ar  SC2h  1 4.300000e-01    2.530000e+00
  N2ah  SC1r  1 4.300000e-01    2.320000e+00
  N2ar  SC1h  1 4.300000e-01    2.320000e+00
  N2ah  SX4r  1 4.300000e-01    3.160000e+00
  N2ar  SX4h  1 4.300000e-01    3.160000e+00
  N2ah  SX3r  1 4.300000e-01    2.920000e+00
  N2ar  SX3h  1 4.300000e-01    2.920000e+00
  N2ah  SX2r  1 4.300000e-01    2.770000e+00
  N2ar  SX2h  1 4.300000e-01    2.770000e+00
  N2ah  SX1r  1 4.300000e-01    2.770000e+00
  N2ar  SX1h  1 4.300000e-01    2.770000e+00
  N1ah  SC6r  1 4.300000e-01    3.160000e+00
  N1ar  SC6h  1 4.300000e-01    3.160000e+00
  N1ah  SC5r  1 4.300000e-01    2.920000e+00
  N1ar  SC5h  1 4.300000e-01    2.920000e+00
  N1ah  SC4r  1 4.300000e-01    2.920000e+00
  N1ar  SC4h  1 4.300000e-01    2.920000e+00
  N1ah  SC3r  1 4.300000e-01    2.770000e+00
  N1ar  SC3h  1 4.300000e-01    2.770000e+00
  N1ah  SC2r  1 4.300000e-01    2.530000e+00
  N1ar  SC2h  1 4.300000e-01    2.530000e+00
  N1ah  SC1r  1 4.300000e-01    2.320000e+00
  N1ar  SC1h  1 4.300000e-01    2.320000e+00
  N1ah  SX4r  1 4.300000e-01    2.920000e+00
  N1ar  SX4h  1 4.300000e-01    2.920000e+00
  N1ah  SX3r  1 4.300000e-01    2.920000e+00
  N1ar  SX3h  1 4.300000e-01    2.920000e+00
  N1ah  SX2r  1 4.300000e-01    2.770000e+00
  N1ar  SX2h  1 4.300000e-01    2.770000e+00
  N1ah  SX1r  1 4.300000e-01    2.770000e+00
  N1ar  SX1h  1 4.300000e-01    2.770000e+00
  SC6v   C5v  1 4.300000e-01    2.770000e+00
  SC6v   C4v  1 4.300000e-01    2.770000e+00
  SC6v   C3v  1 4.300000e-01    2.530000e+00
  SC6v   C2v  1 4.300000e-01    2.320000e+00
  SC6v   C1v  1 4.300000e-01    2.160000e+00
  SC6v   X4v  1 4.300000e-01    2.770000e+00
  SC6v   X3v  1 4.300000e-01    2.770000e+00
  SC6v   X2v  1 4.300000e-01    2.770000e+00
  SC6v   X1v  1 4.300000e-01    2.770000e+00
  SC5v   C4v  1 4.300000e-01    2.770000e+00
  SC5v   C3v  1 4.300000e-01    2.530000e+00
  SC5v   C2v  1 4.300000e-01    2.320000e+00
  SC5v   C1v  1 4.300000e-01    2.320000e+00
  SC5v   X4v  1 4.300000e-01    2.530000e+00
  SC5v   X3v  1 4.300000e-01    2.530000e+00
  SC5v   X2v  1 4.300000e-01    2.530000e+00
  SC5v   X1v  1 4.300000e-01    2.770000e+00
  SC4v   C3v  1 4.300000e-01    2.770000e+00
  SC4v   C2v  1 4.300000e-01    2.530000e+00
  SC4v   C1v  1 4.300000e-01    2.320000e+00
  SC4v   X4v  1 4.300000e-01    2.530000e+00
  SC4v   X3v  1 4.300000e-01    2.530000e+00
  SC4v   X2v  1 4.300000e-01    2.530000e+00
  SC4v   X1v  1 4.300000e-01    2.770000e+00
  SC3v   C2v  1 4.300000e-01    2.770000e+00
  SC3v   C1v  1 4.300000e-01    2.770000e+00
  SC3v   X4v  1 4.300000e-01    2.530000e+00
  SC3v   X3v  1 4.300000e-01    2.530000e+00
  SC3v   X2v  1 4.300000e-01    2.530000e+00
  SC3v   X1v  1 4.300000e-01    2.770000e+00
  SC2v   C1v  1 4.300000e-01    2.920000e+00
  SC2v   X4v  1 4.300000e-01    2.160000e+00
  SC2v   X3v  1 4.300000e-01    2.530000e+00
  SC2v   X2v  1 4.300000e-01    2.530000e+00
  SC2v   X1v  1 4.300000e-01    2.530000e+00
  SC1v   X4v  1 4.300000e-01    2.160000e+00
  SC1v   X3v  1 4.300000e-01    2.530000e+00
  SC1v   X2v  1 4.300000e-01    2.530000e+00
  SC1v   X1v  1 4.300000e-01    2.530000e+00
  SX4v   X3v  1 4.300000e-01    2.770000e+00
  SX4v   X2v  1 4.300000e-01    2.770000e+00
  SX4v   X1v  1 4.300000e-01    2.770000e+00
  SX3v   X2v  1 4.300000e-01    2.920000e+00
  SX3v   X1v  1 4.300000e-01    2.920000e+00
  SX2v   X1v  1 4.300000e-01    2.920000e+00
  SC6e   C5e  1 4.300000e-01    2.770000e+00
  SC6e   C4e  1 4.300000e-01    2.770000e+00
  SC6e   C3e  1 4.300000e-01    2.530000e+00
  SC6e   C2e  1 4.300000e-01    2.320000e+00
  SC6e   C1e  1 4.300000e-01    2.160000e+00
  SC6e   X4e  1 4.300000e-01    2.770000e+00
  SC6e   X3e  1 4.300000e-01    2.770000e+00
  SC6e   X2e  1 4.300000e-01    2.770000e+00
  SC6e   X1e  1 4.300000e-01    2.770000e+00
  SC5e   C4e  1 4.300000e-01    2.770000e+00
  SC5e   C3e  1 4.300000e-01    2.530000e+00
  SC5e   C2e  1 4.300000e-01    2.320000e+00
  SC5e   C1e  1 4.300000e-01    2.320000e+00
  SC5e   X4e  1 4.300000e-01    2.530000e+00
  SC5e   X3e  1 4.300000e-01    2.530000e+00
  SC5e   X2e  1 4.300000e-01    2.530000e+00
  SC5e   X1e  1 4.300000e-01    2.770000e+00
  SC4e   C3e  1 4.300000e-01    2.770000e+00
  SC4e   C2e  1 4.300000e-01    2.530000e+00
  SC4e   C1e  1 4.300000e-01    2.320000e+00
  SC4e   X4e  1 4.300000e-01    2.530000e+00
  SC4e   X3e  1 4.300000e-01    2.530000e+00
  SC4e   X2e  1 4.300000e-01    2.530000e+00
  SC4e   X1e  1 4.300000e-01    2.770000e+00
  SC3e   C2e  1 4.300000e-01    2.770000e+00
  SC3e   C1e  1 4.300000e-01    2.770000e+00
  SC3e   X4e  1 4.300000e-01    2.530000e+00
  SC3e   X3e  1 4.300000e-01    2.530000e+00
  SC3e   X2e  1 4.300000e-01    2.530000e+00
  SC3e   X1e  1 4.300000e-01    2.770000e+00
  SC2e   C1e  1 4.300000e-01    2.920000e+00
  SC2e   X4e  1 4.300000e-01    2.160000e+00
  SC2e   X3e  1 4.300000e-01    2.530000e+00
  SC2e   X2e  1 4.300000e-01    2.530000e+00
  SC2e   X1e  1 4.300000e-01    2.530000e+00
  SC1e   X4e  1 4.300000e-01    2.160000e+00
  SC1e   X3e  1 4.300000e-01    2.530000e+00
  SC1e   X2e  1 4.300000e-01    2.530000e+00
  SC1e   X1e  1 4.300000e-01    2.530000e+00
  SX4e   X3e  1 4.300000e-01    2.770000e+00
  SX4e   X2e  1 4.300000e-01    2.770000e+00
  SX4e   X1e  1 4.300000e-01    2.770000e+00
  SX3e   X2e  1 4.300000e-01    2.920000e+00
  SX3e   X1e  1 4.300000e-01    2.920000e+00
  SX2e   X1e  1 4.300000e-01    2.920000e+00
  SP6q   P6d  1 4.300000e-01    5.210000e+00
  SP6q   N1d  1 4.300000e-01    2.770000e+00
  SP6q   N2d  1 4.300000e-01    2.920000e+00
  SP6q   N3d  1 4.300000e-01    3.160000e+00
  SP6q   N4d  1 4.300000e-01    3.380000e+00
  SP6q   N5d  1 4.300000e-01    3.590000e+00
  SP6q   N6d  1 4.300000e-01    3.970000e+00
  SP6q   P1d  1 4.300000e-01    4.170000e+00
  SP6q   P2d  1 4.300000e-01    4.400000e+00
  SP6q   P3d  1 4.300000e-01    4.400000e+00
  SP6q   P4d  1 4.300000e-01    4.680000e+00
  SP6q   P5d  1 4.300000e-01    4.920000e+00
  SP6q   P6a  1 4.300000e-01    5.210000e+00
  SP6q   N1a  1 4.300000e-01    2.770000e+00
  SP6q   N2a  1 4.300000e-01    2.920000e+00
  SP6q   N3a  1 4.300000e-01    3.160000e+00
  SP6q   N4a  1 4.300000e-01    3.380000e+00
  SP6q   N5a  1 4.300000e-01    3.590000e+00
  SP6q   N6a  1 4.300000e-01    3.970000e+00
  SP6q   P1a  1 4.300000e-01    4.170000e+00
  SP6q   P2a  1 4.300000e-01    4.400000e+00
  SP6q   P3a  1 4.300000e-01    4.400000e+00
  SP6q   P4a  1 4.300000e-01    4.680000e+00
  SP6q   P5a  1 4.300000e-01    4.920000e+00
  SP6q   C6v  1 4.300000e-01    2.920000e+00
  SP6q   C5v  1 4.300000e-01    2.770000e+00
  SP6q   C4v  1 4.300000e-01    2.530000e+00
  SP6q   C3v  1 4.300000e-01    2.320000e+00
  SP6q   C2v  1 4.300000e-01    2.320000e+00
  SP6q   C1v  1 4.300000e-01    1.930000e+00
  SP6q   X4v  1 4.300000e-01    3.160000e+00
  SP6q   X3v  1 4.300000e-01    3.160000e+00
  SP6q   X2v  1 4.300000e-01    2.920000e+00
  SP6q   X1v  1 4.300000e-01    2.770000e+00
  SP6q   C6e  1 4.300000e-01    2.920000e+00
  SP6q   C5e  1 4.300000e-01    2.770000e+00
  SP6q   C4e  1 4.300000e-01    2.530000e+00
  SP6q   C3e  1 4.300000e-01    2.320000e+00
  SP6q   C2e  1 4.300000e-01    2.320000e+00
  SP6q   C1e  1 4.300000e-01    1.930000e+00
  SP6q   X4e  1 4.300000e-01    3.160000e+00
  SP6q   X3e  1 4.300000e-01    3.160000e+00
  SP6q   X2e  1 4.300000e-01    2.920000e+00
  SP6q   X1e  1 4.300000e-01    2.770000e+00
  SP6d   P5q  1 4.300000e-01    4.920000e+00
  SP5q   P5d  1 4.300000e-01    4.680000e+00
  SP5q   N1d  1 4.300000e-01    2.770000e+00
  SP5q   N2d  1 4.300000e-01    2.920000e+00
  SP5q   N3d  1 4.300000e-01    3.160000e+00
  SP5q   N4d  1 4.300000e-01    3.590000e+00
  SP5q   N5d  1 4.300000e-01    3.590000e+00
  SP5q   N6d  1 4.300000e-01    3.770000e+00
  SP5q   P1d  1 4.300000e-01    3.970000e+00
  SP5q   P2d  1 4.300000e-01    4.170000e+00
  SP5q   P3d  1 4.300000e-01    4.170000e+00
  SP5q   P4d  1 4.300000e-01    4.400000e+00
  SP6a   P5q  1 4.300000e-01    4.920000e+00
  SP5q   P5a  1 4.300000e-01    4.680000e+00
  SP5q   N1a  1 4.300000e-01    2.770000e+00
  SP5q   N2a  1 4.300000e-01    2.920000e+00
  SP5q   N3a  1 4.300000e-01    3.160000e+00
  SP5q   N4a  1 4.300000e-01    3.590000e+00
  SP5q   N5a  1 4.300000e-01    3.590000e+00
  SP5q   N6a  1 4.300000e-01    3.770000e+00
  SP5q   P1a  1 4.300000e-01    3.970000e+00
  SP5q   P2a  1 4.300000e-01    4.170000e+00
  SP5q   P3a  1 4.300000e-01    4.170000e+00
  SP5q   P4a  1 4.300000e-01    4.400000e+00
  SP5q   C6v  1 4.300000e-01    2.920000e+00
  SP5q   C5v  1 4.300000e-01    2.920000e+00
  SP5q   C4v  1 4.300000e-01    2.770000e+00
  SP5q   C3v  1 4.300000e-01    2.530000e+00
  SP5q   C2v  1 4.300000e-01    2.530000e+00
  SP5q   C1v  1 4.300000e-01    2.320000e+00
  SP5q   X4v  1 4.300000e-01    3.380000e+00
  SP5q   X3v  1 4.300000e-01    3.160000e+00
  SP5q   X2v  1 4.300000e-01    3.160000e+00
  SP5q   X1v  1 4.300000e-01    2.770000e+00
  SP5q   C6e  1 4.300000e-01    2.920000e+00
  SP5q   C5e  1 4.300000e-01    2.920000e+00
  SP5q   C4e  1 4.300000e-01    2.770000e+00
  SP5q   C3e  1 4.300000e-01    2.530000e+00
  SP5q   C2e  1 4.300000e-01    2.530000e+00
  SP5q   C1e  1 4.300000e-01    2.320000e+00
  SP5q   X4e  1 4.300000e-01    3.380000e+00
  SP5q   X3e  1 4.300000e-01    3.160000e+00
  SP5q   X2e  1 4.300000e-01    3.160000e+00
  SP5q   X1e  1 4.300000e-01    2.770000e+00
  SP6d   P4q  1 4.300000e-01    4.680000e+00
  SP5d   P4q  1 4.300000e-01    4.400000e+00
  SP4q   P4d  1 4.300000e-01    4.400000e+00
  SP4q   N1d  1 4.300000e-01    2.920000e+00
  SP4q   N2d  1 4.300000e-01    3.160000e+00
  SP4q   N3d  1 4.300000e-01    3.380000e+00
  SP4q   N4d  1 4.300000e-01    3.590000e+00
  SP4q   N5d  1 4.300000e-01    3.590000e+00
  SP4q   N6d  1 4.300000e-01    3.770000e+00
  SP4q   P1d  1 4.300000e-01    3.970000e+00
  SP4q   P2d  1 4.300000e-01    4.170000e+00
  SP4q   P3d  1 4.300000e-01    4.170000e+00
  SP6a   P4q  1 4.300000e-01    4.680000e+00
  SP5a   P4q  1 4.300000e-01    4.400000e+00
  SP4q   P4a  1 4.300000e-01    4.400000e+00
  SP4q   N1a  1 4.300000e-01    2.920000e+00
  SP4q   N2a  1 4.300000e-01    3.160000e+00
  SP4q   N3a  1 4.300000e-01    3.380000e+00
  SP4q   N4a  1 4.300000e-01    3.590000e+00
  SP4q   N5a  1 4.300000e-01    3.590000e+00
  SP4q   N6a  1 4.300000e-01    3.770000e+00
  SP4q   P1a  1 4.300000e-01    3.970000e+00
  SP4q   P2a  1 4.300000e-01    4.170000e+00
  SP4q   P3a  1 4.300000e-01    4.170000e+00
  SP4q   C6v  1 4.300000e-01    3.160000e+00
  SP4q   C5v  1 4.300000e-01    2.920000e+00
  SP4q   C4v  1 4.300000e-01    2.770000e+00
  SP4q   C3v  1 4.300000e-01    2.530000e+00
  SP4q   C2v  1 4.300000e-01    2.530000e+00
  SP4q   C1v  1 4.300000e-01    2.320000e+00
  SP4q   X4v  1 4.300000e-01    3.380000e+00
  SP4q   X3v  1 4.300000e-01    3.160000e+00
  SP4q   X2v  1 4.300000e-01    3.160000e+00
  SP4q   X1v  1 4.300000e-01    2.920000e+00
  SP4q   C6e  1 4.300000e-01    3.160000e+00
  SP4q   C5e  1 4.300000e-01    2.920000e+00
  SP4q   C4e  1 4.300000e-01    2.770000e+00
  SP4q   C3e  1 4.300000e-01    2.530000e+00
  SP4q   C2e  1 4.300000e-01    2.530000e+00
  SP4q   C1e  1 4.300000e-01    2.320000e+00
  SP4q   X4e  1 4.300000e-01    3.380000e+00
  SP4q   X3e  1 4.300000e-01    3.160000e+00
  SP4q   X2e  1 4.300000e-01    3.160000e+00
  SP4q   X1e  1 4.300000e-01    2.920000e+00
  SP6d   P3q  1 4.300000e-01    4.400000e+00
  SP5d   P3q  1 4.300000e-01    4.170000e+00
  SP4d   P3q  1 4.300000e-01    4.170000e+00
  SP3q   P3d  1 4.300000e-01    4.170000e+00
  SP3q   N1d  1 4.300000e-01    3.160000e+00
  SP3q   N2d  1 4.300000e-01    3.380000e+00
  SP3q   N3d  1 4.300000e-01    3.380000e+00
  SP3q   N4d  1 4.300000e-01    3.590000e+00
  SP3q   N5d  1 4.300000e-01    3.590000e+00
  SP3q   N6d  1 4.300000e-01    3.770000e+00
  SP3q   P1d  1 4.300000e-01    3.970000e+00
  SP3q   P2d  1 4.300000e-01    4.170000e+00
  SP6a   P3q  1 4.300000e-01    4.400000e+00
  SP5a   P3q  1 4.300000e-01    4.170000e+00
  SP4a   P3q  1 4.300000e-01    4.170000e+00
  SP3q   P3a  1 4.300000e-01    4.170000e+00
  SP3q   N1a  1 4.300000e-01    3.160000e+00
  SP3q   N2a  1 4.300000e-01    3.380000e+00
  SP3q   N3a  1 4.300000e-01    3.380000e+00
  SP3q   N4a  1 4.300000e-01    3.590000e+00
  SP3q   N5a  1 4.300000e-01    3.590000e+00
  SP3q   N6a  1 4.300000e-01    3.770000e+00
  SP3q   P1a  1 4.300000e-01    3.970000e+00
  SP3q   P2a  1 4.300000e-01    4.170000e+00
  SP3q   C6v  1 4.300000e-01    3.380000e+00
  SP3q   C5v  1 4.300000e-01    3.160000e+00
  SP3q   C4v  1 4.300000e-01    2.920000e+00
  SP3q   C3v  1 4.300000e-01    2.530000e+00
  SP3q   C2v  1 4.300000e-01    2.530000e+00
  SP3q   C1v  1 4.300000e-01    2.320000e+00
  SP3q   X4v  1 4.300000e-01    3.380000e+00
  SP3q   X3v  1 4.300000e-01    3.380000e+00
  SP3q   X2v  1 4.300000e-01    3.160000e+00
  SP3q   X1v  1 4.300000e-01    2.920000e+00
  SP3q   C6e  1 4.300000e-01    3.380000e+00
  SP3q   C5e  1 4.300000e-01    3.160000e+00
  SP3q   C4e  1 4.300000e-01    2.920000e+00
  SP3q   C3e  1 4.300000e-01    2.530000e+00
  SP3q   C2e  1 4.300000e-01    2.530000e+00
  SP3q   C1e  1 4.300000e-01    2.320000e+00
  SP3q   X4e  1 4.300000e-01    3.380000e+00
  SP3q   X3e  1 4.300000e-01    3.380000e+00
  SP3q   X2e  1 4.300000e-01    3.160000e+00
  SP3q   X1e  1 4.300000e-01    2.920000e+00
  SP6d   P2q  1 4.300000e-01    4.400000e+00
  SP5d   P2q  1 4.300000e-01    4.170000e+00
  SP4d   P2q  1 4.300000e-01    4.170000e+00
  SP3d   P2q  1 4.300000e-01    4.170000e+00
  SP2q   P2d  1 4.300000e-01    4.170000e+00
  SP2q   N1d  1 4.300000e-01    3.380000e+00
  SP2q   N2d  1 4.300000e-01    3.380000e+00
  SP2q   N3d  1 4.300000e-01    3.380000e+00
  SP2q   N4d  1 4.300000e-01    3.590000e+00
  SP2q   N5d  1 4.300000e-01    3.770000e+00
  SP2q   N6d  1 4.300000e-01    3.970000e+00
  SP2q   P1d  1 4.300000e-01    3.970000e+00
  SP6a   P2q  1 4.300000e-01    4.400000e+00
  SP5a   P2q  1 4.300000e-01    4.170000e+00
  SP4a   P2q  1 4.300000e-01    4.170000e+00
  SP3a   P2q  1 4.300000e-01    4.170000e+00
  SP2q   P2a  1 4.300000e-01    4.170000e+00
  SP2q   N1a  1 4.300000e-01    3.380000e+00
  SP2q   N2a  1 4.300000e-01    3.380000e+00
  SP2q   N3a  1 4.300000e-01    3.380000e+00
  SP2q   N4a  1 4.300000e-01    3.590000e+00
  SP2q   N5a  1 4.300000e-01    3.770000e+00
  SP2q   N6a  1 4.300000e-01    3.970000e+00
  SP2q   P1a  1 4.300000e-01    3.970000e+00
  SP2q   C6v  1 4.300000e-01    3.380000e+00
  SP2q   C5v  1 4.300000e-01    3.160000e+00
  SP2q   C4v  1 4.300000e-01    2.920000e+00
  SP2q   C3v  1 4.300000e-01    2.770000e+00
  SP2q   C2v  1 4.300000e-01    2.770000e+00
  SP2q   C1v  1 4.300000e-01    2.530000e+00
  SP2q   X4v  1 4.300000e-01    3.380000e+00
  SP2q   X3v  1 4.300000e-01    3.380000e+00
  SP2q   X2v  1 4.300000e-01    3.160000e+00
  SP2q   X1v  1 4.300000e-01    2.920000e+00
  SP2q   C6e  1 4.300000e-01    3.380000e+00
  SP2q   C5e  1 4.300000e-01    3.160000e+00
  SP2q   C4e  1 4.300000e-01    2.920000e+00
  SP2q   C3e  1 4.300000e-01    2.770000e+00
  SP2q   C2e  1 4.300000e-01    2.770000e+00
  SP2q   C1e  1 4.300000e-01    2.530000e+00
  SP2q   X4e  1 4.300000e-01    3.380000e+00
  SP2q   X3e  1 4.300000e-01    3.380000e+00
  SP2q   X2e  1 4.300000e-01    3.160000e+00
  SP2q   X1e  1 4.300000e-01    2.920000e+00
  SP6d   P1q  1 4.300000e-01    4.170000e+00
  SP5d   P1q  1 4.300000e-01    3.970000e+00
  SP4d   P1q  1 4.300000e-01    3.970000e+00
  SP3d   P1q  1 4.300000e-01    3.970000e+00
  SP2d   P1q  1 4.300000e-01    3.970000e+00
  SP1q   P1d  1 4.300000e-01    3.970000e+00
  SP1q   N1d  1 4.300000e-01    3.380000e+00
  SP1q   N2d  1 4.300000e-01    3.380000e+00
  SP1q   N3d  1 4.300000e-01    3.380000e+00
  SP1q   N4d  1 4.300000e-01    3.770000e+00
  SP1q   N5d  1 4.300000e-01    3.770000e+00
  SP1q   N6d  1 4.300000e-01    3.970000e+00
  SP6a   P1q  1 4.300000e-01    4.170000e+00
  SP5a   P1q  1 4.300000e-01    3.970000e+00
  SP4a   P1q  1 4.300000e-01    3.970000e+00
  SP3a   P1q  1 4.300000e-01    3.970000e+00
  SP2a   P1q  1 4.300000e-01    3.970000e+00
  SP1q   P1a  1 4.300000e-01    3.970000e+00
  SP1q   N1a  1 4.300000e-01    3.380000e+00
  SP1q   N2a  1 4.300000e-01    3.380000e+00
  SP1q   N3a  1 4.300000e-01    3.380000e+00
  SP1q   N4a  1 4.300000e-01    3.770000e+00
  SP1q   N5a  1 4.300000e-01    3.770000e+00
  SP1q   N6a  1 4.300000e-01    3.970000e+00
  SP1q   C6v  1 4.300000e-01    3.380000e+00
  SP1q   C5v  1 4.300000e-01    3.160000e+00
  SP1q   C4v  1 4.300000e-01    2.920000e+00
  SP1q   C3v  1 4.300000e-01    2.770000e+00
  SP1q   C2v  1 4.300000e-01    2.770000e+00
  SP1q   C1v  1 4.300000e-01    2.530000e+00
  SP1q   X4v  1 4.300000e-01    3.380000e+00
  SP1q   X3v  1 4.300000e-01    3.380000e+00
  SP1q   X2v  1 4.300000e-01    3.160000e+00
  SP1q   X1v  1 4.300000e-01    2.920000e+00
  SP1q   C6e  1 4.300000e-01    3.380000e+00
  SP1q   C5e  1 4.300000e-01    3.160000e+00
  SP1q   C4e  1 4.300000e-01    2.920000e+00
  SP1q   C3e  1 4.300000e-01    2.770000e+00
  SP1q   C2e  1 4.300000e-01    2.770000e+00
  SP1q   C1e  1 4.300000e-01    2.530000e+00
  SP1q   X4e  1 4.300000e-01    3.380000e+00
  SP1q   X3e  1 4.300000e-01    3.380000e+00
  SP1q   X2e  1 4.300000e-01    3.160000e+00
  SP1q   X1e  1 4.300000e-01    2.920000e+00
  SP6d   N6q  1 4.300000e-01    3.970000e+00
  SP5d   N6q  1 4.300000e-01    3.770000e+00
  SP4d   N6q  1 4.300000e-01    3.770000e+00
  SP3d   N6q  1 4.300000e-01    3.770000e+00
  SP2d   N6q  1 4.300000e-01    3.970000e+00
  SP1d   N6q  1 4.300000e-01    3.970000e+00
  SN6q   N6d  1 4.300000e-01    3.970000e+00
  SN6q   N1d  1 4.300000e-01    3.380000e+00
  SN6q   N2d  1 4.300000e-01    3.380000e+00
  SN6q   N3d  1 4.300000e-01    3.590000e+00
  SN6q   N4d  1 4.300000e-01    3.970000e+00
  SN6q   N5d  1 4.300000e-01    3.970000e+00
  SP6a   N6q  1 4.300000e-01    3.970000e+00
  SP5a   N6q  1 4.300000e-01    3.770000e+00
  SP4a   N6q  1 4.300000e-01    3.770000e+00
  SP3a   N6q  1 4.300000e-01    3.770000e+00
  SP2a   N6q  1 4.300000e-01    3.970000e+00
  SP1a   N6q  1 4.300000e-01    3.970000e+00
  SN6q   N6a  1 4.300000e-01    3.970000e+00
  SN6q   N1a  1 4.300000e-01    3.380000e+00
  SN6q   N2a  1 4.300000e-01    3.380000e+00
  SN6q   N3a  1 4.300000e-01    3.590000e+00
  SN6q   N4a  1 4.300000e-01    3.970000e+00
  SN6q   N5a  1 4.300000e-01    3.970000e+00
  SN6q   C6v  1 4.300000e-01    3.590000e+00
  SN6q   C5v  1 4.300000e-01    3.380000e+00
  SN6q   C4v  1 4.300000e-01    3.160000e+00
  SN6q   C3v  1 4.300000e-01    2.920000e+00
  SN6q   C2v  1 4.300000e-01    2.920000e+00
  SN6q   C1v  1 4.300000e-01    2.770000e+00
  SN6q   X4v  1 4.300000e-01    3.590000e+00
  SN6q   X3v  1 4.300000e-01    3.380000e+00
  SN6q   X2v  1 4.300000e-01    3.160000e+00
  SN6q   X1v  1 4.300000e-01    2.920000e+00
  SN6q   C6e  1 4.300000e-01    3.590000e+00
  SN6q   C5e  1 4.300000e-01    3.380000e+00
  SN6q   C4e  1 4.300000e-01    3.160000e+00
  SN6q   C3e  1 4.300000e-01    2.920000e+00
  SN6q   C2e  1 4.300000e-01    2.920000e+00
  SN6q   C1e  1 4.300000e-01    2.770000e+00
  SN6q   X4e  1 4.300000e-01    3.590000e+00
  SN6q   X3e  1 4.300000e-01    3.380000e+00
  SN6q   X2e  1 4.300000e-01    3.160000e+00
  SN6q   X1e  1 4.300000e-01    2.920000e+00
  SP6d   N5q  1 4.300000e-01    3.590000e+00
  SP5d   N5q  1 4.300000e-01    3.590000e+00
  SP4d   N5q  1 4.300000e-01    3.590000e+00
  SP3d   N5q  1 4.300000e-01    3.590000e+00
  SP2d   N5q  1 4.300000e-01    3.770000e+00
  SP1d   N5q  1 4.300000e-01    3.770000e+00
  SN6d   N5q  1 4.300000e-01    3.970000e+00
  SN5q   N5d  1 4.300000e-01    3.770000e+00
  SN5q   N1d  1 4.300000e-01    3.380000e+00
  SN5q   N2d  1 4.300000e-01    3.590000e+00
  SN5q   N3d  1 4.300000e-01    3.590000e+00
  SN5q   N4d  1 4.300000e-01    3.770000e+00
  SP6a   N5q  1 4.300000e-01    3.590000e+00
  SP5a   N5q  1 4.300000e-01    3.590000e+00
  SP4a   N5q  1 4.300000e-01    3.590000e+00
  SP3a   N5q  1 4.300000e-01    3.590000e+00
  SP2a   N5q  1 4.300000e-01    3.770000e+00
  SP1a   N5q  1 4.300000e-01    3.770000e+00
  SN6a   N5q  1 4.300000e-01    3.970000e+00
  SN5q   N5a  1 4.300000e-01    3.770000e+00
  SN5q   N1a  1 4.300000e-01    3.380000e+00
  SN5q   N2a  1 4.300000e-01    3.590000e+00
  SN5q   N3a  1 4.300000e-01    3.590000e+00
  SN5q   N4a  1 4.300000e-01    3.770000e+00
  SN5q   C6v  1 4.300000e-01    3.590000e+00
  SN5q   C5v  1 4.300000e-01    3.380000e+00
  SN5q   C4v  1 4.300000e-01    3.160000e+00
  SN5q   C3v  1 4.300000e-01    3.160000e+00
  SN5q   C2v  1 4.300000e-01    2.920000e+00
  SN5q   C1v  1 4.300000e-01    2.770000e+00
  SN5q   X4v  1 4.300000e-01    3.770000e+00
  SN5q   X3v  1 4.300000e-01    3.590000e+00
  SN5q   X2v  1 4.300000e-01    3.380000e+00
  SN5q   X1v  1 4.300000e-01    3.160000e+00
  SN5q   C6e  1 4.300000e-01    3.590000e+00
  SN5q   C5e  1 4.300000e-01    3.380000e+00
  SN5q   C4e  1 4.300000e-01    3.160000e+00
  SN5q   C3e  1 4.300000e-01    3.160000e+00
  SN5q   C2e  1 4.300000e-01    2.920000e+00
  SN5q   C1e  1 4.300000e-01    2.770000e+00
  SN5q   X4e  1 4.300000e-01    3.770000e+00
  SN5q   X3e  1 4.300000e-01    3.590000e+00
  SN5q   X2e  1 4.300000e-01    3.380000e+00
  SN5q   X1e  1 4.300000e-01    3.160000e+00
  SP6d   N4q  1 4.300000e-01    3.380000e+00
  SP5d   N4q  1 4.300000e-01    3.590000e+00
  SP4d   N4q  1 4.300000e-01    3.590000e+00
  SP3d   N4q  1 4.300000e-01    3.590000e+00
  SP2d   N4q  1 4.300000e-01    3.590000e+00
  SP1d   N4q  1 4.300000e-01    3.770000e+00
  SN6d   N4q  1 4.300000e-01    3.970000e+00
  SN5d   N4q  1 4.300000e-01    3.770000e+00
  SN4q   N4d  1 4.300000e-01    3.770000e+00
  SN4q   N1d  1 4.300000e-01    3.380000e+00
  SN4q   N2d  1 4.300000e-01    3.590000e+00
  SN4q   N3d  1 4.300000e-01    3.590000e+00
  SP6a   N4q  1 4.300000e-01    3.380000e+00
  SP5a   N4q  1 4.300000e-01    3.590000e+00
  SP4a   N4q  1 4.300000e-01    3.590000e+00
  SP3a   N4q  1 4.300000e-01    3.590000e+00
  SP2a   N4q  1 4.300000e-01    3.590000e+00
  SP1a   N4q  1 4.300000e-01    3.770000e+00
  SN6a   N4q  1 4.300000e-01    3.970000e+00
  SN5a   N4q  1 4.300000e-01    3.770000e+00
  SN4q   N4a  1 4.300000e-01    3.770000e+00
  SN4q   N1a  1 4.300000e-01    3.380000e+00
  SN4q   N2a  1 4.300000e-01    3.590000e+00
  SN4q   N3a  1 4.300000e-01    3.590000e+00
  SN4q   C6v  1 4.300000e-01    3.590000e+00
  SN4q   C5v  1 4.300000e-01    3.380000e+00
  SN4q   C4v  1 4.300000e-01    3.380000e+00
  SN4q   C3v  1 4.300000e-01    3.160000e+00
  SN4q   C2v  1 4.300000e-01    2.920000e+00
  SN4q   C1v  1 4.300000e-01    2.770000e+00
  SN4q   X4v  1 4.300000e-01    3.970000e+00
  SN4q   X3v  1 4.300000e-01    3.770000e+00
  SN4q   X2v  1 4.300000e-01    3.380000e+00
  SN4q   X1v  1 4.300000e-01    3.160000e+00
  SN4q   C6e  1 4.300000e-01    3.590000e+00
  SN4q   C5e  1 4.300000e-01    3.380000e+00
  SN4q   C4e  1 4.300000e-01    3.380000e+00
  SN4q   C3e  1 4.300000e-01    3.160000e+00
  SN4q   C2e  1 4.300000e-01    2.920000e+00
  SN4q   C1e  1 4.300000e-01    2.770000e+00
  SN4q   X4e  1 4.300000e-01    3.970000e+00
  SN4q   X3e  1 4.300000e-01    3.770000e+00
  SN4q   X2e  1 4.300000e-01    3.380000e+00
  SN4q   X1e  1 4.300000e-01    3.160000e+00
  SP6d   N3q  1 4.300000e-01    3.160000e+00
  SP5d   N3q  1 4.300000e-01    3.160000e+00
  SP4d   N3q  1 4.300000e-01    3.380000e+00
  SP3d   N3q  1 4.300000e-01    3.380000e+00
  SP2d   N3q  1 4.300000e-01    3.380000e+00
  SP1d   N3q  1 4.300000e-01    3.380000e+00
  SN6d   N3q  1 4.300000e-01    3.590000e+00
  SN5d   N3q  1 4.300000e-01    3.590000e+00
  SN4d   N3q  1 4.300000e-01    3.590000e+00
  SN3q   N3d  1 4.300000e-01    3.590000e+00
  SN3q   N1d  1 4.300000e-01    3.380000e+00
  SN3q   N2d  1 4.300000e-01    3.590000e+00
  SP6a   N3q  1 4.300000e-01    3.160000e+00
  SP5a   N3q  1 4.300000e-01    3.160000e+00
  SP4a   N3q  1 4.300000e-01    3.380000e+00
  SP3a   N3q  1 4.300000e-01    3.380000e+00
  SP2a   N3q  1 4.300000e-01    3.380000e+00
  SP1a   N3q  1 4.300000e-01    3.380000e+00
  SN6a   N3q  1 4.300000e-01    3.590000e+00
  SN5a   N3q  1 4.300000e-01    3.590000e+00
  SN4a   N3q  1 4.300000e-01    3.590000e+00
  SN3q   N3a  1 4.300000e-01    3.590000e+00
  SN3q   N1a  1 4.300000e-01    3.380000e+00
  SN3q   N2a  1 4.300000e-01    3.590000e+00
  SN3q   C6v  1 4.300000e-01    3.590000e+00
  SN3q   C5v  1 4.300000e-01    3.380000e+00
  SN3q   C4v  1 4.300000e-01    3.380000e+00
  SN3q   C3v  1 4.300000e-01    3.160000e+00
  SN3q   C2v  1 4.300000e-01    3.160000e+00
  SN3q   C1v  1 4.300000e-01    2.920000e+00
  SN3q   X4v  1 4.300000e-01    3.770000e+00
  SN3q   X3v  1 4.300000e-01    3.590000e+00
  SN3q   X2v  1 4.300000e-01    3.380000e+00
  SN3q   X1v  1 4.300000e-01    3.380000e+00
  SN3q   C6e  1 4.300000e-01    3.590000e+00
  SN3q   C5e  1 4.300000e-01    3.380000e+00
  SN3q   C4e  1 4.300000e-01    3.380000e+00
  SN3q   C3e  1 4.300000e-01    3.160000e+00
  SN3q   C2e  1 4.300000e-01    3.160000e+00
  SN3q   C1e  1 4.300000e-01    2.920000e+00
  SN3q   X4e  1 4.300000e-01    3.770000e+00
  SN3q   X3e  1 4.300000e-01    3.590000e+00
  SN3q   X2e  1 4.300000e-01    3.380000e+00
  SN3q   X1e  1 4.300000e-01    3.380000e+00
  SP6d   N2q  1 4.300000e-01    2.920000e+00
  SP5d   N2q  1 4.300000e-01    2.920000e+00
  SP4d   N2q  1 4.300000e-01    3.160000e+00
  SP3d   N2q  1 4.300000e-01    3.380000e+00
  SP2d   N2q  1 4.300000e-01    3.380000e+00
  SP1d   N2q  1 4.300000e-01    3.380000e+00
  SN6d   N2q  1 4.300000e-01    3.380000e+00
  SN5d   N2q  1 4.300000e-01    3.590000e+00
  SN4d   N2q  1 4.300000e-01    3.590000e+00
  SN3d   N2q  1 4.300000e-01    3.590000e+00
  SN2q   N2d  1 4.300000e-01    3.590000e+00
  SN2q   N1d  1 4.300000e-01    3.380000e+00
  SP6a   N2q  1 4.300000e-01    2.920000e+00
  SP5a   N2q  1 4.300000e-01    2.920000e+00
  SP4a   N2q  1 4.300000e-01    3.160000e+00
  SP3a   N2q  1 4.300000e-01    3.380000e+00
  SP2a   N2q  1 4.300000e-01    3.380000e+00
  SP1a   N2q  1 4.300000e-01    3.380000e+00
  SN6a   N2q  1 4.300000e-01    3.380000e+00
  SN5a   N2q  1 4.300000e-01    3.590000e+00
  SN4a   N2q  1 4.300000e-01    3.590000e+00
  SN3a   N2q  1 4.300000e-01    3.590000e+00
  SN2q   N2a  1 4.300000e-01    3.590000e+00
  SN2q   N1a  1 4.300000e-01    3.380000e+00
  SN2q   C6v  1 4.300000e-01    3.590000e+00
  SN2q   C5v  1 4.300000e-01    3.380000e+00
  SN2q   C4v  1 4.300000e-01    3.380000e+00
  SN2q   C3v  1 4.300000e-01    3.380000e+00
  SN2q   C2v  1 4.300000e-01    3.160000e+00
  SN2q   C1v  1 4.300000e-01    2.920000e+00
  SN2q   X4v  1 4.300000e-01    3.770000e+00
  SN2q   X3v  1 4.300000e-01    3.590000e+00
  SN2q   X2v  1 4.300000e-01    3.380000e+00
  SN2q   X1v  1 4.300000e-01    3.380000e+00
  SN2q   C6e  1 4.300000e-01    3.590000e+00
  SN2q   C5e  1 4.300000e-01    3.380000e+00
  SN2q   C4e  1 4.300000e-01    3.380000e+00
  SN2q   C3e  1 4.300000e-01    3.380000e+00
  SN2q   C2e  1 4.300000e-01    3.160000e+00
  SN2q   C1e  1 4.300000e-01    2.920000e+00
  SN2q   X4e  1 4.300000e-01    3.770000e+00
  SN2q   X3e  1 4.300000e-01    3.590000e+00
  SN2q   X2e  1 4.300000e-01    3.380000e+00
  SN2q   X1e  1 4.300000e-01    3.380000e+00
  SP6d   N1q  1 4.300000e-01    2.770000e+00
  SP5d   N1q  1 4.300000e-01    2.770000e+00
  SP4d   N1q  1 4.300000e-01    2.920000e+00
  SP3d   N1q  1 4.300000e-01    3.160000e+00
  SP2d   N1q  1 4.300000e-01    3.380000e+00
  SP1d   N1q  1 4.300000e-01    3.380000e+00
  SN6d   N1q  1 4.300000e-01    3.380000e+00
  SN5d   N1q  1 4.300000e-01    3.380000e+00
  SN4d   N1q  1 4.300000e-01    3.380000e+00
  SN3d   N1q  1 4.300000e-01    3.380000e+00
  SN2d   N1q  1 4.300000e-01    3.380000e+00
  SN1q   N1d  1 4.300000e-01    3.590000e+00
  SP6a   N1q  1 4.300000e-01    2.770000e+00
  SP5a   N1q  1 4.300000e-01    2.770000e+00
  SP4a   N1q  1 4.300000e-01    2.920000e+00
  SP3a   N1q  1 4.300000e-01    3.160000e+00
  SP2a   N1q  1 4.300000e-01    3.380000e+00
  SP1a   N1q  1 4.300000e-01    3.380000e+00
  SN6a   N1q  1 4.300000e-01    3.380000e+00
  SN5a   N1q  1 4.300000e-01    3.380000e+00
  SN4a   N1q  1 4.300000e-01    3.380000e+00
  SN3a   N1q  1 4.300000e-01    3.380000e+00
  SN2a   N1q  1 4.300000e-01    3.380000e+00
  SN1q   N1a  1 4.300000e-01    3.590000e+00
  SN1q   C6v  1 4.300000e-01    3.770000e+00
  SN1q   C5v  1 4.300000e-01    3.590000e+00
  SN1q   C4v  1 4.300000e-01    3.590000e+00
  SN1q   C3v  1 4.300000e-01    3.380000e+00
  SN1q   C2v  1 4.300000e-01    3.160000e+00
  SN1q   C1v  1 4.300000e-01    2.920000e+00
  SN1q   X4v  1 4.300000e-01    3.590000e+00
  SN1q   X3v  1 4.300000e-01    3.590000e+00
  SN1q   X2v  1 4.300000e-01    3.380000e+00
  SN1q   X1v  1 4.300000e-01    3.380000e+00
  SN1q   C6e  1 4.300000e-01    3.770000e+00
  SN1q   C5e  1 4.300000e-01    3.590000e+00
  SN1q   C4e  1 4.300000e-01    3.590000e+00
  SN1q   C3e  1 4.300000e-01    3.380000e+00
  SN1q   C2e  1 4.300000e-01    3.160000e+00
  SN1q   C1e  1 4.300000e-01    2.920000e+00
  SN1q   X4e  1 4.300000e-01    3.590000e+00
  SN1q   X3e  1 4.300000e-01    3.590000e+00
  SN1q   X2e  1 4.300000e-01    3.380000e+00
  SN1q   X1e  1 4.300000e-01    3.380000e+00
  SP6d   C6q  1 4.300000e-01    2.770000e+00
  SP5d   C6q  1 4.300000e-01    2.770000e+00
  SP4d   C6q  1 4.300000e-01    2.920000e+00
  SP3d   C6q  1 4.300000e-01    3.160000e+00
  SP2d   C6q  1 4.300000e-01    3.160000e+00
  SP1d   C6q  1 4.300000e-01    3.160000e+00
  SN6d   C6q  1 4.300000e-01    3.380000e+00
  SN5d   C6q  1 4.300000e-01    3.380000e+00
  SN4d   C6q  1 4.300000e-01    3.380000e+00
  SN3d   C6q  1 4.300000e-01    3.380000e+00
  SN2d   C6q  1 4.300000e-01    3.380000e+00
  SN1d   C6q  1 4.300000e-01    3.590000e+00
  SP6a   C6q  1 4.300000e-01    2.770000e+00
  SP5a   C6q  1 4.300000e-01    2.770000e+00
  SP4a   C6q  1 4.300000e-01    2.920000e+00
  SP3a   C6q  1 4.300000e-01    3.160000e+00
  SP2a   C6q  1 4.300000e-01    3.160000e+00
  SP1a   C6q  1 4.300000e-01    3.160000e+00
  SN6a   C6q  1 4.300000e-01    3.380000e+00
  SN5a   C6q  1 4.300000e-01    3.380000e+00
  SN4a   C6q  1 4.300000e-01    3.380000e+00
  SN3a   C6q  1 4.300000e-01    3.380000e+00
  SN2a   C6q  1 4.300000e-01    3.380000e+00
  SN1a   C6q  1 4.300000e-01    3.590000e+00
  SC6q   C6v  1 4.300000e-01    3.770000e+00
  SC6q   X1v  1 4.300000e-01    3.590000e+00
  SC6q   X2v  1 4.300000e-01    3.590000e+00
  SC6q   X3v  1 4.300000e-01    3.590000e+00
  SC6q   X4v  1 4.300000e-01    3.590000e+00
  SC6q   C1v  1 4.300000e-01    2.920000e+00
  SC6q   C2v  1 4.300000e-01    3.160000e+00
  SC6q   C3v  1 4.300000e-01    3.380000e+00
  SC6q   C4v  1 4.300000e-01    3.590000e+00
  SC6q   C5v  1 4.300000e-01    3.590000e+00
  SC6q   C6e  1 4.300000e-01    3.770000e+00
  SC6q   X1e  1 4.300000e-01    3.590000e+00
  SC6q   X2e  1 4.300000e-01    3.590000e+00
  SC6q   X3e  1 4.300000e-01    3.590000e+00
  SC6q   X4e  1 4.300000e-01    3.590000e+00
  SC6q   C1e  1 4.300000e-01    2.920000e+00
  SC6q   C2e  1 4.300000e-01    3.160000e+00
  SC6q   C3e  1 4.300000e-01    3.380000e+00
  SC6q   C4e  1 4.300000e-01    3.590000e+00
  SC6q   C5e  1 4.300000e-01    3.590000e+00
  SP6d   C5q  1 4.300000e-01    2.530000e+00
  SP5d   C5q  1 4.300000e-01    2.770000e+00
  SP4d   C5q  1 4.300000e-01    2.770000e+00
  SP3d   C5q  1 4.300000e-01    2.920000e+00
  SP2d   C5q  1 4.300000e-01    2.920000e+00
  SP1d   C5q  1 4.300000e-01    2.920000e+00
  SN6d   C5q  1 4.300000e-01    3.160000e+00
  SN5d   C5q  1 4.300000e-01    3.160000e+00
  SN4d   C5q  1 4.300000e-01    3.160000e+00
  SN3d   C5q  1 4.300000e-01    3.160000e+00
  SN2d   C5q  1 4.300000e-01    3.160000e+00
  SN1d   C5q  1 4.300000e-01    3.380000e+00
  SP6a   C5q  1 4.300000e-01    2.530000e+00
  SP5a   C5q  1 4.300000e-01    2.770000e+00
  SP4a   C5q  1 4.300000e-01    2.770000e+00
  SP3a   C5q  1 4.300000e-01    2.920000e+00
  SP2a   C5q  1 4.300000e-01    2.920000e+00
  SP1a   C5q  1 4.300000e-01    2.920000e+00
  SN6a   C5q  1 4.300000e-01    3.160000e+00
  SN5a   C5q  1 4.300000e-01    3.160000e+00
  SN4a   C5q  1 4.300000e-01    3.160000e+00
  SN3a   C5q  1 4.300000e-01    3.160000e+00
  SN2a   C5q  1 4.300000e-01    3.160000e+00
  SN1a   C5q  1 4.300000e-01    3.380000e+00
  SC6v   C5q  1 4.300000e-01    3.590000e+00
  SC5q   C5v  1 4.300000e-01    3.590000e+00
  SC5q   X1v  1 4.300000e-01    3.590000e+00
  SC5q   X2v  1 4.300000e-01    3.380000e+00
  SC5q   X3v  1 4.300000e-01    3.380000e+00
  SC5q   X4v  1 4.300000e-01    3.380000e+00
  SC5q   C1v  1 4.300000e-01    3.160000e+00
  SC5q   C2v  1 4.300000e-01    3.160000e+00
  SC5q   C3v  1 4.300000e-01    3.380000e+00
  SC5q   C4v  1 4.300000e-01    3.590000e+00
  SC6e   C5q  1 4.300000e-01    3.590000e+00
  SC5q   C5e  1 4.300000e-01    3.590000e+00
  SC5q   X1e  1 4.300000e-01    3.590000e+00
  SC5q   X2e  1 4.300000e-01    3.380000e+00
  SC5q   X3e  1 4.300000e-01    3.380000e+00
  SC5q   X4e  1 4.300000e-01    3.380000e+00
  SC5q   C1e  1 4.300000e-01    3.160000e+00
  SC5q   C2e  1 4.300000e-01    3.160000e+00
  SC5q   C3e  1 4.300000e-01    3.380000e+00
  SC5q   C4e  1 4.300000e-01    3.590000e+00
  SP6d   C4q  1 4.300000e-01    2.320000e+00
  SP5d   C4q  1 4.300000e-01    2.530000e+00
  SP4d   C4q  1 4.300000e-01    2.530000e+00
  SP3d   C4q  1 4.300000e-01    2.770000e+00
  SP2d   C4q  1 4.300000e-01    2.770000e+00
  SP1d   C4q  1 4.300000e-01    2.770000e+00
  SN6d   C4q  1 4.300000e-01    2.920000e+00
  SN5d   C4q  1 4.300000e-01    2.920000e+00
  SN4d   C4q  1 4.300000e-01    3.160000e+00
  SN3d   C4q  1 4.300000e-01    3.160000e+00
  SN2d   C4q  1 4.300000e-01    3.160000e+00
  SN1d   C4q  1 4.300000e-01    3.380000e+00
  SP6a   C4q  1 4.300000e-01    2.320000e+00
  SP5a   C4q  1 4.300000e-01    2.530000e+00
  SP4a   C4q  1 4.300000e-01    2.530000e+00
  SP3a   C4q  1 4.300000e-01    2.770000e+00
  SP2a   C4q  1 4.300000e-01    2.770000e+00
  SP1a   C4q  1 4.300000e-01    2.770000e+00
  SN6a   C4q  1 4.300000e-01    2.920000e+00
  SN5a   C4q  1 4.300000e-01    2.920000e+00
  SN4a   C4q  1 4.300000e-01    3.160000e+00
  SN3a   C4q  1 4.300000e-01    3.160000e+00
  SN2a   C4q  1 4.300000e-01    3.160000e+00
  SN1a   C4q  1 4.300000e-01    3.380000e+00
  SC6v   C4q  1 4.300000e-01    3.590000e+00
  SC5v   C4q  1 4.300000e-01    3.590000e+00
  SC4q   C4v  1 4.300000e-01    3.590000e+00
  SC4q   X1v  1 4.300000e-01    3.590000e+00
  SC4q   X2v  1 4.300000e-01    3.380000e+00
  SC4q   X3v  1 4.300000e-01    3.380000e+00
  SC4q   X4v  1 4.300000e-01    3.380000e+00
  SC4q   C1v  1 4.300000e-01    3.160000e+00
  SC4q   C2v  1 4.300000e-01    3.380000e+00
  SC4q   C3v  1 4.300000e-01    3.590000e+00
  SC6e   C4q  1 4.300000e-01    3.590000e+00
  SC5e   C4q  1 4.300000e-01    3.590000e+00
  SC4q   C4e  1 4.300000e-01    3.590000e+00
  SC4q   X1e  1 4.300000e-01    3.590000e+00
  SC4q   X2e  1 4.300000e-01    3.380000e+00
  SC4q   X3e  1 4.300000e-01    3.380000e+00
  SC4q   X4e  1 4.300000e-01    3.380000e+00
  SC4q   C1e  1 4.300000e-01    3.160000e+00
  SC4q   C2e  1 4.300000e-01    3.380000e+00
  SC4q   C3e  1 4.300000e-01    3.590000e+00
  SP6d   C3q  1 4.300000e-01    2.160000e+00
  SP5d   C3q  1 4.300000e-01    2.320000e+00
  SP4d   C3q  1 4.300000e-01    2.320000e+00
  SP3d   C3q  1 4.300000e-01    2.320000e+00
  SP2d   C3q  1 4.300000e-01    2.530000e+00
  SP1d   C3q  1 4.300000e-01    2.530000e+00
  SN6d   C3q  1 4.300000e-01    2.770000e+00
  SN5d   C3q  1 4.300000e-01    2.920000e+00
  SN4d   C3q  1 4.300000e-01    2.920000e+00
  SN3d   C3q  1 4.300000e-01    2.920000e+00
  SN2d   C3q  1 4.300000e-01    3.160000e+00
  SN1d   C3q  1 4.300000e-01    3.160000e+00
  SP6a   C3q  1 4.300000e-01    2.160000e+00
  SP5a   C3q  1 4.300000e-01    2.320000e+00
  SP4a   C3q  1 4.300000e-01    2.320000e+00
  SP3a   C3q  1 4.300000e-01    2.320000e+00
  SP2a   C3q  1 4.300000e-01    2.530000e+00
  SP1a   C3q  1 4.300000e-01    2.530000e+00
  SN6a   C3q  1 4.300000e-01    2.770000e+00
  SN5a   C3q  1 4.300000e-01    2.920000e+00
  SN4a   C3q  1 4.300000e-01    2.920000e+00
  SN3a   C3q  1 4.300000e-01    2.920000e+00
  SN2a   C3q  1 4.300000e-01    3.160000e+00
  SN1a   C3q  1 4.300000e-01    3.160000e+00
  SC6v   C3q  1 4.300000e-01    3.380000e+00
  SC5v   C3q  1 4.300000e-01    3.380000e+00
  SC4v   C3q  1 4.300000e-01    3.590000e+00
  SC3q   C3v  1 4.300000e-01    3.590000e+00
  SC3q   X1v  1 4.300000e-01    3.590000e+00
  SC3q   X2v  1 4.300000e-01    3.380000e+00
  SC3q   X3v  1 4.300000e-01    3.380000e+00
  SC3q   X4v  1 4.300000e-01    3.380000e+00
  SC3q   C1v  1 4.300000e-01    3.590000e+00
  SC3q   C2v  1 4.300000e-01    3.590000e+00
  SC6e   C3q  1 4.300000e-01    3.380000e+00
  SC5e   C3q  1 4.300000e-01    3.380000e+00
  SC4e   C3q  1 4.300000e-01    3.590000e+00
  SC3q   C3e  1 4.300000e-01    3.590000e+00
  SC3q   X1e  1 4.300000e-01    3.590000e+00
  SC3q   X2e  1 4.300000e-01    3.380000e+00
  SC3q   X3e  1 4.300000e-01    3.380000e+00
  SC3q   X4e  1 4.300000e-01    3.380000e+00
  SC3q   C1e  1 4.300000e-01    3.590000e+00
  SC3q   C2e  1 4.300000e-01    3.590000e+00
  SP6d   C2q  1 4.300000e-01    2.160000e+00
  SP5d   C2q  1 4.300000e-01    2.320000e+00
  SP4d   C2q  1 4.300000e-01    2.320000e+00
  SP3d   C2q  1 4.300000e-01    2.320000e+00
  SP2d   C2q  1 4.300000e-01    2.530000e+00
  SP1d   C2q  1 4.300000e-01    2.530000e+00
  SN6d   C2q  1 4.300000e-01    2.770000e+00
  SN5d   C2q  1 4.300000e-01    2.770000e+00
  SN4d   C2q  1 4.300000e-01    2.770000e+00
  SN3d   C2q  1 4.300000e-01    2.920000e+00
  SN2d   C2q  1 4.300000e-01    2.920000e+00
  SN1d   C2q  1 4.300000e-01    2.920000e+00
  SP6a   C2q  1 4.300000e-01    2.160000e+00
  SP5a   C2q  1 4.300000e-01    2.320000e+00
  SP4a   C2q  1 4.300000e-01    2.320000e+00
  SP3a   C2q  1 4.300000e-01    2.320000e+00
  SP2a   C2q  1 4.300000e-01    2.530000e+00
  SP1a   C2q  1 4.300000e-01    2.530000e+00
  SN6a   C2q  1 4.300000e-01    2.770000e+00
  SN5a   C2q  1 4.300000e-01    2.770000e+00
  SN4a   C2q  1 4.300000e-01    2.770000e+00
  SN3a   C2q  1 4.300000e-01    2.920000e+00
  SN2a   C2q  1 4.300000e-01    2.920000e+00
  SN1a   C2q  1 4.300000e-01    2.920000e+00
  SC6v   C2q  1 4.300000e-01    3.160000e+00
  SC5v   C2q  1 4.300000e-01    3.160000e+00
  SC4v   C2q  1 4.300000e-01    3.380000e+00
  SC3v   C2q  1 4.300000e-01    3.590000e+00
  SC2q   C2v  1 4.300000e-01    3.590000e+00
  SC2q   X1v  1 4.300000e-01    3.380000e+00
  SC2q   X2v  1 4.300000e-01    3.380000e+00
  SC2q   X3v  1 4.300000e-01    3.380000e+00
  SC2q   X4v  1 4.300000e-01    2.920000e+00
  SC2q   C1v  1 4.300000e-01    3.770000e+00
  SC6e   C2q  1 4.300000e-01    3.160000e+00
  SC5e   C2q  1 4.300000e-01    3.160000e+00
  SC4e   C2q  1 4.300000e-01    3.380000e+00
  SC3e   C2q  1 4.300000e-01    3.590000e+00
  SC2q   C2e  1 4.300000e-01    3.590000e+00
  SC2q   X1e  1 4.300000e-01    3.380000e+00
  SC2q   X2e  1 4.300000e-01    3.380000e+00
  SC2q   X3e  1 4.300000e-01    3.380000e+00
  SC2q   X4e  1 4.300000e-01    2.920000e+00
  SC2q   C1e  1 4.300000e-01    3.770000e+00
  SP6d   C1q  1 4.300000e-01    1.730000e+00
  SP5d   C1q  1 4.300000e-01    2.160000e+00
  SP4d   C1q  1 4.300000e-01    2.160000e+00
  SP3d   C1q  1 4.300000e-01    2.160000e+00
  SP2d   C1q  1 4.300000e-01    2.320000e+00
  SP1d   C1q  1 4.300000e-01    2.320000e+00
  SN6d   C1q  1 4.300000e-01    2.530000e+00
  SN5d   C1q  1 4.300000e-01    2.530000e+00
  SN4d   C1q  1 4.300000e-01    2.530000e+00
  SN3d   C1q  1 4.300000e-01    2.770000e+00
  SN2d   C1q  1 4.300000e-01    2.770000e+00
  SN1d   C1q  1 4.300000e-01    2.770000e+00
  SP6a   C1q  1 4.300000e-01    1.730000e+00
  SP5a   C1q  1 4.300000e-01    2.160000e+00
  SP4a   C1q  1 4.300000e-01    2.160000e+00
  SP3a   C1q  1 4.300000e-01    2.160000e+00
  SP2a   C1q  1 4.300000e-01    2.320000e+00
  SP1a   C1q  1 4.300000e-01    2.320000e+00
  SN6a   C1q  1 4.300000e-01    2.530000e+00
  SN5a   C1q  1 4.300000e-01    2.530000e+00
  SN4a   C1q  1 4.300000e-01    2.530000e+00
  SN3a   C1q  1 4.300000e-01    2.770000e+00
  SN2a   C1q  1 4.300000e-01    2.770000e+00
  SN1a   C1q  1 4.300000e-01    2.770000e+00
  SC6v   C1q  1 4.300000e-01    2.920000e+00
  SC5v   C1q  1 4.300000e-01    3.160000e+00
  SC4v   C1q  1 4.300000e-01    3.160000e+00
  SC3v   C1q  1 4.300000e-01    3.590000e+00
  SC2v   C1q  1 4.300000e-01    3.770000e+00
  SC1q   C1v  1 4.300000e-01    3.590000e+00
  SC1q   X1v  1 4.300000e-01    3.380000e+00
  SC1q   X2v  1 4.300000e-01    3.380000e+00
  SC1q   X3v  1 4.300000e-01    3.380000e+00
  SC1q   X4v  1 4.300000e-01    2.920000e+00
  SC6e   C1q  1 4.300000e-01    2.920000e+00
  SC5e   C1q  1 4.300000e-01    3.160000e+00
  SC4e   C1q  1 4.300000e-01    3.160000e+00
  SC3e   C1q  1 4.300000e-01    3.590000e+00
  SC2e   C1q  1 4.300000e-01    3.770000e+00
  SC1q   C1e  1 4.300000e-01    3.590000e+00
  SC1q   X1e  1 4.300000e-01    3.380000e+00
  SC1q   X2e  1 4.300000e-01    3.380000e+00
  SC1q   X3e  1 4.300000e-01    3.380000e+00
  SC1q   X4e  1 4.300000e-01    2.920000e+00
  SP6d   X4q  1 4.300000e-01    2.920000e+00
  SP5d   X4q  1 4.300000e-01    3.160000e+00
  SP4d   X4q  1 4.300000e-01    3.160000e+00
  SP3d   X4q  1 4.300000e-01    3.160000e+00
  SP2d   X4q  1 4.300000e-01    3.160000e+00
  SP1d   X4q  1 4.300000e-01    3.160000e+00
  SN6d   X4q  1 4.300000e-01    3.380000e+00
  SN5d   X4q  1 4.300000e-01    3.590000e+00
  SN4d   X4q  1 4.300000e-01    3.770000e+00
  SN3d   X4q  1 4.300000e-01    3.590000e+00
  SN2d   X4q  1 4.300000e-01    3.590000e+00
  SN1d   X4q  1 4.300000e-01    3.380000e+00
  SP6a   X4q  1 4.300000e-01    2.920000e+00
  SP5a   X4q  1 4.300000e-01    3.160000e+00
  SP4a   X4q  1 4.300000e-01    3.160000e+00
  SP3a   X4q  1 4.300000e-01    3.160000e+00
  SP2a   X4q  1 4.300000e-01    3.160000e+00
  SP1a   X4q  1 4.300000e-01    3.160000e+00
  SN6a   X4q  1 4.300000e-01    3.380000e+00
  SN5a   X4q  1 4.300000e-01    3.590000e+00
  SN4a   X4q  1 4.300000e-01    3.770000e+00
  SN3a   X4q  1 4.300000e-01    3.590000e+00
  SN2a   X4q  1 4.300000e-01    3.590000e+00
  SN1a   X4q  1 4.300000e-01    3.380000e+00
  SC6v   X4q  1 4.300000e-01    3.590000e+00
  SC5v   X4q  1 4.300000e-01    3.380000e+00
  SC4v   X4q  1 4.300000e-01    3.380000e+00
  SC3v   X4q  1 4.300000e-01    3.380000e+00
  SC2v   X4q  1 4.300000e-01    2.920000e+00
  SC1v   X4q  1 4.300000e-01    2.920000e+00
  SX4q   X4v  1 4.300000e-01    3.590000e+00
  SX4q   X1v  1 4.300000e-01    3.590000e+00
  SX4q   X2v  1 4.300000e-01    3.590000e+00
  SX4q   X3v  1 4.300000e-01    3.590000e+00
  SC6e   X4q  1 4.300000e-01    3.590000e+00
  SC5e   X4q  1 4.300000e-01    3.380000e+00
  SC4e   X4q  1 4.300000e-01    3.380000e+00
  SC3e   X4q  1 4.300000e-01    3.380000e+00
  SC2e   X4q  1 4.300000e-01    2.920000e+00
  SC1e   X4q  1 4.300000e-01    2.920000e+00
  SX4q   X4e  1 4.300000e-01    3.590000e+00
  SX4q   X1e  1 4.300000e-01    3.590000e+00
  SX4q   X2e  1 4.300000e-01    3.590000e+00
  SX4q   X3e  1 4.300000e-01    3.590000e+00
  SP6d   X3q  1 4.300000e-01    2.920000e+00
  SP5d   X3q  1 4.300000e-01    2.920000e+00
  SP4d   X3q  1 4.300000e-01    2.920000e+00
  SP3d   X3q  1 4.300000e-01    3.160000e+00
  SP2d   X3q  1 4.300000e-01    3.160000e+00
  SP1d   X3q  1 4.300000e-01    3.160000e+00
  SN6d   X3q  1 4.300000e-01    3.160000e+00
  SN5d   X3q  1 4.300000e-01    3.380000e+00
  SN4d   X3q  1 4.300000e-01    3.590000e+00
  SN3d   X3q  1 4.300000e-01    3.380000e+00
  SN2d   X3q  1 4.300000e-01    3.380000e+00
  SN1d   X3q  1 4.300000e-01    3.380000e+00
  SP6a   X3q  1 4.300000e-01    2.920000e+00
  SP5a   X3q  1 4.300000e-01    2.920000e+00
  SP4a   X3q  1 4.300000e-01    2.920000e+00
  SP3a   X3q  1 4.300000e-01    3.160000e+00
  SP2a   X3q  1 4.300000e-01    3.160000e+00
  SP1a   X3q  1 4.300000e-01    3.160000e+00
  SN6a   X3q  1 4.300000e-01    3.160000e+00
  SN5a   X3q  1 4.300000e-01    3.380000e+00
  SN4a   X3q  1 4.300000e-01    3.590000e+00
  SN3a   X3q  1 4.300000e-01    3.380000e+00
  SN2a   X3q  1 4.300000e-01    3.380000e+00
  SN1a   X3q  1 4.300000e-01    3.380000e+00
  SC6v   X3q  1 4.300000e-01    3.590000e+00
  SC5v   X3q  1 4.300000e-01    3.380000e+00
  SC4v   X3q  1 4.300000e-01    3.380000e+00
  SC3v   X3q  1 4.300000e-01    3.380000e+00
  SC2v   X3q  1 4.300000e-01    3.380000e+00
  SC1v   X3q  1 4.300000e-01    3.380000e+00
  SX4v   X3q  1 4.300000e-01    3.590000e+00
  SX3q   X3v  1 4.300000e-01    3.590000e+00
  SX3q   X1v  1 4.300000e-01    3.770000e+00
  SX3q   X2v  1 4.300000e-01    3.770000e+00
  SC6e   X3q  1 4.300000e-01    3.590000e+00
  SC5e   X3q  1 4.300000e-01    3.380000e+00
  SC4e   X3q  1 4.300000e-01    3.380000e+00
  SC3e   X3q  1 4.300000e-01    3.380000e+00
  SC2e   X3q  1 4.300000e-01    3.380000e+00
  SC1e   X3q  1 4.300000e-01    3.380000e+00
  SX4e   X3q  1 4.300000e-01    3.590000e+00
  SX3q   X3e  1 4.300000e-01    3.590000e+00
  SX3q   X1e  1 4.300000e-01    3.770000e+00
  SX3q   X2e  1 4.300000e-01    3.770000e+00
  SP6d   X2q  1 4.300000e-01    2.770000e+00
  SP5d   X2q  1 4.300000e-01    2.920000e+00
  SP4d   X2q  1 4.300000e-01    2.920000e+00
  SP3d   X2q  1 4.300000e-01    2.920000e+00
  SP2d   X2q  1 4.300000e-01    2.920000e+00
  SP1d   X2q  1 4.300000e-01    2.920000e+00
  SN6d   X2q  1 4.300000e-01    2.920000e+00
  SN5d   X2q  1 4.300000e-01    3.160000e+00
  SN4d   X2q  1 4.300000e-01    3.160000e+00
  SN3d   X2q  1 4.300000e-01    3.160000e+00
  SN2d   X2q  1 4.300000e-01    3.160000e+00
  SN1d   X2q  1 4.300000e-01    3.160000e+00
  SP6a   X2q  1 4.300000e-01    2.770000e+00
  SP5a   X2q  1 4.300000e-01    2.920000e+00
  SP4a   X2q  1 4.300000e-01    2.920000e+00
  SP3a   X2q  1 4.300000e-01    2.920000e+00
  SP2a   X2q  1 4.300000e-01    2.920000e+00
  SP1a   X2q  1 4.300000e-01    2.920000e+00
  SN6a   X2q  1 4.300000e-01    2.920000e+00
  SN5a   X2q  1 4.300000e-01    3.160000e+00
  SN4a   X2q  1 4.300000e-01    3.160000e+00
  SN3a   X2q  1 4.300000e-01    3.160000e+00
  SN2a   X2q  1 4.300000e-01    3.160000e+00
  SN1a   X2q  1 4.300000e-01    3.160000e+00
  SC6v   X2q  1 4.300000e-01    3.590000e+00
  SC5v   X2q  1 4.300000e-01    3.380000e+00
  SC4v   X2q  1 4.300000e-01    3.380000e+00
  SC3v   X2q  1 4.300000e-01    3.380000e+00
  SC2v   X2q  1 4.300000e-01    3.380000e+00
  SC1v   X2q  1 4.300000e-01    3.380000e+00
  SX4v   X2q  1 4.300000e-01    3.590000e+00
  SX3v   X2q  1 4.300000e-01    3.770000e+00
  SX2q   X2v  1 4.300000e-01    3.770000e+00
  SX2q   X1v  1 4.300000e-01    3.770000e+00
  SC6e   X2q  1 4.300000e-01    3.590000e+00
  SC5e   X2q  1 4.300000e-01    3.380000e+00
  SC4e   X2q  1 4.300000e-01    3.380000e+00
  SC3e   X2q  1 4.300000e-01    3.380000e+00
  SC2e   X2q  1 4.300000e-01    3.380000e+00
  SC1e   X2q  1 4.300000e-01    3.380000e+00
  SX4e   X2q  1 4.300000e-01    3.590000e+00
  SX3e   X2q  1 4.300000e-01    3.770000e+00
  SX2q   X2e  1 4.300000e-01    3.770000e+00
  SX2q   X1e  1 4.300000e-01    3.770000e+00
  SP6d   X1q  1 4.300000e-01    2.530000e+00
  SP5d   X1q  1 4.300000e-01    2.530000e+00
  SP4d   X1q  1 4.300000e-01    2.770000e+00
  SP3d   X1q  1 4.300000e-01    2.770000e+00
  SP2d   X1q  1 4.300000e-01    2.770000e+00
  SP1d   X1q  1 4.300000e-01    2.770000e+00
  SN6d   X1q  1 4.300000e-01    2.770000e+00
  SN5d   X1q  1 4.300000e-01    2.920000e+00
  SN4d   X1q  1 4.300000e-01    2.920000e+00
  SN3d   X1q  1 4.300000e-01    3.160000e+00
  SN2d   X1q  1 4.300000e-01    3.160000e+00
  SN1d   X1q  1 4.300000e-01    3.160000e+00
  SP6a   X1q  1 4.300000e-01    2.530000e+00
  SP5a   X1q  1 4.300000e-01    2.530000e+00
  SP4a   X1q  1 4.300000e-01    2.770000e+00
  SP3a   X1q  1 4.300000e-01    2.770000e+00
  SP2a   X1q  1 4.300000e-01    2.770000e+00
  SP1a   X1q  1 4.300000e-01    2.770000e+00
  SN6a   X1q  1 4.300000e-01    2.770000e+00
  SN5a   X1q  1 4.300000e-01    2.920000e+00
  SN4a   X1q  1 4.300000e-01    2.920000e+00
  SN3a   X1q  1 4.300000e-01    3.160000e+00
  SN2a   X1q  1 4.300000e-01    3.160000e+00
  SN1a   X1q  1 4.300000e-01    3.160000e+00
  SC6v   X1q  1 4.300000e-01    3.590000e+00
  SC5v   X1q  1 4.300000e-01    3.590000e+00
  SC4v   X1q  1 4.300000e-01    3.590000e+00
  SC3v   X1q  1 4.300000e-01    3.590000e+00
  SC2v   X1q  1 4.300000e-01    3.380000e+00
  SC1v   X1q  1 4.300000e-01    3.380000e+00
  SX4v   X1q  1 4.300000e-01    3.590000e+00
  SX3v   X1q  1 4.300000e-01    3.770000e+00
  SX2v   X1q  1 4.300000e-01    3.770000e+00
  SX1q   X1v  1 4.300000e-01    3.970000e+00
  SC6e   X1q  1 4.300000e-01    3.590000e+00
  SC5e   X1q  1 4.300000e-01    3.590000e+00
  SC4e   X1q  1 4.300000e-01    3.590000e+00
  SC3e   X1q  1 4.300000e-01    3.590000e+00
  SC2e   X1q  1 4.300000e-01    3.380000e+00
  SC1e   X1q  1 4.300000e-01    3.380000e+00
  SX4e   X1q  1 4.300000e-01    3.590000e+00
  SX3e   X1q  1 4.300000e-01    3.770000e+00
  SX2e   X1q  1 4.300000e-01    3.770000e+00
  SX1q   X1e  1 4.300000e-01    3.970000e+00
  SC6v  C6vq  1 4.300000e-01    3.380000e+00
 SC6vq   C5v  1 4.300000e-01    3.160000e+00
 SC6vq   C4v  1 4.300000e-01    3.160000e+00
 SC6vq   C3v  1 4.300000e-01    2.920000e+00
 SC6vq   C2v  1 4.300000e-01    2.770000e+00
 SC6vq   C1v  1 4.300000e-01    2.530000e+00
 SC6vq   X4v  1 4.300000e-01    3.160000e+00
 SC6vq   X3v  1 4.300000e-01    3.160000e+00
 SC6vq   X2v  1 4.300000e-01    3.160000e+00
 SC6vq   X1v  1 4.300000e-01    3.160000e+00
  SC5v  C5vq  1 4.300000e-01    3.160000e+00
 SC5vq   C4v  1 4.300000e-01    3.160000e+00
 SC5vq   C3v  1 4.300000e-01    2.920000e+00
 SC5vq   C2v  1 4.300000e-01    2.770000e+00
 SC5vq   C1v  1 4.300000e-01    2.770000e+00
 SC5vq   X4v  1 4.300000e-01    2.920000e+00
 SC5vq   X3v  1 4.300000e-01    2.920000e+00
 SC5vq   X2v  1 4.300000e-01    2.920000e+00
 SC5vq   X1v  1 4.300000e-01    3.160000e+00
  SC4v  C4vq  1 4.300000e-01    3.160000e+00
 SC4vq   C3v  1 4.300000e-01    3.160000e+00
 SC4vq   C2v  1 4.300000e-01    2.920000e+00
 SC4vq   C1v  1 4.300000e-01    2.770000e+00
 SC4vq   X4v  1 4.300000e-01    2.920000e+00
 SC4vq   X3v  1 4.300000e-01    2.920000e+00
 SC4vq   X2v  1 4.300000e-01    2.920000e+00
 SC4vq   X1v  1 4.300000e-01    3.160000e+00
  SC3v  C3vq  1 4.300000e-01    3.160000e+00
 SC3vq   C2v  1 4.300000e-01    3.160000e+00
 SC3vq   C1v  1 4.300000e-01    3.160000e+00
 SC3vq   X4v  1 4.300000e-01    2.920000e+00
 SC3vq   X3v  1 4.300000e-01    2.920000e+00
 SC3vq   X2v  1 4.300000e-01    2.920000e+00
 SC3vq   X1v  1 4.300000e-01    3.160000e+00
  SC2v  C2vq  1 4.300000e-01    3.160000e+00
 SC2vq   C1v  1 4.300000e-01    3.380000e+00
 SC2vq   X4v  1 4.300000e-01    2.530000e+00
 SC2vq   X3v  1 4.300000e-01    2.920000e+00
 SC2vq   X2v  1 4.300000e-01    2.920000e+00
 SC2vq   X1v  1 4.300000e-01    2.920000e+00
  SC1v  C1vq  1 4.300000e-01    3.160000e+00
 SC1vq   X4v  1 4.300000e-01    2.530000e+00
 SC1vq   X3v  1 4.300000e-01    2.920000e+00
 SC1vq   X2v  1 4.300000e-01    2.920000e+00
 SC1vq   X1v  1 4.300000e-01    2.920000e+00
  SX4v  X4vq  1 4.300000e-01    3.160000e+00
 SX4vq   X3v  1 4.300000e-01    3.160000e+00
 SX4vq   X2v  1 4.300000e-01    3.160000e+00
 SX4vq   X1v  1 4.300000e-01    3.160000e+00
  SX3v  X3vq  1 4.300000e-01    3.160000e+00
 SX3vq   X2v  1 4.300000e-01    3.380000e+00
 SX3vq   X1v  1 4.300000e-01    3.380000e+00
  SX2v  X2vq  1 4.300000e-01    3.380000e+00
 SX2vq   X1v  1 4.300000e-01    3.380000e+00
  SX1v  X1vq  1 4.300000e-01    3.590000e+00
  SC6e  C6eq  1 4.300000e-01    3.380000e+00
 SC6eq   C5e  1 4.300000e-01    3.160000e+00
 SC6eq   C4e  1 4.300000e-01    3.160000e+00
 SC6eq   C3e  1 4.300000e-01    2.920000e+00
 SC6eq   C2e  1 4.300000e-01    2.770000e+00
 SC6eq   C1e  1 4.300000e-01    2.530000e+00
 SC6eq   X4e  1 4.300000e-01    3.160000e+00
 SC6eq   X3e  1 4.300000e-01    3.160000e+00
 SC6eq   X2e  1 4.300000e-01    3.160000e+00
 SC6eq   X1e  1 4.300000e-01    3.160000e+00
  SC5e  C5eq  1 4.300000e-01    3.160000e+00
 SC5eq   C4e  1 4.300000e-01    3.160000e+00
 SC5eq   C3e  1 4.300000e-01    2.920000e+00
 SC5eq   C2e  1 4.300000e-01    2.770000e+00
 SC5eq   C1e  1 4.300000e-01    2.770000e+00
 SC5eq   X4e  1 4.300000e-01    2.920000e+00
 SC5eq   X3e  1 4.300000e-01    2.920000e+00
 SC5eq   X2e  1 4.300000e-01    2.920000e+00
 SC5eq   X1e  1 4.300000e-01    3.160000e+00
  SC4e  C4eq  1 4.300000e-01    3.160000e+00
 SC4eq   C3e  1 4.300000e-01    3.160000e+00
 SC4eq   C2e  1 4.300000e-01    2.920000e+00
 SC4eq   C1e  1 4.300000e-01    2.770000e+00
 SC4eq   X4e  1 4.300000e-01    2.920000e+00
 SC4eq   X3e  1 4.300000e-01    2.920000e+00
 SC4eq   X2e  1 4.300000e-01    2.920000e+00
 SC4eq   X1e  1 4.300000e-01    3.160000e+00
  SC3e  C3eq  1 4.300000e-01    3.160000e+00
 SC3eq   C2e  1 4.300000e-01    3.160000e+00
 SC3eq   C1e  1 4.300000e-01    3.160000e+00
 SC3eq   X4e  1 4.300000e-01    2.920000e+00
 SC3eq   X3e  1 4.300000e-01    2.920000e+00
 SC3eq   X2e  1 4.300000e-01    2.920000e+00
 SC3eq   X1e  1 4.300000e-01    3.160000e+00
  SC2e  C2eq  1 4.300000e-01    3.160000e+00
 SC2eq   C1e  1 4.300000e-01    3.380000e+00
 SC2eq   X4e  1 4.300000e-01    2.530000e+00
 SC2eq   X3e  1 4.300000e-01    2.920000e+00
 SC2eq   X2e  1 4.300000e-01    2.920000e+00
 SC2eq   X1e  1 4.300000e-01    2.920000e+00
  SC1e  C1eq  1 4.300000e-01    3.160000e+00
 SC1eq   X4e  1 4.300000e-01    2.530000e+00
 SC1eq   X3e  1 4.300000e-01    2.920000e+00
 SC1eq   X2e  1 4.300000e-01    2.920000e+00
 SC1eq   X1e  1 4.300000e-01    2.920000e+00
  SX4e  X4eq  1 4.300000e-01    3.160000e+00
 SX4eq   X3e  1 4.300000e-01    3.160000e+00
 SX4eq   X2e  1 4.300000e-01    3.160000e+00
 SX4eq   X1e  1 4.300000e-01    3.160000e+00
  SX3e  X3eq  1 4.300000e-01    3.160000e+00
 SX3eq   X2e  1 4.300000e-01    3.380000e+00
 SX3eq   X1e  1 4.300000e-01    3.380000e+00
  SX2e  X2eq  1 4.300000e-01    3.380000e+00
 SX2eq   X1e  1 4.300000e-01    3.380000e+00
  SX1e  X1eq  1 4.300000e-01    3.590000e+00
  SC6e  X1eq  1 4.300000e-01    3.160000e+00
  SC5e  X1eq  1 4.300000e-01    3.160000e+00
  SC4e  X1eq  1 4.300000e-01    3.160000e+00
  SC3e  X1eq  1 4.300000e-01    3.160000e+00
  SC2e  X1eq  1 4.300000e-01    2.920000e+00
  SC1e  X1eq  1 4.300000e-01    2.920000e+00
  SX4e  X1eq  1 4.300000e-01    3.160000e+00
  SX3e  X1eq  1 4.300000e-01    3.380000e+00
  SX2e  X1eq  1 4.300000e-01    3.380000e+00
  SC6e  X2eq  1 4.300000e-01    3.160000e+00
  SC5e  X2eq  1 4.300000e-01    2.920000e+00
  SC4e  X2eq  1 4.300000e-01    2.920000e+00
  SC3e  X2eq  1 4.300000e-01    2.920000e+00
  SC2e  X2eq  1 4.300000e-01    2.920000e+00
  SC1e  X2eq  1 4.300000e-01    2.920000e+00
  SX4e  X2eq  1 4.300000e-01    3.160000e+00
  SX3e  X2eq  1 4.300000e-01    3.380000e+00
  SC6e  X3eq  1 4.300000e-01    3.160000e+00
  SC5e  X3eq  1 4.300000e-01    2.920000e+00
  SC4e  X3eq  1 4.300000e-01    2.920000e+00
  SC3e  X3eq  1 4.300000e-01    2.920000e+00
  SC2e  X3eq  1 4.300000e-01    2.920000e+00
  SC1e  X3eq  1 4.300000e-01    2.920000e+00
  SX4e  X3eq  1 4.300000e-01    3.160000e+00
  SC6e  X4eq  1 4.300000e-01    3.160000e+00
  SC5e  X4eq  1 4.300000e-01    2.920000e+00
  SC4e  X4eq  1 4.300000e-01    2.920000e+00
  SC3e  X4eq  1 4.300000e-01    2.920000e+00
  SC2e  X4eq  1 4.300000e-01    2.530000e+00
  SC1e  X4eq  1 4.300000e-01    2.530000e+00
  SC6e  C1eq  1 4.300000e-01    2.530000e+00
  SC5e  C1eq  1 4.300000e-01    2.770000e+00
  SC4e  C1eq  1 4.300000e-01    2.770000e+00
  SC3e  C1eq  1 4.300000e-01    3.160000e+00
  SC2e  C1eq  1 4.300000e-01    3.380000e+00
  SC6e  C2eq  1 4.300000e-01    2.770000e+00
  SC5e  C2eq  1 4.300000e-01    2.770000e+00
  SC4e  C2eq  1 4.300000e-01    2.920000e+00
  SC3e  C2eq  1 4.300000e-01    3.160000e+00
  SC6e  C3eq  1 4.300000e-01    2.920000e+00
  SC5e  C3eq  1 4.300000e-01    2.920000e+00
  SC4e  C3eq  1 4.300000e-01    3.160000e+00
  SC6e  C4eq  1 4.300000e-01    3.160000e+00
  SC5e  C4eq  1 4.300000e-01    3.160000e+00
  SC6e  C5eq  1 4.300000e-01    3.160000e+00
  SC6v  X1vq  1 4.300000e-01    3.160000e+00
  SC5v  X1vq  1 4.300000e-01    3.160000e+00
  SC4v  X1vq  1 4.300000e-01    3.160000e+00
  SC3v  X1vq  1 4.300000e-01    3.160000e+00
  SC2v  X1vq  1 4.300000e-01    2.920000e+00
  SC1v  X1vq  1 4.300000e-01    2.920000e+00
  SX4v  X1vq  1 4.300000e-01    3.160000e+00
  SX3v  X1vq  1 4.300000e-01    3.380000e+00
  SX2v  X1vq  1 4.300000e-01    3.380000e+00
  SC6v  X2vq  1 4.300000e-01    3.160000e+00
  SC5v  X2vq  1 4.300000e-01    2.920000e+00
  SC4v  X2vq  1 4.300000e-01    2.920000e+00
  SC3v  X2vq  1 4.300000e-01    2.920000e+00
  SC2v  X2vq  1 4.300000e-01    2.920000e+00
  SC1v  X2vq  1 4.300000e-01    2.920000e+00
  SX4v  X2vq  1 4.300000e-01    3.160000e+00
  SX3v  X2vq  1 4.300000e-01    3.380000e+00
  SC6v  X3vq  1 4.300000e-01    3.160000e+00
  SC5v  X3vq  1 4.300000e-01    2.920000e+00
  SC4v  X3vq  1 4.300000e-01    2.920000e+00
  SC3v  X3vq  1 4.300000e-01    2.920000e+00
  SC2v  X3vq  1 4.300000e-01    2.920000e+00
  SC1v  X3vq  1 4.300000e-01    2.920000e+00
  SX4v  X3vq  1 4.300000e-01    3.160000e+00
  SC6v  X4vq  1 4.300000e-01    3.160000e+00
  SC5v  X4vq  1 4.300000e-01    2.920000e+00
  SC4v  X4vq  1 4.300000e-01    2.920000e+00
  SC3v  X4vq  1 4.300000e-01    2.920000e+00
  SC2v  X4vq  1 4.300000e-01    2.530000e+00
  SC1v  X4vq  1 4.300000e-01    2.530000e+00
  SC6v  C1vq  1 4.300000e-01    2.530000e+00
  SC5v  C1vq  1 4.300000e-01    2.770000e+00
  SC4v  C1vq  1 4.300000e-01    2.770000e+00
  SC3v  C1vq  1 4.300000e-01    3.160000e+00
  SC2v  C1vq  1 4.300000e-01    3.380000e+00
  SC6v  C2vq  1 4.300000e-01    2.770000e+00
  SC5v  C2vq  1 4.300000e-01    2.770000e+00
  SC4v  C2vq  1 4.300000e-01    2.920000e+00
  SC3v  C2vq  1 4.300000e-01    3.160000e+00
  SC6v  C3vq  1 4.300000e-01    2.920000e+00
  SC5v  C3vq  1 4.300000e-01    2.920000e+00
  SC4v  C3vq  1 4.300000e-01    3.160000e+00
  SC6v  C4vq  1 4.300000e-01    3.160000e+00
  SC5v  C4vq  1 4.300000e-01    3.160000e+00
  SC6v  C5vq  1 4.300000e-01    3.160000e+00
  SP6h   P6d  1 4.300000e-01    4.680000e+00
  SP6h   N1d  1 4.300000e-01    2.320000e+00
  SP6h   N2d  1 4.300000e-01    2.530000e+00
  SP6h   N3d  1 4.300000e-01    2.770000e+00
  SP6h   N4d  1 4.300000e-01    2.920000e+00
  SP6h   N5d  1 4.300000e-01    3.160000e+00
  SP6h   N6d  1 4.300000e-01    3.590000e+00
  SP6h   P1d  1 4.300000e-01    3.770000e+00
  SP6h   P2d  1 4.300000e-01    3.970000e+00
  SP6h   P3d  1 4.300000e-01    3.970000e+00
  SP6h   P4d  1 4.300000e-01    4.170000e+00
  SP6h   P5d  1 4.300000e-01    4.400000e+00
  SP6h   P6a  1 4.300000e-01    4.680000e+00
  SP6h   N1a  1 4.300000e-01    2.320000e+00
  SP6h   N2a  1 4.300000e-01    2.530000e+00
  SP6h   N3a  1 4.300000e-01    2.770000e+00
  SP6h   N4a  1 4.300000e-01    2.920000e+00
  SP6h   N5a  1 4.300000e-01    3.160000e+00
  SP6h   N6a  1 4.300000e-01    3.590000e+00
  SP6h   P1a  1 4.300000e-01    3.770000e+00
  SP6h   P2a  1 4.300000e-01    3.970000e+00
  SP6h   P3a  1 4.300000e-01    3.970000e+00
  SP6h   P4a  1 4.300000e-01    4.170000e+00
  SP6h   P5a  1 4.300000e-01    4.400000e+00
  SP6h   C6v  1 4.300000e-01    2.530000e+00
  SP6h   C5v  1 4.300000e-01    2.320000e+00
  SP6h   C4v  1 4.300000e-01    2.160000e+00
  SP6h   C3v  1 4.300000e-01    1.930000e+00
  SP6h   C2v  1 4.300000e-01    1.930000e+00
  SP6h   C1v  1 4.430000e-01    1.480000e+00
  SP6h   X4v  1 4.300000e-01    2.770000e+00
  SP6h   X3v  1 4.300000e-01    2.770000e+00
  SP6h   X2v  1 4.300000e-01    2.530000e+00
  SP6h   X1v  1 4.300000e-01    2.320000e+00
  SP6h   C6e  1 4.300000e-01    2.530000e+00
  SP6h   C5e  1 4.300000e-01    2.320000e+00
  SP6h   C4e  1 4.300000e-01    2.160000e+00
  SP6h   C3e  1 4.300000e-01    1.930000e+00
  SP6h   C2e  1 4.300000e-01    1.930000e+00
  SP6h   C1e  1 4.430000e-01    1.480000e+00
  SP6h   X4e  1 4.300000e-01    2.770000e+00
  SP6h   X3e  1 4.300000e-01    2.770000e+00
  SP6h   X2e  1 4.300000e-01    2.530000e+00
  SP6h   X1e  1 4.300000e-01    2.320000e+00
  SP6h   P6q  1 4.300000e-01    5.210000e+00
  SP6h  X1eq  1 4.300000e-01    2.770000e+00
  SP6h  X2eq  1 4.300000e-01    2.920000e+00
  SP6h  X3eq  1 4.300000e-01    3.160000e+00
  SP6h  X4eq  1 4.300000e-01    3.160000e+00
  SP6h  C1eq  1 4.300000e-01    1.930000e+00
  SP6h  C2eq  1 4.300000e-01    2.320000e+00
  SP6h  C3eq  1 4.300000e-01    2.320000e+00
  SP6h  C4eq  1 4.300000e-01    2.530000e+00
  SP6h  C5eq  1 4.300000e-01    2.770000e+00
  SP6h  C6eq  1 4.300000e-01    2.920000e+00
  SP6h  X1vq  1 4.300000e-01    2.770000e+00
  SP6h  X2vq  1 4.300000e-01    2.920000e+00
  SP6h  X3vq  1 4.300000e-01    3.160000e+00
  SP6h  X4vq  1 4.300000e-01    3.160000e+00
  SP6h  C1vq  1 4.300000e-01    1.930000e+00
  SP6h  C2vq  1 4.300000e-01    2.320000e+00
  SP6h  C3vq  1 4.300000e-01    2.320000e+00
  SP6h  C4vq  1 4.300000e-01    2.530000e+00
  SP6h  C5vq  1 4.300000e-01    2.770000e+00
  SP6h  C6vq  1 4.300000e-01    2.920000e+00
  SP6h  N1aq  1 4.300000e-01    2.770000e+00
  SP6h  N2aq  1 4.300000e-01    2.920000e+00
  SP6h  N3aq  1 4.300000e-01    3.160000e+00
  SP6h  N4aq  1 4.300000e-01    3.380000e+00
  SP6h  N5aq  1 4.300000e-01    3.590000e+00
  SP6h  N6aq  1 4.300000e-01    3.970000e+00
  SP6h  P1aq  1 4.300000e-01    4.170000e+00
  SP6h  P2aq  1 4.300000e-01    4.400000e+00
  SP6h  P3aq  1 4.300000e-01    4.400000e+00
  SP6h  P4aq  1 4.300000e-01    4.680000e+00
  SP6h  P5aq  1 4.300000e-01    4.920000e+00
  SP6h  P6aq  1 4.300000e-01    5.210000e+00
  SP6h  N1dq  1 4.300000e-01    2.770000e+00
  SP6h  N2dq  1 4.300000e-01    2.920000e+00
  SP6h  N3dq  1 4.300000e-01    3.160000e+00
  SP6h  N4dq  1 4.300000e-01    3.380000e+00
  SP6h  N5dq  1 4.300000e-01    3.590000e+00
  SP6h  N6dq  1 4.300000e-01    3.970000e+00
  SP6h  P1dq  1 4.300000e-01    4.170000e+00
  SP6h  P2dq  1 4.300000e-01    4.400000e+00
  SP6h  P3dq  1 4.300000e-01    4.400000e+00
  SP6h  P4dq  1 4.300000e-01    4.680000e+00
  SP6h  P5dq  1 4.300000e-01    4.920000e+00
  SP6h  P6dq  1 4.300000e-01    5.210000e+00
  SP6h   X1q  1 4.300000e-01    2.530000e+00
  SP6h   X2q  1 4.300000e-01    2.770000e+00
  SP6h   X3q  1 4.300000e-01    2.920000e+00
  SP6h   X4q  1 4.300000e-01    2.920000e+00
  SP6h   C1q  1 4.300000e-01    1.730000e+00
  SP6h   C2q  1 4.300000e-01    2.160000e+00
  SP6h   C3q  1 4.300000e-01    2.160000e+00
  SP6h   C4q  1 4.300000e-01    2.320000e+00
  SP6h   C5q  1 4.300000e-01    2.530000e+00
  SP6h   C6q  1 4.300000e-01    2.770000e+00
  SP6h   N1q  1 4.300000e-01    2.770000e+00
  SP6h   N2q  1 4.300000e-01    2.920000e+00
  SP6h   N3q  1 4.300000e-01    3.160000e+00
  SP6h   N4q  1 4.300000e-01    3.380000e+00
  SP6h   N5q  1 4.300000e-01    3.590000e+00
  SP6h   N6q  1 4.300000e-01    3.970000e+00
  SP6h   P1q  1 4.300000e-01    4.170000e+00
  SP6h   P2q  1 4.300000e-01    4.400000e+00
  SP6h   P3q  1 4.300000e-01    4.400000e+00
  SP6h   P4q  1 4.300000e-01    4.680000e+00
  SP6h   P5q  1 4.300000e-01    4.920000e+00
  SP6d   P5h  1 4.300000e-01    4.400000e+00
  SP5h   P5d  1 4.300000e-01    4.170000e+00
  SP5h   N1d  1 4.300000e-01    2.320000e+00
  SP5h   N2d  1 4.300000e-01    2.530000e+00
  SP5h   N3d  1 4.300000e-01    2.770000e+00
  SP5h   N4d  1 4.300000e-01    3.160000e+00
  SP5h   N5d  1 4.300000e-01    3.160000e+00
  SP5h   N6d  1 4.300000e-01    3.380000e+00
  SP5h   P1d  1 4.300000e-01    3.590000e+00
  SP5h   P2d  1 4.300000e-01    3.770000e+00
  SP5h   P3d  1 4.300000e-01    3.770000e+00
  SP5h   P4d  1 4.300000e-01    3.970000e+00
  SP6a   P5h  1 4.300000e-01    4.400000e+00
  SP5h   P5a  1 4.300000e-01    4.170000e+00
  SP5h   N1a  1 4.300000e-01    2.320000e+00
  SP5h   N2a  1 4.300000e-01    2.530000e+00
  SP5h   N3a  1 4.300000e-01    2.770000e+00
  SP5h   N4a  1 4.300000e-01    3.160000e+00
  SP5h   N5a  1 4.300000e-01    3.160000e+00
  SP5h   N6a  1 4.300000e-01    3.380000e+00
  SP5h   P1a  1 4.300000e-01    3.590000e+00
  SP5h   P2a  1 4.300000e-01    3.770000e+00
  SP5h   P3a  1 4.300000e-01    3.770000e+00
  SP5h   P4a  1 4.300000e-01    3.970000e+00
  SP5h   C6v  1 4.300000e-01    2.530000e+00
  SP5h   C5v  1 4.300000e-01    2.530000e+00
  SP5h   C4v  1 4.300000e-01    2.320000e+00
  SP5h   C3v  1 4.300000e-01    2.160000e+00
  SP5h   C2v  1 4.300000e-01    2.160000e+00
  SP5h   C1v  1 4.300000e-01    1.930000e+00
  SP5h   X4v  1 4.300000e-01    2.920000e+00
  SP5h   X3v  1 4.300000e-01    2.770000e+00
  SP5h   X2v  1 4.300000e-01    2.770000e+00
  SP5h   X1v  1 4.300000e-01    2.320000e+00
  SP5h   C6e  1 4.300000e-01    2.530000e+00
  SP5h   C5e  1 4.300000e-01    2.530000e+00
  SP5h   C4e  1 4.300000e-01    2.320000e+00
  SP5h   C3e  1 4.300000e-01    2.160000e+00
  SP5h   C2e  1 4.300000e-01    2.160000e+00
  SP5h   C1e  1 4.300000e-01    1.930000e+00
  SP5h   X4e  1 4.300000e-01    2.920000e+00
  SP5h   X3e  1 4.300000e-01    2.770000e+00
  SP5h   X2e  1 4.300000e-01    2.770000e+00
  SP5h   X1e  1 4.300000e-01    2.320000e+00
  SP6q   P5h  1 4.300000e-01    4.920000e+00
  SP5h   P5q  1 4.300000e-01    4.680000e+00
  SP5h  X1eq  1 4.300000e-01    2.770000e+00
  SP5h  X2eq  1 4.300000e-01    3.160000e+00
  SP5h  X3eq  1 4.300000e-01    3.160000e+00
  SP5h  X4eq  1 4.300000e-01    3.380000e+00
  SP5h  C1eq  1 4.300000e-01    2.320000e+00
  SP5h  C2eq  1 4.300000e-01    2.530000e+00
  SP5h  C3eq  1 4.300000e-01    2.530000e+00
  SP5h  C4eq  1 4.300000e-01    2.770000e+00
  SP5h  C5eq  1 4.300000e-01    2.920000e+00
  SP5h  C6eq  1 4.300000e-01    2.920000e+00
  SP5h  X1vq  1 4.300000e-01    2.770000e+00
  SP5h  X2vq  1 4.300000e-01    3.160000e+00
  SP5h  X3vq  1 4.300000e-01    3.160000e+00
  SP5h  X4vq  1 4.300000e-01    3.380000e+00
  SP5h  C1vq  1 4.300000e-01    2.320000e+00
  SP5h  C2vq  1 4.300000e-01    2.530000e+00
  SP5h  C3vq  1 4.300000e-01    2.530000e+00
  SP5h  C4vq  1 4.300000e-01    2.770000e+00
  SP5h  C5vq  1 4.300000e-01    2.920000e+00
  SP5h  C6vq  1 4.300000e-01    2.920000e+00
  SP5h  N1aq  1 4.300000e-01    2.770000e+00
  SP5h  N2aq  1 4.300000e-01    2.920000e+00
  SP5h  N3aq  1 4.300000e-01    3.160000e+00
  SP5h  N4aq  1 4.300000e-01    3.590000e+00
  SP5h  N5aq  1 4.300000e-01    3.590000e+00
  SP5h  N6aq  1 4.300000e-01    3.770000e+00
  SP5h  P1aq  1 4.300000e-01    3.970000e+00
  SP5h  P2aq  1 4.300000e-01    4.170000e+00
  SP5h  P3aq  1 4.300000e-01    4.170000e+00
  SP5h  P4aq  1 4.300000e-01    4.400000e+00
  SP5h  P5aq  1 4.300000e-01    4.680000e+00
 SP6aq   P5h  1 4.300000e-01    4.920000e+00
  SP5h  N1dq  1 4.300000e-01    2.770000e+00
  SP5h  N2dq  1 4.300000e-01    2.920000e+00
  SP5h  N3dq  1 4.300000e-01    3.160000e+00
  SP5h  N4dq  1 4.300000e-01    3.590000e+00
  SP5h  N5dq  1 4.300000e-01    3.590000e+00
  SP5h  N6dq  1 4.300000e-01    3.770000e+00
  SP5h  P1dq  1 4.300000e-01    3.970000e+00
  SP5h  P2dq  1 4.300000e-01    4.170000e+00
  SP5h  P3dq  1 4.300000e-01    4.170000e+00
  SP5h  P4dq  1 4.300000e-01    4.400000e+00
  SP5h  P5dq  1 4.300000e-01    4.680000e+00
 SP6dq   P5h  1 4.300000e-01    4.920000e+00
  SP5h   X1q  1 4.300000e-01    2.530000e+00
  SP5h   X2q  1 4.300000e-01    2.920000e+00
  SP5h   X3q  1 4.300000e-01    2.920000e+00
  SP5h   X4q  1 4.300000e-01    3.160000e+00
  SP5h   C1q  1 4.300000e-01    2.160000e+00
  SP5h   C2q  1 4.300000e-01    2.320000e+00
  SP5h   C3q  1 4.300000e-01    2.320000e+00
  SP5h   C4q  1 4.300000e-01    2.530000e+00
  SP5h   C5q  1 4.300000e-01    2.770000e+00
  SP5h   C6q  1 4.300000e-01    2.770000e+00
  SP5h   N1q  1 4.300000e-01    2.770000e+00
  SP5h   N2q  1 4.300000e-01    2.920000e+00
  SP5h   N3q  1 4.300000e-01    3.160000e+00
  SP5h   N4q  1 4.300000e-01    3.590000e+00
  SP5h   N5q  1 4.300000e-01    3.590000e+00
  SP5h   N6q  1 4.300000e-01    3.770000e+00
  SP5h   P1q  1 4.300000e-01    3.970000e+00
  SP5h   P2q  1 4.300000e-01    4.170000e+00
  SP5h   P3q  1 4.300000e-01    4.170000e+00
  SP5h   P4q  1 4.300000e-01    4.400000e+00
  SP6d   P4h  1 4.300000e-01    4.170000e+00
  SP5d   P4h  1 4.300000e-01    3.970000e+00
  SP4h   P4d  1 4.300000e-01    3.970000e+00
  SP4h   N1d  1 4.300000e-01    2.530000e+00
  SP4h   N2d  1 4.300000e-01    2.770000e+00
  SP4h   N3d  1 4.300000e-01    2.920000e+00
  SP4h   N4d  1 4.300000e-01    3.160000e+00
  SP4h   N5d  1 4.300000e-01    3.160000e+00
  SP4h   N6d  1 4.300000e-01    3.380000e+00
  SP4h   P1d  1 4.300000e-01    3.590000e+00
  SP4h   P2d  1 4.300000e-01    3.770000e+00
  SP4h   P3d  1 4.300000e-01    3.770000e+00
  SP6a   P4h  1 4.300000e-01    4.170000e+00
  SP5a   P4h  1 4.300000e-01    3.970000e+00
  SP4h   P4a  1 4.300000e-01    3.970000e+00
  SP4h   N1a  1 4.300000e-01    2.530000e+00
  SP4h   N2a  1 4.300000e-01    2.770000e+00
  SP4h   N3a  1 4.300000e-01    2.920000e+00
  SP4h   N4a  1 4.300000e-01    3.160000e+00
  SP4h   N5a  1 4.300000e-01    3.160000e+00
  SP4h   N6a  1 4.300000e-01    3.380000e+00
  SP4h   P1a  1 4.300000e-01    3.590000e+00
  SP4h   P2a  1 4.300000e-01    3.770000e+00
  SP4h   P3a  1 4.300000e-01    3.770000e+00
  SP4h   C6v  1 4.300000e-01    2.770000e+00
  SP4h   C5v  1 4.300000e-01    2.530000e+00
  SP4h   C4v  1 4.300000e-01    2.320000e+00
  SP4h   C3v  1 4.300000e-01    2.160000e+00
  SP4h   C2v  1 4.300000e-01    2.160000e+00
  SP4h   C1v  1 4.300000e-01    1.930000e+00
  SP4h   X4v  1 4.300000e-01    2.920000e+00
  SP4h   X3v  1 4.300000e-01    2.770000e+00
  SP4h   X2v  1 4.300000e-01    2.770000e+00
  SP4h   X1v  1 4.300000e-01    2.530000e+00
  SP4h   C6e  1 4.300000e-01    2.770000e+00
  SP4h   C5e  1 4.300000e-01    2.530000e+00
  SP4h   C4e  1 4.300000e-01    2.320000e+00
  SP4h   C3e  1 4.300000e-01    2.160000e+00
  SP4h   C2e  1 4.300000e-01    2.160000e+00
  SP4h   C1e  1 4.300000e-01    1.930000e+00
  SP4h   X4e  1 4.300000e-01    2.920000e+00
  SP4h   X3e  1 4.300000e-01    2.770000e+00
  SP4h   X2e  1 4.300000e-01    2.770000e+00
  SP4h   X1e  1 4.300000e-01    2.530000e+00
  SP6q   P4h  1 4.300000e-01    4.680000e+00
  SP5q   P4h  1 4.300000e-01    4.400000e+00
  SP4h   P4q  1 4.300000e-01    4.400000e+00
  SP4h  X1eq  1 4.300000e-01    2.920000e+00
  SP4h  X2eq  1 4.300000e-01    3.160000e+00
  SP4h  X3eq  1 4.300000e-01    3.160000e+00
  SP4h  X4eq  1 4.300000e-01    3.380000e+00
  SP4h  C1eq  1 4.300000e-01    2.320000e+00
  SP4h  C2eq  1 4.300000e-01    2.530000e+00
  SP4h  C3eq  1 4.300000e-01    2.530000e+00
  SP4h  C4eq  1 4.300000e-01    2.770000e+00
  SP4h  C5eq  1 4.300000e-01    2.920000e+00
  SP4h  C6eq  1 4.300000e-01    3.160000e+00
  SP4h  X1vq  1 4.300000e-01    2.920000e+00
  SP4h  X2vq  1 4.300000e-01    3.160000e+00
  SP4h  X3vq  1 4.300000e-01    3.160000e+00
  SP4h  X4vq  1 4.300000e-01    3.380000e+00
  SP4h  C1vq  1 4.300000e-01    2.320000e+00
  SP4h  C2vq  1 4.300000e-01    2.530000e+00
  SP4h  C3vq  1 4.300000e-01    2.530000e+00
  SP4h  C4vq  1 4.300000e-01    2.770000e+00
  SP4h  C5vq  1 4.300000e-01    2.920000e+00
  SP4h  C6vq  1 4.300000e-01    3.160000e+00
  SP4h  N1aq  1 4.300000e-01    2.920000e+00
  SP4h  N2aq  1 4.300000e-01    3.160000e+00
  SP4h  N3aq  1 4.300000e-01    3.380000e+00
  SP4h  N4aq  1 4.300000e-01    3.590000e+00
  SP4h  N5aq  1 4.300000e-01    3.590000e+00
  SP4h  N6aq  1 4.300000e-01    3.770000e+00
  SP4h  P1aq  1 4.300000e-01    3.970000e+00
  SP4h  P2aq  1 4.300000e-01    4.170000e+00
  SP4h  P3aq  1 4.300000e-01    4.170000e+00
  SP4h  P4aq  1 4.300000e-01    4.400000e+00
 SP5aq   P4h  1 4.300000e-01    4.400000e+00
 SP6aq   P4h  1 4.300000e-01    4.680000e+00
  SP4h  N1dq  1 4.300000e-01    2.920000e+00
  SP4h  N2dq  1 4.300000e-01    3.160000e+00
  SP4h  N3dq  1 4.300000e-01    3.380000e+00
  SP4h  N4dq  1 4.300000e-01    3.590000e+00
  SP4h  N5dq  1 4.300000e-01    3.590000e+00
  SP4h  N6dq  1 4.300000e-01    3.770000e+00
  SP4h  P1dq  1 4.300000e-01    3.970000e+00
  SP4h  P2dq  1 4.300000e-01    4.170000e+00
  SP4h  P3dq  1 4.300000e-01    4.170000e+00
  SP4h  P4dq  1 4.300000e-01    4.400000e+00
 SP5dq   P4h  1 4.300000e-01    4.400000e+00
 SP6dq   P4h  1 4.300000e-01    4.680000e+00
  SP4h   X1q  1 4.300000e-01    2.770000e+00
  SP4h   X2q  1 4.300000e-01    2.920000e+00
  SP4h   X3q  1 4.300000e-01    2.920000e+00
  SP4h   X4q  1 4.300000e-01    3.160000e+00
  SP4h   C1q  1 4.300000e-01    2.160000e+00
  SP4h   C2q  1 4.300000e-01    2.320000e+00
  SP4h   C3q  1 4.300000e-01    2.320000e+00
  SP4h   C4q  1 4.300000e-01    2.530000e+00
  SP4h   C5q  1 4.300000e-01    2.770000e+00
  SP4h   C6q  1 4.300000e-01    2.920000e+00
  SP4h   N1q  1 4.300000e-01    2.920000e+00
  SP4h   N2q  1 4.300000e-01    3.160000e+00
  SP4h   N3q  1 4.300000e-01    3.380000e+00
  SP4h   N4q  1 4.300000e-01    3.590000e+00
  SP4h   N5q  1 4.300000e-01    3.590000e+00
  SP4h   N6q  1 4.300000e-01    3.770000e+00
  SP4h   P1q  1 4.300000e-01    3.970000e+00
  SP4h   P2q  1 4.300000e-01    4.170000e+00
  SP4h   P3q  1 4.300000e-01    4.170000e+00
  SP6d   P3h  1 4.300000e-01    3.970000e+00
  SP5d   P3h  1 4.300000e-01    3.770000e+00
  SP4d   P3h  1 4.300000e-01    3.770000e+00
  SP3h   P3d  1 4.300000e-01    3.770000e+00
  SP3h   N1d  1 4.300000e-01    2.770000e+00
  SP3h   N2d  1 4.300000e-01    2.920000e+00
  SP3h   N3d  1 4.300000e-01    2.920000e+00
  SP3h   N4d  1 4.300000e-01    3.160000e+00
  SP3h   N5d  1 4.300000e-01    3.160000e+00
  SP3h   N6d  1 4.300000e-01    3.380000e+00
  SP3h   P1d  1 4.300000e-01    3.590000e+00
  SP3h   P2d  1 4.300000e-01    3.770000e+00
  SP6a   P3h  1 4.300000e-01    3.970000e+00
  SP5a   P3h  1 4.300000e-01    3.770000e+00
  SP4a   P3h  1 4.300000e-01    3.770000e+00
  SP3h   P3a  1 4.300000e-01    3.770000e+00
  SP3h   N1a  1 4.300000e-01    2.770000e+00
  SP3h   N2a  1 4.300000e-01    2.920000e+00
  SP3h   N3a  1 4.300000e-01    2.920000e+00
  SP3h   N4a  1 4.300000e-01    3.160000e+00
  SP3h   N5a  1 4.300000e-01    3.160000e+00
  SP3h   N6a  1 4.300000e-01    3.380000e+00
  SP3h   P1a  1 4.300000e-01    3.590000e+00
  SP3h   P2a  1 4.300000e-01    3.770000e+00
  SP3h   C6v  1 4.300000e-01    2.920000e+00
  SP3h   C5v  1 4.300000e-01    2.770000e+00
  SP3h   C4v  1 4.300000e-01    2.530000e+00
  SP3h   C3v  1 4.300000e-01    2.160000e+00
  SP3h   C2v  1 4.300000e-01    2.160000e+00
  SP3h   C1v  1 4.300000e-01    1.930000e+00
  SP3h   X4v  1 4.300000e-01    2.920000e+00
  SP3h   X3v  1 4.300000e-01    2.920000e+00
  SP3h   X2v  1 4.300000e-01    2.770000e+00
  SP3h   X1v  1 4.300000e-01    2.530000e+00
  SP3h   C6e  1 4.300000e-01    2.920000e+00
  SP3h   C5e  1 4.300000e-01    2.770000e+00
  SP3h   C4e  1 4.300000e-01    2.530000e+00
  SP3h   C3e  1 4.300000e-01    2.160000e+00
  SP3h   C2e  1 4.300000e-01    2.160000e+00
  SP3h   C1e  1 4.300000e-01    1.930000e+00
  SP3h   X4e  1 4.300000e-01    2.920000e+00
  SP3h   X3e  1 4.300000e-01    2.920000e+00
  SP3h   X2e  1 4.300000e-01    2.770000e+00
  SP3h   X1e  1 4.300000e-01    2.530000e+00
  SP6q   P3h  1 4.300000e-01    4.400000e+00
  SP5q   P3h  1 4.300000e-01    4.170000e+00
  SP4q   P3h  1 4.300000e-01    4.170000e+00
  SP3h   P3q  1 4.300000e-01    4.170000e+00
  SP3h  X1eq  1 4.300000e-01    2.920000e+00
  SP3h  X2eq  1 4.300000e-01    3.160000e+00
  SP3h  X3eq  1 4.300000e-01    3.380000e+00
  SP3h  X4eq  1 4.300000e-01    3.380000e+00
  SP3h  C1eq  1 4.300000e-01    2.320000e+00
  SP3h  C2eq  1 4.300000e-01    2.530000e+00
  SP3h  C3eq  1 4.300000e-01    2.530000e+00
  SP3h  C4eq  1 4.300000e-01    2.920000e+00
  SP3h  C5eq  1 4.300000e-01    3.160000e+00
  SP3h  C6eq  1 4.300000e-01    3.380000e+00
  SP3h  X1vq  1 4.300000e-01    2.920000e+00
  SP3h  X2vq  1 4.300000e-01    3.160000e+00
  SP3h  X3vq  1 4.300000e-01    3.380000e+00
  SP3h  X4vq  1 4.300000e-01    3.380000e+00
  SP3h  C1vq  1 4.300000e-01    2.320000e+00
  SP3h  C2vq  1 4.300000e-01    2.530000e+00
  SP3h  C3vq  1 4.300000e-01    2.530000e+00
  SP3h  C4vq  1 4.300000e-01    2.920000e+00
  SP3h  C5vq  1 4.300000e-01    3.160000e+00
  SP3h  C6vq  1 4.300000e-01    3.380000e+00
  SP3h  N1aq  1 4.300000e-01    3.160000e+00
  SP3h  N2aq  1 4.300000e-01    3.380000e+00
  SP3h  N3aq  1 4.300000e-01    3.380000e+00
  SP3h  N4aq  1 4.300000e-01    3.590000e+00
  SP3h  N5aq  1 4.300000e-01    3.590000e+00
  SP3h  N6aq  1 4.300000e-01    3.770000e+00
  SP3h  P1aq  1 4.300000e-01    3.970000e+00
  SP3h  P2aq  1 4.300000e-01    4.170000e+00
  SP3h  P3aq  1 4.300000e-01    4.170000e+00
 SP4aq   P3h  1 4.300000e-01    4.170000e+00
 SP5aq   P3h  1 4.300000e-01    4.170000e+00
 SP6aq   P3h  1 4.300000e-01    4.400000e+00
  SP3h  N1dq  1 4.300000e-01    3.160000e+00
  SP3h  N2dq  1 4.300000e-01    3.380000e+00
  SP3h  N3dq  1 4.300000e-01    3.380000e+00
  SP3h  N4dq  1 4.300000e-01    3.590000e+00
  SP3h  N5dq  1 4.300000e-01    3.590000e+00
  SP3h  N6dq  1 4.300000e-01    3.770000e+00
  SP3h  P1dq  1 4.300000e-01    3.970000e+00
  SP3h  P2dq  1 4.300000e-01    4.170000e+00
  SP3h  P3dq  1 4.300000e-01    4.170000e+00
 SP4dq   P3h  1 4.300000e-01    4.170000e+00
 SP5dq   P3h  1 4.300000e-01    4.170000e+00
 SP6dq   P3h  1 4.300000e-01    4.400000e+00
  SP3h   X1q  1 4.300000e-01    2.770000e+00
  SP3h   X2q  1 4.300000e-01    2.920000e+00
  SP3h   X3q  1 4.300000e-01    3.160000e+00
  SP3h   X4q  1 4.300000e-01    3.160000e+00
  SP3h   C1q  1 4.300000e-01    2.160000e+00
  SP3h   C2q  1 4.300000e-01    2.320000e+00
  SP3h   C3q  1 4.300000e-01    2.320000e+00
  SP3h   C4q  1 4.300000e-01    2.770000e+00
  SP3h   C5q  1 4.300000e-01    2.920000e+00
  SP3h   C6q  1 4.300000e-01    3.160000e+00
  SP3h   N1q  1 4.300000e-01    3.160000e+00
  SP3h   N2q  1 4.300000e-01    3.380000e+00
  SP3h   N3q  1 4.300000e-01    3.380000e+00
  SP3h   N4q  1 4.300000e-01    3.590000e+00
  SP3h   N5q  1 4.300000e-01    3.590000e+00
  SP3h   N6q  1 4.300000e-01    3.770000e+00
  SP3h   P1q  1 4.300000e-01    3.970000e+00
  SP3h   P2q  1 4.300000e-01    4.170000e+00
  SP6d   P2h  1 4.300000e-01    3.970000e+00
  SP5d   P2h  1 4.300000e-01    3.770000e+00
  SP4d   P2h  1 4.300000e-01    3.770000e+00
  SP3d   P2h  1 4.300000e-01    3.770000e+00
  SP2h   P2d  1 4.300000e-01    3.770000e+00
  SP2h   N1d  1 4.300000e-01    2.920000e+00
  SP2h   N2d  1 4.300000e-01    2.920000e+00
  SP2h   N3d  1 4.300000e-01    2.920000e+00
  SP2h   N4d  1 4.300000e-01    3.160000e+00
  SP2h   N5d  1 4.300000e-01    3.380000e+00
  SP2h   N6d  1 4.300000e-01    3.590000e+00
  SP2h   P1d  1 4.300000e-01    3.590000e+00
  SP6a   P2h  1 4.300000e-01    3.970000e+00
  SP5a   P2h  1 4.300000e-01    3.770000e+00
  SP4a   P2h  1 4.300000e-01    3.770000e+00
  SP3a   P2h  1 4.300000e-01    3.770000e+00
  SP2h   P2a  1 4.300000e-01    3.770000e+00
  SP2h   N1a  1 4.300000e-01    2.920000e+00
  SP2h   N2a  1 4.300000e-01    2.920000e+00
  SP2h   N3a  1 4.300000e-01    2.920000e+00
  SP2h   N4a  1 4.300000e-01    3.160000e+00
  SP2h   N5a  1 4.300000e-01    3.380000e+00
  SP2h   N6a  1 4.300000e-01    3.590000e+00
  SP2h   P1a  1 4.300000e-01    3.590000e+00
  SP2h   C6v  1 4.300000e-01    2.920000e+00
  SP2h   C5v  1 4.300000e-01    2.770000e+00
  SP2h   C4v  1 4.300000e-01    2.530000e+00
  SP2h   C3v  1 4.300000e-01    2.320000e+00
  SP2h   C2v  1 4.300000e-01    2.320000e+00
  SP2h   C1v  1 4.300000e-01    2.160000e+00
  SP2h   X4v  1 4.300000e-01    2.920000e+00
  SP2h   X3v  1 4.300000e-01    2.920000e+00
  SP2h   X2v  1 4.300000e-01    2.770000e+00
  SP2h   X1v  1 4.300000e-01    2.530000e+00
  SP2h   C6e  1 4.300000e-01    2.920000e+00
  SP2h   C5e  1 4.300000e-01    2.770000e+00
  SP2h   C4e  1 4.300000e-01    2.530000e+00
  SP2h   C3e  1 4.300000e-01    2.320000e+00
  SP2h   C2e  1 4.300000e-01    2.320000e+00
  SP2h   C1e  1 4.300000e-01    2.160000e+00
  SP2h   X4e  1 4.300000e-01    2.920000e+00
  SP2h   X3e  1 4.300000e-01    2.920000e+00
  SP2h   X2e  1 4.300000e-01    2.770000e+00
  SP2h   X1e  1 4.300000e-01    2.530000e+00
  SP6q   P2h  1 4.300000e-01    4.400000e+00
  SP5q   P2h  1 4.300000e-01    4.170000e+00
  SP4q   P2h  1 4.300000e-01    4.170000e+00
  SP3q   P2h  1 4.300000e-01    4.170000e+00
  SP2h   P2q  1 4.300000e-01    4.170000e+00
  SP2h  X1eq  1 4.300000e-01    2.920000e+00
  SP2h  X2eq  1 4.300000e-01    3.160000e+00
  SP2h  X3eq  1 4.300000e-01    3.380000e+00
  SP2h  X4eq  1 4.300000e-01    3.380000e+00
  SP2h  C1eq  1 4.300000e-01    2.530000e+00
  SP2h  C2eq  1 4.300000e-01    2.770000e+00
  SP2h  C3eq  1 4.300000e-01    2.770000e+00
  SP2h  C4eq  1 4.300000e-01    2.920000e+00
  SP2h  C5eq  1 4.300000e-01    3.160000e+00
  SP2h  C6eq  1 4.300000e-01    3.380000e+00
  SP2h  X1vq  1 4.300000e-01    2.920000e+00
  SP2h  X2vq  1 4.300000e-01    3.160000e+00
  SP2h  X3vq  1 4.300000e-01    3.380000e+00
  SP2h  X4vq  1 4.300000e-01    3.380000e+00
  SP2h  C1vq  1 4.300000e-01    2.530000e+00
  SP2h  C2vq  1 4.300000e-01    2.770000e+00
  SP2h  C3vq  1 4.300000e-01    2.770000e+00
  SP2h  C4vq  1 4.300000e-01    2.920000e+00
  SP2h  C5vq  1 4.300000e-01    3.160000e+00
  SP2h  C6vq  1 4.300000e-01    3.380000e+00
  SP2h  N1aq  1 4.300000e-01    3.380000e+00
  SP2h  N2aq  1 4.300000e-01    3.380000e+00
  SP2h  N3aq  1 4.300000e-01    3.380000e+00
  SP2h  N4aq  1 4.300000e-01    3.590000e+00
  SP2h  N5aq  1 4.300000e-01    3.770000e+00
  SP2h  N6aq  1 4.300000e-01    3.970000e+00
  SP2h  P1aq  1 4.300000e-01    3.970000e+00
  SP2h  P2aq  1 4.300000e-01    4.170000e+00
 SP3aq   P2h  1 4.300000e-01    4.170000e+00
 SP4aq   P2h  1 4.300000e-01    4.170000e+00
 SP5aq   P2h  1 4.300000e-01    4.170000e+00
 SP6aq   P2h  1 4.300000e-01    4.400000e+00
  SP2h  N1dq  1 4.300000e-01    3.380000e+00
  SP2h  N2dq  1 4.300000e-01    3.380000e+00
  SP2h  N3dq  1 4.300000e-01    3.380000e+00
  SP2h  N4dq  1 4.300000e-01    3.590000e+00
  SP2h  N5dq  1 4.300000e-01    3.770000e+00
  SP2h  N6dq  1 4.300000e-01    3.970000e+00
  SP2h  P1dq  1 4.300000e-01    3.970000e+00
  SP2h  P2dq  1 4.300000e-01    4.170000e+00
 SP3dq   P2h  1 4.300000e-01    4.170000e+00
 SP4dq   P2h  1 4.300000e-01    4.170000e+00
 SP5dq   P2h  1 4.300000e-01    4.170000e+00
 SP6dq   P2h  1 4.300000e-01    4.400000e+00
  SP2h   X1q  1 4.300000e-01    2.770000e+00
  SP2h   X2q  1 4.300000e-01    2.920000e+00
  SP2h   X3q  1 4.300000e-01    3.160000e+00
  SP2h   X4q  1 4.300000e-01    3.160000e+00
  SP2h   C1q  1 4.300000e-01    2.320000e+00
  SP2h   C2q  1 4.300000e-01    2.530000e+00
  SP2h   C3q  1 4.300000e-01    2.530000e+00
  SP2h   C4q  1 4.300000e-01    2.770000e+00
  SP2h   C5q  1 4.300000e-01    2.920000e+00
  SP2h   C6q  1 4.300000e-01    3.160000e+00
  SP2h   N1q  1 4.300000e-01    3.380000e+00
  SP2h   N2q  1 4.300000e-01    3.380000e+00
  SP2h   N3q  1 4.300000e-01    3.380000e+00
  SP2h   N4q  1 4.300000e-01    3.590000e+00
  SP2h   N5q  1 4.300000e-01    3.770000e+00
  SP2h   N6q  1 4.300000e-01    3.970000e+00
  SP2h   P1q  1 4.300000e-01    3.970000e+00
  SP6d   P1h  1 4.300000e-01    3.770000e+00
  SP5d   P1h  1 4.300000e-01    3.590000e+00
  SP4d   P1h  1 4.300000e-01    3.590000e+00
  SP3d   P1h  1 4.300000e-01    3.590000e+00
  SP2d   P1h  1 4.300000e-01    3.590000e+00
  SP1h   P1d  1 4.300000e-01    3.590000e+00
  SP1h   N1d  1 4.300000e-01    2.920000e+00
  SP1h   N2d  1 4.300000e-01    2.920000e+00
  SP1h   N3d  1 4.300000e-01    2.920000e+00
  SP1h   N4d  1 4.300000e-01    3.380000e+00
  SP1h   N5d  1 4.300000e-01    3.380000e+00
  SP1h   N6d  1 4.300000e-01    3.590000e+00
  SP6a   P1h  1 4.300000e-01    3.770000e+00
  SP5a   P1h  1 4.300000e-01    3.590000e+00
  SP4a   P1h  1 4.300000e-01    3.590000e+00
  SP3a   P1h  1 4.300000e-01    3.590000e+00
  SP2a   P1h  1 4.300000e-01    3.590000e+00
  SP1h   P1a  1 4.300000e-01    3.590000e+00
  SP1h   N1a  1 4.300000e-01    2.920000e+00
  SP1h   N2a  1 4.300000e-01    2.920000e+00
  SP1h   N3a  1 4.300000e-01    2.920000e+00
  SP1h   N4a  1 4.300000e-01    3.380000e+00
  SP1h   N5a  1 4.300000e-01    3.380000e+00
  SP1h   N6a  1 4.300000e-01    3.590000e+00
  SP1h   C6v  1 4.300000e-01    2.920000e+00
  SP1h   C5v  1 4.300000e-01    2.770000e+00
  SP1h   C4v  1 4.300000e-01    2.530000e+00
  SP1h   C3v  1 4.300000e-01    2.320000e+00
  SP1h   C2v  1 4.300000e-01    2.320000e+00
  SP1h   C1v  1 4.300000e-01    2.160000e+00
  SP1h   X4v  1 4.300000e-01    2.920000e+00
  SP1h   X3v  1 4.300000e-01    2.920000e+00
  SP1h   X2v  1 4.300000e-01    2.770000e+00
  SP1h   X1v  1 4.300000e-01    2.530000e+00
  SP1h   C6e  1 4.300000e-01    2.920000e+00
  SP1h   C5e  1 4.300000e-01    2.770000e+00
  SP1h   C4e  1 4.300000e-01    2.530000e+00
  SP1h   C3e  1 4.300000e-01    2.320000e+00
  SP1h   C2e  1 4.300000e-01    2.320000e+00
  SP1h   C1e  1 4.300000e-01    2.160000e+00
  SP1h   X4e  1 4.300000e-01    2.920000e+00
  SP1h   X3e  1 4.300000e-01    2.920000e+00
  SP1h   X2e  1 4.300000e-01    2.770000e+00
  SP1h   X1e  1 4.300000e-01    2.530000e+00
  SP6q   P1h  1 4.300000e-01    4.170000e+00
  SP5q   P1h  1 4.300000e-01    3.970000e+00
  SP4q   P1h  1 4.300000e-01    3.970000e+00
  SP3q   P1h  1 4.300000e-01    3.970000e+00
  SP2q   P1h  1 4.300000e-01    3.970000e+00
  SP1h   P1q  1 4.300000e-01    3.970000e+00
  SP1h  X1eq  1 4.300000e-01    2.920000e+00
  SP1h  X2eq  1 4.300000e-01    3.160000e+00
  SP1h  X3eq  1 4.300000e-01    3.380000e+00
  SP1h  X4eq  1 4.300000e-01    3.380000e+00
  SP1h  C1eq  1 4.300000e-01    2.530000e+00
  SP1h  C2eq  1 4.300000e-01    2.770000e+00
  SP1h  C3eq  1 4.300000e-01    2.770000e+00
  SP1h  C4eq  1 4.300000e-01    2.920000e+00
  SP1h  C5eq  1 4.300000e-01    3.160000e+00
  SP1h  C6eq  1 4.300000e-01    3.380000e+00
  SP1h  X1vq  1 4.300000e-01    2.920000e+00
  SP1h  X2vq  1 4.300000e-01    3.160000e+00
  SP1h  X3vq  1 4.300000e-01    3.380000e+00
  SP1h  X4vq  1 4.300000e-01    3.380000e+00
  SP1h  C1vq  1 4.300000e-01    2.530000e+00
  SP1h  C2vq  1 4.300000e-01    2.770000e+00
  SP1h  C3vq  1 4.300000e-01    2.770000e+00
  SP1h  C4vq  1 4.300000e-01    2.920000e+00
  SP1h  C5vq  1 4.300000e-01    3.160000e+00
  SP1h  C6vq  1 4.300000e-01    3.380000e+00
  SP1h  N1aq  1 4.300000e-01    3.380000e+00
  SP1h  N2aq  1 4.300000e-01    3.380000e+00
  SP1h  N3aq  1 4.300000e-01    3.380000e+00
  SP1h  N4aq  1 4.300000e-01    3.770000e+00
  SP1h  N5aq  1 4.300000e-01    3.770000e+00
  SP1h  N6aq  1 4.300000e-01    3.970000e+00
  SP1h  P1aq  1 4.300000e-01    3.970000e+00
 SP2aq   P1h  1 4.300000e-01    3.970000e+00
 SP3aq   P1h  1 4.300000e-01    3.970000e+00
 SP4aq   P1h  1 4.300000e-01    3.970000e+00
 SP5aq   P1h  1 4.300000e-01    3.970000e+00
 SP6aq   P1h  1 4.300000e-01    4.170000e+00
  SP1h  N1dq  1 4.300000e-01    3.380000e+00
  SP1h  N2dq  1 4.300000e-01    3.380000e+00
  SP1h  N3dq  1 4.300000e-01    3.380000e+00
  SP1h  N4dq  1 4.300000e-01    3.770000e+00
  SP1h  N5dq  1 4.300000e-01    3.770000e+00
  SP1h  N6dq  1 4.300000e-01    3.970000e+00
  SP1h  P1dq  1 4.300000e-01    3.970000e+00
 SP2dq   P1h  1 4.300000e-01    3.970000e+00
 SP3dq   P1h  1 4.300000e-01    3.970000e+00
 SP4dq   P1h  1 4.300000e-01    3.970000e+00
 SP5dq   P1h  1 4.300000e-01    3.970000e+00
 SP6dq   P1h  1 4.300000e-01    4.170000e+00
  SP1h   X1q  1 4.300000e-01    2.770000e+00
  SP1h   X2q  1 4.300000e-01    2.920000e+00
  SP1h   X3q  1 4.300000e-01    3.160000e+00
  SP1h   X4q  1 4.300000e-01    3.160000e+00
  SP1h   C1q  1 4.300000e-01    2.320000e+00
  SP1h   C2q  1 4.300000e-01    2.530000e+00
  SP1h   C3q  1 4.300000e-01    2.530000e+00
  SP1h   C4q  1 4.300000e-01    2.770000e+00
  SP1h   C5q  1 4.300000e-01    2.920000e+00
  SP1h   C6q  1 4.300000e-01    3.160000e+00
  SP1h   N1q  1 4.300000e-01    3.380000e+00
  SP1h   N2q  1 4.300000e-01    3.380000e+00
  SP1h   N3q  1 4.300000e-01    3.380000e+00
  SP1h   N4q  1 4.300000e-01    3.770000e+00
  SP1h   N5q  1 4.300000e-01    3.770000e+00
  SP1h   N6q  1 4.300000e-01    3.970000e+00
  SP6d   N6h  1 4.300000e-01    3.590000e+00
  SP5d   N6h  1 4.300000e-01    3.380000e+00
  SP4d   N6h  1 4.300000e-01    3.380000e+00
  SP3d   N6h  1 4.300000e-01    3.380000e+00
  SP2d   N6h  1 4.300000e-01    3.590000e+00
  SP1d   N6h  1 4.300000e-01    3.590000e+00
  SN6h   N6d  1 4.300000e-01    3.590000e+00
  SN6h   N1d  1 4.300000e-01    2.920000e+00
  SN6h   N2d  1 4.300000e-01    2.920000e+00
  SN6h   N3d  1 4.300000e-01    3.160000e+00
  SN6h   N4d  1 4.300000e-01    3.590000e+00
  SN6h   N5d  1 4.300000e-01    3.590000e+00
  SP6a   N6h  1 4.300000e-01    3.590000e+00
  SP5a   N6h  1 4.300000e-01    3.380000e+00
  SP4a   N6h  1 4.300000e-01    3.380000e+00
  SP3a   N6h  1 4.300000e-01    3.380000e+00
  SP2a   N6h  1 4.300000e-01    3.590000e+00
  SP1a   N6h  1 4.300000e-01    3.590000e+00
  SN6h   N6a  1 4.300000e-01    3.590000e+00
  SN6h   N1a  1 4.300000e-01    2.920000e+00
  SN6h   N2a  1 4.300000e-01    2.920000e+00
  SN6h   N3a  1 4.300000e-01    3.160000e+00
  SN6h   N4a  1 4.300000e-01    3.590000e+00
  SN6h   N5a  1 4.300000e-01    3.590000e+00
  SN6h   C6v  1 4.300000e-01    3.160000e+00
  SN6h   C5v  1 4.300000e-01    2.920000e+00
  SN6h   C4v  1 4.300000e-01    2.770000e+00
  SN6h   C3v  1 4.300000e-01    2.530000e+00
  SN6h   C2v  1 4.300000e-01    2.530000e+00
  SN6h   C1v  1 4.300000e-01    2.320000e+00
  SN6h   X4v  1 4.300000e-01    3.160000e+00
  SN6h   X3v  1 4.300000e-01    2.920000e+00
  SN6h   X2v  1 4.300000e-01    2.770000e+00
  SN6h   X1v  1 4.300000e-01    2.530000e+00
  SN6h   C6e  1 4.300000e-01    3.160000e+00
  SN6h   C5e  1 4.300000e-01    2.920000e+00
  SN6h   C4e  1 4.300000e-01    2.770000e+00
  SN6h   C3e  1 4.300000e-01    2.530000e+00
  SN6h   C2e  1 4.300000e-01    2.530000e+00
  SN6h   C1e  1 4.300000e-01    2.320000e+00
  SN6h   X4e  1 4.300000e-01    3.160000e+00
  SN6h   X3e  1 4.300000e-01    2.920000e+00
  SN6h   X2e  1 4.300000e-01    2.770000e+00
  SN6h   X1e  1 4.300000e-01    2.530000e+00
  SP6q   N6h  1 4.300000e-01    3.970000e+00
  SP5q   N6h  1 4.300000e-01    3.770000e+00
  SP4q   N6h  1 4.300000e-01    3.770000e+00
  SP3q   N6h  1 4.300000e-01    3.770000e+00
  SP2q   N6h  1 4.300000e-01    3.970000e+00
  SP1q   N6h  1 4.300000e-01    3.970000e+00
  SN6h   N6q  1 4.300000e-01    3.970000e+00
  SN6h  X1eq  1 4.300000e-01    2.920000e+00
  SN6h  X2eq  1 4.300000e-01    3.160000e+00
  SN6h  X3eq  1 4.300000e-01    3.380000e+00
  SN6h  X4eq  1 4.300000e-01    3.590000e+00
  SN6h  C1eq  1 4.300000e-01    2.770000e+00
  SN6h  C2eq  1 4.300000e-01    2.920000e+00
  SN6h  C3eq  1 4.300000e-01    2.920000e+00
  SN6h  C4eq  1 4.300000e-01    3.160000e+00
  SN6h  C5eq  1 4.300000e-01    3.380000e+00
  SN6h  C6eq  1 4.300000e-01    3.590000e+00
  SN6h  X1vq  1 4.300000e-01    2.920000e+00
  SN6h  X2vq  1 4.300000e-01    3.160000e+00
  SN6h  X3vq  1 4.300000e-01    3.380000e+00
  SN6h  X4vq  1 4.300000e-01    3.590000e+00
  SN6h  C1vq  1 4.300000e-01    2.770000e+00
  SN6h  C2vq  1 4.300000e-01    2.920000e+00
  SN6h  C3vq  1 4.300000e-01    2.920000e+00
  SN6h  C4vq  1 4.300000e-01    3.160000e+00
  SN6h  C5vq  1 4.300000e-01    3.380000e+00
  SN6h  C6vq  1 4.300000e-01    3.590000e+00
  SN6h  N1aq  1 4.300000e-01    3.380000e+00
  SN6h  N2aq  1 4.300000e-01    3.380000e+00
  SN6h  N3aq  1 4.300000e-01    3.590000e+00
  SN6h  N4aq  1 4.300000e-01    3.970000e+00
  SN6h  N5aq  1 4.300000e-01    3.970000e+00
  SN6h  N6aq  1 4.300000e-01    3.970000e+00
 SP1aq   N6h  1 4.300000e-01    3.970000e+00
 SP2aq   N6h  1 4.300000e-01    3.970000e+00
 SP3aq   N6h  1 4.300000e-01    3.770000e+00
 SP4aq   N6h  1 4.300000e-01    3.770000e+00
 SP5aq   N6h  1 4.300000e-01    3.770000e+00
 SP6aq   N6h  1 4.300000e-01    3.970000e+00
  SN6h  N1dq  1 4.300000e-01    3.380000e+00
  SN6h  N2dq  1 4.300000e-01    3.380000e+00
  SN6h  N3dq  1 4.300000e-01    3.590000e+00
  SN6h  N4dq  1 4.300000e-01    3.970000e+00
  SN6h  N5dq  1 4.300000e-01    3.970000e+00
  SN6h  N6dq  1 4.300000e-01    3.970000e+00
 SP1dq   N6h  1 4.300000e-01    3.970000e+00
 SP2dq   N6h  1 4.300000e-01    3.970000e+00
 SP3dq   N6h  1 4.300000e-01    3.770000e+00
 SP4dq   N6h  1 4.300000e-01    3.770000e+00
 SP5dq   N6h  1 4.300000e-01    3.770000e+00
 SP6dq   N6h  1 4.300000e-01    3.970000e+00
  SN6h   X1q  1 4.300000e-01    2.770000e+00
  SN6h   X2q  1 4.300000e-01    2.920000e+00
  SN6h   X3q  1 4.300000e-01    3.160000e+00
  SN6h   X4q  1 4.300000e-01    3.380000e+00
  SN6h   C1q  1 4.300000e-01    2.530000e+00
  SN6h   C2q  1 4.300000e-01    2.770000e+00
  SN6h   C3q  1 4.300000e-01    2.770000e+00
  SN6h   C4q  1 4.300000e-01    2.920000e+00
  SN6h   C5q  1 4.300000e-01    3.160000e+00
  SN6h   C6q  1 4.300000e-01    3.380000e+00
  SN6h   N1q  1 4.300000e-01    3.380000e+00
  SN6h   N2q  1 4.300000e-01    3.380000e+00
  SN6h   N3q  1 4.300000e-01    3.590000e+00
  SN6h   N4q  1 4.300000e-01    3.970000e+00
  SN6h   N5q  1 4.300000e-01    3.970000e+00
  SP6d   N5h  1 4.300000e-01    3.160000e+00
  SP5d   N5h  1 4.300000e-01    3.160000e+00
  SP4d   N5h  1 4.300000e-01    3.160000e+00
  SP3d   N5h  1 4.300000e-01    3.160000e+00
  SP2d   N5h  1 4.300000e-01    3.380000e+00
  SP1d   N5h  1 4.300000e-01    3.380000e+00
  SN6d   N5h  1 4.300000e-01    3.590000e+00
  SN5h   N5d  1 4.300000e-01    3.380000e+00
  SN5h   N1d  1 4.300000e-01    2.920000e+00
  SN5h   N2d  1 4.300000e-01    3.160000e+00
  SN5h   N3d  1 4.300000e-01    3.160000e+00
  SN5h   N4d  1 4.300000e-01    3.380000e+00
  SP6a   N5h  1 4.300000e-01    3.160000e+00
  SP5a   N5h  1 4.300000e-01    3.160000e+00
  SP4a   N5h  1 4.300000e-01    3.160000e+00
  SP3a   N5h  1 4.300000e-01    3.160000e+00
  SP2a   N5h  1 4.300000e-01    3.380000e+00
  SP1a   N5h  1 4.300000e-01    3.380000e+00
  SN6a   N5h  1 4.300000e-01    3.590000e+00
  SN5h   N5a  1 4.300000e-01    3.380000e+00
  SN5h   N1a  1 4.300000e-01    2.920000e+00
  SN5h   N2a  1 4.300000e-01    3.160000e+00
  SN5h   N3a  1 4.300000e-01    3.160000e+00
  SN5h   N4a  1 4.300000e-01    3.380000e+00
  SN5h   C6v  1 4.300000e-01    3.160000e+00
  SN5h   C5v  1 4.300000e-01    2.920000e+00
  SN5h   C4v  1 4.300000e-01    2.770000e+00
  SN5h   C3v  1 4.300000e-01    2.770000e+00
  SN5h   C2v  1 4.300000e-01    2.530000e+00
  SN5h   C1v  1 4.300000e-01    2.320000e+00
  SN5h   X4v  1 4.300000e-01    3.380000e+00
  SN5h   X3v  1 4.300000e-01    3.160000e+00
  SN5h   X2v  1 4.300000e-01    2.920000e+00
  SN5h   X1v  1 4.300000e-01    2.770000e+00
  SN5h   C6e  1 4.300000e-01    3.160000e+00
  SN5h   C5e  1 4.300000e-01    2.920000e+00
  SN5h   C4e  1 4.300000e-01    2.770000e+00
  SN5h   C3e  1 4.300000e-01    2.770000e+00
  SN5h   C2e  1 4.300000e-01    2.530000e+00
  SN5h   C1e  1 4.300000e-01    2.320000e+00
  SN5h   X4e  1 4.300000e-01    3.380000e+00
  SN5h   X3e  1 4.300000e-01    3.160000e+00
  SN5h   X2e  1 4.300000e-01    2.920000e+00
  SN5h   X1e  1 4.300000e-01    2.770000e+00
  SP6q   N5h  1 4.300000e-01    3.590000e+00
  SP5q   N5h  1 4.300000e-01    3.590000e+00
  SP4q   N5h  1 4.300000e-01    3.590000e+00
  SP3q   N5h  1 4.300000e-01    3.590000e+00
  SP2q   N5h  1 4.300000e-01    3.770000e+00
  SP1q   N5h  1 4.300000e-01    3.770000e+00
  SN6q   N5h  1 4.300000e-01    3.970000e+00
  SN5h   N5q  1 4.300000e-01    3.770000e+00
  SN5h  X1eq  1 4.300000e-01    3.160000e+00
  SN5h  X2eq  1 4.300000e-01    3.380000e+00
  SN5h  X3eq  1 4.300000e-01    3.590000e+00
  SN5h  X4eq  1 4.300000e-01    3.770000e+00
  SN5h  C1eq  1 4.300000e-01    2.770000e+00
  SN5h  C2eq  1 4.300000e-01    2.920000e+00
  SN5h  C3eq  1 4.300000e-01    3.160000e+00
  SN5h  C4eq  1 4.300000e-01    3.160000e+00
  SN5h  C5eq  1 4.300000e-01    3.380000e+00
  SN5h  C6eq  1 4.300000e-01    3.590000e+00
  SN5h  X1vq  1 4.300000e-01    3.160000e+00
  SN5h  X2vq  1 4.300000e-01    3.380000e+00
  SN5h  X3vq  1 4.300000e-01    3.590000e+00
  SN5h  X4vq  1 4.300000e-01    3.770000e+00
  SN5h  C1vq  1 4.300000e-01    2.770000e+00
  SN5h  C2vq  1 4.300000e-01    2.920000e+00
  SN5h  C3vq  1 4.300000e-01    3.160000e+00
  SN5h  C4vq  1 4.300000e-01    3.160000e+00
  SN5h  C5vq  1 4.300000e-01    3.380000e+00
  SN5h  C6vq  1 4.300000e-01    3.590000e+00
  SN5h  N1aq  1 4.300000e-01    3.380000e+00
  SN5h  N2aq  1 4.300000e-01    3.590000e+00
  SN5h  N3aq  1 4.300000e-01    3.590000e+00
  SN5h  N4aq  1 4.300000e-01    3.770000e+00
  SN5h  N5aq  1 4.300000e-01    3.770000e+00
 SN6aq   N5h  1 4.300000e-01    3.970000e+00
 SP1aq   N5h  1 4.300000e-01    3.770000e+00
 SP2aq   N5h  1 4.300000e-01    3.770000e+00
 SP3aq   N5h  1 4.300000e-01    3.590000e+00
 SP4aq   N5h  1 4.300000e-01    3.590000e+00
 SP5aq   N5h  1 4.300000e-01    3.590000e+00
 SP6aq   N5h  1 4.300000e-01    3.590000e+00
  SN5h  N1dq  1 4.300000e-01    3.380000e+00
  SN5h  N2dq  1 4.300000e-01    3.590000e+00
  SN5h  N3dq  1 4.300000e-01    3.590000e+00
  SN5h  N4dq  1 4.300000e-01    3.770000e+00
  SN5h  N5dq  1 4.300000e-01    3.770000e+00
 SN6dq   N5h  1 4.300000e-01    3.970000e+00
 SP1dq   N5h  1 4.300000e-01    3.770000e+00
 SP2dq   N5h  1 4.300000e-01    3.770000e+00
 SP3dq   N5h  1 4.300000e-01    3.590000e+00
 SP4dq   N5h  1 4.300000e-01    3.590000e+00
 SP5dq   N5h  1 4.300000e-01    3.590000e+00
 SP6dq   N5h  1 4.300000e-01    3.590000e+00
  SN5h   X1q  1 4.300000e-01    2.920000e+00
  SN5h   X2q  1 4.300000e-01    3.160000e+00
  SN5h   X3q  1 4.300000e-01    3.380000e+00
  SN5h   X4q  1 4.300000e-01    3.590000e+00
  SN5h   C1q  1 4.300000e-01    2.530000e+00
  SN5h   C2q  1 4.300000e-01    2.770000e+00
  SN5h   C3q  1 4.300000e-01    2.920000e+00
  SN5h   C4q  1 4.300000e-01    2.920000e+00
  SN5h   C5q  1 4.300000e-01    3.160000e+00
  SN5h   C6q  1 4.300000e-01    3.380000e+00
  SN5h   N1q  1 4.300000e-01    3.380000e+00
  SN5h   N2q  1 4.300000e-01    3.590000e+00
  SN5h   N3q  1 4.300000e-01    3.590000e+00
  SN5h   N4q  1 4.300000e-01    3.770000e+00
  SP6d   N4h  1 4.300000e-01    2.920000e+00
  SP5d   N4h  1 4.300000e-01    3.160000e+00
  SP4d   N4h  1 4.300000e-01    3.160000e+00
  SP3d   N4h  1 4.300000e-01    3.160000e+00
  SP2d   N4h  1 4.300000e-01    3.160000e+00
  SP1d   N4h  1 4.300000e-01    3.380000e+00
  SN6d   N4h  1 4.300000e-01    3.590000e+00
  SN5d   N4h  1 4.300000e-01    3.380000e+00
  SN4h   N4d  1 4.300000e-01    3.380000e+00
  SN4h   N1d  1 4.300000e-01    2.920000e+00
  SN4h   N2d  1 4.300000e-01    3.160000e+00
  SN4h   N3d  1 4.300000e-01    3.160000e+00
  SP6a   N4h  1 4.300000e-01    2.920000e+00
  SP5a   N4h  1 4.300000e-01    3.160000e+00
  SP4a   N4h  1 4.300000e-01    3.160000e+00
  SP3a   N4h  1 4.300000e-01    3.160000e+00
  SP2a   N4h  1 4.300000e-01    3.160000e+00
  SP1a   N4h  1 4.300000e-01    3.380000e+00
  SN6a   N4h  1 4.300000e-01    3.590000e+00
  SN5a   N4h  1 4.300000e-01    3.380000e+00
  SN4h   N4a  1 4.300000e-01    3.380000e+00
  SN4h   N1a  1 4.300000e-01    2.920000e+00
  SN4h   N2a  1 4.300000e-01    3.160000e+00
  SN4h   N3a  1 4.300000e-01    3.160000e+00
  SN4h   C6v  1 4.300000e-01    3.160000e+00
  SN4h   C5v  1 4.300000e-01    2.920000e+00
  SN4h   C4v  1 4.300000e-01    2.920000e+00
  SN4h   C3v  1 4.300000e-01    2.770000e+00
  SN4h   C2v  1 4.300000e-01    2.530000e+00
  SN4h   C1v  1 4.300000e-01    2.320000e+00
  SN4h   X4v  1 4.300000e-01    3.590000e+00
  SN4h   X3v  1 4.300000e-01    3.380000e+00
  SN4h   X2v  1 4.300000e-01    2.920000e+00
  SN4h   X1v  1 4.300000e-01    2.770000e+00
  SN4h   C6e  1 4.300000e-01    3.160000e+00
  SN4h   C5e  1 4.300000e-01    2.920000e+00
  SN4h   C4e  1 4.300000e-01    2.920000e+00
  SN4h   C3e  1 4.300000e-01    2.770000e+00
  SN4h   C2e  1 4.300000e-01    2.530000e+00
  SN4h   C1e  1 4.300000e-01    2.320000e+00
  SN4h   X4e  1 4.300000e-01    3.590000e+00
  SN4h   X3e  1 4.300000e-01    3.380000e+00
  SN4h   X2e  1 4.300000e-01    2.920000e+00
  SN4h   X1e  1 4.300000e-01    2.770000e+00
  SP6q   N4h  1 4.300000e-01    3.380000e+00
  SP5q   N4h  1 4.300000e-01    3.590000e+00
  SP4q   N4h  1 4.300000e-01    3.590000e+00
  SP3q   N4h  1 4.300000e-01    3.590000e+00
  SP2q   N4h  1 4.300000e-01    3.590000e+00
  SP1q   N4h  1 4.300000e-01    3.770000e+00
  SN6q   N4h  1 4.300000e-01    3.970000e+00
  SN5q   N4h  1 4.300000e-01    3.770000e+00
  SN4h   N4q  1 4.300000e-01    3.770000e+00
  SN4h  X1eq  1 4.300000e-01    3.160000e+00
  SN4h  X2eq  1 4.300000e-01    3.380000e+00
  SN4h  X3eq  1 4.300000e-01    3.770000e+00
  SN4h  X4eq  1 4.300000e-01    3.970000e+00
  SN4h  C1eq  1 4.300000e-01    2.770000e+00
  SN4h  C2eq  1 4.300000e-01    2.920000e+00
  SN4h  C3eq  1 4.300000e-01    3.160000e+00
  SN4h  C4eq  1 4.300000e-01    3.380000e+00
  SN4h  C5eq  1 4.300000e-01    3.380000e+00
  SN4h  C6eq  1 4.300000e-01    3.590000e+00
  SN4h  X1vq  1 4.300000e-01    3.160000e+00
  SN4h  X2vq  1 4.300000e-01    3.380000e+00
  SN4h  X3vq  1 4.300000e-01    3.770000e+00
  SN4h  X4vq  1 4.300000e-01    3.970000e+00
  SN4h  C1vq  1 4.300000e-01    2.770000e+00
  SN4h  C2vq  1 4.300000e-01    2.920000e+00
  SN4h  C3vq  1 4.300000e-01    3.160000e+00
  SN4h  C4vq  1 4.300000e-01    3.380000e+00
  SN4h  C5vq  1 4.300000e-01    3.380000e+00
  SN4h  C6vq  1 4.300000e-01    3.590000e+00
  SN4h  N1aq  1 4.300000e-01    3.380000e+00
  SN4h  N2aq  1 4.300000e-01    3.590000e+00
  SN4h  N3aq  1 4.300000e-01    3.590000e+00
  SN4h  N4aq  1 4.300000e-01    3.770000e+00
 SN5aq   N4h  1 4.300000e-01    3.770000e+00
 SN6aq   N4h  1 4.300000e-01    3.970000e+00
 SP1aq   N4h  1 4.300000e-01    3.770000e+00
 SP2aq   N4h  1 4.300000e-01    3.590000e+00
 SP3aq   N4h  1 4.300000e-01    3.590000e+00
 SP4aq   N4h  1 4.300000e-01    3.590000e+00
 SP5aq   N4h  1 4.300000e-01    3.590000e+00
 SP6aq   N4h  1 4.300000e-01    3.380000e+00
  SN4h  N1dq  1 4.300000e-01    3.380000e+00
  SN4h  N2dq  1 4.300000e-01    3.590000e+00
  SN4h  N3dq  1 4.300000e-01    3.590000e+00
  SN4h  N4dq  1 4.300000e-01    3.770000e+00
 SN5dq   N4h  1 4.300000e-01    3.770000e+00
 SN6dq   N4h  1 4.300000e-01    3.970000e+00
 SP1dq   N4h  1 4.300000e-01    3.770000e+00
 SP2dq   N4h  1 4.300000e-01    3.590000e+00
 SP3dq   N4h  1 4.300000e-01    3.590000e+00
 SP4dq   N4h  1 4.300000e-01    3.590000e+00
 SP5dq   N4h  1 4.300000e-01    3.590000e+00
 SP6dq   N4h  1 4.300000e-01    3.380000e+00
  SN4h   X1q  1 4.300000e-01    2.920000e+00
  SN4h   X2q  1 4.300000e-01    3.160000e+00
  SN4h   X3q  1 4.300000e-01    3.590000e+00
  SN4h   X4q  1 4.300000e-01    3.770000e+00
  SN4h   C1q  1 4.300000e-01    2.530000e+00
  SN4h   C2q  1 4.300000e-01    2.770000e+00
  SN4h   C3q  1 4.300000e-01    2.920000e+00
  SN4h   C4q  1 4.300000e-01    3.160000e+00
  SN4h   C5q  1 4.300000e-01    3.160000e+00
  SN4h   C6q  1 4.300000e-01    3.380000e+00
  SN4h   N1q  1 4.300000e-01    3.380000e+00
  SN4h   N2q  1 4.300000e-01    3.590000e+00
  SN4h   N3q  1 4.300000e-01    3.590000e+00
  SP6d   N3h  1 4.300000e-01    2.770000e+00
  SP5d   N3h  1 4.300000e-01    2.770000e+00
  SP4d   N3h  1 4.300000e-01    2.920000e+00
  SP3d   N3h  1 4.300000e-01    2.920000e+00
  SP2d   N3h  1 4.300000e-01    2.920000e+00
  SP1d   N3h  1 4.300000e-01    2.920000e+00
  SN6d   N3h  1 4.300000e-01    3.160000e+00
  SN5d   N3h  1 4.300000e-01    3.160000e+00
  SN4d   N3h  1 4.300000e-01    3.160000e+00
  SN3h   N3d  1 4.300000e-01    3.160000e+00
  SN3h   N1d  1 4.300000e-01    2.920000e+00
  SN3h   N2d  1 4.300000e-01    3.160000e+00
  SP6a   N3h  1 4.300000e-01    2.770000e+00
  SP5a   N3h  1 4.300000e-01    2.770000e+00
  SP4a   N3h  1 4.300000e-01    2.920000e+00
  SP3a   N3h  1 4.300000e-01    2.920000e+00
  SP2a   N3h  1 4.300000e-01    2.920000e+00
  SP1a   N3h  1 4.300000e-01    2.920000e+00
  SN6a   N3h  1 4.300000e-01    3.160000e+00
  SN5a   N3h  1 4.300000e-01    3.160000e+00
  SN4a   N3h  1 4.300000e-01    3.160000e+00
  SN3h   N3a  1 4.300000e-01    3.160000e+00
  SN3h   N1a  1 4.300000e-01    2.920000e+00
  SN3h   N2a  1 4.300000e-01    3.160000e+00
  SN3h   C6v  1 4.300000e-01    3.160000e+00
  SN3h   C5v  1 4.300000e-01    2.920000e+00
  SN3h   C4v  1 4.300000e-01    2.920000e+00
  SN3h   C3v  1 4.300000e-01    2.770000e+00
  SN3h   C2v  1 4.300000e-01    2.770000e+00
  SN3h   C1v  1 4.300000e-01    2.530000e+00
  SN3h   X4v  1 4.300000e-01    3.380000e+00
  SN3h   X3v  1 4.300000e-01    3.160000e+00
  SN3h   X2v  1 4.300000e-01    2.920000e+00
  SN3h   X1v  1 4.300000e-01    2.920000e+00
  SN3h   C6e  1 4.300000e-01    3.160000e+00
  SN3h   C5e  1 4.300000e-01    2.920000e+00
  SN3h   C4e  1 4.300000e-01    2.920000e+00
  SN3h   C3e  1 4.300000e-01    2.770000e+00
  SN3h   C2e  1 4.300000e-01    2.770000e+00
  SN3h   C1e  1 4.300000e-01    2.530000e+00
  SN3h   X4e  1 4.300000e-01    3.380000e+00
  SN3h   X3e  1 4.300000e-01    3.160000e+00
  SN3h   X2e  1 4.300000e-01    2.920000e+00
  SN3h   X1e  1 4.300000e-01    2.920000e+00
  SP6q   N3h  1 4.300000e-01    3.160000e+00
  SP5q   N3h  1 4.300000e-01    3.160000e+00
  SP4q   N3h  1 4.300000e-01    3.380000e+00
  SP3q   N3h  1 4.300000e-01    3.380000e+00
  SP2q   N3h  1 4.300000e-01    3.380000e+00
  SP1q   N3h  1 4.300000e-01    3.380000e+00
  SN6q   N3h  1 4.300000e-01    3.590000e+00
  SN5q   N3h  1 4.300000e-01    3.590000e+00
  SN4q   N3h  1 4.300000e-01    3.590000e+00
  SN3h   N3q  1 4.300000e-01    3.590000e+00
  SN3h  X1eq  1 4.300000e-01    3.380000e+00
  SN3h  X2eq  1 4.300000e-01    3.380000e+00
  SN3h  X3eq  1 4.300000e-01    3.590000e+00
  SN3h  X4eq  1 4.300000e-01    3.770000e+00
  SN3h  C1eq  1 4.300000e-01    2.920000e+00
  SN3h  C2eq  1 4.300000e-01    3.160000e+00
  SN3h  C3eq  1 4.300000e-01    3.160000e+00
  SN3h  C4eq  1 4.300000e-01    3.380000e+00
  SN3h  C5eq  1 4.300000e-01    3.380000e+00
  SN3h  C6eq  1 4.300000e-01    3.590000e+00
  SN3h  X1vq  1 4.300000e-01    3.380000e+00
  SN3h  X2vq  1 4.300000e-01    3.380000e+00
  SN3h  X3vq  1 4.300000e-01    3.590000e+00
  SN3h  X4vq  1 4.300000e-01    3.770000e+00
  SN3h  C1vq  1 4.300000e-01    2.920000e+00
  SN3h  C2vq  1 4.300000e-01    3.160000e+00
  SN3h  C3vq  1 4.300000e-01    3.160000e+00
  SN3h  C4vq  1 4.300000e-01    3.380000e+00
  SN3h  C5vq  1 4.300000e-01    3.380000e+00
  SN3h  C6vq  1 4.300000e-01    3.590000e+00
  SN3h  N1aq  1 4.300000e-01    3.380000e+00
  SN3h  N2aq  1 4.300000e-01    3.590000e+00
  SN3h  N3aq  1 4.300000e-01    3.590000e+00
 SN4aq   N3h  1 4.300000e-01    3.590000e+00
 SN5aq   N3h  1 4.300000e-01    3.590000e+00
 SN6aq   N3h  1 4.300000e-01    3.590000e+00
 SP1aq   N3h  1 4.300000e-01    3.380000e+00
 SP2aq   N3h  1 4.300000e-01    3.380000e+00
 SP3aq   N3h  1 4.300000e-01    3.380000e+00
 SP4aq   N3h  1 4.300000e-01    3.380000e+00
 SP5aq   N3h  1 4.300000e-01    3.160000e+00
 SP6aq   N3h  1 4.300000e-01    3.160000e+00
  SN3h  N1dq  1 4.300000e-01    3.380000e+00
  SN3h  N2dq  1 4.300000e-01    3.590000e+00
  SN3h  N3dq  1 4.300000e-01    3.590000e+00
 SN4dq   N3h  1 4.300000e-01    3.590000e+00
 SN5dq   N3h  1 4.300000e-01    3.590000e+00
 SN6dq   N3h  1 4.300000e-01    3.590000e+00
 SP1dq   N3h  1 4.300000e-01    3.380000e+00
 SP2dq   N3h  1 4.300000e-01    3.380000e+00
 SP3dq   N3h  1 4.300000e-01    3.380000e+00
 SP4dq   N3h  1 4.300000e-01    3.380000e+00
 SP5dq   N3h  1 4.300000e-01    3.160000e+00
 SP6dq   N3h  1 4.300000e-01    3.160000e+00
  SN3h   X1q  1 4.300000e-01    3.160000e+00
  SN3h   X2q  1 4.300000e-01    3.160000e+00
  SN3h   X3q  1 4.300000e-01    3.380000e+00
  SN3h   X4q  1 4.300000e-01    3.590000e+00
  SN3h   C1q  1 4.300000e-01    2.770000e+00
  SN3h   C2q  1 4.300000e-01    2.920000e+00
  SN3h   C3q  1 4.300000e-01    2.920000e+00
  SN3h   C4q  1 4.300000e-01    3.160000e+00
  SN3h   C5q  1 4.300000e-01    3.160000e+00
  SN3h   C6q  1 4.300000e-01    3.380000e+00
  SN3h   N1q  1 4.300000e-01    3.380000e+00
  SN3h   N2q  1 4.300000e-01    3.590000e+00
  SP6d   N2h  1 4.300000e-01    2.530000e+00
  SP5d   N2h  1 4.300000e-01    2.530000e+00
  SP4d   N2h  1 4.300000e-01    2.770000e+00
  SP3d   N2h  1 4.300000e-01    2.920000e+00
  SP2d   N2h  1 4.300000e-01    2.920000e+00
  SP1d   N2h  1 4.300000e-01    2.920000e+00
  SN6d   N2h  1 4.300000e-01    2.920000e+00
  SN5d   N2h  1 4.300000e-01    3.160000e+00
  SN4d   N2h  1 4.300000e-01    3.160000e+00
  SN3d   N2h  1 4.300000e-01    3.160000e+00
  SN2h   N2d  1 4.300000e-01    3.160000e+00
  SN2h   N1d  1 4.300000e-01    2.920000e+00
  SP6a   N2h  1 4.300000e-01    2.530000e+00
  SP5a   N2h  1 4.300000e-01    2.530000e+00
  SP4a   N2h  1 4.300000e-01    2.770000e+00
  SP3a   N2h  1 4.300000e-01    2.920000e+00
  SP2a   N2h  1 4.300000e-01    2.920000e+00
  SP1a   N2h  1 4.300000e-01    2.920000e+00
  SN6a   N2h  1 4.300000e-01    2.920000e+00
  SN5a   N2h  1 4.300000e-01    3.160000e+00
  SN4a   N2h  1 4.300000e-01    3.160000e+00
  SN3a   N2h  1 4.300000e-01    3.160000e+00
  SN2h   N2a  1 4.300000e-01    3.160000e+00
  SN2h   N1a  1 4.300000e-01    2.920000e+00
  SN2h   C6v  1 4.300000e-01    3.160000e+00
  SN2h   C5v  1 4.300000e-01    2.920000e+00
  SN2h   C4v  1 4.300000e-01    2.920000e+00
  SN2h   C3v  1 4.300000e-01    2.920000e+00
  SN2h   C2v  1 4.300000e-01    2.770000e+00
  SN2h   C1v  1 4.300000e-01    2.530000e+00
  SN2h   X4v  1 4.300000e-01    3.380000e+00
  SN2h   X3v  1 4.300000e-01    3.160000e+00
  SN2h   X2v  1 4.300000e-01    2.920000e+00
  SN2h   X1v  1 4.300000e-01    2.920000e+00
  SN2h   C6e  1 4.300000e-01    3.160000e+00
  SN2h   C5e  1 4.300000e-01    2.920000e+00
  SN2h   C4e  1 4.300000e-01    2.920000e+00
  SN2h   C3e  1 4.300000e-01    2.920000e+00
  SN2h   C2e  1 4.300000e-01    2.770000e+00
  SN2h   C1e  1 4.300000e-01    2.530000e+00
  SN2h   X4e  1 4.300000e-01    3.380000e+00
  SN2h   X3e  1 4.300000e-01    3.160000e+00
  SN2h   X2e  1 4.300000e-01    2.920000e+00
  SN2h   X1e  1 4.300000e-01    2.920000e+00
  SP6q   N2h  1 4.300000e-01    2.920000e+00
  SP5q   N2h  1 4.300000e-01    2.920000e+00
  SP4q   N2h  1 4.300000e-01    3.160000e+00
  SP3q   N2h  1 4.300000e-01    3.380000e+00
  SP2q   N2h  1 4.300000e-01    3.380000e+00
  SP1q   N2h  1 4.300000e-01    3.380000e+00
  SN6q   N2h  1 4.300000e-01    3.380000e+00
  SN5q   N2h  1 4.300000e-01    3.590000e+00
  SN4q   N2h  1 4.300000e-01    3.590000e+00
  SN3q   N2h  1 4.300000e-01    3.590000e+00
  SN2h   N2q  1 4.300000e-01    3.590000e+00
  SN2h  X1eq  1 4.300000e-01    3.380000e+00
  SN2h  X2eq  1 4.300000e-01    3.380000e+00
  SN2h  X3eq  1 4.300000e-01    3.590000e+00
  SN2h  X4eq  1 4.300000e-01    3.770000e+00
  SN2h  C1eq  1 4.300000e-01    2.920000e+00
  SN2h  C2eq  1 4.300000e-01    3.160000e+00
  SN2h  C3eq  1 4.300000e-01    3.380000e+00
  SN2h  C4eq  1 4.300000e-01    3.380000e+00
  SN2h  C5eq  1 4.300000e-01    3.380000e+00
  SN2h  C6eq  1 4.300000e-01    3.590000e+00
  SN2h  X1vq  1 4.300000e-01    3.380000e+00
  SN2h  X2vq  1 4.300000e-01    3.380000e+00
  SN2h  X3vq  1 4.300000e-01    3.590000e+00
  SN2h  X4vq  1 4.300000e-01    3.770000e+00
  SN2h  C1vq  1 4.300000e-01    2.920000e+00
  SN2h  C2vq  1 4.300000e-01    3.160000e+00
  SN2h  C3vq  1 4.300000e-01    3.380000e+00
  SN2h  C4vq  1 4.300000e-01    3.380000e+00
  SN2h  C5vq  1 4.300000e-01    3.380000e+00
  SN2h  C6vq  1 4.300000e-01    3.590000e+00
  SN2h  N1aq  1 4.300000e-01    3.380000e+00
  SN2h  N2aq  1 4.300000e-01    3.590000e+00
 SN3aq   N2h  1 4.300000e-01    3.590000e+00
 SN4aq   N2h  1 4.300000e-01    3.590000e+00
 SN5aq   N2h  1 4.300000e-01    3.590000e+00
 SN6aq   N2h  1 4.300000e-01    3.380000e+00
 SP1aq   N2h  1 4.300000e-01    3.380000e+00
 SP2aq   N2h  1 4.300000e-01    3.380000e+00
 SP3aq   N2h  1 4.300000e-01    3.380000e+00
 SP4aq   N2h  1 4.300000e-01    3.160000e+00
 SP5aq   N2h  1 4.300000e-01    2.920000e+00
 SP6aq   N2h  1 4.300000e-01    2.920000e+00
  SN2h  N1dq  1 4.300000e-01    3.380000e+00
  SN2h  N2dq  1 4.300000e-01    3.590000e+00
 SN3dq   N2h  1 4.300000e-01    3.590000e+00
 SN4dq   N2h  1 4.300000e-01    3.590000e+00
 SN5dq   N2h  1 4.300000e-01    3.590000e+00
 SN6dq   N2h  1 4.300000e-01    3.380000e+00
 SP1dq   N2h  1 4.300000e-01    3.380000e+00
 SP2dq   N2h  1 4.300000e-01    3.380000e+00
 SP3dq   N2h  1 4.300000e-01    3.380000e+00
 SP4dq   N2h  1 4.300000e-01    3.160000e+00
 SP5dq   N2h  1 4.300000e-01    2.920000e+00
 SP6dq   N2h  1 4.300000e-01    2.920000e+00
  SN2h   X1q  1 4.300000e-01    3.160000e+00
  SN2h   X2q  1 4.300000e-01    3.160000e+00
  SN2h   X3q  1 4.300000e-01    3.380000e+00
  SN2h   X4q  1 4.300000e-01    3.590000e+00
  SN2h   C1q  1 4.300000e-01    2.770000e+00
  SN2h   C2q  1 4.300000e-01    2.920000e+00
  SN2h   C3q  1 4.300000e-01    3.160000e+00
  SN2h   C4q  1 4.300000e-01    3.160000e+00
  SN2h   C5q  1 4.300000e-01    3.160000e+00
  SN2h   C6q  1 4.300000e-01    3.380000e+00
  SN2h   N1q  1 4.300000e-01    3.380000e+00
  SP6d   N1h  1 4.300000e-01    2.320000e+00
  SP5d   N1h  1 4.300000e-01    2.320000e+00
  SP4d   N1h  1 4.300000e-01    2.530000e+00
  SP3d   N1h  1 4.300000e-01    2.770000e+00
  SP2d   N1h  1 4.300000e-01    2.920000e+00
  SP1d   N1h  1 4.300000e-01    2.920000e+00
  SN6d   N1h  1 4.300000e-01    2.920000e+00
  SN5d   N1h  1 4.300000e-01    2.920000e+00
  SN4d   N1h  1 4.300000e-01    2.920000e+00
  SN3d   N1h  1 4.300000e-01    2.920000e+00
  SN2d   N1h  1 4.300000e-01    2.920000e+00
  SN1h   N1d  1 4.300000e-01    3.160000e+00
  SP6a   N1h  1 4.300000e-01    2.320000e+00
  SP5a   N1h  1 4.300000e-01    2.320000e+00
  SP4a   N1h  1 4.300000e-01    2.530000e+00
  SP3a   N1h  1 4.300000e-01    2.770000e+00
  SP2a   N1h  1 4.300000e-01    2.920000e+00
  SP1a   N1h  1 4.300000e-01    2.920000e+00
  SN6a   N1h  1 4.300000e-01    2.920000e+00
  SN5a   N1h  1 4.300000e-01    2.920000e+00
  SN4a   N1h  1 4.300000e-01    2.920000e+00
  SN3a   N1h  1 4.300000e-01    2.920000e+00
  SN2a   N1h  1 4.300000e-01    2.920000e+00
  SN1h   N1a  1 4.300000e-01    3.160000e+00
  SN1h   C6v  1 4.300000e-01    3.380000e+00
  SN1h   C5v  1 4.300000e-01    3.160000e+00
  SN1h   C4v  1 4.300000e-01    3.160000e+00
  SN1h   C3v  1 4.300000e-01    2.920000e+00
  SN1h   C2v  1 4.300000e-01    2.770000e+00
  SN1h   C1v  1 4.300000e-01    2.530000e+00
  SN1h   X4v  1 4.300000e-01    3.160000e+00
  SN1h   X3v  1 4.300000e-01    3.160000e+00
  SN1h   X2v  1 4.300000e-01    2.920000e+00
  SN1h   X1v  1 4.300000e-01    2.920000e+00
  SN1h   C6e  1 4.300000e-01    3.380000e+00
  SN1h   C5e  1 4.300000e-01    3.160000e+00
  SN1h   C4e  1 4.300000e-01    3.160000e+00
  SN1h   C3e  1 4.300000e-01    2.920000e+00
  SN1h   C2e  1 4.300000e-01    2.770000e+00
  SN1h   C1e  1 4.300000e-01    2.530000e+00
  SN1h   X4e  1 4.300000e-01    3.160000e+00
  SN1h   X3e  1 4.300000e-01    3.160000e+00
  SN1h   X2e  1 4.300000e-01    2.920000e+00
  SN1h   X1e  1 4.300000e-01    2.920000e+00
  SP6q   N1h  1 4.300000e-01    2.770000e+00
  SP5q   N1h  1 4.300000e-01    2.770000e+00
  SP4q   N1h  1 4.300000e-01    2.920000e+00
  SP3q   N1h  1 4.300000e-01    3.160000e+00
  SP2q   N1h  1 4.300000e-01    3.380000e+00
  SP1q   N1h  1 4.300000e-01    3.380000e+00
  SN6q   N1h  1 4.300000e-01    3.380000e+00
  SN5q   N1h  1 4.300000e-01    3.380000e+00
  SN4q   N1h  1 4.300000e-01    3.380000e+00
  SN3q   N1h  1 4.300000e-01    3.380000e+00
  SN2q   N1h  1 4.300000e-01    3.380000e+00
  SN1h   N1q  1 4.300000e-01    3.590000e+00
  SN1h  X1eq  1 4.300000e-01    3.380000e+00
  SN1h  X2eq  1 4.300000e-01    3.380000e+00
  SN1h  X3eq  1 4.300000e-01    3.590000e+00
  SN1h  X4eq  1 4.300000e-01    3.590000e+00
  SN1h  C1eq  1 4.300000e-01    2.920000e+00
  SN1h  C2eq  1 4.300000e-01    3.160000e+00
  SN1h  C3eq  1 4.300000e-01    3.380000e+00
  SN1h  C4eq  1 4.300000e-01    3.590000e+00
  SN1h  C5eq  1 4.300000e-01    3.590000e+00
  SN1h  C6eq  1 4.300000e-01    3.770000e+00
  SN1h  X1vq  1 4.300000e-01    3.380000e+00
  SN1h  X2vq  1 4.300000e-01    3.380000e+00
  SN1h  X3vq  1 4.300000e-01    3.590000e+00
  SN1h  X4vq  1 4.300000e-01    3.590000e+00
  SN1h  C1vq  1 4.300000e-01    2.920000e+00
  SN1h  C2vq  1 4.300000e-01    3.160000e+00
  SN1h  C3vq  1 4.300000e-01    3.380000e+00
  SN1h  C4vq  1 4.300000e-01    3.590000e+00
  SN1h  C5vq  1 4.300000e-01    3.590000e+00
  SN1h  C6vq  1 4.300000e-01    3.770000e+00
  SN1h  N1aq  1 4.300000e-01    3.590000e+00
 SN2aq   N1h  1 4.300000e-01    3.380000e+00
 SN3aq   N1h  1 4.300000e-01    3.380000e+00
 SN4aq   N1h  1 4.300000e-01    3.380000e+00
 SN5aq   N1h  1 4.300000e-01    3.380000e+00
 SN6aq   N1h  1 4.300000e-01    3.380000e+00
 SP1aq   N1h  1 4.300000e-01    3.380000e+00
 SP2aq   N1h  1 4.300000e-01    3.380000e+00
 SP3aq   N1h  1 4.300000e-01    3.160000e+00
 SP4aq   N1h  1 4.300000e-01    2.920000e+00
 SP5aq   N1h  1 4.300000e-01    2.770000e+00
 SP6aq   N1h  1 4.300000e-01    2.770000e+00
  SN1h  N1dq  1 4.300000e-01    3.590000e+00
 SN2dq   N1h  1 4.300000e-01    3.380000e+00
 SN3dq   N1h  1 4.300000e-01    3.380000e+00
 SN4dq   N1h  1 4.300000e-01    3.380000e+00
 SN5dq   N1h  1 4.300000e-01    3.380000e+00
 SN6dq   N1h  1 4.300000e-01    3.380000e+00
 SP1dq   N1h  1 4.300000e-01    3.380000e+00
 SP2dq   N1h  1 4.300000e-01    3.380000e+00
 SP3dq   N1h  1 4.300000e-01    3.160000e+00
 SP4dq   N1h  1 4.300000e-01    2.920000e+00
 SP5dq   N1h  1 4.300000e-01    2.770000e+00
 SP6dq   N1h  1 4.300000e-01    2.770000e+00
  SN1h   X1q  1 4.300000e-01    3.160000e+00
  SN1h   X2q  1 4.300000e-01    3.160000e+00
  SN1h   X3q  1 4.300000e-01    3.380000e+00
  SN1h   X4q  1 4.300000e-01    3.380000e+00
  SN1h   C1q  1 4.300000e-01    2.770000e+00
  SN1h   C2q  1 4.300000e-01    2.920000e+00
  SN1h   C3q  1 4.300000e-01    3.160000e+00
  SN1h   C4q  1 4.300000e-01    3.380000e+00
  SN1h   C5q  1 4.300000e-01    3.380000e+00
  SN1h   C6q  1 4.300000e-01    3.590000e+00
  SP6d   C6h  1 4.300000e-01    2.320000e+00
  SP5d   C6h  1 4.300000e-01    2.320000e+00
  SP4d   C6h  1 4.300000e-01    2.530000e+00
  SP3d   C6h  1 4.300000e-01    2.770000e+00
  SP2d   C6h  1 4.300000e-01    2.770000e+00
  SP1d   C6h  1 4.300000e-01    2.770000e+00
  SN6d   C6h  1 4.300000e-01    2.920000e+00
  SN5d   C6h  1 4.300000e-01    2.920000e+00
  SN4d   C6h  1 4.300000e-01    2.920000e+00
  SN3d   C6h  1 4.300000e-01    2.920000e+00
  SN2d   C6h  1 4.300000e-01    2.920000e+00
  SN1d   C6h  1 4.300000e-01    3.160000e+00
  SP6a   C6h  1 4.300000e-01    2.320000e+00
  SP5a   C6h  1 4.300000e-01    2.320000e+00
  SP4a   C6h  1 4.300000e-01    2.530000e+00
  SP3a   C6h  1 4.300000e-01    2.770000e+00
  SP2a   C6h  1 4.300000e-01    2.770000e+00
  SP1a   C6h  1 4.300000e-01    2.770000e+00
  SN6a   C6h  1 4.300000e-01    2.920000e+00
  SN5a   C6h  1 4.300000e-01    2.920000e+00
  SN4a   C6h  1 4.300000e-01    2.920000e+00
  SN3a   C6h  1 4.300000e-01    2.920000e+00
  SN2a   C6h  1 4.300000e-01    2.920000e+00
  SN1a   C6h  1 4.300000e-01    3.160000e+00
  SC6h   C6v  1 4.300000e-01    3.380000e+00
  SC6h   X1v  1 4.300000e-01    3.160000e+00
  SC6h   X2v  1 4.300000e-01    3.160000e+00
  SC6h   X3v  1 4.300000e-01    3.160000e+00
  SC6h   X4v  1 4.300000e-01    3.160000e+00
  SC6h   C1v  1 4.300000e-01    2.530000e+00
  SC6h   C2v  1 4.300000e-01    2.770000e+00
  SC6h   C3v  1 4.300000e-01    2.920000e+00
  SC6h   C4v  1 4.300000e-01    3.160000e+00
  SC6h   C5v  1 4.300000e-01    3.160000e+00
  SC6h   C6e  1 4.300000e-01    3.380000e+00
  SC6h   X1e  1 4.300000e-01    3.160000e+00
  SC6h   X2e  1 4.300000e-01    3.160000e+00
  SC6h   X3e  1 4.300000e-01    3.160000e+00
  SC6h   X4e  1 4.300000e-01    3.160000e+00
  SC6h   C1e  1 4.300000e-01    2.530000e+00
  SC6h   C2e  1 4.300000e-01    2.770000e+00
  SC6h   C3e  1 4.300000e-01    2.920000e+00
  SC6h   C4e  1 4.300000e-01    3.160000e+00
  SC6h   C5e  1 4.300000e-01    3.160000e+00
  SP6q   C6h  1 4.300000e-01    2.770000e+00
  SP5q   C6h  1 4.300000e-01    2.770000e+00
  SP4q   C6h  1 4.300000e-01    2.920000e+00
  SP3q   C6h  1 4.300000e-01    3.160000e+00
  SP2q   C6h  1 4.300000e-01    3.160000e+00
  SP1q   C6h  1 4.300000e-01    3.160000e+00
  SN6q   C6h  1 4.300000e-01    3.380000e+00
  SN5q   C6h  1 4.300000e-01    3.380000e+00
  SN4q   C6h  1 4.300000e-01    3.380000e+00
  SN3q   C6h  1 4.300000e-01    3.380000e+00
  SN2q   C6h  1 4.300000e-01    3.380000e+00
  SN1q   C6h  1 4.300000e-01    3.590000e+00
  SC6h   C6q  1 4.300000e-01    3.590000e+00
  SC6h  X1eq  1 4.300000e-01    3.590000e+00
  SC6h  X2eq  1 4.300000e-01    3.590000e+00
  SC6h  X3eq  1 4.300000e-01    3.590000e+00
  SC6h  X4eq  1 4.300000e-01    3.590000e+00
  SC6h  C1eq  1 4.300000e-01    2.920000e+00
  SC6h  C2eq  1 4.300000e-01    3.160000e+00
  SC6h  C3eq  1 4.300000e-01    3.380000e+00
  SC6h  C4eq  1 4.300000e-01    3.590000e+00
  SC6h  C5eq  1 4.300000e-01    3.590000e+00
  SC6h  C6eq  1 4.300000e-01    3.770000e+00
  SC6h  X1vq  1 4.300000e-01    3.590000e+00
  SC6h  X2vq  1 4.300000e-01    3.590000e+00
  SC6h  X3vq  1 4.300000e-01    3.590000e+00
  SC6h  X4vq  1 4.300000e-01    3.590000e+00
  SC6h  C1vq  1 4.300000e-01    2.920000e+00
  SC6h  C2vq  1 4.300000e-01    3.160000e+00
  SC6h  C3vq  1 4.300000e-01    3.380000e+00
  SC6h  C4vq  1 4.300000e-01    3.590000e+00
  SC6h  C5vq  1 4.300000e-01    3.590000e+00
  SC6h  C6vq  1 4.300000e-01    3.770000e+00
 SN1aq   C6h  1 4.300000e-01    3.590000e+00
 SN2aq   C6h  1 4.300000e-01    3.380000e+00
 SN3aq   C6h  1 4.300000e-01    3.380000e+00
 SN4aq   C6h  1 4.300000e-01    3.380000e+00
 SN5aq   C6h  1 4.300000e-01    3.380000e+00
 SN6aq   C6h  1 4.300000e-01    3.380000e+00
 SP1aq   C6h  1 4.300000e-01    3.160000e+00
 SP2aq   C6h  1 4.300000e-01    3.160000e+00
 SP3aq   C6h  1 4.300000e-01    3.160000e+00
 SP4aq   C6h  1 4.300000e-01    2.920000e+00
 SP5aq   C6h  1 4.300000e-01    2.770000e+00
 SP6aq   C6h  1 4.300000e-01    2.770000e+00
 SN1dq   C6h  1 4.300000e-01    3.590000e+00
 SN2dq   C6h  1 4.300000e-01    3.380000e+00
 SN3dq   C6h  1 4.300000e-01    3.380000e+00
 SN4dq   C6h  1 4.300000e-01    3.380000e+00
 SN5dq   C6h  1 4.300000e-01    3.380000e+00
 SN6dq   C6h  1 4.300000e-01    3.380000e+00
 SP1dq   C6h  1 4.300000e-01    3.160000e+00
 SP2dq   C6h  1 4.300000e-01    3.160000e+00
 SP3dq   C6h  1 4.300000e-01    3.160000e+00
 SP4dq   C6h  1 4.300000e-01    2.920000e+00
 SP5dq   C6h  1 4.300000e-01    2.770000e+00
 SP6dq   C6h  1 4.300000e-01    2.770000e+00
  SC6h   X1q  1 4.300000e-01    3.380000e+00
  SC6h   X2q  1 4.300000e-01    3.380000e+00
  SC6h   X3q  1 4.300000e-01    3.380000e+00
  SC6h   X4q  1 4.300000e-01    3.380000e+00
  SC6h   C1q  1 4.300000e-01    2.770000e+00
  SC6h   C2q  1 4.300000e-01    2.920000e+00
  SC6h   C3q  1 4.300000e-01    3.160000e+00
  SC6h   C4q  1 4.300000e-01    3.380000e+00
  SC6h   C5q  1 4.300000e-01    3.380000e+00
  SP6d   C5h  1 4.300000e-01    2.160000e+00
  SP5d   C5h  1 4.300000e-01    2.320000e+00
  SP4d   C5h  1 4.300000e-01    2.320000e+00
  SP3d   C5h  1 4.300000e-01    2.530000e+00
  SP2d   C5h  1 4.300000e-01    2.530000e+00
  SP1d   C5h  1 4.300000e-01    2.530000e+00
  SN6d   C5h  1 4.300000e-01    2.770000e+00
  SN5d   C5h  1 4.300000e-01    2.770000e+00
  SN4d   C5h  1 4.300000e-01    2.770000e+00
  SN3d   C5h  1 4.300000e-01    2.770000e+00
  SN2d   C5h  1 4.300000e-01    2.770000e+00
  SN1d   C5h  1 4.300000e-01    2.920000e+00
  SP6a   C5h  1 4.300000e-01    2.160000e+00
  SP5a   C5h  1 4.300000e-01    2.320000e+00
  SP4a   C5h  1 4.300000e-01    2.320000e+00
  SP3a   C5h  1 4.300000e-01    2.530000e+00
  SP2a   C5h  1 4.300000e-01    2.530000e+00
  SP1a   C5h  1 4.300000e-01    2.530000e+00
  SN6a   C5h  1 4.300000e-01    2.770000e+00
  SN5a   C5h  1 4.300000e-01    2.770000e+00
  SN4a   C5h  1 4.300000e-01    2.770000e+00
  SN3a   C5h  1 4.300000e-01    2.770000e+00
  SN2a   C5h  1 4.300000e-01    2.770000e+00
  SN1a   C5h  1 4.300000e-01    2.920000e+00
  SC6v   C5h  1 4.300000e-01    3.160000e+00
  SC5h   C5v  1 4.300000e-01    3.160000e+00
  SC5h   X1v  1 4.300000e-01    3.160000e+00
  SC5h   X2v  1 4.300000e-01    2.920000e+00
  SC5h   X3v  1 4.300000e-01    2.920000e+00
  SC5h   X4v  1 4.300000e-01    2.920000e+00
  SC5h   C1v  1 4.300000e-01    2.770000e+00
  SC5h   C2v  1 4.300000e-01    2.770000e+00
  SC5h   C3v  1 4.300000e-01    2.920000e+00
  SC5h   C4v  1 4.300000e-01    3.160000e+00
  SC6e   C5h  1 4.300000e-01    3.160000e+00
  SC5h   C5e  1 4.300000e-01    3.160000e+00
  SC5h   X1e  1 4.300000e-01    3.160000e+00
  SC5h   X2e  1 4.300000e-01    2.920000e+00
  SC5h   X3e  1 4.300000e-01    2.920000e+00
  SC5h   X4e  1 4.300000e-01    2.920000e+00
  SC5h   C1e  1 4.300000e-01    2.770000e+00
  SC5h   C2e  1 4.300000e-01    2.770000e+00
  SC5h   C3e  1 4.300000e-01    2.920000e+00
  SC5h   C4e  1 4.300000e-01    3.160000e+00
  SP6q   C5h  1 4.300000e-01    2.530000e+00
  SP5q   C5h  1 4.300000e-01    2.770000e+00
  SP4q   C5h  1 4.300000e-01    2.770000e+00
  SP3q   C5h  1 4.300000e-01    2.920000e+00
  SP2q   C5h  1 4.300000e-01    2.920000e+00
  SP1q   C5h  1 4.300000e-01    2.920000e+00
  SN6q   C5h  1 4.300000e-01    3.160000e+00
  SN5q   C5h  1 4.300000e-01    3.160000e+00
  SN4q   C5h  1 4.300000e-01    3.160000e+00
  SN3q   C5h  1 4.300000e-01    3.160000e+00
  SN2q   C5h  1 4.300000e-01    3.160000e+00
  SN1q   C5h  1 4.300000e-01    3.380000e+00
  SC6q   C5h  1 4.300000e-01    3.380000e+00
  SC5h   C5q  1 4.300000e-01    3.380000e+00
  SC5h  X1eq  1 4.300000e-01    3.590000e+00
  SC5h  X2eq  1 4.300000e-01    3.380000e+00
  SC5h  X3eq  1 4.300000e-01    3.380000e+00
  SC5h  X4eq  1 4.300000e-01    3.380000e+00
  SC5h  C1eq  1 4.300000e-01    3.160000e+00
  SC5h  C2eq  1 4.300000e-01    3.160000e+00
  SC5h  C3eq  1 4.300000e-01    3.380000e+00
  SC5h  C4eq  1 4.300000e-01    3.590000e+00
  SC5h  C5eq  1 4.300000e-01    3.590000e+00
 SC6eq   C5h  1 4.300000e-01    3.590000e+00
  SC5h  X1vq  1 4.300000e-01    3.590000e+00
  SC5h  X2vq  1 4.300000e-01    3.380000e+00
  SC5h  X3vq  1 4.300000e-01    3.380000e+00
  SC5h  X4vq  1 4.300000e-01    3.380000e+00
  SC5h  C1vq  1 4.300000e-01    3.160000e+00
  SC5h  C2vq  1 4.300000e-01    3.160000e+00
  SC5h  C3vq  1 4.300000e-01    3.380000e+00
  SC5h  C4vq  1 4.300000e-01    3.590000e+00
  SC5h  C5vq  1 4.300000e-01    3.590000e+00
 SC6vq   C5h  1 4.300000e-01    3.590000e+00
 SN1aq   C5h  1 4.300000e-01    3.380000e+00
 SN2aq   C5h  1 4.300000e-01    3.160000e+00
 SN3aq   C5h  1 4.300000e-01    3.160000e+00
 SN4aq   C5h  1 4.300000e-01    3.160000e+00
 SN5aq   C5h  1 4.300000e-01    3.160000e+00
 SN6aq   C5h  1 4.300000e-01    3.160000e+00
 SP1aq   C5h  1 4.300000e-01    2.920000e+00
 SP2aq   C5h  1 4.300000e-01    2.920000e+00
 SP3aq   C5h  1 4.300000e-01    2.920000e+00
 SP4aq   C5h  1 4.300000e-01    2.770000e+00
 SP5aq   C5h  1 4.300000e-01    2.770000e+00
 SP6aq   C5h  1 4.300000e-01    2.530000e+00
 SN1dq   C5h  1 4.300000e-01    3.380000e+00
 SN2dq   C5h  1 4.300000e-01    3.160000e+00
 SN3dq   C5h  1 4.300000e-01    3.160000e+00
 SN4dq   C5h  1 4.300000e-01    3.160000e+00
 SN5dq   C5h  1 4.300000e-01    3.160000e+00
 SN6dq   C5h  1 4.300000e-01    3.160000e+00
 SP1dq   C5h  1 4.300000e-01    2.920000e+00
 SP2dq   C5h  1 4.300000e-01    2.920000e+00
 SP3dq   C5h  1 4.300000e-01    2.920000e+00
 SP4dq   C5h  1 4.300000e-01    2.770000e+00
 SP5dq   C5h  1 4.300000e-01    2.770000e+00
 SP6dq   C5h  1 4.300000e-01    2.530000e+00
  SC5h   X1q  1 4.300000e-01    3.380000e+00
  SC5h   X2q  1 4.300000e-01    3.160000e+00
  SC5h   X3q  1 4.300000e-01    3.160000e+00
  SC5h   X4q  1 4.300000e-01    3.160000e+00
  SC5h   C1q  1 4.300000e-01    2.920000e+00
  SC5h   C2q  1 4.300000e-01    2.920000e+00
  SC5h   C3q  1 4.300000e-01    3.160000e+00
  SC5h   C4q  1 4.300000e-01    3.380000e+00
  SP6d   C4h  1 4.300000e-01    1.930000e+00
  SP5d   C4h  1 4.300000e-01    2.160000e+00
  SP4d   C4h  1 4.300000e-01    2.160000e+00
  SP3d   C4h  1 4.300000e-01    2.320000e+00
  SP2d   C4h  1 4.300000e-01    2.320000e+00
  SP1d   C4h  1 4.300000e-01    2.320000e+00
  SN6d   C4h  1 4.300000e-01    2.530000e+00
  SN5d   C4h  1 4.300000e-01    2.530000e+00
  SN4d   C4h  1 4.300000e-01    2.770000e+00
  SN3d   C4h  1 4.300000e-01    2.770000e+00
  SN2d   C4h  1 4.300000e-01    2.770000e+00
  SN1d   C4h  1 4.300000e-01    2.920000e+00
  SP6a   C4h  1 4.300000e-01    1.930000e+00
  SP5a   C4h  1 4.300000e-01    2.160000e+00
  SP4a   C4h  1 4.300000e-01    2.160000e+00
  SP3a   C4h  1 4.300000e-01    2.320000e+00
  SP2a   C4h  1 4.300000e-01    2.320000e+00
  SP1a   C4h  1 4.300000e-01    2.320000e+00
  SN6a   C4h  1 4.300000e-01    2.530000e+00
  SN5a   C4h  1 4.300000e-01    2.530000e+00
  SN4a   C4h  1 4.300000e-01    2.770000e+00
  SN3a   C4h  1 4.300000e-01    2.770000e+00
  SN2a   C4h  1 4.300000e-01    2.770000e+00
  SN1a   C4h  1 4.300000e-01    2.920000e+00
  SC6v   C4h  1 4.300000e-01    3.160000e+00
  SC5v   C4h  1 4.300000e-01    3.160000e+00
  SC4h   C4v  1 4.300000e-01    3.160000e+00
  SC4h   X1v  1 4.300000e-01    3.160000e+00
  SC4h   X2v  1 4.300000e-01    2.920000e+00
  SC4h   X3v  1 4.300000e-01    2.920000e+00
  SC4h   X4v  1 4.300000e-01    2.920000e+00
  SC4h   C1v  1 4.300000e-01    2.770000e+00
  SC4h   C2v  1 4.300000e-01    2.920000e+00
  SC4h   C3v  1 4.300000e-01    3.160000e+00
  SC6e   C4h  1 4.300000e-01    3.160000e+00
  SC5e   C4h  1 4.300000e-01    3.160000e+00
  SC4h   C4e  1 4.300000e-01    3.160000e+00
  SC4h   X1e  1 4.300000e-01    3.160000e+00
  SC4h   X2e  1 4.300000e-01    2.920000e+00
  SC4h   X3e  1 4.300000e-01    2.920000e+00
  SC4h   X4e  1 4.300000e-01    2.920000e+00
  SC4h   C1e  1 4.300000e-01    2.770000e+00
  SC4h   C2e  1 4.300000e-01    2.920000e+00
  SC4h   C3e  1 4.300000e-01    3.160000e+00
  SP6q   C4h  1 4.300000e-01    2.320000e+00
  SP5q   C4h  1 4.300000e-01    2.530000e+00
  SP4q   C4h  1 4.300000e-01    2.530000e+00
  SP3q   C4h  1 4.300000e-01    2.770000e+00
  SP2q   C4h  1 4.300000e-01    2.770000e+00
  SP1q   C4h  1 4.300000e-01    2.770000e+00
  SN6q   C4h  1 4.300000e-01    2.920000e+00
  SN5q   C4h  1 4.300000e-01    2.920000e+00
  SN4q   C4h  1 4.300000e-01    3.160000e+00
  SN3q   C4h  1 4.300000e-01    3.160000e+00
  SN2q   C4h  1 4.300000e-01    3.160000e+00
  SN1q   C4h  1 4.300000e-01    3.380000e+00
  SC6q   C4h  1 4.300000e-01    3.380000e+00
  SC5q   C4h  1 4.300000e-01    3.380000e+00
  SC4h   C4q  1 4.300000e-01    3.380000e+00
  SC4h  X1eq  1 4.300000e-01    3.590000e+00
  SC4h  X2eq  1 4.300000e-01    3.380000e+00
  SC4h  X3eq  1 4.300000e-01    3.380000e+00
  SC4h  X4eq  1 4.300000e-01    3.380000e+00
  SC4h  C1eq  1 4.300000e-01    3.160000e+00
  SC4h  C2eq  1 4.300000e-01    3.380000e+00
  SC4h  C3eq  1 4.300000e-01    3.590000e+00
  SC4h  C4eq  1 4.300000e-01    3.590000e+00
 SC5eq   C4h  1 4.300000e-01    3.590000e+00
 SC6eq   C4h  1 4.300000e-01    3.590000e+00
  SC4h  X1vq  1 4.300000e-01    3.590000e+00
  SC4h  X2vq  1 4.300000e-01    3.380000e+00
  SC4h  X3vq  1 4.300000e-01    3.380000e+00
  SC4h  X4vq  1 4.300000e-01    3.380000e+00
  SC4h  C1vq  1 4.300000e-01    3.160000e+00
  SC4h  C2vq  1 4.300000e-01    3.380000e+00
  SC4h  C3vq  1 4.300000e-01    3.590000e+00
  SC4h  C4vq  1 4.300000e-01    3.590000e+00
 SC5vq   C4h  1 4.300000e-01    3.590000e+00
 SC6vq   C4h  1 4.300000e-01    3.590000e+00
 SN1aq   C4h  1 4.300000e-01    3.380000e+00
 SN2aq   C4h  1 4.300000e-01    3.160000e+00
 SN3aq   C4h  1 4.300000e-01    3.160000e+00
 SN4aq   C4h  1 4.300000e-01    3.160000e+00
 SN5aq   C4h  1 4.300000e-01    2.920000e+00
 SN6aq   C4h  1 4.300000e-01    2.920000e+00
 SP1aq   C4h  1 4.300000e-01    2.770000e+00
 SP2aq   C4h  1 4.300000e-01    2.770000e+00
 SP3aq   C4h  1 4.300000e-01    2.770000e+00
 SP4aq   C4h  1 4.300000e-01    2.530000e+00
 SP5aq   C4h  1 4.300000e-01    2.530000e+00
 SP6aq   C4h  1 4.300000e-01    2.320000e+00
 SN1dq   C4h  1 4.300000e-01    3.380000e+00
 SN2dq   C4h  1 4.300000e-01    3.160000e+00
 SN3dq   C4h  1 4.300000e-01    3.160000e+00
 SN4dq   C4h  1 4.300000e-01    3.160000e+00
 SN5dq   C4h  1 4.300000e-01    2.920000e+00
 SN6dq   C4h  1 4.300000e-01    2.920000e+00
 SP1dq   C4h  1 4.300000e-01    2.770000e+00
 SP2dq   C4h  1 4.300000e-01    2.770000e+00
 SP3dq   C4h  1 4.300000e-01    2.770000e+00
 SP4dq   C4h  1 4.300000e-01    2.530000e+00
 SP5dq   C4h  1 4.300000e-01    2.530000e+00
 SP6dq   C4h  1 4.300000e-01    2.320000e+00
  SC4h   X1q  1 4.300000e-01    3.380000e+00
  SC4h   X2q  1 4.300000e-01    3.160000e+00
  SC4h   X3q  1 4.300000e-01    3.160000e+00
  SC4h   X4q  1 4.300000e-01    3.160000e+00
  SC4h   C1q  1 4.300000e-01    2.920000e+00
  SC4h   C2q  1 4.300000e-01    3.160000e+00
  SC4h   C3q  1 4.300000e-01    3.380000e+00
  SP6d   C3h  1 4.300000e-01    1.730000e+00
  SP5d   C3h  1 4.300000e-01    1.930000e+00
  SP4d   C3h  1 4.300000e-01    1.930000e+00
  SP3d   C3h  1 4.300000e-01    1.930000e+00
  SP2d   C3h  1 4.300000e-01    2.160000e+00
  SP1d   C3h  1 4.300000e-01    2.160000e+00
  SN6d   C3h  1 4.300000e-01    2.320000e+00
  SN5d   C3h  1 4.300000e-01    2.530000e+00
  SN4d   C3h  1 4.300000e-01    2.530000e+00
  SN3d   C3h  1 4.300000e-01    2.530000e+00
  SN2d   C3h  1 4.300000e-01    2.770000e+00
  SN1d   C3h  1 4.300000e-01    2.770000e+00
  SP6a   C3h  1 4.300000e-01    1.730000e+00
  SP5a   C3h  1 4.300000e-01    1.930000e+00
  SP4a   C3h  1 4.300000e-01    1.930000e+00
  SP3a   C3h  1 4.300000e-01    1.930000e+00
  SP2a   C3h  1 4.300000e-01    2.160000e+00
  SP1a   C3h  1 4.300000e-01    2.160000e+00
  SN6a   C3h  1 4.300000e-01    2.320000e+00
  SN5a   C3h  1 4.300000e-01    2.530000e+00
  SN4a   C3h  1 4.300000e-01    2.530000e+00
  SN3a   C3h  1 4.300000e-01    2.530000e+00
  SN2a   C3h  1 4.300000e-01    2.770000e+00
  SN1a   C3h  1 4.300000e-01    2.770000e+00
  SC6v   C3h  1 4.300000e-01    2.920000e+00
  SC5v   C3h  1 4.300000e-01    2.920000e+00
  SC4v   C3h  1 4.300000e-01    3.160000e+00
  SC3h   C3v  1 4.300000e-01    3.160000e+00
  SC3h   X1v  1 4.300000e-01    3.160000e+00
  SC3h   X2v  1 4.300000e-01    2.920000e+00
  SC3h   X3v  1 4.300000e-01    2.920000e+00
  SC3h   X4v  1 4.300000e-01    2.920000e+00
  SC3h   C1v  1 4.300000e-01    3.160000e+00
  SC3h   C2v  1 4.300000e-01    3.160000e+00
  SC6e   C3h  1 4.300000e-01    2.920000e+00
  SC5e   C3h  1 4.300000e-01    2.920000e+00
  SC4e   C3h  1 4.300000e-01    3.160000e+00
  SC3h   C3e  1 4.300000e-01    3.160000e+00
  SC3h   X1e  1 4.300000e-01    3.160000e+00
  SC3h   X2e  1 4.300000e-01    2.920000e+00
  SC3h   X3e  1 4.300000e-01    2.920000e+00
  SC3h   X4e  1 4.300000e-01    2.920000e+00
  SC3h   C1e  1 4.300000e-01    3.160000e+00
  SC3h   C2e  1 4.300000e-01    3.160000e+00
  SP6q   C3h  1 4.300000e-01    2.160000e+00
  SP5q   C3h  1 4.300000e-01    2.320000e+00
  SP4q   C3h  1 4.300000e-01    2.320000e+00
  SP3q   C3h  1 4.300000e-01    2.320000e+00
  SP2q   C3h  1 4.300000e-01    2.530000e+00
  SP1q   C3h  1 4.300000e-01    2.530000e+00
  SN6q   C3h  1 4.300000e-01    2.770000e+00
  SN5q   C3h  1 4.300000e-01    2.920000e+00
  SN4q   C3h  1 4.300000e-01    2.920000e+00
  SN3q   C3h  1 4.300000e-01    2.920000e+00
  SN2q   C3h  1 4.300000e-01    3.160000e+00
  SN1q   C3h  1 4.300000e-01    3.160000e+00
  SC6q   C3h  1 4.300000e-01    3.160000e+00
  SC5q   C3h  1 4.300000e-01    3.160000e+00
  SC4q   C3h  1 4.300000e-01    3.380000e+00
  SC3h   C3q  1 4.300000e-01    3.380000e+00
  SC3h  X1eq  1 4.300000e-01    3.590000e+00
  SC3h  X2eq  1 4.300000e-01    3.380000e+00
  SC3h  X3eq  1 4.300000e-01    3.380000e+00
  SC3h  X4eq  1 4.300000e-01    3.380000e+00
  SC3h  C1eq  1 4.300000e-01    3.590000e+00
  SC3h  C2eq  1 4.300000e-01    3.590000e+00
  SC3h  C3eq  1 4.300000e-01    3.590000e+00
 SC4eq   C3h  1 4.300000e-01    3.590000e+00
 SC5eq   C3h  1 4.300000e-01    3.380000e+00
 SC6eq   C3h  1 4.300000e-01    3.380000e+00
  SC3h  X1vq  1 4.300000e-01    3.590000e+00
  SC3h  X2vq  1 4.300000e-01    3.380000e+00
  SC3h  X3vq  1 4.300000e-01    3.380000e+00
  SC3h  X4vq  1 4.300000e-01    3.380000e+00
  SC3h  C1vq  1 4.300000e-01    3.590000e+00
  SC3h  C2vq  1 4.300000e-01    3.590000e+00
  SC3h  C3vq  1 4.300000e-01    3.590000e+00
 SC4vq   C3h  1 4.300000e-01    3.590000e+00
 SC5vq   C3h  1 4.300000e-01    3.380000e+00
 SC6vq   C3h  1 4.300000e-01    3.380000e+00
 SN1aq   C3h  1 4.300000e-01    3.160000e+00
 SN2aq   C3h  1 4.300000e-01    3.160000e+00
 SN3aq   C3h  1 4.300000e-01    2.920000e+00
 SN4aq   C3h  1 4.300000e-01    2.920000e+00
 SN5aq   C3h  1 4.300000e-01    2.920000e+00
 SN6aq   C3h  1 4.300000e-01    2.770000e+00
 SP1aq   C3h  1 4.300000e-01    2.530000e+00
 SP2aq   C3h  1 4.300000e-01    2.530000e+00
 SP3aq   C3h  1 4.300000e-01    2.320000e+00
 SP4aq   C3h  1 4.300000e-01    2.320000e+00
 SP5aq   C3h  1 4.300000e-01    2.320000e+00
 SP6aq   C3h  1 4.300000e-01    2.160000e+00
 SN1dq   C3h  1 4.300000e-01    3.160000e+00
 SN2dq   C3h  1 4.300000e-01    3.160000e+00
 SN3dq   C3h  1 4.300000e-01    2.920000e+00
 SN4dq   C3h  1 4.300000e-01    2.920000e+00
 SN5dq   C3h  1 4.300000e-01    2.920000e+00
 SN6dq   C3h  1 4.300000e-01    2.770000e+00
 SP1dq   C3h  1 4.300000e-01    2.530000e+00
 SP2dq   C3h  1 4.300000e-01    2.530000e+00
 SP3dq   C3h  1 4.300000e-01    2.320000e+00
 SP4dq   C3h  1 4.300000e-01    2.320000e+00
 SP5dq   C3h  1 4.300000e-01    2.320000e+00
 SP6dq   C3h  1 4.300000e-01    2.160000e+00
  SC3h   X1q  1 4.300000e-01    3.380000e+00
  SC3h   X2q  1 4.300000e-01    3.160000e+00
  SC3h   X3q  1 4.300000e-01    3.160000e+00
  SC3h   X4q  1 4.300000e-01    3.160000e+00
  SC3h   C1q  1 4.300000e-01    3.380000e+00
  SC3h   C2q  1 4.300000e-01    3.380000e+00
  SP6d   C2h  1 4.300000e-01    1.730000e+00
  SP5d   C2h  1 4.300000e-01    1.930000e+00
  SP4d   C2h  1 4.300000e-01    1.930000e+00
  SP3d   C2h  1 4.300000e-01    1.930000e+00
  SP2d   C2h  1 4.300000e-01    2.160000e+00
  SP1d   C2h  1 4.300000e-01    2.160000e+00
  SN6d   C2h  1 4.300000e-01    2.320000e+00
  SN5d   C2h  1 4.300000e-01    2.320000e+00
  SN4d   C2h  1 4.300000e-01    2.320000e+00
  SN3d   C2h  1 4.300000e-01    2.530000e+00
  SN2d   C2h  1 4.300000e-01    2.530000e+00
  SN1d   C2h  1 4.300000e-01    2.530000e+00
  SP6a   C2h  1 4.300000e-01    1.730000e+00
  SP5a   C2h  1 4.300000e-01    1.930000e+00
  SP4a   C2h  1 4.300000e-01    1.930000e+00
  SP3a   C2h  1 4.300000e-01    1.930000e+00
  SP2a   C2h  1 4.300000e-01    2.160000e+00
  SP1a   C2h  1 4.300000e-01    2.160000e+00
  SN6a   C2h  1 4.300000e-01    2.320000e+00
  SN5a   C2h  1 4.300000e-01    2.320000e+00
  SN4a   C2h  1 4.300000e-01    2.320000e+00
  SN3a   C2h  1 4.300000e-01    2.530000e+00
  SN2a   C2h  1 4.300000e-01    2.530000e+00
  SN1a   C2h  1 4.300000e-01    2.530000e+00
  SC6v   C2h  1 4.300000e-01    2.770000e+00
  SC5v   C2h  1 4.300000e-01    2.770000e+00
  SC4v   C2h  1 4.300000e-01    2.920000e+00
  SC3v   C2h  1 4.300000e-01    3.160000e+00
  SC2h   C2v  1 4.300000e-01    3.160000e+00
  SC2h   X1v  1 4.300000e-01    2.920000e+00
  SC2h   X2v  1 4.300000e-01    2.920000e+00
  SC2h   X3v  1 4.300000e-01    2.920000e+00
  SC2h   X4v  1 4.300000e-01    2.530000e+00
  SC2h   C1v  1 4.300000e-01    3.380000e+00
  SC6e   C2h  1 4.300000e-01    2.770000e+00
  SC5e   C2h  1 4.300000e-01    2.770000e+00
  SC4e   C2h  1 4.300000e-01    2.920000e+00
  SC3e   C2h  1 4.300000e-01    3.160000e+00
  SC2h   C2e  1 4.300000e-01    3.160000e+00
  SC2h   X1e  1 4.300000e-01    2.920000e+00
  SC2h   X2e  1 4.300000e-01    2.920000e+00
  SC2h   X3e  1 4.300000e-01    2.920000e+00
  SC2h   X4e  1 4.300000e-01    2.530000e+00
  SC2h   C1e  1 4.300000e-01    3.380000e+00
  SP6q   C2h  1 4.300000e-01    2.160000e+00
  SP5q   C2h  1 4.300000e-01    2.320000e+00
  SP4q   C2h  1 4.300000e-01    2.320000e+00
  SP3q   C2h  1 4.300000e-01    2.320000e+00
  SP2q   C2h  1 4.300000e-01    2.530000e+00
  SP1q   C2h  1 4.300000e-01    2.530000e+00
  SN6q   C2h  1 4.300000e-01    2.770000e+00
  SN5q   C2h  1 4.300000e-01    2.770000e+00
  SN4q   C2h  1 4.300000e-01    2.770000e+00
  SN3q   C2h  1 4.300000e-01    2.920000e+00
  SN2q   C2h  1 4.300000e-01    2.920000e+00
  SN1q   C2h  1 4.300000e-01    2.920000e+00
  SC6q   C2h  1 4.300000e-01    2.920000e+00
  SC5q   C2h  1 4.300000e-01    2.920000e+00
  SC4q   C2h  1 4.300000e-01    3.160000e+00
  SC3q   C2h  1 4.300000e-01    3.380000e+00
  SC2h   C2q  1 4.300000e-01    3.380000e+00
  SC2h  X1eq  1 4.300000e-01    3.380000e+00
  SC2h  X2eq  1 4.300000e-01    3.380000e+00
  SC2h  X3eq  1 4.300000e-01    3.380000e+00
  SC2h  X4eq  1 4.300000e-01    2.920000e+00
  SC2h  C1eq  1 4.300000e-01    3.770000e+00
  SC2h  C2eq  1 4.300000e-01    3.590000e+00
 SC3eq   C2h  1 4.300000e-01    3.590000e+00
 SC4eq   C2h  1 4.300000e-01    3.380000e+00
 SC5eq   C2h  1 4.300000e-01    3.160000e+00
 SC6eq   C2h  1 4.300000e-01    3.160000e+00
  SC2h  X1vq  1 4.300000e-01    3.380000e+00
  SC2h  X2vq  1 4.300000e-01    3.380000e+00
  SC2h  X3vq  1 4.300000e-01    3.380000e+00
  SC2h  X4vq  1 4.300000e-01    2.920000e+00
  SC2h  C1vq  1 4.300000e-01    3.770000e+00
  SC2h  C2vq  1 4.300000e-01    3.590000e+00
 SC3vq   C2h  1 4.300000e-01    3.590000e+00
 SC4vq   C2h  1 4.300000e-01    3.380000e+00
 SC5vq   C2h  1 4.300000e-01    3.160000e+00
 SC6vq   C2h  1 4.300000e-01    3.160000e+00
 SN1aq   C2h  1 4.300000e-01    2.920000e+00
 SN2aq   C2h  1 4.300000e-01    2.920000e+00
 SN3aq   C2h  1 4.300000e-01    2.920000e+00
 SN4aq   C2h  1 4.300000e-01    2.770000e+00
 SN5aq   C2h  1 4.300000e-01    2.770000e+00
 SN6aq   C2h  1 4.300000e-01    2.770000e+00
 SP1aq   C2h  1 4.300000e-01    2.530000e+00
 SP2aq   C2h  1 4.300000e-01    2.530000e+00
 SP3aq   C2h  1 4.300000e-01    2.320000e+00
 SP4aq   C2h  1 4.300000e-01    2.320000e+00
 SP5aq   C2h  1 4.300000e-01    2.320000e+00
 SP6aq   C2h  1 4.300000e-01    2.160000e+00
 SN1dq   C2h  1 4.300000e-01    2.920000e+00
 SN2dq   C2h  1 4.300000e-01    2.920000e+00
 SN3dq   C2h  1 4.300000e-01    2.920000e+00
 SN4dq   C2h  1 4.300000e-01    2.770000e+00
 SN5dq   C2h  1 4.300000e-01    2.770000e+00
 SN6dq   C2h  1 4.300000e-01    2.770000e+00
 SP1dq   C2h  1 4.300000e-01    2.530000e+00
 SP2dq   C2h  1 4.300000e-01    2.530000e+00
 SP3dq   C2h  1 4.300000e-01    2.320000e+00
 SP4dq   C2h  1 4.300000e-01    2.320000e+00
 SP5dq   C2h  1 4.300000e-01    2.320000e+00
 SP6dq   C2h  1 4.300000e-01    2.160000e+00
  SC2h   X1q  1 4.300000e-01    3.160000e+00
  SC2h   X2q  1 4.300000e-01    3.160000e+00
  SC2h   X3q  1 4.300000e-01    3.160000e+00
  SC2h   X4q  1 4.300000e-01    2.770000e+00
  SC2h   C1q  1 4.300000e-01    3.590000e+00
  SP6d   C1h  1 4.730000e-01    1.280000e+00
  SP5d   C1h  1 4.300000e-01    1.730000e+00
  SP4d   C1h  1 4.300000e-01    1.730000e+00
  SP3d   C1h  1 4.300000e-01    1.730000e+00
  SP2d   C1h  1 4.300000e-01    1.930000e+00
  SP1d   C1h  1 4.300000e-01    1.930000e+00
  SN6d   C1h  1 4.300000e-01    2.160000e+00
  SN5d   C1h  1 4.300000e-01    2.160000e+00
  SN4d   C1h  1 4.300000e-01    2.160000e+00
  SN3d   C1h  1 4.300000e-01    2.320000e+00
  SN2d   C1h  1 4.300000e-01    2.320000e+00
  SN1d   C1h  1 4.300000e-01    2.320000e+00
  SP6a   C1h  1 4.730000e-01    1.280000e+00
  SP5a   C1h  1 4.300000e-01    1.730000e+00
  SP4a   C1h  1 4.300000e-01    1.730000e+00
  SP3a   C1h  1 4.300000e-01    1.730000e+00
  SP2a   C1h  1 4.300000e-01    1.930000e+00
  SP1a   C1h  1 4.300000e-01    1.930000e+00
  SN6a   C1h  1 4.300000e-01    2.160000e+00
  SN5a   C1h  1 4.300000e-01    2.160000e+00
  SN4a   C1h  1 4.300000e-01    2.160000e+00
  SN3a   C1h  1 4.300000e-01    2.320000e+00
  SN2a   C1h  1 4.300000e-01    2.320000e+00
  SN1a   C1h  1 4.300000e-01    2.320000e+00
  SC6v   C1h  1 4.300000e-01    2.530000e+00
  SC5v   C1h  1 4.300000e-01    2.770000e+00
  SC4v   C1h  1 4.300000e-01    2.770000e+00
  SC3v   C1h  1 4.300000e-01    3.160000e+00
  SC2v   C1h  1 4.300000e-01    3.380000e+00
  SC1h   C1v  1 4.300000e-01    3.160000e+00
  SC1h   X1v  1 4.300000e-01    2.920000e+00
  SC1h   X2v  1 4.300000e-01    2.920000e+00
  SC1h   X3v  1 4.300000e-01    2.920000e+00
  SC1h   X4v  1 4.300000e-01    2.530000e+00
  SC6e   C1h  1 4.300000e-01    2.530000e+00
  SC5e   C1h  1 4.300000e-01    2.770000e+00
  SC4e   C1h  1 4.300000e-01    2.770000e+00
  SC3e   C1h  1 4.300000e-01    3.160000e+00
  SC2e   C1h  1 4.300000e-01    3.380000e+00
  SC1h   C1e  1 4.300000e-01    3.160000e+00
  SC1h   X1e  1 4.300000e-01    2.920000e+00
  SC1h   X2e  1 4.300000e-01    2.920000e+00
  SC1h   X3e  1 4.300000e-01    2.920000e+00
  SC1h   X4e  1 4.300000e-01    2.530000e+00
  SP6q   C1h  1 4.300000e-01    1.730000e+00
  SP5q   C1h  1 4.300000e-01    2.160000e+00
  SP4q   C1h  1 4.300000e-01    2.160000e+00
  SP3q   C1h  1 4.300000e-01    2.160000e+00
  SP2q   C1h  1 4.300000e-01    2.320000e+00
  SP1q   C1h  1 4.300000e-01    2.320000e+00
  SN6q   C1h  1 4.300000e-01    2.530000e+00
  SN5q   C1h  1 4.300000e-01    2.530000e+00
  SN4q   C1h  1 4.300000e-01    2.530000e+00
  SN3q   C1h  1 4.300000e-01    2.770000e+00
  SN2q   C1h  1 4.300000e-01    2.770000e+00
  SN1q   C1h  1 4.300000e-01    2.770000e+00
  SC6q   C1h  1 4.300000e-01    2.770000e+00
  SC5q   C1h  1 4.300000e-01    2.920000e+00
  SC4q   C1h  1 4.300000e-01    2.920000e+00
  SC3q   C1h  1 4.300000e-01    3.380000e+00
  SC2q   C1h  1 4.300000e-01    3.590000e+00
  SC1h   C1q  1 4.300000e-01    3.380000e+00
  SC1h  X1eq  1 4.300000e-01    3.380000e+00
  SC1h  X2eq  1 4.300000e-01    3.380000e+00
  SC1h  X3eq  1 4.300000e-01    3.380000e+00
  SC1h  X4eq  1 4.300000e-01    2.920000e+00
  SC1h  C1eq  1 4.300000e-01    3.590000e+00
 SC2eq   C1h  1 4.300000e-01    3.770000e+00
 SC3eq   C1h  1 4.300000e-01    3.590000e+00
 SC4eq   C1h  1 4.300000e-01    3.160000e+00
 SC5eq   C1h  1 4.300000e-01    3.160000e+00
 SC6eq   C1h  1 4.300000e-01    2.920000e+00
  SC1h  X1vq  1 4.300000e-01    3.380000e+00
  SC1h  X2vq  1 4.300000e-01    3.380000e+00
  SC1h  X3vq  1 4.300000e-01    3.380000e+00
  SC1h  X4vq  1 4.300000e-01    2.920000e+00
  SC1h  C1vq  1 4.300000e-01    3.590000e+00
 SC2vq   C1h  1 4.300000e-01    3.770000e+00
 SC3vq   C1h  1 4.300000e-01    3.590000e+00
 SC4vq   C1h  1 4.300000e-01    3.160000e+00
 SC5vq   C1h  1 4.300000e-01    3.160000e+00
 SC6vq   C1h  1 4.300000e-01    2.920000e+00
 SN1aq   C1h  1 4.300000e-01    2.770000e+00
 SN2aq   C1h  1 4.300000e-01    2.770000e+00
 SN3aq   C1h  1 4.300000e-01    2.770000e+00
 SN4aq   C1h  1 4.300000e-01    2.530000e+00
 SN5aq   C1h  1 4.300000e-01    2.530000e+00
 SN6aq   C1h  1 4.300000e-01    2.530000e+00
 SP1aq   C1h  1 4.300000e-01    2.320000e+00
 SP2aq   C1h  1 4.300000e-01    2.320000e+00
 SP3aq   C1h  1 4.300000e-01    2.160000e+00
 SP4aq   C1h  1 4.300000e-01    2.160000e+00
 SP5aq   C1h  1 4.300000e-01    2.160000e+00
 SP6aq   C1h  1 4.300000e-01    1.730000e+00
 SN1dq   C1h  1 4.300000e-01    2.770000e+00
 SN2dq   C1h  1 4.300000e-01    2.770000e+00
 SN3dq   C1h  1 4.300000e-01    2.770000e+00
 SN4dq   C1h  1 4.300000e-01    2.530000e+00
 SN5dq   C1h  1 4.300000e-01    2.530000e+00
 SN6dq   C1h  1 4.300000e-01    2.530000e+00
 SP1dq   C1h  1 4.300000e-01    2.320000e+00
 SP2dq   C1h  1 4.300000e-01    2.320000e+00
 SP3dq   C1h  1 4.300000e-01    2.160000e+00
 SP4dq   C1h  1 4.300000e-01    2.160000e+00
 SP5dq   C1h  1 4.300000e-01    2.160000e+00
 SP6dq   C1h  1 4.300000e-01    1.730000e+00
  SC1h   X1q  1 4.300000e-01    3.160000e+00
  SC1h   X2q  1 4.300000e-01    3.160000e+00
  SC1h   X3q  1 4.300000e-01    3.160000e+00
  SC1h   X4q  1 4.300000e-01    2.770000e+00
  SP6d   X4h  1 4.300000e-01    2.530000e+00
  SP5d   X4h  1 4.300000e-01    2.770000e+00
  SP4d   X4h  1 4.300000e-01    2.770000e+00
  SP3d   X4h  1 4.300000e-01    2.770000e+00
  SP2d   X4h  1 4.300000e-01    2.770000e+00
  SP1d   X4h  1 4.300000e-01    2.770000e+00
  SN6d   X4h  1 4.300000e-01    2.920000e+00
  SN5d   X4h  1 4.300000e-01    3.160000e+00
  SN4d   X4h  1 4.300000e-01    3.380000e+00
  SN3d   X4h  1 4.300000e-01    3.160000e+00
  SN2d   X4h  1 4.300000e-01    3.160000e+00
  SN1d   X4h  1 4.300000e-01    2.920000e+00
  SP6a   X4h  1 4.300000e-01    2.530000e+00
  SP5a   X4h  1 4.300000e-01    2.770000e+00
  SP4a   X4h  1 4.300000e-01    2.770000e+00
  SP3a   X4h  1 4.300000e-01    2.770000e+00
  SP2a   X4h  1 4.300000e-01    2.770000e+00
  SP1a   X4h  1 4.300000e-01    2.770000e+00
  SN6a   X4h  1 4.300000e-01    2.920000e+00
  SN5a   X4h  1 4.300000e-01    3.160000e+00
  SN4a   X4h  1 4.300000e-01    3.380000e+00
  SN3a   X4h  1 4.300000e-01    3.160000e+00
  SN2a   X4h  1 4.300000e-01    3.160000e+00
  SN1a   X4h  1 4.300000e-01    2.920000e+00
  SC6v   X4h  1 4.300000e-01    3.160000e+00
  SC5v   X4h  1 4.300000e-01    2.920000e+00
  SC4v   X4h  1 4.300000e-01    2.920000e+00
  SC3v   X4h  1 4.300000e-01    2.920000e+00
  SC2v   X4h  1 4.300000e-01    2.530000e+00
  SC1v   X4h  1 4.300000e-01    2.530000e+00
  SX4h   X4v  1 4.300000e-01    3.160000e+00
  SX4h   X1v  1 4.300000e-01    3.160000e+00
  SX4h   X2v  1 4.300000e-01    3.160000e+00
  SX4h   X3v  1 4.300000e-01    3.160000e+00
  SC6e   X4h  1 4.300000e-01    3.160000e+00
  SC5e   X4h  1 4.300000e-01    2.920000e+00
  SC4e   X4h  1 4.300000e-01    2.920000e+00
  SC3e   X4h  1 4.300000e-01    2.920000e+00
  SC2e   X4h  1 4.300000e-01    2.530000e+00
  SC1e   X4h  1 4.300000e-01    2.530000e+00
  SX4h   X4e  1 4.300000e-01    3.160000e+00
  SX4h   X1e  1 4.300000e-01    3.160000e+00
  SX4h   X2e  1 4.300000e-01    3.160000e+00
  SX4h   X3e  1 4.300000e-01    3.160000e+00
  SP6q   X4h  1 4.300000e-01    2.920000e+00
  SP5q   X4h  1 4.300000e-01    3.160000e+00
  SP4q   X4h  1 4.300000e-01    3.160000e+00
  SP3q   X4h  1 4.300000e-01    3.160000e+00
  SP2q   X4h  1 4.300000e-01    3.160000e+00
  SP1q   X4h  1 4.300000e-01    3.160000e+00
  SN6q   X4h  1 4.300000e-01    3.380000e+00
  SN5q   X4h  1 4.300000e-01    3.590000e+00
  SN4q   X4h  1 4.300000e-01    3.770000e+00
  SN3q   X4h  1 4.300000e-01    3.590000e+00
  SN2q   X4h  1 4.300000e-01    3.590000e+00
  SN1q   X4h  1 4.300000e-01    3.380000e+00
  SC6q   X4h  1 4.300000e-01    3.380000e+00
  SC5q   X4h  1 4.300000e-01    3.160000e+00
  SC4q   X4h  1 4.300000e-01    3.160000e+00
  SC3q   X4h  1 4.300000e-01    3.160000e+00
  SC2q   X4h  1 4.300000e-01    2.770000e+00
  SC1q   X4h  1 4.300000e-01    2.770000e+00
  SX4h   X4q  1 4.300000e-01    3.380000e+00
  SX4h  X1eq  1 4.300000e-01    3.590000e+00
  SX4h  X2eq  1 4.300000e-01    3.590000e+00
  SX4h  X3eq  1 4.300000e-01    3.590000e+00
  SX4h  X4eq  1 4.300000e-01    3.590000e+00
 SC1eq   X4h  1 4.300000e-01    2.920000e+00
 SC2eq   X4h  1 4.300000e-01    2.920000e+00
 SC3eq   X4h  1 4.300000e-01    3.380000e+00
 SC4eq   X4h  1 4.300000e-01    3.380000e+00
 SC5eq   X4h  1 4.300000e-01    3.380000e+00
 SC6eq   X4h  1 4.300000e-01    3.590000e+00
  SX4h  X1vq  1 4.300000e-01    3.590000e+00
  SX4h  X2vq  1 4.300000e-01    3.590000e+00
  SX4h  X3vq  1 4.300000e-01    3.590000e+00
  SX4h  X4vq  1 4.300000e-01    3.590000e+00
 SC1vq   X4h  1 4.300000e-01    2.920000e+00
 SC2vq   X4h  1 4.300000e-01    2.920000e+00
 SC3vq   X4h  1 4.300000e-01    3.380000e+00
 SC4vq   X4h  1 4.300000e-01    3.380000e+00
 SC5vq   X4h  1 4.300000e-01    3.380000e+00
 SC6vq   X4h  1 4.300000e-01    3.590000e+00
 SN1aq   X4h  1 4.300000e-01    3.380000e+00
 SN2aq   X4h  1 4.300000e-01    3.590000e+00
 SN3aq   X4h  1 4.300000e-01    3.590000e+00
 SN4aq   X4h  1 4.300000e-01    3.770000e+00
 SN5aq   X4h  1 4.300000e-01    3.590000e+00
 SN6aq   X4h  1 4.300000e-01    3.380000e+00
 SP1aq   X4h  1 4.300000e-01    3.160000e+00
 SP2aq   X4h  1 4.300000e-01    3.160000e+00
 SP3aq   X4h  1 4.300000e-01    3.160000e+00
 SP4aq   X4h  1 4.300000e-01    3.160000e+00
 SP5aq   X4h  1 4.300000e-01    3.160000e+00
 SP6aq   X4h  1 4.300000e-01    2.920000e+00
 SN1dq   X4h  1 4.300000e-01    3.380000e+00
 SN2dq   X4h  1 4.300000e-01    3.590000e+00
 SN3dq   X4h  1 4.300000e-01    3.590000e+00
 SN4dq   X4h  1 4.300000e-01    3.770000e+00
 SN5dq   X4h  1 4.300000e-01    3.590000e+00
 SN6dq   X4h  1 4.300000e-01    3.380000e+00
 SP1dq   X4h  1 4.300000e-01    3.160000e+00
 SP2dq   X4h  1 4.300000e-01    3.160000e+00
 SP3dq   X4h  1 4.300000e-01    3.160000e+00
 SP4dq   X4h  1 4.300000e-01    3.160000e+00
 SP5dq   X4h  1 4.300000e-01    3.160000e+00
 SP6dq   X4h  1 4.300000e-01    2.920000e+00
  SX4h   X1q  1 4.300000e-01    3.380000e+00
  SX4h   X2q  1 4.300000e-01    3.380000e+00
  SX4h   X3q  1 4.300000e-01    3.380000e+00
  SP6d   X3h  1 4.300000e-01    2.530000e+00
  SP5d   X3h  1 4.300000e-01    2.530000e+00
  SP4d   X3h  1 4.300000e-01    2.530000e+00
  SP3d   X3h  1 4.300000e-01    2.770000e+00
  SP2d   X3h  1 4.300000e-01    2.770000e+00
  SP1d   X3h  1 4.300000e-01    2.770000e+00
  SN6d   X3h  1 4.300000e-01    2.770000e+00
  SN5d   X3h  1 4.300000e-01    2.920000e+00
  SN4d   X3h  1 4.300000e-01    3.160000e+00
  SN3d   X3h  1 4.300000e-01    2.920000e+00
  SN2d   X3h  1 4.300000e-01    2.920000e+00
  SN1d   X3h  1 4.300000e-01    2.920000e+00
  SP6a   X3h  1 4.300000e-01    2.530000e+00
  SP5a   X3h  1 4.300000e-01    2.530000e+00
  SP4a   X3h  1 4.300000e-01    2.530000e+00
  SP3a   X3h  1 4.300000e-01    2.770000e+00
  SP2a   X3h  1 4.300000e-01    2.770000e+00
  SP1a   X3h  1 4.300000e-01    2.770000e+00
  SN6a   X3h  1 4.300000e-01    2.770000e+00
  SN5a   X3h  1 4.300000e-01    2.920000e+00
  SN4a   X3h  1 4.300000e-01    3.160000e+00
  SN3a   X3h  1 4.300000e-01    2.920000e+00
  SN2a   X3h  1 4.300000e-01    2.920000e+00
  SN1a   X3h  1 4.300000e-01    2.920000e+00
  SC6v   X3h  1 4.300000e-01    3.160000e+00
  SC5v   X3h  1 4.300000e-01    2.920000e+00
  SC4v   X3h  1 4.300000e-01    2.920000e+00
  SC3v   X3h  1 4.300000e-01    2.920000e+00
  SC2v   X3h  1 4.300000e-01    2.920000e+00
  SC1v   X3h  1 4.300000e-01    2.920000e+00
  SX4v   X3h  1 4.300000e-01    3.160000e+00
  SX3h   X3v  1 4.300000e-01    3.160000e+00
  SX3h   X1v  1 4.300000e-01    3.380000e+00
  SX3h   X2v  1 4.300000e-01    3.380000e+00
  SC6e   X3h  1 4.300000e-01    3.160000e+00
  SC5e   X3h  1 4.300000e-01    2.920000e+00
  SC4e   X3h  1 4.300000e-01    2.920000e+00
  SC3e   X3h  1 4.300000e-01    2.920000e+00
  SC2e   X3h  1 4.300000e-01    2.920000e+00
  SC1e   X3h  1 4.300000e-01    2.920000e+00
  SX4e   X3h  1 4.300000e-01    3.160000e+00
  SX3h   X3e  1 4.300000e-01    3.160000e+00
  SX3h   X1e  1 4.300000e-01    3.380000e+00
  SX3h   X2e  1 4.300000e-01    3.380000e+00
  SP6q   X3h  1 4.300000e-01    2.920000e+00
  SP5q   X3h  1 4.300000e-01    2.920000e+00
  SP4q   X3h  1 4.300000e-01    2.920000e+00
  SP3q   X3h  1 4.300000e-01    3.160000e+00
  SP2q   X3h  1 4.300000e-01    3.160000e+00
  SP1q   X3h  1 4.300000e-01    3.160000e+00
  SN6q   X3h  1 4.300000e-01    3.160000e+00
  SN5q   X3h  1 4.300000e-01    3.380000e+00
  SN4q   X3h  1 4.300000e-01    3.590000e+00
  SN3q   X3h  1 4.300000e-01    3.380000e+00
  SN2q   X3h  1 4.300000e-01    3.380000e+00
  SN1q   X3h  1 4.300000e-01    3.380000e+00
  SC6q   X3h  1 4.300000e-01    3.380000e+00
  SC5q   X3h  1 4.300000e-01    3.160000e+00
  SC4q   X3h  1 4.300000e-01    3.160000e+00
  SC3q   X3h  1 4.300000e-01    3.160000e+00
  SC2q   X3h  1 4.300000e-01    3.160000e+00
  SC1q   X3h  1 4.300000e-01    3.160000e+00
  SX4q   X3h  1 4.300000e-01    3.380000e+00
  SX3h   X3q  1 4.300000e-01    3.380000e+00
  SX3h  X1eq  1 4.300000e-01    3.770000e+00
  SX3h  X2eq  1 4.300000e-01    3.770000e+00
  SX3h  X3eq  1 4.300000e-01    3.590000e+00
 SX4eq   X3h  1 4.300000e-01    3.590000e+00
 SC1eq   X3h  1 4.300000e-01    3.380000e+00
 SC2eq   X3h  1 4.300000e-01    3.380000e+00
 SC3eq   X3h  1 4.300000e-01    3.380000e+00
 SC4eq   X3h  1 4.300000e-01    3.380000e+00
 SC5eq   X3h  1 4.300000e-01    3.380000e+00
 SC6eq   X3h  1 4.300000e-01    3.590000e+00
  SX3h  X1vq  1 4.300000e-01    3.770000e+00
  SX3h  X2vq  1 4.300000e-01    3.770000e+00
  SX3h  X3vq  1 4.300000e-01    3.590000e+00
 SX4vq   X3h  1 4.300000e-01    3.590000e+00
 SC1vq   X3h  1 4.300000e-01    3.380000e+00
 SC2vq   X3h  1 4.300000e-01    3.380000e+00
 SC3vq   X3h  1 4.300000e-01    3.380000e+00
 SC4vq   X3h  1 4.300000e-01    3.380000e+00
 SC5vq   X3h  1 4.300000e-01    3.380000e+00
 SC6vq   X3h  1 4.300000e-01    3.590000e+00
 SN1aq   X3h  1 4.300000e-01    3.380000e+00
 SN2aq   X3h  1 4.300000e-01    3.380000e+00
 SN3aq   X3h  1 4.300000e-01    3.380000e+00
 SN4aq   X3h  1 4.300000e-01    3.590000e+00
 SN5aq   X3h  1 4.300000e-01    3.380000e+00
 SN6aq   X3h  1 4.300000e-01    3.160000e+00
 SP1aq   X3h  1 4.300000e-01    3.160000e+00
 SP2aq   X3h  1 4.300000e-01    3.160000e+00
 SP3aq   X3h  1 4.300000e-01    3.160000e+00
 SP4aq   X3h  1 4.300000e-01    2.920000e+00
 SP5aq   X3h  1 4.300000e-01    2.920000e+00
 SP6aq   X3h  1 4.300000e-01    2.920000e+00
 SN1dq   X3h  1 4.300000e-01    3.380000e+00
 SN2dq   X3h  1 4.300000e-01    3.380000e+00
 SN3dq   X3h  1 4.300000e-01    3.380000e+00
 SN4dq   X3h  1 4.300000e-01    3.590000e+00
 SN5dq   X3h  1 4.300000e-01    3.380000e+00
 SN6dq   X3h  1 4.300000e-01    3.160000e+00
 SP1dq   X3h  1 4.300000e-01    3.160000e+00
 SP2dq   X3h  1 4.300000e-01    3.160000e+00
 SP3dq   X3h  1 4.300000e-01    3.160000e+00
 SP4dq   X3h  1 4.300000e-01    2.920000e+00
 SP5dq   X3h  1 4.300000e-01    2.920000e+00
 SP6dq   X3h  1 4.300000e-01    2.920000e+00
  SX3h   X1q  1 4.300000e-01    3.590000e+00
  SX3h   X2q  1 4.300000e-01    3.590000e+00
  SP6d   X2h  1 4.300000e-01    2.320000e+00
  SP5d   X2h  1 4.300000e-01    2.530000e+00
  SP4d   X2h  1 4.300000e-01    2.530000e+00
  SP3d   X2h  1 4.300000e-01    2.530000e+00
  SP2d   X2h  1 4.300000e-01    2.530000e+00
  SP1d   X2h  1 4.300000e-01    2.530000e+00
  SN6d   X2h  1 4.300000e-01    2.530000e+00
  SN5d   X2h  1 4.300000e-01    2.770000e+00
  SN4d   X2h  1 4.300000e-01    2.770000e+00
  SN3d   X2h  1 4.300000e-01    2.770000e+00
  SN2d   X2h  1 4.300000e-01    2.770000e+00
  SN1d   X2h  1 4.300000e-01    2.770000e+00
  SP6a   X2h  1 4.300000e-01    2.320000e+00
  SP5a   X2h  1 4.300000e-01    2.530000e+00
  SP4a   X2h  1 4.300000e-01    2.530000e+00
  SP3a   X2h  1 4.300000e-01    2.530000e+00
  SP2a   X2h  1 4.300000e-01    2.530000e+00
  SP1a   X2h  1 4.300000e-01    2.530000e+00
  SN6a   X2h  1 4.300000e-01    2.530000e+00
  SN5a   X2h  1 4.300000e-01    2.770000e+00
  SN4a   X2h  1 4.300000e-01    2.770000e+00
  SN3a   X2h  1 4.300000e-01    2.770000e+00
  SN2a   X2h  1 4.300000e-01    2.770000e+00
  SN1a   X2h  1 4.300000e-01    2.770000e+00
  SC6v   X2h  1 4.300000e-01    3.160000e+00
  SC5v   X2h  1 4.300000e-01    2.920000e+00
  SC4v   X2h  1 4.300000e-01    2.920000e+00
  SC3v   X2h  1 4.300000e-01    2.920000e+00
  SC2v   X2h  1 4.300000e-01    2.920000e+00
  SC1v   X2h  1 4.300000e-01    2.920000e+00
  SX4v   X2h  1 4.300000e-01    3.160000e+00
  SX3v   X2h  1 4.300000e-01    3.380000e+00
  SX2h   X2v  1 4.300000e-01    3.380000e+00
  SX2h   X1v  1 4.300000e-01    3.380000e+00
  SC6e   X2h  1 4.300000e-01    3.160000e+00
  SC5e   X2h  1 4.300000e-01    2.920000e+00
  SC4e   X2h  1 4.300000e-01    2.920000e+00
  SC3e   X2h  1 4.300000e-01    2.920000e+00
  SC2e   X2h  1 4.300000e-01    2.920000e+00
  SC1e   X2h  1 4.300000e-01    2.920000e+00
  SX4e   X2h  1 4.300000e-01    3.160000e+00
  SX3e   X2h  1 4.300000e-01    3.380000e+00
  SX2h   X2e  1 4.300000e-01    3.380000e+00
  SX2h   X1e  1 4.300000e-01    3.380000e+00
  SP6q   X2h  1 4.300000e-01    2.770000e+00
  SP5q   X2h  1 4.300000e-01    2.920000e+00
  SP4q   X2h  1 4.300000e-01    2.920000e+00
  SP3q   X2h  1 4.300000e-01    2.920000e+00
  SP2q   X2h  1 4.300000e-01    2.920000e+00
  SP1q   X2h  1 4.300000e-01    2.920000e+00
  SN6q   X2h  1 4.300000e-01    2.920000e+00
  SN5q   X2h  1 4.300000e-01    3.160000e+00
  SN4q   X2h  1 4.300000e-01    3.160000e+00
  SN3q   X2h  1 4.300000e-01    3.160000e+00
  SN2q   X2h  1 4.300000e-01    3.160000e+00
  SN1q   X2h  1 4.300000e-01    3.160000e+00
  SC6q   X2h  1 4.300000e-01    3.380000e+00
  SC5q   X2h  1 4.300000e-01    3.160000e+00
  SC4q   X2h  1 4.300000e-01    3.160000e+00
  SC3q   X2h  1 4.300000e-01    3.160000e+00
  SC2q   X2h  1 4.300000e-01    3.160000e+00
  SC1q   X2h  1 4.300000e-01    3.160000e+00
  SX4q   X2h  1 4.300000e-01    3.380000e+00
  SX3q   X2h  1 4.300000e-01    3.590000e+00
  SX2h   X2q  1 4.300000e-01    3.590000e+00
  SX2h  X1eq  1 4.300000e-01    3.770000e+00
  SX2h  X2eq  1 4.300000e-01    3.770000e+00
 SX3eq   X2h  1 4.300000e-01    3.770000e+00
 SX4eq   X2h  1 4.300000e-01    3.590000e+00
 SC1eq   X2h  1 4.300000e-01    3.380000e+00
 SC2eq   X2h  1 4.300000e-01    3.380000e+00
 SC3eq   X2h  1 4.300000e-01    3.380000e+00
 SC4eq   X2h  1 4.300000e-01    3.380000e+00
 SC5eq   X2h  1 4.300000e-01    3.380000e+00
 SC6eq   X2h  1 4.300000e-01    3.590000e+00
  SX2h  X1vq  1 4.300000e-01    3.770000e+00
  SX2h  X2vq  1 4.300000e-01    3.770000e+00
 SX3vq   X2h  1 4.300000e-01    3.770000e+00
 SX4vq   X2h  1 4.300000e-01    3.590000e+00
 SC1vq   X2h  1 4.300000e-01    3.380000e+00
 SC2vq   X2h  1 4.300000e-01    3.380000e+00
 SC3vq   X2h  1 4.300000e-01    3.380000e+00
 SC4vq   X2h  1 4.300000e-01    3.380000e+00
 SC5vq   X2h  1 4.300000e-01    3.380000e+00
 SC6vq   X2h  1 4.300000e-01    3.590000e+00
 SN1aq   X2h  1 4.300000e-01    3.160000e+00
 SN2aq   X2h  1 4.300000e-01    3.160000e+00
 SN3aq   X2h  1 4.300000e-01    3.160000e+00
 SN4aq   X2h  1 4.300000e-01    3.160000e+00
 SN5aq   X2h  1 4.300000e-01    3.160000e+00
 SN6aq   X2h  1 4.300000e-01    2.920000e+00
 SP1aq   X2h  1 4.300000e-01    2.920000e+00
 SP2aq   X2h  1 4.300000e-01    2.920000e+00
 SP3aq   X2h  1 4.300000e-01    2.920000e+00
 SP4aq   X2h  1 4.300000e-01    2.920000e+00
 SP5aq   X2h  1 4.300000e-01    2.920000e+00
 SP6aq   X2h  1 4.300000e-01    2.770000e+00
 SN1dq   X2h  1 4.300000e-01    3.160000e+00
 SN2dq   X2h  1 4.300000e-01    3.160000e+00
 SN3dq   X2h  1 4.300000e-01    3.160000e+00
 SN4dq   X2h  1 4.300000e-01    3.160000e+00
 SN5dq   X2h  1 4.300000e-01    3.160000e+00
 SN6dq   X2h  1 4.300000e-01    2.920000e+00
 SP1dq   X2h  1 4.300000e-01    2.920000e+00
 SP2dq   X2h  1 4.300000e-01    2.920000e+00
 SP3dq   X2h  1 4.300000e-01    2.920000e+00
 SP4dq   X2h  1 4.300000e-01    2.920000e+00
 SP5dq   X2h  1 4.300000e-01    2.920000e+00
 SP6dq   X2h  1 4.300000e-01    2.770000e+00
  SX2h   X1q  1 4.300000e-01    3.590000e+00
  SP6d   X1h  1 4.300000e-01    2.160000e+00
  SP5d   X1h  1 4.300000e-01    2.160000e+00
  SP4d   X1h  1 4.300000e-01    2.320000e+00
  SP3d   X1h  1 4.300000e-01    2.320000e+00
  SP2d   X1h  1 4.300000e-01    2.320000e+00
  SP1d   X1h  1 4.300000e-01    2.320000e+00
  SN6d   X1h  1 4.300000e-01    2.320000e+00
  SN5d   X1h  1 4.300000e-01    2.530000e+00
  SN4d   X1h  1 4.300000e-01    2.530000e+00
  SN3d   X1h  1 4.300000e-01    2.770000e+00
  SN2d   X1h  1 4.300000e-01    2.770000e+00
  SN1d   X1h  1 4.300000e-01    2.770000e+00
  SP6a   X1h  1 4.300000e-01    2.160000e+00
  SP5a   X1h  1 4.300000e-01    2.160000e+00
  SP4a   X1h  1 4.300000e-01    2.320000e+00
  SP3a   X1h  1 4.300000e-01    2.320000e+00
  SP2a   X1h  1 4.300000e-01    2.320000e+00
  SP1a   X1h  1 4.300000e-01    2.320000e+00
  SN6a   X1h  1 4.300000e-01    2.320000e+00
  SN5a   X1h  1 4.300000e-01    2.530000e+00
  SN4a   X1h  1 4.300000e-01    2.530000e+00
  SN3a   X1h  1 4.300000e-01    2.770000e+00
  SN2a   X1h  1 4.300000e-01    2.770000e+00
  SN1a   X1h  1 4.300000e-01    2.770000e+00
  SC6v   X1h  1 4.300000e-01    3.160000e+00
  SC5v   X1h  1 4.300000e-01    3.160000e+00
  SC4v   X1h  1 4.300000e-01    3.160000e+00
  SC3v   X1h  1 4.300000e-01    3.160000e+00
  SC2v   X1h  1 4.300000e-01    2.920000e+00
  SC1v   X1h  1 4.300000e-01    2.920000e+00
  SX4v   X1h  1 4.300000e-01    3.160000e+00
  SX3v   X1h  1 4.300000e-01    3.380000e+00
  SX2v   X1h  1 4.300000e-01    3.380000e+00
  SX1h   X1v  1 4.300000e-01    3.590000e+00
  SC6e   X1h  1 4.300000e-01    3.160000e+00
  SC5e   X1h  1 4.300000e-01    3.160000e+00
  SC4e   X1h  1 4.300000e-01    3.160000e+00
  SC3e   X1h  1 4.300000e-01    3.160000e+00
  SC2e   X1h  1 4.300000e-01    2.920000e+00
  SC1e   X1h  1 4.300000e-01    2.920000e+00
  SX4e   X1h  1 4.300000e-01    3.160000e+00
  SX3e   X1h  1 4.300000e-01    3.380000e+00
  SX2e   X1h  1 4.300000e-01    3.380000e+00
  SX1h   X1e  1 4.300000e-01    3.590000e+00
  SP6q   X1h  1 4.300000e-01    2.530000e+00
  SP5q   X1h  1 4.300000e-01    2.530000e+00
  SP4q   X1h  1 4.300000e-01    2.770000e+00
  SP3q   X1h  1 4.300000e-01    2.770000e+00
  SP2q   X1h  1 4.300000e-01    2.770000e+00
  SP1q   X1h  1 4.300000e-01    2.770000e+00
  SN6q   X1h  1 4.300000e-01    2.770000e+00
  SN5q   X1h  1 4.300000e-01    2.920000e+00
  SN4q   X1h  1 4.300000e-01    2.920000e+00
  SN3q   X1h  1 4.300000e-01    3.160000e+00
  SN2q   X1h  1 4.300000e-01    3.160000e+00
  SN1q   X1h  1 4.300000e-01    3.160000e+00
  SC6q   X1h  1 4.300000e-01    3.380000e+00
  SC5q   X1h  1 4.300000e-01    3.380000e+00
  SC4q   X1h  1 4.300000e-01    3.380000e+00
  SC3q   X1h  1 4.300000e-01    3.380000e+00
  SC2q   X1h  1 4.300000e-01    3.160000e+00
  SC1q   X1h  1 4.300000e-01    3.160000e+00
  SX4q   X1h  1 4.300000e-01    3.380000e+00
  SX3q   X1h  1 4.300000e-01    3.590000e+00
  SX2q   X1h  1 4.300000e-01    3.590000e+00
  SX1h   X1q  1 4.300000e-01    3.770000e+00
  SX1h  X1eq  1 4.300000e-01    3.970000e+00
 SX2eq   X1h  1 4.300000e-01    3.770000e+00
 SX3eq   X1h  1 4.300000e-01    3.770000e+00
 SX4eq   X1h  1 4.300000e-01    3.590000e+00
 SC1eq   X1h  1 4.300000e-01    3.380000e+00
 SC2eq   X1h  1 4.300000e-01    3.380000e+00
 SC3eq   X1h  1 4.300000e-01    3.590000e+00
 SC4eq   X1h  1 4.300000e-01    3.590000e+00
 SC5eq   X1h  1 4.300000e-01    3.590000e+00
 SC6eq   X1h  1 4.300000e-01    3.590000e+00
  SX1h  X1vq  1 4.300000e-01    3.970000e+00
 SX2vq   X1h  1 4.300000e-01    3.770000e+00
 SX3vq   X1h  1 4.300000e-01    3.770000e+00
 SX4vq   X1h  1 4.300000e-01    3.590000e+00
 SC1vq   X1h  1 4.300000e-01    3.380000e+00
 SC2vq   X1h  1 4.300000e-01    3.380000e+00
 SC3vq   X1h  1 4.300000e-01    3.590000e+00
 SC4vq   X1h  1 4.300000e-01    3.590000e+00
 SC5vq   X1h  1 4.300000e-01    3.590000e+00
 SC6vq   X1h  1 4.300000e-01    3.590000e+00
 SN1aq   X1h  1 4.300000e-01    3.160000e+00
 SN2aq   X1h  1 4.300000e-01    3.160000e+00
 SN3aq   X1h  1 4.300000e-01    3.160000e+00
 SN4aq   X1h  1 4.300000e-01    2.920000e+00
 SN5aq   X1h  1 4.300000e-01    2.920000e+00
 SN6aq   X1h  1 4.300000e-01    2.770000e+00
 SP1aq   X1h  1 4.300000e-01    2.770000e+00
 SP2aq   X1h  1 4.300000e-01    2.770000e+00
 SP3aq   X1h  1 4.300000e-01    2.770000e+00
 SP4aq   X1h  1 4.300000e-01    2.770000e+00
 SP5aq   X1h  1 4.300000e-01    2.530000e+00
 SP6aq   X1h  1 4.300000e-01    2.530000e+00
 SN1dq   X1h  1 4.300000e-01    3.160000e+00
 SN2dq   X1h  1 4.300000e-01    3.160000e+00
 SN3dq   X1h  1 4.300000e-01    3.160000e+00
 SN4dq   X1h  1 4.300000e-01    2.920000e+00
 SN5dq   X1h  1 4.300000e-01    2.920000e+00
 SN6dq   X1h  1 4.300000e-01    2.770000e+00
 SP1dq   X1h  1 4.300000e-01    2.770000e+00
 SP2dq   X1h  1 4.300000e-01    2.770000e+00
 SP3dq   X1h  1 4.300000e-01    2.770000e+00
 SP4dq   X1h  1 4.300000e-01    2.770000e+00
 SP5dq   X1h  1 4.300000e-01    2.530000e+00
 SP6dq   X1h  1 4.300000e-01    2.530000e+00
  SP6q  P6dh  1 4.300000e-01    5.210000e+00
 SP6dh   P5q  1 4.300000e-01    4.920000e+00
 SP6dh   P4q  1 4.300000e-01    4.680000e+00
 SP6dh   P3q  1 4.300000e-01    4.400000e+00
 SP6dh   P2q  1 4.300000e-01    4.400000e+00
 SP6dh   P1q  1 4.300000e-01    4.170000e+00
 SP6dh   N6q  1 4.300000e-01    3.970000e+00
 SP6dh   N5q  1 4.300000e-01    3.590000e+00
 SP6dh   N4q  1 4.300000e-01    3.380000e+00
 SP6dh   N3q  1 4.300000e-01    3.160000e+00
 SP6dh   N2q  1 4.300000e-01    2.920000e+00
 SP6dh   N1q  1 4.300000e-01    2.770000e+00
 SP6dh   C6q  1 4.300000e-01    2.770000e+00
 SP6dh   C5q  1 4.300000e-01    2.530000e+00
 SP6dh   C4q  1 4.300000e-01    2.320000e+00
 SP6dh   C3q  1 4.300000e-01    2.160000e+00
 SP6dh   C2q  1 4.300000e-01    2.160000e+00
 SP6dh   C1q  1 4.300000e-01    1.730000e+00
 SP6dh   X4q  1 4.300000e-01    2.920000e+00
 SP6dh   X3q  1 4.300000e-01    2.920000e+00
 SP6dh   X2q  1 4.300000e-01    2.770000e+00
 SP6dh   X1q  1 4.300000e-01    2.530000e+00
  SP6q  P5dh  1 4.300000e-01    4.920000e+00
  SP5q  P5dh  1 4.300000e-01    4.680000e+00
 SP5dh   P4q  1 4.300000e-01    4.400000e+00
 SP5dh   P3q  1 4.300000e-01    4.170000e+00
 SP5dh   P2q  1 4.300000e-01    4.170000e+00
 SP5dh   P1q  1 4.300000e-01    3.970000e+00
 SP5dh   N6q  1 4.300000e-01    3.770000e+00
 SP5dh   N5q  1 4.300000e-01    3.590000e+00
 SP5dh   N4q  1 4.300000e-01    3.590000e+00
 SP5dh   N3q  1 4.300000e-01    3.160000e+00
 SP5dh   N2q  1 4.300000e-01    2.920000e+00
 SP5dh   N1q  1 4.300000e-01    2.770000e+00
 SP5dh   C6q  1 4.300000e-01    2.770000e+00
 SP5dh   C5q  1 4.300000e-01    2.770000e+00
 SP5dh   C4q  1 4.300000e-01    2.530000e+00
 SP5dh   C3q  1 4.300000e-01    2.320000e+00
 SP5dh   C2q  1 4.300000e-01    2.320000e+00
 SP5dh   C1q  1 4.300000e-01    2.160000e+00
 SP5dh   X4q  1 4.300000e-01    3.160000e+00
 SP5dh   X3q  1 4.300000e-01    2.920000e+00
 SP5dh   X2q  1 4.300000e-01    2.920000e+00
 SP5dh   X1q  1 4.300000e-01    2.530000e+00
  SP6q  P4dh  1 4.300000e-01    4.680000e+00
  SP5q  P4dh  1 4.300000e-01    4.400000e+00
  SP4q  P4dh  1 4.300000e-01    4.400000e+00
 SP4dh   P3q  1 4.300000e-01    4.170000e+00
 SP4dh   P2q  1 4.300000e-01    4.170000e+00
 SP4dh   P1q  1 4.300000e-01    3.970000e+00
 SP4dh   N6q  1 4.300000e-01    3.770000e+00
 SP4dh   N5q  1 4.300000e-01    3.590000e+00
 SP4dh   N4q  1 4.300000e-01    3.590000e+00
 SP4dh   N3q  1 4.300000e-01    3.380000e+00
 SP4dh   N2q  1 4.300000e-01    3.160000e+00
 SP4dh   N1q  1 4.300000e-01    2.920000e+00
 SP4dh   C6q  1 4.300000e-01    2.920000e+00
 SP4dh   C5q  1 4.300000e-01    2.770000e+00
 SP4dh   C4q  1 4.300000e-01    2.530000e+00
 SP4dh   C3q  1 4.300000e-01    2.320000e+00
 SP4dh   C2q  1 4.300000e-01    2.320000e+00
 SP4dh   C1q  1 4.300000e-01    2.160000e+00
 SP4dh   X4q  1 4.300000e-01    3.160000e+00
 SP4dh   X3q  1 4.300000e-01    2.920000e+00
 SP4dh   X2q  1 4.300000e-01    2.920000e+00
 SP4dh   X1q  1 4.300000e-01    2.770000e+00
  SP6q  P3dh  1 4.300000e-01    4.400000e+00
  SP5q  P3dh  1 4.300000e-01    4.170000e+00
  SP4q  P3dh  1 4.300000e-01    4.170000e+00
  SP3q  P3dh  1 4.300000e-01    4.170000e+00
 SP3dh   P2q  1 4.300000e-01    4.170000e+00
 SP3dh   P1q  1 4.300000e-01    3.970000e+00
 SP3dh   N6q  1 4.300000e-01    3.770000e+00
 SP3dh   N5q  1 4.300000e-01    3.590000e+00
 SP3dh   N4q  1 4.300000e-01    3.590000e+00
 SP3dh   N3q  1 4.300000e-01    3.380000e+00
 SP3dh   N2q  1 4.300000e-01    3.380000e+00
 SP3dh   N1q  1 4.300000e-01    3.160000e+00
 SP3dh   C6q  1 4.300000e-01    3.160000e+00
 SP3dh   C5q  1 4.300000e-01    2.920000e+00
 SP3dh   C4q  1 4.300000e-01    2.770000e+00
 SP3dh   C3q  1 4.300000e-01    2.320000e+00
 SP3dh   C2q  1 4.300000e-01    2.320000e+00
 SP3dh   C1q  1 4.300000e-01    2.160000e+00
 SP3dh   X4q  1 4.300000e-01    3.160000e+00
 SP3dh   X3q  1 4.300000e-01    3.160000e+00
 SP3dh   X2q  1 4.300000e-01    2.920000e+00
 SP3dh   X1q  1 4.300000e-01    2.770000e+00
  SP6q  P2dh  1 4.300000e-01    4.400000e+00
  SP5q  P2dh  1 4.300000e-01    4.170000e+00
  SP4q  P2dh  1 4.300000e-01    4.170000e+00
  SP3q  P2dh  1 4.300000e-01    4.170000e+00
  SP2q  P2dh  1 4.300000e-01    4.170000e+00
 SP2dh   P1q  1 4.300000e-01    3.970000e+00
 SP2dh   N6q  1 4.300000e-01    3.970000e+00
 SP2dh   N5q  1 4.300000e-01    3.770000e+00
 SP2dh   N4q  1 4.300000e-01    3.590000e+00
 SP2dh   N3q  1 4.300000e-01    3.380000e+00
 SP2dh   N2q  1 4.300000e-01    3.380000e+00
 SP2dh   N1q  1 4.300000e-01    3.380000e+00
 SP2dh   C6q  1 4.300000e-01    3.160000e+00
 SP2dh   C5q  1 4.300000e-01    2.920000e+00
 SP2dh   C4q  1 4.300000e-01    2.770000e+00
 SP2dh   C3q  1 4.300000e-01    2.530000e+00
 SP2dh   C2q  1 4.300000e-01    2.530000e+00
 SP2dh   C1q  1 4.300000e-01    2.320000e+00
 SP2dh   X4q  1 4.300000e-01    3.160000e+00
 SP2dh   X3q  1 4.300000e-01    3.160000e+00
 SP2dh   X2q  1 4.300000e-01    2.920000e+00
 SP2dh   X1q  1 4.300000e-01    2.770000e+00
  SP6q  P1dh  1 4.300000e-01    4.170000e+00
  SP5q  P1dh  1 4.300000e-01    3.970000e+00
  SP4q  P1dh  1 4.300000e-01    3.970000e+00
  SP3q  P1dh  1 4.300000e-01    3.970000e+00
  SP2q  P1dh  1 4.300000e-01    3.970000e+00
  SP1q  P1dh  1 4.300000e-01    3.970000e+00
 SP1dh   N6q  1 4.300000e-01    3.970000e+00
 SP1dh   N5q  1 4.300000e-01    3.770000e+00
 SP1dh   N4q  1 4.300000e-01    3.770000e+00
 SP1dh   N3q  1 4.300000e-01    3.380000e+00
 SP1dh   N2q  1 4.300000e-01    3.380000e+00
 SP1dh   N1q  1 4.300000e-01    3.380000e+00
 SP1dh   C6q  1 4.300000e-01    3.160000e+00
 SP1dh   C5q  1 4.300000e-01    2.920000e+00
 SP1dh   C4q  1 4.300000e-01    2.770000e+00
 SP1dh   C3q  1 4.300000e-01    2.530000e+00
 SP1dh   C2q  1 4.300000e-01    2.530000e+00
 SP1dh   C1q  1 4.300000e-01    2.320000e+00
 SP1dh   X4q  1 4.300000e-01    3.160000e+00
 SP1dh   X3q  1 4.300000e-01    3.160000e+00
 SP1dh   X2q  1 4.300000e-01    2.920000e+00
 SP1dh   X1q  1 4.300000e-01    2.770000e+00
  SP6q  N6dh  1 4.300000e-01    3.970000e+00
  SP5q  N6dh  1 4.300000e-01    3.770000e+00
  SP4q  N6dh  1 4.300000e-01    3.770000e+00
  SP3q  N6dh  1 4.300000e-01    3.770000e+00
  SP2q  N6dh  1 4.300000e-01    3.970000e+00
  SP1q  N6dh  1 4.300000e-01    3.970000e+00
  SN6q  N6dh  1 4.300000e-01    3.970000e+00
 SN6dh   N5q  1 4.300000e-01    3.970000e+00
 SN6dh   N4q  1 4.300000e-01    3.970000e+00
 SN6dh   N3q  1 4.300000e-01    3.590000e+00
 SN6dh   N2q  1 4.300000e-01    3.380000e+00
 SN6dh   N1q  1 4.300000e-01    3.380000e+00
 SN6dh   C6q  1 4.300000e-01    3.380000e+00
 SN6dh   C5q  1 4.300000e-01    3.160000e+00
 SN6dh   C4q  1 4.300000e-01    2.920000e+00
 SN6dh   C3q  1 4.300000e-01    2.770000e+00
 SN6dh   C2q  1 4.300000e-01    2.770000e+00
 SN6dh   C1q  1 4.300000e-01    2.530000e+00
 SN6dh   X4q  1 4.300000e-01    3.380000e+00
 SN6dh   X3q  1 4.300000e-01    3.160000e+00
 SN6dh   X2q  1 4.300000e-01    2.920000e+00
 SN6dh   X1q  1 4.300000e-01    2.770000e+00
  SP6q  N5dh  1 4.300000e-01    3.590000e+00
  SP5q  N5dh  1 4.300000e-01    3.590000e+00
  SP4q  N5dh  1 4.300000e-01    3.590000e+00
  SP3q  N5dh  1 4.300000e-01    3.590000e+00
  SP2q  N5dh  1 4.300000e-01    3.770000e+00
  SP1q  N5dh  1 4.300000e-01    3.770000e+00
  SN6q  N5dh  1 4.300000e-01    3.970000e+00
  SN5q  N5dh  1 4.300000e-01    3.770000e+00
 SN5dh   N4q  1 4.300000e-01    3.770000e+00
 SN5dh   N3q  1 4.300000e-01    3.590000e+00
 SN5dh   N2q  1 4.300000e-01    3.590000e+00
 SN5dh   N1q  1 4.300000e-01    3.380000e+00
 SN5dh   C6q  1 4.300000e-01    3.380000e+00
 SN5dh   C5q  1 4.300000e-01    3.160000e+00
 SN5dh   C4q  1 4.300000e-01    2.920000e+00
 SN5dh   C3q  1 4.300000e-01    2.920000e+00
 SN5dh   C2q  1 4.300000e-01    2.770000e+00
 SN5dh   C1q  1 4.300000e-01    2.530000e+00
 SN5dh   X4q  1 4.300000e-01    3.590000e+00
 SN5dh   X3q  1 4.300000e-01    3.380000e+00
 SN5dh   X2q  1 4.300000e-01    3.160000e+00
 SN5dh   X1q  1 4.300000e-01    2.920000e+00
  SP6q  N4dh  1 4.300000e-01    3.380000e+00
  SP5q  N4dh  1 4.300000e-01    3.590000e+00
  SP4q  N4dh  1 4.300000e-01    3.590000e+00
  SP3q  N4dh  1 4.300000e-01    3.590000e+00
  SP2q  N4dh  1 4.300000e-01    3.590000e+00
  SP1q  N4dh  1 4.300000e-01    3.770000e+00
  SN6q  N4dh  1 4.300000e-01    3.970000e+00
  SN5q  N4dh  1 4.300000e-01    3.770000e+00
  SN4q  N4dh  1 4.300000e-01    3.770000e+00
 SN4dh   N3q  1 4.300000e-01    3.590000e+00
 SN4dh   N2q  1 4.300000e-01    3.590000e+00
 SN4dh   N1q  1 4.300000e-01    3.380000e+00
 SN4dh   C6q  1 4.300000e-01    3.380000e+00
 SN4dh   C5q  1 4.300000e-01    3.160000e+00
 SN4dh   C4q  1 4.300000e-01    3.160000e+00
 SN4dh   C3q  1 4.300000e-01    2.920000e+00
 SN4dh   C2q  1 4.300000e-01    2.770000e+00
 SN4dh   C1q  1 4.300000e-01    2.530000e+00
 SN4dh   X4q  1 4.300000e-01    3.770000e+00
 SN4dh   X3q  1 4.300000e-01    3.590000e+00
 SN4dh   X2q  1 4.300000e-01    3.160000e+00
 SN4dh   X1q  1 4.300000e-01    2.920000e+00
  SP6q  N3dh  1 4.300000e-01    3.160000e+00
  SP5q  N3dh  1 4.300000e-01    3.160000e+00
  SP4q  N3dh  1 4.300000e-01    3.380000e+00
  SP3q  N3dh  1 4.300000e-01    3.380000e+00
  SP2q  N3dh  1 4.300000e-01    3.380000e+00
  SP1q  N3dh  1 4.300000e-01    3.380000e+00
  SN6q  N3dh  1 4.300000e-01    3.590000e+00
  SN5q  N3dh  1 4.300000e-01    3.590000e+00
  SN4q  N3dh  1 4.300000e-01    3.590000e+00
  SN3q  N3dh  1 4.300000e-01    3.590000e+00
 SN3dh   N2q  1 4.300000e-01    3.590000e+00
 SN3dh   N1q  1 4.300000e-01    3.380000e+00
 SN3dh   C6q  1 4.300000e-01    3.380000e+00
 SN3dh   C5q  1 4.300000e-01    3.160000e+00
 SN3dh   C4q  1 4.300000e-01    3.160000e+00
 SN3dh   C3q  1 4.300000e-01    2.920000e+00
 SN3dh   C2q  1 4.300000e-01    2.920000e+00
 SN3dh   C1q  1 4.300000e-01    2.770000e+00
 SN3dh   X4q  1 4.300000e-01    3.590000e+00
 SN3dh   X3q  1 4.300000e-01    3.380000e+00
 SN3dh   X2q  1 4.300000e-01    3.160000e+00
 SN3dh   X1q  1 4.300000e-01    3.160000e+00
  SP6q  N2dh  1 4.300000e-01    2.920000e+00
  SP5q  N2dh  1 4.300000e-01    2.920000e+00
  SP4q  N2dh  1 4.300000e-01    3.160000e+00
  SP3q  N2dh  1 4.300000e-01    3.380000e+00
  SP2q  N2dh  1 4.300000e-01    3.380000e+00
  SP1q  N2dh  1 4.300000e-01    3.380000e+00
  SN6q  N2dh  1 4.300000e-01    3.380000e+00
  SN5q  N2dh  1 4.300000e-01    3.590000e+00
  SN4q  N2dh  1 4.300000e-01    3.590000e+00
  SN3q  N2dh  1 4.300000e-01    3.590000e+00
  SN2q  N2dh  1 4.300000e-01    3.590000e+00
 SN2dh   N1q  1 4.300000e-01    3.380000e+00
 SN2dh   C6q  1 4.300000e-01    3.380000e+00
 SN2dh   C5q  1 4.300000e-01    3.160000e+00
 SN2dh   C4q  1 4.300000e-01    3.160000e+00
 SN2dh   C3q  1 4.300000e-01    3.160000e+00
 SN2dh   C2q  1 4.300000e-01    2.920000e+00
 SN2dh   C1q  1 4.300000e-01    2.770000e+00
 SN2dh   X4q  1 4.300000e-01    3.590000e+00
 SN2dh   X3q  1 4.300000e-01    3.380000e+00
 SN2dh   X2q  1 4.300000e-01    3.160000e+00
 SN2dh   X1q  1 4.300000e-01    3.160000e+00
  SP6q  N1dh  1 4.300000e-01    2.770000e+00
  SP5q  N1dh  1 4.300000e-01    2.770000e+00
  SP4q  N1dh  1 4.300000e-01    2.920000e+00
  SP3q  N1dh  1 4.300000e-01    3.160000e+00
  SP2q  N1dh  1 4.300000e-01    3.380000e+00
  SP1q  N1dh  1 4.300000e-01    3.380000e+00
  SN6q  N1dh  1 4.300000e-01    3.380000e+00
  SN5q  N1dh  1 4.300000e-01    3.380000e+00
  SN4q  N1dh  1 4.300000e-01    3.380000e+00
  SN3q  N1dh  1 4.300000e-01    3.380000e+00
  SN2q  N1dh  1 4.300000e-01    3.380000e+00
  SN1q  N1dh  1 4.300000e-01    3.590000e+00
 SN1dh   C6q  1 4.300000e-01    3.590000e+00
 SN1dh   C5q  1 4.300000e-01    3.380000e+00
 SN1dh   C4q  1 4.300000e-01    3.380000e+00
 SN1dh   C3q  1 4.300000e-01    3.160000e+00
 SN1dh   C2q  1 4.300000e-01    2.920000e+00
 SN1dh   C1q  1 4.300000e-01    2.770000e+00
 SN1dh   X4q  1 4.300000e-01    3.380000e+00
 SN1dh   X3q  1 4.300000e-01    3.380000e+00
 SN1dh   X2q  1 4.300000e-01    3.160000e+00
 SN1dh   X1q  1 4.300000e-01    3.160000e+00
  SP6q  P6ah  1 4.300000e-01    5.210000e+00
 SP6ah   P5q  1 4.300000e-01    4.920000e+00
 SP6ah   P4q  1 4.300000e-01    4.680000e+00
 SP6ah   P3q  1 4.300000e-01    4.400000e+00
 SP6ah   P2q  1 4.300000e-01    4.400000e+00
 SP6ah   P1q  1 4.300000e-01    4.170000e+00
 SP6ah   N6q  1 4.300000e-01    3.970000e+00
 SP6ah   N5q  1 4.300000e-01    3.590000e+00
 SP6ah   N4q  1 4.300000e-01    3.380000e+00
 SP6ah   N3q  1 4.300000e-01    3.160000e+00
 SP6ah   N2q  1 4.300000e-01    2.920000e+00
 SP6ah   N1q  1 4.300000e-01    2.770000e+00
 SP6ah   C6q  1 4.300000e-01    2.770000e+00
 SP6ah   C5q  1 4.300000e-01    2.530000e+00
 SP6ah   C4q  1 4.300000e-01    2.320000e+00
 SP6ah   C3q  1 4.300000e-01    2.160000e+00
 SP6ah   C2q  1 4.300000e-01    2.160000e+00
 SP6ah   C1q  1 4.300000e-01    1.730000e+00
 SP6ah   X4q  1 4.300000e-01    2.920000e+00
 SP6ah   X3q  1 4.300000e-01    2.920000e+00
 SP6ah   X2q  1 4.300000e-01    2.770000e+00
 SP6ah   X1q  1 4.300000e-01    2.530000e+00
  SP6q  P5ah  1 4.300000e-01    4.920000e+00
  SP5q  P5ah  1 4.300000e-01    4.680000e+00
 SP5ah   P4q  1 4.300000e-01    4.400000e+00
 SP5ah   P3q  1 4.300000e-01    4.170000e+00
 SP5ah   P2q  1 4.300000e-01    4.170000e+00
 SP5ah   P1q  1 4.300000e-01    3.970000e+00
 SP5ah   N6q  1 4.300000e-01    3.770000e+00
 SP5ah   N5q  1 4.300000e-01    3.590000e+00
 SP5ah   N4q  1 4.300000e-01    3.590000e+00
 SP5ah   N3q  1 4.300000e-01    3.160000e+00
 SP5ah   N2q  1 4.300000e-01    2.920000e+00
 SP5ah   N1q  1 4.300000e-01    2.770000e+00
 SP5ah   C6q  1 4.300000e-01    2.770000e+00
 SP5ah   C5q  1 4.300000e-01    2.770000e+00
 SP5ah   C4q  1 4.300000e-01    2.530000e+00
 SP5ah   C3q  1 4.300000e-01    2.320000e+00
 SP5ah   C2q  1 4.300000e-01    2.320000e+00
 SP5ah   C1q  1 4.300000e-01    2.160000e+00
 SP5ah   X4q  1 4.300000e-01    3.160000e+00
 SP5ah   X3q  1 4.300000e-01    2.920000e+00
 SP5ah   X2q  1 4.300000e-01    2.920000e+00
 SP5ah   X1q  1 4.300000e-01    2.530000e+00
  SP6q  P4ah  1 4.300000e-01    4.680000e+00
  SP5q  P4ah  1 4.300000e-01    4.400000e+00
  SP4q  P4ah  1 4.300000e-01    4.400000e+00
 SP4ah   P3q  1 4.300000e-01    4.170000e+00
 SP4ah   P2q  1 4.300000e-01    4.170000e+00
 SP4ah   P1q  1 4.300000e-01    3.970000e+00
 SP4ah   N6q  1 4.300000e-01    3.770000e+00
 SP4ah   N5q  1 4.300000e-01    3.590000e+00
 SP4ah   N4q  1 4.300000e-01    3.590000e+00
 SP4ah   N3q  1 4.300000e-01    3.380000e+00
 SP4ah   N2q  1 4.300000e-01    3.160000e+00
 SP4ah   N1q  1 4.300000e-01    2.920000e+00
 SP4ah   C6q  1 4.300000e-01    2.920000e+00
 SP4ah   C5q  1 4.300000e-01    2.770000e+00
 SP4ah   C4q  1 4.300000e-01    2.530000e+00
 SP4ah   C3q  1 4.300000e-01    2.320000e+00
 SP4ah   C2q  1 4.300000e-01    2.320000e+00
 SP4ah   C1q  1 4.300000e-01    2.160000e+00
 SP4ah   X4q  1 4.300000e-01    3.160000e+00
 SP4ah   X3q  1 4.300000e-01    2.920000e+00
 SP4ah   X2q  1 4.300000e-01    2.920000e+00
 SP4ah   X1q  1 4.300000e-01    2.770000e+00
  SP6q  P3ah  1 4.300000e-01    4.400000e+00
  SP5q  P3ah  1 4.300000e-01    4.170000e+00
  SP4q  P3ah  1 4.300000e-01    4.170000e+00
  SP3q  P3ah  1 4.300000e-01    4.170000e+00
 SP3ah   P2q  1 4.300000e-01    4.170000e+00
 SP3ah   P1q  1 4.300000e-01    3.970000e+00
 SP3ah   N6q  1 4.300000e-01    3.770000e+00
 SP3ah   N5q  1 4.300000e-01    3.590000e+00
 SP3ah   N4q  1 4.300000e-01    3.590000e+00
 SP3ah   N3q  1 4.300000e-01    3.380000e+00
 SP3ah   N2q  1 4.300000e-01    3.380000e+00
 SP3ah   N1q  1 4.300000e-01    3.160000e+00
 SP3ah   C6q  1 4.300000e-01    3.160000e+00
 SP3ah   C5q  1 4.300000e-01    2.920000e+00
 SP3ah   C4q  1 4.300000e-01    2.770000e+00
 SP3ah   C3q  1 4.300000e-01    2.320000e+00
 SP3ah   C2q  1 4.300000e-01    2.320000e+00
 SP3ah   C1q  1 4.300000e-01    2.160000e+00
 SP3ah   X4q  1 4.300000e-01    3.160000e+00
 SP3ah   X3q  1 4.300000e-01    3.160000e+00
 SP3ah   X2q  1 4.300000e-01    2.920000e+00
 SP3ah   X1q  1 4.300000e-01    2.770000e+00
  SP6q  P2ah  1 4.300000e-01    4.400000e+00
  SP5q  P2ah  1 4.300000e-01    4.170000e+00
  SP4q  P2ah  1 4.300000e-01    4.170000e+00
  SP3q  P2ah  1 4.300000e-01    4.170000e+00
  SP2q  P2ah  1 4.300000e-01    4.170000e+00
 SP2ah   P1q  1 4.300000e-01    3.970000e+00
 SP2ah   N6q  1 4.300000e-01    3.970000e+00
 SP2ah   N5q  1 4.300000e-01    3.770000e+00
 SP2ah   N4q  1 4.300000e-01    3.590000e+00
 SP2ah   N3q  1 4.300000e-01    3.380000e+00
 SP2ah   N2q  1 4.300000e-01    3.380000e+00
 SP2ah   N1q  1 4.300000e-01    3.380000e+00
 SP2ah   C6q  1 4.300000e-01    3.160000e+00
 SP2ah   C5q  1 4.300000e-01    2.920000e+00
 SP2ah   C4q  1 4.300000e-01    2.770000e+00
 SP2ah   C3q  1 4.300000e-01    2.530000e+00
 SP2ah   C2q  1 4.300000e-01    2.530000e+00
 SP2ah   C1q  1 4.300000e-01    2.320000e+00
 SP2ah   X4q  1 4.300000e-01    3.160000e+00
 SP2ah   X3q  1 4.300000e-01    3.160000e+00
 SP2ah   X2q  1 4.300000e-01    2.920000e+00
 SP2ah   X1q  1 4.300000e-01    2.770000e+00
  SP6q  P1ah  1 4.300000e-01    4.170000e+00
  SP5q  P1ah  1 4.300000e-01    3.970000e+00
  SP4q  P1ah  1 4.300000e-01    3.970000e+00
  SP3q  P1ah  1 4.300000e-01    3.970000e+00
  SP2q  P1ah  1 4.300000e-01    3.970000e+00
  SP1q  P1ah  1 4.300000e-01    3.970000e+00
 SP1ah   N6q  1 4.300000e-01    3.970000e+00
 SP1ah   N5q  1 4.300000e-01    3.770000e+00
 SP1ah   N4q  1 4.300000e-01    3.770000e+00
 SP1ah   N3q  1 4.300000e-01    3.380000e+00
 SP1ah   N2q  1 4.300000e-01    3.380000e+00
 SP1ah   N1q  1 4.300000e-01    3.380000e+00
 SP1ah   C6q  1 4.300000e-01    3.160000e+00
 SP1ah   C5q  1 4.300000e-01    2.920000e+00
 SP1ah   C4q  1 4.300000e-01    2.770000e+00
 SP1ah   C3q  1 4.300000e-01    2.530000e+00
 SP1ah   C2q  1 4.300000e-01    2.530000e+00
 SP1ah   C1q  1 4.300000e-01    2.320000e+00
 SP1ah   X4q  1 4.300000e-01    3.160000e+00
 SP1ah   X3q  1 4.300000e-01    3.160000e+00
 SP1ah   X2q  1 4.300000e-01    2.920000e+00
 SP1ah   X1q  1 4.300000e-01    2.770000e+00
  SP6q  N6ah  1 4.300000e-01    3.970000e+00
  SP5q  N6ah  1 4.300000e-01    3.770000e+00
  SP4q  N6ah  1 4.300000e-01    3.770000e+00
  SP3q  N6ah  1 4.300000e-01    3.770000e+00
  SP2q  N6ah  1 4.300000e-01    3.970000e+00
  SP1q  N6ah  1 4.300000e-01    3.970000e+00
  SN6q  N6ah  1 4.300000e-01    3.970000e+00
 SN6ah   N5q  1 4.300000e-01    3.970000e+00
 SN6ah   N4q  1 4.300000e-01    3.970000e+00
 SN6ah   N3q  1 4.300000e-01    3.590000e+00
 SN6ah   N2q  1 4.300000e-01    3.380000e+00
 SN6ah   N1q  1 4.300000e-01    3.380000e+00
 SN6ah   C6q  1 4.300000e-01    3.380000e+00
 SN6ah   C5q  1 4.300000e-01    3.160000e+00
 SN6ah   C4q  1 4.300000e-01    2.920000e+00
 SN6ah   C3q  1 4.300000e-01    2.770000e+00
 SN6ah   C2q  1 4.300000e-01    2.770000e+00
 SN6ah   C1q  1 4.300000e-01    2.530000e+00
 SN6ah   X4q  1 4.300000e-01    3.380000e+00
 SN6ah   X3q  1 4.300000e-01    3.160000e+00
 SN6ah   X2q  1 4.300000e-01    2.920000e+00
 SN6ah   X1q  1 4.300000e-01    2.770000e+00
  SP6q  N5ah  1 4.300000e-01    3.590000e+00
  SP5q  N5ah  1 4.300000e-01    3.590000e+00
  SP4q  N5ah  1 4.300000e-01    3.590000e+00
  SP3q  N5ah  1 4.300000e-01    3.590000e+00
  SP2q  N5ah  1 4.300000e-01    3.770000e+00
  SP1q  N5ah  1 4.300000e-01    3.770000e+00
  SN6q  N5ah  1 4.300000e-01    3.970000e+00
  SN5q  N5ah  1 4.300000e-01    3.770000e+00
 SN5ah   N4q  1 4.300000e-01    3.770000e+00
 SN5ah   N3q  1 4.300000e-01    3.590000e+00
 SN5ah   N2q  1 4.300000e-01    3.590000e+00
 SN5ah   N1q  1 4.300000e-01    3.380000e+00
 SN5ah   C6q  1 4.300000e-01    3.380000e+00
 SN5ah   C5q  1 4.300000e-01    3.160000e+00
 SN5ah   C4q  1 4.300000e-01    2.920000e+00
 SN5ah   C3q  1 4.300000e-01    2.920000e+00
 SN5ah   C2q  1 4.300000e-01    2.770000e+00
 SN5ah   C1q  1 4.300000e-01    2.530000e+00
 SN5ah   X4q  1 4.300000e-01    3.590000e+00
 SN5ah   X3q  1 4.300000e-01    3.380000e+00
 SN5ah   X2q  1 4.300000e-01    3.160000e+00
 SN5ah   X1q  1 4.300000e-01    2.920000e+00
  SP6q  N4ah  1 4.300000e-01    3.380000e+00
  SP5q  N4ah  1 4.300000e-01    3.590000e+00
  SP4q  N4ah  1 4.300000e-01    3.590000e+00
  SP3q  N4ah  1 4.300000e-01    3.590000e+00
  SP2q  N4ah  1 4.300000e-01    3.590000e+00
  SP1q  N4ah  1 4.300000e-01    3.770000e+00
  SN6q  N4ah  1 4.300000e-01    3.970000e+00
  SN5q  N4ah  1 4.300000e-01    3.770000e+00
  SN4q  N4ah  1 4.300000e-01    3.770000e+00
 SN4ah   N3q  1 4.300000e-01    3.590000e+00
 SN4ah   N2q  1 4.300000e-01    3.590000e+00
 SN4ah   N1q  1 4.300000e-01    3.380000e+00
 SN4ah   C6q  1 4.300000e-01    3.380000e+00
 SN4ah   C5q  1 4.300000e-01    3.160000e+00
 SN4ah   C4q  1 4.300000e-01    3.160000e+00
 SN4ah   C3q  1 4.300000e-01    2.920000e+00
 SN4ah   C2q  1 4.300000e-01    2.770000e+00
 SN4ah   C1q  1 4.300000e-01    2.530000e+00
 SN4ah   X4q  1 4.300000e-01    3.770000e+00
 SN4ah   X3q  1 4.300000e-01    3.590000e+00
 SN4ah   X2q  1 4.300000e-01    3.160000e+00
 SN4ah   X1q  1 4.300000e-01    2.920000e+00
  SP6q  N3ah  1 4.300000e-01    3.160000e+00
  SP5q  N3ah  1 4.300000e-01    3.160000e+00
  SP4q  N3ah  1 4.300000e-01    3.380000e+00
  SP3q  N3ah  1 4.300000e-01    3.380000e+00
  SP2q  N3ah  1 4.300000e-01    3.380000e+00
  SP1q  N3ah  1 4.300000e-01    3.380000e+00
  SN6q  N3ah  1 4.300000e-01    3.590000e+00
  SN5q  N3ah  1 4.300000e-01    3.590000e+00
  SN4q  N3ah  1 4.300000e-01    3.590000e+00
  SN3q  N3ah  1 4.300000e-01    3.590000e+00
 SN3ah   N2q  1 4.300000e-01    3.590000e+00
 SN3ah   N1q  1 4.300000e-01    3.380000e+00
 SN3ah   C6q  1 4.300000e-01    3.380000e+00
 SN3ah   C5q  1 4.300000e-01    3.160000e+00
 SN3ah   C4q  1 4.300000e-01    3.160000e+00
 SN3ah   C3q  1 4.300000e-01    2.920000e+00
 SN3ah   C2q  1 4.300000e-01    2.920000e+00
 SN3ah   C1q  1 4.300000e-01    2.770000e+00
 SN3ah   X4q  1 4.300000e-01    3.590000e+00
 SN3ah   X3q  1 4.300000e-01    3.380000e+00
 SN3ah   X2q  1 4.300000e-01    3.160000e+00
 SN3ah   X1q  1 4.300000e-01    3.160000e+00
  SP6q  N2ah  1 4.300000e-01    2.920000e+00
  SP5q  N2ah  1 4.300000e-01    2.920000e+00
  SP4q  N2ah  1 4.300000e-01    3.160000e+00
  SP3q  N2ah  1 4.300000e-01    3.380000e+00
  SP2q  N2ah  1 4.300000e-01    3.380000e+00
  SP1q  N2ah  1 4.300000e-01    3.380000e+00
  SN6q  N2ah  1 4.300000e-01    3.380000e+00
  SN5q  N2ah  1 4.300000e-01    3.590000e+00
  SN4q  N2ah  1 4.300000e-01    3.590000e+00
  SN3q  N2ah  1 4.300000e-01    3.590000e+00
  SN2q  N2ah  1 4.300000e-01    3.590000e+00
 SN2ah   N1q  1 4.300000e-01    3.380000e+00
 SN2ah   C6q  1 4.300000e-01    3.380000e+00
 SN2ah   C5q  1 4.300000e-01    3.160000e+00
 SN2ah   C4q  1 4.300000e-01    3.160000e+00
 SN2ah   C3q  1 4.300000e-01    3.160000e+00
 SN2ah   C2q  1 4.300000e-01    2.920000e+00
 SN2ah   C1q  1 4.300000e-01    2.770000e+00
 SN2ah   X4q  1 4.300000e-01    3.590000e+00
 SN2ah   X3q  1 4.300000e-01    3.380000e+00
 SN2ah   X2q  1 4.300000e-01    3.160000e+00
 SN2ah   X1q  1 4.300000e-01    3.160000e+00
  SP6q  N1ah  1 4.300000e-01    2.770000e+00
  SP5q  N1ah  1 4.300000e-01    2.770000e+00
  SP4q  N1ah  1 4.300000e-01    2.920000e+00
  SP3q  N1ah  1 4.300000e-01    3.160000e+00
  SP2q  N1ah  1 4.300000e-01    3.380000e+00
  SP1q  N1ah  1 4.300000e-01    3.380000e+00
  SN6q  N1ah  1 4.300000e-01    3.380000e+00
  SN5q  N1ah  1 4.300000e-01    3.380000e+00
  SN4q  N1ah  1 4.300000e-01    3.380000e+00
  SN3q  N1ah  1 4.300000e-01    3.380000e+00
  SN2q  N1ah  1 4.300000e-01    3.380000e+00
  SN1q  N1ah  1 4.300000e-01    3.590000e+00
 SN1ah   C6q  1 4.300000e-01    3.590000e+00
 SN1ah   C5q  1 4.300000e-01    3.380000e+00
 SN1ah   C4q  1 4.300000e-01    3.380000e+00
 SN1ah   C3q  1 4.300000e-01    3.160000e+00
 SN1ah   C2q  1 4.300000e-01    2.920000e+00
 SN1ah   C1q  1 4.300000e-01    2.770000e+00
 SN1ah   X4q  1 4.300000e-01    3.380000e+00
 SN1ah   X3q  1 4.300000e-01    3.380000e+00
 SN1ah   X2q  1 4.300000e-01    3.160000e+00
 SN1ah   X1q  1 4.300000e-01    3.160000e+00
  SC6v  C6vh  1 4.300000e-01    2.920000e+00
 SC6vh   C5v  1 4.300000e-01    2.770000e+00
 SC6vh   C4v  1 4.300000e-01    2.770000e+00
 SC6vh   C3v  1 4.300000e-01    2.530000e+00
 SC6vh   C2v  1 4.300000e-01    2.320000e+00
 SC6vh   C1v  1 4.300000e-01    2.160000e+00
 SC6vh   X4v  1 4.300000e-01    2.770000e+00
 SC6vh   X3v  1 4.300000e-01    2.770000e+00
 SC6vh   X2v  1 4.300000e-01    2.770000e+00
 SC6vh   X1v  1 4.300000e-01    2.770000e+00
  SP6q  C6vh  1 4.300000e-01    2.920000e+00
  SP5q  C6vh  1 4.300000e-01    2.920000e+00
  SP4q  C6vh  1 4.300000e-01    3.160000e+00
  SP3q  C6vh  1 4.300000e-01    3.380000e+00
  SP2q  C6vh  1 4.300000e-01    3.380000e+00
  SP1q  C6vh  1 4.300000e-01    3.380000e+00
  SN6q  C6vh  1 4.300000e-01    3.590000e+00
  SN5q  C6vh  1 4.300000e-01    3.590000e+00
  SN4q  C6vh  1 4.300000e-01    3.590000e+00
  SN3q  C6vh  1 4.300000e-01    3.590000e+00
  SN2q  C6vh  1 4.300000e-01    3.590000e+00
  SN1q  C6vh  1 4.300000e-01    3.770000e+00
  SC6q  C6vh  1 4.300000e-01    3.770000e+00
 SC6vh   C5q  1 4.300000e-01    3.590000e+00
 SC6vh   C4q  1 4.300000e-01    3.590000e+00
 SC6vh   C3q  1 4.300000e-01    3.380000e+00
 SC6vh   C2q  1 4.300000e-01    3.160000e+00
 SC6vh   C1q  1 4.300000e-01    2.920000e+00
 SC6vh   X4q  1 4.300000e-01    3.590000e+00
 SC6vh   X3q  1 4.300000e-01    3.590000e+00
 SC6vh   X2q  1 4.300000e-01    3.590000e+00
 SC6vh   X1q  1 4.300000e-01    3.590000e+00
 SC6vh  C6vq  1 4.300000e-01    3.380000e+00
 SC6vh  X1vq  1 4.300000e-01    3.160000e+00
 SC6vh  X2vq  1 4.300000e-01    3.160000e+00
 SC6vh  X3vq  1 4.300000e-01    3.160000e+00
 SC6vh  X4vq  1 4.300000e-01    3.160000e+00
 SC6vh  C1vq  1 4.300000e-01    2.530000e+00
 SC6vh  C2vq  1 4.300000e-01    2.770000e+00
 SC6vh  C3vq  1 4.300000e-01    2.920000e+00
 SC6vh  C4vq  1 4.300000e-01    3.160000e+00
 SC6vh  C5vq  1 4.300000e-01    3.160000e+00
  SC5v  C5vh  1 4.300000e-01    2.770000e+00
 SC5vh   C4v  1 4.300000e-01    2.770000e+00
 SC5vh   C3v  1 4.300000e-01    2.530000e+00
 SC5vh   C2v  1 4.300000e-01    2.320000e+00
 SC5vh   C1v  1 4.300000e-01    2.320000e+00
 SC5vh   X4v  1 4.300000e-01    2.530000e+00
 SC5vh   X3v  1 4.300000e-01    2.530000e+00
 SC5vh   X2v  1 4.300000e-01    2.530000e+00
 SC5vh   X1v  1 4.300000e-01    2.770000e+00
  SP6q  C5vh  1 4.300000e-01    2.770000e+00
  SP5q  C5vh  1 4.300000e-01    2.920000e+00
  SP4q  C5vh  1 4.300000e-01    2.920000e+00
  SP3q  C5vh  1 4.300000e-01    3.160000e+00
  SP2q  C5vh  1 4.300000e-01    3.160000e+00
  SP1q  C5vh  1 4.300000e-01    3.160000e+00
  SN6q  C5vh  1 4.300000e-01    3.380000e+00
  SN5q  C5vh  1 4.300000e-01    3.380000e+00
  SN4q  C5vh  1 4.300000e-01    3.380000e+00
  SN3q  C5vh  1 4.300000e-01    3.380000e+00
  SN2q  C5vh  1 4.300000e-01    3.380000e+00
  SN1q  C5vh  1 4.300000e-01    3.590000e+00
  SC6q  C5vh  1 4.300000e-01    3.590000e+00
  SC5q  C5vh  1 4.300000e-01    3.590000e+00
 SC5vh   C4q  1 4.300000e-01    3.590000e+00
 SC5vh   C3q  1 4.300000e-01    3.380000e+00
 SC5vh   C2q  1 4.300000e-01    3.160000e+00
 SC5vh   C1q  1 4.300000e-01    3.160000e+00
 SC5vh   X4q  1 4.300000e-01    3.380000e+00
 SC5vh   X3q  1 4.300000e-01    3.380000e+00
 SC5vh   X2q  1 4.300000e-01    3.380000e+00
 SC5vh   X1q  1 4.300000e-01    3.590000e+00
 SC6vq  C5vh  1 4.300000e-01    3.160000e+00
 SC5vh  C5vq  1 4.300000e-01    3.160000e+00
 SC5vh  X1vq  1 4.300000e-01    3.160000e+00
 SC5vh  X2vq  1 4.300000e-01    2.920000e+00
 SC5vh  X3vq  1 4.300000e-01    2.920000e+00
 SC5vh  X4vq  1 4.300000e-01    2.920000e+00
 SC5vh  C1vq  1 4.300000e-01    2.770000e+00
 SC5vh  C2vq  1 4.300000e-01    2.770000e+00
 SC5vh  C3vq  1 4.300000e-01    2.920000e+00
 SC5vh  C4vq  1 4.300000e-01    3.160000e+00
  SC4v  C4vh  1 4.300000e-01    2.770000e+00
 SC4vh   C3v  1 4.300000e-01    2.770000e+00
 SC4vh   C2v  1 4.300000e-01    2.530000e+00
 SC4vh   C1v  1 4.300000e-01    2.320000e+00
 SC4vh   X4v  1 4.300000e-01    2.530000e+00
 SC4vh   X3v  1 4.300000e-01    2.530000e+00
 SC4vh   X2v  1 4.300000e-01    2.530000e+00
 SC4vh   X1v  1 4.300000e-01    2.770000e+00
  SP6q  C4vh  1 4.300000e-01    2.530000e+00
  SP5q  C4vh  1 4.300000e-01    2.770000e+00
  SP4q  C4vh  1 4.300000e-01    2.770000e+00
  SP3q  C4vh  1 4.300000e-01    2.920000e+00
  SP2q  C4vh  1 4.300000e-01    2.920000e+00
  SP1q  C4vh  1 4.300000e-01    2.920000e+00
  SN6q  C4vh  1 4.300000e-01    3.160000e+00
  SN5q  C4vh  1 4.300000e-01    3.160000e+00
  SN4q  C4vh  1 4.300000e-01    3.380000e+00
  SN3q  C4vh  1 4.300000e-01    3.380000e+00
  SN2q  C4vh  1 4.300000e-01    3.380000e+00
  SN1q  C4vh  1 4.300000e-01    3.590000e+00
  SC6q  C4vh  1 4.300000e-01    3.590000e+00
  SC5q  C4vh  1 4.300000e-01    3.590000e+00
  SC4q  C4vh  1 4.300000e-01    3.590000e+00
 SC4vh   C3q  1 4.300000e-01    3.590000e+00
 SC4vh   C2q  1 4.300000e-01    3.380000e+00
 SC4vh   C1q  1 4.300000e-01    3.160000e+00
 SC4vh   X4q  1 4.300000e-01    3.380000e+00
 SC4vh   X3q  1 4.300000e-01    3.380000e+00
 SC4vh   X2q  1 4.300000e-01    3.380000e+00
 SC4vh   X1q  1 4.300000e-01    3.590000e+00
 SC6vq  C4vh  1 4.300000e-01    3.160000e+00
 SC5vq  C4vh  1 4.300000e-01    3.160000e+00
 SC4vh  C4vq  1 4.300000e-01    3.160000e+00
 SC4vh  X1vq  1 4.300000e-01    3.160000e+00
 SC4vh  X2vq  1 4.300000e-01    2.920000e+00
 SC4vh  X3vq  1 4.300000e-01    2.920000e+00
 SC4vh  X4vq  1 4.300000e-01    2.920000e+00
 SC4vh  C1vq  1 4.300000e-01    2.770000e+00
 SC4vh  C2vq  1 4.300000e-01    2.920000e+00
 SC4vh  C3vq  1 4.300000e-01    3.160000e+00
  SC3v  C3vh  1 4.300000e-01    2.770000e+00
 SC3vh   C2v  1 4.300000e-01    2.770000e+00
 SC3vh   C1v  1 4.300000e-01    2.770000e+00
 SC3vh   X4v  1 4.300000e-01    2.530000e+00
 SC3vh   X3v  1 4.300000e-01    2.530000e+00
 SC3vh   X2v  1 4.300000e-01    2.530000e+00
 SC3vh   X1v  1 4.300000e-01    2.770000e+00
  SP6q  C3vh  1 4.300000e-01    2.320000e+00
  SP5q  C3vh  1 4.300000e-01    2.530000e+00
  SP4q  C3vh  1 4.300000e-01    2.530000e+00
  SP3q  C3vh  1 4.300000e-01    2.530000e+00
  SP2q  C3vh  1 4.300000e-01    2.770000e+00
  SP1q  C3vh  1 4.300000e-01    2.770000e+00
  SN6q  C3vh  1 4.300000e-01    2.920000e+00
  SN5q  C3vh  1 4.300000e-01    3.160000e+00
  SN4q  C3vh  1 4.300000e-01    3.160000e+00
  SN3q  C3vh  1 4.300000e-01    3.160000e+00
  SN2q  C3vh  1 4.300000e-01    3.380000e+00
  SN1q  C3vh  1 4.300000e-01    3.380000e+00
  SC6q  C3vh  1 4.300000e-01    3.380000e+00
  SC5q  C3vh  1 4.300000e-01    3.380000e+00
  SC4q  C3vh  1 4.300000e-01    3.590000e+00
  SC3q  C3vh  1 4.300000e-01    3.590000e+00
 SC3vh   C2q  1 4.300000e-01    3.590000e+00
 SC3vh   C1q  1 4.300000e-01    3.590000e+00
 SC3vh   X4q  1 4.300000e-01    3.380000e+00
 SC3vh   X3q  1 4.300000e-01    3.380000e+00
 SC3vh   X2q  1 4.300000e-01    3.380000e+00
 SC3vh   X1q  1 4.300000e-01    3.590000e+00
 SC6vq  C3vh  1 4.300000e-01    2.920000e+00
 SC5vq  C3vh  1 4.300000e-01    2.920000e+00
 SC4vq  C3vh  1 4.300000e-01    3.160000e+00
 SC3vh  C3vq  1 4.300000e-01    3.160000e+00
 SC3vh  X1vq  1 4.300000e-01    3.160000e+00
 SC3vh  X2vq  1 4.300000e-01    2.920000e+00
 SC3vh  X3vq  1 4.300000e-01    2.920000e+00
 SC3vh  X4vq  1 4.300000e-01    2.920000e+00
 SC3vh  C1vq  1 4.300000e-01    3.160000e+00
 SC3vh  C2vq  1 4.300000e-01    3.160000e+00
  SC2v  C2vh  1 4.300000e-01    2.770000e+00
 SC2vh   C1v  1 4.300000e-01    2.920000e+00
 SC2vh   X4v  1 4.300000e-01    2.160000e+00
 SC2vh   X3v  1 4.300000e-01    2.530000e+00
 SC2vh   X2v  1 4.300000e-01    2.530000e+00
 SC2vh   X1v  1 4.300000e-01    2.530000e+00
  SP6q  C2vh  1 4.300000e-01    2.320000e+00
  SP5q  C2vh  1 4.300000e-01    2.530000e+00
  SP4q  C2vh  1 4.300000e-01    2.530000e+00
  SP3q  C2vh  1 4.300000e-01    2.530000e+00
  SP2q  C2vh  1 4.300000e-01    2.770000e+00
  SP1q  C2vh  1 4.300000e-01    2.770000e+00
  SN6q  C2vh  1 4.300000e-01    2.920000e+00
  SN5q  C2vh  1 4.300000e-01    2.920000e+00
  SN4q  C2vh  1 4.300000e-01    2.920000e+00
  SN3q  C2vh  1 4.300000e-01    3.160000e+00
  SN2q  C2vh  1 4.300000e-01    3.160000e+00
  SN1q  C2vh  1 4.300000e-01    3.160000e+00
  SC6q  C2vh  1 4.300000e-01    3.160000e+00
  SC5q  C2vh  1 4.300000e-01    3.160000e+00
  SC4q  C2vh  1 4.300000e-01    3.380000e+00
  SC3q  C2vh  1 4.300000e-01    3.590000e+00
  SC2q  C2vh  1 4.300000e-01    3.590000e+00
 SC2vh   C1q  1 4.300000e-01    3.770000e+00
 SC2vh   X4q  1 4.300000e-01    2.920000e+00
 SC2vh   X3q  1 4.300000e-01    3.380000e+00
 SC2vh   X2q  1 4.300000e-01    3.380000e+00
 SC2vh   X1q  1 4.300000e-01    3.380000e+00
 SC6vq  C2vh  1 4.300000e-01    2.770000e+00
 SC5vq  C2vh  1 4.300000e-01    2.770000e+00
 SC4vq  C2vh  1 4.300000e-01    2.920000e+00
 SC3vq  C2vh  1 4.300000e-01    3.160000e+00
 SC2vh  C2vq  1 4.300000e-01    3.160000e+00
 SC2vh  X1vq  1 4.300000e-01    2.920000e+00
 SC2vh  X2vq  1 4.300000e-01    2.920000e+00
 SC2vh  X3vq  1 4.300000e-01    2.920000e+00
 SC2vh  X4vq  1 4.300000e-01    2.530000e+00
 SC2vh  C1vq  1 4.300000e-01    3.380000e+00
  SC1v  C1vh  1 4.300000e-01    2.770000e+00
 SC1vh   X4v  1 4.300000e-01    2.160000e+00
 SC1vh   X3v  1 4.300000e-01    2.530000e+00
 SC1vh   X2v  1 4.300000e-01    2.530000e+00
 SC1vh   X1v  1 4.300000e-01    2.530000e+00
  SP6q  C1vh  1 4.300000e-01    1.930000e+00
  SP5q  C1vh  1 4.300000e-01    2.320000e+00
  SP4q  C1vh  1 4.300000e-01    2.320000e+00
  SP3q  C1vh  1 4.300000e-01    2.320000e+00
  SP2q  C1vh  1 4.300000e-01    2.530000e+00
  SP1q  C1vh  1 4.300000e-01    2.530000e+00
  SN6q  C1vh  1 4.300000e-01    2.770000e+00
  SN5q  C1vh  1 4.300000e-01    2.770000e+00
  SN4q  C1vh  1 4.300000e-01    2.770000e+00
  SN3q  C1vh  1 4.300000e-01    2.920000e+00
  SN2q  C1vh  1 4.300000e-01    2.920000e+00
  SN1q  C1vh  1 4.300000e-01    2.920000e+00
  SC6q  C1vh  1 4.300000e-01    2.920000e+00
  SC5q  C1vh  1 4.300000e-01    3.160000e+00
  SC4q  C1vh  1 4.300000e-01    3.160000e+00
  SC3q  C1vh  1 4.300000e-01    3.590000e+00
  SC2q  C1vh  1 4.300000e-01    3.770000e+00
  SC1q  C1vh  1 4.300000e-01    3.590000e+00
 SC1vh   X4q  1 4.300000e-01    2.920000e+00
 SC1vh   X3q  1 4.300000e-01    3.380000e+00
 SC1vh   X2q  1 4.300000e-01    3.380000e+00
 SC1vh   X1q  1 4.300000e-01    3.380000e+00
 SC6vq  C1vh  1 4.300000e-01    2.530000e+00
 SC5vq  C1vh  1 4.300000e-01    2.770000e+00
 SC4vq  C1vh  1 4.300000e-01    2.770000e+00
 SC3vq  C1vh  1 4.300000e-01    3.160000e+00
 SC2vq  C1vh  1 4.300000e-01    3.380000e+00
 SC1vh  C1vq  1 4.300000e-01    3.160000e+00
 SC1vh  X1vq  1 4.300000e-01    2.920000e+00
 SC1vh  X2vq  1 4.300000e-01    2.920000e+00
 SC1vh  X3vq  1 4.300000e-01    2.920000e+00
 SC1vh  X4vq  1 4.300000e-01    2.530000e+00
  SX4v  X4vh  1 4.300000e-01    2.770000e+00
 SX4vh   X3v  1 4.300000e-01    2.770000e+00
 SX4vh   X2v  1 4.300000e-01    2.770000e+00
 SX4vh   X1v  1 4.300000e-01    2.770000e+00
  SP6q  X4vh  1 4.300000e-01    3.160000e+00
  SP5q  X4vh  1 4.300000e-01    3.380000e+00
  SP4q  X4vh  1 4.300000e-01    3.380000e+00
  SP3q  X4vh  1 4.300000e-01    3.380000e+00
  SP2q  X4vh  1 4.300000e-01    3.380000e+00
  SP1q  X4vh  1 4.300000e-01    3.380000e+00
  SN6q  X4vh  1 4.300000e-01    3.590000e+00
  SN5q  X4vh  1 4.300000e-01    3.770000e+00
  SN4q  X4vh  1 4.300000e-01    3.970000e+00
  SN3q  X4vh  1 4.300000e-01    3.770000e+00
  SN2q  X4vh  1 4.300000e-01    3.770000e+00
  SN1q  X4vh  1 4.300000e-01    3.590000e+00
  SC6q  X4vh  1 4.300000e-01    3.590000e+00
  SC5q  X4vh  1 4.300000e-01    3.380000e+00
  SC4q  X4vh  1 4.300000e-01    3.380000e+00
  SC3q  X4vh  1 4.300000e-01    3.380000e+00
  SC2q  X4vh  1 4.300000e-01    2.920000e+00
  SC1q  X4vh  1 4.300000e-01    2.920000e+00
  SX4q  X4vh  1 4.300000e-01    3.590000e+00
 SX4vh   X3q  1 4.300000e-01    3.590000e+00
 SX4vh   X2q  1 4.300000e-01    3.590000e+00
 SX4vh   X1q  1 4.300000e-01    3.590000e+00
 SC6vq  X4vh  1 4.300000e-01    3.160000e+00
 SC5vq  X4vh  1 4.300000e-01    2.920000e+00
 SC4vq  X4vh  1 4.300000e-01    2.920000e+00
 SC3vq  X4vh  1 4.300000e-01    2.920000e+00
 SC2vq  X4vh  1 4.300000e-01    2.530000e+00
 SC1vq  X4vh  1 4.300000e-01    2.530000e+00
 SX4vh  X4vq  1 4.300000e-01    3.160000e+00
 SX4vh  X1vq  1 4.300000e-01    3.160000e+00
 SX4vh  X2vq  1 4.300000e-01    3.160000e+00
 SX4vh  X3vq  1 4.300000e-01    3.160000e+00
  SX3v  X3vh  1 4.300000e-01    2.770000e+00
 SX3vh   X2v  1 4.300000e-01    2.920000e+00
 SX3vh   X1v  1 4.300000e-01    2.920000e+00
  SP6q  X3vh  1 4.300000e-01    3.160000e+00
  SP5q  X3vh  1 4.300000e-01    3.160000e+00
  SP4q  X3vh  1 4.300000e-01    3.160000e+00
  SP3q  X3vh  1 4.300000e-01    3.380000e+00
  SP2q  X3vh  1 4.300000e-01    3.380000e+00
  SP1q  X3vh  1 4.300000e-01    3.380000e+00
  SN6q  X3vh  1 4.300000e-01    3.380000e+00
  SN5q  X3vh  1 4.300000e-01    3.590000e+00
  SN4q  X3vh  1 4.300000e-01    3.770000e+00
  SN3q  X3vh  1 4.300000e-01    3.590000e+00
  SN2q  X3vh  1 4.300000e-01    3.590000e+00
  SN1q  X3vh  1 4.300000e-01    3.590000e+00
  SC6q  X3vh  1 4.300000e-01    3.590000e+00
  SC5q  X3vh  1 4.300000e-01    3.380000e+00
  SC4q  X3vh  1 4.300000e-01    3.380000e+00
  SC3q  X3vh  1 4.300000e-01    3.380000e+00
  SC2q  X3vh  1 4.300000e-01    3.380000e+00
  SC1q  X3vh  1 4.300000e-01    3.380000e+00
  SX4q  X3vh  1 4.300000e-01    3.590000e+00
  SX3q  X3vh  1 4.300000e-01    3.590000e+00
 SX3vh   X2q  1 4.300000e-01    3.770000e+00
 SX3vh   X1q  1 4.300000e-01    3.770000e+00
 SC6vq  X3vh  1 4.300000e-01    3.160000e+00
 SC5vq  X3vh  1 4.300000e-01    2.920000e+00
 SC4vq  X3vh  1 4.300000e-01    2.920000e+00
 SC3vq  X3vh  1 4.300000e-01    2.920000e+00
 SC2vq  X3vh  1 4.300000e-01    2.920000e+00
 SC1vq  X3vh  1 4.300000e-01    2.920000e+00
 SX4vq  X3vh  1 4.300000e-01    3.160000e+00
 SX3vh  X3vq  1 4.300000e-01    3.160000e+00
 SX3vh  X1vq  1 4.300000e-01    3.380000e+00
 SX3vh  X2vq  1 4.300000e-01    3.380000e+00
  SX2v  X2vh  1 4.300000e-01    2.920000e+00
 SX2vh   X1v  1 4.300000e-01    2.920000e+00
  SP6q  X2vh  1 4.300000e-01    2.920000e+00
  SP5q  X2vh  1 4.300000e-01    3.160000e+00
  SP4q  X2vh  1 4.300000e-01    3.160000e+00
  SP3q  X2vh  1 4.300000e-01    3.160000e+00
  SP2q  X2vh  1 4.300000e-01    3.160000e+00
  SP1q  X2vh  1 4.300000e-01    3.160000e+00
  SN6q  X2vh  1 4.300000e-01    3.160000e+00
  SN5q  X2vh  1 4.300000e-01    3.380000e+00
  SN4q  X2vh  1 4.300000e-01    3.380000e+00
  SN3q  X2vh  1 4.300000e-01    3.380000e+00
  SN2q  X2vh  1 4.300000e-01    3.380000e+00
  SN1q  X2vh  1 4.300000e-01    3.380000e+00
  SC6q  X2vh  1 4.300000e-01    3.590000e+00
  SC5q  X2vh  1 4.300000e-01    3.380000e+00
  SC4q  X2vh  1 4.300000e-01    3.380000e+00
  SC3q  X2vh  1 4.300000e-01    3.380000e+00
  SC2q  X2vh  1 4.300000e-01    3.380000e+00
  SC1q  X2vh  1 4.300000e-01    3.380000e+00
  SX4q  X2vh  1 4.300000e-01    3.590000e+00
  SX3q  X2vh  1 4.300000e-01    3.770000e+00
  SX2q  X2vh  1 4.300000e-01    3.770000e+00
 SX2vh   X1q  1 4.300000e-01    3.770000e+00
 SC6vq  X2vh  1 4.300000e-01    3.160000e+00
 SC5vq  X2vh  1 4.300000e-01    2.920000e+00
 SC4vq  X2vh  1 4.300000e-01    2.920000e+00
 SC3vq  X2vh  1 4.300000e-01    2.920000e+00
 SC2vq  X2vh  1 4.300000e-01    2.920000e+00
 SC1vq  X2vh  1 4.300000e-01    2.920000e+00
 SX4vq  X2vh  1 4.300000e-01    3.160000e+00
 SX3vq  X2vh  1 4.300000e-01    3.380000e+00
 SX2vh  X2vq  1 4.300000e-01    3.380000e+00
 SX2vh  X1vq  1 4.300000e-01    3.380000e+00
  SX1v  X1vh  1 4.300000e-01    3.160000e+00
  SP6q  X1vh  1 4.300000e-01    2.770000e+00
  SP5q  X1vh  1 4.300000e-01    2.770000e+00
  SP4q  X1vh  1 4.300000e-01    2.920000e+00
  SP3q  X1vh  1 4.300000e-01    2.920000e+00
  SP2q  X1vh  1 4.300000e-01    2.920000e+00
  SP1q  X1vh  1 4.300000e-01    2.920000e+00
  SN6q  X1vh  1 4.300000e-01    2.920000e+00
  SN5q  X1vh  1 4.300000e-01    3.160000e+00
  SN4q  X1vh  1 4.300000e-01    3.160000e+00
  SN3q  X1vh  1 4.300000e-01    3.380000e+00
  SN2q  X1vh  1 4.300000e-01    3.380000e+00
  SN1q  X1vh  1 4.300000e-01    3.380000e+00
  SC6q  X1vh  1 4.300000e-01    3.590000e+00
  SC5q  X1vh  1 4.300000e-01    3.590000e+00
  SC4q  X1vh  1 4.300000e-01    3.590000e+00
  SC3q  X1vh  1 4.300000e-01    3.590000e+00
  SC2q  X1vh  1 4.300000e-01    3.380000e+00
  SC1q  X1vh  1 4.300000e-01    3.380000e+00
  SX4q  X1vh  1 4.300000e-01    3.590000e+00
  SX3q  X1vh  1 4.300000e-01    3.770000e+00
  SX2q  X1vh  1 4.300000e-01    3.770000e+00
  SX1q  X1vh  1 4.300000e-01    3.970000e+00
 SC6vq  X1vh  1 4.300000e-01    3.160000e+00
 SC5vq  X1vh  1 4.300000e-01    3.160000e+00
 SC4vq  X1vh  1 4.300000e-01    3.160000e+00
 SC3vq  X1vh  1 4.300000e-01    3.160000e+00
 SC2vq  X1vh  1 4.300000e-01    2.920000e+00
 SC1vq  X1vh  1 4.300000e-01    2.920000e+00
 SX4vq  X1vh  1 4.300000e-01    3.160000e+00
 SX3vq  X1vh  1 4.300000e-01    3.380000e+00
 SX2vq  X1vh  1 4.300000e-01    3.380000e+00
 SX1vh  X1vq  1 4.300000e-01    3.590000e+00
  SC6e  C6eh  1 4.300000e-01    2.920000e+00
 SC6eh   C5e  1 4.300000e-01    2.770000e+00
 SC6eh   C4e  1 4.300000e-01    2.770000e+00
 SC6eh   C3e  1 4.300000e-01    2.530000e+00
 SC6eh   C2e  1 4.300000e-01    2.320000e+00
 SC6eh   C1e  1 4.300000e-01    2.160000e+00
 SC6eh   X4e  1 4.300000e-01    2.770000e+00
 SC6eh   X3e  1 4.300000e-01    2.770000e+00
 SC6eh   X2e  1 4.300000e-01    2.770000e+00
 SC6eh   X1e  1 4.300000e-01    2.770000e+00
  SP6q  C6eh  1 4.300000e-01    2.920000e+00
  SP5q  C6eh  1 4.300000e-01    2.920000e+00
  SP4q  C6eh  1 4.300000e-01    3.160000e+00
  SP3q  C6eh  1 4.300000e-01    3.380000e+00
  SP2q  C6eh  1 4.300000e-01    3.380000e+00
  SP1q  C6eh  1 4.300000e-01    3.380000e+00
  SN6q  C6eh  1 4.300000e-01    3.590000e+00
  SN5q  C6eh  1 4.300000e-01    3.590000e+00
  SN4q  C6eh  1 4.300000e-01    3.590000e+00
  SN3q  C6eh  1 4.300000e-01    3.590000e+00
  SN2q  C6eh  1 4.300000e-01    3.590000e+00
  SN1q  C6eh  1 4.300000e-01    3.770000e+00
  SC6q  C6eh  1 4.300000e-01    3.770000e+00
 SC6eh   C5q  1 4.300000e-01    3.590000e+00
 SC6eh   C4q  1 4.300000e-01    3.590000e+00
 SC6eh   C3q  1 4.300000e-01    3.380000e+00
 SC6eh   C2q  1 4.300000e-01    3.160000e+00
 SC6eh   C1q  1 4.300000e-01    2.920000e+00
 SC6eh   X4q  1 4.300000e-01    3.590000e+00
 SC6eh   X3q  1 4.300000e-01    3.590000e+00
 SC6eh   X2q  1 4.300000e-01    3.590000e+00
 SC6eh   X1q  1 4.300000e-01    3.590000e+00
 SC6eh  C6eq  1 4.300000e-01    3.380000e+00
 SC6eh  X1eq  1 4.300000e-01    3.160000e+00
 SC6eh  X2eq  1 4.300000e-01    3.160000e+00
 SC6eh  X3eq  1 4.300000e-01    3.160000e+00
 SC6eh  X4eq  1 4.300000e-01    3.160000e+00
 SC6eh  C1eq  1 4.300000e-01    2.530000e+00
 SC6eh  C2eq  1 4.300000e-01    2.770000e+00
 SC6eh  C3eq  1 4.300000e-01    2.920000e+00
 SC6eh  C4eq  1 4.300000e-01    3.160000e+00
 SC6eh  C5eq  1 4.300000e-01    3.160000e+00
  SC5e  C5eh  1 4.300000e-01    2.770000e+00
 SC5eh   C4e  1 4.300000e-01    2.770000e+00
 SC5eh   C3e  1 4.300000e-01    2.530000e+00
 SC5eh   C2e  1 4.300000e-01    2.320000e+00
 SC5eh   C1e  1 4.300000e-01    2.320000e+00
 SC5eh   X4e  1 4.300000e-01    2.530000e+00
 SC5eh   X3e  1 4.300000e-01    2.530000e+00
 SC5eh   X2e  1 4.300000e-01    2.530000e+00
 SC5eh   X1e  1 4.300000e-01    2.770000e+00
  SP6q  C5eh  1 4.300000e-01    2.770000e+00
  SP5q  C5eh  1 4.300000e-01    2.920000e+00
  SP4q  C5eh  1 4.300000e-01    2.920000e+00
  SP3q  C5eh  1 4.300000e-01    3.160000e+00
  SP2q  C5eh  1 4.300000e-01    3.160000e+00
  SP1q  C5eh  1 4.300000e-01    3.160000e+00
  SN6q  C5eh  1 4.300000e-01    3.380000e+00
  SN5q  C5eh  1 4.300000e-01    3.380000e+00
  SN4q  C5eh  1 4.300000e-01    3.380000e+00
  SN3q  C5eh  1 4.300000e-01    3.380000e+00
  SN2q  C5eh  1 4.300000e-01    3.380000e+00
  SN1q  C5eh  1 4.300000e-01    3.590000e+00
  SC6q  C5eh  1 4.300000e-01    3.590000e+00
  SC5q  C5eh  1 4.300000e-01    3.590000e+00
 SC5eh   C4q  1 4.300000e-01    3.590000e+00
 SC5eh   C3q  1 4.300000e-01    3.380000e+00
 SC5eh   C2q  1 4.300000e-01    3.160000e+00
 SC5eh   C1q  1 4.300000e-01    3.160000e+00
 SC5eh   X4q  1 4.300000e-01    3.380000e+00
 SC5eh   X3q  1 4.300000e-01    3.380000e+00
 SC5eh   X2q  1 4.300000e-01    3.380000e+00
 SC5eh   X1q  1 4.300000e-01    3.590000e+00
 SC6eq  C5eh  1 4.300000e-01    3.160000e+00
 SC5eh  C5eq  1 4.300000e-01    3.160000e+00
 SC5eh  X1eq  1 4.300000e-01    3.160000e+00
 SC5eh  X2eq  1 4.300000e-01    2.920000e+00
 SC5eh  X3eq  1 4.300000e-01    2.920000e+00
 SC5eh  X4eq  1 4.300000e-01    2.920000e+00
 SC5eh  C1eq  1 4.300000e-01    2.770000e+00
 SC5eh  C2eq  1 4.300000e-01    2.770000e+00
 SC5eh  C3eq  1 4.300000e-01    2.920000e+00
 SC5eh  C4eq  1 4.300000e-01    3.160000e+00
  SC4e  C4eh  1 4.300000e-01    2.770000e+00
 SC4eh   C3e  1 4.300000e-01    2.770000e+00
 SC4eh   C2e  1 4.300000e-01    2.530000e+00
 SC4eh   C1e  1 4.300000e-01    2.320000e+00
 SC4eh   X4e  1 4.300000e-01    2.530000e+00
 SC4eh   X3e  1 4.300000e-01    2.530000e+00
 SC4eh   X2e  1 4.300000e-01    2.530000e+00
 SC4eh   X1e  1 4.300000e-01    2.770000e+00
  SP6q  C4eh  1 4.300000e-01    2.530000e+00
  SP5q  C4eh  1 4.300000e-01    2.770000e+00
  SP4q  C4eh  1 4.300000e-01    2.770000e+00
  SP3q  C4eh  1 4.300000e-01    2.920000e+00
  SP2q  C4eh  1 4.300000e-01    2.920000e+00
  SP1q  C4eh  1 4.300000e-01    2.920000e+00
  SN6q  C4eh  1 4.300000e-01    3.160000e+00
  SN5q  C4eh  1 4.300000e-01    3.160000e+00
  SN4q  C4eh  1 4.300000e-01    3.380000e+00
  SN3q  C4eh  1 4.300000e-01    3.380000e+00
  SN2q  C4eh  1 4.300000e-01    3.380000e+00
  SN1q  C4eh  1 4.300000e-01    3.590000e+00
  SC6q  C4eh  1 4.300000e-01    3.590000e+00
  SC5q  C4eh  1 4.300000e-01    3.590000e+00
  SC4q  C4eh  1 4.300000e-01    3.590000e+00
 SC4eh   C3q  1 4.300000e-01    3.590000e+00
 SC4eh   C2q  1 4.300000e-01    3.380000e+00
 SC4eh   C1q  1 4.300000e-01    3.160000e+00
 SC4eh   X4q  1 4.300000e-01    3.380000e+00
 SC4eh   X3q  1 4.300000e-01    3.380000e+00
 SC4eh   X2q  1 4.300000e-01    3.380000e+00
 SC4eh   X1q  1 4.300000e-01    3.590000e+00
 SC6eq  C4eh  1 4.300000e-01    3.160000e+00
 SC5eq  C4eh  1 4.300000e-01    3.160000e+00
 SC4eh  C4eq  1 4.300000e-01    3.160000e+00
 SC4eh  X1eq  1 4.300000e-01    3.160000e+00
 SC4eh  X2eq  1 4.300000e-01    2.920000e+00
 SC4eh  X3eq  1 4.300000e-01    2.920000e+00
 SC4eh  X4eq  1 4.300000e-01    2.920000e+00
 SC4eh  C1eq  1 4.300000e-01    2.770000e+00
 SC4eh  C2eq  1 4.300000e-01    2.920000e+00
 SC4eh  C3eq  1 4.300000e-01    3.160000e+00
  SC3e  C3eh  1 4.300000e-01    2.770000e+00
 SC3eh   C2e  1 4.300000e-01    2.770000e+00
 SC3eh   C1e  1 4.300000e-01    2.770000e+00
 SC3eh   X4e  1 4.300000e-01    2.530000e+00
 SC3eh   X3e  1 4.300000e-01    2.530000e+00
 SC3eh   X2e  1 4.300000e-01    2.530000e+00
 SC3eh   X1e  1 4.300000e-01    2.770000e+00
  SP6q  C3eh  1 4.300000e-01    2.320000e+00
  SP5q  C3eh  1 4.300000e-01    2.530000e+00
  SP4q  C3eh  1 4.300000e-01    2.530000e+00
  SP3q  C3eh  1 4.300000e-01    2.530000e+00
  SP2q  C3eh  1 4.300000e-01    2.770000e+00
  SP1q  C3eh  1 4.300000e-01    2.770000e+00
  SN6q  C3eh  1 4.300000e-01    2.920000e+00
  SN5q  C3eh  1 4.300000e-01    3.160000e+00
  SN4q  C3eh  1 4.300000e-01    3.160000e+00
  SN3q  C3eh  1 4.300000e-01    3.160000e+00
  SN2q  C3eh  1 4.300000e-01    3.380000e+00
  SN1q  C3eh  1 4.300000e-01    3.380000e+00
  SC6q  C3eh  1 4.300000e-01    3.380000e+00
  SC5q  C3eh  1 4.300000e-01    3.380000e+00
  SC4q  C3eh  1 4.300000e-01    3.590000e+00
  SC3q  C3eh  1 4.300000e-01    3.590000e+00
 SC3eh   C2q  1 4.300000e-01    3.590000e+00
 SC3eh   C1q  1 4.300000e-01    3.590000e+00
 SC3eh   X4q  1 4.300000e-01    3.380000e+00
 SC3eh   X3q  1 4.300000e-01    3.380000e+00
 SC3eh   X2q  1 4.300000e-01    3.380000e+00
 SC3eh   X1q  1 4.300000e-01    3.590000e+00
 SC6eq  C3eh  1 4.300000e-01    2.920000e+00
 SC5eq  C3eh  1 4.300000e-01    2.920000e+00
 SC4eq  C3eh  1 4.300000e-01    3.160000e+00
 SC3eh  C3eq  1 4.300000e-01    3.160000e+00
 SC3eh  X1eq  1 4.300000e-01    3.160000e+00
 SC3eh  X2eq  1 4.300000e-01    2.920000e+00
 SC3eh  X3eq  1 4.300000e-01    2.920000e+00
 SC3eh  X4eq  1 4.300000e-01    2.920000e+00
 SC3eh  C1eq  1 4.300000e-01    3.160000e+00
 SC3eh  C2eq  1 4.300000e-01    3.160000e+00
  SC2e  C2eh  1 4.300000e-01    2.770000e+00
 SC2eh   C1e  1 4.300000e-01    2.920000e+00
 SC2eh   X4e  1 4.300000e-01    2.160000e+00
 SC2eh   X3e  1 4.300000e-01    2.530000e+00
 SC2eh   X2e  1 4.300000e-01    2.530000e+00
 SC2eh   X1e  1 4.300000e-01    2.530000e+00
  SP6q  C2eh  1 4.300000e-01    2.320000e+00
  SP5q  C2eh  1 4.300000e-01    2.530000e+00
  SP4q  C2eh  1 4.300000e-01    2.530000e+00
  SP3q  C2eh  1 4.300000e-01    2.530000e+00
  SP2q  C2eh  1 4.300000e-01    2.770000e+00
  SP1q  C2eh  1 4.300000e-01    2.770000e+00
  SN6q  C2eh  1 4.300000e-01    2.920000e+00
  SN5q  C2eh  1 4.300000e-01    2.920000e+00
  SN4q  C2eh  1 4.300000e-01    2.920000e+00
  SN3q  C2eh  1 4.300000e-01    3.160000e+00
  SN2q  C2eh  1 4.300000e-01    3.160000e+00
  SN1q  C2eh  1 4.300000e-01    3.160000e+00
  SC6q  C2eh  1 4.300000e-01    3.160000e+00
  SC5q  C2eh  1 4.300000e-01    3.160000e+00
  SC4q  C2eh  1 4.300000e-01    3.380000e+00
  SC3q  C2eh  1 4.300000e-01    3.590000e+00
  SC2q  C2eh  1 4.300000e-01    3.590000e+00
 SC2eh   C1q  1 4.300000e-01    3.770000e+00
 SC2eh   X4q  1 4.300000e-01    2.920000e+00
 SC2eh   X3q  1 4.300000e-01    3.380000e+00
 SC2eh   X2q  1 4.300000e-01    3.380000e+00
 SC2eh   X1q  1 4.300000e-01    3.380000e+00
 SC6eq  C2eh  1 4.300000e-01    2.770000e+00
 SC5eq  C2eh  1 4.300000e-01    2.770000e+00
 SC4eq  C2eh  1 4.300000e-01    2.920000e+00
 SC3eq  C2eh  1 4.300000e-01    3.160000e+00
 SC2eh  C2eq  1 4.300000e-01    3.160000e+00
 SC2eh  X1eq  1 4.300000e-01    2.920000e+00
 SC2eh  X2eq  1 4.300000e-01    2.920000e+00
 SC2eh  X3eq  1 4.300000e-01    2.920000e+00
 SC2eh  X4eq  1 4.300000e-01    2.530000e+00
 SC2eh  C1eq  1 4.300000e-01    3.380000e+00
  SC1e  C1eh  1 4.300000e-01    2.770000e+00
 SC1eh   X4e  1 4.300000e-01    2.160000e+00
 SC1eh   X3e  1 4.300000e-01    2.530000e+00
 SC1eh   X2e  1 4.300000e-01    2.530000e+00
 SC1eh   X1e  1 4.300000e-01    2.530000e+00
  SP6q  C1eh  1 4.300000e-01    1.930000e+00
  SP5q  C1eh  1 4.300000e-01    2.320000e+00
  SP4q  C1eh  1 4.300000e-01    2.320000e+00
  SP3q  C1eh  1 4.300000e-01    2.320000e+00
  SP2q  C1eh  1 4.300000e-01    2.530000e+00
  SP1q  C1eh  1 4.300000e-01    2.530000e+00
  SN6q  C1eh  1 4.300000e-01    2.770000e+00
  SN5q  C1eh  1 4.300000e-01    2.770000e+00
  SN4q  C1eh  1 4.300000e-01    2.770000e+00
  SN3q  C1eh  1 4.300000e-01    2.920000e+00
  SN2q  C1eh  1 4.300000e-01    2.920000e+00
  SN1q  C1eh  1 4.300000e-01    2.920000e+00
  SC6q  C1eh  1 4.300000e-01    2.920000e+00
  SC5q  C1eh  1 4.300000e-01    3.160000e+00
  SC4q  C1eh  1 4.300000e-01    3.160000e+00
  SC3q  C1eh  1 4.300000e-01    3.590000e+00
  SC2q  C1eh  1 4.300000e-01    3.770000e+00
  SC1q  C1eh  1 4.300000e-01    3.590000e+00
 SC1eh   X4q  1 4.300000e-01    2.920000e+00
 SC1eh   X3q  1 4.300000e-01    3.380000e+00
 SC1eh   X2q  1 4.300000e-01    3.380000e+00
 SC1eh   X1q  1 4.300000e-01    3.380000e+00
 SC6eq  C1eh  1 4.300000e-01    2.530000e+00
 SC5eq  C1eh  1 4.300000e-01    2.770000e+00
 SC4eq  C1eh  1 4.300000e-01    2.770000e+00
 SC3eq  C1eh  1 4.300000e-01    3.160000e+00
 SC2eq  C1eh  1 4.300000e-01    3.380000e+00
 SC1eh  C1eq  1 4.300000e-01    3.160000e+00
 SC1eh  X1eq  1 4.300000e-01    2.920000e+00
 SC1eh  X2eq  1 4.300000e-01    2.920000e+00
 SC1eh  X3eq  1 4.300000e-01    2.920000e+00
 SC1eh  X4eq  1 4.300000e-01    2.530000e+00
  SX4e  X4eh  1 4.300000e-01    2.770000e+00
 SX4eh   X3e  1 4.300000e-01    2.770000e+00
 SX4eh   X2e  1 4.300000e-01    2.770000e+00
 SX4eh   X1e  1 4.300000e-01    2.770000e+00
  SP6q  X4eh  1 4.300000e-01    3.160000e+00
  SP5q  X4eh  1 4.300000e-01    3.380000e+00
  SP4q  X4eh  1 4.300000e-01    3.380000e+00
  SP3q  X4eh  1 4.300000e-01    3.380000e+00
  SP2q  X4eh  1 4.300000e-01    3.380000e+00
  SP1q  X4eh  1 4.300000e-01    3.380000e+00
  SN6q  X4eh  1 4.300000e-01    3.590000e+00
  SN5q  X4eh  1 4.300000e-01    3.770000e+00
  SN4q  X4eh  1 4.300000e-01    3.970000e+00
  SN3q  X4eh  1 4.300000e-01    3.770000e+00
  SN2q  X4eh  1 4.300000e-01    3.770000e+00
  SN1q  X4eh  1 4.300000e-01    3.590000e+00
  SC6q  X4eh  1 4.300000e-01    3.590000e+00
  SC5q  X4eh  1 4.300000e-01    3.380000e+00
  SC4q  X4eh  1 4.300000e-01    3.380000e+00
  SC3q  X4eh  1 4.300000e-01    3.380000e+00
  SC2q  X4eh  1 4.300000e-01    2.920000e+00
  SC1q  X4eh  1 4.300000e-01    2.920000e+00
  SX4q  X4eh  1 4.300000e-01    3.590000e+00
 SX4eh   X3q  1 4.300000e-01    3.590000e+00
 SX4eh   X2q  1 4.300000e-01    3.590000e+00
 SX4eh   X1q  1 4.300000e-01    3.590000e+00
 SC6eq  X4eh  1 4.300000e-01    3.160000e+00
 SC5eq  X4eh  1 4.300000e-01    2.920000e+00
 SC4eq  X4eh  1 4.300000e-01    2.920000e+00
 SC3eq  X4eh  1 4.300000e-01    2.920000e+00
 SC2eq  X4eh  1 4.300000e-01    2.530000e+00
 SC1eq  X4eh  1 4.300000e-01    2.530000e+00
 SX4eh  X4eq  1 4.300000e-01    3.160000e+00
 SX4eh  X1eq  1 4.300000e-01    3.160000e+00
 SX4eh  X2eq  1 4.300000e-01    3.160000e+00
 SX4eh  X3eq  1 4.300000e-01    3.160000e+00
  SX3e  X3eh  1 4.300000e-01    2.770000e+00
 SX3eh   X2e  1 4.300000e-01    2.920000e+00
 SX3eh   X1e  1 4.300000e-01    2.920000e+00
  SP6q  X3eh  1 4.300000e-01    3.160000e+00
  SP5q  X3eh  1 4.300000e-01    3.160000e+00
  SP4q  X3eh  1 4.300000e-01    3.160000e+00
  SP3q  X3eh  1 4.300000e-01    3.380000e+00
  SP2q  X3eh  1 4.300000e-01    3.380000e+00
  SP1q  X3eh  1 4.300000e-01    3.380000e+00
  SN6q  X3eh  1 4.300000e-01    3.380000e+00
  SN5q  X3eh  1 4.300000e-01    3.590000e+00
  SN4q  X3eh  1 4.300000e-01    3.770000e+00
  SN3q  X3eh  1 4.300000e-01    3.590000e+00
  SN2q  X3eh  1 4.300000e-01    3.590000e+00
  SN1q  X3eh  1 4.300000e-01    3.590000e+00
  SC6q  X3eh  1 4.300000e-01    3.590000e+00
  SC5q  X3eh  1 4.300000e-01    3.380000e+00
  SC4q  X3eh  1 4.300000e-01    3.380000e+00
  SC3q  X3eh  1 4.300000e-01    3.380000e+00
  SC2q  X3eh  1 4.300000e-01    3.380000e+00
  SC1q  X3eh  1 4.300000e-01    3.380000e+00
  SX4q  X3eh  1 4.300000e-01    3.590000e+00
  SX3q  X3eh  1 4.300000e-01    3.590000e+00
 SX3eh   X2q  1 4.300000e-01    3.770000e+00
 SX3eh   X1q  1 4.300000e-01    3.770000e+00
 SC6eq  X3eh  1 4.300000e-01    3.160000e+00
 SC5eq  X3eh  1 4.300000e-01    2.920000e+00
 SC4eq  X3eh  1 4.300000e-01    2.920000e+00
 SC3eq  X3eh  1 4.300000e-01    2.920000e+00
 SC2eq  X3eh  1 4.300000e-01    2.920000e+00
 SC1eq  X3eh  1 4.300000e-01    2.920000e+00
 SX4eq  X3eh  1 4.300000e-01    3.160000e+00
 SX3eh  X3eq  1 4.300000e-01    3.160000e+00
 SX3eh  X1eq  1 4.300000e-01    3.380000e+00
 SX3eh  X2eq  1 4.300000e-01    3.380000e+00
  SX2e  X2eh  1 4.300000e-01    2.920000e+00
 SX2eh   X1e  1 4.300000e-01    2.920000e+00
  SP6q  X2eh  1 4.300000e-01    2.920000e+00
  SP5q  X2eh  1 4.300000e-01    3.160000e+00
  SP4q  X2eh  1 4.300000e-01    3.160000e+00
  SP3q  X2eh  1 4.300000e-01    3.160000e+00
  SP2q  X2eh  1 4.300000e-01    3.160000e+00
  SP1q  X2eh  1 4.300000e-01    3.160000e+00
  SN6q  X2eh  1 4.300000e-01    3.160000e+00
  SN5q  X2eh  1 4.300000e-01    3.380000e+00
  SN4q  X2eh  1 4.300000e-01    3.380000e+00
  SN3q  X2eh  1 4.300000e-01    3.380000e+00
  SN2q  X2eh  1 4.300000e-01    3.380000e+00
  SN1q  X2eh  1 4.300000e-01    3.380000e+00
  SC6q  X2eh  1 4.300000e-01    3.590000e+00
  SC5q  X2eh  1 4.300000e-01    3.380000e+00
  SC4q  X2eh  1 4.300000e-01    3.380000e+00
  SC3q  X2eh  1 4.300000e-01    3.380000e+00
  SC2q  X2eh  1 4.300000e-01    3.380000e+00
  SC1q  X2eh  1 4.300000e-01    3.380000e+00
  SX4q  X2eh  1 4.300000e-01    3.590000e+00
  SX3q  X2eh  1 4.300000e-01    3.770000e+00
  SX2q  X2eh  1 4.300000e-01    3.770000e+00
 SX2eh   X1q  1 4.300000e-01    3.770000e+00
 SC6eq  X2eh  1 4.300000e-01    3.160000e+00
 SC5eq  X2eh  1 4.300000e-01    2.920000e+00
 SC4eq  X2eh  1 4.300000e-01    2.920000e+00
 SC3eq  X2eh  1 4.300000e-01    2.920000e+00
 SC2eq  X2eh  1 4.300000e-01    2.920000e+00
 SC1eq  X2eh  1 4.300000e-01    2.920000e+00
 SX4eq  X2eh  1 4.300000e-01    3.160000e+00
 SX3eq  X2eh  1 4.300000e-01    3.380000e+00
 SX2eh  X2eq  1 4.300000e-01    3.380000e+00
 SX2eh  X1eq  1 4.300000e-01    3.380000e+00
  SX1e  X1eh  1 4.300000e-01    3.160000e+00
  SP6q  X1eh  1 4.300000e-01    2.770000e+00
  SP5q  X1eh  1 4.300000e-01    2.770000e+00
  SP4q  X1eh  1 4.300000e-01    2.920000e+00
  SP3q  X1eh  1 4.300000e-01    2.920000e+00
  SP2q  X1eh  1 4.300000e-01    2.920000e+00
  SP1q  X1eh  1 4.300000e-01    2.920000e+00
  SN6q  X1eh  1 4.300000e-01    2.920000e+00
  SN5q  X1eh  1 4.300000e-01    3.160000e+00
  SN4q  X1eh  1 4.300000e-01    3.160000e+00
  SN3q  X1eh  1 4.300000e-01    3.380000e+00
  SN2q  X1eh  1 4.300000e-01    3.380000e+00
  SN1q  X1eh  1 4.300000e-01    3.380000e+00
  SC6q  X1eh  1 4.300000e-01    3.590000e+00
  SC5q  X1eh  1 4.300000e-01    3.590000e+00
  SC4q  X1eh  1 4.300000e-01    3.590000e+00
  SC3q  X1eh  1 4.300000e-01    3.590000e+00
  SC2q  X1eh  1 4.300000e-01    3.380000e+00
  SC1q  X1eh  1 4.300000e-01    3.380000e+00
  SX4q  X1eh  1 4.300000e-01    3.590000e+00
  SX3q  X1eh  1 4.300000e-01    3.770000e+00
  SX2q  X1eh  1 4.300000e-01    3.770000e+00
  SX1q  X1eh  1 4.300000e-01    3.970000e+00
 SC6eq  X1eh  1 4.300000e-01    3.160000e+00
 SC5eq  X1eh  1 4.300000e-01    3.160000e+00
 SC4eq  X1eh  1 4.300000e-01    3.160000e+00
 SC3eq  X1eh  1 4.300000e-01    3.160000e+00
 SC2eq  X1eh  1 4.300000e-01    2.920000e+00
 SC1eq  X1eh  1 4.300000e-01    2.920000e+00
 SX4eq  X1eh  1 4.300000e-01    3.160000e+00
 SX3eq  X1eh  1 4.300000e-01    3.380000e+00
 SX2eq  X1eh  1 4.300000e-01    3.380000e+00
 SX1eh  X1eq  1 4.300000e-01    3.590000e+00
  SC6e  X1eh  1 4.300000e-01    2.770000e+00
  SC5e  X1eh  1 4.300000e-01    2.770000e+00
  SC4e  X1eh  1 4.300000e-01    2.770000e+00
  SC3e  X1eh  1 4.300000e-01    2.770000e+00
  SC2e  X1eh  1 4.300000e-01    2.530000e+00
  SC1e  X1eh  1 4.300000e-01    2.530000e+00
  SX4e  X1eh  1 4.300000e-01    2.770000e+00
  SX3e  X1eh  1 4.300000e-01    2.920000e+00
  SX2e  X1eh  1 4.300000e-01    2.920000e+00
  SC6e  X2eh  1 4.300000e-01    2.770000e+00
  SC5e  X2eh  1 4.300000e-01    2.530000e+00
  SC4e  X2eh  1 4.300000e-01    2.530000e+00
  SC3e  X2eh  1 4.300000e-01    2.530000e+00
  SC2e  X2eh  1 4.300000e-01    2.530000e+00
  SC1e  X2eh  1 4.300000e-01    2.530000e+00
  SX4e  X2eh  1 4.300000e-01    2.770000e+00
  SX3e  X2eh  1 4.300000e-01    2.920000e+00
  SC6e  X3eh  1 4.300000e-01    2.770000e+00
  SC5e  X3eh  1 4.300000e-01    2.530000e+00
  SC4e  X3eh  1 4.300000e-01    2.530000e+00
  SC3e  X3eh  1 4.300000e-01    2.530000e+00
  SC2e  X3eh  1 4.300000e-01    2.530000e+00
  SC1e  X3eh  1 4.300000e-01    2.530000e+00
  SX4e  X3eh  1 4.300000e-01    2.770000e+00
  SC6e  X4eh  1 4.300000e-01    2.770000e+00
  SC5e  X4eh  1 4.300000e-01    2.530000e+00
  SC4e  X4eh  1 4.300000e-01    2.530000e+00
  SC3e  X4eh  1 4.300000e-01    2.530000e+00
  SC2e  X4eh  1 4.300000e-01    2.160000e+00
  SC1e  X4eh  1 4.300000e-01    2.160000e+00
  SC6e  C1eh  1 4.300000e-01    2.160000e+00
  SC5e  C1eh  1 4.300000e-01    2.320000e+00
  SC4e  C1eh  1 4.300000e-01    2.320000e+00
  SC3e  C1eh  1 4.300000e-01    2.770000e+00
  SC2e  C1eh  1 4.300000e-01    2.920000e+00
  SC6e  C2eh  1 4.300000e-01    2.320000e+00
  SC5e  C2eh  1 4.300000e-01    2.320000e+00
  SC4e  C2eh  1 4.300000e-01    2.530000e+00
  SC3e  C2eh  1 4.300000e-01    2.770000e+00
  SC6e  C3eh  1 4.300000e-01    2.530000e+00
  SC5e  C3eh  1 4.300000e-01    2.530000e+00
  SC4e  C3eh  1 4.300000e-01    2.770000e+00
  SC6e  C4eh  1 4.300000e-01    2.770000e+00
  SC5e  C4eh  1 4.300000e-01    2.770000e+00
  SC6e  C5eh  1 4.300000e-01    2.770000e+00
  SC6v  X1vh  1 4.300000e-01    2.770000e+00
  SC5v  X1vh  1 4.300000e-01    2.770000e+00
  SC4v  X1vh  1 4.300000e-01    2.770000e+00
  SC3v  X1vh  1 4.300000e-01    2.770000e+00
  SC2v  X1vh  1 4.300000e-01    2.530000e+00
  SC1v  X1vh  1 4.300000e-01    2.530000e+00
  SX4v  X1vh  1 4.300000e-01    2.770000e+00
  SX3v  X1vh  1 4.300000e-01    2.920000e+00
  SX2v  X1vh  1 4.300000e-01    2.920000e+00
  SC6v  X2vh  1 4.300000e-01    2.770000e+00
  SC5v  X2vh  1 4.300000e-01    2.530000e+00
  SC4v  X2vh  1 4.300000e-01    2.530000e+00
  SC3v  X2vh  1 4.300000e-01    2.530000e+00
  SC2v  X2vh  1 4.300000e-01    2.530000e+00
  SC1v  X2vh  1 4.300000e-01    2.530000e+00
  SX4v  X2vh  1 4.300000e-01    2.770000e+00
  SX3v  X2vh  1 4.300000e-01    2.920000e+00
  SC6v  X3vh  1 4.300000e-01    2.770000e+00
  SC5v  X3vh  1 4.300000e-01    2.530000e+00
  SC4v  X3vh  1 4.300000e-01    2.530000e+00
  SC3v  X3vh  1 4.300000e-01    2.530000e+00
  SC2v  X3vh  1 4.300000e-01    2.530000e+00
  SC1v  X3vh  1 4.300000e-01    2.530000e+00
  SX4v  X3vh  1 4.300000e-01    2.770000e+00
  SC6v  X4vh  1 4.300000e-01    2.770000e+00
  SC5v  X4vh  1 4.300000e-01    2.530000e+00
  SC4v  X4vh  1 4.300000e-01    2.530000e+00
  SC3v  X4vh  1 4.300000e-01    2.530000e+00
  SC2v  X4vh  1 4.300000e-01    2.160000e+00
  SC1v  X4vh  1 4.300000e-01    2.160000e+00
  SC6v  C1vh  1 4.300000e-01    2.160000e+00
  SC5v  C1vh  1 4.300000e-01    2.320000e+00
  SC4v  C1vh  1 4.300000e-01    2.320000e+00
  SC3v  C1vh  1 4.300000e-01    2.770000e+00
  SC2v  C1vh  1 4.300000e-01    2.920000e+00
  SC6v  C2vh  1 4.300000e-01    2.320000e+00
  SC5v  C2vh  1 4.300000e-01    2.320000e+00
  SC4v  C2vh  1 4.300000e-01    2.530000e+00
  SC3v  C2vh  1 4.300000e-01    2.770000e+00
  SC6v  C3vh  1 4.300000e-01    2.530000e+00
  SC5v  C3vh  1 4.300000e-01    2.530000e+00
  SC4v  C3vh  1 4.300000e-01    2.770000e+00
  SC6v  C4vh  1 4.300000e-01    2.770000e+00
  SC5v  C4vh  1 4.300000e-01    2.770000e+00
  SC6v  C5vh  1 4.300000e-01    2.770000e+00
  SP6r   P6d  1 4.300000e-01    4.680000e+00
  SP6r   N1d  1 4.300000e-01    2.320000e+00
  SP6r   N2d  1 4.300000e-01    2.530000e+00
  SP6r   N3d  1 4.300000e-01    2.770000e+00
  SP6r   N4d  1 4.300000e-01    2.920000e+00
  SP6r   N5d  1 4.300000e-01    3.160000e+00
  SP6r   N6d  1 4.300000e-01    3.590000e+00
  SP6r   P1d  1 4.300000e-01    3.770000e+00
  SP6r   P2d  1 4.300000e-01    3.970000e+00
  SP6r   P3d  1 4.300000e-01    3.970000e+00
  SP6r   P4d  1 4.300000e-01    4.170000e+00
  SP6r   P5d  1 4.300000e-01    4.400000e+00
  SP6r   P6a  1 4.300000e-01    4.680000e+00
  SP6r   N1a  1 4.300000e-01    2.320000e+00
  SP6r   N2a  1 4.300000e-01    2.530000e+00
  SP6r   N3a  1 4.300000e-01    2.770000e+00
  SP6r   N4a  1 4.300000e-01    2.920000e+00
  SP6r   N5a  1 4.300000e-01    3.160000e+00
  SP6r   N6a  1 4.300000e-01    3.590000e+00
  SP6r   P1a  1 4.300000e-01    3.770000e+00
  SP6r   P2a  1 4.300000e-01    3.970000e+00
  SP6r   P3a  1 4.300000e-01    3.970000e+00
  SP6r   P4a  1 4.300000e-01    4.170000e+00
  SP6r   P5a  1 4.300000e-01    4.400000e+00
  SP6r   C6v  1 4.300000e-01    2.530000e+00
  SP6r   C5v  1 4.300000e-01    2.320000e+00
  SP6r   C4v  1 4.300000e-01    2.160000e+00
  SP6r   C3v  1 4.300000e-01    1.930000e+00
  SP6r   C2v  1 4.300000e-01    1.930000e+00
  SP6r   C1v  1 4.430000e-01    1.480000e+00
  SP6r   X4v  1 4.300000e-01    2.770000e+00
  SP6r   X3v  1 4.300000e-01    2.770000e+00
  SP6r   X2v  1 4.300000e-01    2.530000e+00
  SP6r   X1v  1 4.300000e-01    2.320000e+00
  SP6r   C6e  1 4.300000e-01    2.530000e+00
  SP6r   C5e  1 4.300000e-01    2.320000e+00
  SP6r   C4e  1 4.300000e-01    2.160000e+00
  SP6r   C3e  1 4.300000e-01    1.930000e+00
  SP6r   C2e  1 4.300000e-01    1.930000e+00
  SP6r   C1e  1 4.430000e-01    1.480000e+00
  SP6r   X4e  1 4.300000e-01    2.770000e+00
  SP6r   X3e  1 4.300000e-01    2.770000e+00
  SP6r   X2e  1 4.300000e-01    2.530000e+00
  SP6r   X1e  1 4.300000e-01    2.320000e+00
  SP6r   P6q  1 4.300000e-01    5.210000e+00
  SP6r  X1eq  1 4.300000e-01    2.770000e+00
  SP6r  X2eq  1 4.300000e-01    2.920000e+00
  SP6r  X3eq  1 4.300000e-01    3.160000e+00
  SP6r  X4eq  1 4.300000e-01    3.160000e+00
  SP6r  C1eq  1 4.300000e-01    1.930000e+00
  SP6r  C2eq  1 4.300000e-01    2.320000e+00
  SP6r  C3eq  1 4.300000e-01    2.320000e+00
  SP6r  C4eq  1 4.300000e-01    2.530000e+00
  SP6r  C5eq  1 4.300000e-01    2.770000e+00
  SP6r  C6eq  1 4.300000e-01    2.920000e+00
  SP6r  X1vq  1 4.300000e-01    2.770000e+00
  SP6r  X2vq  1 4.300000e-01    2.920000e+00
  SP6r  X3vq  1 4.300000e-01    3.160000e+00
  SP6r  X4vq  1 4.300000e-01    3.160000e+00
  SP6r  C1vq  1 4.300000e-01    1.930000e+00
  SP6r  C2vq  1 4.300000e-01    2.320000e+00
  SP6r  C3vq  1 4.300000e-01    2.320000e+00
  SP6r  C4vq  1 4.300000e-01    2.530000e+00
  SP6r  C5vq  1 4.300000e-01    2.770000e+00
  SP6r  C6vq  1 4.300000e-01    2.920000e+00
  SP6r  N1aq  1 4.300000e-01    2.770000e+00
  SP6r  N2aq  1 4.300000e-01    2.920000e+00
  SP6r  N3aq  1 4.300000e-01    3.160000e+00
  SP6r  N4aq  1 4.300000e-01    3.380000e+00
  SP6r  N5aq  1 4.300000e-01    3.590000e+00
  SP6r  N6aq  1 4.300000e-01    3.970000e+00
  SP6r  P1aq  1 4.300000e-01    4.170000e+00
  SP6r  P2aq  1 4.300000e-01    4.400000e+00
  SP6r  P3aq  1 4.300000e-01    4.400000e+00
  SP6r  P4aq  1 4.300000e-01    4.680000e+00
  SP6r  P5aq  1 4.300000e-01    4.920000e+00
  SP6r  P6aq  1 4.300000e-01    5.210000e+00
  SP6r  N1dq  1 4.300000e-01    2.770000e+00
  SP6r  N2dq  1 4.300000e-01    2.920000e+00
  SP6r  N3dq  1 4.300000e-01    3.160000e+00
  SP6r  N4dq  1 4.300000e-01    3.380000e+00
  SP6r  N5dq  1 4.300000e-01    3.590000e+00
  SP6r  N6dq  1 4.300000e-01    3.970000e+00
  SP6r  P1dq  1 4.300000e-01    4.170000e+00
  SP6r  P2dq  1 4.300000e-01    4.400000e+00
  SP6r  P3dq  1 4.300000e-01    4.400000e+00
  SP6r  P4dq  1 4.300000e-01    4.680000e+00
  SP6r  P5dq  1 4.300000e-01    4.920000e+00
  SP6r  P6dq  1 4.300000e-01    5.210000e+00
  SP6r   X1q  1 4.300000e-01    2.530000e+00
  SP6r   X2q  1 4.300000e-01    2.770000e+00
  SP6r   X3q  1 4.300000e-01    2.920000e+00
  SP6r   X4q  1 4.300000e-01    2.920000e+00
  SP6r   C1q  1 4.300000e-01    1.730000e+00
  SP6r   C2q  1 4.300000e-01    2.160000e+00
  SP6r   C3q  1 4.300000e-01    2.160000e+00
  SP6r   C4q  1 4.300000e-01    2.320000e+00
  SP6r   C5q  1 4.300000e-01    2.530000e+00
  SP6r   C6q  1 4.300000e-01    2.770000e+00
  SP6r   N1q  1 4.300000e-01    2.770000e+00
  SP6r   N2q  1 4.300000e-01    2.920000e+00
  SP6r   N3q  1 4.300000e-01    3.160000e+00
  SP6r   N4q  1 4.300000e-01    3.380000e+00
  SP6r   N5q  1 4.300000e-01    3.590000e+00
  SP6r   N6q  1 4.300000e-01    3.970000e+00
  SP6r   P1q  1 4.300000e-01    4.170000e+00
  SP6r   P2q  1 4.300000e-01    4.400000e+00
  SP6r   P3q  1 4.300000e-01    4.400000e+00
  SP6r   P4q  1 4.300000e-01    4.680000e+00
  SP6r   P5q  1 4.300000e-01    4.920000e+00
  SP6d   P5r  1 4.300000e-01    4.400000e+00
  SP5r   P5d  1 4.300000e-01    4.170000e+00
  SP5r   N1d  1 4.300000e-01    2.320000e+00
  SP5r   N2d  1 4.300000e-01    2.530000e+00
  SP5r   N3d  1 4.300000e-01    2.770000e+00
  SP5r   N4d  1 4.300000e-01    3.160000e+00
  SP5r   N5d  1 4.300000e-01    3.160000e+00
  SP5r   N6d  1 4.300000e-01    3.380000e+00
  SP5r   P1d  1 4.300000e-01    3.590000e+00
  SP5r   P2d  1 4.300000e-01    3.770000e+00
  SP5r   P3d  1 4.300000e-01    3.770000e+00
  SP5r   P4d  1 4.300000e-01    3.970000e+00
  SP6a   P5r  1 4.300000e-01    4.400000e+00
  SP5r   P5a  1 4.300000e-01    4.170000e+00
  SP5r   N1a  1 4.300000e-01    2.320000e+00
  SP5r   N2a  1 4.300000e-01    2.530000e+00
  SP5r   N3a  1 4.300000e-01    2.770000e+00
  SP5r   N4a  1 4.300000e-01    3.160000e+00
  SP5r   N5a  1 4.300000e-01    3.160000e+00
  SP5r   N6a  1 4.300000e-01    3.380000e+00
  SP5r   P1a  1 4.300000e-01    3.590000e+00
  SP5r   P2a  1 4.300000e-01    3.770000e+00
  SP5r   P3a  1 4.300000e-01    3.770000e+00
  SP5r   P4a  1 4.300000e-01    3.970000e+00
  SP5r   C6v  1 4.300000e-01    2.530000e+00
  SP5r   C5v  1 4.300000e-01    2.530000e+00
  SP5r   C4v  1 4.300000e-01    2.320000e+00
  SP5r   C3v  1 4.300000e-01    2.160000e+00
  SP5r   C2v  1 4.300000e-01    2.160000e+00
  SP5r   C1v  1 4.300000e-01    1.930000e+00
  SP5r   X4v  1 4.300000e-01    2.920000e+00
  SP5r   X3v  1 4.300000e-01    2.770000e+00
  SP5r   X2v  1 4.300000e-01    2.770000e+00
  SP5r   X1v  1 4.300000e-01    2.320000e+00
  SP5r   C6e  1 4.300000e-01    2.530000e+00
  SP5r   C5e  1 4.300000e-01    2.530000e+00
  SP5r   C4e  1 4.300000e-01    2.320000e+00
  SP5r   C3e  1 4.300000e-01    2.160000e+00
  SP5r   C2e  1 4.300000e-01    2.160000e+00
  SP5r   C1e  1 4.300000e-01    1.930000e+00
  SP5r   X4e  1 4.300000e-01    2.920000e+00
  SP5r   X3e  1 4.300000e-01    2.770000e+00
  SP5r   X2e  1 4.300000e-01    2.770000e+00
  SP5r   X1e  1 4.300000e-01    2.320000e+00
  SP6q   P5r  1 4.300000e-01    4.920000e+00
  SP5r   P5q  1 4.300000e-01    4.680000e+00
  SP5r  X1eq  1 4.300000e-01    2.770000e+00
  SP5r  X2eq  1 4.300000e-01    3.160000e+00
  SP5r  X3eq  1 4.300000e-01    3.160000e+00
  SP5r  X4eq  1 4.300000e-01    3.380000e+00
  SP5r  C1eq  1 4.300000e-01    2.320000e+00
  SP5r  C2eq  1 4.300000e-01    2.530000e+00
  SP5r  C3eq  1 4.300000e-01    2.530000e+00
  SP5r  C4eq  1 4.300000e-01    2.770000e+00
  SP5r  C5eq  1 4.300000e-01    2.920000e+00
  SP5r  C6eq  1 4.300000e-01    2.920000e+00
  SP5r  X1vq  1 4.300000e-01    2.770000e+00
  SP5r  X2vq  1 4.300000e-01    3.160000e+00
  SP5r  X3vq  1 4.300000e-01    3.160000e+00
  SP5r  X4vq  1 4.300000e-01    3.380000e+00
  SP5r  C1vq  1 4.300000e-01    2.320000e+00
  SP5r  C2vq  1 4.300000e-01    2.530000e+00
  SP5r  C3vq  1 4.300000e-01    2.530000e+00
  SP5r  C4vq  1 4.300000e-01    2.770000e+00
  SP5r  C5vq  1 4.300000e-01    2.920000e+00
  SP5r  C6vq  1 4.300000e-01    2.920000e+00
  SP5r  N1aq  1 4.300000e-01    2.770000e+00
  SP5r  N2aq  1 4.300000e-01    2.920000e+00
  SP5r  N3aq  1 4.300000e-01    3.160000e+00
  SP5r  N4aq  1 4.300000e-01    3.590000e+00
  SP5r  N5aq  1 4.300000e-01    3.590000e+00
  SP5r  N6aq  1 4.300000e-01    3.770000e+00
  SP5r  P1aq  1 4.300000e-01    3.970000e+00
  SP5r  P2aq  1 4.300000e-01    4.170000e+00
  SP5r  P3aq  1 4.300000e-01    4.170000e+00
  SP5r  P4aq  1 4.300000e-01    4.400000e+00
  SP5r  P5aq  1 4.300000e-01    4.680000e+00
 SP6aq   P5r  1 4.300000e-01    4.920000e+00
  SP5r  N1dq  1 4.300000e-01    2.770000e+00
  SP5r  N2dq  1 4.300000e-01    2.920000e+00
  SP5r  N3dq  1 4.300000e-01    3.160000e+00
  SP5r  N4dq  1 4.300000e-01    3.590000e+00
  SP5r  N5dq  1 4.300000e-01    3.590000e+00
  SP5r  N6dq  1 4.300000e-01    3.770000e+00
  SP5r  P1dq  1 4.300000e-01    3.970000e+00
  SP5r  P2dq  1 4.300000e-01    4.170000e+00
  SP5r  P3dq  1 4.300000e-01    4.170000e+00
  SP5r  P4dq  1 4.300000e-01    4.400000e+00
  SP5r  P5dq  1 4.300000e-01    4.680000e+00
 SP6dq   P5r  1 4.300000e-01    4.920000e+00
  SP5r   X1q  1 4.300000e-01    2.530000e+00
  SP5r   X2q  1 4.300000e-01    2.920000e+00
  SP5r   X3q  1 4.300000e-01    2.920000e+00
  SP5r   X4q  1 4.300000e-01    3.160000e+00
  SP5r   C1q  1 4.300000e-01    2.160000e+00
  SP5r   C2q  1 4.300000e-01    2.320000e+00
  SP5r   C3q  1 4.300000e-01    2.320000e+00
  SP5r   C4q  1 4.300000e-01    2.530000e+00
  SP5r   C5q  1 4.300000e-01    2.770000e+00
  SP5r   C6q  1 4.300000e-01    2.770000e+00
  SP5r   N1q  1 4.300000e-01    2.770000e+00
  SP5r   N2q  1 4.300000e-01    2.920000e+00
  SP5r   N3q  1 4.300000e-01    3.160000e+00
  SP5r   N4q  1 4.300000e-01    3.590000e+00
  SP5r   N5q  1 4.300000e-01    3.590000e+00
  SP5r   N6q  1 4.300000e-01    3.770000e+00
  SP5r   P1q  1 4.300000e-01    3.970000e+00
  SP5r   P2q  1 4.300000e-01    4.170000e+00
  SP5r   P3q  1 4.300000e-01    4.170000e+00
  SP5r   P4q  1 4.300000e-01    4.400000e+00
  SP6d   P4r  1 4.300000e-01    4.170000e+00
  SP5d   P4r  1 4.300000e-01    3.970000e+00
  SP4r   P4d  1 4.300000e-01    3.970000e+00
  SP4r   N1d  1 4.300000e-01    2.530000e+00
  SP4r   N2d  1 4.300000e-01    2.770000e+00
  SP4r   N3d  1 4.300000e-01    2.920000e+00
  SP4r   N4d  1 4.300000e-01    3.160000e+00
  SP4r   N5d  1 4.300000e-01    3.160000e+00
  SP4r   N6d  1 4.300000e-01    3.380000e+00
  SP4r   P1d  1 4.300000e-01    3.590000e+00
  SP4r   P2d  1 4.300000e-01    3.770000e+00
  SP4r   P3d  1 4.300000e-01    3.770000e+00
  SP6a   P4r  1 4.300000e-01    4.170000e+00
  SP5a   P4r  1 4.300000e-01    3.970000e+00
  SP4r   P4a  1 4.300000e-01    3.970000e+00
  SP4r   N1a  1 4.300000e-01    2.530000e+00
  SP4r   N2a  1 4.300000e-01    2.770000e+00
  SP4r   N3a  1 4.300000e-01    2.920000e+00
  SP4r   N4a  1 4.300000e-01    3.160000e+00
  SP4r   N5a  1 4.300000e-01    3.160000e+00
  SP4r   N6a  1 4.300000e-01    3.380000e+00
  SP4r   P1a  1 4.300000e-01    3.590000e+00
  SP4r   P2a  1 4.300000e-01    3.770000e+00
  SP4r   P3a  1 4.300000e-01    3.770000e+00
  SP4r   C6v  1 4.300000e-01    2.770000e+00
  SP4r   C5v  1 4.300000e-01    2.530000e+00
  SP4r   C4v  1 4.300000e-01    2.320000e+00
  SP4r   C3v  1 4.300000e-01    2.160000e+00
  SP4r   C2v  1 4.300000e-01    2.160000e+00
  SP4r   C1v  1 4.300000e-01    1.930000e+00
  SP4r   X4v  1 4.300000e-01    2.920000e+00
  SP4r   X3v  1 4.300000e-01    2.770000e+00
  SP4r   X2v  1 4.300000e-01    2.770000e+00
  SP4r   X1v  1 4.300000e-01    2.530000e+00
  SP4r   C6e  1 4.300000e-01    2.770000e+00
  SP4r   C5e  1 4.300000e-01    2.530000e+00
  SP4r   C4e  1 4.300000e-01    2.320000e+00
  SP4r   C3e  1 4.300000e-01    2.160000e+00
  SP4r   C2e  1 4.300000e-01    2.160000e+00
  SP4r   C1e  1 4.300000e-01    1.930000e+00
  SP4r   X4e  1 4.300000e-01    2.920000e+00
  SP4r   X3e  1 4.300000e-01    2.770000e+00
  SP4r   X2e  1 4.300000e-01    2.770000e+00
  SP4r   X1e  1 4.300000e-01    2.530000e+00
  SP6q   P4r  1 4.300000e-01    4.680000e+00
  SP5q   P4r  1 4.300000e-01    4.400000e+00
  SP4r   P4q  1 4.300000e-01    4.400000e+00
  SP4r  X1eq  1 4.300000e-01    2.920000e+00
  SP4r  X2eq  1 4.300000e-01    3.160000e+00
  SP4r  X3eq  1 4.300000e-01    3.160000e+00
  SP4r  X4eq  1 4.300000e-01    3.380000e+00
  SP4r  C1eq  1 4.300000e-01    2.320000e+00
  SP4r  C2eq  1 4.300000e-01    2.530000e+00
  SP4r  C3eq  1 4.300000e-01    2.530000e+00
  SP4r  C4eq  1 4.300000e-01    2.770000e+00
  SP4r  C5eq  1 4.300000e-01    2.920000e+00
  SP4r  C6eq  1 4.300000e-01    3.160000e+00
  SP4r  X1vq  1 4.300000e-01    2.920000e+00
  SP4r  X2vq  1 4.300000e-01    3.160000e+00
  SP4r  X3vq  1 4.300000e-01    3.160000e+00
  SP4r  X4vq  1 4.300000e-01    3.380000e+00
  SP4r  C1vq  1 4.300000e-01    2.320000e+00
  SP4r  C2vq  1 4.300000e-01    2.530000e+00
  SP4r  C3vq  1 4.300000e-01    2.530000e+00
  SP4r  C4vq  1 4.300000e-01    2.770000e+00
  SP4r  C5vq  1 4.300000e-01    2.920000e+00
  SP4r  C6vq  1 4.300000e-01    3.160000e+00
  SP4r  N1aq  1 4.300000e-01    2.920000e+00
  SP4r  N2aq  1 4.300000e-01    3.160000e+00
  SP4r  N3aq  1 4.300000e-01    3.380000e+00
  SP4r  N4aq  1 4.300000e-01    3.590000e+00
  SP4r  N5aq  1 4.300000e-01    3.590000e+00
  SP4r  N6aq  1 4.300000e-01    3.770000e+00
  SP4r  P1aq  1 4.300000e-01    3.970000e+00
  SP4r  P2aq  1 4.300000e-01    4.170000e+00
  SP4r  P3aq  1 4.300000e-01    4.170000e+00
  SP4r  P4aq  1 4.300000e-01    4.400000e+00
 SP5aq   P4r  1 4.300000e-01    4.400000e+00
 SP6aq   P4r  1 4.300000e-01    4.680000e+00
  SP4r  N1dq  1 4.300000e-01    2.920000e+00
  SP4r  N2dq  1 4.300000e-01    3.160000e+00
  SP4r  N3dq  1 4.300000e-01    3.380000e+00
  SP4r  N4dq  1 4.300000e-01    3.590000e+00
  SP4r  N5dq  1 4.300000e-01    3.590000e+00
  SP4r  N6dq  1 4.300000e-01    3.770000e+00
  SP4r  P1dq  1 4.300000e-01    3.970000e+00
  SP4r  P2dq  1 4.300000e-01    4.170000e+00
  SP4r  P3dq  1 4.300000e-01    4.170000e+00
  SP4r  P4dq  1 4.300000e-01    4.400000e+00
 SP5dq   P4r  1 4.300000e-01    4.400000e+00
 SP6dq   P4r  1 4.300000e-01    4.680000e+00
  SP4r   X1q  1 4.300000e-01    2.770000e+00
  SP4r   X2q  1 4.300000e-01    2.920000e+00
  SP4r   X3q  1 4.300000e-01    2.920000e+00
  SP4r   X4q  1 4.300000e-01    3.160000e+00
  SP4r   C1q  1 4.300000e-01    2.160000e+00
  SP4r   C2q  1 4.300000e-01    2.320000e+00
  SP4r   C3q  1 4.300000e-01    2.320000e+00
  SP4r   C4q  1 4.300000e-01    2.530000e+00
  SP4r   C5q  1 4.300000e-01    2.770000e+00
  SP4r   C6q  1 4.300000e-01    2.920000e+00
  SP4r   N1q  1 4.300000e-01    2.920000e+00
  SP4r   N2q  1 4.300000e-01    3.160000e+00
  SP4r   N3q  1 4.300000e-01    3.380000e+00
  SP4r   N4q  1 4.300000e-01    3.590000e+00
  SP4r   N5q  1 4.300000e-01    3.590000e+00
  SP4r   N6q  1 4.300000e-01    3.770000e+00
  SP4r   P1q  1 4.300000e-01    3.970000e+00
  SP4r   P2q  1 4.300000e-01    4.170000e+00
  SP4r   P3q  1 4.300000e-01    4.170000e+00
  SP6d   P3r  1 4.300000e-01    3.970000e+00
  SP5d   P3r  1 4.300000e-01    3.770000e+00
  SP4d   P3r  1 4.300000e-01    3.770000e+00
  SP3r   P3d  1 4.300000e-01    3.770000e+00
  SP3r   N1d  1 4.300000e-01    2.770000e+00
  SP3r   N2d  1 4.300000e-01    2.920000e+00
  SP3r   N3d  1 4.300000e-01    2.920000e+00
  SP3r   N4d  1 4.300000e-01    3.160000e+00
  SP3r   N5d  1 4.300000e-01    3.160000e+00
  SP3r   N6d  1 4.300000e-01    3.380000e+00
  SP3r   P1d  1 4.300000e-01    3.590000e+00
  SP3r   P2d  1 4.300000e-01    3.770000e+00
  SP6a   P3r  1 4.300000e-01    3.970000e+00
  SP5a   P3r  1 4.300000e-01    3.770000e+00
  SP4a   P3r  1 4.300000e-01    3.770000e+00
  SP3r   P3a  1 4.300000e-01    3.770000e+00
  SP3r   N1a  1 4.300000e-01    2.770000e+00
  SP3r   N2a  1 4.300000e-01    2.920000e+00
  SP3r   N3a  1 4.300000e-01    2.920000e+00
  SP3r   N4a  1 4.300000e-01    3.160000e+00
  SP3r   N5a  1 4.300000e-01    3.160000e+00
  SP3r   N6a  1 4.300000e-01    3.380000e+00
  SP3r   P1a  1 4.300000e-01    3.590000e+00
  SP3r   P2a  1 4.300000e-01    3.770000e+00
  SP3r   C6v  1 4.300000e-01    2.920000e+00
  SP3r   C5v  1 4.300000e-01    2.770000e+00
  SP3r   C4v  1 4.300000e-01    2.530000e+00
  SP3r   C3v  1 4.300000e-01    2.160000e+00
  SP3r   C2v  1 4.300000e-01    2.160000e+00
  SP3r   C1v  1 4.300000e-01    1.930000e+00
  SP3r   X4v  1 4.300000e-01    2.920000e+00
  SP3r   X3v  1 4.300000e-01    2.920000e+00
  SP3r   X2v  1 4.300000e-01    2.770000e+00
  SP3r   X1v  1 4.300000e-01    2.530000e+00
  SP3r   C6e  1 4.300000e-01    2.920000e+00
  SP3r   C5e  1 4.300000e-01    2.770000e+00
  SP3r   C4e  1 4.300000e-01    2.530000e+00
  SP3r   C3e  1 4.300000e-01    2.160000e+00
  SP3r   C2e  1 4.300000e-01    2.160000e+00
  SP3r   C1e  1 4.300000e-01    1.930000e+00
  SP3r   X4e  1 4.300000e-01    2.920000e+00
  SP3r   X3e  1 4.300000e-01    2.920000e+00
  SP3r   X2e  1 4.300000e-01    2.770000e+00
  SP3r   X1e  1 4.300000e-01    2.530000e+00
  SP6q   P3r  1 4.300000e-01    4.400000e+00
  SP5q   P3r  1 4.300000e-01    4.170000e+00
  SP4q   P3r  1 4.300000e-01    4.170000e+00
  SP3r   P3q  1 4.300000e-01    4.170000e+00
  SP3r  X1eq  1 4.300000e-01    2.920000e+00
  SP3r  X2eq  1 4.300000e-01    3.160000e+00
  SP3r  X3eq  1 4.300000e-01    3.380000e+00
  SP3r  X4eq  1 4.300000e-01    3.380000e+00
  SP3r  C1eq  1 4.300000e-01    2.320000e+00
  SP3r  C2eq  1 4.300000e-01    2.530000e+00
  SP3r  C3eq  1 4.300000e-01    2.530000e+00
  SP3r  C4eq  1 4.300000e-01    2.920000e+00
  SP3r  C5eq  1 4.300000e-01    3.160000e+00
  SP3r  C6eq  1 4.300000e-01    3.380000e+00
  SP3r  X1vq  1 4.300000e-01    2.920000e+00
  SP3r  X2vq  1 4.300000e-01    3.160000e+00
  SP3r  X3vq  1 4.300000e-01    3.380000e+00
  SP3r  X4vq  1 4.300000e-01    3.380000e+00
  SP3r  C1vq  1 4.300000e-01    2.320000e+00
  SP3r  C2vq  1 4.300000e-01    2.530000e+00
  SP3r  C3vq  1 4.300000e-01    2.530000e+00
  SP3r  C4vq  1 4.300000e-01    2.920000e+00
  SP3r  C5vq  1 4.300000e-01    3.160000e+00
  SP3r  C6vq  1 4.300000e-01    3.380000e+00
  SP3r  N1aq  1 4.300000e-01    3.160000e+00
  SP3r  N2aq  1 4.300000e-01    3.380000e+00
  SP3r  N3aq  1 4.300000e-01    3.380000e+00
  SP3r  N4aq  1 4.300000e-01    3.590000e+00
  SP3r  N5aq  1 4.300000e-01    3.590000e+00
  SP3r  N6aq  1 4.300000e-01    3.770000e+00
  SP3r  P1aq  1 4.300000e-01    3.970000e+00
  SP3r  P2aq  1 4.300000e-01    4.170000e+00
  SP3r  P3aq  1 4.300000e-01    4.170000e+00
 SP4aq   P3r  1 4.300000e-01    4.170000e+00
 SP5aq   P3r  1 4.300000e-01    4.170000e+00
 SP6aq   P3r  1 4.300000e-01    4.400000e+00
  SP3r  N1dq  1 4.300000e-01    3.160000e+00
  SP3r  N2dq  1 4.300000e-01    3.380000e+00
  SP3r  N3dq  1 4.300000e-01    3.380000e+00
  SP3r  N4dq  1 4.300000e-01    3.590000e+00
  SP3r  N5dq  1 4.300000e-01    3.590000e+00
  SP3r  N6dq  1 4.300000e-01    3.770000e+00
  SP3r  P1dq  1 4.300000e-01    3.970000e+00
  SP3r  P2dq  1 4.300000e-01    4.170000e+00
  SP3r  P3dq  1 4.300000e-01    4.170000e+00
 SP4dq   P3r  1 4.300000e-01    4.170000e+00
 SP5dq   P3r  1 4.300000e-01    4.170000e+00
 SP6dq   P3r  1 4.300000e-01    4.400000e+00
  SP3r   X1q  1 4.300000e-01    2.770000e+00
  SP3r   X2q  1 4.300000e-01    2.920000e+00
  SP3r   X3q  1 4.300000e-01    3.160000e+00
  SP3r   X4q  1 4.300000e-01    3.160000e+00
  SP3r   C1q  1 4.300000e-01    2.160000e+00
  SP3r   C2q  1 4.300000e-01    2.320000e+00
  SP3r   C3q  1 4.300000e-01    2.320000e+00
  SP3r   C4q  1 4.300000e-01    2.770000e+00
  SP3r   C5q  1 4.300000e-01    2.920000e+00
  SP3r   C6q  1 4.300000e-01    3.160000e+00
  SP3r   N1q  1 4.300000e-01    3.160000e+00
  SP3r   N2q  1 4.300000e-01    3.380000e+00
  SP3r   N3q  1 4.300000e-01    3.380000e+00
  SP3r   N4q  1 4.300000e-01    3.590000e+00
  SP3r   N5q  1 4.300000e-01    3.590000e+00
  SP3r   N6q  1 4.300000e-01    3.770000e+00
  SP3r   P1q  1 4.300000e-01    3.970000e+00
  SP3r   P2q  1 4.300000e-01    4.170000e+00
  SP6d   P2r  1 4.300000e-01    3.970000e+00
  SP5d   P2r  1 4.300000e-01    3.770000e+00
  SP4d   P2r  1 4.300000e-01    3.770000e+00
  SP3d   P2r  1 4.300000e-01    3.770000e+00
  SP2r   P2d  1 4.300000e-01    3.770000e+00
  SP2r   N1d  1 4.300000e-01    2.920000e+00
  SP2r   N2d  1 4.300000e-01    2.920000e+00
  SP2r   N3d  1 4.300000e-01    2.920000e+00
  SP2r   N4d  1 4.300000e-01    3.160000e+00
  SP2r   N5d  1 4.300000e-01    3.380000e+00
  SP2r   N6d  1 4.300000e-01    3.590000e+00
  SP2r   P1d  1 4.300000e-01    3.590000e+00
  SP6a   P2r  1 4.300000e-01    3.970000e+00
  SP5a   P2r  1 4.300000e-01    3.770000e+00
  SP4a   P2r  1 4.300000e-01    3.770000e+00
  SP3a   P2r  1 4.300000e-01    3.770000e+00
  SP2r   P2a  1 4.300000e-01    3.770000e+00
  SP2r   N1a  1 4.300000e-01    2.920000e+00
  SP2r   N2a  1 4.300000e-01    2.920000e+00
  SP2r   N3a  1 4.300000e-01    2.920000e+00
  SP2r   N4a  1 4.300000e-01    3.160000e+00
  SP2r   N5a  1 4.300000e-01    3.380000e+00
  SP2r   N6a  1 4.300000e-01    3.590000e+00
  SP2r   P1a  1 4.300000e-01    3.590000e+00
  SP2r   C6v  1 4.300000e-01    2.920000e+00
  SP2r   C5v  1 4.300000e-01    2.770000e+00
  SP2r   C4v  1 4.300000e-01    2.530000e+00
  SP2r   C3v  1 4.300000e-01    2.320000e+00
  SP2r   C2v  1 4.300000e-01    2.320000e+00
  SP2r   C1v  1 4.300000e-01    2.160000e+00
  SP2r   X4v  1 4.300000e-01    2.920000e+00
  SP2r   X3v  1 4.300000e-01    2.920000e+00
  SP2r   X2v  1 4.300000e-01    2.770000e+00
  SP2r   X1v  1 4.300000e-01    2.530000e+00
  SP2r   C6e  1 4.300000e-01    2.920000e+00
  SP2r   C5e  1 4.300000e-01    2.770000e+00
  SP2r   C4e  1 4.300000e-01    2.530000e+00
  SP2r   C3e  1 4.300000e-01    2.320000e+00
  SP2r   C2e  1 4.300000e-01    2.320000e+00
  SP2r   C1e  1 4.300000e-01    2.160000e+00
  SP2r   X4e  1 4.300000e-01    2.920000e+00
  SP2r   X3e  1 4.300000e-01    2.920000e+00
  SP2r   X2e  1 4.300000e-01    2.770000e+00
  SP2r   X1e  1 4.300000e-01    2.530000e+00
  SP6q   P2r  1 4.300000e-01    4.400000e+00
  SP5q   P2r  1 4.300000e-01    4.170000e+00
  SP4q   P2r  1 4.300000e-01    4.170000e+00
  SP3q   P2r  1 4.300000e-01    4.170000e+00
  SP2r   P2q  1 4.300000e-01    4.170000e+00
  SP2r  X1eq  1 4.300000e-01    2.920000e+00
  SP2r  X2eq  1 4.300000e-01    3.160000e+00
  SP2r  X3eq  1 4.300000e-01    3.380000e+00
  SP2r  X4eq  1 4.300000e-01    3.380000e+00
  SP2r  C1eq  1 4.300000e-01    2.530000e+00
  SP2r  C2eq  1 4.300000e-01    2.770000e+00
  SP2r  C3eq  1 4.300000e-01    2.770000e+00
  SP2r  C4eq  1 4.300000e-01    2.920000e+00
  SP2r  C5eq  1 4.300000e-01    3.160000e+00
  SP2r  C6eq  1 4.300000e-01    3.380000e+00
  SP2r  X1vq  1 4.300000e-01    2.920000e+00
  SP2r  X2vq  1 4.300000e-01    3.160000e+00
  SP2r  X3vq  1 4.300000e-01    3.380000e+00
  SP2r  X4vq  1 4.300000e-01    3.380000e+00
  SP2r  C1vq  1 4.300000e-01    2.530000e+00
  SP2r  C2vq  1 4.300000e-01    2.770000e+00
  SP2r  C3vq  1 4.300000e-01    2.770000e+00
  SP2r  C4vq  1 4.300000e-01    2.920000e+00
  SP2r  C5vq  1 4.300000e-01    3.160000e+00
  SP2r  C6vq  1 4.300000e-01    3.380000e+00
  SP2r  N1aq  1 4.300000e-01    3.380000e+00
  SP2r  N2aq  1 4.300000e-01    3.380000e+00
  SP2r  N3aq  1 4.300000e-01    3.380000e+00
  SP2r  N4aq  1 4.300000e-01    3.590000e+00
  SP2r  N5aq  1 4.300000e-01    3.770000e+00
  SP2r  N6aq  1 4.300000e-01    3.970000e+00
  SP2r  P1aq  1 4.300000e-01    3.970000e+00
  SP2r  P2aq  1 4.300000e-01    4.170000e+00
 SP3aq   P2r  1 4.300000e-01    4.170000e+00
 SP4aq   P2r  1 4.300000e-01    4.170000e+00
 SP5aq   P2r  1 4.300000e-01    4.170000e+00
 SP6aq   P2r  1 4.300000e-01    4.400000e+00
  SP2r  N1dq  1 4.300000e-01    3.380000e+00
  SP2r  N2dq  1 4.300000e-01    3.380000e+00
  SP2r  N3dq  1 4.300000e-01    3.380000e+00
  SP2r  N4dq  1 4.300000e-01    3.590000e+00
  SP2r  N5dq  1 4.300000e-01    3.770000e+00
  SP2r  N6dq  1 4.300000e-01    3.970000e+00
  SP2r  P1dq  1 4.300000e-01    3.970000e+00
  SP2r  P2dq  1 4.300000e-01    4.170000e+00
 SP3dq   P2r  1 4.300000e-01    4.170000e+00
 SP4dq   P2r  1 4.300000e-01    4.170000e+00
 SP5dq   P2r  1 4.300000e-01    4.170000e+00
 SP6dq   P2r  1 4.300000e-01    4.400000e+00
  SP2r   X1q  1 4.300000e-01    2.770000e+00
  SP2r   X2q  1 4.300000e-01    2.920000e+00
  SP2r   X3q  1 4.300000e-01    3.160000e+00
  SP2r   X4q  1 4.300000e-01    3.160000e+00
  SP2r   C1q  1 4.300000e-01    2.320000e+00
  SP2r   C2q  1 4.300000e-01    2.530000e+00
  SP2r   C3q  1 4.300000e-01    2.530000e+00
  SP2r   C4q  1 4.300000e-01    2.770000e+00
  SP2r   C5q  1 4.300000e-01    2.920000e+00
  SP2r   C6q  1 4.300000e-01    3.160000e+00
  SP2r   N1q  1 4.300000e-01    3.380000e+00
  SP2r   N2q  1 4.300000e-01    3.380000e+00
  SP2r   N3q  1 4.300000e-01    3.380000e+00
  SP2r   N4q  1 4.300000e-01    3.590000e+00
  SP2r   N5q  1 4.300000e-01    3.770000e+00
  SP2r   N6q  1 4.300000e-01    3.970000e+00
  SP2r   P1q  1 4.300000e-01    3.970000e+00
  SP6d   P1r  1 4.300000e-01    3.770000e+00
  SP5d   P1r  1 4.300000e-01    3.590000e+00
  SP4d   P1r  1 4.300000e-01    3.590000e+00
  SP3d   P1r  1 4.300000e-01    3.590000e+00
  SP2d   P1r  1 4.300000e-01    3.590000e+00
  SP1r   P1d  1 4.300000e-01    3.590000e+00
  SP1r   N1d  1 4.300000e-01    2.920000e+00
  SP1r   N2d  1 4.300000e-01    2.920000e+00
  SP1r   N3d  1 4.300000e-01    2.920000e+00
  SP1r   N4d  1 4.300000e-01    3.380000e+00
  SP1r   N5d  1 4.300000e-01    3.380000e+00
  SP1r   N6d  1 4.300000e-01    3.590000e+00
  SP6a   P1r  1 4.300000e-01    3.770000e+00
  SP5a   P1r  1 4.300000e-01    3.590000e+00
  SP4a   P1r  1 4.300000e-01    3.590000e+00
  SP3a   P1r  1 4.300000e-01    3.590000e+00
  SP2a   P1r  1 4.300000e-01    3.590000e+00
  SP1r   P1a  1 4.300000e-01    3.590000e+00
  SP1r   N1a  1 4.300000e-01    2.920000e+00
  SP1r   N2a  1 4.300000e-01    2.920000e+00
  SP1r   N3a  1 4.300000e-01    2.920000e+00
  SP1r   N4a  1 4.300000e-01    3.380000e+00
  SP1r   N5a  1 4.300000e-01    3.380000e+00
  SP1r   N6a  1 4.300000e-01    3.590000e+00
  SP1r   C6v  1 4.300000e-01    2.920000e+00
  SP1r   C5v  1 4.300000e-01    2.770000e+00
  SP1r   C4v  1 4.300000e-01    2.530000e+00
  SP1r   C3v  1 4.300000e-01    2.320000e+00
  SP1r   C2v  1 4.300000e-01    2.320000e+00
  SP1r   C1v  1 4.300000e-01    2.160000e+00
  SP1r   X4v  1 4.300000e-01    2.920000e+00
  SP1r   X3v  1 4.300000e-01    2.920000e+00
  SP1r   X2v  1 4.300000e-01    2.770000e+00
  SP1r   X1v  1 4.300000e-01    2.530000e+00
  SP1r   C6e  1 4.300000e-01    2.920000e+00
  SP1r   C5e  1 4.300000e-01    2.770000e+00
  SP1r   C4e  1 4.300000e-01    2.530000e+00
  SP1r   C3e  1 4.300000e-01    2.320000e+00
  SP1r   C2e  1 4.300000e-01    2.320000e+00
  SP1r   C1e  1 4.300000e-01    2.160000e+00
  SP1r   X4e  1 4.300000e-01    2.920000e+00
  SP1r   X3e  1 4.300000e-01    2.920000e+00
  SP1r   X2e  1 4.300000e-01    2.770000e+00
  SP1r   X1e  1 4.300000e-01    2.530000e+00
  SP6q   P1r  1 4.300000e-01    4.170000e+00
  SP5q   P1r  1 4.300000e-01    3.970000e+00
  SP4q   P1r  1 4.300000e-01    3.970000e+00
  SP3q   P1r  1 4.300000e-01    3.970000e+00
  SP2q   P1r  1 4.300000e-01    3.970000e+00
  SP1r   P1q  1 4.300000e-01    3.970000e+00
  SP1r  X1eq  1 4.300000e-01    2.920000e+00
  SP1r  X2eq  1 4.300000e-01    3.160000e+00
  SP1r  X3eq  1 4.300000e-01    3.380000e+00
  SP1r  X4eq  1 4.300000e-01    3.380000e+00
  SP1r  C1eq  1 4.300000e-01    2.530000e+00
  SP1r  C2eq  1 4.300000e-01    2.770000e+00
  SP1r  C3eq  1 4.300000e-01    2.770000e+00
  SP1r  C4eq  1 4.300000e-01    2.920000e+00
  SP1r  C5eq  1 4.300000e-01    3.160000e+00
  SP1r  C6eq  1 4.300000e-01    3.380000e+00
  SP1r  X1vq  1 4.300000e-01    2.920000e+00
  SP1r  X2vq  1 4.300000e-01    3.160000e+00
  SP1r  X3vq  1 4.300000e-01    3.380000e+00
  SP1r  X4vq  1 4.300000e-01    3.380000e+00
  SP1r  C1vq  1 4.300000e-01    2.530000e+00
  SP1r  C2vq  1 4.300000e-01    2.770000e+00
  SP1r  C3vq  1 4.300000e-01    2.770000e+00
  SP1r  C4vq  1 4.300000e-01    2.920000e+00
  SP1r  C5vq  1 4.300000e-01    3.160000e+00
  SP1r  C6vq  1 4.300000e-01    3.380000e+00
  SP1r  N1aq  1 4.300000e-01    3.380000e+00
  SP1r  N2aq  1 4.300000e-01    3.380000e+00
  SP1r  N3aq  1 4.300000e-01    3.380000e+00
  SP1r  N4aq  1 4.300000e-01    3.770000e+00
  SP1r  N5aq  1 4.300000e-01    3.770000e+00
  SP1r  N6aq  1 4.300000e-01    3.970000e+00
  SP1r  P1aq  1 4.300000e-01    3.970000e+00
 SP2aq   P1r  1 4.300000e-01    3.970000e+00
 SP3aq   P1r  1 4.300000e-01    3.970000e+00
 SP4aq   P1r  1 4.300000e-01    3.970000e+00
 SP5aq   P1r  1 4.300000e-01    3.970000e+00
 SP6aq   P1r  1 4.300000e-01    4.170000e+00
  SP1r  N1dq  1 4.300000e-01    3.380000e+00
  SP1r  N2dq  1 4.300000e-01    3.380000e+00
  SP1r  N3dq  1 4.300000e-01    3.380000e+00
  SP1r  N4dq  1 4.300000e-01    3.770000e+00
  SP1r  N5dq  1 4.300000e-01    3.770000e+00
  SP1r  N6dq  1 4.300000e-01    3.970000e+00
  SP1r  P1dq  1 4.300000e-01    3.970000e+00
 SP2dq   P1r  1 4.300000e-01    3.970000e+00
 SP3dq   P1r  1 4.300000e-01    3.970000e+00
 SP4dq   P1r  1 4.300000e-01    3.970000e+00
 SP5dq   P1r  1 4.300000e-01    3.970000e+00
 SP6dq   P1r  1 4.300000e-01    4.170000e+00
  SP1r   X1q  1 4.300000e-01    2.770000e+00
  SP1r   X2q  1 4.300000e-01    2.920000e+00
  SP1r   X3q  1 4.300000e-01    3.160000e+00
  SP1r   X4q  1 4.300000e-01    3.160000e+00
  SP1r   C1q  1 4.300000e-01    2.320000e+00
  SP1r   C2q  1 4.300000e-01    2.530000e+00
  SP1r   C3q  1 4.300000e-01    2.530000e+00
  SP1r   C4q  1 4.300000e-01    2.770000e+00
  SP1r   C5q  1 4.300000e-01    2.920000e+00
  SP1r   C6q  1 4.300000e-01    3.160000e+00
  SP1r   N1q  1 4.300000e-01    3.380000e+00
  SP1r   N2q  1 4.300000e-01    3.380000e+00
  SP1r   N3q  1 4.300000e-01    3.380000e+00
  SP1r   N4q  1 4.300000e-01    3.770000e+00
  SP1r   N5q  1 4.300000e-01    3.770000e+00
  SP1r   N6q  1 4.300000e-01    3.970000e+00
  SP6d   N6r  1 4.300000e-01    3.590000e+00
  SP5d   N6r  1 4.300000e-01    3.380000e+00
  SP4d   N6r  1 4.300000e-01    3.380000e+00
  SP3d   N6r  1 4.300000e-01    3.380000e+00
  SP2d   N6r  1 4.300000e-01    3.590000e+00
  SP1d   N6r  1 4.300000e-01    3.590000e+00
  SN6r   N6d  1 4.300000e-01    3.590000e+00
  SN6r   N1d  1 4.300000e-01    2.920000e+00
  SN6r   N2d  1 4.300000e-01    2.920000e+00
  SN6r   N3d  1 4.300000e-01    3.160000e+00
  SN6r   N4d  1 4.300000e-01    3.590000e+00
  SN6r   N5d  1 4.300000e-01    3.590000e+00
  SP6a   N6r  1 4.300000e-01    3.590000e+00
  SP5a   N6r  1 4.300000e-01    3.380000e+00
  SP4a   N6r  1 4.300000e-01    3.380000e+00
  SP3a   N6r  1 4.300000e-01    3.380000e+00
  SP2a   N6r  1 4.300000e-01    3.590000e+00
  SP1a   N6r  1 4.300000e-01    3.590000e+00
  SN6r   N6a  1 4.300000e-01    3.590000e+00
  SN6r   N1a  1 4.300000e-01    2.920000e+00
  SN6r   N2a  1 4.300000e-01    2.920000e+00
  SN6r   N3a  1 4.300000e-01    3.160000e+00
  SN6r   N4a  1 4.300000e-01    3.590000e+00
  SN6r   N5a  1 4.300000e-01    3.590000e+00
  SN6r   C6v  1 4.300000e-01    3.160000e+00
  SN6r   C5v  1 4.300000e-01    2.920000e+00
  SN6r   C4v  1 4.300000e-01    2.770000e+00
  SN6r   C3v  1 4.300000e-01    2.530000e+00
  SN6r   C2v  1 4.300000e-01    2.530000e+00
  SN6r   C1v  1 4.300000e-01    2.320000e+00
  SN6r   X4v  1 4.300000e-01    3.160000e+00
  SN6r   X3v  1 4.300000e-01    2.920000e+00
  SN6r   X2v  1 4.300000e-01    2.770000e+00
  SN6r   X1v  1 4.300000e-01    2.530000e+00
  SN6r   C6e  1 4.300000e-01    3.160000e+00
  SN6r   C5e  1 4.300000e-01    2.920000e+00
  SN6r   C4e  1 4.300000e-01    2.770000e+00
  SN6r   C3e  1 4.300000e-01    2.530000e+00
  SN6r   C2e  1 4.300000e-01    2.530000e+00
  SN6r   C1e  1 4.300000e-01    2.320000e+00
  SN6r   X4e  1 4.300000e-01    3.160000e+00
  SN6r   X3e  1 4.300000e-01    2.920000e+00
  SN6r   X2e  1 4.300000e-01    2.770000e+00
  SN6r   X1e  1 4.300000e-01    2.530000e+00
  SP6q   N6r  1 4.300000e-01    3.970000e+00
  SP5q   N6r  1 4.300000e-01    3.770000e+00
  SP4q   N6r  1 4.300000e-01    3.770000e+00
  SP3q   N6r  1 4.300000e-01    3.770000e+00
  SP2q   N6r  1 4.300000e-01    3.970000e+00
  SP1q   N6r  1 4.300000e-01    3.970000e+00
  SN6r   N6q  1 4.300000e-01    3.970000e+00
  SN6r  X1eq  1 4.300000e-01    2.920000e+00
  SN6r  X2eq  1 4.300000e-01    3.160000e+00
  SN6r  X3eq  1 4.300000e-01    3.380000e+00
  SN6r  X4eq  1 4.300000e-01    3.590000e+00
  SN6r  C1eq  1 4.300000e-01    2.770000e+00
  SN6r  C2eq  1 4.300000e-01    2.920000e+00
  SN6r  C3eq  1 4.300000e-01    2.920000e+00
  SN6r  C4eq  1 4.300000e-01    3.160000e+00
  SN6r  C5eq  1 4.300000e-01    3.380000e+00
  SN6r  C6eq  1 4.300000e-01    3.590000e+00
  SN6r  X1vq  1 4.300000e-01    2.920000e+00
  SN6r  X2vq  1 4.300000e-01    3.160000e+00
  SN6r  X3vq  1 4.300000e-01    3.380000e+00
  SN6r  X4vq  1 4.300000e-01    3.590000e+00
  SN6r  C1vq  1 4.300000e-01    2.770000e+00
  SN6r  C2vq  1 4.300000e-01    2.920000e+00
  SN6r  C3vq  1 4.300000e-01    2.920000e+00
  SN6r  C4vq  1 4.300000e-01    3.160000e+00
  SN6r  C5vq  1 4.300000e-01    3.380000e+00
  SN6r  C6vq  1 4.300000e-01    3.590000e+00
  SN6r  N1aq  1 4.300000e-01    3.380000e+00
  SN6r  N2aq  1 4.300000e-01    3.380000e+00
  SN6r  N3aq  1 4.300000e-01    3.590000e+00
  SN6r  N4aq  1 4.300000e-01    3.970000e+00
  SN6r  N5aq  1 4.300000e-01    3.970000e+00
  SN6r  N6aq  1 4.300000e-01    3.970000e+00
 SP1aq   N6r  1 4.300000e-01    3.970000e+00
 SP2aq   N6r  1 4.300000e-01    3.970000e+00
 SP3aq   N6r  1 4.300000e-01    3.770000e+00
 SP4aq   N6r  1 4.300000e-01    3.770000e+00
 SP5aq   N6r  1 4.300000e-01    3.770000e+00
 SP6aq   N6r  1 4.300000e-01    3.970000e+00
  SN6r  N1dq  1 4.300000e-01    3.380000e+00
  SN6r  N2dq  1 4.300000e-01    3.380000e+00
  SN6r  N3dq  1 4.300000e-01    3.590000e+00
  SN6r  N4dq  1 4.300000e-01    3.970000e+00
  SN6r  N5dq  1 4.300000e-01    3.970000e+00
  SN6r  N6dq  1 4.300000e-01    3.970000e+00
 SP1dq   N6r  1 4.300000e-01    3.970000e+00
 SP2dq   N6r  1 4.300000e-01    3.970000e+00
 SP3dq   N6r  1 4.300000e-01    3.770000e+00
 SP4dq   N6r  1 4.300000e-01    3.770000e+00
 SP5dq   N6r  1 4.300000e-01    3.770000e+00
 SP6dq   N6r  1 4.300000e-01    3.970000e+00
  SN6r   X1q  1 4.300000e-01    2.770000e+00
  SN6r   X2q  1 4.300000e-01    2.920000e+00
  SN6r   X3q  1 4.300000e-01    3.160000e+00
  SN6r   X4q  1 4.300000e-01    3.380000e+00
  SN6r   C1q  1 4.300000e-01    2.530000e+00
  SN6r   C2q  1 4.300000e-01    2.770000e+00
  SN6r   C3q  1 4.300000e-01    2.770000e+00
  SN6r   C4q  1 4.300000e-01    2.920000e+00
  SN6r   C5q  1 4.300000e-01    3.160000e+00
  SN6r   C6q  1 4.300000e-01    3.380000e+00
  SN6r   N1q  1 4.300000e-01    3.380000e+00
  SN6r   N2q  1 4.300000e-01    3.380000e+00
  SN6r   N3q  1 4.300000e-01    3.590000e+00
  SN6r   N4q  1 4.300000e-01    3.970000e+00
  SN6r   N5q  1 4.300000e-01    3.970000e+00
  SP6d   N5r  1 4.300000e-01    3.160000e+00
  SP5d   N5r  1 4.300000e-01    3.160000e+00
  SP4d   N5r  1 4.300000e-01    3.160000e+00
  SP3d   N5r  1 4.300000e-01    3.160000e+00
  SP2d   N5r  1 4.300000e-01    3.380000e+00
  SP1d   N5r  1 4.300000e-01    3.380000e+00
  SN6d   N5r  1 4.300000e-01    3.590000e+00
  SN5r   N5d  1 4.300000e-01    3.380000e+00
  SN5r   N1d  1 4.300000e-01    2.920000e+00
  SN5r   N2d  1 4.300000e-01    3.160000e+00
  SN5r   N3d  1 4.300000e-01    3.160000e+00
  SN5r   N4d  1 4.300000e-01    3.380000e+00
  SP6a   N5r  1 4.300000e-01    3.160000e+00
  SP5a   N5r  1 4.300000e-01    3.160000e+00
  SP4a   N5r  1 4.300000e-01    3.160000e+00
  SP3a   N5r  1 4.300000e-01    3.160000e+00
  SP2a   N5r  1 4.300000e-01    3.380000e+00
  SP1a   N5r  1 4.300000e-01    3.380000e+00
  SN6a   N5r  1 4.300000e-01    3.590000e+00
  SN5r   N5a  1 4.300000e-01    3.380000e+00
  SN5r   N1a  1 4.300000e-01    2.920000e+00
  SN5r   N2a  1 4.300000e-01    3.160000e+00
  SN5r   N3a  1 4.300000e-01    3.160000e+00
  SN5r   N4a  1 4.300000e-01    3.380000e+00
  SN5r   C6v  1 4.300000e-01    3.160000e+00
  SN5r   C5v  1 4.300000e-01    2.920000e+00
  SN5r   C4v  1 4.300000e-01    2.770000e+00
  SN5r   C3v  1 4.300000e-01    2.770000e+00
  SN5r   C2v  1 4.300000e-01    2.530000e+00
  SN5r   C1v  1 4.300000e-01    2.320000e+00
  SN5r   X4v  1 4.300000e-01    3.380000e+00
  SN5r   X3v  1 4.300000e-01    3.160000e+00
  SN5r   X2v  1 4.300000e-01    2.920000e+00
  SN5r   X1v  1 4.300000e-01    2.770000e+00
  SN5r   C6e  1 4.300000e-01    3.160000e+00
  SN5r   C5e  1 4.300000e-01    2.920000e+00
  SN5r   C4e  1 4.300000e-01    2.770000e+00
  SN5r   C3e  1 4.300000e-01    2.770000e+00
  SN5r   C2e  1 4.300000e-01    2.530000e+00
  SN5r   C1e  1 4.300000e-01    2.320000e+00
  SN5r   X4e  1 4.300000e-01    3.380000e+00
  SN5r   X3e  1 4.300000e-01    3.160000e+00
  SN5r   X2e  1 4.300000e-01    2.920000e+00
  SN5r   X1e  1 4.300000e-01    2.770000e+00
  SP6q   N5r  1 4.300000e-01    3.590000e+00
  SP5q   N5r  1 4.300000e-01    3.590000e+00
  SP4q   N5r  1 4.300000e-01    3.590000e+00
  SP3q   N5r  1 4.300000e-01    3.590000e+00
  SP2q   N5r  1 4.300000e-01    3.770000e+00
  SP1q   N5r  1 4.300000e-01    3.770000e+00
  SN6q   N5r  1 4.300000e-01    3.970000e+00
  SN5r   N5q  1 4.300000e-01    3.770000e+00
  SN5r  X1eq  1 4.300000e-01    3.160000e+00
  SN5r  X2eq  1 4.300000e-01    3.380000e+00
  SN5r  X3eq  1 4.300000e-01    3.590000e+00
  SN5r  X4eq  1 4.300000e-01    3.770000e+00
  SN5r  C1eq  1 4.300000e-01    2.770000e+00
  SN5r  C2eq  1 4.300000e-01    2.920000e+00
  SN5r  C3eq  1 4.300000e-01    3.160000e+00
  SN5r  C4eq  1 4.300000e-01    3.160000e+00
  SN5r  C5eq  1 4.300000e-01    3.380000e+00
  SN5r  C6eq  1 4.300000e-01    3.590000e+00
  SN5r  X1vq  1 4.300000e-01    3.160000e+00
  SN5r  X2vq  1 4.300000e-01    3.380000e+00
  SN5r  X3vq  1 4.300000e-01    3.590000e+00
  SN5r  X4vq  1 4.300000e-01    3.770000e+00
  SN5r  C1vq  1 4.300000e-01    2.770000e+00
  SN5r  C2vq  1 4.300000e-01    2.920000e+00
  SN5r  C3vq  1 4.300000e-01    3.160000e+00
  SN5r  C4vq  1 4.300000e-01    3.160000e+00
  SN5r  C5vq  1 4.300000e-01    3.380000e+00
  SN5r  C6vq  1 4.300000e-01    3.590000e+00
  SN5r  N1aq  1 4.300000e-01    3.380000e+00
  SN5r  N2aq  1 4.300000e-01    3.590000e+00
  SN5r  N3aq  1 4.300000e-01    3.590000e+00
  SN5r  N4aq  1 4.300000e-01    3.770000e+00
  SN5r  N5aq  1 4.300000e-01    3.770000e+00
 SN6aq   N5r  1 4.300000e-01    3.970000e+00
 SP1aq   N5r  1 4.300000e-01    3.770000e+00
 SP2aq   N5r  1 4.300000e-01    3.770000e+00
 SP3aq   N5r  1 4.300000e-01    3.590000e+00
 SP4aq   N5r  1 4.300000e-01    3.590000e+00
 SP5aq   N5r  1 4.300000e-01    3.590000e+00
 SP6aq   N5r  1 4.300000e-01    3.590000e+00
  SN5r  N1dq  1 4.300000e-01    3.380000e+00
  SN5r  N2dq  1 4.300000e-01    3.590000e+00
  SN5r  N3dq  1 4.300000e-01    3.590000e+00
  SN5r  N4dq  1 4.300000e-01    3.770000e+00
  SN5r  N5dq  1 4.300000e-01    3.770000e+00
 SN6dq   N5r  1 4.300000e-01    3.970000e+00
 SP1dq   N5r  1 4.300000e-01    3.770000e+00
 SP2dq   N5r  1 4.300000e-01    3.770000e+00
 SP3dq   N5r  1 4.300000e-01    3.590000e+00
 SP4dq   N5r  1 4.300000e-01    3.590000e+00
 SP5dq   N5r  1 4.300000e-01    3.590000e+00
 SP6dq   N5r  1 4.300000e-01    3.590000e+00
  SN5r   X1q  1 4.300000e-01    2.920000e+00
  SN5r   X2q  1 4.300000e-01    3.160000e+00
  SN5r   X3q  1 4.300000e-01    3.380000e+00
  SN5r   X4q  1 4.300000e-01    3.590000e+00
  SN5r   C1q  1 4.300000e-01    2.530000e+00
  SN5r   C2q  1 4.300000e-01    2.770000e+00
  SN5r   C3q  1 4.300000e-01    2.920000e+00
  SN5r   C4q  1 4.300000e-01    2.920000e+00
  SN5r   C5q  1 4.300000e-01    3.160000e+00
  SN5r   C6q  1 4.300000e-01    3.380000e+00
  SN5r   N1q  1 4.300000e-01    3.380000e+00
  SN5r   N2q  1 4.300000e-01    3.590000e+00
  SN5r   N3q  1 4.300000e-01    3.590000e+00
  SN5r   N4q  1 4.300000e-01    3.770000e+00
  SP6d   N4r  1 4.300000e-01    2.920000e+00
  SP5d   N4r  1 4.300000e-01    3.160000e+00
  SP4d   N4r  1 4.300000e-01    3.160000e+00
  SP3d   N4r  1 4.300000e-01    3.160000e+00
  SP2d   N4r  1 4.300000e-01    3.160000e+00
  SP1d   N4r  1 4.300000e-01    3.380000e+00
  SN6d   N4r  1 4.300000e-01    3.590000e+00
  SN5d   N4r  1 4.300000e-01    3.380000e+00
  SN4r   N4d  1 4.300000e-01    3.380000e+00
  SN4r   N1d  1 4.300000e-01    2.920000e+00
  SN4r   N2d  1 4.300000e-01    3.160000e+00
  SN4r   N3d  1 4.300000e-01    3.160000e+00
  SP6a   N4r  1 4.300000e-01    2.920000e+00
  SP5a   N4r  1 4.300000e-01    3.160000e+00
  SP4a   N4r  1 4.300000e-01    3.160000e+00
  SP3a   N4r  1 4.300000e-01    3.160000e+00
  SP2a   N4r  1 4.300000e-01    3.160000e+00
  SP1a   N4r  1 4.300000e-01    3.380000e+00
  SN6a   N4r  1 4.300000e-01    3.590000e+00
  SN5a   N4r  1 4.300000e-01    3.380000e+00
  SN4r   N4a  1 4.300000e-01    3.380000e+00
  SN4r   N1a  1 4.300000e-01    2.920000e+00
  SN4r   N2a  1 4.300000e-01    3.160000e+00
  SN4r   N3a  1 4.300000e-01    3.160000e+00
  SN4r   C6v  1 4.300000e-01    3.160000e+00
  SN4r   C5v  1 4.300000e-01    2.920000e+00
  SN4r   C4v  1 4.300000e-01    2.920000e+00
  SN4r   C3v  1 4.300000e-01    2.770000e+00
  SN4r   C2v  1 4.300000e-01    2.530000e+00
  SN4r   C1v  1 4.300000e-01    2.320000e+00
  SN4r   X4v  1 4.300000e-01    3.590000e+00
  SN4r   X3v  1 4.300000e-01    3.380000e+00
  SN4r   X2v  1 4.300000e-01    2.920000e+00
  SN4r   X1v  1 4.300000e-01    2.770000e+00
  SN4r   C6e  1 4.300000e-01    3.160000e+00
  SN4r   C5e  1 4.300000e-01    2.920000e+00
  SN4r   C4e  1 4.300000e-01    2.920000e+00
  SN4r   C3e  1 4.300000e-01    2.770000e+00
  SN4r   C2e  1 4.300000e-01    2.530000e+00
  SN4r   C1e  1 4.300000e-01    2.320000e+00
  SN4r   X4e  1 4.300000e-01    3.590000e+00
  SN4r   X3e  1 4.300000e-01    3.380000e+00
  SN4r   X2e  1 4.300000e-01    2.920000e+00
  SN4r   X1e  1 4.300000e-01    2.770000e+00
  SP6q   N4r  1 4.300000e-01    3.380000e+00
  SP5q   N4r  1 4.300000e-01    3.590000e+00
  SP4q   N4r  1 4.300000e-01    3.590000e+00
  SP3q   N4r  1 4.300000e-01    3.590000e+00
  SP2q   N4r  1 4.300000e-01    3.590000e+00
  SP1q   N4r  1 4.300000e-01    3.770000e+00
  SN6q   N4r  1 4.300000e-01    3.970000e+00
  SN5q   N4r  1 4.300000e-01    3.770000e+00
  SN4r   N4q  1 4.300000e-01    3.770000e+00
  SN4r  X1eq  1 4.300000e-01    3.160000e+00
  SN4r  X2eq  1 4.300000e-01    3.380000e+00
  SN4r  X3eq  1 4.300000e-01    3.770000e+00
  SN4r  X4eq  1 4.300000e-01    3.970000e+00
  SN4r  C1eq  1 4.300000e-01    2.770000e+00
  SN4r  C2eq  1 4.300000e-01    2.920000e+00
  SN4r  C3eq  1 4.300000e-01    3.160000e+00
  SN4r  C4eq  1 4.300000e-01    3.380000e+00
  SN4r  C5eq  1 4.300000e-01    3.380000e+00
  SN4r  C6eq  1 4.300000e-01    3.590000e+00
  SN4r  X1vq  1 4.300000e-01    3.160000e+00
  SN4r  X2vq  1 4.300000e-01    3.380000e+00
  SN4r  X3vq  1 4.300000e-01    3.770000e+00
  SN4r  X4vq  1 4.300000e-01    3.970000e+00
  SN4r  C1vq  1 4.300000e-01    2.770000e+00
  SN4r  C2vq  1 4.300000e-01    2.920000e+00
  SN4r  C3vq  1 4.300000e-01    3.160000e+00
  SN4r  C4vq  1 4.300000e-01    3.380000e+00
  SN4r  C5vq  1 4.300000e-01    3.380000e+00
  SN4r  C6vq  1 4.300000e-01    3.590000e+00
  SN4r  N1aq  1 4.300000e-01    3.380000e+00
  SN4r  N2aq  1 4.300000e-01    3.590000e+00
  SN4r  N3aq  1 4.300000e-01    3.590000e+00
  SN4r  N4aq  1 4.300000e-01    3.770000e+00
 SN5aq   N4r  1 4.300000e-01    3.770000e+00
 SN6aq   N4r  1 4.300000e-01    3.970000e+00
 SP1aq   N4r  1 4.300000e-01    3.770000e+00
 SP2aq   N4r  1 4.300000e-01    3.590000e+00
 SP3aq   N4r  1 4.300000e-01    3.590000e+00
 SP4aq   N4r  1 4.300000e-01    3.590000e+00
 SP5aq   N4r  1 4.300000e-01    3.590000e+00
 SP6aq   N4r  1 4.300000e-01    3.380000e+00
  SN4r  N1dq  1 4.300000e-01    3.380000e+00
  SN4r  N2dq  1 4.300000e-01    3.590000e+00
  SN4r  N3dq  1 4.300000e-01    3.590000e+00
  SN4r  N4dq  1 4.300000e-01    3.770000e+00
 SN5dq   N4r  1 4.300000e-01    3.770000e+00
 SN6dq   N4r  1 4.300000e-01    3.970000e+00
 SP1dq   N4r  1 4.300000e-01    3.770000e+00
 SP2dq   N4r  1 4.300000e-01    3.590000e+00
 SP3dq   N4r  1 4.300000e-01    3.590000e+00
 SP4dq   N4r  1 4.300000e-01    3.590000e+00
 SP5dq   N4r  1 4.300000e-01    3.590000e+00
 SP6dq   N4r  1 4.300000e-01    3.380000e+00
  SN4r   X1q  1 4.300000e-01    2.920000e+00
  SN4r   X2q  1 4.300000e-01    3.160000e+00
  SN4r   X3q  1 4.300000e-01    3.590000e+00
  SN4r   X4q  1 4.300000e-01    3.770000e+00
  SN4r   C1q  1 4.300000e-01    2.530000e+00
  SN4r   C2q  1 4.300000e-01    2.770000e+00
  SN4r   C3q  1 4.300000e-01    2.920000e+00
  SN4r   C4q  1 4.300000e-01    3.160000e+00
  SN4r   C5q  1 4.300000e-01    3.160000e+00
  SN4r   C6q  1 4.300000e-01    3.380000e+00
  SN4r   N1q  1 4.300000e-01    3.380000e+00
  SN4r   N2q  1 4.300000e-01    3.590000e+00
  SN4r   N3q  1 4.300000e-01    3.590000e+00
  SP6d   N3r  1 4.300000e-01    2.770000e+00
  SP5d   N3r  1 4.300000e-01    2.770000e+00
  SP4d   N3r  1 4.300000e-01    2.920000e+00
  SP3d   N3r  1 4.300000e-01    2.920000e+00
  SP2d   N3r  1 4.300000e-01    2.920000e+00
  SP1d   N3r  1 4.300000e-01    2.920000e+00
  SN6d   N3r  1 4.300000e-01    3.160000e+00
  SN5d   N3r  1 4.300000e-01    3.160000e+00
  SN4d   N3r  1 4.300000e-01    3.160000e+00
  SN3r   N3d  1 4.300000e-01    3.160000e+00
  SN3r   N1d  1 4.300000e-01    2.920000e+00
  SN3r   N2d  1 4.300000e-01    3.160000e+00
  SP6a   N3r  1 4.300000e-01    2.770000e+00
  SP5a   N3r  1 4.300000e-01    2.770000e+00
  SP4a   N3r  1 4.300000e-01    2.920000e+00
  SP3a   N3r  1 4.300000e-01    2.920000e+00
  SP2a   N3r  1 4.300000e-01    2.920000e+00
  SP1a   N3r  1 4.300000e-01    2.920000e+00
  SN6a   N3r  1 4.300000e-01    3.160000e+00
  SN5a   N3r  1 4.300000e-01    3.160000e+00
  SN4a   N3r  1 4.300000e-01    3.160000e+00
  SN3r   N3a  1 4.300000e-01    3.160000e+00
  SN3r   N1a  1 4.300000e-01    2.920000e+00
  SN3r   N2a  1 4.300000e-01    3.160000e+00
  SN3r   C6v  1 4.300000e-01    3.160000e+00
  SN3r   C5v  1 4.300000e-01    2.920000e+00
  SN3r   C4v  1 4.300000e-01    2.920000e+00
  SN3r   C3v  1 4.300000e-01    2.770000e+00
  SN3r   C2v  1 4.300000e-01    2.770000e+00
  SN3r   C1v  1 4.300000e-01    2.530000e+00
  SN3r   X4v  1 4.300000e-01    3.380000e+00
  SN3r   X3v  1 4.300000e-01    3.160000e+00
  SN3r   X2v  1 4.300000e-01    2.920000e+00
  SN3r   X1v  1 4.300000e-01    2.920000e+00
  SN3r   C6e  1 4.300000e-01    3.160000e+00
  SN3r   C5e  1 4.300000e-01    2.920000e+00
  SN3r   C4e  1 4.300000e-01    2.920000e+00
  SN3r   C3e  1 4.300000e-01    2.770000e+00
  SN3r   C2e  1 4.300000e-01    2.770000e+00
  SN3r   C1e  1 4.300000e-01    2.530000e+00
  SN3r   X4e  1 4.300000e-01    3.380000e+00
  SN3r   X3e  1 4.300000e-01    3.160000e+00
  SN3r   X2e  1 4.300000e-01    2.920000e+00
  SN3r   X1e  1 4.300000e-01    2.920000e+00
  SP6q   N3r  1 4.300000e-01    3.160000e+00
  SP5q   N3r  1 4.300000e-01    3.160000e+00
  SP4q   N3r  1 4.300000e-01    3.380000e+00
  SP3q   N3r  1 4.300000e-01    3.380000e+00
  SP2q   N3r  1 4.300000e-01    3.380000e+00
  SP1q   N3r  1 4.300000e-01    3.380000e+00
  SN6q   N3r  1 4.300000e-01    3.590000e+00
  SN5q   N3r  1 4.300000e-01    3.590000e+00
  SN4q   N3r  1 4.300000e-01    3.590000e+00
  SN3r   N3q  1 4.300000e-01    3.590000e+00
  SN3r  X1eq  1 4.300000e-01    3.380000e+00
  SN3r  X2eq  1 4.300000e-01    3.380000e+00
  SN3r  X3eq  1 4.300000e-01    3.590000e+00
  SN3r  X4eq  1 4.300000e-01    3.770000e+00
  SN3r  C1eq  1 4.300000e-01    2.920000e+00
  SN3r  C2eq  1 4.300000e-01    3.160000e+00
  SN3r  C3eq  1 4.300000e-01    3.160000e+00
  SN3r  C4eq  1 4.300000e-01    3.380000e+00
  SN3r  C5eq  1 4.300000e-01    3.380000e+00
  SN3r  C6eq  1 4.300000e-01    3.590000e+00
  SN3r  X1vq  1 4.300000e-01    3.380000e+00
  SN3r  X2vq  1 4.300000e-01    3.380000e+00
  SN3r  X3vq  1 4.300000e-01    3.590000e+00
  SN3r  X4vq  1 4.300000e-01    3.770000e+00
  SN3r  C1vq  1 4.300000e-01    2.920000e+00
  SN3r  C2vq  1 4.300000e-01    3.160000e+00
  SN3r  C3vq  1 4.300000e-01    3.160000e+00
  SN3r  C4vq  1 4.300000e-01    3.380000e+00
  SN3r  C5vq  1 4.300000e-01    3.380000e+00
  SN3r  C6vq  1 4.300000e-01    3.590000e+00
  SN3r  N1aq  1 4.300000e-01    3.380000e+00
  SN3r  N2aq  1 4.300000e-01    3.590000e+00
  SN3r  N3aq  1 4.300000e-01    3.590000e+00
 SN4aq   N3r  1 4.300000e-01    3.590000e+00
 SN5aq   N3r  1 4.300000e-01    3.590000e+00
 SN6aq   N3r  1 4.300000e-01    3.590000e+00
 SP1aq   N3r  1 4.300000e-01    3.380000e+00
 SP2aq   N3r  1 4.300000e-01    3.380000e+00
 SP3aq   N3r  1 4.300000e-01    3.380000e+00
 SP4aq   N3r  1 4.300000e-01    3.380000e+00
 SP5aq   N3r  1 4.300000e-01    3.160000e+00
 SP6aq   N3r  1 4.300000e-01    3.160000e+00
  SN3r  N1dq  1 4.300000e-01    3.380000e+00
  SN3r  N2dq  1 4.300000e-01    3.590000e+00
  SN3r  N3dq  1 4.300000e-01    3.590000e+00
 SN4dq   N3r  1 4.300000e-01    3.590000e+00
 SN5dq   N3r  1 4.300000e-01    3.590000e+00
 SN6dq   N3r  1 4.300000e-01    3.590000e+00
 SP1dq   N3r  1 4.300000e-01    3.380000e+00
 SP2dq   N3r  1 4.300000e-01    3.380000e+00
 SP3dq   N3r  1 4.300000e-01    3.380000e+00
 SP4dq   N3r  1 4.300000e-01    3.380000e+00
 SP5dq   N3r  1 4.300000e-01    3.160000e+00
 SP6dq   N3r  1 4.300000e-01    3.160000e+00
  SN3r   X1q  1 4.300000e-01    3.160000e+00
  SN3r   X2q  1 4.300000e-01    3.160000e+00
  SN3r   X3q  1 4.300000e-01    3.380000e+00
  SN3r   X4q  1 4.300000e-01    3.590000e+00
  SN3r   C1q  1 4.300000e-01    2.770000e+00
  SN3r   C2q  1 4.300000e-01    2.920000e+00
  SN3r   C3q  1 4.300000e-01    2.920000e+00
  SN3r   C4q  1 4.300000e-01    3.160000e+00
  SN3r   C5q  1 4.300000e-01    3.160000e+00
  SN3r   C6q  1 4.300000e-01    3.380000e+00
  SN3r   N1q  1 4.300000e-01    3.380000e+00
  SN3r   N2q  1 4.300000e-01    3.590000e+00
  SP6d   N2r  1 4.300000e-01    2.530000e+00
  SP5d   N2r  1 4.300000e-01    2.530000e+00
  SP4d   N2r  1 4.300000e-01    2.770000e+00
  SP3d   N2r  1 4.300000e-01    2.920000e+00
  SP2d   N2r  1 4.300000e-01    2.920000e+00
  SP1d   N2r  1 4.300000e-01    2.920000e+00
  SN6d   N2r  1 4.300000e-01    2.920000e+00
  SN5d   N2r  1 4.300000e-01    3.160000e+00
  SN4d   N2r  1 4.300000e-01    3.160000e+00
  SN3d   N2r  1 4.300000e-01    3.160000e+00
  SN2r   N2d  1 4.300000e-01    3.160000e+00
  SN2r   N1d  1 4.300000e-01    2.920000e+00
  SP6a   N2r  1 4.300000e-01    2.530000e+00
  SP5a   N2r  1 4.300000e-01    2.530000e+00
  SP4a   N2r  1 4.300000e-01    2.770000e+00
  SP3a   N2r  1 4.300000e-01    2.920000e+00
  SP2a   N2r  1 4.300000e-01    2.920000e+00
  SP1a   N2r  1 4.300000e-01    2.920000e+00
  SN6a   N2r  1 4.300000e-01    2.920000e+00
  SN5a   N2r  1 4.300000e-01    3.160000e+00
  SN4a   N2r  1 4.300000e-01    3.160000e+00
  SN3a   N2r  1 4.300000e-01    3.160000e+00
  SN2r   N2a  1 4.300000e-01    3.160000e+00
  SN2r   N1a  1 4.300000e-01    2.920000e+00
  SN2r   C6v  1 4.300000e-01    3.160000e+00
  SN2r   C5v  1 4.300000e-01    2.920000e+00
  SN2r   C4v  1 4.300000e-01    2.920000e+00
  SN2r   C3v  1 4.300000e-01    2.920000e+00
  SN2r   C2v  1 4.300000e-01    2.770000e+00
  SN2r   C1v  1 4.300000e-01    2.530000e+00
  SN2r   X4v  1 4.300000e-01    3.380000e+00
  SN2r   X3v  1 4.300000e-01    3.160000e+00
  SN2r   X2v  1 4.300000e-01    2.920000e+00
  SN2r   X1v  1 4.300000e-01    2.920000e+00
  SN2r   C6e  1 4.300000e-01    3.160000e+00
  SN2r   C5e  1 4.300000e-01    2.920000e+00
  SN2r   C4e  1 4.300000e-01    2.920000e+00
  SN2r   C3e  1 4.300000e-01    2.920000e+00
  SN2r   C2e  1 4.300000e-01    2.770000e+00
  SN2r   C1e  1 4.300000e-01    2.530000e+00
  SN2r   X4e  1 4.300000e-01    3.380000e+00
  SN2r   X3e  1 4.300000e-01    3.160000e+00
  SN2r   X2e  1 4.300000e-01    2.920000e+00
  SN2r   X1e  1 4.300000e-01    2.920000e+00
  SP6q   N2r  1 4.300000e-01    2.920000e+00
  SP5q   N2r  1 4.300000e-01    2.920000e+00
  SP4q   N2r  1 4.300000e-01    3.160000e+00
  SP3q   N2r  1 4.300000e-01    3.380000e+00
  SP2q   N2r  1 4.300000e-01    3.380000e+00
  SP1q   N2r  1 4.300000e-01    3.380000e+00
  SN6q   N2r  1 4.300000e-01    3.380000e+00
  SN5q   N2r  1 4.300000e-01    3.590000e+00
  SN4q   N2r  1 4.300000e-01    3.590000e+00
  SN3q   N2r  1 4.300000e-01    3.590000e+00
  SN2r   N2q  1 4.300000e-01    3.590000e+00
  SN2r  X1eq  1 4.300000e-01    3.380000e+00
  SN2r  X2eq  1 4.300000e-01    3.380000e+00
  SN2r  X3eq  1 4.300000e-01    3.590000e+00
  SN2r  X4eq  1 4.300000e-01    3.770000e+00
  SN2r  C1eq  1 4.300000e-01    2.920000e+00
  SN2r  C2eq  1 4.300000e-01    3.160000e+00
  SN2r  C3eq  1 4.300000e-01    3.380000e+00
  SN2r  C4eq  1 4.300000e-01    3.380000e+00
  SN2r  C5eq  1 4.300000e-01    3.380000e+00
  SN2r  C6eq  1 4.300000e-01    3.590000e+00
  SN2r  X1vq  1 4.300000e-01    3.380000e+00
  SN2r  X2vq  1 4.300000e-01    3.380000e+00
  SN2r  X3vq  1 4.300000e-01    3.590000e+00
  SN2r  X4vq  1 4.300000e-01    3.770000e+00
  SN2r  C1vq  1 4.300000e-01    2.920000e+00
  SN2r  C2vq  1 4.300000e-01    3.160000e+00
  SN2r  C3vq  1 4.300000e-01    3.380000e+00
  SN2r  C4vq  1 4.300000e-01    3.380000e+00
  SN2r  C5vq  1 4.300000e-01    3.380000e+00
  SN2r  C6vq  1 4.300000e-01    3.590000e+00
  SN2r  N1aq  1 4.300000e-01    3.380000e+00
  SN2r  N2aq  1 4.300000e-01    3.590000e+00
 SN3aq   N2r  1 4.300000e-01    3.590000e+00
 SN4aq   N2r  1 4.300000e-01    3.590000e+00
 SN5aq   N2r  1 4.300000e-01    3.590000e+00
 SN6aq   N2r  1 4.300000e-01    3.380000e+00
 SP1aq   N2r  1 4.300000e-01    3.380000e+00
 SP2aq   N2r  1 4.300000e-01    3.380000e+00
 SP3aq   N2r  1 4.300000e-01    3.380000e+00
 SP4aq   N2r  1 4.300000e-01    3.160000e+00
 SP5aq   N2r  1 4.300000e-01    2.920000e+00
 SP6aq   N2r  1 4.300000e-01    2.920000e+00
  SN2r  N1dq  1 4.300000e-01    3.380000e+00
  SN2r  N2dq  1 4.300000e-01    3.590000e+00
 SN3dq   N2r  1 4.300000e-01    3.590000e+00
 SN4dq   N2r  1 4.300000e-01    3.590000e+00
 SN5dq   N2r  1 4.300000e-01    3.590000e+00
 SN6dq   N2r  1 4.300000e-01    3.380000e+00
 SP1dq   N2r  1 4.300000e-01    3.380000e+00
 SP2dq   N2r  1 4.300000e-01    3.380000e+00
 SP3dq   N2r  1 4.300000e-01    3.380000e+00
 SP4dq   N2r  1 4.300000e-01    3.160000e+00
 SP5dq   N2r  1 4.300000e-01    2.920000e+00
 SP6dq   N2r  1 4.300000e-01    2.920000e+00
  SN2r   X1q  1 4.300000e-01    3.160000e+00
  SN2r   X2q  1 4.300000e-01    3.160000e+00
  SN2r   X3q  1 4.300000e-01    3.380000e+00
  SN2r   X4q  1 4.300000e-01    3.590000e+00
  SN2r   C1q  1 4.300000e-01    2.770000e+00
  SN2r   C2q  1 4.300000e-01    2.920000e+00
  SN2r   C3q  1 4.300000e-01    3.160000e+00
  SN2r   C4q  1 4.300000e-01    3.160000e+00
  SN2r   C5q  1 4.300000e-01    3.160000e+00
  SN2r   C6q  1 4.300000e-01    3.380000e+00
  SN2r   N1q  1 4.300000e-01    3.380000e+00
  SP6d   N1r  1 4.300000e-01    2.320000e+00
  SP5d   N1r  1 4.300000e-01    2.320000e+00
  SP4d   N1r  1 4.300000e-01    2.530000e+00
  SP3d   N1r  1 4.300000e-01    2.770000e+00
  SP2d   N1r  1 4.300000e-01    2.920000e+00
  SP1d   N1r  1 4.300000e-01    2.920000e+00
  SN6d   N1r  1 4.300000e-01    2.920000e+00
  SN5d   N1r  1 4.300000e-01    2.920000e+00
  SN4d   N1r  1 4.300000e-01    2.920000e+00
  SN3d   N1r  1 4.300000e-01    2.920000e+00
  SN2d   N1r  1 4.300000e-01    2.920000e+00
  SN1r   N1d  1 4.300000e-01    3.160000e+00
  SP6a   N1r  1 4.300000e-01    2.320000e+00
  SP5a   N1r  1 4.300000e-01    2.320000e+00
  SP4a   N1r  1 4.300000e-01    2.530000e+00
  SP3a   N1r  1 4.300000e-01    2.770000e+00
  SP2a   N1r  1 4.300000e-01    2.920000e+00
  SP1a   N1r  1 4.300000e-01    2.920000e+00
  SN6a   N1r  1 4.300000e-01    2.920000e+00
  SN5a   N1r  1 4.300000e-01    2.920000e+00
  SN4a   N1r  1 4.300000e-01    2.920000e+00
  SN3a   N1r  1 4.300000e-01    2.920000e+00
  SN2a   N1r  1 4.300000e-01    2.920000e+00
  SN1r   N1a  1 4.300000e-01    3.160000e+00
  SN1r   C6v  1 4.300000e-01    3.380000e+00
  SN1r   C5v  1 4.300000e-01    3.160000e+00
  SN1r   C4v  1 4.300000e-01    3.160000e+00
  SN1r   C3v  1 4.300000e-01    2.920000e+00
  SN1r   C2v  1 4.300000e-01    2.770000e+00
  SN1r   C1v  1 4.300000e-01    2.530000e+00
  SN1r   X4v  1 4.300000e-01    3.160000e+00
  SN1r   X3v  1 4.300000e-01    3.160000e+00
  SN1r   X2v  1 4.300000e-01    2.920000e+00
  SN1r   X1v  1 4.300000e-01    2.920000e+00
  SN1r   C6e  1 4.300000e-01    3.380000e+00
  SN1r   C5e  1 4.300000e-01    3.160000e+00
  SN1r   C4e  1 4.300000e-01    3.160000e+00
  SN1r   C3e  1 4.300000e-01    2.920000e+00
  SN1r   C2e  1 4.300000e-01    2.770000e+00
  SN1r   C1e  1 4.300000e-01    2.530000e+00
  SN1r   X4e  1 4.300000e-01    3.160000e+00
  SN1r   X3e  1 4.300000e-01    3.160000e+00
  SN1r   X2e  1 4.300000e-01    2.920000e+00
  SN1r   X1e  1 4.300000e-01    2.920000e+00
  SP6q   N1r  1 4.300000e-01    2.770000e+00
  SP5q   N1r  1 4.300000e-01    2.770000e+00
  SP4q   N1r  1 4.300000e-01    2.920000e+00
  SP3q   N1r  1 4.300000e-01    3.160000e+00
  SP2q   N1r  1 4.300000e-01    3.380000e+00
  SP1q   N1r  1 4.300000e-01    3.380000e+00
  SN6q   N1r  1 4.300000e-01    3.380000e+00
  SN5q   N1r  1 4.300000e-01    3.380000e+00
  SN4q   N1r  1 4.300000e-01    3.380000e+00
  SN3q   N1r  1 4.300000e-01    3.380000e+00
  SN2q   N1r  1 4.300000e-01    3.380000e+00
  SN1r   N1q  1 4.300000e-01    3.590000e+00
  SN1r  X1eq  1 4.300000e-01    3.380000e+00
  SN1r  X2eq  1 4.300000e-01    3.380000e+00
  SN1r  X3eq  1 4.300000e-01    3.590000e+00
  SN1r  X4eq  1 4.300000e-01    3.590000e+00
  SN1r  C1eq  1 4.300000e-01    2.920000e+00
  SN1r  C2eq  1 4.300000e-01    3.160000e+00
  SN1r  C3eq  1 4.300000e-01    3.380000e+00
  SN1r  C4eq  1 4.300000e-01    3.590000e+00
  SN1r  C5eq  1 4.300000e-01    3.590000e+00
  SN1r  C6eq  1 4.300000e-01    3.770000e+00
  SN1r  X1vq  1 4.300000e-01    3.380000e+00
  SN1r  X2vq  1 4.300000e-01    3.380000e+00
  SN1r  X3vq  1 4.300000e-01    3.590000e+00
  SN1r  X4vq  1 4.300000e-01    3.590000e+00
  SN1r  C1vq  1 4.300000e-01    2.920000e+00
  SN1r  C2vq  1 4.300000e-01    3.160000e+00
  SN1r  C3vq  1 4.300000e-01    3.380000e+00
  SN1r  C4vq  1 4.300000e-01    3.590000e+00
  SN1r  C5vq  1 4.300000e-01    3.590000e+00
  SN1r  C6vq  1 4.300000e-01    3.770000e+00
  SN1r  N1aq  1 4.300000e-01    3.590000e+00
 SN2aq   N1r  1 4.300000e-01    3.380000e+00
 SN3aq   N1r  1 4.300000e-01    3.380000e+00
 SN4aq   N1r  1 4.300000e-01    3.380000e+00
 SN5aq   N1r  1 4.300000e-01    3.380000e+00
 SN6aq   N1r  1 4.300000e-01    3.380000e+00
 SP1aq   N1r  1 4.300000e-01    3.380000e+00
 SP2aq   N1r  1 4.300000e-01    3.380000e+00
 SP3aq   N1r  1 4.300000e-01    3.160000e+00
 SP4aq   N1r  1 4.300000e-01    2.920000e+00
 SP5aq   N1r  1 4.300000e-01    2.770000e+00
 SP6aq   N1r  1 4.300000e-01    2.770000e+00
  SN1r  N1dq  1 4.300000e-01    3.590000e+00
 SN2dq   N1r  1 4.300000e-01    3.380000e+00
 SN3dq   N1r  1 4.300000e-01    3.380000e+00
 SN4dq   N1r  1 4.300000e-01    3.380000e+00
 SN5dq   N1r  1 4.300000e-01    3.380000e+00
 SN6dq   N1r  1 4.300000e-01    3.380000e+00
 SP1dq   N1r  1 4.300000e-01    3.380000e+00
 SP2dq   N1r  1 4.300000e-01    3.380000e+00
 SP3dq   N1r  1 4.300000e-01    3.160000e+00
 SP4dq   N1r  1 4.300000e-01    2.920000e+00
 SP5dq   N1r  1 4.300000e-01    2.770000e+00
 SP6dq   N1r  1 4.300000e-01    2.770000e+00
  SN1r   X1q  1 4.300000e-01    3.160000e+00
  SN1r   X2q  1 4.300000e-01    3.160000e+00
  SN1r   X3q  1 4.300000e-01    3.380000e+00
  SN1r   X4q  1 4.300000e-01    3.380000e+00
  SN1r   C1q  1 4.300000e-01    2.770000e+00
  SN1r   C2q  1 4.300000e-01    2.920000e+00
  SN1r   C3q  1 4.300000e-01    3.160000e+00
  SN1r   C4q  1 4.300000e-01    3.380000e+00
  SN1r   C5q  1 4.300000e-01    3.380000e+00
  SN1r   C6q  1 4.300000e-01    3.590000e+00
  SP6d   C6r  1 4.300000e-01    2.320000e+00
  SP5d   C6r  1 4.300000e-01    2.320000e+00
  SP4d   C6r  1 4.300000e-01    2.530000e+00
  SP3d   C6r  1 4.300000e-01    2.770000e+00
  SP2d   C6r  1 4.300000e-01    2.770000e+00
  SP1d   C6r  1 4.300000e-01    2.770000e+00
  SN6d   C6r  1 4.300000e-01    2.920000e+00
  SN5d   C6r  1 4.300000e-01    2.920000e+00
  SN4d   C6r  1 4.300000e-01    2.920000e+00
  SN3d   C6r  1 4.300000e-01    2.920000e+00
  SN2d   C6r  1 4.300000e-01    2.920000e+00
  SN1d   C6r  1 4.300000e-01    3.160000e+00
  SP6a   C6r  1 4.300000e-01    2.320000e+00
  SP5a   C6r  1 4.300000e-01    2.320000e+00
  SP4a   C6r  1 4.300000e-01    2.530000e+00
  SP3a   C6r  1 4.300000e-01    2.770000e+00
  SP2a   C6r  1 4.300000e-01    2.770000e+00
  SP1a   C6r  1 4.300000e-01    2.770000e+00
  SN6a   C6r  1 4.300000e-01    2.920000e+00
  SN5a   C6r  1 4.300000e-01    2.920000e+00
  SN4a   C6r  1 4.300000e-01    2.920000e+00
  SN3a   C6r  1 4.300000e-01    2.920000e+00
  SN2a   C6r  1 4.300000e-01    2.920000e+00
  SN1a   C6r  1 4.300000e-01    3.160000e+00
  SC6r   C6v  1 4.300000e-01    3.380000e+00
  SC6r   X1v  1 4.300000e-01    3.160000e+00
  SC6r   X2v  1 4.300000e-01    3.160000e+00
  SC6r   X3v  1 4.300000e-01    3.160000e+00
  SC6r   X4v  1 4.300000e-01    3.160000e+00
  SC6r   C1v  1 4.300000e-01    2.530000e+00
  SC6r   C2v  1 4.300000e-01    2.770000e+00
  SC6r   C3v  1 4.300000e-01    2.920000e+00
  SC6r   C4v  1 4.300000e-01    3.160000e+00
  SC6r   C5v  1 4.300000e-01    3.160000e+00
  SC6r   C6e  1 4.300000e-01    3.380000e+00
  SC6r   X1e  1 4.300000e-01    3.160000e+00
  SC6r   X2e  1 4.300000e-01    3.160000e+00
  SC6r   X3e  1 4.300000e-01    3.160000e+00
  SC6r   X4e  1 4.300000e-01    3.160000e+00
  SC6r   C1e  1 4.300000e-01    2.530000e+00
  SC6r   C2e  1 4.300000e-01    2.770000e+00
  SC6r   C3e  1 4.300000e-01    2.920000e+00
  SC6r   C4e  1 4.300000e-01    3.160000e+00
  SC6r   C5e  1 4.300000e-01    3.160000e+00
  SP6q   C6r  1 4.300000e-01    2.770000e+00
  SP5q   C6r  1 4.300000e-01    2.770000e+00
  SP4q   C6r  1 4.300000e-01    2.920000e+00
  SP3q   C6r  1 4.300000e-01    3.160000e+00
  SP2q   C6r  1 4.300000e-01    3.160000e+00
  SP1q   C6r  1 4.300000e-01    3.160000e+00
  SN6q   C6r  1 4.300000e-01    3.380000e+00
  SN5q   C6r  1 4.300000e-01    3.380000e+00
  SN4q   C6r  1 4.300000e-01    3.380000e+00
  SN3q   C6r  1 4.300000e-01    3.380000e+00
  SN2q   C6r  1 4.300000e-01    3.380000e+00
  SN1q   C6r  1 4.300000e-01    3.590000e+00
  SC6r   C6q  1 4.300000e-01    3.590000e+00
  SC6r  X1eq  1 4.300000e-01    3.590000e+00
  SC6r  X2eq  1 4.300000e-01    3.590000e+00
  SC6r  X3eq  1 4.300000e-01    3.590000e+00
  SC6r  X4eq  1 4.300000e-01    3.590000e+00
  SC6r  C1eq  1 4.300000e-01    2.920000e+00
  SC6r  C2eq  1 4.300000e-01    3.160000e+00
  SC6r  C3eq  1 4.300000e-01    3.380000e+00
  SC6r  C4eq  1 4.300000e-01    3.590000e+00
  SC6r  C5eq  1 4.300000e-01    3.590000e+00
  SC6r  C6eq  1 4.300000e-01    3.770000e+00
  SC6r  X1vq  1 4.300000e-01    3.590000e+00
  SC6r  X2vq  1 4.300000e-01    3.590000e+00
  SC6r  X3vq  1 4.300000e-01    3.590000e+00
  SC6r  X4vq  1 4.300000e-01    3.590000e+00
  SC6r  C1vq  1 4.300000e-01    2.920000e+00
  SC6r  C2vq  1 4.300000e-01    3.160000e+00
  SC6r  C3vq  1 4.300000e-01    3.380000e+00
  SC6r  C4vq  1 4.300000e-01    3.590000e+00
  SC6r  C5vq  1 4.300000e-01    3.590000e+00
  SC6r  C6vq  1 4.300000e-01    3.770000e+00
 SN1aq   C6r  1 4.300000e-01    3.590000e+00
 SN2aq   C6r  1 4.300000e-01    3.380000e+00
 SN3aq   C6r  1 4.300000e-01    3.380000e+00
 SN4aq   C6r  1 4.300000e-01    3.380000e+00
 SN5aq   C6r  1 4.300000e-01    3.380000e+00
 SN6aq   C6r  1 4.300000e-01    3.380000e+00
 SP1aq   C6r  1 4.300000e-01    3.160000e+00
 SP2aq   C6r  1 4.300000e-01    3.160000e+00
 SP3aq   C6r  1 4.300000e-01    3.160000e+00
 SP4aq   C6r  1 4.300000e-01    2.920000e+00
 SP5aq   C6r  1 4.300000e-01    2.770000e+00
 SP6aq   C6r  1 4.300000e-01    2.770000e+00
 SN1dq   C6r  1 4.300000e-01    3.590000e+00
 SN2dq   C6r  1 4.300000e-01    3.380000e+00
 SN3dq   C6r  1 4.300000e-01    3.380000e+00
 SN4dq   C6r  1 4.300000e-01    3.380000e+00
 SN5dq   C6r  1 4.300000e-01    3.380000e+00
 SN6dq   C6r  1 4.300000e-01    3.380000e+00
 SP1dq   C6r  1 4.300000e-01    3.160000e+00
 SP2dq   C6r  1 4.300000e-01    3.160000e+00
 SP3dq   C6r  1 4.300000e-01    3.160000e+00
 SP4dq   C6r  1 4.300000e-01    2.920000e+00
 SP5dq   C6r  1 4.300000e-01    2.770000e+00
 SP6dq   C6r  1 4.300000e-01    2.770000e+00
  SC6r   X1q  1 4.300000e-01    3.380000e+00
  SC6r   X2q  1 4.300000e-01    3.380000e+00
  SC6r   X3q  1 4.300000e-01    3.380000e+00
  SC6r   X4q  1 4.300000e-01    3.380000e+00
  SC6r   C1q  1 4.300000e-01    2.770000e+00
  SC6r   C2q  1 4.300000e-01    2.920000e+00
  SC6r   C3q  1 4.300000e-01    3.160000e+00
  SC6r   C4q  1 4.300000e-01    3.380000e+00
  SC6r   C5q  1 4.300000e-01    3.380000e+00
  SP6d   C5r  1 4.300000e-01    2.160000e+00
  SP5d   C5r  1 4.300000e-01    2.320000e+00
  SP4d   C5r  1 4.300000e-01    2.320000e+00
  SP3d   C5r  1 4.300000e-01    2.530000e+00
  SP2d   C5r  1 4.300000e-01    2.530000e+00
  SP1d   C5r  1 4.300000e-01    2.530000e+00
  SN6d   C5r  1 4.300000e-01    2.770000e+00
  SN5d   C5r  1 4.300000e-01    2.770000e+00
  SN4d   C5r  1 4.300000e-01    2.770000e+00
  SN3d   C5r  1 4.300000e-01    2.770000e+00
  SN2d   C5r  1 4.300000e-01    2.770000e+00
  SN1d   C5r  1 4.300000e-01    2.920000e+00
  SP6a   C5r  1 4.300000e-01    2.160000e+00
  SP5a   C5r  1 4.300000e-01    2.320000e+00
  SP4a   C5r  1 4.300000e-01    2.320000e+00
  SP3a   C5r  1 4.300000e-01    2.530000e+00
  SP2a   C5r  1 4.300000e-01    2.530000e+00
  SP1a   C5r  1 4.300000e-01    2.530000e+00
  SN6a   C5r  1 4.300000e-01    2.770000e+00
  SN5a   C5r  1 4.300000e-01    2.770000e+00
  SN4a   C5r  1 4.300000e-01    2.770000e+00
  SN3a   C5r  1 4.300000e-01    2.770000e+00
  SN2a   C5r  1 4.300000e-01    2.770000e+00
  SN1a   C5r  1 4.300000e-01    2.920000e+00
  SC6v   C5r  1 4.300000e-01    3.160000e+00
  SC5r   C5v  1 4.300000e-01    3.160000e+00
  SC5r   X1v  1 4.300000e-01    3.160000e+00
  SC5r   X2v  1 4.300000e-01    2.920000e+00
  SC5r   X3v  1 4.300000e-01    2.920000e+00
  SC5r   X4v  1 4.300000e-01    2.920000e+00
  SC5r   C1v  1 4.300000e-01    2.770000e+00
  SC5r   C2v  1 4.300000e-01    2.770000e+00
  SC5r   C3v  1 4.300000e-01    2.920000e+00
  SC5r   C4v  1 4.300000e-01    3.160000e+00
  SC6e   C5r  1 4.300000e-01    3.160000e+00
  SC5r   C5e  1 4.300000e-01    3.160000e+00
  SC5r   X1e  1 4.300000e-01    3.160000e+00
  SC5r   X2e  1 4.300000e-01    2.920000e+00
  SC5r   X3e  1 4.300000e-01    2.920000e+00
  SC5r   X4e  1 4.300000e-01    2.920000e+00
  SC5r   C1e  1 4.300000e-01    2.770000e+00
  SC5r   C2e  1 4.300000e-01    2.770000e+00
  SC5r   C3e  1 4.300000e-01    2.920000e+00
  SC5r   C4e  1 4.300000e-01    3.160000e+00
  SP6q   C5r  1 4.300000e-01    2.530000e+00
  SP5q   C5r  1 4.300000e-01    2.770000e+00
  SP4q   C5r  1 4.300000e-01    2.770000e+00
  SP3q   C5r  1 4.300000e-01    2.920000e+00
  SP2q   C5r  1 4.300000e-01    2.920000e+00
  SP1q   C5r  1 4.300000e-01    2.920000e+00
  SN6q   C5r  1 4.300000e-01    3.160000e+00
  SN5q   C5r  1 4.300000e-01    3.160000e+00
  SN4q   C5r  1 4.300000e-01    3.160000e+00
  SN3q   C5r  1 4.300000e-01    3.160000e+00
  SN2q   C5r  1 4.300000e-01    3.160000e+00
  SN1q   C5r  1 4.300000e-01    3.380000e+00
  SC6q   C5r  1 4.300000e-01    3.380000e+00
  SC5r   C5q  1 4.300000e-01    3.380000e+00
  SC5r  X1eq  1 4.300000e-01    3.590000e+00
  SC5r  X2eq  1 4.300000e-01    3.380000e+00
  SC5r  X3eq  1 4.300000e-01    3.380000e+00
  SC5r  X4eq  1 4.300000e-01    3.380000e+00
  SC5r  C1eq  1 4.300000e-01    3.160000e+00
  SC5r  C2eq  1 4.300000e-01    3.160000e+00
  SC5r  C3eq  1 4.300000e-01    3.380000e+00
  SC5r  C4eq  1 4.300000e-01    3.590000e+00
  SC5r  C5eq  1 4.300000e-01    3.590000e+00
 SC6eq   C5r  1 4.300000e-01    3.590000e+00
  SC5r  X1vq  1 4.300000e-01    3.590000e+00
  SC5r  X2vq  1 4.300000e-01    3.380000e+00
  SC5r  X3vq  1 4.300000e-01    3.380000e+00
  SC5r  X4vq  1 4.300000e-01    3.380000e+00
  SC5r  C1vq  1 4.300000e-01    3.160000e+00
  SC5r  C2vq  1 4.300000e-01    3.160000e+00
  SC5r  C3vq  1 4.300000e-01    3.380000e+00
  SC5r  C4vq  1 4.300000e-01    3.590000e+00
  SC5r  C5vq  1 4.300000e-01    3.590000e+00
 SC6vq   C5r  1 4.300000e-01    3.590000e+00
 SN1aq   C5r  1 4.300000e-01    3.380000e+00
 SN2aq   C5r  1 4.300000e-01    3.160000e+00
 SN3aq   C5r  1 4.300000e-01    3.160000e+00
 SN4aq   C5r  1 4.300000e-01    3.160000e+00
 SN5aq   C5r  1 4.300000e-01    3.160000e+00
 SN6aq   C5r  1 4.300000e-01    3.160000e+00
 SP1aq   C5r  1 4.300000e-01    2.920000e+00
 SP2aq   C5r  1 4.300000e-01    2.920000e+00
 SP3aq   C5r  1 4.300000e-01    2.920000e+00
 SP4aq   C5r  1 4.300000e-01    2.770000e+00
 SP5aq   C5r  1 4.300000e-01    2.770000e+00
 SP6aq   C5r  1 4.300000e-01    2.530000e+00
 SN1dq   C5r  1 4.300000e-01    3.380000e+00
 SN2dq   C5r  1 4.300000e-01    3.160000e+00
 SN3dq   C5r  1 4.300000e-01    3.160000e+00
 SN4dq   C5r  1 4.300000e-01    3.160000e+00
 SN5dq   C5r  1 4.300000e-01    3.160000e+00
 SN6dq   C5r  1 4.300000e-01    3.160000e+00
 SP1dq   C5r  1 4.300000e-01    2.920000e+00
 SP2dq   C5r  1 4.300000e-01    2.920000e+00
 SP3dq   C5r  1 4.300000e-01    2.920000e+00
 SP4dq   C5r  1 4.300000e-01    2.770000e+00
 SP5dq   C5r  1 4.300000e-01    2.770000e+00
 SP6dq   C5r  1 4.300000e-01    2.530000e+00
  SC5r   X1q  1 4.300000e-01    3.380000e+00
  SC5r   X2q  1 4.300000e-01    3.160000e+00
  SC5r   X3q  1 4.300000e-01    3.160000e+00
  SC5r   X4q  1 4.300000e-01    3.160000e+00
  SC5r   C1q  1 4.300000e-01    2.920000e+00
  SC5r   C2q  1 4.300000e-01    2.920000e+00
  SC5r   C3q  1 4.300000e-01    3.160000e+00
  SC5r   C4q  1 4.300000e-01    3.380000e+00
  SP6d   C4r  1 4.300000e-01    1.930000e+00
  SP5d   C4r  1 4.300000e-01    2.160000e+00
  SP4d   C4r  1 4.300000e-01    2.160000e+00
  SP3d   C4r  1 4.300000e-01    2.320000e+00
  SP2d   C4r  1 4.300000e-01    2.320000e+00
  SP1d   C4r  1 4.300000e-01    2.320000e+00
  SN6d   C4r  1 4.300000e-01    2.530000e+00
  SN5d   C4r  1 4.300000e-01    2.530000e+00
  SN4d   C4r  1 4.300000e-01    2.770000e+00
  SN3d   C4r  1 4.300000e-01    2.770000e+00
  SN2d   C4r  1 4.300000e-01    2.770000e+00
  SN1d   C4r  1 4.300000e-01    2.920000e+00
  SP6a   C4r  1 4.300000e-01    1.930000e+00
  SP5a   C4r  1 4.300000e-01    2.160000e+00
  SP4a   C4r  1 4.300000e-01    2.160000e+00
  SP3a   C4r  1 4.300000e-01    2.320000e+00
  SP2a   C4r  1 4.300000e-01    2.320000e+00
  SP1a   C4r  1 4.300000e-01    2.320000e+00
  SN6a   C4r  1 4.300000e-01    2.530000e+00
  SN5a   C4r  1 4.300000e-01    2.530000e+00
  SN4a   C4r  1 4.300000e-01    2.770000e+00
  SN3a   C4r  1 4.300000e-01    2.770000e+00
  SN2a   C4r  1 4.300000e-01    2.770000e+00
  SN1a   C4r  1 4.300000e-01    2.920000e+00
  SC6v   C4r  1 4.300000e-01    3.160000e+00
  SC5v   C4r  1 4.300000e-01    3.160000e+00
  SC4r   C4v  1 4.300000e-01    3.160000e+00
  SC4r   X1v  1 4.300000e-01    3.160000e+00
  SC4r   X2v  1 4.300000e-01    2.920000e+00
  SC4r   X3v  1 4.300000e-01    2.920000e+00
  SC4r   X4v  1 4.300000e-01    2.920000e+00
  SC4r   C1v  1 4.300000e-01    2.770000e+00
  SC4r   C2v  1 4.300000e-01    2.920000e+00
  SC4r   C3v  1 4.300000e-01    3.160000e+00
  SC6e   C4r  1 4.300000e-01    3.160000e+00
  SC5e   C4r  1 4.300000e-01    3.160000e+00
  SC4r   C4e  1 4.300000e-01    3.160000e+00
  SC4r   X1e  1 4.300000e-01    3.160000e+00
  SC4r   X2e  1 4.300000e-01    2.920000e+00
  SC4r   X3e  1 4.300000e-01    2.920000e+00
  SC4r   X4e  1 4.300000e-01    2.920000e+00
  SC4r   C1e  1 4.300000e-01    2.770000e+00
  SC4r   C2e  1 4.300000e-01    2.920000e+00
  SC4r   C3e  1 4.300000e-01    3.160000e+00
  SP6q   C4r  1 4.300000e-01    2.320000e+00
  SP5q   C4r  1 4.300000e-01    2.530000e+00
  SP4q   C4r  1 4.300000e-01    2.530000e+00
  SP3q   C4r  1 4.300000e-01    2.770000e+00
  SP2q   C4r  1 4.300000e-01    2.770000e+00
  SP1q   C4r  1 4.300000e-01    2.770000e+00
  SN6q   C4r  1 4.300000e-01    2.920000e+00
  SN5q   C4r  1 4.300000e-01    2.920000e+00
  SN4q   C4r  1 4.300000e-01    3.160000e+00
  SN3q   C4r  1 4.300000e-01    3.160000e+00
  SN2q   C4r  1 4.300000e-01    3.160000e+00
  SN1q   C4r  1 4.300000e-01    3.380000e+00
  SC6q   C4r  1 4.300000e-01    3.380000e+00
  SC5q   C4r  1 4.300000e-01    3.380000e+00
  SC4r   C4q  1 4.300000e-01    3.380000e+00
  SC4r  X1eq  1 4.300000e-01    3.590000e+00
  SC4r  X2eq  1 4.300000e-01    3.380000e+00
  SC4r  X3eq  1 4.300000e-01    3.380000e+00
  SC4r  X4eq  1 4.300000e-01    3.380000e+00
  SC4r  C1eq  1 4.300000e-01    3.160000e+00
  SC4r  C2eq  1 4.300000e-01    3.380000e+00
  SC4r  C3eq  1 4.300000e-01    3.590000e+00
  SC4r  C4eq  1 4.300000e-01    3.590000e+00
 SC5eq   C4r  1 4.300000e-01    3.590000e+00
 SC6eq   C4r  1 4.300000e-01    3.590000e+00
  SC4r  X1vq  1 4.300000e-01    3.590000e+00
  SC4r  X2vq  1 4.300000e-01    3.380000e+00
  SC4r  X3vq  1 4.300000e-01    3.380000e+00
  SC4r  X4vq  1 4.300000e-01    3.380000e+00
  SC4r  C1vq  1 4.300000e-01    3.160000e+00
  SC4r  C2vq  1 4.300000e-01    3.380000e+00
  SC4r  C3vq  1 4.300000e-01    3.590000e+00
  SC4r  C4vq  1 4.300000e-01    3.590000e+00
 SC5vq   C4r  1 4.300000e-01    3.590000e+00
 SC6vq   C4r  1 4.300000e-01    3.590000e+00
 SN1aq   C4r  1 4.300000e-01    3.380000e+00
 SN2aq   C4r  1 4.300000e-01    3.160000e+00
 SN3aq   C4r  1 4.300000e-01    3.160000e+00
 SN4aq   C4r  1 4.300000e-01    3.160000e+00
 SN5aq   C4r  1 4.300000e-01    2.920000e+00
 SN6aq   C4r  1 4.300000e-01    2.920000e+00
 SP1aq   C4r  1 4.300000e-01    2.770000e+00
 SP2aq   C4r  1 4.300000e-01    2.770000e+00
 SP3aq   C4r  1 4.300000e-01    2.770000e+00
 SP4aq   C4r  1 4.300000e-01    2.530000e+00
 SP5aq   C4r  1 4.300000e-01    2.530000e+00
 SP6aq   C4r  1 4.300000e-01    2.320000e+00
 SN1dq   C4r  1 4.300000e-01    3.380000e+00
 SN2dq   C4r  1 4.300000e-01    3.160000e+00
 SN3dq   C4r  1 4.300000e-01    3.160000e+00
 SN4dq   C4r  1 4.300000e-01    3.160000e+00
 SN5dq   C4r  1 4.300000e-01    2.920000e+00
 SN6dq   C4r  1 4.300000e-01    2.920000e+00
 SP1dq   C4r  1 4.300000e-01    2.770000e+00
 SP2dq   C4r  1 4.300000e-01    2.770000e+00
 SP3dq   C4r  1 4.300000e-01    2.770000e+00
 SP4dq   C4r  1 4.300000e-01    2.530000e+00
 SP5dq   C4r  1 4.300000e-01    2.530000e+00
 SP6dq   C4r  1 4.300000e-01    2.320000e+00
  SC4r   X1q  1 4.300000e-01    3.380000e+00
  SC4r   X2q  1 4.300000e-01    3.160000e+00
  SC4r   X3q  1 4.300000e-01    3.160000e+00
  SC4r   X4q  1 4.300000e-01    3.160000e+00
  SC4r   C1q  1 4.300000e-01    2.920000e+00
  SC4r   C2q  1 4.300000e-01    3.160000e+00
  SC4r   C3q  1 4.300000e-01    3.380000e+00
  SP6d   C3r  1 4.300000e-01    1.730000e+00
  SP5d   C3r  1 4.300000e-01    1.930000e+00
  SP4d   C3r  1 4.300000e-01    1.930000e+00
  SP3d   C3r  1 4.300000e-01    1.930000e+00
  SP2d   C3r  1 4.300000e-01    2.160000e+00
  SP1d   C3r  1 4.300000e-01    2.160000e+00
  SN6d   C3r  1 4.300000e-01    2.320000e+00
  SN5d   C3r  1 4.300000e-01    2.530000e+00
  SN4d   C3r  1 4.300000e-01    2.530000e+00
  SN3d   C3r  1 4.300000e-01    2.530000e+00
  SN2d   C3r  1 4.300000e-01    2.770000e+00
  SN1d   C3r  1 4.300000e-01    2.770000e+00
  SP6a   C3r  1 4.300000e-01    1.730000e+00
  SP5a   C3r  1 4.300000e-01    1.930000e+00
  SP4a   C3r  1 4.300000e-01    1.930000e+00
  SP3a   C3r  1 4.300000e-01    1.930000e+00
  SP2a   C3r  1 4.300000e-01    2.160000e+00
  SP1a   C3r  1 4.300000e-01    2.160000e+00
  SN6a   C3r  1 4.300000e-01    2.320000e+00
  SN5a   C3r  1 4.300000e-01    2.530000e+00
  SN4a   C3r  1 4.300000e-01    2.530000e+00
  SN3a   C3r  1 4.300000e-01    2.530000e+00
  SN2a   C3r  1 4.300000e-01    2.770000e+00
  SN1a   C3r  1 4.300000e-01    2.770000e+00
  SC6v   C3r  1 4.300000e-01    2.920000e+00
  SC5v   C3r  1 4.300000e-01    2.920000e+00
  SC4v   C3r  1 4.300000e-01    3.160000e+00
  SC3r   C3v  1 4.300000e-01    3.160000e+00
  SC3r   X1v  1 4.300000e-01    3.160000e+00
  SC3r   X2v  1 4.300000e-01    2.920000e+00
  SC3r   X3v  1 4.300000e-01    2.920000e+00
  SC3r   X4v  1 4.300000e-01    2.920000e+00
  SC3r   C1v  1 4.300000e-01    3.160000e+00
  SC3r   C2v  1 4.300000e-01    3.160000e+00
  SC6e   C3r  1 4.300000e-01    2.920000e+00
  SC5e   C3r  1 4.300000e-01    2.920000e+00
  SC4e   C3r  1 4.300000e-01    3.160000e+00
  SC3r   C3e  1 4.300000e-01    3.160000e+00
  SC3r   X1e  1 4.300000e-01    3.160000e+00
  SC3r   X2e  1 4.300000e-01    2.920000e+00
  SC3r   X3e  1 4.300000e-01    2.920000e+00
  SC3r   X4e  1 4.300000e-01    2.920000e+00
  SC3r   C1e  1 4.300000e-01    3.160000e+00
  SC3r   C2e  1 4.300000e-01    3.160000e+00
  SP6q   C3r  1 4.300000e-01    2.160000e+00
  SP5q   C3r  1 4.300000e-01    2.320000e+00
  SP4q   C3r  1 4.300000e-01    2.320000e+00
  SP3q   C3r  1 4.300000e-01    2.320000e+00
  SP2q   C3r  1 4.300000e-01    2.530000e+00
  SP1q   C3r  1 4.300000e-01    2.530000e+00
  SN6q   C3r  1 4.300000e-01    2.770000e+00
  SN5q   C3r  1 4.300000e-01    2.920000e+00
  SN4q   C3r  1 4.300000e-01    2.920000e+00
  SN3q   C3r  1 4.300000e-01    2.920000e+00
  SN2q   C3r  1 4.300000e-01    3.160000e+00
  SN1q   C3r  1 4.300000e-01    3.160000e+00
  SC6q   C3r  1 4.300000e-01    3.160000e+00
  SC5q   C3r  1 4.300000e-01    3.160000e+00
  SC4q   C3r  1 4.300000e-01    3.380000e+00
  SC3r   C3q  1 4.300000e-01    3.380000e+00
  SC3r  X1eq  1 4.300000e-01    3.590000e+00
  SC3r  X2eq  1 4.300000e-01    3.380000e+00
  SC3r  X3eq  1 4.300000e-01    3.380000e+00
  SC3r  X4eq  1 4.300000e-01    3.380000e+00
  SC3r  C1eq  1 4.300000e-01    3.590000e+00
  SC3r  C2eq  1 4.300000e-01    3.590000e+00
  SC3r  C3eq  1 4.300000e-01    3.590000e+00
 SC4eq   C3r  1 4.300000e-01    3.590000e+00
 SC5eq   C3r  1 4.300000e-01    3.380000e+00
 SC6eq   C3r  1 4.300000e-01    3.380000e+00
  SC3r  X1vq  1 4.300000e-01    3.590000e+00
  SC3r  X2vq  1 4.300000e-01    3.380000e+00
  SC3r  X3vq  1 4.300000e-01    3.380000e+00
  SC3r  X4vq  1 4.300000e-01    3.380000e+00
  SC3r  C1vq  1 4.300000e-01    3.590000e+00
  SC3r  C2vq  1 4.300000e-01    3.590000e+00
  SC3r  C3vq  1 4.300000e-01    3.590000e+00
 SC4vq   C3r  1 4.300000e-01    3.590000e+00
 SC5vq   C3r  1 4.300000e-01    3.380000e+00
 SC6vq   C3r  1 4.300000e-01    3.380000e+00
 SN1aq   C3r  1 4.300000e-01    3.160000e+00
 SN2aq   C3r  1 4.300000e-01    3.160000e+00
 SN3aq   C3r  1 4.300000e-01    2.920000e+00
 SN4aq   C3r  1 4.300000e-01    2.920000e+00
 SN5aq   C3r  1 4.300000e-01    2.920000e+00
 SN6aq   C3r  1 4.300000e-01    2.770000e+00
 SP1aq   C3r  1 4.300000e-01    2.530000e+00
 SP2aq   C3r  1 4.300000e-01    2.530000e+00
 SP3aq   C3r  1 4.300000e-01    2.320000e+00
 SP4aq   C3r  1 4.300000e-01    2.320000e+00
 SP5aq   C3r  1 4.300000e-01    2.320000e+00
 SP6aq   C3r  1 4.300000e-01    2.160000e+00
 SN1dq   C3r  1 4.300000e-01    3.160000e+00
 SN2dq   C3r  1 4.300000e-01    3.160000e+00
 SN3dq   C3r  1 4.300000e-01    2.920000e+00
 SN4dq   C3r  1 4.300000e-01    2.920000e+00
 SN5dq   C3r  1 4.300000e-01    2.920000e+00
 SN6dq   C3r  1 4.300000e-01    2.770000e+00
 SP1dq   C3r  1 4.300000e-01    2.530000e+00
 SP2dq   C3r  1 4.300000e-01    2.530000e+00
 SP3dq   C3r  1 4.300000e-01    2.320000e+00
 SP4dq   C3r  1 4.300000e-01    2.320000e+00
 SP5dq   C3r  1 4.300000e-01    2.320000e+00
 SP6dq   C3r  1 4.300000e-01    2.160000e+00
  SC3r   X1q  1 4.300000e-01    3.380000e+00
  SC3r   X2q  1 4.300000e-01    3.160000e+00
  SC3r   X3q  1 4.300000e-01    3.160000e+00
  SC3r   X4q  1 4.300000e-01    3.160000e+00
  SC3r   C1q  1 4.300000e-01    3.380000e+00
  SC3r   C2q  1 4.300000e-01    3.380000e+00
  SP6d   C2r  1 4.300000e-01    1.730000e+00
  SP5d   C2r  1 4.300000e-01    1.930000e+00
  SP4d   C2r  1 4.300000e-01    1.930000e+00
  SP3d   C2r  1 4.300000e-01    1.930000e+00
  SP2d   C2r  1 4.300000e-01    2.160000e+00
  SP1d   C2r  1 4.300000e-01    2.160000e+00
  SN6d   C2r  1 4.300000e-01    2.320000e+00
  SN5d   C2r  1 4.300000e-01    2.320000e+00
  SN4d   C2r  1 4.300000e-01    2.320000e+00
  SN3d   C2r  1 4.300000e-01    2.530000e+00
  SN2d   C2r  1 4.300000e-01    2.530000e+00
  SN1d   C2r  1 4.300000e-01    2.530000e+00
  SP6a   C2r  1 4.300000e-01    1.730000e+00
  SP5a   C2r  1 4.300000e-01    1.930000e+00
  SP4a   C2r  1 4.300000e-01    1.930000e+00
  SP3a   C2r  1 4.300000e-01    1.930000e+00
  SP2a   C2r  1 4.300000e-01    2.160000e+00
  SP1a   C2r  1 4.300000e-01    2.160000e+00
  SN6a   C2r  1 4.300000e-01    2.320000e+00
  SN5a   C2r  1 4.300000e-01    2.320000e+00
  SN4a   C2r  1 4.300000e-01    2.320000e+00
  SN3a   C2r  1 4.300000e-01    2.530000e+00
  SN2a   C2r  1 4.300000e-01    2.530000e+00
  SN1a   C2r  1 4.300000e-01    2.530000e+00
  SC6v   C2r  1 4.300000e-01    2.770000e+00
  SC5v   C2r  1 4.300000e-01    2.770000e+00
  SC4v   C2r  1 4.300000e-01    2.920000e+00
  SC3v   C2r  1 4.300000e-01    3.160000e+00
  SC2r   C2v  1 4.300000e-01    3.160000e+00
  SC2r   X1v  1 4.300000e-01    2.920000e+00
  SC2r   X2v  1 4.300000e-01    2.920000e+00
  SC2r   X3v  1 4.300000e-01    2.920000e+00
  SC2r   X4v  1 4.300000e-01    2.530000e+00
  SC2r   C1v  1 4.300000e-01    3.380000e+00
  SC6e   C2r  1 4.300000e-01    2.770000e+00
  SC5e   C2r  1 4.300000e-01    2.770000e+00
  SC4e   C2r  1 4.300000e-01    2.920000e+00
  SC3e   C2r  1 4.300000e-01    3.160000e+00
  SC2r   C2e  1 4.300000e-01    3.160000e+00
  SC2r   X1e  1 4.300000e-01    2.920000e+00
  SC2r   X2e  1 4.300000e-01    2.920000e+00
  SC2r   X3e  1 4.300000e-01    2.920000e+00
  SC2r   X4e  1 4.300000e-01    2.530000e+00
  SC2r   C1e  1 4.300000e-01    3.380000e+00
  SP6q   C2r  1 4.300000e-01    2.160000e+00
  SP5q   C2r  1 4.300000e-01    2.320000e+00
  SP4q   C2r  1 4.300000e-01    2.320000e+00
  SP3q   C2r  1 4.300000e-01    2.320000e+00
  SP2q   C2r  1 4.300000e-01    2.530000e+00
  SP1q   C2r  1 4.300000e-01    2.530000e+00
  SN6q   C2r  1 4.300000e-01    2.770000e+00
  SN5q   C2r  1 4.300000e-01    2.770000e+00
  SN4q   C2r  1 4.300000e-01    2.770000e+00
  SN3q   C2r  1 4.300000e-01    2.920000e+00
  SN2q   C2r  1 4.300000e-01    2.920000e+00
  SN1q   C2r  1 4.300000e-01    2.920000e+00
  SC6q   C2r  1 4.300000e-01    2.920000e+00
  SC5q   C2r  1 4.300000e-01    2.920000e+00
  SC4q   C2r  1 4.300000e-01    3.160000e+00
  SC3q   C2r  1 4.300000e-01    3.380000e+00
  SC2r   C2q  1 4.300000e-01    3.380000e+00
  SC2r  X1eq  1 4.300000e-01    3.380000e+00
  SC2r  X2eq  1 4.300000e-01    3.380000e+00
  SC2r  X3eq  1 4.300000e-01    3.380000e+00
  SC2r  X4eq  1 4.300000e-01    2.920000e+00
  SC2r  C1eq  1 4.300000e-01    3.770000e+00
  SC2r  C2eq  1 4.300000e-01    3.590000e+00
 SC3eq   C2r  1 4.300000e-01    3.590000e+00
 SC4eq   C2r  1 4.300000e-01    3.380000e+00
 SC5eq   C2r  1 4.300000e-01    3.160000e+00
 SC6eq   C2r  1 4.300000e-01    3.160000e+00
  SC2r  X1vq  1 4.300000e-01    3.380000e+00
  SC2r  X2vq  1 4.300000e-01    3.380000e+00
  SC2r  X3vq  1 4.300000e-01    3.380000e+00
  SC2r  X4vq  1 4.300000e-01    2.920000e+00
  SC2r  C1vq  1 4.300000e-01    3.770000e+00
  SC2r  C2vq  1 4.300000e-01    3.590000e+00
 SC3vq   C2r  1 4.300000e-01    3.590000e+00
 SC4vq   C2r  1 4.300000e-01    3.380000e+00
 SC5vq   C2r  1 4.300000e-01    3.160000e+00
 SC6vq   C2r  1 4.300000e-01    3.160000e+00
 SN1aq   C2r  1 4.300000e-01    2.920000e+00
 SN2aq   C2r  1 4.300000e-01    2.920000e+00
 SN3aq   C2r  1 4.300000e-01    2.920000e+00
 SN4aq   C2r  1 4.300000e-01    2.770000e+00
 SN5aq   C2r  1 4.300000e-01    2.770000e+00
 SN6aq   C2r  1 4.300000e-01    2.770000e+00
 SP1aq   C2r  1 4.300000e-01    2.530000e+00
 SP2aq   C2r  1 4.300000e-01    2.530000e+00
 SP3aq   C2r  1 4.300000e-01    2.320000e+00
 SP4aq   C2r  1 4.300000e-01    2.320000e+00
 SP5aq   C2r  1 4.300000e-01    2.320000e+00
 SP6aq   C2r  1 4.300000e-01    2.160000e+00
 SN1dq   C2r  1 4.300000e-01    2.920000e+00
 SN2dq   C2r  1 4.300000e-01    2.920000e+00
 SN3dq   C2r  1 4.300000e-01    2.920000e+00
 SN4dq   C2r  1 4.300000e-01    2.770000e+00
 SN5dq   C2r  1 4.300000e-01    2.770000e+00
 SN6dq   C2r  1 4.300000e-01    2.770000e+00
 SP1dq   C2r  1 4.300000e-01    2.530000e+00
 SP2dq   C2r  1 4.300000e-01    2.530000e+00
 SP3dq   C2r  1 4.300000e-01    2.320000e+00
 SP4dq   C2r  1 4.300000e-01    2.320000e+00
 SP5dq   C2r  1 4.300000e-01    2.320000e+00
 SP6dq   C2r  1 4.300000e-01    2.160000e+00
  SC2r   X1q  1 4.300000e-01    3.160000e+00
  SC2r   X2q  1 4.300000e-01    3.160000e+00
  SC2r   X3q  1 4.300000e-01    3.160000e+00
  SC2r   X4q  1 4.300000e-01    2.770000e+00
  SC2r   C1q  1 4.300000e-01    3.590000e+00
  SP6d   C1r  1 4.730000e-01    1.280000e+00
  SP5d   C1r  1 4.300000e-01    1.730000e+00
  SP4d   C1r  1 4.300000e-01    1.730000e+00
  SP3d   C1r  1 4.300000e-01    1.730000e+00
  SP2d   C1r  1 4.300000e-01    1.930000e+00
  SP1d   C1r  1 4.300000e-01    1.930000e+00
  SN6d   C1r  1 4.300000e-01    2.160000e+00
  SN5d   C1r  1 4.300000e-01    2.160000e+00
  SN4d   C1r  1 4.300000e-01    2.160000e+00
  SN3d   C1r  1 4.300000e-01    2.320000e+00
  SN2d   C1r  1 4.300000e-01    2.320000e+00
  SN1d   C1r  1 4.300000e-01    2.320000e+00
  SP6a   C1r  1 4.730000e-01    1.280000e+00
  SP5a   C1r  1 4.300000e-01    1.730000e+00
  SP4a   C1r  1 4.300000e-01    1.730000e+00
  SP3a   C1r  1 4.300000e-01    1.730000e+00
  SP2a   C1r  1 4.300000e-01    1.930000e+00
  SP1a   C1r  1 4.300000e-01    1.930000e+00
  SN6a   C1r  1 4.300000e-01    2.160000e+00
  SN5a   C1r  1 4.300000e-01    2.160000e+00
  SN4a   C1r  1 4.300000e-01    2.160000e+00
  SN3a   C1r  1 4.300000e-01    2.320000e+00
  SN2a   C1r  1 4.300000e-01    2.320000e+00
  SN1a   C1r  1 4.300000e-01    2.320000e+00
  SC6v   C1r  1 4.300000e-01    2.530000e+00
  SC5v   C1r  1 4.300000e-01    2.770000e+00
  SC4v   C1r  1 4.300000e-01    2.770000e+00
  SC3v   C1r  1 4.300000e-01    3.160000e+00
  SC2v   C1r  1 4.300000e-01    3.380000e+00
  SC1r   C1v  1 4.300000e-01    3.160000e+00
  SC1r   X1v  1 4.300000e-01    2.920000e+00
  SC1r   X2v  1 4.300000e-01    2.920000e+00
  SC1r   X3v  1 4.300000e-01    2.920000e+00
  SC1r   X4v  1 4.300000e-01    2.530000e+00
  SC6e   C1r  1 4.300000e-01    2.530000e+00
  SC5e   C1r  1 4.300000e-01    2.770000e+00
  SC4e   C1r  1 4.300000e-01    2.770000e+00
  SC3e   C1r  1 4.300000e-01    3.160000e+00
  SC2e   C1r  1 4.300000e-01    3.380000e+00
  SC1r   C1e  1 4.300000e-01    3.160000e+00
  SC1r   X1e  1 4.300000e-01    2.920000e+00
  SC1r   X2e  1 4.300000e-01    2.920000e+00
  SC1r   X3e  1 4.300000e-01    2.920000e+00
  SC1r   X4e  1 4.300000e-01    2.530000e+00
  SP6q   C1r  1 4.300000e-01    1.730000e+00
  SP5q   C1r  1 4.300000e-01    2.160000e+00
  SP4q   C1r  1 4.300000e-01    2.160000e+00
  SP3q   C1r  1 4.300000e-01    2.160000e+00
  SP2q   C1r  1 4.300000e-01    2.320000e+00
  SP1q   C1r  1 4.300000e-01    2.320000e+00
  SN6q   C1r  1 4.300000e-01    2.530000e+00
  SN5q   C1r  1 4.300000e-01    2.530000e+00
  SN4q   C1r  1 4.300000e-01    2.530000e+00
  SN3q   C1r  1 4.300000e-01    2.770000e+00
  SN2q   C1r  1 4.300000e-01    2.770000e+00
  SN1q   C1r  1 4.300000e-01    2.770000e+00
  SC6q   C1r  1 4.300000e-01    2.770000e+00
  SC5q   C1r  1 4.300000e-01    2.920000e+00
  SC4q   C1r  1 4.300000e-01    2.920000e+00
  SC3q   C1r  1 4.300000e-01    3.380000e+00
  SC2q   C1r  1 4.300000e-01    3.590000e+00
  SC1r   C1q  1 4.300000e-01    3.380000e+00
  SC1r  X1eq  1 4.300000e-01    3.380000e+00
  SC1r  X2eq  1 4.300000e-01    3.380000e+00
  SC1r  X3eq  1 4.300000e-01    3.380000e+00
  SC1r  X4eq  1 4.300000e-01    2.920000e+00
  SC1r  C1eq  1 4.300000e-01    3.590000e+00
 SC2eq   C1r  1 4.300000e-01    3.770000e+00
 SC3eq   C1r  1 4.300000e-01    3.590000e+00
 SC4eq   C1r  1 4.300000e-01    3.160000e+00
 SC5eq   C1r  1 4.300000e-01    3.160000e+00
 SC6eq   C1r  1 4.300000e-01    2.920000e+00
  SC1r  X1vq  1 4.300000e-01    3.380000e+00
  SC1r  X2vq  1 4.300000e-01    3.380000e+00
  SC1r  X3vq  1 4.300000e-01    3.380000e+00
  SC1r  X4vq  1 4.300000e-01    2.920000e+00
  SC1r  C1vq  1 4.300000e-01    3.590000e+00
 SC2vq   C1r  1 4.300000e-01    3.770000e+00
 SC3vq   C1r  1 4.300000e-01    3.590000e+00
 SC4vq   C1r  1 4.300000e-01    3.160000e+00
 SC5vq   C1r  1 4.300000e-01    3.160000e+00
 SC6vq   C1r  1 4.300000e-01    2.920000e+00
 SN1aq   C1r  1 4.300000e-01    2.770000e+00
 SN2aq   C1r  1 4.300000e-01    2.770000e+00
 SN3aq   C1r  1 4.300000e-01    2.770000e+00
 SN4aq   C1r  1 4.300000e-01    2.530000e+00
 SN5aq   C1r  1 4.300000e-01    2.530000e+00
 SN6aq   C1r  1 4.300000e-01    2.530000e+00
 SP1aq   C1r  1 4.300000e-01    2.320000e+00
 SP2aq   C1r  1 4.300000e-01    2.320000e+00
 SP3aq   C1r  1 4.300000e-01    2.160000e+00
 SP4aq   C1r  1 4.300000e-01    2.160000e+00
 SP5aq   C1r  1 4.300000e-01    2.160000e+00
 SP6aq   C1r  1 4.300000e-01    1.730000e+00
 SN1dq   C1r  1 4.300000e-01    2.770000e+00
 SN2dq   C1r  1 4.300000e-01    2.770000e+00
 SN3dq   C1r  1 4.300000e-01    2.770000e+00
 SN4dq   C1r  1 4.300000e-01    2.530000e+00
 SN5dq   C1r  1 4.300000e-01    2.530000e+00
 SN6dq   C1r  1 4.300000e-01    2.530000e+00
 SP1dq   C1r  1 4.300000e-01    2.320000e+00
 SP2dq   C1r  1 4.300000e-01    2.320000e+00
 SP3dq   C1r  1 4.300000e-01    2.160000e+00
 SP4dq   C1r  1 4.300000e-01    2.160000e+00
 SP5dq   C1r  1 4.300000e-01    2.160000e+00
 SP6dq   C1r  1 4.300000e-01    1.730000e+00
  SC1r   X1q  1 4.300000e-01    3.160000e+00
  SC1r   X2q  1 4.300000e-01    3.160000e+00
  SC1r   X3q  1 4.300000e-01    3.160000e+00
  SC1r   X4q  1 4.300000e-01    2.770000e+00
  SP6d   X4r  1 4.300000e-01    2.530000e+00
  SP5d   X4r  1 4.300000e-01    2.770000e+00
  SP4d   X4r  1 4.300000e-01    2.770000e+00
  SP3d   X4r  1 4.300000e-01    2.770000e+00
  SP2d   X4r  1 4.300000e-01    2.770000e+00
  SP1d   X4r  1 4.300000e-01    2.770000e+00
  SN6d   X4r  1 4.300000e-01    2.920000e+00
  SN5d   X4r  1 4.300000e-01    3.160000e+00
  SN4d   X4r  1 4.300000e-01    3.380000e+00
  SN3d   X4r  1 4.300000e-01    3.160000e+00
  SN2d   X4r  1 4.300000e-01    3.160000e+00
  SN1d   X4r  1 4.300000e-01    2.920000e+00
  SP6a   X4r  1 4.300000e-01    2.530000e+00
  SP5a   X4r  1 4.300000e-01    2.770000e+00
  SP4a   X4r  1 4.300000e-01    2.770000e+00
  SP3a   X4r  1 4.300000e-01    2.770000e+00
  SP2a   X4r  1 4.300000e-01    2.770000e+00
  SP1a   X4r  1 4.300000e-01    2.770000e+00
  SN6a   X4r  1 4.300000e-01    2.920000e+00
  SN5a   X4r  1 4.300000e-01    3.160000e+00
  SN4a   X4r  1 4.300000e-01    3.380000e+00
  SN3a   X4r  1 4.300000e-01    3.160000e+00
  SN2a   X4r  1 4.300000e-01    3.160000e+00
  SN1a   X4r  1 4.300000e-01    2.920000e+00
  SC6v   X4r  1 4.300000e-01    3.160000e+00
  SC5v   X4r  1 4.300000e-01    2.920000e+00
  SC4v   X4r  1 4.300000e-01    2.920000e+00
  SC3v   X4r  1 4.300000e-01    2.920000e+00
  SC2v   X4r  1 4.300000e-01    2.530000e+00
  SC1v   X4r  1 4.300000e-01    2.530000e+00
  SX4r   X4v  1 4.300000e-01    3.160000e+00
  SX4r   X1v  1 4.300000e-01    3.160000e+00
  SX4r   X2v  1 4.300000e-01    3.160000e+00
  SX4r   X3v  1 4.300000e-01    3.160000e+00
  SC6e   X4r  1 4.300000e-01    3.160000e+00
  SC5e   X4r  1 4.300000e-01    2.920000e+00
  SC4e   X4r  1 4.300000e-01    2.920000e+00
  SC3e   X4r  1 4.300000e-01    2.920000e+00
  SC2e   X4r  1 4.300000e-01    2.530000e+00
  SC1e   X4r  1 4.300000e-01    2.530000e+00
  SX4r   X4e  1 4.300000e-01    3.160000e+00
  SX4r   X1e  1 4.300000e-01    3.160000e+00
  SX4r   X2e  1 4.300000e-01    3.160000e+00
  SX4r   X3e  1 4.300000e-01    3.160000e+00
  SP6q   X4r  1 4.300000e-01    2.920000e+00
  SP5q   X4r  1 4.300000e-01    3.160000e+00
  SP4q   X4r  1 4.300000e-01    3.160000e+00
  SP3q   X4r  1 4.300000e-01    3.160000e+00
  SP2q   X4r  1 4.300000e-01    3.160000e+00
  SP1q   X4r  1 4.300000e-01    3.160000e+00
  SN6q   X4r  1 4.300000e-01    3.380000e+00
  SN5q   X4r  1 4.300000e-01    3.590000e+00
  SN4q   X4r  1 4.300000e-01    3.770000e+00
  SN3q   X4r  1 4.300000e-01    3.590000e+00
  SN2q   X4r  1 4.300000e-01    3.590000e+00
  SN1q   X4r  1 4.300000e-01    3.380000e+00
  SC6q   X4r  1 4.300000e-01    3.380000e+00
  SC5q   X4r  1 4.300000e-01    3.160000e+00
  SC4q   X4r  1 4.300000e-01    3.160000e+00
  SC3q   X4r  1 4.300000e-01    3.160000e+00
  SC2q   X4r  1 4.300000e-01    2.770000e+00
  SC1q   X4r  1 4.300000e-01    2.770000e+00
  SX4r   X4q  1 4.300000e-01    3.380000e+00
  SX4r  X1eq  1 4.300000e-01    3.590000e+00
  SX4r  X2eq  1 4.300000e-01    3.590000e+00
  SX4r  X3eq  1 4.300000e-01    3.590000e+00
  SX4r  X4eq  1 4.300000e-01    3.590000e+00
 SC1eq   X4r  1 4.300000e-01    2.920000e+00
 SC2eq   X4r  1 4.300000e-01    2.920000e+00
 SC3eq   X4r  1 4.300000e-01    3.380000e+00
 SC4eq   X4r  1 4.300000e-01    3.380000e+00
 SC5eq   X4r  1 4.300000e-01    3.380000e+00
 SC6eq   X4r  1 4.300000e-01    3.590000e+00
  SX4r  X1vq  1 4.300000e-01    3.590000e+00
  SX4r  X2vq  1 4.300000e-01    3.590000e+00
  SX4r  X3vq  1 4.300000e-01    3.590000e+00
  SX4r  X4vq  1 4.300000e-01    3.590000e+00
 SC1vq   X4r  1 4.300000e-01    2.920000e+00
 SC2vq   X4r  1 4.300000e-01    2.920000e+00
 SC3vq   X4r  1 4.300000e-01    3.380000e+00
 SC4vq   X4r  1 4.300000e-01    3.380000e+00
 SC5vq   X4r  1 4.300000e-01    3.380000e+00
 SC6vq   X4r  1 4.300000e-01    3.590000e+00
 SN1aq   X4r  1 4.300000e-01    3.380000e+00
 SN2aq   X4r  1 4.300000e-01    3.590000e+00
 SN3aq   X4r  1 4.300000e-01    3.590000e+00
 SN4aq   X4r  1 4.300000e-01    3.770000e+00
 SN5aq   X4r  1 4.300000e-01    3.590000e+00
 SN6aq   X4r  1 4.300000e-01    3.380000e+00
 SP1aq   X4r  1 4.300000e-01    3.160000e+00
 SP2aq   X4r  1 4.300000e-01    3.160000e+00
 SP3aq   X4r  1 4.300000e-01    3.160000e+00
 SP4aq   X4r  1 4.300000e-01    3.160000e+00
 SP5aq   X4r  1 4.300000e-01    3.160000e+00
 SP6aq   X4r  1 4.300000e-01    2.920000e+00
 SN1dq   X4r  1 4.300000e-01    3.380000e+00
 SN2dq   X4r  1 4.300000e-01    3.590000e+00
 SN3dq   X4r  1 4.300000e-01    3.590000e+00
 SN4dq   X4r  1 4.300000e-01    3.770000e+00
 SN5dq   X4r  1 4.300000e-01    3.590000e+00
 SN6dq   X4r  1 4.300000e-01    3.380000e+00
 SP1dq   X4r  1 4.300000e-01    3.160000e+00
 SP2dq   X4r  1 4.300000e-01    3.160000e+00
 SP3dq   X4r  1 4.300000e-01    3.160000e+00
 SP4dq   X4r  1 4.300000e-01    3.160000e+00
 SP5dq   X4r  1 4.300000e-01    3.160000e+00
 SP6dq   X4r  1 4.300000e-01    2.920000e+00
  SX4r   X1q  1 4.300000e-01    3.380000e+00
  SX4r   X2q  1 4.300000e-01    3.380000e+00
  SX4r   X3q  1 4.300000e-01    3.380000e+00
  SP6d   X3r  1 4.300000e-01    2.530000e+00
  SP5d   X3r  1 4.300000e-01    2.530000e+00
  SP4d   X3r  1 4.300000e-01    2.530000e+00
  SP3d   X3r  1 4.300000e-01    2.770000e+00
  SP2d   X3r  1 4.300000e-01    2.770000e+00
  SP1d   X3r  1 4.300000e-01    2.770000e+00
  SN6d   X3r  1 4.300000e-01    2.770000e+00
  SN5d   X3r  1 4.300000e-01    2.920000e+00
  SN4d   X3r  1 4.300000e-01    3.160000e+00
  SN3d   X3r  1 4.300000e-01    2.920000e+00
  SN2d   X3r  1 4.300000e-01    2.920000e+00
  SN1d   X3r  1 4.300000e-01    2.920000e+00
  SP6a   X3r  1 4.300000e-01    2.530000e+00
  SP5a   X3r  1 4.300000e-01    2.530000e+00
  SP4a   X3r  1 4.300000e-01    2.530000e+00
  SP3a   X3r  1 4.300000e-01    2.770000e+00
  SP2a   X3r  1 4.300000e-01    2.770000e+00
  SP1a   X3r  1 4.300000e-01    2.770000e+00
  SN6a   X3r  1 4.300000e-01    2.770000e+00
  SN5a   X3r  1 4.300000e-01    2.920000e+00
  SN4a   X3r  1 4.300000e-01    3.160000e+00
  SN3a   X3r  1 4.300000e-01    2.920000e+00
  SN2a   X3r  1 4.300000e-01    2.920000e+00
  SN1a   X3r  1 4.300000e-01    2.920000e+00
  SC6v   X3r  1 4.300000e-01    3.160000e+00
  SC5v   X3r  1 4.300000e-01    2.920000e+00
  SC4v   X3r  1 4.300000e-01    2.920000e+00
  SC3v   X3r  1 4.300000e-01    2.920000e+00
  SC2v   X3r  1 4.300000e-01    2.920000e+00
  SC1v   X3r  1 4.300000e-01    2.920000e+00
  SX4v   X3r  1 4.300000e-01    3.160000e+00
  SX3r   X3v  1 4.300000e-01    3.160000e+00
  SX3r   X1v  1 4.300000e-01    3.380000e+00
  SX3r   X2v  1 4.300000e-01    3.380000e+00
  SC6e   X3r  1 4.300000e-01    3.160000e+00
  SC5e   X3r  1 4.300000e-01    2.920000e+00
  SC4e   X3r  1 4.300000e-01    2.920000e+00
  SC3e   X3r  1 4.300000e-01    2.920000e+00
  SC2e   X3r  1 4.300000e-01    2.920000e+00
  SC1e   X3r  1 4.300000e-01    2.920000e+00
  SX4e   X3r  1 4.300000e-01    3.160000e+00
  SX3r   X3e  1 4.300000e-01    3.160000e+00
  SX3r   X1e  1 4.300000e-01    3.380000e+00
  SX3r   X2e  1 4.300000e-01    3.380000e+00
  SP6q   X3r  1 4.300000e-01    2.920000e+00
  SP5q   X3r  1 4.300000e-01    2.920000e+00
  SP4q   X3r  1 4.300000e-01    2.920000e+00
  SP3q   X3r  1 4.300000e-01    3.160000e+00
  SP2q   X3r  1 4.300000e-01    3.160000e+00
  SP1q   X3r  1 4.300000e-01    3.160000e+00
  SN6q   X3r  1 4.300000e-01    3.160000e+00
  SN5q   X3r  1 4.300000e-01    3.380000e+00
  SN4q   X3r  1 4.300000e-01    3.590000e+00
  SN3q   X3r  1 4.300000e-01    3.380000e+00
  SN2q   X3r  1 4.300000e-01    3.380000e+00
  SN1q   X3r  1 4.300000e-01    3.380000e+00
  SC6q   X3r  1 4.300000e-01    3.380000e+00
  SC5q   X3r  1 4.300000e-01    3.160000e+00
  SC4q   X3r  1 4.300000e-01    3.160000e+00
  SC3q   X3r  1 4.300000e-01    3.160000e+00
  SC2q   X3r  1 4.300000e-01    3.160000e+00
  SC1q   X3r  1 4.300000e-01    3.160000e+00
  SX4q   X3r  1 4.300000e-01    3.380000e+00
  SX3r   X3q  1 4.300000e-01    3.380000e+00
  SX3r  X1eq  1 4.300000e-01    3.770000e+00
  SX3r  X2eq  1 4.300000e-01    3.770000e+00
  SX3r  X3eq  1 4.300000e-01    3.590000e+00
 SX4eq   X3r  1 4.300000e-01    3.590000e+00
 SC1eq   X3r  1 4.300000e-01    3.380000e+00
 SC2eq   X3r  1 4.300000e-01    3.380000e+00
 SC3eq   X3r  1 4.300000e-01    3.380000e+00
 SC4eq   X3r  1 4.300000e-01    3.380000e+00
 SC5eq   X3r  1 4.300000e-01    3.380000e+00
 SC6eq   X3r  1 4.300000e-01    3.590000e+00
  SX3r  X1vq  1 4.300000e-01    3.770000e+00
  SX3r  X2vq  1 4.300000e-01    3.770000e+00
  SX3r  X3vq  1 4.300000e-01    3.590000e+00
 SX4vq   X3r  1 4.300000e-01    3.590000e+00
 SC1vq   X3r  1 4.300000e-01    3.380000e+00
 SC2vq   X3r  1 4.300000e-01    3.380000e+00
 SC3vq   X3r  1 4.300000e-01    3.380000e+00
 SC4vq   X3r  1 4.300000e-01    3.380000e+00
 SC5vq   X3r  1 4.300000e-01    3.380000e+00
 SC6vq   X3r  1 4.300000e-01    3.590000e+00
 SN1aq   X3r  1 4.300000e-01    3.380000e+00
 SN2aq   X3r  1 4.300000e-01    3.380000e+00
 SN3aq   X3r  1 4.300000e-01    3.380000e+00
 SN4aq   X3r  1 4.300000e-01    3.590000e+00
 SN5aq   X3r  1 4.300000e-01    3.380000e+00
 SN6aq   X3r  1 4.300000e-01    3.160000e+00
 SP1aq   X3r  1 4.300000e-01    3.160000e+00
 SP2aq   X3r  1 4.300000e-01    3.160000e+00
 SP3aq   X3r  1 4.300000e-01    3.160000e+00
 SP4aq   X3r  1 4.300000e-01    2.920000e+00
 SP5aq   X3r  1 4.300000e-01    2.920000e+00
 SP6aq   X3r  1 4.300000e-01    2.920000e+00
 SN1dq   X3r  1 4.300000e-01    3.380000e+00
 SN2dq   X3r  1 4.300000e-01    3.380000e+00
 SN3dq   X3r  1 4.300000e-01    3.380000e+00
 SN4dq   X3r  1 4.300000e-01    3.590000e+00
 SN5dq   X3r  1 4.300000e-01    3.380000e+00
 SN6dq   X3r  1 4.300000e-01    3.160000e+00
 SP1dq   X3r  1 4.300000e-01    3.160000e+00
 SP2dq   X3r  1 4.300000e-01    3.160000e+00
 SP3dq   X3r  1 4.300000e-01    3.160000e+00
 SP4dq   X3r  1 4.300000e-01    2.920000e+00
 SP5dq   X3r  1 4.300000e-01    2.920000e+00
 SP6dq   X3r  1 4.300000e-01    2.920000e+00
  SX3r   X1q  1 4.300000e-01    3.590000e+00
  SX3r   X2q  1 4.300000e-01    3.590000e+00
  SP6d   X2r  1 4.300000e-01    2.320000e+00
  SP5d   X2r  1 4.300000e-01    2.530000e+00
  SP4d   X2r  1 4.300000e-01    2.530000e+00
  SP3d   X2r  1 4.300000e-01    2.530000e+00
  SP2d   X2r  1 4.300000e-01    2.530000e+00
  SP1d   X2r  1 4.300000e-01    2.530000e+00
  SN6d   X2r  1 4.300000e-01    2.530000e+00
  SN5d   X2r  1 4.300000e-01    2.770000e+00
  SN4d   X2r  1 4.300000e-01    2.770000e+00
  SN3d   X2r  1 4.300000e-01    2.770000e+00
  SN2d   X2r  1 4.300000e-01    2.770000e+00
  SN1d   X2r  1 4.300000e-01    2.770000e+00
  SP6a   X2r  1 4.300000e-01    2.320000e+00
  SP5a   X2r  1 4.300000e-01    2.530000e+00
  SP4a   X2r  1 4.300000e-01    2.530000e+00
  SP3a   X2r  1 4.300000e-01    2.530000e+00
  SP2a   X2r  1 4.300000e-01    2.530000e+00
  SP1a   X2r  1 4.300000e-01    2.530000e+00
  SN6a   X2r  1 4.300000e-01    2.530000e+00
  SN5a   X2r  1 4.300000e-01    2.770000e+00
  SN4a   X2r  1 4.300000e-01    2.770000e+00
  SN3a   X2r  1 4.300000e-01    2.770000e+00
  SN2a   X2r  1 4.300000e-01    2.770000e+00
  SN1a   X2r  1 4.300000e-01    2.770000e+00
  SC6v   X2r  1 4.300000e-01    3.160000e+00
  SC5v   X2r  1 4.300000e-01    2.920000e+00
  SC4v   X2r  1 4.300000e-01    2.920000e+00
  SC3v   X2r  1 4.300000e-01    2.920000e+00
  SC2v   X2r  1 4.300000e-01    2.920000e+00
  SC1v   X2r  1 4.300000e-01    2.920000e+00
  SX4v   X2r  1 4.300000e-01    3.160000e+00
  SX3v   X2r  1 4.300000e-01    3.380000e+00
  SX2r   X2v  1 4.300000e-01    3.380000e+00
  SX2r   X1v  1 4.300000e-01    3.380000e+00
  SC6e   X2r  1 4.300000e-01    3.160000e+00
  SC5e   X2r  1 4.300000e-01    2.920000e+00
  SC4e   X2r  1 4.300000e-01    2.920000e+00
  SC3e   X2r  1 4.300000e-01    2.920000e+00
  SC2e   X2r  1 4.300000e-01    2.920000e+00
  SC1e   X2r  1 4.300000e-01    2.920000e+00
  SX4e   X2r  1 4.300000e-01    3.160000e+00
  SX3e   X2r  1 4.300000e-01    3.380000e+00
  SX2r   X2e  1 4.300000e-01    3.380000e+00
  SX2r   X1e  1 4.300000e-01    3.380000e+00
  SP6q   X2r  1 4.300000e-01    2.770000e+00
  SP5q   X2r  1 4.300000e-01    2.920000e+00
  SP4q   X2r  1 4.300000e-01    2.920000e+00
  SP3q   X2r  1 4.300000e-01    2.920000e+00
  SP2q   X2r  1 4.300000e-01    2.920000e+00
  SP1q   X2r  1 4.300000e-01    2.920000e+00
  SN6q   X2r  1 4.300000e-01    2.920000e+00
  SN5q   X2r  1 4.300000e-01    3.160000e+00
  SN4q   X2r  1 4.300000e-01    3.160000e+00
  SN3q   X2r  1 4.300000e-01    3.160000e+00
  SN2q   X2r  1 4.300000e-01    3.160000e+00
  SN1q   X2r  1 4.300000e-01    3.160000e+00
  SC6q   X2r  1 4.300000e-01    3.380000e+00
  SC5q   X2r  1 4.300000e-01    3.160000e+00
  SC4q   X2r  1 4.300000e-01    3.160000e+00
  SC3q   X2r  1 4.300000e-01    3.160000e+00
  SC2q   X2r  1 4.300000e-01    3.160000e+00
  SC1q   X2r  1 4.300000e-01    3.160000e+00
  SX4q   X2r  1 4.300000e-01    3.380000e+00
  SX3q   X2r  1 4.300000e-01    3.590000e+00
  SX2r   X2q  1 4.300000e-01    3.590000e+00
  SX2r  X1eq  1 4.300000e-01    3.770000e+00
  SX2r  X2eq  1 4.300000e-01    3.770000e+00
 SX3eq   X2r  1 4.300000e-01    3.770000e+00
 SX4eq   X2r  1 4.300000e-01    3.590000e+00
 SC1eq   X2r  1 4.300000e-01    3.380000e+00
 SC2eq   X2r  1 4.300000e-01    3.380000e+00
 SC3eq   X2r  1 4.300000e-01    3.380000e+00
 SC4eq   X2r  1 4.300000e-01    3.380000e+00
 SC5eq   X2r  1 4.300000e-01    3.380000e+00
 SC6eq   X2r  1 4.300000e-01    3.590000e+00
  SX2r  X1vq  1 4.300000e-01    3.770000e+00
  SX2r  X2vq  1 4.300000e-01    3.770000e+00
 SX3vq   X2r  1 4.300000e-01    3.770000e+00
 SX4vq   X2r  1 4.300000e-01    3.590000e+00
 SC1vq   X2r  1 4.300000e-01    3.380000e+00
 SC2vq   X2r  1 4.300000e-01    3.380000e+00
 SC3vq   X2r  1 4.300000e-01    3.380000e+00
 SC4vq   X2r  1 4.300000e-01    3.380000e+00
 SC5vq   X2r  1 4.300000e-01    3.380000e+00
 SC6vq   X2r  1 4.300000e-01    3.590000e+00
 SN1aq   X2r  1 4.300000e-01    3.160000e+00
 SN2aq   X2r  1 4.300000e-01    3.160000e+00
 SN3aq   X2r  1 4.300000e-01    3.160000e+00
 SN4aq   X2r  1 4.300000e-01    3.160000e+00
 SN5aq   X2r  1 4.300000e-01    3.160000e+00
 SN6aq   X2r  1 4.300000e-01    2.920000e+00
 SP1aq   X2r  1 4.300000e-01    2.920000e+00
 SP2aq   X2r  1 4.300000e-01    2.920000e+00
 SP3aq   X2r  1 4.300000e-01    2.920000e+00
 SP4aq   X2r  1 4.300000e-01    2.920000e+00
 SP5aq   X2r  1 4.300000e-01    2.920000e+00
 SP6aq   X2r  1 4.300000e-01    2.770000e+00
 SN1dq   X2r  1 4.300000e-01    3.160000e+00
 SN2dq   X2r  1 4.300000e-01    3.160000e+00
 SN3dq   X2r  1 4.300000e-01    3.160000e+00
 SN4dq   X2r  1 4.300000e-01    3.160000e+00
 SN5dq   X2r  1 4.300000e-01    3.160000e+00
 SN6dq   X2r  1 4.300000e-01    2.920000e+00
 SP1dq   X2r  1 4.300000e-01    2.920000e+00
 SP2dq   X2r  1 4.300000e-01    2.920000e+00
 SP3dq   X2r  1 4.300000e-01    2.920000e+00
 SP4dq   X2r  1 4.300000e-01    2.920000e+00
 SP5dq   X2r  1 4.300000e-01    2.920000e+00
 SP6dq   X2r  1 4.300000e-01    2.770000e+00
  SX2r   X1q  1 4.300000e-01    3.590000e+00
  SP6d   X1r  1 4.300000e-01    2.160000e+00
  SP5d   X1r  1 4.300000e-01    2.160000e+00
  SP4d   X1r  1 4.300000e-01    2.320000e+00
  SP3d   X1r  1 4.300000e-01    2.320000e+00
  SP2d   X1r  1 4.300000e-01    2.320000e+00
  SP1d   X1r  1 4.300000e-01    2.320000e+00
  SN6d   X1r  1 4.300000e-01    2.320000e+00
  SN5d   X1r  1 4.300000e-01    2.530000e+00
  SN4d   X1r  1 4.300000e-01    2.530000e+00
  SN3d   X1r  1 4.300000e-01    2.770000e+00
  SN2d   X1r  1 4.300000e-01    2.770000e+00
  SN1d   X1r  1 4.300000e-01    2.770000e+00
  SP6a   X1r  1 4.300000e-01    2.160000e+00
  SP5a   X1r  1 4.300000e-01    2.160000e+00
  SP4a   X1r  1 4.300000e-01    2.320000e+00
  SP3a   X1r  1 4.300000e-01    2.320000e+00
  SP2a   X1r  1 4.300000e-01    2.320000e+00
  SP1a   X1r  1 4.300000e-01    2.320000e+00
  SN6a   X1r  1 4.300000e-01    2.320000e+00
  SN5a   X1r  1 4.300000e-01    2.530000e+00
  SN4a   X1r  1 4.300000e-01    2.530000e+00
  SN3a   X1r  1 4.300000e-01    2.770000e+00
  SN2a   X1r  1 4.300000e-01    2.770000e+00
  SN1a   X1r  1 4.300000e-01    2.770000e+00
  SC6v   X1r  1 4.300000e-01    3.160000e+00
  SC5v   X1r  1 4.300000e-01    3.160000e+00
  SC4v   X1r  1 4.300000e-01    3.160000e+00
  SC3v   X1r  1 4.300000e-01    3.160000e+00
  SC2v   X1r  1 4.300000e-01    2.920000e+00
  SC1v   X1r  1 4.300000e-01    2.920000e+00
  SX4v   X1r  1 4.300000e-01    3.160000e+00
  SX3v   X1r  1 4.300000e-01    3.380000e+00
  SX2v   X1r  1 4.300000e-01    3.380000e+00
  SX1r   X1v  1 4.300000e-01    3.590000e+00
  SC6e   X1r  1 4.300000e-01    3.160000e+00
  SC5e   X1r  1 4.300000e-01    3.160000e+00
  SC4e   X1r  1 4.300000e-01    3.160000e+00
  SC3e   X1r  1 4.300000e-01    3.160000e+00
  SC2e   X1r  1 4.300000e-01    2.920000e+00
  SC1e   X1r  1 4.300000e-01    2.920000e+00
  SX4e   X1r  1 4.300000e-01    3.160000e+00
  SX3e   X1r  1 4.300000e-01    3.380000e+00
  SX2e   X1r  1 4.300000e-01    3.380000e+00
  SX1r   X1e  1 4.300000e-01    3.590000e+00
  SP6q   X1r  1 4.300000e-01    2.530000e+00
  SP5q   X1r  1 4.300000e-01    2.530000e+00
  SP4q   X1r  1 4.300000e-01    2.770000e+00
  SP3q   X1r  1 4.300000e-01    2.770000e+00
  SP2q   X1r  1 4.300000e-01    2.770000e+00
  SP1q   X1r  1 4.300000e-01    2.770000e+00
  SN6q   X1r  1 4.300000e-01    2.770000e+00
  SN5q   X1r  1 4.300000e-01    2.920000e+00
  SN4q   X1r  1 4.300000e-01    2.920000e+00
  SN3q   X1r  1 4.300000e-01    3.160000e+00
  SN2q   X1r  1 4.300000e-01    3.160000e+00
  SN1q   X1r  1 4.300000e-01    3.160000e+00
  SC6q   X1r  1 4.300000e-01    3.380000e+00
  SC5q   X1r  1 4.300000e-01    3.380000e+00
  SC4q   X1r  1 4.300000e-01    3.380000e+00
  SC3q   X1r  1 4.300000e-01    3.380000e+00
  SC2q   X1r  1 4.300000e-01    3.160000e+00
  SC1q   X1r  1 4.300000e-01    3.160000e+00
  SX4q   X1r  1 4.300000e-01    3.380000e+00
  SX3q   X1r  1 4.300000e-01    3.590000e+00
  SX2q   X1r  1 4.300000e-01    3.590000e+00
  SX1r   X1q  1 4.300000e-01    3.770000e+00
  SX1r  X1eq  1 4.300000e-01    3.970000e+00
 SX2eq   X1r  1 4.300000e-01    3.770000e+00
 SX3eq   X1r  1 4.300000e-01    3.770000e+00
 SX4eq   X1r  1 4.300000e-01    3.590000e+00
 SC1eq   X1r  1 4.300000e-01    3.380000e+00
 SC2eq   X1r  1 4.300000e-01    3.380000e+00
 SC3eq   X1r  1 4.300000e-01    3.590000e+00
 SC4eq   X1r  1 4.300000e-01    3.590000e+00
 SC5eq   X1r  1 4.300000e-01    3.590000e+00
 SC6eq   X1r  1 4.300000e-01    3.590000e+00
  SX1r  X1vq  1 4.300000e-01    3.970000e+00
 SX2vq   X1r  1 4.300000e-01    3.770000e+00
 SX3vq   X1r  1 4.300000e-01    3.770000e+00
 SX4vq   X1r  1 4.300000e-01    3.590000e+00
 SC1vq   X1r  1 4.300000e-01    3.380000e+00
 SC2vq   X1r  1 4.300000e-01    3.380000e+00
 SC3vq   X1r  1 4.300000e-01    3.590000e+00
 SC4vq   X1r  1 4.300000e-01    3.590000e+00
 SC5vq   X1r  1 4.300000e-01    3.590000e+00
 SC6vq   X1r  1 4.300000e-01    3.590000e+00
 SN1aq   X1r  1 4.300000e-01    3.160000e+00
 SN2aq   X1r  1 4.300000e-01    3.160000e+00
 SN3aq   X1r  1 4.300000e-01    3.160000e+00
 SN4aq   X1r  1 4.300000e-01    2.920000e+00
 SN5aq   X1r  1 4.300000e-01    2.920000e+00
 SN6aq   X1r  1 4.300000e-01    2.770000e+00
 SP1aq   X1r  1 4.300000e-01    2.770000e+00
 SP2aq   X1r  1 4.300000e-01    2.770000e+00
 SP3aq   X1r  1 4.300000e-01    2.770000e+00
 SP4aq   X1r  1 4.300000e-01    2.770000e+00
 SP5aq   X1r  1 4.300000e-01    2.530000e+00
 SP6aq   X1r  1 4.300000e-01    2.530000e+00
 SN1dq   X1r  1 4.300000e-01    3.160000e+00
 SN2dq   X1r  1 4.300000e-01    3.160000e+00
 SN3dq   X1r  1 4.300000e-01    3.160000e+00
 SN4dq   X1r  1 4.300000e-01    2.920000e+00
 SN5dq   X1r  1 4.300000e-01    2.920000e+00
 SN6dq   X1r  1 4.300000e-01    2.770000e+00
 SP1dq   X1r  1 4.300000e-01    2.770000e+00
 SP2dq   X1r  1 4.300000e-01    2.770000e+00
 SP3dq   X1r  1 4.300000e-01    2.770000e+00
 SP4dq   X1r  1 4.300000e-01    2.770000e+00
 SP5dq   X1r  1 4.300000e-01    2.530000e+00
 SP6dq   X1r  1 4.300000e-01    2.530000e+00
  SP6q  P6dr  1 4.300000e-01    5.210000e+00
 SP6dr   P5q  1 4.300000e-01    4.920000e+00
 SP6dr   P4q  1 4.300000e-01    4.680000e+00
 SP6dr   P3q  1 4.300000e-01    4.400000e+00
 SP6dr   P2q  1 4.300000e-01    4.400000e+00
 SP6dr   P1q  1 4.300000e-01    4.170000e+00
 SP6dr   N6q  1 4.300000e-01    3.970000e+00
 SP6dr   N5q  1 4.300000e-01    3.590000e+00
 SP6dr   N4q  1 4.300000e-01    3.380000e+00
 SP6dr   N3q  1 4.300000e-01    3.160000e+00
 SP6dr   N2q  1 4.300000e-01    2.920000e+00
 SP6dr   N1q  1 4.300000e-01    2.770000e+00
 SP6dr   C6q  1 4.300000e-01    2.770000e+00
 SP6dr   C5q  1 4.300000e-01    2.530000e+00
 SP6dr   C4q  1 4.300000e-01    2.320000e+00
 SP6dr   C3q  1 4.300000e-01    2.160000e+00
 SP6dr   C2q  1 4.300000e-01    2.160000e+00
 SP6dr   C1q  1 4.300000e-01    1.730000e+00
 SP6dr   X4q  1 4.300000e-01    2.920000e+00
 SP6dr   X3q  1 4.300000e-01    2.920000e+00
 SP6dr   X2q  1 4.300000e-01    2.770000e+00
 SP6dr   X1q  1 4.300000e-01    2.530000e+00
  SP6q  P5dr  1 4.300000e-01    4.920000e+00
  SP5q  P5dr  1 4.300000e-01    4.680000e+00
 SP5dr   P4q  1 4.300000e-01    4.400000e+00
 SP5dr   P3q  1 4.300000e-01    4.170000e+00
 SP5dr   P2q  1 4.300000e-01    4.170000e+00
 SP5dr   P1q  1 4.300000e-01    3.970000e+00
 SP5dr   N6q  1 4.300000e-01    3.770000e+00
 SP5dr   N5q  1 4.300000e-01    3.590000e+00
 SP5dr   N4q  1 4.300000e-01    3.590000e+00
 SP5dr   N3q  1 4.300000e-01    3.160000e+00
 SP5dr   N2q  1 4.300000e-01    2.920000e+00
 SP5dr   N1q  1 4.300000e-01    2.770000e+00
 SP5dr   C6q  1 4.300000e-01    2.770000e+00
 SP5dr   C5q  1 4.300000e-01    2.770000e+00
 SP5dr   C4q  1 4.300000e-01    2.530000e+00
 SP5dr   C3q  1 4.300000e-01    2.320000e+00
 SP5dr   C2q  1 4.300000e-01    2.320000e+00
 SP5dr   C1q  1 4.300000e-01    2.160000e+00
 SP5dr   X4q  1 4.300000e-01    3.160000e+00
 SP5dr   X3q  1 4.300000e-01    2.920000e+00
 SP5dr   X2q  1 4.300000e-01    2.920000e+00
 SP5dr   X1q  1 4.300000e-01    2.530000e+00
  SP6q  P4dr  1 4.300000e-01    4.680000e+00
  SP5q  P4dr  1 4.300000e-01    4.400000e+00
  SP4q  P4dr  1 4.300000e-01    4.400000e+00
 SP4dr   P3q  1 4.300000e-01    4.170000e+00
 SP4dr   P2q  1 4.300000e-01    4.170000e+00
 SP4dr   P1q  1 4.300000e-01    3.970000e+00
 SP4dr   N6q  1 4.300000e-01    3.770000e+00
 SP4dr   N5q  1 4.300000e-01    3.590000e+00
 SP4dr   N4q  1 4.300000e-01    3.590000e+00
 SP4dr   N3q  1 4.300000e-01    3.380000e+00
 SP4dr   N2q  1 4.300000e-01    3.160000e+00
 SP4dr   N1q  1 4.300000e-01    2.920000e+00
 SP4dr   C6q  1 4.300000e-01    2.920000e+00
 SP4dr   C5q  1 4.300000e-01    2.770000e+00
 SP4dr   C4q  1 4.300000e-01    2.530000e+00
 SP4dr   C3q  1 4.300000e-01    2.320000e+00
 SP4dr   C2q  1 4.300000e-01    2.320000e+00
 SP4dr   C1q  1 4.300000e-01    2.160000e+00
 SP4dr   X4q  1 4.300000e-01    3.160000e+00
 SP4dr   X3q  1 4.300000e-01    2.920000e+00
 SP4dr   X2q  1 4.300000e-01    2.920000e+00
 SP4dr   X1q  1 4.300000e-01    2.770000e+00
  SP6q  P3dr  1 4.300000e-01    4.400000e+00
  SP5q  P3dr  1 4.300000e-01    4.170000e+00
  SP4q  P3dr  1 4.300000e-01    4.170000e+00
  SP3q  P3dr  1 4.300000e-01    4.170000e+00
 SP3dr   P2q  1 4.300000e-01    4.170000e+00
 SP3dr   P1q  1 4.300000e-01    3.970000e+00
 SP3dr   N6q  1 4.300000e-01    3.770000e+00
 SP3dr   N5q  1 4.300000e-01    3.590000e+00
 SP3dr   N4q  1 4.300000e-01    3.590000e+00
 SP3dr   N3q  1 4.300000e-01    3.380000e+00
 SP3dr   N2q  1 4.300000e-01    3.380000e+00
 SP3dr   N1q  1 4.300000e-01    3.160000e+00
 SP3dr   C6q  1 4.300000e-01    3.160000e+00
 SP3dr   C5q  1 4.300000e-01    2.920000e+00
 SP3dr   C4q  1 4.300000e-01    2.770000e+00
 SP3dr   C3q  1 4.300000e-01    2.320000e+00
 SP3dr   C2q  1 4.300000e-01    2.320000e+00
 SP3dr   C1q  1 4.300000e-01    2.160000e+00
 SP3dr   X4q  1 4.300000e-01    3.160000e+00
 SP3dr   X3q  1 4.300000e-01    3.160000e+00
 SP3dr   X2q  1 4.300000e-01    2.920000e+00
 SP3dr   X1q  1 4.300000e-01    2.770000e+00
  SP6q  P2dr  1 4.300000e-01    4.400000e+00
  SP5q  P2dr  1 4.300000e-01    4.170000e+00
  SP4q  P2dr  1 4.300000e-01    4.170000e+00
  SP3q  P2dr  1 4.300000e-01    4.170000e+00
  SP2q  P2dr  1 4.300000e-01    4.170000e+00
 SP2dr   P1q  1 4.300000e-01    3.970000e+00
 SP2dr   N6q  1 4.300000e-01    3.970000e+00
 SP2dr   N5q  1 4.300000e-01    3.770000e+00
 SP2dr   N4q  1 4.300000e-01    3.590000e+00
 SP2dr   N3q  1 4.300000e-01    3.380000e+00
 SP2dr   N2q  1 4.300000e-01    3.380000e+00
 SP2dr   N1q  1 4.300000e-01    3.380000e+00
 SP2dr   C6q  1 4.300000e-01    3.160000e+00
 SP2dr   C5q  1 4.300000e-01    2.920000e+00
 SP2dr   C4q  1 4.300000e-01    2.770000e+00
 SP2dr   C3q  1 4.300000e-01    2.530000e+00
 SP2dr   C2q  1 4.300000e-01    2.530000e+00
 SP2dr   C1q  1 4.300000e-01    2.320000e+00
 SP2dr   X4q  1 4.300000e-01    3.160000e+00
 SP2dr   X3q  1 4.300000e-01    3.160000e+00
 SP2dr   X2q  1 4.300000e-01    2.920000e+00
 SP2dr   X1q  1 4.300000e-01    2.770000e+00
  SP6q  P1dr  1 4.300000e-01    4.170000e+00
  SP5q  P1dr  1 4.300000e-01    3.970000e+00
  SP4q  P1dr  1 4.300000e-01    3.970000e+00
  SP3q  P1dr  1 4.300000e-01    3.970000e+00
  SP2q  P1dr  1 4.300000e-01    3.970000e+00
  SP1q  P1dr  1 4.300000e-01    3.970000e+00
 SP1dr   N6q  1 4.300000e-01    3.970000e+00
 SP1dr   N5q  1 4.300000e-01    3.770000e+00
 SP1dr   N4q  1 4.300000e-01    3.770000e+00
 SP1dr   N3q  1 4.300000e-01    3.380000e+00
 SP1dr   N2q  1 4.300000e-01    3.380000e+00
 SP1dr   N1q  1 4.300000e-01    3.380000e+00
 SP1dr   C6q  1 4.300000e-01    3.160000e+00
 SP1dr   C5q  1 4.300000e-01    2.920000e+00
 SP1dr   C4q  1 4.300000e-01    2.770000e+00
 SP1dr   C3q  1 4.300000e-01    2.530000e+00
 SP1dr   C2q  1 4.300000e-01    2.530000e+00
 SP1dr   C1q  1 4.300000e-01    2.320000e+00
 SP1dr   X4q  1 4.300000e-01    3.160000e+00
 SP1dr   X3q  1 4.300000e-01    3.160000e+00
 SP1dr   X2q  1 4.300000e-01    2.920000e+00
 SP1dr   X1q  1 4.300000e-01    2.770000e+00
  SP6q  N6dr  1 4.300000e-01    3.970000e+00
  SP5q  N6dr  1 4.300000e-01    3.770000e+00
  SP4q  N6dr  1 4.300000e-01    3.770000e+00
  SP3q  N6dr  1 4.300000e-01    3.770000e+00
  SP2q  N6dr  1 4.300000e-01    3.970000e+00
  SP1q  N6dr  1 4.300000e-01    3.970000e+00
  SN6q  N6dr  1 4.300000e-01    3.970000e+00
 SN6dr   N5q  1 4.300000e-01    3.970000e+00
 SN6dr   N4q  1 4.300000e-01    3.970000e+00
 SN6dr   N3q  1 4.300000e-01    3.590000e+00
 SN6dr   N2q  1 4.300000e-01    3.380000e+00
 SN6dr   N1q  1 4.300000e-01    3.380000e+00
 SN6dr   C6q  1 4.300000e-01    3.380000e+00
 SN6dr   C5q  1 4.300000e-01    3.160000e+00
 SN6dr   C4q  1 4.300000e-01    2.920000e+00
 SN6dr   C3q  1 4.300000e-01    2.770000e+00
 SN6dr   C2q  1 4.300000e-01    2.770000e+00
 SN6dr   C1q  1 4.300000e-01    2.530000e+00
 SN6dr   X4q  1 4.300000e-01    3.380000e+00
 SN6dr   X3q  1 4.300000e-01    3.160000e+00
 SN6dr   X2q  1 4.300000e-01    2.920000e+00
 SN6dr   X1q  1 4.300000e-01    2.770000e+00
  SP6q  N5dr  1 4.300000e-01    3.590000e+00
  SP5q  N5dr  1 4.300000e-01    3.590000e+00
  SP4q  N5dr  1 4.300000e-01    3.590000e+00
  SP3q  N5dr  1 4.300000e-01    3.590000e+00
  SP2q  N5dr  1 4.300000e-01    3.770000e+00
  SP1q  N5dr  1 4.300000e-01    3.770000e+00
  SN6q  N5dr  1 4.300000e-01    3.970000e+00
  SN5q  N5dr  1 4.300000e-01    3.770000e+00
 SN5dr   N4q  1 4.300000e-01    3.770000e+00
 SN5dr   N3q  1 4.300000e-01    3.590000e+00
 SN5dr   N2q  1 4.300000e-01    3.590000e+00
 SN5dr   N1q  1 4.300000e-01    3.380000e+00
 SN5dr   C6q  1 4.300000e-01    3.380000e+00
 SN5dr   C5q  1 4.300000e-01    3.160000e+00
 SN5dr   C4q  1 4.300000e-01    2.920000e+00
 SN5dr   C3q  1 4.300000e-01    2.920000e+00
 SN5dr   C2q  1 4.300000e-01    2.770000e+00
 SN5dr   C1q  1 4.300000e-01    2.530000e+00
 SN5dr   X4q  1 4.300000e-01    3.590000e+00
 SN5dr   X3q  1 4.300000e-01    3.380000e+00
 SN5dr   X2q  1 4.300000e-01    3.160000e+00
 SN5dr   X1q  1 4.300000e-01    2.920000e+00
  SP6q  N4dr  1 4.300000e-01    3.380000e+00
  SP5q  N4dr  1 4.300000e-01    3.590000e+00
  SP4q  N4dr  1 4.300000e-01    3.590000e+00
  SP3q  N4dr  1 4.300000e-01    3.590000e+00
  SP2q  N4dr  1 4.300000e-01    3.590000e+00
  SP1q  N4dr  1 4.300000e-01    3.770000e+00
  SN6q  N4dr  1 4.300000e-01    3.970000e+00
  SN5q  N4dr  1 4.300000e-01    3.770000e+00
  SN4q  N4dr  1 4.300000e-01    3.770000e+00
 SN4dr   N3q  1 4.300000e-01    3.590000e+00
 SN4dr   N2q  1 4.300000e-01    3.590000e+00
 SN4dr   N1q  1 4.300000e-01    3.380000e+00
 SN4dr   C6q  1 4.300000e-01    3.380000e+00
 SN4dr   C5q  1 4.300000e-01    3.160000e+00
 SN4dr   C4q  1 4.300000e-01    3.160000e+00
 SN4dr   C3q  1 4.300000e-01    2.920000e+00
 SN4dr   C2q  1 4.300000e-01    2.770000e+00
 SN4dr   C1q  1 4.300000e-01    2.530000e+00
 SN4dr   X4q  1 4.300000e-01    3.770000e+00
 SN4dr   X3q  1 4.300000e-01    3.590000e+00
 SN4dr   X2q  1 4.300000e-01    3.160000e+00
 SN4dr   X1q  1 4.300000e-01    2.920000e+00
  SP6q  N3dr  1 4.300000e-01    3.160000e+00
  SP5q  N3dr  1 4.300000e-01    3.160000e+00
  SP4q  N3dr  1 4.300000e-01    3.380000e+00
  SP3q  N3dr  1 4.300000e-01    3.380000e+00
  SP2q  N3dr  1 4.300000e-01    3.380000e+00
  SP1q  N3dr  1 4.300000e-01    3.380000e+00
  SN6q  N3dr  1 4.300000e-01    3.590000e+00
  SN5q  N3dr  1 4.300000e-01    3.590000e+00
  SN4q  N3dr  1 4.300000e-01    3.590000e+00
  SN3q  N3dr  1 4.300000e-01    3.590000e+00
 SN3dr   N2q  1 4.300000e-01    3.590000e+00
 SN3dr   N1q  1 4.300000e-01    3.380000e+00
 SN3dr   C6q  1 4.300000e-01    3.380000e+00
 SN3dr   C5q  1 4.300000e-01    3.160000e+00
 SN3dr   C4q  1 4.300000e-01    3.160000e+00
 SN3dr   C3q  1 4.300000e-01    2.920000e+00
 SN3dr   C2q  1 4.300000e-01    2.920000e+00
 SN3dr   C1q  1 4.300000e-01    2.770000e+00
 SN3dr   X4q  1 4.300000e-01    3.590000e+00
 SN3dr   X3q  1 4.300000e-01    3.380000e+00
 SN3dr   X2q  1 4.300000e-01    3.160000e+00
 SN3dr   X1q  1 4.300000e-01    3.160000e+00
  SP6q  N2dr  1 4.300000e-01    2.920000e+00
  SP5q  N2dr  1 4.300000e-01    2.920000e+00
  SP4q  N2dr  1 4.300000e-01    3.160000e+00
  SP3q  N2dr  1 4.300000e-01    3.380000e+00
  SP2q  N2dr  1 4.300000e-01    3.380000e+00
  SP1q  N2dr  1 4.300000e-01    3.380000e+00
  SN6q  N2dr  1 4.300000e-01    3.380000e+00
  SN5q  N2dr  1 4.300000e-01    3.590000e+00
  SN4q  N2dr  1 4.300000e-01    3.590000e+00
  SN3q  N2dr  1 4.300000e-01    3.590000e+00
  SN2q  N2dr  1 4.300000e-01    3.590000e+00
 SN2dr   N1q  1 4.300000e-01    3.380000e+00
 SN2dr   C6q  1 4.300000e-01    3.380000e+00
 SN2dr   C5q  1 4.300000e-01    3.160000e+00
 SN2dr   C4q  1 4.300000e-01    3.160000e+00
 SN2dr   C3q  1 4.300000e-01    3.160000e+00
 SN2dr   C2q  1 4.300000e-01    2.920000e+00
 SN2dr   C1q  1 4.300000e-01    2.770000e+00
 SN2dr   X4q  1 4.300000e-01    3.590000e+00
 SN2dr   X3q  1 4.300000e-01    3.380000e+00
 SN2dr   X2q  1 4.300000e-01    3.160000e+00
 SN2dr   X1q  1 4.300000e-01    3.160000e+00
  SP6q  N1dr  1 4.300000e-01    2.770000e+00
  SP5q  N1dr  1 4.300000e-01    2.770000e+00
  SP4q  N1dr  1 4.300000e-01    2.920000e+00
  SP3q  N1dr  1 4.300000e-01    3.160000e+00
  SP2q  N1dr  1 4.300000e-01    3.380000e+00
  SP1q  N1dr  1 4.300000e-01    3.380000e+00
  SN6q  N1dr  1 4.300000e-01    3.380000e+00
  SN5q  N1dr  1 4.300000e-01    3.380000e+00
  SN4q  N1dr  1 4.300000e-01    3.380000e+00
  SN3q  N1dr  1 4.300000e-01    3.380000e+00
  SN2q  N1dr  1 4.300000e-01    3.380000e+00
  SN1q  N1dr  1 4.300000e-01    3.590000e+00
 SN1dr   C6q  1 4.300000e-01    3.590000e+00
 SN1dr   C5q  1 4.300000e-01    3.380000e+00
 SN1dr   C4q  1 4.300000e-01    3.380000e+00
 SN1dr   C3q  1 4.300000e-01    3.160000e+00
 SN1dr   C2q  1 4.300000e-01    2.920000e+00
 SN1dr   C1q  1 4.300000e-01    2.770000e+00
 SN1dr   X4q  1 4.300000e-01    3.380000e+00
 SN1dr   X3q  1 4.300000e-01    3.380000e+00
 SN1dr   X2q  1 4.300000e-01    3.160000e+00
 SN1dr   X1q  1 4.300000e-01    3.160000e+00
  SP6q  P6ar  1 4.300000e-01    5.210000e+00
 SP6ar   P5q  1 4.300000e-01    4.920000e+00
 SP6ar   P4q  1 4.300000e-01    4.680000e+00
 SP6ar   P3q  1 4.300000e-01    4.400000e+00
 SP6ar   P2q  1 4.300000e-01    4.400000e+00
 SP6ar   P1q  1 4.300000e-01    4.170000e+00
 SP6ar   N6q  1 4.300000e-01    3.970000e+00
 SP6ar   N5q  1 4.300000e-01    3.590000e+00
 SP6ar   N4q  1 4.300000e-01    3.380000e+00
 SP6ar   N3q  1 4.300000e-01    3.160000e+00
 SP6ar   N2q  1 4.300000e-01    2.920000e+00
 SP6ar   N1q  1 4.300000e-01    2.770000e+00
 SP6ar   C6q  1 4.300000e-01    2.770000e+00
 SP6ar   C5q  1 4.300000e-01    2.530000e+00
 SP6ar   C4q  1 4.300000e-01    2.320000e+00
 SP6ar   C3q  1 4.300000e-01    2.160000e+00
 SP6ar   C2q  1 4.300000e-01    2.160000e+00
 SP6ar   C1q  1 4.300000e-01    1.730000e+00
 SP6ar   X4q  1 4.300000e-01    2.920000e+00
 SP6ar   X3q  1 4.300000e-01    2.920000e+00
 SP6ar   X2q  1 4.300000e-01    2.770000e+00
 SP6ar   X1q  1 4.300000e-01    2.530000e+00
  SP6q  P5ar  1 4.300000e-01    4.920000e+00
  SP5q  P5ar  1 4.300000e-01    4.680000e+00
 SP5ar   P4q  1 4.300000e-01    4.400000e+00
 SP5ar   P3q  1 4.300000e-01    4.170000e+00
 SP5ar   P2q  1 4.300000e-01    4.170000e+00
 SP5ar   P1q  1 4.300000e-01    3.970000e+00
 SP5ar   N6q  1 4.300000e-01    3.770000e+00
 SP5ar   N5q  1 4.300000e-01    3.590000e+00
 SP5ar   N4q  1 4.300000e-01    3.590000e+00
 SP5ar   N3q  1 4.300000e-01    3.160000e+00
 SP5ar   N2q  1 4.300000e-01    2.920000e+00
 SP5ar   N1q  1 4.300000e-01    2.770000e+00
 SP5ar   C6q  1 4.300000e-01    2.770000e+00
 SP5ar   C5q  1 4.300000e-01    2.770000e+00
 SP5ar   C4q  1 4.300000e-01    2.530000e+00
 SP5ar   C3q  1 4.300000e-01    2.320000e+00
 SP5ar   C2q  1 4.300000e-01    2.320000e+00
 SP5ar   C1q  1 4.300000e-01    2.160000e+00
 SP5ar   X4q  1 4.300000e-01    3.160000e+00
 SP5ar   X3q  1 4.300000e-01    2.920000e+00
 SP5ar   X2q  1 4.300000e-01    2.920000e+00
 SP5ar   X1q  1 4.300000e-01    2.530000e+00
  SP6q  P4ar  1 4.300000e-01    4.680000e+00
  SP5q  P4ar  1 4.300000e-01    4.400000e+00
  SP4q  P4ar  1 4.300000e-01    4.400000e+00
 SP4ar   P3q  1 4.300000e-01    4.170000e+00
 SP4ar   P2q  1 4.300000e-01    4.170000e+00
 SP4ar   P1q  1 4.300000e-01    3.970000e+00
 SP4ar   N6q  1 4.300000e-01    3.770000e+00
 SP4ar   N5q  1 4.300000e-01    3.590000e+00
 SP4ar   N4q  1 4.300000e-01    3.590000e+00
 SP4ar   N3q  1 4.300000e-01    3.380000e+00
 SP4ar   N2q  1 4.300000e-01    3.160000e+00
 SP4ar   N1q  1 4.300000e-01    2.920000e+00
 SP4ar   C6q  1 4.300000e-01    2.920000e+00
 SP4ar   C5q  1 4.300000e-01    2.770000e+00
 SP4ar   C4q  1 4.300000e-01    2.530000e+00
 SP4ar   C3q  1 4.300000e-01    2.320000e+00
 SP4ar   C2q  1 4.300000e-01    2.320000e+00
 SP4ar   C1q  1 4.300000e-01    2.160000e+00
 SP4ar   X4q  1 4.300000e-01    3.160000e+00
 SP4ar   X3q  1 4.300000e-01    2.920000e+00
 SP4ar   X2q  1 4.300000e-01    2.920000e+00
 SP4ar   X1q  1 4.300000e-01    2.770000e+00
  SP6q  P3ar  1 4.300000e-01    4.400000e+00
  SP5q  P3ar  1 4.300000e-01    4.170000e+00
  SP4q  P3ar  1 4.300000e-01    4.170000e+00
  SP3q  P3ar  1 4.300000e-01    4.170000e+00
 SP3ar   P2q  1 4.300000e-01    4.170000e+00
 SP3ar   P1q  1 4.300000e-01    3.970000e+00
 SP3ar   N6q  1 4.300000e-01    3.770000e+00
 SP3ar   N5q  1 4.300000e-01    3.590000e+00
 SP3ar   N4q  1 4.300000e-01    3.590000e+00
 SP3ar   N3q  1 4.300000e-01    3.380000e+00
 SP3ar   N2q  1 4.300000e-01    3.380000e+00
 SP3ar   N1q  1 4.300000e-01    3.160000e+00
 SP3ar   C6q  1 4.300000e-01    3.160000e+00
 SP3ar   C5q  1 4.300000e-01    2.920000e+00
 SP3ar   C4q  1 4.300000e-01    2.770000e+00
 SP3ar   C3q  1 4.300000e-01    2.320000e+00
 SP3ar   C2q  1 4.300000e-01    2.320000e+00
 SP3ar   C1q  1 4.300000e-01    2.160000e+00
 SP3ar   X4q  1 4.300000e-01    3.160000e+00
 SP3ar   X3q  1 4.300000e-01    3.160000e+00
 SP3ar   X2q  1 4.300000e-01    2.920000e+00
 SP3ar   X1q  1 4.300000e-01    2.770000e+00
  SP6q  P2ar  1 4.300000e-01    4.400000e+00
  SP5q  P2ar  1 4.300000e-01    4.170000e+00
  SP4q  P2ar  1 4.300000e-01    4.170000e+00
  SP3q  P2ar  1 4.300000e-01    4.170000e+00
  SP2q  P2ar  1 4.300000e-01    4.170000e+00
 SP2ar   P1q  1 4.300000e-01    3.970000e+00
 SP2ar   N6q  1 4.300000e-01    3.970000e+00
 SP2ar   N5q  1 4.300000e-01    3.770000e+00
 SP2ar   N4q  1 4.300000e-01    3.590000e+00
 SP2ar   N3q  1 4.300000e-01    3.380000e+00
 SP2ar   N2q  1 4.300000e-01    3.380000e+00
 SP2ar   N1q  1 4.300000e-01    3.380000e+00
 SP2ar   C6q  1 4.300000e-01    3.160000e+00
 SP2ar   C5q  1 4.300000e-01    2.920000e+00
 SP2ar   C4q  1 4.300000e-01    2.770000e+00
 SP2ar   C3q  1 4.300000e-01    2.530000e+00
 SP2ar   C2q  1 4.300000e-01    2.530000e+00
 SP2ar   C1q  1 4.300000e-01    2.320000e+00
 SP2ar   X4q  1 4.300000e-01    3.160000e+00
 SP2ar   X3q  1 4.300000e-01    3.160000e+00
 SP2ar   X2q  1 4.300000e-01    2.920000e+00
 SP2ar   X1q  1 4.300000e-01    2.770000e+00
  SP6q  P1ar  1 4.300000e-01    4.170000e+00
  SP5q  P1ar  1 4.300000e-01    3.970000e+00
  SP4q  P1ar  1 4.300000e-01    3.970000e+00
  SP3q  P1ar  1 4.300000e-01    3.970000e+00
  SP2q  P1ar  1 4.300000e-01    3.970000e+00
  SP1q  P1ar  1 4.300000e-01    3.970000e+00
 SP1ar   N6q  1 4.300000e-01    3.970000e+00
 SP1ar   N5q  1 4.300000e-01    3.770000e+00
 SP1ar   N4q  1 4.300000e-01    3.770000e+00
 SP1ar   N3q  1 4.300000e-01    3.380000e+00
 SP1ar   N2q  1 4.300000e-01    3.380000e+00
 SP1ar   N1q  1 4.300000e-01    3.380000e+00
 SP1ar   C6q  1 4.300000e-01    3.160000e+00
 SP1ar   C5q  1 4.300000e-01    2.920000e+00
 SP1ar   C4q  1 4.300000e-01    2.770000e+00
 SP1ar   C3q  1 4.300000e-01    2.530000e+00
 SP1ar   C2q  1 4.300000e-01    2.530000e+00
 SP1ar   C1q  1 4.300000e-01    2.320000e+00
 SP1ar   X4q  1 4.300000e-01    3.160000e+00
 SP1ar   X3q  1 4.300000e-01    3.160000e+00
 SP1ar   X2q  1 4.300000e-01    2.920000e+00
 SP1ar   X1q  1 4.300000e-01    2.770000e+00
  SP6q  N6ar  1 4.300000e-01    3.970000e+00
  SP5q  N6ar  1 4.300000e-01    3.770000e+00
  SP4q  N6ar  1 4.300000e-01    3.770000e+00
  SP3q  N6ar  1 4.300000e-01    3.770000e+00
  SP2q  N6ar  1 4.300000e-01    3.970000e+00
  SP1q  N6ar  1 4.300000e-01    3.970000e+00
  SN6q  N6ar  1 4.300000e-01    3.970000e+00
 SN6ar   N5q  1 4.300000e-01    3.970000e+00
 SN6ar   N4q  1 4.300000e-01    3.970000e+00
 SN6ar   N3q  1 4.300000e-01    3.590000e+00
 SN6ar   N2q  1 4.300000e-01    3.380000e+00
 SN6ar   N1q  1 4.300000e-01    3.380000e+00
 SN6ar   C6q  1 4.300000e-01    3.380000e+00
 SN6ar   C5q  1 4.300000e-01    3.160000e+00
 SN6ar   C4q  1 4.300000e-01    2.920000e+00
 SN6ar   C3q  1 4.300000e-01    2.770000e+00
 SN6ar   C2q  1 4.300000e-01    2.770000e+00
 SN6ar   C1q  1 4.300000e-01    2.530000e+00
 SN6ar   X4q  1 4.300000e-01    3.380000e+00
 SN6ar   X3q  1 4.300000e-01    3.160000e+00
 SN6ar   X2q  1 4.300000e-01    2.920000e+00
 SN6ar   X1q  1 4.300000e-01    2.770000e+00
  SP6q  N5ar  1 4.300000e-01    3.590000e+00
  SP5q  N5ar  1 4.300000e-01    3.590000e+00
  SP4q  N5ar  1 4.300000e-01    3.590000e+00
  SP3q  N5ar  1 4.300000e-01    3.590000e+00
  SP2q  N5ar  1 4.300000e-01    3.770000e+00
  SP1q  N5ar  1 4.300000e-01    3.770000e+00
  SN6q  N5ar  1 4.300000e-01    3.970000e+00
  SN5q  N5ar  1 4.300000e-01    3.770000e+00
 SN5ar   N4q  1 4.300000e-01    3.770000e+00
 SN5ar   N3q  1 4.300000e-01    3.590000e+00
 SN5ar   N2q  1 4.300000e-01    3.590000e+00
 SN5ar   N1q  1 4.300000e-01    3.380000e+00
 SN5ar   C6q  1 4.300000e-01    3.380000e+00
 SN5ar   C5q  1 4.300000e-01    3.160000e+00
 SN5ar   C4q  1 4.300000e-01    2.920000e+00
 SN5ar   C3q  1 4.300000e-01    2.920000e+00
 SN5ar   C2q  1 4.300000e-01    2.770000e+00
 SN5ar   C1q  1 4.300000e-01    2.530000e+00
 SN5ar   X4q  1 4.300000e-01    3.590000e+00
 SN5ar   X3q  1 4.300000e-01    3.380000e+00
 SN5ar   X2q  1 4.300000e-01    3.160000e+00
 SN5ar   X1q  1 4.300000e-01    2.920000e+00
  SP6q  N4ar  1 4.300000e-01    3.380000e+00
  SP5q  N4ar  1 4.300000e-01    3.590000e+00
  SP4q  N4ar  1 4.300000e-01    3.590000e+00
  SP3q  N4ar  1 4.300000e-01    3.590000e+00
  SP2q  N4ar  1 4.300000e-01    3.590000e+00
  SP1q  N4ar  1 4.300000e-01    3.770000e+00
  SN6q  N4ar  1 4.300000e-01    3.970000e+00
  SN5q  N4ar  1 4.300000e-01    3.770000e+00
  SN4q  N4ar  1 4.300000e-01    3.770000e+00
 SN4ar   N3q  1 4.300000e-01    3.590000e+00
 SN4ar   N2q  1 4.300000e-01    3.590000e+00
 SN4ar   N1q  1 4.300000e-01    3.380000e+00
 SN4ar   C6q  1 4.300000e-01    3.380000e+00
 SN4ar   C5q  1 4.300000e-01    3.160000e+00
 SN4ar   C4q  1 4.300000e-01    3.160000e+00
 SN4ar   C3q  1 4.300000e-01    2.920000e+00
 SN4ar   C2q  1 4.300000e-01    2.770000e+00
 SN4ar   C1q  1 4.300000e-01    2.530000e+00
 SN4ar   X4q  1 4.300000e-01    3.770000e+00
 SN4ar   X3q  1 4.300000e-01    3.590000e+00
 SN4ar   X2q  1 4.300000e-01    3.160000e+00
 SN4ar   X1q  1 4.300000e-01    2.920000e+00
  SP6q  N3ar  1 4.300000e-01    3.160000e+00
  SP5q  N3ar  1 4.300000e-01    3.160000e+00
  SP4q  N3ar  1 4.300000e-01    3.380000e+00
  SP3q  N3ar  1 4.300000e-01    3.380000e+00
  SP2q  N3ar  1 4.300000e-01    3.380000e+00
  SP1q  N3ar  1 4.300000e-01    3.380000e+00
  SN6q  N3ar  1 4.300000e-01    3.590000e+00
  SN5q  N3ar  1 4.300000e-01    3.590000e+00
  SN4q  N3ar  1 4.300000e-01    3.590000e+00
  SN3q  N3ar  1 4.300000e-01    3.590000e+00
 SN3ar   N2q  1 4.300000e-01    3.590000e+00
 SN3ar   N1q  1 4.300000e-01    3.380000e+00
 SN3ar   C6q  1 4.300000e-01    3.380000e+00
 SN3ar   C5q  1 4.300000e-01    3.160000e+00
 SN3ar   C4q  1 4.300000e-01    3.160000e+00
 SN3ar   C3q  1 4.300000e-01    2.920000e+00
 SN3ar   C2q  1 4.300000e-01    2.920000e+00
 SN3ar   C1q  1 4.300000e-01    2.770000e+00
 SN3ar   X4q  1 4.300000e-01    3.590000e+00
 SN3ar   X3q  1 4.300000e-01    3.380000e+00
 SN3ar   X2q  1 4.300000e-01    3.160000e+00
 SN3ar   X1q  1 4.300000e-01    3.160000e+00
  SP6q  N2ar  1 4.300000e-01    2.920000e+00
  SP5q  N2ar  1 4.300000e-01    2.920000e+00
  SP4q  N2ar  1 4.300000e-01    3.160000e+00
  SP3q  N2ar  1 4.300000e-01    3.380000e+00
  SP2q  N2ar  1 4.300000e-01    3.380000e+00
  SP1q  N2ar  1 4.300000e-01    3.380000e+00
  SN6q  N2ar  1 4.300000e-01    3.380000e+00
  SN5q  N2ar  1 4.300000e-01    3.590000e+00
  SN4q  N2ar  1 4.300000e-01    3.590000e+00
  SN3q  N2ar  1 4.300000e-01    3.590000e+00
  SN2q  N2ar  1 4.300000e-01    3.590000e+00
 SN2ar   N1q  1 4.300000e-01    3.380000e+00
 SN2ar   C6q  1 4.300000e-01    3.380000e+00
 SN2ar   C5q  1 4.300000e-01    3.160000e+00
 SN2ar   C4q  1 4.300000e-01    3.160000e+00
 SN2ar   C3q  1 4.300000e-01    3.160000e+00
 SN2ar   C2q  1 4.300000e-01    2.920000e+00
 SN2ar   C1q  1 4.300000e-01    2.770000e+00
 SN2ar   X4q  1 4.300000e-01    3.590000e+00
 SN2ar   X3q  1 4.300000e-01    3.380000e+00
 SN2ar   X2q  1 4.300000e-01    3.160000e+00
 SN2ar   X1q  1 4.300000e-01    3.160000e+00
  SP6q  N1ar  1 4.300000e-01    2.770000e+00
  SP5q  N1ar  1 4.300000e-01    2.770000e+00
  SP4q  N1ar  1 4.300000e-01    2.920000e+00
  SP3q  N1ar  1 4.300000e-01    3.160000e+00
  SP2q  N1ar  1 4.300000e-01    3.380000e+00
  SP1q  N1ar  1 4.300000e-01    3.380000e+00
  SN6q  N1ar  1 4.300000e-01    3.380000e+00
  SN5q  N1ar  1 4.300000e-01    3.380000e+00
  SN4q  N1ar  1 4.300000e-01    3.380000e+00
  SN3q  N1ar  1 4.300000e-01    3.380000e+00
  SN2q  N1ar  1 4.300000e-01    3.380000e+00
  SN1q  N1ar  1 4.300000e-01    3.590000e+00
 SN1ar   C6q  1 4.300000e-01    3.590000e+00
 SN1ar   C5q  1 4.300000e-01    3.380000e+00
 SN1ar   C4q  1 4.300000e-01    3.380000e+00
 SN1ar   C3q  1 4.300000e-01    3.160000e+00
 SN1ar   C2q  1 4.300000e-01    2.920000e+00
 SN1ar   C1q  1 4.300000e-01    2.770000e+00
 SN1ar   X4q  1 4.300000e-01    3.380000e+00
 SN1ar   X3q  1 4.300000e-01    3.380000e+00
 SN1ar   X2q  1 4.300000e-01    3.160000e+00
 SN1ar   X1q  1 4.300000e-01    3.160000e+00
  SC6v  C6vr  1 4.300000e-01    2.920000e+00
 SC6vr   C5v  1 4.300000e-01    2.770000e+00
 SC6vr   C4v  1 4.300000e-01    2.770000e+00
 SC6vr   C3v  1 4.300000e-01    2.530000e+00
 SC6vr   C2v  1 4.300000e-01    2.320000e+00
 SC6vr   C1v  1 4.300000e-01    2.160000e+00
 SC6vr   X4v  1 4.300000e-01    2.770000e+00
 SC6vr   X3v  1 4.300000e-01    2.770000e+00
 SC6vr   X2v  1 4.300000e-01    2.770000e+00
 SC6vr   X1v  1 4.300000e-01    2.770000e+00
  SP6q  C6vr  1 4.300000e-01    2.920000e+00
  SP5q  C6vr  1 4.300000e-01    2.920000e+00
  SP4q  C6vr  1 4.300000e-01    3.160000e+00
  SP3q  C6vr  1 4.300000e-01    3.380000e+00
  SP2q  C6vr  1 4.300000e-01    3.380000e+00
  SP1q  C6vr  1 4.300000e-01    3.380000e+00
  SN6q  C6vr  1 4.300000e-01    3.590000e+00
  SN5q  C6vr  1 4.300000e-01    3.590000e+00
  SN4q  C6vr  1 4.300000e-01    3.590000e+00
  SN3q  C6vr  1 4.300000e-01    3.590000e+00
  SN2q  C6vr  1 4.300000e-01    3.590000e+00
  SN1q  C6vr  1 4.300000e-01    3.770000e+00
  SC6q  C6vr  1 4.300000e-01    3.770000e+00
 SC6vr   C5q  1 4.300000e-01    3.590000e+00
 SC6vr   C4q  1 4.300000e-01    3.590000e+00
 SC6vr   C3q  1 4.300000e-01    3.380000e+00
 SC6vr   C2q  1 4.300000e-01    3.160000e+00
 SC6vr   C1q  1 4.300000e-01    2.920000e+00
 SC6vr   X4q  1 4.300000e-01    3.590000e+00
 SC6vr   X3q  1 4.300000e-01    3.590000e+00
 SC6vr   X2q  1 4.300000e-01    3.590000e+00
 SC6vr   X1q  1 4.300000e-01    3.590000e+00
 SC6vr  C6vq  1 4.300000e-01    3.380000e+00
 SC6vr  X1vq  1 4.300000e-01    3.160000e+00
 SC6vr  X2vq  1 4.300000e-01    3.160000e+00
 SC6vr  X3vq  1 4.300000e-01    3.160000e+00
 SC6vr  X4vq  1 4.300000e-01    3.160000e+00
 SC6vr  C1vq  1 4.300000e-01    2.530000e+00
 SC6vr  C2vq  1 4.300000e-01    2.770000e+00
 SC6vr  C3vq  1 4.300000e-01    2.920000e+00
 SC6vr  C4vq  1 4.300000e-01    3.160000e+00
 SC6vr  C5vq  1 4.300000e-01    3.160000e+00
  SC5v  C5vr  1 4.300000e-01    2.770000e+00
 SC5vr   C4v  1 4.300000e-01    2.770000e+00
 SC5vr   C3v  1 4.300000e-01    2.530000e+00
 SC5vr   C2v  1 4.300000e-01    2.320000e+00
 SC5vr   C1v  1 4.300000e-01    2.320000e+00
 SC5vr   X4v  1 4.300000e-01    2.530000e+00
 SC5vr   X3v  1 4.300000e-01    2.530000e+00
 SC5vr   X2v  1 4.300000e-01    2.530000e+00
 SC5vr   X1v  1 4.300000e-01    2.770000e+00
  SP6q  C5vr  1 4.300000e-01    2.770000e+00
  SP5q  C5vr  1 4.300000e-01    2.920000e+00
  SP4q  C5vr  1 4.300000e-01    2.920000e+00
  SP3q  C5vr  1 4.300000e-01    3.160000e+00
  SP2q  C5vr  1 4.300000e-01    3.160000e+00
  SP1q  C5vr  1 4.300000e-01    3.160000e+00
  SN6q  C5vr  1 4.300000e-01    3.380000e+00
  SN5q  C5vr  1 4.300000e-01    3.380000e+00
  SN4q  C5vr  1 4.300000e-01    3.380000e+00
  SN3q  C5vr  1 4.300000e-01    3.380000e+00
  SN2q  C5vr  1 4.300000e-01    3.380000e+00
  SN1q  C5vr  1 4.300000e-01    3.590000e+00
  SC6q  C5vr  1 4.300000e-01    3.590000e+00
  SC5q  C5vr  1 4.300000e-01    3.590000e+00
 SC5vr   C4q  1 4.300000e-01    3.590000e+00
 SC5vr   C3q  1 4.300000e-01    3.380000e+00
 SC5vr   C2q  1 4.300000e-01    3.160000e+00
 SC5vr   C1q  1 4.300000e-01    3.160000e+00
 SC5vr   X4q  1 4.300000e-01    3.380000e+00
 SC5vr   X3q  1 4.300000e-01    3.380000e+00
 SC5vr   X2q  1 4.300000e-01    3.380000e+00
 SC5vr   X1q  1 4.300000e-01    3.590000e+00
 SC6vq  C5vr  1 4.300000e-01    3.160000e+00
 SC5vr  C5vq  1 4.300000e-01    3.160000e+00
 SC5vr  X1vq  1 4.300000e-01    3.160000e+00
 SC5vr  X2vq  1 4.300000e-01    2.920000e+00
 SC5vr  X3vq  1 4.300000e-01    2.920000e+00
 SC5vr  X4vq  1 4.300000e-01    2.920000e+00
 SC5vr  C1vq  1 4.300000e-01    2.770000e+00
 SC5vr  C2vq  1 4.300000e-01    2.770000e+00
 SC5vr  C3vq  1 4.300000e-01    2.920000e+00
 SC5vr  C4vq  1 4.300000e-01    3.160000e+00
  SC4v  C4vr  1 4.300000e-01    2.770000e+00
 SC4vr   C3v  1 4.300000e-01    2.770000e+00
 SC4vr   C2v  1 4.300000e-01    2.530000e+00
 SC4vr   C1v  1 4.300000e-01    2.320000e+00
 SC4vr   X4v  1 4.300000e-01    2.530000e+00
 SC4vr   X3v  1 4.300000e-01    2.530000e+00
 SC4vr   X2v  1 4.300000e-01    2.530000e+00
 SC4vr   X1v  1 4.300000e-01    2.770000e+00
  SP6q  C4vr  1 4.300000e-01    2.530000e+00
  SP5q  C4vr  1 4.300000e-01    2.770000e+00
  SP4q  C4vr  1 4.300000e-01    2.770000e+00
  SP3q  C4vr  1 4.300000e-01    2.920000e+00
  SP2q  C4vr  1 4.300000e-01    2.920000e+00
  SP1q  C4vr  1 4.300000e-01    2.920000e+00
  SN6q  C4vr  1 4.300000e-01    3.160000e+00
  SN5q  C4vr  1 4.300000e-01    3.160000e+00
  SN4q  C4vr  1 4.300000e-01    3.380000e+00
  SN3q  C4vr  1 4.300000e-01    3.380000e+00
  SN2q  C4vr  1 4.300000e-01    3.380000e+00
  SN1q  C4vr  1 4.300000e-01    3.590000e+00
  SC6q  C4vr  1 4.300000e-01    3.590000e+00
  SC5q  C4vr  1 4.300000e-01    3.590000e+00
  SC4q  C4vr  1 4.300000e-01    3.590000e+00
 SC4vr   C3q  1 4.300000e-01    3.590000e+00
 SC4vr   C2q  1 4.300000e-01    3.380000e+00
 SC4vr   C1q  1 4.300000e-01    3.160000e+00
 SC4vr   X4q  1 4.300000e-01    3.380000e+00
 SC4vr   X3q  1 4.300000e-01    3.380000e+00
 SC4vr   X2q  1 4.300000e-01    3.380000e+00
 SC4vr   X1q  1 4.300000e-01    3.590000e+00
 SC6vq  C4vr  1 4.300000e-01    3.160000e+00
 SC5vq  C4vr  1 4.300000e-01    3.160000e+00
 SC4vr  C4vq  1 4.300000e-01    3.160000e+00
 SC4vr  X1vq  1 4.300000e-01    3.160000e+00
 SC4vr  X2vq  1 4.300000e-01    2.920000e+00
 SC4vr  X3vq  1 4.300000e-01    2.920000e+00
 SC4vr  X4vq  1 4.300000e-01    2.920000e+00
 SC4vr  C1vq  1 4.300000e-01    2.770000e+00
 SC4vr  C2vq  1 4.300000e-01    2.920000e+00
 SC4vr  C3vq  1 4.300000e-01    3.160000e+00
  SC3v  C3vr  1 4.300000e-01    2.770000e+00
 SC3vr   C2v  1 4.300000e-01    2.770000e+00
 SC3vr   C1v  1 4.300000e-01    2.770000e+00
 SC3vr   X4v  1 4.300000e-01    2.530000e+00
 SC3vr   X3v  1 4.300000e-01    2.530000e+00
 SC3vr   X2v  1 4.300000e-01    2.530000e+00
 SC3vr   X1v  1 4.300000e-01    2.770000e+00
  SP6q  C3vr  1 4.300000e-01    2.320000e+00
  SP5q  C3vr  1 4.300000e-01    2.530000e+00
  SP4q  C3vr  1 4.300000e-01    2.530000e+00
  SP3q  C3vr  1 4.300000e-01    2.530000e+00
  SP2q  C3vr  1 4.300000e-01    2.770000e+00
  SP1q  C3vr  1 4.300000e-01    2.770000e+00
  SN6q  C3vr  1 4.300000e-01    2.920000e+00
  SN5q  C3vr  1 4.300000e-01    3.160000e+00
  SN4q  C3vr  1 4.300000e-01    3.160000e+00
  SN3q  C3vr  1 4.300000e-01    3.160000e+00
  SN2q  C3vr  1 4.300000e-01    3.380000e+00
  SN1q  C3vr  1 4.300000e-01    3.380000e+00
  SC6q  C3vr  1 4.300000e-01    3.380000e+00
  SC5q  C3vr  1 4.300000e-01    3.380000e+00
  SC4q  C3vr  1 4.300000e-01    3.590000e+00
  SC3q  C3vr  1 4.300000e-01    3.590000e+00
 SC3vr   C2q  1 4.300000e-01    3.590000e+00
 SC3vr   C1q  1 4.300000e-01    3.590000e+00
 SC3vr   X4q  1 4.300000e-01    3.380000e+00
 SC3vr   X3q  1 4.300000e-01    3.380000e+00
 SC3vr   X2q  1 4.300000e-01    3.380000e+00
 SC3vr   X1q  1 4.300000e-01    3.590000e+00
 SC6vq  C3vr  1 4.300000e-01    2.920000e+00
 SC5vq  C3vr  1 4.300000e-01    2.920000e+00
 SC4vq  C3vr  1 4.300000e-01    3.160000e+00
 SC3vr  C3vq  1 4.300000e-01    3.160000e+00
 SC3vr  X1vq  1 4.300000e-01    3.160000e+00
 SC3vr  X2vq  1 4.300000e-01    2.920000e+00
 SC3vr  X3vq  1 4.300000e-01    2.920000e+00
 SC3vr  X4vq  1 4.300000e-01    2.920000e+00
 SC3vr  C1vq  1 4.300000e-01    3.160000e+00
 SC3vr  C2vq  1 4.300000e-01    3.160000e+00
  SC2v  C2vr  1 4.300000e-01    2.770000e+00
 SC2vr   C1v  1 4.300000e-01    2.920000e+00
 SC2vr   X4v  1 4.300000e-01    2.160000e+00
 SC2vr   X3v  1 4.300000e-01    2.530000e+00
 SC2vr   X2v  1 4.300000e-01    2.530000e+00
 SC2vr   X1v  1 4.300000e-01    2.530000e+00
  SP6q  C2vr  1 4.300000e-01    2.320000e+00
  SP5q  C2vr  1 4.300000e-01    2.530000e+00
  SP4q  C2vr  1 4.300000e-01    2.530000e+00
  SP3q  C2vr  1 4.300000e-01    2.530000e+00
  SP2q  C2vr  1 4.300000e-01    2.770000e+00
  SP1q  C2vr  1 4.300000e-01    2.770000e+00
  SN6q  C2vr  1 4.300000e-01    2.920000e+00
  SN5q  C2vr  1 4.300000e-01    2.920000e+00
  SN4q  C2vr  1 4.300000e-01    2.920000e+00
  SN3q  C2vr  1 4.300000e-01    3.160000e+00
  SN2q  C2vr  1 4.300000e-01    3.160000e+00
  SN1q  C2vr  1 4.300000e-01    3.160000e+00
  SC6q  C2vr  1 4.300000e-01    3.160000e+00
  SC5q  C2vr  1 4.300000e-01    3.160000e+00
  SC4q  C2vr  1 4.300000e-01    3.380000e+00
  SC3q  C2vr  1 4.300000e-01    3.590000e+00
  SC2q  C2vr  1 4.300000e-01    3.590000e+00
 SC2vr   C1q  1 4.300000e-01    3.770000e+00
 SC2vr   X4q  1 4.300000e-01    2.920000e+00
 SC2vr   X3q  1 4.300000e-01    3.380000e+00
 SC2vr   X2q  1 4.300000e-01    3.380000e+00
 SC2vr   X1q  1 4.300000e-01    3.380000e+00
 SC6vq  C2vr  1 4.300000e-01    2.770000e+00
 SC5vq  C2vr  1 4.300000e-01    2.770000e+00
 SC4vq  C2vr  1 4.300000e-01    2.920000e+00
 SC3vq  C2vr  1 4.300000e-01    3.160000e+00
 SC2vr  C2vq  1 4.300000e-01    3.160000e+00
 SC2vr  X1vq  1 4.300000e-01    2.920000e+00
 SC2vr  X2vq  1 4.300000e-01    2.920000e+00
 SC2vr  X3vq  1 4.300000e-01    2.920000e+00
 SC2vr  X4vq  1 4.300000e-01    2.530000e+00
 SC2vr  C1vq  1 4.300000e-01    3.380000e+00
  SC1v  C1vr  1 4.300000e-01    2.770000e+00
 SC1vr   X4v  1 4.300000e-01    2.160000e+00
 SC1vr   X3v  1 4.300000e-01    2.530000e+00
 SC1vr   X2v  1 4.300000e-01    2.530000e+00
 SC1vr   X1v  1 4.300000e-01    2.530000e+00
  SP6q  C1vr  1 4.300000e-01    1.930000e+00
  SP5q  C1vr  1 4.300000e-01    2.320000e+00
  SP4q  C1vr  1 4.300000e-01    2.320000e+00
  SP3q  C1vr  1 4.300000e-01    2.320000e+00
  SP2q  C1vr  1 4.300000e-01    2.530000e+00
  SP1q  C1vr  1 4.300000e-01    2.530000e+00
  SN6q  C1vr  1 4.300000e-01    2.770000e+00
  SN5q  C1vr  1 4.300000e-01    2.770000e+00
  SN4q  C1vr  1 4.300000e-01    2.770000e+00
  SN3q  C1vr  1 4.300000e-01    2.920000e+00
  SN2q  C1vr  1 4.300000e-01    2.920000e+00
  SN1q  C1vr  1 4.300000e-01    2.920000e+00
  SC6q  C1vr  1 4.300000e-01    2.920000e+00
  SC5q  C1vr  1 4.300000e-01    3.160000e+00
  SC4q  C1vr  1 4.300000e-01    3.160000e+00
  SC3q  C1vr  1 4.300000e-01    3.590000e+00
  SC2q  C1vr  1 4.300000e-01    3.770000e+00
  SC1q  C1vr  1 4.300000e-01    3.590000e+00
 SC1vr   X4q  1 4.300000e-01    2.920000e+00
 SC1vr   X3q  1 4.300000e-01    3.380000e+00
 SC1vr   X2q  1 4.300000e-01    3.380000e+00
 SC1vr   X1q  1 4.300000e-01    3.380000e+00
 SC6vq  C1vr  1 4.300000e-01    2.530000e+00
 SC5vq  C1vr  1 4.300000e-01    2.770000e+00
 SC4vq  C1vr  1 4.300000e-01    2.770000e+00
 SC3vq  C1vr  1 4.300000e-01    3.160000e+00
 SC2vq  C1vr  1 4.300000e-01    3.380000e+00
 SC1vr  C1vq  1 4.300000e-01    3.160000e+00
 SC1vr  X1vq  1 4.300000e-01    2.920000e+00
 SC1vr  X2vq  1 4.300000e-01    2.920000e+00
 SC1vr  X3vq  1 4.300000e-01    2.920000e+00
 SC1vr  X4vq  1 4.300000e-01    2.530000e+00
  SX4v  X4vr  1 4.300000e-01    2.770000e+00
 SX4vr   X3v  1 4.300000e-01    2.770000e+00
 SX4vr   X2v  1 4.300000e-01    2.770000e+00
 SX4vr   X1v  1 4.300000e-01    2.770000e+00
  SP6q  X4vr  1 4.300000e-01    3.160000e+00
  SP5q  X4vr  1 4.300000e-01    3.380000e+00
  SP4q  X4vr  1 4.300000e-01    3.380000e+00
  SP3q  X4vr  1 4.300000e-01    3.380000e+00
  SP2q  X4vr  1 4.300000e-01    3.380000e+00
  SP1q  X4vr  1 4.300000e-01    3.380000e+00
  SN6q  X4vr  1 4.300000e-01    3.590000e+00
  SN5q  X4vr  1 4.300000e-01    3.770000e+00
  SN4q  X4vr  1 4.300000e-01    3.970000e+00
  SN3q  X4vr  1 4.300000e-01    3.770000e+00
  SN2q  X4vr  1 4.300000e-01    3.770000e+00
  SN1q  X4vr  1 4.300000e-01    3.590000e+00
  SC6q  X4vr  1 4.300000e-01    3.590000e+00
  SC5q  X4vr  1 4.300000e-01    3.380000e+00
  SC4q  X4vr  1 4.300000e-01    3.380000e+00
  SC3q  X4vr  1 4.300000e-01    3.380000e+00
  SC2q  X4vr  1 4.300000e-01    2.920000e+00
  SC1q  X4vr  1 4.300000e-01    2.920000e+00
  SX4q  X4vr  1 4.300000e-01    3.590000e+00
 SX4vr   X3q  1 4.300000e-01    3.590000e+00
 SX4vr   X2q  1 4.300000e-01    3.590000e+00
 SX4vr   X1q  1 4.300000e-01    3.590000e+00
 SC6vq  X4vr  1 4.300000e-01    3.160000e+00
 SC5vq  X4vr  1 4.300000e-01    2.920000e+00
 SC4vq  X4vr  1 4.300000e-01    2.920000e+00
 SC3vq  X4vr  1 4.300000e-01    2.920000e+00
 SC2vq  X4vr  1 4.300000e-01    2.530000e+00
 SC1vq  X4vr  1 4.300000e-01    2.530000e+00
 SX4vr  X4vq  1 4.300000e-01    3.160000e+00
 SX4vr  X1vq  1 4.300000e-01    3.160000e+00
 SX4vr  X2vq  1 4.300000e-01    3.160000e+00
 SX4vr  X3vq  1 4.300000e-01    3.160000e+00
  SX3v  X3vr  1 4.300000e-01    2.770000e+00
 SX3vr   X2v  1 4.300000e-01    2.920000e+00
 SX3vr   X1v  1 4.300000e-01    2.920000e+00
  SP6q  X3vr  1 4.300000e-01    3.160000e+00
  SP5q  X3vr  1 4.300000e-01    3.160000e+00
  SP4q  X3vr  1 4.300000e-01    3.160000e+00
  SP3q  X3vr  1 4.300000e-01    3.380000e+00
  SP2q  X3vr  1 4.300000e-01    3.380000e+00
  SP1q  X3vr  1 4.300000e-01    3.380000e+00
  SN6q  X3vr  1 4.300000e-01    3.380000e+00
  SN5q  X3vr  1 4.300000e-01    3.590000e+00
  SN4q  X3vr  1 4.300000e-01    3.770000e+00
  SN3q  X3vr  1 4.300000e-01    3.590000e+00
  SN2q  X3vr  1 4.300000e-01    3.590000e+00
  SN1q  X3vr  1 4.300000e-01    3.590000e+00
  SC6q  X3vr  1 4.300000e-01    3.590000e+00
  SC5q  X3vr  1 4.300000e-01    3.380000e+00
  SC4q  X3vr  1 4.300000e-01    3.380000e+00
  SC3q  X3vr  1 4.300000e-01    3.380000e+00
  SC2q  X3vr  1 4.300000e-01    3.380000e+00
  SC1q  X3vr  1 4.300000e-01    3.380000e+00
  SX4q  X3vr  1 4.300000e-01    3.590000e+00
  SX3q  X3vr  1 4.300000e-01    3.590000e+00
 SX3vr   X2q  1 4.300000e-01    3.770000e+00
 SX3vr   X1q  1 4.300000e-01    3.770000e+00
 SC6vq  X3vr  1 4.300000e-01    3.160000e+00
 SC5vq  X3vr  1 4.300000e-01    2.920000e+00
 SC4vq  X3vr  1 4.300000e-01    2.920000e+00
 SC3vq  X3vr  1 4.300000e-01    2.920000e+00
 SC2vq  X3vr  1 4.300000e-01    2.920000e+00
 SC1vq  X3vr  1 4.300000e-01    2.920000e+00
 SX4vq  X3vr  1 4.300000e-01    3.160000e+00
 SX3vr  X3vq  1 4.300000e-01    3.160000e+00
 SX3vr  X1vq  1 4.300000e-01    3.380000e+00
 SX3vr  X2vq  1 4.300000e-01    3.380000e+00
  SX2v  X2vr  1 4.300000e-01    2.920000e+00
 SX2vr   X1v  1 4.300000e-01    2.920000e+00
  SP6q  X2vr  1 4.300000e-01    2.920000e+00
  SP5q  X2vr  1 4.300000e-01    3.160000e+00
  SP4q  X2vr  1 4.300000e-01    3.160000e+00
  SP3q  X2vr  1 4.300000e-01    3.160000e+00
  SP2q  X2vr  1 4.300000e-01    3.160000e+00
  SP1q  X2vr  1 4.300000e-01    3.160000e+00
  SN6q  X2vr  1 4.300000e-01    3.160000e+00
  SN5q  X2vr  1 4.300000e-01    3.380000e+00
  SN4q  X2vr  1 4.300000e-01    3.380000e+00
  SN3q  X2vr  1 4.300000e-01    3.380000e+00
  SN2q  X2vr  1 4.300000e-01    3.380000e+00
  SN1q  X2vr  1 4.300000e-01    3.380000e+00
  SC6q  X2vr  1 4.300000e-01    3.590000e+00
  SC5q  X2vr  1 4.300000e-01    3.380000e+00
  SC4q  X2vr  1 4.300000e-01    3.380000e+00
  SC3q  X2vr  1 4.300000e-01    3.380000e+00
  SC2q  X2vr  1 4.300000e-01    3.380000e+00
  SC1q  X2vr  1 4.300000e-01    3.380000e+00
  SX4q  X2vr  1 4.300000e-01    3.590000e+00
  SX3q  X2vr  1 4.300000e-01    3.770000e+00
  SX2q  X2vr  1 4.300000e-01    3.770000e+00
 SX2vr   X1q  1 4.300000e-01    3.770000e+00
 SC6vq  X2vr  1 4.300000e-01    3.160000e+00
 SC5vq  X2vr  1 4.300000e-01    2.920000e+00
 SC4vq  X2vr  1 4.300000e-01    2.920000e+00
 SC3vq  X2vr  1 4.300000e-01    2.920000e+00
 SC2vq  X2vr  1 4.300000e-01    2.920000e+00
 SC1vq  X2vr  1 4.300000e-01    2.920000e+00
 SX4vq  X2vr  1 4.300000e-01    3.160000e+00
 SX3vq  X2vr  1 4.300000e-01    3.380000e+00
 SX2vr  X2vq  1 4.300000e-01    3.380000e+00
 SX2vr  X1vq  1 4.300000e-01    3.380000e+00
  SX1v  X1vr  1 4.300000e-01    3.160000e+00
  SP6q  X1vr  1 4.300000e-01    2.770000e+00
  SP5q  X1vr  1 4.300000e-01    2.770000e+00
  SP4q  X1vr  1 4.300000e-01    2.920000e+00
  SP3q  X1vr  1 4.300000e-01    2.920000e+00
  SP2q  X1vr  1 4.300000e-01    2.920000e+00
  SP1q  X1vr  1 4.300000e-01    2.920000e+00
  SN6q  X1vr  1 4.300000e-01    2.920000e+00
  SN5q  X1vr  1 4.300000e-01    3.160000e+00
  SN4q  X1vr  1 4.300000e-01    3.160000e+00
  SN3q  X1vr  1 4.300000e-01    3.380000e+00
  SN2q  X1vr  1 4.300000e-01    3.380000e+00
  SN1q  X1vr  1 4.300000e-01    3.380000e+00
  SC6q  X1vr  1 4.300000e-01    3.590000e+00
  SC5q  X1vr  1 4.300000e-01    3.590000e+00
  SC4q  X1vr  1 4.300000e-01    3.590000e+00
  SC3q  X1vr  1 4.300000e-01    3.590000e+00
  SC2q  X1vr  1 4.300000e-01    3.380000e+00
  SC1q  X1vr  1 4.300000e-01    3.380000e+00
  SX4q  X1vr  1 4.300000e-01    3.590000e+00
  SX3q  X1vr  1 4.300000e-01    3.770000e+00
  SX2q  X1vr  1 4.300000e-01    3.770000e+00
  SX1q  X1vr  1 4.300000e-01    3.970000e+00
 SC6vq  X1vr  1 4.300000e-01    3.160000e+00
 SC5vq  X1vr  1 4.300000e-01    3.160000e+00
 SC4vq  X1vr  1 4.300000e-01    3.160000e+00
 SC3vq  X1vr  1 4.300000e-01    3.160000e+00
 SC2vq  X1vr  1 4.300000e-01    2.920000e+00
 SC1vq  X1vr  1 4.300000e-01    2.920000e+00
 SX4vq  X1vr  1 4.300000e-01    3.160000e+00
 SX3vq  X1vr  1 4.300000e-01    3.380000e+00
 SX2vq  X1vr  1 4.300000e-01    3.380000e+00
 SX1vr  X1vq  1 4.300000e-01    3.590000e+00
  SC6e  C6er  1 4.300000e-01    2.920000e+00
 SC6er   C5e  1 4.300000e-01    2.770000e+00
 SC6er   C4e  1 4.300000e-01    2.770000e+00
 SC6er   C3e  1 4.300000e-01    2.530000e+00
 SC6er   C2e  1 4.300000e-01    2.320000e+00
 SC6er   C1e  1 4.300000e-01    2.160000e+00
 SC6er   X4e  1 4.300000e-01    2.770000e+00
 SC6er   X3e  1 4.300000e-01    2.770000e+00
 SC6er   X2e  1 4.300000e-01    2.770000e+00
 SC6er   X1e  1 4.300000e-01    2.770000e+00
  SP6q  C6er  1 4.300000e-01    2.920000e+00
  SP5q  C6er  1 4.300000e-01    2.920000e+00
  SP4q  C6er  1 4.300000e-01    3.160000e+00
  SP3q  C6er  1 4.300000e-01    3.380000e+00
  SP2q  C6er  1 4.300000e-01    3.380000e+00
  SP1q  C6er  1 4.300000e-01    3.380000e+00
  SN6q  C6er  1 4.300000e-01    3.590000e+00
  SN5q  C6er  1 4.300000e-01    3.590000e+00
  SN4q  C6er  1 4.300000e-01    3.590000e+00
  SN3q  C6er  1 4.300000e-01    3.590000e+00
  SN2q  C6er  1 4.300000e-01    3.590000e+00
  SN1q  C6er  1 4.300000e-01    3.770000e+00
  SC6q  C6er  1 4.300000e-01    3.770000e+00
 SC6er   C5q  1 4.300000e-01    3.590000e+00
 SC6er   C4q  1 4.300000e-01    3.590000e+00
 SC6er   C3q  1 4.300000e-01    3.380000e+00
 SC6er   C2q  1 4.300000e-01    3.160000e+00
 SC6er   C1q  1 4.300000e-01    2.920000e+00
 SC6er   X4q  1 4.300000e-01    3.590000e+00
 SC6er   X3q  1 4.300000e-01    3.590000e+00
 SC6er   X2q  1 4.300000e-01    3.590000e+00
 SC6er   X1q  1 4.300000e-01    3.590000e+00
 SC6er  C6eq  1 4.300000e-01    3.380000e+00
 SC6er  X1eq  1 4.300000e-01    3.160000e+00
 SC6er  X2eq  1 4.300000e-01    3.160000e+00
 SC6er  X3eq  1 4.300000e-01    3.160000e+00
 SC6er  X4eq  1 4.300000e-01    3.160000e+00
 SC6er  C1eq  1 4.300000e-01    2.530000e+00
 SC6er  C2eq  1 4.300000e-01    2.770000e+00
 SC6er  C3eq  1 4.300000e-01    2.920000e+00
 SC6er  C4eq  1 4.300000e-01    3.160000e+00
 SC6er  C5eq  1 4.300000e-01    3.160000e+00
  SC5e  C5er  1 4.300000e-01    2.770000e+00
 SC5er   C4e  1 4.300000e-01    2.770000e+00
 SC5er   C3e  1 4.300000e-01    2.530000e+00
 SC5er   C2e  1 4.300000e-01    2.320000e+00
 SC5er   C1e  1 4.300000e-01    2.320000e+00
 SC5er   X4e  1 4.300000e-01    2.530000e+00
 SC5er   X3e  1 4.300000e-01    2.530000e+00
 SC5er   X2e  1 4.300000e-01    2.530000e+00
 SC5er   X1e  1 4.300000e-01    2.770000e+00
  SP6q  C5er  1 4.300000e-01    2.770000e+00
  SP5q  C5er  1 4.300000e-01    2.920000e+00
  SP4q  C5er  1 4.300000e-01    2.920000e+00
  SP3q  C5er  1 4.300000e-01    3.160000e+00
  SP2q  C5er  1 4.300000e-01    3.160000e+00
  SP1q  C5er  1 4.300000e-01    3.160000e+00
  SN6q  C5er  1 4.300000e-01    3.380000e+00
  SN5q  C5er  1 4.300000e-01    3.380000e+00
  SN4q  C5er  1 4.300000e-01    3.380000e+00
  SN3q  C5er  1 4.300000e-01    3.380000e+00
  SN2q  C5er  1 4.300000e-01    3.380000e+00
  SN1q  C5er  1 4.300000e-01    3.590000e+00
  SC6q  C5er  1 4.300000e-01    3.590000e+00
  SC5q  C5er  1 4.300000e-01    3.590000e+00
 SC5er   C4q  1 4.300000e-01    3.590000e+00
 SC5er   C3q  1 4.300000e-01    3.380000e+00
 SC5er   C2q  1 4.300000e-01    3.160000e+00
 SC5er   C1q  1 4.300000e-01    3.160000e+00
 SC5er   X4q  1 4.300000e-01    3.380000e+00
 SC5er   X3q  1 4.300000e-01    3.380000e+00
 SC5er   X2q  1 4.300000e-01    3.380000e+00
 SC5er   X1q  1 4.300000e-01    3.590000e+00
 SC6eq  C5er  1 4.300000e-01    3.160000e+00
 SC5er  C5eq  1 4.300000e-01    3.160000e+00
 SC5er  X1eq  1 4.300000e-01    3.160000e+00
 SC5er  X2eq  1 4.300000e-01    2.920000e+00
 SC5er  X3eq  1 4.300000e-01    2.920000e+00
 SC5er  X4eq  1 4.300000e-01    2.920000e+00
 SC5er  C1eq  1 4.300000e-01    2.770000e+00
 SC5er  C2eq  1 4.300000e-01    2.770000e+00
 SC5er  C3eq  1 4.300000e-01    2.920000e+00
 SC5er  C4eq  1 4.300000e-01    3.160000e+00
  SC4e  C4er  1 4.300000e-01    2.770000e+00
 SC4er   C3e  1 4.300000e-01    2.770000e+00
 SC4er   C2e  1 4.300000e-01    2.530000e+00
 SC4er   C1e  1 4.300000e-01    2.320000e+00
 SC4er   X4e  1 4.300000e-01    2.530000e+00
 SC4er   X3e  1 4.300000e-01    2.530000e+00
 SC4er   X2e  1 4.300000e-01    2.530000e+00
 SC4er   X1e  1 4.300000e-01    2.770000e+00
  SP6q  C4er  1 4.300000e-01    2.530000e+00
  SP5q  C4er  1 4.300000e-01    2.770000e+00
  SP4q  C4er  1 4.300000e-01    2.770000e+00
  SP3q  C4er  1 4.300000e-01    2.920000e+00
  SP2q  C4er  1 4.300000e-01    2.920000e+00
  SP1q  C4er  1 4.300000e-01    2.920000e+00
  SN6q  C4er  1 4.300000e-01    3.160000e+00
  SN5q  C4er  1 4.300000e-01    3.160000e+00
  SN4q  C4er  1 4.300000e-01    3.380000e+00
  SN3q  C4er  1 4.300000e-01    3.380000e+00
  SN2q  C4er  1 4.300000e-01    3.380000e+00
  SN1q  C4er  1 4.300000e-01    3.590000e+00
  SC6q  C4er  1 4.300000e-01    3.590000e+00
  SC5q  C4er  1 4.300000e-01    3.590000e+00
  SC4q  C4er  1 4.300000e-01    3.590000e+00
 SC4er   C3q  1 4.300000e-01    3.590000e+00
 SC4er   C2q  1 4.300000e-01    3.380000e+00
 SC4er   C1q  1 4.300000e-01    3.160000e+00
 SC4er   X4q  1 4.300000e-01    3.380000e+00
 SC4er   X3q  1 4.300000e-01    3.380000e+00
 SC4er   X2q  1 4.300000e-01    3.380000e+00
 SC4er   X1q  1 4.300000e-01    3.590000e+00
 SC6eq  C4er  1 4.300000e-01    3.160000e+00
 SC5eq  C4er  1 4.300000e-01    3.160000e+00
 SC4er  C4eq  1 4.300000e-01    3.160000e+00
 SC4er  X1eq  1 4.300000e-01    3.160000e+00
 SC4er  X2eq  1 4.300000e-01    2.920000e+00
 SC4er  X3eq  1 4.300000e-01    2.920000e+00
 SC4er  X4eq  1 4.300000e-01    2.920000e+00
 SC4er  C1eq  1 4.300000e-01    2.770000e+00
 SC4er  C2eq  1 4.300000e-01    2.920000e+00
 SC4er  C3eq  1 4.300000e-01    3.160000e+00
  SC3e  C3er  1 4.300000e-01    2.770000e+00
 SC3er   C2e  1 4.300000e-01    2.770000e+00
 SC3er   C1e  1 4.300000e-01    2.770000e+00
 SC3er   X4e  1 4.300000e-01    2.530000e+00
 SC3er   X3e  1 4.300000e-01    2.530000e+00
 SC3er   X2e  1 4.300000e-01    2.530000e+00
 SC3er   X1e  1 4.300000e-01    2.770000e+00
  SP6q  C3er  1 4.300000e-01    2.320000e+00
  SP5q  C3er  1 4.300000e-01    2.530000e+00
  SP4q  C3er  1 4.300000e-01    2.530000e+00
  SP3q  C3er  1 4.300000e-01    2.530000e+00
  SP2q  C3er  1 4.300000e-01    2.770000e+00
  SP1q  C3er  1 4.300000e-01    2.770000e+00
  SN6q  C3er  1 4.300000e-01    2.920000e+00
  SN5q  C3er  1 4.300000e-01    3.160000e+00
  SN4q  C3er  1 4.300000e-01    3.160000e+00
  SN3q  C3er  1 4.300000e-01    3.160000e+00
  SN2q  C3er  1 4.300000e-01    3.380000e+00
  SN1q  C3er  1 4.300000e-01    3.380000e+00
  SC6q  C3er  1 4.300000e-01    3.380000e+00
  SC5q  C3er  1 4.300000e-01    3.380000e+00
  SC4q  C3er  1 4.300000e-01    3.590000e+00
  SC3q  C3er  1 4.300000e-01    3.590000e+00
 SC3er   C2q  1 4.300000e-01    3.590000e+00
 SC3er   C1q  1 4.300000e-01    3.590000e+00
 SC3er   X4q  1 4.300000e-01    3.380000e+00
 SC3er   X3q  1 4.300000e-01    3.380000e+00
 SC3er   X2q  1 4.300000e-01    3.380000e+00
 SC3er   X1q  1 4.300000e-01    3.590000e+00
 SC6eq  C3er  1 4.300000e-01    2.920000e+00
 SC5eq  C3er  1 4.300000e-01    2.920000e+00
 SC4eq  C3er  1 4.300000e-01    3.160000e+00
 SC3er  C3eq  1 4.300000e-01    3.160000e+00
 SC3er  X1eq  1 4.300000e-01    3.160000e+00
 SC3er  X2eq  1 4.300000e-01    2.920000e+00
 SC3er  X3eq  1 4.300000e-01    2.920000e+00
 SC3er  X4eq  1 4.300000e-01    2.920000e+00
 SC3er  C1eq  1 4.300000e-01    3.160000e+00
 SC3er  C2eq  1 4.300000e-01    3.160000e+00
  SC2e  C2er  1 4.300000e-01    2.770000e+00
 SC2er   C1e  1 4.300000e-01    2.920000e+00
 SC2er   X4e  1 4.300000e-01    2.160000e+00
 SC2er   X3e  1 4.300000e-01    2.530000e+00
 SC2er   X2e  1 4.300000e-01    2.530000e+00
 SC2er   X1e  1 4.300000e-01    2.530000e+00
  SP6q  C2er  1 4.300000e-01    2.320000e+00
  SP5q  C2er  1 4.300000e-01    2.530000e+00
  SP4q  C2er  1 4.300000e-01    2.530000e+00
  SP3q  C2er  1 4.300000e-01    2.530000e+00
  SP2q  C2er  1 4.300000e-01    2.770000e+00
  SP1q  C2er  1 4.300000e-01    2.770000e+00
  SN6q  C2er  1 4.300000e-01    2.920000e+00
  SN5q  C2er  1 4.300000e-01    2.920000e+00
  SN4q  C2er  1 4.300000e-01    2.920000e+00
  SN3q  C2er  1 4.300000e-01    3.160000e+00
  SN2q  C2er  1 4.300000e-01    3.160000e+00
  SN1q  C2er  1 4.300000e-01    3.160000e+00
  SC6q  C2er  1 4.300000e-01    3.160000e+00
  SC5q  C2er  1 4.300000e-01    3.160000e+00
  SC4q  C2er  1 4.300000e-01    3.380000e+00
  SC3q  C2er  1 4.300000e-01    3.590000e+00
  SC2q  C2er  1 4.300000e-01    3.590000e+00
 SC2er   C1q  1 4.300000e-01    3.770000e+00
 SC2er   X4q  1 4.300000e-01    2.920000e+00
 SC2er   X3q  1 4.300000e-01    3.380000e+00
 SC2er   X2q  1 4.300000e-01    3.380000e+00
 SC2er   X1q  1 4.300000e-01    3.380000e+00
 SC6eq  C2er  1 4.300000e-01    2.770000e+00
 SC5eq  C2er  1 4.300000e-01    2.770000e+00
 SC4eq  C2er  1 4.300000e-01    2.920000e+00
 SC3eq  C2er  1 4.300000e-01    3.160000e+00
 SC2er  C2eq  1 4.300000e-01    3.160000e+00
 SC2er  X1eq  1 4.300000e-01    2.920000e+00
 SC2er  X2eq  1 4.300000e-01    2.920000e+00
 SC2er  X3eq  1 4.300000e-01    2.920000e+00
 SC2er  X4eq  1 4.300000e-01    2.530000e+00
 SC2er  C1eq  1 4.300000e-01    3.380000e+00
  SC1e  C1er  1 4.300000e-01    2.770000e+00
 SC1er   X4e  1 4.300000e-01    2.160000e+00
 SC1er   X3e  1 4.300000e-01    2.530000e+00
 SC1er   X2e  1 4.300000e-01    2.530000e+00
 SC1er   X1e  1 4.300000e-01    2.530000e+00
  SP6q  C1er  1 4.300000e-01    1.930000e+00
  SP5q  C1er  1 4.300000e-01    2.320000e+00
  SP4q  C1er  1 4.300000e-01    2.320000e+00
  SP3q  C1er  1 4.300000e-01    2.320000e+00
  SP2q  C1er  1 4.300000e-01    2.530000e+00
  SP1q  C1er  1 4.300000e-01    2.530000e+00
  SN6q  C1er  1 4.300000e-01    2.770000e+00
  SN5q  C1er  1 4.300000e-01    2.770000e+00
  SN4q  C1er  1 4.300000e-01    2.770000e+00
  SN3q  C1er  1 4.300000e-01    2.920000e+00
  SN2q  C1er  1 4.300000e-01    2.920000e+00
  SN1q  C1er  1 4.300000e-01    2.920000e+00
  SC6q  C1er  1 4.300000e-01    2.920000e+00
  SC5q  C1er  1 4.300000e-01    3.160000e+00
  SC4q  C1er  1 4.300000e-01    3.160000e+00
  SC3q  C1er  1 4.300000e-01    3.590000e+00
  SC2q  C1er  1 4.300000e-01    3.770000e+00
  SC1q  C1er  1 4.300000e-01    3.590000e+00
 SC1er   X4q  1 4.300000e-01    2.920000e+00
 SC1er   X3q  1 4.300000e-01    3.380000e+00
 SC1er   X2q  1 4.300000e-01    3.380000e+00
 SC1er   X1q  1 4.300000e-01    3.380000e+00
 SC6eq  C1er  1 4.300000e-01    2.530000e+00
 SC5eq  C1er  1 4.300000e-01    2.770000e+00
 SC4eq  C1er  1 4.300000e-01    2.770000e+00
 SC3eq  C1er  1 4.300000e-01    3.160000e+00
 SC2eq  C1er  1 4.300000e-01    3.380000e+00
 SC1er  C1eq  1 4.300000e-01    3.160000e+00
 SC1er  X1eq  1 4.300000e-01    2.920000e+00
 SC1er  X2eq  1 4.300000e-01    2.920000e+00
 SC1er  X3eq  1 4.300000e-01    2.920000e+00
 SC1er  X4eq  1 4.300000e-01    2.530000e+00
  SX4e  X4er  1 4.300000e-01    2.770000e+00
 SX4er   X3e  1 4.300000e-01    2.770000e+00
 SX4er   X2e  1 4.300000e-01    2.770000e+00
 SX4er   X1e  1 4.300000e-01    2.770000e+00
  SP6q  X4er  1 4.300000e-01    3.160000e+00
  SP5q  X4er  1 4.300000e-01    3.380000e+00
  SP4q  X4er  1 4.300000e-01    3.380000e+00
  SP3q  X4er  1 4.300000e-01    3.380000e+00
  SP2q  X4er  1 4.300000e-01    3.380000e+00
  SP1q  X4er  1 4.300000e-01    3.380000e+00
  SN6q  X4er  1 4.300000e-01    3.590000e+00
  SN5q  X4er  1 4.300000e-01    3.770000e+00
  SN4q  X4er  1 4.300000e-01    3.970000e+00
  SN3q  X4er  1 4.300000e-01    3.770000e+00
  SN2q  X4er  1 4.300000e-01    3.770000e+00
  SN1q  X4er  1 4.300000e-01    3.590000e+00
  SC6q  X4er  1 4.300000e-01    3.590000e+00
  SC5q  X4er  1 4.300000e-01    3.380000e+00
  SC4q  X4er  1 4.300000e-01    3.380000e+00
  SC3q  X4er  1 4.300000e-01    3.380000e+00
  SC2q  X4er  1 4.300000e-01    2.920000e+00
  SC1q  X4er  1 4.300000e-01    2.920000e+00
  SX4q  X4er  1 4.300000e-01    3.590000e+00
 SX4er   X3q  1 4.300000e-01    3.590000e+00
 SX4er   X2q  1 4.300000e-01    3.590000e+00
 SX4er   X1q  1 4.300000e-01    3.590000e+00
 SC6eq  X4er  1 4.300000e-01    3.160000e+00
 SC5eq  X4er  1 4.300000e-01    2.920000e+00
 SC4eq  X4er  1 4.300000e-01    2.920000e+00
 SC3eq  X4er  1 4.300000e-01    2.920000e+00
 SC2eq  X4er  1 4.300000e-01    2.530000e+00
 SC1eq  X4er  1 4.300000e-01    2.530000e+00
 SX4er  X4eq  1 4.300000e-01    3.160000e+00
 SX4er  X1eq  1 4.300000e-01    3.160000e+00
 SX4er  X2eq  1 4.300000e-01    3.160000e+00
 SX4er  X3eq  1 4.300000e-01    3.160000e+00
  SX3e  X3er  1 4.300000e-01    2.770000e+00
 SX3er   X2e  1 4.300000e-01    2.920000e+00
 SX3er   X1e  1 4.300000e-01    2.920000e+00
  SP6q  X3er  1 4.300000e-01    3.160000e+00
  SP5q  X3er  1 4.300000e-01    3.160000e+00
  SP4q  X3er  1 4.300000e-01    3.160000e+00
  SP3q  X3er  1 4.300000e-01    3.380000e+00
  SP2q  X3er  1 4.300000e-01    3.380000e+00
  SP1q  X3er  1 4.300000e-01    3.380000e+00
  SN6q  X3er  1 4.300000e-01    3.380000e+00
  SN5q  X3er  1 4.300000e-01    3.590000e+00
  SN4q  X3er  1 4.300000e-01    3.770000e+00
  SN3q  X3er  1 4.300000e-01    3.590000e+00
  SN2q  X3er  1 4.300000e-01    3.590000e+00
  SN1q  X3er  1 4.300000e-01    3.590000e+00
  SC6q  X3er  1 4.300000e-01    3.590000e+00
  SC5q  X3er  1 4.300000e-01    3.380000e+00
  SC4q  X3er  1 4.300000e-01    3.380000e+00
  SC3q  X3er  1 4.300000e-01    3.380000e+00
  SC2q  X3er  1 4.300000e-01    3.380000e+00
  SC1q  X3er  1 4.300000e-01    3.380000e+00
  SX4q  X3er  1 4.300000e-01    3.590000e+00
  SX3q  X3er  1 4.300000e-01    3.590000e+00
 SX3er   X2q  1 4.300000e-01    3.770000e+00
 SX3er   X1q  1 4.300000e-01    3.770000e+00
 SC6eq  X3er  1 4.300000e-01    3.160000e+00
 SC5eq  X3er  1 4.300000e-01    2.920000e+00
 SC4eq  X3er  1 4.300000e-01    2.920000e+00
 SC3eq  X3er  1 4.300000e-01    2.920000e+00
 SC2eq  X3er  1 4.300000e-01    2.920000e+00
 SC1eq  X3er  1 4.300000e-01    2.920000e+00
 SX4eq  X3er  1 4.300000e-01    3.160000e+00
 SX3er  X3eq  1 4.300000e-01    3.160000e+00
 SX3er  X1eq  1 4.300000e-01    3.380000e+00
 SX3er  X2eq  1 4.300000e-01    3.380000e+00
  SX2e  X2er  1 4.300000e-01    2.920000e+00
 SX2er   X1e  1 4.300000e-01    2.920000e+00
  SP6q  X2er  1 4.300000e-01    2.920000e+00
  SP5q  X2er  1 4.300000e-01    3.160000e+00
  SP4q  X2er  1 4.300000e-01    3.160000e+00
  SP3q  X2er  1 4.300000e-01    3.160000e+00
  SP2q  X2er  1 4.300000e-01    3.160000e+00
  SP1q  X2er  1 4.300000e-01    3.160000e+00
  SN6q  X2er  1 4.300000e-01    3.160000e+00
  SN5q  X2er  1 4.300000e-01    3.380000e+00
  SN4q  X2er  1 4.300000e-01    3.380000e+00
  SN3q  X2er  1 4.300000e-01    3.380000e+00
  SN2q  X2er  1 4.300000e-01    3.380000e+00
  SN1q  X2er  1 4.300000e-01    3.380000e+00
  SC6q  X2er  1 4.300000e-01    3.590000e+00
  SC5q  X2er  1 4.300000e-01    3.380000e+00
  SC4q  X2er  1 4.300000e-01    3.380000e+00
  SC3q  X2er  1 4.300000e-01    3.380000e+00
  SC2q  X2er  1 4.300000e-01    3.380000e+00
  SC1q  X2er  1 4.300000e-01    3.380000e+00
  SX4q  X2er  1 4.300000e-01    3.590000e+00
  SX3q  X2er  1 4.300000e-01    3.770000e+00
  SX2q  X2er  1 4.300000e-01    3.770000e+00
 SX2er   X1q  1 4.300000e-01    3.770000e+00
 SC6eq  X2er  1 4.300000e-01    3.160000e+00
 SC5eq  X2er  1 4.300000e-01    2.920000e+00
 SC4eq  X2er  1 4.300000e-01    2.920000e+00
 SC3eq  X2er  1 4.300000e-01    2.920000e+00
 SC2eq  X2er  1 4.300000e-01    2.920000e+00
 SC1eq  X2er  1 4.300000e-01    2.920000e+00
 SX4eq  X2er  1 4.300000e-01    3.160000e+00
 SX3eq  X2er  1 4.300000e-01    3.380000e+00
 SX2er  X2eq  1 4.300000e-01    3.380000e+00
 SX2er  X1eq  1 4.300000e-01    3.380000e+00
  SX1e  X1er  1 4.300000e-01    3.160000e+00
  SP6q  X1er  1 4.300000e-01    2.770000e+00
  SP5q  X1er  1 4.300000e-01    2.770000e+00
  SP4q  X1er  1 4.300000e-01    2.920000e+00
  SP3q  X1er  1 4.300000e-01    2.920000e+00
  SP2q  X1er  1 4.300000e-01    2.920000e+00
  SP1q  X1er  1 4.300000e-01    2.920000e+00
  SN6q  X1er  1 4.300000e-01    2.920000e+00
  SN5q  X1er  1 4.300000e-01    3.160000e+00
  SN4q  X1er  1 4.300000e-01    3.160000e+00
  SN3q  X1er  1 4.300000e-01    3.380000e+00
  SN2q  X1er  1 4.300000e-01    3.380000e+00
  SN1q  X1er  1 4.300000e-01    3.380000e+00
  SC6q  X1er  1 4.300000e-01    3.590000e+00
  SC5q  X1er  1 4.300000e-01    3.590000e+00
  SC4q  X1er  1 4.300000e-01    3.590000e+00
  SC3q  X1er  1 4.300000e-01    3.590000e+00
  SC2q  X1er  1 4.300000e-01    3.380000e+00
  SC1q  X1er  1 4.300000e-01    3.380000e+00
  SX4q  X1er  1 4.300000e-01    3.590000e+00
  SX3q  X1er  1 4.300000e-01    3.770000e+00
  SX2q  X1er  1 4.300000e-01    3.770000e+00
  SX1q  X1er  1 4.300000e-01    3.970000e+00
 SC6eq  X1er  1 4.300000e-01    3.160000e+00
 SC5eq  X1er  1 4.300000e-01    3.160000e+00
 SC4eq  X1er  1 4.300000e-01    3.160000e+00
 SC3eq  X1er  1 4.300000e-01    3.160000e+00
 SC2eq  X1er  1 4.300000e-01    2.920000e+00
 SC1eq  X1er  1 4.300000e-01    2.920000e+00
 SX4eq  X1er  1 4.300000e-01    3.160000e+00
 SX3eq  X1er  1 4.300000e-01    3.380000e+00
 SX2eq  X1er  1 4.300000e-01    3.380000e+00
 SX1er  X1eq  1 4.300000e-01    3.590000e+00
  SC6e  X1er  1 4.300000e-01    2.770000e+00
  SC5e  X1er  1 4.300000e-01    2.770000e+00
  SC4e  X1er  1 4.300000e-01    2.770000e+00
  SC3e  X1er  1 4.300000e-01    2.770000e+00
  SC2e  X1er  1 4.300000e-01    2.530000e+00
  SC1e  X1er  1 4.300000e-01    2.530000e+00
  SX4e  X1er  1 4.300000e-01    2.770000e+00
  SX3e  X1er  1 4.300000e-01    2.920000e+00
  SX2e  X1er  1 4.300000e-01    2.920000e+00
  SC6e  X2er  1 4.300000e-01    2.770000e+00
  SC5e  X2er  1 4.300000e-01    2.530000e+00
  SC4e  X2er  1 4.300000e-01    2.530000e+00
  SC3e  X2er  1 4.300000e-01    2.530000e+00
  SC2e  X2er  1 4.300000e-01    2.530000e+00
  SC1e  X2er  1 4.300000e-01    2.530000e+00
  SX4e  X2er  1 4.300000e-01    2.770000e+00
  SX3e  X2er  1 4.300000e-01    2.920000e+00
  SC6e  X3er  1 4.300000e-01    2.770000e+00
  SC5e  X3er  1 4.300000e-01    2.530000e+00
  SC4e  X3er  1 4.300000e-01    2.530000e+00
  SC3e  X3er  1 4.300000e-01    2.530000e+00
  SC2e  X3er  1 4.300000e-01    2.530000e+00
  SC1e  X3er  1 4.300000e-01    2.530000e+00
  SX4e  X3er  1 4.300000e-01    2.770000e+00
  SC6e  X4er  1 4.300000e-01    2.770000e+00
  SC5e  X4er  1 4.300000e-01    2.530000e+00
  SC4e  X4er  1 4.300000e-01    2.530000e+00
  SC3e  X4er  1 4.300000e-01    2.530000e+00
  SC2e  X4er  1 4.300000e-01    2.160000e+00
  SC1e  X4er  1 4.300000e-01    2.160000e+00
  SC6e  C1er  1 4.300000e-01    2.160000e+00
  SC5e  C1er  1 4.300000e-01    2.320000e+00
  SC4e  C1er  1 4.300000e-01    2.320000e+00
  SC3e  C1er  1 4.300000e-01    2.770000e+00
  SC2e  C1er  1 4.300000e-01    2.920000e+00
  SC6e  C2er  1 4.300000e-01    2.320000e+00
  SC5e  C2er  1 4.300000e-01    2.320000e+00
  SC4e  C2er  1 4.300000e-01    2.530000e+00
  SC3e  C2er  1 4.300000e-01    2.770000e+00
  SC6e  C3er  1 4.300000e-01    2.530000e+00
  SC5e  C3er  1 4.300000e-01    2.530000e+00
  SC4e  C3er  1 4.300000e-01    2.770000e+00
  SC6e  C4er  1 4.300000e-01    2.770000e+00
  SC5e  C4er  1 4.300000e-01    2.770000e+00
  SC6e  C5er  1 4.300000e-01    2.770000e+00
  SC6v  X1vr  1 4.300000e-01    2.770000e+00
  SC5v  X1vr  1 4.300000e-01    2.770000e+00
  SC4v  X1vr  1 4.300000e-01    2.770000e+00
  SC3v  X1vr  1 4.300000e-01    2.770000e+00
  SC2v  X1vr  1 4.300000e-01    2.530000e+00
  SC1v  X1vr  1 4.300000e-01    2.530000e+00
  SX4v  X1vr  1 4.300000e-01    2.770000e+00
  SX3v  X1vr  1 4.300000e-01    2.920000e+00
  SX2v  X1vr  1 4.300000e-01    2.920000e+00
  SC6v  X2vr  1 4.300000e-01    2.770000e+00
  SC5v  X2vr  1 4.300000e-01    2.530000e+00
  SC4v  X2vr  1 4.300000e-01    2.530000e+00
  SC3v  X2vr  1 4.300000e-01    2.530000e+00
  SC2v  X2vr  1 4.300000e-01    2.530000e+00
  SC1v  X2vr  1 4.300000e-01    2.530000e+00
  SX4v  X2vr  1 4.300000e-01    2.770000e+00
  SX3v  X2vr  1 4.300000e-01    2.920000e+00
  SC6v  X3vr  1 4.300000e-01    2.770000e+00
  SC5v  X3vr  1 4.300000e-01    2.530000e+00
  SC4v  X3vr  1 4.300000e-01    2.530000e+00
  SC3v  X3vr  1 4.300000e-01    2.530000e+00
  SC2v  X3vr  1 4.300000e-01    2.530000e+00
  SC1v  X3vr  1 4.300000e-01    2.530000e+00
  SX4v  X3vr  1 4.300000e-01    2.770000e+00
  SC6v  X4vr  1 4.300000e-01    2.770000e+00
  SC5v  X4vr  1 4.300000e-01    2.530000e+00
  SC4v  X4vr  1 4.300000e-01    2.530000e+00
  SC3v  X4vr  1 4.300000e-01    2.530000e+00
  SC2v  X4vr  1 4.300000e-01    2.160000e+00
  SC1v  X4vr  1 4.300000e-01    2.160000e+00
  SC6v  C1vr  1 4.300000e-01    2.160000e+00
  SC5v  C1vr  1 4.300000e-01    2.320000e+00
  SC4v  C1vr  1 4.300000e-01    2.320000e+00
  SC3v  C1vr  1 4.300000e-01    2.770000e+00
  SC2v  C1vr  1 4.300000e-01    2.920000e+00
  SC6v  C2vr  1 4.300000e-01    2.320000e+00
  SC5v  C2vr  1 4.300000e-01    2.320000e+00
  SC4v  C2vr  1 4.300000e-01    2.530000e+00
  SC3v  C2vr  1 4.300000e-01    2.770000e+00
  SC6v  C3vr  1 4.300000e-01    2.530000e+00
  SC5v  C3vr  1 4.300000e-01    2.530000e+00
  SC4v  C3vr  1 4.300000e-01    2.770000e+00
  SC6v  C4vr  1 4.300000e-01    2.770000e+00
  SC5v  C4vr  1 4.300000e-01    2.770000e+00
  SC6v  C5vr  1 4.300000e-01    2.770000e+00
  SP6r   P5r  1 4.300000e-01    4.170000e+00
  SP6r   P4r  1 4.300000e-01    3.970000e+00
  SP6r   P3r  1 4.300000e-01    3.770000e+00
  SP6r   P2r  1 4.300000e-01    3.770000e+00
  SP6r   P1r  1 4.300000e-01    3.590000e+00
  SP6r   N6r  1 4.300000e-01    3.380000e+00
  SP6r   N5r  1 4.300000e-01    2.920000e+00
  SP6r   N4r  1 4.300000e-01    2.770000e+00
  SP6r   N3r  1 4.300000e-01    2.530000e+00
  SP6r   N2r  1 4.300000e-01    2.320000e+00
  SP6r   N1r  1 4.300000e-01    2.160000e+00
  SP6r  P6dr  1 4.300000e-01    4.400000e+00
  SP6r  P5dr  1 4.300000e-01    4.170000e+00
  SP6r  P4dr  1 4.300000e-01    3.970000e+00
  SP6r  P3dr  1 4.300000e-01    3.770000e+00
  SP6r  P2dr  1 4.300000e-01    3.770000e+00
  SP6r  P1dr  1 4.300000e-01    3.590000e+00
  SP6r  N6dr  1 4.300000e-01    3.380000e+00
  SP6r  N5dr  1 4.300000e-01    2.920000e+00
  SP6r  N4dr  1 4.300000e-01    2.770000e+00
  SP6r  N3dr  1 4.300000e-01    2.530000e+00
  SP6r  N2dr  1 4.300000e-01    2.320000e+00
  SP6r  N1dr  1 4.300000e-01    2.160000e+00
  SP6r  P6ar  1 4.300000e-01    4.400000e+00
  SP6r  P5ar  1 4.300000e-01    4.170000e+00
  SP6r  P4ar  1 4.300000e-01    3.970000e+00
  SP6r  P3ar  1 4.300000e-01    3.770000e+00
  SP6r  P2ar  1 4.300000e-01    3.770000e+00
  SP6r  P1ar  1 4.300000e-01    3.590000e+00
  SP6r  N6ar  1 4.300000e-01    3.380000e+00
  SP6r  N5ar  1 4.300000e-01    2.920000e+00
  SP6r  N4ar  1 4.300000e-01    2.770000e+00
  SP6r  N3ar  1 4.300000e-01    2.530000e+00
  SP6r  N2ar  1 4.300000e-01    2.320000e+00
  SP6r  N1ar  1 4.300000e-01    2.160000e+00
  SP5r   P4r  1 4.300000e-01    3.770000e+00
  SP5r   P3r  1 4.300000e-01    3.590000e+00
  SP5r   P2r  1 4.300000e-01    3.590000e+00
  SP5r   P1r  1 4.300000e-01    3.380000e+00
  SP5r   N6r  1 4.300000e-01    3.160000e+00
  SP5r   N5r  1 4.300000e-01    2.920000e+00
  SP5r   N4r  1 4.300000e-01    2.920000e+00
  SP5r   N3r  1 4.300000e-01    2.530000e+00
  SP5r   N2r  1 4.300000e-01    2.320000e+00
  SP5r   N1r  1 4.300000e-01    2.160000e+00
  SP5r  P5dr  1 4.300000e-01    3.970000e+00
  SP5r  P4dr  1 4.300000e-01    3.770000e+00
  SP5r  P3dr  1 4.300000e-01    3.590000e+00
  SP5r  P2dr  1 4.300000e-01    3.590000e+00
  SP5r  P1dr  1 4.300000e-01    3.380000e+00
  SP5r  N6dr  1 4.300000e-01    3.160000e+00
  SP5r  N5dr  1 4.300000e-01    2.920000e+00
  SP5r  N4dr  1 4.300000e-01    2.920000e+00
  SP5r  N3dr  1 4.300000e-01    2.530000e+00
  SP5r  N2dr  1 4.300000e-01    2.320000e+00
  SP5r  N1dr  1 4.300000e-01    2.160000e+00
  SP5r  P5ar  1 4.300000e-01    3.970000e+00
  SP5r  P4ar  1 4.300000e-01    3.770000e+00
  SP5r  P3ar  1 4.300000e-01    3.590000e+00
  SP5r  P2ar  1 4.300000e-01    3.590000e+00
  SP5r  P1ar  1 4.300000e-01    3.380000e+00
  SP5r  N6ar  1 4.300000e-01    3.160000e+00
  SP5r  N5ar  1 4.300000e-01    2.920000e+00
  SP5r  N4ar  1 4.300000e-01    2.920000e+00
  SP5r  N3ar  1 4.300000e-01    2.530000e+00
  SP5r  N2ar  1 4.300000e-01    2.320000e+00
  SP5r  N1ar  1 4.300000e-01    2.160000e+00
  SP4r   P3r  1 4.300000e-01    3.590000e+00
  SP4r   P2r  1 4.300000e-01    3.590000e+00
  SP4r   P1r  1 4.300000e-01    3.380000e+00
  SP4r   N6r  1 4.300000e-01    3.160000e+00
  SP4r   N5r  1 4.300000e-01    2.920000e+00
  SP4r   N4r  1 4.300000e-01    2.920000e+00
  SP4r   N3r  1 4.300000e-01    2.770000e+00
  SP4r   N2r  1 4.300000e-01    2.530000e+00
  SP4r   N1r  1 4.300000e-01    2.320000e+00
  SP4r  P4dr  1 4.300000e-01    3.770000e+00
  SP4r  P3dr  1 4.300000e-01    3.590000e+00
  SP4r  P2dr  1 4.300000e-01    3.590000e+00
  SP4r  P1dr  1 4.300000e-01    3.380000e+00
  SP4r  N6dr  1 4.300000e-01    3.160000e+00
  SP4r  N5dr  1 4.300000e-01    2.920000e+00
  SP4r  N4dr  1 4.300000e-01    2.920000e+00
  SP4r  N3dr  1 4.300000e-01    2.770000e+00
  SP4r  N2dr  1 4.300000e-01    2.530000e+00
  SP4r  N1dr  1 4.300000e-01    2.320000e+00
  SP4r  P4ar  1 4.300000e-01    3.770000e+00
  SP4r  P3ar  1 4.300000e-01    3.590000e+00
  SP4r  P2ar  1 4.300000e-01    3.590000e+00
  SP4r  P1ar  1 4.300000e-01    3.380000e+00
  SP4r  N6ar  1 4.300000e-01    3.160000e+00
  SP4r  N5ar  1 4.300000e-01    2.920000e+00
  SP4r  N4ar  1 4.300000e-01    2.920000e+00
  SP4r  N3ar  1 4.300000e-01    2.770000e+00
  SP4r  N2ar  1 4.300000e-01    2.530000e+00
  SP4r  N1ar  1 4.300000e-01    2.320000e+00
  SP3r   P2r  1 4.300000e-01    3.590000e+00
  SP3r   P1r  1 4.300000e-01    3.380000e+00
  SP3r   N6r  1 4.300000e-01    3.160000e+00
  SP3r   N5r  1 4.300000e-01    2.920000e+00
  SP3r   N4r  1 4.300000e-01    2.920000e+00
  SP3r   N3r  1 4.300000e-01    2.770000e+00
  SP3r   N2r  1 4.300000e-01    2.770000e+00
  SP3r   N1r  1 4.300000e-01    2.530000e+00
  SP3r  P3dr  1 4.300000e-01    3.590000e+00
  SP3r  P2dr  1 4.300000e-01    3.590000e+00
  SP3r  P1dr  1 4.300000e-01    3.380000e+00
  SP3r  N6dr  1 4.300000e-01    3.160000e+00
  SP3r  N5dr  1 4.300000e-01    2.920000e+00
  SP3r  N4dr  1 4.300000e-01    2.920000e+00
  SP3r  N3dr  1 4.300000e-01    2.770000e+00
  SP3r  N2dr  1 4.300000e-01    2.770000e+00
  SP3r  N1dr  1 4.300000e-01    2.530000e+00
  SP3r  P3ar  1 4.300000e-01    3.590000e+00
  SP3r  P2ar  1 4.300000e-01    3.590000e+00
  SP3r  P1ar  1 4.300000e-01    3.380000e+00
  SP3r  N6ar  1 4.300000e-01    3.160000e+00
  SP3r  N5ar  1 4.300000e-01    2.920000e+00
  SP3r  N4ar  1 4.300000e-01    2.920000e+00
  SP3r  N3ar  1 4.300000e-01    2.770000e+00
  SP3r  N2ar  1 4.300000e-01    2.770000e+00
  SP3r  N1ar  1 4.300000e-01    2.530000e+00
  SP2r   P1r  1 4.300000e-01    3.380000e+00
  SP2r   N6r  1 4.300000e-01    3.380000e+00
  SP2r   N5r  1 4.300000e-01    3.160000e+00
  SP2r   N4r  1 4.300000e-01    2.920000e+00
  SP2r   N3r  1 4.300000e-01    2.770000e+00
  SP2r   N2r  1 4.300000e-01    2.770000e+00
  SP2r   N1r  1 4.300000e-01    2.770000e+00
  SP2r  P2dr  1 4.300000e-01    3.590000e+00
  SP2r  P1dr  1 4.300000e-01    3.380000e+00
  SP2r  N6dr  1 4.300000e-01    3.380000e+00
  SP2r  N5dr  1 4.300000e-01    3.160000e+00
  SP2r  N4dr  1 4.300000e-01    2.920000e+00
  SP2r  N3dr  1 4.300000e-01    2.770000e+00
  SP2r  N2dr  1 4.300000e-01    2.770000e+00
  SP2r  N1dr  1 4.300000e-01    2.770000e+00
  SP2r  P2ar  1 4.300000e-01    3.590000e+00
  SP2r  P1ar  1 4.300000e-01    3.380000e+00
  SP2r  N6ar  1 4.300000e-01    3.380000e+00
  SP2r  N5ar  1 4.300000e-01    3.160000e+00
  SP2r  N4ar  1 4.300000e-01    2.920000e+00
  SP2r  N3ar  1 4.300000e-01    2.770000e+00
  SP2r  N2ar  1 4.300000e-01    2.770000e+00
  SP2r  N1ar  1 4.300000e-01    2.770000e+00
  SP1r   N6r  1 4.300000e-01    3.380000e+00
  SP1r   N5r  1 4.300000e-01    3.160000e+00
  SP1r   N4r  1 4.300000e-01    3.160000e+00
  SP1r   N3r  1 4.300000e-01    2.770000e+00
  SP1r   N2r  1 4.300000e-01    2.770000e+00
  SP1r   N1r  1 4.300000e-01    2.770000e+00
  SP1r  P1dr  1 4.300000e-01    3.380000e+00
  SP1r  N6dr  1 4.300000e-01    3.380000e+00
  SP1r  N5dr  1 4.300000e-01    3.160000e+00
  SP1r  N4dr  1 4.300000e-01    3.160000e+00
  SP1r  N3dr  1 4.300000e-01    2.770000e+00
  SP1r  N2dr  1 4.300000e-01    2.770000e+00
  SP1r  N1dr  1 4.300000e-01    2.770000e+00
  SP1r  P1ar  1 4.300000e-01    3.380000e+00
  SP1r  N6ar  1 4.300000e-01    3.380000e+00
  SP1r  N5ar  1 4.300000e-01    3.160000e+00
  SP1r  N4ar  1 4.300000e-01    3.160000e+00
  SP1r  N3ar  1 4.300000e-01    2.770000e+00
  SP1r  N2ar  1 4.300000e-01    2.770000e+00
  SP1r  N1ar  1 4.300000e-01    2.770000e+00
  SN6r   N5r  1 4.300000e-01    3.380000e+00
  SN6r   N4r  1 4.300000e-01    3.380000e+00
  SN6r   N3r  1 4.300000e-01    2.920000e+00
  SN6r   N2r  1 4.300000e-01    2.770000e+00
  SN6r   N1r  1 4.300000e-01    2.770000e+00
  SN6r  N6dr  1 4.300000e-01    3.380000e+00
  SN6r  N5dr  1 4.300000e-01    3.380000e+00
  SN6r  N4dr  1 4.300000e-01    3.380000e+00
  SN6r  N3dr  1 4.300000e-01    2.920000e+00
  SN6r  N2dr  1 4.300000e-01    2.770000e+00
  SN6r  N1dr  1 4.300000e-01    2.770000e+00
  SN6r  N6ar  1 4.300000e-01    3.380000e+00
  SN6r  N5ar  1 4.300000e-01    3.380000e+00
  SN6r  N4ar  1 4.300000e-01    3.380000e+00
  SN6r  N3ar  1 4.300000e-01    2.920000e+00
  SN6r  N2ar  1 4.300000e-01    2.770000e+00
  SN6r  N1ar  1 4.300000e-01    2.770000e+00
  SN5r   N4r  1 4.300000e-01    3.160000e+00
  SN5r   N3r  1 4.300000e-01    2.920000e+00
  SN5r   N2r  1 4.300000e-01    2.920000e+00
  SN5r   N1r  1 4.300000e-01    2.770000e+00
  SN5r  N5dr  1 4.300000e-01    3.160000e+00
  SN5r  N4dr  1 4.300000e-01    3.160000e+00
  SN5r  N3dr  1 4.300000e-01    2.920000e+00
  SN5r  N2dr  1 4.300000e-01    2.920000e+00
  SN5r  N1dr  1 4.300000e-01    2.770000e+00
  SN5r  N5ar  1 4.300000e-01    3.160000e+00
  SN5r  N4ar  1 4.300000e-01    3.160000e+00
  SN5r  N3ar  1 4.300000e-01    2.920000e+00
  SN5r  N2ar  1 4.300000e-01    2.920000e+00
  SN5r  N1ar  1 4.300000e-01    2.770000e+00
  SN4r   N3r  1 4.300000e-01    2.920000e+00
  SN4r   N2r  1 4.300000e-01    2.920000e+00
  SN4r   N1r  1 4.300000e-01    2.770000e+00
  SN4r  N4dr  1 4.300000e-01    3.160000e+00
  SN4r  N3dr  1 4.300000e-01    2.920000e+00
  SN4r  N2dr  1 4.300000e-01    2.920000e+00
  SN4r  N1dr  1 4.300000e-01    2.770000e+00
  SN4r  N4ar  1 4.300000e-01    3.160000e+00
  SN4r  N3ar  1 4.300000e-01    2.920000e+00
  SN4r  N2ar  1 4.300000e-01    2.920000e+00
  SN4r  N1ar  1 4.300000e-01    2.770000e+00
  SN3r   N2r  1 4.300000e-01    2.920000e+00
  SN3r   N1r  1 4.300000e-01    2.770000e+00
  SN3r  N3dr  1 4.300000e-01    2.920000e+00
  SN3r  N2dr  1 4.300000e-01    2.920000e+00
  SN3r  N1dr  1 4.300000e-01    2.770000e+00
  SN3r  N3ar  1 4.300000e-01    2.920000e+00
  SN3r  N2ar  1 4.300000e-01    2.920000e+00
  SN3r  N1ar  1 4.300000e-01    2.770000e+00
  SN2r   N1r  1 4.300000e-01    2.770000e+00
  SN2r  N2dr  1 4.300000e-01    2.920000e+00
  SN2r  N1dr  1 4.300000e-01    2.770000e+00
  SN2r  N2ar  1 4.300000e-01    2.920000e+00
  SN2r  N1ar  1 4.300000e-01    2.770000e+00
  SN1r  N1dr  1 4.300000e-01    2.920000e+00
  SN1r  N1ar  1 4.300000e-01    2.920000e+00
 SP6dr   P5r  1 4.300000e-01    4.170000e+00
 SP6dr   P4r  1 4.300000e-01    3.970000e+00
 SP6dr   P3r  1 4.300000e-01    3.770000e+00
 SP6dr   P2r  1 4.300000e-01    3.770000e+00
 SP6dr   P1r  1 4.300000e-01    3.590000e+00
 SP6dr   N6r  1 4.300000e-01    3.380000e+00
 SP6dr   N5r  1 4.300000e-01    2.920000e+00
 SP6dr   N4r  1 4.300000e-01    2.770000e+00
 SP6dr   N3r  1 4.300000e-01    2.530000e+00
 SP6dr   N2r  1 4.300000e-01    2.320000e+00
 SP6dr   N1r  1 4.300000e-01    2.160000e+00
 SP5dr   P4r  1 4.300000e-01    3.770000e+00
 SP5dr   P3r  1 4.300000e-01    3.590000e+00
 SP5dr   P2r  1 4.300000e-01    3.590000e+00
 SP5dr   P1r  1 4.300000e-01    3.380000e+00
 SP5dr   N6r  1 4.300000e-01    3.160000e+00
 SP5dr   N5r  1 4.300000e-01    2.920000e+00
 SP5dr   N4r  1 4.300000e-01    2.920000e+00
 SP5dr   N3r  1 4.300000e-01    2.530000e+00
 SP5dr   N2r  1 4.300000e-01    2.320000e+00
 SP5dr   N1r  1 4.300000e-01    2.160000e+00
 SP4dr   P3r  1 4.300000e-01    3.590000e+00
 SP4dr   P2r  1 4.300000e-01    3.590000e+00
 SP4dr   P1r  1 4.300000e-01    3.380000e+00
 SP4dr   N6r  1 4.300000e-01    3.160000e+00
 SP4dr   N5r  1 4.300000e-01    2.920000e+00
 SP4dr   N4r  1 4.300000e-01    2.920000e+00
 SP4dr   N3r  1 4.300000e-01    2.770000e+00
 SP4dr   N2r  1 4.300000e-01    2.530000e+00
 SP4dr   N1r  1 4.300000e-01    2.320000e+00
 SP3dr   P2r  1 4.300000e-01    3.590000e+00
 SP3dr   P1r  1 4.300000e-01    3.380000e+00
 SP3dr   N6r  1 4.300000e-01    3.160000e+00
 SP3dr   N5r  1 4.300000e-01    2.920000e+00
 SP3dr   N4r  1 4.300000e-01    2.920000e+00
 SP3dr   N3r  1 4.300000e-01    2.770000e+00
 SP3dr   N2r  1 4.300000e-01    2.770000e+00
 SP3dr   N1r  1 4.300000e-01    2.530000e+00
 SP2dr   P1r  1 4.300000e-01    3.380000e+00
 SP2dr   N6r  1 4.300000e-01    3.380000e+00
 SP2dr   N5r  1 4.300000e-01    3.160000e+00
 SP2dr   N4r  1 4.300000e-01    2.920000e+00
 SP2dr   N3r  1 4.300000e-01    2.770000e+00
 SP2dr   N2r  1 4.300000e-01    2.770000e+00
 SP2dr   N1r  1 4.300000e-01    2.770000e+00
 SP1dr   N6r  1 4.300000e-01    3.380000e+00
 SP1dr   N5r  1 4.300000e-01    3.160000e+00
 SP1dr   N4r  1 4.300000e-01    3.160000e+00
 SP1dr   N3r  1 4.300000e-01    2.770000e+00
 SP1dr   N2r  1 4.300000e-01    2.770000e+00
 SP1dr   N1r  1 4.300000e-01    2.770000e+00
 SN6dr   N5r  1 4.300000e-01    3.380000e+00
 SN6dr   N4r  1 4.300000e-01    3.380000e+00
 SN6dr   N3r  1 4.300000e-01    2.920000e+00
 SN6dr   N2r  1 4.300000e-01    2.770000e+00
 SN6dr   N1r  1 4.300000e-01    2.770000e+00
 SN5dr   N4r  1 4.300000e-01    3.160000e+00
 SN5dr   N3r  1 4.300000e-01    2.920000e+00
 SN5dr   N2r  1 4.300000e-01    2.920000e+00
 SN5dr   N1r  1 4.300000e-01    2.770000e+00
 SN4dr   N3r  1 4.300000e-01    2.920000e+00
 SN4dr   N2r  1 4.300000e-01    2.920000e+00
 SN4dr   N1r  1 4.300000e-01    2.770000e+00
 SN3dr   N2r  1 4.300000e-01    2.920000e+00
 SN3dr   N1r  1 4.300000e-01    2.770000e+00
 SN2dr   N1r  1 4.300000e-01    2.770000e+00
 SP6ar   P5r  1 4.300000e-01    4.170000e+00
 SP6ar   P4r  1 4.300000e-01    3.970000e+00
 SP6ar   P3r  1 4.300000e-01    3.770000e+00
 SP6ar   P2r  1 4.300000e-01    3.770000e+00
 SP6ar   P1r  1 4.300000e-01    3.590000e+00
 SP6ar   N6r  1 4.300000e-01    3.380000e+00
 SP6ar   N5r  1 4.300000e-01    2.920000e+00
 SP6ar   N4r  1 4.300000e-01    2.770000e+00
 SP6ar   N3r  1 4.300000e-01    2.530000e+00
 SP6ar   N2r  1 4.300000e-01    2.320000e+00
 SP6ar   N1r  1 4.300000e-01    2.160000e+00
 SP5ar   P4r  1 4.300000e-01    3.770000e+00
 SP5ar   P3r  1 4.300000e-01    3.590000e+00
 SP5ar   P2r  1 4.300000e-01    3.590000e+00
 SP5ar   P1r  1 4.300000e-01    3.380000e+00
 SP5ar   N6r  1 4.300000e-01    3.160000e+00
 SP5ar   N5r  1 4.300000e-01    2.920000e+00
 SP5ar   N4r  1 4.300000e-01    2.920000e+00
 SP5ar   N3r  1 4.300000e-01    2.530000e+00
 SP5ar   N2r  1 4.300000e-01    2.320000e+00
 SP5ar   N1r  1 4.300000e-01    2.160000e+00
 SP4ar   P3r  1 4.300000e-01    3.590000e+00
 SP4ar   P2r  1 4.300000e-01    3.590000e+00
 SP4ar   P1r  1 4.300000e-01    3.380000e+00
 SP4ar   N6r  1 4.300000e-01    3.160000e+00
 SP4ar   N5r  1 4.300000e-01    2.920000e+00
 SP4ar   N4r  1 4.300000e-01    2.920000e+00
 SP4ar   N3r  1 4.300000e-01    2.770000e+00
 SP4ar   N2r  1 4.300000e-01    2.530000e+00
 SP4ar   N1r  1 4.300000e-01    2.320000e+00
 SP3ar   P2r  1 4.300000e-01    3.590000e+00
 SP3ar   P1r  1 4.300000e-01    3.380000e+00
 SP3ar   N6r  1 4.300000e-01    3.160000e+00
 SP3ar   N5r  1 4.300000e-01    2.920000e+00
 SP3ar   N4r  1 4.300000e-01    2.920000e+00
 SP3ar   N3r  1 4.300000e-01    2.770000e+00
 SP3ar   N2r  1 4.300000e-01    2.770000e+00
 SP3ar   N1r  1 4.300000e-01    2.530000e+00
 SP2ar   P1r  1 4.300000e-01    3.380000e+00
 SP2ar   N6r  1 4.300000e-01    3.380000e+00
 SP2ar   N5r  1 4.300000e-01    3.160000e+00
 SP2ar   N4r  1 4.300000e-01    2.920000e+00
 SP2ar   N3r  1 4.300000e-01    2.770000e+00
 SP2ar   N2r  1 4.300000e-01    2.770000e+00
 SP2ar   N1r  1 4.300000e-01    2.770000e+00
 SP1ar   N6r  1 4.300000e-01    3.380000e+00
 SP1ar   N5r  1 4.300000e-01    3.160000e+00
 SP1ar   N4r  1 4.300000e-01    3.160000e+00
 SP1ar   N3r  1 4.300000e-01    2.770000e+00
 SP1ar   N2r  1 4.300000e-01    2.770000e+00
 SP1ar   N1r  1 4.300000e-01    2.770000e+00
 SN6ar   N5r  1 4.300000e-01    3.380000e+00
 SN6ar   N4r  1 4.300000e-01    3.380000e+00
 SN6ar   N3r  1 4.300000e-01    2.920000e+00
 SN6ar   N2r  1 4.300000e-01    2.770000e+00
 SN6ar   N1r  1 4.300000e-01    2.770000e+00
 SN5ar   N4r  1 4.300000e-01    3.160000e+00
 SN5ar   N3r  1 4.300000e-01    2.920000e+00
 SN5ar   N2r  1 4.300000e-01    2.920000e+00
 SN5ar   N1r  1 4.300000e-01    2.770000e+00
 SN4ar   N3r  1 4.300000e-01    2.920000e+00
 SN4ar   N2r  1 4.300000e-01    2.920000e+00
 SN4ar   N1r  1 4.300000e-01    2.770000e+00
 SN3ar   N2r  1 4.300000e-01    2.920000e+00
 SN3ar   N1r  1 4.300000e-01    2.770000e+00
 SN2ar   N1r  1 4.300000e-01    2.770000e+00
  SC6r   C5r  1 4.300000e-01    2.770000e+00
  SC6r   C4r  1 4.300000e-01    2.770000e+00
  SC6r   C3r  1 4.300000e-01    2.530000e+00
  SC6r   C2r  1 4.300000e-01    2.320000e+00
  SC6r   C1r  1 4.300000e-01    2.160000e+00
  SC6r   X4r  1 4.300000e-01    2.770000e+00
  SC6r   X3r  1 4.300000e-01    2.770000e+00
  SC6r   X2r  1 4.300000e-01    2.770000e+00
  SC6r   X1r  1 4.300000e-01    2.770000e+00
  SC6r  C6vr  1 4.300000e-01    3.160000e+00
  SC6r  C5vr  1 4.300000e-01    2.920000e+00
  SC6r  C4vr  1 4.300000e-01    2.920000e+00
  SC6r  C3vr  1 4.300000e-01    2.770000e+00
  SC6r  C2vr  1 4.300000e-01    2.530000e+00
  SC6r  C1vr  1 4.300000e-01    2.320000e+00
  SC6r  X4vr  1 4.300000e-01    2.920000e+00
  SC6r  X3vr  1 4.300000e-01    2.920000e+00
  SC6r  X2vr  1 4.300000e-01    2.920000e+00
  SC6r  X1vr  1 4.300000e-01    2.920000e+00
  SC6r  C6er  1 4.300000e-01    3.160000e+00
  SC6r  C5er  1 4.300000e-01    2.920000e+00
  SC6r  C4er  1 4.300000e-01    2.920000e+00
  SC6r  C3er  1 4.300000e-01    2.770000e+00
  SC6r  C2er  1 4.300000e-01    2.530000e+00
  SC6r  C1er  1 4.300000e-01    2.320000e+00
  SC6r  X4er  1 4.300000e-01    2.920000e+00
  SC6r  X3er  1 4.300000e-01    2.920000e+00
  SC6r  X2er  1 4.300000e-01    2.920000e+00
  SC6r  X1er  1 4.300000e-01    2.920000e+00
  SC5r   C4r  1 4.300000e-01    2.770000e+00
  SC5r   C3r  1 4.300000e-01    2.530000e+00
  SC5r   C2r  1 4.300000e-01    2.320000e+00
  SC5r   C1r  1 4.300000e-01    2.320000e+00
  SC5r   X4r  1 4.300000e-01    2.530000e+00
  SC5r   X3r  1 4.300000e-01    2.530000e+00
  SC5r   X2r  1 4.300000e-01    2.530000e+00
  SC5r   X1r  1 4.300000e-01    2.770000e+00
  SC5r  C5vr  1 4.300000e-01    2.920000e+00
  SC5r  C4vr  1 4.300000e-01    2.920000e+00
  SC5r  C3vr  1 4.300000e-01    2.770000e+00
  SC5r  C2vr  1 4.300000e-01    2.530000e+00
  SC5r  C1vr  1 4.300000e-01    2.530000e+00
  SC5r  X4vr  1 4.300000e-01    2.770000e+00
  SC5r  X3vr  1 4.300000e-01    2.770000e+00
  SC5r  X2vr  1 4.300000e-01    2.770000e+00
  SC5r  X1vr  1 4.300000e-01    2.920000e+00
  SC5r  C5er  1 4.300000e-01    2.920000e+00
  SC5r  C4er  1 4.300000e-01    2.920000e+00
  SC5r  C3er  1 4.300000e-01    2.770000e+00
  SC5r  C2er  1 4.300000e-01    2.530000e+00
  SC5r  C1er  1 4.300000e-01    2.530000e+00
  SC5r  X4er  1 4.300000e-01    2.770000e+00
  SC5r  X3er  1 4.300000e-01    2.770000e+00
  SC5r  X2er  1 4.300000e-01    2.770000e+00
  SC5r  X1er  1 4.300000e-01    2.920000e+00
  SC4r   C3r  1 4.300000e-01    2.770000e+00
  SC4r   C2r  1 4.300000e-01    2.530000e+00
  SC4r   C1r  1 4.300000e-01    2.320000e+00
  SC4r   X4r  1 4.300000e-01    2.530000e+00
  SC4r   X3r  1 4.300000e-01    2.530000e+00
  SC4r   X2r  1 4.300000e-01    2.530000e+00
  SC4r   X1r  1 4.300000e-01    2.770000e+00
  SC4r  C4vr  1 4.300000e-01    2.920000e+00
  SC4r  C3vr  1 4.300000e-01    2.920000e+00
  SC4r  C2vr  1 4.300000e-01    2.770000e+00
  SC4r  C1vr  1 4.300000e-01    2.530000e+00
  SC4r  X4vr  1 4.300000e-01    2.770000e+00
  SC4r  X3vr  1 4.300000e-01    2.770000e+00
  SC4r  X2vr  1 4.300000e-01    2.770000e+00
  SC4r  X1vr  1 4.300000e-01    2.920000e+00
  SC4r  C4er  1 4.300000e-01    2.920000e+00
  SC4r  C3er  1 4.300000e-01    2.920000e+00
  SC4r  C2er  1 4.300000e-01    2.770000e+00
  SC4r  C1er  1 4.300000e-01    2.530000e+00
  SC4r  X4er  1 4.300000e-01    2.770000e+00
  SC4r  X3er  1 4.300000e-01    2.770000e+00
  SC4r  X2er  1 4.300000e-01    2.770000e+00
  SC4r  X1er  1 4.300000e-01    2.920000e+00
  SC3r   C2r  1 4.300000e-01    2.770000e+00
  SC3r   C1r  1 4.300000e-01    2.770000e+00
  SC3r   X4r  1 4.300000e-01    2.530000e+00
  SC3r   X3r  1 4.300000e-01    2.530000e+00
  SC3r   X2r  1 4.300000e-01    2.530000e+00
  SC3r   X1r  1 4.300000e-01    2.770000e+00
  SC3r  C3vr  1 4.300000e-01    2.920000e+00
  SC3r  C2vr  1 4.300000e-01    2.920000e+00
  SC3r  C1vr  1 4.300000e-01    2.920000e+00
  SC3r  X4vr  1 4.300000e-01    2.770000e+00
  SC3r  X3vr  1 4.300000e-01    2.770000e+00
  SC3r  X2vr  1 4.300000e-01    2.770000e+00
  SC3r  X1vr  1 4.300000e-01    2.920000e+00
  SC3r  C3er  1 4.300000e-01    2.920000e+00
  SC3r  C2er  1 4.300000e-01    2.920000e+00
  SC3r  C1er  1 4.300000e-01    2.920000e+00
  SC3r  X4er  1 4.300000e-01    2.770000e+00
  SC3r  X3er  1 4.300000e-01    2.770000e+00
  SC3r  X2er  1 4.300000e-01    2.770000e+00
  SC3r  X1er  1 4.300000e-01    2.920000e+00
  SC2r   C1r  1 4.300000e-01    2.920000e+00
  SC2r   X4r  1 4.300000e-01    2.160000e+00
  SC2r   X3r  1 4.300000e-01    2.530000e+00
  SC2r   X2r  1 4.300000e-01    2.530000e+00
  SC2r   X1r  1 4.300000e-01    2.530000e+00
  SC2r  C2vr  1 4.300000e-01    2.920000e+00
  SC2r  C1vr  1 4.300000e-01    3.160000e+00
  SC2r  X4vr  1 4.300000e-01    2.320000e+00
  SC2r  X3vr  1 4.300000e-01    2.770000e+00
  SC2r  X2vr  1 4.300000e-01    2.770000e+00
  SC2r  X1vr  1 4.300000e-01    2.770000e+00
  SC2r  C2er  1 4.300000e-01    2.920000e+00
  SC2r  C1er  1 4.300000e-01    3.160000e+00
  SC2r  X4er  1 4.300000e-01    2.320000e+00
  SC2r  X3er  1 4.300000e-01    2.770000e+00
  SC2r  X2er  1 4.300000e-01    2.770000e+00
  SC2r  X1er  1 4.300000e-01    2.770000e+00
  SC1r   X4r  1 4.300000e-01    2.160000e+00
  SC1r   X3r  1 4.300000e-01    2.530000e+00
  SC1r   X2r  1 4.300000e-01    2.530000e+00
  SC1r   X1r  1 4.300000e-01    2.530000e+00
  SC1r  C1vr  1 4.300000e-01    2.920000e+00
  SC1r  X4vr  1 4.300000e-01    2.320000e+00
  SC1r  X3vr  1 4.300000e-01    2.770000e+00
  SC1r  X2vr  1 4.300000e-01    2.770000e+00
  SC1r  X1vr  1 4.300000e-01    2.770000e+00
  SC1r  C1er  1 4.300000e-01    2.920000e+00
  SC1r  X4er  1 4.300000e-01    2.320000e+00
  SC1r  X3er  1 4.300000e-01    2.770000e+00
  SC1r  X2er  1 4.300000e-01    2.770000e+00
  SC1r  X1er  1 4.300000e-01    2.770000e+00
  SX4r   X3r  1 4.300000e-01    2.770000e+00
  SX4r   X2r  1 4.300000e-01    2.770000e+00
  SX4r   X1r  1 4.300000e-01    2.770000e+00
  SX4r  X4vr  1 4.300000e-01    2.920000e+00
  SX4r  X3vr  1 4.300000e-01    2.920000e+00
  SX4r  X2vr  1 4.300000e-01    2.920000e+00
  SX4r  X1vr  1 4.300000e-01    2.920000e+00
  SX4r  X4er  1 4.300000e-01    2.920000e+00
  SX4r  X3er  1 4.300000e-01    2.920000e+00
  SX4r  X2er  1 4.300000e-01    2.920000e+00
  SX4r  X1er  1 4.300000e-01    2.920000e+00
  SX3r   X2r  1 4.300000e-01    2.920000e+00
  SX3r   X1r  1 4.300000e-01    2.920000e+00
  SX3r  X3vr  1 4.300000e-01    2.920000e+00
  SX3r  X2vr  1 4.300000e-01    3.160000e+00
  SX3r  X1vr  1 4.300000e-01    3.160000e+00
  SX3r  X3er  1 4.300000e-01    2.920000e+00
  SX3r  X2er  1 4.300000e-01    3.160000e+00
  SX3r  X1er  1 4.300000e-01    3.160000e+00
  SX2r   X1r  1 4.300000e-01    2.920000e+00
  SX2r  X2vr  1 4.300000e-01    3.160000e+00
  SX2r  X1vr  1 4.300000e-01    3.160000e+00
  SX2r  X2er  1 4.300000e-01    3.160000e+00
  SX2r  X1er  1 4.300000e-01    3.160000e+00
  SX1r  X1vr  1 4.300000e-01    3.380000e+00
  SX1r  X1er  1 4.300000e-01    3.380000e+00
 SC6vr   C5r  1 4.300000e-01    2.920000e+00
 SC6vr   C4r  1 4.300000e-01    2.920000e+00
 SC6vr   C3r  1 4.300000e-01    2.770000e+00
 SC6vr   C2r  1 4.300000e-01    2.530000e+00
 SC6vr   C1r  1 4.300000e-01    2.320000e+00
 SC6vr   X4r  1 4.300000e-01    2.920000e+00
 SC6vr   X3r  1 4.300000e-01    2.920000e+00
 SC6vr   X2r  1 4.300000e-01    2.920000e+00
 SC6vr   X1r  1 4.300000e-01    2.920000e+00
 SC6vr  C5vr  1 4.300000e-01    2.530000e+00
 SC6vr  C4vr  1 4.300000e-01    2.530000e+00
 SC6vr  C3vr  1 4.300000e-01    2.320000e+00
 SC6vr  C2vr  1 4.300000e-01    2.160000e+00
 SC6vr  C1vr  1 4.300000e-01    1.930000e+00
 SC6vr  X4vr  1 4.300000e-01    2.530000e+00
 SC6vr  X3vr  1 4.300000e-01    2.530000e+00
 SC6vr  X2vr  1 4.300000e-01    2.530000e+00
 SC6vr  X1vr  1 4.300000e-01    2.530000e+00
 SC5vr   C4r  1 4.300000e-01    2.920000e+00
 SC5vr   C3r  1 4.300000e-01    2.770000e+00
 SC5vr   C2r  1 4.300000e-01    2.530000e+00
 SC5vr   C1r  1 4.300000e-01    2.530000e+00
 SC5vr   X4r  1 4.300000e-01    2.770000e+00
 SC5vr   X3r  1 4.300000e-01    2.770000e+00
 SC5vr   X2r  1 4.300000e-01    2.770000e+00
 SC5vr   X1r  1 4.300000e-01    2.920000e+00
 SC5vr  C4vr  1 4.300000e-01    2.530000e+00
 SC5vr  C3vr  1 4.300000e-01    2.320000e+00
 SC5vr  C2vr  1 4.300000e-01    2.160000e+00
 SC5vr  C1vr  1 4.300000e-01    2.160000e+00
 SC5vr  X4vr  1 4.300000e-01    2.320000e+00
 SC5vr  X3vr  1 4.300000e-01    2.320000e+00
 SC5vr  X2vr  1 4.300000e-01    2.320000e+00
 SC5vr  X1vr  1 4.300000e-01    2.530000e+00
 SC4vr   C3r  1 4.300000e-01    2.920000e+00
 SC4vr   C2r  1 4.300000e-01    2.770000e+00
 SC4vr   C1r  1 4.300000e-01    2.530000e+00
 SC4vr   X4r  1 4.300000e-01    2.770000e+00
 SC4vr   X3r  1 4.300000e-01    2.770000e+00
 SC4vr   X2r  1 4.300000e-01    2.770000e+00
 SC4vr   X1r  1 4.300000e-01    2.920000e+00
 SC4vr  C3vr  1 4.300000e-01    2.530000e+00
 SC4vr  C2vr  1 4.300000e-01    2.320000e+00
 SC4vr  C1vr  1 4.300000e-01    2.160000e+00
 SC4vr  X4vr  1 4.300000e-01    2.320000e+00
 SC4vr  X3vr  1 4.300000e-01    2.320000e+00
 SC4vr  X2vr  1 4.300000e-01    2.320000e+00
 SC4vr  X1vr  1 4.300000e-01    2.530000e+00
 SC3vr   C2r  1 4.300000e-01    2.920000e+00
 SC3vr   C1r  1 4.300000e-01    2.920000e+00
 SC3vr   X4r  1 4.300000e-01    2.770000e+00
 SC3vr   X3r  1 4.300000e-01    2.770000e+00
 SC3vr   X2r  1 4.300000e-01    2.770000e+00
 SC3vr   X1r  1 4.300000e-01    2.920000e+00
 SC3vr  C2vr  1 4.300000e-01    2.530000e+00
 SC3vr  C1vr  1 4.300000e-01    2.530000e+00
 SC3vr  X4vr  1 4.300000e-01    2.320000e+00
 SC3vr  X3vr  1 4.300000e-01    2.320000e+00
 SC3vr  X2vr  1 4.300000e-01    2.320000e+00
 SC3vr  X1vr  1 4.300000e-01    2.530000e+00
 SC2vr   C1r  1 4.300000e-01    3.160000e+00
 SC2vr   X4r  1 4.300000e-01    2.320000e+00
 SC2vr   X3r  1 4.300000e-01    2.770000e+00
 SC2vr   X2r  1 4.300000e-01    2.770000e+00
 SC2vr   X1r  1 4.300000e-01    2.770000e+00
 SC2vr  C1vr  1 4.300000e-01    2.770000e+00
 SC2vr  X4vr  1 4.300000e-01    1.930000e+00
 SC2vr  X3vr  1 4.300000e-01    2.320000e+00
 SC2vr  X2vr  1 4.300000e-01    2.320000e+00
 SC2vr  X1vr  1 4.300000e-01    2.320000e+00
 SC1vr   X4r  1 4.300000e-01    2.320000e+00
 SC1vr   X3r  1 4.300000e-01    2.770000e+00
 SC1vr   X2r  1 4.300000e-01    2.770000e+00
 SC1vr   X1r  1 4.300000e-01    2.770000e+00
 SC1vr  X4vr  1 4.300000e-01    1.930000e+00
 SC1vr  X3vr  1 4.300000e-01    2.320000e+00
 SC1vr  X2vr  1 4.300000e-01    2.320000e+00
 SC1vr  X1vr  1 4.300000e-01    2.320000e+00
 SX4vr   X3r  1 4.300000e-01    2.920000e+00
 SX4vr   X2r  1 4.300000e-01    2.920000e+00
 SX4vr   X1r  1 4.300000e-01    2.920000e+00
 SX4vr  X3vr  1 4.300000e-01    2.530000e+00
 SX4vr  X2vr  1 4.300000e-01    2.530000e+00
 SX4vr  X1vr  1 4.300000e-01    2.530000e+00
 SX3vr   X2r  1 4.300000e-01    3.160000e+00
 SX3vr   X1r  1 4.300000e-01    3.160000e+00
 SX3vr  X2vr  1 4.300000e-01    2.770000e+00
 SX3vr  X1vr  1 4.300000e-01    2.770000e+00
 SX2vr   X1r  1 4.300000e-01    3.160000e+00
 SX2vr  X1vr  1 4.300000e-01    2.770000e+00
 SC6er   C5r  1 4.300000e-01    2.920000e+00
 SC6er   C4r  1 4.300000e-01    2.920000e+00
 SC6er   C3r  1 4.300000e-01    2.770000e+00
 SC6er   C2r  1 4.300000e-01    2.530000e+00
 SC6er   C1r  1 4.300000e-01    2.320000e+00
 SC6er   X4r  1 4.300000e-01    2.920000e+00
 SC6er   X3r  1 4.300000e-01    2.920000e+00
 SC6er   X2r  1 4.300000e-01    2.920000e+00
 SC6er   X1r  1 4.300000e-01    2.920000e+00
 SC6er  C5er  1 4.300000e-01    2.530000e+00
 SC6er  C4er  1 4.300000e-01    2.530000e+00
 SC6er  C3er  1 4.300000e-01    2.320000e+00
 SC6er  C2er  1 4.300000e-01    2.160000e+00
 SC6er  C1er  1 4.300000e-01    1.930000e+00
 SC6er  X4er  1 4.300000e-01    2.530000e+00
 SC6er  X3er  1 4.300000e-01    2.530000e+00
 SC6er  X2er  1 4.300000e-01    2.530000e+00
 SC6er  X1er  1 4.300000e-01    2.530000e+00
 SC5er   C4r  1 4.300000e-01    2.920000e+00
 SC5er   C3r  1 4.300000e-01    2.770000e+00
 SC5er   C2r  1 4.300000e-01    2.530000e+00
 SC5er   C1r  1 4.300000e-01    2.530000e+00
 SC5er   X4r  1 4.300000e-01    2.770000e+00
 SC5er   X3r  1 4.300000e-01    2.770000e+00
 SC5er   X2r  1 4.300000e-01    2.770000e+00
 SC5er   X1r  1 4.300000e-01    2.920000e+00
 SC5er  C4er  1 4.300000e-01    2.530000e+00
 SC5er  C3er  1 4.300000e-01    2.320000e+00
 SC5er  C2er  1 4.300000e-01    2.160000e+00
 SC5er  C1er  1 4.300000e-01    2.160000e+00
 SC5er  X4er  1 4.300000e-01    2.320000e+00
 SC5er  X3er  1 4.300000e-01    2.320000e+00
 SC5er  X2er  1 4.300000e-01    2.320000e+00
 SC5er  X1er  1 4.300000e-01    2.530000e+00
 SC4er   C3r  1 4.300000e-01    2.920000e+00
 SC4er   C2r  1 4.300000e-01    2.770000e+00
 SC4er   C1r  1 4.300000e-01    2.530000e+00
 SC4er   X4r  1 4.300000e-01    2.770000e+00
 SC4er   X3r  1 4.300000e-01    2.770000e+00
 SC4er   X2r  1 4.300000e-01    2.770000e+00
 SC4er   X1r  1 4.300000e-01    2.920000e+00
 SC4er  C3er  1 4.300000e-01    2.530000e+00
 SC4er  C2er  1 4.300000e-01    2.320000e+00
 SC4er  C1er  1 4.300000e-01    2.160000e+00
 SC4er  X4er  1 4.300000e-01    2.320000e+00
 SC4er  X3er  1 4.300000e-01    2.320000e+00
 SC4er  X2er  1 4.300000e-01    2.320000e+00
 SC4er  X1er  1 4.300000e-01    2.530000e+00
 SC3er   C2r  1 4.300000e-01    2.920000e+00
 SC3er   C1r  1 4.300000e-01    2.920000e+00
 SC3er   X4r  1 4.300000e-01    2.770000e+00
 SC3er   X3r  1 4.300000e-01    2.770000e+00
 SC3er   X2r  1 4.300000e-01    2.770000e+00
 SC3er   X1r  1 4.300000e-01    2.920000e+00
 SC3er  C2er  1 4.300000e-01    2.530000e+00
 SC3er  C1er  1 4.300000e-01    2.530000e+00
 SC3er  X4er  1 4.300000e-01    2.320000e+00
 SC3er  X3er  1 4.300000e-01    2.320000e+00
 SC3er  X2er  1 4.300000e-01    2.320000e+00
 SC3er  X1er  1 4.300000e-01    2.530000e+00
 SC2er   C1r  1 4.300000e-01    3.160000e+00
 SC2er   X4r  1 4.300000e-01    2.320000e+00
 SC2er   X3r  1 4.300000e-01    2.770000e+00
 SC2er   X2r  1 4.300000e-01    2.770000e+00
 SC2er   X1r  1 4.300000e-01    2.770000e+00
 SC2er  C1er  1 4.300000e-01    2.770000e+00
 SC2er  X4er  1 4.300000e-01    1.930000e+00
 SC2er  X3er  1 4.300000e-01    2.320000e+00
 SC2er  X2er  1 4.300000e-01    2.320000e+00
 SC2er  X1er  1 4.300000e-01    2.320000e+00
 SC1er   X4r  1 4.300000e-01    2.320000e+00
 SC1er   X3r  1 4.300000e-01    2.770000e+00
 SC1er   X2r  1 4.300000e-01    2.770000e+00
 SC1er   X1r  1 4.300000e-01    2.770000e+00
 SC1er  X4er  1 4.300000e-01    1.930000e+00
 SC1er  X3er  1 4.300000e-01    2.320000e+00
 SC1er  X2er  1 4.300000e-01    2.320000e+00
 SC1er  X1er  1 4.300000e-01    2.320000e+00
 SX4er   X3r  1 4.300000e-01    2.920000e+00
 SX4er   X2r  1 4.300000e-01    2.920000e+00
 SX4er   X1r  1 4.300000e-01    2.920000e+00
 SX4er  X3er  1 4.300000e-01    2.530000e+00
 SX4er  X2er  1 4.300000e-01    2.530000e+00
 SX4er  X1er  1 4.300000e-01    2.530000e+00
 SX3er   X2r  1 4.300000e-01    3.160000e+00
 SX3er   X1r  1 4.300000e-01    3.160000e+00
 SX3er  X2er  1 4.300000e-01    2.770000e+00
 SX3er  X1er  1 4.300000e-01    2.770000e+00
 SX2er   X1r  1 4.300000e-01    3.160000e+00
 SX2er  X1er  1 4.300000e-01    2.770000e+00
  SP6r   C6r  1 4.300000e-01    2.320000e+00
  SP6r   C5r  1 4.300000e-01    2.160000e+00
  SP6r   C4r  1 4.300000e-01    1.930000e+00
  SP6r   C3r  1 4.300000e-01    1.730000e+00
  SP6r   C2r  1 4.300000e-01    1.730000e+00
  SP6r   C1r  1 4.730000e-01    1.280000e+00
  SP6r   X4r  1 4.300000e-01    2.530000e+00
  SP6r   X3r  1 4.300000e-01    2.530000e+00
  SP6r   X2r  1 4.300000e-01    2.320000e+00
  SP6r   X1r  1 4.300000e-01    2.160000e+00
  SP6r  C6vr  1 4.300000e-01    2.530000e+00
  SP6r  C5vr  1 4.300000e-01    2.320000e+00
  SP6r  C4vr  1 4.300000e-01    2.160000e+00
  SP6r  C3vr  1 4.300000e-01    1.930000e+00
  SP6r  C2vr  1 4.300000e-01    1.930000e+00
  SP6r  C1vr  1 4.430000e-01    1.480000e+00
  SP6r  X4vr  1 4.300000e-01    2.770000e+00
  SP6r  X3vr  1 4.300000e-01    2.770000e+00
  SP6r  X2vr  1 4.300000e-01    2.530000e+00
  SP6r  X1vr  1 4.300000e-01    2.320000e+00
  SP6r  C6er  1 4.300000e-01    2.530000e+00
  SP6r  C5er  1 4.300000e-01    2.320000e+00
  SP6r  C4er  1 4.300000e-01    2.160000e+00
  SP6r  C3er  1 4.300000e-01    1.930000e+00
  SP6r  C2er  1 4.300000e-01    1.930000e+00
  SP6r  C1er  1 4.430000e-01    1.480000e+00
  SP6r  X4er  1 4.300000e-01    2.770000e+00
  SP6r  X3er  1 4.300000e-01    2.770000e+00
  SP6r  X2er  1 4.300000e-01    2.530000e+00
  SP6r  X1er  1 4.300000e-01    2.320000e+00
  SP5r   C6r  1 4.300000e-01    2.320000e+00
  SP5r   C5r  1 4.300000e-01    2.320000e+00
  SP5r   C4r  1 4.300000e-01    2.160000e+00
  SP5r   C3r  1 4.300000e-01    1.930000e+00
  SP5r   C2r  1 4.300000e-01    1.930000e+00
  SP5r   C1r  1 4.300000e-01    1.730000e+00
  SP5r   X4r  1 4.300000e-01    2.770000e+00
  SP5r   X3r  1 4.300000e-01    2.530000e+00
  SP5r   X2r  1 4.300000e-01    2.530000e+00
  SP5r   X1r  1 4.300000e-01    2.160000e+00
  SP5r  C6vr  1 4.300000e-01    2.530000e+00
  SP5r  C5vr  1 4.300000e-01    2.530000e+00
  SP5r  C4vr  1 4.300000e-01    2.320000e+00
  SP5r  C3vr  1 4.300000e-01    2.160000e+00
  SP5r  C2vr  1 4.300000e-01    2.160000e+00
  SP5r  C1vr  1 4.300000e-01    1.930000e+00
  SP5r  X4vr  1 4.300000e-01    2.920000e+00
  SP5r  X3vr  1 4.300000e-01    2.770000e+00
  SP5r  X2vr  1 4.300000e-01    2.770000e+00
  SP5r  X1vr  1 4.300000e-01    2.320000e+00
  SP5r  C6er  1 4.300000e-01    2.530000e+00
  SP5r  C5er  1 4.300000e-01    2.530000e+00
  SP5r  C4er  1 4.300000e-01    2.320000e+00
  SP5r  C3er  1 4.300000e-01    2.160000e+00
  SP5r  C2er  1 4.300000e-01    2.160000e+00
  SP5r  C1er  1 4.300000e-01    1.930000e+00
  SP5r  X4er  1 4.300000e-01    2.920000e+00
  SP5r  X3er  1 4.300000e-01    2.770000e+00
  SP5r  X2er  1 4.300000e-01    2.770000e+00
  SP5r  X1er  1 4.300000e-01    2.320000e+00
  SP4r   C6r  1 4.300000e-01    2.530000e+00
  SP4r   C5r  1 4.300000e-01    2.320000e+00
  SP4r   C4r  1 4.300000e-01    2.160000e+00
  SP4r   C3r  1 4.300000e-01    1.930000e+00
  SP4r   C2r  1 4.300000e-01    1.930000e+00
  SP4r   C1r  1 4.300000e-01    1.730000e+00
  SP4r   X4r  1 4.300000e-01    2.770000e+00
  SP4r   X3r  1 4.300000e-01    2.530000e+00
  SP4r   X2r  1 4.300000e-01    2.530000e+00
  SP4r   X1r  1 4.300000e-01    2.320000e+00
  SP4r  C6vr  1 4.300000e-01    2.770000e+00
  SP4r  C5vr  1 4.300000e-01    2.530000e+00
  SP4r  C4vr  1 4.300000e-01    2.320000e+00
  SP4r  C3vr  1 4.300000e-01    2.160000e+00
  SP4r  C2vr  1 4.300000e-01    2.160000e+00
  SP4r  C1vr  1 4.300000e-01    1.930000e+00
  SP4r  X4vr  1 4.300000e-01    2.920000e+00
  SP4r  X3vr  1 4.300000e-01    2.770000e+00
  SP4r  X2vr  1 4.300000e-01    2.770000e+00
  SP4r  X1vr  1 4.300000e-01    2.530000e+00
  SP4r  C6er  1 4.300000e-01    2.770000e+00
  SP4r  C5er  1 4.300000e-01    2.530000e+00
  SP4r  C4er  1 4.300000e-01    2.320000e+00
  SP4r  C3er  1 4.300000e-01    2.160000e+00
  SP4r  C2er  1 4.300000e-01    2.160000e+00
  SP4r  C1er  1 4.300000e-01    1.930000e+00
  SP4r  X4er  1 4.300000e-01    2.920000e+00
  SP4r  X3er  1 4.300000e-01    2.770000e+00
  SP4r  X2er  1 4.300000e-01    2.770000e+00
  SP4r  X1er  1 4.300000e-01    2.530000e+00
  SP3r   C6r  1 4.300000e-01    2.770000e+00
  SP3r   C5r  1 4.300000e-01    2.530000e+00
  SP3r   C4r  1 4.300000e-01    2.320000e+00
  SP3r   C3r  1 4.300000e-01    1.930000e+00
  SP3r   C2r  1 4.300000e-01    1.930000e+00
  SP3r   C1r  1 4.300000e-01    1.730000e+00
  SP3r   X4r  1 4.300000e-01    2.770000e+00
  SP3r   X3r  1 4.300000e-01    2.770000e+00
  SP3r   X2r  1 4.300000e-01    2.530000e+00
  SP3r   X1r  1 4.300000e-01    2.320000e+00
  SP3r  C6vr  1 4.300000e-01    2.920000e+00
  SP3r  C5vr  1 4.300000e-01    2.770000e+00
  SP3r  C4vr  1 4.300000e-01    2.530000e+00
  SP3r  C3vr  1 4.300000e-01    2.160000e+00
  SP3r  C2vr  1 4.300000e-01    2.160000e+00
  SP3r  C1vr  1 4.300000e-01    1.930000e+00
  SP3r  X4vr  1 4.300000e-01    2.920000e+00
  SP3r  X3vr  1 4.300000e-01    2.920000e+00
  SP3r  X2vr  1 4.300000e-01    2.770000e+00
  SP3r  X1vr  1 4.300000e-01    2.530000e+00
  SP3r  C6er  1 4.300000e-01    2.920000e+00
  SP3r  C5er  1 4.300000e-01    2.770000e+00
  SP3r  C4er  1 4.300000e-01    2.530000e+00
  SP3r  C3er  1 4.300000e-01    2.160000e+00
  SP3r  C2er  1 4.300000e-01    2.160000e+00
  SP3r  C1er  1 4.300000e-01    1.930000e+00
  SP3r  X4er  1 4.300000e-01    2.920000e+00
  SP3r  X3er  1 4.300000e-01    2.920000e+00
  SP3r  X2er  1 4.300000e-01    2.770000e+00
  SP3r  X1er  1 4.300000e-01    2.530000e+00
  SP2r   C6r  1 4.300000e-01    2.770000e+00
  SP2r   C5r  1 4.300000e-01    2.530000e+00
  SP2r   C4r  1 4.300000e-01    2.320000e+00
  SP2r   C3r  1 4.300000e-01    2.160000e+00
  SP2r   C2r  1 4.300000e-01    2.160000e+00
  SP2r   C1r  1 4.300000e-01    1.930000e+00
  SP2r   X4r  1 4.300000e-01    2.770000e+00
  SP2r   X3r  1 4.300000e-01    2.770000e+00
  SP2r   X2r  1 4.300000e-01    2.530000e+00
  SP2r   X1r  1 4.300000e-01    2.320000e+00
  SP2r  C6vr  1 4.300000e-01    2.920000e+00
  SP2r  C5vr  1 4.300000e-01    2.770000e+00
  SP2r  C4vr  1 4.300000e-01    2.530000e+00
  SP2r  C3vr  1 4.300000e-01    2.320000e+00
  SP2r  C2vr  1 4.300000e-01    2.320000e+00
  SP2r  C1vr  1 4.300000e-01    2.160000e+00
  SP2r  X4vr  1 4.300000e-01    2.920000e+00
  SP2r  X3vr  1 4.300000e-01    2.920000e+00
  SP2r  X2vr  1 4.300000e-01    2.770000e+00
  SP2r  X1vr  1 4.300000e-01    2.530000e+00
  SP2r  C6er  1 4.300000e-01    2.920000e+00
  SP2r  C5er  1 4.300000e-01    2.770000e+00
  SP2r  C4er  1 4.300000e-01    2.530000e+00
  SP2r  C3er  1 4.300000e-01    2.320000e+00
  SP2r  C2er  1 4.300000e-01    2.320000e+00
  SP2r  C1er  1 4.300000e-01    2.160000e+00
  SP2r  X4er  1 4.300000e-01    2.920000e+00
  SP2r  X3er  1 4.300000e-01    2.920000e+00
  SP2r  X2er  1 4.300000e-01    2.770000e+00
  SP2r  X1er  1 4.300000e-01    2.530000e+00
  SP1r   C6r  1 4.300000e-01    2.770000e+00
  SP1r   C5r  1 4.300000e-01    2.530000e+00
  SP1r   C4r  1 4.300000e-01    2.320000e+00
  SP1r   C3r  1 4.300000e-01    2.160000e+00
  SP1r   C2r  1 4.300000e-01    2.160000e+00
  SP1r   C1r  1 4.300000e-01    1.930000e+00
  SP1r   X4r  1 4.300000e-01    2.770000e+00
  SP1r   X3r  1 4.300000e-01    2.770000e+00
  SP1r   X2r  1 4.300000e-01    2.530000e+00
  SP1r   X1r  1 4.300000e-01    2.320000e+00
  SP1r  C6vr  1 4.300000e-01    2.920000e+00
  SP1r  C5vr  1 4.300000e-01    2.770000e+00
  SP1r  C4vr  1 4.300000e-01    2.530000e+00
  SP1r  C3vr  1 4.300000e-01    2.320000e+00
  SP1r  C2vr  1 4.300000e-01    2.320000e+00
  SP1r  C1vr  1 4.300000e-01    2.160000e+00
  SP1r  X4vr  1 4.300000e-01    2.920000e+00
  SP1r  X3vr  1 4.300000e-01    2.920000e+00
  SP1r  X2vr  1 4.300000e-01    2.770000e+00
  SP1r  X1vr  1 4.300000e-01    2.530000e+00
  SP1r  C6er  1 4.300000e-01    2.920000e+00
  SP1r  C5er  1 4.300000e-01    2.770000e+00
  SP1r  C4er  1 4.300000e-01    2.530000e+00
  SP1r  C3er  1 4.300000e-01    2.320000e+00
  SP1r  C2er  1 4.300000e-01    2.320000e+00
  SP1r  C1er  1 4.300000e-01    2.160000e+00
  SP1r  X4er  1 4.300000e-01    2.920000e+00
  SP1r  X3er  1 4.300000e-01    2.920000e+00
  SP1r  X2er  1 4.300000e-01    2.770000e+00
  SP1r  X1er  1 4.300000e-01    2.530000e+00
  SN6r   C6r  1 4.300000e-01    2.920000e+00
  SN6r   C5r  1 4.300000e-01    2.770000e+00
  SN6r   C4r  1 4.300000e-01    2.530000e+00
  SN6r   C3r  1 4.300000e-01    2.320000e+00
  SN6r   C2r  1 4.300000e-01    2.320000e+00
  SN6r   C1r  1 4.300000e-01    2.160000e+00
  SN6r   X4r  1 4.300000e-01    2.920000e+00
  SN6r   X3r  1 4.300000e-01    2.770000e+00
  SN6r   X2r  1 4.300000e-01    2.530000e+00
  SN6r   X1r  1 4.300000e-01    2.320000e+00
  SN6r  C6vr  1 4.300000e-01    3.160000e+00
  SN6r  C5vr  1 4.300000e-01    2.920000e+00
  SN6r  C4vr  1 4.300000e-01    2.770000e+00
  SN6r  C3vr  1 4.300000e-01    2.530000e+00
  SN6r  C2vr  1 4.300000e-01    2.530000e+00
  SN6r  C1vr  1 4.300000e-01    2.320000e+00
  SN6r  X4vr  1 4.300000e-01    3.160000e+00
  SN6r  X3vr  1 4.300000e-01    2.920000e+00
  SN6r  X2vr  1 4.300000e-01    2.770000e+00
  SN6r  X1vr  1 4.300000e-01    2.530000e+00
  SN6r  C6er  1 4.300000e-01    3.160000e+00
  SN6r  C5er  1 4.300000e-01    2.920000e+00
  SN6r  C4er  1 4.300000e-01    2.770000e+00
  SN6r  C3er  1 4.300000e-01    2.530000e+00
  SN6r  C2er  1 4.300000e-01    2.530000e+00
  SN6r  C1er  1 4.300000e-01    2.320000e+00
  SN6r  X4er  1 4.300000e-01    3.160000e+00
  SN6r  X3er  1 4.300000e-01    2.920000e+00
  SN6r  X2er  1 4.300000e-01    2.770000e+00
  SN6r  X1er  1 4.300000e-01    2.530000e+00
  SN5r   C6r  1 4.300000e-01    2.920000e+00
  SN5r   C5r  1 4.300000e-01    2.770000e+00
  SN5r   C4r  1 4.300000e-01    2.530000e+00
  SN5r   C3r  1 4.300000e-01    2.530000e+00
  SN5r   C2r  1 4.300000e-01    2.320000e+00
  SN5r   C1r  1 4.300000e-01    2.160000e+00
  SN5r   X4r  1 4.300000e-01    3.160000e+00
  SN5r   X3r  1 4.300000e-01    2.920000e+00
  SN5r   X2r  1 4.300000e-01    2.770000e+00
  SN5r   X1r  1 4.300000e-01    2.530000e+00
  SN5r  C6vr  1 4.300000e-01    3.160000e+00
  SN5r  C5vr  1 4.300000e-01    2.920000e+00
  SN5r  C4vr  1 4.300000e-01    2.770000e+00
  SN5r  C3vr  1 4.300000e-01    2.770000e+00
  SN5r  C2vr  1 4.300000e-01    2.530000e+00
  SN5r  C1vr  1 4.300000e-01    2.320000e+00
  SN5r  X4vr  1 4.300000e-01    3.380000e+00
  SN5r  X3vr  1 4.300000e-01    3.160000e+00
  SN5r  X2vr  1 4.300000e-01    2.920000e+00
  SN5r  X1vr  1 4.300000e-01    2.770000e+00
  SN5r  C6er  1 4.300000e-01    3.160000e+00
  SN5r  C5er  1 4.300000e-01    2.920000e+00
  SN5r  C4er  1 4.300000e-01    2.770000e+00
  SN5r  C3er  1 4.300000e-01    2.770000e+00
  SN5r  C2er  1 4.300000e-01    2.530000e+00
  SN5r  C1er  1 4.300000e-01    2.320000e+00
  SN5r  X4er  1 4.300000e-01    3.380000e+00
  SN5r  X3er  1 4.300000e-01    3.160000e+00
  SN5r  X2er  1 4.300000e-01    2.920000e+00
  SN5r  X1er  1 4.300000e-01    2.770000e+00
  SN4r   C6r  1 4.300000e-01    2.920000e+00
  SN4r   C5r  1 4.300000e-01    2.770000e+00
  SN4r   C4r  1 4.300000e-01    2.770000e+00
  SN4r   C3r  1 4.300000e-01    2.530000e+00
  SN4r   C2r  1 4.300000e-01    2.320000e+00
  SN4r   C1r  1 4.300000e-01    2.160000e+00
  SN4r   X4r  1 4.300000e-01    3.380000e+00
  SN4r   X3r  1 4.300000e-01    3.160000e+00
  SN4r   X2r  1 4.300000e-01    2.770000e+00
  SN4r   X1r  1 4.300000e-01    2.530000e+00
  SN4r  C6vr  1 4.300000e-01    3.160000e+00
  SN4r  C5vr  1 4.300000e-01    2.920000e+00
  SN4r  C4vr  1 4.300000e-01    2.920000e+00
  SN4r  C3vr  1 4.300000e-01    2.770000e+00
  SN4r  C2vr  1 4.300000e-01    2.530000e+00
  SN4r  C1vr  1 4.300000e-01    2.320000e+00
  SN4r  X4vr  1 4.300000e-01    3.590000e+00
  SN4r  X3vr  1 4.300000e-01    3.380000e+00
  SN4r  X2vr  1 4.300000e-01    2.920000e+00
  SN4r  X1vr  1 4.300000e-01    2.770000e+00
  SN4r  C6er  1 4.300000e-01    3.160000e+00
  SN4r  C5er  1 4.300000e-01    2.920000e+00
  SN4r  C4er  1 4.300000e-01    2.920000e+00
  SN4r  C3er  1 4.300000e-01    2.770000e+00
  SN4r  C2er  1 4.300000e-01    2.530000e+00
  SN4r  C1er  1 4.300000e-01    2.320000e+00
  SN4r  X4er  1 4.300000e-01    3.590000e+00
  SN4r  X3er  1 4.300000e-01    3.380000e+00
  SN4r  X2er  1 4.300000e-01    2.920000e+00
  SN4r  X1er  1 4.300000e-01    2.770000e+00
  SN3r   C6r  1 4.300000e-01    2.920000e+00
  SN3r   C5r  1 4.300000e-01    2.770000e+00
  SN3r   C4r  1 4.300000e-01    2.770000e+00
  SN3r   C3r  1 4.300000e-01    2.530000e+00
  SN3r   C2r  1 4.300000e-01    2.530000e+00
  SN3r   C1r  1 4.300000e-01    2.320000e+00
  SN3r   X4r  1 4.300000e-01    3.160000e+00
  SN3r   X3r  1 4.300000e-01    2.920000e+00
  SN3r   X2r  1 4.300000e-01    2.770000e+00
  SN3r   X1r  1 4.300000e-01    2.770000e+00
  SN3r  C6vr  1 4.300000e-01    3.160000e+00
  SN3r  C5vr  1 4.300000e-01    2.920000e+00
  SN3r  C4vr  1 4.300000e-01    2.920000e+00
  SN3r  C3vr  1 4.300000e-01    2.770000e+00
  SN3r  C2vr  1 4.300000e-01    2.770000e+00
  SN3r  C1vr  1 4.300000e-01    2.530000e+00
  SN3r  X4vr  1 4.300000e-01    3.380000e+00
  SN3r  X3vr  1 4.300000e-01    3.160000e+00
  SN3r  X2vr  1 4.300000e-01    2.920000e+00
  SN3r  X1vr  1 4.300000e-01    2.920000e+00
  SN3r  C6er  1 4.300000e-01    3.160000e+00
  SN3r  C5er  1 4.300000e-01    2.920000e+00
  SN3r  C4er  1 4.300000e-01    2.920000e+00
  SN3r  C3er  1 4.300000e-01    2.770000e+00
  SN3r  C2er  1 4.300000e-01    2.770000e+00
  SN3r  C1er  1 4.300000e-01    2.530000e+00
  SN3r  X4er  1 4.300000e-01    3.380000e+00
  SN3r  X3er  1 4.300000e-01    3.160000e+00
  SN3r  X2er  1 4.300000e-01    2.920000e+00
  SN3r  X1er  1 4.300000e-01    2.920000e+00
  SN2r   C6r  1 4.300000e-01    2.920000e+00
  SN2r   C5r  1 4.300000e-01    2.770000e+00
  SN2r   C4r  1 4.300000e-01    2.770000e+00
  SN2r   C3r  1 4.300000e-01    2.770000e+00
  SN2r   C2r  1 4.300000e-01    2.530000e+00
  SN2r   C1r  1 4.300000e-01    2.320000e+00
  SN2r   X4r  1 4.300000e-01    3.160000e+00
  SN2r   X3r  1 4.300000e-01    2.920000e+00
  SN2r   X2r  1 4.300000e-01    2.770000e+00
  SN2r   X1r  1 4.300000e-01    2.770000e+00
  SN2r  C6vr  1 4.300000e-01    3.160000e+00
  SN2r  C5vr  1 4.300000e-01    2.920000e+00
  SN2r  C4vr  1 4.300000e-01    2.920000e+00
  SN2r  C3vr  1 4.300000e-01    2.920000e+00
  SN2r  C2vr  1 4.300000e-01    2.770000e+00
  SN2r  C1vr  1 4.300000e-01    2.530000e+00
  SN2r  X4vr  1 4.300000e-01    3.380000e+00
  SN2r  X3vr  1 4.300000e-01    3.160000e+00
  SN2r  X2vr  1 4.300000e-01    2.920000e+00
  SN2r  X1vr  1 4.300000e-01    2.920000e+00
  SN2r  C6er  1 4.300000e-01    3.160000e+00
  SN2r  C5er  1 4.300000e-01    2.920000e+00
  SN2r  C4er  1 4.300000e-01    2.920000e+00
  SN2r  C3er  1 4.300000e-01    2.920000e+00
  SN2r  C2er  1 4.300000e-01    2.770000e+00
  SN2r  C1er  1 4.300000e-01    2.530000e+00
  SN2r  X4er  1 4.300000e-01    3.380000e+00
  SN2r  X3er  1 4.300000e-01    3.160000e+00
  SN2r  X2er  1 4.300000e-01    2.920000e+00
  SN2r  X1er  1 4.300000e-01    2.920000e+00
  SN1r   C6r  1 4.300000e-01    3.160000e+00
  SN1r   C5r  1 4.300000e-01    2.920000e+00
  SN1r   C4r  1 4.300000e-01    2.920000e+00
  SN1r   C3r  1 4.300000e-01    2.770000e+00
  SN1r   C2r  1 4.300000e-01    2.530000e+00
  SN1r   C1r  1 4.300000e-01    2.320000e+00
  SN1r   X4r  1 4.300000e-01    2.920000e+00
  SN1r   X3r  1 4.300000e-01    2.920000e+00
  SN1r   X2r  1 4.300000e-01    2.770000e+00
  SN1r   X1r  1 4.300000e-01    2.770000e+00
  SN1r  C6vr  1 4.300000e-01    3.380000e+00
  SN1r  C5vr  1 4.300000e-01    3.160000e+00
  SN1r  C4vr  1 4.300000e-01    3.160000e+00
  SN1r  C3vr  1 4.300000e-01    2.920000e+00
  SN1r  C2vr  1 4.300000e-01    2.770000e+00
  SN1r  C1vr  1 4.300000e-01    2.530000e+00
  SN1r  X4vr  1 4.300000e-01    3.160000e+00
  SN1r  X3vr  1 4.300000e-01    3.160000e+00
  SN1r  X2vr  1 4.300000e-01    2.920000e+00
  SN1r  X1vr  1 4.300000e-01    2.920000e+00
  SN1r  C6er  1 4.300000e-01    3.380000e+00
  SN1r  C5er  1 4.300000e-01    3.160000e+00
  SN1r  C4er  1 4.300000e-01    3.160000e+00
  SN1r  C3er  1 4.300000e-01    2.920000e+00
  SN1r  C2er  1 4.300000e-01    2.770000e+00
  SN1r  C1er  1 4.300000e-01    2.530000e+00
  SN1r  X4er  1 4.300000e-01    3.160000e+00
  SN1r  X3er  1 4.300000e-01    3.160000e+00
  SN1r  X2er  1 4.300000e-01    2.920000e+00
  SN1r  X1er  1 4.300000e-01    2.920000e+00
 SP6dr   C6r  1 4.300000e-01    2.320000e+00
 SP6dr   C5r  1 4.300000e-01    2.160000e+00
 SP6dr   C4r  1 4.300000e-01    1.930000e+00
 SP6dr   C3r  1 4.300000e-01    1.730000e+00
 SP6dr   C2r  1 4.300000e-01    1.730000e+00
 SP6dr   C1r  1 4.730000e-01    1.280000e+00
 SP6dr   X4r  1 4.300000e-01    2.530000e+00
 SP6dr   X3r  1 4.300000e-01    2.530000e+00
 SP6dr   X2r  1 4.300000e-01    2.320000e+00
 SP6dr   X1r  1 4.300000e-01    2.160000e+00
 SP5dr   C6r  1 4.300000e-01    2.320000e+00
 SP5dr   C5r  1 4.300000e-01    2.320000e+00
 SP5dr   C4r  1 4.300000e-01    2.160000e+00
 SP5dr   C3r  1 4.300000e-01    1.930000e+00
 SP5dr   C2r  1 4.300000e-01    1.930000e+00
 SP5dr   C1r  1 4.300000e-01    1.730000e+00
 SP5dr   X4r  1 4.300000e-01    2.770000e+00
 SP5dr   X3r  1 4.300000e-01    2.530000e+00
 SP5dr   X2r  1 4.300000e-01    2.530000e+00
 SP5dr   X1r  1 4.300000e-01    2.160000e+00
 SP4dr   C6r  1 4.300000e-01    2.530000e+00
 SP4dr   C5r  1 4.300000e-01    2.320000e+00
 SP4dr   C4r  1 4.300000e-01    2.160000e+00
 SP4dr   C3r  1 4.300000e-01    1.930000e+00
 SP4dr   C2r  1 4.300000e-01    1.930000e+00
 SP4dr   C1r  1 4.300000e-01    1.730000e+00
 SP4dr   X4r  1 4.300000e-01    2.770000e+00
 SP4dr   X3r  1 4.300000e-01    2.530000e+00
 SP4dr   X2r  1 4.300000e-01    2.530000e+00
 SP4dr   X1r  1 4.300000e-01    2.320000e+00
 SP3dr   C6r  1 4.300000e-01    2.770000e+00
 SP3dr   C5r  1 4.300000e-01    2.530000e+00
 SP3dr   C4r  1 4.300000e-01    2.320000e+00
 SP3dr   C3r  1 4.300000e-01    1.930000e+00
 SP3dr   C2r  1 4.300000e-01    1.930000e+00
 SP3dr   C1r  1 4.300000e-01    1.730000e+00
 SP3dr   X4r  1 4.300000e-01    2.770000e+00
 SP3dr   X3r  1 4.300000e-01    2.770000e+00
 SP3dr   X2r  1 4.300000e-01    2.530000e+00
 SP3dr   X1r  1 4.300000e-01    2.320000e+00
 SP2dr   C6r  1 4.300000e-01    2.770000e+00
 SP2dr   C5r  1 4.300000e-01    2.530000e+00
 SP2dr   C4r  1 4.300000e-01    2.320000e+00
 SP2dr   C3r  1 4.300000e-01    2.160000e+00
 SP2dr   C2r  1 4.300000e-01    2.160000e+00
 SP2dr   C1r  1 4.300000e-01    1.930000e+00
 SP2dr   X4r  1 4.300000e-01    2.770000e+00
 SP2dr   X3r  1 4.300000e-01    2.770000e+00
 SP2dr   X2r  1 4.300000e-01    2.530000e+00
 SP2dr   X1r  1 4.300000e-01    2.320000e+00
 SP1dr   C6r  1 4.300000e-01    2.770000e+00
 SP1dr   C5r  1 4.300000e-01    2.530000e+00
 SP1dr   C4r  1 4.300000e-01    2.320000e+00
 SP1dr   C3r  1 4.300000e-01    2.160000e+00
 SP1dr   C2r  1 4.300000e-01    2.160000e+00
 SP1dr   C1r  1 4.300000e-01    1.930000e+00
 SP1dr   X4r  1 4.300000e-01    2.770000e+00
 SP1dr   X3r  1 4.300000e-01    2.770000e+00
 SP1dr   X2r  1 4.300000e-01    2.530000e+00
 SP1dr   X1r  1 4.300000e-01    2.320000e+00
 SN6dr   C6r  1 4.300000e-01    2.920000e+00
 SN6dr   C5r  1 4.300000e-01    2.770000e+00
 SN6dr   C4r  1 4.300000e-01    2.530000e+00
 SN6dr   C3r  1 4.300000e-01    2.320000e+00
 SN6dr   C2r  1 4.300000e-01    2.320000e+00
 SN6dr   C1r  1 4.300000e-01    2.160000e+00
 SN6dr   X4r  1 4.300000e-01    2.920000e+00
 SN6dr   X3r  1 4.300000e-01    2.770000e+00
 SN6dr   X2r  1 4.300000e-01    2.530000e+00
 SN6dr   X1r  1 4.300000e-01    2.320000e+00
 SN5dr   C6r  1 4.300000e-01    2.920000e+00
 SN5dr   C5r  1 4.300000e-01    2.770000e+00
 SN5dr   C4r  1 4.300000e-01    2.530000e+00
 SN5dr   C3r  1 4.300000e-01    2.530000e+00
 SN5dr   C2r  1 4.300000e-01    2.320000e+00
 SN5dr   C1r  1 4.300000e-01    2.160000e+00
 SN5dr   X4r  1 4.300000e-01    3.160000e+00
 SN5dr   X3r  1 4.300000e-01    2.920000e+00
 SN5dr   X2r  1 4.300000e-01    2.770000e+00
 SN5dr   X1r  1 4.300000e-01    2.530000e+00
 SN4dr   C6r  1 4.300000e-01    2.920000e+00
 SN4dr   C5r  1 4.300000e-01    2.770000e+00
 SN4dr   C4r  1 4.300000e-01    2.770000e+00
 SN4dr   C3r  1 4.300000e-01    2.530000e+00
 SN4dr   C2r  1 4.300000e-01    2.320000e+00
 SN4dr   C1r  1 4.300000e-01    2.160000e+00
 SN4dr   X4r  1 4.300000e-01    3.380000e+00
 SN4dr   X3r  1 4.300000e-01    3.160000e+00
 SN4dr   X2r  1 4.300000e-01    2.770000e+00
 SN4dr   X1r  1 4.300000e-01    2.530000e+00
 SN3dr   C6r  1 4.300000e-01    2.920000e+00
 SN3dr   C5r  1 4.300000e-01    2.770000e+00
 SN3dr   C4r  1 4.300000e-01    2.770000e+00
 SN3dr   C3r  1 4.300000e-01    2.530000e+00
 SN3dr   C2r  1 4.300000e-01    2.530000e+00
 SN3dr   C1r  1 4.300000e-01    2.320000e+00
 SN3dr   X4r  1 4.300000e-01    3.160000e+00
 SN3dr   X3r  1 4.300000e-01    2.920000e+00
 SN3dr   X2r  1 4.300000e-01    2.770000e+00
 SN3dr   X1r  1 4.300000e-01    2.770000e+00
 SN2dr   C6r  1 4.300000e-01    2.920000e+00
 SN2dr   C5r  1 4.300000e-01    2.770000e+00
 SN2dr   C4r  1 4.300000e-01    2.770000e+00
 SN2dr   C3r  1 4.300000e-01    2.770000e+00
 SN2dr   C2r  1 4.300000e-01    2.530000e+00
 SN2dr   C1r  1 4.300000e-01    2.320000e+00
 SN2dr   X4r  1 4.300000e-01    3.160000e+00
 SN2dr   X3r  1 4.300000e-01    2.920000e+00
 SN2dr   X2r  1 4.300000e-01    2.770000e+00
 SN2dr   X1r  1 4.300000e-01    2.770000e+00
 SN1dr   C6r  1 4.300000e-01    3.160000e+00
 SN1dr   C5r  1 4.300000e-01    2.920000e+00
 SN1dr   C4r  1 4.300000e-01    2.920000e+00
 SN1dr   C3r  1 4.300000e-01    2.770000e+00
 SN1dr   C2r  1 4.300000e-01    2.530000e+00
 SN1dr   C1r  1 4.300000e-01    2.320000e+00
 SN1dr   X4r  1 4.300000e-01    2.920000e+00
 SN1dr   X3r  1 4.300000e-01    2.920000e+00
 SN1dr   X2r  1 4.300000e-01    2.770000e+00
 SN1dr   X1r  1 4.300000e-01    2.770000e+00
 SP6ar   C6r  1 4.300000e-01    2.320000e+00
 SP6ar   C5r  1 4.300000e-01    2.160000e+00
 SP6ar   C4r  1 4.300000e-01    1.930000e+00
 SP6ar   C3r  1 4.300000e-01    1.730000e+00
 SP6ar   C2r  1 4.300000e-01    1.730000e+00
 SP6ar   C1r  1 4.730000e-01    1.280000e+00
 SP6ar   X4r  1 4.300000e-01    2.530000e+00
 SP6ar   X3r  1 4.300000e-01    2.530000e+00
 SP6ar   X2r  1 4.300000e-01    2.320000e+00
 SP6ar   X1r  1 4.300000e-01    2.160000e+00
 SP5ar   C6r  1 4.300000e-01    2.320000e+00
 SP5ar   C5r  1 4.300000e-01    2.320000e+00
 SP5ar   C4r  1 4.300000e-01    2.160000e+00
 SP5ar   C3r  1 4.300000e-01    1.930000e+00
 SP5ar   C2r  1 4.300000e-01    1.930000e+00
 SP5ar   C1r  1 4.300000e-01    1.730000e+00
 SP5ar   X4r  1 4.300000e-01    2.770000e+00
 SP5ar   X3r  1 4.300000e-01    2.530000e+00
 SP5ar   X2r  1 4.300000e-01    2.530000e+00
 SP5ar   X1r  1 4.300000e-01    2.160000e+00
 SP4ar   C6r  1 4.300000e-01    2.530000e+00
 SP4ar   C5r  1 4.300000e-01    2.320000e+00
 SP4ar   C4r  1 4.300000e-01    2.160000e+00
 SP4ar   C3r  1 4.300000e-01    1.930000e+00
 SP4ar   C2r  1 4.300000e-01    1.930000e+00
 SP4ar   C1r  1 4.300000e-01    1.730000e+00
 SP4ar   X4r  1 4.300000e-01    2.770000e+00
 SP4ar   X3r  1 4.300000e-01    2.530000e+00
 SP4ar   X2r  1 4.300000e-01    2.530000e+00
 SP4ar   X1r  1 4.300000e-01    2.320000e+00
 SP3ar   C6r  1 4.300000e-01    2.770000e+00
 SP3ar   C5r  1 4.300000e-01    2.530000e+00
 SP3ar   C4r  1 4.300000e-01    2.320000e+00
 SP3ar   C3r  1 4.300000e-01    1.930000e+00
 SP3ar   C2r  1 4.300000e-01    1.930000e+00
 SP3ar   C1r  1 4.300000e-01    1.730000e+00
 SP3ar   X4r  1 4.300000e-01    2.770000e+00
 SP3ar   X3r  1 4.300000e-01    2.770000e+00
 SP3ar   X2r  1 4.300000e-01    2.530000e+00
 SP3ar   X1r  1 4.300000e-01    2.320000e+00
 SP2ar   C6r  1 4.300000e-01    2.770000e+00
 SP2ar   C5r  1 4.300000e-01    2.530000e+00
 SP2ar   C4r  1 4.300000e-01    2.320000e+00
 SP2ar   C3r  1 4.300000e-01    2.160000e+00
 SP2ar   C2r  1 4.300000e-01    2.160000e+00
 SP2ar   C1r  1 4.300000e-01    1.930000e+00
 SP2ar   X4r  1 4.300000e-01    2.770000e+00
 SP2ar   X3r  1 4.300000e-01    2.770000e+00
 SP2ar   X2r  1 4.300000e-01    2.530000e+00
 SP2ar   X1r  1 4.300000e-01    2.320000e+00
 SP1ar   C6r  1 4.300000e-01    2.770000e+00
 SP1ar   C5r  1 4.300000e-01    2.530000e+00
 SP1ar   C4r  1 4.300000e-01    2.320000e+00
 SP1ar   C3r  1 4.300000e-01    2.160000e+00
 SP1ar   C2r  1 4.300000e-01    2.160000e+00
 SP1ar   C1r  1 4.300000e-01    1.930000e+00
 SP1ar   X4r  1 4.300000e-01    2.770000e+00
 SP1ar   X3r  1 4.300000e-01    2.770000e+00
 SP1ar   X2r  1 4.300000e-01    2.530000e+00
 SP1ar   X1r  1 4.300000e-01    2.320000e+00
 SN6ar   C6r  1 4.300000e-01    2.920000e+00
 SN6ar   C5r  1 4.300000e-01    2.770000e+00
 SN6ar   C4r  1 4.300000e-01    2.530000e+00
 SN6ar   C3r  1 4.300000e-01    2.320000e+00
 SN6ar   C2r  1 4.300000e-01    2.320000e+00
 SN6ar   C1r  1 4.300000e-01    2.160000e+00
 SN6ar   X4r  1 4.300000e-01    2.920000e+00
 SN6ar   X3r  1 4.300000e-01    2.770000e+00
 SN6ar   X2r  1 4.300000e-01    2.530000e+00
 SN6ar   X1r  1 4.300000e-01    2.320000e+00
 SN5ar   C6r  1 4.300000e-01    2.920000e+00
 SN5ar   C5r  1 4.300000e-01    2.770000e+00
 SN5ar   C4r  1 4.300000e-01    2.530000e+00
 SN5ar   C3r  1 4.300000e-01    2.530000e+00
 SN5ar   C2r  1 4.300000e-01    2.320000e+00
 SN5ar   C1r  1 4.300000e-01    2.160000e+00
 SN5ar   X4r  1 4.300000e-01    3.160000e+00
 SN5ar   X3r  1 4.300000e-01    2.920000e+00
 SN5ar   X2r  1 4.300000e-01    2.770000e+00
 SN5ar   X1r  1 4.300000e-01    2.530000e+00
 SN4ar   C6r  1 4.300000e-01    2.920000e+00
 SN4ar   C5r  1 4.300000e-01    2.770000e+00
 SN4ar   C4r  1 4.300000e-01    2.770000e+00
 SN4ar   C3r  1 4.300000e-01    2.530000e+00
 SN4ar   C2r  1 4.300000e-01    2.320000e+00
 SN4ar   C1r  1 4.300000e-01    2.160000e+00
 SN4ar   X4r  1 4.300000e-01    3.380000e+00
 SN4ar   X3r  1 4.300000e-01    3.160000e+00
 SN4ar   X2r  1 4.300000e-01    2.770000e+00
 SN4ar   X1r  1 4.300000e-01    2.530000e+00
 SN3ar   C6r  1 4.300000e-01    2.920000e+00
 SN3ar   C5r  1 4.300000e-01    2.770000e+00
 SN3ar   C4r  1 4.300000e-01    2.770000e+00
 SN3ar   C3r  1 4.300000e-01    2.530000e+00
 SN3ar   C2r  1 4.300000e-01    2.530000e+00
 SN3ar   C1r  1 4.300000e-01    2.320000e+00
 SN3ar   X4r  1 4.300000e-01    3.160000e+00
 SN3ar   X3r  1 4.300000e-01    2.920000e+00
 SN3ar   X2r  1 4.300000e-01    2.770000e+00
 SN3ar   X1r  1 4.300000e-01    2.770000e+00
 SN2ar   C6r  1 4.300000e-01    2.920000e+00
 SN2ar   C5r  1 4.300000e-01    2.770000e+00
 SN2ar   C4r  1 4.300000e-01    2.770000e+00
 SN2ar   C3r  1 4.300000e-01    2.770000e+00
 SN2ar   C2r  1 4.300000e-01    2.530000e+00
 SN2ar   C1r  1 4.300000e-01    2.320000e+00
 SN2ar   X4r  1 4.300000e-01    3.160000e+00
 SN2ar   X3r  1 4.300000e-01    2.920000e+00
 SN2ar   X2r  1 4.300000e-01    2.770000e+00
 SN2ar   X1r  1 4.300000e-01    2.770000e+00
 SN1ar   C6r  1 4.300000e-01    3.160000e+00
 SN1ar   C5r  1 4.300000e-01    2.920000e+00
 SN1ar   C4r  1 4.300000e-01    2.920000e+00
 SN1ar   C3r  1 4.300000e-01    2.770000e+00
 SN1ar   C2r  1 4.300000e-01    2.530000e+00
 SN1ar   C1r  1 4.300000e-01    2.320000e+00
 SN1ar   X4r  1 4.300000e-01    2.920000e+00
 SN1ar   X3r  1 4.300000e-01    2.920000e+00
 SN1ar   X2r  1 4.300000e-01    2.770000e+00
 SN1ar   X1r  1 4.300000e-01    2.770000e+00
  SP6h   P5h  1 4.300000e-01    4.680000e+00
  SP6h   P4h  1 4.300000e-01    4.400000e+00
  SP6h   P3h  1 4.300000e-01    4.170000e+00
  SP6h   P2h  1 4.300000e-01    4.170000e+00
  SP6h   P1h  1 4.300000e-01    3.970000e+00
  SP6h   N6h  1 4.300000e-01    3.770000e+00
  SP6h   N5h  1 4.300000e-01    3.380000e+00
  SP6h   N4h  1 4.300000e-01    3.160000e+00
  SP6h   N3h  1 4.300000e-01    2.920000e+00
  SP6h   N2h  1 4.300000e-01    2.770000e+00
  SP6h   N1h  1 4.300000e-01    2.530000e+00
  SP6h  P6dh  1 4.300000e-01    4.920000e+00
  SP6h  P5dh  1 4.300000e-01    4.680000e+00
  SP6h  P4dh  1 4.300000e-01    4.400000e+00
  SP6h  P3dh  1 4.300000e-01    4.170000e+00
  SP6h  P2dh  1 4.300000e-01    4.170000e+00
  SP6h  P1dh  1 4.300000e-01    3.970000e+00
  SP6h  N6dh  1 4.300000e-01    3.770000e+00
  SP6h  N5dh  1 4.300000e-01    3.380000e+00
  SP6h  N4dh  1 4.300000e-01    3.160000e+00
  SP6h  N3dh  1 4.300000e-01    2.920000e+00
  SP6h  N2dh  1 4.300000e-01    2.770000e+00
  SP6h  N1dh  1 4.300000e-01    2.530000e+00
  SP6h  P6ah  1 4.300000e-01    4.920000e+00
  SP6h  P5ah  1 4.300000e-01    4.680000e+00
  SP6h  P4ah  1 4.300000e-01    4.400000e+00
  SP6h  P3ah  1 4.300000e-01    4.170000e+00
  SP6h  P2ah  1 4.300000e-01    4.170000e+00
  SP6h  P1ah  1 4.300000e-01    3.970000e+00
  SP6h  N6ah  1 4.300000e-01    3.770000e+00
  SP6h  N5ah  1 4.300000e-01    3.380000e+00
  SP6h  N4ah  1 4.300000e-01    3.160000e+00
  SP6h  N3ah  1 4.300000e-01    2.920000e+00
  SP6h  N2ah  1 4.300000e-01    2.770000e+00
  SP6h  N1ah  1 4.300000e-01    2.530000e+00
  SP5h   P4h  1 4.300000e-01    4.170000e+00
  SP5h   P3h  1 4.300000e-01    3.970000e+00
  SP5h   P2h  1 4.300000e-01    3.970000e+00
  SP5h   P1h  1 4.300000e-01    3.770000e+00
  SP5h   N6h  1 4.300000e-01    3.590000e+00
  SP5h   N5h  1 4.300000e-01    3.380000e+00
  SP5h   N4h  1 4.300000e-01    3.380000e+00
  SP5h   N3h  1 4.300000e-01    2.920000e+00
  SP5h   N2h  1 4.300000e-01    2.770000e+00
  SP5h   N1h  1 4.300000e-01    2.530000e+00
  SP5h  P5dh  1 4.300000e-01    4.400000e+00
  SP5h  P4dh  1 4.300000e-01    4.170000e+00
  SP5h  P3dh  1 4.300000e-01    3.970000e+00
  SP5h  P2dh  1 4.300000e-01    3.970000e+00
  SP5h  P1dh  1 4.300000e-01    3.770000e+00
  SP5h  N6dh  1 4.300000e-01    3.590000e+00
  SP5h  N5dh  1 4.300000e-01    3.380000e+00
  SP5h  N4dh  1 4.300000e-01    3.380000e+00
  SP5h  N3dh  1 4.300000e-01    2.920000e+00
  SP5h  N2dh  1 4.300000e-01    2.770000e+00
  SP5h  N1dh  1 4.300000e-01    2.530000e+00
  SP5h  P5ah  1 4.300000e-01    4.400000e+00
  SP5h  P4ah  1 4.300000e-01    4.170000e+00
  SP5h  P3ah  1 4.300000e-01    3.970000e+00
  SP5h  P2ah  1 4.300000e-01    3.970000e+00
  SP5h  P1ah  1 4.300000e-01    3.770000e+00
  SP5h  N6ah  1 4.300000e-01    3.590000e+00
  SP5h  N5ah  1 4.300000e-01    3.380000e+00
  SP5h  N4ah  1 4.300000e-01    3.380000e+00
  SP5h  N3ah  1 4.300000e-01    2.920000e+00
  SP5h  N2ah  1 4.300000e-01    2.770000e+00
  SP5h  N1ah  1 4.300000e-01    2.530000e+00
  SP4h   P3h  1 4.300000e-01    3.970000e+00
  SP4h   P2h  1 4.300000e-01    3.970000e+00
  SP4h   P1h  1 4.300000e-01    3.770000e+00
  SP4h   N6h  1 4.300000e-01    3.590000e+00
  SP4h   N5h  1 4.300000e-01    3.380000e+00
  SP4h   N4h  1 4.300000e-01    3.380000e+00
  SP4h   N3h  1 4.300000e-01    3.160000e+00
  SP4h   N2h  1 4.300000e-01    2.920000e+00
  SP4h   N1h  1 4.300000e-01    2.770000e+00
  SP4h  P4dh  1 4.300000e-01    4.170000e+00
  SP4h  P3dh  1 4.300000e-01    3.970000e+00
  SP4h  P2dh  1 4.300000e-01    3.970000e+00
  SP4h  P1dh  1 4.300000e-01    3.770000e+00
  SP4h  N6dh  1 4.300000e-01    3.590000e+00
  SP4h  N5dh  1 4.300000e-01    3.380000e+00
  SP4h  N4dh  1 4.300000e-01    3.380000e+00
  SP4h  N3dh  1 4.300000e-01    3.160000e+00
  SP4h  N2dh  1 4.300000e-01    2.920000e+00
  SP4h  N1dh  1 4.300000e-01    2.770000e+00
  SP4h  P4ah  1 4.300000e-01    4.170000e+00
  SP4h  P3ah  1 4.300000e-01    3.970000e+00
  SP4h  P2ah  1 4.300000e-01    3.970000e+00
  SP4h  P1ah  1 4.300000e-01    3.770000e+00
  SP4h  N6ah  1 4.300000e-01    3.590000e+00
  SP4h  N5ah  1 4.300000e-01    3.380000e+00
  SP4h  N4ah  1 4.300000e-01    3.380000e+00
  SP4h  N3ah  1 4.300000e-01    3.160000e+00
  SP4h  N2ah  1 4.300000e-01    2.920000e+00
  SP4h  N1ah  1 4.300000e-01    2.770000e+00
  SP3h   P2h  1 4.300000e-01    3.970000e+00
  SP3h   P1h  1 4.300000e-01    3.770000e+00
  SP3h   N6h  1 4.300000e-01    3.590000e+00
  SP3h   N5h  1 4.300000e-01    3.380000e+00
  SP3h   N4h  1 4.300000e-01    3.380000e+00
  SP3h   N3h  1 4.300000e-01    3.160000e+00
  SP3h   N2h  1 4.300000e-01    3.160000e+00
  SP3h   N1h  1 4.300000e-01    2.920000e+00
  SP3h  P3dh  1 4.300000e-01    3.970000e+00
  SP3h  P2dh  1 4.300000e-01    3.970000e+00
  SP3h  P1dh  1 4.300000e-01    3.770000e+00
  SP3h  N6dh  1 4.300000e-01    3.590000e+00
  SP3h  N5dh  1 4.300000e-01    3.380000e+00
  SP3h  N4dh  1 4.300000e-01    3.380000e+00
  SP3h  N3dh  1 4.300000e-01    3.160000e+00
  SP3h  N2dh  1 4.300000e-01    3.160000e+00
  SP3h  N1dh  1 4.300000e-01    2.920000e+00
  SP3h  P3ah  1 4.300000e-01    3.970000e+00
  SP3h  P2ah  1 4.300000e-01    3.970000e+00
  SP3h  P1ah  1 4.300000e-01    3.770000e+00
  SP3h  N6ah  1 4.300000e-01    3.590000e+00
  SP3h  N5ah  1 4.300000e-01    3.380000e+00
  SP3h  N4ah  1 4.300000e-01    3.380000e+00
  SP3h  N3ah  1 4.300000e-01    3.160000e+00
  SP3h  N2ah  1 4.300000e-01    3.160000e+00
  SP3h  N1ah  1 4.300000e-01    2.920000e+00
  SP2h   P1h  1 4.300000e-01    3.770000e+00
  SP2h   N6h  1 4.300000e-01    3.770000e+00
  SP2h   N5h  1 4.300000e-01    3.590000e+00
  SP2h   N4h  1 4.300000e-01    3.380000e+00
  SP2h   N3h  1 4.300000e-01    3.160000e+00
  SP2h   N2h  1 4.300000e-01    3.160000e+00
  SP2h   N1h  1 4.300000e-01    3.160000e+00
  SP2h  P2dh  1 4.300000e-01    3.970000e+00
  SP2h  P1dh  1 4.300000e-01    3.770000e+00
  SP2h  N6dh  1 4.300000e-01    3.770000e+00
  SP2h  N5dh  1 4.300000e-01    3.590000e+00
  SP2h  N4dh  1 4.300000e-01    3.380000e+00
  SP2h  N3dh  1 4.300000e-01    3.160000e+00
  SP2h  N2dh  1 4.300000e-01    3.160000e+00
  SP2h  N1dh  1 4.300000e-01    3.160000e+00
  SP2h  P2ah  1 4.300000e-01    3.970000e+00
  SP2h  P1ah  1 4.300000e-01    3.770000e+00
  SP2h  N6ah  1 4.300000e-01    3.770000e+00
  SP2h  N5ah  1 4.300000e-01    3.590000e+00
  SP2h  N4ah  1 4.300000e-01    3.380000e+00
  SP2h  N3ah  1 4.300000e-01    3.160000e+00
  SP2h  N2ah  1 4.300000e-01    3.160000e+00
  SP2h  N1ah  1 4.300000e-01    3.160000e+00
  SP1h   N6h  1 4.300000e-01    3.770000e+00
  SP1h   N5h  1 4.300000e-01    3.590000e+00
  SP1h   N4h  1 4.300000e-01    3.590000e+00
  SP1h   N3h  1 4.300000e-01    3.160000e+00
  SP1h   N2h  1 4.300000e-01    3.160000e+00
  SP1h   N1h  1 4.300000e-01    3.160000e+00
  SP1h  P1dh  1 4.300000e-01    3.770000e+00
  SP1h  N6dh  1 4.300000e-01    3.770000e+00
  SP1h  N5dh  1 4.300000e-01    3.590000e+00
  SP1h  N4dh  1 4.300000e-01    3.590000e+00
  SP1h  N3dh  1 4.300000e-01    3.160000e+00
  SP1h  N2dh  1 4.300000e-01    3.160000e+00
  SP1h  N1dh  1 4.300000e-01    3.160000e+00
  SP1h  P1ah  1 4.300000e-01    3.770000e+00
  SP1h  N6ah  1 4.300000e-01    3.770000e+00
  SP1h  N5ah  1 4.300000e-01    3.590000e+00
  SP1h  N4ah  1 4.300000e-01    3.590000e+00
  SP1h  N3ah  1 4.300000e-01    3.160000e+00
  SP1h  N2ah  1 4.300000e-01    3.160000e+00
  SP1h  N1ah  1 4.300000e-01    3.160000e+00
  SN6h   N5h  1 4.300000e-01    3.770000e+00
  SN6h   N4h  1 4.300000e-01    3.770000e+00
  SN6h   N3h  1 4.300000e-01    3.380000e+00
  SN6h   N2h  1 4.300000e-01    3.160000e+00
  SN6h   N1h  1 4.300000e-01    3.160000e+00
  SN6h  N6dh  1 4.300000e-01    3.770000e+00
  SN6h  N5dh  1 4.300000e-01    3.770000e+00
  SN6h  N4dh  1 4.300000e-01    3.770000e+00
  SN6h  N3dh  1 4.300000e-01    3.380000e+00
  SN6h  N2dh  1 4.300000e-01    3.160000e+00
  SN6h  N1dh  1 4.300000e-01    3.160000e+00
  SN6h  N6ah  1 4.300000e-01    3.770000e+00
  SN6h  N5ah  1 4.300000e-01    3.770000e+00
  SN6h  N4ah  1 4.300000e-01    3.770000e+00
  SN6h  N3ah  1 4.300000e-01    3.380000e+00
  SN6h  N2ah  1 4.300000e-01    3.160000e+00
  SN6h  N1ah  1 4.300000e-01    3.160000e+00
  SN5h   N4h  1 4.300000e-01    3.590000e+00
  SN5h   N3h  1 4.300000e-01    3.380000e+00
  SN5h   N2h  1 4.300000e-01    3.380000e+00
  SN5h   N1h  1 4.300000e-01    3.160000e+00
  SN5h  N5dh  1 4.300000e-01    3.590000e+00
  SN5h  N4dh  1 4.300000e-01    3.590000e+00
  SN5h  N3dh  1 4.300000e-01    3.380000e+00
  SN5h  N2dh  1 4.300000e-01    3.380000e+00
  SN5h  N1dh  1 4.300000e-01    3.160000e+00
  SN5h  N5ah  1 4.300000e-01    3.590000e+00
  SN5h  N4ah  1 4.300000e-01    3.590000e+00
  SN5h  N3ah  1 4.300000e-01    3.380000e+00
  SN5h  N2ah  1 4.300000e-01    3.380000e+00
  SN5h  N1ah  1 4.300000e-01    3.160000e+00
  SN4h   N3h  1 4.300000e-01    3.380000e+00
  SN4h   N2h  1 4.300000e-01    3.380000e+00
  SN4h   N1h  1 4.300000e-01    3.160000e+00
  SN4h  N4dh  1 4.300000e-01    3.590000e+00
  SN4h  N3dh  1 4.300000e-01    3.380000e+00
  SN4h  N2dh  1 4.300000e-01    3.380000e+00
  SN4h  N1dh  1 4.300000e-01    3.160000e+00
  SN4h  N4ah  1 4.300000e-01    3.590000e+00
  SN4h  N3ah  1 4.300000e-01    3.380000e+00
  SN4h  N2ah  1 4.300000e-01    3.380000e+00
  SN4h  N1ah  1 4.300000e-01    3.160000e+00
  SN3h   N2h  1 4.300000e-01    3.380000e+00
  SN3h   N1h  1 4.300000e-01    3.160000e+00
  SN3h  N3dh  1 4.300000e-01    3.380000e+00
  SN3h  N2dh  1 4.300000e-01    3.380000e+00
  SN3h  N1dh  1 4.300000e-01    3.160000e+00
  SN3h  N3ah  1 4.300000e-01    3.380000e+00
  SN3h  N2ah  1 4.300000e-01    3.380000e+00
  SN3h  N1ah  1 4.300000e-01    3.160000e+00
  SN2h   N1h  1 4.300000e-01    3.160000e+00
  SN2h  N2dh  1 4.300000e-01    3.380000e+00
  SN2h  N1dh  1 4.300000e-01    3.160000e+00
  SN2h  N2ah  1 4.300000e-01    3.380000e+00
  SN2h  N1ah  1 4.300000e-01    3.160000e+00
  SN1h  N1dh  1 4.300000e-01    3.380000e+00
  SN1h  N1ah  1 4.300000e-01    3.380000e+00
 SP6dh   P5h  1 4.300000e-01    4.680000e+00
 SP6dh   P4h  1 4.300000e-01    4.400000e+00
 SP6dh   P3h  1 4.300000e-01    4.170000e+00
 SP6dh   P2h  1 4.300000e-01    4.170000e+00
 SP6dh   P1h  1 4.300000e-01    3.970000e+00
 SP6dh   N6h  1 4.300000e-01    3.770000e+00
 SP6dh   N5h  1 4.300000e-01    3.380000e+00
 SP6dh   N4h  1 4.300000e-01    3.160000e+00
 SP6dh   N3h  1 4.300000e-01    2.920000e+00
 SP6dh   N2h  1 4.300000e-01    2.770000e+00
 SP6dh   N1h  1 4.300000e-01    2.530000e+00
 SP5dh   P4h  1 4.300000e-01    4.170000e+00
 SP5dh   P3h  1 4.300000e-01    3.970000e+00
 SP5dh   P2h  1 4.300000e-01    3.970000e+00
 SP5dh   P1h  1 4.300000e-01    3.770000e+00
 SP5dh   N6h  1 4.300000e-01    3.590000e+00
 SP5dh   N5h  1 4.300000e-01    3.380000e+00
 SP5dh   N4h  1 4.300000e-01    3.380000e+00
 SP5dh   N3h  1 4.300000e-01    2.920000e+00
 SP5dh   N2h  1 4.300000e-01    2.770000e+00
 SP5dh   N1h  1 4.300000e-01    2.530000e+00
 SP4dh   P3h  1 4.300000e-01    3.970000e+00
 SP4dh   P2h  1 4.300000e-01    3.970000e+00
 SP4dh   P1h  1 4.300000e-01    3.770000e+00
 SP4dh   N6h  1 4.300000e-01    3.590000e+00
 SP4dh   N5h  1 4.300000e-01    3.380000e+00
 SP4dh   N4h  1 4.300000e-01    3.380000e+00
 SP4dh   N3h  1 4.300000e-01    3.160000e+00
 SP4dh   N2h  1 4.300000e-01    2.920000e+00
 SP4dh   N1h  1 4.300000e-01    2.770000e+00
 SP3dh   P2h  1 4.300000e-01    3.970000e+00
 SP3dh   P1h  1 4.300000e-01    3.770000e+00
 SP3dh   N6h  1 4.300000e-01    3.590000e+00
 SP3dh   N5h  1 4.300000e-01    3.380000e+00
 SP3dh   N4h  1 4.300000e-01    3.380000e+00
 SP3dh   N3h  1 4.300000e-01    3.160000e+00
 SP3dh   N2h  1 4.300000e-01    3.160000e+00
 SP3dh   N1h  1 4.300000e-01    2.920000e+00
 SP2dh   P1h  1 4.300000e-01    3.770000e+00
 SP2dh   N6h  1 4.300000e-01    3.770000e+00
 SP2dh   N5h  1 4.300000e-01    3.590000e+00
 SP2dh   N4h  1 4.300000e-01    3.380000e+00
 SP2dh   N3h  1 4.300000e-01    3.160000e+00
 SP2dh   N2h  1 4.300000e-01    3.160000e+00
 SP2dh   N1h  1 4.300000e-01    3.160000e+00
 SP1dh   N6h  1 4.300000e-01    3.770000e+00
 SP1dh   N5h  1 4.300000e-01    3.590000e+00
 SP1dh   N4h  1 4.300000e-01    3.590000e+00
 SP1dh   N3h  1 4.300000e-01    3.160000e+00
 SP1dh   N2h  1 4.300000e-01    3.160000e+00
 SP1dh   N1h  1 4.300000e-01    3.160000e+00
 SN6dh   N5h  1 4.300000e-01    3.770000e+00
 SN6dh   N4h  1 4.300000e-01    3.770000e+00
 SN6dh   N3h  1 4.300000e-01    3.380000e+00
 SN6dh   N2h  1 4.300000e-01    3.160000e+00
 SN6dh   N1h  1 4.300000e-01    3.160000e+00
 SN5dh   N4h  1 4.300000e-01    3.590000e+00
 SN5dh   N3h  1 4.300000e-01    3.380000e+00
 SN5dh   N2h  1 4.300000e-01    3.380000e+00
 SN5dh   N1h  1 4.300000e-01    3.160000e+00
 SN4dh   N3h  1 4.300000e-01    3.380000e+00
 SN4dh   N2h  1 4.300000e-01    3.380000e+00
 SN4dh   N1h  1 4.300000e-01    3.160000e+00
 SN3dh   N2h  1 4.300000e-01    3.380000e+00
 SN3dh   N1h  1 4.300000e-01    3.160000e+00
 SN2dh   N1h  1 4.300000e-01    3.160000e+00
 SP6ah   P5h  1 4.300000e-01    4.680000e+00
 SP6ah   P4h  1 4.300000e-01    4.400000e+00
 SP6ah   P3h  1 4.300000e-01    4.170000e+00
 SP6ah   P2h  1 4.300000e-01    4.170000e+00
 SP6ah   P1h  1 4.300000e-01    3.970000e+00
 SP6ah   N6h  1 4.300000e-01    3.770000e+00
 SP6ah   N5h  1 4.300000e-01    3.380000e+00
 SP6ah   N4h  1 4.300000e-01    3.160000e+00
 SP6ah   N3h  1 4.300000e-01    2.920000e+00
 SP6ah   N2h  1 4.300000e-01    2.770000e+00
 SP6ah   N1h  1 4.300000e-01    2.530000e+00
 SP5ah   P4h  1 4.300000e-01    4.170000e+00
 SP5ah   P3h  1 4.300000e-01    3.970000e+00
 SP5ah   P2h  1 4.300000e-01    3.970000e+00
 SP5ah   P1h  1 4.300000e-01    3.770000e+00
 SP5ah   N6h  1 4.300000e-01    3.590000e+00
 SP5ah   N5h  1 4.300000e-01    3.380000e+00
 SP5ah   N4h  1 4.300000e-01    3.380000e+00
 SP5ah   N3h  1 4.300000e-01    2.920000e+00
 SP5ah   N2h  1 4.300000e-01    2.770000e+00
 SP5ah   N1h  1 4.300000e-01    2.530000e+00
 SP4ah   P3h  1 4.300000e-01    3.970000e+00
 SP4ah   P2h  1 4.300000e-01    3.970000e+00
 SP4ah   P1h  1 4.300000e-01    3.770000e+00
 SP4ah   N6h  1 4.300000e-01    3.590000e+00
 SP4ah   N5h  1 4.300000e-01    3.380000e+00
 SP4ah   N4h  1 4.300000e-01    3.380000e+00
 SP4ah   N3h  1 4.300000e-01    3.160000e+00
 SP4ah   N2h  1 4.300000e-01    2.920000e+00
 SP4ah   N1h  1 4.300000e-01    2.770000e+00
 SP3ah   P2h  1 4.300000e-01    3.970000e+00
 SP3ah   P1h  1 4.300000e-01    3.770000e+00
 SP3ah   N6h  1 4.300000e-01    3.590000e+00
 SP3ah   N5h  1 4.300000e-01    3.380000e+00
 SP3ah   N4h  1 4.300000e-01    3.380000e+00
 SP3ah   N3h  1 4.300000e-01    3.160000e+00
 SP3ah   N2h  1 4.300000e-01    3.160000e+00
 SP3ah   N1h  1 4.300000e-01    2.920000e+00
 SP2ah   P1h  1 4.300000e-01    3.770000e+00
 SP2ah   N6h  1 4.300000e-01    3.770000e+00
 SP2ah   N5h  1 4.300000e-01    3.590000e+00
 SP2ah   N4h  1 4.300000e-01    3.380000e+00
 SP2ah   N3h  1 4.300000e-01    3.160000e+00
 SP2ah   N2h  1 4.300000e-01    3.160000e+00
 SP2ah   N1h  1 4.300000e-01    3.160000e+00
 SP1ah   N6h  1 4.300000e-01    3.770000e+00
 SP1ah   N5h  1 4.300000e-01    3.590000e+00
 SP1ah   N4h  1 4.300000e-01    3.590000e+00
 SP1ah   N3h  1 4.300000e-01    3.160000e+00
 SP1ah   N2h  1 4.300000e-01    3.160000e+00
 SP1ah   N1h  1 4.300000e-01    3.160000e+00
 SN6ah   N5h  1 4.300000e-01    3.770000e+00
 SN6ah   N4h  1 4.300000e-01    3.770000e+00
 SN6ah   N3h  1 4.300000e-01    3.380000e+00
 SN6ah   N2h  1 4.300000e-01    3.160000e+00
 SN6ah   N1h  1 4.300000e-01    3.160000e+00
 SN5ah   N4h  1 4.300000e-01    3.590000e+00
 SN5ah   N3h  1 4.300000e-01    3.380000e+00
 SN5ah   N2h  1 4.300000e-01    3.380000e+00
 SN5ah   N1h  1 4.300000e-01    3.160000e+00
 SN4ah   N3h  1 4.300000e-01    3.380000e+00
 SN4ah   N2h  1 4.300000e-01    3.380000e+00
 SN4ah   N1h  1 4.300000e-01    3.160000e+00
 SN3ah   N2h  1 4.300000e-01    3.380000e+00
 SN3ah   N1h  1 4.300000e-01    3.160000e+00
 SN2ah   N1h  1 4.300000e-01    3.160000e+00
  SC6h   C5h  1 4.300000e-01    3.160000e+00
  SC6h   C4h  1 4.300000e-01    3.160000e+00
  SC6h   C3h  1 4.300000e-01    2.920000e+00
  SC6h   C2h  1 4.300000e-01    2.770000e+00
  SC6h   C1h  1 4.300000e-01    2.530000e+00
  SC6h   X4h  1 4.300000e-01    3.160000e+00
  SC6h   X3h  1 4.300000e-01    3.160000e+00
  SC6h   X2h  1 4.300000e-01    3.160000e+00
  SC6h   X1h  1 4.300000e-01    3.160000e+00
  SC6h  C6vh  1 4.300000e-01    3.590000e+00
  SC6h  C5vh  1 4.300000e-01    3.380000e+00
  SC6h  C4vh  1 4.300000e-01    3.380000e+00
  SC6h  C3vh  1 4.300000e-01    3.160000e+00
  SC6h  C2vh  1 4.300000e-01    2.920000e+00
  SC6h  C1vh  1 4.300000e-01    2.770000e+00
  SC6h  X4vh  1 4.300000e-01    3.380000e+00
  SC6h  X3vh  1 4.300000e-01    3.380000e+00
  SC6h  X2vh  1 4.300000e-01    3.380000e+00
  SC6h  X1vh  1 4.300000e-01    3.380000e+00
  SC6h  C6eh  1 4.300000e-01    3.590000e+00
  SC6h  C5eh  1 4.300000e-01    3.380000e+00
  SC6h  C4eh  1 4.300000e-01    3.380000e+00
  SC6h  C3eh  1 4.300000e-01    3.160000e+00
  SC6h  C2eh  1 4.300000e-01    2.920000e+00
  SC6h  C1eh  1 4.300000e-01    2.770000e+00
  SC6h  X4eh  1 4.300000e-01    3.380000e+00
  SC6h  X3eh  1 4.300000e-01    3.380000e+00
  SC6h  X2eh  1 4.300000e-01    3.380000e+00
  SC6h  X1eh  1 4.300000e-01    3.380000e+00
  SC5h   C4h  1 4.300000e-01    3.160000e+00
  SC5h   C3h  1 4.300000e-01    2.920000e+00
  SC5h   C2h  1 4.300000e-01    2.770000e+00
  SC5h   C1h  1 4.300000e-01    2.770000e+00
  SC5h   X4h  1 4.300000e-01    2.920000e+00
  SC5h   X3h  1 4.300000e-01    2.920000e+00
  SC5h   X2h  1 4.300000e-01    2.920000e+00
  SC5h   X1h  1 4.300000e-01    3.160000e+00
  SC5h  C5vh  1 4.300000e-01    3.380000e+00
  SC5h  C4vh  1 4.300000e-01    3.380000e+00
  SC5h  C3vh  1 4.300000e-01    3.160000e+00
  SC5h  C2vh  1 4.300000e-01    2.920000e+00
  SC5h  C1vh  1 4.300000e-01    2.920000e+00
  SC5h  X4vh  1 4.300000e-01    3.160000e+00
  SC5h  X3vh  1 4.300000e-01    3.160000e+00
  SC5h  X2vh  1 4.300000e-01    3.160000e+00
  SC5h  X1vh  1 4.300000e-01    3.380000e+00
  SC5h  C5eh  1 4.300000e-01    3.380000e+00
  SC5h  C4eh  1 4.300000e-01    3.380000e+00
  SC5h  C3eh  1 4.300000e-01    3.160000e+00
  SC5h  C2eh  1 4.300000e-01    2.920000e+00
  SC5h  C1eh  1 4.300000e-01    2.920000e+00
  SC5h  X4eh  1 4.300000e-01    3.160000e+00
  SC5h  X3eh  1 4.300000e-01    3.160000e+00
  SC5h  X2eh  1 4.300000e-01    3.160000e+00
  SC5h  X1eh  1 4.300000e-01    3.380000e+00
  SC4h   C3h  1 4.300000e-01    3.160000e+00
  SC4h   C2h  1 4.300000e-01    2.920000e+00
  SC4h   C1h  1 4.300000e-01    2.770000e+00
  SC4h   X4h  1 4.300000e-01    2.920000e+00
  SC4h   X3h  1 4.300000e-01    2.920000e+00
  SC4h   X2h  1 4.300000e-01    2.920000e+00
  SC4h   X1h  1 4.300000e-01    3.160000e+00
  SC4h  C4vh  1 4.300000e-01    3.380000e+00
  SC4h  C3vh  1 4.300000e-01    3.380000e+00
  SC4h  C2vh  1 4.300000e-01    3.160000e+00
  SC4h  C1vh  1 4.300000e-01    2.920000e+00
  SC4h  X4vh  1 4.300000e-01    3.160000e+00
  SC4h  X3vh  1 4.300000e-01    3.160000e+00
  SC4h  X2vh  1 4.300000e-01    3.160000e+00
  SC4h  X1vh  1 4.300000e-01    3.380000e+00
  SC4h  C4eh  1 4.300000e-01    3.380000e+00
  SC4h  C3eh  1 4.300000e-01    3.380000e+00
  SC4h  C2eh  1 4.300000e-01    3.160000e+00
  SC4h  C1eh  1 4.300000e-01    2.920000e+00
  SC4h  X4eh  1 4.300000e-01    3.160000e+00
  SC4h  X3eh  1 4.300000e-01    3.160000e+00
  SC4h  X2eh  1 4.300000e-01    3.160000e+00
  SC4h  X1eh  1 4.300000e-01    3.380000e+00
  SC3h   C2h  1 4.300000e-01    3.160000e+00
  SC3h   C1h  1 4.300000e-01    3.160000e+00
  SC3h   X4h  1 4.300000e-01    2.920000e+00
  SC3h   X3h  1 4.300000e-01    2.920000e+00
  SC3h   X2h  1 4.300000e-01    2.920000e+00
  SC3h   X1h  1 4.300000e-01    3.160000e+00
  SC3h  C3vh  1 4.300000e-01    3.380000e+00
  SC3h  C2vh  1 4.300000e-01    3.380000e+00
  SC3h  C1vh  1 4.300000e-01    3.380000e+00
  SC3h  X4vh  1 4.300000e-01    3.160000e+00
  SC3h  X3vh  1 4.300000e-01    3.160000e+00
  SC3h  X2vh  1 4.300000e-01    3.160000e+00
  SC3h  X1vh  1 4.300000e-01    3.380000e+00
  SC3h  C3eh  1 4.300000e-01    3.380000e+00
  SC3h  C2eh  1 4.300000e-01    3.380000e+00
  SC3h  C1eh  1 4.300000e-01    3.380000e+00
  SC3h  X4eh  1 4.300000e-01    3.160000e+00
  SC3h  X3eh  1 4.300000e-01    3.160000e+00
  SC3h  X2eh  1 4.300000e-01    3.160000e+00
  SC3h  X1eh  1 4.300000e-01    3.380000e+00
  SC2h   C1h  1 4.300000e-01    3.380000e+00
  SC2h   X4h  1 4.300000e-01    2.530000e+00
  SC2h   X3h  1 4.300000e-01    2.920000e+00
  SC2h   X2h  1 4.300000e-01    2.920000e+00
  SC2h   X1h  1 4.300000e-01    2.920000e+00
  SC2h  C2vh  1 4.300000e-01    3.380000e+00
  SC2h  C1vh  1 4.300000e-01    3.590000e+00
  SC2h  X4vh  1 4.300000e-01    2.770000e+00
  SC2h  X3vh  1 4.300000e-01    3.160000e+00
  SC2h  X2vh  1 4.300000e-01    3.160000e+00
  SC2h  X1vh  1 4.300000e-01    3.160000e+00
  SC2h  C2eh  1 4.300000e-01    3.380000e+00
  SC2h  C1eh  1 4.300000e-01    3.590000e+00
  SC2h  X4eh  1 4.300000e-01    2.770000e+00
  SC2h  X3eh  1 4.300000e-01    3.160000e+00
  SC2h  X2eh  1 4.300000e-01    3.160000e+00
  SC2h  X1eh  1 4.300000e-01    3.160000e+00
  SC1h   X4h  1 4.300000e-01    2.530000e+00
  SC1h   X3h  1 4.300000e-01    2.920000e+00
  SC1h   X2h  1 4.300000e-01    2.920000e+00
  SC1h   X1h  1 4.300000e-01    2.920000e+00
  SC1h  C1vh  1 4.300000e-01    3.380000e+00
  SC1h  X4vh  1 4.300000e-01    2.770000e+00
  SC1h  X3vh  1 4.300000e-01    3.160000e+00
  SC1h  X2vh  1 4.300000e-01    3.160000e+00
  SC1h  X1vh  1 4.300000e-01    3.160000e+00
  SC1h  C1eh  1 4.300000e-01    3.380000e+00
  SC1h  X4eh  1 4.300000e-01    2.770000e+00
  SC1h  X3eh  1 4.300000e-01    3.160000e+00
  SC1h  X2eh  1 4.300000e-01    3.160000e+00
  SC1h  X1eh  1 4.300000e-01    3.160000e+00
  SX4h   X3h  1 4.300000e-01    3.160000e+00
  SX4h   X2h  1 4.300000e-01    3.160000e+00
  SX4h   X1h  1 4.300000e-01    3.160000e+00
  SX4h  X4vh  1 4.300000e-01    3.380000e+00
  SX4h  X3vh  1 4.300000e-01    3.380000e+00
  SX4h  X2vh  1 4.300000e-01    3.380000e+00
  SX4h  X1vh  1 4.300000e-01    3.380000e+00
  SX4h  X4eh  1 4.300000e-01    3.380000e+00
  SX4h  X3eh  1 4.300000e-01    3.380000e+00
  SX4h  X2eh  1 4.300000e-01    3.380000e+00
  SX4h  X1eh  1 4.300000e-01    3.380000e+00
  SX3h   X2h  1 4.300000e-01    3.380000e+00
  SX3h   X1h  1 4.300000e-01    3.380000e+00
  SX3h  X3vh  1 4.300000e-01    3.380000e+00
  SX3h  X2vh  1 4.300000e-01    3.590000e+00
  SX3h  X1vh  1 4.300000e-01    3.590000e+00
  SX3h  X3eh  1 4.300000e-01    3.380000e+00
  SX3h  X2eh  1 4.300000e-01    3.590000e+00
  SX3h  X1eh  1 4.300000e-01    3.590000e+00
  SX2h   X1h  1 4.300000e-01    3.380000e+00
  SX2h  X2vh  1 4.300000e-01    3.590000e+00
  SX2h  X1vh  1 4.300000e-01    3.590000e+00
  SX2h  X2eh  1 4.300000e-01    3.590000e+00
  SX2h  X1eh  1 4.300000e-01    3.590000e+00
  SX1h  X1vh  1 4.300000e-01    3.770000e+00
  SX1h  X1eh  1 4.300000e-01    3.770000e+00
 SC6vh   C5h  1 4.300000e-01    3.380000e+00
 SC6vh   C4h  1 4.300000e-01    3.380000e+00
 SC6vh   C3h  1 4.300000e-01    3.160000e+00
 SC6vh   C2h  1 4.300000e-01    2.920000e+00
 SC6vh   C1h  1 4.300000e-01    2.770000e+00
 SC6vh   X4h  1 4.300000e-01    3.380000e+00
 SC6vh   X3h  1 4.300000e-01    3.380000e+00
 SC6vh   X2h  1 4.300000e-01    3.380000e+00
 SC6vh   X1h  1 4.300000e-01    3.380000e+00
 SC6vh  C5vh  1 4.300000e-01    2.920000e+00
 SC6vh  C4vh  1 4.300000e-01    2.920000e+00
 SC6vh  C3vh  1 4.300000e-01    2.770000e+00
 SC6vh  C2vh  1 4.300000e-01    2.530000e+00
 SC6vh  C1vh  1 4.300000e-01    2.320000e+00
 SC6vh  X4vh  1 4.300000e-01    2.920000e+00
 SC6vh  X3vh  1 4.300000e-01    2.920000e+00
 SC6vh  X2vh  1 4.300000e-01    2.920000e+00
 SC6vh  X1vh  1 4.300000e-01    2.920000e+00
 SC5vh   C4h  1 4.300000e-01    3.380000e+00
 SC5vh   C3h  1 4.300000e-01    3.160000e+00
 SC5vh   C2h  1 4.300000e-01    2.920000e+00
 SC5vh   C1h  1 4.300000e-01    2.920000e+00
 SC5vh   X4h  1 4.300000e-01    3.160000e+00
 SC5vh   X3h  1 4.300000e-01    3.160000e+00
 SC5vh   X2h  1 4.300000e-01    3.160000e+00
 SC5vh   X1h  1 4.300000e-01    3.380000e+00
 SC5vh  C4vh  1 4.300000e-01    2.920000e+00
 SC5vh  C3vh  1 4.300000e-01    2.770000e+00
 SC5vh  C2vh  1 4.300000e-01    2.530000e+00
 SC5vh  C1vh  1 4.300000e-01    2.530000e+00
 SC5vh  X4vh  1 4.300000e-01    2.770000e+00
 SC5vh  X3vh  1 4.300000e-01    2.770000e+00
 SC5vh  X2vh  1 4.300000e-01    2.770000e+00
 SC5vh  X1vh  1 4.300000e-01    2.920000e+00
 SC4vh   C3h  1 4.300000e-01    3.380000e+00
 SC4vh   C2h  1 4.300000e-01    3.160000e+00
 SC4vh   C1h  1 4.300000e-01    2.920000e+00
 SC4vh   X4h  1 4.300000e-01    3.160000e+00
 SC4vh   X3h  1 4.300000e-01    3.160000e+00
 SC4vh   X2h  1 4.300000e-01    3.160000e+00
 SC4vh   X1h  1 4.300000e-01    3.380000e+00
 SC4vh  C3vh  1 4.300000e-01    2.920000e+00
 SC4vh  C2vh  1 4.300000e-01    2.770000e+00
 SC4vh  C1vh  1 4.300000e-01    2.530000e+00
 SC4vh  X4vh  1 4.300000e-01    2.770000e+00
 SC4vh  X3vh  1 4.300000e-01    2.770000e+00
 SC4vh  X2vh  1 4.300000e-01    2.770000e+00
 SC4vh  X1vh  1 4.300000e-01    2.920000e+00
 SC3vh   C2h  1 4.300000e-01    3.380000e+00
 SC3vh   C1h  1 4.300000e-01    3.380000e+00
 SC3vh   X4h  1 4.300000e-01    3.160000e+00
 SC3vh   X3h  1 4.300000e-01    3.160000e+00
 SC3vh   X2h  1 4.300000e-01    3.160000e+00
 SC3vh   X1h  1 4.300000e-01    3.380000e+00
 SC3vh  C2vh  1 4.300000e-01    2.920000e+00
 SC3vh  C1vh  1 4.300000e-01    2.920000e+00
 SC3vh  X4vh  1 4.300000e-01    2.770000e+00
 SC3vh  X3vh  1 4.300000e-01    2.770000e+00
 SC3vh  X2vh  1 4.300000e-01    2.770000e+00
 SC3vh  X1vh  1 4.300000e-01    2.920000e+00
 SC2vh   C1h  1 4.300000e-01    3.590000e+00
 SC2vh   X4h  1 4.300000e-01    2.770000e+00
 SC2vh   X3h  1 4.300000e-01    3.160000e+00
 SC2vh   X2h  1 4.300000e-01    3.160000e+00
 SC2vh   X1h  1 4.300000e-01    3.160000e+00
 SC2vh  C1vh  1 4.300000e-01    3.160000e+00
 SC2vh  X4vh  1 4.300000e-01    2.320000e+00
 SC2vh  X3vh  1 4.300000e-01    2.770000e+00
 SC2vh  X2vh  1 4.300000e-01    2.770000e+00
 SC2vh  X1vh  1 4.300000e-01    2.770000e+00
 SC1vh   X4h  1 4.300000e-01    2.770000e+00
 SC1vh   X3h  1 4.300000e-01    3.160000e+00
 SC1vh   X2h  1 4.300000e-01    3.160000e+00
 SC1vh   X1h  1 4.300000e-01    3.160000e+00
 SC1vh  X4vh  1 4.300000e-01    2.320000e+00
 SC1vh  X3vh  1 4.300000e-01    2.770000e+00
 SC1vh  X2vh  1 4.300000e-01    2.770000e+00
 SC1vh  X1vh  1 4.300000e-01    2.770000e+00
 SX4vh   X3h  1 4.300000e-01    3.380000e+00
 SX4vh   X2h  1 4.300000e-01    3.380000e+00
 SX4vh   X1h  1 4.300000e-01    3.380000e+00
 SX4vh  X3vh  1 4.300000e-01    2.920000e+00
 SX4vh  X2vh  1 4.300000e-01    2.920000e+00
 SX4vh  X1vh  1 4.300000e-01    2.920000e+00
 SX3vh   X2h  1 4.300000e-01    3.590000e+00
 SX3vh   X1h  1 4.300000e-01    3.590000e+00
 SX3vh  X2vh  1 4.300000e-01    3.160000e+00
 SX3vh  X1vh  1 4.300000e-01    3.160000e+00
 SX2vh   X1h  1 4.300000e-01    3.590000e+00
 SX2vh  X1vh  1 4.300000e-01    3.160000e+00
 SC6eh   C5h  1 4.300000e-01    3.380000e+00
 SC6eh   C4h  1 4.300000e-01    3.380000e+00
 SC6eh   C3h  1 4.300000e-01    3.160000e+00
 SC6eh   C2h  1 4.300000e-01    2.920000e+00
 SC6eh   C1h  1 4.300000e-01    2.770000e+00
 SC6eh   X4h  1 4.300000e-01    3.380000e+00
 SC6eh   X3h  1 4.300000e-01    3.380000e+00
 SC6eh   X2h  1 4.300000e-01    3.380000e+00
 SC6eh   X1h  1 4.300000e-01    3.380000e+00
 SC6eh  C5eh  1 4.300000e-01    2.920000e+00
 SC6eh  C4eh  1 4.300000e-01    2.920000e+00
 SC6eh  C3eh  1 4.300000e-01    2.770000e+00
 SC6eh  C2eh  1 4.300000e-01    2.530000e+00
 SC6eh  C1eh  1 4.300000e-01    2.320000e+00
 SC6eh  X4eh  1 4.300000e-01    2.920000e+00
 SC6eh  X3eh  1 4.300000e-01    2.920000e+00
 SC6eh  X2eh  1 4.300000e-01    2.920000e+00
 SC6eh  X1eh  1 4.300000e-01    2.920000e+00
 SC5eh   C4h  1 4.300000e-01    3.380000e+00
 SC5eh   C3h  1 4.300000e-01    3.160000e+00
 SC5eh   C2h  1 4.300000e-01    2.920000e+00
 SC5eh   C1h  1 4.300000e-01    2.920000e+00
 SC5eh   X4h  1 4.300000e-01    3.160000e+00
 SC5eh   X3h  1 4.300000e-01    3.160000e+00
 SC5eh   X2h  1 4.300000e-01    3.160000e+00
 SC5eh   X1h  1 4.300000e-01    3.380000e+00
 SC5eh  C4eh  1 4.300000e-01    2.920000e+00
 SC5eh  C3eh  1 4.300000e-01    2.770000e+00
 SC5eh  C2eh  1 4.300000e-01    2.530000e+00
 SC5eh  C1eh  1 4.300000e-01    2.530000e+00
 SC5eh  X4eh  1 4.300000e-01    2.770000e+00
 SC5eh  X3eh  1 4.300000e-01    2.770000e+00
 SC5eh  X2eh  1 4.300000e-01    2.770000e+00
 SC5eh  X1eh  1 4.300000e-01    2.920000e+00
 SC4eh   C3h  1 4.300000e-01    3.380000e+00
 SC4eh   C2h  1 4.300000e-01    3.160000e+00
 SC4eh   C1h  1 4.300000e-01    2.920000e+00
 SC4eh   X4h  1 4.300000e-01    3.160000e+00
 SC4eh   X3h  1 4.300000e-01    3.160000e+00
 SC4eh   X2h  1 4.300000e-01    3.160000e+00
 SC4eh   X1h  1 4.300000e-01    3.380000e+00
 SC4eh  C3eh  1 4.300000e-01    2.920000e+00
 SC4eh  C2eh  1 4.300000e-01    2.770000e+00
 SC4eh  C1eh  1 4.300000e-01    2.530000e+00
 SC4eh  X4eh  1 4.300000e-01    2.770000e+00
 SC4eh  X3eh  1 4.300000e-01    2.770000e+00
 SC4eh  X2eh  1 4.300000e-01    2.770000e+00
 SC4eh  X1eh  1 4.300000e-01    2.920000e+00
 SC3eh   C2h  1 4.300000e-01    3.380000e+00
 SC3eh   C1h  1 4.300000e-01    3.380000e+00
 SC3eh   X4h  1 4.300000e-01    3.160000e+00
 SC3eh   X3h  1 4.300000e-01    3.160000e+00
 SC3eh   X2h  1 4.300000e-01    3.160000e+00
 SC3eh   X1h  1 4.300000e-01    3.380000e+00
 SC3eh  C2eh  1 4.300000e-01    2.920000e+00
 SC3eh  C1eh  1 4.300000e-01    2.920000e+00
 SC3eh  X4eh  1 4.300000e-01    2.770000e+00
 SC3eh  X3eh  1 4.300000e-01    2.770000e+00
 SC3eh  X2eh  1 4.300000e-01    2.770000e+00
 SC3eh  X1eh  1 4.300000e-01    2.920000e+00
 SC2eh   C1h  1 4.300000e-01    3.590000e+00
 SC2eh   X4h  1 4.300000e-01    2.770000e+00
 SC2eh   X3h  1 4.300000e-01    3.160000e+00
 SC2eh   X2h  1 4.300000e-01    3.160000e+00
 SC2eh   X1h  1 4.300000e-01    3.160000e+00
 SC2eh  C1eh  1 4.300000e-01    3.160000e+00
 SC2eh  X4eh  1 4.300000e-01    2.320000e+00
 SC2eh  X3eh  1 4.300000e-01    2.770000e+00
 SC2eh  X2eh  1 4.300000e-01    2.770000e+00
 SC2eh  X1eh  1 4.300000e-01    2.770000e+00
 SC1eh   X4h  1 4.300000e-01    2.770000e+00
 SC1eh   X3h  1 4.300000e-01    3.160000e+00
 SC1eh   X2h  1 4.300000e-01    3.160000e+00
 SC1eh   X1h  1 4.300000e-01    3.160000e+00
 SC1eh  X4eh  1 4.300000e-01    2.320000e+00
 SC1eh  X3eh  1 4.300000e-01    2.770000e+00
 SC1eh  X2eh  1 4.300000e-01    2.770000e+00
 SC1eh  X1eh  1 4.300000e-01    2.770000e+00
 SX4eh   X3h  1 4.300000e-01    3.380000e+00
 SX4eh   X2h  1 4.300000e-01    3.380000e+00
 SX4eh   X1h  1 4.300000e-01    3.380000e+00
 SX4eh  X3eh  1 4.300000e-01    2.920000e+00
 SX4eh  X2eh  1 4.300000e-01    2.920000e+00
 SX4eh  X1eh  1 4.300000e-01    2.920000e+00
 SX3eh   X2h  1 4.300000e-01    3.590000e+00
 SX3eh   X1h  1 4.300000e-01    3.590000e+00
 SX3eh  X2eh  1 4.300000e-01    3.160000e+00
 SX3eh  X1eh  1 4.300000e-01    3.160000e+00
 SX2eh   X1h  1 4.300000e-01    3.590000e+00
 SX2eh  X1eh  1 4.300000e-01    3.160000e+00
  SP6h   C6h  1 4.300000e-01    2.320000e+00
  SP6h   C5h  1 4.300000e-01    2.160000e+00
  SP6h   C4h  1 4.300000e-01    1.930000e+00
  SP6h   C3h  1 4.300000e-01    1.730000e+00
  SP6h   C2h  1 4.300000e-01    1.730000e+00
  SP6h   C1h  1 4.730000e-01    1.280000e+00
  SP6h   X4h  1 4.300000e-01    2.530000e+00
  SP6h   X3h  1 4.300000e-01    2.530000e+00
  SP6h   X2h  1 4.300000e-01    2.320000e+00
  SP6h   X1h  1 4.300000e-01    2.160000e+00
  SP6h  C6vh  1 4.300000e-01    2.530000e+00
  SP6h  C5vh  1 4.300000e-01    2.320000e+00
  SP6h  C4vh  1 4.300000e-01    2.160000e+00
  SP6h  C3vh  1 4.300000e-01    1.930000e+00
  SP6h  C2vh  1 4.300000e-01    1.930000e+00
  SP6h  C1vh  1 4.430000e-01    1.480000e+00
  SP6h  X4vh  1 4.300000e-01    2.770000e+00
  SP6h  X3vh  1 4.300000e-01    2.770000e+00
  SP6h  X2vh  1 4.300000e-01    2.530000e+00
  SP6h  X1vh  1 4.300000e-01    2.320000e+00
  SP6h  C6eh  1 4.300000e-01    2.530000e+00
  SP6h  C5eh  1 4.300000e-01    2.320000e+00
  SP6h  C4eh  1 4.300000e-01    2.160000e+00
  SP6h  C3eh  1 4.300000e-01    1.930000e+00
  SP6h  C2eh  1 4.300000e-01    1.930000e+00
  SP6h  C1eh  1 4.430000e-01    1.480000e+00
  SP6h  X4eh  1 4.300000e-01    2.770000e+00
  SP6h  X3eh  1 4.300000e-01    2.770000e+00
  SP6h  X2eh  1 4.300000e-01    2.530000e+00
  SP6h  X1eh  1 4.300000e-01    2.320000e+00
  SP5h   C6h  1 4.300000e-01    2.320000e+00
  SP5h   C5h  1 4.300000e-01    2.320000e+00
  SP5h   C4h  1 4.300000e-01    2.160000e+00
  SP5h   C3h  1 4.300000e-01    1.930000e+00
  SP5h   C2h  1 4.300000e-01    1.930000e+00
  SP5h   C1h  1 4.300000e-01    1.730000e+00
  SP5h   X4h  1 4.300000e-01    2.770000e+00
  SP5h   X3h  1 4.300000e-01    2.530000e+00
  SP5h   X2h  1 4.300000e-01    2.530000e+00
  SP5h   X1h  1 4.300000e-01    2.160000e+00
  SP5h  C6vh  1 4.300000e-01    2.530000e+00
  SP5h  C5vh  1 4.300000e-01    2.530000e+00
  SP5h  C4vh  1 4.300000e-01    2.320000e+00
  SP5h  C3vh  1 4.300000e-01    2.160000e+00
  SP5h  C2vh  1 4.300000e-01    2.160000e+00
  SP5h  C1vh  1 4.300000e-01    1.930000e+00
  SP5h  X4vh  1 4.300000e-01    2.920000e+00
  SP5h  X3vh  1 4.300000e-01    2.770000e+00
  SP5h  X2vh  1 4.300000e-01    2.770000e+00
  SP5h  X1vh  1 4.300000e-01    2.320000e+00
  SP5h  C6eh  1 4.300000e-01    2.530000e+00
  SP5h  C5eh  1 4.300000e-01    2.530000e+00
  SP5h  C4eh  1 4.300000e-01    2.320000e+00
  SP5h  C3eh  1 4.300000e-01    2.160000e+00
  SP5h  C2eh  1 4.300000e-01    2.160000e+00
  SP5h  C1eh  1 4.300000e-01    1.930000e+00
  SP5h  X4eh  1 4.300000e-01    2.920000e+00
  SP5h  X3eh  1 4.300000e-01    2.770000e+00
  SP5h  X2eh  1 4.300000e-01    2.770000e+00
  SP5h  X1eh  1 4.300000e-01    2.320000e+00
  SP4h   C6h  1 4.300000e-01    2.530000e+00
  SP4h   C5h  1 4.300000e-01    2.320000e+00
  SP4h   C4h  1 4.300000e-01    2.160000e+00
  SP4h   C3h  1 4.300000e-01    1.930000e+00
  SP4h   C2h  1 4.300000e-01    1.930000e+00
  SP4h   C1h  1 4.300000e-01    1.730000e+00
  SP4h   X4h  1 4.300000e-01    2.770000e+00
  SP4h   X3h  1 4.300000e-01    2.530000e+00
  SP4h   X2h  1 4.300000e-01    2.530000e+00
  SP4h   X1h  1 4.300000e-01    2.320000e+00
  SP4h  C6vh  1 4.300000e-01    2.770000e+00
  SP4h  C5vh  1 4.300000e-01    2.530000e+00
  SP4h  C4vh  1 4.300000e-01    2.320000e+00
  SP4h  C3vh  1 4.300000e-01    2.160000e+00
  SP4h  C2vh  1 4.300000e-01    2.160000e+00
  SP4h  C1vh  1 4.300000e-01    1.930000e+00
  SP4h  X4vh  1 4.300000e-01    2.920000e+00
  SP4h  X3vh  1 4.300000e-01    2.770000e+00
  SP4h  X2vh  1 4.300000e-01    2.770000e+00
  SP4h  X1vh  1 4.300000e-01    2.530000e+00
  SP4h  C6eh  1 4.300000e-01    2.770000e+00
  SP4h  C5eh  1 4.300000e-01    2.530000e+00
  SP4h  C4eh  1 4.300000e-01    2.320000e+00
  SP4h  C3eh  1 4.300000e-01    2.160000e+00
  SP4h  C2eh  1 4.300000e-01    2.160000e+00
  SP4h  C1eh  1 4.300000e-01    1.930000e+00
  SP4h  X4eh  1 4.300000e-01    2.920000e+00
  SP4h  X3eh  1 4.300000e-01    2.770000e+00
  SP4h  X2eh  1 4.300000e-01    2.770000e+00
  SP4h  X1eh  1 4.300000e-01    2.530000e+00
  SP3h   C6h  1 4.300000e-01    2.770000e+00
  SP3h   C5h  1 4.300000e-01    2.530000e+00
  SP3h   C4h  1 4.300000e-01    2.320000e+00
  SP3h   C3h  1 4.300000e-01    1.930000e+00
  SP3h   C2h  1 4.300000e-01    1.930000e+00
  SP3h   C1h  1 4.300000e-01    1.730000e+00
  SP3h   X4h  1 4.300000e-01    2.770000e+00
  SP3h   X3h  1 4.300000e-01    2.770000e+00
  SP3h   X2h  1 4.300000e-01    2.530000e+00
  SP3h   X1h  1 4.300000e-01    2.320000e+00
  SP3h  C6vh  1 4.300000e-01    2.920000e+00
  SP3h  C5vh  1 4.300000e-01    2.770000e+00
  SP3h  C4vh  1 4.300000e-01    2.530000e+00
  SP3h  C3vh  1 4.300000e-01    2.160000e+00
  SP3h  C2vh  1 4.300000e-01    2.160000e+00
  SP3h  C1vh  1 4.300000e-01    1.930000e+00
  SP3h  X4vh  1 4.300000e-01    2.920000e+00
  SP3h  X3vh  1 4.300000e-01    2.920000e+00
  SP3h  X2vh  1 4.300000e-01    2.770000e+00
  SP3h  X1vh  1 4.300000e-01    2.530000e+00
  SP3h  C6eh  1 4.300000e-01    2.920000e+00
  SP3h  C5eh  1 4.300000e-01    2.770000e+00
  SP3h  C4eh  1 4.300000e-01    2.530000e+00
  SP3h  C3eh  1 4.300000e-01    2.160000e+00
  SP3h  C2eh  1 4.300000e-01    2.160000e+00
  SP3h  C1eh  1 4.300000e-01    1.930000e+00
  SP3h  X4eh  1 4.300000e-01    2.920000e+00
  SP3h  X3eh  1 4.300000e-01    2.920000e+00
  SP3h  X2eh  1 4.300000e-01    2.770000e+00
  SP3h  X1eh  1 4.300000e-01    2.530000e+00
  SP2h   C6h  1 4.300000e-01    2.770000e+00
  SP2h   C5h  1 4.300000e-01    2.530000e+00
  SP2h   C4h  1 4.300000e-01    2.320000e+00
  SP2h   C3h  1 4.300000e-01    2.160000e+00
  SP2h   C2h  1 4.300000e-01    2.160000e+00
  SP2h   C1h  1 4.300000e-01    1.930000e+00
  SP2h   X4h  1 4.300000e-01    2.770000e+00
  SP2h   X3h  1 4.300000e-01    2.770000e+00
  SP2h   X2h  1 4.300000e-01    2.530000e+00
  SP2h   X1h  1 4.300000e-01    2.320000e+00
  SP2h  C6vh  1 4.300000e-01    2.920000e+00
  SP2h  C5vh  1 4.300000e-01    2.770000e+00
  SP2h  C4vh  1 4.300000e-01    2.530000e+00
  SP2h  C3vh  1 4.300000e-01    2.320000e+00
  SP2h  C2vh  1 4.300000e-01    2.320000e+00
  SP2h  C1vh  1 4.300000e-01    2.160000e+00
  SP2h  X4vh  1 4.300000e-01    2.920000e+00
  SP2h  X3vh  1 4.300000e-01    2.920000e+00
  SP2h  X2vh  1 4.300000e-01    2.770000e+00
  SP2h  X1vh  1 4.300000e-01    2.530000e+00
  SP2h  C6eh  1 4.300000e-01    2.920000e+00
  SP2h  C5eh  1 4.300000e-01    2.770000e+00
  SP2h  C4eh  1 4.300000e-01    2.530000e+00
  SP2h  C3eh  1 4.300000e-01    2.320000e+00
  SP2h  C2eh  1 4.300000e-01    2.320000e+00
  SP2h  C1eh  1 4.300000e-01    2.160000e+00
  SP2h  X4eh  1 4.300000e-01    2.920000e+00
  SP2h  X3eh  1 4.300000e-01    2.920000e+00
  SP2h  X2eh  1 4.300000e-01    2.770000e+00
  SP2h  X1eh  1 4.300000e-01    2.530000e+00
  SP1h   C6h  1 4.300000e-01    2.770000e+00
  SP1h   C5h  1 4.300000e-01    2.530000e+00
  SP1h   C4h  1 4.300000e-01    2.320000e+00
  SP1h   C3h  1 4.300000e-01    2.160000e+00
  SP1h   C2h  1 4.300000e-01    2.160000e+00
  SP1h   C1h  1 4.300000e-01    1.930000e+00
  SP1h   X4h  1 4.300000e-01    2.770000e+00
  SP1h   X3h  1 4.300000e-01    2.770000e+00
  SP1h   X2h  1 4.300000e-01    2.530000e+00
  SP1h   X1h  1 4.300000e-01    2.320000e+00
  SP1h  C6vh  1 4.300000e-01    2.920000e+00
  SP1h  C5vh  1 4.300000e-01    2.770000e+00
  SP1h  C4vh  1 4.300000e-01    2.530000e+00
  SP1h  C3vh  1 4.300000e-01    2.320000e+00
  SP1h  C2vh  1 4.300000e-01    2.320000e+00
  SP1h  C1vh  1 4.300000e-01    2.160000e+00
  SP1h  X4vh  1 4.300000e-01    2.920000e+00
  SP1h  X3vh  1 4.300000e-01    2.920000e+00
  SP1h  X2vh  1 4.300000e-01    2.770000e+00
  SP1h  X1vh  1 4.300000e-01    2.530000e+00
  SP1h  C6eh  1 4.300000e-01    2.920000e+00
  SP1h  C5eh  1 4.300000e-01    2.770000e+00
  SP1h  C4eh  1 4.300000e-01    2.530000e+00
  SP1h  C3eh  1 4.300000e-01    2.320000e+00
  SP1h  C2eh  1 4.300000e-01    2.320000e+00
  SP1h  C1eh  1 4.300000e-01    2.160000e+00
  SP1h  X4eh  1 4.300000e-01    2.920000e+00
  SP1h  X3eh  1 4.300000e-01    2.920000e+00
  SP1h  X2eh  1 4.300000e-01    2.770000e+00
  SP1h  X1eh  1 4.300000e-01    2.530000e+00
  SN6h   C6h  1 4.300000e-01    2.920000e+00
  SN6h   C5h  1 4.300000e-01    2.770000e+00
  SN6h   C4h  1 4.300000e-01    2.530000e+00
  SN6h   C3h  1 4.300000e-01    2.320000e+00
  SN6h   C2h  1 4.300000e-01    2.320000e+00
  SN6h   C1h  1 4.300000e-01    2.160000e+00
  SN6h   X4h  1 4.300000e-01    2.920000e+00
  SN6h   X3h  1 4.300000e-01    2.770000e+00
  SN6h   X2h  1 4.300000e-01    2.530000e+00
  SN6h   X1h  1 4.300000e-01    2.320000e+00
  SN6h  C6vh  1 4.300000e-01    3.160000e+00
  SN6h  C5vh  1 4.300000e-01    2.920000e+00
  SN6h  C4vh  1 4.300000e-01    2.770000e+00
  SN6h  C3vh  1 4.300000e-01    2.530000e+00
  SN6h  C2vh  1 4.300000e-01    2.530000e+00
  SN6h  C1vh  1 4.300000e-01    2.320000e+00
  SN6h  X4vh  1 4.300000e-01    3.160000e+00
  SN6h  X3vh  1 4.300000e-01    2.920000e+00
  SN6h  X2vh  1 4.300000e-01    2.770000e+00
  SN6h  X1vh  1 4.300000e-01    2.530000e+00
  SN6h  C6eh  1 4.300000e-01    3.160000e+00
  SN6h  C5eh  1 4.300000e-01    2.920000e+00
  SN6h  C4eh  1 4.300000e-01    2.770000e+00
  SN6h  C3eh  1 4.300000e-01    2.530000e+00
  SN6h  C2eh  1 4.300000e-01    2.530000e+00
  SN6h  C1eh  1 4.300000e-01    2.320000e+00
  SN6h  X4eh  1 4.300000e-01    3.160000e+00
  SN6h  X3eh  1 4.300000e-01    2.920000e+00
  SN6h  X2eh  1 4.300000e-01    2.770000e+00
  SN6h  X1eh  1 4.300000e-01    2.530000e+00
  SN5h   C6h  1 4.300000e-01    2.920000e+00
  SN5h   C5h  1 4.300000e-01    2.770000e+00
  SN5h   C4h  1 4.300000e-01    2.530000e+00
  SN5h   C3h  1 4.300000e-01    2.530000e+00
  SN5h   C2h  1 4.300000e-01    2.320000e+00
  SN5h   C1h  1 4.300000e-01    2.160000e+00
  SN5h   X4h  1 4.300000e-01    3.160000e+00
  SN5h   X3h  1 4.300000e-01    2.920000e+00
  SN5h   X2h  1 4.300000e-01    2.770000e+00
  SN5h   X1h  1 4.300000e-01    2.530000e+00
  SN5h  C6vh  1 4.300000e-01    3.160000e+00
  SN5h  C5vh  1 4.300000e-01    2.920000e+00
  SN5h  C4vh  1 4.300000e-01    2.770000e+00
  SN5h  C3vh  1 4.300000e-01    2.770000e+00
  SN5h  C2vh  1 4.300000e-01    2.530000e+00
  SN5h  C1vh  1 4.300000e-01    2.320000e+00
  SN5h  X4vh  1 4.300000e-01    3.380000e+00
  SN5h  X3vh  1 4.300000e-01    3.160000e+00
  SN5h  X2vh  1 4.300000e-01    2.920000e+00
  SN5h  X1vh  1 4.300000e-01    2.770000e+00
  SN5h  C6eh  1 4.300000e-01    3.160000e+00
  SN5h  C5eh  1 4.300000e-01    2.920000e+00
  SN5h  C4eh  1 4.300000e-01    2.770000e+00
  SN5h  C3eh  1 4.300000e-01    2.770000e+00
  SN5h  C2eh  1 4.300000e-01    2.530000e+00
  SN5h  C1eh  1 4.300000e-01    2.320000e+00
  SN5h  X4eh  1 4.300000e-01    3.380000e+00
  SN5h  X3eh  1 4.300000e-01    3.160000e+00
  SN5h  X2eh  1 4.300000e-01    2.920000e+00
  SN5h  X1eh  1 4.300000e-01    2.770000e+00
  SN4h   C6h  1 4.300000e-01    2.920000e+00
  SN4h   C5h  1 4.300000e-01    2.770000e+00
  SN4h   C4h  1 4.300000e-01    2.770000e+00
  SN4h   C3h  1 4.300000e-01    2.530000e+00
  SN4h   C2h  1 4.300000e-01    2.320000e+00
  SN4h   C1h  1 4.300000e-01    2.160000e+00
  SN4h   X4h  1 4.300000e-01    3.380000e+00
  SN4h   X3h  1 4.300000e-01    3.160000e+00
  SN4h   X2h  1 4.300000e-01    2.770000e+00
  SN4h   X1h  1 4.300000e-01    2.530000e+00
  SN4h  C6vh  1 4.300000e-01    3.160000e+00
  SN4h  C5vh  1 4.300000e-01    2.920000e+00
  SN4h  C4vh  1 4.300000e-01    2.920000e+00
  SN4h  C3vh  1 4.300000e-01    2.770000e+00
  SN4h  C2vh  1 4.300000e-01    2.530000e+00
  SN4h  C1vh  1 4.300000e-01    2.320000e+00
  SN4h  X4vh  1 4.300000e-01    3.590000e+00
  SN4h  X3vh  1 4.300000e-01    3.380000e+00
  SN4h  X2vh  1 4.300000e-01    2.920000e+00
  SN4h  X1vh  1 4.300000e-01    2.770000e+00
  SN4h  C6eh  1 4.300000e-01    3.160000e+00
  SN4h  C5eh  1 4.300000e-01    2.920000e+00
  SN4h  C4eh  1 4.300000e-01    2.920000e+00
  SN4h  C3eh  1 4.300000e-01    2.770000e+00
  SN4h  C2eh  1 4.300000e-01    2.530000e+00
  SN4h  C1eh  1 4.300000e-01    2.320000e+00
  SN4h  X4eh  1 4.300000e-01    3.590000e+00
  SN4h  X3eh  1 4.300000e-01    3.380000e+00
  SN4h  X2eh  1 4.300000e-01    2.920000e+00
  SN4h  X1eh  1 4.300000e-01    2.770000e+00
  SN3h   C6h  1 4.300000e-01    2.920000e+00
  SN3h   C5h  1 4.300000e-01    2.770000e+00
  SN3h   C4h  1 4.300000e-01    2.770000e+00
  SN3h   C3h  1 4.300000e-01    2.530000e+00
  SN3h   C2h  1 4.300000e-01    2.530000e+00
  SN3h   C1h  1 4.300000e-01    2.320000e+00
  SN3h   X4h  1 4.300000e-01    3.160000e+00
  SN3h   X3h  1 4.300000e-01    2.920000e+00
  SN3h   X2h  1 4.300000e-01    2.770000e+00
  SN3h   X1h  1 4.300000e-01    2.770000e+00
  SN3h  C6vh  1 4.300000e-01    3.160000e+00
  SN3h  C5vh  1 4.300000e-01    2.920000e+00
  SN3h  C4vh  1 4.300000e-01    2.920000e+00
  SN3h  C3vh  1 4.300000e-01    2.770000e+00
  SN3h  C2vh  1 4.300000e-01    2.770000e+00
  SN3h  C1vh  1 4.300000e-01    2.530000e+00
  SN3h  X4vh  1 4.300000e-01    3.380000e+00
  SN3h  X3vh  1 4.300000e-01    3.160000e+00
  SN3h  X2vh  1 4.300000e-01    2.920000e+00
  SN3h  X1vh  1 4.300000e-01    2.920000e+00
  SN3h  C6eh  1 4.300000e-01    3.160000e+00
  SN3h  C5eh  1 4.300000e-01    2.920000e+00
  SN3h  C4eh  1 4.300000e-01    2.920000e+00
  SN3h  C3eh  1 4.300000e-01    2.770000e+00
  SN3h  C2eh  1 4.300000e-01    2.770000e+00
  SN3h  C1eh  1 4.300000e-01    2.530000e+00
  SN3h  X4eh  1 4.300000e-01    3.380000e+00
  SN3h  X3eh  1 4.300000e-01    3.160000e+00
  SN3h  X2eh  1 4.300000e-01    2.920000e+00
  SN3h  X1eh  1 4.300000e-01    2.920000e+00
  SN2h   C6h  1 4.300000e-01    2.920000e+00
  SN2h   C5h  1 4.300000e-01    2.770000e+00
  SN2h   C4h  1 4.300000e-01    2.770000e+00
  SN2h   C3h  1 4.300000e-01    2.770000e+00
  SN2h   C2h  1 4.300000e-01    2.530000e+00
  SN2h   C1h  1 4.300000e-01    2.320000e+00
  SN2h   X4h  1 4.300000e-01    3.160000e+00
  SN2h   X3h  1 4.300000e-01    2.920000e+00
  SN2h   X2h  1 4.300000e-01    2.770000e+00
  SN2h   X1h  1 4.300000e-01    2.770000e+00
  SN2h  C6vh  1 4.300000e-01    3.160000e+00
  SN2h  C5vh  1 4.300000e-01    2.920000e+00
  SN2h  C4vh  1 4.300000e-01    2.920000e+00
  SN2h  C3vh  1 4.300000e-01    2.920000e+00
  SN2h  C2vh  1 4.300000e-01    2.770000e+00
  SN2h  C1vh  1 4.300000e-01    2.530000e+00
  SN2h  X4vh  1 4.300000e-01    3.380000e+00
  SN2h  X3vh  1 4.300000e-01    3.160000e+00
  SN2h  X2vh  1 4.300000e-01    2.920000e+00
  SN2h  X1vh  1 4.300000e-01    2.920000e+00
  SN2h  C6eh  1 4.300000e-01    3.160000e+00
  SN2h  C5eh  1 4.300000e-01    2.920000e+00
  SN2h  C4eh  1 4.300000e-01    2.920000e+00
  SN2h  C3eh  1 4.300000e-01    2.920000e+00
  SN2h  C2eh  1 4.300000e-01    2.770000e+00
  SN2h  C1eh  1 4.300000e-01    2.530000e+00
  SN2h  X4eh  1 4.300000e-01    3.380000e+00
  SN2h  X3eh  1 4.300000e-01    3.160000e+00
  SN2h  X2eh  1 4.300000e-01    2.920000e+00
  SN2h  X1eh  1 4.300000e-01    2.920000e+00
  SN1h   C6h  1 4.300000e-01    3.160000e+00
  SN1h   C5h  1 4.300000e-01    2.920000e+00
  SN1h   C4h  1 4.300000e-01    2.920000e+00
  SN1h   C3h  1 4.300000e-01    2.770000e+00
  SN1h   C2h  1 4.300000e-01    2.530000e+00
  SN1h   C1h  1 4.300000e-01    2.320000e+00
  SN1h   X4h  1 4.300000e-01    2.920000e+00
  SN1h   X3h  1 4.300000e-01    2.920000e+00
  SN1h   X2h  1 4.300000e-01    2.770000e+00
  SN1h   X1h  1 4.300000e-01    2.770000e+00
  SN1h  C6vh  1 4.300000e-01    3.380000e+00
  SN1h  C5vh  1 4.300000e-01    3.160000e+00
  SN1h  C4vh  1 4.300000e-01    3.160000e+00
  SN1h  C3vh  1 4.300000e-01    2.920000e+00
  SN1h  C2vh  1 4.300000e-01    2.770000e+00
  SN1h  C1vh  1 4.300000e-01    2.530000e+00
  SN1h  X4vh  1 4.300000e-01    3.160000e+00
  SN1h  X3vh  1 4.300000e-01    3.160000e+00
  SN1h  X2vh  1 4.300000e-01    2.920000e+00
  SN1h  X1vh  1 4.300000e-01    2.920000e+00
  SN1h  C6eh  1 4.300000e-01    3.380000e+00
  SN1h  C5eh  1 4.300000e-01    3.160000e+00
  SN1h  C4eh  1 4.300000e-01    3.160000e+00
  SN1h  C3eh  1 4.300000e-01    2.920000e+00
  SN1h  C2eh  1 4.300000e-01    2.770000e+00
  SN1h  C1eh  1 4.300000e-01    2.530000e+00
  SN1h  X4eh  1 4.300000e-01    3.160000e+00
  SN1h  X3eh  1 4.300000e-01    3.160000e+00
  SN1h  X2eh  1 4.300000e-01    2.920000e+00
  SN1h  X1eh  1 4.300000e-01    2.920000e+00
 SP6dh   C6h  1 4.300000e-01    2.320000e+00
 SP6dh   C5h  1 4.300000e-01    2.160000e+00
 SP6dh   C4h  1 4.300000e-01    1.930000e+00
 SP6dh   C3h  1 4.300000e-01    1.730000e+00
 SP6dh   C2h  1 4.300000e-01    1.730000e+00
 SP6dh   C1h  1 4.730000e-01    1.280000e+00
 SP6dh   X4h  1 4.300000e-01    2.530000e+00
 SP6dh   X3h  1 4.300000e-01    2.530000e+00
 SP6dh   X2h  1 4.300000e-01    2.320000e+00
 SP6dh   X1h  1 4.300000e-01    2.160000e+00
 SP5dh   C6h  1 4.300000e-01    2.320000e+00
 SP5dh   C5h  1 4.300000e-01    2.320000e+00
 SP5dh   C4h  1 4.300000e-01    2.160000e+00
 SP5dh   C3h  1 4.300000e-01    1.930000e+00
 SP5dh   C2h  1 4.300000e-01    1.930000e+00
 SP5dh   C1h  1 4.300000e-01    1.730000e+00
 SP5dh   X4h  1 4.300000e-01    2.770000e+00
 SP5dh   X3h  1 4.300000e-01    2.530000e+00
 SP5dh   X2h  1 4.300000e-01    2.530000e+00
 SP5dh   X1h  1 4.300000e-01    2.160000e+00
 SP4dh   C6h  1 4.300000e-01    2.530000e+00
 SP4dh   C5h  1 4.300000e-01    2.320000e+00
 SP4dh   C4h  1 4.300000e-01    2.160000e+00
 SP4dh   C3h  1 4.300000e-01    1.930000e+00
 SP4dh   C2h  1 4.300000e-01    1.930000e+00
 SP4dh   C1h  1 4.300000e-01    1.730000e+00
 SP4dh   X4h  1 4.300000e-01    2.770000e+00
 SP4dh   X3h  1 4.300000e-01    2.530000e+00
 SP4dh   X2h  1 4.300000e-01    2.530000e+00
 SP4dh   X1h  1 4.300000e-01    2.320000e+00
 SP3dh   C6h  1 4.300000e-01    2.770000e+00
 SP3dh   C5h  1 4.300000e-01    2.530000e+00
 SP3dh   C4h  1 4.300000e-01    2.320000e+00
 SP3dh   C3h  1 4.300000e-01    1.930000e+00
 SP3dh   C2h  1 4.300000e-01    1.930000e+00
 SP3dh   C1h  1 4.300000e-01    1.730000e+00
 SP3dh   X4h  1 4.300000e-01    2.770000e+00
 SP3dh   X3h  1 4.300000e-01    2.770000e+00
 SP3dh   X2h  1 4.300000e-01    2.530000e+00
 SP3dh   X1h  1 4.300000e-01    2.320000e+00
 SP2dh   C6h  1 4.300000e-01    2.770000e+00
 SP2dh   C5h  1 4.300000e-01    2.530000e+00
 SP2dh   C4h  1 4.300000e-01    2.320000e+00
 SP2dh   C3h  1 4.300000e-01    2.160000e+00
 SP2dh   C2h  1 4.300000e-01    2.160000e+00
 SP2dh   C1h  1 4.300000e-01    1.930000e+00
 SP2dh   X4h  1 4.300000e-01    2.770000e+00
 SP2dh   X3h  1 4.300000e-01    2.770000e+00
 SP2dh   X2h  1 4.300000e-01    2.530000e+00
 SP2dh   X1h  1 4.300000e-01    2.320000e+00
 SP1dh   C6h  1 4.300000e-01    2.770000e+00
 SP1dh   C5h  1 4.300000e-01    2.530000e+00
 SP1dh   C4h  1 4.300000e-01    2.320000e+00
 SP1dh   C3h  1 4.300000e-01    2.160000e+00
 SP1dh   C2h  1 4.300000e-01    2.160000e+00
 SP1dh   C1h  1 4.300000e-01    1.930000e+00
 SP1dh   X4h  1 4.300000e-01    2.770000e+00
 SP1dh   X3h  1 4.300000e-01    2.770000e+00
 SP1dh   X2h  1 4.300000e-01    2.530000e+00
 SP1dh   X1h  1 4.300000e-01    2.320000e+00
 SN6dh   C6h  1 4.300000e-01    2.920000e+00
 SN6dh   C5h  1 4.300000e-01    2.770000e+00
 SN6dh   C4h  1 4.300000e-01    2.530000e+00
 SN6dh   C3h  1 4.300000e-01    2.320000e+00
 SN6dh   C2h  1 4.300000e-01    2.320000e+00
 SN6dh   C1h  1 4.300000e-01    2.160000e+00
 SN6dh   X4h  1 4.300000e-01    2.920000e+00
 SN6dh   X3h  1 4.300000e-01    2.770000e+00
 SN6dh   X2h  1 4.300000e-01    2.530000e+00
 SN6dh   X1h  1 4.300000e-01    2.320000e+00
 SN5dh   C6h  1 4.300000e-01    2.920000e+00
 SN5dh   C5h  1 4.300000e-01    2.770000e+00
 SN5dh   C4h  1 4.300000e-01    2.530000e+00
 SN5dh   C3h  1 4.300000e-01    2.530000e+00
 SN5dh   C2h  1 4.300000e-01    2.320000e+00
 SN5dh   C1h  1 4.300000e-01    2.160000e+00
 SN5dh   X4h  1 4.300000e-01    3.160000e+00
 SN5dh   X3h  1 4.300000e-01    2.920000e+00
 SN5dh   X2h  1 4.300000e-01    2.770000e+00
 SN5dh   X1h  1 4.300000e-01    2.530000e+00
 SN4dh   C6h  1 4.300000e-01    2.920000e+00
 SN4dh   C5h  1 4.300000e-01    2.770000e+00
 SN4dh   C4h  1 4.300000e-01    2.770000e+00
 SN4dh   C3h  1 4.300000e-01    2.530000e+00
 SN4dh   C2h  1 4.300000e-01    2.320000e+00
 SN4dh   C1h  1 4.300000e-01    2.160000e+00
 SN4dh   X4h  1 4.300000e-01    3.380000e+00
 SN4dh   X3h  1 4.300000e-01    3.160000e+00
 SN4dh   X2h  1 4.300000e-01    2.770000e+00
 SN4dh   X1h  1 4.300000e-01    2.530000e+00
 SN3dh   C6h  1 4.300000e-01    2.920000e+00
 SN3dh   C5h  1 4.300000e-01    2.770000e+00
 SN3dh   C4h  1 4.300000e-01    2.770000e+00
 SN3dh   C3h  1 4.300000e-01    2.530000e+00
 SN3dh   C2h  1 4.300000e-01    2.530000e+00
 SN3dh   C1h  1 4.300000e-01    2.320000e+00
 SN3dh   X4h  1 4.300000e-01    3.160000e+00
 SN3dh   X3h  1 4.300000e-01    2.920000e+00
 SN3dh   X2h  1 4.300000e-01    2.770000e+00
 SN3dh   X1h  1 4.300000e-01    2.770000e+00
 SN2dh   C6h  1 4.300000e-01    2.920000e+00
 SN2dh   C5h  1 4.300000e-01    2.770000e+00
 SN2dh   C4h  1 4.300000e-01    2.770000e+00
 SN2dh   C3h  1 4.300000e-01    2.770000e+00
 SN2dh   C2h  1 4.300000e-01    2.530000e+00
 SN2dh   C1h  1 4.300000e-01    2.320000e+00
 SN2dh   X4h  1 4.300000e-01    3.160000e+00
 SN2dh   X3h  1 4.300000e-01    2.920000e+00
 SN2dh   X2h  1 4.300000e-01    2.770000e+00
 SN2dh   X1h  1 4.300000e-01    2.770000e+00
 SN1dh   C6h  1 4.300000e-01    3.160000e+00
 SN1dh   C5h  1 4.300000e-01    2.920000e+00
 SN1dh   C4h  1 4.300000e-01    2.920000e+00
 SN1dh   C3h  1 4.300000e-01    2.770000e+00
 SN1dh   C2h  1 4.300000e-01    2.530000e+00
 SN1dh   C1h  1 4.300000e-01    2.320000e+00
 SN1dh   X4h  1 4.300000e-01    2.920000e+00
 SN1dh   X3h  1 4.300000e-01    2.920000e+00
 SN1dh   X2h  1 4.300000e-01    2.770000e+00
 SN1dh   X1h  1 4.300000e-01    2.770000e+00
 SP6ah   C6h  1 4.300000e-01    2.320000e+00
 SP6ah   C5h  1 4.300000e-01    2.160000e+00
 SP6ah   C4h  1 4.300000e-01    1.930000e+00
 SP6ah   C3h  1 4.300000e-01    1.730000e+00
 SP6ah   C2h  1 4.300000e-01    1.730000e+00
 SP6ah   C1h  1 4.730000e-01    1.280000e+00
 SP6ah   X4h  1 4.300000e-01    2.530000e+00
 SP6ah   X3h  1 4.300000e-01    2.530000e+00
 SP6ah   X2h  1 4.300000e-01    2.320000e+00
 SP6ah   X1h  1 4.300000e-01    2.160000e+00
 SP5ah   C6h  1 4.300000e-01    2.320000e+00
 SP5ah   C5h  1 4.300000e-01    2.320000e+00
 SP5ah   C4h  1 4.300000e-01    2.160000e+00
 SP5ah   C3h  1 4.300000e-01    1.930000e+00
 SP5ah   C2h  1 4.300000e-01    1.930000e+00
 SP5ah   C1h  1 4.300000e-01    1.730000e+00
 SP5ah   X4h  1 4.300000e-01    2.770000e+00
 SP5ah   X3h  1 4.300000e-01    2.530000e+00
 SP5ah   X2h  1 4.300000e-01    2.530000e+00
 SP5ah   X1h  1 4.300000e-01    2.160000e+00
 SP4ah   C6h  1 4.300000e-01    2.530000e+00
 SP4ah   C5h  1 4.300000e-01    2.320000e+00
 SP4ah   C4h  1 4.300000e-01    2.160000e+00
 SP4ah   C3h  1 4.300000e-01    1.930000e+00
 SP4ah   C2h  1 4.300000e-01    1.930000e+00
 SP4ah   C1h  1 4.300000e-01    1.730000e+00
 SP4ah   X4h  1 4.300000e-01    2.770000e+00
 SP4ah   X3h  1 4.300000e-01    2.530000e+00
 SP4ah   X2h  1 4.300000e-01    2.530000e+00
 SP4ah   X1h  1 4.300000e-01    2.320000e+00
 SP3ah   C6h  1 4.300000e-01    2.770000e+00
 SP3ah   C5h  1 4.300000e-01    2.530000e+00
 SP3ah   C4h  1 4.300000e-01    2.320000e+00
 SP3ah   C3h  1 4.300000e-01    1.930000e+00
 SP3ah   C2h  1 4.300000e-01    1.930000e+00
 SP3ah   C1h  1 4.300000e-01    1.730000e+00
 SP3ah   X4h  1 4.300000e-01    2.770000e+00
 SP3ah   X3h  1 4.300000e-01    2.770000e+00
 SP3ah   X2h  1 4.300000e-01    2.530000e+00
 SP3ah   X1h  1 4.300000e-01    2.320000e+00
 SP2ah   C6h  1 4.300000e-01    2.770000e+00
 SP2ah   C5h  1 4.300000e-01    2.530000e+00
 SP2ah   C4h  1 4.300000e-01    2.320000e+00
 SP2ah   C3h  1 4.300000e-01    2.160000e+00
 SP2ah   C2h  1 4.300000e-01    2.160000e+00
 SP2ah   C1h  1 4.300000e-01    1.930000e+00
 SP2ah   X4h  1 4.300000e-01    2.770000e+00
 SP2ah   X3h  1 4.300000e-01    2.770000e+00
 SP2ah   X2h  1 4.300000e-01    2.530000e+00
 SP2ah   X1h  1 4.300000e-01    2.320000e+00
 SP1ah   C6h  1 4.300000e-01    2.770000e+00
 SP1ah   C5h  1 4.300000e-01    2.530000e+00
 SP1ah   C4h  1 4.300000e-01    2.320000e+00
 SP1ah   C3h  1 4.300000e-01    2.160000e+00
 SP1ah   C2h  1 4.300000e-01    2.160000e+00
 SP1ah   C1h  1 4.300000e-01    1.930000e+00
 SP1ah   X4h  1 4.300000e-01    2.770000e+00
 SP1ah   X3h  1 4.300000e-01    2.770000e+00
 SP1ah   X2h  1 4.300000e-01    2.530000e+00
 SP1ah   X1h  1 4.300000e-01    2.320000e+00
 SN6ah   C6h  1 4.300000e-01    2.920000e+00
 SN6ah   C5h  1 4.300000e-01    2.770000e+00
 SN6ah   C4h  1 4.300000e-01    2.530000e+00
 SN6ah   C3h  1 4.300000e-01    2.320000e+00
 SN6ah   C2h  1 4.300000e-01    2.320000e+00
 SN6ah   C1h  1 4.300000e-01    2.160000e+00
 SN6ah   X4h  1 4.300000e-01    2.920000e+00
 SN6ah   X3h  1 4.300000e-01    2.770000e+00
 SN6ah   X2h  1 4.300000e-01    2.530000e+00
 SN6ah   X1h  1 4.300000e-01    2.320000e+00
 SN5ah   C6h  1 4.300000e-01    2.920000e+00
 SN5ah   C5h  1 4.300000e-01    2.770000e+00
 SN5ah   C4h  1 4.300000e-01    2.530000e+00
 SN5ah   C3h  1 4.300000e-01    2.530000e+00
 SN5ah   C2h  1 4.300000e-01    2.320000e+00
 SN5ah   C1h  1 4.300000e-01    2.160000e+00
 SN5ah   X4h  1 4.300000e-01    3.160000e+00
 SN5ah   X3h  1 4.300000e-01    2.920000e+00
 SN5ah   X2h  1 4.300000e-01    2.770000e+00
 SN5ah   X1h  1 4.300000e-01    2.530000e+00
 SN4ah   C6h  1 4.300000e-01    2.920000e+00
 SN4ah   C5h  1 4.300000e-01    2.770000e+00
 SN4ah   C4h  1 4.300000e-01    2.770000e+00
 SN4ah   C3h  1 4.300000e-01    2.530000e+00
 SN4ah   C2h  1 4.300000e-01    2.320000e+00
 SN4ah   C1h  1 4.300000e-01    2.160000e+00
 SN4ah   X4h  1 4.300000e-01    3.380000e+00
 SN4ah   X3h  1 4.300000e-01    3.160000e+00
 SN4ah   X2h  1 4.300000e-01    2.770000e+00
 SN4ah   X1h  1 4.300000e-01    2.530000e+00
 SN3ah   C6h  1 4.300000e-01    2.920000e+00
 SN3ah   C5h  1 4.300000e-01    2.770000e+00
 SN3ah   C4h  1 4.300000e-01    2.770000e+00
 SN3ah   C3h  1 4.300000e-01    2.530000e+00
 SN3ah   C2h  1 4.300000e-01    2.530000e+00
 SN3ah   C1h  1 4.300000e-01    2.320000e+00
 SN3ah   X4h  1 4.300000e-01    3.160000e+00
 SN3ah   X3h  1 4.300000e-01    2.920000e+00
 SN3ah   X2h  1 4.300000e-01    2.770000e+00
 SN3ah   X1h  1 4.300000e-01    2.770000e+00
 SN2ah   C6h  1 4.300000e-01    2.920000e+00
 SN2ah   C5h  1 4.300000e-01    2.770000e+00
 SN2ah   C4h  1 4.300000e-01    2.770000e+00
 SN2ah   C3h  1 4.300000e-01    2.770000e+00
 SN2ah   C2h  1 4.300000e-01    2.530000e+00
 SN2ah   C1h  1 4.300000e-01    2.320000e+00
 SN2ah   X4h  1 4.300000e-01    3.160000e+00
 SN2ah   X3h  1 4.300000e-01    2.920000e+00
 SN2ah   X2h  1 4.300000e-01    2.770000e+00
 SN2ah   X1h  1 4.300000e-01    2.770000e+00
 SN1ah   C6h  1 4.300000e-01    3.160000e+00
 SN1ah   C5h  1 4.300000e-01    2.920000e+00
 SN1ah   C4h  1 4.300000e-01    2.920000e+00
 SN1ah   C3h  1 4.300000e-01    2.770000e+00
 SN1ah   C2h  1 4.300000e-01    2.530000e+00
 SN1ah   C1h  1 4.300000e-01    2.320000e+00
 SN1ah   X4h  1 4.300000e-01    2.920000e+00
 SN1ah   X3h  1 4.300000e-01    2.920000e+00
 SN1ah   X2h  1 4.300000e-01    2.770000e+00
 SN1ah   X1h  1 4.300000e-01    2.770000e+00
  SP6h   P6r  1 4.300000e-01    4.680000e+00
  SP6h   P5r  1 4.300000e-01    4.400000e+00
  SP6r   P5h  1 4.300000e-01    4.400000e+00
  SP6h   P4r  1 4.300000e-01    4.170000e+00
  SP6r   P4h  1 4.300000e-01    4.170000e+00
  SP6h   P3r  1 4.300000e-01    3.970000e+00
  SP6r   P3h  1 4.300000e-01    3.970000e+00
  SP6h   P2r  1 4.300000e-01    3.970000e+00
  SP6r   P2h  1 4.300000e-01    3.970000e+00
  SP6h   P1r  1 4.300000e-01    3.770000e+00
  SP6r   P1h  1 4.300000e-01    3.770000e+00
  SP6h   N6r  1 4.300000e-01    3.590000e+00
  SP6r   N6h  1 4.300000e-01    3.590000e+00
  SP6h   N5r  1 4.300000e-01    3.160000e+00
  SP6r   N5h  1 4.300000e-01    3.160000e+00
  SP6h   N4r  1 4.300000e-01    2.920000e+00
  SP6r   N4h  1 4.300000e-01    2.920000e+00
  SP6h   N3r  1 4.300000e-01    2.770000e+00
  SP6r   N3h  1 4.300000e-01    2.770000e+00
  SP6h   N2r  1 4.300000e-01    2.530000e+00
  SP6r   N2h  1 4.300000e-01    2.530000e+00
  SP6h   N1r  1 4.300000e-01    2.320000e+00
  SP6r   N1h  1 4.300000e-01    2.320000e+00
  SP6h  P6dr  1 4.300000e-01    4.680000e+00
  SP6r  P6dh  1 4.300000e-01    4.680000e+00
  SP6h  P5dr  1 4.300000e-01    4.400000e+00
  SP6r  P5dh  1 4.300000e-01    4.400000e+00
  SP6h  P4dr  1 4.300000e-01    4.170000e+00
  SP6r  P4dh  1 4.300000e-01    4.170000e+00
  SP6h  P3dr  1 4.300000e-01    3.970000e+00
  SP6r  P3dh  1 4.300000e-01    3.970000e+00
  SP6h  P2dr  1 4.300000e-01    3.970000e+00
  SP6r  P2dh  1 4.300000e-01    3.970000e+00
  SP6h  P1dr  1 4.300000e-01    3.770000e+00
  SP6r  P1dh  1 4.300000e-01    3.770000e+00
  SP6h  N6dr  1 4.300000e-01    3.590000e+00
  SP6r  N6dh  1 4.300000e-01    3.590000e+00
  SP6h  N5dr  1 4.300000e-01    3.160000e+00
  SP6r  N5dh  1 4.300000e-01    3.160000e+00
  SP6h  N4dr  1 4.300000e-01    2.920000e+00
  SP6r  N4dh  1 4.300000e-01    2.920000e+00
  SP6h  N3dr  1 4.300000e-01    2.770000e+00
  SP6r  N3dh  1 4.300000e-01    2.770000e+00
  SP6h  N2dr  1 4.300000e-01    2.530000e+00
  SP6r  N2dh  1 4.300000e-01    2.530000e+00
  SP6h  N1dr  1 4.300000e-01    2.320000e+00
  SP6r  N1dh  1 4.300000e-01    2.320000e+00
  SP6h  P6ar  1 4.300000e-01    4.680000e+00
  SP6r  P6ah  1 4.300000e-01    4.680000e+00
  SP6h  P5ar  1 4.300000e-01    4.400000e+00
  SP6r  P5ah  1 4.300000e-01    4.400000e+00
  SP6h  P4ar  1 4.300000e-01    4.170000e+00
  SP6r  P4ah  1 4.300000e-01    4.170000e+00
  SP6h  P3ar  1 4.300000e-01    3.970000e+00
  SP6r  P3ah  1 4.300000e-01    3.970000e+00
  SP6h  P2ar  1 4.300000e-01    3.970000e+00
  SP6r  P2ah  1 4.300000e-01    3.970000e+00
  SP6h  P1ar  1 4.300000e-01    3.770000e+00
  SP6r  P1ah  1 4.300000e-01    3.770000e+00
  SP6h  N6ar  1 4.300000e-01    3.590000e+00
  SP6r  N6ah  1 4.300000e-01    3.590000e+00
  SP6h  N5ar  1 4.300000e-01    3.160000e+00
  SP6r  N5ah  1 4.300000e-01    3.160000e+00
  SP6h  N4ar  1 4.300000e-01    2.920000e+00
  SP6r  N4ah  1 4.300000e-01    2.920000e+00
  SP6h  N3ar  1 4.300000e-01    2.770000e+00
  SP6r  N3ah  1 4.300000e-01    2.770000e+00
  SP6h  N2ar  1 4.300000e-01    2.530000e+00
  SP6r  N2ah  1 4.300000e-01    2.530000e+00
  SP6h  N1ar  1 4.300000e-01    2.320000e+00
  SP6r  N1ah  1 4.300000e-01    2.320000e+00
  SP5h   P5r  1 4.300000e-01    4.170000e+00
  SP5h   P4r  1 4.300000e-01    3.970000e+00
  SP5r   P4h  1 4.300000e-01    3.970000e+00
  SP5h   P3r  1 4.300000e-01    3.770000e+00
  SP5r   P3h  1 4.300000e-01    3.770000e+00
  SP5h   P2r  1 4.300000e-01    3.770000e+00
  SP5r   P2h  1 4.300000e-01    3.770000e+00
  SP5h   P1r  1 4.300000e-01    3.590000e+00
  SP5r   P1h  1 4.300000e-01    3.590000e+00
  SP5h   N6r  1 4.300000e-01    3.380000e+00
  SP5r   N6h  1 4.300000e-01    3.380000e+00
  SP5h   N5r  1 4.300000e-01    3.160000e+00
  SP5r   N5h  1 4.300000e-01    3.160000e+00
  SP5h   N4r  1 4.300000e-01    3.160000e+00
  SP5r   N4h  1 4.300000e-01    3.160000e+00
  SP5h   N3r  1 4.300000e-01    2.770000e+00
  SP5r   N3h  1 4.300000e-01    2.770000e+00
  SP5h   N2r  1 4.300000e-01    2.530000e+00
  SP5r   N2h  1 4.300000e-01    2.530000e+00
  SP5h   N1r  1 4.300000e-01    2.320000e+00
  SP5r   N1h  1 4.300000e-01    2.320000e+00
  SP5h  P5dr  1 4.300000e-01    4.170000e+00
  SP5r  P5dh  1 4.300000e-01    4.170000e+00
  SP5h  P4dr  1 4.300000e-01    3.970000e+00
  SP5r  P4dh  1 4.300000e-01    3.970000e+00
  SP5h  P3dr  1 4.300000e-01    3.770000e+00
  SP5r  P3dh  1 4.300000e-01    3.770000e+00
  SP5h  P2dr  1 4.300000e-01    3.770000e+00
  SP5r  P2dh  1 4.300000e-01    3.770000e+00
  SP5h  P1dr  1 4.300000e-01    3.590000e+00
  SP5r  P1dh  1 4.300000e-01    3.590000e+00
  SP5h  N6dr  1 4.300000e-01    3.380000e+00
  SP5r  N6dh  1 4.300000e-01    3.380000e+00
  SP5h  N5dr  1 4.300000e-01    3.160000e+00
  SP5r  N5dh  1 4.300000e-01    3.160000e+00
  SP5h  N4dr  1 4.300000e-01    3.160000e+00
  SP5r  N4dh  1 4.300000e-01    3.160000e+00
  SP5h  N3dr  1 4.300000e-01    2.770000e+00
  SP5r  N3dh  1 4.300000e-01    2.770000e+00
  SP5h  N2dr  1 4.300000e-01    2.530000e+00
  SP5r  N2dh  1 4.300000e-01    2.530000e+00
  SP5h  N1dr  1 4.300000e-01    2.320000e+00
  SP5r  N1dh  1 4.300000e-01    2.320000e+00
  SP5h  P5ar  1 4.300000e-01    4.170000e+00
  SP5r  P5ah  1 4.300000e-01    4.170000e+00
  SP5h  P4ar  1 4.300000e-01    3.970000e+00
  SP5r  P4ah  1 4.300000e-01    3.970000e+00
  SP5h  P3ar  1 4.300000e-01    3.770000e+00
  SP5r  P3ah  1 4.300000e-01    3.770000e+00
  SP5h  P2ar  1 4.300000e-01    3.770000e+00
  SP5r  P2ah  1 4.300000e-01    3.770000e+00
  SP5h  P1ar  1 4.300000e-01    3.590000e+00
  SP5r  P1ah  1 4.300000e-01    3.590000e+00
  SP5h  N6ar  1 4.300000e-01    3.380000e+00
  SP5r  N6ah  1 4.300000e-01    3.380000e+00
  SP5h  N5ar  1 4.300000e-01    3.160000e+00
  SP5r  N5ah  1 4.300000e-01    3.160000e+00
  SP5h  N4ar  1 4.300000e-01    3.160000e+00
  SP5r  N4ah  1 4.300000e-01    3.160000e+00
  SP5h  N3ar  1 4.300000e-01    2.770000e+00
  SP5r  N3ah  1 4.300000e-01    2.770000e+00
  SP5h  N2ar  1 4.300000e-01    2.530000e+00
  SP5r  N2ah  1 4.300000e-01    2.530000e+00
  SP5h  N1ar  1 4.300000e-01    2.320000e+00
  SP5r  N1ah  1 4.300000e-01    2.320000e+00
  SP4h   P4r  1 4.300000e-01    3.970000e+00
  SP4h   P3r  1 4.300000e-01    3.770000e+00
  SP4r   P3h  1 4.300000e-01    3.770000e+00
  SP4h   P2r  1 4.300000e-01    3.770000e+00
  SP4r   P2h  1 4.300000e-01    3.770000e+00
  SP4h   P1r  1 4.300000e-01    3.590000e+00
  SP4r   P1h  1 4.300000e-01    3.590000e+00
  SP4h   N6r  1 4.300000e-01    3.380000e+00
  SP4r   N6h  1 4.300000e-01    3.380000e+00
  SP4h   N5r  1 4.300000e-01    3.160000e+00
  SP4r   N5h  1 4.300000e-01    3.160000e+00
  SP4h   N4r  1 4.300000e-01    3.160000e+00
  SP4r   N4h  1 4.300000e-01    3.160000e+00
  SP4h   N3r  1 4.300000e-01    2.920000e+00
  SP4r   N3h  1 4.300000e-01    2.920000e+00
  SP4h   N2r  1 4.300000e-01    2.770000e+00
  SP4r   N2h  1 4.300000e-01    2.770000e+00
  SP4h   N1r  1 4.300000e-01    2.530000e+00
  SP4r   N1h  1 4.300000e-01    2.530000e+00
  SP4h  P4dr  1 4.300000e-01    3.970000e+00
  SP4r  P4dh  1 4.300000e-01    3.970000e+00
  SP4h  P3dr  1 4.300000e-01    3.770000e+00
  SP4r  P3dh  1 4.300000e-01    3.770000e+00
  SP4h  P2dr  1 4.300000e-01    3.770000e+00
  SP4r  P2dh  1 4.300000e-01    3.770000e+00
  SP4h  P1dr  1 4.300000e-01    3.590000e+00
  SP4r  P1dh  1 4.300000e-01    3.590000e+00
  SP4h  N6dr  1 4.300000e-01    3.380000e+00
  SP4r  N6dh  1 4.300000e-01    3.380000e+00
  SP4h  N5dr  1 4.300000e-01    3.160000e+00
  SP4r  N5dh  1 4.300000e-01    3.160000e+00
  SP4h  N4dr  1 4.300000e-01    3.160000e+00
  SP4r  N4dh  1 4.300000e-01    3.160000e+00
  SP4h  N3dr  1 4.300000e-01    2.920000e+00
  SP4r  N3dh  1 4.300000e-01    2.920000e+00
  SP4h  N2dr  1 4.300000e-01    2.770000e+00
  SP4r  N2dh  1 4.300000e-01    2.770000e+00
  SP4h  N1dr  1 4.300000e-01    2.530000e+00
  SP4r  N1dh  1 4.300000e-01    2.530000e+00
  SP4h  P4ar  1 4.300000e-01    3.970000e+00
  SP4r  P4ah  1 4.300000e-01    3.970000e+00
  SP4h  P3ar  1 4.300000e-01    3.770000e+00
  SP4r  P3ah  1 4.300000e-01    3.770000e+00
  SP4h  P2ar  1 4.300000e-01    3.770000e+00
  SP4r  P2ah  1 4.300000e-01    3.770000e+00
  SP4h  P1ar  1 4.300000e-01    3.590000e+00
  SP4r  P1ah  1 4.300000e-01    3.590000e+00
  SP4h  N6ar  1 4.300000e-01    3.380000e+00
  SP4r  N6ah  1 4.300000e-01    3.380000e+00
  SP4h  N5ar  1 4.300000e-01    3.160000e+00
  SP4r  N5ah  1 4.300000e-01    3.160000e+00
  SP4h  N4ar  1 4.300000e-01    3.160000e+00
  SP4r  N4ah  1 4.300000e-01    3.160000e+00
  SP4h  N3ar  1 4.300000e-01    2.920000e+00
  SP4r  N3ah  1 4.300000e-01    2.920000e+00
  SP4h  N2ar  1 4.300000e-01    2.770000e+00
  SP4r  N2ah  1 4.300000e-01    2.770000e+00
  SP4h  N1ar  1 4.300000e-01    2.530000e+00
  SP4r  N1ah  1 4.300000e-01    2.530000e+00
  SP3h   P3r  1 4.300000e-01    3.770000e+00
  SP3h   P2r  1 4.300000e-01    3.770000e+00
  SP3r   P2h  1 4.300000e-01    3.770000e+00
  SP3h   P1r  1 4.300000e-01    3.590000e+00
  SP3r   P1h  1 4.300000e-01    3.590000e+00
  SP3h   N6r  1 4.300000e-01    3.380000e+00
  SP3r   N6h  1 4.300000e-01    3.380000e+00
  SP3h   N5r  1 4.300000e-01    3.160000e+00
  SP3r   N5h  1 4.300000e-01    3.160000e+00
  SP3h   N4r  1 4.300000e-01    3.160000e+00
  SP3r   N4h  1 4.300000e-01    3.160000e+00
  SP3h   N3r  1 4.300000e-01    2.920000e+00
  SP3r   N3h  1 4.300000e-01    2.920000e+00
  SP3h   N2r  1 4.300000e-01    2.920000e+00
  SP3r   N2h  1 4.300000e-01    2.920000e+00
  SP3h   N1r  1 4.300000e-01    2.770000e+00
  SP3r   N1h  1 4.300000e-01    2.770000e+00
  SP3h  P3dr  1 4.300000e-01    3.770000e+00
  SP3r  P3dh  1 4.300000e-01    3.770000e+00
  SP3h  P2dr  1 4.300000e-01    3.770000e+00
  SP3r  P2dh  1 4.300000e-01    3.770000e+00
  SP3h  P1dr  1 4.300000e-01    3.590000e+00
  SP3r  P1dh  1 4.300000e-01    3.590000e+00
  SP3h  N6dr  1 4.300000e-01    3.380000e+00
  SP3r  N6dh  1 4.300000e-01    3.380000e+00
  SP3h  N5dr  1 4.300000e-01    3.160000e+00
  SP3r  N5dh  1 4.300000e-01    3.160000e+00
  SP3h  N4dr  1 4.300000e-01    3.160000e+00
  SP3r  N4dh  1 4.300000e-01    3.160000e+00
  SP3h  N3dr  1 4.300000e-01    2.920000e+00
  SP3r  N3dh  1 4.300000e-01    2.920000e+00
  SP3h  N2dr  1 4.300000e-01    2.920000e+00
  SP3r  N2dh  1 4.300000e-01    2.920000e+00
  SP3h  N1dr  1 4.300000e-01    2.770000e+00
  SP3r  N1dh  1 4.300000e-01    2.770000e+00
  SP3h  P3ar  1 4.300000e-01    3.770000e+00
  SP3r  P3ah  1 4.300000e-01    3.770000e+00
  SP3h  P2ar  1 4.300000e-01    3.770000e+00
  SP3r  P2ah  1 4.300000e-01    3.770000e+00
  SP3h  P1ar  1 4.300000e-01    3.590000e+00
  SP3r  P1ah  1 4.300000e-01    3.590000e+00
  SP3h  N6ar  1 4.300000e-01    3.380000e+00
  SP3r  N6ah  1 4.300000e-01    3.380000e+00
  SP3h  N5ar  1 4.300000e-01    3.160000e+00
  SP3r  N5ah  1 4.300000e-01    3.160000e+00
  SP3h  N4ar  1 4.300000e-01    3.160000e+00
  SP3r  N4ah  1 4.300000e-01    3.160000e+00
  SP3h  N3ar  1 4.300000e-01    2.920000e+00
  SP3r  N3ah  1 4.300000e-01    2.920000e+00
  SP3h  N2ar  1 4.300000e-01    2.920000e+00
  SP3r  N2ah  1 4.300000e-01    2.920000e+00
  SP3h  N1ar  1 4.300000e-01    2.770000e+00
  SP3r  N1ah  1 4.300000e-01    2.770000e+00
  SP2h   P2r  1 4.300000e-01    3.770000e+00
  SP2h   P1r  1 4.300000e-01    3.590000e+00
  SP2r   P1h  1 4.300000e-01    3.590000e+00
  SP2h   N6r  1 4.300000e-01    3.590000e+00
  SP2r   N6h  1 4.300000e-01    3.590000e+00
  SP2h   N5r  1 4.300000e-01    3.380000e+00
  SP2r   N5h  1 4.300000e-01    3.380000e+00
  SP2h   N4r  1 4.300000e-01    3.160000e+00
  SP2r   N4h  1 4.300000e-01    3.160000e+00
  SP2h   N3r  1 4.300000e-01    2.920000e+00
  SP2r   N3h  1 4.300000e-01    2.920000e+00
  SP2h   N2r  1 4.300000e-01    2.920000e+00
  SP2r   N2h  1 4.300000e-01    2.920000e+00
  SP2h   N1r  1 4.300000e-01    2.920000e+00
  SP2r   N1h  1 4.300000e-01    2.920000e+00
  SP2h  P2dr  1 4.300000e-01    3.770000e+00
  SP2r  P2dh  1 4.300000e-01    3.770000e+00
  SP2h  P1dr  1 4.300000e-01    3.590000e+00
  SP2r  P1dh  1 4.300000e-01    3.590000e+00
  SP2h  N6dr  1 4.300000e-01    3.590000e+00
  SP2r  N6dh  1 4.300000e-01    3.590000e+00
  SP2h  N5dr  1 4.300000e-01    3.380000e+00
  SP2r  N5dh  1 4.300000e-01    3.380000e+00
  SP2h  N4dr  1 4.300000e-01    3.160000e+00
  SP2r  N4dh  1 4.300000e-01    3.160000e+00
  SP2h  N3dr  1 4.300000e-01    2.920000e+00
  SP2r  N3dh  1 4.300000e-01    2.920000e+00
  SP2h  N2dr  1 4.300000e-01    2.920000e+00
  SP2r  N2dh  1 4.300000e-01    2.920000e+00
  SP2h  N1dr  1 4.300000e-01    2.920000e+00
  SP2r  N1dh  1 4.300000e-01    2.920000e+00
  SP2h  P2ar  1 4.300000e-01    3.770000e+00
  SP2r  P2ah  1 4.300000e-01    3.770000e+00
  SP2h  P1ar  1 4.300000e-01    3.590000e+00
  SP2r  P1ah  1 4.300000e-01    3.590000e+00
  SP2h  N6ar  1 4.300000e-01    3.590000e+00
  SP2r  N6ah  1 4.300000e-01    3.590000e+00
  SP2h  N5ar  1 4.300000e-01    3.380000e+00
  SP2r  N5ah  1 4.300000e-01    3.380000e+00
  SP2h  N4ar  1 4.300000e-01    3.160000e+00
  SP2r  N4ah  1 4.300000e-01    3.160000e+00
  SP2h  N3ar  1 4.300000e-01    2.920000e+00
  SP2r  N3ah  1 4.300000e-01    2.920000e+00
  SP2h  N2ar  1 4.300000e-01    2.920000e+00
  SP2r  N2ah  1 4.300000e-01    2.920000e+00
  SP2h  N1ar  1 4.300000e-01    2.920000e+00
  SP2r  N1ah  1 4.300000e-01    2.920000e+00
  SP1h   P1r  1 4.300000e-01    3.590000e+00
  SP1h   N6r  1 4.300000e-01    3.590000e+00
  SP1r   N6h  1 4.300000e-01    3.590000e+00
  SP1h   N5r  1 4.300000e-01    3.380000e+00
  SP1r   N5h  1 4.300000e-01    3.380000e+00
  SP1h   N4r  1 4.300000e-01    3.380000e+00
  SP1r   N4h  1 4.300000e-01    3.380000e+00
  SP1h   N3r  1 4.300000e-01    2.920000e+00
  SP1r   N3h  1 4.300000e-01    2.920000e+00
  SP1h   N2r  1 4.300000e-01    2.920000e+00
  SP1r   N2h  1 4.300000e-01    2.920000e+00
  SP1h   N1r  1 4.300000e-01    2.920000e+00
  SP1r   N1h  1 4.300000e-01    2.920000e+00
  SP1h  P1dr  1 4.300000e-01    3.590000e+00
  SP1r  P1dh  1 4.300000e-01    3.590000e+00
  SP1h  N6dr  1 4.300000e-01    3.590000e+00
  SP1r  N6dh  1 4.300000e-01    3.590000e+00
  SP1h  N5dr  1 4.300000e-01    3.380000e+00
  SP1r  N5dh  1 4.300000e-01    3.380000e+00
  SP1h  N4dr  1 4.300000e-01    3.380000e+00
  SP1r  N4dh  1 4.300000e-01    3.380000e+00
  SP1h  N3dr  1 4.300000e-01    2.920000e+00
  SP1r  N3dh  1 4.300000e-01    2.920000e+00
  SP1h  N2dr  1 4.300000e-01    2.920000e+00
  SP1r  N2dh  1 4.300000e-01    2.920000e+00
  SP1h  N1dr  1 4.300000e-01    2.920000e+00
  SP1r  N1dh  1 4.300000e-01    2.920000e+00
  SP1h  P1ar  1 4.300000e-01    3.590000e+00
  SP1r  P1ah  1 4.300000e-01    3.590000e+00
  SP1h  N6ar  1 4.300000e-01    3.590000e+00
  SP1r  N6ah  1 4.300000e-01    3.590000e+00
  SP1h  N5ar  1 4.300000e-01    3.380000e+00
  SP1r  N5ah  1 4.300000e-01    3.380000e+00
  SP1h  N4ar  1 4.300000e-01    3.380000e+00
  SP1r  N4ah  1 4.300000e-01    3.380000e+00
  SP1h  N3ar  1 4.300000e-01    2.920000e+00
  SP1r  N3ah  1 4.300000e-01    2.920000e+00
  SP1h  N2ar  1 4.300000e-01    2.920000e+00
  SP1r  N2ah  1 4.300000e-01    2.920000e+00
  SP1h  N1ar  1 4.300000e-01    2.920000e+00
  SP1r  N1ah  1 4.300000e-01    2.920000e+00
  SN6h   N6r  1 4.300000e-01    3.590000e+00
  SN6h   N5r  1 4.300000e-01    3.590000e+00
  SN6r   N5h  1 4.300000e-01    3.590000e+00
  SN6h   N4r  1 4.300000e-01    3.590000e+00
  SN6r   N4h  1 4.300000e-01    3.590000e+00
  SN6h   N3r  1 4.300000e-01    3.160000e+00
  SN6r   N3h  1 4.300000e-01    3.160000e+00
  SN6h   N2r  1 4.300000e-01    2.920000e+00
  SN6r   N2h  1 4.300000e-01    2.920000e+00
  SN6h   N1r  1 4.300000e-01    2.920000e+00
  SN6r   N1h  1 4.300000e-01    2.920000e+00
  SN6h  N6dr  1 4.300000e-01    3.590000e+00
  SN6r  N6dh  1 4.300000e-01    3.590000e+00
  SN6h  N5dr  1 4.300000e-01    3.590000e+00
  SN6r  N5dh  1 4.300000e-01    3.590000e+00
  SN6h  N4dr  1 4.300000e-01    3.590000e+00
  SN6r  N4dh  1 4.300000e-01    3.590000e+00
  SN6h  N3dr  1 4.300000e-01    3.160000e+00
  SN6r  N3dh  1 4.300000e-01    3.160000e+00
  SN6h  N2dr  1 4.300000e-01    2.920000e+00
  SN6r  N2dh  1 4.300000e-01    2.920000e+00
  SN6h  N1dr  1 4.300000e-01    2.920000e+00
  SN6r  N1dh  1 4.300000e-01    2.920000e+00
  SN6h  N6ar  1 4.300000e-01    3.590000e+00
  SN6r  N6ah  1 4.300000e-01    3.590000e+00
  SN6h  N5ar  1 4.300000e-01    3.590000e+00
  SN6r  N5ah  1 4.300000e-01    3.590000e+00
  SN6h  N4ar  1 4.300000e-01    3.590000e+00
  SN6r  N4ah  1 4.300000e-01    3.590000e+00
  SN6h  N3ar  1 4.300000e-01    3.160000e+00
  SN6r  N3ah  1 4.300000e-01    3.160000e+00
  SN6h  N2ar  1 4.300000e-01    2.920000e+00
  SN6r  N2ah  1 4.300000e-01    2.920000e+00
  SN6h  N1ar  1 4.300000e-01    2.920000e+00
  SN6r  N1ah  1 4.300000e-01    2.920000e+00
  SN5h   N5r  1 4.300000e-01    3.380000e+00
  SN5h   N4r  1 4.300000e-01    3.380000e+00
  SN5r   N4h  1 4.300000e-01    3.380000e+00
  SN5h   N3r  1 4.300000e-01    3.160000e+00
  SN5r   N3h  1 4.300000e-01    3.160000e+00
  SN5h   N2r  1 4.300000e-01    3.160000e+00
  SN5r   N2h  1 4.300000e-01    3.160000e+00
  SN5h   N1r  1 4.300000e-01    2.920000e+00
  SN5r   N1h  1 4.300000e-01    2.920000e+00
  SN5h  N5dr  1 4.300000e-01    3.380000e+00
  SN5r  N5dh  1 4.300000e-01    3.380000e+00
  SN5h  N4dr  1 4.300000e-01    3.380000e+00
  SN5r  N4dh  1 4.300000e-01    3.380000e+00
  SN5h  N3dr  1 4.300000e-01    3.160000e+00
  SN5r  N3dh  1 4.300000e-01    3.160000e+00
  SN5h  N2dr  1 4.300000e-01    3.160000e+00
  SN5r  N2dh  1 4.300000e-01    3.160000e+00
  SN5h  N1dr  1 4.300000e-01    2.920000e+00
  SN5r  N1dh  1 4.300000e-01    2.920000e+00
  SN5h  N5ar  1 4.300000e-01    3.380000e+00
  SN5r  N5ah  1 4.300000e-01    3.380000e+00
  SN5h  N4ar  1 4.300000e-01    3.380000e+00
  SN5r  N4ah  1 4.300000e-01    3.380000e+00
  SN5h  N3ar  1 4.300000e-01    3.160000e+00
  SN5r  N3ah  1 4.300000e-01    3.160000e+00
  SN5h  N2ar  1 4.300000e-01    3.160000e+00
  SN5r  N2ah  1 4.300000e-01    3.160000e+00
  SN5h  N1ar  1 4.300000e-01    2.920000e+00
  SN5r  N1ah  1 4.300000e-01    2.920000e+00
  SN4h   N4r  1 4.300000e-01    3.380000e+00
  SN4h   N3r  1 4.300000e-01    3.160000e+00
  SN4r   N3h  1 4.300000e-01    3.160000e+00
  SN4h   N2r  1 4.300000e-01    3.160000e+00
  SN4r   N2h  1 4.300000e-01    3.160000e+00
  SN4h   N1r  1 4.300000e-01    2.920000e+00
  SN4r   N1h  1 4.300000e-01    2.920000e+00
  SN4h  N4dr  1 4.300000e-01    3.380000e+00
  SN4r  N4dh  1 4.300000e-01    3.380000e+00
  SN4h  N3dr  1 4.300000e-01    3.160000e+00
  SN4r  N3dh  1 4.300000e-01    3.160000e+00
  SN4h  N2dr  1 4.300000e-01    3.160000e+00
  SN4r  N2dh  1 4.300000e-01    3.160000e+00
  SN4h  N1dr  1 4.300000e-01    2.920000e+00
  SN4r  N1dh  1 4.300000e-01    2.920000e+00
  SN4h  N4ar  1 4.300000e-01    3.380000e+00
  SN4r  N4ah  1 4.300000e-01    3.380000e+00
  SN4h  N3ar  1 4.300000e-01    3.160000e+00
  SN4r  N3ah  1 4.300000e-01    3.160000e+00
  SN4h  N2ar  1 4.300000e-01    3.160000e+00
  SN4r  N2ah  1 4.300000e-01    3.160000e+00
  SN4h  N1ar  1 4.300000e-01    2.920000e+00
  SN4r  N1ah  1 4.300000e-01    2.920000e+00
  SN3h   N3r  1 4.300000e-01    3.160000e+00
  SN3h   N2r  1 4.300000e-01    3.160000e+00
  SN3r   N2h  1 4.300000e-01    3.160000e+00
  SN3h   N1r  1 4.300000e-01    2.920000e+00
  SN3r   N1h  1 4.300000e-01    2.920000e+00
  SN3h  N3dr  1 4.300000e-01    3.160000e+00
  SN3r  N3dh  1 4.300000e-01    3.160000e+00
  SN3h  N2dr  1 4.300000e-01    3.160000e+00
  SN3r  N2dh  1 4.300000e-01    3.160000e+00
  SN3h  N1dr  1 4.300000e-01    2.920000e+00
  SN3r  N1dh  1 4.300000e-01    2.920000e+00
  SN3h  N3ar  1 4.300000e-01    3.160000e+00
  SN3r  N3ah  1 4.300000e-01    3.160000e+00
  SN3h  N2ar  1 4.300000e-01    3.160000e+00
  SN3r  N2ah  1 4.300000e-01    3.160000e+00
  SN3h  N1ar  1 4.300000e-01    2.920000e+00
  SN3r  N1ah  1 4.300000e-01    2.920000e+00
  SN2h   N2r  1 4.300000e-01    3.160000e+00
  SN2h   N1r  1 4.300000e-01    2.920000e+00
  SN2r   N1h  1 4.300000e-01    2.920000e+00
  SN2h  N2dr  1 4.300000e-01    3.160000e+00
  SN2r  N2dh  1 4.300000e-01    3.160000e+00
  SN2h  N1dr  1 4.300000e-01    2.920000e+00
  SN2r  N1dh  1 4.300000e-01    2.920000e+00
  SN2h  N2ar  1 4.300000e-01    3.160000e+00
  SN2r  N2ah  1 4.300000e-01    3.160000e+00
  SN2h  N1ar  1 4.300000e-01    2.920000e+00
  SN2r  N1ah  1 4.300000e-01    2.920000e+00
  SN1h   N1r  1 4.300000e-01    3.160000e+00
  SN1h  N1dr  1 4.300000e-01    3.160000e+00
  SN1r  N1dh  1 4.300000e-01    3.160000e+00
  SN1h  N1ar  1 4.300000e-01    3.160000e+00
  SN1r  N1ah  1 4.300000e-01    3.160000e+00
 SP6dh   P5r  1 4.300000e-01    4.400000e+00
 SP6dr   P5h  1 4.300000e-01    4.400000e+00
 SP6dh   P4r  1 4.300000e-01    4.170000e+00
 SP6dr   P4h  1 4.300000e-01    4.170000e+00
 SP6dh   P3r  1 4.300000e-01    3.970000e+00
 SP6dr   P3h  1 4.300000e-01    3.970000e+00
 SP6dh   P2r  1 4.300000e-01    3.970000e+00
 SP6dr   P2h  1 4.300000e-01    3.970000e+00
 SP6dh   P1r  1 4.300000e-01    3.770000e+00
 SP6dr   P1h  1 4.300000e-01    3.770000e+00
 SP6dh   N6r  1 4.300000e-01    3.590000e+00
 SP6dr   N6h  1 4.300000e-01    3.590000e+00
 SP6dh   N5r  1 4.300000e-01    3.160000e+00
 SP6dr   N5h  1 4.300000e-01    3.160000e+00
 SP6dh   N4r  1 4.300000e-01    2.920000e+00
 SP6dr   N4h  1 4.300000e-01    2.920000e+00
 SP6dh   N3r  1 4.300000e-01    2.770000e+00
 SP6dr   N3h  1 4.300000e-01    2.770000e+00
 SP6dh   N2r  1 4.300000e-01    2.530000e+00
 SP6dr   N2h  1 4.300000e-01    2.530000e+00
 SP6dh   N1r  1 4.300000e-01    2.320000e+00
 SP6dr   N1h  1 4.300000e-01    2.320000e+00
 SP5dh   P4r  1 4.300000e-01    3.970000e+00
 SP5dr   P4h  1 4.300000e-01    3.970000e+00
 SP5dh   P3r  1 4.300000e-01    3.770000e+00
 SP5dr   P3h  1 4.300000e-01    3.770000e+00
 SP5dh   P2r  1 4.300000e-01    3.770000e+00
 SP5dr   P2h  1 4.300000e-01    3.770000e+00
 SP5dh   P1r  1 4.300000e-01    3.590000e+00
 SP5dr   P1h  1 4.300000e-01    3.590000e+00
 SP5dh   N6r  1 4.300000e-01    3.380000e+00
 SP5dr   N6h  1 4.300000e-01    3.380000e+00
 SP5dh   N5r  1 4.300000e-01    3.160000e+00
 SP5dr   N5h  1 4.300000e-01    3.160000e+00
 SP5dh   N4r  1 4.300000e-01    3.160000e+00
 SP5dr   N4h  1 4.300000e-01    3.160000e+00
 SP5dh   N3r  1 4.300000e-01    2.770000e+00
 SP5dr   N3h  1 4.300000e-01    2.770000e+00
 SP5dh   N2r  1 4.300000e-01    2.530000e+00
 SP5dr   N2h  1 4.300000e-01    2.530000e+00
 SP5dh   N1r  1 4.300000e-01    2.320000e+00
 SP5dr   N1h  1 4.300000e-01    2.320000e+00
 SP4dh   P3r  1 4.300000e-01    3.770000e+00
 SP4dr   P3h  1 4.300000e-01    3.770000e+00
 SP4dh   P2r  1 4.300000e-01    3.770000e+00
 SP4dr   P2h  1 4.300000e-01    3.770000e+00
 SP4dh   P1r  1 4.300000e-01    3.590000e+00
 SP4dr   P1h  1 4.300000e-01    3.590000e+00
 SP4dh   N6r  1 4.300000e-01    3.380000e+00
 SP4dr   N6h  1 4.300000e-01    3.380000e+00
 SP4dh   N5r  1 4.300000e-01    3.160000e+00
 SP4dr   N5h  1 4.300000e-01    3.160000e+00
 SP4dh   N4r  1 4.300000e-01    3.160000e+00
 SP4dr   N4h  1 4.300000e-01    3.160000e+00
 SP4dh   N3r  1 4.300000e-01    2.920000e+00
 SP4dr   N3h  1 4.300000e-01    2.920000e+00
 SP4dh   N2r  1 4.300000e-01    2.770000e+00
 SP4dr   N2h  1 4.300000e-01    2.770000e+00
 SP4dh   N1r  1 4.300000e-01    2.530000e+00
 SP4dr   N1h  1 4.300000e-01    2.530000e+00
 SP3dh   P2r  1 4.300000e-01    3.770000e+00
 SP3dr   P2h  1 4.300000e-01    3.770000e+00
 SP3dh   P1r  1 4.300000e-01    3.590000e+00
 SP3dr   P1h  1 4.300000e-01    3.590000e+00
 SP3dh   N6r  1 4.300000e-01    3.380000e+00
 SP3dr   N6h  1 4.300000e-01    3.380000e+00
 SP3dh   N5r  1 4.300000e-01    3.160000e+00
 SP3dr   N5h  1 4.300000e-01    3.160000e+00
 SP3dh   N4r  1 4.300000e-01    3.160000e+00
 SP3dr   N4h  1 4.300000e-01    3.160000e+00
 SP3dh   N3r  1 4.300000e-01    2.920000e+00
 SP3dr   N3h  1 4.300000e-01    2.920000e+00
 SP3dh   N2r  1 4.300000e-01    2.920000e+00
 SP3dr   N2h  1 4.300000e-01    2.920000e+00
 SP3dh   N1r  1 4.300000e-01    2.770000e+00
 SP3dr   N1h  1 4.300000e-01    2.770000e+00
 SP2dh   P1r  1 4.300000e-01    3.590000e+00
 SP2dr   P1h  1 4.300000e-01    3.590000e+00
 SP2dh   N6r  1 4.300000e-01    3.590000e+00
 SP2dr   N6h  1 4.300000e-01    3.590000e+00
 SP2dh   N5r  1 4.300000e-01    3.380000e+00
 SP2dr   N5h  1 4.300000e-01    3.380000e+00
 SP2dh   N4r  1 4.300000e-01    3.160000e+00
 SP2dr   N4h  1 4.300000e-01    3.160000e+00
 SP2dh   N3r  1 4.300000e-01    2.920000e+00
 SP2dr   N3h  1 4.300000e-01    2.920000e+00
 SP2dh   N2r  1 4.300000e-01    2.920000e+00
 SP2dr   N2h  1 4.300000e-01    2.920000e+00
 SP2dh   N1r  1 4.300000e-01    2.920000e+00
 SP2dr   N1h  1 4.300000e-01    2.920000e+00
 SP1dh   N6r  1 4.300000e-01    3.590000e+00
 SP1dr   N6h  1 4.300000e-01    3.590000e+00
 SP1dh   N5r  1 4.300000e-01    3.380000e+00
 SP1dr   N5h  1 4.300000e-01    3.380000e+00
 SP1dh   N4r  1 4.300000e-01    3.380000e+00
 SP1dr   N4h  1 4.300000e-01    3.380000e+00
 SP1dh   N3r  1 4.300000e-01    2.920000e+00
 SP1dr   N3h  1 4.300000e-01    2.920000e+00
 SP1dh   N2r  1 4.300000e-01    2.920000e+00
 SP1dr   N2h  1 4.300000e-01    2.920000e+00
 SP1dh   N1r  1 4.300000e-01    2.920000e+00
 SP1dr   N1h  1 4.300000e-01    2.920000e+00
 SN6dh   N5r  1 4.300000e-01    3.590000e+00
 SN6dr   N5h  1 4.300000e-01    3.590000e+00
 SN6dh   N4r  1 4.300000e-01    3.590000e+00
 SN6dr   N4h  1 4.300000e-01    3.590000e+00
 SN6dh   N3r  1 4.300000e-01    3.160000e+00
 SN6dr   N3h  1 4.300000e-01    3.160000e+00
 SN6dh   N2r  1 4.300000e-01    2.920000e+00
 SN6dr   N2h  1 4.300000e-01    2.920000e+00
 SN6dh   N1r  1 4.300000e-01    2.920000e+00
 SN6dr   N1h  1 4.300000e-01    2.920000e+00
 SN5dh   N4r  1 4.300000e-01    3.380000e+00
 SN5dr   N4h  1 4.300000e-01    3.380000e+00
 SN5dh   N3r  1 4.300000e-01    3.160000e+00
 SN5dr   N3h  1 4.300000e-01    3.160000e+00
 SN5dh   N2r  1 4.300000e-01    3.160000e+00
 SN5dr   N2h  1 4.300000e-01    3.160000e+00
 SN5dh   N1r  1 4.300000e-01    2.920000e+00
 SN5dr   N1h  1 4.300000e-01    2.920000e+00
 SN4dh   N3r  1 4.300000e-01    3.160000e+00
 SN4dr   N3h  1 4.300000e-01    3.160000e+00
 SN4dh   N2r  1 4.300000e-01    3.160000e+00
 SN4dr   N2h  1 4.300000e-01    3.160000e+00
 SN4dh   N1r  1 4.300000e-01    2.920000e+00
 SN4dr   N1h  1 4.300000e-01    2.920000e+00
 SN3dh   N2r  1 4.300000e-01    3.160000e+00
 SN3dr   N2h  1 4.300000e-01    3.160000e+00
 SN3dh   N1r  1 4.300000e-01    2.920000e+00
 SN3dr   N1h  1 4.300000e-01    2.920000e+00
 SN2dh   N1r  1 4.300000e-01    2.920000e+00
 SN2dr   N1h  1 4.300000e-01    2.920000e+00
 SP6ah   P5r  1 4.300000e-01    4.400000e+00
 SP6ar   P5h  1 4.300000e-01    4.400000e+00
 SP6ah   P4r  1 4.300000e-01    4.170000e+00
 SP6ar   P4h  1 4.300000e-01    4.170000e+00
 SP6ah   P3r  1 4.300000e-01    3.970000e+00
 SP6ar   P3h  1 4.300000e-01    3.970000e+00
 SP6ah   P2r  1 4.300000e-01    3.970000e+00
 SP6ar   P2h  1 4.300000e-01    3.970000e+00
 SP6ah   P1r  1 4.300000e-01    3.770000e+00
 SP6ar   P1h  1 4.300000e-01    3.770000e+00
 SP6ah   N6r  1 4.300000e-01    3.590000e+00
 SP6ar   N6h  1 4.300000e-01    3.590000e+00
 SP6ah   N5r  1 4.300000e-01    3.160000e+00
 SP6ar   N5h  1 4.300000e-01    3.160000e+00
 SP6ah   N4r  1 4.300000e-01    2.920000e+00
 SP6ar   N4h  1 4.300000e-01    2.920000e+00
 SP6ah   N3r  1 4.300000e-01    2.770000e+00
 SP6ar   N3h  1 4.300000e-01    2.770000e+00
 SP6ah   N2r  1 4.300000e-01    2.530000e+00
 SP6ar   N2h  1 4.300000e-01    2.530000e+00
 SP6ah   N1r  1 4.300000e-01    2.320000e+00
 SP6ar   N1h  1 4.300000e-01    2.320000e+00
 SP5ah   P4r  1 4.300000e-01    3.970000e+00
 SP5ar   P4h  1 4.300000e-01    3.970000e+00
 SP5ah   P3r  1 4.300000e-01    3.770000e+00
 SP5ar   P3h  1 4.300000e-01    3.770000e+00
 SP5ah   P2r  1 4.300000e-01    3.770000e+00
 SP5ar   P2h  1 4.300000e-01    3.770000e+00
 SP5ah   P1r  1 4.300000e-01    3.590000e+00
 SP5ar   P1h  1 4.300000e-01    3.590000e+00
 SP5ah   N6r  1 4.300000e-01    3.380000e+00
 SP5ar   N6h  1 4.300000e-01    3.380000e+00
 SP5ah   N5r  1 4.300000e-01    3.160000e+00
 SP5ar   N5h  1 4.300000e-01    3.160000e+00
 SP5ah   N4r  1 4.300000e-01    3.160000e+00
 SP5ar   N4h  1 4.300000e-01    3.160000e+00
 SP5ah   N3r  1 4.300000e-01    2.770000e+00
 SP5ar   N3h  1 4.300000e-01    2.770000e+00
 SP5ah   N2r  1 4.300000e-01    2.530000e+00
 SP5ar   N2h  1 4.300000e-01    2.530000e+00
 SP5ah   N1r  1 4.300000e-01    2.320000e+00
 SP5ar   N1h  1 4.300000e-01    2.320000e+00
 SP4ah   P3r  1 4.300000e-01    3.770000e+00
 SP4ar   P3h  1 4.300000e-01    3.770000e+00
 SP4ah   P2r  1 4.300000e-01    3.770000e+00
 SP4ar   P2h  1 4.300000e-01    3.770000e+00
 SP4ah   P1r  1 4.300000e-01    3.590000e+00
 SP4ar   P1h  1 4.300000e-01    3.590000e+00
 SP4ah   N6r  1 4.300000e-01    3.380000e+00
 SP4ar   N6h  1 4.300000e-01    3.380000e+00
 SP4ah   N5r  1 4.300000e-01    3.160000e+00
 SP4ar   N5h  1 4.300000e-01    3.160000e+00
 SP4ah   N4r  1 4.300000e-01    3.160000e+00
 SP4ar   N4h  1 4.300000e-01    3.160000e+00
 SP4ah   N3r  1 4.300000e-01    2.920000e+00
 SP4ar   N3h  1 4.300000e-01    2.920000e+00
 SP4ah   N2r  1 4.300000e-01    2.770000e+00
 SP4ar   N2h  1 4.300000e-01    2.770000e+00
 SP4ah   N1r  1 4.300000e-01    2.530000e+00
 SP4ar   N1h  1 4.300000e-01    2.530000e+00
 SP3ah   P2r  1 4.300000e-01    3.770000e+00
 SP3ar   P2h  1 4.300000e-01    3.770000e+00
 SP3ah   P1r  1 4.300000e-01    3.590000e+00
 SP3ar   P1h  1 4.300000e-01    3.590000e+00
 SP3ah   N6r  1 4.300000e-01    3.380000e+00
 SP3ar   N6h  1 4.300000e-01    3.380000e+00
 SP3ah   N5r  1 4.300000e-01    3.160000e+00
 SP3ar   N5h  1 4.300000e-01    3.160000e+00
 SP3ah   N4r  1 4.300000e-01    3.160000e+00
 SP3ar   N4h  1 4.300000e-01    3.160000e+00
 SP3ah   N3r  1 4.300000e-01    2.920000e+00
 SP3ar   N3h  1 4.300000e-01    2.920000e+00
 SP3ah   N2r  1 4.300000e-01    2.920000e+00
 SP3ar   N2h  1 4.300000e-01    2.920000e+00
 SP3ah   N1r  1 4.300000e-01    2.770000e+00
 SP3ar   N1h  1 4.300000e-01    2.770000e+00
 SP2ah   P1r  1 4.300000e-01    3.590000e+00
 SP2ar   P1h  1 4.300000e-01    3.590000e+00
 SP2ah   N6r  1 4.300000e-01    3.590000e+00
 SP2ar   N6h  1 4.300000e-01    3.590000e+00
 SP2ah   N5r  1 4.300000e-01    3.380000e+00
 SP2ar   N5h  1 4.300000e-01    3.380000e+00
 SP2ah   N4r  1 4.300000e-01    3.160000e+00
 SP2ar   N4h  1 4.300000e-01    3.160000e+00
 SP2ah   N3r  1 4.300000e-01    2.920000e+00
 SP2ar   N3h  1 4.300000e-01    2.920000e+00
 SP2ah   N2r  1 4.300000e-01    2.920000e+00
 SP2ar   N2h  1 4.300000e-01    2.920000e+00
 SP2ah   N1r  1 4.300000e-01    2.920000e+00
 SP2ar   N1h  1 4.300000e-01    2.920000e+00
 SP1ah   N6r  1 4.300000e-01    3.590000e+00
 SP1ar   N6h  1 4.300000e-01    3.590000e+00
 SP1ah   N5r  1 4.300000e-01    3.380000e+00
 SP1ar   N5h  1 4.300000e-01    3.380000e+00
 SP1ah   N4r  1 4.300000e-01    3.380000e+00
 SP1ar   N4h  1 4.300000e-01    3.380000e+00
 SP1ah   N3r  1 4.300000e-01    2.920000e+00
 SP1ar   N3h  1 4.300000e-01    2.920000e+00
 SP1ah   N2r  1 4.300000e-01    2.920000e+00
 SP1ar   N2h  1 4.300000e-01    2.920000e+00
 SP1ah   N1r  1 4.300000e-01    2.920000e+00
 SP1ar   N1h  1 4.300000e-01    2.920000e+00
 SN6ah   N5r  1 4.300000e-01    3.590000e+00
 SN6ar   N5h  1 4.300000e-01    3.590000e+00
 SN6ah   N4r  1 4.300000e-01    3.590000e+00
 SN6ar   N4h  1 4.300000e-01    3.590000e+00
 SN6ah   N3r  1 4.300000e-01    3.160000e+00
 SN6ar   N3h  1 4.300000e-01    3.160000e+00
 SN6ah   N2r  1 4.300000e-01    2.920000e+00
 SN6ar   N2h  1 4.300000e-01    2.920000e+00
 SN6ah   N1r  1 4.300000e-01    2.920000e+00
 SN6ar   N1h  1 4.300000e-01    2.920000e+00
 SN5ah   N4r  1 4.300000e-01    3.380000e+00
 SN5ar   N4h  1 4.300000e-01    3.380000e+00
 SN5ah   N3r  1 4.300000e-01    3.160000e+00
 SN5ar   N3h  1 4.300000e-01    3.160000e+00
 SN5ah   N2r  1 4.300000e-01    3.160000e+00
 SN5ar   N2h  1 4.300000e-01    3.160000e+00
 SN5ah   N1r  1 4.300000e-01    2.920000e+00
 SN5ar   N1h  1 4.300000e-01    2.920000e+00
 SN4ah   N3r  1 4.300000e-01    3.160000e+00
 SN4ar   N3h  1 4.300000e-01    3.160000e+00
 SN4ah   N2r  1 4.300000e-01    3.160000e+00
 SN4ar   N2h  1 4.300000e-01    3.160000e+00
 SN4ah   N1r  1 4.300000e-01    2.920000e+00
 SN4ar   N1h  1 4.300000e-01    2.920000e+00
 SN3ah   N2r  1 4.300000e-01    3.160000e+00
 SN3ar   N2h  1 4.300000e-01    3.160000e+00
 SN3ah   N1r  1 4.300000e-01    2.920000e+00
 SN3ar   N1h  1 4.300000e-01    2.920000e+00
 SN2ah   N1r  1 4.300000e-01    2.920000e+00
 SN2ar   N1h  1 4.300000e-01    2.920000e+00
  SC6h   C6r  1 4.300000e-01    3.160000e+00
  SC6h   C5r  1 4.300000e-01    2.920000e+00
  SC6r   C5h  1 4.300000e-01    2.920000e+00
  SC6h   C4r  1 4.300000e-01    2.920000e+00
  SC6r   C4h  1 4.300000e-01    2.920000e+00
  SC6h   C3r  1 4.300000e-01    2.770000e+00
  SC6r   C3h  1 4.300000e-01    2.770000e+00
  SC6h   C2r  1 4.300000e-01    2.530000e+00
  SC6r   C2h  1 4.300000e-01    2.530000e+00
  SC6h   C1r  1 4.300000e-01    2.320000e+00
  SC6r   C1h  1 4.300000e-01    2.320000e+00
  SC6h   X4r  1 4.300000e-01    2.920000e+00
  SC6r   X4h  1 4.300000e-01    2.920000e+00
  SC6h   X3r  1 4.300000e-01    2.920000e+00
  SC6r   X3h  1 4.300000e-01    2.920000e+00
  SC6h   X2r  1 4.300000e-01    2.920000e+00
  SC6r   X2h  1 4.300000e-01    2.920000e+00
  SC6h   X1r  1 4.300000e-01    2.920000e+00
  SC6r   X1h  1 4.300000e-01    2.920000e+00
  SC6h  C6vr  1 4.300000e-01    3.380000e+00
  SC6r  C6vh  1 4.300000e-01    3.380000e+00
  SC6h  C5vr  1 4.300000e-01    3.160000e+00
  SC6r  C5vh  1 4.300000e-01    3.160000e+00
  SC6h  C4vr  1 4.300000e-01    3.160000e+00
  SC6r  C4vh  1 4.300000e-01    3.160000e+00
  SC6h  C3vr  1 4.300000e-01    2.920000e+00
  SC6r  C3vh  1 4.300000e-01    2.920000e+00
  SC6h  C2vr  1 4.300000e-01    2.770000e+00
  SC6r  C2vh  1 4.300000e-01    2.770000e+00
  SC6h  C1vr  1 4.300000e-01    2.530000e+00
  SC6r  C1vh  1 4.300000e-01    2.530000e+00
  SC6h  X4vr  1 4.300000e-01    3.160000e+00
  SC6r  X4vh  1 4.300000e-01    3.160000e+00
  SC6h  X3vr  1 4.300000e-01    3.160000e+00
  SC6r  X3vh  1 4.300000e-01    3.160000e+00
  SC6h  X2vr  1 4.300000e-01    3.160000e+00
  SC6r  X2vh  1 4.300000e-01    3.160000e+00
  SC6h  X1vr  1 4.300000e-01    3.160000e+00
  SC6r  X1vh  1 4.300000e-01    3.160000e+00
  SC6h  C6er  1 4.300000e-01    3.380000e+00
  SC6r  C6eh  1 4.300000e-01    3.380000e+00
  SC6h  C5er  1 4.300000e-01    3.160000e+00
  SC6r  C5eh  1 4.300000e-01    3.160000e+00
  SC6h  C4er  1 4.300000e-01    3.160000e+00
  SC6r  C4eh  1 4.300000e-01    3.160000e+00
  SC6h  C3er  1 4.300000e-01    2.920000e+00
  SC6r  C3eh  1 4.300000e-01    2.920000e+00
  SC6h  C2er  1 4.300000e-01    2.770000e+00
  SC6r  C2eh  1 4.300000e-01    2.770000e+00
  SC6h  C1er  1 4.300000e-01    2.530000e+00
  SC6r  C1eh  1 4.300000e-01    2.530000e+00
  SC6h  X4er  1 4.300000e-01    3.160000e+00
  SC6r  X4eh  1 4.300000e-01    3.160000e+00
  SC6h  X3er  1 4.300000e-01    3.160000e+00
  SC6r  X3eh  1 4.300000e-01    3.160000e+00
  SC6h  X2er  1 4.300000e-01    3.160000e+00
  SC6r  X2eh  1 4.300000e-01    3.160000e+00
  SC6h  X1er  1 4.300000e-01    3.160000e+00
  SC6r  X1eh  1 4.300000e-01    3.160000e+00
  SC5h   C5r  1 4.300000e-01    2.920000e+00
  SC5h   C4r  1 4.300000e-01    2.920000e+00
  SC5r   C4h  1 4.300000e-01    2.920000e+00
  SC5h   C3r  1 4.300000e-01    2.770000e+00
  SC5r   C3h  1 4.300000e-01    2.770000e+00
  SC5h   C2r  1 4.300000e-01    2.530000e+00
  SC5r   C2h  1 4.300000e-01    2.530000e+00
  SC5h   C1r  1 4.300000e-01    2.530000e+00
  SC5r   C1h  1 4.300000e-01    2.530000e+00
  SC5h   X4r  1 4.300000e-01    2.770000e+00
  SC5r   X4h  1 4.300000e-01    2.770000e+00
  SC5h   X3r  1 4.300000e-01    2.770000e+00
  SC5r   X3h  1 4.300000e-01    2.770000e+00
  SC5h   X2r  1 4.300000e-01    2.770000e+00
  SC5r   X2h  1 4.300000e-01    2.770000e+00
  SC5h   X1r  1 4.300000e-01    2.920000e+00
  SC5r   X1h  1 4.300000e-01    2.920000e+00
  SC5h  C5vr  1 4.300000e-01    3.160000e+00
  SC5r  C5vh  1 4.300000e-01    3.160000e+00
  SC5h  C4vr  1 4.300000e-01    3.160000e+00
  SC5r  C4vh  1 4.300000e-01    3.160000e+00
  SC5h  C3vr  1 4.300000e-01    2.920000e+00
  SC5r  C3vh  1 4.300000e-01    2.920000e+00
  SC5h  C2vr  1 4.300000e-01    2.770000e+00
  SC5r  C2vh  1 4.300000e-01    2.770000e+00
  SC5h  C1vr  1 4.300000e-01    2.770000e+00
  SC5r  C1vh  1 4.300000e-01    2.770000e+00
  SC5h  X4vr  1 4.300000e-01    2.920000e+00
  SC5r  X4vh  1 4.300000e-01    2.920000e+00
  SC5h  X3vr  1 4.300000e-01    2.920000e+00
  SC5r  X3vh  1 4.300000e-01    2.920000e+00
  SC5h  X2vr  1 4.300000e-01    2.920000e+00
  SC5r  X2vh  1 4.300000e-01    2.920000e+00
  SC5h  X1vr  1 4.300000e-01    3.160000e+00
  SC5r  X1vh  1 4.300000e-01    3.160000e+00
  SC5h  C5er  1 4.300000e-01    3.160000e+00
  SC5r  C5eh  1 4.300000e-01    3.160000e+00
  SC5h  C4er  1 4.300000e-01    3.160000e+00
  SC5r  C4eh  1 4.300000e-01    3.160000e+00
  SC5h  C3er  1 4.300000e-01    2.920000e+00
  SC5r  C3eh  1 4.300000e-01    2.920000e+00
  SC5h  C2er  1 4.300000e-01    2.770000e+00
  SC5r  C2eh  1 4.300000e-01    2.770000e+00
  SC5h  C1er  1 4.300000e-01    2.770000e+00
  SC5r  C1eh  1 4.300000e-01    2.770000e+00
  SC5h  X4er  1 4.300000e-01    2.920000e+00
  SC5r  X4eh  1 4.300000e-01    2.920000e+00
  SC5h  X3er  1 4.300000e-01    2.920000e+00
  SC5r  X3eh  1 4.300000e-01    2.920000e+00
  SC5h  X2er  1 4.300000e-01    2.920000e+00
  SC5r  X2eh  1 4.300000e-01    2.920000e+00
  SC5h  X1er  1 4.300000e-01    3.160000e+00
  SC5r  X1eh  1 4.300000e-01    3.160000e+00
  SC4h   C4r  1 4.300000e-01    2.920000e+00
  SC4h   C3r  1 4.300000e-01    2.920000e+00
  SC4r   C3h  1 4.300000e-01    2.920000e+00
  SC4h   C2r  1 4.300000e-01    2.770000e+00
  SC4r   C2h  1 4.300000e-01    2.770000e+00
  SC4h   C1r  1 4.300000e-01    2.530000e+00
  SC4r   C1h  1 4.300000e-01    2.530000e+00
  SC4h   X4r  1 4.300000e-01    2.770000e+00
  SC4r   X4h  1 4.300000e-01    2.770000e+00
  SC4h   X3r  1 4.300000e-01    2.770000e+00
  SC4r   X3h  1 4.300000e-01    2.770000e+00
  SC4h   X2r  1 4.300000e-01    2.770000e+00
  SC4r   X2h  1 4.300000e-01    2.770000e+00
  SC4h   X1r  1 4.300000e-01    2.920000e+00
  SC4r   X1h  1 4.300000e-01    2.920000e+00
  SC4h  C4vr  1 4.300000e-01    3.160000e+00
  SC4r  C4vh  1 4.300000e-01    3.160000e+00
  SC4h  C3vr  1 4.300000e-01    3.160000e+00
  SC4r  C3vh  1 4.300000e-01    3.160000e+00
  SC4h  C2vr  1 4.300000e-01    2.920000e+00
  SC4r  C2vh  1 4.300000e-01    2.920000e+00
  SC4h  C1vr  1 4.300000e-01    2.770000e+00
  SC4r  C1vh  1 4.300000e-01    2.770000e+00
  SC4h  X4vr  1 4.300000e-01    2.920000e+00
  SC4r  X4vh  1 4.300000e-01    2.920000e+00
  SC4h  X3vr  1 4.300000e-01    2.920000e+00
  SC4r  X3vh  1 4.300000e-01    2.920000e+00
  SC4h  X2vr  1 4.300000e-01    2.920000e+00
  SC4r  X2vh  1 4.300000e-01    2.920000e+00
  SC4h  X1vr  1 4.300000e-01    3.160000e+00
  SC4r  X1vh  1 4.300000e-01    3.160000e+00
  SC4h  C4er  1 4.300000e-01    3.160000e+00
  SC4r  C4eh  1 4.300000e-01    3.160000e+00
  SC4h  C3er  1 4.300000e-01    3.160000e+00
  SC4r  C3eh  1 4.300000e-01    3.160000e+00
  SC4h  C2er  1 4.300000e-01    2.920000e+00
  SC4r  C2eh  1 4.300000e-01    2.920000e+00
  SC4h  C1er  1 4.300000e-01    2.770000e+00
  SC4r  C1eh  1 4.300000e-01    2.770000e+00
  SC4h  X4er  1 4.300000e-01    2.920000e+00
  SC4r  X4eh  1 4.300000e-01    2.920000e+00
  SC4h  X3er  1 4.300000e-01    2.920000e+00
  SC4r  X3eh  1 4.300000e-01    2.920000e+00
  SC4h  X2er  1 4.300000e-01    2.920000e+00
  SC4r  X2eh  1 4.300000e-01    2.920000e+00
  SC4h  X1er  1 4.300000e-01    3.160000e+00
  SC4r  X1eh  1 4.300000e-01    3.160000e+00
  SC3h   C3r  1 4.300000e-01    2.920000e+00
  SC3h   C2r  1 4.300000e-01    2.920000e+00
  SC3r   C2h  1 4.300000e-01    2.920000e+00
  SC3h   C1r  1 4.300000e-01    2.920000e+00
  SC3r   C1h  1 4.300000e-01    2.920000e+00
  SC3h   X4r  1 4.300000e-01    2.770000e+00
  SC3r   X4h  1 4.300000e-01    2.770000e+00
  SC3h   X3r  1 4.300000e-01    2.770000e+00
  SC3r   X3h  1 4.300000e-01    2.770000e+00
  SC3h   X2r  1 4.300000e-01    2.770000e+00
  SC3r   X2h  1 4.300000e-01    2.770000e+00
  SC3h   X1r  1 4.300000e-01    2.920000e+00
  SC3r   X1h  1 4.300000e-01    2.920000e+00
  SC3h  C3vr  1 4.300000e-01    3.160000e+00
  SC3r  C3vh  1 4.300000e-01    3.160000e+00
  SC3h  C2vr  1 4.300000e-01    3.160000e+00
  SC3r  C2vh  1 4.300000e-01    3.160000e+00
  SC3h  C1vr  1 4.300000e-01    3.160000e+00
  SC3r  C1vh  1 4.300000e-01    3.160000e+00
  SC3h  X4vr  1 4.300000e-01    2.920000e+00
  SC3r  X4vh  1 4.300000e-01    2.920000e+00
  SC3h  X3vr  1 4.300000e-01    2.920000e+00
  SC3r  X3vh  1 4.300000e-01    2.920000e+00
  SC3h  X2vr  1 4.300000e-01    2.920000e+00
  SC3r  X2vh  1 4.300000e-01    2.920000e+00
  SC3h  X1vr  1 4.300000e-01    3.160000e+00
  SC3r  X1vh  1 4.300000e-01    3.160000e+00
  SC3h  C3er  1 4.300000e-01    3.160000e+00
  SC3r  C3eh  1 4.300000e-01    3.160000e+00
  SC3h  C2er  1 4.300000e-01    3.160000e+00
  SC3r  C2eh  1 4.300000e-01    3.160000e+00
  SC3h  C1er  1 4.300000e-01    3.160000e+00
  SC3r  C1eh  1 4.300000e-01    3.160000e+00
  SC3h  X4er  1 4.300000e-01    2.920000e+00
  SC3r  X4eh  1 4.300000e-01    2.920000e+00
  SC3h  X3er  1 4.300000e-01    2.920000e+00
  SC3r  X3eh  1 4.300000e-01    2.920000e+00
  SC3h  X2er  1 4.300000e-01    2.920000e+00
  SC3r  X2eh  1 4.300000e-01    2.920000e+00
  SC3h  X1er  1 4.300000e-01    3.160000e+00
  SC3r  X1eh  1 4.300000e-01    3.160000e+00
  SC2h   C2r  1 4.300000e-01    2.920000e+00
  SC2h   C1r  1 4.300000e-01    3.160000e+00
  SC2r   C1h  1 4.300000e-01    3.160000e+00
  SC2h   X4r  1 4.300000e-01    2.320000e+00
  SC2r   X4h  1 4.300000e-01    2.320000e+00
  SC2h   X3r  1 4.300000e-01    2.770000e+00
  SC2r   X3h  1 4.300000e-01    2.770000e+00
  SC2h   X2r  1 4.300000e-01    2.770000e+00
  SC2r   X2h  1 4.300000e-01    2.770000e+00
  SC2h   X1r  1 4.300000e-01    2.770000e+00
  SC2r   X1h  1 4.300000e-01    2.770000e+00
  SC2h  C2vr  1 4.300000e-01    3.160000e+00
  SC2r  C2vh  1 4.300000e-01    3.160000e+00
  SC2h  C1vr  1 4.300000e-01    3.380000e+00
  SC2r  C1vh  1 4.300000e-01    3.380000e+00
  SC2h  X4vr  1 4.300000e-01    2.530000e+00
  SC2r  X4vh  1 4.300000e-01    2.530000e+00
  SC2h  X3vr  1 4.300000e-01    2.920000e+00
  SC2r  X3vh  1 4.300000e-01    2.920000e+00
  SC2h  X2vr  1 4.300000e-01    2.920000e+00
  SC2r  X2vh  1 4.300000e-01    2.920000e+00
  SC2h  X1vr  1 4.300000e-01    2.920000e+00
  SC2r  X1vh  1 4.300000e-01    2.920000e+00
  SC2h  C2er  1 4.300000e-01    3.160000e+00
  SC2r  C2eh  1 4.300000e-01    3.160000e+00
  SC2h  C1er  1 4.300000e-01    3.380000e+00
  SC2r  C1eh  1 4.300000e-01    3.380000e+00
  SC2h  X4er  1 4.300000e-01    2.530000e+00
  SC2r  X4eh  1 4.300000e-01    2.530000e+00
  SC2h  X3er  1 4.300000e-01    2.920000e+00
  SC2r  X3eh  1 4.300000e-01    2.920000e+00
  SC2h  X2er  1 4.300000e-01    2.920000e+00
  SC2r  X2eh  1 4.300000e-01    2.920000e+00
  SC2h  X1er  1 4.300000e-01    2.920000e+00
  SC2r  X1eh  1 4.300000e-01    2.920000e+00
  SC1h   C1r  1 4.300000e-01    2.920000e+00
  SC1h   X4r  1 4.300000e-01    2.320000e+00
  SC1r   X4h  1 4.300000e-01    2.320000e+00
  SC1h   X3r  1 4.300000e-01    2.770000e+00
  SC1r   X3h  1 4.300000e-01    2.770000e+00
  SC1h   X2r  1 4.300000e-01    2.770000e+00
  SC1r   X2h  1 4.300000e-01    2.770000e+00
  SC1h   X1r  1 4.300000e-01    2.770000e+00
  SC1r   X1h  1 4.300000e-01    2.770000e+00
  SC1h  C1vr  1 4.300000e-01    3.160000e+00
  SC1r  C1vh  1 4.300000e-01    3.160000e+00
  SC1h  X4vr  1 4.300000e-01    2.530000e+00
  SC1r  X4vh  1 4.300000e-01    2.530000e+00
  SC1h  X3vr  1 4.300000e-01    2.920000e+00
  SC1r  X3vh  1 4.300000e-01    2.920000e+00
  SC1h  X2vr  1 4.300000e-01    2.920000e+00
  SC1r  X2vh  1 4.300000e-01    2.920000e+00
  SC1h  X1vr  1 4.300000e-01    2.920000e+00
  SC1r  X1vh  1 4.300000e-01    2.920000e+00
  SC1h  C1er  1 4.300000e-01    3.160000e+00
  SC1r  C1eh  1 4.300000e-01    3.160000e+00
  SC1h  X4er  1 4.300000e-01    2.530000e+00
  SC1r  X4eh  1 4.300000e-01    2.530000e+00
  SC1h  X3er  1 4.300000e-01    2.920000e+00
  SC1r  X3eh  1 4.300000e-01    2.920000e+00
  SC1h  X2er  1 4.300000e-01    2.920000e+00
  SC1r  X2eh  1 4.300000e-01    2.920000e+00
  SC1h  X1er  1 4.300000e-01    2.920000e+00
  SC1r  X1eh  1 4.300000e-01    2.920000e+00
  SX4h   X4r  1 4.300000e-01    2.920000e+00
  SX4h   X3r  1 4.300000e-01    2.920000e+00
  SX4r   X3h  1 4.300000e-01    2.920000e+00
  SX4h   X2r  1 4.300000e-01    2.920000e+00
  SX4r   X2h  1 4.300000e-01    2.920000e+00
  SX4h   X1r  1 4.300000e-01    2.920000e+00
  SX4r   X1h  1 4.300000e-01    2.920000e+00
  SX4h  X4vr  1 4.300000e-01    3.160000e+00
  SX4r  X4vh  1 4.300000e-01    3.160000e+00
  SX4h  X3vr  1 4.300000e-01    3.160000e+00
  SX4r  X3vh  1 4.300000e-01    3.160000e+00
  SX4h  X2vr  1 4.300000e-01    3.160000e+00
  SX4r  X2vh  1 4.300000e-01    3.160000e+00
  SX4h  X1vr  1 4.300000e-01    3.160000e+00
  SX4r  X1vh  1 4.300000e-01    3.160000e+00
  SX4h  X4er  1 4.300000e-01    3.160000e+00
  SX4r  X4eh  1 4.300000e-01    3.160000e+00
  SX4h  X3er  1 4.300000e-01    3.160000e+00
  SX4r  X3eh  1 4.300000e-01    3.160000e+00
  SX4h  X2er  1 4.300000e-01    3.160000e+00
  SX4r  X2eh  1 4.300000e-01    3.160000e+00
  SX4h  X1er  1 4.300000e-01    3.160000e+00
  SX4r  X1eh  1 4.300000e-01    3.160000e+00
  SX3h   X3r  1 4.300000e-01    2.920000e+00
  SX3h   X2r  1 4.300000e-01    3.160000e+00
  SX3r   X2h  1 4.300000e-01    3.160000e+00
  SX3h   X1r  1 4.300000e-01    3.160000e+00
  SX3r   X1h  1 4.300000e-01    3.160000e+00
  SX3h  X3vr  1 4.300000e-01    3.160000e+00
  SX3r  X3vh  1 4.300000e-01    3.160000e+00
  SX3h  X2vr  1 4.300000e-01    3.380000e+00
  SX3r  X2vh  1 4.300000e-01    3.380000e+00
  SX3h  X1vr  1 4.300000e-01    3.380000e+00
  SX3r  X1vh  1 4.300000e-01    3.380000e+00
  SX3h  X3er  1 4.300000e-01    3.160000e+00
  SX3r  X3eh  1 4.300000e-01    3.160000e+00
  SX3h  X2er  1 4.300000e-01    3.380000e+00
  SX3r  X2eh  1 4.300000e-01    3.380000e+00
  SX3h  X1er  1 4.300000e-01    3.380000e+00
  SX3r  X1eh  1 4.300000e-01    3.380000e+00
  SX2h   X2r  1 4.300000e-01    3.160000e+00
  SX2h   X1r  1 4.300000e-01    3.160000e+00
  SX2r   X1h  1 4.300000e-01    3.160000e+00
  SX2h  X2vr  1 4.300000e-01    3.380000e+00
  SX2r  X2vh  1 4.300000e-01    3.380000e+00
  SX2h  X1vr  1 4.300000e-01    3.380000e+00
  SX2r  X1vh  1 4.300000e-01    3.380000e+00
  SX2h  X2er  1 4.300000e-01    3.380000e+00
  SX2r  X2eh  1 4.300000e-01    3.380000e+00
  SX2h  X1er  1 4.300000e-01    3.380000e+00
  SX2r  X1eh  1 4.300000e-01    3.380000e+00
  SX1h   X1r  1 4.300000e-01    3.380000e+00
  SX1h  X1vr  1 4.300000e-01    3.590000e+00
  SX1r  X1vh  1 4.300000e-01    3.590000e+00
  SX1h  X1er  1 4.300000e-01    3.590000e+00
  SX1r  X1eh  1 4.300000e-01    3.590000e+00
 SC6vh  C6vr  1 4.300000e-01    2.920000e+00
 SC6vh   C5r  1 4.300000e-01    3.160000e+00
 SC6vr   C5h  1 4.300000e-01    3.160000e+00
 SC6vh   C4r  1 4.300000e-01    3.160000e+00
 SC6vr   C4h  1 4.300000e-01    3.160000e+00
 SC6vh   C3r  1 4.300000e-01    2.920000e+00
 SC6vr   C3h  1 4.300000e-01    2.920000e+00
 SC6vh   C2r  1 4.300000e-01    2.770000e+00
 SC6vr   C2h  1 4.300000e-01    2.770000e+00
 SC6vh   C1r  1 4.300000e-01    2.530000e+00
 SC6vr   C1h  1 4.300000e-01    2.530000e+00
 SC6vh   X4r  1 4.300000e-01    3.160000e+00
 SC6vr   X4h  1 4.300000e-01    3.160000e+00
 SC6vh   X3r  1 4.300000e-01    3.160000e+00
 SC6vr   X3h  1 4.300000e-01    3.160000e+00
 SC6vh   X2r  1 4.300000e-01    3.160000e+00
 SC6vr   X2h  1 4.300000e-01    3.160000e+00
 SC6vh   X1r  1 4.300000e-01    3.160000e+00
 SC6vr   X1h  1 4.300000e-01    3.160000e+00
 SC6vh  C5vr  1 4.300000e-01    2.770000e+00
 SC6vr  C5vh  1 4.300000e-01    2.770000e+00
 SC6vh  C4vr  1 4.300000e-01    2.770000e+00
 SC6vr  C4vh  1 4.300000e-01    2.770000e+00
 SC6vh  C3vr  1 4.300000e-01    2.530000e+00
 SC6vr  C3vh  1 4.300000e-01    2.530000e+00
 SC6vh  C2vr  1 4.300000e-01    2.320000e+00
 SC6vr  C2vh  1 4.300000e-01    2.320000e+00
 SC6vh  C1vr  1 4.300000e-01    2.160000e+00
 SC6vr  C1vh  1 4.300000e-01    2.160000e+00
 SC6vh  X4vr  1 4.300000e-01    2.770000e+00
 SC6vr  X4vh  1 4.300000e-01    2.770000e+00
 SC6vh  X3vr  1 4.300000e-01    2.770000e+00
 SC6vr  X3vh  1 4.300000e-01    2.770000e+00
 SC6vh  X2vr  1 4.300000e-01    2.770000e+00
 SC6vr  X2vh  1 4.300000e-01    2.770000e+00
 SC6vh  X1vr  1 4.300000e-01    2.770000e+00
 SC6vr  X1vh  1 4.300000e-01    2.770000e+00
 SC5vh  C5vr  1 4.300000e-01    2.770000e+00
 SC5vh   C4r  1 4.300000e-01    3.160000e+00
 SC5vr   C4h  1 4.300000e-01    3.160000e+00
 SC5vh   C3r  1 4.300000e-01    2.920000e+00
 SC5vr   C3h  1 4.300000e-01    2.920000e+00
 SC5vh   C2r  1 4.300000e-01    2.770000e+00
 SC5vr   C2h  1 4.300000e-01    2.770000e+00
 SC5vh   C1r  1 4.300000e-01    2.770000e+00
 SC5vr   C1h  1 4.300000e-01    2.770000e+00
 SC5vh   X4r  1 4.300000e-01    2.920000e+00
 SC5vr   X4h  1 4.300000e-01    2.920000e+00
 SC5vh   X3r  1 4.300000e-01    2.920000e+00
 SC5vr   X3h  1 4.300000e-01    2.920000e+00
 SC5vh   X2r  1 4.300000e-01    2.920000e+00
 SC5vr   X2h  1 4.300000e-01    2.920000e+00
 SC5vh   X1r  1 4.300000e-01    3.160000e+00
 SC5vr   X1h  1 4.300000e-01    3.160000e+00
 SC5vh  C4vr  1 4.300000e-01    2.770000e+00
 SC5vr  C4vh  1 4.300000e-01    2.770000e+00
 SC5vh  C3vr  1 4.300000e-01    2.530000e+00
 SC5vr  C3vh  1 4.300000e-01    2.530000e+00
 SC5vh  C2vr  1 4.300000e-01    2.320000e+00
 SC5vr  C2vh  1 4.300000e-01    2.320000e+00
 SC5vh  C1vr  1 4.300000e-01    2.320000e+00
 SC5vr  C1vh  1 4.300000e-01    2.320000e+00
 SC5vh  X4vr  1 4.300000e-01    2.530000e+00
 SC5vr  X4vh  1 4.300000e-01    2.530000e+00
 SC5vh  X3vr  1 4.300000e-01    2.530000e+00
 SC5vr  X3vh  1 4.300000e-01    2.530000e+00
 SC5vh  X2vr  1 4.300000e-01    2.530000e+00
 SC5vr  X2vh  1 4.300000e-01    2.530000e+00
 SC5vh  X1vr  1 4.300000e-01    2.770000e+00
 SC5vr  X1vh  1 4.300000e-01    2.770000e+00
 SC4vh  C4vr  1 4.300000e-01    2.770000e+00
 SC4vh   C3r  1 4.300000e-01    3.160000e+00
 SC4vr   C3h  1 4.300000e-01    3.160000e+00
 SC4vh   C2r  1 4.300000e-01    2.920000e+00
 SC4vr   C2h  1 4.300000e-01    2.920000e+00
 SC4vh   C1r  1 4.300000e-01    2.770000e+00
 SC4vr   C1h  1 4.300000e-01    2.770000e+00
 SC4vh   X4r  1 4.300000e-01    2.920000e+00
 SC4vr   X4h  1 4.300000e-01    2.920000e+00
 SC4vh   X3r  1 4.300000e-01    2.920000e+00
 SC4vr   X3h  1 4.300000e-01    2.920000e+00
 SC4vh   X2r  1 4.300000e-01    2.920000e+00
 SC4vr   X2h  1 4.300000e-01    2.920000e+00
 SC4vh   X1r  1 4.300000e-01    3.160000e+00
 SC4vr   X1h  1 4.300000e-01    3.160000e+00
 SC4vh  C3vr  1 4.300000e-01    2.770000e+00
 SC4vr  C3vh  1 4.300000e-01    2.770000e+00
 SC4vh  C2vr  1 4.300000e-01    2.530000e+00
 SC4vr  C2vh  1 4.300000e-01    2.530000e+00
 SC4vh  C1vr  1 4.300000e-01    2.320000e+00
 SC4vr  C1vh  1 4.300000e-01    2.320000e+00
 SC4vh  X4vr  1 4.300000e-01    2.530000e+00
 SC4vr  X4vh  1 4.300000e-01    2.530000e+00
 SC4vh  X3vr  1 4.300000e-01    2.530000e+00
 SC4vr  X3vh  1 4.300000e-01    2.530000e+00
 SC4vh  X2vr  1 4.300000e-01    2.530000e+00
 SC4vr  X2vh  1 4.300000e-01    2.530000e+00
 SC4vh  X1vr  1 4.300000e-01    2.770000e+00
 SC4vr  X1vh  1 4.300000e-01    2.770000e+00
 SC3vh  C3vr  1 4.300000e-01    2.770000e+00
 SC3vh   C2r  1 4.300000e-01    3.160000e+00
 SC3vr   C2h  1 4.300000e-01    3.160000e+00
 SC3vh   C1r  1 4.300000e-01    3.160000e+00
 SC3vr   C1h  1 4.300000e-01    3.160000e+00
 SC3vh   X4r  1 4.300000e-01    2.920000e+00
 SC3vr   X4h  1 4.300000e-01    2.920000e+00
 SC3vh   X3r  1 4.300000e-01    2.920000e+00
 SC3vr   X3h  1 4.300000e-01    2.920000e+00
 SC3vh   X2r  1 4.300000e-01    2.920000e+00
 SC3vr   X2h  1 4.300000e-01    2.920000e+00
 SC3vh   X1r  1 4.300000e-01    3.160000e+00
 SC3vr   X1h  1 4.300000e-01    3.160000e+00
 SC3vh  C2vr  1 4.300000e-01    2.770000e+00
 SC3vr  C2vh  1 4.300000e-01    2.770000e+00
 SC3vh  C1vr  1 4.300000e-01    2.770000e+00
 SC3vr  C1vh  1 4.300000e-01    2.770000e+00
 SC3vh  X4vr  1 4.300000e-01    2.530000e+00
 SC3vr  X4vh  1 4.300000e-01    2.530000e+00
 SC3vh  X3vr  1 4.300000e-01    2.530000e+00
 SC3vr  X3vh  1 4.300000e-01    2.530000e+00
 SC3vh  X2vr  1 4.300000e-01    2.530000e+00
 SC3vr  X2vh  1 4.300000e-01    2.530000e+00
 SC3vh  X1vr  1 4.300000e-01    2.770000e+00
 SC3vr  X1vh  1 4.300000e-01    2.770000e+00
 SC2vh  C2vr  1 4.300000e-01    2.770000e+00
 SC2vh   C1r  1 4.300000e-01    3.380000e+00
 SC2vr   C1h  1 4.300000e-01    3.380000e+00
 SC2vh   X4r  1 4.300000e-01    2.530000e+00
 SC2vr   X4h  1 4.300000e-01    2.530000e+00
 SC2vh   X3r  1 4.300000e-01    2.920000e+00
 SC2vr   X3h  1 4.300000e-01    2.920000e+00
 SC2vh   X2r  1 4.300000e-01    2.920000e+00
 SC2vr   X2h  1 4.300000e-01    2.920000e+00
 SC2vh   X1r  1 4.300000e-01    2.920000e+00
 SC2vr   X1h  1 4.300000e-01    2.920000e+00
 SC2vh  C1vr  1 4.300000e-01    2.920000e+00
 SC2vr  C1vh  1 4.300000e-01    2.920000e+00
 SC2vh  X4vr  1 4.300000e-01    2.160000e+00
 SC2vr  X4vh  1 4.300000e-01    2.160000e+00
 SC2vh  X3vr  1 4.300000e-01    2.530000e+00
 SC2vr  X3vh  1 4.300000e-01    2.530000e+00
 SC2vh  X2vr  1 4.300000e-01    2.530000e+00
 SC2vr  X2vh  1 4.300000e-01    2.530000e+00
 SC2vh  X1vr  1 4.300000e-01    2.530000e+00
 SC2vr  X1vh  1 4.300000e-01    2.530000e+00
 SC1vh  C1vr  1 4.300000e-01    2.770000e+00
 SC1vh   X4r  1 4.300000e-01    2.530000e+00
 SC1vr   X4h  1 4.300000e-01    2.530000e+00
 SC1vh   X3r  1 4.300000e-01    2.920000e+00
 SC1vr   X3h  1 4.300000e-01    2.920000e+00
 SC1vh   X2r  1 4.300000e-01    2.920000e+00
 SC1vr   X2h  1 4.300000e-01    2.920000e+00
 SC1vh   X1r  1 4.300000e-01    2.920000e+00
 SC1vr   X1h  1 4.300000e-01    2.920000e+00
 SC1vh  X4vr  1 4.300000e-01    2.160000e+00
 SC1vr  X4vh  1 4.300000e-01    2.160000e+00
 SC1vh  X3vr  1 4.300000e-01    2.530000e+00
 SC1vr  X3vh  1 4.300000e-01    2.530000e+00
 SC1vh  X2vr  1 4.300000e-01    2.530000e+00
 SC1vr  X2vh  1 4.300000e-01    2.530000e+00
 SC1vh  X1vr  1 4.300000e-01    2.530000e+00
 SC1vr  X1vh  1 4.300000e-01    2.530000e+00
 SX4vh  X4vr  1 4.300000e-01    2.770000e+00
 SX4vh   X3r  1 4.300000e-01    3.160000e+00
 SX4vr   X3h  1 4.300000e-01    3.160000e+00
 SX4vh   X2r  1 4.300000e-01    3.160000e+00
 SX4vr   X2h  1 4.300000e-01    3.160000e+00
 SX4vh   X1r  1 4.300000e-01    3.160000e+00
 SX4vr   X1h  1 4.300000e-01    3.160000e+00
 SX4vh  X3vr  1 4.300000e-01    2.770000e+00
 SX4vr  X3vh  1 4.300000e-01    2.770000e+00
 SX4vh  X2vr  1 4.300000e-01    2.770000e+00
 SX4vr  X2vh  1 4.300000e-01    2.770000e+00
 SX4vh  X1vr  1 4.300000e-01    2.770000e+00
 SX4vr  X1vh  1 4.300000e-01    2.770000e+00
 SX3vh  X3vr  1 4.300000e-01    2.770000e+00
 SX3vh   X2r  1 4.300000e-01    3.380000e+00
 SX3vr   X2h  1 4.300000e-01    3.380000e+00
 SX3vh   X1r  1 4.300000e-01    3.380000e+00
 SX3vr   X1h  1 4.300000e-01    3.380000e+00
 SX3vh  X2vr  1 4.300000e-01    2.920000e+00
 SX3vr  X2vh  1 4.300000e-01    2.920000e+00
 SX3vh  X1vr  1 4.300000e-01    2.920000e+00
 SX3vr  X1vh  1 4.300000e-01    2.920000e+00
 SX2vh  X2vr  1 4.300000e-01    2.920000e+00
 SX2vh   X1r  1 4.300000e-01    3.380000e+00
 SX2vr   X1h  1 4.300000e-01    3.380000e+00
 SX2vh  X1vr  1 4.300000e-01    2.920000e+00
 SX2vr  X1vh  1 4.300000e-01    2.920000e+00
 SX1vh  X1vr  1 4.300000e-01    3.160000e+00
 SC6eh  C6er  1 4.300000e-01    2.920000e+00
 SC6eh   C5r  1 4.300000e-01    3.160000e+00
 SC6er   C5h  1 4.300000e-01    3.160000e+00
 SC6eh   C4r  1 4.300000e-01    3.160000e+00
 SC6er   C4h  1 4.300000e-01    3.160000e+00
 SC6eh   C3r  1 4.300000e-01    2.920000e+00
 SC6er   C3h  1 4.300000e-01    2.920000e+00
 SC6eh   C2r  1 4.300000e-01    2.770000e+00
 SC6er   C2h  1 4.300000e-01    2.770000e+00
 SC6eh   C1r  1 4.300000e-01    2.530000e+00
 SC6er   C1h  1 4.300000e-01    2.530000e+00
 SC6eh   X4r  1 4.300000e-01    3.160000e+00
 SC6er   X4h  1 4.300000e-01    3.160000e+00
 SC6eh   X3r  1 4.300000e-01    3.160000e+00
 SC6er   X3h  1 4.300000e-01    3.160000e+00
 SC6eh   X2r  1 4.300000e-01    3.160000e+00
 SC6er   X2h  1 4.300000e-01    3.160000e+00
 SC6eh   X1r  1 4.300000e-01    3.160000e+00
 SC6er   X1h  1 4.300000e-01    3.160000e+00
 SC6eh  C5er  1 4.300000e-01    2.770000e+00
 SC6er  C5eh  1 4.300000e-01    2.770000e+00
 SC6eh  C4er  1 4.300000e-01    2.770000e+00
 SC6er  C4eh  1 4.300000e-01    2.770000e+00
 SC6eh  C3er  1 4.300000e-01    2.530000e+00
 SC6er  C3eh  1 4.300000e-01    2.530000e+00
 SC6eh  C2er  1 4.300000e-01    2.320000e+00
 SC6er  C2eh  1 4.300000e-01    2.320000e+00
 SC6eh  C1er  1 4.300000e-01    2.160000e+00
 SC6er  C1eh  1 4.300000e-01    2.160000e+00
 SC6eh  X4er  1 4.300000e-01    2.770000e+00
 SC6er  X4eh  1 4.300000e-01    2.770000e+00
 SC6eh  X3er  1 4.300000e-01    2.770000e+00
 SC6er  X3eh  1 4.300000e-01    2.770000e+00
 SC6eh  X2er  1 4.300000e-01    2.770000e+00
 SC6er  X2eh  1 4.300000e-01    2.770000e+00
 SC6eh  X1er  1 4.300000e-01    2.770000e+00
 SC6er  X1eh  1 4.300000e-01    2.770000e+00
 SC5eh  C5er  1 4.300000e-01    2.770000e+00
 SC5eh   C4r  1 4.300000e-01    3.160000e+00
 SC5er   C4h  1 4.300000e-01    3.160000e+00
 SC5eh   C3r  1 4.300000e-01    2.920000e+00
 SC5er   C3h  1 4.300000e-01    2.920000e+00
 SC5eh   C2r  1 4.300000e-01    2.770000e+00
 SC5er   C2h  1 4.300000e-01    2.770000e+00
 SC5eh   C1r  1 4.300000e-01    2.770000e+00
 SC5er   C1h  1 4.300000e-01    2.770000e+00
 SC5eh   X4r  1 4.300000e-01    2.920000e+00
 SC5er   X4h  1 4.300000e-01    2.920000e+00
 SC5eh   X3r  1 4.300000e-01    2.920000e+00
 SC5er   X3h  1 4.300000e-01    2.920000e+00
 SC5eh   X2r  1 4.300000e-01    2.920000e+00
 SC5er   X2h  1 4.300000e-01    2.920000e+00
 SC5eh   X1r  1 4.300000e-01    3.160000e+00
 SC5er   X1h  1 4.300000e-01    3.160000e+00
 SC5eh  C4er  1 4.300000e-01    2.770000e+00
 SC5er  C4eh  1 4.300000e-01    2.770000e+00
 SC5eh  C3er  1 4.300000e-01    2.530000e+00
 SC5er  C3eh  1 4.300000e-01    2.530000e+00
 SC5eh  C2er  1 4.300000e-01    2.320000e+00
 SC5er  C2eh  1 4.300000e-01    2.320000e+00
 SC5eh  C1er  1 4.300000e-01    2.320000e+00
 SC5er  C1eh  1 4.300000e-01    2.320000e+00
 SC5eh  X4er  1 4.300000e-01    2.530000e+00
 SC5er  X4eh  1 4.300000e-01    2.530000e+00
 SC5eh  X3er  1 4.300000e-01    2.530000e+00
 SC5er  X3eh  1 4.300000e-01    2.530000e+00
 SC5eh  X2er  1 4.300000e-01    2.530000e+00
 SC5er  X2eh  1 4.300000e-01    2.530000e+00
 SC5eh  X1er  1 4.300000e-01    2.770000e+00
 SC5er  X1eh  1 4.300000e-01    2.770000e+00
 SC4eh  C4er  1 4.300000e-01    2.770000e+00
 SC4eh   C3r  1 4.300000e-01    3.160000e+00
 SC4er   C3h  1 4.300000e-01    3.160000e+00
 SC4eh   C2r  1 4.300000e-01    2.920000e+00
 SC4er   C2h  1 4.300000e-01    2.920000e+00
 SC4eh   C1r  1 4.300000e-01    2.770000e+00
 SC4er   C1h  1 4.300000e-01    2.770000e+00
 SC4eh   X4r  1 4.300000e-01    2.920000e+00
 SC4er   X4h  1 4.300000e-01    2.920000e+00
 SC4eh   X3r  1 4.300000e-01    2.920000e+00
 SC4er   X3h  1 4.300000e-01    2.920000e+00
 SC4eh   X2r  1 4.300000e-01    2.920000e+00
 SC4er   X2h  1 4.300000e-01    2.920000e+00
 SC4eh   X1r  1 4.300000e-01    3.160000e+00
 SC4er   X1h  1 4.300000e-01    3.160000e+00
 SC4eh  C3er  1 4.300000e-01    2.770000e+00
 SC4er  C3eh  1 4.300000e-01    2.770000e+00
 SC4eh  C2er  1 4.300000e-01    2.530000e+00
 SC4er  C2eh  1 4.300000e-01    2.530000e+00
 SC4eh  C1er  1 4.300000e-01    2.320000e+00
 SC4er  C1eh  1 4.300000e-01    2.320000e+00
 SC4eh  X4er  1 4.300000e-01    2.530000e+00
 SC4er  X4eh  1 4.300000e-01    2.530000e+00
 SC4eh  X3er  1 4.300000e-01    2.530000e+00
 SC4er  X3eh  1 4.300000e-01    2.530000e+00
 SC4eh  X2er  1 4.300000e-01    2.530000e+00
 SC4er  X2eh  1 4.300000e-01    2.530000e+00
 SC4eh  X1er  1 4.300000e-01    2.770000e+00
 SC4er  X1eh  1 4.300000e-01    2.770000e+00
 SC3eh  C3er  1 4.300000e-01    2.770000e+00
 SC3eh   C2r  1 4.300000e-01    3.160000e+00
 SC3er   C2h  1 4.300000e-01    3.160000e+00
 SC3eh   C1r  1 4.300000e-01    3.160000e+00
 SC3er   C1h  1 4.300000e-01    3.160000e+00
 SC3eh   X4r  1 4.300000e-01    2.920000e+00
 SC3er   X4h  1 4.300000e-01    2.920000e+00
 SC3eh   X3r  1 4.300000e-01    2.920000e+00
 SC3er   X3h  1 4.300000e-01    2.920000e+00
 SC3eh   X2r  1 4.300000e-01    2.920000e+00
 SC3er   X2h  1 4.300000e-01    2.920000e+00
 SC3eh   X1r  1 4.300000e-01    3.160000e+00
 SC3er   X1h  1 4.300000e-01    3.160000e+00
 SC3eh  C2er  1 4.300000e-01    2.770000e+00
 SC3er  C2eh  1 4.300000e-01    2.770000e+00
 SC3eh  C1er  1 4.300000e-01    2.770000e+00
 SC3er  C1eh  1 4.300000e-01    2.770000e+00
 SC3eh  X4er  1 4.300000e-01    2.530000e+00
 SC3er  X4eh  1 4.300000e-01    2.530000e+00
 SC3eh  X3er  1 4.300000e-01    2.530000e+00
 SC3er  X3eh  1 4.300000e-01    2.530000e+00
 SC3eh  X2er  1 4.300000e-01    2.530000e+00
 SC3er  X2eh  1 4.300000e-01    2.530000e+00
 SC3eh  X1er  1 4.300000e-01    2.770000e+00
 SC3er  X1eh  1 4.300000e-01    2.770000e+00
 SC2eh  C2er  1 4.300000e-01    2.770000e+00
 SC2eh   C1r  1 4.300000e-01    3.380000e+00
 SC2er   C1h  1 4.300000e-01    3.380000e+00
 SC2eh   X4r  1 4.300000e-01    2.530000e+00
 SC2er   X4h  1 4.300000e-01    2.530000e+00
 SC2eh   X3r  1 4.300000e-01    2.920000e+00
 SC2er   X3h  1 4.300000e-01    2.920000e+00
 SC2eh   X2r  1 4.300000e-01    2.920000e+00
 SC2er   X2h  1 4.300000e-01    2.920000e+00
 SC2eh   X1r  1 4.300000e-01    2.920000e+00
 SC2er   X1h  1 4.300000e-01    2.920000e+00
 SC2eh  C1er  1 4.300000e-01    2.920000e+00
 SC2er  C1eh  1 4.300000e-01    2.920000e+00
 SC2eh  X4er  1 4.300000e-01    2.160000e+00
 SC2er  X4eh  1 4.300000e-01    2.160000e+00
 SC2eh  X3er  1 4.300000e-01    2.530000e+00
 SC2er  X3eh  1 4.300000e-01    2.530000e+00
 SC2eh  X2er  1 4.300000e-01    2.530000e+00
 SC2er  X2eh  1 4.300000e-01    2.530000e+00
 SC2eh  X1er  1 4.300000e-01    2.530000e+00
 SC2er  X1eh  1 4.300000e-01    2.530000e+00
 SC1eh  C1er  1 4.300000e-01    2.770000e+00
 SC1eh   X4r  1 4.300000e-01    2.530000e+00
 SC1er   X4h  1 4.300000e-01    2.530000e+00
 SC1eh   X3r  1 4.300000e-01    2.920000e+00
 SC1er   X3h  1 4.300000e-01    2.920000e+00
 SC1eh   X2r  1 4.300000e-01    2.920000e+00
 SC1er   X2h  1 4.300000e-01    2.920000e+00
 SC1eh   X1r  1 4.300000e-01    2.920000e+00
 SC1er   X1h  1 4.300000e-01    2.920000e+00
 SC1eh  X4er  1 4.300000e-01    2.160000e+00
 SC1er  X4eh  1 4.300000e-01    2.160000e+00
 SC1eh  X3er  1 4.300000e-01    2.530000e+00
 SC1er  X3eh  1 4.300000e-01    2.530000e+00
 SC1eh  X2er  1 4.300000e-01    2.530000e+00
 SC1er  X2eh  1 4.300000e-01    2.530000e+00
 SC1eh  X1er  1 4.300000e-01    2.530000e+00
 SC1er  X1eh  1 4.300000e-01    2.530000e+00
 SX4eh  X4er  1 4.300000e-01    2.770000e+00
 SX4eh   X3r  1 4.300000e-01    3.160000e+00
 SX4er   X3h  1 4.300000e-01    3.160000e+00
 SX4eh   X2r  1 4.300000e-01    3.160000e+00
 SX4er   X2h  1 4.300000e-01    3.160000e+00
 SX4eh   X1r  1 4.300000e-01    3.160000e+00
 SX4er   X1h  1 4.300000e-01    3.160000e+00
 SX4eh  X3er  1 4.300000e-01    2.770000e+00
 SX4er  X3eh  1 4.300000e-01    2.770000e+00
 SX4eh  X2er  1 4.300000e-01    2.770000e+00
 SX4er  X2eh  1 4.300000e-01    2.770000e+00
 SX4eh  X1er  1 4.300000e-01    2.770000e+00
 SX4er  X1eh  1 4.300000e-01    2.770000e+00
 SX3eh  X3er  1 4.300000e-01    2.770000e+00
 SX3eh   X2r  1 4.300000e-01    3.380000e+00
 SX3er   X2h  1 4.300000e-01    3.380000e+00
 SX3eh   X1r  1 4.300000e-01    3.380000e+00
 SX3er   X1h  1 4.300000e-01    3.380000e+00
 SX3eh  X2er  1 4.300000e-01    2.920000e+00
 SX3er  X2eh  1 4.300000e-01    2.920000e+00
 SX3eh  X1er  1 4.300000e-01    2.920000e+00
 SX3er  X1eh  1 4.300000e-01    2.920000e+00
 SX2eh  X2er  1 4.300000e-01    2.920000e+00
 SX2eh   X1r  1 4.300000e-01    3.380000e+00
 SX2er   X1h  1 4.300000e-01    3.380000e+00
 SX2eh  X1er  1 4.300000e-01    2.920000e+00
 SX2er  X1eh  1 4.300000e-01    2.920000e+00
 SX1eh  X1er  1 4.300000e-01    3.160000e+00
  SP6h   C6r  1 4.300000e-01    2.320000e+00
  SP6r   C6h  1 4.300000e-01    2.320000e+00
  SP6h   C5r  1 4.300000e-01    2.160000e+00
  SP6r   C5h  1 4.300000e-01    2.160000e+00
  SP6h   C4r  1 4.300000e-01    1.930000e+00
  SP6r   C4h  1 4.300000e-01    1.930000e+00
  SP6h   C3r  1 4.300000e-01    1.730000e+00
  SP6r   C3h  1 4.300000e-01    1.730000e+00
  SP6h   C2r  1 4.300000e-01    1.730000e+00
  SP6r   C2h  1 4.300000e-01    1.730000e+00
  SP6h   C1r  1 4.730000e-01    1.280000e+00
  SP6r   C1h  1 4.730000e-01    1.280000e+00
  SP6h   X4r  1 4.300000e-01    2.530000e+00
  SP6r   X4h  1 4.300000e-01    2.530000e+00
  SP6h   X3r  1 4.300000e-01    2.530000e+00
  SP6r   X3h  1 4.300000e-01    2.530000e+00
  SP6h   X2r  1 4.300000e-01    2.320000e+00
  SP6r   X2h  1 4.300000e-01    2.320000e+00
  SP6h   X1r  1 4.300000e-01    2.160000e+00
  SP6r   X1h  1 4.300000e-01    2.160000e+00
  SP6h  C6vr  1 4.300000e-01    2.530000e+00
  SP6r  C6vh  1 4.300000e-01    2.530000e+00
  SP6h  C5vr  1 4.300000e-01    2.320000e+00
  SP6r  C5vh  1 4.300000e-01    2.320000e+00
  SP6h  C4vr  1 4.300000e-01    2.160000e+00
  SP6r  C4vh  1 4.300000e-01    2.160000e+00
  SP6h  C3vr  1 4.300000e-01    1.930000e+00
  SP6r  C3vh  1 4.300000e-01    1.930000e+00
  SP6h  C2vr  1 4.300000e-01    1.930000e+00
  SP6r  C2vh  1 4.300000e-01    1.930000e+00
  SP6h  C1vr  1 4.430000e-01    1.480000e+00
  SP6r  C1vh  1 4.430000e-01    1.480000e+00
  SP6h  X4vr  1 4.300000e-01    2.770000e+00
  SP6r  X4vh  1 4.300000e-01    2.770000e+00
  SP6h  X3vr  1 4.300000e-01    2.770000e+00
  SP6r  X3vh  1 4.300000e-01    2.770000e+00
  SP6h  X2vr  1 4.300000e-01    2.530000e+00
  SP6r  X2vh  1 4.300000e-01    2.530000e+00
  SP6h  X1vr  1 4.300000e-01    2.320000e+00
  SP6r  X1vh  1 4.300000e-01    2.320000e+00
  SP6h  C6er  1 4.300000e-01    2.530000e+00
  SP6r  C6eh  1 4.300000e-01    2.530000e+00
  SP6h  C5er  1 4.300000e-01    2.320000e+00
  SP6r  C5eh  1 4.300000e-01    2.320000e+00
  SP6h  C4er  1 4.300000e-01    2.160000e+00
  SP6r  C4eh  1 4.300000e-01    2.160000e+00
  SP6h  C3er  1 4.300000e-01    1.930000e+00
  SP6r  C3eh  1 4.300000e-01    1.930000e+00
  SP6h  C2er  1 4.300000e-01    1.930000e+00
  SP6r  C2eh  1 4.300000e-01    1.930000e+00
  SP6h  C1er  1 4.430000e-01    1.480000e+00
  SP6r  C1eh  1 4.430000e-01    1.480000e+00
  SP6h  X4er  1 4.300000e-01    2.770000e+00
  SP6r  X4eh  1 4.300000e-01    2.770000e+00
  SP6h  X3er  1 4.300000e-01    2.770000e+00
  SP6r  X3eh  1 4.300000e-01    2.770000e+00
  SP6h  X2er  1 4.300000e-01    2.530000e+00
  SP6r  X2eh  1 4.300000e-01    2.530000e+00
  SP6h  X1er  1 4.300000e-01    2.320000e+00
  SP6r  X1eh  1 4.300000e-01    2.320000e+00
  SP5h   C6r  1 4.300000e-01    2.320000e+00
  SP5r   C6h  1 4.300000e-01    2.320000e+00
  SP5h   C5r  1 4.300000e-01    2.320000e+00
  SP5r   C5h  1 4.300000e-01    2.320000e+00
  SP5h   C4r  1 4.300000e-01    2.160000e+00
  SP5r   C4h  1 4.300000e-01    2.160000e+00
  SP5h   C3r  1 4.300000e-01    1.930000e+00
  SP5r   C3h  1 4.300000e-01    1.930000e+00
  SP5h   C2r  1 4.300000e-01    1.930000e+00
  SP5r   C2h  1 4.300000e-01    1.930000e+00
  SP5h   C1r  1 4.300000e-01    1.730000e+00
  SP5r   C1h  1 4.300000e-01    1.730000e+00
  SP5h   X4r  1 4.300000e-01    2.770000e+00
  SP5r   X4h  1 4.300000e-01    2.770000e+00
  SP5h   X3r  1 4.300000e-01    2.530000e+00
  SP5r   X3h  1 4.300000e-01    2.530000e+00
  SP5h   X2r  1 4.300000e-01    2.530000e+00
  SP5r   X2h  1 4.300000e-01    2.530000e+00
  SP5h   X1r  1 4.300000e-01    2.160000e+00
  SP5r   X1h  1 4.300000e-01    2.160000e+00
  SP5h  C6vr  1 4.300000e-01    2.530000e+00
  SP5r  C6vh  1 4.300000e-01    2.530000e+00
  SP5h  C5vr  1 4.300000e-01    2.530000e+00
  SP5r  C5vh  1 4.300000e-01    2.530000e+00
  SP5h  C4vr  1 4.300000e-01    2.320000e+00
  SP5r  C4vh  1 4.300000e-01    2.320000e+00
  SP5h  C3vr  1 4.300000e-01    2.160000e+00
  SP5r  C3vh  1 4.300000e-01    2.160000e+00
  SP5h  C2vr  1 4.300000e-01    2.160000e+00
  SP5r  C2vh  1 4.300000e-01    2.160000e+00
  SP5h  C1vr  1 4.300000e-01    1.930000e+00
  SP5r  C1vh  1 4.300000e-01    1.930000e+00
  SP5h  X4vr  1 4.300000e-01    2.920000e+00
  SP5r  X4vh  1 4.300000e-01    2.920000e+00
  SP5h  X3vr  1 4.300000e-01    2.770000e+00
  SP5r  X3vh  1 4.300000e-01    2.770000e+00
  SP5h  X2vr  1 4.300000e-01    2.770000e+00
  SP5r  X2vh  1 4.300000e-01    2.770000e+00
  SP5h  X1vr  1 4.300000e-01    2.320000e+00
  SP5r  X1vh  1 4.300000e-01    2.320000e+00
  SP5h  C6er  1 4.300000e-01    2.530000e+00
  SP5r  C6eh  1 4.300000e-01    2.530000e+00
  SP5h  C5er  1 4.300000e-01    2.530000e+00
  SP5r  C5eh  1 4.300000e-01    2.530000e+00
  SP5h  C4er  1 4.300000e-01    2.320000e+00
  SP5r  C4eh  1 4.300000e-01    2.320000e+00
  SP5h  C3er  1 4.300000e-01    2.160000e+00
  SP5r  C3eh  1 4.300000e-01    2.160000e+00
  SP5h  C2er  1 4.300000e-01    2.160000e+00
  SP5r  C2eh  1 4.300000e-01    2.160000e+00
  SP5h  C1er  1 4.300000e-01    1.930000e+00
  SP5r  C1eh  1 4.300000e-01    1.930000e+00
  SP5h  X4er  1 4.300000e-01    2.920000e+00
  SP5r  X4eh  1 4.300000e-01    2.920000e+00
  SP5h  X3er  1 4.300000e-01    2.770000e+00
  SP5r  X3eh  1 4.300000e-01    2.770000e+00
  SP5h  X2er  1 4.300000e-01    2.770000e+00
  SP5r  X2eh  1 4.300000e-01    2.770000e+00
  SP5h  X1er  1 4.300000e-01    2.320000e+00
  SP5r  X1eh  1 4.300000e-01    2.320000e+00
  SP4h   C6r  1 4.300000e-01    2.530000e+00
  SP4r   C6h  1 4.300000e-01    2.530000e+00
  SP4h   C5r  1 4.300000e-01    2.320000e+00
  SP4r   C5h  1 4.300000e-01    2.320000e+00
  SP4h   C4r  1 4.300000e-01    2.160000e+00
  SP4r   C4h  1 4.300000e-01    2.160000e+00
  SP4h   C3r  1 4.300000e-01    1.930000e+00
  SP4r   C3h  1 4.300000e-01    1.930000e+00
  SP4h   C2r  1 4.300000e-01    1.930000e+00
  SP4r   C2h  1 4.300000e-01    1.930000e+00
  SP4h   C1r  1 4.300000e-01    1.730000e+00
  SP4r   C1h  1 4.300000e-01    1.730000e+00
  SP4h   X4r  1 4.300000e-01    2.770000e+00
  SP4r   X4h  1 4.300000e-01    2.770000e+00
  SP4h   X3r  1 4.300000e-01    2.530000e+00
  SP4r   X3h  1 4.300000e-01    2.530000e+00
  SP4h   X2r  1 4.300000e-01    2.530000e+00
  SP4r   X2h  1 4.300000e-01    2.530000e+00
  SP4h   X1r  1 4.300000e-01    2.320000e+00
  SP4r   X1h  1 4.300000e-01    2.320000e+00
  SP4h  C6vr  1 4.300000e-01    2.770000e+00
  SP4r  C6vh  1 4.300000e-01    2.770000e+00
  SP4h  C5vr  1 4.300000e-01    2.530000e+00
  SP4r  C5vh  1 4.300000e-01    2.530000e+00
  SP4h  C4vr  1 4.300000e-01    2.320000e+00
  SP4r  C4vh  1 4.300000e-01    2.320000e+00
  SP4h  C3vr  1 4.300000e-01    2.160000e+00
  SP4r  C3vh  1 4.300000e-01    2.160000e+00
  SP4h  C2vr  1 4.300000e-01    2.160000e+00
  SP4r  C2vh  1 4.300000e-01    2.160000e+00
  SP4h  C1vr  1 4.300000e-01    1.930000e+00
  SP4r  C1vh  1 4.300000e-01    1.930000e+00
  SP4h  X4vr  1 4.300000e-01    2.920000e+00
  SP4r  X4vh  1 4.300000e-01    2.920000e+00
  SP4h  X3vr  1 4.300000e-01    2.770000e+00
  SP4r  X3vh  1 4.300000e-01    2.770000e+00
  SP4h  X2vr  1 4.300000e-01    2.770000e+00
  SP4r  X2vh  1 4.300000e-01    2.770000e+00
  SP4h  X1vr  1 4.300000e-01    2.530000e+00
  SP4r  X1vh  1 4.300000e-01    2.530000e+00
  SP4h  C6er  1 4.300000e-01    2.770000e+00
  SP4r  C6eh  1 4.300000e-01    2.770000e+00
  SP4h  C5er  1 4.300000e-01    2.530000e+00
  SP4r  C5eh  1 4.300000e-01    2.530000e+00
  SP4h  C4er  1 4.300000e-01    2.320000e+00
  SP4r  C4eh  1 4.300000e-01    2.320000e+00
  SP4h  C3er  1 4.300000e-01    2.160000e+00
  SP4r  C3eh  1 4.300000e-01    2.160000e+00
  SP4h  C2er  1 4.300000e-01    2.160000e+00
  SP4r  C2eh  1 4.300000e-01    2.160000e+00
  SP4h  C1er  1 4.300000e-01    1.930000e+00
  SP4r  C1eh  1 4.300000e-01    1.930000e+00
  SP4h  X4er  1 4.300000e-01    2.920000e+00
  SP4r  X4eh  1 4.300000e-01    2.920000e+00
  SP4h  X3er  1 4.300000e-01    2.770000e+00
  SP4r  X3eh  1 4.300000e-01    2.770000e+00
  SP4h  X2er  1 4.300000e-01    2.770000e+00
  SP4r  X2eh  1 4.300000e-01    2.770000e+00
  SP4h  X1er  1 4.300000e-01    2.530000e+00
  SP4r  X1eh  1 4.300000e-01    2.530000e+00
  SP3h   C6r  1 4.300000e-01    2.770000e+00
  SP3r   C6h  1 4.300000e-01    2.770000e+00
  SP3h   C5r  1 4.300000e-01    2.530000e+00
  SP3r   C5h  1 4.300000e-01    2.530000e+00
  SP3h   C4r  1 4.300000e-01    2.320000e+00
  SP3r   C4h  1 4.300000e-01    2.320000e+00
  SP3h   C3r  1 4.300000e-01    1.930000e+00
  SP3r   C3h  1 4.300000e-01    1.930000e+00
  SP3h   C2r  1 4.300000e-01    1.930000e+00
  SP3r   C2h  1 4.300000e-01    1.930000e+00
  SP3h   C1r  1 4.300000e-01    1.730000e+00
  SP3r   C1h  1 4.300000e-01    1.730000e+00
  SP3h   X4r  1 4.300000e-01    2.770000e+00
  SP3r   X4h  1 4.300000e-01    2.770000e+00
  SP3h   X3r  1 4.300000e-01    2.770000e+00
  SP3r   X3h  1 4.300000e-01    2.770000e+00
  SP3h   X2r  1 4.300000e-01    2.530000e+00
  SP3r   X2h  1 4.300000e-01    2.530000e+00
  SP3h   X1r  1 4.300000e-01    2.320000e+00
  SP3r   X1h  1 4.300000e-01    2.320000e+00
  SP3h  C6vr  1 4.300000e-01    2.920000e+00
  SP3r  C6vh  1 4.300000e-01    2.920000e+00
  SP3h  C5vr  1 4.300000e-01    2.770000e+00
  SP3r  C5vh  1 4.300000e-01    2.770000e+00
  SP3h  C4vr  1 4.300000e-01    2.530000e+00
  SP3r  C4vh  1 4.300000e-01    2.530000e+00
  SP3h  C3vr  1 4.300000e-01    2.160000e+00
  SP3r  C3vh  1 4.300000e-01    2.160000e+00
  SP3h  C2vr  1 4.300000e-01    2.160000e+00
  SP3r  C2vh  1 4.300000e-01    2.160000e+00
  SP3h  C1vr  1 4.300000e-01    1.930000e+00
  SP3r  C1vh  1 4.300000e-01    1.930000e+00
  SP3h  X4vr  1 4.300000e-01    2.920000e+00
  SP3r  X4vh  1 4.300000e-01    2.920000e+00
  SP3h  X3vr  1 4.300000e-01    2.920000e+00
  SP3r  X3vh  1 4.300000e-01    2.920000e+00
  SP3h  X2vr  1 4.300000e-01    2.770000e+00
  SP3r  X2vh  1 4.300000e-01    2.770000e+00
  SP3h  X1vr  1 4.300000e-01    2.530000e+00
  SP3r  X1vh  1 4.300000e-01    2.530000e+00
  SP3h  C6er  1 4.300000e-01    2.920000e+00
  SP3r  C6eh  1 4.300000e-01    2.920000e+00
  SP3h  C5er  1 4.300000e-01    2.770000e+00
  SP3r  C5eh  1 4.300000e-01    2.770000e+00
  SP3h  C4er  1 4.300000e-01    2.530000e+00
  SP3r  C4eh  1 4.300000e-01    2.530000e+00
  SP3h  C3er  1 4.300000e-01    2.160000e+00
  SP3r  C3eh  1 4.300000e-01    2.160000e+00
  SP3h  C2er  1 4.300000e-01    2.160000e+00
  SP3r  C2eh  1 4.300000e-01    2.160000e+00
  SP3h  C1er  1 4.300000e-01    1.930000e+00
  SP3r  C1eh  1 4.300000e-01    1.930000e+00
  SP3h  X4er  1 4.300000e-01    2.920000e+00
  SP3r  X4eh  1 4.300000e-01    2.920000e+00
  SP3h  X3er  1 4.300000e-01    2.920000e+00
  SP3r  X3eh  1 4.300000e-01    2.920000e+00
  SP3h  X2er  1 4.300000e-01    2.770000e+00
  SP3r  X2eh  1 4.300000e-01    2.770000e+00
  SP3h  X1er  1 4.300000e-01    2.530000e+00
  SP3r  X1eh  1 4.300000e-01    2.530000e+00
  SP2h   C6r  1 4.300000e-01    2.770000e+00
  SP2r   C6h  1 4.300000e-01    2.770000e+00
  SP2h   C5r  1 4.300000e-01    2.530000e+00
  SP2r   C5h  1 4.300000e-01    2.530000e+00
  SP2h   C4r  1 4.300000e-01    2.320000e+00
  SP2r   C4h  1 4.300000e-01    2.320000e+00
  SP2h   C3r  1 4.300000e-01    2.160000e+00
  SP2r   C3h  1 4.300000e-01    2.160000e+00
  SP2h   C2r  1 4.300000e-01    2.160000e+00
  SP2r   C2h  1 4.300000e-01    2.160000e+00
  SP2h   C1r  1 4.300000e-01    1.930000e+00
  SP2r   C1h  1 4.300000e-01    1.930000e+00
  SP2h   X4r  1 4.300000e-01    2.770000e+00
  SP2r   X4h  1 4.300000e-01    2.770000e+00
  SP2h   X3r  1 4.300000e-01    2.770000e+00
  SP2r   X3h  1 4.300000e-01    2.770000e+00
  SP2h   X2r  1 4.300000e-01    2.530000e+00
  SP2r   X2h  1 4.300000e-01    2.530000e+00
  SP2h   X1r  1 4.300000e-01    2.320000e+00
  SP2r   X1h  1 4.300000e-01    2.320000e+00
  SP2h  C6vr  1 4.300000e-01    2.920000e+00
  SP2r  C6vh  1 4.300000e-01    2.920000e+00
  SP2h  C5vr  1 4.300000e-01    2.770000e+00
  SP2r  C5vh  1 4.300000e-01    2.770000e+00
  SP2h  C4vr  1 4.300000e-01    2.530000e+00
  SP2r  C4vh  1 4.300000e-01    2.530000e+00
  SP2h  C3vr  1 4.300000e-01    2.320000e+00
  SP2r  C3vh  1 4.300000e-01    2.320000e+00
  SP2h  C2vr  1 4.300000e-01    2.320000e+00
  SP2r  C2vh  1 4.300000e-01    2.320000e+00
  SP2h  C1vr  1 4.300000e-01    2.160000e+00
  SP2r  C1vh  1 4.300000e-01    2.160000e+00
  SP2h  X4vr  1 4.300000e-01    2.920000e+00
  SP2r  X4vh  1 4.300000e-01    2.920000e+00
  SP2h  X3vr  1 4.300000e-01    2.920000e+00
  SP2r  X3vh  1 4.300000e-01    2.920000e+00
  SP2h  X2vr  1 4.300000e-01    2.770000e+00
  SP2r  X2vh  1 4.300000e-01    2.770000e+00
  SP2h  X1vr  1 4.300000e-01    2.530000e+00
  SP2r  X1vh  1 4.300000e-01    2.530000e+00
  SP2h  C6er  1 4.300000e-01    2.920000e+00
  SP2r  C6eh  1 4.300000e-01    2.920000e+00
  SP2h  C5er  1 4.300000e-01    2.770000e+00
  SP2r  C5eh  1 4.300000e-01    2.770000e+00
  SP2h  C4er  1 4.300000e-01    2.530000e+00
  SP2r  C4eh  1 4.300000e-01    2.530000e+00
  SP2h  C3er  1 4.300000e-01    2.320000e+00
  SP2r  C3eh  1 4.300000e-01    2.320000e+00
  SP2h  C2er  1 4.300000e-01    2.320000e+00
  SP2r  C2eh  1 4.300000e-01    2.320000e+00
  SP2h  C1er  1 4.300000e-01    2.160000e+00
  SP2r  C1eh  1 4.300000e-01    2.160000e+00
  SP2h  X4er  1 4.300000e-01    2.920000e+00
  SP2r  X4eh  1 4.300000e-01    2.920000e+00
  SP2h  X3er  1 4.300000e-01    2.920000e+00
  SP2r  X3eh  1 4.300000e-01    2.920000e+00
  SP2h  X2er  1 4.300000e-01    2.770000e+00
  SP2r  X2eh  1 4.300000e-01    2.770000e+00
  SP2h  X1er  1 4.300000e-01    2.530000e+00
  SP2r  X1eh  1 4.300000e-01    2.530000e+00
  SP1h   C6r  1 4.300000e-01    2.770000e+00
  SP1r   C6h  1 4.300000e-01    2.770000e+00
  SP1h   C5r  1 4.300000e-01    2.530000e+00
  SP1r   C5h  1 4.300000e-01    2.530000e+00
  SP1h   C4r  1 4.300000e-01    2.320000e+00
  SP1r   C4h  1 4.300000e-01    2.320000e+00
  SP1h   C3r  1 4.300000e-01    2.160000e+00
  SP1r   C3h  1 4.300000e-01    2.160000e+00
  SP1h   C2r  1 4.300000e-01    2.160000e+00
  SP1r   C2h  1 4.300000e-01    2.160000e+00
  SP1h   C1r  1 4.300000e-01    1.930000e+00
  SP1r   C1h  1 4.300000e-01    1.930000e+00
  SP1h   X4r  1 4.300000e-01    2.770000e+00
  SP1r   X4h  1 4.300000e-01    2.770000e+00
  SP1h   X3r  1 4.300000e-01    2.770000e+00
  SP1r   X3h  1 4.300000e-01    2.770000e+00
  SP1h   X2r  1 4.300000e-01    2.530000e+00
  SP1r   X2h  1 4.300000e-01    2.530000e+00
  SP1h   X1r  1 4.300000e-01    2.320000e+00
  SP1r   X1h  1 4.300000e-01    2.320000e+00
  SP1h  C6vr  1 4.300000e-01    2.920000e+00
  SP1r  C6vh  1 4.300000e-01    2.920000e+00
  SP1h  C5vr  1 4.300000e-01    2.770000e+00
  SP1r  C5vh  1 4.300000e-01    2.770000e+00
  SP1h  C4vr  1 4.300000e-01    2.530000e+00
  SP1r  C4vh  1 4.300000e-01    2.530000e+00
  SP1h  C3vr  1 4.300000e-01    2.320000e+00
  SP1r  C3vh  1 4.300000e-01    2.320000e+00
  SP1h  C2vr  1 4.300000e-01    2.320000e+00
  SP1r  C2vh  1 4.300000e-01    2.320000e+00
  SP1h  C1vr  1 4.300000e-01    2.160000e+00
  SP1r  C1vh  1 4.300000e-01    2.160000e+00
  SP1h  X4vr  1 4.300000e-01    2.920000e+00
  SP1r  X4vh  1 4.300000e-01    2.920000e+00
  SP1h  X3vr  1 4.300000e-01    2.920000e+00
  SP1r  X3vh  1 4.300000e-01    2.920000e+00
  SP1h  X2vr  1 4.300000e-01    2.770000e+00
  SP1r  X2vh  1 4.300000e-01    2.770000e+00
  SP1h  X1vr  1 4.300000e-01    2.530000e+00
  SP1r  X1vh  1 4.300000e-01    2.530000e+00
  SP1h  C6er  1 4.300000e-01    2.920000e+00
  SP1r  C6eh  1 4.300000e-01    2.920000e+00
  SP1h  C5er  1 4.300000e-01    2.770000e+00
  SP1r  C5eh  1 4.300000e-01    2.770000e+00
  SP1h  C4er  1 4.300000e-01    2.530000e+00
  SP1r  C4eh  1 4.300000e-01    2.530000e+00
  SP1h  C3er  1 4.300000e-01    2.320000e+00
  SP1r  C3eh  1 4.300000e-01    2.320000e+00
  SP1h  C2er  1 4.300000e-01    2.320000e+00
  SP1r  C2eh  1 4.300000e-01    2.320000e+00
  SP1h  C1er  1 4.300000e-01    2.160000e+00
  SP1r  C1eh  1 4.300000e-01    2.160000e+00
  SP1h  X4er  1 4.300000e-01    2.920000e+00
  SP1r  X4eh  1 4.300000e-01    2.920000e+00
  SP1h  X3er  1 4.300000e-01    2.920000e+00
  SP1r  X3eh  1 4.300000e-01    2.920000e+00
  SP1h  X2er  1 4.300000e-01    2.770000e+00
  SP1r  X2eh  1 4.300000e-01    2.770000e+00
  SP1h  X1er  1 4.300000e-01    2.530000e+00
  SP1r  X1eh  1 4.300000e-01    2.530000e+00
  SN6h   C6r  1 4.300000e-01    2.920000e+00
  SN6r   C6h  1 4.300000e-01    2.920000e+00
  SN6h   C5r  1 4.300000e-01    2.770000e+00
  SN6r   C5h  1 4.300000e-01    2.770000e+00
  SN6h   C4r  1 4.300000e-01    2.530000e+00
  SN6r   C4h  1 4.300000e-01    2.530000e+00
  SN6h   C3r  1 4.300000e-01    2.320000e+00
  SN6r   C3h  1 4.300000e-01    2.320000e+00
  SN6h   C2r  1 4.300000e-01    2.320000e+00
  SN6r   C2h  1 4.300000e-01    2.320000e+00
  SN6h   C1r  1 4.300000e-01    2.160000e+00
  SN6r   C1h  1 4.300000e-01    2.160000e+00
  SN6h   X4r  1 4.300000e-01    2.920000e+00
  SN6r   X4h  1 4.300000e-01    2.920000e+00
  SN6h   X3r  1 4.300000e-01    2.770000e+00
  SN6r   X3h  1 4.300000e-01    2.770000e+00
  SN6h   X2r  1 4.300000e-01    2.530000e+00
  SN6r   X2h  1 4.300000e-01    2.530000e+00
  SN6h   X1r  1 4.300000e-01    2.320000e+00
  SN6r   X1h  1 4.300000e-01    2.320000e+00
  SN6h  C6vr  1 4.300000e-01    3.160000e+00
  SN6r  C6vh  1 4.300000e-01    3.160000e+00
  SN6h  C5vr  1 4.300000e-01    2.920000e+00
  SN6r  C5vh  1 4.300000e-01    2.920000e+00
  SN6h  C4vr  1 4.300000e-01    2.770000e+00
  SN6r  C4vh  1 4.300000e-01    2.770000e+00
  SN6h  C3vr  1 4.300000e-01    2.530000e+00
  SN6r  C3vh  1 4.300000e-01    2.530000e+00
  SN6h  C2vr  1 4.300000e-01    2.530000e+00
  SN6r  C2vh  1 4.300000e-01    2.530000e+00
  SN6h  C1vr  1 4.300000e-01    2.320000e+00
  SN6r  C1vh  1 4.300000e-01    2.320000e+00
  SN6h  X4vr  1 4.300000e-01    3.160000e+00
  SN6r  X4vh  1 4.300000e-01    3.160000e+00
  SN6h  X3vr  1 4.300000e-01    2.920000e+00
  SN6r  X3vh  1 4.300000e-01    2.920000e+00
  SN6h  X2vr  1 4.300000e-01    2.770000e+00
  SN6r  X2vh  1 4.300000e-01    2.770000e+00
  SN6h  X1vr  1 4.300000e-01    2.530000e+00
  SN6r  X1vh  1 4.300000e-01    2.530000e+00
  SN6h  C6er  1 4.300000e-01    3.160000e+00
  SN6r  C6eh  1 4.300000e-01    3.160000e+00
  SN6h  C5er  1 4.300000e-01    2.920000e+00
  SN6r  C5eh  1 4.300000e-01    2.920000e+00
  SN6h  C4er  1 4.300000e-01    2.770000e+00
  SN6r  C4eh  1 4.300000e-01    2.770000e+00
  SN6h  C3er  1 4.300000e-01    2.530000e+00
  SN6r  C3eh  1 4.300000e-01    2.530000e+00
  SN6h  C2er  1 4.300000e-01    2.530000e+00
  SN6r  C2eh  1 4.300000e-01    2.530000e+00
  SN6h  C1er  1 4.300000e-01    2.320000e+00
  SN6r  C1eh  1 4.300000e-01    2.320000e+00
  SN6h  X4er  1 4.300000e-01    3.160000e+00
  SN6r  X4eh  1 4.300000e-01    3.160000e+00
  SN6h  X3er  1 4.300000e-01    2.920000e+00
  SN6r  X3eh  1 4.300000e-01    2.920000e+00
  SN6h  X2er  1 4.300000e-01    2.770000e+00
  SN6r  X2eh  1 4.300000e-01    2.770000e+00
  SN6h  X1er  1 4.300000e-01    2.530000e+00
  SN6r  X1eh  1 4.300000e-01    2.530000e+00
  SN5h   C6r  1 4.300000e-01    2.920000e+00
  SN5r   C6h  1 4.300000e-01    2.920000e+00
  SN5h   C5r  1 4.300000e-01    2.770000e+00
  SN5r   C5h  1 4.300000e-01    2.770000e+00
  SN5h   C4r  1 4.300000e-01    2.530000e+00
  SN5r   C4h  1 4.300000e-01    2.530000e+00
  SN5h   C3r  1 4.300000e-01    2.530000e+00
  SN5r   C3h  1 4.300000e-01    2.530000e+00
  SN5h   C2r  1 4.300000e-01    2.320000e+00
  SN5r   C2h  1 4.300000e-01    2.320000e+00
  SN5h   C1r  1 4.300000e-01    2.160000e+00
  SN5r   C1h  1 4.300000e-01    2.160000e+00
  SN5h   X4r  1 4.300000e-01    3.160000e+00
  SN5r   X4h  1 4.300000e-01    3.160000e+00
  SN5h   X3r  1 4.300000e-01    2.920000e+00
  SN5r   X3h  1 4.300000e-01    2.920000e+00
  SN5h   X2r  1 4.300000e-01    2.770000e+00
  SN5r   X2h  1 4.300000e-01    2.770000e+00
  SN5h   X1r  1 4.300000e-01    2.530000e+00
  SN5r   X1h  1 4.300000e-01    2.530000e+00
  SN5h  C6vr  1 4.300000e-01    3.160000e+00
  SN5r  C6vh  1 4.300000e-01    3.160000e+00
  SN5h  C5vr  1 4.300000e-01    2.920000e+00
  SN5r  C5vh  1 4.300000e-01    2.920000e+00
  SN5h  C4vr  1 4.300000e-01    2.770000e+00
  SN5r  C4vh  1 4.300000e-01    2.770000e+00
  SN5h  C3vr  1 4.300000e-01    2.770000e+00
  SN5r  C3vh  1 4.300000e-01    2.770000e+00
  SN5h  C2vr  1 4.300000e-01    2.530000e+00
  SN5r  C2vh  1 4.300000e-01    2.530000e+00
  SN5h  C1vr  1 4.300000e-01    2.320000e+00
  SN5r  C1vh  1 4.300000e-01    2.320000e+00
  SN5h  X4vr  1 4.300000e-01    3.380000e+00
  SN5r  X4vh  1 4.300000e-01    3.380000e+00
  SN5h  X3vr  1 4.300000e-01    3.160000e+00
  SN5r  X3vh  1 4.300000e-01    3.160000e+00
  SN5h  X2vr  1 4.300000e-01    2.920000e+00
  SN5r  X2vh  1 4.300000e-01    2.920000e+00
  SN5h  X1vr  1 4.300000e-01    2.770000e+00
  SN5r  X1vh  1 4.300000e-01    2.770000e+00
  SN5h  C6er  1 4.300000e-01    3.160000e+00
  SN5r  C6eh  1 4.300000e-01    3.160000e+00
  SN5h  C5er  1 4.300000e-01    2.920000e+00
  SN5r  C5eh  1 4.300000e-01    2.920000e+00
  SN5h  C4er  1 4.300000e-01    2.770000e+00
  SN5r  C4eh  1 4.300000e-01    2.770000e+00
  SN5h  C3er  1 4.300000e-01    2.770000e+00
  SN5r  C3eh  1 4.300000e-01    2.770000e+00
  SN5h  C2er  1 4.300000e-01    2.530000e+00
  SN5r  C2eh  1 4.300000e-01    2.530000e+00
  SN5h  C1er  1 4.300000e-01    2.320000e+00
  SN5r  C1eh  1 4.300000e-01    2.320000e+00
  SN5h  X4er  1 4.300000e-01    3.380000e+00
  SN5r  X4eh  1 4.300000e-01    3.380000e+00
  SN5h  X3er  1 4.300000e-01    3.160000e+00
  SN5r  X3eh  1 4.300000e-01    3.160000e+00
  SN5h  X2er  1 4.300000e-01    2.920000e+00
  SN5r  X2eh  1 4.300000e-01    2.920000e+00
  SN5h  X1er  1 4.300000e-01    2.770000e+00
  SN5r  X1eh  1 4.300000e-01    2.770000e+00
  SN4h   C6r  1 4.300000e-01    2.920000e+00
  SN4r   C6h  1 4.300000e-01    2.920000e+00
  SN4h   C5r  1 4.300000e-01    2.770000e+00
  SN4r   C5h  1 4.300000e-01    2.770000e+00
  SN4h   C4r  1 4.300000e-01    2.770000e+00
  SN4r   C4h  1 4.300000e-01    2.770000e+00
  SN4h   C3r  1 4.300000e-01    2.530000e+00
  SN4r   C3h  1 4.300000e-01    2.530000e+00
  SN4h   C2r  1 4.300000e-01    2.320000e+00
  SN4r   C2h  1 4.300000e-01    2.320000e+00
  SN4h   C1r  1 4.300000e-01    2.160000e+00
  SN4r   C1h  1 4.300000e-01    2.160000e+00
  SN4h   X4r  1 4.300000e-01    3.380000e+00
  SN4r   X4h  1 4.300000e-01    3.380000e+00
  SN4h   X3r  1 4.300000e-01    3.160000e+00
  SN4r   X3h  1 4.300000e-01    3.160000e+00
  SN4h   X2r  1 4.300000e-01    2.770000e+00
  SN4r   X2h  1 4.300000e-01    2.770000e+00
  SN4h   X1r  1 4.300000e-01    2.530000e+00
  SN4r   X1h  1 4.300000e-01    2.530000e+00
  SN4h  C6vr  1 4.300000e-01    3.160000e+00
  SN4r  C6vh  1 4.300000e-01    3.160000e+00
  SN4h  C5vr  1 4.300000e-01    2.920000e+00
  SN4r  C5vh  1 4.300000e-01    2.920000e+00
  SN4h  C4vr  1 4.300000e-01    2.920000e+00
  SN4r  C4vh  1 4.300000e-01    2.920000e+00
  SN4h  C3vr  1 4.300000e-01    2.770000e+00
  SN4r  C3vh  1 4.300000e-01    2.770000e+00
  SN4h  C2vr  1 4.300000e-01    2.530000e+00
  SN4r  C2vh  1 4.300000e-01    2.530000e+00
  SN4h  C1vr  1 4.300000e-01    2.320000e+00
  SN4r  C1vh  1 4.300000e-01    2.320000e+00
  SN4h  X4vr  1 4.300000e-01    3.590000e+00
  SN4r  X4vh  1 4.300000e-01    3.590000e+00
  SN4h  X3vr  1 4.300000e-01    3.380000e+00
  SN4r  X3vh  1 4.300000e-01    3.380000e+00
  SN4h  X2vr  1 4.300000e-01    2.920000e+00
  SN4r  X2vh  1 4.300000e-01    2.920000e+00
  SN4h  X1vr  1 4.300000e-01    2.770000e+00
  SN4r  X1vh  1 4.300000e-01    2.770000e+00
  SN4h  C6er  1 4.300000e-01    3.160000e+00
  SN4r  C6eh  1 4.300000e-01    3.160000e+00
  SN4h  C5er  1 4.300000e-01    2.920000e+00
  SN4r  C5eh  1 4.300000e-01    2.920000e+00
  SN4h  C4er  1 4.300000e-01    2.920000e+00
  SN4r  C4eh  1 4.300000e-01    2.920000e+00
  SN4h  C3er  1 4.300000e-01    2.770000e+00
  SN4r  C3eh  1 4.300000e-01    2.770000e+00
  SN4h  C2er  1 4.300000e-01    2.530000e+00
  SN4r  C2eh  1 4.300000e-01    2.530000e+00
  SN4h  C1er  1 4.300000e-01    2.320000e+00
  SN4r  C1eh  1 4.300000e-01    2.320000e+00
  SN4h  X4er  1 4.300000e-01    3.590000e+00
  SN4r  X4eh  1 4.300000e-01    3.590000e+00
  SN4h  X3er  1 4.300000e-01    3.380000e+00
  SN4r  X3eh  1 4.300000e-01    3.380000e+00
  SN4h  X2er  1 4.300000e-01    2.920000e+00
  SN4r  X2eh  1 4.300000e-01    2.920000e+00
  SN4h  X1er  1 4.300000e-01    2.770000e+00
  SN4r  X1eh  1 4.300000e-01    2.770000e+00
  SN3h   C6r  1 4.300000e-01    2.920000e+00
  SN3r   C6h  1 4.300000e-01    2.920000e+00
  SN3h   C5r  1 4.300000e-01    2.770000e+00
  SN3r   C5h  1 4.300000e-01    2.770000e+00
  SN3h   C4r  1 4.300000e-01    2.770000e+00
  SN3r   C4h  1 4.300000e-01    2.770000e+00
  SN3h   C3r  1 4.300000e-01    2.530000e+00
  SN3r   C3h  1 4.300000e-01    2.530000e+00
  SN3h   C2r  1 4.300000e-01    2.530000e+00
  SN3r   C2h  1 4.300000e-01    2.530000e+00
  SN3h   C1r  1 4.300000e-01    2.320000e+00
  SN3r   C1h  1 4.300000e-01    2.320000e+00
  SN3h   X4r  1 4.300000e-01    3.160000e+00
  SN3r   X4h  1 4.300000e-01    3.160000e+00
  SN3h   X3r  1 4.300000e-01    2.920000e+00
  SN3r   X3h  1 4.300000e-01    2.920000e+00
  SN3h   X2r  1 4.300000e-01    2.770000e+00
  SN3r   X2h  1 4.300000e-01    2.770000e+00
  SN3h   X1r  1 4.300000e-01    2.770000e+00
  SN3r   X1h  1 4.300000e-01    2.770000e+00
  SN3h  C6vr  1 4.300000e-01    3.160000e+00
  SN3r  C6vh  1 4.300000e-01    3.160000e+00
  SN3h  C5vr  1 4.300000e-01    2.920000e+00
  SN3r  C5vh  1 4.300000e-01    2.920000e+00
  SN3h  C4vr  1 4.300000e-01    2.920000e+00
  SN3r  C4vh  1 4.300000e-01    2.920000e+00
  SN3h  C3vr  1 4.300000e-01    2.770000e+00
  SN3r  C3vh  1 4.300000e-01    2.770000e+00
  SN3h  C2vr  1 4.300000e-01    2.770000e+00
  SN3r  C2vh  1 4.300000e-01    2.770000e+00
  SN3h  C1vr  1 4.300000e-01    2.530000e+00
  SN3r  C1vh  1 4.300000e-01    2.530000e+00
  SN3h  X4vr  1 4.300000e-01    3.380000e+00
  SN3r  X4vh  1 4.300000e-01    3.380000e+00
  SN3h  X3vr  1 4.300000e-01    3.160000e+00
  SN3r  X3vh  1 4.300000e-01    3.160000e+00
  SN3h  X2vr  1 4.300000e-01    2.920000e+00
  SN3r  X2vh  1 4.300000e-01    2.920000e+00
  SN3h  X1vr  1 4.300000e-01    2.920000e+00
  SN3r  X1vh  1 4.300000e-01    2.920000e+00
  SN3h  C6er  1 4.300000e-01    3.160000e+00
  SN3r  C6eh  1 4.300000e-01    3.160000e+00
  SN3h  C5er  1 4.300000e-01    2.920000e+00
  SN3r  C5eh  1 4.300000e-01    2.920000e+00
  SN3h  C4er  1 4.300000e-01    2.920000e+00
  SN3r  C4eh  1 4.300000e-01    2.920000e+00
  SN3h  C3er  1 4.300000e-01    2.770000e+00
  SN3r  C3eh  1 4.300000e-01    2.770000e+00
  SN3h  C2er  1 4.300000e-01    2.770000e+00
  SN3r  C2eh  1 4.300000e-01    2.770000e+00
  SN3h  C1er  1 4.300000e-01    2.530000e+00
  SN3r  C1eh  1 4.300000e-01    2.530000e+00
  SN3h  X4er  1 4.300000e-01    3.380000e+00
  SN3r  X4eh  1 4.300000e-01    3.380000e+00
  SN3h  X3er  1 4.300000e-01    3.160000e+00
  SN3r  X3eh  1 4.300000e-01    3.160000e+00
  SN3h  X2er  1 4.300000e-01    2.920000e+00
  SN3r  X2eh  1 4.300000e-01    2.920000e+00
  SN3h  X1er  1 4.300000e-01    2.920000e+00
  SN3r  X1eh  1 4.300000e-01    2.920000e+00
  SN2h   C6r  1 4.300000e-01    2.920000e+00
  SN2r   C6h  1 4.300000e-01    2.920000e+00
  SN2h   C5r  1 4.300000e-01    2.770000e+00
  SN2r   C5h  1 4.300000e-01    2.770000e+00
  SN2h   C4r  1 4.300000e-01    2.770000e+00
  SN2r   C4h  1 4.300000e-01    2.770000e+00
  SN2h   C3r  1 4.300000e-01    2.770000e+00
  SN2r   C3h  1 4.300000e-01    2.770000e+00
  SN2h   C2r  1 4.300000e-01    2.530000e+00
  SN2r   C2h  1 4.300000e-01    2.530000e+00
  SN2h   C1r  1 4.300000e-01    2.320000e+00
  SN2r   C1h  1 4.300000e-01    2.320000e+00
  SN2h   X4r  1 4.300000e-01    3.160000e+00
  SN2r   X4h  1 4.300000e-01    3.160000e+00
  SN2h   X3r  1 4.300000e-01    2.920000e+00
  SN2r   X3h  1 4.300000e-01    2.920000e+00
  SN2h   X2r  1 4.300000e-01    2.770000e+00
  SN2r   X2h  1 4.300000e-01    2.770000e+00
  SN2h   X1r  1 4.300000e-01    2.770000e+00
  SN2r   X1h  1 4.300000e-01    2.770000e+00
  SN2h  C6vr  1 4.300000e-01    3.160000e+00
  SN2r  C6vh  1 4.300000e-01    3.160000e+00
  SN2h  C5vr  1 4.300000e-01    2.920000e+00
  SN2r  C5vh  1 4.300000e-01    2.920000e+00
  SN2h  C4vr  1 4.300000e-01    2.920000e+00
  SN2r  C4vh  1 4.300000e-01    2.920000e+00
  SN2h  C3vr  1 4.300000e-01    2.920000e+00
  SN2r  C3vh  1 4.300000e-01    2.920000e+00
  SN2h  C2vr  1 4.300000e-01    2.770000e+00
  SN2r  C2vh  1 4.300000e-01    2.770000e+00
  SN2h  C1vr  1 4.300000e-01    2.530000e+00
  SN2r  C1vh  1 4.300000e-01    2.530000e+00
  SN2h  X4vr  1 4.300000e-01    3.380000e+00
  SN2r  X4vh  1 4.300000e-01    3.380000e+00
  SN2h  X3vr  1 4.300000e-01    3.160000e+00
  SN2r  X3vh  1 4.300000e-01    3.160000e+00
  SN2h  X2vr  1 4.300000e-01    2.920000e+00
  SN2r  X2vh  1 4.300000e-01    2.920000e+00
  SN2h  X1vr  1 4.300000e-01    2.920000e+00
  SN2r  X1vh  1 4.300000e-01    2.920000e+00
  SN2h  C6er  1 4.300000e-01    3.160000e+00
  SN2r  C6eh  1 4.300000e-01    3.160000e+00
  SN2h  C5er  1 4.300000e-01    2.920000e+00
  SN2r  C5eh  1 4.300000e-01    2.920000e+00
  SN2h  C4er  1 4.300000e-01    2.920000e+00
  SN2r  C4eh  1 4.300000e-01    2.920000e+00
  SN2h  C3er  1 4.300000e-01    2.920000e+00
  SN2r  C3eh  1 4.300000e-01    2.920000e+00
  SN2h  C2er  1 4.300000e-01    2.770000e+00
  SN2r  C2eh  1 4.300000e-01    2.770000e+00
  SN2h  C1er  1 4.300000e-01    2.530000e+00
  SN2r  C1eh  1 4.300000e-01    2.530000e+00
  SN2h  X4er  1 4.300000e-01    3.380000e+00
  SN2r  X4eh  1 4.300000e-01    3.380000e+00
  SN2h  X3er  1 4.300000e-01    3.160000e+00
  SN2r  X3eh  1 4.300000e-01    3.160000e+00
  SN2h  X2er  1 4.300000e-01    2.920000e+00
  SN2r  X2eh  1 4.300000e-01    2.920000e+00
  SN2h  X1er  1 4.300000e-01    2.920000e+00
  SN2r  X1eh  1 4.300000e-01    2.920000e+00
  SN1h   C6r  1 4.300000e-01    3.160000e+00
  SN1r   C6h  1 4.300000e-01    3.160000e+00
  SN1h   C5r  1 4.300000e-01    2.920000e+00
  SN1r   C5h  1 4.300000e-01    2.920000e+00
  SN1h   C4r  1 4.300000e-01    2.920000e+00
  SN1r   C4h  1 4.300000e-01    2.920000e+00
  SN1h   C3r  1 4.300000e-01    2.770000e+00
  SN1r   C3h  1 4.300000e-01    2.770000e+00
  SN1h   C2r  1 4.300000e-01    2.530000e+00
  SN1r   C2h  1 4.300000e-01    2.530000e+00
  SN1h   C1r  1 4.300000e-01    2.320000e+00
  SN1r   C1h  1 4.300000e-01    2.320000e+00
  SN1h   X4r  1 4.300000e-01    2.920000e+00
  SN1r   X4h  1 4.300000e-01    2.920000e+00
  SN1h   X3r  1 4.300000e-01    2.920000e+00
  SN1r   X3h  1 4.300000e-01    2.920000e+00
  SN1h   X2r  1 4.300000e-01    2.770000e+00
  SN1r   X2h  1 4.300000e-01    2.770000e+00
  SN1h   X1r  1 4.300000e-01    2.770000e+00
  SN1r   X1h  1 4.300000e-01    2.770000e+00
  SN1h  C6vr  1 4.300000e-01    3.380000e+00
  SN1r  C6vh  1 4.300000e-01    3.380000e+00
  SN1h  C5vr  1 4.300000e-01    3.160000e+00
  SN1r  C5vh  1 4.300000e-01    3.160000e+00
  SN1h  C4vr  1 4.300000e-01    3.160000e+00
  SN1r  C4vh  1 4.300000e-01    3.160000e+00
  SN1h  C3vr  1 4.300000e-01    2.920000e+00
  SN1r  C3vh  1 4.300000e-01    2.920000e+00
  SN1h  C2vr  1 4.300000e-01    2.770000e+00
  SN1r  C2vh  1 4.300000e-01    2.770000e+00
  SN1h  C1vr  1 4.300000e-01    2.530000e+00
  SN1r  C1vh  1 4.300000e-01    2.530000e+00
  SN1h  X4vr  1 4.300000e-01    3.160000e+00
  SN1r  X4vh  1 4.300000e-01    3.160000e+00
  SN1h  X3vr  1 4.300000e-01    3.160000e+00
  SN1r  X3vh  1 4.300000e-01    3.160000e+00
  SN1h  X2vr  1 4.300000e-01    2.920000e+00
  SN1r  X2vh  1 4.300000e-01    2.920000e+00
  SN1h  X1vr  1 4.300000e-01    2.920000e+00
  SN1r  X1vh  1 4.300000e-01    2.920000e+00
  SN1h  C6er  1 4.300000e-01    3.380000e+00
  SN1r  C6eh  1 4.300000e-01    3.380000e+00
  SN1h  C5er  1 4.300000e-01    3.160000e+00
  SN1r  C5eh  1 4.300000e-01    3.160000e+00
  SN1h  C4er  1 4.300000e-01    3.160000e+00
  SN1r  C4eh  1 4.300000e-01    3.160000e+00
  SN1h  C3er  1 4.300000e-01    2.920000e+00
  SN1r  C3eh  1 4.300000e-01    2.920000e+00
  SN1h  C2er  1 4.300000e-01    2.770000e+00
  SN1r  C2eh  1 4.300000e-01    2.770000e+00
  SN1h  C1er  1 4.300000e-01    2.530000e+00
  SN1r  C1eh  1 4.300000e-01    2.530000e+00
  SN1h  X4er  1 4.300000e-01    3.160000e+00
  SN1r  X4eh  1 4.300000e-01    3.160000e+00
  SN1h  X3er  1 4.300000e-01    3.160000e+00
  SN1r  X3eh  1 4.300000e-01    3.160000e+00
  SN1h  X2er  1 4.300000e-01    2.920000e+00
  SN1r  X2eh  1 4.300000e-01    2.920000e+00
  SN1h  X1er  1 4.300000e-01    2.920000e+00
  SN1r  X1eh  1 4.300000e-01    2.920000e+00
 SP6dh   C6r  1 4.300000e-01    2.320000e+00
 SP6dr   C6h  1 4.300000e-01    2.320000e+00
 SP6dh   C5r  1 4.300000e-01    2.160000e+00
 SP6dr   C5h  1 4.300000e-01    2.160000e+00
 SP6dh   C4r  1 4.300000e-01    1.930000e+00
 SP6dr   C4h  1 4.300000e-01    1.930000e+00
 SP6dh   C3r  1 4.300000e-01    1.730000e+00
 SP6dr   C3h  1 4.300000e-01    1.730000e+00
 SP6dh   C2r  1 4.300000e-01    1.730000e+00
 SP6dr   C2h  1 4.300000e-01    1.730000e+00
 SP6dh   C1r  1 4.730000e-01    1.280000e+00
 SP6dr   C1h  1 4.730000e-01    1.280000e+00
 SP6dh   X4r  1 4.300000e-01    2.530000e+00
 SP6dr   X4h  1 4.300000e-01    2.530000e+00
 SP6dh   X3r  1 4.300000e-01    2.530000e+00
 SP6dr   X3h  1 4.300000e-01    2.530000e+00
 SP6dh   X2r  1 4.300000e-01    2.320000e+00
 SP6dr   X2h  1 4.300000e-01    2.320000e+00
 SP6dh   X1r  1 4.300000e-01    2.160000e+00
 SP6dr   X1h  1 4.300000e-01    2.160000e+00
 SP5dh   C6r  1 4.300000e-01    2.320000e+00
 SP5dr   C6h  1 4.300000e-01    2.320000e+00
 SP5dh   C5r  1 4.300000e-01    2.320000e+00
 SP5dr   C5h  1 4.300000e-01    2.320000e+00
 SP5dh   C4r  1 4.300000e-01    2.160000e+00
 SP5dr   C4h  1 4.300000e-01    2.160000e+00
 SP5dh   C3r  1 4.300000e-01    1.930000e+00
 SP5dr   C3h  1 4.300000e-01    1.930000e+00
 SP5dh   C2r  1 4.300000e-01    1.930000e+00
 SP5dr   C2h  1 4.300000e-01    1.930000e+00
 SP5dh   C1r  1 4.300000e-01    1.730000e+00
 SP5dr   C1h  1 4.300000e-01    1.730000e+00
 SP5dh   X4r  1 4.300000e-01    2.770000e+00
 SP5dr   X4h  1 4.300000e-01    2.770000e+00
 SP5dh   X3r  1 4.300000e-01    2.530000e+00
 SP5dr   X3h  1 4.300000e-01    2.530000e+00
 SP5dh   X2r  1 4.300000e-01    2.530000e+00
 SP5dr   X2h  1 4.300000e-01    2.530000e+00
 SP5dh   X1r  1 4.300000e-01    2.160000e+00
 SP5dr   X1h  1 4.300000e-01    2.160000e+00
 SP4dh   C6r  1 4.300000e-01    2.530000e+00
 SP4dr   C6h  1 4.300000e-01    2.530000e+00
 SP4dh   C5r  1 4.300000e-01    2.320000e+00
 SP4dr   C5h  1 4.300000e-01    2.320000e+00
 SP4dh   C4r  1 4.300000e-01    2.160000e+00
 SP4dr   C4h  1 4.300000e-01    2.160000e+00
 SP4dh   C3r  1 4.300000e-01    1.930000e+00
 SP4dr   C3h  1 4.300000e-01    1.930000e+00
 SP4dh   C2r  1 4.300000e-01    1.930000e+00
 SP4dr   C2h  1 4.300000e-01    1.930000e+00
 SP4dh   C1r  1 4.300000e-01    1.730000e+00
 SP4dr   C1h  1 4.300000e-01    1.730000e+00
 SP4dh   X4r  1 4.300000e-01    2.770000e+00
 SP4dr   X4h  1 4.300000e-01    2.770000e+00
 SP4dh   X3r  1 4.300000e-01    2.530000e+00
 SP4dr   X3h  1 4.300000e-01    2.530000e+00
 SP4dh   X2r  1 4.300000e-01    2.530000e+00
 SP4dr   X2h  1 4.300000e-01    2.530000e+00
 SP4dh   X1r  1 4.300000e-01    2.320000e+00
 SP4dr   X1h  1 4.300000e-01    2.320000e+00
 SP3dh   C6r  1 4.300000e-01    2.770000e+00
 SP3dr   C6h  1 4.300000e-01    2.770000e+00
 SP3dh   C5r  1 4.300000e-01    2.530000e+00
 SP3dr   C5h  1 4.300000e-01    2.530000e+00
 SP3dh   C4r  1 4.300000e-01    2.320000e+00
 SP3dr   C4h  1 4.300000e-01    2.320000e+00
 SP3dh   C3r  1 4.300000e-01    1.930000e+00
 SP3dr   C3h  1 4.300000e-01    1.930000e+00
 SP3dh   C2r  1 4.300000e-01    1.930000e+00
 SP3dr   C2h  1 4.300000e-01    1.930000e+00
 SP3dh   C1r  1 4.300000e-01    1.730000e+00
 SP3dr   C1h  1 4.300000e-01    1.730000e+00
 SP3dh   X4r  1 4.300000e-01    2.770000e+00
 SP3dr   X4h  1 4.300000e-01    2.770000e+00
 SP3dh   X3r  1 4.300000e-01    2.770000e+00
 SP3dr   X3h  1 4.300000e-01    2.770000e+00
 SP3dh   X2r  1 4.300000e-01    2.530000e+00
 SP3dr   X2h  1 4.300000e-01    2.530000e+00
 SP3dh   X1r  1 4.300000e-01    2.320000e+00
 SP3dr   X1h  1 4.300000e-01    2.320000e+00
 SP2dh   C6r  1 4.300000e-01    2.770000e+00
 SP2dr   C6h  1 4.300000e-01    2.770000e+00
 SP2dh   C5r  1 4.300000e-01    2.530000e+00
 SP2dr   C5h  1 4.300000e-01    2.530000e+00
 SP2dh   C4r  1 4.300000e-01    2.320000e+00
 SP2dr   C4h  1 4.300000e-01    2.320000e+00
 SP2dh   C3r  1 4.300000e-01    2.160000e+00
 SP2dr   C3h  1 4.300000e-01    2.160000e+00
 SP2dh   C2r  1 4.300000e-01    2.160000e+00
 SP2dr   C2h  1 4.300000e-01    2.160000e+00
 SP2dh   C1r  1 4.300000e-01    1.930000e+00
 SP2dr   C1h  1 4.300000e-01    1.930000e+00
 SP2dh   X4r  1 4.300000e-01    2.770000e+00
 SP2dr   X4h  1 4.300000e-01    2.770000e+00
 SP2dh   X3r  1 4.300000e-01    2.770000e+00
 SP2dr   X3h  1 4.300000e-01    2.770000e+00
 SP2dh   X2r  1 4.300000e-01    2.530000e+00
 SP2dr   X2h  1 4.300000e-01    2.530000e+00
 SP2dh   X1r  1 4.300000e-01    2.320000e+00
 SP2dr   X1h  1 4.300000e-01    2.320000e+00
 SP1dh   C6r  1 4.300000e-01    2.770000e+00
 SP1dr   C6h  1 4.300000e-01    2.770000e+00
 SP1dh   C5r  1 4.300000e-01    2.530000e+00
 SP1dr   C5h  1 4.300000e-01    2.530000e+00
 SP1dh   C4r  1 4.300000e-01    2.320000e+00
 SP1dr   C4h  1 4.300000e-01    2.320000e+00
 SP1dh   C3r  1 4.300000e-01    2.160000e+00
 SP1dr   C3h  1 4.300000e-01    2.160000e+00
 SP1dh   C2r  1 4.300000e-01    2.160000e+00
 SP1dr   C2h  1 4.300000e-01    2.160000e+00
 SP1dh   C1r  1 4.300000e-01    1.930000e+00
 SP1dr   C1h  1 4.300000e-01    1.930000e+00
 SP1dh   X4r  1 4.300000e-01    2.770000e+00
 SP1dr   X4h  1 4.300000e-01    2.770000e+00
 SP1dh   X3r  1 4.300000e-01    2.770000e+00
 SP1dr   X3h  1 4.300000e-01    2.770000e+00
 SP1dh   X2r  1 4.300000e-01    2.530000e+00
 SP1dr   X2h  1 4.300000e-01    2.530000e+00
 SP1dh   X1r  1 4.300000e-01    2.320000e+00
 SP1dr   X1h  1 4.300000e-01    2.320000e+00
 SN6dh   C6r  1 4.300000e-01    2.920000e+00
 SN6dr   C6h  1 4.300000e-01    2.920000e+00
 SN6dh   C5r  1 4.300000e-01    2.770000e+00
 SN6dr   C5h  1 4.300000e-01    2.770000e+00
 SN6dh   C4r  1 4.300000e-01    2.530000e+00
 SN6dr   C4h  1 4.300000e-01    2.530000e+00
 SN6dh   C3r  1 4.300000e-01    2.320000e+00
 SN6dr   C3h  1 4.300000e-01    2.320000e+00
 SN6dh   C2r  1 4.300000e-01    2.320000e+00
 SN6dr   C2h  1 4.300000e-01    2.320000e+00
 SN6dh   C1r  1 4.300000e-01    2.160000e+00
 SN6dr   C1h  1 4.300000e-01    2.160000e+00
 SN6dh   X4r  1 4.300000e-01    2.920000e+00
 SN6dr   X4h  1 4.300000e-01    2.920000e+00
 SN6dh   X3r  1 4.300000e-01    2.770000e+00
 SN6dr   X3h  1 4.300000e-01    2.770000e+00
 SN6dh   X2r  1 4.300000e-01    2.530000e+00
 SN6dr   X2h  1 4.300000e-01    2.530000e+00
 SN6dh   X1r  1 4.300000e-01    2.320000e+00
 SN6dr   X1h  1 4.300000e-01    2.320000e+00
 SN5dh   C6r  1 4.300000e-01    2.920000e+00
 SN5dr   C6h  1 4.300000e-01    2.920000e+00
 SN5dh   C5r  1 4.300000e-01    2.770000e+00
 SN5dr   C5h  1 4.300000e-01    2.770000e+00
 SN5dh   C4r  1 4.300000e-01    2.530000e+00
 SN5dr   C4h  1 4.300000e-01    2.530000e+00
 SN5dh   C3r  1 4.300000e-01    2.530000e+00
 SN5dr   C3h  1 4.300000e-01    2.530000e+00
 SN5dh   C2r  1 4.300000e-01    2.320000e+00
 SN5dr   C2h  1 4.300000e-01    2.320000e+00
 SN5dh   C1r  1 4.300000e-01    2.160000e+00
 SN5dr   C1h  1 4.300000e-01    2.160000e+00
 SN5dh   X4r  1 4.300000e-01    3.160000e+00
 SN5dr   X4h  1 4.300000e-01    3.160000e+00
 SN5dh   X3r  1 4.300000e-01    2.920000e+00
 SN5dr   X3h  1 4.300000e-01    2.920000e+00
 SN5dh   X2r  1 4.300000e-01    2.770000e+00
 SN5dr   X2h  1 4.300000e-01    2.770000e+00
 SN5dh   X1r  1 4.300000e-01    2.530000e+00
 SN5dr   X1h  1 4.300000e-01    2.530000e+00
 SN4dh   C6r  1 4.300000e-01    2.920000e+00
 SN4dr   C6h  1 4.300000e-01    2.920000e+00
 SN4dh   C5r  1 4.300000e-01    2.770000e+00
 SN4dr   C5h  1 4.300000e-01    2.770000e+00
 SN4dh   C4r  1 4.300000e-01    2.770000e+00
 SN4dr   C4h  1 4.300000e-01    2.770000e+00
 SN4dh   C3r  1 4.300000e-01    2.530000e+00
 SN4dr   C3h  1 4.300000e-01    2.530000e+00
 SN4dh   C2r  1 4.300000e-01    2.320000e+00
 SN4dr   C2h  1 4.300000e-01    2.320000e+00
 SN4dh   C1r  1 4.300000e-01    2.160000e+00
 SN4dr   C1h  1 4.300000e-01    2.160000e+00
 SN4dh   X4r  1 4.300000e-01    3.380000e+00
 SN4dr   X4h  1 4.300000e-01    3.380000e+00
 SN4dh   X3r  1 4.300000e-01    3.160000e+00
 SN4dr   X3h  1 4.300000e-01    3.160000e+00
 SN4dh   X2r  1 4.300000e-01    2.770000e+00
 SN4dr   X2h  1 4.300000e-01    2.770000e+00
 SN4dh   X1r  1 4.300000e-01    2.530000e+00
 SN4dr   X1h  1 4.300000e-01    2.530000e+00
 SN3dh   C6r  1 4.300000e-01    2.920000e+00
 SN3dr   C6h  1 4.300000e-01    2.920000e+00
 SN3dh   C5r  1 4.300000e-01    2.770000e+00
 SN3dr   C5h  1 4.300000e-01    2.770000e+00
 SN3dh   C4r  1 4.300000e-01    2.770000e+00
 SN3dr   C4h  1 4.300000e-01    2.770000e+00
 SN3dh   C3r  1 4.300000e-01    2.530000e+00
 SN3dr   C3h  1 4.300000e-01    2.530000e+00
 SN3dh   C2r  1 4.300000e-01    2.530000e+00
 SN3dr   C2h  1 4.300000e-01    2.530000e+00
 SN3dh   C1r  1 4.300000e-01    2.320000e+00
 SN3dr   C1h  1 4.300000e-01    2.320000e+00
 SN3dh   X4r  1 4.300000e-01    3.160000e+00
 SN3dr   X4h  1 4.300000e-01    3.160000e+00
 SN3dh   X3r  1 4.300000e-01    2.920000e+00
 SN3dr   X3h  1 4.300000e-01    2.920000e+00
 SN3dh   X2r  1 4.300000e-01    2.770000e+00
 SN3dr   X2h  1 4.300000e-01    2.770000e+00
 SN3dh   X1r  1 4.300000e-01    2.770000e+00
 SN3dr   X1h  1 4.300000e-01    2.770000e+00
 SN2dh   C6r  1 4.300000e-01    2.920000e+00
 SN2dr   C6h  1 4.300000e-01    2.920000e+00
 SN2dh   C5r  1 4.300000e-01    2.770000e+00
 SN2dr   C5h  1 4.300000e-01    2.770000e+00
 SN2dh   C4r  1 4.300000e-01    2.770000e+00
 SN2dr   C4h  1 4.300000e-01    2.770000e+00
 SN2dh   C3r  1 4.300000e-01    2.770000e+00
 SN2dr   C3h  1 4.300000e-01    2.770000e+00
 SN2dh   C2r  1 4.300000e-01    2.530000e+00
 SN2dr   C2h  1 4.300000e-01    2.530000e+00
 SN2dh   C1r  1 4.300000e-01    2.320000e+00
 SN2dr   C1h  1 4.300000e-01    2.320000e+00
 SN2dh   X4r  1 4.300000e-01    3.160000e+00
 SN2dr   X4h  1 4.300000e-01    3.160000e+00
 SN2dh   X3r  1 4.300000e-01    2.920000e+00
 SN2dr   X3h  1 4.300000e-01    2.920000e+00
 SN2dh   X2r  1 4.300000e-01    2.770000e+00
 SN2dr   X2h  1 4.300000e-01    2.770000e+00
 SN2dh   X1r  1 4.300000e-01    2.770000e+00
 SN2dr   X1h  1 4.300000e-01    2.770000e+00
 SN1dh   C6r  1 4.300000e-01    3.160000e+00
 SN1dr   C6h  1 4.300000e-01    3.160000e+00
 SN1dh   C5r  1 4.300000e-01    2.920000e+00
 SN1dr   C5h  1 4.300000e-01    2.920000e+00
 SN1dh   C4r  1 4.300000e-01    2.920000e+00
 SN1dr   C4h  1 4.300000e-01    2.920000e+00
 SN1dh   C3r  1 4.300000e-01    2.770000e+00
 SN1dr   C3h  1 4.300000e-01    2.770000e+00
 SN1dh   C2r  1 4.300000e-01    2.530000e+00
 SN1dr   C2h  1 4.300000e-01    2.530000e+00
 SN1dh   C1r  1 4.300000e-01    2.320000e+00
 SN1dr   C1h  1 4.300000e-01    2.320000e+00
 SN1dh   X4r  1 4.300000e-01    2.920000e+00
 SN1dr   X4h  1 4.300000e-01    2.920000e+00
 SN1dh   X3r  1 4.300000e-01    2.920000e+00
 SN1dr   X3h  1 4.300000e-01    2.920000e+00
 SN1dh   X2r  1 4.300000e-01    2.770000e+00
 SN1dr   X2h  1 4.300000e-01    2.770000e+00
 SN1dh   X1r  1 4.300000e-01    2.770000e+00
 SN1dr   X1h  1 4.300000e-01    2.770000e+00
 SP6ah   C6r  1 4.300000e-01    2.320000e+00
 SP6ar   C6h  1 4.300000e-01    2.320000e+00
 SP6ah   C5r  1 4.300000e-01    2.160000e+00
 SP6ar   C5h  1 4.300000e-01    2.160000e+00
 SP6ah   C4r  1 4.300000e-01    1.930000e+00
 SP6ar   C4h  1 4.300000e-01    1.930000e+00
 SP6ah   C3r  1 4.300000e-01    1.730000e+00
 SP6ar   C3h  1 4.300000e-01    1.730000e+00
 SP6ah   C2r  1 4.300000e-01    1.730000e+00
 SP6ar   C2h  1 4.300000e-01    1.730000e+00
 SP6ah   C1r  1 4.730000e-01    1.280000e+00
 SP6ar   C1h  1 4.730000e-01    1.280000e+00
 SP6ah   X4r  1 4.300000e-01    2.530000e+00
 SP6ar   X4h  1 4.300000e-01    2.530000e+00
 SP6ah   X3r  1 4.300000e-01    2.530000e+00
 SP6ar   X3h  1 4.300000e-01    2.530000e+00
 SP6ah   X2r  1 4.300000e-01    2.320000e+00
 SP6ar   X2h  1 4.300000e-01    2.320000e+00
 SP6ah   X1r  1 4.300000e-01    2.160000e+00
 SP6ar   X1h  1 4.300000e-01    2.160000e+00
 SP5ah   C6r  1 4.300000e-01    2.320000e+00
 SP5ar   C6h  1 4.300000e-01    2.320000e+00
 SP5ah   C5r  1 4.300000e-01    2.320000e+00
 SP5ar   C5h  1 4.300000e-01    2.320000e+00
 SP5ah   C4r  1 4.300000e-01    2.160000e+00
 SP5ar   C4h  1 4.300000e-01    2.160000e+00
 SP5ah   C3r  1 4.300000e-01    1.930000e+00
 SP5ar   C3h  1 4.300000e-01    1.930000e+00
 SP5ah   C2r  1 4.300000e-01    1.930000e+00
 SP5ar   C2h  1 4.300000e-01    1.930000e+00
 SP5ah   C1r  1 4.300000e-01    1.730000e+00
 SP5ar   C1h  1 4.300000e-01    1.730000e+00
 SP5ah   X4r  1 4.300000e-01    2.770000e+00
 SP5ar   X4h  1 4.300000e-01    2.770000e+00
 SP5ah   X3r  1 4.300000e-01    2.530000e+00
 SP5ar   X3h  1 4.300000e-01    2.530000e+00
 SP5ah   X2r  1 4.300000e-01    2.530000e+00
 SP5ar   X2h  1 4.300000e-01    2.530000e+00
 SP5ah   X1r  1 4.300000e-01    2.160000e+00
 SP5ar   X1h  1 4.300000e-01    2.160000e+00
 SP4ah   C6r  1 4.300000e-01    2.530000e+00
 SP4ar   C6h  1 4.300000e-01    2.530000e+00
 SP4ah   C5r  1 4.300000e-01    2.320000e+00
 SP4ar   C5h  1 4.300000e-01    2.320000e+00
 SP4ah   C4r  1 4.300000e-01    2.160000e+00
 SP4ar   C4h  1 4.300000e-01    2.160000e+00
 SP4ah   C3r  1 4.300000e-01    1.930000e+00
 SP4ar   C3h  1 4.300000e-01    1.930000e+00
 SP4ah   C2r  1 4.300000e-01    1.930000e+00
 SP4ar   C2h  1 4.300000e-01    1.930000e+00
 SP4ah   C1r  1 4.300000e-01    1.730000e+00
 SP4ar   C1h  1 4.300000e-01    1.730000e+00
 SP4ah   X4r  1 4.300000e-01    2.770000e+00
 SP4ar   X4h  1 4.300000e-01    2.770000e+00
 SP4ah   X3r  1 4.300000e-01    2.530000e+00
 SP4ar   X3h  1 4.300000e-01    2.530000e+00
 SP4ah   X2r  1 4.300000e-01    2.530000e+00
 SP4ar   X2h  1 4.300000e-01    2.530000e+00
 SP4ah   X1r  1 4.300000e-01    2.320000e+00
 SP4ar   X1h  1 4.300000e-01    2.320000e+00
 SP3ah   C6r  1 4.300000e-01    2.770000e+00
 SP3ar   C6h  1 4.300000e-01    2.770000e+00
 SP3ah   C5r  1 4.300000e-01    2.530000e+00
 SP3ar   C5h  1 4.300000e-01    2.530000e+00
 SP3ah   C4r  1 4.300000e-01    2.320000e+00
 SP3ar   C4h  1 4.300000e-01    2.320000e+00
 SP3ah   C3r  1 4.300000e-01    1.930000e+00
 SP3ar   C3h  1 4.300000e-01    1.930000e+00
 SP3ah   C2r  1 4.300000e-01    1.930000e+00
 SP3ar   C2h  1 4.300000e-01    1.930000e+00
 SP3ah   C1r  1 4.300000e-01    1.730000e+00
 SP3ar   C1h  1 4.300000e-01    1.730000e+00
 SP3ah   X4r  1 4.300000e-01    2.770000e+00
 SP3ar   X4h  1 4.300000e-01    2.770000e+00
 SP3ah   X3r  1 4.300000e-01    2.770000e+00
 SP3ar   X3h  1 4.300000e-01    2.770000e+00
 SP3ah   X2r  1 4.300000e-01    2.530000e+00
 SP3ar   X2h  1 4.300000e-01    2.530000e+00
 SP3ah   X1r  1 4.300000e-01    2.320000e+00
 SP3ar   X1h  1 4.300000e-01    2.320000e+00
 SP2ah   C6r  1 4.300000e-01    2.770000e+00
 SP2ar   C6h  1 4.300000e-01    2.770000e+00
 SP2ah   C5r  1 4.300000e-01    2.530000e+00
 SP2ar   C5h  1 4.300000e-01    2.530000e+00
 SP2ah   C4r  1 4.300000e-01    2.320000e+00
 SP2ar   C4h  1 4.300000e-01    2.320000e+00
 SP2ah   C3r  1 4.300000e-01    2.160000e+00
 SP2ar   C3h  1 4.300000e-01    2.160000e+00
 SP2ah   C2r  1 4.300000e-01    2.160000e+00
 SP2ar   C2h  1 4.300000e-01    2.160000e+00
 SP2ah   C1r  1 4.300000e-01    1.930000e+00
 SP2ar   C1h  1 4.300000e-01    1.930000e+00
 SP2ah   X4r  1 4.300000e-01    2.770000e+00
 SP2ar   X4h  1 4.300000e-01    2.770000e+00
 SP2ah   X3r  1 4.300000e-01    2.770000e+00
 SP2ar   X3h  1 4.300000e-01    2.770000e+00
 SP2ah   X2r  1 4.300000e-01    2.530000e+00
 SP2ar   X2h  1 4.300000e-01    2.530000e+00
 SP2ah   X1r  1 4.300000e-01    2.320000e+00
 SP2ar   X1h  1 4.300000e-01    2.320000e+00
 SP1ah   C6r  1 4.300000e-01    2.770000e+00
 SP1ar   C6h  1 4.300000e-01    2.770000e+00
 SP1ah   C5r  1 4.300000e-01    2.530000e+00
 SP1ar   C5h  1 4.300000e-01    2.530000e+00
 SP1ah   C4r  1 4.300000e-01    2.320000e+00
 SP1ar   C4h  1 4.300000e-01    2.320000e+00
 SP1ah   C3r  1 4.300000e-01    2.160000e+00
 SP1ar   C3h  1 4.300000e-01    2.160000e+00
 SP1ah   C2r  1 4.300000e-01    2.160000e+00
 SP1ar   C2h  1 4.300000e-01    2.160000e+00
 SP1ah   C1r  1 4.300000e-01    1.930000e+00
 SP1ar   C1h  1 4.300000e-01    1.930000e+00
 SP1ah   X4r  1 4.300000e-01    2.770000e+00
 SP1ar   X4h  1 4.300000e-01    2.770000e+00
 SP1ah   X3r  1 4.300000e-01    2.770000e+00
 SP1ar   X3h  1 4.300000e-01    2.770000e+00
 SP1ah   X2r  1 4.300000e-01    2.530000e+00
 SP1ar   X2h  1 4.300000e-01    2.530000e+00
 SP1ah   X1r  1 4.300000e-01    2.320000e+00
 SP1ar   X1h  1 4.300000e-01    2.320000e+00
 SN6ah   C6r  1 4.300000e-01    2.920000e+00
 SN6ar   C6h  1 4.300000e-01    2.920000e+00
 SN6ah   C5r  1 4.300000e-01    2.770000e+00
 SN6ar   C5h  1 4.300000e-01    2.770000e+00
 SN6ah   C4r  1 4.300000e-01    2.530000e+00
 SN6ar   C4h  1 4.300000e-01    2.530000e+00
 SN6ah   C3r  1 4.300000e-01    2.320000e+00
 SN6ar   C3h  1 4.300000e-01    2.320000e+00
 SN6ah   C2r  1 4.300000e-01    2.320000e+00
 SN6ar   C2h  1 4.300000e-01    2.320000e+00
 SN6ah   C1r  1 4.300000e-01    2.160000e+00
 SN6ar   C1h  1 4.300000e-01    2.160000e+00
 SN6ah   X4r  1 4.300000e-01    2.920000e+00
 SN6ar   X4h  1 4.300000e-01    2.920000e+00
 SN6ah   X3r  1 4.300000e-01    2.770000e+00
 SN6ar   X3h  1 4.300000e-01    2.770000e+00
 SN6ah   X2r  1 4.300000e-01    2.530000e+00
 SN6ar   X2h  1 4.300000e-01    2.530000e+00
 SN6ah   X1r  1 4.300000e-01    2.320000e+00
 SN6ar   X1h  1 4.300000e-01    2.320000e+00
 SN5ah   C6r  1 4.300000e-01    2.920000e+00
 SN5ar   C6h  1 4.300000e-01    2.920000e+00
 SN5ah   C5r  1 4.300000e-01    2.770000e+00
 SN5ar   C5h  1 4.300000e-01    2.770000e+00
 SN5ah   C4r  1 4.300000e-01    2.530000e+00
 SN5ar   C4h  1 4.300000e-01    2.530000e+00
 SN5ah   C3r  1 4.300000e-01    2.530000e+00
 SN5ar   C3h  1 4.300000e-01    2.530000e+00
 SN5ah   C2r  1 4.300000e-01    2.320000e+00
 SN5ar   C2h  1 4.300000e-01    2.320000e+00
 SN5ah   C1r  1 4.300000e-01    2.160000e+00
 SN5ar   C1h  1 4.300000e-01    2.160000e+00
 SN5ah   X4r  1 4.300000e-01    3.160000e+00
 SN5ar   X4h  1 4.300000e-01    3.160000e+00
 SN5ah   X3r  1 4.300000e-01    2.920000e+00
 SN5ar   X3h  1 4.300000e-01    2.920000e+00
 SN5ah   X2r  1 4.300000e-01    2.770000e+00
 SN5ar   X2h  1 4.300000e-01    2.770000e+00
 SN5ah   X1r  1 4.300000e-01    2.530000e+00
 SN5ar   X1h  1 4.300000e-01    2.530000e+00
 SN4ah   C6r  1 4.300000e-01    2.920000e+00
 SN4ar   C6h  1 4.300000e-01    2.920000e+00
 SN4ah   C5r  1 4.300000e-01    2.770000e+00
 SN4ar   C5h  1 4.300000e-01    2.770000e+00
 SN4ah   C4r  1 4.300000e-01    2.770000e+00
 SN4ar   C4h  1 4.300000e-01    2.770000e+00
 SN4ah   C3r  1 4.300000e-01    2.530000e+00
 SN4ar   C3h  1 4.300000e-01    2.530000e+00
 SN4ah   C2r  1 4.300000e-01    2.320000e+00
 SN4ar   C2h  1 4.300000e-01    2.320000e+00
 SN4ah   C1r  1 4.300000e-01    2.160000e+00
 SN4ar   C1h  1 4.300000e-01    2.160000e+00
 SN4ah   X4r  1 4.300000e-01    3.380000e+00
 SN4ar   X4h  1 4.300000e-01    3.380000e+00
 SN4ah   X3r  1 4.300000e-01    3.160000e+00
 SN4ar   X3h  1 4.300000e-01    3.160000e+00
 SN4ah   X2r  1 4.300000e-01    2.770000e+00
 SN4ar   X2h  1 4.300000e-01    2.770000e+00
 SN4ah   X1r  1 4.300000e-01    2.530000e+00
 SN4ar   X1h  1 4.300000e-01    2.530000e+00
 SN3ah   C6r  1 4.300000e-01    2.920000e+00
 SN3ar   C6h  1 4.300000e-01    2.920000e+00
 SN3ah   C5r  1 4.300000e-01    2.770000e+00
 SN3ar   C5h  1 4.300000e-01    2.770000e+00
 SN3ah   C4r  1 4.300000e-01    2.770000e+00
 SN3ar   C4h  1 4.300000e-01    2.770000e+00
 SN3ah   C3r  1 4.300000e-01    2.530000e+00
 SN3ar   C3h  1 4.300000e-01    2.530000e+00
 SN3ah   C2r  1 4.300000e-01    2.530000e+00
 SN3ar   C2h  1 4.300000e-01    2.530000e+00
 SN3ah   C1r  1 4.300000e-01    2.320000e+00
 SN3ar   C1h  1 4.300000e-01    2.320000e+00
 SN3ah   X4r  1 4.300000e-01    3.160000e+00
 SN3ar   X4h  1 4.300000e-01    3.160000e+00
 SN3ah   X3r  1 4.300000e-01    2.920000e+00
 SN3ar   X3h  1 4.300000e-01    2.920000e+00
 SN3ah   X2r  1 4.300000e-01    2.770000e+00
 SN3ar   X2h  1 4.300000e-01    2.770000e+00
 SN3ah   X1r  1 4.300000e-01    2.770000e+00
 SN3ar   X1h  1 4.300000e-01    2.770000e+00
 SN2ah   C6r  1 4.300000e-01    2.920000e+00
 SN2ar   C6h  1 4.300000e-01    2.920000e+00
 SN2ah   C5r  1 4.300000e-01    2.770000e+00
 SN2ar   C5h  1 4.300000e-01    2.770000e+00
 SN2ah   C4r  1 4.300000e-01    2.770000e+00
 SN2ar   C4h  1 4.300000e-01    2.770000e+00
 SN2ah   C3r  1 4.300000e-01    2.770000e+00
 SN2ar   C3h  1 4.300000e-01    2.770000e+00
 SN2ah   C2r  1 4.300000e-01    2.530000e+00
 SN2ar   C2h  1 4.300000e-01    2.530000e+00
 SN2ah   C1r  1 4.300000e-01    2.320000e+00
 SN2ar   C1h  1 4.300000e-01    2.320000e+00
 SN2ah   X4r  1 4.300000e-01    3.160000e+00
 SN2ar   X4h  1 4.300000e-01    3.160000e+00
 SN2ah   X3r  1 4.300000e-01    2.920000e+00
 SN2ar   X3h  1 4.300000e-01    2.920000e+00
 SN2ah   X2r  1 4.300000e-01    2.770000e+00
 SN2ar   X2h  1 4.300000e-01    2.770000e+00
 SN2ah   X1r  1 4.300000e-01    2.770000e+00
 SN2ar   X1h  1 4.300000e-01    2.770000e+00
 SN1ah   C6r  1 4.300000e-01    3.160000e+00
 SN1ar   C6h  1 4.300000e-01    3.160000e+00
 SN1ah   C5r  1 4.300000e-01    2.920000e+00
 SN1ar   C5h  1 4.300000e-01    2.920000e+00
 SN1ah   C4r  1 4.300000e-01    2.920000e+00
 SN1ar   C4h  1 4.300000e-01    2.920000e+00
 SN1ah   C3r  1 4.300000e-01    2.770000e+00
 SN1ar   C3h  1 4.300000e-01    2.770000e+00
 SN1ah   C2r  1 4.300000e-01    2.530000e+00
 SN1ar   C2h  1 4.300000e-01    2.530000e+00
 SN1ah   C1r  1 4.300000e-01    2.320000e+00
 SN1ar   C1h  1 4.300000e-01    2.320000e+00
 SN1ah   X4r  1 4.300000e-01    2.920000e+00
 SN1ar   X4h  1 4.300000e-01    2.920000e+00
 SN1ah   X3r  1 4.300000e-01    2.920000e+00
 SN1ar   X3h  1 4.300000e-01    2.920000e+00
 SN1ah   X2r  1 4.300000e-01    2.770000e+00
 SN1ar   X2h  1 4.300000e-01    2.770000e+00
 SN1ah   X1r  1 4.300000e-01    2.770000e+00
 SN1ar   X1h  1 4.300000e-01    2.770000e+00
  TP6d TP6dq  1 3.400000e-01    3.750000e+00
  TP5d TP5dq  1 3.400000e-01    3.220000e+00
  TP4d TP4dq  1 3.400000e-01    2.990000e+00
  TP3d TP3dq  1 3.400000e-01    2.740000e+00
  TP2d TP2dq  1 3.400000e-01    2.740000e+00
  TP1d TP1dq  1 3.400000e-01    2.500000e+00
  TN6d TN6dq  1 3.400000e-01    2.500000e+00
  TN5d TN5dq  1 3.400000e-01    2.280000e+00
  TN4d TN4dq  1 3.400000e-01    2.280000e+00
  TN3d TN3dq  1 3.400000e-01    2.020000e+00
  TN2d TN2dq  1 3.400000e-01    2.020000e+00
  TN1d TN1dq  1 3.400000e-01    2.020000e+00
  TP6a TP6aq  1 3.400000e-01    3.750000e+00
  TP5a TP5aq  1 3.400000e-01    3.220000e+00
  TP4a TP4aq  1 3.400000e-01    2.990000e+00
  TP3a TP3aq  1 3.400000e-01    2.740000e+00
  TP2a TP2aq  1 3.400000e-01    2.740000e+00
  TP1a TP1aq  1 3.400000e-01    2.500000e+00
  TN6a TN6aq  1 3.400000e-01    2.500000e+00
  TN5a TN5aq  1 3.400000e-01    2.280000e+00
  TN4a TN4aq  1 3.400000e-01    2.280000e+00
  TN3a TN3aq  1 3.400000e-01    2.020000e+00
  TN2a TN2aq  1 3.400000e-01    2.020000e+00
  TN1a TN1aq  1 3.400000e-01    2.020000e+00
  TP6a TN1aq  1 3.400000e-01    1.230000e+00
  TP5a TN1aq  1 3.400000e-01    1.230000e+00
  TP4a TN1aq  1 3.400000e-01    1.510000e+00
  TP3a TN1aq  1 3.400000e-01    1.770000e+00
  TP2a TN1aq  1 3.400000e-01    1.770000e+00
  TP1a TN1aq  1 3.400000e-01    1.770000e+00
  TN6a TN1aq  1 3.400000e-01    1.770000e+00
  TN5a TN1aq  1 3.400000e-01    1.770000e+00
  TN4a TN1aq  1 3.400000e-01    1.770000e+00
  TN3a TN1aq  1 3.400000e-01    1.770000e+00
  TN2a TN1aq  1 3.400000e-01    1.770000e+00
  TP6a TN2aq  1 3.400000e-01    1.510000e+00
  TP5a TN2aq  1 3.400000e-01    1.510000e+00
  TP4a TN2aq  1 3.400000e-01    1.770000e+00
  TP3a TN2aq  1 3.400000e-01    1.770000e+00
  TP2a TN2aq  1 3.400000e-01    1.770000e+00
  TP1a TN2aq  1 3.400000e-01    1.770000e+00
  TN6a TN2aq  1 3.400000e-01    1.770000e+00
  TN5a TN2aq  1 3.400000e-01    2.020000e+00
  TN4a TN2aq  1 3.400000e-01    2.020000e+00
  TN3a TN2aq  1 3.400000e-01    2.020000e+00
  TP6a TN3aq  1 3.400000e-01    1.770000e+00
  TP5a TN3aq  1 3.400000e-01    1.770000e+00
  TP4a TN3aq  1 3.400000e-01    1.770000e+00
  TP3a TN3aq  1 3.400000e-01    1.770000e+00
  TP2a TN3aq  1 3.400000e-01    1.770000e+00
  TP1a TN3aq  1 3.400000e-01    1.770000e+00
  TN6a TN3aq  1 3.400000e-01    2.020000e+00
  TN5a TN3aq  1 3.400000e-01    2.020000e+00
  TN4a TN3aq  1 3.400000e-01    2.020000e+00
  TP6a TN4aq  1 3.400000e-01    1.770000e+00
  TP5a TN4aq  1 3.400000e-01    2.020000e+00
  TP4a TN4aq  1 3.400000e-01    2.020000e+00
  TP3a TN4aq  1 3.400000e-01    2.020000e+00
  TP2a TN4aq  1 3.400000e-01    2.020000e+00
  TP1a TN4aq  1 3.400000e-01    2.280000e+00
  TN6a TN4aq  1 3.400000e-01    2.500000e+00
  TN5a TN4aq  1 3.400000e-01    2.280000e+00
  TP6a TN5aq  1 3.400000e-01    2.020000e+00
  TP5a TN5aq  1 3.400000e-01    2.020000e+00
  TP4a TN5aq  1 3.400000e-01    2.020000e+00
  TP3a TN5aq  1 3.400000e-01    2.020000e+00
  TP2a TN5aq  1 3.400000e-01    2.280000e+00
  TP1a TN5aq  1 3.400000e-01    2.280000e+00
  TN6a TN5aq  1 3.400000e-01    2.500000e+00
  TP6a TN6aq  1 3.400000e-01    2.500000e+00
  TP5a TN6aq  1 3.400000e-01    2.280000e+00
  TP4a TN6aq  1 3.400000e-01    2.280000e+00
  TP3a TN6aq  1 3.400000e-01    2.280000e+00
  TP2a TN6aq  1 3.400000e-01    2.500000e+00
  TP1a TN6aq  1 3.400000e-01    2.500000e+00
  TP6a TP1aq  1 3.400000e-01    2.740000e+00
  TP5a TP1aq  1 3.400000e-01    2.500000e+00
  TP4a TP1aq  1 3.400000e-01    2.500000e+00
  TP3a TP1aq  1 3.400000e-01    2.500000e+00
  TP2a TP1aq  1 3.400000e-01    2.500000e+00
  TP6a TP2aq  1 3.400000e-01    2.990000e+00
  TP5a TP2aq  1 3.400000e-01    2.740000e+00
  TP4a TP2aq  1 3.400000e-01    2.740000e+00
  TP3a TP2aq  1 3.400000e-01    2.740000e+00
  TP6a TP3aq  1 3.400000e-01    2.990000e+00
  TP5a TP3aq  1 3.400000e-01    2.740000e+00
  TP4a TP3aq  1 3.400000e-01    2.740000e+00
  TP6a TP4aq  1 3.400000e-01    3.220000e+00
  TP5a TP4aq  1 3.400000e-01    2.990000e+00
  TP6a TP5aq  1 3.400000e-01    3.470000e+00
  TP6d TN1dq  1 3.400000e-01    1.230000e+00
  TP5d TN1dq  1 3.400000e-01    1.230000e+00
  TP4d TN1dq  1 3.400000e-01    1.510000e+00
  TP3d TN1dq  1 3.400000e-01    1.770000e+00
  TP2d TN1dq  1 3.400000e-01    1.770000e+00
  TP1d TN1dq  1 3.400000e-01    1.770000e+00
  TN6d TN1dq  1 3.400000e-01    1.770000e+00
  TN5d TN1dq  1 3.400000e-01    1.770000e+00
  TN4d TN1dq  1 3.400000e-01    1.770000e+00
  TN3d TN1dq  1 3.400000e-01    1.770000e+00
  TN2d TN1dq  1 3.400000e-01    1.770000e+00
  TP6d TN2dq  1 3.400000e-01    1.510000e+00
  TP5d TN2dq  1 3.400000e-01    1.510000e+00
  TP4d TN2dq  1 3.400000e-01    1.770000e+00
  TP3d TN2dq  1 3.400000e-01    1.770000e+00
  TP2d TN2dq  1 3.400000e-01    1.770000e+00
  TP1d TN2dq  1 3.400000e-01    1.770000e+00
  TN6d TN2dq  1 3.400000e-01    1.770000e+00
  TN5d TN2dq  1 3.400000e-01    2.020000e+00
  TN4d TN2dq  1 3.400000e-01    2.020000e+00
  TN3d TN2dq  1 3.400000e-01    2.020000e+00
  TP6d TN3dq  1 3.400000e-01    1.770000e+00
  TP5d TN3dq  1 3.400000e-01    1.770000e+00
  TP4d TN3dq  1 3.400000e-01    1.770000e+00
  TP3d TN3dq  1 3.400000e-01    1.770000e+00
  TP2d TN3dq  1 3.400000e-01    1.770000e+00
  TP1d TN3dq  1 3.400000e-01    1.770000e+00
  TN6d TN3dq  1 3.400000e-01    2.020000e+00
  TN5d TN3dq  1 3.400000e-01    2.020000e+00
  TN4d TN3dq  1 3.400000e-01    2.020000e+00
  TP6d TN4dq  1 3.400000e-01    1.770000e+00
  TP5d TN4dq  1 3.400000e-01    2.020000e+00
  TP4d TN4dq  1 3.400000e-01    2.020000e+00
  TP3d TN4dq  1 3.400000e-01    2.020000e+00
  TP2d TN4dq  1 3.400000e-01    2.020000e+00
  TP1d TN4dq  1 3.400000e-01    2.280000e+00
  TN6d TN4dq  1 3.400000e-01    2.500000e+00
  TN5d TN4dq  1 3.400000e-01    2.280000e+00
  TP6d TN5dq  1 3.400000e-01    2.020000e+00
  TP5d TN5dq  1 3.400000e-01    2.020000e+00
  TP4d TN5dq  1 3.400000e-01    2.020000e+00
  TP3d TN5dq  1 3.400000e-01    2.020000e+00
  TP2d TN5dq  1 3.400000e-01    2.280000e+00
  TP1d TN5dq  1 3.400000e-01    2.280000e+00
  TN6d TN5dq  1 3.400000e-01    2.500000e+00
  TP6d TN6dq  1 3.400000e-01    2.500000e+00
  TP5d TN6dq  1 3.400000e-01    2.280000e+00
  TP4d TN6dq  1 3.400000e-01    2.280000e+00
  TP3d TN6dq  1 3.400000e-01    2.280000e+00
  TP2d TN6dq  1 3.400000e-01    2.500000e+00
  TP1d TN6dq  1 3.400000e-01    2.500000e+00
  TP6d TP1dq  1 3.400000e-01    2.740000e+00
  TP5d TP1dq  1 3.400000e-01    2.500000e+00
  TP4d TP1dq  1 3.400000e-01    2.500000e+00
  TP3d TP1dq  1 3.400000e-01    2.500000e+00
  TP2d TP1dq  1 3.400000e-01    2.500000e+00
  TP6d TP2dq  1 3.400000e-01    2.990000e+00
  TP5d TP2dq  1 3.400000e-01    2.740000e+00
  TP4d TP2dq  1 3.400000e-01    2.740000e+00
  TP3d TP2dq  1 3.400000e-01    2.740000e+00
  TP6d TP3dq  1 3.400000e-01    2.990000e+00
  TP5d TP3dq  1 3.400000e-01    2.740000e+00
  TP4d TP3dq  1 3.400000e-01    2.740000e+00
  TP6d TP4dq  1 3.400000e-01    3.220000e+00
  TP5d TP4dq  1 3.400000e-01    2.990000e+00
  TP6d TP5dq  1 3.400000e-01    3.470000e+00
  TP6h TX1eq  1 3.400000e-01    1.230000e+00
  TP6h TX2eq  1 3.400000e-01    1.510000e+00
  TP6h TX3eq  1 3.400000e-01    1.770000e+00
  TP6h TX4eq  1 3.400000e-01    1.770000e+00
  TP6h TC1eq  1 4.110000e-01    8.010000e-01
  TP6h TC2eq  1 3.660000e-01    9.350000e-01
  TP6h TC3eq  1 3.660000e-01    9.350000e-01
  TP6h TC4eq  1 3.520000e-01    1.050000e+00
  TP6h TC5eq  1 3.400000e-01    1.230000e+00
  TP6h TC6eq  1 3.400000e-01    1.510000e+00
  TP6h TX1vq  1 3.400000e-01    1.230000e+00
  TP6h TX2vq  1 3.400000e-01    1.510000e+00
  TP6h TX3vq  1 3.400000e-01    1.770000e+00
  TP6h TX4vq  1 3.400000e-01    1.770000e+00
  TP6h TC1vq  1 4.110000e-01    8.010000e-01
  TP6h TC2vq  1 3.660000e-01    9.350000e-01
  TP6h TC3vq  1 3.660000e-01    9.350000e-01
  TP6h TC4vq  1 3.520000e-01    1.050000e+00
  TP6h TC5vq  1 3.400000e-01    1.230000e+00
  TP6h TC6vq  1 3.400000e-01    1.510000e+00
  TP6h TN1aq  1 3.400000e-01    1.230000e+00
  TP6h TN2aq  1 3.400000e-01    1.510000e+00
  TP6h TN3aq  1 3.400000e-01    1.770000e+00
  TP6h TN4aq  1 3.400000e-01    2.020000e+00
  TP6h TN5aq  1 3.400000e-01    2.280000e+00
  TP6h TN6aq  1 3.400000e-01    2.740000e+00
  TP6h TP1aq  1 3.400000e-01    2.990000e+00
  TP6h TP2aq  1 3.400000e-01    3.220000e+00
  TP6h TP3aq  1 3.400000e-01    3.220000e+00
  TP6h TP4aq  1 3.400000e-01    3.470000e+00
  TP6h TP5aq  1 3.400000e-01    3.750000e+00
  TP6h TP6aq  1 3.400000e-01    4.020000e+00
  TP6h TN1dq  1 3.400000e-01    1.230000e+00
  TP6h TN2dq  1 3.400000e-01    1.510000e+00
  TP6h TN3dq  1 3.400000e-01    1.770000e+00
  TP6h TN4dq  1 3.400000e-01    2.020000e+00
  TP6h TN5dq  1 3.400000e-01    2.280000e+00
  TP6h TN6dq  1 3.400000e-01    2.740000e+00
  TP6h TP1dq  1 3.400000e-01    2.990000e+00
  TP6h TP2dq  1 3.400000e-01    3.220000e+00
  TP6h TP3dq  1 3.400000e-01    3.220000e+00
  TP6h TP4dq  1 3.400000e-01    3.470000e+00
  TP6h TP5dq  1 3.400000e-01    3.750000e+00
  TP6h TP6dq  1 3.400000e-01    4.020000e+00
  TP5h TX1eq  1 3.400000e-01    1.230000e+00
  TP5h TX2eq  1 3.400000e-01    1.770000e+00
  TP5h TX3eq  1 3.400000e-01    1.770000e+00
  TP5h TX4eq  1 3.400000e-01    2.020000e+00
  TP5h TC1eq  1 3.660000e-01    9.350000e-01
  TP5h TC2eq  1 3.520000e-01    1.050000e+00
  TP5h TC3eq  1 3.520000e-01    1.050000e+00
  TP5h TC4eq  1 3.400000e-01    1.230000e+00
  TP5h TC5eq  1 3.400000e-01    1.510000e+00
  TP5h TC6eq  1 3.400000e-01    1.510000e+00
  TP5h TX1vq  1 3.400000e-01    1.230000e+00
  TP5h TX2vq  1 3.400000e-01    1.770000e+00
  TP5h TX3vq  1 3.400000e-01    1.770000e+00
  TP5h TX4vq  1 3.400000e-01    2.020000e+00
  TP5h TC1vq  1 3.660000e-01    9.350000e-01
  TP5h TC2vq  1 3.520000e-01    1.050000e+00
  TP5h TC3vq  1 3.520000e-01    1.050000e+00
  TP5h TC4vq  1 3.400000e-01    1.230000e+00
  TP5h TC5vq  1 3.400000e-01    1.510000e+00
  TP5h TC6vq  1 3.400000e-01    1.510000e+00
  TP5h TN1aq  1 3.400000e-01    1.230000e+00
  TP5h TN2aq  1 3.400000e-01    1.510000e+00
  TP5h TN3aq  1 3.400000e-01    1.770000e+00
  TP5h TN4aq  1 3.400000e-01    2.280000e+00
  TP5h TN5aq  1 3.400000e-01    2.280000e+00
  TP5h TN6aq  1 3.400000e-01    2.500000e+00
  TP5h TP1aq  1 3.400000e-01    2.740000e+00
  TP5h TP2aq  1 3.400000e-01    2.990000e+00
  TP5h TP3aq  1 3.400000e-01    2.990000e+00
  TP5h TP4aq  1 3.400000e-01    3.220000e+00
  TP5h TP5aq  1 3.400000e-01    3.470000e+00
  TP5h TN1dq  1 3.400000e-01    1.230000e+00
  TP5h TN2dq  1 3.400000e-01    1.510000e+00
  TP5h TN3dq  1 3.400000e-01    1.770000e+00
  TP5h TN4dq  1 3.400000e-01    2.280000e+00
  TP5h TN5dq  1 3.400000e-01    2.280000e+00
  TP5h TN6dq  1 3.400000e-01    2.500000e+00
  TP5h TP1dq  1 3.400000e-01    2.740000e+00
  TP5h TP2dq  1 3.400000e-01    2.990000e+00
  TP5h TP3dq  1 3.400000e-01    2.990000e+00
  TP5h TP4dq  1 3.400000e-01    3.220000e+00
  TP5h TP5dq  1 3.400000e-01    3.470000e+00
  TP4h TX1eq  1 3.400000e-01    1.510000e+00
  TP4h TX2eq  1 3.400000e-01    1.770000e+00
  TP4h TX3eq  1 3.400000e-01    1.770000e+00
  TP4h TX4eq  1 3.400000e-01    2.020000e+00
  TP4h TC1eq  1 3.660000e-01    9.350000e-01
  TP4h TC2eq  1 3.520000e-01    1.050000e+00
  TP4h TC3eq  1 3.520000e-01    1.050000e+00
  TP4h TC4eq  1 3.400000e-01    1.230000e+00
  TP4h TC5eq  1 3.400000e-01    1.510000e+00
  TP4h TC6eq  1 3.400000e-01    1.770000e+00
  TP4h TX1vq  1 3.400000e-01    1.510000e+00
  TP4h TX2vq  1 3.400000e-01    1.770000e+00
  TP4h TX3vq  1 3.400000e-01    1.770000e+00
  TP4h TX4vq  1 3.400000e-01    2.020000e+00
  TP4h TC1vq  1 3.660000e-01    9.350000e-01
  TP4h TC2vq  1 3.520000e-01    1.050000e+00
  TP4h TC3vq  1 3.520000e-01    1.050000e+00
  TP4h TC4vq  1 3.400000e-01    1.230000e+00
  TP4h TC5vq  1 3.400000e-01    1.510000e+00
  TP4h TC6vq  1 3.400000e-01    1.770000e+00
  TP4h TN1aq  1 3.400000e-01    1.510000e+00
  TP4h TN2aq  1 3.400000e-01    1.770000e+00
  TP4h TN3aq  1 3.400000e-01    2.020000e+00
  TP4h TN4aq  1 3.400000e-01    2.280000e+00
  TP4h TN5aq  1 3.400000e-01    2.280000e+00
  TP4h TN6aq  1 3.400000e-01    2.500000e+00
  TP4h TP1aq  1 3.400000e-01    2.740000e+00
  TP4h TP2aq  1 3.400000e-01    2.990000e+00
  TP4h TP3aq  1 3.400000e-01    2.990000e+00
  TP4h TP4aq  1 3.400000e-01    3.220000e+00
  TP4h TN1dq  1 3.400000e-01    1.510000e+00
  TP4h TN2dq  1 3.400000e-01    1.770000e+00
  TP4h TN3dq  1 3.400000e-01    2.020000e+00
  TP4h TN4dq  1 3.400000e-01    2.280000e+00
  TP4h TN5dq  1 3.400000e-01    2.280000e+00
  TP4h TN6dq  1 3.400000e-01    2.500000e+00
  TP4h TP1dq  1 3.400000e-01    2.740000e+00
  TP4h TP2dq  1 3.400000e-01    2.990000e+00
  TP4h TP3dq  1 3.400000e-01    2.990000e+00
  TP4h TP4dq  1 3.400000e-01    3.220000e+00
  TP3h TX1eq  1 3.400000e-01    1.510000e+00
  TP3h TX2eq  1 3.400000e-01    1.770000e+00
  TP3h TX3eq  1 3.400000e-01    2.020000e+00
  TP3h TX4eq  1 3.400000e-01    2.020000e+00
  TP3h TC1eq  1 3.660000e-01    9.350000e-01
  TP3h TC2eq  1 3.520000e-01    1.050000e+00
  TP3h TC3eq  1 3.520000e-01    1.050000e+00
  TP3h TC4eq  1 3.400000e-01    1.510000e+00
  TP3h TC5eq  1 3.400000e-01    1.770000e+00
  TP3h TC6eq  1 3.400000e-01    2.020000e+00
  TP3h TX1vq  1 3.400000e-01    1.510000e+00
  TP3h TX2vq  1 3.400000e-01    1.770000e+00
  TP3h TX3vq  1 3.400000e-01    2.020000e+00
  TP3h TX4vq  1 3.400000e-01    2.020000e+00
  TP3h TC1vq  1 3.660000e-01    9.350000e-01
  TP3h TC2vq  1 3.520000e-01    1.050000e+00
  TP3h TC3vq  1 3.520000e-01    1.050000e+00
  TP3h TC4vq  1 3.400000e-01    1.510000e+00
  TP3h TC5vq  1 3.400000e-01    1.770000e+00
  TP3h TC6vq  1 3.400000e-01    2.020000e+00
  TP3h TN1aq  1 3.400000e-01    1.770000e+00
  TP3h TN2aq  1 3.400000e-01    2.020000e+00
  TP3h TN3aq  1 3.400000e-01    2.020000e+00
  TP3h TN4aq  1 3.400000e-01    2.280000e+00
  TP3h TN5aq  1 3.400000e-01    2.280000e+00
  TP3h TN6aq  1 3.400000e-01    2.500000e+00
  TP3h TP1aq  1 3.400000e-01    2.740000e+00
  TP3h TP2aq  1 3.400000e-01    2.990000e+00
  TP3h TP3aq  1 3.400000e-01    2.990000e+00
  TP3h TN1dq  1 3.400000e-01    1.770000e+00
  TP3h TN2dq  1 3.400000e-01    2.020000e+00
  TP3h TN3dq  1 3.400000e-01    2.020000e+00
  TP3h TN4dq  1 3.400000e-01    2.280000e+00
  TP3h TN5dq  1 3.400000e-01    2.280000e+00
  TP3h TN6dq  1 3.400000e-01    2.500000e+00
  TP3h TP1dq  1 3.400000e-01    2.740000e+00
  TP3h TP2dq  1 3.400000e-01    2.990000e+00
  TP3h TP3dq  1 3.400000e-01    2.990000e+00
  TP2h TX1eq  1 3.400000e-01    1.510000e+00
  TP2h TX2eq  1 3.400000e-01    1.770000e+00
  TP2h TX3eq  1 3.400000e-01    2.020000e+00
  TP2h TX4eq  1 3.400000e-01    2.020000e+00
  TP2h TC1eq  1 3.520000e-01    1.050000e+00
  TP2h TC2eq  1 3.400000e-01    1.230000e+00
  TP2h TC3eq  1 3.400000e-01    1.230000e+00
  TP2h TC4eq  1 3.400000e-01    1.510000e+00
  TP2h TC5eq  1 3.400000e-01    1.770000e+00
  TP2h TC6eq  1 3.400000e-01    2.020000e+00
  TP2h TX1vq  1 3.400000e-01    1.510000e+00
  TP2h TX2vq  1 3.400000e-01    1.770000e+00
  TP2h TX3vq  1 3.400000e-01    2.020000e+00
  TP2h TX4vq  1 3.400000e-01    2.020000e+00
  TP2h TC1vq  1 3.520000e-01    1.050000e+00
  TP2h TC2vq  1 3.400000e-01    1.230000e+00
  TP2h TC3vq  1 3.400000e-01    1.230000e+00
  TP2h TC4vq  1 3.400000e-01    1.510000e+00
  TP2h TC5vq  1 3.400000e-01    1.770000e+00
  TP2h TC6vq  1 3.400000e-01    2.020000e+00
  TP2h TN1aq  1 3.400000e-01    2.020000e+00
  TP2h TN2aq  1 3.400000e-01    2.020000e+00
  TP2h TN3aq  1 3.400000e-01    2.020000e+00
  TP2h TN4aq  1 3.400000e-01    2.280000e+00
  TP2h TN5aq  1 3.400000e-01    2.500000e+00
  TP2h TN6aq  1 3.400000e-01    2.740000e+00
  TP2h TP1aq  1 3.400000e-01    2.740000e+00
  TP2h TP2aq  1 3.400000e-01    2.990000e+00
  TP2h TN1dq  1 3.400000e-01    2.020000e+00
  TP2h TN2dq  1 3.400000e-01    2.020000e+00
  TP2h TN3dq  1 3.400000e-01    2.020000e+00
  TP2h TN4dq  1 3.400000e-01    2.280000e+00
  TP2h TN5dq  1 3.400000e-01    2.500000e+00
  TP2h TN6dq  1 3.400000e-01    2.740000e+00
  TP2h TP1dq  1 3.400000e-01    2.740000e+00
  TP2h TP2dq  1 3.400000e-01    2.990000e+00
  TP1h TX1eq  1 3.400000e-01    1.510000e+00
  TP1h TX2eq  1 3.400000e-01    1.770000e+00
  TP1h TX3eq  1 3.400000e-01    2.020000e+00
  TP1h TX4eq  1 3.400000e-01    2.020000e+00
  TP1h TC1eq  1 3.520000e-01    1.050000e+00
  TP1h TC2eq  1 3.400000e-01    1.230000e+00
  TP1h TC3eq  1 3.400000e-01    1.230000e+00
  TP1h TC4eq  1 3.400000e-01    1.510000e+00
  TP1h TC5eq  1 3.400000e-01    1.770000e+00
  TP1h TC6eq  1 3.400000e-01    2.020000e+00
  TP1h TX1vq  1 3.400000e-01    1.510000e+00
  TP1h TX2vq  1 3.400000e-01    1.770000e+00
  TP1h TX3vq  1 3.400000e-01    2.020000e+00
  TP1h TX4vq  1 3.400000e-01    2.020000e+00
  TP1h TC1vq  1 3.520000e-01    1.050000e+00
  TP1h TC2vq  1 3.400000e-01    1.230000e+00
  TP1h TC3vq  1 3.400000e-01    1.230000e+00
  TP1h TC4vq  1 3.400000e-01    1.510000e+00
  TP1h TC5vq  1 3.400000e-01    1.770000e+00
  TP1h TC6vq  1 3.400000e-01    2.020000e+00
  TP1h TN1aq  1 3.400000e-01    2.020000e+00
  TP1h TN2aq  1 3.400000e-01    2.020000e+00
  TP1h TN3aq  1 3.400000e-01    2.020000e+00
  TP1h TN4aq  1 3.400000e-01    2.500000e+00
  TP1h TN5aq  1 3.400000e-01    2.500000e+00
  TP1h TN6aq  1 3.400000e-01    2.740000e+00
  TP1h TP1aq  1 3.400000e-01    2.740000e+00
  TP1h TN1dq  1 3.400000e-01    2.020000e+00
  TP1h TN2dq  1 3.400000e-01    2.020000e+00
  TP1h TN3dq  1 3.400000e-01    2.020000e+00
  TP1h TN4dq  1 3.400000e-01    2.500000e+00
  TP1h TN5dq  1 3.400000e-01    2.500000e+00
  TP1h TN6dq  1 3.400000e-01    2.740000e+00
  TP1h TP1dq  1 3.400000e-01    2.740000e+00
  TN6h TX1eq  1 3.400000e-01    1.510000e+00
  TN6h TX2eq  1 3.400000e-01    1.770000e+00
  TN6h TX3eq  1 3.400000e-01    2.020000e+00
  TN6h TX4eq  1 3.400000e-01    2.280000e+00
  TN6h TC1eq  1 3.400000e-01    1.230000e+00
  TN6h TC2eq  1 3.400000e-01    1.510000e+00
  TN6h TC3eq  1 3.400000e-01    1.510000e+00
  TN6h TC4eq  1 3.400000e-01    1.770000e+00
  TN6h TC5eq  1 3.400000e-01    2.020000e+00
  TN6h TC6eq  1 3.400000e-01    2.280000e+00
  TN6h TX1vq  1 3.400000e-01    1.510000e+00
  TN6h TX2vq  1 3.400000e-01    1.770000e+00
  TN6h TX3vq  1 3.400000e-01    2.020000e+00
  TN6h TX4vq  1 3.400000e-01    2.280000e+00
  TN6h TC1vq  1 3.400000e-01    1.230000e+00
  TN6h TC2vq  1 3.400000e-01    1.510000e+00
  TN6h TC3vq  1 3.400000e-01    1.510000e+00
  TN6h TC4vq  1 3.400000e-01    1.770000e+00
  TN6h TC5vq  1 3.400000e-01    2.020000e+00
  TN6h TC6vq  1 3.400000e-01    2.280000e+00
  TN6h TN1aq  1 3.400000e-01    2.020000e+00
  TN6h TN2aq  1 3.400000e-01    2.020000e+00
  TN6h TN3aq  1 3.400000e-01    2.280000e+00
  TN6h TN4aq  1 3.400000e-01    2.740000e+00
  TN6h TN5aq  1 3.400000e-01    2.740000e+00
  TN6h TN6aq  1 3.400000e-01    2.740000e+00
  TN6h TN1dq  1 3.400000e-01    2.020000e+00
  TN6h TN2dq  1 3.400000e-01    2.020000e+00
  TN6h TN3dq  1 3.400000e-01    2.280000e+00
  TN6h TN4dq  1 3.400000e-01    2.740000e+00
  TN6h TN5dq  1 3.400000e-01    2.740000e+00
  TN6h TN6dq  1 3.400000e-01    2.740000e+00
  TN5h TX1eq  1 3.400000e-01    1.770000e+00
  TN5h TX2eq  1 3.400000e-01    2.020000e+00
  TN5h TX3eq  1 3.400000e-01    2.280000e+00
  TN5h TX4eq  1 3.400000e-01    2.500000e+00
  TN5h TC1eq  1 3.400000e-01    1.230000e+00
  TN5h TC2eq  1 3.400000e-01    1.510000e+00
  TN5h TC3eq  1 3.400000e-01    1.770000e+00
  TN5h TC4eq  1 3.400000e-01    1.770000e+00
  TN5h TC5eq  1 3.400000e-01    2.020000e+00
  TN5h TC6eq  1 3.400000e-01    2.280000e+00
  TN5h TX1vq  1 3.400000e-01    1.770000e+00
  TN5h TX2vq  1 3.400000e-01    2.020000e+00
  TN5h TX3vq  1 3.400000e-01    2.280000e+00
  TN5h TX4vq  1 3.400000e-01    2.500000e+00
  TN5h TC1vq  1 3.400000e-01    1.230000e+00
  TN5h TC2vq  1 3.400000e-01    1.510000e+00
  TN5h TC3vq  1 3.400000e-01    1.770000e+00
  TN5h TC4vq  1 3.400000e-01    1.770000e+00
  TN5h TC5vq  1 3.400000e-01    2.020000e+00
  TN5h TC6vq  1 3.400000e-01    2.280000e+00
  TN5h TN1aq  1 3.400000e-01    2.020000e+00
  TN5h TN2aq  1 3.400000e-01    2.280000e+00
  TN5h TN3aq  1 3.400000e-01    2.280000e+00
  TN5h TN4aq  1 3.400000e-01    2.500000e+00
  TN5h TN5aq  1 3.400000e-01    2.500000e+00
  TN5h TN1dq  1 3.400000e-01    2.020000e+00
  TN5h TN2dq  1 3.400000e-01    2.280000e+00
  TN5h TN3dq  1 3.400000e-01    2.280000e+00
  TN5h TN4dq  1 3.400000e-01    2.500000e+00
  TN5h TN5dq  1 3.400000e-01    2.500000e+00
  TN4h TX1eq  1 3.400000e-01    1.770000e+00
  TN4h TX2eq  1 3.400000e-01    2.020000e+00
  TN4h TX3eq  1 3.400000e-01    2.500000e+00
  TN4h TX4eq  1 3.400000e-01    2.740000e+00
  TN4h TC1eq  1 3.400000e-01    1.230000e+00
  TN4h TC2eq  1 3.400000e-01    1.510000e+00
  TN4h TC3eq  1 3.400000e-01    1.770000e+00
  TN4h TC4eq  1 3.400000e-01    2.020000e+00
  TN4h TC5eq  1 3.400000e-01    2.020000e+00
  TN4h TC6eq  1 3.400000e-01    2.280000e+00
  TN4h TX1vq  1 3.400000e-01    1.770000e+00
  TN4h TX2vq  1 3.400000e-01    2.020000e+00
  TN4h TX3vq  1 3.400000e-01    2.500000e+00
  TN4h TX4vq  1 3.400000e-01    2.740000e+00
  TN4h TC1vq  1 3.400000e-01    1.230000e+00
  TN4h TC2vq  1 3.400000e-01    1.510000e+00
  TN4h TC3vq  1 3.400000e-01    1.770000e+00
  TN4h TC4vq  1 3.400000e-01    2.020000e+00
  TN4h TC5vq  1 3.400000e-01    2.020000e+00
  TN4h TC6vq  1 3.400000e-01    2.280000e+00
  TN4h TN1aq  1 3.400000e-01    2.020000e+00
  TN4h TN2aq  1 3.400000e-01    2.280000e+00
  TN4h TN3aq  1 3.400000e-01    2.280000e+00
  TN4h TN4aq  1 3.400000e-01    2.500000e+00
  TN4h TN1dq  1 3.400000e-01    2.020000e+00
  TN4h TN2dq  1 3.400000e-01    2.280000e+00
  TN4h TN3dq  1 3.400000e-01    2.280000e+00
  TN4h TN4dq  1 3.400000e-01    2.500000e+00
  TN3h TX1eq  1 3.400000e-01    2.020000e+00
  TN3h TX2eq  1 3.400000e-01    2.020000e+00
  TN3h TX3eq  1 3.400000e-01    2.280000e+00
  TN3h TX4eq  1 3.400000e-01    2.500000e+00
  TN3h TC1eq  1 3.400000e-01    1.510000e+00
  TN3h TC2eq  1 3.400000e-01    1.770000e+00
  TN3h TC3eq  1 3.400000e-01    1.770000e+00
  TN3h TC4eq  1 3.400000e-01    2.020000e+00
  TN3h TC5eq  1 3.400000e-01    2.020000e+00
  TN3h TC6eq  1 3.400000e-01    2.280000e+00
  TN3h TX1vq  1 3.400000e-01    2.020000e+00
  TN3h TX2vq  1 3.400000e-01    2.020000e+00
  TN3h TX3vq  1 3.400000e-01    2.280000e+00
  TN3h TX4vq  1 3.400000e-01    2.500000e+00
  TN3h TC1vq  1 3.400000e-01    1.510000e+00
  TN3h TC2vq  1 3.400000e-01    1.770000e+00
  TN3h TC3vq  1 3.400000e-01    1.770000e+00
  TN3h TC4vq  1 3.400000e-01    2.020000e+00
  TN3h TC5vq  1 3.400000e-01    2.020000e+00
  TN3h TC6vq  1 3.400000e-01    2.280000e+00
  TN3h TN1aq  1 3.400000e-01    2.020000e+00
  TN3h TN2aq  1 3.400000e-01    2.280000e+00
  TN3h TN3aq  1 3.400000e-01    2.280000e+00
  TN3h TN1dq  1 3.400000e-01    2.020000e+00
  TN3h TN2dq  1 3.400000e-01    2.280000e+00
  TN3h TN3dq  1 3.400000e-01    2.280000e+00
  TN2h TX1eq  1 3.400000e-01    2.020000e+00
  TN2h TX2eq  1 3.400000e-01    2.020000e+00
  TN2h TX3eq  1 3.400000e-01    2.280000e+00
  TN2h TX4eq  1 3.400000e-01    2.500000e+00
  TN2h TC1eq  1 3.400000e-01    1.510000e+00
  TN2h TC2eq  1 3.400000e-01    1.770000e+00
  TN2h TC3eq  1 3.400000e-01    2.020000e+00
  TN2h TC4eq  1 3.400000e-01    2.020000e+00
  TN2h TC5eq  1 3.400000e-01    2.020000e+00
  TN2h TC6eq  1 3.400000e-01    2.280000e+00
  TN2h TX1vq  1 3.400000e-01    2.020000e+00
  TN2h TX2vq  1 3.400000e-01    2.020000e+00
  TN2h TX3vq  1 3.400000e-01    2.280000e+00
  TN2h TX4vq  1 3.400000e-01    2.500000e+00
  TN2h TC1vq  1 3.400000e-01    1.510000e+00
  TN2h TC2vq  1 3.400000e-01    1.770000e+00
  TN2h TC3vq  1 3.400000e-01    2.020000e+00
  TN2h TC4vq  1 3.400000e-01    2.020000e+00
  TN2h TC5vq  1 3.400000e-01    2.020000e+00
  TN2h TC6vq  1 3.400000e-01    2.280000e+00
  TN2h TN1aq  1 3.400000e-01    2.020000e+00
  TN2h TN2aq  1 3.400000e-01    2.280000e+00
  TN2h TN1dq  1 3.400000e-01    2.020000e+00
  TN2h TN2dq  1 3.400000e-01    2.280000e+00
  TN1h TX1eq  1 3.400000e-01    2.020000e+00
  TN1h TX2eq  1 3.400000e-01    2.020000e+00
  TN1h TX3eq  1 3.400000e-01    2.280000e+00
  TN1h TX4eq  1 3.400000e-01    2.280000e+00
  TN1h TC1eq  1 3.400000e-01    1.510000e+00
  TN1h TC2eq  1 3.400000e-01    1.770000e+00
  TN1h TC3eq  1 3.400000e-01    2.020000e+00
  TN1h TC4eq  1 3.400000e-01    2.280000e+00
  TN1h TC5eq  1 3.400000e-01    2.280000e+00
  TN1h TC6eq  1 3.400000e-01    2.500000e+00
  TN1h TX1vq  1 3.400000e-01    2.020000e+00
  TN1h TX2vq  1 3.400000e-01    2.020000e+00
  TN1h TX3vq  1 3.400000e-01    2.280000e+00
  TN1h TX4vq  1 3.400000e-01    2.280000e+00
  TN1h TC1vq  1 3.400000e-01    1.510000e+00
  TN1h TC2vq  1 3.400000e-01    1.770000e+00
  TN1h TC3vq  1 3.400000e-01    2.020000e+00
  TN1h TC4vq  1 3.400000e-01    2.280000e+00
  TN1h TC5vq  1 3.400000e-01    2.280000e+00
  TN1h TC6vq  1 3.400000e-01    2.500000e+00
  TN1h TN1aq  1 3.400000e-01    2.280000e+00
  TN1h TN1dq  1 3.400000e-01    2.280000e+00
  TC6h TX1eq  1 3.400000e-01    2.280000e+00
  TC6h TX2eq  1 3.400000e-01    2.280000e+00
  TC6h TX3eq  1 3.400000e-01    2.280000e+00
  TC6h TX4eq  1 3.400000e-01    2.280000e+00
  TC6h TC1eq  1 3.400000e-01    1.510000e+00
  TC6h TC2eq  1 3.400000e-01    1.770000e+00
  TC6h TC3eq  1 3.400000e-01    2.020000e+00
  TC6h TC4eq  1 3.400000e-01    2.280000e+00
  TC6h TC5eq  1 3.400000e-01    2.280000e+00
  TC6h TC6eq  1 3.400000e-01    2.500000e+00
  TC6h TX1vq  1 3.400000e-01    2.280000e+00
  TC6h TX2vq  1 3.400000e-01    2.280000e+00
  TC6h TX3vq  1 3.400000e-01    2.280000e+00
  TC6h TX4vq  1 3.400000e-01    2.280000e+00
  TC6h TC1vq  1 3.400000e-01    1.510000e+00
  TC6h TC2vq  1 3.400000e-01    1.770000e+00
  TC6h TC3vq  1 3.400000e-01    2.020000e+00
  TC6h TC4vq  1 3.400000e-01    2.280000e+00
  TC6h TC5vq  1 3.400000e-01    2.280000e+00
  TC6h TC6vq  1 3.400000e-01    2.500000e+00
  TC5h TX1eq  1 3.400000e-01    2.280000e+00
  TC5h TX2eq  1 3.400000e-01    2.020000e+00
  TC5h TX3eq  1 3.400000e-01    2.020000e+00
  TC5h TX4eq  1 3.400000e-01    2.020000e+00
  TC5h TC1eq  1 3.400000e-01    1.770000e+00
  TC5h TC2eq  1 3.400000e-01    1.770000e+00
  TC5h TC3eq  1 3.400000e-01    2.020000e+00
  TC5h TC4eq  1 3.400000e-01    2.280000e+00
  TC5h TC5eq  1 3.400000e-01    2.280000e+00
  TC5h TX1vq  1 3.400000e-01    2.280000e+00
  TC5h TX2vq  1 3.400000e-01    2.020000e+00
  TC5h TX3vq  1 3.400000e-01    2.020000e+00
  TC5h TX4vq  1 3.400000e-01    2.020000e+00
  TC5h TC1vq  1 3.400000e-01    1.770000e+00
  TC5h TC2vq  1 3.400000e-01    1.770000e+00
  TC5h TC3vq  1 3.400000e-01    2.020000e+00
  TC5h TC4vq  1 3.400000e-01    2.280000e+00
  TC5h TC5vq  1 3.400000e-01    2.280000e+00
  TC4h TX1eq  1 3.400000e-01    2.280000e+00
  TC4h TX2eq  1 3.400000e-01    2.020000e+00
  TC4h TX3eq  1 3.400000e-01    2.020000e+00
  TC4h TX4eq  1 3.400000e-01    2.020000e+00
  TC4h TC1eq  1 3.400000e-01    1.770000e+00
  TC4h TC2eq  1 3.400000e-01    2.020000e+00
  TC4h TC3eq  1 3.400000e-01    2.280000e+00
  TC4h TC4eq  1 3.400000e-01    2.280000e+00
  TC4h TX1vq  1 3.400000e-01    2.280000e+00
  TC4h TX2vq  1 3.400000e-01    2.020000e+00
  TC4h TX3vq  1 3.400000e-01    2.020000e+00
  TC4h TX4vq  1 3.400000e-01    2.020000e+00
  TC4h TC1vq  1 3.400000e-01    1.770000e+00
  TC4h TC2vq  1 3.400000e-01    2.020000e+00
  TC4h TC3vq  1 3.400000e-01    2.280000e+00
  TC4h TC4vq  1 3.400000e-01    2.280000e+00
  TC3h TX1eq  1 3.400000e-01    2.280000e+00
  TC3h TX2eq  1 3.400000e-01    2.020000e+00
  TC3h TX3eq  1 3.400000e-01    2.020000e+00
  TC3h TX4eq  1 3.400000e-01    2.020000e+00
  TC3h TC1eq  1 3.400000e-01    2.280000e+00
  TC3h TC2eq  1 3.400000e-01    2.280000e+00
  TC3h TC3eq  1 3.400000e-01    2.280000e+00
  TC3h TX1vq  1 3.400000e-01    2.280000e+00
  TC3h TX2vq  1 3.400000e-01    2.020000e+00
  TC3h TX3vq  1 3.400000e-01    2.020000e+00
  TC3h TX4vq  1 3.400000e-01    2.020000e+00
  TC3h TC1vq  1 3.400000e-01    2.280000e+00
  TC3h TC2vq  1 3.400000e-01    2.280000e+00
  TC3h TC3vq  1 3.400000e-01    2.280000e+00
  TC2h TX1eq  1 3.400000e-01    2.020000e+00
  TC2h TX2eq  1 3.400000e-01    2.020000e+00
  TC2h TX3eq  1 3.400000e-01    2.020000e+00
  TC2h TX4eq  1 3.400000e-01    1.510000e+00
  TC2h TC1eq  1 3.400000e-01    2.500000e+00
  TC2h TC2eq  1 3.400000e-01    2.280000e+00
  TC2h TX1vq  1 3.400000e-01    2.020000e+00
  TC2h TX2vq  1 3.400000e-01    2.020000e+00
  TC2h TX3vq  1 3.400000e-01    2.020000e+00
  TC2h TX4vq  1 3.400000e-01    1.510000e+00
  TC2h TC1vq  1 3.400000e-01    2.500000e+00
  TC2h TC2vq  1 3.400000e-01    2.280000e+00
  TC1h TX1eq  1 3.400000e-01    2.020000e+00
  TC1h TX2eq  1 3.400000e-01    2.020000e+00
  TC1h TX3eq  1 3.400000e-01    2.020000e+00
  TC1h TX4eq  1 3.400000e-01    1.510000e+00
  TC1h TC1eq  1 3.400000e-01    2.280000e+00
  TC1h TX1vq  1 3.400000e-01    2.020000e+00
  TC1h TX2vq  1 3.400000e-01    2.020000e+00
  TC1h TX3vq  1 3.400000e-01    2.020000e+00
  TC1h TX4vq  1 3.400000e-01    1.510000e+00
  TC1h TC1vq  1 3.400000e-01    2.280000e+00
  TX4h TX1eq  1 3.400000e-01    2.280000e+00
  TX4h TX2eq  1 3.400000e-01    2.280000e+00
  TX4h TX3eq  1 3.400000e-01    2.280000e+00
  TX4h TX4eq  1 3.400000e-01    2.280000e+00
  TX4h TX1vq  1 3.400000e-01    2.280000e+00
  TX4h TX2vq  1 3.400000e-01    2.280000e+00
  TX4h TX3vq  1 3.400000e-01    2.280000e+00
  TX4h TX4vq  1 3.400000e-01    2.280000e+00
  TX3h TX1eq  1 3.400000e-01    2.500000e+00
  TX3h TX2eq  1 3.400000e-01    2.500000e+00
  TX3h TX3eq  1 3.400000e-01    2.280000e+00
  TX3h TX1vq  1 3.400000e-01    2.500000e+00
  TX3h TX2vq  1 3.400000e-01    2.500000e+00
  TX3h TX3vq  1 3.400000e-01    2.280000e+00
  TX2h TX1eq  1 3.400000e-01    2.500000e+00
  TX2h TX2eq  1 3.400000e-01    2.500000e+00
  TX2h TX1vq  1 3.400000e-01    2.500000e+00
  TX2h TX2vq  1 3.400000e-01    2.500000e+00
  TX1h TX1eq  1 3.400000e-01    2.740000e+00
  TX1h TX1vq  1 3.400000e-01    2.740000e+00
  TP6d TP6dh  1 3.400000e-01    3.220000e+00
  TP6q TP6dh  1 3.400000e-01    4.020000e+00
  TP5d TP5dh  1 3.400000e-01    2.740000e+00
  TP6q TP5dh  1 3.400000e-01    3.750000e+00
  TP5q TP5dh  1 3.400000e-01    3.470000e+00
  TP4d TP4dh  1 3.400000e-01    2.500000e+00
  TP6q TP4dh  1 3.400000e-01    3.470000e+00
  TP5q TP4dh  1 3.400000e-01    3.220000e+00
  TP4q TP4dh  1 3.400000e-01    3.220000e+00
  TP3d TP3dh  1 3.400000e-01    2.280000e+00
  TP6q TP3dh  1 3.400000e-01    3.220000e+00
  TP5q TP3dh  1 3.400000e-01    2.990000e+00
  TP4q TP3dh  1 3.400000e-01    2.990000e+00
  TP3q TP3dh  1 3.400000e-01    2.990000e+00
  TP2d TP2dh  1 3.400000e-01    2.280000e+00
  TP6q TP2dh  1 3.400000e-01    3.220000e+00
  TP5q TP2dh  1 3.400000e-01    2.990000e+00
  TP4q TP2dh  1 3.400000e-01    2.990000e+00
  TP3q TP2dh  1 3.400000e-01    2.990000e+00
  TP2q TP2dh  1 3.400000e-01    2.990000e+00
  TP1d TP1dh  1 3.400000e-01    2.020000e+00
  TP6q TP1dh  1 3.400000e-01    2.990000e+00
  TP5q TP1dh  1 3.400000e-01    2.740000e+00
  TP4q TP1dh  1 3.400000e-01    2.740000e+00
  TP3q TP1dh  1 3.400000e-01    2.740000e+00
  TP2q TP1dh  1 3.400000e-01    2.740000e+00
  TP1q TP1dh  1 3.400000e-01    2.740000e+00
  TN6d TN6dh  1 3.400000e-01    2.020000e+00
  TP6q TN6dh  1 3.400000e-01    2.740000e+00
  TP5q TN6dh  1 3.400000e-01    2.500000e+00
  TP4q TN6dh  1 3.400000e-01    2.500000e+00
  TP3q TN6dh  1 3.400000e-01    2.500000e+00
  TP2q TN6dh  1 3.400000e-01    2.740000e+00
  TP1q TN6dh  1 3.400000e-01    2.740000e+00
  TN6q TN6dh  1 3.400000e-01    2.740000e+00
  TN5d TN5dh  1 3.400000e-01    1.770000e+00
  TP6q TN5dh  1 3.400000e-01    2.280000e+00
  TP5q TN5dh  1 3.400000e-01    2.280000e+00
  TP4q TN5dh  1 3.400000e-01    2.280000e+00
  TP3q TN5dh  1 3.400000e-01    2.280000e+00
  TP2q TN5dh  1 3.400000e-01    2.500000e+00
  TP1q TN5dh  1 3.400000e-01    2.500000e+00
  TN6q TN5dh  1 3.400000e-01    2.740000e+00
  TN5q TN5dh  1 3.400000e-01    2.500000e+00
  TN4d TN4dh  1 3.400000e-01    1.770000e+00
  TP6q TN4dh  1 3.400000e-01    2.020000e+00
  TP5q TN4dh  1 3.400000e-01    2.280000e+00
  TP4q TN4dh  1 3.400000e-01    2.280000e+00
  TP3q TN4dh  1 3.400000e-01    2.280000e+00
  TP2q TN4dh  1 3.400000e-01    2.280000e+00
  TP1q TN4dh  1 3.400000e-01    2.500000e+00
  TN6q TN4dh  1 3.400000e-01    2.740000e+00
  TN5q TN4dh  1 3.400000e-01    2.500000e+00
  TN4q TN4dh  1 3.400000e-01    2.500000e+00
  TN3d TN3dh  1 3.400000e-01    1.510000e+00
  TP6q TN3dh  1 3.400000e-01    1.770000e+00
  TP5q TN3dh  1 3.400000e-01    1.770000e+00
  TP4q TN3dh  1 3.400000e-01    2.020000e+00
  TP3q TN3dh  1 3.400000e-01    2.020000e+00
  TP2q TN3dh  1 3.400000e-01    2.020000e+00
  TP1q TN3dh  1 3.400000e-01    2.020000e+00
  TN6q TN3dh  1 3.400000e-01    2.280000e+00
  TN5q TN3dh  1 3.400000e-01    2.280000e+00
  TN4q TN3dh  1 3.400000e-01    2.280000e+00
  TN3q TN3dh  1 3.400000e-01    2.280000e+00
  TN2d TN2dh  1 3.400000e-01    1.510000e+00
  TP6q TN2dh  1 3.400000e-01    1.510000e+00
  TP5q TN2dh  1 3.400000e-01    1.510000e+00
  TP4q TN2dh  1 3.400000e-01    1.770000e+00
  TP3q TN2dh  1 3.400000e-01    2.020000e+00
  TP2q TN2dh  1 3.400000e-01    2.020000e+00
  TP1q TN2dh  1 3.400000e-01    2.020000e+00
  TN6q TN2dh  1 3.400000e-01    2.020000e+00
  TN5q TN2dh  1 3.400000e-01    2.280000e+00
  TN4q TN2dh  1 3.400000e-01    2.280000e+00
  TN3q TN2dh  1 3.400000e-01    2.280000e+00
  TN2q TN2dh  1 3.400000e-01    2.280000e+00
  TN1d TN1dh  1 3.400000e-01    1.510000e+00
  TP6q TN1dh  1 3.400000e-01    1.230000e+00
  TP5q TN1dh  1 3.400000e-01    1.230000e+00
  TP4q TN1dh  1 3.400000e-01    1.510000e+00
  TP3q TN1dh  1 3.400000e-01    1.770000e+00
  TP2q TN1dh  1 3.400000e-01    2.020000e+00
  TP1q TN1dh  1 3.400000e-01    2.020000e+00
  TN6q TN1dh  1 3.400000e-01    2.020000e+00
  TN5q TN1dh  1 3.400000e-01    2.020000e+00
  TN4q TN1dh  1 3.400000e-01    2.020000e+00
  TN3q TN1dh  1 3.400000e-01    2.020000e+00
  TN2q TN1dh  1 3.400000e-01    2.020000e+00
  TN1q TN1dh  1 3.400000e-01    2.280000e+00
  TP6a TP6ah  1 3.400000e-01    3.220000e+00
  TP6q TP6ah  1 3.400000e-01    4.020000e+00
  TP5a TP5ah  1 3.400000e-01    2.740000e+00
  TP6q TP5ah  1 3.400000e-01    3.750000e+00
  TP5q TP5ah  1 3.400000e-01    3.470000e+00
  TP4a TP4ah  1 3.400000e-01    2.500000e+00
  TP6q TP4ah  1 3.400000e-01    3.470000e+00
  TP5q TP4ah  1 3.400000e-01    3.220000e+00
  TP4q TP4ah  1 3.400000e-01    3.220000e+00
  TP3a TP3ah  1 3.400000e-01    2.280000e+00
  TP6q TP3ah  1 3.400000e-01    3.220000e+00
  TP5q TP3ah  1 3.400000e-01    2.990000e+00
  TP4q TP3ah  1 3.400000e-01    2.990000e+00
  TP3q TP3ah  1 3.400000e-01    2.990000e+00
  TP2a TP2ah  1 3.400000e-01    2.280000e+00
  TP6q TP2ah  1 3.400000e-01    3.220000e+00
  TP5q TP2ah  1 3.400000e-01    2.990000e+00
  TP4q TP2ah  1 3.400000e-01    2.990000e+00
  TP3q TP2ah  1 3.400000e-01    2.990000e+00
  TP2q TP2ah  1 3.400000e-01    2.990000e+00
  TP1a TP1ah  1 3.400000e-01    2.020000e+00
  TP6q TP1ah  1 3.400000e-01    2.990000e+00
  TP5q TP1ah  1 3.400000e-01    2.740000e+00
  TP4q TP1ah  1 3.400000e-01    2.740000e+00
  TP3q TP1ah  1 3.400000e-01    2.740000e+00
  TP2q TP1ah  1 3.400000e-01    2.740000e+00
  TP1q TP1ah  1 3.400000e-01    2.740000e+00
  TN6a TN6ah  1 3.400000e-01    2.020000e+00
  TP6q TN6ah  1 3.400000e-01    2.740000e+00
  TP5q TN6ah  1 3.400000e-01    2.500000e+00
  TP4q TN6ah  1 3.400000e-01    2.500000e+00
  TP3q TN6ah  1 3.400000e-01    2.500000e+00
  TP2q TN6ah  1 3.400000e-01    2.740000e+00
  TP1q TN6ah  1 3.400000e-01    2.740000e+00
  TN6q TN6ah  1 3.400000e-01    2.740000e+00
  TN5a TN5ah  1 3.400000e-01    1.770000e+00
  TP6q TN5ah  1 3.400000e-01    2.280000e+00
  TP5q TN5ah  1 3.400000e-01    2.280000e+00
  TP4q TN5ah  1 3.400000e-01    2.280000e+00
  TP3q TN5ah  1 3.400000e-01    2.280000e+00
  TP2q TN5ah  1 3.400000e-01    2.500000e+00
  TP1q TN5ah  1 3.400000e-01    2.500000e+00
  TN6q TN5ah  1 3.400000e-01    2.740000e+00
  TN5q TN5ah  1 3.400000e-01    2.500000e+00
  TN4a TN4ah  1 3.400000e-01    1.770000e+00
  TP6q TN4ah  1 3.400000e-01    2.020000e+00
  TP5q TN4ah  1 3.400000e-01    2.280000e+00
  TP4q TN4ah  1 3.400000e-01    2.280000e+00
  TP3q TN4ah  1 3.400000e-01    2.280000e+00
  TP2q TN4ah  1 3.400000e-01    2.280000e+00
  TP1q TN4ah  1 3.400000e-01    2.500000e+00
  TN6q TN4ah  1 3.400000e-01    2.740000e+00
  TN5q TN4ah  1 3.400000e-01    2.500000e+00
  TN4q TN4ah  1 3.400000e-01    2.500000e+00
  TN3a TN3ah  1 3.400000e-01    1.510000e+00
  TP6q TN3ah  1 3.400000e-01    1.770000e+00
  TP5q TN3ah  1 3.400000e-01    1.770000e+00
  TP4q TN3ah  1 3.400000e-01    2.020000e+00
  TP3q TN3ah  1 3.400000e-01    2.020000e+00
  TP2q TN3ah  1 3.400000e-01    2.020000e+00
  TP1q TN3ah  1 3.400000e-01    2.020000e+00
  TN6q TN3ah  1 3.400000e-01    2.280000e+00
  TN5q TN3ah  1 3.400000e-01    2.280000e+00
  TN4q TN3ah  1 3.400000e-01    2.280000e+00
  TN3q TN3ah  1 3.400000e-01    2.280000e+00
  TN2a TN2ah  1 3.400000e-01    1.510000e+00
  TP6q TN2ah  1 3.400000e-01    1.510000e+00
  TP5q TN2ah  1 3.400000e-01    1.510000e+00
  TP4q TN2ah  1 3.400000e-01    1.770000e+00
  TP3q TN2ah  1 3.400000e-01    2.020000e+00
  TP2q TN2ah  1 3.400000e-01    2.020000e+00
  TP1q TN2ah  1 3.400000e-01    2.020000e+00
  TN6q TN2ah  1 3.400000e-01    2.020000e+00
  TN5q TN2ah  1 3.400000e-01    2.280000e+00
  TN4q TN2ah  1 3.400000e-01    2.280000e+00
  TN3q TN2ah  1 3.400000e-01    2.280000e+00
  TN2q TN2ah  1 3.400000e-01    2.280000e+00
  TN1a TN1ah  1 3.400000e-01    1.510000e+00
  TP6q TN1ah  1 3.400000e-01    1.230000e+00
  TP5q TN1ah  1 3.400000e-01    1.230000e+00
  TP4q TN1ah  1 3.400000e-01    1.510000e+00
  TP3q TN1ah  1 3.400000e-01    1.770000e+00
  TP2q TN1ah  1 3.400000e-01    2.020000e+00
  TP1q TN1ah  1 3.400000e-01    2.020000e+00
  TN6q TN1ah  1 3.400000e-01    2.020000e+00
  TN5q TN1ah  1 3.400000e-01    2.020000e+00
  TN4q TN1ah  1 3.400000e-01    2.020000e+00
  TN3q TN1ah  1 3.400000e-01    2.020000e+00
  TN2q TN1ah  1 3.400000e-01    2.020000e+00
  TN1q TN1ah  1 3.400000e-01    2.280000e+00
  TP6q TC6vh  1 3.400000e-01    1.510000e+00
  TP5q TC6vh  1 3.400000e-01    1.510000e+00
  TP4q TC6vh  1 3.400000e-01    1.770000e+00
  TP3q TC6vh  1 3.400000e-01    2.020000e+00
  TP2q TC6vh  1 3.400000e-01    2.020000e+00
  TP1q TC6vh  1 3.400000e-01    2.020000e+00
  TN6q TC6vh  1 3.400000e-01    2.280000e+00
  TN5q TC6vh  1 3.400000e-01    2.280000e+00
  TN4q TC6vh  1 3.400000e-01    2.280000e+00
  TN3q TC6vh  1 3.400000e-01    2.280000e+00
  TN2q TC6vh  1 3.400000e-01    2.280000e+00
  TN1q TC6vh  1 3.400000e-01    2.500000e+00
  TC6q TC6vh  1 3.400000e-01    2.500000e+00
  TP6q TC5vh  1 3.400000e-01    1.230000e+00
  TP5q TC5vh  1 3.400000e-01    1.510000e+00
  TP4q TC5vh  1 3.400000e-01    1.510000e+00
  TP3q TC5vh  1 3.400000e-01    1.770000e+00
  TP2q TC5vh  1 3.400000e-01    1.770000e+00
  TP1q TC5vh  1 3.400000e-01    1.770000e+00
  TN6q TC5vh  1 3.400000e-01    2.020000e+00
  TN5q TC5vh  1 3.400000e-01    2.020000e+00
  TN4q TC5vh  1 3.400000e-01    2.020000e+00
  TN3q TC5vh  1 3.400000e-01    2.020000e+00
  TN2q TC5vh  1 3.400000e-01    2.020000e+00
  TN1q TC5vh  1 3.400000e-01    2.280000e+00
  TC6q TC5vh  1 3.400000e-01    2.280000e+00
  TC5q TC5vh  1 3.400000e-01    2.280000e+00
  TP6q TC4vh  1 3.520000e-01    1.050000e+00
  TP5q TC4vh  1 3.400000e-01    1.230000e+00
  TP4q TC4vh  1 3.400000e-01    1.230000e+00
  TP3q TC4vh  1 3.400000e-01    1.510000e+00
  TP2q TC4vh  1 3.400000e-01    1.510000e+00
  TP1q TC4vh  1 3.400000e-01    1.510000e+00
  TN6q TC4vh  1 3.400000e-01    1.770000e+00
  TN5q TC4vh  1 3.400000e-01    1.770000e+00
  TN4q TC4vh  1 3.400000e-01    2.020000e+00
  TN3q TC4vh  1 3.400000e-01    2.020000e+00
  TN2q TC4vh  1 3.400000e-01    2.020000e+00
  TN1q TC4vh  1 3.400000e-01    2.280000e+00
  TC6q TC4vh  1 3.400000e-01    2.280000e+00
  TC5q TC4vh  1 3.400000e-01    2.280000e+00
  TC4q TC4vh  1 3.400000e-01    2.280000e+00
  TP6q TC3vh  1 3.660000e-01    9.350000e-01
  TP5q TC3vh  1 3.520000e-01    1.050000e+00
  TP4q TC3vh  1 3.520000e-01    1.050000e+00
  TP3q TC3vh  1 3.520000e-01    1.050000e+00
  TP2q TC3vh  1 3.400000e-01    1.230000e+00
  TP1q TC3vh  1 3.400000e-01    1.230000e+00
  TN6q TC3vh  1 3.400000e-01    1.510000e+00
  TN5q TC3vh  1 3.400000e-01    1.770000e+00
  TN4q TC3vh  1 3.400000e-01    1.770000e+00
  TN3q TC3vh  1 3.400000e-01    1.770000e+00
  TN2q TC3vh  1 3.400000e-01    2.020000e+00
  TN1q TC3vh  1 3.400000e-01    2.020000e+00
  TC6q TC3vh  1 3.400000e-01    2.020000e+00
  TC5q TC3vh  1 3.400000e-01    2.020000e+00
  TC4q TC3vh  1 3.400000e-01    2.280000e+00
  TC3q TC3vh  1 3.400000e-01    2.280000e+00
  TP6q TC2vh  1 3.660000e-01    9.350000e-01
  TP5q TC2vh  1 3.520000e-01    1.050000e+00
  TP4q TC2vh  1 3.520000e-01    1.050000e+00
  TP3q TC2vh  1 3.520000e-01    1.050000e+00
  TP2q TC2vh  1 3.400000e-01    1.230000e+00
  TP1q TC2vh  1 3.400000e-01    1.230000e+00
  TN6q TC2vh  1 3.400000e-01    1.510000e+00
  TN5q TC2vh  1 3.400000e-01    1.510000e+00
  TN4q TC2vh  1 3.400000e-01    1.510000e+00
  TN3q TC2vh  1 3.400000e-01    1.770000e+00
  TN2q TC2vh  1 3.400000e-01    1.770000e+00
  TN1q TC2vh  1 3.400000e-01    1.770000e+00
  TC6q TC2vh  1 3.400000e-01    1.770000e+00
  TC5q TC2vh  1 3.400000e-01    1.770000e+00
  TC4q TC2vh  1 3.400000e-01    2.020000e+00
  TC3q TC2vh  1 3.400000e-01    2.280000e+00
  TC2q TC2vh  1 3.400000e-01    2.280000e+00
  TP6q TC1vh  1 4.110000e-01    8.010000e-01
  TP5q TC1vh  1 3.660000e-01    9.350000e-01
  TP4q TC1vh  1 3.660000e-01    9.350000e-01
  TP3q TC1vh  1 3.660000e-01    9.350000e-01
  TP2q TC1vh  1 3.520000e-01    1.050000e+00
  TP1q TC1vh  1 3.520000e-01    1.050000e+00
  TN6q TC1vh  1 3.400000e-01    1.230000e+00
  TN5q TC1vh  1 3.400000e-01    1.230000e+00
  TN4q TC1vh  1 3.400000e-01    1.230000e+00
  TN3q TC1vh  1 3.400000e-01    1.510000e+00
  TN2q TC1vh  1 3.400000e-01    1.510000e+00
  TN1q TC1vh  1 3.400000e-01    1.510000e+00
  TC6q TC1vh  1 3.400000e-01    1.510000e+00
  TC5q TC1vh  1 3.400000e-01    1.770000e+00
  TC4q TC1vh  1 3.400000e-01    1.770000e+00
  TC3q TC1vh  1 3.400000e-01    2.280000e+00
  TC2q TC1vh  1 3.400000e-01    2.500000e+00
  TC1q TC1vh  1 3.400000e-01    2.280000e+00
  TP6q TX4vh  1 3.400000e-01    1.770000e+00
  TP5q TX4vh  1 3.400000e-01    2.020000e+00
  TP4q TX4vh  1 3.400000e-01    2.020000e+00
  TP3q TX4vh  1 3.400000e-01    2.020000e+00
  TP2q TX4vh  1 3.400000e-01    2.020000e+00
  TP1q TX4vh  1 3.400000e-01    2.020000e+00
  TN6q TX4vh  1 3.400000e-01    2.280000e+00
  TN5q TX4vh  1 3.400000e-01    2.500000e+00
  TN4q TX4vh  1 3.400000e-01    2.740000e+00
  TN3q TX4vh  1 3.400000e-01    2.500000e+00
  TN2q TX4vh  1 3.400000e-01    2.500000e+00
  TN1q TX4vh  1 3.400000e-01    2.280000e+00
  TC6q TX4vh  1 3.400000e-01    2.280000e+00
  TC5q TX4vh  1 3.400000e-01    2.020000e+00
  TC4q TX4vh  1 3.400000e-01    2.020000e+00
  TC3q TX4vh  1 3.400000e-01    2.020000e+00
  TC2q TX4vh  1 3.400000e-01    1.510000e+00
  TC1q TX4vh  1 3.400000e-01    1.510000e+00
  TX4q TX4vh  1 3.400000e-01    2.280000e+00
  TP6q TX3vh  1 3.400000e-01    1.770000e+00
  TP5q TX3vh  1 3.400000e-01    1.770000e+00
  TP4q TX3vh  1 3.400000e-01    1.770000e+00
  TP3q TX3vh  1 3.400000e-01    2.020000e+00
  TP2q TX3vh  1 3.400000e-01    2.020000e+00
  TP1q TX3vh  1 3.400000e-01    2.020000e+00
  TN6q TX3vh  1 3.400000e-01    2.020000e+00
  TN5q TX3vh  1 3.400000e-01    2.280000e+00
  TN4q TX3vh  1 3.400000e-01    2.500000e+00
  TN3q TX3vh  1 3.400000e-01    2.280000e+00
  TN2q TX3vh  1 3.400000e-01    2.280000e+00
  TN1q TX3vh  1 3.400000e-01    2.280000e+00
  TC6q TX3vh  1 3.400000e-01    2.280000e+00
  TC5q TX3vh  1 3.400000e-01    2.020000e+00
  TC4q TX3vh  1 3.400000e-01    2.020000e+00
  TC3q TX3vh  1 3.400000e-01    2.020000e+00
  TC2q TX3vh  1 3.400000e-01    2.020000e+00
  TC1q TX3vh  1 3.400000e-01    2.020000e+00
  TX4q TX3vh  1 3.400000e-01    2.280000e+00
  TX3q TX3vh  1 3.400000e-01    2.280000e+00
  TP6q TX2vh  1 3.400000e-01    1.510000e+00
  TP5q TX2vh  1 3.400000e-01    1.770000e+00
  TP4q TX2vh  1 3.400000e-01    1.770000e+00
  TP3q TX2vh  1 3.400000e-01    1.770000e+00
  TP2q TX2vh  1 3.400000e-01    1.770000e+00
  TP1q TX2vh  1 3.400000e-01    1.770000e+00
  TN6q TX2vh  1 3.400000e-01    1.770000e+00
  TN5q TX2vh  1 3.400000e-01    2.020000e+00
  TN4q TX2vh  1 3.400000e-01    2.020000e+00
  TN3q TX2vh  1 3.400000e-01    2.020000e+00
  TN2q TX2vh  1 3.400000e-01    2.020000e+00
  TN1q TX2vh  1 3.400000e-01    2.020000e+00
  TC6q TX2vh  1 3.400000e-01    2.280000e+00
  TC5q TX2vh  1 3.400000e-01    2.020000e+00
  TC4q TX2vh  1 3.400000e-01    2.020000e+00
  TC3q TX2vh  1 3.400000e-01    2.020000e+00
  TC2q TX2vh  1 3.400000e-01    2.020000e+00
  TC1q TX2vh  1 3.400000e-01    2.020000e+00
  TX4q TX2vh  1 3.400000e-01    2.280000e+00
  TX3q TX2vh  1 3.400000e-01    2.500000e+00
  TX2q TX2vh  1 3.400000e-01    2.500000e+00
  TP6q TX1vh  1 3.400000e-01    1.230000e+00
  TP5q TX1vh  1 3.400000e-01    1.230000e+00
  TP4q TX1vh  1 3.400000e-01    1.510000e+00
  TP3q TX1vh  1 3.400000e-01    1.510000e+00
  TP2q TX1vh  1 3.400000e-01    1.510000e+00
  TP1q TX1vh  1 3.400000e-01    1.510000e+00
  TN6q TX1vh  1 3.400000e-01    1.510000e+00
  TN5q TX1vh  1 3.400000e-01    1.770000e+00
  TN4q TX1vh  1 3.400000e-01    1.770000e+00
  TN3q TX1vh  1 3.400000e-01    2.020000e+00
  TN2q TX1vh  1 3.400000e-01    2.020000e+00
  TN1q TX1vh  1 3.400000e-01    2.020000e+00
  TC6q TX1vh  1 3.400000e-01    2.280000e+00
  TC5q TX1vh  1 3.400000e-01    2.280000e+00
  TC4q TX1vh  1 3.400000e-01    2.280000e+00
  TC3q TX1vh  1 3.400000e-01    2.280000e+00
  TC2q TX1vh  1 3.400000e-01    2.020000e+00
  TC1q TX1vh  1 3.400000e-01    2.020000e+00
  TX4q TX1vh  1 3.400000e-01    2.280000e+00
  TX3q TX1vh  1 3.400000e-01    2.500000e+00
  TX2q TX1vh  1 3.400000e-01    2.500000e+00
  TX1q TX1vh  1 3.400000e-01    2.740000e+00
  TP6q TC6eh  1 3.400000e-01    1.510000e+00
  TP5q TC6eh  1 3.400000e-01    1.510000e+00
  TP4q TC6eh  1 3.400000e-01    1.770000e+00
  TP3q TC6eh  1 3.400000e-01    2.020000e+00
  TP2q TC6eh  1 3.400000e-01    2.020000e+00
  TP1q TC6eh  1 3.400000e-01    2.020000e+00
  TN6q TC6eh  1 3.400000e-01    2.280000e+00
  TN5q TC6eh  1 3.400000e-01    2.280000e+00
  TN4q TC6eh  1 3.400000e-01    2.280000e+00
  TN3q TC6eh  1 3.400000e-01    2.280000e+00
  TN2q TC6eh  1 3.400000e-01    2.280000e+00
  TN1q TC6eh  1 3.400000e-01    2.500000e+00
  TC6q TC6eh  1 3.400000e-01    2.500000e+00
  TP6q TC5eh  1 3.400000e-01    1.230000e+00
  TP5q TC5eh  1 3.400000e-01    1.510000e+00
  TP4q TC5eh  1 3.400000e-01    1.510000e+00
  TP3q TC5eh  1 3.400000e-01    1.770000e+00
  TP2q TC5eh  1 3.400000e-01    1.770000e+00
  TP1q TC5eh  1 3.400000e-01    1.770000e+00
  TN6q TC5eh  1 3.400000e-01    2.020000e+00
  TN5q TC5eh  1 3.400000e-01    2.020000e+00
  TN4q TC5eh  1 3.400000e-01    2.020000e+00
  TN3q TC5eh  1 3.400000e-01    2.020000e+00
  TN2q TC5eh  1 3.400000e-01    2.020000e+00
  TN1q TC5eh  1 3.400000e-01    2.280000e+00
  TC6q TC5eh  1 3.400000e-01    2.280000e+00
  TC5q TC5eh  1 3.400000e-01    2.280000e+00
  TP6q TC4eh  1 3.520000e-01    1.050000e+00
  TP5q TC4eh  1 3.400000e-01    1.230000e+00
  TP4q TC4eh  1 3.400000e-01    1.230000e+00
  TP3q TC4eh  1 3.400000e-01    1.510000e+00
  TP2q TC4eh  1 3.400000e-01    1.510000e+00
  TP1q TC4eh  1 3.400000e-01    1.510000e+00
  TN6q TC4eh  1 3.400000e-01    1.770000e+00
  TN5q TC4eh  1 3.400000e-01    1.770000e+00
  TN4q TC4eh  1 3.400000e-01    2.020000e+00
  TN3q TC4eh  1 3.400000e-01    2.020000e+00
  TN2q TC4eh  1 3.400000e-01    2.020000e+00
  TN1q TC4eh  1 3.400000e-01    2.280000e+00
  TC6q TC4eh  1 3.400000e-01    2.280000e+00
  TC5q TC4eh  1 3.400000e-01    2.280000e+00
  TC4q TC4eh  1 3.400000e-01    2.280000e+00
  TP6q TC3eh  1 3.660000e-01    9.350000e-01
  TP5q TC3eh  1 3.520000e-01    1.050000e+00
  TP4q TC3eh  1 3.520000e-01    1.050000e+00
  TP3q TC3eh  1 3.520000e-01    1.050000e+00
  TP2q TC3eh  1 3.400000e-01    1.230000e+00
  TP1q TC3eh  1 3.400000e-01    1.230000e+00
  TN6q TC3eh  1 3.400000e-01    1.510000e+00
  TN5q TC3eh  1 3.400000e-01    1.770000e+00
  TN4q TC3eh  1 3.400000e-01    1.770000e+00
  TN3q TC3eh  1 3.400000e-01    1.770000e+00
  TN2q TC3eh  1 3.400000e-01    2.020000e+00
  TN1q TC3eh  1 3.400000e-01    2.020000e+00
  TC6q TC3eh  1 3.400000e-01    2.020000e+00
  TC5q TC3eh  1 3.400000e-01    2.020000e+00
  TC4q TC3eh  1 3.400000e-01    2.280000e+00
  TC3q TC3eh  1 3.400000e-01    2.280000e+00
  TP6q TC2eh  1 3.660000e-01    9.350000e-01
  TP5q TC2eh  1 3.520000e-01    1.050000e+00
  TP4q TC2eh  1 3.520000e-01    1.050000e+00
  TP3q TC2eh  1 3.520000e-01    1.050000e+00
  TP2q TC2eh  1 3.400000e-01    1.230000e+00
  TP1q TC2eh  1 3.400000e-01    1.230000e+00
  TN6q TC2eh  1 3.400000e-01    1.510000e+00
  TN5q TC2eh  1 3.400000e-01    1.510000e+00
  TN4q TC2eh  1 3.400000e-01    1.510000e+00
  TN3q TC2eh  1 3.400000e-01    1.770000e+00
  TN2q TC2eh  1 3.400000e-01    1.770000e+00
  TN1q TC2eh  1 3.400000e-01    1.770000e+00
  TC6q TC2eh  1 3.400000e-01    1.770000e+00
  TC5q TC2eh  1 3.400000e-01    1.770000e+00
  TC4q TC2eh  1 3.400000e-01    2.020000e+00
  TC3q TC2eh  1 3.400000e-01    2.280000e+00
  TC2q TC2eh  1 3.400000e-01    2.280000e+00
  TP6q TC1eh  1 4.110000e-01    8.010000e-01
  TP5q TC1eh  1 3.660000e-01    9.350000e-01
  TP4q TC1eh  1 3.660000e-01    9.350000e-01
  TP3q TC1eh  1 3.660000e-01    9.350000e-01
  TP2q TC1eh  1 3.520000e-01    1.050000e+00
  TP1q TC1eh  1 3.520000e-01    1.050000e+00
  TN6q TC1eh  1 3.400000e-01    1.230000e+00
  TN5q TC1eh  1 3.400000e-01    1.230000e+00
  TN4q TC1eh  1 3.400000e-01    1.230000e+00
  TN3q TC1eh  1 3.400000e-01    1.510000e+00
  TN2q TC1eh  1 3.400000e-01    1.510000e+00
  TN1q TC1eh  1 3.400000e-01    1.510000e+00
  TC6q TC1eh  1 3.400000e-01    1.510000e+00
  TC5q TC1eh  1 3.400000e-01    1.770000e+00
  TC4q TC1eh  1 3.400000e-01    1.770000e+00
  TC3q TC1eh  1 3.400000e-01    2.280000e+00
  TC2q TC1eh  1 3.400000e-01    2.500000e+00
  TC1q TC1eh  1 3.400000e-01    2.280000e+00
  TP6q TX4eh  1 3.400000e-01    1.770000e+00
  TP5q TX4eh  1 3.400000e-01    2.020000e+00
  TP4q TX4eh  1 3.400000e-01    2.020000e+00
  TP3q TX4eh  1 3.400000e-01    2.020000e+00
  TP2q TX4eh  1 3.400000e-01    2.020000e+00
  TP1q TX4eh  1 3.400000e-01    2.020000e+00
  TN6q TX4eh  1 3.400000e-01    2.280000e+00
  TN5q TX4eh  1 3.400000e-01    2.500000e+00
  TN4q TX4eh  1 3.400000e-01    2.740000e+00
  TN3q TX4eh  1 3.400000e-01    2.500000e+00
  TN2q TX4eh  1 3.400000e-01    2.500000e+00
  TN1q TX4eh  1 3.400000e-01    2.280000e+00
  TC6q TX4eh  1 3.400000e-01    2.280000e+00
  TC5q TX4eh  1 3.400000e-01    2.020000e+00
  TC4q TX4eh  1 3.400000e-01    2.020000e+00
  TC3q TX4eh  1 3.400000e-01    2.020000e+00
  TC2q TX4eh  1 3.400000e-01    1.510000e+00
  TC1q TX4eh  1 3.400000e-01    1.510000e+00
  TX4q TX4eh  1 3.400000e-01    2.280000e+00
  TP6q TX3eh  1 3.400000e-01    1.770000e+00
  TP5q TX3eh  1 3.400000e-01    1.770000e+00
  TP4q TX3eh  1 3.400000e-01    1.770000e+00
  TP3q TX3eh  1 3.400000e-01    2.020000e+00
  TP2q TX3eh  1 3.400000e-01    2.020000e+00
  TP1q TX3eh  1 3.400000e-01    2.020000e+00
  TN6q TX3eh  1 3.400000e-01    2.020000e+00
  TN5q TX3eh  1 3.400000e-01    2.280000e+00
  TN4q TX3eh  1 3.400000e-01    2.500000e+00
  TN3q TX3eh  1 3.400000e-01    2.280000e+00
  TN2q TX3eh  1 3.400000e-01    2.280000e+00
  TN1q TX3eh  1 3.400000e-01    2.280000e+00
  TC6q TX3eh  1 3.400000e-01    2.280000e+00
  TC5q TX3eh  1 3.400000e-01    2.020000e+00
  TC4q TX3eh  1 3.400000e-01    2.020000e+00
  TC3q TX3eh  1 3.400000e-01    2.020000e+00
  TC2q TX3eh  1 3.400000e-01    2.020000e+00
  TC1q TX3eh  1 3.400000e-01    2.020000e+00
  TX4q TX3eh  1 3.400000e-01    2.280000e+00
  TX3q TX3eh  1 3.400000e-01    2.280000e+00
  TP6q TX2eh  1 3.400000e-01    1.510000e+00
  TP5q TX2eh  1 3.400000e-01    1.770000e+00
  TP4q TX2eh  1 3.400000e-01    1.770000e+00
  TP3q TX2eh  1 3.400000e-01    1.770000e+00
  TP2q TX2eh  1 3.400000e-01    1.770000e+00
  TP1q TX2eh  1 3.400000e-01    1.770000e+00
  TN6q TX2eh  1 3.400000e-01    1.770000e+00
  TN5q TX2eh  1 3.400000e-01    2.020000e+00
  TN4q TX2eh  1 3.400000e-01    2.020000e+00
  TN3q TX2eh  1 3.400000e-01    2.020000e+00
  TN2q TX2eh  1 3.400000e-01    2.020000e+00
  TN1q TX2eh  1 3.400000e-01    2.020000e+00
  TC6q TX2eh  1 3.400000e-01    2.280000e+00
  TC5q TX2eh  1 3.400000e-01    2.020000e+00
  TC4q TX2eh  1 3.400000e-01    2.020000e+00
  TC3q TX2eh  1 3.400000e-01    2.020000e+00
  TC2q TX2eh  1 3.400000e-01    2.020000e+00
  TC1q TX2eh  1 3.400000e-01    2.020000e+00
  TX4q TX2eh  1 3.400000e-01    2.280000e+00
  TX3q TX2eh  1 3.400000e-01    2.500000e+00
  TX2q TX2eh  1 3.400000e-01    2.500000e+00
  TP6q TX1eh  1 3.400000e-01    1.230000e+00
  TP5q TX1eh  1 3.400000e-01    1.230000e+00
  TP4q TX1eh  1 3.400000e-01    1.510000e+00
  TP3q TX1eh  1 3.400000e-01    1.510000e+00
  TP2q TX1eh  1 3.400000e-01    1.510000e+00
  TP1q TX1eh  1 3.400000e-01    1.510000e+00
  TN6q TX1eh  1 3.400000e-01    1.510000e+00
  TN5q TX1eh  1 3.400000e-01    1.770000e+00
  TN4q TX1eh  1 3.400000e-01    1.770000e+00
  TN3q TX1eh  1 3.400000e-01    2.020000e+00
  TN2q TX1eh  1 3.400000e-01    2.020000e+00
  TN1q TX1eh  1 3.400000e-01    2.020000e+00
  TC6q TX1eh  1 3.400000e-01    2.280000e+00
  TC5q TX1eh  1 3.400000e-01    2.280000e+00
  TC4q TX1eh  1 3.400000e-01    2.280000e+00
  TC3q TX1eh  1 3.400000e-01    2.280000e+00
  TC2q TX1eh  1 3.400000e-01    2.020000e+00
  TC1q TX1eh  1 3.400000e-01    2.020000e+00
  TX4q TX1eh  1 3.400000e-01    2.280000e+00
  TX3q TX1eh  1 3.400000e-01    2.500000e+00
  TX2q TX1eh  1 3.400000e-01    2.500000e+00
  TX1q TX1eh  1 3.400000e-01    2.740000e+00
  TP6a TN1ah  1 3.660000e-01    9.350000e-01
  TP5a TN1ah  1 3.660000e-01    9.350000e-01
  TP4a TN1ah  1 3.520000e-01    1.050000e+00
  TP3a TN1ah  1 3.400000e-01    1.230000e+00
  TP2a TN1ah  1 3.400000e-01    1.230000e+00
  TP1a TN1ah  1 3.400000e-01    1.230000e+00
  TN6a TN1ah  1 3.400000e-01    1.230000e+00
  TN5a TN1ah  1 3.400000e-01    1.230000e+00
  TN4a TN1ah  1 3.400000e-01    1.230000e+00
  TN3a TN1ah  1 3.400000e-01    1.230000e+00
  TN2a TN1ah  1 3.400000e-01    1.230000e+00
  TP6a TN2ah  1 3.520000e-01    1.050000e+00
  TP5a TN2ah  1 3.520000e-01    1.050000e+00
  TP4a TN2ah  1 3.400000e-01    1.230000e+00
  TP3a TN2ah  1 3.400000e-01    1.230000e+00
  TP2a TN2ah  1 3.400000e-01    1.230000e+00
  TP1a TN2ah  1 3.400000e-01    1.230000e+00
  TN6a TN2ah  1 3.400000e-01    1.230000e+00
  TN5a TN2ah  1 3.400000e-01    1.510000e+00
  TN4a TN2ah  1 3.400000e-01    1.510000e+00
  TN3a TN2ah  1 3.400000e-01    1.510000e+00
  TP6a TN3ah  1 3.400000e-01    1.230000e+00
  TP5a TN3ah  1 3.400000e-01    1.230000e+00
  TP4a TN3ah  1 3.400000e-01    1.230000e+00
  TP3a TN3ah  1 3.400000e-01    1.230000e+00
  TP2a TN3ah  1 3.400000e-01    1.230000e+00
  TP1a TN3ah  1 3.400000e-01    1.230000e+00
  TN6a TN3ah  1 3.400000e-01    1.510000e+00
  TN5a TN3ah  1 3.400000e-01    1.510000e+00
  TN4a TN3ah  1 3.400000e-01    1.510000e+00
  TP6a TN4ah  1 3.400000e-01    1.230000e+00
  TP5a TN4ah  1 3.400000e-01    1.510000e+00
  TP4a TN4ah  1 3.400000e-01    1.510000e+00
  TP3a TN4ah  1 3.400000e-01    1.510000e+00
  TP2a TN4ah  1 3.400000e-01    1.510000e+00
  TP1a TN4ah  1 3.400000e-01    1.770000e+00
  TN6a TN4ah  1 3.400000e-01    2.020000e+00
  TN5a TN4ah  1 3.400000e-01    1.770000e+00
  TP6a TN5ah  1 3.400000e-01    1.510000e+00
  TP5a TN5ah  1 3.400000e-01    1.510000e+00
  TP4a TN5ah  1 3.400000e-01    1.510000e+00
  TP3a TN5ah  1 3.400000e-01    1.510000e+00
  TP2a TN5ah  1 3.400000e-01    1.770000e+00
  TP1a TN5ah  1 3.400000e-01    1.770000e+00
  TN6a TN5ah  1 3.400000e-01    2.020000e+00
  TP6a TN6ah  1 3.400000e-01    2.020000e+00
  TP5a TN6ah  1 3.400000e-01    1.770000e+00
  TP4a TN6ah  1 3.400000e-01    1.770000e+00
  TP3a TN6ah  1 3.400000e-01    1.770000e+00
  TP2a TN6ah  1 3.400000e-01    2.020000e+00
  TP1a TN6ah  1 3.400000e-01    2.020000e+00
  TP6a TP1ah  1 3.400000e-01    2.280000e+00
  TP5a TP1ah  1 3.400000e-01    2.020000e+00
  TP4a TP1ah  1 3.400000e-01    2.020000e+00
  TP3a TP1ah  1 3.400000e-01    2.020000e+00
  TP2a TP1ah  1 3.400000e-01    2.020000e+00
  TP6a TP2ah  1 3.400000e-01    2.500000e+00
  TP5a TP2ah  1 3.400000e-01    2.280000e+00
  TP4a TP2ah  1 3.400000e-01    2.280000e+00
  TP3a TP2ah  1 3.400000e-01    2.280000e+00
  TP6a TP3ah  1 3.400000e-01    2.500000e+00
  TP5a TP3ah  1 3.400000e-01    2.280000e+00
  TP4a TP3ah  1 3.400000e-01    2.280000e+00
  TP6a TP4ah  1 3.400000e-01    2.740000e+00
  TP5a TP4ah  1 3.400000e-01    2.500000e+00
  TP6a TP5ah  1 3.400000e-01    2.990000e+00
  TP6d TN1dh  1 3.660000e-01    9.350000e-01
  TP5d TN1dh  1 3.660000e-01    9.350000e-01
  TP4d TN1dh  1 3.520000e-01    1.050000e+00
  TP3d TN1dh  1 3.400000e-01    1.230000e+00
  TP2d TN1dh  1 3.400000e-01    1.230000e+00
  TP1d TN1dh  1 3.400000e-01    1.230000e+00
  TN6d TN1dh  1 3.400000e-01    1.230000e+00
  TN5d TN1dh  1 3.400000e-01    1.230000e+00
  TN4d TN1dh  1 3.400000e-01    1.230000e+00
  TN3d TN1dh  1 3.400000e-01    1.230000e+00
  TN2d TN1dh  1 3.400000e-01    1.230000e+00
  TP6d TN2dh  1 3.520000e-01    1.050000e+00
  TP5d TN2dh  1 3.520000e-01    1.050000e+00
  TP4d TN2dh  1 3.400000e-01    1.230000e+00
  TP3d TN2dh  1 3.400000e-01    1.230000e+00
  TP2d TN2dh  1 3.400000e-01    1.230000e+00
  TP1d TN2dh  1 3.400000e-01    1.230000e+00
  TN6d TN2dh  1 3.400000e-01    1.230000e+00
  TN5d TN2dh  1 3.400000e-01    1.510000e+00
  TN4d TN2dh  1 3.400000e-01    1.510000e+00
  TN3d TN2dh  1 3.400000e-01    1.510000e+00
  TP6d TN3dh  1 3.400000e-01    1.230000e+00
  TP5d TN3dh  1 3.400000e-01    1.230000e+00
  TP4d TN3dh  1 3.400000e-01    1.230000e+00
  TP3d TN3dh  1 3.400000e-01    1.230000e+00
  TP2d TN3dh  1 3.400000e-01    1.230000e+00
  TP1d TN3dh  1 3.400000e-01    1.230000e+00
  TN6d TN3dh  1 3.400000e-01    1.510000e+00
  TN5d TN3dh  1 3.400000e-01    1.510000e+00
  TN4d TN3dh  1 3.400000e-01    1.510000e+00
  TP6d TN4dh  1 3.400000e-01    1.230000e+00
  TP5d TN4dh  1 3.400000e-01    1.510000e+00
  TP4d TN4dh  1 3.400000e-01    1.510000e+00
  TP3d TN4dh  1 3.400000e-01    1.510000e+00
  TP2d TN4dh  1 3.400000e-01    1.510000e+00
  TP1d TN4dh  1 3.400000e-01    1.770000e+00
  TN6d TN4dh  1 3.400000e-01    2.020000e+00
  TN5d TN4dh  1 3.400000e-01    1.770000e+00
  TP6d TN5dh  1 3.400000e-01    1.510000e+00
  TP5d TN5dh  1 3.400000e-01    1.510000e+00
  TP4d TN5dh  1 3.400000e-01    1.510000e+00
  TP3d TN5dh  1 3.400000e-01    1.510000e+00
  TP2d TN5dh  1 3.400000e-01    1.770000e+00
  TP1d TN5dh  1 3.400000e-01    1.770000e+00
  TN6d TN5dh  1 3.400000e-01    2.020000e+00
  TP6d TN6dh  1 3.400000e-01    2.020000e+00
  TP5d TN6dh  1 3.400000e-01    1.770000e+00
  TP4d TN6dh  1 3.400000e-01    1.770000e+00
  TP3d TN6dh  1 3.400000e-01    1.770000e+00
  TP2d TN6dh  1 3.400000e-01    2.020000e+00
  TP1d TN6dh  1 3.400000e-01    2.020000e+00
  TP6d TP1dh  1 3.400000e-01    2.280000e+00
  TP5d TP1dh  1 3.400000e-01    2.020000e+00
  TP4d TP1dh  1 3.400000e-01    2.020000e+00
  TP3d TP1dh  1 3.400000e-01    2.020000e+00
  TP2d TP1dh  1 3.400000e-01    2.020000e+00
  TP6d TP2dh  1 3.400000e-01    2.500000e+00
  TP5d TP2dh  1 3.400000e-01    2.280000e+00
  TP4d TP2dh  1 3.400000e-01    2.280000e+00
  TP3d TP2dh  1 3.400000e-01    2.280000e+00
  TP6d TP3dh  1 3.400000e-01    2.500000e+00
  TP5d TP3dh  1 3.400000e-01    2.280000e+00
  TP4d TP3dh  1 3.400000e-01    2.280000e+00
  TP6d TP4dh  1 3.400000e-01    2.740000e+00
  TP5d TP4dh  1 3.400000e-01    2.500000e+00
  TP6d TP5dh  1 3.400000e-01    2.990000e+00
  TP6r TX1eq  1 3.400000e-01    1.230000e+00
  TP6r TX2eq  1 3.400000e-01    1.510000e+00
  TP6r TX3eq  1 3.400000e-01    1.770000e+00
  TP6r TX4eq  1 3.400000e-01    1.770000e+00
  TP6r TC1eq  1 4.110000e-01    8.010000e-01
  TP6r TC2eq  1 3.660000e-01    9.350000e-01
  TP6r TC3eq  1 3.660000e-01    9.350000e-01
  TP6r TC4eq  1 3.520000e-01    1.050000e+00
  TP6r TC5eq  1 3.400000e-01    1.230000e+00
  TP6r TC6eq  1 3.400000e-01    1.510000e+00
  TP6r TX1vq  1 3.400000e-01    1.230000e+00
  TP6r TX2vq  1 3.400000e-01    1.510000e+00
  TP6r TX3vq  1 3.400000e-01    1.770000e+00
  TP6r TX4vq  1 3.400000e-01    1.770000e+00
  TP6r TC1vq  1 4.110000e-01    8.010000e-01
  TP6r TC2vq  1 3.660000e-01    9.350000e-01
  TP6r TC3vq  1 3.660000e-01    9.350000e-01
  TP6r TC4vq  1 3.520000e-01    1.050000e+00
  TP6r TC5vq  1 3.400000e-01    1.230000e+00
  TP6r TC6vq  1 3.400000e-01    1.510000e+00
  TP6r TN1aq  1 3.400000e-01    1.230000e+00
  TP6r TN2aq  1 3.400000e-01    1.510000e+00
  TP6r TN3aq  1 3.400000e-01    1.770000e+00
  TP6r TN4aq  1 3.400000e-01    2.020000e+00
  TP6r TN5aq  1 3.400000e-01    2.280000e+00
  TP6r TN6aq  1 3.400000e-01    2.740000e+00
  TP6r TP1aq  1 3.400000e-01    2.990000e+00
  TP6r TP2aq  1 3.400000e-01    3.220000e+00
  TP6r TP3aq  1 3.400000e-01    3.220000e+00
  TP6r TP4aq  1 3.400000e-01    3.470000e+00
  TP6r TP5aq  1 3.400000e-01    3.750000e+00
  TP6r TP6aq  1 3.400000e-01    4.020000e+00
  TP6r TN1dq  1 3.400000e-01    1.230000e+00
  TP6r TN2dq  1 3.400000e-01    1.510000e+00
  TP6r TN3dq  1 3.400000e-01    1.770000e+00
  TP6r TN4dq  1 3.400000e-01    2.020000e+00
  TP6r TN5dq  1 3.400000e-01    2.280000e+00
  TP6r TN6dq  1 3.400000e-01    2.740000e+00
  TP6r TP1dq  1 3.400000e-01    2.990000e+00
  TP6r TP2dq  1 3.400000e-01    3.220000e+00
  TP6r TP3dq  1 3.400000e-01    3.220000e+00
  TP6r TP4dq  1 3.400000e-01    3.470000e+00
  TP6r TP5dq  1 3.400000e-01    3.750000e+00
  TP6r TP6dq  1 3.400000e-01    4.020000e+00
  TP5r TX1eq  1 3.400000e-01    1.230000e+00
  TP5r TX2eq  1 3.400000e-01    1.770000e+00
  TP5r TX3eq  1 3.400000e-01    1.770000e+00
  TP5r TX4eq  1 3.400000e-01    2.020000e+00
  TP5r TC1eq  1 3.660000e-01    9.350000e-01
  TP5r TC2eq  1 3.520000e-01    1.050000e+00
  TP5r TC3eq  1 3.520000e-01    1.050000e+00
  TP5r TC4eq  1 3.400000e-01    1.230000e+00
  TP5r TC5eq  1 3.400000e-01    1.510000e+00
  TP5r TC6eq  1 3.400000e-01    1.510000e+00
  TP5r TX1vq  1 3.400000e-01    1.230000e+00
  TP5r TX2vq  1 3.400000e-01    1.770000e+00
  TP5r TX3vq  1 3.400000e-01    1.770000e+00
  TP5r TX4vq  1 3.400000e-01    2.020000e+00
  TP5r TC1vq  1 3.660000e-01    9.350000e-01
  TP5r TC2vq  1 3.520000e-01    1.050000e+00
  TP5r TC3vq  1 3.520000e-01    1.050000e+00
  TP5r TC4vq  1 3.400000e-01    1.230000e+00
  TP5r TC5vq  1 3.400000e-01    1.510000e+00
  TP5r TC6vq  1 3.400000e-01    1.510000e+00
  TP5r TN1aq  1 3.400000e-01    1.230000e+00
  TP5r TN2aq  1 3.400000e-01    1.510000e+00
  TP5r TN3aq  1 3.400000e-01    1.770000e+00
  TP5r TN4aq  1 3.400000e-01    2.280000e+00
  TP5r TN5aq  1 3.400000e-01    2.280000e+00
  TP5r TN6aq  1 3.400000e-01    2.500000e+00
  TP5r TP1aq  1 3.400000e-01    2.740000e+00
  TP5r TP2aq  1 3.400000e-01    2.990000e+00
  TP5r TP3aq  1 3.400000e-01    2.990000e+00
  TP5r TP4aq  1 3.400000e-01    3.220000e+00
  TP5r TP5aq  1 3.400000e-01    3.470000e+00
  TP5r TN1dq  1 3.400000e-01    1.230000e+00
  TP5r TN2dq  1 3.400000e-01    1.510000e+00
  TP5r TN3dq  1 3.400000e-01    1.770000e+00
  TP5r TN4dq  1 3.400000e-01    2.280000e+00
  TP5r TN5dq  1 3.400000e-01    2.280000e+00
  TP5r TN6dq  1 3.400000e-01    2.500000e+00
  TP5r TP1dq  1 3.400000e-01    2.740000e+00
  TP5r TP2dq  1 3.400000e-01    2.990000e+00
  TP5r TP3dq  1 3.400000e-01    2.990000e+00
  TP5r TP4dq  1 3.400000e-01    3.220000e+00
  TP5r TP5dq  1 3.400000e-01    3.470000e+00
  TP4r TX1eq  1 3.400000e-01    1.510000e+00
  TP4r TX2eq  1 3.400000e-01    1.770000e+00
  TP4r TX3eq  1 3.400000e-01    1.770000e+00
  TP4r TX4eq  1 3.400000e-01    2.020000e+00
  TP4r TC1eq  1 3.660000e-01    9.350000e-01
  TP4r TC2eq  1 3.520000e-01    1.050000e+00
  TP4r TC3eq  1 3.520000e-01    1.050000e+00
  TP4r TC4eq  1 3.400000e-01    1.230000e+00
  TP4r TC5eq  1 3.400000e-01    1.510000e+00
  TP4r TC6eq  1 3.400000e-01    1.770000e+00
  TP4r TX1vq  1 3.400000e-01    1.510000e+00
  TP4r TX2vq  1 3.400000e-01    1.770000e+00
  TP4r TX3vq  1 3.400000e-01    1.770000e+00
  TP4r TX4vq  1 3.400000e-01    2.020000e+00
  TP4r TC1vq  1 3.660000e-01    9.350000e-01
  TP4r TC2vq  1 3.520000e-01    1.050000e+00
  TP4r TC3vq  1 3.520000e-01    1.050000e+00
  TP4r TC4vq  1 3.400000e-01    1.230000e+00
  TP4r TC5vq  1 3.400000e-01    1.510000e+00
  TP4r TC6vq  1 3.400000e-01    1.770000e+00
  TP4r TN1aq  1 3.400000e-01    1.510000e+00
  TP4r TN2aq  1 3.400000e-01    1.770000e+00
  TP4r TN3aq  1 3.400000e-01    2.020000e+00
  TP4r TN4aq  1 3.400000e-01    2.280000e+00
  TP4r TN5aq  1 3.400000e-01    2.280000e+00
  TP4r TN6aq  1 3.400000e-01    2.500000e+00
  TP4r TP1aq  1 3.400000e-01    2.740000e+00
  TP4r TP2aq  1 3.400000e-01    2.990000e+00
  TP4r TP3aq  1 3.400000e-01    2.990000e+00
  TP4r TP4aq  1 3.400000e-01    3.220000e+00
  TP4r TN1dq  1 3.400000e-01    1.510000e+00
  TP4r TN2dq  1 3.400000e-01    1.770000e+00
  TP4r TN3dq  1 3.400000e-01    2.020000e+00
  TP4r TN4dq  1 3.400000e-01    2.280000e+00
  TP4r TN5dq  1 3.400000e-01    2.280000e+00
  TP4r TN6dq  1 3.400000e-01    2.500000e+00
  TP4r TP1dq  1 3.400000e-01    2.740000e+00
  TP4r TP2dq  1 3.400000e-01    2.990000e+00
  TP4r TP3dq  1 3.400000e-01    2.990000e+00
  TP4r TP4dq  1 3.400000e-01    3.220000e+00
  TP3r TX1eq  1 3.400000e-01    1.510000e+00
  TP3r TX2eq  1 3.400000e-01    1.770000e+00
  TP3r TX3eq  1 3.400000e-01    2.020000e+00
  TP3r TX4eq  1 3.400000e-01    2.020000e+00
  TP3r TC1eq  1 3.660000e-01    9.350000e-01
  TP3r TC2eq  1 3.520000e-01    1.050000e+00
  TP3r TC3eq  1 3.520000e-01    1.050000e+00
  TP3r TC4eq  1 3.400000e-01    1.510000e+00
  TP3r TC5eq  1 3.400000e-01    1.770000e+00
  TP3r TC6eq  1 3.400000e-01    2.020000e+00
  TP3r TX1vq  1 3.400000e-01    1.510000e+00
  TP3r TX2vq  1 3.400000e-01    1.770000e+00
  TP3r TX3vq  1 3.400000e-01    2.020000e+00
  TP3r TX4vq  1 3.400000e-01    2.020000e+00
  TP3r TC1vq  1 3.660000e-01    9.350000e-01
  TP3r TC2vq  1 3.520000e-01    1.050000e+00
  TP3r TC3vq  1 3.520000e-01    1.050000e+00
  TP3r TC4vq  1 3.400000e-01    1.510000e+00
  TP3r TC5vq  1 3.400000e-01    1.770000e+00
  TP3r TC6vq  1 3.400000e-01    2.020000e+00
  TP3r TN1aq  1 3.400000e-01    1.770000e+00
  TP3r TN2aq  1 3.400000e-01    2.020000e+00
  TP3r TN3aq  1 3.400000e-01    2.020000e+00
  TP3r TN4aq  1 3.400000e-01    2.280000e+00
  TP3r TN5aq  1 3.400000e-01    2.280000e+00
  TP3r TN6aq  1 3.400000e-01    2.500000e+00
  TP3r TP1aq  1 3.400000e-01    2.740000e+00
  TP3r TP2aq  1 3.400000e-01    2.990000e+00
  TP3r TP3aq  1 3.400000e-01    2.990000e+00
  TP3r TN1dq  1 3.400000e-01    1.770000e+00
  TP3r TN2dq  1 3.400000e-01    2.020000e+00
  TP3r TN3dq  1 3.400000e-01    2.020000e+00
  TP3r TN4dq  1 3.400000e-01    2.280000e+00
  TP3r TN5dq  1 3.400000e-01    2.280000e+00
  TP3r TN6dq  1 3.400000e-01    2.500000e+00
  TP3r TP1dq  1 3.400000e-01    2.740000e+00
  TP3r TP2dq  1 3.400000e-01    2.990000e+00
  TP3r TP3dq  1 3.400000e-01    2.990000e+00
  TP2r TX1eq  1 3.400000e-01    1.510000e+00
  TP2r TX2eq  1 3.400000e-01    1.770000e+00
  TP2r TX3eq  1 3.400000e-01    2.020000e+00
  TP2r TX4eq  1 3.400000e-01    2.020000e+00
  TP2r TC1eq  1 3.520000e-01    1.050000e+00
  TP2r TC2eq  1 3.400000e-01    1.230000e+00
  TP2r TC3eq  1 3.400000e-01    1.230000e+00
  TP2r TC4eq  1 3.400000e-01    1.510000e+00
  TP2r TC5eq  1 3.400000e-01    1.770000e+00
  TP2r TC6eq  1 3.400000e-01    2.020000e+00
  TP2r TX1vq  1 3.400000e-01    1.510000e+00
  TP2r TX2vq  1 3.400000e-01    1.770000e+00
  TP2r TX3vq  1 3.400000e-01    2.020000e+00
  TP2r TX4vq  1 3.400000e-01    2.020000e+00
  TP2r TC1vq  1 3.520000e-01    1.050000e+00
  TP2r TC2vq  1 3.400000e-01    1.230000e+00
  TP2r TC3vq  1 3.400000e-01    1.230000e+00
  TP2r TC4vq  1 3.400000e-01    1.510000e+00
  TP2r TC5vq  1 3.400000e-01    1.770000e+00
  TP2r TC6vq  1 3.400000e-01    2.020000e+00
  TP2r TN1aq  1 3.400000e-01    2.020000e+00
  TP2r TN2aq  1 3.400000e-01    2.020000e+00
  TP2r TN3aq  1 3.400000e-01    2.020000e+00
  TP2r TN4aq  1 3.400000e-01    2.280000e+00
  TP2r TN5aq  1 3.400000e-01    2.500000e+00
  TP2r TN6aq  1 3.400000e-01    2.740000e+00
  TP2r TP1aq  1 3.400000e-01    2.740000e+00
  TP2r TP2aq  1 3.400000e-01    2.990000e+00
  TP2r TN1dq  1 3.400000e-01    2.020000e+00
  TP2r TN2dq  1 3.400000e-01    2.020000e+00
  TP2r TN3dq  1 3.400000e-01    2.020000e+00
  TP2r TN4dq  1 3.400000e-01    2.280000e+00
  TP2r TN5dq  1 3.400000e-01    2.500000e+00
  TP2r TN6dq  1 3.400000e-01    2.740000e+00
  TP2r TP1dq  1 3.400000e-01    2.740000e+00
  TP2r TP2dq  1 3.400000e-01    2.990000e+00
  TP1r TX1eq  1 3.400000e-01    1.510000e+00
  TP1r TX2eq  1 3.400000e-01    1.770000e+00
  TP1r TX3eq  1 3.400000e-01    2.020000e+00
  TP1r TX4eq  1 3.400000e-01    2.020000e+00
  TP1r TC1eq  1 3.520000e-01    1.050000e+00
  TP1r TC2eq  1 3.400000e-01    1.230000e+00
  TP1r TC3eq  1 3.400000e-01    1.230000e+00
  TP1r TC4eq  1 3.400000e-01    1.510000e+00
  TP1r TC5eq  1 3.400000e-01    1.770000e+00
  TP1r TC6eq  1 3.400000e-01    2.020000e+00
  TP1r TX1vq  1 3.400000e-01    1.510000e+00
  TP1r TX2vq  1 3.400000e-01    1.770000e+00
  TP1r TX3vq  1 3.400000e-01    2.020000e+00
  TP1r TX4vq  1 3.400000e-01    2.020000e+00
  TP1r TC1vq  1 3.520000e-01    1.050000e+00
  TP1r TC2vq  1 3.400000e-01    1.230000e+00
  TP1r TC3vq  1 3.400000e-01    1.230000e+00
  TP1r TC4vq  1 3.400000e-01    1.510000e+00
  TP1r TC5vq  1 3.400000e-01    1.770000e+00
  TP1r TC6vq  1 3.400000e-01    2.020000e+00
  TP1r TN1aq  1 3.400000e-01    2.020000e+00
  TP1r TN2aq  1 3.400000e-01    2.020000e+00
  TP1r TN3aq  1 3.400000e-01    2.020000e+00
  TP1r TN4aq  1 3.400000e-01    2.500000e+00
  TP1r TN5aq  1 3.400000e-01    2.500000e+00
  TP1r TN6aq  1 3.400000e-01    2.740000e+00
  TP1r TP1aq  1 3.400000e-01    2.740000e+00
  TP1r TN1dq  1 3.400000e-01    2.020000e+00
  TP1r TN2dq  1 3.400000e-01    2.020000e+00
  TP1r TN3dq  1 3.400000e-01    2.020000e+00
  TP1r TN4dq  1 3.400000e-01    2.500000e+00
  TP1r TN5dq  1 3.400000e-01    2.500000e+00
  TP1r TN6dq  1 3.400000e-01    2.740000e+00
  TP1r TP1dq  1 3.400000e-01    2.740000e+00
  TN6r TX1eq  1 3.400000e-01    1.510000e+00
  TN6r TX2eq  1 3.400000e-01    1.770000e+00
  TN6r TX3eq  1 3.400000e-01    2.020000e+00
  TN6r TX4eq  1 3.400000e-01    2.280000e+00
  TN6r TC1eq  1 3.400000e-01    1.230000e+00
  TN6r TC2eq  1 3.400000e-01    1.510000e+00
  TN6r TC3eq  1 3.400000e-01    1.510000e+00
  TN6r TC4eq  1 3.400000e-01    1.770000e+00
  TN6r TC5eq  1 3.400000e-01    2.020000e+00
  TN6r TC6eq  1 3.400000e-01    2.280000e+00
  TN6r TX1vq  1 3.400000e-01    1.510000e+00
  TN6r TX2vq  1 3.400000e-01    1.770000e+00
  TN6r TX3vq  1 3.400000e-01    2.020000e+00
  TN6r TX4vq  1 3.400000e-01    2.280000e+00
  TN6r TC1vq  1 3.400000e-01    1.230000e+00
  TN6r TC2vq  1 3.400000e-01    1.510000e+00
  TN6r TC3vq  1 3.400000e-01    1.510000e+00
  TN6r TC4vq  1 3.400000e-01    1.770000e+00
  TN6r TC5vq  1 3.400000e-01    2.020000e+00
  TN6r TC6vq  1 3.400000e-01    2.280000e+00
  TN6r TN1aq  1 3.400000e-01    2.020000e+00
  TN6r TN2aq  1 3.400000e-01    2.020000e+00
  TN6r TN3aq  1 3.400000e-01    2.280000e+00
  TN6r TN4aq  1 3.400000e-01    2.740000e+00
  TN6r TN5aq  1 3.400000e-01    2.740000e+00
  TN6r TN6aq  1 3.400000e-01    2.740000e+00
  TN6r TN1dq  1 3.400000e-01    2.020000e+00
  TN6r TN2dq  1 3.400000e-01    2.020000e+00
  TN6r TN3dq  1 3.400000e-01    2.280000e+00
  TN6r TN4dq  1 3.400000e-01    2.740000e+00
  TN6r TN5dq  1 3.400000e-01    2.740000e+00
  TN6r TN6dq  1 3.400000e-01    2.740000e+00
  TN5r TX1eq  1 3.400000e-01    1.770000e+00
  TN5r TX2eq  1 3.400000e-01    2.020000e+00
  TN5r TX3eq  1 3.400000e-01    2.280000e+00
  TN5r TX4eq  1 3.400000e-01    2.500000e+00
  TN5r TC1eq  1 3.400000e-01    1.230000e+00
  TN5r TC2eq  1 3.400000e-01    1.510000e+00
  TN5r TC3eq  1 3.400000e-01    1.770000e+00
  TN5r TC4eq  1 3.400000e-01    1.770000e+00
  TN5r TC5eq  1 3.400000e-01    2.020000e+00
  TN5r TC6eq  1 3.400000e-01    2.280000e+00
  TN5r TX1vq  1 3.400000e-01    1.770000e+00
  TN5r TX2vq  1 3.400000e-01    2.020000e+00
  TN5r TX3vq  1 3.400000e-01    2.280000e+00
  TN5r TX4vq  1 3.400000e-01    2.500000e+00
  TN5r TC1vq  1 3.400000e-01    1.230000e+00
  TN5r TC2vq  1 3.400000e-01    1.510000e+00
  TN5r TC3vq  1 3.400000e-01    1.770000e+00
  TN5r TC4vq  1 3.400000e-01    1.770000e+00
  TN5r TC5vq  1 3.400000e-01    2.020000e+00
  TN5r TC6vq  1 3.400000e-01    2.280000e+00
  TN5r TN1aq  1 3.400000e-01    2.020000e+00
  TN5r TN2aq  1 3.400000e-01    2.280000e+00
  TN5r TN3aq  1 3.400000e-01    2.280000e+00
  TN5r TN4aq  1 3.400000e-01    2.500000e+00
  TN5r TN5aq  1 3.400000e-01    2.500000e+00
  TN5r TN1dq  1 3.400000e-01    2.020000e+00
  TN5r TN2dq  1 3.400000e-01    2.280000e+00
  TN5r TN3dq  1 3.400000e-01    2.280000e+00
  TN5r TN4dq  1 3.400000e-01    2.500000e+00
  TN5r TN5dq  1 3.400000e-01    2.500000e+00
  TN4r TX1eq  1 3.400000e-01    1.770000e+00
  TN4r TX2eq  1 3.400000e-01    2.020000e+00
  TN4r TX3eq  1 3.400000e-01    2.500000e+00
  TN4r TX4eq  1 3.400000e-01    2.740000e+00
  TN4r TC1eq  1 3.400000e-01    1.230000e+00
  TN4r TC2eq  1 3.400000e-01    1.510000e+00
  TN4r TC3eq  1 3.400000e-01    1.770000e+00
  TN4r TC4eq  1 3.400000e-01    2.020000e+00
  TN4r TC5eq  1 3.400000e-01    2.020000e+00
  TN4r TC6eq  1 3.400000e-01    2.280000e+00
  TN4r TX1vq  1 3.400000e-01    1.770000e+00
  TN4r TX2vq  1 3.400000e-01    2.020000e+00
  TN4r TX3vq  1 3.400000e-01    2.500000e+00
  TN4r TX4vq  1 3.400000e-01    2.740000e+00
  TN4r TC1vq  1 3.400000e-01    1.230000e+00
  TN4r TC2vq  1 3.400000e-01    1.510000e+00
  TN4r TC3vq  1 3.400000e-01    1.770000e+00
  TN4r TC4vq  1 3.400000e-01    2.020000e+00
  TN4r TC5vq  1 3.400000e-01    2.020000e+00
  TN4r TC6vq  1 3.400000e-01    2.280000e+00
  TN4r TN1aq  1 3.400000e-01    2.020000e+00
  TN4r TN2aq  1 3.400000e-01    2.280000e+00
  TN4r TN3aq  1 3.400000e-01    2.280000e+00
  TN4r TN4aq  1 3.400000e-01    2.500000e+00
  TN4r TN1dq  1 3.400000e-01    2.020000e+00
  TN4r TN2dq  1 3.400000e-01    2.280000e+00
  TN4r TN3dq  1 3.400000e-01    2.280000e+00
  TN4r TN4dq  1 3.400000e-01    2.500000e+00
  TN3r TX1eq  1 3.400000e-01    2.020000e+00
  TN3r TX2eq  1 3.400000e-01    2.020000e+00
  TN3r TX3eq  1 3.400000e-01    2.280000e+00
  TN3r TX4eq  1 3.400000e-01    2.500000e+00
  TN3r TC1eq  1 3.400000e-01    1.510000e+00
  TN3r TC2eq  1 3.400000e-01    1.770000e+00
  TN3r TC3eq  1 3.400000e-01    1.770000e+00
  TN3r TC4eq  1 3.400000e-01    2.020000e+00
  TN3r TC5eq  1 3.400000e-01    2.020000e+00
  TN3r TC6eq  1 3.400000e-01    2.280000e+00
  TN3r TX1vq  1 3.400000e-01    2.020000e+00
  TN3r TX2vq  1 3.400000e-01    2.020000e+00
  TN3r TX3vq  1 3.400000e-01    2.280000e+00
  TN3r TX4vq  1 3.400000e-01    2.500000e+00
  TN3r TC1vq  1 3.400000e-01    1.510000e+00
  TN3r TC2vq  1 3.400000e-01    1.770000e+00
  TN3r TC3vq  1 3.400000e-01    1.770000e+00
  TN3r TC4vq  1 3.400000e-01    2.020000e+00
  TN3r TC5vq  1 3.400000e-01    2.020000e+00
  TN3r TC6vq  1 3.400000e-01    2.280000e+00
  TN3r TN1aq  1 3.400000e-01    2.020000e+00
  TN3r TN2aq  1 3.400000e-01    2.280000e+00
  TN3r TN3aq  1 3.400000e-01    2.280000e+00
  TN3r TN1dq  1 3.400000e-01    2.020000e+00
  TN3r TN2dq  1 3.400000e-01    2.280000e+00
  TN3r TN3dq  1 3.400000e-01    2.280000e+00
  TN2r TX1eq  1 3.400000e-01    2.020000e+00
  TN2r TX2eq  1 3.400000e-01    2.020000e+00
  TN2r TX3eq  1 3.400000e-01    2.280000e+00
  TN2r TX4eq  1 3.400000e-01    2.500000e+00
  TN2r TC1eq  1 3.400000e-01    1.510000e+00
  TN2r TC2eq  1 3.400000e-01    1.770000e+00
  TN2r TC3eq  1 3.400000e-01    2.020000e+00
  TN2r TC4eq  1 3.400000e-01    2.020000e+00
  TN2r TC5eq  1 3.400000e-01    2.020000e+00
  TN2r TC6eq  1 3.400000e-01    2.280000e+00
  TN2r TX1vq  1 3.400000e-01    2.020000e+00
  TN2r TX2vq  1 3.400000e-01    2.020000e+00
  TN2r TX3vq  1 3.400000e-01    2.280000e+00
  TN2r TX4vq  1 3.400000e-01    2.500000e+00
  TN2r TC1vq  1 3.400000e-01    1.510000e+00
  TN2r TC2vq  1 3.400000e-01    1.770000e+00
  TN2r TC3vq  1 3.400000e-01    2.020000e+00
  TN2r TC4vq  1 3.400000e-01    2.020000e+00
  TN2r TC5vq  1 3.400000e-01    2.020000e+00
  TN2r TC6vq  1 3.400000e-01    2.280000e+00
  TN2r TN1aq  1 3.400000e-01    2.020000e+00
  TN2r TN2aq  1 3.400000e-01    2.280000e+00
  TN2r TN1dq  1 3.400000e-01    2.020000e+00
  TN2r TN2dq  1 3.400000e-01    2.280000e+00
  TN1r TX1eq  1 3.400000e-01    2.020000e+00
  TN1r TX2eq  1 3.400000e-01    2.020000e+00
  TN1r TX3eq  1 3.400000e-01    2.280000e+00
  TN1r TX4eq  1 3.400000e-01    2.280000e+00
  TN1r TC1eq  1 3.400000e-01    1.510000e+00
  TN1r TC2eq  1 3.400000e-01    1.770000e+00
  TN1r TC3eq  1 3.400000e-01    2.020000e+00
  TN1r TC4eq  1 3.400000e-01    2.280000e+00
  TN1r TC5eq  1 3.400000e-01    2.280000e+00
  TN1r TC6eq  1 3.400000e-01    2.500000e+00
  TN1r TX1vq  1 3.400000e-01    2.020000e+00
  TN1r TX2vq  1 3.400000e-01    2.020000e+00
  TN1r TX3vq  1 3.400000e-01    2.280000e+00
  TN1r TX4vq  1 3.400000e-01    2.280000e+00
  TN1r TC1vq  1 3.400000e-01    1.510000e+00
  TN1r TC2vq  1 3.400000e-01    1.770000e+00
  TN1r TC3vq  1 3.400000e-01    2.020000e+00
  TN1r TC4vq  1 3.400000e-01    2.280000e+00
  TN1r TC5vq  1 3.400000e-01    2.280000e+00
  TN1r TC6vq  1 3.400000e-01    2.500000e+00
  TN1r TN1aq  1 3.400000e-01    2.280000e+00
  TN1r TN1dq  1 3.400000e-01    2.280000e+00
  TC6r TX1eq  1 3.400000e-01    2.280000e+00
  TC6r TX2eq  1 3.400000e-01    2.280000e+00
  TC6r TX3eq  1 3.400000e-01    2.280000e+00
  TC6r TX4eq  1 3.400000e-01    2.280000e+00
  TC6r TC1eq  1 3.400000e-01    1.510000e+00
  TC6r TC2eq  1 3.400000e-01    1.770000e+00
  TC6r TC3eq  1 3.400000e-01    2.020000e+00
  TC6r TC4eq  1 3.400000e-01    2.280000e+00
  TC6r TC5eq  1 3.400000e-01    2.280000e+00
  TC6r TC6eq  1 3.400000e-01    2.500000e+00
  TC6r TX1vq  1 3.400000e-01    2.280000e+00
  TC6r TX2vq  1 3.400000e-01    2.280000e+00
  TC6r TX3vq  1 3.400000e-01    2.280000e+00
  TC6r TX4vq  1 3.400000e-01    2.280000e+00
  TC6r TC1vq  1 3.400000e-01    1.510000e+00
  TC6r TC2vq  1 3.400000e-01    1.770000e+00
  TC6r TC3vq  1 3.400000e-01    2.020000e+00
  TC6r TC4vq  1 3.400000e-01    2.280000e+00
  TC6r TC5vq  1 3.400000e-01    2.280000e+00
  TC6r TC6vq  1 3.400000e-01    2.500000e+00
  TC5r TX1eq  1 3.400000e-01    2.280000e+00
  TC5r TX2eq  1 3.400000e-01    2.020000e+00
  TC5r TX3eq  1 3.400000e-01    2.020000e+00
  TC5r TX4eq  1 3.400000e-01    2.020000e+00
  TC5r TC1eq  1 3.400000e-01    1.770000e+00
  TC5r TC2eq  1 3.400000e-01    1.770000e+00
  TC5r TC3eq  1 3.400000e-01    2.020000e+00
  TC5r TC4eq  1 3.400000e-01    2.280000e+00
  TC5r TC5eq  1 3.400000e-01    2.280000e+00
  TC5r TX1vq  1 3.400000e-01    2.280000e+00
  TC5r TX2vq  1 3.400000e-01    2.020000e+00
  TC5r TX3vq  1 3.400000e-01    2.020000e+00
  TC5r TX4vq  1 3.400000e-01    2.020000e+00
  TC5r TC1vq  1 3.400000e-01    1.770000e+00
  TC5r TC2vq  1 3.400000e-01    1.770000e+00
  TC5r TC3vq  1 3.400000e-01    2.020000e+00
  TC5r TC4vq  1 3.400000e-01    2.280000e+00
  TC5r TC5vq  1 3.400000e-01    2.280000e+00
  TC4r TX1eq  1 3.400000e-01    2.280000e+00
  TC4r TX2eq  1 3.400000e-01    2.020000e+00
  TC4r TX3eq  1 3.400000e-01    2.020000e+00
  TC4r TX4eq  1 3.400000e-01    2.020000e+00
  TC4r TC1eq  1 3.400000e-01    1.770000e+00
  TC4r TC2eq  1 3.400000e-01    2.020000e+00
  TC4r TC3eq  1 3.400000e-01    2.280000e+00
  TC4r TC4eq  1 3.400000e-01    2.280000e+00
  TC4r TX1vq  1 3.400000e-01    2.280000e+00
  TC4r TX2vq  1 3.400000e-01    2.020000e+00
  TC4r TX3vq  1 3.400000e-01    2.020000e+00
  TC4r TX4vq  1 3.400000e-01    2.020000e+00
  TC4r TC1vq  1 3.400000e-01    1.770000e+00
  TC4r TC2vq  1 3.400000e-01    2.020000e+00
  TC4r TC3vq  1 3.400000e-01    2.280000e+00
  TC4r TC4vq  1 3.400000e-01    2.280000e+00
  TC3r TX1eq  1 3.400000e-01    2.280000e+00
  TC3r TX2eq  1 3.400000e-01    2.020000e+00
  TC3r TX3eq  1 3.400000e-01    2.020000e+00
  TC3r TX4eq  1 3.400000e-01    2.020000e+00
  TC3r TC1eq  1 3.400000e-01    2.280000e+00
  TC3r TC2eq  1 3.400000e-01    2.280000e+00
  TC3r TC3eq  1 3.400000e-01    2.280000e+00
  TC3r TX1vq  1 3.400000e-01    2.280000e+00
  TC3r TX2vq  1 3.400000e-01    2.020000e+00
  TC3r TX3vq  1 3.400000e-01    2.020000e+00
  TC3r TX4vq  1 3.400000e-01    2.020000e+00
  TC3r TC1vq  1 3.400000e-01    2.280000e+00
  TC3r TC2vq  1 3.400000e-01    2.280000e+00
  TC3r TC3vq  1 3.400000e-01    2.280000e+00
  TC2r TX1eq  1 3.400000e-01    2.020000e+00
  TC2r TX2eq  1 3.400000e-01    2.020000e+00
  TC2r TX3eq  1 3.400000e-01    2.020000e+00
  TC2r TX4eq  1 3.400000e-01    1.510000e+00
  TC2r TC1eq  1 3.400000e-01    2.500000e+00
  TC2r TC2eq  1 3.400000e-01    2.280000e+00
  TC2r TX1vq  1 3.400000e-01    2.020000e+00
  TC2r TX2vq  1 3.400000e-01    2.020000e+00
  TC2r TX3vq  1 3.400000e-01    2.020000e+00
  TC2r TX4vq  1 3.400000e-01    1.510000e+00
  TC2r TC1vq  1 3.400000e-01    2.500000e+00
  TC2r TC2vq  1 3.400000e-01    2.280000e+00
  TC1r TX1eq  1 3.400000e-01    2.020000e+00
  TC1r TX2eq  1 3.400000e-01    2.020000e+00
  TC1r TX3eq  1 3.400000e-01    2.020000e+00
  TC1r TX4eq  1 3.400000e-01    1.510000e+00
  TC1r TC1eq  1 3.400000e-01    2.280000e+00
  TC1r TX1vq  1 3.400000e-01    2.020000e+00
  TC1r TX2vq  1 3.400000e-01    2.020000e+00
  TC1r TX3vq  1 3.400000e-01    2.020000e+00
  TC1r TX4vq  1 3.400000e-01    1.510000e+00
  TC1r TC1vq  1 3.400000e-01    2.280000e+00
  TX4r TX1eq  1 3.400000e-01    2.280000e+00
  TX4r TX2eq  1 3.400000e-01    2.280000e+00
  TX4r TX3eq  1 3.400000e-01    2.280000e+00
  TX4r TX4eq  1 3.400000e-01    2.280000e+00
  TX4r TX1vq  1 3.400000e-01    2.280000e+00
  TX4r TX2vq  1 3.400000e-01    2.280000e+00
  TX4r TX3vq  1 3.400000e-01    2.280000e+00
  TX4r TX4vq  1 3.400000e-01    2.280000e+00
  TX3r TX1eq  1 3.400000e-01    2.500000e+00
  TX3r TX2eq  1 3.400000e-01    2.500000e+00
  TX3r TX3eq  1 3.400000e-01    2.280000e+00
  TX3r TX1vq  1 3.400000e-01    2.500000e+00
  TX3r TX2vq  1 3.400000e-01    2.500000e+00
  TX3r TX3vq  1 3.400000e-01    2.280000e+00
  TX2r TX1eq  1 3.400000e-01    2.500000e+00
  TX2r TX2eq  1 3.400000e-01    2.500000e+00
  TX2r TX1vq  1 3.400000e-01    2.500000e+00
  TX2r TX2vq  1 3.400000e-01    2.500000e+00
  TX1r TX1eq  1 3.400000e-01    2.740000e+00
  TX1r TX1vq  1 3.400000e-01    2.740000e+00
  TP6d TP6dr  1 3.400000e-01    3.220000e+00
  TP6q TP6dr  1 3.400000e-01    4.020000e+00
  TP5d TP5dr  1 3.400000e-01    2.740000e+00
  TP6q TP5dr  1 3.400000e-01    3.750000e+00
  TP5q TP5dr  1 3.400000e-01    3.470000e+00
  TP4d TP4dr  1 3.400000e-01    2.500000e+00
  TP6q TP4dr  1 3.400000e-01    3.470000e+00
  TP5q TP4dr  1 3.400000e-01    3.220000e+00
  TP4q TP4dr  1 3.400000e-01    3.220000e+00
  TP3d TP3dr  1 3.400000e-01    2.280000e+00
  TP6q TP3dr  1 3.400000e-01    3.220000e+00
  TP5q TP3dr  1 3.400000e-01    2.990000e+00
  TP4q TP3dr  1 3.400000e-01    2.990000e+00
  TP3q TP3dr  1 3.400000e-01    2.990000e+00
  TP2d TP2dr  1 3.400000e-01    2.280000e+00
  TP6q TP2dr  1 3.400000e-01    3.220000e+00
  TP5q TP2dr  1 3.400000e-01    2.990000e+00
  TP4q TP2dr  1 3.400000e-01    2.990000e+00
  TP3q TP2dr  1 3.400000e-01    2.990000e+00
  TP2q TP2dr  1 3.400000e-01    2.990000e+00
  TP1d TP1dr  1 3.400000e-01    2.020000e+00
  TP6q TP1dr  1 3.400000e-01    2.990000e+00
  TP5q TP1dr  1 3.400000e-01    2.740000e+00
  TP4q TP1dr  1 3.400000e-01    2.740000e+00
  TP3q TP1dr  1 3.400000e-01    2.740000e+00
  TP2q TP1dr  1 3.400000e-01    2.740000e+00
  TP1q TP1dr  1 3.400000e-01    2.740000e+00
  TN6d TN6dr  1 3.400000e-01    2.020000e+00
  TP6q TN6dr  1 3.400000e-01    2.740000e+00
  TP5q TN6dr  1 3.400000e-01    2.500000e+00
  TP4q TN6dr  1 3.400000e-01    2.500000e+00
  TP3q TN6dr  1 3.400000e-01    2.500000e+00
  TP2q TN6dr  1 3.400000e-01    2.740000e+00
  TP1q TN6dr  1 3.400000e-01    2.740000e+00
  TN6q TN6dr  1 3.400000e-01    2.740000e+00
  TN5d TN5dr  1 3.400000e-01    1.770000e+00
  TP6q TN5dr  1 3.400000e-01    2.280000e+00
  TP5q TN5dr  1 3.400000e-01    2.280000e+00
  TP4q TN5dr  1 3.400000e-01    2.280000e+00
  TP3q TN5dr  1 3.400000e-01    2.280000e+00
  TP2q TN5dr  1 3.400000e-01    2.500000e+00
  TP1q TN5dr  1 3.400000e-01    2.500000e+00
  TN6q TN5dr  1 3.400000e-01    2.740000e+00
  TN5q TN5dr  1 3.400000e-01    2.500000e+00
  TN4d TN4dr  1 3.400000e-01    1.770000e+00
  TP6q TN4dr  1 3.400000e-01    2.020000e+00
  TP5q TN4dr  1 3.400000e-01    2.280000e+00
  TP4q TN4dr  1 3.400000e-01    2.280000e+00
  TP3q TN4dr  1 3.400000e-01    2.280000e+00
  TP2q TN4dr  1 3.400000e-01    2.280000e+00
  TP1q TN4dr  1 3.400000e-01    2.500000e+00
  TN6q TN4dr  1 3.400000e-01    2.740000e+00
  TN5q TN4dr  1 3.400000e-01    2.500000e+00
  TN4q TN4dr  1 3.400000e-01    2.500000e+00
  TN3d TN3dr  1 3.400000e-01    1.510000e+00
  TP6q TN3dr  1 3.400000e-01    1.770000e+00
  TP5q TN3dr  1 3.400000e-01    1.770000e+00
  TP4q TN3dr  1 3.400000e-01    2.020000e+00
  TP3q TN3dr  1 3.400000e-01    2.020000e+00
  TP2q TN3dr  1 3.400000e-01    2.020000e+00
  TP1q TN3dr  1 3.400000e-01    2.020000e+00
  TN6q TN3dr  1 3.400000e-01    2.280000e+00
  TN5q TN3dr  1 3.400000e-01    2.280000e+00
  TN4q TN3dr  1 3.400000e-01    2.280000e+00
  TN3q TN3dr  1 3.400000e-01    2.280000e+00
  TN2d TN2dr  1 3.400000e-01    1.510000e+00
  TP6q TN2dr  1 3.400000e-01    1.510000e+00
  TP5q TN2dr  1 3.400000e-01    1.510000e+00
  TP4q TN2dr  1 3.400000e-01    1.770000e+00
  TP3q TN2dr  1 3.400000e-01    2.020000e+00
  TP2q TN2dr  1 3.400000e-01    2.020000e+00
  TP1q TN2dr  1 3.400000e-01    2.020000e+00
  TN6q TN2dr  1 3.400000e-01    2.020000e+00
  TN5q TN2dr  1 3.400000e-01    2.280000e+00
  TN4q TN2dr  1 3.400000e-01    2.280000e+00
  TN3q TN2dr  1 3.400000e-01    2.280000e+00
  TN2q TN2dr  1 3.400000e-01    2.280000e+00
  TN1d TN1dr  1 3.400000e-01    1.510000e+00
  TP6q TN1dr  1 3.400000e-01    1.230000e+00
  TP5q TN1dr  1 3.400000e-01    1.230000e+00
  TP4q TN1dr  1 3.400000e-01    1.510000e+00
  TP3q TN1dr  1 3.400000e-01    1.770000e+00
  TP2q TN1dr  1 3.400000e-01    2.020000e+00
  TP1q TN1dr  1 3.400000e-01    2.020000e+00
  TN6q TN1dr  1 3.400000e-01    2.020000e+00
  TN5q TN1dr  1 3.400000e-01    2.020000e+00
  TN4q TN1dr  1 3.400000e-01    2.020000e+00
  TN3q TN1dr  1 3.400000e-01    2.020000e+00
  TN2q TN1dr  1 3.400000e-01    2.020000e+00
  TN1q TN1dr  1 3.400000e-01    2.280000e+00
  TP6a TP6ar  1 3.400000e-01    3.220000e+00
  TP6q TP6ar  1 3.400000e-01    4.020000e+00
  TP5a TP5ar  1 3.400000e-01    2.740000e+00
  TP6q TP5ar  1 3.400000e-01    3.750000e+00
  TP5q TP5ar  1 3.400000e-01    3.470000e+00
  TP4a TP4ar  1 3.400000e-01    2.500000e+00
  TP6q TP4ar  1 3.400000e-01    3.470000e+00
  TP5q TP4ar  1 3.400000e-01    3.220000e+00
  TP4q TP4ar  1 3.400000e-01    3.220000e+00
  TP3a TP3ar  1 3.400000e-01    2.280000e+00
  TP6q TP3ar  1 3.400000e-01    3.220000e+00
  TP5q TP3ar  1 3.400000e-01    2.990000e+00
  TP4q TP3ar  1 3.400000e-01    2.990000e+00
  TP3q TP3ar  1 3.400000e-01    2.990000e+00
  TP2a TP2ar  1 3.400000e-01    2.280000e+00
  TP6q TP2ar  1 3.400000e-01    3.220000e+00
  TP5q TP2ar  1 3.400000e-01    2.990000e+00
  TP4q TP2ar  1 3.400000e-01    2.990000e+00
  TP3q TP2ar  1 3.400000e-01    2.990000e+00
  TP2q TP2ar  1 3.400000e-01    2.990000e+00
  TP1a TP1ar  1 3.400000e-01    2.020000e+00
  TP6q TP1ar  1 3.400000e-01    2.990000e+00
  TP5q TP1ar  1 3.400000e-01    2.740000e+00
  TP4q TP1ar  1 3.400000e-01    2.740000e+00
  TP3q TP1ar  1 3.400000e-01    2.740000e+00
  TP2q TP1ar  1 3.400000e-01    2.740000e+00
  TP1q TP1ar  1 3.400000e-01    2.740000e+00
  TN6a TN6ar  1 3.400000e-01    2.020000e+00
  TP6q TN6ar  1 3.400000e-01    2.740000e+00
  TP5q TN6ar  1 3.400000e-01    2.500000e+00
  TP4q TN6ar  1 3.400000e-01    2.500000e+00
  TP3q TN6ar  1 3.400000e-01    2.500000e+00
  TP2q TN6ar  1 3.400000e-01    2.740000e+00
  TP1q TN6ar  1 3.400000e-01    2.740000e+00
  TN6q TN6ar  1 3.400000e-01    2.740000e+00
  TN5a TN5ar  1 3.400000e-01    1.770000e+00
  TP6q TN5ar  1 3.400000e-01    2.280000e+00
  TP5q TN5ar  1 3.400000e-01    2.280000e+00
  TP4q TN5ar  1 3.400000e-01    2.280000e+00
  TP3q TN5ar  1 3.400000e-01    2.280000e+00
  TP2q TN5ar  1 3.400000e-01    2.500000e+00
  TP1q TN5ar  1 3.400000e-01    2.500000e+00
  TN6q TN5ar  1 3.400000e-01    2.740000e+00
  TN5q TN5ar  1 3.400000e-01    2.500000e+00
  TN4a TN4ar  1 3.400000e-01    1.770000e+00
  TP6q TN4ar  1 3.400000e-01    2.020000e+00
  TP5q TN4ar  1 3.400000e-01    2.280000e+00
  TP4q TN4ar  1 3.400000e-01    2.280000e+00
  TP3q TN4ar  1 3.400000e-01    2.280000e+00
  TP2q TN4ar  1 3.400000e-01    2.280000e+00
  TP1q TN4ar  1 3.400000e-01    2.500000e+00
  TN6q TN4ar  1 3.400000e-01    2.740000e+00
  TN5q TN4ar  1 3.400000e-01    2.500000e+00
  TN4q TN4ar  1 3.400000e-01    2.500000e+00
  TN3a TN3ar  1 3.400000e-01    1.510000e+00
  TP6q TN3ar  1 3.400000e-01    1.770000e+00
  TP5q TN3ar  1 3.400000e-01    1.770000e+00
  TP4q TN3ar  1 3.400000e-01    2.020000e+00
  TP3q TN3ar  1 3.400000e-01    2.020000e+00
  TP2q TN3ar  1 3.400000e-01    2.020000e+00
  TP1q TN3ar  1 3.400000e-01    2.020000e+00
  TN6q TN3ar  1 3.400000e-01    2.280000e+00
  TN5q TN3ar  1 3.400000e-01    2.280000e+00
  TN4q TN3ar  1 3.400000e-01    2.280000e+00
  TN3q TN3ar  1 3.400000e-01    2.280000e+00
  TN2a TN2ar  1 3.400000e-01    1.510000e+00
  TP6q TN2ar  1 3.400000e-01    1.510000e+00
  TP5q TN2ar  1 3.400000e-01    1.510000e+00
  TP4q TN2ar  1 3.400000e-01    1.770000e+00
  TP3q TN2ar  1 3.400000e-01    2.020000e+00
  TP2q TN2ar  1 3.400000e-01    2.020000e+00
  TP1q TN2ar  1 3.400000e-01    2.020000e+00
  TN6q TN2ar  1 3.400000e-01    2.020000e+00
  TN5q TN2ar  1 3.400000e-01    2.280000e+00
  TN4q TN2ar  1 3.400000e-01    2.280000e+00
  TN3q TN2ar  1 3.400000e-01    2.280000e+00
  TN2q TN2ar  1 3.400000e-01    2.280000e+00
  TN1a TN1ar  1 3.400000e-01    1.510000e+00
  TP6q TN1ar  1 3.400000e-01    1.230000e+00
  TP5q TN1ar  1 3.400000e-01    1.230000e+00
  TP4q TN1ar  1 3.400000e-01    1.510000e+00
  TP3q TN1ar  1 3.400000e-01    1.770000e+00
  TP2q TN1ar  1 3.400000e-01    2.020000e+00
  TP1q TN1ar  1 3.400000e-01    2.020000e+00
  TN6q TN1ar  1 3.400000e-01    2.020000e+00
  TN5q TN1ar  1 3.400000e-01    2.020000e+00
  TN4q TN1ar  1 3.400000e-01    2.020000e+00
  TN3q TN1ar  1 3.400000e-01    2.020000e+00
  TN2q TN1ar  1 3.400000e-01    2.020000e+00
  TN1q TN1ar  1 3.400000e-01    2.280000e+00
  TP6q TC6vr  1 3.400000e-01    1.510000e+00
  TP5q TC6vr  1 3.400000e-01    1.510000e+00
  TP4q TC6vr  1 3.400000e-01    1.770000e+00
  TP3q TC6vr  1 3.400000e-01    2.020000e+00
  TP2q TC6vr  1 3.400000e-01    2.020000e+00
  TP1q TC6vr  1 3.400000e-01    2.020000e+00
  TN6q TC6vr  1 3.400000e-01    2.280000e+00
  TN5q TC6vr  1 3.400000e-01    2.280000e+00
  TN4q TC6vr  1 3.400000e-01    2.280000e+00
  TN3q TC6vr  1 3.400000e-01    2.280000e+00
  TN2q TC6vr  1 3.400000e-01    2.280000e+00
  TN1q TC6vr  1 3.400000e-01    2.500000e+00
  TC6q TC6vr  1 3.400000e-01    2.500000e+00
  TP6q TC5vr  1 3.400000e-01    1.230000e+00
  TP5q TC5vr  1 3.400000e-01    1.510000e+00
  TP4q TC5vr  1 3.400000e-01    1.510000e+00
  TP3q TC5vr  1 3.400000e-01    1.770000e+00
  TP2q TC5vr  1 3.400000e-01    1.770000e+00
  TP1q TC5vr  1 3.400000e-01    1.770000e+00
  TN6q TC5vr  1 3.400000e-01    2.020000e+00
  TN5q TC5vr  1 3.400000e-01    2.020000e+00
  TN4q TC5vr  1 3.400000e-01    2.020000e+00
  TN3q TC5vr  1 3.400000e-01    2.020000e+00
  TN2q TC5vr  1 3.400000e-01    2.020000e+00
  TN1q TC5vr  1 3.400000e-01    2.280000e+00
  TC6q TC5vr  1 3.400000e-01    2.280000e+00
  TC5q TC5vr  1 3.400000e-01    2.280000e+00
  TP6q TC4vr  1 3.520000e-01    1.050000e+00
  TP5q TC4vr  1 3.400000e-01    1.230000e+00
  TP4q TC4vr  1 3.400000e-01    1.230000e+00
  TP3q TC4vr  1 3.400000e-01    1.510000e+00
  TP2q TC4vr  1 3.400000e-01    1.510000e+00
  TP1q TC4vr  1 3.400000e-01    1.510000e+00
  TN6q TC4vr  1 3.400000e-01    1.770000e+00
  TN5q TC4vr  1 3.400000e-01    1.770000e+00
  TN4q TC4vr  1 3.400000e-01    2.020000e+00
  TN3q TC4vr  1 3.400000e-01    2.020000e+00
  TN2q TC4vr  1 3.400000e-01    2.020000e+00
  TN1q TC4vr  1 3.400000e-01    2.280000e+00
  TC6q TC4vr  1 3.400000e-01    2.280000e+00
  TC5q TC4vr  1 3.400000e-01    2.280000e+00
  TC4q TC4vr  1 3.400000e-01    2.280000e+00
  TP6q TC3vr  1 3.660000e-01    9.350000e-01
  TP5q TC3vr  1 3.520000e-01    1.050000e+00
  TP4q TC3vr  1 3.520000e-01    1.050000e+00
  TP3q TC3vr  1 3.520000e-01    1.050000e+00
  TP2q TC3vr  1 3.400000e-01    1.230000e+00
  TP1q TC3vr  1 3.400000e-01    1.230000e+00
  TN6q TC3vr  1 3.400000e-01    1.510000e+00
  TN5q TC3vr  1 3.400000e-01    1.770000e+00
  TN4q TC3vr  1 3.400000e-01    1.770000e+00
  TN3q TC3vr  1 3.400000e-01    1.770000e+00
  TN2q TC3vr  1 3.400000e-01    2.020000e+00
  TN1q TC3vr  1 3.400000e-01    2.020000e+00
  TC6q TC3vr  1 3.400000e-01    2.020000e+00
  TC5q TC3vr  1 3.400000e-01    2.020000e+00
  TC4q TC3vr  1 3.400000e-01    2.280000e+00
  TC3q TC3vr  1 3.400000e-01    2.280000e+00
  TP6q TC2vr  1 3.660000e-01    9.350000e-01
  TP5q TC2vr  1 3.520000e-01    1.050000e+00
  TP4q TC2vr  1 3.520000e-01    1.050000e+00
  TP3q TC2vr  1 3.520000e-01    1.050000e+00
  TP2q TC2vr  1 3.400000e-01    1.230000e+00
  TP1q TC2vr  1 3.400000e-01    1.230000e+00
  TN6q TC2vr  1 3.400000e-01    1.510000e+00
  TN5q TC2vr  1 3.400000e-01    1.510000e+00
  TN4q TC2vr  1 3.400000e-01    1.510000e+00
  TN3q TC2vr  1 3.400000e-01    1.770000e+00
  TN2q TC2vr  1 3.400000e-01    1.770000e+00
  TN1q TC2vr  1 3.400000e-01    1.770000e+00
  TC6q TC2vr  1 3.400000e-01    1.770000e+00
  TC5q TC2vr  1 3.400000e-01    1.770000e+00
  TC4q TC2vr  1 3.400000e-01    2.020000e+00
  TC3q TC2vr  1 3.400000e-01    2.280000e+00
  TC2q TC2vr  1 3.400000e-01    2.280000e+00
  TP6q TC1vr  1 4.110000e-01    8.010000e-01
  TP5q TC1vr  1 3.660000e-01    9.350000e-01
  TP4q TC1vr  1 3.660000e-01    9.350000e-01
  TP3q TC1vr  1 3.660000e-01    9.350000e-01
  TP2q TC1vr  1 3.520000e-01    1.050000e+00
  TP1q TC1vr  1 3.520000e-01    1.050000e+00
  TN6q TC1vr  1 3.400000e-01    1.230000e+00
  TN5q TC1vr  1 3.400000e-01    1.230000e+00
  TN4q TC1vr  1 3.400000e-01    1.230000e+00
  TN3q TC1vr  1 3.400000e-01    1.510000e+00
  TN2q TC1vr  1 3.400000e-01    1.510000e+00
  TN1q TC1vr  1 3.400000e-01    1.510000e+00
  TC6q TC1vr  1 3.400000e-01    1.510000e+00
  TC5q TC1vr  1 3.400000e-01    1.770000e+00
  TC4q TC1vr  1 3.400000e-01    1.770000e+00
  TC3q TC1vr  1 3.400000e-01    2.280000e+00
  TC2q TC1vr  1 3.400000e-01    2.500000e+00
  TC1q TC1vr  1 3.400000e-01    2.280000e+00
  TP6q TX4vr  1 3.400000e-01    1.770000e+00
  TP5q TX4vr  1 3.400000e-01    2.020000e+00
  TP4q TX4vr  1 3.400000e-01    2.020000e+00
  TP3q TX4vr  1 3.400000e-01    2.020000e+00
  TP2q TX4vr  1 3.400000e-01    2.020000e+00
  TP1q TX4vr  1 3.400000e-01    2.020000e+00
  TN6q TX4vr  1 3.400000e-01    2.280000e+00
  TN5q TX4vr  1 3.400000e-01    2.500000e+00
  TN4q TX4vr  1 3.400000e-01    2.740000e+00
  TN3q TX4vr  1 3.400000e-01    2.500000e+00
  TN2q TX4vr  1 3.400000e-01    2.500000e+00
  TN1q TX4vr  1 3.400000e-01    2.280000e+00
  TC6q TX4vr  1 3.400000e-01    2.280000e+00
  TC5q TX4vr  1 3.400000e-01    2.020000e+00
  TC4q TX4vr  1 3.400000e-01    2.020000e+00
  TC3q TX4vr  1 3.400000e-01    2.020000e+00
  TC2q TX4vr  1 3.400000e-01    1.510000e+00
  TC1q TX4vr  1 3.400000e-01    1.510000e+00
  TX4q TX4vr  1 3.400000e-01    2.280000e+00
  TP6q TX3vr  1 3.400000e-01    1.770000e+00
  TP5q TX3vr  1 3.400000e-01    1.770000e+00
  TP4q TX3vr  1 3.400000e-01    1.770000e+00
  TP3q TX3vr  1 3.400000e-01    2.020000e+00
  TP2q TX3vr  1 3.400000e-01    2.020000e+00
  TP1q TX3vr  1 3.400000e-01    2.020000e+00
  TN6q TX3vr  1 3.400000e-01    2.020000e+00
  TN5q TX3vr  1 3.400000e-01    2.280000e+00
  TN4q TX3vr  1 3.400000e-01    2.500000e+00
  TN3q TX3vr  1 3.400000e-01    2.280000e+00
  TN2q TX3vr  1 3.400000e-01    2.280000e+00
  TN1q TX3vr  1 3.400000e-01    2.280000e+00
  TC6q TX3vr  1 3.400000e-01    2.280000e+00
  TC5q TX3vr  1 3.400000e-01    2.020000e+00
  TC4q TX3vr  1 3.400000e-01    2.020000e+00
  TC3q TX3vr  1 3.400000e-01    2.020000e+00
  TC2q TX3vr  1 3.400000e-01    2.020000e+00
  TC1q TX3vr  1 3.400000e-01    2.020000e+00
  TX4q TX3vr  1 3.400000e-01    2.280000e+00
  TX3q TX3vr  1 3.400000e-01    2.280000e+00
  TP6q TX2vr  1 3.400000e-01    1.510000e+00
  TP5q TX2vr  1 3.400000e-01    1.770000e+00
  TP4q TX2vr  1 3.400000e-01    1.770000e+00
  TP3q TX2vr  1 3.400000e-01    1.770000e+00
  TP2q TX2vr  1 3.400000e-01    1.770000e+00
  TP1q TX2vr  1 3.400000e-01    1.770000e+00
  TN6q TX2vr  1 3.400000e-01    1.770000e+00
  TN5q TX2vr  1 3.400000e-01    2.020000e+00
  TN4q TX2vr  1 3.400000e-01    2.020000e+00
  TN3q TX2vr  1 3.400000e-01    2.020000e+00
  TN2q TX2vr  1 3.400000e-01    2.020000e+00
  TN1q TX2vr  1 3.400000e-01    2.020000e+00
  TC6q TX2vr  1 3.400000e-01    2.280000e+00
  TC5q TX2vr  1 3.400000e-01    2.020000e+00
  TC4q TX2vr  1 3.400000e-01    2.020000e+00
  TC3q TX2vr  1 3.400000e-01    2.020000e+00
  TC2q TX2vr  1 3.400000e-01    2.020000e+00
  TC1q TX2vr  1 3.400000e-01    2.020000e+00
  TX4q TX2vr  1 3.400000e-01    2.280000e+00
  TX3q TX2vr  1 3.400000e-01    2.500000e+00
  TX2q TX2vr  1 3.400000e-01    2.500000e+00
  TP6q TX1vr  1 3.400000e-01    1.230000e+00
  TP5q TX1vr  1 3.400000e-01    1.230000e+00
  TP4q TX1vr  1 3.400000e-01    1.510000e+00
  TP3q TX1vr  1 3.400000e-01    1.510000e+00
  TP2q TX1vr  1 3.400000e-01    1.510000e+00
  TP1q TX1vr  1 3.400000e-01    1.510000e+00
  TN6q TX1vr  1 3.400000e-01    1.510000e+00
  TN5q TX1vr  1 3.400000e-01    1.770000e+00
  TN4q TX1vr  1 3.400000e-01    1.770000e+00
  TN3q TX1vr  1 3.400000e-01    2.020000e+00
  TN2q TX1vr  1 3.400000e-01    2.020000e+00
  TN1q TX1vr  1 3.400000e-01    2.020000e+00
  TC6q TX1vr  1 3.400000e-01    2.280000e+00
  TC5q TX1vr  1 3.400000e-01    2.280000e+00
  TC4q TX1vr  1 3.400000e-01    2.280000e+00
  TC3q TX1vr  1 3.400000e-01    2.280000e+00
  TC2q TX1vr  1 3.400000e-01    2.020000e+00
  TC1q TX1vr  1 3.400000e-01    2.020000e+00
  TX4q TX1vr  1 3.400000e-01    2.280000e+00
  TX3q TX1vr  1 3.400000e-01    2.500000e+00
  TX2q TX1vr  1 3.400000e-01    2.500000e+00
  TX1q TX1vr  1 3.400000e-01    2.740000e+00
  TP6q TC6er  1 3.400000e-01    1.510000e+00
  TP5q TC6er  1 3.400000e-01    1.510000e+00
  TP4q TC6er  1 3.400000e-01    1.770000e+00
  TP3q TC6er  1 3.400000e-01    2.020000e+00
  TP2q TC6er  1 3.400000e-01    2.020000e+00
  TP1q TC6er  1 3.400000e-01    2.020000e+00
  TN6q TC6er  1 3.400000e-01    2.280000e+00
  TN5q TC6er  1 3.400000e-01    2.280000e+00
  TN4q TC6er  1 3.400000e-01    2.280000e+00
  TN3q TC6er  1 3.400000e-01    2.280000e+00
  TN2q TC6er  1 3.400000e-01    2.280000e+00
  TN1q TC6er  1 3.400000e-01    2.500000e+00
  TC6q TC6er  1 3.400000e-01    2.500000e+00
  TP6q TC5er  1 3.400000e-01    1.230000e+00
  TP5q TC5er  1 3.400000e-01    1.510000e+00
  TP4q TC5er  1 3.400000e-01    1.510000e+00
  TP3q TC5er  1 3.400000e-01    1.770000e+00
  TP2q TC5er  1 3.400000e-01    1.770000e+00
  TP1q TC5er  1 3.400000e-01    1.770000e+00
  TN6q TC5er  1 3.400000e-01    2.020000e+00
  TN5q TC5er  1 3.400000e-01    2.020000e+00
  TN4q TC5er  1 3.400000e-01    2.020000e+00
  TN3q TC5er  1 3.400000e-01    2.020000e+00
  TN2q TC5er  1 3.400000e-01    2.020000e+00
  TN1q TC5er  1 3.400000e-01    2.280000e+00
  TC6q TC5er  1 3.400000e-01    2.280000e+00
  TC5q TC5er  1 3.400000e-01    2.280000e+00
  TP6q TC4er  1 3.520000e-01    1.050000e+00
  TP5q TC4er  1 3.400000e-01    1.230000e+00
  TP4q TC4er  1 3.400000e-01    1.230000e+00
  TP3q TC4er  1 3.400000e-01    1.510000e+00
  TP2q TC4er  1 3.400000e-01    1.510000e+00
  TP1q TC4er  1 3.400000e-01    1.510000e+00
  TN6q TC4er  1 3.400000e-01    1.770000e+00
  TN5q TC4er  1 3.400000e-01    1.770000e+00
  TN4q TC4er  1 3.400000e-01    2.020000e+00
  TN3q TC4er  1 3.400000e-01    2.020000e+00
  TN2q TC4er  1 3.400000e-01    2.020000e+00
  TN1q TC4er  1 3.400000e-01    2.280000e+00
  TC6q TC4er  1 3.400000e-01    2.280000e+00
  TC5q TC4er  1 3.400000e-01    2.280000e+00
  TC4q TC4er  1 3.400000e-01    2.280000e+00
  TP6q TC3er  1 3.660000e-01    9.350000e-01
  TP5q TC3er  1 3.520000e-01    1.050000e+00
  TP4q TC3er  1 3.520000e-01    1.050000e+00
  TP3q TC3er  1 3.520000e-01    1.050000e+00
  TP2q TC3er  1 3.400000e-01    1.230000e+00
  TP1q TC3er  1 3.400000e-01    1.230000e+00
  TN6q TC3er  1 3.400000e-01    1.510000e+00
  TN5q TC3er  1 3.400000e-01    1.770000e+00
  TN4q TC3er  1 3.400000e-01    1.770000e+00
  TN3q TC3er  1 3.400000e-01    1.770000e+00
  TN2q TC3er  1 3.400000e-01    2.020000e+00
  TN1q TC3er  1 3.400000e-01    2.020000e+00
  TC6q TC3er  1 3.400000e-01    2.020000e+00
  TC5q TC3er  1 3.400000e-01    2.020000e+00
  TC4q TC3er  1 3.400000e-01    2.280000e+00
  TC3q TC3er  1 3.400000e-01    2.280000e+00
  TP6q TC2er  1 3.660000e-01    9.350000e-01
  TP5q TC2er  1 3.520000e-01    1.050000e+00
  TP4q TC2er  1 3.520000e-01    1.050000e+00
  TP3q TC2er  1 3.520000e-01    1.050000e+00
  TP2q TC2er  1 3.400000e-01    1.230000e+00
  TP1q TC2er  1 3.400000e-01    1.230000e+00
  TN6q TC2er  1 3.400000e-01    1.510000e+00
  TN5q TC2er  1 3.400000e-01    1.510000e+00
  TN4q TC2er  1 3.400000e-01    1.510000e+00
  TN3q TC2er  1 3.400000e-01    1.770000e+00
  TN2q TC2er  1 3.400000e-01    1.770000e+00
  TN1q TC2er  1 3.400000e-01    1.770000e+00
  TC6q TC2er  1 3.400000e-01    1.770000e+00
  TC5q TC2er  1 3.400000e-01    1.770000e+00
  TC4q TC2er  1 3.400000e-01    2.020000e+00
  TC3q TC2er  1 3.400000e-01    2.280000e+00
  TC2q TC2er  1 3.400000e-01    2.280000e+00
  TP6q TC1er  1 4.110000e-01    8.010000e-01
  TP5q TC1er  1 3.660000e-01    9.350000e-01
  TP4q TC1er  1 3.660000e-01    9.350000e-01
  TP3q TC1er  1 3.660000e-01    9.350000e-01
  TP2q TC1er  1 3.520000e-01    1.050000e+00
  TP1q TC1er  1 3.520000e-01    1.050000e+00
  TN6q TC1er  1 3.400000e-01    1.230000e+00
  TN5q TC1er  1 3.400000e-01    1.230000e+00
  TN4q TC1er  1 3.400000e-01    1.230000e+00
  TN3q TC1er  1 3.400000e-01    1.510000e+00
  TN2q TC1er  1 3.400000e-01    1.510000e+00
  TN1q TC1er  1 3.400000e-01    1.510000e+00
  TC6q TC1er  1 3.400000e-01    1.510000e+00
  TC5q TC1er  1 3.400000e-01    1.770000e+00
  TC4q TC1er  1 3.400000e-01    1.770000e+00
  TC3q TC1er  1 3.400000e-01    2.280000e+00
  TC2q TC1er  1 3.400000e-01    2.500000e+00
  TC1q TC1er  1 3.400000e-01    2.280000e+00
  TP6q TX4er  1 3.400000e-01    1.770000e+00
  TP5q TX4er  1 3.400000e-01    2.020000e+00
  TP4q TX4er  1 3.400000e-01    2.020000e+00
  TP3q TX4er  1 3.400000e-01    2.020000e+00
  TP2q TX4er  1 3.400000e-01    2.020000e+00
  TP1q TX4er  1 3.400000e-01    2.020000e+00
  TN6q TX4er  1 3.400000e-01    2.280000e+00
  TN5q TX4er  1 3.400000e-01    2.500000e+00
  TN4q TX4er  1 3.400000e-01    2.740000e+00
  TN3q TX4er  1 3.400000e-01    2.500000e+00
  TN2q TX4er  1 3.400000e-01    2.500000e+00
  TN1q TX4er  1 3.400000e-01    2.280000e+00
  TC6q TX4er  1 3.400000e-01    2.280000e+00
  TC5q TX4er  1 3.400000e-01    2.020000e+00
  TC4q TX4er  1 3.400000e-01    2.020000e+00
  TC3q TX4er  1 3.400000e-01    2.020000e+00
  TC2q TX4er  1 3.400000e-01    1.510000e+00
  TC1q TX4er  1 3.400000e-01    1.510000e+00
  TX4q TX4er  1 3.400000e-01    2.280000e+00
  TP6q TX3er  1 3.400000e-01    1.770000e+00
  TP5q TX3er  1 3.400000e-01    1.770000e+00
  TP4q TX3er  1 3.400000e-01    1.770000e+00
  TP3q TX3er  1 3.400000e-01    2.020000e+00
  TP2q TX3er  1 3.400000e-01    2.020000e+00
  TP1q TX3er  1 3.400000e-01    2.020000e+00
  TN6q TX3er  1 3.400000e-01    2.020000e+00
  TN5q TX3er  1 3.400000e-01    2.280000e+00
  TN4q TX3er  1 3.400000e-01    2.500000e+00
  TN3q TX3er  1 3.400000e-01    2.280000e+00
  TN2q TX3er  1 3.400000e-01    2.280000e+00
  TN1q TX3er  1 3.400000e-01    2.280000e+00
  TC6q TX3er  1 3.400000e-01    2.280000e+00
  TC5q TX3er  1 3.400000e-01    2.020000e+00
  TC4q TX3er  1 3.400000e-01    2.020000e+00
  TC3q TX3er  1 3.400000e-01    2.020000e+00
  TC2q TX3er  1 3.400000e-01    2.020000e+00
  TC1q TX3er  1 3.400000e-01    2.020000e+00
  TX4q TX3er  1 3.400000e-01    2.280000e+00
  TX3q TX3er  1 3.400000e-01    2.280000e+00
  TP6q TX2er  1 3.400000e-01    1.510000e+00
  TP5q TX2er  1 3.400000e-01    1.770000e+00
  TP4q TX2er  1 3.400000e-01    1.770000e+00
  TP3q TX2er  1 3.400000e-01    1.770000e+00
  TP2q TX2er  1 3.400000e-01    1.770000e+00
  TP1q TX2er  1 3.400000e-01    1.770000e+00
  TN6q TX2er  1 3.400000e-01    1.770000e+00
  TN5q TX2er  1 3.400000e-01    2.020000e+00
  TN4q TX2er  1 3.400000e-01    2.020000e+00
  TN3q TX2er  1 3.400000e-01    2.020000e+00
  TN2q TX2er  1 3.400000e-01    2.020000e+00
  TN1q TX2er  1 3.400000e-01    2.020000e+00
  TC6q TX2er  1 3.400000e-01    2.280000e+00
  TC5q TX2er  1 3.400000e-01    2.020000e+00
  TC4q TX2er  1 3.400000e-01    2.020000e+00
  TC3q TX2er  1 3.400000e-01    2.020000e+00
  TC2q TX2er  1 3.400000e-01    2.020000e+00
  TC1q TX2er  1 3.400000e-01    2.020000e+00
  TX4q TX2er  1 3.400000e-01    2.280000e+00
  TX3q TX2er  1 3.400000e-01    2.500000e+00
  TX2q TX2er  1 3.400000e-01    2.500000e+00
  TP6q TX1er  1 3.400000e-01    1.230000e+00
  TP5q TX1er  1 3.400000e-01    1.230000e+00
  TP4q TX1er  1 3.400000e-01    1.510000e+00
  TP3q TX1er  1 3.400000e-01    1.510000e+00
  TP2q TX1er  1 3.400000e-01    1.510000e+00
  TP1q TX1er  1 3.400000e-01    1.510000e+00
  TN6q TX1er  1 3.400000e-01    1.510000e+00
  TN5q TX1er  1 3.400000e-01    1.770000e+00
  TN4q TX1er  1 3.400000e-01    1.770000e+00
  TN3q TX1er  1 3.400000e-01    2.020000e+00
  TN2q TX1er  1 3.400000e-01    2.020000e+00
  TN1q TX1er  1 3.400000e-01    2.020000e+00
  TC6q TX1er  1 3.400000e-01    2.280000e+00
  TC5q TX1er  1 3.400000e-01    2.280000e+00
  TC4q TX1er  1 3.400000e-01    2.280000e+00
  TC3q TX1er  1 3.400000e-01    2.280000e+00
  TC2q TX1er  1 3.400000e-01    2.020000e+00
  TC1q TX1er  1 3.400000e-01    2.020000e+00
  TX4q TX1er  1 3.400000e-01    2.280000e+00
  TX3q TX1er  1 3.400000e-01    2.500000e+00
  TX2q TX1er  1 3.400000e-01    2.500000e+00
  TX1q TX1er  1 3.400000e-01    2.740000e+00
  TP6a TN1ar  1 3.660000e-01    9.350000e-01
  TP5a TN1ar  1 3.660000e-01    9.350000e-01
  TP4a TN1ar  1 3.520000e-01    1.050000e+00
  TP3a TN1ar  1 3.400000e-01    1.230000e+00
  TP2a TN1ar  1 3.400000e-01    1.230000e+00
  TP1a TN1ar  1 3.400000e-01    1.230000e+00
  TN6a TN1ar  1 3.400000e-01    1.230000e+00
  TN5a TN1ar  1 3.400000e-01    1.230000e+00
  TN4a TN1ar  1 3.400000e-01    1.230000e+00
  TN3a TN1ar  1 3.400000e-01    1.230000e+00
  TN2a TN1ar  1 3.400000e-01    1.230000e+00
  TP6a TN2ar  1 3.520000e-01    1.050000e+00
  TP5a TN2ar  1 3.520000e-01    1.050000e+00
  TP4a TN2ar  1 3.400000e-01    1.230000e+00
  TP3a TN2ar  1 3.400000e-01    1.230000e+00
  TP2a TN2ar  1 3.400000e-01    1.230000e+00
  TP1a TN2ar  1 3.400000e-01    1.230000e+00
  TN6a TN2ar  1 3.400000e-01    1.230000e+00
  TN5a TN2ar  1 3.400000e-01    1.510000e+00
  TN4a TN2ar  1 3.400000e-01    1.510000e+00
  TN3a TN2ar  1 3.400000e-01    1.510000e+00
  TP6a TN3ar  1 3.400000e-01    1.230000e+00
  TP5a TN3ar  1 3.400000e-01    1.230000e+00
  TP4a TN3ar  1 3.400000e-01    1.230000e+00
  TP3a TN3ar  1 3.400000e-01    1.230000e+00
  TP2a TN3ar  1 3.400000e-01    1.230000e+00
  TP1a TN3ar  1 3.400000e-01    1.230000e+00
  TN6a TN3ar  1 3.400000e-01    1.510000e+00
  TN5a TN3ar  1 3.400000e-01    1.510000e+00
  TN4a TN3ar  1 3.400000e-01    1.510000e+00
  TP6a TN4ar  1 3.400000e-01    1.230000e+00
  TP5a TN4ar  1 3.400000e-01    1.510000e+00
  TP4a TN4ar  1 3.400000e-01    1.510000e+00
  TP3a TN4ar  1 3.400000e-01    1.510000e+00
  TP2a TN4ar  1 3.400000e-01    1.510000e+00
  TP1a TN4ar  1 3.400000e-01    1.770000e+00
  TN6a TN4ar  1 3.400000e-01    2.020000e+00
  TN5a TN4ar  1 3.400000e-01    1.770000e+00
  TP6a TN5ar  1 3.400000e-01    1.510000e+00
  TP5a TN5ar  1 3.400000e-01    1.510000e+00
  TP4a TN5ar  1 3.400000e-01    1.510000e+00
  TP3a TN5ar  1 3.400000e-01    1.510000e+00
  TP2a TN5ar  1 3.400000e-01    1.770000e+00
  TP1a TN5ar  1 3.400000e-01    1.770000e+00
  TN6a TN5ar  1 3.400000e-01    2.020000e+00
  TP6a TN6ar  1 3.400000e-01    2.020000e+00
  TP5a TN6ar  1 3.400000e-01    1.770000e+00
  TP4a TN6ar  1 3.400000e-01    1.770000e+00
  TP3a TN6ar  1 3.400000e-01    1.770000e+00
  TP2a TN6ar  1 3.400000e-01    2.020000e+00
  TP1a TN6ar  1 3.400000e-01    2.020000e+00
  TP6a TP1ar  1 3.400000e-01    2.280000e+00
  TP5a TP1ar  1 3.400000e-01    2.020000e+00
  TP4a TP1ar  1 3.400000e-01    2.020000e+00
  TP3a TP1ar  1 3.400000e-01    2.020000e+00
  TP2a TP1ar  1 3.400000e-01    2.020000e+00
  TP6a TP2ar  1 3.400000e-01    2.500000e+00
  TP5a TP2ar  1 3.400000e-01    2.280000e+00
  TP4a TP2ar  1 3.400000e-01    2.280000e+00
  TP3a TP2ar  1 3.400000e-01    2.280000e+00
  TP6a TP3ar  1 3.400000e-01    2.500000e+00
  TP5a TP3ar  1 3.400000e-01    2.280000e+00
  TP4a TP3ar  1 3.400000e-01    2.280000e+00
  TP6a TP4ar  1 3.400000e-01    2.740000e+00
  TP5a TP4ar  1 3.400000e-01    2.500000e+00
  TP6a TP5ar  1 3.400000e-01    2.990000e+00
  TP6d TN1dr  1 3.660000e-01    9.350000e-01
  TP5d TN1dr  1 3.660000e-01    9.350000e-01
  TP4d TN1dr  1 3.520000e-01    1.050000e+00
  TP3d TN1dr  1 3.400000e-01    1.230000e+00
  TP2d TN1dr  1 3.400000e-01    1.230000e+00
  TP1d TN1dr  1 3.400000e-01    1.230000e+00
  TN6d TN1dr  1 3.400000e-01    1.230000e+00
  TN5d TN1dr  1 3.400000e-01    1.230000e+00
  TN4d TN1dr  1 3.400000e-01    1.230000e+00
  TN3d TN1dr  1 3.400000e-01    1.230000e+00
  TN2d TN1dr  1 3.400000e-01    1.230000e+00
  TP6d TN2dr  1 3.520000e-01    1.050000e+00
  TP5d TN2dr  1 3.520000e-01    1.050000e+00
  TP4d TN2dr  1 3.400000e-01    1.230000e+00
  TP3d TN2dr  1 3.400000e-01    1.230000e+00
  TP2d TN2dr  1 3.400000e-01    1.230000e+00
  TP1d TN2dr  1 3.400000e-01    1.230000e+00
  TN6d TN2dr  1 3.400000e-01    1.230000e+00
  TN5d TN2dr  1 3.400000e-01    1.510000e+00
  TN4d TN2dr  1 3.400000e-01    1.510000e+00
  TN3d TN2dr  1 3.400000e-01    1.510000e+00
  TP6d TN3dr  1 3.400000e-01    1.230000e+00
  TP5d TN3dr  1 3.400000e-01    1.230000e+00
  TP4d TN3dr  1 3.400000e-01    1.230000e+00
  TP3d TN3dr  1 3.400000e-01    1.230000e+00
  TP2d TN3dr  1 3.400000e-01    1.230000e+00
  TP1d TN3dr  1 3.400000e-01    1.230000e+00
  TN6d TN3dr  1 3.400000e-01    1.510000e+00
  TN5d TN3dr  1 3.400000e-01    1.510000e+00
  TN4d TN3dr  1 3.400000e-01    1.510000e+00
  TP6d TN4dr  1 3.400000e-01    1.230000e+00
  TP5d TN4dr  1 3.400000e-01    1.510000e+00
  TP4d TN4dr  1 3.400000e-01    1.510000e+00
  TP3d TN4dr  1 3.400000e-01    1.510000e+00
  TP2d TN4dr  1 3.400000e-01    1.510000e+00
  TP1d TN4dr  1 3.400000e-01    1.770000e+00
  TN6d TN4dr  1 3.400000e-01    2.020000e+00
  TN5d TN4dr  1 3.400000e-01    1.770000e+00
  TP6d TN5dr  1 3.400000e-01    1.510000e+00
  TP5d TN5dr  1 3.400000e-01    1.510000e+00
  TP4d TN5dr  1 3.400000e-01    1.510000e+00
  TP3d TN5dr  1 3.400000e-01    1.510000e+00
  TP2d TN5dr  1 3.400000e-01    1.770000e+00
  TP1d TN5dr  1 3.400000e-01    1.770000e+00
  TN6d TN5dr  1 3.400000e-01    2.020000e+00
  TP6d TN6dr  1 3.400000e-01    2.020000e+00
  TP5d TN6dr  1 3.400000e-01    1.770000e+00
  TP4d TN6dr  1 3.400000e-01    1.770000e+00
  TP3d TN6dr  1 3.400000e-01    1.770000e+00
  TP2d TN6dr  1 3.400000e-01    2.020000e+00
  TP1d TN6dr  1 3.400000e-01    2.020000e+00
  TP6d TP1dr  1 3.400000e-01    2.280000e+00
  TP5d TP1dr  1 3.400000e-01    2.020000e+00
  TP4d TP1dr  1 3.400000e-01    2.020000e+00
  TP3d TP1dr  1 3.400000e-01    2.020000e+00
  TP2d TP1dr  1 3.400000e-01    2.020000e+00
  TP6d TP2dr  1 3.400000e-01    2.500000e+00
  TP5d TP2dr  1 3.400000e-01    2.280000e+00
  TP4d TP2dr  1 3.400000e-01    2.280000e+00
  TP3d TP2dr  1 3.400000e-01    2.280000e+00
  TP6d TP3dr  1 3.400000e-01    2.500000e+00
  TP5d TP3dr  1 3.400000e-01    2.280000e+00
  TP4d TP3dr  1 3.400000e-01    2.280000e+00
  TP6d TP4dr  1 3.400000e-01    2.740000e+00
  TP5d TP4dr  1 3.400000e-01    2.500000e+00
  TP6d TP5dr  1 3.400000e-01    2.990000e+00
  TP6r TP6dr  1 3.400000e-01    3.220000e+00
  TP6r TP5dr  1 3.400000e-01    2.990000e+00
  TP6r TP4dr  1 3.400000e-01    2.740000e+00
  TP6r TP3dr  1 3.400000e-01    2.500000e+00
  TP6r TP2dr  1 3.400000e-01    2.500000e+00
  TP6r TP1dr  1 3.400000e-01    2.280000e+00
  TP6r TN6dr  1 3.400000e-01    2.020000e+00
  TP6r TN5dr  1 3.400000e-01    1.510000e+00
  TP6r TN4dr  1 3.400000e-01    1.230000e+00
  TP6r TN3dr  1 3.520000e-01    1.050000e+00
  TP6r TN2dr  1 3.660000e-01    9.350000e-01
  TP6r TN1dr  1 3.850000e-01    8.550000e-01
  TP6r TP6ar  1 3.400000e-01    3.220000e+00
  TP6r TP5ar  1 3.400000e-01    2.990000e+00
  TP6r TP4ar  1 3.400000e-01    2.740000e+00
  TP6r TP3ar  1 3.400000e-01    2.500000e+00
  TP6r TP2ar  1 3.400000e-01    2.500000e+00
  TP6r TP1ar  1 3.400000e-01    2.280000e+00
  TP6r TN6ar  1 3.400000e-01    2.020000e+00
  TP6r TN5ar  1 3.400000e-01    1.510000e+00
  TP6r TN4ar  1 3.400000e-01    1.230000e+00
  TP6r TN3ar  1 3.520000e-01    1.050000e+00
  TP6r TN2ar  1 3.660000e-01    9.350000e-01
  TP6r TN1ar  1 3.850000e-01    8.550000e-01
  TP5r TP5dr  1 3.400000e-01    2.740000e+00
  TP5r TP4dr  1 3.400000e-01    2.500000e+00
  TP5r TP3dr  1 3.400000e-01    2.280000e+00
  TP5r TP2dr  1 3.400000e-01    2.280000e+00
  TP5r TP1dr  1 3.400000e-01    2.020000e+00
  TP5r TN6dr  1 3.400000e-01    1.770000e+00
  TP5r TN5dr  1 3.400000e-01    1.510000e+00
  TP5r TN4dr  1 3.400000e-01    1.510000e+00
  TP5r TN3dr  1 3.520000e-01    1.050000e+00
  TP5r TN2dr  1 3.660000e-01    9.350000e-01
  TP5r TN1dr  1 3.850000e-01    8.550000e-01
  TP5r TP5ar  1 3.400000e-01    2.740000e+00
  TP5r TP4ar  1 3.400000e-01    2.500000e+00
  TP5r TP3ar  1 3.400000e-01    2.280000e+00
  TP5r TP2ar  1 3.400000e-01    2.280000e+00
  TP5r TP1ar  1 3.400000e-01    2.020000e+00
  TP5r TN6ar  1 3.400000e-01    1.770000e+00
  TP5r TN5ar  1 3.400000e-01    1.510000e+00
  TP5r TN4ar  1 3.400000e-01    1.510000e+00
  TP5r TN3ar  1 3.520000e-01    1.050000e+00
  TP5r TN2ar  1 3.660000e-01    9.350000e-01
  TP5r TN1ar  1 3.850000e-01    8.550000e-01
  TP4r TP4dr  1 3.400000e-01    2.500000e+00
  TP4r TP3dr  1 3.400000e-01    2.280000e+00
  TP4r TP2dr  1 3.400000e-01    2.280000e+00
  TP4r TP1dr  1 3.400000e-01    2.020000e+00
  TP4r TN6dr  1 3.400000e-01    1.770000e+00
  TP4r TN5dr  1 3.400000e-01    1.510000e+00
  TP4r TN4dr  1 3.400000e-01    1.510000e+00
  TP4r TN3dr  1 3.400000e-01    1.230000e+00
  TP4r TN2dr  1 3.520000e-01    1.050000e+00
  TP4r TN1dr  1 3.660000e-01    9.350000e-01
  TP4r TP4ar  1 3.400000e-01    2.500000e+00
  TP4r TP3ar  1 3.400000e-01    2.280000e+00
  TP4r TP2ar  1 3.400000e-01    2.280000e+00
  TP4r TP1ar  1 3.400000e-01    2.020000e+00
  TP4r TN6ar  1 3.400000e-01    1.770000e+00
  TP4r TN5ar  1 3.400000e-01    1.510000e+00
  TP4r TN4ar  1 3.400000e-01    1.510000e+00
  TP4r TN3ar  1 3.400000e-01    1.230000e+00
  TP4r TN2ar  1 3.520000e-01    1.050000e+00
  TP4r TN1ar  1 3.660000e-01    9.350000e-01
  TP3r TP3dr  1 3.400000e-01    2.280000e+00
  TP3r TP2dr  1 3.400000e-01    2.280000e+00
  TP3r TP1dr  1 3.400000e-01    2.020000e+00
  TP3r TN6dr  1 3.400000e-01    1.770000e+00
  TP3r TN5dr  1 3.400000e-01    1.510000e+00
  TP3r TN4dr  1 3.400000e-01    1.510000e+00
  TP3r TN3dr  1 3.400000e-01    1.230000e+00
  TP3r TN2dr  1 3.400000e-01    1.230000e+00
  TP3r TN1dr  1 3.520000e-01    1.050000e+00
  TP3r TP3ar  1 3.400000e-01    2.280000e+00
  TP3r TP2ar  1 3.400000e-01    2.280000e+00
  TP3r TP1ar  1 3.400000e-01    2.020000e+00
  TP3r TN6ar  1 3.400000e-01    1.770000e+00
  TP3r TN5ar  1 3.400000e-01    1.510000e+00
  TP3r TN4ar  1 3.400000e-01    1.510000e+00
  TP3r TN3ar  1 3.400000e-01    1.230000e+00
  TP3r TN2ar  1 3.400000e-01    1.230000e+00
  TP3r TN1ar  1 3.520000e-01    1.050000e+00
  TP2r TP2dr  1 3.400000e-01    2.280000e+00
  TP2r TP1dr  1 3.400000e-01    2.020000e+00
  TP2r TN6dr  1 3.400000e-01    2.020000e+00
  TP2r TN5dr  1 3.400000e-01    1.770000e+00
  TP2r TN4dr  1 3.400000e-01    1.510000e+00
  TP2r TN3dr  1 3.400000e-01    1.230000e+00
  TP2r TN2dr  1 3.400000e-01    1.230000e+00
  TP2r TN1dr  1 3.400000e-01    1.230000e+00
  TP2r TP2ar  1 3.400000e-01    2.280000e+00
  TP2r TP1ar  1 3.400000e-01    2.020000e+00
  TP2r TN6ar  1 3.400000e-01    2.020000e+00
  TP2r TN5ar  1 3.400000e-01    1.770000e+00
  TP2r TN4ar  1 3.400000e-01    1.510000e+00
  TP2r TN3ar  1 3.400000e-01    1.230000e+00
  TP2r TN2ar  1 3.400000e-01    1.230000e+00
  TP2r TN1ar  1 3.400000e-01    1.230000e+00
  TP1r TP1dr  1 3.400000e-01    2.020000e+00
  TP1r TN6dr  1 3.400000e-01    2.020000e+00
  TP1r TN5dr  1 3.400000e-01    1.770000e+00
  TP1r TN4dr  1 3.400000e-01    1.770000e+00
  TP1r TN3dr  1 3.400000e-01    1.230000e+00
  TP1r TN2dr  1 3.400000e-01    1.230000e+00
  TP1r TN1dr  1 3.400000e-01    1.230000e+00
  TP1r TP1ar  1 3.400000e-01    2.020000e+00
  TP1r TN6ar  1 3.400000e-01    2.020000e+00
  TP1r TN5ar  1 3.400000e-01    1.770000e+00
  TP1r TN4ar  1 3.400000e-01    1.770000e+00
  TP1r TN3ar  1 3.400000e-01    1.230000e+00
  TP1r TN2ar  1 3.400000e-01    1.230000e+00
  TP1r TN1ar  1 3.400000e-01    1.230000e+00
  TN6r TN6dr  1 3.400000e-01    2.020000e+00
  TN6r TN5dr  1 3.400000e-01    2.020000e+00
  TN6r TN4dr  1 3.400000e-01    2.020000e+00
  TN6r TN3dr  1 3.400000e-01    1.510000e+00
  TN6r TN2dr  1 3.400000e-01    1.230000e+00
  TN6r TN1dr  1 3.400000e-01    1.230000e+00
  TN6r TN6ar  1 3.400000e-01    2.020000e+00
  TN6r TN5ar  1 3.400000e-01    2.020000e+00
  TN6r TN4ar  1 3.400000e-01    2.020000e+00
  TN6r TN3ar  1 3.400000e-01    1.510000e+00
  TN6r TN2ar  1 3.400000e-01    1.230000e+00
  TN6r TN1ar  1 3.400000e-01    1.230000e+00
  TN5r TN5dr  1 3.400000e-01    1.770000e+00
  TN5r TN4dr  1 3.400000e-01    1.770000e+00
  TN5r TN3dr  1 3.400000e-01    1.510000e+00
  TN5r TN2dr  1 3.400000e-01    1.510000e+00
  TN5r TN1dr  1 3.400000e-01    1.230000e+00
  TN5r TN5ar  1 3.400000e-01    1.770000e+00
  TN5r TN4ar  1 3.400000e-01    1.770000e+00
  TN5r TN3ar  1 3.400000e-01    1.510000e+00
  TN5r TN2ar  1 3.400000e-01    1.510000e+00
  TN5r TN1ar  1 3.400000e-01    1.230000e+00
  TN4r TN4dr  1 3.400000e-01    1.770000e+00
  TN4r TN3dr  1 3.400000e-01    1.510000e+00
  TN4r TN2dr  1 3.400000e-01    1.510000e+00
  TN4r TN1dr  1 3.400000e-01    1.230000e+00
  TN4r TN4ar  1 3.400000e-01    1.770000e+00
  TN4r TN3ar  1 3.400000e-01    1.510000e+00
  TN4r TN2ar  1 3.400000e-01    1.510000e+00
  TN4r TN1ar  1 3.400000e-01    1.230000e+00
  TN3r TN3dr  1 3.400000e-01    1.510000e+00
  TN3r TN2dr  1 3.400000e-01    1.510000e+00
  TN3r TN1dr  1 3.400000e-01    1.230000e+00
  TN3r TN3ar  1 3.400000e-01    1.510000e+00
  TN3r TN2ar  1 3.400000e-01    1.510000e+00
  TN3r TN1ar  1 3.400000e-01    1.230000e+00
  TN2r TN2dr  1 3.400000e-01    1.510000e+00
  TN2r TN1dr  1 3.400000e-01    1.230000e+00
  TN2r TN2ar  1 3.400000e-01    1.510000e+00
  TN2r TN1ar  1 3.400000e-01    1.230000e+00
  TN1r TN1dr  1 3.400000e-01    1.510000e+00
  TN1r TN1ar  1 3.400000e-01    1.510000e+00
  TC6r TC6vr  1 3.400000e-01    1.770000e+00
  TC6r TC5vr  1 3.400000e-01    1.510000e+00
  TC6r TC4vr  1 3.400000e-01    1.510000e+00
  TC6r TC3vr  1 3.400000e-01    1.230000e+00
  TC6r TC2vr  1 3.520000e-01    1.050000e+00
  TC6r TC1vr  1 3.660000e-01    9.350000e-01
  TC6r TX4vr  1 3.400000e-01    1.510000e+00
  TC6r TX3vr  1 3.400000e-01    1.510000e+00
  TC6r TX2vr  1 3.400000e-01    1.510000e+00
  TC6r TX1vr  1 3.400000e-01    1.510000e+00
  TC6r TC6er  1 3.400000e-01    1.770000e+00
  TC6r TC5er  1 3.400000e-01    1.510000e+00
  TC6r TC4er  1 3.400000e-01    1.510000e+00
  TC6r TC3er  1 3.400000e-01    1.230000e+00
  TC6r TC2er  1 3.520000e-01    1.050000e+00
  TC6r TC1er  1 3.660000e-01    9.350000e-01
  TC6r TX4er  1 3.400000e-01    1.510000e+00
  TC6r TX3er  1 3.400000e-01    1.510000e+00
  TC6r TX2er  1 3.400000e-01    1.510000e+00
  TC6r TX1er  1 3.400000e-01    1.510000e+00
  TC5r TC5vr  1 3.400000e-01    1.510000e+00
  TC5r TC4vr  1 3.400000e-01    1.510000e+00
  TC5r TC3vr  1 3.400000e-01    1.230000e+00
  TC5r TC2vr  1 3.520000e-01    1.050000e+00
  TC5r TC1vr  1 3.520000e-01    1.050000e+00
  TC5r TX4vr  1 3.400000e-01    1.230000e+00
  TC5r TX3vr  1 3.400000e-01    1.230000e+00
  TC5r TX2vr  1 3.400000e-01    1.230000e+00
  TC5r TX1vr  1 3.400000e-01    1.510000e+00
  TC5r TC5er  1 3.400000e-01    1.510000e+00
  TC5r TC4er  1 3.400000e-01    1.510000e+00
  TC5r TC3er  1 3.400000e-01    1.230000e+00
  TC5r TC2er  1 3.520000e-01    1.050000e+00
  TC5r TC1er  1 3.520000e-01    1.050000e+00
  TC5r TX4er  1 3.400000e-01    1.230000e+00
  TC5r TX3er  1 3.400000e-01    1.230000e+00
  TC5r TX2er  1 3.400000e-01    1.230000e+00
  TC5r TX1er  1 3.400000e-01    1.510000e+00
  TC4r TC4vr  1 3.400000e-01    1.510000e+00
  TC4r TC3vr  1 3.400000e-01    1.510000e+00
  TC4r TC2vr  1 3.400000e-01    1.230000e+00
  TC4r TC1vr  1 3.520000e-01    1.050000e+00
  TC4r TX4vr  1 3.400000e-01    1.230000e+00
  TC4r TX3vr  1 3.400000e-01    1.230000e+00
  TC4r TX2vr  1 3.400000e-01    1.230000e+00
  TC4r TX1vr  1 3.400000e-01    1.510000e+00
  TC4r TC4er  1 3.400000e-01    1.510000e+00
  TC4r TC3er  1 3.400000e-01    1.510000e+00
  TC4r TC2er  1 3.400000e-01    1.230000e+00
  TC4r TC1er  1 3.520000e-01    1.050000e+00
  TC4r TX4er  1 3.400000e-01    1.230000e+00
  TC4r TX3er  1 3.400000e-01    1.230000e+00
  TC4r TX2er  1 3.400000e-01    1.230000e+00
  TC4r TX1er  1 3.400000e-01    1.510000e+00
  TC3r TC3vr  1 3.400000e-01    1.510000e+00
  TC3r TC2vr  1 3.400000e-01    1.510000e+00
  TC3r TC1vr  1 3.400000e-01    1.510000e+00
  TC3r TX4vr  1 3.400000e-01    1.230000e+00
  TC3r TX3vr  1 3.400000e-01    1.230000e+00
  TC3r TX2vr  1 3.400000e-01    1.230000e+00
  TC3r TX1vr  1 3.400000e-01    1.510000e+00
  TC3r TC3er  1 3.400000e-01    1.510000e+00
  TC3r TC2er  1 3.400000e-01    1.510000e+00
  TC3r TC1er  1 3.400000e-01    1.510000e+00
  TC3r TX4er  1 3.400000e-01    1.230000e+00
  TC3r TX3er  1 3.400000e-01    1.230000e+00
  TC3r TX2er  1 3.400000e-01    1.230000e+00
  TC3r TX1er  1 3.400000e-01    1.510000e+00
  TC2r TC2vr  1 3.400000e-01    1.510000e+00
  TC2r TC1vr  1 3.400000e-01    1.770000e+00
  TC2r TX4vr  1 3.660000e-01    9.350000e-01
  TC2r TX3vr  1 3.400000e-01    1.230000e+00
  TC2r TX2vr  1 3.400000e-01    1.230000e+00
  TC2r TX1vr  1 3.400000e-01    1.230000e+00
  TC2r TC2er  1 3.400000e-01    1.510000e+00
  TC2r TC1er  1 3.400000e-01    1.770000e+00
  TC2r TX4er  1 3.660000e-01    9.350000e-01
  TC2r TX3er  1 3.400000e-01    1.230000e+00
  TC2r TX2er  1 3.400000e-01    1.230000e+00
  TC2r TX1er  1 3.400000e-01    1.230000e+00
  TC1r TC1vr  1 3.400000e-01    1.510000e+00
  TC1r TX4vr  1 3.660000e-01    9.350000e-01
  TC1r TX3vr  1 3.400000e-01    1.230000e+00
  TC1r TX2vr  1 3.400000e-01    1.230000e+00
  TC1r TX1vr  1 3.400000e-01    1.230000e+00
  TC1r TC1er  1 3.400000e-01    1.510000e+00
  TC1r TX4er  1 3.660000e-01    9.350000e-01
  TC1r TX3er  1 3.400000e-01    1.230000e+00
  TC1r TX2er  1 3.400000e-01    1.230000e+00
  TC1r TX1er  1 3.400000e-01    1.230000e+00
  TX4r TX4vr  1 3.400000e-01    1.510000e+00
  TX4r TX3vr  1 3.400000e-01    1.510000e+00
  TX4r TX2vr  1 3.400000e-01    1.510000e+00
  TX4r TX1vr  1 3.400000e-01    1.510000e+00
  TX4r TX4er  1 3.400000e-01    1.510000e+00
  TX4r TX3er  1 3.400000e-01    1.510000e+00
  TX4r TX2er  1 3.400000e-01    1.510000e+00
  TX4r TX1er  1 3.400000e-01    1.510000e+00
  TX3r TX3vr  1 3.400000e-01    1.510000e+00
  TX3r TX2vr  1 3.400000e-01    1.770000e+00
  TX3r TX1vr  1 3.400000e-01    1.770000e+00
  TX3r TX3er  1 3.400000e-01    1.510000e+00
  TX3r TX2er  1 3.400000e-01    1.770000e+00
  TX3r TX1er  1 3.400000e-01    1.770000e+00
  TX2r TX2vr  1 3.400000e-01    1.770000e+00
  TX2r TX1vr  1 3.400000e-01    1.770000e+00
  TX2r TX2er  1 3.400000e-01    1.770000e+00
  TX2r TX1er  1 3.400000e-01    1.770000e+00
  TX1r TX1vr  1 3.400000e-01    2.020000e+00
  TX1r TX1er  1 3.400000e-01    2.020000e+00
  TP6r TC6vr  1 3.520000e-01    1.050000e+00
  TP6r TC5vr  1 3.660000e-01    9.350000e-01
  TP6r TC4vr  1 3.850000e-01    8.550000e-01
  TP6r TC3vr  1 4.110000e-01    8.010000e-01
  TP6r TC2vr  1 4.110000e-01    8.010000e-01
  TP6r TC1vr  1 4.380000e-01    7.310000e-01
  TP6r TX4vr  1 3.400000e-01    1.230000e+00
  TP6r TX3vr  1 3.400000e-01    1.230000e+00
  TP6r TX2vr  1 3.520000e-01    1.050000e+00
  TP6r TX1vr  1 3.660000e-01    9.350000e-01
  TP6r TC6er  1 3.520000e-01    1.050000e+00
  TP6r TC5er  1 3.660000e-01    9.350000e-01
  TP6r TC4er  1 3.850000e-01    8.550000e-01
  TP6r TC3er  1 4.110000e-01    8.010000e-01
  TP6r TC2er  1 4.110000e-01    8.010000e-01
  TP6r TC1er  1 4.380000e-01    7.310000e-01
  TP6r TX4er  1 3.400000e-01    1.230000e+00
  TP6r TX3er  1 3.400000e-01    1.230000e+00
  TP6r TX2er  1 3.520000e-01    1.050000e+00
  TP6r TX1er  1 3.660000e-01    9.350000e-01
  TP5r TC6vr  1 3.520000e-01    1.050000e+00
  TP5r TC5vr  1 3.520000e-01    1.050000e+00
  TP5r TC4vr  1 3.660000e-01    9.350000e-01
  TP5r TC3vr  1 3.850000e-01    8.550000e-01
  TP5r TC2vr  1 3.850000e-01    8.550000e-01
  TP5r TC1vr  1 4.110000e-01    8.010000e-01
  TP5r TX4vr  1 3.400000e-01    1.510000e+00
  TP5r TX3vr  1 3.400000e-01    1.230000e+00
  TP5r TX2vr  1 3.400000e-01    1.230000e+00
  TP5r TX1vr  1 3.660000e-01    9.350000e-01
  TP5r TC6er  1 3.520000e-01    1.050000e+00
  TP5r TC5er  1 3.520000e-01    1.050000e+00
  TP5r TC4er  1 3.660000e-01    9.350000e-01
  TP5r TC3er  1 3.850000e-01    8.550000e-01
  TP5r TC2er  1 3.850000e-01    8.550000e-01
  TP5r TC1er  1 4.110000e-01    8.010000e-01
  TP5r TX4er  1 3.400000e-01    1.510000e+00
  TP5r TX3er  1 3.400000e-01    1.230000e+00
  TP5r TX2er  1 3.400000e-01    1.230000e+00
  TP5r TX1er  1 3.660000e-01    9.350000e-01
  TP4r TC6vr  1 3.400000e-01    1.230000e+00
  TP4r TC5vr  1 3.520000e-01    1.050000e+00
  TP4r TC4vr  1 3.660000e-01    9.350000e-01
  TP4r TC3vr  1 3.850000e-01    8.550000e-01
  TP4r TC2vr  1 3.850000e-01    8.550000e-01
  TP4r TC1vr  1 4.110000e-01    8.010000e-01
  TP4r TX4vr  1 3.400000e-01    1.510000e+00
  TP4r TX3vr  1 3.400000e-01    1.230000e+00
  TP4r TX2vr  1 3.400000e-01    1.230000e+00
  TP4r TX1vr  1 3.520000e-01    1.050000e+00
  TP4r TC6er  1 3.400000e-01    1.230000e+00
  TP4r TC5er  1 3.520000e-01    1.050000e+00
  TP4r TC4er  1 3.660000e-01    9.350000e-01
  TP4r TC3er  1 3.850000e-01    8.550000e-01
  TP4r TC2er  1 3.850000e-01    8.550000e-01
  TP4r TC1er  1 4.110000e-01    8.010000e-01
  TP4r TX4er  1 3.400000e-01    1.510000e+00
  TP4r TX3er  1 3.400000e-01    1.230000e+00
  TP4r TX2er  1 3.400000e-01    1.230000e+00
  TP4r TX1er  1 3.520000e-01    1.050000e+00
  TP3r TC6vr  1 3.400000e-01    1.510000e+00
  TP3r TC5vr  1 3.400000e-01    1.230000e+00
  TP3r TC4vr  1 3.520000e-01    1.050000e+00
  TP3r TC3vr  1 3.850000e-01    8.550000e-01
  TP3r TC2vr  1 3.850000e-01    8.550000e-01
  TP3r TC1vr  1 4.110000e-01    8.010000e-01
  TP3r TX4vr  1 3.400000e-01    1.510000e+00
  TP3r TX3vr  1 3.400000e-01    1.510000e+00
  TP3r TX2vr  1 3.400000e-01    1.230000e+00
  TP3r TX1vr  1 3.520000e-01    1.050000e+00
  TP3r TC6er  1 3.400000e-01    1.510000e+00
  TP3r TC5er  1 3.400000e-01    1.230000e+00
  TP3r TC4er  1 3.520000e-01    1.050000e+00
  TP3r TC3er  1 3.850000e-01    8.550000e-01
  TP3r TC2er  1 3.850000e-01    8.550000e-01
  TP3r TC1er  1 4.110000e-01    8.010000e-01
  TP3r TX4er  1 3.400000e-01    1.510000e+00
  TP3r TX3er  1 3.400000e-01    1.510000e+00
  TP3r TX2er  1 3.400000e-01    1.230000e+00
  TP3r TX1er  1 3.520000e-01    1.050000e+00
  TP2r TC6vr  1 3.400000e-01    1.510000e+00
  TP2r TC5vr  1 3.400000e-01    1.230000e+00
  TP2r TC4vr  1 3.520000e-01    1.050000e+00
  TP2r TC3vr  1 3.660000e-01    9.350000e-01
  TP2r TC2vr  1 3.660000e-01    9.350000e-01
  TP2r TC1vr  1 3.850000e-01    8.550000e-01
  TP2r TX4vr  1 3.400000e-01    1.510000e+00
  TP2r TX3vr  1 3.400000e-01    1.510000e+00
  TP2r TX2vr  1 3.400000e-01    1.230000e+00
  TP2r TX1vr  1 3.520000e-01    1.050000e+00
  TP2r TC6er  1 3.400000e-01    1.510000e+00
  TP2r TC5er  1 3.400000e-01    1.230000e+00
  TP2r TC4er  1 3.520000e-01    1.050000e+00
  TP2r TC3er  1 3.660000e-01    9.350000e-01
  TP2r TC2er  1 3.660000e-01    9.350000e-01
  TP2r TC1er  1 3.850000e-01    8.550000e-01
  TP2r TX4er  1 3.400000e-01    1.510000e+00
  TP2r TX3er  1 3.400000e-01    1.510000e+00
  TP2r TX2er  1 3.400000e-01    1.230000e+00
  TP2r TX1er  1 3.520000e-01    1.050000e+00
  TP1r TC6vr  1 3.400000e-01    1.510000e+00
  TP1r TC5vr  1 3.400000e-01    1.230000e+00
  TP1r TC4vr  1 3.520000e-01    1.050000e+00
  TP1r TC3vr  1 3.660000e-01    9.350000e-01
  TP1r TC2vr  1 3.660000e-01    9.350000e-01
  TP1r TC1vr  1 3.850000e-01    8.550000e-01
  TP1r TX4vr  1 3.400000e-01    1.510000e+00
  TP1r TX3vr  1 3.400000e-01    1.510000e+00
  TP1r TX2vr  1 3.400000e-01    1.230000e+00
  TP1r TX1vr  1 3.520000e-01    1.050000e+00
  TP1r TC6er  1 3.400000e-01    1.510000e+00
  TP1r TC5er  1 3.400000e-01    1.230000e+00
  TP1r TC4er  1 3.520000e-01    1.050000e+00
  TP1r TC3er  1 3.660000e-01    9.350000e-01
  TP1r TC2er  1 3.660000e-01    9.350000e-01
  TP1r TC1er  1 3.850000e-01    8.550000e-01
  TP1r TX4er  1 3.400000e-01    1.510000e+00
  TP1r TX3er  1 3.400000e-01    1.510000e+00
  TP1r TX2er  1 3.400000e-01    1.230000e+00
  TP1r TX1er  1 3.520000e-01    1.050000e+00
  TN6r TC6vr  1 3.400000e-01    1.770000e+00
  TN6r TC5vr  1 3.400000e-01    1.510000e+00
  TN6r TC4vr  1 3.400000e-01    1.230000e+00
  TN6r TC3vr  1 3.520000e-01    1.050000e+00
  TN6r TC2vr  1 3.520000e-01    1.050000e+00
  TN6r TC1vr  1 3.660000e-01    9.350000e-01
  TN6r TX4vr  1 3.400000e-01    1.770000e+00
  TN6r TX3vr  1 3.400000e-01    1.510000e+00
  TN6r TX2vr  1 3.400000e-01    1.230000e+00
  TN6r TX1vr  1 3.520000e-01    1.050000e+00
  TN6r TC6er  1 3.400000e-01    1.770000e+00
  TN6r TC5er  1 3.400000e-01    1.510000e+00
  TN6r TC4er  1 3.400000e-01    1.230000e+00
  TN6r TC3er  1 3.520000e-01    1.050000e+00
  TN6r TC2er  1 3.520000e-01    1.050000e+00
  TN6r TC1er  1 3.660000e-01    9.350000e-01
  TN6r TX4er  1 3.400000e-01    1.770000e+00
  TN6r TX3er  1 3.400000e-01    1.510000e+00
  TN6r TX2er  1 3.400000e-01    1.230000e+00
  TN6r TX1er  1 3.520000e-01    1.050000e+00
  TN5r TC6vr  1 3.400000e-01    1.770000e+00
  TN5r TC5vr  1 3.400000e-01    1.510000e+00
  TN5r TC4vr  1 3.400000e-01    1.230000e+00
  TN5r TC3vr  1 3.400000e-01    1.230000e+00
  TN5r TC2vr  1 3.520000e-01    1.050000e+00
  TN5r TC1vr  1 3.660000e-01    9.350000e-01
  TN5r TX4vr  1 3.400000e-01    2.020000e+00
  TN5r TX3vr  1 3.400000e-01    1.770000e+00
  TN5r TX2vr  1 3.400000e-01    1.510000e+00
  TN5r TX1vr  1 3.400000e-01    1.230000e+00
  TN5r TC6er  1 3.400000e-01    1.770000e+00
  TN5r TC5er  1 3.400000e-01    1.510000e+00
  TN5r TC4er  1 3.400000e-01    1.230000e+00
  TN5r TC3er  1 3.400000e-01    1.230000e+00
  TN5r TC2er  1 3.520000e-01    1.050000e+00
  TN5r TC1er  1 3.660000e-01    9.350000e-01
  TN5r TX4er  1 3.400000e-01    2.020000e+00
  TN5r TX3er  1 3.400000e-01    1.770000e+00
  TN5r TX2er  1 3.400000e-01    1.510000e+00
  TN5r TX1er  1 3.400000e-01    1.230000e+00
  TN4r TC6vr  1 3.400000e-01    1.770000e+00
  TN4r TC5vr  1 3.400000e-01    1.510000e+00
  TN4r TC4vr  1 3.400000e-01    1.510000e+00
  TN4r TC3vr  1 3.400000e-01    1.230000e+00
  TN4r TC2vr  1 3.520000e-01    1.050000e+00
  TN4r TC1vr  1 3.660000e-01    9.350000e-01
  TN4r TX4vr  1 3.400000e-01    2.280000e+00
  TN4r TX3vr  1 3.400000e-01    2.020000e+00
  TN4r TX2vr  1 3.400000e-01    1.510000e+00
  TN4r TX1vr  1 3.400000e-01    1.230000e+00
  TN4r TC6er  1 3.400000e-01    1.770000e+00
  TN4r TC5er  1 3.400000e-01    1.510000e+00
  TN4r TC4er  1 3.400000e-01    1.510000e+00
  TN4r TC3er  1 3.400000e-01    1.230000e+00
  TN4r TC2er  1 3.520000e-01    1.050000e+00
  TN4r TC1er  1 3.660000e-01    9.350000e-01
  TN4r TX4er  1 3.400000e-01    2.280000e+00
  TN4r TX3er  1 3.400000e-01    2.020000e+00
  TN4r TX2er  1 3.400000e-01    1.510000e+00
  TN4r TX1er  1 3.400000e-01    1.230000e+00
  TN3r TC6vr  1 3.400000e-01    1.770000e+00
  TN3r TC5vr  1 3.400000e-01    1.510000e+00
  TN3r TC4vr  1 3.400000e-01    1.510000e+00
  TN3r TC3vr  1 3.400000e-01    1.230000e+00
  TN3r TC2vr  1 3.400000e-01    1.230000e+00
  TN3r TC1vr  1 3.520000e-01    1.050000e+00
  TN3r TX4vr  1 3.400000e-01    2.020000e+00
  TN3r TX3vr  1 3.400000e-01    1.770000e+00
  TN3r TX2vr  1 3.400000e-01    1.510000e+00
  TN3r TX1vr  1 3.400000e-01    1.510000e+00
  TN3r TC6er  1 3.400000e-01    1.770000e+00
  TN3r TC5er  1 3.400000e-01    1.510000e+00
  TN3r TC4er  1 3.400000e-01    1.510000e+00
  TN3r TC3er  1 3.400000e-01    1.230000e+00
  TN3r TC2er  1 3.400000e-01    1.230000e+00
  TN3r TC1er  1 3.520000e-01    1.050000e+00
  TN3r TX4er  1 3.400000e-01    2.020000e+00
  TN3r TX3er  1 3.400000e-01    1.770000e+00
  TN3r TX2er  1 3.400000e-01    1.510000e+00
  TN3r TX1er  1 3.400000e-01    1.510000e+00
  TN2r TC6vr  1 3.400000e-01    1.770000e+00
  TN2r TC5vr  1 3.400000e-01    1.510000e+00
  TN2r TC4vr  1 3.400000e-01    1.510000e+00
  TN2r TC3vr  1 3.400000e-01    1.510000e+00
  TN2r TC2vr  1 3.400000e-01    1.230000e+00
  TN2r TC1vr  1 3.520000e-01    1.050000e+00
  TN2r TX4vr  1 3.400000e-01    2.020000e+00
  TN2r TX3vr  1 3.400000e-01    1.770000e+00
  TN2r TX2vr  1 3.400000e-01    1.510000e+00
  TN2r TX1vr  1 3.400000e-01    1.510000e+00
  TN2r TC6er  1 3.400000e-01    1.770000e+00
  TN2r TC5er  1 3.400000e-01    1.510000e+00
  TN2r TC4er  1 3.400000e-01    1.510000e+00
  TN2r TC3er  1 3.400000e-01    1.510000e+00
  TN2r TC2er  1 3.400000e-01    1.230000e+00
  TN2r TC1er  1 3.520000e-01    1.050000e+00
  TN2r TX4er  1 3.400000e-01    2.020000e+00
  TN2r TX3er  1 3.400000e-01    1.770000e+00
  TN2r TX2er  1 3.400000e-01    1.510000e+00
  TN2r TX1er  1 3.400000e-01    1.510000e+00
  TN1r TC6vr  1 3.400000e-01    2.020000e+00
  TN1r TC5vr  1 3.400000e-01    1.770000e+00
  TN1r TC4vr  1 3.400000e-01    1.770000e+00
  TN1r TC3vr  1 3.400000e-01    1.510000e+00
  TN1r TC2vr  1 3.400000e-01    1.230000e+00
  TN1r TC1vr  1 3.520000e-01    1.050000e+00
  TN1r TX4vr  1 3.400000e-01    1.770000e+00
  TN1r TX3vr  1 3.400000e-01    1.770000e+00
  TN1r TX2vr  1 3.400000e-01    1.510000e+00
  TN1r TX1vr  1 3.400000e-01    1.510000e+00
  TN1r TC6er  1 3.400000e-01    2.020000e+00
  TN1r TC5er  1 3.400000e-01    1.770000e+00
  TN1r TC4er  1 3.400000e-01    1.770000e+00
  TN1r TC3er  1 3.400000e-01    1.510000e+00
  TN1r TC2er  1 3.400000e-01    1.230000e+00
  TN1r TC1er  1 3.520000e-01    1.050000e+00
  TN1r TX4er  1 3.400000e-01    1.770000e+00
  TN1r TX3er  1 3.400000e-01    1.770000e+00
  TN1r TX2er  1 3.400000e-01    1.510000e+00
  TN1r TX1er  1 3.400000e-01    1.510000e+00
  TP6h TP6dh  1 3.400000e-01    3.750000e+00
  TP6h TP5dh  1 3.400000e-01    3.470000e+00
  TP6h TP4dh  1 3.400000e-01    3.220000e+00
  TP6h TP3dh  1 3.400000e-01    2.990000e+00
  TP6h TP2dh  1 3.400000e-01    2.990000e+00
  TP6h TP1dh  1 3.400000e-01    2.740000e+00
  TP6h TN6dh  1 3.400000e-01    2.500000e+00
  TP6h TN5dh  1 3.400000e-01    2.020000e+00
  TP6h TN4dh  1 3.400000e-01    1.770000e+00
  TP6h TN3dh  1 3.400000e-01    1.510000e+00
  TP6h TN2dh  1 3.400000e-01    1.230000e+00
  TP6h TN1dh  1 3.520000e-01    1.050000e+00
  TP6h TP6ah  1 3.400000e-01    3.750000e+00
  TP6h TP5ah  1 3.400000e-01    3.470000e+00
  TP6h TP4ah  1 3.400000e-01    3.220000e+00
  TP6h TP3ah  1 3.400000e-01    2.990000e+00
  TP6h TP2ah  1 3.400000e-01    2.990000e+00
  TP6h TP1ah  1 3.400000e-01    2.740000e+00
  TP6h TN6ah  1 3.400000e-01    2.500000e+00
  TP6h TN5ah  1 3.400000e-01    2.020000e+00
  TP6h TN4ah  1 3.400000e-01    1.770000e+00
  TP6h TN3ah  1 3.400000e-01    1.510000e+00
  TP6h TN2ah  1 3.400000e-01    1.230000e+00
  TP6h TN1ah  1 3.520000e-01    1.050000e+00
  TP5h TP5dh  1 3.400000e-01    3.220000e+00
  TP5h TP4dh  1 3.400000e-01    2.990000e+00
  TP5h TP3dh  1 3.400000e-01    2.740000e+00
  TP5h TP2dh  1 3.400000e-01    2.740000e+00
  TP5h TP1dh  1 3.400000e-01    2.500000e+00
  TP5h TN6dh  1 3.400000e-01    2.280000e+00
  TP5h TN5dh  1 3.400000e-01    2.020000e+00
  TP5h TN4dh  1 3.400000e-01    2.020000e+00
  TP5h TN3dh  1 3.400000e-01    1.510000e+00
  TP5h TN2dh  1 3.400000e-01    1.230000e+00
  TP5h TN1dh  1 3.520000e-01    1.050000e+00
  TP5h TP5ah  1 3.400000e-01    3.220000e+00
  TP5h TP4ah  1 3.400000e-01    2.990000e+00
  TP5h TP3ah  1 3.400000e-01    2.740000e+00
  TP5h TP2ah  1 3.400000e-01    2.740000e+00
  TP5h TP1ah  1 3.400000e-01    2.500000e+00
  TP5h TN6ah  1 3.400000e-01    2.280000e+00
  TP5h TN5ah  1 3.400000e-01    2.020000e+00
  TP5h TN4ah  1 3.400000e-01    2.020000e+00
  TP5h TN3ah  1 3.400000e-01    1.510000e+00
  TP5h TN2ah  1 3.400000e-01    1.230000e+00
  TP5h TN1ah  1 3.520000e-01    1.050000e+00
  TP4h TP4dh  1 3.400000e-01    2.990000e+00
  TP4h TP3dh  1 3.400000e-01    2.740000e+00
  TP4h TP2dh  1 3.400000e-01    2.740000e+00
  TP4h TP1dh  1 3.400000e-01    2.500000e+00
  TP4h TN6dh  1 3.400000e-01    2.280000e+00
  TP4h TN5dh  1 3.400000e-01    2.020000e+00
  TP4h TN4dh  1 3.400000e-01    2.020000e+00
  TP4h TN3dh  1 3.400000e-01    1.770000e+00
  TP4h TN2dh  1 3.400000e-01    1.510000e+00
  TP4h TN1dh  1 3.400000e-01    1.230000e+00
  TP4h TP4ah  1 3.400000e-01    2.990000e+00
  TP4h TP3ah  1 3.400000e-01    2.740000e+00
  TP4h TP2ah  1 3.400000e-01    2.740000e+00
  TP4h TP1ah  1 3.400000e-01    2.500000e+00
  TP4h TN6ah  1 3.400000e-01    2.280000e+00
  TP4h TN5ah  1 3.400000e-01    2.020000e+00
  TP4h TN4ah  1 3.400000e-01    2.020000e+00
  TP4h TN3ah  1 3.400000e-01    1.770000e+00
  TP4h TN2ah  1 3.400000e-01    1.510000e+00
  TP4h TN1ah  1 3.400000e-01    1.230000e+00
  TP3h TP3dh  1 3.400000e-01    2.740000e+00
  TP3h TP2dh  1 3.400000e-01    2.740000e+00
  TP3h TP1dh  1 3.400000e-01    2.500000e+00
  TP3h TN6dh  1 3.400000e-01    2.280000e+00
  TP3h TN5dh  1 3.400000e-01    2.020000e+00
  TP3h TN4dh  1 3.400000e-01    2.020000e+00
  TP3h TN3dh  1 3.400000e-01    1.770000e+00
  TP3h TN2dh  1 3.400000e-01    1.770000e+00
  TP3h TN1dh  1 3.400000e-01    1.510000e+00
  TP3h TP3ah  1 3.400000e-01    2.740000e+00
  TP3h TP2ah  1 3.400000e-01    2.740000e+00
  TP3h TP1ah  1 3.400000e-01    2.500000e+00
  TP3h TN6ah  1 3.400000e-01    2.280000e+00
  TP3h TN5ah  1 3.400000e-01    2.020000e+00
  TP3h TN4ah  1 3.400000e-01    2.020000e+00
  TP3h TN3ah  1 3.400000e-01    1.770000e+00
  TP3h TN2ah  1 3.400000e-01    1.770000e+00
  TP3h TN1ah  1 3.400000e-01    1.510000e+00
  TP2h TP2dh  1 3.400000e-01    2.740000e+00
  TP2h TP1dh  1 3.400000e-01    2.500000e+00
  TP2h TN6dh  1 3.400000e-01    2.500000e+00
  TP2h TN5dh  1 3.400000e-01    2.280000e+00
  TP2h TN4dh  1 3.400000e-01    2.020000e+00
  TP2h TN3dh  1 3.400000e-01    1.770000e+00
  TP2h TN2dh  1 3.400000e-01    1.770000e+00
  TP2h TN1dh  1 3.400000e-01    1.770000e+00
  TP2h TP2ah  1 3.400000e-01    2.740000e+00
  TP2h TP1ah  1 3.400000e-01    2.500000e+00
  TP2h TN6ah  1 3.400000e-01    2.500000e+00
  TP2h TN5ah  1 3.400000e-01    2.280000e+00
  TP2h TN4ah  1 3.400000e-01    2.020000e+00
  TP2h TN3ah  1 3.400000e-01    1.770000e+00
  TP2h TN2ah  1 3.400000e-01    1.770000e+00
  TP2h TN1ah  1 3.400000e-01    1.770000e+00
  TP1h TP1dh  1 3.400000e-01    2.500000e+00
  TP1h TN6dh  1 3.400000e-01    2.500000e+00
  TP1h TN5dh  1 3.400000e-01    2.280000e+00
  TP1h TN4dh  1 3.400000e-01    2.280000e+00
  TP1h TN3dh  1 3.400000e-01    1.770000e+00
  TP1h TN2dh  1 3.400000e-01    1.770000e+00
  TP1h TN1dh  1 3.400000e-01    1.770000e+00
  TP1h TP1ah  1 3.400000e-01    2.500000e+00
  TP1h TN6ah  1 3.400000e-01    2.500000e+00
  TP1h TN5ah  1 3.400000e-01    2.280000e+00
  TP1h TN4ah  1 3.400000e-01    2.280000e+00
  TP1h TN3ah  1 3.400000e-01    1.770000e+00
  TP1h TN2ah  1 3.400000e-01    1.770000e+00
  TP1h TN1ah  1 3.400000e-01    1.770000e+00
  TN6h TN6dh  1 3.400000e-01    2.500000e+00
  TN6h TN5dh  1 3.400000e-01    2.500000e+00
  TN6h TN4dh  1 3.400000e-01    2.500000e+00
  TN6h TN3dh  1 3.400000e-01    2.020000e+00
  TN6h TN2dh  1 3.400000e-01    1.770000e+00
  TN6h TN1dh  1 3.400000e-01    1.770000e+00
  TN6h TN6ah  1 3.400000e-01    2.500000e+00
  TN6h TN5ah  1 3.400000e-01    2.500000e+00
  TN6h TN4ah  1 3.400000e-01    2.500000e+00
  TN6h TN3ah  1 3.400000e-01    2.020000e+00
  TN6h TN2ah  1 3.400000e-01    1.770000e+00
  TN6h TN1ah  1 3.400000e-01    1.770000e+00
  TN5h TN5dh  1 3.400000e-01    2.280000e+00
  TN5h TN4dh  1 3.400000e-01    2.280000e+00
  TN5h TN3dh  1 3.400000e-01    2.020000e+00
  TN5h TN2dh  1 3.400000e-01    2.020000e+00
  TN5h TN1dh  1 3.400000e-01    1.770000e+00
  TN5h TN5ah  1 3.400000e-01    2.280000e+00
  TN5h TN4ah  1 3.400000e-01    2.280000e+00
  TN5h TN3ah  1 3.400000e-01    2.020000e+00
  TN5h TN2ah  1 3.400000e-01    2.020000e+00
  TN5h TN1ah  1 3.400000e-01    1.770000e+00
  TN4h TN4dh  1 3.400000e-01    2.280000e+00
  TN4h TN3dh  1 3.400000e-01    2.020000e+00
  TN4h TN2dh  1 3.400000e-01    2.020000e+00
  TN4h TN1dh  1 3.400000e-01    1.770000e+00
  TN4h TN4ah  1 3.400000e-01    2.280000e+00
  TN4h TN3ah  1 3.400000e-01    2.020000e+00
  TN4h TN2ah  1 3.400000e-01    2.020000e+00
  TN4h TN1ah  1 3.400000e-01    1.770000e+00
  TN3h TN3dh  1 3.400000e-01    2.020000e+00
  TN3h TN2dh  1 3.400000e-01    2.020000e+00
  TN3h TN1dh  1 3.400000e-01    1.770000e+00
  TN3h TN3ah  1 3.400000e-01    2.020000e+00
  TN3h TN2ah  1 3.400000e-01    2.020000e+00
  TN3h TN1ah  1 3.400000e-01    1.770000e+00
  TN2h TN2dh  1 3.400000e-01    2.020000e+00
  TN2h TN1dh  1 3.400000e-01    1.770000e+00
  TN2h TN2ah  1 3.400000e-01    2.020000e+00
  TN2h TN1ah  1 3.400000e-01    1.770000e+00
  TN1h TN1dh  1 3.400000e-01    2.020000e+00
  TN1h TN1ah  1 3.400000e-01    2.020000e+00
  TC6h TC6vh  1 3.400000e-01    2.280000e+00
  TC6h TC5vh  1 3.400000e-01    2.020000e+00
  TC6h TC4vh  1 3.400000e-01    2.020000e+00
  TC6h TC3vh  1 3.400000e-01    1.770000e+00
  TC6h TC2vh  1 3.400000e-01    1.510000e+00
  TC6h TC1vh  1 3.400000e-01    1.230000e+00
  TC6h TX4vh  1 3.400000e-01    2.020000e+00
  TC6h TX3vh  1 3.400000e-01    2.020000e+00
  TC6h TX2vh  1 3.400000e-01    2.020000e+00
  TC6h TX1vh  1 3.400000e-01    2.020000e+00
  TC6h TC6eh  1 3.400000e-01    2.280000e+00
  TC6h TC5eh  1 3.400000e-01    2.020000e+00
  TC6h TC4eh  1 3.400000e-01    2.020000e+00
  TC6h TC3eh  1 3.400000e-01    1.770000e+00
  TC6h TC2eh  1 3.400000e-01    1.510000e+00
  TC6h TC1eh  1 3.400000e-01    1.230000e+00
  TC6h TX4eh  1 3.400000e-01    2.020000e+00
  TC6h TX3eh  1 3.400000e-01    2.020000e+00
  TC6h TX2eh  1 3.400000e-01    2.020000e+00
  TC6h TX1eh  1 3.400000e-01    2.020000e+00
  TC5h TC5vh  1 3.400000e-01    2.020000e+00
  TC5h TC4vh  1 3.400000e-01    2.020000e+00
  TC5h TC3vh  1 3.400000e-01    1.770000e+00
  TC5h TC2vh  1 3.400000e-01    1.510000e+00
  TC5h TC1vh  1 3.400000e-01    1.510000e+00
  TC5h TX4vh  1 3.400000e-01    1.770000e+00
  TC5h TX3vh  1 3.400000e-01    1.770000e+00
  TC5h TX2vh  1 3.400000e-01    1.770000e+00
  TC5h TX1vh  1 3.400000e-01    2.020000e+00
  TC5h TC5eh  1 3.400000e-01    2.020000e+00
  TC5h TC4eh  1 3.400000e-01    2.020000e+00
  TC5h TC3eh  1 3.400000e-01    1.770000e+00
  TC5h TC2eh  1 3.400000e-01    1.510000e+00
  TC5h TC1eh  1 3.400000e-01    1.510000e+00
  TC5h TX4eh  1 3.400000e-01    1.770000e+00
  TC5h TX3eh  1 3.400000e-01    1.770000e+00
  TC5h TX2eh  1 3.400000e-01    1.770000e+00
  TC5h TX1eh  1 3.400000e-01    2.020000e+00
  TC4h TC4vh  1 3.400000e-01    2.020000e+00
  TC4h TC3vh  1 3.400000e-01    2.020000e+00
  TC4h TC2vh  1 3.400000e-01    1.770000e+00
  TC4h TC1vh  1 3.400000e-01    1.510000e+00
  TC4h TX4vh  1 3.400000e-01    1.770000e+00
  TC4h TX3vh  1 3.400000e-01    1.770000e+00
  TC4h TX2vh  1 3.400000e-01    1.770000e+00
  TC4h TX1vh  1 3.400000e-01    2.020000e+00
  TC4h TC4eh  1 3.400000e-01    2.020000e+00
  TC4h TC3eh  1 3.400000e-01    2.020000e+00
  TC4h TC2eh  1 3.400000e-01    1.770000e+00
  TC4h TC1eh  1 3.400000e-01    1.510000e+00
  TC4h TX4eh  1 3.400000e-01    1.770000e+00
  TC4h TX3eh  1 3.400000e-01    1.770000e+00
  TC4h TX2eh  1 3.400000e-01    1.770000e+00
  TC4h TX1eh  1 3.400000e-01    2.020000e+00
  TC3h TC3vh  1 3.400000e-01    2.020000e+00
  TC3h TC2vh  1 3.400000e-01    2.020000e+00
  TC3h TC1vh  1 3.400000e-01    2.020000e+00
  TC3h TX4vh  1 3.400000e-01    1.770000e+00
  TC3h TX3vh  1 3.400000e-01    1.770000e+00
  TC3h TX2vh  1 3.400000e-01    1.770000e+00
  TC3h TX1vh  1 3.400000e-01    2.020000e+00
  TC3h TC3eh  1 3.400000e-01    2.020000e+00
  TC3h TC2eh  1 3.400000e-01    2.020000e+00
  TC3h TC1eh  1 3.400000e-01    2.020000e+00
  TC3h TX4eh  1 3.400000e-01    1.770000e+00
  TC3h TX3eh  1 3.400000e-01    1.770000e+00
  TC3h TX2eh  1 3.400000e-01    1.770000e+00
  TC3h TX1eh  1 3.400000e-01    2.020000e+00
  TC2h TC2vh  1 3.400000e-01    2.020000e+00
  TC2h TC1vh  1 3.400000e-01    2.280000e+00
  TC2h TX4vh  1 3.400000e-01    1.230000e+00
  TC2h TX3vh  1 3.400000e-01    1.770000e+00
  TC2h TX2vh  1 3.400000e-01    1.770000e+00
  TC2h TX1vh  1 3.400000e-01    1.770000e+00
  TC2h TC2eh  1 3.400000e-01    2.020000e+00
  TC2h TC1eh  1 3.400000e-01    2.280000e+00
  TC2h TX4eh  1 3.400000e-01    1.230000e+00
  TC2h TX3eh  1 3.400000e-01    1.770000e+00
  TC2h TX2eh  1 3.400000e-01    1.770000e+00
  TC2h TX1eh  1 3.400000e-01    1.770000e+00
  TC1h TC1vh  1 3.400000e-01    2.020000e+00
  TC1h TX4vh  1 3.400000e-01    1.230000e+00
  TC1h TX3vh  1 3.400000e-01    1.770000e+00
  TC1h TX2vh  1 3.400000e-01    1.770000e+00
  TC1h TX1vh  1 3.400000e-01    1.770000e+00
  TC1h TC1eh  1 3.400000e-01    2.020000e+00
  TC1h TX4eh  1 3.400000e-01    1.230000e+00
  TC1h TX3eh  1 3.400000e-01    1.770000e+00
  TC1h TX2eh  1 3.400000e-01    1.770000e+00
  TC1h TX1eh  1 3.400000e-01    1.770000e+00
  TX4h TX4vh  1 3.400000e-01    2.020000e+00
  TX4h TX3vh  1 3.400000e-01    2.020000e+00
  TX4h TX2vh  1 3.400000e-01    2.020000e+00
  TX4h TX1vh  1 3.400000e-01    2.020000e+00
  TX4h TX4eh  1 3.400000e-01    2.020000e+00
  TX4h TX3eh  1 3.400000e-01    2.020000e+00
  TX4h TX2eh  1 3.400000e-01    2.020000e+00
  TX4h TX1eh  1 3.400000e-01    2.020000e+00
  TX3h TX3vh  1 3.400000e-01    2.020000e+00
  TX3h TX2vh  1 3.400000e-01    2.280000e+00
  TX3h TX1vh  1 3.400000e-01    2.280000e+00
  TX3h TX3eh  1 3.400000e-01    2.020000e+00
  TX3h TX2eh  1 3.400000e-01    2.280000e+00
  TX3h TX1eh  1 3.400000e-01    2.280000e+00
  TX2h TX2vh  1 3.400000e-01    2.280000e+00
  TX2h TX1vh  1 3.400000e-01    2.280000e+00
  TX2h TX2eh  1 3.400000e-01    2.280000e+00
  TX2h TX1eh  1 3.400000e-01    2.280000e+00
  TX1h TX1vh  1 3.400000e-01    2.500000e+00
  TX1h TX1eh  1 3.400000e-01    2.500000e+00
  TP6h TC6vh  1 3.520000e-01    1.050000e+00
  TP6h TC5vh  1 3.660000e-01    9.350000e-01
  TP6h TC4vh  1 3.850000e-01    8.550000e-01
  TP6h TC3vh  1 4.110000e-01    8.010000e-01
  TP6h TC2vh  1 4.110000e-01    8.010000e-01
  TP6h TC1vh  1 4.380000e-01    7.310000e-01
  TP6h TX4vh  1 3.400000e-01    1.230000e+00
  TP6h TX3vh  1 3.400000e-01    1.230000e+00
  TP6h TX2vh  1 3.520000e-01    1.050000e+00
  TP6h TX1vh  1 3.660000e-01    9.350000e-01
  TP6h TC6eh  1 3.520000e-01    1.050000e+00
  TP6h TC5eh  1 3.660000e-01    9.350000e-01
  TP6h TC4eh  1 3.850000e-01    8.550000e-01
  TP6h TC3eh  1 4.110000e-01    8.010000e-01
  TP6h TC2eh  1 4.110000e-01    8.010000e-01
  TP6h TC1eh  1 4.380000e-01    7.310000e-01
  TP6h TX4eh  1 3.400000e-01    1.230000e+00
  TP6h TX3eh  1 3.400000e-01    1.230000e+00
  TP6h TX2eh  1 3.520000e-01    1.050000e+00
  TP6h TX1eh  1 3.660000e-01    9.350000e-01
  TP5h TC6vh  1 3.520000e-01    1.050000e+00
  TP5h TC5vh  1 3.520000e-01    1.050000e+00
  TP5h TC4vh  1 3.660000e-01    9.350000e-01
  TP5h TC3vh  1 3.850000e-01    8.550000e-01
  TP5h TC2vh  1 3.850000e-01    8.550000e-01
  TP5h TC1vh  1 4.110000e-01    8.010000e-01
  TP5h TX4vh  1 3.400000e-01    1.510000e+00
  TP5h TX3vh  1 3.400000e-01    1.230000e+00
  TP5h TX2vh  1 3.400000e-01    1.230000e+00
  TP5h TX1vh  1 3.660000e-01    9.350000e-01
  TP5h TC6eh  1 3.520000e-01    1.050000e+00
  TP5h TC5eh  1 3.520000e-01    1.050000e+00
  TP5h TC4eh  1 3.660000e-01    9.350000e-01
  TP5h TC3eh  1 3.850000e-01    8.550000e-01
  TP5h TC2eh  1 3.850000e-01    8.550000e-01
  TP5h TC1eh  1 4.110000e-01    8.010000e-01
  TP5h TX4eh  1 3.400000e-01    1.510000e+00
  TP5h TX3eh  1 3.400000e-01    1.230000e+00
  TP5h TX2eh  1 3.400000e-01    1.230000e+00
  TP5h TX1eh  1 3.660000e-01    9.350000e-01
  TP4h TC6vh  1 3.400000e-01    1.230000e+00
  TP4h TC5vh  1 3.520000e-01    1.050000e+00
  TP4h TC4vh  1 3.660000e-01    9.350000e-01
  TP4h TC3vh  1 3.850000e-01    8.550000e-01
  TP4h TC2vh  1 3.850000e-01    8.550000e-01
  TP4h TC1vh  1 4.110000e-01    8.010000e-01
  TP4h TX4vh  1 3.400000e-01    1.510000e+00
  TP4h TX3vh  1 3.400000e-01    1.230000e+00
  TP4h TX2vh  1 3.400000e-01    1.230000e+00
  TP4h TX1vh  1 3.520000e-01    1.050000e+00
  TP4h TC6eh  1 3.400000e-01    1.230000e+00
  TP4h TC5eh  1 3.520000e-01    1.050000e+00
  TP4h TC4eh  1 3.660000e-01    9.350000e-01
  TP4h TC3eh  1 3.850000e-01    8.550000e-01
  TP4h TC2eh  1 3.850000e-01    8.550000e-01
  TP4h TC1eh  1 4.110000e-01    8.010000e-01
  TP4h TX4eh  1 3.400000e-01    1.510000e+00
  TP4h TX3eh  1 3.400000e-01    1.230000e+00
  TP4h TX2eh  1 3.400000e-01    1.230000e+00
  TP4h TX1eh  1 3.520000e-01    1.050000e+00
  TP3h TC6vh  1 3.400000e-01    1.510000e+00
  TP3h TC5vh  1 3.400000e-01    1.230000e+00
  TP3h TC4vh  1 3.520000e-01    1.050000e+00
  TP3h TC3vh  1 3.850000e-01    8.550000e-01
  TP3h TC2vh  1 3.850000e-01    8.550000e-01
  TP3h TC1vh  1 4.110000e-01    8.010000e-01
  TP3h TX4vh  1 3.400000e-01    1.510000e+00
  TP3h TX3vh  1 3.400000e-01    1.510000e+00
  TP3h TX2vh  1 3.400000e-01    1.230000e+00
  TP3h TX1vh  1 3.520000e-01    1.050000e+00
  TP3h TC6eh  1 3.400000e-01    1.510000e+00
  TP3h TC5eh  1 3.400000e-01    1.230000e+00
  TP3h TC4eh  1 3.520000e-01    1.050000e+00
  TP3h TC3eh  1 3.850000e-01    8.550000e-01
  TP3h TC2eh  1 3.850000e-01    8.550000e-01
  TP3h TC1eh  1 4.110000e-01    8.010000e-01
  TP3h TX4eh  1 3.400000e-01    1.510000e+00
  TP3h TX3eh  1 3.400000e-01    1.510000e+00
  TP3h TX2eh  1 3.400000e-01    1.230000e+00
  TP3h TX1eh  1 3.520000e-01    1.050000e+00
  TP2h TC6vh  1 3.400000e-01    1.510000e+00
  TP2h TC5vh  1 3.400000e-01    1.230000e+00
  TP2h TC4vh  1 3.520000e-01    1.050000e+00
  TP2h TC3vh  1 3.660000e-01    9.350000e-01
  TP2h TC2vh  1 3.660000e-01    9.350000e-01
  TP2h TC1vh  1 3.850000e-01    8.550000e-01
  TP2h TX4vh  1 3.400000e-01    1.510000e+00
  TP2h TX3vh  1 3.400000e-01    1.510000e+00
  TP2h TX2vh  1 3.400000e-01    1.230000e+00
  TP2h TX1vh  1 3.520000e-01    1.050000e+00
  TP2h TC6eh  1 3.400000e-01    1.510000e+00
  TP2h TC5eh  1 3.400000e-01    1.230000e+00
  TP2h TC4eh  1 3.520000e-01    1.050000e+00
  TP2h TC3eh  1 3.660000e-01    9.350000e-01
  TP2h TC2eh  1 3.660000e-01    9.350000e-01
  TP2h TC1eh  1 3.850000e-01    8.550000e-01
  TP2h TX4eh  1 3.400000e-01    1.510000e+00
  TP2h TX3eh  1 3.400000e-01    1.510000e+00
  TP2h TX2eh  1 3.400000e-01    1.230000e+00
  TP2h TX1eh  1 3.520000e-01    1.050000e+00
  TP1h TC6vh  1 3.400000e-01    1.510000e+00
  TP1h TC5vh  1 3.400000e-01    1.230000e+00
  TP1h TC4vh  1 3.520000e-01    1.050000e+00
  TP1h TC3vh  1 3.660000e-01    9.350000e-01
  TP1h TC2vh  1 3.660000e-01    9.350000e-01
  TP1h TC1vh  1 3.850000e-01    8.550000e-01
  TP1h TX4vh  1 3.400000e-01    1.510000e+00
  TP1h TX3vh  1 3.400000e-01    1.510000e+00
  TP1h TX2vh  1 3.400000e-01    1.230000e+00
  TP1h TX1vh  1 3.520000e-01    1.050000e+00
  TP1h TC6eh  1 3.400000e-01    1.510000e+00
  TP1h TC5eh  1 3.400000e-01    1.230000e+00
  TP1h TC4eh  1 3.520000e-01    1.050000e+00
  TP1h TC3eh  1 3.660000e-01    9.350000e-01
  TP1h TC2eh  1 3.660000e-01    9.350000e-01
  TP1h TC1eh  1 3.850000e-01    8.550000e-01
  TP1h TX4eh  1 3.400000e-01    1.510000e+00
  TP1h TX3eh  1 3.400000e-01    1.510000e+00
  TP1h TX2eh  1 3.400000e-01    1.230000e+00
  TP1h TX1eh  1 3.520000e-01    1.050000e+00
  TN6h TC6vh  1 3.400000e-01    1.770000e+00
  TN6h TC5vh  1 3.400000e-01    1.510000e+00
  TN6h TC4vh  1 3.400000e-01    1.230000e+00
  TN6h TC3vh  1 3.520000e-01    1.050000e+00
  TN6h TC2vh  1 3.520000e-01    1.050000e+00
  TN6h TC1vh  1 3.660000e-01    9.350000e-01
  TN6h TX4vh  1 3.400000e-01    1.770000e+00
  TN6h TX3vh  1 3.400000e-01    1.510000e+00
  TN6h TX2vh  1 3.400000e-01    1.230000e+00
  TN6h TX1vh  1 3.520000e-01    1.050000e+00
  TN6h TC6eh  1 3.400000e-01    1.770000e+00
  TN6h TC5eh  1 3.400000e-01    1.510000e+00
  TN6h TC4eh  1 3.400000e-01    1.230000e+00
  TN6h TC3eh  1 3.520000e-01    1.050000e+00
  TN6h TC2eh  1 3.520000e-01    1.050000e+00
  TN6h TC1eh  1 3.660000e-01    9.350000e-01
  TN6h TX4eh  1 3.400000e-01    1.770000e+00
  TN6h TX3eh  1 3.400000e-01    1.510000e+00
  TN6h TX2eh  1 3.400000e-01    1.230000e+00
  TN6h TX1eh  1 3.520000e-01    1.050000e+00
  TN5h TC6vh  1 3.400000e-01    1.770000e+00
  TN5h TC5vh  1 3.400000e-01    1.510000e+00
  TN5h TC4vh  1 3.400000e-01    1.230000e+00
  TN5h TC3vh  1 3.400000e-01    1.230000e+00
  TN5h TC2vh  1 3.520000e-01    1.050000e+00
  TN5h TC1vh  1 3.660000e-01    9.350000e-01
  TN5h TX4vh  1 3.400000e-01    2.020000e+00
  TN5h TX3vh  1 3.400000e-01    1.770000e+00
  TN5h TX2vh  1 3.400000e-01    1.510000e+00
  TN5h TX1vh  1 3.400000e-01    1.230000e+00
  TN5h TC6eh  1 3.400000e-01    1.770000e+00
  TN5h TC5eh  1 3.400000e-01    1.510000e+00
  TN5h TC4eh  1 3.400000e-01    1.230000e+00
  TN5h TC3eh  1 3.400000e-01    1.230000e+00
  TN5h TC2eh  1 3.520000e-01    1.050000e+00
  TN5h TC1eh  1 3.660000e-01    9.350000e-01
  TN5h TX4eh  1 3.400000e-01    2.020000e+00
  TN5h TX3eh  1 3.400000e-01    1.770000e+00
  TN5h TX2eh  1 3.400000e-01    1.510000e+00
  TN5h TX1eh  1 3.400000e-01    1.230000e+00
  TN4h TC6vh  1 3.400000e-01    1.770000e+00
  TN4h TC5vh  1 3.400000e-01    1.510000e+00
  TN4h TC4vh  1 3.400000e-01    1.510000e+00
  TN4h TC3vh  1 3.400000e-01    1.230000e+00
  TN4h TC2vh  1 3.520000e-01    1.050000e+00
  TN4h TC1vh  1 3.660000e-01    9.350000e-01
  TN4h TX4vh  1 3.400000e-01    2.280000e+00
  TN4h TX3vh  1 3.400000e-01    2.020000e+00
  TN4h TX2vh  1 3.400000e-01    1.510000e+00
  TN4h TX1vh  1 3.400000e-01    1.230000e+00
  TN4h TC6eh  1 3.400000e-01    1.770000e+00
  TN4h TC5eh  1 3.400000e-01    1.510000e+00
  TN4h TC4eh  1 3.400000e-01    1.510000e+00
  TN4h TC3eh  1 3.400000e-01    1.230000e+00
  TN4h TC2eh  1 3.520000e-01    1.050000e+00
  TN4h TC1eh  1 3.660000e-01    9.350000e-01
  TN4h TX4eh  1 3.400000e-01    2.280000e+00
  TN4h TX3eh  1 3.400000e-01    2.020000e+00
  TN4h TX2eh  1 3.400000e-01    1.510000e+00
  TN4h TX1eh  1 3.400000e-01    1.230000e+00
  TN3h TC6vh  1 3.400000e-01    1.770000e+00
  TN3h TC5vh  1 3.400000e-01    1.510000e+00
  TN3h TC4vh  1 3.400000e-01    1.510000e+00
  TN3h TC3vh  1 3.400000e-01    1.230000e+00
  TN3h TC2vh  1 3.400000e-01    1.230000e+00
  TN3h TC1vh  1 3.520000e-01    1.050000e+00
  TN3h TX4vh  1 3.400000e-01    2.020000e+00
  TN3h TX3vh  1 3.400000e-01    1.770000e+00
  TN3h TX2vh  1 3.400000e-01    1.510000e+00
  TN3h TX1vh  1 3.400000e-01    1.510000e+00
  TN3h TC6eh  1 3.400000e-01    1.770000e+00
  TN3h TC5eh  1 3.400000e-01    1.510000e+00
  TN3h TC4eh  1 3.400000e-01    1.510000e+00
  TN3h TC3eh  1 3.400000e-01    1.230000e+00
  TN3h TC2eh  1 3.400000e-01    1.230000e+00
  TN3h TC1eh  1 3.520000e-01    1.050000e+00
  TN3h TX4eh  1 3.400000e-01    2.020000e+00
  TN3h TX3eh  1 3.400000e-01    1.770000e+00
  TN3h TX2eh  1 3.400000e-01    1.510000e+00
  TN3h TX1eh  1 3.400000e-01    1.510000e+00
  TN2h TC6vh  1 3.400000e-01    1.770000e+00
  TN2h TC5vh  1 3.400000e-01    1.510000e+00
  TN2h TC4vh  1 3.400000e-01    1.510000e+00
  TN2h TC3vh  1 3.400000e-01    1.510000e+00
  TN2h TC2vh  1 3.400000e-01    1.230000e+00
  TN2h TC1vh  1 3.520000e-01    1.050000e+00
  TN2h TX4vh  1 3.400000e-01    2.020000e+00
  TN2h TX3vh  1 3.400000e-01    1.770000e+00
  TN2h TX2vh  1 3.400000e-01    1.510000e+00
  TN2h TX1vh  1 3.400000e-01    1.510000e+00
  TN2h TC6eh  1 3.400000e-01    1.770000e+00
  TN2h TC5eh  1 3.400000e-01    1.510000e+00
  TN2h TC4eh  1 3.400000e-01    1.510000e+00
  TN2h TC3eh  1 3.400000e-01    1.510000e+00
  TN2h TC2eh  1 3.400000e-01    1.230000e+00
  TN2h TC1eh  1 3.520000e-01    1.050000e+00
  TN2h TX4eh  1 3.400000e-01    2.020000e+00
  TN2h TX3eh  1 3.400000e-01    1.770000e+00
  TN2h TX2eh  1 3.400000e-01    1.510000e+00
  TN2h TX1eh  1 3.400000e-01    1.510000e+00
  TN1h TC6vh  1 3.400000e-01    2.020000e+00
  TN1h TC5vh  1 3.400000e-01    1.770000e+00
  TN1h TC4vh  1 3.400000e-01    1.770000e+00
  TN1h TC3vh  1 3.400000e-01    1.510000e+00
  TN1h TC2vh  1 3.400000e-01    1.230000e+00
  TN1h TC1vh  1 3.520000e-01    1.050000e+00
  TN1h TX4vh  1 3.400000e-01    1.770000e+00
  TN1h TX3vh  1 3.400000e-01    1.770000e+00
  TN1h TX2vh  1 3.400000e-01    1.510000e+00
  TN1h TX1vh  1 3.400000e-01    1.510000e+00
  TN1h TC6eh  1 3.400000e-01    2.020000e+00
  TN1h TC5eh  1 3.400000e-01    1.770000e+00
  TN1h TC4eh  1 3.400000e-01    1.770000e+00
  TN1h TC3eh  1 3.400000e-01    1.510000e+00
  TN1h TC2eh  1 3.400000e-01    1.230000e+00
  TN1h TC1eh  1 3.520000e-01    1.050000e+00
  TN1h TX4eh  1 3.400000e-01    1.770000e+00
  TN1h TX3eh  1 3.400000e-01    1.770000e+00
  TN1h TX2eh  1 3.400000e-01    1.510000e+00
  TN1h TX1eh  1 3.400000e-01    1.510000e+00
  TP6h TP6dr  1 3.400000e-01    3.470000e+00
  TP6r TP6dh  1 3.400000e-01    3.470000e+00
  TP6h TP5dr  1 3.400000e-01    3.220000e+00
  TP6r TP5dh  1 3.400000e-01    3.220000e+00
  TP6h TP4dr  1 3.400000e-01    2.990000e+00
  TP6r TP4dh  1 3.400000e-01    2.990000e+00
  TP6h TP3dr  1 3.400000e-01    2.740000e+00
  TP6r TP3dh  1 3.400000e-01    2.740000e+00
  TP6h TP2dr  1 3.400000e-01    2.740000e+00
  TP6r TP2dh  1 3.400000e-01    2.740000e+00
  TP6h TP1dr  1 3.400000e-01    2.500000e+00
  TP6r TP1dh  1 3.400000e-01    2.500000e+00
  TP6h TN6dr  1 3.400000e-01    2.280000e+00
  TP6r TN6dh  1 3.400000e-01    2.280000e+00
  TP6h TN5dr  1 3.400000e-01    1.770000e+00
  TP6r TN5dh  1 3.400000e-01    1.770000e+00
  TP6h TN4dr  1 3.400000e-01    1.510000e+00
  TP6r TN4dh  1 3.400000e-01    1.510000e+00
  TP6h TN3dr  1 3.400000e-01    1.230000e+00
  TP6r TN3dh  1 3.400000e-01    1.230000e+00
  TP6h TN2dr  1 3.520000e-01    1.050000e+00
  TP6r TN2dh  1 3.520000e-01    1.050000e+00
  TP6h TN1dr  1 3.660000e-01    9.350000e-01
  TP6r TN1dh  1 3.660000e-01    9.350000e-01
  TP6h TP6ar  1 3.400000e-01    3.470000e+00
  TP6r TP6ah  1 3.400000e-01    3.470000e+00
  TP6h TP5ar  1 3.400000e-01    3.220000e+00
  TP6r TP5ah  1 3.400000e-01    3.220000e+00
  TP6h TP4ar  1 3.400000e-01    2.990000e+00
  TP6r TP4ah  1 3.400000e-01    2.990000e+00
  TP6h TP3ar  1 3.400000e-01    2.740000e+00
  TP6r TP3ah  1 3.400000e-01    2.740000e+00
  TP6h TP2ar  1 3.400000e-01    2.740000e+00
  TP6r TP2ah  1 3.400000e-01    2.740000e+00
  TP6h TP1ar  1 3.400000e-01    2.500000e+00
  TP6r TP1ah  1 3.400000e-01    2.500000e+00
  TP6h TN6ar  1 3.400000e-01    2.280000e+00
  TP6r TN6ah  1 3.400000e-01    2.280000e+00
  TP6h TN5ar  1 3.400000e-01    1.770000e+00
  TP6r TN5ah  1 3.400000e-01    1.770000e+00
  TP6h TN4ar  1 3.400000e-01    1.510000e+00
  TP6r TN4ah  1 3.400000e-01    1.510000e+00
  TP6h TN3ar  1 3.400000e-01    1.230000e+00
  TP6r TN3ah  1 3.400000e-01    1.230000e+00
  TP6h TN2ar  1 3.520000e-01    1.050000e+00
  TP6r TN2ah  1 3.520000e-01    1.050000e+00
  TP6h TN1ar  1 3.660000e-01    9.350000e-01
  TP6r TN1ah  1 3.660000e-01    9.350000e-01
  TP5h TP5dr  1 3.400000e-01    2.990000e+00
  TP5r TP5dh  1 3.400000e-01    2.990000e+00
  TP5h TP4dr  1 3.400000e-01    2.740000e+00
  TP5r TP4dh  1 3.400000e-01    2.740000e+00
  TP5h TP3dr  1 3.400000e-01    2.500000e+00
  TP5r TP3dh  1 3.400000e-01    2.500000e+00
  TP5h TP2dr  1 3.400000e-01    2.500000e+00
  TP5r TP2dh  1 3.400000e-01    2.500000e+00
  TP5h TP1dr  1 3.400000e-01    2.280000e+00
  TP5r TP1dh  1 3.400000e-01    2.280000e+00
  TP5h TN6dr  1 3.400000e-01    2.020000e+00
  TP5r TN6dh  1 3.400000e-01    2.020000e+00
  TP5h TN5dr  1 3.400000e-01    1.770000e+00
  TP5r TN5dh  1 3.400000e-01    1.770000e+00
  TP5h TN4dr  1 3.400000e-01    1.770000e+00
  TP5r TN4dh  1 3.400000e-01    1.770000e+00
  TP5h TN3dr  1 3.400000e-01    1.230000e+00
  TP5r TN3dh  1 3.400000e-01    1.230000e+00
  TP5h TN2dr  1 3.520000e-01    1.050000e+00
  TP5r TN2dh  1 3.520000e-01    1.050000e+00
  TP5h TN1dr  1 3.660000e-01    9.350000e-01
  TP5r TN1dh  1 3.660000e-01    9.350000e-01
  TP5h TP5ar  1 3.400000e-01    2.990000e+00
  TP5r TP5ah  1 3.400000e-01    2.990000e+00
  TP5h TP4ar  1 3.400000e-01    2.740000e+00
  TP5r TP4ah  1 3.400000e-01    2.740000e+00
  TP5h TP3ar  1 3.400000e-01    2.500000e+00
  TP5r TP3ah  1 3.400000e-01    2.500000e+00
  TP5h TP2ar  1 3.400000e-01    2.500000e+00
  TP5r TP2ah  1 3.400000e-01    2.500000e+00
  TP5h TP1ar  1 3.400000e-01    2.280000e+00
  TP5r TP1ah  1 3.400000e-01    2.280000e+00
  TP5h TN6ar  1 3.400000e-01    2.020000e+00
  TP5r TN6ah  1 3.400000e-01    2.020000e+00
  TP5h TN5ar  1 3.400000e-01    1.770000e+00
  TP5r TN5ah  1 3.400000e-01    1.770000e+00
  TP5h TN4ar  1 3.400000e-01    1.770000e+00
  TP5r TN4ah  1 3.400000e-01    1.770000e+00
  TP5h TN3ar  1 3.400000e-01    1.230000e+00
  TP5r TN3ah  1 3.400000e-01    1.230000e+00
  TP5h TN2ar  1 3.520000e-01    1.050000e+00
  TP5r TN2ah  1 3.520000e-01    1.050000e+00
  TP5h TN1ar  1 3.660000e-01    9.350000e-01
  TP5r TN1ah  1 3.660000e-01    9.350000e-01
  TP4h TP4dr  1 3.400000e-01    2.740000e+00
  TP4r TP4dh  1 3.400000e-01    2.740000e+00
  TP4h TP3dr  1 3.400000e-01    2.500000e+00
  TP4r TP3dh  1 3.400000e-01    2.500000e+00
  TP4h TP2dr  1 3.400000e-01    2.500000e+00
  TP4r TP2dh  1 3.400000e-01    2.500000e+00
  TP4h TP1dr  1 3.400000e-01    2.280000e+00
  TP4r TP1dh  1 3.400000e-01    2.280000e+00
  TP4h TN6dr  1 3.400000e-01    2.020000e+00
  TP4r TN6dh  1 3.400000e-01    2.020000e+00
  TP4h TN5dr  1 3.400000e-01    1.770000e+00
  TP4r TN5dh  1 3.400000e-01    1.770000e+00
  TP4h TN4dr  1 3.400000e-01    1.770000e+00
  TP4r TN4dh  1 3.400000e-01    1.770000e+00
  TP4h TN3dr  1 3.400000e-01    1.510000e+00
  TP4r TN3dh  1 3.400000e-01    1.510000e+00
  TP4h TN2dr  1 3.400000e-01    1.230000e+00
  TP4r TN2dh  1 3.400000e-01    1.230000e+00
  TP4h TN1dr  1 3.520000e-01    1.050000e+00
  TP4r TN1dh  1 3.520000e-01    1.050000e+00
  TP4h TP4ar  1 3.400000e-01    2.740000e+00
  TP4r TP4ah  1 3.400000e-01    2.740000e+00
  TP4h TP3ar  1 3.400000e-01    2.500000e+00
  TP4r TP3ah  1 3.400000e-01    2.500000e+00
  TP4h TP2ar  1 3.400000e-01    2.500000e+00
  TP4r TP2ah  1 3.400000e-01    2.500000e+00
  TP4h TP1ar  1 3.400000e-01    2.280000e+00
  TP4r TP1ah  1 3.400000e-01    2.280000e+00
  TP4h TN6ar  1 3.400000e-01    2.020000e+00
  TP4r TN6ah  1 3.400000e-01    2.020000e+00
  TP4h TN5ar  1 3.400000e-01    1.770000e+00
  TP4r TN5ah  1 3.400000e-01    1.770000e+00
  TP4h TN4ar  1 3.400000e-01    1.770000e+00
  TP4r TN4ah  1 3.400000e-01    1.770000e+00
  TP4h TN3ar  1 3.400000e-01    1.510000e+00
  TP4r TN3ah  1 3.400000e-01    1.510000e+00
  TP4h TN2ar  1 3.400000e-01    1.230000e+00
  TP4r TN2ah  1 3.400000e-01    1.230000e+00
  TP4h TN1ar  1 3.520000e-01    1.050000e+00
  TP4r TN1ah  1 3.520000e-01    1.050000e+00
  TP3h TP3dr  1 3.400000e-01    2.500000e+00
  TP3r TP3dh  1 3.400000e-01    2.500000e+00
  TP3h TP2dr  1 3.400000e-01    2.500000e+00
  TP3r TP2dh  1 3.400000e-01    2.500000e+00
  TP3h TP1dr  1 3.400000e-01    2.280000e+00
  TP3r TP1dh  1 3.400000e-01    2.280000e+00
  TP3h TN6dr  1 3.400000e-01    2.020000e+00
  TP3r TN6dh  1 3.400000e-01    2.020000e+00
  TP3h TN5dr  1 3.400000e-01    1.770000e+00
  TP3r TN5dh  1 3.400000e-01    1.770000e+00
  TP3h TN4dr  1 3.400000e-01    1.770000e+00
  TP3r TN4dh  1 3.400000e-01    1.770000e+00
  TP3h TN3dr  1 3.400000e-01    1.510000e+00
  TP3r TN3dh  1 3.400000e-01    1.510000e+00
  TP3h TN2dr  1 3.400000e-01    1.510000e+00
  TP3r TN2dh  1 3.400000e-01    1.510000e+00
  TP3h TN1dr  1 3.400000e-01    1.230000e+00
  TP3r TN1dh  1 3.400000e-01    1.230000e+00
  TP3h TP3ar  1 3.400000e-01    2.500000e+00
  TP3r TP3ah  1 3.400000e-01    2.500000e+00
  TP3h TP2ar  1 3.400000e-01    2.500000e+00
  TP3r TP2ah  1 3.400000e-01    2.500000e+00
  TP3h TP1ar  1 3.400000e-01    2.280000e+00
  TP3r TP1ah  1 3.400000e-01    2.280000e+00
  TP3h TN6ar  1 3.400000e-01    2.020000e+00
  TP3r TN6ah  1 3.400000e-01    2.020000e+00
  TP3h TN5ar  1 3.400000e-01    1.770000e+00
  TP3r TN5ah  1 3.400000e-01    1.770000e+00
  TP3h TN4ar  1 3.400000e-01    1.770000e+00
  TP3r TN4ah  1 3.400000e-01    1.770000e+00
  TP3h TN3ar  1 3.400000e-01    1.510000e+00
  TP3r TN3ah  1 3.400000e-01    1.510000e+00
  TP3h TN2ar  1 3.400000e-01    1.510000e+00
  TP3r TN2ah  1 3.400000e-01    1.510000e+00
  TP3h TN1ar  1 3.400000e-01    1.230000e+00
  TP3r TN1ah  1 3.400000e-01    1.230000e+00
  TP2h TP2dr  1 3.400000e-01    2.500000e+00
  TP2r TP2dh  1 3.400000e-01    2.500000e+00
  TP2h TP1dr  1 3.400000e-01    2.280000e+00
  TP2r TP1dh  1 3.400000e-01    2.280000e+00
  TP2h TN6dr  1 3.400000e-01    2.280000e+00
  TP2r TN6dh  1 3.400000e-01    2.280000e+00
  TP2h TN5dr  1 3.400000e-01    2.020000e+00
  TP2r TN5dh  1 3.400000e-01    2.020000e+00
  TP2h TN4dr  1 3.400000e-01    1.770000e+00
  TP2r TN4dh  1 3.400000e-01    1.770000e+00
  TP2h TN3dr  1 3.400000e-01    1.510000e+00
  TP2r TN3dh  1 3.400000e-01    1.510000e+00
  TP2h TN2dr  1 3.400000e-01    1.510000e+00
  TP2r TN2dh  1 3.400000e-01    1.510000e+00
  TP2h TN1dr  1 3.400000e-01    1.510000e+00
  TP2r TN1dh  1 3.400000e-01    1.510000e+00
  TP2h TP2ar  1 3.400000e-01    2.500000e+00
  TP2r TP2ah  1 3.400000e-01    2.500000e+00
  TP2h TP1ar  1 3.400000e-01    2.280000e+00
  TP2r TP1ah  1 3.400000e-01    2.280000e+00
  TP2h TN6ar  1 3.400000e-01    2.280000e+00
  TP2r TN6ah  1 3.400000e-01    2.280000e+00
  TP2h TN5ar  1 3.400000e-01    2.020000e+00
  TP2r TN5ah  1 3.400000e-01    2.020000e+00
  TP2h TN4ar  1 3.400000e-01    1.770000e+00
  TP2r TN4ah  1 3.400000e-01    1.770000e+00
  TP2h TN3ar  1 3.400000e-01    1.510000e+00
  TP2r TN3ah  1 3.400000e-01    1.510000e+00
  TP2h TN2ar  1 3.400000e-01    1.510000e+00
  TP2r TN2ah  1 3.400000e-01    1.510000e+00
  TP2h TN1ar  1 3.400000e-01    1.510000e+00
  TP2r TN1ah  1 3.400000e-01    1.510000e+00
  TP1h TP1dr  1 3.400000e-01    2.280000e+00
  TP1r TP1dh  1 3.400000e-01    2.280000e+00
  TP1h TN6dr  1 3.400000e-01    2.280000e+00
  TP1r TN6dh  1 3.400000e-01    2.280000e+00
  TP1h TN5dr  1 3.400000e-01    2.020000e+00
  TP1r TN5dh  1 3.400000e-01    2.020000e+00
  TP1h TN4dr  1 3.400000e-01    2.020000e+00
  TP1r TN4dh  1 3.400000e-01    2.020000e+00
  TP1h TN3dr  1 3.400000e-01    1.510000e+00
  TP1r TN3dh  1 3.400000e-01    1.510000e+00
  TP1h TN2dr  1 3.400000e-01    1.510000e+00
  TP1r TN2dh  1 3.400000e-01    1.510000e+00
  TP1h TN1dr  1 3.400000e-01    1.510000e+00
  TP1r TN1dh  1 3.400000e-01    1.510000e+00
  TP1h TP1ar  1 3.400000e-01    2.280000e+00
  TP1r TP1ah  1 3.400000e-01    2.280000e+00
  TP1h TN6ar  1 3.400000e-01    2.280000e+00
  TP1r TN6ah  1 3.400000e-01    2.280000e+00
  TP1h TN5ar  1 3.400000e-01    2.020000e+00
  TP1r TN5ah  1 3.400000e-01    2.020000e+00
  TP1h TN4ar  1 3.400000e-01    2.020000e+00
  TP1r TN4ah  1 3.400000e-01    2.020000e+00
  TP1h TN3ar  1 3.400000e-01    1.510000e+00
  TP1r TN3ah  1 3.400000e-01    1.510000e+00
  TP1h TN2ar  1 3.400000e-01    1.510000e+00
  TP1r TN2ah  1 3.400000e-01    1.510000e+00
  TP1h TN1ar  1 3.400000e-01    1.510000e+00
  TP1r TN1ah  1 3.400000e-01    1.510000e+00
  TN6h TN6dr  1 3.400000e-01    2.280000e+00
  TN6r TN6dh  1 3.400000e-01    2.280000e+00
  TN6h TN5dr  1 3.400000e-01    2.280000e+00
  TN6r TN5dh  1 3.400000e-01    2.280000e+00
  TN6h TN4dr  1 3.400000e-01    2.280000e+00
  TN6r TN4dh  1 3.400000e-01    2.280000e+00
  TN6h TN3dr  1 3.400000e-01    1.770000e+00
  TN6r TN3dh  1 3.400000e-01    1.770000e+00
  TN6h TN2dr  1 3.400000e-01    1.510000e+00
  TN6r TN2dh  1 3.400000e-01    1.510000e+00
  TN6h TN1dr  1 3.400000e-01    1.510000e+00
  TN6r TN1dh  1 3.400000e-01    1.510000e+00
  TN6h TN6ar  1 3.400000e-01    2.280000e+00
  TN6r TN6ah  1 3.400000e-01    2.280000e+00
  TN6h TN5ar  1 3.400000e-01    2.280000e+00
  TN6r TN5ah  1 3.400000e-01    2.280000e+00
  TN6h TN4ar  1 3.400000e-01    2.280000e+00
  TN6r TN4ah  1 3.400000e-01    2.280000e+00
  TN6h TN3ar  1 3.400000e-01    1.770000e+00
  TN6r TN3ah  1 3.400000e-01    1.770000e+00
  TN6h TN2ar  1 3.400000e-01    1.510000e+00
  TN6r TN2ah  1 3.400000e-01    1.510000e+00
  TN6h TN1ar  1 3.400000e-01    1.510000e+00
  TN6r TN1ah  1 3.400000e-01    1.510000e+00
  TN5h TN5dr  1 3.400000e-01    2.020000e+00
  TN5r TN5dh  1 3.400000e-01    2.020000e+00
  TN5h TN4dr  1 3.400000e-01    2.020000e+00
  TN5r TN4dh  1 3.400000e-01    2.020000e+00
  TN5h TN3dr  1 3.400000e-01    1.770000e+00
  TN5r TN3dh  1 3.400000e-01    1.770000e+00
  TN5h TN2dr  1 3.400000e-01    1.770000e+00
  TN5r TN2dh  1 3.400000e-01    1.770000e+00
  TN5h TN1dr  1 3.400000e-01    1.510000e+00
  TN5r TN1dh  1 3.400000e-01    1.510000e+00
  TN5h TN5ar  1 3.400000e-01    2.020000e+00
  TN5r TN5ah  1 3.400000e-01    2.020000e+00
  TN5h TN4ar  1 3.400000e-01    2.020000e+00
  TN5r TN4ah  1 3.400000e-01    2.020000e+00
  TN5h TN3ar  1 3.400000e-01    1.770000e+00
  TN5r TN3ah  1 3.400000e-01    1.770000e+00
  TN5h TN2ar  1 3.400000e-01    1.770000e+00
  TN5r TN2ah  1 3.400000e-01    1.770000e+00
  TN5h TN1ar  1 3.400000e-01    1.510000e+00
  TN5r TN1ah  1 3.400000e-01    1.510000e+00
  TN4h TN4dr  1 3.400000e-01    2.020000e+00
  TN4r TN4dh  1 3.400000e-01    2.020000e+00
  TN4h TN3dr  1 3.400000e-01    1.770000e+00
  TN4r TN3dh  1 3.400000e-01    1.770000e+00
  TN4h TN2dr  1 3.400000e-01    1.770000e+00
  TN4r TN2dh  1 3.400000e-01    1.770000e+00
  TN4h TN1dr  1 3.400000e-01    1.510000e+00
  TN4r TN1dh  1 3.400000e-01    1.510000e+00
  TN4h TN4ar  1 3.400000e-01    2.020000e+00
  TN4r TN4ah  1 3.400000e-01    2.020000e+00
  TN4h TN3ar  1 3.400000e-01    1.770000e+00
  TN4r TN3ah  1 3.400000e-01    1.770000e+00
  TN4h TN2ar  1 3.400000e-01    1.770000e+00
  TN4r TN2ah  1 3.400000e-01    1.770000e+00
  TN4h TN1ar  1 3.400000e-01    1.510000e+00
  TN4r TN1ah  1 3.400000e-01    1.510000e+00
  TN3h TN3dr  1 3.400000e-01    1.770000e+00
  TN3r TN3dh  1 3.400000e-01    1.770000e+00
  TN3h TN2dr  1 3.400000e-01    1.770000e+00
  TN3r TN2dh  1 3.400000e-01    1.770000e+00
  TN3h TN1dr  1 3.400000e-01    1.510000e+00
  TN3r TN1dh  1 3.400000e-01    1.510000e+00
  TN3h TN3ar  1 3.400000e-01    1.770000e+00
  TN3r TN3ah  1 3.400000e-01    1.770000e+00
  TN3h TN2ar  1 3.400000e-01    1.770000e+00
  TN3r TN2ah  1 3.400000e-01    1.770000e+00
  TN3h TN1ar  1 3.400000e-01    1.510000e+00
  TN3r TN1ah  1 3.400000e-01    1.510000e+00
  TN2h TN2dr  1 3.400000e-01    1.770000e+00
  TN2r TN2dh  1 3.400000e-01    1.770000e+00
  TN2h TN1dr  1 3.400000e-01    1.510000e+00
  TN2r TN1dh  1 3.400000e-01    1.510000e+00
  TN2h TN2ar  1 3.400000e-01    1.770000e+00
  TN2r TN2ah  1 3.400000e-01    1.770000e+00
  TN2h TN1ar  1 3.400000e-01    1.510000e+00
  TN2r TN1ah  1 3.400000e-01    1.510000e+00
  TN1h TN1dr  1 3.400000e-01    1.770000e+00
  TN1r TN1dh  1 3.400000e-01    1.770000e+00
  TN1h TN1ar  1 3.400000e-01    1.770000e+00
  TN1r TN1ah  1 3.400000e-01    1.770000e+00
  TC6h TC6vr  1 3.400000e-01    2.020000e+00
  TC6r TC6vh  1 3.400000e-01    2.020000e+00
  TC6h TC5vr  1 3.400000e-01    1.770000e+00
  TC6r TC5vh  1 3.400000e-01    1.770000e+00
  TC6h TC4vr  1 3.400000e-01    1.770000e+00
  TC6r TC4vh  1 3.400000e-01    1.770000e+00
  TC6h TC3vr  1 3.400000e-01    1.510000e+00
  TC6r TC3vh  1 3.400000e-01    1.510000e+00
  TC6h TC2vr  1 3.400000e-01    1.230000e+00
  TC6r TC2vh  1 3.400000e-01    1.230000e+00
  TC6h TC1vr  1 3.520000e-01    1.050000e+00
  TC6r TC1vh  1 3.520000e-01    1.050000e+00
  TC6h TX4vr  1 3.400000e-01    1.770000e+00
  TC6r TX4vh  1 3.400000e-01    1.770000e+00
  TC6h TX3vr  1 3.400000e-01    1.770000e+00
  TC6r TX3vh  1 3.400000e-01    1.770000e+00
  TC6h TX2vr  1 3.400000e-01    1.770000e+00
  TC6r TX2vh  1 3.400000e-01    1.770000e+00
  TC6h TX1vr  1 3.400000e-01    1.770000e+00
  TC6r TX1vh  1 3.400000e-01    1.770000e+00
  TC6h TC6er  1 3.400000e-01    2.020000e+00
  TC6r TC6eh  1 3.400000e-01    2.020000e+00
  TC6h TC5er  1 3.400000e-01    1.770000e+00
  TC6r TC5eh  1 3.400000e-01    1.770000e+00
  TC6h TC4er  1 3.400000e-01    1.770000e+00
  TC6r TC4eh  1 3.400000e-01    1.770000e+00
  TC6h TC3er  1 3.400000e-01    1.510000e+00
  TC6r TC3eh  1 3.400000e-01    1.510000e+00
  TC6h TC2er  1 3.400000e-01    1.230000e+00
  TC6r TC2eh  1 3.400000e-01    1.230000e+00
  TC6h TC1er  1 3.520000e-01    1.050000e+00
  TC6r TC1eh  1 3.520000e-01    1.050000e+00
  TC6h TX4er  1 3.400000e-01    1.770000e+00
  TC6r TX4eh  1 3.400000e-01    1.770000e+00
  TC6h TX3er  1 3.400000e-01    1.770000e+00
  TC6r TX3eh  1 3.400000e-01    1.770000e+00
  TC6h TX2er  1 3.400000e-01    1.770000e+00
  TC6r TX2eh  1 3.400000e-01    1.770000e+00
  TC6h TX1er  1 3.400000e-01    1.770000e+00
  TC6r TX1eh  1 3.400000e-01    1.770000e+00
  TC5h TC5vr  1 3.400000e-01    1.770000e+00
  TC5r TC5vh  1 3.400000e-01    1.770000e+00
  TC5h TC4vr  1 3.400000e-01    1.770000e+00
  TC5r TC4vh  1 3.400000e-01    1.770000e+00
  TC5h TC3vr  1 3.400000e-01    1.510000e+00
  TC5r TC3vh  1 3.400000e-01    1.510000e+00
  TC5h TC2vr  1 3.400000e-01    1.230000e+00
  TC5r TC2vh  1 3.400000e-01    1.230000e+00
  TC5h TC1vr  1 3.400000e-01    1.230000e+00
  TC5r TC1vh  1 3.400000e-01    1.230000e+00
  TC5h TX4vr  1 3.400000e-01    1.510000e+00
  TC5r TX4vh  1 3.400000e-01    1.510000e+00
  TC5h TX3vr  1 3.400000e-01    1.510000e+00
  TC5r TX3vh  1 3.400000e-01    1.510000e+00
  TC5h TX2vr  1 3.400000e-01    1.510000e+00
  TC5r TX2vh  1 3.400000e-01    1.510000e+00
  TC5h TX1vr  1 3.400000e-01    1.770000e+00
  TC5r TX1vh  1 3.400000e-01    1.770000e+00
  TC5h TC5er  1 3.400000e-01    1.770000e+00
  TC5r TC5eh  1 3.400000e-01    1.770000e+00
  TC5h TC4er  1 3.400000e-01    1.770000e+00
  TC5r TC4eh  1 3.400000e-01    1.770000e+00
  TC5h TC3er  1 3.400000e-01    1.510000e+00
  TC5r TC3eh  1 3.400000e-01    1.510000e+00
  TC5h TC2er  1 3.400000e-01    1.230000e+00
  TC5r TC2eh  1 3.400000e-01    1.230000e+00
  TC5h TC1er  1 3.400000e-01    1.230000e+00
  TC5r TC1eh  1 3.400000e-01    1.230000e+00
  TC5h TX4er  1 3.400000e-01    1.510000e+00
  TC5r TX4eh  1 3.400000e-01    1.510000e+00
  TC5h TX3er  1 3.400000e-01    1.510000e+00
  TC5r TX3eh  1 3.400000e-01    1.510000e+00
  TC5h TX2er  1 3.400000e-01    1.510000e+00
  TC5r TX2eh  1 3.400000e-01    1.510000e+00
  TC5h TX1er  1 3.400000e-01    1.770000e+00
  TC5r TX1eh  1 3.400000e-01    1.770000e+00
  TC4h TC4vr  1 3.400000e-01    1.770000e+00
  TC4r TC4vh  1 3.400000e-01    1.770000e+00
  TC4h TC3vr  1 3.400000e-01    1.770000e+00
  TC4r TC3vh  1 3.400000e-01    1.770000e+00
  TC4h TC2vr  1 3.400000e-01    1.510000e+00
  TC4r TC2vh  1 3.400000e-01    1.510000e+00
  TC4h TC1vr  1 3.400000e-01    1.230000e+00
  TC4r TC1vh  1 3.400000e-01    1.230000e+00
  TC4h TX4vr  1 3.400000e-01    1.510000e+00
  TC4r TX4vh  1 3.400000e-01    1.510000e+00
  TC4h TX3vr  1 3.400000e-01    1.510000e+00
  TC4r TX3vh  1 3.400000e-01    1.510000e+00
  TC4h TX2vr  1 3.400000e-01    1.510000e+00
  TC4r TX2vh  1 3.400000e-01    1.510000e+00
  TC4h TX1vr  1 3.400000e-01    1.770000e+00
  TC4r TX1vh  1 3.400000e-01    1.770000e+00
  TC4h TC4er  1 3.400000e-01    1.770000e+00
  TC4r TC4eh  1 3.400000e-01    1.770000e+00
  TC4h TC3er  1 3.400000e-01    1.770000e+00
  TC4r TC3eh  1 3.400000e-01    1.770000e+00
  TC4h TC2er  1 3.400000e-01    1.510000e+00
  TC4r TC2eh  1 3.400000e-01    1.510000e+00
  TC4h TC1er  1 3.400000e-01    1.230000e+00
  TC4r TC1eh  1 3.400000e-01    1.230000e+00
  TC4h TX4er  1 3.400000e-01    1.510000e+00
  TC4r TX4eh  1 3.400000e-01    1.510000e+00
  TC4h TX3er  1 3.400000e-01    1.510000e+00
  TC4r TX3eh  1 3.400000e-01    1.510000e+00
  TC4h TX2er  1 3.400000e-01    1.510000e+00
  TC4r TX2eh  1 3.400000e-01    1.510000e+00
  TC4h TX1er  1 3.400000e-01    1.770000e+00
  TC4r TX1eh  1 3.400000e-01    1.770000e+00
  TC3h TC3vr  1 3.400000e-01    1.770000e+00
  TC3r TC3vh  1 3.400000e-01    1.770000e+00
  TC3h TC2vr  1 3.400000e-01    1.770000e+00
  TC3r TC2vh  1 3.400000e-01    1.770000e+00
  TC3h TC1vr  1 3.400000e-01    1.770000e+00
  TC3r TC1vh  1 3.400000e-01    1.770000e+00
  TC3h TX4vr  1 3.400000e-01    1.510000e+00
  TC3r TX4vh  1 3.400000e-01    1.510000e+00
  TC3h TX3vr  1 3.400000e-01    1.510000e+00
  TC3r TX3vh  1 3.400000e-01    1.510000e+00
  TC3h TX2vr  1 3.400000e-01    1.510000e+00
  TC3r TX2vh  1 3.400000e-01    1.510000e+00
  TC3h TX1vr  1 3.400000e-01    1.770000e+00
  TC3r TX1vh  1 3.400000e-01    1.770000e+00
  TC3h TC3er  1 3.400000e-01    1.770000e+00
  TC3r TC3eh  1 3.400000e-01    1.770000e+00
  TC3h TC2er  1 3.400000e-01    1.770000e+00
  TC3r TC2eh  1 3.400000e-01    1.770000e+00
  TC3h TC1er  1 3.400000e-01    1.770000e+00
  TC3r TC1eh  1 3.400000e-01    1.770000e+00
  TC3h TX4er  1 3.400000e-01    1.510000e+00
  TC3r TX4eh  1 3.400000e-01    1.510000e+00
  TC3h TX3er  1 3.400000e-01    1.510000e+00
  TC3r TX3eh  1 3.400000e-01    1.510000e+00
  TC3h TX2er  1 3.400000e-01    1.510000e+00
  TC3r TX2eh  1 3.400000e-01    1.510000e+00
  TC3h TX1er  1 3.400000e-01    1.770000e+00
  TC3r TX1eh  1 3.400000e-01    1.770000e+00
  TC2h TC2vr  1 3.400000e-01    1.770000e+00
  TC2r TC2vh  1 3.400000e-01    1.770000e+00
  TC2h TC1vr  1 3.400000e-01    2.020000e+00
  TC2r TC1vh  1 3.400000e-01    2.020000e+00
  TC2h TX4vr  1 3.520000e-01    1.050000e+00
  TC2r TX4vh  1 3.520000e-01    1.050000e+00
  TC2h TX3vr  1 3.400000e-01    1.510000e+00
  TC2r TX3vh  1 3.400000e-01    1.510000e+00
  TC2h TX2vr  1 3.400000e-01    1.510000e+00
  TC2r TX2vh  1 3.400000e-01    1.510000e+00
  TC2h TX1vr  1 3.400000e-01    1.510000e+00
  TC2r TX1vh  1 3.400000e-01    1.510000e+00
  TC2h TC2er  1 3.400000e-01    1.770000e+00
  TC2r TC2eh  1 3.400000e-01    1.770000e+00
  TC2h TC1er  1 3.400000e-01    2.020000e+00
  TC2r TC1eh  1 3.400000e-01    2.020000e+00
  TC2h TX4er  1 3.520000e-01    1.050000e+00
  TC2r TX4eh  1 3.520000e-01    1.050000e+00
  TC2h TX3er  1 3.400000e-01    1.510000e+00
  TC2r TX3eh  1 3.400000e-01    1.510000e+00
  TC2h TX2er  1 3.400000e-01    1.510000e+00
  TC2r TX2eh  1 3.400000e-01    1.510000e+00
  TC2h TX1er  1 3.400000e-01    1.510000e+00
  TC2r TX1eh  1 3.400000e-01    1.510000e+00
  TC1h TC1vr  1 3.400000e-01    1.770000e+00
  TC1r TC1vh  1 3.400000e-01    1.770000e+00
  TC1h TX4vr  1 3.520000e-01    1.050000e+00
  TC1r TX4vh  1 3.520000e-01    1.050000e+00
  TC1h TX3vr  1 3.400000e-01    1.510000e+00
  TC1r TX3vh  1 3.400000e-01    1.510000e+00
  TC1h TX2vr  1 3.400000e-01    1.510000e+00
  TC1r TX2vh  1 3.400000e-01    1.510000e+00
  TC1h TX1vr  1 3.400000e-01    1.510000e+00
  TC1r TX1vh  1 3.400000e-01    1.510000e+00
  TC1h TC1er  1 3.400000e-01    1.770000e+00
  TC1r TC1eh  1 3.400000e-01    1.770000e+00
  TC1h TX4er  1 3.520000e-01    1.050000e+00
  TC1r TX4eh  1 3.520000e-01    1.050000e+00
  TC1h TX3er  1 3.400000e-01    1.510000e+00
  TC1r TX3eh  1 3.400000e-01    1.510000e+00
  TC1h TX2er  1 3.400000e-01    1.510000e+00
  TC1r TX2eh  1 3.400000e-01    1.510000e+00
  TC1h TX1er  1 3.400000e-01    1.510000e+00
  TC1r TX1eh  1 3.400000e-01    1.510000e+00
  TX4h TX4vr  1 3.400000e-01    1.770000e+00
  TX4r TX4vh  1 3.400000e-01    1.770000e+00
  TX4h TX3vr  1 3.400000e-01    1.770000e+00
  TX4r TX3vh  1 3.400000e-01    1.770000e+00
  TX4h TX2vr  1 3.400000e-01    1.770000e+00
  TX4r TX2vh  1 3.400000e-01    1.770000e+00
  TX4h TX1vr  1 3.400000e-01    1.770000e+00
  TX4r TX1vh  1 3.400000e-01    1.770000e+00
  TX4h TX4er  1 3.400000e-01    1.770000e+00
  TX4r TX4eh  1 3.400000e-01    1.770000e+00
  TX4h TX3er  1 3.400000e-01    1.770000e+00
  TX4r TX3eh  1 3.400000e-01    1.770000e+00
  TX4h TX2er  1 3.400000e-01    1.770000e+00
  TX4r TX2eh  1 3.400000e-01    1.770000e+00
  TX4h TX1er  1 3.400000e-01    1.770000e+00
  TX4r TX1eh  1 3.400000e-01    1.770000e+00
  TX3h TX3vr  1 3.400000e-01    1.770000e+00
  TX3r TX3vh  1 3.400000e-01    1.770000e+00
  TX3h TX2vr  1 3.400000e-01    2.020000e+00
  TX3r TX2vh  1 3.400000e-01    2.020000e+00
  TX3h TX1vr  1 3.400000e-01    2.020000e+00
  TX3r TX1vh  1 3.400000e-01    2.020000e+00
  TX3h TX3er  1 3.400000e-01    1.770000e+00
  TX3r TX3eh  1 3.400000e-01    1.770000e+00
  TX3h TX2er  1 3.400000e-01    2.020000e+00
  TX3r TX2eh  1 3.400000e-01    2.020000e+00
  TX3h TX1er  1 3.400000e-01    2.020000e+00
  TX3r TX1eh  1 3.400000e-01    2.020000e+00
  TX2h TX2vr  1 3.400000e-01    2.020000e+00
  TX2r TX2vh  1 3.400000e-01    2.020000e+00
  TX2h TX1vr  1 3.400000e-01    2.020000e+00
  TX2r TX1vh  1 3.400000e-01    2.020000e+00
  TX2h TX2er  1 3.400000e-01    2.020000e+00
  TX2r TX2eh  1 3.400000e-01    2.020000e+00
  TX2h TX1er  1 3.400000e-01    2.020000e+00
  TX2r TX1eh  1 3.400000e-01    2.020000e+00
  TX1h TX1vr  1 3.400000e-01    2.280000e+00
  TX1r TX1vh  1 3.400000e-01    2.280000e+00
  TX1h TX1er  1 3.400000e-01    2.280000e+00
  TX1r TX1eh  1 3.400000e-01    2.280000e+00
  TP6h TC6vr  1 3.520000e-01    1.050000e+00
  TP6r TC6vh  1 3.520000e-01    1.050000e+00
  TP6h TC5vr  1 3.660000e-01    9.350000e-01
  TP6r TC5vh  1 3.660000e-01    9.350000e-01
  TP6h TC4vr  1 3.850000e-01    8.550000e-01
  TP6r TC4vh  1 3.850000e-01    8.550000e-01
  TP6h TC3vr  1 4.110000e-01    8.010000e-01
  TP6r TC3vh  1 4.110000e-01    8.010000e-01
  TP6h TC2vr  1 4.110000e-01    8.010000e-01
  TP6r TC2vh  1 4.110000e-01    8.010000e-01
  TP6h TC1vr  1 4.380000e-01    7.310000e-01
  TP6r TC1vh  1 4.380000e-01    7.310000e-01
  TP6h TX4vr  1 3.400000e-01    1.230000e+00
  TP6r TX4vh  1 3.400000e-01    1.230000e+00
  TP6h TX3vr  1 3.400000e-01    1.230000e+00
  TP6r TX3vh  1 3.400000e-01    1.230000e+00
  TP6h TX2vr  1 3.520000e-01    1.050000e+00
  TP6r TX2vh  1 3.520000e-01    1.050000e+00
  TP6h TX1vr  1 3.660000e-01    9.350000e-01
  TP6r TX1vh  1 3.660000e-01    9.350000e-01
  TP6h TC6er  1 3.520000e-01    1.050000e+00
  TP6r TC6eh  1 3.520000e-01    1.050000e+00
  TP6h TC5er  1 3.660000e-01    9.350000e-01
  TP6r TC5eh  1 3.660000e-01    9.350000e-01
  TP6h TC4er  1 3.850000e-01    8.550000e-01
  TP6r TC4eh  1 3.850000e-01    8.550000e-01
  TP6h TC3er  1 4.110000e-01    8.010000e-01
  TP6r TC3eh  1 4.110000e-01    8.010000e-01
  TP6h TC2er  1 4.110000e-01    8.010000e-01
  TP6r TC2eh  1 4.110000e-01    8.010000e-01
  TP6h TC1er  1 4.380000e-01    7.310000e-01
  TP6r TC1eh  1 4.380000e-01    7.310000e-01
  TP6h TX4er  1 3.400000e-01    1.230000e+00
  TP6r TX4eh  1 3.400000e-01    1.230000e+00
  TP6h TX3er  1 3.400000e-01    1.230000e+00
  TP6r TX3eh  1 3.400000e-01    1.230000e+00
  TP6h TX2er  1 3.520000e-01    1.050000e+00
  TP6r TX2eh  1 3.520000e-01    1.050000e+00
  TP6h TX1er  1 3.660000e-01    9.350000e-01
  TP6r TX1eh  1 3.660000e-01    9.350000e-01
  TP5h TC6vr  1 3.520000e-01    1.050000e+00
  TP5r TC6vh  1 3.520000e-01    1.050000e+00
  TP5h TC5vr  1 3.520000e-01    1.050000e+00
  TP5r TC5vh  1 3.520000e-01    1.050000e+00
  TP5h TC4vr  1 3.660000e-01    9.350000e-01
  TP5r TC4vh  1 3.660000e-01    9.350000e-01
  TP5h TC3vr  1 3.850000e-01    8.550000e-01
  TP5r TC3vh  1 3.850000e-01    8.550000e-01
  TP5h TC2vr  1 3.850000e-01    8.550000e-01
  TP5r TC2vh  1 3.850000e-01    8.550000e-01
  TP5h TC1vr  1 4.110000e-01    8.010000e-01
  TP5r TC1vh  1 4.110000e-01    8.010000e-01
  TP5h TX4vr  1 3.400000e-01    1.510000e+00
  TP5r TX4vh  1 3.400000e-01    1.510000e+00
  TP5h TX3vr  1 3.400000e-01    1.230000e+00
  TP5r TX3vh  1 3.400000e-01    1.230000e+00
  TP5h TX2vr  1 3.400000e-01    1.230000e+00
  TP5r TX2vh  1 3.400000e-01    1.230000e+00
  TP5h TX1vr  1 3.660000e-01    9.350000e-01
  TP5r TX1vh  1 3.660000e-01    9.350000e-01
  TP5h TC6er  1 3.520000e-01    1.050000e+00
  TP5r TC6eh  1 3.520000e-01    1.050000e+00
  TP5h TC5er  1 3.520000e-01    1.050000e+00
  TP5r TC5eh  1 3.520000e-01    1.050000e+00
  TP5h TC4er  1 3.660000e-01    9.350000e-01
  TP5r TC4eh  1 3.660000e-01    9.350000e-01
  TP5h TC3er  1 3.850000e-01    8.550000e-01
  TP5r TC3eh  1 3.850000e-01    8.550000e-01
  TP5h TC2er  1 3.850000e-01    8.550000e-01
  TP5r TC2eh  1 3.850000e-01    8.550000e-01
  TP5h TC1er  1 4.110000e-01    8.010000e-01
  TP5r TC1eh  1 4.110000e-01    8.010000e-01
  TP5h TX4er  1 3.400000e-01    1.510000e+00
  TP5r TX4eh  1 3.400000e-01    1.510000e+00
  TP5h TX3er  1 3.400000e-01    1.230000e+00
  TP5r TX3eh  1 3.400000e-01    1.230000e+00
  TP5h TX2er  1 3.400000e-01    1.230000e+00
  TP5r TX2eh  1 3.400000e-01    1.230000e+00
  TP5h TX1er  1 3.660000e-01    9.350000e-01
  TP5r TX1eh  1 3.660000e-01    9.350000e-01
  TP4h TC6vr  1 3.400000e-01    1.230000e+00
  TP4r TC6vh  1 3.400000e-01    1.230000e+00
  TP4h TC5vr  1 3.520000e-01    1.050000e+00
  TP4r TC5vh  1 3.520000e-01    1.050000e+00
  TP4h TC4vr  1 3.660000e-01    9.350000e-01
  TP4r TC4vh  1 3.660000e-01    9.350000e-01
  TP4h TC3vr  1 3.850000e-01    8.550000e-01
  TP4r TC3vh  1 3.850000e-01    8.550000e-01
  TP4h TC2vr  1 3.850000e-01    8.550000e-01
  TP4r TC2vh  1 3.850000e-01    8.550000e-01
  TP4h TC1vr  1 4.110000e-01    8.010000e-01
  TP4r TC1vh  1 4.110000e-01    8.010000e-01
  TP4h TX4vr  1 3.400000e-01    1.510000e+00
  TP4r TX4vh  1 3.400000e-01    1.510000e+00
  TP4h TX3vr  1 3.400000e-01    1.230000e+00
  TP4r TX3vh  1 3.400000e-01    1.230000e+00
  TP4h TX2vr  1 3.400000e-01    1.230000e+00
  TP4r TX2vh  1 3.400000e-01    1.230000e+00
  TP4h TX1vr  1 3.520000e-01    1.050000e+00
  TP4r TX1vh  1 3.520000e-01    1.050000e+00
  TP4h TC6er  1 3.400000e-01    1.230000e+00
  TP4r TC6eh  1 3.400000e-01    1.230000e+00
  TP4h TC5er  1 3.520000e-01    1.050000e+00
  TP4r TC5eh  1 3.520000e-01    1.050000e+00
  TP4h TC4er  1 3.660000e-01    9.350000e-01
  TP4r TC4eh  1 3.660000e-01    9.350000e-01
  TP4h TC3er  1 3.850000e-01    8.550000e-01
  TP4r TC3eh  1 3.850000e-01    8.550000e-01
  TP4h TC2er  1 3.850000e-01    8.550000e-01
  TP4r TC2eh  1 3.850000e-01    8.550000e-01
  TP4h TC1er  1 4.110000e-01    8.010000e-01
  TP4r TC1eh  1 4.110000e-01    8.010000e-01
  TP4h TX4er  1 3.400000e-01    1.510000e+00
  TP4r TX4eh  1 3.400000e-01    1.510000e+00
  TP4h TX3er  1 3.400000e-01    1.230000e+00
  TP4r TX3eh  1 3.400000e-01    1.230000e+00
  TP4h TX2er  1 3.400000e-01    1.230000e+00
  TP4r TX2eh  1 3.400000e-01    1.230000e+00
  TP4h TX1er  1 3.520000e-01    1.050000e+00
  TP4r TX1eh  1 3.520000e-01    1.050000e+00
  TP3h TC6vr  1 3.400000e-01    1.510000e+00
  TP3r TC6vh  1 3.400000e-01    1.510000e+00
  TP3h TC5vr  1 3.400000e-01    1.230000e+00
  TP3r TC5vh  1 3.400000e-01    1.230000e+00
  TP3h TC4vr  1 3.520000e-01    1.050000e+00
  TP3r TC4vh  1 3.520000e-01    1.050000e+00
  TP3h TC3vr  1 3.850000e-01    8.550000e-01
  TP3r TC3vh  1 3.850000e-01    8.550000e-01
  TP3h TC2vr  1 3.850000e-01    8.550000e-01
  TP3r TC2vh  1 3.850000e-01    8.550000e-01
  TP3h TC1vr  1 4.110000e-01    8.010000e-01
  TP3r TC1vh  1 4.110000e-01    8.010000e-01
  TP3h TX4vr  1 3.400000e-01    1.510000e+00
  TP3r TX4vh  1 3.400000e-01    1.510000e+00
  TP3h TX3vr  1 3.400000e-01    1.510000e+00
  TP3r TX3vh  1 3.400000e-01    1.510000e+00
  TP3h TX2vr  1 3.400000e-01    1.230000e+00
  TP3r TX2vh  1 3.400000e-01    1.230000e+00
  TP3h TX1vr  1 3.520000e-01    1.050000e+00
  TP3r TX1vh  1 3.520000e-01    1.050000e+00
  TP3h TC6er  1 3.400000e-01    1.510000e+00
  TP3r TC6eh  1 3.400000e-01    1.510000e+00
  TP3h TC5er  1 3.400000e-01    1.230000e+00
  TP3r TC5eh  1 3.400000e-01    1.230000e+00
  TP3h TC4er  1 3.520000e-01    1.050000e+00
  TP3r TC4eh  1 3.520000e-01    1.050000e+00
  TP3h TC3er  1 3.850000e-01    8.550000e-01
  TP3r TC3eh  1 3.850000e-01    8.550000e-01
  TP3h TC2er  1 3.850000e-01    8.550000e-01
  TP3r TC2eh  1 3.850000e-01    8.550000e-01
  TP3h TC1er  1 4.110000e-01    8.010000e-01
  TP3r TC1eh  1 4.110000e-01    8.010000e-01
  TP3h TX4er  1 3.400000e-01    1.510000e+00
  TP3r TX4eh  1 3.400000e-01    1.510000e+00
  TP3h TX3er  1 3.400000e-01    1.510000e+00
  TP3r TX3eh  1 3.400000e-01    1.510000e+00
  TP3h TX2er  1 3.400000e-01    1.230000e+00
  TP3r TX2eh  1 3.400000e-01    1.230000e+00
  TP3h TX1er  1 3.520000e-01    1.050000e+00
  TP3r TX1eh  1 3.520000e-01    1.050000e+00
  TP2h TC6vr  1 3.400000e-01    1.510000e+00
  TP2r TC6vh  1 3.400000e-01    1.510000e+00
  TP2h TC5vr  1 3.400000e-01    1.230000e+00
  TP2r TC5vh  1 3.400000e-01    1.230000e+00
  TP2h TC4vr  1 3.520000e-01    1.050000e+00
  TP2r TC4vh  1 3.520000e-01    1.050000e+00
  TP2h TC3vr  1 3.660000e-01    9.350000e-01
  TP2r TC3vh  1 3.660000e-01    9.350000e-01
  TP2h TC2vr  1 3.660000e-01    9.350000e-01
  TP2r TC2vh  1 3.660000e-01    9.350000e-01
  TP2h TC1vr  1 3.850000e-01    8.550000e-01
  TP2r TC1vh  1 3.850000e-01    8.550000e-01
  TP2h TX4vr  1 3.400000e-01    1.510000e+00
  TP2r TX4vh  1 3.400000e-01    1.510000e+00
  TP2h TX3vr  1 3.400000e-01    1.510000e+00
  TP2r TX3vh  1 3.400000e-01    1.510000e+00
  TP2h TX2vr  1 3.400000e-01    1.230000e+00
  TP2r TX2vh  1 3.400000e-01    1.230000e+00
  TP2h TX1vr  1 3.520000e-01    1.050000e+00
  TP2r TX1vh  1 3.520000e-01    1.050000e+00
  TP2h TC6er  1 3.400000e-01    1.510000e+00
  TP2r TC6eh  1 3.400000e-01    1.510000e+00
  TP2h TC5er  1 3.400000e-01    1.230000e+00
  TP2r TC5eh  1 3.400000e-01    1.230000e+00
  TP2h TC4er  1 3.520000e-01    1.050000e+00
  TP2r TC4eh  1 3.520000e-01    1.050000e+00
  TP2h TC3er  1 3.660000e-01    9.350000e-01
  TP2r TC3eh  1 3.660000e-01    9.350000e-01
  TP2h TC2er  1 3.660000e-01    9.350000e-01
  TP2r TC2eh  1 3.660000e-01    9.350000e-01
  TP2h TC1er  1 3.850000e-01    8.550000e-01
  TP2r TC1eh  1 3.850000e-01    8.550000e-01
  TP2h TX4er  1 3.400000e-01    1.510000e+00
  TP2r TX4eh  1 3.400000e-01    1.510000e+00
  TP2h TX3er  1 3.400000e-01    1.510000e+00
  TP2r TX3eh  1 3.400000e-01    1.510000e+00
  TP2h TX2er  1 3.400000e-01    1.230000e+00
  TP2r TX2eh  1 3.400000e-01    1.230000e+00
  TP2h TX1er  1 3.520000e-01    1.050000e+00
  TP2r TX1eh  1 3.520000e-01    1.050000e+00
  TP1h TC6vr  1 3.400000e-01    1.510000e+00
  TP1r TC6vh  1 3.400000e-01    1.510000e+00
  TP1h TC5vr  1 3.400000e-01    1.230000e+00
  TP1r TC5vh  1 3.400000e-01    1.230000e+00
  TP1h TC4vr  1 3.520000e-01    1.050000e+00
  TP1r TC4vh  1 3.520000e-01    1.050000e+00
  TP1h TC3vr  1 3.660000e-01    9.350000e-01
  TP1r TC3vh  1 3.660000e-01    9.350000e-01
  TP1h TC2vr  1 3.660000e-01    9.350000e-01
  TP1r TC2vh  1 3.660000e-01    9.350000e-01
  TP1h TC1vr  1 3.850000e-01    8.550000e-01
  TP1r TC1vh  1 3.850000e-01    8.550000e-01
  TP1h TX4vr  1 3.400000e-01    1.510000e+00
  TP1r TX4vh  1 3.400000e-01    1.510000e+00
  TP1h TX3vr  1 3.400000e-01    1.510000e+00
  TP1r TX3vh  1 3.400000e-01    1.510000e+00
  TP1h TX2vr  1 3.400000e-01    1.230000e+00
  TP1r TX2vh  1 3.400000e-01    1.230000e+00
  TP1h TX1vr  1 3.520000e-01    1.050000e+00
  TP1r TX1vh  1 3.520000e-01    1.050000e+00
  TP1h TC6er  1 3.400000e-01    1.510000e+00
  TP1r TC6eh  1 3.400000e-01    1.510000e+00
  TP1h TC5er  1 3.400000e-01    1.230000e+00
  TP1r TC5eh  1 3.400000e-01    1.230000e+00
  TP1h TC4er  1 3.520000e-01    1.050000e+00
  TP1r TC4eh  1 3.520000e-01    1.050000e+00
  TP1h TC3er  1 3.660000e-01    9.350000e-01
  TP1r TC3eh  1 3.660000e-01    9.350000e-01
  TP1h TC2er  1 3.660000e-01    9.350000e-01
  TP1r TC2eh  1 3.660000e-01    9.350000e-01
  TP1h TC1er  1 3.850000e-01    8.550000e-01
  TP1r TC1eh  1 3.850000e-01    8.550000e-01
  TP1h TX4er  1 3.400000e-01    1.510000e+00
  TP1r TX4eh  1 3.400000e-01    1.510000e+00
  TP1h TX3er  1 3.400000e-01    1.510000e+00
  TP1r TX3eh  1 3.400000e-01    1.510000e+00
  TP1h TX2er  1 3.400000e-01    1.230000e+00
  TP1r TX2eh  1 3.400000e-01    1.230000e+00
  TP1h TX1er  1 3.520000e-01    1.050000e+00
  TP1r TX1eh  1 3.520000e-01    1.050000e+00
  TN6h TC6vr  1 3.400000e-01    1.770000e+00
  TN6r TC6vh  1 3.400000e-01    1.770000e+00
  TN6h TC5vr  1 3.400000e-01    1.510000e+00
  TN6r TC5vh  1 3.400000e-01    1.510000e+00
  TN6h TC4vr  1 3.400000e-01    1.230000e+00
  TN6r TC4vh  1 3.400000e-01    1.230000e+00
  TN6h TC3vr  1 3.520000e-01    1.050000e+00
  TN6r TC3vh  1 3.520000e-01    1.050000e+00
  TN6h TC2vr  1 3.520000e-01    1.050000e+00
  TN6r TC2vh  1 3.520000e-01    1.050000e+00
  TN6h TC1vr  1 3.660000e-01    9.350000e-01
  TN6r TC1vh  1 3.660000e-01    9.350000e-01
  TN6h TX4vr  1 3.400000e-01    1.770000e+00
  TN6r TX4vh  1 3.400000e-01    1.770000e+00
  TN6h TX3vr  1 3.400000e-01    1.510000e+00
  TN6r TX3vh  1 3.400000e-01    1.510000e+00
  TN6h TX2vr  1 3.400000e-01    1.230000e+00
  TN6r TX2vh  1 3.400000e-01    1.230000e+00
  TN6h TX1vr  1 3.520000e-01    1.050000e+00
  TN6r TX1vh  1 3.520000e-01    1.050000e+00
  TN6h TC6er  1 3.400000e-01    1.770000e+00
  TN6r TC6eh  1 3.400000e-01    1.770000e+00
  TN6h TC5er  1 3.400000e-01    1.510000e+00
  TN6r TC5eh  1 3.400000e-01    1.510000e+00
  TN6h TC4er  1 3.400000e-01    1.230000e+00
  TN6r TC4eh  1 3.400000e-01    1.230000e+00
  TN6h TC3er  1 3.520000e-01    1.050000e+00
  TN6r TC3eh  1 3.520000e-01    1.050000e+00
  TN6h TC2er  1 3.520000e-01    1.050000e+00
  TN6r TC2eh  1 3.520000e-01    1.050000e+00
  TN6h TC1er  1 3.660000e-01    9.350000e-01
  TN6r TC1eh  1 3.660000e-01    9.350000e-01
  TN6h TX4er  1 3.400000e-01    1.770000e+00
  TN6r TX4eh  1 3.400000e-01    1.770000e+00
  TN6h TX3er  1 3.400000e-01    1.510000e+00
  TN6r TX3eh  1 3.400000e-01    1.510000e+00
  TN6h TX2er  1 3.400000e-01    1.230000e+00
  TN6r TX2eh  1 3.400000e-01    1.230000e+00
  TN6h TX1er  1 3.520000e-01    1.050000e+00
  TN6r TX1eh  1 3.520000e-01    1.050000e+00
  TN5h TC6vr  1 3.400000e-01    1.770000e+00
  TN5r TC6vh  1 3.400000e-01    1.770000e+00
  TN5h TC5vr  1 3.400000e-01    1.510000e+00
  TN5r TC5vh  1 3.400000e-01    1.510000e+00
  TN5h TC4vr  1 3.400000e-01    1.230000e+00
  TN5r TC4vh  1 3.400000e-01    1.230000e+00
  TN5h TC3vr  1 3.400000e-01    1.230000e+00
  TN5r TC3vh  1 3.400000e-01    1.230000e+00
  TN5h TC2vr  1 3.520000e-01    1.050000e+00
  TN5r TC2vh  1 3.520000e-01    1.050000e+00
  TN5h TC1vr  1 3.660000e-01    9.350000e-01
  TN5r TC1vh  1 3.660000e-01    9.350000e-01
  TN5h TX4vr  1 3.400000e-01    2.020000e+00
  TN5r TX4vh  1 3.400000e-01    2.020000e+00
  TN5h TX3vr  1 3.400000e-01    1.770000e+00
  TN5r TX3vh  1 3.400000e-01    1.770000e+00
  TN5h TX2vr  1 3.400000e-01    1.510000e+00
  TN5r TX2vh  1 3.400000e-01    1.510000e+00
  TN5h TX1vr  1 3.400000e-01    1.230000e+00
  TN5r TX1vh  1 3.400000e-01    1.230000e+00
  TN5h TC6er  1 3.400000e-01    1.770000e+00
  TN5r TC6eh  1 3.400000e-01    1.770000e+00
  TN5h TC5er  1 3.400000e-01    1.510000e+00
  TN5r TC5eh  1 3.400000e-01    1.510000e+00
  TN5h TC4er  1 3.400000e-01    1.230000e+00
  TN5r TC4eh  1 3.400000e-01    1.230000e+00
  TN5h TC3er  1 3.400000e-01    1.230000e+00
  TN5r TC3eh  1 3.400000e-01    1.230000e+00
  TN5h TC2er  1 3.520000e-01    1.050000e+00
  TN5r TC2eh  1 3.520000e-01    1.050000e+00
  TN5h TC1er  1 3.660000e-01    9.350000e-01
  TN5r TC1eh  1 3.660000e-01    9.350000e-01
  TN5h TX4er  1 3.400000e-01    2.020000e+00
  TN5r TX4eh  1 3.400000e-01    2.020000e+00
  TN5h TX3er  1 3.400000e-01    1.770000e+00
  TN5r TX3eh  1 3.400000e-01    1.770000e+00
  TN5h TX2er  1 3.400000e-01    1.510000e+00
  TN5r TX2eh  1 3.400000e-01    1.510000e+00
  TN5h TX1er  1 3.400000e-01    1.230000e+00
  TN5r TX1eh  1 3.400000e-01    1.230000e+00
  TN4h TC6vr  1 3.400000e-01    1.770000e+00
  TN4r TC6vh  1 3.400000e-01    1.770000e+00
  TN4h TC5vr  1 3.400000e-01    1.510000e+00
  TN4r TC5vh  1 3.400000e-01    1.510000e+00
  TN4h TC4vr  1 3.400000e-01    1.510000e+00
  TN4r TC4vh  1 3.400000e-01    1.510000e+00
  TN4h TC3vr  1 3.400000e-01    1.230000e+00
  TN4r TC3vh  1 3.400000e-01    1.230000e+00
  TN4h TC2vr  1 3.520000e-01    1.050000e+00
  TN4r TC2vh  1 3.520000e-01    1.050000e+00
  TN4h TC1vr  1 3.660000e-01    9.350000e-01
  TN4r TC1vh  1 3.660000e-01    9.350000e-01
  TN4h TX4vr  1 3.400000e-01    2.280000e+00
  TN4r TX4vh  1 3.400000e-01    2.280000e+00
  TN4h TX3vr  1 3.400000e-01    2.020000e+00
  TN4r TX3vh  1 3.400000e-01    2.020000e+00
  TN4h TX2vr  1 3.400000e-01    1.510000e+00
  TN4r TX2vh  1 3.400000e-01    1.510000e+00
  TN4h TX1vr  1 3.400000e-01    1.230000e+00
  TN4r TX1vh  1 3.400000e-01    1.230000e+00
  TN4h TC6er  1 3.400000e-01    1.770000e+00
  TN4r TC6eh  1 3.400000e-01    1.770000e+00
  TN4h TC5er  1 3.400000e-01    1.510000e+00
  TN4r TC5eh  1 3.400000e-01    1.510000e+00
  TN4h TC4er  1 3.400000e-01    1.510000e+00
  TN4r TC4eh  1 3.400000e-01    1.510000e+00
  TN4h TC3er  1 3.400000e-01    1.230000e+00
  TN4r TC3eh  1 3.400000e-01    1.230000e+00
  TN4h TC2er  1 3.520000e-01    1.050000e+00
  TN4r TC2eh  1 3.520000e-01    1.050000e+00
  TN4h TC1er  1 3.660000e-01    9.350000e-01
  TN4r TC1eh  1 3.660000e-01    9.350000e-01
  TN4h TX4er  1 3.400000e-01    2.280000e+00
  TN4r TX4eh  1 3.400000e-01    2.280000e+00
  TN4h TX3er  1 3.400000e-01    2.020000e+00
  TN4r TX3eh  1 3.400000e-01    2.020000e+00
  TN4h TX2er  1 3.400000e-01    1.510000e+00
  TN4r TX2eh  1 3.400000e-01    1.510000e+00
  TN4h TX1er  1 3.400000e-01    1.230000e+00
  TN4r TX1eh  1 3.400000e-01    1.230000e+00
  TN3h TC6vr  1 3.400000e-01    1.770000e+00
  TN3r TC6vh  1 3.400000e-01    1.770000e+00
  TN3h TC5vr  1 3.400000e-01    1.510000e+00
  TN3r TC5vh  1 3.400000e-01    1.510000e+00
  TN3h TC4vr  1 3.400000e-01    1.510000e+00
  TN3r TC4vh  1 3.400000e-01    1.510000e+00
  TN3h TC3vr  1 3.400000e-01    1.230000e+00
  TN3r TC3vh  1 3.400000e-01    1.230000e+00
  TN3h TC2vr  1 3.400000e-01    1.230000e+00
  TN3r TC2vh  1 3.400000e-01    1.230000e+00
  TN3h TC1vr  1 3.520000e-01    1.050000e+00
  TN3r TC1vh  1 3.520000e-01    1.050000e+00
  TN3h TX4vr  1 3.400000e-01    2.020000e+00
  TN3r TX4vh  1 3.400000e-01    2.020000e+00
  TN3h TX3vr  1 3.400000e-01    1.770000e+00
  TN3r TX3vh  1 3.400000e-01    1.770000e+00
  TN3h TX2vr  1 3.400000e-01    1.510000e+00
  TN3r TX2vh  1 3.400000e-01    1.510000e+00
  TN3h TX1vr  1 3.400000e-01    1.510000e+00
  TN3r TX1vh  1 3.400000e-01    1.510000e+00
  TN3h TC6er  1 3.400000e-01    1.770000e+00
  TN3r TC6eh  1 3.400000e-01    1.770000e+00
  TN3h TC5er  1 3.400000e-01    1.510000e+00
  TN3r TC5eh  1 3.400000e-01    1.510000e+00
  TN3h TC4er  1 3.400000e-01    1.510000e+00
  TN3r TC4eh  1 3.400000e-01    1.510000e+00
  TN3h TC3er  1 3.400000e-01    1.230000e+00
  TN3r TC3eh  1 3.400000e-01    1.230000e+00
  TN3h TC2er  1 3.400000e-01    1.230000e+00
  TN3r TC2eh  1 3.400000e-01    1.230000e+00
  TN3h TC1er  1 3.520000e-01    1.050000e+00
  TN3r TC1eh  1 3.520000e-01    1.050000e+00
  TN3h TX4er  1 3.400000e-01    2.020000e+00
  TN3r TX4eh  1 3.400000e-01    2.020000e+00
  TN3h TX3er  1 3.400000e-01    1.770000e+00
  TN3r TX3eh  1 3.400000e-01    1.770000e+00
  TN3h TX2er  1 3.400000e-01    1.510000e+00
  TN3r TX2eh  1 3.400000e-01    1.510000e+00
  TN3h TX1er  1 3.400000e-01    1.510000e+00
  TN3r TX1eh  1 3.400000e-01    1.510000e+00
  TN2h TC6vr  1 3.400000e-01    1.770000e+00
  TN2r TC6vh  1 3.400000e-01    1.770000e+00
  TN2h TC5vr  1 3.400000e-01    1.510000e+00
  TN2r TC5vh  1 3.400000e-01    1.510000e+00
  TN2h TC4vr  1 3.400000e-01    1.510000e+00
  TN2r TC4vh  1 3.400000e-01    1.510000e+00
  TN2h TC3vr  1 3.400000e-01    1.510000e+00
  TN2r TC3vh  1 3.400000e-01    1.510000e+00
  TN2h TC2vr  1 3.400000e-01    1.230000e+00
  TN2r TC2vh  1 3.400000e-01    1.230000e+00
  TN2h TC1vr  1 3.520000e-01    1.050000e+00
  TN2r TC1vh  1 3.520000e-01    1.050000e+00
  TN2h TX4vr  1 3.400000e-01    2.020000e+00
  TN2r TX4vh  1 3.400000e-01    2.020000e+00
  TN2h TX3vr  1 3.400000e-01    1.770000e+00
  TN2r TX3vh  1 3.400000e-01    1.770000e+00
  TN2h TX2vr  1 3.400000e-01    1.510000e+00
  TN2r TX2vh  1 3.400000e-01    1.510000e+00
  TN2h TX1vr  1 3.400000e-01    1.510000e+00
  TN2r TX1vh  1 3.400000e-01    1.510000e+00
  TN2h TC6er  1 3.400000e-01    1.770000e+00
  TN2r TC6eh  1 3.400000e-01    1.770000e+00
  TN2h TC5er  1 3.400000e-01    1.510000e+00
  TN2r TC5eh  1 3.400000e-01    1.510000e+00
  TN2h TC4er  1 3.400000e-01    1.510000e+00
  TN2r TC4eh  1 3.400000e-01    1.510000e+00
  TN2h TC3er  1 3.400000e-01    1.510000e+00
  TN2r TC3eh  1 3.400000e-01    1.510000e+00
  TN2h TC2er  1 3.400000e-01    1.230000e+00
  TN2r TC2eh  1 3.400000e-01    1.230000e+00
  TN2h TC1er  1 3.520000e-01    1.050000e+00
  TN2r TC1eh  1 3.520000e-01    1.050000e+00
  TN2h TX4er  1 3.400000e-01    2.020000e+00
  TN2r TX4eh  1 3.400000e-01    2.020000e+00
  TN2h TX3er  1 3.400000e-01    1.770000e+00
  TN2r TX3eh  1 3.400000e-01    1.770000e+00
  TN2h TX2er  1 3.400000e-01    1.510000e+00
  TN2r TX2eh  1 3.400000e-01    1.510000e+00
  TN2h TX1er  1 3.400000e-01    1.510000e+00
  TN2r TX1eh  1 3.400000e-01    1.510000e+00
  TN1h TC6vr  1 3.400000e-01    2.020000e+00
  TN1r TC6vh  1 3.400000e-01    2.020000e+00
  TN1h TC5vr  1 3.400000e-01    1.770000e+00
  TN1r TC5vh  1 3.400000e-01    1.770000e+00
  TN1h TC4vr  1 3.400000e-01    1.770000e+00
  TN1r TC4vh  1 3.400000e-01    1.770000e+00
  TN1h TC3vr  1 3.400000e-01    1.510000e+00
  TN1r TC3vh  1 3.400000e-01    1.510000e+00
  TN1h TC2vr  1 3.400000e-01    1.230000e+00
  TN1r TC2vh  1 3.400000e-01    1.230000e+00
  TN1h TC1vr  1 3.520000e-01    1.050000e+00
  TN1r TC1vh  1 3.520000e-01    1.050000e+00
  TN1h TX4vr  1 3.400000e-01    1.770000e+00
  TN1r TX4vh  1 3.400000e-01    1.770000e+00
  TN1h TX3vr  1 3.400000e-01    1.770000e+00
  TN1r TX3vh  1 3.400000e-01    1.770000e+00
  TN1h TX2vr  1 3.400000e-01    1.510000e+00
  TN1r TX2vh  1 3.400000e-01    1.510000e+00
  TN1h TX1vr  1 3.400000e-01    1.510000e+00
  TN1r TX1vh  1 3.400000e-01    1.510000e+00
  TN1h TC6er  1 3.400000e-01    2.020000e+00
  TN1r TC6eh  1 3.400000e-01    2.020000e+00
  TN1h TC5er  1 3.400000e-01    1.770000e+00
  TN1r TC5eh  1 3.400000e-01    1.770000e+00
  TN1h TC4er  1 3.400000e-01    1.770000e+00
  TN1r TC4eh  1 3.400000e-01    1.770000e+00
  TN1h TC3er  1 3.400000e-01    1.510000e+00
  TN1r TC3eh  1 3.400000e-01    1.510000e+00
  TN1h TC2er  1 3.400000e-01    1.230000e+00
  TN1r TC2eh  1 3.400000e-01    1.230000e+00
  TN1h TC1er  1 3.520000e-01    1.050000e+00
  TN1r TC1eh  1 3.520000e-01    1.050000e+00
  TN1h TX4er  1 3.400000e-01    1.770000e+00
  TN1r TX4eh  1 3.400000e-01    1.770000e+00
  TN1h TX3er  1 3.400000e-01    1.770000e+00
  TN1r TX3eh  1 3.400000e-01    1.770000e+00
  TN1h TX2er  1 3.400000e-01    1.510000e+00
  TN1r TX2eh  1 3.400000e-01    1.510000e+00
  TN1h TX1er  1 3.400000e-01    1.510000e+00
  TN1r TX1eh  1 3.400000e-01    1.510000e+00
  TP6a  TP6a  1 3.400000e-01    3.220000e+00
  TP6a  TP5a  1 3.400000e-01    2.990000e+00
  TP6a  TP4a  1 3.400000e-01    2.740000e+00
  TP6a  TP3a  1 3.400000e-01    2.500000e+00
  TP6a  TP2a  1 3.400000e-01    2.500000e+00
  TP6a  TP1a  1 3.400000e-01    2.280000e+00
  TP6a  TN6a  1 3.400000e-01    2.020000e+00
  TP6a  TN5a  1 3.400000e-01    1.510000e+00
  TP6a  TN4a  1 3.400000e-01    1.230000e+00
  TP6a  TN3a  1 3.400000e-01    1.230000e+00
  TP6a  TN2a  1 3.520000e-01    1.050000e+00
  TP6a  TN1a  1 3.660000e-01    9.350000e-01
  TP5a  TP5a  1 3.400000e-01    2.740000e+00
  TP5a  TP4a  1 3.400000e-01    2.500000e+00
  TP5a  TP3a  1 3.400000e-01    2.280000e+00
  TP5a  TP2a  1 3.400000e-01    2.280000e+00
  TP5a  TP1a  1 3.400000e-01    2.020000e+00
  TP5a  TN6a  1 3.400000e-01    1.770000e+00
  TP5a  TN5a  1 3.400000e-01    1.510000e+00
  TP5a  TN4a  1 3.400000e-01    1.510000e+00
  TP5a  TN3a  1 3.400000e-01    1.230000e+00
  TP5a  TN2a  1 3.520000e-01    1.050000e+00
  TP5a  TN1a  1 3.660000e-01    9.350000e-01
  TP4a  TP4a  1 3.400000e-01    2.500000e+00
  TP4a  TP3a  1 3.400000e-01    2.280000e+00
  TP4a  TP2a  1 3.400000e-01    2.280000e+00
  TP4a  TP1a  1 3.400000e-01    2.020000e+00
  TP4a  TN6a  1 3.400000e-01    1.770000e+00
  TP4a  TN5a  1 3.400000e-01    1.510000e+00
  TP4a  TN4a  1 3.400000e-01    1.510000e+00
  TP4a  TN3a  1 3.400000e-01    1.230000e+00
  TP4a  TN2a  1 3.400000e-01    1.230000e+00
  TP4a  TN1a  1 3.520000e-01    1.050000e+00
  TP3a  TP3a  1 3.400000e-01    2.280000e+00
  TP3a  TP2a  1 3.400000e-01    2.280000e+00
  TP3a  TP1a  1 3.400000e-01    2.020000e+00
  TP3a  TN6a  1 3.400000e-01    1.770000e+00
  TP3a  TN5a  1 3.400000e-01    1.510000e+00
  TP3a  TN4a  1 3.400000e-01    1.510000e+00
  TP3a  TN3a  1 3.400000e-01    1.230000e+00
  TP3a  TN2a  1 3.400000e-01    1.230000e+00
  TP3a  TN1a  1 3.400000e-01    1.230000e+00
  TP2a  TP2a  1 3.400000e-01    2.280000e+00
  TP2a  TP1a  1 3.400000e-01    2.020000e+00
  TP2a  TN6a  1 3.400000e-01    2.020000e+00
  TP2a  TN5a  1 3.400000e-01    1.770000e+00
  TP2a  TN4a  1 3.400000e-01    1.510000e+00
  TP2a  TN3a  1 3.400000e-01    1.230000e+00
  TP2a  TN2a  1 3.400000e-01    1.230000e+00
  TP2a  TN1a  1 3.400000e-01    1.230000e+00
  TP1a  TP1a  1 3.400000e-01    2.020000e+00
  TP1a  TN6a  1 3.400000e-01    2.020000e+00
  TP1a  TN5a  1 3.400000e-01    1.770000e+00
  TP1a  TN4a  1 3.400000e-01    1.770000e+00
  TP1a  TN3a  1 3.400000e-01    1.230000e+00
  TP1a  TN2a  1 3.400000e-01    1.230000e+00
  TP1a  TN1a  1 3.400000e-01    1.230000e+00
  TN6a  TN6a  1 3.400000e-01    2.020000e+00
  TN6a  TN5a  1 3.400000e-01    2.020000e+00
  TN6a  TN4a  1 3.400000e-01    2.020000e+00
  TN6a  TN3a  1 3.400000e-01    1.510000e+00
  TN6a  TN2a  1 3.400000e-01    1.230000e+00
  TN6a  TN1a  1 3.400000e-01    1.230000e+00
  TN5a  TN5a  1 3.400000e-01    1.770000e+00
  TN5a  TN4a  1 3.400000e-01    1.770000e+00
  TN5a  TN3a  1 3.400000e-01    1.510000e+00
  TN5a  TN2a  1 3.400000e-01    1.510000e+00
  TN5a  TN1a  1 3.400000e-01    1.230000e+00
  TN4a  TN4a  1 3.400000e-01    1.770000e+00
  TN4a  TN3a  1 3.400000e-01    1.510000e+00
  TN4a  TN2a  1 3.400000e-01    1.510000e+00
  TN4a  TN1a  1 3.400000e-01    1.230000e+00
  TN3a  TN3a  1 3.400000e-01    1.510000e+00
  TN3a  TN2a  1 3.400000e-01    1.510000e+00
  TN3a  TN1a  1 3.400000e-01    1.230000e+00
  TN2a  TN2a  1 3.400000e-01    1.510000e+00
  TN2a  TN1a  1 3.400000e-01    1.230000e+00
  TN1a  TN1a  1 3.400000e-01    1.510000e+00
  TP6d  TP6d  1 3.400000e-01    3.220000e+00
  TP6d  TP5d  1 3.400000e-01    2.990000e+00
  TP6d  TP4d  1 3.400000e-01    2.740000e+00
  TP6d  TP3d  1 3.400000e-01    2.500000e+00
  TP6d  TP2d  1 3.400000e-01    2.500000e+00
  TP6d  TP1d  1 3.400000e-01    2.280000e+00
  TP6d  TN6d  1 3.400000e-01    2.020000e+00
  TP6d  TN5d  1 3.400000e-01    1.510000e+00
  TP6d  TN4d  1 3.400000e-01    1.230000e+00
  TP6d  TN3d  1 3.400000e-01    1.230000e+00
  TP6d  TN2d  1 3.520000e-01    1.050000e+00
  TP6d  TN1d  1 3.660000e-01    9.350000e-01
  TP5d  TP5d  1 3.400000e-01    2.740000e+00
  TP5d  TP4d  1 3.400000e-01    2.500000e+00
  TP5d  TP3d  1 3.400000e-01    2.280000e+00
  TP5d  TP2d  1 3.400000e-01    2.280000e+00
  TP5d  TP1d  1 3.400000e-01    2.020000e+00
  TP5d  TN6d  1 3.400000e-01    1.770000e+00
  TP5d  TN5d  1 3.400000e-01    1.510000e+00
  TP5d  TN4d  1 3.400000e-01    1.510000e+00
  TP5d  TN3d  1 3.400000e-01    1.230000e+00
  TP5d  TN2d  1 3.520000e-01    1.050000e+00
  TP5d  TN1d  1 3.660000e-01    9.350000e-01
  TP4d  TP4d  1 3.400000e-01    2.500000e+00
  TP4d  TP3d  1 3.400000e-01    2.280000e+00
  TP4d  TP2d  1 3.400000e-01    2.280000e+00
  TP4d  TP1d  1 3.400000e-01    2.020000e+00
  TP4d  TN6d  1 3.400000e-01    1.770000e+00
  TP4d  TN5d  1 3.400000e-01    1.510000e+00
  TP4d  TN4d  1 3.400000e-01    1.510000e+00
  TP4d  TN3d  1 3.400000e-01    1.230000e+00
  TP4d  TN2d  1 3.400000e-01    1.230000e+00
  TP4d  TN1d  1 3.520000e-01    1.050000e+00
  TP3d  TP3d  1 3.400000e-01    2.280000e+00
  TP3d  TP2d  1 3.400000e-01    2.280000e+00
  TP3d  TP1d  1 3.400000e-01    2.020000e+00
  TP3d  TN6d  1 3.400000e-01    1.770000e+00
  TP3d  TN5d  1 3.400000e-01    1.510000e+00
  TP3d  TN4d  1 3.400000e-01    1.510000e+00
  TP3d  TN3d  1 3.400000e-01    1.230000e+00
  TP3d  TN2d  1 3.400000e-01    1.230000e+00
  TP3d  TN1d  1 3.400000e-01    1.230000e+00
  TP2d  TP2d  1 3.400000e-01    2.280000e+00
  TP2d  TP1d  1 3.400000e-01    2.020000e+00
  TP2d  TN6d  1 3.400000e-01    2.020000e+00
  TP2d  TN5d  1 3.400000e-01    1.770000e+00
  TP2d  TN4d  1 3.400000e-01    1.510000e+00
  TP2d  TN3d  1 3.400000e-01    1.230000e+00
  TP2d  TN2d  1 3.400000e-01    1.230000e+00
  TP2d  TN1d  1 3.400000e-01    1.230000e+00
  TP1d  TP1d  1 3.400000e-01    2.020000e+00
  TP1d  TN6d  1 3.400000e-01    2.020000e+00
  TP1d  TN5d  1 3.400000e-01    1.770000e+00
  TP1d  TN4d  1 3.400000e-01    1.770000e+00
  TP1d  TN3d  1 3.400000e-01    1.230000e+00
  TP1d  TN2d  1 3.400000e-01    1.230000e+00
  TP1d  TN1d  1 3.400000e-01    1.230000e+00
  TN6d  TN6d  1 3.400000e-01    2.020000e+00
  TN6d  TN5d  1 3.400000e-01    2.020000e+00
  TN6d  TN4d  1 3.400000e-01    2.020000e+00
  TN6d  TN3d  1 3.400000e-01    1.510000e+00
  TN6d  TN2d  1 3.400000e-01    1.230000e+00
  TN6d  TN1d  1 3.400000e-01    1.230000e+00
  TN5d  TN5d  1 3.400000e-01    1.770000e+00
  TN5d  TN4d  1 3.400000e-01    1.770000e+00
  TN5d  TN3d  1 3.400000e-01    1.510000e+00
  TN5d  TN2d  1 3.400000e-01    1.510000e+00
  TN5d  TN1d  1 3.400000e-01    1.230000e+00
  TN4d  TN4d  1 3.400000e-01    1.770000e+00
  TN4d  TN3d  1 3.400000e-01    1.510000e+00
  TN4d  TN2d  1 3.400000e-01    1.510000e+00
  TN4d  TN1d  1 3.400000e-01    1.230000e+00
  TN3d  TN3d  1 3.400000e-01    1.510000e+00
  TN3d  TN2d  1 3.400000e-01    1.510000e+00
  TN3d  TN1d  1 3.400000e-01    1.230000e+00
  TN2d  TN2d  1 3.400000e-01    1.510000e+00
  TN2d  TN1d  1 3.400000e-01    1.230000e+00
  TN1d  TN1d  1 3.400000e-01    1.510000e+00
  TP6q  TP6d  1 3.400000e-01    4.020000e+00
  TP6q  TN1d  1 3.400000e-01    1.230000e+00
  TP6q  TN2d  1 3.400000e-01    1.510000e+00
  TP6q  TN3d  1 3.400000e-01    1.770000e+00
  TP6q  TN4d  1 3.400000e-01    2.020000e+00
  TP6q  TN5d  1 3.400000e-01    2.280000e+00
  TP6q  TN6d  1 3.400000e-01    2.740000e+00
  TP6q  TP1d  1 3.400000e-01    2.990000e+00
  TP6q  TP2d  1 3.400000e-01    3.220000e+00
  TP6q  TP3d  1 3.400000e-01    3.220000e+00
  TP6q  TP4d  1 3.400000e-01    3.470000e+00
  TP6q  TP5d  1 3.400000e-01    3.750000e+00
  TP6q  TP6a  1 3.400000e-01    4.020000e+00
  TP6q  TN1a  1 3.400000e-01    1.230000e+00
  TP6q  TN2a  1 3.400000e-01    1.510000e+00
  TP6q  TN3a  1 3.400000e-01    1.770000e+00
  TP6q  TN4a  1 3.400000e-01    2.020000e+00
  TP6q  TN5a  1 3.400000e-01    2.280000e+00
  TP6q  TN6a  1 3.400000e-01    2.740000e+00
  TP6q  TP1a  1 3.400000e-01    2.990000e+00
  TP6q  TP2a  1 3.400000e-01    3.220000e+00
  TP6q  TP3a  1 3.400000e-01    3.220000e+00
  TP6q  TP4a  1 3.400000e-01    3.470000e+00
  TP6q  TP5a  1 3.400000e-01    3.750000e+00
  TP6q  TC6v  1 3.400000e-01    1.510000e+00
  TP6q  TC5v  1 3.400000e-01    1.230000e+00
  TP6q  TC4v  1 3.520000e-01    1.050000e+00
  TP6q  TC3v  1 3.660000e-01    9.350000e-01
  TP6q  TC2v  1 3.660000e-01    9.350000e-01
  TP6q  TC1v  1 4.110000e-01    8.010000e-01
  TP6q  TX4v  1 3.400000e-01    1.770000e+00
  TP6q  TX3v  1 3.400000e-01    1.770000e+00
  TP6q  TX2v  1 3.400000e-01    1.510000e+00
  TP6q  TX1v  1 3.400000e-01    1.230000e+00
  TP6q  TC6e  1 3.400000e-01    1.510000e+00
  TP6q  TC5e  1 3.400000e-01    1.230000e+00
  TP6q  TC4e  1 3.520000e-01    1.050000e+00
  TP6q  TC3e  1 3.660000e-01    9.350000e-01
  TP6q  TC2e  1 3.660000e-01    9.350000e-01
  TP6q  TC1e  1 4.110000e-01    8.010000e-01
  TP6q  TX4e  1 3.400000e-01    1.770000e+00
  TP6q  TX3e  1 3.400000e-01    1.770000e+00
  TP6q  TX2e  1 3.400000e-01    1.510000e+00
  TP6q  TX1e  1 3.400000e-01    1.230000e+00
  TP6d  TP5q  1 3.400000e-01    3.750000e+00
  TP5q  TP5d  1 3.400000e-01    3.470000e+00
  TP5q  TN1d  1 3.400000e-01    1.230000e+00
  TP5q  TN2d  1 3.400000e-01    1.510000e+00
  TP5q  TN3d  1 3.400000e-01    1.770000e+00
  TP5q  TN4d  1 3.400000e-01    2.280000e+00
  TP5q  TN5d  1 3.400000e-01    2.280000e+00
  TP5q  TN6d  1 3.400000e-01    2.500000e+00
  TP5q  TP1d  1 3.400000e-01    2.740000e+00
  TP5q  TP2d  1 3.400000e-01    2.990000e+00
  TP5q  TP3d  1 3.400000e-01    2.990000e+00
  TP5q  TP4d  1 3.400000e-01    3.220000e+00
  TP6a  TP5q  1 3.400000e-01    3.750000e+00
  TP5q  TP5a  1 3.400000e-01    3.470000e+00
  TP5q  TN1a  1 3.400000e-01    1.230000e+00
  TP5q  TN2a  1 3.400000e-01    1.510000e+00
  TP5q  TN3a  1 3.400000e-01    1.770000e+00
  TP5q  TN4a  1 3.400000e-01    2.280000e+00
  TP5q  TN5a  1 3.400000e-01    2.280000e+00
  TP5q  TN6a  1 3.400000e-01    2.500000e+00
  TP5q  TP1a  1 3.400000e-01    2.740000e+00
  TP5q  TP2a  1 3.400000e-01    2.990000e+00
  TP5q  TP3a  1 3.400000e-01    2.990000e+00
  TP5q  TP4a  1 3.400000e-01    3.220000e+00
  TP5q  TC6v  1 3.400000e-01    1.510000e+00
  TP5q  TC5v  1 3.400000e-01    1.510000e+00
  TP5q  TC4v  1 3.400000e-01    1.230000e+00
  TP5q  TC3v  1 3.520000e-01    1.050000e+00
  TP5q  TC2v  1 3.520000e-01    1.050000e+00
  TP5q  TC1v  1 3.660000e-01    9.350000e-01
  TP5q  TX4v  1 3.400000e-01    2.020000e+00
  TP5q  TX3v  1 3.400000e-01    1.770000e+00
  TP5q  TX2v  1 3.400000e-01    1.770000e+00
  TP5q  TX1v  1 3.400000e-01    1.230000e+00
  TP5q  TC6e  1 3.400000e-01    1.510000e+00
  TP5q  TC5e  1 3.400000e-01    1.510000e+00
  TP5q  TC4e  1 3.400000e-01    1.230000e+00
  TP5q  TC3e  1 3.520000e-01    1.050000e+00
  TP5q  TC2e  1 3.520000e-01    1.050000e+00
  TP5q  TC1e  1 3.660000e-01    9.350000e-01
  TP5q  TX4e  1 3.400000e-01    2.020000e+00
  TP5q  TX3e  1 3.400000e-01    1.770000e+00
  TP5q  TX2e  1 3.400000e-01    1.770000e+00
  TP5q  TX1e  1 3.400000e-01    1.230000e+00
  TP6d  TP4q  1 3.400000e-01    3.470000e+00
  TP5d  TP4q  1 3.400000e-01    3.220000e+00
  TP4q  TP4d  1 3.400000e-01    3.220000e+00
  TP4q  TN1d  1 3.400000e-01    1.510000e+00
  TP4q  TN2d  1 3.400000e-01    1.770000e+00
  TP4q  TN3d  1 3.400000e-01    2.020000e+00
  TP4q  TN4d  1 3.400000e-01    2.280000e+00
  TP4q  TN5d  1 3.400000e-01    2.280000e+00
  TP4q  TN6d  1 3.400000e-01    2.500000e+00
  TP4q  TP1d  1 3.400000e-01    2.740000e+00
  TP4q  TP2d  1 3.400000e-01    2.990000e+00
  TP4q  TP3d  1 3.400000e-01    2.990000e+00
  TP6a  TP4q  1 3.400000e-01    3.470000e+00
  TP5a  TP4q  1 3.400000e-01    3.220000e+00
  TP4q  TP4a  1 3.400000e-01    3.220000e+00
  TP4q  TN1a  1 3.400000e-01    1.510000e+00
  TP4q  TN2a  1 3.400000e-01    1.770000e+00
  TP4q  TN3a  1 3.400000e-01    2.020000e+00
  TP4q  TN4a  1 3.400000e-01    2.280000e+00
  TP4q  TN5a  1 3.400000e-01    2.280000e+00
  TP4q  TN6a  1 3.400000e-01    2.500000e+00
  TP4q  TP1a  1 3.400000e-01    2.740000e+00
  TP4q  TP2a  1 3.400000e-01    2.990000e+00
  TP4q  TP3a  1 3.400000e-01    2.990000e+00
  TP4q  TC6v  1 3.400000e-01    1.770000e+00
  TP4q  TC5v  1 3.400000e-01    1.510000e+00
  TP4q  TC4v  1 3.400000e-01    1.230000e+00
  TP4q  TC3v  1 3.520000e-01    1.050000e+00
  TP4q  TC2v  1 3.520000e-01    1.050000e+00
  TP4q  TC1v  1 3.660000e-01    9.350000e-01
  TP4q  TX4v  1 3.400000e-01    2.020000e+00
  TP4q  TX3v  1 3.400000e-01    1.770000e+00
  TP4q  TX2v  1 3.400000e-01    1.770000e+00
  TP4q  TX1v  1 3.400000e-01    1.510000e+00
  TP4q  TC6e  1 3.400000e-01    1.770000e+00
  TP4q  TC5e  1 3.400000e-01    1.510000e+00
  TP4q  TC4e  1 3.400000e-01    1.230000e+00
  TP4q  TC3e  1 3.520000e-01    1.050000e+00
  TP4q  TC2e  1 3.520000e-01    1.050000e+00
  TP4q  TC1e  1 3.660000e-01    9.350000e-01
  TP4q  TX4e  1 3.400000e-01    2.020000e+00
  TP4q  TX3e  1 3.400000e-01    1.770000e+00
  TP4q  TX2e  1 3.400000e-01    1.770000e+00
  TP4q  TX1e  1 3.400000e-01    1.510000e+00
  TP6d  TP3q  1 3.400000e-01    3.220000e+00
  TP5d  TP3q  1 3.400000e-01    2.990000e+00
  TP4d  TP3q  1 3.400000e-01    2.990000e+00
  TP3q  TP3d  1 3.400000e-01    2.990000e+00
  TP3q  TN1d  1 3.400000e-01    1.770000e+00
  TP3q  TN2d  1 3.400000e-01    2.020000e+00
  TP3q  TN3d  1 3.400000e-01    2.020000e+00
  TP3q  TN4d  1 3.400000e-01    2.280000e+00
  TP3q  TN5d  1 3.400000e-01    2.280000e+00
  TP3q  TN6d  1 3.400000e-01    2.500000e+00
  TP3q  TP1d  1 3.400000e-01    2.740000e+00
  TP3q  TP2d  1 3.400000e-01    2.990000e+00
  TP6a  TP3q  1 3.400000e-01    3.220000e+00
  TP5a  TP3q  1 3.400000e-01    2.990000e+00
  TP4a  TP3q  1 3.400000e-01    2.990000e+00
  TP3q  TP3a  1 3.400000e-01    2.990000e+00
  TP3q  TN1a  1 3.400000e-01    1.770000e+00
  TP3q  TN2a  1 3.400000e-01    2.020000e+00
  TP3q  TN3a  1 3.400000e-01    2.020000e+00
  TP3q  TN4a  1 3.400000e-01    2.280000e+00
  TP3q  TN5a  1 3.400000e-01    2.280000e+00
  TP3q  TN6a  1 3.400000e-01    2.500000e+00
  TP3q  TP1a  1 3.400000e-01    2.740000e+00
  TP3q  TP2a  1 3.400000e-01    2.990000e+00
  TP3q  TC6v  1 3.400000e-01    2.020000e+00
  TP3q  TC5v  1 3.400000e-01    1.770000e+00
  TP3q  TC4v  1 3.400000e-01    1.510000e+00
  TP3q  TC3v  1 3.520000e-01    1.050000e+00
  TP3q  TC2v  1 3.520000e-01    1.050000e+00
  TP3q  TC1v  1 3.660000e-01    9.350000e-01
  TP3q  TX4v  1 3.400000e-01    2.020000e+00
  TP3q  TX3v  1 3.400000e-01    2.020000e+00
  TP3q  TX2v  1 3.400000e-01    1.770000e+00
  TP3q  TX1v  1 3.400000e-01    1.510000e+00
  TP3q  TC6e  1 3.400000e-01    2.020000e+00
  TP3q  TC5e  1 3.400000e-01    1.770000e+00
  TP3q  TC4e  1 3.400000e-01    1.510000e+00
  TP3q  TC3e  1 3.520000e-01    1.050000e+00
  TP3q  TC2e  1 3.520000e-01    1.050000e+00
  TP3q  TC1e  1 3.660000e-01    9.350000e-01
  TP3q  TX4e  1 3.400000e-01    2.020000e+00
  TP3q  TX3e  1 3.400000e-01    2.020000e+00
  TP3q  TX2e  1 3.400000e-01    1.770000e+00
  TP3q  TX1e  1 3.400000e-01    1.510000e+00
  TP6d  TP2q  1 3.400000e-01    3.220000e+00
  TP5d  TP2q  1 3.400000e-01    2.990000e+00
  TP4d  TP2q  1 3.400000e-01    2.990000e+00
  TP3d  TP2q  1 3.400000e-01    2.990000e+00
  TP2q  TP2d  1 3.400000e-01    2.990000e+00
  TP2q  TN1d  1 3.400000e-01    2.020000e+00
  TP2q  TN2d  1 3.400000e-01    2.020000e+00
  TP2q  TN3d  1 3.400000e-01    2.020000e+00
  TP2q  TN4d  1 3.400000e-01    2.280000e+00
  TP2q  TN5d  1 3.400000e-01    2.500000e+00
  TP2q  TN6d  1 3.400000e-01    2.740000e+00
  TP2q  TP1d  1 3.400000e-01    2.740000e+00
  TP6a  TP2q  1 3.400000e-01    3.220000e+00
  TP5a  TP2q  1 3.400000e-01    2.990000e+00
  TP4a  TP2q  1 3.400000e-01    2.990000e+00
  TP3a  TP2q  1 3.400000e-01    2.990000e+00
  TP2q  TP2a  1 3.400000e-01    2.990000e+00
  TP2q  TN1a  1 3.400000e-01    2.020000e+00
  TP2q  TN2a  1 3.400000e-01    2.020000e+00
  TP2q  TN3a  1 3.400000e-01    2.020000e+00
  TP2q  TN4a  1 3.400000e-01    2.280000e+00
  TP2q  TN5a  1 3.400000e-01    2.500000e+00
  TP2q  TN6a  1 3.400000e-01    2.740000e+00
  TP2q  TP1a  1 3.400000e-01    2.740000e+00
  TP2q  TC6v  1 3.400000e-01    2.020000e+00
  TP2q  TC5v  1 3.400000e-01    1.770000e+00
  TP2q  TC4v  1 3.400000e-01    1.510000e+00
  TP2q  TC3v  1 3.400000e-01    1.230000e+00
  TP2q  TC2v  1 3.400000e-01    1.230000e+00
  TP2q  TC1v  1 3.520000e-01    1.050000e+00
  TP2q  TX4v  1 3.400000e-01    2.020000e+00
  TP2q  TX3v  1 3.400000e-01    2.020000e+00
  TP2q  TX2v  1 3.400000e-01    1.770000e+00
  TP2q  TX1v  1 3.400000e-01    1.510000e+00
  TP2q  TC6e  1 3.400000e-01    2.020000e+00
  TP2q  TC5e  1 3.400000e-01    1.770000e+00
  TP2q  TC4e  1 3.400000e-01    1.510000e+00
  TP2q  TC3e  1 3.400000e-01    1.230000e+00
  TP2q  TC2e  1 3.400000e-01    1.230000e+00
  TP2q  TC1e  1 3.520000e-01    1.050000e+00
  TP2q  TX4e  1 3.400000e-01    2.020000e+00
  TP2q  TX3e  1 3.400000e-01    2.020000e+00
  TP2q  TX2e  1 3.400000e-01    1.770000e+00
  TP2q  TX1e  1 3.400000e-01    1.510000e+00
  TP6d  TP1q  1 3.400000e-01    2.990000e+00
  TP5d  TP1q  1 3.400000e-01    2.740000e+00
  TP4d  TP1q  1 3.400000e-01    2.740000e+00
  TP3d  TP1q  1 3.400000e-01    2.740000e+00
  TP2d  TP1q  1 3.400000e-01    2.740000e+00
  TP1q  TP1d  1 3.400000e-01    2.740000e+00
  TP1q  TN1d  1 3.400000e-01    2.020000e+00
  TP1q  TN2d  1 3.400000e-01    2.020000e+00
  TP1q  TN3d  1 3.400000e-01    2.020000e+00
  TP1q  TN4d  1 3.400000e-01    2.500000e+00
  TP1q  TN5d  1 3.400000e-01    2.500000e+00
  TP1q  TN6d  1 3.400000e-01    2.740000e+00
  TP6a  TP1q  1 3.400000e-01    2.990000e+00
  TP5a  TP1q  1 3.400000e-01    2.740000e+00
  TP4a  TP1q  1 3.400000e-01    2.740000e+00
  TP3a  TP1q  1 3.400000e-01    2.740000e+00
  TP2a  TP1q  1 3.400000e-01    2.740000e+00
  TP1q  TP1a  1 3.400000e-01    2.740000e+00
  TP1q  TN1a  1 3.400000e-01    2.020000e+00
  TP1q  TN2a  1 3.400000e-01    2.020000e+00
  TP1q  TN3a  1 3.400000e-01    2.020000e+00
  TP1q  TN4a  1 3.400000e-01    2.500000e+00
  TP1q  TN5a  1 3.400000e-01    2.500000e+00
  TP1q  TN6a  1 3.400000e-01    2.740000e+00
  TP1q  TC6v  1 3.400000e-01    2.020000e+00
  TP1q  TC5v  1 3.400000e-01    1.770000e+00
  TP1q  TC4v  1 3.400000e-01    1.510000e+00
  TP1q  TC3v  1 3.400000e-01    1.230000e+00
  TP1q  TC2v  1 3.400000e-01    1.230000e+00
  TP1q  TC1v  1 3.520000e-01    1.050000e+00
  TP1q  TX4v  1 3.400000e-01    2.020000e+00
  TP1q  TX3v  1 3.400000e-01    2.020000e+00
  TP1q  TX2v  1 3.400000e-01    1.770000e+00
  TP1q  TX1v  1 3.400000e-01    1.510000e+00
  TP1q  TC6e  1 3.400000e-01    2.020000e+00
  TP1q  TC5e  1 3.400000e-01    1.770000e+00
  TP1q  TC4e  1 3.400000e-01    1.510000e+00
  TP1q  TC3e  1 3.400000e-01    1.230000e+00
  TP1q  TC2e  1 3.400000e-01    1.230000e+00
  TP1q  TC1e  1 3.520000e-01    1.050000e+00
  TP1q  TX4e  1 3.400000e-01    2.020000e+00
  TP1q  TX3e  1 3.400000e-01    2.020000e+00
  TP1q  TX2e  1 3.400000e-01    1.770000e+00
  TP1q  TX1e  1 3.400000e-01    1.510000e+00
  TP6d  TN6q  1 3.400000e-01    2.740000e+00
  TP5d  TN6q  1 3.400000e-01    2.500000e+00
  TP4d  TN6q  1 3.400000e-01    2.500000e+00
  TP3d  TN6q  1 3.400000e-01    2.500000e+00
  TP2d  TN6q  1 3.400000e-01    2.740000e+00
  TP1d  TN6q  1 3.400000e-01    2.740000e+00
  TN6q  TN6d  1 3.400000e-01    2.740000e+00
  TN6q  TN1d  1 3.400000e-01    2.020000e+00
  TN6q  TN2d  1 3.400000e-01    2.020000e+00
  TN6q  TN3d  1 3.400000e-01    2.280000e+00
  TN6q  TN4d  1 3.400000e-01    2.740000e+00
  TN6q  TN5d  1 3.400000e-01    2.740000e+00
  TP6a  TN6q  1 3.400000e-01    2.740000e+00
  TP5a  TN6q  1 3.400000e-01    2.500000e+00
  TP4a  TN6q  1 3.400000e-01    2.500000e+00
  TP3a  TN6q  1 3.400000e-01    2.500000e+00
  TP2a  TN6q  1 3.400000e-01    2.740000e+00
  TP1a  TN6q  1 3.400000e-01    2.740000e+00
  TN6q  TN6a  1 3.400000e-01    2.740000e+00
  TN6q  TN1a  1 3.400000e-01    2.020000e+00
  TN6q  TN2a  1 3.400000e-01    2.020000e+00
  TN6q  TN3a  1 3.400000e-01    2.280000e+00
  TN6q  TN4a  1 3.400000e-01    2.740000e+00
  TN6q  TN5a  1 3.400000e-01    2.740000e+00
  TN6q  TC6v  1 3.400000e-01    2.280000e+00
  TN6q  TC5v  1 3.400000e-01    2.020000e+00
  TN6q  TC4v  1 3.400000e-01    1.770000e+00
  TN6q  TC3v  1 3.400000e-01    1.510000e+00
  TN6q  TC2v  1 3.400000e-01    1.510000e+00
  TN6q  TC1v  1 3.400000e-01    1.230000e+00
  TN6q  TX4v  1 3.400000e-01    2.280000e+00
  TN6q  TX3v  1 3.400000e-01    2.020000e+00
  TN6q  TX2v  1 3.400000e-01    1.770000e+00
  TN6q  TX1v  1 3.400000e-01    1.510000e+00
  TN6q  TC6e  1 3.400000e-01    2.280000e+00
  TN6q  TC5e  1 3.400000e-01    2.020000e+00
  TN6q  TC4e  1 3.400000e-01    1.770000e+00
  TN6q  TC3e  1 3.400000e-01    1.510000e+00
  TN6q  TC2e  1 3.400000e-01    1.510000e+00
  TN6q  TC1e  1 3.400000e-01    1.230000e+00
  TN6q  TX4e  1 3.400000e-01    2.280000e+00
  TN6q  TX3e  1 3.400000e-01    2.020000e+00
  TN6q  TX2e  1 3.400000e-01    1.770000e+00
  TN6q  TX1e  1 3.400000e-01    1.510000e+00
  TP6d  TN5q  1 3.400000e-01    2.280000e+00
  TP5d  TN5q  1 3.400000e-01    2.280000e+00
  TP4d  TN5q  1 3.400000e-01    2.280000e+00
  TP3d  TN5q  1 3.400000e-01    2.280000e+00
  TP2d  TN5q  1 3.400000e-01    2.500000e+00
  TP1d  TN5q  1 3.400000e-01    2.500000e+00
  TN6d  TN5q  1 3.400000e-01    2.740000e+00
  TN5q  TN5d  1 3.400000e-01    2.500000e+00
  TN5q  TN1d  1 3.400000e-01    2.020000e+00
  TN5q  TN2d  1 3.400000e-01    2.280000e+00
  TN5q  TN3d  1 3.400000e-01    2.280000e+00
  TN5q  TN4d  1 3.400000e-01    2.500000e+00
  TP6a  TN5q  1 3.400000e-01    2.280000e+00
  TP5a  TN5q  1 3.400000e-01    2.280000e+00
  TP4a  TN5q  1 3.400000e-01    2.280000e+00
  TP3a  TN5q  1 3.400000e-01    2.280000e+00
  TP2a  TN5q  1 3.400000e-01    2.500000e+00
  TP1a  TN5q  1 3.400000e-01    2.500000e+00
  TN6a  TN5q  1 3.400000e-01    2.740000e+00
  TN5q  TN5a  1 3.400000e-01    2.500000e+00
  TN5q  TN1a  1 3.400000e-01    2.020000e+00
  TN5q  TN2a  1 3.400000e-01    2.280000e+00
  TN5q  TN3a  1 3.400000e-01    2.280000e+00
  TN5q  TN4a  1 3.400000e-01    2.500000e+00
  TN5q  TC6v  1 3.400000e-01    2.280000e+00
  TN5q  TC5v  1 3.400000e-01    2.020000e+00
  TN5q  TC4v  1 3.400000e-01    1.770000e+00
  TN5q  TC3v  1 3.400000e-01    1.770000e+00
  TN5q  TC2v  1 3.400000e-01    1.510000e+00
  TN5q  TC1v  1 3.400000e-01    1.230000e+00
  TN5q  TX4v  1 3.400000e-01    2.500000e+00
  TN5q  TX3v  1 3.400000e-01    2.280000e+00
  TN5q  TX2v  1 3.400000e-01    2.020000e+00
  TN5q  TX1v  1 3.400000e-01    1.770000e+00
  TN5q  TC6e  1 3.400000e-01    2.280000e+00
  TN5q  TC5e  1 3.400000e-01    2.020000e+00
  TN5q  TC4e  1 3.400000e-01    1.770000e+00
  TN5q  TC3e  1 3.400000e-01    1.770000e+00
  TN5q  TC2e  1 3.400000e-01    1.510000e+00
  TN5q  TC1e  1 3.400000e-01    1.230000e+00
  TN5q  TX4e  1 3.400000e-01    2.500000e+00
  TN5q  TX3e  1 3.400000e-01    2.280000e+00
  TN5q  TX2e  1 3.400000e-01    2.020000e+00
  TN5q  TX1e  1 3.400000e-01    1.770000e+00
  TP6d  TN4q  1 3.400000e-01    2.020000e+00
  TP5d  TN4q  1 3.400000e-01    2.280000e+00
  TP4d  TN4q  1 3.400000e-01    2.280000e+00
  TP3d  TN4q  1 3.400000e-01    2.280000e+00
  TP2d  TN4q  1 3.400000e-01    2.280000e+00
  TP1d  TN4q  1 3.400000e-01    2.500000e+00
  TN6d  TN4q  1 3.400000e-01    2.740000e+00
  TN5d  TN4q  1 3.400000e-01    2.500000e+00
  TN4q  TN4d  1 3.400000e-01    2.500000e+00
  TN4q  TN1d  1 3.400000e-01    2.020000e+00
  TN4q  TN2d  1 3.400000e-01    2.280000e+00
  TN4q  TN3d  1 3.400000e-01    2.280000e+00
  TP6a  TN4q  1 3.400000e-01    2.020000e+00
  TP5a  TN4q  1 3.400000e-01    2.280000e+00
  TP4a  TN4q  1 3.400000e-01    2.280000e+00
  TP3a  TN4q  1 3.400000e-01    2.280000e+00
  TP2a  TN4q  1 3.400000e-01    2.280000e+00
  TP1a  TN4q  1 3.400000e-01    2.500000e+00
  TN6a  TN4q  1 3.400000e-01    2.740000e+00
  TN5a  TN4q  1 3.400000e-01    2.500000e+00
  TN4q  TN4a  1 3.400000e-01    2.500000e+00
  TN4q  TN1a  1 3.400000e-01    2.020000e+00
  TN4q  TN2a  1 3.400000e-01    2.280000e+00
  TN4q  TN3a  1 3.400000e-01    2.280000e+00
  TN4q  TC6v  1 3.400000e-01    2.280000e+00
  TN4q  TC5v  1 3.400000e-01    2.020000e+00
  TN4q  TC4v  1 3.400000e-01    2.020000e+00
  TN4q  TC3v  1 3.400000e-01    1.770000e+00
  TN4q  TC2v  1 3.400000e-01    1.510000e+00
  TN4q  TC1v  1 3.400000e-01    1.230000e+00
  TN4q  TX4v  1 3.400000e-01    2.740000e+00
  TN4q  TX3v  1 3.400000e-01    2.500000e+00
  TN4q  TX2v  1 3.400000e-01    2.020000e+00
  TN4q  TX1v  1 3.400000e-01    1.770000e+00
  TN4q  TC6e  1 3.400000e-01    2.280000e+00
  TN4q  TC5e  1 3.400000e-01    2.020000e+00
  TN4q  TC4e  1 3.400000e-01    2.020000e+00
  TN4q  TC3e  1 3.400000e-01    1.770000e+00
  TN4q  TC2e  1 3.400000e-01    1.510000e+00
  TN4q  TC1e  1 3.400000e-01    1.230000e+00
  TN4q  TX4e  1 3.400000e-01    2.740000e+00
  TN4q  TX3e  1 3.400000e-01    2.500000e+00
  TN4q  TX2e  1 3.400000e-01    2.020000e+00
  TN4q  TX1e  1 3.400000e-01    1.770000e+00
  TP6d  TN3q  1 3.400000e-01    1.770000e+00
  TP5d  TN3q  1 3.400000e-01    1.770000e+00
  TP4d  TN3q  1 3.400000e-01    2.020000e+00
  TP3d  TN3q  1 3.400000e-01    2.020000e+00
  TP2d  TN3q  1 3.400000e-01    2.020000e+00
  TP1d  TN3q  1 3.400000e-01    2.020000e+00
  TN6d  TN3q  1 3.400000e-01    2.280000e+00
  TN5d  TN3q  1 3.400000e-01    2.280000e+00
  TN4d  TN3q  1 3.400000e-01    2.280000e+00
  TN3q  TN3d  1 3.400000e-01    2.280000e+00
  TN3q  TN1d  1 3.400000e-01    2.020000e+00
  TN3q  TN2d  1 3.400000e-01    2.280000e+00
  TP6a  TN3q  1 3.400000e-01    1.770000e+00
  TP5a  TN3q  1 3.400000e-01    1.770000e+00
  TP4a  TN3q  1 3.400000e-01    2.020000e+00
  TP3a  TN3q  1 3.400000e-01    2.020000e+00
  TP2a  TN3q  1 3.400000e-01    2.020000e+00
  TP1a  TN3q  1 3.400000e-01    2.020000e+00
  TN6a  TN3q  1 3.400000e-01    2.280000e+00
  TN5a  TN3q  1 3.400000e-01    2.280000e+00
  TN4a  TN3q  1 3.400000e-01    2.280000e+00
  TN3q  TN3a  1 3.400000e-01    2.280000e+00
  TN3q  TN1a  1 3.400000e-01    2.020000e+00
  TN3q  TN2a  1 3.400000e-01    2.280000e+00
  TN3q  TC6v  1 3.400000e-01    2.280000e+00
  TN3q  TC5v  1 3.400000e-01    2.020000e+00
  TN3q  TC4v  1 3.400000e-01    2.020000e+00
  TN3q  TC3v  1 3.400000e-01    1.770000e+00
  TN3q  TC2v  1 3.400000e-01    1.770000e+00
  TN3q  TC1v  1 3.400000e-01    1.510000e+00
  TN3q  TX4v  1 3.400000e-01    2.500000e+00
  TN3q  TX3v  1 3.400000e-01    2.280000e+00
  TN3q  TX2v  1 3.400000e-01    2.020000e+00
  TN3q  TX1v  1 3.400000e-01    2.020000e+00
  TN3q  TC6e  1 3.400000e-01    2.280000e+00
  TN3q  TC5e  1 3.400000e-01    2.020000e+00
  TN3q  TC4e  1 3.400000e-01    2.020000e+00
  TN3q  TC3e  1 3.400000e-01    1.770000e+00
  TN3q  TC2e  1 3.400000e-01    1.770000e+00
  TN3q  TC1e  1 3.400000e-01    1.510000e+00
  TN3q  TX4e  1 3.400000e-01    2.500000e+00
  TN3q  TX3e  1 3.400000e-01    2.280000e+00
  TN3q  TX2e  1 3.400000e-01    2.020000e+00
  TN3q  TX1e  1 3.400000e-01    2.020000e+00
  TP6d  TN2q  1 3.400000e-01    1.510000e+00
  TP5d  TN2q  1 3.400000e-01    1.510000e+00
  TP4d  TN2q  1 3.400000e-01    1.770000e+00
  TP3d  TN2q  1 3.400000e-01    2.020000e+00
  TP2d  TN2q  1 3.400000e-01    2.020000e+00
  TP1d  TN2q  1 3.400000e-01    2.020000e+00
  TN6d  TN2q  1 3.400000e-01    2.020000e+00
  TN5d  TN2q  1 3.400000e-01    2.280000e+00
  TN4d  TN2q  1 3.400000e-01    2.280000e+00
  TN3d  TN2q  1 3.400000e-01    2.280000e+00
  TN2q  TN2d  1 3.400000e-01    2.280000e+00
  TN2q  TN1d  1 3.400000e-01    2.020000e+00
  TP6a  TN2q  1 3.400000e-01    1.510000e+00
  TP5a  TN2q  1 3.400000e-01    1.510000e+00
  TP4a  TN2q  1 3.400000e-01    1.770000e+00
  TP3a  TN2q  1 3.400000e-01    2.020000e+00
  TP2a  TN2q  1 3.400000e-01    2.020000e+00
  TP1a  TN2q  1 3.400000e-01    2.020000e+00
  TN6a  TN2q  1 3.400000e-01    2.020000e+00
  TN5a  TN2q  1 3.400000e-01    2.280000e+00
  TN4a  TN2q  1 3.400000e-01    2.280000e+00
  TN3a  TN2q  1 3.400000e-01    2.280000e+00
  TN2q  TN2a  1 3.400000e-01    2.280000e+00
  TN2q  TN1a  1 3.400000e-01    2.020000e+00
  TN2q  TC6v  1 3.400000e-01    2.280000e+00
  TN2q  TC5v  1 3.400000e-01    2.020000e+00
  TN2q  TC4v  1 3.400000e-01    2.020000e+00
  TN2q  TC3v  1 3.400000e-01    2.020000e+00
  TN2q  TC2v  1 3.400000e-01    1.770000e+00
  TN2q  TC1v  1 3.400000e-01    1.510000e+00
  TN2q  TX4v  1 3.400000e-01    2.500000e+00
  TN2q  TX3v  1 3.400000e-01    2.280000e+00
  TN2q  TX2v  1 3.400000e-01    2.020000e+00
  TN2q  TX1v  1 3.400000e-01    2.020000e+00
  TN2q  TC6e  1 3.400000e-01    2.280000e+00
  TN2q  TC5e  1 3.400000e-01    2.020000e+00
  TN2q  TC4e  1 3.400000e-01    2.020000e+00
  TN2q  TC3e  1 3.400000e-01    2.020000e+00
  TN2q  TC2e  1 3.400000e-01    1.770000e+00
  TN2q  TC1e  1 3.400000e-01    1.510000e+00
  TN2q  TX4e  1 3.400000e-01    2.500000e+00
  TN2q  TX3e  1 3.400000e-01    2.280000e+00
  TN2q  TX2e  1 3.400000e-01    2.020000e+00
  TN2q  TX1e  1 3.400000e-01    2.020000e+00
  TP6d  TN1q  1 3.400000e-01    1.230000e+00
  TP5d  TN1q  1 3.400000e-01    1.230000e+00
  TP4d  TN1q  1 3.400000e-01    1.510000e+00
  TP3d  TN1q  1 3.400000e-01    1.770000e+00
  TP2d  TN1q  1 3.400000e-01    2.020000e+00
  TP1d  TN1q  1 3.400000e-01    2.020000e+00
  TN6d  TN1q  1 3.400000e-01    2.020000e+00
  TN5d  TN1q  1 3.400000e-01    2.020000e+00
  TN4d  TN1q  1 3.400000e-01    2.020000e+00
  TN3d  TN1q  1 3.400000e-01    2.020000e+00
  TN2d  TN1q  1 3.400000e-01    2.020000e+00
  TN1q  TN1d  1 3.400000e-01    2.280000e+00
  TP6a  TN1q  1 3.400000e-01    1.230000e+00
  TP5a  TN1q  1 3.400000e-01    1.230000e+00
  TP4a  TN1q  1 3.400000e-01    1.510000e+00
  TP3a  TN1q  1 3.400000e-01    1.770000e+00
  TP2a  TN1q  1 3.400000e-01    2.020000e+00
  TP1a  TN1q  1 3.400000e-01    2.020000e+00
  TN6a  TN1q  1 3.400000e-01    2.020000e+00
  TN5a  TN1q  1 3.400000e-01    2.020000e+00
  TN4a  TN1q  1 3.400000e-01    2.020000e+00
  TN3a  TN1q  1 3.400000e-01    2.020000e+00
  TN2a  TN1q  1 3.400000e-01    2.020000e+00
  TN1q  TN1a  1 3.400000e-01    2.280000e+00
  TN1q  TC6v  1 3.400000e-01    2.500000e+00
  TN1q  TC5v  1 3.400000e-01    2.280000e+00
  TN1q  TC4v  1 3.400000e-01    2.280000e+00
  TN1q  TC3v  1 3.400000e-01    2.020000e+00
  TN1q  TC2v  1 3.400000e-01    1.770000e+00
  TN1q  TC1v  1 3.400000e-01    1.510000e+00
  TN1q  TX4v  1 3.400000e-01    2.280000e+00
  TN1q  TX3v  1 3.400000e-01    2.280000e+00
  TN1q  TX2v  1 3.400000e-01    2.020000e+00
  TN1q  TX1v  1 3.400000e-01    2.020000e+00
  TN1q  TC6e  1 3.400000e-01    2.500000e+00
  TN1q  TC5e  1 3.400000e-01    2.280000e+00
  TN1q  TC4e  1 3.400000e-01    2.280000e+00
  TN1q  TC3e  1 3.400000e-01    2.020000e+00
  TN1q  TC2e  1 3.400000e-01    1.770000e+00
  TN1q  TC1e  1 3.400000e-01    1.510000e+00
  TN1q  TX4e  1 3.400000e-01    2.280000e+00
  TN1q  TX3e  1 3.400000e-01    2.280000e+00
  TN1q  TX2e  1 3.400000e-01    2.020000e+00
  TN1q  TX1e  1 3.400000e-01    2.020000e+00
  TP6d  TC6q  1 3.400000e-01    1.230000e+00
  TP5d  TC6q  1 3.400000e-01    1.230000e+00
  TP4d  TC6q  1 3.400000e-01    1.510000e+00
  TP3d  TC6q  1 3.400000e-01    1.770000e+00
  TP2d  TC6q  1 3.400000e-01    1.770000e+00
  TP1d  TC6q  1 3.400000e-01    1.770000e+00
  TN6d  TC6q  1 3.400000e-01    2.020000e+00
  TN5d  TC6q  1 3.400000e-01    2.020000e+00
  TN4d  TC6q  1 3.400000e-01    2.020000e+00
  TN3d  TC6q  1 3.400000e-01    2.020000e+00
  TN2d  TC6q  1 3.400000e-01    2.020000e+00
  TN1d  TC6q  1 3.400000e-01    2.280000e+00
  TP6a  TC6q  1 3.400000e-01    1.230000e+00
  TP5a  TC6q  1 3.400000e-01    1.230000e+00
  TP4a  TC6q  1 3.400000e-01    1.510000e+00
  TP3a  TC6q  1 3.400000e-01    1.770000e+00
  TP2a  TC6q  1 3.400000e-01    1.770000e+00
  TP1a  TC6q  1 3.400000e-01    1.770000e+00
  TN6a  TC6q  1 3.400000e-01    2.020000e+00
  TN5a  TC6q  1 3.400000e-01    2.020000e+00
  TN4a  TC6q  1 3.400000e-01    2.020000e+00
  TN3a  TC6q  1 3.400000e-01    2.020000e+00
  TN2a  TC6q  1 3.400000e-01    2.020000e+00
  TN1a  TC6q  1 3.400000e-01    2.280000e+00
  TC6q  TC6v  1 3.400000e-01    2.500000e+00
  TC6q  TX1v  1 3.400000e-01    2.280000e+00
  TC6q  TX2v  1 3.400000e-01    2.280000e+00
  TC6q  TX3v  1 3.400000e-01    2.280000e+00
  TC6q  TX4v  1 3.400000e-01    2.280000e+00
  TC6q  TC1v  1 3.400000e-01    1.510000e+00
  TC6q  TC2v  1 3.400000e-01    1.770000e+00
  TC6q  TC3v  1 3.400000e-01    2.020000e+00
  TC6q  TC4v  1 3.400000e-01    2.280000e+00
  TC6q  TC5v  1 3.400000e-01    2.280000e+00
  TC6q  TC6e  1 3.400000e-01    2.500000e+00
  TC6q  TX1e  1 3.400000e-01    2.280000e+00
  TC6q  TX2e  1 3.400000e-01    2.280000e+00
  TC6q  TX3e  1 3.400000e-01    2.280000e+00
  TC6q  TX4e  1 3.400000e-01    2.280000e+00
  TC6q  TC1e  1 3.400000e-01    1.510000e+00
  TC6q  TC2e  1 3.400000e-01    1.770000e+00
  TC6q  TC3e  1 3.400000e-01    2.020000e+00
  TC6q  TC4e  1 3.400000e-01    2.280000e+00
  TC6q  TC5e  1 3.400000e-01    2.280000e+00
  TP6d  TC5q  1 3.520000e-01    1.050000e+00
  TP5d  TC5q  1 3.400000e-01    1.230000e+00
  TP4d  TC5q  1 3.400000e-01    1.230000e+00
  TP3d  TC5q  1 3.400000e-01    1.510000e+00
  TP2d  TC5q  1 3.400000e-01    1.510000e+00
  TP1d  TC5q  1 3.400000e-01    1.510000e+00
  TN6d  TC5q  1 3.400000e-01    1.770000e+00
  TN5d  TC5q  1 3.400000e-01    1.770000e+00
  TN4d  TC5q  1 3.400000e-01    1.770000e+00
  TN3d  TC5q  1 3.400000e-01    1.770000e+00
  TN2d  TC5q  1 3.400000e-01    1.770000e+00
  TN1d  TC5q  1 3.400000e-01    2.020000e+00
  TP6a  TC5q  1 3.520000e-01    1.050000e+00
  TP5a  TC5q  1 3.400000e-01    1.230000e+00
  TP4a  TC5q  1 3.400000e-01    1.230000e+00
  TP3a  TC5q  1 3.400000e-01    1.510000e+00
  TP2a  TC5q  1 3.400000e-01    1.510000e+00
  TP1a  TC5q  1 3.400000e-01    1.510000e+00
  TN6a  TC5q  1 3.400000e-01    1.770000e+00
  TN5a  TC5q  1 3.400000e-01    1.770000e+00
  TN4a  TC5q  1 3.400000e-01    1.770000e+00
  TN3a  TC5q  1 3.400000e-01    1.770000e+00
  TN2a  TC5q  1 3.400000e-01    1.770000e+00
  TN1a  TC5q  1 3.400000e-01    2.020000e+00
  TC6v  TC5q  1 3.400000e-01    2.280000e+00
  TC5q  TC5v  1 3.400000e-01    2.280000e+00
  TC5q  TX1v  1 3.400000e-01    2.280000e+00
  TC5q  TX2v  1 3.400000e-01    2.020000e+00
  TC5q  TX3v  1 3.400000e-01    2.020000e+00
  TC5q  TX4v  1 3.400000e-01    2.020000e+00
  TC5q  TC1v  1 3.400000e-01    1.770000e+00
  TC5q  TC2v  1 3.400000e-01    1.770000e+00
  TC5q  TC3v  1 3.400000e-01    2.020000e+00
  TC5q  TC4v  1 3.400000e-01    2.280000e+00
  TC6e  TC5q  1 3.400000e-01    2.280000e+00
  TC5q  TC5e  1 3.400000e-01    2.280000e+00
  TC5q  TX1e  1 3.400000e-01    2.280000e+00
  TC5q  TX2e  1 3.400000e-01    2.020000e+00
  TC5q  TX3e  1 3.400000e-01    2.020000e+00
  TC5q  TX4e  1 3.400000e-01    2.020000e+00
  TC5q  TC1e  1 3.400000e-01    1.770000e+00
  TC5q  TC2e  1 3.400000e-01    1.770000e+00
  TC5q  TC3e  1 3.400000e-01    2.020000e+00
  TC5q  TC4e  1 3.400000e-01    2.280000e+00
  TP6d  TC4q  1 3.660000e-01    9.350000e-01
  TP5d  TC4q  1 3.520000e-01    1.050000e+00
  TP4d  TC4q  1 3.520000e-01    1.050000e+00
  TP3d  TC4q  1 3.400000e-01    1.230000e+00
  TP2d  TC4q  1 3.400000e-01    1.230000e+00
  TP1d  TC4q  1 3.400000e-01    1.230000e+00
  TN6d  TC4q  1 3.400000e-01    1.510000e+00
  TN5d  TC4q  1 3.400000e-01    1.510000e+00
  TN4d  TC4q  1 3.400000e-01    1.770000e+00
  TN3d  TC4q  1 3.400000e-01    1.770000e+00
  TN2d  TC4q  1 3.400000e-01    1.770000e+00
  TN1d  TC4q  1 3.400000e-01    2.020000e+00
  TP6a  TC4q  1 3.660000e-01    9.350000e-01
  TP5a  TC4q  1 3.520000e-01    1.050000e+00
  TP4a  TC4q  1 3.520000e-01    1.050000e+00
  TP3a  TC4q  1 3.400000e-01    1.230000e+00
  TP2a  TC4q  1 3.400000e-01    1.230000e+00
  TP1a  TC4q  1 3.400000e-01    1.230000e+00
  TN6a  TC4q  1 3.400000e-01    1.510000e+00
  TN5a  TC4q  1 3.400000e-01    1.510000e+00
  TN4a  TC4q  1 3.400000e-01    1.770000e+00
  TN3a  TC4q  1 3.400000e-01    1.770000e+00
  TN2a  TC4q  1 3.400000e-01    1.770000e+00
  TN1a  TC4q  1 3.400000e-01    2.020000e+00
  TC6v  TC4q  1 3.400000e-01    2.280000e+00
  TC5v  TC4q  1 3.400000e-01    2.280000e+00
  TC4q  TC4v  1 3.400000e-01    2.280000e+00
  TC4q  TX1v  1 3.400000e-01    2.280000e+00
  TC4q  TX2v  1 3.400000e-01    2.020000e+00
  TC4q  TX3v  1 3.400000e-01    2.020000e+00
  TC4q  TX4v  1 3.400000e-01    2.020000e+00
  TC4q  TC1v  1 3.400000e-01    1.770000e+00
  TC4q  TC2v  1 3.400000e-01    2.020000e+00
  TC4q  TC3v  1 3.400000e-01    2.280000e+00
  TC6e  TC4q  1 3.400000e-01    2.280000e+00
  TC5e  TC4q  1 3.400000e-01    2.280000e+00
  TC4q  TC4e  1 3.400000e-01    2.280000e+00
  TC4q  TX1e  1 3.400000e-01    2.280000e+00
  TC4q  TX2e  1 3.400000e-01    2.020000e+00
  TC4q  TX3e  1 3.400000e-01    2.020000e+00
  TC4q  TX4e  1 3.400000e-01    2.020000e+00
  TC4q  TC1e  1 3.400000e-01    1.770000e+00
  TC4q  TC2e  1 3.400000e-01    2.020000e+00
  TC4q  TC3e  1 3.400000e-01    2.280000e+00
  TP6d  TC3q  1 3.850000e-01    8.550000e-01
  TP5d  TC3q  1 3.660000e-01    9.350000e-01
  TP4d  TC3q  1 3.660000e-01    9.350000e-01
  TP3d  TC3q  1 3.660000e-01    9.350000e-01
  TP2d  TC3q  1 3.520000e-01    1.050000e+00
  TP1d  TC3q  1 3.520000e-01    1.050000e+00
  TN6d  TC3q  1 3.400000e-01    1.230000e+00
  TN5d  TC3q  1 3.400000e-01    1.510000e+00
  TN4d  TC3q  1 3.400000e-01    1.510000e+00
  TN3d  TC3q  1 3.400000e-01    1.510000e+00
  TN2d  TC3q  1 3.400000e-01    1.770000e+00
  TN1d  TC3q  1 3.400000e-01    1.770000e+00
  TP6a  TC3q  1 3.850000e-01    8.550000e-01
  TP5a  TC3q  1 3.660000e-01    9.350000e-01
  TP4a  TC3q  1 3.660000e-01    9.350000e-01
  TP3a  TC3q  1 3.660000e-01    9.350000e-01
  TP2a  TC3q  1 3.520000e-01    1.050000e+00
  TP1a  TC3q  1 3.520000e-01    1.050000e+00
  TN6a  TC3q  1 3.400000e-01    1.230000e+00
  TN5a  TC3q  1 3.400000e-01    1.510000e+00
  TN4a  TC3q  1 3.400000e-01    1.510000e+00
  TN3a  TC3q  1 3.400000e-01    1.510000e+00
  TN2a  TC3q  1 3.400000e-01    1.770000e+00
  TN1a  TC3q  1 3.400000e-01    1.770000e+00
  TC6v  TC3q  1 3.400000e-01    2.020000e+00
  TC5v  TC3q  1 3.400000e-01    2.020000e+00
  TC4v  TC3q  1 3.400000e-01    2.280000e+00
  TC3q  TC3v  1 3.400000e-01    2.280000e+00
  TC3q  TX1v  1 3.400000e-01    2.280000e+00
  TC3q  TX2v  1 3.400000e-01    2.020000e+00
  TC3q  TX3v  1 3.400000e-01    2.020000e+00
  TC3q  TX4v  1 3.400000e-01    2.020000e+00
  TC3q  TC1v  1 3.400000e-01    2.280000e+00
  TC3q  TC2v  1 3.400000e-01    2.280000e+00
  TC6e  TC3q  1 3.400000e-01    2.020000e+00
  TC5e  TC3q  1 3.400000e-01    2.020000e+00
  TC4e  TC3q  1 3.400000e-01    2.280000e+00
  TC3q  TC3e  1 3.400000e-01    2.280000e+00
  TC3q  TX1e  1 3.400000e-01    2.280000e+00
  TC3q  TX2e  1 3.400000e-01    2.020000e+00
  TC3q  TX3e  1 3.400000e-01    2.020000e+00
  TC3q  TX4e  1 3.400000e-01    2.020000e+00
  TC3q  TC1e  1 3.400000e-01    2.280000e+00
  TC3q  TC2e  1 3.400000e-01    2.280000e+00
  TP6d  TC2q  1 3.850000e-01    8.550000e-01
  TP5d  TC2q  1 3.660000e-01    9.350000e-01
  TP4d  TC2q  1 3.660000e-01    9.350000e-01
  TP3d  TC2q  1 3.660000e-01    9.350000e-01
  TP2d  TC2q  1 3.520000e-01    1.050000e+00
  TP1d  TC2q  1 3.520000e-01    1.050000e+00
  TN6d  TC2q  1 3.400000e-01    1.230000e+00
  TN5d  TC2q  1 3.400000e-01    1.230000e+00
  TN4d  TC2q  1 3.400000e-01    1.230000e+00
  TN3d  TC2q  1 3.400000e-01    1.510000e+00
  TN2d  TC2q  1 3.400000e-01    1.510000e+00
  TN1d  TC2q  1 3.400000e-01    1.510000e+00
  TP6a  TC2q  1 3.850000e-01    8.550000e-01
  TP5a  TC2q  1 3.660000e-01    9.350000e-01
  TP4a  TC2q  1 3.660000e-01    9.350000e-01
  TP3a  TC2q  1 3.660000e-01    9.350000e-01
  TP2a  TC2q  1 3.520000e-01    1.050000e+00
  TP1a  TC2q  1 3.520000e-01    1.050000e+00
  TN6a  TC2q  1 3.400000e-01    1.230000e+00
  TN5a  TC2q  1 3.400000e-01    1.230000e+00
  TN4a  TC2q  1 3.400000e-01    1.230000e+00
  TN3a  TC2q  1 3.400000e-01    1.510000e+00
  TN2a  TC2q  1 3.400000e-01    1.510000e+00
  TN1a  TC2q  1 3.400000e-01    1.510000e+00
  TC6v  TC2q  1 3.400000e-01    1.770000e+00
  TC5v  TC2q  1 3.400000e-01    1.770000e+00
  TC4v  TC2q  1 3.400000e-01    2.020000e+00
  TC3v  TC2q  1 3.400000e-01    2.280000e+00
  TC2q  TC2v  1 3.400000e-01    2.280000e+00
  TC2q  TX1v  1 3.400000e-01    2.020000e+00
  TC2q  TX2v  1 3.400000e-01    2.020000e+00
  TC2q  TX3v  1 3.400000e-01    2.020000e+00
  TC2q  TX4v  1 3.400000e-01    1.510000e+00
  TC2q  TC1v  1 3.400000e-01    2.500000e+00
  TC6e  TC2q  1 3.400000e-01    1.770000e+00
  TC5e  TC2q  1 3.400000e-01    1.770000e+00
  TC4e  TC2q  1 3.400000e-01    2.020000e+00
  TC3e  TC2q  1 3.400000e-01    2.280000e+00
  TC2q  TC2e  1 3.400000e-01    2.280000e+00
  TC2q  TX1e  1 3.400000e-01    2.020000e+00
  TC2q  TX2e  1 3.400000e-01    2.020000e+00
  TC2q  TX3e  1 3.400000e-01    2.020000e+00
  TC2q  TX4e  1 3.400000e-01    1.510000e+00
  TC2q  TC1e  1 3.400000e-01    2.500000e+00
  TP6d  TC1q  1 4.240000e-01    7.760000e-01
  TP5d  TC1q  1 3.850000e-01    8.550000e-01
  TP4d  TC1q  1 3.850000e-01    8.550000e-01
  TP3d  TC1q  1 3.850000e-01    8.550000e-01
  TP2d  TC1q  1 3.660000e-01    9.350000e-01
  TP1d  TC1q  1 3.660000e-01    9.350000e-01
  TN6d  TC1q  1 3.520000e-01    1.050000e+00
  TN5d  TC1q  1 3.520000e-01    1.050000e+00
  TN4d  TC1q  1 3.520000e-01    1.050000e+00
  TN3d  TC1q  1 3.400000e-01    1.230000e+00
  TN2d  TC1q  1 3.400000e-01    1.230000e+00
  TN1d  TC1q  1 3.400000e-01    1.230000e+00
  TP6a  TC1q  1 4.240000e-01    7.760000e-01
  TP5a  TC1q  1 3.850000e-01    8.550000e-01
  TP4a  TC1q  1 3.850000e-01    8.550000e-01
  TP3a  TC1q  1 3.850000e-01    8.550000e-01
  TP2a  TC1q  1 3.660000e-01    9.350000e-01
  TP1a  TC1q  1 3.660000e-01    9.350000e-01
  TN6a  TC1q  1 3.520000e-01    1.050000e+00
  TN5a  TC1q  1 3.520000e-01    1.050000e+00
  TN4a  TC1q  1 3.520000e-01    1.050000e+00
  TN3a  TC1q  1 3.400000e-01    1.230000e+00
  TN2a  TC1q  1 3.400000e-01    1.230000e+00
  TN1a  TC1q  1 3.400000e-01    1.230000e+00
  TC6v  TC1q  1 3.400000e-01    1.510000e+00
  TC5v  TC1q  1 3.400000e-01    1.770000e+00
  TC4v  TC1q  1 3.400000e-01    1.770000e+00
  TC3v  TC1q  1 3.400000e-01    2.280000e+00
  TC2v  TC1q  1 3.400000e-01    2.500000e+00
  TC1q  TC1v  1 3.400000e-01    2.280000e+00
  TC1q  TX1v  1 3.400000e-01    2.020000e+00
  TC1q  TX2v  1 3.400000e-01    2.020000e+00
  TC1q  TX3v  1 3.400000e-01    2.020000e+00
  TC1q  TX4v  1 3.400000e-01    1.510000e+00
  TC6e  TC1q  1 3.400000e-01    1.510000e+00
  TC5e  TC1q  1 3.400000e-01    1.770000e+00
  TC4e  TC1q  1 3.400000e-01    1.770000e+00
  TC3e  TC1q  1 3.400000e-01    2.280000e+00
  TC2e  TC1q  1 3.400000e-01    2.500000e+00
  TC1q  TC1e  1 3.400000e-01    2.280000e+00
  TC1q  TX1e  1 3.400000e-01    2.020000e+00
  TC1q  TX2e  1 3.400000e-01    2.020000e+00
  TC1q  TX3e  1 3.400000e-01    2.020000e+00
  TC1q  TX4e  1 3.400000e-01    1.510000e+00
  TP6d  TX4q  1 3.400000e-01    1.510000e+00
  TP5d  TX4q  1 3.400000e-01    1.770000e+00
  TP4d  TX4q  1 3.400000e-01    1.770000e+00
  TP3d  TX4q  1 3.400000e-01    1.770000e+00
  TP2d  TX4q  1 3.400000e-01    1.770000e+00
  TP1d  TX4q  1 3.400000e-01    1.770000e+00
  TN6d  TX4q  1 3.400000e-01    2.020000e+00
  TN5d  TX4q  1 3.400000e-01    2.280000e+00
  TN4d  TX4q  1 3.400000e-01    2.500000e+00
  TN3d  TX4q  1 3.400000e-01    2.280000e+00
  TN2d  TX4q  1 3.400000e-01    2.280000e+00
  TN1d  TX4q  1 3.400000e-01    2.020000e+00
  TP6a  TX4q  1 3.400000e-01    1.510000e+00
  TP5a  TX4q  1 3.400000e-01    1.770000e+00
  TP4a  TX4q  1 3.400000e-01    1.770000e+00
  TP3a  TX4q  1 3.400000e-01    1.770000e+00
  TP2a  TX4q  1 3.400000e-01    1.770000e+00
  TP1a  TX4q  1 3.400000e-01    1.770000e+00
  TN6a  TX4q  1 3.400000e-01    2.020000e+00
  TN5a  TX4q  1 3.400000e-01    2.280000e+00
  TN4a  TX4q  1 3.400000e-01    2.500000e+00
  TN3a  TX4q  1 3.400000e-01    2.280000e+00
  TN2a  TX4q  1 3.400000e-01    2.280000e+00
  TN1a  TX4q  1 3.400000e-01    2.020000e+00
  TC6v  TX4q  1 3.400000e-01    2.280000e+00
  TC5v  TX4q  1 3.400000e-01    2.020000e+00
  TC4v  TX4q  1 3.400000e-01    2.020000e+00
  TC3v  TX4q  1 3.400000e-01    2.020000e+00
  TC2v  TX4q  1 3.400000e-01    1.510000e+00
  TC1v  TX4q  1 3.400000e-01    1.510000e+00
  TX4q  TX4v  1 3.400000e-01    2.280000e+00
  TX4q  TX1v  1 3.400000e-01    2.280000e+00
  TX4q  TX2v  1 3.400000e-01    2.280000e+00
  TX4q  TX3v  1 3.400000e-01    2.280000e+00
  TC6e  TX4q  1 3.400000e-01    2.280000e+00
  TC5e  TX4q  1 3.400000e-01    2.020000e+00
  TC4e  TX4q  1 3.400000e-01    2.020000e+00
  TC3e  TX4q  1 3.400000e-01    2.020000e+00
  TC2e  TX4q  1 3.400000e-01    1.510000e+00
  TC1e  TX4q  1 3.400000e-01    1.510000e+00
  TX4q  TX4e  1 3.400000e-01    2.280000e+00
  TX4q  TX1e  1 3.400000e-01    2.280000e+00
  TX4q  TX2e  1 3.400000e-01    2.280000e+00
  TX4q  TX3e  1 3.400000e-01    2.280000e+00
  TP6d  TX3q  1 3.400000e-01    1.510000e+00
  TP5d  TX3q  1 3.400000e-01    1.510000e+00
  TP4d  TX3q  1 3.400000e-01    1.510000e+00
  TP3d  TX3q  1 3.400000e-01    1.770000e+00
  TP2d  TX3q  1 3.400000e-01    1.770000e+00
  TP1d  TX3q  1 3.400000e-01    1.770000e+00
  TN6d  TX3q  1 3.400000e-01    1.770000e+00
  TN5d  TX3q  1 3.400000e-01    2.020000e+00
  TN4d  TX3q  1 3.400000e-01    2.280000e+00
  TN3d  TX3q  1 3.400000e-01    2.020000e+00
  TN2d  TX3q  1 3.400000e-01    2.020000e+00
  TN1d  TX3q  1 3.400000e-01    2.020000e+00
  TP6a  TX3q  1 3.400000e-01    1.510000e+00
  TP5a  TX3q  1 3.400000e-01    1.510000e+00
  TP4a  TX3q  1 3.400000e-01    1.510000e+00
  TP3a  TX3q  1 3.400000e-01    1.770000e+00
  TP2a  TX3q  1 3.400000e-01    1.770000e+00
  TP1a  TX3q  1 3.400000e-01    1.770000e+00
  TN6a  TX3q  1 3.400000e-01    1.770000e+00
  TN5a  TX3q  1 3.400000e-01    2.020000e+00
  TN4a  TX3q  1 3.400000e-01    2.280000e+00
  TN3a  TX3q  1 3.400000e-01    2.020000e+00
  TN2a  TX3q  1 3.400000e-01    2.020000e+00
  TN1a  TX3q  1 3.400000e-01    2.020000e+00
  TC6v  TX3q  1 3.400000e-01    2.280000e+00
  TC5v  TX3q  1 3.400000e-01    2.020000e+00
  TC4v  TX3q  1 3.400000e-01    2.020000e+00
  TC3v  TX3q  1 3.400000e-01    2.020000e+00
  TC2v  TX3q  1 3.400000e-01    2.020000e+00
  TC1v  TX3q  1 3.400000e-01    2.020000e+00
  TX4v  TX3q  1 3.400000e-01    2.280000e+00
  TX3q  TX3v  1 3.400000e-01    2.280000e+00
  TX3q  TX1v  1 3.400000e-01    2.500000e+00
  TX3q  TX2v  1 3.400000e-01    2.500000e+00
  TC6e  TX3q  1 3.400000e-01    2.280000e+00
  TC5e  TX3q  1 3.400000e-01    2.020000e+00
  TC4e  TX3q  1 3.400000e-01    2.020000e+00
  TC3e  TX3q  1 3.400000e-01    2.020000e+00
  TC2e  TX3q  1 3.400000e-01    2.020000e+00
  TC1e  TX3q  1 3.400000e-01    2.020000e+00
  TX4e  TX3q  1 3.400000e-01    2.280000e+00
  TX3q  TX3e  1 3.400000e-01    2.280000e+00
  TX3q  TX1e  1 3.400000e-01    2.500000e+00
  TX3q  TX2e  1 3.400000e-01    2.500000e+00
  TP6d  TX2q  1 3.400000e-01    1.230000e+00
  TP5d  TX2q  1 3.400000e-01    1.510000e+00
  TP4d  TX2q  1 3.400000e-01    1.510000e+00
  TP3d  TX2q  1 3.400000e-01    1.510000e+00
  TP2d  TX2q  1 3.400000e-01    1.510000e+00
  TP1d  TX2q  1 3.400000e-01    1.510000e+00
  TN6d  TX2q  1 3.400000e-01    1.510000e+00
  TN5d  TX2q  1 3.400000e-01    1.770000e+00
  TN4d  TX2q  1 3.400000e-01    1.770000e+00
  TN3d  TX2q  1 3.400000e-01    1.770000e+00
  TN2d  TX2q  1 3.400000e-01    1.770000e+00
  TN1d  TX2q  1 3.400000e-01    1.770000e+00
  TP6a  TX2q  1 3.400000e-01    1.230000e+00
  TP5a  TX2q  1 3.400000e-01    1.510000e+00
  TP4a  TX2q  1 3.400000e-01    1.510000e+00
  TP3a  TX2q  1 3.400000e-01    1.510000e+00
  TP2a  TX2q  1 3.400000e-01    1.510000e+00
  TP1a  TX2q  1 3.400000e-01    1.510000e+00
  TN6a  TX2q  1 3.400000e-01    1.510000e+00
  TN5a  TX2q  1 3.400000e-01    1.770000e+00
  TN4a  TX2q  1 3.400000e-01    1.770000e+00
  TN3a  TX2q  1 3.400000e-01    1.770000e+00
  TN2a  TX2q  1 3.400000e-01    1.770000e+00
  TN1a  TX2q  1 3.400000e-01    1.770000e+00
  TC6v  TX2q  1 3.400000e-01    2.280000e+00
  TC5v  TX2q  1 3.400000e-01    2.020000e+00
  TC4v  TX2q  1 3.400000e-01    2.020000e+00
  TC3v  TX2q  1 3.400000e-01    2.020000e+00
  TC2v  TX2q  1 3.400000e-01    2.020000e+00
  TC1v  TX2q  1 3.400000e-01    2.020000e+00
  TX4v  TX2q  1 3.400000e-01    2.280000e+00
  TX3v  TX2q  1 3.400000e-01    2.500000e+00
  TX2q  TX2v  1 3.400000e-01    2.500000e+00
  TX2q  TX1v  1 3.400000e-01    2.500000e+00
  TC6e  TX2q  1 3.400000e-01    2.280000e+00
  TC5e  TX2q  1 3.400000e-01    2.020000e+00
  TC4e  TX2q  1 3.400000e-01    2.020000e+00
  TC3e  TX2q  1 3.400000e-01    2.020000e+00
  TC2e  TX2q  1 3.400000e-01    2.020000e+00
  TC1e  TX2q  1 3.400000e-01    2.020000e+00
  TX4e  TX2q  1 3.400000e-01    2.280000e+00
  TX3e  TX2q  1 3.400000e-01    2.500000e+00
  TX2q  TX2e  1 3.400000e-01    2.500000e+00
  TX2q  TX1e  1 3.400000e-01    2.500000e+00
  TP6d  TX1q  1 3.520000e-01    1.050000e+00
  TP5d  TX1q  1 3.520000e-01    1.050000e+00
  TP4d  TX1q  1 3.400000e-01    1.230000e+00
  TP3d  TX1q  1 3.400000e-01    1.230000e+00
  TP2d  TX1q  1 3.400000e-01    1.230000e+00
  TP1d  TX1q  1 3.400000e-01    1.230000e+00
  TN6d  TX1q  1 3.400000e-01    1.230000e+00
  TN5d  TX1q  1 3.400000e-01    1.510000e+00
  TN4d  TX1q  1 3.400000e-01    1.510000e+00
  TN3d  TX1q  1 3.400000e-01    1.770000e+00
  TN2d  TX1q  1 3.400000e-01    1.770000e+00
  TN1d  TX1q  1 3.400000e-01    1.770000e+00
  TP6a  TX1q  1 3.520000e-01    1.050000e+00
  TP5a  TX1q  1 3.520000e-01    1.050000e+00
  TP4a  TX1q  1 3.400000e-01    1.230000e+00
  TP3a  TX1q  1 3.400000e-01    1.230000e+00
  TP2a  TX1q  1 3.400000e-01    1.230000e+00
  TP1a  TX1q  1 3.400000e-01    1.230000e+00
  TN6a  TX1q  1 3.400000e-01    1.230000e+00
  TN5a  TX1q  1 3.400000e-01    1.510000e+00
  TN4a  TX1q  1 3.400000e-01    1.510000e+00
  TN3a  TX1q  1 3.400000e-01    1.770000e+00
  TN2a  TX1q  1 3.400000e-01    1.770000e+00
  TN1a  TX1q  1 3.400000e-01    1.770000e+00
  TC6v  TX1q  1 3.400000e-01    2.280000e+00
  TC5v  TX1q  1 3.400000e-01    2.280000e+00
  TC4v  TX1q  1 3.400000e-01    2.280000e+00
  TC3v  TX1q  1 3.400000e-01    2.280000e+00
  TC2v  TX1q  1 3.400000e-01    2.020000e+00
  TC1v  TX1q  1 3.400000e-01    2.020000e+00
  TX4v  TX1q  1 3.400000e-01    2.280000e+00
  TX3v  TX1q  1 3.400000e-01    2.500000e+00
  TX2v  TX1q  1 3.400000e-01    2.500000e+00
  TX1q  TX1v  1 3.400000e-01    2.740000e+00
  TC6e  TX1q  1 3.400000e-01    2.280000e+00
  TC5e  TX1q  1 3.400000e-01    2.280000e+00
  TC4e  TX1q  1 3.400000e-01    2.280000e+00
  TC3e  TX1q  1 3.400000e-01    2.280000e+00
  TC2e  TX1q  1 3.400000e-01    2.020000e+00
  TC1e  TX1q  1 3.400000e-01    2.020000e+00
  TX4e  TX1q  1 3.400000e-01    2.280000e+00
  TX3e  TX1q  1 3.400000e-01    2.500000e+00
  TX2e  TX1q  1 3.400000e-01    2.500000e+00
  TX1q  TX1e  1 3.400000e-01    2.740000e+00
  TP6h  TP6d  1 3.400000e-01    3.470000e+00
  TP6h  TN1d  1 3.660000e-01    9.350000e-01
  TP6h  TN2d  1 3.520000e-01    1.050000e+00
  TP6h  TN3d  1 3.400000e-01    1.230000e+00
  TP6h  TN4d  1 3.400000e-01    1.510000e+00
  TP6h  TN5d  1 3.400000e-01    1.770000e+00
  TP6h  TN6d  1 3.400000e-01    2.280000e+00
  TP6h  TP1d  1 3.400000e-01    2.500000e+00
  TP6h  TP2d  1 3.400000e-01    2.740000e+00
  TP6h  TP3d  1 3.400000e-01    2.740000e+00
  TP6h  TP4d  1 3.400000e-01    2.990000e+00
  TP6h  TP5d  1 3.400000e-01    3.220000e+00
  TP6h  TP6a  1 3.400000e-01    3.470000e+00
  TP6h  TN1a  1 3.660000e-01    9.350000e-01
  TP6h  TN2a  1 3.520000e-01    1.050000e+00
  TP6h  TN3a  1 3.400000e-01    1.230000e+00
  TP6h  TN4a  1 3.400000e-01    1.510000e+00
  TP6h  TN5a  1 3.400000e-01    1.770000e+00
  TP6h  TN6a  1 3.400000e-01    2.280000e+00
  TP6h  TP1a  1 3.400000e-01    2.500000e+00
  TP6h  TP2a  1 3.400000e-01    2.740000e+00
  TP6h  TP3a  1 3.400000e-01    2.740000e+00
  TP6h  TP4a  1 3.400000e-01    2.990000e+00
  TP6h  TP5a  1 3.400000e-01    3.220000e+00
  TP6h  TC6v  1 3.520000e-01    1.050000e+00
  TP6h  TC5v  1 3.660000e-01    9.350000e-01
  TP6h  TC4v  1 3.850000e-01    8.550000e-01
  TP6h  TC3v  1 4.110000e-01    8.010000e-01
  TP6h  TC2v  1 4.110000e-01    8.010000e-01
  TP6h  TC1v  1 4.380000e-01    7.310000e-01
  TP6h  TX4v  1 3.400000e-01    1.230000e+00
  TP6h  TX3v  1 3.400000e-01    1.230000e+00
  TP6h  TX2v  1 3.520000e-01    1.050000e+00
  TP6h  TX1v  1 3.660000e-01    9.350000e-01
  TP6h  TC6e  1 3.520000e-01    1.050000e+00
  TP6h  TC5e  1 3.660000e-01    9.350000e-01
  TP6h  TC4e  1 3.850000e-01    8.550000e-01
  TP6h  TC3e  1 4.110000e-01    8.010000e-01
  TP6h  TC2e  1 4.110000e-01    8.010000e-01
  TP6h  TC1e  1 4.380000e-01    7.310000e-01
  TP6h  TX4e  1 3.400000e-01    1.230000e+00
  TP6h  TX3e  1 3.400000e-01    1.230000e+00
  TP6h  TX2e  1 3.520000e-01    1.050000e+00
  TP6h  TX1e  1 3.660000e-01    9.350000e-01
  TP6h  TP6q  1 3.400000e-01    4.020000e+00
  TP6h  TX1q  1 3.520000e-01    1.050000e+00
  TP6h  TX2q  1 3.400000e-01    1.230000e+00
  TP6h  TX3q  1 3.400000e-01    1.510000e+00
  TP6h  TX4q  1 3.400000e-01    1.510000e+00
  TP6h  TC1q  1 4.240000e-01    7.760000e-01
  TP6h  TC2q  1 3.850000e-01    8.550000e-01
  TP6h  TC3q  1 3.850000e-01    8.550000e-01
  TP6h  TC4q  1 3.660000e-01    9.350000e-01
  TP6h  TC5q  1 3.520000e-01    1.050000e+00
  TP6h  TC6q  1 3.400000e-01    1.230000e+00
  TP6h  TN1q  1 3.400000e-01    1.230000e+00
  TP6h  TN2q  1 3.400000e-01    1.510000e+00
  TP6h  TN3q  1 3.400000e-01    1.770000e+00
  TP6h  TN4q  1 3.400000e-01    2.020000e+00
  TP6h  TN5q  1 3.400000e-01    2.280000e+00
  TP6h  TN6q  1 3.400000e-01    2.740000e+00
  TP6h  TP1q  1 3.400000e-01    2.990000e+00
  TP6h  TP2q  1 3.400000e-01    3.220000e+00
  TP6h  TP3q  1 3.400000e-01    3.220000e+00
  TP6h  TP4q  1 3.400000e-01    3.470000e+00
  TP6h  TP5q  1 3.400000e-01    3.750000e+00
  TP6d  TP5h  1 3.400000e-01    3.220000e+00
  TP5h  TP5d  1 3.400000e-01    2.990000e+00
  TP5h  TN1d  1 3.660000e-01    9.350000e-01
  TP5h  TN2d  1 3.520000e-01    1.050000e+00
  TP5h  TN3d  1 3.400000e-01    1.230000e+00
  TP5h  TN4d  1 3.400000e-01    1.770000e+00
  TP5h  TN5d  1 3.400000e-01    1.770000e+00
  TP5h  TN6d  1 3.400000e-01    2.020000e+00
  TP5h  TP1d  1 3.400000e-01    2.280000e+00
  TP5h  TP2d  1 3.400000e-01    2.500000e+00
  TP5h  TP3d  1 3.400000e-01    2.500000e+00
  TP5h  TP4d  1 3.400000e-01    2.740000e+00
  TP6a  TP5h  1 3.400000e-01    3.220000e+00
  TP5h  TP5a  1 3.400000e-01    2.990000e+00
  TP5h  TN1a  1 3.660000e-01    9.350000e-01
  TP5h  TN2a  1 3.520000e-01    1.050000e+00
  TP5h  TN3a  1 3.400000e-01    1.230000e+00
  TP5h  TN4a  1 3.400000e-01    1.770000e+00
  TP5h  TN5a  1 3.400000e-01    1.770000e+00
  TP5h  TN6a  1 3.400000e-01    2.020000e+00
  TP5h  TP1a  1 3.400000e-01    2.280000e+00
  TP5h  TP2a  1 3.400000e-01    2.500000e+00
  TP5h  TP3a  1 3.400000e-01    2.500000e+00
  TP5h  TP4a  1 3.400000e-01    2.740000e+00
  TP5h  TC6v  1 3.520000e-01    1.050000e+00
  TP5h  TC5v  1 3.520000e-01    1.050000e+00
  TP5h  TC4v  1 3.660000e-01    9.350000e-01
  TP5h  TC3v  1 3.850000e-01    8.550000e-01
  TP5h  TC2v  1 3.850000e-01    8.550000e-01
  TP5h  TC1v  1 4.110000e-01    8.010000e-01
  TP5h  TX4v  1 3.400000e-01    1.510000e+00
  TP5h  TX3v  1 3.400000e-01    1.230000e+00
  TP5h  TX2v  1 3.400000e-01    1.230000e+00
  TP5h  TX1v  1 3.660000e-01    9.350000e-01
  TP5h  TC6e  1 3.520000e-01    1.050000e+00
  TP5h  TC5e  1 3.520000e-01    1.050000e+00
  TP5h  TC4e  1 3.660000e-01    9.350000e-01
  TP5h  TC3e  1 3.850000e-01    8.550000e-01
  TP5h  TC2e  1 3.850000e-01    8.550000e-01
  TP5h  TC1e  1 4.110000e-01    8.010000e-01
  TP5h  TX4e  1 3.400000e-01    1.510000e+00
  TP5h  TX3e  1 3.400000e-01    1.230000e+00
  TP5h  TX2e  1 3.400000e-01    1.230000e+00
  TP5h  TX1e  1 3.660000e-01    9.350000e-01
  TP6q  TP5h  1 3.400000e-01    3.750000e+00
  TP5h  TP5q  1 3.400000e-01    3.470000e+00
  TP5h  TX1q  1 3.520000e-01    1.050000e+00
  TP5h  TX2q  1 3.400000e-01    1.510000e+00
  TP5h  TX3q  1 3.400000e-01    1.510000e+00
  TP5h  TX4q  1 3.400000e-01    1.770000e+00
  TP5h  TC1q  1 3.850000e-01    8.550000e-01
  TP5h  TC2q  1 3.660000e-01    9.350000e-01
  TP5h  TC3q  1 3.660000e-01    9.350000e-01
  TP5h  TC4q  1 3.520000e-01    1.050000e+00
  TP5h  TC5q  1 3.400000e-01    1.230000e+00
  TP5h  TC6q  1 3.400000e-01    1.230000e+00
  TP5h  TN1q  1 3.400000e-01    1.230000e+00
  TP5h  TN2q  1 3.400000e-01    1.510000e+00
  TP5h  TN3q  1 3.400000e-01    1.770000e+00
  TP5h  TN4q  1 3.400000e-01    2.280000e+00
  TP5h  TN5q  1 3.400000e-01    2.280000e+00
  TP5h  TN6q  1 3.400000e-01    2.500000e+00
  TP5h  TP1q  1 3.400000e-01    2.740000e+00
  TP5h  TP2q  1 3.400000e-01    2.990000e+00
  TP5h  TP3q  1 3.400000e-01    2.990000e+00
  TP5h  TP4q  1 3.400000e-01    3.220000e+00
  TP6d  TP4h  1 3.400000e-01    2.990000e+00
  TP5d  TP4h  1 3.400000e-01    2.740000e+00
  TP4h  TP4d  1 3.400000e-01    2.740000e+00
  TP4h  TN1d  1 3.520000e-01    1.050000e+00
  TP4h  TN2d  1 3.400000e-01    1.230000e+00
  TP4h  TN3d  1 3.400000e-01    1.510000e+00
  TP4h  TN4d  1 3.400000e-01    1.770000e+00
  TP4h  TN5d  1 3.400000e-01    1.770000e+00
  TP4h  TN6d  1 3.400000e-01    2.020000e+00
  TP4h  TP1d  1 3.400000e-01    2.280000e+00
  TP4h  TP2d  1 3.400000e-01    2.500000e+00
  TP4h  TP3d  1 3.400000e-01    2.500000e+00
  TP6a  TP4h  1 3.400000e-01    2.990000e+00
  TP5a  TP4h  1 3.400000e-01    2.740000e+00
  TP4h  TP4a  1 3.400000e-01    2.740000e+00
  TP4h  TN1a  1 3.520000e-01    1.050000e+00
  TP4h  TN2a  1 3.400000e-01    1.230000e+00
  TP4h  TN3a  1 3.400000e-01    1.510000e+00
  TP4h  TN4a  1 3.400000e-01    1.770000e+00
  TP4h  TN5a  1 3.400000e-01    1.770000e+00
  TP4h  TN6a  1 3.400000e-01    2.020000e+00
  TP4h  TP1a  1 3.400000e-01    2.280000e+00
  TP4h  TP2a  1 3.400000e-01    2.500000e+00
  TP4h  TP3a  1 3.400000e-01    2.500000e+00
  TP4h  TC6v  1 3.400000e-01    1.230000e+00
  TP4h  TC5v  1 3.520000e-01    1.050000e+00
  TP4h  TC4v  1 3.660000e-01    9.350000e-01
  TP4h  TC3v  1 3.850000e-01    8.550000e-01
  TP4h  TC2v  1 3.850000e-01    8.550000e-01
  TP4h  TC1v  1 4.110000e-01    8.010000e-01
  TP4h  TX4v  1 3.400000e-01    1.510000e+00
  TP4h  TX3v  1 3.400000e-01    1.230000e+00
  TP4h  TX2v  1 3.400000e-01    1.230000e+00
  TP4h  TX1v  1 3.520000e-01    1.050000e+00
  TP4h  TC6e  1 3.400000e-01    1.230000e+00
  TP4h  TC5e  1 3.520000e-01    1.050000e+00
  TP4h  TC4e  1 3.660000e-01    9.350000e-01
  TP4h  TC3e  1 3.850000e-01    8.550000e-01
  TP4h  TC2e  1 3.850000e-01    8.550000e-01
  TP4h  TC1e  1 4.110000e-01    8.010000e-01
  TP4h  TX4e  1 3.400000e-01    1.510000e+00
  TP4h  TX3e  1 3.400000e-01    1.230000e+00
  TP4h  TX2e  1 3.400000e-01    1.230000e+00
  TP4h  TX1e  1 3.520000e-01    1.050000e+00
  TP6q  TP4h  1 3.400000e-01    3.470000e+00
  TP5q  TP4h  1 3.400000e-01    3.220000e+00
  TP4h  TP4q  1 3.400000e-01    3.220000e+00
  TP4h  TX1q  1 3.400000e-01    1.230000e+00
  TP4h  TX2q  1 3.400000e-01    1.510000e+00
  TP4h  TX3q  1 3.400000e-01    1.510000e+00
  TP4h  TX4q  1 3.400000e-01    1.770000e+00
  TP4h  TC1q  1 3.850000e-01    8.550000e-01
  TP4h  TC2q  1 3.660000e-01    9.350000e-01
  TP4h  TC3q  1 3.660000e-01    9.350000e-01
  TP4h  TC4q  1 3.520000e-01    1.050000e+00
  TP4h  TC5q  1 3.400000e-01    1.230000e+00
  TP4h  TC6q  1 3.400000e-01    1.510000e+00
  TP4h  TN1q  1 3.400000e-01    1.510000e+00
  TP4h  TN2q  1 3.400000e-01    1.770000e+00
  TP4h  TN3q  1 3.400000e-01    2.020000e+00
  TP4h  TN4q  1 3.400000e-01    2.280000e+00
  TP4h  TN5q  1 3.400000e-01    2.280000e+00
  TP4h  TN6q  1 3.400000e-01    2.500000e+00
  TP4h  TP1q  1 3.400000e-01    2.740000e+00
  TP4h  TP2q  1 3.400000e-01    2.990000e+00
  TP4h  TP3q  1 3.400000e-01    2.990000e+00
  TP6d  TP3h  1 3.400000e-01    2.740000e+00
  TP5d  TP3h  1 3.400000e-01    2.500000e+00
  TP4d  TP3h  1 3.400000e-01    2.500000e+00
  TP3h  TP3d  1 3.400000e-01    2.500000e+00
  TP3h  TN1d  1 3.400000e-01    1.230000e+00
  TP3h  TN2d  1 3.400000e-01    1.510000e+00
  TP3h  TN3d  1 3.400000e-01    1.510000e+00
  TP3h  TN4d  1 3.400000e-01    1.770000e+00
  TP3h  TN5d  1 3.400000e-01    1.770000e+00
  TP3h  TN6d  1 3.400000e-01    2.020000e+00
  TP3h  TP1d  1 3.400000e-01    2.280000e+00
  TP3h  TP2d  1 3.400000e-01    2.500000e+00
  TP6a  TP3h  1 3.400000e-01    2.740000e+00
  TP5a  TP3h  1 3.400000e-01    2.500000e+00
  TP4a  TP3h  1 3.400000e-01    2.500000e+00
  TP3h  TP3a  1 3.400000e-01    2.500000e+00
  TP3h  TN1a  1 3.400000e-01    1.230000e+00
  TP3h  TN2a  1 3.400000e-01    1.510000e+00
  TP3h  TN3a  1 3.400000e-01    1.510000e+00
  TP3h  TN4a  1 3.400000e-01    1.770000e+00
  TP3h  TN5a  1 3.400000e-01    1.770000e+00
  TP3h  TN6a  1 3.400000e-01    2.020000e+00
  TP3h  TP1a  1 3.400000e-01    2.280000e+00
  TP3h  TP2a  1 3.400000e-01    2.500000e+00
  TP3h  TC6v  1 3.400000e-01    1.510000e+00
  TP3h  TC5v  1 3.400000e-01    1.230000e+00
  TP3h  TC4v  1 3.520000e-01    1.050000e+00
  TP3h  TC3v  1 3.850000e-01    8.550000e-01
  TP3h  TC2v  1 3.850000e-01    8.550000e-01
  TP3h  TC1v  1 4.110000e-01    8.010000e-01
  TP3h  TX4v  1 3.400000e-01    1.510000e+00
  TP3h  TX3v  1 3.400000e-01    1.510000e+00
  TP3h  TX2v  1 3.400000e-01    1.230000e+00
  TP3h  TX1v  1 3.520000e-01    1.050000e+00
  TP3h  TC6e  1 3.400000e-01    1.510000e+00
  TP3h  TC5e  1 3.400000e-01    1.230000e+00
  TP3h  TC4e  1 3.520000e-01    1.050000e+00
  TP3h  TC3e  1 3.850000e-01    8.550000e-01
  TP3h  TC2e  1 3.850000e-01    8.550000e-01
  TP3h  TC1e  1 4.110000e-01    8.010000e-01
  TP3h  TX4e  1 3.400000e-01    1.510000e+00
  TP3h  TX3e  1 3.400000e-01    1.510000e+00
  TP3h  TX2e  1 3.400000e-01    1.230000e+00
  TP3h  TX1e  1 3.520000e-01    1.050000e+00
  TP6q  TP3h  1 3.400000e-01    3.220000e+00
  TP5q  TP3h  1 3.400000e-01    2.990000e+00
  TP4q  TP3h  1 3.400000e-01    2.990000e+00
  TP3h  TP3q  1 3.400000e-01    2.990000e+00
  TP3h  TX1q  1 3.400000e-01    1.230000e+00
  TP3h  TX2q  1 3.400000e-01    1.510000e+00
  TP3h  TX3q  1 3.400000e-01    1.770000e+00
  TP3h  TX4q  1 3.400000e-01    1.770000e+00
  TP3h  TC1q  1 3.850000e-01    8.550000e-01
  TP3h  TC2q  1 3.660000e-01    9.350000e-01
  TP3h  TC3q  1 3.660000e-01    9.350000e-01
  TP3h  TC4q  1 3.400000e-01    1.230000e+00
  TP3h  TC5q  1 3.400000e-01    1.510000e+00
  TP3h  TC6q  1 3.400000e-01    1.770000e+00
  TP3h  TN1q  1 3.400000e-01    1.770000e+00
  TP3h  TN2q  1 3.400000e-01    2.020000e+00
  TP3h  TN3q  1 3.400000e-01    2.020000e+00
  TP3h  TN4q  1 3.400000e-01    2.280000e+00
  TP3h  TN5q  1 3.400000e-01    2.280000e+00
  TP3h  TN6q  1 3.400000e-01    2.500000e+00
  TP3h  TP1q  1 3.400000e-01    2.740000e+00
  TP3h  TP2q  1 3.400000e-01    2.990000e+00
  TP6d  TP2h  1 3.400000e-01    2.740000e+00
  TP5d  TP2h  1 3.400000e-01    2.500000e+00
  TP4d  TP2h  1 3.400000e-01    2.500000e+00
  TP3d  TP2h  1 3.400000e-01    2.500000e+00
  TP2h  TP2d  1 3.400000e-01    2.500000e+00
  TP2h  TN1d  1 3.400000e-01    1.510000e+00
  TP2h  TN2d  1 3.400000e-01    1.510000e+00
  TP2h  TN3d  1 3.400000e-01    1.510000e+00
  TP2h  TN4d  1 3.400000e-01    1.770000e+00
  TP2h  TN5d  1 3.400000e-01    2.020000e+00
  TP2h  TN6d  1 3.400000e-01    2.280000e+00
  TP2h  TP1d  1 3.400000e-01    2.280000e+00
  TP6a  TP2h  1 3.400000e-01    2.740000e+00
  TP5a  TP2h  1 3.400000e-01    2.500000e+00
  TP4a  TP2h  1 3.400000e-01    2.500000e+00
  TP3a  TP2h  1 3.400000e-01    2.500000e+00
  TP2h  TP2a  1 3.400000e-01    2.500000e+00
  TP2h  TN1a  1 3.400000e-01    1.510000e+00
  TP2h  TN2a  1 3.400000e-01    1.510000e+00
  TP2h  TN3a  1 3.400000e-01    1.510000e+00
  TP2h  TN4a  1 3.400000e-01    1.770000e+00
  TP2h  TN5a  1 3.400000e-01    2.020000e+00
  TP2h  TN6a  1 3.400000e-01    2.280000e+00
  TP2h  TP1a  1 3.400000e-01    2.280000e+00
  TP2h  TC6v  1 3.400000e-01    1.510000e+00
  TP2h  TC5v  1 3.400000e-01    1.230000e+00
  TP2h  TC4v  1 3.520000e-01    1.050000e+00
  TP2h  TC3v  1 3.660000e-01    9.350000e-01
  TP2h  TC2v  1 3.660000e-01    9.350000e-01
  TP2h  TC1v  1 3.850000e-01    8.550000e-01
  TP2h  TX4v  1 3.400000e-01    1.510000e+00
  TP2h  TX3v  1 3.400000e-01    1.510000e+00
  TP2h  TX2v  1 3.400000e-01    1.230000e+00
  TP2h  TX1v  1 3.520000e-01    1.050000e+00
  TP2h  TC6e  1 3.400000e-01    1.510000e+00
  TP2h  TC5e  1 3.400000e-01    1.230000e+00
  TP2h  TC4e  1 3.520000e-01    1.050000e+00
  TP2h  TC3e  1 3.660000e-01    9.350000e-01
  TP2h  TC2e  1 3.660000e-01    9.350000e-01
  TP2h  TC1e  1 3.850000e-01    8.550000e-01
  TP2h  TX4e  1 3.400000e-01    1.510000e+00
  TP2h  TX3e  1 3.400000e-01    1.510000e+00
  TP2h  TX2e  1 3.400000e-01    1.230000e+00
  TP2h  TX1e  1 3.520000e-01    1.050000e+00
  TP6q  TP2h  1 3.400000e-01    3.220000e+00
  TP5q  TP2h  1 3.400000e-01    2.990000e+00
  TP4q  TP2h  1 3.400000e-01    2.990000e+00
  TP3q  TP2h  1 3.400000e-01    2.990000e+00
  TP2h  TP2q  1 3.400000e-01    2.990000e+00
  TP2h  TX1q  1 3.400000e-01    1.230000e+00
  TP2h  TX2q  1 3.400000e-01    1.510000e+00
  TP2h  TX3q  1 3.400000e-01    1.770000e+00
  TP2h  TX4q  1 3.400000e-01    1.770000e+00
  TP2h  TC1q  1 3.660000e-01    9.350000e-01
  TP2h  TC2q  1 3.520000e-01    1.050000e+00
  TP2h  TC3q  1 3.520000e-01    1.050000e+00
  TP2h  TC4q  1 3.400000e-01    1.230000e+00
  TP2h  TC5q  1 3.400000e-01    1.510000e+00
  TP2h  TC6q  1 3.400000e-01    1.770000e+00
  TP2h  TN1q  1 3.400000e-01    2.020000e+00
  TP2h  TN2q  1 3.400000e-01    2.020000e+00
  TP2h  TN3q  1 3.400000e-01    2.020000e+00
  TP2h  TN4q  1 3.400000e-01    2.280000e+00
  TP2h  TN5q  1 3.400000e-01    2.500000e+00
  TP2h  TN6q  1 3.400000e-01    2.740000e+00
  TP2h  TP1q  1 3.400000e-01    2.740000e+00
  TP6d  TP1h  1 3.400000e-01    2.500000e+00
  TP5d  TP1h  1 3.400000e-01    2.280000e+00
  TP4d  TP1h  1 3.400000e-01    2.280000e+00
  TP3d  TP1h  1 3.400000e-01    2.280000e+00
  TP2d  TP1h  1 3.400000e-01    2.280000e+00
  TP1h  TP1d  1 3.400000e-01    2.280000e+00
  TP1h  TN1d  1 3.400000e-01    1.510000e+00
  TP1h  TN2d  1 3.400000e-01    1.510000e+00
  TP1h  TN3d  1 3.400000e-01    1.510000e+00
  TP1h  TN4d  1 3.400000e-01    2.020000e+00
  TP1h  TN5d  1 3.400000e-01    2.020000e+00
  TP1h  TN6d  1 3.400000e-01    2.280000e+00
  TP6a  TP1h  1 3.400000e-01    2.500000e+00
  TP5a  TP1h  1 3.400000e-01    2.280000e+00
  TP4a  TP1h  1 3.400000e-01    2.280000e+00
  TP3a  TP1h  1 3.400000e-01    2.280000e+00
  TP2a  TP1h  1 3.400000e-01    2.280000e+00
  TP1h  TP1a  1 3.400000e-01    2.280000e+00
  TP1h  TN1a  1 3.400000e-01    1.510000e+00
  TP1h  TN2a  1 3.400000e-01    1.510000e+00
  TP1h  TN3a  1 3.400000e-01    1.510000e+00
  TP1h  TN4a  1 3.400000e-01    2.020000e+00
  TP1h  TN5a  1 3.400000e-01    2.020000e+00
  TP1h  TN6a  1 3.400000e-01    2.280000e+00
  TP1h  TC6v  1 3.400000e-01    1.510000e+00
  TP1h  TC5v  1 3.400000e-01    1.230000e+00
  TP1h  TC4v  1 3.520000e-01    1.050000e+00
  TP1h  TC3v  1 3.660000e-01    9.350000e-01
  TP1h  TC2v  1 3.660000e-01    9.350000e-01
  TP1h  TC1v  1 3.850000e-01    8.550000e-01
  TP1h  TX4v  1 3.400000e-01    1.510000e+00
  TP1h  TX3v  1 3.400000e-01    1.510000e+00
  TP1h  TX2v  1 3.400000e-01    1.230000e+00
  TP1h  TX1v  1 3.520000e-01    1.050000e+00
  TP1h  TC6e  1 3.400000e-01    1.510000e+00
  TP1h  TC5e  1 3.400000e-01    1.230000e+00
  TP1h  TC4e  1 3.520000e-01    1.050000e+00
  TP1h  TC3e  1 3.660000e-01    9.350000e-01
  TP1h  TC2e  1 3.660000e-01    9.350000e-01
  TP1h  TC1e  1 3.850000e-01    8.550000e-01
  TP1h  TX4e  1 3.400000e-01    1.510000e+00
  TP1h  TX3e  1 3.400000e-01    1.510000e+00
  TP1h  TX2e  1 3.400000e-01    1.230000e+00
  TP1h  TX1e  1 3.520000e-01    1.050000e+00
  TP6q  TP1h  1 3.400000e-01    2.990000e+00
  TP5q  TP1h  1 3.400000e-01    2.740000e+00
  TP4q  TP1h  1 3.400000e-01    2.740000e+00
  TP3q  TP1h  1 3.400000e-01    2.740000e+00
  TP2q  TP1h  1 3.400000e-01    2.740000e+00
  TP1h  TP1q  1 3.400000e-01    2.740000e+00
  TP1h  TX1q  1 3.400000e-01    1.230000e+00
  TP1h  TX2q  1 3.400000e-01    1.510000e+00
  TP1h  TX3q  1 3.400000e-01    1.770000e+00
  TP1h  TX4q  1 3.400000e-01    1.770000e+00
  TP1h  TC1q  1 3.660000e-01    9.350000e-01
  TP1h  TC2q  1 3.520000e-01    1.050000e+00
  TP1h  TC3q  1 3.520000e-01    1.050000e+00
  TP1h  TC4q  1 3.400000e-01    1.230000e+00
  TP1h  TC5q  1 3.400000e-01    1.510000e+00
  TP1h  TC6q  1 3.400000e-01    1.770000e+00
  TP1h  TN1q  1 3.400000e-01    2.020000e+00
  TP1h  TN2q  1 3.400000e-01    2.020000e+00
  TP1h  TN3q  1 3.400000e-01    2.020000e+00
  TP1h  TN4q  1 3.400000e-01    2.500000e+00
  TP1h  TN5q  1 3.400000e-01    2.500000e+00
  TP1h  TN6q  1 3.400000e-01    2.740000e+00
  TP6d  TN6h  1 3.400000e-01    2.280000e+00
  TP5d  TN6h  1 3.400000e-01    2.020000e+00
  TP4d  TN6h  1 3.400000e-01    2.020000e+00
  TP3d  TN6h  1 3.400000e-01    2.020000e+00
  TP2d  TN6h  1 3.400000e-01    2.280000e+00
  TP1d  TN6h  1 3.400000e-01    2.280000e+00
  TN6h  TN6d  1 3.400000e-01    2.280000e+00
  TN6h  TN1d  1 3.400000e-01    1.510000e+00
  TN6h  TN2d  1 3.400000e-01    1.510000e+00
  TN6h  TN3d  1 3.400000e-01    1.770000e+00
  TN6h  TN4d  1 3.400000e-01    2.280000e+00
  TN6h  TN5d  1 3.400000e-01    2.280000e+00
  TP6a  TN6h  1 3.400000e-01    2.280000e+00
  TP5a  TN6h  1 3.400000e-01    2.020000e+00
  TP4a  TN6h  1 3.400000e-01    2.020000e+00
  TP3a  TN6h  1 3.400000e-01    2.020000e+00
  TP2a  TN6h  1 3.400000e-01    2.280000e+00
  TP1a  TN6h  1 3.400000e-01    2.280000e+00
  TN6h  TN6a  1 3.400000e-01    2.280000e+00
  TN6h  TN1a  1 3.400000e-01    1.510000e+00
  TN6h  TN2a  1 3.400000e-01    1.510000e+00
  TN6h  TN3a  1 3.400000e-01    1.770000e+00
  TN6h  TN4a  1 3.400000e-01    2.280000e+00
  TN6h  TN5a  1 3.400000e-01    2.280000e+00
  TN6h  TC6v  1 3.400000e-01    1.770000e+00
  TN6h  TC5v  1 3.400000e-01    1.510000e+00
  TN6h  TC4v  1 3.400000e-01    1.230000e+00
  TN6h  TC3v  1 3.520000e-01    1.050000e+00
  TN6h  TC2v  1 3.520000e-01    1.050000e+00
  TN6h  TC1v  1 3.660000e-01    9.350000e-01
  TN6h  TX4v  1 3.400000e-01    1.770000e+00
  TN6h  TX3v  1 3.400000e-01    1.510000e+00
  TN6h  TX2v  1 3.400000e-01    1.230000e+00
  TN6h  TX1v  1 3.520000e-01    1.050000e+00
  TN6h  TC6e  1 3.400000e-01    1.770000e+00
  TN6h  TC5e  1 3.400000e-01    1.510000e+00
  TN6h  TC4e  1 3.400000e-01    1.230000e+00
  TN6h  TC3e  1 3.520000e-01    1.050000e+00
  TN6h  TC2e  1 3.520000e-01    1.050000e+00
  TN6h  TC1e  1 3.660000e-01    9.350000e-01
  TN6h  TX4e  1 3.400000e-01    1.770000e+00
  TN6h  TX3e  1 3.400000e-01    1.510000e+00
  TN6h  TX2e  1 3.400000e-01    1.230000e+00
  TN6h  TX1e  1 3.520000e-01    1.050000e+00
  TP6q  TN6h  1 3.400000e-01    2.740000e+00
  TP5q  TN6h  1 3.400000e-01    2.500000e+00
  TP4q  TN6h  1 3.400000e-01    2.500000e+00
  TP3q  TN6h  1 3.400000e-01    2.500000e+00
  TP2q  TN6h  1 3.400000e-01    2.740000e+00
  TP1q  TN6h  1 3.400000e-01    2.740000e+00
  TN6h  TN6q  1 3.400000e-01    2.740000e+00
  TN6h  TX1q  1 3.400000e-01    1.230000e+00
  TN6h  TX2q  1 3.400000e-01    1.510000e+00
  TN6h  TX3q  1 3.400000e-01    1.770000e+00
  TN6h  TX4q  1 3.400000e-01    2.020000e+00
  TN6h  TC1q  1 3.520000e-01    1.050000e+00
  TN6h  TC2q  1 3.400000e-01    1.230000e+00
  TN6h  TC3q  1 3.400000e-01    1.230000e+00
  TN6h  TC4q  1 3.400000e-01    1.510000e+00
  TN6h  TC5q  1 3.400000e-01    1.770000e+00
  TN6h  TC6q  1 3.400000e-01    2.020000e+00
  TN6h  TN1q  1 3.400000e-01    2.020000e+00
  TN6h  TN2q  1 3.400000e-01    2.020000e+00
  TN6h  TN3q  1 3.400000e-01    2.280000e+00
  TN6h  TN4q  1 3.400000e-01    2.740000e+00
  TN6h  TN5q  1 3.400000e-01    2.740000e+00
  TP6d  TN5h  1 3.400000e-01    1.770000e+00
  TP5d  TN5h  1 3.400000e-01    1.770000e+00
  TP4d  TN5h  1 3.400000e-01    1.770000e+00
  TP3d  TN5h  1 3.400000e-01    1.770000e+00
  TP2d  TN5h  1 3.400000e-01    2.020000e+00
  TP1d  TN5h  1 3.400000e-01    2.020000e+00
  TN6d  TN5h  1 3.400000e-01    2.280000e+00
  TN5h  TN5d  1 3.400000e-01    2.020000e+00
  TN5h  TN1d  1 3.400000e-01    1.510000e+00
  TN5h  TN2d  1 3.400000e-01    1.770000e+00
  TN5h  TN3d  1 3.400000e-01    1.770000e+00
  TN5h  TN4d  1 3.400000e-01    2.020000e+00
  TP6a  TN5h  1 3.400000e-01    1.770000e+00
  TP5a  TN5h  1 3.400000e-01    1.770000e+00
  TP4a  TN5h  1 3.400000e-01    1.770000e+00
  TP3a  TN5h  1 3.400000e-01    1.770000e+00
  TP2a  TN5h  1 3.400000e-01    2.020000e+00
  TP1a  TN5h  1 3.400000e-01    2.020000e+00
  TN6a  TN5h  1 3.400000e-01    2.280000e+00
  TN5h  TN5a  1 3.400000e-01    2.020000e+00
  TN5h  TN1a  1 3.400000e-01    1.510000e+00
  TN5h  TN2a  1 3.400000e-01    1.770000e+00
  TN5h  TN3a  1 3.400000e-01    1.770000e+00
  TN5h  TN4a  1 3.400000e-01    2.020000e+00
  TN5h  TC6v  1 3.400000e-01    1.770000e+00
  TN5h  TC5v  1 3.400000e-01    1.510000e+00
  TN5h  TC4v  1 3.400000e-01    1.230000e+00
  TN5h  TC3v  1 3.400000e-01    1.230000e+00
  TN5h  TC2v  1 3.520000e-01    1.050000e+00
  TN5h  TC1v  1 3.660000e-01    9.350000e-01
  TN5h  TX4v  1 3.400000e-01    2.020000e+00
  TN5h  TX3v  1 3.400000e-01    1.770000e+00
  TN5h  TX2v  1 3.400000e-01    1.510000e+00
  TN5h  TX1v  1 3.400000e-01    1.230000e+00
  TN5h  TC6e  1 3.400000e-01    1.770000e+00
  TN5h  TC5e  1 3.400000e-01    1.510000e+00
  TN5h  TC4e  1 3.400000e-01    1.230000e+00
  TN5h  TC3e  1 3.400000e-01    1.230000e+00
  TN5h  TC2e  1 3.520000e-01    1.050000e+00
  TN5h  TC1e  1 3.660000e-01    9.350000e-01
  TN5h  TX4e  1 3.400000e-01    2.020000e+00
  TN5h  TX3e  1 3.400000e-01    1.770000e+00
  TN5h  TX2e  1 3.400000e-01    1.510000e+00
  TN5h  TX1e  1 3.400000e-01    1.230000e+00
  TP6q  TN5h  1 3.400000e-01    2.280000e+00
  TP5q  TN5h  1 3.400000e-01    2.280000e+00
  TP4q  TN5h  1 3.400000e-01    2.280000e+00
  TP3q  TN5h  1 3.400000e-01    2.280000e+00
  TP2q  TN5h  1 3.400000e-01    2.500000e+00
  TP1q  TN5h  1 3.400000e-01    2.500000e+00
  TN6q  TN5h  1 3.400000e-01    2.740000e+00
  TN5h  TN5q  1 3.400000e-01    2.500000e+00
  TN5h  TX1q  1 3.400000e-01    1.510000e+00
  TN5h  TX2q  1 3.400000e-01    1.770000e+00
  TN5h  TX3q  1 3.400000e-01    2.020000e+00
  TN5h  TX4q  1 3.400000e-01    2.280000e+00
  TN5h  TC1q  1 3.520000e-01    1.050000e+00
  TN5h  TC2q  1 3.400000e-01    1.230000e+00
  TN5h  TC3q  1 3.400000e-01    1.510000e+00
  TN5h  TC4q  1 3.400000e-01    1.510000e+00
  TN5h  TC5q  1 3.400000e-01    1.770000e+00
  TN5h  TC6q  1 3.400000e-01    2.020000e+00
  TN5h  TN1q  1 3.400000e-01    2.020000e+00
  TN5h  TN2q  1 3.400000e-01    2.280000e+00
  TN5h  TN3q  1 3.400000e-01    2.280000e+00
  TN5h  TN4q  1 3.400000e-01    2.500000e+00
  TP6d  TN4h  1 3.400000e-01    1.510000e+00
  TP5d  TN4h  1 3.400000e-01    1.770000e+00
  TP4d  TN4h  1 3.400000e-01    1.770000e+00
  TP3d  TN4h  1 3.400000e-01    1.770000e+00
  TP2d  TN4h  1 3.400000e-01    1.770000e+00
  TP1d  TN4h  1 3.400000e-01    2.020000e+00
  TN6d  TN4h  1 3.400000e-01    2.280000e+00
  TN5d  TN4h  1 3.400000e-01    2.020000e+00
  TN4h  TN4d  1 3.400000e-01    2.020000e+00
  TN4h  TN1d  1 3.400000e-01    1.510000e+00
  TN4h  TN2d  1 3.400000e-01    1.770000e+00
  TN4h  TN3d  1 3.400000e-01    1.770000e+00
  TP6a  TN4h  1 3.400000e-01    1.510000e+00
  TP5a  TN4h  1 3.400000e-01    1.770000e+00
  TP4a  TN4h  1 3.400000e-01    1.770000e+00
  TP3a  TN4h  1 3.400000e-01    1.770000e+00
  TP2a  TN4h  1 3.400000e-01    1.770000e+00
  TP1a  TN4h  1 3.400000e-01    2.020000e+00
  TN6a  TN4h  1 3.400000e-01    2.280000e+00
  TN5a  TN4h  1 3.400000e-01    2.020000e+00
  TN4h  TN4a  1 3.400000e-01    2.020000e+00
  TN4h  TN1a  1 3.400000e-01    1.510000e+00
  TN4h  TN2a  1 3.400000e-01    1.770000e+00
  TN4h  TN3a  1 3.400000e-01    1.770000e+00
  TN4h  TC6v  1 3.400000e-01    1.770000e+00
  TN4h  TC5v  1 3.400000e-01    1.510000e+00
  TN4h  TC4v  1 3.400000e-01    1.510000e+00
  TN4h  TC3v  1 3.400000e-01    1.230000e+00
  TN4h  TC2v  1 3.520000e-01    1.050000e+00
  TN4h  TC1v  1 3.660000e-01    9.350000e-01
  TN4h  TX4v  1 3.400000e-01    2.280000e+00
  TN4h  TX3v  1 3.400000e-01    2.020000e+00
  TN4h  TX2v  1 3.400000e-01    1.510000e+00
  TN4h  TX1v  1 3.400000e-01    1.230000e+00
  TN4h  TC6e  1 3.400000e-01    1.770000e+00
  TN4h  TC5e  1 3.400000e-01    1.510000e+00
  TN4h  TC4e  1 3.400000e-01    1.510000e+00
  TN4h  TC3e  1 3.400000e-01    1.230000e+00
  TN4h  TC2e  1 3.520000e-01    1.050000e+00
  TN4h  TC1e  1 3.660000e-01    9.350000e-01
  TN4h  TX4e  1 3.400000e-01    2.280000e+00
  TN4h  TX3e  1 3.400000e-01    2.020000e+00
  TN4h  TX2e  1 3.400000e-01    1.510000e+00
  TN4h  TX1e  1 3.400000e-01    1.230000e+00
  TP6q  TN4h  1 3.400000e-01    2.020000e+00
  TP5q  TN4h  1 3.400000e-01    2.280000e+00
  TP4q  TN4h  1 3.400000e-01    2.280000e+00
  TP3q  TN4h  1 3.400000e-01    2.280000e+00
  TP2q  TN4h  1 3.400000e-01    2.280000e+00
  TP1q  TN4h  1 3.400000e-01    2.500000e+00
  TN6q  TN4h  1 3.400000e-01    2.740000e+00
  TN5q  TN4h  1 3.400000e-01    2.500000e+00
  TN4h  TN4q  1 3.400000e-01    2.500000e+00
  TN4h  TX1q  1 3.400000e-01    1.510000e+00
  TN4h  TX2q  1 3.400000e-01    1.770000e+00
  TN4h  TX3q  1 3.400000e-01    2.280000e+00
  TN4h  TX4q  1 3.400000e-01    2.500000e+00
  TN4h  TC1q  1 3.520000e-01    1.050000e+00
  TN4h  TC2q  1 3.400000e-01    1.230000e+00
  TN4h  TC3q  1 3.400000e-01    1.510000e+00
  TN4h  TC4q  1 3.400000e-01    1.770000e+00
  TN4h  TC5q  1 3.400000e-01    1.770000e+00
  TN4h  TC6q  1 3.400000e-01    2.020000e+00
  TN4h  TN1q  1 3.400000e-01    2.020000e+00
  TN4h  TN2q  1 3.400000e-01    2.280000e+00
  TN4h  TN3q  1 3.400000e-01    2.280000e+00
  TP6d  TN3h  1 3.400000e-01    1.230000e+00
  TP5d  TN3h  1 3.400000e-01    1.230000e+00
  TP4d  TN3h  1 3.400000e-01    1.510000e+00
  TP3d  TN3h  1 3.400000e-01    1.510000e+00
  TP2d  TN3h  1 3.400000e-01    1.510000e+00
  TP1d  TN3h  1 3.400000e-01    1.510000e+00
  TN6d  TN3h  1 3.400000e-01    1.770000e+00
  TN5d  TN3h  1 3.400000e-01    1.770000e+00
  TN4d  TN3h  1 3.400000e-01    1.770000e+00
  TN3h  TN3d  1 3.400000e-01    1.770000e+00
  TN3h  TN1d  1 3.400000e-01    1.510000e+00
  TN3h  TN2d  1 3.400000e-01    1.770000e+00
  TP6a  TN3h  1 3.400000e-01    1.230000e+00
  TP5a  TN3h  1 3.400000e-01    1.230000e+00
  TP4a  TN3h  1 3.400000e-01    1.510000e+00
  TP3a  TN3h  1 3.400000e-01    1.510000e+00
  TP2a  TN3h  1 3.400000e-01    1.510000e+00
  TP1a  TN3h  1 3.400000e-01    1.510000e+00
  TN6a  TN3h  1 3.400000e-01    1.770000e+00
  TN5a  TN3h  1 3.400000e-01    1.770000e+00
  TN4a  TN3h  1 3.400000e-01    1.770000e+00
  TN3h  TN3a  1 3.400000e-01    1.770000e+00
  TN3h  TN1a  1 3.400000e-01    1.510000e+00
  TN3h  TN2a  1 3.400000e-01    1.770000e+00
  TN3h  TC6v  1 3.400000e-01    1.770000e+00
  TN3h  TC5v  1 3.400000e-01    1.510000e+00
  TN3h  TC4v  1 3.400000e-01    1.510000e+00
  TN3h  TC3v  1 3.400000e-01    1.230000e+00
  TN3h  TC2v  1 3.400000e-01    1.230000e+00
  TN3h  TC1v  1 3.520000e-01    1.050000e+00
  TN3h  TX4v  1 3.400000e-01    2.020000e+00
  TN3h  TX3v  1 3.400000e-01    1.770000e+00
  TN3h  TX2v  1 3.400000e-01    1.510000e+00
  TN3h  TX1v  1 3.400000e-01    1.510000e+00
  TN3h  TC6e  1 3.400000e-01    1.770000e+00
  TN3h  TC5e  1 3.400000e-01    1.510000e+00
  TN3h  TC4e  1 3.400000e-01    1.510000e+00
  TN3h  TC3e  1 3.400000e-01    1.230000e+00
  TN3h  TC2e  1 3.400000e-01    1.230000e+00
  TN3h  TC1e  1 3.520000e-01    1.050000e+00
  TN3h  TX4e  1 3.400000e-01    2.020000e+00
  TN3h  TX3e  1 3.400000e-01    1.770000e+00
  TN3h  TX2e  1 3.400000e-01    1.510000e+00
  TN3h  TX1e  1 3.400000e-01    1.510000e+00
  TP6q  TN3h  1 3.400000e-01    1.770000e+00
  TP5q  TN3h  1 3.400000e-01    1.770000e+00
  TP4q  TN3h  1 3.400000e-01    2.020000e+00
  TP3q  TN3h  1 3.400000e-01    2.020000e+00
  TP2q  TN3h  1 3.400000e-01    2.020000e+00
  TP1q  TN3h  1 3.400000e-01    2.020000e+00
  TN6q  TN3h  1 3.400000e-01    2.280000e+00
  TN5q  TN3h  1 3.400000e-01    2.280000e+00
  TN4q  TN3h  1 3.400000e-01    2.280000e+00
  TN3h  TN3q  1 3.400000e-01    2.280000e+00
  TN3h  TX1q  1 3.400000e-01    1.770000e+00
  TN3h  TX2q  1 3.400000e-01    1.770000e+00
  TN3h  TX3q  1 3.400000e-01    2.020000e+00
  TN3h  TX4q  1 3.400000e-01    2.280000e+00
  TN3h  TC1q  1 3.400000e-01    1.230000e+00
  TN3h  TC2q  1 3.400000e-01    1.510000e+00
  TN3h  TC3q  1 3.400000e-01    1.510000e+00
  TN3h  TC4q  1 3.400000e-01    1.770000e+00
  TN3h  TC5q  1 3.400000e-01    1.770000e+00
  TN3h  TC6q  1 3.400000e-01    2.020000e+00
  TN3h  TN1q  1 3.400000e-01    2.020000e+00
  TN3h  TN2q  1 3.400000e-01    2.280000e+00
  TP6d  TN2h  1 3.520000e-01    1.050000e+00
  TP5d  TN2h  1 3.520000e-01    1.050000e+00
  TP4d  TN2h  1 3.400000e-01    1.230000e+00
  TP3d  TN2h  1 3.400000e-01    1.510000e+00
  TP2d  TN2h  1 3.400000e-01    1.510000e+00
  TP1d  TN2h  1 3.400000e-01    1.510000e+00
  TN6d  TN2h  1 3.400000e-01    1.510000e+00
  TN5d  TN2h  1 3.400000e-01    1.770000e+00
  TN4d  TN2h  1 3.400000e-01    1.770000e+00
  TN3d  TN2h  1 3.400000e-01    1.770000e+00
  TN2h  TN2d  1 3.400000e-01    1.770000e+00
  TN2h  TN1d  1 3.400000e-01    1.510000e+00
  TP6a  TN2h  1 3.520000e-01    1.050000e+00
  TP5a  TN2h  1 3.520000e-01    1.050000e+00
  TP4a  TN2h  1 3.400000e-01    1.230000e+00
  TP3a  TN2h  1 3.400000e-01    1.510000e+00
  TP2a  TN2h  1 3.400000e-01    1.510000e+00
  TP1a  TN2h  1 3.400000e-01    1.510000e+00
  TN6a  TN2h  1 3.400000e-01    1.510000e+00
  TN5a  TN2h  1 3.400000e-01    1.770000e+00
  TN4a  TN2h  1 3.400000e-01    1.770000e+00
  TN3a  TN2h  1 3.400000e-01    1.770000e+00
  TN2h  TN2a  1 3.400000e-01    1.770000e+00
  TN2h  TN1a  1 3.400000e-01    1.510000e+00
  TN2h  TC6v  1 3.400000e-01    1.770000e+00
  TN2h  TC5v  1 3.400000e-01    1.510000e+00
  TN2h  TC4v  1 3.400000e-01    1.510000e+00
  TN2h  TC3v  1 3.400000e-01    1.510000e+00
  TN2h  TC2v  1 3.400000e-01    1.230000e+00
  TN2h  TC1v  1 3.520000e-01    1.050000e+00
  TN2h  TX4v  1 3.400000e-01    2.020000e+00
  TN2h  TX3v  1 3.400000e-01    1.770000e+00
  TN2h  TX2v  1 3.400000e-01    1.510000e+00
  TN2h  TX1v  1 3.400000e-01    1.510000e+00
  TN2h  TC6e  1 3.400000e-01    1.770000e+00
  TN2h  TC5e  1 3.400000e-01    1.510000e+00
  TN2h  TC4e  1 3.400000e-01    1.510000e+00
  TN2h  TC3e  1 3.400000e-01    1.510000e+00
  TN2h  TC2e  1 3.400000e-01    1.230000e+00
  TN2h  TC1e  1 3.520000e-01    1.050000e+00
  TN2h  TX4e  1 3.400000e-01    2.020000e+00
  TN2h  TX3e  1 3.400000e-01    1.770000e+00
  TN2h  TX2e  1 3.400000e-01    1.510000e+00
  TN2h  TX1e  1 3.400000e-01    1.510000e+00
  TP6q  TN2h  1 3.400000e-01    1.510000e+00
  TP5q  TN2h  1 3.400000e-01    1.510000e+00
  TP4q  TN2h  1 3.400000e-01    1.770000e+00
  TP3q  TN2h  1 3.400000e-01    2.020000e+00
  TP2q  TN2h  1 3.400000e-01    2.020000e+00
  TP1q  TN2h  1 3.400000e-01    2.020000e+00
  TN6q  TN2h  1 3.400000e-01    2.020000e+00
  TN5q  TN2h  1 3.400000e-01    2.280000e+00
  TN4q  TN2h  1 3.400000e-01    2.280000e+00
  TN3q  TN2h  1 3.400000e-01    2.280000e+00
  TN2h  TN2q  1 3.400000e-01    2.280000e+00
  TN2h  TX1q  1 3.400000e-01    1.770000e+00
  TN2h  TX2q  1 3.400000e-01    1.770000e+00
  TN2h  TX3q  1 3.400000e-01    2.020000e+00
  TN2h  TX4q  1 3.400000e-01    2.280000e+00
  TN2h  TC1q  1 3.400000e-01    1.230000e+00
  TN2h  TC2q  1 3.400000e-01    1.510000e+00
  TN2h  TC3q  1 3.400000e-01    1.770000e+00
  TN2h  TC4q  1 3.400000e-01    1.770000e+00
  TN2h  TC5q  1 3.400000e-01    1.770000e+00
  TN2h  TC6q  1 3.400000e-01    2.020000e+00
  TN2h  TN1q  1 3.400000e-01    2.020000e+00
  TP6d  TN1h  1 3.660000e-01    9.350000e-01
  TP5d  TN1h  1 3.660000e-01    9.350000e-01
  TP4d  TN1h  1 3.520000e-01    1.050000e+00
  TP3d  TN1h  1 3.400000e-01    1.230000e+00
  TP2d  TN1h  1 3.400000e-01    1.510000e+00
  TP1d  TN1h  1 3.400000e-01    1.510000e+00
  TN6d  TN1h  1 3.400000e-01    1.510000e+00
  TN5d  TN1h  1 3.400000e-01    1.510000e+00
  TN4d  TN1h  1 3.400000e-01    1.510000e+00
  TN3d  TN1h  1 3.400000e-01    1.510000e+00
  TN2d  TN1h  1 3.400000e-01    1.510000e+00
  TN1h  TN1d  1 3.400000e-01    1.770000e+00
  TP6a  TN1h  1 3.660000e-01    9.350000e-01
  TP5a  TN1h  1 3.660000e-01    9.350000e-01
  TP4a  TN1h  1 3.520000e-01    1.050000e+00
  TP3a  TN1h  1 3.400000e-01    1.230000e+00
  TP2a  TN1h  1 3.400000e-01    1.510000e+00
  TP1a  TN1h  1 3.400000e-01    1.510000e+00
  TN6a  TN1h  1 3.400000e-01    1.510000e+00
  TN5a  TN1h  1 3.400000e-01    1.510000e+00
  TN4a  TN1h  1 3.400000e-01    1.510000e+00
  TN3a  TN1h  1 3.400000e-01    1.510000e+00
  TN2a  TN1h  1 3.400000e-01    1.510000e+00
  TN1h  TN1a  1 3.400000e-01    1.770000e+00
  TN1h  TC6v  1 3.400000e-01    2.020000e+00
  TN1h  TC5v  1 3.400000e-01    1.770000e+00
  TN1h  TC4v  1 3.400000e-01    1.770000e+00
  TN1h  TC3v  1 3.400000e-01    1.510000e+00
  TN1h  TC2v  1 3.400000e-01    1.230000e+00
  TN1h  TC1v  1 3.520000e-01    1.050000e+00
  TN1h  TX4v  1 3.400000e-01    1.770000e+00
  TN1h  TX3v  1 3.400000e-01    1.770000e+00
  TN1h  TX2v  1 3.400000e-01    1.510000e+00
  TN1h  TX1v  1 3.400000e-01    1.510000e+00
  TN1h  TC6e  1 3.400000e-01    2.020000e+00
  TN1h  TC5e  1 3.400000e-01    1.770000e+00
  TN1h  TC4e  1 3.400000e-01    1.770000e+00
  TN1h  TC3e  1 3.400000e-01    1.510000e+00
  TN1h  TC2e  1 3.400000e-01    1.230000e+00
  TN1h  TC1e  1 3.520000e-01    1.050000e+00
  TN1h  TX4e  1 3.400000e-01    1.770000e+00
  TN1h  TX3e  1 3.400000e-01    1.770000e+00
  TN1h  TX2e  1 3.400000e-01    1.510000e+00
  TN1h  TX1e  1 3.400000e-01    1.510000e+00
  TP6q  TN1h  1 3.400000e-01    1.230000e+00
  TP5q  TN1h  1 3.400000e-01    1.230000e+00
  TP4q  TN1h  1 3.400000e-01    1.510000e+00
  TP3q  TN1h  1 3.400000e-01    1.770000e+00
  TP2q  TN1h  1 3.400000e-01    2.020000e+00
  TP1q  TN1h  1 3.400000e-01    2.020000e+00
  TN6q  TN1h  1 3.400000e-01    2.020000e+00
  TN5q  TN1h  1 3.400000e-01    2.020000e+00
  TN4q  TN1h  1 3.400000e-01    2.020000e+00
  TN3q  TN1h  1 3.400000e-01    2.020000e+00
  TN2q  TN1h  1 3.400000e-01    2.020000e+00
  TN1h  TN1q  1 3.400000e-01    2.280000e+00
  TN1h  TX1q  1 3.400000e-01    1.770000e+00
  TN1h  TX2q  1 3.400000e-01    1.770000e+00
  TN1h  TX3q  1 3.400000e-01    2.020000e+00
  TN1h  TX4q  1 3.400000e-01    2.020000e+00
  TN1h  TC1q  1 3.400000e-01    1.230000e+00
  TN1h  TC2q  1 3.400000e-01    1.510000e+00
  TN1h  TC3q  1 3.400000e-01    1.770000e+00
  TN1h  TC4q  1 3.400000e-01    2.020000e+00
  TN1h  TC5q  1 3.400000e-01    2.020000e+00
  TN1h  TC6q  1 3.400000e-01    2.280000e+00
  TP6d  TC6h  1 3.660000e-01    9.350000e-01
  TP5d  TC6h  1 3.660000e-01    9.350000e-01
  TP4d  TC6h  1 3.520000e-01    1.050000e+00
  TP3d  TC6h  1 3.400000e-01    1.230000e+00
  TP2d  TC6h  1 3.400000e-01    1.230000e+00
  TP1d  TC6h  1 3.400000e-01    1.230000e+00
  TN6d  TC6h  1 3.400000e-01    1.510000e+00
  TN5d  TC6h  1 3.400000e-01    1.510000e+00
  TN4d  TC6h  1 3.400000e-01    1.510000e+00
  TN3d  TC6h  1 3.400000e-01    1.510000e+00
  TN2d  TC6h  1 3.400000e-01    1.510000e+00
  TN1d  TC6h  1 3.400000e-01    1.770000e+00
  TP6a  TC6h  1 3.660000e-01    9.350000e-01
  TP5a  TC6h  1 3.660000e-01    9.350000e-01
  TP4a  TC6h  1 3.520000e-01    1.050000e+00
  TP3a  TC6h  1 3.400000e-01    1.230000e+00
  TP2a  TC6h  1 3.400000e-01    1.230000e+00
  TP1a  TC6h  1 3.400000e-01    1.230000e+00
  TN6a  TC6h  1 3.400000e-01    1.510000e+00
  TN5a  TC6h  1 3.400000e-01    1.510000e+00
  TN4a  TC6h  1 3.400000e-01    1.510000e+00
  TN3a  TC6h  1 3.400000e-01    1.510000e+00
  TN2a  TC6h  1 3.400000e-01    1.510000e+00
  TN1a  TC6h  1 3.400000e-01    1.770000e+00
  TC6h  TC6v  1 3.400000e-01    2.020000e+00
  TC6h  TX1v  1 3.400000e-01    1.770000e+00
  TC6h  TX2v  1 3.400000e-01    1.770000e+00
  TC6h  TX3v  1 3.400000e-01    1.770000e+00
  TC6h  TX4v  1 3.400000e-01    1.770000e+00
  TC6h  TC1v  1 3.520000e-01    1.050000e+00
  TC6h  TC2v  1 3.400000e-01    1.230000e+00
  TC6h  TC3v  1 3.400000e-01    1.510000e+00
  TC6h  TC4v  1 3.400000e-01    1.770000e+00
  TC6h  TC5v  1 3.400000e-01    1.770000e+00
  TC6h  TC6e  1 3.400000e-01    2.020000e+00
  TC6h  TX1e  1 3.400000e-01    1.770000e+00
  TC6h  TX2e  1 3.400000e-01    1.770000e+00
  TC6h  TX3e  1 3.400000e-01    1.770000e+00
  TC6h  TX4e  1 3.400000e-01    1.770000e+00
  TC6h  TC1e  1 3.520000e-01    1.050000e+00
  TC6h  TC2e  1 3.400000e-01    1.230000e+00
  TC6h  TC3e  1 3.400000e-01    1.510000e+00
  TC6h  TC4e  1 3.400000e-01    1.770000e+00
  TC6h  TC5e  1 3.400000e-01    1.770000e+00
  TP6q  TC6h  1 3.400000e-01    1.230000e+00
  TP5q  TC6h  1 3.400000e-01    1.230000e+00
  TP4q  TC6h  1 3.400000e-01    1.510000e+00
  TP3q  TC6h  1 3.400000e-01    1.770000e+00
  TP2q  TC6h  1 3.400000e-01    1.770000e+00
  TP1q  TC6h  1 3.400000e-01    1.770000e+00
  TN6q  TC6h  1 3.400000e-01    2.020000e+00
  TN5q  TC6h  1 3.400000e-01    2.020000e+00
  TN4q  TC6h  1 3.400000e-01    2.020000e+00
  TN3q  TC6h  1 3.400000e-01    2.020000e+00
  TN2q  TC6h  1 3.400000e-01    2.020000e+00
  TN1q  TC6h  1 3.400000e-01    2.280000e+00
  TC6h  TC6q  1 3.400000e-01    2.280000e+00
  TC6h  TX1q  1 3.400000e-01    2.020000e+00
  TC6h  TX2q  1 3.400000e-01    2.020000e+00
  TC6h  TX3q  1 3.400000e-01    2.020000e+00
  TC6h  TX4q  1 3.400000e-01    2.020000e+00
  TC6h  TC1q  1 3.400000e-01    1.230000e+00
  TC6h  TC2q  1 3.400000e-01    1.510000e+00
  TC6h  TC3q  1 3.400000e-01    1.770000e+00
  TC6h  TC4q  1 3.400000e-01    2.020000e+00
  TC6h  TC5q  1 3.400000e-01    2.020000e+00
  TP6d  TC5h  1 3.850000e-01    8.550000e-01
  TP5d  TC5h  1 3.660000e-01    9.350000e-01
  TP4d  TC5h  1 3.660000e-01    9.350000e-01
  TP3d  TC5h  1 3.520000e-01    1.050000e+00
  TP2d  TC5h  1 3.520000e-01    1.050000e+00
  TP1d  TC5h  1 3.520000e-01    1.050000e+00
  TN6d  TC5h  1 3.400000e-01    1.230000e+00
  TN5d  TC5h  1 3.400000e-01    1.230000e+00
  TN4d  TC5h  1 3.400000e-01    1.230000e+00
  TN3d  TC5h  1 3.400000e-01    1.230000e+00
  TN2d  TC5h  1 3.400000e-01    1.230000e+00
  TN1d  TC5h  1 3.400000e-01    1.510000e+00
  TP6a  TC5h  1 3.850000e-01    8.550000e-01
  TP5a  TC5h  1 3.660000e-01    9.350000e-01
  TP4a  TC5h  1 3.660000e-01    9.350000e-01
  TP3a  TC5h  1 3.520000e-01    1.050000e+00
  TP2a  TC5h  1 3.520000e-01    1.050000e+00
  TP1a  TC5h  1 3.520000e-01    1.050000e+00
  TN6a  TC5h  1 3.400000e-01    1.230000e+00
  TN5a  TC5h  1 3.400000e-01    1.230000e+00
  TN4a  TC5h  1 3.400000e-01    1.230000e+00
  TN3a  TC5h  1 3.400000e-01    1.230000e+00
  TN2a  TC5h  1 3.400000e-01    1.230000e+00
  TN1a  TC5h  1 3.400000e-01    1.510000e+00
  TC6v  TC5h  1 3.400000e-01    1.770000e+00
  TC5h  TC5v  1 3.400000e-01    1.770000e+00
  TC5h  TX1v  1 3.400000e-01    1.770000e+00
  TC5h  TX2v  1 3.400000e-01    1.510000e+00
  TC5h  TX3v  1 3.400000e-01    1.510000e+00
  TC5h  TX4v  1 3.400000e-01    1.510000e+00
  TC5h  TC1v  1 3.400000e-01    1.230000e+00
  TC5h  TC2v  1 3.400000e-01    1.230000e+00
  TC5h  TC3v  1 3.400000e-01    1.510000e+00
  TC5h  TC4v  1 3.400000e-01    1.770000e+00
  TC6e  TC5h  1 3.400000e-01    1.770000e+00
  TC5h  TC5e  1 3.400000e-01    1.770000e+00
  TC5h  TX1e  1 3.400000e-01    1.770000e+00
  TC5h  TX2e  1 3.400000e-01    1.510000e+00
  TC5h  TX3e  1 3.400000e-01    1.510000e+00
  TC5h  TX4e  1 3.400000e-01    1.510000e+00
  TC5h  TC1e  1 3.400000e-01    1.230000e+00
  TC5h  TC2e  1 3.400000e-01    1.230000e+00
  TC5h  TC3e  1 3.400000e-01    1.510000e+00
  TC5h  TC4e  1 3.400000e-01    1.770000e+00
  TP6q  TC5h  1 3.520000e-01    1.050000e+00
  TP5q  TC5h  1 3.400000e-01    1.230000e+00
  TP4q  TC5h  1 3.400000e-01    1.230000e+00
  TP3q  TC5h  1 3.400000e-01    1.510000e+00
  TP2q  TC5h  1 3.400000e-01    1.510000e+00
  TP1q  TC5h  1 3.400000e-01    1.510000e+00
  TN6q  TC5h  1 3.400000e-01    1.770000e+00
  TN5q  TC5h  1 3.400000e-01    1.770000e+00
  TN4q  TC5h  1 3.400000e-01    1.770000e+00
  TN3q  TC5h  1 3.400000e-01    1.770000e+00
  TN2q  TC5h  1 3.400000e-01    1.770000e+00
  TN1q  TC5h  1 3.400000e-01    2.020000e+00
  TC6q  TC5h  1 3.400000e-01    2.020000e+00
  TC5h  TC5q  1 3.400000e-01    2.020000e+00
  TC5h  TX1q  1 3.400000e-01    2.020000e+00
  TC5h  TX2q  1 3.400000e-01    1.770000e+00
  TC5h  TX3q  1 3.400000e-01    1.770000e+00
  TC5h  TX4q  1 3.400000e-01    1.770000e+00
  TC5h  TC1q  1 3.400000e-01    1.510000e+00
  TC5h  TC2q  1 3.400000e-01    1.510000e+00
  TC5h  TC3q  1 3.400000e-01    1.770000e+00
  TC5h  TC4q  1 3.400000e-01    2.020000e+00
  TP6d  TC4h  1 4.110000e-01    8.010000e-01
  TP5d  TC4h  1 3.850000e-01    8.550000e-01
  TP4d  TC4h  1 3.850000e-01    8.550000e-01
  TP3d  TC4h  1 3.660000e-01    9.350000e-01
  TP2d  TC4h  1 3.660000e-01    9.350000e-01
  TP1d  TC4h  1 3.660000e-01    9.350000e-01
  TN6d  TC4h  1 3.520000e-01    1.050000e+00
  TN5d  TC4h  1 3.520000e-01    1.050000e+00
  TN4d  TC4h  1 3.400000e-01    1.230000e+00
  TN3d  TC4h  1 3.400000e-01    1.230000e+00
  TN2d  TC4h  1 3.400000e-01    1.230000e+00
  TN1d  TC4h  1 3.400000e-01    1.510000e+00
  TP6a  TC4h  1 4.110000e-01    8.010000e-01
  TP5a  TC4h  1 3.850000e-01    8.550000e-01
  TP4a  TC4h  1 3.850000e-01    8.550000e-01
  TP3a  TC4h  1 3.660000e-01    9.350000e-01
  TP2a  TC4h  1 3.660000e-01    9.350000e-01
  TP1a  TC4h  1 3.660000e-01    9.350000e-01
  TN6a  TC4h  1 3.520000e-01    1.050000e+00
  TN5a  TC4h  1 3.520000e-01    1.050000e+00
  TN4a  TC4h  1 3.400000e-01    1.230000e+00
  TN3a  TC4h  1 3.400000e-01    1.230000e+00
  TN2a  TC4h  1 3.400000e-01    1.230000e+00
  TN1a  TC4h  1 3.400000e-01    1.510000e+00
  TC6v  TC4h  1 3.400000e-01    1.770000e+00
  TC5v  TC4h  1 3.400000e-01    1.770000e+00
  TC4h  TC4v  1 3.400000e-01    1.770000e+00
  TC4h  TX1v  1 3.400000e-01    1.770000e+00
  TC4h  TX2v  1 3.400000e-01    1.510000e+00
  TC4h  TX3v  1 3.400000e-01    1.510000e+00
  TC4h  TX4v  1 3.400000e-01    1.510000e+00
  TC4h  TC1v  1 3.400000e-01    1.230000e+00
  TC4h  TC2v  1 3.400000e-01    1.510000e+00
  TC4h  TC3v  1 3.400000e-01    1.770000e+00
  TC6e  TC4h  1 3.400000e-01    1.770000e+00
  TC5e  TC4h  1 3.400000e-01    1.770000e+00
  TC4h  TC4e  1 3.400000e-01    1.770000e+00
  TC4h  TX1e  1 3.400000e-01    1.770000e+00
  TC4h  TX2e  1 3.400000e-01    1.510000e+00
  TC4h  TX3e  1 3.400000e-01    1.510000e+00
  TC4h  TX4e  1 3.400000e-01    1.510000e+00
  TC4h  TC1e  1 3.400000e-01    1.230000e+00
  TC4h  TC2e  1 3.400000e-01    1.510000e+00
  TC4h  TC3e  1 3.400000e-01    1.770000e+00
  TP6q  TC4h  1 3.660000e-01    9.350000e-01
  TP5q  TC4h  1 3.520000e-01    1.050000e+00
  TP4q  TC4h  1 3.520000e-01    1.050000e+00
  TP3q  TC4h  1 3.400000e-01    1.230000e+00
  TP2q  TC4h  1 3.400000e-01    1.230000e+00
  TP1q  TC4h  1 3.400000e-01    1.230000e+00
  TN6q  TC4h  1 3.400000e-01    1.510000e+00
  TN5q  TC4h  1 3.400000e-01    1.510000e+00
  TN4q  TC4h  1 3.400000e-01    1.770000e+00
  TN3q  TC4h  1 3.400000e-01    1.770000e+00
  TN2q  TC4h  1 3.400000e-01    1.770000e+00
  TN1q  TC4h  1 3.400000e-01    2.020000e+00
  TC6q  TC4h  1 3.400000e-01    2.020000e+00
  TC5q  TC4h  1 3.400000e-01    2.020000e+00
  TC4h  TC4q  1 3.400000e-01    2.020000e+00
  TC4h  TX1q  1 3.400000e-01    2.020000e+00
  TC4h  TX2q  1 3.400000e-01    1.770000e+00
  TC4h  TX3q  1 3.400000e-01    1.770000e+00
  TC4h  TX4q  1 3.400000e-01    1.770000e+00
  TC4h  TC1q  1 3.400000e-01    1.510000e+00
  TC4h  TC2q  1 3.400000e-01    1.770000e+00
  TC4h  TC3q  1 3.400000e-01    2.020000e+00
  TP6d  TC3h  1 4.240000e-01    7.760000e-01
  TP5d  TC3h  1 4.110000e-01    8.010000e-01
  TP4d  TC3h  1 4.110000e-01    8.010000e-01
  TP3d  TC3h  1 4.110000e-01    8.010000e-01
  TP2d  TC3h  1 3.850000e-01    8.550000e-01
  TP1d  TC3h  1 3.850000e-01    8.550000e-01
  TN6d  TC3h  1 3.660000e-01    9.350000e-01
  TN5d  TC3h  1 3.520000e-01    1.050000e+00
  TN4d  TC3h  1 3.520000e-01    1.050000e+00
  TN3d  TC3h  1 3.520000e-01    1.050000e+00
  TN2d  TC3h  1 3.400000e-01    1.230000e+00
  TN1d  TC3h  1 3.400000e-01    1.230000e+00
  TP6a  TC3h  1 4.240000e-01    7.760000e-01
  TP5a  TC3h  1 4.110000e-01    8.010000e-01
  TP4a  TC3h  1 4.110000e-01    8.010000e-01
  TP3a  TC3h  1 4.110000e-01    8.010000e-01
  TP2a  TC3h  1 3.850000e-01    8.550000e-01
  TP1a  TC3h  1 3.850000e-01    8.550000e-01
  TN6a  TC3h  1 3.660000e-01    9.350000e-01
  TN5a  TC3h  1 3.520000e-01    1.050000e+00
  TN4a  TC3h  1 3.520000e-01    1.050000e+00
  TN3a  TC3h  1 3.520000e-01    1.050000e+00
  TN2a  TC3h  1 3.400000e-01    1.230000e+00
  TN1a  TC3h  1 3.400000e-01    1.230000e+00
  TC6v  TC3h  1 3.400000e-01    1.510000e+00
  TC5v  TC3h  1 3.400000e-01    1.510000e+00
  TC4v  TC3h  1 3.400000e-01    1.770000e+00
  TC3h  TC3v  1 3.400000e-01    1.770000e+00
  TC3h  TX1v  1 3.400000e-01    1.770000e+00
  TC3h  TX2v  1 3.400000e-01    1.510000e+00
  TC3h  TX3v  1 3.400000e-01    1.510000e+00
  TC3h  TX4v  1 3.400000e-01    1.510000e+00
  TC3h  TC1v  1 3.400000e-01    1.770000e+00
  TC3h  TC2v  1 3.400000e-01    1.770000e+00
  TC6e  TC3h  1 3.400000e-01    1.510000e+00
  TC5e  TC3h  1 3.400000e-01    1.510000e+00
  TC4e  TC3h  1 3.400000e-01    1.770000e+00
  TC3h  TC3e  1 3.400000e-01    1.770000e+00
  TC3h  TX1e  1 3.400000e-01    1.770000e+00
  TC3h  TX2e  1 3.400000e-01    1.510000e+00
  TC3h  TX3e  1 3.400000e-01    1.510000e+00
  TC3h  TX4e  1 3.400000e-01    1.510000e+00
  TC3h  TC1e  1 3.400000e-01    1.770000e+00
  TC3h  TC2e  1 3.400000e-01    1.770000e+00
  TP6q  TC3h  1 3.850000e-01    8.550000e-01
  TP5q  TC3h  1 3.660000e-01    9.350000e-01
  TP4q  TC3h  1 3.660000e-01    9.350000e-01
  TP3q  TC3h  1 3.660000e-01    9.350000e-01
  TP2q  TC3h  1 3.520000e-01    1.050000e+00
  TP1q  TC3h  1 3.520000e-01    1.050000e+00
  TN6q  TC3h  1 3.400000e-01    1.230000e+00
  TN5q  TC3h  1 3.400000e-01    1.510000e+00
  TN4q  TC3h  1 3.400000e-01    1.510000e+00
  TN3q  TC3h  1 3.400000e-01    1.510000e+00
  TN2q  TC3h  1 3.400000e-01    1.770000e+00
  TN1q  TC3h  1 3.400000e-01    1.770000e+00
  TC6q  TC3h  1 3.400000e-01    1.770000e+00
  TC5q  TC3h  1 3.400000e-01    1.770000e+00
  TC4q  TC3h  1 3.400000e-01    2.020000e+00
  TC3h  TC3q  1 3.400000e-01    2.020000e+00
  TC3h  TX1q  1 3.400000e-01    2.020000e+00
  TC3h  TX2q  1 3.400000e-01    1.770000e+00
  TC3h  TX3q  1 3.400000e-01    1.770000e+00
  TC3h  TX4q  1 3.400000e-01    1.770000e+00
  TC3h  TC1q  1 3.400000e-01    2.020000e+00
  TC3h  TC2q  1 3.400000e-01    2.020000e+00
  TP6d  TC2h  1 4.240000e-01    7.760000e-01
  TP5d  TC2h  1 4.110000e-01    8.010000e-01
  TP4d  TC2h  1 4.110000e-01    8.010000e-01
  TP3d  TC2h  1 4.110000e-01    8.010000e-01
  TP2d  TC2h  1 3.850000e-01    8.550000e-01
  TP1d  TC2h  1 3.850000e-01    8.550000e-01
  TN6d  TC2h  1 3.660000e-01    9.350000e-01
  TN5d  TC2h  1 3.660000e-01    9.350000e-01
  TN4d  TC2h  1 3.660000e-01    9.350000e-01
  TN3d  TC2h  1 3.520000e-01    1.050000e+00
  TN2d  TC2h  1 3.520000e-01    1.050000e+00
  TN1d  TC2h  1 3.520000e-01    1.050000e+00
  TP6a  TC2h  1 4.240000e-01    7.760000e-01
  TP5a  TC2h  1 4.110000e-01    8.010000e-01
  TP4a  TC2h  1 4.110000e-01    8.010000e-01
  TP3a  TC2h  1 4.110000e-01    8.010000e-01
  TP2a  TC2h  1 3.850000e-01    8.550000e-01
  TP1a  TC2h  1 3.850000e-01    8.550000e-01
  TN6a  TC2h  1 3.660000e-01    9.350000e-01
  TN5a  TC2h  1 3.660000e-01    9.350000e-01
  TN4a  TC2h  1 3.660000e-01    9.350000e-01
  TN3a  TC2h  1 3.520000e-01    1.050000e+00
  TN2a  TC2h  1 3.520000e-01    1.050000e+00
  TN1a  TC2h  1 3.520000e-01    1.050000e+00
  TC6v  TC2h  1 3.400000e-01    1.230000e+00
  TC5v  TC2h  1 3.400000e-01    1.230000e+00
  TC4v  TC2h  1 3.400000e-01    1.510000e+00
  TC3v  TC2h  1 3.400000e-01    1.770000e+00
  TC2h  TC2v  1 3.400000e-01    1.770000e+00
  TC2h  TX1v  1 3.400000e-01    1.510000e+00
  TC2h  TX2v  1 3.400000e-01    1.510000e+00
  TC2h  TX3v  1 3.400000e-01    1.510000e+00
  TC2h  TX4v  1 3.520000e-01    1.050000e+00
  TC2h  TC1v  1 3.400000e-01    2.020000e+00
  TC6e  TC2h  1 3.400000e-01    1.230000e+00
  TC5e  TC2h  1 3.400000e-01    1.230000e+00
  TC4e  TC2h  1 3.400000e-01    1.510000e+00
  TC3e  TC2h  1 3.400000e-01    1.770000e+00
  TC2h  TC2e  1 3.400000e-01    1.770000e+00
  TC2h  TX1e  1 3.400000e-01    1.510000e+00
  TC2h  TX2e  1 3.400000e-01    1.510000e+00
  TC2h  TX3e  1 3.400000e-01    1.510000e+00
  TC2h  TX4e  1 3.520000e-01    1.050000e+00
  TC2h  TC1e  1 3.400000e-01    2.020000e+00
  TP6q  TC2h  1 3.850000e-01    8.550000e-01
  TP5q  TC2h  1 3.660000e-01    9.350000e-01
  TP4q  TC2h  1 3.660000e-01    9.350000e-01
  TP3q  TC2h  1 3.660000e-01    9.350000e-01
  TP2q  TC2h  1 3.520000e-01    1.050000e+00
  TP1q  TC2h  1 3.520000e-01    1.050000e+00
  TN6q  TC2h  1 3.400000e-01    1.230000e+00
  TN5q  TC2h  1 3.400000e-01    1.230000e+00
  TN4q  TC2h  1 3.400000e-01    1.230000e+00
  TN3q  TC2h  1 3.400000e-01    1.510000e+00
  TN2q  TC2h  1 3.400000e-01    1.510000e+00
  TN1q  TC2h  1 3.400000e-01    1.510000e+00
  TC6q  TC2h  1 3.400000e-01    1.510000e+00
  TC5q  TC2h  1 3.400000e-01    1.510000e+00
  TC4q  TC2h  1 3.400000e-01    1.770000e+00
  TC3q  TC2h  1 3.400000e-01    2.020000e+00
  TC2h  TC2q  1 3.400000e-01    2.020000e+00
  TC2h  TX1q  1 3.400000e-01    1.770000e+00
  TC2h  TX2q  1 3.400000e-01    1.770000e+00
  TC2h  TX3q  1 3.400000e-01    1.770000e+00
  TC2h  TX4q  1 3.400000e-01    1.230000e+00
  TC2h  TC1q  1 3.400000e-01    2.280000e+00
  TP6d  TC1h  1 5.050000e-01    6.800000e-01
  TP5d  TC1h  1 4.240000e-01    7.760000e-01
  TP4d  TC1h  1 4.240000e-01    7.760000e-01
  TP3d  TC1h  1 4.240000e-01    7.760000e-01
  TP2d  TC1h  1 4.110000e-01    8.010000e-01
  TP1d  TC1h  1 4.110000e-01    8.010000e-01
  TN6d  TC1h  1 3.850000e-01    8.550000e-01
  TN5d  TC1h  1 3.850000e-01    8.550000e-01
  TN4d  TC1h  1 3.850000e-01    8.550000e-01
  TN3d  TC1h  1 3.660000e-01    9.350000e-01
  TN2d  TC1h  1 3.660000e-01    9.350000e-01
  TN1d  TC1h  1 3.660000e-01    9.350000e-01
  TP6a  TC1h  1 5.050000e-01    6.800000e-01
  TP5a  TC1h  1 4.240000e-01    7.760000e-01
  TP4a  TC1h  1 4.240000e-01    7.760000e-01
  TP3a  TC1h  1 4.240000e-01    7.760000e-01
  TP2a  TC1h  1 4.110000e-01    8.010000e-01
  TP1a  TC1h  1 4.110000e-01    8.010000e-01
  TN6a  TC1h  1 3.850000e-01    8.550000e-01
  TN5a  TC1h  1 3.850000e-01    8.550000e-01
  TN4a  TC1h  1 3.850000e-01    8.550000e-01
  TN3a  TC1h  1 3.660000e-01    9.350000e-01
  TN2a  TC1h  1 3.660000e-01    9.350000e-01
  TN1a  TC1h  1 3.660000e-01    9.350000e-01
  TC6v  TC1h  1 3.520000e-01    1.050000e+00
  TC5v  TC1h  1 3.400000e-01    1.230000e+00
  TC4v  TC1h  1 3.400000e-01    1.230000e+00
  TC3v  TC1h  1 3.400000e-01    1.770000e+00
  TC2v  TC1h  1 3.400000e-01    2.020000e+00
  TC1h  TC1v  1 3.400000e-01    1.770000e+00
  TC1h  TX1v  1 3.400000e-01    1.510000e+00
  TC1h  TX2v  1 3.400000e-01    1.510000e+00
  TC1h  TX3v  1 3.400000e-01    1.510000e+00
  TC1h  TX4v  1 3.520000e-01    1.050000e+00
  TC6e  TC1h  1 3.520000e-01    1.050000e+00
  TC5e  TC1h  1 3.400000e-01    1.230000e+00
  TC4e  TC1h  1 3.400000e-01    1.230000e+00
  TC3e  TC1h  1 3.400000e-01    1.770000e+00
  TC2e  TC1h  1 3.400000e-01    2.020000e+00
  TC1h  TC1e  1 3.400000e-01    1.770000e+00
  TC1h  TX1e  1 3.400000e-01    1.510000e+00
  TC1h  TX2e  1 3.400000e-01    1.510000e+00
  TC1h  TX3e  1 3.400000e-01    1.510000e+00
  TC1h  TX4e  1 3.520000e-01    1.050000e+00
  TP6q  TC1h  1 4.240000e-01    7.760000e-01
  TP5q  TC1h  1 3.850000e-01    8.550000e-01
  TP4q  TC1h  1 3.850000e-01    8.550000e-01
  TP3q  TC1h  1 3.850000e-01    8.550000e-01
  TP2q  TC1h  1 3.660000e-01    9.350000e-01
  TP1q  TC1h  1 3.660000e-01    9.350000e-01
  TN6q  TC1h  1 3.520000e-01    1.050000e+00
  TN5q  TC1h  1 3.520000e-01    1.050000e+00
  TN4q  TC1h  1 3.520000e-01    1.050000e+00
  TN3q  TC1h  1 3.400000e-01    1.230000e+00
  TN2q  TC1h  1 3.400000e-01    1.230000e+00
  TN1q  TC1h  1 3.400000e-01    1.230000e+00
  TC6q  TC1h  1 3.400000e-01    1.230000e+00
  TC5q  TC1h  1 3.400000e-01    1.510000e+00
  TC4q  TC1h  1 3.400000e-01    1.510000e+00
  TC3q  TC1h  1 3.400000e-01    2.020000e+00
  TC2q  TC1h  1 3.400000e-01    2.280000e+00
  TC1h  TC1q  1 3.400000e-01    2.020000e+00
  TC1h  TX1q  1 3.400000e-01    1.770000e+00
  TC1h  TX2q  1 3.400000e-01    1.770000e+00
  TC1h  TX3q  1 3.400000e-01    1.770000e+00
  TC1h  TX4q  1 3.400000e-01    1.230000e+00
  TP6d  TX4h  1 3.520000e-01    1.050000e+00
  TP5d  TX4h  1 3.400000e-01    1.230000e+00
  TP4d  TX4h  1 3.400000e-01    1.230000e+00
  TP3d  TX4h  1 3.400000e-01    1.230000e+00
  TP2d  TX4h  1 3.400000e-01    1.230000e+00
  TP1d  TX4h  1 3.400000e-01    1.230000e+00
  TN6d  TX4h  1 3.400000e-01    1.510000e+00
  TN5d  TX4h  1 3.400000e-01    1.770000e+00
  TN4d  TX4h  1 3.400000e-01    2.020000e+00
  TN3d  TX4h  1 3.400000e-01    1.770000e+00
  TN2d  TX4h  1 3.400000e-01    1.770000e+00
  TN1d  TX4h  1 3.400000e-01    1.510000e+00
  TP6a  TX4h  1 3.520000e-01    1.050000e+00
  TP5a  TX4h  1 3.400000e-01    1.230000e+00
  TP4a  TX4h  1 3.400000e-01    1.230000e+00
  TP3a  TX4h  1 3.400000e-01    1.230000e+00
  TP2a  TX4h  1 3.400000e-01    1.230000e+00
  TP1a  TX4h  1 3.400000e-01    1.230000e+00
  TN6a  TX4h  1 3.400000e-01    1.510000e+00
  TN5a  TX4h  1 3.400000e-01    1.770000e+00
  TN4a  TX4h  1 3.400000e-01    2.020000e+00
  TN3a  TX4h  1 3.400000e-01    1.770000e+00
  TN2a  TX4h  1 3.400000e-01    1.770000e+00
  TN1a  TX4h  1 3.400000e-01    1.510000e+00
  TC6v  TX4h  1 3.400000e-01    1.770000e+00
  TC5v  TX4h  1 3.400000e-01    1.510000e+00
  TC4v  TX4h  1 3.400000e-01    1.510000e+00
  TC3v  TX4h  1 3.400000e-01    1.510000e+00
  TC2v  TX4h  1 3.520000e-01    1.050000e+00
  TC1v  TX4h  1 3.520000e-01    1.050000e+00
  TX4h  TX4v  1 3.400000e-01    1.770000e+00
  TX4h  TX1v  1 3.400000e-01    1.770000e+00
  TX4h  TX2v  1 3.400000e-01    1.770000e+00
  TX4h  TX3v  1 3.400000e-01    1.770000e+00
  TC6e  TX4h  1 3.400000e-01    1.770000e+00
  TC5e  TX4h  1 3.400000e-01    1.510000e+00
  TC4e  TX4h  1 3.400000e-01    1.510000e+00
  TC3e  TX4h  1 3.400000e-01    1.510000e+00
  TC2e  TX4h  1 3.520000e-01    1.050000e+00
  TC1e  TX4h  1 3.520000e-01    1.050000e+00
  TX4h  TX4e  1 3.400000e-01    1.770000e+00
  TX4h  TX1e  1 3.400000e-01    1.770000e+00
  TX4h  TX2e  1 3.400000e-01    1.770000e+00
  TX4h  TX3e  1 3.400000e-01    1.770000e+00
  TP6q  TX4h  1 3.400000e-01    1.510000e+00
  TP5q  TX4h  1 3.400000e-01    1.770000e+00
  TP4q  TX4h  1 3.400000e-01    1.770000e+00
  TP3q  TX4h  1 3.400000e-01    1.770000e+00
  TP2q  TX4h  1 3.400000e-01    1.770000e+00
  TP1q  TX4h  1 3.400000e-01    1.770000e+00
  TN6q  TX4h  1 3.400000e-01    2.020000e+00
  TN5q  TX4h  1 3.400000e-01    2.280000e+00
  TN4q  TX4h  1 3.400000e-01    2.500000e+00
  TN3q  TX4h  1 3.400000e-01    2.280000e+00
  TN2q  TX4h  1 3.400000e-01    2.280000e+00
  TN1q  TX4h  1 3.400000e-01    2.020000e+00
  TC6q  TX4h  1 3.400000e-01    2.020000e+00
  TC5q  TX4h  1 3.400000e-01    1.770000e+00
  TC4q  TX4h  1 3.400000e-01    1.770000e+00
  TC3q  TX4h  1 3.400000e-01    1.770000e+00
  TC2q  TX4h  1 3.400000e-01    1.230000e+00
  TC1q  TX4h  1 3.400000e-01    1.230000e+00
  TX4h  TX4q  1 3.400000e-01    2.020000e+00
  TX4h  TX1q  1 3.400000e-01    2.020000e+00
  TX4h  TX2q  1 3.400000e-01    2.020000e+00
  TX4h  TX3q  1 3.400000e-01    2.020000e+00
  TP6d  TX3h  1 3.520000e-01    1.050000e+00
  TP5d  TX3h  1 3.520000e-01    1.050000e+00
  TP4d  TX3h  1 3.520000e-01    1.050000e+00
  TP3d  TX3h  1 3.400000e-01    1.230000e+00
  TP2d  TX3h  1 3.400000e-01    1.230000e+00
  TP1d  TX3h  1 3.400000e-01    1.230000e+00
  TN6d  TX3h  1 3.400000e-01    1.230000e+00
  TN5d  TX3h  1 3.400000e-01    1.510000e+00
  TN4d  TX3h  1 3.400000e-01    1.770000e+00
  TN3d  TX3h  1 3.400000e-01    1.510000e+00
  TN2d  TX3h  1 3.400000e-01    1.510000e+00
  TN1d  TX3h  1 3.400000e-01    1.510000e+00
  TP6a  TX3h  1 3.520000e-01    1.050000e+00
  TP5a  TX3h  1 3.520000e-01    1.050000e+00
  TP4a  TX3h  1 3.520000e-01    1.050000e+00
  TP3a  TX3h  1 3.400000e-01    1.230000e+00
  TP2a  TX3h  1 3.400000e-01    1.230000e+00
  TP1a  TX3h  1 3.400000e-01    1.230000e+00
  TN6a  TX3h  1 3.400000e-01    1.230000e+00
  TN5a  TX3h  1 3.400000e-01    1.510000e+00
  TN4a  TX3h  1 3.400000e-01    1.770000e+00
  TN3a  TX3h  1 3.400000e-01    1.510000e+00
  TN2a  TX3h  1 3.400000e-01    1.510000e+00
  TN1a  TX3h  1 3.400000e-01    1.510000e+00
  TC6v  TX3h  1 3.400000e-01    1.770000e+00
  TC5v  TX3h  1 3.400000e-01    1.510000e+00
  TC4v  TX3h  1 3.400000e-01    1.510000e+00
  TC3v  TX3h  1 3.400000e-01    1.510000e+00
  TC2v  TX3h  1 3.400000e-01    1.510000e+00
  TC1v  TX3h  1 3.400000e-01    1.510000e+00
  TX4v  TX3h  1 3.400000e-01    1.770000e+00
  TX3h  TX3v  1 3.400000e-01    1.770000e+00
  TX3h  TX1v  1 3.400000e-01    2.020000e+00
  TX3h  TX2v  1 3.400000e-01    2.020000e+00
  TC6e  TX3h  1 3.400000e-01    1.770000e+00
  TC5e  TX3h  1 3.400000e-01    1.510000e+00
  TC4e  TX3h  1 3.400000e-01    1.510000e+00
  TC3e  TX3h  1 3.400000e-01    1.510000e+00
  TC2e  TX3h  1 3.400000e-01    1.510000e+00
  TC1e  TX3h  1 3.400000e-01    1.510000e+00
  TX4e  TX3h  1 3.400000e-01    1.770000e+00
  TX3h  TX3e  1 3.400000e-01    1.770000e+00
  TX3h  TX1e  1 3.400000e-01    2.020000e+00
  TX3h  TX2e  1 3.400000e-01    2.020000e+00
  TP6q  TX3h  1 3.400000e-01    1.510000e+00
  TP5q  TX3h  1 3.400000e-01    1.510000e+00
  TP4q  TX3h  1 3.400000e-01    1.510000e+00
  TP3q  TX3h  1 3.400000e-01    1.770000e+00
  TP2q  TX3h  1 3.400000e-01    1.770000e+00
  TP1q  TX3h  1 3.400000e-01    1.770000e+00
  TN6q  TX3h  1 3.400000e-01    1.770000e+00
  TN5q  TX3h  1 3.400000e-01    2.020000e+00
  TN4q  TX3h  1 3.400000e-01    2.280000e+00
  TN3q  TX3h  1 3.400000e-01    2.020000e+00
  TN2q  TX3h  1 3.400000e-01    2.020000e+00
  TN1q  TX3h  1 3.400000e-01    2.020000e+00
  TC6q  TX3h  1 3.400000e-01    2.020000e+00
  TC5q  TX3h  1 3.400000e-01    1.770000e+00
  TC4q  TX3h  1 3.400000e-01    1.770000e+00
  TC3q  TX3h  1 3.400000e-01    1.770000e+00
  TC2q  TX3h  1 3.400000e-01    1.770000e+00
  TC1q  TX3h  1 3.400000e-01    1.770000e+00
  TX4q  TX3h  1 3.400000e-01    2.020000e+00
  TX3h  TX3q  1 3.400000e-01    2.020000e+00
  TX3h  TX1q  1 3.400000e-01    2.280000e+00
  TX3h  TX2q  1 3.400000e-01    2.280000e+00
  TP6d  TX2h  1 3.660000e-01    9.350000e-01
  TP5d  TX2h  1 3.520000e-01    1.050000e+00
  TP4d  TX2h  1 3.520000e-01    1.050000e+00
  TP3d  TX2h  1 3.520000e-01    1.050000e+00
  TP2d  TX2h  1 3.520000e-01    1.050000e+00
  TP1d  TX2h  1 3.520000e-01    1.050000e+00
  TN6d  TX2h  1 3.520000e-01    1.050000e+00
  TN5d  TX2h  1 3.400000e-01    1.230000e+00
  TN4d  TX2h  1 3.400000e-01    1.230000e+00
  TN3d  TX2h  1 3.400000e-01    1.230000e+00
  TN2d  TX2h  1 3.400000e-01    1.230000e+00
  TN1d  TX2h  1 3.400000e-01    1.230000e+00
  TP6a  TX2h  1 3.660000e-01    9.350000e-01
  TP5a  TX2h  1 3.520000e-01    1.050000e+00
  TP4a  TX2h  1 3.520000e-01    1.050000e+00
  TP3a  TX2h  1 3.520000e-01    1.050000e+00
  TP2a  TX2h  1 3.520000e-01    1.050000e+00
  TP1a  TX2h  1 3.520000e-01    1.050000e+00
  TN6a  TX2h  1 3.520000e-01    1.050000e+00
  TN5a  TX2h  1 3.400000e-01    1.230000e+00
  TN4a  TX2h  1 3.400000e-01    1.230000e+00
  TN3a  TX2h  1 3.400000e-01    1.230000e+00
  TN2a  TX2h  1 3.400000e-01    1.230000e+00
  TN1a  TX2h  1 3.400000e-01    1.230000e+00
  TC6v  TX2h  1 3.400000e-01    1.770000e+00
  TC5v  TX2h  1 3.400000e-01    1.510000e+00
  TC4v  TX2h  1 3.400000e-01    1.510000e+00
  TC3v  TX2h  1 3.400000e-01    1.510000e+00
  TC2v  TX2h  1 3.400000e-01    1.510000e+00
  TC1v  TX2h  1 3.400000e-01    1.510000e+00
  TX4v  TX2h  1 3.400000e-01    1.770000e+00
  TX3v  TX2h  1 3.400000e-01    2.020000e+00
  TX2h  TX2v  1 3.400000e-01    2.020000e+00
  TX2h  TX1v  1 3.400000e-01    2.020000e+00
  TC6e  TX2h  1 3.400000e-01    1.770000e+00
  TC5e  TX2h  1 3.400000e-01    1.510000e+00
  TC4e  TX2h  1 3.400000e-01    1.510000e+00
  TC3e  TX2h  1 3.400000e-01    1.510000e+00
  TC2e  TX2h  1 3.400000e-01    1.510000e+00
  TC1e  TX2h  1 3.400000e-01    1.510000e+00
  TX4e  TX2h  1 3.400000e-01    1.770000e+00
  TX3e  TX2h  1 3.400000e-01    2.020000e+00
  TX2h  TX2e  1 3.400000e-01    2.020000e+00
  TX2h  TX1e  1 3.400000e-01    2.020000e+00
  TP6q  TX2h  1 3.400000e-01    1.230000e+00
  TP5q  TX2h  1 3.400000e-01    1.510000e+00
  TP4q  TX2h  1 3.400000e-01    1.510000e+00
  TP3q  TX2h  1 3.400000e-01    1.510000e+00
  TP2q  TX2h  1 3.400000e-01    1.510000e+00
  TP1q  TX2h  1 3.400000e-01    1.510000e+00
  TN6q  TX2h  1 3.400000e-01    1.510000e+00
  TN5q  TX2h  1 3.400000e-01    1.770000e+00
  TN4q  TX2h  1 3.400000e-01    1.770000e+00
  TN3q  TX2h  1 3.400000e-01    1.770000e+00
  TN2q  TX2h  1 3.400000e-01    1.770000e+00
  TN1q  TX2h  1 3.400000e-01    1.770000e+00
  TC6q  TX2h  1 3.400000e-01    2.020000e+00
  TC5q  TX2h  1 3.400000e-01    1.770000e+00
  TC4q  TX2h  1 3.400000e-01    1.770000e+00
  TC3q  TX2h  1 3.400000e-01    1.770000e+00
  TC2q  TX2h  1 3.400000e-01    1.770000e+00
  TC1q  TX2h  1 3.400000e-01    1.770000e+00
  TX4q  TX2h  1 3.400000e-01    2.020000e+00
  TX3q  TX2h  1 3.400000e-01    2.280000e+00
  TX2h  TX2q  1 3.400000e-01    2.280000e+00
  TX2h  TX1q  1 3.400000e-01    2.280000e+00
  TP6d  TX1h  1 3.850000e-01    8.550000e-01
  TP5d  TX1h  1 3.850000e-01    8.550000e-01
  TP4d  TX1h  1 3.660000e-01    9.350000e-01
  TP3d  TX1h  1 3.660000e-01    9.350000e-01
  TP2d  TX1h  1 3.660000e-01    9.350000e-01
  TP1d  TX1h  1 3.660000e-01    9.350000e-01
  TN6d  TX1h  1 3.660000e-01    9.350000e-01
  TN5d  TX1h  1 3.520000e-01    1.050000e+00
  TN4d  TX1h  1 3.520000e-01    1.050000e+00
  TN3d  TX1h  1 3.400000e-01    1.230000e+00
  TN2d  TX1h  1 3.400000e-01    1.230000e+00
  TN1d  TX1h  1 3.400000e-01    1.230000e+00
  TP6a  TX1h  1 3.850000e-01    8.550000e-01
  TP5a  TX1h  1 3.850000e-01    8.550000e-01
  TP4a  TX1h  1 3.660000e-01    9.350000e-01
  TP3a  TX1h  1 3.660000e-01    9.350000e-01
  TP2a  TX1h  1 3.660000e-01    9.350000e-01
  TP1a  TX1h  1 3.660000e-01    9.350000e-01
  TN6a  TX1h  1 3.660000e-01    9.350000e-01
  TN5a  TX1h  1 3.520000e-01    1.050000e+00
  TN4a  TX1h  1 3.520000e-01    1.050000e+00
  TN3a  TX1h  1 3.400000e-01    1.230000e+00
  TN2a  TX1h  1 3.400000e-01    1.230000e+00
  TN1a  TX1h  1 3.400000e-01    1.230000e+00
  TC6v  TX1h  1 3.400000e-01    1.770000e+00
  TC5v  TX1h  1 3.400000e-01    1.770000e+00
  TC4v  TX1h  1 3.400000e-01    1.770000e+00
  TC3v  TX1h  1 3.400000e-01    1.770000e+00
  TC2v  TX1h  1 3.400000e-01    1.510000e+00
  TC1v  TX1h  1 3.400000e-01    1.510000e+00
  TX4v  TX1h  1 3.400000e-01    1.770000e+00
  TX3v  TX1h  1 3.400000e-01    2.020000e+00
  TX2v  TX1h  1 3.400000e-01    2.020000e+00
  TX1h  TX1v  1 3.400000e-01    2.280000e+00
  TC6e  TX1h  1 3.400000e-01    1.770000e+00
  TC5e  TX1h  1 3.400000e-01    1.770000e+00
  TC4e  TX1h  1 3.400000e-01    1.770000e+00
  TC3e  TX1h  1 3.400000e-01    1.770000e+00
  TC2e  TX1h  1 3.400000e-01    1.510000e+00
  TC1e  TX1h  1 3.400000e-01    1.510000e+00
  TX4e  TX1h  1 3.400000e-01    1.770000e+00
  TX3e  TX1h  1 3.400000e-01    2.020000e+00
  TX2e  TX1h  1 3.400000e-01    2.020000e+00
  TX1h  TX1e  1 3.400000e-01    2.280000e+00
  TP6q  TX1h  1 3.520000e-01    1.050000e+00
  TP5q  TX1h  1 3.520000e-01    1.050000e+00
  TP4q  TX1h  1 3.400000e-01    1.230000e+00
  TP3q  TX1h  1 3.400000e-01    1.230000e+00
  TP2q  TX1h  1 3.400000e-01    1.230000e+00
  TP1q  TX1h  1 3.400000e-01    1.230000e+00
  TN6q  TX1h  1 3.400000e-01    1.230000e+00
  TN5q  TX1h  1 3.400000e-01    1.510000e+00
  TN4q  TX1h  1 3.400000e-01    1.510000e+00
  TN3q  TX1h  1 3.400000e-01    1.770000e+00
  TN2q  TX1h  1 3.400000e-01    1.770000e+00
  TN1q  TX1h  1 3.400000e-01    1.770000e+00
  TC6q  TX1h  1 3.400000e-01    2.020000e+00
  TC5q  TX1h  1 3.400000e-01    2.020000e+00
  TC4q  TX1h  1 3.400000e-01    2.020000e+00
  TC3q  TX1h  1 3.400000e-01    2.020000e+00
  TC2q  TX1h  1 3.400000e-01    1.770000e+00
  TC1q  TX1h  1 3.400000e-01    1.770000e+00
  TX4q  TX1h  1 3.400000e-01    2.020000e+00
  TX3q  TX1h  1 3.400000e-01    2.280000e+00
  TX2q  TX1h  1 3.400000e-01    2.280000e+00
  TX1h  TX1q  1 3.400000e-01    2.500000e+00
 TP6dh TP6dq  1 3.400000e-01    3.750000e+00
 TP6dh TN1dq  1 3.400000e-01    1.230000e+00
 TP6dh TN2dq  1 3.400000e-01    1.510000e+00
 TP6dh TN3dq  1 3.400000e-01    1.770000e+00
 TP6dh TN4dq  1 3.400000e-01    1.770000e+00
 TP6dh TN5dq  1 3.400000e-01    2.020000e+00
 TP6dh TN6dq  1 3.400000e-01    2.500000e+00
 TP6dh TP1dq  1 3.400000e-01    2.740000e+00
 TP6dh TP2dq  1 3.400000e-01    2.990000e+00
 TP6dh TP3dq  1 3.400000e-01    2.990000e+00
 TP6dh TP4dq  1 3.400000e-01    3.220000e+00
 TP6dh TP5dq  1 3.400000e-01    3.470000e+00
 TP6dq TP5dh  1 3.400000e-01    3.470000e+00
 TP5dh TP5dq  1 3.400000e-01    3.220000e+00
 TP5dh TN1dq  1 3.400000e-01    1.230000e+00
 TP5dh TN2dq  1 3.400000e-01    1.510000e+00
 TP5dh TN3dq  1 3.400000e-01    1.770000e+00
 TP5dh TN4dq  1 3.400000e-01    2.020000e+00
 TP5dh TN5dq  1 3.400000e-01    2.020000e+00
 TP5dh TN6dq  1 3.400000e-01    2.280000e+00
 TP5dh TP1dq  1 3.400000e-01    2.500000e+00
 TP5dh TP2dq  1 3.400000e-01    2.740000e+00
 TP5dh TP3dq  1 3.400000e-01    2.740000e+00
 TP5dh TP4dq  1 3.400000e-01    2.990000e+00
 TP6dq TP4dh  1 3.400000e-01    3.220000e+00
 TP5dq TP4dh  1 3.400000e-01    2.990000e+00
 TP4dh TP4dq  1 3.400000e-01    2.990000e+00
 TP4dh TN1dq  1 3.400000e-01    1.510000e+00
 TP4dh TN2dq  1 3.400000e-01    1.770000e+00
 TP4dh TN3dq  1 3.400000e-01    1.770000e+00
 TP4dh TN4dq  1 3.400000e-01    2.020000e+00
 TP4dh TN5dq  1 3.400000e-01    2.020000e+00
 TP4dh TN6dq  1 3.400000e-01    2.280000e+00
 TP4dh TP1dq  1 3.400000e-01    2.500000e+00
 TP4dh TP2dq  1 3.400000e-01    2.740000e+00
 TP4dh TP3dq  1 3.400000e-01    2.740000e+00
 TP6dq TP3dh  1 3.400000e-01    2.990000e+00
 TP5dq TP3dh  1 3.400000e-01    2.740000e+00
 TP4dq TP3dh  1 3.400000e-01    2.740000e+00
 TP3dh TP3dq  1 3.400000e-01    2.740000e+00
 TP3dh TN1dq  1 3.400000e-01    1.770000e+00
 TP3dh TN2dq  1 3.400000e-01    1.770000e+00
 TP3dh TN3dq  1 3.400000e-01    1.770000e+00
 TP3dh TN4dq  1 3.400000e-01    2.020000e+00
 TP3dh TN5dq  1 3.400000e-01    2.020000e+00
 TP3dh TN6dq  1 3.400000e-01    2.280000e+00
 TP3dh TP1dq  1 3.400000e-01    2.500000e+00
 TP3dh TP2dq  1 3.400000e-01    2.740000e+00
 TP6dq TP2dh  1 3.400000e-01    2.990000e+00
 TP5dq TP2dh  1 3.400000e-01    2.740000e+00
 TP4dq TP2dh  1 3.400000e-01    2.740000e+00
 TP3dq TP2dh  1 3.400000e-01    2.740000e+00
 TP2dh TP2dq  1 3.400000e-01    2.740000e+00
 TP2dh TN1dq  1 3.400000e-01    1.770000e+00
 TP2dh TN2dq  1 3.400000e-01    1.770000e+00
 TP2dh TN3dq  1 3.400000e-01    1.770000e+00
 TP2dh TN4dq  1 3.400000e-01    2.020000e+00
 TP2dh TN5dq  1 3.400000e-01    2.280000e+00
 TP2dh TN6dq  1 3.400000e-01    2.500000e+00
 TP2dh TP1dq  1 3.400000e-01    2.500000e+00
 TP6dq TP1dh  1 3.400000e-01    2.740000e+00
 TP5dq TP1dh  1 3.400000e-01    2.500000e+00
 TP4dq TP1dh  1 3.400000e-01    2.500000e+00
 TP3dq TP1dh  1 3.400000e-01    2.500000e+00
 TP2dq TP1dh  1 3.400000e-01    2.500000e+00
 TP1dh TP1dq  1 3.400000e-01    2.500000e+00
 TP1dh TN1dq  1 3.400000e-01    1.770000e+00
 TP1dh TN2dq  1 3.400000e-01    1.770000e+00
 TP1dh TN3dq  1 3.400000e-01    1.770000e+00
 TP1dh TN4dq  1 3.400000e-01    2.280000e+00
 TP1dh TN5dq  1 3.400000e-01    2.280000e+00
 TP1dh TN6dq  1 3.400000e-01    2.500000e+00
 TP6dq TN6dh  1 3.400000e-01    2.500000e+00
 TP5dq TN6dh  1 3.400000e-01    2.280000e+00
 TP4dq TN6dh  1 3.400000e-01    2.280000e+00
 TP3dq TN6dh  1 3.400000e-01    2.280000e+00
 TP2dq TN6dh  1 3.400000e-01    2.500000e+00
 TP1dq TN6dh  1 3.400000e-01    2.500000e+00
 TN6dh TN6dq  1 3.400000e-01    2.500000e+00
 TN6dh TN1dq  1 3.400000e-01    1.770000e+00
 TN6dh TN2dq  1 3.400000e-01    1.770000e+00
 TN6dh TN3dq  1 3.400000e-01    2.020000e+00
 TN6dh TN4dq  1 3.400000e-01    2.500000e+00
 TN6dh TN5dq  1 3.400000e-01    2.500000e+00
 TP6dq TN5dh  1 3.400000e-01    2.020000e+00
 TP5dq TN5dh  1 3.400000e-01    2.020000e+00
 TP4dq TN5dh  1 3.400000e-01    2.020000e+00
 TP3dq TN5dh  1 3.400000e-01    2.020000e+00
 TP2dq TN5dh  1 3.400000e-01    2.280000e+00
 TP1dq TN5dh  1 3.400000e-01    2.280000e+00
 TN6dq TN5dh  1 3.400000e-01    2.500000e+00
 TN5dh TN5dq  1 3.400000e-01    2.280000e+00
 TN5dh TN1dq  1 3.400000e-01    1.770000e+00
 TN5dh TN2dq  1 3.400000e-01    2.020000e+00
 TN5dh TN3dq  1 3.400000e-01    2.020000e+00
 TN5dh TN4dq  1 3.400000e-01    2.280000e+00
 TP6dq TN4dh  1 3.400000e-01    1.770000e+00
 TP5dq TN4dh  1 3.400000e-01    2.020000e+00
 TP4dq TN4dh  1 3.400000e-01    2.020000e+00
 TP3dq TN4dh  1 3.400000e-01    2.020000e+00
 TP2dq TN4dh  1 3.400000e-01    2.020000e+00
 TP1dq TN4dh  1 3.400000e-01    2.280000e+00
 TN6dq TN4dh  1 3.400000e-01    2.500000e+00
 TN5dq TN4dh  1 3.400000e-01    2.280000e+00
 TN4dh TN4dq  1 3.400000e-01    2.280000e+00
 TN4dh TN1dq  1 3.400000e-01    1.770000e+00
 TN4dh TN2dq  1 3.400000e-01    2.020000e+00
 TN4dh TN3dq  1 3.400000e-01    2.020000e+00
 TP6dq TN3dh  1 3.400000e-01    1.770000e+00
 TP5dq TN3dh  1 3.400000e-01    1.770000e+00
 TP4dq TN3dh  1 3.400000e-01    1.770000e+00
 TP3dq TN3dh  1 3.400000e-01    1.770000e+00
 TP2dq TN3dh  1 3.400000e-01    1.770000e+00
 TP1dq TN3dh  1 3.400000e-01    1.770000e+00
 TN6dq TN3dh  1 3.400000e-01    2.020000e+00
 TN5dq TN3dh  1 3.400000e-01    2.020000e+00
 TN4dq TN3dh  1 3.400000e-01    2.020000e+00
 TN3dh TN3dq  1 3.400000e-01    2.020000e+00
 TN3dh TN1dq  1 3.400000e-01    1.770000e+00
 TN3dh TN2dq  1 3.400000e-01    2.020000e+00
 TP6dq TN2dh  1 3.400000e-01    1.510000e+00
 TP5dq TN2dh  1 3.400000e-01    1.510000e+00
 TP4dq TN2dh  1 3.400000e-01    1.770000e+00
 TP3dq TN2dh  1 3.400000e-01    1.770000e+00
 TP2dq TN2dh  1 3.400000e-01    1.770000e+00
 TP1dq TN2dh  1 3.400000e-01    1.770000e+00
 TN6dq TN2dh  1 3.400000e-01    1.770000e+00
 TN5dq TN2dh  1 3.400000e-01    2.020000e+00
 TN4dq TN2dh  1 3.400000e-01    2.020000e+00
 TN3dq TN2dh  1 3.400000e-01    2.020000e+00
 TN2dh TN2dq  1 3.400000e-01    2.020000e+00
 TN2dh TN1dq  1 3.400000e-01    1.770000e+00
 TP6dq TN1dh  1 3.400000e-01    1.230000e+00
 TP5dq TN1dh  1 3.400000e-01    1.230000e+00
 TP4dq TN1dh  1 3.400000e-01    1.510000e+00
 TP3dq TN1dh  1 3.400000e-01    1.770000e+00
 TP2dq TN1dh  1 3.400000e-01    1.770000e+00
 TP1dq TN1dh  1 3.400000e-01    1.770000e+00
 TN6dq TN1dh  1 3.400000e-01    1.770000e+00
 TN5dq TN1dh  1 3.400000e-01    1.770000e+00
 TN4dq TN1dh  1 3.400000e-01    1.770000e+00
 TN3dq TN1dh  1 3.400000e-01    1.770000e+00
 TN2dq TN1dh  1 3.400000e-01    1.770000e+00
 TN1dh TN1dq  1 3.400000e-01    2.020000e+00
 TP6ah TP6aq  1 3.400000e-01    3.750000e+00
 TP6ah TN1aq  1 3.400000e-01    1.230000e+00
 TP6ah TN2aq  1 3.400000e-01    1.510000e+00
 TP6ah TN3aq  1 3.400000e-01    1.770000e+00
 TP6ah TN4aq  1 3.400000e-01    1.770000e+00
 TP6ah TN5aq  1 3.400000e-01    2.020000e+00
 TP6ah TN6aq  1 3.400000e-01    2.500000e+00
 TP6ah TP1aq  1 3.400000e-01    2.740000e+00
 TP6ah TP2aq  1 3.400000e-01    2.990000e+00
 TP6ah TP3aq  1 3.400000e-01    2.990000e+00
 TP6ah TP4aq  1 3.400000e-01    3.220000e+00
 TP6ah TP5aq  1 3.400000e-01    3.470000e+00
 TP6aq TP5ah  1 3.400000e-01    3.470000e+00
 TP5ah TP5aq  1 3.400000e-01    3.220000e+00
 TP5ah TN1aq  1 3.400000e-01    1.230000e+00
 TP5ah TN2aq  1 3.400000e-01    1.510000e+00
 TP5ah TN3aq  1 3.400000e-01    1.770000e+00
 TP5ah TN4aq  1 3.400000e-01    2.020000e+00
 TP5ah TN5aq  1 3.400000e-01    2.020000e+00
 TP5ah TN6aq  1 3.400000e-01    2.280000e+00
 TP5ah TP1aq  1 3.400000e-01    2.500000e+00
 TP5ah TP2aq  1 3.400000e-01    2.740000e+00
 TP5ah TP3aq  1 3.400000e-01    2.740000e+00
 TP5ah TP4aq  1 3.400000e-01    2.990000e+00
 TP6aq TP4ah  1 3.400000e-01    3.220000e+00
 TP5aq TP4ah  1 3.400000e-01    2.990000e+00
 TP4ah TP4aq  1 3.400000e-01    2.990000e+00
 TP4ah TN1aq  1 3.400000e-01    1.510000e+00
 TP4ah TN2aq  1 3.400000e-01    1.770000e+00
 TP4ah TN3aq  1 3.400000e-01    1.770000e+00
 TP4ah TN4aq  1 3.400000e-01    2.020000e+00
 TP4ah TN5aq  1 3.400000e-01    2.020000e+00
 TP4ah TN6aq  1 3.400000e-01    2.280000e+00
 TP4ah TP1aq  1 3.400000e-01    2.500000e+00
 TP4ah TP2aq  1 3.400000e-01    2.740000e+00
 TP4ah TP3aq  1 3.400000e-01    2.740000e+00
 TP6aq TP3ah  1 3.400000e-01    2.990000e+00
 TP5aq TP3ah  1 3.400000e-01    2.740000e+00
 TP4aq TP3ah  1 3.400000e-01    2.740000e+00
 TP3ah TP3aq  1 3.400000e-01    2.740000e+00
 TP3ah TN1aq  1 3.400000e-01    1.770000e+00
 TP3ah TN2aq  1 3.400000e-01    1.770000e+00
 TP3ah TN3aq  1 3.400000e-01    1.770000e+00
 TP3ah TN4aq  1 3.400000e-01    2.020000e+00
 TP3ah TN5aq  1 3.400000e-01    2.020000e+00
 TP3ah TN6aq  1 3.400000e-01    2.280000e+00
 TP3ah TP1aq  1 3.400000e-01    2.500000e+00
 TP3ah TP2aq  1 3.400000e-01    2.740000e+00
 TP6aq TP2ah  1 3.400000e-01    2.990000e+00
 TP5aq TP2ah  1 3.400000e-01    2.740000e+00
 TP4aq TP2ah  1 3.400000e-01    2.740000e+00
 TP3aq TP2ah  1 3.400000e-01    2.740000e+00
 TP2ah TP2aq  1 3.400000e-01    2.740000e+00
 TP2ah TN1aq  1 3.400000e-01    1.770000e+00
 TP2ah TN2aq  1 3.400000e-01    1.770000e+00
 TP2ah TN3aq  1 3.400000e-01    1.770000e+00
 TP2ah TN4aq  1 3.400000e-01    2.020000e+00
 TP2ah TN5aq  1 3.400000e-01    2.280000e+00
 TP2ah TN6aq  1 3.400000e-01    2.500000e+00
 TP2ah TP1aq  1 3.400000e-01    2.500000e+00
 TP6aq TP1ah  1 3.400000e-01    2.740000e+00
 TP5aq TP1ah  1 3.400000e-01    2.500000e+00
 TP4aq TP1ah  1 3.400000e-01    2.500000e+00
 TP3aq TP1ah  1 3.400000e-01    2.500000e+00
 TP2aq TP1ah  1 3.400000e-01    2.500000e+00
 TP1ah TP1aq  1 3.400000e-01    2.500000e+00
 TP1ah TN1aq  1 3.400000e-01    1.770000e+00
 TP1ah TN2aq  1 3.400000e-01    1.770000e+00
 TP1ah TN3aq  1 3.400000e-01    1.770000e+00
 TP1ah TN4aq  1 3.400000e-01    2.280000e+00
 TP1ah TN5aq  1 3.400000e-01    2.280000e+00
 TP1ah TN6aq  1 3.400000e-01    2.500000e+00
 TP6aq TN6ah  1 3.400000e-01    2.500000e+00
 TP5aq TN6ah  1 3.400000e-01    2.280000e+00
 TP4aq TN6ah  1 3.400000e-01    2.280000e+00
 TP3aq TN6ah  1 3.400000e-01    2.280000e+00
 TP2aq TN6ah  1 3.400000e-01    2.500000e+00
 TP1aq TN6ah  1 3.400000e-01    2.500000e+00
 TN6ah TN6aq  1 3.400000e-01    2.500000e+00
 TN6ah TN1aq  1 3.400000e-01    1.770000e+00
 TN6ah TN2aq  1 3.400000e-01    1.770000e+00
 TN6ah TN3aq  1 3.400000e-01    2.020000e+00
 TN6ah TN4aq  1 3.400000e-01    2.500000e+00
 TN6ah TN5aq  1 3.400000e-01    2.500000e+00
 TP6aq TN5ah  1 3.400000e-01    2.020000e+00
 TP5aq TN5ah  1 3.400000e-01    2.020000e+00
 TP4aq TN5ah  1 3.400000e-01    2.020000e+00
 TP3aq TN5ah  1 3.400000e-01    2.020000e+00
 TP2aq TN5ah  1 3.400000e-01    2.280000e+00
 TP1aq TN5ah  1 3.400000e-01    2.280000e+00
 TN6aq TN5ah  1 3.400000e-01    2.500000e+00
 TN5ah TN5aq  1 3.400000e-01    2.280000e+00
 TN5ah TN1aq  1 3.400000e-01    1.770000e+00
 TN5ah TN2aq  1 3.400000e-01    2.020000e+00
 TN5ah TN3aq  1 3.400000e-01    2.020000e+00
 TN5ah TN4aq  1 3.400000e-01    2.280000e+00
 TP6aq TN4ah  1 3.400000e-01    1.770000e+00
 TP5aq TN4ah  1 3.400000e-01    2.020000e+00
 TP4aq TN4ah  1 3.400000e-01    2.020000e+00
 TP3aq TN4ah  1 3.400000e-01    2.020000e+00
 TP2aq TN4ah  1 3.400000e-01    2.020000e+00
 TP1aq TN4ah  1 3.400000e-01    2.280000e+00
 TN6aq TN4ah  1 3.400000e-01    2.500000e+00
 TN5aq TN4ah  1 3.400000e-01    2.280000e+00
 TN4ah TN4aq  1 3.400000e-01    2.280000e+00
 TN4ah TN1aq  1 3.400000e-01    1.770000e+00
 TN4ah TN2aq  1 3.400000e-01    2.020000e+00
 TN4ah TN3aq  1 3.400000e-01    2.020000e+00
 TP6aq TN3ah  1 3.400000e-01    1.770000e+00
 TP5aq TN3ah  1 3.400000e-01    1.770000e+00
 TP4aq TN3ah  1 3.400000e-01    1.770000e+00
 TP3aq TN3ah  1 3.400000e-01    1.770000e+00
 TP2aq TN3ah  1 3.400000e-01    1.770000e+00
 TP1aq TN3ah  1 3.400000e-01    1.770000e+00
 TN6aq TN3ah  1 3.400000e-01    2.020000e+00
 TN5aq TN3ah  1 3.400000e-01    2.020000e+00
 TN4aq TN3ah  1 3.400000e-01    2.020000e+00
 TN3ah TN3aq  1 3.400000e-01    2.020000e+00
 TN3ah TN1aq  1 3.400000e-01    1.770000e+00
 TN3ah TN2aq  1 3.400000e-01    2.020000e+00
 TP6aq TN2ah  1 3.400000e-01    1.510000e+00
 TP5aq TN2ah  1 3.400000e-01    1.510000e+00
 TP4aq TN2ah  1 3.400000e-01    1.770000e+00
 TP3aq TN2ah  1 3.400000e-01    1.770000e+00
 TP2aq TN2ah  1 3.400000e-01    1.770000e+00
 TP1aq TN2ah  1 3.400000e-01    1.770000e+00
 TN6aq TN2ah  1 3.400000e-01    1.770000e+00
 TN5aq TN2ah  1 3.400000e-01    2.020000e+00
 TN4aq TN2ah  1 3.400000e-01    2.020000e+00
 TN3aq TN2ah  1 3.400000e-01    2.020000e+00
 TN2ah TN2aq  1 3.400000e-01    2.020000e+00
 TN2ah TN1aq  1 3.400000e-01    1.770000e+00
 TP6aq TN1ah  1 3.400000e-01    1.230000e+00
 TP5aq TN1ah  1 3.400000e-01    1.230000e+00
 TP4aq TN1ah  1 3.400000e-01    1.510000e+00
 TP3aq TN1ah  1 3.400000e-01    1.770000e+00
 TP2aq TN1ah  1 3.400000e-01    1.770000e+00
 TP1aq TN1ah  1 3.400000e-01    1.770000e+00
 TN6aq TN1ah  1 3.400000e-01    1.770000e+00
 TN5aq TN1ah  1 3.400000e-01    1.770000e+00
 TN4aq TN1ah  1 3.400000e-01    1.770000e+00
 TN3aq TN1ah  1 3.400000e-01    1.770000e+00
 TN2aq TN1ah  1 3.400000e-01    1.770000e+00
 TN1ah TN1aq  1 3.400000e-01    2.020000e+00
  TP6r  TP6d  1 3.400000e-01    3.470000e+00
  TP6r  TN1d  1 3.660000e-01    9.350000e-01
  TP6r  TN2d  1 3.520000e-01    1.050000e+00
  TP6r  TN3d  1 3.400000e-01    1.230000e+00
  TP6r  TN4d  1 3.400000e-01    1.510000e+00
  TP6r  TN5d  1 3.400000e-01    1.770000e+00
  TP6r  TN6d  1 3.400000e-01    2.280000e+00
  TP6r  TP1d  1 3.400000e-01    2.500000e+00
  TP6r  TP2d  1 3.400000e-01    2.740000e+00
  TP6r  TP3d  1 3.400000e-01    2.740000e+00
  TP6r  TP4d  1 3.400000e-01    2.990000e+00
  TP6r  TP5d  1 3.400000e-01    3.220000e+00
  TP6r  TP6a  1 3.400000e-01    3.470000e+00
  TP6r  TN1a  1 3.660000e-01    9.350000e-01
  TP6r  TN2a  1 3.520000e-01    1.050000e+00
  TP6r  TN3a  1 3.400000e-01    1.230000e+00
  TP6r  TN4a  1 3.400000e-01    1.510000e+00
  TP6r  TN5a  1 3.400000e-01    1.770000e+00
  TP6r  TN6a  1 3.400000e-01    2.280000e+00
  TP6r  TP1a  1 3.400000e-01    2.500000e+00
  TP6r  TP2a  1 3.400000e-01    2.740000e+00
  TP6r  TP3a  1 3.400000e-01    2.740000e+00
  TP6r  TP4a  1 3.400000e-01    2.990000e+00
  TP6r  TP5a  1 3.400000e-01    3.220000e+00
  TP6r  TC6v  1 3.520000e-01    1.050000e+00
  TP6r  TC5v  1 3.660000e-01    9.350000e-01
  TP6r  TC4v  1 3.850000e-01    8.550000e-01
  TP6r  TC3v  1 4.110000e-01    8.010000e-01
  TP6r  TC2v  1 4.110000e-01    8.010000e-01
  TP6r  TC1v  1 4.380000e-01    7.310000e-01
  TP6r  TX4v  1 3.400000e-01    1.230000e+00
  TP6r  TX3v  1 3.400000e-01    1.230000e+00
  TP6r  TX2v  1 3.520000e-01    1.050000e+00
  TP6r  TX1v  1 3.660000e-01    9.350000e-01
  TP6r  TC6e  1 3.520000e-01    1.050000e+00
  TP6r  TC5e  1 3.660000e-01    9.350000e-01
  TP6r  TC4e  1 3.850000e-01    8.550000e-01
  TP6r  TC3e  1 4.110000e-01    8.010000e-01
  TP6r  TC2e  1 4.110000e-01    8.010000e-01
  TP6r  TC1e  1 4.380000e-01    7.310000e-01
  TP6r  TX4e  1 3.400000e-01    1.230000e+00
  TP6r  TX3e  1 3.400000e-01    1.230000e+00
  TP6r  TX2e  1 3.520000e-01    1.050000e+00
  TP6r  TX1e  1 3.660000e-01    9.350000e-01
  TP6r  TP6q  1 3.400000e-01    4.020000e+00
  TP6r  TX1q  1 3.520000e-01    1.050000e+00
  TP6r  TX2q  1 3.400000e-01    1.230000e+00
  TP6r  TX3q  1 3.400000e-01    1.510000e+00
  TP6r  TX4q  1 3.400000e-01    1.510000e+00
  TP6r  TC1q  1 4.240000e-01    7.760000e-01
  TP6r  TC2q  1 3.850000e-01    8.550000e-01
  TP6r  TC3q  1 3.850000e-01    8.550000e-01
  TP6r  TC4q  1 3.660000e-01    9.350000e-01
  TP6r  TC5q  1 3.520000e-01    1.050000e+00
  TP6r  TC6q  1 3.400000e-01    1.230000e+00
  TP6r  TN1q  1 3.400000e-01    1.230000e+00
  TP6r  TN2q  1 3.400000e-01    1.510000e+00
  TP6r  TN3q  1 3.400000e-01    1.770000e+00
  TP6r  TN4q  1 3.400000e-01    2.020000e+00
  TP6r  TN5q  1 3.400000e-01    2.280000e+00
  TP6r  TN6q  1 3.400000e-01    2.740000e+00
  TP6r  TP1q  1 3.400000e-01    2.990000e+00
  TP6r  TP2q  1 3.400000e-01    3.220000e+00
  TP6r  TP3q  1 3.400000e-01    3.220000e+00
  TP6r  TP4q  1 3.400000e-01    3.470000e+00
  TP6r  TP5q  1 3.400000e-01    3.750000e+00
  TP6d  TP5r  1 3.400000e-01    3.220000e+00
  TP5r  TP5d  1 3.400000e-01    2.990000e+00
  TP5r  TN1d  1 3.660000e-01    9.350000e-01
  TP5r  TN2d  1 3.520000e-01    1.050000e+00
  TP5r  TN3d  1 3.400000e-01    1.230000e+00
  TP5r  TN4d  1 3.400000e-01    1.770000e+00
  TP5r  TN5d  1 3.400000e-01    1.770000e+00
  TP5r  TN6d  1 3.400000e-01    2.020000e+00
  TP5r  TP1d  1 3.400000e-01    2.280000e+00
  TP5r  TP2d  1 3.400000e-01    2.500000e+00
  TP5r  TP3d  1 3.400000e-01    2.500000e+00
  TP5r  TP4d  1 3.400000e-01    2.740000e+00
  TP6a  TP5r  1 3.400000e-01    3.220000e+00
  TP5r  TP5a  1 3.400000e-01    2.990000e+00
  TP5r  TN1a  1 3.660000e-01    9.350000e-01
  TP5r  TN2a  1 3.520000e-01    1.050000e+00
  TP5r  TN3a  1 3.400000e-01    1.230000e+00
  TP5r  TN4a  1 3.400000e-01    1.770000e+00
  TP5r  TN5a  1 3.400000e-01    1.770000e+00
  TP5r  TN6a  1 3.400000e-01    2.020000e+00
  TP5r  TP1a  1 3.400000e-01    2.280000e+00
  TP5r  TP2a  1 3.400000e-01    2.500000e+00
  TP5r  TP3a  1 3.400000e-01    2.500000e+00
  TP5r  TP4a  1 3.400000e-01    2.740000e+00
  TP5r  TC6v  1 3.520000e-01    1.050000e+00
  TP5r  TC5v  1 3.520000e-01    1.050000e+00
  TP5r  TC4v  1 3.660000e-01    9.350000e-01
  TP5r  TC3v  1 3.850000e-01    8.550000e-01
  TP5r  TC2v  1 3.850000e-01    8.550000e-01
  TP5r  TC1v  1 4.110000e-01    8.010000e-01
  TP5r  TX4v  1 3.400000e-01    1.510000e+00
  TP5r  TX3v  1 3.400000e-01    1.230000e+00
  TP5r  TX2v  1 3.400000e-01    1.230000e+00
  TP5r  TX1v  1 3.660000e-01    9.350000e-01
  TP5r  TC6e  1 3.520000e-01    1.050000e+00
  TP5r  TC5e  1 3.520000e-01    1.050000e+00
  TP5r  TC4e  1 3.660000e-01    9.350000e-01
  TP5r  TC3e  1 3.850000e-01    8.550000e-01
  TP5r  TC2e  1 3.850000e-01    8.550000e-01
  TP5r  TC1e  1 4.110000e-01    8.010000e-01
  TP5r  TX4e  1 3.400000e-01    1.510000e+00
  TP5r  TX3e  1 3.400000e-01    1.230000e+00
  TP5r  TX2e  1 3.400000e-01    1.230000e+00
  TP5r  TX1e  1 3.660000e-01    9.350000e-01
  TP6q  TP5r  1 3.400000e-01    3.750000e+00
  TP5r  TP5q  1 3.400000e-01    3.470000e+00
  TP5r  TX1q  1 3.520000e-01    1.050000e+00
  TP5r  TX2q  1 3.400000e-01    1.510000e+00
  TP5r  TX3q  1 3.400000e-01    1.510000e+00
  TP5r  TX4q  1 3.400000e-01    1.770000e+00
  TP5r  TC1q  1 3.850000e-01    8.550000e-01
  TP5r  TC2q  1 3.660000e-01    9.350000e-01
  TP5r  TC3q  1 3.660000e-01    9.350000e-01
  TP5r  TC4q  1 3.520000e-01    1.050000e+00
  TP5r  TC5q  1 3.400000e-01    1.230000e+00
  TP5r  TC6q  1 3.400000e-01    1.230000e+00
  TP5r  TN1q  1 3.400000e-01    1.230000e+00
  TP5r  TN2q  1 3.400000e-01    1.510000e+00
  TP5r  TN3q  1 3.400000e-01    1.770000e+00
  TP5r  TN4q  1 3.400000e-01    2.280000e+00
  TP5r  TN5q  1 3.400000e-01    2.280000e+00
  TP5r  TN6q  1 3.400000e-01    2.500000e+00
  TP5r  TP1q  1 3.400000e-01    2.740000e+00
  TP5r  TP2q  1 3.400000e-01    2.990000e+00
  TP5r  TP3q  1 3.400000e-01    2.990000e+00
  TP5r  TP4q  1 3.400000e-01    3.220000e+00
  TP6d  TP4r  1 3.400000e-01    2.990000e+00
  TP5d  TP4r  1 3.400000e-01    2.740000e+00
  TP4r  TP4d  1 3.400000e-01    2.740000e+00
  TP4r  TN1d  1 3.520000e-01    1.050000e+00
  TP4r  TN2d  1 3.400000e-01    1.230000e+00
  TP4r  TN3d  1 3.400000e-01    1.510000e+00
  TP4r  TN4d  1 3.400000e-01    1.770000e+00
  TP4r  TN5d  1 3.400000e-01    1.770000e+00
  TP4r  TN6d  1 3.400000e-01    2.020000e+00
  TP4r  TP1d  1 3.400000e-01    2.280000e+00
  TP4r  TP2d  1 3.400000e-01    2.500000e+00
  TP4r  TP3d  1 3.400000e-01    2.500000e+00
  TP6a  TP4r  1 3.400000e-01    2.990000e+00
  TP5a  TP4r  1 3.400000e-01    2.740000e+00
  TP4r  TP4a  1 3.400000e-01    2.740000e+00
  TP4r  TN1a  1 3.520000e-01    1.050000e+00
  TP4r  TN2a  1 3.400000e-01    1.230000e+00
  TP4r  TN3a  1 3.400000e-01    1.510000e+00
  TP4r  TN4a  1 3.400000e-01    1.770000e+00
  TP4r  TN5a  1 3.400000e-01    1.770000e+00
  TP4r  TN6a  1 3.400000e-01    2.020000e+00
  TP4r  TP1a  1 3.400000e-01    2.280000e+00
  TP4r  TP2a  1 3.400000e-01    2.500000e+00
  TP4r  TP3a  1 3.400000e-01    2.500000e+00
  TP4r  TC6v  1 3.400000e-01    1.230000e+00
  TP4r  TC5v  1 3.520000e-01    1.050000e+00
  TP4r  TC4v  1 3.660000e-01    9.350000e-01
  TP4r  TC3v  1 3.850000e-01    8.550000e-01
  TP4r  TC2v  1 3.850000e-01    8.550000e-01
  TP4r  TC1v  1 4.110000e-01    8.010000e-01
  TP4r  TX4v  1 3.400000e-01    1.510000e+00
  TP4r  TX3v  1 3.400000e-01    1.230000e+00
  TP4r  TX2v  1 3.400000e-01    1.230000e+00
  TP4r  TX1v  1 3.520000e-01    1.050000e+00
  TP4r  TC6e  1 3.400000e-01    1.230000e+00
  TP4r  TC5e  1 3.520000e-01    1.050000e+00
  TP4r  TC4e  1 3.660000e-01    9.350000e-01
  TP4r  TC3e  1 3.850000e-01    8.550000e-01
  TP4r  TC2e  1 3.850000e-01    8.550000e-01
  TP4r  TC1e  1 4.110000e-01    8.010000e-01
  TP4r  TX4e  1 3.400000e-01    1.510000e+00
  TP4r  TX3e  1 3.400000e-01    1.230000e+00
  TP4r  TX2e  1 3.400000e-01    1.230000e+00
  TP4r  TX1e  1 3.520000e-01    1.050000e+00
  TP6q  TP4r  1 3.400000e-01    3.470000e+00
  TP5q  TP4r  1 3.400000e-01    3.220000e+00
  TP4r  TP4q  1 3.400000e-01    3.220000e+00
  TP4r  TX1q  1 3.400000e-01    1.230000e+00
  TP4r  TX2q  1 3.400000e-01    1.510000e+00
  TP4r  TX3q  1 3.400000e-01    1.510000e+00
  TP4r  TX4q  1 3.400000e-01    1.770000e+00
  TP4r  TC1q  1 3.850000e-01    8.550000e-01
  TP4r  TC2q  1 3.660000e-01    9.350000e-01
  TP4r  TC3q  1 3.660000e-01    9.350000e-01
  TP4r  TC4q  1 3.520000e-01    1.050000e+00
  TP4r  TC5q  1 3.400000e-01    1.230000e+00
  TP4r  TC6q  1 3.400000e-01    1.510000e+00
  TP4r  TN1q  1 3.400000e-01    1.510000e+00
  TP4r  TN2q  1 3.400000e-01    1.770000e+00
  TP4r  TN3q  1 3.400000e-01    2.020000e+00
  TP4r  TN4q  1 3.400000e-01    2.280000e+00
  TP4r  TN5q  1 3.400000e-01    2.280000e+00
  TP4r  TN6q  1 3.400000e-01    2.500000e+00
  TP4r  TP1q  1 3.400000e-01    2.740000e+00
  TP4r  TP2q  1 3.400000e-01    2.990000e+00
  TP4r  TP3q  1 3.400000e-01    2.990000e+00
  TP6d  TP3r  1 3.400000e-01    2.740000e+00
  TP5d  TP3r  1 3.400000e-01    2.500000e+00
  TP4d  TP3r  1 3.400000e-01    2.500000e+00
  TP3r  TP3d  1 3.400000e-01    2.500000e+00
  TP3r  TN1d  1 3.400000e-01    1.230000e+00
  TP3r  TN2d  1 3.400000e-01    1.510000e+00
  TP3r  TN3d  1 3.400000e-01    1.510000e+00
  TP3r  TN4d  1 3.400000e-01    1.770000e+00
  TP3r  TN5d  1 3.400000e-01    1.770000e+00
  TP3r  TN6d  1 3.400000e-01    2.020000e+00
  TP3r  TP1d  1 3.400000e-01    2.280000e+00
  TP3r  TP2d  1 3.400000e-01    2.500000e+00
  TP6a  TP3r  1 3.400000e-01    2.740000e+00
  TP5a  TP3r  1 3.400000e-01    2.500000e+00
  TP4a  TP3r  1 3.400000e-01    2.500000e+00
  TP3r  TP3a  1 3.400000e-01    2.500000e+00
  TP3r  TN1a  1 3.400000e-01    1.230000e+00
  TP3r  TN2a  1 3.400000e-01    1.510000e+00
  TP3r  TN3a  1 3.400000e-01    1.510000e+00
  TP3r  TN4a  1 3.400000e-01    1.770000e+00
  TP3r  TN5a  1 3.400000e-01    1.770000e+00
  TP3r  TN6a  1 3.400000e-01    2.020000e+00
  TP3r  TP1a  1 3.400000e-01    2.280000e+00
  TP3r  TP2a  1 3.400000e-01    2.500000e+00
  TP3r  TC6v  1 3.400000e-01    1.510000e+00
  TP3r  TC5v  1 3.400000e-01    1.230000e+00
  TP3r  TC4v  1 3.520000e-01    1.050000e+00
  TP3r  TC3v  1 3.850000e-01    8.550000e-01
  TP3r  TC2v  1 3.850000e-01    8.550000e-01
  TP3r  TC1v  1 4.110000e-01    8.010000e-01
  TP3r  TX4v  1 3.400000e-01    1.510000e+00
  TP3r  TX3v  1 3.400000e-01    1.510000e+00
  TP3r  TX2v  1 3.400000e-01    1.230000e+00
  TP3r  TX1v  1 3.520000e-01    1.050000e+00
  TP3r  TC6e  1 3.400000e-01    1.510000e+00
  TP3r  TC5e  1 3.400000e-01    1.230000e+00
  TP3r  TC4e  1 3.520000e-01    1.050000e+00
  TP3r  TC3e  1 3.850000e-01    8.550000e-01
  TP3r  TC2e  1 3.850000e-01    8.550000e-01
  TP3r  TC1e  1 4.110000e-01    8.010000e-01
  TP3r  TX4e  1 3.400000e-01    1.510000e+00
  TP3r  TX3e  1 3.400000e-01    1.510000e+00
  TP3r  TX2e  1 3.400000e-01    1.230000e+00
  TP3r  TX1e  1 3.520000e-01    1.050000e+00
  TP6q  TP3r  1 3.400000e-01    3.220000e+00
  TP5q  TP3r  1 3.400000e-01    2.990000e+00
  TP4q  TP3r  1 3.400000e-01    2.990000e+00
  TP3r  TP3q  1 3.400000e-01    2.990000e+00
  TP3r  TX1q  1 3.400000e-01    1.230000e+00
  TP3r  TX2q  1 3.400000e-01    1.510000e+00
  TP3r  TX3q  1 3.400000e-01    1.770000e+00
  TP3r  TX4q  1 3.400000e-01    1.770000e+00
  TP3r  TC1q  1 3.850000e-01    8.550000e-01
  TP3r  TC2q  1 3.660000e-01    9.350000e-01
  TP3r  TC3q  1 3.660000e-01    9.350000e-01
  TP3r  TC4q  1 3.400000e-01    1.230000e+00
  TP3r  TC5q  1 3.400000e-01    1.510000e+00
  TP3r  TC6q  1 3.400000e-01    1.770000e+00
  TP3r  TN1q  1 3.400000e-01    1.770000e+00
  TP3r  TN2q  1 3.400000e-01    2.020000e+00
  TP3r  TN3q  1 3.400000e-01    2.020000e+00
  TP3r  TN4q  1 3.400000e-01    2.280000e+00
  TP3r  TN5q  1 3.400000e-01    2.280000e+00
  TP3r  TN6q  1 3.400000e-01    2.500000e+00
  TP3r  TP1q  1 3.400000e-01    2.740000e+00
  TP3r  TP2q  1 3.400000e-01    2.990000e+00
  TP6d  TP2r  1 3.400000e-01    2.740000e+00
  TP5d  TP2r  1 3.400000e-01    2.500000e+00
  TP4d  TP2r  1 3.400000e-01    2.500000e+00
  TP3d  TP2r  1 3.400000e-01    2.500000e+00
  TP2r  TP2d  1 3.400000e-01    2.500000e+00
  TP2r  TN1d  1 3.400000e-01    1.510000e+00
  TP2r  TN2d  1 3.400000e-01    1.510000e+00
  TP2r  TN3d  1 3.400000e-01    1.510000e+00
  TP2r  TN4d  1 3.400000e-01    1.770000e+00
  TP2r  TN5d  1 3.400000e-01    2.020000e+00
  TP2r  TN6d  1 3.400000e-01    2.280000e+00
  TP2r  TP1d  1 3.400000e-01    2.280000e+00
  TP6a  TP2r  1 3.400000e-01    2.740000e+00
  TP5a  TP2r  1 3.400000e-01    2.500000e+00
  TP4a  TP2r  1 3.400000e-01    2.500000e+00
  TP3a  TP2r  1 3.400000e-01    2.500000e+00
  TP2r  TP2a  1 3.400000e-01    2.500000e+00
  TP2r  TN1a  1 3.400000e-01    1.510000e+00
  TP2r  TN2a  1 3.400000e-01    1.510000e+00
  TP2r  TN3a  1 3.400000e-01    1.510000e+00
  TP2r  TN4a  1 3.400000e-01    1.770000e+00
  TP2r  TN5a  1 3.400000e-01    2.020000e+00
  TP2r  TN6a  1 3.400000e-01    2.280000e+00
  TP2r  TP1a  1 3.400000e-01    2.280000e+00
  TP2r  TC6v  1 3.400000e-01    1.510000e+00
  TP2r  TC5v  1 3.400000e-01    1.230000e+00
  TP2r  TC4v  1 3.520000e-01    1.050000e+00
  TP2r  TC3v  1 3.660000e-01    9.350000e-01
  TP2r  TC2v  1 3.660000e-01    9.350000e-01
  TP2r  TC1v  1 3.850000e-01    8.550000e-01
  TP2r  TX4v  1 3.400000e-01    1.510000e+00
  TP2r  TX3v  1 3.400000e-01    1.510000e+00
  TP2r  TX2v  1 3.400000e-01    1.230000e+00
  TP2r  TX1v  1 3.520000e-01    1.050000e+00
  TP2r  TC6e  1 3.400000e-01    1.510000e+00
  TP2r  TC5e  1 3.400000e-01    1.230000e+00
  TP2r  TC4e  1 3.520000e-01    1.050000e+00
  TP2r  TC3e  1 3.660000e-01    9.350000e-01
  TP2r  TC2e  1 3.660000e-01    9.350000e-01
  TP2r  TC1e  1 3.850000e-01    8.550000e-01
  TP2r  TX4e  1 3.400000e-01    1.510000e+00
  TP2r  TX3e  1 3.400000e-01    1.510000e+00
  TP2r  TX2e  1 3.400000e-01    1.230000e+00
  TP2r  TX1e  1 3.520000e-01    1.050000e+00
  TP6q  TP2r  1 3.400000e-01    3.220000e+00
  TP5q  TP2r  1 3.400000e-01    2.990000e+00
  TP4q  TP2r  1 3.400000e-01    2.990000e+00
  TP3q  TP2r  1 3.400000e-01    2.990000e+00
  TP2r  TP2q  1 3.400000e-01    2.990000e+00
  TP2r  TX1q  1 3.400000e-01    1.230000e+00
  TP2r  TX2q  1 3.400000e-01    1.510000e+00
  TP2r  TX3q  1 3.400000e-01    1.770000e+00
  TP2r  TX4q  1 3.400000e-01    1.770000e+00
  TP2r  TC1q  1 3.660000e-01    9.350000e-01
  TP2r  TC2q  1 3.520000e-01    1.050000e+00
  TP2r  TC3q  1 3.520000e-01    1.050000e+00
  TP2r  TC4q  1 3.400000e-01    1.230000e+00
  TP2r  TC5q  1 3.400000e-01    1.510000e+00
  TP2r  TC6q  1 3.400000e-01    1.770000e+00
  TP2r  TN1q  1 3.400000e-01    2.020000e+00
  TP2r  TN2q  1 3.400000e-01    2.020000e+00
  TP2r  TN3q  1 3.400000e-01    2.020000e+00
  TP2r  TN4q  1 3.400000e-01    2.280000e+00
  TP2r  TN5q  1 3.400000e-01    2.500000e+00
  TP2r  TN6q  1 3.400000e-01    2.740000e+00
  TP2r  TP1q  1 3.400000e-01    2.740000e+00
  TP6d  TP1r  1 3.400000e-01    2.500000e+00
  TP5d  TP1r  1 3.400000e-01    2.280000e+00
  TP4d  TP1r  1 3.400000e-01    2.280000e+00
  TP3d  TP1r  1 3.400000e-01    2.280000e+00
  TP2d  TP1r  1 3.400000e-01    2.280000e+00
  TP1r  TP1d  1 3.400000e-01    2.280000e+00
  TP1r  TN1d  1 3.400000e-01    1.510000e+00
  TP1r  TN2d  1 3.400000e-01    1.510000e+00
  TP1r  TN3d  1 3.400000e-01    1.510000e+00
  TP1r  TN4d  1 3.400000e-01    2.020000e+00
  TP1r  TN5d  1 3.400000e-01    2.020000e+00
  TP1r  TN6d  1 3.400000e-01    2.280000e+00
  TP6a  TP1r  1 3.400000e-01    2.500000e+00
  TP5a  TP1r  1 3.400000e-01    2.280000e+00
  TP4a  TP1r  1 3.400000e-01    2.280000e+00
  TP3a  TP1r  1 3.400000e-01    2.280000e+00
  TP2a  TP1r  1 3.400000e-01    2.280000e+00
  TP1r  TP1a  1 3.400000e-01    2.280000e+00
  TP1r  TN1a  1 3.400000e-01    1.510000e+00
  TP1r  TN2a  1 3.400000e-01    1.510000e+00
  TP1r  TN3a  1 3.400000e-01    1.510000e+00
  TP1r  TN4a  1 3.400000e-01    2.020000e+00
  TP1r  TN5a  1 3.400000e-01    2.020000e+00
  TP1r  TN6a  1 3.400000e-01    2.280000e+00
  TP1r  TC6v  1 3.400000e-01    1.510000e+00
  TP1r  TC5v  1 3.400000e-01    1.230000e+00
  TP1r  TC4v  1 3.520000e-01    1.050000e+00
  TP1r  TC3v  1 3.660000e-01    9.350000e-01
  TP1r  TC2v  1 3.660000e-01    9.350000e-01
  TP1r  TC1v  1 3.850000e-01    8.550000e-01
  TP1r  TX4v  1 3.400000e-01    1.510000e+00
  TP1r  TX3v  1 3.400000e-01    1.510000e+00
  TP1r  TX2v  1 3.400000e-01    1.230000e+00
  TP1r  TX1v  1 3.520000e-01    1.050000e+00
  TP1r  TC6e  1 3.400000e-01    1.510000e+00
  TP1r  TC5e  1 3.400000e-01    1.230000e+00
  TP1r  TC4e  1 3.520000e-01    1.050000e+00
  TP1r  TC3e  1 3.660000e-01    9.350000e-01
  TP1r  TC2e  1 3.660000e-01    9.350000e-01
  TP1r  TC1e  1 3.850000e-01    8.550000e-01
  TP1r  TX4e  1 3.400000e-01    1.510000e+00
  TP1r  TX3e  1 3.400000e-01    1.510000e+00
  TP1r  TX2e  1 3.400000e-01    1.230000e+00
  TP1r  TX1e  1 3.520000e-01    1.050000e+00
  TP6q  TP1r  1 3.400000e-01    2.990000e+00
  TP5q  TP1r  1 3.400000e-01    2.740000e+00
  TP4q  TP1r  1 3.400000e-01    2.740000e+00
  TP3q  TP1r  1 3.400000e-01    2.740000e+00
  TP2q  TP1r  1 3.400000e-01    2.740000e+00
  TP1r  TP1q  1 3.400000e-01    2.740000e+00
  TP1r  TX1q  1 3.400000e-01    1.230000e+00
  TP1r  TX2q  1 3.400000e-01    1.510000e+00
  TP1r  TX3q  1 3.400000e-01    1.770000e+00
  TP1r  TX4q  1 3.400000e-01    1.770000e+00
  TP1r  TC1q  1 3.660000e-01    9.350000e-01
  TP1r  TC2q  1 3.520000e-01    1.050000e+00
  TP1r  TC3q  1 3.520000e-01    1.050000e+00
  TP1r  TC4q  1 3.400000e-01    1.230000e+00
  TP1r  TC5q  1 3.400000e-01    1.510000e+00
  TP1r  TC6q  1 3.400000e-01    1.770000e+00
  TP1r  TN1q  1 3.400000e-01    2.020000e+00
  TP1r  TN2q  1 3.400000e-01    2.020000e+00
  TP1r  TN3q  1 3.400000e-01    2.020000e+00
  TP1r  TN4q  1 3.400000e-01    2.500000e+00
  TP1r  TN5q  1 3.400000e-01    2.500000e+00
  TP1r  TN6q  1 3.400000e-01    2.740000e+00
  TP6d  TN6r  1 3.400000e-01    2.280000e+00
  TP5d  TN6r  1 3.400000e-01    2.020000e+00
  TP4d  TN6r  1 3.400000e-01    2.020000e+00
  TP3d  TN6r  1 3.400000e-01    2.020000e+00
  TP2d  TN6r  1 3.400000e-01    2.280000e+00
  TP1d  TN6r  1 3.400000e-01    2.280000e+00
  TN6r  TN6d  1 3.400000e-01    2.280000e+00
  TN6r  TN1d  1 3.400000e-01    1.510000e+00
  TN6r  TN2d  1 3.400000e-01    1.510000e+00
  TN6r  TN3d  1 3.400000e-01    1.770000e+00
  TN6r  TN4d  1 3.400000e-01    2.280000e+00
  TN6r  TN5d  1 3.400000e-01    2.280000e+00
  TP6a  TN6r  1 3.400000e-01    2.280000e+00
  TP5a  TN6r  1 3.400000e-01    2.020000e+00
  TP4a  TN6r  1 3.400000e-01    2.020000e+00
  TP3a  TN6r  1 3.400000e-01    2.020000e+00
  TP2a  TN6r  1 3.400000e-01    2.280000e+00
  TP1a  TN6r  1 3.400000e-01    2.280000e+00
  TN6r  TN6a  1 3.400000e-01    2.280000e+00
  TN6r  TN1a  1 3.400000e-01    1.510000e+00
  TN6r  TN2a  1 3.400000e-01    1.510000e+00
  TN6r  TN3a  1 3.400000e-01    1.770000e+00
  TN6r  TN4a  1 3.400000e-01    2.280000e+00
  TN6r  TN5a  1 3.400000e-01    2.280000e+00
  TN6r  TC6v  1 3.400000e-01    1.770000e+00
  TN6r  TC5v  1 3.400000e-01    1.510000e+00
  TN6r  TC4v  1 3.400000e-01    1.230000e+00
  TN6r  TC3v  1 3.520000e-01    1.050000e+00
  TN6r  TC2v  1 3.520000e-01    1.050000e+00
  TN6r  TC1v  1 3.660000e-01    9.350000e-01
  TN6r  TX4v  1 3.400000e-01    1.770000e+00
  TN6r  TX3v  1 3.400000e-01    1.510000e+00
  TN6r  TX2v  1 3.400000e-01    1.230000e+00
  TN6r  TX1v  1 3.520000e-01    1.050000e+00
  TN6r  TC6e  1 3.400000e-01    1.770000e+00
  TN6r  TC5e  1 3.400000e-01    1.510000e+00
  TN6r  TC4e  1 3.400000e-01    1.230000e+00
  TN6r  TC3e  1 3.520000e-01    1.050000e+00
  TN6r  TC2e  1 3.520000e-01    1.050000e+00
  TN6r  TC1e  1 3.660000e-01    9.350000e-01
  TN6r  TX4e  1 3.400000e-01    1.770000e+00
  TN6r  TX3e  1 3.400000e-01    1.510000e+00
  TN6r  TX2e  1 3.400000e-01    1.230000e+00
  TN6r  TX1e  1 3.520000e-01    1.050000e+00
  TP6q  TN6r  1 3.400000e-01    2.740000e+00
  TP5q  TN6r  1 3.400000e-01    2.500000e+00
  TP4q  TN6r  1 3.400000e-01    2.500000e+00
  TP3q  TN6r  1 3.400000e-01    2.500000e+00
  TP2q  TN6r  1 3.400000e-01    2.740000e+00
  TP1q  TN6r  1 3.400000e-01    2.740000e+00
  TN6r  TN6q  1 3.400000e-01    2.740000e+00
  TN6r  TX1q  1 3.400000e-01    1.230000e+00
  TN6r  TX2q  1 3.400000e-01    1.510000e+00
  TN6r  TX3q  1 3.400000e-01    1.770000e+00
  TN6r  TX4q  1 3.400000e-01    2.020000e+00
  TN6r  TC1q  1 3.520000e-01    1.050000e+00
  TN6r  TC2q  1 3.400000e-01    1.230000e+00
  TN6r  TC3q  1 3.400000e-01    1.230000e+00
  TN6r  TC4q  1 3.400000e-01    1.510000e+00
  TN6r  TC5q  1 3.400000e-01    1.770000e+00
  TN6r  TC6q  1 3.400000e-01    2.020000e+00
  TN6r  TN1q  1 3.400000e-01    2.020000e+00
  TN6r  TN2q  1 3.400000e-01    2.020000e+00
  TN6r  TN3q  1 3.400000e-01    2.280000e+00
  TN6r  TN4q  1 3.400000e-01    2.740000e+00
  TN6r  TN5q  1 3.400000e-01    2.740000e+00
  TP6d  TN5r  1 3.400000e-01    1.770000e+00
  TP5d  TN5r  1 3.400000e-01    1.770000e+00
  TP4d  TN5r  1 3.400000e-01    1.770000e+00
  TP3d  TN5r  1 3.400000e-01    1.770000e+00
  TP2d  TN5r  1 3.400000e-01    2.020000e+00
  TP1d  TN5r  1 3.400000e-01    2.020000e+00
  TN6d  TN5r  1 3.400000e-01    2.280000e+00
  TN5r  TN5d  1 3.400000e-01    2.020000e+00
  TN5r  TN1d  1 3.400000e-01    1.510000e+00
  TN5r  TN2d  1 3.400000e-01    1.770000e+00
  TN5r  TN3d  1 3.400000e-01    1.770000e+00
  TN5r  TN4d  1 3.400000e-01    2.020000e+00
  TP6a  TN5r  1 3.400000e-01    1.770000e+00
  TP5a  TN5r  1 3.400000e-01    1.770000e+00
  TP4a  TN5r  1 3.400000e-01    1.770000e+00
  TP3a  TN5r  1 3.400000e-01    1.770000e+00
  TP2a  TN5r  1 3.400000e-01    2.020000e+00
  TP1a  TN5r  1 3.400000e-01    2.020000e+00
  TN6a  TN5r  1 3.400000e-01    2.280000e+00
  TN5r  TN5a  1 3.400000e-01    2.020000e+00
  TN5r  TN1a  1 3.400000e-01    1.510000e+00
  TN5r  TN2a  1 3.400000e-01    1.770000e+00
  TN5r  TN3a  1 3.400000e-01    1.770000e+00
  TN5r  TN4a  1 3.400000e-01    2.020000e+00
  TN5r  TC6v  1 3.400000e-01    1.770000e+00
  TN5r  TC5v  1 3.400000e-01    1.510000e+00
  TN5r  TC4v  1 3.400000e-01    1.230000e+00
  TN5r  TC3v  1 3.400000e-01    1.230000e+00
  TN5r  TC2v  1 3.520000e-01    1.050000e+00
  TN5r  TC1v  1 3.660000e-01    9.350000e-01
  TN5r  TX4v  1 3.400000e-01    2.020000e+00
  TN5r  TX3v  1 3.400000e-01    1.770000e+00
  TN5r  TX2v  1 3.400000e-01    1.510000e+00
  TN5r  TX1v  1 3.400000e-01    1.230000e+00
  TN5r  TC6e  1 3.400000e-01    1.770000e+00
  TN5r  TC5e  1 3.400000e-01    1.510000e+00
  TN5r  TC4e  1 3.400000e-01    1.230000e+00
  TN5r  TC3e  1 3.400000e-01    1.230000e+00
  TN5r  TC2e  1 3.520000e-01    1.050000e+00
  TN5r  TC1e  1 3.660000e-01    9.350000e-01
  TN5r  TX4e  1 3.400000e-01    2.020000e+00
  TN5r  TX3e  1 3.400000e-01    1.770000e+00
  TN5r  TX2e  1 3.400000e-01    1.510000e+00
  TN5r  TX1e  1 3.400000e-01    1.230000e+00
  TP6q  TN5r  1 3.400000e-01    2.280000e+00
  TP5q  TN5r  1 3.400000e-01    2.280000e+00
  TP4q  TN5r  1 3.400000e-01    2.280000e+00
  TP3q  TN5r  1 3.400000e-01    2.280000e+00
  TP2q  TN5r  1 3.400000e-01    2.500000e+00
  TP1q  TN5r  1 3.400000e-01    2.500000e+00
  TN6q  TN5r  1 3.400000e-01    2.740000e+00
  TN5r  TN5q  1 3.400000e-01    2.500000e+00
  TN5r  TX1q  1 3.400000e-01    1.510000e+00
  TN5r  TX2q  1 3.400000e-01    1.770000e+00
  TN5r  TX3q  1 3.400000e-01    2.020000e+00
  TN5r  TX4q  1 3.400000e-01    2.280000e+00
  TN5r  TC1q  1 3.520000e-01    1.050000e+00
  TN5r  TC2q  1 3.400000e-01    1.230000e+00
  TN5r  TC3q  1 3.400000e-01    1.510000e+00
  TN5r  TC4q  1 3.400000e-01    1.510000e+00
  TN5r  TC5q  1 3.400000e-01    1.770000e+00
  TN5r  TC6q  1 3.400000e-01    2.020000e+00
  TN5r  TN1q  1 3.400000e-01    2.020000e+00
  TN5r  TN2q  1 3.400000e-01    2.280000e+00
  TN5r  TN3q  1 3.400000e-01    2.280000e+00
  TN5r  TN4q  1 3.400000e-01    2.500000e+00
  TP6d  TN4r  1 3.400000e-01    1.510000e+00
  TP5d  TN4r  1 3.400000e-01    1.770000e+00
  TP4d  TN4r  1 3.400000e-01    1.770000e+00
  TP3d  TN4r  1 3.400000e-01    1.770000e+00
  TP2d  TN4r  1 3.400000e-01    1.770000e+00
  TP1d  TN4r  1 3.400000e-01    2.020000e+00
  TN6d  TN4r  1 3.400000e-01    2.280000e+00
  TN5d  TN4r  1 3.400000e-01    2.020000e+00
  TN4r  TN4d  1 3.400000e-01    2.020000e+00
  TN4r  TN1d  1 3.400000e-01    1.510000e+00
  TN4r  TN2d  1 3.400000e-01    1.770000e+00
  TN4r  TN3d  1 3.400000e-01    1.770000e+00
  TP6a  TN4r  1 3.400000e-01    1.510000e+00
  TP5a  TN4r  1 3.400000e-01    1.770000e+00
  TP4a  TN4r  1 3.400000e-01    1.770000e+00
  TP3a  TN4r  1 3.400000e-01    1.770000e+00
  TP2a  TN4r  1 3.400000e-01    1.770000e+00
  TP1a  TN4r  1 3.400000e-01    2.020000e+00
  TN6a  TN4r  1 3.400000e-01    2.280000e+00
  TN5a  TN4r  1 3.400000e-01    2.020000e+00
  TN4r  TN4a  1 3.400000e-01    2.020000e+00
  TN4r  TN1a  1 3.400000e-01    1.510000e+00
  TN4r  TN2a  1 3.400000e-01    1.770000e+00
  TN4r  TN3a  1 3.400000e-01    1.770000e+00
  TN4r  TC6v  1 3.400000e-01    1.770000e+00
  TN4r  TC5v  1 3.400000e-01    1.510000e+00
  TN4r  TC4v  1 3.400000e-01    1.510000e+00
  TN4r  TC3v  1 3.400000e-01    1.230000e+00
  TN4r  TC2v  1 3.520000e-01    1.050000e+00
  TN4r  TC1v  1 3.660000e-01    9.350000e-01
  TN4r  TX4v  1 3.400000e-01    2.280000e+00
  TN4r  TX3v  1 3.400000e-01    2.020000e+00
  TN4r  TX2v  1 3.400000e-01    1.510000e+00
  TN4r  TX1v  1 3.400000e-01    1.230000e+00
  TN4r  TC6e  1 3.400000e-01    1.770000e+00
  TN4r  TC5e  1 3.400000e-01    1.510000e+00
  TN4r  TC4e  1 3.400000e-01    1.510000e+00
  TN4r  TC3e  1 3.400000e-01    1.230000e+00
  TN4r  TC2e  1 3.520000e-01    1.050000e+00
  TN4r  TC1e  1 3.660000e-01    9.350000e-01
  TN4r  TX4e  1 3.400000e-01    2.280000e+00
  TN4r  TX3e  1 3.400000e-01    2.020000e+00
  TN4r  TX2e  1 3.400000e-01    1.510000e+00
  TN4r  TX1e  1 3.400000e-01    1.230000e+00
  TP6q  TN4r  1 3.400000e-01    2.020000e+00
  TP5q  TN4r  1 3.400000e-01    2.280000e+00
  TP4q  TN4r  1 3.400000e-01    2.280000e+00
  TP3q  TN4r  1 3.400000e-01    2.280000e+00
  TP2q  TN4r  1 3.400000e-01    2.280000e+00
  TP1q  TN4r  1 3.400000e-01    2.500000e+00
  TN6q  TN4r  1 3.400000e-01    2.740000e+00
  TN5q  TN4r  1 3.400000e-01    2.500000e+00
  TN4r  TN4q  1 3.400000e-01    2.500000e+00
  TN4r  TX1q  1 3.400000e-01    1.510000e+00
  TN4r  TX2q  1 3.400000e-01    1.770000e+00
  TN4r  TX3q  1 3.400000e-01    2.280000e+00
  TN4r  TX4q  1 3.400000e-01    2.500000e+00
  TN4r  TC1q  1 3.520000e-01    1.050000e+00
  TN4r  TC2q  1 3.400000e-01    1.230000e+00
  TN4r  TC3q  1 3.400000e-01    1.510000e+00
  TN4r  TC4q  1 3.400000e-01    1.770000e+00
  TN4r  TC5q  1 3.400000e-01    1.770000e+00
  TN4r  TC6q  1 3.400000e-01    2.020000e+00
  TN4r  TN1q  1 3.400000e-01    2.020000e+00
  TN4r  TN2q  1 3.400000e-01    2.280000e+00
  TN4r  TN3q  1 3.400000e-01    2.280000e+00
  TP6d  TN3r  1 3.400000e-01    1.230000e+00
  TP5d  TN3r  1 3.400000e-01    1.230000e+00
  TP4d  TN3r  1 3.400000e-01    1.510000e+00
  TP3d  TN3r  1 3.400000e-01    1.510000e+00
  TP2d  TN3r  1 3.400000e-01    1.510000e+00
  TP1d  TN3r  1 3.400000e-01    1.510000e+00
  TN6d  TN3r  1 3.400000e-01    1.770000e+00
  TN5d  TN3r  1 3.400000e-01    1.770000e+00
  TN4d  TN3r  1 3.400000e-01    1.770000e+00
  TN3r  TN3d  1 3.400000e-01    1.770000e+00
  TN3r  TN1d  1 3.400000e-01    1.510000e+00
  TN3r  TN2d  1 3.400000e-01    1.770000e+00
  TP6a  TN3r  1 3.400000e-01    1.230000e+00
  TP5a  TN3r  1 3.400000e-01    1.230000e+00
  TP4a  TN3r  1 3.400000e-01    1.510000e+00
  TP3a  TN3r  1 3.400000e-01    1.510000e+00
  TP2a  TN3r  1 3.400000e-01    1.510000e+00
  TP1a  TN3r  1 3.400000e-01    1.510000e+00
  TN6a  TN3r  1 3.400000e-01    1.770000e+00
  TN5a  TN3r  1 3.400000e-01    1.770000e+00
  TN4a  TN3r  1 3.400000e-01    1.770000e+00
  TN3r  TN3a  1 3.400000e-01    1.770000e+00
  TN3r  TN1a  1 3.400000e-01    1.510000e+00
  TN3r  TN2a  1 3.400000e-01    1.770000e+00
  TN3r  TC6v  1 3.400000e-01    1.770000e+00
  TN3r  TC5v  1 3.400000e-01    1.510000e+00
  TN3r  TC4v  1 3.400000e-01    1.510000e+00
  TN3r  TC3v  1 3.400000e-01    1.230000e+00
  TN3r  TC2v  1 3.400000e-01    1.230000e+00
  TN3r  TC1v  1 3.520000e-01    1.050000e+00
  TN3r  TX4v  1 3.400000e-01    2.020000e+00
  TN3r  TX3v  1 3.400000e-01    1.770000e+00
  TN3r  TX2v  1 3.400000e-01    1.510000e+00
  TN3r  TX1v  1 3.400000e-01    1.510000e+00
  TN3r  TC6e  1 3.400000e-01    1.770000e+00
  TN3r  TC5e  1 3.400000e-01    1.510000e+00
  TN3r  TC4e  1 3.400000e-01    1.510000e+00
  TN3r  TC3e  1 3.400000e-01    1.230000e+00
  TN3r  TC2e  1 3.400000e-01    1.230000e+00
  TN3r  TC1e  1 3.520000e-01    1.050000e+00
  TN3r  TX4e  1 3.400000e-01    2.020000e+00
  TN3r  TX3e  1 3.400000e-01    1.770000e+00
  TN3r  TX2e  1 3.400000e-01    1.510000e+00
  TN3r  TX1e  1 3.400000e-01    1.510000e+00
  TP6q  TN3r  1 3.400000e-01    1.770000e+00
  TP5q  TN3r  1 3.400000e-01    1.770000e+00
  TP4q  TN3r  1 3.400000e-01    2.020000e+00
  TP3q  TN3r  1 3.400000e-01    2.020000e+00
  TP2q  TN3r  1 3.400000e-01    2.020000e+00
  TP1q  TN3r  1 3.400000e-01    2.020000e+00
  TN6q  TN3r  1 3.400000e-01    2.280000e+00
  TN5q  TN3r  1 3.400000e-01    2.280000e+00
  TN4q  TN3r  1 3.400000e-01    2.280000e+00
  TN3r  TN3q  1 3.400000e-01    2.280000e+00
  TN3r  TX1q  1 3.400000e-01    1.770000e+00
  TN3r  TX2q  1 3.400000e-01    1.770000e+00
  TN3r  TX3q  1 3.400000e-01    2.020000e+00
  TN3r  TX4q  1 3.400000e-01    2.280000e+00
  TN3r  TC1q  1 3.400000e-01    1.230000e+00
  TN3r  TC2q  1 3.400000e-01    1.510000e+00
  TN3r  TC3q  1 3.400000e-01    1.510000e+00
  TN3r  TC4q  1 3.400000e-01    1.770000e+00
  TN3r  TC5q  1 3.400000e-01    1.770000e+00
  TN3r  TC6q  1 3.400000e-01    2.020000e+00
  TN3r  TN1q  1 3.400000e-01    2.020000e+00
  TN3r  TN2q  1 3.400000e-01    2.280000e+00
  TP6d  TN2r  1 3.520000e-01    1.050000e+00
  TP5d  TN2r  1 3.520000e-01    1.050000e+00
  TP4d  TN2r  1 3.400000e-01    1.230000e+00
  TP3d  TN2r  1 3.400000e-01    1.510000e+00
  TP2d  TN2r  1 3.400000e-01    1.510000e+00
  TP1d  TN2r  1 3.400000e-01    1.510000e+00
  TN6d  TN2r  1 3.400000e-01    1.510000e+00
  TN5d  TN2r  1 3.400000e-01    1.770000e+00
  TN4d  TN2r  1 3.400000e-01    1.770000e+00
  TN3d  TN2r  1 3.400000e-01    1.770000e+00
  TN2r  TN2d  1 3.400000e-01    1.770000e+00
  TN2r  TN1d  1 3.400000e-01    1.510000e+00
  TP6a  TN2r  1 3.520000e-01    1.050000e+00
  TP5a  TN2r  1 3.520000e-01    1.050000e+00
  TP4a  TN2r  1 3.400000e-01    1.230000e+00
  TP3a  TN2r  1 3.400000e-01    1.510000e+00
  TP2a  TN2r  1 3.400000e-01    1.510000e+00
  TP1a  TN2r  1 3.400000e-01    1.510000e+00
  TN6a  TN2r  1 3.400000e-01    1.510000e+00
  TN5a  TN2r  1 3.400000e-01    1.770000e+00
  TN4a  TN2r  1 3.400000e-01    1.770000e+00
  TN3a  TN2r  1 3.400000e-01    1.770000e+00
  TN2r  TN2a  1 3.400000e-01    1.770000e+00
  TN2r  TN1a  1 3.400000e-01    1.510000e+00
  TN2r  TC6v  1 3.400000e-01    1.770000e+00
  TN2r  TC5v  1 3.400000e-01    1.510000e+00
  TN2r  TC4v  1 3.400000e-01    1.510000e+00
  TN2r  TC3v  1 3.400000e-01    1.510000e+00
  TN2r  TC2v  1 3.400000e-01    1.230000e+00
  TN2r  TC1v  1 3.520000e-01    1.050000e+00
  TN2r  TX4v  1 3.400000e-01    2.020000e+00
  TN2r  TX3v  1 3.400000e-01    1.770000e+00
  TN2r  TX2v  1 3.400000e-01    1.510000e+00
  TN2r  TX1v  1 3.400000e-01    1.510000e+00
  TN2r  TC6e  1 3.400000e-01    1.770000e+00
  TN2r  TC5e  1 3.400000e-01    1.510000e+00
  TN2r  TC4e  1 3.400000e-01    1.510000e+00
  TN2r  TC3e  1 3.400000e-01    1.510000e+00
  TN2r  TC2e  1 3.400000e-01    1.230000e+00
  TN2r  TC1e  1 3.520000e-01    1.050000e+00
  TN2r  TX4e  1 3.400000e-01    2.020000e+00
  TN2r  TX3e  1 3.400000e-01    1.770000e+00
  TN2r  TX2e  1 3.400000e-01    1.510000e+00
  TN2r  TX1e  1 3.400000e-01    1.510000e+00
  TP6q  TN2r  1 3.400000e-01    1.510000e+00
  TP5q  TN2r  1 3.400000e-01    1.510000e+00
  TP4q  TN2r  1 3.400000e-01    1.770000e+00
  TP3q  TN2r  1 3.400000e-01    2.020000e+00
  TP2q  TN2r  1 3.400000e-01    2.020000e+00
  TP1q  TN2r  1 3.400000e-01    2.020000e+00
  TN6q  TN2r  1 3.400000e-01    2.020000e+00
  TN5q  TN2r  1 3.400000e-01    2.280000e+00
  TN4q  TN2r  1 3.400000e-01    2.280000e+00
  TN3q  TN2r  1 3.400000e-01    2.280000e+00
  TN2r  TN2q  1 3.400000e-01    2.280000e+00
  TN2r  TX1q  1 3.400000e-01    1.770000e+00
  TN2r  TX2q  1 3.400000e-01    1.770000e+00
  TN2r  TX3q  1 3.400000e-01    2.020000e+00
  TN2r  TX4q  1 3.400000e-01    2.280000e+00
  TN2r  TC1q  1 3.400000e-01    1.230000e+00
  TN2r  TC2q  1 3.400000e-01    1.510000e+00
  TN2r  TC3q  1 3.400000e-01    1.770000e+00
  TN2r  TC4q  1 3.400000e-01    1.770000e+00
  TN2r  TC5q  1 3.400000e-01    1.770000e+00
  TN2r  TC6q  1 3.400000e-01    2.020000e+00
  TN2r  TN1q  1 3.400000e-01    2.020000e+00
  TP6d  TN1r  1 3.660000e-01    9.350000e-01
  TP5d  TN1r  1 3.660000e-01    9.350000e-01
  TP4d  TN1r  1 3.520000e-01    1.050000e+00
  TP3d  TN1r  1 3.400000e-01    1.230000e+00
  TP2d  TN1r  1 3.400000e-01    1.510000e+00
  TP1d  TN1r  1 3.400000e-01    1.510000e+00
  TN6d  TN1r  1 3.400000e-01    1.510000e+00
  TN5d  TN1r  1 3.400000e-01    1.510000e+00
  TN4d  TN1r  1 3.400000e-01    1.510000e+00
  TN3d  TN1r  1 3.400000e-01    1.510000e+00
  TN2d  TN1r  1 3.400000e-01    1.510000e+00
  TN1r  TN1d  1 3.400000e-01    1.770000e+00
  TP6a  TN1r  1 3.660000e-01    9.350000e-01
  TP5a  TN1r  1 3.660000e-01    9.350000e-01
  TP4a  TN1r  1 3.520000e-01    1.050000e+00
  TP3a  TN1r  1 3.400000e-01    1.230000e+00
  TP2a  TN1r  1 3.400000e-01    1.510000e+00
  TP1a  TN1r  1 3.400000e-01    1.510000e+00
  TN6a  TN1r  1 3.400000e-01    1.510000e+00
  TN5a  TN1r  1 3.400000e-01    1.510000e+00
  TN4a  TN1r  1 3.400000e-01    1.510000e+00
  TN3a  TN1r  1 3.400000e-01    1.510000e+00
  TN2a  TN1r  1 3.400000e-01    1.510000e+00
  TN1r  TN1a  1 3.400000e-01    1.770000e+00
  TN1r  TC6v  1 3.400000e-01    2.020000e+00
  TN1r  TC5v  1 3.400000e-01    1.770000e+00
  TN1r  TC4v  1 3.400000e-01    1.770000e+00
  TN1r  TC3v  1 3.400000e-01    1.510000e+00
  TN1r  TC2v  1 3.400000e-01    1.230000e+00
  TN1r  TC1v  1 3.520000e-01    1.050000e+00
  TN1r  TX4v  1 3.400000e-01    1.770000e+00
  TN1r  TX3v  1 3.400000e-01    1.770000e+00
  TN1r  TX2v  1 3.400000e-01    1.510000e+00
  TN1r  TX1v  1 3.400000e-01    1.510000e+00
  TN1r  TC6e  1 3.400000e-01    2.020000e+00
  TN1r  TC5e  1 3.400000e-01    1.770000e+00
  TN1r  TC4e  1 3.400000e-01    1.770000e+00
  TN1r  TC3e  1 3.400000e-01    1.510000e+00
  TN1r  TC2e  1 3.400000e-01    1.230000e+00
  TN1r  TC1e  1 3.520000e-01    1.050000e+00
  TN1r  TX4e  1 3.400000e-01    1.770000e+00
  TN1r  TX3e  1 3.400000e-01    1.770000e+00
  TN1r  TX2e  1 3.400000e-01    1.510000e+00
  TN1r  TX1e  1 3.400000e-01    1.510000e+00
  TP6q  TN1r  1 3.400000e-01    1.230000e+00
  TP5q  TN1r  1 3.400000e-01    1.230000e+00
  TP4q  TN1r  1 3.400000e-01    1.510000e+00
  TP3q  TN1r  1 3.400000e-01    1.770000e+00
  TP2q  TN1r  1 3.400000e-01    2.020000e+00
  TP1q  TN1r  1 3.400000e-01    2.020000e+00
  TN6q  TN1r  1 3.400000e-01    2.020000e+00
  TN5q  TN1r  1 3.400000e-01    2.020000e+00
  TN4q  TN1r  1 3.400000e-01    2.020000e+00
  TN3q  TN1r  1 3.400000e-01    2.020000e+00
  TN2q  TN1r  1 3.400000e-01    2.020000e+00
  TN1r  TN1q  1 3.400000e-01    2.280000e+00
  TN1r  TX1q  1 3.400000e-01    1.770000e+00
  TN1r  TX2q  1 3.400000e-01    1.770000e+00
  TN1r  TX3q  1 3.400000e-01    2.020000e+00
  TN1r  TX4q  1 3.400000e-01    2.020000e+00
  TN1r  TC1q  1 3.400000e-01    1.230000e+00
  TN1r  TC2q  1 3.400000e-01    1.510000e+00
  TN1r  TC3q  1 3.400000e-01    1.770000e+00
  TN1r  TC4q  1 3.400000e-01    2.020000e+00
  TN1r  TC5q  1 3.400000e-01    2.020000e+00
  TN1r  TC6q  1 3.400000e-01    2.280000e+00
  TP6d  TC6r  1 3.660000e-01    9.350000e-01
  TP5d  TC6r  1 3.660000e-01    9.350000e-01
  TP4d  TC6r  1 3.520000e-01    1.050000e+00
  TP3d  TC6r  1 3.400000e-01    1.230000e+00
  TP2d  TC6r  1 3.400000e-01    1.230000e+00
  TP1d  TC6r  1 3.400000e-01    1.230000e+00
  TN6d  TC6r  1 3.400000e-01    1.510000e+00
  TN5d  TC6r  1 3.400000e-01    1.510000e+00
  TN4d  TC6r  1 3.400000e-01    1.510000e+00
  TN3d  TC6r  1 3.400000e-01    1.510000e+00
  TN2d  TC6r  1 3.400000e-01    1.510000e+00
  TN1d  TC6r  1 3.400000e-01    1.770000e+00
  TP6a  TC6r  1 3.660000e-01    9.350000e-01
  TP5a  TC6r  1 3.660000e-01    9.350000e-01
  TP4a  TC6r  1 3.520000e-01    1.050000e+00
  TP3a  TC6r  1 3.400000e-01    1.230000e+00
  TP2a  TC6r  1 3.400000e-01    1.230000e+00
  TP1a  TC6r  1 3.400000e-01    1.230000e+00
  TN6a  TC6r  1 3.400000e-01    1.510000e+00
  TN5a  TC6r  1 3.400000e-01    1.510000e+00
  TN4a  TC6r  1 3.400000e-01    1.510000e+00
  TN3a  TC6r  1 3.400000e-01    1.510000e+00
  TN2a  TC6r  1 3.400000e-01    1.510000e+00
  TN1a  TC6r  1 3.400000e-01    1.770000e+00
  TC6r  TC6v  1 3.400000e-01    2.020000e+00
  TC6r  TX1v  1 3.400000e-01    1.770000e+00
  TC6r  TX2v  1 3.400000e-01    1.770000e+00
  TC6r  TX3v  1 3.400000e-01    1.770000e+00
  TC6r  TX4v  1 3.400000e-01    1.770000e+00
  TC6r  TC1v  1 3.520000e-01    1.050000e+00
  TC6r  TC2v  1 3.400000e-01    1.230000e+00
  TC6r  TC3v  1 3.400000e-01    1.510000e+00
  TC6r  TC4v  1 3.400000e-01    1.770000e+00
  TC6r  TC5v  1 3.400000e-01    1.770000e+00
  TC6r  TC6e  1 3.400000e-01    2.020000e+00
  TC6r  TX1e  1 3.400000e-01    1.770000e+00
  TC6r  TX2e  1 3.400000e-01    1.770000e+00
  TC6r  TX3e  1 3.400000e-01    1.770000e+00
  TC6r  TX4e  1 3.400000e-01    1.770000e+00
  TC6r  TC1e  1 3.520000e-01    1.050000e+00
  TC6r  TC2e  1 3.400000e-01    1.230000e+00
  TC6r  TC3e  1 3.400000e-01    1.510000e+00
  TC6r  TC4e  1 3.400000e-01    1.770000e+00
  TC6r  TC5e  1 3.400000e-01    1.770000e+00
  TP6q  TC6r  1 3.400000e-01    1.230000e+00
  TP5q  TC6r  1 3.400000e-01    1.230000e+00
  TP4q  TC6r  1 3.400000e-01    1.510000e+00
  TP3q  TC6r  1 3.400000e-01    1.770000e+00
  TP2q  TC6r  1 3.400000e-01    1.770000e+00
  TP1q  TC6r  1 3.400000e-01    1.770000e+00
  TN6q  TC6r  1 3.400000e-01    2.020000e+00
  TN5q  TC6r  1 3.400000e-01    2.020000e+00
  TN4q  TC6r  1 3.400000e-01    2.020000e+00
  TN3q  TC6r  1 3.400000e-01    2.020000e+00
  TN2q  TC6r  1 3.400000e-01    2.020000e+00
  TN1q  TC6r  1 3.400000e-01    2.280000e+00
  TC6r  TC6q  1 3.400000e-01    2.280000e+00
  TC6r  TX1q  1 3.400000e-01    2.020000e+00
  TC6r  TX2q  1 3.400000e-01    2.020000e+00
  TC6r  TX3q  1 3.400000e-01    2.020000e+00
  TC6r  TX4q  1 3.400000e-01    2.020000e+00
  TC6r  TC1q  1 3.400000e-01    1.230000e+00
  TC6r  TC2q  1 3.400000e-01    1.510000e+00
  TC6r  TC3q  1 3.400000e-01    1.770000e+00
  TC6r  TC4q  1 3.400000e-01    2.020000e+00
  TC6r  TC5q  1 3.400000e-01    2.020000e+00
  TP6d  TC5r  1 3.850000e-01    8.550000e-01
  TP5d  TC5r  1 3.660000e-01    9.350000e-01
  TP4d  TC5r  1 3.660000e-01    9.350000e-01
  TP3d  TC5r  1 3.520000e-01    1.050000e+00
  TP2d  TC5r  1 3.520000e-01    1.050000e+00
  TP1d  TC5r  1 3.520000e-01    1.050000e+00
  TN6d  TC5r  1 3.400000e-01    1.230000e+00
  TN5d  TC5r  1 3.400000e-01    1.230000e+00
  TN4d  TC5r  1 3.400000e-01    1.230000e+00
  TN3d  TC5r  1 3.400000e-01    1.230000e+00
  TN2d  TC5r  1 3.400000e-01    1.230000e+00
  TN1d  TC5r  1 3.400000e-01    1.510000e+00
  TP6a  TC5r  1 3.850000e-01    8.550000e-01
  TP5a  TC5r  1 3.660000e-01    9.350000e-01
  TP4a  TC5r  1 3.660000e-01    9.350000e-01
  TP3a  TC5r  1 3.520000e-01    1.050000e+00
  TP2a  TC5r  1 3.520000e-01    1.050000e+00
  TP1a  TC5r  1 3.520000e-01    1.050000e+00
  TN6a  TC5r  1 3.400000e-01    1.230000e+00
  TN5a  TC5r  1 3.400000e-01    1.230000e+00
  TN4a  TC5r  1 3.400000e-01    1.230000e+00
  TN3a  TC5r  1 3.400000e-01    1.230000e+00
  TN2a  TC5r  1 3.400000e-01    1.230000e+00
  TN1a  TC5r  1 3.400000e-01    1.510000e+00
  TC6v  TC5r  1 3.400000e-01    1.770000e+00
  TC5r  TC5v  1 3.400000e-01    1.770000e+00
  TC5r  TX1v  1 3.400000e-01    1.770000e+00
  TC5r  TX2v  1 3.400000e-01    1.510000e+00
  TC5r  TX3v  1 3.400000e-01    1.510000e+00
  TC5r  TX4v  1 3.400000e-01    1.510000e+00
  TC5r  TC1v  1 3.400000e-01    1.230000e+00
  TC5r  TC2v  1 3.400000e-01    1.230000e+00
  TC5r  TC3v  1 3.400000e-01    1.510000e+00
  TC5r  TC4v  1 3.400000e-01    1.770000e+00
  TC6e  TC5r  1 3.400000e-01    1.770000e+00
  TC5r  TC5e  1 3.400000e-01    1.770000e+00
  TC5r  TX1e  1 3.400000e-01    1.770000e+00
  TC5r  TX2e  1 3.400000e-01    1.510000e+00
  TC5r  TX3e  1 3.400000e-01    1.510000e+00
  TC5r  TX4e  1 3.400000e-01    1.510000e+00
  TC5r  TC1e  1 3.400000e-01    1.230000e+00
  TC5r  TC2e  1 3.400000e-01    1.230000e+00
  TC5r  TC3e  1 3.400000e-01    1.510000e+00
  TC5r  TC4e  1 3.400000e-01    1.770000e+00
  TP6q  TC5r  1 3.520000e-01    1.050000e+00
  TP5q  TC5r  1 3.400000e-01    1.230000e+00
  TP4q  TC5r  1 3.400000e-01    1.230000e+00
  TP3q  TC5r  1 3.400000e-01    1.510000e+00
  TP2q  TC5r  1 3.400000e-01    1.510000e+00
  TP1q  TC5r  1 3.400000e-01    1.510000e+00
  TN6q  TC5r  1 3.400000e-01    1.770000e+00
  TN5q  TC5r  1 3.400000e-01    1.770000e+00
  TN4q  TC5r  1 3.400000e-01    1.770000e+00
  TN3q  TC5r  1 3.400000e-01    1.770000e+00
  TN2q  TC5r  1 3.400000e-01    1.770000e+00
  TN1q  TC5r  1 3.400000e-01    2.020000e+00
  TC6q  TC5r  1 3.400000e-01    2.020000e+00
  TC5r  TC5q  1 3.400000e-01    2.020000e+00
  TC5r  TX1q  1 3.400000e-01    2.020000e+00
  TC5r  TX2q  1 3.400000e-01    1.770000e+00
  TC5r  TX3q  1 3.400000e-01    1.770000e+00
  TC5r  TX4q  1 3.400000e-01    1.770000e+00
  TC5r  TC1q  1 3.400000e-01    1.510000e+00
  TC5r  TC2q  1 3.400000e-01    1.510000e+00
  TC5r  TC3q  1 3.400000e-01    1.770000e+00
  TC5r  TC4q  1 3.400000e-01    2.020000e+00
  TP6d  TC4r  1 4.110000e-01    8.010000e-01
  TP5d  TC4r  1 3.850000e-01    8.550000e-01
  TP4d  TC4r  1 3.850000e-01    8.550000e-01
  TP3d  TC4r  1 3.660000e-01    9.350000e-01
  TP2d  TC4r  1 3.660000e-01    9.350000e-01
  TP1d  TC4r  1 3.660000e-01    9.350000e-01
  TN6d  TC4r  1 3.520000e-01    1.050000e+00
  TN5d  TC4r  1 3.520000e-01    1.050000e+00
  TN4d  TC4r  1 3.400000e-01    1.230000e+00
  TN3d  TC4r  1 3.400000e-01    1.230000e+00
  TN2d  TC4r  1 3.400000e-01    1.230000e+00
  TN1d  TC4r  1 3.400000e-01    1.510000e+00
  TP6a  TC4r  1 4.110000e-01    8.010000e-01
  TP5a  TC4r  1 3.850000e-01    8.550000e-01
  TP4a  TC4r  1 3.850000e-01    8.550000e-01
  TP3a  TC4r  1 3.660000e-01    9.350000e-01
  TP2a  TC4r  1 3.660000e-01    9.350000e-01
  TP1a  TC4r  1 3.660000e-01    9.350000e-01
  TN6a  TC4r  1 3.520000e-01    1.050000e+00
  TN5a  TC4r  1 3.520000e-01    1.050000e+00
  TN4a  TC4r  1 3.400000e-01    1.230000e+00
  TN3a  TC4r  1 3.400000e-01    1.230000e+00
  TN2a  TC4r  1 3.400000e-01    1.230000e+00
  TN1a  TC4r  1 3.400000e-01    1.510000e+00
  TC6v  TC4r  1 3.400000e-01    1.770000e+00
  TC5v  TC4r  1 3.400000e-01    1.770000e+00
  TC4r  TC4v  1 3.400000e-01    1.770000e+00
  TC4r  TX1v  1 3.400000e-01    1.770000e+00
  TC4r  TX2v  1 3.400000e-01    1.510000e+00
  TC4r  TX3v  1 3.400000e-01    1.510000e+00
  TC4r  TX4v  1 3.400000e-01    1.510000e+00
  TC4r  TC1v  1 3.400000e-01    1.230000e+00
  TC4r  TC2v  1 3.400000e-01    1.510000e+00
  TC4r  TC3v  1 3.400000e-01    1.770000e+00
  TC6e  TC4r  1 3.400000e-01    1.770000e+00
  TC5e  TC4r  1 3.400000e-01    1.770000e+00
  TC4r  TC4e  1 3.400000e-01    1.770000e+00
  TC4r  TX1e  1 3.400000e-01    1.770000e+00
  TC4r  TX2e  1 3.400000e-01    1.510000e+00
  TC4r  TX3e  1 3.400000e-01    1.510000e+00
  TC4r  TX4e  1 3.400000e-01    1.510000e+00
  TC4r  TC1e  1 3.400000e-01    1.230000e+00
  TC4r  TC2e  1 3.400000e-01    1.510000e+00
  TC4r  TC3e  1 3.400000e-01    1.770000e+00
  TP6q  TC4r  1 3.660000e-01    9.350000e-01
  TP5q  TC4r  1 3.520000e-01    1.050000e+00
  TP4q  TC4r  1 3.520000e-01    1.050000e+00
  TP3q  TC4r  1 3.400000e-01    1.230000e+00
  TP2q  TC4r  1 3.400000e-01    1.230000e+00
  TP1q  TC4r  1 3.400000e-01    1.230000e+00
  TN6q  TC4r  1 3.400000e-01    1.510000e+00
  TN5q  TC4r  1 3.400000e-01    1.510000e+00
  TN4q  TC4r  1 3.400000e-01    1.770000e+00
  TN3q  TC4r  1 3.400000e-01    1.770000e+00
  TN2q  TC4r  1 3.400000e-01    1.770000e+00
  TN1q  TC4r  1 3.400000e-01    2.020000e+00
  TC6q  TC4r  1 3.400000e-01    2.020000e+00
  TC5q  TC4r  1 3.400000e-01    2.020000e+00
  TC4r  TC4q  1 3.400000e-01    2.020000e+00
  TC4r  TX1q  1 3.400000e-01    2.020000e+00
  TC4r  TX2q  1 3.400000e-01    1.770000e+00
  TC4r  TX3q  1 3.400000e-01    1.770000e+00
  TC4r  TX4q  1 3.400000e-01    1.770000e+00
  TC4r  TC1q  1 3.400000e-01    1.510000e+00
  TC4r  TC2q  1 3.400000e-01    1.770000e+00
  TC4r  TC3q  1 3.400000e-01    2.020000e+00
  TP6d  TC3r  1 4.240000e-01    7.760000e-01
  TP5d  TC3r  1 4.110000e-01    8.010000e-01
  TP4d  TC3r  1 4.110000e-01    8.010000e-01
  TP3d  TC3r  1 4.110000e-01    8.010000e-01
  TP2d  TC3r  1 3.850000e-01    8.550000e-01
  TP1d  TC3r  1 3.850000e-01    8.550000e-01
  TN6d  TC3r  1 3.660000e-01    9.350000e-01
  TN5d  TC3r  1 3.520000e-01    1.050000e+00
  TN4d  TC3r  1 3.520000e-01    1.050000e+00
  TN3d  TC3r  1 3.520000e-01    1.050000e+00
  TN2d  TC3r  1 3.400000e-01    1.230000e+00
  TN1d  TC3r  1 3.400000e-01    1.230000e+00
  TP6a  TC3r  1 4.240000e-01    7.760000e-01
  TP5a  TC3r  1 4.110000e-01    8.010000e-01
  TP4a  TC3r  1 4.110000e-01    8.010000e-01
  TP3a  TC3r  1 4.110000e-01    8.010000e-01
  TP2a  TC3r  1 3.850000e-01    8.550000e-01
  TP1a  TC3r  1 3.850000e-01    8.550000e-01
  TN6a  TC3r  1 3.660000e-01    9.350000e-01
  TN5a  TC3r  1 3.520000e-01    1.050000e+00
  TN4a  TC3r  1 3.520000e-01    1.050000e+00
  TN3a  TC3r  1 3.520000e-01    1.050000e+00
  TN2a  TC3r  1 3.400000e-01    1.230000e+00
  TN1a  TC3r  1 3.400000e-01    1.230000e+00
  TC6v  TC3r  1 3.400000e-01    1.510000e+00
  TC5v  TC3r  1 3.400000e-01    1.510000e+00
  TC4v  TC3r  1 3.400000e-01    1.770000e+00
  TC3r  TC3v  1 3.400000e-01    1.770000e+00
  TC3r  TX1v  1 3.400000e-01    1.770000e+00
  TC3r  TX2v  1 3.400000e-01    1.510000e+00
  TC3r  TX3v  1 3.400000e-01    1.510000e+00
  TC3r  TX4v  1 3.400000e-01    1.510000e+00
  TC3r  TC1v  1 3.400000e-01    1.770000e+00
  TC3r  TC2v  1 3.400000e-01    1.770000e+00
  TC6e  TC3r  1 3.400000e-01    1.510000e+00
  TC5e  TC3r  1 3.400000e-01    1.510000e+00
  TC4e  TC3r  1 3.400000e-01    1.770000e+00
  TC3r  TC3e  1 3.400000e-01    1.770000e+00
  TC3r  TX1e  1 3.400000e-01    1.770000e+00
  TC3r  TX2e  1 3.400000e-01    1.510000e+00
  TC3r  TX3e  1 3.400000e-01    1.510000e+00
  TC3r  TX4e  1 3.400000e-01    1.510000e+00
  TC3r  TC1e  1 3.400000e-01    1.770000e+00
  TC3r  TC2e  1 3.400000e-01    1.770000e+00
  TP6q  TC3r  1 3.850000e-01    8.550000e-01
  TP5q  TC3r  1 3.660000e-01    9.350000e-01
  TP4q  TC3r  1 3.660000e-01    9.350000e-01
  TP3q  TC3r  1 3.660000e-01    9.350000e-01
  TP2q  TC3r  1 3.520000e-01    1.050000e+00
  TP1q  TC3r  1 3.520000e-01    1.050000e+00
  TN6q  TC3r  1 3.400000e-01    1.230000e+00
  TN5q  TC3r  1 3.400000e-01    1.510000e+00
  TN4q  TC3r  1 3.400000e-01    1.510000e+00
  TN3q  TC3r  1 3.400000e-01    1.510000e+00
  TN2q  TC3r  1 3.400000e-01    1.770000e+00
  TN1q  TC3r  1 3.400000e-01    1.770000e+00
  TC6q  TC3r  1 3.400000e-01    1.770000e+00
  TC5q  TC3r  1 3.400000e-01    1.770000e+00
  TC4q  TC3r  1 3.400000e-01    2.020000e+00
  TC3r  TC3q  1 3.400000e-01    2.020000e+00
  TC3r  TX1q  1 3.400000e-01    2.020000e+00
  TC3r  TX2q  1 3.400000e-01    1.770000e+00
  TC3r  TX3q  1 3.400000e-01    1.770000e+00
  TC3r  TX4q  1 3.400000e-01    1.770000e+00
  TC3r  TC1q  1 3.400000e-01    2.020000e+00
  TC3r  TC2q  1 3.400000e-01    2.020000e+00
  TP6d  TC2r  1 4.240000e-01    7.760000e-01
  TP5d  TC2r  1 4.110000e-01    8.010000e-01
  TP4d  TC2r  1 4.110000e-01    8.010000e-01
  TP3d  TC2r  1 4.110000e-01    8.010000e-01
  TP2d  TC2r  1 3.850000e-01    8.550000e-01
  TP1d  TC2r  1 3.850000e-01    8.550000e-01
  TN6d  TC2r  1 3.660000e-01    9.350000e-01
  TN5d  TC2r  1 3.660000e-01    9.350000e-01
  TN4d  TC2r  1 3.660000e-01    9.350000e-01
  TN3d  TC2r  1 3.520000e-01    1.050000e+00
  TN2d  TC2r  1 3.520000e-01    1.050000e+00
  TN1d  TC2r  1 3.520000e-01    1.050000e+00
  TP6a  TC2r  1 4.240000e-01    7.760000e-01
  TP5a  TC2r  1 4.110000e-01    8.010000e-01
  TP4a  TC2r  1 4.110000e-01    8.010000e-01
  TP3a  TC2r  1 4.110000e-01    8.010000e-01
  TP2a  TC2r  1 3.850000e-01    8.550000e-01
  TP1a  TC2r  1 3.850000e-01    8.550000e-01
  TN6a  TC2r  1 3.660000e-01    9.350000e-01
  TN5a  TC2r  1 3.660000e-01    9.350000e-01
  TN4a  TC2r  1 3.660000e-01    9.350000e-01
  TN3a  TC2r  1 3.520000e-01    1.050000e+00
  TN2a  TC2r  1 3.520000e-01    1.050000e+00
  TN1a  TC2r  1 3.520000e-01    1.050000e+00
  TC6v  TC2r  1 3.400000e-01    1.230000e+00
  TC5v  TC2r  1 3.400000e-01    1.230000e+00
  TC4v  TC2r  1 3.400000e-01    1.510000e+00
  TC3v  TC2r  1 3.400000e-01    1.770000e+00
  TC2r  TC2v  1 3.400000e-01    1.770000e+00
  TC2r  TX1v  1 3.400000e-01    1.510000e+00
  TC2r  TX2v  1 3.400000e-01    1.510000e+00
  TC2r  TX3v  1 3.400000e-01    1.510000e+00
  TC2r  TX4v  1 3.520000e-01    1.050000e+00
  TC2r  TC1v  1 3.400000e-01    2.020000e+00
  TC6e  TC2r  1 3.400000e-01    1.230000e+00
  TC5e  TC2r  1 3.400000e-01    1.230000e+00
  TC4e  TC2r  1 3.400000e-01    1.510000e+00
  TC3e  TC2r  1 3.400000e-01    1.770000e+00
  TC2r  TC2e  1 3.400000e-01    1.770000e+00
  TC2r  TX1e  1 3.400000e-01    1.510000e+00
  TC2r  TX2e  1 3.400000e-01    1.510000e+00
  TC2r  TX3e  1 3.400000e-01    1.510000e+00
  TC2r  TX4e  1 3.520000e-01    1.050000e+00
  TC2r  TC1e  1 3.400000e-01    2.020000e+00
  TP6q  TC2r  1 3.850000e-01    8.550000e-01
  TP5q  TC2r  1 3.660000e-01    9.350000e-01
  TP4q  TC2r  1 3.660000e-01    9.350000e-01
  TP3q  TC2r  1 3.660000e-01    9.350000e-01
  TP2q  TC2r  1 3.520000e-01    1.050000e+00
  TP1q  TC2r  1 3.520000e-01    1.050000e+00
  TN6q  TC2r  1 3.400000e-01    1.230000e+00
  TN5q  TC2r  1 3.400000e-01    1.230000e+00
  TN4q  TC2r  1 3.400000e-01    1.230000e+00
  TN3q  TC2r  1 3.400000e-01    1.510000e+00
  TN2q  TC2r  1 3.400000e-01    1.510000e+00
  TN1q  TC2r  1 3.400000e-01    1.510000e+00
  TC6q  TC2r  1 3.400000e-01    1.510000e+00
  TC5q  TC2r  1 3.400000e-01    1.510000e+00
  TC4q  TC2r  1 3.400000e-01    1.770000e+00
  TC3q  TC2r  1 3.400000e-01    2.020000e+00
  TC2r  TC2q  1 3.400000e-01    2.020000e+00
  TC2r  TX1q  1 3.400000e-01    1.770000e+00
  TC2r  TX2q  1 3.400000e-01    1.770000e+00
  TC2r  TX3q  1 3.400000e-01    1.770000e+00
  TC2r  TX4q  1 3.400000e-01    1.230000e+00
  TC2r  TC1q  1 3.400000e-01    2.280000e+00
  TP6d  TC1r  1 5.050000e-01    6.800000e-01
  TP5d  TC1r  1 4.240000e-01    7.760000e-01
  TP4d  TC1r  1 4.240000e-01    7.760000e-01
  TP3d  TC1r  1 4.240000e-01    7.760000e-01
  TP2d  TC1r  1 4.110000e-01    8.010000e-01
  TP1d  TC1r  1 4.110000e-01    8.010000e-01
  TN6d  TC1r  1 3.850000e-01    8.550000e-01
  TN5d  TC1r  1 3.850000e-01    8.550000e-01
  TN4d  TC1r  1 3.850000e-01    8.550000e-01
  TN3d  TC1r  1 3.660000e-01    9.350000e-01
  TN2d  TC1r  1 3.660000e-01    9.350000e-01
  TN1d  TC1r  1 3.660000e-01    9.350000e-01
  TP6a  TC1r  1 5.050000e-01    6.800000e-01
  TP5a  TC1r  1 4.240000e-01    7.760000e-01
  TP4a  TC1r  1 4.240000e-01    7.760000e-01
  TP3a  TC1r  1 4.240000e-01    7.760000e-01
  TP2a  TC1r  1 4.110000e-01    8.010000e-01
  TP1a  TC1r  1 4.110000e-01    8.010000e-01
  TN6a  TC1r  1 3.850000e-01    8.550000e-01
  TN5a  TC1r  1 3.850000e-01    8.550000e-01
  TN4a  TC1r  1 3.850000e-01    8.550000e-01
  TN3a  TC1r  1 3.660000e-01    9.350000e-01
  TN2a  TC1r  1 3.660000e-01    9.350000e-01
  TN1a  TC1r  1 3.660000e-01    9.350000e-01
  TC6v  TC1r  1 3.520000e-01    1.050000e+00
  TC5v  TC1r  1 3.400000e-01    1.230000e+00
  TC4v  TC1r  1 3.400000e-01    1.230000e+00
  TC3v  TC1r  1 3.400000e-01    1.770000e+00
  TC2v  TC1r  1 3.400000e-01    2.020000e+00
  TC1r  TC1v  1 3.400000e-01    1.770000e+00
  TC1r  TX1v  1 3.400000e-01    1.510000e+00
  TC1r  TX2v  1 3.400000e-01    1.510000e+00
  TC1r  TX3v  1 3.400000e-01    1.510000e+00
  TC1r  TX4v  1 3.520000e-01    1.050000e+00
  TC6e  TC1r  1 3.520000e-01    1.050000e+00
  TC5e  TC1r  1 3.400000e-01    1.230000e+00
  TC4e  TC1r  1 3.400000e-01    1.230000e+00
  TC3e  TC1r  1 3.400000e-01    1.770000e+00
  TC2e  TC1r  1 3.400000e-01    2.020000e+00
  TC1r  TC1e  1 3.400000e-01    1.770000e+00
  TC1r  TX1e  1 3.400000e-01    1.510000e+00
  TC1r  TX2e  1 3.400000e-01    1.510000e+00
  TC1r  TX3e  1 3.400000e-01    1.510000e+00
  TC1r  TX4e  1 3.520000e-01    1.050000e+00
  TP6q  TC1r  1 4.240000e-01    7.760000e-01
  TP5q  TC1r  1 3.850000e-01    8.550000e-01
  TP4q  TC1r  1 3.850000e-01    8.550000e-01
  TP3q  TC1r  1 3.850000e-01    8.550000e-01
  TP2q  TC1r  1 3.660000e-01    9.350000e-01
  TP1q  TC1r  1 3.660000e-01    9.350000e-01
  TN6q  TC1r  1 3.520000e-01    1.050000e+00
  TN5q  TC1r  1 3.520000e-01    1.050000e+00
  TN4q  TC1r  1 3.520000e-01    1.050000e+00
  TN3q  TC1r  1 3.400000e-01    1.230000e+00
  TN2q  TC1r  1 3.400000e-01    1.230000e+00
  TN1q  TC1r  1 3.400000e-01    1.230000e+00
  TC6q  TC1r  1 3.400000e-01    1.230000e+00
  TC5q  TC1r  1 3.400000e-01    1.510000e+00
  TC4q  TC1r  1 3.400000e-01    1.510000e+00
  TC3q  TC1r  1 3.400000e-01    2.020000e+00
  TC2q  TC1r  1 3.400000e-01    2.280000e+00
  TC1r  TC1q  1 3.400000e-01    2.020000e+00
  TC1r  TX1q  1 3.400000e-01    1.770000e+00
  TC1r  TX2q  1 3.400000e-01    1.770000e+00
  TC1r  TX3q  1 3.400000e-01    1.770000e+00
  TC1r  TX4q  1 3.400000e-01    1.230000e+00
  TP6d  TX4r  1 3.520000e-01    1.050000e+00
  TP5d  TX4r  1 3.400000e-01    1.230000e+00
  TP4d  TX4r  1 3.400000e-01    1.230000e+00
  TP3d  TX4r  1 3.400000e-01    1.230000e+00
  TP2d  TX4r  1 3.400000e-01    1.230000e+00
  TP1d  TX4r  1 3.400000e-01    1.230000e+00
  TN6d  TX4r  1 3.400000e-01    1.510000e+00
  TN5d  TX4r  1 3.400000e-01    1.770000e+00
  TN4d  TX4r  1 3.400000e-01    2.020000e+00
  TN3d  TX4r  1 3.400000e-01    1.770000e+00
  TN2d  TX4r  1 3.400000e-01    1.770000e+00
  TN1d  TX4r  1 3.400000e-01    1.510000e+00
  TP6a  TX4r  1 3.520000e-01    1.050000e+00
  TP5a  TX4r  1 3.400000e-01    1.230000e+00
  TP4a  TX4r  1 3.400000e-01    1.230000e+00
  TP3a  TX4r  1 3.400000e-01    1.230000e+00
  TP2a  TX4r  1 3.400000e-01    1.230000e+00
  TP1a  TX4r  1 3.400000e-01    1.230000e+00
  TN6a  TX4r  1 3.400000e-01    1.510000e+00
  TN5a  TX4r  1 3.400000e-01    1.770000e+00
  TN4a  TX4r  1 3.400000e-01    2.020000e+00
  TN3a  TX4r  1 3.400000e-01    1.770000e+00
  TN2a  TX4r  1 3.400000e-01    1.770000e+00
  TN1a  TX4r  1 3.400000e-01    1.510000e+00
  TC6v  TX4r  1 3.400000e-01    1.770000e+00
  TC5v  TX4r  1 3.400000e-01    1.510000e+00
  TC4v  TX4r  1 3.400000e-01    1.510000e+00
  TC3v  TX4r  1 3.400000e-01    1.510000e+00
  TC2v  TX4r  1 3.520000e-01    1.050000e+00
  TC1v  TX4r  1 3.520000e-01    1.050000e+00
  TX4r  TX4v  1 3.400000e-01    1.770000e+00
  TX4r  TX1v  1 3.400000e-01    1.770000e+00
  TX4r  TX2v  1 3.400000e-01    1.770000e+00
  TX4r  TX3v  1 3.400000e-01    1.770000e+00
  TC6e  TX4r  1 3.400000e-01    1.770000e+00
  TC5e  TX4r  1 3.400000e-01    1.510000e+00
  TC4e  TX4r  1 3.400000e-01    1.510000e+00
  TC3e  TX4r  1 3.400000e-01    1.510000e+00
  TC2e  TX4r  1 3.520000e-01    1.050000e+00
  TC1e  TX4r  1 3.520000e-01    1.050000e+00
  TX4r  TX4e  1 3.400000e-01    1.770000e+00
  TX4r  TX1e  1 3.400000e-01    1.770000e+00
  TX4r  TX2e  1 3.400000e-01    1.770000e+00
  TX4r  TX3e  1 3.400000e-01    1.770000e+00
  TP6q  TX4r  1 3.400000e-01    1.510000e+00
  TP5q  TX4r  1 3.400000e-01    1.770000e+00
  TP4q  TX4r  1 3.400000e-01    1.770000e+00
  TP3q  TX4r  1 3.400000e-01    1.770000e+00
  TP2q  TX4r  1 3.400000e-01    1.770000e+00
  TP1q  TX4r  1 3.400000e-01    1.770000e+00
  TN6q  TX4r  1 3.400000e-01    2.020000e+00
  TN5q  TX4r  1 3.400000e-01    2.280000e+00
  TN4q  TX4r  1 3.400000e-01    2.500000e+00
  TN3q  TX4r  1 3.400000e-01    2.280000e+00
  TN2q  TX4r  1 3.400000e-01    2.280000e+00
  TN1q  TX4r  1 3.400000e-01    2.020000e+00
  TC6q  TX4r  1 3.400000e-01    2.020000e+00
  TC5q  TX4r  1 3.400000e-01    1.770000e+00
  TC4q  TX4r  1 3.400000e-01    1.770000e+00
  TC3q  TX4r  1 3.400000e-01    1.770000e+00
  TC2q  TX4r  1 3.400000e-01    1.230000e+00
  TC1q  TX4r  1 3.400000e-01    1.230000e+00
  TX4r  TX4q  1 3.400000e-01    2.020000e+00
  TX4r  TX1q  1 3.400000e-01    2.020000e+00
  TX4r  TX2q  1 3.400000e-01    2.020000e+00
  TX4r  TX3q  1 3.400000e-01    2.020000e+00
  TP6d  TX3r  1 3.520000e-01    1.050000e+00
  TP5d  TX3r  1 3.520000e-01    1.050000e+00
  TP4d  TX3r  1 3.520000e-01    1.050000e+00
  TP3d  TX3r  1 3.400000e-01    1.230000e+00
  TP2d  TX3r  1 3.400000e-01    1.230000e+00
  TP1d  TX3r  1 3.400000e-01    1.230000e+00
  TN6d  TX3r  1 3.400000e-01    1.230000e+00
  TN5d  TX3r  1 3.400000e-01    1.510000e+00
  TN4d  TX3r  1 3.400000e-01    1.770000e+00
  TN3d  TX3r  1 3.400000e-01    1.510000e+00
  TN2d  TX3r  1 3.400000e-01    1.510000e+00
  TN1d  TX3r  1 3.400000e-01    1.510000e+00
  TP6a  TX3r  1 3.520000e-01    1.050000e+00
  TP5a  TX3r  1 3.520000e-01    1.050000e+00
  TP4a  TX3r  1 3.520000e-01    1.050000e+00
  TP3a  TX3r  1 3.400000e-01    1.230000e+00
  TP2a  TX3r  1 3.400000e-01    1.230000e+00
  TP1a  TX3r  1 3.400000e-01    1.230000e+00
  TN6a  TX3r  1 3.400000e-01    1.230000e+00
  TN5a  TX3r  1 3.400000e-01    1.510000e+00
  TN4a  TX3r  1 3.400000e-01    1.770000e+00
  TN3a  TX3r  1 3.400000e-01    1.510000e+00
  TN2a  TX3r  1 3.400000e-01    1.510000e+00
  TN1a  TX3r  1 3.400000e-01    1.510000e+00
  TC6v  TX3r  1 3.400000e-01    1.770000e+00
  TC5v  TX3r  1 3.400000e-01    1.510000e+00
  TC4v  TX3r  1 3.400000e-01    1.510000e+00
  TC3v  TX3r  1 3.400000e-01    1.510000e+00
  TC2v  TX3r  1 3.400000e-01    1.510000e+00
  TC1v  TX3r  1 3.400000e-01    1.510000e+00
  TX4v  TX3r  1 3.400000e-01    1.770000e+00
  TX3r  TX3v  1 3.400000e-01    1.770000e+00
  TX3r  TX1v  1 3.400000e-01    2.020000e+00
  TX3r  TX2v  1 3.400000e-01    2.020000e+00
  TC6e  TX3r  1 3.400000e-01    1.770000e+00
  TC5e  TX3r  1 3.400000e-01    1.510000e+00
  TC4e  TX3r  1 3.400000e-01    1.510000e+00
  TC3e  TX3r  1 3.400000e-01    1.510000e+00
  TC2e  TX3r  1 3.400000e-01    1.510000e+00
  TC1e  TX3r  1 3.400000e-01    1.510000e+00
  TX4e  TX3r  1 3.400000e-01    1.770000e+00
  TX3r  TX3e  1 3.400000e-01    1.770000e+00
  TX3r  TX1e  1 3.400000e-01    2.020000e+00
  TX3r  TX2e  1 3.400000e-01    2.020000e+00
  TP6q  TX3r  1 3.400000e-01    1.510000e+00
  TP5q  TX3r  1 3.400000e-01    1.510000e+00
  TP4q  TX3r  1 3.400000e-01    1.510000e+00
  TP3q  TX3r  1 3.400000e-01    1.770000e+00
  TP2q  TX3r  1 3.400000e-01    1.770000e+00
  TP1q  TX3r  1 3.400000e-01    1.770000e+00
  TN6q  TX3r  1 3.400000e-01    1.770000e+00
  TN5q  TX3r  1 3.400000e-01    2.020000e+00
  TN4q  TX3r  1 3.400000e-01    2.280000e+00
  TN3q  TX3r  1 3.400000e-01    2.020000e+00
  TN2q  TX3r  1 3.400000e-01    2.020000e+00
  TN1q  TX3r  1 3.400000e-01    2.020000e+00
  TC6q  TX3r  1 3.400000e-01    2.020000e+00
  TC5q  TX3r  1 3.400000e-01    1.770000e+00
  TC4q  TX3r  1 3.400000e-01    1.770000e+00
  TC3q  TX3r  1 3.400000e-01    1.770000e+00
  TC2q  TX3r  1 3.400000e-01    1.770000e+00
  TC1q  TX3r  1 3.400000e-01    1.770000e+00
  TX4q  TX3r  1 3.400000e-01    2.020000e+00
  TX3r  TX3q  1 3.400000e-01    2.020000e+00
  TX3r  TX1q  1 3.400000e-01    2.280000e+00
  TX3r  TX2q  1 3.400000e-01    2.280000e+00
  TP6d  TX2r  1 3.660000e-01    9.350000e-01
  TP5d  TX2r  1 3.520000e-01    1.050000e+00
  TP4d  TX2r  1 3.520000e-01    1.050000e+00
  TP3d  TX2r  1 3.520000e-01    1.050000e+00
  TP2d  TX2r  1 3.520000e-01    1.050000e+00
  TP1d  TX2r  1 3.520000e-01    1.050000e+00
  TN6d  TX2r  1 3.520000e-01    1.050000e+00
  TN5d  TX2r  1 3.400000e-01    1.230000e+00
  TN4d  TX2r  1 3.400000e-01    1.230000e+00
  TN3d  TX2r  1 3.400000e-01    1.230000e+00
  TN2d  TX2r  1 3.400000e-01    1.230000e+00
  TN1d  TX2r  1 3.400000e-01    1.230000e+00
  TP6a  TX2r  1 3.660000e-01    9.350000e-01
  TP5a  TX2r  1 3.520000e-01    1.050000e+00
  TP4a  TX2r  1 3.520000e-01    1.050000e+00
  TP3a  TX2r  1 3.520000e-01    1.050000e+00
  TP2a  TX2r  1 3.520000e-01    1.050000e+00
  TP1a  TX2r  1 3.520000e-01    1.050000e+00
  TN6a  TX2r  1 3.520000e-01    1.050000e+00
  TN5a  TX2r  1 3.400000e-01    1.230000e+00
  TN4a  TX2r  1 3.400000e-01    1.230000e+00
  TN3a  TX2r  1 3.400000e-01    1.230000e+00
  TN2a  TX2r  1 3.400000e-01    1.230000e+00
  TN1a  TX2r  1 3.400000e-01    1.230000e+00
  TC6v  TX2r  1 3.400000e-01    1.770000e+00
  TC5v  TX2r  1 3.400000e-01    1.510000e+00
  TC4v  TX2r  1 3.400000e-01    1.510000e+00
  TC3v  TX2r  1 3.400000e-01    1.510000e+00
  TC2v  TX2r  1 3.400000e-01    1.510000e+00
  TC1v  TX2r  1 3.400000e-01    1.510000e+00
  TX4v  TX2r  1 3.400000e-01    1.770000e+00
  TX3v  TX2r  1 3.400000e-01    2.020000e+00
  TX2r  TX2v  1 3.400000e-01    2.020000e+00
  TX2r  TX1v  1 3.400000e-01    2.020000e+00
  TC6e  TX2r  1 3.400000e-01    1.770000e+00
  TC5e  TX2r  1 3.400000e-01    1.510000e+00
  TC4e  TX2r  1 3.400000e-01    1.510000e+00
  TC3e  TX2r  1 3.400000e-01    1.510000e+00
  TC2e  TX2r  1 3.400000e-01    1.510000e+00
  TC1e  TX2r  1 3.400000e-01    1.510000e+00
  TX4e  TX2r  1 3.400000e-01    1.770000e+00
  TX3e  TX2r  1 3.400000e-01    2.020000e+00
  TX2r  TX2e  1 3.400000e-01    2.020000e+00
  TX2r  TX1e  1 3.400000e-01    2.020000e+00
  TP6q  TX2r  1 3.400000e-01    1.230000e+00
  TP5q  TX2r  1 3.400000e-01    1.510000e+00
  TP4q  TX2r  1 3.400000e-01    1.510000e+00
  TP3q  TX2r  1 3.400000e-01    1.510000e+00
  TP2q  TX2r  1 3.400000e-01    1.510000e+00
  TP1q  TX2r  1 3.400000e-01    1.510000e+00
  TN6q  TX2r  1 3.400000e-01    1.510000e+00
  TN5q  TX2r  1 3.400000e-01    1.770000e+00
  TN4q  TX2r  1 3.400000e-01    1.770000e+00
  TN3q  TX2r  1 3.400000e-01    1.770000e+00
  TN2q  TX2r  1 3.400000e-01    1.770000e+00
  TN1q  TX2r  1 3.400000e-01    1.770000e+00
  TC6q  TX2r  1 3.400000e-01    2.020000e+00
  TC5q  TX2r  1 3.400000e-01    1.770000e+00
  TC4q  TX2r  1 3.400000e-01    1.770000e+00
  TC3q  TX2r  1 3.400000e-01    1.770000e+00
  TC2q  TX2r  1 3.400000e-01    1.770000e+00
  TC1q  TX2r  1 3.400000e-01    1.770000e+00
  TX4q  TX2r  1 3.400000e-01    2.020000e+00
  TX3q  TX2r  1 3.400000e-01    2.280000e+00
  TX2r  TX2q  1 3.400000e-01    2.280000e+00
  TX2r  TX1q  1 3.400000e-01    2.280000e+00
  TP6d  TX1r  1 3.850000e-01    8.550000e-01
  TP5d  TX1r  1 3.850000e-01    8.550000e-01
  TP4d  TX1r  1 3.660000e-01    9.350000e-01
  TP3d  TX1r  1 3.660000e-01    9.350000e-01
  TP2d  TX1r  1 3.660000e-01    9.350000e-01
  TP1d  TX1r  1 3.660000e-01    9.350000e-01
  TN6d  TX1r  1 3.660000e-01    9.350000e-01
  TN5d  TX1r  1 3.520000e-01    1.050000e+00
  TN4d  TX1r  1 3.520000e-01    1.050000e+00
  TN3d  TX1r  1 3.400000e-01    1.230000e+00
  TN2d  TX1r  1 3.400000e-01    1.230000e+00
  TN1d  TX1r  1 3.400000e-01    1.230000e+00
  TP6a  TX1r  1 3.850000e-01    8.550000e-01
  TP5a  TX1r  1 3.850000e-01    8.550000e-01
  TP4a  TX1r  1 3.660000e-01    9.350000e-01
  TP3a  TX1r  1 3.660000e-01    9.350000e-01
  TP2a  TX1r  1 3.660000e-01    9.350000e-01
  TP1a  TX1r  1 3.660000e-01    9.350000e-01
  TN6a  TX1r  1 3.660000e-01    9.350000e-01
  TN5a  TX1r  1 3.520000e-01    1.050000e+00
  TN4a  TX1r  1 3.520000e-01    1.050000e+00
  TN3a  TX1r  1 3.400000e-01    1.230000e+00
  TN2a  TX1r  1 3.400000e-01    1.230000e+00
  TN1a  TX1r  1 3.400000e-01    1.230000e+00
  TC6v  TX1r  1 3.400000e-01    1.770000e+00
  TC5v  TX1r  1 3.400000e-01    1.770000e+00
  TC4v  TX1r  1 3.400000e-01    1.770000e+00
  TC3v  TX1r  1 3.400000e-01    1.770000e+00
  TC2v  TX1r  1 3.400000e-01    1.510000e+00
  TC1v  TX1r  1 3.400000e-01    1.510000e+00
  TX4v  TX1r  1 3.400000e-01    1.770000e+00
  TX3v  TX1r  1 3.400000e-01    2.020000e+00
  TX2v  TX1r  1 3.400000e-01    2.020000e+00
  TX1r  TX1v  1 3.400000e-01    2.280000e+00
  TC6e  TX1r  1 3.400000e-01    1.770000e+00
  TC5e  TX1r  1 3.400000e-01    1.770000e+00
  TC4e  TX1r  1 3.400000e-01    1.770000e+00
  TC3e  TX1r  1 3.400000e-01    1.770000e+00
  TC2e  TX1r  1 3.400000e-01    1.510000e+00
  TC1e  TX1r  1 3.400000e-01    1.510000e+00
  TX4e  TX1r  1 3.400000e-01    1.770000e+00
  TX3e  TX1r  1 3.400000e-01    2.020000e+00
  TX2e  TX1r  1 3.400000e-01    2.020000e+00
  TX1r  TX1e  1 3.400000e-01    2.280000e+00
  TP6q  TX1r  1 3.520000e-01    1.050000e+00
  TP5q  TX1r  1 3.520000e-01    1.050000e+00
  TP4q  TX1r  1 3.400000e-01    1.230000e+00
  TP3q  TX1r  1 3.400000e-01    1.230000e+00
  TP2q  TX1r  1 3.400000e-01    1.230000e+00
  TP1q  TX1r  1 3.400000e-01    1.230000e+00
  TN6q  TX1r  1 3.400000e-01    1.230000e+00
  TN5q  TX1r  1 3.400000e-01    1.510000e+00
  TN4q  TX1r  1 3.400000e-01    1.510000e+00
  TN3q  TX1r  1 3.400000e-01    1.770000e+00
  TN2q  TX1r  1 3.400000e-01    1.770000e+00
  TN1q  TX1r  1 3.400000e-01    1.770000e+00
  TC6q  TX1r  1 3.400000e-01    2.020000e+00
  TC5q  TX1r  1 3.400000e-01    2.020000e+00
  TC4q  TX1r  1 3.400000e-01    2.020000e+00
  TC3q  TX1r  1 3.400000e-01    2.020000e+00
  TC2q  TX1r  1 3.400000e-01    1.770000e+00
  TC1q  TX1r  1 3.400000e-01    1.770000e+00
  TX4q  TX1r  1 3.400000e-01    2.020000e+00
  TX3q  TX1r  1 3.400000e-01    2.280000e+00
  TX2q  TX1r  1 3.400000e-01    2.280000e+00
  TX1r  TX1q  1 3.400000e-01    2.500000e+00
 TP6dr TP6dq  1 3.400000e-01    3.750000e+00
 TP6dr TN1dq  1 3.400000e-01    1.230000e+00
 TP6dr TN2dq  1 3.400000e-01    1.510000e+00
 TP6dr TN3dq  1 3.400000e-01    1.770000e+00
 TP6dr TN4dq  1 3.400000e-01    1.770000e+00
 TP6dr TN5dq  1 3.400000e-01    2.020000e+00
 TP6dr TN6dq  1 3.400000e-01    2.500000e+00
 TP6dr TP1dq  1 3.400000e-01    2.740000e+00
 TP6dr TP2dq  1 3.400000e-01    2.990000e+00
 TP6dr TP3dq  1 3.400000e-01    2.990000e+00
 TP6dr TP4dq  1 3.400000e-01    3.220000e+00
 TP6dr TP5dq  1 3.400000e-01    3.470000e+00
 TP6dq TP5dr  1 3.400000e-01    3.470000e+00
 TP5dr TP5dq  1 3.400000e-01    3.220000e+00
 TP5dr TN1dq  1 3.400000e-01    1.230000e+00
 TP5dr TN2dq  1 3.400000e-01    1.510000e+00
 TP5dr TN3dq  1 3.400000e-01    1.770000e+00
 TP5dr TN4dq  1 3.400000e-01    2.020000e+00
 TP5dr TN5dq  1 3.400000e-01    2.020000e+00
 TP5dr TN6dq  1 3.400000e-01    2.280000e+00
 TP5dr TP1dq  1 3.400000e-01    2.500000e+00
 TP5dr TP2dq  1 3.400000e-01    2.740000e+00
 TP5dr TP3dq  1 3.400000e-01    2.740000e+00
 TP5dr TP4dq  1 3.400000e-01    2.990000e+00
 TP6dq TP4dr  1 3.400000e-01    3.220000e+00
 TP5dq TP4dr  1 3.400000e-01    2.990000e+00
 TP4dr TP4dq  1 3.400000e-01    2.990000e+00
 TP4dr TN1dq  1 3.400000e-01    1.510000e+00
 TP4dr TN2dq  1 3.400000e-01    1.770000e+00
 TP4dr TN3dq  1 3.400000e-01    1.770000e+00
 TP4dr TN4dq  1 3.400000e-01    2.020000e+00
 TP4dr TN5dq  1 3.400000e-01    2.020000e+00
 TP4dr TN6dq  1 3.400000e-01    2.280000e+00
 TP4dr TP1dq  1 3.400000e-01    2.500000e+00
 TP4dr TP2dq  1 3.400000e-01    2.740000e+00
 TP4dr TP3dq  1 3.400000e-01    2.740000e+00
 TP6dq TP3dr  1 3.400000e-01    2.990000e+00
 TP5dq TP3dr  1 3.400000e-01    2.740000e+00
 TP4dq TP3dr  1 3.400000e-01    2.740000e+00
 TP3dr TP3dq  1 3.400000e-01    2.740000e+00
 TP3dr TN1dq  1 3.400000e-01    1.770000e+00
 TP3dr TN2dq  1 3.400000e-01    1.770000e+00
 TP3dr TN3dq  1 3.400000e-01    1.770000e+00
 TP3dr TN4dq  1 3.400000e-01    2.020000e+00
 TP3dr TN5dq  1 3.400000e-01    2.020000e+00
 TP3dr TN6dq  1 3.400000e-01    2.280000e+00
 TP3dr TP1dq  1 3.400000e-01    2.500000e+00
 TP3dr TP2dq  1 3.400000e-01    2.740000e+00
 TP6dq TP2dr  1 3.400000e-01    2.990000e+00
 TP5dq TP2dr  1 3.400000e-01    2.740000e+00
 TP4dq TP2dr  1 3.400000e-01    2.740000e+00
 TP3dq TP2dr  1 3.400000e-01    2.740000e+00
 TP2dr TP2dq  1 3.400000e-01    2.740000e+00
 TP2dr TN1dq  1 3.400000e-01    1.770000e+00
 TP2dr TN2dq  1 3.400000e-01    1.770000e+00
 TP2dr TN3dq  1 3.400000e-01    1.770000e+00
 TP2dr TN4dq  1 3.400000e-01    2.020000e+00
 TP2dr TN5dq  1 3.400000e-01    2.280000e+00
 TP2dr TN6dq  1 3.400000e-01    2.500000e+00
 TP2dr TP1dq  1 3.400000e-01    2.500000e+00
 TP6dq TP1dr  1 3.400000e-01    2.740000e+00
 TP5dq TP1dr  1 3.400000e-01    2.500000e+00
 TP4dq TP1dr  1 3.400000e-01    2.500000e+00
 TP3dq TP1dr  1 3.400000e-01    2.500000e+00
 TP2dq TP1dr  1 3.400000e-01    2.500000e+00
 TP1dr TP1dq  1 3.400000e-01    2.500000e+00
 TP1dr TN1dq  1 3.400000e-01    1.770000e+00
 TP1dr TN2dq  1 3.400000e-01    1.770000e+00
 TP1dr TN3dq  1 3.400000e-01    1.770000e+00
 TP1dr TN4dq  1 3.400000e-01    2.280000e+00
 TP1dr TN5dq  1 3.400000e-01    2.280000e+00
 TP1dr TN6dq  1 3.400000e-01    2.500000e+00
 TP6dq TN6dr  1 3.400000e-01    2.500000e+00
 TP5dq TN6dr  1 3.400000e-01    2.280000e+00
 TP4dq TN6dr  1 3.400000e-01    2.280000e+00
 TP3dq TN6dr  1 3.400000e-01    2.280000e+00
 TP2dq TN6dr  1 3.400000e-01    2.500000e+00
 TP1dq TN6dr  1 3.400000e-01    2.500000e+00
 TN6dr TN6dq  1 3.400000e-01    2.500000e+00
 TN6dr TN1dq  1 3.400000e-01    1.770000e+00
 TN6dr TN2dq  1 3.400000e-01    1.770000e+00
 TN6dr TN3dq  1 3.400000e-01    2.020000e+00
 TN6dr TN4dq  1 3.400000e-01    2.500000e+00
 TN6dr TN5dq  1 3.400000e-01    2.500000e+00
 TP6dq TN5dr  1 3.400000e-01    2.020000e+00
 TP5dq TN5dr  1 3.400000e-01    2.020000e+00
 TP4dq TN5dr  1 3.400000e-01    2.020000e+00
 TP3dq TN5dr  1 3.400000e-01    2.020000e+00
 TP2dq TN5dr  1 3.400000e-01    2.280000e+00
 TP1dq TN5dr  1 3.400000e-01    2.280000e+00
 TN6dq TN5dr  1 3.400000e-01    2.500000e+00
 TN5dr TN5dq  1 3.400000e-01    2.280000e+00
 TN5dr TN1dq  1 3.400000e-01    1.770000e+00
 TN5dr TN2dq  1 3.400000e-01    2.020000e+00
 TN5dr TN3dq  1 3.400000e-01    2.020000e+00
 TN5dr TN4dq  1 3.400000e-01    2.280000e+00
 TP6dq TN4dr  1 3.400000e-01    1.770000e+00
 TP5dq TN4dr  1 3.400000e-01    2.020000e+00
 TP4dq TN4dr  1 3.400000e-01    2.020000e+00
 TP3dq TN4dr  1 3.400000e-01    2.020000e+00
 TP2dq TN4dr  1 3.400000e-01    2.020000e+00
 TP1dq TN4dr  1 3.400000e-01    2.280000e+00
 TN6dq TN4dr  1 3.400000e-01    2.500000e+00
 TN5dq TN4dr  1 3.400000e-01    2.280000e+00
 TN4dr TN4dq  1 3.400000e-01    2.280000e+00
 TN4dr TN1dq  1 3.400000e-01    1.770000e+00
 TN4dr TN2dq  1 3.400000e-01    2.020000e+00
 TN4dr TN3dq  1 3.400000e-01    2.020000e+00
 TP6dq TN3dr  1 3.400000e-01    1.770000e+00
 TP5dq TN3dr  1 3.400000e-01    1.770000e+00
 TP4dq TN3dr  1 3.400000e-01    1.770000e+00
 TP3dq TN3dr  1 3.400000e-01    1.770000e+00
 TP2dq TN3dr  1 3.400000e-01    1.770000e+00
 TP1dq TN3dr  1 3.400000e-01    1.770000e+00
 TN6dq TN3dr  1 3.400000e-01    2.020000e+00
 TN5dq TN3dr  1 3.400000e-01    2.020000e+00
 TN4dq TN3dr  1 3.400000e-01    2.020000e+00
 TN3dr TN3dq  1 3.400000e-01    2.020000e+00
 TN3dr TN1dq  1 3.400000e-01    1.770000e+00
 TN3dr TN2dq  1 3.400000e-01    2.020000e+00
 TP6dq TN2dr  1 3.400000e-01    1.510000e+00
 TP5dq TN2dr  1 3.400000e-01    1.510000e+00
 TP4dq TN2dr  1 3.400000e-01    1.770000e+00
 TP3dq TN2dr  1 3.400000e-01    1.770000e+00
 TP2dq TN2dr  1 3.400000e-01    1.770000e+00
 TP1dq TN2dr  1 3.400000e-01    1.770000e+00
 TN6dq TN2dr  1 3.400000e-01    1.770000e+00
 TN5dq TN2dr  1 3.400000e-01    2.020000e+00
 TN4dq TN2dr  1 3.400000e-01    2.020000e+00
 TN3dq TN2dr  1 3.400000e-01    2.020000e+00
 TN2dr TN2dq  1 3.400000e-01    2.020000e+00
 TN2dr TN1dq  1 3.400000e-01    1.770000e+00
 TP6dq TN1dr  1 3.400000e-01    1.230000e+00
 TP5dq TN1dr  1 3.400000e-01    1.230000e+00
 TP4dq TN1dr  1 3.400000e-01    1.510000e+00
 TP3dq TN1dr  1 3.400000e-01    1.770000e+00
 TP2dq TN1dr  1 3.400000e-01    1.770000e+00
 TP1dq TN1dr  1 3.400000e-01    1.770000e+00
 TN6dq TN1dr  1 3.400000e-01    1.770000e+00
 TN5dq TN1dr  1 3.400000e-01    1.770000e+00
 TN4dq TN1dr  1 3.400000e-01    1.770000e+00
 TN3dq TN1dr  1 3.400000e-01    1.770000e+00
 TN2dq TN1dr  1 3.400000e-01    1.770000e+00
 TN1dr TN1dq  1 3.400000e-01    2.020000e+00
 TP6ar TP6aq  1 3.400000e-01    3.750000e+00
 TP6ar TN1aq  1 3.400000e-01    1.230000e+00
 TP6ar TN2aq  1 3.400000e-01    1.510000e+00
 TP6ar TN3aq  1 3.400000e-01    1.770000e+00
 TP6ar TN4aq  1 3.400000e-01    1.770000e+00
 TP6ar TN5aq  1 3.400000e-01    2.020000e+00
 TP6ar TN6aq  1 3.400000e-01    2.500000e+00
 TP6ar TP1aq  1 3.400000e-01    2.740000e+00
 TP6ar TP2aq  1 3.400000e-01    2.990000e+00
 TP6ar TP3aq  1 3.400000e-01    2.990000e+00
 TP6ar TP4aq  1 3.400000e-01    3.220000e+00
 TP6ar TP5aq  1 3.400000e-01    3.470000e+00
 TP6aq TP5ar  1 3.400000e-01    3.470000e+00
 TP5ar TP5aq  1 3.400000e-01    3.220000e+00
 TP5ar TN1aq  1 3.400000e-01    1.230000e+00
 TP5ar TN2aq  1 3.400000e-01    1.510000e+00
 TP5ar TN3aq  1 3.400000e-01    1.770000e+00
 TP5ar TN4aq  1 3.400000e-01    2.020000e+00
 TP5ar TN5aq  1 3.400000e-01    2.020000e+00
 TP5ar TN6aq  1 3.400000e-01    2.280000e+00
 TP5ar TP1aq  1 3.400000e-01    2.500000e+00
 TP5ar TP2aq  1 3.400000e-01    2.740000e+00
 TP5ar TP3aq  1 3.400000e-01    2.740000e+00
 TP5ar TP4aq  1 3.400000e-01    2.990000e+00
 TP6aq TP4ar  1 3.400000e-01    3.220000e+00
 TP5aq TP4ar  1 3.400000e-01    2.990000e+00
 TP4ar TP4aq  1 3.400000e-01    2.990000e+00
 TP4ar TN1aq  1 3.400000e-01    1.510000e+00
 TP4ar TN2aq  1 3.400000e-01    1.770000e+00
 TP4ar TN3aq  1 3.400000e-01    1.770000e+00
 TP4ar TN4aq  1 3.400000e-01    2.020000e+00
 TP4ar TN5aq  1 3.400000e-01    2.020000e+00
 TP4ar TN6aq  1 3.400000e-01    2.280000e+00
 TP4ar TP1aq  1 3.400000e-01    2.500000e+00
 TP4ar TP2aq  1 3.400000e-01    2.740000e+00
 TP4ar TP3aq  1 3.400000e-01    2.740000e+00
 TP6aq TP3ar  1 3.400000e-01    2.990000e+00
 TP5aq TP3ar  1 3.400000e-01    2.740000e+00
 TP4aq TP3ar  1 3.400000e-01    2.740000e+00
 TP3ar TP3aq  1 3.400000e-01    2.740000e+00
 TP3ar TN1aq  1 3.400000e-01    1.770000e+00
 TP3ar TN2aq  1 3.400000e-01    1.770000e+00
 TP3ar TN3aq  1 3.400000e-01    1.770000e+00
 TP3ar TN4aq  1 3.400000e-01    2.020000e+00
 TP3ar TN5aq  1 3.400000e-01    2.020000e+00
 TP3ar TN6aq  1 3.400000e-01    2.280000e+00
 TP3ar TP1aq  1 3.400000e-01    2.500000e+00
 TP3ar TP2aq  1 3.400000e-01    2.740000e+00
 TP6aq TP2ar  1 3.400000e-01    2.990000e+00
 TP5aq TP2ar  1 3.400000e-01    2.740000e+00
 TP4aq TP2ar  1 3.400000e-01    2.740000e+00
 TP3aq TP2ar  1 3.400000e-01    2.740000e+00
 TP2ar TP2aq  1 3.400000e-01    2.740000e+00
 TP2ar TN1aq  1 3.400000e-01    1.770000e+00
 TP2ar TN2aq  1 3.400000e-01    1.770000e+00
 TP2ar TN3aq  1 3.400000e-01    1.770000e+00
 TP2ar TN4aq  1 3.400000e-01    2.020000e+00
 TP2ar TN5aq  1 3.400000e-01    2.280000e+00
 TP2ar TN6aq  1 3.400000e-01    2.500000e+00
 TP2ar TP1aq  1 3.400000e-01    2.500000e+00
 TP6aq TP1ar  1 3.400000e-01    2.740000e+00
 TP5aq TP1ar  1 3.400000e-01    2.500000e+00
 TP4aq TP1ar  1 3.400000e-01    2.500000e+00
 TP3aq TP1ar  1 3.400000e-01    2.500000e+00
 TP2aq TP1ar  1 3.400000e-01    2.500000e+00
 TP1ar TP1aq  1 3.400000e-01    2.500000e+00
 TP1ar TN1aq  1 3.400000e-01    1.770000e+00
 TP1ar TN2aq  1 3.400000e-01    1.770000e+00
 TP1ar TN3aq  1 3.400000e-01    1.770000e+00
 TP1ar TN4aq  1 3.400000e-01    2.280000e+00
 TP1ar TN5aq  1 3.400000e-01    2.280000e+00
 TP1ar TN6aq  1 3.400000e-01    2.500000e+00
 TP6aq TN6ar  1 3.400000e-01    2.500000e+00
 TP5aq TN6ar  1 3.400000e-01    2.280000e+00
 TP4aq TN6ar  1 3.400000e-01    2.280000e+00
 TP3aq TN6ar  1 3.400000e-01    2.280000e+00
 TP2aq TN6ar  1 3.400000e-01    2.500000e+00
 TP1aq TN6ar  1 3.400000e-01    2.500000e+00
 TN6ar TN6aq  1 3.400000e-01    2.500000e+00
 TN6ar TN1aq  1 3.400000e-01    1.770000e+00
 TN6ar TN2aq  1 3.400000e-01    1.770000e+00
 TN6ar TN3aq  1 3.400000e-01    2.020000e+00
 TN6ar TN4aq  1 3.400000e-01    2.500000e+00
 TN6ar TN5aq  1 3.400000e-01    2.500000e+00
 TP6aq TN5ar  1 3.400000e-01    2.020000e+00
 TP5aq TN5ar  1 3.400000e-01    2.020000e+00
 TP4aq TN5ar  1 3.400000e-01    2.020000e+00
 TP3aq TN5ar  1 3.400000e-01    2.020000e+00
 TP2aq TN5ar  1 3.400000e-01    2.280000e+00
 TP1aq TN5ar  1 3.400000e-01    2.280000e+00
 TN6aq TN5ar  1 3.400000e-01    2.500000e+00
 TN5ar TN5aq  1 3.400000e-01    2.280000e+00
 TN5ar TN1aq  1 3.400000e-01    1.770000e+00
 TN5ar TN2aq  1 3.400000e-01    2.020000e+00
 TN5ar TN3aq  1 3.400000e-01    2.020000e+00
 TN5ar TN4aq  1 3.400000e-01    2.280000e+00
 TP6aq TN4ar  1 3.400000e-01    1.770000e+00
 TP5aq TN4ar  1 3.400000e-01    2.020000e+00
 TP4aq TN4ar  1 3.400000e-01    2.020000e+00
 TP3aq TN4ar  1 3.400000e-01    2.020000e+00
 TP2aq TN4ar  1 3.400000e-01    2.020000e+00
 TP1aq TN4ar  1 3.400000e-01    2.280000e+00
 TN6aq TN4ar  1 3.400000e-01    2.500000e+00
 TN5aq TN4ar  1 3.400000e-01    2.280000e+00
 TN4ar TN4aq  1 3.400000e-01    2.280000e+00
 TN4ar TN1aq  1 3.400000e-01    1.770000e+00
 TN4ar TN2aq  1 3.400000e-01    2.020000e+00
 TN4ar TN3aq  1 3.400000e-01    2.020000e+00
 TP6aq TN3ar  1 3.400000e-01    1.770000e+00
 TP5aq TN3ar  1 3.400000e-01    1.770000e+00
 TP4aq TN3ar  1 3.400000e-01    1.770000e+00
 TP3aq TN3ar  1 3.400000e-01    1.770000e+00
 TP2aq TN3ar  1 3.400000e-01    1.770000e+00
 TP1aq TN3ar  1 3.400000e-01    1.770000e+00
 TN6aq TN3ar  1 3.400000e-01    2.020000e+00
 TN5aq TN3ar  1 3.400000e-01    2.020000e+00
 TN4aq TN3ar  1 3.400000e-01    2.020000e+00
 TN3ar TN3aq  1 3.400000e-01    2.020000e+00
 TN3ar TN1aq  1 3.400000e-01    1.770000e+00
 TN3ar TN2aq  1 3.400000e-01    2.020000e+00
 TP6aq TN2ar  1 3.400000e-01    1.510000e+00
 TP5aq TN2ar  1 3.400000e-01    1.510000e+00
 TP4aq TN2ar  1 3.400000e-01    1.770000e+00
 TP3aq TN2ar  1 3.400000e-01    1.770000e+00
 TP2aq TN2ar  1 3.400000e-01    1.770000e+00
 TP1aq TN2ar  1 3.400000e-01    1.770000e+00
 TN6aq TN2ar  1 3.400000e-01    1.770000e+00
 TN5aq TN2ar  1 3.400000e-01    2.020000e+00
 TN4aq TN2ar  1 3.400000e-01    2.020000e+00
 TN3aq TN2ar  1 3.400000e-01    2.020000e+00
 TN2ar TN2aq  1 3.400000e-01    2.020000e+00
 TN2ar TN1aq  1 3.400000e-01    1.770000e+00
 TP6aq TN1ar  1 3.400000e-01    1.230000e+00
 TP5aq TN1ar  1 3.400000e-01    1.230000e+00
 TP4aq TN1ar  1 3.400000e-01    1.510000e+00
 TP3aq TN1ar  1 3.400000e-01    1.770000e+00
 TP2aq TN1ar  1 3.400000e-01    1.770000e+00
 TP1aq TN1ar  1 3.400000e-01    1.770000e+00
 TN6aq TN1ar  1 3.400000e-01    1.770000e+00
 TN5aq TN1ar  1 3.400000e-01    1.770000e+00
 TN4aq TN1ar  1 3.400000e-01    1.770000e+00
 TN3aq TN1ar  1 3.400000e-01    1.770000e+00
 TN2aq TN1ar  1 3.400000e-01    1.770000e+00
 TN1ar TN1aq  1 3.400000e-01    2.020000e+00
  TP6r  TP6r  1 3.400000e-01    3.220000e+00
  TP5r  TP5r  1 3.400000e-01    2.740000e+00
  TP4r  TP4r  1 3.400000e-01    2.500000e+00
  TP3r  TP3r  1 3.400000e-01    2.280000e+00
  TP2r  TP2r  1 3.400000e-01    2.280000e+00
  TP1r  TP1r  1 3.400000e-01    2.020000e+00
  TN6r  TN6r  1 3.400000e-01    2.020000e+00
  TN5r  TN5r  1 3.400000e-01    1.770000e+00
  TN4r  TN4r  1 3.400000e-01    1.770000e+00
  TN3r  TN3r  1 3.400000e-01    1.510000e+00
  TN2r  TN2r  1 3.400000e-01    1.510000e+00
  TN1r  TN1r  1 3.400000e-01    1.510000e+00
 TP6dr TP6dr  1 3.400000e-01    2.990000e+00
 TP5dr TP5dr  1 3.400000e-01    2.500000e+00
 TP4dr TP4dr  1 3.400000e-01    2.280000e+00
 TP3dr TP3dr  1 3.400000e-01    2.020000e+00
 TP2dr TP2dr  1 3.400000e-01    2.020000e+00
 TP1dr TP1dr  1 3.400000e-01    1.770000e+00
 TN6dr TN6dr  1 3.400000e-01    1.770000e+00
 TN5dr TN5dr  1 3.400000e-01    1.510000e+00
 TN4dr TN4dr  1 3.400000e-01    1.510000e+00
 TN3dr TN3dr  1 3.400000e-01    1.230000e+00
 TN2dr TN2dr  1 3.400000e-01    1.230000e+00
 TN1dr TN1dr  1 3.400000e-01    1.230000e+00
 TP6ar TP6ar  1 3.400000e-01    2.990000e+00
 TP5ar TP5ar  1 3.400000e-01    2.500000e+00
 TP4ar TP4ar  1 3.400000e-01    2.280000e+00
 TP3ar TP3ar  1 3.400000e-01    2.020000e+00
 TP2ar TP2ar  1 3.400000e-01    2.020000e+00
 TP1ar TP1ar  1 3.400000e-01    1.770000e+00
 TN6ar TN6ar  1 3.400000e-01    1.770000e+00
 TN5ar TN5ar  1 3.400000e-01    1.510000e+00
 TN4ar TN4ar  1 3.400000e-01    1.510000e+00
 TN3ar TN3ar  1 3.400000e-01    1.230000e+00
 TN2ar TN2ar  1 3.400000e-01    1.230000e+00
 TN1ar TN1ar  1 3.400000e-01    1.230000e+00
  TP6r  TP5r  1 3.400000e-01    2.990000e+00
  TP6r  TP4r  1 3.400000e-01    2.740000e+00
  TP6r  TP3r  1 3.400000e-01    2.500000e+00
  TP6r  TP2r  1 3.400000e-01    2.500000e+00
  TP6r  TP1r  1 3.400000e-01    2.280000e+00
  TP6r  TN6r  1 3.400000e-01    2.020000e+00
  TP6r  TN5r  1 3.400000e-01    1.510000e+00
  TP6r  TN4r  1 3.400000e-01    1.230000e+00
  TP6r  TN3r  1 3.520000e-01    1.050000e+00
  TP6r  TN2r  1 3.660000e-01    9.350000e-01
  TP6r  TN1r  1 3.850000e-01    8.550000e-01
  TP5r  TP4r  1 3.400000e-01    2.500000e+00
  TP5r  TP3r  1 3.400000e-01    2.280000e+00
  TP5r  TP2r  1 3.400000e-01    2.280000e+00
  TP5r  TP1r  1 3.400000e-01    2.020000e+00
  TP5r  TN6r  1 3.400000e-01    1.770000e+00
  TP5r  TN5r  1 3.400000e-01    1.510000e+00
  TP5r  TN4r  1 3.400000e-01    1.510000e+00
  TP5r  TN3r  1 3.520000e-01    1.050000e+00
  TP5r  TN2r  1 3.660000e-01    9.350000e-01
  TP5r  TN1r  1 3.850000e-01    8.550000e-01
  TP4r  TP3r  1 3.400000e-01    2.280000e+00
  TP4r  TP2r  1 3.400000e-01    2.280000e+00
  TP4r  TP1r  1 3.400000e-01    2.020000e+00
  TP4r  TN6r  1 3.400000e-01    1.770000e+00
  TP4r  TN5r  1 3.400000e-01    1.510000e+00
  TP4r  TN4r  1 3.400000e-01    1.510000e+00
  TP4r  TN3r  1 3.400000e-01    1.230000e+00
  TP4r  TN2r  1 3.520000e-01    1.050000e+00
  TP4r  TN1r  1 3.660000e-01    9.350000e-01
  TP3r  TP2r  1 3.400000e-01    2.280000e+00
  TP3r  TP1r  1 3.400000e-01    2.020000e+00
  TP3r  TN6r  1 3.400000e-01    1.770000e+00
  TP3r  TN5r  1 3.400000e-01    1.510000e+00
  TP3r  TN4r  1 3.400000e-01    1.510000e+00
  TP3r  TN3r  1 3.400000e-01    1.230000e+00
  TP3r  TN2r  1 3.400000e-01    1.230000e+00
  TP3r  TN1r  1 3.520000e-01    1.050000e+00
  TP2r  TP1r  1 3.400000e-01    2.020000e+00
  TP2r  TN6r  1 3.400000e-01    2.020000e+00
  TP2r  TN5r  1 3.400000e-01    1.770000e+00
  TP2r  TN4r  1 3.400000e-01    1.510000e+00
  TP2r  TN3r  1 3.400000e-01    1.230000e+00
  TP2r  TN2r  1 3.400000e-01    1.230000e+00
  TP2r  TN1r  1 3.400000e-01    1.230000e+00
  TP1r  TN6r  1 3.400000e-01    2.020000e+00
  TP1r  TN5r  1 3.400000e-01    1.770000e+00
  TP1r  TN4r  1 3.400000e-01    1.770000e+00
  TP1r  TN3r  1 3.400000e-01    1.230000e+00
  TP1r  TN2r  1 3.400000e-01    1.230000e+00
  TP1r  TN1r  1 3.400000e-01    1.230000e+00
  TN6r  TN5r  1 3.400000e-01    2.020000e+00
  TN6r  TN4r  1 3.400000e-01    2.020000e+00
  TN6r  TN3r  1 3.400000e-01    1.510000e+00
  TN6r  TN2r  1 3.400000e-01    1.230000e+00
  TN6r  TN1r  1 3.400000e-01    1.230000e+00
  TN5r  TN4r  1 3.400000e-01    1.770000e+00
  TN5r  TN3r  1 3.400000e-01    1.510000e+00
  TN5r  TN2r  1 3.400000e-01    1.510000e+00
  TN5r  TN1r  1 3.400000e-01    1.230000e+00
  TN4r  TN3r  1 3.400000e-01    1.510000e+00
  TN4r  TN2r  1 3.400000e-01    1.510000e+00
  TN4r  TN1r  1 3.400000e-01    1.230000e+00
  TN3r  TN2r  1 3.400000e-01    1.510000e+00
  TN3r  TN1r  1 3.400000e-01    1.230000e+00
  TN2r  TN1r  1 3.400000e-01    1.230000e+00
 TP6dr TP5dr  1 3.400000e-01    2.740000e+00
 TP6dr TP4dr  1 3.400000e-01    2.500000e+00
 TP6dr TP3dr  1 3.400000e-01    2.280000e+00
 TP6dr TP2dr  1 3.400000e-01    2.280000e+00
 TP6dr TP1dr  1 3.400000e-01    2.020000e+00
 TP6dr TN6dr  1 3.400000e-01    1.770000e+00
 TP6dr TN5dr  1 3.400000e-01    1.230000e+00
 TP6dr TN4dr  1 3.520000e-01    1.050000e+00
 TP6dr TN3dr  1 3.520000e-01    1.050000e+00
 TP6dr TN2dr  1 3.660000e-01    9.350000e-01
 TP6dr TN1dr  1 3.850000e-01    8.550000e-01
 TP5dr TP4dr  1 3.400000e-01    2.280000e+00
 TP5dr TP3dr  1 3.400000e-01    2.020000e+00
 TP5dr TP2dr  1 3.400000e-01    2.020000e+00
 TP5dr TP1dr  1 3.400000e-01    1.770000e+00
 TP5dr TN6dr  1 3.400000e-01    1.510000e+00
 TP5dr TN5dr  1 3.400000e-01    1.230000e+00
 TP5dr TN4dr  1 3.400000e-01    1.230000e+00
 TP5dr TN3dr  1 3.520000e-01    1.050000e+00
 TP5dr TN2dr  1 3.660000e-01    9.350000e-01
 TP5dr TN1dr  1 3.850000e-01    8.550000e-01
 TP4dr TP3dr  1 3.400000e-01    2.020000e+00
 TP4dr TP2dr  1 3.400000e-01    2.020000e+00
 TP4dr TP1dr  1 3.400000e-01    1.770000e+00
 TP4dr TN6dr  1 3.400000e-01    1.510000e+00
 TP4dr TN5dr  1 3.400000e-01    1.230000e+00
 TP4dr TN4dr  1 3.400000e-01    1.230000e+00
 TP4dr TN3dr  1 3.520000e-01    1.050000e+00
 TP4dr TN2dr  1 3.520000e-01    1.050000e+00
 TP4dr TN1dr  1 3.660000e-01    9.350000e-01
 TP3dr TP2dr  1 3.400000e-01    2.020000e+00
 TP3dr TP1dr  1 3.400000e-01    1.770000e+00
 TP3dr TN6dr  1 3.400000e-01    1.510000e+00
 TP3dr TN5dr  1 3.400000e-01    1.230000e+00
 TP3dr TN4dr  1 3.400000e-01    1.230000e+00
 TP3dr TN3dr  1 3.520000e-01    1.050000e+00
 TP3dr TN2dr  1 3.520000e-01    1.050000e+00
 TP3dr TN1dr  1 3.520000e-01    1.050000e+00
 TP2dr TP1dr  1 3.400000e-01    1.770000e+00
 TP2dr TN6dr  1 3.400000e-01    1.770000e+00
 TP2dr TN5dr  1 3.400000e-01    1.510000e+00
 TP2dr TN4dr  1 3.400000e-01    1.230000e+00
 TP2dr TN3dr  1 3.520000e-01    1.050000e+00
 TP2dr TN2dr  1 3.520000e-01    1.050000e+00
 TP2dr TN1dr  1 3.520000e-01    1.050000e+00
 TP1dr TN6dr  1 3.400000e-01    1.770000e+00
 TP1dr TN5dr  1 3.400000e-01    1.510000e+00
 TP1dr TN4dr  1 3.400000e-01    1.510000e+00
 TP1dr TN3dr  1 3.520000e-01    1.050000e+00
 TP1dr TN2dr  1 3.520000e-01    1.050000e+00
 TP1dr TN1dr  1 3.520000e-01    1.050000e+00
 TN6dr TN5dr  1 3.400000e-01    1.770000e+00
 TN6dr TN4dr  1 3.400000e-01    1.770000e+00
 TN6dr TN3dr  1 3.400000e-01    1.230000e+00
 TN6dr TN2dr  1 3.520000e-01    1.050000e+00
 TN6dr TN1dr  1 3.520000e-01    1.050000e+00
 TN5dr TN4dr  1 3.400000e-01    1.510000e+00
 TN5dr TN3dr  1 3.400000e-01    1.230000e+00
 TN5dr TN2dr  1 3.400000e-01    1.230000e+00
 TN5dr TN1dr  1 3.520000e-01    1.050000e+00
 TN4dr TN3dr  1 3.400000e-01    1.230000e+00
 TN4dr TN2dr  1 3.400000e-01    1.230000e+00
 TN4dr TN1dr  1 3.520000e-01    1.050000e+00
 TN3dr TN2dr  1 3.400000e-01    1.230000e+00
 TN3dr TN1dr  1 3.520000e-01    1.050000e+00
 TN2dr TN1dr  1 3.520000e-01    1.050000e+00
 TP6ar TP5ar  1 3.400000e-01    2.740000e+00
 TP6ar TP4ar  1 3.400000e-01    2.500000e+00
 TP6ar TP3ar  1 3.400000e-01    2.280000e+00
 TP6ar TP2ar  1 3.400000e-01    2.280000e+00
 TP6ar TP1ar  1 3.400000e-01    2.020000e+00
 TP6ar TN6ar  1 3.400000e-01    1.770000e+00
 TP6ar TN5ar  1 3.400000e-01    1.230000e+00
 TP6ar TN4ar  1 3.520000e-01    1.050000e+00
 TP6ar TN3ar  1 3.520000e-01    1.050000e+00
 TP6ar TN2ar  1 3.660000e-01    9.350000e-01
 TP6ar TN1ar  1 3.850000e-01    8.550000e-01
 TP5ar TP4ar  1 3.400000e-01    2.280000e+00
 TP5ar TP3ar  1 3.400000e-01    2.020000e+00
 TP5ar TP2ar  1 3.400000e-01    2.020000e+00
 TP5ar TP1ar  1 3.400000e-01    1.770000e+00
 TP5ar TN6ar  1 3.400000e-01    1.510000e+00
 TP5ar TN5ar  1 3.400000e-01    1.230000e+00
 TP5ar TN4ar  1 3.400000e-01    1.230000e+00
 TP5ar TN3ar  1 3.520000e-01    1.050000e+00
 TP5ar TN2ar  1 3.660000e-01    9.350000e-01
 TP5ar TN1ar  1 3.850000e-01    8.550000e-01
 TP4ar TP3ar  1 3.400000e-01    2.020000e+00
 TP4ar TP2ar  1 3.400000e-01    2.020000e+00
 TP4ar TP1ar  1 3.400000e-01    1.770000e+00
 TP4ar TN6ar  1 3.400000e-01    1.510000e+00
 TP4ar TN5ar  1 3.400000e-01    1.230000e+00
 TP4ar TN4ar  1 3.400000e-01    1.230000e+00
 TP4ar TN3ar  1 3.520000e-01    1.050000e+00
 TP4ar TN2ar  1 3.520000e-01    1.050000e+00
 TP4ar TN1ar  1 3.660000e-01    9.350000e-01
 TP3ar TP2ar  1 3.400000e-01    2.020000e+00
 TP3ar TP1ar  1 3.400000e-01    1.770000e+00
 TP3ar TN6ar  1 3.400000e-01    1.510000e+00
 TP3ar TN5ar  1 3.400000e-01    1.230000e+00
 TP3ar TN4ar  1 3.400000e-01    1.230000e+00
 TP3ar TN3ar  1 3.520000e-01    1.050000e+00
 TP3ar TN2ar  1 3.520000e-01    1.050000e+00
 TP3ar TN1ar  1 3.520000e-01    1.050000e+00
 TP2ar TP1ar  1 3.400000e-01    1.770000e+00
 TP2ar TN6ar  1 3.400000e-01    1.770000e+00
 TP2ar TN5ar  1 3.400000e-01    1.510000e+00
 TP2ar TN4ar  1 3.400000e-01    1.230000e+00
 TP2ar TN3ar  1 3.520000e-01    1.050000e+00
 TP2ar TN2ar  1 3.520000e-01    1.050000e+00
 TP2ar TN1ar  1 3.520000e-01    1.050000e+00
 TP1ar TN6ar  1 3.400000e-01    1.770000e+00
 TP1ar TN5ar  1 3.400000e-01    1.510000e+00
 TP1ar TN4ar  1 3.400000e-01    1.510000e+00
 TP1ar TN3ar  1 3.520000e-01    1.050000e+00
 TP1ar TN2ar  1 3.520000e-01    1.050000e+00
 TP1ar TN1ar  1 3.520000e-01    1.050000e+00
 TN6ar TN5ar  1 3.400000e-01    1.770000e+00
 TN6ar TN4ar  1 3.400000e-01    1.770000e+00
 TN6ar TN3ar  1 3.400000e-01    1.230000e+00
 TN6ar TN2ar  1 3.520000e-01    1.050000e+00
 TN6ar TN1ar  1 3.520000e-01    1.050000e+00
 TN5ar TN4ar  1 3.400000e-01    1.510000e+00
 TN5ar TN3ar  1 3.400000e-01    1.230000e+00
 TN5ar TN2ar  1 3.400000e-01    1.230000e+00
 TN5ar TN1ar  1 3.520000e-01    1.050000e+00
 TN4ar TN3ar  1 3.400000e-01    1.230000e+00
 TN4ar TN2ar  1 3.400000e-01    1.230000e+00
 TN4ar TN1ar  1 3.520000e-01    1.050000e+00
 TN3ar TN2ar  1 3.400000e-01    1.230000e+00
 TN3ar TN1ar  1 3.520000e-01    1.050000e+00
 TN2ar TN1ar  1 3.520000e-01    1.050000e+00
  TC6r  TC6r  1 3.400000e-01    1.510000e+00
  TC5r  TC5r  1 3.400000e-01    1.230000e+00
  TC4r  TC4r  1 3.400000e-01    1.230000e+00
  TC3r  TC3r  1 3.400000e-01    1.230000e+00
  TC2r  TC2r  1 3.400000e-01    1.230000e+00
  TC1r  TC1r  1 3.400000e-01    1.230000e+00
  TX4r  TX4r  1 3.400000e-01    1.230000e+00
  TX3r  TX3r  1 3.400000e-01    1.230000e+00
  TX2r  TX2r  1 3.400000e-01    1.510000e+00
  TX1r  TX1r  1 3.400000e-01    1.770000e+00
  TC6r  TC5r  1 3.400000e-01    1.230000e+00
  TC6r  TC4r  1 3.400000e-01    1.230000e+00
  TC6r  TC3r  1 3.520000e-01    1.050000e+00
  TC6r  TC2r  1 3.660000e-01    9.350000e-01
  TC6r  TC1r  1 3.850000e-01    8.550000e-01
  TC6r  TX4r  1 3.400000e-01    1.230000e+00
  TC6r  TX3r  1 3.400000e-01    1.230000e+00
  TC6r  TX2r  1 3.400000e-01    1.230000e+00
  TC6r  TX1r  1 3.400000e-01    1.230000e+00
  TC5r  TC4r  1 3.400000e-01    1.230000e+00
  TC5r  TC3r  1 3.520000e-01    1.050000e+00
  TC5r  TC2r  1 3.660000e-01    9.350000e-01
  TC5r  TC1r  1 3.660000e-01    9.350000e-01
  TC5r  TX4r  1 3.520000e-01    1.050000e+00
  TC5r  TX3r  1 3.520000e-01    1.050000e+00
  TC5r  TX2r  1 3.520000e-01    1.050000e+00
  TC5r  TX1r  1 3.400000e-01    1.230000e+00
  TC4r  TC3r  1 3.400000e-01    1.230000e+00
  TC4r  TC2r  1 3.520000e-01    1.050000e+00
  TC4r  TC1r  1 3.660000e-01    9.350000e-01
  TC4r  TX4r  1 3.520000e-01    1.050000e+00
  TC4r  TX3r  1 3.520000e-01    1.050000e+00
  TC4r  TX2r  1 3.520000e-01    1.050000e+00
  TC4r  TX1r  1 3.400000e-01    1.230000e+00
  TC3r  TC2r  1 3.400000e-01    1.230000e+00
  TC3r  TC1r  1 3.400000e-01    1.230000e+00
  TC3r  TX4r  1 3.520000e-01    1.050000e+00
  TC3r  TX3r  1 3.520000e-01    1.050000e+00
  TC3r  TX2r  1 3.520000e-01    1.050000e+00
  TC3r  TX1r  1 3.400000e-01    1.230000e+00
  TC2r  TC1r  1 3.400000e-01    1.510000e+00
  TC2r  TX4r  1 3.850000e-01    8.550000e-01
  TC2r  TX3r  1 3.520000e-01    1.050000e+00
  TC2r  TX2r  1 3.520000e-01    1.050000e+00
  TC2r  TX1r  1 3.520000e-01    1.050000e+00
  TC1r  TX4r  1 3.850000e-01    8.550000e-01
  TC1r  TX3r  1 3.520000e-01    1.050000e+00
  TC1r  TX2r  1 3.520000e-01    1.050000e+00
  TC1r  TX1r  1 3.520000e-01    1.050000e+00
  TX4r  TX3r  1 3.400000e-01    1.230000e+00
  TX4r  TX2r  1 3.400000e-01    1.230000e+00
  TX4r  TX1r  1 3.400000e-01    1.230000e+00
  TX3r  TX2r  1 3.400000e-01    1.510000e+00
  TX3r  TX1r  1 3.400000e-01    1.510000e+00
  TX2r  TX1r  1 3.400000e-01    1.510000e+00
  TP6r  TC6r  1 3.660000e-01    9.350000e-01
  TP6r  TC5r  1 3.850000e-01    8.550000e-01
  TP6r  TC4r  1 4.110000e-01    8.010000e-01
  TP6r  TC3r  1 4.240000e-01    7.760000e-01
  TP6r  TC2r  1 4.240000e-01    7.760000e-01
  TP6r  TC1r  1 5.050000e-01    6.800000e-01
  TP6r  TX4r  1 3.520000e-01    1.050000e+00
  TP6r  TX3r  1 3.520000e-01    1.050000e+00
  TP6r  TX2r  1 3.660000e-01    9.350000e-01
  TP6r  TX1r  1 3.850000e-01    8.550000e-01
  TP5r  TC6r  1 3.660000e-01    9.350000e-01
  TP5r  TC5r  1 3.660000e-01    9.350000e-01
  TP5r  TC4r  1 3.850000e-01    8.550000e-01
  TP5r  TC3r  1 4.110000e-01    8.010000e-01
  TP5r  TC2r  1 4.110000e-01    8.010000e-01
  TP5r  TC1r  1 4.240000e-01    7.760000e-01
  TP5r  TX4r  1 3.400000e-01    1.230000e+00
  TP5r  TX3r  1 3.520000e-01    1.050000e+00
  TP5r  TX2r  1 3.520000e-01    1.050000e+00
  TP5r  TX1r  1 3.850000e-01    8.550000e-01
  TP4r  TC6r  1 3.520000e-01    1.050000e+00
  TP4r  TC5r  1 3.660000e-01    9.350000e-01
  TP4r  TC4r  1 3.850000e-01    8.550000e-01
  TP4r  TC3r  1 4.110000e-01    8.010000e-01
  TP4r  TC2r  1 4.110000e-01    8.010000e-01
  TP4r  TC1r  1 4.240000e-01    7.760000e-01
  TP4r  TX4r  1 3.400000e-01    1.230000e+00
  TP4r  TX3r  1 3.520000e-01    1.050000e+00
  TP4r  TX2r  1 3.520000e-01    1.050000e+00
  TP4r  TX1r  1 3.660000e-01    9.350000e-01
  TP3r  TC6r  1 3.400000e-01    1.230000e+00
  TP3r  TC5r  1 3.520000e-01    1.050000e+00
  TP3r  TC4r  1 3.660000e-01    9.350000e-01
  TP3r  TC3r  1 4.110000e-01    8.010000e-01
  TP3r  TC2r  1 4.110000e-01    8.010000e-01
  TP3r  TC1r  1 4.240000e-01    7.760000e-01
  TP3r  TX4r  1 3.400000e-01    1.230000e+00
  TP3r  TX3r  1 3.400000e-01    1.230000e+00
  TP3r  TX2r  1 3.520000e-01    1.050000e+00
  TP3r  TX1r  1 3.660000e-01    9.350000e-01
  TP2r  TC6r  1 3.400000e-01    1.230000e+00
  TP2r  TC5r  1 3.520000e-01    1.050000e+00
  TP2r  TC4r  1 3.660000e-01    9.350000e-01
  TP2r  TC3r  1 3.850000e-01    8.550000e-01
  TP2r  TC2r  1 3.850000e-01    8.550000e-01
  TP2r  TC1r  1 4.110000e-01    8.010000e-01
  TP2r  TX4r  1 3.400000e-01    1.230000e+00
  TP2r  TX3r  1 3.400000e-01    1.230000e+00
  TP2r  TX2r  1 3.520000e-01    1.050000e+00
  TP2r  TX1r  1 3.660000e-01    9.350000e-01
  TP1r  TC6r  1 3.400000e-01    1.230000e+00
  TP1r  TC5r  1 3.520000e-01    1.050000e+00
  TP1r  TC4r  1 3.660000e-01    9.350000e-01
  TP1r  TC3r  1 3.850000e-01    8.550000e-01
  TP1r  TC2r  1 3.850000e-01    8.550000e-01
  TP1r  TC1r  1 4.110000e-01    8.010000e-01
  TP1r  TX4r  1 3.400000e-01    1.230000e+00
  TP1r  TX3r  1 3.400000e-01    1.230000e+00
  TP1r  TX2r  1 3.520000e-01    1.050000e+00
  TP1r  TX1r  1 3.660000e-01    9.350000e-01
  TN6r  TC6r  1 3.400000e-01    1.510000e+00
  TN6r  TC5r  1 3.400000e-01    1.230000e+00
  TN6r  TC4r  1 3.520000e-01    1.050000e+00
  TN6r  TC3r  1 3.660000e-01    9.350000e-01
  TN6r  TC2r  1 3.660000e-01    9.350000e-01
  TN6r  TC1r  1 3.850000e-01    8.550000e-01
  TN6r  TX4r  1 3.400000e-01    1.510000e+00
  TN6r  TX3r  1 3.400000e-01    1.230000e+00
  TN6r  TX2r  1 3.520000e-01    1.050000e+00
  TN6r  TX1r  1 3.660000e-01    9.350000e-01
  TN5r  TC6r  1 3.400000e-01    1.510000e+00
  TN5r  TC5r  1 3.400000e-01    1.230000e+00
  TN5r  TC4r  1 3.520000e-01    1.050000e+00
  TN5r  TC3r  1 3.520000e-01    1.050000e+00
  TN5r  TC2r  1 3.660000e-01    9.350000e-01
  TN5r  TC1r  1 3.850000e-01    8.550000e-01
  TN5r  TX4r  1 3.400000e-01    1.770000e+00
  TN5r  TX3r  1 3.400000e-01    1.510000e+00
  TN5r  TX2r  1 3.400000e-01    1.230000e+00
  TN5r  TX1r  1 3.520000e-01    1.050000e+00
  TN4r  TC6r  1 3.400000e-01    1.510000e+00
  TN4r  TC5r  1 3.400000e-01    1.230000e+00
  TN4r  TC4r  1 3.400000e-01    1.230000e+00
  TN4r  TC3r  1 3.520000e-01    1.050000e+00
  TN4r  TC2r  1 3.660000e-01    9.350000e-01
  TN4r  TC1r  1 3.850000e-01    8.550000e-01
  TN4r  TX4r  1 3.400000e-01    2.020000e+00
  TN4r  TX3r  1 3.400000e-01    1.770000e+00
  TN4r  TX2r  1 3.400000e-01    1.230000e+00
  TN4r  TX1r  1 3.520000e-01    1.050000e+00
  TN3r  TC6r  1 3.400000e-01    1.510000e+00
  TN3r  TC5r  1 3.400000e-01    1.230000e+00
  TN3r  TC4r  1 3.400000e-01    1.230000e+00
  TN3r  TC3r  1 3.520000e-01    1.050000e+00
  TN3r  TC2r  1 3.520000e-01    1.050000e+00
  TN3r  TC1r  1 3.660000e-01    9.350000e-01
  TN3r  TX4r  1 3.400000e-01    1.770000e+00
  TN3r  TX3r  1 3.400000e-01    1.510000e+00
  TN3r  TX2r  1 3.400000e-01    1.230000e+00
  TN3r  TX1r  1 3.400000e-01    1.230000e+00
  TN2r  TC6r  1 3.400000e-01    1.510000e+00
  TN2r  TC5r  1 3.400000e-01    1.230000e+00
  TN2r  TC4r  1 3.400000e-01    1.230000e+00
  TN2r  TC3r  1 3.400000e-01    1.230000e+00
  TN2r  TC2r  1 3.520000e-01    1.050000e+00
  TN2r  TC1r  1 3.660000e-01    9.350000e-01
  TN2r  TX4r  1 3.400000e-01    1.770000e+00
  TN2r  TX3r  1 3.400000e-01    1.510000e+00
  TN2r  TX2r  1 3.400000e-01    1.230000e+00
  TN2r  TX1r  1 3.400000e-01    1.230000e+00
  TN1r  TC6r  1 3.400000e-01    1.770000e+00
  TN1r  TC5r  1 3.400000e-01    1.510000e+00
  TN1r  TC4r  1 3.400000e-01    1.510000e+00
  TN1r  TC3r  1 3.400000e-01    1.230000e+00
  TN1r  TC2r  1 3.520000e-01    1.050000e+00
  TN1r  TC1r  1 3.660000e-01    9.350000e-01
  TN1r  TX4r  1 3.400000e-01    1.510000e+00
  TN1r  TX3r  1 3.400000e-01    1.510000e+00
  TN1r  TX2r  1 3.400000e-01    1.230000e+00
  TN1r  TX1r  1 3.400000e-01    1.230000e+00
  TP6h  TP6h  1 3.400000e-01    3.750000e+00
  TP5h  TP5h  1 3.400000e-01    3.220000e+00
  TP4h  TP4h  1 3.400000e-01    2.990000e+00
  TP3h  TP3h  1 3.400000e-01    2.740000e+00
  TP2h  TP2h  1 3.400000e-01    2.740000e+00
  TP1h  TP1h  1 3.400000e-01    2.500000e+00
  TN6h  TN6h  1 3.400000e-01    2.500000e+00
  TN5h  TN5h  1 3.400000e-01    2.280000e+00
  TN4h  TN4h  1 3.400000e-01    2.280000e+00
  TN3h  TN3h  1 3.400000e-01    2.020000e+00
  TN2h  TN2h  1 3.400000e-01    2.020000e+00
  TN1h  TN1h  1 3.400000e-01    2.020000e+00
 TP6dh TP6dh  1 3.400000e-01    3.470000e+00
 TP5dh TP5dh  1 3.400000e-01    2.990000e+00
 TP4dh TP4dh  1 3.400000e-01    2.740000e+00
 TP3dh TP3dh  1 3.400000e-01    2.500000e+00
 TP2dh TP2dh  1 3.400000e-01    2.500000e+00
 TP1dh TP1dh  1 3.400000e-01    2.280000e+00
 TN6dh TN6dh  1 3.400000e-01    2.280000e+00
 TN5dh TN5dh  1 3.400000e-01    2.020000e+00
 TN4dh TN4dh  1 3.400000e-01    2.020000e+00
 TN3dh TN3dh  1 3.400000e-01    1.770000e+00
 TN2dh TN2dh  1 3.400000e-01    1.770000e+00
 TN1dh TN1dh  1 3.400000e-01    1.770000e+00
 TP6ah TP6ah  1 3.400000e-01    3.470000e+00
 TP5ah TP5ah  1 3.400000e-01    2.990000e+00
 TP4ah TP4ah  1 3.400000e-01    2.740000e+00
 TP3ah TP3ah  1 3.400000e-01    2.500000e+00
 TP2ah TP2ah  1 3.400000e-01    2.500000e+00
 TP1ah TP1ah  1 3.400000e-01    2.280000e+00
 TN6ah TN6ah  1 3.400000e-01    2.280000e+00
 TN5ah TN5ah  1 3.400000e-01    2.020000e+00
 TN4ah TN4ah  1 3.400000e-01    2.020000e+00
 TN3ah TN3ah  1 3.400000e-01    1.770000e+00
 TN2ah TN2ah  1 3.400000e-01    1.770000e+00
 TN1ah TN1ah  1 3.400000e-01    1.770000e+00
  TP6h  TP5h  1 3.400000e-01    3.470000e+00
  TP6h  TP4h  1 3.400000e-01    3.220000e+00
  TP6h  TP3h  1 3.400000e-01    2.990000e+00
  TP6h  TP2h  1 3.400000e-01    2.990000e+00
  TP6h  TP1h  1 3.400000e-01    2.740000e+00
  TP6h  TN6h  1 3.400000e-01    2.500000e+00
  TP6h  TN5h  1 3.400000e-01    2.020000e+00
  TP6h  TN4h  1 3.400000e-01    1.770000e+00
  TP6h  TN3h  1 3.400000e-01    1.510000e+00
  TP6h  TN2h  1 3.400000e-01    1.230000e+00
  TP6h  TN1h  1 3.520000e-01    1.050000e+00
  TP5h  TP4h  1 3.400000e-01    2.990000e+00
  TP5h  TP3h  1 3.400000e-01    2.740000e+00
  TP5h  TP2h  1 3.400000e-01    2.740000e+00
  TP5h  TP1h  1 3.400000e-01    2.500000e+00
  TP5h  TN6h  1 3.400000e-01    2.280000e+00
  TP5h  TN5h  1 3.400000e-01    2.020000e+00
  TP5h  TN4h  1 3.400000e-01    2.020000e+00
  TP5h  TN3h  1 3.400000e-01    1.510000e+00
  TP5h  TN2h  1 3.400000e-01    1.230000e+00
  TP5h  TN1h  1 3.520000e-01    1.050000e+00
  TP4h  TP3h  1 3.400000e-01    2.740000e+00
  TP4h  TP2h  1 3.400000e-01    2.740000e+00
  TP4h  TP1h  1 3.400000e-01    2.500000e+00
  TP4h  TN6h  1 3.400000e-01    2.280000e+00
  TP4h  TN5h  1 3.400000e-01    2.020000e+00
  TP4h  TN4h  1 3.400000e-01    2.020000e+00
  TP4h  TN3h  1 3.400000e-01    1.770000e+00
  TP4h  TN2h  1 3.400000e-01    1.510000e+00
  TP4h  TN1h  1 3.400000e-01    1.230000e+00
  TP3h  TP2h  1 3.400000e-01    2.740000e+00
  TP3h  TP1h  1 3.400000e-01    2.500000e+00
  TP3h  TN6h  1 3.400000e-01    2.280000e+00
  TP3h  TN5h  1 3.400000e-01    2.020000e+00
  TP3h  TN4h  1 3.400000e-01    2.020000e+00
  TP3h  TN3h  1 3.400000e-01    1.770000e+00
  TP3h  TN2h  1 3.400000e-01    1.770000e+00
  TP3h  TN1h  1 3.400000e-01    1.510000e+00
  TP2h  TP1h  1 3.400000e-01    2.500000e+00
  TP2h  TN6h  1 3.400000e-01    2.500000e+00
  TP2h  TN5h  1 3.400000e-01    2.280000e+00
  TP2h  TN4h  1 3.400000e-01    2.020000e+00
  TP2h  TN3h  1 3.400000e-01    1.770000e+00
  TP2h  TN2h  1 3.400000e-01    1.770000e+00
  TP2h  TN1h  1 3.400000e-01    1.770000e+00
  TP1h  TN6h  1 3.400000e-01    2.500000e+00
  TP1h  TN5h  1 3.400000e-01    2.280000e+00
  TP1h  TN4h  1 3.400000e-01    2.280000e+00
  TP1h  TN3h  1 3.400000e-01    1.770000e+00
  TP1h  TN2h  1 3.400000e-01    1.770000e+00
  TP1h  TN1h  1 3.400000e-01    1.770000e+00
  TN6h  TN5h  1 3.400000e-01    2.500000e+00
  TN6h  TN4h  1 3.400000e-01    2.500000e+00
  TN6h  TN3h  1 3.400000e-01    2.020000e+00
  TN6h  TN2h  1 3.400000e-01    1.770000e+00
  TN6h  TN1h  1 3.400000e-01    1.770000e+00
  TN5h  TN4h  1 3.400000e-01    2.280000e+00
  TN5h  TN3h  1 3.400000e-01    2.020000e+00
  TN5h  TN2h  1 3.400000e-01    2.020000e+00
  TN5h  TN1h  1 3.400000e-01    1.770000e+00
  TN4h  TN3h  1 3.400000e-01    2.020000e+00
  TN4h  TN2h  1 3.400000e-01    2.020000e+00
  TN4h  TN1h  1 3.400000e-01    1.770000e+00
  TN3h  TN2h  1 3.400000e-01    2.020000e+00
  TN3h  TN1h  1 3.400000e-01    1.770000e+00
  TN2h  TN1h  1 3.400000e-01    1.770000e+00
 TP6dh TP5dh  1 3.400000e-01    3.220000e+00
 TP6dh TP4dh  1 3.400000e-01    2.990000e+00
 TP6dh TP3dh  1 3.400000e-01    2.740000e+00
 TP6dh TP2dh  1 3.400000e-01    2.740000e+00
 TP6dh TP1dh  1 3.400000e-01    2.500000e+00
 TP6dh TN6dh  1 3.400000e-01    2.280000e+00
 TP6dh TN5dh  1 3.400000e-01    1.770000e+00
 TP6dh TN4dh  1 3.400000e-01    1.510000e+00
 TP6dh TN3dh  1 3.400000e-01    1.510000e+00
 TP6dh TN2dh  1 3.400000e-01    1.230000e+00
 TP6dh TN1dh  1 3.520000e-01    1.050000e+00
 TP5dh TP4dh  1 3.400000e-01    2.740000e+00
 TP5dh TP3dh  1 3.400000e-01    2.500000e+00
 TP5dh TP2dh  1 3.400000e-01    2.500000e+00
 TP5dh TP1dh  1 3.400000e-01    2.280000e+00
 TP5dh TN6dh  1 3.400000e-01    2.020000e+00
 TP5dh TN5dh  1 3.400000e-01    1.770000e+00
 TP5dh TN4dh  1 3.400000e-01    1.770000e+00
 TP5dh TN3dh  1 3.400000e-01    1.510000e+00
 TP5dh TN2dh  1 3.400000e-01    1.230000e+00
 TP5dh TN1dh  1 3.520000e-01    1.050000e+00
 TP4dh TP3dh  1 3.400000e-01    2.500000e+00
 TP4dh TP2dh  1 3.400000e-01    2.500000e+00
 TP4dh TP1dh  1 3.400000e-01    2.280000e+00
 TP4dh TN6dh  1 3.400000e-01    2.020000e+00
 TP4dh TN5dh  1 3.400000e-01    1.770000e+00
 TP4dh TN4dh  1 3.400000e-01    1.770000e+00
 TP4dh TN3dh  1 3.400000e-01    1.510000e+00
 TP4dh TN2dh  1 3.400000e-01    1.510000e+00
 TP4dh TN1dh  1 3.400000e-01    1.230000e+00
 TP3dh TP2dh  1 3.400000e-01    2.500000e+00
 TP3dh TP1dh  1 3.400000e-01    2.280000e+00
 TP3dh TN6dh  1 3.400000e-01    2.020000e+00
 TP3dh TN5dh  1 3.400000e-01    1.770000e+00
 TP3dh TN4dh  1 3.400000e-01    1.770000e+00
 TP3dh TN3dh  1 3.400000e-01    1.510000e+00
 TP3dh TN2dh  1 3.400000e-01    1.510000e+00
 TP3dh TN1dh  1 3.400000e-01    1.510000e+00
 TP2dh TP1dh  1 3.400000e-01    2.280000e+00
 TP2dh TN6dh  1 3.400000e-01    2.280000e+00
 TP2dh TN5dh  1 3.400000e-01    2.020000e+00
 TP2dh TN4dh  1 3.400000e-01    1.770000e+00
 TP2dh TN3dh  1 3.400000e-01    1.510000e+00
 TP2dh TN2dh  1 3.400000e-01    1.510000e+00
 TP2dh TN1dh  1 3.400000e-01    1.510000e+00
 TP1dh TN6dh  1 3.400000e-01    2.280000e+00
 TP1dh TN5dh  1 3.400000e-01    2.020000e+00
 TP1dh TN4dh  1 3.400000e-01    2.020000e+00
 TP1dh TN3dh  1 3.400000e-01    1.510000e+00
 TP1dh TN2dh  1 3.400000e-01    1.510000e+00
 TP1dh TN1dh  1 3.400000e-01    1.510000e+00
 TN6dh TN5dh  1 3.400000e-01    2.280000e+00
 TN6dh TN4dh  1 3.400000e-01    2.280000e+00
 TN6dh TN3dh  1 3.400000e-01    1.770000e+00
 TN6dh TN2dh  1 3.400000e-01    1.510000e+00
 TN6dh TN1dh  1 3.400000e-01    1.510000e+00
 TN5dh TN4dh  1 3.400000e-01    2.020000e+00
 TN5dh TN3dh  1 3.400000e-01    1.770000e+00
 TN5dh TN2dh  1 3.400000e-01    1.770000e+00
 TN5dh TN1dh  1 3.400000e-01    1.510000e+00
 TN4dh TN3dh  1 3.400000e-01    1.770000e+00
 TN4dh TN2dh  1 3.400000e-01    1.770000e+00
 TN4dh TN1dh  1 3.400000e-01    1.510000e+00
 TN3dh TN2dh  1 3.400000e-01    1.770000e+00
 TN3dh TN1dh  1 3.400000e-01    1.510000e+00
 TN2dh TN1dh  1 3.400000e-01    1.510000e+00
 TP6ah TP5ah  1 3.400000e-01    3.220000e+00
 TP6ah TP4ah  1 3.400000e-01    2.990000e+00
 TP6ah TP3ah  1 3.400000e-01    2.740000e+00
 TP6ah TP2ah  1 3.400000e-01    2.740000e+00
 TP6ah TP1ah  1 3.400000e-01    2.500000e+00
 TP6ah TN6ah  1 3.400000e-01    2.280000e+00
 TP6ah TN5ah  1 3.400000e-01    1.770000e+00
 TP6ah TN4ah  1 3.400000e-01    1.510000e+00
 TP6ah TN3ah  1 3.400000e-01    1.510000e+00
 TP6ah TN2ah  1 3.400000e-01    1.230000e+00
 TP6ah TN1ah  1 3.520000e-01    1.050000e+00
 TP5ah TP4ah  1 3.400000e-01    2.740000e+00
 TP5ah TP3ah  1 3.400000e-01    2.500000e+00
 TP5ah TP2ah  1 3.400000e-01    2.500000e+00
 TP5ah TP1ah  1 3.400000e-01    2.280000e+00
 TP5ah TN6ah  1 3.400000e-01    2.020000e+00
 TP5ah TN5ah  1 3.400000e-01    1.770000e+00
 TP5ah TN4ah  1 3.400000e-01    1.770000e+00
 TP5ah TN3ah  1 3.400000e-01    1.510000e+00
 TP5ah TN2ah  1 3.400000e-01    1.230000e+00
 TP5ah TN1ah  1 3.520000e-01    1.050000e+00
 TP4ah TP3ah  1 3.400000e-01    2.500000e+00
 TP4ah TP2ah  1 3.400000e-01    2.500000e+00
 TP4ah TP1ah  1 3.400000e-01    2.280000e+00
 TP4ah TN6ah  1 3.400000e-01    2.020000e+00
 TP4ah TN5ah  1 3.400000e-01    1.770000e+00
 TP4ah TN4ah  1 3.400000e-01    1.770000e+00
 TP4ah TN3ah  1 3.400000e-01    1.510000e+00
 TP4ah TN2ah  1 3.400000e-01    1.510000e+00
 TP4ah TN1ah  1 3.400000e-01    1.230000e+00
 TP3ah TP2ah  1 3.400000e-01    2.500000e+00
 TP3ah TP1ah  1 3.400000e-01    2.280000e+00
 TP3ah TN6ah  1 3.400000e-01    2.020000e+00
 TP3ah TN5ah  1 3.400000e-01    1.770000e+00
 TP3ah TN4ah  1 3.400000e-01    1.770000e+00
 TP3ah TN3ah  1 3.400000e-01    1.510000e+00
 TP3ah TN2ah  1 3.400000e-01    1.510000e+00
 TP3ah TN1ah  1 3.400000e-01    1.510000e+00
 TP2ah TP1ah  1 3.400000e-01    2.280000e+00
 TP2ah TN6ah  1 3.400000e-01    2.280000e+00
 TP2ah TN5ah  1 3.400000e-01    2.020000e+00
 TP2ah TN4ah  1 3.400000e-01    1.770000e+00
 TP2ah TN3ah  1 3.400000e-01    1.510000e+00
 TP2ah TN2ah  1 3.400000e-01    1.510000e+00
 TP2ah TN1ah  1 3.400000e-01    1.510000e+00
 TP1ah TN6ah  1 3.400000e-01    2.280000e+00
 TP1ah TN5ah  1 3.400000e-01    2.020000e+00
 TP1ah TN4ah  1 3.400000e-01    2.020000e+00
 TP1ah TN3ah  1 3.400000e-01    1.510000e+00
 TP1ah TN2ah  1 3.400000e-01    1.510000e+00
 TP1ah TN1ah  1 3.400000e-01    1.510000e+00
 TN6ah TN5ah  1 3.400000e-01    2.280000e+00
 TN6ah TN4ah  1 3.400000e-01    2.280000e+00
 TN6ah TN3ah  1 3.400000e-01    1.770000e+00
 TN6ah TN2ah  1 3.400000e-01    1.510000e+00
 TN6ah TN1ah  1 3.400000e-01    1.510000e+00
 TN5ah TN4ah  1 3.400000e-01    2.020000e+00
 TN5ah TN3ah  1 3.400000e-01    1.770000e+00
 TN5ah TN2ah  1 3.400000e-01    1.770000e+00
 TN5ah TN1ah  1 3.400000e-01    1.510000e+00
 TN4ah TN3ah  1 3.400000e-01    1.770000e+00
 TN4ah TN2ah  1 3.400000e-01    1.770000e+00
 TN4ah TN1ah  1 3.400000e-01    1.510000e+00
 TN3ah TN2ah  1 3.400000e-01    1.770000e+00
 TN3ah TN1ah  1 3.400000e-01    1.510000e+00
 TN2ah TN1ah  1 3.400000e-01    1.510000e+00
  TC6h  TC6h  1 3.400000e-01    2.020000e+00
  TC5h  TC5h  1 3.400000e-01    1.770000e+00
  TC4h  TC4h  1 3.400000e-01    1.770000e+00
  TC3h  TC3h  1 3.400000e-01    1.770000e+00
  TC2h  TC2h  1 3.400000e-01    1.770000e+00
  TC1h  TC1h  1 3.400000e-01    1.770000e+00
  TX4h  TX4h  1 3.400000e-01    1.770000e+00
  TX3h  TX3h  1 3.400000e-01    1.770000e+00
  TX2h  TX2h  1 3.400000e-01    2.020000e+00
  TX1h  TX1h  1 3.400000e-01    2.280000e+00
  TC6h  TC5h  1 3.400000e-01    1.770000e+00
  TC6h  TC4h  1 3.400000e-01    1.770000e+00
  TC6h  TC3h  1 3.400000e-01    1.510000e+00
  TC6h  TC2h  1 3.400000e-01    1.230000e+00
  TC6h  TC1h  1 3.520000e-01    1.050000e+00
  TC6h  TX4h  1 3.400000e-01    1.770000e+00
  TC6h  TX3h  1 3.400000e-01    1.770000e+00
  TC6h  TX2h  1 3.400000e-01    1.770000e+00
  TC6h  TX1h  1 3.400000e-01    1.770000e+00
  TC5h  TC4h  1 3.400000e-01    1.770000e+00
  TC5h  TC3h  1 3.400000e-01    1.510000e+00
  TC5h  TC2h  1 3.400000e-01    1.230000e+00
  TC5h  TC1h  1 3.400000e-01    1.230000e+00
  TC5h  TX4h  1 3.400000e-01    1.510000e+00
  TC5h  TX3h  1 3.400000e-01    1.510000e+00
  TC5h  TX2h  1 3.400000e-01    1.510000e+00
  TC5h  TX1h  1 3.400000e-01    1.770000e+00
  TC4h  TC3h  1 3.400000e-01    1.770000e+00
  TC4h  TC2h  1 3.400000e-01    1.510000e+00
  TC4h  TC1h  1 3.400000e-01    1.230000e+00
  TC4h  TX4h  1 3.400000e-01    1.510000e+00
  TC4h  TX3h  1 3.400000e-01    1.510000e+00
  TC4h  TX2h  1 3.400000e-01    1.510000e+00
  TC4h  TX1h  1 3.400000e-01    1.770000e+00
  TC3h  TC2h  1 3.400000e-01    1.770000e+00
  TC3h  TC1h  1 3.400000e-01    1.770000e+00
  TC3h  TX4h  1 3.400000e-01    1.510000e+00
  TC3h  TX3h  1 3.400000e-01    1.510000e+00
  TC3h  TX2h  1 3.400000e-01    1.510000e+00
  TC3h  TX1h  1 3.400000e-01    1.770000e+00
  TC2h  TC1h  1 3.400000e-01    2.020000e+00
  TC2h  TX4h  1 3.520000e-01    1.050000e+00
  TC2h  TX3h  1 3.400000e-01    1.510000e+00
  TC2h  TX2h  1 3.400000e-01    1.510000e+00
  TC2h  TX1h  1 3.400000e-01    1.510000e+00
  TC1h  TX4h  1 3.520000e-01    1.050000e+00
  TC1h  TX3h  1 3.400000e-01    1.510000e+00
  TC1h  TX2h  1 3.400000e-01    1.510000e+00
  TC1h  TX1h  1 3.400000e-01    1.510000e+00
  TX4h  TX3h  1 3.400000e-01    1.770000e+00
  TX4h  TX2h  1 3.400000e-01    1.770000e+00
  TX4h  TX1h  1 3.400000e-01    1.770000e+00
  TX3h  TX2h  1 3.400000e-01    2.020000e+00
  TX3h  TX1h  1 3.400000e-01    2.020000e+00
  TX2h  TX1h  1 3.400000e-01    2.020000e+00
  TP6h  TC6h  1 3.660000e-01    9.350000e-01
  TP6h  TC5h  1 3.850000e-01    8.550000e-01
  TP6h  TC4h  1 4.110000e-01    8.010000e-01
  TP6h  TC3h  1 4.240000e-01    7.760000e-01
  TP6h  TC2h  1 4.240000e-01    7.760000e-01
  TP6h  TC1h  1 5.050000e-01    6.800000e-01
  TP6h  TX4h  1 3.520000e-01    1.050000e+00
  TP6h  TX3h  1 3.520000e-01    1.050000e+00
  TP6h  TX2h  1 3.660000e-01    9.350000e-01
  TP6h  TX1h  1 3.850000e-01    8.550000e-01
  TP5h  TC6h  1 3.660000e-01    9.350000e-01
  TP5h  TC5h  1 3.660000e-01    9.350000e-01
  TP5h  TC4h  1 3.850000e-01    8.550000e-01
  TP5h  TC3h  1 4.110000e-01    8.010000e-01
  TP5h  TC2h  1 4.110000e-01    8.010000e-01
  TP5h  TC1h  1 4.240000e-01    7.760000e-01
  TP5h  TX4h  1 3.400000e-01    1.230000e+00
  TP5h  TX3h  1 3.520000e-01    1.050000e+00
  TP5h  TX2h  1 3.520000e-01    1.050000e+00
  TP5h  TX1h  1 3.850000e-01    8.550000e-01
  TP4h  TC6h  1 3.520000e-01    1.050000e+00
  TP4h  TC5h  1 3.660000e-01    9.350000e-01
  TP4h  TC4h  1 3.850000e-01    8.550000e-01
  TP4h  TC3h  1 4.110000e-01    8.010000e-01
  TP4h  TC2h  1 4.110000e-01    8.010000e-01
  TP4h  TC1h  1 4.240000e-01    7.760000e-01
  TP4h  TX4h  1 3.400000e-01    1.230000e+00
  TP4h  TX3h  1 3.520000e-01    1.050000e+00
  TP4h  TX2h  1 3.520000e-01    1.050000e+00
  TP4h  TX1h  1 3.660000e-01    9.350000e-01
  TP3h  TC6h  1 3.400000e-01    1.230000e+00
  TP3h  TC5h  1 3.520000e-01    1.050000e+00
  TP3h  TC4h  1 3.660000e-01    9.350000e-01
  TP3h  TC3h  1 4.110000e-01    8.010000e-01
  TP3h  TC2h  1 4.110000e-01    8.010000e-01
  TP3h  TC1h  1 4.240000e-01    7.760000e-01
  TP3h  TX4h  1 3.400000e-01    1.230000e+00
  TP3h  TX3h  1 3.400000e-01    1.230000e+00
  TP3h  TX2h  1 3.520000e-01    1.050000e+00
  TP3h  TX1h  1 3.660000e-01    9.350000e-01
  TP2h  TC6h  1 3.400000e-01    1.230000e+00
  TP2h  TC5h  1 3.520000e-01    1.050000e+00
  TP2h  TC4h  1 3.660000e-01    9.350000e-01
  TP2h  TC3h  1 3.850000e-01    8.550000e-01
  TP2h  TC2h  1 3.850000e-01    8.550000e-01
  TP2h  TC1h  1 4.110000e-01    8.010000e-01
  TP2h  TX4h  1 3.400000e-01    1.230000e+00
  TP2h  TX3h  1 3.400000e-01    1.230000e+00
  TP2h  TX2h  1 3.520000e-01    1.050000e+00
  TP2h  TX1h  1 3.660000e-01    9.350000e-01
  TP1h  TC6h  1 3.400000e-01    1.230000e+00
  TP1h  TC5h  1 3.520000e-01    1.050000e+00
  TP1h  TC4h  1 3.660000e-01    9.350000e-01
  TP1h  TC3h  1 3.850000e-01    8.550000e-01
  TP1h  TC2h  1 3.850000e-01    8.550000e-01
  TP1h  TC1h  1 4.110000e-01    8.010000e-01
  TP1h  TX4h  1 3.400000e-01    1.230000e+00
  TP1h  TX3h  1 3.400000e-01    1.230000e+00
  TP1h  TX2h  1 3.520000e-01    1.050000e+00
  TP1h  TX1h  1 3.660000e-01    9.350000e-01
  TN6h  TC6h  1 3.400000e-01    1.510000e+00
  TN6h  TC5h  1 3.400000e-01    1.230000e+00
  TN6h  TC4h  1 3.520000e-01    1.050000e+00
  TN6h  TC3h  1 3.660000e-01    9.350000e-01
  TN6h  TC2h  1 3.660000e-01    9.350000e-01
  TN6h  TC1h  1 3.850000e-01    8.550000e-01
  TN6h  TX4h  1 3.400000e-01    1.510000e+00
  TN6h  TX3h  1 3.400000e-01    1.230000e+00
  TN6h  TX2h  1 3.520000e-01    1.050000e+00
  TN6h  TX1h  1 3.660000e-01    9.350000e-01
  TN5h  TC6h  1 3.400000e-01    1.510000e+00
  TN5h  TC5h  1 3.400000e-01    1.230000e+00
  TN5h  TC4h  1 3.520000e-01    1.050000e+00
  TN5h  TC3h  1 3.520000e-01    1.050000e+00
  TN5h  TC2h  1 3.660000e-01    9.350000e-01
  TN5h  TC1h  1 3.850000e-01    8.550000e-01
  TN5h  TX4h  1 3.400000e-01    1.770000e+00
  TN5h  TX3h  1 3.400000e-01    1.510000e+00
  TN5h  TX2h  1 3.400000e-01    1.230000e+00
  TN5h  TX1h  1 3.520000e-01    1.050000e+00
  TN4h  TC6h  1 3.400000e-01    1.510000e+00
  TN4h  TC5h  1 3.400000e-01    1.230000e+00
  TN4h  TC4h  1 3.400000e-01    1.230000e+00
  TN4h  TC3h  1 3.520000e-01    1.050000e+00
  TN4h  TC2h  1 3.660000e-01    9.350000e-01
  TN4h  TC1h  1 3.850000e-01    8.550000e-01
  TN4h  TX4h  1 3.400000e-01    2.020000e+00
  TN4h  TX3h  1 3.400000e-01    1.770000e+00
  TN4h  TX2h  1 3.400000e-01    1.230000e+00
  TN4h  TX1h  1 3.520000e-01    1.050000e+00
  TN3h  TC6h  1 3.400000e-01    1.510000e+00
  TN3h  TC5h  1 3.400000e-01    1.230000e+00
  TN3h  TC4h  1 3.400000e-01    1.230000e+00
  TN3h  TC3h  1 3.520000e-01    1.050000e+00
  TN3h  TC2h  1 3.520000e-01    1.050000e+00
  TN3h  TC1h  1 3.660000e-01    9.350000e-01
  TN3h  TX4h  1 3.400000e-01    1.770000e+00
  TN3h  TX3h  1 3.400000e-01    1.510000e+00
  TN3h  TX2h  1 3.400000e-01    1.230000e+00
  TN3h  TX1h  1 3.400000e-01    1.230000e+00
  TN2h  TC6h  1 3.400000e-01    1.510000e+00
  TN2h  TC5h  1 3.400000e-01    1.230000e+00
  TN2h  TC4h  1 3.400000e-01    1.230000e+00
  TN2h  TC3h  1 3.400000e-01    1.230000e+00
  TN2h  TC2h  1 3.520000e-01    1.050000e+00
  TN2h  TC1h  1 3.660000e-01    9.350000e-01
  TN2h  TX4h  1 3.400000e-01    1.770000e+00
  TN2h  TX3h  1 3.400000e-01    1.510000e+00
  TN2h  TX2h  1 3.400000e-01    1.230000e+00
  TN2h  TX1h  1 3.400000e-01    1.230000e+00
  TN1h  TC6h  1 3.400000e-01    1.770000e+00
  TN1h  TC5h  1 3.400000e-01    1.510000e+00
  TN1h  TC4h  1 3.400000e-01    1.510000e+00
  TN1h  TC3h  1 3.400000e-01    1.230000e+00
  TN1h  TC2h  1 3.520000e-01    1.050000e+00
  TN1h  TC1h  1 3.660000e-01    9.350000e-01
  TN1h  TX4h  1 3.400000e-01    1.510000e+00
  TN1h  TX3h  1 3.400000e-01    1.510000e+00
  TN1h  TX2h  1 3.400000e-01    1.230000e+00
  TN1h  TX1h  1 3.400000e-01    1.230000e+00
  TP6h  TP6r  1 3.400000e-01    3.470000e+00
  TP6h  TP5r  1 3.400000e-01    3.220000e+00
  TP6r  TP5h  1 3.400000e-01    3.220000e+00
  TP6h  TP4r  1 3.400000e-01    2.990000e+00
  TP6r  TP4h  1 3.400000e-01    2.990000e+00
  TP6h  TP3r  1 3.400000e-01    2.740000e+00
  TP6r  TP3h  1 3.400000e-01    2.740000e+00
  TP6h  TP2r  1 3.400000e-01    2.740000e+00
  TP6r  TP2h  1 3.400000e-01    2.740000e+00
  TP6h  TP1r  1 3.400000e-01    2.500000e+00
  TP6r  TP1h  1 3.400000e-01    2.500000e+00
  TP6h  TN6r  1 3.400000e-01    2.280000e+00
  TP6r  TN6h  1 3.400000e-01    2.280000e+00
  TP6h  TN5r  1 3.400000e-01    1.770000e+00
  TP6r  TN5h  1 3.400000e-01    1.770000e+00
  TP6h  TN4r  1 3.400000e-01    1.510000e+00
  TP6r  TN4h  1 3.400000e-01    1.510000e+00
  TP6h  TN3r  1 3.400000e-01    1.230000e+00
  TP6r  TN3h  1 3.400000e-01    1.230000e+00
  TP6h  TN2r  1 3.520000e-01    1.050000e+00
  TP6r  TN2h  1 3.520000e-01    1.050000e+00
  TP6h  TN1r  1 3.660000e-01    9.350000e-01
  TP6r  TN1h  1 3.660000e-01    9.350000e-01
  TP5h  TP5r  1 3.400000e-01    2.990000e+00
  TP5h  TP4r  1 3.400000e-01    2.740000e+00
  TP5r  TP4h  1 3.400000e-01    2.740000e+00
  TP5h  TP3r  1 3.400000e-01    2.500000e+00
  TP5r  TP3h  1 3.400000e-01    2.500000e+00
  TP5h  TP2r  1 3.400000e-01    2.500000e+00
  TP5r  TP2h  1 3.400000e-01    2.500000e+00
  TP5h  TP1r  1 3.400000e-01    2.280000e+00
  TP5r  TP1h  1 3.400000e-01    2.280000e+00
  TP5h  TN6r  1 3.400000e-01    2.020000e+00
  TP5r  TN6h  1 3.400000e-01    2.020000e+00
  TP5h  TN5r  1 3.400000e-01    1.770000e+00
  TP5r  TN5h  1 3.400000e-01    1.770000e+00
  TP5h  TN4r  1 3.400000e-01    1.770000e+00
  TP5r  TN4h  1 3.400000e-01    1.770000e+00
  TP5h  TN3r  1 3.400000e-01    1.230000e+00
  TP5r  TN3h  1 3.400000e-01    1.230000e+00
  TP5h  TN2r  1 3.520000e-01    1.050000e+00
  TP5r  TN2h  1 3.520000e-01    1.050000e+00
  TP5h  TN1r  1 3.660000e-01    9.350000e-01
  TP5r  TN1h  1 3.660000e-01    9.350000e-01
  TP4h  TP4r  1 3.400000e-01    2.740000e+00
  TP4h  TP3r  1 3.400000e-01    2.500000e+00
  TP4r  TP3h  1 3.400000e-01    2.500000e+00
  TP4h  TP2r  1 3.400000e-01    2.500000e+00
  TP4r  TP2h  1 3.400000e-01    2.500000e+00
  TP4h  TP1r  1 3.400000e-01    2.280000e+00
  TP4r  TP1h  1 3.400000e-01    2.280000e+00
  TP4h  TN6r  1 3.400000e-01    2.020000e+00
  TP4r  TN6h  1 3.400000e-01    2.020000e+00
  TP4h  TN5r  1 3.400000e-01    1.770000e+00
  TP4r  TN5h  1 3.400000e-01    1.770000e+00
  TP4h  TN4r  1 3.400000e-01    1.770000e+00
  TP4r  TN4h  1 3.400000e-01    1.770000e+00
  TP4h  TN3r  1 3.400000e-01    1.510000e+00
  TP4r  TN3h  1 3.400000e-01    1.510000e+00
  TP4h  TN2r  1 3.400000e-01    1.230000e+00
  TP4r  TN2h  1 3.400000e-01    1.230000e+00
  TP4h  TN1r  1 3.520000e-01    1.050000e+00
  TP4r  TN1h  1 3.520000e-01    1.050000e+00
  TP3h  TP3r  1 3.400000e-01    2.500000e+00
  TP3h  TP2r  1 3.400000e-01    2.500000e+00
  TP3r  TP2h  1 3.400000e-01    2.500000e+00
  TP3h  TP1r  1 3.400000e-01    2.280000e+00
  TP3r  TP1h  1 3.400000e-01    2.280000e+00
  TP3h  TN6r  1 3.400000e-01    2.020000e+00
  TP3r  TN6h  1 3.400000e-01    2.020000e+00
  TP3h  TN5r  1 3.400000e-01    1.770000e+00
  TP3r  TN5h  1 3.400000e-01    1.770000e+00
  TP3h  TN4r  1 3.400000e-01    1.770000e+00
  TP3r  TN4h  1 3.400000e-01    1.770000e+00
  TP3h  TN3r  1 3.400000e-01    1.510000e+00
  TP3r  TN3h  1 3.400000e-01    1.510000e+00
  TP3h  TN2r  1 3.400000e-01    1.510000e+00
  TP3r  TN2h  1 3.400000e-01    1.510000e+00
  TP3h  TN1r  1 3.400000e-01    1.230000e+00
  TP3r  TN1h  1 3.400000e-01    1.230000e+00
  TP2h  TP2r  1 3.400000e-01    2.500000e+00
  TP2h  TP1r  1 3.400000e-01    2.280000e+00
  TP2r  TP1h  1 3.400000e-01    2.280000e+00
  TP2h  TN6r  1 3.400000e-01    2.280000e+00
  TP2r  TN6h  1 3.400000e-01    2.280000e+00
  TP2h  TN5r  1 3.400000e-01    2.020000e+00
  TP2r  TN5h  1 3.400000e-01    2.020000e+00
  TP2h  TN4r  1 3.400000e-01    1.770000e+00
  TP2r  TN4h  1 3.400000e-01    1.770000e+00
  TP2h  TN3r  1 3.400000e-01    1.510000e+00
  TP2r  TN3h  1 3.400000e-01    1.510000e+00
  TP2h  TN2r  1 3.400000e-01    1.510000e+00
  TP2r  TN2h  1 3.400000e-01    1.510000e+00
  TP2h  TN1r  1 3.400000e-01    1.510000e+00
  TP2r  TN1h  1 3.400000e-01    1.510000e+00
  TP1h  TP1r  1 3.400000e-01    2.280000e+00
  TP1h  TN6r  1 3.400000e-01    2.280000e+00
  TP1r  TN6h  1 3.400000e-01    2.280000e+00
  TP1h  TN5r  1 3.400000e-01    2.020000e+00
  TP1r  TN5h  1 3.400000e-01    2.020000e+00
  TP1h  TN4r  1 3.400000e-01    2.020000e+00
  TP1r  TN4h  1 3.400000e-01    2.020000e+00
  TP1h  TN3r  1 3.400000e-01    1.510000e+00
  TP1r  TN3h  1 3.400000e-01    1.510000e+00
  TP1h  TN2r  1 3.400000e-01    1.510000e+00
  TP1r  TN2h  1 3.400000e-01    1.510000e+00
  TP1h  TN1r  1 3.400000e-01    1.510000e+00
  TP1r  TN1h  1 3.400000e-01    1.510000e+00
  TN6h  TN6r  1 3.400000e-01    2.280000e+00
  TN6h  TN5r  1 3.400000e-01    2.280000e+00
  TN6r  TN5h  1 3.400000e-01    2.280000e+00
  TN6h  TN4r  1 3.400000e-01    2.280000e+00
  TN6r  TN4h  1 3.400000e-01    2.280000e+00
  TN6h  TN3r  1 3.400000e-01    1.770000e+00
  TN6r  TN3h  1 3.400000e-01    1.770000e+00
  TN6h  TN2r  1 3.400000e-01    1.510000e+00
  TN6r  TN2h  1 3.400000e-01    1.510000e+00
  TN6h  TN1r  1 3.400000e-01    1.510000e+00
  TN6r  TN1h  1 3.400000e-01    1.510000e+00
  TN5h  TN5r  1 3.400000e-01    2.020000e+00
  TN5h  TN4r  1 3.400000e-01    2.020000e+00
  TN5r  TN4h  1 3.400000e-01    2.020000e+00
  TN5h  TN3r  1 3.400000e-01    1.770000e+00
  TN5r  TN3h  1 3.400000e-01    1.770000e+00
  TN5h  TN2r  1 3.400000e-01    1.770000e+00
  TN5r  TN2h  1 3.400000e-01    1.770000e+00
  TN5h  TN1r  1 3.400000e-01    1.510000e+00
  TN5r  TN1h  1 3.400000e-01    1.510000e+00
  TN4h  TN4r  1 3.400000e-01    2.020000e+00
  TN4h  TN3r  1 3.400000e-01    1.770000e+00
  TN4r  TN3h  1 3.400000e-01    1.770000e+00
  TN4h  TN2r  1 3.400000e-01    1.770000e+00
  TN4r  TN2h  1 3.400000e-01    1.770000e+00
  TN4h  TN1r  1 3.400000e-01    1.510000e+00
  TN4r  TN1h  1 3.400000e-01    1.510000e+00
  TN3h  TN3r  1 3.400000e-01    1.770000e+00
  TN3h  TN2r  1 3.400000e-01    1.770000e+00
  TN3r  TN2h  1 3.400000e-01    1.770000e+00
  TN3h  TN1r  1 3.400000e-01    1.510000e+00
  TN3r  TN1h  1 3.400000e-01    1.510000e+00
  TN2h  TN2r  1 3.400000e-01    1.770000e+00
  TN2h  TN1r  1 3.400000e-01    1.510000e+00
  TN2r  TN1h  1 3.400000e-01    1.510000e+00
  TN1h  TN1r  1 3.400000e-01    1.770000e+00
 TP6dh TP6dr  1 3.400000e-01    3.220000e+00
 TP6dh TP5dr  1 3.400000e-01    2.990000e+00
 TP6dr TP5dh  1 3.400000e-01    2.990000e+00
 TP6dh TP4dr  1 3.400000e-01    2.740000e+00
 TP6dr TP4dh  1 3.400000e-01    2.740000e+00
 TP6dh TP3dr  1 3.400000e-01    2.500000e+00
 TP6dr TP3dh  1 3.400000e-01    2.500000e+00
 TP6dh TP2dr  1 3.400000e-01    2.500000e+00
 TP6dr TP2dh  1 3.400000e-01    2.500000e+00
 TP6dh TP1dr  1 3.400000e-01    2.280000e+00
 TP6dr TP1dh  1 3.400000e-01    2.280000e+00
 TP6dh TN6dr  1 3.400000e-01    2.020000e+00
 TP6dr TN6dh  1 3.400000e-01    2.020000e+00
 TP6dh TN5dr  1 3.400000e-01    1.510000e+00
 TP6dr TN5dh  1 3.400000e-01    1.510000e+00
 TP6dh TN4dr  1 3.400000e-01    1.230000e+00
 TP6dr TN4dh  1 3.400000e-01    1.230000e+00
 TP6dh TN3dr  1 3.400000e-01    1.230000e+00
 TP6dr TN3dh  1 3.400000e-01    1.230000e+00
 TP6dh TN2dr  1 3.520000e-01    1.050000e+00
 TP6dr TN2dh  1 3.520000e-01    1.050000e+00
 TP6dh TN1dr  1 3.660000e-01    9.350000e-01
 TP6dr TN1dh  1 3.660000e-01    9.350000e-01
 TP5dh TP5dr  1 3.400000e-01    2.740000e+00
 TP5dh TP4dr  1 3.400000e-01    2.500000e+00
 TP5dr TP4dh  1 3.400000e-01    2.500000e+00
 TP5dh TP3dr  1 3.400000e-01    2.280000e+00
 TP5dr TP3dh  1 3.400000e-01    2.280000e+00
 TP5dh TP2dr  1 3.400000e-01    2.280000e+00
 TP5dr TP2dh  1 3.400000e-01    2.280000e+00
 TP5dh TP1dr  1 3.400000e-01    2.020000e+00
 TP5dr TP1dh  1 3.400000e-01    2.020000e+00
 TP5dh TN6dr  1 3.400000e-01    1.770000e+00
 TP5dr TN6dh  1 3.400000e-01    1.770000e+00
 TP5dh TN5dr  1 3.400000e-01    1.510000e+00
 TP5dr TN5dh  1 3.400000e-01    1.510000e+00
 TP5dh TN4dr  1 3.400000e-01    1.510000e+00
 TP5dr TN4dh  1 3.400000e-01    1.510000e+00
 TP5dh TN3dr  1 3.400000e-01    1.230000e+00
 TP5dr TN3dh  1 3.400000e-01    1.230000e+00
 TP5dh TN2dr  1 3.520000e-01    1.050000e+00
 TP5dr TN2dh  1 3.520000e-01    1.050000e+00
 TP5dh TN1dr  1 3.660000e-01    9.350000e-01
 TP5dr TN1dh  1 3.660000e-01    9.350000e-01
 TP4dh TP4dr  1 3.400000e-01    2.500000e+00
 TP4dh TP3dr  1 3.400000e-01    2.280000e+00
 TP4dr TP3dh  1 3.400000e-01    2.280000e+00
 TP4dh TP2dr  1 3.400000e-01    2.280000e+00
 TP4dr TP2dh  1 3.400000e-01    2.280000e+00
 TP4dh TP1dr  1 3.400000e-01    2.020000e+00
 TP4dr TP1dh  1 3.400000e-01    2.020000e+00
 TP4dh TN6dr  1 3.400000e-01    1.770000e+00
 TP4dr TN6dh  1 3.400000e-01    1.770000e+00
 TP4dh TN5dr  1 3.400000e-01    1.510000e+00
 TP4dr TN5dh  1 3.400000e-01    1.510000e+00
 TP4dh TN4dr  1 3.400000e-01    1.510000e+00
 TP4dr TN4dh  1 3.400000e-01    1.510000e+00
 TP4dh TN3dr  1 3.400000e-01    1.230000e+00
 TP4dr TN3dh  1 3.400000e-01    1.230000e+00
 TP4dh TN2dr  1 3.400000e-01    1.230000e+00
 TP4dr TN2dh  1 3.400000e-01    1.230000e+00
 TP4dh TN1dr  1 3.520000e-01    1.050000e+00
 TP4dr TN1dh  1 3.520000e-01    1.050000e+00
 TP3dh TP3dr  1 3.400000e-01    2.280000e+00
 TP3dh TP2dr  1 3.400000e-01    2.280000e+00
 TP3dr TP2dh  1 3.400000e-01    2.280000e+00
 TP3dh TP1dr  1 3.400000e-01    2.020000e+00
 TP3dr TP1dh  1 3.400000e-01    2.020000e+00
 TP3dh TN6dr  1 3.400000e-01    1.770000e+00
 TP3dr TN6dh  1 3.400000e-01    1.770000e+00
 TP3dh TN5dr  1 3.400000e-01    1.510000e+00
 TP3dr TN5dh  1 3.400000e-01    1.510000e+00
 TP3dh TN4dr  1 3.400000e-01    1.510000e+00
 TP3dr TN4dh  1 3.400000e-01    1.510000e+00
 TP3dh TN3dr  1 3.400000e-01    1.230000e+00
 TP3dr TN3dh  1 3.400000e-01    1.230000e+00
 TP3dh TN2dr  1 3.400000e-01    1.230000e+00
 TP3dr TN2dh  1 3.400000e-01    1.230000e+00
 TP3dh TN1dr  1 3.400000e-01    1.230000e+00
 TP3dr TN1dh  1 3.400000e-01    1.230000e+00
 TP2dh TP2dr  1 3.400000e-01    2.280000e+00
 TP2dh TP1dr  1 3.400000e-01    2.020000e+00
 TP2dr TP1dh  1 3.400000e-01    2.020000e+00
 TP2dh TN6dr  1 3.400000e-01    2.020000e+00
 TP2dr TN6dh  1 3.400000e-01    2.020000e+00
 TP2dh TN5dr  1 3.400000e-01    1.770000e+00
 TP2dr TN5dh  1 3.400000e-01    1.770000e+00
 TP2dh TN4dr  1 3.400000e-01    1.510000e+00
 TP2dr TN4dh  1 3.400000e-01    1.510000e+00
 TP2dh TN3dr  1 3.400000e-01    1.230000e+00
 TP2dr TN3dh  1 3.400000e-01    1.230000e+00
 TP2dh TN2dr  1 3.400000e-01    1.230000e+00
 TP2dr TN2dh  1 3.400000e-01    1.230000e+00
 TP2dh TN1dr  1 3.400000e-01    1.230000e+00
 TP2dr TN1dh  1 3.400000e-01    1.230000e+00
 TP1dh TP1dr  1 3.400000e-01    2.020000e+00
 TP1dh TN6dr  1 3.400000e-01    2.020000e+00
 TP1dr TN6dh  1 3.400000e-01    2.020000e+00
 TP1dh TN5dr  1 3.400000e-01    1.770000e+00
 TP1dr TN5dh  1 3.400000e-01    1.770000e+00
 TP1dh TN4dr  1 3.400000e-01    1.770000e+00
 TP1dr TN4dh  1 3.400000e-01    1.770000e+00
 TP1dh TN3dr  1 3.400000e-01    1.230000e+00
 TP1dr TN3dh  1 3.400000e-01    1.230000e+00
 TP1dh TN2dr  1 3.400000e-01    1.230000e+00
 TP1dr TN2dh  1 3.400000e-01    1.230000e+00
 TP1dh TN1dr  1 3.400000e-01    1.230000e+00
 TP1dr TN1dh  1 3.400000e-01    1.230000e+00
 TN6dh TN6dr  1 3.400000e-01    2.020000e+00
 TN6dh TN5dr  1 3.400000e-01    2.020000e+00
 TN6dr TN5dh  1 3.400000e-01    2.020000e+00
 TN6dh TN4dr  1 3.400000e-01    2.020000e+00
 TN6dr TN4dh  1 3.400000e-01    2.020000e+00
 TN6dh TN3dr  1 3.400000e-01    1.510000e+00
 TN6dr TN3dh  1 3.400000e-01    1.510000e+00
 TN6dh TN2dr  1 3.400000e-01    1.230000e+00
 TN6dr TN2dh  1 3.400000e-01    1.230000e+00
 TN6dh TN1dr  1 3.400000e-01    1.230000e+00
 TN6dr TN1dh  1 3.400000e-01    1.230000e+00
 TN5dh TN5dr  1 3.400000e-01    1.770000e+00
 TN5dh TN4dr  1 3.400000e-01    1.770000e+00
 TN5dr TN4dh  1 3.400000e-01    1.770000e+00
 TN5dh TN3dr  1 3.400000e-01    1.510000e+00
 TN5dr TN3dh  1 3.400000e-01    1.510000e+00
 TN5dh TN2dr  1 3.400000e-01    1.510000e+00
 TN5dr TN2dh  1 3.400000e-01    1.510000e+00
 TN5dh TN1dr  1 3.400000e-01    1.230000e+00
 TN5dr TN1dh  1 3.400000e-01    1.230000e+00
 TN4dh TN4dr  1 3.400000e-01    1.770000e+00
 TN4dh TN3dr  1 3.400000e-01    1.510000e+00
 TN4dr TN3dh  1 3.400000e-01    1.510000e+00
 TN4dh TN2dr  1 3.400000e-01    1.510000e+00
 TN4dr TN2dh  1 3.400000e-01    1.510000e+00
 TN4dh TN1dr  1 3.400000e-01    1.230000e+00
 TN4dr TN1dh  1 3.400000e-01    1.230000e+00
 TN3dh TN3dr  1 3.400000e-01    1.510000e+00
 TN3dh TN2dr  1 3.400000e-01    1.510000e+00
 TN3dr TN2dh  1 3.400000e-01    1.510000e+00
 TN3dh TN1dr  1 3.400000e-01    1.230000e+00
 TN3dr TN1dh  1 3.400000e-01    1.230000e+00
 TN2dh TN2dr  1 3.400000e-01    1.510000e+00
 TN2dh TN1dr  1 3.400000e-01    1.230000e+00
 TN2dr TN1dh  1 3.400000e-01    1.230000e+00
 TN1dh TN1dr  1 3.400000e-01    1.510000e+00
 TP6ah TP6ar  1 3.400000e-01    3.220000e+00
 TP6ah TP5ar  1 3.400000e-01    2.990000e+00
 TP6ar TP5ah  1 3.400000e-01    2.990000e+00
 TP6ah TP4ar  1 3.400000e-01    2.740000e+00
 TP6ar TP4ah  1 3.400000e-01    2.740000e+00
 TP6ah TP3ar  1 3.400000e-01    2.500000e+00
 TP6ar TP3ah  1 3.400000e-01    2.500000e+00
 TP6ah TP2ar  1 3.400000e-01    2.500000e+00
 TP6ar TP2ah  1 3.400000e-01    2.500000e+00
 TP6ah TP1ar  1 3.400000e-01    2.280000e+00
 TP6ar TP1ah  1 3.400000e-01    2.280000e+00
 TP6ah TN6ar  1 3.400000e-01    2.020000e+00
 TP6ar TN6ah  1 3.400000e-01    2.020000e+00
 TP6ah TN5ar  1 3.400000e-01    1.510000e+00
 TP6ar TN5ah  1 3.400000e-01    1.510000e+00
 TP6ah TN4ar  1 3.400000e-01    1.230000e+00
 TP6ar TN4ah  1 3.400000e-01    1.230000e+00
 TP6ah TN3ar  1 3.400000e-01    1.230000e+00
 TP6ar TN3ah  1 3.400000e-01    1.230000e+00
 TP6ah TN2ar  1 3.520000e-01    1.050000e+00
 TP6ar TN2ah  1 3.520000e-01    1.050000e+00
 TP6ah TN1ar  1 3.660000e-01    9.350000e-01
 TP6ar TN1ah  1 3.660000e-01    9.350000e-01
 TP5ah TP5ar  1 3.400000e-01    2.740000e+00
 TP5ah TP4ar  1 3.400000e-01    2.500000e+00
 TP5ar TP4ah  1 3.400000e-01    2.500000e+00
 TP5ah TP3ar  1 3.400000e-01    2.280000e+00
 TP5ar TP3ah  1 3.400000e-01    2.280000e+00
 TP5ah TP2ar  1 3.400000e-01    2.280000e+00
 TP5ar TP2ah  1 3.400000e-01    2.280000e+00
 TP5ah TP1ar  1 3.400000e-01    2.020000e+00
 TP5ar TP1ah  1 3.400000e-01    2.020000e+00
 TP5ah TN6ar  1 3.400000e-01    1.770000e+00
 TP5ar TN6ah  1 3.400000e-01    1.770000e+00
 TP5ah TN5ar  1 3.400000e-01    1.510000e+00
 TP5ar TN5ah  1 3.400000e-01    1.510000e+00
 TP5ah TN4ar  1 3.400000e-01    1.510000e+00
 TP5ar TN4ah  1 3.400000e-01    1.510000e+00
 TP5ah TN3ar  1 3.400000e-01    1.230000e+00
 TP5ar TN3ah  1 3.400000e-01    1.230000e+00
 TP5ah TN2ar  1 3.520000e-01    1.050000e+00
 TP5ar TN2ah  1 3.520000e-01    1.050000e+00
 TP5ah TN1ar  1 3.660000e-01    9.350000e-01
 TP5ar TN1ah  1 3.660000e-01    9.350000e-01
 TP4ah TP4ar  1 3.400000e-01    2.500000e+00
 TP4ah TP3ar  1 3.400000e-01    2.280000e+00
 TP4ar TP3ah  1 3.400000e-01    2.280000e+00
 TP4ah TP2ar  1 3.400000e-01    2.280000e+00
 TP4ar TP2ah  1 3.400000e-01    2.280000e+00
 TP4ah TP1ar  1 3.400000e-01    2.020000e+00
 TP4ar TP1ah  1 3.400000e-01    2.020000e+00
 TP4ah TN6ar  1 3.400000e-01    1.770000e+00
 TP4ar TN6ah  1 3.400000e-01    1.770000e+00
 TP4ah TN5ar  1 3.400000e-01    1.510000e+00
 TP4ar TN5ah  1 3.400000e-01    1.510000e+00
 TP4ah TN4ar  1 3.400000e-01    1.510000e+00
 TP4ar TN4ah  1 3.400000e-01    1.510000e+00
 TP4ah TN3ar  1 3.400000e-01    1.230000e+00
 TP4ar TN3ah  1 3.400000e-01    1.230000e+00
 TP4ah TN2ar  1 3.400000e-01    1.230000e+00
 TP4ar TN2ah  1 3.400000e-01    1.230000e+00
 TP4ah TN1ar  1 3.520000e-01    1.050000e+00
 TP4ar TN1ah  1 3.520000e-01    1.050000e+00
 TP3ah TP3ar  1 3.400000e-01    2.280000e+00
 TP3ah TP2ar  1 3.400000e-01    2.280000e+00
 TP3ar TP2ah  1 3.400000e-01    2.280000e+00
 TP3ah TP1ar  1 3.400000e-01    2.020000e+00
 TP3ar TP1ah  1 3.400000e-01    2.020000e+00
 TP3ah TN6ar  1 3.400000e-01    1.770000e+00
 TP3ar TN6ah  1 3.400000e-01    1.770000e+00
 TP3ah TN5ar  1 3.400000e-01    1.510000e+00
 TP3ar TN5ah  1 3.400000e-01    1.510000e+00
 TP3ah TN4ar  1 3.400000e-01    1.510000e+00
 TP3ar TN4ah  1 3.400000e-01    1.510000e+00
 TP3ah TN3ar  1 3.400000e-01    1.230000e+00
 TP3ar TN3ah  1 3.400000e-01    1.230000e+00
 TP3ah TN2ar  1 3.400000e-01    1.230000e+00
 TP3ar TN2ah  1 3.400000e-01    1.230000e+00
 TP3ah TN1ar  1 3.400000e-01    1.230000e+00
 TP3ar TN1ah  1 3.400000e-01    1.230000e+00
 TP2ah TP2ar  1 3.400000e-01    2.280000e+00
 TP2ah TP1ar  1 3.400000e-01    2.020000e+00
 TP2ar TP1ah  1 3.400000e-01    2.020000e+00
 TP2ah TN6ar  1 3.400000e-01    2.020000e+00
 TP2ar TN6ah  1 3.400000e-01    2.020000e+00
 TP2ah TN5ar  1 3.400000e-01    1.770000e+00
 TP2ar TN5ah  1 3.400000e-01    1.770000e+00
 TP2ah TN4ar  1 3.400000e-01    1.510000e+00
 TP2ar TN4ah  1 3.400000e-01    1.510000e+00
 TP2ah TN3ar  1 3.400000e-01    1.230000e+00
 TP2ar TN3ah  1 3.400000e-01    1.230000e+00
 TP2ah TN2ar  1 3.400000e-01    1.230000e+00
 TP2ar TN2ah  1 3.400000e-01    1.230000e+00
 TP2ah TN1ar  1 3.400000e-01    1.230000e+00
 TP2ar TN1ah  1 3.400000e-01    1.230000e+00
 TP1ah TP1ar  1 3.400000e-01    2.020000e+00
 TP1ah TN6ar  1 3.400000e-01    2.020000e+00
 TP1ar TN6ah  1 3.400000e-01    2.020000e+00
 TP1ah TN5ar  1 3.400000e-01    1.770000e+00
 TP1ar TN5ah  1 3.400000e-01    1.770000e+00
 TP1ah TN4ar  1 3.400000e-01    1.770000e+00
 TP1ar TN4ah  1 3.400000e-01    1.770000e+00
 TP1ah TN3ar  1 3.400000e-01    1.230000e+00
 TP1ar TN3ah  1 3.400000e-01    1.230000e+00
 TP1ah TN2ar  1 3.400000e-01    1.230000e+00
 TP1ar TN2ah  1 3.400000e-01    1.230000e+00
 TP1ah TN1ar  1 3.400000e-01    1.230000e+00
 TP1ar TN1ah  1 3.400000e-01    1.230000e+00
 TN6ah TN6ar  1 3.400000e-01    2.020000e+00
 TN6ah TN5ar  1 3.400000e-01    2.020000e+00
 TN6ar TN5ah  1 3.400000e-01    2.020000e+00
 TN6ah TN4ar  1 3.400000e-01    2.020000e+00
 TN6ar TN4ah  1 3.400000e-01    2.020000e+00
 TN6ah TN3ar  1 3.400000e-01    1.510000e+00
 TN6ar TN3ah  1 3.400000e-01    1.510000e+00
 TN6ah TN2ar  1 3.400000e-01    1.230000e+00
 TN6ar TN2ah  1 3.400000e-01    1.230000e+00
 TN6ah TN1ar  1 3.400000e-01    1.230000e+00
 TN6ar TN1ah  1 3.400000e-01    1.230000e+00
 TN5ah TN5ar  1 3.400000e-01    1.770000e+00
 TN5ah TN4ar  1 3.400000e-01    1.770000e+00
 TN5ar TN4ah  1 3.400000e-01    1.770000e+00
 TN5ah TN3ar  1 3.400000e-01    1.510000e+00
 TN5ar TN3ah  1 3.400000e-01    1.510000e+00
 TN5ah TN2ar  1 3.400000e-01    1.510000e+00
 TN5ar TN2ah  1 3.400000e-01    1.510000e+00
 TN5ah TN1ar  1 3.400000e-01    1.230000e+00
 TN5ar TN1ah  1 3.400000e-01    1.230000e+00
 TN4ah TN4ar  1 3.400000e-01    1.770000e+00
 TN4ah TN3ar  1 3.400000e-01    1.510000e+00
 TN4ar TN3ah  1 3.400000e-01    1.510000e+00
 TN4ah TN2ar  1 3.400000e-01    1.510000e+00
 TN4ar TN2ah  1 3.400000e-01    1.510000e+00
 TN4ah TN1ar  1 3.400000e-01    1.230000e+00
 TN4ar TN1ah  1 3.400000e-01    1.230000e+00
 TN3ah TN3ar  1 3.400000e-01    1.510000e+00
 TN3ah TN2ar  1 3.400000e-01    1.510000e+00
 TN3ar TN2ah  1 3.400000e-01    1.510000e+00
 TN3ah TN1ar  1 3.400000e-01    1.230000e+00
 TN3ar TN1ah  1 3.400000e-01    1.230000e+00
 TN2ah TN2ar  1 3.400000e-01    1.510000e+00
 TN2ah TN1ar  1 3.400000e-01    1.230000e+00
 TN2ar TN1ah  1 3.400000e-01    1.230000e+00
 TN1ah TN1ar  1 3.400000e-01    1.510000e+00
  TC6h  TC6r  1 3.400000e-01    1.770000e+00
  TC6h  TC5r  1 3.400000e-01    1.510000e+00
  TC6r  TC5h  1 3.400000e-01    1.510000e+00
  TC6h  TC4r  1 3.400000e-01    1.510000e+00
  TC6r  TC4h  1 3.400000e-01    1.510000e+00
  TC6h  TC3r  1 3.400000e-01    1.230000e+00
  TC6r  TC3h  1 3.400000e-01    1.230000e+00
  TC6h  TC2r  1 3.520000e-01    1.050000e+00
  TC6r  TC2h  1 3.520000e-01    1.050000e+00
  TC6h  TC1r  1 3.660000e-01    9.350000e-01
  TC6r  TC1h  1 3.660000e-01    9.350000e-01
  TC6h  TX4r  1 3.400000e-01    1.510000e+00
  TC6r  TX4h  1 3.400000e-01    1.510000e+00
  TC6h  TX3r  1 3.400000e-01    1.510000e+00
  TC6r  TX3h  1 3.400000e-01    1.510000e+00
  TC6h  TX2r  1 3.400000e-01    1.510000e+00
  TC6r  TX2h  1 3.400000e-01    1.510000e+00
  TC6h  TX1r  1 3.400000e-01    1.510000e+00
  TC6r  TX1h  1 3.400000e-01    1.510000e+00
  TC5h  TC5r  1 3.400000e-01    1.510000e+00
  TC5h  TC4r  1 3.400000e-01    1.510000e+00
  TC5r  TC4h  1 3.400000e-01    1.510000e+00
  TC5h  TC3r  1 3.400000e-01    1.230000e+00
  TC5r  TC3h  1 3.400000e-01    1.230000e+00
  TC5h  TC2r  1 3.520000e-01    1.050000e+00
  TC5r  TC2h  1 3.520000e-01    1.050000e+00
  TC5h  TC1r  1 3.520000e-01    1.050000e+00
  TC5r  TC1h  1 3.520000e-01    1.050000e+00
  TC5h  TX4r  1 3.400000e-01    1.230000e+00
  TC5r  TX4h  1 3.400000e-01    1.230000e+00
  TC5h  TX3r  1 3.400000e-01    1.230000e+00
  TC5r  TX3h  1 3.400000e-01    1.230000e+00
  TC5h  TX2r  1 3.400000e-01    1.230000e+00
  TC5r  TX2h  1 3.400000e-01    1.230000e+00
  TC5h  TX1r  1 3.400000e-01    1.510000e+00
  TC5r  TX1h  1 3.400000e-01    1.510000e+00
  TC4h  TC4r  1 3.400000e-01    1.510000e+00
  TC4h  TC3r  1 3.400000e-01    1.510000e+00
  TC4r  TC3h  1 3.400000e-01    1.510000e+00
  TC4h  TC2r  1 3.400000e-01    1.230000e+00
  TC4r  TC2h  1 3.400000e-01    1.230000e+00
  TC4h  TC1r  1 3.520000e-01    1.050000e+00
  TC4r  TC1h  1 3.520000e-01    1.050000e+00
  TC4h  TX4r  1 3.400000e-01    1.230000e+00
  TC4r  TX4h  1 3.400000e-01    1.230000e+00
  TC4h  TX3r  1 3.400000e-01    1.230000e+00
  TC4r  TX3h  1 3.400000e-01    1.230000e+00
  TC4h  TX2r  1 3.400000e-01    1.230000e+00
  TC4r  TX2h  1 3.400000e-01    1.230000e+00
  TC4h  TX1r  1 3.400000e-01    1.510000e+00
  TC4r  TX1h  1 3.400000e-01    1.510000e+00
  TC3h  TC3r  1 3.400000e-01    1.510000e+00
  TC3h  TC2r  1 3.400000e-01    1.510000e+00
  TC3r  TC2h  1 3.400000e-01    1.510000e+00
  TC3h  TC1r  1 3.400000e-01    1.510000e+00
  TC3r  TC1h  1 3.400000e-01    1.510000e+00
  TC3h  TX4r  1 3.400000e-01    1.230000e+00
  TC3r  TX4h  1 3.400000e-01    1.230000e+00
  TC3h  TX3r  1 3.400000e-01    1.230000e+00
  TC3r  TX3h  1 3.400000e-01    1.230000e+00
  TC3h  TX2r  1 3.400000e-01    1.230000e+00
  TC3r  TX2h  1 3.400000e-01    1.230000e+00
  TC3h  TX1r  1 3.400000e-01    1.510000e+00
  TC3r  TX1h  1 3.400000e-01    1.510000e+00
  TC2h  TC2r  1 3.400000e-01    1.510000e+00
  TC2h  TC1r  1 3.400000e-01    1.770000e+00
  TC2r  TC1h  1 3.400000e-01    1.770000e+00
  TC2h  TX4r  1 3.660000e-01    9.350000e-01
  TC2r  TX4h  1 3.660000e-01    9.350000e-01
  TC2h  TX3r  1 3.400000e-01    1.230000e+00
  TC2r  TX3h  1 3.400000e-01    1.230000e+00
  TC2h  TX2r  1 3.400000e-01    1.230000e+00
  TC2r  TX2h  1 3.400000e-01    1.230000e+00
  TC2h  TX1r  1 3.400000e-01    1.230000e+00
  TC2r  TX1h  1 3.400000e-01    1.230000e+00
  TC1h  TC1r  1 3.400000e-01    1.510000e+00
  TC1h  TX4r  1 3.660000e-01    9.350000e-01
  TC1r  TX4h  1 3.660000e-01    9.350000e-01
  TC1h  TX3r  1 3.400000e-01    1.230000e+00
  TC1r  TX3h  1 3.400000e-01    1.230000e+00
  TC1h  TX2r  1 3.400000e-01    1.230000e+00
  TC1r  TX2h  1 3.400000e-01    1.230000e+00
  TC1h  TX1r  1 3.400000e-01    1.230000e+00
  TC1r  TX1h  1 3.400000e-01    1.230000e+00
  TX4h  TX4r  1 3.400000e-01    1.510000e+00
  TX4h  TX3r  1 3.400000e-01    1.510000e+00
  TX4r  TX3h  1 3.400000e-01    1.510000e+00
  TX4h  TX2r  1 3.400000e-01    1.510000e+00
  TX4r  TX2h  1 3.400000e-01    1.510000e+00
  TX4h  TX1r  1 3.400000e-01    1.510000e+00
  TX4r  TX1h  1 3.400000e-01    1.510000e+00
  TX3h  TX3r  1 3.400000e-01    1.510000e+00
  TX3h  TX2r  1 3.400000e-01    1.770000e+00
  TX3r  TX2h  1 3.400000e-01    1.770000e+00
  TX3h  TX1r  1 3.400000e-01    1.770000e+00
  TX3r  TX1h  1 3.400000e-01    1.770000e+00
  TX2h  TX2r  1 3.400000e-01    1.770000e+00
  TX2h  TX1r  1 3.400000e-01    1.770000e+00
  TX2r  TX1h  1 3.400000e-01    1.770000e+00
  TX1h  TX1r  1 3.400000e-01    2.020000e+00
  TP6h  TC6r  1 3.660000e-01    9.350000e-01
  TP6r  TC6h  1 3.660000e-01    9.350000e-01
  TP6h  TC5r  1 3.850000e-01    8.550000e-01
  TP6r  TC5h  1 3.850000e-01    8.550000e-01
  TP6h  TC4r  1 4.110000e-01    8.010000e-01
  TP6r  TC4h  1 4.110000e-01    8.010000e-01
  TP6h  TC3r  1 4.240000e-01    7.760000e-01
  TP6r  TC3h  1 4.240000e-01    7.760000e-01
  TP6h  TC2r  1 4.240000e-01    7.760000e-01
  TP6r  TC2h  1 4.240000e-01    7.760000e-01
  TP6h  TC1r  1 5.050000e-01    6.800000e-01
  TP6r  TC1h  1 5.050000e-01    6.800000e-01
  TP6h  TX4r  1 3.520000e-01    1.050000e+00
  TP6r  TX4h  1 3.520000e-01    1.050000e+00
  TP6h  TX3r  1 3.520000e-01    1.050000e+00
  TP6r  TX3h  1 3.520000e-01    1.050000e+00
  TP6h  TX2r  1 3.660000e-01    9.350000e-01
  TP6r  TX2h  1 3.660000e-01    9.350000e-01
  TP6h  TX1r  1 3.850000e-01    8.550000e-01
  TP6r  TX1h  1 3.850000e-01    8.550000e-01
  TP5h  TC6r  1 3.660000e-01    9.350000e-01
  TP5r  TC6h  1 3.660000e-01    9.350000e-01
  TP5h  TC5r  1 3.660000e-01    9.350000e-01
  TP5r  TC5h  1 3.660000e-01    9.350000e-01
  TP5h  TC4r  1 3.850000e-01    8.550000e-01
  TP5r  TC4h  1 3.850000e-01    8.550000e-01
  TP5h  TC3r  1 4.110000e-01    8.010000e-01
  TP5r  TC3h  1 4.110000e-01    8.010000e-01
  TP5h  TC2r  1 4.110000e-01    8.010000e-01
  TP5r  TC2h  1 4.110000e-01    8.010000e-01
  TP5h  TC1r  1 4.240000e-01    7.760000e-01
  TP5r  TC1h  1 4.240000e-01    7.760000e-01
  TP5h  TX4r  1 3.400000e-01    1.230000e+00
  TP5r  TX4h  1 3.400000e-01    1.230000e+00
  TP5h  TX3r  1 3.520000e-01    1.050000e+00
  TP5r  TX3h  1 3.520000e-01    1.050000e+00
  TP5h  TX2r  1 3.520000e-01    1.050000e+00
  TP5r  TX2h  1 3.520000e-01    1.050000e+00
  TP5h  TX1r  1 3.850000e-01    8.550000e-01
  TP5r  TX1h  1 3.850000e-01    8.550000e-01
  TP4h  TC6r  1 3.520000e-01    1.050000e+00
  TP4r  TC6h  1 3.520000e-01    1.050000e+00
  TP4h  TC5r  1 3.660000e-01    9.350000e-01
  TP4r  TC5h  1 3.660000e-01    9.350000e-01
  TP4h  TC4r  1 3.850000e-01    8.550000e-01
  TP4r  TC4h  1 3.850000e-01    8.550000e-01
  TP4h  TC3r  1 4.110000e-01    8.010000e-01
  TP4r  TC3h  1 4.110000e-01    8.010000e-01
  TP4h  TC2r  1 4.110000e-01    8.010000e-01
  TP4r  TC2h  1 4.110000e-01    8.010000e-01
  TP4h  TC1r  1 4.240000e-01    7.760000e-01
  TP4r  TC1h  1 4.240000e-01    7.760000e-01
  TP4h  TX4r  1 3.400000e-01    1.230000e+00
  TP4r  TX4h  1 3.400000e-01    1.230000e+00
  TP4h  TX3r  1 3.520000e-01    1.050000e+00
  TP4r  TX3h  1 3.520000e-01    1.050000e+00
  TP4h  TX2r  1 3.520000e-01    1.050000e+00
  TP4r  TX2h  1 3.520000e-01    1.050000e+00
  TP4h  TX1r  1 3.660000e-01    9.350000e-01
  TP4r  TX1h  1 3.660000e-01    9.350000e-01
  TP3h  TC6r  1 3.400000e-01    1.230000e+00
  TP3r  TC6h  1 3.400000e-01    1.230000e+00
  TP3h  TC5r  1 3.520000e-01    1.050000e+00
  TP3r  TC5h  1 3.520000e-01    1.050000e+00
  TP3h  TC4r  1 3.660000e-01    9.350000e-01
  TP3r  TC4h  1 3.660000e-01    9.350000e-01
  TP3h  TC3r  1 4.110000e-01    8.010000e-01
  TP3r  TC3h  1 4.110000e-01    8.010000e-01
  TP3h  TC2r  1 4.110000e-01    8.010000e-01
  TP3r  TC2h  1 4.110000e-01    8.010000e-01
  TP3h  TC1r  1 4.240000e-01    7.760000e-01
  TP3r  TC1h  1 4.240000e-01    7.760000e-01
  TP3h  TX4r  1 3.400000e-01    1.230000e+00
  TP3r  TX4h  1 3.400000e-01    1.230000e+00
  TP3h  TX3r  1 3.400000e-01    1.230000e+00
  TP3r  TX3h  1 3.400000e-01    1.230000e+00
  TP3h  TX2r  1 3.520000e-01    1.050000e+00
  TP3r  TX2h  1 3.520000e-01    1.050000e+00
  TP3h  TX1r  1 3.660000e-01    9.350000e-01
  TP3r  TX1h  1 3.660000e-01    9.350000e-01
  TP2h  TC6r  1 3.400000e-01    1.230000e+00
  TP2r  TC6h  1 3.400000e-01    1.230000e+00
  TP2h  TC5r  1 3.520000e-01    1.050000e+00
  TP2r  TC5h  1 3.520000e-01    1.050000e+00
  TP2h  TC4r  1 3.660000e-01    9.350000e-01
  TP2r  TC4h  1 3.660000e-01    9.350000e-01
  TP2h  TC3r  1 3.850000e-01    8.550000e-01
  TP2r  TC3h  1 3.850000e-01    8.550000e-01
  TP2h  TC2r  1 3.850000e-01    8.550000e-01
  TP2r  TC2h  1 3.850000e-01    8.550000e-01
  TP2h  TC1r  1 4.110000e-01    8.010000e-01
  TP2r  TC1h  1 4.110000e-01    8.010000e-01
  TP2h  TX4r  1 3.400000e-01    1.230000e+00
  TP2r  TX4h  1 3.400000e-01    1.230000e+00
  TP2h  TX3r  1 3.400000e-01    1.230000e+00
  TP2r  TX3h  1 3.400000e-01    1.230000e+00
  TP2h  TX2r  1 3.520000e-01    1.050000e+00
  TP2r  TX2h  1 3.520000e-01    1.050000e+00
  TP2h  TX1r  1 3.660000e-01    9.350000e-01
  TP2r  TX1h  1 3.660000e-01    9.350000e-01
  TP1h  TC6r  1 3.400000e-01    1.230000e+00
  TP1r  TC6h  1 3.400000e-01    1.230000e+00
  TP1h  TC5r  1 3.520000e-01    1.050000e+00
  TP1r  TC5h  1 3.520000e-01    1.050000e+00
  TP1h  TC4r  1 3.660000e-01    9.350000e-01
  TP1r  TC4h  1 3.660000e-01    9.350000e-01
  TP1h  TC3r  1 3.850000e-01    8.550000e-01
  TP1r  TC3h  1 3.850000e-01    8.550000e-01
  TP1h  TC2r  1 3.850000e-01    8.550000e-01
  TP1r  TC2h  1 3.850000e-01    8.550000e-01
  TP1h  TC1r  1 4.110000e-01    8.010000e-01
  TP1r  TC1h  1 4.110000e-01    8.010000e-01
  TP1h  TX4r  1 3.400000e-01    1.230000e+00
  TP1r  TX4h  1 3.400000e-01    1.230000e+00
  TP1h  TX3r  1 3.400000e-01    1.230000e+00
  TP1r  TX3h  1 3.400000e-01    1.230000e+00
  TP1h  TX2r  1 3.520000e-01    1.050000e+00
  TP1r  TX2h  1 3.520000e-01    1.050000e+00
  TP1h  TX1r  1 3.660000e-01    9.350000e-01
  TP1r  TX1h  1 3.660000e-01    9.350000e-01
  TN6h  TC6r  1 3.400000e-01    1.510000e+00
  TN6r  TC6h  1 3.400000e-01    1.510000e+00
  TN6h  TC5r  1 3.400000e-01    1.230000e+00
  TN6r  TC5h  1 3.400000e-01    1.230000e+00
  TN6h  TC4r  1 3.520000e-01    1.050000e+00
  TN6r  TC4h  1 3.520000e-01    1.050000e+00
  TN6h  TC3r  1 3.660000e-01    9.350000e-01
  TN6r  TC3h  1 3.660000e-01    9.350000e-01
  TN6h  TC2r  1 3.660000e-01    9.350000e-01
  TN6r  TC2h  1 3.660000e-01    9.350000e-01
  TN6h  TC1r  1 3.850000e-01    8.550000e-01
  TN6r  TC1h  1 3.850000e-01    8.550000e-01
  TN6h  TX4r  1 3.400000e-01    1.510000e+00
  TN6r  TX4h  1 3.400000e-01    1.510000e+00
  TN6h  TX3r  1 3.400000e-01    1.230000e+00
  TN6r  TX3h  1 3.400000e-01    1.230000e+00
  TN6h  TX2r  1 3.520000e-01    1.050000e+00
  TN6r  TX2h  1 3.520000e-01    1.050000e+00
  TN6h  TX1r  1 3.660000e-01    9.350000e-01
  TN6r  TX1h  1 3.660000e-01    9.350000e-01
  TN5h  TC6r  1 3.400000e-01    1.510000e+00
  TN5r  TC6h  1 3.400000e-01    1.510000e+00
  TN5h  TC5r  1 3.400000e-01    1.230000e+00
  TN5r  TC5h  1 3.400000e-01    1.230000e+00
  TN5h  TC4r  1 3.520000e-01    1.050000e+00
  TN5r  TC4h  1 3.520000e-01    1.050000e+00
  TN5h  TC3r  1 3.520000e-01    1.050000e+00
  TN5r  TC3h  1 3.520000e-01    1.050000e+00
  TN5h  TC2r  1 3.660000e-01    9.350000e-01
  TN5r  TC2h  1 3.660000e-01    9.350000e-01
  TN5h  TC1r  1 3.850000e-01    8.550000e-01
  TN5r  TC1h  1 3.850000e-01    8.550000e-01
  TN5h  TX4r  1 3.400000e-01    1.770000e+00
  TN5r  TX4h  1 3.400000e-01    1.770000e+00
  TN5h  TX3r  1 3.400000e-01    1.510000e+00
  TN5r  TX3h  1 3.400000e-01    1.510000e+00
  TN5h  TX2r  1 3.400000e-01    1.230000e+00
  TN5r  TX2h  1 3.400000e-01    1.230000e+00
  TN5h  TX1r  1 3.520000e-01    1.050000e+00
  TN5r  TX1h  1 3.520000e-01    1.050000e+00
  TN4h  TC6r  1 3.400000e-01    1.510000e+00
  TN4r  TC6h  1 3.400000e-01    1.510000e+00
  TN4h  TC5r  1 3.400000e-01    1.230000e+00
  TN4r  TC5h  1 3.400000e-01    1.230000e+00
  TN4h  TC4r  1 3.400000e-01    1.230000e+00
  TN4r  TC4h  1 3.400000e-01    1.230000e+00
  TN4h  TC3r  1 3.520000e-01    1.050000e+00
  TN4r  TC3h  1 3.520000e-01    1.050000e+00
  TN4h  TC2r  1 3.660000e-01    9.350000e-01
  TN4r  TC2h  1 3.660000e-01    9.350000e-01
  TN4h  TC1r  1 3.850000e-01    8.550000e-01
  TN4r  TC1h  1 3.850000e-01    8.550000e-01
  TN4h  TX4r  1 3.400000e-01    2.020000e+00
  TN4r  TX4h  1 3.400000e-01    2.020000e+00
  TN4h  TX3r  1 3.400000e-01    1.770000e+00
  TN4r  TX3h  1 3.400000e-01    1.770000e+00
  TN4h  TX2r  1 3.400000e-01    1.230000e+00
  TN4r  TX2h  1 3.400000e-01    1.230000e+00
  TN4h  TX1r  1 3.520000e-01    1.050000e+00
  TN4r  TX1h  1 3.520000e-01    1.050000e+00
  TN3h  TC6r  1 3.400000e-01    1.510000e+00
  TN3r  TC6h  1 3.400000e-01    1.510000e+00
  TN3h  TC5r  1 3.400000e-01    1.230000e+00
  TN3r  TC5h  1 3.400000e-01    1.230000e+00
  TN3h  TC4r  1 3.400000e-01    1.230000e+00
  TN3r  TC4h  1 3.400000e-01    1.230000e+00
  TN3h  TC3r  1 3.520000e-01    1.050000e+00
  TN3r  TC3h  1 3.520000e-01    1.050000e+00
  TN3h  TC2r  1 3.520000e-01    1.050000e+00
  TN3r  TC2h  1 3.520000e-01    1.050000e+00
  TN3h  TC1r  1 3.660000e-01    9.350000e-01
  TN3r  TC1h  1 3.660000e-01    9.350000e-01
  TN3h  TX4r  1 3.400000e-01    1.770000e+00
  TN3r  TX4h  1 3.400000e-01    1.770000e+00
  TN3h  TX3r  1 3.400000e-01    1.510000e+00
  TN3r  TX3h  1 3.400000e-01    1.510000e+00
  TN3h  TX2r  1 3.400000e-01    1.230000e+00
  TN3r  TX2h  1 3.400000e-01    1.230000e+00
  TN3h  TX1r  1 3.400000e-01    1.230000e+00
  TN3r  TX1h  1 3.400000e-01    1.230000e+00
  TN2h  TC6r  1 3.400000e-01    1.510000e+00
  TN2r  TC6h  1 3.400000e-01    1.510000e+00
  TN2h  TC5r  1 3.400000e-01    1.230000e+00
  TN2r  TC5h  1 3.400000e-01    1.230000e+00
  TN2h  TC4r  1 3.400000e-01    1.230000e+00
  TN2r  TC4h  1 3.400000e-01    1.230000e+00
  TN2h  TC3r  1 3.400000e-01    1.230000e+00
  TN2r  TC3h  1 3.400000e-01    1.230000e+00
  TN2h  TC2r  1 3.520000e-01    1.050000e+00
  TN2r  TC2h  1 3.520000e-01    1.050000e+00
  TN2h  TC1r  1 3.660000e-01    9.350000e-01
  TN2r  TC1h  1 3.660000e-01    9.350000e-01
  TN2h  TX4r  1 3.400000e-01    1.770000e+00
  TN2r  TX4h  1 3.400000e-01    1.770000e+00
  TN2h  TX3r  1 3.400000e-01    1.510000e+00
  TN2r  TX3h  1 3.400000e-01    1.510000e+00
  TN2h  TX2r  1 3.400000e-01    1.230000e+00
  TN2r  TX2h  1 3.400000e-01    1.230000e+00
  TN2h  TX1r  1 3.400000e-01    1.230000e+00
  TN2r  TX1h  1 3.400000e-01    1.230000e+00
  TN1h  TC6r  1 3.400000e-01    1.770000e+00
  TN1r  TC6h  1 3.400000e-01    1.770000e+00
  TN1h  TC5r  1 3.400000e-01    1.510000e+00
  TN1r  TC5h  1 3.400000e-01    1.510000e+00
  TN1h  TC4r  1 3.400000e-01    1.510000e+00
  TN1r  TC4h  1 3.400000e-01    1.510000e+00
  TN1h  TC3r  1 3.400000e-01    1.230000e+00
  TN1r  TC3h  1 3.400000e-01    1.230000e+00
  TN1h  TC2r  1 3.520000e-01    1.050000e+00
  TN1r  TC2h  1 3.520000e-01    1.050000e+00
  TN1h  TC1r  1 3.660000e-01    9.350000e-01
  TN1r  TC1h  1 3.660000e-01    9.350000e-01
  TN1h  TX4r  1 3.400000e-01    1.510000e+00
  TN1r  TX4h  1 3.400000e-01    1.510000e+00
  TN1h  TX3r  1 3.400000e-01    1.510000e+00
  TN1r  TX3h  1 3.400000e-01    1.510000e+00
  TN1h  TX2r  1 3.400000e-01    1.230000e+00
  TN1r  TX2h  1 3.400000e-01    1.230000e+00
  TN1h  TX1r  1 3.400000e-01    1.230000e+00
  TN1r  TX1h  1 3.400000e-01    1.230000e+00
 TP6dq  TP5d  1 3.400000e-01    3.470000e+00
 TP6dq  TP4d  1 3.400000e-01    3.220000e+00
 TP6dq  TP3d  1 3.400000e-01    2.990000e+00
 TP6dq  TP2d  1 3.400000e-01    2.990000e+00
 TP6dq  TP1d  1 3.400000e-01    2.740000e+00
 TP6dq  TN6d  1 3.400000e-01    2.500000e+00
 TP6dq  TN5d  1 3.400000e-01    2.020000e+00
 TP6dq  TN4d  1 3.400000e-01    1.770000e+00
 TP6dq  TN3d  1 3.400000e-01    1.770000e+00
 TP6dq  TN2d  1 3.400000e-01    1.510000e+00
 TP6dq  TN1d  1 3.400000e-01    1.230000e+00
 TP5dq  TP4d  1 3.400000e-01    2.990000e+00
 TP5dq  TP3d  1 3.400000e-01    2.740000e+00
 TP5dq  TP2d  1 3.400000e-01    2.740000e+00
 TP5dq  TP1d  1 3.400000e-01    2.500000e+00
 TP5dq  TN6d  1 3.400000e-01    2.280000e+00
 TP5dq  TN5d  1 3.400000e-01    2.020000e+00
 TP5dq  TN4d  1 3.400000e-01    2.020000e+00
 TP5dq  TN3d  1 3.400000e-01    1.770000e+00
 TP5dq  TN2d  1 3.400000e-01    1.510000e+00
 TP5dq  TN1d  1 3.400000e-01    1.230000e+00
 TP4dq  TP3d  1 3.400000e-01    2.740000e+00
 TP4dq  TP2d  1 3.400000e-01    2.740000e+00
 TP4dq  TP1d  1 3.400000e-01    2.500000e+00
 TP4dq  TN6d  1 3.400000e-01    2.280000e+00
 TP4dq  TN5d  1 3.400000e-01    2.020000e+00
 TP4dq  TN4d  1 3.400000e-01    2.020000e+00
 TP4dq  TN3d  1 3.400000e-01    1.770000e+00
 TP4dq  TN2d  1 3.400000e-01    1.770000e+00
 TP4dq  TN1d  1 3.400000e-01    1.510000e+00
 TP3dq  TP2d  1 3.400000e-01    2.740000e+00
 TP3dq  TP1d  1 3.400000e-01    2.500000e+00
 TP3dq  TN6d  1 3.400000e-01    2.280000e+00
 TP3dq  TN5d  1 3.400000e-01    2.020000e+00
 TP3dq  TN4d  1 3.400000e-01    2.020000e+00
 TP3dq  TN3d  1 3.400000e-01    1.770000e+00
 TP3dq  TN2d  1 3.400000e-01    1.770000e+00
 TP3dq  TN1d  1 3.400000e-01    1.770000e+00
 TP2dq  TP1d  1 3.400000e-01    2.500000e+00
 TP2dq  TN6d  1 3.400000e-01    2.500000e+00
 TP2dq  TN5d  1 3.400000e-01    2.280000e+00
 TP2dq  TN4d  1 3.400000e-01    2.020000e+00
 TP2dq  TN3d  1 3.400000e-01    1.770000e+00
 TP2dq  TN2d  1 3.400000e-01    1.770000e+00
 TP2dq  TN1d  1 3.400000e-01    1.770000e+00
 TP1dq  TN6d  1 3.400000e-01    2.500000e+00
 TP1dq  TN5d  1 3.400000e-01    2.280000e+00
 TP1dq  TN4d  1 3.400000e-01    2.280000e+00
 TP1dq  TN3d  1 3.400000e-01    1.770000e+00
 TP1dq  TN2d  1 3.400000e-01    1.770000e+00
 TP1dq  TN1d  1 3.400000e-01    1.770000e+00
 TN6dq  TN5d  1 3.400000e-01    2.500000e+00
 TN6dq  TN4d  1 3.400000e-01    2.500000e+00
 TN6dq  TN3d  1 3.400000e-01    2.020000e+00
 TN6dq  TN2d  1 3.400000e-01    1.770000e+00
 TN6dq  TN1d  1 3.400000e-01    1.770000e+00
 TN5dq  TN4d  1 3.400000e-01    2.280000e+00
 TN5dq  TN3d  1 3.400000e-01    2.020000e+00
 TN5dq  TN2d  1 3.400000e-01    2.020000e+00
 TN5dq  TN1d  1 3.400000e-01    1.770000e+00
 TN4dq  TN3d  1 3.400000e-01    2.020000e+00
 TN4dq  TN2d  1 3.400000e-01    2.020000e+00
 TN4dq  TN1d  1 3.400000e-01    1.770000e+00
 TN3dq  TN2d  1 3.400000e-01    2.020000e+00
 TN3dq  TN1d  1 3.400000e-01    1.770000e+00
 TN2dq  TN1d  1 3.400000e-01    1.770000e+00
 TP6aq  TP5a  1 3.400000e-01    3.470000e+00
 TP6aq  TP4a  1 3.400000e-01    3.220000e+00
 TP6aq  TP3a  1 3.400000e-01    2.990000e+00
 TP6aq  TP2a  1 3.400000e-01    2.990000e+00
 TP6aq  TP1a  1 3.400000e-01    2.740000e+00
 TP6aq  TN6a  1 3.400000e-01    2.500000e+00
 TP6aq  TN5a  1 3.400000e-01    2.020000e+00
 TP6aq  TN4a  1 3.400000e-01    1.770000e+00
 TP6aq  TN3a  1 3.400000e-01    1.770000e+00
 TP6aq  TN2a  1 3.400000e-01    1.510000e+00
 TP6aq  TN1a  1 3.400000e-01    1.230000e+00
 TP5aq  TP4a  1 3.400000e-01    2.990000e+00
 TP5aq  TP3a  1 3.400000e-01    2.740000e+00
 TP5aq  TP2a  1 3.400000e-01    2.740000e+00
 TP5aq  TP1a  1 3.400000e-01    2.500000e+00
 TP5aq  TN6a  1 3.400000e-01    2.280000e+00
 TP5aq  TN5a  1 3.400000e-01    2.020000e+00
 TP5aq  TN4a  1 3.400000e-01    2.020000e+00
 TP5aq  TN3a  1 3.400000e-01    1.770000e+00
 TP5aq  TN2a  1 3.400000e-01    1.510000e+00
 TP5aq  TN1a  1 3.400000e-01    1.230000e+00
 TP4aq  TP3a  1 3.400000e-01    2.740000e+00
 TP4aq  TP2a  1 3.400000e-01    2.740000e+00
 TP4aq  TP1a  1 3.400000e-01    2.500000e+00
 TP4aq  TN6a  1 3.400000e-01    2.280000e+00
 TP4aq  TN5a  1 3.400000e-01    2.020000e+00
 TP4aq  TN4a  1 3.400000e-01    2.020000e+00
 TP4aq  TN3a  1 3.400000e-01    1.770000e+00
 TP4aq  TN2a  1 3.400000e-01    1.770000e+00
 TP4aq  TN1a  1 3.400000e-01    1.510000e+00
 TP3aq  TP2a  1 3.400000e-01    2.740000e+00
 TP3aq  TP1a  1 3.400000e-01    2.500000e+00
 TP3aq  TN6a  1 3.400000e-01    2.280000e+00
 TP3aq  TN5a  1 3.400000e-01    2.020000e+00
 TP3aq  TN4a  1 3.400000e-01    2.020000e+00
 TP3aq  TN3a  1 3.400000e-01    1.770000e+00
 TP3aq  TN2a  1 3.400000e-01    1.770000e+00
 TP3aq  TN1a  1 3.400000e-01    1.770000e+00
 TP2aq  TP1a  1 3.400000e-01    2.500000e+00
 TP2aq  TN6a  1 3.400000e-01    2.500000e+00
 TP2aq  TN5a  1 3.400000e-01    2.280000e+00
 TP2aq  TN4a  1 3.400000e-01    2.020000e+00
 TP2aq  TN3a  1 3.400000e-01    1.770000e+00
 TP2aq  TN2a  1 3.400000e-01    1.770000e+00
 TP2aq  TN1a  1 3.400000e-01    1.770000e+00
 TP1aq  TN6a  1 3.400000e-01    2.500000e+00
 TP1aq  TN5a  1 3.400000e-01    2.280000e+00
 TP1aq  TN4a  1 3.400000e-01    2.280000e+00
 TP1aq  TN3a  1 3.400000e-01    1.770000e+00
 TP1aq  TN2a  1 3.400000e-01    1.770000e+00
 TP1aq  TN1a  1 3.400000e-01    1.770000e+00
 TN6aq  TN5a  1 3.400000e-01    2.500000e+00
 TN6aq  TN4a  1 3.400000e-01    2.500000e+00
 TN6aq  TN3a  1 3.400000e-01    2.020000e+00
 TN6aq  TN2a  1 3.400000e-01    1.770000e+00
 TN6aq  TN1a  1 3.400000e-01    1.770000e+00
 TN5aq  TN4a  1 3.400000e-01    2.280000e+00
 TN5aq  TN3a  1 3.400000e-01    2.020000e+00
 TN5aq  TN2a  1 3.400000e-01    2.020000e+00
 TN5aq  TN1a  1 3.400000e-01    1.770000e+00
 TN4aq  TN3a  1 3.400000e-01    2.020000e+00
 TN4aq  TN2a  1 3.400000e-01    2.020000e+00
 TN4aq  TN1a  1 3.400000e-01    1.770000e+00
 TN3aq  TN2a  1 3.400000e-01    2.020000e+00
 TN3aq  TN1a  1 3.400000e-01    1.770000e+00
 TN2aq  TN1a  1 3.400000e-01    1.770000e+00
 TP6aq  TP5h  1 3.400000e-01    3.750000e+00
 TP6dq  TP5h  1 3.400000e-01    3.750000e+00
 TP5aq  TP4h  1 3.400000e-01    3.220000e+00
 TP6aq  TP4h  1 3.400000e-01    3.470000e+00
 TP5dq  TP4h  1 3.400000e-01    3.220000e+00
 TP6dq  TP4h  1 3.400000e-01    3.470000e+00
 TP4aq  TP3h  1 3.400000e-01    2.990000e+00
 TP5aq  TP3h  1 3.400000e-01    2.990000e+00
 TP6aq  TP3h  1 3.400000e-01    3.220000e+00
 TP4dq  TP3h  1 3.400000e-01    2.990000e+00
 TP5dq  TP3h  1 3.400000e-01    2.990000e+00
 TP6dq  TP3h  1 3.400000e-01    3.220000e+00
 TP3aq  TP2h  1 3.400000e-01    2.990000e+00
 TP4aq  TP2h  1 3.400000e-01    2.990000e+00
 TP5aq  TP2h  1 3.400000e-01    2.990000e+00
 TP6aq  TP2h  1 3.400000e-01    3.220000e+00
 TP3dq  TP2h  1 3.400000e-01    2.990000e+00
 TP4dq  TP2h  1 3.400000e-01    2.990000e+00
 TP5dq  TP2h  1 3.400000e-01    2.990000e+00
 TP6dq  TP2h  1 3.400000e-01    3.220000e+00
 TP2aq  TP1h  1 3.400000e-01    2.740000e+00
 TP3aq  TP1h  1 3.400000e-01    2.740000e+00
 TP4aq  TP1h  1 3.400000e-01    2.740000e+00
 TP5aq  TP1h  1 3.400000e-01    2.740000e+00
 TP6aq  TP1h  1 3.400000e-01    2.990000e+00
 TP2dq  TP1h  1 3.400000e-01    2.740000e+00
 TP3dq  TP1h  1 3.400000e-01    2.740000e+00
 TP4dq  TP1h  1 3.400000e-01    2.740000e+00
 TP5dq  TP1h  1 3.400000e-01    2.740000e+00
 TP6dq  TP1h  1 3.400000e-01    2.990000e+00
 TP1aq  TN6h  1 3.400000e-01    2.740000e+00
 TP2aq  TN6h  1 3.400000e-01    2.740000e+00
 TP3aq  TN6h  1 3.400000e-01    2.500000e+00
 TP4aq  TN6h  1 3.400000e-01    2.500000e+00
 TP5aq  TN6h  1 3.400000e-01    2.500000e+00
 TP6aq  TN6h  1 3.400000e-01    2.740000e+00
 TP1dq  TN6h  1 3.400000e-01    2.740000e+00
 TP2dq  TN6h  1 3.400000e-01    2.740000e+00
 TP3dq  TN6h  1 3.400000e-01    2.500000e+00
 TP4dq  TN6h  1 3.400000e-01    2.500000e+00
 TP5dq  TN6h  1 3.400000e-01    2.500000e+00
 TP6dq  TN6h  1 3.400000e-01    2.740000e+00
 TN6aq  TN5h  1 3.400000e-01    2.740000e+00
 TP1aq  TN5h  1 3.400000e-01    2.500000e+00
 TP2aq  TN5h  1 3.400000e-01    2.500000e+00
 TP3aq  TN5h  1 3.400000e-01    2.280000e+00
 TP4aq  TN5h  1 3.400000e-01    2.280000e+00
 TP5aq  TN5h  1 3.400000e-01    2.280000e+00
 TP6aq  TN5h  1 3.400000e-01    2.280000e+00
 TN6dq  TN5h  1 3.400000e-01    2.740000e+00
 TP1dq  TN5h  1 3.400000e-01    2.500000e+00
 TP2dq  TN5h  1 3.400000e-01    2.500000e+00
 TP3dq  TN5h  1 3.400000e-01    2.280000e+00
 TP4dq  TN5h  1 3.400000e-01    2.280000e+00
 TP5dq  TN5h  1 3.400000e-01    2.280000e+00
 TP6dq  TN5h  1 3.400000e-01    2.280000e+00
 TN5aq  TN4h  1 3.400000e-01    2.500000e+00
 TN6aq  TN4h  1 3.400000e-01    2.740000e+00
 TP1aq  TN4h  1 3.400000e-01    2.500000e+00
 TP2aq  TN4h  1 3.400000e-01    2.280000e+00
 TP3aq  TN4h  1 3.400000e-01    2.280000e+00
 TP4aq  TN4h  1 3.400000e-01    2.280000e+00
 TP5aq  TN4h  1 3.400000e-01    2.280000e+00
 TP6aq  TN4h  1 3.400000e-01    2.020000e+00
 TN5dq  TN4h  1 3.400000e-01    2.500000e+00
 TN6dq  TN4h  1 3.400000e-01    2.740000e+00
 TP1dq  TN4h  1 3.400000e-01    2.500000e+00
 TP2dq  TN4h  1 3.400000e-01    2.280000e+00
 TP3dq  TN4h  1 3.400000e-01    2.280000e+00
 TP4dq  TN4h  1 3.400000e-01    2.280000e+00
 TP5dq  TN4h  1 3.400000e-01    2.280000e+00
 TP6dq  TN4h  1 3.400000e-01    2.020000e+00
 TN4aq  TN3h  1 3.400000e-01    2.280000e+00
 TN5aq  TN3h  1 3.400000e-01    2.280000e+00
 TN6aq  TN3h  1 3.400000e-01    2.280000e+00
 TP1aq  TN3h  1 3.400000e-01    2.020000e+00
 TP2aq  TN3h  1 3.400000e-01    2.020000e+00
 TP3aq  TN3h  1 3.400000e-01    2.020000e+00
 TP4aq  TN3h  1 3.400000e-01    2.020000e+00
 TP5aq  TN3h  1 3.400000e-01    1.770000e+00
 TP6aq  TN3h  1 3.400000e-01    1.770000e+00
 TN4dq  TN3h  1 3.400000e-01    2.280000e+00
 TN5dq  TN3h  1 3.400000e-01    2.280000e+00
 TN6dq  TN3h  1 3.400000e-01    2.280000e+00
 TP1dq  TN3h  1 3.400000e-01    2.020000e+00
 TP2dq  TN3h  1 3.400000e-01    2.020000e+00
 TP3dq  TN3h  1 3.400000e-01    2.020000e+00
 TP4dq  TN3h  1 3.400000e-01    2.020000e+00
 TP5dq  TN3h  1 3.400000e-01    1.770000e+00
 TP6dq  TN3h  1 3.400000e-01    1.770000e+00
 TN3aq  TN2h  1 3.400000e-01    2.280000e+00
 TN4aq  TN2h  1 3.400000e-01    2.280000e+00
 TN5aq  TN2h  1 3.400000e-01    2.280000e+00
 TN6aq  TN2h  1 3.400000e-01    2.020000e+00
 TP1aq  TN2h  1 3.400000e-01    2.020000e+00
 TP2aq  TN2h  1 3.400000e-01    2.020000e+00
 TP3aq  TN2h  1 3.400000e-01    2.020000e+00
 TP4aq  TN2h  1 3.400000e-01    1.770000e+00
 TP5aq  TN2h  1 3.400000e-01    1.510000e+00
 TP6aq  TN2h  1 3.400000e-01    1.510000e+00
 TN3dq  TN2h  1 3.400000e-01    2.280000e+00
 TN4dq  TN2h  1 3.400000e-01    2.280000e+00
 TN5dq  TN2h  1 3.400000e-01    2.280000e+00
 TN6dq  TN2h  1 3.400000e-01    2.020000e+00
 TP1dq  TN2h  1 3.400000e-01    2.020000e+00
 TP2dq  TN2h  1 3.400000e-01    2.020000e+00
 TP3dq  TN2h  1 3.400000e-01    2.020000e+00
 TP4dq  TN2h  1 3.400000e-01    1.770000e+00
 TP5dq  TN2h  1 3.400000e-01    1.510000e+00
 TP6dq  TN2h  1 3.400000e-01    1.510000e+00
 TN2aq  TN1h  1 3.400000e-01    2.020000e+00
 TN3aq  TN1h  1 3.400000e-01    2.020000e+00
 TN4aq  TN1h  1 3.400000e-01    2.020000e+00
 TN5aq  TN1h  1 3.400000e-01    2.020000e+00
 TN6aq  TN1h  1 3.400000e-01    2.020000e+00
 TP1aq  TN1h  1 3.400000e-01    2.020000e+00
 TP2aq  TN1h  1 3.400000e-01    2.020000e+00
 TP3aq  TN1h  1 3.400000e-01    1.770000e+00
 TP4aq  TN1h  1 3.400000e-01    1.510000e+00
 TP5aq  TN1h  1 3.400000e-01    1.230000e+00
 TP6aq  TN1h  1 3.400000e-01    1.230000e+00
 TN2dq  TN1h  1 3.400000e-01    2.020000e+00
 TN3dq  TN1h  1 3.400000e-01    2.020000e+00
 TN4dq  TN1h  1 3.400000e-01    2.020000e+00
 TN5dq  TN1h  1 3.400000e-01    2.020000e+00
 TN6dq  TN1h  1 3.400000e-01    2.020000e+00
 TP1dq  TN1h  1 3.400000e-01    2.020000e+00
 TP2dq  TN1h  1 3.400000e-01    2.020000e+00
 TP3dq  TN1h  1 3.400000e-01    1.770000e+00
 TP4dq  TN1h  1 3.400000e-01    1.510000e+00
 TP5dq  TN1h  1 3.400000e-01    1.230000e+00
 TP6dq  TN1h  1 3.400000e-01    1.230000e+00
 TN1aq  TC6h  1 3.400000e-01    2.280000e+00
 TN2aq  TC6h  1 3.400000e-01    2.020000e+00
 TN3aq  TC6h  1 3.400000e-01    2.020000e+00
 TN4aq  TC6h  1 3.400000e-01    2.020000e+00
 TN5aq  TC6h  1 3.400000e-01    2.020000e+00
 TN6aq  TC6h  1 3.400000e-01    2.020000e+00
 TP1aq  TC6h  1 3.400000e-01    1.770000e+00
 TP2aq  TC6h  1 3.400000e-01    1.770000e+00
 TP3aq  TC6h  1 3.400000e-01    1.770000e+00
 TP4aq  TC6h  1 3.400000e-01    1.510000e+00
 TP5aq  TC6h  1 3.400000e-01    1.230000e+00
 TP6aq  TC6h  1 3.400000e-01    1.230000e+00
 TN1dq  TC6h  1 3.400000e-01    2.280000e+00
 TN2dq  TC6h  1 3.400000e-01    2.020000e+00
 TN3dq  TC6h  1 3.400000e-01    2.020000e+00
 TN4dq  TC6h  1 3.400000e-01    2.020000e+00
 TN5dq  TC6h  1 3.400000e-01    2.020000e+00
 TN6dq  TC6h  1 3.400000e-01    2.020000e+00
 TP1dq  TC6h  1 3.400000e-01    1.770000e+00
 TP2dq  TC6h  1 3.400000e-01    1.770000e+00
 TP3dq  TC6h  1 3.400000e-01    1.770000e+00
 TP4dq  TC6h  1 3.400000e-01    1.510000e+00
 TP5dq  TC6h  1 3.400000e-01    1.230000e+00
 TP6dq  TC6h  1 3.400000e-01    1.230000e+00
 TC6eq  TC5h  1 3.400000e-01    2.280000e+00
 TC6vq  TC5h  1 3.400000e-01    2.280000e+00
 TN1aq  TC5h  1 3.400000e-01    2.020000e+00
 TN2aq  TC5h  1 3.400000e-01    1.770000e+00
 TN3aq  TC5h  1 3.400000e-01    1.770000e+00
 TN4aq  TC5h  1 3.400000e-01    1.770000e+00
 TN5aq  TC5h  1 3.400000e-01    1.770000e+00
 TN6aq  TC5h  1 3.400000e-01    1.770000e+00
 TP1aq  TC5h  1 3.400000e-01    1.510000e+00
 TP2aq  TC5h  1 3.400000e-01    1.510000e+00
 TP3aq  TC5h  1 3.400000e-01    1.510000e+00
 TP4aq  TC5h  1 3.400000e-01    1.230000e+00
 TP5aq  TC5h  1 3.400000e-01    1.230000e+00
 TP6aq  TC5h  1 3.520000e-01    1.050000e+00
 TN1dq  TC5h  1 3.400000e-01    2.020000e+00
 TN2dq  TC5h  1 3.400000e-01    1.770000e+00
 TN3dq  TC5h  1 3.400000e-01    1.770000e+00
 TN4dq  TC5h  1 3.400000e-01    1.770000e+00
 TN5dq  TC5h  1 3.400000e-01    1.770000e+00
 TN6dq  TC5h  1 3.400000e-01    1.770000e+00
 TP1dq  TC5h  1 3.400000e-01    1.510000e+00
 TP2dq  TC5h  1 3.400000e-01    1.510000e+00
 TP3dq  TC5h  1 3.400000e-01    1.510000e+00
 TP4dq  TC5h  1 3.400000e-01    1.230000e+00
 TP5dq  TC5h  1 3.400000e-01    1.230000e+00
 TP6dq  TC5h  1 3.520000e-01    1.050000e+00
 TC5eq  TC4h  1 3.400000e-01    2.280000e+00
 TC6eq  TC4h  1 3.400000e-01    2.280000e+00
 TC5vq  TC4h  1 3.400000e-01    2.280000e+00
 TC6vq  TC4h  1 3.400000e-01    2.280000e+00
 TN1aq  TC4h  1 3.400000e-01    2.020000e+00
 TN2aq  TC4h  1 3.400000e-01    1.770000e+00
 TN3aq  TC4h  1 3.400000e-01    1.770000e+00
 TN4aq  TC4h  1 3.400000e-01    1.770000e+00
 TN5aq  TC4h  1 3.400000e-01    1.510000e+00
 TN6aq  TC4h  1 3.400000e-01    1.510000e+00
 TP1aq  TC4h  1 3.400000e-01    1.230000e+00
 TP2aq  TC4h  1 3.400000e-01    1.230000e+00
 TP3aq  TC4h  1 3.400000e-01    1.230000e+00
 TP4aq  TC4h  1 3.520000e-01    1.050000e+00
 TP5aq  TC4h  1 3.520000e-01    1.050000e+00
 TP6aq  TC4h  1 3.660000e-01    9.350000e-01
 TN1dq  TC4h  1 3.400000e-01    2.020000e+00
 TN2dq  TC4h  1 3.400000e-01    1.770000e+00
 TN3dq  TC4h  1 3.400000e-01    1.770000e+00
 TN4dq  TC4h  1 3.400000e-01    1.770000e+00
 TN5dq  TC4h  1 3.400000e-01    1.510000e+00
 TN6dq  TC4h  1 3.400000e-01    1.510000e+00
 TP1dq  TC4h  1 3.400000e-01    1.230000e+00
 TP2dq  TC4h  1 3.400000e-01    1.230000e+00
 TP3dq  TC4h  1 3.400000e-01    1.230000e+00
 TP4dq  TC4h  1 3.520000e-01    1.050000e+00
 TP5dq  TC4h  1 3.520000e-01    1.050000e+00
 TP6dq  TC4h  1 3.660000e-01    9.350000e-01
 TC4eq  TC3h  1 3.400000e-01    2.280000e+00
 TC5eq  TC3h  1 3.400000e-01    2.020000e+00
 TC6eq  TC3h  1 3.400000e-01    2.020000e+00
 TC4vq  TC3h  1 3.400000e-01    2.280000e+00
 TC5vq  TC3h  1 3.400000e-01    2.020000e+00
 TC6vq  TC3h  1 3.400000e-01    2.020000e+00
 TN1aq  TC3h  1 3.400000e-01    1.770000e+00
 TN2aq  TC3h  1 3.400000e-01    1.770000e+00
 TN3aq  TC3h  1 3.400000e-01    1.510000e+00
 TN4aq  TC3h  1 3.400000e-01    1.510000e+00
 TN5aq  TC3h  1 3.400000e-01    1.510000e+00
 TN6aq  TC3h  1 3.400000e-01    1.230000e+00
 TP1aq  TC3h  1 3.520000e-01    1.050000e+00
 TP2aq  TC3h  1 3.520000e-01    1.050000e+00
 TP3aq  TC3h  1 3.660000e-01    9.350000e-01
 TP4aq  TC3h  1 3.660000e-01    9.350000e-01
 TP5aq  TC3h  1 3.660000e-01    9.350000e-01
 TP6aq  TC3h  1 3.850000e-01    8.550000e-01
 TN1dq  TC3h  1 3.400000e-01    1.770000e+00
 TN2dq  TC3h  1 3.400000e-01    1.770000e+00
 TN3dq  TC3h  1 3.400000e-01    1.510000e+00
 TN4dq  TC3h  1 3.400000e-01    1.510000e+00
 TN5dq  TC3h  1 3.400000e-01    1.510000e+00
 TN6dq  TC3h  1 3.400000e-01    1.230000e+00
 TP1dq  TC3h  1 3.520000e-01    1.050000e+00
 TP2dq  TC3h  1 3.520000e-01    1.050000e+00
 TP3dq  TC3h  1 3.660000e-01    9.350000e-01
 TP4dq  TC3h  1 3.660000e-01    9.350000e-01
 TP5dq  TC3h  1 3.660000e-01    9.350000e-01
 TP6dq  TC3h  1 3.850000e-01    8.550000e-01
 TC3eq  TC2h  1 3.400000e-01    2.280000e+00
 TC4eq  TC2h  1 3.400000e-01    2.020000e+00
 TC5eq  TC2h  1 3.400000e-01    1.770000e+00
 TC6eq  TC2h  1 3.400000e-01    1.770000e+00
 TC3vq  TC2h  1 3.400000e-01    2.280000e+00
 TC4vq  TC2h  1 3.400000e-01    2.020000e+00
 TC5vq  TC2h  1 3.400000e-01    1.770000e+00
 TC6vq  TC2h  1 3.400000e-01    1.770000e+00
 TN1aq  TC2h  1 3.400000e-01    1.510000e+00
 TN2aq  TC2h  1 3.400000e-01    1.510000e+00
 TN3aq  TC2h  1 3.400000e-01    1.510000e+00
 TN4aq  TC2h  1 3.400000e-01    1.230000e+00
 TN5aq  TC2h  1 3.400000e-01    1.230000e+00
 TN6aq  TC2h  1 3.400000e-01    1.230000e+00
 TP1aq  TC2h  1 3.520000e-01    1.050000e+00
 TP2aq  TC2h  1 3.520000e-01    1.050000e+00
 TP3aq  TC2h  1 3.660000e-01    9.350000e-01
 TP4aq  TC2h  1 3.660000e-01    9.350000e-01
 TP5aq  TC2h  1 3.660000e-01    9.350000e-01
 TP6aq  TC2h  1 3.850000e-01    8.550000e-01
 TN1dq  TC2h  1 3.400000e-01    1.510000e+00
 TN2dq  TC2h  1 3.400000e-01    1.510000e+00
 TN3dq  TC2h  1 3.400000e-01    1.510000e+00
 TN4dq  TC2h  1 3.400000e-01    1.230000e+00
 TN5dq  TC2h  1 3.400000e-01    1.230000e+00
 TN6dq  TC2h  1 3.400000e-01    1.230000e+00
 TP1dq  TC2h  1 3.520000e-01    1.050000e+00
 TP2dq  TC2h  1 3.520000e-01    1.050000e+00
 TP3dq  TC2h  1 3.660000e-01    9.350000e-01
 TP4dq  TC2h  1 3.660000e-01    9.350000e-01
 TP5dq  TC2h  1 3.660000e-01    9.350000e-01
 TP6dq  TC2h  1 3.850000e-01    8.550000e-01
 TC2eq  TC1h  1 3.400000e-01    2.500000e+00
 TC3eq  TC1h  1 3.400000e-01    2.280000e+00
 TC4eq  TC1h  1 3.400000e-01    1.770000e+00
 TC5eq  TC1h  1 3.400000e-01    1.770000e+00
 TC6eq  TC1h  1 3.400000e-01    1.510000e+00
 TC2vq  TC1h  1 3.400000e-01    2.500000e+00
 TC3vq  TC1h  1 3.400000e-01    2.280000e+00
 TC4vq  TC1h  1 3.400000e-01    1.770000e+00
 TC5vq  TC1h  1 3.400000e-01    1.770000e+00
 TC6vq  TC1h  1 3.400000e-01    1.510000e+00
 TN1aq  TC1h  1 3.400000e-01    1.230000e+00
 TN2aq  TC1h  1 3.400000e-01    1.230000e+00
 TN3aq  TC1h  1 3.400000e-01    1.230000e+00
 TN4aq  TC1h  1 3.520000e-01    1.050000e+00
 TN5aq  TC1h  1 3.520000e-01    1.050000e+00
 TN6aq  TC1h  1 3.520000e-01    1.050000e+00
 TP1aq  TC1h  1 3.660000e-01    9.350000e-01
 TP2aq  TC1h  1 3.660000e-01    9.350000e-01
 TP3aq  TC1h  1 3.850000e-01    8.550000e-01
 TP4aq  TC1h  1 3.850000e-01    8.550000e-01
 TP5aq  TC1h  1 3.850000e-01    8.550000e-01
 TP6aq  TC1h  1 4.240000e-01    7.760000e-01
 TN1dq  TC1h  1 3.400000e-01    1.230000e+00
 TN2dq  TC1h  1 3.400000e-01    1.230000e+00
 TN3dq  TC1h  1 3.400000e-01    1.230000e+00
 TN4dq  TC1h  1 3.520000e-01    1.050000e+00
 TN5dq  TC1h  1 3.520000e-01    1.050000e+00
 TN6dq  TC1h  1 3.520000e-01    1.050000e+00
 TP1dq  TC1h  1 3.660000e-01    9.350000e-01
 TP2dq  TC1h  1 3.660000e-01    9.350000e-01
 TP3dq  TC1h  1 3.850000e-01    8.550000e-01
 TP4dq  TC1h  1 3.850000e-01    8.550000e-01
 TP5dq  TC1h  1 3.850000e-01    8.550000e-01
 TP6dq  TC1h  1 4.240000e-01    7.760000e-01
 TC1eq  TX4h  1 3.400000e-01    1.510000e+00
 TC2eq  TX4h  1 3.400000e-01    1.510000e+00
 TC3eq  TX4h  1 3.400000e-01    2.020000e+00
 TC4eq  TX4h  1 3.400000e-01    2.020000e+00
 TC5eq  TX4h  1 3.400000e-01    2.020000e+00
 TC6eq  TX4h  1 3.400000e-01    2.280000e+00
 TC1vq  TX4h  1 3.400000e-01    1.510000e+00
 TC2vq  TX4h  1 3.400000e-01    1.510000e+00
 TC3vq  TX4h  1 3.400000e-01    2.020000e+00
 TC4vq  TX4h  1 3.400000e-01    2.020000e+00
 TC5vq  TX4h  1 3.400000e-01    2.020000e+00
 TC6vq  TX4h  1 3.400000e-01    2.280000e+00
 TN1aq  TX4h  1 3.400000e-01    2.020000e+00
 TN2aq  TX4h  1 3.400000e-01    2.280000e+00
 TN3aq  TX4h  1 3.400000e-01    2.280000e+00
 TN4aq  TX4h  1 3.400000e-01    2.500000e+00
 TN5aq  TX4h  1 3.400000e-01    2.280000e+00
 TN6aq  TX4h  1 3.400000e-01    2.020000e+00
 TP1aq  TX4h  1 3.400000e-01    1.770000e+00
 TP2aq  TX4h  1 3.400000e-01    1.770000e+00
 TP3aq  TX4h  1 3.400000e-01    1.770000e+00
 TP4aq  TX4h  1 3.400000e-01    1.770000e+00
 TP5aq  TX4h  1 3.400000e-01    1.770000e+00
 TP6aq  TX4h  1 3.400000e-01    1.510000e+00
 TN1dq  TX4h  1 3.400000e-01    2.020000e+00
 TN2dq  TX4h  1 3.400000e-01    2.280000e+00
 TN3dq  TX4h  1 3.400000e-01    2.280000e+00
 TN4dq  TX4h  1 3.400000e-01    2.500000e+00
 TN5dq  TX4h  1 3.400000e-01    2.280000e+00
 TN6dq  TX4h  1 3.400000e-01    2.020000e+00
 TP1dq  TX4h  1 3.400000e-01    1.770000e+00
 TP2dq  TX4h  1 3.400000e-01    1.770000e+00
 TP3dq  TX4h  1 3.400000e-01    1.770000e+00
 TP4dq  TX4h  1 3.400000e-01    1.770000e+00
 TP5dq  TX4h  1 3.400000e-01    1.770000e+00
 TP6dq  TX4h  1 3.400000e-01    1.510000e+00
 TX4eq  TX3h  1 3.400000e-01    2.280000e+00
 TC1eq  TX3h  1 3.400000e-01    2.020000e+00
 TC2eq  TX3h  1 3.400000e-01    2.020000e+00
 TC3eq  TX3h  1 3.400000e-01    2.020000e+00
 TC4eq  TX3h  1 3.400000e-01    2.020000e+00
 TC5eq  TX3h  1 3.400000e-01    2.020000e+00
 TC6eq  TX3h  1 3.400000e-01    2.280000e+00
 TX4vq  TX3h  1 3.400000e-01    2.280000e+00
 TC1vq  TX3h  1 3.400000e-01    2.020000e+00
 TC2vq  TX3h  1 3.400000e-01    2.020000e+00
 TC3vq  TX3h  1 3.400000e-01    2.020000e+00
 TC4vq  TX3h  1 3.400000e-01    2.020000e+00
 TC5vq  TX3h  1 3.400000e-01    2.020000e+00
 TC6vq  TX3h  1 3.400000e-01    2.280000e+00
 TN1aq  TX3h  1 3.400000e-01    2.020000e+00
 TN2aq  TX3h  1 3.400000e-01    2.020000e+00
 TN3aq  TX3h  1 3.400000e-01    2.020000e+00
 TN4aq  TX3h  1 3.400000e-01    2.280000e+00
 TN5aq  TX3h  1 3.400000e-01    2.020000e+00
 TN6aq  TX3h  1 3.400000e-01    1.770000e+00
 TP1aq  TX3h  1 3.400000e-01    1.770000e+00
 TP2aq  TX3h  1 3.400000e-01    1.770000e+00
 TP3aq  TX3h  1 3.400000e-01    1.770000e+00
 TP4aq  TX3h  1 3.400000e-01    1.510000e+00
 TP5aq  TX3h  1 3.400000e-01    1.510000e+00
 TP6aq  TX3h  1 3.400000e-01    1.510000e+00
 TN1dq  TX3h  1 3.400000e-01    2.020000e+00
 TN2dq  TX3h  1 3.400000e-01    2.020000e+00
 TN3dq  TX3h  1 3.400000e-01    2.020000e+00
 TN4dq  TX3h  1 3.400000e-01    2.280000e+00
 TN5dq  TX3h  1 3.400000e-01    2.020000e+00
 TN6dq  TX3h  1 3.400000e-01    1.770000e+00
 TP1dq  TX3h  1 3.400000e-01    1.770000e+00
 TP2dq  TX3h  1 3.400000e-01    1.770000e+00
 TP3dq  TX3h  1 3.400000e-01    1.770000e+00
 TP4dq  TX3h  1 3.400000e-01    1.510000e+00
 TP5dq  TX3h  1 3.400000e-01    1.510000e+00
 TP6dq  TX3h  1 3.400000e-01    1.510000e+00
 TX3eq  TX2h  1 3.400000e-01    2.500000e+00
 TX4eq  TX2h  1 3.400000e-01    2.280000e+00
 TC1eq  TX2h  1 3.400000e-01    2.020000e+00
 TC2eq  TX2h  1 3.400000e-01    2.020000e+00
 TC3eq  TX2h  1 3.400000e-01    2.020000e+00
 TC4eq  TX2h  1 3.400000e-01    2.020000e+00
 TC5eq  TX2h  1 3.400000e-01    2.020000e+00
 TC6eq  TX2h  1 3.400000e-01    2.280000e+00
 TX3vq  TX2h  1 3.400000e-01    2.500000e+00
 TX4vq  TX2h  1 3.400000e-01    2.280000e+00
 TC1vq  TX2h  1 3.400000e-01    2.020000e+00
 TC2vq  TX2h  1 3.400000e-01    2.020000e+00
 TC3vq  TX2h  1 3.400000e-01    2.020000e+00
 TC4vq  TX2h  1 3.400000e-01    2.020000e+00
 TC5vq  TX2h  1 3.400000e-01    2.020000e+00
 TC6vq  TX2h  1 3.400000e-01    2.280000e+00
 TN1aq  TX2h  1 3.400000e-01    1.770000e+00
 TN2aq  TX2h  1 3.400000e-01    1.770000e+00
 TN3aq  TX2h  1 3.400000e-01    1.770000e+00
 TN4aq  TX2h  1 3.400000e-01    1.770000e+00
 TN5aq  TX2h  1 3.400000e-01    1.770000e+00
 TN6aq  TX2h  1 3.400000e-01    1.510000e+00
 TP1aq  TX2h  1 3.400000e-01    1.510000e+00
 TP2aq  TX2h  1 3.400000e-01    1.510000e+00
 TP3aq  TX2h  1 3.400000e-01    1.510000e+00
 TP4aq  TX2h  1 3.400000e-01    1.510000e+00
 TP5aq  TX2h  1 3.400000e-01    1.510000e+00
 TP6aq  TX2h  1 3.400000e-01    1.230000e+00
 TN1dq  TX2h  1 3.400000e-01    1.770000e+00
 TN2dq  TX2h  1 3.400000e-01    1.770000e+00
 TN3dq  TX2h  1 3.400000e-01    1.770000e+00
 TN4dq  TX2h  1 3.400000e-01    1.770000e+00
 TN5dq  TX2h  1 3.400000e-01    1.770000e+00
 TN6dq  TX2h  1 3.400000e-01    1.510000e+00
 TP1dq  TX2h  1 3.400000e-01    1.510000e+00
 TP2dq  TX2h  1 3.400000e-01    1.510000e+00
 TP3dq  TX2h  1 3.400000e-01    1.510000e+00
 TP4dq  TX2h  1 3.400000e-01    1.510000e+00
 TP5dq  TX2h  1 3.400000e-01    1.510000e+00
 TP6dq  TX2h  1 3.400000e-01    1.230000e+00
 TX2eq  TX1h  1 3.400000e-01    2.500000e+00
 TX3eq  TX1h  1 3.400000e-01    2.500000e+00
 TX4eq  TX1h  1 3.400000e-01    2.280000e+00
 TC1eq  TX1h  1 3.400000e-01    2.020000e+00
 TC2eq  TX1h  1 3.400000e-01    2.020000e+00
 TC3eq  TX1h  1 3.400000e-01    2.280000e+00
 TC4eq  TX1h  1 3.400000e-01    2.280000e+00
 TC5eq  TX1h  1 3.400000e-01    2.280000e+00
 TC6eq  TX1h  1 3.400000e-01    2.280000e+00
 TX2vq  TX1h  1 3.400000e-01    2.500000e+00
 TX3vq  TX1h  1 3.400000e-01    2.500000e+00
 TX4vq  TX1h  1 3.400000e-01    2.280000e+00
 TC1vq  TX1h  1 3.400000e-01    2.020000e+00
 TC2vq  TX1h  1 3.400000e-01    2.020000e+00
 TC3vq  TX1h  1 3.400000e-01    2.280000e+00
 TC4vq  TX1h  1 3.400000e-01    2.280000e+00
 TC5vq  TX1h  1 3.400000e-01    2.280000e+00
 TC6vq  TX1h  1 3.400000e-01    2.280000e+00
 TN1aq  TX1h  1 3.400000e-01    1.770000e+00
 TN2aq  TX1h  1 3.400000e-01    1.770000e+00
 TN3aq  TX1h  1 3.400000e-01    1.770000e+00
 TN4aq  TX1h  1 3.400000e-01    1.510000e+00
 TN5aq  TX1h  1 3.400000e-01    1.510000e+00
 TN6aq  TX1h  1 3.400000e-01    1.230000e+00
 TP1aq  TX1h  1 3.400000e-01    1.230000e+00
 TP2aq  TX1h  1 3.400000e-01    1.230000e+00
 TP3aq  TX1h  1 3.400000e-01    1.230000e+00
 TP4aq  TX1h  1 3.400000e-01    1.230000e+00
 TP5aq  TX1h  1 3.520000e-01    1.050000e+00
 TP6aq  TX1h  1 3.520000e-01    1.050000e+00
 TN1dq  TX1h  1 3.400000e-01    1.770000e+00
 TN2dq  TX1h  1 3.400000e-01    1.770000e+00
 TN3dq  TX1h  1 3.400000e-01    1.770000e+00
 TN4dq  TX1h  1 3.400000e-01    1.510000e+00
 TN5dq  TX1h  1 3.400000e-01    1.510000e+00
 TN6dq  TX1h  1 3.400000e-01    1.230000e+00
 TP1dq  TX1h  1 3.400000e-01    1.230000e+00
 TP2dq  TX1h  1 3.400000e-01    1.230000e+00
 TP3dq  TX1h  1 3.400000e-01    1.230000e+00
 TP4dq  TX1h  1 3.400000e-01    1.230000e+00
 TP5dq  TX1h  1 3.520000e-01    1.050000e+00
 TP6dq  TX1h  1 3.520000e-01    1.050000e+00
 TP6dh  TP5d  1 3.400000e-01    2.990000e+00
 TP6dh  TP4d  1 3.400000e-01    2.740000e+00
 TP6dh  TP3d  1 3.400000e-01    2.500000e+00
 TP6dh  TP2d  1 3.400000e-01    2.500000e+00
 TP6dh  TP1d  1 3.400000e-01    2.280000e+00
 TP6dh  TN6d  1 3.400000e-01    2.020000e+00
 TP6dh  TN5d  1 3.400000e-01    1.510000e+00
 TP6dh  TN4d  1 3.400000e-01    1.230000e+00
 TP6dh  TN3d  1 3.400000e-01    1.230000e+00
 TP6dh  TN2d  1 3.520000e-01    1.050000e+00
 TP6dh  TN1d  1 3.660000e-01    9.350000e-01
 TP6dh  TP5q  1 3.400000e-01    3.750000e+00
 TP6dh  TP4q  1 3.400000e-01    3.470000e+00
 TP6dh  TP3q  1 3.400000e-01    3.220000e+00
 TP6dh  TP2q  1 3.400000e-01    3.220000e+00
 TP6dh  TP1q  1 3.400000e-01    2.990000e+00
 TP6dh  TN6q  1 3.400000e-01    2.740000e+00
 TP6dh  TN5q  1 3.400000e-01    2.280000e+00
 TP6dh  TN4q  1 3.400000e-01    2.020000e+00
 TP6dh  TN3q  1 3.400000e-01    1.770000e+00
 TP6dh  TN2q  1 3.400000e-01    1.510000e+00
 TP6dh  TN1q  1 3.400000e-01    1.230000e+00
 TP6dh  TC6q  1 3.400000e-01    1.230000e+00
 TP6dh  TC5q  1 3.520000e-01    1.050000e+00
 TP6dh  TC4q  1 3.660000e-01    9.350000e-01
 TP6dh  TC3q  1 3.850000e-01    8.550000e-01
 TP6dh  TC2q  1 3.850000e-01    8.550000e-01
 TP6dh  TC1q  1 4.240000e-01    7.760000e-01
 TP6dh  TX4q  1 3.400000e-01    1.510000e+00
 TP6dh  TX3q  1 3.400000e-01    1.510000e+00
 TP6dh  TX2q  1 3.400000e-01    1.230000e+00
 TP6dh  TX1q  1 3.520000e-01    1.050000e+00
 TP5dh  TP4d  1 3.400000e-01    2.500000e+00
 TP5dh  TP3d  1 3.400000e-01    2.280000e+00
 TP5dh  TP2d  1 3.400000e-01    2.280000e+00
 TP5dh  TP1d  1 3.400000e-01    2.020000e+00
 TP5dh  TN6d  1 3.400000e-01    1.770000e+00
 TP5dh  TN5d  1 3.400000e-01    1.510000e+00
 TP5dh  TN4d  1 3.400000e-01    1.510000e+00
 TP5dh  TN3d  1 3.400000e-01    1.230000e+00
 TP5dh  TN2d  1 3.520000e-01    1.050000e+00
 TP5dh  TN1d  1 3.660000e-01    9.350000e-01
 TP5dh  TP4q  1 3.400000e-01    3.220000e+00
 TP5dh  TP3q  1 3.400000e-01    2.990000e+00
 TP5dh  TP2q  1 3.400000e-01    2.990000e+00
 TP5dh  TP1q  1 3.400000e-01    2.740000e+00
 TP5dh  TN6q  1 3.400000e-01    2.500000e+00
 TP5dh  TN5q  1 3.400000e-01    2.280000e+00
 TP5dh  TN4q  1 3.400000e-01    2.280000e+00
 TP5dh  TN3q  1 3.400000e-01    1.770000e+00
 TP5dh  TN2q  1 3.400000e-01    1.510000e+00
 TP5dh  TN1q  1 3.400000e-01    1.230000e+00
 TP5dh  TC6q  1 3.400000e-01    1.230000e+00
 TP5dh  TC5q  1 3.400000e-01    1.230000e+00
 TP5dh  TC4q  1 3.520000e-01    1.050000e+00
 TP5dh  TC3q  1 3.660000e-01    9.350000e-01
 TP5dh  TC2q  1 3.660000e-01    9.350000e-01
 TP5dh  TC1q  1 3.850000e-01    8.550000e-01
 TP5dh  TX4q  1 3.400000e-01    1.770000e+00
 TP5dh  TX3q  1 3.400000e-01    1.510000e+00
 TP5dh  TX2q  1 3.400000e-01    1.510000e+00
 TP5dh  TX1q  1 3.520000e-01    1.050000e+00
 TP4dh  TP3d  1 3.400000e-01    2.280000e+00
 TP4dh  TP2d  1 3.400000e-01    2.280000e+00
 TP4dh  TP1d  1 3.400000e-01    2.020000e+00
 TP4dh  TN6d  1 3.400000e-01    1.770000e+00
 TP4dh  TN5d  1 3.400000e-01    1.510000e+00
 TP4dh  TN4d  1 3.400000e-01    1.510000e+00
 TP4dh  TN3d  1 3.400000e-01    1.230000e+00
 TP4dh  TN2d  1 3.400000e-01    1.230000e+00
 TP4dh  TN1d  1 3.520000e-01    1.050000e+00
 TP4dh  TP3q  1 3.400000e-01    2.990000e+00
 TP4dh  TP2q  1 3.400000e-01    2.990000e+00
 TP4dh  TP1q  1 3.400000e-01    2.740000e+00
 TP4dh  TN6q  1 3.400000e-01    2.500000e+00
 TP4dh  TN5q  1 3.400000e-01    2.280000e+00
 TP4dh  TN4q  1 3.400000e-01    2.280000e+00
 TP4dh  TN3q  1 3.400000e-01    2.020000e+00
 TP4dh  TN2q  1 3.400000e-01    1.770000e+00
 TP4dh  TN1q  1 3.400000e-01    1.510000e+00
 TP4dh  TC6q  1 3.400000e-01    1.510000e+00
 TP4dh  TC5q  1 3.400000e-01    1.230000e+00
 TP4dh  TC4q  1 3.520000e-01    1.050000e+00
 TP4dh  TC3q  1 3.660000e-01    9.350000e-01
 TP4dh  TC2q  1 3.660000e-01    9.350000e-01
 TP4dh  TC1q  1 3.850000e-01    8.550000e-01
 TP4dh  TX4q  1 3.400000e-01    1.770000e+00
 TP4dh  TX3q  1 3.400000e-01    1.510000e+00
 TP4dh  TX2q  1 3.400000e-01    1.510000e+00
 TP4dh  TX1q  1 3.400000e-01    1.230000e+00
 TP3dh  TP2d  1 3.400000e-01    2.280000e+00
 TP3dh  TP1d  1 3.400000e-01    2.020000e+00
 TP3dh  TN6d  1 3.400000e-01    1.770000e+00
 TP3dh  TN5d  1 3.400000e-01    1.510000e+00
 TP3dh  TN4d  1 3.400000e-01    1.510000e+00
 TP3dh  TN3d  1 3.400000e-01    1.230000e+00
 TP3dh  TN2d  1 3.400000e-01    1.230000e+00
 TP3dh  TN1d  1 3.400000e-01    1.230000e+00
 TP3dh  TP2q  1 3.400000e-01    2.990000e+00
 TP3dh  TP1q  1 3.400000e-01    2.740000e+00
 TP3dh  TN6q  1 3.400000e-01    2.500000e+00
 TP3dh  TN5q  1 3.400000e-01    2.280000e+00
 TP3dh  TN4q  1 3.400000e-01    2.280000e+00
 TP3dh  TN3q  1 3.400000e-01    2.020000e+00
 TP3dh  TN2q  1 3.400000e-01    2.020000e+00
 TP3dh  TN1q  1 3.400000e-01    1.770000e+00
 TP3dh  TC6q  1 3.400000e-01    1.770000e+00
 TP3dh  TC5q  1 3.400000e-01    1.510000e+00
 TP3dh  TC4q  1 3.400000e-01    1.230000e+00
 TP3dh  TC3q  1 3.660000e-01    9.350000e-01
 TP3dh  TC2q  1 3.660000e-01    9.350000e-01
 TP3dh  TC1q  1 3.850000e-01    8.550000e-01
 TP3dh  TX4q  1 3.400000e-01    1.770000e+00
 TP3dh  TX3q  1 3.400000e-01    1.770000e+00
 TP3dh  TX2q  1 3.400000e-01    1.510000e+00
 TP3dh  TX1q  1 3.400000e-01    1.230000e+00
 TP2dh  TP1d  1 3.400000e-01    2.020000e+00
 TP2dh  TN6d  1 3.400000e-01    2.020000e+00
 TP2dh  TN5d  1 3.400000e-01    1.770000e+00
 TP2dh  TN4d  1 3.400000e-01    1.510000e+00
 TP2dh  TN3d  1 3.400000e-01    1.230000e+00
 TP2dh  TN2d  1 3.400000e-01    1.230000e+00
 TP2dh  TN1d  1 3.400000e-01    1.230000e+00
 TP2dh  TP1q  1 3.400000e-01    2.740000e+00
 TP2dh  TN6q  1 3.400000e-01    2.740000e+00
 TP2dh  TN5q  1 3.400000e-01    2.500000e+00
 TP2dh  TN4q  1 3.400000e-01    2.280000e+00
 TP2dh  TN3q  1 3.400000e-01    2.020000e+00
 TP2dh  TN2q  1 3.400000e-01    2.020000e+00
 TP2dh  TN1q  1 3.400000e-01    2.020000e+00
 TP2dh  TC6q  1 3.400000e-01    1.770000e+00
 TP2dh  TC5q  1 3.400000e-01    1.510000e+00
 TP2dh  TC4q  1 3.400000e-01    1.230000e+00
 TP2dh  TC3q  1 3.520000e-01    1.050000e+00
 TP2dh  TC2q  1 3.520000e-01    1.050000e+00
 TP2dh  TC1q  1 3.660000e-01    9.350000e-01
 TP2dh  TX4q  1 3.400000e-01    1.770000e+00
 TP2dh  TX3q  1 3.400000e-01    1.770000e+00
 TP2dh  TX2q  1 3.400000e-01    1.510000e+00
 TP2dh  TX1q  1 3.400000e-01    1.230000e+00
 TP1dh  TN6d  1 3.400000e-01    2.020000e+00
 TP1dh  TN5d  1 3.400000e-01    1.770000e+00
 TP1dh  TN4d  1 3.400000e-01    1.770000e+00
 TP1dh  TN3d  1 3.400000e-01    1.230000e+00
 TP1dh  TN2d  1 3.400000e-01    1.230000e+00
 TP1dh  TN1d  1 3.400000e-01    1.230000e+00
 TP1dh  TN6q  1 3.400000e-01    2.740000e+00
 TP1dh  TN5q  1 3.400000e-01    2.500000e+00
 TP1dh  TN4q  1 3.400000e-01    2.500000e+00
 TP1dh  TN3q  1 3.400000e-01    2.020000e+00
 TP1dh  TN2q  1 3.400000e-01    2.020000e+00
 TP1dh  TN1q  1 3.400000e-01    2.020000e+00
 TP1dh  TC6q  1 3.400000e-01    1.770000e+00
 TP1dh  TC5q  1 3.400000e-01    1.510000e+00
 TP1dh  TC4q  1 3.400000e-01    1.230000e+00
 TP1dh  TC3q  1 3.520000e-01    1.050000e+00
 TP1dh  TC2q  1 3.520000e-01    1.050000e+00
 TP1dh  TC1q  1 3.660000e-01    9.350000e-01
 TP1dh  TX4q  1 3.400000e-01    1.770000e+00
 TP1dh  TX3q  1 3.400000e-01    1.770000e+00
 TP1dh  TX2q  1 3.400000e-01    1.510000e+00
 TP1dh  TX1q  1 3.400000e-01    1.230000e+00
 TN6dh  TN5d  1 3.400000e-01    2.020000e+00
 TN6dh  TN4d  1 3.400000e-01    2.020000e+00
 TN6dh  TN3d  1 3.400000e-01    1.510000e+00
 TN6dh  TN2d  1 3.400000e-01    1.230000e+00
 TN6dh  TN1d  1 3.400000e-01    1.230000e+00
 TN6dh  TN5q  1 3.400000e-01    2.740000e+00
 TN6dh  TN4q  1 3.400000e-01    2.740000e+00
 TN6dh  TN3q  1 3.400000e-01    2.280000e+00
 TN6dh  TN2q  1 3.400000e-01    2.020000e+00
 TN6dh  TN1q  1 3.400000e-01    2.020000e+00
 TN6dh  TC6q  1 3.400000e-01    2.020000e+00
 TN6dh  TC5q  1 3.400000e-01    1.770000e+00
 TN6dh  TC4q  1 3.400000e-01    1.510000e+00
 TN6dh  TC3q  1 3.400000e-01    1.230000e+00
 TN6dh  TC2q  1 3.400000e-01    1.230000e+00
 TN6dh  TC1q  1 3.520000e-01    1.050000e+00
 TN6dh  TX4q  1 3.400000e-01    2.020000e+00
 TN6dh  TX3q  1 3.400000e-01    1.770000e+00
 TN6dh  TX2q  1 3.400000e-01    1.510000e+00
 TN6dh  TX1q  1 3.400000e-01    1.230000e+00
 TN5dh  TN4d  1 3.400000e-01    1.770000e+00
 TN5dh  TN3d  1 3.400000e-01    1.510000e+00
 TN5dh  TN2d  1 3.400000e-01    1.510000e+00
 TN5dh  TN1d  1 3.400000e-01    1.230000e+00
 TN5dh  TN4q  1 3.400000e-01    2.500000e+00
 TN5dh  TN3q  1 3.400000e-01    2.280000e+00
 TN5dh  TN2q  1 3.400000e-01    2.280000e+00
 TN5dh  TN1q  1 3.400000e-01    2.020000e+00
 TN5dh  TC6q  1 3.400000e-01    2.020000e+00
 TN5dh  TC5q  1 3.400000e-01    1.770000e+00
 TN5dh  TC4q  1 3.400000e-01    1.510000e+00
 TN5dh  TC3q  1 3.400000e-01    1.510000e+00
 TN5dh  TC2q  1 3.400000e-01    1.230000e+00
 TN5dh  TC1q  1 3.520000e-01    1.050000e+00
 TN5dh  TX4q  1 3.400000e-01    2.280000e+00
 TN5dh  TX3q  1 3.400000e-01    2.020000e+00
 TN5dh  TX2q  1 3.400000e-01    1.770000e+00
 TN5dh  TX1q  1 3.400000e-01    1.510000e+00
 TN4dh  TN3d  1 3.400000e-01    1.510000e+00
 TN4dh  TN2d  1 3.400000e-01    1.510000e+00
 TN4dh  TN1d  1 3.400000e-01    1.230000e+00
 TN4dh  TN3q  1 3.400000e-01    2.280000e+00
 TN4dh  TN2q  1 3.400000e-01    2.280000e+00
 TN4dh  TN1q  1 3.400000e-01    2.020000e+00
 TN4dh  TC6q  1 3.400000e-01    2.020000e+00
 TN4dh  TC5q  1 3.400000e-01    1.770000e+00
 TN4dh  TC4q  1 3.400000e-01    1.770000e+00
 TN4dh  TC3q  1 3.400000e-01    1.510000e+00
 TN4dh  TC2q  1 3.400000e-01    1.230000e+00
 TN4dh  TC1q  1 3.520000e-01    1.050000e+00
 TN4dh  TX4q  1 3.400000e-01    2.500000e+00
 TN4dh  TX3q  1 3.400000e-01    2.280000e+00
 TN4dh  TX2q  1 3.400000e-01    1.770000e+00
 TN4dh  TX1q  1 3.400000e-01    1.510000e+00
 TN3dh  TN2d  1 3.400000e-01    1.510000e+00
 TN3dh  TN1d  1 3.400000e-01    1.230000e+00
 TN3dh  TN2q  1 3.400000e-01    2.280000e+00
 TN3dh  TN1q  1 3.400000e-01    2.020000e+00
 TN3dh  TC6q  1 3.400000e-01    2.020000e+00
 TN3dh  TC5q  1 3.400000e-01    1.770000e+00
 TN3dh  TC4q  1 3.400000e-01    1.770000e+00
 TN3dh  TC3q  1 3.400000e-01    1.510000e+00
 TN3dh  TC2q  1 3.400000e-01    1.510000e+00
 TN3dh  TC1q  1 3.400000e-01    1.230000e+00
 TN3dh  TX4q  1 3.400000e-01    2.280000e+00
 TN3dh  TX3q  1 3.400000e-01    2.020000e+00
 TN3dh  TX2q  1 3.400000e-01    1.770000e+00
 TN3dh  TX1q  1 3.400000e-01    1.770000e+00
 TN2dh  TN1d  1 3.400000e-01    1.230000e+00
 TN2dh  TN1q  1 3.400000e-01    2.020000e+00
 TN2dh  TC6q  1 3.400000e-01    2.020000e+00
 TN2dh  TC5q  1 3.400000e-01    1.770000e+00
 TN2dh  TC4q  1 3.400000e-01    1.770000e+00
 TN2dh  TC3q  1 3.400000e-01    1.770000e+00
 TN2dh  TC2q  1 3.400000e-01    1.510000e+00
 TN2dh  TC1q  1 3.400000e-01    1.230000e+00
 TN2dh  TX4q  1 3.400000e-01    2.280000e+00
 TN2dh  TX3q  1 3.400000e-01    2.020000e+00
 TN2dh  TX2q  1 3.400000e-01    1.770000e+00
 TN2dh  TX1q  1 3.400000e-01    1.770000e+00
 TN1dh  TC6q  1 3.400000e-01    2.280000e+00
 TN1dh  TC5q  1 3.400000e-01    2.020000e+00
 TN1dh  TC4q  1 3.400000e-01    2.020000e+00
 TN1dh  TC3q  1 3.400000e-01    1.770000e+00
 TN1dh  TC2q  1 3.400000e-01    1.510000e+00
 TN1dh  TC1q  1 3.400000e-01    1.230000e+00
 TN1dh  TX4q  1 3.400000e-01    2.020000e+00
 TN1dh  TX3q  1 3.400000e-01    2.020000e+00
 TN1dh  TX2q  1 3.400000e-01    1.770000e+00
 TN1dh  TX1q  1 3.400000e-01    1.770000e+00
 TP6ah  TP5a  1 3.400000e-01    2.990000e+00
 TP6ah  TP4a  1 3.400000e-01    2.740000e+00
 TP6ah  TP3a  1 3.400000e-01    2.500000e+00
 TP6ah  TP2a  1 3.400000e-01    2.500000e+00
 TP6ah  TP1a  1 3.400000e-01    2.280000e+00
 TP6ah  TN6a  1 3.400000e-01    2.020000e+00
 TP6ah  TN5a  1 3.400000e-01    1.510000e+00
 TP6ah  TN4a  1 3.400000e-01    1.230000e+00
 TP6ah  TN3a  1 3.400000e-01    1.230000e+00
 TP6ah  TN2a  1 3.520000e-01    1.050000e+00
 TP6ah  TN1a  1 3.660000e-01    9.350000e-01
 TP6ah  TP5q  1 3.400000e-01    3.750000e+00
 TP6ah  TP4q  1 3.400000e-01    3.470000e+00
 TP6ah  TP3q  1 3.400000e-01    3.220000e+00
 TP6ah  TP2q  1 3.400000e-01    3.220000e+00
 TP6ah  TP1q  1 3.400000e-01    2.990000e+00
 TP6ah  TN6q  1 3.400000e-01    2.740000e+00
 TP6ah  TN5q  1 3.400000e-01    2.280000e+00
 TP6ah  TN4q  1 3.400000e-01    2.020000e+00
 TP6ah  TN3q  1 3.400000e-01    1.770000e+00
 TP6ah  TN2q  1 3.400000e-01    1.510000e+00
 TP6ah  TN1q  1 3.400000e-01    1.230000e+00
 TP6ah  TC6q  1 3.400000e-01    1.230000e+00
 TP6ah  TC5q  1 3.520000e-01    1.050000e+00
 TP6ah  TC4q  1 3.660000e-01    9.350000e-01
 TP6ah  TC3q  1 3.850000e-01    8.550000e-01
 TP6ah  TC2q  1 3.850000e-01    8.550000e-01
 TP6ah  TC1q  1 4.240000e-01    7.760000e-01
 TP6ah  TX4q  1 3.400000e-01    1.510000e+00
 TP6ah  TX3q  1 3.400000e-01    1.510000e+00
 TP6ah  TX2q  1 3.400000e-01    1.230000e+00
 TP6ah  TX1q  1 3.520000e-01    1.050000e+00
 TP5ah  TP4a  1 3.400000e-01    2.500000e+00
 TP5ah  TP3a  1 3.400000e-01    2.280000e+00
 TP5ah  TP2a  1 3.400000e-01    2.280000e+00
 TP5ah  TP1a  1 3.400000e-01    2.020000e+00
 TP5ah  TN6a  1 3.400000e-01    1.770000e+00
 TP5ah  TN5a  1 3.400000e-01    1.510000e+00
 TP5ah  TN4a  1 3.400000e-01    1.510000e+00
 TP5ah  TN3a  1 3.400000e-01    1.230000e+00
 TP5ah  TN2a  1 3.520000e-01    1.050000e+00
 TP5ah  TN1a  1 3.660000e-01    9.350000e-01
 TP5ah  TP4q  1 3.400000e-01    3.220000e+00
 TP5ah  TP3q  1 3.400000e-01    2.990000e+00
 TP5ah  TP2q  1 3.400000e-01    2.990000e+00
 TP5ah  TP1q  1 3.400000e-01    2.740000e+00
 TP5ah  TN6q  1 3.400000e-01    2.500000e+00
 TP5ah  TN5q  1 3.400000e-01    2.280000e+00
 TP5ah  TN4q  1 3.400000e-01    2.280000e+00
 TP5ah  TN3q  1 3.400000e-01    1.770000e+00
 TP5ah  TN2q  1 3.400000e-01    1.510000e+00
 TP5ah  TN1q  1 3.400000e-01    1.230000e+00
 TP5ah  TC6q  1 3.400000e-01    1.230000e+00
 TP5ah  TC5q  1 3.400000e-01    1.230000e+00
 TP5ah  TC4q  1 3.520000e-01    1.050000e+00
 TP5ah  TC3q  1 3.660000e-01    9.350000e-01
 TP5ah  TC2q  1 3.660000e-01    9.350000e-01
 TP5ah  TC1q  1 3.850000e-01    8.550000e-01
 TP5ah  TX4q  1 3.400000e-01    1.770000e+00
 TP5ah  TX3q  1 3.400000e-01    1.510000e+00
 TP5ah  TX2q  1 3.400000e-01    1.510000e+00
 TP5ah  TX1q  1 3.520000e-01    1.050000e+00
 TP4ah  TP3a  1 3.400000e-01    2.280000e+00
 TP4ah  TP2a  1 3.400000e-01    2.280000e+00
 TP4ah  TP1a  1 3.400000e-01    2.020000e+00
 TP4ah  TN6a  1 3.400000e-01    1.770000e+00
 TP4ah  TN5a  1 3.400000e-01    1.510000e+00
 TP4ah  TN4a  1 3.400000e-01    1.510000e+00
 TP4ah  TN3a  1 3.400000e-01    1.230000e+00
 TP4ah  TN2a  1 3.400000e-01    1.230000e+00
 TP4ah  TN1a  1 3.520000e-01    1.050000e+00
 TP4ah  TP3q  1 3.400000e-01    2.990000e+00
 TP4ah  TP2q  1 3.400000e-01    2.990000e+00
 TP4ah  TP1q  1 3.400000e-01    2.740000e+00
 TP4ah  TN6q  1 3.400000e-01    2.500000e+00
 TP4ah  TN5q  1 3.400000e-01    2.280000e+00
 TP4ah  TN4q  1 3.400000e-01    2.280000e+00
 TP4ah  TN3q  1 3.400000e-01    2.020000e+00
 TP4ah  TN2q  1 3.400000e-01    1.770000e+00
 TP4ah  TN1q  1 3.400000e-01    1.510000e+00
 TP4ah  TC6q  1 3.400000e-01    1.510000e+00
 TP4ah  TC5q  1 3.400000e-01    1.230000e+00
 TP4ah  TC4q  1 3.520000e-01    1.050000e+00
 TP4ah  TC3q  1 3.660000e-01    9.350000e-01
 TP4ah  TC2q  1 3.660000e-01    9.350000e-01
 TP4ah  TC1q  1 3.850000e-01    8.550000e-01
 TP4ah  TX4q  1 3.400000e-01    1.770000e+00
 TP4ah  TX3q  1 3.400000e-01    1.510000e+00
 TP4ah  TX2q  1 3.400000e-01    1.510000e+00
 TP4ah  TX1q  1 3.400000e-01    1.230000e+00
 TP3ah  TP2a  1 3.400000e-01    2.280000e+00
 TP3ah  TP1a  1 3.400000e-01    2.020000e+00
 TP3ah  TN6a  1 3.400000e-01    1.770000e+00
 TP3ah  TN5a  1 3.400000e-01    1.510000e+00
 TP3ah  TN4a  1 3.400000e-01    1.510000e+00
 TP3ah  TN3a  1 3.400000e-01    1.230000e+00
 TP3ah  TN2a  1 3.400000e-01    1.230000e+00
 TP3ah  TN1a  1 3.400000e-01    1.230000e+00
 TP3ah  TP2q  1 3.400000e-01    2.990000e+00
 TP3ah  TP1q  1 3.400000e-01    2.740000e+00
 TP3ah  TN6q  1 3.400000e-01    2.500000e+00
 TP3ah  TN5q  1 3.400000e-01    2.280000e+00
 TP3ah  TN4q  1 3.400000e-01    2.280000e+00
 TP3ah  TN3q  1 3.400000e-01    2.020000e+00
 TP3ah  TN2q  1 3.400000e-01    2.020000e+00
 TP3ah  TN1q  1 3.400000e-01    1.770000e+00
 TP3ah  TC6q  1 3.400000e-01    1.770000e+00
 TP3ah  TC5q  1 3.400000e-01    1.510000e+00
 TP3ah  TC4q  1 3.400000e-01    1.230000e+00
 TP3ah  TC3q  1 3.660000e-01    9.350000e-01
 TP3ah  TC2q  1 3.660000e-01    9.350000e-01
 TP3ah  TC1q  1 3.850000e-01    8.550000e-01
 TP3ah  TX4q  1 3.400000e-01    1.770000e+00
 TP3ah  TX3q  1 3.400000e-01    1.770000e+00
 TP3ah  TX2q  1 3.400000e-01    1.510000e+00
 TP3ah  TX1q  1 3.400000e-01    1.230000e+00
 TP2ah  TP1a  1 3.400000e-01    2.020000e+00
 TP2ah  TN6a  1 3.400000e-01    2.020000e+00
 TP2ah  TN5a  1 3.400000e-01    1.770000e+00
 TP2ah  TN4a  1 3.400000e-01    1.510000e+00
 TP2ah  TN3a  1 3.400000e-01    1.230000e+00
 TP2ah  TN2a  1 3.400000e-01    1.230000e+00
 TP2ah  TN1a  1 3.400000e-01    1.230000e+00
 TP2ah  TP1q  1 3.400000e-01    2.740000e+00
 TP2ah  TN6q  1 3.400000e-01    2.740000e+00
 TP2ah  TN5q  1 3.400000e-01    2.500000e+00
 TP2ah  TN4q  1 3.400000e-01    2.280000e+00
 TP2ah  TN3q  1 3.400000e-01    2.020000e+00
 TP2ah  TN2q  1 3.400000e-01    2.020000e+00
 TP2ah  TN1q  1 3.400000e-01    2.020000e+00
 TP2ah  TC6q  1 3.400000e-01    1.770000e+00
 TP2ah  TC5q  1 3.400000e-01    1.510000e+00
 TP2ah  TC4q  1 3.400000e-01    1.230000e+00
 TP2ah  TC3q  1 3.520000e-01    1.050000e+00
 TP2ah  TC2q  1 3.520000e-01    1.050000e+00
 TP2ah  TC1q  1 3.660000e-01    9.350000e-01
 TP2ah  TX4q  1 3.400000e-01    1.770000e+00
 TP2ah  TX3q  1 3.400000e-01    1.770000e+00
 TP2ah  TX2q  1 3.400000e-01    1.510000e+00
 TP2ah  TX1q  1 3.400000e-01    1.230000e+00
 TP1ah  TN6a  1 3.400000e-01    2.020000e+00
 TP1ah  TN5a  1 3.400000e-01    1.770000e+00
 TP1ah  TN4a  1 3.400000e-01    1.770000e+00
 TP1ah  TN3a  1 3.400000e-01    1.230000e+00
 TP1ah  TN2a  1 3.400000e-01    1.230000e+00
 TP1ah  TN1a  1 3.400000e-01    1.230000e+00
 TP1ah  TN6q  1 3.400000e-01    2.740000e+00
 TP1ah  TN5q  1 3.400000e-01    2.500000e+00
 TP1ah  TN4q  1 3.400000e-01    2.500000e+00
 TP1ah  TN3q  1 3.400000e-01    2.020000e+00
 TP1ah  TN2q  1 3.400000e-01    2.020000e+00
 TP1ah  TN1q  1 3.400000e-01    2.020000e+00
 TP1ah  TC6q  1 3.400000e-01    1.770000e+00
 TP1ah  TC5q  1 3.400000e-01    1.510000e+00
 TP1ah  TC4q  1 3.400000e-01    1.230000e+00
 TP1ah  TC3q  1 3.520000e-01    1.050000e+00
 TP1ah  TC2q  1 3.520000e-01    1.050000e+00
 TP1ah  TC1q  1 3.660000e-01    9.350000e-01
 TP1ah  TX4q  1 3.400000e-01    1.770000e+00
 TP1ah  TX3q  1 3.400000e-01    1.770000e+00
 TP1ah  TX2q  1 3.400000e-01    1.510000e+00
 TP1ah  TX1q  1 3.400000e-01    1.230000e+00
 TN6ah  TN5a  1 3.400000e-01    2.020000e+00
 TN6ah  TN4a  1 3.400000e-01    2.020000e+00
 TN6ah  TN3a  1 3.400000e-01    1.510000e+00
 TN6ah  TN2a  1 3.400000e-01    1.230000e+00
 TN6ah  TN1a  1 3.400000e-01    1.230000e+00
 TN6ah  TN5q  1 3.400000e-01    2.740000e+00
 TN6ah  TN4q  1 3.400000e-01    2.740000e+00
 TN6ah  TN3q  1 3.400000e-01    2.280000e+00
 TN6ah  TN2q  1 3.400000e-01    2.020000e+00
 TN6ah  TN1q  1 3.400000e-01    2.020000e+00
 TN6ah  TC6q  1 3.400000e-01    2.020000e+00
 TN6ah  TC5q  1 3.400000e-01    1.770000e+00
 TN6ah  TC4q  1 3.400000e-01    1.510000e+00
 TN6ah  TC3q  1 3.400000e-01    1.230000e+00
 TN6ah  TC2q  1 3.400000e-01    1.230000e+00
 TN6ah  TC1q  1 3.520000e-01    1.050000e+00
 TN6ah  TX4q  1 3.400000e-01    2.020000e+00
 TN6ah  TX3q  1 3.400000e-01    1.770000e+00
 TN6ah  TX2q  1 3.400000e-01    1.510000e+00
 TN6ah  TX1q  1 3.400000e-01    1.230000e+00
 TN5ah  TN4a  1 3.400000e-01    1.770000e+00
 TN5ah  TN3a  1 3.400000e-01    1.510000e+00
 TN5ah  TN2a  1 3.400000e-01    1.510000e+00
 TN5ah  TN1a  1 3.400000e-01    1.230000e+00
 TN5ah  TN4q  1 3.400000e-01    2.500000e+00
 TN5ah  TN3q  1 3.400000e-01    2.280000e+00
 TN5ah  TN2q  1 3.400000e-01    2.280000e+00
 TN5ah  TN1q  1 3.400000e-01    2.020000e+00
 TN5ah  TC6q  1 3.400000e-01    2.020000e+00
 TN5ah  TC5q  1 3.400000e-01    1.770000e+00
 TN5ah  TC4q  1 3.400000e-01    1.510000e+00
 TN5ah  TC3q  1 3.400000e-01    1.510000e+00
 TN5ah  TC2q  1 3.400000e-01    1.230000e+00
 TN5ah  TC1q  1 3.520000e-01    1.050000e+00
 TN5ah  TX4q  1 3.400000e-01    2.280000e+00
 TN5ah  TX3q  1 3.400000e-01    2.020000e+00
 TN5ah  TX2q  1 3.400000e-01    1.770000e+00
 TN5ah  TX1q  1 3.400000e-01    1.510000e+00
 TN4ah  TN3a  1 3.400000e-01    1.510000e+00
 TN4ah  TN2a  1 3.400000e-01    1.510000e+00
 TN4ah  TN1a  1 3.400000e-01    1.230000e+00
 TN4ah  TN3q  1 3.400000e-01    2.280000e+00
 TN4ah  TN2q  1 3.400000e-01    2.280000e+00
 TN4ah  TN1q  1 3.400000e-01    2.020000e+00
 TN4ah  TC6q  1 3.400000e-01    2.020000e+00
 TN4ah  TC5q  1 3.400000e-01    1.770000e+00
 TN4ah  TC4q  1 3.400000e-01    1.770000e+00
 TN4ah  TC3q  1 3.400000e-01    1.510000e+00
 TN4ah  TC2q  1 3.400000e-01    1.230000e+00
 TN4ah  TC1q  1 3.520000e-01    1.050000e+00
 TN4ah  TX4q  1 3.400000e-01    2.500000e+00
 TN4ah  TX3q  1 3.400000e-01    2.280000e+00
 TN4ah  TX2q  1 3.400000e-01    1.770000e+00
 TN4ah  TX1q  1 3.400000e-01    1.510000e+00
 TN3ah  TN2a  1 3.400000e-01    1.510000e+00
 TN3ah  TN1a  1 3.400000e-01    1.230000e+00
 TN3ah  TN2q  1 3.400000e-01    2.280000e+00
 TN3ah  TN1q  1 3.400000e-01    2.020000e+00
 TN3ah  TC6q  1 3.400000e-01    2.020000e+00
 TN3ah  TC5q  1 3.400000e-01    1.770000e+00
 TN3ah  TC4q  1 3.400000e-01    1.770000e+00
 TN3ah  TC3q  1 3.400000e-01    1.510000e+00
 TN3ah  TC2q  1 3.400000e-01    1.510000e+00
 TN3ah  TC1q  1 3.400000e-01    1.230000e+00
 TN3ah  TX4q  1 3.400000e-01    2.280000e+00
 TN3ah  TX3q  1 3.400000e-01    2.020000e+00
 TN3ah  TX2q  1 3.400000e-01    1.770000e+00
 TN3ah  TX1q  1 3.400000e-01    1.770000e+00
 TN2ah  TN1a  1 3.400000e-01    1.230000e+00
 TN2ah  TN1q  1 3.400000e-01    2.020000e+00
 TN2ah  TC6q  1 3.400000e-01    2.020000e+00
 TN2ah  TC5q  1 3.400000e-01    1.770000e+00
 TN2ah  TC4q  1 3.400000e-01    1.770000e+00
 TN2ah  TC3q  1 3.400000e-01    1.770000e+00
 TN2ah  TC2q  1 3.400000e-01    1.510000e+00
 TN2ah  TC1q  1 3.400000e-01    1.230000e+00
 TN2ah  TX4q  1 3.400000e-01    2.280000e+00
 TN2ah  TX3q  1 3.400000e-01    2.020000e+00
 TN2ah  TX2q  1 3.400000e-01    1.770000e+00
 TN2ah  TX1q  1 3.400000e-01    1.770000e+00
 TN1ah  TC6q  1 3.400000e-01    2.280000e+00
 TN1ah  TC5q  1 3.400000e-01    2.020000e+00
 TN1ah  TC4q  1 3.400000e-01    2.020000e+00
 TN1ah  TC3q  1 3.400000e-01    1.770000e+00
 TN1ah  TC2q  1 3.400000e-01    1.510000e+00
 TN1ah  TC1q  1 3.400000e-01    1.230000e+00
 TN1ah  TX4q  1 3.400000e-01    2.020000e+00
 TN1ah  TX3q  1 3.400000e-01    2.020000e+00
 TN1ah  TX2q  1 3.400000e-01    1.770000e+00
 TN1ah  TX1q  1 3.400000e-01    1.770000e+00
 TC6vh  TC5q  1 3.400000e-01    2.280000e+00
 TC6vh  TC4q  1 3.400000e-01    2.280000e+00
 TC6vh  TC3q  1 3.400000e-01    2.020000e+00
 TC6vh  TC2q  1 3.400000e-01    1.770000e+00
 TC6vh  TC1q  1 3.400000e-01    1.510000e+00
 TC6vh  TX4q  1 3.400000e-01    2.280000e+00
 TC6vh  TX3q  1 3.400000e-01    2.280000e+00
 TC6vh  TX2q  1 3.400000e-01    2.280000e+00
 TC6vh  TX1q  1 3.400000e-01    2.280000e+00
 TC5vh  TC4q  1 3.400000e-01    2.280000e+00
 TC5vh  TC3q  1 3.400000e-01    2.020000e+00
 TC5vh  TC2q  1 3.400000e-01    1.770000e+00
 TC5vh  TC1q  1 3.400000e-01    1.770000e+00
 TC5vh  TX4q  1 3.400000e-01    2.020000e+00
 TC5vh  TX3q  1 3.400000e-01    2.020000e+00
 TC5vh  TX2q  1 3.400000e-01    2.020000e+00
 TC5vh  TX1q  1 3.400000e-01    2.280000e+00
 TC4vh  TC3q  1 3.400000e-01    2.280000e+00
 TC4vh  TC2q  1 3.400000e-01    2.020000e+00
 TC4vh  TC1q  1 3.400000e-01    1.770000e+00
 TC4vh  TX4q  1 3.400000e-01    2.020000e+00
 TC4vh  TX3q  1 3.400000e-01    2.020000e+00
 TC4vh  TX2q  1 3.400000e-01    2.020000e+00
 TC4vh  TX1q  1 3.400000e-01    2.280000e+00
 TC3vh  TC2q  1 3.400000e-01    2.280000e+00
 TC3vh  TC1q  1 3.400000e-01    2.280000e+00
 TC3vh  TX4q  1 3.400000e-01    2.020000e+00
 TC3vh  TX3q  1 3.400000e-01    2.020000e+00
 TC3vh  TX2q  1 3.400000e-01    2.020000e+00
 TC3vh  TX1q  1 3.400000e-01    2.280000e+00
 TC2vh  TC1q  1 3.400000e-01    2.500000e+00
 TC2vh  TX4q  1 3.400000e-01    1.510000e+00
 TC2vh  TX3q  1 3.400000e-01    2.020000e+00
 TC2vh  TX2q  1 3.400000e-01    2.020000e+00
 TC2vh  TX1q  1 3.400000e-01    2.020000e+00
 TC1vh  TX4q  1 3.400000e-01    1.510000e+00
 TC1vh  TX3q  1 3.400000e-01    2.020000e+00
 TC1vh  TX2q  1 3.400000e-01    2.020000e+00
 TC1vh  TX1q  1 3.400000e-01    2.020000e+00
 TX4vh  TX3q  1 3.400000e-01    2.280000e+00
 TX4vh  TX2q  1 3.400000e-01    2.280000e+00
 TX4vh  TX1q  1 3.400000e-01    2.280000e+00
 TX3vh  TX2q  1 3.400000e-01    2.500000e+00
 TX3vh  TX1q  1 3.400000e-01    2.500000e+00
 TX2vh  TX1q  1 3.400000e-01    2.500000e+00
 TC6eh  TC5q  1 3.400000e-01    2.280000e+00
 TC6eh  TC4q  1 3.400000e-01    2.280000e+00
 TC6eh  TC3q  1 3.400000e-01    2.020000e+00
 TC6eh  TC2q  1 3.400000e-01    1.770000e+00
 TC6eh  TC1q  1 3.400000e-01    1.510000e+00
 TC6eh  TX4q  1 3.400000e-01    2.280000e+00
 TC6eh  TX3q  1 3.400000e-01    2.280000e+00
 TC6eh  TX2q  1 3.400000e-01    2.280000e+00
 TC6eh  TX1q  1 3.400000e-01    2.280000e+00
 TC5eh  TC4q  1 3.400000e-01    2.280000e+00
 TC5eh  TC3q  1 3.400000e-01    2.020000e+00
 TC5eh  TC2q  1 3.400000e-01    1.770000e+00
 TC5eh  TC1q  1 3.400000e-01    1.770000e+00
 TC5eh  TX4q  1 3.400000e-01    2.020000e+00
 TC5eh  TX3q  1 3.400000e-01    2.020000e+00
 TC5eh  TX2q  1 3.400000e-01    2.020000e+00
 TC5eh  TX1q  1 3.400000e-01    2.280000e+00
 TC4eh  TC3q  1 3.400000e-01    2.280000e+00
 TC4eh  TC2q  1 3.400000e-01    2.020000e+00
 TC4eh  TC1q  1 3.400000e-01    1.770000e+00
 TC4eh  TX4q  1 3.400000e-01    2.020000e+00
 TC4eh  TX3q  1 3.400000e-01    2.020000e+00
 TC4eh  TX2q  1 3.400000e-01    2.020000e+00
 TC4eh  TX1q  1 3.400000e-01    2.280000e+00
 TC3eh  TC2q  1 3.400000e-01    2.280000e+00
 TC3eh  TC1q  1 3.400000e-01    2.280000e+00
 TC3eh  TX4q  1 3.400000e-01    2.020000e+00
 TC3eh  TX3q  1 3.400000e-01    2.020000e+00
 TC3eh  TX2q  1 3.400000e-01    2.020000e+00
 TC3eh  TX1q  1 3.400000e-01    2.280000e+00
 TC2eh  TC1q  1 3.400000e-01    2.500000e+00
 TC2eh  TX4q  1 3.400000e-01    1.510000e+00
 TC2eh  TX3q  1 3.400000e-01    2.020000e+00
 TC2eh  TX2q  1 3.400000e-01    2.020000e+00
 TC2eh  TX1q  1 3.400000e-01    2.020000e+00
 TC1eh  TX4q  1 3.400000e-01    1.510000e+00
 TC1eh  TX3q  1 3.400000e-01    2.020000e+00
 TC1eh  TX2q  1 3.400000e-01    2.020000e+00
 TC1eh  TX1q  1 3.400000e-01    2.020000e+00
 TX4eh  TX3q  1 3.400000e-01    2.280000e+00
 TX4eh  TX2q  1 3.400000e-01    2.280000e+00
 TX4eh  TX1q  1 3.400000e-01    2.280000e+00
 TX3eh  TX2q  1 3.400000e-01    2.500000e+00
 TX3eh  TX1q  1 3.400000e-01    2.500000e+00
 TX2eh  TX1q  1 3.400000e-01    2.500000e+00
 TP6aq  TP5r  1 3.400000e-01    3.750000e+00
 TP6dq  TP5r  1 3.400000e-01    3.750000e+00
 TP5aq  TP4r  1 3.400000e-01    3.220000e+00
 TP6aq  TP4r  1 3.400000e-01    3.470000e+00
 TP5dq  TP4r  1 3.400000e-01    3.220000e+00
 TP6dq  TP4r  1 3.400000e-01    3.470000e+00
 TP4aq  TP3r  1 3.400000e-01    2.990000e+00
 TP5aq  TP3r  1 3.400000e-01    2.990000e+00
 TP6aq  TP3r  1 3.400000e-01    3.220000e+00
 TP4dq  TP3r  1 3.400000e-01    2.990000e+00
 TP5dq  TP3r  1 3.400000e-01    2.990000e+00
 TP6dq  TP3r  1 3.400000e-01    3.220000e+00
 TP3aq  TP2r  1 3.400000e-01    2.990000e+00
 TP4aq  TP2r  1 3.400000e-01    2.990000e+00
 TP5aq  TP2r  1 3.400000e-01    2.990000e+00
 TP6aq  TP2r  1 3.400000e-01    3.220000e+00
 TP3dq  TP2r  1 3.400000e-01    2.990000e+00
 TP4dq  TP2r  1 3.400000e-01    2.990000e+00
 TP5dq  TP2r  1 3.400000e-01    2.990000e+00
 TP6dq  TP2r  1 3.400000e-01    3.220000e+00
 TP2aq  TP1r  1 3.400000e-01    2.740000e+00
 TP3aq  TP1r  1 3.400000e-01    2.740000e+00
 TP4aq  TP1r  1 3.400000e-01    2.740000e+00
 TP5aq  TP1r  1 3.400000e-01    2.740000e+00
 TP6aq  TP1r  1 3.400000e-01    2.990000e+00
 TP2dq  TP1r  1 3.400000e-01    2.740000e+00
 TP3dq  TP1r  1 3.400000e-01    2.740000e+00
 TP4dq  TP1r  1 3.400000e-01    2.740000e+00
 TP5dq  TP1r  1 3.400000e-01    2.740000e+00
 TP6dq  TP1r  1 3.400000e-01    2.990000e+00
 TP1aq  TN6r  1 3.400000e-01    2.740000e+00
 TP2aq  TN6r  1 3.400000e-01    2.740000e+00
 TP3aq  TN6r  1 3.400000e-01    2.500000e+00
 TP4aq  TN6r  1 3.400000e-01    2.500000e+00
 TP5aq  TN6r  1 3.400000e-01    2.500000e+00
 TP6aq  TN6r  1 3.400000e-01    2.740000e+00
 TP1dq  TN6r  1 3.400000e-01    2.740000e+00
 TP2dq  TN6r  1 3.400000e-01    2.740000e+00
 TP3dq  TN6r  1 3.400000e-01    2.500000e+00
 TP4dq  TN6r  1 3.400000e-01    2.500000e+00
 TP5dq  TN6r  1 3.400000e-01    2.500000e+00
 TP6dq  TN6r  1 3.400000e-01    2.740000e+00
 TN6aq  TN5r  1 3.400000e-01    2.740000e+00
 TP1aq  TN5r  1 3.400000e-01    2.500000e+00
 TP2aq  TN5r  1 3.400000e-01    2.500000e+00
 TP3aq  TN5r  1 3.400000e-01    2.280000e+00
 TP4aq  TN5r  1 3.400000e-01    2.280000e+00
 TP5aq  TN5r  1 3.400000e-01    2.280000e+00
 TP6aq  TN5r  1 3.400000e-01    2.280000e+00
 TN6dq  TN5r  1 3.400000e-01    2.740000e+00
 TP1dq  TN5r  1 3.400000e-01    2.500000e+00
 TP2dq  TN5r  1 3.400000e-01    2.500000e+00
 TP3dq  TN5r  1 3.400000e-01    2.280000e+00
 TP4dq  TN5r  1 3.400000e-01    2.280000e+00
 TP5dq  TN5r  1 3.400000e-01    2.280000e+00
 TP6dq  TN5r  1 3.400000e-01    2.280000e+00
 TN5aq  TN4r  1 3.400000e-01    2.500000e+00
 TN6aq  TN4r  1 3.400000e-01    2.740000e+00
 TP1aq  TN4r  1 3.400000e-01    2.500000e+00
 TP2aq  TN4r  1 3.400000e-01    2.280000e+00
 TP3aq  TN4r  1 3.400000e-01    2.280000e+00
 TP4aq  TN4r  1 3.400000e-01    2.280000e+00
 TP5aq  TN4r  1 3.400000e-01    2.280000e+00
 TP6aq  TN4r  1 3.400000e-01    2.020000e+00
 TN5dq  TN4r  1 3.400000e-01    2.500000e+00
 TN6dq  TN4r  1 3.400000e-01    2.740000e+00
 TP1dq  TN4r  1 3.400000e-01    2.500000e+00
 TP2dq  TN4r  1 3.400000e-01    2.280000e+00
 TP3dq  TN4r  1 3.400000e-01    2.280000e+00
 TP4dq  TN4r  1 3.400000e-01    2.280000e+00
 TP5dq  TN4r  1 3.400000e-01    2.280000e+00
 TP6dq  TN4r  1 3.400000e-01    2.020000e+00
 TN4aq  TN3r  1 3.400000e-01    2.280000e+00
 TN5aq  TN3r  1 3.400000e-01    2.280000e+00
 TN6aq  TN3r  1 3.400000e-01    2.280000e+00
 TP1aq  TN3r  1 3.400000e-01    2.020000e+00
 TP2aq  TN3r  1 3.400000e-01    2.020000e+00
 TP3aq  TN3r  1 3.400000e-01    2.020000e+00
 TP4aq  TN3r  1 3.400000e-01    2.020000e+00
 TP5aq  TN3r  1 3.400000e-01    1.770000e+00
 TP6aq  TN3r  1 3.400000e-01    1.770000e+00
 TN4dq  TN3r  1 3.400000e-01    2.280000e+00
 TN5dq  TN3r  1 3.400000e-01    2.280000e+00
 TN6dq  TN3r  1 3.400000e-01    2.280000e+00
 TP1dq  TN3r  1 3.400000e-01    2.020000e+00
 TP2dq  TN3r  1 3.400000e-01    2.020000e+00
 TP3dq  TN3r  1 3.400000e-01    2.020000e+00
 TP4dq  TN3r  1 3.400000e-01    2.020000e+00
 TP5dq  TN3r  1 3.400000e-01    1.770000e+00
 TP6dq  TN3r  1 3.400000e-01    1.770000e+00
 TN3aq  TN2r  1 3.400000e-01    2.280000e+00
 TN4aq  TN2r  1 3.400000e-01    2.280000e+00
 TN5aq  TN2r  1 3.400000e-01    2.280000e+00
 TN6aq  TN2r  1 3.400000e-01    2.020000e+00
 TP1aq  TN2r  1 3.400000e-01    2.020000e+00
 TP2aq  TN2r  1 3.400000e-01    2.020000e+00
 TP3aq  TN2r  1 3.400000e-01    2.020000e+00
 TP4aq  TN2r  1 3.400000e-01    1.770000e+00
 TP5aq  TN2r  1 3.400000e-01    1.510000e+00
 TP6aq  TN2r  1 3.400000e-01    1.510000e+00
 TN3dq  TN2r  1 3.400000e-01    2.280000e+00
 TN4dq  TN2r  1 3.400000e-01    2.280000e+00
 TN5dq  TN2r  1 3.400000e-01    2.280000e+00
 TN6dq  TN2r  1 3.400000e-01    2.020000e+00
 TP1dq  TN2r  1 3.400000e-01    2.020000e+00
 TP2dq  TN2r  1 3.400000e-01    2.020000e+00
 TP3dq  TN2r  1 3.400000e-01    2.020000e+00
 TP4dq  TN2r  1 3.400000e-01    1.770000e+00
 TP5dq  TN2r  1 3.400000e-01    1.510000e+00
 TP6dq  TN2r  1 3.400000e-01    1.510000e+00
 TN2aq  TN1r  1 3.400000e-01    2.020000e+00
 TN3aq  TN1r  1 3.400000e-01    2.020000e+00
 TN4aq  TN1r  1 3.400000e-01    2.020000e+00
 TN5aq  TN1r  1 3.400000e-01    2.020000e+00
 TN6aq  TN1r  1 3.400000e-01    2.020000e+00
 TP1aq  TN1r  1 3.400000e-01    2.020000e+00
 TP2aq  TN1r  1 3.400000e-01    2.020000e+00
 TP3aq  TN1r  1 3.400000e-01    1.770000e+00
 TP4aq  TN1r  1 3.400000e-01    1.510000e+00
 TP5aq  TN1r  1 3.400000e-01    1.230000e+00
 TP6aq  TN1r  1 3.400000e-01    1.230000e+00
 TN2dq  TN1r  1 3.400000e-01    2.020000e+00
 TN3dq  TN1r  1 3.400000e-01    2.020000e+00
 TN4dq  TN1r  1 3.400000e-01    2.020000e+00
 TN5dq  TN1r  1 3.400000e-01    2.020000e+00
 TN6dq  TN1r  1 3.400000e-01    2.020000e+00
 TP1dq  TN1r  1 3.400000e-01    2.020000e+00
 TP2dq  TN1r  1 3.400000e-01    2.020000e+00
 TP3dq  TN1r  1 3.400000e-01    1.770000e+00
 TP4dq  TN1r  1 3.400000e-01    1.510000e+00
 TP5dq  TN1r  1 3.400000e-01    1.230000e+00
 TP6dq  TN1r  1 3.400000e-01    1.230000e+00
 TN1aq  TC6r  1 3.400000e-01    2.280000e+00
 TN2aq  TC6r  1 3.400000e-01    2.020000e+00
 TN3aq  TC6r  1 3.400000e-01    2.020000e+00
 TN4aq  TC6r  1 3.400000e-01    2.020000e+00
 TN5aq  TC6r  1 3.400000e-01    2.020000e+00
 TN6aq  TC6r  1 3.400000e-01    2.020000e+00
 TP1aq  TC6r  1 3.400000e-01    1.770000e+00
 TP2aq  TC6r  1 3.400000e-01    1.770000e+00
 TP3aq  TC6r  1 3.400000e-01    1.770000e+00
 TP4aq  TC6r  1 3.400000e-01    1.510000e+00
 TP5aq  TC6r  1 3.400000e-01    1.230000e+00
 TP6aq  TC6r  1 3.400000e-01    1.230000e+00
 TN1dq  TC6r  1 3.400000e-01    2.280000e+00
 TN2dq  TC6r  1 3.400000e-01    2.020000e+00
 TN3dq  TC6r  1 3.400000e-01    2.020000e+00
 TN4dq  TC6r  1 3.400000e-01    2.020000e+00
 TN5dq  TC6r  1 3.400000e-01    2.020000e+00
 TN6dq  TC6r  1 3.400000e-01    2.020000e+00
 TP1dq  TC6r  1 3.400000e-01    1.770000e+00
 TP2dq  TC6r  1 3.400000e-01    1.770000e+00
 TP3dq  TC6r  1 3.400000e-01    1.770000e+00
 TP4dq  TC6r  1 3.400000e-01    1.510000e+00
 TP5dq  TC6r  1 3.400000e-01    1.230000e+00
 TP6dq  TC6r  1 3.400000e-01    1.230000e+00
 TC6eq  TC5r  1 3.400000e-01    2.280000e+00
 TC6vq  TC5r  1 3.400000e-01    2.280000e+00
 TN1aq  TC5r  1 3.400000e-01    2.020000e+00
 TN2aq  TC5r  1 3.400000e-01    1.770000e+00
 TN3aq  TC5r  1 3.400000e-01    1.770000e+00
 TN4aq  TC5r  1 3.400000e-01    1.770000e+00
 TN5aq  TC5r  1 3.400000e-01    1.770000e+00
 TN6aq  TC5r  1 3.400000e-01    1.770000e+00
 TP1aq  TC5r  1 3.400000e-01    1.510000e+00
 TP2aq  TC5r  1 3.400000e-01    1.510000e+00
 TP3aq  TC5r  1 3.400000e-01    1.510000e+00
 TP4aq  TC5r  1 3.400000e-01    1.230000e+00
 TP5aq  TC5r  1 3.400000e-01    1.230000e+00
 TP6aq  TC5r  1 3.520000e-01    1.050000e+00
 TN1dq  TC5r  1 3.400000e-01    2.020000e+00
 TN2dq  TC5r  1 3.400000e-01    1.770000e+00
 TN3dq  TC5r  1 3.400000e-01    1.770000e+00
 TN4dq  TC5r  1 3.400000e-01    1.770000e+00
 TN5dq  TC5r  1 3.400000e-01    1.770000e+00
 TN6dq  TC5r  1 3.400000e-01    1.770000e+00
 TP1dq  TC5r  1 3.400000e-01    1.510000e+00
 TP2dq  TC5r  1 3.400000e-01    1.510000e+00
 TP3dq  TC5r  1 3.400000e-01    1.510000e+00
 TP4dq  TC5r  1 3.400000e-01    1.230000e+00
 TP5dq  TC5r  1 3.400000e-01    1.230000e+00
 TP6dq  TC5r  1 3.520000e-01    1.050000e+00
 TC5eq  TC4r  1 3.400000e-01    2.280000e+00
 TC6eq  TC4r  1 3.400000e-01    2.280000e+00
 TC5vq  TC4r  1 3.400000e-01    2.280000e+00
 TC6vq  TC4r  1 3.400000e-01    2.280000e+00
 TN1aq  TC4r  1 3.400000e-01    2.020000e+00
 TN2aq  TC4r  1 3.400000e-01    1.770000e+00
 TN3aq  TC4r  1 3.400000e-01    1.770000e+00
 TN4aq  TC4r  1 3.400000e-01    1.770000e+00
 TN5aq  TC4r  1 3.400000e-01    1.510000e+00
 TN6aq  TC4r  1 3.400000e-01    1.510000e+00
 TP1aq  TC4r  1 3.400000e-01    1.230000e+00
 TP2aq  TC4r  1 3.400000e-01    1.230000e+00
 TP3aq  TC4r  1 3.400000e-01    1.230000e+00
 TP4aq  TC4r  1 3.520000e-01    1.050000e+00
 TP5aq  TC4r  1 3.520000e-01    1.050000e+00
 TP6aq  TC4r  1 3.660000e-01    9.350000e-01
 TN1dq  TC4r  1 3.400000e-01    2.020000e+00
 TN2dq  TC4r  1 3.400000e-01    1.770000e+00
 TN3dq  TC4r  1 3.400000e-01    1.770000e+00
 TN4dq  TC4r  1 3.400000e-01    1.770000e+00
 TN5dq  TC4r  1 3.400000e-01    1.510000e+00
 TN6dq  TC4r  1 3.400000e-01    1.510000e+00
 TP1dq  TC4r  1 3.400000e-01    1.230000e+00
 TP2dq  TC4r  1 3.400000e-01    1.230000e+00
 TP3dq  TC4r  1 3.400000e-01    1.230000e+00
 TP4dq  TC4r  1 3.520000e-01    1.050000e+00
 TP5dq  TC4r  1 3.520000e-01    1.050000e+00
 TP6dq  TC4r  1 3.660000e-01    9.350000e-01
 TC4eq  TC3r  1 3.400000e-01    2.280000e+00
 TC5eq  TC3r  1 3.400000e-01    2.020000e+00
 TC6eq  TC3r  1 3.400000e-01    2.020000e+00
 TC4vq  TC3r  1 3.400000e-01    2.280000e+00
 TC5vq  TC3r  1 3.400000e-01    2.020000e+00
 TC6vq  TC3r  1 3.400000e-01    2.020000e+00
 TN1aq  TC3r  1 3.400000e-01    1.770000e+00
 TN2aq  TC3r  1 3.400000e-01    1.770000e+00
 TN3aq  TC3r  1 3.400000e-01    1.510000e+00
 TN4aq  TC3r  1 3.400000e-01    1.510000e+00
 TN5aq  TC3r  1 3.400000e-01    1.510000e+00
 TN6aq  TC3r  1 3.400000e-01    1.230000e+00
 TP1aq  TC3r  1 3.520000e-01    1.050000e+00
 TP2aq  TC3r  1 3.520000e-01    1.050000e+00
 TP3aq  TC3r  1 3.660000e-01    9.350000e-01
 TP4aq  TC3r  1 3.660000e-01    9.350000e-01
 TP5aq  TC3r  1 3.660000e-01    9.350000e-01
 TP6aq  TC3r  1 3.850000e-01    8.550000e-01
 TN1dq  TC3r  1 3.400000e-01    1.770000e+00
 TN2dq  TC3r  1 3.400000e-01    1.770000e+00
 TN3dq  TC3r  1 3.400000e-01    1.510000e+00
 TN4dq  TC3r  1 3.400000e-01    1.510000e+00
 TN5dq  TC3r  1 3.400000e-01    1.510000e+00
 TN6dq  TC3r  1 3.400000e-01    1.230000e+00
 TP1dq  TC3r  1 3.520000e-01    1.050000e+00
 TP2dq  TC3r  1 3.520000e-01    1.050000e+00
 TP3dq  TC3r  1 3.660000e-01    9.350000e-01
 TP4dq  TC3r  1 3.660000e-01    9.350000e-01
 TP5dq  TC3r  1 3.660000e-01    9.350000e-01
 TP6dq  TC3r  1 3.850000e-01    8.550000e-01
 TC3eq  TC2r  1 3.400000e-01    2.280000e+00
 TC4eq  TC2r  1 3.400000e-01    2.020000e+00
 TC5eq  TC2r  1 3.400000e-01    1.770000e+00
 TC6eq  TC2r  1 3.400000e-01    1.770000e+00
 TC3vq  TC2r  1 3.400000e-01    2.280000e+00
 TC4vq  TC2r  1 3.400000e-01    2.020000e+00
 TC5vq  TC2r  1 3.400000e-01    1.770000e+00
 TC6vq  TC2r  1 3.400000e-01    1.770000e+00
 TN1aq  TC2r  1 3.400000e-01    1.510000e+00
 TN2aq  TC2r  1 3.400000e-01    1.510000e+00
 TN3aq  TC2r  1 3.400000e-01    1.510000e+00
 TN4aq  TC2r  1 3.400000e-01    1.230000e+00
 TN5aq  TC2r  1 3.400000e-01    1.230000e+00
 TN6aq  TC2r  1 3.400000e-01    1.230000e+00
 TP1aq  TC2r  1 3.520000e-01    1.050000e+00
 TP2aq  TC2r  1 3.520000e-01    1.050000e+00
 TP3aq  TC2r  1 3.660000e-01    9.350000e-01
 TP4aq  TC2r  1 3.660000e-01    9.350000e-01
 TP5aq  TC2r  1 3.660000e-01    9.350000e-01
 TP6aq  TC2r  1 3.850000e-01    8.550000e-01
 TN1dq  TC2r  1 3.400000e-01    1.510000e+00
 TN2dq  TC2r  1 3.400000e-01    1.510000e+00
 TN3dq  TC2r  1 3.400000e-01    1.510000e+00
 TN4dq  TC2r  1 3.400000e-01    1.230000e+00
 TN5dq  TC2r  1 3.400000e-01    1.230000e+00
 TN6dq  TC2r  1 3.400000e-01    1.230000e+00
 TP1dq  TC2r  1 3.520000e-01    1.050000e+00
 TP2dq  TC2r  1 3.520000e-01    1.050000e+00
 TP3dq  TC2r  1 3.660000e-01    9.350000e-01
 TP4dq  TC2r  1 3.660000e-01    9.350000e-01
 TP5dq  TC2r  1 3.660000e-01    9.350000e-01
 TP6dq  TC2r  1 3.850000e-01    8.550000e-01
 TC2eq  TC1r  1 3.400000e-01    2.500000e+00
 TC3eq  TC1r  1 3.400000e-01    2.280000e+00
 TC4eq  TC1r  1 3.400000e-01    1.770000e+00
 TC5eq  TC1r  1 3.400000e-01    1.770000e+00
 TC6eq  TC1r  1 3.400000e-01    1.510000e+00
 TC2vq  TC1r  1 3.400000e-01    2.500000e+00
 TC3vq  TC1r  1 3.400000e-01    2.280000e+00
 TC4vq  TC1r  1 3.400000e-01    1.770000e+00
 TC5vq  TC1r  1 3.400000e-01    1.770000e+00
 TC6vq  TC1r  1 3.400000e-01    1.510000e+00
 TN1aq  TC1r  1 3.400000e-01    1.230000e+00
 TN2aq  TC1r  1 3.400000e-01    1.230000e+00
 TN3aq  TC1r  1 3.400000e-01    1.230000e+00
 TN4aq  TC1r  1 3.520000e-01    1.050000e+00
 TN5aq  TC1r  1 3.520000e-01    1.050000e+00
 TN6aq  TC1r  1 3.520000e-01    1.050000e+00
 TP1aq  TC1r  1 3.660000e-01    9.350000e-01
 TP2aq  TC1r  1 3.660000e-01    9.350000e-01
 TP3aq  TC1r  1 3.850000e-01    8.550000e-01
 TP4aq  TC1r  1 3.850000e-01    8.550000e-01
 TP5aq  TC1r  1 3.850000e-01    8.550000e-01
 TP6aq  TC1r  1 4.240000e-01    7.760000e-01
 TN1dq  TC1r  1 3.400000e-01    1.230000e+00
 TN2dq  TC1r  1 3.400000e-01    1.230000e+00
 TN3dq  TC1r  1 3.400000e-01    1.230000e+00
 TN4dq  TC1r  1 3.520000e-01    1.050000e+00
 TN5dq  TC1r  1 3.520000e-01    1.050000e+00
 TN6dq  TC1r  1 3.520000e-01    1.050000e+00
 TP1dq  TC1r  1 3.660000e-01    9.350000e-01
 TP2dq  TC1r  1 3.660000e-01    9.350000e-01
 TP3dq  TC1r  1 3.850000e-01    8.550000e-01
 TP4dq  TC1r  1 3.850000e-01    8.550000e-01
 TP5dq  TC1r  1 3.850000e-01    8.550000e-01
 TP6dq  TC1r  1 4.240000e-01    7.760000e-01
 TC1eq  TX4r  1 3.400000e-01    1.510000e+00
 TC2eq  TX4r  1 3.400000e-01    1.510000e+00
 TC3eq  TX4r  1 3.400000e-01    2.020000e+00
 TC4eq  TX4r  1 3.400000e-01    2.020000e+00
 TC5eq  TX4r  1 3.400000e-01    2.020000e+00
 TC6eq  TX4r  1 3.400000e-01    2.280000e+00
 TC1vq  TX4r  1 3.400000e-01    1.510000e+00
 TC2vq  TX4r  1 3.400000e-01    1.510000e+00
 TC3vq  TX4r  1 3.400000e-01    2.020000e+00
 TC4vq  TX4r  1 3.400000e-01    2.020000e+00
 TC5vq  TX4r  1 3.400000e-01    2.020000e+00
 TC6vq  TX4r  1 3.400000e-01    2.280000e+00
 TN1aq  TX4r  1 3.400000e-01    2.020000e+00
 TN2aq  TX4r  1 3.400000e-01    2.280000e+00
 TN3aq  TX4r  1 3.400000e-01    2.280000e+00
 TN4aq  TX4r  1 3.400000e-01    2.500000e+00
 TN5aq  TX4r  1 3.400000e-01    2.280000e+00
 TN6aq  TX4r  1 3.400000e-01    2.020000e+00
 TP1aq  TX4r  1 3.400000e-01    1.770000e+00
 TP2aq  TX4r  1 3.400000e-01    1.770000e+00
 TP3aq  TX4r  1 3.400000e-01    1.770000e+00
 TP4aq  TX4r  1 3.400000e-01    1.770000e+00
 TP5aq  TX4r  1 3.400000e-01    1.770000e+00
 TP6aq  TX4r  1 3.400000e-01    1.510000e+00
 TN1dq  TX4r  1 3.400000e-01    2.020000e+00
 TN2dq  TX4r  1 3.400000e-01    2.280000e+00
 TN3dq  TX4r  1 3.400000e-01    2.280000e+00
 TN4dq  TX4r  1 3.400000e-01    2.500000e+00
 TN5dq  TX4r  1 3.400000e-01    2.280000e+00
 TN6dq  TX4r  1 3.400000e-01    2.020000e+00
 TP1dq  TX4r  1 3.400000e-01    1.770000e+00
 TP2dq  TX4r  1 3.400000e-01    1.770000e+00
 TP3dq  TX4r  1 3.400000e-01    1.770000e+00
 TP4dq  TX4r  1 3.400000e-01    1.770000e+00
 TP5dq  TX4r  1 3.400000e-01    1.770000e+00
 TP6dq  TX4r  1 3.400000e-01    1.510000e+00
 TX4eq  TX3r  1 3.400000e-01    2.280000e+00
 TC1eq  TX3r  1 3.400000e-01    2.020000e+00
 TC2eq  TX3r  1 3.400000e-01    2.020000e+00
 TC3eq  TX3r  1 3.400000e-01    2.020000e+00
 TC4eq  TX3r  1 3.400000e-01    2.020000e+00
 TC5eq  TX3r  1 3.400000e-01    2.020000e+00
 TC6eq  TX3r  1 3.400000e-01    2.280000e+00
 TX4vq  TX3r  1 3.400000e-01    2.280000e+00
 TC1vq  TX3r  1 3.400000e-01    2.020000e+00
 TC2vq  TX3r  1 3.400000e-01    2.020000e+00
 TC3vq  TX3r  1 3.400000e-01    2.020000e+00
 TC4vq  TX3r  1 3.400000e-01    2.020000e+00
 TC5vq  TX3r  1 3.400000e-01    2.020000e+00
 TC6vq  TX3r  1 3.400000e-01    2.280000e+00
 TN1aq  TX3r  1 3.400000e-01    2.020000e+00
 TN2aq  TX3r  1 3.400000e-01    2.020000e+00
 TN3aq  TX3r  1 3.400000e-01    2.020000e+00
 TN4aq  TX3r  1 3.400000e-01    2.280000e+00
 TN5aq  TX3r  1 3.400000e-01    2.020000e+00
 TN6aq  TX3r  1 3.400000e-01    1.770000e+00
 TP1aq  TX3r  1 3.400000e-01    1.770000e+00
 TP2aq  TX3r  1 3.400000e-01    1.770000e+00
 TP3aq  TX3r  1 3.400000e-01    1.770000e+00
 TP4aq  TX3r  1 3.400000e-01    1.510000e+00
 TP5aq  TX3r  1 3.400000e-01    1.510000e+00
 TP6aq  TX3r  1 3.400000e-01    1.510000e+00
 TN1dq  TX3r  1 3.400000e-01    2.020000e+00
 TN2dq  TX3r  1 3.400000e-01    2.020000e+00
 TN3dq  TX3r  1 3.400000e-01    2.020000e+00
 TN4dq  TX3r  1 3.400000e-01    2.280000e+00
 TN5dq  TX3r  1 3.400000e-01    2.020000e+00
 TN6dq  TX3r  1 3.400000e-01    1.770000e+00
 TP1dq  TX3r  1 3.400000e-01    1.770000e+00
 TP2dq  TX3r  1 3.400000e-01    1.770000e+00
 TP3dq  TX3r  1 3.400000e-01    1.770000e+00
 TP4dq  TX3r  1 3.400000e-01    1.510000e+00
 TP5dq  TX3r  1 3.400000e-01    1.510000e+00
 TP6dq  TX3r  1 3.400000e-01    1.510000e+00
 TX3eq  TX2r  1 3.400000e-01    2.500000e+00
 TX4eq  TX2r  1 3.400000e-01    2.280000e+00
 TC1eq  TX2r  1 3.400000e-01    2.020000e+00
 TC2eq  TX2r  1 3.400000e-01    2.020000e+00
 TC3eq  TX2r  1 3.400000e-01    2.020000e+00
 TC4eq  TX2r  1 3.400000e-01    2.020000e+00
 TC5eq  TX2r  1 3.400000e-01    2.020000e+00
 TC6eq  TX2r  1 3.400000e-01    2.280000e+00
 TX3vq  TX2r  1 3.400000e-01    2.500000e+00
 TX4vq  TX2r  1 3.400000e-01    2.280000e+00
 TC1vq  TX2r  1 3.400000e-01    2.020000e+00
 TC2vq  TX2r  1 3.400000e-01    2.020000e+00
 TC3vq  TX2r  1 3.400000e-01    2.020000e+00
 TC4vq  TX2r  1 3.400000e-01    2.020000e+00
 TC5vq  TX2r  1 3.400000e-01    2.020000e+00
 TC6vq  TX2r  1 3.400000e-01    2.280000e+00
 TN1aq  TX2r  1 3.400000e-01    1.770000e+00
 TN2aq  TX2r  1 3.400000e-01    1.770000e+00
 TN3aq  TX2r  1 3.400000e-01    1.770000e+00
 TN4aq  TX2r  1 3.400000e-01    1.770000e+00
 TN5aq  TX2r  1 3.400000e-01    1.770000e+00
 TN6aq  TX2r  1 3.400000e-01    1.510000e+00
 TP1aq  TX2r  1 3.400000e-01    1.510000e+00
 TP2aq  TX2r  1 3.400000e-01    1.510000e+00
 TP3aq  TX2r  1 3.400000e-01    1.510000e+00
 TP4aq  TX2r  1 3.400000e-01    1.510000e+00
 TP5aq  TX2r  1 3.400000e-01    1.510000e+00
 TP6aq  TX2r  1 3.400000e-01    1.230000e+00
 TN1dq  TX2r  1 3.400000e-01    1.770000e+00
 TN2dq  TX2r  1 3.400000e-01    1.770000e+00
 TN3dq  TX2r  1 3.400000e-01    1.770000e+00
 TN4dq  TX2r  1 3.400000e-01    1.770000e+00
 TN5dq  TX2r  1 3.400000e-01    1.770000e+00
 TN6dq  TX2r  1 3.400000e-01    1.510000e+00
 TP1dq  TX2r  1 3.400000e-01    1.510000e+00
 TP2dq  TX2r  1 3.400000e-01    1.510000e+00
 TP3dq  TX2r  1 3.400000e-01    1.510000e+00
 TP4dq  TX2r  1 3.400000e-01    1.510000e+00
 TP5dq  TX2r  1 3.400000e-01    1.510000e+00
 TP6dq  TX2r  1 3.400000e-01    1.230000e+00
 TX2eq  TX1r  1 3.400000e-01    2.500000e+00
 TX3eq  TX1r  1 3.400000e-01    2.500000e+00
 TX4eq  TX1r  1 3.400000e-01    2.280000e+00
 TC1eq  TX1r  1 3.400000e-01    2.020000e+00
 TC2eq  TX1r  1 3.400000e-01    2.020000e+00
 TC3eq  TX1r  1 3.400000e-01    2.280000e+00
 TC4eq  TX1r  1 3.400000e-01    2.280000e+00
 TC5eq  TX1r  1 3.400000e-01    2.280000e+00
 TC6eq  TX1r  1 3.400000e-01    2.280000e+00
 TX2vq  TX1r  1 3.400000e-01    2.500000e+00
 TX3vq  TX1r  1 3.400000e-01    2.500000e+00
 TX4vq  TX1r  1 3.400000e-01    2.280000e+00
 TC1vq  TX1r  1 3.400000e-01    2.020000e+00
 TC2vq  TX1r  1 3.400000e-01    2.020000e+00
 TC3vq  TX1r  1 3.400000e-01    2.280000e+00
 TC4vq  TX1r  1 3.400000e-01    2.280000e+00
 TC5vq  TX1r  1 3.400000e-01    2.280000e+00
 TC6vq  TX1r  1 3.400000e-01    2.280000e+00
 TN1aq  TX1r  1 3.400000e-01    1.770000e+00
 TN2aq  TX1r  1 3.400000e-01    1.770000e+00
 TN3aq  TX1r  1 3.400000e-01    1.770000e+00
 TN4aq  TX1r  1 3.400000e-01    1.510000e+00
 TN5aq  TX1r  1 3.400000e-01    1.510000e+00
 TN6aq  TX1r  1 3.400000e-01    1.230000e+00
 TP1aq  TX1r  1 3.400000e-01    1.230000e+00
 TP2aq  TX1r  1 3.400000e-01    1.230000e+00
 TP3aq  TX1r  1 3.400000e-01    1.230000e+00
 TP4aq  TX1r  1 3.400000e-01    1.230000e+00
 TP5aq  TX1r  1 3.520000e-01    1.050000e+00
 TP6aq  TX1r  1 3.520000e-01    1.050000e+00
 TN1dq  TX1r  1 3.400000e-01    1.770000e+00
 TN2dq  TX1r  1 3.400000e-01    1.770000e+00
 TN3dq  TX1r  1 3.400000e-01    1.770000e+00
 TN4dq  TX1r  1 3.400000e-01    1.510000e+00
 TN5dq  TX1r  1 3.400000e-01    1.510000e+00
 TN6dq  TX1r  1 3.400000e-01    1.230000e+00
 TP1dq  TX1r  1 3.400000e-01    1.230000e+00
 TP2dq  TX1r  1 3.400000e-01    1.230000e+00
 TP3dq  TX1r  1 3.400000e-01    1.230000e+00
 TP4dq  TX1r  1 3.400000e-01    1.230000e+00
 TP5dq  TX1r  1 3.520000e-01    1.050000e+00
 TP6dq  TX1r  1 3.520000e-01    1.050000e+00
 TP6dr  TP5d  1 3.400000e-01    2.990000e+00
 TP6dr  TP4d  1 3.400000e-01    2.740000e+00
 TP6dr  TP3d  1 3.400000e-01    2.500000e+00
 TP6dr  TP2d  1 3.400000e-01    2.500000e+00
 TP6dr  TP1d  1 3.400000e-01    2.280000e+00
 TP6dr  TN6d  1 3.400000e-01    2.020000e+00
 TP6dr  TN5d  1 3.400000e-01    1.510000e+00
 TP6dr  TN4d  1 3.400000e-01    1.230000e+00
 TP6dr  TN3d  1 3.400000e-01    1.230000e+00
 TP6dr  TN2d  1 3.520000e-01    1.050000e+00
 TP6dr  TN1d  1 3.660000e-01    9.350000e-01
 TP6dr  TP5q  1 3.400000e-01    3.750000e+00
 TP6dr  TP4q  1 3.400000e-01    3.470000e+00
 TP6dr  TP3q  1 3.400000e-01    3.220000e+00
 TP6dr  TP2q  1 3.400000e-01    3.220000e+00
 TP6dr  TP1q  1 3.400000e-01    2.990000e+00
 TP6dr  TN6q  1 3.400000e-01    2.740000e+00
 TP6dr  TN5q  1 3.400000e-01    2.280000e+00
 TP6dr  TN4q  1 3.400000e-01    2.020000e+00
 TP6dr  TN3q  1 3.400000e-01    1.770000e+00
 TP6dr  TN2q  1 3.400000e-01    1.510000e+00
 TP6dr  TN1q  1 3.400000e-01    1.230000e+00
 TP6dr  TC6q  1 3.400000e-01    1.230000e+00
 TP6dr  TC5q  1 3.520000e-01    1.050000e+00
 TP6dr  TC4q  1 3.660000e-01    9.350000e-01
 TP6dr  TC3q  1 3.850000e-01    8.550000e-01
 TP6dr  TC2q  1 3.850000e-01    8.550000e-01
 TP6dr  TC1q  1 4.240000e-01    7.760000e-01
 TP6dr  TX4q  1 3.400000e-01    1.510000e+00
 TP6dr  TX3q  1 3.400000e-01    1.510000e+00
 TP6dr  TX2q  1 3.400000e-01    1.230000e+00
 TP6dr  TX1q  1 3.520000e-01    1.050000e+00
 TP5dr  TP4d  1 3.400000e-01    2.500000e+00
 TP5dr  TP3d  1 3.400000e-01    2.280000e+00
 TP5dr  TP2d  1 3.400000e-01    2.280000e+00
 TP5dr  TP1d  1 3.400000e-01    2.020000e+00
 TP5dr  TN6d  1 3.400000e-01    1.770000e+00
 TP5dr  TN5d  1 3.400000e-01    1.510000e+00
 TP5dr  TN4d  1 3.400000e-01    1.510000e+00
 TP5dr  TN3d  1 3.400000e-01    1.230000e+00
 TP5dr  TN2d  1 3.520000e-01    1.050000e+00
 TP5dr  TN1d  1 3.660000e-01    9.350000e-01
 TP5dr  TP4q  1 3.400000e-01    3.220000e+00
 TP5dr  TP3q  1 3.400000e-01    2.990000e+00
 TP5dr  TP2q  1 3.400000e-01    2.990000e+00
 TP5dr  TP1q  1 3.400000e-01    2.740000e+00
 TP5dr  TN6q  1 3.400000e-01    2.500000e+00
 TP5dr  TN5q  1 3.400000e-01    2.280000e+00
 TP5dr  TN4q  1 3.400000e-01    2.280000e+00
 TP5dr  TN3q  1 3.400000e-01    1.770000e+00
 TP5dr  TN2q  1 3.400000e-01    1.510000e+00
 TP5dr  TN1q  1 3.400000e-01    1.230000e+00
 TP5dr  TC6q  1 3.400000e-01    1.230000e+00
 TP5dr  TC5q  1 3.400000e-01    1.230000e+00
 TP5dr  TC4q  1 3.520000e-01    1.050000e+00
 TP5dr  TC3q  1 3.660000e-01    9.350000e-01
 TP5dr  TC2q  1 3.660000e-01    9.350000e-01
 TP5dr  TC1q  1 3.850000e-01    8.550000e-01
 TP5dr  TX4q  1 3.400000e-01    1.770000e+00
 TP5dr  TX3q  1 3.400000e-01    1.510000e+00
 TP5dr  TX2q  1 3.400000e-01    1.510000e+00
 TP5dr  TX1q  1 3.520000e-01    1.050000e+00
 TP4dr  TP3d  1 3.400000e-01    2.280000e+00
 TP4dr  TP2d  1 3.400000e-01    2.280000e+00
 TP4dr  TP1d  1 3.400000e-01    2.020000e+00
 TP4dr  TN6d  1 3.400000e-01    1.770000e+00
 TP4dr  TN5d  1 3.400000e-01    1.510000e+00
 TP4dr  TN4d  1 3.400000e-01    1.510000e+00
 TP4dr  TN3d  1 3.400000e-01    1.230000e+00
 TP4dr  TN2d  1 3.400000e-01    1.230000e+00
 TP4dr  TN1d  1 3.520000e-01    1.050000e+00
 TP4dr  TP3q  1 3.400000e-01    2.990000e+00
 TP4dr  TP2q  1 3.400000e-01    2.990000e+00
 TP4dr  TP1q  1 3.400000e-01    2.740000e+00
 TP4dr  TN6q  1 3.400000e-01    2.500000e+00
 TP4dr  TN5q  1 3.400000e-01    2.280000e+00
 TP4dr  TN4q  1 3.400000e-01    2.280000e+00
 TP4dr  TN3q  1 3.400000e-01    2.020000e+00
 TP4dr  TN2q  1 3.400000e-01    1.770000e+00
 TP4dr  TN1q  1 3.400000e-01    1.510000e+00
 TP4dr  TC6q  1 3.400000e-01    1.510000e+00
 TP4dr  TC5q  1 3.400000e-01    1.230000e+00
 TP4dr  TC4q  1 3.520000e-01    1.050000e+00
 TP4dr  TC3q  1 3.660000e-01    9.350000e-01
 TP4dr  TC2q  1 3.660000e-01    9.350000e-01
 TP4dr  TC1q  1 3.850000e-01    8.550000e-01
 TP4dr  TX4q  1 3.400000e-01    1.770000e+00
 TP4dr  TX3q  1 3.400000e-01    1.510000e+00
 TP4dr  TX2q  1 3.400000e-01    1.510000e+00
 TP4dr  TX1q  1 3.400000e-01    1.230000e+00
 TP3dr  TP2d  1 3.400000e-01    2.280000e+00
 TP3dr  TP1d  1 3.400000e-01    2.020000e+00
 TP3dr  TN6d  1 3.400000e-01    1.770000e+00
 TP3dr  TN5d  1 3.400000e-01    1.510000e+00
 TP3dr  TN4d  1 3.400000e-01    1.510000e+00
 TP3dr  TN3d  1 3.400000e-01    1.230000e+00
 TP3dr  TN2d  1 3.400000e-01    1.230000e+00
 TP3dr  TN1d  1 3.400000e-01    1.230000e+00
 TP3dr  TP2q  1 3.400000e-01    2.990000e+00
 TP3dr  TP1q  1 3.400000e-01    2.740000e+00
 TP3dr  TN6q  1 3.400000e-01    2.500000e+00
 TP3dr  TN5q  1 3.400000e-01    2.280000e+00
 TP3dr  TN4q  1 3.400000e-01    2.280000e+00
 TP3dr  TN3q  1 3.400000e-01    2.020000e+00
 TP3dr  TN2q  1 3.400000e-01    2.020000e+00
 TP3dr  TN1q  1 3.400000e-01    1.770000e+00
 TP3dr  TC6q  1 3.400000e-01    1.770000e+00
 TP3dr  TC5q  1 3.400000e-01    1.510000e+00
 TP3dr  TC4q  1 3.400000e-01    1.230000e+00
 TP3dr  TC3q  1 3.660000e-01    9.350000e-01
 TP3dr  TC2q  1 3.660000e-01    9.350000e-01
 TP3dr  TC1q  1 3.850000e-01    8.550000e-01
 TP3dr  TX4q  1 3.400000e-01    1.770000e+00
 TP3dr  TX3q  1 3.400000e-01    1.770000e+00
 TP3dr  TX2q  1 3.400000e-01    1.510000e+00
 TP3dr  TX1q  1 3.400000e-01    1.230000e+00
 TP2dr  TP1d  1 3.400000e-01    2.020000e+00
 TP2dr  TN6d  1 3.400000e-01    2.020000e+00
 TP2dr  TN5d  1 3.400000e-01    1.770000e+00
 TP2dr  TN4d  1 3.400000e-01    1.510000e+00
 TP2dr  TN3d  1 3.400000e-01    1.230000e+00
 TP2dr  TN2d  1 3.400000e-01    1.230000e+00
 TP2dr  TN1d  1 3.400000e-01    1.230000e+00
 TP2dr  TP1q  1 3.400000e-01    2.740000e+00
 TP2dr  TN6q  1 3.400000e-01    2.740000e+00
 TP2dr  TN5q  1 3.400000e-01    2.500000e+00
 TP2dr  TN4q  1 3.400000e-01    2.280000e+00
 TP2dr  TN3q  1 3.400000e-01    2.020000e+00
 TP2dr  TN2q  1 3.400000e-01    2.020000e+00
 TP2dr  TN1q  1 3.400000e-01    2.020000e+00
 TP2dr  TC6q  1 3.400000e-01    1.770000e+00
 TP2dr  TC5q  1 3.400000e-01    1.510000e+00
 TP2dr  TC4q  1 3.400000e-01    1.230000e+00
 TP2dr  TC3q  1 3.520000e-01    1.050000e+00
 TP2dr  TC2q  1 3.520000e-01    1.050000e+00
 TP2dr  TC1q  1 3.660000e-01    9.350000e-01
 TP2dr  TX4q  1 3.400000e-01    1.770000e+00
 TP2dr  TX3q  1 3.400000e-01    1.770000e+00
 TP2dr  TX2q  1 3.400000e-01    1.510000e+00
 TP2dr  TX1q  1 3.400000e-01    1.230000e+00
 TP1dr  TN6d  1 3.400000e-01    2.020000e+00
 TP1dr  TN5d  1 3.400000e-01    1.770000e+00
 TP1dr  TN4d  1 3.400000e-01    1.770000e+00
 TP1dr  TN3d  1 3.400000e-01    1.230000e+00
 TP1dr  TN2d  1 3.400000e-01    1.230000e+00
 TP1dr  TN1d  1 3.400000e-01    1.230000e+00
 TP1dr  TN6q  1 3.400000e-01    2.740000e+00
 TP1dr  TN5q  1 3.400000e-01    2.500000e+00
 TP1dr  TN4q  1 3.400000e-01    2.500000e+00
 TP1dr  TN3q  1 3.400000e-01    2.020000e+00
 TP1dr  TN2q  1 3.400000e-01    2.020000e+00
 TP1dr  TN1q  1 3.400000e-01    2.020000e+00
 TP1dr  TC6q  1 3.400000e-01    1.770000e+00
 TP1dr  TC5q  1 3.400000e-01    1.510000e+00
 TP1dr  TC4q  1 3.400000e-01    1.230000e+00
 TP1dr  TC3q  1 3.520000e-01    1.050000e+00
 TP1dr  TC2q  1 3.520000e-01    1.050000e+00
 TP1dr  TC1q  1 3.660000e-01    9.350000e-01
 TP1dr  TX4q  1 3.400000e-01    1.770000e+00
 TP1dr  TX3q  1 3.400000e-01    1.770000e+00
 TP1dr  TX2q  1 3.400000e-01    1.510000e+00
 TP1dr  TX1q  1 3.400000e-01    1.230000e+00
 TN6dr  TN5d  1 3.400000e-01    2.020000e+00
 TN6dr  TN4d  1 3.400000e-01    2.020000e+00
 TN6dr  TN3d  1 3.400000e-01    1.510000e+00
 TN6dr  TN2d  1 3.400000e-01    1.230000e+00
 TN6dr  TN1d  1 3.400000e-01    1.230000e+00
 TN6dr  TN5q  1 3.400000e-01    2.740000e+00
 TN6dr  TN4q  1 3.400000e-01    2.740000e+00
 TN6dr  TN3q  1 3.400000e-01    2.280000e+00
 TN6dr  TN2q  1 3.400000e-01    2.020000e+00
 TN6dr  TN1q  1 3.400000e-01    2.020000e+00
 TN6dr  TC6q  1 3.400000e-01    2.020000e+00
 TN6dr  TC5q  1 3.400000e-01    1.770000e+00
 TN6dr  TC4q  1 3.400000e-01    1.510000e+00
 TN6dr  TC3q  1 3.400000e-01    1.230000e+00
 TN6dr  TC2q  1 3.400000e-01    1.230000e+00
 TN6dr  TC1q  1 3.520000e-01    1.050000e+00
 TN6dr  TX4q  1 3.400000e-01    2.020000e+00
 TN6dr  TX3q  1 3.400000e-01    1.770000e+00
 TN6dr  TX2q  1 3.400000e-01    1.510000e+00
 TN6dr  TX1q  1 3.400000e-01    1.230000e+00
 TN5dr  TN4d  1 3.400000e-01    1.770000e+00
 TN5dr  TN3d  1 3.400000e-01    1.510000e+00
 TN5dr  TN2d  1 3.400000e-01    1.510000e+00
 TN5dr  TN1d  1 3.400000e-01    1.230000e+00
 TN5dr  TN4q  1 3.400000e-01    2.500000e+00
 TN5dr  TN3q  1 3.400000e-01    2.280000e+00
 TN5dr  TN2q  1 3.400000e-01    2.280000e+00
 TN5dr  TN1q  1 3.400000e-01    2.020000e+00
 TN5dr  TC6q  1 3.400000e-01    2.020000e+00
 TN5dr  TC5q  1 3.400000e-01    1.770000e+00
 TN5dr  TC4q  1 3.400000e-01    1.510000e+00
 TN5dr  TC3q  1 3.400000e-01    1.510000e+00
 TN5dr  TC2q  1 3.400000e-01    1.230000e+00
 TN5dr  TC1q  1 3.520000e-01    1.050000e+00
 TN5dr  TX4q  1 3.400000e-01    2.280000e+00
 TN5dr  TX3q  1 3.400000e-01    2.020000e+00
 TN5dr  TX2q  1 3.400000e-01    1.770000e+00
 TN5dr  TX1q  1 3.400000e-01    1.510000e+00
 TN4dr  TN3d  1 3.400000e-01    1.510000e+00
 TN4dr  TN2d  1 3.400000e-01    1.510000e+00
 TN4dr  TN1d  1 3.400000e-01    1.230000e+00
 TN4dr  TN3q  1 3.400000e-01    2.280000e+00
 TN4dr  TN2q  1 3.400000e-01    2.280000e+00
 TN4dr  TN1q  1 3.400000e-01    2.020000e+00
 TN4dr  TC6q  1 3.400000e-01    2.020000e+00
 TN4dr  TC5q  1 3.400000e-01    1.770000e+00
 TN4dr  TC4q  1 3.400000e-01    1.770000e+00
 TN4dr  TC3q  1 3.400000e-01    1.510000e+00
 TN4dr  TC2q  1 3.400000e-01    1.230000e+00
 TN4dr  TC1q  1 3.520000e-01    1.050000e+00
 TN4dr  TX4q  1 3.400000e-01    2.500000e+00
 TN4dr  TX3q  1 3.400000e-01    2.280000e+00
 TN4dr  TX2q  1 3.400000e-01    1.770000e+00
 TN4dr  TX1q  1 3.400000e-01    1.510000e+00
 TN3dr  TN2d  1 3.400000e-01    1.510000e+00
 TN3dr  TN1d  1 3.400000e-01    1.230000e+00
 TN3dr  TN2q  1 3.400000e-01    2.280000e+00
 TN3dr  TN1q  1 3.400000e-01    2.020000e+00
 TN3dr  TC6q  1 3.400000e-01    2.020000e+00
 TN3dr  TC5q  1 3.400000e-01    1.770000e+00
 TN3dr  TC4q  1 3.400000e-01    1.770000e+00
 TN3dr  TC3q  1 3.400000e-01    1.510000e+00
 TN3dr  TC2q  1 3.400000e-01    1.510000e+00
 TN3dr  TC1q  1 3.400000e-01    1.230000e+00
 TN3dr  TX4q  1 3.400000e-01    2.280000e+00
 TN3dr  TX3q  1 3.400000e-01    2.020000e+00
 TN3dr  TX2q  1 3.400000e-01    1.770000e+00
 TN3dr  TX1q  1 3.400000e-01    1.770000e+00
 TN2dr  TN1d  1 3.400000e-01    1.230000e+00
 TN2dr  TN1q  1 3.400000e-01    2.020000e+00
 TN2dr  TC6q  1 3.400000e-01    2.020000e+00
 TN2dr  TC5q  1 3.400000e-01    1.770000e+00
 TN2dr  TC4q  1 3.400000e-01    1.770000e+00
 TN2dr  TC3q  1 3.400000e-01    1.770000e+00
 TN2dr  TC2q  1 3.400000e-01    1.510000e+00
 TN2dr  TC1q  1 3.400000e-01    1.230000e+00
 TN2dr  TX4q  1 3.400000e-01    2.280000e+00
 TN2dr  TX3q  1 3.400000e-01    2.020000e+00
 TN2dr  TX2q  1 3.400000e-01    1.770000e+00
 TN2dr  TX1q  1 3.400000e-01    1.770000e+00
 TN1dr  TC6q  1 3.400000e-01    2.280000e+00
 TN1dr  TC5q  1 3.400000e-01    2.020000e+00
 TN1dr  TC4q  1 3.400000e-01    2.020000e+00
 TN1dr  TC3q  1 3.400000e-01    1.770000e+00
 TN1dr  TC2q  1 3.400000e-01    1.510000e+00
 TN1dr  TC1q  1 3.400000e-01    1.230000e+00
 TN1dr  TX4q  1 3.400000e-01    2.020000e+00
 TN1dr  TX3q  1 3.400000e-01    2.020000e+00
 TN1dr  TX2q  1 3.400000e-01    1.770000e+00
 TN1dr  TX1q  1 3.400000e-01    1.770000e+00
 TP6ar  TP5a  1 3.400000e-01    2.990000e+00
 TP6ar  TP4a  1 3.400000e-01    2.740000e+00
 TP6ar  TP3a  1 3.400000e-01    2.500000e+00
 TP6ar  TP2a  1 3.400000e-01    2.500000e+00
 TP6ar  TP1a  1 3.400000e-01    2.280000e+00
 TP6ar  TN6a  1 3.400000e-01    2.020000e+00
 TP6ar  TN5a  1 3.400000e-01    1.510000e+00
 TP6ar  TN4a  1 3.400000e-01    1.230000e+00
 TP6ar  TN3a  1 3.400000e-01    1.230000e+00
 TP6ar  TN2a  1 3.520000e-01    1.050000e+00
 TP6ar  TN1a  1 3.660000e-01    9.350000e-01
 TP6ar  TP5q  1 3.400000e-01    3.750000e+00
 TP6ar  TP4q  1 3.400000e-01    3.470000e+00
 TP6ar  TP3q  1 3.400000e-01    3.220000e+00
 TP6ar  TP2q  1 3.400000e-01    3.220000e+00
 TP6ar  TP1q  1 3.400000e-01    2.990000e+00
 TP6ar  TN6q  1 3.400000e-01    2.740000e+00
 TP6ar  TN5q  1 3.400000e-01    2.280000e+00
 TP6ar  TN4q  1 3.400000e-01    2.020000e+00
 TP6ar  TN3q  1 3.400000e-01    1.770000e+00
 TP6ar  TN2q  1 3.400000e-01    1.510000e+00
 TP6ar  TN1q  1 3.400000e-01    1.230000e+00
 TP6ar  TC6q  1 3.400000e-01    1.230000e+00
 TP6ar  TC5q  1 3.520000e-01    1.050000e+00
 TP6ar  TC4q  1 3.660000e-01    9.350000e-01
 TP6ar  TC3q  1 3.850000e-01    8.550000e-01
 TP6ar  TC2q  1 3.850000e-01    8.550000e-01
 TP6ar  TC1q  1 4.240000e-01    7.760000e-01
 TP6ar  TX4q  1 3.400000e-01    1.510000e+00
 TP6ar  TX3q  1 3.400000e-01    1.510000e+00
 TP6ar  TX2q  1 3.400000e-01    1.230000e+00
 TP6ar  TX1q  1 3.520000e-01    1.050000e+00
 TP5ar  TP4a  1 3.400000e-01    2.500000e+00
 TP5ar  TP3a  1 3.400000e-01    2.280000e+00
 TP5ar  TP2a  1 3.400000e-01    2.280000e+00
 TP5ar  TP1a  1 3.400000e-01    2.020000e+00
 TP5ar  TN6a  1 3.400000e-01    1.770000e+00
 TP5ar  TN5a  1 3.400000e-01    1.510000e+00
 TP5ar  TN4a  1 3.400000e-01    1.510000e+00
 TP5ar  TN3a  1 3.400000e-01    1.230000e+00
 TP5ar  TN2a  1 3.520000e-01    1.050000e+00
 TP5ar  TN1a  1 3.660000e-01    9.350000e-01
 TP5ar  TP4q  1 3.400000e-01    3.220000e+00
 TP5ar  TP3q  1 3.400000e-01    2.990000e+00
 TP5ar  TP2q  1 3.400000e-01    2.990000e+00
 TP5ar  TP1q  1 3.400000e-01    2.740000e+00
 TP5ar  TN6q  1 3.400000e-01    2.500000e+00
 TP5ar  TN5q  1 3.400000e-01    2.280000e+00
 TP5ar  TN4q  1 3.400000e-01    2.280000e+00
 TP5ar  TN3q  1 3.400000e-01    1.770000e+00
 TP5ar  TN2q  1 3.400000e-01    1.510000e+00
 TP5ar  TN1q  1 3.400000e-01    1.230000e+00
 TP5ar  TC6q  1 3.400000e-01    1.230000e+00
 TP5ar  TC5q  1 3.400000e-01    1.230000e+00
 TP5ar  TC4q  1 3.520000e-01    1.050000e+00
 TP5ar  TC3q  1 3.660000e-01    9.350000e-01
 TP5ar  TC2q  1 3.660000e-01    9.350000e-01
 TP5ar  TC1q  1 3.850000e-01    8.550000e-01
 TP5ar  TX4q  1 3.400000e-01    1.770000e+00
 TP5ar  TX3q  1 3.400000e-01    1.510000e+00
 TP5ar  TX2q  1 3.400000e-01    1.510000e+00
 TP5ar  TX1q  1 3.520000e-01    1.050000e+00
 TP4ar  TP3a  1 3.400000e-01    2.280000e+00
 TP4ar  TP2a  1 3.400000e-01    2.280000e+00
 TP4ar  TP1a  1 3.400000e-01    2.020000e+00
 TP4ar  TN6a  1 3.400000e-01    1.770000e+00
 TP4ar  TN5a  1 3.400000e-01    1.510000e+00
 TP4ar  TN4a  1 3.400000e-01    1.510000e+00
 TP4ar  TN3a  1 3.400000e-01    1.230000e+00
 TP4ar  TN2a  1 3.400000e-01    1.230000e+00
 TP4ar  TN1a  1 3.520000e-01    1.050000e+00
 TP4ar  TP3q  1 3.400000e-01    2.990000e+00
 TP4ar  TP2q  1 3.400000e-01    2.990000e+00
 TP4ar  TP1q  1 3.400000e-01    2.740000e+00
 TP4ar  TN6q  1 3.400000e-01    2.500000e+00
 TP4ar  TN5q  1 3.400000e-01    2.280000e+00
 TP4ar  TN4q  1 3.400000e-01    2.280000e+00
 TP4ar  TN3q  1 3.400000e-01    2.020000e+00
 TP4ar  TN2q  1 3.400000e-01    1.770000e+00
 TP4ar  TN1q  1 3.400000e-01    1.510000e+00
 TP4ar  TC6q  1 3.400000e-01    1.510000e+00
 TP4ar  TC5q  1 3.400000e-01    1.230000e+00
 TP4ar  TC4q  1 3.520000e-01    1.050000e+00
 TP4ar  TC3q  1 3.660000e-01    9.350000e-01
 TP4ar  TC2q  1 3.660000e-01    9.350000e-01
 TP4ar  TC1q  1 3.850000e-01    8.550000e-01
 TP4ar  TX4q  1 3.400000e-01    1.770000e+00
 TP4ar  TX3q  1 3.400000e-01    1.510000e+00
 TP4ar  TX2q  1 3.400000e-01    1.510000e+00
 TP4ar  TX1q  1 3.400000e-01    1.230000e+00
 TP3ar  TP2a  1 3.400000e-01    2.280000e+00
 TP3ar  TP1a  1 3.400000e-01    2.020000e+00
 TP3ar  TN6a  1 3.400000e-01    1.770000e+00
 TP3ar  TN5a  1 3.400000e-01    1.510000e+00
 TP3ar  TN4a  1 3.400000e-01    1.510000e+00
 TP3ar  TN3a  1 3.400000e-01    1.230000e+00
 TP3ar  TN2a  1 3.400000e-01    1.230000e+00
 TP3ar  TN1a  1 3.400000e-01    1.230000e+00
 TP3ar  TP2q  1 3.400000e-01    2.990000e+00
 TP3ar  TP1q  1 3.400000e-01    2.740000e+00
 TP3ar  TN6q  1 3.400000e-01    2.500000e+00
 TP3ar  TN5q  1 3.400000e-01    2.280000e+00
 TP3ar  TN4q  1 3.400000e-01    2.280000e+00
 TP3ar  TN3q  1 3.400000e-01    2.020000e+00
 TP3ar  TN2q  1 3.400000e-01    2.020000e+00
 TP3ar  TN1q  1 3.400000e-01    1.770000e+00
 TP3ar  TC6q  1 3.400000e-01    1.770000e+00
 TP3ar  TC5q  1 3.400000e-01    1.510000e+00
 TP3ar  TC4q  1 3.400000e-01    1.230000e+00
 TP3ar  TC3q  1 3.660000e-01    9.350000e-01
 TP3ar  TC2q  1 3.660000e-01    9.350000e-01
 TP3ar  TC1q  1 3.850000e-01    8.550000e-01
 TP3ar  TX4q  1 3.400000e-01    1.770000e+00
 TP3ar  TX3q  1 3.400000e-01    1.770000e+00
 TP3ar  TX2q  1 3.400000e-01    1.510000e+00
 TP3ar  TX1q  1 3.400000e-01    1.230000e+00
 TP2ar  TP1a  1 3.400000e-01    2.020000e+00
 TP2ar  TN6a  1 3.400000e-01    2.020000e+00
 TP2ar  TN5a  1 3.400000e-01    1.770000e+00
 TP2ar  TN4a  1 3.400000e-01    1.510000e+00
 TP2ar  TN3a  1 3.400000e-01    1.230000e+00
 TP2ar  TN2a  1 3.400000e-01    1.230000e+00
 TP2ar  TN1a  1 3.400000e-01    1.230000e+00
 TP2ar  TP1q  1 3.400000e-01    2.740000e+00
 TP2ar  TN6q  1 3.400000e-01    2.740000e+00
 TP2ar  TN5q  1 3.400000e-01    2.500000e+00
 TP2ar  TN4q  1 3.400000e-01    2.280000e+00
 TP2ar  TN3q  1 3.400000e-01    2.020000e+00
 TP2ar  TN2q  1 3.400000e-01    2.020000e+00
 TP2ar  TN1q  1 3.400000e-01    2.020000e+00
 TP2ar  TC6q  1 3.400000e-01    1.770000e+00
 TP2ar  TC5q  1 3.400000e-01    1.510000e+00
 TP2ar  TC4q  1 3.400000e-01    1.230000e+00
 TP2ar  TC3q  1 3.520000e-01    1.050000e+00
 TP2ar  TC2q  1 3.520000e-01    1.050000e+00
 TP2ar  TC1q  1 3.660000e-01    9.350000e-01
 TP2ar  TX4q  1 3.400000e-01    1.770000e+00
 TP2ar  TX3q  1 3.400000e-01    1.770000e+00
 TP2ar  TX2q  1 3.400000e-01    1.510000e+00
 TP2ar  TX1q  1 3.400000e-01    1.230000e+00
 TP1ar  TN6a  1 3.400000e-01    2.020000e+00
 TP1ar  TN5a  1 3.400000e-01    1.770000e+00
 TP1ar  TN4a  1 3.400000e-01    1.770000e+00
 TP1ar  TN3a  1 3.400000e-01    1.230000e+00
 TP1ar  TN2a  1 3.400000e-01    1.230000e+00
 TP1ar  TN1a  1 3.400000e-01    1.230000e+00
 TP1ar  TN6q  1 3.400000e-01    2.740000e+00
 TP1ar  TN5q  1 3.400000e-01    2.500000e+00
 TP1ar  TN4q  1 3.400000e-01    2.500000e+00
 TP1ar  TN3q  1 3.400000e-01    2.020000e+00
 TP1ar  TN2q  1 3.400000e-01    2.020000e+00
 TP1ar  TN1q  1 3.400000e-01    2.020000e+00
 TP1ar  TC6q  1 3.400000e-01    1.770000e+00
 TP1ar  TC5q  1 3.400000e-01    1.510000e+00
 TP1ar  TC4q  1 3.400000e-01    1.230000e+00
 TP1ar  TC3q  1 3.520000e-01    1.050000e+00
 TP1ar  TC2q  1 3.520000e-01    1.050000e+00
 TP1ar  TC1q  1 3.660000e-01    9.350000e-01
 TP1ar  TX4q  1 3.400000e-01    1.770000e+00
 TP1ar  TX3q  1 3.400000e-01    1.770000e+00
 TP1ar  TX2q  1 3.400000e-01    1.510000e+00
 TP1ar  TX1q  1 3.400000e-01    1.230000e+00
 TN6ar  TN5a  1 3.400000e-01    2.020000e+00
 TN6ar  TN4a  1 3.400000e-01    2.020000e+00
 TN6ar  TN3a  1 3.400000e-01    1.510000e+00
 TN6ar  TN2a  1 3.400000e-01    1.230000e+00
 TN6ar  TN1a  1 3.400000e-01    1.230000e+00
 TN6ar  TN5q  1 3.400000e-01    2.740000e+00
 TN6ar  TN4q  1 3.400000e-01    2.740000e+00
 TN6ar  TN3q  1 3.400000e-01    2.280000e+00
 TN6ar  TN2q  1 3.400000e-01    2.020000e+00
 TN6ar  TN1q  1 3.400000e-01    2.020000e+00
 TN6ar  TC6q  1 3.400000e-01    2.020000e+00
 TN6ar  TC5q  1 3.400000e-01    1.770000e+00
 TN6ar  TC4q  1 3.400000e-01    1.510000e+00
 TN6ar  TC3q  1 3.400000e-01    1.230000e+00
 TN6ar  TC2q  1 3.400000e-01    1.230000e+00
 TN6ar  TC1q  1 3.520000e-01    1.050000e+00
 TN6ar  TX4q  1 3.400000e-01    2.020000e+00
 TN6ar  TX3q  1 3.400000e-01    1.770000e+00
 TN6ar  TX2q  1 3.400000e-01    1.510000e+00
 TN6ar  TX1q  1 3.400000e-01    1.230000e+00
 TN5ar  TN4a  1 3.400000e-01    1.770000e+00
 TN5ar  TN3a  1 3.400000e-01    1.510000e+00
 TN5ar  TN2a  1 3.400000e-01    1.510000e+00
 TN5ar  TN1a  1 3.400000e-01    1.230000e+00
 TN5ar  TN4q  1 3.400000e-01    2.500000e+00
 TN5ar  TN3q  1 3.400000e-01    2.280000e+00
 TN5ar  TN2q  1 3.400000e-01    2.280000e+00
 TN5ar  TN1q  1 3.400000e-01    2.020000e+00
 TN5ar  TC6q  1 3.400000e-01    2.020000e+00
 TN5ar  TC5q  1 3.400000e-01    1.770000e+00
 TN5ar  TC4q  1 3.400000e-01    1.510000e+00
 TN5ar  TC3q  1 3.400000e-01    1.510000e+00
 TN5ar  TC2q  1 3.400000e-01    1.230000e+00
 TN5ar  TC1q  1 3.520000e-01    1.050000e+00
 TN5ar  TX4q  1 3.400000e-01    2.280000e+00
 TN5ar  TX3q  1 3.400000e-01    2.020000e+00
 TN5ar  TX2q  1 3.400000e-01    1.770000e+00
 TN5ar  TX1q  1 3.400000e-01    1.510000e+00
 TN4ar  TN3a  1 3.400000e-01    1.510000e+00
 TN4ar  TN2a  1 3.400000e-01    1.510000e+00
 TN4ar  TN1a  1 3.400000e-01    1.230000e+00
 TN4ar  TN3q  1 3.400000e-01    2.280000e+00
 TN4ar  TN2q  1 3.400000e-01    2.280000e+00
 TN4ar  TN1q  1 3.400000e-01    2.020000e+00
 TN4ar  TC6q  1 3.400000e-01    2.020000e+00
 TN4ar  TC5q  1 3.400000e-01    1.770000e+00
 TN4ar  TC4q  1 3.400000e-01    1.770000e+00
 TN4ar  TC3q  1 3.400000e-01    1.510000e+00
 TN4ar  TC2q  1 3.400000e-01    1.230000e+00
 TN4ar  TC1q  1 3.520000e-01    1.050000e+00
 TN4ar  TX4q  1 3.400000e-01    2.500000e+00
 TN4ar  TX3q  1 3.400000e-01    2.280000e+00
 TN4ar  TX2q  1 3.400000e-01    1.770000e+00
 TN4ar  TX1q  1 3.400000e-01    1.510000e+00
 TN3ar  TN2a  1 3.400000e-01    1.510000e+00
 TN3ar  TN1a  1 3.400000e-01    1.230000e+00
 TN3ar  TN2q  1 3.400000e-01    2.280000e+00
 TN3ar  TN1q  1 3.400000e-01    2.020000e+00
 TN3ar  TC6q  1 3.400000e-01    2.020000e+00
 TN3ar  TC5q  1 3.400000e-01    1.770000e+00
 TN3ar  TC4q  1 3.400000e-01    1.770000e+00
 TN3ar  TC3q  1 3.400000e-01    1.510000e+00
 TN3ar  TC2q  1 3.400000e-01    1.510000e+00
 TN3ar  TC1q  1 3.400000e-01    1.230000e+00
 TN3ar  TX4q  1 3.400000e-01    2.280000e+00
 TN3ar  TX3q  1 3.400000e-01    2.020000e+00
 TN3ar  TX2q  1 3.400000e-01    1.770000e+00
 TN3ar  TX1q  1 3.400000e-01    1.770000e+00
 TN2ar  TN1a  1 3.400000e-01    1.230000e+00
 TN2ar  TN1q  1 3.400000e-01    2.020000e+00
 TN2ar  TC6q  1 3.400000e-01    2.020000e+00
 TN2ar  TC5q  1 3.400000e-01    1.770000e+00
 TN2ar  TC4q  1 3.400000e-01    1.770000e+00
 TN2ar  TC3q  1 3.400000e-01    1.770000e+00
 TN2ar  TC2q  1 3.400000e-01    1.510000e+00
 TN2ar  TC1q  1 3.400000e-01    1.230000e+00
 TN2ar  TX4q  1 3.400000e-01    2.280000e+00
 TN2ar  TX3q  1 3.400000e-01    2.020000e+00
 TN2ar  TX2q  1 3.400000e-01    1.770000e+00
 TN2ar  TX1q  1 3.400000e-01    1.770000e+00
 TN1ar  TC6q  1 3.400000e-01    2.280000e+00
 TN1ar  TC5q  1 3.400000e-01    2.020000e+00
 TN1ar  TC4q  1 3.400000e-01    2.020000e+00
 TN1ar  TC3q  1 3.400000e-01    1.770000e+00
 TN1ar  TC2q  1 3.400000e-01    1.510000e+00
 TN1ar  TC1q  1 3.400000e-01    1.230000e+00
 TN1ar  TX4q  1 3.400000e-01    2.020000e+00
 TN1ar  TX3q  1 3.400000e-01    2.020000e+00
 TN1ar  TX2q  1 3.400000e-01    1.770000e+00
 TN1ar  TX1q  1 3.400000e-01    1.770000e+00
 TC6vr  TC5q  1 3.400000e-01    2.280000e+00
 TC6vr  TC4q  1 3.400000e-01    2.280000e+00
 TC6vr  TC3q  1 3.400000e-01    2.020000e+00
 TC6vr  TC2q  1 3.400000e-01    1.770000e+00
 TC6vr  TC1q  1 3.400000e-01    1.510000e+00
 TC6vr  TX4q  1 3.400000e-01    2.280000e+00
 TC6vr  TX3q  1 3.400000e-01    2.280000e+00
 TC6vr  TX2q  1 3.400000e-01    2.280000e+00
 TC6vr  TX1q  1 3.400000e-01    2.280000e+00
 TC5vr  TC4q  1 3.400000e-01    2.280000e+00
 TC5vr  TC3q  1 3.400000e-01    2.020000e+00
 TC5vr  TC2q  1 3.400000e-01    1.770000e+00
 TC5vr  TC1q  1 3.400000e-01    1.770000e+00
 TC5vr  TX4q  1 3.400000e-01    2.020000e+00
 TC5vr  TX3q  1 3.400000e-01    2.020000e+00
 TC5vr  TX2q  1 3.400000e-01    2.020000e+00
 TC5vr  TX1q  1 3.400000e-01    2.280000e+00
 TC4vr  TC3q  1 3.400000e-01    2.280000e+00
 TC4vr  TC2q  1 3.400000e-01    2.020000e+00
 TC4vr  TC1q  1 3.400000e-01    1.770000e+00
 TC4vr  TX4q  1 3.400000e-01    2.020000e+00
 TC4vr  TX3q  1 3.400000e-01    2.020000e+00
 TC4vr  TX2q  1 3.400000e-01    2.020000e+00
 TC4vr  TX1q  1 3.400000e-01    2.280000e+00
 TC3vr  TC2q  1 3.400000e-01    2.280000e+00
 TC3vr  TC1q  1 3.400000e-01    2.280000e+00
 TC3vr  TX4q  1 3.400000e-01    2.020000e+00
 TC3vr  TX3q  1 3.400000e-01    2.020000e+00
 TC3vr  TX2q  1 3.400000e-01    2.020000e+00
 TC3vr  TX1q  1 3.400000e-01    2.280000e+00
 TC2vr  TC1q  1 3.400000e-01    2.500000e+00
 TC2vr  TX4q  1 3.400000e-01    1.510000e+00
 TC2vr  TX3q  1 3.400000e-01    2.020000e+00
 TC2vr  TX2q  1 3.400000e-01    2.020000e+00
 TC2vr  TX1q  1 3.400000e-01    2.020000e+00
 TC1vr  TX4q  1 3.400000e-01    1.510000e+00
 TC1vr  TX3q  1 3.400000e-01    2.020000e+00
 TC1vr  TX2q  1 3.400000e-01    2.020000e+00
 TC1vr  TX1q  1 3.400000e-01    2.020000e+00
 TX4vr  TX3q  1 3.400000e-01    2.280000e+00
 TX4vr  TX2q  1 3.400000e-01    2.280000e+00
 TX4vr  TX1q  1 3.400000e-01    2.280000e+00
 TX3vr  TX2q  1 3.400000e-01    2.500000e+00
 TX3vr  TX1q  1 3.400000e-01    2.500000e+00
 TX2vr  TX1q  1 3.400000e-01    2.500000e+00
 TC6er  TC5q  1 3.400000e-01    2.280000e+00
 TC6er  TC4q  1 3.400000e-01    2.280000e+00
 TC6er  TC3q  1 3.400000e-01    2.020000e+00
 TC6er  TC2q  1 3.400000e-01    1.770000e+00
 TC6er  TC1q  1 3.400000e-01    1.510000e+00
 TC6er  TX4q  1 3.400000e-01    2.280000e+00
 TC6er  TX3q  1 3.400000e-01    2.280000e+00
 TC6er  TX2q  1 3.400000e-01    2.280000e+00
 TC6er  TX1q  1 3.400000e-01    2.280000e+00
 TC5er  TC4q  1 3.400000e-01    2.280000e+00
 TC5er  TC3q  1 3.400000e-01    2.020000e+00
 TC5er  TC2q  1 3.400000e-01    1.770000e+00
 TC5er  TC1q  1 3.400000e-01    1.770000e+00
 TC5er  TX4q  1 3.400000e-01    2.020000e+00
 TC5er  TX3q  1 3.400000e-01    2.020000e+00
 TC5er  TX2q  1 3.400000e-01    2.020000e+00
 TC5er  TX1q  1 3.400000e-01    2.280000e+00
 TC4er  TC3q  1 3.400000e-01    2.280000e+00
 TC4er  TC2q  1 3.400000e-01    2.020000e+00
 TC4er  TC1q  1 3.400000e-01    1.770000e+00
 TC4er  TX4q  1 3.400000e-01    2.020000e+00
 TC4er  TX3q  1 3.400000e-01    2.020000e+00
 TC4er  TX2q  1 3.400000e-01    2.020000e+00
 TC4er  TX1q  1 3.400000e-01    2.280000e+00
 TC3er  TC2q  1 3.400000e-01    2.280000e+00
 TC3er  TC1q  1 3.400000e-01    2.280000e+00
 TC3er  TX4q  1 3.400000e-01    2.020000e+00
 TC3er  TX3q  1 3.400000e-01    2.020000e+00
 TC3er  TX2q  1 3.400000e-01    2.020000e+00
 TC3er  TX1q  1 3.400000e-01    2.280000e+00
 TC2er  TC1q  1 3.400000e-01    2.500000e+00
 TC2er  TX4q  1 3.400000e-01    1.510000e+00
 TC2er  TX3q  1 3.400000e-01    2.020000e+00
 TC2er  TX2q  1 3.400000e-01    2.020000e+00
 TC2er  TX1q  1 3.400000e-01    2.020000e+00
 TC1er  TX4q  1 3.400000e-01    1.510000e+00
 TC1er  TX3q  1 3.400000e-01    2.020000e+00
 TC1er  TX2q  1 3.400000e-01    2.020000e+00
 TC1er  TX1q  1 3.400000e-01    2.020000e+00
 TX4er  TX3q  1 3.400000e-01    2.280000e+00
 TX4er  TX2q  1 3.400000e-01    2.280000e+00
 TX4er  TX1q  1 3.400000e-01    2.280000e+00
 TX3er  TX2q  1 3.400000e-01    2.500000e+00
 TX3er  TX1q  1 3.400000e-01    2.500000e+00
 TX2er  TX1q  1 3.400000e-01    2.500000e+00
 TP6dr  TP5r  1 3.400000e-01    2.990000e+00
 TP6dr  TP4r  1 3.400000e-01    2.740000e+00
 TP6dr  TP3r  1 3.400000e-01    2.500000e+00
 TP6dr  TP2r  1 3.400000e-01    2.500000e+00
 TP6dr  TP1r  1 3.400000e-01    2.280000e+00
 TP6dr  TN6r  1 3.400000e-01    2.020000e+00
 TP6dr  TN5r  1 3.400000e-01    1.510000e+00
 TP6dr  TN4r  1 3.400000e-01    1.230000e+00
 TP6dr  TN3r  1 3.520000e-01    1.050000e+00
 TP6dr  TN2r  1 3.660000e-01    9.350000e-01
 TP6dr  TN1r  1 3.850000e-01    8.550000e-01
 TP5dr  TP4r  1 3.400000e-01    2.500000e+00
 TP5dr  TP3r  1 3.400000e-01    2.280000e+00
 TP5dr  TP2r  1 3.400000e-01    2.280000e+00
 TP5dr  TP1r  1 3.400000e-01    2.020000e+00
 TP5dr  TN6r  1 3.400000e-01    1.770000e+00
 TP5dr  TN5r  1 3.400000e-01    1.510000e+00
 TP5dr  TN4r  1 3.400000e-01    1.510000e+00
 TP5dr  TN3r  1 3.520000e-01    1.050000e+00
 TP5dr  TN2r  1 3.660000e-01    9.350000e-01
 TP5dr  TN1r  1 3.850000e-01    8.550000e-01
 TP4dr  TP3r  1 3.400000e-01    2.280000e+00
 TP4dr  TP2r  1 3.400000e-01    2.280000e+00
 TP4dr  TP1r  1 3.400000e-01    2.020000e+00
 TP4dr  TN6r  1 3.400000e-01    1.770000e+00
 TP4dr  TN5r  1 3.400000e-01    1.510000e+00
 TP4dr  TN4r  1 3.400000e-01    1.510000e+00
 TP4dr  TN3r  1 3.400000e-01    1.230000e+00
 TP4dr  TN2r  1 3.520000e-01    1.050000e+00
 TP4dr  TN1r  1 3.660000e-01    9.350000e-01
 TP3dr  TP2r  1 3.400000e-01    2.280000e+00
 TP3dr  TP1r  1 3.400000e-01    2.020000e+00
 TP3dr  TN6r  1 3.400000e-01    1.770000e+00
 TP3dr  TN5r  1 3.400000e-01    1.510000e+00
 TP3dr  TN4r  1 3.400000e-01    1.510000e+00
 TP3dr  TN3r  1 3.400000e-01    1.230000e+00
 TP3dr  TN2r  1 3.400000e-01    1.230000e+00
 TP3dr  TN1r  1 3.520000e-01    1.050000e+00
 TP2dr  TP1r  1 3.400000e-01    2.020000e+00
 TP2dr  TN6r  1 3.400000e-01    2.020000e+00
 TP2dr  TN5r  1 3.400000e-01    1.770000e+00
 TP2dr  TN4r  1 3.400000e-01    1.510000e+00
 TP2dr  TN3r  1 3.400000e-01    1.230000e+00
 TP2dr  TN2r  1 3.400000e-01    1.230000e+00
 TP2dr  TN1r  1 3.400000e-01    1.230000e+00
 TP1dr  TN6r  1 3.400000e-01    2.020000e+00
 TP1dr  TN5r  1 3.400000e-01    1.770000e+00
 TP1dr  TN4r  1 3.400000e-01    1.770000e+00
 TP1dr  TN3r  1 3.400000e-01    1.230000e+00
 TP1dr  TN2r  1 3.400000e-01    1.230000e+00
 TP1dr  TN1r  1 3.400000e-01    1.230000e+00
 TN6dr  TN5r  1 3.400000e-01    2.020000e+00
 TN6dr  TN4r  1 3.400000e-01    2.020000e+00
 TN6dr  TN3r  1 3.400000e-01    1.510000e+00
 TN6dr  TN2r  1 3.400000e-01    1.230000e+00
 TN6dr  TN1r  1 3.400000e-01    1.230000e+00
 TN5dr  TN4r  1 3.400000e-01    1.770000e+00
 TN5dr  TN3r  1 3.400000e-01    1.510000e+00
 TN5dr  TN2r  1 3.400000e-01    1.510000e+00
 TN5dr  TN1r  1 3.400000e-01    1.230000e+00
 TN4dr  TN3r  1 3.400000e-01    1.510000e+00
 TN4dr  TN2r  1 3.400000e-01    1.510000e+00
 TN4dr  TN1r  1 3.400000e-01    1.230000e+00
 TN3dr  TN2r  1 3.400000e-01    1.510000e+00
 TN3dr  TN1r  1 3.400000e-01    1.230000e+00
 TN2dr  TN1r  1 3.400000e-01    1.230000e+00
 TP6ar  TP5r  1 3.400000e-01    2.990000e+00
 TP6ar  TP4r  1 3.400000e-01    2.740000e+00
 TP6ar  TP3r  1 3.400000e-01    2.500000e+00
 TP6ar  TP2r  1 3.400000e-01    2.500000e+00
 TP6ar  TP1r  1 3.400000e-01    2.280000e+00
 TP6ar  TN6r  1 3.400000e-01    2.020000e+00
 TP6ar  TN5r  1 3.400000e-01    1.510000e+00
 TP6ar  TN4r  1 3.400000e-01    1.230000e+00
 TP6ar  TN3r  1 3.520000e-01    1.050000e+00
 TP6ar  TN2r  1 3.660000e-01    9.350000e-01
 TP6ar  TN1r  1 3.850000e-01    8.550000e-01
 TP5ar  TP4r  1 3.400000e-01    2.500000e+00
 TP5ar  TP3r  1 3.400000e-01    2.280000e+00
 TP5ar  TP2r  1 3.400000e-01    2.280000e+00
 TP5ar  TP1r  1 3.400000e-01    2.020000e+00
 TP5ar  TN6r  1 3.400000e-01    1.770000e+00
 TP5ar  TN5r  1 3.400000e-01    1.510000e+00
 TP5ar  TN4r  1 3.400000e-01    1.510000e+00
 TP5ar  TN3r  1 3.520000e-01    1.050000e+00
 TP5ar  TN2r  1 3.660000e-01    9.350000e-01
 TP5ar  TN1r  1 3.850000e-01    8.550000e-01
 TP4ar  TP3r  1 3.400000e-01    2.280000e+00
 TP4ar  TP2r  1 3.400000e-01    2.280000e+00
 TP4ar  TP1r  1 3.400000e-01    2.020000e+00
 TP4ar  TN6r  1 3.400000e-01    1.770000e+00
 TP4ar  TN5r  1 3.400000e-01    1.510000e+00
 TP4ar  TN4r  1 3.400000e-01    1.510000e+00
 TP4ar  TN3r  1 3.400000e-01    1.230000e+00
 TP4ar  TN2r  1 3.520000e-01    1.050000e+00
 TP4ar  TN1r  1 3.660000e-01    9.350000e-01
 TP3ar  TP2r  1 3.400000e-01    2.280000e+00
 TP3ar  TP1r  1 3.400000e-01    2.020000e+00
 TP3ar  TN6r  1 3.400000e-01    1.770000e+00
 TP3ar  TN5r  1 3.400000e-01    1.510000e+00
 TP3ar  TN4r  1 3.400000e-01    1.510000e+00
 TP3ar  TN3r  1 3.400000e-01    1.230000e+00
 TP3ar  TN2r  1 3.400000e-01    1.230000e+00
 TP3ar  TN1r  1 3.520000e-01    1.050000e+00
 TP2ar  TP1r  1 3.400000e-01    2.020000e+00
 TP2ar  TN6r  1 3.400000e-01    2.020000e+00
 TP2ar  TN5r  1 3.400000e-01    1.770000e+00
 TP2ar  TN4r  1 3.400000e-01    1.510000e+00
 TP2ar  TN3r  1 3.400000e-01    1.230000e+00
 TP2ar  TN2r  1 3.400000e-01    1.230000e+00
 TP2ar  TN1r  1 3.400000e-01    1.230000e+00
 TP1ar  TN6r  1 3.400000e-01    2.020000e+00
 TP1ar  TN5r  1 3.400000e-01    1.770000e+00
 TP1ar  TN4r  1 3.400000e-01    1.770000e+00
 TP1ar  TN3r  1 3.400000e-01    1.230000e+00
 TP1ar  TN2r  1 3.400000e-01    1.230000e+00
 TP1ar  TN1r  1 3.400000e-01    1.230000e+00
 TN6ar  TN5r  1 3.400000e-01    2.020000e+00
 TN6ar  TN4r  1 3.400000e-01    2.020000e+00
 TN6ar  TN3r  1 3.400000e-01    1.510000e+00
 TN6ar  TN2r  1 3.400000e-01    1.230000e+00
 TN6ar  TN1r  1 3.400000e-01    1.230000e+00
 TN5ar  TN4r  1 3.400000e-01    1.770000e+00
 TN5ar  TN3r  1 3.400000e-01    1.510000e+00
 TN5ar  TN2r  1 3.400000e-01    1.510000e+00
 TN5ar  TN1r  1 3.400000e-01    1.230000e+00
 TN4ar  TN3r  1 3.400000e-01    1.510000e+00
 TN4ar  TN2r  1 3.400000e-01    1.510000e+00
 TN4ar  TN1r  1 3.400000e-01    1.230000e+00
 TN3ar  TN2r  1 3.400000e-01    1.510000e+00
 TN3ar  TN1r  1 3.400000e-01    1.230000e+00
 TN2ar  TN1r  1 3.400000e-01    1.230000e+00
 TC6vr  TC5r  1 3.400000e-01    1.510000e+00
 TC6vr  TC4r  1 3.400000e-01    1.510000e+00
 TC6vr  TC3r  1 3.400000e-01    1.230000e+00
 TC6vr  TC2r  1 3.520000e-01    1.050000e+00
 TC6vr  TC1r  1 3.660000e-01    9.350000e-01
 TC6vr  TX4r  1 3.400000e-01    1.510000e+00
 TC6vr  TX3r  1 3.400000e-01    1.510000e+00
 TC6vr  TX2r  1 3.400000e-01    1.510000e+00
 TC6vr  TX1r  1 3.400000e-01    1.510000e+00
 TC5vr  TC4r  1 3.400000e-01    1.510000e+00
 TC5vr  TC3r  1 3.400000e-01    1.230000e+00
 TC5vr  TC2r  1 3.520000e-01    1.050000e+00
 TC5vr  TC1r  1 3.520000e-01    1.050000e+00
 TC5vr  TX4r  1 3.400000e-01    1.230000e+00
 TC5vr  TX3r  1 3.400000e-01    1.230000e+00
 TC5vr  TX2r  1 3.400000e-01    1.230000e+00
 TC5vr  TX1r  1 3.400000e-01    1.510000e+00
 TC4vr  TC3r  1 3.400000e-01    1.510000e+00
 TC4vr  TC2r  1 3.400000e-01    1.230000e+00
 TC4vr  TC1r  1 3.520000e-01    1.050000e+00
 TC4vr  TX4r  1 3.400000e-01    1.230000e+00
 TC4vr  TX3r  1 3.400000e-01    1.230000e+00
 TC4vr  TX2r  1 3.400000e-01    1.230000e+00
 TC4vr  TX1r  1 3.400000e-01    1.510000e+00
 TC3vr  TC2r  1 3.400000e-01    1.510000e+00
 TC3vr  TC1r  1 3.400000e-01    1.510000e+00
 TC3vr  TX4r  1 3.400000e-01    1.230000e+00
 TC3vr  TX3r  1 3.400000e-01    1.230000e+00
 TC3vr  TX2r  1 3.400000e-01    1.230000e+00
 TC3vr  TX1r  1 3.400000e-01    1.510000e+00
 TC2vr  TC1r  1 3.400000e-01    1.770000e+00
 TC2vr  TX4r  1 3.660000e-01    9.350000e-01
 TC2vr  TX3r  1 3.400000e-01    1.230000e+00
 TC2vr  TX2r  1 3.400000e-01    1.230000e+00
 TC2vr  TX1r  1 3.400000e-01    1.230000e+00
 TC1vr  TX4r  1 3.660000e-01    9.350000e-01
 TC1vr  TX3r  1 3.400000e-01    1.230000e+00
 TC1vr  TX2r  1 3.400000e-01    1.230000e+00
 TC1vr  TX1r  1 3.400000e-01    1.230000e+00
 TX4vr  TX3r  1 3.400000e-01    1.510000e+00
 TX4vr  TX2r  1 3.400000e-01    1.510000e+00
 TX4vr  TX1r  1 3.400000e-01    1.510000e+00
 TX3vr  TX2r  1 3.400000e-01    1.770000e+00
 TX3vr  TX1r  1 3.400000e-01    1.770000e+00
 TX2vr  TX1r  1 3.400000e-01    1.770000e+00
 TC6er  TC5r  1 3.400000e-01    1.510000e+00
 TC6er  TC4r  1 3.400000e-01    1.510000e+00
 TC6er  TC3r  1 3.400000e-01    1.230000e+00
 TC6er  TC2r  1 3.520000e-01    1.050000e+00
 TC6er  TC1r  1 3.660000e-01    9.350000e-01
 TC6er  TX4r  1 3.400000e-01    1.510000e+00
 TC6er  TX3r  1 3.400000e-01    1.510000e+00
 TC6er  TX2r  1 3.400000e-01    1.510000e+00
 TC6er  TX1r  1 3.400000e-01    1.510000e+00
 TC5er  TC4r  1 3.400000e-01    1.510000e+00
 TC5er  TC3r  1 3.400000e-01    1.230000e+00
 TC5er  TC2r  1 3.520000e-01    1.050000e+00
 TC5er  TC1r  1 3.520000e-01    1.050000e+00
 TC5er  TX4r  1 3.400000e-01    1.230000e+00
 TC5er  TX3r  1 3.400000e-01    1.230000e+00
 TC5er  TX2r  1 3.400000e-01    1.230000e+00
 TC5er  TX1r  1 3.400000e-01    1.510000e+00
 TC4er  TC3r  1 3.400000e-01    1.510000e+00
 TC4er  TC2r  1 3.400000e-01    1.230000e+00
 TC4er  TC1r  1 3.520000e-01    1.050000e+00
 TC4er  TX4r  1 3.400000e-01    1.230000e+00
 TC4er  TX3r  1 3.400000e-01    1.230000e+00
 TC4er  TX2r  1 3.400000e-01    1.230000e+00
 TC4er  TX1r  1 3.400000e-01    1.510000e+00
 TC3er  TC2r  1 3.400000e-01    1.510000e+00
 TC3er  TC1r  1 3.400000e-01    1.510000e+00
 TC3er  TX4r  1 3.400000e-01    1.230000e+00
 TC3er  TX3r  1 3.400000e-01    1.230000e+00
 TC3er  TX2r  1 3.400000e-01    1.230000e+00
 TC3er  TX1r  1 3.400000e-01    1.510000e+00
 TC2er  TC1r  1 3.400000e-01    1.770000e+00
 TC2er  TX4r  1 3.660000e-01    9.350000e-01
 TC2er  TX3r  1 3.400000e-01    1.230000e+00
 TC2er  TX2r  1 3.400000e-01    1.230000e+00
 TC2er  TX1r  1 3.400000e-01    1.230000e+00
 TC1er  TX4r  1 3.660000e-01    9.350000e-01
 TC1er  TX3r  1 3.400000e-01    1.230000e+00
 TC1er  TX2r  1 3.400000e-01    1.230000e+00
 TC1er  TX1r  1 3.400000e-01    1.230000e+00
 TX4er  TX3r  1 3.400000e-01    1.510000e+00
 TX4er  TX2r  1 3.400000e-01    1.510000e+00
 TX4er  TX1r  1 3.400000e-01    1.510000e+00
 TX3er  TX2r  1 3.400000e-01    1.770000e+00
 TX3er  TX1r  1 3.400000e-01    1.770000e+00
 TX2er  TX1r  1 3.400000e-01    1.770000e+00
 TP6dr  TC6r  1 3.660000e-01    9.350000e-01
 TP6dr  TC5r  1 3.850000e-01    8.550000e-01
 TP6dr  TC4r  1 4.110000e-01    8.010000e-01
 TP6dr  TC3r  1 4.240000e-01    7.760000e-01
 TP6dr  TC2r  1 4.240000e-01    7.760000e-01
 TP6dr  TC1r  1 5.050000e-01    6.800000e-01
 TP6dr  TX4r  1 3.520000e-01    1.050000e+00
 TP6dr  TX3r  1 3.520000e-01    1.050000e+00
 TP6dr  TX2r  1 3.660000e-01    9.350000e-01
 TP6dr  TX1r  1 3.850000e-01    8.550000e-01
 TP5dr  TC6r  1 3.660000e-01    9.350000e-01
 TP5dr  TC5r  1 3.660000e-01    9.350000e-01
 TP5dr  TC4r  1 3.850000e-01    8.550000e-01
 TP5dr  TC3r  1 4.110000e-01    8.010000e-01
 TP5dr  TC2r  1 4.110000e-01    8.010000e-01
 TP5dr  TC1r  1 4.240000e-01    7.760000e-01
 TP5dr  TX4r  1 3.400000e-01    1.230000e+00
 TP5dr  TX3r  1 3.520000e-01    1.050000e+00
 TP5dr  TX2r  1 3.520000e-01    1.050000e+00
 TP5dr  TX1r  1 3.850000e-01    8.550000e-01
 TP4dr  TC6r  1 3.520000e-01    1.050000e+00
 TP4dr  TC5r  1 3.660000e-01    9.350000e-01
 TP4dr  TC4r  1 3.850000e-01    8.550000e-01
 TP4dr  TC3r  1 4.110000e-01    8.010000e-01
 TP4dr  TC2r  1 4.110000e-01    8.010000e-01
 TP4dr  TC1r  1 4.240000e-01    7.760000e-01
 TP4dr  TX4r  1 3.400000e-01    1.230000e+00
 TP4dr  TX3r  1 3.520000e-01    1.050000e+00
 TP4dr  TX2r  1 3.520000e-01    1.050000e+00
 TP4dr  TX1r  1 3.660000e-01    9.350000e-01
 TP3dr  TC6r  1 3.400000e-01    1.230000e+00
 TP3dr  TC5r  1 3.520000e-01    1.050000e+00
 TP3dr  TC4r  1 3.660000e-01    9.350000e-01
 TP3dr  TC3r  1 4.110000e-01    8.010000e-01
 TP3dr  TC2r  1 4.110000e-01    8.010000e-01
 TP3dr  TC1r  1 4.240000e-01    7.760000e-01
 TP3dr  TX4r  1 3.400000e-01    1.230000e+00
 TP3dr  TX3r  1 3.400000e-01    1.230000e+00
 TP3dr  TX2r  1 3.520000e-01    1.050000e+00
 TP3dr  TX1r  1 3.660000e-01    9.350000e-01
 TP2dr  TC6r  1 3.400000e-01    1.230000e+00
 TP2dr  TC5r  1 3.520000e-01    1.050000e+00
 TP2dr  TC4r  1 3.660000e-01    9.350000e-01
 TP2dr  TC3r  1 3.850000e-01    8.550000e-01
 TP2dr  TC2r  1 3.850000e-01    8.550000e-01
 TP2dr  TC1r  1 4.110000e-01    8.010000e-01
 TP2dr  TX4r  1 3.400000e-01    1.230000e+00
 TP2dr  TX3r  1 3.400000e-01    1.230000e+00
 TP2dr  TX2r  1 3.520000e-01    1.050000e+00
 TP2dr  TX1r  1 3.660000e-01    9.350000e-01
 TP1dr  TC6r  1 3.400000e-01    1.230000e+00
 TP1dr  TC5r  1 3.520000e-01    1.050000e+00
 TP1dr  TC4r  1 3.660000e-01    9.350000e-01
 TP1dr  TC3r  1 3.850000e-01    8.550000e-01
 TP1dr  TC2r  1 3.850000e-01    8.550000e-01
 TP1dr  TC1r  1 4.110000e-01    8.010000e-01
 TP1dr  TX4r  1 3.400000e-01    1.230000e+00
 TP1dr  TX3r  1 3.400000e-01    1.230000e+00
 TP1dr  TX2r  1 3.520000e-01    1.050000e+00
 TP1dr  TX1r  1 3.660000e-01    9.350000e-01
 TN6dr  TC6r  1 3.400000e-01    1.510000e+00
 TN6dr  TC5r  1 3.400000e-01    1.230000e+00
 TN6dr  TC4r  1 3.520000e-01    1.050000e+00
 TN6dr  TC3r  1 3.660000e-01    9.350000e-01
 TN6dr  TC2r  1 3.660000e-01    9.350000e-01
 TN6dr  TC1r  1 3.850000e-01    8.550000e-01
 TN6dr  TX4r  1 3.400000e-01    1.510000e+00
 TN6dr  TX3r  1 3.400000e-01    1.230000e+00
 TN6dr  TX2r  1 3.520000e-01    1.050000e+00
 TN6dr  TX1r  1 3.660000e-01    9.350000e-01
 TN5dr  TC6r  1 3.400000e-01    1.510000e+00
 TN5dr  TC5r  1 3.400000e-01    1.230000e+00
 TN5dr  TC4r  1 3.520000e-01    1.050000e+00
 TN5dr  TC3r  1 3.520000e-01    1.050000e+00
 TN5dr  TC2r  1 3.660000e-01    9.350000e-01
 TN5dr  TC1r  1 3.850000e-01    8.550000e-01
 TN5dr  TX4r  1 3.400000e-01    1.770000e+00
 TN5dr  TX3r  1 3.400000e-01    1.510000e+00
 TN5dr  TX2r  1 3.400000e-01    1.230000e+00
 TN5dr  TX1r  1 3.520000e-01    1.050000e+00
 TN4dr  TC6r  1 3.400000e-01    1.510000e+00
 TN4dr  TC5r  1 3.400000e-01    1.230000e+00
 TN4dr  TC4r  1 3.400000e-01    1.230000e+00
 TN4dr  TC3r  1 3.520000e-01    1.050000e+00
 TN4dr  TC2r  1 3.660000e-01    9.350000e-01
 TN4dr  TC1r  1 3.850000e-01    8.550000e-01
 TN4dr  TX4r  1 3.400000e-01    2.020000e+00
 TN4dr  TX3r  1 3.400000e-01    1.770000e+00
 TN4dr  TX2r  1 3.400000e-01    1.230000e+00
 TN4dr  TX1r  1 3.520000e-01    1.050000e+00
 TN3dr  TC6r  1 3.400000e-01    1.510000e+00
 TN3dr  TC5r  1 3.400000e-01    1.230000e+00
 TN3dr  TC4r  1 3.400000e-01    1.230000e+00
 TN3dr  TC3r  1 3.520000e-01    1.050000e+00
 TN3dr  TC2r  1 3.520000e-01    1.050000e+00
 TN3dr  TC1r  1 3.660000e-01    9.350000e-01
 TN3dr  TX4r  1 3.400000e-01    1.770000e+00
 TN3dr  TX3r  1 3.400000e-01    1.510000e+00
 TN3dr  TX2r  1 3.400000e-01    1.230000e+00
 TN3dr  TX1r  1 3.400000e-01    1.230000e+00
 TN2dr  TC6r  1 3.400000e-01    1.510000e+00
 TN2dr  TC5r  1 3.400000e-01    1.230000e+00
 TN2dr  TC4r  1 3.400000e-01    1.230000e+00
 TN2dr  TC3r  1 3.400000e-01    1.230000e+00
 TN2dr  TC2r  1 3.520000e-01    1.050000e+00
 TN2dr  TC1r  1 3.660000e-01    9.350000e-01
 TN2dr  TX4r  1 3.400000e-01    1.770000e+00
 TN2dr  TX3r  1 3.400000e-01    1.510000e+00
 TN2dr  TX2r  1 3.400000e-01    1.230000e+00
 TN2dr  TX1r  1 3.400000e-01    1.230000e+00
 TN1dr  TC6r  1 3.400000e-01    1.770000e+00
 TN1dr  TC5r  1 3.400000e-01    1.510000e+00
 TN1dr  TC4r  1 3.400000e-01    1.510000e+00
 TN1dr  TC3r  1 3.400000e-01    1.230000e+00
 TN1dr  TC2r  1 3.520000e-01    1.050000e+00
 TN1dr  TC1r  1 3.660000e-01    9.350000e-01
 TN1dr  TX4r  1 3.400000e-01    1.510000e+00
 TN1dr  TX3r  1 3.400000e-01    1.510000e+00
 TN1dr  TX2r  1 3.400000e-01    1.230000e+00
 TN1dr  TX1r  1 3.400000e-01    1.230000e+00
 TP6ar  TC6r  1 3.660000e-01    9.350000e-01
 TP6ar  TC5r  1 3.850000e-01    8.550000e-01
 TP6ar  TC4r  1 4.110000e-01    8.010000e-01
 TP6ar  TC3r  1 4.240000e-01    7.760000e-01
 TP6ar  TC2r  1 4.240000e-01    7.760000e-01
 TP6ar  TC1r  1 5.050000e-01    6.800000e-01
 TP6ar  TX4r  1 3.520000e-01    1.050000e+00
 TP6ar  TX3r  1 3.520000e-01    1.050000e+00
 TP6ar  TX2r  1 3.660000e-01    9.350000e-01
 TP6ar  TX1r  1 3.850000e-01    8.550000e-01
 TP5ar  TC6r  1 3.660000e-01    9.350000e-01
 TP5ar  TC5r  1 3.660000e-01    9.350000e-01
 TP5ar  TC4r  1 3.850000e-01    8.550000e-01
 TP5ar  TC3r  1 4.110000e-01    8.010000e-01
 TP5ar  TC2r  1 4.110000e-01    8.010000e-01
 TP5ar  TC1r  1 4.240000e-01    7.760000e-01
 TP5ar  TX4r  1 3.400000e-01    1.230000e+00
 TP5ar  TX3r  1 3.520000e-01    1.050000e+00
 TP5ar  TX2r  1 3.520000e-01    1.050000e+00
 TP5ar  TX1r  1 3.850000e-01    8.550000e-01
 TP4ar  TC6r  1 3.520000e-01    1.050000e+00
 TP4ar  TC5r  1 3.660000e-01    9.350000e-01
 TP4ar  TC4r  1 3.850000e-01    8.550000e-01
 TP4ar  TC3r  1 4.110000e-01    8.010000e-01
 TP4ar  TC2r  1 4.110000e-01    8.010000e-01
 TP4ar  TC1r  1 4.240000e-01    7.760000e-01
 TP4ar  TX4r  1 3.400000e-01    1.230000e+00
 TP4ar  TX3r  1 3.520000e-01    1.050000e+00
 TP4ar  TX2r  1 3.520000e-01    1.050000e+00
 TP4ar  TX1r  1 3.660000e-01    9.350000e-01
 TP3ar  TC6r  1 3.400000e-01    1.230000e+00
 TP3ar  TC5r  1 3.520000e-01    1.050000e+00
 TP3ar  TC4r  1 3.660000e-01    9.350000e-01
 TP3ar  TC3r  1 4.110000e-01    8.010000e-01
 TP3ar  TC2r  1 4.110000e-01    8.010000e-01
 TP3ar  TC1r  1 4.240000e-01    7.760000e-01
 TP3ar  TX4r  1 3.400000e-01    1.230000e+00
 TP3ar  TX3r  1 3.400000e-01    1.230000e+00
 TP3ar  TX2r  1 3.520000e-01    1.050000e+00
 TP3ar  TX1r  1 3.660000e-01    9.350000e-01
 TP2ar  TC6r  1 3.400000e-01    1.230000e+00
 TP2ar  TC5r  1 3.520000e-01    1.050000e+00
 TP2ar  TC4r  1 3.660000e-01    9.350000e-01
 TP2ar  TC3r  1 3.850000e-01    8.550000e-01
 TP2ar  TC2r  1 3.850000e-01    8.550000e-01
 TP2ar  TC1r  1 4.110000e-01    8.010000e-01
 TP2ar  TX4r  1 3.400000e-01    1.230000e+00
 TP2ar  TX3r  1 3.400000e-01    1.230000e+00
 TP2ar  TX2r  1 3.520000e-01    1.050000e+00
 TP2ar  TX1r  1 3.660000e-01    9.350000e-01
 TP1ar  TC6r  1 3.400000e-01    1.230000e+00
 TP1ar  TC5r  1 3.520000e-01    1.050000e+00
 TP1ar  TC4r  1 3.660000e-01    9.350000e-01
 TP1ar  TC3r  1 3.850000e-01    8.550000e-01
 TP1ar  TC2r  1 3.850000e-01    8.550000e-01
 TP1ar  TC1r  1 4.110000e-01    8.010000e-01
 TP1ar  TX4r  1 3.400000e-01    1.230000e+00
 TP1ar  TX3r  1 3.400000e-01    1.230000e+00
 TP1ar  TX2r  1 3.520000e-01    1.050000e+00
 TP1ar  TX1r  1 3.660000e-01    9.350000e-01
 TN6ar  TC6r  1 3.400000e-01    1.510000e+00
 TN6ar  TC5r  1 3.400000e-01    1.230000e+00
 TN6ar  TC4r  1 3.520000e-01    1.050000e+00
 TN6ar  TC3r  1 3.660000e-01    9.350000e-01
 TN6ar  TC2r  1 3.660000e-01    9.350000e-01
 TN6ar  TC1r  1 3.850000e-01    8.550000e-01
 TN6ar  TX4r  1 3.400000e-01    1.510000e+00
 TN6ar  TX3r  1 3.400000e-01    1.230000e+00
 TN6ar  TX2r  1 3.520000e-01    1.050000e+00
 TN6ar  TX1r  1 3.660000e-01    9.350000e-01
 TN5ar  TC6r  1 3.400000e-01    1.510000e+00
 TN5ar  TC5r  1 3.400000e-01    1.230000e+00
 TN5ar  TC4r  1 3.520000e-01    1.050000e+00
 TN5ar  TC3r  1 3.520000e-01    1.050000e+00
 TN5ar  TC2r  1 3.660000e-01    9.350000e-01
 TN5ar  TC1r  1 3.850000e-01    8.550000e-01
 TN5ar  TX4r  1 3.400000e-01    1.770000e+00
 TN5ar  TX3r  1 3.400000e-01    1.510000e+00
 TN5ar  TX2r  1 3.400000e-01    1.230000e+00
 TN5ar  TX1r  1 3.520000e-01    1.050000e+00
 TN4ar  TC6r  1 3.400000e-01    1.510000e+00
 TN4ar  TC5r  1 3.400000e-01    1.230000e+00
 TN4ar  TC4r  1 3.400000e-01    1.230000e+00
 TN4ar  TC3r  1 3.520000e-01    1.050000e+00
 TN4ar  TC2r  1 3.660000e-01    9.350000e-01
 TN4ar  TC1r  1 3.850000e-01    8.550000e-01
 TN4ar  TX4r  1 3.400000e-01    2.020000e+00
 TN4ar  TX3r  1 3.400000e-01    1.770000e+00
 TN4ar  TX2r  1 3.400000e-01    1.230000e+00
 TN4ar  TX1r  1 3.520000e-01    1.050000e+00
 TN3ar  TC6r  1 3.400000e-01    1.510000e+00
 TN3ar  TC5r  1 3.400000e-01    1.230000e+00
 TN3ar  TC4r  1 3.400000e-01    1.230000e+00
 TN3ar  TC3r  1 3.520000e-01    1.050000e+00
 TN3ar  TC2r  1 3.520000e-01    1.050000e+00
 TN3ar  TC1r  1 3.660000e-01    9.350000e-01
 TN3ar  TX4r  1 3.400000e-01    1.770000e+00
 TN3ar  TX3r  1 3.400000e-01    1.510000e+00
 TN3ar  TX2r  1 3.400000e-01    1.230000e+00
 TN3ar  TX1r  1 3.400000e-01    1.230000e+00
 TN2ar  TC6r  1 3.400000e-01    1.510000e+00
 TN2ar  TC5r  1 3.400000e-01    1.230000e+00
 TN2ar  TC4r  1 3.400000e-01    1.230000e+00
 TN2ar  TC3r  1 3.400000e-01    1.230000e+00
 TN2ar  TC2r  1 3.520000e-01    1.050000e+00
 TN2ar  TC1r  1 3.660000e-01    9.350000e-01
 TN2ar  TX4r  1 3.400000e-01    1.770000e+00
 TN2ar  TX3r  1 3.400000e-01    1.510000e+00
 TN2ar  TX2r  1 3.400000e-01    1.230000e+00
 TN2ar  TX1r  1 3.400000e-01    1.230000e+00
 TN1ar  TC6r  1 3.400000e-01    1.770000e+00
 TN1ar  TC5r  1 3.400000e-01    1.510000e+00
 TN1ar  TC4r  1 3.400000e-01    1.510000e+00
 TN1ar  TC3r  1 3.400000e-01    1.230000e+00
 TN1ar  TC2r  1 3.520000e-01    1.050000e+00
 TN1ar  TC1r  1 3.660000e-01    9.350000e-01
 TN1ar  TX4r  1 3.400000e-01    1.510000e+00
 TN1ar  TX3r  1 3.400000e-01    1.510000e+00
 TN1ar  TX2r  1 3.400000e-01    1.230000e+00
 TN1ar  TX1r  1 3.400000e-01    1.230000e+00
 TP6dh  TP5h  1 3.400000e-01    3.470000e+00
 TP6dh  TP4h  1 3.400000e-01    3.220000e+00
 TP6dh  TP3h  1 3.400000e-01    2.990000e+00
 TP6dh  TP2h  1 3.400000e-01    2.990000e+00
 TP6dh  TP1h  1 3.400000e-01    2.740000e+00
 TP6dh  TN6h  1 3.400000e-01    2.500000e+00
 TP6dh  TN5h  1 3.400000e-01    2.020000e+00
 TP6dh  TN4h  1 3.400000e-01    1.770000e+00
 TP6dh  TN3h  1 3.400000e-01    1.510000e+00
 TP6dh  TN2h  1 3.400000e-01    1.230000e+00
 TP6dh  TN1h  1 3.520000e-01    1.050000e+00
 TP5dh  TP4h  1 3.400000e-01    2.990000e+00
 TP5dh  TP3h  1 3.400000e-01    2.740000e+00
 TP5dh  TP2h  1 3.400000e-01    2.740000e+00
 TP5dh  TP1h  1 3.400000e-01    2.500000e+00
 TP5dh  TN6h  1 3.400000e-01    2.280000e+00
 TP5dh  TN5h  1 3.400000e-01    2.020000e+00
 TP5dh  TN4h  1 3.400000e-01    2.020000e+00
 TP5dh  TN3h  1 3.400000e-01    1.510000e+00
 TP5dh  TN2h  1 3.400000e-01    1.230000e+00
 TP5dh  TN1h  1 3.520000e-01    1.050000e+00
 TP4dh  TP3h  1 3.400000e-01    2.740000e+00
 TP4dh  TP2h  1 3.400000e-01    2.740000e+00
 TP4dh  TP1h  1 3.400000e-01    2.500000e+00
 TP4dh  TN6h  1 3.400000e-01    2.280000e+00
 TP4dh  TN5h  1 3.400000e-01    2.020000e+00
 TP4dh  TN4h  1 3.400000e-01    2.020000e+00
 TP4dh  TN3h  1 3.400000e-01    1.770000e+00
 TP4dh  TN2h  1 3.400000e-01    1.510000e+00
 TP4dh  TN1h  1 3.400000e-01    1.230000e+00
 TP3dh  TP2h  1 3.400000e-01    2.740000e+00
 TP3dh  TP1h  1 3.400000e-01    2.500000e+00
 TP3dh  TN6h  1 3.400000e-01    2.280000e+00
 TP3dh  TN5h  1 3.400000e-01    2.020000e+00
 TP3dh  TN4h  1 3.400000e-01    2.020000e+00
 TP3dh  TN3h  1 3.400000e-01    1.770000e+00
 TP3dh  TN2h  1 3.400000e-01    1.770000e+00
 TP3dh  TN1h  1 3.400000e-01    1.510000e+00
 TP2dh  TP1h  1 3.400000e-01    2.500000e+00
 TP2dh  TN6h  1 3.400000e-01    2.500000e+00
 TP2dh  TN5h  1 3.400000e-01    2.280000e+00
 TP2dh  TN4h  1 3.400000e-01    2.020000e+00
 TP2dh  TN3h  1 3.400000e-01    1.770000e+00
 TP2dh  TN2h  1 3.400000e-01    1.770000e+00
 TP2dh  TN1h  1 3.400000e-01    1.770000e+00
 TP1dh  TN6h  1 3.400000e-01    2.500000e+00
 TP1dh  TN5h  1 3.400000e-01    2.280000e+00
 TP1dh  TN4h  1 3.400000e-01    2.280000e+00
 TP1dh  TN3h  1 3.400000e-01    1.770000e+00
 TP1dh  TN2h  1 3.400000e-01    1.770000e+00
 TP1dh  TN1h  1 3.400000e-01    1.770000e+00
 TN6dh  TN5h  1 3.400000e-01    2.500000e+00
 TN6dh  TN4h  1 3.400000e-01    2.500000e+00
 TN6dh  TN3h  1 3.400000e-01    2.020000e+00
 TN6dh  TN2h  1 3.400000e-01    1.770000e+00
 TN6dh  TN1h  1 3.400000e-01    1.770000e+00
 TN5dh  TN4h  1 3.400000e-01    2.280000e+00
 TN5dh  TN3h  1 3.400000e-01    2.020000e+00
 TN5dh  TN2h  1 3.400000e-01    2.020000e+00
 TN5dh  TN1h  1 3.400000e-01    1.770000e+00
 TN4dh  TN3h  1 3.400000e-01    2.020000e+00
 TN4dh  TN2h  1 3.400000e-01    2.020000e+00
 TN4dh  TN1h  1 3.400000e-01    1.770000e+00
 TN3dh  TN2h  1 3.400000e-01    2.020000e+00
 TN3dh  TN1h  1 3.400000e-01    1.770000e+00
 TN2dh  TN1h  1 3.400000e-01    1.770000e+00
 TP6ah  TP5h  1 3.400000e-01    3.470000e+00
 TP6ah  TP4h  1 3.400000e-01    3.220000e+00
 TP6ah  TP3h  1 3.400000e-01    2.990000e+00
 TP6ah  TP2h  1 3.400000e-01    2.990000e+00
 TP6ah  TP1h  1 3.400000e-01    2.740000e+00
 TP6ah  TN6h  1 3.400000e-01    2.500000e+00
 TP6ah  TN5h  1 3.400000e-01    2.020000e+00
 TP6ah  TN4h  1 3.400000e-01    1.770000e+00
 TP6ah  TN3h  1 3.400000e-01    1.510000e+00
 TP6ah  TN2h  1 3.400000e-01    1.230000e+00
 TP6ah  TN1h  1 3.520000e-01    1.050000e+00
 TP5ah  TP4h  1 3.400000e-01    2.990000e+00
 TP5ah  TP3h  1 3.400000e-01    2.740000e+00
 TP5ah  TP2h  1 3.400000e-01    2.740000e+00
 TP5ah  TP1h  1 3.400000e-01    2.500000e+00
 TP5ah  TN6h  1 3.400000e-01    2.280000e+00
 TP5ah  TN5h  1 3.400000e-01    2.020000e+00
 TP5ah  TN4h  1 3.400000e-01    2.020000e+00
 TP5ah  TN3h  1 3.400000e-01    1.510000e+00
 TP5ah  TN2h  1 3.400000e-01    1.230000e+00
 TP5ah  TN1h  1 3.520000e-01    1.050000e+00
 TP4ah  TP3h  1 3.400000e-01    2.740000e+00
 TP4ah  TP2h  1 3.400000e-01    2.740000e+00
 TP4ah  TP1h  1 3.400000e-01    2.500000e+00
 TP4ah  TN6h  1 3.400000e-01    2.280000e+00
 TP4ah  TN5h  1 3.400000e-01    2.020000e+00
 TP4ah  TN4h  1 3.400000e-01    2.020000e+00
 TP4ah  TN3h  1 3.400000e-01    1.770000e+00
 TP4ah  TN2h  1 3.400000e-01    1.510000e+00
 TP4ah  TN1h  1 3.400000e-01    1.230000e+00
 TP3ah  TP2h  1 3.400000e-01    2.740000e+00
 TP3ah  TP1h  1 3.400000e-01    2.500000e+00
 TP3ah  TN6h  1 3.400000e-01    2.280000e+00
 TP3ah  TN5h  1 3.400000e-01    2.020000e+00
 TP3ah  TN4h  1 3.400000e-01    2.020000e+00
 TP3ah  TN3h  1 3.400000e-01    1.770000e+00
 TP3ah  TN2h  1 3.400000e-01    1.770000e+00
 TP3ah  TN1h  1 3.400000e-01    1.510000e+00
 TP2ah  TP1h  1 3.400000e-01    2.500000e+00
 TP2ah  TN6h  1 3.400000e-01    2.500000e+00
 TP2ah  TN5h  1 3.400000e-01    2.280000e+00
 TP2ah  TN4h  1 3.400000e-01    2.020000e+00
 TP2ah  TN3h  1 3.400000e-01    1.770000e+00
 TP2ah  TN2h  1 3.400000e-01    1.770000e+00
 TP2ah  TN1h  1 3.400000e-01    1.770000e+00
 TP1ah  TN6h  1 3.400000e-01    2.500000e+00
 TP1ah  TN5h  1 3.400000e-01    2.280000e+00
 TP1ah  TN4h  1 3.400000e-01    2.280000e+00
 TP1ah  TN3h  1 3.400000e-01    1.770000e+00
 TP1ah  TN2h  1 3.400000e-01    1.770000e+00
 TP1ah  TN1h  1 3.400000e-01    1.770000e+00
 TN6ah  TN5h  1 3.400000e-01    2.500000e+00
 TN6ah  TN4h  1 3.400000e-01    2.500000e+00
 TN6ah  TN3h  1 3.400000e-01    2.020000e+00
 TN6ah  TN2h  1 3.400000e-01    1.770000e+00
 TN6ah  TN1h  1 3.400000e-01    1.770000e+00
 TN5ah  TN4h  1 3.400000e-01    2.280000e+00
 TN5ah  TN3h  1 3.400000e-01    2.020000e+00
 TN5ah  TN2h  1 3.400000e-01    2.020000e+00
 TN5ah  TN1h  1 3.400000e-01    1.770000e+00
 TN4ah  TN3h  1 3.400000e-01    2.020000e+00
 TN4ah  TN2h  1 3.400000e-01    2.020000e+00
 TN4ah  TN1h  1 3.400000e-01    1.770000e+00
 TN3ah  TN2h  1 3.400000e-01    2.020000e+00
 TN3ah  TN1h  1 3.400000e-01    1.770000e+00
 TN2ah  TN1h  1 3.400000e-01    1.770000e+00
 TC6vh  TC5h  1 3.400000e-01    2.020000e+00
 TC6vh  TC4h  1 3.400000e-01    2.020000e+00
 TC6vh  TC3h  1 3.400000e-01    1.770000e+00
 TC6vh  TC2h  1 3.400000e-01    1.510000e+00
 TC6vh  TC1h  1 3.400000e-01    1.230000e+00
 TC6vh  TX4h  1 3.400000e-01    2.020000e+00
 TC6vh  TX3h  1 3.400000e-01    2.020000e+00
 TC6vh  TX2h  1 3.400000e-01    2.020000e+00
 TC6vh  TX1h  1 3.400000e-01    2.020000e+00
 TC5vh  TC4h  1 3.400000e-01    2.020000e+00
 TC5vh  TC3h  1 3.400000e-01    1.770000e+00
 TC5vh  TC2h  1 3.400000e-01    1.510000e+00
 TC5vh  TC1h  1 3.400000e-01    1.510000e+00
 TC5vh  TX4h  1 3.400000e-01    1.770000e+00
 TC5vh  TX3h  1 3.400000e-01    1.770000e+00
 TC5vh  TX2h  1 3.400000e-01    1.770000e+00
 TC5vh  TX1h  1 3.400000e-01    2.020000e+00
 TC4vh  TC3h  1 3.400000e-01    2.020000e+00
 TC4vh  TC2h  1 3.400000e-01    1.770000e+00
 TC4vh  TC1h  1 3.400000e-01    1.510000e+00
 TC4vh  TX4h  1 3.400000e-01    1.770000e+00
 TC4vh  TX3h  1 3.400000e-01    1.770000e+00
 TC4vh  TX2h  1 3.400000e-01    1.770000e+00
 TC4vh  TX1h  1 3.400000e-01    2.020000e+00
 TC3vh  TC2h  1 3.400000e-01    2.020000e+00
 TC3vh  TC1h  1 3.400000e-01    2.020000e+00
 TC3vh  TX4h  1 3.400000e-01    1.770000e+00
 TC3vh  TX3h  1 3.400000e-01    1.770000e+00
 TC3vh  TX2h  1 3.400000e-01    1.770000e+00
 TC3vh  TX1h  1 3.400000e-01    2.020000e+00
 TC2vh  TC1h  1 3.400000e-01    2.280000e+00
 TC2vh  TX4h  1 3.400000e-01    1.230000e+00
 TC2vh  TX3h  1 3.400000e-01    1.770000e+00
 TC2vh  TX2h  1 3.400000e-01    1.770000e+00
 TC2vh  TX1h  1 3.400000e-01    1.770000e+00
 TC1vh  TX4h  1 3.400000e-01    1.230000e+00
 TC1vh  TX3h  1 3.400000e-01    1.770000e+00
 TC1vh  TX2h  1 3.400000e-01    1.770000e+00
 TC1vh  TX1h  1 3.400000e-01    1.770000e+00
 TX4vh  TX3h  1 3.400000e-01    2.020000e+00
 TX4vh  TX2h  1 3.400000e-01    2.020000e+00
 TX4vh  TX1h  1 3.400000e-01    2.020000e+00
 TX3vh  TX2h  1 3.400000e-01    2.280000e+00
 TX3vh  TX1h  1 3.400000e-01    2.280000e+00
 TX2vh  TX1h  1 3.400000e-01    2.280000e+00
 TC6eh  TC5h  1 3.400000e-01    2.020000e+00
 TC6eh  TC4h  1 3.400000e-01    2.020000e+00
 TC6eh  TC3h  1 3.400000e-01    1.770000e+00
 TC6eh  TC2h  1 3.400000e-01    1.510000e+00
 TC6eh  TC1h  1 3.400000e-01    1.230000e+00
 TC6eh  TX4h  1 3.400000e-01    2.020000e+00
 TC6eh  TX3h  1 3.400000e-01    2.020000e+00
 TC6eh  TX2h  1 3.400000e-01    2.020000e+00
 TC6eh  TX1h  1 3.400000e-01    2.020000e+00
 TC5eh  TC4h  1 3.400000e-01    2.020000e+00
 TC5eh  TC3h  1 3.400000e-01    1.770000e+00
 TC5eh  TC2h  1 3.400000e-01    1.510000e+00
 TC5eh  TC1h  1 3.400000e-01    1.510000e+00
 TC5eh  TX4h  1 3.400000e-01    1.770000e+00
 TC5eh  TX3h  1 3.400000e-01    1.770000e+00
 TC5eh  TX2h  1 3.400000e-01    1.770000e+00
 TC5eh  TX1h  1 3.400000e-01    2.020000e+00
 TC4eh  TC3h  1 3.400000e-01    2.020000e+00
 TC4eh  TC2h  1 3.400000e-01    1.770000e+00
 TC4eh  TC1h  1 3.400000e-01    1.510000e+00
 TC4eh  TX4h  1 3.400000e-01    1.770000e+00
 TC4eh  TX3h  1 3.400000e-01    1.770000e+00
 TC4eh  TX2h  1 3.400000e-01    1.770000e+00
 TC4eh  TX1h  1 3.400000e-01    2.020000e+00
 TC3eh  TC2h  1 3.400000e-01    2.020000e+00
 TC3eh  TC1h  1 3.400000e-01    2.020000e+00
 TC3eh  TX4h  1 3.400000e-01    1.770000e+00
 TC3eh  TX3h  1 3.400000e-01    1.770000e+00
 TC3eh  TX2h  1 3.400000e-01    1.770000e+00
 TC3eh  TX1h  1 3.400000e-01    2.020000e+00
 TC2eh  TC1h  1 3.400000e-01    2.280000e+00
 TC2eh  TX4h  1 3.400000e-01    1.230000e+00
 TC2eh  TX3h  1 3.400000e-01    1.770000e+00
 TC2eh  TX2h  1 3.400000e-01    1.770000e+00
 TC2eh  TX1h  1 3.400000e-01    1.770000e+00
 TC1eh  TX4h  1 3.400000e-01    1.230000e+00
 TC1eh  TX3h  1 3.400000e-01    1.770000e+00
 TC1eh  TX2h  1 3.400000e-01    1.770000e+00
 TC1eh  TX1h  1 3.400000e-01    1.770000e+00
 TX4eh  TX3h  1 3.400000e-01    2.020000e+00
 TX4eh  TX2h  1 3.400000e-01    2.020000e+00
 TX4eh  TX1h  1 3.400000e-01    2.020000e+00
 TX3eh  TX2h  1 3.400000e-01    2.280000e+00
 TX3eh  TX1h  1 3.400000e-01    2.280000e+00
 TX2eh  TX1h  1 3.400000e-01    2.280000e+00
 TP6dh  TC6h  1 3.660000e-01    9.350000e-01
 TP6dh  TC5h  1 3.850000e-01    8.550000e-01
 TP6dh  TC4h  1 4.110000e-01    8.010000e-01
 TP6dh  TC3h  1 4.240000e-01    7.760000e-01
 TP6dh  TC2h  1 4.240000e-01    7.760000e-01
 TP6dh  TC1h  1 5.050000e-01    6.800000e-01
 TP6dh  TX4h  1 3.520000e-01    1.050000e+00
 TP6dh  TX3h  1 3.520000e-01    1.050000e+00
 TP6dh  TX2h  1 3.660000e-01    9.350000e-01
 TP6dh  TX1h  1 3.850000e-01    8.550000e-01
 TP5dh  TC6h  1 3.660000e-01    9.350000e-01
 TP5dh  TC5h  1 3.660000e-01    9.350000e-01
 TP5dh  TC4h  1 3.850000e-01    8.550000e-01
 TP5dh  TC3h  1 4.110000e-01    8.010000e-01
 TP5dh  TC2h  1 4.110000e-01    8.010000e-01
 TP5dh  TC1h  1 4.240000e-01    7.760000e-01
 TP5dh  TX4h  1 3.400000e-01    1.230000e+00
 TP5dh  TX3h  1 3.520000e-01    1.050000e+00
 TP5dh  TX2h  1 3.520000e-01    1.050000e+00
 TP5dh  TX1h  1 3.850000e-01    8.550000e-01
 TP4dh  TC6h  1 3.520000e-01    1.050000e+00
 TP4dh  TC5h  1 3.660000e-01    9.350000e-01
 TP4dh  TC4h  1 3.850000e-01    8.550000e-01
 TP4dh  TC3h  1 4.110000e-01    8.010000e-01
 TP4dh  TC2h  1 4.110000e-01    8.010000e-01
 TP4dh  TC1h  1 4.240000e-01    7.760000e-01
 TP4dh  TX4h  1 3.400000e-01    1.230000e+00
 TP4dh  TX3h  1 3.520000e-01    1.050000e+00
 TP4dh  TX2h  1 3.520000e-01    1.050000e+00
 TP4dh  TX1h  1 3.660000e-01    9.350000e-01
 TP3dh  TC6h  1 3.400000e-01    1.230000e+00
 TP3dh  TC5h  1 3.520000e-01    1.050000e+00
 TP3dh  TC4h  1 3.660000e-01    9.350000e-01
 TP3dh  TC3h  1 4.110000e-01    8.010000e-01
 TP3dh  TC2h  1 4.110000e-01    8.010000e-01
 TP3dh  TC1h  1 4.240000e-01    7.760000e-01
 TP3dh  TX4h  1 3.400000e-01    1.230000e+00
 TP3dh  TX3h  1 3.400000e-01    1.230000e+00
 TP3dh  TX2h  1 3.520000e-01    1.050000e+00
 TP3dh  TX1h  1 3.660000e-01    9.350000e-01
 TP2dh  TC6h  1 3.400000e-01    1.230000e+00
 TP2dh  TC5h  1 3.520000e-01    1.050000e+00
 TP2dh  TC4h  1 3.660000e-01    9.350000e-01
 TP2dh  TC3h  1 3.850000e-01    8.550000e-01
 TP2dh  TC2h  1 3.850000e-01    8.550000e-01
 TP2dh  TC1h  1 4.110000e-01    8.010000e-01
 TP2dh  TX4h  1 3.400000e-01    1.230000e+00
 TP2dh  TX3h  1 3.400000e-01    1.230000e+00
 TP2dh  TX2h  1 3.520000e-01    1.050000e+00
 TP2dh  TX1h  1 3.660000e-01    9.350000e-01
 TP1dh  TC6h  1 3.400000e-01    1.230000e+00
 TP1dh  TC5h  1 3.520000e-01    1.050000e+00
 TP1dh  TC4h  1 3.660000e-01    9.350000e-01
 TP1dh  TC3h  1 3.850000e-01    8.550000e-01
 TP1dh  TC2h  1 3.850000e-01    8.550000e-01
 TP1dh  TC1h  1 4.110000e-01    8.010000e-01
 TP1dh  TX4h  1 3.400000e-01    1.230000e+00
 TP1dh  TX3h  1 3.400000e-01    1.230000e+00
 TP1dh  TX2h  1 3.520000e-01    1.050000e+00
 TP1dh  TX1h  1 3.660000e-01    9.350000e-01
 TN6dh  TC6h  1 3.400000e-01    1.510000e+00
 TN6dh  TC5h  1 3.400000e-01    1.230000e+00
 TN6dh  TC4h  1 3.520000e-01    1.050000e+00
 TN6dh  TC3h  1 3.660000e-01    9.350000e-01
 TN6dh  TC2h  1 3.660000e-01    9.350000e-01
 TN6dh  TC1h  1 3.850000e-01    8.550000e-01
 TN6dh  TX4h  1 3.400000e-01    1.510000e+00
 TN6dh  TX3h  1 3.400000e-01    1.230000e+00
 TN6dh  TX2h  1 3.520000e-01    1.050000e+00
 TN6dh  TX1h  1 3.660000e-01    9.350000e-01
 TN5dh  TC6h  1 3.400000e-01    1.510000e+00
 TN5dh  TC5h  1 3.400000e-01    1.230000e+00
 TN5dh  TC4h  1 3.520000e-01    1.050000e+00
 TN5dh  TC3h  1 3.520000e-01    1.050000e+00
 TN5dh  TC2h  1 3.660000e-01    9.350000e-01
 TN5dh  TC1h  1 3.850000e-01    8.550000e-01
 TN5dh  TX4h  1 3.400000e-01    1.770000e+00
 TN5dh  TX3h  1 3.400000e-01    1.510000e+00
 TN5dh  TX2h  1 3.400000e-01    1.230000e+00
 TN5dh  TX1h  1 3.520000e-01    1.050000e+00
 TN4dh  TC6h  1 3.400000e-01    1.510000e+00
 TN4dh  TC5h  1 3.400000e-01    1.230000e+00
 TN4dh  TC4h  1 3.400000e-01    1.230000e+00
 TN4dh  TC3h  1 3.520000e-01    1.050000e+00
 TN4dh  TC2h  1 3.660000e-01    9.350000e-01
 TN4dh  TC1h  1 3.850000e-01    8.550000e-01
 TN4dh  TX4h  1 3.400000e-01    2.020000e+00
 TN4dh  TX3h  1 3.400000e-01    1.770000e+00
 TN4dh  TX2h  1 3.400000e-01    1.230000e+00
 TN4dh  TX1h  1 3.520000e-01    1.050000e+00
 TN3dh  TC6h  1 3.400000e-01    1.510000e+00
 TN3dh  TC5h  1 3.400000e-01    1.230000e+00
 TN3dh  TC4h  1 3.400000e-01    1.230000e+00
 TN3dh  TC3h  1 3.520000e-01    1.050000e+00
 TN3dh  TC2h  1 3.520000e-01    1.050000e+00
 TN3dh  TC1h  1 3.660000e-01    9.350000e-01
 TN3dh  TX4h  1 3.400000e-01    1.770000e+00
 TN3dh  TX3h  1 3.400000e-01    1.510000e+00
 TN3dh  TX2h  1 3.400000e-01    1.230000e+00
 TN3dh  TX1h  1 3.400000e-01    1.230000e+00
 TN2dh  TC6h  1 3.400000e-01    1.510000e+00
 TN2dh  TC5h  1 3.400000e-01    1.230000e+00
 TN2dh  TC4h  1 3.400000e-01    1.230000e+00
 TN2dh  TC3h  1 3.400000e-01    1.230000e+00
 TN2dh  TC2h  1 3.520000e-01    1.050000e+00
 TN2dh  TC1h  1 3.660000e-01    9.350000e-01
 TN2dh  TX4h  1 3.400000e-01    1.770000e+00
 TN2dh  TX3h  1 3.400000e-01    1.510000e+00
 TN2dh  TX2h  1 3.400000e-01    1.230000e+00
 TN2dh  TX1h  1 3.400000e-01    1.230000e+00
 TN1dh  TC6h  1 3.400000e-01    1.770000e+00
 TN1dh  TC5h  1 3.400000e-01    1.510000e+00
 TN1dh  TC4h  1 3.400000e-01    1.510000e+00
 TN1dh  TC3h  1 3.400000e-01    1.230000e+00
 TN1dh  TC2h  1 3.520000e-01    1.050000e+00
 TN1dh  TC1h  1 3.660000e-01    9.350000e-01
 TN1dh  TX4h  1 3.400000e-01    1.510000e+00
 TN1dh  TX3h  1 3.400000e-01    1.510000e+00
 TN1dh  TX2h  1 3.400000e-01    1.230000e+00
 TN1dh  TX1h  1 3.400000e-01    1.230000e+00
 TP6ah  TC6h  1 3.660000e-01    9.350000e-01
 TP6ah  TC5h  1 3.850000e-01    8.550000e-01
 TP6ah  TC4h  1 4.110000e-01    8.010000e-01
 TP6ah  TC3h  1 4.240000e-01    7.760000e-01
 TP6ah  TC2h  1 4.240000e-01    7.760000e-01
 TP6ah  TC1h  1 5.050000e-01    6.800000e-01
 TP6ah  TX4h  1 3.520000e-01    1.050000e+00
 TP6ah  TX3h  1 3.520000e-01    1.050000e+00
 TP6ah  TX2h  1 3.660000e-01    9.350000e-01
 TP6ah  TX1h  1 3.850000e-01    8.550000e-01
 TP5ah  TC6h  1 3.660000e-01    9.350000e-01
 TP5ah  TC5h  1 3.660000e-01    9.350000e-01
 TP5ah  TC4h  1 3.850000e-01    8.550000e-01
 TP5ah  TC3h  1 4.110000e-01    8.010000e-01
 TP5ah  TC2h  1 4.110000e-01    8.010000e-01
 TP5ah  TC1h  1 4.240000e-01    7.760000e-01
 TP5ah  TX4h  1 3.400000e-01    1.230000e+00
 TP5ah  TX3h  1 3.520000e-01    1.050000e+00
 TP5ah  TX2h  1 3.520000e-01    1.050000e+00
 TP5ah  TX1h  1 3.850000e-01    8.550000e-01
 TP4ah  TC6h  1 3.520000e-01    1.050000e+00
 TP4ah  TC5h  1 3.660000e-01    9.350000e-01
 TP4ah  TC4h  1 3.850000e-01    8.550000e-01
 TP4ah  TC3h  1 4.110000e-01    8.010000e-01
 TP4ah  TC2h  1 4.110000e-01    8.010000e-01
 TP4ah  TC1h  1 4.240000e-01    7.760000e-01
 TP4ah  TX4h  1 3.400000e-01    1.230000e+00
 TP4ah  TX3h  1 3.520000e-01    1.050000e+00
 TP4ah  TX2h  1 3.520000e-01    1.050000e+00
 TP4ah  TX1h  1 3.660000e-01    9.350000e-01
 TP3ah  TC6h  1 3.400000e-01    1.230000e+00
 TP3ah  TC5h  1 3.520000e-01    1.050000e+00
 TP3ah  TC4h  1 3.660000e-01    9.350000e-01
 TP3ah  TC3h  1 4.110000e-01    8.010000e-01
 TP3ah  TC2h  1 4.110000e-01    8.010000e-01
 TP3ah  TC1h  1 4.240000e-01    7.760000e-01
 TP3ah  TX4h  1 3.400000e-01    1.230000e+00
 TP3ah  TX3h  1 3.400000e-01    1.230000e+00
 TP3ah  TX2h  1 3.520000e-01    1.050000e+00
 TP3ah  TX1h  1 3.660000e-01    9.350000e-01
 TP2ah  TC6h  1 3.400000e-01    1.230000e+00
 TP2ah  TC5h  1 3.520000e-01    1.050000e+00
 TP2ah  TC4h  1 3.660000e-01    9.350000e-01
 TP2ah  TC3h  1 3.850000e-01    8.550000e-01
 TP2ah  TC2h  1 3.850000e-01    8.550000e-01
 TP2ah  TC1h  1 4.110000e-01    8.010000e-01
 TP2ah  TX4h  1 3.400000e-01    1.230000e+00
 TP2ah  TX3h  1 3.400000e-01    1.230000e+00
 TP2ah  TX2h  1 3.520000e-01    1.050000e+00
 TP2ah  TX1h  1 3.660000e-01    9.350000e-01
 TP1ah  TC6h  1 3.400000e-01    1.230000e+00
 TP1ah  TC5h  1 3.520000e-01    1.050000e+00
 TP1ah  TC4h  1 3.660000e-01    9.350000e-01
 TP1ah  TC3h  1 3.850000e-01    8.550000e-01
 TP1ah  TC2h  1 3.850000e-01    8.550000e-01
 TP1ah  TC1h  1 4.110000e-01    8.010000e-01
 TP1ah  TX4h  1 3.400000e-01    1.230000e+00
 TP1ah  TX3h  1 3.400000e-01    1.230000e+00
 TP1ah  TX2h  1 3.520000e-01    1.050000e+00
 TP1ah  TX1h  1 3.660000e-01    9.350000e-01
 TN6ah  TC6h  1 3.400000e-01    1.510000e+00
 TN6ah  TC5h  1 3.400000e-01    1.230000e+00
 TN6ah  TC4h  1 3.520000e-01    1.050000e+00
 TN6ah  TC3h  1 3.660000e-01    9.350000e-01
 TN6ah  TC2h  1 3.660000e-01    9.350000e-01
 TN6ah  TC1h  1 3.850000e-01    8.550000e-01
 TN6ah  TX4h  1 3.400000e-01    1.510000e+00
 TN6ah  TX3h  1 3.400000e-01    1.230000e+00
 TN6ah  TX2h  1 3.520000e-01    1.050000e+00
 TN6ah  TX1h  1 3.660000e-01    9.350000e-01
 TN5ah  TC6h  1 3.400000e-01    1.510000e+00
 TN5ah  TC5h  1 3.400000e-01    1.230000e+00
 TN5ah  TC4h  1 3.520000e-01    1.050000e+00
 TN5ah  TC3h  1 3.520000e-01    1.050000e+00
 TN5ah  TC2h  1 3.660000e-01    9.350000e-01
 TN5ah  TC1h  1 3.850000e-01    8.550000e-01
 TN5ah  TX4h  1 3.400000e-01    1.770000e+00
 TN5ah  TX3h  1 3.400000e-01    1.510000e+00
 TN5ah  TX2h  1 3.400000e-01    1.230000e+00
 TN5ah  TX1h  1 3.520000e-01    1.050000e+00
 TN4ah  TC6h  1 3.400000e-01    1.510000e+00
 TN4ah  TC5h  1 3.400000e-01    1.230000e+00
 TN4ah  TC4h  1 3.400000e-01    1.230000e+00
 TN4ah  TC3h  1 3.520000e-01    1.050000e+00
 TN4ah  TC2h  1 3.660000e-01    9.350000e-01
 TN4ah  TC1h  1 3.850000e-01    8.550000e-01
 TN4ah  TX4h  1 3.400000e-01    2.020000e+00
 TN4ah  TX3h  1 3.400000e-01    1.770000e+00
 TN4ah  TX2h  1 3.400000e-01    1.230000e+00
 TN4ah  TX1h  1 3.520000e-01    1.050000e+00
 TN3ah  TC6h  1 3.400000e-01    1.510000e+00
 TN3ah  TC5h  1 3.400000e-01    1.230000e+00
 TN3ah  TC4h  1 3.400000e-01    1.230000e+00
 TN3ah  TC3h  1 3.520000e-01    1.050000e+00
 TN3ah  TC2h  1 3.520000e-01    1.050000e+00
 TN3ah  TC1h  1 3.660000e-01    9.350000e-01
 TN3ah  TX4h  1 3.400000e-01    1.770000e+00
 TN3ah  TX3h  1 3.400000e-01    1.510000e+00
 TN3ah  TX2h  1 3.400000e-01    1.230000e+00
 TN3ah  TX1h  1 3.400000e-01    1.230000e+00
 TN2ah  TC6h  1 3.400000e-01    1.510000e+00
 TN2ah  TC5h  1 3.400000e-01    1.230000e+00
 TN2ah  TC4h  1 3.400000e-01    1.230000e+00
 TN2ah  TC3h  1 3.400000e-01    1.230000e+00
 TN2ah  TC2h  1 3.520000e-01    1.050000e+00
 TN2ah  TC1h  1 3.660000e-01    9.350000e-01
 TN2ah  TX4h  1 3.400000e-01    1.770000e+00
 TN2ah  TX3h  1 3.400000e-01    1.510000e+00
 TN2ah  TX2h  1 3.400000e-01    1.230000e+00
 TN2ah  TX1h  1 3.400000e-01    1.230000e+00
 TN1ah  TC6h  1 3.400000e-01    1.770000e+00
 TN1ah  TC5h  1 3.400000e-01    1.510000e+00
 TN1ah  TC4h  1 3.400000e-01    1.510000e+00
 TN1ah  TC3h  1 3.400000e-01    1.230000e+00
 TN1ah  TC2h  1 3.520000e-01    1.050000e+00
 TN1ah  TC1h  1 3.660000e-01    9.350000e-01
 TN1ah  TX4h  1 3.400000e-01    1.510000e+00
 TN1ah  TX3h  1 3.400000e-01    1.510000e+00
 TN1ah  TX2h  1 3.400000e-01    1.230000e+00
 TN1ah  TX1h  1 3.400000e-01    1.230000e+00
 TP6dh  TP5r  1 3.400000e-01    3.220000e+00
 TP6dr  TP5h  1 3.400000e-01    3.220000e+00
 TP6dh  TP4r  1 3.400000e-01    2.990000e+00
 TP6dr  TP4h  1 3.400000e-01    2.990000e+00
 TP6dh  TP3r  1 3.400000e-01    2.740000e+00
 TP6dr  TP3h  1 3.400000e-01    2.740000e+00
 TP6dh  TP2r  1 3.400000e-01    2.740000e+00
 TP6dr  TP2h  1 3.400000e-01    2.740000e+00
 TP6dh  TP1r  1 3.400000e-01    2.500000e+00
 TP6dr  TP1h  1 3.400000e-01    2.500000e+00
 TP6dh  TN6r  1 3.400000e-01    2.280000e+00
 TP6dr  TN6h  1 3.400000e-01    2.280000e+00
 TP6dh  TN5r  1 3.400000e-01    1.770000e+00
 TP6dr  TN5h  1 3.400000e-01    1.770000e+00
 TP6dh  TN4r  1 3.400000e-01    1.510000e+00
 TP6dr  TN4h  1 3.400000e-01    1.510000e+00
 TP6dh  TN3r  1 3.400000e-01    1.230000e+00
 TP6dr  TN3h  1 3.400000e-01    1.230000e+00
 TP6dh  TN2r  1 3.520000e-01    1.050000e+00
 TP6dr  TN2h  1 3.520000e-01    1.050000e+00
 TP6dh  TN1r  1 3.660000e-01    9.350000e-01
 TP6dr  TN1h  1 3.660000e-01    9.350000e-01
 TP5dh  TP4r  1 3.400000e-01    2.740000e+00
 TP5dr  TP4h  1 3.400000e-01    2.740000e+00
 TP5dh  TP3r  1 3.400000e-01    2.500000e+00
 TP5dr  TP3h  1 3.400000e-01    2.500000e+00
 TP5dh  TP2r  1 3.400000e-01    2.500000e+00
 TP5dr  TP2h  1 3.400000e-01    2.500000e+00
 TP5dh  TP1r  1 3.400000e-01    2.280000e+00
 TP5dr  TP1h  1 3.400000e-01    2.280000e+00
 TP5dh  TN6r  1 3.400000e-01    2.020000e+00
 TP5dr  TN6h  1 3.400000e-01    2.020000e+00
 TP5dh  TN5r  1 3.400000e-01    1.770000e+00
 TP5dr  TN5h  1 3.400000e-01    1.770000e+00
 TP5dh  TN4r  1 3.400000e-01    1.770000e+00
 TP5dr  TN4h  1 3.400000e-01    1.770000e+00
 TP5dh  TN3r  1 3.400000e-01    1.230000e+00
 TP5dr  TN3h  1 3.400000e-01    1.230000e+00
 TP5dh  TN2r  1 3.520000e-01    1.050000e+00
 TP5dr  TN2h  1 3.520000e-01    1.050000e+00
 TP5dh  TN1r  1 3.660000e-01    9.350000e-01
 TP5dr  TN1h  1 3.660000e-01    9.350000e-01
 TP4dh  TP3r  1 3.400000e-01    2.500000e+00
 TP4dr  TP3h  1 3.400000e-01    2.500000e+00
 TP4dh  TP2r  1 3.400000e-01    2.500000e+00
 TP4dr  TP2h  1 3.400000e-01    2.500000e+00
 TP4dh  TP1r  1 3.400000e-01    2.280000e+00
 TP4dr  TP1h  1 3.400000e-01    2.280000e+00
 TP4dh  TN6r  1 3.400000e-01    2.020000e+00
 TP4dr  TN6h  1 3.400000e-01    2.020000e+00
 TP4dh  TN5r  1 3.400000e-01    1.770000e+00
 TP4dr  TN5h  1 3.400000e-01    1.770000e+00
 TP4dh  TN4r  1 3.400000e-01    1.770000e+00
 TP4dr  TN4h  1 3.400000e-01    1.770000e+00
 TP4dh  TN3r  1 3.400000e-01    1.510000e+00
 TP4dr  TN3h  1 3.400000e-01    1.510000e+00
 TP4dh  TN2r  1 3.400000e-01    1.230000e+00
 TP4dr  TN2h  1 3.400000e-01    1.230000e+00
 TP4dh  TN1r  1 3.520000e-01    1.050000e+00
 TP4dr  TN1h  1 3.520000e-01    1.050000e+00
 TP3dh  TP2r  1 3.400000e-01    2.500000e+00
 TP3dr  TP2h  1 3.400000e-01    2.500000e+00
 TP3dh  TP1r  1 3.400000e-01    2.280000e+00
 TP3dr  TP1h  1 3.400000e-01    2.280000e+00
 TP3dh  TN6r  1 3.400000e-01    2.020000e+00
 TP3dr  TN6h  1 3.400000e-01    2.020000e+00
 TP3dh  TN5r  1 3.400000e-01    1.770000e+00
 TP3dr  TN5h  1 3.400000e-01    1.770000e+00
 TP3dh  TN4r  1 3.400000e-01    1.770000e+00
 TP3dr  TN4h  1 3.400000e-01    1.770000e+00
 TP3dh  TN3r  1 3.400000e-01    1.510000e+00
 TP3dr  TN3h  1 3.400000e-01    1.510000e+00
 TP3dh  TN2r  1 3.400000e-01    1.510000e+00
 TP3dr  TN2h  1 3.400000e-01    1.510000e+00
 TP3dh  TN1r  1 3.400000e-01    1.230000e+00
 TP3dr  TN1h  1 3.400000e-01    1.230000e+00
 TP2dh  TP1r  1 3.400000e-01    2.280000e+00
 TP2dr  TP1h  1 3.400000e-01    2.280000e+00
 TP2dh  TN6r  1 3.400000e-01    2.280000e+00
 TP2dr  TN6h  1 3.400000e-01    2.280000e+00
 TP2dh  TN5r  1 3.400000e-01    2.020000e+00
 TP2dr  TN5h  1 3.400000e-01    2.020000e+00
 TP2dh  TN4r  1 3.400000e-01    1.770000e+00
 TP2dr  TN4h  1 3.400000e-01    1.770000e+00
 TP2dh  TN3r  1 3.400000e-01    1.510000e+00
 TP2dr  TN3h  1 3.400000e-01    1.510000e+00
 TP2dh  TN2r  1 3.400000e-01    1.510000e+00
 TP2dr  TN2h  1 3.400000e-01    1.510000e+00
 TP2dh  TN1r  1 3.400000e-01    1.510000e+00
 TP2dr  TN1h  1 3.400000e-01    1.510000e+00
 TP1dh  TN6r  1 3.400000e-01    2.280000e+00
 TP1dr  TN6h  1 3.400000e-01    2.280000e+00
 TP1dh  TN5r  1 3.400000e-01    2.020000e+00
 TP1dr  TN5h  1 3.400000e-01    2.020000e+00
 TP1dh  TN4r  1 3.400000e-01    2.020000e+00
 TP1dr  TN4h  1 3.400000e-01    2.020000e+00
 TP1dh  TN3r  1 3.400000e-01    1.510000e+00
 TP1dr  TN3h  1 3.400000e-01    1.510000e+00
 TP1dh  TN2r  1 3.400000e-01    1.510000e+00
 TP1dr  TN2h  1 3.400000e-01    1.510000e+00
 TP1dh  TN1r  1 3.400000e-01    1.510000e+00
 TP1dr  TN1h  1 3.400000e-01    1.510000e+00
 TN6dh  TN5r  1 3.400000e-01    2.280000e+00
 TN6dr  TN5h  1 3.400000e-01    2.280000e+00
 TN6dh  TN4r  1 3.400000e-01    2.280000e+00
 TN6dr  TN4h  1 3.400000e-01    2.280000e+00
 TN6dh  TN3r  1 3.400000e-01    1.770000e+00
 TN6dr  TN3h  1 3.400000e-01    1.770000e+00
 TN6dh  TN2r  1 3.400000e-01    1.510000e+00
 TN6dr  TN2h  1 3.400000e-01    1.510000e+00
 TN6dh  TN1r  1 3.400000e-01    1.510000e+00
 TN6dr  TN1h  1 3.400000e-01    1.510000e+00
 TN5dh  TN4r  1 3.400000e-01    2.020000e+00
 TN5dr  TN4h  1 3.400000e-01    2.020000e+00
 TN5dh  TN3r  1 3.400000e-01    1.770000e+00
 TN5dr  TN3h  1 3.400000e-01    1.770000e+00
 TN5dh  TN2r  1 3.400000e-01    1.770000e+00
 TN5dr  TN2h  1 3.400000e-01    1.770000e+00
 TN5dh  TN1r  1 3.400000e-01    1.510000e+00
 TN5dr  TN1h  1 3.400000e-01    1.510000e+00
 TN4dh  TN3r  1 3.400000e-01    1.770000e+00
 TN4dr  TN3h  1 3.400000e-01    1.770000e+00
 TN4dh  TN2r  1 3.400000e-01    1.770000e+00
 TN4dr  TN2h  1 3.400000e-01    1.770000e+00
 TN4dh  TN1r  1 3.400000e-01    1.510000e+00
 TN4dr  TN1h  1 3.400000e-01    1.510000e+00
 TN3dh  TN2r  1 3.400000e-01    1.770000e+00
 TN3dr  TN2h  1 3.400000e-01    1.770000e+00
 TN3dh  TN1r  1 3.400000e-01    1.510000e+00
 TN3dr  TN1h  1 3.400000e-01    1.510000e+00
 TN2dh  TN1r  1 3.400000e-01    1.510000e+00
 TN2dr  TN1h  1 3.400000e-01    1.510000e+00
 TP6ah  TP5r  1 3.400000e-01    3.220000e+00
 TP6ar  TP5h  1 3.400000e-01    3.220000e+00
 TP6ah  TP4r  1 3.400000e-01    2.990000e+00
 TP6ar  TP4h  1 3.400000e-01    2.990000e+00
 TP6ah  TP3r  1 3.400000e-01    2.740000e+00
 TP6ar  TP3h  1 3.400000e-01    2.740000e+00
 TP6ah  TP2r  1 3.400000e-01    2.740000e+00
 TP6ar  TP2h  1 3.400000e-01    2.740000e+00
 TP6ah  TP1r  1 3.400000e-01    2.500000e+00
 TP6ar  TP1h  1 3.400000e-01    2.500000e+00
 TP6ah  TN6r  1 3.400000e-01    2.280000e+00
 TP6ar  TN6h  1 3.400000e-01    2.280000e+00
 TP6ah  TN5r  1 3.400000e-01    1.770000e+00
 TP6ar  TN5h  1 3.400000e-01    1.770000e+00
 TP6ah  TN4r  1 3.400000e-01    1.510000e+00
 TP6ar  TN4h  1 3.400000e-01    1.510000e+00
 TP6ah  TN3r  1 3.400000e-01    1.230000e+00
 TP6ar  TN3h  1 3.400000e-01    1.230000e+00
 TP6ah  TN2r  1 3.520000e-01    1.050000e+00
 TP6ar  TN2h  1 3.520000e-01    1.050000e+00
 TP6ah  TN1r  1 3.660000e-01    9.350000e-01
 TP6ar  TN1h  1 3.660000e-01    9.350000e-01
 TP5ah  TP4r  1 3.400000e-01    2.740000e+00
 TP5ar  TP4h  1 3.400000e-01    2.740000e+00
 TP5ah  TP3r  1 3.400000e-01    2.500000e+00
 TP5ar  TP3h  1 3.400000e-01    2.500000e+00
 TP5ah  TP2r  1 3.400000e-01    2.500000e+00
 TP5ar  TP2h  1 3.400000e-01    2.500000e+00
 TP5ah  TP1r  1 3.400000e-01    2.280000e+00
 TP5ar  TP1h  1 3.400000e-01    2.280000e+00
 TP5ah  TN6r  1 3.400000e-01    2.020000e+00
 TP5ar  TN6h  1 3.400000e-01    2.020000e+00
 TP5ah  TN5r  1 3.400000e-01    1.770000e+00
 TP5ar  TN5h  1 3.400000e-01    1.770000e+00
 TP5ah  TN4r  1 3.400000e-01    1.770000e+00
 TP5ar  TN4h  1 3.400000e-01    1.770000e+00
 TP5ah  TN3r  1 3.400000e-01    1.230000e+00
 TP5ar  TN3h  1 3.400000e-01    1.230000e+00
 TP5ah  TN2r  1 3.520000e-01    1.050000e+00
 TP5ar  TN2h  1 3.520000e-01    1.050000e+00
 TP5ah  TN1r  1 3.660000e-01    9.350000e-01
 TP5ar  TN1h  1 3.660000e-01    9.350000e-01
 TP4ah  TP3r  1 3.400000e-01    2.500000e+00
 TP4ar  TP3h  1 3.400000e-01    2.500000e+00
 TP4ah  TP2r  1 3.400000e-01    2.500000e+00
 TP4ar  TP2h  1 3.400000e-01    2.500000e+00
 TP4ah  TP1r  1 3.400000e-01    2.280000e+00
 TP4ar  TP1h  1 3.400000e-01    2.280000e+00
 TP4ah  TN6r  1 3.400000e-01    2.020000e+00
 TP4ar  TN6h  1 3.400000e-01    2.020000e+00
 TP4ah  TN5r  1 3.400000e-01    1.770000e+00
 TP4ar  TN5h  1 3.400000e-01    1.770000e+00
 TP4ah  TN4r  1 3.400000e-01    1.770000e+00
 TP4ar  TN4h  1 3.400000e-01    1.770000e+00
 TP4ah  TN3r  1 3.400000e-01    1.510000e+00
 TP4ar  TN3h  1 3.400000e-01    1.510000e+00
 TP4ah  TN2r  1 3.400000e-01    1.230000e+00
 TP4ar  TN2h  1 3.400000e-01    1.230000e+00
 TP4ah  TN1r  1 3.520000e-01    1.050000e+00
 TP4ar  TN1h  1 3.520000e-01    1.050000e+00
 TP3ah  TP2r  1 3.400000e-01    2.500000e+00
 TP3ar  TP2h  1 3.400000e-01    2.500000e+00
 TP3ah  TP1r  1 3.400000e-01    2.280000e+00
 TP3ar  TP1h  1 3.400000e-01    2.280000e+00
 TP3ah  TN6r  1 3.400000e-01    2.020000e+00
 TP3ar  TN6h  1 3.400000e-01    2.020000e+00
 TP3ah  TN5r  1 3.400000e-01    1.770000e+00
 TP3ar  TN5h  1 3.400000e-01    1.770000e+00
 TP3ah  TN4r  1 3.400000e-01    1.770000e+00
 TP3ar  TN4h  1 3.400000e-01    1.770000e+00
 TP3ah  TN3r  1 3.400000e-01    1.510000e+00
 TP3ar  TN3h  1 3.400000e-01    1.510000e+00
 TP3ah  TN2r  1 3.400000e-01    1.510000e+00
 TP3ar  TN2h  1 3.400000e-01    1.510000e+00
 TP3ah  TN1r  1 3.400000e-01    1.230000e+00
 TP3ar  TN1h  1 3.400000e-01    1.230000e+00
 TP2ah  TP1r  1 3.400000e-01    2.280000e+00
 TP2ar  TP1h  1 3.400000e-01    2.280000e+00
 TP2ah  TN6r  1 3.400000e-01    2.280000e+00
 TP2ar  TN6h  1 3.400000e-01    2.280000e+00
 TP2ah  TN5r  1 3.400000e-01    2.020000e+00
 TP2ar  TN5h  1 3.400000e-01    2.020000e+00
 TP2ah  TN4r  1 3.400000e-01    1.770000e+00
 TP2ar  TN4h  1 3.400000e-01    1.770000e+00
 TP2ah  TN3r  1 3.400000e-01    1.510000e+00
 TP2ar  TN3h  1 3.400000e-01    1.510000e+00
 TP2ah  TN2r  1 3.400000e-01    1.510000e+00
 TP2ar  TN2h  1 3.400000e-01    1.510000e+00
 TP2ah  TN1r  1 3.400000e-01    1.510000e+00
 TP2ar  TN1h  1 3.400000e-01    1.510000e+00
 TP1ah  TN6r  1 3.400000e-01    2.280000e+00
 TP1ar  TN6h  1 3.400000e-01    2.280000e+00
 TP1ah  TN5r  1 3.400000e-01    2.020000e+00
 TP1ar  TN5h  1 3.400000e-01    2.020000e+00
 TP1ah  TN4r  1 3.400000e-01    2.020000e+00
 TP1ar  TN4h  1 3.400000e-01    2.020000e+00
 TP1ah  TN3r  1 3.400000e-01    1.510000e+00
 TP1ar  TN3h  1 3.400000e-01    1.510000e+00
 TP1ah  TN2r  1 3.400000e-01    1.510000e+00
 TP1ar  TN2h  1 3.400000e-01    1.510000e+00
 TP1ah  TN1r  1 3.400000e-01    1.510000e+00
 TP1ar  TN1h  1 3.400000e-01    1.510000e+00
 TN6ah  TN5r  1 3.400000e-01    2.280000e+00
 TN6ar  TN5h  1 3.400000e-01    2.280000e+00
 TN6ah  TN4r  1 3.400000e-01    2.280000e+00
 TN6ar  TN4h  1 3.400000e-01    2.280000e+00
 TN6ah  TN3r  1 3.400000e-01    1.770000e+00
 TN6ar  TN3h  1 3.400000e-01    1.770000e+00
 TN6ah  TN2r  1 3.400000e-01    1.510000e+00
 TN6ar  TN2h  1 3.400000e-01    1.510000e+00
 TN6ah  TN1r  1 3.400000e-01    1.510000e+00
 TN6ar  TN1h  1 3.400000e-01    1.510000e+00
 TN5ah  TN4r  1 3.400000e-01    2.020000e+00
 TN5ar  TN4h  1 3.400000e-01    2.020000e+00
 TN5ah  TN3r  1 3.400000e-01    1.770000e+00
 TN5ar  TN3h  1 3.400000e-01    1.770000e+00
 TN5ah  TN2r  1 3.400000e-01    1.770000e+00
 TN5ar  TN2h  1 3.400000e-01    1.770000e+00
 TN5ah  TN1r  1 3.400000e-01    1.510000e+00
 TN5ar  TN1h  1 3.400000e-01    1.510000e+00
 TN4ah  TN3r  1 3.400000e-01    1.770000e+00
 TN4ar  TN3h  1 3.400000e-01    1.770000e+00
 TN4ah  TN2r  1 3.400000e-01    1.770000e+00
 TN4ar  TN2h  1 3.400000e-01    1.770000e+00
 TN4ah  TN1r  1 3.400000e-01    1.510000e+00
 TN4ar  TN1h  1 3.400000e-01    1.510000e+00
 TN3ah  TN2r  1 3.400000e-01    1.770000e+00
 TN3ar  TN2h  1 3.400000e-01    1.770000e+00
 TN3ah  TN1r  1 3.400000e-01    1.510000e+00
 TN3ar  TN1h  1 3.400000e-01    1.510000e+00
 TN2ah  TN1r  1 3.400000e-01    1.510000e+00
 TN2ar  TN1h  1 3.400000e-01    1.510000e+00
 TC6vh  TC5r  1 3.400000e-01    1.770000e+00
 TC6vr  TC5h  1 3.400000e-01    1.770000e+00
 TC6vh  TC4r  1 3.400000e-01    1.770000e+00
 TC6vr  TC4h  1 3.400000e-01    1.770000e+00
 TC6vh  TC3r  1 3.400000e-01    1.510000e+00
 TC6vr  TC3h  1 3.400000e-01    1.510000e+00
 TC6vh  TC2r  1 3.400000e-01    1.230000e+00
 TC6vr  TC2h  1 3.400000e-01    1.230000e+00
 TC6vh  TC1r  1 3.520000e-01    1.050000e+00
 TC6vr  TC1h  1 3.520000e-01    1.050000e+00
 TC6vh  TX4r  1 3.400000e-01    1.770000e+00
 TC6vr  TX4h  1 3.400000e-01    1.770000e+00
 TC6vh  TX3r  1 3.400000e-01    1.770000e+00
 TC6vr  TX3h  1 3.400000e-01    1.770000e+00
 TC6vh  TX2r  1 3.400000e-01    1.770000e+00
 TC6vr  TX2h  1 3.400000e-01    1.770000e+00
 TC6vh  TX1r  1 3.400000e-01    1.770000e+00
 TC6vr  TX1h  1 3.400000e-01    1.770000e+00
 TC5vh  TC4r  1 3.400000e-01    1.770000e+00
 TC5vr  TC4h  1 3.400000e-01    1.770000e+00
 TC5vh  TC3r  1 3.400000e-01    1.510000e+00
 TC5vr  TC3h  1 3.400000e-01    1.510000e+00
 TC5vh  TC2r  1 3.400000e-01    1.230000e+00
 TC5vr  TC2h  1 3.400000e-01    1.230000e+00
 TC5vh  TC1r  1 3.400000e-01    1.230000e+00
 TC5vr  TC1h  1 3.400000e-01    1.230000e+00
 TC5vh  TX4r  1 3.400000e-01    1.510000e+00
 TC5vr  TX4h  1 3.400000e-01    1.510000e+00
 TC5vh  TX3r  1 3.400000e-01    1.510000e+00
 TC5vr  TX3h  1 3.400000e-01    1.510000e+00
 TC5vh  TX2r  1 3.400000e-01    1.510000e+00
 TC5vr  TX2h  1 3.400000e-01    1.510000e+00
 TC5vh  TX1r  1 3.400000e-01    1.770000e+00
 TC5vr  TX1h  1 3.400000e-01    1.770000e+00
 TC4vh  TC3r  1 3.400000e-01    1.770000e+00
 TC4vr  TC3h  1 3.400000e-01    1.770000e+00
 TC4vh  TC2r  1 3.400000e-01    1.510000e+00
 TC4vr  TC2h  1 3.400000e-01    1.510000e+00
 TC4vh  TC1r  1 3.400000e-01    1.230000e+00
 TC4vr  TC1h  1 3.400000e-01    1.230000e+00
 TC4vh  TX4r  1 3.400000e-01    1.510000e+00
 TC4vr  TX4h  1 3.400000e-01    1.510000e+00
 TC4vh  TX3r  1 3.400000e-01    1.510000e+00
 TC4vr  TX3h  1 3.400000e-01    1.510000e+00
 TC4vh  TX2r  1 3.400000e-01    1.510000e+00
 TC4vr  TX2h  1 3.400000e-01    1.510000e+00
 TC4vh  TX1r  1 3.400000e-01    1.770000e+00
 TC4vr  TX1h  1 3.400000e-01    1.770000e+00
 TC3vh  TC2r  1 3.400000e-01    1.770000e+00
 TC3vr  TC2h  1 3.400000e-01    1.770000e+00
 TC3vh  TC1r  1 3.400000e-01    1.770000e+00
 TC3vr  TC1h  1 3.400000e-01    1.770000e+00
 TC3vh  TX4r  1 3.400000e-01    1.510000e+00
 TC3vr  TX4h  1 3.400000e-01    1.510000e+00
 TC3vh  TX3r  1 3.400000e-01    1.510000e+00
 TC3vr  TX3h  1 3.400000e-01    1.510000e+00
 TC3vh  TX2r  1 3.400000e-01    1.510000e+00
 TC3vr  TX2h  1 3.400000e-01    1.510000e+00
 TC3vh  TX1r  1 3.400000e-01    1.770000e+00
 TC3vr  TX1h  1 3.400000e-01    1.770000e+00
 TC2vh  TC1r  1 3.400000e-01    2.020000e+00
 TC2vr  TC1h  1 3.400000e-01    2.020000e+00
 TC2vh  TX4r  1 3.520000e-01    1.050000e+00
 TC2vr  TX4h  1 3.520000e-01    1.050000e+00
 TC2vh  TX3r  1 3.400000e-01    1.510000e+00
 TC2vr  TX3h  1 3.400000e-01    1.510000e+00
 TC2vh  TX2r  1 3.400000e-01    1.510000e+00
 TC2vr  TX2h  1 3.400000e-01    1.510000e+00
 TC2vh  TX1r  1 3.400000e-01    1.510000e+00
 TC2vr  TX1h  1 3.400000e-01    1.510000e+00
 TC1vh  TX4r  1 3.520000e-01    1.050000e+00
 TC1vr  TX4h  1 3.520000e-01    1.050000e+00
 TC1vh  TX3r  1 3.400000e-01    1.510000e+00
 TC1vr  TX3h  1 3.400000e-01    1.510000e+00
 TC1vh  TX2r  1 3.400000e-01    1.510000e+00
 TC1vr  TX2h  1 3.400000e-01    1.510000e+00
 TC1vh  TX1r  1 3.400000e-01    1.510000e+00
 TC1vr  TX1h  1 3.400000e-01    1.510000e+00
 TX4vh  TX3r  1 3.400000e-01    1.770000e+00
 TX4vr  TX3h  1 3.400000e-01    1.770000e+00
 TX4vh  TX2r  1 3.400000e-01    1.770000e+00
 TX4vr  TX2h  1 3.400000e-01    1.770000e+00
 TX4vh  TX1r  1 3.400000e-01    1.770000e+00
 TX4vr  TX1h  1 3.400000e-01    1.770000e+00
 TX3vh  TX2r  1 3.400000e-01    2.020000e+00
 TX3vr  TX2h  1 3.400000e-01    2.020000e+00
 TX3vh  TX1r  1 3.400000e-01    2.020000e+00
 TX3vr  TX1h  1 3.400000e-01    2.020000e+00
 TX2vh  TX1r  1 3.400000e-01    2.020000e+00
 TX2vr  TX1h  1 3.400000e-01    2.020000e+00
 TC6eh  TC5r  1 3.400000e-01    1.770000e+00
 TC6er  TC5h  1 3.400000e-01    1.770000e+00
 TC6eh  TC4r  1 3.400000e-01    1.770000e+00
 TC6er  TC4h  1 3.400000e-01    1.770000e+00
 TC6eh  TC3r  1 3.400000e-01    1.510000e+00
 TC6er  TC3h  1 3.400000e-01    1.510000e+00
 TC6eh  TC2r  1 3.400000e-01    1.230000e+00
 TC6er  TC2h  1 3.400000e-01    1.230000e+00
 TC6eh  TC1r  1 3.520000e-01    1.050000e+00
 TC6er  TC1h  1 3.520000e-01    1.050000e+00
 TC6eh  TX4r  1 3.400000e-01    1.770000e+00
 TC6er  TX4h  1 3.400000e-01    1.770000e+00
 TC6eh  TX3r  1 3.400000e-01    1.770000e+00
 TC6er  TX3h  1 3.400000e-01    1.770000e+00
 TC6eh  TX2r  1 3.400000e-01    1.770000e+00
 TC6er  TX2h  1 3.400000e-01    1.770000e+00
 TC6eh  TX1r  1 3.400000e-01    1.770000e+00
 TC6er  TX1h  1 3.400000e-01    1.770000e+00
 TC5eh  TC4r  1 3.400000e-01    1.770000e+00
 TC5er  TC4h  1 3.400000e-01    1.770000e+00
 TC5eh  TC3r  1 3.400000e-01    1.510000e+00
 TC5er  TC3h  1 3.400000e-01    1.510000e+00
 TC5eh  TC2r  1 3.400000e-01    1.230000e+00
 TC5er  TC2h  1 3.400000e-01    1.230000e+00
 TC5eh  TC1r  1 3.400000e-01    1.230000e+00
 TC5er  TC1h  1 3.400000e-01    1.230000e+00
 TC5eh  TX4r  1 3.400000e-01    1.510000e+00
 TC5er  TX4h  1 3.400000e-01    1.510000e+00
 TC5eh  TX3r  1 3.400000e-01    1.510000e+00
 TC5er  TX3h  1 3.400000e-01    1.510000e+00
 TC5eh  TX2r  1 3.400000e-01    1.510000e+00
 TC5er  TX2h  1 3.400000e-01    1.510000e+00
 TC5eh  TX1r  1 3.400000e-01    1.770000e+00
 TC5er  TX1h  1 3.400000e-01    1.770000e+00
 TC4eh  TC3r  1 3.400000e-01    1.770000e+00
 TC4er  TC3h  1 3.400000e-01    1.770000e+00
 TC4eh  TC2r  1 3.400000e-01    1.510000e+00
 TC4er  TC2h  1 3.400000e-01    1.510000e+00
 TC4eh  TC1r  1 3.400000e-01    1.230000e+00
 TC4er  TC1h  1 3.400000e-01    1.230000e+00
 TC4eh  TX4r  1 3.400000e-01    1.510000e+00
 TC4er  TX4h  1 3.400000e-01    1.510000e+00
 TC4eh  TX3r  1 3.400000e-01    1.510000e+00
 TC4er  TX3h  1 3.400000e-01    1.510000e+00
 TC4eh  TX2r  1 3.400000e-01    1.510000e+00
 TC4er  TX2h  1 3.400000e-01    1.510000e+00
 TC4eh  TX1r  1 3.400000e-01    1.770000e+00
 TC4er  TX1h  1 3.400000e-01    1.770000e+00
 TC3eh  TC2r  1 3.400000e-01    1.770000e+00
 TC3er  TC2h  1 3.400000e-01    1.770000e+00
 TC3eh  TC1r  1 3.400000e-01    1.770000e+00
 TC3er  TC1h  1 3.400000e-01    1.770000e+00
 TC3eh  TX4r  1 3.400000e-01    1.510000e+00
 TC3er  TX4h  1 3.400000e-01    1.510000e+00
 TC3eh  TX3r  1 3.400000e-01    1.510000e+00
 TC3er  TX3h  1 3.400000e-01    1.510000e+00
 TC3eh  TX2r  1 3.400000e-01    1.510000e+00
 TC3er  TX2h  1 3.400000e-01    1.510000e+00
 TC3eh  TX1r  1 3.400000e-01    1.770000e+00
 TC3er  TX1h  1 3.400000e-01    1.770000e+00
 TC2eh  TC1r  1 3.400000e-01    2.020000e+00
 TC2er  TC1h  1 3.400000e-01    2.020000e+00
 TC2eh  TX4r  1 3.520000e-01    1.050000e+00
 TC2er  TX4h  1 3.520000e-01    1.050000e+00
 TC2eh  TX3r  1 3.400000e-01    1.510000e+00
 TC2er  TX3h  1 3.400000e-01    1.510000e+00
 TC2eh  TX2r  1 3.400000e-01    1.510000e+00
 TC2er  TX2h  1 3.400000e-01    1.510000e+00
 TC2eh  TX1r  1 3.400000e-01    1.510000e+00
 TC2er  TX1h  1 3.400000e-01    1.510000e+00
 TC1eh  TX4r  1 3.520000e-01    1.050000e+00
 TC1er  TX4h  1 3.520000e-01    1.050000e+00
 TC1eh  TX3r  1 3.400000e-01    1.510000e+00
 TC1er  TX3h  1 3.400000e-01    1.510000e+00
 TC1eh  TX2r  1 3.400000e-01    1.510000e+00
 TC1er  TX2h  1 3.400000e-01    1.510000e+00
 TC1eh  TX1r  1 3.400000e-01    1.510000e+00
 TC1er  TX1h  1 3.400000e-01    1.510000e+00
 TX4eh  TX3r  1 3.400000e-01    1.770000e+00
 TX4er  TX3h  1 3.400000e-01    1.770000e+00
 TX4eh  TX2r  1 3.400000e-01    1.770000e+00
 TX4er  TX2h  1 3.400000e-01    1.770000e+00
 TX4eh  TX1r  1 3.400000e-01    1.770000e+00
 TX4er  TX1h  1 3.400000e-01    1.770000e+00
 TX3eh  TX2r  1 3.400000e-01    2.020000e+00
 TX3er  TX2h  1 3.400000e-01    2.020000e+00
 TX3eh  TX1r  1 3.400000e-01    2.020000e+00
 TX3er  TX1h  1 3.400000e-01    2.020000e+00
 TX2eh  TX1r  1 3.400000e-01    2.020000e+00
 TX2er  TX1h  1 3.400000e-01    2.020000e+00
 TP6dh  TC6r  1 3.660000e-01    9.350000e-01
 TP6dr  TC6h  1 3.660000e-01    9.350000e-01
 TP6dh  TC5r  1 3.850000e-01    8.550000e-01
 TP6dr  TC5h  1 3.850000e-01    8.550000e-01
 TP6dh  TC4r  1 4.110000e-01    8.010000e-01
 TP6dr  TC4h  1 4.110000e-01    8.010000e-01
 TP6dh  TC3r  1 4.240000e-01    7.760000e-01
 TP6dr  TC3h  1 4.240000e-01    7.760000e-01
 TP6dh  TC2r  1 4.240000e-01    7.760000e-01
 TP6dr  TC2h  1 4.240000e-01    7.760000e-01
 TP6dh  TC1r  1 5.050000e-01    6.800000e-01
 TP6dr  TC1h  1 5.050000e-01    6.800000e-01
 TP6dh  TX4r  1 3.520000e-01    1.050000e+00
 TP6dr  TX4h  1 3.520000e-01    1.050000e+00
 TP6dh  TX3r  1 3.520000e-01    1.050000e+00
 TP6dr  TX3h  1 3.520000e-01    1.050000e+00
 TP6dh  TX2r  1 3.660000e-01    9.350000e-01
 TP6dr  TX2h  1 3.660000e-01    9.350000e-01
 TP6dh  TX1r  1 3.850000e-01    8.550000e-01
 TP6dr  TX1h  1 3.850000e-01    8.550000e-01
 TP5dh  TC6r  1 3.660000e-01    9.350000e-01
 TP5dr  TC6h  1 3.660000e-01    9.350000e-01
 TP5dh  TC5r  1 3.660000e-01    9.350000e-01
 TP5dr  TC5h  1 3.660000e-01    9.350000e-01
 TP5dh  TC4r  1 3.850000e-01    8.550000e-01
 TP5dr  TC4h  1 3.850000e-01    8.550000e-01
 TP5dh  TC3r  1 4.110000e-01    8.010000e-01
 TP5dr  TC3h  1 4.110000e-01    8.010000e-01
 TP5dh  TC2r  1 4.110000e-01    8.010000e-01
 TP5dr  TC2h  1 4.110000e-01    8.010000e-01
 TP5dh  TC1r  1 4.240000e-01    7.760000e-01
 TP5dr  TC1h  1 4.240000e-01    7.760000e-01
 TP5dh  TX4r  1 3.400000e-01    1.230000e+00
 TP5dr  TX4h  1 3.400000e-01    1.230000e+00
 TP5dh  TX3r  1 3.520000e-01    1.050000e+00
 TP5dr  TX3h  1 3.520000e-01    1.050000e+00
 TP5dh  TX2r  1 3.520000e-01    1.050000e+00
 TP5dr  TX2h  1 3.520000e-01    1.050000e+00
 TP5dh  TX1r  1 3.850000e-01    8.550000e-01
 TP5dr  TX1h  1 3.850000e-01    8.550000e-01
 TP4dh  TC6r  1 3.520000e-01    1.050000e+00
 TP4dr  TC6h  1 3.520000e-01    1.050000e+00
 TP4dh  TC5r  1 3.660000e-01    9.350000e-01
 TP4dr  TC5h  1 3.660000e-01    9.350000e-01
 TP4dh  TC4r  1 3.850000e-01    8.550000e-01
 TP4dr  TC4h  1 3.850000e-01    8.550000e-01
 TP4dh  TC3r  1 4.110000e-01    8.010000e-01
 TP4dr  TC3h  1 4.110000e-01    8.010000e-01
 TP4dh  TC2r  1 4.110000e-01    8.010000e-01
 TP4dr  TC2h  1 4.110000e-01    8.010000e-01
 TP4dh  TC1r  1 4.240000e-01    7.760000e-01
 TP4dr  TC1h  1 4.240000e-01    7.760000e-01
 TP4dh  TX4r  1 3.400000e-01    1.230000e+00
 TP4dr  TX4h  1 3.400000e-01    1.230000e+00
 TP4dh  TX3r  1 3.520000e-01    1.050000e+00
 TP4dr  TX3h  1 3.520000e-01    1.050000e+00
 TP4dh  TX2r  1 3.520000e-01    1.050000e+00
 TP4dr  TX2h  1 3.520000e-01    1.050000e+00
 TP4dh  TX1r  1 3.660000e-01    9.350000e-01
 TP4dr  TX1h  1 3.660000e-01    9.350000e-01
 TP3dh  TC6r  1 3.400000e-01    1.230000e+00
 TP3dr  TC6h  1 3.400000e-01    1.230000e+00
 TP3dh  TC5r  1 3.520000e-01    1.050000e+00
 TP3dr  TC5h  1 3.520000e-01    1.050000e+00
 TP3dh  TC4r  1 3.660000e-01    9.350000e-01
 TP3dr  TC4h  1 3.660000e-01    9.350000e-01
 TP3dh  TC3r  1 4.110000e-01    8.010000e-01
 TP3dr  TC3h  1 4.110000e-01    8.010000e-01
 TP3dh  TC2r  1 4.110000e-01    8.010000e-01
 TP3dr  TC2h  1 4.110000e-01    8.010000e-01
 TP3dh  TC1r  1 4.240000e-01    7.760000e-01
 TP3dr  TC1h  1 4.240000e-01    7.760000e-01
 TP3dh  TX4r  1 3.400000e-01    1.230000e+00
 TP3dr  TX4h  1 3.400000e-01    1.230000e+00
 TP3dh  TX3r  1 3.400000e-01    1.230000e+00
 TP3dr  TX3h  1 3.400000e-01    1.230000e+00
 TP3dh  TX2r  1 3.520000e-01    1.050000e+00
 TP3dr  TX2h  1 3.520000e-01    1.050000e+00
 TP3dh  TX1r  1 3.660000e-01    9.350000e-01
 TP3dr  TX1h  1 3.660000e-01    9.350000e-01
 TP2dh  TC6r  1 3.400000e-01    1.230000e+00
 TP2dr  TC6h  1 3.400000e-01    1.230000e+00
 TP2dh  TC5r  1 3.520000e-01    1.050000e+00
 TP2dr  TC5h  1 3.520000e-01    1.050000e+00
 TP2dh  TC4r  1 3.660000e-01    9.350000e-01
 TP2dr  TC4h  1 3.660000e-01    9.350000e-01
 TP2dh  TC3r  1 3.850000e-01    8.550000e-01
 TP2dr  TC3h  1 3.850000e-01    8.550000e-01
 TP2dh  TC2r  1 3.850000e-01    8.550000e-01
 TP2dr  TC2h  1 3.850000e-01    8.550000e-01
 TP2dh  TC1r  1 4.110000e-01    8.010000e-01
 TP2dr  TC1h  1 4.110000e-01    8.010000e-01
 TP2dh  TX4r  1 3.400000e-01    1.230000e+00
 TP2dr  TX4h  1 3.400000e-01    1.230000e+00
 TP2dh  TX3r  1 3.400000e-01    1.230000e+00
 TP2dr  TX3h  1 3.400000e-01    1.230000e+00
 TP2dh  TX2r  1 3.520000e-01    1.050000e+00
 TP2dr  TX2h  1 3.520000e-01    1.050000e+00
 TP2dh  TX1r  1 3.660000e-01    9.350000e-01
 TP2dr  TX1h  1 3.660000e-01    9.350000e-01
 TP1dh  TC6r  1 3.400000e-01    1.230000e+00
 TP1dr  TC6h  1 3.400000e-01    1.230000e+00
 TP1dh  TC5r  1 3.520000e-01    1.050000e+00
 TP1dr  TC5h  1 3.520000e-01    1.050000e+00
 TP1dh  TC4r  1 3.660000e-01    9.350000e-01
 TP1dr  TC4h  1 3.660000e-01    9.350000e-01
 TP1dh  TC3r  1 3.850000e-01    8.550000e-01
 TP1dr  TC3h  1 3.850000e-01    8.550000e-01
 TP1dh  TC2r  1 3.850000e-01    8.550000e-01
 TP1dr  TC2h  1 3.850000e-01    8.550000e-01
 TP1dh  TC1r  1 4.110000e-01    8.010000e-01
 TP1dr  TC1h  1 4.110000e-01    8.010000e-01
 TP1dh  TX4r  1 3.400000e-01    1.230000e+00
 TP1dr  TX4h  1 3.400000e-01    1.230000e+00
 TP1dh  TX3r  1 3.400000e-01    1.230000e+00
 TP1dr  TX3h  1 3.400000e-01    1.230000e+00
 TP1dh  TX2r  1 3.520000e-01    1.050000e+00
 TP1dr  TX2h  1 3.520000e-01    1.050000e+00
 TP1dh  TX1r  1 3.660000e-01    9.350000e-01
 TP1dr  TX1h  1 3.660000e-01    9.350000e-01
 TN6dh  TC6r  1 3.400000e-01    1.510000e+00
 TN6dr  TC6h  1 3.400000e-01    1.510000e+00
 TN6dh  TC5r  1 3.400000e-01    1.230000e+00
 TN6dr  TC5h  1 3.400000e-01    1.230000e+00
 TN6dh  TC4r  1 3.520000e-01    1.050000e+00
 TN6dr  TC4h  1 3.520000e-01    1.050000e+00
 TN6dh  TC3r  1 3.660000e-01    9.350000e-01
 TN6dr  TC3h  1 3.660000e-01    9.350000e-01
 TN6dh  TC2r  1 3.660000e-01    9.350000e-01
 TN6dr  TC2h  1 3.660000e-01    9.350000e-01
 TN6dh  TC1r  1 3.850000e-01    8.550000e-01
 TN6dr  TC1h  1 3.850000e-01    8.550000e-01
 TN6dh  TX4r  1 3.400000e-01    1.510000e+00
 TN6dr  TX4h  1 3.400000e-01    1.510000e+00
 TN6dh  TX3r  1 3.400000e-01    1.230000e+00
 TN6dr  TX3h  1 3.400000e-01    1.230000e+00
 TN6dh  TX2r  1 3.520000e-01    1.050000e+00
 TN6dr  TX2h  1 3.520000e-01    1.050000e+00
 TN6dh  TX1r  1 3.660000e-01    9.350000e-01
 TN6dr  TX1h  1 3.660000e-01    9.350000e-01
 TN5dh  TC6r  1 3.400000e-01    1.510000e+00
 TN5dr  TC6h  1 3.400000e-01    1.510000e+00
 TN5dh  TC5r  1 3.400000e-01    1.230000e+00
 TN5dr  TC5h  1 3.400000e-01    1.230000e+00
 TN5dh  TC4r  1 3.520000e-01    1.050000e+00
 TN5dr  TC4h  1 3.520000e-01    1.050000e+00
 TN5dh  TC3r  1 3.520000e-01    1.050000e+00
 TN5dr  TC3h  1 3.520000e-01    1.050000e+00
 TN5dh  TC2r  1 3.660000e-01    9.350000e-01
 TN5dr  TC2h  1 3.660000e-01    9.350000e-01
 TN5dh  TC1r  1 3.850000e-01    8.550000e-01
 TN5dr  TC1h  1 3.850000e-01    8.550000e-01
 TN5dh  TX4r  1 3.400000e-01    1.770000e+00
 TN5dr  TX4h  1 3.400000e-01    1.770000e+00
 TN5dh  TX3r  1 3.400000e-01    1.510000e+00
 TN5dr  TX3h  1 3.400000e-01    1.510000e+00
 TN5dh  TX2r  1 3.400000e-01    1.230000e+00
 TN5dr  TX2h  1 3.400000e-01    1.230000e+00
 TN5dh  TX1r  1 3.520000e-01    1.050000e+00
 TN5dr  TX1h  1 3.520000e-01    1.050000e+00
 TN4dh  TC6r  1 3.400000e-01    1.510000e+00
 TN4dr  TC6h  1 3.400000e-01    1.510000e+00
 TN4dh  TC5r  1 3.400000e-01    1.230000e+00
 TN4dr  TC5h  1 3.400000e-01    1.230000e+00
 TN4dh  TC4r  1 3.400000e-01    1.230000e+00
 TN4dr  TC4h  1 3.400000e-01    1.230000e+00
 TN4dh  TC3r  1 3.520000e-01    1.050000e+00
 TN4dr  TC3h  1 3.520000e-01    1.050000e+00
 TN4dh  TC2r  1 3.660000e-01    9.350000e-01
 TN4dr  TC2h  1 3.660000e-01    9.350000e-01
 TN4dh  TC1r  1 3.850000e-01    8.550000e-01
 TN4dr  TC1h  1 3.850000e-01    8.550000e-01
 TN4dh  TX4r  1 3.400000e-01    2.020000e+00
 TN4dr  TX4h  1 3.400000e-01    2.020000e+00
 TN4dh  TX3r  1 3.400000e-01    1.770000e+00
 TN4dr  TX3h  1 3.400000e-01    1.770000e+00
 TN4dh  TX2r  1 3.400000e-01    1.230000e+00
 TN4dr  TX2h  1 3.400000e-01    1.230000e+00
 TN4dh  TX1r  1 3.520000e-01    1.050000e+00
 TN4dr  TX1h  1 3.520000e-01    1.050000e+00
 TN3dh  TC6r  1 3.400000e-01    1.510000e+00
 TN3dr  TC6h  1 3.400000e-01    1.510000e+00
 TN3dh  TC5r  1 3.400000e-01    1.230000e+00
 TN3dr  TC5h  1 3.400000e-01    1.230000e+00
 TN3dh  TC4r  1 3.400000e-01    1.230000e+00
 TN3dr  TC4h  1 3.400000e-01    1.230000e+00
 TN3dh  TC3r  1 3.520000e-01    1.050000e+00
 TN3dr  TC3h  1 3.520000e-01    1.050000e+00
 TN3dh  TC2r  1 3.520000e-01    1.050000e+00
 TN3dr  TC2h  1 3.520000e-01    1.050000e+00
 TN3dh  TC1r  1 3.660000e-01    9.350000e-01
 TN3dr  TC1h  1 3.660000e-01    9.350000e-01
 TN3dh  TX4r  1 3.400000e-01    1.770000e+00
 TN3dr  TX4h  1 3.400000e-01    1.770000e+00
 TN3dh  TX3r  1 3.400000e-01    1.510000e+00
 TN3dr  TX3h  1 3.400000e-01    1.510000e+00
 TN3dh  TX2r  1 3.400000e-01    1.230000e+00
 TN3dr  TX2h  1 3.400000e-01    1.230000e+00
 TN3dh  TX1r  1 3.400000e-01    1.230000e+00
 TN3dr  TX1h  1 3.400000e-01    1.230000e+00
 TN2dh  TC6r  1 3.400000e-01    1.510000e+00
 TN2dr  TC6h  1 3.400000e-01    1.510000e+00
 TN2dh  TC5r  1 3.400000e-01    1.230000e+00
 TN2dr  TC5h  1 3.400000e-01    1.230000e+00
 TN2dh  TC4r  1 3.400000e-01    1.230000e+00
 TN2dr  TC4h  1 3.400000e-01    1.230000e+00
 TN2dh  TC3r  1 3.400000e-01    1.230000e+00
 TN2dr  TC3h  1 3.400000e-01    1.230000e+00
 TN2dh  TC2r  1 3.520000e-01    1.050000e+00
 TN2dr  TC2h  1 3.520000e-01    1.050000e+00
 TN2dh  TC1r  1 3.660000e-01    9.350000e-01
 TN2dr  TC1h  1 3.660000e-01    9.350000e-01
 TN2dh  TX4r  1 3.400000e-01    1.770000e+00
 TN2dr  TX4h  1 3.400000e-01    1.770000e+00
 TN2dh  TX3r  1 3.400000e-01    1.510000e+00
 TN2dr  TX3h  1 3.400000e-01    1.510000e+00
 TN2dh  TX2r  1 3.400000e-01    1.230000e+00
 TN2dr  TX2h  1 3.400000e-01    1.230000e+00
 TN2dh  TX1r  1 3.400000e-01    1.230000e+00
 TN2dr  TX1h  1 3.400000e-01    1.230000e+00
 TN1dh  TC6r  1 3.400000e-01    1.770000e+00
 TN1dr  TC6h  1 3.400000e-01    1.770000e+00
 TN1dh  TC5r  1 3.400000e-01    1.510000e+00
 TN1dr  TC5h  1 3.400000e-01    1.510000e+00
 TN1dh  TC4r  1 3.400000e-01    1.510000e+00
 TN1dr  TC4h  1 3.400000e-01    1.510000e+00
 TN1dh  TC3r  1 3.400000e-01    1.230000e+00
 TN1dr  TC3h  1 3.400000e-01    1.230000e+00
 TN1dh  TC2r  1 3.520000e-01    1.050000e+00
 TN1dr  TC2h  1 3.520000e-01    1.050000e+00
 TN1dh  TC1r  1 3.660000e-01    9.350000e-01
 TN1dr  TC1h  1 3.660000e-01    9.350000e-01
 TN1dh  TX4r  1 3.400000e-01    1.510000e+00
 TN1dr  TX4h  1 3.400000e-01    1.510000e+00
 TN1dh  TX3r  1 3.400000e-01    1.510000e+00
 TN1dr  TX3h  1 3.400000e-01    1.510000e+00
 TN1dh  TX2r  1 3.400000e-01    1.230000e+00
 TN1dr  TX2h  1 3.400000e-01    1.230000e+00
 TN1dh  TX1r  1 3.400000e-01    1.230000e+00
 TN1dr  TX1h  1 3.400000e-01    1.230000e+00
 TP6ah  TC6r  1 3.660000e-01    9.350000e-01
 TP6ar  TC6h  1 3.660000e-01    9.350000e-01
 TP6ah  TC5r  1 3.850000e-01    8.550000e-01
 TP6ar  TC5h  1 3.850000e-01    8.550000e-01
 TP6ah  TC4r  1 4.110000e-01    8.010000e-01
 TP6ar  TC4h  1 4.110000e-01    8.010000e-01
 TP6ah  TC3r  1 4.240000e-01    7.760000e-01
 TP6ar  TC3h  1 4.240000e-01    7.760000e-01
 TP6ah  TC2r  1 4.240000e-01    7.760000e-01
 TP6ar  TC2h  1 4.240000e-01    7.760000e-01
 TP6ah  TC1r  1 5.050000e-01    6.800000e-01
 TP6ar  TC1h  1 5.050000e-01    6.800000e-01
 TP6ah  TX4r  1 3.520000e-01    1.050000e+00
 TP6ar  TX4h  1 3.520000e-01    1.050000e+00
 TP6ah  TX3r  1 3.520000e-01    1.050000e+00
 TP6ar  TX3h  1 3.520000e-01    1.050000e+00
 TP6ah  TX2r  1 3.660000e-01    9.350000e-01
 TP6ar  TX2h  1 3.660000e-01    9.350000e-01
 TP6ah  TX1r  1 3.850000e-01    8.550000e-01
 TP6ar  TX1h  1 3.850000e-01    8.550000e-01
 TP5ah  TC6r  1 3.660000e-01    9.350000e-01
 TP5ar  TC6h  1 3.660000e-01    9.350000e-01
 TP5ah  TC5r  1 3.660000e-01    9.350000e-01
 TP5ar  TC5h  1 3.660000e-01    9.350000e-01
 TP5ah  TC4r  1 3.850000e-01    8.550000e-01
 TP5ar  TC4h  1 3.850000e-01    8.550000e-01
 TP5ah  TC3r  1 4.110000e-01    8.010000e-01
 TP5ar  TC3h  1 4.110000e-01    8.010000e-01
 TP5ah  TC2r  1 4.110000e-01    8.010000e-01
 TP5ar  TC2h  1 4.110000e-01    8.010000e-01
 TP5ah  TC1r  1 4.240000e-01    7.760000e-01
 TP5ar  TC1h  1 4.240000e-01    7.760000e-01
 TP5ah  TX4r  1 3.400000e-01    1.230000e+00
 TP5ar  TX4h  1 3.400000e-01    1.230000e+00
 TP5ah  TX3r  1 3.520000e-01    1.050000e+00
 TP5ar  TX3h  1 3.520000e-01    1.050000e+00
 TP5ah  TX2r  1 3.520000e-01    1.050000e+00
 TP5ar  TX2h  1 3.520000e-01    1.050000e+00
 TP5ah  TX1r  1 3.850000e-01    8.550000e-01
 TP5ar  TX1h  1 3.850000e-01    8.550000e-01
 TP4ah  TC6r  1 3.520000e-01    1.050000e+00
 TP4ar  TC6h  1 3.520000e-01    1.050000e+00
 TP4ah  TC5r  1 3.660000e-01    9.350000e-01
 TP4ar  TC5h  1 3.660000e-01    9.350000e-01
 TP4ah  TC4r  1 3.850000e-01    8.550000e-01
 TP4ar  TC4h  1 3.850000e-01    8.550000e-01
 TP4ah  TC3r  1 4.110000e-01    8.010000e-01
 TP4ar  TC3h  1 4.110000e-01    8.010000e-01
 TP4ah  TC2r  1 4.110000e-01    8.010000e-01
 TP4ar  TC2h  1 4.110000e-01    8.010000e-01
 TP4ah  TC1r  1 4.240000e-01    7.760000e-01
 TP4ar  TC1h  1 4.240000e-01    7.760000e-01
 TP4ah  TX4r  1 3.400000e-01    1.230000e+00
 TP4ar  TX4h  1 3.400000e-01    1.230000e+00
 TP4ah  TX3r  1 3.520000e-01    1.050000e+00
 TP4ar  TX3h  1 3.520000e-01    1.050000e+00
 TP4ah  TX2r  1 3.520000e-01    1.050000e+00
 TP4ar  TX2h  1 3.520000e-01    1.050000e+00
 TP4ah  TX1r  1 3.660000e-01    9.350000e-01
 TP4ar  TX1h  1 3.660000e-01    9.350000e-01
 TP3ah  TC6r  1 3.400000e-01    1.230000e+00
 TP3ar  TC6h  1 3.400000e-01    1.230000e+00
 TP3ah  TC5r  1 3.520000e-01    1.050000e+00
 TP3ar  TC5h  1 3.520000e-01    1.050000e+00
 TP3ah  TC4r  1 3.660000e-01    9.350000e-01
 TP3ar  TC4h  1 3.660000e-01    9.350000e-01
 TP3ah  TC3r  1 4.110000e-01    8.010000e-01
 TP3ar  TC3h  1 4.110000e-01    8.010000e-01
 TP3ah  TC2r  1 4.110000e-01    8.010000e-01
 TP3ar  TC2h  1 4.110000e-01    8.010000e-01
 TP3ah  TC1r  1 4.240000e-01    7.760000e-01
 TP3ar  TC1h  1 4.240000e-01    7.760000e-01
 TP3ah  TX4r  1 3.400000e-01    1.230000e+00
 TP3ar  TX4h  1 3.400000e-01    1.230000e+00
 TP3ah  TX3r  1 3.400000e-01    1.230000e+00
 TP3ar  TX3h  1 3.400000e-01    1.230000e+00
 TP3ah  TX2r  1 3.520000e-01    1.050000e+00
 TP3ar  TX2h  1 3.520000e-01    1.050000e+00
 TP3ah  TX1r  1 3.660000e-01    9.350000e-01
 TP3ar  TX1h  1 3.660000e-01    9.350000e-01
 TP2ah  TC6r  1 3.400000e-01    1.230000e+00
 TP2ar  TC6h  1 3.400000e-01    1.230000e+00
 TP2ah  TC5r  1 3.520000e-01    1.050000e+00
 TP2ar  TC5h  1 3.520000e-01    1.050000e+00
 TP2ah  TC4r  1 3.660000e-01    9.350000e-01
 TP2ar  TC4h  1 3.660000e-01    9.350000e-01
 TP2ah  TC3r  1 3.850000e-01    8.550000e-01
 TP2ar  TC3h  1 3.850000e-01    8.550000e-01
 TP2ah  TC2r  1 3.850000e-01    8.550000e-01
 TP2ar  TC2h  1 3.850000e-01    8.550000e-01
 TP2ah  TC1r  1 4.110000e-01    8.010000e-01
 TP2ar  TC1h  1 4.110000e-01    8.010000e-01
 TP2ah  TX4r  1 3.400000e-01    1.230000e+00
 TP2ar  TX4h  1 3.400000e-01    1.230000e+00
 TP2ah  TX3r  1 3.400000e-01    1.230000e+00
 TP2ar  TX3h  1 3.400000e-01    1.230000e+00
 TP2ah  TX2r  1 3.520000e-01    1.050000e+00
 TP2ar  TX2h  1 3.520000e-01    1.050000e+00
 TP2ah  TX1r  1 3.660000e-01    9.350000e-01
 TP2ar  TX1h  1 3.660000e-01    9.350000e-01
 TP1ah  TC6r  1 3.400000e-01    1.230000e+00
 TP1ar  TC6h  1 3.400000e-01    1.230000e+00
 TP1ah  TC5r  1 3.520000e-01    1.050000e+00
 TP1ar  TC5h  1 3.520000e-01    1.050000e+00
 TP1ah  TC4r  1 3.660000e-01    9.350000e-01
 TP1ar  TC4h  1 3.660000e-01    9.350000e-01
 TP1ah  TC3r  1 3.850000e-01    8.550000e-01
 TP1ar  TC3h  1 3.850000e-01    8.550000e-01
 TP1ah  TC2r  1 3.850000e-01    8.550000e-01
 TP1ar  TC2h  1 3.850000e-01    8.550000e-01
 TP1ah  TC1r  1 4.110000e-01    8.010000e-01
 TP1ar  TC1h  1 4.110000e-01    8.010000e-01
 TP1ah  TX4r  1 3.400000e-01    1.230000e+00
 TP1ar  TX4h  1 3.400000e-01    1.230000e+00
 TP1ah  TX3r  1 3.400000e-01    1.230000e+00
 TP1ar  TX3h  1 3.400000e-01    1.230000e+00
 TP1ah  TX2r  1 3.520000e-01    1.050000e+00
 TP1ar  TX2h  1 3.520000e-01    1.050000e+00
 TP1ah  TX1r  1 3.660000e-01    9.350000e-01
 TP1ar  TX1h  1 3.660000e-01    9.350000e-01
 TN6ah  TC6r  1 3.400000e-01    1.510000e+00
 TN6ar  TC6h  1 3.400000e-01    1.510000e+00
 TN6ah  TC5r  1 3.400000e-01    1.230000e+00
 TN6ar  TC5h  1 3.400000e-01    1.230000e+00
 TN6ah  TC4r  1 3.520000e-01    1.050000e+00
 TN6ar  TC4h  1 3.520000e-01    1.050000e+00
 TN6ah  TC3r  1 3.660000e-01    9.350000e-01
 TN6ar  TC3h  1 3.660000e-01    9.350000e-01
 TN6ah  TC2r  1 3.660000e-01    9.350000e-01
 TN6ar  TC2h  1 3.660000e-01    9.350000e-01
 TN6ah  TC1r  1 3.850000e-01    8.550000e-01
 TN6ar  TC1h  1 3.850000e-01    8.550000e-01
 TN6ah  TX4r  1 3.400000e-01    1.510000e+00
 TN6ar  TX4h  1 3.400000e-01    1.510000e+00
 TN6ah  TX3r  1 3.400000e-01    1.230000e+00
 TN6ar  TX3h  1 3.400000e-01    1.230000e+00
 TN6ah  TX2r  1 3.520000e-01    1.050000e+00
 TN6ar  TX2h  1 3.520000e-01    1.050000e+00
 TN6ah  TX1r  1 3.660000e-01    9.350000e-01
 TN6ar  TX1h  1 3.660000e-01    9.350000e-01
 TN5ah  TC6r  1 3.400000e-01    1.510000e+00
 TN5ar  TC6h  1 3.400000e-01    1.510000e+00
 TN5ah  TC5r  1 3.400000e-01    1.230000e+00
 TN5ar  TC5h  1 3.400000e-01    1.230000e+00
 TN5ah  TC4r  1 3.520000e-01    1.050000e+00
 TN5ar  TC4h  1 3.520000e-01    1.050000e+00
 TN5ah  TC3r  1 3.520000e-01    1.050000e+00
 TN5ar  TC3h  1 3.520000e-01    1.050000e+00
 TN5ah  TC2r  1 3.660000e-01    9.350000e-01
 TN5ar  TC2h  1 3.660000e-01    9.350000e-01
 TN5ah  TC1r  1 3.850000e-01    8.550000e-01
 TN5ar  TC1h  1 3.850000e-01    8.550000e-01
 TN5ah  TX4r  1 3.400000e-01    1.770000e+00
 TN5ar  TX4h  1 3.400000e-01    1.770000e+00
 TN5ah  TX3r  1 3.400000e-01    1.510000e+00
 TN5ar  TX3h  1 3.400000e-01    1.510000e+00
 TN5ah  TX2r  1 3.400000e-01    1.230000e+00
 TN5ar  TX2h  1 3.400000e-01    1.230000e+00
 TN5ah  TX1r  1 3.520000e-01    1.050000e+00
 TN5ar  TX1h  1 3.520000e-01    1.050000e+00
 TN4ah  TC6r  1 3.400000e-01    1.510000e+00
 TN4ar  TC6h  1 3.400000e-01    1.510000e+00
 TN4ah  TC5r  1 3.400000e-01    1.230000e+00
 TN4ar  TC5h  1 3.400000e-01    1.230000e+00
 TN4ah  TC4r  1 3.400000e-01    1.230000e+00
 TN4ar  TC4h  1 3.400000e-01    1.230000e+00
 TN4ah  TC3r  1 3.520000e-01    1.050000e+00
 TN4ar  TC3h  1 3.520000e-01    1.050000e+00
 TN4ah  TC2r  1 3.660000e-01    9.350000e-01
 TN4ar  TC2h  1 3.660000e-01    9.350000e-01
 TN4ah  TC1r  1 3.850000e-01    8.550000e-01
 TN4ar  TC1h  1 3.850000e-01    8.550000e-01
 TN4ah  TX4r  1 3.400000e-01    2.020000e+00
 TN4ar  TX4h  1 3.400000e-01    2.020000e+00
 TN4ah  TX3r  1 3.400000e-01    1.770000e+00
 TN4ar  TX3h  1 3.400000e-01    1.770000e+00
 TN4ah  TX2r  1 3.400000e-01    1.230000e+00
 TN4ar  TX2h  1 3.400000e-01    1.230000e+00
 TN4ah  TX1r  1 3.520000e-01    1.050000e+00
 TN4ar  TX1h  1 3.520000e-01    1.050000e+00
 TN3ah  TC6r  1 3.400000e-01    1.510000e+00
 TN3ar  TC6h  1 3.400000e-01    1.510000e+00
 TN3ah  TC5r  1 3.400000e-01    1.230000e+00
 TN3ar  TC5h  1 3.400000e-01    1.230000e+00
 TN3ah  TC4r  1 3.400000e-01    1.230000e+00
 TN3ar  TC4h  1 3.400000e-01    1.230000e+00
 TN3ah  TC3r  1 3.520000e-01    1.050000e+00
 TN3ar  TC3h  1 3.520000e-01    1.050000e+00
 TN3ah  TC2r  1 3.520000e-01    1.050000e+00
 TN3ar  TC2h  1 3.520000e-01    1.050000e+00
 TN3ah  TC1r  1 3.660000e-01    9.350000e-01
 TN3ar  TC1h  1 3.660000e-01    9.350000e-01
 TN3ah  TX4r  1 3.400000e-01    1.770000e+00
 TN3ar  TX4h  1 3.400000e-01    1.770000e+00
 TN3ah  TX3r  1 3.400000e-01    1.510000e+00
 TN3ar  TX3h  1 3.400000e-01    1.510000e+00
 TN3ah  TX2r  1 3.400000e-01    1.230000e+00
 TN3ar  TX2h  1 3.400000e-01    1.230000e+00
 TN3ah  TX1r  1 3.400000e-01    1.230000e+00
 TN3ar  TX1h  1 3.400000e-01    1.230000e+00
 TN2ah  TC6r  1 3.400000e-01    1.510000e+00
 TN2ar  TC6h  1 3.400000e-01    1.510000e+00
 TN2ah  TC5r  1 3.400000e-01    1.230000e+00
 TN2ar  TC5h  1 3.400000e-01    1.230000e+00
 TN2ah  TC4r  1 3.400000e-01    1.230000e+00
 TN2ar  TC4h  1 3.400000e-01    1.230000e+00
 TN2ah  TC3r  1 3.400000e-01    1.230000e+00
 TN2ar  TC3h  1 3.400000e-01    1.230000e+00
 TN2ah  TC2r  1 3.520000e-01    1.050000e+00
 TN2ar  TC2h  1 3.520000e-01    1.050000e+00
 TN2ah  TC1r  1 3.660000e-01    9.350000e-01
 TN2ar  TC1h  1 3.660000e-01    9.350000e-01
 TN2ah  TX4r  1 3.400000e-01    1.770000e+00
 TN2ar  TX4h  1 3.400000e-01    1.770000e+00
 TN2ah  TX3r  1 3.400000e-01    1.510000e+00
 TN2ar  TX3h  1 3.400000e-01    1.510000e+00
 TN2ah  TX2r  1 3.400000e-01    1.230000e+00
 TN2ar  TX2h  1 3.400000e-01    1.230000e+00
 TN2ah  TX1r  1 3.400000e-01    1.230000e+00
 TN2ar  TX1h  1 3.400000e-01    1.230000e+00
 TN1ah  TC6r  1 3.400000e-01    1.770000e+00
 TN1ar  TC6h  1 3.400000e-01    1.770000e+00
 TN1ah  TC5r  1 3.400000e-01    1.510000e+00
 TN1ar  TC5h  1 3.400000e-01    1.510000e+00
 TN1ah  TC4r  1 3.400000e-01    1.510000e+00
 TN1ar  TC4h  1 3.400000e-01    1.510000e+00
 TN1ah  TC3r  1 3.400000e-01    1.230000e+00
 TN1ar  TC3h  1 3.400000e-01    1.230000e+00
 TN1ah  TC2r  1 3.520000e-01    1.050000e+00
 TN1ar  TC2h  1 3.520000e-01    1.050000e+00
 TN1ah  TC1r  1 3.660000e-01    9.350000e-01
 TN1ar  TC1h  1 3.660000e-01    9.350000e-01
 TN1ah  TX4r  1 3.400000e-01    1.510000e+00
 TN1ar  TX4h  1 3.400000e-01    1.510000e+00
 TN1ah  TX3r  1 3.400000e-01    1.510000e+00
 TN1ar  TX3h  1 3.400000e-01    1.510000e+00
 TN1ah  TX2r  1 3.400000e-01    1.230000e+00
 TN1ar  TX2h  1 3.400000e-01    1.230000e+00
 TN1ah  TX1r  1 3.400000e-01    1.230000e+00
 TN1ar  TX1h  1 3.400000e-01    1.230000e+00
     D     D  1 5.000000e-01    4.090000e+00
     D    SD  1 4.710000e-01    6.560000e+00
     D    TD  1 4.300000e-01    1.000000e+01
    SD    SD  1 4.750000e-01    1.980000e+00
    SD    TD  1 4.550000e-01    2.400000e+00
    TD    TD  1 4.380000e-01    1.100000e+00
     D   Q5n  1 4.700000e-01    5.170000e+00
     D   Q5p  1 4.700000e-01    5.170000e+00
    SD   Q5n  1 4.300000e-01    1.040000e+01
    SD   Q5p  1 4.300000e-01    1.040000e+01
    TD   Q5n  1 4.020000e-01    1.585000e+01
    TD   Q5p  1 4.020000e-01    1.585000e+01
     D  SQ5n  1 4.470000e-01    4.500000e+00
     D  SQ5p  1 4.470000e-01    4.500000e+00
    SD  SQ5n  1 4.190000e-01    6.200000e+00
    SD  SQ5p  1 4.190000e-01    6.200000e+00
    TD  SQ5n  1 3.800000e-01    9.050000e+00
    TD  SQ5p  1 3.800000e-01    9.050000e+00
     D  TQ5n  1 4.250000e-01    4.700000e+00
     D  TQ5p  1 4.250000e-01    4.700000e+00
    SD  TQ5n  1 4.140000e-01    4.000000e+00
    SD  TQ5p  1 4.140000e-01    4.000000e+00
    TD  TQ5n  1 3.790000e-01    2.150000e+00
    TD  TQ5p  1 3.790000e-01    2.150000e+00
     D    Q5  1 4.700000e-01    5.170000e+00
    SD    Q5  1 4.300000e-01    1.040000e+01
    TD    Q5  1 4.020000e-01    1.585000e+01
     D   SQ5  1 4.470000e-01    4.500000e+00
    SD   SQ5  1 4.190000e-01    6.200000e+00
    TD   SQ5  1 3.800000e-01    9.050000e+00
     D   TQ5  1 4.250000e-01    4.700000e+00
    SD   TQ5  1 4.140000e-01    4.000000e+00
    TD   TQ5  1 3.790000e-01    2.150000e+00
    Q5   Q5n  1 4.700000e-01    6.450000e+00
    Q5   Q5p  1 4.700000e-01    6.450000e+00
    Q5  SQ5n  1 4.375000e-01    6.020000e+00
    Q5  SQ5p  1 4.375000e-01    6.020000e+00
    Q5  TQ5n  1 4.050000e-01    6.620000e+00
    Q5  TQ5p  1 4.050000e-01    6.620000e+00
   SQ5   Q5n  1 4.375000e-01    6.020000e+00
   SQ5   Q5p  1 4.375000e-01    6.020000e+00
   TQ5   Q5n  1 4.050000e-01    6.620000e+00
   TQ5   Q5p  1 4.050000e-01    6.620000e+00
   SQ5  SQ5n  1 4.100000e-01    4.620000e+00
   SQ5  SQ5p  1 4.100000e-01    4.620000e+00
   SQ5  TQ5n  1 3.730000e-01    3.600000e+00
   SQ5  TQ5p  1 3.730000e-01    3.600000e+00
   TQ5  SQ5n  1 3.730000e-01    3.600000e+00
   TQ5  SQ5p  1 3.730000e-01    3.600000e+00
   TQ5  TQ5n  1 3.540000e-01    1.180000e+00
   TQ5  TQ5p  1 3.540000e-01    1.180000e+00
    Q5    Q5  1 4.700000e-01    6.450000e+00
    Q5   SQ5  1 4.375000e-01    6.020000e+00
    Q5   TQ5  1 4.050000e-01    6.620000e+00
   Q5n  TQ5n  1 4.050000e-01    6.130000e+00
   Q5p  TQ5p  1 4.050000e-01    6.130000e+00
   Q5p  TQ5n  1 4.050000e-01    6.620000e+00
  TQ5p   Q5n  1 4.050000e-01    6.620000e+00
   Q5p   Q5p  1 4.700000e-01    5.700000e+00
   Q5n   Q5n  1 4.700000e-01    5.700000e+00
   Q5p  SQ5p  1 4.375000e-01    5.550000e+00
   Q5n  SQ5n  1 4.375000e-01    5.550000e+00
   Q5p   Q5n  1 4.700000e-01    6.450000e+00
   Q5p  SQ5n  1 4.375000e-01    6.020000e+00
  SQ5p   Q5n  1 4.375000e-01    6.020000e+00
   SQ5   SQ5  1 4.100000e-01    4.620000e+00
   SQ5   TQ5  1 3.730000e-01    3.600000e+00
  SQ5n  SQ5n  1 4.100000e-01    4.080000e+00
  SQ5p  SQ5p  1 4.100000e-01    4.080000e+00
  SQ5p  SQ5n  1 4.100000e-01    4.620000e+00
  SQ5n  TQ5n  1 3.730000e-01    3.200000e+00
  SQ5p  TQ5p  1 3.730000e-01    3.200000e+00
  SQ5p  TQ5n  1 3.730000e-01    3.600000e+00
  TQ5p  SQ5n  1 3.730000e-01    3.600000e+00
   TQ5   TQ5  1 3.540000e-01    1.180000e+00
  TQ5p  TQ5p  1 3.570000e-01    1.100000e+00
  TQ5n  TQ5n  1 3.570000e-01    1.100000e+00
  TQ5p  TQ5n  1 3.540000e-01    1.180000e+00
     D   Q4n  1 4.700000e-01    4.150000e+00
     D   Q4p  1 4.700000e-01    4.150000e+00
    SD   Q4n  1 4.300000e-01    9.670000e+00
    SD   Q4p  1 4.300000e-01    9.670000e+00
    TD   Q4n  1 4.020000e-01    1.510000e+01
    TD   Q4p  1 4.020000e-01    1.510000e+01
     D  SQ4n  1 4.480000e-01    3.500000e+00
     D  SQ4p  1 4.480000e-01    3.500000e+00
    SD  SQ4n  1 4.200000e-01    5.650000e+00
    SD  SQ4p  1 4.200000e-01    5.650000e+00
    TD  SQ4n  1 3.800000e-01    8.420000e+00
    TD  SQ4p  1 3.800000e-01    8.420000e+00
     D  TQ4n  1 4.270000e-01    3.650000e+00
     D  TQ4p  1 4.270000e-01    3.650000e+00
    SD  TQ4n  1 4.150000e-01    3.300000e+00
    SD  TQ4p  1 4.150000e-01    3.300000e+00
    TD  TQ4n  1 3.820000e-01    1.500000e+00
    TD  TQ4p  1 3.820000e-01    1.500000e+00
     D    Q4  1 4.700000e-01    4.150000e+00
    SD    Q4  1 4.300000e-01    9.670000e+00
    TD    Q4  1 4.020000e-01    1.510000e+01
     D   SQ4  1 4.480000e-01    3.500000e+00
    SD   SQ4  1 4.200000e-01    5.650000e+00
    TD   SQ4  1 3.800000e-01    8.420000e+00
     D   TQ4  1 4.270000e-01    3.650000e+00
    SD   TQ4  1 4.150000e-01    3.300000e+00
    TD   TQ4  1 3.820000e-01    1.500000e+00
    Q4   Q4n  1 4.700000e-01    5.950000e+00
    Q4   Q4p  1 4.700000e-01    5.950000e+00
    Q4  SQ4n  1 4.375000e-01    5.550000e+00
    Q4  SQ4p  1 4.375000e-01    5.550000e+00
    Q4  TQ4n  1 4.050000e-01    6.130000e+00
    Q4  TQ4p  1 4.050000e-01    6.130000e+00
   SQ4   Q4n  1 4.375000e-01    5.550000e+00
   SQ4   Q4p  1 4.375000e-01    5.550000e+00
   TQ4   Q4n  1 4.050000e-01    6.130000e+00
   TQ4   Q4p  1 4.050000e-01    6.130000e+00
    Q5   Q4n  1 4.700000e-01    6.200000e+00
    Q5   Q4p  1 4.700000e-01    6.200000e+00
   SQ5   Q4n  1 4.375000e-01    5.770000e+00
   SQ5   Q4p  1 4.375000e-01    5.770000e+00
   TQ5   Q4n  1 4.050000e-01    6.360000e+00
   TQ5   Q4p  1 4.050000e-01    6.360000e+00
   SQ4  SQ4n  1 4.100000e-01    4.080000e+00
   SQ4  SQ4p  1 4.100000e-01    4.080000e+00
   SQ4  TQ4n  1 3.730000e-01    3.200000e+00
   SQ4  TQ4p  1 3.730000e-01    3.200000e+00
   TQ4  SQ4n  1 3.730000e-01    3.200000e+00
   TQ4  SQ4p  1 3.730000e-01    3.200000e+00
    Q5  SQ4n  1 4.375000e-01    5.770000e+00
    Q5  SQ4p  1 4.375000e-01    5.770000e+00
   SQ5  SQ4n  1 4.100000e-01    4.320000e+00
   SQ5  SQ4p  1 4.100000e-01    4.320000e+00
   TQ5  SQ4n  1 3.730000e-01    3.400000e+00
   TQ5  SQ4p  1 3.730000e-01    3.400000e+00
   TQ4  TQ4n  1 3.610000e-01    9.500000e-01
   TQ4  TQ4p  1 3.610000e-01    9.500000e-01
    Q5  TQ4n  1 4.050000e-01    6.360000e+00
    Q5  TQ4p  1 4.050000e-01    6.360000e+00
   SQ5  TQ4n  1 3.730000e-01    3.400000e+00
   SQ5  TQ4p  1 3.730000e-01    3.400000e+00
   TQ5  TQ4n  1 3.570000e-01    1.080000e+00
   TQ5  TQ4p  1 3.570000e-01    1.080000e+00
    Q4    Q4  1 4.700000e-01    5.950000e+00
    Q4   SQ4  1 4.375000e-01    5.550000e+00
    Q4   TQ4  1 4.050000e-01    6.130000e+00
   Q4n  TQ4n  1 4.050000e-01    5.730000e+00
   Q4p  TQ4p  1 4.050000e-01    5.730000e+00
   Q4p  TQ4n  1 4.050000e-01    6.130000e+00
  TQ4p   Q4n  1 4.050000e-01    6.130000e+00
   Q4p   Q4p  1 4.700000e-01    5.200000e+00
   Q4n   Q4n  1 4.700000e-01    5.200000e+00
   Q4p  SQ4p  1 4.375000e-01    4.940000e+00
   Q4n  SQ4n  1 4.375000e-01    4.940000e+00
   Q4p   Q4n  1 4.700000e-01    5.950000e+00
   Q4p  SQ4n  1 4.375000e-01    5.550000e+00
  SQ4p   Q4n  1 4.375000e-01    5.550000e+00
    Q5    Q4  1 4.700000e-01    6.200000e+00
   Q5p   Q4p  1 4.700000e-01    5.450000e+00
   Q5n   Q4n  1 4.700000e-01    5.450000e+00
   Q5p   Q4n  1 4.700000e-01    6.200000e+00
   Q5n   Q4p  1 4.700000e-01    6.200000e+00
   SQ5    Q4  1 4.375000e-01    5.770000e+00
  SQ5p   Q4p  1 4.375000e-01    5.170000e+00
  SQ5n   Q4n  1 4.375000e-01    5.170000e+00
  SQ5p   Q4n  1 4.375000e-01    5.770000e+00
  SQ5n   Q4p  1 4.375000e-01    5.770000e+00
   TQ5    Q4  1 4.050000e-01    6.360000e+00
  TQ5n   Q4n  1 4.050000e-01    5.930000e+00
  TQ5p   Q4p  1 4.050000e-01    5.930000e+00
  TQ5p   Q4n  1 4.050000e-01    6.360000e+00
  TQ5n   Q4p  1 4.050000e-01    6.360000e+00
   SQ4   SQ4  1 4.100000e-01    4.080000e+00
   SQ4   TQ4  1 3.730000e-01    3.200000e+00
  SQ4n  SQ4n  1 4.100000e-01    3.690000e+00
  SQ4p  SQ4p  1 4.100000e-01    3.690000e+00
  SQ4p  SQ4n  1 4.100000e-01    4.080000e+00
  SQ4n  TQ4n  1 3.730000e-01    2.750000e+00
  SQ4p  TQ4p  1 3.730000e-01    2.750000e+00
  SQ4p  TQ4n  1 3.730000e-01    3.200000e+00
  TQ4p  SQ4n  1 3.730000e-01    3.200000e+00
    Q5   SQ4  1 4.375000e-01    5.770000e+00
   Q5p  SQ4p  1 4.375000e-01    5.170000e+00
   Q5n  SQ4n  1 4.375000e-01    5.170000e+00
   Q5p  SQ4n  1 4.375000e-01    5.770000e+00
   Q5n  SQ4p  1 4.375000e-01    5.770000e+00
   SQ5   SQ4  1 4.100000e-01    4.320000e+00
  SQ5n  SQ4n  1 4.100000e-01    3.850000e+00
  SQ5p  SQ4p  1 4.100000e-01    3.850000e+00
  SQ5p  SQ4n  1 4.100000e-01    4.320000e+00
  SQ5n  SQ4p  1 4.100000e-01    4.320000e+00
   TQ5   SQ4  1 3.730000e-01    3.400000e+00
  TQ5n  SQ4n  1 3.730000e-01    3.000000e+00
  TQ5p  SQ4p  1 3.730000e-01    3.000000e+00
  TQ5p  SQ4n  1 3.730000e-01    3.400000e+00
  TQ5n  SQ4p  1 3.730000e-01    3.400000e+00
   TQ4   TQ4  1 3.610000e-01    9.500000e-01
  TQ4p  TQ4p  1 3.620000e-01    9.000000e-01
  TQ4n  TQ4n  1 3.620000e-01    9.000000e-01
  TQ4p  TQ4n  1 3.610000e-01    9.500000e-01
    Q5   TQ4  1 4.050000e-01    6.360000e+00
   Q5n  TQ4n  1 4.050000e-01    5.930000e+00
   Q5p  TQ4p  1 4.050000e-01    5.930000e+00
   Q5p  TQ4n  1 4.050000e-01    6.360000e+00
   Q5n  TQ4p  1 4.050000e-01    6.360000e+00
   SQ5   TQ4  1 3.730000e-01    3.400000e+00
  SQ5n  TQ4n  1 3.730000e-01    3.000000e+00
  SQ5p  TQ4p  1 3.730000e-01    3.000000e+00
  SQ5p  TQ4n  1 3.730000e-01    3.400000e+00
  SQ5n  TQ4p  1 3.730000e-01    3.400000e+00
   TQ5   TQ4  1 3.570000e-01    1.080000e+00
  TQ5p  TQ4p  1 3.610000e-01    9.500000e-01
  TQ5n  TQ4n  1 3.610000e-01    9.500000e-01
  TQ5p  TQ4n  1 3.570000e-01    1.080000e+00
  TQ5n  TQ4p  1 3.570000e-01    1.080000e+00
   Q5n    Q4  1 4.700000e-01    6.200000e+00
   Q5p    Q4  1 4.700000e-01    6.200000e+00
  SQ5n    Q4  1 4.375000e-01    5.770000e+00
  SQ5p    Q4  1 4.375000e-01    5.770000e+00
  TQ5n    Q4  1 4.050000e-01    6.360000e+00
  TQ5p    Q4  1 4.050000e-01    6.360000e+00
   Q5n   SQ4  1 4.375000e-01    5.770000e+00
   Q5p   SQ4  1 4.375000e-01    5.770000e+00
  SQ5n   SQ4  1 4.100000e-01    4.320000e+00
  SQ5p   SQ4  1 4.100000e-01    4.320000e+00
  TQ5n   SQ4  1 3.730000e-01    3.400000e+00
  TQ5p   SQ4  1 3.730000e-01    3.400000e+00
   Q5n   TQ4  1 4.050000e-01    6.360000e+00
   Q5p   TQ4  1 4.050000e-01    6.360000e+00
  SQ5n   TQ4  1 3.730000e-01    3.400000e+00
  SQ5p   TQ4  1 3.730000e-01    3.400000e+00
  TQ5n   TQ4  1 3.570000e-01    1.080000e+00
  TQ5p   TQ4  1 3.570000e-01    1.080000e+00
     D   Q3n  1 4.700000e-01    3.350000e+00
     D   Q3p  1 4.700000e-01    3.350000e+00
    SD   Q3n  1 4.310000e-01    8.850000e+00
    SD   Q3p  1 4.310000e-01    8.850000e+00
    TD   Q3n  1 4.020000e-01    1.460000e+01
    TD   Q3p  1 4.020000e-01    1.460000e+01
     D  SQ3n  1 4.520000e-01    2.400000e+00
     D  SQ3p  1 4.520000e-01    2.400000e+00
    SD  SQ3n  1 4.210000e-01    5.000000e+00
    SD  SQ3p  1 4.210000e-01    5.000000e+00
    TD  SQ3n  1 3.800000e-01    7.950000e+00
    TD  SQ3p  1 3.800000e-01    7.950000e+00
     D  TQ3n  1 4.330000e-01    3.350000e+00
     D  TQ3p  1 4.330000e-01    3.350000e+00
    SD  TQ3n  1 4.200000e-01    1.800000e+00
    SD  TQ3p  1 4.200000e-01    1.800000e+00
    TD  TQ3n  1 3.880000e-01    1.050000e+00
    TD  TQ3p  1 3.880000e-01    1.050000e+00
     D    Q3  1 4.700000e-01    3.350000e+00
    SD    Q3  1 4.310000e-01    8.850000e+00
    TD    Q3  1 4.020000e-01    1.460000e+01
     D   SQ3  1 4.520000e-01    2.400000e+00
    SD   SQ3  1 4.210000e-01    5.000000e+00
    TD   SQ3  1 3.800000e-01    7.950000e+00
     D   TQ3  1 4.330000e-01    3.350000e+00
    SD   TQ3  1 4.200000e-01    1.800000e+00
    TD   TQ3  1 3.880000e-01    1.050000e+00
    Q3   Q3n  1 4.700000e-01    5.450000e+00
    Q3   Q3p  1 4.700000e-01    5.450000e+00
    Q3  SQ3n  1 4.375000e-01    5.170000e+00
    Q3  SQ3p  1 4.375000e-01    5.170000e+00
    Q3  TQ3n  1 4.050000e-01    5.730000e+00
    Q3  TQ3p  1 4.050000e-01    5.730000e+00
   SQ3   Q3n  1 4.375000e-01    5.170000e+00
   SQ3   Q3p  1 4.375000e-01    5.170000e+00
   TQ3   Q3n  1 4.050000e-01    5.730000e+00
   TQ3   Q3p  1 4.050000e-01    5.730000e+00
    Q5   Q3n  1 4.700000e-01    5.700000e+00
    Q5   Q3p  1 4.700000e-01    5.700000e+00
   SQ5   Q3n  1 4.375000e-01    5.350000e+00
   SQ5   Q3p  1 4.375000e-01    5.350000e+00
   TQ5   Q3n  1 4.050000e-01    5.930000e+00
   TQ5   Q3p  1 4.050000e-01    5.930000e+00
    Q4   Q3n  1 4.700000e-01    5.450000e+00
    Q4   Q3p  1 4.700000e-01    5.450000e+00
   SQ4   Q3n  1 4.375000e-01    5.170000e+00
   SQ4   Q3p  1 4.375000e-01    5.170000e+00
   TQ4   Q3n  1 4.050000e-01    5.730000e+00
   TQ4   Q3p  1 4.050000e-01    5.730000e+00
   SQ3  SQ3n  1 4.100000e-01    3.690000e+00
   SQ3  SQ3p  1 4.100000e-01    3.690000e+00
   SQ3  TQ3n  1 3.730000e-01    2.750000e+00
   SQ3  TQ3p  1 3.730000e-01    2.750000e+00
   TQ3  SQ3n  1 3.730000e-01    2.750000e+00
   TQ3  SQ3p  1 3.730000e-01    2.750000e+00
    Q5  SQ3n  1 4.375000e-01    5.350000e+00
    Q5  SQ3p  1 4.375000e-01    5.350000e+00
   SQ5  SQ3n  1 4.100000e-01    3.850000e+00
   SQ5  SQ3p  1 4.100000e-01    3.850000e+00
   TQ5  SQ3n  1 3.730000e-01    3.000000e+00
   TQ5  SQ3p  1 3.730000e-01    3.000000e+00
    Q4  SQ3n  1 4.375000e-01    5.170000e+00
    Q4  SQ3p  1 4.375000e-01    5.170000e+00
   SQ4  SQ3n  1 4.100000e-01    3.690000e+00
   SQ4  SQ3p  1 4.100000e-01    3.690000e+00
   TQ4  SQ3n  1 3.730000e-01    2.750000e+00
   TQ4  SQ3p  1 3.730000e-01    2.750000e+00
   TQ3  TQ3n  1 3.640000e-01    8.500000e-01
   TQ3  TQ3p  1 3.640000e-01    8.500000e-01
    Q5  TQ3n  1 4.050000e-01    5.930000e+00
    Q5  TQ3p  1 4.050000e-01    5.930000e+00
   SQ5  TQ3n  1 3.730000e-01    3.000000e+00
   SQ5  TQ3p  1 3.730000e-01    3.000000e+00
   TQ5  TQ3n  1 3.620000e-01    9.000000e-01
   TQ5  TQ3p  1 3.620000e-01    9.000000e-01
    Q4  TQ3n  1 4.050000e-01    5.730000e+00
    Q4  TQ3p  1 4.050000e-01    5.730000e+00
   SQ4  TQ3n  1 3.730000e-01    2.750000e+00
   SQ4  TQ3p  1 3.730000e-01    2.750000e+00
   TQ4  TQ3n  1 3.640000e-01    8.500000e-01
   TQ4  TQ3p  1 3.640000e-01    8.500000e-01
    Q3    Q3  1 4.700000e-01    5.450000e+00
    Q3   SQ3  1 4.375000e-01    5.170000e+00
    Q3   TQ3  1 4.050000e-01    5.730000e+00
   Q3n  TQ3n  1 4.050000e-01    5.280000e+00
   Q3p  TQ3p  1 4.050000e-01    5.280000e+00
   Q3p  TQ3n  1 4.050000e-01    5.730000e+00
  TQ3p   Q3n  1 4.050000e-01    5.730000e+00
   Q3p   Q3p  1 4.700000e-01    4.700000e+00
   Q3n   Q3n  1 4.700000e-01    4.700000e+00
   Q3p  SQ3p  1 4.375000e-01    4.530000e+00
   Q3n  SQ3n  1 4.375000e-01    4.530000e+00
   Q3p   Q3n  1 4.700000e-01    5.450000e+00
   Q3p  SQ3n  1 4.375000e-01    5.170000e+00
  SQ3p   Q3n  1 4.375000e-01    5.170000e+00
    Q5    Q3  1 4.700000e-01    5.700000e+00
   Q5p   Q3p  1 4.700000e-01    4.950000e+00
   Q5n   Q3n  1 4.700000e-01    4.950000e+00
   Q5p   Q3n  1 4.700000e-01    5.700000e+00
   Q5n   Q3p  1 4.700000e-01    5.700000e+00
   SQ5    Q3  1 4.375000e-01    5.350000e+00
  SQ5p   Q3p  1 4.375000e-01    4.710000e+00
  SQ5n   Q3n  1 4.375000e-01    4.710000e+00
  SQ5p   Q3n  1 4.375000e-01    5.350000e+00
  SQ5n   Q3p  1 4.375000e-01    5.350000e+00
   TQ5    Q3  1 4.050000e-01    5.930000e+00
  TQ5n   Q3n  1 4.050000e-01    5.500000e+00
  TQ5p   Q3p  1 4.050000e-01    5.500000e+00
  TQ5p   Q3n  1 4.050000e-01    5.930000e+00
  TQ5n   Q3p  1 4.050000e-01    5.930000e+00
    Q4    Q3  1 4.700000e-01    5.450000e+00
   Q4p   Q3p  1 4.700000e-01    4.700000e+00
   Q4n   Q3n  1 4.700000e-01    4.700000e+00
   Q4p   Q3n  1 4.700000e-01    5.450000e+00
   Q4n   Q3p  1 4.700000e-01    5.450000e+00
   SQ4    Q3  1 4.375000e-01    5.170000e+00
  SQ4p   Q3p  1 4.375000e-01    4.530000e+00
  SQ4n   Q3n  1 4.375000e-01    4.530000e+00
  SQ4p   Q3n  1 4.375000e-01    5.170000e+00
  SQ4n   Q3p  1 4.375000e-01    5.170000e+00
   TQ4    Q3  1 4.050000e-01    5.730000e+00
  TQ4n   Q3n  1 4.050000e-01    5.280000e+00
  TQ4p   Q3p  1 4.050000e-01    5.280000e+00
  TQ4p   Q3n  1 4.050000e-01    5.730000e+00
  TQ4n   Q3p  1 4.050000e-01    5.730000e+00
   SQ3   SQ3  1 4.100000e-01    3.690000e+00
   SQ3   TQ3  1 3.730000e-01    2.750000e+00
  SQ3n  SQ3n  1 4.100000e-01    3.310000e+00
  SQ3p  SQ3p  1 4.100000e-01    3.310000e+00
  SQ3p  SQ3n  1 4.100000e-01    3.690000e+00
  SQ3n  TQ3n  1 3.730000e-01    2.220000e+00
  SQ3p  TQ3p  1 3.730000e-01    2.220000e+00
  SQ3p  TQ3n  1 3.730000e-01    2.750000e+00
  TQ3p  SQ3n  1 3.730000e-01    2.750000e+00
    Q5   SQ3  1 4.375000e-01    5.350000e+00
   Q5p  SQ3p  1 4.375000e-01    4.710000e+00
   Q5n  SQ3n  1 4.375000e-01    4.710000e+00
   Q5p  SQ3n  1 4.375000e-01    5.350000e+00
   Q5n  SQ3p  1 4.375000e-01    5.350000e+00
   SQ5   SQ3  1 4.100000e-01    3.850000e+00
  SQ5n  SQ3n  1 4.100000e-01    3.510000e+00
  SQ5p  SQ3p  1 4.100000e-01    3.510000e+00
  SQ5p  SQ3n  1 4.100000e-01    3.850000e+00
  SQ5n  SQ3p  1 4.100000e-01    3.850000e+00
   TQ5   SQ3  1 3.730000e-01    3.000000e+00
  TQ5n  SQ3n  1 3.730000e-01    2.500000e+00
  TQ5p  SQ3p  1 3.730000e-01    2.500000e+00
  TQ5p  SQ3n  1 3.730000e-01    3.000000e+00
  TQ5n  SQ3p  1 3.730000e-01    3.000000e+00
    Q4   SQ3  1 4.375000e-01    5.170000e+00
   Q4p  SQ3p  1 4.375000e-01    4.530000e+00
   Q4n  SQ3n  1 4.375000e-01    4.530000e+00
   Q4p  SQ3n  1 4.375000e-01    5.170000e+00
   Q4n  SQ3p  1 4.375000e-01    5.170000e+00
   SQ4   SQ3  1 4.100000e-01    3.690000e+00
  SQ4n  SQ3n  1 4.100000e-01    3.310000e+00
  SQ4p  SQ3p  1 4.100000e-01    3.310000e+00
  SQ4p  SQ3n  1 4.100000e-01    3.690000e+00
  SQ4n  SQ3p  1 4.100000e-01    3.690000e+00
   TQ4   SQ3  1 3.730000e-01    2.750000e+00
  TQ4n  SQ3n  1 3.730000e-01    2.220000e+00
  TQ4p  SQ3p  1 3.730000e-01    2.220000e+00
  TQ4p  SQ3n  1 3.730000e-01    2.750000e+00
  TQ4n  SQ3p  1 3.730000e-01    2.750000e+00
   TQ3   TQ3  1 3.640000e-01    8.500000e-01
  TQ3p  TQ3p  1 3.658000e-01    8.180000e-01
  TQ3n  TQ3n  1 3.658000e-01    8.180000e-01
  TQ3p  TQ3n  1 3.640000e-01    8.500000e-01
    Q5   TQ3  1 4.050000e-01    5.930000e+00
   Q5n  TQ3n  1 4.050000e-01    5.500000e+00
   Q5p  TQ3p  1 4.050000e-01    5.500000e+00
   Q5p  TQ3n  1 4.050000e-01    5.930000e+00
   Q5n  TQ3p  1 4.050000e-01    5.930000e+00
   SQ5   TQ3  1 3.730000e-01    3.000000e+00
  SQ5n  TQ3n  1 3.730000e-01    2.500000e+00
  SQ5p  TQ3p  1 3.730000e-01    2.500000e+00
  SQ5p  TQ3n  1 3.730000e-01    3.000000e+00
  SQ5n  TQ3p  1 3.730000e-01    3.000000e+00
   TQ5   TQ3  1 3.620000e-01    9.000000e-01
  TQ5p  TQ3p  1 3.640000e-01    8.500000e-01
  TQ5n  TQ3n  1 3.640000e-01    8.500000e-01
  TQ5p  TQ3n  1 3.620000e-01    9.000000e-01
  TQ5n  TQ3p  1 3.620000e-01    9.000000e-01
    Q4   TQ3  1 4.050000e-01    5.730000e+00
   Q4n  TQ3n  1 4.050000e-01    5.280000e+00
   Q4p  TQ3p  1 4.050000e-01    5.280000e+00
   Q4p  TQ3n  1 4.050000e-01    5.730000e+00
   Q4n  TQ3p  1 4.050000e-01    5.730000e+00
   SQ4   TQ3  1 3.730000e-01    2.750000e+00
  SQ4n  TQ3n  1 3.730000e-01    2.220000e+00
  SQ4p  TQ3p  1 3.730000e-01    2.220000e+00
  SQ4p  TQ3n  1 3.730000e-01    2.750000e+00
  SQ4n  TQ3p  1 3.730000e-01    2.750000e+00
   TQ4   TQ3  1 3.640000e-01    8.500000e-01
  TQ4p  TQ3p  1 3.658000e-01    8.180000e-01
  TQ4n  TQ3n  1 3.658000e-01    8.180000e-01
  TQ4p  TQ3n  1 3.640000e-01    8.500000e-01
  TQ4n  TQ3p  1 3.640000e-01    8.500000e-01
   Q5n    Q3  1 4.700000e-01    5.700000e+00
   Q5p    Q3  1 4.700000e-01    5.700000e+00
  SQ5n    Q3  1 4.375000e-01    5.350000e+00
  SQ5p    Q3  1 4.375000e-01    5.350000e+00
  TQ5n    Q3  1 4.050000e-01    5.930000e+00
  TQ5p    Q3  1 4.050000e-01    5.930000e+00
   Q4n    Q3  1 4.700000e-01    5.450000e+00
   Q4p    Q3  1 4.700000e-01    5.450000e+00
  SQ4n    Q3  1 4.375000e-01    5.170000e+00
  SQ4p    Q3  1 4.375000e-01    5.170000e+00
  TQ4n    Q3  1 4.050000e-01    5.730000e+00
  TQ4p    Q3  1 4.050000e-01    5.730000e+00
   Q5n   SQ3  1 4.375000e-01    5.350000e+00
   Q5p   SQ3  1 4.375000e-01    5.350000e+00
  SQ5n   SQ3  1 4.100000e-01    3.850000e+00
  SQ5p   SQ3  1 4.100000e-01    3.850000e+00
  TQ5n   SQ3  1 3.730000e-01    3.000000e+00
  TQ5p   SQ3  1 3.730000e-01    3.000000e+00
   Q4n   SQ3  1 4.375000e-01    5.170000e+00
   Q4p   SQ3  1 4.375000e-01    5.170000e+00
  SQ4n   SQ3  1 4.100000e-01    3.690000e+00
  SQ4p   SQ3  1 4.100000e-01    3.690000e+00
  TQ4n   SQ3  1 3.730000e-01    2.750000e+00
  TQ4p   SQ3  1 3.730000e-01    2.750000e+00
   Q5n   TQ3  1 4.050000e-01    5.930000e+00
   Q5p   TQ3  1 4.050000e-01    5.930000e+00
  SQ5n   TQ3  1 3.730000e-01    3.000000e+00
  SQ5p   TQ3  1 3.730000e-01    3.000000e+00
  TQ5n   TQ3  1 3.620000e-01    9.000000e-01
  TQ5p   TQ3  1 3.620000e-01    9.000000e-01
   Q4n   TQ3  1 4.050000e-01    5.730000e+00
   Q4p   TQ3  1 4.050000e-01    5.730000e+00
  SQ4n   TQ3  1 3.730000e-01    2.750000e+00
  SQ4p   TQ3  1 3.730000e-01    2.750000e+00
  TQ4n   TQ3  1 3.640000e-01    8.500000e-01
  TQ4p   TQ3  1 3.640000e-01    8.500000e-01
     D   Q2n  1 4.800000e-01    2.750000e+00
     D   Q2p  1 4.800000e-01    2.750000e+00
    SD   Q2n  1 4.620000e-01    2.300000e+00
    SD   Q2p  1 4.370000e-01    8.300000e+00
    TD   Q2n  1 4.020000e-01    1.375000e+01
    TD   Q2p  1 4.020000e-01    1.375000e+01
     D  SQ2n  1 4.620000e-01    2.300000e+00
     D  SQ2p  1 4.620000e-01    2.300000e+00
    SD  SQ2n  1 4.210000e-01    4.300000e+00
    SD  SQ2p  1 4.210000e-01    4.300000e+00
    TD  SQ2n  1 3.800000e-01    7.250000e+00
    TD  SQ2p  1 3.800000e-01    7.250000e+00
     D  TQ2n  1 4.380000e-01    1.750000e+00
     D  TQ2p  1 4.380000e-01    1.750000e+00
    SD  TQ2n  1 4.290000e-01    1.200000e+00
    SD  TQ2p  1 4.290000e-01    1.200000e+00
    TD  TQ2n  1 3.890000e-01    1.000000e+00
    TD  TQ2p  1 3.890000e-01    1.000000e+00
     D    Q2  1 4.800000e-01    2.750000e+00
    SD    Q2  1 4.370000e-01    8.300000e+00
    TD    Q2  1 4.020000e-01    1.375000e+01
     D   SQ2  1 4.620000e-01    2.300000e+00
    SD   SQ2  1 4.210000e-01    4.300000e+00
    TD   SQ2  1 3.800000e-01    7.250000e+00
     D   TQ2  1 4.380000e-01    1.750000e+00
    SD   TQ2  1 4.290000e-01    1.200000e+00
    TD   TQ2  1 3.890000e-01    1.000000e+00
    Q2   Q2n  1 4.700000e-01    4.700000e+00
    Q2   Q2p  1 4.700000e-01    4.700000e+00
    Q2  SQ2n  1 4.375000e-01    4.530000e+00
    Q2  SQ2p  1 4.375000e-01    4.530000e+00
    Q2  TQ2n  1 4.050000e-01    5.080000e+00
    Q2  TQ2p  1 4.050000e-01    5.080000e+00
   SQ2   Q2n  1 4.375000e-01    4.530000e+00
   SQ2   Q2p  1 4.375000e-01    4.530000e+00
   TQ2   Q2n  1 4.050000e-01    5.080000e+00
   TQ2   Q2p  1 4.050000e-01    5.080000e+00
    Q5   Q2n  1 4.700000e-01    4.450000e+00
    Q5   Q2p  1 4.700000e-01    4.450000e+00
   SQ5   Q2n  1 4.375000e-01    4.250000e+00
   SQ5   Q2p  1 4.375000e-01    4.250000e+00
   TQ5   Q2n  1 4.050000e-01    4.880000e+00
   TQ5   Q2p  1 4.050000e-01    4.880000e+00
    Q4   Q2n  1 4.700000e-01    4.450000e+00
    Q4   Q2p  1 4.700000e-01    4.450000e+00
   SQ4   Q2n  1 4.375000e-01    4.250000e+00
   SQ4   Q2p  1 4.375000e-01    4.250000e+00
   TQ4   Q2n  1 4.050000e-01    4.880000e+00
   TQ4   Q2p  1 4.050000e-01    4.880000e+00
    Q3   Q2n  1 4.700000e-01    4.700000e+00
    Q3   Q2p  1 4.700000e-01    4.700000e+00
   SQ3   Q2n  1 4.375000e-01    4.530000e+00
   SQ3   Q2p  1 4.375000e-01    4.530000e+00
   TQ3   Q2n  1 4.050000e-01    5.080000e+00
   TQ3   Q2p  1 4.050000e-01    5.080000e+00
   SQ2  SQ2n  1 4.100000e-01    3.100000e+00
   SQ2  SQ2p  1 4.100000e-01    3.100000e+00
   SQ2  TQ2n  1 3.750000e-01    1.900000e+00
   SQ2  TQ2p  1 3.750000e-01    1.900000e+00
   TQ2  SQ2n  1 3.750000e-01    1.900000e+00
   TQ2  SQ2p  1 3.750000e-01    1.900000e+00
    Q5  SQ2n  1 4.375000e-01    4.250000e+00
    Q5  SQ2p  1 4.375000e-01    4.250000e+00
   SQ5  SQ2n  1 4.100000e-01    2.800000e+00
   SQ5  SQ2p  1 4.100000e-01    2.800000e+00
   TQ5  SQ2n  1 3.765000e-01    1.500000e+00
   TQ5  SQ2p  1 3.765000e-01    1.500000e+00
    Q4  SQ2n  1 4.375000e-01    4.250000e+00
    Q4  SQ2p  1 4.375000e-01    4.250000e+00
   SQ4  SQ2n  1 4.100000e-01    2.800000e+00
   SQ4  SQ2p  1 4.100000e-01    2.800000e+00
   TQ4  SQ2n  1 3.765000e-01    1.500000e+00
   TQ4  SQ2p  1 3.765000e-01    1.500000e+00
    Q3  SQ2n  1 4.375000e-01    4.530000e+00
    Q3  SQ2p  1 4.375000e-01    4.530000e+00
   SQ3  SQ2n  1 4.100000e-01    3.100000e+00
   SQ3  SQ2p  1 4.100000e-01    3.100000e+00
   TQ3  SQ2n  1 3.750000e-01    1.900000e+00
   TQ3  SQ2p  1 3.750000e-01    1.900000e+00
   TQ2  TQ2n  1 3.705000e-01    7.480000e-01
   TQ2  TQ2p  1 3.705000e-01    7.480000e-01
    Q5  TQ2n  1 4.050000e-01    4.880000e+00
    Q5  TQ2p  1 4.050000e-01    4.880000e+00
   SQ5  TQ2n  1 3.765000e-01    1.500000e+00
   SQ5  TQ2p  1 3.765000e-01    1.500000e+00
   TQ5  TQ2n  1 3.725000e-01    7.250000e-01
   TQ5  TQ2p  1 3.725000e-01    7.250000e-01
    Q4  TQ2n  1 4.050000e-01    4.880000e+00
    Q4  TQ2p  1 4.050000e-01    4.880000e+00
   SQ4  TQ2n  1 3.765000e-01    1.500000e+00
   SQ4  TQ2p  1 3.765000e-01    1.500000e+00
   TQ4  TQ2n  1 3.725000e-01    7.250000e-01
   TQ4  TQ2p  1 3.725000e-01    7.250000e-01
    Q3  TQ2n  1 4.050000e-01    5.080000e+00
    Q3  TQ2p  1 4.050000e-01    5.080000e+00
   SQ3  TQ2n  1 3.750000e-01    1.900000e+00
   SQ3  TQ2p  1 3.750000e-01    1.900000e+00
   TQ3  TQ2n  1 3.705000e-01    7.480000e-01
   TQ3  TQ2p  1 3.705000e-01    7.480000e-01
    Q2    Q2  1 4.700000e-01    4.700000e+00
    Q2   SQ2  1 4.375000e-01    4.530000e+00
    Q2   TQ2  1 4.050000e-01    5.080000e+00
   Q2n  TQ2n  1 4.050000e-01    4.680000e+00
   Q2p  TQ2p  1 4.050000e-01    4.680000e+00
   Q2p  TQ2n  1 4.050000e-01    5.080000e+00
  TQ2p   Q2n  1 4.050000e-01    5.080000e+00
   Q2p   Q2p  1 4.700000e-01    4.000000e+00
   Q2n   Q2n  1 4.700000e-01    4.000000e+00
   Q2p  SQ2p  1 4.375000e-01    3.720000e+00
   Q2n  SQ2n  1 4.375000e-01    3.720000e+00
   Q2p   Q2n  1 4.700000e-01    4.700000e+00
   Q2p  SQ2n  1 4.375000e-01    4.530000e+00
  SQ2p   Q2n  1 4.375000e-01    4.530000e+00
    Q5    Q2  1 4.700000e-01    4.450000e+00
   Q5p   Q2p  1 4.700000e-01    3.980000e+00
   Q5n   Q2n  1 4.700000e-01    3.980000e+00
   Q5p   Q2n  1 4.700000e-01    4.450000e+00
   Q5n   Q2p  1 4.700000e-01    4.450000e+00
   SQ5    Q2  1 4.375000e-01    4.250000e+00
  SQ5p   Q2p  1 4.375000e-01    3.320000e+00
  SQ5n   Q2n  1 4.375000e-01    3.320000e+00
  SQ5p   Q2n  1 4.375000e-01    4.250000e+00
  SQ5n   Q2p  1 4.375000e-01    4.250000e+00
   TQ5    Q2  1 4.050000e-01    4.880000e+00
  TQ5n   Q2n  1 4.050000e-01    4.400000e+00
  TQ5p   Q2p  1 4.050000e-01    4.400000e+00
  TQ5p   Q2n  1 4.050000e-01    4.880000e+00
  TQ5n   Q2p  1 4.050000e-01    4.880000e+00
    Q4    Q2  1 4.700000e-01    4.450000e+00
   Q4p   Q2p  1 4.700000e-01    3.980000e+00
   Q4n   Q2n  1 4.700000e-01    3.980000e+00
   Q4p   Q2n  1 4.700000e-01    4.450000e+00
   Q4n   Q2p  1 4.700000e-01    4.450000e+00
   SQ4    Q2  1 4.375000e-01    4.250000e+00
  SQ4p   Q2p  1 4.375000e-01    3.320000e+00
  SQ4n   Q2n  1 4.375000e-01    3.320000e+00
  SQ4p   Q2n  1 4.375000e-01    4.250000e+00
  SQ4n   Q2p  1 4.375000e-01    4.250000e+00
   TQ4    Q2  1 4.050000e-01    4.880000e+00
  TQ4n   Q2n  1 4.050000e-01    4.400000e+00
  TQ4p   Q2p  1 4.050000e-01    4.400000e+00
  TQ4p   Q2n  1 4.050000e-01    4.880000e+00
  TQ4n   Q2p  1 4.050000e-01    4.880000e+00
    Q3    Q2  1 4.700000e-01    4.700000e+00
   Q3p   Q2p  1 4.700000e-01    4.000000e+00
   Q3n   Q2n  1 4.700000e-01    4.000000e+00
   Q3p   Q2n  1 4.700000e-01    4.700000e+00
   Q3n   Q2p  1 4.700000e-01    4.700000e+00
   SQ3    Q2  1 4.375000e-01    4.530000e+00
  SQ3p   Q2p  1 4.375000e-01    3.720000e+00
  SQ3n   Q2n  1 4.375000e-01    3.720000e+00
  SQ3p   Q2n  1 4.375000e-01    4.530000e+00
  SQ3n   Q2p  1 4.375000e-01    4.530000e+00
   TQ3    Q2  1 4.050000e-01    5.080000e+00
  TQ3n   Q2n  1 4.050000e-01    4.680000e+00
  TQ3p   Q2p  1 4.050000e-01    4.680000e+00
  TQ3p   Q2n  1 4.050000e-01    5.080000e+00
  TQ3n   Q2p  1 4.050000e-01    5.080000e+00
   SQ2   SQ2  1 4.100000e-01    3.100000e+00
   SQ2   TQ2  1 3.750000e-01    1.900000e+00
  SQ2n  SQ2n  1 4.100000e-01    2.520000e+00
  SQ2p  SQ2p  1 4.100000e-01    2.520000e+00
  SQ2p  SQ2n  1 4.100000e-01    3.100000e+00
  SQ2n  TQ2n  1 3.780000e-01    1.350000e+00
  SQ2p  TQ2p  1 3.780000e-01    1.350000e+00
  SQ2p  TQ2n  1 3.750000e-01    1.900000e+00
  TQ2p  SQ2n  1 3.750000e-01    1.900000e+00
    Q5   SQ2  1 4.375000e-01    4.250000e+00
   Q5p  SQ2p  1 4.375000e-01    3.320000e+00
   Q5n  SQ2n  1 4.375000e-01    3.320000e+00
   Q5p  SQ2n  1 4.375000e-01    4.250000e+00
   Q5n  SQ2p  1 4.375000e-01    4.250000e+00
   SQ5   SQ2  1 4.100000e-01    2.800000e+00
  SQ5n  SQ2n  1 4.110000e-01    2.240000e+00
  SQ5p  SQ2p  1 4.110000e-01    2.240000e+00
  SQ5p  SQ2n  1 4.100000e-01    2.800000e+00
  SQ5n  SQ2p  1 4.100000e-01    2.800000e+00
   TQ5   SQ2  1 3.765000e-01    1.500000e+00
  TQ5n  SQ2n  1 3.840000e-01    1.300000e+00
  TQ5p  SQ2p  1 3.840000e-01    1.300000e+00
  TQ5p  SQ2n  1 3.765000e-01    1.500000e+00
  TQ5n  SQ2p  1 3.765000e-01    1.500000e+00
    Q4   SQ2  1 4.375000e-01    4.250000e+00
   Q4p  SQ2p  1 4.375000e-01    3.320000e+00
   Q4n  SQ2n  1 4.375000e-01    3.320000e+00
   Q4p  SQ2n  1 4.375000e-01    4.250000e+00
   Q4n  SQ2p  1 4.375000e-01    4.250000e+00
   SQ4   SQ2  1 4.100000e-01    2.800000e+00
  SQ4n  SQ2n  1 4.110000e-01    2.240000e+00
  SQ4p  SQ2p  1 4.110000e-01    2.240000e+00
  SQ4p  SQ2n  1 4.100000e-01    2.800000e+00
  SQ4n  SQ2p  1 4.100000e-01    2.800000e+00
   TQ4   SQ2  1 3.765000e-01    1.500000e+00
  TQ4n  SQ2n  1 3.840000e-01    1.300000e+00
  TQ4p  SQ2p  1 3.840000e-01    1.300000e+00
  TQ4p  SQ2n  1 3.765000e-01    1.500000e+00
  TQ4n  SQ2p  1 3.765000e-01    1.500000e+00
    Q3   SQ2  1 4.375000e-01    4.530000e+00
   Q3p  SQ2p  1 4.375000e-01    3.720000e+00
   Q3n  SQ2n  1 4.375000e-01    3.720000e+00
   Q3p  SQ2n  1 4.375000e-01    4.530000e+00
   Q3n  SQ2p  1 4.375000e-01    4.530000e+00
   SQ3   SQ2  1 4.100000e-01    3.100000e+00
  SQ3n  SQ2n  1 4.100000e-01    2.520000e+00
  SQ3p  SQ2p  1 4.100000e-01    2.520000e+00
  SQ3p  SQ2n  1 4.100000e-01    3.100000e+00
  SQ3n  SQ2p  1 4.100000e-01    3.100000e+00
   TQ3   SQ2  1 3.750000e-01    1.900000e+00
  TQ3n  SQ2n  1 3.780000e-01    1.350000e+00
  TQ3p  SQ2p  1 3.780000e-01    1.350000e+00
  TQ3p  SQ2n  1 3.750000e-01    1.900000e+00
  TQ3n  SQ2p  1 3.750000e-01    1.900000e+00
   TQ2   TQ2  1 3.705000e-01    7.480000e-01
  TQ2p  TQ2p  1 3.725000e-01    7.250000e-01
  TQ2n  TQ2n  1 3.725000e-01    7.250000e-01
  TQ2p  TQ2n  1 3.705000e-01    7.480000e-01
    Q5   TQ2  1 4.050000e-01    4.880000e+00
   Q5n  TQ2n  1 4.050000e-01    4.400000e+00
   Q5p  TQ2p  1 4.050000e-01    4.400000e+00
   Q5p  TQ2n  1 4.050000e-01    4.880000e+00
   Q5n  TQ2p  1 4.050000e-01    4.880000e+00
   SQ5   TQ2  1 3.765000e-01    1.500000e+00
  SQ5n  TQ2n  1 3.840000e-01    1.300000e+00
  SQ5p  TQ2p  1 3.840000e-01    1.300000e+00
  SQ5p  TQ2n  1 3.765000e-01    1.500000e+00
  SQ5n  TQ2p  1 3.765000e-01    1.500000e+00
   TQ5   TQ2  1 3.725000e-01    7.250000e-01
  TQ5p  TQ2p  1 3.795000e-01    6.500000e-01
  TQ5n  TQ2n  1 3.795000e-01    6.500000e-01
  TQ5p  TQ2n  1 3.725000e-01    7.250000e-01
  TQ5n  TQ2p  1 3.725000e-01    7.250000e-01
    Q4   TQ2  1 4.050000e-01    4.880000e+00
   Q4n  TQ2n  1 4.050000e-01    4.400000e+00
   Q4p  TQ2p  1 4.050000e-01    4.400000e+00
   Q4p  TQ2n  1 4.050000e-01    4.880000e+00
   Q4n  TQ2p  1 4.050000e-01    4.880000e+00
   SQ4   TQ2  1 3.765000e-01    1.500000e+00
  SQ4n  TQ2n  1 3.840000e-01    1.300000e+00
  SQ4p  TQ2p  1 3.840000e-01    1.300000e+00
  SQ4p  TQ2n  1 3.765000e-01    1.500000e+00
  SQ4n  TQ2p  1 3.765000e-01    1.500000e+00
   TQ4   TQ2  1 3.725000e-01    7.250000e-01
  TQ4p  TQ2p  1 3.795000e-01    6.500000e-01
  TQ4n  TQ2n  1 3.795000e-01    6.500000e-01
  TQ4p  TQ2n  1 3.725000e-01    7.250000e-01
  TQ4n  TQ2p  1 3.725000e-01    7.250000e-01
    Q3   TQ2  1 4.050000e-01    5.080000e+00
   Q3n  TQ2n  1 4.050000e-01    4.680000e+00
   Q3p  TQ2p  1 4.050000e-01    4.680000e+00
   Q3p  TQ2n  1 4.050000e-01    5.080000e+00
   Q3n  TQ2p  1 4.050000e-01    5.080000e+00
   SQ3   TQ2  1 3.750000e-01    1.900000e+00
  SQ3n  TQ2n  1 3.780000e-01    1.350000e+00
  SQ3p  TQ2p  1 3.780000e-01    1.350000e+00
  SQ3p  TQ2n  1 3.750000e-01    1.900000e+00
  SQ3n  TQ2p  1 3.750000e-01    1.900000e+00
   TQ3   TQ2  1 3.705000e-01    7.480000e-01
  TQ3p  TQ2p  1 3.725000e-01    7.250000e-01
  TQ3n  TQ2n  1 3.725000e-01    7.250000e-01
  TQ3p  TQ2n  1 3.705000e-01    7.480000e-01
  TQ3n  TQ2p  1 3.705000e-01    7.480000e-01
   Q5n    Q2  1 4.700000e-01    4.450000e+00
   Q5p    Q2  1 4.700000e-01    4.450000e+00
  SQ5n    Q2  1 4.375000e-01    4.250000e+00
  SQ5p    Q2  1 4.375000e-01    4.250000e+00
  TQ5n    Q2  1 4.050000e-01    4.880000e+00
  TQ5p    Q2  1 4.050000e-01    4.880000e+00
   Q4n    Q2  1 4.700000e-01    4.450000e+00
   Q4p    Q2  1 4.700000e-01    4.450000e+00
  SQ4n    Q2  1 4.375000e-01    4.250000e+00
  SQ4p    Q2  1 4.375000e-01    4.250000e+00
  TQ4n    Q2  1 4.050000e-01    4.880000e+00
  TQ4p    Q2  1 4.050000e-01    4.880000e+00
   Q3n    Q2  1 4.700000e-01    4.700000e+00
   Q3p    Q2  1 4.700000e-01    4.700000e+00
  SQ3n    Q2  1 4.375000e-01    4.530000e+00
  SQ3p    Q2  1 4.375000e-01    4.530000e+00
  TQ3n    Q2  1 4.050000e-01    5.080000e+00
  TQ3p    Q2  1 4.050000e-01    5.080000e+00
   Q5n   SQ2  1 4.375000e-01    4.250000e+00
   Q5p   SQ2  1 4.375000e-01    4.250000e+00
  SQ5n   SQ2  1 4.100000e-01    2.800000e+00
  SQ5p   SQ2  1 4.100000e-01    2.800000e+00
  TQ5n   SQ2  1 3.765000e-01    1.500000e+00
  TQ5p   SQ2  1 3.765000e-01    1.500000e+00
   Q4n   SQ2  1 4.375000e-01    4.250000e+00
   Q4p   SQ2  1 4.375000e-01    4.250000e+00
  SQ4n   SQ2  1 4.100000e-01    2.800000e+00
  SQ4p   SQ2  1 4.100000e-01    2.800000e+00
  TQ4n   SQ2  1 3.765000e-01    1.500000e+00
  TQ4p   SQ2  1 3.765000e-01    1.500000e+00
   Q3n   SQ2  1 4.375000e-01    4.530000e+00
   Q3p   SQ2  1 4.375000e-01    4.530000e+00
  SQ3n   SQ2  1 4.100000e-01    3.100000e+00
  SQ3p   SQ2  1 4.100000e-01    3.100000e+00
  TQ3n   SQ2  1 3.750000e-01    1.900000e+00
  TQ3p   SQ2  1 3.750000e-01    1.900000e+00
   Q5n   TQ2  1 4.050000e-01    4.880000e+00
   Q5p   TQ2  1 4.050000e-01    4.880000e+00
  SQ5n   TQ2  1 3.765000e-01    1.500000e+00
  SQ5p   TQ2  1 3.765000e-01    1.500000e+00
  TQ5n   TQ2  1 3.725000e-01    7.250000e-01
  TQ5p   TQ2  1 3.725000e-01    7.250000e-01
   Q4n   TQ2  1 4.050000e-01    4.880000e+00
   Q4p   TQ2  1 4.050000e-01    4.880000e+00
  SQ4n   TQ2  1 3.765000e-01    1.500000e+00
  SQ4p   TQ2  1 3.765000e-01    1.500000e+00
  TQ4n   TQ2  1 3.725000e-01    7.250000e-01
  TQ4p   TQ2  1 3.725000e-01    7.250000e-01
   Q3n   TQ2  1 4.050000e-01    5.080000e+00
   Q3p   TQ2  1 4.050000e-01    5.080000e+00
  SQ3n   TQ2  1 3.750000e-01    1.900000e+00
  SQ3p   TQ2  1 3.750000e-01    1.900000e+00
  TQ3n   TQ2  1 3.705000e-01    7.480000e-01
  TQ3p   TQ2  1 3.705000e-01    7.480000e-01
     D   Q1n  1 4.900000e-01    2.370000e+00
     D   Q1p  1 4.900000e-01    2.370000e+00
    SD   Q1n  1 4.380000e-01    7.650000e+00
    SD   Q1p  1 4.380000e-01    7.650000e+00
    TD   Q1n  1 4.030000e-01    1.320000e+01
    TD   Q1p  1 4.030000e-01    1.320000e+01
     D  SQ1n  1 4.710000e-01    1.200000e+00
     D  SQ1p  1 4.710000e-01    1.200000e+00
    SD  SQ1n  1 4.220000e-01    3.400000e+00
    SD  SQ1p  1 4.220000e-01    3.400000e+00
    TD  SQ1n  1 3.800000e-01    6.650000e+00
    TD  SQ1p  1 3.800000e-01    6.650000e+00
     D  TQ1n  1 4.490000e-01    1.100000e+00
     D  TQ1p  1 4.490000e-01    1.100000e+00
    SD  TQ1n  1 4.330000e-01    1.100000e+00
    SD  TQ1p  1 4.330000e-01    1.100000e+00
    TD  TQ1n  1 3.920000e-01    9.500000e-01
    TD  TQ1p  1 3.920000e-01    9.500000e-01
     D    Q1  1 4.900000e-01    2.370000e+00
    SD    Q1  1 4.380000e-01    7.650000e+00
    TD    Q1  1 4.030000e-01    1.320000e+01
     D   SQ1  1 4.710000e-01    1.200000e+00
    SD   SQ1  1 4.220000e-01    3.400000e+00
    TD   SQ1  1 3.800000e-01    6.650000e+00
     D   TQ1  1 4.490000e-01    1.100000e+00
    SD   TQ1  1 4.330000e-01    1.100000e+00
    TD   TQ1  1 3.920000e-01    9.500000e-01
    Q1   Q1n  1 4.700000e-01    3.980000e+00
    Q1   Q1p  1 4.700000e-01    3.980000e+00
    Q1  SQ1n  1 4.375000e-01    3.720000e+00
    Q1  SQ1p  1 4.375000e-01    3.720000e+00
    Q1  TQ1n  1 4.050000e-01    4.400000e+00
    Q1  TQ1p  1 4.050000e-01    4.400000e+00
   SQ1   Q1n  1 4.375000e-01    3.720000e+00
   SQ1   Q1p  1 4.375000e-01    3.720000e+00
   TQ1   Q1n  1 4.050000e-01    4.400000e+00
   TQ1   Q1p  1 4.050000e-01    4.400000e+00
    Q5   Q1n  1 4.700000e-01    3.790000e+00
    Q5   Q1p  1 4.700000e-01    3.790000e+00
   SQ5   Q1n  1 4.375000e-01    3.320000e+00
   SQ5   Q1p  1 4.375000e-01    3.320000e+00
   TQ5   Q1n  1 4.050000e-01    4.150000e+00
   TQ5   Q1p  1 4.050000e-01    4.150000e+00
    Q4   Q1n  1 4.700000e-01    3.790000e+00
    Q4   Q1p  1 4.700000e-01    3.790000e+00
   SQ4   Q1n  1 4.375000e-01    3.320000e+00
   SQ4   Q1p  1 4.375000e-01    3.320000e+00
   TQ4   Q1n  1 4.050000e-01    4.150000e+00
   TQ4   Q1p  1 4.050000e-01    4.150000e+00
    Q3   Q1n  1 4.700000e-01    3.790000e+00
    Q3   Q1p  1 4.700000e-01    3.790000e+00
   SQ3   Q1n  1 4.375000e-01    3.320000e+00
   SQ3   Q1p  1 4.375000e-01    3.320000e+00
   TQ3   Q1n  1 4.050000e-01    4.150000e+00
   TQ3   Q1p  1 4.050000e-01    4.150000e+00
    Q2   Q1n  1 4.700000e-01    3.980000e+00
    Q2   Q1p  1 4.700000e-01    3.980000e+00
   SQ2   Q1n  1 4.375000e-01    3.720000e+00
   SQ2   Q1p  1 4.375000e-01    3.720000e+00
   TQ2   Q1n  1 4.050000e-01    4.400000e+00
   TQ2   Q1p  1 4.050000e-01    4.400000e+00
   SQ1  SQ1n  1 4.110000e-01    2.240000e+00
   SQ1  SQ1p  1 4.110000e-01    2.240000e+00
   SQ1  TQ1n  1 3.840000e-01    1.300000e+00
   SQ1  TQ1p  1 3.840000e-01    1.300000e+00
   TQ1  SQ1n  1 3.840000e-01    1.300000e+00
   TQ1  SQ1p  1 3.840000e-01    1.300000e+00
    Q5  SQ1n  1 4.375000e-01    3.320000e+00
    Q5  SQ1p  1 4.375000e-01    3.320000e+00
   SQ5  SQ1n  1 4.130000e-01    1.960000e+00
   SQ5  SQ1p  1 4.130000e-01    1.960000e+00
   TQ5  SQ1n  1 3.850000e-01    1.250000e+00
   TQ5  SQ1p  1 3.850000e-01    1.250000e+00
    Q4  SQ1n  1 4.375000e-01    3.320000e+00
    Q4  SQ1p  1 4.375000e-01    3.320000e+00
   SQ4  SQ1n  1 4.130000e-01    1.960000e+00
   SQ4  SQ1p  1 4.130000e-01    1.960000e+00
   TQ4  SQ1n  1 3.850000e-01    1.250000e+00
   TQ4  SQ1p  1 3.850000e-01    1.250000e+00
    Q3  SQ1n  1 4.375000e-01    3.320000e+00
    Q3  SQ1p  1 4.375000e-01    3.320000e+00
   SQ3  SQ1n  1 4.130000e-01    1.960000e+00
   SQ3  SQ1p  1 4.130000e-01    1.960000e+00
   TQ3  SQ1n  1 3.850000e-01    1.250000e+00
   TQ3  SQ1p  1 3.850000e-01    1.250000e+00
    Q2  SQ1n  1 4.375000e-01    3.720000e+00
    Q2  SQ1p  1 4.375000e-01    3.720000e+00
   SQ2  SQ1n  1 4.110000e-01    2.240000e+00
   SQ2  SQ1p  1 4.110000e-01    2.240000e+00
   TQ2  SQ1n  1 3.840000e-01    1.300000e+00
   TQ2  SQ1p  1 3.840000e-01    1.300000e+00
   TQ1  TQ1n  1 3.830000e-01    5.250000e-01
   TQ1  TQ1p  1 3.830000e-01    5.250000e-01
    Q5  TQ1n  1 4.050000e-01    4.150000e+00
    Q5  TQ1p  1 4.050000e-01    4.150000e+00
   SQ5  TQ1n  1 3.850000e-01    1.250000e+00
   SQ5  TQ1p  1 3.850000e-01    1.250000e+00
   TQ5  TQ1n  1 3.845000e-01    5.000000e-01
   TQ5  TQ1p  1 3.845000e-01    5.000000e-01
    Q4  TQ1n  1 4.050000e-01    4.150000e+00
    Q4  TQ1p  1 4.050000e-01    4.150000e+00
   SQ4  TQ1n  1 3.850000e-01    1.250000e+00
   SQ4  TQ1p  1 3.850000e-01    1.250000e+00
   TQ4  TQ1n  1 3.845000e-01    5.000000e-01
   TQ4  TQ1p  1 3.845000e-01    5.000000e-01
    Q3  TQ1n  1 4.050000e-01    4.150000e+00
    Q3  TQ1p  1 4.050000e-01    4.150000e+00
   SQ3  TQ1n  1 3.850000e-01    1.250000e+00
   SQ3  TQ1p  1 3.850000e-01    1.250000e+00
   TQ3  TQ1n  1 3.845000e-01    5.000000e-01
   TQ3  TQ1p  1 3.845000e-01    5.000000e-01
    Q2  TQ1n  1 4.050000e-01    4.400000e+00
    Q2  TQ1p  1 4.050000e-01    4.400000e+00
   SQ2  TQ1n  1 3.840000e-01    1.300000e+00
   SQ2  TQ1p  1 3.840000e-01    1.300000e+00
   TQ2  TQ1n  1 3.830000e-01    5.250000e-01
   TQ2  TQ1p  1 3.830000e-01    5.250000e-01
    Q1    Q1  1 4.700000e-01    3.980000e+00
    Q1   SQ1  1 4.375000e-01    3.720000e+00
    Q1   TQ1  1 4.050000e-01    4.400000e+00
   Q1n  TQ1n  1 4.050000e-01    3.950000e+00
   Q1p  TQ1p  1 4.050000e-01    3.950000e+00
   Q1p  TQ1n  1 4.050000e-01    4.400000e+00
  TQ1p   Q1n  1 4.050000e-01    4.400000e+00
   Q1p   Q1p  1 4.700000e-01    3.600000e+00
   Q1n   Q1n  1 4.700000e-01    3.600000e+00
   Q1p  SQ1p  1 4.378000e-01    3.020000e+00
   Q1n  SQ1n  1 4.378000e-01    3.020000e+00
   Q1p   Q1n  1 4.700000e-01    3.980000e+00
   Q1p  SQ1n  1 4.375000e-01    3.720000e+00
  SQ1p   Q1n  1 4.375000e-01    3.720000e+00
    Q5    Q1  1 4.700000e-01    3.790000e+00
   Q5p   Q1p  1 4.700000e-01    3.600000e+00
   Q5n   Q1n  1 4.700000e-01    3.600000e+00
   Q5p   Q1n  1 4.700000e-01    3.790000e+00
   Q5n   Q1p  1 4.700000e-01    3.790000e+00
   SQ5    Q1  1 4.375000e-01    3.320000e+00
  SQ5p   Q1p  1 4.378000e-01    3.020000e+00
  SQ5n   Q1n  1 4.378000e-01    3.020000e+00
  SQ5p   Q1n  1 4.375000e-01    3.320000e+00
  SQ5n   Q1p  1 4.375000e-01    3.320000e+00
   TQ5    Q1  1 4.050000e-01    4.150000e+00
  TQ5n   Q1n  1 4.050000e-01    3.950000e+00
  TQ5p   Q1p  1 4.050000e-01    3.950000e+00
  TQ5p   Q1n  1 4.050000e-01    4.150000e+00
  TQ5n   Q1p  1 4.050000e-01    4.150000e+00
    Q4    Q1  1 4.700000e-01    3.790000e+00
   Q4p   Q1p  1 4.700000e-01    3.600000e+00
   Q4n   Q1n  1 4.700000e-01    3.600000e+00
   Q4p   Q1n  1 4.700000e-01    3.790000e+00
   Q4n   Q1p  1 4.700000e-01    3.790000e+00
   SQ4    Q1  1 4.375000e-01    3.320000e+00
  SQ4p   Q1p  1 4.378000e-01    3.020000e+00
  SQ4n   Q1n  1 4.378000e-01    3.020000e+00
  SQ4p   Q1n  1 4.375000e-01    3.320000e+00
  SQ4n   Q1p  1 4.375000e-01    3.320000e+00
   TQ4    Q1  1 4.050000e-01    4.150000e+00
  TQ4n   Q1n  1 4.050000e-01    3.950000e+00
  TQ4p   Q1p  1 4.050000e-01    3.950000e+00
  TQ4p   Q1n  1 4.050000e-01    4.150000e+00
  TQ4n   Q1p  1 4.050000e-01    4.150000e+00
    Q3    Q1  1 4.700000e-01    3.790000e+00
   Q3p   Q1p  1 4.700000e-01    3.600000e+00
   Q3n   Q1n  1 4.700000e-01    3.600000e+00
   Q3p   Q1n  1 4.700000e-01    3.790000e+00
   Q3n   Q1p  1 4.700000e-01    3.790000e+00
   SQ3    Q1  1 4.375000e-01    3.320000e+00
  SQ3p   Q1p  1 4.378000e-01    3.020000e+00
  SQ3n   Q1n  1 4.378000e-01    3.020000e+00
  SQ3p   Q1n  1 4.375000e-01    3.320000e+00
  SQ3n   Q1p  1 4.375000e-01    3.320000e+00
   TQ3    Q1  1 4.050000e-01    4.150000e+00
  TQ3n   Q1n  1 4.050000e-01    3.950000e+00
  TQ3p   Q1p  1 4.050000e-01    3.950000e+00
  TQ3p   Q1n  1 4.050000e-01    4.150000e+00
  TQ3n   Q1p  1 4.050000e-01    4.150000e+00
    Q2    Q1  1 4.700000e-01    3.980000e+00
   Q2p   Q1p  1 4.700000e-01    3.600000e+00
   Q2n   Q1n  1 4.700000e-01    3.600000e+00
   Q2p   Q1n  1 4.700000e-01    3.980000e+00
   Q2n   Q1p  1 4.700000e-01    3.980000e+00
   SQ2    Q1  1 4.375000e-01    3.720000e+00
  SQ2p   Q1p  1 4.378000e-01    3.020000e+00
  SQ2n   Q1n  1 4.378000e-01    3.020000e+00
  SQ2p   Q1n  1 4.375000e-01    3.720000e+00
  SQ2n   Q1p  1 4.375000e-01    3.720000e+00
   TQ2    Q1  1 4.050000e-01    4.400000e+00
  TQ2n   Q1n  1 4.050000e-01    3.950000e+00
  TQ2p   Q1p  1 4.050000e-01    3.950000e+00
  TQ2p   Q1n  1 4.050000e-01    4.400000e+00
  TQ2n   Q1p  1 4.050000e-01    4.400000e+00
   SQ1   SQ1  1 4.110000e-01    2.240000e+00
   SQ1   TQ1  1 3.840000e-01    1.300000e+00
  SQ1n  SQ1n  1 4.140000e-01    1.670000e+00
  SQ1p  SQ1p  1 4.140000e-01    1.670000e+00
  SQ1p  SQ1n  1 4.110000e-01    2.240000e+00
  SQ1n  TQ1n  1 3.940000e-01    1.200000e+00
  SQ1p  TQ1p  1 3.940000e-01    1.200000e+00
  SQ1p  TQ1n  1 3.840000e-01    1.300000e+00
  TQ1p  SQ1n  1 3.840000e-01    1.300000e+00
    Q5   SQ1  1 4.375000e-01    3.320000e+00
   Q5p  SQ1p  1 4.378000e-01    3.020000e+00
   Q5n  SQ1n  1 4.378000e-01    3.020000e+00
   Q5p  SQ1n  1 4.375000e-01    3.320000e+00
   Q5n  SQ1p  1 4.375000e-01    3.320000e+00
   SQ5   SQ1  1 4.130000e-01    1.960000e+00
  SQ5n  SQ1n  1 4.140000e-01    1.670000e+00
  SQ5p  SQ1p  1 4.140000e-01    1.670000e+00
  SQ5p  SQ1n  1 4.130000e-01    1.960000e+00
  SQ5n  SQ1p  1 4.130000e-01    1.960000e+00
   TQ5   SQ1  1 3.850000e-01    1.250000e+00
  TQ5n  SQ1n  1 3.940000e-01    1.200000e+00
  TQ5p  SQ1p  1 3.940000e-01    1.200000e+00
  TQ5p  SQ1n  1 3.850000e-01    1.250000e+00
  TQ5n  SQ1p  1 3.850000e-01    1.250000e+00
    Q4   SQ1  1 4.375000e-01    3.320000e+00
   Q4p  SQ1p  1 4.378000e-01    3.020000e+00
   Q4n  SQ1n  1 4.378000e-01    3.020000e+00
   Q4p  SQ1n  1 4.375000e-01    3.320000e+00
   Q4n  SQ1p  1 4.375000e-01    3.320000e+00
   SQ4   SQ1  1 4.130000e-01    1.960000e+00
  SQ4n  SQ1n  1 4.140000e-01    1.670000e+00
  SQ4p  SQ1p  1 4.140000e-01    1.670000e+00
  SQ4p  SQ1n  1 4.130000e-01    1.960000e+00
  SQ4n  SQ1p  1 4.130000e-01    1.960000e+00
   TQ4   SQ1  1 3.850000e-01    1.250000e+00
  TQ4n  SQ1n  1 3.940000e-01    1.200000e+00
  TQ4p  SQ1p  1 3.940000e-01    1.200000e+00
  TQ4p  SQ1n  1 3.850000e-01    1.250000e+00
  TQ4n  SQ1p  1 3.850000e-01    1.250000e+00
    Q3   SQ1  1 4.375000e-01    3.320000e+00
   Q3p  SQ1p  1 4.378000e-01    3.020000e+00
   Q3n  SQ1n  1 4.378000e-01    3.020000e+00
   Q3p  SQ1n  1 4.375000e-01    3.320000e+00
   Q3n  SQ1p  1 4.375000e-01    3.320000e+00
   SQ3   SQ1  1 4.130000e-01    1.960000e+00
  SQ3n  SQ1n  1 4.140000e-01    1.670000e+00
  SQ3p  SQ1p  1 4.140000e-01    1.670000e+00
  SQ3p  SQ1n  1 4.130000e-01    1.960000e+00
  SQ3n  SQ1p  1 4.130000e-01    1.960000e+00
   TQ3   SQ1  1 3.850000e-01    1.250000e+00
  TQ3n  SQ1n  1 3.940000e-01    1.200000e+00
  TQ3p  SQ1p  1 3.940000e-01    1.200000e+00
  TQ3p  SQ1n  1 3.850000e-01    1.250000e+00
  TQ3n  SQ1p  1 3.850000e-01    1.250000e+00
    Q2   SQ1  1 4.375000e-01    3.720000e+00
   Q2p  SQ1p  1 4.378000e-01    3.020000e+00
   Q2n  SQ1n  1 4.378000e-01    3.020000e+00
   Q2p  SQ1n  1 4.375000e-01    3.720000e+00
   Q2n  SQ1p  1 4.375000e-01    3.720000e+00
   SQ2   SQ1  1 4.110000e-01    2.240000e+00
  SQ2n  SQ1n  1 4.140000e-01    1.670000e+00
  SQ2p  SQ1p  1 4.140000e-01    1.670000e+00
  SQ2p  SQ1n  1 4.110000e-01    2.240000e+00
  SQ2n  SQ1p  1 4.110000e-01    2.240000e+00
   TQ2   SQ1  1 3.840000e-01    1.300000e+00
  TQ2n  SQ1n  1 3.940000e-01    1.200000e+00
  TQ2p  SQ1p  1 3.940000e-01    1.200000e+00
  TQ2p  SQ1n  1 3.840000e-01    1.300000e+00
  TQ2n  SQ1p  1 3.840000e-01    1.300000e+00
   TQ1   TQ1  1 3.830000e-01    5.250000e-01
  TQ1p  TQ1p  1 3.845000e-01    5.000000e-01
  TQ1n  TQ1n  1 3.845000e-01    5.000000e-01
  TQ1p  TQ1n  1 3.830000e-01    5.250000e-01
    Q5   TQ1  1 4.050000e-01    4.150000e+00
   Q5n  TQ1n  1 4.050000e-01    3.950000e+00
   Q5p  TQ1p  1 4.050000e-01    3.950000e+00
   Q5p  TQ1n  1 4.050000e-01    4.150000e+00
   Q5n  TQ1p  1 4.050000e-01    4.150000e+00
   SQ5   TQ1  1 3.850000e-01    1.250000e+00
  SQ5n  TQ1n  1 3.940000e-01    1.200000e+00
  SQ5p  TQ1p  1 3.940000e-01    1.200000e+00
  SQ5p  TQ1n  1 3.850000e-01    1.250000e+00
  SQ5n  TQ1p  1 3.850000e-01    1.250000e+00
   TQ5   TQ1  1 3.845000e-01    5.000000e-01
  TQ5p  TQ1p  1 3.845000e-01    5.000000e-01
  TQ5n  TQ1n  1 3.845000e-01    5.000000e-01
  TQ5p  TQ1n  1 3.845000e-01    5.000000e-01
  TQ5n  TQ1p  1 3.845000e-01    5.000000e-01
    Q4   TQ1  1 4.050000e-01    4.150000e+00
   Q4n  TQ1n  1 4.050000e-01    3.950000e+00
   Q4p  TQ1p  1 4.050000e-01    3.950000e+00
   Q4p  TQ1n  1 4.050000e-01    4.150000e+00
   Q4n  TQ1p  1 4.050000e-01    4.150000e+00
   SQ4   TQ1  1 3.850000e-01    1.250000e+00
  SQ4n  TQ1n  1 3.940000e-01    1.200000e+00
  SQ4p  TQ1p  1 3.940000e-01    1.200000e+00
  SQ4p  TQ1n  1 3.850000e-01    1.250000e+00
  SQ4n  TQ1p  1 3.850000e-01    1.250000e+00
   TQ4   TQ1  1 3.845000e-01    5.000000e-01
  TQ4p  TQ1p  1 3.845000e-01    5.000000e-01
  TQ4n  TQ1n  1 3.845000e-01    5.000000e-01
  TQ4p  TQ1n  1 3.845000e-01    5.000000e-01
  TQ4n  TQ1p  1 3.845000e-01    5.000000e-01
    Q3   TQ1  1 4.050000e-01    4.150000e+00
   Q3n  TQ1n  1 4.050000e-01    3.950000e+00
   Q3p  TQ1p  1 4.050000e-01    3.950000e+00
   Q3p  TQ1n  1 4.050000e-01    4.150000e+00
   Q3n  TQ1p  1 4.050000e-01    4.150000e+00
   SQ3   TQ1  1 3.850000e-01    1.250000e+00
  SQ3n  TQ1n  1 3.940000e-01    1.200000e+00
  SQ3p  TQ1p  1 3.940000e-01    1.200000e+00
  SQ3p  TQ1n  1 3.850000e-01    1.250000e+00
  SQ3n  TQ1p  1 3.850000e-01    1.250000e+00
   TQ3   TQ1  1 3.845000e-01    5.000000e-01
  TQ3p  TQ1p  1 3.845000e-01    5.000000e-01
  TQ3n  TQ1n  1 3.845000e-01    5.000000e-01
  TQ3p  TQ1n  1 3.845000e-01    5.000000e-01
  TQ3n  TQ1p  1 3.845000e-01    5.000000e-01
    Q2   TQ1  1 4.050000e-01    4.400000e+00
   Q2n  TQ1n  1 4.050000e-01    3.950000e+00
   Q2p  TQ1p  1 4.050000e-01    3.950000e+00
   Q2p  TQ1n  1 4.050000e-01    4.400000e+00
   Q2n  TQ1p  1 4.050000e-01    4.400000e+00
   SQ2   TQ1  1 3.840000e-01    1.300000e+00
  SQ2n  TQ1n  1 3.940000e-01    1.200000e+00
  SQ2p  TQ1p  1 3.940000e-01    1.200000e+00
  SQ2p  TQ1n  1 3.840000e-01    1.300000e+00
  SQ2n  TQ1p  1 3.840000e-01    1.300000e+00
   TQ2   TQ1  1 3.830000e-01    5.250000e-01
  TQ2p  TQ1p  1 3.845000e-01    5.000000e-01
  TQ2n  TQ1n  1 3.845000e-01    5.000000e-01
  TQ2p  TQ1n  1 3.830000e-01    5.250000e-01
  TQ2n  TQ1p  1 3.830000e-01    5.250000e-01
   Q5n    Q1  1 4.700000e-01    3.790000e+00
   Q5p    Q1  1 4.700000e-01    3.790000e+00
  SQ5n    Q1  1 4.375000e-01    3.320000e+00
  SQ5p    Q1  1 4.375000e-01    3.320000e+00
  TQ5n    Q1  1 4.050000e-01    4.150000e+00
  TQ5p    Q1  1 4.050000e-01    4.150000e+00
   Q4n    Q1  1 4.700000e-01    3.790000e+00
   Q4p    Q1  1 4.700000e-01    3.790000e+00
  SQ4n    Q1  1 4.375000e-01    3.320000e+00
  SQ4p    Q1  1 4.375000e-01    3.320000e+00
  TQ4n    Q1  1 4.050000e-01    4.150000e+00
  TQ4p    Q1  1 4.050000e-01    4.150000e+00
   Q3n    Q1  1 4.700000e-01    3.790000e+00
   Q3p    Q1  1 4.700000e-01    3.790000e+00
  SQ3n    Q1  1 4.375000e-01    3.320000e+00
  SQ3p    Q1  1 4.375000e-01    3.320000e+00
  TQ3n    Q1  1 4.050000e-01    4.150000e+00
  TQ3p    Q1  1 4.050000e-01    4.150000e+00
   Q2n    Q1  1 4.700000e-01    3.980000e+00
   Q2p    Q1  1 4.700000e-01    3.980000e+00
  SQ2n    Q1  1 4.375000e-01    3.720000e+00
  SQ2p    Q1  1 4.375000e-01    3.720000e+00
  TQ2n    Q1  1 4.050000e-01    4.400000e+00
  TQ2p    Q1  1 4.050000e-01    4.400000e+00
   Q5n   SQ1  1 4.375000e-01    3.320000e+00
   Q5p   SQ1  1 4.375000e-01    3.320000e+00
  SQ5n   SQ1  1 4.130000e-01    1.960000e+00
  SQ5p   SQ1  1 4.130000e-01    1.960000e+00
  TQ5n   SQ1  1 3.850000e-01    1.250000e+00
  TQ5p   SQ1  1 3.850000e-01    1.250000e+00
   Q4n   SQ1  1 4.375000e-01    3.320000e+00
   Q4p   SQ1  1 4.375000e-01    3.320000e+00
  SQ4n   SQ1  1 4.130000e-01    1.960000e+00
  SQ4p   SQ1  1 4.130000e-01    1.960000e+00
  TQ4n   SQ1  1 3.850000e-01    1.250000e+00
  TQ4p   SQ1  1 3.850000e-01    1.250000e+00
   Q3n   SQ1  1 4.375000e-01    3.320000e+00
   Q3p   SQ1  1 4.375000e-01    3.320000e+00
  SQ3n   SQ1  1 4.130000e-01    1.960000e+00
  SQ3p   SQ1  1 4.130000e-01    1.960000e+00
  TQ3n   SQ1  1 3.850000e-01    1.250000e+00
  TQ3p   SQ1  1 3.850000e-01    1.250000e+00
   Q2n   SQ1  1 4.375000e-01    3.720000e+00
   Q2p   SQ1  1 4.375000e-01    3.720000e+00
  SQ2n   SQ1  1 4.110000e-01    2.240000e+00
  SQ2p   SQ1  1 4.110000e-01    2.240000e+00
  TQ2n   SQ1  1 3.840000e-01    1.300000e+00
  TQ2p   SQ1  1 3.840000e-01    1.300000e+00
   Q5n   TQ1  1 4.050000e-01    4.150000e+00
   Q5p   TQ1  1 4.050000e-01    4.150000e+00
  SQ5n   TQ1  1 3.850000e-01    1.250000e+00
  SQ5p   TQ1  1 3.850000e-01    1.250000e+00
  TQ5n   TQ1  1 3.845000e-01    5.000000e-01
  TQ5p   TQ1  1 3.845000e-01    5.000000e-01
   Q4n   TQ1  1 4.050000e-01    4.150000e+00
   Q4p   TQ1  1 4.050000e-01    4.150000e+00
  SQ4n   TQ1  1 3.850000e-01    1.250000e+00
  SQ4p   TQ1  1 3.850000e-01    1.250000e+00
  TQ4n   TQ1  1 3.845000e-01    5.000000e-01
  TQ4p   TQ1  1 3.845000e-01    5.000000e-01
   Q3n   TQ1  1 4.050000e-01    4.150000e+00
   Q3p   TQ1  1 4.050000e-01    4.150000e+00
  SQ3n   TQ1  1 3.850000e-01    1.250000e+00
  SQ3p   TQ1  1 3.850000e-01    1.250000e+00
  TQ3n   TQ1  1 3.845000e-01    5.000000e-01
  TQ3p   TQ1  1 3.845000e-01    5.000000e-01
   Q2n   TQ1  1 4.050000e-01    4.400000e+00
   Q2p   TQ1  1 4.050000e-01    4.400000e+00
  SQ2n   TQ1  1 3.840000e-01    1.300000e+00
  SQ2p   TQ1  1 3.840000e-01    1.300000e+00
  TQ2n   TQ1  1 3.830000e-01    5.250000e-01
  TQ2p   TQ1  1 3.830000e-01    5.250000e-01
     W    P6  1 4.650000e-01    4.750000e+00
    SW    P6  1 4.350000e-01    3.880000e+00
    TW    P6  1 3.950000e-01    3.410000e+00
     W   SP6  1 4.250000e-01    4.530000e+00
    SW   SP6  1 4.050000e-01    3.730000e+00
    TW   SP6  1 3.780000e-01    3.290000e+00
     W   TP6  1 3.850000e-01    4.630000e+00
    SW   TP6  1 3.750000e-01    3.650000e+00
    TW   TP6  1 3.450000e-01    3.300000e+00
     W    P5  1 4.650000e-01    4.750000e+00
    SW    P5  1 4.350000e-01    3.880000e+00
    TW    P5  1 3.950000e-01    3.410000e+00
     W   SP5  1 4.250000e-01    4.530000e+00
    SW   SP5  1 4.050000e-01    3.730000e+00
    TW   SP5  1 3.780000e-01    3.290000e+00
     W   TP5  1 3.850000e-01    4.630000e+00
    SW   TP5  1 3.750000e-01    3.650000e+00
    TW   TP5  1 3.450000e-01    3.300000e+00
     W    P4  1 4.650000e-01    4.520000e+00
    SW    P4  1 4.350000e-01    3.640000e+00
    TW    P4  1 3.950000e-01    3.210000e+00
     W   SP4  1 4.250000e-01    4.240000e+00
    SW   SP4  1 4.050000e-01    3.460000e+00
    TW   SP4  1 3.780000e-01    3.100000e+00
     W   TP4  1 3.850000e-01    4.300000e+00
    SW   TP4  1 3.750000e-01    3.340000e+00
    TW   TP4  1 3.450000e-01    3.060000e+00
     W    P3  1 4.650000e-01    4.330000e+00
    SW    P3  1 4.350000e-01    3.440000e+00
    TW    P3  1 3.950000e-01    3.020000e+00
     W   SP3  1 4.250000e-01    4.030000e+00
    SW   SP3  1 4.050000e-01    3.220000e+00
    TW   SP3  1 3.780000e-01    2.910000e+00
     W   TP3  1 3.850000e-01    3.730000e+00
    SW   TP3  1 3.750000e-01    3.030000e+00
    TW   TP3  1 3.450000e-01    2.840000e+00
     W    P2  1 4.650000e-01    4.330000e+00
    SW    P2  1 4.350000e-01    3.440000e+00
    TW    P2  1 3.950000e-01    3.020000e+00
     W   SP2  1 4.250000e-01    4.030000e+00
    SW   SP2  1 4.050000e-01    3.220000e+00
    TW   SP2  1 3.780000e-01    2.910000e+00
     W   TP2  1 3.850000e-01    3.730000e+00
    SW   TP2  1 3.750000e-01    3.030000e+00
    TW   TP2  1 3.450000e-01    2.840000e+00
     W    P1  1 4.650000e-01    4.140000e+00
    SW    P1  1 4.350000e-01    3.240000e+00
    TW    P1  1 3.950000e-01    2.840000e+00
     W   SP1  1 4.250000e-01    3.830000e+00
    SW   SP1  1 4.050000e-01    3.000000e+00
    TW   SP1  1 3.780000e-01    2.720000e+00
     W   TP1  1 3.850000e-01    3.420000e+00
    SW   TP1  1 3.750000e-01    2.720000e+00
    TW   TP1  1 3.450000e-01    2.600000e+00
     W    N6  1 4.650000e-01    4.140000e+00
    SW    N6  1 4.350000e-01    3.240000e+00
    TW    N6  1 3.950000e-01    2.840000e+00
     W   SN6  1 4.250000e-01    3.830000e+00
    SW   SN6  1 4.050000e-01    3.000000e+00
    TW   SN6  1 3.780000e-01    2.720000e+00
     W   TN6  1 3.850000e-01    3.420000e+00
    SW   TN6  1 3.750000e-01    2.720000e+00
    TW   TN6  1 3.450000e-01    2.600000e+00
     W    N5  1 4.650000e-01    3.950000e+00
    SW    N5  1 4.350000e-01    3.050000e+00
    TW    N5  1 3.950000e-01    2.670000e+00
     W   SN5  1 4.250000e-01    3.600000e+00
    SW   SN5  1 4.050000e-01    2.780000e+00
    TW   SN5  1 3.780000e-01    2.530000e+00
     W   TN5  1 3.850000e-01    3.100000e+00
    SW   TN5  1 3.750000e-01    2.430000e+00
    TW   TN5  1 3.450000e-01    2.370000e+00
     W    N4  1 4.650000e-01    3.700000e+00
    SW    N4  1 4.350000e-01    2.860000e+00
    TW    N4  1 3.950000e-01    2.510000e+00
     W   SN4  1 4.250000e-01    3.270000e+00
    SW   SN4  1 4.050000e-01    2.560000e+00
    TW   SN4  1 3.780000e-01    2.340000e+00
     W   TN4  1 3.850000e-01    2.780000e+00
    SW   TN4  1 3.750000e-01    2.150000e+00
    TW   TN4  1 3.450000e-01    2.140000e+00
     W    N3  1 4.650000e-01    3.700000e+00
    SW    N3  1 4.350000e-01    2.860000e+00
    TW    N3  1 3.950000e-01    2.510000e+00
     W   SN3  1 4.250000e-01    3.270000e+00
    SW   SN3  1 4.050000e-01    2.560000e+00
    TW   SN3  1 3.780000e-01    2.340000e+00
     W   TN3  1 3.850000e-01    2.780000e+00
    SW   TN3  1 3.750000e-01    2.150000e+00
    TW   TN3  1 3.450000e-01    2.140000e+00
     W    N2  1 4.650000e-01    3.290000e+00
    SW    N2  1 4.350000e-01    2.480000e+00
    TW    N2  1 3.950000e-01    2.190000e+00
     W   SN2  1 4.250000e-01    2.740000e+00
    SW   SN2  1 4.050000e-01    2.120000e+00
    TW   SN2  1 3.780000e-01    1.960000e+00
     W   TN2  1 3.850000e-01    2.180000e+00
    SW   TN2  1 3.750000e-01    1.620000e+00
    TW   TN2  1 3.510000e-01    1.680000e+00
     W    N1  1 4.650000e-01    3.040000e+00
    SW    N1  1 4.350000e-01    2.290000e+00
    TW    N1  1 3.950000e-01    2.030000e+00
     W   SN1  1 4.250000e-01    2.510000e+00
    SW   SN1  1 4.050000e-01    1.900000e+00
    TW   SN1  1 3.780000e-01    1.780000e+00
     W   TN1  1 3.850000e-01    1.860000e+00
    SW   TN1  1 3.750000e-01    1.370000e+00
    TW   TN1  1 3.510000e-01    1.470000e+00
     W    C6  1 4.650000e-01    2.780000e+00
    SW    C6  1 4.350000e-01    2.100000e+00
    TW    C6  1 3.950000e-01    1.880000e+00
     W   SC6  1 4.250000e-01    2.260000e+00
    SW   SC6  1 4.050000e-01    1.680000e+00
    TW   SC6  1 3.780000e-01    1.610000e+00
     W   TC6  1 3.850000e-01    1.550000e+00
    SW   TC6  1 3.750000e-01    1.130000e+00
    TW   TC6  1 3.530000e-01    1.330000e+00
     W    C5  1 4.650000e-01    2.560000e+00
    SW    C5  1 4.350000e-01    1.920000e+00
    TW    C5  1 3.950000e-01    1.730000e+00
     W   SC5  1 4.250000e-01    2.020000e+00
    SW   SC5  1 4.050000e-01    1.460000e+00
    TW   SC5  1 3.780000e-01    1.440000e+00
     W   TC5  1 3.870000e-01    1.360000e+00
    SW   TC5  1 3.750000e-01    9.500000e-01
    TW   TC5  1 3.550000e-01    1.230000e+00
     W    C4  1 4.650000e-01    2.420000e+00
    SW    C4  1 4.350000e-01    1.740000e+00
    TW    C4  1 3.950000e-01    1.590000e+00
     W   SC4  1 4.250000e-01    1.800000e+00
    SW   SC4  1 4.050000e-01    1.280000e+00
    TW   SC4  1 3.780000e-01    1.290000e+00
     W   TC4  1 3.930000e-01    1.120000e+00
    SW   TC4  1 3.880000e-01    8.300000e-01
    TW   TC4  1 3.720000e-01    1.130000e+00
     W    C3  1 4.650000e-01    2.420000e+00
    SW    C3  1 4.350000e-01    1.740000e+00
    TW    C3  1 3.950000e-01    1.590000e+00
     W   SC3  1 4.250000e-01    1.800000e+00
    SW   SC3  1 4.050000e-01    1.280000e+00
    TW   SC3  1 3.780000e-01    1.290000e+00
     W   TC3  1 3.930000e-01    1.120000e+00
    SW   TC3  1 3.880000e-01    8.300000e-01
    TW   TC3  1 3.720000e-01    1.130000e+00
     W    C2  1 4.650000e-01    2.300000e+00
    SW    C2  1 4.350000e-01    1.570000e+00
    TW    C2  1 3.950000e-01    1.450000e+00
     W   SC2  1 4.250000e-01    1.690000e+00
    SW   SC2  1 4.050000e-01    1.100000e+00
    TW   SC2  1 3.860000e-01    1.160000e+00
     W   TC2  1 3.950000e-01    9.200000e-01
    SW   TC2  1 3.950000e-01    7.100000e-01
    TW   TC2  1 3.840000e-01    1.030000e+00
     W    C1  1 4.700000e-01    2.060000e+00
    SW    C1  1 4.400000e-01    1.270000e+00
    TW    C1  1 4.000000e-01    1.240000e+00
     W   SC1  1 4.370000e-01    1.420000e+00
    SW   SC1  1 4.230000e-01    8.000000e-01
    TW   SC1  1 3.970000e-01    9.200000e-01
     W   TC1  1 4.150000e-01    5.500000e-01
    SW   TC1  1 4.320000e-01    5.500000e-01
    TW   TC1  1 4.400000e-01    8.300000e-01
     W    X4  1 4.650000e-01    2.780000e+00
    SW    X4  1 4.350000e-01    2.100000e+00
    TW    X4  1 3.950000e-01    1.880000e+00
     W   SX4  1 4.250000e-01    2.260000e+00
    SW   SX4  1 4.050000e-01    1.680000e+00
    TW   SX4  1 3.780000e-01    1.610000e+00
     W   TX4  1 3.850000e-01    1.550000e+00
    SW   TX4  1 3.750000e-01    1.130000e+00
    TW   TX4  1 3.530000e-01    1.330000e+00
     W    X3  1 4.650000e-01    2.560000e+00
    SW    X3  1 4.350000e-01    1.920000e+00
    TW    X3  1 3.950000e-01    1.730000e+00
     W   SX3  1 4.250000e-01    2.020000e+00
    SW   SX3  1 4.050000e-01    1.460000e+00
    TW   SX3  1 3.780000e-01    1.440000e+00
     W   TX3  1 3.870000e-01    1.360000e+00
    SW   TX3  1 3.750000e-01    9.500000e-01
    TW   TX3  1 3.550000e-01    1.230000e+00
     W    X2  1 4.650000e-01    2.560000e+00
    SW    X2  1 4.350000e-01    1.920000e+00
    TW    X2  1 3.950000e-01    1.730000e+00
     W   SX2  1 4.250000e-01    2.020000e+00
    SW   SX2  1 4.050000e-01    1.460000e+00
    TW   SX2  1 3.780000e-01    1.440000e+00
     W   TX2  1 3.870000e-01    1.360000e+00
    SW   TX2  1 3.750000e-01    9.500000e-01
    TW   TX2  1 3.550000e-01    1.230000e+00
     W    X1  1 4.650000e-01    2.300000e+00
    SW    X1  1 4.350000e-01    1.570000e+00
    TW    X1  1 3.950000e-01    1.450000e+00
     W   SX1  1 4.250000e-01    1.690000e+00
    SW   SX1  1 4.050000e-01    1.100000e+00
    TW   SX1  1 3.860000e-01    1.160000e+00
     W   TX1  1 3.950000e-01    9.200000e-01
    SW   TX1  1 3.950000e-01    7.100000e-01
    TW   TX1  1 3.840000e-01    1.030000e+00
     W     W  1 4.700000e-01    4.650000e+00
     W   P6d  1 4.650000e-01    4.520000e+00
     W   P5d  1 4.650000e-01    4.520000e+00
     W   P4d  1 4.650000e-01    4.330000e+00
     W   P3d  1 4.650000e-01    4.140000e+00
     W   P2d  1 4.650000e-01    4.140000e+00
     W   P1d  1 4.650000e-01    3.950000e+00
     W   N6d  1 4.650000e-01    3.950000e+00
     W   N5d  1 4.650000e-01    3.700000e+00
     W   N4d  1 4.650000e-01    3.500000e+00
     W   N3d  1 4.650000e-01    3.500000e+00
     W   N2d  1 4.650000e-01    3.040000e+00
     W   N1d  1 4.650000e-01    2.780000e+00
     W   P6a  1 4.650000e-01    4.520000e+00
     W   P5a  1 4.650000e-01    4.520000e+00
     W   P4a  1 4.650000e-01    4.330000e+00
     W   P3a  1 4.650000e-01    4.140000e+00
     W   P2a  1 4.650000e-01    4.140000e+00
     W   P1a  1 4.650000e-01    3.950000e+00
     W   N6a  1 4.650000e-01    3.950000e+00
     W   N5a  1 4.650000e-01    3.700000e+00
     W   N4a  1 4.650000e-01    3.500000e+00
     W   N3a  1 4.650000e-01    3.500000e+00
     W   N2a  1 4.650000e-01    3.040000e+00
     W   N1a  1 4.650000e-01    2.780000e+00
     W   C6v  1 4.650000e-01    3.040000e+00
     W   C5v  1 4.650000e-01    2.780000e+00
     W   C4v  1 4.650000e-01    2.560000e+00
     W   C3v  1 4.650000e-01    2.560000e+00
     W   C2v  1 4.650000e-01    2.420000e+00
     W   C1v  1 4.650000e-01    2.180000e+00
     W   X4v  1 4.650000e-01    3.040000e+00
     W   X3v  1 4.650000e-01    2.780000e+00
     W   X2v  1 4.650000e-01    2.780000e+00
     W   X1v  1 4.650000e-01    2.420000e+00
     W   C6e  1 4.650000e-01    3.040000e+00
     W   C5e  1 4.650000e-01    2.780000e+00
     W   C4e  1 4.650000e-01    2.560000e+00
     W   C3e  1 4.650000e-01    2.560000e+00
     W   C2e  1 4.650000e-01    2.420000e+00
     W   C1e  1 4.650000e-01    2.180000e+00
     W   X4e  1 4.650000e-01    3.040000e+00
     W   X3e  1 4.650000e-01    2.780000e+00
     W   X2e  1 4.650000e-01    2.780000e+00
     W   X1e  1 4.650000e-01    2.420000e+00
     W   P6q  1 4.650000e-01    5.640000e+00
     W   P5q  1 4.650000e-01    5.640000e+00
     W   P4q  1 4.650000e-01    5.260000e+00
     W   P3q  1 4.650000e-01    4.990000e+00
     W   P2q  1 4.650000e-01    4.990000e+00
     W   P1q  1 4.650000e-01    4.750000e+00
     W   N6q  1 4.650000e-01    4.750000e+00
     W   N5q  1 4.650000e-01    4.520000e+00
     W   N4q  1 4.650000e-01    4.330000e+00
     W   N3q  1 4.650000e-01    4.330000e+00
     W   N2q  1 4.650000e-01    3.950000e+00
     W   N1q  1 4.650000e-01    3.700000e+00
     W   C6q  1 4.650000e-01    3.500000e+00
     W   C5q  1 4.650000e-01    3.290000e+00
     W   C4q  1 4.650000e-01    3.040000e+00
     W   C3q  1 4.650000e-01    3.040000e+00
     W   C2q  1 4.650000e-01    2.780000e+00
     W   C1q  1 4.650000e-01    2.420000e+00
     W   X4q  1 4.650000e-01    3.500000e+00
     W   X3q  1 4.650000e-01    3.290000e+00
     W   X2q  1 4.650000e-01    3.290000e+00
     W   X1q  1 4.650000e-01    2.780000e+00
     W  P6dq  1 4.650000e-01    5.260000e+00
     W  P5dq  1 4.650000e-01    5.260000e+00
     W  P4dq  1 4.650000e-01    4.990000e+00
     W  P3dq  1 4.650000e-01    4.750000e+00
     W  P2dq  1 4.650000e-01    4.750000e+00
     W  P1dq  1 4.650000e-01    4.520000e+00
     W  N6dq  1 4.650000e-01    4.520000e+00
     W  N5dq  1 4.650000e-01    4.330000e+00
     W  N4dq  1 4.650000e-01    4.140000e+00
     W  N3dq  1 4.650000e-01    4.140000e+00
     W  N2dq  1 4.650000e-01    3.700000e+00
     W  N1dq  1 4.650000e-01    3.500000e+00
     W  P6aq  1 4.650000e-01    5.260000e+00
     W  P5aq  1 4.650000e-01    5.260000e+00
     W  P4aq  1 4.650000e-01    4.990000e+00
     W  P3aq  1 4.650000e-01    4.750000e+00
     W  P2aq  1 4.650000e-01    4.750000e+00
     W  P1aq  1 4.650000e-01    4.520000e+00
     W  N6aq  1 4.650000e-01    4.520000e+00
     W  N5aq  1 4.650000e-01    4.330000e+00
     W  N4aq  1 4.650000e-01    4.140000e+00
     W  N3aq  1 4.650000e-01    4.140000e+00
     W  N2aq  1 4.650000e-01    3.700000e+00
     W  N1aq  1 4.650000e-01    3.500000e+00
     W  C6vq  1 4.650000e-01    3.700000e+00
     W  C5vq  1 4.650000e-01    3.500000e+00
     W  C4vq  1 4.650000e-01    3.290000e+00
     W  C3vq  1 4.650000e-01    3.290000e+00
     W  C2vq  1 4.650000e-01    3.040000e+00
     W  C1vq  1 4.650000e-01    2.560000e+00
     W  X4vq  1 4.650000e-01    3.700000e+00
     W  X3vq  1 4.650000e-01    3.500000e+00
     W  X2vq  1 4.650000e-01    3.500000e+00
     W  X1vq  1 4.650000e-01    3.040000e+00
     W  C6eq  1 4.650000e-01    3.700000e+00
     W  C5eq  1 4.650000e-01    3.500000e+00
     W  C4eq  1 4.650000e-01    3.290000e+00
     W  C3eq  1 4.650000e-01    3.290000e+00
     W  C2eq  1 4.650000e-01    3.040000e+00
     W  C1eq  1 4.650000e-01    2.560000e+00
     W  X4eq  1 4.650000e-01    3.700000e+00
     W  X3eq  1 4.650000e-01    3.500000e+00
     W  X2eq  1 4.650000e-01    3.500000e+00
     W  X1eq  1 4.650000e-01    3.040000e+00
     W   P6h  1 4.650000e-01    4.750000e+00
     W   P5h  1 4.650000e-01    4.750000e+00
     W   P4h  1 4.650000e-01    4.520000e+00
     W   P3h  1 4.650000e-01    4.330000e+00
     W   P2h  1 4.650000e-01    4.330000e+00
     W   P1h  1 4.650000e-01    4.140000e+00
     W   N6h  1 4.650000e-01    4.140000e+00
     W   N5h  1 4.650000e-01    3.950000e+00
     W   N4h  1 4.650000e-01    3.700000e+00
     W   N3h  1 4.650000e-01    3.700000e+00
     W   N2h  1 4.650000e-01    3.290000e+00
     W   N1h  1 4.650000e-01    3.040000e+00
     W   C6h  1 4.650000e-01    2.780000e+00
     W   C5h  1 4.650000e-01    2.560000e+00
     W   C4h  1 4.650000e-01    2.420000e+00
     W   C3h  1 4.650000e-01    2.420000e+00
     W   C2h  1 4.650000e-01    2.300000e+00
     W   C1h  1 4.700000e-01    2.060000e+00
     W   X4h  1 4.650000e-01    2.780000e+00
     W   X3h  1 4.650000e-01    2.560000e+00
     W   X2h  1 4.650000e-01    2.560000e+00
     W   X1h  1 4.650000e-01    2.300000e+00
     W  P6dh  1 4.650000e-01    4.520000e+00
     W  P5dh  1 4.650000e-01    4.520000e+00
     W  P4dh  1 4.650000e-01    4.330000e+00
     W  P3dh  1 4.650000e-01    4.140000e+00
     W  P2dh  1 4.650000e-01    4.140000e+00
     W  P1dh  1 4.650000e-01    3.950000e+00
     W  N6dh  1 4.650000e-01    3.950000e+00
     W  N5dh  1 4.650000e-01    3.700000e+00
     W  N4dh  1 4.650000e-01    3.500000e+00
     W  N3dh  1 4.650000e-01    3.500000e+00
     W  N2dh  1 4.650000e-01    3.040000e+00
     W  N1dh  1 4.650000e-01    2.780000e+00
     W  P6ah  1 4.650000e-01    4.520000e+00
     W  P5ah  1 4.650000e-01    4.520000e+00
     W  P4ah  1 4.650000e-01    4.330000e+00
     W  P3ah  1 4.650000e-01    4.140000e+00
     W  P2ah  1 4.650000e-01    4.140000e+00
     W  P1ah  1 4.650000e-01    3.950000e+00
     W  N6ah  1 4.650000e-01    3.950000e+00
     W  N5ah  1 4.650000e-01    3.700000e+00
     W  N4ah  1 4.650000e-01    3.500000e+00
     W  N3ah  1 4.650000e-01    3.500000e+00
     W  N2ah  1 4.650000e-01    3.040000e+00
     W  N1ah  1 4.650000e-01    2.780000e+00
     W  C6vh  1 4.650000e-01    3.040000e+00
     W  C5vh  1 4.650000e-01    2.780000e+00
     W  C4vh  1 4.650000e-01    2.560000e+00
     W  C3vh  1 4.650000e-01    2.560000e+00
     W  C2vh  1 4.650000e-01    2.420000e+00
     W  C1vh  1 4.650000e-01    2.180000e+00
     W  X4vh  1 4.650000e-01    3.040000e+00
     W  X3vh  1 4.650000e-01    2.780000e+00
     W  X2vh  1 4.650000e-01    2.780000e+00
     W  X1vh  1 4.650000e-01    2.420000e+00
     W  C6eh  1 4.650000e-01    3.040000e+00
     W  C5eh  1 4.650000e-01    2.780000e+00
     W  C4eh  1 4.650000e-01    2.560000e+00
     W  C3eh  1 4.650000e-01    2.560000e+00
     W  C2eh  1 4.650000e-01    2.420000e+00
     W  C1eh  1 4.650000e-01    2.180000e+00
     W  X4eh  1 4.650000e-01    3.040000e+00
     W  X3eh  1 4.650000e-01    2.780000e+00
     W  X2eh  1 4.650000e-01    2.780000e+00
     W  X1eh  1 4.650000e-01    2.420000e+00
     W   P6r  1 4.650000e-01    4.750000e+00
     W   P5r  1 4.650000e-01    4.750000e+00
     W   P4r  1 4.650000e-01    4.520000e+00
     W   P3r  1 4.650000e-01    4.330000e+00
     W   P2r  1 4.650000e-01    4.330000e+00
     W   P1r  1 4.650000e-01    4.140000e+00
     W   N6r  1 4.650000e-01    4.140000e+00
     W   N5r  1 4.650000e-01    3.950000e+00
     W   N4r  1 4.650000e-01    3.700000e+00
     W   N3r  1 4.650000e-01    3.700000e+00
     W   N2r  1 4.650000e-01    3.290000e+00
     W   N1r  1 4.650000e-01    3.040000e+00
     W   C6r  1 4.650000e-01    2.780000e+00
     W   C5r  1 4.650000e-01    2.560000e+00
     W   C4r  1 4.650000e-01    2.420000e+00
     W   C3r  1 4.650000e-01    2.420000e+00
     W   C2r  1 4.650000e-01    2.300000e+00
     W   C1r  1 4.700000e-01    2.060000e+00
     W   X4r  1 4.650000e-01    2.780000e+00
     W   X3r  1 4.650000e-01    2.560000e+00
     W   X2r  1 4.650000e-01    2.560000e+00
     W   X1r  1 4.650000e-01    2.300000e+00
     W  P6dr  1 4.650000e-01    4.520000e+00
     W  P5dr  1 4.650000e-01    4.520000e+00
     W  P4dr  1 4.650000e-01    4.330000e+00
     W  P3dr  1 4.650000e-01    4.140000e+00
     W  P2dr  1 4.650000e-01    4.140000e+00
     W  P1dr  1 4.650000e-01    3.950000e+00
     W  N6dr  1 4.650000e-01    3.950000e+00
     W  N5dr  1 4.650000e-01    3.700000e+00
     W  N4dr  1 4.650000e-01    3.500000e+00
     W  N3dr  1 4.650000e-01    3.500000e+00
     W  N2dr  1 4.650000e-01    3.040000e+00
     W  N1dr  1 4.650000e-01    2.780000e+00
     W  P6ar  1 4.650000e-01    4.520000e+00
     W  P5ar  1 4.650000e-01    4.520000e+00
     W  P4ar  1 4.650000e-01    4.330000e+00
     W  P3ar  1 4.650000e-01    4.140000e+00
     W  P2ar  1 4.650000e-01    4.140000e+00
     W  P1ar  1 4.650000e-01    3.950000e+00
     W  N6ar  1 4.650000e-01    3.950000e+00
     W  N5ar  1 4.650000e-01    3.700000e+00
     W  N4ar  1 4.650000e-01    3.500000e+00
     W  N3ar  1 4.650000e-01    3.500000e+00
     W  N2ar  1 4.650000e-01    3.040000e+00
     W  N1ar  1 4.650000e-01    2.780000e+00
     W  C6vr  1 4.650000e-01    3.040000e+00
     W  C5vr  1 4.650000e-01    2.780000e+00
     W  C4vr  1 4.650000e-01    2.560000e+00
     W  C3vr  1 4.650000e-01    2.560000e+00
     W  C2vr  1 4.650000e-01    2.420000e+00
     W  C1vr  1 4.650000e-01    2.180000e+00
     W  X4vr  1 4.650000e-01    3.040000e+00
     W  X3vr  1 4.650000e-01    2.780000e+00
     W  X2vr  1 4.650000e-01    2.780000e+00
     W  X1vr  1 4.650000e-01    2.420000e+00
     W  C6er  1 4.650000e-01    3.040000e+00
     W  C5er  1 4.650000e-01    2.780000e+00
     W  C4er  1 4.650000e-01    2.560000e+00
     W  C3er  1 4.650000e-01    2.560000e+00
     W  C2er  1 4.650000e-01    2.420000e+00
     W  C1er  1 4.650000e-01    2.180000e+00
     W  X4er  1 4.650000e-01    3.040000e+00
     W  X3er  1 4.650000e-01    2.780000e+00
     W  X2er  1 4.650000e-01    2.780000e+00
     W  X1er  1 4.650000e-01    2.420000e+00
     W    SW  1 4.400000e-01    3.750000e+00
     W  SP6d  1 4.250000e-01    4.240000e+00
     W  SP5d  1 4.250000e-01    4.240000e+00
     W  SP4d  1 4.250000e-01    4.030000e+00
     W  SP3d  1 4.250000e-01    3.830000e+00
     W  SP2d  1 4.250000e-01    3.830000e+00
     W  SP1d  1 4.250000e-01    3.600000e+00
     W  SN6d  1 4.250000e-01    3.600000e+00
     W  SN5d  1 4.250000e-01    3.270000e+00
     W  SN4d  1 4.250000e-01    3.000000e+00
     W  SN3d  1 4.250000e-01    3.000000e+00
     W  SN2d  1 4.250000e-01    2.510000e+00
     W  SN1d  1 4.250000e-01    2.260000e+00
     W  SP6a  1 4.250000e-01    4.240000e+00
     W  SP5a  1 4.250000e-01    4.240000e+00
     W  SP4a  1 4.250000e-01    4.030000e+00
     W  SP3a  1 4.250000e-01    3.830000e+00
     W  SP2a  1 4.250000e-01    3.830000e+00
     W  SP1a  1 4.250000e-01    3.600000e+00
     W  SN6a  1 4.250000e-01    3.600000e+00
     W  SN5a  1 4.250000e-01    3.270000e+00
     W  SN4a  1 4.250000e-01    3.000000e+00
     W  SN3a  1 4.250000e-01    3.000000e+00
     W  SN2a  1 4.250000e-01    2.510000e+00
     W  SN1a  1 4.250000e-01    2.260000e+00
     W  SC6v  1 4.250000e-01    2.510000e+00
     W  SC5v  1 4.250000e-01    2.260000e+00
     W  SC4v  1 4.250000e-01    2.020000e+00
     W  SC3v  1 4.250000e-01    2.020000e+00
     W  SC2v  1 4.250000e-01    1.800000e+00
     W  SC1v  1 4.310000e-01    1.560000e+00
     W  SX4v  1 4.250000e-01    2.510000e+00
     W  SX3v  1 4.250000e-01    2.260000e+00
     W  SX2v  1 4.250000e-01    2.260000e+00
     W  SX1v  1 4.250000e-01    1.800000e+00
     W  SC6e  1 4.250000e-01    2.510000e+00
     W  SC5e  1 4.250000e-01    2.260000e+00
     W  SC4e  1 4.250000e-01    2.020000e+00
     W  SC3e  1 4.250000e-01    2.020000e+00
     W  SC2e  1 4.250000e-01    1.800000e+00
     W  SC1e  1 4.310000e-01    1.560000e+00
     W  SX4e  1 4.250000e-01    2.510000e+00
     W  SX3e  1 4.250000e-01    2.260000e+00
     W  SX2e  1 4.250000e-01    2.260000e+00
     W  SX1e  1 4.250000e-01    1.800000e+00
     W  SP6q  1 4.250000e-01    5.370000e+00
     W  SP5q  1 4.250000e-01    5.370000e+00
     W  SP4q  1 4.250000e-01    5.090000e+00
     W  SP3q  1 4.250000e-01    4.810000e+00
     W  SP2q  1 4.250000e-01    4.810000e+00
     W  SP1q  1 4.250000e-01    4.530000e+00
     W  SN6q  1 4.250000e-01    4.530000e+00
     W  SN5q  1 4.250000e-01    4.240000e+00
     W  SN4q  1 4.250000e-01    4.030000e+00
     W  SN3q  1 4.250000e-01    4.030000e+00
     W  SN2q  1 4.250000e-01    3.600000e+00
     W  SN1q  1 4.250000e-01    3.270000e+00
     W  SC6q  1 4.250000e-01    3.000000e+00
     W  SC5q  1 4.250000e-01    2.740000e+00
     W  SC4q  1 4.250000e-01    2.510000e+00
     W  SC3q  1 4.250000e-01    2.510000e+00
     W  SC2q  1 4.250000e-01    2.260000e+00
     W  SC1q  1 4.250000e-01    1.800000e+00
     W  SX4q  1 4.250000e-01    3.000000e+00
     W  SX3q  1 4.250000e-01    2.740000e+00
     W  SX2q  1 4.250000e-01    2.740000e+00
     W  SX1q  1 4.250000e-01    2.260000e+00
     W SP6dq  1 4.250000e-01    5.090000e+00
     W SP5dq  1 4.250000e-01    5.090000e+00
     W SP4dq  1 4.250000e-01    4.810000e+00
     W SP3dq  1 4.250000e-01    4.530000e+00
     W SP2dq  1 4.250000e-01    4.530000e+00
     W SP1dq  1 4.250000e-01    4.240000e+00
     W SN6dq  1 4.250000e-01    4.240000e+00
     W SN5dq  1 4.250000e-01    4.030000e+00
     W SN4dq  1 4.250000e-01    3.830000e+00
     W SN3dq  1 4.250000e-01    3.830000e+00
     W SN2dq  1 4.250000e-01    3.270000e+00
     W SN1dq  1 4.250000e-01    3.000000e+00
     W SP6aq  1 4.250000e-01    5.090000e+00
     W SP5aq  1 4.250000e-01    5.090000e+00
     W SP4aq  1 4.250000e-01    4.810000e+00
     W SP3aq  1 4.250000e-01    4.530000e+00
     W SP2aq  1 4.250000e-01    4.530000e+00
     W SP1aq  1 4.250000e-01    4.240000e+00
     W SN6aq  1 4.250000e-01    4.240000e+00
     W SN5aq  1 4.250000e-01    4.030000e+00
     W SN4aq  1 4.250000e-01    3.830000e+00
     W SN3aq  1 4.250000e-01    3.830000e+00
     W SN2aq  1 4.250000e-01    3.270000e+00
     W SN1aq  1 4.250000e-01    3.000000e+00
     W SC6vq  1 4.250000e-01    3.270000e+00
     W SC5vq  1 4.250000e-01    3.000000e+00
     W SC4vq  1 4.250000e-01    2.740000e+00
     W SC3vq  1 4.250000e-01    2.740000e+00
     W SC2vq  1 4.250000e-01    2.510000e+00
     W SC1vq  1 4.250000e-01    2.020000e+00
     W SX4vq  1 4.250000e-01    3.270000e+00
     W SX3vq  1 4.250000e-01    3.000000e+00
     W SX2vq  1 4.250000e-01    3.000000e+00
     W SX1vq  1 4.250000e-01    2.510000e+00
     W SC6eq  1 4.250000e-01    3.270000e+00
     W SC5eq  1 4.250000e-01    3.000000e+00
     W SC4eq  1 4.250000e-01    2.740000e+00
     W SC3eq  1 4.250000e-01    2.740000e+00
     W SC2eq  1 4.250000e-01    2.510000e+00
     W SC1eq  1 4.250000e-01    2.020000e+00
     W SX4eq  1 4.250000e-01    3.270000e+00
     W SX3eq  1 4.250000e-01    3.000000e+00
     W SX2eq  1 4.250000e-01    3.000000e+00
     W SX1eq  1 4.250000e-01    2.510000e+00
     W  SP6h  1 4.250000e-01    4.530000e+00
     W  SP5h  1 4.250000e-01    4.530000e+00
     W  SP4h  1 4.250000e-01    4.240000e+00
     W  SP3h  1 4.250000e-01    4.030000e+00
     W  SP2h  1 4.250000e-01    4.030000e+00
     W  SP1h  1 4.250000e-01    3.830000e+00
     W  SN6h  1 4.250000e-01    3.830000e+00
     W  SN5h  1 4.250000e-01    3.600000e+00
     W  SN4h  1 4.250000e-01    3.270000e+00
     W  SN3h  1 4.250000e-01    3.270000e+00
     W  SN2h  1 4.250000e-01    2.740000e+00
     W  SN1h  1 4.250000e-01    2.510000e+00
     W  SC6h  1 4.250000e-01    2.260000e+00
     W  SC5h  1 4.250000e-01    2.020000e+00
     W  SC4h  1 4.250000e-01    1.800000e+00
     W  SC3h  1 4.250000e-01    1.800000e+00
     W  SC2h  1 4.250000e-01    1.690000e+00
     W  SC1h  1 4.370000e-01    1.420000e+00
     W  SX4h  1 4.250000e-01    2.260000e+00
     W  SX3h  1 4.250000e-01    2.020000e+00
     W  SX2h  1 4.250000e-01    2.020000e+00
     W  SX1h  1 4.250000e-01    1.690000e+00
     W SP6dh  1 4.250000e-01    4.240000e+00
     W SP5dh  1 4.250000e-01    4.240000e+00
     W SP4dh  1 4.250000e-01    4.030000e+00
     W SP3dh  1 4.250000e-01    3.830000e+00
     W SP2dh  1 4.250000e-01    3.830000e+00
     W SP1dh  1 4.250000e-01    3.600000e+00
     W SN6dh  1 4.250000e-01    3.600000e+00
     W SN5dh  1 4.250000e-01    3.270000e+00
     W SN4dh  1 4.250000e-01    3.000000e+00
     W SN3dh  1 4.250000e-01    3.000000e+00
     W SN2dh  1 4.250000e-01    2.510000e+00
     W SN1dh  1 4.250000e-01    2.260000e+00
     W SP6ah  1 4.250000e-01    4.240000e+00
     W SP5ah  1 4.250000e-01    4.240000e+00
     W SP4ah  1 4.250000e-01    4.030000e+00
     W SP3ah  1 4.250000e-01    3.830000e+00
     W SP2ah  1 4.250000e-01    3.830000e+00
     W SP1ah  1 4.250000e-01    3.600000e+00
     W SN6ah  1 4.250000e-01    3.600000e+00
     W SN5ah  1 4.250000e-01    3.270000e+00
     W SN4ah  1 4.250000e-01    3.000000e+00
     W SN3ah  1 4.250000e-01    3.000000e+00
     W SN2ah  1 4.250000e-01    2.510000e+00
     W SN1ah  1 4.250000e-01    2.260000e+00
     W SC6vh  1 4.250000e-01    2.510000e+00
     W SC5vh  1 4.250000e-01    2.260000e+00
     W SC4vh  1 4.250000e-01    2.020000e+00
     W SC3vh  1 4.250000e-01    2.020000e+00
     W SC2vh  1 4.250000e-01    1.800000e+00
     W SC1vh  1 4.310000e-01    1.560000e+00
     W SX4vh  1 4.250000e-01    2.510000e+00
     W SX3vh  1 4.250000e-01    2.260000e+00
     W SX2vh  1 4.250000e-01    2.260000e+00
     W SX1vh  1 4.250000e-01    1.800000e+00
     W SC6eh  1 4.250000e-01    2.510000e+00
     W SC5eh  1 4.250000e-01    2.260000e+00
     W SC4eh  1 4.250000e-01    2.020000e+00
     W SC3eh  1 4.250000e-01    2.020000e+00
     W SC2eh  1 4.250000e-01    1.800000e+00
     W SC1eh  1 4.310000e-01    1.560000e+00
     W SX4eh  1 4.250000e-01    2.510000e+00
     W SX3eh  1 4.250000e-01    2.260000e+00
     W SX2eh  1 4.250000e-01    2.260000e+00
     W SX1eh  1 4.250000e-01    1.800000e+00
     W  SP6r  1 4.250000e-01    4.530000e+00
     W  SP5r  1 4.250000e-01    4.530000e+00
     W  SP4r  1 4.250000e-01    4.240000e+00
     W  SP3r  1 4.250000e-01    4.030000e+00
     W  SP2r  1 4.250000e-01    4.030000e+00
     W  SP1r  1 4.250000e-01    3.830000e+00
     W  SN6r  1 4.250000e-01    3.830000e+00
     W  SN5r  1 4.250000e-01    3.600000e+00
     W  SN4r  1 4.250000e-01    3.270000e+00
     W  SN3r  1 4.250000e-01    3.270000e+00
     W  SN2r  1 4.250000e-01    2.740000e+00
     W  SN1r  1 4.250000e-01    2.510000e+00
     W  SC6r  1 4.250000e-01    2.260000e+00
     W  SC5r  1 4.250000e-01    2.020000e+00
     W  SC4r  1 4.250000e-01    1.800000e+00
     W  SC3r  1 4.250000e-01    1.800000e+00
     W  SC2r  1 4.250000e-01    1.690000e+00
     W  SC1r  1 4.370000e-01    1.420000e+00
     W  SX4r  1 4.250000e-01    2.260000e+00
     W  SX3r  1 4.250000e-01    2.020000e+00
     W  SX2r  1 4.250000e-01    2.020000e+00
     W  SX1r  1 4.250000e-01    1.690000e+00
     W SP6dr  1 4.250000e-01    4.240000e+00
     W SP5dr  1 4.250000e-01    4.240000e+00
     W SP4dr  1 4.250000e-01    4.030000e+00
     W SP3dr  1 4.250000e-01    3.830000e+00
     W SP2dr  1 4.250000e-01    3.830000e+00
     W SP1dr  1 4.250000e-01    3.600000e+00
     W SN6dr  1 4.250000e-01    3.600000e+00
     W SN5dr  1 4.250000e-01    3.270000e+00
     W SN4dr  1 4.250000e-01    3.000000e+00
     W SN3dr  1 4.250000e-01    3.000000e+00
     W SN2dr  1 4.250000e-01    2.510000e+00
     W SN1dr  1 4.250000e-01    2.260000e+00
     W SP6ar  1 4.250000e-01    4.240000e+00
     W SP5ar  1 4.250000e-01    4.240000e+00
     W SP4ar  1 4.250000e-01    4.030000e+00
     W SP3ar  1 4.250000e-01    3.830000e+00
     W SP2ar  1 4.250000e-01    3.830000e+00
     W SP1ar  1 4.250000e-01    3.600000e+00
     W SN6ar  1 4.250000e-01    3.600000e+00
     W SN5ar  1 4.250000e-01    3.270000e+00
     W SN4ar  1 4.250000e-01    3.000000e+00
     W SN3ar  1 4.250000e-01    3.000000e+00
     W SN2ar  1 4.250000e-01    2.510000e+00
     W SN1ar  1 4.250000e-01    2.260000e+00
     W SC6vr  1 4.250000e-01    2.510000e+00
     W SC5vr  1 4.250000e-01    2.260000e+00
     W SC4vr  1 4.250000e-01    2.020000e+00
     W SC3vr  1 4.250000e-01    2.020000e+00
     W SC2vr  1 4.250000e-01    1.800000e+00
     W SC1vr  1 4.310000e-01    1.560000e+00
     W SX4vr  1 4.250000e-01    2.510000e+00
     W SX3vr  1 4.250000e-01    2.260000e+00
     W SX2vr  1 4.250000e-01    2.260000e+00
     W SX1vr  1 4.250000e-01    1.800000e+00
     W SC6er  1 4.250000e-01    2.510000e+00
     W SC5er  1 4.250000e-01    2.260000e+00
     W SC4er  1 4.250000e-01    2.020000e+00
     W SC3er  1 4.250000e-01    2.020000e+00
     W SC2er  1 4.250000e-01    1.800000e+00
     W SC1er  1 4.310000e-01    1.560000e+00
     W SX4er  1 4.250000e-01    2.510000e+00
     W SX3er  1 4.250000e-01    2.260000e+00
     W SX2er  1 4.250000e-01    2.260000e+00
     W SX1er  1 4.250000e-01    1.800000e+00
     W    TW  1 4.100000e-01    3.400000e+00
     W  TP6d  1 3.850000e-01    4.300000e+00
     W  TP5d  1 3.850000e-01    4.300000e+00
     W  TP4d  1 3.850000e-01    3.730000e+00
     W  TP3d  1 3.850000e-01    3.420000e+00
     W  TP2d  1 3.850000e-01    3.420000e+00
     W  TP1d  1 3.850000e-01    3.100000e+00
     W  TN6d  1 3.850000e-01    3.100000e+00
     W  TN5d  1 3.850000e-01    2.780000e+00
     W  TN4d  1 3.850000e-01    2.510000e+00
     W  TN3d  1 3.850000e-01    2.510000e+00
     W  TN2d  1 3.850000e-01    1.860000e+00
     W  TN1d  1 3.850000e-01    1.550000e+00
     W  TP6a  1 3.850000e-01    4.300000e+00
     W  TP5a  1 3.850000e-01    4.300000e+00
     W  TP4a  1 3.850000e-01    3.730000e+00
     W  TP3a  1 3.850000e-01    3.420000e+00
     W  TP2a  1 3.850000e-01    3.420000e+00
     W  TP1a  1 3.850000e-01    3.100000e+00
     W  TN6a  1 3.850000e-01    3.100000e+00
     W  TN5a  1 3.850000e-01    2.780000e+00
     W  TN4a  1 3.850000e-01    2.510000e+00
     W  TN3a  1 3.850000e-01    2.510000e+00
     W  TN2a  1 3.850000e-01    1.860000e+00
     W  TN1a  1 3.850000e-01    1.550000e+00
     W  TC6v  1 3.850000e-01    1.860000e+00
     W  TC5v  1 3.850000e-01    1.550000e+00
     W  TC4v  1 3.870000e-01    1.360000e+00
     W  TC3v  1 3.870000e-01    1.360000e+00
     W  TC2v  1 3.930000e-01    1.120000e+00
     W  TC1v  1 4.010000e-01    7.500000e-01
     W  TX4v  1 3.850000e-01    1.860000e+00
     W  TX3v  1 3.850000e-01    1.550000e+00
     W  TX2v  1 3.850000e-01    1.550000e+00
     W  TX1v  1 3.930000e-01    1.120000e+00
     W  TC6e  1 3.850000e-01    1.860000e+00
     W  TC5e  1 3.850000e-01    1.550000e+00
     W  TC4e  1 3.870000e-01    1.360000e+00
     W  TC3e  1 3.870000e-01    1.360000e+00
     W  TC2e  1 3.930000e-01    1.120000e+00
     W  TC1e  1 4.010000e-01    7.500000e-01
     W  TX4e  1 3.850000e-01    1.860000e+00
     W  TX3e  1 3.850000e-01    1.550000e+00
     W  TX2e  1 3.850000e-01    1.550000e+00
     W  TX1e  1 3.930000e-01    1.120000e+00
     W  TP6q  1 3.850000e-01    5.540000e+00
     W  TP5q  1 3.850000e-01    5.540000e+00
     W  TP4q  1 3.850000e-01    5.180000e+00
     W  TP3q  1 3.850000e-01    4.860000e+00
     W  TP2q  1 3.850000e-01    4.860000e+00
     W  TP1q  1 3.850000e-01    4.630000e+00
     W  TN6q  1 3.850000e-01    4.630000e+00
     W  TN5q  1 3.850000e-01    4.300000e+00
     W  TN4q  1 3.850000e-01    3.730000e+00
     W  TN3q  1 3.850000e-01    3.730000e+00
     W  TN2q  1 3.850000e-01    3.100000e+00
     W  TN1q  1 3.850000e-01    2.780000e+00
     W  TC6q  1 3.850000e-01    2.510000e+00
     W  TC5q  1 3.850000e-01    2.180000e+00
     W  TC4q  1 3.850000e-01    1.860000e+00
     W  TC3q  1 3.850000e-01    1.860000e+00
     W  TC2q  1 3.850000e-01    1.550000e+00
     W  TC1q  1 3.930000e-01    1.120000e+00
     W  TX4q  1 3.850000e-01    2.510000e+00
     W  TX3q  1 3.850000e-01    2.180000e+00
     W  TX2q  1 3.850000e-01    2.180000e+00
     W  TX1q  1 3.850000e-01    1.550000e+00
     W TP6dq  1 3.850000e-01    5.180000e+00
     W TP5dq  1 3.850000e-01    5.180000e+00
     W TP4dq  1 3.850000e-01    4.860000e+00
     W TP3dq  1 3.850000e-01    4.630000e+00
     W TP2dq  1 3.850000e-01    4.630000e+00
     W TP1dq  1 3.850000e-01    4.300000e+00
     W TN6dq  1 3.850000e-01    4.300000e+00
     W TN5dq  1 3.850000e-01    3.730000e+00
     W TN4dq  1 3.850000e-01    3.420000e+00
     W TN3dq  1 3.850000e-01    3.420000e+00
     W TN2dq  1 3.850000e-01    2.780000e+00
     W TN1dq  1 3.850000e-01    2.510000e+00
     W TP6aq  1 3.850000e-01    5.180000e+00
     W TP5aq  1 3.850000e-01    5.180000e+00
     W TP4aq  1 3.850000e-01    4.860000e+00
     W TP3aq  1 3.850000e-01    4.630000e+00
     W TP2aq  1 3.850000e-01    4.630000e+00
     W TP1aq  1 3.850000e-01    4.300000e+00
     W TN6aq  1 3.850000e-01    4.300000e+00
     W TN5aq  1 3.850000e-01    3.730000e+00
     W TN4aq  1 3.850000e-01    3.420000e+00
     W TN3aq  1 3.850000e-01    3.420000e+00
     W TN2aq  1 3.850000e-01    2.780000e+00
     W TN1aq  1 3.850000e-01    2.510000e+00
     W TC6vq  1 3.850000e-01    2.780000e+00
     W TC5vq  1 3.850000e-01    2.510000e+00
     W TC4vq  1 3.850000e-01    2.180000e+00
     W TC3vq  1 3.850000e-01    2.180000e+00
     W TC2vq  1 3.850000e-01    1.860000e+00
     W TC1vq  1 3.870000e-01    1.360000e+00
     W TX4vq  1 3.850000e-01    2.780000e+00
     W TX3vq  1 3.850000e-01    2.510000e+00
     W TX2vq  1 3.850000e-01    2.510000e+00
     W TX1vq  1 3.850000e-01    1.860000e+00
     W TC6eq  1 3.850000e-01    2.780000e+00
     W TC5eq  1 3.850000e-01    2.510000e+00
     W TC4eq  1 3.850000e-01    2.180000e+00
     W TC3eq  1 3.850000e-01    2.180000e+00
     W TC2eq  1 3.850000e-01    1.860000e+00
     W TC1eq  1 3.870000e-01    1.360000e+00
     W TX4eq  1 3.850000e-01    2.780000e+00
     W TX3eq  1 3.850000e-01    2.510000e+00
     W TX2eq  1 3.850000e-01    2.510000e+00
     W TX1eq  1 3.850000e-01    1.860000e+00
     W  TP6h  1 3.850000e-01    4.630000e+00
     W  TP5h  1 3.850000e-01    4.630000e+00
     W  TP4h  1 3.850000e-01    4.300000e+00
     W  TP3h  1 3.850000e-01    3.730000e+00
     W  TP2h  1 3.850000e-01    3.730000e+00
     W  TP1h  1 3.850000e-01    3.420000e+00
     W  TN6h  1 3.850000e-01    3.420000e+00
     W  TN5h  1 3.850000e-01    3.100000e+00
     W  TN4h  1 3.850000e-01    2.780000e+00
     W  TN3h  1 3.850000e-01    2.780000e+00
     W  TN2h  1 3.850000e-01    2.180000e+00
     W  TN1h  1 3.850000e-01    1.860000e+00
     W  TC6h  1 3.850000e-01    1.550000e+00
     W  TC5h  1 3.870000e-01    1.360000e+00
     W  TC4h  1 3.930000e-01    1.120000e+00
     W  TC3h  1 3.930000e-01    1.120000e+00
     W  TC2h  1 3.950000e-01    9.200000e-01
     W  TC1h  1 4.150000e-01    5.500000e-01
     W  TX4h  1 3.850000e-01    1.550000e+00
     W  TX3h  1 3.870000e-01    1.360000e+00
     W  TX2h  1 3.870000e-01    1.360000e+00
     W  TX1h  1 3.950000e-01    9.200000e-01
     W TP6dh  1 3.850000e-01    4.300000e+00
     W TP5dh  1 3.850000e-01    4.300000e+00
     W TP4dh  1 3.850000e-01    3.730000e+00
     W TP3dh  1 3.850000e-01    3.420000e+00
     W TP2dh  1 3.850000e-01    3.420000e+00
     W TP1dh  1 3.850000e-01    3.100000e+00
     W TN6dh  1 3.850000e-01    3.100000e+00
     W TN5dh  1 3.850000e-01    2.780000e+00
     W TN4dh  1 3.850000e-01    2.510000e+00
     W TN3dh  1 3.850000e-01    2.510000e+00
     W TN2dh  1 3.850000e-01    1.860000e+00
     W TN1dh  1 3.850000e-01    1.550000e+00
     W TP6ah  1 3.850000e-01    4.300000e+00
     W TP5ah  1 3.850000e-01    4.300000e+00
     W TP4ah  1 3.850000e-01    3.730000e+00
     W TP3ah  1 3.850000e-01    3.420000e+00
     W TP2ah  1 3.850000e-01    3.420000e+00
     W TP1ah  1 3.850000e-01    3.100000e+00
     W TN6ah  1 3.850000e-01    3.100000e+00
     W TN5ah  1 3.850000e-01    2.780000e+00
     W TN4ah  1 3.850000e-01    2.510000e+00
     W TN3ah  1 3.850000e-01    2.510000e+00
     W TN2ah  1 3.850000e-01    1.860000e+00
     W TN1ah  1 3.850000e-01    1.550000e+00
     W TC6vh  1 3.850000e-01    1.860000e+00
     W TC5vh  1 3.850000e-01    1.550000e+00
     W TC4vh  1 3.870000e-01    1.360000e+00
     W TC3vh  1 3.870000e-01    1.360000e+00
     W TC2vh  1 3.930000e-01    1.120000e+00
     W TC1vh  1 4.010000e-01    7.500000e-01
     W TX4vh  1 3.850000e-01    1.860000e+00
     W TX3vh  1 3.850000e-01    1.550000e+00
     W TX2vh  1 3.850000e-01    1.550000e+00
     W TX1vh  1 3.930000e-01    1.120000e+00
     W TC6eh  1 3.850000e-01    1.860000e+00
     W TC5eh  1 3.850000e-01    1.550000e+00
     W TC4eh  1 3.870000e-01    1.360000e+00
     W TC3eh  1 3.870000e-01    1.360000e+00
     W TC2eh  1 3.930000e-01    1.120000e+00
     W TC1eh  1 4.010000e-01    7.500000e-01
     W TX4eh  1 3.850000e-01    1.860000e+00
     W TX3eh  1 3.850000e-01    1.550000e+00
     W TX2eh  1 3.850000e-01    1.550000e+00
     W TX1eh  1 3.930000e-01    1.120000e+00
     W  TP6r  1 3.850000e-01    4.630000e+00
     W  TP5r  1 3.850000e-01    4.630000e+00
     W  TP4r  1 3.850000e-01    4.300000e+00
     W  TP3r  1 3.850000e-01    3.730000e+00
     W  TP2r  1 3.850000e-01    3.730000e+00
     W  TP1r  1 3.850000e-01    3.420000e+00
     W  TN6r  1 3.850000e-01    3.420000e+00
     W  TN5r  1 3.850000e-01    3.100000e+00
     W  TN4r  1 3.850000e-01    2.780000e+00
     W  TN3r  1 3.850000e-01    2.780000e+00
     W  TN2r  1 3.850000e-01    2.180000e+00
     W  TN1r  1 3.850000e-01    1.860000e+00
     W  TC6r  1 3.850000e-01    1.550000e+00
     W  TC5r  1 3.870000e-01    1.360000e+00
     W  TC4r  1 3.930000e-01    1.120000e+00
     W  TC3r  1 3.930000e-01    1.120000e+00
     W  TC2r  1 3.950000e-01    9.200000e-01
     W  TC1r  1 4.150000e-01    5.500000e-01
     W  TX4r  1 3.850000e-01    1.550000e+00
     W  TX3r  1 3.870000e-01    1.360000e+00
     W  TX2r  1 3.870000e-01    1.360000e+00
     W  TX1r  1 3.950000e-01    9.200000e-01
     W TP6dr  1 3.850000e-01    4.300000e+00
     W TP5dr  1 3.850000e-01    4.300000e+00
     W TP4dr  1 3.850000e-01    3.730000e+00
     W TP3dr  1 3.850000e-01    3.420000e+00
     W TP2dr  1 3.850000e-01    3.420000e+00
     W TP1dr  1 3.850000e-01    3.100000e+00
     W TN6dr  1 3.850000e-01    3.100000e+00
     W TN5dr  1 3.850000e-01    2.780000e+00
     W TN4dr  1 3.850000e-01    2.510000e+00
     W TN3dr  1 3.850000e-01    2.510000e+00
     W TN2dr  1 3.850000e-01    1.860000e+00
     W TN1dr  1 3.850000e-01    1.550000e+00
     W TP6ar  1 3.850000e-01    4.300000e+00
     W TP5ar  1 3.850000e-01    4.300000e+00
     W TP4ar  1 3.850000e-01    3.730000e+00
     W TP3ar  1 3.850000e-01    3.420000e+00
     W TP2ar  1 3.850000e-01    3.420000e+00
     W TP1ar  1 3.850000e-01    3.100000e+00
     W TN6ar  1 3.850000e-01    3.100000e+00
     W TN5ar  1 3.850000e-01    2.780000e+00
     W TN4ar  1 3.850000e-01    2.510000e+00
     W TN3ar  1 3.850000e-01    2.510000e+00
     W TN2ar  1 3.850000e-01    1.860000e+00
     W TN1ar  1 3.850000e-01    1.550000e+00
     W TC6vr  1 3.850000e-01    1.860000e+00
     W TC5vr  1 3.850000e-01    1.550000e+00
     W TC4vr  1 3.870000e-01    1.360000e+00
     W TC3vr  1 3.870000e-01    1.360000e+00
     W TC2vr  1 3.930000e-01    1.120000e+00
     W TC1vr  1 4.010000e-01    7.500000e-01
     W TX4vr  1 3.850000e-01    1.860000e+00
     W TX3vr  1 3.850000e-01    1.550000e+00
     W TX2vr  1 3.850000e-01    1.550000e+00
     W TX1vr  1 3.930000e-01    1.120000e+00
     W TC6er  1 3.850000e-01    1.860000e+00
     W TC5er  1 3.850000e-01    1.550000e+00
     W TC4er  1 3.870000e-01    1.360000e+00
     W TC3er  1 3.870000e-01    1.360000e+00
     W TC2er  1 3.930000e-01    1.120000e+00
     W TC1er  1 4.010000e-01    7.500000e-01
     W TX4er  1 3.850000e-01    1.860000e+00
     W TX3er  1 3.850000e-01    1.550000e+00
     W TX2er  1 3.850000e-01    1.550000e+00
     W TX1er  1 3.930000e-01    1.120000e+00
    SW   P6d  1 4.350000e-01    3.640000e+00
    SW   P5d  1 4.350000e-01    3.640000e+00
    SW   P4d  1 4.350000e-01    3.440000e+00
    SW   P3d  1 4.350000e-01    3.240000e+00
    SW   P2d  1 4.350000e-01    3.240000e+00
    SW   P1d  1 4.350000e-01    3.050000e+00
    SW   N6d  1 4.350000e-01    3.050000e+00
    SW   N5d  1 4.350000e-01    2.860000e+00
    SW   N4d  1 4.350000e-01    2.670000e+00
    SW   N3d  1 4.350000e-01    2.670000e+00
    SW   N2d  1 4.350000e-01    2.290000e+00
    SW   N1d  1 4.350000e-01    2.100000e+00
    SW   P6a  1 4.350000e-01    3.640000e+00
    SW   P5a  1 4.350000e-01    3.640000e+00
    SW   P4a  1 4.350000e-01    3.440000e+00
    SW   P3a  1 4.350000e-01    3.240000e+00
    SW   P2a  1 4.350000e-01    3.240000e+00
    SW   P1a  1 4.350000e-01    3.050000e+00
    SW   N6a  1 4.350000e-01    3.050000e+00
    SW   N5a  1 4.350000e-01    2.860000e+00
    SW   N4a  1 4.350000e-01    2.670000e+00
    SW   N3a  1 4.350000e-01    2.670000e+00
    SW   N2a  1 4.350000e-01    2.290000e+00
    SW   N1a  1 4.350000e-01    2.100000e+00
    SW   C6v  1 4.350000e-01    2.290000e+00
    SW   C5v  1 4.350000e-01    2.100000e+00
    SW   C4v  1 4.350000e-01    1.920000e+00
    SW   C3v  1 4.350000e-01    1.920000e+00
    SW   C2v  1 4.350000e-01    1.740000e+00
    SW   C1v  1 4.350000e-01    1.410000e+00
    SW   X4v  1 4.350000e-01    2.290000e+00
    SW   X3v  1 4.350000e-01    2.100000e+00
    SW   X2v  1 4.350000e-01    2.100000e+00
    SW   X1v  1 4.350000e-01    1.740000e+00
    SW   C6e  1 4.350000e-01    2.290000e+00
    SW   C5e  1 4.350000e-01    2.100000e+00
    SW   C4e  1 4.350000e-01    1.920000e+00
    SW   C3e  1 4.350000e-01    1.920000e+00
    SW   C2e  1 4.350000e-01    1.740000e+00
    SW   C1e  1 4.350000e-01    1.410000e+00
    SW   X4e  1 4.350000e-01    2.290000e+00
    SW   X3e  1 4.350000e-01    2.100000e+00
    SW   X2e  1 4.350000e-01    2.100000e+00
    SW   X1e  1 4.350000e-01    1.740000e+00
    SW   P6q  1 4.350000e-01    4.650000e+00
    SW   P5q  1 4.350000e-01    4.650000e+00
    SW   P4q  1 4.350000e-01    4.390000e+00
    SW   P3q  1 4.350000e-01    4.130000e+00
    SW   P2q  1 4.350000e-01    4.130000e+00
    SW   P1q  1 4.350000e-01    3.880000e+00
    SW   N6q  1 4.350000e-01    3.880000e+00
    SW   N5q  1 4.350000e-01    3.640000e+00
    SW   N4q  1 4.350000e-01    3.440000e+00
    SW   N3q  1 4.350000e-01    3.440000e+00
    SW   N2q  1 4.350000e-01    3.050000e+00
    SW   N1q  1 4.350000e-01    2.860000e+00
    SW   C6q  1 4.350000e-01    2.670000e+00
    SW   C5q  1 4.350000e-01    2.480000e+00
    SW   C4q  1 4.350000e-01    2.290000e+00
    SW   C3q  1 4.350000e-01    2.290000e+00
    SW   C2q  1 4.350000e-01    2.100000e+00
    SW   C1q  1 4.350000e-01    1.740000e+00
    SW   X4q  1 4.350000e-01    2.670000e+00
    SW   X3q  1 4.350000e-01    2.480000e+00
    SW   X2q  1 4.350000e-01    2.480000e+00
    SW   X1q  1 4.350000e-01    2.100000e+00
    SW  P6dq  1 4.350000e-01    4.390000e+00
    SW  P5dq  1 4.350000e-01    4.390000e+00
    SW  P4dq  1 4.350000e-01    4.130000e+00
    SW  P3dq  1 4.350000e-01    3.880000e+00
    SW  P2dq  1 4.350000e-01    3.880000e+00
    SW  P1dq  1 4.350000e-01    3.640000e+00
    SW  N6dq  1 4.350000e-01    3.640000e+00
    SW  N5dq  1 4.350000e-01    3.440000e+00
    SW  N4dq  1 4.350000e-01    3.240000e+00
    SW  N3dq  1 4.350000e-01    3.240000e+00
    SW  N2dq  1 4.350000e-01    2.860000e+00
    SW  N1dq  1 4.350000e-01    2.670000e+00
    SW  P6aq  1 4.350000e-01    4.390000e+00
    SW  P5aq  1 4.350000e-01    4.390000e+00
    SW  P4aq  1 4.350000e-01    4.130000e+00
    SW  P3aq  1 4.350000e-01    3.880000e+00
    SW  P2aq  1 4.350000e-01    3.880000e+00
    SW  P1aq  1 4.350000e-01    3.640000e+00
    SW  N6aq  1 4.350000e-01    3.640000e+00
    SW  N5aq  1 4.350000e-01    3.440000e+00
    SW  N4aq  1 4.350000e-01    3.240000e+00
    SW  N3aq  1 4.350000e-01    3.240000e+00
    SW  N2aq  1 4.350000e-01    2.860000e+00
    SW  N1aq  1 4.350000e-01    2.670000e+00
    SW  C6vq  1 4.350000e-01    2.860000e+00
    SW  C5vq  1 4.350000e-01    2.670000e+00
    SW  C4vq  1 4.350000e-01    2.480000e+00
    SW  C3vq  1 4.350000e-01    2.480000e+00
    SW  C2vq  1 4.350000e-01    2.290000e+00
    SW  C1vq  1 4.350000e-01    1.920000e+00
    SW  X4vq  1 4.350000e-01    2.860000e+00
    SW  X3vq  1 4.350000e-01    2.670000e+00
    SW  X2vq  1 4.350000e-01    2.670000e+00
    SW  X1vq  1 4.350000e-01    2.290000e+00
    SW  C6eq  1 4.350000e-01    2.860000e+00
    SW  C5eq  1 4.350000e-01    2.670000e+00
    SW  C4eq  1 4.350000e-01    2.480000e+00
    SW  C3eq  1 4.350000e-01    2.480000e+00
    SW  C2eq  1 4.350000e-01    2.290000e+00
    SW  C1eq  1 4.350000e-01    1.920000e+00
    SW  X4eq  1 4.350000e-01    2.860000e+00
    SW  X3eq  1 4.350000e-01    2.670000e+00
    SW  X2eq  1 4.350000e-01    2.670000e+00
    SW  X1eq  1 4.350000e-01    2.290000e+00
    SW   P6h  1 4.350000e-01    3.880000e+00
    SW   P5h  1 4.350000e-01    3.880000e+00
    SW   P4h  1 4.350000e-01    3.640000e+00
    SW   P3h  1 4.350000e-01    3.440000e+00
    SW   P2h  1 4.350000e-01    3.440000e+00
    SW   P1h  1 4.350000e-01    3.240000e+00
    SW   N6h  1 4.350000e-01    3.240000e+00
    SW   N5h  1 4.350000e-01    3.050000e+00
    SW   N4h  1 4.350000e-01    2.860000e+00
    SW   N3h  1 4.350000e-01    2.860000e+00
    SW   N2h  1 4.350000e-01    2.480000e+00
    SW   N1h  1 4.350000e-01    2.290000e+00
    SW   C6h  1 4.350000e-01    2.100000e+00
    SW   C5h  1 4.350000e-01    1.920000e+00
    SW   C4h  1 4.350000e-01    1.740000e+00
    SW   C3h  1 4.350000e-01    1.740000e+00
    SW   C2h  1 4.350000e-01    1.570000e+00
    SW   C1h  1 4.400000e-01    1.270000e+00
    SW   X4h  1 4.350000e-01    2.100000e+00
    SW   X3h  1 4.350000e-01    1.920000e+00
    SW   X2h  1 4.350000e-01    1.920000e+00
    SW   X1h  1 4.350000e-01    1.570000e+00
    SW  P6dh  1 4.350000e-01    3.640000e+00
    SW  P5dh  1 4.350000e-01    3.640000e+00
    SW  P4dh  1 4.350000e-01    3.440000e+00
    SW  P3dh  1 4.350000e-01    3.240000e+00
    SW  P2dh  1 4.350000e-01    3.240000e+00
    SW  P1dh  1 4.350000e-01    3.050000e+00
    SW  N6dh  1 4.350000e-01    3.050000e+00
    SW  N5dh  1 4.350000e-01    2.860000e+00
    SW  N4dh  1 4.350000e-01    2.670000e+00
    SW  N3dh  1 4.350000e-01    2.670000e+00
    SW  N2dh  1 4.350000e-01    2.290000e+00
    SW  N1dh  1 4.350000e-01    2.100000e+00
    SW  P6ah  1 4.350000e-01    3.640000e+00
    SW  P5ah  1 4.350000e-01    3.640000e+00
    SW  P4ah  1 4.350000e-01    3.440000e+00
    SW  P3ah  1 4.350000e-01    3.240000e+00
    SW  P2ah  1 4.350000e-01    3.240000e+00
    SW  P1ah  1 4.350000e-01    3.050000e+00
    SW  N6ah  1 4.350000e-01    3.050000e+00
    SW  N5ah  1 4.350000e-01    2.860000e+00
    SW  N4ah  1 4.350000e-01    2.670000e+00
    SW  N3ah  1 4.350000e-01    2.670000e+00
    SW  N2ah  1 4.350000e-01    2.290000e+00
    SW  N1ah  1 4.350000e-01    2.100000e+00
    SW  C6vh  1 4.350000e-01    2.290000e+00
    SW  C5vh  1 4.350000e-01    2.100000e+00
    SW  C4vh  1 4.350000e-01    1.920000e+00
    SW  C3vh  1 4.350000e-01    1.920000e+00
    SW  C2vh  1 4.350000e-01    1.740000e+00
    SW  C1vh  1 4.350000e-01    1.410000e+00
    SW  X4vh  1 4.350000e-01    2.290000e+00
    SW  X3vh  1 4.350000e-01    2.100000e+00
    SW  X2vh  1 4.350000e-01    2.100000e+00
    SW  X1vh  1 4.350000e-01    1.740000e+00
    SW  C6eh  1 4.350000e-01    2.290000e+00
    SW  C5eh  1 4.350000e-01    2.100000e+00
    SW  C4eh  1 4.350000e-01    1.920000e+00
    SW  C3eh  1 4.350000e-01    1.920000e+00
    SW  C2eh  1 4.350000e-01    1.740000e+00
    SW  C1eh  1 4.350000e-01    1.410000e+00
    SW  X4eh  1 4.350000e-01    2.290000e+00
    SW  X3eh  1 4.350000e-01    2.100000e+00
    SW  X2eh  1 4.350000e-01    2.100000e+00
    SW  X1eh  1 4.350000e-01    1.740000e+00
    SW   P6r  1 4.350000e-01    3.880000e+00
    SW   P5r  1 4.350000e-01    3.880000e+00
    SW   P4r  1 4.350000e-01    3.640000e+00
    SW   P3r  1 4.350000e-01    3.440000e+00
    SW   P2r  1 4.350000e-01    3.440000e+00
    SW   P1r  1 4.350000e-01    3.240000e+00
    SW   N6r  1 4.350000e-01    3.240000e+00
    SW   N5r  1 4.350000e-01    3.050000e+00
    SW   N4r  1 4.350000e-01    2.860000e+00
    SW   N3r  1 4.350000e-01    2.860000e+00
    SW   N2r  1 4.350000e-01    2.480000e+00
    SW   N1r  1 4.350000e-01    2.290000e+00
    SW   C6r  1 4.350000e-01    2.100000e+00
    SW   C5r  1 4.350000e-01    1.920000e+00
    SW   C4r  1 4.350000e-01    1.740000e+00
    SW   C3r  1 4.350000e-01    1.740000e+00
    SW   C2r  1 4.350000e-01    1.570000e+00
    SW   C1r  1 4.400000e-01    1.270000e+00
    SW   X4r  1 4.350000e-01    2.100000e+00
    SW   X3r  1 4.350000e-01    1.920000e+00
    SW   X2r  1 4.350000e-01    1.920000e+00
    SW   X1r  1 4.350000e-01    1.570000e+00
    SW  P6dr  1 4.350000e-01    3.640000e+00
    SW  P5dr  1 4.350000e-01    3.640000e+00
    SW  P4dr  1 4.350000e-01    3.440000e+00
    SW  P3dr  1 4.350000e-01    3.240000e+00
    SW  P2dr  1 4.350000e-01    3.240000e+00
    SW  P1dr  1 4.350000e-01    3.050000e+00
    SW  N6dr  1 4.350000e-01    3.050000e+00
    SW  N5dr  1 4.350000e-01    2.860000e+00
    SW  N4dr  1 4.350000e-01    2.670000e+00
    SW  N3dr  1 4.350000e-01    2.670000e+00
    SW  N2dr  1 4.350000e-01    2.290000e+00
    SW  N1dr  1 4.350000e-01    2.100000e+00
    SW  P6ar  1 4.350000e-01    3.640000e+00
    SW  P5ar  1 4.350000e-01    3.640000e+00
    SW  P4ar  1 4.350000e-01    3.440000e+00
    SW  P3ar  1 4.350000e-01    3.240000e+00
    SW  P2ar  1 4.350000e-01    3.240000e+00
    SW  P1ar  1 4.350000e-01    3.050000e+00
    SW  N6ar  1 4.350000e-01    3.050000e+00
    SW  N5ar  1 4.350000e-01    2.860000e+00
    SW  N4ar  1 4.350000e-01    2.670000e+00
    SW  N3ar  1 4.350000e-01    2.670000e+00
    SW  N2ar  1 4.350000e-01    2.290000e+00
    SW  N1ar  1 4.350000e-01    2.100000e+00
    SW  C6vr  1 4.350000e-01    2.290000e+00
    SW  C5vr  1 4.350000e-01    2.100000e+00
    SW  C4vr  1 4.350000e-01    1.920000e+00
    SW  C3vr  1 4.350000e-01    1.920000e+00
    SW  C2vr  1 4.350000e-01    1.740000e+00
    SW  C1vr  1 4.350000e-01    1.410000e+00
    SW  X4vr  1 4.350000e-01    2.290000e+00
    SW  X3vr  1 4.350000e-01    2.100000e+00
    SW  X2vr  1 4.350000e-01    2.100000e+00
    SW  X1vr  1 4.350000e-01    1.740000e+00
    SW  C6er  1 4.350000e-01    2.290000e+00
    SW  C5er  1 4.350000e-01    2.100000e+00
    SW  C4er  1 4.350000e-01    1.920000e+00
    SW  C3er  1 4.350000e-01    1.920000e+00
    SW  C2er  1 4.350000e-01    1.740000e+00
    SW  C1er  1 4.350000e-01    1.410000e+00
    SW  X4er  1 4.350000e-01    2.290000e+00
    SW  X3er  1 4.350000e-01    2.100000e+00
    SW  X2er  1 4.350000e-01    2.100000e+00
    SW  X1er  1 4.350000e-01    1.740000e+00
    SW    SW  1 4.100000e-01    3.200000e+00
    SW  SP6d  1 4.050000e-01    3.460000e+00
    SW  SP5d  1 4.050000e-01    3.460000e+00
    SW  SP4d  1 4.050000e-01    3.220000e+00
    SW  SP3d  1 4.050000e-01    3.000000e+00
    SW  SP2d  1 4.050000e-01    3.000000e+00
    SW  SP1d  1 4.050000e-01    2.780000e+00
    SW  SN6d  1 4.050000e-01    2.780000e+00
    SW  SN5d  1 4.050000e-01    2.560000e+00
    SW  SN4d  1 4.050000e-01    2.340000e+00
    SW  SN3d  1 4.050000e-01    2.340000e+00
    SW  SN2d  1 4.050000e-01    1.900000e+00
    SW  SN1d  1 4.050000e-01    1.680000e+00
    SW  SP6a  1 4.050000e-01    3.460000e+00
    SW  SP5a  1 4.050000e-01    3.460000e+00
    SW  SP4a  1 4.050000e-01    3.220000e+00
    SW  SP3a  1 4.050000e-01    3.000000e+00
    SW  SP2a  1 4.050000e-01    3.000000e+00
    SW  SP1a  1 4.050000e-01    2.780000e+00
    SW  SN6a  1 4.050000e-01    2.780000e+00
    SW  SN5a  1 4.050000e-01    2.560000e+00
    SW  SN4a  1 4.050000e-01    2.340000e+00
    SW  SN3a  1 4.050000e-01    2.340000e+00
    SW  SN2a  1 4.050000e-01    1.900000e+00
    SW  SN1a  1 4.050000e-01    1.680000e+00
    SW  SC6v  1 4.050000e-01    1.900000e+00
    SW  SC5v  1 4.050000e-01    1.680000e+00
    SW  SC4v  1 4.050000e-01    1.460000e+00
    SW  SC3v  1 4.050000e-01    1.460000e+00
    SW  SC2v  1 4.050000e-01    1.280000e+00
    SW  SC1v  1 4.140000e-01    9.300000e-01
    SW  SX4v  1 4.050000e-01    1.900000e+00
    SW  SX3v  1 4.050000e-01    1.680000e+00
    SW  SX2v  1 4.050000e-01    1.680000e+00
    SW  SX1v  1 4.050000e-01    1.280000e+00
    SW  SC6e  1 4.050000e-01    1.900000e+00
    SW  SC5e  1 4.050000e-01    1.680000e+00
    SW  SC4e  1 4.050000e-01    1.460000e+00
    SW  SC3e  1 4.050000e-01    1.460000e+00
    SW  SC2e  1 4.050000e-01    1.280000e+00
    SW  SC1e  1 4.140000e-01    9.300000e-01
    SW  SX4e  1 4.050000e-01    1.900000e+00
    SW  SX3e  1 4.050000e-01    1.680000e+00
    SW  SX2e  1 4.050000e-01    1.680000e+00
    SW  SX1e  1 4.050000e-01    1.280000e+00
    SW  SP6q  1 4.050000e-01    4.550000e+00
    SW  SP5q  1 4.050000e-01    4.550000e+00
    SW  SP4q  1 4.050000e-01    4.270000e+00
    SW  SP3q  1 4.050000e-01    4.000000e+00
    SW  SP2q  1 4.050000e-01    4.000000e+00
    SW  SP1q  1 4.050000e-01    3.730000e+00
    SW  SN6q  1 4.050000e-01    3.730000e+00
    SW  SN5q  1 4.050000e-01    3.460000e+00
    SW  SN4q  1 4.050000e-01    3.220000e+00
    SW  SN3q  1 4.050000e-01    3.220000e+00
    SW  SN2q  1 4.050000e-01    2.780000e+00
    SW  SN1q  1 4.050000e-01    2.560000e+00
    SW  SC6q  1 4.050000e-01    2.340000e+00
    SW  SC5q  1 4.050000e-01    2.120000e+00
    SW  SC4q  1 4.050000e-01    1.900000e+00
    SW  SC3q  1 4.050000e-01    1.900000e+00
    SW  SC2q  1 4.050000e-01    1.680000e+00
    SW  SC1q  1 4.050000e-01    1.280000e+00
    SW  SX4q  1 4.050000e-01    2.340000e+00
    SW  SX3q  1 4.050000e-01    2.120000e+00
    SW  SX2q  1 4.050000e-01    2.120000e+00
    SW  SX1q  1 4.050000e-01    1.680000e+00
    SW SP6dq  1 4.050000e-01    4.270000e+00
    SW SP5dq  1 4.050000e-01    4.270000e+00
    SW SP4dq  1 4.050000e-01    4.000000e+00
    SW SP3dq  1 4.050000e-01    3.730000e+00
    SW SP2dq  1 4.050000e-01    3.730000e+00
    SW SP1dq  1 4.050000e-01    3.460000e+00
    SW SN6dq  1 4.050000e-01    3.460000e+00
    SW SN5dq  1 4.050000e-01    3.220000e+00
    SW SN4dq  1 4.050000e-01    3.000000e+00
    SW SN3dq  1 4.050000e-01    3.000000e+00
    SW SN2dq  1 4.050000e-01    2.560000e+00
    SW SN1dq  1 4.050000e-01    2.340000e+00
    SW SP6aq  1 4.050000e-01    4.270000e+00
    SW SP5aq  1 4.050000e-01    4.270000e+00
    SW SP4aq  1 4.050000e-01    4.000000e+00
    SW SP3aq  1 4.050000e-01    3.730000e+00
    SW SP2aq  1 4.050000e-01    3.730000e+00
    SW SP1aq  1 4.050000e-01    3.460000e+00
    SW SN6aq  1 4.050000e-01    3.460000e+00
    SW SN5aq  1 4.050000e-01    3.220000e+00
    SW SN4aq  1 4.050000e-01    3.000000e+00
    SW SN3aq  1 4.050000e-01    3.000000e+00
    SW SN2aq  1 4.050000e-01    2.560000e+00
    SW SN1aq  1 4.050000e-01    2.340000e+00
    SW SC6vq  1 4.050000e-01    2.560000e+00
    SW SC5vq  1 4.050000e-01    2.340000e+00
    SW SC4vq  1 4.050000e-01    2.120000e+00
    SW SC3vq  1 4.050000e-01    2.120000e+00
    SW SC2vq  1 4.050000e-01    1.900000e+00
    SW SC1vq  1 4.050000e-01    1.460000e+00
    SW SX4vq  1 4.050000e-01    2.560000e+00
    SW SX3vq  1 4.050000e-01    2.340000e+00
    SW SX2vq  1 4.050000e-01    2.340000e+00
    SW SX1vq  1 4.050000e-01    1.900000e+00
    SW SC6eq  1 4.050000e-01    2.560000e+00
    SW SC5eq  1 4.050000e-01    2.340000e+00
    SW SC4eq  1 4.050000e-01    2.120000e+00
    SW SC3eq  1 4.050000e-01    2.120000e+00
    SW SC2eq  1 4.050000e-01    1.900000e+00
    SW SC1eq  1 4.050000e-01    1.460000e+00
    SW SX4eq  1 4.050000e-01    2.560000e+00
    SW SX3eq  1 4.050000e-01    2.340000e+00
    SW SX2eq  1 4.050000e-01    2.340000e+00
    SW SX1eq  1 4.050000e-01    1.900000e+00
    SW  SP6h  1 4.050000e-01    3.730000e+00
    SW  SP5h  1 4.050000e-01    3.730000e+00
    SW  SP4h  1 4.050000e-01    3.460000e+00
    SW  SP3h  1 4.050000e-01    3.220000e+00
    SW  SP2h  1 4.050000e-01    3.220000e+00
    SW  SP1h  1 4.050000e-01    3.000000e+00
    SW  SN6h  1 4.050000e-01    3.000000e+00
    SW  SN5h  1 4.050000e-01    2.780000e+00
    SW  SN4h  1 4.050000e-01    2.560000e+00
    SW  SN3h  1 4.050000e-01    2.560000e+00
    SW  SN2h  1 4.050000e-01    2.120000e+00
    SW  SN1h  1 4.050000e-01    1.900000e+00
    SW  SC6h  1 4.050000e-01    1.680000e+00
    SW  SC5h  1 4.050000e-01    1.460000e+00
    SW  SC4h  1 4.050000e-01    1.280000e+00
    SW  SC3h  1 4.050000e-01    1.280000e+00
    SW  SC2h  1 4.050000e-01    1.100000e+00
    SW  SC1h  1 4.230000e-01    8.000000e-01
    SW  SX4h  1 4.050000e-01    1.680000e+00
    SW  SX3h  1 4.050000e-01    1.460000e+00
    SW  SX2h  1 4.050000e-01    1.460000e+00
    SW  SX1h  1 4.050000e-01    1.100000e+00
    SW SP6dh  1 4.050000e-01    3.460000e+00
    SW SP5dh  1 4.050000e-01    3.460000e+00
    SW SP4dh  1 4.050000e-01    3.220000e+00
    SW SP3dh  1 4.050000e-01    3.000000e+00
    SW SP2dh  1 4.050000e-01    3.000000e+00
    SW SP1dh  1 4.050000e-01    2.780000e+00
    SW SN6dh  1 4.050000e-01    2.780000e+00
    SW SN5dh  1 4.050000e-01    2.560000e+00
    SW SN4dh  1 4.050000e-01    2.340000e+00
    SW SN3dh  1 4.050000e-01    2.340000e+00
    SW SN2dh  1 4.050000e-01    1.900000e+00
    SW SN1dh  1 4.050000e-01    1.680000e+00
    SW SP6ah  1 4.050000e-01    3.460000e+00
    SW SP5ah  1 4.050000e-01    3.460000e+00
    SW SP4ah  1 4.050000e-01    3.220000e+00
    SW SP3ah  1 4.050000e-01    3.000000e+00
    SW SP2ah  1 4.050000e-01    3.000000e+00
    SW SP1ah  1 4.050000e-01    2.780000e+00
    SW SN6ah  1 4.050000e-01    2.780000e+00
    SW SN5ah  1 4.050000e-01    2.560000e+00
    SW SN4ah  1 4.050000e-01    2.340000e+00
    SW SN3ah  1 4.050000e-01    2.340000e+00
    SW SN2ah  1 4.050000e-01    1.900000e+00
    SW SN1ah  1 4.050000e-01    1.680000e+00
    SW SC6vh  1 4.050000e-01    1.900000e+00
    SW SC5vh  1 4.050000e-01    1.680000e+00
    SW SC4vh  1 4.050000e-01    1.460000e+00
    SW SC3vh  1 4.050000e-01    1.460000e+00
    SW SC2vh  1 4.050000e-01    1.280000e+00
    SW SC1vh  1 4.140000e-01    9.300000e-01
    SW SX4vh  1 4.050000e-01    1.900000e+00
    SW SX3vh  1 4.050000e-01    1.680000e+00
    SW SX2vh  1 4.050000e-01    1.680000e+00
    SW SX1vh  1 4.050000e-01    1.280000e+00
    SW SC6eh  1 4.050000e-01    1.900000e+00
    SW SC5eh  1 4.050000e-01    1.680000e+00
    SW SC4eh  1 4.050000e-01    1.460000e+00
    SW SC3eh  1 4.050000e-01    1.460000e+00
    SW SC2eh  1 4.050000e-01    1.280000e+00
    SW SC1eh  1 4.140000e-01    9.300000e-01
    SW SX4eh  1 4.050000e-01    1.900000e+00
    SW SX3eh  1 4.050000e-01    1.680000e+00
    SW SX2eh  1 4.050000e-01    1.680000e+00
    SW SX1eh  1 4.050000e-01    1.280000e+00
    SW  SP6r  1 4.050000e-01    3.730000e+00
    SW  SP5r  1 4.050000e-01    3.730000e+00
    SW  SP4r  1 4.050000e-01    3.460000e+00
    SW  SP3r  1 4.050000e-01    3.220000e+00
    SW  SP2r  1 4.050000e-01    3.220000e+00
    SW  SP1r  1 4.050000e-01    3.000000e+00
    SW  SN6r  1 4.050000e-01    3.000000e+00
    SW  SN5r  1 4.050000e-01    2.780000e+00
    SW  SN4r  1 4.050000e-01    2.560000e+00
    SW  SN3r  1 4.050000e-01    2.560000e+00
    SW  SN2r  1 4.050000e-01    2.120000e+00
    SW  SN1r  1 4.050000e-01    1.900000e+00
    SW  SC6r  1 4.050000e-01    1.680000e+00
    SW  SC5r  1 4.050000e-01    1.460000e+00
    SW  SC4r  1 4.050000e-01    1.280000e+00
    SW  SC3r  1 4.050000e-01    1.280000e+00
    SW  SC2r  1 4.050000e-01    1.100000e+00
    SW  SC1r  1 4.230000e-01    8.000000e-01
    SW  SX4r  1 4.050000e-01    1.680000e+00
    SW  SX3r  1 4.050000e-01    1.460000e+00
    SW  SX2r  1 4.050000e-01    1.460000e+00
    SW  SX1r  1 4.050000e-01    1.100000e+00
    SW SP6dr  1 4.050000e-01    3.460000e+00
    SW SP5dr  1 4.050000e-01    3.460000e+00
    SW SP4dr  1 4.050000e-01    3.220000e+00
    SW SP3dr  1 4.050000e-01    3.000000e+00
    SW SP2dr  1 4.050000e-01    3.000000e+00
    SW SP1dr  1 4.050000e-01    2.780000e+00
    SW SN6dr  1 4.050000e-01    2.780000e+00
    SW SN5dr  1 4.050000e-01    2.560000e+00
    SW SN4dr  1 4.050000e-01    2.340000e+00
    SW SN3dr  1 4.050000e-01    2.340000e+00
    SW SN2dr  1 4.050000e-01    1.900000e+00
    SW SN1dr  1 4.050000e-01    1.680000e+00
    SW SP6ar  1 4.050000e-01    3.460000e+00
    SW SP5ar  1 4.050000e-01    3.460000e+00
    SW SP4ar  1 4.050000e-01    3.220000e+00
    SW SP3ar  1 4.050000e-01    3.000000e+00
    SW SP2ar  1 4.050000e-01    3.000000e+00
    SW SP1ar  1 4.050000e-01    2.780000e+00
    SW SN6ar  1 4.050000e-01    2.780000e+00
    SW SN5ar  1 4.050000e-01    2.560000e+00
    SW SN4ar  1 4.050000e-01    2.340000e+00
    SW SN3ar  1 4.050000e-01    2.340000e+00
    SW SN2ar  1 4.050000e-01    1.900000e+00
    SW SN1ar  1 4.050000e-01    1.680000e+00
    SW SC6vr  1 4.050000e-01    1.900000e+00
    SW SC5vr  1 4.050000e-01    1.680000e+00
    SW SC4vr  1 4.050000e-01    1.460000e+00
    SW SC3vr  1 4.050000e-01    1.460000e+00
    SW SC2vr  1 4.050000e-01    1.280000e+00
    SW SC1vr  1 4.140000e-01    9.300000e-01
    SW SX4vr  1 4.050000e-01    1.900000e+00
    SW SX3vr  1 4.050000e-01    1.680000e+00
    SW SX2vr  1 4.050000e-01    1.680000e+00
    SW SX1vr  1 4.050000e-01    1.280000e+00
    SW SC6er  1 4.050000e-01    1.900000e+00
    SW SC5er  1 4.050000e-01    1.680000e+00
    SW SC4er  1 4.050000e-01    1.460000e+00
    SW SC3er  1 4.050000e-01    1.460000e+00
    SW SC2er  1 4.050000e-01    1.280000e+00
    SW SC1er  1 4.140000e-01    9.300000e-01
    SW SX4er  1 4.050000e-01    1.900000e+00
    SW SX3er  1 4.050000e-01    1.680000e+00
    SW SX2er  1 4.050000e-01    1.680000e+00
    SW SX1er  1 4.050000e-01    1.280000e+00
    SW    TW  1 3.800000e-01    2.950000e+00
    SW  TP6d  1 3.750000e-01    3.340000e+00
    SW  TP5d  1 3.750000e-01    3.340000e+00
    SW  TP4d  1 3.750000e-01    3.030000e+00
    SW  TP3d  1 3.750000e-01    2.720000e+00
    SW  TP2d  1 3.750000e-01    2.720000e+00
    SW  TP1d  1 3.750000e-01    2.430000e+00
    SW  TN6d  1 3.750000e-01    2.430000e+00
    SW  TN5d  1 3.750000e-01    2.150000e+00
    SW  TN4d  1 3.750000e-01    1.870000e+00
    SW  TN3d  1 3.750000e-01    1.870000e+00
    SW  TN2d  1 3.750000e-01    1.370000e+00
    SW  TN1d  1 3.750000e-01    1.130000e+00
    SW  TP6a  1 3.750000e-01    3.340000e+00
    SW  TP5a  1 3.750000e-01    3.340000e+00
    SW  TP4a  1 3.750000e-01    3.030000e+00
    SW  TP3a  1 3.750000e-01    2.720000e+00
    SW  TP2a  1 3.750000e-01    2.720000e+00
    SW  TP1a  1 3.750000e-01    2.430000e+00
    SW  TN6a  1 3.750000e-01    2.430000e+00
    SW  TN5a  1 3.750000e-01    2.150000e+00
    SW  TN4a  1 3.750000e-01    1.870000e+00
    SW  TN3a  1 3.750000e-01    1.870000e+00
    SW  TN2a  1 3.750000e-01    1.370000e+00
    SW  TN1a  1 3.750000e-01    1.130000e+00
    SW  TC6v  1 3.750000e-01    1.370000e+00
    SW  TC5v  1 3.750000e-01    1.130000e+00
    SW  TC4v  1 3.750000e-01    9.500000e-01
    SW  TC3v  1 3.750000e-01    9.500000e-01
    SW  TC2v  1 3.880000e-01    8.300000e-01
    SW  TC1v  1 4.080000e-01    6.100000e-01
    SW  TX4v  1 3.750000e-01    1.370000e+00
    SW  TX3v  1 3.750000e-01    1.130000e+00
    SW  TX2v  1 3.750000e-01    1.130000e+00
    SW  TX1v  1 3.880000e-01    8.300000e-01
    SW  TC6e  1 3.750000e-01    1.370000e+00
    SW  TC5e  1 3.750000e-01    1.130000e+00
    SW  TC4e  1 3.750000e-01    9.500000e-01
    SW  TC3e  1 3.750000e-01    9.500000e-01
    SW  TC2e  1 3.880000e-01    8.300000e-01
    SW  TC1e  1 4.080000e-01    6.100000e-01
    SW  TX4e  1 3.750000e-01    1.370000e+00
    SW  TX3e  1 3.750000e-01    1.130000e+00
    SW  TX2e  1 3.750000e-01    1.130000e+00
    SW  TX1e  1 3.880000e-01    8.300000e-01
    SW  TP6q  1 3.750000e-01    4.670000e+00
    SW  TP5q  1 3.750000e-01    4.670000e+00
    SW  TP4q  1 3.750000e-01    4.320000e+00
    SW  TP3q  1 3.750000e-01    3.960000e+00
    SW  TP2q  1 3.750000e-01    3.960000e+00
    SW  TP1q  1 3.750000e-01    3.650000e+00
    SW  TN6q  1 3.750000e-01    3.650000e+00
    SW  TN5q  1 3.750000e-01    3.340000e+00
    SW  TN4q  1 3.750000e-01    3.030000e+00
    SW  TN3q  1 3.750000e-01    3.030000e+00
    SW  TN2q  1 3.750000e-01    2.430000e+00
    SW  TN1q  1 3.750000e-01    2.150000e+00
    SW  TC6q  1 3.750000e-01    1.870000e+00
    SW  TC5q  1 3.750000e-01    1.620000e+00
    SW  TC4q  1 3.750000e-01    1.370000e+00
    SW  TC3q  1 3.750000e-01    1.370000e+00
    SW  TC2q  1 3.750000e-01    1.130000e+00
    SW  TC1q  1 3.880000e-01    8.300000e-01
    SW  TX4q  1 3.750000e-01    1.870000e+00
    SW  TX3q  1 3.750000e-01    1.620000e+00
    SW  TX2q  1 3.750000e-01    1.620000e+00
    SW  TX1q  1 3.750000e-01    1.130000e+00
    SW TP6dq  1 3.750000e-01    4.320000e+00
    SW TP5dq  1 3.750000e-01    4.320000e+00
    SW TP4dq  1 3.750000e-01    3.960000e+00
    SW TP3dq  1 3.750000e-01    3.650000e+00
    SW TP2dq  1 3.750000e-01    3.650000e+00
    SW TP1dq  1 3.750000e-01    3.340000e+00
    SW TN6dq  1 3.750000e-01    3.340000e+00
    SW TN5dq  1 3.750000e-01    3.030000e+00
    SW TN4dq  1 3.750000e-01    2.720000e+00
    SW TN3dq  1 3.750000e-01    2.720000e+00
    SW TN2dq  1 3.750000e-01    2.150000e+00
    SW TN1dq  1 3.750000e-01    1.870000e+00
    SW TP6aq  1 3.750000e-01    4.320000e+00
    SW TP5aq  1 3.750000e-01    4.320000e+00
    SW TP4aq  1 3.750000e-01    3.960000e+00
    SW TP3aq  1 3.750000e-01    3.650000e+00
    SW TP2aq  1 3.750000e-01    3.650000e+00
    SW TP1aq  1 3.750000e-01    3.340000e+00
    SW TN6aq  1 3.750000e-01    3.340000e+00
    SW TN5aq  1 3.750000e-01    3.030000e+00
    SW TN4aq  1 3.750000e-01    2.720000e+00
    SW TN3aq  1 3.750000e-01    2.720000e+00
    SW TN2aq  1 3.750000e-01    2.150000e+00
    SW TN1aq  1 3.750000e-01    1.870000e+00
    SW TC6vq  1 3.750000e-01    2.150000e+00
    SW TC5vq  1 3.750000e-01    1.870000e+00
    SW TC4vq  1 3.750000e-01    1.620000e+00
    SW TC3vq  1 3.750000e-01    1.620000e+00
    SW TC2vq  1 3.750000e-01    1.370000e+00
    SW TC1vq  1 3.750000e-01    9.500000e-01
    SW TX4vq  1 3.750000e-01    2.150000e+00
    SW TX3vq  1 3.750000e-01    1.870000e+00
    SW TX2vq  1 3.750000e-01    1.870000e+00
    SW TX1vq  1 3.750000e-01    1.370000e+00
    SW TC6eq  1 3.750000e-01    2.150000e+00
    SW TC5eq  1 3.750000e-01    1.870000e+00
    SW TC4eq  1 3.750000e-01    1.620000e+00
    SW TC3eq  1 3.750000e-01    1.620000e+00
    SW TC2eq  1 3.750000e-01    1.370000e+00
    SW TC1eq  1 3.750000e-01    9.500000e-01
    SW TX4eq  1 3.750000e-01    2.150000e+00
    SW TX3eq  1 3.750000e-01    1.870000e+00
    SW TX2eq  1 3.750000e-01    1.870000e+00
    SW TX1eq  1 3.750000e-01    1.370000e+00
    SW  TP6h  1 3.750000e-01    3.650000e+00
    SW  TP5h  1 3.750000e-01    3.650000e+00
    SW  TP4h  1 3.750000e-01    3.340000e+00
    SW  TP3h  1 3.750000e-01    3.030000e+00
    SW  TP2h  1 3.750000e-01    3.030000e+00
    SW  TP1h  1 3.750000e-01    2.720000e+00
    SW  TN6h  1 3.750000e-01    2.720000e+00
    SW  TN5h  1 3.750000e-01    2.430000e+00
    SW  TN4h  1 3.750000e-01    2.150000e+00
    SW  TN3h  1 3.750000e-01    2.150000e+00
    SW  TN2h  1 3.750000e-01    1.620000e+00
    SW  TN1h  1 3.750000e-01    1.370000e+00
    SW  TC6h  1 3.750000e-01    1.130000e+00
    SW  TC5h  1 3.750000e-01    9.500000e-01
    SW  TC4h  1 3.880000e-01    8.300000e-01
    SW  TC3h  1 3.880000e-01    8.300000e-01
    SW  TC2h  1 3.950000e-01    7.100000e-01
    SW  TC1h  1 4.320000e-01    5.500000e-01
    SW  TX4h  1 3.750000e-01    1.130000e+00
    SW  TX3h  1 3.750000e-01    9.500000e-01
    SW  TX2h  1 3.750000e-01    9.500000e-01
    SW  TX1h  1 3.950000e-01    7.100000e-01
    SW TP6dh  1 3.750000e-01    3.340000e+00
    SW TP5dh  1 3.750000e-01    3.340000e+00
    SW TP4dh  1 3.750000e-01    3.030000e+00
    SW TP3dh  1 3.750000e-01    2.720000e+00
    SW TP2dh  1 3.750000e-01    2.720000e+00
    SW TP1dh  1 3.750000e-01    2.430000e+00
    SW TN6dh  1 3.750000e-01    2.430000e+00
    SW TN5dh  1 3.750000e-01    2.150000e+00
    SW TN4dh  1 3.750000e-01    1.870000e+00
    SW TN3dh  1 3.750000e-01    1.870000e+00
    SW TN2dh  1 3.750000e-01    1.370000e+00
    SW TN1dh  1 3.750000e-01    1.130000e+00
    SW TP6ah  1 3.750000e-01    3.340000e+00
    SW TP5ah  1 3.750000e-01    3.340000e+00
    SW TP4ah  1 3.750000e-01    3.030000e+00
    SW TP3ah  1 3.750000e-01    2.720000e+00
    SW TP2ah  1 3.750000e-01    2.720000e+00
    SW TP1ah  1 3.750000e-01    2.430000e+00
    SW TN6ah  1 3.750000e-01    2.430000e+00
    SW TN5ah  1 3.750000e-01    2.150000e+00
    SW TN4ah  1 3.750000e-01    1.870000e+00
    SW TN3ah  1 3.750000e-01    1.870000e+00
    SW TN2ah  1 3.750000e-01    1.370000e+00
    SW TN1ah  1 3.750000e-01    1.130000e+00
    SW TC6vh  1 3.750000e-01    1.370000e+00
    SW TC5vh  1 3.750000e-01    1.130000e+00
    SW TC4vh  1 3.750000e-01    9.500000e-01
    SW TC3vh  1 3.750000e-01    9.500000e-01
    SW TC2vh  1 3.880000e-01    8.300000e-01
    SW TC1vh  1 4.080000e-01    6.100000e-01
    SW TX4vh  1 3.750000e-01    1.370000e+00
    SW TX3vh  1 3.750000e-01    1.130000e+00
    SW TX2vh  1 3.750000e-01    1.130000e+00
    SW TX1vh  1 3.880000e-01    8.300000e-01
    SW TC6eh  1 3.750000e-01    1.370000e+00
    SW TC5eh  1 3.750000e-01    1.130000e+00
    SW TC4eh  1 3.750000e-01    9.500000e-01
    SW TC3eh  1 3.750000e-01    9.500000e-01
    SW TC2eh  1 3.880000e-01    8.300000e-01
    SW TC1eh  1 4.080000e-01    6.100000e-01
    SW TX4eh  1 3.750000e-01    1.370000e+00
    SW TX3eh  1 3.750000e-01    1.130000e+00
    SW TX2eh  1 3.750000e-01    1.130000e+00
    SW TX1eh  1 3.880000e-01    8.300000e-01
    SW  TP6r  1 3.750000e-01    3.650000e+00
    SW  TP5r  1 3.750000e-01    3.650000e+00
    SW  TP4r  1 3.750000e-01    3.340000e+00
    SW  TP3r  1 3.750000e-01    3.030000e+00
    SW  TP2r  1 3.750000e-01    3.030000e+00
    SW  TP1r  1 3.750000e-01    2.720000e+00
    SW  TN6r  1 3.750000e-01    2.720000e+00
    SW  TN5r  1 3.750000e-01    2.430000e+00
    SW  TN4r  1 3.750000e-01    2.150000e+00
    SW  TN3r  1 3.750000e-01    2.150000e+00
    SW  TN2r  1 3.750000e-01    1.620000e+00
    SW  TN1r  1 3.750000e-01    1.370000e+00
    SW  TC6r  1 3.750000e-01    1.130000e+00
    SW  TC5r  1 3.750000e-01    9.500000e-01
    SW  TC4r  1 3.880000e-01    8.300000e-01
    SW  TC3r  1 3.880000e-01    8.300000e-01
    SW  TC2r  1 3.950000e-01    7.100000e-01
    SW  TC1r  1 4.320000e-01    5.500000e-01
    SW  TX4r  1 3.750000e-01    1.130000e+00
    SW  TX3r  1 3.750000e-01    9.500000e-01
    SW  TX2r  1 3.750000e-01    9.500000e-01
    SW  TX1r  1 3.950000e-01    7.100000e-01
    SW TP6dr  1 3.750000e-01    3.340000e+00
    SW TP5dr  1 3.750000e-01    3.340000e+00
    SW TP4dr  1 3.750000e-01    3.030000e+00
    SW TP3dr  1 3.750000e-01    2.720000e+00
    SW TP2dr  1 3.750000e-01    2.720000e+00
    SW TP1dr  1 3.750000e-01    2.430000e+00
    SW TN6dr  1 3.750000e-01    2.430000e+00
    SW TN5dr  1 3.750000e-01    2.150000e+00
    SW TN4dr  1 3.750000e-01    1.870000e+00
    SW TN3dr  1 3.750000e-01    1.870000e+00
    SW TN2dr  1 3.750000e-01    1.370000e+00
    SW TN1dr  1 3.750000e-01    1.130000e+00
    SW TP6ar  1 3.750000e-01    3.340000e+00
    SW TP5ar  1 3.750000e-01    3.340000e+00
    SW TP4ar  1 3.750000e-01    3.030000e+00
    SW TP3ar  1 3.750000e-01    2.720000e+00
    SW TP2ar  1 3.750000e-01    2.720000e+00
    SW TP1ar  1 3.750000e-01    2.430000e+00
    SW TN6ar  1 3.750000e-01    2.430000e+00
    SW TN5ar  1 3.750000e-01    2.150000e+00
    SW TN4ar  1 3.750000e-01    1.870000e+00
    SW TN3ar  1 3.750000e-01    1.870000e+00
    SW TN2ar  1 3.750000e-01    1.370000e+00
    SW TN1ar  1 3.750000e-01    1.130000e+00
    SW TC6vr  1 3.750000e-01    1.370000e+00
    SW TC5vr  1 3.750000e-01    1.130000e+00
    SW TC4vr  1 3.750000e-01    9.500000e-01
    SW TC3vr  1 3.750000e-01    9.500000e-01
    SW TC2vr  1 3.880000e-01    8.300000e-01
    SW TC1vr  1 4.080000e-01    6.100000e-01
    SW TX4vr  1 3.750000e-01    1.370000e+00
    SW TX3vr  1 3.750000e-01    1.130000e+00
    SW TX2vr  1 3.750000e-01    1.130000e+00
    SW TX1vr  1 3.880000e-01    8.300000e-01
    SW TC6er  1 3.750000e-01    1.370000e+00
    SW TC5er  1 3.750000e-01    1.130000e+00
    SW TC4er  1 3.750000e-01    9.500000e-01
    SW TC3er  1 3.750000e-01    9.500000e-01
    SW TC2er  1 3.880000e-01    8.300000e-01
    SW TC1er  1 4.080000e-01    6.100000e-01
    SW TX4er  1 3.750000e-01    1.370000e+00
    SW TX3er  1 3.750000e-01    1.130000e+00
    SW TX2er  1 3.750000e-01    1.130000e+00
    SW TX1er  1 3.880000e-01    8.300000e-01
    TW   P6d  1 3.950000e-01    3.210000e+00
    TW   P5d  1 3.950000e-01    3.210000e+00
    TW   P4d  1 3.950000e-01    3.020000e+00
    TW   P3d  1 3.950000e-01    2.840000e+00
    TW   P2d  1 3.950000e-01    2.840000e+00
    TW   P1d  1 3.950000e-01    2.670000e+00
    TW   N6d  1 3.950000e-01    2.670000e+00
    TW   N5d  1 3.950000e-01    2.510000e+00
    TW   N4d  1 3.950000e-01    2.350000e+00
    TW   N3d  1 3.950000e-01    2.350000e+00
    TW   N2d  1 3.950000e-01    2.030000e+00
    TW   N1d  1 3.950000e-01    1.880000e+00
    TW   P6a  1 3.950000e-01    3.210000e+00
    TW   P5a  1 3.950000e-01    3.210000e+00
    TW   P4a  1 3.950000e-01    3.020000e+00
    TW   P3a  1 3.950000e-01    2.840000e+00
    TW   P2a  1 3.950000e-01    2.840000e+00
    TW   P1a  1 3.950000e-01    2.670000e+00
    TW   N6a  1 3.950000e-01    2.670000e+00
    TW   N5a  1 3.950000e-01    2.510000e+00
    TW   N4a  1 3.950000e-01    2.350000e+00
    TW   N3a  1 3.950000e-01    2.350000e+00
    TW   N2a  1 3.950000e-01    2.030000e+00
    TW   N1a  1 3.950000e-01    1.880000e+00
    TW   C6v  1 3.950000e-01    2.030000e+00
    TW   C5v  1 3.950000e-01    1.880000e+00
    TW   C4v  1 3.950000e-01    1.730000e+00
    TW   C3v  1 3.950000e-01    1.730000e+00
    TW   C2v  1 3.950000e-01    1.590000e+00
    TW   C1v  1 3.950000e-01    1.330000e+00
    TW   X4v  1 3.950000e-01    2.030000e+00
    TW   X3v  1 3.950000e-01    1.880000e+00
    TW   X2v  1 3.950000e-01    1.880000e+00
    TW   X1v  1 3.950000e-01    1.590000e+00
    TW   C6e  1 3.950000e-01    2.030000e+00
    TW   C5e  1 3.950000e-01    1.880000e+00
    TW   C4e  1 3.950000e-01    1.730000e+00
    TW   C3e  1 3.950000e-01    1.730000e+00
    TW   C2e  1 3.950000e-01    1.590000e+00
    TW   C1e  1 3.950000e-01    1.330000e+00
    TW   X4e  1 3.950000e-01    2.030000e+00
    TW   X3e  1 3.950000e-01    1.880000e+00
    TW   X2e  1 3.950000e-01    1.880000e+00
    TW   X1e  1 3.950000e-01    1.590000e+00
    TW   P6q  1 3.950000e-01    4.060000e+00
    TW   P5q  1 3.950000e-01    4.060000e+00
    TW   P4q  1 3.950000e-01    3.830000e+00
    TW   P3q  1 3.950000e-01    3.610000e+00
    TW   P2q  1 3.950000e-01    3.610000e+00
    TW   P1q  1 3.950000e-01    3.410000e+00
    TW   N6q  1 3.950000e-01    3.410000e+00
    TW   N5q  1 3.950000e-01    3.210000e+00
    TW   N4q  1 3.950000e-01    3.020000e+00
    TW   N3q  1 3.950000e-01    3.020000e+00
    TW   N2q  1 3.950000e-01    2.670000e+00
    TW   N1q  1 3.950000e-01    2.510000e+00
    TW   C6q  1 3.950000e-01    2.350000e+00
    TW   C5q  1 3.950000e-01    2.190000e+00
    TW   C4q  1 3.950000e-01    2.030000e+00
    TW   C3q  1 3.950000e-01    2.030000e+00
    TW   C2q  1 3.950000e-01    1.880000e+00
    TW   C1q  1 3.950000e-01    1.590000e+00
    TW   X4q  1 3.950000e-01    2.350000e+00
    TW   X3q  1 3.950000e-01    2.190000e+00
    TW   X2q  1 3.950000e-01    2.190000e+00
    TW   X1q  1 3.950000e-01    1.880000e+00
    TW  P6dq  1 3.950000e-01    3.830000e+00
    TW  P5dq  1 3.950000e-01    3.830000e+00
    TW  P4dq  1 3.950000e-01    3.610000e+00
    TW  P3dq  1 3.950000e-01    3.410000e+00
    TW  P2dq  1 3.950000e-01    3.410000e+00
    TW  P1dq  1 3.950000e-01    3.210000e+00
    TW  N6dq  1 3.950000e-01    3.210000e+00
    TW  N5dq  1 3.950000e-01    3.020000e+00
    TW  N4dq  1 3.950000e-01    2.840000e+00
    TW  N3dq  1 3.950000e-01    2.840000e+00
    TW  N2dq  1 3.950000e-01    2.510000e+00
    TW  N1dq  1 3.950000e-01    2.350000e+00
    TW  P6aq  1 3.950000e-01    3.830000e+00
    TW  P5aq  1 3.950000e-01    3.830000e+00
    TW  P4aq  1 3.950000e-01    3.610000e+00
    TW  P3aq  1 3.950000e-01    3.410000e+00
    TW  P2aq  1 3.950000e-01    3.410000e+00
    TW  P1aq  1 3.950000e-01    3.210000e+00
    TW  N6aq  1 3.950000e-01    3.210000e+00
    TW  N5aq  1 3.950000e-01    3.020000e+00
    TW  N4aq  1 3.950000e-01    2.840000e+00
    TW  N3aq  1 3.950000e-01    2.840000e+00
    TW  N2aq  1 3.950000e-01    2.510000e+00
    TW  N1aq  1 3.950000e-01    2.350000e+00
    TW  C6vq  1 3.950000e-01    2.510000e+00
    TW  C5vq  1 3.950000e-01    2.350000e+00
    TW  C4vq  1 3.950000e-01    2.190000e+00
    TW  C3vq  1 3.950000e-01    2.190000e+00
    TW  C2vq  1 3.950000e-01    2.030000e+00
    TW  C1vq  1 3.950000e-01    1.730000e+00
    TW  X4vq  1 3.950000e-01    2.510000e+00
    TW  X3vq  1 3.950000e-01    2.350000e+00
    TW  X2vq  1 3.950000e-01    2.350000e+00
    TW  X1vq  1 3.950000e-01    2.030000e+00
    TW  C6eq  1 3.950000e-01    2.510000e+00
    TW  C5eq  1 3.950000e-01    2.350000e+00
    TW  C4eq  1 3.950000e-01    2.190000e+00
    TW  C3eq  1 3.950000e-01    2.190000e+00
    TW  C2eq  1 3.950000e-01    2.030000e+00
    TW  C1eq  1 3.950000e-01    1.730000e+00
    TW  X4eq  1 3.950000e-01    2.510000e+00
    TW  X3eq  1 3.950000e-01    2.350000e+00
    TW  X2eq  1 3.950000e-01    2.350000e+00
    TW  X1eq  1 3.950000e-01    2.030000e+00
    TW   P6h  1 3.950000e-01    3.410000e+00
    TW   P5h  1 3.950000e-01    3.410000e+00
    TW   P4h  1 3.950000e-01    3.210000e+00
    TW   P3h  1 3.950000e-01    3.020000e+00
    TW   P2h  1 3.950000e-01    3.020000e+00
    TW   P1h  1 3.950000e-01    2.840000e+00
    TW   N6h  1 3.950000e-01    2.840000e+00
    TW   N5h  1 3.950000e-01    2.670000e+00
    TW   N4h  1 3.950000e-01    2.510000e+00
    TW   N3h  1 3.950000e-01    2.510000e+00
    TW   N2h  1 3.950000e-01    2.190000e+00
    TW   N1h  1 3.950000e-01    2.030000e+00
    TW   C6h  1 3.950000e-01    1.880000e+00
    TW   C5h  1 3.950000e-01    1.730000e+00
    TW   C4h  1 3.950000e-01    1.590000e+00
    TW   C3h  1 3.950000e-01    1.590000e+00
    TW   C2h  1 3.950000e-01    1.450000e+00
    TW   C1h  1 4.000000e-01    1.240000e+00
    TW   X4h  1 3.950000e-01    1.880000e+00
    TW   X3h  1 3.950000e-01    1.730000e+00
    TW   X2h  1 3.950000e-01    1.730000e+00
    TW   X1h  1 3.950000e-01    1.450000e+00
    TW  P6dh  1 3.950000e-01    3.210000e+00
    TW  P5dh  1 3.950000e-01    3.210000e+00
    TW  P4dh  1 3.950000e-01    3.020000e+00
    TW  P3dh  1 3.950000e-01    2.840000e+00
    TW  P2dh  1 3.950000e-01    2.840000e+00
    TW  P1dh  1 3.950000e-01    2.670000e+00
    TW  N6dh  1 3.950000e-01    2.670000e+00
    TW  N5dh  1 3.950000e-01    2.510000e+00
    TW  N4dh  1 3.950000e-01    2.350000e+00
    TW  N3dh  1 3.950000e-01    2.350000e+00
    TW  N2dh  1 3.950000e-01    2.030000e+00
    TW  N1dh  1 3.950000e-01    1.880000e+00
    TW  P6ah  1 3.950000e-01    3.210000e+00
    TW  P5ah  1 3.950000e-01    3.210000e+00
    TW  P4ah  1 3.950000e-01    3.020000e+00
    TW  P3ah  1 3.950000e-01    2.840000e+00
    TW  P2ah  1 3.950000e-01    2.840000e+00
    TW  P1ah  1 3.950000e-01    2.670000e+00
    TW  N6ah  1 3.950000e-01    2.670000e+00
    TW  N5ah  1 3.950000e-01    2.510000e+00
    TW  N4ah  1 3.950000e-01    2.350000e+00
    TW  N3ah  1 3.950000e-01    2.350000e+00
    TW  N2ah  1 3.950000e-01    2.030000e+00
    TW  N1ah  1 3.950000e-01    1.880000e+00
    TW  C6vh  1 3.950000e-01    2.030000e+00
    TW  C5vh  1 3.950000e-01    1.880000e+00
    TW  C4vh  1 3.950000e-01    1.730000e+00
    TW  C3vh  1 3.950000e-01    1.730000e+00
    TW  C2vh  1 3.950000e-01    1.590000e+00
    TW  C1vh  1 3.950000e-01    1.330000e+00
    TW  X4vh  1 3.950000e-01    2.030000e+00
    TW  X3vh  1 3.950000e-01    1.880000e+00
    TW  X2vh  1 3.950000e-01    1.880000e+00
    TW  X1vh  1 3.950000e-01    1.590000e+00
    TW  C6eh  1 3.950000e-01    2.030000e+00
    TW  C5eh  1 3.950000e-01    1.880000e+00
    TW  C4eh  1 3.950000e-01    1.730000e+00
    TW  C3eh  1 3.950000e-01    1.730000e+00
    TW  C2eh  1 3.950000e-01    1.590000e+00
    TW  C1eh  1 3.950000e-01    1.330000e+00
    TW  X4eh  1 3.950000e-01    2.030000e+00
    TW  X3eh  1 3.950000e-01    1.880000e+00
    TW  X2eh  1 3.950000e-01    1.880000e+00
    TW  X1eh  1 3.950000e-01    1.590000e+00
    TW   P6r  1 3.950000e-01    3.410000e+00
    TW   P5r  1 3.950000e-01    3.410000e+00
    TW   P4r  1 3.950000e-01    3.210000e+00
    TW   P3r  1 3.950000e-01    3.020000e+00
    TW   P2r  1 3.950000e-01    3.020000e+00
    TW   P1r  1 3.950000e-01    2.840000e+00
    TW   N6r  1 3.950000e-01    2.840000e+00
    TW   N5r  1 3.950000e-01    2.670000e+00
    TW   N4r  1 3.950000e-01    2.510000e+00
    TW   N3r  1 3.950000e-01    2.510000e+00
    TW   N2r  1 3.950000e-01    2.190000e+00
    TW   N1r  1 3.950000e-01    2.030000e+00
    TW   C6r  1 3.950000e-01    1.880000e+00
    TW   C5r  1 3.950000e-01    1.730000e+00
    TW   C4r  1 3.950000e-01    1.590000e+00
    TW   C3r  1 3.950000e-01    1.590000e+00
    TW   C2r  1 3.950000e-01    1.450000e+00
    TW   C1r  1 4.000000e-01    1.240000e+00
    TW   X4r  1 3.950000e-01    1.880000e+00
    TW   X3r  1 3.950000e-01    1.730000e+00
    TW   X2r  1 3.950000e-01    1.730000e+00
    TW   X1r  1 3.950000e-01    1.450000e+00
    TW  P6dr  1 3.950000e-01    3.210000e+00
    TW  P5dr  1 3.950000e-01    3.210000e+00
    TW  P4dr  1 3.950000e-01    3.020000e+00
    TW  P3dr  1 3.950000e-01    2.840000e+00
    TW  P2dr  1 3.950000e-01    2.840000e+00
    TW  P1dr  1 3.950000e-01    2.670000e+00
    TW  N6dr  1 3.950000e-01    2.670000e+00
    TW  N5dr  1 3.950000e-01    2.510000e+00
    TW  N4dr  1 3.950000e-01    2.350000e+00
    TW  N3dr  1 3.950000e-01    2.350000e+00
    TW  N2dr  1 3.950000e-01    2.030000e+00
    TW  N1dr  1 3.950000e-01    1.880000e+00
    TW  P6ar  1 3.950000e-01    3.210000e+00
    TW  P5ar  1 3.950000e-01    3.210000e+00
    TW  P4ar  1 3.950000e-01    3.020000e+00
    TW  P3ar  1 3.950000e-01    2.840000e+00
    TW  P2ar  1 3.950000e-01    2.840000e+00
    TW  P1ar  1 3.950000e-01    2.670000e+00
    TW  N6ar  1 3.950000e-01    2.670000e+00
    TW  N5ar  1 3.950000e-01    2.510000e+00
    TW  N4ar  1 3.950000e-01    2.350000e+00
    TW  N3ar  1 3.950000e-01    2.350000e+00
    TW  N2ar  1 3.950000e-01    2.030000e+00
    TW  N1ar  1 3.950000e-01    1.880000e+00
    TW  C6vr  1 3.950000e-01    2.030000e+00
    TW  C5vr  1 3.950000e-01    1.880000e+00
    TW  C4vr  1 3.950000e-01    1.730000e+00
    TW  C3vr  1 3.950000e-01    1.730000e+00
    TW  C2vr  1 3.950000e-01    1.590000e+00
    TW  C1vr  1 3.950000e-01    1.330000e+00
    TW  X4vr  1 3.950000e-01    2.030000e+00
    TW  X3vr  1 3.950000e-01    1.880000e+00
    TW  X2vr  1 3.950000e-01    1.880000e+00
    TW  X1vr  1 3.950000e-01    1.590000e+00
    TW  C6er  1 3.950000e-01    2.030000e+00
    TW  C5er  1 3.950000e-01    1.880000e+00
    TW  C4er  1 3.950000e-01    1.730000e+00
    TW  C3er  1 3.950000e-01    1.730000e+00
    TW  C2er  1 3.950000e-01    1.590000e+00
    TW  C1er  1 3.950000e-01    1.330000e+00
    TW  X4er  1 3.950000e-01    2.030000e+00
    TW  X3er  1 3.950000e-01    1.880000e+00
    TW  X2er  1 3.950000e-01    1.880000e+00
    TW  X1er  1 3.950000e-01    1.590000e+00
    TW  SP6d  1 3.780000e-01    3.100000e+00
    TW  SP5d  1 3.780000e-01    3.100000e+00
    TW  SP4d  1 3.780000e-01    2.910000e+00
    TW  SP3d  1 3.780000e-01    2.720000e+00
    TW  SP2d  1 3.780000e-01    2.720000e+00
    TW  SP1d  1 3.780000e-01    2.530000e+00
    TW  SN6d  1 3.780000e-01    2.530000e+00
    TW  SN5d  1 3.780000e-01    2.340000e+00
    TW  SN4d  1 3.780000e-01    2.150000e+00
    TW  SN3d  1 3.780000e-01    2.150000e+00
    TW  SN2d  1 3.780000e-01    1.780000e+00
    TW  SN1d  1 3.780000e-01    1.610000e+00
    TW  SP6a  1 3.780000e-01    3.100000e+00
    TW  SP5a  1 3.780000e-01    3.100000e+00
    TW  SP4a  1 3.780000e-01    2.910000e+00
    TW  SP3a  1 3.780000e-01    2.720000e+00
    TW  SP2a  1 3.780000e-01    2.720000e+00
    TW  SP1a  1 3.780000e-01    2.530000e+00
    TW  SN6a  1 3.780000e-01    2.530000e+00
    TW  SN5a  1 3.780000e-01    2.340000e+00
    TW  SN4a  1 3.780000e-01    2.150000e+00
    TW  SN3a  1 3.780000e-01    2.150000e+00
    TW  SN2a  1 3.780000e-01    1.780000e+00
    TW  SN1a  1 3.780000e-01    1.610000e+00
    TW  SC6v  1 3.780000e-01    1.780000e+00
    TW  SC5v  1 3.780000e-01    1.610000e+00
    TW  SC4v  1 3.780000e-01    1.440000e+00
    TW  SC3v  1 3.780000e-01    1.440000e+00
    TW  SC2v  1 3.780000e-01    1.290000e+00
    TW  SC1v  1 3.900000e-01    1.030000e+00
    TW  SX4v  1 3.780000e-01    1.780000e+00
    TW  SX3v  1 3.780000e-01    1.610000e+00
    TW  SX2v  1 3.780000e-01    1.610000e+00
    TW  SX1v  1 3.780000e-01    1.290000e+00
    TW  SC6e  1 3.780000e-01    1.780000e+00
    TW  SC5e  1 3.780000e-01    1.610000e+00
    TW  SC4e  1 3.780000e-01    1.440000e+00
    TW  SC3e  1 3.780000e-01    1.440000e+00
    TW  SC2e  1 3.780000e-01    1.290000e+00
    TW  SC1e  1 3.900000e-01    1.030000e+00
    TW  SX4e  1 3.780000e-01    1.780000e+00
    TW  SX3e  1 3.780000e-01    1.610000e+00
    TW  SX2e  1 3.780000e-01    1.610000e+00
    TW  SX1e  1 3.780000e-01    1.290000e+00
    TW  SP6q  1 3.780000e-01    4.000000e+00
    TW  SP5q  1 3.780000e-01    4.000000e+00
    TW  SP4q  1 3.780000e-01    3.730000e+00
    TW  SP3q  1 3.780000e-01    3.480000e+00
    TW  SP2q  1 3.780000e-01    3.480000e+00
    TW  SP1q  1 3.780000e-01    3.290000e+00
    TW  SN6q  1 3.780000e-01    3.290000e+00
    TW  SN5q  1 3.780000e-01    3.100000e+00
    TW  SN4q  1 3.780000e-01    2.910000e+00
    TW  SN3q  1 3.780000e-01    2.910000e+00
    TW  SN2q  1 3.780000e-01    2.530000e+00
    TW  SN1q  1 3.780000e-01    2.340000e+00
    TW  SC6q  1 3.780000e-01    2.150000e+00
    TW  SC5q  1 3.780000e-01    1.960000e+00
    TW  SC4q  1 3.780000e-01    1.780000e+00
    TW  SC3q  1 3.780000e-01    1.780000e+00
    TW  SC2q  1 3.780000e-01    1.610000e+00
    TW  SC1q  1 3.780000e-01    1.290000e+00
    TW  SX4q  1 3.780000e-01    2.150000e+00
    TW  SX3q  1 3.780000e-01    1.960000e+00
    TW  SX2q  1 3.780000e-01    1.960000e+00
    TW  SX1q  1 3.780000e-01    1.610000e+00
    TW SP6dq  1 3.780000e-01    3.730000e+00
    TW SP5dq  1 3.780000e-01    3.730000e+00
    TW SP4dq  1 3.780000e-01    3.480000e+00
    TW SP3dq  1 3.780000e-01    3.290000e+00
    TW SP2dq  1 3.780000e-01    3.290000e+00
    TW SP1dq  1 3.780000e-01    3.100000e+00
    TW SN6dq  1 3.780000e-01    3.100000e+00
    TW SN5dq  1 3.780000e-01    2.910000e+00
    TW SN4dq  1 3.780000e-01    2.720000e+00
    TW SN3dq  1 3.780000e-01    2.720000e+00
    TW SN2dq  1 3.780000e-01    2.340000e+00
    TW SN1dq  1 3.780000e-01    2.150000e+00
    TW SP6aq  1 3.780000e-01    3.730000e+00
    TW SP5aq  1 3.780000e-01    3.730000e+00
    TW SP4aq  1 3.780000e-01    3.480000e+00
    TW SP3aq  1 3.780000e-01    3.290000e+00
    TW SP2aq  1 3.780000e-01    3.290000e+00
    TW SP1aq  1 3.780000e-01    3.100000e+00
    TW SN6aq  1 3.780000e-01    3.100000e+00
    TW SN5aq  1 3.780000e-01    2.910000e+00
    TW SN4aq  1 3.780000e-01    2.720000e+00
    TW SN3aq  1 3.780000e-01    2.720000e+00
    TW SN2aq  1 3.780000e-01    2.340000e+00
    TW SN1aq  1 3.780000e-01    2.150000e+00
    TW SC6vq  1 3.780000e-01    2.340000e+00
    TW SC5vq  1 3.780000e-01    2.150000e+00
    TW SC4vq  1 3.780000e-01    1.960000e+00
    TW SC3vq  1 3.780000e-01    1.960000e+00
    TW SC2vq  1 3.780000e-01    1.780000e+00
    TW SC1vq  1 3.780000e-01    1.440000e+00
    TW SX4vq  1 3.780000e-01    2.340000e+00
    TW SX3vq  1 3.780000e-01    2.150000e+00
    TW SX2vq  1 3.780000e-01    2.150000e+00
    TW SX1vq  1 3.780000e-01    1.780000e+00
    TW SC6eq  1 3.780000e-01    2.340000e+00
    TW SC5eq  1 3.780000e-01    2.150000e+00
    TW SC4eq  1 3.780000e-01    1.960000e+00
    TW SC3eq  1 3.780000e-01    1.960000e+00
    TW SC2eq  1 3.780000e-01    1.780000e+00
    TW SC1eq  1 3.780000e-01    1.440000e+00
    TW SX4eq  1 3.780000e-01    2.340000e+00
    TW SX3eq  1 3.780000e-01    2.150000e+00
    TW SX2eq  1 3.780000e-01    2.150000e+00
    TW SX1eq  1 3.780000e-01    1.780000e+00
    TW  SP6h  1 3.780000e-01    3.290000e+00
    TW  SP5h  1 3.780000e-01    3.290000e+00
    TW  SP4h  1 3.780000e-01    3.100000e+00
    TW  SP3h  1 3.780000e-01    2.910000e+00
    TW  SP2h  1 3.780000e-01    2.910000e+00
    TW  SP1h  1 3.780000e-01    2.720000e+00
    TW  SN6h  1 3.780000e-01    2.720000e+00
    TW  SN5h  1 3.780000e-01    2.530000e+00
    TW  SN4h  1 3.780000e-01    2.340000e+00
    TW  SN3h  1 3.780000e-01    2.340000e+00
    TW  SN2h  1 3.780000e-01    1.960000e+00
    TW  SN1h  1 3.780000e-01    1.780000e+00
    TW  SC6h  1 3.780000e-01    1.610000e+00
    TW  SC5h  1 3.780000e-01    1.440000e+00
    TW  SC4h  1 3.780000e-01    1.290000e+00
    TW  SC3h  1 3.780000e-01    1.290000e+00
    TW  SC2h  1 3.860000e-01    1.160000e+00
    TW  SC1h  1 3.970000e-01    9.200000e-01
    TW  SX4h  1 3.780000e-01    1.610000e+00
    TW  SX3h  1 3.780000e-01    1.440000e+00
    TW  SX2h  1 3.780000e-01    1.440000e+00
    TW  SX1h  1 3.860000e-01    1.160000e+00
    TW SP6dh  1 3.780000e-01    3.100000e+00
    TW SP5dh  1 3.780000e-01    3.100000e+00
    TW SP4dh  1 3.780000e-01    2.910000e+00
    TW SP3dh  1 3.780000e-01    2.720000e+00
    TW SP2dh  1 3.780000e-01    2.720000e+00
    TW SP1dh  1 3.780000e-01    2.530000e+00
    TW SN6dh  1 3.780000e-01    2.530000e+00
    TW SN5dh  1 3.780000e-01    2.340000e+00
    TW SN4dh  1 3.780000e-01    2.150000e+00
    TW SN3dh  1 3.780000e-01    2.150000e+00
    TW SN2dh  1 3.780000e-01    1.780000e+00
    TW SN1dh  1 3.780000e-01    1.610000e+00
    TW SP6ah  1 3.780000e-01    3.100000e+00
    TW SP5ah  1 3.780000e-01    3.100000e+00
    TW SP4ah  1 3.780000e-01    2.910000e+00
    TW SP3ah  1 3.780000e-01    2.720000e+00
    TW SP2ah  1 3.780000e-01    2.720000e+00
    TW SP1ah  1 3.780000e-01    2.530000e+00
    TW SN6ah  1 3.780000e-01    2.530000e+00
    TW SN5ah  1 3.780000e-01    2.340000e+00
    TW SN4ah  1 3.780000e-01    2.150000e+00
    TW SN3ah  1 3.780000e-01    2.150000e+00
    TW SN2ah  1 3.780000e-01    1.780000e+00
    TW SN1ah  1 3.780000e-01    1.610000e+00
    TW SC6vh  1 3.780000e-01    1.780000e+00
    TW SC5vh  1 3.780000e-01    1.610000e+00
    TW SC4vh  1 3.780000e-01    1.440000e+00
    TW SC3vh  1 3.780000e-01    1.440000e+00
    TW SC2vh  1 3.780000e-01    1.290000e+00
    TW SC1vh  1 3.900000e-01    1.030000e+00
    TW SX4vh  1 3.780000e-01    1.780000e+00
    TW SX3vh  1 3.780000e-01    1.610000e+00
    TW SX2vh  1 3.780000e-01    1.610000e+00
    TW SX1vh  1 3.780000e-01    1.290000e+00
    TW SC6eh  1 3.780000e-01    1.780000e+00
    TW SC5eh  1 3.780000e-01    1.610000e+00
    TW SC4eh  1 3.780000e-01    1.440000e+00
    TW SC3eh  1 3.780000e-01    1.440000e+00
    TW SC2eh  1 3.780000e-01    1.290000e+00
    TW SC1eh  1 3.900000e-01    1.030000e+00
    TW SX4eh  1 3.780000e-01    1.780000e+00
    TW SX3eh  1 3.780000e-01    1.610000e+00
    TW SX2eh  1 3.780000e-01    1.610000e+00
    TW SX1eh  1 3.780000e-01    1.290000e+00
    TW  SP6r  1 3.780000e-01    3.290000e+00
    TW  SP5r  1 3.780000e-01    3.290000e+00
    TW  SP4r  1 3.780000e-01    3.100000e+00
    TW  SP3r  1 3.780000e-01    2.910000e+00
    TW  SP2r  1 3.780000e-01    2.910000e+00
    TW  SP1r  1 3.780000e-01    2.720000e+00
    TW  SN6r  1 3.780000e-01    2.720000e+00
    TW  SN5r  1 3.780000e-01    2.530000e+00
    TW  SN4r  1 3.780000e-01    2.340000e+00
    TW  SN3r  1 3.780000e-01    2.340000e+00
    TW  SN2r  1 3.780000e-01    1.960000e+00
    TW  SN1r  1 3.780000e-01    1.780000e+00
    TW  SC6r  1 3.780000e-01    1.610000e+00
    TW  SC5r  1 3.780000e-01    1.440000e+00
    TW  SC4r  1 3.780000e-01    1.290000e+00
    TW  SC3r  1 3.780000e-01    1.290000e+00
    TW  SC2r  1 3.860000e-01    1.160000e+00
    TW  SC1r  1 3.970000e-01    9.200000e-01
    TW  SX4r  1 3.780000e-01    1.610000e+00
    TW  SX3r  1 3.780000e-01    1.440000e+00
    TW  SX2r  1 3.780000e-01    1.440000e+00
    TW  SX1r  1 3.860000e-01    1.160000e+00
    TW SP6dr  1 3.780000e-01    3.100000e+00
    TW SP5dr  1 3.780000e-01    3.100000e+00
    TW SP4dr  1 3.780000e-01    2.910000e+00
    TW SP3dr  1 3.780000e-01    2.720000e+00
    TW SP2dr  1 3.780000e-01    2.720000e+00
    TW SP1dr  1 3.780000e-01    2.530000e+00
    TW SN6dr  1 3.780000e-01    2.530000e+00
    TW SN5dr  1 3.780000e-01    2.340000e+00
    TW SN4dr  1 3.780000e-01    2.150000e+00
    TW SN3dr  1 3.780000e-01    2.150000e+00
    TW SN2dr  1 3.780000e-01    1.780000e+00
    TW SN1dr  1 3.780000e-01    1.610000e+00
    TW SP6ar  1 3.780000e-01    3.100000e+00
    TW SP5ar  1 3.780000e-01    3.100000e+00
    TW SP4ar  1 3.780000e-01    2.910000e+00
    TW SP3ar  1 3.780000e-01    2.720000e+00
    TW SP2ar  1 3.780000e-01    2.720000e+00
    TW SP1ar  1 3.780000e-01    2.530000e+00
    TW SN6ar  1 3.780000e-01    2.530000e+00
    TW SN5ar  1 3.780000e-01    2.340000e+00
    TW SN4ar  1 3.780000e-01    2.150000e+00
    TW SN3ar  1 3.780000e-01    2.150000e+00
    TW SN2ar  1 3.780000e-01    1.780000e+00
    TW SN1ar  1 3.780000e-01    1.610000e+00
    TW SC6vr  1 3.780000e-01    1.780000e+00
    TW SC5vr  1 3.780000e-01    1.610000e+00
    TW SC4vr  1 3.780000e-01    1.440000e+00
    TW SC3vr  1 3.780000e-01    1.440000e+00
    TW SC2vr  1 3.780000e-01    1.290000e+00
    TW SC1vr  1 3.900000e-01    1.030000e+00
    TW SX4vr  1 3.780000e-01    1.780000e+00
    TW SX3vr  1 3.780000e-01    1.610000e+00
    TW SX2vr  1 3.780000e-01    1.610000e+00
    TW SX1vr  1 3.780000e-01    1.290000e+00
    TW SC6er  1 3.780000e-01    1.780000e+00
    TW SC5er  1 3.780000e-01    1.610000e+00
    TW SC4er  1 3.780000e-01    1.440000e+00
    TW SC3er  1 3.780000e-01    1.440000e+00
    TW SC2er  1 3.780000e-01    1.290000e+00
    TW SC1er  1 3.900000e-01    1.030000e+00
    TW SX4er  1 3.780000e-01    1.780000e+00
    TW SX3er  1 3.780000e-01    1.610000e+00
    TW SX2er  1 3.780000e-01    1.610000e+00
    TW SX1er  1 3.780000e-01    1.290000e+00
    TW    TW  1 3.500000e-01    2.800000e+00
    TW  TP6d  1 3.450000e-01    3.060000e+00
    TW  TP5d  1 3.450000e-01    3.060000e+00
    TW  TP4d  1 3.450000e-01    2.840000e+00
    TW  TP3d  1 3.450000e-01    2.600000e+00
    TW  TP2d  1 3.450000e-01    2.600000e+00
    TW  TP1d  1 3.450000e-01    2.370000e+00
    TW  TN6d  1 3.450000e-01    2.370000e+00
    TW  TN5d  1 3.450000e-01    2.140000e+00
    TW  TN4d  1 3.450000e-01    1.910000e+00
    TW  TN3d  1 3.450000e-01    1.910000e+00
    TW  TN2d  1 3.510000e-01    1.470000e+00
    TW  TN1d  1 3.530000e-01    1.330000e+00
    TW  TP6a  1 3.450000e-01    3.060000e+00
    TW  TP5a  1 3.450000e-01    3.060000e+00
    TW  TP4a  1 3.450000e-01    2.840000e+00
    TW  TP3a  1 3.450000e-01    2.600000e+00
    TW  TP2a  1 3.450000e-01    2.600000e+00
    TW  TP1a  1 3.450000e-01    2.370000e+00
    TW  TN6a  1 3.450000e-01    2.370000e+00
    TW  TN5a  1 3.450000e-01    2.140000e+00
    TW  TN4a  1 3.450000e-01    1.910000e+00
    TW  TN3a  1 3.450000e-01    1.910000e+00
    TW  TN2a  1 3.510000e-01    1.470000e+00
    TW  TN1a  1 3.530000e-01    1.330000e+00
    TW  TC6v  1 3.510000e-01    1.470000e+00
    TW  TC5v  1 3.530000e-01    1.330000e+00
    TW  TC4v  1 3.550000e-01    1.230000e+00
    TW  TC3v  1 3.550000e-01    1.230000e+00
    TW  TC2v  1 3.720000e-01    1.130000e+00
    TW  TC1v  1 4.100000e-01    9.300000e-01
    TW  TX4v  1 3.510000e-01    1.470000e+00
    TW  TX3v  1 3.530000e-01    1.330000e+00
    TW  TX2v  1 3.530000e-01    1.330000e+00
    TW  TX1v  1 3.720000e-01    1.130000e+00
    TW  TC6e  1 3.510000e-01    1.470000e+00
    TW  TC5e  1 3.530000e-01    1.330000e+00
    TW  TC4e  1 3.550000e-01    1.230000e+00
    TW  TC3e  1 3.550000e-01    1.230000e+00
    TW  TC2e  1 3.720000e-01    1.130000e+00
    TW  TC1e  1 4.100000e-01    9.300000e-01
    TW  TX4e  1 3.510000e-01    1.470000e+00
    TW  TX3e  1 3.530000e-01    1.330000e+00
    TW  TX2e  1 3.530000e-01    1.330000e+00
    TW  TX1e  1 3.720000e-01    1.130000e+00
    TW  TP6q  1 3.450000e-01    4.170000e+00
    TW  TP5q  1 3.450000e-01    4.170000e+00
    TW  TP4q  1 3.450000e-01    3.880000e+00
    TW  TP3q  1 3.450000e-01    3.590000e+00
    TW  TP2q  1 3.450000e-01    3.590000e+00
    TW  TP1q  1 3.450000e-01    3.300000e+00
    TW  TN6q  1 3.450000e-01    3.300000e+00
    TW  TN5q  1 3.450000e-01    3.060000e+00
    TW  TN4q  1 3.450000e-01    2.840000e+00
    TW  TN3q  1 3.450000e-01    2.840000e+00
    TW  TN2q  1 3.450000e-01    2.370000e+00
    TW  TN1q  1 3.450000e-01    2.140000e+00
    TW  TC6q  1 3.450000e-01    1.910000e+00
    TW  TC5q  1 3.510000e-01    1.680000e+00
    TW  TC4q  1 3.510000e-01    1.470000e+00
    TW  TC3q  1 3.510000e-01    1.470000e+00
    TW  TC2q  1 3.530000e-01    1.330000e+00
    TW  TC1q  1 3.720000e-01    1.130000e+00
    TW  TX4q  1 3.450000e-01    1.910000e+00
    TW  TX3q  1 3.510000e-01    1.680000e+00
    TW  TX2q  1 3.510000e-01    1.680000e+00
    TW  TX1q  1 3.530000e-01    1.330000e+00
    TW TP6dq  1 3.450000e-01    3.880000e+00
    TW TP5dq  1 3.450000e-01    3.880000e+00
    TW TP4dq  1 3.450000e-01    3.590000e+00
    TW TP3dq  1 3.450000e-01    3.300000e+00
    TW TP2dq  1 3.450000e-01    3.300000e+00
    TW TP1dq  1 3.450000e-01    3.060000e+00
    TW TN6dq  1 3.450000e-01    3.060000e+00
    TW TN5dq  1 3.450000e-01    2.840000e+00
    TW TN4dq  1 3.450000e-01    2.600000e+00
    TW TN3dq  1 3.450000e-01    2.600000e+00
    TW TN2dq  1 3.450000e-01    2.140000e+00
    TW TN1dq  1 3.450000e-01    1.910000e+00
    TW TP6aq  1 3.450000e-01    3.880000e+00
    TW TP5aq  1 3.450000e-01    3.880000e+00
    TW TP4aq  1 3.450000e-01    3.590000e+00
    TW TP3aq  1 3.450000e-01    3.300000e+00
    TW TP2aq  1 3.450000e-01    3.300000e+00
    TW TP1aq  1 3.450000e-01    3.060000e+00
    TW TN6aq  1 3.450000e-01    3.060000e+00
    TW TN5aq  1 3.450000e-01    2.840000e+00
    TW TN4aq  1 3.450000e-01    2.600000e+00
    TW TN3aq  1 3.450000e-01    2.600000e+00
    TW TN2aq  1 3.450000e-01    2.140000e+00
    TW TN1aq  1 3.450000e-01    1.910000e+00
    TW TC6vq  1 3.450000e-01    2.140000e+00
    TW TC5vq  1 3.450000e-01    1.910000e+00
    TW TC4vq  1 3.510000e-01    1.680000e+00
    TW TC3vq  1 3.510000e-01    1.680000e+00
    TW TC2vq  1 3.510000e-01    1.470000e+00
    TW TC1vq  1 3.550000e-01    1.230000e+00
    TW TX4vq  1 3.450000e-01    2.140000e+00
    TW TX3vq  1 3.450000e-01    1.910000e+00
    TW TX2vq  1 3.450000e-01    1.910000e+00
    TW TX1vq  1 3.510000e-01    1.470000e+00
    TW TC6eq  1 3.450000e-01    2.140000e+00
    TW TC5eq  1 3.450000e-01    1.910000e+00
    TW TC4eq  1 3.510000e-01    1.680000e+00
    TW TC3eq  1 3.510000e-01    1.680000e+00
    TW TC2eq  1 3.510000e-01    1.470000e+00
    TW TC1eq  1 3.550000e-01    1.230000e+00
    TW TX4eq  1 3.450000e-01    2.140000e+00
    TW TX3eq  1 3.450000e-01    1.910000e+00
    TW TX2eq  1 3.450000e-01    1.910000e+00
    TW TX1eq  1 3.510000e-01    1.470000e+00
    TW  TP6h  1 3.450000e-01    3.300000e+00
    TW  TP5h  1 3.450000e-01    3.300000e+00
    TW  TP4h  1 3.450000e-01    3.060000e+00
    TW  TP3h  1 3.450000e-01    2.840000e+00
    TW  TP2h  1 3.450000e-01    2.840000e+00
    TW  TP1h  1 3.450000e-01    2.600000e+00
    TW  TN6h  1 3.450000e-01    2.600000e+00
    TW  TN5h  1 3.450000e-01    2.370000e+00
    TW  TN4h  1 3.450000e-01    2.140000e+00
    TW  TN3h  1 3.450000e-01    2.140000e+00
    TW  TN2h  1 3.510000e-01    1.680000e+00
    TW  TN1h  1 3.510000e-01    1.470000e+00
    TW  TC6h  1 3.530000e-01    1.330000e+00
    TW  TC5h  1 3.550000e-01    1.230000e+00
    TW  TC4h  1 3.720000e-01    1.130000e+00
    TW  TC3h  1 3.720000e-01    1.130000e+00
    TW  TC2h  1 3.840000e-01    1.030000e+00
    TW  TC1h  1 4.400000e-01    8.300000e-01
    TW  TX4h  1 3.530000e-01    1.330000e+00
    TW  TX3h  1 3.550000e-01    1.230000e+00
    TW  TX2h  1 3.550000e-01    1.230000e+00
    TW  TX1h  1 3.840000e-01    1.030000e+00
    TW TP6dh  1 3.450000e-01    3.060000e+00
    TW TP5dh  1 3.450000e-01    3.060000e+00
    TW TP4dh  1 3.450000e-01    2.840000e+00
    TW TP3dh  1 3.450000e-01    2.600000e+00
    TW TP2dh  1 3.450000e-01    2.600000e+00
    TW TP1dh  1 3.450000e-01    2.370000e+00
    TW TN6dh  1 3.450000e-01    2.370000e+00
    TW TN5dh  1 3.450000e-01    2.140000e+00
    TW TN4dh  1 3.450000e-01    1.910000e+00
    TW TN3dh  1 3.450000e-01    1.910000e+00
    TW TN2dh  1 3.510000e-01    1.470000e+00
    TW TN1dh  1 3.530000e-01    1.330000e+00
    TW TP6ah  1 3.450000e-01    3.060000e+00
    TW TP5ah  1 3.450000e-01    3.060000e+00
    TW TP4ah  1 3.450000e-01    2.840000e+00
    TW TP3ah  1 3.450000e-01    2.600000e+00
    TW TP2ah  1 3.450000e-01    2.600000e+00
    TW TP1ah  1 3.450000e-01    2.370000e+00
    TW TN6ah  1 3.450000e-01    2.370000e+00
    TW TN5ah  1 3.450000e-01    2.140000e+00
    TW TN4ah  1 3.450000e-01    1.910000e+00
    TW TN3ah  1 3.450000e-01    1.910000e+00
    TW TN2ah  1 3.510000e-01    1.470000e+00
    TW TN1ah  1 3.530000e-01    1.330000e+00
    TW TC6vh  1 3.510000e-01    1.470000e+00
    TW TC5vh  1 3.530000e-01    1.330000e+00
    TW TC4vh  1 3.550000e-01    1.230000e+00
    TW TC3vh  1 3.550000e-01    1.230000e+00
    TW TC2vh  1 3.720000e-01    1.130000e+00
    TW TC1vh  1 4.100000e-01    9.300000e-01
    TW TX4vh  1 3.510000e-01    1.470000e+00
    TW TX3vh  1 3.530000e-01    1.330000e+00
    TW TX2vh  1 3.530000e-01    1.330000e+00
    TW TX1vh  1 3.720000e-01    1.130000e+00
    TW TC6eh  1 3.510000e-01    1.470000e+00
    TW TC5eh  1 3.530000e-01    1.330000e+00
    TW TC4eh  1 3.550000e-01    1.230000e+00
    TW TC3eh  1 3.550000e-01    1.230000e+00
    TW TC2eh  1 3.720000e-01    1.130000e+00
    TW TC1eh  1 4.100000e-01    9.300000e-01
    TW TX4eh  1 3.510000e-01    1.470000e+00
    TW TX3eh  1 3.530000e-01    1.330000e+00
    TW TX2eh  1 3.530000e-01    1.330000e+00
    TW TX1eh  1 3.720000e-01    1.130000e+00
    TW  TP6r  1 3.450000e-01    3.300000e+00
    TW  TP5r  1 3.450000e-01    3.300000e+00
    TW  TP4r  1 3.450000e-01    3.060000e+00
    TW  TP3r  1 3.450000e-01    2.840000e+00
    TW  TP2r  1 3.450000e-01    2.840000e+00
    TW  TP1r  1 3.450000e-01    2.600000e+00
    TW  TN6r  1 3.450000e-01    2.600000e+00
    TW  TN5r  1 3.450000e-01    2.370000e+00
    TW  TN4r  1 3.450000e-01    2.140000e+00
    TW  TN3r  1 3.450000e-01    2.140000e+00
    TW  TN2r  1 3.510000e-01    1.680000e+00
    TW  TN1r  1 3.510000e-01    1.470000e+00
    TW  TC6r  1 3.530000e-01    1.330000e+00
    TW  TC5r  1 3.550000e-01    1.230000e+00
    TW  TC4r  1 3.720000e-01    1.130000e+00
    TW  TC3r  1 3.720000e-01    1.130000e+00
    TW  TC2r  1 3.840000e-01    1.030000e+00
    TW  TC1r  1 4.400000e-01    8.300000e-01
    TW  TX4r  1 3.530000e-01    1.330000e+00
    TW  TX3r  1 3.550000e-01    1.230000e+00
    TW  TX2r  1 3.550000e-01    1.230000e+00
    TW  TX1r  1 3.840000e-01    1.030000e+00
    TW TP6dr  1 3.450000e-01    3.060000e+00
    TW TP5dr  1 3.450000e-01    3.060000e+00
    TW TP4dr  1 3.450000e-01    2.840000e+00
    TW TP3dr  1 3.450000e-01    2.600000e+00
    TW TP2dr  1 3.450000e-01    2.600000e+00
    TW TP1dr  1 3.450000e-01    2.370000e+00
    TW TN6dr  1 3.450000e-01    2.370000e+00
    TW TN5dr  1 3.450000e-01    2.140000e+00
    TW TN4dr  1 3.450000e-01    1.910000e+00
    TW TN3dr  1 3.450000e-01    1.910000e+00
    TW TN2dr  1 3.510000e-01    1.470000e+00
    TW TN1dr  1 3.530000e-01    1.330000e+00
    TW TP6ar  1 3.450000e-01    3.060000e+00
    TW TP5ar  1 3.450000e-01    3.060000e+00
    TW TP4ar  1 3.450000e-01    2.840000e+00
    TW TP3ar  1 3.450000e-01    2.600000e+00
    TW TP2ar  1 3.450000e-01    2.600000e+00
    TW TP1ar  1 3.450000e-01    2.370000e+00
    TW TN6ar  1 3.450000e-01    2.370000e+00
    TW TN5ar  1 3.450000e-01    2.140000e+00
    TW TN4ar  1 3.450000e-01    1.910000e+00
    TW TN3ar  1 3.450000e-01    1.910000e+00
    TW TN2ar  1 3.510000e-01    1.470000e+00
    TW TN1ar  1 3.530000e-01    1.330000e+00
    TW TC6vr  1 3.510000e-01    1.470000e+00
    TW TC5vr  1 3.530000e-01    1.330000e+00
    TW TC4vr  1 3.550000e-01    1.230000e+00
    TW TC3vr  1 3.550000e-01    1.230000e+00
    TW TC2vr  1 3.720000e-01    1.130000e+00
    TW TC1vr  1 4.100000e-01    9.300000e-01
    TW TX4vr  1 3.510000e-01    1.470000e+00
    TW TX3vr  1 3.530000e-01    1.330000e+00
    TW TX2vr  1 3.530000e-01    1.330000e+00
    TW TX1vr  1 3.720000e-01    1.130000e+00
    TW TC6er  1 3.510000e-01    1.470000e+00
    TW TC5er  1 3.530000e-01    1.330000e+00
    TW TC4er  1 3.550000e-01    1.230000e+00
    TW TC3er  1 3.550000e-01    1.230000e+00
    TW TC2er  1 3.720000e-01    1.130000e+00
    TW TC1er  1 4.100000e-01    9.300000e-01
    TW TX4er  1 3.510000e-01    1.470000e+00
    TW TX3er  1 3.530000e-01    1.330000e+00
    TW TX2er  1 3.530000e-01    1.330000e+00
    TW TX1er  1 3.720000e-01    1.130000e+00
     W     D  1 4.650000e-01    7.600000e+00
     W    SD  1 4.250000e-01    1.725000e+01
     W    TD  1 3.850000e-01    2.671000e+01
    SW     D  1 4.350000e-01    6.047000e+00
    SW    SD  1 4.050000e-01    1.564000e+01
    SW    TD  1 3.750000e-01    2.207300e+01
    TW     D  1 3.950000e-01    5.190000e+00
    TW    SD  1 3.780000e-01    1.406300e+01
    TW    TD  1 3.450000e-01    1.776400e+01
     W    Q5  1 4.650000e-01    6.340000e+00
     W   SQ5  1 4.250000e-01    7.930000e+00
     W   TQ5  1 3.850000e-01    1.146000e+01
    SW    Q5  1 4.350000e-01    5.124000e+00
    SW   SQ5  1 4.050000e-01    7.020000e+00
    SW   TQ5  1 3.750000e-01    9.634000e+00
    TW    Q5  1 3.950000e-01    4.470000e+00
    TW   SQ5  1 3.780000e-01    6.173000e+00
    TW   TQ5  1 3.450000e-01    9.048000e+00
     W   Q5p  1 4.650000e-01    6.340000e+00
     W  SQ5p  1 4.250000e-01    7.930000e+00
     W  TQ5p  1 3.850000e-01    1.146000e+01
    SW   Q5p  1 4.350000e-01    5.124000e+00
    SW  SQ5p  1 4.050000e-01    7.020000e+00
    SW  TQ5p  1 3.750000e-01    9.634000e+00
    TW   Q5p  1 3.950000e-01    4.470000e+00
    TW  SQ5p  1 3.780000e-01    6.173000e+00
    TW  TQ5p  1 3.450000e-01    9.048000e+00
     W   Q5n  1 4.650000e-01    6.340000e+00
     W  SQ5n  1 4.250000e-01    7.930000e+00
     W  TQ5n  1 3.850000e-01    1.146000e+01
    SW   Q5n  1 4.350000e-01    5.124000e+00
    SW  SQ5n  1 4.050000e-01    7.020000e+00
    SW  TQ5n  1 3.750000e-01    9.634000e+00
    TW   Q5n  1 3.950000e-01    4.470000e+00
    TW  SQ5n  1 3.780000e-01    6.173000e+00
    TW  TQ5n  1 3.450000e-01    9.048000e+00
     W    Q4  1 4.650000e-01    5.960000e+00
     W   SQ4  1 4.250000e-01    7.650000e+00
     W   TQ4  1 3.850000e-01    1.110000e+01
    SW    Q4  1 4.350000e-01    4.864000e+00
    SW   SQ4  1 4.050000e-01    6.740000e+00
    SW   TQ4  1 3.750000e-01    9.284000e+00
    TW    Q4  1 3.950000e-01    4.240000e+00
    TW   SQ4  1 3.780000e-01    5.903000e+00
    TW   TQ4  1 3.450000e-01    8.758000e+00
     W   Q4p  1 4.650000e-01    5.960000e+00
     W  SQ4p  1 4.250000e-01    7.650000e+00
     W  TQ4p  1 3.850000e-01    1.110000e+01
    SW   Q4p  1 4.350000e-01    4.864000e+00
    SW  SQ4p  1 4.050000e-01    6.740000e+00
    SW  TQ4p  1 3.750000e-01    9.284000e+00
    TW   Q4p  1 3.950000e-01    4.240000e+00
    TW  SQ4p  1 3.780000e-01    5.903000e+00
    TW  TQ4p  1 3.450000e-01    8.758000e+00
     W   Q4n  1 4.650000e-01    5.960000e+00
     W  SQ4n  1 4.250000e-01    7.650000e+00
     W  TQ4n  1 3.850000e-01    1.110000e+01
    SW   Q4n  1 4.350000e-01    4.864000e+00
    SW  SQ4n  1 4.050000e-01    6.740000e+00
    SW  TQ4n  1 3.750000e-01    9.284000e+00
    TW   Q4n  1 3.950000e-01    4.240000e+00
    TW  SQ4n  1 3.780000e-01    5.903000e+00
    TW  TQ4n  1 3.450000e-01    8.758000e+00
     W    Q3  1 4.650000e-01    5.690000e+00
     W   SQ3  1 4.250000e-01    7.370000e+00
     W   TQ3  1 3.850000e-01    1.078000e+01
    SW    Q3  1 4.350000e-01    4.604000e+00
    SW   SQ3  1 4.050000e-01    6.470000e+00
    SW   TQ3  1 3.750000e-01    8.924000e+00
    TW    Q3  1 3.950000e-01    4.020000e+00
    TW   SQ3  1 3.780000e-01    5.653000e+00
    TW   TQ3  1 3.450000e-01    8.468000e+00
     W   Q3p  1 4.650000e-01    5.690000e+00
     W  SQ3p  1 4.250000e-01    7.370000e+00
     W  TQ3p  1 3.850000e-01    1.078000e+01
    SW   Q3p  1 4.350000e-01    4.604000e+00
    SW  SQ3p  1 4.050000e-01    6.470000e+00
    SW  TQ3p  1 3.750000e-01    8.924000e+00
    TW   Q3p  1 3.950000e-01    4.020000e+00
    TW  SQ3p  1 3.780000e-01    5.653000e+00
    TW  TQ3p  1 3.450000e-01    8.468000e+00
     W   Q3n  1 4.650000e-01    5.690000e+00
     W  SQ3n  1 4.250000e-01    7.370000e+00
     W  TQ3n  1 3.850000e-01    1.078000e+01
    SW   Q3n  1 4.350000e-01    4.604000e+00
    SW  SQ3n  1 4.050000e-01    6.470000e+00
    SW  TQ3n  1 3.750000e-01    8.924000e+00
    TW   Q3n  1 3.950000e-01    4.020000e+00
    TW  SQ3n  1 3.780000e-01    5.653000e+00
    TW  TQ3n  1 3.450000e-01    8.468000e+00
     W    Q2  1 4.650000e-01    5.450000e+00
     W   SQ2  1 4.250000e-01    7.090000e+00
     W   TQ2  1 3.850000e-01    1.055000e+01
    SW    Q2  1 4.350000e-01    4.354000e+00
    SW   SQ2  1 4.050000e-01    6.200000e+00
    SW   TQ2  1 3.750000e-01    8.614000e+00
    TW    Q2  1 3.950000e-01    3.820000e+00
    TW   SQ2  1 3.780000e-01    5.463000e+00
    TW   TQ2  1 3.450000e-01    8.178000e+00
     W   Q2p  1 4.650000e-01    5.450000e+00
     W  SQ2p  1 4.250000e-01    7.090000e+00
     W  TQ2p  1 3.850000e-01    1.055000e+01
    SW   Q2p  1 4.350000e-01    4.354000e+00
    SW  SQ2p  1 4.050000e-01    6.200000e+00
    SW  TQ2p  1 3.750000e-01    8.614000e+00
    TW   Q2p  1 3.950000e-01    3.820000e+00
    TW  SQ2p  1 3.780000e-01    5.463000e+00
    TW  TQ2p  1 3.450000e-01    8.178000e+00
     W   Q2n  1 4.650000e-01    5.450000e+00
     W  SQ2n  1 4.250000e-01    7.090000e+00
     W  TQ2n  1 3.850000e-01    1.055000e+01
    SW   Q2n  1 4.350000e-01    4.354000e+00
    SW  SQ2n  1 4.050000e-01    6.200000e+00
    SW  TQ2n  1 3.750000e-01    8.614000e+00
    TW   Q2n  1 3.950000e-01    3.820000e+00
    TW  SQ2n  1 3.780000e-01    5.463000e+00
    TW  TQ2n  1 3.450000e-01    8.178000e+00
     W    Q1  1 4.650000e-01    5.220000e+00
     W   SQ1  1 4.250000e-01    6.800000e+00
     W   TQ1  1 3.850000e-01    1.022000e+01
    SW    Q1  1 4.350000e-01    4.114000e+00
    SW   SQ1  1 4.050000e-01    5.930000e+00
    SW   TQ1  1 3.750000e-01    8.304000e+00
    TW    Q1  1 3.950000e-01    3.620000e+00
    TW   SQ1  1 3.780000e-01    5.273000e+00
    TW   TQ1  1 3.450000e-01    7.938000e+00
     W   Q1p  1 4.650000e-01    5.220000e+00
     W  SQ1p  1 4.250000e-01    6.800000e+00
     W  TQ1p  1 3.850000e-01    1.022000e+01
    SW   Q1p  1 4.350000e-01    4.114000e+00
    SW  SQ1p  1 4.050000e-01    5.930000e+00
    SW  TQ1p  1 3.750000e-01    8.304000e+00
    TW   Q1p  1 3.950000e-01    3.620000e+00
    TW  SQ1p  1 3.780000e-01    5.273000e+00
    TW  TQ1p  1 3.450000e-01    7.938000e+00
     W   Q1n  1 4.650000e-01    5.220000e+00
     W  SQ1n  1 4.250000e-01    6.800000e+00
     W  TQ1n  1 3.850000e-01    1.022000e+01
    SW   Q1n  1 4.350000e-01    4.114000e+00
    SW  SQ1n  1 4.050000e-01    5.930000e+00
    SW  TQ1n  1 3.750000e-01    8.304000e+00
    TW   Q1n  1 3.950000e-01    3.620000e+00
    TW  SQ1n  1 3.780000e-01    5.273000e+00
    TW  TQ1n  1 3.450000e-01    7.938000e+00
    P6     D  1 4.700000e-01    6.998000e+00
    P6    SD  1 4.300000e-01    1.669600e+01
    P6    TD  1 3.950000e-01    2.584500e+01
    P5     D  1 4.700000e-01    6.623000e+00
    P5    SD  1 4.300000e-01    1.545400e+01
    P5    TD  1 3.950000e-01    2.377600e+01
    P4     D  1 4.700000e-01    6.256000e+00
    P4    SD  1 4.300000e-01    1.432300e+01
    P4    TD  1 3.950000e-01    2.183900e+01
    P3     D  1 4.700000e-01    6.197000e+00
    P3    SD  1 4.300000e-01    1.387200e+01
    P3    TD  1 3.950000e-01    2.101600e+01
    P2     D  1 4.700000e-01    6.160000e+00
    P2    SD  1 4.300000e-01    1.358700e+01
    P2    TD  1 3.950000e-01    2.049600e+01
    P1     D  1 4.700000e-01    5.873000e+00
    P1    SD  1 4.300000e-01    1.310600e+01
    P1    TD  1 3.950000e-01    1.980800e+01
    N6     D  1 4.700000e-01    5.845000e+00
    N6    SD  1 4.300000e-01    1.289100e+01
    N6    TD  1 3.950000e-01    1.941400e+01
    N5     D  1 4.700000e-01    5.564000e+00
    N5    SD  1 4.300000e-01    1.242400e+01
    N5    TD  1 3.950000e-01    1.874300e+01
    N4     D  1 4.700000e-01    5.529000e+00
    N4    SD  1 4.300000e-01    1.215700e+01
    N4    TD  1 3.950000e-01    1.825600e+01
    N3     D  1 4.700000e-01    5.257000e+00
    N3    SD  1 4.300000e-01    1.164200e+01
    N3    TD  1 3.950000e-01    1.744000e+01
    N2     D  1 4.700000e-01    5.016000e+00
    N2    SD  1 4.300000e-01    1.104900e+01
    N2    TD  1 3.950000e-01    1.648100e+01
    N1     D  1 4.700000e-01    4.126000e+00
    N1    SD  1 4.300000e-01    9.515000e+00
    N1    TD  1 3.950000e-01    1.442800e+01
    C6     D  1 4.700000e-01    3.399000e+00
    C6    SD  1 4.300000e-01    7.860000e+00
    C6    TD  1 3.990000e-01    1.190100e+01
    C5     D  1 4.850000e-01    2.916000e+00
    C5    SD  1 4.430000e-01    6.635000e+00
    C5    TD  1 4.040000e-01    1.031200e+01
    C4     D  1 5.200000e-01    2.643000e+00
    C4    SD  1 4.730000e-01    5.286000e+00
    C4    TD  1 4.650000e-01    7.539000e+00
    C3     D  1 5.700000e-01    2.318000e+00
    C3    SD  1 5.140000e-01    3.566000e+00
    C3    TD  1 5.110000e-01    4.803000e+00
    C2     D  1 6.200000e-01    2.137000e+00
    C2    SD  1 5.520000e-01    2.391000e+00
    C2    TD  1 5.240000e-01    3.070000e+00
    C1     D  1 6.200000e-01    1.964000e+00
    C1    SD  1 5.520000e-01    1.043000e+00
    C1    TD  1 5.240000e-01    6.880000e-01
    X4     D  1 4.700000e-01    3.629000e+00
    X4    SD  1 4.300000e-01    8.548000e+00
    X4    TD  1 3.980000e-01    1.302800e+01
    X3     D  1 4.700000e-01    3.399000e+00
    X3    SD  1 4.300000e-01    7.860000e+00
    X3    TD  1 3.990000e-01    1.190100e+01
    X2     D  1 4.700000e-01    3.084000e+00
    X2    SD  1 4.300000e-01    6.636000e+00
    X2    TD  1 4.010000e-01    9.808000e+00
    X1     D  1 4.850000e-01    2.614000e+00
    X1    SD  1 4.430000e-01    4.329000e+00
    X1    TD  1 4.040000e-01    6.071000e+00
   P6d     D  1 4.700000e-01    6.998000e+00
   P6d    SD  1 4.300000e-01    1.669600e+01
   P6d    TD  1 3.950000e-01    2.584500e+01
   P5d     D  1 4.700000e-01    6.623000e+00
   P5d    SD  1 4.300000e-01    1.545400e+01
   P5d    TD  1 3.950000e-01    2.377600e+01
   P4d     D  1 4.700000e-01    6.256000e+00
   P4d    SD  1 4.300000e-01    1.432300e+01
   P4d    TD  1 3.950000e-01    2.183900e+01
   P3d     D  1 4.700000e-01    6.197000e+00
   P3d    SD  1 4.300000e-01    1.387200e+01
   P3d    TD  1 3.950000e-01    2.101600e+01
   P2d     D  1 4.700000e-01    6.160000e+00
   P2d    SD  1 4.300000e-01    1.358700e+01
   P2d    TD  1 3.950000e-01    2.049600e+01
   P1d     D  1 4.700000e-01    5.873000e+00
   P1d    SD  1 4.300000e-01    1.310600e+01
   P1d    TD  1 3.950000e-01    1.980800e+01
   N6d     D  1 4.700000e-01    5.845000e+00
   N6d    SD  1 4.300000e-01    1.289100e+01
   N6d    TD  1 3.950000e-01    1.941400e+01
   N5d     D  1 4.700000e-01    5.564000e+00
   N5d    SD  1 4.300000e-01    1.242400e+01
   N5d    TD  1 3.950000e-01    1.874300e+01
   N4d     D  1 4.700000e-01    5.529000e+00
   N4d    SD  1 4.300000e-01    1.215700e+01
   N4d    TD  1 3.950000e-01    1.825600e+01
   N3d     D  1 4.700000e-01    5.257000e+00
   N3d    SD  1 4.300000e-01    1.164200e+01
   N3d    TD  1 3.950000e-01    1.744000e+01
   N2d     D  1 4.700000e-01    5.016000e+00
   N2d    SD  1 4.300000e-01    1.104900e+01
   N2d    TD  1 3.950000e-01    1.648100e+01
   N1d     D  1 4.700000e-01    4.126000e+00
   N1d    SD  1 4.300000e-01    9.515000e+00
   N1d    TD  1 3.950000e-01    1.442800e+01
   P6a     D  1 4.700000e-01    6.998000e+00
   P6a    SD  1 4.300000e-01    1.669600e+01
   P6a    TD  1 3.950000e-01    2.584500e+01
   P5a     D  1 4.700000e-01    6.623000e+00
   P5a    SD  1 4.300000e-01    1.545400e+01
   P5a    TD  1 3.950000e-01    2.377600e+01
   P4a     D  1 4.700000e-01    6.256000e+00
   P4a    SD  1 4.300000e-01    1.432300e+01
   P4a    TD  1 3.950000e-01    2.183900e+01
   P3a     D  1 4.700000e-01    6.197000e+00
   P3a    SD  1 4.300000e-01    1.387200e+01
   P3a    TD  1 3.950000e-01    2.101600e+01
   P2a     D  1 4.700000e-01    6.160000e+00
   P2a    SD  1 4.300000e-01    1.358700e+01
   P2a    TD  1 3.950000e-01    2.049600e+01
   P1a     D  1 4.700000e-01    5.873000e+00
   P1a    SD  1 4.300000e-01    1.310600e+01
   P1a    TD  1 3.950000e-01    1.980800e+01
   N6a     D  1 4.700000e-01    5.845000e+00
   N6a    SD  1 4.300000e-01    1.289100e+01
   N6a    TD  1 3.950000e-01    1.941400e+01
   N5a     D  1 4.700000e-01    5.564000e+00
   N5a    SD  1 4.300000e-01    1.242400e+01
   N5a    TD  1 3.950000e-01    1.874300e+01
   N4a     D  1 4.700000e-01    5.529000e+00
   N4a    SD  1 4.300000e-01    1.215700e+01
   N4a    TD  1 3.950000e-01    1.825600e+01
   N3a     D  1 4.700000e-01    5.257000e+00
   N3a    SD  1 4.300000e-01    1.164200e+01
   N3a    TD  1 3.950000e-01    1.744000e+01
   N2a     D  1 4.700000e-01    5.016000e+00
   N2a    SD  1 4.300000e-01    1.104900e+01
   N2a    TD  1 3.950000e-01    1.648100e+01
   N1a     D  1 4.700000e-01    4.126000e+00
   N1a    SD  1 4.300000e-01    9.515000e+00
   N1a    TD  1 3.950000e-01    1.442800e+01
   C6v     D  1 4.700000e-01    3.569000e+00
   C6v    SD  1 4.300000e-01    8.090000e+00
   C6v    TD  1 3.980000e-01    1.219800e+01
   C5v     D  1 4.700000e-01    3.137000e+00
   C5v    SD  1 4.300000e-01    7.041000e+00
   C5v    TD  1 4.010000e-01    1.053600e+01
   C4v     D  1 4.850000e-01    2.801000e+00
   C4v    SD  1 4.430000e-01    5.758000e+00
   C4v    TD  1 4.040000e-01    8.698000e+00
   C3v     D  1 5.200000e-01    2.468000e+00
   C3v    SD  1 4.730000e-01    3.949000e+00
   C3v    TD  1 4.650000e-01    5.256000e+00
   C2v     D  1 5.700000e-01    2.192000e+00
   C2v    SD  1 5.140000e-01    2.594000e+00
   C2v    TD  1 5.110000e-01    3.162000e+00
   C1v     D  1 5.700000e-01    2.005000e+00
   C1v    SD  1 5.140000e-01    1.146000e+00
   C1v    TD  1 5.110000e-01    7.200000e-01
   X4v     D  1 4.700000e-01    3.799000e+00
   X4v    SD  1 4.300000e-01    8.708000e+00
   X4v    TD  1 3.950000e-01    1.333600e+01
   X3v     D  1 4.700000e-01    3.569000e+00
   X3v    SD  1 4.300000e-01    8.090000e+00
   X3v    TD  1 3.980000e-01    1.219800e+01
   X2v     D  1 4.700000e-01    3.264000e+00
   X2v    SD  1 4.300000e-01    6.836000e+00
   X2v    TD  1 3.990000e-01    1.004900e+01
   X1v     D  1 4.700000e-01    2.825000e+00
   X1v    SD  1 4.300000e-01    4.665000e+00
   X1v    TD  1 4.010000e-01    6.263000e+00
   C6e     D  1 4.700000e-01    3.569000e+00
   C6e    SD  1 4.300000e-01    8.090000e+00
   C6e    TD  1 3.980000e-01    1.219800e+01
   C5e     D  1 4.700000e-01    3.137000e+00
   C5e    SD  1 4.300000e-01    7.041000e+00
   C5e    TD  1 4.010000e-01    1.053600e+01
   C4e     D  1 4.850000e-01    2.801000e+00
   C4e    SD  1 4.430000e-01    5.758000e+00
   C4e    TD  1 4.040000e-01    8.698000e+00
   C3e     D  1 5.200000e-01    2.468000e+00
   C3e    SD  1 4.730000e-01    3.949000e+00
   C3e    TD  1 4.650000e-01    5.256000e+00
   C2e     D  1 5.700000e-01    2.192000e+00
   C2e    SD  1 5.140000e-01    2.594000e+00
   C2e    TD  1 5.110000e-01    3.162000e+00
   C1e     D  1 5.700000e-01    2.005000e+00
   C1e    SD  1 5.140000e-01    1.146000e+00
   C1e    TD  1 5.110000e-01    7.200000e-01
   X4e     D  1 4.700000e-01    3.799000e+00
   X4e    SD  1 4.300000e-01    8.708000e+00
   X4e    TD  1 3.950000e-01    1.333600e+01
   X3e     D  1 4.700000e-01    3.569000e+00
   X3e    SD  1 4.300000e-01    8.090000e+00
   X3e    TD  1 3.980000e-01    1.219800e+01
   X2e     D  1 4.700000e-01    3.264000e+00
   X2e    SD  1 4.300000e-01    6.836000e+00
   X2e    TD  1 3.990000e-01    1.004900e+01
   X1e     D  1 4.700000e-01    2.825000e+00
   X1e    SD  1 4.300000e-01    4.665000e+00
   X1e    TD  1 4.010000e-01    6.263000e+00
   P6q     D  1 4.700000e-01    6.998000e+00
   P6q    SD  1 4.300000e-01    1.669600e+01
   P6q    TD  1 3.950000e-01    2.584500e+01
   P5q     D  1 4.700000e-01    6.623000e+00
   P5q    SD  1 4.300000e-01    1.545400e+01
   P5q    TD  1 3.950000e-01    2.377600e+01
   P4q     D  1 4.700000e-01    6.256000e+00
   P4q    SD  1 4.300000e-01    1.432300e+01
   P4q    TD  1 3.950000e-01    2.183900e+01
   P3q     D  1 4.700000e-01    6.197000e+00
   P3q    SD  1 4.300000e-01    1.387200e+01
   P3q    TD  1 3.950000e-01    2.101600e+01
   P2q     D  1 4.700000e-01    6.160000e+00
   P2q    SD  1 4.300000e-01    1.358700e+01
   P2q    TD  1 3.950000e-01    2.049600e+01
   P1q     D  1 4.700000e-01    5.873000e+00
   P1q    SD  1 4.300000e-01    1.310600e+01
   P1q    TD  1 3.950000e-01    1.980800e+01
   N6q     D  1 4.700000e-01    5.845000e+00
   N6q    SD  1 4.300000e-01    1.289100e+01
   N6q    TD  1 3.950000e-01    1.941400e+01
   N5q     D  1 4.700000e-01    5.564000e+00
   N5q    SD  1 4.300000e-01    1.242400e+01
   N5q    TD  1 3.950000e-01    1.874300e+01
   N4q     D  1 4.700000e-01    5.529000e+00
   N4q    SD  1 4.300000e-01    1.215700e+01
   N4q    TD  1 3.950000e-01    1.825600e+01
   N3q     D  1 4.700000e-01    5.257000e+00
   N3q    SD  1 4.300000e-01    1.164200e+01
   N3q    TD  1 3.950000e-01    1.744000e+01
   N2q     D  1 4.700000e-01    5.016000e+00
   N2q    SD  1 4.300000e-01    1.104900e+01
   N2q    TD  1 3.950000e-01    1.648100e+01
   N1q     D  1 4.700000e-01    4.126000e+00
   N1q    SD  1 4.300000e-01    9.515000e+00
   N1q    TD  1 3.950000e-01    1.442800e+01
   C6q     D  1 4.700000e-01    3.399000e+00
   C6q    SD  1 4.300000e-01    7.860000e+00
   C6q    TD  1 3.990000e-01    1.190100e+01
   C5q     D  1 4.850000e-01    2.916000e+00
   C5q    SD  1 4.430000e-01    6.635000e+00
   C5q    TD  1 4.040000e-01    1.031200e+01
   C4q     D  1 5.200000e-01    2.643000e+00
   C4q    SD  1 4.730000e-01    5.286000e+00
   C4q    TD  1 4.650000e-01    7.539000e+00
   C3q     D  1 5.700000e-01    2.318000e+00
   C3q    SD  1 5.140000e-01    3.566000e+00
   C3q    TD  1 5.110000e-01    4.803000e+00
   C2q     D  1 6.200000e-01    2.137000e+00
   C2q    SD  1 5.520000e-01    2.391000e+00
   C2q    TD  1 5.240000e-01    3.070000e+00
   C1q     D  1 6.200000e-01    1.964000e+00
   C1q    SD  1 5.520000e-01    1.043000e+00
   C1q    TD  1 5.240000e-01    6.880000e-01
   X4q     D  1 4.700000e-01    3.629000e+00
   X4q    SD  1 4.300000e-01    8.548000e+00
   X4q    TD  1 3.980000e-01    1.302800e+01
   X3q     D  1 4.700000e-01    3.399000e+00
   X3q    SD  1 4.300000e-01    7.860000e+00
   X3q    TD  1 3.990000e-01    1.190100e+01
   X2q     D  1 4.700000e-01    3.084000e+00
   X2q    SD  1 4.300000e-01    6.636000e+00
   X2q    TD  1 4.010000e-01    9.808000e+00
   X1q     D  1 4.850000e-01    2.614000e+00
   X1q    SD  1 4.430000e-01    4.329000e+00
   X1q    TD  1 4.040000e-01    6.071000e+00
  P6dq     D  1 4.700000e-01    6.998000e+00
  P6dq    SD  1 4.300000e-01    1.669600e+01
  P6dq    TD  1 3.950000e-01    2.584500e+01
  P5dq     D  1 4.700000e-01    6.623000e+00
  P5dq    SD  1 4.300000e-01    1.545400e+01
  P5dq    TD  1 3.950000e-01    2.377600e+01
  P4dq     D  1 4.700000e-01    6.256000e+00
  P4dq    SD  1 4.300000e-01    1.432300e+01
  P4dq    TD  1 3.950000e-01    2.183900e+01
  P3dq     D  1 4.700000e-01    6.197000e+00
  P3dq    SD  1 4.300000e-01    1.387200e+01
  P3dq    TD  1 3.950000e-01    2.101600e+01
  P2dq     D  1 4.700000e-01    6.160000e+00
  P2dq    SD  1 4.300000e-01    1.358700e+01
  P2dq    TD  1 3.950000e-01    2.049600e+01
  P1dq     D  1 4.700000e-01    5.873000e+00
  P1dq    SD  1 4.300000e-01    1.310600e+01
  P1dq    TD  1 3.950000e-01    1.980800e+01
  N6dq     D  1 4.700000e-01    5.845000e+00
  N6dq    SD  1 4.300000e-01    1.289100e+01
  N6dq    TD  1 3.950000e-01    1.941400e+01
  N5dq     D  1 4.700000e-01    5.564000e+00
  N5dq    SD  1 4.300000e-01    1.242400e+01
  N5dq    TD  1 3.950000e-01    1.874300e+01
  N4dq     D  1 4.700000e-01    5.529000e+00
  N4dq    SD  1 4.300000e-01    1.215700e+01
  N4dq    TD  1 3.950000e-01    1.825600e+01
  N3dq     D  1 4.700000e-01    5.257000e+00
  N3dq    SD  1 4.300000e-01    1.164200e+01
  N3dq    TD  1 3.950000e-01    1.744000e+01
  N2dq     D  1 4.700000e-01    5.016000e+00
  N2dq    SD  1 4.300000e-01    1.104900e+01
  N2dq    TD  1 3.950000e-01    1.648100e+01
  N1dq     D  1 4.700000e-01    4.126000e+00
  N1dq    SD  1 4.300000e-01    9.515000e+00
  N1dq    TD  1 3.950000e-01    1.442800e+01
  P6aq     D  1 4.700000e-01    6.998000e+00
  P6aq    SD  1 4.300000e-01    1.669600e+01
  P6aq    TD  1 3.950000e-01    2.584500e+01
  P5aq     D  1 4.700000e-01    6.623000e+00
  P5aq    SD  1 4.300000e-01    1.545400e+01
  P5aq    TD  1 3.950000e-01    2.377600e+01
  P4aq     D  1 4.700000e-01    6.256000e+00
  P4aq    SD  1 4.300000e-01    1.432300e+01
  P4aq    TD  1 3.950000e-01    2.183900e+01
  P3aq     D  1 4.700000e-01    6.197000e+00
  P3aq    SD  1 4.300000e-01    1.387200e+01
  P3aq    TD  1 3.950000e-01    2.101600e+01
  P2aq     D  1 4.700000e-01    6.160000e+00
  P2aq    SD  1 4.300000e-01    1.358700e+01
  P2aq    TD  1 3.950000e-01    2.049600e+01
  P1aq     D  1 4.700000e-01    5.873000e+00
  P1aq    SD  1 4.300000e-01    1.310600e+01
  P1aq    TD  1 3.950000e-01    1.980800e+01
  N6aq     D  1 4.700000e-01    5.845000e+00
  N6aq    SD  1 4.300000e-01    1.289100e+01
  N6aq    TD  1 3.950000e-01    1.941400e+01
  N5aq     D  1 4.700000e-01    5.564000e+00
  N5aq    SD  1 4.300000e-01    1.242400e+01
  N5aq    TD  1 3.950000e-01    1.874300e+01
  N4aq     D  1 4.700000e-01    5.529000e+00
  N4aq    SD  1 4.300000e-01    1.215700e+01
  N4aq    TD  1 3.950000e-01    1.825600e+01
  N3aq     D  1 4.700000e-01    5.257000e+00
  N3aq    SD  1 4.300000e-01    1.164200e+01
  N3aq    TD  1 3.950000e-01    1.744000e+01
  N2aq     D  1 4.700000e-01    5.016000e+00
  N2aq    SD  1 4.300000e-01    1.104900e+01
  N2aq    TD  1 3.950000e-01    1.648100e+01
  N1aq     D  1 4.700000e-01    4.126000e+00
  N1aq    SD  1 4.300000e-01    9.515000e+00
  N1aq    TD  1 3.950000e-01    1.442800e+01
  C6vq     D  1 4.700000e-01    3.569000e+00
  C6vq    SD  1 4.300000e-01    8.090000e+00
  C6vq    TD  1 3.980000e-01    1.219800e+01
  C5vq     D  1 4.700000e-01    3.137000e+00
  C5vq    SD  1 4.300000e-01    7.041000e+00
  C5vq    TD  1 4.010000e-01    1.053600e+01
  C4vq     D  1 4.850000e-01    2.801000e+00
  C4vq    SD  1 4.430000e-01    5.758000e+00
  C4vq    TD  1 4.040000e-01    8.698000e+00
  C3vq     D  1 5.200000e-01    2.468000e+00
  C3vq    SD  1 4.730000e-01    3.949000e+00
  C3vq    TD  1 4.650000e-01    5.256000e+00
  C2vq     D  1 5.700000e-01    2.192000e+00
  C2vq    SD  1 5.140000e-01    2.594000e+00
  C2vq    TD  1 5.110000e-01    3.162000e+00
  C1vq     D  1 5.700000e-01    2.005000e+00
  C1vq    SD  1 5.140000e-01    1.146000e+00
  C1vq    TD  1 5.110000e-01    7.200000e-01
  X4vq     D  1 4.700000e-01    3.799000e+00
  X4vq    SD  1 4.300000e-01    8.708000e+00
  X4vq    TD  1 3.950000e-01    1.333600e+01
  X3vq     D  1 4.700000e-01    3.569000e+00
  X3vq    SD  1 4.300000e-01    8.090000e+00
  X3vq    TD  1 3.980000e-01    1.219800e+01
  X2vq     D  1 4.700000e-01    3.264000e+00
  X2vq    SD  1 4.300000e-01    6.836000e+00
  X2vq    TD  1 3.990000e-01    1.004900e+01
  X1vq     D  1 4.700000e-01    2.825000e+00
  X1vq    SD  1 4.300000e-01    4.665000e+00
  X1vq    TD  1 4.010000e-01    6.263000e+00
  C6eq     D  1 4.700000e-01    3.569000e+00
  C6eq    SD  1 4.300000e-01    8.090000e+00
  C6eq    TD  1 3.980000e-01    1.219800e+01
  C5eq     D  1 4.700000e-01    3.137000e+00
  C5eq    SD  1 4.300000e-01    7.041000e+00
  C5eq    TD  1 4.010000e-01    1.053600e+01
  C4eq     D  1 4.850000e-01    2.801000e+00
  C4eq    SD  1 4.430000e-01    5.758000e+00
  C4eq    TD  1 4.040000e-01    8.698000e+00
  C3eq     D  1 5.200000e-01    2.468000e+00
  C3eq    SD  1 4.730000e-01    3.949000e+00
  C3eq    TD  1 4.650000e-01    5.256000e+00
  C2eq     D  1 5.700000e-01    2.192000e+00
  C2eq    SD  1 5.140000e-01    2.594000e+00
  C2eq    TD  1 5.110000e-01    3.162000e+00
  C1eq     D  1 5.700000e-01    2.005000e+00
  C1eq    SD  1 5.140000e-01    1.146000e+00
  C1eq    TD  1 5.110000e-01    7.200000e-01
  X4eq     D  1 4.700000e-01    3.799000e+00
  X4eq    SD  1 4.300000e-01    8.708000e+00
  X4eq    TD  1 3.950000e-01    1.333600e+01
  X3eq     D  1 4.700000e-01    3.569000e+00
  X3eq    SD  1 4.300000e-01    8.090000e+00
  X3eq    TD  1 3.980000e-01    1.219800e+01
  X2eq     D  1 4.700000e-01    3.264000e+00
  X2eq    SD  1 4.300000e-01    6.836000e+00
  X2eq    TD  1 3.990000e-01    1.004900e+01
  X1eq     D  1 4.700000e-01    2.825000e+00
  X1eq    SD  1 4.300000e-01    4.665000e+00
  X1eq    TD  1 4.010000e-01    6.263000e+00
   P6h     D  1 4.700000e-01    6.998000e+00
   P6h    SD  1 4.300000e-01    1.669600e+01
   P6h    TD  1 3.950000e-01    2.584500e+01
   P5h     D  1 4.700000e-01    6.623000e+00
   P5h    SD  1 4.300000e-01    1.545400e+01
   P5h    TD  1 3.950000e-01    2.377600e+01
   P4h     D  1 4.700000e-01    6.256000e+00
   P4h    SD  1 4.300000e-01    1.432300e+01
   P4h    TD  1 3.950000e-01    2.183900e+01
   P3h     D  1 4.700000e-01    6.197000e+00
   P3h    SD  1 4.300000e-01    1.387200e+01
   P3h    TD  1 3.950000e-01    2.101600e+01
   P2h     D  1 4.700000e-01    6.160000e+00
   P2h    SD  1 4.300000e-01    1.358700e+01
   P2h    TD  1 3.950000e-01    2.049600e+01
   P1h     D  1 4.700000e-01    5.873000e+00
   P1h    SD  1 4.300000e-01    1.310600e+01
   P1h    TD  1 3.950000e-01    1.980800e+01
   N6h     D  1 4.700000e-01    5.845000e+00
   N6h    SD  1 4.300000e-01    1.289100e+01
   N6h    TD  1 3.950000e-01    1.941400e+01
   N5h     D  1 4.700000e-01    5.564000e+00
   N5h    SD  1 4.300000e-01    1.242400e+01
   N5h    TD  1 3.950000e-01    1.874300e+01
   N4h     D  1 4.700000e-01    5.529000e+00
   N4h    SD  1 4.300000e-01    1.215700e+01
   N4h    TD  1 3.950000e-01    1.825600e+01
   N3h     D  1 4.700000e-01    5.257000e+00
   N3h    SD  1 4.300000e-01    1.164200e+01
   N3h    TD  1 3.950000e-01    1.744000e+01
   N2h     D  1 4.700000e-01    5.016000e+00
   N2h    SD  1 4.300000e-01    1.104900e+01
   N2h    TD  1 3.950000e-01    1.648100e+01
   N1h     D  1 4.700000e-01    4.126000e+00
   N1h    SD  1 4.300000e-01    9.515000e+00
   N1h    TD  1 3.950000e-01    1.442800e+01
   C6h     D  1 4.700000e-01    3.399000e+00
   C6h    SD  1 4.300000e-01    7.860000e+00
   C6h    TD  1 3.990000e-01    1.190100e+01
   C5h     D  1 4.850000e-01    2.916000e+00
   C5h    SD  1 4.430000e-01    6.635000e+00
   C5h    TD  1 4.040000e-01    1.031200e+01
   C4h     D  1 5.200000e-01    2.643000e+00
   C4h    SD  1 4.730000e-01    5.286000e+00
   C4h    TD  1 4.650000e-01    7.539000e+00
   C3h     D  1 5.700000e-01    2.318000e+00
   C3h    SD  1 5.140000e-01    3.566000e+00
   C3h    TD  1 5.110000e-01    4.803000e+00
   C2h     D  1 6.200000e-01    2.137000e+00
   C2h    SD  1 5.520000e-01    2.391000e+00
   C2h    TD  1 5.240000e-01    3.070000e+00
   C1h     D  1 6.200000e-01    1.964000e+00
   C1h    SD  1 5.520000e-01    1.043000e+00
   C1h    TD  1 5.240000e-01    6.880000e-01
   X4h     D  1 4.700000e-01    3.629000e+00
   X4h    SD  1 4.300000e-01    8.548000e+00
   X4h    TD  1 3.980000e-01    1.302800e+01
   X3h     D  1 4.700000e-01    3.399000e+00
   X3h    SD  1 4.300000e-01    7.860000e+00
   X3h    TD  1 3.990000e-01    1.190100e+01
   X2h     D  1 4.700000e-01    3.084000e+00
   X2h    SD  1 4.300000e-01    6.636000e+00
   X2h    TD  1 4.010000e-01    9.808000e+00
   X1h     D  1 4.850000e-01    2.614000e+00
   X1h    SD  1 4.430000e-01    4.329000e+00
   X1h    TD  1 4.040000e-01    6.071000e+00
  P6dh     D  1 4.700000e-01    6.998000e+00
  P6dh    SD  1 4.300000e-01    1.669600e+01
  P6dh    TD  1 3.950000e-01    2.584500e+01
  P5dh     D  1 4.700000e-01    6.623000e+00
  P5dh    SD  1 4.300000e-01    1.545400e+01
  P5dh    TD  1 3.950000e-01    2.377600e+01
  P4dh     D  1 4.700000e-01    6.256000e+00
  P4dh    SD  1 4.300000e-01    1.432300e+01
  P4dh    TD  1 3.950000e-01    2.183900e+01
  P3dh     D  1 4.700000e-01    6.197000e+00
  P3dh    SD  1 4.300000e-01    1.387200e+01
  P3dh    TD  1 3.950000e-01    2.101600e+01
  P2dh     D  1 4.700000e-01    6.160000e+00
  P2dh    SD  1 4.300000e-01    1.358700e+01
  P2dh    TD  1 3.950000e-01    2.049600e+01
  P1dh     D  1 4.700000e-01    5.873000e+00
  P1dh    SD  1 4.300000e-01    1.310600e+01
  P1dh    TD  1 3.950000e-01    1.980800e+01
  N6dh     D  1 4.700000e-01    5.845000e+00
  N6dh    SD  1 4.300000e-01    1.289100e+01
  N6dh    TD  1 3.950000e-01    1.941400e+01
  N5dh     D  1 4.700000e-01    5.564000e+00
  N5dh    SD  1 4.300000e-01    1.242400e+01
  N5dh    TD  1 3.950000e-01    1.874300e+01
  N4dh     D  1 4.700000e-01    5.529000e+00
  N4dh    SD  1 4.300000e-01    1.215700e+01
  N4dh    TD  1 3.950000e-01    1.825600e+01
  N3dh     D  1 4.700000e-01    5.257000e+00
  N3dh    SD  1 4.300000e-01    1.164200e+01
  N3dh    TD  1 3.950000e-01    1.744000e+01
  N2dh     D  1 4.700000e-01    5.016000e+00
  N2dh    SD  1 4.300000e-01    1.104900e+01
  N2dh    TD  1 3.950000e-01    1.648100e+01
  N1dh     D  1 4.700000e-01    4.126000e+00
  N1dh    SD  1 4.300000e-01    9.515000e+00
  N1dh    TD  1 3.950000e-01    1.442800e+01
  P6ah     D  1 4.700000e-01    6.998000e+00
  P6ah    SD  1 4.300000e-01    1.669600e+01
  P6ah    TD  1 3.950000e-01    2.584500e+01
  P5ah     D  1 4.700000e-01    6.623000e+00
  P5ah    SD  1 4.300000e-01    1.545400e+01
  P5ah    TD  1 3.950000e-01    2.377600e+01
  P4ah     D  1 4.700000e-01    6.256000e+00
  P4ah    SD  1 4.300000e-01    1.432300e+01
  P4ah    TD  1 3.950000e-01    2.183900e+01
  P3ah     D  1 4.700000e-01    6.197000e+00
  P3ah    SD  1 4.300000e-01    1.387200e+01
  P3ah    TD  1 3.950000e-01    2.101600e+01
  P2ah     D  1 4.700000e-01    6.160000e+00
  P2ah    SD  1 4.300000e-01    1.358700e+01
  P2ah    TD  1 3.950000e-01    2.049600e+01
  P1ah     D  1 4.700000e-01    5.873000e+00
  P1ah    SD  1 4.300000e-01    1.310600e+01
  P1ah    TD  1 3.950000e-01    1.980800e+01
  N6ah     D  1 4.700000e-01    5.845000e+00
  N6ah    SD  1 4.300000e-01    1.289100e+01
  N6ah    TD  1 3.950000e-01    1.941400e+01
  N5ah     D  1 4.700000e-01    5.564000e+00
  N5ah    SD  1 4.300000e-01    1.242400e+01
  N5ah    TD  1 3.950000e-01    1.874300e+01
  N4ah     D  1 4.700000e-01    5.529000e+00
  N4ah    SD  1 4.300000e-01    1.215700e+01
  N4ah    TD  1 3.950000e-01    1.825600e+01
  N3ah     D  1 4.700000e-01    5.257000e+00
  N3ah    SD  1 4.300000e-01    1.164200e+01
  N3ah    TD  1 3.950000e-01    1.744000e+01
  N2ah     D  1 4.700000e-01    5.016000e+00
  N2ah    SD  1 4.300000e-01    1.104900e+01
  N2ah    TD  1 3.950000e-01    1.648100e+01
  N1ah     D  1 4.700000e-01    4.126000e+00
  N1ah    SD  1 4.300000e-01    9.515000e+00
  N1ah    TD  1 3.950000e-01    1.442800e+01
  C6vh     D  1 4.700000e-01    3.569000e+00
  C6vh    SD  1 4.300000e-01    8.090000e+00
  C6vh    TD  1 3.980000e-01    1.219800e+01
  C5vh     D  1 4.700000e-01    3.137000e+00
  C5vh    SD  1 4.300000e-01    7.041000e+00
  C5vh    TD  1 4.010000e-01    1.053600e+01
  C4vh     D  1 4.850000e-01    2.801000e+00
  C4vh    SD  1 4.430000e-01    5.758000e+00
  C4vh    TD  1 4.040000e-01    8.698000e+00
  C3vh     D  1 5.200000e-01    2.468000e+00
  C3vh    SD  1 4.730000e-01    3.949000e+00
  C3vh    TD  1 4.650000e-01    5.256000e+00
  C2vh     D  1 5.700000e-01    2.192000e+00
  C2vh    SD  1 5.140000e-01    2.594000e+00
  C2vh    TD  1 5.110000e-01    3.162000e+00
  C1vh     D  1 5.700000e-01    2.005000e+00
  C1vh    SD  1 5.140000e-01    1.146000e+00
  C1vh    TD  1 5.110000e-01    7.200000e-01
  X4vh     D  1 4.700000e-01    3.799000e+00
  X4vh    SD  1 4.300000e-01    8.708000e+00
  X4vh    TD  1 3.950000e-01    1.333600e+01
  X3vh     D  1 4.700000e-01    3.569000e+00
  X3vh    SD  1 4.300000e-01    8.090000e+00
  X3vh    TD  1 3.980000e-01    1.219800e+01
  X2vh     D  1 4.700000e-01    3.264000e+00
  X2vh    SD  1 4.300000e-01    6.836000e+00
  X2vh    TD  1 3.990000e-01    1.004900e+01
  X1vh     D  1 4.700000e-01    2.825000e+00
  X1vh    SD  1 4.300000e-01    4.665000e+00
  X1vh    TD  1 4.010000e-01    6.263000e+00
  C6eh     D  1 4.700000e-01    3.569000e+00
  C6eh    SD  1 4.300000e-01    8.090000e+00
  C6eh    TD  1 3.980000e-01    1.219800e+01
  C5eh     D  1 4.700000e-01    3.137000e+00
  C5eh    SD  1 4.300000e-01    7.041000e+00
  C5eh    TD  1 4.010000e-01    1.053600e+01
  C4eh     D  1 4.850000e-01    2.801000e+00
  C4eh    SD  1 4.430000e-01    5.758000e+00
  C4eh    TD  1 4.040000e-01    8.698000e+00
  C3eh     D  1 5.200000e-01    2.468000e+00
  C3eh    SD  1 4.730000e-01    3.949000e+00
  C3eh    TD  1 4.650000e-01    5.256000e+00
  C2eh     D  1 5.700000e-01    2.192000e+00
  C2eh    SD  1 5.140000e-01    2.594000e+00
  C2eh    TD  1 5.110000e-01    3.162000e+00
  C1eh     D  1 5.700000e-01    2.005000e+00
  C1eh    SD  1 5.140000e-01    1.146000e+00
  C1eh    TD  1 5.110000e-01    7.200000e-01
  X4eh     D  1 4.700000e-01    3.799000e+00
  X4eh    SD  1 4.300000e-01    8.708000e+00
  X4eh    TD  1 3.950000e-01    1.333600e+01
  X3eh     D  1 4.700000e-01    3.569000e+00
  X3eh    SD  1 4.300000e-01    8.090000e+00
  X3eh    TD  1 3.980000e-01    1.219800e+01
  X2eh     D  1 4.700000e-01    3.264000e+00
  X2eh    SD  1 4.300000e-01    6.836000e+00
  X2eh    TD  1 3.990000e-01    1.004900e+01
  X1eh     D  1 4.700000e-01    2.825000e+00
  X1eh    SD  1 4.300000e-01    4.665000e+00
  X1eh    TD  1 4.010000e-01    6.263000e+00
   P6r     D  1 4.700000e-01    6.998000e+00
   P6r    SD  1 4.300000e-01    1.669600e+01
   P6r    TD  1 3.950000e-01    2.584500e+01
   P5r     D  1 4.700000e-01    6.623000e+00
   P5r    SD  1 4.300000e-01    1.545400e+01
   P5r    TD  1 3.950000e-01    2.377600e+01
   P4r     D  1 4.700000e-01    6.256000e+00
   P4r    SD  1 4.300000e-01    1.432300e+01
   P4r    TD  1 3.950000e-01    2.183900e+01
   P3r     D  1 4.700000e-01    6.197000e+00
   P3r    SD  1 4.300000e-01    1.387200e+01
   P3r    TD  1 3.950000e-01    2.101600e+01
   P2r     D  1 4.700000e-01    6.160000e+00
   P2r    SD  1 4.300000e-01    1.358700e+01
   P2r    TD  1 3.950000e-01    2.049600e+01
   P1r     D  1 4.700000e-01    5.873000e+00
   P1r    SD  1 4.300000e-01    1.310600e+01
   P1r    TD  1 3.950000e-01    1.980800e+01
   N6r     D  1 4.700000e-01    5.845000e+00
   N6r    SD  1 4.300000e-01    1.289100e+01
   N6r    TD  1 3.950000e-01    1.941400e+01
   N5r     D  1 4.700000e-01    5.564000e+00
   N5r    SD  1 4.300000e-01    1.242400e+01
   N5r    TD  1 3.950000e-01    1.874300e+01
   N4r     D  1 4.700000e-01    5.529000e+00
   N4r    SD  1 4.300000e-01    1.215700e+01
   N4r    TD  1 3.950000e-01    1.825600e+01
   N3r     D  1 4.700000e-01    5.257000e+00
   N3r    SD  1 4.300000e-01    1.164200e+01
   N3r    TD  1 3.950000e-01    1.744000e+01
   N2r     D  1 4.700000e-01    5.016000e+00
   N2r    SD  1 4.300000e-01    1.104900e+01
   N2r    TD  1 3.950000e-01    1.648100e+01
   N1r     D  1 4.700000e-01    4.126000e+00
   N1r    SD  1 4.300000e-01    9.515000e+00
   N1r    TD  1 3.950000e-01    1.442800e+01
   C6r     D  1 4.700000e-01    3.399000e+00
   C6r    SD  1 4.300000e-01    7.860000e+00
   C6r    TD  1 3.990000e-01    1.190100e+01
   C5r     D  1 4.850000e-01    2.916000e+00
   C5r    SD  1 4.430000e-01    6.635000e+00
   C5r    TD  1 4.040000e-01    1.031200e+01
   C4r     D  1 5.200000e-01    2.643000e+00
   C4r    SD  1 4.730000e-01    5.286000e+00
   C4r    TD  1 4.650000e-01    7.539000e+00
   C3r     D  1 5.700000e-01    2.318000e+00
   C3r    SD  1 5.140000e-01    3.566000e+00
   C3r    TD  1 5.110000e-01    4.803000e+00
   C2r     D  1 6.200000e-01    2.137000e+00
   C2r    SD  1 5.520000e-01    2.391000e+00
   C2r    TD  1 5.240000e-01    3.070000e+00
   C1r     D  1 6.200000e-01    1.964000e+00
   C1r    SD  1 5.520000e-01    1.043000e+00
   C1r    TD  1 5.240000e-01    6.880000e-01
   X4r     D  1 4.700000e-01    3.629000e+00
   X4r    SD  1 4.300000e-01    8.548000e+00
   X4r    TD  1 3.980000e-01    1.302800e+01
   X3r     D  1 4.700000e-01    3.399000e+00
   X3r    SD  1 4.300000e-01    7.860000e+00
   X3r    TD  1 3.990000e-01    1.190100e+01
   X2r     D  1 4.700000e-01    3.084000e+00
   X2r    SD  1 4.300000e-01    6.636000e+00
   X2r    TD  1 4.010000e-01    9.808000e+00
   X1r     D  1 4.850000e-01    2.614000e+00
   X1r    SD  1 4.430000e-01    4.329000e+00
   X1r    TD  1 4.040000e-01    6.071000e+00
  P6dr     D  1 4.700000e-01    6.998000e+00
  P6dr    SD  1 4.300000e-01    1.669600e+01
  P6dr    TD  1 3.950000e-01    2.584500e+01
  P5dr     D  1 4.700000e-01    6.623000e+00
  P5dr    SD  1 4.300000e-01    1.545400e+01
  P5dr    TD  1 3.950000e-01    2.377600e+01
  P4dr     D  1 4.700000e-01    6.256000e+00
  P4dr    SD  1 4.300000e-01    1.432300e+01
  P4dr    TD  1 3.950000e-01    2.183900e+01
  P3dr     D  1 4.700000e-01    6.197000e+00
  P3dr    SD  1 4.300000e-01    1.387200e+01
  P3dr    TD  1 3.950000e-01    2.101600e+01
  P2dr     D  1 4.700000e-01    6.160000e+00
  P2dr    SD  1 4.300000e-01    1.358700e+01
  P2dr    TD  1 3.950000e-01    2.049600e+01
  P1dr     D  1 4.700000e-01    5.873000e+00
  P1dr    SD  1 4.300000e-01    1.310600e+01
  P1dr    TD  1 3.950000e-01    1.980800e+01
  N6dr     D  1 4.700000e-01    5.845000e+00
  N6dr    SD  1 4.300000e-01    1.289100e+01
  N6dr    TD  1 3.950000e-01    1.941400e+01
  N5dr     D  1 4.700000e-01    5.564000e+00
  N5dr    SD  1 4.300000e-01    1.242400e+01
  N5dr    TD  1 3.950000e-01    1.874300e+01
  N4dr     D  1 4.700000e-01    5.529000e+00
  N4dr    SD  1 4.300000e-01    1.215700e+01
  N4dr    TD  1 3.950000e-01    1.825600e+01
  N3dr     D  1 4.700000e-01    5.257000e+00
  N3dr    SD  1 4.300000e-01    1.164200e+01
  N3dr    TD  1 3.950000e-01    1.744000e+01
  N2dr     D  1 4.700000e-01    5.016000e+00
  N2dr    SD  1 4.300000e-01    1.104900e+01
  N2dr    TD  1 3.950000e-01    1.648100e+01
  N1dr     D  1 4.700000e-01    4.126000e+00
  N1dr    SD  1 4.300000e-01    9.515000e+00
  N1dr    TD  1 3.950000e-01    1.442800e+01
  P6ar     D  1 4.700000e-01    6.998000e+00
  P6ar    SD  1 4.300000e-01    1.669600e+01
  P6ar    TD  1 3.950000e-01    2.584500e+01
  P5ar     D  1 4.700000e-01    6.623000e+00
  P5ar    SD  1 4.300000e-01    1.545400e+01
  P5ar    TD  1 3.950000e-01    2.377600e+01
  P4ar     D  1 4.700000e-01    6.256000e+00
  P4ar    SD  1 4.300000e-01    1.432300e+01
  P4ar    TD  1 3.950000e-01    2.183900e+01
  P3ar     D  1 4.700000e-01    6.197000e+00
  P3ar    SD  1 4.300000e-01    1.387200e+01
  P3ar    TD  1 3.950000e-01    2.101600e+01
  P2ar     D  1 4.700000e-01    6.160000e+00
  P2ar    SD  1 4.300000e-01    1.358700e+01
  P2ar    TD  1 3.950000e-01    2.049600e+01
  P1ar     D  1 4.700000e-01    5.873000e+00
  P1ar    SD  1 4.300000e-01    1.310600e+01
  P1ar    TD  1 3.950000e-01    1.980800e+01
  N6ar     D  1 4.700000e-01    5.845000e+00
  N6ar    SD  1 4.300000e-01    1.289100e+01
  N6ar    TD  1 3.950000e-01    1.941400e+01
  N5ar     D  1 4.700000e-01    5.564000e+00
  N5ar    SD  1 4.300000e-01    1.242400e+01
  N5ar    TD  1 3.950000e-01    1.874300e+01
  N4ar     D  1 4.700000e-01    5.529000e+00
  N4ar    SD  1 4.300000e-01    1.215700e+01
  N4ar    TD  1 3.950000e-01    1.825600e+01
  N3ar     D  1 4.700000e-01    5.257000e+00
  N3ar    SD  1 4.300000e-01    1.164200e+01
  N3ar    TD  1 3.950000e-01    1.744000e+01
  N2ar     D  1 4.700000e-01    5.016000e+00
  N2ar    SD  1 4.300000e-01    1.104900e+01
  N2ar    TD  1 3.950000e-01    1.648100e+01
  N1ar     D  1 4.700000e-01    4.126000e+00
  N1ar    SD  1 4.300000e-01    9.515000e+00
  N1ar    TD  1 3.950000e-01    1.442800e+01
  C6vr     D  1 4.700000e-01    3.569000e+00
  C6vr    SD  1 4.300000e-01    8.090000e+00
  C6vr    TD  1 3.980000e-01    1.219800e+01
  C5vr     D  1 4.700000e-01    3.137000e+00
  C5vr    SD  1 4.300000e-01    7.041000e+00
  C5vr    TD  1 4.010000e-01    1.053600e+01
  C4vr     D  1 4.850000e-01    2.801000e+00
  C4vr    SD  1 4.430000e-01    5.758000e+00
  C4vr    TD  1 4.040000e-01    8.698000e+00
  C3vr     D  1 5.200000e-01    2.468000e+00
  C3vr    SD  1 4.730000e-01    3.949000e+00
  C3vr    TD  1 4.650000e-01    5.256000e+00
  C2vr     D  1 5.700000e-01    2.192000e+00
  C2vr    SD  1 5.140000e-01    2.594000e+00
  C2vr    TD  1 5.110000e-01    3.162000e+00
  C1vr     D  1 5.700000e-01    2.005000e+00
  C1vr    SD  1 5.140000e-01    1.146000e+00
  C1vr    TD  1 5.110000e-01    7.200000e-01
  X4vr     D  1 4.700000e-01    3.799000e+00
  X4vr    SD  1 4.300000e-01    8.708000e+00
  X4vr    TD  1 3.950000e-01    1.333600e+01
  X3vr     D  1 4.700000e-01    3.569000e+00
  X3vr    SD  1 4.300000e-01    8.090000e+00
  X3vr    TD  1 3.980000e-01    1.219800e+01
  X2vr     D  1 4.700000e-01    3.264000e+00
  X2vr    SD  1 4.300000e-01    6.836000e+00
  X2vr    TD  1 3.990000e-01    1.004900e+01
  X1vr     D  1 4.700000e-01    2.825000e+00
  X1vr    SD  1 4.300000e-01    4.665000e+00
  X1vr    TD  1 4.010000e-01    6.263000e+00
  C6er     D  1 4.700000e-01    3.569000e+00
  C6er    SD  1 4.300000e-01    8.090000e+00
  C6er    TD  1 3.980000e-01    1.219800e+01
  C5er     D  1 4.700000e-01    3.137000e+00
  C5er    SD  1 4.300000e-01    7.041000e+00
  C5er    TD  1 4.010000e-01    1.053600e+01
  C4er     D  1 4.850000e-01    2.801000e+00
  C4er    SD  1 4.430000e-01    5.758000e+00
  C4er    TD  1 4.040000e-01    8.698000e+00
  C3er     D  1 5.200000e-01    2.468000e+00
  C3er    SD  1 4.730000e-01    3.949000e+00
  C3er    TD  1 4.650000e-01    5.256000e+00
  C2er     D  1 5.700000e-01    2.192000e+00
  C2er    SD  1 5.140000e-01    2.594000e+00
  C2er    TD  1 5.110000e-01    3.162000e+00
  C1er     D  1 5.700000e-01    2.005000e+00
  C1er    SD  1 5.140000e-01    1.146000e+00
  C1er    TD  1 5.110000e-01    7.200000e-01
  X4er     D  1 4.700000e-01    3.799000e+00
  X4er    SD  1 4.300000e-01    8.708000e+00
  X4er    TD  1 3.950000e-01    1.333600e+01
  X3er     D  1 4.700000e-01    3.569000e+00
  X3er    SD  1 4.300000e-01    8.090000e+00
  X3er    TD  1 3.980000e-01    1.219800e+01
  X2er     D  1 4.700000e-01    3.264000e+00
  X2er    SD  1 4.300000e-01    6.836000e+00
  X2er    TD  1 3.990000e-01    1.004900e+01
  X1er     D  1 4.700000e-01    2.825000e+00
  X1er    SD  1 4.300000e-01    4.665000e+00
  X1er    TD  1 4.010000e-01    6.263000e+00
   SP6     D  1 4.300000e-01    6.298000e+00
   SP6    SD  1 4.100000e-01    1.492900e+01
   SP6    TD  1 3.650000e-01    2.105900e+01
   SP5     D  1 4.300000e-01    5.908000e+00
   SP5    SD  1 4.100000e-01    1.371100e+01
   SP5    TD  1 3.650000e-01    1.924700e+01
   SP4     D  1 4.300000e-01    5.576000e+00
   SP4    SD  1 4.100000e-01    1.260600e+01
   SP4    TD  1 3.650000e-01    1.757100e+01
   SP3     D  1 4.300000e-01    5.531000e+00
   SP3    SD  1 4.100000e-01    1.218700e+01
   SP3    TD  1 3.650000e-01    1.688500e+01
   SP2     D  1 4.300000e-01    5.503000e+00
   SP2    SD  1 4.100000e-01    1.192700e+01
   SP2    TD  1 3.650000e-01    1.645700e+01
   SP1     D  1 4.300000e-01    5.204000e+00
   SP1    SD  1 4.100000e-01    1.149400e+01
   SP1    TD  1 3.650000e-01    1.586700e+01
   SN6     D  1 4.300000e-01    5.183000e+00
   SN6    SD  1 4.100000e-01    1.130000e+01
   SN6    TD  1 3.650000e-01    1.554900e+01
   SN5     D  1 4.300000e-01    4.930000e+00
   SN5    SD  1 4.100000e-01    1.086900e+01
   SN5    TD  1 3.650000e-01    1.493400e+01
   SN4     D  1 4.300000e-01    4.904000e+00
   SN4    SD  1 4.100000e-01    1.063300e+01
   SN4    TD  1 3.650000e-01    1.454600e+01
   SN3     D  1 4.300000e-01    4.675000e+00
   SN3    SD  1 4.100000e-01    1.008700e+01
   SN3    TD  1 3.650000e-01    1.382400e+01
   SN2     D  1 4.300000e-01    4.438000e+00
   SN2    SD  1 4.100000e-01    9.506000e+00
   SN2    TD  1 3.650000e-01    1.299400e+01
   SN1     D  1 4.300000e-01    3.388000e+00
   SN1    SD  1 4.100000e-01    7.938000e+00
   SN1    TD  1 3.650000e-01    1.116200e+01
   SC6     D  1 4.300000e-01    2.474000e+00
   SC6    SD  1 4.140000e-01    6.554000e+00
   SC6    TD  1 4.040000e-01    8.603000e+00
   SC5     D  1 4.430000e-01    1.953000e+00
   SC5    SD  1 4.210000e-01    5.649000e+00
   SC5    TD  1 4.230000e-01    7.374000e+00
   SC4     D  1 4.730000e-01    1.648000e+00
   SC4    SD  1 4.530000e-01    4.546000e+00
   SC4    TD  1 4.840000e-01    5.532000e+00
   SC3     D  1 5.140000e-01    1.336000e+00
   SC3    SD  1 4.960000e-01    3.125000e+00
   SC3    TD  1 5.370000e-01    3.607000e+00
   SC2     D  1 5.520000e-01    1.139000e+00
   SC2    SD  1 5.350000e-01    2.159000e+00
   SC2    TD  1 5.880000e-01    2.321000e+00
   SC1     D  1 5.520000e-01    1.016000e+00
   SC1    SD  1 5.350000e-01    1.042000e+00
   SC1    TD  1 5.880000e-01    8.370000e-01
   SX4     D  1 4.300000e-01    2.746000e+00
   SX4    SD  1 4.100000e-01    7.183000e+00
   SX4    TD  1 3.940000e-01    9.546000e+00
   SX3     D  1 4.300000e-01    2.474000e+00
   SX3    SD  1 4.140000e-01    6.554000e+00
   SX3    TD  1 4.040000e-01    8.603000e+00
   SX2     D  1 4.300000e-01    2.180000e+00
   SX2    SD  1 4.180000e-01    5.494000e+00
   SX2    TD  1 4.090000e-01    7.191000e+00
   SX1     D  1 4.430000e-01    1.743000e+00
   SX1    SD  1 4.210000e-01    3.694000e+00
   SX1    TD  1 4.230000e-01    4.534000e+00
  SP6d     D  1 4.300000e-01    6.298000e+00
  SP6d    SD  1 4.100000e-01    1.492900e+01
  SP6d    TD  1 3.650000e-01    2.105900e+01
  SP5d     D  1 4.300000e-01    5.908000e+00
  SP5d    SD  1 4.100000e-01    1.371100e+01
  SP5d    TD  1 3.650000e-01    1.924700e+01
  SP4d     D  1 4.300000e-01    5.576000e+00
  SP4d    SD  1 4.100000e-01    1.260600e+01
  SP4d    TD  1 3.650000e-01    1.757100e+01
  SP3d     D  1 4.300000e-01    5.531000e+00
  SP3d    SD  1 4.100000e-01    1.218700e+01
  SP3d    TD  1 3.650000e-01    1.688500e+01
  SP2d     D  1 4.300000e-01    5.503000e+00
  SP2d    SD  1 4.100000e-01    1.192700e+01
  SP2d    TD  1 3.650000e-01    1.645700e+01
  SP1d     D  1 4.300000e-01    5.204000e+00
  SP1d    SD  1 4.100000e-01    1.149400e+01
  SP1d    TD  1 3.650000e-01    1.586700e+01
  SN6d     D  1 4.300000e-01    5.183000e+00
  SN6d    SD  1 4.100000e-01    1.130000e+01
  SN6d    TD  1 3.650000e-01    1.554900e+01
  SN5d     D  1 4.300000e-01    4.930000e+00
  SN5d    SD  1 4.100000e-01    1.086900e+01
  SN5d    TD  1 3.650000e-01    1.493400e+01
  SN4d     D  1 4.300000e-01    4.904000e+00
  SN4d    SD  1 4.100000e-01    1.063300e+01
  SN4d    TD  1 3.650000e-01    1.454600e+01
  SN3d     D  1 4.300000e-01    4.675000e+00
  SN3d    SD  1 4.100000e-01    1.008700e+01
  SN3d    TD  1 3.650000e-01    1.382400e+01
  SN2d     D  1 4.300000e-01    4.438000e+00
  SN2d    SD  1 4.100000e-01    9.506000e+00
  SN2d    TD  1 3.650000e-01    1.299400e+01
  SN1d     D  1 4.300000e-01    3.388000e+00
  SN1d    SD  1 4.100000e-01    7.938000e+00
  SN1d    TD  1 3.650000e-01    1.116200e+01
  SP6a     D  1 4.300000e-01    6.298000e+00
  SP6a    SD  1 4.100000e-01    1.492900e+01
  SP6a    TD  1 3.650000e-01    2.105900e+01
  SP5a     D  1 4.300000e-01    5.908000e+00
  SP5a    SD  1 4.100000e-01    1.371100e+01
  SP5a    TD  1 3.650000e-01    1.924700e+01
  SP4a     D  1 4.300000e-01    5.576000e+00
  SP4a    SD  1 4.100000e-01    1.260600e+01
  SP4a    TD  1 3.650000e-01    1.757100e+01
  SP3a     D  1 4.300000e-01    5.531000e+00
  SP3a    SD  1 4.100000e-01    1.218700e+01
  SP3a    TD  1 3.650000e-01    1.688500e+01
  SP2a     D  1 4.300000e-01    5.503000e+00
  SP2a    SD  1 4.100000e-01    1.192700e+01
  SP2a    TD  1 3.650000e-01    1.645700e+01
  SP1a     D  1 4.300000e-01    5.204000e+00
  SP1a    SD  1 4.100000e-01    1.149400e+01
  SP1a    TD  1 3.650000e-01    1.586700e+01
  SN6a     D  1 4.300000e-01    5.183000e+00
  SN6a    SD  1 4.100000e-01    1.130000e+01
  SN6a    TD  1 3.650000e-01    1.554900e+01
  SN5a     D  1 4.300000e-01    4.930000e+00
  SN5a    SD  1 4.100000e-01    1.086900e+01
  SN5a    TD  1 3.650000e-01    1.493400e+01
  SN4a     D  1 4.300000e-01    4.904000e+00
  SN4a    SD  1 4.100000e-01    1.063300e+01
  SN4a    TD  1 3.650000e-01    1.454600e+01
  SN3a     D  1 4.300000e-01    4.675000e+00
  SN3a    SD  1 4.100000e-01    1.008700e+01
  SN3a    TD  1 3.650000e-01    1.382400e+01
  SN2a     D  1 4.300000e-01    4.438000e+00
  SN2a    SD  1 4.100000e-01    9.506000e+00
  SN2a    TD  1 3.650000e-01    1.299400e+01
  SN1a     D  1 4.300000e-01    3.388000e+00
  SN1a    SD  1 4.100000e-01    7.938000e+00
  SN1a    TD  1 3.650000e-01    1.116200e+01
  SC6v     D  1 4.300000e-01    2.704000e+00
  SC6v    SD  1 4.100000e-01    6.793000e+00
  SC6v    TD  1 3.940000e-01    8.953000e+00
  SC5v     D  1 4.300000e-01    2.217000e+00
  SC5v    SD  1 4.180000e-01    5.830000e+00
  SC5v    TD  1 4.090000e-01    7.692000e+00
  SC4v     D  1 4.430000e-01    1.873000e+00
  SC4v    SD  1 4.210000e-01    4.904000e+00
  SC4v    TD  1 4.230000e-01    6.292000e+00
  SC3v     D  1 4.730000e-01    1.526000e+00
  SC3v    SD  1 4.530000e-01    3.422000e+00
  SC3v    TD  1 4.840000e-01    3.995000e+00
  SC2v     D  1 5.140000e-01    1.248000e+00
  SC2v    SD  1 4.960000e-01    2.315000e+00
  SC2v    TD  1 5.370000e-01    2.514000e+00
  SC1v     D  1 5.140000e-01    1.117000e+00
  SC1v    SD  1 4.960000e-01    1.110000e+00
  SC1v    TD  1 5.370000e-01    8.890000e-01
  SX4v     D  1 4.300000e-01    2.906000e+00
  SX4v    SD  1 4.100000e-01    7.343000e+00
  SX4v    TD  1 3.780000e-01    1.005500e+01
  SX3v     D  1 4.300000e-01    2.704000e+00
  SX3v    SD  1 4.100000e-01    6.793000e+00
  SX3v    TD  1 3.940000e-01    8.953000e+00
  SX2v     D  1 4.300000e-01    2.380000e+00
  SX2v    SD  1 4.140000e-01    5.694000e+00
  SX2v    TD  1 4.040000e-01    7.316000e+00
  SX1v     D  1 4.300000e-01    2.001000e+00
  SX1v    SD  1 4.180000e-01    3.862000e+00
  SX1v    TD  1 4.090000e-01    4.754000e+00
  SC6e     D  1 4.300000e-01    2.704000e+00
  SC6e    SD  1 4.100000e-01    6.793000e+00
  SC6e    TD  1 3.940000e-01    8.953000e+00
  SC5e     D  1 4.300000e-01    2.217000e+00
  SC5e    SD  1 4.180000e-01    5.830000e+00
  SC5e    TD  1 4.090000e-01    7.692000e+00
  SC4e     D  1 4.430000e-01    1.873000e+00
  SC4e    SD  1 4.210000e-01    4.904000e+00
  SC4e    TD  1 4.230000e-01    6.292000e+00
  SC3e     D  1 4.730000e-01    1.526000e+00
  SC3e    SD  1 4.530000e-01    3.422000e+00
  SC3e    TD  1 4.840000e-01    3.995000e+00
  SC2e     D  1 5.140000e-01    1.248000e+00
  SC2e    SD  1 4.960000e-01    2.315000e+00
  SC2e    TD  1 5.370000e-01    2.514000e+00
  SC1e     D  1 5.140000e-01    1.117000e+00
  SC1e    SD  1 4.960000e-01    1.110000e+00
  SC1e    TD  1 5.370000e-01    8.890000e-01
  SX4e     D  1 4.300000e-01    2.906000e+00
  SX4e    SD  1 4.100000e-01    7.343000e+00
  SX4e    TD  1 3.780000e-01    1.005500e+01
  SX3e     D  1 4.300000e-01    2.704000e+00
  SX3e    SD  1 4.100000e-01    6.793000e+00
  SX3e    TD  1 3.940000e-01    8.953000e+00
  SX2e     D  1 4.300000e-01    2.380000e+00
  SX2e    SD  1 4.140000e-01    5.694000e+00
  SX2e    TD  1 4.040000e-01    7.316000e+00
  SX1e     D  1 4.300000e-01    2.001000e+00
  SX1e    SD  1 4.180000e-01    3.862000e+00
  SX1e    TD  1 4.090000e-01    4.754000e+00
  SP6q     D  1 4.300000e-01    6.298000e+00
  SP6q    SD  1 4.100000e-01    1.492900e+01
  SP6q    TD  1 3.650000e-01    2.105900e+01
  SP5q     D  1 4.300000e-01    5.908000e+00
  SP5q    SD  1 4.100000e-01    1.371100e+01
  SP5q    TD  1 3.650000e-01    1.924700e+01
  SP4q     D  1 4.300000e-01    5.576000e+00
  SP4q    SD  1 4.100000e-01    1.260600e+01
  SP4q    TD  1 3.650000e-01    1.757100e+01
  SP3q     D  1 4.300000e-01    5.531000e+00
  SP3q    SD  1 4.100000e-01    1.218700e+01
  SP3q    TD  1 3.650000e-01    1.688500e+01
  SP2q     D  1 4.300000e-01    5.503000e+00
  SP2q    SD  1 4.100000e-01    1.192700e+01
  SP2q    TD  1 3.650000e-01    1.645700e+01
  SP1q     D  1 4.300000e-01    5.204000e+00
  SP1q    SD  1 4.100000e-01    1.149400e+01
  SP1q    TD  1 3.650000e-01    1.586700e+01
  SN6q     D  1 4.300000e-01    5.183000e+00
  SN6q    SD  1 4.100000e-01    1.130000e+01
  SN6q    TD  1 3.650000e-01    1.554900e+01
  SN5q     D  1 4.300000e-01    4.930000e+00
  SN5q    SD  1 4.100000e-01    1.086900e+01
  SN5q    TD  1 3.650000e-01    1.493400e+01
  SN4q     D  1 4.300000e-01    4.904000e+00
  SN4q    SD  1 4.100000e-01    1.063300e+01
  SN4q    TD  1 3.650000e-01    1.454600e+01
  SN3q     D  1 4.300000e-01    4.675000e+00
  SN3q    SD  1 4.100000e-01    1.008700e+01
  SN3q    TD  1 3.650000e-01    1.382400e+01
  SN2q     D  1 4.300000e-01    4.438000e+00
  SN2q    SD  1 4.100000e-01    9.506000e+00
  SN2q    TD  1 3.650000e-01    1.299400e+01
  SN1q     D  1 4.300000e-01    3.388000e+00
  SN1q    SD  1 4.100000e-01    7.938000e+00
  SN1q    TD  1 3.650000e-01    1.116200e+01
  SC6q     D  1 4.300000e-01    2.474000e+00
  SC6q    SD  1 4.140000e-01    6.554000e+00
  SC6q    TD  1 4.040000e-01    8.603000e+00
  SC5q     D  1 4.430000e-01    1.953000e+00
  SC5q    SD  1 4.210000e-01    5.649000e+00
  SC5q    TD  1 4.230000e-01    7.374000e+00
  SC4q     D  1 4.730000e-01    1.648000e+00
  SC4q    SD  1 4.530000e-01    4.546000e+00
  SC4q    TD  1 4.840000e-01    5.532000e+00
  SC3q     D  1 5.140000e-01    1.336000e+00
  SC3q    SD  1 4.960000e-01    3.125000e+00
  SC3q    TD  1 5.370000e-01    3.607000e+00
  SC2q     D  1 5.520000e-01    1.139000e+00
  SC2q    SD  1 5.350000e-01    2.159000e+00
  SC2q    TD  1 5.880000e-01    2.321000e+00
  SC1q     D  1 5.520000e-01    1.016000e+00
  SC1q    SD  1 5.350000e-01    1.042000e+00
  SC1q    TD  1 5.880000e-01    8.370000e-01
  SX4q     D  1 4.300000e-01    2.746000e+00
  SX4q    SD  1 4.100000e-01    7.183000e+00
  SX4q    TD  1 3.940000e-01    9.546000e+00
  SX3q     D  1 4.300000e-01    2.474000e+00
  SX3q    SD  1 4.140000e-01    6.554000e+00
  SX3q    TD  1 4.040000e-01    8.603000e+00
  SX2q     D  1 4.300000e-01    2.180000e+00
  SX2q    SD  1 4.180000e-01    5.494000e+00
  SX2q    TD  1 4.090000e-01    7.191000e+00
  SX1q     D  1 4.430000e-01    1.743000e+00
  SX1q    SD  1 4.210000e-01    3.694000e+00
  SX1q    TD  1 4.230000e-01    4.534000e+00
 SP6dq     D  1 4.300000e-01    6.298000e+00
 SP6dq    SD  1 4.100000e-01    1.492900e+01
 SP6dq    TD  1 3.650000e-01    2.105900e+01
 SP5dq     D  1 4.300000e-01    5.908000e+00
 SP5dq    SD  1 4.100000e-01    1.371100e+01
 SP5dq    TD  1 3.650000e-01    1.924700e+01
 SP4dq     D  1 4.300000e-01    5.576000e+00
 SP4dq    SD  1 4.100000e-01    1.260600e+01
 SP4dq    TD  1 3.650000e-01    1.757100e+01
 SP3dq     D  1 4.300000e-01    5.531000e+00
 SP3dq    SD  1 4.100000e-01    1.218700e+01
 SP3dq    TD  1 3.650000e-01    1.688500e+01
 SP2dq     D  1 4.300000e-01    5.503000e+00
 SP2dq    SD  1 4.100000e-01    1.192700e+01
 SP2dq    TD  1 3.650000e-01    1.645700e+01
 SP1dq     D  1 4.300000e-01    5.204000e+00
 SP1dq    SD  1 4.100000e-01    1.149400e+01
 SP1dq    TD  1 3.650000e-01    1.586700e+01
 SN6dq     D  1 4.300000e-01    5.183000e+00
 SN6dq    SD  1 4.100000e-01    1.130000e+01
 SN6dq    TD  1 3.650000e-01    1.554900e+01
 SN5dq     D  1 4.300000e-01    4.930000e+00
 SN5dq    SD  1 4.100000e-01    1.086900e+01
 SN5dq    TD  1 3.650000e-01    1.493400e+01
 SN4dq     D  1 4.300000e-01    4.904000e+00
 SN4dq    SD  1 4.100000e-01    1.063300e+01
 SN4dq    TD  1 3.650000e-01    1.454600e+01
 SN3dq     D  1 4.300000e-01    4.675000e+00
 SN3dq    SD  1 4.100000e-01    1.008700e+01
 SN3dq    TD  1 3.650000e-01    1.382400e+01
 SN2dq     D  1 4.300000e-01    4.438000e+00
 SN2dq    SD  1 4.100000e-01    9.506000e+00
 SN2dq    TD  1 3.650000e-01    1.299400e+01
 SN1dq     D  1 4.300000e-01    3.388000e+00
 SN1dq    SD  1 4.100000e-01    7.938000e+00
 SN1dq    TD  1 3.650000e-01    1.116200e+01
 SP6aq     D  1 4.300000e-01    6.298000e+00
 SP6aq    SD  1 4.100000e-01    1.492900e+01
 SP6aq    TD  1 3.650000e-01    2.105900e+01
 SP5aq     D  1 4.300000e-01    5.908000e+00
 SP5aq    SD  1 4.100000e-01    1.371100e+01
 SP5aq    TD  1 3.650000e-01    1.924700e+01
 SP4aq     D  1 4.300000e-01    5.576000e+00
 SP4aq    SD  1 4.100000e-01    1.260600e+01
 SP4aq    TD  1 3.650000e-01    1.757100e+01
 SP3aq     D  1 4.300000e-01    5.531000e+00
 SP3aq    SD  1 4.100000e-01    1.218700e+01
 SP3aq    TD  1 3.650000e-01    1.688500e+01
 SP2aq     D  1 4.300000e-01    5.503000e+00
 SP2aq    SD  1 4.100000e-01    1.192700e+01
 SP2aq    TD  1 3.650000e-01    1.645700e+01
 SP1aq     D  1 4.300000e-01    5.204000e+00
 SP1aq    SD  1 4.100000e-01    1.149400e+01
 SP1aq    TD  1 3.650000e-01    1.586700e+01
 SN6aq     D  1 4.300000e-01    5.183000e+00
 SN6aq    SD  1 4.100000e-01    1.130000e+01
 SN6aq    TD  1 3.650000e-01    1.554900e+01
 SN5aq     D  1 4.300000e-01    4.930000e+00
 SN5aq    SD  1 4.100000e-01    1.086900e+01
 SN5aq    TD  1 3.650000e-01    1.493400e+01
 SN4aq     D  1 4.300000e-01    4.904000e+00
 SN4aq    SD  1 4.100000e-01    1.063300e+01
 SN4aq    TD  1 3.650000e-01    1.454600e+01
 SN3aq     D  1 4.300000e-01    4.675000e+00
 SN3aq    SD  1 4.100000e-01    1.008700e+01
 SN3aq    TD  1 3.650000e-01    1.382400e+01
 SN2aq     D  1 4.300000e-01    4.438000e+00
 SN2aq    SD  1 4.100000e-01    9.506000e+00
 SN2aq    TD  1 3.650000e-01    1.299400e+01
 SN1aq     D  1 4.300000e-01    3.388000e+00
 SN1aq    SD  1 4.100000e-01    7.938000e+00
 SN1aq    TD  1 3.650000e-01    1.116200e+01
 SC6vq     D  1 4.300000e-01    2.704000e+00
 SC6vq    SD  1 4.100000e-01    6.793000e+00
 SC6vq    TD  1 3.940000e-01    8.953000e+00
 SC5vq     D  1 4.300000e-01    2.217000e+00
 SC5vq    SD  1 4.180000e-01    5.830000e+00
 SC5vq    TD  1 4.090000e-01    7.692000e+00
 SC4vq     D  1 4.430000e-01    1.873000e+00
 SC4vq    SD  1 4.210000e-01    4.904000e+00
 SC4vq    TD  1 4.230000e-01    6.292000e+00
 SC3vq     D  1 4.730000e-01    1.526000e+00
 SC3vq    SD  1 4.530000e-01    3.422000e+00
 SC3vq    TD  1 4.840000e-01    3.995000e+00
 SC2vq     D  1 5.140000e-01    1.248000e+00
 SC2vq    SD  1 4.960000e-01    2.315000e+00
 SC2vq    TD  1 5.370000e-01    2.514000e+00
 SC1vq     D  1 5.140000e-01    1.117000e+00
 SC1vq    SD  1 4.960000e-01    1.110000e+00
 SC1vq    TD  1 5.370000e-01    8.890000e-01
 SX4vq     D  1 4.300000e-01    2.906000e+00
 SX4vq    SD  1 4.100000e-01    7.343000e+00
 SX4vq    TD  1 3.780000e-01    1.005500e+01
 SX3vq     D  1 4.300000e-01    2.704000e+00
 SX3vq    SD  1 4.100000e-01    6.793000e+00
 SX3vq    TD  1 3.940000e-01    8.953000e+00
 SX2vq     D  1 4.300000e-01    2.380000e+00
 SX2vq    SD  1 4.140000e-01    5.694000e+00
 SX2vq    TD  1 4.040000e-01    7.316000e+00
 SX1vq     D  1 4.300000e-01    2.001000e+00
 SX1vq    SD  1 4.180000e-01    3.862000e+00
 SX1vq    TD  1 4.090000e-01    4.754000e+00
 SC6eq     D  1 4.300000e-01    2.704000e+00
 SC6eq    SD  1 4.100000e-01    6.793000e+00
 SC6eq    TD  1 3.940000e-01    8.953000e+00
 SC5eq     D  1 4.300000e-01    2.217000e+00
 SC5eq    SD  1 4.180000e-01    5.830000e+00
 SC5eq    TD  1 4.090000e-01    7.692000e+00
 SC4eq     D  1 4.430000e-01    1.873000e+00
 SC4eq    SD  1 4.210000e-01    4.904000e+00
 SC4eq    TD  1 4.230000e-01    6.292000e+00
 SC3eq     D  1 4.730000e-01    1.526000e+00
 SC3eq    SD  1 4.530000e-01    3.422000e+00
 SC3eq    TD  1 4.840000e-01    3.995000e+00
 SC2eq     D  1 5.140000e-01    1.248000e+00
 SC2eq    SD  1 4.960000e-01    2.315000e+00
 SC2eq    TD  1 5.370000e-01    2.514000e+00
 SC1eq     D  1 5.140000e-01    1.117000e+00
 SC1eq    SD  1 4.960000e-01    1.110000e+00
 SC1eq    TD  1 5.370000e-01    8.890000e-01
 SX4eq     D  1 4.300000e-01    2.906000e+00
 SX4eq    SD  1 4.100000e-01    7.343000e+00
 SX4eq    TD  1 3.780000e-01    1.005500e+01
 SX3eq     D  1 4.300000e-01    2.704000e+00
 SX3eq    SD  1 4.100000e-01    6.793000e+00
 SX3eq    TD  1 3.940000e-01    8.953000e+00
 SX2eq     D  1 4.300000e-01    2.380000e+00
 SX2eq    SD  1 4.140000e-01    5.694000e+00
 SX2eq    TD  1 4.040000e-01    7.316000e+00
 SX1eq     D  1 4.300000e-01    2.001000e+00
 SX1eq    SD  1 4.180000e-01    3.862000e+00
 SX1eq    TD  1 4.090000e-01    4.754000e+00
  SP6h     D  1 4.300000e-01    6.298000e+00
  SP6h    SD  1 4.100000e-01    1.492900e+01
  SP6h    TD  1 3.650000e-01    2.105900e+01
  SP5h     D  1 4.300000e-01    5.908000e+00
  SP5h    SD  1 4.100000e-01    1.371100e+01
  SP5h    TD  1 3.650000e-01    1.924700e+01
  SP4h     D  1 4.300000e-01    5.576000e+00
  SP4h    SD  1 4.100000e-01    1.260600e+01
  SP4h    TD  1 3.650000e-01    1.757100e+01
  SP3h     D  1 4.300000e-01    5.531000e+00
  SP3h    SD  1 4.100000e-01    1.218700e+01
  SP3h    TD  1 3.650000e-01    1.688500e+01
  SP2h     D  1 4.300000e-01    5.503000e+00
  SP2h    SD  1 4.100000e-01    1.192700e+01
  SP2h    TD  1 3.650000e-01    1.645700e+01
  SP1h     D  1 4.300000e-01    5.204000e+00
  SP1h    SD  1 4.100000e-01    1.149400e+01
  SP1h    TD  1 3.650000e-01    1.586700e+01
  SN6h     D  1 4.300000e-01    5.183000e+00
  SN6h    SD  1 4.100000e-01    1.130000e+01
  SN6h    TD  1 3.650000e-01    1.554900e+01
  SN5h     D  1 4.300000e-01    4.930000e+00
  SN5h    SD  1 4.100000e-01    1.086900e+01
  SN5h    TD  1 3.650000e-01    1.493400e+01
  SN4h     D  1 4.300000e-01    4.904000e+00
  SN4h    SD  1 4.100000e-01    1.063300e+01
  SN4h    TD  1 3.650000e-01    1.454600e+01
  SN3h     D  1 4.300000e-01    4.675000e+00
  SN3h    SD  1 4.100000e-01    1.008700e+01
  SN3h    TD  1 3.650000e-01    1.382400e+01
  SN2h     D  1 4.300000e-01    4.438000e+00
  SN2h    SD  1 4.100000e-01    9.506000e+00
  SN2h    TD  1 3.650000e-01    1.299400e+01
  SN1h     D  1 4.300000e-01    3.388000e+00
  SN1h    SD  1 4.100000e-01    7.938000e+00
  SN1h    TD  1 3.650000e-01    1.116200e+01
  SC6h     D  1 4.300000e-01    2.474000e+00
  SC6h    SD  1 4.140000e-01    6.554000e+00
  SC6h    TD  1 4.040000e-01    8.603000e+00
  SC5h     D  1 4.430000e-01    1.953000e+00
  SC5h    SD  1 4.210000e-01    5.649000e+00
  SC5h    TD  1 4.230000e-01    7.374000e+00
  SC4h     D  1 4.730000e-01    1.648000e+00
  SC4h    SD  1 4.530000e-01    4.546000e+00
  SC4h    TD  1 4.840000e-01    5.532000e+00
  SC3h     D  1 5.140000e-01    1.336000e+00
  SC3h    SD  1 4.960000e-01    3.125000e+00
  SC3h    TD  1 5.370000e-01    3.607000e+00
  SC2h     D  1 5.520000e-01    1.139000e+00
  SC2h    SD  1 5.350000e-01    2.159000e+00
  SC2h    TD  1 5.880000e-01    2.321000e+00
  SC1h     D  1 5.520000e-01    1.016000e+00
  SC1h    SD  1 5.350000e-01    1.042000e+00
  SC1h    TD  1 5.880000e-01    8.370000e-01
  SX4h     D  1 4.300000e-01    2.746000e+00
  SX4h    SD  1 4.100000e-01    7.183000e+00
  SX4h    TD  1 3.940000e-01    9.546000e+00
  SX3h     D  1 4.300000e-01    2.474000e+00
  SX3h    SD  1 4.140000e-01    6.554000e+00
  SX3h    TD  1 4.040000e-01    8.603000e+00
  SX2h     D  1 4.300000e-01    2.180000e+00
  SX2h    SD  1 4.180000e-01    5.494000e+00
  SX2h    TD  1 4.090000e-01    7.191000e+00
  SX1h     D  1 4.430000e-01    1.743000e+00
  SX1h    SD  1 4.210000e-01    3.694000e+00
  SX1h    TD  1 4.230000e-01    4.534000e+00
 SP6dh     D  1 4.300000e-01    6.298000e+00
 SP6dh    SD  1 4.100000e-01    1.492900e+01
 SP6dh    TD  1 3.650000e-01    2.105900e+01
 SP5dh     D  1 4.300000e-01    5.908000e+00
 SP5dh    SD  1 4.100000e-01    1.371100e+01
 SP5dh    TD  1 3.650000e-01    1.924700e+01
 SP4dh     D  1 4.300000e-01    5.576000e+00
 SP4dh    SD  1 4.100000e-01    1.260600e+01
 SP4dh    TD  1 3.650000e-01    1.757100e+01
 SP3dh     D  1 4.300000e-01    5.531000e+00
 SP3dh    SD  1 4.100000e-01    1.218700e+01
 SP3dh    TD  1 3.650000e-01    1.688500e+01
 SP2dh     D  1 4.300000e-01    5.503000e+00
 SP2dh    SD  1 4.100000e-01    1.192700e+01
 SP2dh    TD  1 3.650000e-01    1.645700e+01
 SP1dh     D  1 4.300000e-01    5.204000e+00
 SP1dh    SD  1 4.100000e-01    1.149400e+01
 SP1dh    TD  1 3.650000e-01    1.586700e+01
 SN6dh     D  1 4.300000e-01    5.183000e+00
 SN6dh    SD  1 4.100000e-01    1.130000e+01
 SN6dh    TD  1 3.650000e-01    1.554900e+01
 SN5dh     D  1 4.300000e-01    4.930000e+00
 SN5dh    SD  1 4.100000e-01    1.086900e+01
 SN5dh    TD  1 3.650000e-01    1.493400e+01
 SN4dh     D  1 4.300000e-01    4.904000e+00
 SN4dh    SD  1 4.100000e-01    1.063300e+01
 SN4dh    TD  1 3.650000e-01    1.454600e+01
 SN3dh     D  1 4.300000e-01    4.675000e+00
 SN3dh    SD  1 4.100000e-01    1.008700e+01
 SN3dh    TD  1 3.650000e-01    1.382400e+01
 SN2dh     D  1 4.300000e-01    4.438000e+00
 SN2dh    SD  1 4.100000e-01    9.506000e+00
 SN2dh    TD  1 3.650000e-01    1.299400e+01
 SN1dh     D  1 4.300000e-01    3.388000e+00
 SN1dh    SD  1 4.100000e-01    7.938000e+00
 SN1dh    TD  1 3.650000e-01    1.116200e+01
 SP6ah     D  1 4.300000e-01    6.298000e+00
 SP6ah    SD  1 4.100000e-01    1.492900e+01
 SP6ah    TD  1 3.650000e-01    2.105900e+01
 SP5ah     D  1 4.300000e-01    5.908000e+00
 SP5ah    SD  1 4.100000e-01    1.371100e+01
 SP5ah    TD  1 3.650000e-01    1.924700e+01
 SP4ah     D  1 4.300000e-01    5.576000e+00
 SP4ah    SD  1 4.100000e-01    1.260600e+01
 SP4ah    TD  1 3.650000e-01    1.757100e+01
 SP3ah     D  1 4.300000e-01    5.531000e+00
 SP3ah    SD  1 4.100000e-01    1.218700e+01
 SP3ah    TD  1 3.650000e-01    1.688500e+01
 SP2ah     D  1 4.300000e-01    5.503000e+00
 SP2ah    SD  1 4.100000e-01    1.192700e+01
 SP2ah    TD  1 3.650000e-01    1.645700e+01
 SP1ah     D  1 4.300000e-01    5.204000e+00
 SP1ah    SD  1 4.100000e-01    1.149400e+01
 SP1ah    TD  1 3.650000e-01    1.586700e+01
 SN6ah     D  1 4.300000e-01    5.183000e+00
 SN6ah    SD  1 4.100000e-01    1.130000e+01
 SN6ah    TD  1 3.650000e-01    1.554900e+01
 SN5ah     D  1 4.300000e-01    4.930000e+00
 SN5ah    SD  1 4.100000e-01    1.086900e+01
 SN5ah    TD  1 3.650000e-01    1.493400e+01
 SN4ah     D  1 4.300000e-01    4.904000e+00
 SN4ah    SD  1 4.100000e-01    1.063300e+01
 SN4ah    TD  1 3.650000e-01    1.454600e+01
 SN3ah     D  1 4.300000e-01    4.675000e+00
 SN3ah    SD  1 4.100000e-01    1.008700e+01
 SN3ah    TD  1 3.650000e-01    1.382400e+01
 SN2ah     D  1 4.300000e-01    4.438000e+00
 SN2ah    SD  1 4.100000e-01    9.506000e+00
 SN2ah    TD  1 3.650000e-01    1.299400e+01
 SN1ah     D  1 4.300000e-01    3.388000e+00
 SN1ah    SD  1 4.100000e-01    7.938000e+00
 SN1ah    TD  1 3.650000e-01    1.116200e+01
 SC6vh     D  1 4.300000e-01    2.704000e+00
 SC6vh    SD  1 4.100000e-01    6.793000e+00
 SC6vh    TD  1 3.940000e-01    8.953000e+00
 SC5vh     D  1 4.300000e-01    2.217000e+00
 SC5vh    SD  1 4.180000e-01    5.830000e+00
 SC5vh    TD  1 4.090000e-01    7.692000e+00
 SC4vh     D  1 4.430000e-01    1.873000e+00
 SC4vh    SD  1 4.210000e-01    4.904000e+00
 SC4vh    TD  1 4.230000e-01    6.292000e+00
 SC3vh     D  1 4.730000e-01    1.526000e+00
 SC3vh    SD  1 4.530000e-01    3.422000e+00
 SC3vh    TD  1 4.840000e-01    3.995000e+00
 SC2vh     D  1 5.140000e-01    1.248000e+00
 SC2vh    SD  1 4.960000e-01    2.315000e+00
 SC2vh    TD  1 5.370000e-01    2.514000e+00
 SC1vh     D  1 5.140000e-01    1.117000e+00
 SC1vh    SD  1 4.960000e-01    1.110000e+00
 SC1vh    TD  1 5.370000e-01    8.890000e-01
 SX4vh     D  1 4.300000e-01    2.906000e+00
 SX4vh    SD  1 4.100000e-01    7.343000e+00
 SX4vh    TD  1 3.780000e-01    1.005500e+01
 SX3vh     D  1 4.300000e-01    2.704000e+00
 SX3vh    SD  1 4.100000e-01    6.793000e+00
 SX3vh    TD  1 3.940000e-01    8.953000e+00
 SX2vh     D  1 4.300000e-01    2.380000e+00
 SX2vh    SD  1 4.140000e-01    5.694000e+00
 SX2vh    TD  1 4.040000e-01    7.316000e+00
 SX1vh     D  1 4.300000e-01    2.001000e+00
 SX1vh    SD  1 4.180000e-01    3.862000e+00
 SX1vh    TD  1 4.090000e-01    4.754000e+00
 SC6eh     D  1 4.300000e-01    2.704000e+00
 SC6eh    SD  1 4.100000e-01    6.793000e+00
 SC6eh    TD  1 3.940000e-01    8.953000e+00
 SC5eh     D  1 4.300000e-01    2.217000e+00
 SC5eh    SD  1 4.180000e-01    5.830000e+00
 SC5eh    TD  1 4.090000e-01    7.692000e+00
 SC4eh     D  1 4.430000e-01    1.873000e+00
 SC4eh    SD  1 4.210000e-01    4.904000e+00
 SC4eh    TD  1 4.230000e-01    6.292000e+00
 SC3eh     D  1 4.730000e-01    1.526000e+00
 SC3eh    SD  1 4.530000e-01    3.422000e+00
 SC3eh    TD  1 4.840000e-01    3.995000e+00
 SC2eh     D  1 5.140000e-01    1.248000e+00
 SC2eh    SD  1 4.960000e-01    2.315000e+00
 SC2eh    TD  1 5.370000e-01    2.514000e+00
 SC1eh     D  1 5.140000e-01    1.117000e+00
 SC1eh    SD  1 4.960000e-01    1.110000e+00
 SC1eh    TD  1 5.370000e-01    8.890000e-01
 SX4eh     D  1 4.300000e-01    2.906000e+00
 SX4eh    SD  1 4.100000e-01    7.343000e+00
 SX4eh    TD  1 3.780000e-01    1.005500e+01
 SX3eh     D  1 4.300000e-01    2.704000e+00
 SX3eh    SD  1 4.100000e-01    6.793000e+00
 SX3eh    TD  1 3.940000e-01    8.953000e+00
 SX2eh     D  1 4.300000e-01    2.380000e+00
 SX2eh    SD  1 4.140000e-01    5.694000e+00
 SX2eh    TD  1 4.040000e-01    7.316000e+00
 SX1eh     D  1 4.300000e-01    2.001000e+00
 SX1eh    SD  1 4.180000e-01    3.862000e+00
 SX1eh    TD  1 4.090000e-01    4.754000e+00
  SP6r     D  1 4.300000e-01    6.298000e+00
  SP6r    SD  1 4.100000e-01    1.492900e+01
  SP6r    TD  1 3.650000e-01    2.105900e+01
  SP5r     D  1 4.300000e-01    5.908000e+00
  SP5r    SD  1 4.100000e-01    1.371100e+01
  SP5r    TD  1 3.650000e-01    1.924700e+01
  SP4r     D  1 4.300000e-01    5.576000e+00
  SP4r    SD  1 4.100000e-01    1.260600e+01
  SP4r    TD  1 3.650000e-01    1.757100e+01
  SP3r     D  1 4.300000e-01    5.531000e+00
  SP3r    SD  1 4.100000e-01    1.218700e+01
  SP3r    TD  1 3.650000e-01    1.688500e+01
  SP2r     D  1 4.300000e-01    5.503000e+00
  SP2r    SD  1 4.100000e-01    1.192700e+01
  SP2r    TD  1 3.650000e-01    1.645700e+01
  SP1r     D  1 4.300000e-01    5.204000e+00
  SP1r    SD  1 4.100000e-01    1.149400e+01
  SP1r    TD  1 3.650000e-01    1.586700e+01
  SN6r     D  1 4.300000e-01    5.183000e+00
  SN6r    SD  1 4.100000e-01    1.130000e+01
  SN6r    TD  1 3.650000e-01    1.554900e+01
  SN5r     D  1 4.300000e-01    4.930000e+00
  SN5r    SD  1 4.100000e-01    1.086900e+01
  SN5r    TD  1 3.650000e-01    1.493400e+01
  SN4r     D  1 4.300000e-01    4.904000e+00
  SN4r    SD  1 4.100000e-01    1.063300e+01
  SN4r    TD  1 3.650000e-01    1.454600e+01
  SN3r     D  1 4.300000e-01    4.675000e+00
  SN3r    SD  1 4.100000e-01    1.008700e+01
  SN3r    TD  1 3.650000e-01    1.382400e+01
  SN2r     D  1 4.300000e-01    4.438000e+00
  SN2r    SD  1 4.100000e-01    9.506000e+00
  SN2r    TD  1 3.650000e-01    1.299400e+01
  SN1r     D  1 4.300000e-01    3.388000e+00
  SN1r    SD  1 4.100000e-01    7.938000e+00
  SN1r    TD  1 3.650000e-01    1.116200e+01
  SC6r     D  1 4.300000e-01    2.474000e+00
  SC6r    SD  1 4.140000e-01    6.554000e+00
  SC6r    TD  1 4.040000e-01    8.603000e+00
  SC5r     D  1 4.430000e-01    1.953000e+00
  SC5r    SD  1 4.210000e-01    5.649000e+00
  SC5r    TD  1 4.230000e-01    7.374000e+00
  SC4r     D  1 4.730000e-01    1.648000e+00
  SC4r    SD  1 4.530000e-01    4.546000e+00
  SC4r    TD  1 4.840000e-01    5.532000e+00
  SC3r     D  1 5.140000e-01    1.336000e+00
  SC3r    SD  1 4.960000e-01    3.125000e+00
  SC3r    TD  1 5.370000e-01    3.607000e+00
  SC2r     D  1 5.520000e-01    1.139000e+00
  SC2r    SD  1 5.350000e-01    2.159000e+00
  SC2r    TD  1 5.880000e-01    2.321000e+00
  SC1r     D  1 5.520000e-01    1.016000e+00
  SC1r    SD  1 5.350000e-01    1.042000e+00
  SC1r    TD  1 5.880000e-01    8.370000e-01
  SX4r     D  1 4.300000e-01    2.746000e+00
  SX4r    SD  1 4.100000e-01    7.183000e+00
  SX4r    TD  1 3.940000e-01    9.546000e+00
  SX3r     D  1 4.300000e-01    2.474000e+00
  SX3r    SD  1 4.140000e-01    6.554000e+00
  SX3r    TD  1 4.040000e-01    8.603000e+00
  SX2r     D  1 4.300000e-01    2.180000e+00
  SX2r    SD  1 4.180000e-01    5.494000e+00
  SX2r    TD  1 4.090000e-01    7.191000e+00
  SX1r     D  1 4.430000e-01    1.743000e+00
  SX1r    SD  1 4.210000e-01    3.694000e+00
  SX1r    TD  1 4.230000e-01    4.534000e+00
 SP6dr     D  1 4.300000e-01    6.298000e+00
 SP6dr    SD  1 4.100000e-01    1.492900e+01
 SP6dr    TD  1 3.650000e-01    2.105900e+01
 SP5dr     D  1 4.300000e-01    5.908000e+00
 SP5dr    SD  1 4.100000e-01    1.371100e+01
 SP5dr    TD  1 3.650000e-01    1.924700e+01
 SP4dr     D  1 4.300000e-01    5.576000e+00
 SP4dr    SD  1 4.100000e-01    1.260600e+01
 SP4dr    TD  1 3.650000e-01    1.757100e+01
 SP3dr     D  1 4.300000e-01    5.531000e+00
 SP3dr    SD  1 4.100000e-01    1.218700e+01
 SP3dr    TD  1 3.650000e-01    1.688500e+01
 SP2dr     D  1 4.300000e-01    5.503000e+00
 SP2dr    SD  1 4.100000e-01    1.192700e+01
 SP2dr    TD  1 3.650000e-01    1.645700e+01
 SP1dr     D  1 4.300000e-01    5.204000e+00
 SP1dr    SD  1 4.100000e-01    1.149400e+01
 SP1dr    TD  1 3.650000e-01    1.586700e+01
 SN6dr     D  1 4.300000e-01    5.183000e+00
 SN6dr    SD  1 4.100000e-01    1.130000e+01
 SN6dr    TD  1 3.650000e-01    1.554900e+01
 SN5dr     D  1 4.300000e-01    4.930000e+00
 SN5dr    SD  1 4.100000e-01    1.086900e+01
 SN5dr    TD  1 3.650000e-01    1.493400e+01
 SN4dr     D  1 4.300000e-01    4.904000e+00
 SN4dr    SD  1 4.100000e-01    1.063300e+01
 SN4dr    TD  1 3.650000e-01    1.454600e+01
 SN3dr     D  1 4.300000e-01    4.675000e+00
 SN3dr    SD  1 4.100000e-01    1.008700e+01
 SN3dr    TD  1 3.650000e-01    1.382400e+01
 SN2dr     D  1 4.300000e-01    4.438000e+00
 SN2dr    SD  1 4.100000e-01    9.506000e+00
 SN2dr    TD  1 3.650000e-01    1.299400e+01
 SN1dr     D  1 4.300000e-01    3.388000e+00
 SN1dr    SD  1 4.100000e-01    7.938000e+00
 SN1dr    TD  1 3.650000e-01    1.116200e+01
 SP6ar     D  1 4.300000e-01    6.298000e+00
 SP6ar    SD  1 4.100000e-01    1.492900e+01
 SP6ar    TD  1 3.650000e-01    2.105900e+01
 SP5ar     D  1 4.300000e-01    5.908000e+00
 SP5ar    SD  1 4.100000e-01    1.371100e+01
 SP5ar    TD  1 3.650000e-01    1.924700e+01
 SP4ar     D  1 4.300000e-01    5.576000e+00
 SP4ar    SD  1 4.100000e-01    1.260600e+01
 SP4ar    TD  1 3.650000e-01    1.757100e+01
 SP3ar     D  1 4.300000e-01    5.531000e+00
 SP3ar    SD  1 4.100000e-01    1.218700e+01
 SP3ar    TD  1 3.650000e-01    1.688500e+01
 SP2ar     D  1 4.300000e-01    5.503000e+00
 SP2ar    SD  1 4.100000e-01    1.192700e+01
 SP2ar    TD  1 3.650000e-01    1.645700e+01
 SP1ar     D  1 4.300000e-01    5.204000e+00
 SP1ar    SD  1 4.100000e-01    1.149400e+01
 SP1ar    TD  1 3.650000e-01    1.586700e+01
 SN6ar     D  1 4.300000e-01    5.183000e+00
 SN6ar    SD  1 4.100000e-01    1.130000e+01
 SN6ar    TD  1 3.650000e-01    1.554900e+01
 SN5ar     D  1 4.300000e-01    4.930000e+00
 SN5ar    SD  1 4.100000e-01    1.086900e+01
 SN5ar    TD  1 3.650000e-01    1.493400e+01
 SN4ar     D  1 4.300000e-01    4.904000e+00
 SN4ar    SD  1 4.100000e-01    1.063300e+01
 SN4ar    TD  1 3.650000e-01    1.454600e+01
 SN3ar     D  1 4.300000e-01    4.675000e+00
 SN3ar    SD  1 4.100000e-01    1.008700e+01
 SN3ar    TD  1 3.650000e-01    1.382400e+01
 SN2ar     D  1 4.300000e-01    4.438000e+00
 SN2ar    SD  1 4.100000e-01    9.506000e+00
 SN2ar    TD  1 3.650000e-01    1.299400e+01
 SN1ar     D  1 4.300000e-01    3.388000e+00
 SN1ar    SD  1 4.100000e-01    7.938000e+00
 SN1ar    TD  1 3.650000e-01    1.116200e+01
 SC6vr     D  1 4.300000e-01    2.704000e+00
 SC6vr    SD  1 4.100000e-01    6.793000e+00
 SC6vr    TD  1 3.940000e-01    8.953000e+00
 SC5vr     D  1 4.300000e-01    2.217000e+00
 SC5vr    SD  1 4.180000e-01    5.830000e+00
 SC5vr    TD  1 4.090000e-01    7.692000e+00
 SC4vr     D  1 4.430000e-01    1.873000e+00
 SC4vr    SD  1 4.210000e-01    4.904000e+00
 SC4vr    TD  1 4.230000e-01    6.292000e+00
 SC3vr     D  1 4.730000e-01    1.526000e+00
 SC3vr    SD  1 4.530000e-01    3.422000e+00
 SC3vr    TD  1 4.840000e-01    3.995000e+00
 SC2vr     D  1 5.140000e-01    1.248000e+00
 SC2vr    SD  1 4.960000e-01    2.315000e+00
 SC2vr    TD  1 5.370000e-01    2.514000e+00
 SC1vr     D  1 5.140000e-01    1.117000e+00
 SC1vr    SD  1 4.960000e-01    1.110000e+00
 SC1vr    TD  1 5.370000e-01    8.890000e-01
 SX4vr     D  1 4.300000e-01    2.906000e+00
 SX4vr    SD  1 4.100000e-01    7.343000e+00
 SX4vr    TD  1 3.780000e-01    1.005500e+01
 SX3vr     D  1 4.300000e-01    2.704000e+00
 SX3vr    SD  1 4.100000e-01    6.793000e+00
 SX3vr    TD  1 3.940000e-01    8.953000e+00
 SX2vr     D  1 4.300000e-01    2.380000e+00
 SX2vr    SD  1 4.140000e-01    5.694000e+00
 SX2vr    TD  1 4.040000e-01    7.316000e+00
 SX1vr     D  1 4.300000e-01    2.001000e+00
 SX1vr    SD  1 4.180000e-01    3.862000e+00
 SX1vr    TD  1 4.090000e-01    4.754000e+00
 SC6er     D  1 4.300000e-01    2.704000e+00
 SC6er    SD  1 4.100000e-01    6.793000e+00
 SC6er    TD  1 3.940000e-01    8.953000e+00
 SC5er     D  1 4.300000e-01    2.217000e+00
 SC5er    SD  1 4.180000e-01    5.830000e+00
 SC5er    TD  1 4.090000e-01    7.692000e+00
 SC4er     D  1 4.430000e-01    1.873000e+00
 SC4er    SD  1 4.210000e-01    4.904000e+00
 SC4er    TD  1 4.230000e-01    6.292000e+00
 SC3er     D  1 4.730000e-01    1.526000e+00
 SC3er    SD  1 4.530000e-01    3.422000e+00
 SC3er    TD  1 4.840000e-01    3.995000e+00
 SC2er     D  1 5.140000e-01    1.248000e+00
 SC2er    SD  1 4.960000e-01    2.315000e+00
 SC2er    TD  1 5.370000e-01    2.514000e+00
 SC1er     D  1 5.140000e-01    1.117000e+00
 SC1er    SD  1 4.960000e-01    1.110000e+00
 SC1er    TD  1 5.370000e-01    8.890000e-01
 SX4er     D  1 4.300000e-01    2.906000e+00
 SX4er    SD  1 4.100000e-01    7.343000e+00
 SX4er    TD  1 3.780000e-01    1.005500e+01
 SX3er     D  1 4.300000e-01    2.704000e+00
 SX3er    SD  1 4.100000e-01    6.793000e+00
 SX3er    TD  1 3.940000e-01    8.953000e+00
 SX2er     D  1 4.300000e-01    2.380000e+00
 SX2er    SD  1 4.140000e-01    5.694000e+00
 SX2er    TD  1 4.040000e-01    7.316000e+00
 SX1er     D  1 4.300000e-01    2.001000e+00
 SX1er    SD  1 4.180000e-01    3.862000e+00
 SX1er    TD  1 4.090000e-01    4.754000e+00
   TP6     D  1 3.950000e-01    5.695000e+00
   TP6    SD  1 3.650000e-01    1.376800e+01
   TP6    TD  1 3.400000e-01    1.639500e+01
   TP5     D  1 3.950000e-01    5.287000e+00
   TP5    SD  1 3.650000e-01    1.260700e+01
   TP5    TD  1 3.400000e-01    1.496100e+01
   TP4     D  1 3.950000e-01    4.907000e+00
   TP4    SD  1 3.650000e-01    1.153100e+01
   TP4    TD  1 3.400000e-01    1.363000e+01
   TP3     D  1 3.950000e-01    4.873000e+00
   TP3    SD  1 3.650000e-01    1.114500e+01
   TP3    TD  1 3.400000e-01    1.311400e+01
   TP2     D  1 3.950000e-01    4.852000e+00
   TP2    SD  1 3.650000e-01    1.090600e+01
   TP2    TD  1 3.400000e-01    1.279400e+01
   TP1     D  1 3.950000e-01    4.517000e+00
   TP1    SD  1 3.650000e-01    1.044900e+01
   TP1    TD  1 3.400000e-01    1.232200e+01
   TN6     D  1 3.950000e-01    4.501000e+00
   TN6    SD  1 3.650000e-01    1.027300e+01
   TN6    TD  1 3.400000e-01    1.208600e+01
   TN5     D  1 3.950000e-01    4.244000e+00
   TN5    SD  1 3.650000e-01    9.813000e+00
   TN5    TD  1 3.400000e-01    1.160200e+01
   TN4     D  1 3.950000e-01    4.225000e+00
   TN4    SD  1 3.650000e-01    9.600000e+00
   TN4    TD  1 3.400000e-01    1.131800e+01
   TN3     D  1 3.950000e-01    3.963000e+00
   TN3    SD  1 3.650000e-01    9.083000e+00
   TN3    TD  1 3.400000e-01    1.073700e+01
   TN2     D  1 3.950000e-01    3.696000e+00
   TN2    SD  1 3.650000e-01    8.509000e+00
   TN2    TD  1 3.400000e-01    1.009100e+01
   TN1     D  1 3.950000e-01    2.580000e+00
   TN1    SD  1 3.650000e-01    7.023000e+00
   TN1    TD  1 3.400000e-01    8.279000e+00
   TC6     D  1 3.990000e-01    1.591000e+00
   TC6    SD  1 4.040000e-01    5.341000e+00
   TC6    TD  1 4.110000e-01    5.955000e+00
   TC5     D  1 4.040000e-01    1.196000e+00
   TC5    SD  1 4.230000e-01    4.605000e+00
   TC5    TD  1 4.380000e-01    5.088000e+00
   TC4     D  1 4.650000e-01    9.700000e-01
   TC4    SD  1 4.840000e-01    3.552000e+00
   TC4    TD  1 5.050000e-01    3.856000e+00
   TC3     D  1 5.110000e-01    8.270000e-01
   TC3    SD  1 5.370000e-01    2.468000e+00
   TC3    TD  1 5.610000e-01    2.609000e+00
   TC2     D  1 5.240000e-01    7.360000e-01
   TC2    SD  1 5.880000e-01    1.748000e+00
   TC2    TD  1 5.990000e-01    1.823000e+00
   TC1     D  1 5.240000e-01    6.500000e-01
   TC1    SD  1 5.880000e-01    9.570000e-01
   TC1    TD  1 5.990000e-01    8.570000e-01
   TX4     D  1 3.980000e-01    1.893000e+00
   TX4    SD  1 3.940000e-01    5.926000e+00
   TX4    TD  1 3.850000e-01    6.762000e+00
   TX3     D  1 3.990000e-01    1.591000e+00
   TX3    SD  1 4.040000e-01    5.341000e+00
   TX3    TD  1 4.110000e-01    5.955000e+00
   TX2     D  1 4.010000e-01    1.325000e+00
   TX2    SD  1 4.090000e-01    4.560000e+00
   TX2    TD  1 4.240000e-01    4.955000e+00
   TX1     D  1 4.040000e-01    1.043000e+00
   TX1    SD  1 4.230000e-01    3.089000e+00
   TX1    TD  1 4.380000e-01    3.265000e+00
  TP6d     D  1 3.950000e-01    5.695000e+00
  TP6d    SD  1 3.650000e-01    1.376800e+01
  TP6d    TD  1 3.400000e-01    1.639500e+01
  TP5d     D  1 3.950000e-01    5.287000e+00
  TP5d    SD  1 3.650000e-01    1.260700e+01
  TP5d    TD  1 3.400000e-01    1.496100e+01
  TP4d     D  1 3.950000e-01    4.907000e+00
  TP4d    SD  1 3.650000e-01    1.153100e+01
  TP4d    TD  1 3.400000e-01    1.363000e+01
  TP3d     D  1 3.950000e-01    4.873000e+00
  TP3d    SD  1 3.650000e-01    1.114500e+01
  TP3d    TD  1 3.400000e-01    1.311400e+01
  TP2d     D  1 3.950000e-01    4.852000e+00
  TP2d    SD  1 3.650000e-01    1.090600e+01
  TP2d    TD  1 3.400000e-01    1.279400e+01
  TP1d     D  1 3.950000e-01    4.517000e+00
  TP1d    SD  1 3.650000e-01    1.044900e+01
  TP1d    TD  1 3.400000e-01    1.232200e+01
  TN6d     D  1 3.950000e-01    4.501000e+00
  TN6d    SD  1 3.650000e-01    1.027300e+01
  TN6d    TD  1 3.400000e-01    1.208600e+01
  TN5d     D  1 3.950000e-01    4.244000e+00
  TN5d    SD  1 3.650000e-01    9.813000e+00
  TN5d    TD  1 3.400000e-01    1.160200e+01
  TN4d     D  1 3.950000e-01    4.225000e+00
  TN4d    SD  1 3.650000e-01    9.600000e+00
  TN4d    TD  1 3.400000e-01    1.131800e+01
  TN3d     D  1 3.950000e-01    3.963000e+00
  TN3d    SD  1 3.650000e-01    9.083000e+00
  TN3d    TD  1 3.400000e-01    1.073700e+01
  TN2d     D  1 3.950000e-01    3.696000e+00
  TN2d    SD  1 3.650000e-01    8.509000e+00
  TN2d    TD  1 3.400000e-01    1.009100e+01
  TN1d     D  1 3.950000e-01    2.580000e+00
  TN1d    SD  1 3.650000e-01    7.023000e+00
  TN1d    TD  1 3.400000e-01    8.279000e+00
  TP6a     D  1 3.950000e-01    5.695000e+00
  TP6a    SD  1 3.650000e-01    1.376800e+01
  TP6a    TD  1 3.400000e-01    1.639500e+01
  TP5a     D  1 3.950000e-01    5.287000e+00
  TP5a    SD  1 3.650000e-01    1.260700e+01
  TP5a    TD  1 3.400000e-01    1.496100e+01
  TP4a     D  1 3.950000e-01    4.907000e+00
  TP4a    SD  1 3.650000e-01    1.153100e+01
  TP4a    TD  1 3.400000e-01    1.363000e+01
  TP3a     D  1 3.950000e-01    4.873000e+00
  TP3a    SD  1 3.650000e-01    1.114500e+01
  TP3a    TD  1 3.400000e-01    1.311400e+01
  TP2a     D  1 3.950000e-01    4.852000e+00
  TP2a    SD  1 3.650000e-01    1.090600e+01
  TP2a    TD  1 3.400000e-01    1.279400e+01
  TP1a     D  1 3.950000e-01    4.517000e+00
  TP1a    SD  1 3.650000e-01    1.044900e+01
  TP1a    TD  1 3.400000e-01    1.232200e+01
  TN6a     D  1 3.950000e-01    4.501000e+00
  TN6a    SD  1 3.650000e-01    1.027300e+01
  TN6a    TD  1 3.400000e-01    1.208600e+01
  TN5a     D  1 3.950000e-01    4.244000e+00
  TN5a    SD  1 3.650000e-01    9.813000e+00
  TN5a    TD  1 3.400000e-01    1.160200e+01
  TN4a     D  1 3.950000e-01    4.225000e+00
  TN4a    SD  1 3.650000e-01    9.600000e+00
  TN4a    TD  1 3.400000e-01    1.131800e+01
  TN3a     D  1 3.950000e-01    3.963000e+00
  TN3a    SD  1 3.650000e-01    9.083000e+00
  TN3a    TD  1 3.400000e-01    1.073700e+01
  TN2a     D  1 3.950000e-01    3.696000e+00
  TN2a    SD  1 3.650000e-01    8.509000e+00
  TN2a    TD  1 3.400000e-01    1.009100e+01
  TN1a     D  1 3.950000e-01    2.580000e+00
  TN1a    SD  1 3.650000e-01    7.023000e+00
  TN1a    TD  1 3.400000e-01    8.279000e+00
  TC6v     D  1 3.980000e-01    1.862000e+00
  TC6v    SD  1 3.940000e-01    5.608000e+00
  TC6v    TD  1 3.850000e-01    6.357000e+00
  TC5v     D  1 4.010000e-01    1.352000e+00
  TC5v    SD  1 4.090000e-01    4.828000e+00
  TC5v    TD  1 4.240000e-01    5.277000e+00
  TC4v     D  1 4.040000e-01    1.138000e+00
  TC4v    SD  1 4.230000e-01    4.027000e+00
  TC4v    TD  1 4.380000e-01    4.393000e+00
  TC3v     D  1 4.650000e-01    8.880000e-01
  TC3v    SD  1 4.840000e-01    2.732000e+00
  TC3v    TD  1 5.050000e-01    2.878000e+00
  TC2v     D  1 5.110000e-01    7.680000e-01
  TC2v    SD  1 5.370000e-01    1.886000e+00
  TC2v    TD  1 5.610000e-01    1.915000e+00
  TC1v     D  1 5.110000e-01    6.810000e-01
  TC1v    SD  1 5.370000e-01    1.020000e+00
  TC1v    TD  1 5.610000e-01    8.830000e-01
  TX4v     D  1 3.950000e-01    2.116000e+00
  TX4v    SD  1 3.780000e-01    6.282000e+00
  TX4v    TD  1 3.660000e-01    7.149000e+00
  TX3v     D  1 3.980000e-01    1.862000e+00
  TX3v    SD  1 3.940000e-01    5.608000e+00
  TX3v    TD  1 3.850000e-01    6.357000e+00
  TX2v     D  1 3.990000e-01    1.524000e+00
  TX2v    SD  1 4.040000e-01    4.653000e+00
  TX2v    TD  1 4.110000e-01    5.113000e+00
  TX1v     D  1 4.010000e-01    1.197000e+00
  TX1v    SD  1 4.090000e-01    3.260000e+00
  TX1v    TD  1 4.240000e-01    3.394000e+00
  TC6e     D  1 3.980000e-01    1.862000e+00
  TC6e    SD  1 3.940000e-01    5.608000e+00
  TC6e    TD  1 3.850000e-01    6.357000e+00
  TC5e     D  1 4.010000e-01    1.352000e+00
  TC5e    SD  1 4.090000e-01    4.828000e+00
  TC5e    TD  1 4.240000e-01    5.277000e+00
  TC4e     D  1 4.040000e-01    1.138000e+00
  TC4e    SD  1 4.230000e-01    4.027000e+00
  TC4e    TD  1 4.380000e-01    4.393000e+00
  TC3e     D  1 4.650000e-01    8.880000e-01
  TC3e    SD  1 4.840000e-01    2.732000e+00
  TC3e    TD  1 5.050000e-01    2.878000e+00
  TC2e     D  1 5.110000e-01    7.680000e-01
  TC2e    SD  1 5.370000e-01    1.886000e+00
  TC2e    TD  1 5.610000e-01    1.915000e+00
  TC1e     D  1 5.110000e-01    6.810000e-01
  TC1e    SD  1 5.370000e-01    1.020000e+00
  TC1e    TD  1 5.610000e-01    8.830000e-01
  TX4e     D  1 3.950000e-01    2.116000e+00
  TX4e    SD  1 3.780000e-01    6.282000e+00
  TX4e    TD  1 3.660000e-01    7.149000e+00
  TX3e     D  1 3.980000e-01    1.862000e+00
  TX3e    SD  1 3.940000e-01    5.608000e+00
  TX3e    TD  1 3.850000e-01    6.357000e+00
  TX2e     D  1 3.990000e-01    1.524000e+00
  TX2e    SD  1 4.040000e-01    4.653000e+00
  TX2e    TD  1 4.110000e-01    5.113000e+00
  TX1e     D  1 4.010000e-01    1.197000e+00
  TX1e    SD  1 4.090000e-01    3.260000e+00
  TX1e    TD  1 4.240000e-01    3.394000e+00
  TP6q     D  1 3.950000e-01    5.695000e+00
  TP6q    SD  1 3.650000e-01    1.376800e+01
  TP6q    TD  1 3.400000e-01    1.639500e+01
  TP5q     D  1 3.950000e-01    5.287000e+00
  TP5q    SD  1 3.650000e-01    1.260700e+01
  TP5q    TD  1 3.400000e-01    1.496100e+01
  TP4q     D  1 3.950000e-01    4.907000e+00
  TP4q    SD  1 3.650000e-01    1.153100e+01
  TP4q    TD  1 3.400000e-01    1.363000e+01
  TP3q     D  1 3.950000e-01    4.873000e+00
  TP3q    SD  1 3.650000e-01    1.114500e+01
  TP3q    TD  1 3.400000e-01    1.311400e+01
  TP2q     D  1 3.950000e-01    4.852000e+00
  TP2q    SD  1 3.650000e-01    1.090600e+01
  TP2q    TD  1 3.400000e-01    1.279400e+01
  TP1q     D  1 3.950000e-01    4.517000e+00
  TP1q    SD  1 3.650000e-01    1.044900e+01
  TP1q    TD  1 3.400000e-01    1.232200e+01
  TN6q     D  1 3.950000e-01    4.501000e+00
  TN6q    SD  1 3.650000e-01    1.027300e+01
  TN6q    TD  1 3.400000e-01    1.208600e+01
  TN5q     D  1 3.950000e-01    4.244000e+00
  TN5q    SD  1 3.650000e-01    9.813000e+00
  TN5q    TD  1 3.400000e-01    1.160200e+01
  TN4q     D  1 3.950000e-01    4.225000e+00
  TN4q    SD  1 3.650000e-01    9.600000e+00
  TN4q    TD  1 3.400000e-01    1.131800e+01
  TN3q     D  1 3.950000e-01    3.963000e+00
  TN3q    SD  1 3.650000e-01    9.083000e+00
  TN3q    TD  1 3.400000e-01    1.073700e+01
  TN2q     D  1 3.950000e-01    3.696000e+00
  TN2q    SD  1 3.650000e-01    8.509000e+00
  TN2q    TD  1 3.400000e-01    1.009100e+01
  TN1q     D  1 3.950000e-01    2.580000e+00
  TN1q    SD  1 3.650000e-01    7.023000e+00
  TN1q    TD  1 3.400000e-01    8.279000e+00
  TC6q     D  1 3.990000e-01    1.591000e+00
  TC6q    SD  1 4.040000e-01    5.341000e+00
  TC6q    TD  1 4.110000e-01    5.955000e+00
  TC5q     D  1 4.040000e-01    1.196000e+00
  TC5q    SD  1 4.230000e-01    4.605000e+00
  TC5q    TD  1 4.380000e-01    5.088000e+00
  TC4q     D  1 4.650000e-01    9.700000e-01
  TC4q    SD  1 4.840000e-01    3.552000e+00
  TC4q    TD  1 5.050000e-01    3.856000e+00
  TC3q     D  1 5.110000e-01    8.270000e-01
  TC3q    SD  1 5.370000e-01    2.468000e+00
  TC3q    TD  1 5.610000e-01    2.609000e+00
  TC2q     D  1 5.240000e-01    7.360000e-01
  TC2q    SD  1 5.880000e-01    1.748000e+00
  TC2q    TD  1 5.990000e-01    1.823000e+00
  TC1q     D  1 5.240000e-01    6.500000e-01
  TC1q    SD  1 5.880000e-01    9.570000e-01
  TC1q    TD  1 5.990000e-01    8.570000e-01
  TX4q     D  1 3.980000e-01    1.893000e+00
  TX4q    SD  1 3.940000e-01    5.926000e+00
  TX4q    TD  1 3.850000e-01    6.762000e+00
  TX3q     D  1 3.990000e-01    1.591000e+00
  TX3q    SD  1 4.040000e-01    5.341000e+00
  TX3q    TD  1 4.110000e-01    5.955000e+00
  TX2q     D  1 4.010000e-01    1.325000e+00
  TX2q    SD  1 4.090000e-01    4.560000e+00
  TX2q    TD  1 4.240000e-01    4.955000e+00
  TX1q     D  1 4.040000e-01    1.043000e+00
  TX1q    SD  1 4.230000e-01    3.089000e+00
  TX1q    TD  1 4.380000e-01    3.265000e+00
 TP6dq     D  1 3.950000e-01    5.695000e+00
 TP6dq    SD  1 3.650000e-01    1.376800e+01
 TP6dq    TD  1 3.400000e-01    1.639500e+01
 TP5dq     D  1 3.950000e-01    5.287000e+00
 TP5dq    SD  1 3.650000e-01    1.260700e+01
 TP5dq    TD  1 3.400000e-01    1.496100e+01
 TP4dq     D  1 3.950000e-01    4.907000e+00
 TP4dq    SD  1 3.650000e-01    1.153100e+01
 TP4dq    TD  1 3.400000e-01    1.363000e+01
 TP3dq     D  1 3.950000e-01    4.873000e+00
 TP3dq    SD  1 3.650000e-01    1.114500e+01
 TP3dq    TD  1 3.400000e-01    1.311400e+01
 TP2dq     D  1 3.950000e-01    4.852000e+00
 TP2dq    SD  1 3.650000e-01    1.090600e+01
 TP2dq    TD  1 3.400000e-01    1.279400e+01
 TP1dq     D  1 3.950000e-01    4.517000e+00
 TP1dq    SD  1 3.650000e-01    1.044900e+01
 TP1dq    TD  1 3.400000e-01    1.232200e+01
 TN6dq     D  1 3.950000e-01    4.501000e+00
 TN6dq    SD  1 3.650000e-01    1.027300e+01
 TN6dq    TD  1 3.400000e-01    1.208600e+01
 TN5dq     D  1 3.950000e-01    4.244000e+00
 TN5dq    SD  1 3.650000e-01    9.813000e+00
 TN5dq    TD  1 3.400000e-01    1.160200e+01
 TN4dq     D  1 3.950000e-01    4.225000e+00
 TN4dq    SD  1 3.650000e-01    9.600000e+00
 TN4dq    TD  1 3.400000e-01    1.131800e+01
 TN3dq     D  1 3.950000e-01    3.963000e+00
 TN3dq    SD  1 3.650000e-01    9.083000e+00
 TN3dq    TD  1 3.400000e-01    1.073700e+01
 TN2dq     D  1 3.950000e-01    3.696000e+00
 TN2dq    SD  1 3.650000e-01    8.509000e+00
 TN2dq    TD  1 3.400000e-01    1.009100e+01
 TN1dq     D  1 3.950000e-01    2.580000e+00
 TN1dq    SD  1 3.650000e-01    7.023000e+00
 TN1dq    TD  1 3.400000e-01    8.279000e+00
 TP6aq     D  1 3.950000e-01    5.695000e+00
 TP6aq    SD  1 3.650000e-01    1.376800e+01
 TP6aq    TD  1 3.400000e-01    1.639500e+01
 TP5aq     D  1 3.950000e-01    5.287000e+00
 TP5aq    SD  1 3.650000e-01    1.260700e+01
 TP5aq    TD  1 3.400000e-01    1.496100e+01
 TP4aq     D  1 3.950000e-01    4.907000e+00
 TP4aq    SD  1 3.650000e-01    1.153100e+01
 TP4aq    TD  1 3.400000e-01    1.363000e+01
 TP3aq     D  1 3.950000e-01    4.873000e+00
 TP3aq    SD  1 3.650000e-01    1.114500e+01
 TP3aq    TD  1 3.400000e-01    1.311400e+01
 TP2aq     D  1 3.950000e-01    4.852000e+00
 TP2aq    SD  1 3.650000e-01    1.090600e+01
 TP2aq    TD  1 3.400000e-01    1.279400e+01
 TP1aq     D  1 3.950000e-01    4.517000e+00
 TP1aq    SD  1 3.650000e-01    1.044900e+01
 TP1aq    TD  1 3.400000e-01    1.232200e+01
 TN6aq     D  1 3.950000e-01    4.501000e+00
 TN6aq    SD  1 3.650000e-01    1.027300e+01
 TN6aq    TD  1 3.400000e-01    1.208600e+01
 TN5aq     D  1 3.950000e-01    4.244000e+00
 TN5aq    SD  1 3.650000e-01    9.813000e+00
 TN5aq    TD  1 3.400000e-01    1.160200e+01
 TN4aq     D  1 3.950000e-01    4.225000e+00
 TN4aq    SD  1 3.650000e-01    9.600000e+00
 TN4aq    TD  1 3.400000e-01    1.131800e+01
 TN3aq     D  1 3.950000e-01    3.963000e+00
 TN3aq    SD  1 3.650000e-01    9.083000e+00
 TN3aq    TD  1 3.400000e-01    1.073700e+01
 TN2aq     D  1 3.950000e-01    3.696000e+00
 TN2aq    SD  1 3.650000e-01    8.509000e+00
 TN2aq    TD  1 3.400000e-01    1.009100e+01
 TN1aq     D  1 3.950000e-01    2.580000e+00
 TN1aq    SD  1 3.650000e-01    7.023000e+00
 TN1aq    TD  1 3.400000e-01    8.279000e+00
 TC6vq     D  1 3.980000e-01    1.862000e+00
 TC6vq    SD  1 3.940000e-01    5.608000e+00
 TC6vq    TD  1 3.850000e-01    6.357000e+00
 TC5vq     D  1 4.010000e-01    1.352000e+00
 TC5vq    SD  1 4.090000e-01    4.828000e+00
 TC5vq    TD  1 4.240000e-01    5.277000e+00
 TC4vq     D  1 4.040000e-01    1.138000e+00
 TC4vq    SD  1 4.230000e-01    4.027000e+00
 TC4vq    TD  1 4.380000e-01    4.393000e+00
 TC3vq     D  1 4.650000e-01    8.880000e-01
 TC3vq    SD  1 4.840000e-01    2.732000e+00
 TC3vq    TD  1 5.050000e-01    2.878000e+00
 TC2vq     D  1 5.110000e-01    7.680000e-01
 TC2vq    SD  1 5.370000e-01    1.886000e+00
 TC2vq    TD  1 5.610000e-01    1.915000e+00
 TC1vq     D  1 5.110000e-01    6.810000e-01
 TC1vq    SD  1 5.370000e-01    1.020000e+00
 TC1vq    TD  1 5.610000e-01    8.830000e-01
 TX4vq     D  1 3.950000e-01    2.116000e+00
 TX4vq    SD  1 3.780000e-01    6.282000e+00
 TX4vq    TD  1 3.660000e-01    7.149000e+00
 TX3vq     D  1 3.980000e-01    1.862000e+00
 TX3vq    SD  1 3.940000e-01    5.608000e+00
 TX3vq    TD  1 3.850000e-01    6.357000e+00
 TX2vq     D  1 3.990000e-01    1.524000e+00
 TX2vq    SD  1 4.040000e-01    4.653000e+00
 TX2vq    TD  1 4.110000e-01    5.113000e+00
 TX1vq     D  1 4.010000e-01    1.197000e+00
 TX1vq    SD  1 4.090000e-01    3.260000e+00
 TX1vq    TD  1 4.240000e-01    3.394000e+00
 TC6eq     D  1 3.980000e-01    1.862000e+00
 TC6eq    SD  1 3.940000e-01    5.608000e+00
 TC6eq    TD  1 3.850000e-01    6.357000e+00
 TC5eq     D  1 4.010000e-01    1.352000e+00
 TC5eq    SD  1 4.090000e-01    4.828000e+00
 TC5eq    TD  1 4.240000e-01    5.277000e+00
 TC4eq     D  1 4.040000e-01    1.138000e+00
 TC4eq    SD  1 4.230000e-01    4.027000e+00
 TC4eq    TD  1 4.380000e-01    4.393000e+00
 TC3eq     D  1 4.650000e-01    8.880000e-01
 TC3eq    SD  1 4.840000e-01    2.732000e+00
 TC3eq    TD  1 5.050000e-01    2.878000e+00
 TC2eq     D  1 5.110000e-01    7.680000e-01
 TC2eq    SD  1 5.370000e-01    1.886000e+00
 TC2eq    TD  1 5.610000e-01    1.915000e+00
 TC1eq     D  1 5.110000e-01    6.810000e-01
 TC1eq    SD  1 5.370000e-01    1.020000e+00
 TC1eq    TD  1 5.610000e-01    8.830000e-01
 TX4eq     D  1 3.950000e-01    2.116000e+00
 TX4eq    SD  1 3.780000e-01    6.282000e+00
 TX4eq    TD  1 3.660000e-01    7.149000e+00
 TX3eq     D  1 3.980000e-01    1.862000e+00
 TX3eq    SD  1 3.940000e-01    5.608000e+00
 TX3eq    TD  1 3.850000e-01    6.357000e+00
 TX2eq     D  1 3.990000e-01    1.524000e+00
 TX2eq    SD  1 4.040000e-01    4.653000e+00
 TX2eq    TD  1 4.110000e-01    5.113000e+00
 TX1eq     D  1 4.010000e-01    1.197000e+00
 TX1eq    SD  1 4.090000e-01    3.260000e+00
 TX1eq    TD  1 4.240000e-01    3.394000e+00
  TP6h     D  1 3.950000e-01    5.695000e+00
  TP6h    SD  1 3.650000e-01    1.376800e+01
  TP6h    TD  1 3.400000e-01    1.639500e+01
  TP5h     D  1 3.950000e-01    5.287000e+00
  TP5h    SD  1 3.650000e-01    1.260700e+01
  TP5h    TD  1 3.400000e-01    1.496100e+01
  TP4h     D  1 3.950000e-01    4.907000e+00
  TP4h    SD  1 3.650000e-01    1.153100e+01
  TP4h    TD  1 3.400000e-01    1.363000e+01
  TP3h     D  1 3.950000e-01    4.873000e+00
  TP3h    SD  1 3.650000e-01    1.114500e+01
  TP3h    TD  1 3.400000e-01    1.311400e+01
  TP2h     D  1 3.950000e-01    4.852000e+00
  TP2h    SD  1 3.650000e-01    1.090600e+01
  TP2h    TD  1 3.400000e-01    1.279400e+01
  TP1h     D  1 3.950000e-01    4.517000e+00
  TP1h    SD  1 3.650000e-01    1.044900e+01
  TP1h    TD  1 3.400000e-01    1.232200e+01
  TN6h     D  1 3.950000e-01    4.501000e+00
  TN6h    SD  1 3.650000e-01    1.027300e+01
  TN6h    TD  1 3.400000e-01    1.208600e+01
  TN5h     D  1 3.950000e-01    4.244000e+00
  TN5h    SD  1 3.650000e-01    9.813000e+00
  TN5h    TD  1 3.400000e-01    1.160200e+01
  TN4h     D  1 3.950000e-01    4.225000e+00
  TN4h    SD  1 3.650000e-01    9.600000e+00
  TN4h    TD  1 3.400000e-01    1.131800e+01
  TN3h     D  1 3.950000e-01    3.963000e+00
  TN3h    SD  1 3.650000e-01    9.083000e+00
  TN3h    TD  1 3.400000e-01    1.073700e+01
  TN2h     D  1 3.950000e-01    3.696000e+00
  TN2h    SD  1 3.650000e-01    8.509000e+00
  TN2h    TD  1 3.400000e-01    1.009100e+01
  TN1h     D  1 3.950000e-01    2.580000e+00
  TN1h    SD  1 3.650000e-01    7.023000e+00
  TN1h    TD  1 3.400000e-01    8.279000e+00
  TC6h     D  1 3.990000e-01    1.591000e+00
  TC6h    SD  1 4.040000e-01    5.341000e+00
  TC6h    TD  1 4.110000e-01    5.955000e+00
  TC5h     D  1 4.040000e-01    1.196000e+00
  TC5h    SD  1 4.230000e-01    4.605000e+00
  TC5h    TD  1 4.380000e-01    5.088000e+00
  TC4h     D  1 4.650000e-01    9.700000e-01
  TC4h    SD  1 4.840000e-01    3.552000e+00
  TC4h    TD  1 5.050000e-01    3.856000e+00
  TC3h     D  1 5.110000e-01    8.270000e-01
  TC3h    SD  1 5.370000e-01    2.468000e+00
  TC3h    TD  1 5.610000e-01    2.609000e+00
  TC2h     D  1 5.240000e-01    7.360000e-01
  TC2h    SD  1 5.880000e-01    1.748000e+00
  TC2h    TD  1 5.990000e-01    1.823000e+00
  TC1h     D  1 5.240000e-01    6.500000e-01
  TC1h    SD  1 5.880000e-01    9.570000e-01
  TC1h    TD  1 5.990000e-01    8.570000e-01
  TX4h     D  1 3.980000e-01    1.893000e+00
  TX4h    SD  1 3.940000e-01    5.926000e+00
  TX4h    TD  1 3.850000e-01    6.762000e+00
  TX3h     D  1 3.990000e-01    1.591000e+00
  TX3h    SD  1 4.040000e-01    5.341000e+00
  TX3h    TD  1 4.110000e-01    5.955000e+00
  TX2h     D  1 4.010000e-01    1.325000e+00
  TX2h    SD  1 4.090000e-01    4.560000e+00
  TX2h    TD  1 4.240000e-01    4.955000e+00
  TX1h     D  1 4.040000e-01    1.043000e+00
  TX1h    SD  1 4.230000e-01    3.089000e+00
  TX1h    TD  1 4.380000e-01    3.265000e+00
 TP6dh     D  1 3.950000e-01    5.695000e+00
 TP6dh    SD  1 3.650000e-01    1.376800e+01
 TP6dh    TD  1 3.400000e-01    1.639500e+01
 TP5dh     D  1 3.950000e-01    5.287000e+00
 TP5dh    SD  1 3.650000e-01    1.260700e+01
 TP5dh    TD  1 3.400000e-01    1.496100e+01
 TP4dh     D  1 3.950000e-01    4.907000e+00
 TP4dh    SD  1 3.650000e-01    1.153100e+01
 TP4dh    TD  1 3.400000e-01    1.363000e+01
 TP3dh     D  1 3.950000e-01    4.873000e+00
 TP3dh    SD  1 3.650000e-01    1.114500e+01
 TP3dh    TD  1 3.400000e-01    1.311400e+01
 TP2dh     D  1 3.950000e-01    4.852000e+00
 TP2dh    SD  1 3.650000e-01    1.090600e+01
 TP2dh    TD  1 3.400000e-01    1.279400e+01
 TP1dh     D  1 3.950000e-01    4.517000e+00
 TP1dh    SD  1 3.650000e-01    1.044900e+01
 TP1dh    TD  1 3.400000e-01    1.232200e+01
 TN6dh     D  1 3.950000e-01    4.501000e+00
 TN6dh    SD  1 3.650000e-01    1.027300e+01
 TN6dh    TD  1 3.400000e-01    1.208600e+01
 TN5dh     D  1 3.950000e-01    4.244000e+00
 TN5dh    SD  1 3.650000e-01    9.813000e+00
 TN5dh    TD  1 3.400000e-01    1.160200e+01
 TN4dh     D  1 3.950000e-01    4.225000e+00
 TN4dh    SD  1 3.650000e-01    9.600000e+00
 TN4dh    TD  1 3.400000e-01    1.131800e+01
 TN3dh     D  1 3.950000e-01    3.963000e+00
 TN3dh    SD  1 3.650000e-01    9.083000e+00
 TN3dh    TD  1 3.400000e-01    1.073700e+01
 TN2dh     D  1 3.950000e-01    3.696000e+00
 TN2dh    SD  1 3.650000e-01    8.509000e+00
 TN2dh    TD  1 3.400000e-01    1.009100e+01
 TN1dh     D  1 3.950000e-01    2.580000e+00
 TN1dh    SD  1 3.650000e-01    7.023000e+00
 TN1dh    TD  1 3.400000e-01    8.279000e+00
 TP6ah     D  1 3.950000e-01    5.695000e+00
 TP6ah    SD  1 3.650000e-01    1.376800e+01
 TP6ah    TD  1 3.400000e-01    1.639500e+01
 TP5ah     D  1 3.950000e-01    5.287000e+00
 TP5ah    SD  1 3.650000e-01    1.260700e+01
 TP5ah    TD  1 3.400000e-01    1.496100e+01
 TP4ah     D  1 3.950000e-01    4.907000e+00
 TP4ah    SD  1 3.650000e-01    1.153100e+01
 TP4ah    TD  1 3.400000e-01    1.363000e+01
 TP3ah     D  1 3.950000e-01    4.873000e+00
 TP3ah    SD  1 3.650000e-01    1.114500e+01
 TP3ah    TD  1 3.400000e-01    1.311400e+01
 TP2ah     D  1 3.950000e-01    4.852000e+00
 TP2ah    SD  1 3.650000e-01    1.090600e+01
 TP2ah    TD  1 3.400000e-01    1.279400e+01
 TP1ah     D  1 3.950000e-01    4.517000e+00
 TP1ah    SD  1 3.650000e-01    1.044900e+01
 TP1ah    TD  1 3.400000e-01    1.232200e+01
 TN6ah     D  1 3.950000e-01    4.501000e+00
 TN6ah    SD  1 3.650000e-01    1.027300e+01
 TN6ah    TD  1 3.400000e-01    1.208600e+01
 TN5ah     D  1 3.950000e-01    4.244000e+00
 TN5ah    SD  1 3.650000e-01    9.813000e+00
 TN5ah    TD  1 3.400000e-01    1.160200e+01
 TN4ah     D  1 3.950000e-01    4.225000e+00
 TN4ah    SD  1 3.650000e-01    9.600000e+00
 TN4ah    TD  1 3.400000e-01    1.131800e+01
 TN3ah     D  1 3.950000e-01    3.963000e+00
 TN3ah    SD  1 3.650000e-01    9.083000e+00
 TN3ah    TD  1 3.400000e-01    1.073700e+01
 TN2ah     D  1 3.950000e-01    3.696000e+00
 TN2ah    SD  1 3.650000e-01    8.509000e+00
 TN2ah    TD  1 3.400000e-01    1.009100e+01
 TN1ah     D  1 3.950000e-01    2.580000e+00
 TN1ah    SD  1 3.650000e-01    7.023000e+00
 TN1ah    TD  1 3.400000e-01    8.279000e+00
 TC6vh     D  1 3.980000e-01    1.862000e+00
 TC6vh    SD  1 3.940000e-01    5.608000e+00
 TC6vh    TD  1 3.850000e-01    6.357000e+00
 TC5vh     D  1 4.010000e-01    1.352000e+00
 TC5vh    SD  1 4.090000e-01    4.828000e+00
 TC5vh    TD  1 4.240000e-01    5.277000e+00
 TC4vh     D  1 4.040000e-01    1.138000e+00
 TC4vh    SD  1 4.230000e-01    4.027000e+00
 TC4vh    TD  1 4.380000e-01    4.393000e+00
 TC3vh     D  1 4.650000e-01    8.880000e-01
 TC3vh    SD  1 4.840000e-01    2.732000e+00
 TC3vh    TD  1 5.050000e-01    2.878000e+00
 TC2vh     D  1 5.110000e-01    7.680000e-01
 TC2vh    SD  1 5.370000e-01    1.886000e+00
 TC2vh    TD  1 5.610000e-01    1.915000e+00
 TC1vh     D  1 5.110000e-01    6.810000e-01
 TC1vh    SD  1 5.370000e-01    1.020000e+00
 TC1vh    TD  1 5.610000e-01    8.830000e-01
 TX4vh     D  1 3.950000e-01    2.116000e+00
 TX4vh    SD  1 3.780000e-01    6.282000e+00
 TX4vh    TD  1 3.660000e-01    7.149000e+00
 TX3vh     D  1 3.980000e-01    1.862000e+00
 TX3vh    SD  1 3.940000e-01    5.608000e+00
 TX3vh    TD  1 3.850000e-01    6.357000e+00
 TX2vh     D  1 3.990000e-01    1.524000e+00
 TX2vh    SD  1 4.040000e-01    4.653000e+00
 TX2vh    TD  1 4.110000e-01    5.113000e+00
 TX1vh     D  1 4.010000e-01    1.197000e+00
 TX1vh    SD  1 4.090000e-01    3.260000e+00
 TX1vh    TD  1 4.240000e-01    3.394000e+00
 TC6eh     D  1 3.980000e-01    1.862000e+00
 TC6eh    SD  1 3.940000e-01    5.608000e+00
 TC6eh    TD  1 3.850000e-01    6.357000e+00
 TC5eh     D  1 4.010000e-01    1.352000e+00
 TC5eh    SD  1 4.090000e-01    4.828000e+00
 TC5eh    TD  1 4.240000e-01    5.277000e+00
 TC4eh     D  1 4.040000e-01    1.138000e+00
 TC4eh    SD  1 4.230000e-01    4.027000e+00
 TC4eh    TD  1 4.380000e-01    4.393000e+00
 TC3eh     D  1 4.650000e-01    8.880000e-01
 TC3eh    SD  1 4.840000e-01    2.732000e+00
 TC3eh    TD  1 5.050000e-01    2.878000e+00
 TC2eh     D  1 5.110000e-01    7.680000e-01
 TC2eh    SD  1 5.370000e-01    1.886000e+00
 TC2eh    TD  1 5.610000e-01    1.915000e+00
 TC1eh     D  1 5.110000e-01    6.810000e-01
 TC1eh    SD  1 5.370000e-01    1.020000e+00
 TC1eh    TD  1 5.610000e-01    8.830000e-01
 TX4eh     D  1 3.950000e-01    2.116000e+00
 TX4eh    SD  1 3.780000e-01    6.282000e+00
 TX4eh    TD  1 3.660000e-01    7.149000e+00
 TX3eh     D  1 3.980000e-01    1.862000e+00
 TX3eh    SD  1 3.940000e-01    5.608000e+00
 TX3eh    TD  1 3.850000e-01    6.357000e+00
 TX2eh     D  1 3.990000e-01    1.524000e+00
 TX2eh    SD  1 4.040000e-01    4.653000e+00
 TX2eh    TD  1 4.110000e-01    5.113000e+00
 TX1eh     D  1 4.010000e-01    1.197000e+00
 TX1eh    SD  1 4.090000e-01    3.260000e+00
 TX1eh    TD  1 4.240000e-01    3.394000e+00
  TP6r     D  1 3.950000e-01    5.695000e+00
  TP6r    SD  1 3.650000e-01    1.376800e+01
  TP6r    TD  1 3.400000e-01    1.639500e+01
  TP5r     D  1 3.950000e-01    5.287000e+00
  TP5r    SD  1 3.650000e-01    1.260700e+01
  TP5r    TD  1 3.400000e-01    1.496100e+01
  TP4r     D  1 3.950000e-01    4.907000e+00
  TP4r    SD  1 3.650000e-01    1.153100e+01
  TP4r    TD  1 3.400000e-01    1.363000e+01
  TP3r     D  1 3.950000e-01    4.873000e+00
  TP3r    SD  1 3.650000e-01    1.114500e+01
  TP3r    TD  1 3.400000e-01    1.311400e+01
  TP2r     D  1 3.950000e-01    4.852000e+00
  TP2r    SD  1 3.650000e-01    1.090600e+01
  TP2r    TD  1 3.400000e-01    1.279400e+01
  TP1r     D  1 3.950000e-01    4.517000e+00
  TP1r    SD  1 3.650000e-01    1.044900e+01
  TP1r    TD  1 3.400000e-01    1.232200e+01
  TN6r     D  1 3.950000e-01    4.501000e+00
  TN6r    SD  1 3.650000e-01    1.027300e+01
  TN6r    TD  1 3.400000e-01    1.208600e+01
  TN5r     D  1 3.950000e-01    4.244000e+00
  TN5r    SD  1 3.650000e-01    9.813000e+00
  TN5r    TD  1 3.400000e-01    1.160200e+01
  TN4r     D  1 3.950000e-01    4.225000e+00
  TN4r    SD  1 3.650000e-01    9.600000e+00
  TN4r    TD  1 3.400000e-01    1.131800e+01
  TN3r     D  1 3.950000e-01    3.963000e+00
  TN3r    SD  1 3.650000e-01    9.083000e+00
  TN3r    TD  1 3.400000e-01    1.073700e+01
  TN2r     D  1 3.950000e-01    3.696000e+00
  TN2r    SD  1 3.650000e-01    8.509000e+00
  TN2r    TD  1 3.400000e-01    1.009100e+01
  TN1r     D  1 3.950000e-01    2.580000e+00
  TN1r    SD  1 3.650000e-01    7.023000e+00
  TN1r    TD  1 3.400000e-01    8.279000e+00
  TC6r     D  1 3.990000e-01    1.591000e+00
  TC6r    SD  1 4.040000e-01    5.341000e+00
  TC6r    TD  1 4.110000e-01    5.955000e+00
  TC5r     D  1 4.040000e-01    1.196000e+00
  TC5r    SD  1 4.230000e-01    4.605000e+00
  TC5r    TD  1 4.380000e-01    5.088000e+00
  TC4r     D  1 4.650000e-01    9.700000e-01
  TC4r    SD  1 4.840000e-01    3.552000e+00
  TC4r    TD  1 5.050000e-01    3.856000e+00
  TC3r     D  1 5.110000e-01    8.270000e-01
  TC3r    SD  1 5.370000e-01    2.468000e+00
  TC3r    TD  1 5.610000e-01    2.609000e+00
  TC2r     D  1 5.240000e-01    7.360000e-01
  TC2r    SD  1 5.880000e-01    1.748000e+00
  TC2r    TD  1 5.990000e-01    1.823000e+00
  TC1r     D  1 5.240000e-01    6.500000e-01
  TC1r    SD  1 5.880000e-01    9.570000e-01
  TC1r    TD  1 5.990000e-01    8.570000e-01
  TX4r     D  1 3.980000e-01    1.893000e+00
  TX4r    SD  1 3.940000e-01    5.926000e+00
  TX4r    TD  1 3.850000e-01    6.762000e+00
  TX3r     D  1 3.990000e-01    1.591000e+00
  TX3r    SD  1 4.040000e-01    5.341000e+00
  TX3r    TD  1 4.110000e-01    5.955000e+00
  TX2r     D  1 4.010000e-01    1.325000e+00
  TX2r    SD  1 4.090000e-01    4.560000e+00
  TX2r    TD  1 4.240000e-01    4.955000e+00
  TX1r     D  1 4.040000e-01    1.043000e+00
  TX1r    SD  1 4.230000e-01    3.089000e+00
  TX1r    TD  1 4.380000e-01    3.265000e+00
 TP6dr     D  1 3.950000e-01    5.695000e+00
 TP6dr    SD  1 3.650000e-01    1.376800e+01
 TP6dr    TD  1 3.400000e-01    1.639500e+01
 TP5dr     D  1 3.950000e-01    5.287000e+00
 TP5dr    SD  1 3.650000e-01    1.260700e+01
 TP5dr    TD  1 3.400000e-01    1.496100e+01
 TP4dr     D  1 3.950000e-01    4.907000e+00
 TP4dr    SD  1 3.650000e-01    1.153100e+01
 TP4dr    TD  1 3.400000e-01    1.363000e+01
 TP3dr     D  1 3.950000e-01    4.873000e+00
 TP3dr    SD  1 3.650000e-01    1.114500e+01
 TP3dr    TD  1 3.400000e-01    1.311400e+01
 TP2dr     D  1 3.950000e-01    4.852000e+00
 TP2dr    SD  1 3.650000e-01    1.090600e+01
 TP2dr    TD  1 3.400000e-01    1.279400e+01
 TP1dr     D  1 3.950000e-01    4.517000e+00
 TP1dr    SD  1 3.650000e-01    1.044900e+01
 TP1dr    TD  1 3.400000e-01    1.232200e+01
 TN6dr     D  1 3.950000e-01    4.501000e+00
 TN6dr    SD  1 3.650000e-01    1.027300e+01
 TN6dr    TD  1 3.400000e-01    1.208600e+01
 TN5dr     D  1 3.950000e-01    4.244000e+00
 TN5dr    SD  1 3.650000e-01    9.813000e+00
 TN5dr    TD  1 3.400000e-01    1.160200e+01
 TN4dr     D  1 3.950000e-01    4.225000e+00
 TN4dr    SD  1 3.650000e-01    9.600000e+00
 TN4dr    TD  1 3.400000e-01    1.131800e+01
 TN3dr     D  1 3.950000e-01    3.963000e+00
 TN3dr    SD  1 3.650000e-01    9.083000e+00
 TN3dr    TD  1 3.400000e-01    1.073700e+01
 TN2dr     D  1 3.950000e-01    3.696000e+00
 TN2dr    SD  1 3.650000e-01    8.509000e+00
 TN2dr    TD  1 3.400000e-01    1.009100e+01
 TN1dr     D  1 3.950000e-01    2.580000e+00
 TN1dr    SD  1 3.650000e-01    7.023000e+00
 TN1dr    TD  1 3.400000e-01    8.279000e+00
 TP6ar     D  1 3.950000e-01    5.695000e+00
 TP6ar    SD  1 3.650000e-01    1.376800e+01
 TP6ar    TD  1 3.400000e-01    1.639500e+01
 TP5ar     D  1 3.950000e-01    5.287000e+00
 TP5ar    SD  1 3.650000e-01    1.260700e+01
 TP5ar    TD  1 3.400000e-01    1.496100e+01
 TP4ar     D  1 3.950000e-01    4.907000e+00
 TP4ar    SD  1 3.650000e-01    1.153100e+01
 TP4ar    TD  1 3.400000e-01    1.363000e+01
 TP3ar     D  1 3.950000e-01    4.873000e+00
 TP3ar    SD  1 3.650000e-01    1.114500e+01
 TP3ar    TD  1 3.400000e-01    1.311400e+01
 TP2ar     D  1 3.950000e-01    4.852000e+00
 TP2ar    SD  1 3.650000e-01    1.090600e+01
 TP2ar    TD  1 3.400000e-01    1.279400e+01
 TP1ar     D  1 3.950000e-01    4.517000e+00
 TP1ar    SD  1 3.650000e-01    1.044900e+01
 TP1ar    TD  1 3.400000e-01    1.232200e+01
 TN6ar     D  1 3.950000e-01    4.501000e+00
 TN6ar    SD  1 3.650000e-01    1.027300e+01
 TN6ar    TD  1 3.400000e-01    1.208600e+01
 TN5ar     D  1 3.950000e-01    4.244000e+00
 TN5ar    SD  1 3.650000e-01    9.813000e+00
 TN5ar    TD  1 3.400000e-01    1.160200e+01
 TN4ar     D  1 3.950000e-01    4.225000e+00
 TN4ar    SD  1 3.650000e-01    9.600000e+00
 TN4ar    TD  1 3.400000e-01    1.131800e+01
 TN3ar     D  1 3.950000e-01    3.963000e+00
 TN3ar    SD  1 3.650000e-01    9.083000e+00
 TN3ar    TD  1 3.400000e-01    1.073700e+01
 TN2ar     D  1 3.950000e-01    3.696000e+00
 TN2ar    SD  1 3.650000e-01    8.509000e+00
 TN2ar    TD  1 3.400000e-01    1.009100e+01
 TN1ar     D  1 3.950000e-01    2.580000e+00
 TN1ar    SD  1 3.650000e-01    7.023000e+00
 TN1ar    TD  1 3.400000e-01    8.279000e+00
 TC6vr     D  1 3.980000e-01    1.862000e+00
 TC6vr    SD  1 3.940000e-01    5.608000e+00
 TC6vr    TD  1 3.850000e-01    6.357000e+00
 TC5vr     D  1 4.010000e-01    1.352000e+00
 TC5vr    SD  1 4.090000e-01    4.828000e+00
 TC5vr    TD  1 4.240000e-01    5.277000e+00
 TC4vr     D  1 4.040000e-01    1.138000e+00
 TC4vr    SD  1 4.230000e-01    4.027000e+00
 TC4vr    TD  1 4.380000e-01    4.393000e+00
 TC3vr     D  1 4.650000e-01    8.880000e-01
 TC3vr    SD  1 4.840000e-01    2.732000e+00
 TC3vr    TD  1 5.050000e-01    2.878000e+00
 TC2vr     D  1 5.110000e-01    7.680000e-01
 TC2vr    SD  1 5.370000e-01    1.886000e+00
 TC2vr    TD  1 5.610000e-01    1.915000e+00
 TC1vr     D  1 5.110000e-01    6.810000e-01
 TC1vr    SD  1 5.370000e-01    1.020000e+00
 TC1vr    TD  1 5.610000e-01    8.830000e-01
 TX4vr     D  1 3.950000e-01    2.116000e+00
 TX4vr    SD  1 3.780000e-01    6.282000e+00
 TX4vr    TD  1 3.660000e-01    7.149000e+00
 TX3vr     D  1 3.980000e-01    1.862000e+00
 TX3vr    SD  1 3.940000e-01    5.608000e+00
 TX3vr    TD  1 3.850000e-01    6.357000e+00
 TX2vr     D  1 3.990000e-01    1.524000e+00
 TX2vr    SD  1 4.040000e-01    4.653000e+00
 TX2vr    TD  1 4.110000e-01    5.113000e+00
 TX1vr     D  1 4.010000e-01    1.197000e+00
 TX1vr    SD  1 4.090000e-01    3.260000e+00
 TX1vr    TD  1 4.240000e-01    3.394000e+00
 TC6er     D  1 3.980000e-01    1.862000e+00
 TC6er    SD  1 3.940000e-01    5.608000e+00
 TC6er    TD  1 3.850000e-01    6.357000e+00
 TC5er     D  1 4.010000e-01    1.352000e+00
 TC5er    SD  1 4.090000e-01    4.828000e+00
 TC5er    TD  1 4.240000e-01    5.277000e+00
 TC4er     D  1 4.040000e-01    1.138000e+00
 TC4er    SD  1 4.230000e-01    4.027000e+00
 TC4er    TD  1 4.380000e-01    4.393000e+00
 TC3er     D  1 4.650000e-01    8.880000e-01
 TC3er    SD  1 4.840000e-01    2.732000e+00
 TC3er    TD  1 5.050000e-01    2.878000e+00
 TC2er     D  1 5.110000e-01    7.680000e-01
 TC2er    SD  1 5.370000e-01    1.886000e+00
 TC2er    TD  1 5.610000e-01    1.915000e+00
 TC1er     D  1 5.110000e-01    6.810000e-01
 TC1er    SD  1 5.370000e-01    1.020000e+00
 TC1er    TD  1 5.610000e-01    8.830000e-01
 TX4er     D  1 3.950000e-01    2.116000e+00
 TX4er    SD  1 3.780000e-01    6.282000e+00
 TX4er    TD  1 3.660000e-01    7.149000e+00
 TX3er     D  1 3.980000e-01    1.862000e+00
 TX3er    SD  1 3.940000e-01    5.608000e+00
 TX3er    TD  1 3.850000e-01    6.357000e+00
 TX2er     D  1 3.990000e-01    1.524000e+00
 TX2er    SD  1 4.040000e-01    4.653000e+00
 TX2er    TD  1 4.110000e-01    5.113000e+00
 TX1er     D  1 4.010000e-01    1.197000e+00
 TX1er    SD  1 4.090000e-01    3.260000e+00
 TX1er    TD  1 4.240000e-01    3.394000e+00
    P6    Q5  1 4.700000e-01    5.986000e+00
    P6   SQ5  1 4.300000e-01    7.647000e+00
    P6   TQ5  1 3.950000e-01    1.084700e+01
    P5    Q5  1 4.700000e-01    5.716000e+00
    P5   SQ5  1 4.300000e-01    7.335000e+00
    P5   TQ5  1 3.950000e-01    1.036900e+01
    P4    Q5  1 4.700000e-01    5.693000e+00
    P4   SQ5  1 4.300000e-01    7.249000e+00
    P4   TQ5  1 3.950000e-01    1.017200e+01
    P3    Q5  1 4.700000e-01    5.418000e+00
    P3   SQ5  1 4.300000e-01    6.917000e+00
    P3   TQ5  1 3.950000e-01    9.729000e+00
    P2    Q5  1 4.700000e-01    5.408000e+00
    P2   SQ5  1 4.300000e-01    6.879000e+00
    P2   TQ5  1 3.950000e-01    9.642000e+00
    P1    Q5  1 4.700000e-01    5.150000e+00
    P1   SQ5  1 4.300000e-01    6.620000e+00
    P1   TQ5  1 3.950000e-01    9.335000e+00
    N6    Q5  1 4.700000e-01    5.141000e+00
    N6   SQ5  1 4.300000e-01    6.586000e+00
    N6   TQ5  1 3.950000e-01    9.257000e+00
    N5    Q5  1 4.700000e-01    4.900000e+00
    N5   SQ5  1 4.300000e-01    6.347000e+00
    N5   TQ5  1 3.950000e-01    8.926000e+00
    N4    Q5  1 4.700000e-01    4.887000e+00
    N4   SQ5  1 4.300000e-01    6.299000e+00
    N4   TQ5  1 3.950000e-01    8.815000e+00
    N3    Q5  1 4.700000e-01    4.680000e+00
    N3   SQ5  1 4.300000e-01    6.038000e+00
    N3   TQ5  1 3.950000e-01    8.435000e+00
    N2    Q5  1 4.700000e-01    4.658000e+00
    N2   SQ5  1 4.300000e-01    5.957000e+00
    N2   TQ5  1 3.950000e-01    8.247000e+00
    N1    Q5  1 4.700000e-01    4.446000e+00
    N1   SQ5  1 4.300000e-01    5.659000e+00
    N1   TQ5  1 3.950000e-01    7.725000e+00
    C6    Q5  1 4.700000e-01    3.584000e+00
    C6   SQ5  1 4.300000e-01    4.409000e+00
    C6   TQ5  1 3.950000e-01    6.196000e+00
    C5    Q5  1 4.700000e-01    2.913000e+00
    C5   SQ5  1 4.300000e-01    3.460000e+00
    C5   TQ5  1 4.010000e-01    4.924000e+00
    C4    Q5  1 4.850000e-01    2.640000e+00
    C4   SQ5  1 4.430000e-01    2.944000e+00
    C4   TQ5  1 4.040000e-01    4.240000e+00
    C3    Q5  1 5.200000e-01    2.402000e+00
    C3   SQ5  1 4.730000e-01    2.318000e+00
    C3   TQ5  1 4.650000e-01    2.946000e+00
    C2    Q5  1 6.200000e-01    2.136000e+00
    C2   SQ5  1 5.520000e-01    1.672000e+00
    C2   TQ5  1 5.240000e-01    2.111000e+00
    C1    Q5  1 6.200000e-01    2.046000e+00
    C1   SQ5  1 5.520000e-01    1.332000e+00
    C1   TQ5  1 5.240000e-01    1.350000e+00
    X4    Q5  1 4.700000e-01    3.503000e+00
    X4   SQ5  1 4.300000e-01    4.307000e+00
    X4   TQ5  1 3.950000e-01    6.265000e+00
    X3    Q5  1 4.700000e-01    3.304000e+00
    X3   SQ5  1 4.300000e-01    4.039000e+00
    X3   TQ5  1 3.980000e-01    5.763000e+00
    X2    Q5  1 4.700000e-01    3.066000e+00
    X2   SQ5  1 4.300000e-01    3.561000e+00
    X2   TQ5  1 3.990000e-01    4.914000e+00
    X1    Q5  1 4.700000e-01    2.752000e+00
    X1   SQ5  1 4.300000e-01    2.872000e+00
    X1   TQ5  1 4.010000e-01    3.584000e+00
   P6d    Q5  1 4.700000e-01    5.986000e+00
   P6d   SQ5  1 4.300000e-01    7.647000e+00
   P6d   TQ5  1 3.950000e-01    1.084700e+01
   P5d    Q5  1 4.700000e-01    5.716000e+00
   P5d   SQ5  1 4.300000e-01    7.335000e+00
   P5d   TQ5  1 3.950000e-01    1.036900e+01
   P4d    Q5  1 4.700000e-01    5.693000e+00
   P4d   SQ5  1 4.300000e-01    7.249000e+00
   P4d   TQ5  1 3.950000e-01    1.017200e+01
   P3d    Q5  1 4.700000e-01    5.418000e+00
   P3d   SQ5  1 4.300000e-01    6.917000e+00
   P3d   TQ5  1 3.950000e-01    9.729000e+00
   P2d    Q5  1 4.700000e-01    5.408000e+00
   P2d   SQ5  1 4.300000e-01    6.879000e+00
   P2d   TQ5  1 3.950000e-01    9.642000e+00
   P1d    Q5  1 4.700000e-01    5.150000e+00
   P1d   SQ5  1 4.300000e-01    6.620000e+00
   P1d   TQ5  1 3.950000e-01    9.335000e+00
   N6d    Q5  1 4.700000e-01    5.141000e+00
   N6d   SQ5  1 4.300000e-01    6.586000e+00
   N6d   TQ5  1 3.950000e-01    9.257000e+00
   N5d    Q5  1 4.700000e-01    4.900000e+00
   N5d   SQ5  1 4.300000e-01    6.347000e+00
   N5d   TQ5  1 3.950000e-01    8.926000e+00
   N4d    Q5  1 4.700000e-01    4.887000e+00
   N4d   SQ5  1 4.300000e-01    6.299000e+00
   N4d   TQ5  1 3.950000e-01    8.815000e+00
   N3d    Q5  1 4.700000e-01    4.680000e+00
   N3d   SQ5  1 4.300000e-01    6.038000e+00
   N3d   TQ5  1 3.950000e-01    8.435000e+00
   N2d    Q5  1 4.700000e-01    4.658000e+00
   N2d   SQ5  1 4.300000e-01    5.957000e+00
   N2d   TQ5  1 3.950000e-01    8.247000e+00
   N1d    Q5  1 4.700000e-01    4.446000e+00
   N1d   SQ5  1 4.300000e-01    5.659000e+00
   N1d   TQ5  1 3.950000e-01    7.725000e+00
   P6a    Q5  1 4.700000e-01    5.986000e+00
   P6a   SQ5  1 4.300000e-01    7.647000e+00
   P6a   TQ5  1 3.950000e-01    1.084700e+01
   P5a    Q5  1 4.700000e-01    5.716000e+00
   P5a   SQ5  1 4.300000e-01    7.335000e+00
   P5a   TQ5  1 3.950000e-01    1.036900e+01
   P4a    Q5  1 4.700000e-01    5.693000e+00
   P4a   SQ5  1 4.300000e-01    7.249000e+00
   P4a   TQ5  1 3.950000e-01    1.017200e+01
   P3a    Q5  1 4.700000e-01    5.418000e+00
   P3a   SQ5  1 4.300000e-01    6.917000e+00
   P3a   TQ5  1 3.950000e-01    9.729000e+00
   P2a    Q5  1 4.700000e-01    5.408000e+00
   P2a   SQ5  1 4.300000e-01    6.879000e+00
   P2a   TQ5  1 3.950000e-01    9.642000e+00
   P1a    Q5  1 4.700000e-01    5.150000e+00
   P1a   SQ5  1 4.300000e-01    6.620000e+00
   P1a   TQ5  1 3.950000e-01    9.335000e+00
   N6a    Q5  1 4.700000e-01    5.141000e+00
   N6a   SQ5  1 4.300000e-01    6.586000e+00
   N6a   TQ5  1 3.950000e-01    9.257000e+00
   N5a    Q5  1 4.700000e-01    4.900000e+00
   N5a   SQ5  1 4.300000e-01    6.347000e+00
   N5a   TQ5  1 3.950000e-01    8.926000e+00
   N4a    Q5  1 4.700000e-01    4.887000e+00
   N4a   SQ5  1 4.300000e-01    6.299000e+00
   N4a   TQ5  1 3.950000e-01    8.815000e+00
   N3a    Q5  1 4.700000e-01    4.680000e+00
   N3a   SQ5  1 4.300000e-01    6.038000e+00
   N3a   TQ5  1 3.950000e-01    8.435000e+00
   N2a    Q5  1 4.700000e-01    4.658000e+00
   N2a   SQ5  1 4.300000e-01    5.957000e+00
   N2a   TQ5  1 3.950000e-01    8.247000e+00
   N1a    Q5  1 4.700000e-01    4.446000e+00
   N1a   SQ5  1 4.300000e-01    5.659000e+00
   N1a   TQ5  1 3.950000e-01    7.725000e+00
   C6v    Q5  1 4.700000e-01    3.754000e+00
   C6v   SQ5  1 4.300000e-01    4.649000e+00
   C6v   TQ5  1 3.950000e-01    6.456000e+00
   C5v    Q5  1 4.700000e-01    3.093000e+00
   C5v   SQ5  1 4.300000e-01    3.660000e+00
   C5v   TQ5  1 3.990000e-01    5.140000e+00
   C4v    Q5  1 4.700000e-01    2.852000e+00
   C4v   SQ5  1 4.300000e-01    3.238000e+00
   C4v   TQ5  1 4.010000e-01    4.419000e+00
   C3v    Q5  1 4.850000e-01    2.543000e+00
   C3v   SQ5  1 4.430000e-01    2.588000e+00
   C3v   TQ5  1 4.040000e-01    3.412000e+00
   C2v    Q5  1 5.700000e-01    2.192000e+00
   C2v   SQ5  1 5.140000e-01    1.821000e+00
   C2v   TQ5  1 5.110000e-01    2.179000e+00
   C1v    Q5  1 5.700000e-01    2.093000e+00
   C1v   SQ5  1 5.140000e-01    1.456000e+00
   C1v   TQ5  1 5.110000e-01    1.398000e+00
   X4v    Q5  1 4.700000e-01    3.613000e+00
   X4v   SQ5  1 4.300000e-01    4.517000e+00
   X4v   TQ5  1 3.950000e-01    6.445000e+00
   X3v    Q5  1 4.700000e-01    3.474000e+00
   X3v   SQ5  1 4.300000e-01    4.199000e+00
   X3v   TQ5  1 3.950000e-01    6.016000e+00
   X2v    Q5  1 4.700000e-01    3.236000e+00
   X2v   SQ5  1 4.300000e-01    3.791000e+00
   X2v   TQ5  1 3.980000e-01    5.194000e+00
   X1v    Q5  1 4.700000e-01    2.932000e+00
   X1v   SQ5  1 4.300000e-01    3.072000e+00
   X1v   TQ5  1 3.990000e-01    3.794000e+00
   C6e    Q5  1 4.700000e-01    3.754000e+00
   C6e   SQ5  1 4.300000e-01    4.649000e+00
   C6e   TQ5  1 3.950000e-01    6.456000e+00
   C5e    Q5  1 4.700000e-01    3.093000e+00
   C5e   SQ5  1 4.300000e-01    3.660000e+00
   C5e   TQ5  1 3.990000e-01    5.140000e+00
   C4e    Q5  1 4.700000e-01    2.852000e+00
   C4e   SQ5  1 4.300000e-01    3.238000e+00
   C4e   TQ5  1 4.010000e-01    4.419000e+00
   C3e    Q5  1 4.850000e-01    2.543000e+00
   C3e   SQ5  1 4.430000e-01    2.588000e+00
   C3e   TQ5  1 4.040000e-01    3.412000e+00
   C2e    Q5  1 5.700000e-01    2.192000e+00
   C2e   SQ5  1 5.140000e-01    1.821000e+00
   C2e   TQ5  1 5.110000e-01    2.179000e+00
   C1e    Q5  1 5.700000e-01    2.093000e+00
   C1e   SQ5  1 5.140000e-01    1.456000e+00
   C1e   TQ5  1 5.110000e-01    1.398000e+00
   X4e    Q5  1 4.700000e-01    3.613000e+00
   X4e   SQ5  1 4.300000e-01    4.517000e+00
   X4e   TQ5  1 3.950000e-01    6.445000e+00
   X3e    Q5  1 4.700000e-01    3.474000e+00
   X3e   SQ5  1 4.300000e-01    4.199000e+00
   X3e   TQ5  1 3.950000e-01    6.016000e+00
   X2e    Q5  1 4.700000e-01    3.236000e+00
   X2e   SQ5  1 4.300000e-01    3.791000e+00
   X2e   TQ5  1 3.980000e-01    5.194000e+00
   X1e    Q5  1 4.700000e-01    2.932000e+00
   X1e   SQ5  1 4.300000e-01    3.072000e+00
   X1e   TQ5  1 3.990000e-01    3.794000e+00
   P6q    Q5  1 4.700000e-01    6.536000e+00
   P6q   SQ5  1 4.300000e-01    8.237000e+00
   P6q   TQ5  1 3.950000e-01    1.157700e+01
   P5q    Q5  1 4.700000e-01    6.516000e+00
   P5q   SQ5  1 4.300000e-01    8.165000e+00
   P5q   TQ5  1 3.950000e-01    1.140900e+01
   P4q    Q5  1 4.700000e-01    6.493000e+00
   P4q   SQ5  1 4.300000e-01    8.079000e+00
   P4q   TQ5  1 3.950000e-01    1.121200e+01
   P3q    Q5  1 4.700000e-01    6.178000e+00
   P3q   SQ5  1 4.300000e-01    7.727000e+00
   P3q   TQ5  1 3.950000e-01    1.068900e+01
   P2q    Q5  1 4.700000e-01    6.168000e+00
   P2q   SQ5  1 4.300000e-01    7.689000e+00
   P2q   TQ5  1 3.950000e-01    1.060200e+01
   P1q    Q5  1 4.700000e-01    5.910000e+00
   P1q   SQ5  1 4.300000e-01    7.370000e+00
   P1q   TQ5  1 3.950000e-01    1.020500e+01
   N6q    Q5  1 4.700000e-01    5.901000e+00
   N6q   SQ5  1 4.300000e-01    7.336000e+00
   N6q   TQ5  1 3.950000e-01    1.012700e+01
   N5q    Q5  1 4.700000e-01    5.640000e+00
   N5q   SQ5  1 4.300000e-01    7.057000e+00
   N5q   TQ5  1 3.950000e-01    9.726000e+00
   N4q    Q5  1 4.700000e-01    5.627000e+00
   N4q   SQ5  1 4.300000e-01    7.009000e+00
   N4q   TQ5  1 3.950000e-01    9.615000e+00
   N3q    Q5  1 4.700000e-01    5.350000e+00
   N3q   SQ5  1 4.300000e-01    6.668000e+00
   N3q   TQ5  1 3.950000e-01    9.155000e+00
   N2q    Q5  1 4.700000e-01    5.328000e+00
   N2q   SQ5  1 4.300000e-01    6.587000e+00
   N2q   TQ5  1 3.950000e-01    8.967000e+00
   N1q    Q5  1 4.700000e-01    5.046000e+00
   N1q   SQ5  1 4.300000e-01    6.239000e+00
   N1q   TQ5  1 3.950000e-01    8.455000e+00
   C6q    Q5  1 4.700000e-01    4.034000e+00
   C6q   SQ5  1 4.300000e-01    5.039000e+00
   C6q   TQ5  1 3.950000e-01    6.846000e+00
   C5q    Q5  1 4.700000e-01    3.433000e+00
   C5q   SQ5  1 4.300000e-01    4.050000e+00
   C5q   TQ5  1 3.950000e-01    5.670000e+00
   C4q    Q5  1 4.700000e-01    3.202000e+00
   C4q   SQ5  1 4.300000e-01    3.668000e+00
   C4q   TQ5  1 3.980000e-01    4.912000e+00
   C3q    Q5  1 4.700000e-01    2.932000e+00
   C3q   SQ5  1 4.300000e-01    3.072000e+00
   C3q   TQ5  1 3.990000e-01    3.794000e+00
   C2q    Q5  1 4.850000e-01    2.465000e+00
   C2q   SQ5  1 4.430000e-01    2.305000e+00
   C2q   TQ5  1 4.040000e-01    2.752000e+00
   C1q    Q5  1 4.850000e-01    2.350000e+00
   C1q   SQ5  1 4.430000e-01    1.882000e+00
   C1q   TQ5  1 4.040000e-01    1.765000e+00
   X4q    Q5  1 4.700000e-01    3.933000e+00
   X4q   SQ5  1 4.300000e-01    4.907000e+00
   X4q   TQ5  1 3.950000e-01    6.905000e+00
   X3q    Q5  1 4.700000e-01    3.754000e+00
   X3q   SQ5  1 4.300000e-01    4.649000e+00
   X3q   TQ5  1 3.950000e-01    6.456000e+00
   X2q    Q5  1 4.700000e-01    3.516000e+00
   X2q   SQ5  1 4.300000e-01    4.161000e+00
   X2q   TQ5  1 3.950000e-01    5.622000e+00
   X1q    Q5  1 4.700000e-01    3.272000e+00
   X1q   SQ5  1 4.300000e-01    3.462000e+00
   X1q   TQ5  1 3.950000e-01    4.311000e+00
  P6dq    Q5  1 4.700000e-01    6.536000e+00
  P6dq   SQ5  1 4.300000e-01    8.237000e+00
  P6dq   TQ5  1 3.950000e-01    1.157700e+01
  P5dq    Q5  1 4.700000e-01    6.516000e+00
  P5dq   SQ5  1 4.300000e-01    8.165000e+00
  P5dq   TQ5  1 3.950000e-01    1.140900e+01
  P4dq    Q5  1 4.700000e-01    6.493000e+00
  P4dq   SQ5  1 4.300000e-01    8.079000e+00
  P4dq   TQ5  1 3.950000e-01    1.121200e+01
  P3dq    Q5  1 4.700000e-01    6.178000e+00
  P3dq   SQ5  1 4.300000e-01    7.727000e+00
  P3dq   TQ5  1 3.950000e-01    1.068900e+01
  P2dq    Q5  1 4.700000e-01    6.168000e+00
  P2dq   SQ5  1 4.300000e-01    7.689000e+00
  P2dq   TQ5  1 3.950000e-01    1.060200e+01
  P1dq    Q5  1 4.700000e-01    5.910000e+00
  P1dq   SQ5  1 4.300000e-01    7.370000e+00
  P1dq   TQ5  1 3.950000e-01    1.020500e+01
  N6dq    Q5  1 4.700000e-01    5.901000e+00
  N6dq   SQ5  1 4.300000e-01    7.336000e+00
  N6dq   TQ5  1 3.950000e-01    1.012700e+01
  N5dq    Q5  1 4.700000e-01    5.640000e+00
  N5dq   SQ5  1 4.300000e-01    7.057000e+00
  N5dq   TQ5  1 3.950000e-01    9.726000e+00
  N4dq    Q5  1 4.700000e-01    5.627000e+00
  N4dq   SQ5  1 4.300000e-01    7.009000e+00
  N4dq   TQ5  1 3.950000e-01    9.615000e+00
  N3dq    Q5  1 4.700000e-01    5.350000e+00
  N3dq   SQ5  1 4.300000e-01    6.668000e+00
  N3dq   TQ5  1 3.950000e-01    9.155000e+00
  N2dq    Q5  1 4.700000e-01    5.328000e+00
  N2dq   SQ5  1 4.300000e-01    6.587000e+00
  N2dq   TQ5  1 3.950000e-01    8.967000e+00
  N1dq    Q5  1 4.700000e-01    5.046000e+00
  N1dq   SQ5  1 4.300000e-01    6.239000e+00
  N1dq   TQ5  1 3.950000e-01    8.455000e+00
  P6aq    Q5  1 4.700000e-01    6.536000e+00
  P6aq   SQ5  1 4.300000e-01    8.237000e+00
  P6aq   TQ5  1 3.950000e-01    1.157700e+01
  P5aq    Q5  1 4.700000e-01    6.516000e+00
  P5aq   SQ5  1 4.300000e-01    8.165000e+00
  P5aq   TQ5  1 3.950000e-01    1.140900e+01
  P4aq    Q5  1 4.700000e-01    6.493000e+00
  P4aq   SQ5  1 4.300000e-01    8.079000e+00
  P4aq   TQ5  1 3.950000e-01    1.121200e+01
  P3aq    Q5  1 4.700000e-01    6.178000e+00
  P3aq   SQ5  1 4.300000e-01    7.727000e+00
  P3aq   TQ5  1 3.950000e-01    1.068900e+01
  P2aq    Q5  1 4.700000e-01    6.168000e+00
  P2aq   SQ5  1 4.300000e-01    7.689000e+00
  P2aq   TQ5  1 3.950000e-01    1.060200e+01
  P1aq    Q5  1 4.700000e-01    5.910000e+00
  P1aq   SQ5  1 4.300000e-01    7.370000e+00
  P1aq   TQ5  1 3.950000e-01    1.020500e+01
  N6aq    Q5  1 4.700000e-01    5.901000e+00
  N6aq   SQ5  1 4.300000e-01    7.336000e+00
  N6aq   TQ5  1 3.950000e-01    1.012700e+01
  N5aq    Q5  1 4.700000e-01    5.640000e+00
  N5aq   SQ5  1 4.300000e-01    7.057000e+00
  N5aq   TQ5  1 3.950000e-01    9.726000e+00
  N4aq    Q5  1 4.700000e-01    5.627000e+00
  N4aq   SQ5  1 4.300000e-01    7.009000e+00
  N4aq   TQ5  1 3.950000e-01    9.615000e+00
  N3aq    Q5  1 4.700000e-01    5.350000e+00
  N3aq   SQ5  1 4.300000e-01    6.668000e+00
  N3aq   TQ5  1 3.950000e-01    9.155000e+00
  N2aq    Q5  1 4.700000e-01    5.328000e+00
  N2aq   SQ5  1 4.300000e-01    6.587000e+00
  N2aq   TQ5  1 3.950000e-01    8.967000e+00
  N1aq    Q5  1 4.700000e-01    5.046000e+00
  N1aq   SQ5  1 4.300000e-01    6.239000e+00
  N1aq   TQ5  1 3.950000e-01    8.455000e+00
  C6vq    Q5  1 4.700000e-01    4.204000e+00
  C6vq   SQ5  1 4.300000e-01    5.259000e+00
  C6vq   TQ5  1 3.950000e-01    7.046000e+00
  C5vq    Q5  1 4.700000e-01    3.543000e+00
  C5vq   SQ5  1 4.300000e-01    4.260000e+00
  C5vq   TQ5  1 3.950000e-01    5.850000e+00
  C4vq    Q5  1 4.700000e-01    3.372000e+00
  C4vq   SQ5  1 4.300000e-01    3.828000e+00
  C4vq   TQ5  1 3.950000e-01    5.158000e+00
  C3vq    Q5  1 4.700000e-01    3.102000e+00
  C3vq   SQ5  1 4.300000e-01    3.302000e+00
  C3vq   TQ5  1 3.980000e-01    4.071000e+00
  C2vq    Q5  1 4.700000e-01    2.672000e+00
  C2vq   SQ5  1 4.300000e-01    2.580000e+00
  C2vq   TQ5  1 4.010000e-01    2.920000e+00
  C1vq    Q5  1 4.700000e-01    2.553000e+00
  C1vq   SQ5  1 4.300000e-01    2.144000e+00
  C1vq   TQ5  1 4.010000e-01    1.925000e+00
  X4vq    Q5  1 4.700000e-01    4.063000e+00
  X4vq   SQ5  1 4.300000e-01    5.147000e+00
  X4vq   TQ5  1 3.950000e-01    7.095000e+00
  X3vq    Q5  1 4.700000e-01    3.904000e+00
  X3vq   SQ5  1 4.300000e-01    4.799000e+00
  X3vq   TQ5  1 3.950000e-01    6.656000e+00
  X2vq    Q5  1 4.700000e-01    3.686000e+00
  X2vq   SQ5  1 4.300000e-01    4.401000e+00
  X2vq   TQ5  1 3.950000e-01    5.882000e+00
  X1vq    Q5  1 4.700000e-01    3.382000e+00
  X1vq   SQ5  1 4.300000e-01    3.672000e+00
  X1vq   TQ5  1 3.950000e-01    4.491000e+00
  C6eq    Q5  1 4.700000e-01    4.204000e+00
  C6eq   SQ5  1 4.300000e-01    5.259000e+00
  C6eq   TQ5  1 3.950000e-01    7.046000e+00
  C5eq    Q5  1 4.700000e-01    3.543000e+00
  C5eq   SQ5  1 4.300000e-01    4.260000e+00
  C5eq   TQ5  1 3.950000e-01    5.850000e+00
  C4eq    Q5  1 4.700000e-01    3.372000e+00
  C4eq   SQ5  1 4.300000e-01    3.828000e+00
  C4eq   TQ5  1 3.950000e-01    5.158000e+00
  C3eq    Q5  1 4.700000e-01    3.102000e+00
  C3eq   SQ5  1 4.300000e-01    3.302000e+00
  C3eq   TQ5  1 3.980000e-01    4.071000e+00
  C2eq    Q5  1 4.700000e-01    2.672000e+00
  C2eq   SQ5  1 4.300000e-01    2.580000e+00
  C2eq   TQ5  1 4.010000e-01    2.920000e+00
  C1eq    Q5  1 4.700000e-01    2.553000e+00
  C1eq   SQ5  1 4.300000e-01    2.144000e+00
  C1eq   TQ5  1 4.010000e-01    1.925000e+00
  X4eq    Q5  1 4.700000e-01    4.063000e+00
  X4eq   SQ5  1 4.300000e-01    5.147000e+00
  X4eq   TQ5  1 3.950000e-01    7.095000e+00
  X3eq    Q5  1 4.700000e-01    3.904000e+00
  X3eq   SQ5  1 4.300000e-01    4.799000e+00
  X3eq   TQ5  1 3.950000e-01    6.656000e+00
  X2eq    Q5  1 4.700000e-01    3.686000e+00
  X2eq   SQ5  1 4.300000e-01    4.401000e+00
  X2eq   TQ5  1 3.950000e-01    5.882000e+00
  X1eq    Q5  1 4.700000e-01    3.382000e+00
  X1eq   SQ5  1 4.300000e-01    3.672000e+00
  X1eq   TQ5  1 3.950000e-01    4.491000e+00
   P6h    Q5  1 4.700000e-01    5.986000e+00
   P6h   SQ5  1 4.300000e-01    7.647000e+00
   P6h   TQ5  1 3.950000e-01    1.084700e+01
   P5h    Q5  1 4.700000e-01    5.716000e+00
   P5h   SQ5  1 4.300000e-01    7.335000e+00
   P5h   TQ5  1 3.950000e-01    1.036900e+01
   P4h    Q5  1 4.700000e-01    5.693000e+00
   P4h   SQ5  1 4.300000e-01    7.249000e+00
   P4h   TQ5  1 3.950000e-01    1.017200e+01
   P3h    Q5  1 4.700000e-01    5.418000e+00
   P3h   SQ5  1 4.300000e-01    6.917000e+00
   P3h   TQ5  1 3.950000e-01    9.729000e+00
   P2h    Q5  1 4.700000e-01    5.408000e+00
   P2h   SQ5  1 4.300000e-01    6.879000e+00
   P2h   TQ5  1 3.950000e-01    9.642000e+00
   P1h    Q5  1 4.700000e-01    5.150000e+00
   P1h   SQ5  1 4.300000e-01    6.620000e+00
   P1h   TQ5  1 3.950000e-01    9.335000e+00
   N6h    Q5  1 4.700000e-01    5.141000e+00
   N6h   SQ5  1 4.300000e-01    6.586000e+00
   N6h   TQ5  1 3.950000e-01    9.257000e+00
   N5h    Q5  1 4.700000e-01    4.900000e+00
   N5h   SQ5  1 4.300000e-01    6.347000e+00
   N5h   TQ5  1 3.950000e-01    8.926000e+00
   N4h    Q5  1 4.700000e-01    4.887000e+00
   N4h   SQ5  1 4.300000e-01    6.299000e+00
   N4h   TQ5  1 3.950000e-01    8.815000e+00
   N3h    Q5  1 4.700000e-01    4.680000e+00
   N3h   SQ5  1 4.300000e-01    6.038000e+00
   N3h   TQ5  1 3.950000e-01    8.435000e+00
   N2h    Q5  1 4.700000e-01    4.658000e+00
   N2h   SQ5  1 4.300000e-01    5.957000e+00
   N2h   TQ5  1 3.950000e-01    8.247000e+00
   N1h    Q5  1 4.700000e-01    4.446000e+00
   N1h   SQ5  1 4.300000e-01    5.659000e+00
   N1h   TQ5  1 3.950000e-01    7.725000e+00
   C6h    Q5  1 4.700000e-01    3.584000e+00
   C6h   SQ5  1 4.300000e-01    4.409000e+00
   C6h   TQ5  1 3.950000e-01    6.196000e+00
   C5h    Q5  1 4.700000e-01    2.913000e+00
   C5h   SQ5  1 4.300000e-01    3.460000e+00
   C5h   TQ5  1 4.010000e-01    4.924000e+00
   C4h    Q5  1 4.850000e-01    2.640000e+00
   C4h   SQ5  1 4.430000e-01    2.944000e+00
   C4h   TQ5  1 4.040000e-01    4.240000e+00
   C3h    Q5  1 5.200000e-01    2.402000e+00
   C3h   SQ5  1 4.730000e-01    2.318000e+00
   C3h   TQ5  1 4.650000e-01    2.946000e+00
   C2h    Q5  1 6.200000e-01    2.136000e+00
   C2h   SQ5  1 5.520000e-01    1.672000e+00
   C2h   TQ5  1 5.240000e-01    2.111000e+00
   C1h    Q5  1 6.200000e-01    2.046000e+00
   C1h   SQ5  1 5.520000e-01    1.332000e+00
   C1h   TQ5  1 5.240000e-01    1.350000e+00
   X4h    Q5  1 4.700000e-01    3.503000e+00
   X4h   SQ5  1 4.300000e-01    4.307000e+00
   X4h   TQ5  1 3.950000e-01    6.265000e+00
   X3h    Q5  1 4.700000e-01    3.304000e+00
   X3h   SQ5  1 4.300000e-01    4.039000e+00
   X3h   TQ5  1 3.980000e-01    5.763000e+00
   X2h    Q5  1 4.700000e-01    3.066000e+00
   X2h   SQ5  1 4.300000e-01    3.561000e+00
   X2h   TQ5  1 3.990000e-01    4.914000e+00
   X1h    Q5  1 4.700000e-01    2.752000e+00
   X1h   SQ5  1 4.300000e-01    2.872000e+00
   X1h   TQ5  1 4.010000e-01    3.584000e+00
  P6dh    Q5  1 4.700000e-01    5.986000e+00
  P6dh   SQ5  1 4.300000e-01    7.647000e+00
  P6dh   TQ5  1 3.950000e-01    1.084700e+01
  P5dh    Q5  1 4.700000e-01    5.716000e+00
  P5dh   SQ5  1 4.300000e-01    7.335000e+00
  P5dh   TQ5  1 3.950000e-01    1.036900e+01
  P4dh    Q5  1 4.700000e-01    5.693000e+00
  P4dh   SQ5  1 4.300000e-01    7.249000e+00
  P4dh   TQ5  1 3.950000e-01    1.017200e+01
  P3dh    Q5  1 4.700000e-01    5.418000e+00
  P3dh   SQ5  1 4.300000e-01    6.917000e+00
  P3dh   TQ5  1 3.950000e-01    9.729000e+00
  P2dh    Q5  1 4.700000e-01    5.408000e+00
  P2dh   SQ5  1 4.300000e-01    6.879000e+00
  P2dh   TQ5  1 3.950000e-01    9.642000e+00
  P1dh    Q5  1 4.700000e-01    5.150000e+00
  P1dh   SQ5  1 4.300000e-01    6.620000e+00
  P1dh   TQ5  1 3.950000e-01    9.335000e+00
  N6dh    Q5  1 4.700000e-01    5.141000e+00
  N6dh   SQ5  1 4.300000e-01    6.586000e+00
  N6dh   TQ5  1 3.950000e-01    9.257000e+00
  N5dh    Q5  1 4.700000e-01    4.900000e+00
  N5dh   SQ5  1 4.300000e-01    6.347000e+00
  N5dh   TQ5  1 3.950000e-01    8.926000e+00
  N4dh    Q5  1 4.700000e-01    4.887000e+00
  N4dh   SQ5  1 4.300000e-01    6.299000e+00
  N4dh   TQ5  1 3.950000e-01    8.815000e+00
  N3dh    Q5  1 4.700000e-01    4.680000e+00
  N3dh   SQ5  1 4.300000e-01    6.038000e+00
  N3dh   TQ5  1 3.950000e-01    8.435000e+00
  N2dh    Q5  1 4.700000e-01    4.658000e+00
  N2dh   SQ5  1 4.300000e-01    5.957000e+00
  N2dh   TQ5  1 3.950000e-01    8.247000e+00
  N1dh    Q5  1 4.700000e-01    4.446000e+00
  N1dh   SQ5  1 4.300000e-01    5.659000e+00
  N1dh   TQ5  1 3.950000e-01    7.725000e+00
  P6ah    Q5  1 4.700000e-01    5.986000e+00
  P6ah   SQ5  1 4.300000e-01    7.647000e+00
  P6ah   TQ5  1 3.950000e-01    1.084700e+01
  P5ah    Q5  1 4.700000e-01    5.716000e+00
  P5ah   SQ5  1 4.300000e-01    7.335000e+00
  P5ah   TQ5  1 3.950000e-01    1.036900e+01
  P4ah    Q5  1 4.700000e-01    5.693000e+00
  P4ah   SQ5  1 4.300000e-01    7.249000e+00
  P4ah   TQ5  1 3.950000e-01    1.017200e+01
  P3ah    Q5  1 4.700000e-01    5.418000e+00
  P3ah   SQ5  1 4.300000e-01    6.917000e+00
  P3ah   TQ5  1 3.950000e-01    9.729000e+00
  P2ah    Q5  1 4.700000e-01    5.408000e+00
  P2ah   SQ5  1 4.300000e-01    6.879000e+00
  P2ah   TQ5  1 3.950000e-01    9.642000e+00
  P1ah    Q5  1 4.700000e-01    5.150000e+00
  P1ah   SQ5  1 4.300000e-01    6.620000e+00
  P1ah   TQ5  1 3.950000e-01    9.335000e+00
  N6ah    Q5  1 4.700000e-01    5.141000e+00
  N6ah   SQ5  1 4.300000e-01    6.586000e+00
  N6ah   TQ5  1 3.950000e-01    9.257000e+00
  N5ah    Q5  1 4.700000e-01    4.900000e+00
  N5ah   SQ5  1 4.300000e-01    6.347000e+00
  N5ah   TQ5  1 3.950000e-01    8.926000e+00
  N4ah    Q5  1 4.700000e-01    4.887000e+00
  N4ah   SQ5  1 4.300000e-01    6.299000e+00
  N4ah   TQ5  1 3.950000e-01    8.815000e+00
  N3ah    Q5  1 4.700000e-01    4.680000e+00
  N3ah   SQ5  1 4.300000e-01    6.038000e+00
  N3ah   TQ5  1 3.950000e-01    8.435000e+00
  N2ah    Q5  1 4.700000e-01    4.658000e+00
  N2ah   SQ5  1 4.300000e-01    5.957000e+00
  N2ah   TQ5  1 3.950000e-01    8.247000e+00
  N1ah    Q5  1 4.700000e-01    4.446000e+00
  N1ah   SQ5  1 4.300000e-01    5.659000e+00
  N1ah   TQ5  1 3.950000e-01    7.725000e+00
  C6vh    Q5  1 4.700000e-01    3.754000e+00
  C6vh   SQ5  1 4.300000e-01    4.649000e+00
  C6vh   TQ5  1 3.950000e-01    6.456000e+00
  C5vh    Q5  1 4.700000e-01    3.093000e+00
  C5vh   SQ5  1 4.300000e-01    3.660000e+00
  C5vh   TQ5  1 3.990000e-01    5.140000e+00
  C4vh    Q5  1 4.700000e-01    2.852000e+00
  C4vh   SQ5  1 4.300000e-01    3.238000e+00
  C4vh   TQ5  1 4.010000e-01    4.419000e+00
  C3vh    Q5  1 4.850000e-01    2.543000e+00
  C3vh   SQ5  1 4.430000e-01    2.588000e+00
  C3vh   TQ5  1 4.040000e-01    3.412000e+00
  C2vh    Q5  1 5.700000e-01    2.192000e+00
  C2vh   SQ5  1 5.140000e-01    1.821000e+00
  C2vh   TQ5  1 5.110000e-01    2.179000e+00
  C1vh    Q5  1 5.700000e-01    2.093000e+00
  C1vh   SQ5  1 5.140000e-01    1.456000e+00
  C1vh   TQ5  1 5.110000e-01    1.398000e+00
  X4vh    Q5  1 4.700000e-01    3.613000e+00
  X4vh   SQ5  1 4.300000e-01    4.517000e+00
  X4vh   TQ5  1 3.950000e-01    6.445000e+00
  X3vh    Q5  1 4.700000e-01    3.474000e+00
  X3vh   SQ5  1 4.300000e-01    4.199000e+00
  X3vh   TQ5  1 3.950000e-01    6.016000e+00
  X2vh    Q5  1 4.700000e-01    3.236000e+00
  X2vh   SQ5  1 4.300000e-01    3.791000e+00
  X2vh   TQ5  1 3.980000e-01    5.194000e+00
  X1vh    Q5  1 4.700000e-01    2.932000e+00
  X1vh   SQ5  1 4.300000e-01    3.072000e+00
  X1vh   TQ5  1 3.990000e-01    3.794000e+00
  C6eh    Q5  1 4.700000e-01    3.754000e+00
  C6eh   SQ5  1 4.300000e-01    4.649000e+00
  C6eh   TQ5  1 3.950000e-01    6.456000e+00
  C5eh    Q5  1 4.700000e-01    3.093000e+00
  C5eh   SQ5  1 4.300000e-01    3.660000e+00
  C5eh   TQ5  1 3.990000e-01    5.140000e+00
  C4eh    Q5  1 4.700000e-01    2.852000e+00
  C4eh   SQ5  1 4.300000e-01    3.238000e+00
  C4eh   TQ5  1 4.010000e-01    4.419000e+00
  C3eh    Q5  1 4.850000e-01    2.543000e+00
  C3eh   SQ5  1 4.430000e-01    2.588000e+00
  C3eh   TQ5  1 4.040000e-01    3.412000e+00
  C2eh    Q5  1 5.700000e-01    2.192000e+00
  C2eh   SQ5  1 5.140000e-01    1.821000e+00
  C2eh   TQ5  1 5.110000e-01    2.179000e+00
  C1eh    Q5  1 5.700000e-01    2.093000e+00
  C1eh   SQ5  1 5.140000e-01    1.456000e+00
  C1eh   TQ5  1 5.110000e-01    1.398000e+00
  X4eh    Q5  1 4.700000e-01    3.613000e+00
  X4eh   SQ5  1 4.300000e-01    4.517000e+00
  X4eh   TQ5  1 3.950000e-01    6.445000e+00
  X3eh    Q5  1 4.700000e-01    3.474000e+00
  X3eh   SQ5  1 4.300000e-01    4.199000e+00
  X3eh   TQ5  1 3.950000e-01    6.016000e+00
  X2eh    Q5  1 4.700000e-01    3.236000e+00
  X2eh   SQ5  1 4.300000e-01    3.791000e+00
  X2eh   TQ5  1 3.980000e-01    5.194000e+00
  X1eh    Q5  1 4.700000e-01    2.932000e+00
  X1eh   SQ5  1 4.300000e-01    3.072000e+00
  X1eh   TQ5  1 3.990000e-01    3.794000e+00
   P6r    Q5  1 4.700000e-01    5.986000e+00
   P6r   SQ5  1 4.300000e-01    7.647000e+00
   P6r   TQ5  1 3.950000e-01    1.084700e+01
   P5r    Q5  1 4.700000e-01    5.716000e+00
   P5r   SQ5  1 4.300000e-01    7.335000e+00
   P5r   TQ5  1 3.950000e-01    1.036900e+01
   P4r    Q5  1 4.700000e-01    5.693000e+00
   P4r   SQ5  1 4.300000e-01    7.249000e+00
   P4r   TQ5  1 3.950000e-01    1.017200e+01
   P3r    Q5  1 4.700000e-01    5.418000e+00
   P3r   SQ5  1 4.300000e-01    6.917000e+00
   P3r   TQ5  1 3.950000e-01    9.729000e+00
   P2r    Q5  1 4.700000e-01    5.408000e+00
   P2r   SQ5  1 4.300000e-01    6.879000e+00
   P2r   TQ5  1 3.950000e-01    9.642000e+00
   P1r    Q5  1 4.700000e-01    5.150000e+00
   P1r   SQ5  1 4.300000e-01    6.620000e+00
   P1r   TQ5  1 3.950000e-01    9.335000e+00
   N6r    Q5  1 4.700000e-01    5.141000e+00
   N6r   SQ5  1 4.300000e-01    6.586000e+00
   N6r   TQ5  1 3.950000e-01    9.257000e+00
   N5r    Q5  1 4.700000e-01    4.900000e+00
   N5r   SQ5  1 4.300000e-01    6.347000e+00
   N5r   TQ5  1 3.950000e-01    8.926000e+00
   N4r    Q5  1 4.700000e-01    4.887000e+00
   N4r   SQ5  1 4.300000e-01    6.299000e+00
   N4r   TQ5  1 3.950000e-01    8.815000e+00
   N3r    Q5  1 4.700000e-01    4.680000e+00
   N3r   SQ5  1 4.300000e-01    6.038000e+00
   N3r   TQ5  1 3.950000e-01    8.435000e+00
   N2r    Q5  1 4.700000e-01    4.658000e+00
   N2r   SQ5  1 4.300000e-01    5.957000e+00
   N2r   TQ5  1 3.950000e-01    8.247000e+00
   N1r    Q5  1 4.700000e-01    4.446000e+00
   N1r   SQ5  1 4.300000e-01    5.659000e+00
   N1r   TQ5  1 3.950000e-01    7.725000e+00
   C6r    Q5  1 4.700000e-01    3.584000e+00
   C6r   SQ5  1 4.300000e-01    4.409000e+00
   C6r   TQ5  1 3.950000e-01    6.196000e+00
   C5r    Q5  1 4.700000e-01    2.913000e+00
   C5r   SQ5  1 4.300000e-01    3.460000e+00
   C5r   TQ5  1 4.010000e-01    4.924000e+00
   C4r    Q5  1 4.850000e-01    2.640000e+00
   C4r   SQ5  1 4.430000e-01    2.944000e+00
   C4r   TQ5  1 4.040000e-01    4.240000e+00
   C3r    Q5  1 5.200000e-01    2.402000e+00
   C3r   SQ5  1 4.730000e-01    2.318000e+00
   C3r   TQ5  1 4.650000e-01    2.946000e+00
   C2r    Q5  1 6.200000e-01    2.136000e+00
   C2r   SQ5  1 5.520000e-01    1.672000e+00
   C2r   TQ5  1 5.240000e-01    2.111000e+00
   C1r    Q5  1 6.200000e-01    2.046000e+00
   C1r   SQ5  1 5.520000e-01    1.332000e+00
   C1r   TQ5  1 5.240000e-01    1.350000e+00
   X4r    Q5  1 4.700000e-01    3.503000e+00
   X4r   SQ5  1 4.300000e-01    4.307000e+00
   X4r   TQ5  1 3.950000e-01    6.265000e+00
   X3r    Q5  1 4.700000e-01    3.304000e+00
   X3r   SQ5  1 4.300000e-01    4.039000e+00
   X3r   TQ5  1 3.980000e-01    5.763000e+00
   X2r    Q5  1 4.700000e-01    3.066000e+00
   X2r   SQ5  1 4.300000e-01    3.561000e+00
   X2r   TQ5  1 3.990000e-01    4.914000e+00
   X1r    Q5  1 4.700000e-01    2.752000e+00
   X1r   SQ5  1 4.300000e-01    2.872000e+00
   X1r   TQ5  1 4.010000e-01    3.584000e+00
  P6dr    Q5  1 4.700000e-01    5.986000e+00
  P6dr   SQ5  1 4.300000e-01    7.647000e+00
  P6dr   TQ5  1 3.950000e-01    1.084700e+01
  P5dr    Q5  1 4.700000e-01    5.716000e+00
  P5dr   SQ5  1 4.300000e-01    7.335000e+00
  P5dr   TQ5  1 3.950000e-01    1.036900e+01
  P4dr    Q5  1 4.700000e-01    5.693000e+00
  P4dr   SQ5  1 4.300000e-01    7.249000e+00
  P4dr   TQ5  1 3.950000e-01    1.017200e+01
  P3dr    Q5  1 4.700000e-01    5.418000e+00
  P3dr   SQ5  1 4.300000e-01    6.917000e+00
  P3dr   TQ5  1 3.950000e-01    9.729000e+00
  P2dr    Q5  1 4.700000e-01    5.408000e+00
  P2dr   SQ5  1 4.300000e-01    6.879000e+00
  P2dr   TQ5  1 3.950000e-01    9.642000e+00
  P1dr    Q5  1 4.700000e-01    5.150000e+00
  P1dr   SQ5  1 4.300000e-01    6.620000e+00
  P1dr   TQ5  1 3.950000e-01    9.335000e+00
  N6dr    Q5  1 4.700000e-01    5.141000e+00
  N6dr   SQ5  1 4.300000e-01    6.586000e+00
  N6dr   TQ5  1 3.950000e-01    9.257000e+00
  N5dr    Q5  1 4.700000e-01    4.900000e+00
  N5dr   SQ5  1 4.300000e-01    6.347000e+00
  N5dr   TQ5  1 3.950000e-01    8.926000e+00
  N4dr    Q5  1 4.700000e-01    4.887000e+00
  N4dr   SQ5  1 4.300000e-01    6.299000e+00
  N4dr   TQ5  1 3.950000e-01    8.815000e+00
  N3dr    Q5  1 4.700000e-01    4.680000e+00
  N3dr   SQ5  1 4.300000e-01    6.038000e+00
  N3dr   TQ5  1 3.950000e-01    8.435000e+00
  N2dr    Q5  1 4.700000e-01    4.658000e+00
  N2dr   SQ5  1 4.300000e-01    5.957000e+00
  N2dr   TQ5  1 3.950000e-01    8.247000e+00
  N1dr    Q5  1 4.700000e-01    4.446000e+00
  N1dr   SQ5  1 4.300000e-01    5.659000e+00
  N1dr   TQ5  1 3.950000e-01    7.725000e+00
  P6ar    Q5  1 4.700000e-01    5.986000e+00
  P6ar   SQ5  1 4.300000e-01    7.647000e+00
  P6ar   TQ5  1 3.950000e-01    1.084700e+01
  P5ar    Q5  1 4.700000e-01    5.716000e+00
  P5ar   SQ5  1 4.300000e-01    7.335000e+00
  P5ar   TQ5  1 3.950000e-01    1.036900e+01
  P4ar    Q5  1 4.700000e-01    5.693000e+00
  P4ar   SQ5  1 4.300000e-01    7.249000e+00
  P4ar   TQ5  1 3.950000e-01    1.017200e+01
  P3ar    Q5  1 4.700000e-01    5.418000e+00
  P3ar   SQ5  1 4.300000e-01    6.917000e+00
  P3ar   TQ5  1 3.950000e-01    9.729000e+00
  P2ar    Q5  1 4.700000e-01    5.408000e+00
  P2ar   SQ5  1 4.300000e-01    6.879000e+00
  P2ar   TQ5  1 3.950000e-01    9.642000e+00
  P1ar    Q5  1 4.700000e-01    5.150000e+00
  P1ar   SQ5  1 4.300000e-01    6.620000e+00
  P1ar   TQ5  1 3.950000e-01    9.335000e+00
  N6ar    Q5  1 4.700000e-01    5.141000e+00
  N6ar   SQ5  1 4.300000e-01    6.586000e+00
  N6ar   TQ5  1 3.950000e-01    9.257000e+00
  N5ar    Q5  1 4.700000e-01    4.900000e+00
  N5ar   SQ5  1 4.300000e-01    6.347000e+00
  N5ar   TQ5  1 3.950000e-01    8.926000e+00
  N4ar    Q5  1 4.700000e-01    4.887000e+00
  N4ar   SQ5  1 4.300000e-01    6.299000e+00
  N4ar   TQ5  1 3.950000e-01    8.815000e+00
  N3ar    Q5  1 4.700000e-01    4.680000e+00
  N3ar   SQ5  1 4.300000e-01    6.038000e+00
  N3ar   TQ5  1 3.950000e-01    8.435000e+00
  N2ar    Q5  1 4.700000e-01    4.658000e+00
  N2ar   SQ5  1 4.300000e-01    5.957000e+00
  N2ar   TQ5  1 3.950000e-01    8.247000e+00
  N1ar    Q5  1 4.700000e-01    4.446000e+00
  N1ar   SQ5  1 4.300000e-01    5.659000e+00
  N1ar   TQ5  1 3.950000e-01    7.725000e+00
  C6vr    Q5  1 4.700000e-01    3.754000e+00
  C6vr   SQ5  1 4.300000e-01    4.649000e+00
  C6vr   TQ5  1 3.950000e-01    6.456000e+00
  C5vr    Q5  1 4.700000e-01    3.093000e+00
  C5vr   SQ5  1 4.300000e-01    3.660000e+00
  C5vr   TQ5  1 3.990000e-01    5.140000e+00
  C4vr    Q5  1 4.700000e-01    2.852000e+00
  C4vr   SQ5  1 4.300000e-01    3.238000e+00
  C4vr   TQ5  1 4.010000e-01    4.419000e+00
  C3vr    Q5  1 4.850000e-01    2.543000e+00
  C3vr   SQ5  1 4.430000e-01    2.588000e+00
  C3vr   TQ5  1 4.040000e-01    3.412000e+00
  C2vr    Q5  1 5.700000e-01    2.192000e+00
  C2vr   SQ5  1 5.140000e-01    1.821000e+00
  C2vr   TQ5  1 5.110000e-01    2.179000e+00
  C1vr    Q5  1 5.700000e-01    2.093000e+00
  C1vr   SQ5  1 5.140000e-01    1.456000e+00
  C1vr   TQ5  1 5.110000e-01    1.398000e+00
  X4vr    Q5  1 4.700000e-01    3.613000e+00
  X4vr   SQ5  1 4.300000e-01    4.517000e+00
  X4vr   TQ5  1 3.950000e-01    6.445000e+00
  X3vr    Q5  1 4.700000e-01    3.474000e+00
  X3vr   SQ5  1 4.300000e-01    4.199000e+00
  X3vr   TQ5  1 3.950000e-01    6.016000e+00
  X2vr    Q5  1 4.700000e-01    3.236000e+00
  X2vr   SQ5  1 4.300000e-01    3.791000e+00
  X2vr   TQ5  1 3.980000e-01    5.194000e+00
  X1vr    Q5  1 4.700000e-01    2.932000e+00
  X1vr   SQ5  1 4.300000e-01    3.072000e+00
  X1vr   TQ5  1 3.990000e-01    3.794000e+00
  C6er    Q5  1 4.700000e-01    3.754000e+00
  C6er   SQ5  1 4.300000e-01    4.649000e+00
  C6er   TQ5  1 3.950000e-01    6.456000e+00
  C5er    Q5  1 4.700000e-01    3.093000e+00
  C5er   SQ5  1 4.300000e-01    3.660000e+00
  C5er   TQ5  1 3.990000e-01    5.140000e+00
  C4er    Q5  1 4.700000e-01    2.852000e+00
  C4er   SQ5  1 4.300000e-01    3.238000e+00
  C4er   TQ5  1 4.010000e-01    4.419000e+00
  C3er    Q5  1 4.850000e-01    2.543000e+00
  C3er   SQ5  1 4.430000e-01    2.588000e+00
  C3er   TQ5  1 4.040000e-01    3.412000e+00
  C2er    Q5  1 5.700000e-01    2.192000e+00
  C2er   SQ5  1 5.140000e-01    1.821000e+00
  C2er   TQ5  1 5.110000e-01    2.179000e+00
  C1er    Q5  1 5.700000e-01    2.093000e+00
  C1er   SQ5  1 5.140000e-01    1.456000e+00
  C1er   TQ5  1 5.110000e-01    1.398000e+00
  X4er    Q5  1 4.700000e-01    3.613000e+00
  X4er   SQ5  1 4.300000e-01    4.517000e+00
  X4er   TQ5  1 3.950000e-01    6.445000e+00
  X3er    Q5  1 4.700000e-01    3.474000e+00
  X3er   SQ5  1 4.300000e-01    4.199000e+00
  X3er   TQ5  1 3.950000e-01    6.016000e+00
  X2er    Q5  1 4.700000e-01    3.236000e+00
  X2er   SQ5  1 4.300000e-01    3.791000e+00
  X2er   TQ5  1 3.980000e-01    5.194000e+00
  X1er    Q5  1 4.700000e-01    2.932000e+00
  X1er   SQ5  1 4.300000e-01    3.072000e+00
  X1er   TQ5  1 3.990000e-01    3.794000e+00
   SP6    Q5  1 4.300000e-01    5.416000e+00
   SP6   SQ5  1 4.100000e-01    7.073000e+00
   SP6   TQ5  1 3.650000e-01    9.494000e+00
   SP5    Q5  1 4.300000e-01    5.161000e+00
   SP5   SQ5  1 4.100000e-01    6.733000e+00
   SP5   TQ5  1 3.650000e-01    9.037000e+00
   SP4    Q5  1 4.300000e-01    5.143000e+00
   SP4   SQ5  1 4.100000e-01    6.643000e+00
   SP4   TQ5  1 3.650000e-01    8.849000e+00
   SP3    Q5  1 4.300000e-01    4.852000e+00
   SP3   SQ5  1 4.100000e-01    6.339000e+00
   SP3   TQ5  1 3.650000e-01    8.446000e+00
   SP2    Q5  1 4.300000e-01    4.845000e+00
   SP2   SQ5  1 4.100000e-01    6.301000e+00
   SP2   TQ5  1 3.650000e-01    8.366000e+00
   SP1    Q5  1 4.300000e-01    4.609000e+00
   SP1   SQ5  1 4.100000e-01    6.052000e+00
   SP1   TQ5  1 3.650000e-01    8.036000e+00
   SN6    Q5  1 4.300000e-01    4.603000e+00
   SN6   SQ5  1 4.100000e-01    6.020000e+00
   SN6   TQ5  1 3.650000e-01    7.968000e+00
   SN5    Q5  1 4.300000e-01    4.395000e+00
   SN5   SQ5  1 4.100000e-01    5.712000e+00
   SN5   TQ5  1 3.650000e-01    7.619000e+00
   SN4    Q5  1 4.300000e-01    4.386000e+00
   SN4   SQ5  1 4.100000e-01    5.666000e+00
   SN4   TQ5  1 3.650000e-01    7.523000e+00
   SN3    Q5  1 4.300000e-01    4.175000e+00
   SN3   SQ5  1 4.100000e-01    5.369000e+00
   SN3   TQ5  1 3.650000e-01    7.133000e+00
   SN2    Q5  1 4.300000e-01    4.160000e+00
   SN2   SQ5  1 4.100000e-01    5.292000e+00
   SN2   TQ5  1 3.650000e-01    6.974000e+00
   SN1    Q5  1 4.300000e-01    3.959000e+00
   SN1   SQ5  1 4.100000e-01    4.943000e+00
   SN1   TQ5  1 3.650000e-01    6.486000e+00
   SC6    Q5  1 4.300000e-01    2.864000e+00
   SC6   SQ5  1 4.100000e-01    3.739000e+00
   SC6   TQ5  1 3.660000e-01    5.141000e+00
   SC5    Q5  1 4.300000e-01    2.037000e+00
   SC5   SQ5  1 4.180000e-01    2.932000e+00
   SC5   TQ5  1 4.090000e-01    3.994000e+00
   SC4    Q5  1 4.430000e-01    1.740000e+00
   SC4   SQ5  1 4.210000e-01    2.574000e+00
   SC4   TQ5  1 4.230000e-01    3.433000e+00
   SC3    Q5  1 4.730000e-01    1.463000e+00
   SC3   SQ5  1 4.530000e-01    2.078000e+00
   SC3   TQ5  1 4.840000e-01    2.506000e+00
   SC2    Q5  1 5.520000e-01    1.126000e+00
   SC2   SQ5  1 5.350000e-01    1.568000e+00
   SC2   TQ5  1 5.880000e-01    1.749000e+00
   SC1    Q5  1 5.520000e-01    1.066000e+00
   SC1   SQ5  1 5.350000e-01    1.264000e+00
   SC1   TQ5  1 5.880000e-01    1.233000e+00
   SX4    Q5  1 4.300000e-01    2.674000e+00
   SX4   SQ5  1 4.100000e-01    3.708000e+00
   SX4   TQ5  1 3.780000e-01    5.079000e+00
   SX3    Q5  1 4.300000e-01    2.494000e+00
   SX3   SQ5  1 4.100000e-01    3.449000e+00
   SX3   TQ5  1 3.940000e-01    4.580000e+00
   SX2    Q5  1 4.300000e-01    2.220000e+00
   SX2   SQ5  1 4.140000e-01    3.018000e+00
   SX2   TQ5  1 4.040000e-01    3.909000e+00
   SX1    Q5  1 4.300000e-01    1.932000e+00
   SX1   SQ5  1 4.180000e-01    2.406000e+00
   SX1   TQ5  1 4.090000e-01    2.993000e+00
  SP6d    Q5  1 4.300000e-01    5.416000e+00
  SP6d   SQ5  1 4.100000e-01    7.073000e+00
  SP6d   TQ5  1 3.650000e-01    9.494000e+00
  SP5d    Q5  1 4.300000e-01    5.161000e+00
  SP5d   SQ5  1 4.100000e-01    6.733000e+00
  SP5d   TQ5  1 3.650000e-01    9.037000e+00
  SP4d    Q5  1 4.300000e-01    5.143000e+00
  SP4d   SQ5  1 4.100000e-01    6.643000e+00
  SP4d   TQ5  1 3.650000e-01    8.849000e+00
  SP3d    Q5  1 4.300000e-01    4.852000e+00
  SP3d   SQ5  1 4.100000e-01    6.339000e+00
  SP3d   TQ5  1 3.650000e-01    8.446000e+00
  SP2d    Q5  1 4.300000e-01    4.845000e+00
  SP2d   SQ5  1 4.100000e-01    6.301000e+00
  SP2d   TQ5  1 3.650000e-01    8.366000e+00
  SP1d    Q5  1 4.300000e-01    4.609000e+00
  SP1d   SQ5  1 4.100000e-01    6.052000e+00
  SP1d   TQ5  1 3.650000e-01    8.036000e+00
  SN6d    Q5  1 4.300000e-01    4.603000e+00
  SN6d   SQ5  1 4.100000e-01    6.020000e+00
  SN6d   TQ5  1 3.650000e-01    7.968000e+00
  SN5d    Q5  1 4.300000e-01    4.395000e+00
  SN5d   SQ5  1 4.100000e-01    5.712000e+00
  SN5d   TQ5  1 3.650000e-01    7.619000e+00
  SN4d    Q5  1 4.300000e-01    4.386000e+00
  SN4d   SQ5  1 4.100000e-01    5.666000e+00
  SN4d   TQ5  1 3.650000e-01    7.523000e+00
  SN3d    Q5  1 4.300000e-01    4.175000e+00
  SN3d   SQ5  1 4.100000e-01    5.369000e+00
  SN3d   TQ5  1 3.650000e-01    7.133000e+00
  SN2d    Q5  1 4.300000e-01    4.160000e+00
  SN2d   SQ5  1 4.100000e-01    5.292000e+00
  SN2d   TQ5  1 3.650000e-01    6.974000e+00
  SN1d    Q5  1 4.300000e-01    3.959000e+00
  SN1d   SQ5  1 4.100000e-01    4.943000e+00
  SN1d   TQ5  1 3.650000e-01    6.486000e+00
  SP6a    Q5  1 4.300000e-01    5.416000e+00
  SP6a   SQ5  1 4.100000e-01    7.073000e+00
  SP6a   TQ5  1 3.650000e-01    9.494000e+00
  SP5a    Q5  1 4.300000e-01    5.161000e+00
  SP5a   SQ5  1 4.100000e-01    6.733000e+00
  SP5a   TQ5  1 3.650000e-01    9.037000e+00
  SP4a    Q5  1 4.300000e-01    5.143000e+00
  SP4a   SQ5  1 4.100000e-01    6.643000e+00
  SP4a   TQ5  1 3.650000e-01    8.849000e+00
  SP3a    Q5  1 4.300000e-01    4.852000e+00
  SP3a   SQ5  1 4.100000e-01    6.339000e+00
  SP3a   TQ5  1 3.650000e-01    8.446000e+00
  SP2a    Q5  1 4.300000e-01    4.845000e+00
  SP2a   SQ5  1 4.100000e-01    6.301000e+00
  SP2a   TQ5  1 3.650000e-01    8.366000e+00
  SP1a    Q5  1 4.300000e-01    4.609000e+00
  SP1a   SQ5  1 4.100000e-01    6.052000e+00
  SP1a   TQ5  1 3.650000e-01    8.036000e+00
  SN6a    Q5  1 4.300000e-01    4.603000e+00
  SN6a   SQ5  1 4.100000e-01    6.020000e+00
  SN6a   TQ5  1 3.650000e-01    7.968000e+00
  SN5a    Q5  1 4.300000e-01    4.395000e+00
  SN5a   SQ5  1 4.100000e-01    5.712000e+00
  SN5a   TQ5  1 3.650000e-01    7.619000e+00
  SN4a    Q5  1 4.300000e-01    4.386000e+00
  SN4a   SQ5  1 4.100000e-01    5.666000e+00
  SN4a   TQ5  1 3.650000e-01    7.523000e+00
  SN3a    Q5  1 4.300000e-01    4.175000e+00
  SN3a   SQ5  1 4.100000e-01    5.369000e+00
  SN3a   TQ5  1 3.650000e-01    7.133000e+00
  SN2a    Q5  1 4.300000e-01    4.160000e+00
  SN2a   SQ5  1 4.100000e-01    5.292000e+00
  SN2a   TQ5  1 3.650000e-01    6.974000e+00
  SN1a    Q5  1 4.300000e-01    3.959000e+00
  SN1a   SQ5  1 4.100000e-01    4.943000e+00
  SN1a   TQ5  1 3.650000e-01    6.486000e+00
  SC6v    Q5  1 4.300000e-01    3.104000e+00
  SC6v   SQ5  1 4.100000e-01    3.899000e+00
  SC6v   TQ5  1 3.650000e-01    5.301000e+00
  SC5v    Q5  1 4.300000e-01    2.237000e+00
  SC5v   SQ5  1 4.140000e-01    3.107000e+00
  SC5v   TQ5  1 4.040000e-01    4.080000e+00
  SC4v    Q5  1 4.300000e-01    1.997000e+00
  SC4v   SQ5  1 4.180000e-01    2.734000e+00
  SC4v   TQ5  1 4.090000e-01    3.616000e+00
  SC3v    Q5  1 4.430000e-01    1.676000e+00
  SC3v   SQ5  1 4.210000e-01    2.249000e+00
  SC3v   TQ5  1 4.230000e-01    2.831000e+00
  SC2v    Q5  1 5.140000e-01    1.235000e+00
  SC2v   SQ5  1 4.960000e-01    1.678000e+00
  SC2v   TQ5  1 5.370000e-01    1.887000e+00
  SC1v    Q5  1 5.140000e-01    1.170000e+00
  SC1v   SQ5  1 4.960000e-01    1.349000e+00
  SC1v   TQ5  1 5.370000e-01    1.323000e+00
  SX4v    Q5  1 4.300000e-01    2.884000e+00
  SX4v   SQ5  1 4.100000e-01    3.838000e+00
  SX4v   TQ5  1 3.660000e-01    5.348000e+00
  SX3v    Q5  1 4.300000e-01    2.654000e+00
  SX3v   SQ5  1 4.100000e-01    3.609000e+00
  SX3v   TQ5  1 3.780000e-01    4.879000e+00
  SX2v    Q5  1 4.300000e-01    2.450000e+00
  SX2v   SQ5  1 4.100000e-01    3.222000e+00
  SX2v   TQ5  1 3.940000e-01    4.140000e+00
  SX1v    Q5  1 4.300000e-01    2.132000e+00
  SX1v   SQ5  1 4.140000e-01    2.576000e+00
  SX1v   TQ5  1 4.040000e-01    3.067000e+00
  SC6e    Q5  1 4.300000e-01    3.104000e+00
  SC6e   SQ5  1 4.100000e-01    3.899000e+00
  SC6e   TQ5  1 3.650000e-01    5.301000e+00
  SC5e    Q5  1 4.300000e-01    2.237000e+00
  SC5e   SQ5  1 4.140000e-01    3.107000e+00
  SC5e   TQ5  1 4.040000e-01    4.080000e+00
  SC4e    Q5  1 4.300000e-01    1.997000e+00
  SC4e   SQ5  1 4.180000e-01    2.734000e+00
  SC4e   TQ5  1 4.090000e-01    3.616000e+00
  SC3e    Q5  1 4.430000e-01    1.676000e+00
  SC3e   SQ5  1 4.210000e-01    2.249000e+00
  SC3e   TQ5  1 4.230000e-01    2.831000e+00
  SC2e    Q5  1 5.140000e-01    1.235000e+00
  SC2e   SQ5  1 4.960000e-01    1.678000e+00
  SC2e   TQ5  1 5.370000e-01    1.887000e+00
  SC1e    Q5  1 5.140000e-01    1.170000e+00
  SC1e   SQ5  1 4.960000e-01    1.349000e+00
  SC1e   TQ5  1 5.370000e-01    1.323000e+00
  SX4e    Q5  1 4.300000e-01    2.884000e+00
  SX4e   SQ5  1 4.100000e-01    3.838000e+00
  SX4e   TQ5  1 3.660000e-01    5.348000e+00
  SX3e    Q5  1 4.300000e-01    2.654000e+00
  SX3e   SQ5  1 4.100000e-01    3.609000e+00
  SX3e   TQ5  1 3.780000e-01    4.879000e+00
  SX2e    Q5  1 4.300000e-01    2.450000e+00
  SX2e   SQ5  1 4.100000e-01    3.222000e+00
  SX2e   TQ5  1 3.940000e-01    4.140000e+00
  SX1e    Q5  1 4.300000e-01    2.132000e+00
  SX1e   SQ5  1 4.140000e-01    2.576000e+00
  SX1e   TQ5  1 4.040000e-01    3.067000e+00
  SP6q    Q5  1 4.300000e-01    6.006000e+00
  SP6q   SQ5  1 4.100000e-01    7.653000e+00
  SP6q   TQ5  1 3.650000e-01    1.013400e+01
  SP5q    Q5  1 4.300000e-01    5.991000e+00
  SP5q   SQ5  1 4.100000e-01    7.573000e+00
  SP5q   TQ5  1 3.650000e-01    9.967000e+00
  SP4q    Q5  1 4.300000e-01    5.973000e+00
  SP4q   SQ5  1 4.100000e-01    7.483000e+00
  SP4q   TQ5  1 3.650000e-01    9.779000e+00
  SP3q    Q5  1 4.300000e-01    5.662000e+00
  SP3q   SQ5  1 4.100000e-01    7.139000e+00
  SP3q   TQ5  1 3.650000e-01    9.316000e+00
  SP2q    Q5  1 4.300000e-01    5.655000e+00
  SP2q   SQ5  1 4.100000e-01    7.101000e+00
  SP2q   TQ5  1 3.650000e-01    9.236000e+00
  SP1q    Q5  1 4.300000e-01    5.359000e+00
  SP1q   SQ5  1 4.100000e-01    6.782000e+00
  SP1q   TQ5  1 3.650000e-01    8.886000e+00
  SN6q    Q5  1 4.300000e-01    5.353000e+00
  SN6q   SQ5  1 4.100000e-01    6.750000e+00
  SN6q   TQ5  1 3.650000e-01    8.818000e+00
  SN5q    Q5  1 4.300000e-01    5.105000e+00
  SN5q   SQ5  1 4.100000e-01    6.452000e+00
  SN5q   TQ5  1 3.650000e-01    8.449000e+00
  SN4q    Q5  1 4.300000e-01    5.096000e+00
  SN4q   SQ5  1 4.100000e-01    6.406000e+00
  SN4q   TQ5  1 3.650000e-01    8.353000e+00
  SN3q    Q5  1 4.300000e-01    4.805000e+00
  SN3q   SQ5  1 4.100000e-01    6.099000e+00
  SN3q   TQ5  1 3.650000e-01    7.943000e+00
  SN2q    Q5  1 4.300000e-01    4.790000e+00
  SN2q   SQ5  1 4.100000e-01    6.022000e+00
  SN2q   TQ5  1 3.650000e-01    7.784000e+00
  SN1q    Q5  1 4.300000e-01    4.539000e+00
  SN1q   SQ5  1 4.100000e-01    5.693000e+00
  SN1q   TQ5  1 3.650000e-01    7.286000e+00
  SC6q    Q5  1 4.300000e-01    3.494000e+00
  SC6q   SQ5  1 4.100000e-01    4.299000e+00
  SC6q   TQ5  1 3.650000e-01    5.661000e+00
  SC5q    Q5  1 4.300000e-01    2.627000e+00
  SC5q   SQ5  1 4.100000e-01    3.472000e+00
  SC5q   TQ5  1 3.780000e-01    4.603000e+00
  SC4q    Q5  1 4.300000e-01    2.427000e+00
  SC4q   SQ5  1 4.100000e-01    3.110000e+00
  SC4q   TQ5  1 3.940000e-01    3.923000e+00
  SC3q    Q5  1 4.300000e-01    2.132000e+00
  SC3q   SQ5  1 4.140000e-01    2.576000e+00
  SC3q   TQ5  1 4.040000e-01    3.067000e+00
  SC2q    Q5  1 4.430000e-01    1.625000e+00
  SC2q   SQ5  1 4.210000e-01    1.990000e+00
  SC2q   TQ5  1 4.230000e-01    2.351000e+00
  SC1q    Q5  1 4.430000e-01    1.549000e+00
  SC1q   SQ5  1 4.210000e-01    1.603000e+00
  SC1q   TQ5  1 4.230000e-01    1.634000e+00
  SX4q    Q5  1 4.300000e-01    3.274000e+00
  SX4q   SQ5  1 4.100000e-01    4.148000e+00
  SX4q   TQ5  1 3.650000e-01    5.668000e+00
  SX3q    Q5  1 4.300000e-01    3.104000e+00
  SX3q   SQ5  1 4.100000e-01    3.899000e+00
  SX3q   TQ5  1 3.650000e-01    5.301000e+00
  SX2q    Q5  1 4.300000e-01    2.820000e+00
  SX2q   SQ5  1 4.100000e-01    3.512000e+00
  SX2q   TQ5  1 3.660000e-01    4.668000e+00
  SX1q    Q5  1 4.300000e-01    2.522000e+00
  SX1q   SQ5  1 4.100000e-01    2.935000e+00
  SX1q   TQ5  1 3.780000e-01    3.520000e+00
 SP6dq    Q5  1 4.300000e-01    6.006000e+00
 SP6dq   SQ5  1 4.100000e-01    7.653000e+00
 SP6dq   TQ5  1 3.650000e-01    1.013400e+01
 SP5dq    Q5  1 4.300000e-01    5.991000e+00
 SP5dq   SQ5  1 4.100000e-01    7.573000e+00
 SP5dq   TQ5  1 3.650000e-01    9.967000e+00
 SP4dq    Q5  1 4.300000e-01    5.973000e+00
 SP4dq   SQ5  1 4.100000e-01    7.483000e+00
 SP4dq   TQ5  1 3.650000e-01    9.779000e+00
 SP3dq    Q5  1 4.300000e-01    5.662000e+00
 SP3dq   SQ5  1 4.100000e-01    7.139000e+00
 SP3dq   TQ5  1 3.650000e-01    9.316000e+00
 SP2dq    Q5  1 4.300000e-01    5.655000e+00
 SP2dq   SQ5  1 4.100000e-01    7.101000e+00
 SP2dq   TQ5  1 3.650000e-01    9.236000e+00
 SP1dq    Q5  1 4.300000e-01    5.359000e+00
 SP1dq   SQ5  1 4.100000e-01    6.782000e+00
 SP1dq   TQ5  1 3.650000e-01    8.886000e+00
 SN6dq    Q5  1 4.300000e-01    5.353000e+00
 SN6dq   SQ5  1 4.100000e-01    6.750000e+00
 SN6dq   TQ5  1 3.650000e-01    8.818000e+00
 SN5dq    Q5  1 4.300000e-01    5.105000e+00
 SN5dq   SQ5  1 4.100000e-01    6.452000e+00
 SN5dq   TQ5  1 3.650000e-01    8.449000e+00
 SN4dq    Q5  1 4.300000e-01    5.096000e+00
 SN4dq   SQ5  1 4.100000e-01    6.406000e+00
 SN4dq   TQ5  1 3.650000e-01    8.353000e+00
 SN3dq    Q5  1 4.300000e-01    4.805000e+00
 SN3dq   SQ5  1 4.100000e-01    6.099000e+00
 SN3dq   TQ5  1 3.650000e-01    7.943000e+00
 SN2dq    Q5  1 4.300000e-01    4.790000e+00
 SN2dq   SQ5  1 4.100000e-01    6.022000e+00
 SN2dq   TQ5  1 3.650000e-01    7.784000e+00
 SN1dq    Q5  1 4.300000e-01    4.539000e+00
 SN1dq   SQ5  1 4.100000e-01    5.693000e+00
 SN1dq   TQ5  1 3.650000e-01    7.286000e+00
 SP6aq    Q5  1 4.300000e-01    6.006000e+00
 SP6aq   SQ5  1 4.100000e-01    7.653000e+00
 SP6aq   TQ5  1 3.650000e-01    1.013400e+01
 SP5aq    Q5  1 4.300000e-01    5.991000e+00
 SP5aq   SQ5  1 4.100000e-01    7.573000e+00
 SP5aq   TQ5  1 3.650000e-01    9.967000e+00
 SP4aq    Q5  1 4.300000e-01    5.973000e+00
 SP4aq   SQ5  1 4.100000e-01    7.483000e+00
 SP4aq   TQ5  1 3.650000e-01    9.779000e+00
 SP3aq    Q5  1 4.300000e-01    5.662000e+00
 SP3aq   SQ5  1 4.100000e-01    7.139000e+00
 SP3aq   TQ5  1 3.650000e-01    9.316000e+00
 SP2aq    Q5  1 4.300000e-01    5.655000e+00
 SP2aq   SQ5  1 4.100000e-01    7.101000e+00
 SP2aq   TQ5  1 3.650000e-01    9.236000e+00
 SP1aq    Q5  1 4.300000e-01    5.359000e+00
 SP1aq   SQ5  1 4.100000e-01    6.782000e+00
 SP1aq   TQ5  1 3.650000e-01    8.886000e+00
 SN6aq    Q5  1 4.300000e-01    5.353000e+00
 SN6aq   SQ5  1 4.100000e-01    6.750000e+00
 SN6aq   TQ5  1 3.650000e-01    8.818000e+00
 SN5aq    Q5  1 4.300000e-01    5.105000e+00
 SN5aq   SQ5  1 4.100000e-01    6.452000e+00
 SN5aq   TQ5  1 3.650000e-01    8.449000e+00
 SN4aq    Q5  1 4.300000e-01    5.096000e+00
 SN4aq   SQ5  1 4.100000e-01    6.406000e+00
 SN4aq   TQ5  1 3.650000e-01    8.353000e+00
 SN3aq    Q5  1 4.300000e-01    4.805000e+00
 SN3aq   SQ5  1 4.100000e-01    6.099000e+00
 SN3aq   TQ5  1 3.650000e-01    7.943000e+00
 SN2aq    Q5  1 4.300000e-01    4.790000e+00
 SN2aq   SQ5  1 4.100000e-01    6.022000e+00
 SN2aq   TQ5  1 3.650000e-01    7.784000e+00
 SN1aq    Q5  1 4.300000e-01    4.539000e+00
 SN1aq   SQ5  1 4.100000e-01    5.693000e+00
 SN1aq   TQ5  1 3.650000e-01    7.286000e+00
 SC6vq    Q5  1 4.300000e-01    3.714000e+00
 SC6vq   SQ5  1 4.100000e-01    4.539000e+00
 SC6vq   TQ5  1 3.650000e-01    5.891000e+00
 SC5vq    Q5  1 4.300000e-01    2.837000e+00
 SC5vq   SQ5  1 4.100000e-01    3.602000e+00
 SC5vq   TQ5  1 3.660000e-01    4.856000e+00
 SC4vq    Q5  1 4.300000e-01    2.587000e+00
 SC4vq   SQ5  1 4.100000e-01    3.270000e+00
 SC4vq   TQ5  1 3.780000e-01    4.194000e+00
 SC3vq    Q5  1 4.300000e-01    2.362000e+00
 SC3vq   SQ5  1 4.100000e-01    2.775000e+00
 SC3vq   TQ5  1 3.940000e-01    3.276000e+00
 SC2vq    Q5  1 4.300000e-01    1.879000e+00
 SC2vq   SQ5  1 4.180000e-01    2.145000e+00
 SC2vq   TQ5  1 4.090000e-01    2.497000e+00
 SC1vq    Q5  1 4.300000e-01    1.801000e+00
 SC1vq   SQ5  1 4.180000e-01    1.755000e+00
 SC1vq   TQ5  1 4.090000e-01    1.756000e+00
 SX4vq    Q5  1 4.300000e-01    3.514000e+00
 SX4vq   SQ5  1 4.100000e-01    4.398000e+00
 SX4vq   TQ5  1 3.650000e-01    5.868000e+00
 SX3vq    Q5  1 4.300000e-01    3.254000e+00
 SX3vq   SQ5  1 4.100000e-01    4.049000e+00
 SX3vq   TQ5  1 3.650000e-01    5.461000e+00
 SX2vq    Q5  1 4.300000e-01    3.060000e+00
 SX2vq   SQ5  1 4.100000e-01    3.672000e+00
 SX2vq   TQ5  1 3.650000e-01    4.826000e+00
 SX1vq    Q5  1 4.300000e-01    2.732000e+00
 SX1vq   SQ5  1 4.100000e-01    3.065000e+00
 SX1vq   TQ5  1 3.660000e-01    3.738000e+00
 SC6eq    Q5  1 4.300000e-01    3.714000e+00
 SC6eq   SQ5  1 4.100000e-01    4.539000e+00
 SC6eq   TQ5  1 3.650000e-01    5.891000e+00
 SC5eq    Q5  1 4.300000e-01    2.837000e+00
 SC5eq   SQ5  1 4.100000e-01    3.602000e+00
 SC5eq   TQ5  1 3.660000e-01    4.856000e+00
 SC4eq    Q5  1 4.300000e-01    2.587000e+00
 SC4eq   SQ5  1 4.100000e-01    3.270000e+00
 SC4eq   TQ5  1 3.780000e-01    4.194000e+00
 SC3eq    Q5  1 4.300000e-01    2.362000e+00
 SC3eq   SQ5  1 4.100000e-01    2.775000e+00
 SC3eq   TQ5  1 3.940000e-01    3.276000e+00
 SC2eq    Q5  1 4.300000e-01    1.879000e+00
 SC2eq   SQ5  1 4.180000e-01    2.145000e+00
 SC2eq   TQ5  1 4.090000e-01    2.497000e+00
 SC1eq    Q5  1 4.300000e-01    1.801000e+00
 SC1eq   SQ5  1 4.180000e-01    1.755000e+00
 SC1eq   TQ5  1 4.090000e-01    1.756000e+00
 SX4eq    Q5  1 4.300000e-01    3.514000e+00
 SX4eq   SQ5  1 4.100000e-01    4.398000e+00
 SX4eq   TQ5  1 3.650000e-01    5.868000e+00
 SX3eq    Q5  1 4.300000e-01    3.254000e+00
 SX3eq   SQ5  1 4.100000e-01    4.049000e+00
 SX3eq   TQ5  1 3.650000e-01    5.461000e+00
 SX2eq    Q5  1 4.300000e-01    3.060000e+00
 SX2eq   SQ5  1 4.100000e-01    3.672000e+00
 SX2eq   TQ5  1 3.650000e-01    4.826000e+00
 SX1eq    Q5  1 4.300000e-01    2.732000e+00
 SX1eq   SQ5  1 4.100000e-01    3.065000e+00
 SX1eq   TQ5  1 3.660000e-01    3.738000e+00
  SP6h    Q5  1 4.300000e-01    5.416000e+00
  SP6h   SQ5  1 4.100000e-01    7.073000e+00
  SP6h   TQ5  1 3.650000e-01    9.494000e+00
  SP5h    Q5  1 4.300000e-01    5.161000e+00
  SP5h   SQ5  1 4.100000e-01    6.733000e+00
  SP5h   TQ5  1 3.650000e-01    9.037000e+00
  SP4h    Q5  1 4.300000e-01    5.143000e+00
  SP4h   SQ5  1 4.100000e-01    6.643000e+00
  SP4h   TQ5  1 3.650000e-01    8.849000e+00
  SP3h    Q5  1 4.300000e-01    4.852000e+00
  SP3h   SQ5  1 4.100000e-01    6.339000e+00
  SP3h   TQ5  1 3.650000e-01    8.446000e+00
  SP2h    Q5  1 4.300000e-01    4.845000e+00
  SP2h   SQ5  1 4.100000e-01    6.301000e+00
  SP2h   TQ5  1 3.650000e-01    8.366000e+00
  SP1h    Q5  1 4.300000e-01    4.609000e+00
  SP1h   SQ5  1 4.100000e-01    6.052000e+00
  SP1h   TQ5  1 3.650000e-01    8.036000e+00
  SN6h    Q5  1 4.300000e-01    4.603000e+00
  SN6h   SQ5  1 4.100000e-01    6.020000e+00
  SN6h   TQ5  1 3.650000e-01    7.968000e+00
  SN5h    Q5  1 4.300000e-01    4.395000e+00
  SN5h   SQ5  1 4.100000e-01    5.712000e+00
  SN5h   TQ5  1 3.650000e-01    7.619000e+00
  SN4h    Q5  1 4.300000e-01    4.386000e+00
  SN4h   SQ5  1 4.100000e-01    5.666000e+00
  SN4h   TQ5  1 3.650000e-01    7.523000e+00
  SN3h    Q5  1 4.300000e-01    4.175000e+00
  SN3h   SQ5  1 4.100000e-01    5.369000e+00
  SN3h   TQ5  1 3.650000e-01    7.133000e+00
  SN2h    Q5  1 4.300000e-01    4.160000e+00
  SN2h   SQ5  1 4.100000e-01    5.292000e+00
  SN2h   TQ5  1 3.650000e-01    6.974000e+00
  SN1h    Q5  1 4.300000e-01    3.959000e+00
  SN1h   SQ5  1 4.100000e-01    4.943000e+00
  SN1h   TQ5  1 3.650000e-01    6.486000e+00
  SC6h    Q5  1 4.300000e-01    2.864000e+00
  SC6h   SQ5  1 4.100000e-01    3.739000e+00
  SC6h   TQ5  1 3.660000e-01    5.141000e+00
  SC5h    Q5  1 4.300000e-01    2.037000e+00
  SC5h   SQ5  1 4.180000e-01    2.932000e+00
  SC5h   TQ5  1 4.090000e-01    3.994000e+00
  SC4h    Q5  1 4.430000e-01    1.740000e+00
  SC4h   SQ5  1 4.210000e-01    2.574000e+00
  SC4h   TQ5  1 4.230000e-01    3.433000e+00
  SC3h    Q5  1 4.730000e-01    1.463000e+00
  SC3h   SQ5  1 4.530000e-01    2.078000e+00
  SC3h   TQ5  1 4.840000e-01    2.506000e+00
  SC2h    Q5  1 5.520000e-01    1.126000e+00
  SC2h   SQ5  1 5.350000e-01    1.568000e+00
  SC2h   TQ5  1 5.880000e-01    1.749000e+00
  SC1h    Q5  1 5.520000e-01    1.066000e+00
  SC1h   SQ5  1 5.350000e-01    1.264000e+00
  SC1h   TQ5  1 5.880000e-01    1.233000e+00
  SX4h    Q5  1 4.300000e-01    2.674000e+00
  SX4h   SQ5  1 4.100000e-01    3.708000e+00
  SX4h   TQ5  1 3.780000e-01    5.079000e+00
  SX3h    Q5  1 4.300000e-01    2.494000e+00
  SX3h   SQ5  1 4.100000e-01    3.449000e+00
  SX3h   TQ5  1 3.940000e-01    4.580000e+00
  SX2h    Q5  1 4.300000e-01    2.220000e+00
  SX2h   SQ5  1 4.140000e-01    3.018000e+00
  SX2h   TQ5  1 4.040000e-01    3.909000e+00
  SX1h    Q5  1 4.300000e-01    1.932000e+00
  SX1h   SQ5  1 4.180000e-01    2.406000e+00
  SX1h   TQ5  1 4.090000e-01    2.993000e+00
 SP6dh    Q5  1 4.300000e-01    5.416000e+00
 SP6dh   SQ5  1 4.100000e-01    7.073000e+00
 SP6dh   TQ5  1 3.650000e-01    9.494000e+00
 SP5dh    Q5  1 4.300000e-01    5.161000e+00
 SP5dh   SQ5  1 4.100000e-01    6.733000e+00
 SP5dh   TQ5  1 3.650000e-01    9.037000e+00
 SP4dh    Q5  1 4.300000e-01    5.143000e+00
 SP4dh   SQ5  1 4.100000e-01    6.643000e+00
 SP4dh   TQ5  1 3.650000e-01    8.849000e+00
 SP3dh    Q5  1 4.300000e-01    4.852000e+00
 SP3dh   SQ5  1 4.100000e-01    6.339000e+00
 SP3dh   TQ5  1 3.650000e-01    8.446000e+00
 SP2dh    Q5  1 4.300000e-01    4.845000e+00
 SP2dh   SQ5  1 4.100000e-01    6.301000e+00
 SP2dh   TQ5  1 3.650000e-01    8.366000e+00
 SP1dh    Q5  1 4.300000e-01    4.609000e+00
 SP1dh   SQ5  1 4.100000e-01    6.052000e+00
 SP1dh   TQ5  1 3.650000e-01    8.036000e+00
 SN6dh    Q5  1 4.300000e-01    4.603000e+00
 SN6dh   SQ5  1 4.100000e-01    6.020000e+00
 SN6dh   TQ5  1 3.650000e-01    7.968000e+00
 SN5dh    Q5  1 4.300000e-01    4.395000e+00
 SN5dh   SQ5  1 4.100000e-01    5.712000e+00
 SN5dh   TQ5  1 3.650000e-01    7.619000e+00
 SN4dh    Q5  1 4.300000e-01    4.386000e+00
 SN4dh   SQ5  1 4.100000e-01    5.666000e+00
 SN4dh   TQ5  1 3.650000e-01    7.523000e+00
 SN3dh    Q5  1 4.300000e-01    4.175000e+00
 SN3dh   SQ5  1 4.100000e-01    5.369000e+00
 SN3dh   TQ5  1 3.650000e-01    7.133000e+00
 SN2dh    Q5  1 4.300000e-01    4.160000e+00
 SN2dh   SQ5  1 4.100000e-01    5.292000e+00
 SN2dh   TQ5  1 3.650000e-01    6.974000e+00
 SN1dh    Q5  1 4.300000e-01    3.959000e+00
 SN1dh   SQ5  1 4.100000e-01    4.943000e+00
 SN1dh   TQ5  1 3.650000e-01    6.486000e+00
 SP6ah    Q5  1 4.300000e-01    5.416000e+00
 SP6ah   SQ5  1 4.100000e-01    7.073000e+00
 SP6ah   TQ5  1 3.650000e-01    9.494000e+00
 SP5ah    Q5  1 4.300000e-01    5.161000e+00
 SP5ah   SQ5  1 4.100000e-01    6.733000e+00
 SP5ah   TQ5  1 3.650000e-01    9.037000e+00
 SP4ah    Q5  1 4.300000e-01    5.143000e+00
 SP4ah   SQ5  1 4.100000e-01    6.643000e+00
 SP4ah   TQ5  1 3.650000e-01    8.849000e+00
 SP3ah    Q5  1 4.300000e-01    4.852000e+00
 SP3ah   SQ5  1 4.100000e-01    6.339000e+00
 SP3ah   TQ5  1 3.650000e-01    8.446000e+00
 SP2ah    Q5  1 4.300000e-01    4.845000e+00
 SP2ah   SQ5  1 4.100000e-01    6.301000e+00
 SP2ah   TQ5  1 3.650000e-01    8.366000e+00
 SP1ah    Q5  1 4.300000e-01    4.609000e+00
 SP1ah   SQ5  1 4.100000e-01    6.052000e+00
 SP1ah   TQ5  1 3.650000e-01    8.036000e+00
 SN6ah    Q5  1 4.300000e-01    4.603000e+00
 SN6ah   SQ5  1 4.100000e-01    6.020000e+00
 SN6ah   TQ5  1 3.650000e-01    7.968000e+00
 SN5ah    Q5  1 4.300000e-01    4.395000e+00
 SN5ah   SQ5  1 4.100000e-01    5.712000e+00
 SN5ah   TQ5  1 3.650000e-01    7.619000e+00
 SN4ah    Q5  1 4.300000e-01    4.386000e+00
 SN4ah   SQ5  1 4.100000e-01    5.666000e+00
 SN4ah   TQ5  1 3.650000e-01    7.523000e+00
 SN3ah    Q5  1 4.300000e-01    4.175000e+00
 SN3ah   SQ5  1 4.100000e-01    5.369000e+00
 SN3ah   TQ5  1 3.650000e-01    7.133000e+00
 SN2ah    Q5  1 4.300000e-01    4.160000e+00
 SN2ah   SQ5  1 4.100000e-01    5.292000e+00
 SN2ah   TQ5  1 3.650000e-01    6.974000e+00
 SN1ah    Q5  1 4.300000e-01    3.959000e+00
 SN1ah   SQ5  1 4.100000e-01    4.943000e+00
 SN1ah   TQ5  1 3.650000e-01    6.486000e+00
 SC6vh    Q5  1 4.300000e-01    3.104000e+00
 SC6vh   SQ5  1 4.100000e-01    3.899000e+00
 SC6vh   TQ5  1 3.650000e-01    5.301000e+00
 SC5vh    Q5  1 4.300000e-01    2.237000e+00
 SC5vh   SQ5  1 4.140000e-01    3.107000e+00
 SC5vh   TQ5  1 4.040000e-01    4.080000e+00
 SC4vh    Q5  1 4.300000e-01    1.997000e+00
 SC4vh   SQ5  1 4.180000e-01    2.734000e+00
 SC4vh   TQ5  1 4.090000e-01    3.616000e+00
 SC3vh    Q5  1 4.430000e-01    1.676000e+00
 SC3vh   SQ5  1 4.210000e-01    2.249000e+00
 SC3vh   TQ5  1 4.230000e-01    2.831000e+00
 SC2vh    Q5  1 5.140000e-01    1.235000e+00
 SC2vh   SQ5  1 4.960000e-01    1.678000e+00
 SC2vh   TQ5  1 5.370000e-01    1.887000e+00
 SC1vh    Q5  1 5.140000e-01    1.170000e+00
 SC1vh   SQ5  1 4.960000e-01    1.349000e+00
 SC1vh   TQ5  1 5.370000e-01    1.323000e+00
 SX4vh    Q5  1 4.300000e-01    2.884000e+00
 SX4vh   SQ5  1 4.100000e-01    3.838000e+00
 SX4vh   TQ5  1 3.660000e-01    5.348000e+00
 SX3vh    Q5  1 4.300000e-01    2.654000e+00
 SX3vh   SQ5  1 4.100000e-01    3.609000e+00
 SX3vh   TQ5  1 3.780000e-01    4.879000e+00
 SX2vh    Q5  1 4.300000e-01    2.450000e+00
 SX2vh   SQ5  1 4.100000e-01    3.222000e+00
 SX2vh   TQ5  1 3.940000e-01    4.140000e+00
 SX1vh    Q5  1 4.300000e-01    2.132000e+00
 SX1vh   SQ5  1 4.140000e-01    2.576000e+00
 SX1vh   TQ5  1 4.040000e-01    3.067000e+00
 SC6eh    Q5  1 4.300000e-01    3.104000e+00
 SC6eh   SQ5  1 4.100000e-01    3.899000e+00
 SC6eh   TQ5  1 3.650000e-01    5.301000e+00
 SC5eh    Q5  1 4.300000e-01    2.237000e+00
 SC5eh   SQ5  1 4.140000e-01    3.107000e+00
 SC5eh   TQ5  1 4.040000e-01    4.080000e+00
 SC4eh    Q5  1 4.300000e-01    1.997000e+00
 SC4eh   SQ5  1 4.180000e-01    2.734000e+00
 SC4eh   TQ5  1 4.090000e-01    3.616000e+00
 SC3eh    Q5  1 4.430000e-01    1.676000e+00
 SC3eh   SQ5  1 4.210000e-01    2.249000e+00
 SC3eh   TQ5  1 4.230000e-01    2.831000e+00
 SC2eh    Q5  1 5.140000e-01    1.235000e+00
 SC2eh   SQ5  1 4.960000e-01    1.678000e+00
 SC2eh   TQ5  1 5.370000e-01    1.887000e+00
 SC1eh    Q5  1 5.140000e-01    1.170000e+00
 SC1eh   SQ5  1 4.960000e-01    1.349000e+00
 SC1eh   TQ5  1 5.370000e-01    1.323000e+00
 SX4eh    Q5  1 4.300000e-01    2.884000e+00
 SX4eh   SQ5  1 4.100000e-01    3.838000e+00
 SX4eh   TQ5  1 3.660000e-01    5.348000e+00
 SX3eh    Q5  1 4.300000e-01    2.654000e+00
 SX3eh   SQ5  1 4.100000e-01    3.609000e+00
 SX3eh   TQ5  1 3.780000e-01    4.879000e+00
 SX2eh    Q5  1 4.300000e-01    2.450000e+00
 SX2eh   SQ5  1 4.100000e-01    3.222000e+00
 SX2eh   TQ5  1 3.940000e-01    4.140000e+00
 SX1eh    Q5  1 4.300000e-01    2.132000e+00
 SX1eh   SQ5  1 4.140000e-01    2.576000e+00
 SX1eh   TQ5  1 4.040000e-01    3.067000e+00
  SP6r    Q5  1 4.300000e-01    5.416000e+00
  SP6r   SQ5  1 4.100000e-01    7.073000e+00
  SP6r   TQ5  1 3.650000e-01    9.494000e+00
  SP5r    Q5  1 4.300000e-01    5.161000e+00
  SP5r   SQ5  1 4.100000e-01    6.733000e+00
  SP5r   TQ5  1 3.650000e-01    9.037000e+00
  SP4r    Q5  1 4.300000e-01    5.143000e+00
  SP4r   SQ5  1 4.100000e-01    6.643000e+00
  SP4r   TQ5  1 3.650000e-01    8.849000e+00
  SP3r    Q5  1 4.300000e-01    4.852000e+00
  SP3r   SQ5  1 4.100000e-01    6.339000e+00
  SP3r   TQ5  1 3.650000e-01    8.446000e+00
  SP2r    Q5  1 4.300000e-01    4.845000e+00
  SP2r   SQ5  1 4.100000e-01    6.301000e+00
  SP2r   TQ5  1 3.650000e-01    8.366000e+00
  SP1r    Q5  1 4.300000e-01    4.609000e+00
  SP1r   SQ5  1 4.100000e-01    6.052000e+00
  SP1r   TQ5  1 3.650000e-01    8.036000e+00
  SN6r    Q5  1 4.300000e-01    4.603000e+00
  SN6r   SQ5  1 4.100000e-01    6.020000e+00
  SN6r   TQ5  1 3.650000e-01    7.968000e+00
  SN5r    Q5  1 4.300000e-01    4.395000e+00
  SN5r   SQ5  1 4.100000e-01    5.712000e+00
  SN5r   TQ5  1 3.650000e-01    7.619000e+00
  SN4r    Q5  1 4.300000e-01    4.386000e+00
  SN4r   SQ5  1 4.100000e-01    5.666000e+00
  SN4r   TQ5  1 3.650000e-01    7.523000e+00
  SN3r    Q5  1 4.300000e-01    4.175000e+00
  SN3r   SQ5  1 4.100000e-01    5.369000e+00
  SN3r   TQ5  1 3.650000e-01    7.133000e+00
  SN2r    Q5  1 4.300000e-01    4.160000e+00
  SN2r   SQ5  1 4.100000e-01    5.292000e+00
  SN2r   TQ5  1 3.650000e-01    6.974000e+00
  SN1r    Q5  1 4.300000e-01    3.959000e+00
  SN1r   SQ5  1 4.100000e-01    4.943000e+00
  SN1r   TQ5  1 3.650000e-01    6.486000e+00
  SC6r    Q5  1 4.300000e-01    2.864000e+00
  SC6r   SQ5  1 4.100000e-01    3.739000e+00
  SC6r   TQ5  1 3.660000e-01    5.141000e+00
  SC5r    Q5  1 4.300000e-01    2.037000e+00
  SC5r   SQ5  1 4.180000e-01    2.932000e+00
  SC5r   TQ5  1 4.090000e-01    3.994000e+00
  SC4r    Q5  1 4.430000e-01    1.740000e+00
  SC4r   SQ5  1 4.210000e-01    2.574000e+00
  SC4r   TQ5  1 4.230000e-01    3.433000e+00
  SC3r    Q5  1 4.730000e-01    1.463000e+00
  SC3r   SQ5  1 4.530000e-01    2.078000e+00
  SC3r   TQ5  1 4.840000e-01    2.506000e+00
  SC2r    Q5  1 5.520000e-01    1.126000e+00
  SC2r   SQ5  1 5.350000e-01    1.568000e+00
  SC2r   TQ5  1 5.880000e-01    1.749000e+00
  SC1r    Q5  1 5.520000e-01    1.066000e+00
  SC1r   SQ5  1 5.350000e-01    1.264000e+00
  SC1r   TQ5  1 5.880000e-01    1.233000e+00
  SX4r    Q5  1 4.300000e-01    2.674000e+00
  SX4r   SQ5  1 4.100000e-01    3.708000e+00
  SX4r   TQ5  1 3.780000e-01    5.079000e+00
  SX3r    Q5  1 4.300000e-01    2.494000e+00
  SX3r   SQ5  1 4.100000e-01    3.449000e+00
  SX3r   TQ5  1 3.940000e-01    4.580000e+00
  SX2r    Q5  1 4.300000e-01    2.220000e+00
  SX2r   SQ5  1 4.140000e-01    3.018000e+00
  SX2r   TQ5  1 4.040000e-01    3.909000e+00
  SX1r    Q5  1 4.300000e-01    1.932000e+00
  SX1r   SQ5  1 4.180000e-01    2.406000e+00
  SX1r   TQ5  1 4.090000e-01    2.993000e+00
 SP6dr    Q5  1 4.300000e-01    5.416000e+00
 SP6dr   SQ5  1 4.100000e-01    7.073000e+00
 SP6dr   TQ5  1 3.650000e-01    9.494000e+00
 SP5dr    Q5  1 4.300000e-01    5.161000e+00
 SP5dr   SQ5  1 4.100000e-01    6.733000e+00
 SP5dr   TQ5  1 3.650000e-01    9.037000e+00
 SP4dr    Q5  1 4.300000e-01    5.143000e+00
 SP4dr   SQ5  1 4.100000e-01    6.643000e+00
 SP4dr   TQ5  1 3.650000e-01    8.849000e+00
 SP3dr    Q5  1 4.300000e-01    4.852000e+00
 SP3dr   SQ5  1 4.100000e-01    6.339000e+00
 SP3dr   TQ5  1 3.650000e-01    8.446000e+00
 SP2dr    Q5  1 4.300000e-01    4.845000e+00
 SP2dr   SQ5  1 4.100000e-01    6.301000e+00
 SP2dr   TQ5  1 3.650000e-01    8.366000e+00
 SP1dr    Q5  1 4.300000e-01    4.609000e+00
 SP1dr   SQ5  1 4.100000e-01    6.052000e+00
 SP1dr   TQ5  1 3.650000e-01    8.036000e+00
 SN6dr    Q5  1 4.300000e-01    4.603000e+00
 SN6dr   SQ5  1 4.100000e-01    6.020000e+00
 SN6dr   TQ5  1 3.650000e-01    7.968000e+00
 SN5dr    Q5  1 4.300000e-01    4.395000e+00
 SN5dr   SQ5  1 4.100000e-01    5.712000e+00
 SN5dr   TQ5  1 3.650000e-01    7.619000e+00
 SN4dr    Q5  1 4.300000e-01    4.386000e+00
 SN4dr   SQ5  1 4.100000e-01    5.666000e+00
 SN4dr   TQ5  1 3.650000e-01    7.523000e+00
 SN3dr    Q5  1 4.300000e-01    4.175000e+00
 SN3dr   SQ5  1 4.100000e-01    5.369000e+00
 SN3dr   TQ5  1 3.650000e-01    7.133000e+00
 SN2dr    Q5  1 4.300000e-01    4.160000e+00
 SN2dr   SQ5  1 4.100000e-01    5.292000e+00
 SN2dr   TQ5  1 3.650000e-01    6.974000e+00
 SN1dr    Q5  1 4.300000e-01    3.959000e+00
 SN1dr   SQ5  1 4.100000e-01    4.943000e+00
 SN1dr   TQ5  1 3.650000e-01    6.486000e+00
 SP6ar    Q5  1 4.300000e-01    5.416000e+00
 SP6ar   SQ5  1 4.100000e-01    7.073000e+00
 SP6ar   TQ5  1 3.650000e-01    9.494000e+00
 SP5ar    Q5  1 4.300000e-01    5.161000e+00
 SP5ar   SQ5  1 4.100000e-01    6.733000e+00
 SP5ar   TQ5  1 3.650000e-01    9.037000e+00
 SP4ar    Q5  1 4.300000e-01    5.143000e+00
 SP4ar   SQ5  1 4.100000e-01    6.643000e+00
 SP4ar   TQ5  1 3.650000e-01    8.849000e+00
 SP3ar    Q5  1 4.300000e-01    4.852000e+00
 SP3ar   SQ5  1 4.100000e-01    6.339000e+00
 SP3ar   TQ5  1 3.650000e-01    8.446000e+00
 SP2ar    Q5  1 4.300000e-01    4.845000e+00
 SP2ar   SQ5  1 4.100000e-01    6.301000e+00
 SP2ar   TQ5  1 3.650000e-01    8.366000e+00
 SP1ar    Q5  1 4.300000e-01    4.609000e+00
 SP1ar   SQ5  1 4.100000e-01    6.052000e+00
 SP1ar   TQ5  1 3.650000e-01    8.036000e+00
 SN6ar    Q5  1 4.300000e-01    4.603000e+00
 SN6ar   SQ5  1 4.100000e-01    6.020000e+00
 SN6ar   TQ5  1 3.650000e-01    7.968000e+00
 SN5ar    Q5  1 4.300000e-01    4.395000e+00
 SN5ar   SQ5  1 4.100000e-01    5.712000e+00
 SN5ar   TQ5  1 3.650000e-01    7.619000e+00
 SN4ar    Q5  1 4.300000e-01    4.386000e+00
 SN4ar   SQ5  1 4.100000e-01    5.666000e+00
 SN4ar   TQ5  1 3.650000e-01    7.523000e+00
 SN3ar    Q5  1 4.300000e-01    4.175000e+00
 SN3ar   SQ5  1 4.100000e-01    5.369000e+00
 SN3ar   TQ5  1 3.650000e-01    7.133000e+00
 SN2ar    Q5  1 4.300000e-01    4.160000e+00
 SN2ar   SQ5  1 4.100000e-01    5.292000e+00
 SN2ar   TQ5  1 3.650000e-01    6.974000e+00
 SN1ar    Q5  1 4.300000e-01    3.959000e+00
 SN1ar   SQ5  1 4.100000e-01    4.943000e+00
 SN1ar   TQ5  1 3.650000e-01    6.486000e+00
 SC6vr    Q5  1 4.300000e-01    3.104000e+00
 SC6vr   SQ5  1 4.100000e-01    3.899000e+00
 SC6vr   TQ5  1 3.650000e-01    5.301000e+00
 SC5vr    Q5  1 4.300000e-01    2.237000e+00
 SC5vr   SQ5  1 4.140000e-01    3.107000e+00
 SC5vr   TQ5  1 4.040000e-01    4.080000e+00
 SC4vr    Q5  1 4.300000e-01    1.997000e+00
 SC4vr   SQ5  1 4.180000e-01    2.734000e+00
 SC4vr   TQ5  1 4.090000e-01    3.616000e+00
 SC3vr    Q5  1 4.430000e-01    1.676000e+00
 SC3vr   SQ5  1 4.210000e-01    2.249000e+00
 SC3vr   TQ5  1 4.230000e-01    2.831000e+00
 SC2vr    Q5  1 5.140000e-01    1.235000e+00
 SC2vr   SQ5  1 4.960000e-01    1.678000e+00
 SC2vr   TQ5  1 5.370000e-01    1.887000e+00
 SC1vr    Q5  1 5.140000e-01    1.170000e+00
 SC1vr   SQ5  1 4.960000e-01    1.349000e+00
 SC1vr   TQ5  1 5.370000e-01    1.323000e+00
 SX4vr    Q5  1 4.300000e-01    2.884000e+00
 SX4vr   SQ5  1 4.100000e-01    3.838000e+00
 SX4vr   TQ5  1 3.660000e-01    5.348000e+00
 SX3vr    Q5  1 4.300000e-01    2.654000e+00
 SX3vr   SQ5  1 4.100000e-01    3.609000e+00
 SX3vr   TQ5  1 3.780000e-01    4.879000e+00
 SX2vr    Q5  1 4.300000e-01    2.450000e+00
 SX2vr   SQ5  1 4.100000e-01    3.222000e+00
 SX2vr   TQ5  1 3.940000e-01    4.140000e+00
 SX1vr    Q5  1 4.300000e-01    2.132000e+00
 SX1vr   SQ5  1 4.140000e-01    2.576000e+00
 SX1vr   TQ5  1 4.040000e-01    3.067000e+00
 SC6er    Q5  1 4.300000e-01    3.104000e+00
 SC6er   SQ5  1 4.100000e-01    3.899000e+00
 SC6er   TQ5  1 3.650000e-01    5.301000e+00
 SC5er    Q5  1 4.300000e-01    2.237000e+00
 SC5er   SQ5  1 4.140000e-01    3.107000e+00
 SC5er   TQ5  1 4.040000e-01    4.080000e+00
 SC4er    Q5  1 4.300000e-01    1.997000e+00
 SC4er   SQ5  1 4.180000e-01    2.734000e+00
 SC4er   TQ5  1 4.090000e-01    3.616000e+00
 SC3er    Q5  1 4.430000e-01    1.676000e+00
 SC3er   SQ5  1 4.210000e-01    2.249000e+00
 SC3er   TQ5  1 4.230000e-01    2.831000e+00
 SC2er    Q5  1 5.140000e-01    1.235000e+00
 SC2er   SQ5  1 4.960000e-01    1.678000e+00
 SC2er   TQ5  1 5.370000e-01    1.887000e+00
 SC1er    Q5  1 5.140000e-01    1.170000e+00
 SC1er   SQ5  1 4.960000e-01    1.349000e+00
 SC1er   TQ5  1 5.370000e-01    1.323000e+00
 SX4er    Q5  1 4.300000e-01    2.884000e+00
 SX4er   SQ5  1 4.100000e-01    3.838000e+00
 SX4er   TQ5  1 3.660000e-01    5.348000e+00
 SX3er    Q5  1 4.300000e-01    2.654000e+00
 SX3er   SQ5  1 4.100000e-01    3.609000e+00
 SX3er   TQ5  1 3.780000e-01    4.879000e+00
 SX2er    Q5  1 4.300000e-01    2.450000e+00
 SX2er   SQ5  1 4.100000e-01    3.222000e+00
 SX2er   TQ5  1 3.940000e-01    4.140000e+00
 SX1er    Q5  1 4.300000e-01    2.132000e+00
 SX1er   SQ5  1 4.140000e-01    2.576000e+00
 SX1er   TQ5  1 4.040000e-01    3.067000e+00
   TP6    Q5  1 3.950000e-01    4.950000e+00
   TP6   SQ5  1 3.650000e-01    6.468000e+00
   TP6   TQ5  1 3.400000e-01    8.696000e+00
   TP5    Q5  1 3.950000e-01    4.625000e+00
   TP5   SQ5  1 3.650000e-01    6.098000e+00
   TP5   TQ5  1 3.400000e-01    8.240000e+00
   TP4    Q5  1 3.950000e-01    4.609000e+00
   TP4   SQ5  1 3.650000e-01    6.008000e+00
   TP4   TQ5  1 3.400000e-01    8.042000e+00
   TP3    Q5  1 3.950000e-01    4.279000e+00
   TP3   SQ5  1 3.650000e-01    5.665000e+00
   TP3   TQ5  1 3.400000e-01    7.674000e+00
   TP2    Q5  1 3.950000e-01    4.272000e+00
   TP2   SQ5  1 3.650000e-01    5.627000e+00
   TP2   TQ5  1 3.400000e-01    7.592000e+00
   TP1    Q5  1 3.950000e-01    4.027000e+00
   TP1   SQ5  1 3.650000e-01    5.329000e+00
   TP1   TQ5  1 3.400000e-01    7.299000e+00
   TN6    Q5  1 3.950000e-01    4.021000e+00
   TN6   SQ5  1 3.650000e-01    5.296000e+00
   TN6   TQ5  1 3.400000e-01    7.228000e+00
   TN5    Q5  1 3.950000e-01    3.774000e+00
   TN5   SQ5  1 3.650000e-01    4.989000e+00
   TN5   TQ5  1 3.400000e-01    6.895000e+00
   TN4    Q5  1 3.950000e-01    3.766000e+00
   TN4   SQ5  1 3.650000e-01    4.944000e+00
   TN4   TQ5  1 3.400000e-01    6.796000e+00
   TN3    Q5  1 3.950000e-01    3.516000e+00
   TN3   SQ5  1 3.650000e-01    4.617000e+00
   TN3   TQ5  1 3.400000e-01    6.431000e+00
   TN2    Q5  1 3.950000e-01    3.502000e+00
   TN2   SQ5  1 3.650000e-01    4.542000e+00
   TN2   TQ5  1 3.400000e-01    6.266000e+00
   TN1    Q5  1 3.950000e-01    3.232000e+00
   TN1   SQ5  1 3.650000e-01    4.174000e+00
   TN1   TQ5  1 3.400000e-01    5.810000e+00
   TC6    Q5  1 3.950000e-01    2.111000e+00
   TC6   SQ5  1 3.660000e-01    3.028000e+00
   TC6   TQ5  1 3.520000e-01    4.093000e+00
   TC5    Q5  1 4.010000e-01    1.216000e+00
   TC5   SQ5  1 4.090000e-01    2.238000e+00
   TC5   TQ5  1 4.240000e-01    3.064000e+00
   TC4    Q5  1 4.040000e-01    1.026000e+00
   TC4   SQ5  1 4.230000e-01    1.928000e+00
   TC4   TQ5  1 4.380000e-01    2.605000e+00
   TC3    Q5  1 4.650000e-01    8.220000e-01
   TC3   SQ5  1 4.840000e-01    1.469000e+00
   TC3   TQ5  1 5.050000e-01    1.818000e+00
   TC2    Q5  1 5.240000e-01    6.980000e-01
   TC2   SQ5  1 5.880000e-01    1.077000e+00
   TC2   TQ5  1 5.990000e-01    1.252000e+00
   TC1    Q5  1 5.240000e-01    6.450000e-01
   TC1   SQ5  1 5.880000e-01    8.340000e-01
   TC1   TQ5  1 5.990000e-01    7.620000e-01
   TX4    Q5  1 3.950000e-01    1.949000e+00
   TX4   SQ5  1 3.780000e-01    2.927000e+00
   TX4   TQ5  1 3.660000e-01    4.061000e+00
   TX3    Q5  1 3.980000e-01    1.709000e+00
   TX3   SQ5  1 3.940000e-01    2.617000e+00
   TX3   TQ5  1 3.850000e-01    3.637000e+00
   TX2    Q5  1 3.990000e-01    1.398000e+00
   TX2   SQ5  1 4.040000e-01    2.222000e+00
   TX2   TQ5  1 4.110000e-01    3.000000e+00
   TX1    Q5  1 4.010000e-01    1.121000e+00
   TX1   SQ5  1 4.090000e-01    1.765000e+00
   TX1   TQ5  1 4.240000e-01    2.131000e+00
  TP6d    Q5  1 3.950000e-01    4.950000e+00
  TP6d   SQ5  1 3.650000e-01    6.468000e+00
  TP6d   TQ5  1 3.400000e-01    8.696000e+00
  TP5d    Q5  1 3.950000e-01    4.625000e+00
  TP5d   SQ5  1 3.650000e-01    6.098000e+00
  TP5d   TQ5  1 3.400000e-01    8.240000e+00
  TP4d    Q5  1 3.950000e-01    4.609000e+00
  TP4d   SQ5  1 3.650000e-01    6.008000e+00
  TP4d   TQ5  1 3.400000e-01    8.042000e+00
  TP3d    Q5  1 3.950000e-01    4.279000e+00
  TP3d   SQ5  1 3.650000e-01    5.665000e+00
  TP3d   TQ5  1 3.400000e-01    7.674000e+00
  TP2d    Q5  1 3.950000e-01    4.272000e+00
  TP2d   SQ5  1 3.650000e-01    5.627000e+00
  TP2d   TQ5  1 3.400000e-01    7.592000e+00
  TP1d    Q5  1 3.950000e-01    4.027000e+00
  TP1d   SQ5  1 3.650000e-01    5.329000e+00
  TP1d   TQ5  1 3.400000e-01    7.299000e+00
  TN6d    Q5  1 3.950000e-01    4.021000e+00
  TN6d   SQ5  1 3.650000e-01    5.296000e+00
  TN6d   TQ5  1 3.400000e-01    7.228000e+00
  TN5d    Q5  1 3.950000e-01    3.774000e+00
  TN5d   SQ5  1 3.650000e-01    4.989000e+00
  TN5d   TQ5  1 3.400000e-01    6.895000e+00
  TN4d    Q5  1 3.950000e-01    3.766000e+00
  TN4d   SQ5  1 3.650000e-01    4.944000e+00
  TN4d   TQ5  1 3.400000e-01    6.796000e+00
  TN3d    Q5  1 3.950000e-01    3.516000e+00
  TN3d   SQ5  1 3.650000e-01    4.617000e+00
  TN3d   TQ5  1 3.400000e-01    6.431000e+00
  TN2d    Q5  1 3.950000e-01    3.502000e+00
  TN2d   SQ5  1 3.650000e-01    4.542000e+00
  TN2d   TQ5  1 3.400000e-01    6.266000e+00
  TN1d    Q5  1 3.950000e-01    3.232000e+00
  TN1d   SQ5  1 3.650000e-01    4.174000e+00
  TN1d   TQ5  1 3.400000e-01    5.810000e+00
  TP6a    Q5  1 3.950000e-01    4.950000e+00
  TP6a   SQ5  1 3.650000e-01    6.468000e+00
  TP6a   TQ5  1 3.400000e-01    8.696000e+00
  TP5a    Q5  1 3.950000e-01    4.625000e+00
  TP5a   SQ5  1 3.650000e-01    6.098000e+00
  TP5a   TQ5  1 3.400000e-01    8.240000e+00
  TP4a    Q5  1 3.950000e-01    4.609000e+00
  TP4a   SQ5  1 3.650000e-01    6.008000e+00
  TP4a   TQ5  1 3.400000e-01    8.042000e+00
  TP3a    Q5  1 3.950000e-01    4.279000e+00
  TP3a   SQ5  1 3.650000e-01    5.665000e+00
  TP3a   TQ5  1 3.400000e-01    7.674000e+00
  TP2a    Q5  1 3.950000e-01    4.272000e+00
  TP2a   SQ5  1 3.650000e-01    5.627000e+00
  TP2a   TQ5  1 3.400000e-01    7.592000e+00
  TP1a    Q5  1 3.950000e-01    4.027000e+00
  TP1a   SQ5  1 3.650000e-01    5.329000e+00
  TP1a   TQ5  1 3.400000e-01    7.299000e+00
  TN6a    Q5  1 3.950000e-01    4.021000e+00
  TN6a   SQ5  1 3.650000e-01    5.296000e+00
  TN6a   TQ5  1 3.400000e-01    7.228000e+00
  TN5a    Q5  1 3.950000e-01    3.774000e+00
  TN5a   SQ5  1 3.650000e-01    4.989000e+00
  TN5a   TQ5  1 3.400000e-01    6.895000e+00
  TN4a    Q5  1 3.950000e-01    3.766000e+00
  TN4a   SQ5  1 3.650000e-01    4.944000e+00
  TN4a   TQ5  1 3.400000e-01    6.796000e+00
  TN3a    Q5  1 3.950000e-01    3.516000e+00
  TN3a   SQ5  1 3.650000e-01    4.617000e+00
  TN3a   TQ5  1 3.400000e-01    6.431000e+00
  TN2a    Q5  1 3.950000e-01    3.502000e+00
  TN2a   SQ5  1 3.650000e-01    4.542000e+00
  TN2a   TQ5  1 3.400000e-01    6.266000e+00
  TN1a    Q5  1 3.950000e-01    3.232000e+00
  TN1a   SQ5  1 3.650000e-01    4.174000e+00
  TN1a   TQ5  1 3.400000e-01    5.810000e+00
  TC6v    Q5  1 3.950000e-01    2.371000e+00
  TC6v   SQ5  1 3.650000e-01    3.182000e+00
  TC6v   TQ5  1 3.400000e-01    4.380000e+00
  TC5v    Q5  1 3.990000e-01    1.414000e+00
  TC5v   SQ5  1 4.040000e-01    2.302000e+00
  TC5v   TQ5  1 4.110000e-01    3.162000e+00
  TC4v    Q5  1 4.010000e-01    1.180000e+00
  TC4v   SQ5  1 4.090000e-01    2.059000e+00
  TC4v   TQ5  1 4.240000e-01    2.712000e+00
  TC3v    Q5  1 4.040000e-01    9.670000e-01
  TC3v   SQ5  1 4.230000e-01    1.644000e+00
  TC3v   TQ5  1 4.380000e-01    2.043000e+00
  TC2v    Q5  1 5.110000e-01    7.300000e-01
  TC2v   SQ5  1 5.370000e-01    1.152000e+00
  TC2v   TQ5  1 5.610000e-01    1.304000e+00
  TC1v    Q5  1 5.110000e-01    6.750000e-01
  TC1v   SQ5  1 5.370000e-01    8.850000e-01
  TC1v   TQ5  1 5.610000e-01    7.820000e-01
  TX4v    Q5  1 3.950000e-01    2.129000e+00
  TX4v   SQ5  1 3.660000e-01    3.126000e+00
  TX4v   TQ5  1 3.520000e-01    4.301000e+00
  TX3v    Q5  1 3.950000e-01    1.931000e+00
  TX3v   SQ5  1 3.780000e-01    2.833000e+00
  TX3v   TQ5  1 3.660000e-01    3.862000e+00
  TX2v    Q5  1 3.980000e-01    1.668000e+00
  TX2v   SQ5  1 3.940000e-01    2.409000e+00
  TX2v   TQ5  1 3.850000e-01    3.202000e+00
  TX1v    Q5  1 3.990000e-01    1.319000e+00
  TX1v   SQ5  1 4.040000e-01    1.824000e+00
  TX1v   TQ5  1 4.110000e-01    2.199000e+00
  TC6e    Q5  1 3.950000e-01    2.371000e+00
  TC6e   SQ5  1 3.650000e-01    3.182000e+00
  TC6e   TQ5  1 3.400000e-01    4.380000e+00
  TC5e    Q5  1 3.990000e-01    1.414000e+00
  TC5e   SQ5  1 4.040000e-01    2.302000e+00
  TC5e   TQ5  1 4.110000e-01    3.162000e+00
  TC4e    Q5  1 4.010000e-01    1.180000e+00
  TC4e   SQ5  1 4.090000e-01    2.059000e+00
  TC4e   TQ5  1 4.240000e-01    2.712000e+00
  TC3e    Q5  1 4.040000e-01    9.670000e-01
  TC3e   SQ5  1 4.230000e-01    1.644000e+00
  TC3e   TQ5  1 4.380000e-01    2.043000e+00
  TC2e    Q5  1 5.110000e-01    7.300000e-01
  TC2e   SQ5  1 5.370000e-01    1.152000e+00
  TC2e   TQ5  1 5.610000e-01    1.304000e+00
  TC1e    Q5  1 5.110000e-01    6.750000e-01
  TC1e   SQ5  1 5.370000e-01    8.850000e-01
  TC1e   TQ5  1 5.610000e-01    7.820000e-01
  TX4e    Q5  1 3.950000e-01    2.129000e+00
  TX4e   SQ5  1 3.660000e-01    3.126000e+00
  TX4e   TQ5  1 3.520000e-01    4.301000e+00
  TX3e    Q5  1 3.950000e-01    1.931000e+00
  TX3e   SQ5  1 3.780000e-01    2.833000e+00
  TX3e   TQ5  1 3.660000e-01    3.862000e+00
  TX2e    Q5  1 3.980000e-01    1.668000e+00
  TX2e   SQ5  1 3.940000e-01    2.409000e+00
  TX2e   TQ5  1 3.850000e-01    3.202000e+00
  TX1e    Q5  1 3.990000e-01    1.319000e+00
  TX1e   SQ5  1 4.040000e-01    1.824000e+00
  TX1e   TQ5  1 4.110000e-01    2.199000e+00
  TP6q    Q5  1 3.950000e-01    5.680000e+00
  TP6q   SQ5  1 3.650000e-01    7.108000e+00
  TP6q   TQ5  1 3.400000e-01    9.246000e+00
  TP5q    Q5  1 3.950000e-01    5.665000e+00
  TP5q   SQ5  1 3.650000e-01    7.028000e+00
  TP5q   TQ5  1 3.400000e-01    9.070000e+00
  TP4q    Q5  1 3.950000e-01    5.649000e+00
  TP4q   SQ5  1 3.650000e-01    6.938000e+00
  TP4q   TQ5  1 3.400000e-01    8.872000e+00
  TP3q    Q5  1 3.950000e-01    5.239000e+00
  TP3q   SQ5  1 3.650000e-01    6.535000e+00
  TP3q   TQ5  1 3.400000e-01    8.474000e+00
  TP2q    Q5  1 3.950000e-01    5.232000e+00
  TP2q   SQ5  1 3.650000e-01    6.497000e+00
  TP2q   TQ5  1 3.400000e-01    8.392000e+00
  TP1q    Q5  1 3.950000e-01    4.897000e+00
  TP1q   SQ5  1 3.650000e-01    6.179000e+00
  TP1q   TQ5  1 3.400000e-01    8.059000e+00
  TN6q    Q5  1 3.950000e-01    4.891000e+00
  TN6q   SQ5  1 3.650000e-01    6.146000e+00
  TN6q   TQ5  1 3.400000e-01    7.988000e+00
  TN5q    Q5  1 3.950000e-01    4.574000e+00
  TN5q   SQ5  1 3.650000e-01    5.819000e+00
  TN5q   TQ5  1 3.400000e-01    7.625000e+00
  TN4q    Q5  1 3.950000e-01    4.566000e+00
  TN4q   SQ5  1 3.650000e-01    5.774000e+00
  TN4q   TQ5  1 3.400000e-01    7.526000e+00
  TN3q    Q5  1 3.950000e-01    4.236000e+00
  TN3q   SQ5  1 3.650000e-01    5.427000e+00
  TN3q   TQ5  1 3.400000e-01    7.151000e+00
  TN2q    Q5  1 3.950000e-01    4.222000e+00
  TN2q   SQ5  1 3.650000e-01    5.352000e+00
  TN2q   TQ5  1 3.400000e-01    6.986000e+00
  TN1q    Q5  1 3.950000e-01    3.962000e+00
  TN1q   SQ5  1 3.650000e-01    4.974000e+00
  TN1q   TQ5  1 3.400000e-01    6.520000e+00
  TC6q    Q5  1 3.950000e-01    2.761000e+00
  TC6q   SQ5  1 3.650000e-01    3.542000e+00
  TC6q   TQ5  1 3.400000e-01    4.920000e+00
  TC5q    Q5  1 3.950000e-01    1.906000e+00
  TC5q   SQ5  1 3.780000e-01    2.703000e+00
  TC5q   TQ5  1 3.660000e-01    3.586000e+00
  TC4q    Q5  1 3.980000e-01    1.648000e+00
  TC4q   SQ5  1 3.940000e-01    2.307000e+00
  TC4q   TQ5  1 3.850000e-01    2.987000e+00
  TC3q    Q5  1 3.990000e-01    1.319000e+00
  TC3q   SQ5  1 4.040000e-01    1.824000e+00
  TC3q   TQ5  1 4.110000e-01    2.199000e+00
  TC2q    Q5  1 4.040000e-01    9.200000e-01
  TC2q   SQ5  1 4.230000e-01    1.417000e+00
  TC2q   TQ5  1 4.380000e-01    1.595000e+00
  TC1q    Q5  1 4.040000e-01    8.500000e-01
  TC1q   SQ5  1 4.230000e-01    1.079000e+00
  TC1q   TQ5  1 4.380000e-01    9.250000e-01
  TX4q    Q5  1 3.950000e-01    2.589000e+00
  TX4q   SQ5  1 3.650000e-01    3.440000e+00
  TX4q   TQ5  1 3.400000e-01    4.875000e+00
  TX3q    Q5  1 3.950000e-01    2.371000e+00
  TX3q   SQ5  1 3.650000e-01    3.182000e+00
  TX3q   TQ5  1 3.400000e-01    4.380000e+00
  TX2q    Q5  1 3.950000e-01    2.070000e+00
  TX2q   SQ5  1 3.660000e-01    2.805000e+00
  TX2q   TQ5  1 3.520000e-01    3.617000e+00
  TX1q    Q5  1 3.950000e-01    1.810000e+00
  TX1q   SQ5  1 3.780000e-01    2.192000e+00
  TX1q   TQ5  1 3.660000e-01    2.505000e+00
 TP6dq    Q5  1 3.950000e-01    5.680000e+00
 TP6dq   SQ5  1 3.650000e-01    7.108000e+00
 TP6dq   TQ5  1 3.400000e-01    9.246000e+00
 TP5dq    Q5  1 3.950000e-01    5.665000e+00
 TP5dq   SQ5  1 3.650000e-01    7.028000e+00
 TP5dq   TQ5  1 3.400000e-01    9.070000e+00
 TP4dq    Q5  1 3.950000e-01    5.649000e+00
 TP4dq   SQ5  1 3.650000e-01    6.938000e+00
 TP4dq   TQ5  1 3.400000e-01    8.872000e+00
 TP3dq    Q5  1 3.950000e-01    5.239000e+00
 TP3dq   SQ5  1 3.650000e-01    6.535000e+00
 TP3dq   TQ5  1 3.400000e-01    8.474000e+00
 TP2dq    Q5  1 3.950000e-01    5.232000e+00
 TP2dq   SQ5  1 3.650000e-01    6.497000e+00
 TP2dq   TQ5  1 3.400000e-01    8.392000e+00
 TP1dq    Q5  1 3.950000e-01    4.897000e+00
 TP1dq   SQ5  1 3.650000e-01    6.179000e+00
 TP1dq   TQ5  1 3.400000e-01    8.059000e+00
 TN6dq    Q5  1 3.950000e-01    4.891000e+00
 TN6dq   SQ5  1 3.650000e-01    6.146000e+00
 TN6dq   TQ5  1 3.400000e-01    7.988000e+00
 TN5dq    Q5  1 3.950000e-01    4.574000e+00
 TN5dq   SQ5  1 3.650000e-01    5.819000e+00
 TN5dq   TQ5  1 3.400000e-01    7.625000e+00
 TN4dq    Q5  1 3.950000e-01    4.566000e+00
 TN4dq   SQ5  1 3.650000e-01    5.774000e+00
 TN4dq   TQ5  1 3.400000e-01    7.526000e+00
 TN3dq    Q5  1 3.950000e-01    4.236000e+00
 TN3dq   SQ5  1 3.650000e-01    5.427000e+00
 TN3dq   TQ5  1 3.400000e-01    7.151000e+00
 TN2dq    Q5  1 3.950000e-01    4.222000e+00
 TN2dq   SQ5  1 3.650000e-01    5.352000e+00
 TN2dq   TQ5  1 3.400000e-01    6.986000e+00
 TN1dq    Q5  1 3.950000e-01    3.962000e+00
 TN1dq   SQ5  1 3.650000e-01    4.974000e+00
 TN1dq   TQ5  1 3.400000e-01    6.520000e+00
 TP6aq    Q5  1 3.950000e-01    5.680000e+00
 TP6aq   SQ5  1 3.650000e-01    7.108000e+00
 TP6aq   TQ5  1 3.400000e-01    9.246000e+00
 TP5aq    Q5  1 3.950000e-01    5.665000e+00
 TP5aq   SQ5  1 3.650000e-01    7.028000e+00
 TP5aq   TQ5  1 3.400000e-01    9.070000e+00
 TP4aq    Q5  1 3.950000e-01    5.649000e+00
 TP4aq   SQ5  1 3.650000e-01    6.938000e+00
 TP4aq   TQ5  1 3.400000e-01    8.872000e+00
 TP3aq    Q5  1 3.950000e-01    5.239000e+00
 TP3aq   SQ5  1 3.650000e-01    6.535000e+00
 TP3aq   TQ5  1 3.400000e-01    8.474000e+00
 TP2aq    Q5  1 3.950000e-01    5.232000e+00
 TP2aq   SQ5  1 3.650000e-01    6.497000e+00
 TP2aq   TQ5  1 3.400000e-01    8.392000e+00
 TP1aq    Q5  1 3.950000e-01    4.897000e+00
 TP1aq   SQ5  1 3.650000e-01    6.179000e+00
 TP1aq   TQ5  1 3.400000e-01    8.059000e+00
 TN6aq    Q5  1 3.950000e-01    4.891000e+00
 TN6aq   SQ5  1 3.650000e-01    6.146000e+00
 TN6aq   TQ5  1 3.400000e-01    7.988000e+00
 TN5aq    Q5  1 3.950000e-01    4.574000e+00
 TN5aq   SQ5  1 3.650000e-01    5.819000e+00
 TN5aq   TQ5  1 3.400000e-01    7.625000e+00
 TN4aq    Q5  1 3.950000e-01    4.566000e+00
 TN4aq   SQ5  1 3.650000e-01    5.774000e+00
 TN4aq   TQ5  1 3.400000e-01    7.526000e+00
 TN3aq    Q5  1 3.950000e-01    4.236000e+00
 TN3aq   SQ5  1 3.650000e-01    5.427000e+00
 TN3aq   TQ5  1 3.400000e-01    7.151000e+00
 TN2aq    Q5  1 3.950000e-01    4.222000e+00
 TN2aq   SQ5  1 3.650000e-01    5.352000e+00
 TN2aq   TQ5  1 3.400000e-01    6.986000e+00
 TN1aq    Q5  1 3.950000e-01    3.962000e+00
 TN1aq   SQ5  1 3.650000e-01    4.974000e+00
 TN1aq   TQ5  1 3.400000e-01    6.520000e+00
 TC6vq    Q5  1 3.950000e-01    2.961000e+00
 TC6vq   SQ5  1 3.650000e-01    3.772000e+00
 TC6vq   TQ5  1 3.400000e-01    5.170000e+00
 TC5vq    Q5  1 3.950000e-01    2.086000e+00
 TC5vq   SQ5  1 3.660000e-01    2.894000e+00
 TC5vq   TQ5  1 3.520000e-01    3.807000e+00
 TC4vq    Q5  1 3.950000e-01    1.870000e+00
 TC4vq   SQ5  1 3.780000e-01    2.510000e+00
 TC4vq   TQ5  1 3.660000e-01    3.178000e+00
 TC3vq    Q5  1 3.980000e-01    1.589000e+00
 TC3vq   SQ5  1 3.940000e-01    2.001000e+00
 TC3vq   TQ5  1 3.850000e-01    2.347000e+00
 TC2vq    Q5  1 4.010000e-01    1.074000e+00
 TC2vq   SQ5  1 4.090000e-01    1.531000e+00
 TC2vq   TQ5  1 4.240000e-01    1.668000e+00
 TC1vq    Q5  1 4.010000e-01    1.003000e+00
 TC1vq   SQ5  1 4.090000e-01    1.182000e+00
 TC1vq   TQ5  1 4.240000e-01    9.770000e-01
 TX4vq    Q5  1 3.950000e-01    2.779000e+00
 TX4vq   SQ5  1 3.650000e-01    3.640000e+00
 TX4vq   TQ5  1 3.400000e-01    5.135000e+00
 TX3vq    Q5  1 3.950000e-01    2.571000e+00
 TX3vq   SQ5  1 3.650000e-01    3.342000e+00
 TX3vq   TQ5  1 3.400000e-01    4.660000e+00
 TX2vq    Q5  1 3.950000e-01    2.330000e+00
 TX2vq   SQ5  1 3.650000e-01    2.958000e+00
 TX2vq   TQ5  1 3.400000e-01    3.888000e+00
 TX1vq    Q5  1 3.950000e-01    1.990000e+00
 TX1vq   SQ5  1 3.660000e-01    2.366000e+00
 TX1vq   TQ5  1 3.520000e-01    2.682000e+00
 TC6eq    Q5  1 3.950000e-01    2.961000e+00
 TC6eq   SQ5  1 3.650000e-01    3.772000e+00
 TC6eq   TQ5  1 3.400000e-01    5.170000e+00
 TC5eq    Q5  1 3.950000e-01    2.086000e+00
 TC5eq   SQ5  1 3.660000e-01    2.894000e+00
 TC5eq   TQ5  1 3.520000e-01    3.807000e+00
 TC4eq    Q5  1 3.950000e-01    1.870000e+00
 TC4eq   SQ5  1 3.780000e-01    2.510000e+00
 TC4eq   TQ5  1 3.660000e-01    3.178000e+00
 TC3eq    Q5  1 3.980000e-01    1.589000e+00
 TC3eq   SQ5  1 3.940000e-01    2.001000e+00
 TC3eq   TQ5  1 3.850000e-01    2.347000e+00
 TC2eq    Q5  1 4.010000e-01    1.074000e+00
 TC2eq   SQ5  1 4.090000e-01    1.531000e+00
 TC2eq   TQ5  1 4.240000e-01    1.668000e+00
 TC1eq    Q5  1 4.010000e-01    1.003000e+00
 TC1eq   SQ5  1 4.090000e-01    1.182000e+00
 TC1eq   TQ5  1 4.240000e-01    9.770000e-01
 TX4eq    Q5  1 3.950000e-01    2.779000e+00
 TX4eq   SQ5  1 3.650000e-01    3.640000e+00
 TX4eq   TQ5  1 3.400000e-01    5.135000e+00
 TX3eq    Q5  1 3.950000e-01    2.571000e+00
 TX3eq   SQ5  1 3.650000e-01    3.342000e+00
 TX3eq   TQ5  1 3.400000e-01    4.660000e+00
 TX2eq    Q5  1 3.950000e-01    2.330000e+00
 TX2eq   SQ5  1 3.650000e-01    2.958000e+00
 TX2eq   TQ5  1 3.400000e-01    3.888000e+00
 TX1eq    Q5  1 3.950000e-01    1.990000e+00
 TX1eq   SQ5  1 3.660000e-01    2.366000e+00
 TX1eq   TQ5  1 3.520000e-01    2.682000e+00
  TP6h    Q5  1 3.950000e-01    4.950000e+00
  TP6h   SQ5  1 3.650000e-01    6.468000e+00
  TP6h   TQ5  1 3.400000e-01    8.696000e+00
  TP5h    Q5  1 3.950000e-01    4.625000e+00
  TP5h   SQ5  1 3.650000e-01    6.098000e+00
  TP5h   TQ5  1 3.400000e-01    8.240000e+00
  TP4h    Q5  1 3.950000e-01    4.609000e+00
  TP4h   SQ5  1 3.650000e-01    6.008000e+00
  TP4h   TQ5  1 3.400000e-01    8.042000e+00
  TP3h    Q5  1 3.950000e-01    4.279000e+00
  TP3h   SQ5  1 3.650000e-01    5.665000e+00
  TP3h   TQ5  1 3.400000e-01    7.674000e+00
  TP2h    Q5  1 3.950000e-01    4.272000e+00
  TP2h   SQ5  1 3.650000e-01    5.627000e+00
  TP2h   TQ5  1 3.400000e-01    7.592000e+00
  TP1h    Q5  1 3.950000e-01    4.027000e+00
  TP1h   SQ5  1 3.650000e-01    5.329000e+00
  TP1h   TQ5  1 3.400000e-01    7.299000e+00
  TN6h    Q5  1 3.950000e-01    4.021000e+00
  TN6h   SQ5  1 3.650000e-01    5.296000e+00
  TN6h   TQ5  1 3.400000e-01    7.228000e+00
  TN5h    Q5  1 3.950000e-01    3.774000e+00
  TN5h   SQ5  1 3.650000e-01    4.989000e+00
  TN5h   TQ5  1 3.400000e-01    6.895000e+00
  TN4h    Q5  1 3.950000e-01    3.766000e+00
  TN4h   SQ5  1 3.650000e-01    4.944000e+00
  TN4h   TQ5  1 3.400000e-01    6.796000e+00
  TN3h    Q5  1 3.950000e-01    3.516000e+00
  TN3h   SQ5  1 3.650000e-01    4.617000e+00
  TN3h   TQ5  1 3.400000e-01    6.431000e+00
  TN2h    Q5  1 3.950000e-01    3.502000e+00
  TN2h   SQ5  1 3.650000e-01    4.542000e+00
  TN2h   TQ5  1 3.400000e-01    6.266000e+00
  TN1h    Q5  1 3.950000e-01    3.232000e+00
  TN1h   SQ5  1 3.650000e-01    4.174000e+00
  TN1h   TQ5  1 3.400000e-01    5.810000e+00
  TC6h    Q5  1 3.950000e-01    2.111000e+00
  TC6h   SQ5  1 3.660000e-01    3.028000e+00
  TC6h   TQ5  1 3.520000e-01    4.093000e+00
  TC5h    Q5  1 4.010000e-01    1.216000e+00
  TC5h   SQ5  1 4.090000e-01    2.238000e+00
  TC5h   TQ5  1 4.240000e-01    3.064000e+00
  TC4h    Q5  1 4.040000e-01    1.026000e+00
  TC4h   SQ5  1 4.230000e-01    1.928000e+00
  TC4h   TQ5  1 4.380000e-01    2.605000e+00
  TC3h    Q5  1 4.650000e-01    8.220000e-01
  TC3h   SQ5  1 4.840000e-01    1.469000e+00
  TC3h   TQ5  1 5.050000e-01    1.818000e+00
  TC2h    Q5  1 5.240000e-01    6.980000e-01
  TC2h   SQ5  1 5.880000e-01    1.077000e+00
  TC2h   TQ5  1 5.990000e-01    1.252000e+00
  TC1h    Q5  1 5.240000e-01    6.450000e-01
  TC1h   SQ5  1 5.880000e-01    8.340000e-01
  TC1h   TQ5  1 5.990000e-01    7.620000e-01
  TX4h    Q5  1 3.950000e-01    1.949000e+00
  TX4h   SQ5  1 3.780000e-01    2.927000e+00
  TX4h   TQ5  1 3.660000e-01    4.061000e+00
  TX3h    Q5  1 3.980000e-01    1.709000e+00
  TX3h   SQ5  1 3.940000e-01    2.617000e+00
  TX3h   TQ5  1 3.850000e-01    3.637000e+00
  TX2h    Q5  1 3.990000e-01    1.398000e+00
  TX2h   SQ5  1 4.040000e-01    2.222000e+00
  TX2h   TQ5  1 4.110000e-01    3.000000e+00
  TX1h    Q5  1 4.010000e-01    1.121000e+00
  TX1h   SQ5  1 4.090000e-01    1.765000e+00
  TX1h   TQ5  1 4.240000e-01    2.131000e+00
 TP6dh    Q5  1 3.950000e-01    4.950000e+00
 TP6dh   SQ5  1 3.650000e-01    6.468000e+00
 TP6dh   TQ5  1 3.400000e-01    8.696000e+00
 TP5dh    Q5  1 3.950000e-01    4.625000e+00
 TP5dh   SQ5  1 3.650000e-01    6.098000e+00
 TP5dh   TQ5  1 3.400000e-01    8.240000e+00
 TP4dh    Q5  1 3.950000e-01    4.609000e+00
 TP4dh   SQ5  1 3.650000e-01    6.008000e+00
 TP4dh   TQ5  1 3.400000e-01    8.042000e+00
 TP3dh    Q5  1 3.950000e-01    4.279000e+00
 TP3dh   SQ5  1 3.650000e-01    5.665000e+00
 TP3dh   TQ5  1 3.400000e-01    7.674000e+00
 TP2dh    Q5  1 3.950000e-01    4.272000e+00
 TP2dh   SQ5  1 3.650000e-01    5.627000e+00
 TP2dh   TQ5  1 3.400000e-01    7.592000e+00
 TP1dh    Q5  1 3.950000e-01    4.027000e+00
 TP1dh   SQ5  1 3.650000e-01    5.329000e+00
 TP1dh   TQ5  1 3.400000e-01    7.299000e+00
 TN6dh    Q5  1 3.950000e-01    4.021000e+00
 TN6dh   SQ5  1 3.650000e-01    5.296000e+00
 TN6dh   TQ5  1 3.400000e-01    7.228000e+00
 TN5dh    Q5  1 3.950000e-01    3.774000e+00
 TN5dh   SQ5  1 3.650000e-01    4.989000e+00
 TN5dh   TQ5  1 3.400000e-01    6.895000e+00
 TN4dh    Q5  1 3.950000e-01    3.766000e+00
 TN4dh   SQ5  1 3.650000e-01    4.944000e+00
 TN4dh   TQ5  1 3.400000e-01    6.796000e+00
 TN3dh    Q5  1 3.950000e-01    3.516000e+00
 TN3dh   SQ5  1 3.650000e-01    4.617000e+00
 TN3dh   TQ5  1 3.400000e-01    6.431000e+00
 TN2dh    Q5  1 3.950000e-01    3.502000e+00
 TN2dh   SQ5  1 3.650000e-01    4.542000e+00
 TN2dh   TQ5  1 3.400000e-01    6.266000e+00
 TN1dh    Q5  1 3.950000e-01    3.232000e+00
 TN1dh   SQ5  1 3.650000e-01    4.174000e+00
 TN1dh   TQ5  1 3.400000e-01    5.810000e+00
 TP6ah    Q5  1 3.950000e-01    4.950000e+00
 TP6ah   SQ5  1 3.650000e-01    6.468000e+00
 TP6ah   TQ5  1 3.400000e-01    8.696000e+00
 TP5ah    Q5  1 3.950000e-01    4.625000e+00
 TP5ah   SQ5  1 3.650000e-01    6.098000e+00
 TP5ah   TQ5  1 3.400000e-01    8.240000e+00
 TP4ah    Q5  1 3.950000e-01    4.609000e+00
 TP4ah   SQ5  1 3.650000e-01    6.008000e+00
 TP4ah   TQ5  1 3.400000e-01    8.042000e+00
 TP3ah    Q5  1 3.950000e-01    4.279000e+00
 TP3ah   SQ5  1 3.650000e-01    5.665000e+00
 TP3ah   TQ5  1 3.400000e-01    7.674000e+00
 TP2ah    Q5  1 3.950000e-01    4.272000e+00
 TP2ah   SQ5  1 3.650000e-01    5.627000e+00
 TP2ah   TQ5  1 3.400000e-01    7.592000e+00
 TP1ah    Q5  1 3.950000e-01    4.027000e+00
 TP1ah   SQ5  1 3.650000e-01    5.329000e+00
 TP1ah   TQ5  1 3.400000e-01    7.299000e+00
 TN6ah    Q5  1 3.950000e-01    4.021000e+00
 TN6ah   SQ5  1 3.650000e-01    5.296000e+00
 TN6ah   TQ5  1 3.400000e-01    7.228000e+00
 TN5ah    Q5  1 3.950000e-01    3.774000e+00
 TN5ah   SQ5  1 3.650000e-01    4.989000e+00
 TN5ah   TQ5  1 3.400000e-01    6.895000e+00
 TN4ah    Q5  1 3.950000e-01    3.766000e+00
 TN4ah   SQ5  1 3.650000e-01    4.944000e+00
 TN4ah   TQ5  1 3.400000e-01    6.796000e+00
 TN3ah    Q5  1 3.950000e-01    3.516000e+00
 TN3ah   SQ5  1 3.650000e-01    4.617000e+00
 TN3ah   TQ5  1 3.400000e-01    6.431000e+00
 TN2ah    Q5  1 3.950000e-01    3.502000e+00
 TN2ah   SQ5  1 3.650000e-01    4.542000e+00
 TN2ah   TQ5  1 3.400000e-01    6.266000e+00
 TN1ah    Q5  1 3.950000e-01    3.232000e+00
 TN1ah   SQ5  1 3.650000e-01    4.174000e+00
 TN1ah   TQ5  1 3.400000e-01    5.810000e+00
 TC6vh    Q5  1 3.950000e-01    2.371000e+00
 TC6vh   SQ5  1 3.650000e-01    3.182000e+00
 TC6vh   TQ5  1 3.400000e-01    4.380000e+00
 TC5vh    Q5  1 3.990000e-01    1.414000e+00
 TC5vh   SQ5  1 4.040000e-01    2.302000e+00
 TC5vh   TQ5  1 4.110000e-01    3.162000e+00
 TC4vh    Q5  1 4.010000e-01    1.180000e+00
 TC4vh   SQ5  1 4.090000e-01    2.059000e+00
 TC4vh   TQ5  1 4.240000e-01    2.712000e+00
 TC3vh    Q5  1 4.040000e-01    9.670000e-01
 TC3vh   SQ5  1 4.230000e-01    1.644000e+00
 TC3vh   TQ5  1 4.380000e-01    2.043000e+00
 TC2vh    Q5  1 5.110000e-01    7.300000e-01
 TC2vh   SQ5  1 5.370000e-01    1.152000e+00
 TC2vh   TQ5  1 5.610000e-01    1.304000e+00
 TC1vh    Q5  1 5.110000e-01    6.750000e-01
 TC1vh   SQ5  1 5.370000e-01    8.850000e-01
 TC1vh   TQ5  1 5.610000e-01    7.820000e-01
 TX4vh    Q5  1 3.950000e-01    2.129000e+00
 TX4vh   SQ5  1 3.660000e-01    3.126000e+00
 TX4vh   TQ5  1 3.520000e-01    4.301000e+00
 TX3vh    Q5  1 3.950000e-01    1.931000e+00
 TX3vh   SQ5  1 3.780000e-01    2.833000e+00
 TX3vh   TQ5  1 3.660000e-01    3.862000e+00
 TX2vh    Q5  1 3.980000e-01    1.668000e+00
 TX2vh   SQ5  1 3.940000e-01    2.409000e+00
 TX2vh   TQ5  1 3.850000e-01    3.202000e+00
 TX1vh    Q5  1 3.990000e-01    1.319000e+00
 TX1vh   SQ5  1 4.040000e-01    1.824000e+00
 TX1vh   TQ5  1 4.110000e-01    2.199000e+00
 TC6eh    Q5  1 3.950000e-01    2.371000e+00
 TC6eh   SQ5  1 3.650000e-01    3.182000e+00
 TC6eh   TQ5  1 3.400000e-01    4.380000e+00
 TC5eh    Q5  1 3.990000e-01    1.414000e+00
 TC5eh   SQ5  1 4.040000e-01    2.302000e+00
 TC5eh   TQ5  1 4.110000e-01    3.162000e+00
 TC4eh    Q5  1 4.010000e-01    1.180000e+00
 TC4eh   SQ5  1 4.090000e-01    2.059000e+00
 TC4eh   TQ5  1 4.240000e-01    2.712000e+00
 TC3eh    Q5  1 4.040000e-01    9.670000e-01
 TC3eh   SQ5  1 4.230000e-01    1.644000e+00
 TC3eh   TQ5  1 4.380000e-01    2.043000e+00
 TC2eh    Q5  1 5.110000e-01    7.300000e-01
 TC2eh   SQ5  1 5.370000e-01    1.152000e+00
 TC2eh   TQ5  1 5.610000e-01    1.304000e+00
 TC1eh    Q5  1 5.110000e-01    6.750000e-01
 TC1eh   SQ5  1 5.370000e-01    8.850000e-01
 TC1eh   TQ5  1 5.610000e-01    7.820000e-01
 TX4eh    Q5  1 3.950000e-01    2.129000e+00
 TX4eh   SQ5  1 3.660000e-01    3.126000e+00
 TX4eh   TQ5  1 3.520000e-01    4.301000e+00
 TX3eh    Q5  1 3.950000e-01    1.931000e+00
 TX3eh   SQ5  1 3.780000e-01    2.833000e+00
 TX3eh   TQ5  1 3.660000e-01    3.862000e+00
 TX2eh    Q5  1 3.980000e-01    1.668000e+00
 TX2eh   SQ5  1 3.940000e-01    2.409000e+00
 TX2eh   TQ5  1 3.850000e-01    3.202000e+00
 TX1eh    Q5  1 3.990000e-01    1.319000e+00
 TX1eh   SQ5  1 4.040000e-01    1.824000e+00
 TX1eh   TQ5  1 4.110000e-01    2.199000e+00
  TP6r    Q5  1 3.950000e-01    4.950000e+00
  TP6r   SQ5  1 3.650000e-01    6.468000e+00
  TP6r   TQ5  1 3.400000e-01    8.696000e+00
  TP5r    Q5  1 3.950000e-01    4.625000e+00
  TP5r   SQ5  1 3.650000e-01    6.098000e+00
  TP5r   TQ5  1 3.400000e-01    8.240000e+00
  TP4r    Q5  1 3.950000e-01    4.609000e+00
  TP4r   SQ5  1 3.650000e-01    6.008000e+00
  TP4r   TQ5  1 3.400000e-01    8.042000e+00
  TP3r    Q5  1 3.950000e-01    4.279000e+00
  TP3r   SQ5  1 3.650000e-01    5.665000e+00
  TP3r   TQ5  1 3.400000e-01    7.674000e+00
  TP2r    Q5  1 3.950000e-01    4.272000e+00
  TP2r   SQ5  1 3.650000e-01    5.627000e+00
  TP2r   TQ5  1 3.400000e-01    7.592000e+00
  TP1r    Q5  1 3.950000e-01    4.027000e+00
  TP1r   SQ5  1 3.650000e-01    5.329000e+00
  TP1r   TQ5  1 3.400000e-01    7.299000e+00
  TN6r    Q5  1 3.950000e-01    4.021000e+00
  TN6r   SQ5  1 3.650000e-01    5.296000e+00
  TN6r   TQ5  1 3.400000e-01    7.228000e+00
  TN5r    Q5  1 3.950000e-01    3.774000e+00
  TN5r   SQ5  1 3.650000e-01    4.989000e+00
  TN5r   TQ5  1 3.400000e-01    6.895000e+00
  TN4r    Q5  1 3.950000e-01    3.766000e+00
  TN4r   SQ5  1 3.650000e-01    4.944000e+00
  TN4r   TQ5  1 3.400000e-01    6.796000e+00
  TN3r    Q5  1 3.950000e-01    3.516000e+00
  TN3r   SQ5  1 3.650000e-01    4.617000e+00
  TN3r   TQ5  1 3.400000e-01    6.431000e+00
  TN2r    Q5  1 3.950000e-01    3.502000e+00
  TN2r   SQ5  1 3.650000e-01    4.542000e+00
  TN2r   TQ5  1 3.400000e-01    6.266000e+00
  TN1r    Q5  1 3.950000e-01    3.232000e+00
  TN1r   SQ5  1 3.650000e-01    4.174000e+00
  TN1r   TQ5  1 3.400000e-01    5.810000e+00
  TC6r    Q5  1 3.950000e-01    2.111000e+00
  TC6r   SQ5  1 3.660000e-01    3.028000e+00
  TC6r   TQ5  1 3.520000e-01    4.093000e+00
  TC5r    Q5  1 4.010000e-01    1.216000e+00
  TC5r   SQ5  1 4.090000e-01    2.238000e+00
  TC5r   TQ5  1 4.240000e-01    3.064000e+00
  TC4r    Q5  1 4.040000e-01    1.026000e+00
  TC4r   SQ5  1 4.230000e-01    1.928000e+00
  TC4r   TQ5  1 4.380000e-01    2.605000e+00
  TC3r    Q5  1 4.650000e-01    8.220000e-01
  TC3r   SQ5  1 4.840000e-01    1.469000e+00
  TC3r   TQ5  1 5.050000e-01    1.818000e+00
  TC2r    Q5  1 5.240000e-01    6.980000e-01
  TC2r   SQ5  1 5.880000e-01    1.077000e+00
  TC2r   TQ5  1 5.990000e-01    1.252000e+00
  TC1r    Q5  1 5.240000e-01    6.450000e-01
  TC1r   SQ5  1 5.880000e-01    8.340000e-01
  TC1r   TQ5  1 5.990000e-01    7.620000e-01
  TX4r    Q5  1 3.950000e-01    1.949000e+00
  TX4r   SQ5  1 3.780000e-01    2.927000e+00
  TX4r   TQ5  1 3.660000e-01    4.061000e+00
  TX3r    Q5  1 3.980000e-01    1.709000e+00
  TX3r   SQ5  1 3.940000e-01    2.617000e+00
  TX3r   TQ5  1 3.850000e-01    3.637000e+00
  TX2r    Q5  1 3.990000e-01    1.398000e+00
  TX2r   SQ5  1 4.040000e-01    2.222000e+00
  TX2r   TQ5  1 4.110000e-01    3.000000e+00
  TX1r    Q5  1 4.010000e-01    1.121000e+00
  TX1r   SQ5  1 4.090000e-01    1.765000e+00
  TX1r   TQ5  1 4.240000e-01    2.131000e+00
 TP6dr    Q5  1 3.950000e-01    4.950000e+00
 TP6dr   SQ5  1 3.650000e-01    6.468000e+00
 TP6dr   TQ5  1 3.400000e-01    8.696000e+00
 TP5dr    Q5  1 3.950000e-01    4.625000e+00
 TP5dr   SQ5  1 3.650000e-01    6.098000e+00
 TP5dr   TQ5  1 3.400000e-01    8.240000e+00
 TP4dr    Q5  1 3.950000e-01    4.609000e+00
 TP4dr   SQ5  1 3.650000e-01    6.008000e+00
 TP4dr   TQ5  1 3.400000e-01    8.042000e+00
 TP3dr    Q5  1 3.950000e-01    4.279000e+00
 TP3dr   SQ5  1 3.650000e-01    5.665000e+00
 TP3dr   TQ5  1 3.400000e-01    7.674000e+00
 TP2dr    Q5  1 3.950000e-01    4.272000e+00
 TP2dr   SQ5  1 3.650000e-01    5.627000e+00
 TP2dr   TQ5  1 3.400000e-01    7.592000e+00
 TP1dr    Q5  1 3.950000e-01    4.027000e+00
 TP1dr   SQ5  1 3.650000e-01    5.329000e+00
 TP1dr   TQ5  1 3.400000e-01    7.299000e+00
 TN6dr    Q5  1 3.950000e-01    4.021000e+00
 TN6dr   SQ5  1 3.650000e-01    5.296000e+00
 TN6dr   TQ5  1 3.400000e-01    7.228000e+00
 TN5dr    Q5  1 3.950000e-01    3.774000e+00
 TN5dr   SQ5  1 3.650000e-01    4.989000e+00
 TN5dr   TQ5  1 3.400000e-01    6.895000e+00
 TN4dr    Q5  1 3.950000e-01    3.766000e+00
 TN4dr   SQ5  1 3.650000e-01    4.944000e+00
 TN4dr   TQ5  1 3.400000e-01    6.796000e+00
 TN3dr    Q5  1 3.950000e-01    3.516000e+00
 TN3dr   SQ5  1 3.650000e-01    4.617000e+00
 TN3dr   TQ5  1 3.400000e-01    6.431000e+00
 TN2dr    Q5  1 3.950000e-01    3.502000e+00
 TN2dr   SQ5  1 3.650000e-01    4.542000e+00
 TN2dr   TQ5  1 3.400000e-01    6.266000e+00
 TN1dr    Q5  1 3.950000e-01    3.232000e+00
 TN1dr   SQ5  1 3.650000e-01    4.174000e+00
 TN1dr   TQ5  1 3.400000e-01    5.810000e+00
 TP6ar    Q5  1 3.950000e-01    4.950000e+00
 TP6ar   SQ5  1 3.650000e-01    6.468000e+00
 TP6ar   TQ5  1 3.400000e-01    8.696000e+00
 TP5ar    Q5  1 3.950000e-01    4.625000e+00
 TP5ar   SQ5  1 3.650000e-01    6.098000e+00
 TP5ar   TQ5  1 3.400000e-01    8.240000e+00
 TP4ar    Q5  1 3.950000e-01    4.609000e+00
 TP4ar   SQ5  1 3.650000e-01    6.008000e+00
 TP4ar   TQ5  1 3.400000e-01    8.042000e+00
 TP3ar    Q5  1 3.950000e-01    4.279000e+00
 TP3ar   SQ5  1 3.650000e-01    5.665000e+00
 TP3ar   TQ5  1 3.400000e-01    7.674000e+00
 TP2ar    Q5  1 3.950000e-01    4.272000e+00
 TP2ar   SQ5  1 3.650000e-01    5.627000e+00
 TP2ar   TQ5  1 3.400000e-01    7.592000e+00
 TP1ar    Q5  1 3.950000e-01    4.027000e+00
 TP1ar   SQ5  1 3.650000e-01    5.329000e+00
 TP1ar   TQ5  1 3.400000e-01    7.299000e+00
 TN6ar    Q5  1 3.950000e-01    4.021000e+00
 TN6ar   SQ5  1 3.650000e-01    5.296000e+00
 TN6ar   TQ5  1 3.400000e-01    7.228000e+00
 TN5ar    Q5  1 3.950000e-01    3.774000e+00
 TN5ar   SQ5  1 3.650000e-01    4.989000e+00
 TN5ar   TQ5  1 3.400000e-01    6.895000e+00
 TN4ar    Q5  1 3.950000e-01    3.766000e+00
 TN4ar   SQ5  1 3.650000e-01    4.944000e+00
 TN4ar   TQ5  1 3.400000e-01    6.796000e+00
 TN3ar    Q5  1 3.950000e-01    3.516000e+00
 TN3ar   SQ5  1 3.650000e-01    4.617000e+00
 TN3ar   TQ5  1 3.400000e-01    6.431000e+00
 TN2ar    Q5  1 3.950000e-01    3.502000e+00
 TN2ar   SQ5  1 3.650000e-01    4.542000e+00
 TN2ar   TQ5  1 3.400000e-01    6.266000e+00
 TN1ar    Q5  1 3.950000e-01    3.232000e+00
 TN1ar   SQ5  1 3.650000e-01    4.174000e+00
 TN1ar   TQ5  1 3.400000e-01    5.810000e+00
 TC6vr    Q5  1 3.950000e-01    2.371000e+00
 TC6vr   SQ5  1 3.650000e-01    3.182000e+00
 TC6vr   TQ5  1 3.400000e-01    4.380000e+00
 TC5vr    Q5  1 3.990000e-01    1.414000e+00
 TC5vr   SQ5  1 4.040000e-01    2.302000e+00
 TC5vr   TQ5  1 4.110000e-01    3.162000e+00
 TC4vr    Q5  1 4.010000e-01    1.180000e+00
 TC4vr   SQ5  1 4.090000e-01    2.059000e+00
 TC4vr   TQ5  1 4.240000e-01    2.712000e+00
 TC3vr    Q5  1 4.040000e-01    9.670000e-01
 TC3vr   SQ5  1 4.230000e-01    1.644000e+00
 TC3vr   TQ5  1 4.380000e-01    2.043000e+00
 TC2vr    Q5  1 5.110000e-01    7.300000e-01
 TC2vr   SQ5  1 5.370000e-01    1.152000e+00
 TC2vr   TQ5  1 5.610000e-01    1.304000e+00
 TC1vr    Q5  1 5.110000e-01    6.750000e-01
 TC1vr   SQ5  1 5.370000e-01    8.850000e-01
 TC1vr   TQ5  1 5.610000e-01    7.820000e-01
 TX4vr    Q5  1 3.950000e-01    2.129000e+00
 TX4vr   SQ5  1 3.660000e-01    3.126000e+00
 TX4vr   TQ5  1 3.520000e-01    4.301000e+00
 TX3vr    Q5  1 3.950000e-01    1.931000e+00
 TX3vr   SQ5  1 3.780000e-01    2.833000e+00
 TX3vr   TQ5  1 3.660000e-01    3.862000e+00
 TX2vr    Q5  1 3.980000e-01    1.668000e+00
 TX2vr   SQ5  1 3.940000e-01    2.409000e+00
 TX2vr   TQ5  1 3.850000e-01    3.202000e+00
 TX1vr    Q5  1 3.990000e-01    1.319000e+00
 TX1vr   SQ5  1 4.040000e-01    1.824000e+00
 TX1vr   TQ5  1 4.110000e-01    2.199000e+00
 TC6er    Q5  1 3.950000e-01    2.371000e+00
 TC6er   SQ5  1 3.650000e-01    3.182000e+00
 TC6er   TQ5  1 3.400000e-01    4.380000e+00
 TC5er    Q5  1 3.990000e-01    1.414000e+00
 TC5er   SQ5  1 4.040000e-01    2.302000e+00
 TC5er   TQ5  1 4.110000e-01    3.162000e+00
 TC4er    Q5  1 4.010000e-01    1.180000e+00
 TC4er   SQ5  1 4.090000e-01    2.059000e+00
 TC4er   TQ5  1 4.240000e-01    2.712000e+00
 TC3er    Q5  1 4.040000e-01    9.670000e-01
 TC3er   SQ5  1 4.230000e-01    1.644000e+00
 TC3er   TQ5  1 4.380000e-01    2.043000e+00
 TC2er    Q5  1 5.110000e-01    7.300000e-01
 TC2er   SQ5  1 5.370000e-01    1.152000e+00
 TC2er   TQ5  1 5.610000e-01    1.304000e+00
 TC1er    Q5  1 5.110000e-01    6.750000e-01
 TC1er   SQ5  1 5.370000e-01    8.850000e-01
 TC1er   TQ5  1 5.610000e-01    7.820000e-01
 TX4er    Q5  1 3.950000e-01    2.129000e+00
 TX4er   SQ5  1 3.660000e-01    3.126000e+00
 TX4er   TQ5  1 3.520000e-01    4.301000e+00
 TX3er    Q5  1 3.950000e-01    1.931000e+00
 TX3er   SQ5  1 3.780000e-01    2.833000e+00
 TX3er   TQ5  1 3.660000e-01    3.862000e+00
 TX2er    Q5  1 3.980000e-01    1.668000e+00
 TX2er   SQ5  1 3.940000e-01    2.409000e+00
 TX2er   TQ5  1 3.850000e-01    3.202000e+00
 TX1er    Q5  1 3.990000e-01    1.319000e+00
 TX1er   SQ5  1 4.040000e-01    1.824000e+00
 TX1er   TQ5  1 4.110000e-01    2.199000e+00
    P6   Q5p  1 4.700000e-01    5.986000e+00
    P6  SQ5p  1 4.300000e-01    7.647000e+00
    P6  TQ5p  1 3.950000e-01    1.084700e+01
    P5   Q5p  1 4.700000e-01    5.716000e+00
    P5  SQ5p  1 4.300000e-01    7.335000e+00
    P5  TQ5p  1 3.950000e-01    1.036900e+01
    P4   Q5p  1 4.700000e-01    5.693000e+00
    P4  SQ5p  1 4.300000e-01    7.249000e+00
    P4  TQ5p  1 3.950000e-01    1.017200e+01
    P3   Q5p  1 4.700000e-01    5.418000e+00
    P3  SQ5p  1 4.300000e-01    6.917000e+00
    P3  TQ5p  1 3.950000e-01    9.729000e+00
    P2   Q5p  1 4.700000e-01    5.408000e+00
    P2  SQ5p  1 4.300000e-01    6.879000e+00
    P2  TQ5p  1 3.950000e-01    9.642000e+00
    P1   Q5p  1 4.700000e-01    5.150000e+00
    P1  SQ5p  1 4.300000e-01    6.620000e+00
    P1  TQ5p  1 3.950000e-01    9.335000e+00
    N6   Q5p  1 4.700000e-01    5.141000e+00
    N6  SQ5p  1 4.300000e-01    6.586000e+00
    N6  TQ5p  1 3.950000e-01    9.257000e+00
    N5   Q5p  1 4.700000e-01    4.900000e+00
    N5  SQ5p  1 4.300000e-01    6.347000e+00
    N5  TQ5p  1 3.950000e-01    8.926000e+00
    N4   Q5p  1 4.700000e-01    4.887000e+00
    N4  SQ5p  1 4.300000e-01    6.299000e+00
    N4  TQ5p  1 3.950000e-01    8.815000e+00
    N3   Q5p  1 4.700000e-01    4.680000e+00
    N3  SQ5p  1 4.300000e-01    6.038000e+00
    N3  TQ5p  1 3.950000e-01    8.435000e+00
    N2   Q5p  1 4.700000e-01    4.658000e+00
    N2  SQ5p  1 4.300000e-01    5.957000e+00
    N2  TQ5p  1 3.950000e-01    8.247000e+00
    N1   Q5p  1 4.700000e-01    4.446000e+00
    N1  SQ5p  1 4.300000e-01    5.659000e+00
    N1  TQ5p  1 3.950000e-01    7.725000e+00
    C6   Q5p  1 4.700000e-01    3.754000e+00
    C6  SQ5p  1 4.300000e-01    4.649000e+00
    C6  TQ5p  1 3.950000e-01    6.456000e+00
    C5   Q5p  1 4.700000e-01    3.093000e+00
    C5  SQ5p  1 4.300000e-01    3.660000e+00
    C5  TQ5p  1 3.990000e-01    5.140000e+00
    C4   Q5p  1 4.700000e-01    2.852000e+00
    C4  SQ5p  1 4.300000e-01    3.238000e+00
    C4  TQ5p  1 4.010000e-01    4.419000e+00
    C3   Q5p  1 4.850000e-01    2.543000e+00
    C3  SQ5p  1 4.430000e-01    2.588000e+00
    C3  TQ5p  1 4.040000e-01    3.412000e+00
    C2   Q5p  1 5.700000e-01    2.192000e+00
    C2  SQ5p  1 5.140000e-01    1.821000e+00
    C2  TQ5p  1 5.110000e-01    2.179000e+00
    C1   Q5p  1 5.700000e-01    2.093000e+00
    C1  SQ5p  1 5.140000e-01    1.456000e+00
    C1  TQ5p  1 5.110000e-01    1.398000e+00
    X4   Q5p  1 4.700000e-01    3.613000e+00
    X4  SQ5p  1 4.300000e-01    4.517000e+00
    X4  TQ5p  1 3.950000e-01    6.445000e+00
    X3   Q5p  1 4.700000e-01    3.474000e+00
    X3  SQ5p  1 4.300000e-01    4.199000e+00
    X3  TQ5p  1 3.950000e-01    6.016000e+00
    X2   Q5p  1 4.700000e-01    3.236000e+00
    X2  SQ5p  1 4.300000e-01    3.791000e+00
    X2  TQ5p  1 3.980000e-01    5.194000e+00
    X1   Q5p  1 4.700000e-01    2.932000e+00
    X1  SQ5p  1 4.300000e-01    3.072000e+00
    X1  TQ5p  1 3.990000e-01    3.794000e+00
   P6d   Q5p  1 4.700000e-01    5.476000e+00
   P6d  SQ5p  1 4.300000e-01    7.127000e+00
   P6d  TQ5p  1 3.950000e-01    1.053700e+01
   P5d   Q5p  1 4.700000e-01    5.206000e+00
   P5d  SQ5p  1 4.300000e-01    6.825000e+00
   P5d  TQ5p  1 3.950000e-01    1.004900e+01
   P4d   Q5p  1 4.700000e-01    5.183000e+00
   P4d  SQ5p  1 4.300000e-01    6.739000e+00
   P4d  TQ5p  1 3.950000e-01    9.852000e+00
   P3d   Q5p  1 4.700000e-01    4.938000e+00
   P3d  SQ5p  1 4.300000e-01    6.487000e+00
   P3d  TQ5p  1 3.950000e-01    9.489000e+00
   P2d   Q5p  1 4.700000e-01    4.928000e+00
   P2d  SQ5p  1 4.300000e-01    6.449000e+00
   P2d  TQ5p  1 3.950000e-01    9.402000e+00
   P1d   Q5p  1 4.700000e-01    4.730000e+00
   P1d  SQ5p  1 4.300000e-01    6.220000e+00
   P1d  TQ5p  1 3.950000e-01    9.095000e+00
   N6d   Q5p  1 4.700000e-01    4.721000e+00
   N6d  SQ5p  1 4.300000e-01    6.186000e+00
   N6d  TQ5p  1 3.950000e-01    9.017000e+00
   N5d   Q5p  1 4.700000e-01    4.530000e+00
   N5d  SQ5p  1 4.300000e-01    5.967000e+00
   N5d  TQ5p  1 3.950000e-01    8.686000e+00
   N4d   Q5p  1 4.700000e-01    4.517000e+00
   N4d  SQ5p  1 4.300000e-01    5.919000e+00
   N4d  TQ5p  1 3.950000e-01    8.575000e+00
   N3d   Q5p  1 4.700000e-01    4.500000e+00
   N3d  SQ5p  1 4.300000e-01    5.858000e+00
   N3d  TQ5p  1 3.950000e-01    8.435000e+00
   N2d   Q5p  1 4.700000e-01    4.478000e+00
   N2d  SQ5p  1 4.300000e-01    5.777000e+00
   N2d  TQ5p  1 3.950000e-01    8.247000e+00
   N1d   Q5p  1 4.700000e-01    4.086000e+00
   N1d  SQ5p  1 4.300000e-01    5.229000e+00
   N1d  TQ5p  1 3.950000e-01    7.485000e+00
   P6a   Q5p  1 4.700000e-01    6.236000e+00
   P6a  SQ5p  1 4.300000e-01    7.937000e+00
   P6a  TQ5p  1 3.950000e-01    1.157700e+01
   P5a   Q5p  1 4.700000e-01    5.966000e+00
   P5a  SQ5p  1 4.300000e-01    7.575000e+00
   P5a  TQ5p  1 3.950000e-01    1.100900e+01
   P4a   Q5p  1 4.700000e-01    5.943000e+00
   P4a  SQ5p  1 4.300000e-01    7.489000e+00
   P4a  TQ5p  1 3.950000e-01    1.081200e+01
   P3a   Q5p  1 4.700000e-01    5.678000e+00
   P3a  SQ5p  1 4.300000e-01    7.197000e+00
   P3a  TQ5p  1 3.950000e-01    1.035900e+01
   P2a   Q5p  1 4.700000e-01    5.668000e+00
   P2a  SQ5p  1 4.300000e-01    7.159000e+00
   P2a  TQ5p  1 3.950000e-01    1.027200e+01
   P1a   Q5p  1 4.700000e-01    5.400000e+00
   P1a  SQ5p  1 4.300000e-01    6.850000e+00
   P1a  TQ5p  1 3.950000e-01    9.895000e+00
   N6a   Q5p  1 4.700000e-01    5.391000e+00
   N6a  SQ5p  1 4.300000e-01    6.816000e+00
   N6a  TQ5p  1 3.950000e-01    9.817000e+00
   N5a   Q5p  1 4.700000e-01    5.130000e+00
   N5a  SQ5p  1 4.300000e-01    6.547000e+00
   N5a  TQ5p  1 3.950000e-01    9.406000e+00
   N4a   Q5p  1 4.700000e-01    5.117000e+00
   N4a  SQ5p  1 4.300000e-01    6.499000e+00
   N4a  TQ5p  1 3.950000e-01    9.295000e+00
   N3a   Q5p  1 4.700000e-01    4.870000e+00
   N3a  SQ5p  1 4.300000e-01    6.238000e+00
   N3a  TQ5p  1 3.950000e-01    8.915000e+00
   N2a   Q5p  1 4.700000e-01    4.848000e+00
   N2a  SQ5p  1 4.300000e-01    6.157000e+00
   N2a  TQ5p  1 3.950000e-01    8.727000e+00
   N1a   Q5p  1 4.700000e-01    4.626000e+00
   N1a  SQ5p  1 4.300000e-01    5.839000e+00
   N1a  TQ5p  1 3.950000e-01    8.215000e+00
   C6v   Q5p  1 4.700000e-01    3.304000e+00
   C6v  SQ5p  1 4.300000e-01    4.039000e+00
   C6v  TQ5p  1 3.950000e-01    6.016000e+00
   C5v   Q5p  1 5.200000e-01    2.548000e+00
   C5v  SQ5p  1 4.730000e-01    2.853000e+00
   C5v  TQ5p  1 4.040000e-01    4.741000e+00
   C4v   Q5p  1 5.700000e-01    2.340000e+00
   C4v  SQ5p  1 5.080000e-01    2.387000e+00
   C4v  TQ5p  1 4.650000e-01    3.666000e+00
   C3v   Q5p  1 6.200000e-01    2.197000e+00
   C3v  SQ5p  1 5.140000e-01    2.065000e+00
   C3v  TQ5p  1 5.110000e-01    2.700000e+00
   C2v   Q5p  1 6.200000e-01    2.136000e+00
   C2v  SQ5p  1 5.520000e-01    1.672000e+00
   C2v  TQ5p  1 5.240000e-01    2.111000e+00
   C1v   Q5p  1 6.200000e-01    2.046000e+00
   C1v  SQ5p  1 5.520000e-01    1.332000e+00
   C1v  TQ5p  1 5.240000e-01    1.350000e+00
   X4v   Q5p  1 4.700000e-01    3.163000e+00
   X4v  SQ5p  1 4.300000e-01    3.917000e+00
   X4v  TQ5p  1 3.980000e-01    6.010000e+00
   X3v   Q5p  1 4.700000e-01    2.954000e+00
   X3v  SQ5p  1 4.300000e-01    3.609000e+00
   X3v  TQ5p  1 3.990000e-01    5.482000e+00
   X2v   Q5p  1 4.850000e-01    2.672000e+00
   X2v  SQ5p  1 4.430000e-01    3.063000e+00
   X2v  TQ5p  1 4.010000e-01    4.699000e+00
   X1v   Q5p  1 5.200000e-01    2.402000e+00
   X1v  SQ5p  1 4.730000e-01    2.318000e+00
   X1v  TQ5p  1 4.040000e-01    3.412000e+00
   C6e   Q5p  1 4.700000e-01    3.754000e+00
   C6e  SQ5p  1 4.300000e-01    4.799000e+00
   C6e  TQ5p  1 3.950000e-01    6.656000e+00
   C5e   Q5p  1 4.700000e-01    3.093000e+00
   C5e  SQ5p  1 4.300000e-01    3.660000e+00
   C5e  TQ5p  1 3.980000e-01    5.420000e+00
   C4e   Q5p  1 4.700000e-01    2.852000e+00
   C4e  SQ5p  1 4.300000e-01    3.238000e+00
   C4e  TQ5p  1 3.990000e-01    4.633000e+00
   C3e   Q5p  1 4.850000e-01    2.543000e+00
   C3e  SQ5p  1 4.430000e-01    2.588000e+00
   C3e  TQ5p  1 4.010000e-01    3.584000e+00
   C2e   Q5p  1 6.200000e-01    2.136000e+00
   C2e  SQ5p  1 5.080000e-01    1.830000e+00
   C2e  TQ5p  1 4.650000e-01    2.373000e+00
   C1e   Q5p  1 6.200000e-01    2.046000e+00
   C1e  SQ5p  1 5.080000e-01    1.460000e+00
   C1e  TQ5p  1 4.650000e-01    1.516000e+00
   X4e   Q5p  1 4.700000e-01    3.613000e+00
   X4e  SQ5p  1 4.300000e-01    4.517000e+00
   X4e  TQ5p  1 3.950000e-01    6.705000e+00
   X3e   Q5p  1 4.700000e-01    3.474000e+00
   X3e  SQ5p  1 4.300000e-01    4.199000e+00
   X3e  TQ5p  1 3.950000e-01    6.196000e+00
   X2e   Q5p  1 4.700000e-01    3.236000e+00
   X2e  SQ5p  1 4.300000e-01    3.791000e+00
   X2e  TQ5p  1 3.950000e-01    5.442000e+00
   X1e   Q5p  1 4.700000e-01    2.932000e+00
   X1e  SQ5p  1 4.300000e-01    3.072000e+00
   X1e  TQ5p  1 3.980000e-01    4.071000e+00
   P6q   Q5p  1 4.700000e-01    6.536000e+00
   P6q  SQ5p  1 4.300000e-01    8.237000e+00
   P6q  TQ5p  1 3.950000e-01    1.157700e+01
   P5q   Q5p  1 4.700000e-01    6.516000e+00
   P5q  SQ5p  1 4.300000e-01    8.165000e+00
   P5q  TQ5p  1 3.950000e-01    1.140900e+01
   P4q   Q5p  1 4.700000e-01    6.493000e+00
   P4q  SQ5p  1 4.300000e-01    8.079000e+00
   P4q  TQ5p  1 3.950000e-01    1.121200e+01
   P3q   Q5p  1 4.700000e-01    6.178000e+00
   P3q  SQ5p  1 4.300000e-01    7.727000e+00
   P3q  TQ5p  1 3.950000e-01    1.068900e+01
   P2q   Q5p  1 4.700000e-01    6.168000e+00
   P2q  SQ5p  1 4.300000e-01    7.689000e+00
   P2q  TQ5p  1 3.950000e-01    1.060200e+01
   P1q   Q5p  1 4.700000e-01    5.910000e+00
   P1q  SQ5p  1 4.300000e-01    7.370000e+00
   P1q  TQ5p  1 3.950000e-01    1.020500e+01
   N6q   Q5p  1 4.700000e-01    5.901000e+00
   N6q  SQ5p  1 4.300000e-01    7.336000e+00
   N6q  TQ5p  1 3.950000e-01    1.012700e+01
   N5q   Q5p  1 4.700000e-01    5.640000e+00
   N5q  SQ5p  1 4.300000e-01    7.057000e+00
   N5q  TQ5p  1 3.950000e-01    9.726000e+00
   N4q   Q5p  1 4.700000e-01    5.627000e+00
   N4q  SQ5p  1 4.300000e-01    7.009000e+00
   N4q  TQ5p  1 3.950000e-01    9.615000e+00
   N3q   Q5p  1 4.700000e-01    5.350000e+00
   N3q  SQ5p  1 4.300000e-01    6.668000e+00
   N3q  TQ5p  1 3.950000e-01    9.155000e+00
   N2q   Q5p  1 4.700000e-01    5.328000e+00
   N2q  SQ5p  1 4.300000e-01    6.587000e+00
   N2q  TQ5p  1 3.950000e-01    8.967000e+00
   N1q   Q5p  1 4.700000e-01    5.046000e+00
   N1q  SQ5p  1 4.300000e-01    6.239000e+00
   N1q  TQ5p  1 3.950000e-01    8.455000e+00
   C6q   Q5p  1 4.700000e-01    4.204000e+00
   C6q  SQ5p  1 4.300000e-01    5.259000e+00
   C6q  TQ5p  1 3.950000e-01    7.046000e+00
   C5q   Q5p  1 4.700000e-01    3.543000e+00
   C5q  SQ5p  1 4.300000e-01    4.260000e+00
   C5q  TQ5p  1 3.950000e-01    5.850000e+00
   C4q   Q5p  1 4.700000e-01    3.372000e+00
   C4q  SQ5p  1 4.300000e-01    3.828000e+00
   C4q  TQ5p  1 3.950000e-01    5.158000e+00
   C3q   Q5p  1 4.700000e-01    3.102000e+00
   C3q  SQ5p  1 4.300000e-01    3.302000e+00
   C3q  TQ5p  1 3.980000e-01    4.071000e+00
   C2q   Q5p  1 4.700000e-01    2.672000e+00
   C2q  SQ5p  1 4.300000e-01    2.580000e+00
   C2q  TQ5p  1 4.010000e-01    2.920000e+00
   C1q   Q5p  1 4.700000e-01    2.553000e+00
   C1q  SQ5p  1 4.300000e-01    2.144000e+00
   C1q  TQ5p  1 4.010000e-01    1.925000e+00
   X4q   Q5p  1 4.700000e-01    4.063000e+00
   X4q  SQ5p  1 4.300000e-01    5.147000e+00
   X4q  TQ5p  1 3.950000e-01    7.095000e+00
   X3q   Q5p  1 4.700000e-01    3.904000e+00
   X3q  SQ5p  1 4.300000e-01    4.799000e+00
   X3q  TQ5p  1 3.950000e-01    6.656000e+00
   X2q   Q5p  1 4.700000e-01    3.686000e+00
   X2q  SQ5p  1 4.300000e-01    4.401000e+00
   X2q  TQ5p  1 3.950000e-01    5.882000e+00
   X1q   Q5p  1 4.700000e-01    3.382000e+00
   X1q  SQ5p  1 4.300000e-01    3.672000e+00
   X1q  TQ5p  1 3.950000e-01    4.491000e+00
  P6dq   Q5p  1 4.700000e-01    6.236000e+00
  P6dq  SQ5p  1 4.300000e-01    7.937000e+00
  P6dq  TQ5p  1 3.950000e-01    1.157700e+01
  P5dq   Q5p  1 4.700000e-01    5.966000e+00
  P5dq  SQ5p  1 4.300000e-01    7.575000e+00
  P5dq  TQ5p  1 3.950000e-01    1.100900e+01
  P4dq   Q5p  1 4.700000e-01    5.943000e+00
  P4dq  SQ5p  1 4.300000e-01    7.489000e+00
  P4dq  TQ5p  1 3.950000e-01    1.081200e+01
  P3dq   Q5p  1 4.700000e-01    5.678000e+00
  P3dq  SQ5p  1 4.300000e-01    7.197000e+00
  P3dq  TQ5p  1 3.950000e-01    1.035900e+01
  P2dq   Q5p  1 4.700000e-01    5.668000e+00
  P2dq  SQ5p  1 4.300000e-01    7.159000e+00
  P2dq  TQ5p  1 3.950000e-01    1.027200e+01
  P1dq   Q5p  1 4.700000e-01    5.400000e+00
  P1dq  SQ5p  1 4.300000e-01    6.850000e+00
  P1dq  TQ5p  1 3.950000e-01    9.895000e+00
  N6dq   Q5p  1 4.700000e-01    5.391000e+00
  N6dq  SQ5p  1 4.300000e-01    6.816000e+00
  N6dq  TQ5p  1 3.950000e-01    9.817000e+00
  N5dq   Q5p  1 4.700000e-01    5.130000e+00
  N5dq  SQ5p  1 4.300000e-01    6.547000e+00
  N5dq  TQ5p  1 3.950000e-01    9.406000e+00
  N4dq   Q5p  1 4.700000e-01    5.117000e+00
  N4dq  SQ5p  1 4.300000e-01    6.499000e+00
  N4dq  TQ5p  1 3.950000e-01    9.295000e+00
  N3dq   Q5p  1 4.700000e-01    5.100000e+00
  N3dq  SQ5p  1 4.300000e-01    6.438000e+00
  N3dq  TQ5p  1 3.950000e-01    9.155000e+00
  N2dq   Q5p  1 4.700000e-01    5.078000e+00
  N2dq  SQ5p  1 4.300000e-01    6.357000e+00
  N2dq  TQ5p  1 3.950000e-01    8.967000e+00
  N1dq   Q5p  1 4.700000e-01    4.626000e+00
  N1dq  SQ5p  1 4.300000e-01    5.839000e+00
  N1dq  TQ5p  1 3.950000e-01    8.215000e+00
  P6aq   Q5p  1 4.700000e-01    6.236000e+00
  P6aq  SQ5p  1 4.300000e-01    7.937000e+00
  P6aq  TQ5p  1 3.950000e-01    1.157700e+01
  P5aq   Q5p  1 4.700000e-01    6.216000e+00
  P5aq  SQ5p  1 4.300000e-01    7.865000e+00
  P5aq  TQ5p  1 3.950000e-01    1.140900e+01
  P4aq   Q5p  1 4.700000e-01    6.193000e+00
  P4aq  SQ5p  1 4.300000e-01    7.779000e+00
  P4aq  TQ5p  1 3.950000e-01    1.121200e+01
  P3aq   Q5p  1 4.700000e-01    6.178000e+00
  P3aq  SQ5p  1 4.300000e-01    7.727000e+00
  P3aq  TQ5p  1 3.950000e-01    1.108900e+01
  P2aq   Q5p  1 4.700000e-01    6.168000e+00
  P2aq  SQ5p  1 4.300000e-01    7.689000e+00
  P2aq  TQ5p  1 3.950000e-01    1.100200e+01
  P1aq   Q5p  1 4.700000e-01    6.160000e+00
  P1aq  SQ5p  1 4.300000e-01    7.660000e+00
  P1aq  TQ5p  1 3.950000e-01    1.093500e+01
  N6aq   Q5p  1 4.700000e-01    6.151000e+00
  N6aq  SQ5p  1 4.300000e-01    7.626000e+00
  N6aq  TQ5p  1 3.950000e-01    1.085700e+01
  N5aq   Q5p  1 4.700000e-01    5.890000e+00
  N5aq  SQ5p  1 4.300000e-01    7.297000e+00
  N5aq  TQ5p  1 3.950000e-01    1.036600e+01
  N4aq   Q5p  1 4.700000e-01    5.877000e+00
  N4aq  SQ5p  1 4.300000e-01    7.249000e+00
  N4aq  TQ5p  1 3.950000e-01    1.025500e+01
  N3aq   Q5p  1 4.700000e-01    5.610000e+00
  N3aq  SQ5p  1 4.300000e-01    6.948000e+00
  N3aq  TQ5p  1 3.950000e-01    9.785000e+00
  N2aq   Q5p  1 4.700000e-01    5.588000e+00
  N2aq  SQ5p  1 4.300000e-01    6.867000e+00
  N2aq  TQ5p  1 3.950000e-01    9.597000e+00
  N1aq   Q5p  1 4.700000e-01    5.296000e+00
  N1aq  SQ5p  1 4.300000e-01    6.469000e+00
  N1aq  TQ5p  1 3.950000e-01    9.015000e+00
  C6vq   Q5p  1 4.700000e-01    3.754000e+00
  C6vq  SQ5p  1 4.300000e-01    4.799000e+00
  C6vq  TQ5p  1 3.950000e-01    6.656000e+00
  C5vq   Q5p  1 4.700000e-01    3.093000e+00
  C5vq  SQ5p  1 4.300000e-01    3.660000e+00
  C5vq  TQ5p  1 3.980000e-01    5.420000e+00
  C4vq   Q5p  1 4.700000e-01    2.852000e+00
  C4vq  SQ5p  1 4.300000e-01    3.238000e+00
  C4vq  TQ5p  1 3.990000e-01    4.633000e+00
  C3vq   Q5p  1 4.850000e-01    2.543000e+00
  C3vq  SQ5p  1 4.430000e-01    2.588000e+00
  C3vq  TQ5p  1 4.010000e-01    3.584000e+00
  C2vq   Q5p  1 5.200000e-01    2.330000e+00
  C2vq  SQ5p  1 4.730000e-01    2.053000e+00
  C2vq  TQ5p  1 4.040000e-01    2.752000e+00
  C1vq   Q5p  1 5.200000e-01    2.222000e+00
  C1vq  SQ5p  1 4.730000e-01    1.656000e+00
  C1vq  TQ5p  1 4.040000e-01    1.765000e+00
  X4vq   Q5p  1 4.700000e-01    3.613000e+00
  X4vq  SQ5p  1 4.300000e-01    4.517000e+00
  X4vq  TQ5p  1 3.950000e-01    6.705000e+00
  X3vq   Q5p  1 4.700000e-01    3.474000e+00
  X3vq  SQ5p  1 4.300000e-01    4.199000e+00
  X3vq  TQ5p  1 3.950000e-01    6.196000e+00
  X2vq   Q5p  1 4.700000e-01    3.236000e+00
  X2vq  SQ5p  1 4.300000e-01    3.791000e+00
  X2vq  TQ5p  1 3.950000e-01    5.442000e+00
  X1vq   Q5p  1 4.700000e-01    2.932000e+00
  X1vq  SQ5p  1 4.300000e-01    3.072000e+00
  X1vq  TQ5p  1 3.980000e-01    4.071000e+00
  C6eq   Q5p  1 4.700000e-01    4.204000e+00
  C6eq  SQ5p  1 4.300000e-01    5.259000e+00
  C6eq  TQ5p  1 3.950000e-01    7.286000e+00
  C5eq   Q5p  1 4.700000e-01    3.543000e+00
  C5eq  SQ5p  1 4.300000e-01    4.260000e+00
  C5eq  TQ5p  1 3.950000e-01    6.110000e+00
  C4eq   Q5p  1 4.700000e-01    3.372000e+00
  C4eq  SQ5p  1 4.300000e-01    3.828000e+00
  C4eq  TQ5p  1 3.950000e-01    5.338000e+00
  C3eq   Q5p  1 4.700000e-01    3.102000e+00
  C3eq  SQ5p  1 4.300000e-01    3.302000e+00
  C3eq  TQ5p  1 3.950000e-01    4.311000e+00
  C2eq   Q5p  1 6.200000e-01    2.136000e+00
  C2eq  SQ5p  1 5.080000e-01    1.830000e+00
  C2eq  TQ5p  1 4.650000e-01    2.373000e+00
  C1eq   Q5p  1 6.200000e-01    2.046000e+00
  C1eq  SQ5p  1 5.080000e-01    1.460000e+00
  C1eq  TQ5p  1 4.650000e-01    1.516000e+00
  X4eq   Q5p  1 4.700000e-01    4.063000e+00
  X4eq  SQ5p  1 4.300000e-01    5.147000e+00
  X4eq  TQ5p  1 3.950000e-01    7.295000e+00
  X3eq   Q5p  1 4.700000e-01    3.904000e+00
  X3eq  SQ5p  1 4.300000e-01    4.809000e+00
  X3eq  TQ5p  1 3.950000e-01    6.846000e+00
  X2eq   Q5p  1 4.700000e-01    3.686000e+00
  X2eq  SQ5p  1 4.300000e-01    4.551000e+00
  X2eq  TQ5p  1 3.950000e-01    6.082000e+00
  X1eq   Q5p  1 4.700000e-01    3.382000e+00
  X1eq  SQ5p  1 4.300000e-01    3.672000e+00
  X1eq  TQ5p  1 3.950000e-01    4.751000e+00
   P6h   Q5p  1 4.700000e-01    5.986000e+00
   P6h  SQ5p  1 4.300000e-01    7.647000e+00
   P6h  TQ5p  1 3.950000e-01    1.084700e+01
   P5h   Q5p  1 4.700000e-01    5.716000e+00
   P5h  SQ5p  1 4.300000e-01    7.335000e+00
   P5h  TQ5p  1 3.950000e-01    1.036900e+01
   P4h   Q5p  1 4.700000e-01    5.693000e+00
   P4h  SQ5p  1 4.300000e-01    7.249000e+00
   P4h  TQ5p  1 3.950000e-01    1.017200e+01
   P3h   Q5p  1 4.700000e-01    5.418000e+00
   P3h  SQ5p  1 4.300000e-01    6.917000e+00
   P3h  TQ5p  1 3.950000e-01    9.729000e+00
   P2h   Q5p  1 4.700000e-01    5.408000e+00
   P2h  SQ5p  1 4.300000e-01    6.879000e+00
   P2h  TQ5p  1 3.950000e-01    9.642000e+00
   P1h   Q5p  1 4.700000e-01    5.150000e+00
   P1h  SQ5p  1 4.300000e-01    6.620000e+00
   P1h  TQ5p  1 3.950000e-01    9.335000e+00
   N6h   Q5p  1 4.700000e-01    5.141000e+00
   N6h  SQ5p  1 4.300000e-01    6.586000e+00
   N6h  TQ5p  1 3.950000e-01    9.257000e+00
   N5h   Q5p  1 4.700000e-01    4.900000e+00
   N5h  SQ5p  1 4.300000e-01    6.347000e+00
   N5h  TQ5p  1 3.950000e-01    8.926000e+00
   N4h   Q5p  1 4.700000e-01    4.887000e+00
   N4h  SQ5p  1 4.300000e-01    6.299000e+00
   N4h  TQ5p  1 3.950000e-01    8.815000e+00
   N3h   Q5p  1 4.700000e-01    4.680000e+00
   N3h  SQ5p  1 4.300000e-01    6.038000e+00
   N3h  TQ5p  1 3.950000e-01    8.435000e+00
   N2h   Q5p  1 4.700000e-01    4.658000e+00
   N2h  SQ5p  1 4.300000e-01    5.957000e+00
   N2h  TQ5p  1 3.950000e-01    8.247000e+00
   N1h   Q5p  1 4.700000e-01    4.446000e+00
   N1h  SQ5p  1 4.300000e-01    5.659000e+00
   N1h  TQ5p  1 3.950000e-01    7.725000e+00
   C6h   Q5p  1 4.700000e-01    3.754000e+00
   C6h  SQ5p  1 4.300000e-01    4.649000e+00
   C6h  TQ5p  1 3.950000e-01    6.456000e+00
   C5h   Q5p  1 4.700000e-01    3.093000e+00
   C5h  SQ5p  1 4.300000e-01    3.660000e+00
   C5h  TQ5p  1 3.990000e-01    5.140000e+00
   C4h   Q5p  1 4.700000e-01    2.852000e+00
   C4h  SQ5p  1 4.300000e-01    3.238000e+00
   C4h  TQ5p  1 4.010000e-01    4.419000e+00
   C3h   Q5p  1 4.850000e-01    2.543000e+00
   C3h  SQ5p  1 4.430000e-01    2.588000e+00
   C3h  TQ5p  1 4.040000e-01    3.412000e+00
   C2h   Q5p  1 5.700000e-01    2.192000e+00
   C2h  SQ5p  1 5.140000e-01    1.821000e+00
   C2h  TQ5p  1 5.110000e-01    2.179000e+00
   C1h   Q5p  1 5.700000e-01    2.093000e+00
   C1h  SQ5p  1 5.140000e-01    1.456000e+00
   C1h  TQ5p  1 5.110000e-01    1.398000e+00
   X4h   Q5p  1 4.700000e-01    3.613000e+00
   X4h  SQ5p  1 4.300000e-01    4.517000e+00
   X4h  TQ5p  1 3.950000e-01    6.445000e+00
   X3h   Q5p  1 4.700000e-01    3.474000e+00
   X3h  SQ5p  1 4.300000e-01    4.199000e+00
   X3h  TQ5p  1 3.950000e-01    6.016000e+00
   X2h   Q5p  1 4.700000e-01    3.236000e+00
   X2h  SQ5p  1 4.300000e-01    3.791000e+00
   X2h  TQ5p  1 3.980000e-01    5.194000e+00
   X1h   Q5p  1 4.700000e-01    2.932000e+00
   X1h  SQ5p  1 4.300000e-01    3.072000e+00
   X1h  TQ5p  1 3.990000e-01    3.794000e+00
  P6dh   Q5p  1 4.700000e-01    5.476000e+00
  P6dh  SQ5p  1 4.300000e-01    7.127000e+00
  P6dh  TQ5p  1 3.950000e-01    1.053700e+01
  P5dh   Q5p  1 4.700000e-01    5.206000e+00
  P5dh  SQ5p  1 4.300000e-01    6.825000e+00
  P5dh  TQ5p  1 3.950000e-01    1.004900e+01
  P4dh   Q5p  1 4.700000e-01    5.183000e+00
  P4dh  SQ5p  1 4.300000e-01    6.739000e+00
  P4dh  TQ5p  1 3.950000e-01    9.852000e+00
  P3dh   Q5p  1 4.700000e-01    4.938000e+00
  P3dh  SQ5p  1 4.300000e-01    6.487000e+00
  P3dh  TQ5p  1 3.950000e-01    9.489000e+00
  P2dh   Q5p  1 4.700000e-01    4.928000e+00
  P2dh  SQ5p  1 4.300000e-01    6.449000e+00
  P2dh  TQ5p  1 3.950000e-01    9.402000e+00
  P1dh   Q5p  1 4.700000e-01    4.730000e+00
  P1dh  SQ5p  1 4.300000e-01    6.220000e+00
  P1dh  TQ5p  1 3.950000e-01    9.095000e+00
  N6dh   Q5p  1 4.700000e-01    4.721000e+00
  N6dh  SQ5p  1 4.300000e-01    6.186000e+00
  N6dh  TQ5p  1 3.950000e-01    9.017000e+00
  N5dh   Q5p  1 4.700000e-01    4.530000e+00
  N5dh  SQ5p  1 4.300000e-01    5.967000e+00
  N5dh  TQ5p  1 3.950000e-01    8.686000e+00
  N4dh   Q5p  1 4.700000e-01    4.517000e+00
  N4dh  SQ5p  1 4.300000e-01    5.919000e+00
  N4dh  TQ5p  1 3.950000e-01    8.575000e+00
  N3dh   Q5p  1 4.700000e-01    4.500000e+00
  N3dh  SQ5p  1 4.300000e-01    5.858000e+00
  N3dh  TQ5p  1 3.950000e-01    8.435000e+00
  N2dh   Q5p  1 4.700000e-01    4.478000e+00
  N2dh  SQ5p  1 4.300000e-01    5.777000e+00
  N2dh  TQ5p  1 3.950000e-01    8.247000e+00
  N1dh   Q5p  1 4.700000e-01    4.086000e+00
  N1dh  SQ5p  1 4.300000e-01    5.229000e+00
  N1dh  TQ5p  1 3.950000e-01    7.485000e+00
  P6ah   Q5p  1 4.700000e-01    6.236000e+00
  P6ah  SQ5p  1 4.300000e-01    7.937000e+00
  P6ah  TQ5p  1 3.950000e-01    1.157700e+01
  P5ah   Q5p  1 4.700000e-01    5.966000e+00
  P5ah  SQ5p  1 4.300000e-01    7.575000e+00
  P5ah  TQ5p  1 3.950000e-01    1.100900e+01
  P4ah   Q5p  1 4.700000e-01    5.943000e+00
  P4ah  SQ5p  1 4.300000e-01    7.489000e+00
  P4ah  TQ5p  1 3.950000e-01    1.081200e+01
  P3ah   Q5p  1 4.700000e-01    5.678000e+00
  P3ah  SQ5p  1 4.300000e-01    7.197000e+00
  P3ah  TQ5p  1 3.950000e-01    1.035900e+01
  P2ah   Q5p  1 4.700000e-01    5.668000e+00
  P2ah  SQ5p  1 4.300000e-01    7.159000e+00
  P2ah  TQ5p  1 3.950000e-01    1.027200e+01
  P1ah   Q5p  1 4.700000e-01    5.400000e+00
  P1ah  SQ5p  1 4.300000e-01    6.850000e+00
  P1ah  TQ5p  1 3.950000e-01    9.895000e+00
  N6ah   Q5p  1 4.700000e-01    5.391000e+00
  N6ah  SQ5p  1 4.300000e-01    6.816000e+00
  N6ah  TQ5p  1 3.950000e-01    9.817000e+00
  N5ah   Q5p  1 4.700000e-01    5.130000e+00
  N5ah  SQ5p  1 4.300000e-01    6.547000e+00
  N5ah  TQ5p  1 3.950000e-01    9.406000e+00
  N4ah   Q5p  1 4.700000e-01    5.117000e+00
  N4ah  SQ5p  1 4.300000e-01    6.499000e+00
  N4ah  TQ5p  1 3.950000e-01    9.295000e+00
  N3ah   Q5p  1 4.700000e-01    4.870000e+00
  N3ah  SQ5p  1 4.300000e-01    6.238000e+00
  N3ah  TQ5p  1 3.950000e-01    8.915000e+00
  N2ah   Q5p  1 4.700000e-01    4.848000e+00
  N2ah  SQ5p  1 4.300000e-01    6.157000e+00
  N2ah  TQ5p  1 3.950000e-01    8.727000e+00
  N1ah   Q5p  1 4.700000e-01    4.626000e+00
  N1ah  SQ5p  1 4.300000e-01    5.839000e+00
  N1ah  TQ5p  1 3.950000e-01    8.215000e+00
  C6vh   Q5p  1 4.700000e-01    3.304000e+00
  C6vh  SQ5p  1 4.300000e-01    4.039000e+00
  C6vh  TQ5p  1 3.950000e-01    6.016000e+00
  C5vh   Q5p  1 5.200000e-01    2.548000e+00
  C5vh  SQ5p  1 4.730000e-01    2.853000e+00
  C5vh  TQ5p  1 4.040000e-01    4.741000e+00
  C4vh   Q5p  1 5.700000e-01    2.340000e+00
  C4vh  SQ5p  1 5.080000e-01    2.387000e+00
  C4vh  TQ5p  1 4.650000e-01    3.666000e+00
  C3vh   Q5p  1 6.200000e-01    2.197000e+00
  C3vh  SQ5p  1 5.140000e-01    2.065000e+00
  C3vh  TQ5p  1 5.110000e-01    2.700000e+00
  C2vh   Q5p  1 6.200000e-01    2.136000e+00
  C2vh  SQ5p  1 5.520000e-01    1.672000e+00
  C2vh  TQ5p  1 5.240000e-01    2.111000e+00
  C1vh   Q5p  1 6.200000e-01    2.046000e+00
  C1vh  SQ5p  1 5.520000e-01    1.332000e+00
  C1vh  TQ5p  1 5.240000e-01    1.350000e+00
  X4vh   Q5p  1 4.700000e-01    3.163000e+00
  X4vh  SQ5p  1 4.300000e-01    3.917000e+00
  X4vh  TQ5p  1 3.980000e-01    6.010000e+00
  X3vh   Q5p  1 4.700000e-01    2.954000e+00
  X3vh  SQ5p  1 4.300000e-01    3.609000e+00
  X3vh  TQ5p  1 3.990000e-01    5.482000e+00
  X2vh   Q5p  1 4.850000e-01    2.672000e+00
  X2vh  SQ5p  1 4.430000e-01    3.063000e+00
  X2vh  TQ5p  1 4.010000e-01    4.699000e+00
  X1vh   Q5p  1 5.200000e-01    2.402000e+00
  X1vh  SQ5p  1 4.730000e-01    2.318000e+00
  X1vh  TQ5p  1 4.040000e-01    3.412000e+00
  C6eh   Q5p  1 4.700000e-01    3.754000e+00
  C6eh  SQ5p  1 4.300000e-01    4.799000e+00
  C6eh  TQ5p  1 3.950000e-01    6.656000e+00
  C5eh   Q5p  1 4.700000e-01    3.093000e+00
  C5eh  SQ5p  1 4.300000e-01    3.660000e+00
  C5eh  TQ5p  1 3.980000e-01    5.420000e+00
  C4eh   Q5p  1 4.700000e-01    2.852000e+00
  C4eh  SQ5p  1 4.300000e-01    3.238000e+00
  C4eh  TQ5p  1 3.990000e-01    4.633000e+00
  C3eh   Q5p  1 4.850000e-01    2.543000e+00
  C3eh  SQ5p  1 4.430000e-01    2.588000e+00
  C3eh  TQ5p  1 4.010000e-01    3.584000e+00
  C2eh   Q5p  1 6.200000e-01    2.136000e+00
  C2eh  SQ5p  1 5.080000e-01    1.830000e+00
  C2eh  TQ5p  1 4.650000e-01    2.373000e+00
  C1eh   Q5p  1 6.200000e-01    2.046000e+00
  C1eh  SQ5p  1 5.080000e-01    1.460000e+00
  C1eh  TQ5p  1 4.650000e-01    1.516000e+00
  X4eh   Q5p  1 4.700000e-01    3.613000e+00
  X4eh  SQ5p  1 4.300000e-01    4.517000e+00
  X4eh  TQ5p  1 3.950000e-01    6.705000e+00
  X3eh   Q5p  1 4.700000e-01    3.474000e+00
  X3eh  SQ5p  1 4.300000e-01    4.199000e+00
  X3eh  TQ5p  1 3.950000e-01    6.196000e+00
  X2eh   Q5p  1 4.700000e-01    3.236000e+00
  X2eh  SQ5p  1 4.300000e-01    3.791000e+00
  X2eh  TQ5p  1 3.950000e-01    5.442000e+00
  X1eh   Q5p  1 4.700000e-01    2.932000e+00
  X1eh  SQ5p  1 4.300000e-01    3.072000e+00
  X1eh  TQ5p  1 3.980000e-01    4.071000e+00
   P6r   Q5p  1 4.700000e-01    5.986000e+00
   P6r  SQ5p  1 4.300000e-01    7.647000e+00
   P6r  TQ5p  1 3.950000e-01    1.084700e+01
   P5r   Q5p  1 4.700000e-01    5.716000e+00
   P5r  SQ5p  1 4.300000e-01    7.335000e+00
   P5r  TQ5p  1 3.950000e-01    1.036900e+01
   P4r   Q5p  1 4.700000e-01    5.693000e+00
   P4r  SQ5p  1 4.300000e-01    7.249000e+00
   P4r  TQ5p  1 3.950000e-01    1.017200e+01
   P3r   Q5p  1 4.700000e-01    5.418000e+00
   P3r  SQ5p  1 4.300000e-01    6.917000e+00
   P3r  TQ5p  1 3.950000e-01    9.729000e+00
   P2r   Q5p  1 4.700000e-01    5.408000e+00
   P2r  SQ5p  1 4.300000e-01    6.879000e+00
   P2r  TQ5p  1 3.950000e-01    9.642000e+00
   P1r   Q5p  1 4.700000e-01    5.150000e+00
   P1r  SQ5p  1 4.300000e-01    6.620000e+00
   P1r  TQ5p  1 3.950000e-01    9.335000e+00
   N6r   Q5p  1 4.700000e-01    5.141000e+00
   N6r  SQ5p  1 4.300000e-01    6.586000e+00
   N6r  TQ5p  1 3.950000e-01    9.257000e+00
   N5r   Q5p  1 4.700000e-01    4.900000e+00
   N5r  SQ5p  1 4.300000e-01    6.347000e+00
   N5r  TQ5p  1 3.950000e-01    8.926000e+00
   N4r   Q5p  1 4.700000e-01    4.887000e+00
   N4r  SQ5p  1 4.300000e-01    6.299000e+00
   N4r  TQ5p  1 3.950000e-01    8.815000e+00
   N3r   Q5p  1 4.700000e-01    4.680000e+00
   N3r  SQ5p  1 4.300000e-01    6.038000e+00
   N3r  TQ5p  1 3.950000e-01    8.435000e+00
   N2r   Q5p  1 4.700000e-01    4.658000e+00
   N2r  SQ5p  1 4.300000e-01    5.957000e+00
   N2r  TQ5p  1 3.950000e-01    8.247000e+00
   N1r   Q5p  1 4.700000e-01    4.446000e+00
   N1r  SQ5p  1 4.300000e-01    5.659000e+00
   N1r  TQ5p  1 3.950000e-01    7.725000e+00
   C6r   Q5p  1 4.700000e-01    3.754000e+00
   C6r  SQ5p  1 4.300000e-01    4.649000e+00
   C6r  TQ5p  1 3.950000e-01    6.456000e+00
   C5r   Q5p  1 4.700000e-01    3.093000e+00
   C5r  SQ5p  1 4.300000e-01    3.660000e+00
   C5r  TQ5p  1 3.990000e-01    5.140000e+00
   C4r   Q5p  1 4.700000e-01    2.852000e+00
   C4r  SQ5p  1 4.300000e-01    3.238000e+00
   C4r  TQ5p  1 4.010000e-01    4.419000e+00
   C3r   Q5p  1 4.850000e-01    2.543000e+00
   C3r  SQ5p  1 4.430000e-01    2.588000e+00
   C3r  TQ5p  1 4.040000e-01    3.412000e+00
   C2r   Q5p  1 5.700000e-01    2.192000e+00
   C2r  SQ5p  1 5.140000e-01    1.821000e+00
   C2r  TQ5p  1 5.110000e-01    2.179000e+00
   C1r   Q5p  1 5.700000e-01    2.093000e+00
   C1r  SQ5p  1 5.140000e-01    1.456000e+00
   C1r  TQ5p  1 5.110000e-01    1.398000e+00
   X4r   Q5p  1 4.700000e-01    3.613000e+00
   X4r  SQ5p  1 4.300000e-01    4.517000e+00
   X4r  TQ5p  1 3.950000e-01    6.445000e+00
   X3r   Q5p  1 4.700000e-01    3.474000e+00
   X3r  SQ5p  1 4.300000e-01    4.199000e+00
   X3r  TQ5p  1 3.950000e-01    6.016000e+00
   X2r   Q5p  1 4.700000e-01    3.236000e+00
   X2r  SQ5p  1 4.300000e-01    3.791000e+00
   X2r  TQ5p  1 3.980000e-01    5.194000e+00
   X1r   Q5p  1 4.700000e-01    2.932000e+00
   X1r  SQ5p  1 4.300000e-01    3.072000e+00
   X1r  TQ5p  1 3.990000e-01    3.794000e+00
  P6dr   Q5p  1 4.700000e-01    5.476000e+00
  P6dr  SQ5p  1 4.300000e-01    7.127000e+00
  P6dr  TQ5p  1 3.950000e-01    1.053700e+01
  P5dr   Q5p  1 4.700000e-01    5.206000e+00
  P5dr  SQ5p  1 4.300000e-01    6.825000e+00
  P5dr  TQ5p  1 3.950000e-01    1.004900e+01
  P4dr   Q5p  1 4.700000e-01    5.183000e+00
  P4dr  SQ5p  1 4.300000e-01    6.739000e+00
  P4dr  TQ5p  1 3.950000e-01    9.852000e+00
  P3dr   Q5p  1 4.700000e-01    4.938000e+00
  P3dr  SQ5p  1 4.300000e-01    6.487000e+00
  P3dr  TQ5p  1 3.950000e-01    9.489000e+00
  P2dr   Q5p  1 4.700000e-01    4.928000e+00
  P2dr  SQ5p  1 4.300000e-01    6.449000e+00
  P2dr  TQ5p  1 3.950000e-01    9.402000e+00
  P1dr   Q5p  1 4.700000e-01    4.730000e+00
  P1dr  SQ5p  1 4.300000e-01    6.220000e+00
  P1dr  TQ5p  1 3.950000e-01    9.095000e+00
  N6dr   Q5p  1 4.700000e-01    4.721000e+00
  N6dr  SQ5p  1 4.300000e-01    6.186000e+00
  N6dr  TQ5p  1 3.950000e-01    9.017000e+00
  N5dr   Q5p  1 4.700000e-01    4.530000e+00
  N5dr  SQ5p  1 4.300000e-01    5.967000e+00
  N5dr  TQ5p  1 3.950000e-01    8.686000e+00
  N4dr   Q5p  1 4.700000e-01    4.517000e+00
  N4dr  SQ5p  1 4.300000e-01    5.919000e+00
  N4dr  TQ5p  1 3.950000e-01    8.575000e+00
  N3dr   Q5p  1 4.700000e-01    4.500000e+00
  N3dr  SQ5p  1 4.300000e-01    5.858000e+00
  N3dr  TQ5p  1 3.950000e-01    8.435000e+00
  N2dr   Q5p  1 4.700000e-01    4.478000e+00
  N2dr  SQ5p  1 4.300000e-01    5.777000e+00
  N2dr  TQ5p  1 3.950000e-01    8.247000e+00
  N1dr   Q5p  1 4.700000e-01    4.086000e+00
  N1dr  SQ5p  1 4.300000e-01    5.229000e+00
  N1dr  TQ5p  1 3.950000e-01    7.485000e+00
  P6ar   Q5p  1 4.700000e-01    6.236000e+00
  P6ar  SQ5p  1 4.300000e-01    7.937000e+00
  P6ar  TQ5p  1 3.950000e-01    1.157700e+01
  P5ar   Q5p  1 4.700000e-01    5.966000e+00
  P5ar  SQ5p  1 4.300000e-01    7.575000e+00
  P5ar  TQ5p  1 3.950000e-01    1.100900e+01
  P4ar   Q5p  1 4.700000e-01    5.943000e+00
  P4ar  SQ5p  1 4.300000e-01    7.489000e+00
  P4ar  TQ5p  1 3.950000e-01    1.081200e+01
  P3ar   Q5p  1 4.700000e-01    5.678000e+00
  P3ar  SQ5p  1 4.300000e-01    7.197000e+00
  P3ar  TQ5p  1 3.950000e-01    1.035900e+01
  P2ar   Q5p  1 4.700000e-01    5.668000e+00
  P2ar  SQ5p  1 4.300000e-01    7.159000e+00
  P2ar  TQ5p  1 3.950000e-01    1.027200e+01
  P1ar   Q5p  1 4.700000e-01    5.400000e+00
  P1ar  SQ5p  1 4.300000e-01    6.850000e+00
  P1ar  TQ5p  1 3.950000e-01    9.895000e+00
  N6ar   Q5p  1 4.700000e-01    5.391000e+00
  N6ar  SQ5p  1 4.300000e-01    6.816000e+00
  N6ar  TQ5p  1 3.950000e-01    9.817000e+00
  N5ar   Q5p  1 4.700000e-01    5.130000e+00
  N5ar  SQ5p  1 4.300000e-01    6.547000e+00
  N5ar  TQ5p  1 3.950000e-01    9.406000e+00
  N4ar   Q5p  1 4.700000e-01    5.117000e+00
  N4ar  SQ5p  1 4.300000e-01    6.499000e+00
  N4ar  TQ5p  1 3.950000e-01    9.295000e+00
  N3ar   Q5p  1 4.700000e-01    4.870000e+00
  N3ar  SQ5p  1 4.300000e-01    6.238000e+00
  N3ar  TQ5p  1 3.950000e-01    8.915000e+00
  N2ar   Q5p  1 4.700000e-01    4.848000e+00
  N2ar  SQ5p  1 4.300000e-01    6.157000e+00
  N2ar  TQ5p  1 3.950000e-01    8.727000e+00
  N1ar   Q5p  1 4.700000e-01    4.626000e+00
  N1ar  SQ5p  1 4.300000e-01    5.839000e+00
  N1ar  TQ5p  1 3.950000e-01    8.215000e+00
  C6vr   Q5p  1 4.700000e-01    3.304000e+00
  C6vr  SQ5p  1 4.300000e-01    4.039000e+00
  C6vr  TQ5p  1 3.950000e-01    6.016000e+00
  C5vr   Q5p  1 5.200000e-01    2.548000e+00
  C5vr  SQ5p  1 4.730000e-01    2.853000e+00
  C5vr  TQ5p  1 4.040000e-01    4.741000e+00
  C4vr   Q5p  1 5.700000e-01    2.340000e+00
  C4vr  SQ5p  1 5.080000e-01    2.387000e+00
  C4vr  TQ5p  1 4.650000e-01    3.666000e+00
  C3vr   Q5p  1 6.200000e-01    2.197000e+00
  C3vr  SQ5p  1 5.140000e-01    2.065000e+00
  C3vr  TQ5p  1 5.110000e-01    2.700000e+00
  C2vr   Q5p  1 6.200000e-01    2.136000e+00
  C2vr  SQ5p  1 5.520000e-01    1.672000e+00
  C2vr  TQ5p  1 5.240000e-01    2.111000e+00
  C1vr   Q5p  1 6.200000e-01    2.046000e+00
  C1vr  SQ5p  1 5.520000e-01    1.332000e+00
  C1vr  TQ5p  1 5.240000e-01    1.350000e+00
  X4vr   Q5p  1 4.700000e-01    3.163000e+00
  X4vr  SQ5p  1 4.300000e-01    3.917000e+00
  X4vr  TQ5p  1 3.980000e-01    6.010000e+00
  X3vr   Q5p  1 4.700000e-01    2.954000e+00
  X3vr  SQ5p  1 4.300000e-01    3.609000e+00
  X3vr  TQ5p  1 3.990000e-01    5.482000e+00
  X2vr   Q5p  1 4.850000e-01    2.672000e+00
  X2vr  SQ5p  1 4.430000e-01    3.063000e+00
  X2vr  TQ5p  1 4.010000e-01    4.699000e+00
  X1vr   Q5p  1 5.200000e-01    2.402000e+00
  X1vr  SQ5p  1 4.730000e-01    2.318000e+00
  X1vr  TQ5p  1 4.040000e-01    3.412000e+00
  C6er   Q5p  1 4.700000e-01    3.754000e+00
  C6er  SQ5p  1 4.300000e-01    4.799000e+00
  C6er  TQ5p  1 3.950000e-01    6.656000e+00
  C5er   Q5p  1 4.700000e-01    3.093000e+00
  C5er  SQ5p  1 4.300000e-01    3.660000e+00
  C5er  TQ5p  1 3.980000e-01    5.420000e+00
  C4er   Q5p  1 4.700000e-01    2.852000e+00
  C4er  SQ5p  1 4.300000e-01    3.238000e+00
  C4er  TQ5p  1 3.990000e-01    4.633000e+00
  C3er   Q5p  1 4.850000e-01    2.543000e+00
  C3er  SQ5p  1 4.430000e-01    2.588000e+00
  C3er  TQ5p  1 4.010000e-01    3.584000e+00
  C2er   Q5p  1 6.200000e-01    2.136000e+00
  C2er  SQ5p  1 5.080000e-01    1.830000e+00
  C2er  TQ5p  1 4.650000e-01    2.373000e+00
  C1er   Q5p  1 6.200000e-01    2.046000e+00
  C1er  SQ5p  1 5.080000e-01    1.460000e+00
  C1er  TQ5p  1 4.650000e-01    1.516000e+00
  X4er   Q5p  1 4.700000e-01    3.613000e+00
  X4er  SQ5p  1 4.300000e-01    4.517000e+00
  X4er  TQ5p  1 3.950000e-01    6.705000e+00
  X3er   Q5p  1 4.700000e-01    3.474000e+00
  X3er  SQ5p  1 4.300000e-01    4.199000e+00
  X3er  TQ5p  1 3.950000e-01    6.196000e+00
  X2er   Q5p  1 4.700000e-01    3.236000e+00
  X2er  SQ5p  1 4.300000e-01    3.791000e+00
  X2er  TQ5p  1 3.950000e-01    5.442000e+00
  X1er   Q5p  1 4.700000e-01    2.932000e+00
  X1er  SQ5p  1 4.300000e-01    3.072000e+00
  X1er  TQ5p  1 3.980000e-01    4.071000e+00
   SP6   Q5p  1 4.300000e-01    5.416000e+00
   SP6  SQ5p  1 4.100000e-01    7.073000e+00
   SP6  TQ5p  1 3.650000e-01    9.494000e+00
   SP5   Q5p  1 4.300000e-01    5.161000e+00
   SP5  SQ5p  1 4.100000e-01    6.733000e+00
   SP5  TQ5p  1 3.650000e-01    9.037000e+00
   SP4   Q5p  1 4.300000e-01    5.143000e+00
   SP4  SQ5p  1 4.100000e-01    6.643000e+00
   SP4  TQ5p  1 3.650000e-01    8.849000e+00
   SP3   Q5p  1 4.300000e-01    4.852000e+00
   SP3  SQ5p  1 4.100000e-01    6.339000e+00
   SP3  TQ5p  1 3.650000e-01    8.446000e+00
   SP2   Q5p  1 4.300000e-01    4.845000e+00
   SP2  SQ5p  1 4.100000e-01    6.301000e+00
   SP2  TQ5p  1 3.650000e-01    8.366000e+00
   SP1   Q5p  1 4.300000e-01    4.609000e+00
   SP1  SQ5p  1 4.100000e-01    6.052000e+00
   SP1  TQ5p  1 3.650000e-01    8.036000e+00
   SN6   Q5p  1 4.300000e-01    4.603000e+00
   SN6  SQ5p  1 4.100000e-01    6.020000e+00
   SN6  TQ5p  1 3.650000e-01    7.968000e+00
   SN5   Q5p  1 4.300000e-01    4.395000e+00
   SN5  SQ5p  1 4.100000e-01    5.712000e+00
   SN5  TQ5p  1 3.650000e-01    7.619000e+00
   SN4   Q5p  1 4.300000e-01    4.386000e+00
   SN4  SQ5p  1 4.100000e-01    5.666000e+00
   SN4  TQ5p  1 3.650000e-01    7.523000e+00
   SN3   Q5p  1 4.300000e-01    4.175000e+00
   SN3  SQ5p  1 4.100000e-01    5.369000e+00
   SN3  TQ5p  1 3.650000e-01    7.133000e+00
   SN2   Q5p  1 4.300000e-01    4.160000e+00
   SN2  SQ5p  1 4.100000e-01    5.292000e+00
   SN2  TQ5p  1 3.650000e-01    6.974000e+00
   SN1   Q5p  1 4.300000e-01    3.959000e+00
   SN1  SQ5p  1 4.100000e-01    4.943000e+00
   SN1  TQ5p  1 3.650000e-01    6.486000e+00
   SC6   Q5p  1 4.300000e-01    3.104000e+00
   SC6  SQ5p  1 4.100000e-01    3.899000e+00
   SC6  TQ5p  1 3.650000e-01    5.301000e+00
   SC5   Q5p  1 4.300000e-01    2.237000e+00
   SC5  SQ5p  1 4.140000e-01    3.107000e+00
   SC5  TQ5p  1 4.040000e-01    4.080000e+00
   SC4   Q5p  1 4.300000e-01    1.997000e+00
   SC4  SQ5p  1 4.180000e-01    2.734000e+00
   SC4  TQ5p  1 4.090000e-01    3.616000e+00
   SC3   Q5p  1 4.430000e-01    1.676000e+00
   SC3  SQ5p  1 4.210000e-01    2.249000e+00
   SC3  TQ5p  1 4.230000e-01    2.831000e+00
   SC2   Q5p  1 5.140000e-01    1.235000e+00
   SC2  SQ5p  1 4.960000e-01    1.678000e+00
   SC2  TQ5p  1 5.370000e-01    1.887000e+00
   SC1   Q5p  1 5.140000e-01    1.170000e+00
   SC1  SQ5p  1 4.960000e-01    1.349000e+00
   SC1  TQ5p  1 5.370000e-01    1.323000e+00
   SX4   Q5p  1 4.300000e-01    2.884000e+00
   SX4  SQ5p  1 4.100000e-01    3.838000e+00
   SX4  TQ5p  1 3.660000e-01    5.348000e+00
   SX3   Q5p  1 4.300000e-01    2.654000e+00
   SX3  SQ5p  1 4.100000e-01    3.609000e+00
   SX3  TQ5p  1 3.780000e-01    4.879000e+00
   SX2   Q5p  1 4.300000e-01    2.450000e+00
   SX2  SQ5p  1 4.100000e-01    3.222000e+00
   SX2  TQ5p  1 3.940000e-01    4.140000e+00
   SX1   Q5p  1 4.300000e-01    2.132000e+00
   SX1  SQ5p  1 4.140000e-01    2.576000e+00
   SX1  TQ5p  1 4.040000e-01    3.067000e+00
  SP6d   Q5p  1 4.300000e-01    4.896000e+00
  SP6d  SQ5p  1 4.100000e-01    6.813000e+00
  SP6d  TQ5p  1 3.650000e-01    9.204000e+00
  SP5d   Q5p  1 4.300000e-01    4.651000e+00
  SP5d  SQ5p  1 4.100000e-01    6.483000e+00
  SP5d  TQ5p  1 3.650000e-01    8.747000e+00
  SP4d   Q5p  1 4.300000e-01    4.633000e+00
  SP4d  SQ5p  1 4.100000e-01    6.393000e+00
  SP4d  TQ5p  1 3.650000e-01    8.559000e+00
  SP3d   Q5p  1 4.300000e-01    4.422000e+00
  SP3d  SQ5p  1 4.100000e-01    6.119000e+00
  SP3d  TQ5p  1 3.650000e-01    8.176000e+00
  SP2d   Q5p  1 4.300000e-01    4.415000e+00
  SP2d  SQ5p  1 4.100000e-01    6.081000e+00
  SP2d  TQ5p  1 3.650000e-01    8.096000e+00
  SP1d   Q5p  1 4.300000e-01    4.209000e+00
  SP1d  SQ5p  1 4.100000e-01    5.782000e+00
  SP1d  TQ5p  1 3.650000e-01    7.766000e+00
  SN6d   Q5p  1 4.300000e-01    4.203000e+00
  SN6d  SQ5p  1 4.100000e-01    5.750000e+00
  SN6d  TQ5p  1 3.650000e-01    7.698000e+00
  SN5d   Q5p  1 4.300000e-01    4.015000e+00
  SN5d  SQ5p  1 4.100000e-01    5.472000e+00
  SN5d  TQ5p  1 3.650000e-01    7.349000e+00
  SN4d   Q5p  1 4.300000e-01    4.006000e+00
  SN4d  SQ5p  1 4.100000e-01    5.426000e+00
  SN4d  TQ5p  1 3.650000e-01    7.253000e+00
  SN3d   Q5p  1 4.300000e-01    3.995000e+00
  SN3d  SQ5p  1 4.100000e-01    5.369000e+00
  SN3d  TQ5p  1 3.650000e-01    7.133000e+00
  SN2d   Q5p  1 4.300000e-01    3.980000e+00
  SN2d  SQ5p  1 4.100000e-01    5.292000e+00
  SN2d  TQ5p  1 3.650000e-01    6.974000e+00
  SN1d   Q5p  1 4.300000e-01    3.529000e+00
  SN1d  SQ5p  1 4.100000e-01    4.713000e+00
  SN1d  TQ5p  1 3.650000e-01    6.256000e+00
  SP6a   Q5p  1 4.300000e-01    5.706000e+00
  SP6a  SQ5p  1 4.100000e-01    7.653000e+00
  SP6a  TQ5p  1 3.650000e-01    1.013400e+01
  SP5a   Q5p  1 4.300000e-01    5.401000e+00
  SP5a  SQ5p  1 4.100000e-01    7.283000e+00
  SP5a  TQ5p  1 3.650000e-01    9.617000e+00
  SP4a   Q5p  1 4.300000e-01    5.383000e+00
  SP4a  SQ5p  1 4.100000e-01    7.193000e+00
  SP4a  TQ5p  1 3.650000e-01    9.429000e+00
  SP3a   Q5p  1 4.300000e-01    5.132000e+00
  SP3a  SQ5p  1 4.100000e-01    6.849000e+00
  SP3a  TQ5p  1 3.650000e-01    9.026000e+00
  SP2a   Q5p  1 4.300000e-01    5.125000e+00
  SP2a  SQ5p  1 4.100000e-01    6.811000e+00
  SP2a  TQ5p  1 3.650000e-01    8.946000e+00
  SP1a   Q5p  1 4.300000e-01    4.839000e+00
  SP1a  SQ5p  1 4.100000e-01    6.522000e+00
  SP1a  TQ5p  1 3.650000e-01    8.596000e+00
  SN6a   Q5p  1 4.300000e-01    4.833000e+00
  SN6a  SQ5p  1 4.100000e-01    6.490000e+00
  SN6a  TQ5p  1 3.650000e-01    8.528000e+00
  SN5a   Q5p  1 4.300000e-01    4.595000e+00
  SN5a  SQ5p  1 4.100000e-01    6.202000e+00
  SN5a  TQ5p  1 3.650000e-01    8.159000e+00
  SN4a   Q5p  1 4.300000e-01    4.586000e+00
  SN4a  SQ5p  1 4.100000e-01    6.156000e+00
  SN4a  TQ5p  1 3.650000e-01    8.063000e+00
  SN3a   Q5p  1 4.300000e-01    4.375000e+00
  SN3a  SQ5p  1 4.100000e-01    5.879000e+00
  SN3a  TQ5p  1 3.650000e-01    7.673000e+00
  SN2a   Q5p  1 4.300000e-01    4.360000e+00
  SN2a  SQ5p  1 4.100000e-01    5.802000e+00
  SN2a  TQ5p  1 3.650000e-01    7.514000e+00
  SN1a   Q5p  1 4.300000e-01    4.139000e+00
  SN1a  SQ5p  1 4.100000e-01    5.423000e+00
  SN1a  TQ5p  1 3.650000e-01    7.016000e+00
  SC6v   Q5p  1 4.300000e-01    2.494000e+00
  SC6v  SQ5p  1 4.100000e-01    3.609000e+00
  SC6v  TQ5p  1 3.780000e-01    4.879000e+00
  SC5v   Q5p  1 4.730000e-01    1.559000e+00
  SC5v  SQ5p  1 4.210000e-01    2.771000e+00
  SC5v  TQ5p  1 4.230000e-01    3.798000e+00
  SC4v   Q5p  1 5.080000e-01    1.336000e+00
  SC4v  SQ5p  1 4.530000e-01    2.381000e+00
  SC4v  TQ5p  1 4.840000e-01    3.033000e+00
  SC3v   Q5p  1 5.140000e-01    1.279000e+00
  SC3v  SQ5p  1 4.960000e-01    1.898000e+00
  SC3v  TQ5p  1 5.370000e-01    2.265000e+00
  SC2v   Q5p  1 5.520000e-01    1.126000e+00
  SC2v  SQ5p  1 5.350000e-01    1.568000e+00
  SC2v  TQ5p  1 5.880000e-01    1.749000e+00
  SC1v   Q5p  1 5.520000e-01    1.066000e+00
  SC1v  SQ5p  1 5.350000e-01    1.264000e+00
  SC1v  TQ5p  1 5.880000e-01    1.233000e+00
  SX4v   Q5p  1 4.300000e-01    2.284000e+00
  SX4v  SQ5p  1 4.100000e-01    3.548000e+00
  SX4v  TQ5p  1 3.940000e-01    4.771000e+00
  SX3v   Q5p  1 4.300000e-01    2.064000e+00
  SX3v  SQ5p  1 4.140000e-01    3.242000e+00
  SX3v  TQ5p  1 4.040000e-01    4.338000e+00
  SX2v   Q5p  1 4.430000e-01    1.761000e+00
  SX2v  SQ5p  1 4.180000e-01    2.844000e+00
  SX2v  TQ5p  1 4.090000e-01    3.825000e+00
  SX1v   Q5p  1 4.730000e-01    1.463000e+00
  SX1v  SQ5p  1 4.210000e-01    2.249000e+00
  SX1v  TQ5p  1 4.230000e-01    2.831000e+00
  SC6e   Q5p  1 4.300000e-01    3.254000e+00
  SC6e  SQ5p  1 4.100000e-01    4.049000e+00
  SC6e  TQ5p  1 3.650000e-01    5.461000e+00
  SC5e   Q5p  1 4.300000e-01    2.237000e+00
  SC5e  SQ5p  1 4.100000e-01    3.312000e+00
  SC5e  TQ5p  1 3.940000e-01    4.315000e+00
  SC4e   Q5p  1 4.300000e-01    1.997000e+00
  SC4e  SQ5p  1 4.140000e-01    2.906000e+00
  SC4e  TQ5p  1 4.040000e-01    3.698000e+00
  SC3e   Q5p  1 4.430000e-01    1.676000e+00
  SC3e  SQ5p  1 4.180000e-01    2.406000e+00
  SC3e  TQ5p  1 4.090000e-01    2.993000e+00
  SC2e   Q5p  1 5.080000e-01    1.237000e+00
  SC2e  SQ5p  1 4.530000e-01    1.838000e+00
  SC2e  TQ5p  1 4.840000e-01    2.087000e+00
  SC1e   Q5p  1 5.080000e-01    1.170000e+00
  SC1e  SQ5p  1 4.530000e-01    1.478000e+00
  SC1e  TQ5p  1 4.840000e-01    1.461000e+00
  SX4e   Q5p  1 4.300000e-01    2.884000e+00
  SX4e  SQ5p  1 4.100000e-01    3.998000e+00
  SX4e  TQ5p  1 3.650000e-01    5.508000e+00
  SX3e   Q5p  1 4.300000e-01    2.654000e+00
  SX3e  SQ5p  1 4.100000e-01    3.739000e+00
  SX3e  TQ5p  1 3.660000e-01    5.141000e+00
  SX2e   Q5p  1 4.300000e-01    2.450000e+00
  SX2e  SQ5p  1 4.100000e-01    3.382000e+00
  SX2e  TQ5p  1 3.780000e-01    4.421000e+00
  SX1e   Q5p  1 4.300000e-01    2.132000e+00
  SX1e  SQ5p  1 4.100000e-01    2.775000e+00
  SX1e  TQ5p  1 3.940000e-01    3.276000e+00
  SP6q   Q5p  1 4.300000e-01    6.006000e+00
  SP6q  SQ5p  1 4.100000e-01    7.653000e+00
  SP6q  TQ5p  1 3.650000e-01    1.013400e+01
  SP5q   Q5p  1 4.300000e-01    5.991000e+00
  SP5q  SQ5p  1 4.100000e-01    7.573000e+00
  SP5q  TQ5p  1 3.650000e-01    9.967000e+00
  SP4q   Q5p  1 4.300000e-01    5.973000e+00
  SP4q  SQ5p  1 4.100000e-01    7.483000e+00
  SP4q  TQ5p  1 3.650000e-01    9.779000e+00
  SP3q   Q5p  1 4.300000e-01    5.662000e+00
  SP3q  SQ5p  1 4.100000e-01    7.139000e+00
  SP3q  TQ5p  1 3.650000e-01    9.316000e+00
  SP2q   Q5p  1 4.300000e-01    5.655000e+00
  SP2q  SQ5p  1 4.100000e-01    7.101000e+00
  SP2q  TQ5p  1 3.650000e-01    9.236000e+00
  SP1q   Q5p  1 4.300000e-01    5.359000e+00
  SP1q  SQ5p  1 4.100000e-01    6.782000e+00
  SP1q  TQ5p  1 3.650000e-01    8.886000e+00
  SN6q   Q5p  1 4.300000e-01    5.353000e+00
  SN6q  SQ5p  1 4.100000e-01    6.750000e+00
  SN6q  TQ5p  1 3.650000e-01    8.818000e+00
  SN5q   Q5p  1 4.300000e-01    5.105000e+00
  SN5q  SQ5p  1 4.100000e-01    6.452000e+00
  SN5q  TQ5p  1 3.650000e-01    8.449000e+00
  SN4q   Q5p  1 4.300000e-01    5.096000e+00
  SN4q  SQ5p  1 4.100000e-01    6.406000e+00
  SN4q  TQ5p  1 3.650000e-01    8.353000e+00
  SN3q   Q5p  1 4.300000e-01    4.805000e+00
  SN3q  SQ5p  1 4.100000e-01    6.099000e+00
  SN3q  TQ5p  1 3.650000e-01    7.943000e+00
  SN2q   Q5p  1 4.300000e-01    4.790000e+00
  SN2q  SQ5p  1 4.100000e-01    6.022000e+00
  SN2q  TQ5p  1 3.650000e-01    7.784000e+00
  SN1q   Q5p  1 4.300000e-01    4.539000e+00
  SN1q  SQ5p  1 4.100000e-01    5.693000e+00
  SN1q  TQ5p  1 3.650000e-01    7.286000e+00
  SC6q   Q5p  1 4.300000e-01    3.714000e+00
  SC6q  SQ5p  1 4.100000e-01    4.539000e+00
  SC6q  TQ5p  1 3.650000e-01    5.891000e+00
  SC5q   Q5p  1 4.300000e-01    2.837000e+00
  SC5q  SQ5p  1 4.100000e-01    3.602000e+00
  SC5q  TQ5p  1 3.660000e-01    4.856000e+00
  SC4q   Q5p  1 4.300000e-01    2.587000e+00
  SC4q  SQ5p  1 4.100000e-01    3.270000e+00
  SC4q  TQ5p  1 3.780000e-01    4.194000e+00
  SC3q   Q5p  1 4.300000e-01    2.362000e+00
  SC3q  SQ5p  1 4.100000e-01    2.775000e+00
  SC3q  TQ5p  1 3.940000e-01    3.276000e+00
  SC2q   Q5p  1 4.300000e-01    1.879000e+00
  SC2q  SQ5p  1 4.180000e-01    2.145000e+00
  SC2q  TQ5p  1 4.090000e-01    2.497000e+00
  SC1q   Q5p  1 4.300000e-01    1.801000e+00
  SC1q  SQ5p  1 4.180000e-01    1.755000e+00
  SC1q  TQ5p  1 4.090000e-01    1.756000e+00
  SX4q   Q5p  1 4.300000e-01    3.514000e+00
  SX4q  SQ5p  1 4.100000e-01    4.398000e+00
  SX4q  TQ5p  1 3.650000e-01    5.868000e+00
  SX3q   Q5p  1 4.300000e-01    3.254000e+00
  SX3q  SQ5p  1 4.100000e-01    4.049000e+00
  SX3q  TQ5p  1 3.650000e-01    5.461000e+00
  SX2q   Q5p  1 4.300000e-01    3.060000e+00
  SX2q  SQ5p  1 4.100000e-01    3.672000e+00
  SX2q  TQ5p  1 3.650000e-01    4.826000e+00
  SX1q   Q5p  1 4.300000e-01    2.732000e+00
  SX1q  SQ5p  1 4.100000e-01    3.065000e+00
  SX1q  TQ5p  1 3.660000e-01    3.738000e+00
 SP6dq   Q5p  1 4.300000e-01    5.706000e+00
 SP6dq  SQ5p  1 4.100000e-01    7.653000e+00
 SP6dq  TQ5p  1 3.650000e-01    1.013400e+01
 SP5dq   Q5p  1 4.300000e-01    5.401000e+00
 SP5dq  SQ5p  1 4.100000e-01    7.283000e+00
 SP5dq  TQ5p  1 3.650000e-01    9.617000e+00
 SP4dq   Q5p  1 4.300000e-01    5.383000e+00
 SP4dq  SQ5p  1 4.100000e-01    7.193000e+00
 SP4dq  TQ5p  1 3.650000e-01    9.429000e+00
 SP3dq   Q5p  1 4.300000e-01    5.132000e+00
 SP3dq  SQ5p  1 4.100000e-01    6.849000e+00
 SP3dq  TQ5p  1 3.650000e-01    9.026000e+00
 SP2dq   Q5p  1 4.300000e-01    5.125000e+00
 SP2dq  SQ5p  1 4.100000e-01    6.811000e+00
 SP2dq  TQ5p  1 3.650000e-01    8.946000e+00
 SP1dq   Q5p  1 4.300000e-01    4.839000e+00
 SP1dq  SQ5p  1 4.100000e-01    6.522000e+00
 SP1dq  TQ5p  1 3.650000e-01    8.596000e+00
 SN6dq   Q5p  1 4.300000e-01    4.833000e+00
 SN6dq  SQ5p  1 4.100000e-01    6.490000e+00
 SN6dq  TQ5p  1 3.650000e-01    8.528000e+00
 SN5dq   Q5p  1 4.300000e-01    4.595000e+00
 SN5dq  SQ5p  1 4.100000e-01    6.202000e+00
 SN5dq  TQ5p  1 3.650000e-01    8.159000e+00
 SN4dq   Q5p  1 4.300000e-01    4.586000e+00
 SN4dq  SQ5p  1 4.100000e-01    6.156000e+00
 SN4dq  TQ5p  1 3.650000e-01    8.063000e+00
 SN3dq   Q5p  1 4.300000e-01    4.575000e+00
 SN3dq  SQ5p  1 4.100000e-01    6.099000e+00
 SN3dq  TQ5p  1 3.650000e-01    7.943000e+00
 SN2dq   Q5p  1 4.300000e-01    4.560000e+00
 SN2dq  SQ5p  1 4.100000e-01    6.022000e+00
 SN2dq  TQ5p  1 3.650000e-01    7.784000e+00
 SN1dq   Q5p  1 4.300000e-01    4.139000e+00
 SN1dq  SQ5p  1 4.100000e-01    5.423000e+00
 SN1dq  TQ5p  1 3.650000e-01    7.016000e+00
 SP6aq   Q5p  1 4.300000e-01    5.706000e+00
 SP6aq  SQ5p  1 4.100000e-01    7.653000e+00
 SP6aq  TQ5p  1 3.650000e-01    1.013400e+01
 SP5aq   Q5p  1 4.300000e-01    5.691000e+00
 SP5aq  SQ5p  1 4.100000e-01    7.573000e+00
 SP5aq  TQ5p  1 3.650000e-01    9.967000e+00
 SP4aq   Q5p  1 4.300000e-01    5.673000e+00
 SP4aq  SQ5p  1 4.100000e-01    7.483000e+00
 SP4aq  TQ5p  1 3.650000e-01    9.779000e+00
 SP3aq   Q5p  1 4.300000e-01    5.662000e+00
 SP3aq  SQ5p  1 4.100000e-01    7.429000e+00
 SP3aq  TQ5p  1 3.650000e-01    9.666000e+00
 SP2aq   Q5p  1 4.300000e-01    5.655000e+00
 SP2aq  SQ5p  1 4.100000e-01    7.391000e+00
 SP2aq  TQ5p  1 3.650000e-01    9.586000e+00
 SP1aq   Q5p  1 4.300000e-01    5.649000e+00
 SP1aq  SQ5p  1 4.100000e-01    7.362000e+00
 SP1aq  TQ5p  1 3.650000e-01    9.526000e+00
 SN6aq   Q5p  1 4.300000e-01    5.643000e+00
 SN6aq  SQ5p  1 4.100000e-01    7.330000e+00
 SN6aq  TQ5p  1 3.650000e-01    9.458000e+00
 SN5aq   Q5p  1 4.300000e-01    5.345000e+00
 SN5aq  SQ5p  1 4.100000e-01    7.002000e+00
 SN5aq  TQ5p  1 3.650000e-01    9.029000e+00
 SN4aq   Q5p  1 4.300000e-01    5.336000e+00
 SN4aq  SQ5p  1 4.100000e-01    6.956000e+00
 SN4aq  TQ5p  1 3.650000e-01    8.933000e+00
 SN3aq   Q5p  1 4.300000e-01    5.085000e+00
 SN3aq  SQ5p  1 4.100000e-01    6.609000e+00
 SN3aq  TQ5p  1 3.650000e-01    8.523000e+00
 SN2aq   Q5p  1 4.300000e-01    5.070000e+00
 SN2aq  SQ5p  1 4.100000e-01    6.532000e+00
 SN2aq  TQ5p  1 3.650000e-01    8.364000e+00
 SN1aq   Q5p  1 4.300000e-01    4.769000e+00
 SN1aq  SQ5p  1 4.100000e-01    6.163000e+00
 SN1aq  TQ5p  1 3.650000e-01    7.846000e+00
 SC6vq   Q5p  1 4.300000e-01    3.254000e+00
 SC6vq  SQ5p  1 4.100000e-01    4.049000e+00
 SC6vq  TQ5p  1 3.650000e-01    5.461000e+00
 SC5vq   Q5p  1 4.300000e-01    2.237000e+00
 SC5vq  SQ5p  1 4.100000e-01    3.312000e+00
 SC5vq  TQ5p  1 3.940000e-01    4.315000e+00
 SC4vq   Q5p  1 4.300000e-01    1.997000e+00
 SC4vq  SQ5p  1 4.140000e-01    2.906000e+00
 SC4vq  TQ5p  1 4.040000e-01    3.698000e+00
 SC3vq   Q5p  1 4.430000e-01    1.676000e+00
 SC3vq  SQ5p  1 4.180000e-01    2.406000e+00
 SC3vq  TQ5p  1 4.090000e-01    2.993000e+00
 SC2vq   Q5p  1 4.730000e-01    1.416000e+00
 SC2vq  SQ5p  1 4.210000e-01    1.990000e+00
 SC2vq  TQ5p  1 4.230000e-01    2.351000e+00
 SC1vq   Q5p  1 4.730000e-01    1.345000e+00
 SC1vq  SQ5p  1 4.210000e-01    1.603000e+00
 SC1vq  TQ5p  1 4.230000e-01    1.634000e+00
 SX4vq   Q5p  1 4.300000e-01    2.884000e+00
 SX4vq  SQ5p  1 4.100000e-01    3.998000e+00
 SX4vq  TQ5p  1 3.650000e-01    5.508000e+00
 SX3vq   Q5p  1 4.300000e-01    2.654000e+00
 SX3vq  SQ5p  1 4.100000e-01    3.739000e+00
 SX3vq  TQ5p  1 3.660000e-01    5.141000e+00
 SX2vq   Q5p  1 4.300000e-01    2.450000e+00
 SX2vq  SQ5p  1 4.100000e-01    3.382000e+00
 SX2vq  TQ5p  1 3.780000e-01    4.421000e+00
 SX1vq   Q5p  1 4.300000e-01    2.132000e+00
 SX1vq  SQ5p  1 4.100000e-01    2.775000e+00
 SX1vq  TQ5p  1 3.940000e-01    3.276000e+00
 SC6eq   Q5p  1 4.300000e-01    3.714000e+00
 SC6eq  SQ5p  1 4.100000e-01    4.769000e+00
 SC6eq  TQ5p  1 3.650000e-01    6.121000e+00
 SC5eq   Q5p  1 4.300000e-01    2.837000e+00
 SC5eq  SQ5p  1 4.100000e-01    3.762000e+00
 SC5eq  TQ5p  1 3.650000e-01    5.015000e+00
 SC4eq   Q5p  1 4.300000e-01    2.587000e+00
 SC4eq  SQ5p  1 4.100000e-01    3.400000e+00
 SC4eq  TQ5p  1 3.660000e-01    4.434000e+00
 SC3eq   Q5p  1 4.300000e-01    2.362000e+00
 SC3eq  SQ5p  1 4.100000e-01    2.935000e+00
 SC3eq  TQ5p  1 3.780000e-01    3.520000e+00
 SC2eq   Q5p  1 5.080000e-01    1.237000e+00
 SC2eq  SQ5p  1 4.530000e-01    1.838000e+00
 SC2eq  TQ5p  1 4.840000e-01    2.087000e+00
 SC1eq   Q5p  1 5.080000e-01    1.170000e+00
 SC1eq  SQ5p  1 4.530000e-01    1.478000e+00
 SC1eq  TQ5p  1 4.840000e-01    1.461000e+00
 SX4eq   Q5p  1 4.300000e-01    3.514000e+00
 SX4eq  SQ5p  1 4.100000e-01    4.638000e+00
 SX4eq  TQ5p  1 3.650000e-01    6.098000e+00
 SX3eq   Q5p  1 4.300000e-01    3.264000e+00
 SX3eq  SQ5p  1 4.100000e-01    4.299000e+00
 SX3eq  TQ5p  1 3.650000e-01    5.661000e+00
 SX2eq   Q5p  1 4.300000e-01    3.210000e+00
 SX2eq  SQ5p  1 4.100000e-01    3.822000e+00
 SX2eq  TQ5p  1 3.650000e-01    4.986000e+00
 SX1eq   Q5p  1 4.300000e-01    2.732000e+00
 SX1eq  SQ5p  1 4.100000e-01    3.225000e+00
 SX1eq  TQ5p  1 3.650000e-01    3.893000e+00
  SP6h   Q5p  1 4.300000e-01    5.416000e+00
  SP6h  SQ5p  1 4.100000e-01    7.073000e+00
  SP6h  TQ5p  1 3.650000e-01    9.494000e+00
  SP5h   Q5p  1 4.300000e-01    5.161000e+00
  SP5h  SQ5p  1 4.100000e-01    6.733000e+00
  SP5h  TQ5p  1 3.650000e-01    9.037000e+00
  SP4h   Q5p  1 4.300000e-01    5.143000e+00
  SP4h  SQ5p  1 4.100000e-01    6.643000e+00
  SP4h  TQ5p  1 3.650000e-01    8.849000e+00
  SP3h   Q5p  1 4.300000e-01    4.852000e+00
  SP3h  SQ5p  1 4.100000e-01    6.339000e+00
  SP3h  TQ5p  1 3.650000e-01    8.446000e+00
  SP2h   Q5p  1 4.300000e-01    4.845000e+00
  SP2h  SQ5p  1 4.100000e-01    6.301000e+00
  SP2h  TQ5p  1 3.650000e-01    8.366000e+00
  SP1h   Q5p  1 4.300000e-01    4.609000e+00
  SP1h  SQ5p  1 4.100000e-01    6.052000e+00
  SP1h  TQ5p  1 3.650000e-01    8.036000e+00
  SN6h   Q5p  1 4.300000e-01    4.603000e+00
  SN6h  SQ5p  1 4.100000e-01    6.020000e+00
  SN6h  TQ5p  1 3.650000e-01    7.968000e+00
  SN5h   Q5p  1 4.300000e-01    4.395000e+00
  SN5h  SQ5p  1 4.100000e-01    5.712000e+00
  SN5h  TQ5p  1 3.650000e-01    7.619000e+00
  SN4h   Q5p  1 4.300000e-01    4.386000e+00
  SN4h  SQ5p  1 4.100000e-01    5.666000e+00
  SN4h  TQ5p  1 3.650000e-01    7.523000e+00
  SN3h   Q5p  1 4.300000e-01    4.175000e+00
  SN3h  SQ5p  1 4.100000e-01    5.369000e+00
  SN3h  TQ5p  1 3.650000e-01    7.133000e+00
  SN2h   Q5p  1 4.300000e-01    4.160000e+00
  SN2h  SQ5p  1 4.100000e-01    5.292000e+00
  SN2h  TQ5p  1 3.650000e-01    6.974000e+00
  SN1h   Q5p  1 4.300000e-01    3.959000e+00
  SN1h  SQ5p  1 4.100000e-01    4.943000e+00
  SN1h  TQ5p  1 3.650000e-01    6.486000e+00
  SC6h   Q5p  1 4.300000e-01    3.104000e+00
  SC6h  SQ5p  1 4.100000e-01    3.899000e+00
  SC6h  TQ5p  1 3.650000e-01    5.301000e+00
  SC5h   Q5p  1 4.300000e-01    2.237000e+00
  SC5h  SQ5p  1 4.140000e-01    3.107000e+00
  SC5h  TQ5p  1 4.040000e-01    4.080000e+00
  SC4h   Q5p  1 4.300000e-01    1.997000e+00
  SC4h  SQ5p  1 4.180000e-01    2.734000e+00
  SC4h  TQ5p  1 4.090000e-01    3.616000e+00
  SC3h   Q5p  1 4.430000e-01    1.676000e+00
  SC3h  SQ5p  1 4.210000e-01    2.249000e+00
  SC3h  TQ5p  1 4.230000e-01    2.831000e+00
  SC2h   Q5p  1 5.140000e-01    1.235000e+00
  SC2h  SQ5p  1 4.960000e-01    1.678000e+00
  SC2h  TQ5p  1 5.370000e-01    1.887000e+00
  SC1h   Q5p  1 5.140000e-01    1.170000e+00
  SC1h  SQ5p  1 4.960000e-01    1.349000e+00
  SC1h  TQ5p  1 5.370000e-01    1.323000e+00
  SX4h   Q5p  1 4.300000e-01    2.884000e+00
  SX4h  SQ5p  1 4.100000e-01    3.838000e+00
  SX4h  TQ5p  1 3.660000e-01    5.348000e+00
  SX3h   Q5p  1 4.300000e-01    2.654000e+00
  SX3h  SQ5p  1 4.100000e-01    3.609000e+00
  SX3h  TQ5p  1 3.780000e-01    4.879000e+00
  SX2h   Q5p  1 4.300000e-01    2.450000e+00
  SX2h  SQ5p  1 4.100000e-01    3.222000e+00
  SX2h  TQ5p  1 3.940000e-01    4.140000e+00
  SX1h   Q5p  1 4.300000e-01    2.132000e+00
  SX1h  SQ5p  1 4.140000e-01    2.576000e+00
  SX1h  TQ5p  1 4.040000e-01    3.067000e+00
 SP6dh   Q5p  1 4.300000e-01    4.896000e+00
 SP6dh  SQ5p  1 4.100000e-01    6.813000e+00
 SP6dh  TQ5p  1 3.650000e-01    9.204000e+00
 SP5dh   Q5p  1 4.300000e-01    4.651000e+00
 SP5dh  SQ5p  1 4.100000e-01    6.483000e+00
 SP5dh  TQ5p  1 3.650000e-01    8.747000e+00
 SP4dh   Q5p  1 4.300000e-01    4.633000e+00
 SP4dh  SQ5p  1 4.100000e-01    6.393000e+00
 SP4dh  TQ5p  1 3.650000e-01    8.559000e+00
 SP3dh   Q5p  1 4.300000e-01    4.422000e+00
 SP3dh  SQ5p  1 4.100000e-01    6.119000e+00
 SP3dh  TQ5p  1 3.650000e-01    8.176000e+00
 SP2dh   Q5p  1 4.300000e-01    4.415000e+00
 SP2dh  SQ5p  1 4.100000e-01    6.081000e+00
 SP2dh  TQ5p  1 3.650000e-01    8.096000e+00
 SP1dh   Q5p  1 4.300000e-01    4.209000e+00
 SP1dh  SQ5p  1 4.100000e-01    5.782000e+00
 SP1dh  TQ5p  1 3.650000e-01    7.766000e+00
 SN6dh   Q5p  1 4.300000e-01    4.203000e+00
 SN6dh  SQ5p  1 4.100000e-01    5.750000e+00
 SN6dh  TQ5p  1 3.650000e-01    7.698000e+00
 SN5dh   Q5p  1 4.300000e-01    4.015000e+00
 SN5dh  SQ5p  1 4.100000e-01    5.472000e+00
 SN5dh  TQ5p  1 3.650000e-01    7.349000e+00
 SN4dh   Q5p  1 4.300000e-01    4.006000e+00
 SN4dh  SQ5p  1 4.100000e-01    5.426000e+00
 SN4dh  TQ5p  1 3.650000e-01    7.253000e+00
 SN3dh   Q5p  1 4.300000e-01    3.995000e+00
 SN3dh  SQ5p  1 4.100000e-01    5.369000e+00
 SN3dh  TQ5p  1 3.650000e-01    7.133000e+00
 SN2dh   Q5p  1 4.300000e-01    3.980000e+00
 SN2dh  SQ5p  1 4.100000e-01    5.292000e+00
 SN2dh  TQ5p  1 3.650000e-01    6.974000e+00
 SN1dh   Q5p  1 4.300000e-01    3.529000e+00
 SN1dh  SQ5p  1 4.100000e-01    4.713000e+00
 SN1dh  TQ5p  1 3.650000e-01    6.256000e+00
 SP6ah   Q5p  1 4.300000e-01    5.706000e+00
 SP6ah  SQ5p  1 4.100000e-01    7.653000e+00
 SP6ah  TQ5p  1 3.650000e-01    1.013400e+01
 SP5ah   Q5p  1 4.300000e-01    5.401000e+00
 SP5ah  SQ5p  1 4.100000e-01    7.283000e+00
 SP5ah  TQ5p  1 3.650000e-01    9.617000e+00
 SP4ah   Q5p  1 4.300000e-01    5.383000e+00
 SP4ah  SQ5p  1 4.100000e-01    7.193000e+00
 SP4ah  TQ5p  1 3.650000e-01    9.429000e+00
 SP3ah   Q5p  1 4.300000e-01    5.132000e+00
 SP3ah  SQ5p  1 4.100000e-01    6.849000e+00
 SP3ah  TQ5p  1 3.650000e-01    9.026000e+00
 SP2ah   Q5p  1 4.300000e-01    5.125000e+00
 SP2ah  SQ5p  1 4.100000e-01    6.811000e+00
 SP2ah  TQ5p  1 3.650000e-01    8.946000e+00
 SP1ah   Q5p  1 4.300000e-01    4.839000e+00
 SP1ah  SQ5p  1 4.100000e-01    6.522000e+00
 SP1ah  TQ5p  1 3.650000e-01    8.596000e+00
 SN6ah   Q5p  1 4.300000e-01    4.833000e+00
 SN6ah  SQ5p  1 4.100000e-01    6.490000e+00
 SN6ah  TQ5p  1 3.650000e-01    8.528000e+00
 SN5ah   Q5p  1 4.300000e-01    4.595000e+00
 SN5ah  SQ5p  1 4.100000e-01    6.202000e+00
 SN5ah  TQ5p  1 3.650000e-01    8.159000e+00
 SN4ah   Q5p  1 4.300000e-01    4.586000e+00
 SN4ah  SQ5p  1 4.100000e-01    6.156000e+00
 SN4ah  TQ5p  1 3.650000e-01    8.063000e+00
 SN3ah   Q5p  1 4.300000e-01    4.375000e+00
 SN3ah  SQ5p  1 4.100000e-01    5.879000e+00
 SN3ah  TQ5p  1 3.650000e-01    7.673000e+00
 SN2ah   Q5p  1 4.300000e-01    4.360000e+00
 SN2ah  SQ5p  1 4.100000e-01    5.802000e+00
 SN2ah  TQ5p  1 3.650000e-01    7.514000e+00
 SN1ah   Q5p  1 4.300000e-01    4.139000e+00
 SN1ah  SQ5p  1 4.100000e-01    5.423000e+00
 SN1ah  TQ5p  1 3.650000e-01    7.016000e+00
 SC6vh   Q5p  1 4.300000e-01    2.494000e+00
 SC6vh  SQ5p  1 4.100000e-01    3.609000e+00
 SC6vh  TQ5p  1 3.780000e-01    4.879000e+00
 SC5vh   Q5p  1 4.730000e-01    1.559000e+00
 SC5vh  SQ5p  1 4.210000e-01    2.771000e+00
 SC5vh  TQ5p  1 4.230000e-01    3.798000e+00
 SC4vh   Q5p  1 5.080000e-01    1.336000e+00
 SC4vh  SQ5p  1 4.530000e-01    2.381000e+00
 SC4vh  TQ5p  1 4.840000e-01    3.033000e+00
 SC3vh   Q5p  1 5.140000e-01    1.279000e+00
 SC3vh  SQ5p  1 4.960000e-01    1.898000e+00
 SC3vh  TQ5p  1 5.370000e-01    2.265000e+00
 SC2vh   Q5p  1 5.520000e-01    1.126000e+00
 SC2vh  SQ5p  1 5.350000e-01    1.568000e+00
 SC2vh  TQ5p  1 5.880000e-01    1.749000e+00
 SC1vh   Q5p  1 5.520000e-01    1.066000e+00
 SC1vh  SQ5p  1 5.350000e-01    1.264000e+00
 SC1vh  TQ5p  1 5.880000e-01    1.233000e+00
 SX4vh   Q5p  1 4.300000e-01    2.284000e+00
 SX4vh  SQ5p  1 4.100000e-01    3.548000e+00
 SX4vh  TQ5p  1 3.940000e-01    4.771000e+00
 SX3vh   Q5p  1 4.300000e-01    2.064000e+00
 SX3vh  SQ5p  1 4.140000e-01    3.242000e+00
 SX3vh  TQ5p  1 4.040000e-01    4.338000e+00
 SX2vh   Q5p  1 4.430000e-01    1.761000e+00
 SX2vh  SQ5p  1 4.180000e-01    2.844000e+00
 SX2vh  TQ5p  1 4.090000e-01    3.825000e+00
 SX1vh   Q5p  1 4.730000e-01    1.463000e+00
 SX1vh  SQ5p  1 4.210000e-01    2.249000e+00
 SX1vh  TQ5p  1 4.230000e-01    2.831000e+00
 SC6eh   Q5p  1 4.300000e-01    3.254000e+00
 SC6eh  SQ5p  1 4.100000e-01    4.049000e+00
 SC6eh  TQ5p  1 3.650000e-01    5.461000e+00
 SC5eh   Q5p  1 4.300000e-01    2.237000e+00
 SC5eh  SQ5p  1 4.100000e-01    3.312000e+00
 SC5eh  TQ5p  1 3.940000e-01    4.315000e+00
 SC4eh   Q5p  1 4.300000e-01    1.997000e+00
 SC4eh  SQ5p  1 4.140000e-01    2.906000e+00
 SC4eh  TQ5p  1 4.040000e-01    3.698000e+00
 SC3eh   Q5p  1 4.430000e-01    1.676000e+00
 SC3eh  SQ5p  1 4.180000e-01    2.406000e+00
 SC3eh  TQ5p  1 4.090000e-01    2.993000e+00
 SC2eh   Q5p  1 5.080000e-01    1.237000e+00
 SC2eh  SQ5p  1 4.530000e-01    1.838000e+00
 SC2eh  TQ5p  1 4.840000e-01    2.087000e+00
 SC1eh   Q5p  1 5.080000e-01    1.170000e+00
 SC1eh  SQ5p  1 4.530000e-01    1.478000e+00
 SC1eh  TQ5p  1 4.840000e-01    1.461000e+00
 SX4eh   Q5p  1 4.300000e-01    2.884000e+00
 SX4eh  SQ5p  1 4.100000e-01    3.998000e+00
 SX4eh  TQ5p  1 3.650000e-01    5.508000e+00
 SX3eh   Q5p  1 4.300000e-01    2.654000e+00
 SX3eh  SQ5p  1 4.100000e-01    3.739000e+00
 SX3eh  TQ5p  1 3.660000e-01    5.141000e+00
 SX2eh   Q5p  1 4.300000e-01    2.450000e+00
 SX2eh  SQ5p  1 4.100000e-01    3.382000e+00
 SX2eh  TQ5p  1 3.780000e-01    4.421000e+00
 SX1eh   Q5p  1 4.300000e-01    2.132000e+00
 SX1eh  SQ5p  1 4.100000e-01    2.775000e+00
 SX1eh  TQ5p  1 3.940000e-01    3.276000e+00
  SP6r   Q5p  1 4.300000e-01    5.416000e+00
  SP6r  SQ5p  1 4.100000e-01    7.073000e+00
  SP6r  TQ5p  1 3.650000e-01    9.494000e+00
  SP5r   Q5p  1 4.300000e-01    5.161000e+00
  SP5r  SQ5p  1 4.100000e-01    6.733000e+00
  SP5r  TQ5p  1 3.650000e-01    9.037000e+00
  SP4r   Q5p  1 4.300000e-01    5.143000e+00
  SP4r  SQ5p  1 4.100000e-01    6.643000e+00
  SP4r  TQ5p  1 3.650000e-01    8.849000e+00
  SP3r   Q5p  1 4.300000e-01    4.852000e+00
  SP3r  SQ5p  1 4.100000e-01    6.339000e+00
  SP3r  TQ5p  1 3.650000e-01    8.446000e+00
  SP2r   Q5p  1 4.300000e-01    4.845000e+00
  SP2r  SQ5p  1 4.100000e-01    6.301000e+00
  SP2r  TQ5p  1 3.650000e-01    8.366000e+00
  SP1r   Q5p  1 4.300000e-01    4.609000e+00
  SP1r  SQ5p  1 4.100000e-01    6.052000e+00
  SP1r  TQ5p  1 3.650000e-01    8.036000e+00
  SN6r   Q5p  1 4.300000e-01    4.603000e+00
  SN6r  SQ5p  1 4.100000e-01    6.020000e+00
  SN6r  TQ5p  1 3.650000e-01    7.968000e+00
  SN5r   Q5p  1 4.300000e-01    4.395000e+00
  SN5r  SQ5p  1 4.100000e-01    5.712000e+00
  SN5r  TQ5p  1 3.650000e-01    7.619000e+00
  SN4r   Q5p  1 4.300000e-01    4.386000e+00
  SN4r  SQ5p  1 4.100000e-01    5.666000e+00
  SN4r  TQ5p  1 3.650000e-01    7.523000e+00
  SN3r   Q5p  1 4.300000e-01    4.175000e+00
  SN3r  SQ5p  1 4.100000e-01    5.369000e+00
  SN3r  TQ5p  1 3.650000e-01    7.133000e+00
  SN2r   Q5p  1 4.300000e-01    4.160000e+00
  SN2r  SQ5p  1 4.100000e-01    5.292000e+00
  SN2r  TQ5p  1 3.650000e-01    6.974000e+00
  SN1r   Q5p  1 4.300000e-01    3.959000e+00
  SN1r  SQ5p  1 4.100000e-01    4.943000e+00
  SN1r  TQ5p  1 3.650000e-01    6.486000e+00
  SC6r   Q5p  1 4.300000e-01    3.104000e+00
  SC6r  SQ5p  1 4.100000e-01    3.899000e+00
  SC6r  TQ5p  1 3.650000e-01    5.301000e+00
  SC5r   Q5p  1 4.300000e-01    2.237000e+00
  SC5r  SQ5p  1 4.140000e-01    3.107000e+00
  SC5r  TQ5p  1 4.040000e-01    4.080000e+00
  SC4r   Q5p  1 4.300000e-01    1.997000e+00
  SC4r  SQ5p  1 4.180000e-01    2.734000e+00
  SC4r  TQ5p  1 4.090000e-01    3.616000e+00
  SC3r   Q5p  1 4.430000e-01    1.676000e+00
  SC3r  SQ5p  1 4.210000e-01    2.249000e+00
  SC3r  TQ5p  1 4.230000e-01    2.831000e+00
  SC2r   Q5p  1 5.140000e-01    1.235000e+00
  SC2r  SQ5p  1 4.960000e-01    1.678000e+00
  SC2r  TQ5p  1 5.370000e-01    1.887000e+00
  SC1r   Q5p  1 5.140000e-01    1.170000e+00
  SC1r  SQ5p  1 4.960000e-01    1.349000e+00
  SC1r  TQ5p  1 5.370000e-01    1.323000e+00
  SX4r   Q5p  1 4.300000e-01    2.884000e+00
  SX4r  SQ5p  1 4.100000e-01    3.838000e+00
  SX4r  TQ5p  1 3.660000e-01    5.348000e+00
  SX3r   Q5p  1 4.300000e-01    2.654000e+00
  SX3r  SQ5p  1 4.100000e-01    3.609000e+00
  SX3r  TQ5p  1 3.780000e-01    4.879000e+00
  SX2r   Q5p  1 4.300000e-01    2.450000e+00
  SX2r  SQ5p  1 4.100000e-01    3.222000e+00
  SX2r  TQ5p  1 3.940000e-01    4.140000e+00
  SX1r   Q5p  1 4.300000e-01    2.132000e+00
  SX1r  SQ5p  1 4.140000e-01    2.576000e+00
  SX1r  TQ5p  1 4.040000e-01    3.067000e+00
 SP6dr   Q5p  1 4.300000e-01    4.896000e+00
 SP6dr  SQ5p  1 4.100000e-01    6.813000e+00
 SP6dr  TQ5p  1 3.650000e-01    9.204000e+00
 SP5dr   Q5p  1 4.300000e-01    4.651000e+00
 SP5dr  SQ5p  1 4.100000e-01    6.483000e+00
 SP5dr  TQ5p  1 3.650000e-01    8.747000e+00
 SP4dr   Q5p  1 4.300000e-01    4.633000e+00
 SP4dr  SQ5p  1 4.100000e-01    6.393000e+00
 SP4dr  TQ5p  1 3.650000e-01    8.559000e+00
 SP3dr   Q5p  1 4.300000e-01    4.422000e+00
 SP3dr  SQ5p  1 4.100000e-01    6.119000e+00
 SP3dr  TQ5p  1 3.650000e-01    8.176000e+00
 SP2dr   Q5p  1 4.300000e-01    4.415000e+00
 SP2dr  SQ5p  1 4.100000e-01    6.081000e+00
 SP2dr  TQ5p  1 3.650000e-01    8.096000e+00
 SP1dr   Q5p  1 4.300000e-01    4.209000e+00
 SP1dr  SQ5p  1 4.100000e-01    5.782000e+00
 SP1dr  TQ5p  1 3.650000e-01    7.766000e+00
 SN6dr   Q5p  1 4.300000e-01    4.203000e+00
 SN6dr  SQ5p  1 4.100000e-01    5.750000e+00
 SN6dr  TQ5p  1 3.650000e-01    7.698000e+00
 SN5dr   Q5p  1 4.300000e-01    4.015000e+00
 SN5dr  SQ5p  1 4.100000e-01    5.472000e+00
 SN5dr  TQ5p  1 3.650000e-01    7.349000e+00
 SN4dr   Q5p  1 4.300000e-01    4.006000e+00
 SN4dr  SQ5p  1 4.100000e-01    5.426000e+00
 SN4dr  TQ5p  1 3.650000e-01    7.253000e+00
 SN3dr   Q5p  1 4.300000e-01    3.995000e+00
 SN3dr  SQ5p  1 4.100000e-01    5.369000e+00
 SN3dr  TQ5p  1 3.650000e-01    7.133000e+00
 SN2dr   Q5p  1 4.300000e-01    3.980000e+00
 SN2dr  SQ5p  1 4.100000e-01    5.292000e+00
 SN2dr  TQ5p  1 3.650000e-01    6.974000e+00
 SN1dr   Q5p  1 4.300000e-01    3.529000e+00
 SN1dr  SQ5p  1 4.100000e-01    4.713000e+00
 SN1dr  TQ5p  1 3.650000e-01    6.256000e+00
 SP6ar   Q5p  1 4.300000e-01    5.706000e+00
 SP6ar  SQ5p  1 4.100000e-01    7.653000e+00
 SP6ar  TQ5p  1 3.650000e-01    1.013400e+01
 SP5ar   Q5p  1 4.300000e-01    5.401000e+00
 SP5ar  SQ5p  1 4.100000e-01    7.283000e+00
 SP5ar  TQ5p  1 3.650000e-01    9.617000e+00
 SP4ar   Q5p  1 4.300000e-01    5.383000e+00
 SP4ar  SQ5p  1 4.100000e-01    7.193000e+00
 SP4ar  TQ5p  1 3.650000e-01    9.429000e+00
 SP3ar   Q5p  1 4.300000e-01    5.132000e+00
 SP3ar  SQ5p  1 4.100000e-01    6.849000e+00
 SP3ar  TQ5p  1 3.650000e-01    9.026000e+00
 SP2ar   Q5p  1 4.300000e-01    5.125000e+00
 SP2ar  SQ5p  1 4.100000e-01    6.811000e+00
 SP2ar  TQ5p  1 3.650000e-01    8.946000e+00
 SP1ar   Q5p  1 4.300000e-01    4.839000e+00
 SP1ar  SQ5p  1 4.100000e-01    6.522000e+00
 SP1ar  TQ5p  1 3.650000e-01    8.596000e+00
 SN6ar   Q5p  1 4.300000e-01    4.833000e+00
 SN6ar  SQ5p  1 4.100000e-01    6.490000e+00
 SN6ar  TQ5p  1 3.650000e-01    8.528000e+00
 SN5ar   Q5p  1 4.300000e-01    4.595000e+00
 SN5ar  SQ5p  1 4.100000e-01    6.202000e+00
 SN5ar  TQ5p  1 3.650000e-01    8.159000e+00
 SN4ar   Q5p  1 4.300000e-01    4.586000e+00
 SN4ar  SQ5p  1 4.100000e-01    6.156000e+00
 SN4ar  TQ5p  1 3.650000e-01    8.063000e+00
 SN3ar   Q5p  1 4.300000e-01    4.375000e+00
 SN3ar  SQ5p  1 4.100000e-01    5.879000e+00
 SN3ar  TQ5p  1 3.650000e-01    7.673000e+00
 SN2ar   Q5p  1 4.300000e-01    4.360000e+00
 SN2ar  SQ5p  1 4.100000e-01    5.802000e+00
 SN2ar  TQ5p  1 3.650000e-01    7.514000e+00
 SN1ar   Q5p  1 4.300000e-01    4.139000e+00
 SN1ar  SQ5p  1 4.100000e-01    5.423000e+00
 SN1ar  TQ5p  1 3.650000e-01    7.016000e+00
 SC6vr   Q5p  1 4.300000e-01    2.494000e+00
 SC6vr  SQ5p  1 4.100000e-01    3.609000e+00
 SC6vr  TQ5p  1 3.780000e-01    4.879000e+00
 SC5vr   Q5p  1 4.730000e-01    1.559000e+00
 SC5vr  SQ5p  1 4.210000e-01    2.771000e+00
 SC5vr  TQ5p  1 4.230000e-01    3.798000e+00
 SC4vr   Q5p  1 5.080000e-01    1.336000e+00
 SC4vr  SQ5p  1 4.530000e-01    2.381000e+00
 SC4vr  TQ5p  1 4.840000e-01    3.033000e+00
 SC3vr   Q5p  1 5.140000e-01    1.279000e+00
 SC3vr  SQ5p  1 4.960000e-01    1.898000e+00
 SC3vr  TQ5p  1 5.370000e-01    2.265000e+00
 SC2vr   Q5p  1 5.520000e-01    1.126000e+00
 SC2vr  SQ5p  1 5.350000e-01    1.568000e+00
 SC2vr  TQ5p  1 5.880000e-01    1.749000e+00
 SC1vr   Q5p  1 5.520000e-01    1.066000e+00
 SC1vr  SQ5p  1 5.350000e-01    1.264000e+00
 SC1vr  TQ5p  1 5.880000e-01    1.233000e+00
 SX4vr   Q5p  1 4.300000e-01    2.284000e+00
 SX4vr  SQ5p  1 4.100000e-01    3.548000e+00
 SX4vr  TQ5p  1 3.940000e-01    4.771000e+00
 SX3vr   Q5p  1 4.300000e-01    2.064000e+00
 SX3vr  SQ5p  1 4.140000e-01    3.242000e+00
 SX3vr  TQ5p  1 4.040000e-01    4.338000e+00
 SX2vr   Q5p  1 4.430000e-01    1.761000e+00
 SX2vr  SQ5p  1 4.180000e-01    2.844000e+00
 SX2vr  TQ5p  1 4.090000e-01    3.825000e+00
 SX1vr   Q5p  1 4.730000e-01    1.463000e+00
 SX1vr  SQ5p  1 4.210000e-01    2.249000e+00
 SX1vr  TQ5p  1 4.230000e-01    2.831000e+00
 SC6er   Q5p  1 4.300000e-01    3.254000e+00
 SC6er  SQ5p  1 4.100000e-01    4.049000e+00
 SC6er  TQ5p  1 3.650000e-01    5.461000e+00
 SC5er   Q5p  1 4.300000e-01    2.237000e+00
 SC5er  SQ5p  1 4.100000e-01    3.312000e+00
 SC5er  TQ5p  1 3.940000e-01    4.315000e+00
 SC4er   Q5p  1 4.300000e-01    1.997000e+00
 SC4er  SQ5p  1 4.140000e-01    2.906000e+00
 SC4er  TQ5p  1 4.040000e-01    3.698000e+00
 SC3er   Q5p  1 4.430000e-01    1.676000e+00
 SC3er  SQ5p  1 4.180000e-01    2.406000e+00
 SC3er  TQ5p  1 4.090000e-01    2.993000e+00
 SC2er   Q5p  1 5.080000e-01    1.237000e+00
 SC2er  SQ5p  1 4.530000e-01    1.838000e+00
 SC2er  TQ5p  1 4.840000e-01    2.087000e+00
 SC1er   Q5p  1 5.080000e-01    1.170000e+00
 SC1er  SQ5p  1 4.530000e-01    1.478000e+00
 SC1er  TQ5p  1 4.840000e-01    1.461000e+00
 SX4er   Q5p  1 4.300000e-01    2.884000e+00
 SX4er  SQ5p  1 4.100000e-01    3.998000e+00
 SX4er  TQ5p  1 3.650000e-01    5.508000e+00
 SX3er   Q5p  1 4.300000e-01    2.654000e+00
 SX3er  SQ5p  1 4.100000e-01    3.739000e+00
 SX3er  TQ5p  1 3.660000e-01    5.141000e+00
 SX2er   Q5p  1 4.300000e-01    2.450000e+00
 SX2er  SQ5p  1 4.100000e-01    3.382000e+00
 SX2er  TQ5p  1 3.780000e-01    4.421000e+00
 SX1er   Q5p  1 4.300000e-01    2.132000e+00
 SX1er  SQ5p  1 4.100000e-01    2.775000e+00
 SX1er  TQ5p  1 3.940000e-01    3.276000e+00
   TP6   Q5p  1 3.950000e-01    4.950000e+00
   TP6  SQ5p  1 3.650000e-01    6.468000e+00
   TP6  TQ5p  1 3.400000e-01    8.696000e+00
   TP5   Q5p  1 3.950000e-01    4.625000e+00
   TP5  SQ5p  1 3.650000e-01    6.098000e+00
   TP5  TQ5p  1 3.400000e-01    8.240000e+00
   TP4   Q5p  1 3.950000e-01    4.609000e+00
   TP4  SQ5p  1 3.650000e-01    6.008000e+00
   TP4  TQ5p  1 3.400000e-01    8.042000e+00
   TP3   Q5p  1 3.950000e-01    4.279000e+00
   TP3  SQ5p  1 3.650000e-01    5.665000e+00
   TP3  TQ5p  1 3.400000e-01    7.674000e+00
   TP2   Q5p  1 3.950000e-01    4.272000e+00
   TP2  SQ5p  1 3.650000e-01    5.627000e+00
   TP2  TQ5p  1 3.400000e-01    7.592000e+00
   TP1   Q5p  1 3.950000e-01    4.027000e+00
   TP1  SQ5p  1 3.650000e-01    5.329000e+00
   TP1  TQ5p  1 3.400000e-01    7.299000e+00
   TN6   Q5p  1 3.950000e-01    4.021000e+00
   TN6  SQ5p  1 3.650000e-01    5.296000e+00
   TN6  TQ5p  1 3.400000e-01    7.228000e+00
   TN5   Q5p  1 3.950000e-01    3.774000e+00
   TN5  SQ5p  1 3.650000e-01    4.989000e+00
   TN5  TQ5p  1 3.400000e-01    6.895000e+00
   TN4   Q5p  1 3.950000e-01    3.766000e+00
   TN4  SQ5p  1 3.650000e-01    4.944000e+00
   TN4  TQ5p  1 3.400000e-01    6.796000e+00
   TN3   Q5p  1 3.950000e-01    3.516000e+00
   TN3  SQ5p  1 3.650000e-01    4.617000e+00
   TN3  TQ5p  1 3.400000e-01    6.431000e+00
   TN2   Q5p  1 3.950000e-01    3.502000e+00
   TN2  SQ5p  1 3.650000e-01    4.542000e+00
   TN2  TQ5p  1 3.400000e-01    6.266000e+00
   TN1   Q5p  1 3.950000e-01    3.232000e+00
   TN1  SQ5p  1 3.650000e-01    4.174000e+00
   TN1  TQ5p  1 3.400000e-01    5.810000e+00
   TC6   Q5p  1 3.950000e-01    2.371000e+00
   TC6  SQ5p  1 3.650000e-01    3.182000e+00
   TC6  TQ5p  1 3.400000e-01    4.380000e+00
   TC5   Q5p  1 3.990000e-01    1.414000e+00
   TC5  SQ5p  1 4.040000e-01    2.302000e+00
   TC5  TQ5p  1 4.110000e-01    3.162000e+00
   TC4   Q5p  1 4.010000e-01    1.180000e+00
   TC4  SQ5p  1 4.090000e-01    2.059000e+00
   TC4  TQ5p  1 4.240000e-01    2.712000e+00
   TC3   Q5p  1 4.040000e-01    9.670000e-01
   TC3  SQ5p  1 4.230000e-01    1.644000e+00
   TC3  TQ5p  1 4.380000e-01    2.043000e+00
   TC2   Q5p  1 5.110000e-01    7.300000e-01
   TC2  SQ5p  1 5.370000e-01    1.152000e+00
   TC2  TQ5p  1 5.610000e-01    1.304000e+00
   TC1   Q5p  1 5.110000e-01    6.750000e-01
   TC1  SQ5p  1 5.370000e-01    8.850000e-01
   TC1  TQ5p  1 5.610000e-01    7.820000e-01
   TX4   Q5p  1 3.950000e-01    2.129000e+00
   TX4  SQ5p  1 3.660000e-01    3.126000e+00
   TX4  TQ5p  1 3.520000e-01    4.301000e+00
   TX3   Q5p  1 3.950000e-01    1.931000e+00
   TX3  SQ5p  1 3.780000e-01    2.833000e+00
   TX3  TQ5p  1 3.660000e-01    3.862000e+00
   TX2   Q5p  1 3.980000e-01    1.668000e+00
   TX2  SQ5p  1 3.940000e-01    2.409000e+00
   TX2  TQ5p  1 3.850000e-01    3.202000e+00
   TX1   Q5p  1 3.990000e-01    1.319000e+00
   TX1  SQ5p  1 4.040000e-01    1.824000e+00
   TX1  TQ5p  1 4.110000e-01    2.199000e+00
  TP6d   Q5p  1 3.950000e-01    4.640000e+00
  TP6d  SQ5p  1 3.650000e-01    6.178000e+00
  TP6d  TQ5p  1 3.400000e-01    8.416000e+00
  TP5d   Q5p  1 3.950000e-01    4.305000e+00
  TP5d  SQ5p  1 3.650000e-01    5.808000e+00
  TP5d  TQ5p  1 3.400000e-01    7.990000e+00
  TP4d   Q5p  1 3.950000e-01    4.289000e+00
  TP4d  SQ5p  1 3.650000e-01    5.718000e+00
  TP4d  TQ5p  1 3.400000e-01    7.792000e+00
  TP3d   Q5p  1 3.950000e-01    4.039000e+00
  TP3d  SQ5p  1 3.650000e-01    5.395000e+00
  TP3d  TQ5p  1 3.400000e-01    7.444000e+00
  TP2d   Q5p  1 3.950000e-01    4.032000e+00
  TP2d  SQ5p  1 3.650000e-01    5.357000e+00
  TP2d  TQ5p  1 3.400000e-01    7.362000e+00
  TP1d   Q5p  1 3.950000e-01    3.787000e+00
  TP1d  SQ5p  1 3.650000e-01    5.059000e+00
  TP1d  TQ5p  1 3.400000e-01    7.049000e+00
  TN6d   Q5p  1 3.950000e-01    3.781000e+00
  TN6d  SQ5p  1 3.650000e-01    5.026000e+00
  TN6d  TQ5p  1 3.400000e-01    6.978000e+00
  TN5d   Q5p  1 3.950000e-01    3.534000e+00
  TN5d  SQ5p  1 3.650000e-01    4.719000e+00
  TN5d  TQ5p  1 3.400000e-01    6.655000e+00
  TN4d   Q5p  1 3.950000e-01    3.526000e+00
  TN4d  SQ5p  1 3.650000e-01    4.674000e+00
  TN4d  TQ5p  1 3.400000e-01    6.556000e+00
  TN3d   Q5p  1 3.950000e-01    3.516000e+00
  TN3d  SQ5p  1 3.650000e-01    4.617000e+00
  TN3d  TQ5p  1 3.400000e-01    6.431000e+00
  TN2d   Q5p  1 3.950000e-01    3.502000e+00
  TN2d  SQ5p  1 3.650000e-01    4.542000e+00
  TN2d  TQ5p  1 3.400000e-01    6.266000e+00
  TN1d   Q5p  1 3.950000e-01    2.992000e+00
  TN1d  SQ5p  1 3.650000e-01    3.944000e+00
  TN1d  TQ5p  1 3.400000e-01    5.550000e+00
  TP6a   Q5p  1 3.950000e-01    5.680000e+00
  TP6a  SQ5p  1 3.650000e-01    7.108000e+00
  TP6a  TQ5p  1 3.400000e-01    9.246000e+00
  TP5a   Q5p  1 3.950000e-01    5.265000e+00
  TP5a  SQ5p  1 3.650000e-01    6.678000e+00
  TP5a  TQ5p  1 3.400000e-01    9.070000e+00
  TP4a   Q5p  1 3.950000e-01    5.249000e+00
  TP4a  SQ5p  1 3.650000e-01    6.588000e+00
  TP4a  TQ5p  1 3.400000e-01    8.872000e+00
  TP3a   Q5p  1 3.950000e-01    4.909000e+00
  TP3a  SQ5p  1 3.650000e-01    6.245000e+00
  TP3a  TQ5p  1 3.400000e-01    8.474000e+00
  TP2a   Q5p  1 3.950000e-01    4.902000e+00
  TP2a  SQ5p  1 3.650000e-01    6.207000e+00
  TP2a  TQ5p  1 3.400000e-01    8.392000e+00
  TP1a   Q5p  1 3.950000e-01    4.587000e+00
  TP1a  SQ5p  1 3.650000e-01    5.889000e+00
  TP1a  TQ5p  1 3.400000e-01    8.059000e+00
  TN6a   Q5p  1 3.950000e-01    4.581000e+00
  TN6a  SQ5p  1 3.650000e-01    5.856000e+00
  TN6a  TQ5p  1 3.400000e-01    7.988000e+00
  TN5a   Q5p  1 3.950000e-01    4.254000e+00
  TN5a  SQ5p  1 3.650000e-01    5.529000e+00
  TN5a  TQ5p  1 3.400000e-01    7.625000e+00
  TN4a   Q5p  1 3.950000e-01    4.246000e+00
  TN4a  SQ5p  1 3.650000e-01    5.484000e+00
  TN4a  TQ5p  1 3.400000e-01    7.526000e+00
  TN3a   Q5p  1 3.950000e-01    3.996000e+00
  TN3a  SQ5p  1 3.650000e-01    5.157000e+00
  TN3a  TQ5p  1 3.400000e-01    7.151000e+00
  TN2a   Q5p  1 3.950000e-01    3.982000e+00
  TN2a  SQ5p  1 3.650000e-01    5.082000e+00
  TN2a  TQ5p  1 3.400000e-01    6.986000e+00
  TN1a   Q5p  1 3.950000e-01    3.722000e+00
  TN1a  SQ5p  1 3.650000e-01    4.704000e+00
  TN1a  TQ5p  1 3.400000e-01    6.520000e+00
  TC6v   Q5p  1 3.950000e-01    1.931000e+00
  TC6v  SQ5p  1 3.780000e-01    2.833000e+00
  TC6v  TQ5p  1 3.660000e-01    3.862000e+00
  TC5v   Q5p  1 4.040000e-01    1.061000e+00
  TC5v  SQ5p  1 4.230000e-01    2.100000e+00
  TC5v  TQ5p  1 4.380000e-01    2.946000e+00
  TC4v   Q5p  1 4.650000e-01    8.730000e-01
  TC4v  SQ5p  1 4.840000e-01    1.718000e+00
  TC4v  TQ5p  1 5.050000e-01    2.306000e+00
  TC3v   Q5p  1 5.110000e-01    7.670000e-01
  TC3v  SQ5p  1 5.370000e-01    1.330000e+00
  TC3v  TQ5p  1 5.610000e-01    1.654000e+00
  TC2v   Q5p  1 5.240000e-01    6.980000e-01
  TC2v  SQ5p  1 5.880000e-01    1.077000e+00
  TC2v  TQ5p  1 5.990000e-01    1.252000e+00
  TC1v   Q5p  1 5.240000e-01    6.450000e-01
  TC1v  SQ5p  1 5.880000e-01    8.340000e-01
  TC1v  TQ5p  1 5.990000e-01    7.620000e-01
  TX4v   Q5p  1 3.980000e-01    1.727000e+00
  TX4v  SQ5p  1 3.940000e-01    2.707000e+00
  TX4v  TQ5p  1 3.850000e-01    3.827000e+00
  TX3v   Q5p  1 3.990000e-01    1.438000e+00
  TX3v  SQ5p  1 4.040000e-01    2.424000e+00
  TX3v  TQ5p  1 4.110000e-01    3.407000e+00
  TX2v   Q5p  1 4.010000e-01    1.200000e+00
  TX2v  SQ5p  1 4.090000e-01    2.158000e+00
  TX2v  TQ5p  1 4.240000e-01    2.907000e+00
  TX1v   Q5p  1 4.040000e-01    9.670000e-01
  TX1v  SQ5p  1 4.230000e-01    1.644000e+00
  TX1v  TQ5p  1 4.380000e-01    2.043000e+00
  TC6e   Q5p  1 3.950000e-01    2.571000e+00
  TC6e  SQ5p  1 3.650000e-01    3.342000e+00
  TC6e  TQ5p  1 3.400000e-01    4.920000e+00
  TC5e   Q5p  1 3.980000e-01    1.685000e+00
  TC5e  SQ5p  1 3.940000e-01    2.492000e+00
  TC5e  TQ5p  1 3.850000e-01    3.375000e+00
  TC4e   Q5p  1 3.990000e-01    1.378000e+00
  TC4e  SQ5p  1 4.040000e-01    2.122000e+00
  TC4e  TQ5p  1 4.040000e-01    2.867000e+00
  TC3e   Q5p  1 4.010000e-01    1.121000e+00
  TC3e  SQ5p  1 4.090000e-01    1.765000e+00
  TC3e  TQ5p  1 4.110000e-01    2.199000e+00
  TC2e   Q5p  1 4.650000e-01    7.810000e-01
  TC2e  SQ5p  1 4.840000e-01    1.271000e+00
  TC2e  TQ5p  1 4.380000e-01    1.595000e+00
  TC1e   Q5p  1 4.650000e-01    7.210000e-01
  TC1e  SQ5p  1 4.840000e-01    9.760000e-01
  TC1e  TQ5p  1 4.380000e-01    9.250000e-01
  TX4e   Q5p  1 3.950000e-01    2.389000e+00
  TX4e  SQ5p  1 3.650000e-01    3.280000e+00
  TX4e  TQ5p  1 3.400000e-01    4.875000e+00
  TX3e   Q5p  1 3.950000e-01    2.111000e+00
  TX3e  SQ5p  1 3.660000e-01    3.028000e+00
  TX3e  TQ5p  1 3.400000e-01    4.380000e+00
  TX2e   Q5p  1 3.950000e-01    1.890000e+00
  TX2e  SQ5p  1 3.780000e-01    2.617000e+00
  TX2e  TQ5p  1 3.660000e-01    3.404000e+00
  TX1e   Q5p  1 3.980000e-01    1.589000e+00
  TX1e  SQ5p  1 3.940000e-01    2.001000e+00
  TX1e  TQ5p  1 3.850000e-01    2.347000e+00
  TP6q   Q5p  1 3.950000e-01    5.680000e+00
  TP6q  SQ5p  1 3.650000e-01    7.108000e+00
  TP6q  TQ5p  1 3.400000e-01    9.246000e+00
  TP5q   Q5p  1 3.950000e-01    5.665000e+00
  TP5q  SQ5p  1 3.650000e-01    7.028000e+00
  TP5q  TQ5p  1 3.400000e-01    9.070000e+00
  TP4q   Q5p  1 3.950000e-01    5.649000e+00
  TP4q  SQ5p  1 3.650000e-01    6.938000e+00
  TP4q  TQ5p  1 3.400000e-01    8.872000e+00
  TP3q   Q5p  1 3.950000e-01    5.239000e+00
  TP3q  SQ5p  1 3.650000e-01    6.535000e+00
  TP3q  TQ5p  1 3.400000e-01    8.474000e+00
  TP2q   Q5p  1 3.950000e-01    5.232000e+00
  TP2q  SQ5p  1 3.650000e-01    6.497000e+00
  TP2q  TQ5p  1 3.400000e-01    8.392000e+00
  TP1q   Q5p  1 3.950000e-01    4.897000e+00
  TP1q  SQ5p  1 3.650000e-01    6.179000e+00
  TP1q  TQ5p  1 3.400000e-01    8.059000e+00
  TN6q   Q5p  1 3.950000e-01    4.891000e+00
  TN6q  SQ5p  1 3.650000e-01    6.146000e+00
  TN6q  TQ5p  1 3.400000e-01    7.988000e+00
  TN5q   Q5p  1 3.950000e-01    4.574000e+00
  TN5q  SQ5p  1 3.650000e-01    5.819000e+00
  TN5q  TQ5p  1 3.400000e-01    7.625000e+00
  TN4q   Q5p  1 3.950000e-01    4.566000e+00
  TN4q  SQ5p  1 3.650000e-01    5.774000e+00
  TN4q  TQ5p  1 3.400000e-01    7.526000e+00
  TN3q   Q5p  1 3.950000e-01    4.236000e+00
  TN3q  SQ5p  1 3.650000e-01    5.427000e+00
  TN3q  TQ5p  1 3.400000e-01    7.151000e+00
  TN2q   Q5p  1 3.950000e-01    4.222000e+00
  TN2q  SQ5p  1 3.650000e-01    5.352000e+00
  TN2q  TQ5p  1 3.400000e-01    6.986000e+00
  TN1q   Q5p  1 3.950000e-01    3.962000e+00
  TN1q  SQ5p  1 3.650000e-01    4.974000e+00
  TN1q  TQ5p  1 3.400000e-01    6.520000e+00
  TC6q   Q5p  1 3.950000e-01    2.961000e+00
  TC6q  SQ5p  1 3.650000e-01    3.772000e+00
  TC6q  TQ5p  1 3.400000e-01    5.170000e+00
  TC5q   Q5p  1 3.950000e-01    2.086000e+00
  TC5q  SQ5p  1 3.660000e-01    2.894000e+00
  TC5q  TQ5p  1 3.520000e-01    3.807000e+00
  TC4q   Q5p  1 3.950000e-01    1.870000e+00
  TC4q  SQ5p  1 3.780000e-01    2.510000e+00
  TC4q  TQ5p  1 3.660000e-01    3.178000e+00
  TC3q   Q5p  1 3.980000e-01    1.589000e+00
  TC3q  SQ5p  1 3.940000e-01    2.001000e+00
  TC3q  TQ5p  1 3.850000e-01    2.347000e+00
  TC2q   Q5p  1 4.010000e-01    1.074000e+00
  TC2q  SQ5p  1 4.090000e-01    1.531000e+00
  TC2q  TQ5p  1 4.240000e-01    1.668000e+00
  TC1q   Q5p  1 4.010000e-01    1.003000e+00
  TC1q  SQ5p  1 4.090000e-01    1.182000e+00
  TC1q  TQ5p  1 4.240000e-01    9.770000e-01
  TX4q   Q5p  1 3.950000e-01    2.779000e+00
  TX4q  SQ5p  1 3.650000e-01    3.640000e+00
  TX4q  TQ5p  1 3.400000e-01    5.135000e+00
  TX3q   Q5p  1 3.950000e-01    2.571000e+00
  TX3q  SQ5p  1 3.650000e-01    3.342000e+00
  TX3q  TQ5p  1 3.400000e-01    4.660000e+00
  TX2q   Q5p  1 3.950000e-01    2.330000e+00
  TX2q  SQ5p  1 3.650000e-01    2.958000e+00
  TX2q  TQ5p  1 3.400000e-01    3.888000e+00
  TX1q   Q5p  1 3.950000e-01    1.990000e+00
  TX1q  SQ5p  1 3.660000e-01    2.366000e+00
  TX1q  TQ5p  1 3.520000e-01    2.682000e+00
 TP6dq   Q5p  1 3.950000e-01    5.680000e+00
 TP6dq  SQ5p  1 3.650000e-01    7.108000e+00
 TP6dq  TQ5p  1 3.400000e-01    9.246000e+00
 TP5dq   Q5p  1 3.950000e-01    5.265000e+00
 TP5dq  SQ5p  1 3.650000e-01    6.678000e+00
 TP5dq  TQ5p  1 3.400000e-01    8.790000e+00
 TP4dq   Q5p  1 3.950000e-01    5.249000e+00
 TP4dq  SQ5p  1 3.650000e-01    6.588000e+00
 TP4dq  TQ5p  1 3.400000e-01    8.592000e+00
 TP3dq   Q5p  1 3.950000e-01    4.909000e+00
 TP3dq  SQ5p  1 3.650000e-01    6.245000e+00
 TP3dq  TQ5p  1 3.400000e-01    8.204000e+00
 TP2dq   Q5p  1 3.950000e-01    4.902000e+00
 TP2dq  SQ5p  1 3.650000e-01    6.207000e+00
 TP2dq  TQ5p  1 3.400000e-01    8.122000e+00
 TP1dq   Q5p  1 3.950000e-01    4.587000e+00
 TP1dq  SQ5p  1 3.650000e-01    5.889000e+00
 TP1dq  TQ5p  1 3.400000e-01    7.779000e+00
 TN6dq   Q5p  1 3.950000e-01    4.581000e+00
 TN6dq  SQ5p  1 3.650000e-01    5.856000e+00
 TN6dq  TQ5p  1 3.400000e-01    7.708000e+00
 TN5dq   Q5p  1 3.950000e-01    4.254000e+00
 TN5dq  SQ5p  1 3.650000e-01    5.529000e+00
 TN5dq  TQ5p  1 3.400000e-01    7.375000e+00
 TN4dq   Q5p  1 3.950000e-01    4.246000e+00
 TN4dq  SQ5p  1 3.650000e-01    5.484000e+00
 TN4dq  TQ5p  1 3.400000e-01    7.276000e+00
 TN3dq   Q5p  1 3.950000e-01    4.236000e+00
 TN3dq  SQ5p  1 3.650000e-01    5.427000e+00
 TN3dq  TQ5p  1 3.400000e-01    7.151000e+00
 TN2dq   Q5p  1 3.950000e-01    4.222000e+00
 TN2dq  SQ5p  1 3.650000e-01    5.352000e+00
 TN2dq  TQ5p  1 3.400000e-01    6.986000e+00
 TN1dq   Q5p  1 3.950000e-01    3.722000e+00
 TN1dq  SQ5p  1 3.650000e-01    4.704000e+00
 TN1dq  TQ5p  1 3.400000e-01    6.270000e+00
 TP6aq   Q5p  1 3.950000e-01    5.680000e+00
 TP6aq  SQ5p  1 3.650000e-01    7.108000e+00
 TP6aq  TQ5p  1 3.400000e-01    9.246000e+00
 TP5aq   Q5p  1 3.950000e-01    5.665000e+00
 TP5aq  SQ5p  1 3.650000e-01    7.028000e+00
 TP5aq  TQ5p  1 3.400000e-01    9.070000e+00
 TP4aq   Q5p  1 3.950000e-01    5.649000e+00
 TP4aq  SQ5p  1 3.650000e-01    6.938000e+00
 TP4aq  TQ5p  1 3.400000e-01    8.872000e+00
 TP3aq   Q5p  1 3.950000e-01    5.639000e+00
 TP3aq  SQ5p  1 3.650000e-01    6.885000e+00
 TP3aq  TQ5p  1 3.400000e-01    8.754000e+00
 TP2aq   Q5p  1 3.950000e-01    5.632000e+00
 TP2aq  SQ5p  1 3.650000e-01    6.847000e+00
 TP2aq  TQ5p  1 3.400000e-01    8.672000e+00
 TP1aq   Q5p  1 3.950000e-01    5.627000e+00
 TP1aq  SQ5p  1 3.650000e-01    6.819000e+00
 TP1aq  TQ5p  1 3.400000e-01    8.609000e+00
 TN6aq   Q5p  1 3.950000e-01    5.621000e+00
 TN6aq  SQ5p  1 3.650000e-01    6.786000e+00
 TN6aq  TQ5p  1 3.400000e-01    8.538000e+00
 TN5aq   Q5p  1 3.950000e-01    5.214000e+00
 TN5aq  SQ5p  1 3.650000e-01    6.399000e+00
 TN5aq  TQ5p  1 3.400000e-01    8.455000e+00
 TN4aq   Q5p  1 3.950000e-01    5.206000e+00
 TN4aq  SQ5p  1 3.650000e-01    6.354000e+00
 TN4aq  TQ5p  1 3.400000e-01    8.356000e+00
 TN3aq   Q5p  1 3.950000e-01    4.866000e+00
 TN3aq  SQ5p  1 3.650000e-01    6.007000e+00
 TN3aq  TQ5p  1 3.400000e-01    7.951000e+00
 TN2aq   Q5p  1 3.950000e-01    4.852000e+00
 TN2aq  SQ5p  1 3.650000e-01    5.932000e+00
 TN2aq  TQ5p  1 3.400000e-01    7.786000e+00
 TN1aq   Q5p  1 3.950000e-01    4.522000e+00
 TN1aq  SQ5p  1 3.650000e-01    5.534000e+00
 TN1aq  TQ5p  1 3.400000e-01    7.280000e+00
 TC6vq   Q5p  1 3.950000e-01    2.571000e+00
 TC6vq  SQ5p  1 3.650000e-01    3.342000e+00
 TC6vq  TQ5p  1 3.400000e-01    4.660000e+00
 TC5vq   Q5p  1 3.980000e-01    1.685000e+00
 TC5vq  SQ5p  1 3.940000e-01    2.492000e+00
 TC5vq  TQ5p  1 3.850000e-01    3.375000e+00
 TC4vq   Q5p  1 3.990000e-01    1.378000e+00
 TC4vq  SQ5p  1 4.040000e-01    2.122000e+00
 TC4vq  TQ5p  1 4.110000e-01    2.798000e+00
 TC3vq   Q5p  1 4.010000e-01    1.121000e+00
 TC3vq  SQ5p  1 4.090000e-01    1.765000e+00
 TC3vq  TQ5p  1 4.240000e-01    2.131000e+00
 TC2vq   Q5p  1 4.040000e-01    9.200000e-01
 TC2vq  SQ5p  1 4.230000e-01    1.417000e+00
 TC2vq  TQ5p  1 4.380000e-01    1.595000e+00
 TC1vq   Q5p  1 4.040000e-01    8.500000e-01
 TC1vq  SQ5p  1 4.230000e-01    1.079000e+00
 TC1vq  TQ5p  1 4.380000e-01    9.250000e-01
 TX4vq   Q5p  1 3.950000e-01    2.389000e+00
 TX4vq  SQ5p  1 3.650000e-01    3.280000e+00
 TX4vq  TQ5p  1 3.400000e-01    4.595000e+00
 TX3vq   Q5p  1 3.950000e-01    2.111000e+00
 TX3vq  SQ5p  1 3.660000e-01    3.028000e+00
 TX3vq  TQ5p  1 3.520000e-01    4.093000e+00
 TX2vq   Q5p  1 3.950000e-01    1.890000e+00
 TX2vq  SQ5p  1 3.780000e-01    2.617000e+00
 TX2vq  TQ5p  1 3.660000e-01    3.404000e+00
 TX1vq   Q5p  1 3.980000e-01    1.589000e+00
 TX1vq  SQ5p  1 3.940000e-01    2.001000e+00
 TX1vq  TQ5p  1 3.850000e-01    2.347000e+00
 TC6eq   Q5p  1 3.950000e-01    3.201000e+00
 TC6eq  SQ5p  1 3.650000e-01    4.002000e+00
 TC6eq  TQ5p  1 3.400000e-01    5.650000e+00
 TC5eq   Q5p  1 3.950000e-01    2.346000e+00
 TC5eq  SQ5p  1 3.650000e-01    3.047000e+00
 TC5eq  TQ5p  1 3.400000e-01    4.364000e+00
 TC4eq   Q5p  1 3.950000e-01    2.050000e+00
 TC4eq  SQ5p  1 3.660000e-01    2.694000e+00
 TC4eq  TQ5p  1 3.400000e-01    3.644000e+00
 TC3eq   Q5p  1 3.950000e-01    1.810000e+00
 TC3eq  SQ5p  1 3.780000e-01    2.192000e+00
 TC3eq  TQ5p  1 3.660000e-01    2.505000e+00
 TC2eq   Q5p  1 4.650000e-01    7.810000e-01
 TC2eq  SQ5p  1 4.840000e-01    1.271000e+00
 TC2eq  TQ5p  1 4.380000e-01    1.595000e+00
 TC1eq   Q5p  1 4.650000e-01    7.210000e-01
 TC1eq  SQ5p  1 4.840000e-01    9.760000e-01
 TC1eq  TQ5p  1 4.380000e-01    9.250000e-01
 TX4eq   Q5p  1 3.950000e-01    2.979000e+00
 TX4eq  SQ5p  1 3.650000e-01    3.870000e+00
 TX4eq  TQ5p  1 3.400000e-01    5.645000e+00
 TX3eq   Q5p  1 3.950000e-01    2.761000e+00
 TX3eq  SQ5p  1 3.650000e-01    3.542000e+00
 TX3eq  TQ5p  1 3.400000e-01    5.170000e+00
 TX2eq   Q5p  1 3.950000e-01    2.530000e+00
 TX2eq  SQ5p  1 3.650000e-01    3.118000e+00
 TX2eq  TQ5p  1 3.400000e-01    4.428000e+00
 TX1eq   Q5p  1 3.950000e-01    2.250000e+00
 TX1eq  SQ5p  1 3.650000e-01    2.518000e+00
 TX1eq  TQ5p  1 3.400000e-01    3.200000e+00
  TP6h   Q5p  1 3.950000e-01    4.950000e+00
  TP6h  SQ5p  1 3.650000e-01    6.468000e+00
  TP6h  TQ5p  1 3.400000e-01    8.696000e+00
  TP5h   Q5p  1 3.950000e-01    4.625000e+00
  TP5h  SQ5p  1 3.650000e-01    6.098000e+00
  TP5h  TQ5p  1 3.400000e-01    8.240000e+00
  TP4h   Q5p  1 3.950000e-01    4.609000e+00
  TP4h  SQ5p  1 3.650000e-01    6.008000e+00
  TP4h  TQ5p  1 3.400000e-01    8.042000e+00
  TP3h   Q5p  1 3.950000e-01    4.279000e+00
  TP3h  SQ5p  1 3.650000e-01    5.665000e+00
  TP3h  TQ5p  1 3.400000e-01    7.674000e+00
  TP2h   Q5p  1 3.950000e-01    4.272000e+00
  TP2h  SQ5p  1 3.650000e-01    5.627000e+00
  TP2h  TQ5p  1 3.400000e-01    7.592000e+00
  TP1h   Q5p  1 3.950000e-01    4.027000e+00
  TP1h  SQ5p  1 3.650000e-01    5.329000e+00
  TP1h  TQ5p  1 3.400000e-01    7.299000e+00
  TN6h   Q5p  1 3.950000e-01    4.021000e+00
  TN6h  SQ5p  1 3.650000e-01    5.296000e+00
  TN6h  TQ5p  1 3.400000e-01    7.228000e+00
  TN5h   Q5p  1 3.950000e-01    3.774000e+00
  TN5h  SQ5p  1 3.650000e-01    4.989000e+00
  TN5h  TQ5p  1 3.400000e-01    6.895000e+00
  TN4h   Q5p  1 3.950000e-01    3.766000e+00
  TN4h  SQ5p  1 3.650000e-01    4.944000e+00
  TN4h  TQ5p  1 3.400000e-01    6.796000e+00
  TN3h   Q5p  1 3.950000e-01    3.516000e+00
  TN3h  SQ5p  1 3.650000e-01    4.617000e+00
  TN3h  TQ5p  1 3.400000e-01    6.431000e+00
  TN2h   Q5p  1 3.950000e-01    3.502000e+00
  TN2h  SQ5p  1 3.650000e-01    4.542000e+00
  TN2h  TQ5p  1 3.400000e-01    6.266000e+00
  TN1h   Q5p  1 3.950000e-01    3.232000e+00
  TN1h  SQ5p  1 3.650000e-01    4.174000e+00
  TN1h  TQ5p  1 3.400000e-01    5.810000e+00
  TC6h   Q5p  1 3.950000e-01    2.371000e+00
  TC6h  SQ5p  1 3.650000e-01    3.182000e+00
  TC6h  TQ5p  1 3.400000e-01    4.380000e+00
  TC5h   Q5p  1 3.990000e-01    1.414000e+00
  TC5h  SQ5p  1 4.040000e-01    2.302000e+00
  TC5h  TQ5p  1 4.110000e-01    3.162000e+00
  TC4h   Q5p  1 4.010000e-01    1.180000e+00
  TC4h  SQ5p  1 4.090000e-01    2.059000e+00
  TC4h  TQ5p  1 4.240000e-01    2.712000e+00
  TC3h   Q5p  1 4.040000e-01    9.670000e-01
  TC3h  SQ5p  1 4.230000e-01    1.644000e+00
  TC3h  TQ5p  1 4.380000e-01    2.043000e+00
  TC2h   Q5p  1 5.110000e-01    7.300000e-01
  TC2h  SQ5p  1 5.370000e-01    1.152000e+00
  TC2h  TQ5p  1 5.610000e-01    1.304000e+00
  TC1h   Q5p  1 5.110000e-01    6.750000e-01
  TC1h  SQ5p  1 5.370000e-01    8.850000e-01
  TC1h  TQ5p  1 5.610000e-01    7.820000e-01
  TX4h   Q5p  1 3.950000e-01    2.129000e+00
  TX4h  SQ5p  1 3.660000e-01    3.126000e+00
  TX4h  TQ5p  1 3.520000e-01    4.301000e+00
  TX3h   Q5p  1 3.950000e-01    1.931000e+00
  TX3h  SQ5p  1 3.780000e-01    2.833000e+00
  TX3h  TQ5p  1 3.660000e-01    3.862000e+00
  TX2h   Q5p  1 3.980000e-01    1.668000e+00
  TX2h  SQ5p  1 3.940000e-01    2.409000e+00
  TX2h  TQ5p  1 3.850000e-01    3.202000e+00
  TX1h   Q5p  1 3.990000e-01    1.319000e+00
  TX1h  SQ5p  1 4.040000e-01    1.824000e+00
  TX1h  TQ5p  1 4.110000e-01    2.199000e+00
 TP6dh   Q5p  1 3.950000e-01    4.640000e+00
 TP6dh  SQ5p  1 3.650000e-01    6.178000e+00
 TP6dh  TQ5p  1 3.400000e-01    8.416000e+00
 TP5dh   Q5p  1 3.950000e-01    4.305000e+00
 TP5dh  SQ5p  1 3.650000e-01    5.808000e+00
 TP5dh  TQ5p  1 3.400000e-01    7.990000e+00
 TP4dh   Q5p  1 3.950000e-01    4.289000e+00
 TP4dh  SQ5p  1 3.650000e-01    5.718000e+00
 TP4dh  TQ5p  1 3.400000e-01    7.792000e+00
 TP3dh   Q5p  1 3.950000e-01    4.039000e+00
 TP3dh  SQ5p  1 3.650000e-01    5.395000e+00
 TP3dh  TQ5p  1 3.400000e-01    7.444000e+00
 TP2dh   Q5p  1 3.950000e-01    4.032000e+00
 TP2dh  SQ5p  1 3.650000e-01    5.357000e+00
 TP2dh  TQ5p  1 3.400000e-01    7.362000e+00
 TP1dh   Q5p  1 3.950000e-01    3.787000e+00
 TP1dh  SQ5p  1 3.650000e-01    5.059000e+00
 TP1dh  TQ5p  1 3.400000e-01    7.049000e+00
 TN6dh   Q5p  1 3.950000e-01    3.781000e+00
 TN6dh  SQ5p  1 3.650000e-01    5.026000e+00
 TN6dh  TQ5p  1 3.400000e-01    6.978000e+00
 TN5dh   Q5p  1 3.950000e-01    3.534000e+00
 TN5dh  SQ5p  1 3.650000e-01    4.719000e+00
 TN5dh  TQ5p  1 3.400000e-01    6.655000e+00
 TN4dh   Q5p  1 3.950000e-01    3.526000e+00
 TN4dh  SQ5p  1 3.650000e-01    4.674000e+00
 TN4dh  TQ5p  1 3.400000e-01    6.556000e+00
 TN3dh   Q5p  1 3.950000e-01    3.516000e+00
 TN3dh  SQ5p  1 3.650000e-01    4.617000e+00
 TN3dh  TQ5p  1 3.400000e-01    6.431000e+00
 TN2dh   Q5p  1 3.950000e-01    3.502000e+00
 TN2dh  SQ5p  1 3.650000e-01    4.542000e+00
 TN2dh  TQ5p  1 3.400000e-01    6.266000e+00
 TN1dh   Q5p  1 3.950000e-01    2.992000e+00
 TN1dh  SQ5p  1 3.650000e-01    3.944000e+00
 TN1dh  TQ5p  1 3.400000e-01    5.550000e+00
 TP6ah   Q5p  1 3.950000e-01    5.680000e+00
 TP6ah  SQ5p  1 3.650000e-01    7.108000e+00
 TP6ah  TQ5p  1 3.400000e-01    9.246000e+00
 TP5ah   Q5p  1 3.950000e-01    5.265000e+00
 TP5ah  SQ5p  1 3.650000e-01    6.678000e+00
 TP5ah  TQ5p  1 3.400000e-01    9.070000e+00
 TP4ah   Q5p  1 3.950000e-01    5.249000e+00
 TP4ah  SQ5p  1 3.650000e-01    6.588000e+00
 TP4ah  TQ5p  1 3.400000e-01    8.872000e+00
 TP3ah   Q5p  1 3.950000e-01    4.909000e+00
 TP3ah  SQ5p  1 3.650000e-01    6.245000e+00
 TP3ah  TQ5p  1 3.400000e-01    8.474000e+00
 TP2ah   Q5p  1 3.950000e-01    4.902000e+00
 TP2ah  SQ5p  1 3.650000e-01    6.207000e+00
 TP2ah  TQ5p  1 3.400000e-01    8.392000e+00
 TP1ah   Q5p  1 3.950000e-01    4.587000e+00
 TP1ah  SQ5p  1 3.650000e-01    5.889000e+00
 TP1ah  TQ5p  1 3.400000e-01    8.059000e+00
 TN6ah   Q5p  1 3.950000e-01    4.581000e+00
 TN6ah  SQ5p  1 3.650000e-01    5.856000e+00
 TN6ah  TQ5p  1 3.400000e-01    7.988000e+00
 TN5ah   Q5p  1 3.950000e-01    4.254000e+00
 TN5ah  SQ5p  1 3.650000e-01    5.529000e+00
 TN5ah  TQ5p  1 3.400000e-01    7.625000e+00
 TN4ah   Q5p  1 3.950000e-01    4.246000e+00
 TN4ah  SQ5p  1 3.650000e-01    5.484000e+00
 TN4ah  TQ5p  1 3.400000e-01    7.526000e+00
 TN3ah   Q5p  1 3.950000e-01    3.996000e+00
 TN3ah  SQ5p  1 3.650000e-01    5.157000e+00
 TN3ah  TQ5p  1 3.400000e-01    7.151000e+00
 TN2ah   Q5p  1 3.950000e-01    3.982000e+00
 TN2ah  SQ5p  1 3.650000e-01    5.082000e+00
 TN2ah  TQ5p  1 3.400000e-01    6.986000e+00
 TN1ah   Q5p  1 3.950000e-01    3.722000e+00
 TN1ah  SQ5p  1 3.650000e-01    4.704000e+00
 TN1ah  TQ5p  1 3.400000e-01    6.520000e+00
 TC6vh   Q5p  1 3.950000e-01    1.931000e+00
 TC6vh  SQ5p  1 3.780000e-01    2.833000e+00
 TC6vh  TQ5p  1 3.660000e-01    3.862000e+00
 TC5vh   Q5p  1 4.040000e-01    1.061000e+00
 TC5vh  SQ5p  1 4.230000e-01    2.100000e+00
 TC5vh  TQ5p  1 4.380000e-01    2.946000e+00
 TC4vh   Q5p  1 4.650000e-01    8.730000e-01
 TC4vh  SQ5p  1 4.840000e-01    1.718000e+00
 TC4vh  TQ5p  1 5.050000e-01    2.306000e+00
 TC3vh   Q5p  1 5.110000e-01    7.670000e-01
 TC3vh  SQ5p  1 5.370000e-01    1.330000e+00
 TC3vh  TQ5p  1 5.610000e-01    1.654000e+00
 TC2vh   Q5p  1 5.240000e-01    6.980000e-01
 TC2vh  SQ5p  1 5.880000e-01    1.077000e+00
 TC2vh  TQ5p  1 5.990000e-01    1.252000e+00
 TC1vh   Q5p  1 5.240000e-01    6.450000e-01
 TC1vh  SQ5p  1 5.880000e-01    8.340000e-01
 TC1vh  TQ5p  1 5.990000e-01    7.620000e-01
 TX4vh   Q5p  1 3.980000e-01    1.727000e+00
 TX4vh  SQ5p  1 3.940000e-01    2.707000e+00
 TX4vh  TQ5p  1 3.850000e-01    3.827000e+00
 TX3vh   Q5p  1 3.990000e-01    1.438000e+00
 TX3vh  SQ5p  1 4.040000e-01    2.424000e+00
 TX3vh  TQ5p  1 4.110000e-01    3.407000e+00
 TX2vh   Q5p  1 4.010000e-01    1.200000e+00
 TX2vh  SQ5p  1 4.090000e-01    2.158000e+00
 TX2vh  TQ5p  1 4.240000e-01    2.907000e+00
 TX1vh   Q5p  1 4.040000e-01    9.670000e-01
 TX1vh  SQ5p  1 4.230000e-01    1.644000e+00
 TX1vh  TQ5p  1 4.380000e-01    2.043000e+00
 TC6eh   Q5p  1 3.950000e-01    2.571000e+00
 TC6eh  SQ5p  1 3.650000e-01    3.342000e+00
 TC6eh  TQ5p  1 3.400000e-01    4.920000e+00
 TC5eh   Q5p  1 3.980000e-01    1.685000e+00
 TC5eh  SQ5p  1 3.940000e-01    2.492000e+00
 TC5eh  TQ5p  1 3.850000e-01    3.375000e+00
 TC4eh   Q5p  1 3.990000e-01    1.378000e+00
 TC4eh  SQ5p  1 4.040000e-01    2.122000e+00
 TC4eh  TQ5p  1 4.040000e-01    2.867000e+00
 TC3eh   Q5p  1 4.010000e-01    1.121000e+00
 TC3eh  SQ5p  1 4.090000e-01    1.765000e+00
 TC3eh  TQ5p  1 4.110000e-01    2.199000e+00
 TC2eh   Q5p  1 4.650000e-01    7.810000e-01
 TC2eh  SQ5p  1 4.840000e-01    1.271000e+00
 TC2eh  TQ5p  1 4.380000e-01    1.595000e+00
 TC1eh   Q5p  1 4.650000e-01    7.210000e-01
 TC1eh  SQ5p  1 4.840000e-01    9.760000e-01
 TC1eh  TQ5p  1 4.380000e-01    9.250000e-01
 TX4eh   Q5p  1 3.950000e-01    2.389000e+00
 TX4eh  SQ5p  1 3.650000e-01    3.280000e+00
 TX4eh  TQ5p  1 3.400000e-01    4.875000e+00
 TX3eh   Q5p  1 3.950000e-01    2.111000e+00
 TX3eh  SQ5p  1 3.660000e-01    3.028000e+00
 TX3eh  TQ5p  1 3.400000e-01    4.380000e+00
 TX2eh   Q5p  1 3.950000e-01    1.890000e+00
 TX2eh  SQ5p  1 3.780000e-01    2.617000e+00
 TX2eh  TQ5p  1 3.660000e-01    3.404000e+00
 TX1eh   Q5p  1 3.980000e-01    1.589000e+00
 TX1eh  SQ5p  1 3.940000e-01    2.001000e+00
 TX1eh  TQ5p  1 3.850000e-01    2.347000e+00
  TP6r   Q5p  1 3.950000e-01    4.950000e+00
  TP6r  SQ5p  1 3.650000e-01    6.468000e+00
  TP6r  TQ5p  1 3.400000e-01    8.696000e+00
  TP5r   Q5p  1 3.950000e-01    4.625000e+00
  TP5r  SQ5p  1 3.650000e-01    6.098000e+00
  TP5r  TQ5p  1 3.400000e-01    8.240000e+00
  TP4r   Q5p  1 3.950000e-01    4.609000e+00
  TP4r  SQ5p  1 3.650000e-01    6.008000e+00
  TP4r  TQ5p  1 3.400000e-01    8.042000e+00
  TP3r   Q5p  1 3.950000e-01    4.279000e+00
  TP3r  SQ5p  1 3.650000e-01    5.665000e+00
  TP3r  TQ5p  1 3.400000e-01    7.674000e+00
  TP2r   Q5p  1 3.950000e-01    4.272000e+00
  TP2r  SQ5p  1 3.650000e-01    5.627000e+00
  TP2r  TQ5p  1 3.400000e-01    7.592000e+00
  TP1r   Q5p  1 3.950000e-01    4.027000e+00
  TP1r  SQ5p  1 3.650000e-01    5.329000e+00
  TP1r  TQ5p  1 3.400000e-01    7.299000e+00
  TN6r   Q5p  1 3.950000e-01    4.021000e+00
  TN6r  SQ5p  1 3.650000e-01    5.296000e+00
  TN6r  TQ5p  1 3.400000e-01    7.228000e+00
  TN5r   Q5p  1 3.950000e-01    3.774000e+00
  TN5r  SQ5p  1 3.650000e-01    4.989000e+00
  TN5r  TQ5p  1 3.400000e-01    6.895000e+00
  TN4r   Q5p  1 3.950000e-01    3.766000e+00
  TN4r  SQ5p  1 3.650000e-01    4.944000e+00
  TN4r  TQ5p  1 3.400000e-01    6.796000e+00
  TN3r   Q5p  1 3.950000e-01    3.516000e+00
  TN3r  SQ5p  1 3.650000e-01    4.617000e+00
  TN3r  TQ5p  1 3.400000e-01    6.431000e+00
  TN2r   Q5p  1 3.950000e-01    3.502000e+00
  TN2r  SQ5p  1 3.650000e-01    4.542000e+00
  TN2r  TQ5p  1 3.400000e-01    6.266000e+00
  TN1r   Q5p  1 3.950000e-01    3.232000e+00
  TN1r  SQ5p  1 3.650000e-01    4.174000e+00
  TN1r  TQ5p  1 3.400000e-01    5.810000e+00
  TC6r   Q5p  1 3.950000e-01    2.371000e+00
  TC6r  SQ5p  1 3.650000e-01    3.182000e+00
  TC6r  TQ5p  1 3.400000e-01    4.380000e+00
  TC5r   Q5p  1 3.990000e-01    1.414000e+00
  TC5r  SQ5p  1 4.040000e-01    2.302000e+00
  TC5r  TQ5p  1 4.110000e-01    3.162000e+00
  TC4r   Q5p  1 4.010000e-01    1.180000e+00
  TC4r  SQ5p  1 4.090000e-01    2.059000e+00
  TC4r  TQ5p  1 4.240000e-01    2.712000e+00
  TC3r   Q5p  1 4.040000e-01    9.670000e-01
  TC3r  SQ5p  1 4.230000e-01    1.644000e+00
  TC3r  TQ5p  1 4.380000e-01    2.043000e+00
  TC2r   Q5p  1 5.110000e-01    7.300000e-01
  TC2r  SQ5p  1 5.370000e-01    1.152000e+00
  TC2r  TQ5p  1 5.610000e-01    1.304000e+00
  TC1r   Q5p  1 5.110000e-01    6.750000e-01
  TC1r  SQ5p  1 5.370000e-01    8.850000e-01
  TC1r  TQ5p  1 5.610000e-01    7.820000e-01
  TX4r   Q5p  1 3.950000e-01    2.129000e+00
  TX4r  SQ5p  1 3.660000e-01    3.126000e+00
  TX4r  TQ5p  1 3.520000e-01    4.301000e+00
  TX3r   Q5p  1 3.950000e-01    1.931000e+00
  TX3r  SQ5p  1 3.780000e-01    2.833000e+00
  TX3r  TQ5p  1 3.660000e-01    3.862000e+00
  TX2r   Q5p  1 3.980000e-01    1.668000e+00
  TX2r  SQ5p  1 3.940000e-01    2.409000e+00
  TX2r  TQ5p  1 3.850000e-01    3.202000e+00
  TX1r   Q5p  1 3.990000e-01    1.319000e+00
  TX1r  SQ5p  1 4.040000e-01    1.824000e+00
  TX1r  TQ5p  1 4.110000e-01    2.199000e+00
 TP6dr   Q5p  1 3.950000e-01    4.640000e+00
 TP6dr  SQ5p  1 3.650000e-01    6.178000e+00
 TP6dr  TQ5p  1 3.400000e-01    8.416000e+00
 TP5dr   Q5p  1 3.950000e-01    4.305000e+00
 TP5dr  SQ5p  1 3.650000e-01    5.808000e+00
 TP5dr  TQ5p  1 3.400000e-01    7.990000e+00
 TP4dr   Q5p  1 3.950000e-01    4.289000e+00
 TP4dr  SQ5p  1 3.650000e-01    5.718000e+00
 TP4dr  TQ5p  1 3.400000e-01    7.792000e+00
 TP3dr   Q5p  1 3.950000e-01    4.039000e+00
 TP3dr  SQ5p  1 3.650000e-01    5.395000e+00
 TP3dr  TQ5p  1 3.400000e-01    7.444000e+00
 TP2dr   Q5p  1 3.950000e-01    4.032000e+00
 TP2dr  SQ5p  1 3.650000e-01    5.357000e+00
 TP2dr  TQ5p  1 3.400000e-01    7.362000e+00
 TP1dr   Q5p  1 3.950000e-01    3.787000e+00
 TP1dr  SQ5p  1 3.650000e-01    5.059000e+00
 TP1dr  TQ5p  1 3.400000e-01    7.049000e+00
 TN6dr   Q5p  1 3.950000e-01    3.781000e+00
 TN6dr  SQ5p  1 3.650000e-01    5.026000e+00
 TN6dr  TQ5p  1 3.400000e-01    6.978000e+00
 TN5dr   Q5p  1 3.950000e-01    3.534000e+00
 TN5dr  SQ5p  1 3.650000e-01    4.719000e+00
 TN5dr  TQ5p  1 3.400000e-01    6.655000e+00
 TN4dr   Q5p  1 3.950000e-01    3.526000e+00
 TN4dr  SQ5p  1 3.650000e-01    4.674000e+00
 TN4dr  TQ5p  1 3.400000e-01    6.556000e+00
 TN3dr   Q5p  1 3.950000e-01    3.516000e+00
 TN3dr  SQ5p  1 3.650000e-01    4.617000e+00
 TN3dr  TQ5p  1 3.400000e-01    6.431000e+00
 TN2dr   Q5p  1 3.950000e-01    3.502000e+00
 TN2dr  SQ5p  1 3.650000e-01    4.542000e+00
 TN2dr  TQ5p  1 3.400000e-01    6.266000e+00
 TN1dr   Q5p  1 3.950000e-01    2.992000e+00
 TN1dr  SQ5p  1 3.650000e-01    3.944000e+00
 TN1dr  TQ5p  1 3.400000e-01    5.550000e+00
 TP6ar   Q5p  1 3.950000e-01    5.680000e+00
 TP6ar  SQ5p  1 3.650000e-01    7.108000e+00
 TP6ar  TQ5p  1 3.400000e-01    9.246000e+00
 TP5ar   Q5p  1 3.950000e-01    5.265000e+00
 TP5ar  SQ5p  1 3.650000e-01    6.678000e+00
 TP5ar  TQ5p  1 3.400000e-01    9.070000e+00
 TP4ar   Q5p  1 3.950000e-01    5.249000e+00
 TP4ar  SQ5p  1 3.650000e-01    6.588000e+00
 TP4ar  TQ5p  1 3.400000e-01    8.872000e+00
 TP3ar   Q5p  1 3.950000e-01    4.909000e+00
 TP3ar  SQ5p  1 3.650000e-01    6.245000e+00
 TP3ar  TQ5p  1 3.400000e-01    8.474000e+00
 TP2ar   Q5p  1 3.950000e-01    4.902000e+00
 TP2ar  SQ5p  1 3.650000e-01    6.207000e+00
 TP2ar  TQ5p  1 3.400000e-01    8.392000e+00
 TP1ar   Q5p  1 3.950000e-01    4.587000e+00
 TP1ar  SQ5p  1 3.650000e-01    5.889000e+00
 TP1ar  TQ5p  1 3.400000e-01    8.059000e+00
 TN6ar   Q5p  1 3.950000e-01    4.581000e+00
 TN6ar  SQ5p  1 3.650000e-01    5.856000e+00
 TN6ar  TQ5p  1 3.400000e-01    7.988000e+00
 TN5ar   Q5p  1 3.950000e-01    4.254000e+00
 TN5ar  SQ5p  1 3.650000e-01    5.529000e+00
 TN5ar  TQ5p  1 3.400000e-01    7.625000e+00
 TN4ar   Q5p  1 3.950000e-01    4.246000e+00
 TN4ar  SQ5p  1 3.650000e-01    5.484000e+00
 TN4ar  TQ5p  1 3.400000e-01    7.526000e+00
 TN3ar   Q5p  1 3.950000e-01    3.996000e+00
 TN3ar  SQ5p  1 3.650000e-01    5.157000e+00
 TN3ar  TQ5p  1 3.400000e-01    7.151000e+00
 TN2ar   Q5p  1 3.950000e-01    3.982000e+00
 TN2ar  SQ5p  1 3.650000e-01    5.082000e+00
 TN2ar  TQ5p  1 3.400000e-01    6.986000e+00
 TN1ar   Q5p  1 3.950000e-01    3.722000e+00
 TN1ar  SQ5p  1 3.650000e-01    4.704000e+00
 TN1ar  TQ5p  1 3.400000e-01    6.520000e+00
 TC6vr   Q5p  1 3.950000e-01    1.931000e+00
 TC6vr  SQ5p  1 3.780000e-01    2.833000e+00
 TC6vr  TQ5p  1 3.660000e-01    3.862000e+00
 TC5vr   Q5p  1 4.040000e-01    1.061000e+00
 TC5vr  SQ5p  1 4.230000e-01    2.100000e+00
 TC5vr  TQ5p  1 4.380000e-01    2.946000e+00
 TC4vr   Q5p  1 4.650000e-01    8.730000e-01
 TC4vr  SQ5p  1 4.840000e-01    1.718000e+00
 TC4vr  TQ5p  1 5.050000e-01    2.306000e+00
 TC3vr   Q5p  1 5.110000e-01    7.670000e-01
 TC3vr  SQ5p  1 5.370000e-01    1.330000e+00
 TC3vr  TQ5p  1 5.610000e-01    1.654000e+00
 TC2vr   Q5p  1 5.240000e-01    6.980000e-01
 TC2vr  SQ5p  1 5.880000e-01    1.077000e+00
 TC2vr  TQ5p  1 5.990000e-01    1.252000e+00
 TC1vr   Q5p  1 5.240000e-01    6.450000e-01
 TC1vr  SQ5p  1 5.880000e-01    8.340000e-01
 TC1vr  TQ5p  1 5.990000e-01    7.620000e-01
 TX4vr   Q5p  1 3.980000e-01    1.727000e+00
 TX4vr  SQ5p  1 3.940000e-01    2.707000e+00
 TX4vr  TQ5p  1 3.850000e-01    3.827000e+00
 TX3vr   Q5p  1 3.990000e-01    1.438000e+00
 TX3vr  SQ5p  1 4.040000e-01    2.424000e+00
 TX3vr  TQ5p  1 4.110000e-01    3.407000e+00
 TX2vr   Q5p  1 4.010000e-01    1.200000e+00
 TX2vr  SQ5p  1 4.090000e-01    2.158000e+00
 TX2vr  TQ5p  1 4.240000e-01    2.907000e+00
 TX1vr   Q5p  1 4.040000e-01    9.670000e-01
 TX1vr  SQ5p  1 4.230000e-01    1.644000e+00
 TX1vr  TQ5p  1 4.380000e-01    2.043000e+00
 TC6er   Q5p  1 3.950000e-01    2.571000e+00
 TC6er  SQ5p  1 3.650000e-01    3.342000e+00
 TC6er  TQ5p  1 3.400000e-01    4.920000e+00
 TC5er   Q5p  1 3.980000e-01    1.685000e+00
 TC5er  SQ5p  1 3.940000e-01    2.492000e+00
 TC5er  TQ5p  1 3.850000e-01    3.375000e+00
 TC4er   Q5p  1 3.990000e-01    1.378000e+00
 TC4er  SQ5p  1 4.040000e-01    2.122000e+00
 TC4er  TQ5p  1 4.040000e-01    2.867000e+00
 TC3er   Q5p  1 4.010000e-01    1.121000e+00
 TC3er  SQ5p  1 4.090000e-01    1.765000e+00
 TC3er  TQ5p  1 4.110000e-01    2.199000e+00
 TC2er   Q5p  1 4.650000e-01    7.810000e-01
 TC2er  SQ5p  1 4.840000e-01    1.271000e+00
 TC2er  TQ5p  1 4.380000e-01    1.595000e+00
 TC1er   Q5p  1 4.650000e-01    7.210000e-01
 TC1er  SQ5p  1 4.840000e-01    9.760000e-01
 TC1er  TQ5p  1 4.380000e-01    9.250000e-01
 TX4er   Q5p  1 3.950000e-01    2.389000e+00
 TX4er  SQ5p  1 3.650000e-01    3.280000e+00
 TX4er  TQ5p  1 3.400000e-01    4.875000e+00
 TX3er   Q5p  1 3.950000e-01    2.111000e+00
 TX3er  SQ5p  1 3.660000e-01    3.028000e+00
 TX3er  TQ5p  1 3.400000e-01    4.380000e+00
 TX2er   Q5p  1 3.950000e-01    1.890000e+00
 TX2er  SQ5p  1 3.780000e-01    2.617000e+00
 TX2er  TQ5p  1 3.660000e-01    3.404000e+00
 TX1er   Q5p  1 3.980000e-01    1.589000e+00
 TX1er  SQ5p  1 3.940000e-01    2.001000e+00
 TX1er  TQ5p  1 3.850000e-01    2.347000e+00
    P6   Q5n  1 4.700000e-01    6.236000e+00
    P6  SQ5n  1 4.300000e-01    7.937000e+00
    P6  TQ5n  1 3.950000e-01    1.117700e+01
    P5   Q5n  1 4.700000e-01    5.966000e+00
    P5  SQ5n  1 4.300000e-01    7.575000e+00
    P5  TQ5n  1 3.950000e-01    1.067900e+01
    P4   Q5n  1 4.700000e-01    5.943000e+00
    P4  SQ5n  1 4.300000e-01    7.489000e+00
    P4  TQ5n  1 3.950000e-01    1.048200e+01
    P3   Q5n  1 4.700000e-01    5.678000e+00
    P3  SQ5n  1 4.300000e-01    7.197000e+00
    P3  TQ5n  1 3.950000e-01    1.004900e+01
    P2   Q5n  1 4.700000e-01    5.668000e+00
    P2  SQ5n  1 4.300000e-01    7.159000e+00
    P2  TQ5n  1 3.950000e-01    9.962000e+00
    P1   Q5n  1 4.700000e-01    5.400000e+00
    P1  SQ5n  1 4.300000e-01    6.850000e+00
    P1  TQ5n  1 3.950000e-01    9.575000e+00
    N6   Q5n  1 4.700000e-01    5.391000e+00
    N6  SQ5n  1 4.300000e-01    6.816000e+00
    N6  TQ5n  1 3.950000e-01    9.497000e+00
    N5   Q5n  1 4.700000e-01    5.130000e+00
    N5  SQ5n  1 4.300000e-01    6.547000e+00
    N5  TQ5n  1 3.950000e-01    9.166000e+00
    N4   Q5n  1 4.700000e-01    5.117000e+00
    N4  SQ5n  1 4.300000e-01    6.499000e+00
    N4  TQ5n  1 3.950000e-01    9.055000e+00
    N3   Q5n  1 4.700000e-01    4.870000e+00
    N3  SQ5n  1 4.300000e-01    6.238000e+00
    N3  TQ5n  1 3.950000e-01    8.675000e+00
    N2   Q5n  1 4.700000e-01    4.848000e+00
    N2  SQ5n  1 4.300000e-01    6.157000e+00
    N2  TQ5n  1 3.950000e-01    8.487000e+00
    N1   Q5n  1 4.700000e-01    4.626000e+00
    N1  SQ5n  1 4.300000e-01    5.839000e+00
    N1  TQ5n  1 3.950000e-01    7.975000e+00
    C6   Q5n  1 4.700000e-01    3.584000e+00
    C6  SQ5n  1 4.300000e-01    4.409000e+00
    C6  TQ5n  1 3.950000e-01    6.196000e+00
    C5   Q5n  1 4.700000e-01    2.913000e+00
    C5  SQ5n  1 4.300000e-01    3.460000e+00
    C5  TQ5n  1 4.010000e-01    4.924000e+00
    C4   Q5n  1 4.850000e-01    2.640000e+00
    C4  SQ5n  1 4.430000e-01    2.944000e+00
    C4  TQ5n  1 4.040000e-01    4.240000e+00
    C3   Q5n  1 5.200000e-01    2.402000e+00
    C3  SQ5n  1 4.730000e-01    2.318000e+00
    C3  TQ5n  1 4.650000e-01    2.946000e+00
    C2   Q5n  1 6.200000e-01    2.136000e+00
    C2  SQ5n  1 5.520000e-01    1.672000e+00
    C2  TQ5n  1 5.240000e-01    2.111000e+00
    C1   Q5n  1 6.200000e-01    2.046000e+00
    C1  SQ5n  1 5.520000e-01    1.332000e+00
    C1  TQ5n  1 5.240000e-01    1.350000e+00
    X4   Q5n  1 4.700000e-01    3.503000e+00
    X4  SQ5n  1 4.300000e-01    4.307000e+00
    X4  TQ5n  1 3.950000e-01    6.265000e+00
    X3   Q5n  1 4.700000e-01    3.304000e+00
    X3  SQ5n  1 4.300000e-01    4.039000e+00
    X3  TQ5n  1 3.980000e-01    5.763000e+00
    X2   Q5n  1 4.700000e-01    3.066000e+00
    X2  SQ5n  1 4.300000e-01    3.561000e+00
    X2  TQ5n  1 3.990000e-01    4.914000e+00
    X1   Q5n  1 4.700000e-01    2.752000e+00
    X1  SQ5n  1 4.300000e-01    2.872000e+00
    X1  TQ5n  1 4.010000e-01    3.584000e+00
   P6d   Q5n  1 4.700000e-01    6.236000e+00
   P6d  SQ5n  1 4.300000e-01    7.937000e+00
   P6d  TQ5n  1 3.950000e-01    1.157700e+01
   P5d   Q5n  1 4.700000e-01    5.966000e+00
   P5d  SQ5n  1 4.300000e-01    7.575000e+00
   P5d  TQ5n  1 3.950000e-01    1.100900e+01
   P4d   Q5n  1 4.700000e-01    5.943000e+00
   P4d  SQ5n  1 4.300000e-01    7.489000e+00
   P4d  TQ5n  1 3.950000e-01    1.081200e+01
   P3d   Q5n  1 4.700000e-01    5.678000e+00
   P3d  SQ5n  1 4.300000e-01    7.197000e+00
   P3d  TQ5n  1 3.950000e-01    1.035900e+01
   P2d   Q5n  1 4.700000e-01    5.668000e+00
   P2d  SQ5n  1 4.300000e-01    7.159000e+00
   P2d  TQ5n  1 3.950000e-01    1.027200e+01
   P1d   Q5n  1 4.700000e-01    5.400000e+00
   P1d  SQ5n  1 4.300000e-01    6.850000e+00
   P1d  TQ5n  1 3.950000e-01    9.895000e+00
   N6d   Q5n  1 4.700000e-01    5.391000e+00
   N6d  SQ5n  1 4.300000e-01    6.816000e+00
   N6d  TQ5n  1 3.950000e-01    9.817000e+00
   N5d   Q5n  1 4.700000e-01    5.130000e+00
   N5d  SQ5n  1 4.300000e-01    6.547000e+00
   N5d  TQ5n  1 3.950000e-01    9.406000e+00
   N4d   Q5n  1 4.700000e-01    5.117000e+00
   N4d  SQ5n  1 4.300000e-01    6.499000e+00
   N4d  TQ5n  1 3.950000e-01    9.295000e+00
   N3d   Q5n  1 4.700000e-01    4.870000e+00
   N3d  SQ5n  1 4.300000e-01    6.238000e+00
   N3d  TQ5n  1 3.950000e-01    8.915000e+00
   N2d   Q5n  1 4.700000e-01    4.848000e+00
   N2d  SQ5n  1 4.300000e-01    6.157000e+00
   N2d  TQ5n  1 3.950000e-01    8.727000e+00
   N1d   Q5n  1 4.700000e-01    4.626000e+00
   N1d  SQ5n  1 4.300000e-01    5.839000e+00
   N1d  TQ5n  1 3.950000e-01    8.215000e+00
   P6a   Q5n  1 4.700000e-01    5.476000e+00
   P6a  SQ5n  1 4.300000e-01    7.127000e+00
   P6a  TQ5n  1 3.950000e-01    1.053700e+01
   P5a   Q5n  1 4.700000e-01    5.206000e+00
   P5a  SQ5n  1 4.300000e-01    6.825000e+00
   P5a  TQ5n  1 3.950000e-01    1.004900e+01
   P4a   Q5n  1 4.700000e-01    5.183000e+00
   P4a  SQ5n  1 4.300000e-01    6.739000e+00
   P4a  TQ5n  1 3.950000e-01    9.852000e+00
   P3a   Q5n  1 4.700000e-01    4.938000e+00
   P3a  SQ5n  1 4.300000e-01    6.487000e+00
   P3a  TQ5n  1 3.950000e-01    9.489000e+00
   P2a   Q5n  1 4.700000e-01    4.928000e+00
   P2a  SQ5n  1 4.300000e-01    6.449000e+00
   P2a  TQ5n  1 3.950000e-01    9.402000e+00
   P1a   Q5n  1 4.700000e-01    4.730000e+00
   P1a  SQ5n  1 4.300000e-01    6.220000e+00
   P1a  TQ5n  1 3.950000e-01    9.095000e+00
   N6a   Q5n  1 4.700000e-01    4.721000e+00
   N6a  SQ5n  1 4.300000e-01    6.186000e+00
   N6a  TQ5n  1 3.950000e-01    9.017000e+00
   N5a   Q5n  1 4.700000e-01    4.530000e+00
   N5a  SQ5n  1 4.300000e-01    5.967000e+00
   N5a  TQ5n  1 3.950000e-01    8.686000e+00
   N4a   Q5n  1 4.700000e-01    4.517000e+00
   N4a  SQ5n  1 4.300000e-01    5.919000e+00
   N4a  TQ5n  1 3.950000e-01    8.575000e+00
   N3a   Q5n  1 4.700000e-01    4.310000e+00
   N3a  SQ5n  1 4.300000e-01    5.648000e+00
   N3a  TQ5n  1 3.950000e-01    8.185000e+00
   N2a   Q5n  1 4.700000e-01    4.288000e+00
   N2a  SQ5n  1 4.300000e-01    5.567000e+00
   N2a  TQ5n  1 3.950000e-01    7.997000e+00
   N1a   Q5n  1 4.700000e-01    4.086000e+00
   N1a  SQ5n  1 4.300000e-01    5.229000e+00
   N1a  TQ5n  1 3.950000e-01    7.485000e+00
   C6v   Q5n  1 4.700000e-01    3.754000e+00
   C6v  SQ5n  1 4.300000e-01    4.799000e+00
   C6v  TQ5n  1 3.950000e-01    6.656000e+00
   C5v   Q5n  1 4.700000e-01    3.093000e+00
   C5v  SQ5n  1 4.300000e-01    3.660000e+00
   C5v  TQ5n  1 3.980000e-01    5.420000e+00
   C4v   Q5n  1 4.700000e-01    2.852000e+00
   C4v  SQ5n  1 4.300000e-01    3.238000e+00
   C4v  TQ5n  1 3.990000e-01    4.633000e+00
   C3v   Q5n  1 4.850000e-01    2.543000e+00
   C3v  SQ5n  1 4.430000e-01    2.588000e+00
   C3v  TQ5n  1 4.010000e-01    3.584000e+00
   C2v   Q5n  1 6.200000e-01    2.136000e+00
   C2v  SQ5n  1 5.080000e-01    1.830000e+00
   C2v  TQ5n  1 4.650000e-01    2.373000e+00
   C1v   Q5n  1 6.200000e-01    2.046000e+00
   C1v  SQ5n  1 5.080000e-01    1.460000e+00
   C1v  TQ5n  1 4.650000e-01    1.516000e+00
   X4v   Q5n  1 4.700000e-01    3.613000e+00
   X4v  SQ5n  1 4.300000e-01    4.517000e+00
   X4v  TQ5n  1 3.950000e-01    6.705000e+00
   X3v   Q5n  1 4.700000e-01    3.474000e+00
   X3v  SQ5n  1 4.300000e-01    4.199000e+00
   X3v  TQ5n  1 3.950000e-01    6.196000e+00
   X2v   Q5n  1 4.700000e-01    3.236000e+00
   X2v  SQ5n  1 4.300000e-01    3.791000e+00
   X2v  TQ5n  1 3.950000e-01    5.442000e+00
   X1v   Q5n  1 4.700000e-01    2.932000e+00
   X1v  SQ5n  1 4.300000e-01    3.072000e+00
   X1v  TQ5n  1 3.980000e-01    4.071000e+00
   C6e   Q5n  1 4.700000e-01    3.304000e+00
   C6e  SQ5n  1 4.300000e-01    4.039000e+00
   C6e  TQ5n  1 3.950000e-01    6.016000e+00
   C5e   Q5n  1 5.200000e-01    2.548000e+00
   C5e  SQ5n  1 4.730000e-01    2.853000e+00
   C5e  TQ5n  1 4.040000e-01    4.741000e+00
   C4e   Q5n  1 5.700000e-01    2.340000e+00
   C4e  SQ5n  1 5.080000e-01    2.387000e+00
   C4e  TQ5n  1 4.650000e-01    3.666000e+00
   C3e   Q5n  1 6.200000e-01    2.197000e+00
   C3e  SQ5n  1 5.140000e-01    2.065000e+00
   C3e  TQ5n  1 5.110000e-01    2.700000e+00
   C2e   Q5n  1 6.200000e-01    2.136000e+00
   C2e  SQ5n  1 5.520000e-01    1.672000e+00
   C2e  TQ5n  1 5.240000e-01    2.111000e+00
   C1e   Q5n  1 6.200000e-01    2.046000e+00
   C1e  SQ5n  1 5.520000e-01    1.332000e+00
   C1e  TQ5n  1 5.240000e-01    1.350000e+00
   X4e   Q5n  1 4.700000e-01    3.163000e+00
   X4e  SQ5n  1 4.300000e-01    3.917000e+00
   X4e  TQ5n  1 3.980000e-01    6.010000e+00
   X3e   Q5n  1 4.700000e-01    2.954000e+00
   X3e  SQ5n  1 4.300000e-01    3.609000e+00
   X3e  TQ5n  1 3.990000e-01    5.482000e+00
   X2e   Q5n  1 4.850000e-01    2.672000e+00
   X2e  SQ5n  1 4.430000e-01    3.063000e+00
   X2e  TQ5n  1 4.010000e-01    4.699000e+00
   X1e   Q5n  1 5.200000e-01    2.402000e+00
   X1e  SQ5n  1 4.730000e-01    2.318000e+00
   X1e  TQ5n  1 4.040000e-01    3.412000e+00
   P6q   Q5n  1 4.700000e-01    6.536000e+00
   P6q  SQ5n  1 4.300000e-01    8.237000e+00
   P6q  TQ5n  1 3.950000e-01    1.157700e+01
   P5q   Q5n  1 4.700000e-01    6.516000e+00
   P5q  SQ5n  1 4.300000e-01    8.165000e+00
   P5q  TQ5n  1 3.950000e-01    1.140900e+01
   P4q   Q5n  1 4.700000e-01    6.493000e+00
   P4q  SQ5n  1 4.300000e-01    8.079000e+00
   P4q  TQ5n  1 3.950000e-01    1.121200e+01
   P3q   Q5n  1 4.700000e-01    6.478000e+00
   P3q  SQ5n  1 4.300000e-01    8.027000e+00
   P3q  TQ5n  1 3.950000e-01    1.108900e+01
   P2q   Q5n  1 4.700000e-01    6.468000e+00
   P2q  SQ5n  1 4.300000e-01    7.989000e+00
   P2q  TQ5n  1 3.950000e-01    1.100200e+01
   P1q   Q5n  1 4.700000e-01    6.160000e+00
   P1q  SQ5n  1 4.300000e-01    7.660000e+00
   P1q  TQ5n  1 3.950000e-01    1.053500e+01
   N6q   Q5n  1 4.700000e-01    6.151000e+00
   N6q  SQ5n  1 4.300000e-01    7.626000e+00
   N6q  TQ5n  1 3.950000e-01    1.045700e+01
   N5q   Q5n  1 4.700000e-01    5.890000e+00
   N5q  SQ5n  1 4.300000e-01    7.297000e+00
   N5q  TQ5n  1 3.950000e-01    1.003600e+01
   N4q   Q5n  1 4.700000e-01    5.877000e+00
   N4q  SQ5n  1 4.300000e-01    7.249000e+00
   N4q  TQ5n  1 3.950000e-01    9.925000e+00
   N3q   Q5n  1 4.700000e-01    5.610000e+00
   N3q  SQ5n  1 4.300000e-01    6.948000e+00
   N3q  TQ5n  1 3.950000e-01    9.475000e+00
   N2q   Q5n  1 4.700000e-01    5.588000e+00
   N2q  SQ5n  1 4.300000e-01    6.867000e+00
   N2q  TQ5n  1 3.950000e-01    9.287000e+00
   N1q   Q5n  1 4.700000e-01    5.296000e+00
   N1q  SQ5n  1 4.300000e-01    6.469000e+00
   N1q  TQ5n  1 3.950000e-01    8.695000e+00
   C6q   Q5n  1 4.700000e-01    4.034000e+00
   C6q  SQ5n  1 4.300000e-01    5.039000e+00
   C6q  TQ5n  1 3.950000e-01    6.846000e+00
   C5q   Q5n  1 4.700000e-01    3.433000e+00
   C5q  SQ5n  1 4.300000e-01    4.050000e+00
   C5q  TQ5n  1 3.950000e-01    5.670000e+00
   C4q   Q5n  1 4.700000e-01    3.202000e+00
   C4q  SQ5n  1 4.300000e-01    3.668000e+00
   C4q  TQ5n  1 3.980000e-01    4.912000e+00
   C3q   Q5n  1 4.700000e-01    2.932000e+00
   C3q  SQ5n  1 4.300000e-01    3.072000e+00
   C3q  TQ5n  1 3.990000e-01    3.794000e+00
   C2q   Q5n  1 4.850000e-01    2.465000e+00
   C2q  SQ5n  1 4.430000e-01    2.305000e+00
   C2q  TQ5n  1 4.040000e-01    2.752000e+00
   C1q   Q5n  1 4.850000e-01    2.350000e+00
   C1q  SQ5n  1 4.430000e-01    1.882000e+00
   C1q  TQ5n  1 4.040000e-01    1.765000e+00
   X4q   Q5n  1 4.700000e-01    3.933000e+00
   X4q  SQ5n  1 4.300000e-01    4.907000e+00
   X4q  TQ5n  1 3.950000e-01    6.905000e+00
   X3q   Q5n  1 4.700000e-01    3.754000e+00
   X3q  SQ5n  1 4.300000e-01    4.649000e+00
   X3q  TQ5n  1 3.950000e-01    6.456000e+00
   X2q   Q5n  1 4.700000e-01    3.516000e+00
   X2q  SQ5n  1 4.300000e-01    4.161000e+00
   X2q  TQ5n  1 3.950000e-01    5.622000e+00
   X1q   Q5n  1 4.700000e-01    3.272000e+00
   X1q  SQ5n  1 4.300000e-01    3.462000e+00
   X1q  TQ5n  1 3.950000e-01    4.311000e+00
  P6dq   Q5n  1 4.700000e-01    6.236000e+00
  P6dq  SQ5n  1 4.300000e-01    7.937000e+00
  P6dq  TQ5n  1 3.950000e-01    1.157700e+01
  P5dq   Q5n  1 4.700000e-01    6.216000e+00
  P5dq  SQ5n  1 4.300000e-01    7.865000e+00
  P5dq  TQ5n  1 3.950000e-01    1.140900e+01
  P4dq   Q5n  1 4.700000e-01    6.193000e+00
  P4dq  SQ5n  1 4.300000e-01    7.779000e+00
  P4dq  TQ5n  1 3.950000e-01    1.121200e+01
  P3dq   Q5n  1 4.700000e-01    6.178000e+00
  P3dq  SQ5n  1 4.300000e-01    7.727000e+00
  P3dq  TQ5n  1 3.950000e-01    1.108900e+01
  P2dq   Q5n  1 4.700000e-01    6.168000e+00
  P2dq  SQ5n  1 4.300000e-01    7.689000e+00
  P2dq  TQ5n  1 3.950000e-01    1.100200e+01
  P1dq   Q5n  1 4.700000e-01    6.160000e+00
  P1dq  SQ5n  1 4.300000e-01    7.660000e+00
  P1dq  TQ5n  1 3.950000e-01    1.093500e+01
  N6dq   Q5n  1 4.700000e-01    6.151000e+00
  N6dq  SQ5n  1 4.300000e-01    7.626000e+00
  N6dq  TQ5n  1 3.950000e-01    1.085700e+01
  N5dq   Q5n  1 4.700000e-01    5.890000e+00
  N5dq  SQ5n  1 4.300000e-01    7.297000e+00
  N5dq  TQ5n  1 3.950000e-01    1.036600e+01
  N4dq   Q5n  1 4.700000e-01    5.877000e+00
  N4dq  SQ5n  1 4.300000e-01    7.249000e+00
  N4dq  TQ5n  1 3.950000e-01    1.025500e+01
  N3dq   Q5n  1 4.700000e-01    5.610000e+00
  N3dq  SQ5n  1 4.300000e-01    6.948000e+00
  N3dq  TQ5n  1 3.950000e-01    9.785000e+00
  N2dq   Q5n  1 4.700000e-01    5.588000e+00
  N2dq  SQ5n  1 4.300000e-01    6.867000e+00
  N2dq  TQ5n  1 3.950000e-01    9.597000e+00
  N1dq   Q5n  1 4.700000e-01    5.296000e+00
  N1dq  SQ5n  1 4.300000e-01    6.469000e+00
  N1dq  TQ5n  1 3.950000e-01    9.015000e+00
  P6aq   Q5n  1 4.700000e-01    6.236000e+00
  P6aq  SQ5n  1 4.300000e-01    7.937000e+00
  P6aq  TQ5n  1 3.950000e-01    1.157700e+01
  P5aq   Q5n  1 4.700000e-01    5.966000e+00
  P5aq  SQ5n  1 4.300000e-01    7.575000e+00
  P5aq  TQ5n  1 3.950000e-01    1.100900e+01
  P4aq   Q5n  1 4.700000e-01    5.943000e+00
  P4aq  SQ5n  1 4.300000e-01    7.489000e+00
  P4aq  TQ5n  1 3.950000e-01    1.081200e+01
  P3aq   Q5n  1 4.700000e-01    5.678000e+00
  P3aq  SQ5n  1 4.300000e-01    7.197000e+00
  P3aq  TQ5n  1 3.950000e-01    1.035900e+01
  P2aq   Q5n  1 4.700000e-01    5.668000e+00
  P2aq  SQ5n  1 4.300000e-01    7.159000e+00
  P2aq  TQ5n  1 3.950000e-01    1.027200e+01
  P1aq   Q5n  1 4.700000e-01    5.400000e+00
  P1aq  SQ5n  1 4.300000e-01    6.850000e+00
  P1aq  TQ5n  1 3.950000e-01    9.895000e+00
  N6aq   Q5n  1 4.700000e-01    5.391000e+00
  N6aq  SQ5n  1 4.300000e-01    6.816000e+00
  N6aq  TQ5n  1 3.950000e-01    9.817000e+00
  N5aq   Q5n  1 4.700000e-01    5.130000e+00
  N5aq  SQ5n  1 4.300000e-01    6.547000e+00
  N5aq  TQ5n  1 3.950000e-01    9.406000e+00
  N4aq   Q5n  1 4.700000e-01    5.117000e+00
  N4aq  SQ5n  1 4.300000e-01    6.499000e+00
  N4aq  TQ5n  1 3.950000e-01    9.295000e+00
  N3aq   Q5n  1 4.700000e-01    4.870000e+00
  N3aq  SQ5n  1 4.300000e-01    6.238000e+00
  N3aq  TQ5n  1 3.950000e-01    8.915000e+00
  N2aq   Q5n  1 4.700000e-01    4.848000e+00
  N2aq  SQ5n  1 4.300000e-01    6.157000e+00
  N2aq  TQ5n  1 3.950000e-01    8.727000e+00
  N1aq   Q5n  1 4.700000e-01    4.626000e+00
  N1aq  SQ5n  1 4.300000e-01    5.839000e+00
  N1aq  TQ5n  1 3.950000e-01    8.215000e+00
  C6vq   Q5n  1 4.700000e-01    4.204000e+00
  C6vq  SQ5n  1 4.300000e-01    5.259000e+00
  C6vq  TQ5n  1 3.950000e-01    7.286000e+00
  C5vq   Q5n  1 4.700000e-01    3.543000e+00
  C5vq  SQ5n  1 4.300000e-01    4.260000e+00
  C5vq  TQ5n  1 3.950000e-01    6.110000e+00
  C4vq   Q5n  1 4.700000e-01    3.372000e+00
  C4vq  SQ5n  1 4.300000e-01    3.828000e+00
  C4vq  TQ5n  1 3.950000e-01    5.338000e+00
  C3vq   Q5n  1 4.700000e-01    3.102000e+00
  C3vq  SQ5n  1 4.300000e-01    3.302000e+00
  C3vq  TQ5n  1 3.950000e-01    4.311000e+00
  C2vq   Q5n  1 6.200000e-01    2.136000e+00
  C2vq  SQ5n  1 5.080000e-01    1.830000e+00
  C2vq  TQ5n  1 4.650000e-01    2.373000e+00
  C1vq   Q5n  1 6.200000e-01    2.046000e+00
  C1vq  SQ5n  1 5.080000e-01    1.460000e+00
  C1vq  TQ5n  1 4.650000e-01    1.516000e+00
  X4vq   Q5n  1 4.700000e-01    4.063000e+00
  X4vq  SQ5n  1 4.300000e-01    5.147000e+00
  X4vq  TQ5n  1 3.950000e-01    7.295000e+00
  X3vq   Q5n  1 4.700000e-01    3.904000e+00
  X3vq  SQ5n  1 4.300000e-01    4.809000e+00
  X3vq  TQ5n  1 3.950000e-01    6.846000e+00
  X2vq   Q5n  1 4.700000e-01    3.686000e+00
  X2vq  SQ5n  1 4.300000e-01    4.551000e+00
  X2vq  TQ5n  1 3.950000e-01    6.082000e+00
  X1vq   Q5n  1 4.700000e-01    3.382000e+00
  X1vq  SQ5n  1 4.300000e-01    3.672000e+00
  X1vq  TQ5n  1 3.950000e-01    4.751000e+00
  C6eq   Q5n  1 4.700000e-01    3.754000e+00
  C6eq  SQ5n  1 4.300000e-01    4.799000e+00
  C6eq  TQ5n  1 3.950000e-01    6.656000e+00
  C5eq   Q5n  1 4.700000e-01    3.093000e+00
  C5eq  SQ5n  1 4.300000e-01    3.660000e+00
  C5eq  TQ5n  1 3.980000e-01    5.420000e+00
  C4eq   Q5n  1 4.700000e-01    2.852000e+00
  C4eq  SQ5n  1 4.300000e-01    3.238000e+00
  C4eq  TQ5n  1 3.990000e-01    4.633000e+00
  C3eq   Q5n  1 4.850000e-01    2.543000e+00
  C3eq  SQ5n  1 4.430000e-01    2.588000e+00
  C3eq  TQ5n  1 4.010000e-01    3.584000e+00
  C2eq   Q5n  1 5.200000e-01    2.330000e+00
  C2eq  SQ5n  1 4.730000e-01    2.053000e+00
  C2eq  TQ5n  1 4.040000e-01    2.752000e+00
  C1eq   Q5n  1 5.200000e-01    2.222000e+00
  C1eq  SQ5n  1 4.730000e-01    1.656000e+00
  C1eq  TQ5n  1 4.040000e-01    1.765000e+00
  X4eq   Q5n  1 4.700000e-01    3.613000e+00
  X4eq  SQ5n  1 4.300000e-01    4.517000e+00
  X4eq  TQ5n  1 3.950000e-01    6.705000e+00
  X3eq   Q5n  1 4.700000e-01    3.474000e+00
  X3eq  SQ5n  1 4.300000e-01    4.199000e+00
  X3eq  TQ5n  1 3.950000e-01    6.196000e+00
  X2eq   Q5n  1 4.700000e-01    3.236000e+00
  X2eq  SQ5n  1 4.300000e-01    3.791000e+00
  X2eq  TQ5n  1 3.950000e-01    5.442000e+00
  X1eq   Q5n  1 4.700000e-01    2.932000e+00
  X1eq  SQ5n  1 4.300000e-01    3.072000e+00
  X1eq  TQ5n  1 3.980000e-01    4.071000e+00
   P6h   Q5n  1 4.700000e-01    6.236000e+00
   P6h  SQ5n  1 4.300000e-01    7.937000e+00
   P6h  TQ5n  1 3.950000e-01    1.117700e+01
   P5h   Q5n  1 4.700000e-01    5.966000e+00
   P5h  SQ5n  1 4.300000e-01    7.575000e+00
   P5h  TQ5n  1 3.950000e-01    1.067900e+01
   P4h   Q5n  1 4.700000e-01    5.943000e+00
   P4h  SQ5n  1 4.300000e-01    7.489000e+00
   P4h  TQ5n  1 3.950000e-01    1.048200e+01
   P3h   Q5n  1 4.700000e-01    5.678000e+00
   P3h  SQ5n  1 4.300000e-01    7.197000e+00
   P3h  TQ5n  1 3.950000e-01    1.004900e+01
   P2h   Q5n  1 4.700000e-01    5.668000e+00
   P2h  SQ5n  1 4.300000e-01    7.159000e+00
   P2h  TQ5n  1 3.950000e-01    9.962000e+00
   P1h   Q5n  1 4.700000e-01    5.400000e+00
   P1h  SQ5n  1 4.300000e-01    6.850000e+00
   P1h  TQ5n  1 3.950000e-01    9.575000e+00
   N6h   Q5n  1 4.700000e-01    5.391000e+00
   N6h  SQ5n  1 4.300000e-01    6.816000e+00
   N6h  TQ5n  1 3.950000e-01    9.497000e+00
   N5h   Q5n  1 4.700000e-01    5.130000e+00
   N5h  SQ5n  1 4.300000e-01    6.547000e+00
   N5h  TQ5n  1 3.950000e-01    9.166000e+00
   N4h   Q5n  1 4.700000e-01    5.117000e+00
   N4h  SQ5n  1 4.300000e-01    6.499000e+00
   N4h  TQ5n  1 3.950000e-01    9.055000e+00
   N3h   Q5n  1 4.700000e-01    4.870000e+00
   N3h  SQ5n  1 4.300000e-01    6.238000e+00
   N3h  TQ5n  1 3.950000e-01    8.675000e+00
   N2h   Q5n  1 4.700000e-01    4.848000e+00
   N2h  SQ5n  1 4.300000e-01    6.157000e+00
   N2h  TQ5n  1 3.950000e-01    8.487000e+00
   N1h   Q5n  1 4.700000e-01    4.626000e+00
   N1h  SQ5n  1 4.300000e-01    5.839000e+00
   N1h  TQ5n  1 3.950000e-01    7.975000e+00
   C6h   Q5n  1 4.700000e-01    3.584000e+00
   C6h  SQ5n  1 4.300000e-01    4.409000e+00
   C6h  TQ5n  1 3.950000e-01    6.196000e+00
   C5h   Q5n  1 4.700000e-01    2.913000e+00
   C5h  SQ5n  1 4.300000e-01    3.460000e+00
   C5h  TQ5n  1 4.010000e-01    4.924000e+00
   C4h   Q5n  1 4.850000e-01    2.640000e+00
   C4h  SQ5n  1 4.430000e-01    2.944000e+00
   C4h  TQ5n  1 4.040000e-01    4.240000e+00
   C3h   Q5n  1 5.200000e-01    2.402000e+00
   C3h  SQ5n  1 4.730000e-01    2.318000e+00
   C3h  TQ5n  1 4.650000e-01    2.946000e+00
   C2h   Q5n  1 6.200000e-01    2.136000e+00
   C2h  SQ5n  1 5.520000e-01    1.672000e+00
   C2h  TQ5n  1 5.240000e-01    2.111000e+00
   C1h   Q5n  1 6.200000e-01    2.046000e+00
   C1h  SQ5n  1 5.520000e-01    1.332000e+00
   C1h  TQ5n  1 5.240000e-01    1.350000e+00
   X4h   Q5n  1 4.700000e-01    3.503000e+00
   X4h  SQ5n  1 4.300000e-01    4.307000e+00
   X4h  TQ5n  1 3.950000e-01    6.265000e+00
   X3h   Q5n  1 4.700000e-01    3.304000e+00
   X3h  SQ5n  1 4.300000e-01    4.039000e+00
   X3h  TQ5n  1 3.980000e-01    5.763000e+00
   X2h   Q5n  1 4.700000e-01    3.066000e+00
   X2h  SQ5n  1 4.300000e-01    3.561000e+00
   X2h  TQ5n  1 3.990000e-01    4.914000e+00
   X1h   Q5n  1 4.700000e-01    2.752000e+00
   X1h  SQ5n  1 4.300000e-01    2.872000e+00
   X1h  TQ5n  1 4.010000e-01    3.584000e+00
  P6dh   Q5n  1 4.700000e-01    6.236000e+00
  P6dh  SQ5n  1 4.300000e-01    7.937000e+00
  P6dh  TQ5n  1 3.950000e-01    1.157700e+01
  P5dh   Q5n  1 4.700000e-01    5.966000e+00
  P5dh  SQ5n  1 4.300000e-01    7.575000e+00
  P5dh  TQ5n  1 3.950000e-01    1.100900e+01
  P4dh   Q5n  1 4.700000e-01    5.943000e+00
  P4dh  SQ5n  1 4.300000e-01    7.489000e+00
  P4dh  TQ5n  1 3.950000e-01    1.081200e+01
  P3dh   Q5n  1 4.700000e-01    5.678000e+00
  P3dh  SQ5n  1 4.300000e-01    7.197000e+00
  P3dh  TQ5n  1 3.950000e-01    1.035900e+01
  P2dh   Q5n  1 4.700000e-01    5.668000e+00
  P2dh  SQ5n  1 4.300000e-01    7.159000e+00
  P2dh  TQ5n  1 3.950000e-01    1.027200e+01
  P1dh   Q5n  1 4.700000e-01    5.400000e+00
  P1dh  SQ5n  1 4.300000e-01    6.850000e+00
  P1dh  TQ5n  1 3.950000e-01    9.895000e+00
  N6dh   Q5n  1 4.700000e-01    5.391000e+00
  N6dh  SQ5n  1 4.300000e-01    6.816000e+00
  N6dh  TQ5n  1 3.950000e-01    9.817000e+00
  N5dh   Q5n  1 4.700000e-01    5.130000e+00
  N5dh  SQ5n  1 4.300000e-01    6.547000e+00
  N5dh  TQ5n  1 3.950000e-01    9.406000e+00
  N4dh   Q5n  1 4.700000e-01    5.117000e+00
  N4dh  SQ5n  1 4.300000e-01    6.499000e+00
  N4dh  TQ5n  1 3.950000e-01    9.295000e+00
  N3dh   Q5n  1 4.700000e-01    4.870000e+00
  N3dh  SQ5n  1 4.300000e-01    6.238000e+00
  N3dh  TQ5n  1 3.950000e-01    8.915000e+00
  N2dh   Q5n  1 4.700000e-01    4.848000e+00
  N2dh  SQ5n  1 4.300000e-01    6.157000e+00
  N2dh  TQ5n  1 3.950000e-01    8.727000e+00
  N1dh   Q5n  1 4.700000e-01    4.626000e+00
  N1dh  SQ5n  1 4.300000e-01    5.839000e+00
  N1dh  TQ5n  1 3.950000e-01    8.215000e+00
  P6ah   Q5n  1 4.700000e-01    5.476000e+00
  P6ah  SQ5n  1 4.300000e-01    7.127000e+00
  P6ah  TQ5n  1 3.950000e-01    1.053700e+01
  P5ah   Q5n  1 4.700000e-01    5.206000e+00
  P5ah  SQ5n  1 4.300000e-01    6.825000e+00
  P5ah  TQ5n  1 3.950000e-01    1.004900e+01
  P4ah   Q5n  1 4.700000e-01    5.183000e+00
  P4ah  SQ5n  1 4.300000e-01    6.739000e+00
  P4ah  TQ5n  1 3.950000e-01    9.852000e+00
  P3ah   Q5n  1 4.700000e-01    4.938000e+00
  P3ah  SQ5n  1 4.300000e-01    6.487000e+00
  P3ah  TQ5n  1 3.950000e-01    9.489000e+00
  P2ah   Q5n  1 4.700000e-01    4.928000e+00
  P2ah  SQ5n  1 4.300000e-01    6.449000e+00
  P2ah  TQ5n  1 3.950000e-01    9.402000e+00
  P1ah   Q5n  1 4.700000e-01    4.730000e+00
  P1ah  SQ5n  1 4.300000e-01    6.220000e+00
  P1ah  TQ5n  1 3.950000e-01    9.095000e+00
  N6ah   Q5n  1 4.700000e-01    4.721000e+00
  N6ah  SQ5n  1 4.300000e-01    6.186000e+00
  N6ah  TQ5n  1 3.950000e-01    9.017000e+00
  N5ah   Q5n  1 4.700000e-01    4.530000e+00
  N5ah  SQ5n  1 4.300000e-01    5.967000e+00
  N5ah  TQ5n  1 3.950000e-01    8.686000e+00
  N4ah   Q5n  1 4.700000e-01    4.517000e+00
  N4ah  SQ5n  1 4.300000e-01    5.919000e+00
  N4ah  TQ5n  1 3.950000e-01    8.575000e+00
  N3ah   Q5n  1 4.700000e-01    4.310000e+00
  N3ah  SQ5n  1 4.300000e-01    5.648000e+00
  N3ah  TQ5n  1 3.950000e-01    8.185000e+00
  N2ah   Q5n  1 4.700000e-01    4.288000e+00
  N2ah  SQ5n  1 4.300000e-01    5.567000e+00
  N2ah  TQ5n  1 3.950000e-01    7.997000e+00
  N1ah   Q5n  1 4.700000e-01    4.086000e+00
  N1ah  SQ5n  1 4.300000e-01    5.229000e+00
  N1ah  TQ5n  1 3.950000e-01    7.485000e+00
  C6vh   Q5n  1 4.700000e-01    3.754000e+00
  C6vh  SQ5n  1 4.300000e-01    4.799000e+00
  C6vh  TQ5n  1 3.950000e-01    6.656000e+00
  C5vh   Q5n  1 4.700000e-01    3.093000e+00
  C5vh  SQ5n  1 4.300000e-01    3.660000e+00
  C5vh  TQ5n  1 3.980000e-01    5.420000e+00
  C4vh   Q5n  1 4.700000e-01    2.852000e+00
  C4vh  SQ5n  1 4.300000e-01    3.238000e+00
  C4vh  TQ5n  1 3.990000e-01    4.633000e+00
  C3vh   Q5n  1 4.850000e-01    2.543000e+00
  C3vh  SQ5n  1 4.430000e-01    2.588000e+00
  C3vh  TQ5n  1 4.010000e-01    3.584000e+00
  C2vh   Q5n  1 6.200000e-01    2.136000e+00
  C2vh  SQ5n  1 5.080000e-01    1.830000e+00
  C2vh  TQ5n  1 4.650000e-01    2.373000e+00
  C1vh   Q5n  1 6.200000e-01    2.046000e+00
  C1vh  SQ5n  1 5.080000e-01    1.460000e+00
  C1vh  TQ5n  1 4.650000e-01    1.516000e+00
  X4vh   Q5n  1 4.700000e-01    3.613000e+00
  X4vh  SQ5n  1 4.300000e-01    4.517000e+00
  X4vh  TQ5n  1 3.950000e-01    6.705000e+00
  X3vh   Q5n  1 4.700000e-01    3.474000e+00
  X3vh  SQ5n  1 4.300000e-01    4.199000e+00
  X3vh  TQ5n  1 3.950000e-01    6.196000e+00
  X2vh   Q5n  1 4.700000e-01    3.236000e+00
  X2vh  SQ5n  1 4.300000e-01    3.791000e+00
  X2vh  TQ5n  1 3.950000e-01    5.442000e+00
  X1vh   Q5n  1 4.700000e-01    2.932000e+00
  X1vh  SQ5n  1 4.300000e-01    3.072000e+00
  X1vh  TQ5n  1 3.980000e-01    4.071000e+00
  C6eh   Q5n  1 4.700000e-01    3.304000e+00
  C6eh  SQ5n  1 4.300000e-01    4.039000e+00
  C6eh  TQ5n  1 3.950000e-01    6.016000e+00
  C5eh   Q5n  1 5.200000e-01    2.548000e+00
  C5eh  SQ5n  1 4.730000e-01    2.853000e+00
  C5eh  TQ5n  1 4.040000e-01    4.741000e+00
  C4eh   Q5n  1 5.700000e-01    2.340000e+00
  C4eh  SQ5n  1 5.080000e-01    2.387000e+00
  C4eh  TQ5n  1 4.650000e-01    3.666000e+00
  C3eh   Q5n  1 6.200000e-01    2.197000e+00
  C3eh  SQ5n  1 5.140000e-01    2.065000e+00
  C3eh  TQ5n  1 5.110000e-01    2.700000e+00
  C2eh   Q5n  1 6.200000e-01    2.136000e+00
  C2eh  SQ5n  1 5.520000e-01    1.672000e+00
  C2eh  TQ5n  1 5.240000e-01    2.111000e+00
  C1eh   Q5n  1 6.200000e-01    2.046000e+00
  C1eh  SQ5n  1 5.520000e-01    1.332000e+00
  C1eh  TQ5n  1 5.240000e-01    1.350000e+00
  X4eh   Q5n  1 4.700000e-01    3.163000e+00
  X4eh  SQ5n  1 4.300000e-01    3.917000e+00
  X4eh  TQ5n  1 3.980000e-01    6.010000e+00
  X3eh   Q5n  1 4.700000e-01    2.954000e+00
  X3eh  SQ5n  1 4.300000e-01    3.609000e+00
  X3eh  TQ5n  1 3.990000e-01    5.482000e+00
  X2eh   Q5n  1 4.850000e-01    2.672000e+00
  X2eh  SQ5n  1 4.430000e-01    3.063000e+00
  X2eh  TQ5n  1 4.010000e-01    4.699000e+00
  X1eh   Q5n  1 5.200000e-01    2.402000e+00
  X1eh  SQ5n  1 4.730000e-01    2.318000e+00
  X1eh  TQ5n  1 4.040000e-01    3.412000e+00
   P6r   Q5n  1 4.700000e-01    6.236000e+00
   P6r  SQ5n  1 4.300000e-01    7.937000e+00
   P6r  TQ5n  1 3.950000e-01    1.117700e+01
   P5r   Q5n  1 4.700000e-01    5.966000e+00
   P5r  SQ5n  1 4.300000e-01    7.575000e+00
   P5r  TQ5n  1 3.950000e-01    1.067900e+01
   P4r   Q5n  1 4.700000e-01    5.943000e+00
   P4r  SQ5n  1 4.300000e-01    7.489000e+00
   P4r  TQ5n  1 3.950000e-01    1.048200e+01
   P3r   Q5n  1 4.700000e-01    5.678000e+00
   P3r  SQ5n  1 4.300000e-01    7.197000e+00
   P3r  TQ5n  1 3.950000e-01    1.004900e+01
   P2r   Q5n  1 4.700000e-01    5.668000e+00
   P2r  SQ5n  1 4.300000e-01    7.159000e+00
   P2r  TQ5n  1 3.950000e-01    9.962000e+00
   P1r   Q5n  1 4.700000e-01    5.400000e+00
   P1r  SQ5n  1 4.300000e-01    6.850000e+00
   P1r  TQ5n  1 3.950000e-01    9.575000e+00
   N6r   Q5n  1 4.700000e-01    5.391000e+00
   N6r  SQ5n  1 4.300000e-01    6.816000e+00
   N6r  TQ5n  1 3.950000e-01    9.497000e+00
   N5r   Q5n  1 4.700000e-01    5.130000e+00
   N5r  SQ5n  1 4.300000e-01    6.547000e+00
   N5r  TQ5n  1 3.950000e-01    9.166000e+00
   N4r   Q5n  1 4.700000e-01    5.117000e+00
   N4r  SQ5n  1 4.300000e-01    6.499000e+00
   N4r  TQ5n  1 3.950000e-01    9.055000e+00
   N3r   Q5n  1 4.700000e-01    4.870000e+00
   N3r  SQ5n  1 4.300000e-01    6.238000e+00
   N3r  TQ5n  1 3.950000e-01    8.675000e+00
   N2r   Q5n  1 4.700000e-01    4.848000e+00
   N2r  SQ5n  1 4.300000e-01    6.157000e+00
   N2r  TQ5n  1 3.950000e-01    8.487000e+00
   N1r   Q5n  1 4.700000e-01    4.626000e+00
   N1r  SQ5n  1 4.300000e-01    5.839000e+00
   N1r  TQ5n  1 3.950000e-01    7.975000e+00
   C6r   Q5n  1 4.700000e-01    3.584000e+00
   C6r  SQ5n  1 4.300000e-01    4.409000e+00
   C6r  TQ5n  1 3.950000e-01    6.196000e+00
   C5r   Q5n  1 4.700000e-01    2.913000e+00
   C5r  SQ5n  1 4.300000e-01    3.460000e+00
   C5r  TQ5n  1 4.010000e-01    4.924000e+00
   C4r   Q5n  1 4.850000e-01    2.640000e+00
   C4r  SQ5n  1 4.430000e-01    2.944000e+00
   C4r  TQ5n  1 4.040000e-01    4.240000e+00
   C3r   Q5n  1 5.200000e-01    2.402000e+00
   C3r  SQ5n  1 4.730000e-01    2.318000e+00
   C3r  TQ5n  1 4.650000e-01    2.946000e+00
   C2r   Q5n  1 6.200000e-01    2.136000e+00
   C2r  SQ5n  1 5.520000e-01    1.672000e+00
   C2r  TQ5n  1 5.240000e-01    2.111000e+00
   C1r   Q5n  1 6.200000e-01    2.046000e+00
   C1r  SQ5n  1 5.520000e-01    1.332000e+00
   C1r  TQ5n  1 5.240000e-01    1.350000e+00
   X4r   Q5n  1 4.700000e-01    3.503000e+00
   X4r  SQ5n  1 4.300000e-01    4.307000e+00
   X4r  TQ5n  1 3.950000e-01    6.265000e+00
   X3r   Q5n  1 4.700000e-01    3.304000e+00
   X3r  SQ5n  1 4.300000e-01    4.039000e+00
   X3r  TQ5n  1 3.980000e-01    5.763000e+00
   X2r   Q5n  1 4.700000e-01    3.066000e+00
   X2r  SQ5n  1 4.300000e-01    3.561000e+00
   X2r  TQ5n  1 3.990000e-01    4.914000e+00
   X1r   Q5n  1 4.700000e-01    2.752000e+00
   X1r  SQ5n  1 4.300000e-01    2.872000e+00
   X1r  TQ5n  1 4.010000e-01    3.584000e+00
  P6dr   Q5n  1 4.700000e-01    6.236000e+00
  P6dr  SQ5n  1 4.300000e-01    7.937000e+00
  P6dr  TQ5n  1 3.950000e-01    1.157700e+01
  P5dr   Q5n  1 4.700000e-01    5.966000e+00
  P5dr  SQ5n  1 4.300000e-01    7.575000e+00
  P5dr  TQ5n  1 3.950000e-01    1.100900e+01
  P4dr   Q5n  1 4.700000e-01    5.943000e+00
  P4dr  SQ5n  1 4.300000e-01    7.489000e+00
  P4dr  TQ5n  1 3.950000e-01    1.081200e+01
  P3dr   Q5n  1 4.700000e-01    5.678000e+00
  P3dr  SQ5n  1 4.300000e-01    7.197000e+00
  P3dr  TQ5n  1 3.950000e-01    1.035900e+01
  P2dr   Q5n  1 4.700000e-01    5.668000e+00
  P2dr  SQ5n  1 4.300000e-01    7.159000e+00
  P2dr  TQ5n  1 3.950000e-01    1.027200e+01
  P1dr   Q5n  1 4.700000e-01    5.400000e+00
  P1dr  SQ5n  1 4.300000e-01    6.850000e+00
  P1dr  TQ5n  1 3.950000e-01    9.895000e+00
  N6dr   Q5n  1 4.700000e-01    5.391000e+00
  N6dr  SQ5n  1 4.300000e-01    6.816000e+00
  N6dr  TQ5n  1 3.950000e-01    9.817000e+00
  N5dr   Q5n  1 4.700000e-01    5.130000e+00
  N5dr  SQ5n  1 4.300000e-01    6.547000e+00
  N5dr  TQ5n  1 3.950000e-01    9.406000e+00
  N4dr   Q5n  1 4.700000e-01    5.117000e+00
  N4dr  SQ5n  1 4.300000e-01    6.499000e+00
  N4dr  TQ5n  1 3.950000e-01    9.295000e+00
  N3dr   Q5n  1 4.700000e-01    4.870000e+00
  N3dr  SQ5n  1 4.300000e-01    6.238000e+00
  N3dr  TQ5n  1 3.950000e-01    8.915000e+00
  N2dr   Q5n  1 4.700000e-01    4.848000e+00
  N2dr  SQ5n  1 4.300000e-01    6.157000e+00
  N2dr  TQ5n  1 3.950000e-01    8.727000e+00
  N1dr   Q5n  1 4.700000e-01    4.626000e+00
  N1dr  SQ5n  1 4.300000e-01    5.839000e+00
  N1dr  TQ5n  1 3.950000e-01    8.215000e+00
  P6ar   Q5n  1 4.700000e-01    5.476000e+00
  P6ar  SQ5n  1 4.300000e-01    7.127000e+00
  P6ar  TQ5n  1 3.950000e-01    1.053700e+01
  P5ar   Q5n  1 4.700000e-01    5.206000e+00
  P5ar  SQ5n  1 4.300000e-01    6.825000e+00
  P5ar  TQ5n  1 3.950000e-01    1.004900e+01
  P4ar   Q5n  1 4.700000e-01    5.183000e+00
  P4ar  SQ5n  1 4.300000e-01    6.739000e+00
  P4ar  TQ5n  1 3.950000e-01    9.852000e+00
  P3ar   Q5n  1 4.700000e-01    4.938000e+00
  P3ar  SQ5n  1 4.300000e-01    6.487000e+00
  P3ar  TQ5n  1 3.950000e-01    9.489000e+00
  P2ar   Q5n  1 4.700000e-01    4.928000e+00
  P2ar  SQ5n  1 4.300000e-01    6.449000e+00
  P2ar  TQ5n  1 3.950000e-01    9.402000e+00
  P1ar   Q5n  1 4.700000e-01    4.730000e+00
  P1ar  SQ5n  1 4.300000e-01    6.220000e+00
  P1ar  TQ5n  1 3.950000e-01    9.095000e+00
  N6ar   Q5n  1 4.700000e-01    4.721000e+00
  N6ar  SQ5n  1 4.300000e-01    6.186000e+00
  N6ar  TQ5n  1 3.950000e-01    9.017000e+00
  N5ar   Q5n  1 4.700000e-01    4.530000e+00
  N5ar  SQ5n  1 4.300000e-01    5.967000e+00
  N5ar  TQ5n  1 3.950000e-01    8.686000e+00
  N4ar   Q5n  1 4.700000e-01    4.517000e+00
  N4ar  SQ5n  1 4.300000e-01    5.919000e+00
  N4ar  TQ5n  1 3.950000e-01    8.575000e+00
  N3ar   Q5n  1 4.700000e-01    4.310000e+00
  N3ar  SQ5n  1 4.300000e-01    5.648000e+00
  N3ar  TQ5n  1 3.950000e-01    8.185000e+00
  N2ar   Q5n  1 4.700000e-01    4.288000e+00
  N2ar  SQ5n  1 4.300000e-01    5.567000e+00
  N2ar  TQ5n  1 3.950000e-01    7.997000e+00
  N1ar   Q5n  1 4.700000e-01    4.086000e+00
  N1ar  SQ5n  1 4.300000e-01    5.229000e+00
  N1ar  TQ5n  1 3.950000e-01    7.485000e+00
  C6vr   Q5n  1 4.700000e-01    3.754000e+00
  C6vr  SQ5n  1 4.300000e-01    4.799000e+00
  C6vr  TQ5n  1 3.950000e-01    6.656000e+00
  C5vr   Q5n  1 4.700000e-01    3.093000e+00
  C5vr  SQ5n  1 4.300000e-01    3.660000e+00
  C5vr  TQ5n  1 3.980000e-01    5.420000e+00
  C4vr   Q5n  1 4.700000e-01    2.852000e+00
  C4vr  SQ5n  1 4.300000e-01    3.238000e+00
  C4vr  TQ5n  1 3.990000e-01    4.633000e+00
  C3vr   Q5n  1 4.850000e-01    2.543000e+00
  C3vr  SQ5n  1 4.430000e-01    2.588000e+00
  C3vr  TQ5n  1 4.010000e-01    3.584000e+00
  C2vr   Q5n  1 6.200000e-01    2.136000e+00
  C2vr  SQ5n  1 5.080000e-01    1.830000e+00
  C2vr  TQ5n  1 4.650000e-01    2.373000e+00
  C1vr   Q5n  1 6.200000e-01    2.046000e+00
  C1vr  SQ5n  1 5.080000e-01    1.460000e+00
  C1vr  TQ5n  1 4.650000e-01    1.516000e+00
  X4vr   Q5n  1 4.700000e-01    3.613000e+00
  X4vr  SQ5n  1 4.300000e-01    4.517000e+00
  X4vr  TQ5n  1 3.950000e-01    6.705000e+00
  X3vr   Q5n  1 4.700000e-01    3.474000e+00
  X3vr  SQ5n  1 4.300000e-01    4.199000e+00
  X3vr  TQ5n  1 3.950000e-01    6.196000e+00
  X2vr   Q5n  1 4.700000e-01    3.236000e+00
  X2vr  SQ5n  1 4.300000e-01    3.791000e+00
  X2vr  TQ5n  1 3.950000e-01    5.442000e+00
  X1vr   Q5n  1 4.700000e-01    2.932000e+00
  X1vr  SQ5n  1 4.300000e-01    3.072000e+00
  X1vr  TQ5n  1 3.980000e-01    4.071000e+00
  C6er   Q5n  1 4.700000e-01    3.304000e+00
  C6er  SQ5n  1 4.300000e-01    4.039000e+00
  C6er  TQ5n  1 3.950000e-01    6.016000e+00
  C5er   Q5n  1 5.200000e-01    2.548000e+00
  C5er  SQ5n  1 4.730000e-01    2.853000e+00
  C5er  TQ5n  1 4.040000e-01    4.741000e+00
  C4er   Q5n  1 5.700000e-01    2.340000e+00
  C4er  SQ5n  1 5.080000e-01    2.387000e+00
  C4er  TQ5n  1 4.650000e-01    3.666000e+00
  C3er   Q5n  1 6.200000e-01    2.197000e+00
  C3er  SQ5n  1 5.140000e-01    2.065000e+00
  C3er  TQ5n  1 5.110000e-01    2.700000e+00
  C2er   Q5n  1 6.200000e-01    2.136000e+00
  C2er  SQ5n  1 5.520000e-01    1.672000e+00
  C2er  TQ5n  1 5.240000e-01    2.111000e+00
  C1er   Q5n  1 6.200000e-01    2.046000e+00
  C1er  SQ5n  1 5.520000e-01    1.332000e+00
  C1er  TQ5n  1 5.240000e-01    1.350000e+00
  X4er   Q5n  1 4.700000e-01    3.163000e+00
  X4er  SQ5n  1 4.300000e-01    3.917000e+00
  X4er  TQ5n  1 3.980000e-01    6.010000e+00
  X3er   Q5n  1 4.700000e-01    2.954000e+00
  X3er  SQ5n  1 4.300000e-01    3.609000e+00
  X3er  TQ5n  1 3.990000e-01    5.482000e+00
  X2er   Q5n  1 4.850000e-01    2.672000e+00
  X2er  SQ5n  1 4.430000e-01    3.063000e+00
  X2er  TQ5n  1 4.010000e-01    4.699000e+00
  X1er   Q5n  1 5.200000e-01    2.402000e+00
  X1er  SQ5n  1 4.730000e-01    2.318000e+00
  X1er  TQ5n  1 4.040000e-01    3.412000e+00
   SP6   Q5n  1 4.300000e-01    5.706000e+00
   SP6  SQ5n  1 4.100000e-01    7.363000e+00
   SP6  TQ5n  1 3.650000e-01    9.784000e+00
   SP5   Q5n  1 4.300000e-01    5.401000e+00
   SP5  SQ5n  1 4.100000e-01    6.993000e+00
   SP5  TQ5n  1 3.650000e-01    9.327000e+00
   SP4   Q5n  1 4.300000e-01    5.383000e+00
   SP4  SQ5n  1 4.100000e-01    6.903000e+00
   SP4  TQ5n  1 3.650000e-01    9.139000e+00
   SP3   Q5n  1 4.300000e-01    5.132000e+00
   SP3  SQ5n  1 4.100000e-01    6.589000e+00
   SP3  TQ5n  1 3.650000e-01    8.736000e+00
   SP2   Q5n  1 4.300000e-01    5.125000e+00
   SP2  SQ5n  1 4.100000e-01    6.551000e+00
   SP2  TQ5n  1 3.650000e-01    8.656000e+00
   SP1   Q5n  1 4.300000e-01    4.839000e+00
   SP1  SQ5n  1 4.100000e-01    6.272000e+00
   SP1  TQ5n  1 3.650000e-01    8.306000e+00
   SN6   Q5n  1 4.300000e-01    4.833000e+00
   SN6  SQ5n  1 4.100000e-01    6.240000e+00
   SN6  TQ5n  1 3.650000e-01    8.238000e+00
   SN5   Q5n  1 4.300000e-01    4.595000e+00
   SN5  SQ5n  1 4.100000e-01    5.982000e+00
   SN5  TQ5n  1 3.650000e-01    7.889000e+00
   SN4   Q5n  1 4.300000e-01    4.586000e+00
   SN4  SQ5n  1 4.100000e-01    5.936000e+00
   SN4  TQ5n  1 3.650000e-01    7.793000e+00
   SN3   Q5n  1 4.300000e-01    4.375000e+00
   SN3  SQ5n  1 4.100000e-01    5.609000e+00
   SN3  TQ5n  1 3.650000e-01    7.403000e+00
   SN2   Q5n  1 4.300000e-01    4.360000e+00
   SN2  SQ5n  1 4.100000e-01    5.532000e+00
   SN2  TQ5n  1 3.650000e-01    7.244000e+00
   SN1   Q5n  1 4.300000e-01    4.139000e+00
   SN1  SQ5n  1 4.100000e-01    5.183000e+00
   SN1  TQ5n  1 3.650000e-01    6.746000e+00
   SC6   Q5n  1 4.300000e-01    2.864000e+00
   SC6  SQ5n  1 4.100000e-01    3.739000e+00
   SC6  TQ5n  1 3.660000e-01    5.141000e+00
   SC5   Q5n  1 4.300000e-01    2.037000e+00
   SC5  SQ5n  1 4.180000e-01    2.932000e+00
   SC5  TQ5n  1 4.090000e-01    3.994000e+00
   SC4   Q5n  1 4.430000e-01    1.740000e+00
   SC4  SQ5n  1 4.210000e-01    2.574000e+00
   SC4  TQ5n  1 4.230000e-01    3.433000e+00
   SC3   Q5n  1 4.730000e-01    1.463000e+00
   SC3  SQ5n  1 4.530000e-01    2.078000e+00
   SC3  TQ5n  1 4.840000e-01    2.506000e+00
   SC2   Q5n  1 5.520000e-01    1.126000e+00
   SC2  SQ5n  1 5.350000e-01    1.568000e+00
   SC2  TQ5n  1 5.880000e-01    1.749000e+00
   SC1   Q5n  1 5.520000e-01    1.066000e+00
   SC1  SQ5n  1 5.350000e-01    1.264000e+00
   SC1  TQ5n  1 5.880000e-01    1.233000e+00
   SX4   Q5n  1 4.300000e-01    2.674000e+00
   SX4  SQ5n  1 4.100000e-01    3.708000e+00
   SX4  TQ5n  1 3.780000e-01    5.079000e+00
   SX3   Q5n  1 4.300000e-01    2.494000e+00
   SX3  SQ5n  1 4.100000e-01    3.449000e+00
   SX3  TQ5n  1 3.940000e-01    4.580000e+00
   SX2   Q5n  1 4.300000e-01    2.220000e+00
   SX2  SQ5n  1 4.140000e-01    3.018000e+00
   SX2  TQ5n  1 4.040000e-01    3.909000e+00
   SX1   Q5n  1 4.300000e-01    1.932000e+00
   SX1  SQ5n  1 4.180000e-01    2.406000e+00
   SX1  TQ5n  1 4.090000e-01    2.993000e+00
  SP6d   Q5n  1 4.300000e-01    5.706000e+00
  SP6d  SQ5n  1 4.100000e-01    7.653000e+00
  SP6d  TQ5n  1 3.650000e-01    1.013400e+01
  SP5d   Q5n  1 4.300000e-01    5.401000e+00
  SP5d  SQ5n  1 4.100000e-01    7.283000e+00
  SP5d  TQ5n  1 3.650000e-01    9.617000e+00
  SP4d   Q5n  1 4.300000e-01    5.383000e+00
  SP4d  SQ5n  1 4.100000e-01    7.193000e+00
  SP4d  TQ5n  1 3.650000e-01    9.429000e+00
  SP3d   Q5n  1 4.300000e-01    5.132000e+00
  SP3d  SQ5n  1 4.100000e-01    6.849000e+00
  SP3d  TQ5n  1 3.650000e-01    9.026000e+00
  SP2d   Q5n  1 4.300000e-01    5.125000e+00
  SP2d  SQ5n  1 4.100000e-01    6.811000e+00
  SP2d  TQ5n  1 3.650000e-01    8.946000e+00
  SP1d   Q5n  1 4.300000e-01    4.839000e+00
  SP1d  SQ5n  1 4.100000e-01    6.522000e+00
  SP1d  TQ5n  1 3.650000e-01    8.596000e+00
  SN6d   Q5n  1 4.300000e-01    4.833000e+00
  SN6d  SQ5n  1 4.100000e-01    6.490000e+00
  SN6d  TQ5n  1 3.650000e-01    8.528000e+00
  SN5d   Q5n  1 4.300000e-01    4.595000e+00
  SN5d  SQ5n  1 4.100000e-01    6.202000e+00
  SN5d  TQ5n  1 3.650000e-01    8.159000e+00
  SN4d   Q5n  1 4.300000e-01    4.586000e+00
  SN4d  SQ5n  1 4.100000e-01    6.156000e+00
  SN4d  TQ5n  1 3.650000e-01    8.063000e+00
  SN3d   Q5n  1 4.300000e-01    4.375000e+00
  SN3d  SQ5n  1 4.100000e-01    5.879000e+00
  SN3d  TQ5n  1 3.650000e-01    7.673000e+00
  SN2d   Q5n  1 4.300000e-01    4.360000e+00
  SN2d  SQ5n  1 4.100000e-01    5.802000e+00
  SN2d  TQ5n  1 3.650000e-01    7.514000e+00
  SN1d   Q5n  1 4.300000e-01    4.139000e+00
  SN1d  SQ5n  1 4.100000e-01    5.423000e+00
  SN1d  TQ5n  1 3.650000e-01    7.016000e+00
  SP6a   Q5n  1 4.300000e-01    4.896000e+00
  SP6a  SQ5n  1 4.100000e-01    6.813000e+00
  SP6a  TQ5n  1 3.650000e-01    9.204000e+00
  SP5a   Q5n  1 4.300000e-01    4.651000e+00
  SP5a  SQ5n  1 4.100000e-01    6.483000e+00
  SP5a  TQ5n  1 3.650000e-01    8.747000e+00
  SP4a   Q5n  1 4.300000e-01    4.633000e+00
  SP4a  SQ5n  1 4.100000e-01    6.393000e+00
  SP4a  TQ5n  1 3.650000e-01    8.559000e+00
  SP3a   Q5n  1 4.300000e-01    4.422000e+00
  SP3a  SQ5n  1 4.100000e-01    6.119000e+00
  SP3a  TQ5n  1 3.650000e-01    8.176000e+00
  SP2a   Q5n  1 4.300000e-01    4.415000e+00
  SP2a  SQ5n  1 4.100000e-01    6.081000e+00
  SP2a  TQ5n  1 3.650000e-01    8.096000e+00
  SP1a   Q5n  1 4.300000e-01    4.209000e+00
  SP1a  SQ5n  1 4.100000e-01    5.782000e+00
  SP1a  TQ5n  1 3.650000e-01    7.766000e+00
  SN6a   Q5n  1 4.300000e-01    4.203000e+00
  SN6a  SQ5n  1 4.100000e-01    5.750000e+00
  SN6a  TQ5n  1 3.650000e-01    7.698000e+00
  SN5a   Q5n  1 4.300000e-01    4.015000e+00
  SN5a  SQ5n  1 4.100000e-01    5.472000e+00
  SN5a  TQ5n  1 3.650000e-01    7.349000e+00
  SN4a   Q5n  1 4.300000e-01    4.006000e+00
  SN4a  SQ5n  1 4.100000e-01    5.426000e+00
  SN4a  TQ5n  1 3.650000e-01    7.253000e+00
  SN3a   Q5n  1 4.300000e-01    3.785000e+00
  SN3a  SQ5n  1 4.100000e-01    5.129000e+00
  SN3a  TQ5n  1 3.650000e-01    6.873000e+00
  SN2a   Q5n  1 4.300000e-01    3.770000e+00
  SN2a  SQ5n  1 4.100000e-01    5.052000e+00
  SN2a  TQ5n  1 3.650000e-01    6.714000e+00
  SN1a   Q5n  1 4.300000e-01    3.529000e+00
  SN1a  SQ5n  1 4.100000e-01    4.713000e+00
  SN1a  TQ5n  1 3.650000e-01    6.256000e+00
  SC6v   Q5n  1 4.300000e-01    3.254000e+00
  SC6v  SQ5n  1 4.100000e-01    4.049000e+00
  SC6v  TQ5n  1 3.650000e-01    5.461000e+00
  SC5v   Q5n  1 4.300000e-01    2.237000e+00
  SC5v  SQ5n  1 4.100000e-01    3.312000e+00
  SC5v  TQ5n  1 3.940000e-01    4.315000e+00
  SC4v   Q5n  1 4.300000e-01    1.997000e+00
  SC4v  SQ5n  1 4.140000e-01    2.906000e+00
  SC4v  TQ5n  1 4.040000e-01    3.698000e+00
  SC3v   Q5n  1 4.430000e-01    1.676000e+00
  SC3v  SQ5n  1 4.180000e-01    2.406000e+00
  SC3v  TQ5n  1 4.090000e-01    2.993000e+00
  SC2v   Q5n  1 5.080000e-01    1.237000e+00
  SC2v  SQ5n  1 4.530000e-01    1.838000e+00
  SC2v  TQ5n  1 4.840000e-01    2.087000e+00
  SC1v   Q5n  1 5.080000e-01    1.170000e+00
  SC1v  SQ5n  1 4.530000e-01    1.478000e+00
  SC1v  TQ5n  1 4.840000e-01    1.461000e+00
  SX4v   Q5n  1 4.300000e-01    2.884000e+00
  SX4v  SQ5n  1 4.100000e-01    3.998000e+00
  SX4v  TQ5n  1 3.650000e-01    5.508000e+00
  SX3v   Q5n  1 4.300000e-01    2.654000e+00
  SX3v  SQ5n  1 4.100000e-01    3.739000e+00
  SX3v  TQ5n  1 3.660000e-01    5.141000e+00
  SX2v   Q5n  1 4.300000e-01    2.450000e+00
  SX2v  SQ5n  1 4.100000e-01    3.382000e+00
  SX2v  TQ5n  1 3.780000e-01    4.421000e+00
  SX1v   Q5n  1 4.300000e-01    2.132000e+00
  SX1v  SQ5n  1 4.100000e-01    2.775000e+00
  SX1v  TQ5n  1 3.940000e-01    3.276000e+00
  SC6e   Q5n  1 4.300000e-01    2.494000e+00
  SC6e  SQ5n  1 4.100000e-01    3.609000e+00
  SC6e  TQ5n  1 3.780000e-01    4.879000e+00
  SC5e   Q5n  1 4.730000e-01    1.559000e+00
  SC5e  SQ5n  1 4.210000e-01    2.771000e+00
  SC5e  TQ5n  1 4.230000e-01    3.798000e+00
  SC4e   Q5n  1 5.080000e-01    1.336000e+00
  SC4e  SQ5n  1 4.530000e-01    2.381000e+00
  SC4e  TQ5n  1 4.840000e-01    3.033000e+00
  SC3e   Q5n  1 5.140000e-01    1.279000e+00
  SC3e  SQ5n  1 4.960000e-01    1.898000e+00
  SC3e  TQ5n  1 5.370000e-01    2.265000e+00
  SC2e   Q5n  1 5.520000e-01    1.126000e+00
  SC2e  SQ5n  1 5.350000e-01    1.568000e+00
  SC2e  TQ5n  1 5.880000e-01    1.749000e+00
  SC1e   Q5n  1 5.520000e-01    1.066000e+00
  SC1e  SQ5n  1 5.350000e-01    1.264000e+00
  SC1e  TQ5n  1 5.880000e-01    1.233000e+00
  SX4e   Q5n  1 4.300000e-01    2.284000e+00
  SX4e  SQ5n  1 4.100000e-01    3.548000e+00
  SX4e  TQ5n  1 3.940000e-01    4.771000e+00
  SX3e   Q5n  1 4.300000e-01    2.064000e+00
  SX3e  SQ5n  1 4.140000e-01    3.242000e+00
  SX3e  TQ5n  1 4.040000e-01    4.338000e+00
  SX2e   Q5n  1 4.430000e-01    1.761000e+00
  SX2e  SQ5n  1 4.180000e-01    2.844000e+00
  SX2e  TQ5n  1 4.090000e-01    3.825000e+00
  SX1e   Q5n  1 4.730000e-01    1.463000e+00
  SX1e  SQ5n  1 4.210000e-01    2.249000e+00
  SX1e  TQ5n  1 4.230000e-01    2.831000e+00
  SP6q   Q5n  1 4.300000e-01    6.006000e+00
  SP6q  SQ5n  1 4.100000e-01    7.653000e+00
  SP6q  TQ5n  1 3.650000e-01    1.013400e+01
  SP5q   Q5n  1 4.300000e-01    5.991000e+00
  SP5q  SQ5n  1 4.100000e-01    7.573000e+00
  SP5q  TQ5n  1 3.650000e-01    9.967000e+00
  SP4q   Q5n  1 4.300000e-01    5.973000e+00
  SP4q  SQ5n  1 4.100000e-01    7.483000e+00
  SP4q  TQ5n  1 3.650000e-01    9.779000e+00
  SP3q   Q5n  1 4.300000e-01    5.962000e+00
  SP3q  SQ5n  1 4.100000e-01    7.429000e+00
  SP3q  TQ5n  1 3.650000e-01    9.666000e+00
  SP2q   Q5n  1 4.300000e-01    5.955000e+00
  SP2q  SQ5n  1 4.100000e-01    7.391000e+00
  SP2q  TQ5n  1 3.650000e-01    9.586000e+00
  SP1q   Q5n  1 4.300000e-01    5.649000e+00
  SP1q  SQ5n  1 4.100000e-01    7.072000e+00
  SP1q  TQ5n  1 3.650000e-01    9.176000e+00
  SN6q   Q5n  1 4.300000e-01    5.643000e+00
  SN6q  SQ5n  1 4.100000e-01    7.040000e+00
  SN6q  TQ5n  1 3.650000e-01    9.108000e+00
  SN5q   Q5n  1 4.300000e-01    5.345000e+00
  SN5q  SQ5n  1 4.100000e-01    6.712000e+00
  SN5q  TQ5n  1 3.650000e-01    8.739000e+00
  SN4q   Q5n  1 4.300000e-01    5.336000e+00
  SN4q  SQ5n  1 4.100000e-01    6.666000e+00
  SN4q  TQ5n  1 3.650000e-01    8.643000e+00
  SN3q   Q5n  1 4.300000e-01    5.085000e+00
  SN3q  SQ5n  1 4.100000e-01    6.349000e+00
  SN3q  TQ5n  1 3.650000e-01    8.233000e+00
  SN2q   Q5n  1 4.300000e-01    5.070000e+00
  SN2q  SQ5n  1 4.100000e-01    6.272000e+00
  SN2q  TQ5n  1 3.650000e-01    8.074000e+00
  SN1q   Q5n  1 4.300000e-01    4.769000e+00
  SN1q  SQ5n  1 4.100000e-01    5.913000e+00
  SN1q  TQ5n  1 3.650000e-01    7.556000e+00
  SC6q   Q5n  1 4.300000e-01    3.494000e+00
  SC6q  SQ5n  1 4.100000e-01    4.299000e+00
  SC6q  TQ5n  1 3.650000e-01    5.661000e+00
  SC5q   Q5n  1 4.300000e-01    2.627000e+00
  SC5q  SQ5n  1 4.100000e-01    3.472000e+00
  SC5q  TQ5n  1 3.780000e-01    4.603000e+00
  SC4q   Q5n  1 4.300000e-01    2.427000e+00
  SC4q  SQ5n  1 4.100000e-01    3.110000e+00
  SC4q  TQ5n  1 3.940000e-01    3.923000e+00
  SC3q   Q5n  1 4.300000e-01    2.132000e+00
  SC3q  SQ5n  1 4.140000e-01    2.576000e+00
  SC3q  TQ5n  1 4.040000e-01    3.067000e+00
  SC2q   Q5n  1 4.430000e-01    1.625000e+00
  SC2q  SQ5n  1 4.210000e-01    1.990000e+00
  SC2q  TQ5n  1 4.230000e-01    2.351000e+00
  SC1q   Q5n  1 4.430000e-01    1.549000e+00
  SC1q  SQ5n  1 4.210000e-01    1.603000e+00
  SC1q  TQ5n  1 4.230000e-01    1.634000e+00
  SX4q   Q5n  1 4.300000e-01    3.274000e+00
  SX4q  SQ5n  1 4.100000e-01    4.148000e+00
  SX4q  TQ5n  1 3.650000e-01    5.668000e+00
  SX3q   Q5n  1 4.300000e-01    3.104000e+00
  SX3q  SQ5n  1 4.100000e-01    3.899000e+00
  SX3q  TQ5n  1 3.650000e-01    5.301000e+00
  SX2q   Q5n  1 4.300000e-01    2.820000e+00
  SX2q  SQ5n  1 4.100000e-01    3.512000e+00
  SX2q  TQ5n  1 3.660000e-01    4.668000e+00
  SX1q   Q5n  1 4.300000e-01    2.522000e+00
  SX1q  SQ5n  1 4.100000e-01    2.935000e+00
  SX1q  TQ5n  1 3.780000e-01    3.520000e+00
 SP6dq   Q5n  1 4.300000e-01    5.706000e+00
 SP6dq  SQ5n  1 4.100000e-01    7.653000e+00
 SP6dq  TQ5n  1 3.650000e-01    1.013400e+01
 SP5dq   Q5n  1 4.300000e-01    5.691000e+00
 SP5dq  SQ5n  1 4.100000e-01    7.573000e+00
 SP5dq  TQ5n  1 3.650000e-01    9.967000e+00
 SP4dq   Q5n  1 4.300000e-01    5.673000e+00
 SP4dq  SQ5n  1 4.100000e-01    7.483000e+00
 SP4dq  TQ5n  1 3.650000e-01    9.779000e+00
 SP3dq   Q5n  1 4.300000e-01    5.662000e+00
 SP3dq  SQ5n  1 4.100000e-01    7.429000e+00
 SP3dq  TQ5n  1 3.650000e-01    9.666000e+00
 SP2dq   Q5n  1 4.300000e-01    5.655000e+00
 SP2dq  SQ5n  1 4.100000e-01    7.391000e+00
 SP2dq  TQ5n  1 3.650000e-01    9.586000e+00
 SP1dq   Q5n  1 4.300000e-01    5.649000e+00
 SP1dq  SQ5n  1 4.100000e-01    7.362000e+00
 SP1dq  TQ5n  1 3.650000e-01    9.526000e+00
 SN6dq   Q5n  1 4.300000e-01    5.643000e+00
 SN6dq  SQ5n  1 4.100000e-01    7.330000e+00
 SN6dq  TQ5n  1 3.650000e-01    9.458000e+00
 SN5dq   Q5n  1 4.300000e-01    5.345000e+00
 SN5dq  SQ5n  1 4.100000e-01    7.002000e+00
 SN5dq  TQ5n  1 3.650000e-01    9.029000e+00
 SN4dq   Q5n  1 4.300000e-01    5.336000e+00
 SN4dq  SQ5n  1 4.100000e-01    6.956000e+00
 SN4dq  TQ5n  1 3.650000e-01    8.933000e+00
 SN3dq   Q5n  1 4.300000e-01    5.085000e+00
 SN3dq  SQ5n  1 4.100000e-01    6.609000e+00
 SN3dq  TQ5n  1 3.650000e-01    8.523000e+00
 SN2dq   Q5n  1 4.300000e-01    5.070000e+00
 SN2dq  SQ5n  1 4.100000e-01    6.532000e+00
 SN2dq  TQ5n  1 3.650000e-01    8.364000e+00
 SN1dq   Q5n  1 4.300000e-01    4.769000e+00
 SN1dq  SQ5n  1 4.100000e-01    6.163000e+00
 SN1dq  TQ5n  1 3.650000e-01    7.846000e+00
 SP6aq   Q5n  1 4.300000e-01    5.706000e+00
 SP6aq  SQ5n  1 4.100000e-01    7.653000e+00
 SP6aq  TQ5n  1 3.650000e-01    1.013400e+01
 SP5aq   Q5n  1 4.300000e-01    5.401000e+00
 SP5aq  SQ5n  1 4.100000e-01    7.283000e+00
 SP5aq  TQ5n  1 3.650000e-01    9.617000e+00
 SP4aq   Q5n  1 4.300000e-01    5.383000e+00
 SP4aq  SQ5n  1 4.100000e-01    7.193000e+00
 SP4aq  TQ5n  1 3.650000e-01    9.429000e+00
 SP3aq   Q5n  1 4.300000e-01    5.132000e+00
 SP3aq  SQ5n  1 4.100000e-01    6.849000e+00
 SP3aq  TQ5n  1 3.650000e-01    9.026000e+00
 SP2aq   Q5n  1 4.300000e-01    5.125000e+00
 SP2aq  SQ5n  1 4.100000e-01    6.811000e+00
 SP2aq  TQ5n  1 3.650000e-01    8.946000e+00
 SP1aq   Q5n  1 4.300000e-01    4.839000e+00
 SP1aq  SQ5n  1 4.100000e-01    6.522000e+00
 SP1aq  TQ5n  1 3.650000e-01    8.596000e+00
 SN6aq   Q5n  1 4.300000e-01    4.833000e+00
 SN6aq  SQ5n  1 4.100000e-01    6.490000e+00
 SN6aq  TQ5n  1 3.650000e-01    8.528000e+00
 SN5aq   Q5n  1 4.300000e-01    4.595000e+00
 SN5aq  SQ5n  1 4.100000e-01    6.202000e+00
 SN5aq  TQ5n  1 3.650000e-01    8.159000e+00
 SN4aq   Q5n  1 4.300000e-01    4.586000e+00
 SN4aq  SQ5n  1 4.100000e-01    6.156000e+00
 SN4aq  TQ5n  1 3.650000e-01    8.063000e+00
 SN3aq   Q5n  1 4.300000e-01    4.375000e+00
 SN3aq  SQ5n  1 4.100000e-01    5.879000e+00
 SN3aq  TQ5n  1 3.650000e-01    7.673000e+00
 SN2aq   Q5n  1 4.300000e-01    4.360000e+00
 SN2aq  SQ5n  1 4.100000e-01    5.802000e+00
 SN2aq  TQ5n  1 3.650000e-01    7.514000e+00
 SN1aq   Q5n  1 4.300000e-01    4.139000e+00
 SN1aq  SQ5n  1 4.100000e-01    5.423000e+00
 SN1aq  TQ5n  1 3.650000e-01    7.016000e+00
 SC6vq   Q5n  1 4.300000e-01    3.714000e+00
 SC6vq  SQ5n  1 4.100000e-01    4.769000e+00
 SC6vq  TQ5n  1 3.650000e-01    6.121000e+00
 SC5vq   Q5n  1 4.300000e-01    2.837000e+00
 SC5vq  SQ5n  1 4.100000e-01    3.762000e+00
 SC5vq  TQ5n  1 3.650000e-01    5.015000e+00
 SC4vq   Q5n  1 4.300000e-01    2.587000e+00
 SC4vq  SQ5n  1 4.100000e-01    3.400000e+00
 SC4vq  TQ5n  1 3.660000e-01    4.434000e+00
 SC3vq   Q5n  1 4.300000e-01    2.362000e+00
 SC3vq  SQ5n  1 4.100000e-01    2.935000e+00
 SC3vq  TQ5n  1 3.780000e-01    3.520000e+00
 SC2vq   Q5n  1 5.080000e-01    1.237000e+00
 SC2vq  SQ5n  1 4.530000e-01    1.838000e+00
 SC2vq  TQ5n  1 4.840000e-01    2.087000e+00
 SC1vq   Q5n  1 5.080000e-01    1.170000e+00
 SC1vq  SQ5n  1 4.530000e-01    1.478000e+00
 SC1vq  TQ5n  1 4.840000e-01    1.461000e+00
 SX4vq   Q5n  1 4.300000e-01    3.514000e+00
 SX4vq  SQ5n  1 4.100000e-01    4.638000e+00
 SX4vq  TQ5n  1 3.650000e-01    6.098000e+00
 SX3vq   Q5n  1 4.300000e-01    3.264000e+00
 SX3vq  SQ5n  1 4.100000e-01    4.299000e+00
 SX3vq  TQ5n  1 3.650000e-01    5.661000e+00
 SX2vq   Q5n  1 4.300000e-01    3.210000e+00
 SX2vq  SQ5n  1 4.100000e-01    3.822000e+00
 SX2vq  TQ5n  1 3.650000e-01    4.986000e+00
 SX1vq   Q5n  1 4.300000e-01    2.732000e+00
 SX1vq  SQ5n  1 4.100000e-01    3.225000e+00
 SX1vq  TQ5n  1 3.650000e-01    3.893000e+00
 SC6eq   Q5n  1 4.300000e-01    3.254000e+00
 SC6eq  SQ5n  1 4.100000e-01    4.049000e+00
 SC6eq  TQ5n  1 3.650000e-01    5.461000e+00
 SC5eq   Q5n  1 4.300000e-01    2.237000e+00
 SC5eq  SQ5n  1 4.100000e-01    3.312000e+00
 SC5eq  TQ5n  1 3.940000e-01    4.315000e+00
 SC4eq   Q5n  1 4.300000e-01    1.997000e+00
 SC4eq  SQ5n  1 4.140000e-01    2.906000e+00
 SC4eq  TQ5n  1 4.040000e-01    3.698000e+00
 SC3eq   Q5n  1 4.430000e-01    1.676000e+00
 SC3eq  SQ5n  1 4.180000e-01    2.406000e+00
 SC3eq  TQ5n  1 4.090000e-01    2.993000e+00
 SC2eq   Q5n  1 4.730000e-01    1.416000e+00
 SC2eq  SQ5n  1 4.210000e-01    1.990000e+00
 SC2eq  TQ5n  1 4.230000e-01    2.351000e+00
 SC1eq   Q5n  1 4.730000e-01    1.345000e+00
 SC1eq  SQ5n  1 4.210000e-01    1.603000e+00
 SC1eq  TQ5n  1 4.230000e-01    1.634000e+00
 SX4eq   Q5n  1 4.300000e-01    2.884000e+00
 SX4eq  SQ5n  1 4.100000e-01    3.998000e+00
 SX4eq  TQ5n  1 3.650000e-01    5.508000e+00
 SX3eq   Q5n  1 4.300000e-01    2.654000e+00
 SX3eq  SQ5n  1 4.100000e-01    3.739000e+00
 SX3eq  TQ5n  1 3.660000e-01    5.141000e+00
 SX2eq   Q5n  1 4.300000e-01    2.450000e+00
 SX2eq  SQ5n  1 4.100000e-01    3.382000e+00
 SX2eq  TQ5n  1 3.780000e-01    4.421000e+00
 SX1eq   Q5n  1 4.300000e-01    2.132000e+00
 SX1eq  SQ5n  1 4.100000e-01    2.775000e+00
 SX1eq  TQ5n  1 3.940000e-01    3.276000e+00
  SP6h   Q5n  1 4.300000e-01    5.706000e+00
  SP6h  SQ5n  1 4.100000e-01    7.363000e+00
  SP6h  TQ5n  1 3.650000e-01    9.784000e+00
  SP5h   Q5n  1 4.300000e-01    5.401000e+00
  SP5h  SQ5n  1 4.100000e-01    6.993000e+00
  SP5h  TQ5n  1 3.650000e-01    9.327000e+00
  SP4h   Q5n  1 4.300000e-01    5.383000e+00
  SP4h  SQ5n  1 4.100000e-01    6.903000e+00
  SP4h  TQ5n  1 3.650000e-01    9.139000e+00
  SP3h   Q5n  1 4.300000e-01    5.132000e+00
  SP3h  SQ5n  1 4.100000e-01    6.589000e+00
  SP3h  TQ5n  1 3.650000e-01    8.736000e+00
  SP2h   Q5n  1 4.300000e-01    5.125000e+00
  SP2h  SQ5n  1 4.100000e-01    6.551000e+00
  SP2h  TQ5n  1 3.650000e-01    8.656000e+00
  SP1h   Q5n  1 4.300000e-01    4.839000e+00
  SP1h  SQ5n  1 4.100000e-01    6.272000e+00
  SP1h  TQ5n  1 3.650000e-01    8.306000e+00
  SN6h   Q5n  1 4.300000e-01    4.833000e+00
  SN6h  SQ5n  1 4.100000e-01    6.240000e+00
  SN6h  TQ5n  1 3.650000e-01    8.238000e+00
  SN5h   Q5n  1 4.300000e-01    4.595000e+00
  SN5h  SQ5n  1 4.100000e-01    5.982000e+00
  SN5h  TQ5n  1 3.650000e-01    7.889000e+00
  SN4h   Q5n  1 4.300000e-01    4.586000e+00
  SN4h  SQ5n  1 4.100000e-01    5.936000e+00
  SN4h  TQ5n  1 3.650000e-01    7.793000e+00
  SN3h   Q5n  1 4.300000e-01    4.375000e+00
  SN3h  SQ5n  1 4.100000e-01    5.609000e+00
  SN3h  TQ5n  1 3.650000e-01    7.403000e+00
  SN2h   Q5n  1 4.300000e-01    4.360000e+00
  SN2h  SQ5n  1 4.100000e-01    5.532000e+00
  SN2h  TQ5n  1 3.650000e-01    7.244000e+00
  SN1h   Q5n  1 4.300000e-01    4.139000e+00
  SN1h  SQ5n  1 4.100000e-01    5.183000e+00
  SN1h  TQ5n  1 3.650000e-01    6.746000e+00
  SC6h   Q5n  1 4.300000e-01    2.864000e+00
  SC6h  SQ5n  1 4.100000e-01    3.739000e+00
  SC6h  TQ5n  1 3.660000e-01    5.141000e+00
  SC5h   Q5n  1 4.300000e-01    2.037000e+00
  SC5h  SQ5n  1 4.180000e-01    2.932000e+00
  SC5h  TQ5n  1 4.090000e-01    3.994000e+00
  SC4h   Q5n  1 4.430000e-01    1.740000e+00
  SC4h  SQ5n  1 4.210000e-01    2.574000e+00
  SC4h  TQ5n  1 4.230000e-01    3.433000e+00
  SC3h   Q5n  1 4.730000e-01    1.463000e+00
  SC3h  SQ5n  1 4.530000e-01    2.078000e+00
  SC3h  TQ5n  1 4.840000e-01    2.506000e+00
  SC2h   Q5n  1 5.520000e-01    1.126000e+00
  SC2h  SQ5n  1 5.350000e-01    1.568000e+00
  SC2h  TQ5n  1 5.880000e-01    1.749000e+00
  SC1h   Q5n  1 5.520000e-01    1.066000e+00
  SC1h  SQ5n  1 5.350000e-01    1.264000e+00
  SC1h  TQ5n  1 5.880000e-01    1.233000e+00
  SX4h   Q5n  1 4.300000e-01    2.674000e+00
  SX4h  SQ5n  1 4.100000e-01    3.708000e+00
  SX4h  TQ5n  1 3.780000e-01    5.079000e+00
  SX3h   Q5n  1 4.300000e-01    2.494000e+00
  SX3h  SQ5n  1 4.100000e-01    3.449000e+00
  SX3h  TQ5n  1 3.940000e-01    4.580000e+00
  SX2h   Q5n  1 4.300000e-01    2.220000e+00
  SX2h  SQ5n  1 4.140000e-01    3.018000e+00
  SX2h  TQ5n  1 4.040000e-01    3.909000e+00
  SX1h   Q5n  1 4.300000e-01    1.932000e+00
  SX1h  SQ5n  1 4.180000e-01    2.406000e+00
  SX1h  TQ5n  1 4.090000e-01    2.993000e+00
 SP6dh   Q5n  1 4.300000e-01    5.706000e+00
 SP6dh  SQ5n  1 4.100000e-01    7.653000e+00
 SP6dh  TQ5n  1 3.650000e-01    1.013400e+01
 SP5dh   Q5n  1 4.300000e-01    5.401000e+00
 SP5dh  SQ5n  1 4.100000e-01    7.283000e+00
 SP5dh  TQ5n  1 3.650000e-01    9.617000e+00
 SP4dh   Q5n  1 4.300000e-01    5.383000e+00
 SP4dh  SQ5n  1 4.100000e-01    7.193000e+00
 SP4dh  TQ5n  1 3.650000e-01    9.429000e+00
 SP3dh   Q5n  1 4.300000e-01    5.132000e+00
 SP3dh  SQ5n  1 4.100000e-01    6.849000e+00
 SP3dh  TQ5n  1 3.650000e-01    9.026000e+00
 SP2dh   Q5n  1 4.300000e-01    5.125000e+00
 SP2dh  SQ5n  1 4.100000e-01    6.811000e+00
 SP2dh  TQ5n  1 3.650000e-01    8.946000e+00
 SP1dh   Q5n  1 4.300000e-01    4.839000e+00
 SP1dh  SQ5n  1 4.100000e-01    6.522000e+00
 SP1dh  TQ5n  1 3.650000e-01    8.596000e+00
 SN6dh   Q5n  1 4.300000e-01    4.833000e+00
 SN6dh  SQ5n  1 4.100000e-01    6.490000e+00
 SN6dh  TQ5n  1 3.650000e-01    8.528000e+00
 SN5dh   Q5n  1 4.300000e-01    4.595000e+00
 SN5dh  SQ5n  1 4.100000e-01    6.202000e+00
 SN5dh  TQ5n  1 3.650000e-01    8.159000e+00
 SN4dh   Q5n  1 4.300000e-01    4.586000e+00
 SN4dh  SQ5n  1 4.100000e-01    6.156000e+00
 SN4dh  TQ5n  1 3.650000e-01    8.063000e+00
 SN3dh   Q5n  1 4.300000e-01    4.375000e+00
 SN3dh  SQ5n  1 4.100000e-01    5.879000e+00
 SN3dh  TQ5n  1 3.650000e-01    7.673000e+00
 SN2dh   Q5n  1 4.300000e-01    4.360000e+00
 SN2dh  SQ5n  1 4.100000e-01    5.802000e+00
 SN2dh  TQ5n  1 3.650000e-01    7.514000e+00
 SN1dh   Q5n  1 4.300000e-01    4.139000e+00
 SN1dh  SQ5n  1 4.100000e-01    5.423000e+00
 SN1dh  TQ5n  1 3.650000e-01    7.016000e+00
 SP6ah   Q5n  1 4.300000e-01    4.896000e+00
 SP6ah  SQ5n  1 4.100000e-01    6.813000e+00
 SP6ah  TQ5n  1 3.650000e-01    9.204000e+00
 SP5ah   Q5n  1 4.300000e-01    4.651000e+00
 SP5ah  SQ5n  1 4.100000e-01    6.483000e+00
 SP5ah  TQ5n  1 3.650000e-01    8.747000e+00
 SP4ah   Q5n  1 4.300000e-01    4.633000e+00
 SP4ah  SQ5n  1 4.100000e-01    6.393000e+00
 SP4ah  TQ5n  1 3.650000e-01    8.559000e+00
 SP3ah   Q5n  1 4.300000e-01    4.422000e+00
 SP3ah  SQ5n  1 4.100000e-01    6.119000e+00
 SP3ah  TQ5n  1 3.650000e-01    8.176000e+00
 SP2ah   Q5n  1 4.300000e-01    4.415000e+00
 SP2ah  SQ5n  1 4.100000e-01    6.081000e+00
 SP2ah  TQ5n  1 3.650000e-01    8.096000e+00
 SP1ah   Q5n  1 4.300000e-01    4.209000e+00
 SP1ah  SQ5n  1 4.100000e-01    5.782000e+00
 SP1ah  TQ5n  1 3.650000e-01    7.766000e+00
 SN6ah   Q5n  1 4.300000e-01    4.203000e+00
 SN6ah  SQ5n  1 4.100000e-01    5.750000e+00
 SN6ah  TQ5n  1 3.650000e-01    7.698000e+00
 SN5ah   Q5n  1 4.300000e-01    4.015000e+00
 SN5ah  SQ5n  1 4.100000e-01    5.472000e+00
 SN5ah  TQ5n  1 3.650000e-01    7.349000e+00
 SN4ah   Q5n  1 4.300000e-01    4.006000e+00
 SN4ah  SQ5n  1 4.100000e-01    5.426000e+00
 SN4ah  TQ5n  1 3.650000e-01    7.253000e+00
 SN3ah   Q5n  1 4.300000e-01    3.785000e+00
 SN3ah  SQ5n  1 4.100000e-01    5.129000e+00
 SN3ah  TQ5n  1 3.650000e-01    6.873000e+00
 SN2ah   Q5n  1 4.300000e-01    3.770000e+00
 SN2ah  SQ5n  1 4.100000e-01    5.052000e+00
 SN2ah  TQ5n  1 3.650000e-01    6.714000e+00
 SN1ah   Q5n  1 4.300000e-01    3.529000e+00
 SN1ah  SQ5n  1 4.100000e-01    4.713000e+00
 SN1ah  TQ5n  1 3.650000e-01    6.256000e+00
 SC6vh   Q5n  1 4.300000e-01    3.254000e+00
 SC6vh  SQ5n  1 4.100000e-01    4.049000e+00
 SC6vh  TQ5n  1 3.650000e-01    5.461000e+00
 SC5vh   Q5n  1 4.300000e-01    2.237000e+00
 SC5vh  SQ5n  1 4.100000e-01    3.312000e+00
 SC5vh  TQ5n  1 3.940000e-01    4.315000e+00
 SC4vh   Q5n  1 4.300000e-01    1.997000e+00
 SC4vh  SQ5n  1 4.140000e-01    2.906000e+00
 SC4vh  TQ5n  1 4.040000e-01    3.698000e+00
 SC3vh   Q5n  1 4.430000e-01    1.676000e+00
 SC3vh  SQ5n  1 4.180000e-01    2.406000e+00
 SC3vh  TQ5n  1 4.090000e-01    2.993000e+00
 SC2vh   Q5n  1 5.080000e-01    1.237000e+00
 SC2vh  SQ5n  1 4.530000e-01    1.838000e+00
 SC2vh  TQ5n  1 4.840000e-01    2.087000e+00
 SC1vh   Q5n  1 5.080000e-01    1.170000e+00
 SC1vh  SQ5n  1 4.530000e-01    1.478000e+00
 SC1vh  TQ5n  1 4.840000e-01    1.461000e+00
 SX4vh   Q5n  1 4.300000e-01    2.884000e+00
 SX4vh  SQ5n  1 4.100000e-01    3.998000e+00
 SX4vh  TQ5n  1 3.650000e-01    5.508000e+00
 SX3vh   Q5n  1 4.300000e-01    2.654000e+00
 SX3vh  SQ5n  1 4.100000e-01    3.739000e+00
 SX3vh  TQ5n  1 3.660000e-01    5.141000e+00
 SX2vh   Q5n  1 4.300000e-01    2.450000e+00
 SX2vh  SQ5n  1 4.100000e-01    3.382000e+00
 SX2vh  TQ5n  1 3.780000e-01    4.421000e+00
 SX1vh   Q5n  1 4.300000e-01    2.132000e+00
 SX1vh  SQ5n  1 4.100000e-01    2.775000e+00
 SX1vh  TQ5n  1 3.940000e-01    3.276000e+00
 SC6eh   Q5n  1 4.300000e-01    2.494000e+00
 SC6eh  SQ5n  1 4.100000e-01    3.609000e+00
 SC6eh  TQ5n  1 3.780000e-01    4.879000e+00
 SC5eh   Q5n  1 4.730000e-01    1.559000e+00
 SC5eh  SQ5n  1 4.210000e-01    2.771000e+00
 SC5eh  TQ5n  1 4.230000e-01    3.798000e+00
 SC4eh   Q5n  1 5.080000e-01    1.336000e+00
 SC4eh  SQ5n  1 4.530000e-01    2.381000e+00
 SC4eh  TQ5n  1 4.840000e-01    3.033000e+00
 SC3eh   Q5n  1 5.140000e-01    1.279000e+00
 SC3eh  SQ5n  1 4.960000e-01    1.898000e+00
 SC3eh  TQ5n  1 5.370000e-01    2.265000e+00
 SC2eh   Q5n  1 5.520000e-01    1.126000e+00
 SC2eh  SQ5n  1 5.350000e-01    1.568000e+00
 SC2eh  TQ5n  1 5.880000e-01    1.749000e+00
 SC1eh   Q5n  1 5.520000e-01    1.066000e+00
 SC1eh  SQ5n  1 5.350000e-01    1.264000e+00
 SC1eh  TQ5n  1 5.880000e-01    1.233000e+00
 SX4eh   Q5n  1 4.300000e-01    2.284000e+00
 SX4eh  SQ5n  1 4.100000e-01    3.548000e+00
 SX4eh  TQ5n  1 3.940000e-01    4.771000e+00
 SX3eh   Q5n  1 4.300000e-01    2.064000e+00
 SX3eh  SQ5n  1 4.140000e-01    3.242000e+00
 SX3eh  TQ5n  1 4.040000e-01    4.338000e+00
 SX2eh   Q5n  1 4.430000e-01    1.761000e+00
 SX2eh  SQ5n  1 4.180000e-01    2.844000e+00
 SX2eh  TQ5n  1 4.090000e-01    3.825000e+00
 SX1eh   Q5n  1 4.730000e-01    1.463000e+00
 SX1eh  SQ5n  1 4.210000e-01    2.249000e+00
 SX1eh  TQ5n  1 4.230000e-01    2.831000e+00
  SP6r   Q5n  1 4.300000e-01    5.706000e+00
  SP6r  SQ5n  1 4.100000e-01    7.363000e+00
  SP6r  TQ5n  1 3.650000e-01    9.784000e+00
  SP5r   Q5n  1 4.300000e-01    5.401000e+00
  SP5r  SQ5n  1 4.100000e-01    6.993000e+00
  SP5r  TQ5n  1 3.650000e-01    9.327000e+00
  SP4r   Q5n  1 4.300000e-01    5.383000e+00
  SP4r  SQ5n  1 4.100000e-01    6.903000e+00
  SP4r  TQ5n  1 3.650000e-01    9.139000e+00
  SP3r   Q5n  1 4.300000e-01    5.132000e+00
  SP3r  SQ5n  1 4.100000e-01    6.589000e+00
  SP3r  TQ5n  1 3.650000e-01    8.736000e+00
  SP2r   Q5n  1 4.300000e-01    5.125000e+00
  SP2r  SQ5n  1 4.100000e-01    6.551000e+00
  SP2r  TQ5n  1 3.650000e-01    8.656000e+00
  SP1r   Q5n  1 4.300000e-01    4.839000e+00
  SP1r  SQ5n  1 4.100000e-01    6.272000e+00
  SP1r  TQ5n  1 3.650000e-01    8.306000e+00
  SN6r   Q5n  1 4.300000e-01    4.833000e+00
  SN6r  SQ5n  1 4.100000e-01    6.240000e+00
  SN6r  TQ5n  1 3.650000e-01    8.238000e+00
  SN5r   Q5n  1 4.300000e-01    4.595000e+00
  SN5r  SQ5n  1 4.100000e-01    5.982000e+00
  SN5r  TQ5n  1 3.650000e-01    7.889000e+00
  SN4r   Q5n  1 4.300000e-01    4.586000e+00
  SN4r  SQ5n  1 4.100000e-01    5.936000e+00
  SN4r  TQ5n  1 3.650000e-01    7.793000e+00
  SN3r   Q5n  1 4.300000e-01    4.375000e+00
  SN3r  SQ5n  1 4.100000e-01    5.609000e+00
  SN3r  TQ5n  1 3.650000e-01    7.403000e+00
  SN2r   Q5n  1 4.300000e-01    4.360000e+00
  SN2r  SQ5n  1 4.100000e-01    5.532000e+00
  SN2r  TQ5n  1 3.650000e-01    7.244000e+00
  SN1r   Q5n  1 4.300000e-01    4.139000e+00
  SN1r  SQ5n  1 4.100000e-01    5.183000e+00
  SN1r  TQ5n  1 3.650000e-01    6.746000e+00
  SC6r   Q5n  1 4.300000e-01    2.864000e+00
  SC6r  SQ5n  1 4.100000e-01    3.739000e+00
  SC6r  TQ5n  1 3.660000e-01    5.141000e+00
  SC5r   Q5n  1 4.300000e-01    2.037000e+00
  SC5r  SQ5n  1 4.180000e-01    2.932000e+00
  SC5r  TQ5n  1 4.090000e-01    3.994000e+00
  SC4r   Q5n  1 4.430000e-01    1.740000e+00
  SC4r  SQ5n  1 4.210000e-01    2.574000e+00
  SC4r  TQ5n  1 4.230000e-01    3.433000e+00
  SC3r   Q5n  1 4.730000e-01    1.463000e+00
  SC3r  SQ5n  1 4.530000e-01    2.078000e+00
  SC3r  TQ5n  1 4.840000e-01    2.506000e+00
  SC2r   Q5n  1 5.520000e-01    1.126000e+00
  SC2r  SQ5n  1 5.350000e-01    1.568000e+00
  SC2r  TQ5n  1 5.880000e-01    1.749000e+00
  SC1r   Q5n  1 5.520000e-01    1.066000e+00
  SC1r  SQ5n  1 5.350000e-01    1.264000e+00
  SC1r  TQ5n  1 5.880000e-01    1.233000e+00
  SX4r   Q5n  1 4.300000e-01    2.674000e+00
  SX4r  SQ5n  1 4.100000e-01    3.708000e+00
  SX4r  TQ5n  1 3.780000e-01    5.079000e+00
  SX3r   Q5n  1 4.300000e-01    2.494000e+00
  SX3r  SQ5n  1 4.100000e-01    3.449000e+00
  SX3r  TQ5n  1 3.940000e-01    4.580000e+00
  SX2r   Q5n  1 4.300000e-01    2.220000e+00
  SX2r  SQ5n  1 4.140000e-01    3.018000e+00
  SX2r  TQ5n  1 4.040000e-01    3.909000e+00
  SX1r   Q5n  1 4.300000e-01    1.932000e+00
  SX1r  SQ5n  1 4.180000e-01    2.406000e+00
  SX1r  TQ5n  1 4.090000e-01    2.993000e+00
 SP6dr   Q5n  1 4.300000e-01    5.706000e+00
 SP6dr  SQ5n  1 4.100000e-01    7.653000e+00
 SP6dr  TQ5n  1 3.650000e-01    1.013400e+01
 SP5dr   Q5n  1 4.300000e-01    5.401000e+00
 SP5dr  SQ5n  1 4.100000e-01    7.283000e+00
 SP5dr  TQ5n  1 3.650000e-01    9.617000e+00
 SP4dr   Q5n  1 4.300000e-01    5.383000e+00
 SP4dr  SQ5n  1 4.100000e-01    7.193000e+00
 SP4dr  TQ5n  1 3.650000e-01    9.429000e+00
 SP3dr   Q5n  1 4.300000e-01    5.132000e+00
 SP3dr  SQ5n  1 4.100000e-01    6.849000e+00
 SP3dr  TQ5n  1 3.650000e-01    9.026000e+00
 SP2dr   Q5n  1 4.300000e-01    5.125000e+00
 SP2dr  SQ5n  1 4.100000e-01    6.811000e+00
 SP2dr  TQ5n  1 3.650000e-01    8.946000e+00
 SP1dr   Q5n  1 4.300000e-01    4.839000e+00
 SP1dr  SQ5n  1 4.100000e-01    6.522000e+00
 SP1dr  TQ5n  1 3.650000e-01    8.596000e+00
 SN6dr   Q5n  1 4.300000e-01    4.833000e+00
 SN6dr  SQ5n  1 4.100000e-01    6.490000e+00
 SN6dr  TQ5n  1 3.650000e-01    8.528000e+00
 SN5dr   Q5n  1 4.300000e-01    4.595000e+00
 SN5dr  SQ5n  1 4.100000e-01    6.202000e+00
 SN5dr  TQ5n  1 3.650000e-01    8.159000e+00
 SN4dr   Q5n  1 4.300000e-01    4.586000e+00
 SN4dr  SQ5n  1 4.100000e-01    6.156000e+00
 SN4dr  TQ5n  1 3.650000e-01    8.063000e+00
 SN3dr   Q5n  1 4.300000e-01    4.375000e+00
 SN3dr  SQ5n  1 4.100000e-01    5.879000e+00
 SN3dr  TQ5n  1 3.650000e-01    7.673000e+00
 SN2dr   Q5n  1 4.300000e-01    4.360000e+00
 SN2dr  SQ5n  1 4.100000e-01    5.802000e+00
 SN2dr  TQ5n  1 3.650000e-01    7.514000e+00
 SN1dr   Q5n  1 4.300000e-01    4.139000e+00
 SN1dr  SQ5n  1 4.100000e-01    5.423000e+00
 SN1dr  TQ5n  1 3.650000e-01    7.016000e+00
 SP6ar   Q5n  1 4.300000e-01    4.896000e+00
 SP6ar  SQ5n  1 4.100000e-01    6.813000e+00
 SP6ar  TQ5n  1 3.650000e-01    9.204000e+00
 SP5ar   Q5n  1 4.300000e-01    4.651000e+00
 SP5ar  SQ5n  1 4.100000e-01    6.483000e+00
 SP5ar  TQ5n  1 3.650000e-01    8.747000e+00
 SP4ar   Q5n  1 4.300000e-01    4.633000e+00
 SP4ar  SQ5n  1 4.100000e-01    6.393000e+00
 SP4ar  TQ5n  1 3.650000e-01    8.559000e+00
 SP3ar   Q5n  1 4.300000e-01    4.422000e+00
 SP3ar  SQ5n  1 4.100000e-01    6.119000e+00
 SP3ar  TQ5n  1 3.650000e-01    8.176000e+00
 SP2ar   Q5n  1 4.300000e-01    4.415000e+00
 SP2ar  SQ5n  1 4.100000e-01    6.081000e+00
 SP2ar  TQ5n  1 3.650000e-01    8.096000e+00
 SP1ar   Q5n  1 4.300000e-01    4.209000e+00
 SP1ar  SQ5n  1 4.100000e-01    5.782000e+00
 SP1ar  TQ5n  1 3.650000e-01    7.766000e+00
 SN6ar   Q5n  1 4.300000e-01    4.203000e+00
 SN6ar  SQ5n  1 4.100000e-01    5.750000e+00
 SN6ar  TQ5n  1 3.650000e-01    7.698000e+00
 SN5ar   Q5n  1 4.300000e-01    4.015000e+00
 SN5ar  SQ5n  1 4.100000e-01    5.472000e+00
 SN5ar  TQ5n  1 3.650000e-01    7.349000e+00
 SN4ar   Q5n  1 4.300000e-01    4.006000e+00
 SN4ar  SQ5n  1 4.100000e-01    5.426000e+00
 SN4ar  TQ5n  1 3.650000e-01    7.253000e+00
 SN3ar   Q5n  1 4.300000e-01    3.785000e+00
 SN3ar  SQ5n  1 4.100000e-01    5.129000e+00
 SN3ar  TQ5n  1 3.650000e-01    6.873000e+00
 SN2ar   Q5n  1 4.300000e-01    3.770000e+00
 SN2ar  SQ5n  1 4.100000e-01    5.052000e+00
 SN2ar  TQ5n  1 3.650000e-01    6.714000e+00
 SN1ar   Q5n  1 4.300000e-01    3.529000e+00
 SN1ar  SQ5n  1 4.100000e-01    4.713000e+00
 SN1ar  TQ5n  1 3.650000e-01    6.256000e+00
 SC6vr   Q5n  1 4.300000e-01    3.254000e+00
 SC6vr  SQ5n  1 4.100000e-01    4.049000e+00
 SC6vr  TQ5n  1 3.650000e-01    5.461000e+00
 SC5vr   Q5n  1 4.300000e-01    2.237000e+00
 SC5vr  SQ5n  1 4.100000e-01    3.312000e+00
 SC5vr  TQ5n  1 3.940000e-01    4.315000e+00
 SC4vr   Q5n  1 4.300000e-01    1.997000e+00
 SC4vr  SQ5n  1 4.140000e-01    2.906000e+00
 SC4vr  TQ5n  1 4.040000e-01    3.698000e+00
 SC3vr   Q5n  1 4.430000e-01    1.676000e+00
 SC3vr  SQ5n  1 4.180000e-01    2.406000e+00
 SC3vr  TQ5n  1 4.090000e-01    2.993000e+00
 SC2vr   Q5n  1 5.080000e-01    1.237000e+00
 SC2vr  SQ5n  1 4.530000e-01    1.838000e+00
 SC2vr  TQ5n  1 4.840000e-01    2.087000e+00
 SC1vr   Q5n  1 5.080000e-01    1.170000e+00
 SC1vr  SQ5n  1 4.530000e-01    1.478000e+00
 SC1vr  TQ5n  1 4.840000e-01    1.461000e+00
 SX4vr   Q5n  1 4.300000e-01    2.884000e+00
 SX4vr  SQ5n  1 4.100000e-01    3.998000e+00
 SX4vr  TQ5n  1 3.650000e-01    5.508000e+00
 SX3vr   Q5n  1 4.300000e-01    2.654000e+00
 SX3vr  SQ5n  1 4.100000e-01    3.739000e+00
 SX3vr  TQ5n  1 3.660000e-01    5.141000e+00
 SX2vr   Q5n  1 4.300000e-01    2.450000e+00
 SX2vr  SQ5n  1 4.100000e-01    3.382000e+00
 SX2vr  TQ5n  1 3.780000e-01    4.421000e+00
 SX1vr   Q5n  1 4.300000e-01    2.132000e+00
 SX1vr  SQ5n  1 4.100000e-01    2.775000e+00
 SX1vr  TQ5n  1 3.940000e-01    3.276000e+00
 SC6er   Q5n  1 4.300000e-01    2.494000e+00
 SC6er  SQ5n  1 4.100000e-01    3.609000e+00
 SC6er  TQ5n  1 3.780000e-01    4.879000e+00
 SC5er   Q5n  1 4.730000e-01    1.559000e+00
 SC5er  SQ5n  1 4.210000e-01    2.771000e+00
 SC5er  TQ5n  1 4.230000e-01    3.798000e+00
 SC4er   Q5n  1 5.080000e-01    1.336000e+00
 SC4er  SQ5n  1 4.530000e-01    2.381000e+00
 SC4er  TQ5n  1 4.840000e-01    3.033000e+00
 SC3er   Q5n  1 5.140000e-01    1.279000e+00
 SC3er  SQ5n  1 4.960000e-01    1.898000e+00
 SC3er  TQ5n  1 5.370000e-01    2.265000e+00
 SC2er   Q5n  1 5.520000e-01    1.126000e+00
 SC2er  SQ5n  1 5.350000e-01    1.568000e+00
 SC2er  TQ5n  1 5.880000e-01    1.749000e+00
 SC1er   Q5n  1 5.520000e-01    1.066000e+00
 SC1er  SQ5n  1 5.350000e-01    1.264000e+00
 SC1er  TQ5n  1 5.880000e-01    1.233000e+00
 SX4er   Q5n  1 4.300000e-01    2.284000e+00
 SX4er  SQ5n  1 4.100000e-01    3.548000e+00
 SX4er  TQ5n  1 3.940000e-01    4.771000e+00
 SX3er   Q5n  1 4.300000e-01    2.064000e+00
 SX3er  SQ5n  1 4.140000e-01    3.242000e+00
 SX3er  TQ5n  1 4.040000e-01    4.338000e+00
 SX2er   Q5n  1 4.430000e-01    1.761000e+00
 SX2er  SQ5n  1 4.180000e-01    2.844000e+00
 SX2er  TQ5n  1 4.090000e-01    3.825000e+00
 SX1er   Q5n  1 4.730000e-01    1.463000e+00
 SX1er  SQ5n  1 4.210000e-01    2.249000e+00
 SX1er  TQ5n  1 4.230000e-01    2.831000e+00
   TP6   Q5n  1 3.950000e-01    5.280000e+00
   TP6  SQ5n  1 3.650000e-01    6.758000e+00
   TP6  TQ5n  1 3.400000e-01    8.966000e+00
   TP5   Q5n  1 3.950000e-01    4.935000e+00
   TP5  SQ5n  1 3.650000e-01    6.388000e+00
   TP5  TQ5n  1 3.400000e-01    8.520000e+00
   TP4   Q5n  1 3.950000e-01    4.919000e+00
   TP4  SQ5n  1 3.650000e-01    6.298000e+00
   TP4  TQ5n  1 3.400000e-01    8.322000e+00
   TP3   Q5n  1 3.950000e-01    4.599000e+00
   TP3  SQ5n  1 3.650000e-01    5.955000e+00
   TP3  TQ5n  1 3.400000e-01    7.924000e+00
   TP2   Q5n  1 3.950000e-01    4.592000e+00
   TP2  SQ5n  1 3.650000e-01    5.917000e+00
   TP2  TQ5n  1 3.400000e-01    7.842000e+00
   TP1   Q5n  1 3.950000e-01    4.267000e+00
   TP1  SQ5n  1 3.650000e-01    5.599000e+00
   TP1  TQ5n  1 3.400000e-01    7.529000e+00
   TN6   Q5n  1 3.950000e-01    4.261000e+00
   TN6  SQ5n  1 3.650000e-01    5.566000e+00
   TN6  TQ5n  1 3.400000e-01    7.458000e+00
   TN5   Q5n  1 3.950000e-01    4.014000e+00
   TN5  SQ5n  1 3.650000e-01    5.259000e+00
   TN5  TQ5n  1 3.400000e-01    7.145000e+00
   TN4   Q5n  1 3.950000e-01    4.006000e+00
   TN4  SQ5n  1 3.650000e-01    5.214000e+00
   TN4  TQ5n  1 3.400000e-01    7.046000e+00
   TN3   Q5n  1 3.950000e-01    3.756000e+00
   TN3  SQ5n  1 3.650000e-01    4.887000e+00
   TN3  TQ5n  1 3.400000e-01    6.671000e+00
   TN2   Q5n  1 3.950000e-01    3.742000e+00
   TN2  SQ5n  1 3.650000e-01    4.812000e+00
   TN2  TQ5n  1 3.400000e-01    6.506000e+00
   TN1   Q5n  1 3.950000e-01    3.482000e+00
   TN1  SQ5n  1 3.650000e-01    4.434000e+00
   TN1  TQ5n  1 3.400000e-01    6.030000e+00
   TC6   Q5n  1 3.950000e-01    2.111000e+00
   TC6  SQ5n  1 3.660000e-01    3.028000e+00
   TC6  TQ5n  1 3.520000e-01    4.093000e+00
   TC5   Q5n  1 4.010000e-01    1.216000e+00
   TC5  SQ5n  1 4.090000e-01    2.238000e+00
   TC5  TQ5n  1 4.240000e-01    3.064000e+00
   TC4   Q5n  1 4.040000e-01    1.026000e+00
   TC4  SQ5n  1 4.230000e-01    1.928000e+00
   TC4  TQ5n  1 4.380000e-01    2.605000e+00
   TC3   Q5n  1 4.650000e-01    8.220000e-01
   TC3  SQ5n  1 4.840000e-01    1.469000e+00
   TC3  TQ5n  1 5.050000e-01    1.818000e+00
   TC2   Q5n  1 5.240000e-01    6.980000e-01
   TC2  SQ5n  1 5.880000e-01    1.077000e+00
   TC2  TQ5n  1 5.990000e-01    1.252000e+00
   TC1   Q5n  1 5.240000e-01    6.450000e-01
   TC1  SQ5n  1 5.880000e-01    8.340000e-01
   TC1  TQ5n  1 5.990000e-01    7.620000e-01
   TX4   Q5n  1 3.950000e-01    1.949000e+00
   TX4  SQ5n  1 3.780000e-01    2.927000e+00
   TX4  TQ5n  1 3.660000e-01    4.061000e+00
   TX3   Q5n  1 3.980000e-01    1.709000e+00
   TX3  SQ5n  1 3.940000e-01    2.617000e+00
   TX3  TQ5n  1 3.850000e-01    3.637000e+00
   TX2   Q5n  1 3.990000e-01    1.398000e+00
   TX2  SQ5n  1 4.040000e-01    2.222000e+00
   TX2  TQ5n  1 4.110000e-01    3.000000e+00
   TX1   Q5n  1 4.010000e-01    1.121000e+00
   TX1  SQ5n  1 4.090000e-01    1.765000e+00
   TX1  TQ5n  1 4.240000e-01    2.131000e+00
  TP6d   Q5n  1 3.950000e-01    5.680000e+00
  TP6d  SQ5n  1 3.650000e-01    7.108000e+00
  TP6d  TQ5n  1 3.400000e-01    9.246000e+00
  TP5d   Q5n  1 3.950000e-01    5.265000e+00
  TP5d  SQ5n  1 3.650000e-01    6.678000e+00
  TP5d  TQ5n  1 3.400000e-01    9.070000e+00
  TP4d   Q5n  1 3.950000e-01    5.249000e+00
  TP4d  SQ5n  1 3.650000e-01    6.588000e+00
  TP4d  TQ5n  1 3.400000e-01    8.872000e+00
  TP3d   Q5n  1 3.950000e-01    4.909000e+00
  TP3d  SQ5n  1 3.650000e-01    6.245000e+00
  TP3d  TQ5n  1 3.400000e-01    8.474000e+00
  TP2d   Q5n  1 3.950000e-01    4.902000e+00
  TP2d  SQ5n  1 3.650000e-01    6.207000e+00
  TP2d  TQ5n  1 3.400000e-01    8.392000e+00
  TP1d   Q5n  1 3.950000e-01    4.587000e+00
  TP1d  SQ5n  1 3.650000e-01    5.889000e+00
  TP1d  TQ5n  1 3.400000e-01    8.059000e+00
  TN6d   Q5n  1 3.950000e-01    4.581000e+00
  TN6d  SQ5n  1 3.650000e-01    5.856000e+00
  TN6d  TQ5n  1 3.400000e-01    7.988000e+00
  TN5d   Q5n  1 3.950000e-01    4.254000e+00
  TN5d  SQ5n  1 3.650000e-01    5.529000e+00
  TN5d  TQ5n  1 3.400000e-01    7.625000e+00
  TN4d   Q5n  1 3.950000e-01    4.246000e+00
  TN4d  SQ5n  1 3.650000e-01    5.484000e+00
  TN4d  TQ5n  1 3.400000e-01    7.526000e+00
  TN3d   Q5n  1 3.950000e-01    3.996000e+00
  TN3d  SQ5n  1 3.650000e-01    5.157000e+00
  TN3d  TQ5n  1 3.400000e-01    7.151000e+00
  TN2d   Q5n  1 3.950000e-01    3.982000e+00
  TN2d  SQ5n  1 3.650000e-01    5.082000e+00
  TN2d  TQ5n  1 3.400000e-01    6.986000e+00
  TN1d   Q5n  1 3.950000e-01    3.722000e+00
  TN1d  SQ5n  1 3.650000e-01    4.704000e+00
  TN1d  TQ5n  1 3.400000e-01    6.520000e+00
  TP6a   Q5n  1 3.950000e-01    4.640000e+00
  TP6a  SQ5n  1 3.650000e-01    6.178000e+00
  TP6a  TQ5n  1 3.400000e-01    8.416000e+00
  TP5a   Q5n  1 3.950000e-01    4.305000e+00
  TP5a  SQ5n  1 3.650000e-01    5.808000e+00
  TP5a  TQ5n  1 3.400000e-01    7.990000e+00
  TP4a   Q5n  1 3.950000e-01    4.289000e+00
  TP4a  SQ5n  1 3.650000e-01    5.718000e+00
  TP4a  TQ5n  1 3.400000e-01    7.792000e+00
  TP3a   Q5n  1 3.950000e-01    4.039000e+00
  TP3a  SQ5n  1 3.650000e-01    5.395000e+00
  TP3a  TQ5n  1 3.400000e-01    7.444000e+00
  TP2a   Q5n  1 3.950000e-01    4.032000e+00
  TP2a  SQ5n  1 3.650000e-01    5.357000e+00
  TP2a  TQ5n  1 3.400000e-01    7.362000e+00
  TP1a   Q5n  1 3.950000e-01    3.787000e+00
  TP1a  SQ5n  1 3.650000e-01    5.059000e+00
  TP1a  TQ5n  1 3.400000e-01    7.049000e+00
  TN6a   Q5n  1 3.950000e-01    3.781000e+00
  TN6a  SQ5n  1 3.650000e-01    5.026000e+00
  TN6a  TQ5n  1 3.400000e-01    6.978000e+00
  TN5a   Q5n  1 3.950000e-01    3.534000e+00
  TN5a  SQ5n  1 3.650000e-01    4.719000e+00
  TN5a  TQ5n  1 3.400000e-01    6.655000e+00
  TN4a   Q5n  1 3.950000e-01    3.526000e+00
  TN4a  SQ5n  1 3.650000e-01    4.674000e+00
  TN4a  TQ5n  1 3.400000e-01    6.556000e+00
  TN3a   Q5n  1 3.950000e-01    3.266000e+00
  TN3a  SQ5n  1 3.650000e-01    4.357000e+00
  TN3a  TQ5n  1 3.400000e-01    6.211000e+00
  TN2a   Q5n  1 3.950000e-01    3.252000e+00
  TN2a  SQ5n  1 3.650000e-01    4.282000e+00
  TN2a  TQ5n  1 3.400000e-01    6.046000e+00
  TN1a   Q5n  1 3.950000e-01    2.992000e+00
  TN1a  SQ5n  1 3.650000e-01    3.944000e+00
  TN1a  TQ5n  1 3.400000e-01    5.550000e+00
  TC6v   Q5n  1 3.950000e-01    2.571000e+00
  TC6v  SQ5n  1 3.650000e-01    3.342000e+00
  TC6v  TQ5n  1 3.400000e-01    4.920000e+00
  TC5v   Q5n  1 3.980000e-01    1.685000e+00
  TC5v  SQ5n  1 3.940000e-01    2.492000e+00
  TC5v  TQ5n  1 3.850000e-01    3.375000e+00
  TC4v   Q5n  1 3.990000e-01    1.378000e+00
  TC4v  SQ5n  1 4.040000e-01    2.122000e+00
  TC4v  TQ5n  1 4.040000e-01    2.867000e+00
  TC3v   Q5n  1 4.010000e-01    1.121000e+00
  TC3v  SQ5n  1 4.090000e-01    1.765000e+00
  TC3v  TQ5n  1 4.110000e-01    2.199000e+00
  TC2v   Q5n  1 4.650000e-01    7.810000e-01
  TC2v  SQ5n  1 4.840000e-01    1.271000e+00
  TC2v  TQ5n  1 4.380000e-01    1.595000e+00
  TC1v   Q5n  1 4.650000e-01    7.210000e-01
  TC1v  SQ5n  1 4.840000e-01    9.760000e-01
  TC1v  TQ5n  1 4.380000e-01    9.250000e-01
  TX4v   Q5n  1 3.950000e-01    2.389000e+00
  TX4v  SQ5n  1 3.650000e-01    3.280000e+00
  TX4v  TQ5n  1 3.400000e-01    4.875000e+00
  TX3v   Q5n  1 3.950000e-01    2.111000e+00
  TX3v  SQ5n  1 3.660000e-01    3.028000e+00
  TX3v  TQ5n  1 3.400000e-01    4.380000e+00
  TX2v   Q5n  1 3.950000e-01    1.890000e+00
  TX2v  SQ5n  1 3.780000e-01    2.617000e+00
  TX2v  TQ5n  1 3.660000e-01    3.404000e+00
  TX1v   Q5n  1 3.980000e-01    1.589000e+00
  TX1v  SQ5n  1 3.940000e-01    2.001000e+00
  TX1v  TQ5n  1 3.850000e-01    2.347000e+00
  TC6e   Q5n  1 3.950000e-01    1.931000e+00
  TC6e  SQ5n  1 3.780000e-01    2.833000e+00
  TC6e  TQ5n  1 3.660000e-01    3.862000e+00
  TC5e   Q5n  1 4.040000e-01    1.061000e+00
  TC5e  SQ5n  1 4.230000e-01    2.100000e+00
  TC5e  TQ5n  1 4.380000e-01    2.946000e+00
  TC4e   Q5n  1 4.650000e-01    8.730000e-01
  TC4e  SQ5n  1 4.840000e-01    1.718000e+00
  TC4e  TQ5n  1 5.050000e-01    2.306000e+00
  TC3e   Q5n  1 5.110000e-01    7.670000e-01
  TC3e  SQ5n  1 5.370000e-01    1.330000e+00
  TC3e  TQ5n  1 5.610000e-01    1.654000e+00
  TC2e   Q5n  1 5.240000e-01    6.980000e-01
  TC2e  SQ5n  1 5.880000e-01    1.077000e+00
  TC2e  TQ5n  1 5.990000e-01    1.252000e+00
  TC1e   Q5n  1 5.240000e-01    6.450000e-01
  TC1e  SQ5n  1 5.880000e-01    8.340000e-01
  TC1e  TQ5n  1 5.990000e-01    7.620000e-01
  TX4e   Q5n  1 3.980000e-01    1.727000e+00
  TX4e  SQ5n  1 3.940000e-01    2.707000e+00
  TX4e  TQ5n  1 3.850000e-01    3.827000e+00
  TX3e   Q5n  1 3.990000e-01    1.438000e+00
  TX3e  SQ5n  1 4.040000e-01    2.424000e+00
  TX3e  TQ5n  1 4.110000e-01    3.407000e+00
  TX2e   Q5n  1 4.010000e-01    1.200000e+00
  TX2e  SQ5n  1 4.090000e-01    2.158000e+00
  TX2e  TQ5n  1 4.240000e-01    2.907000e+00
  TX1e   Q5n  1 4.040000e-01    9.670000e-01
  TX1e  SQ5n  1 4.230000e-01    1.644000e+00
  TX1e  TQ5n  1 4.380000e-01    2.043000e+00
  TP6q   Q5n  1 3.950000e-01    5.680000e+00
  TP6q  SQ5n  1 3.650000e-01    7.108000e+00
  TP6q  TQ5n  1 3.400000e-01    9.246000e+00
  TP5q   Q5n  1 3.950000e-01    5.665000e+00
  TP5q  SQ5n  1 3.650000e-01    7.028000e+00
  TP5q  TQ5n  1 3.400000e-01    9.070000e+00
  TP4q   Q5n  1 3.950000e-01    5.649000e+00
  TP4q  SQ5n  1 3.650000e-01    6.938000e+00
  TP4q  TQ5n  1 3.400000e-01    8.872000e+00
  TP3q   Q5n  1 3.950000e-01    5.639000e+00
  TP3q  SQ5n  1 3.650000e-01    6.885000e+00
  TP3q  TQ5n  1 3.400000e-01    8.754000e+00
  TP2q   Q5n  1 3.950000e-01    5.632000e+00
  TP2q  SQ5n  1 3.650000e-01    6.847000e+00
  TP2q  TQ5n  1 3.400000e-01    8.672000e+00
  TP1q   Q5n  1 3.950000e-01    5.227000e+00
  TP1q  SQ5n  1 3.650000e-01    6.469000e+00
  TP1q  TQ5n  1 3.400000e-01    8.329000e+00
  TN6q   Q5n  1 3.950000e-01    5.221000e+00
  TN6q  SQ5n  1 3.650000e-01    6.436000e+00
  TN6q  TQ5n  1 3.400000e-01    8.258000e+00
  TN5q   Q5n  1 3.950000e-01    4.884000e+00
  TN5q  SQ5n  1 3.650000e-01    6.109000e+00
  TN5q  TQ5n  1 3.400000e-01    7.905000e+00
  TN4q   Q5n  1 3.950000e-01    4.876000e+00
  TN4q  SQ5n  1 3.650000e-01    6.064000e+00
  TN4q  TQ5n  1 3.400000e-01    7.806000e+00
  TN3q   Q5n  1 3.950000e-01    4.556000e+00
  TN3q  SQ5n  1 3.650000e-01    5.717000e+00
  TN3q  TQ5n  1 3.400000e-01    7.401000e+00
  TN2q   Q5n  1 3.950000e-01    4.542000e+00
  TN2q  SQ5n  1 3.650000e-01    5.642000e+00
  TN2q  TQ5n  1 3.400000e-01    7.236000e+00
  TN1q   Q5n  1 3.950000e-01    4.202000e+00
  TN1q  SQ5n  1 3.650000e-01    5.244000e+00
  TN1q  TQ5n  1 3.400000e-01    6.750000e+00
  TC6q   Q5n  1 3.950000e-01    2.761000e+00
  TC6q  SQ5n  1 3.650000e-01    3.542000e+00
  TC6q  TQ5n  1 3.400000e-01    4.920000e+00
  TC5q   Q5n  1 3.950000e-01    1.906000e+00
  TC5q  SQ5n  1 3.780000e-01    2.703000e+00
  TC5q  TQ5n  1 3.660000e-01    3.586000e+00
  TC4q   Q5n  1 3.980000e-01    1.648000e+00
  TC4q  SQ5n  1 3.940000e-01    2.307000e+00
  TC4q  TQ5n  1 3.850000e-01    2.987000e+00
  TC3q   Q5n  1 3.990000e-01    1.319000e+00
  TC3q  SQ5n  1 4.040000e-01    1.824000e+00
  TC3q  TQ5n  1 4.110000e-01    2.199000e+00
  TC2q   Q5n  1 4.040000e-01    9.200000e-01
  TC2q  SQ5n  1 4.230000e-01    1.417000e+00
  TC2q  TQ5n  1 4.380000e-01    1.595000e+00
  TC1q   Q5n  1 4.040000e-01    8.500000e-01
  TC1q  SQ5n  1 4.230000e-01    1.079000e+00
  TC1q  TQ5n  1 4.380000e-01    9.250000e-01
  TX4q   Q5n  1 3.950000e-01    2.589000e+00
  TX4q  SQ5n  1 3.650000e-01    3.440000e+00
  TX4q  TQ5n  1 3.400000e-01    4.875000e+00
  TX3q   Q5n  1 3.950000e-01    2.371000e+00
  TX3q  SQ5n  1 3.650000e-01    3.182000e+00
  TX3q  TQ5n  1 3.400000e-01    4.380000e+00
  TX2q   Q5n  1 3.950000e-01    2.070000e+00
  TX2q  SQ5n  1 3.660000e-01    2.805000e+00
  TX2q  TQ5n  1 3.520000e-01    3.617000e+00
  TX1q   Q5n  1 3.950000e-01    1.810000e+00
  TX1q  SQ5n  1 3.780000e-01    2.192000e+00
  TX1q  TQ5n  1 3.660000e-01    2.505000e+00
 TP6dq   Q5n  1 3.950000e-01    5.680000e+00
 TP6dq  SQ5n  1 3.650000e-01    7.108000e+00
 TP6dq  TQ5n  1 3.400000e-01    9.246000e+00
 TP5dq   Q5n  1 3.950000e-01    5.665000e+00
 TP5dq  SQ5n  1 3.650000e-01    7.028000e+00
 TP5dq  TQ5n  1 3.400000e-01    9.070000e+00
 TP4dq   Q5n  1 3.950000e-01    5.649000e+00
 TP4dq  SQ5n  1 3.650000e-01    6.938000e+00
 TP4dq  TQ5n  1 3.400000e-01    8.872000e+00
 TP3dq   Q5n  1 3.950000e-01    5.639000e+00
 TP3dq  SQ5n  1 3.650000e-01    6.885000e+00
 TP3dq  TQ5n  1 3.400000e-01    8.754000e+00
 TP2dq   Q5n  1 3.950000e-01    5.632000e+00
 TP2dq  SQ5n  1 3.650000e-01    6.847000e+00
 TP2dq  TQ5n  1 3.400000e-01    8.672000e+00
 TP1dq   Q5n  1 3.950000e-01    5.627000e+00
 TP1dq  SQ5n  1 3.650000e-01    6.819000e+00
 TP1dq  TQ5n  1 3.400000e-01    8.609000e+00
 TN6dq   Q5n  1 3.950000e-01    5.621000e+00
 TN6dq  SQ5n  1 3.650000e-01    6.786000e+00
 TN6dq  TQ5n  1 3.400000e-01    8.538000e+00
 TN5dq   Q5n  1 3.950000e-01    5.214000e+00
 TN5dq  SQ5n  1 3.650000e-01    6.399000e+00
 TN5dq  TQ5n  1 3.400000e-01    8.455000e+00
 TN4dq   Q5n  1 3.950000e-01    5.206000e+00
 TN4dq  SQ5n  1 3.650000e-01    6.354000e+00
 TN4dq  TQ5n  1 3.400000e-01    8.356000e+00
 TN3dq   Q5n  1 3.950000e-01    4.866000e+00
 TN3dq  SQ5n  1 3.650000e-01    6.007000e+00
 TN3dq  TQ5n  1 3.400000e-01    7.951000e+00
 TN2dq   Q5n  1 3.950000e-01    4.852000e+00
 TN2dq  SQ5n  1 3.650000e-01    5.932000e+00
 TN2dq  TQ5n  1 3.400000e-01    7.786000e+00
 TN1dq   Q5n  1 3.950000e-01    4.522000e+00
 TN1dq  SQ5n  1 3.650000e-01    5.534000e+00
 TN1dq  TQ5n  1 3.400000e-01    7.280000e+00
 TP6aq   Q5n  1 3.950000e-01    5.680000e+00
 TP6aq  SQ5n  1 3.650000e-01    7.108000e+00
 TP6aq  TQ5n  1 3.400000e-01    9.246000e+00
 TP5aq   Q5n  1 3.950000e-01    5.265000e+00
 TP5aq  SQ5n  1 3.650000e-01    6.678000e+00
 TP5aq  TQ5n  1 3.400000e-01    8.790000e+00
 TP4aq   Q5n  1 3.950000e-01    5.249000e+00
 TP4aq  SQ5n  1 3.650000e-01    6.588000e+00
 TP4aq  TQ5n  1 3.400000e-01    8.592000e+00
 TP3aq   Q5n  1 3.950000e-01    4.909000e+00
 TP3aq  SQ5n  1 3.650000e-01    6.245000e+00
 TP3aq  TQ5n  1 3.400000e-01    8.204000e+00
 TP2aq   Q5n  1 3.950000e-01    4.902000e+00
 TP2aq  SQ5n  1 3.650000e-01    6.207000e+00
 TP2aq  TQ5n  1 3.400000e-01    8.122000e+00
 TP1aq   Q5n  1 3.950000e-01    4.587000e+00
 TP1aq  SQ5n  1 3.650000e-01    5.889000e+00
 TP1aq  TQ5n  1 3.400000e-01    7.779000e+00
 TN6aq   Q5n  1 3.950000e-01    4.581000e+00
 TN6aq  SQ5n  1 3.650000e-01    5.856000e+00
 TN6aq  TQ5n  1 3.400000e-01    7.708000e+00
 TN5aq   Q5n  1 3.950000e-01    4.254000e+00
 TN5aq  SQ5n  1 3.650000e-01    5.529000e+00
 TN5aq  TQ5n  1 3.400000e-01    7.375000e+00
 TN4aq   Q5n  1 3.950000e-01    4.246000e+00
 TN4aq  SQ5n  1 3.650000e-01    5.484000e+00
 TN4aq  TQ5n  1 3.400000e-01    7.276000e+00
 TN3aq   Q5n  1 3.950000e-01    3.996000e+00
 TN3aq  SQ5n  1 3.650000e-01    5.157000e+00
 TN3aq  TQ5n  1 3.400000e-01    6.921000e+00
 TN2aq   Q5n  1 3.950000e-01    3.982000e+00
 TN2aq  SQ5n  1 3.650000e-01    5.082000e+00
 TN2aq  TQ5n  1 3.400000e-01    6.756000e+00
 TN1aq   Q5n  1 3.950000e-01    3.722000e+00
 TN1aq  SQ5n  1 3.650000e-01    4.704000e+00
 TN1aq  TQ5n  1 3.400000e-01    6.270000e+00
 TC6vq   Q5n  1 3.950000e-01    3.201000e+00
 TC6vq  SQ5n  1 3.650000e-01    4.002000e+00
 TC6vq  TQ5n  1 3.400000e-01    5.650000e+00
 TC5vq   Q5n  1 3.950000e-01    2.346000e+00
 TC5vq  SQ5n  1 3.650000e-01    3.047000e+00
 TC5vq  TQ5n  1 3.400000e-01    4.364000e+00
 TC4vq   Q5n  1 3.950000e-01    2.050000e+00
 TC4vq  SQ5n  1 3.660000e-01    2.694000e+00
 TC4vq  TQ5n  1 3.400000e-01    3.644000e+00
 TC3vq   Q5n  1 3.950000e-01    1.810000e+00
 TC3vq  SQ5n  1 3.780000e-01    2.192000e+00
 TC3vq  TQ5n  1 3.660000e-01    2.505000e+00
 TC2vq   Q5n  1 4.650000e-01    7.810000e-01
 TC2vq  SQ5n  1 4.840000e-01    1.271000e+00
 TC2vq  TQ5n  1 4.380000e-01    1.595000e+00
 TC1vq   Q5n  1 4.650000e-01    7.210000e-01
 TC1vq  SQ5n  1 4.840000e-01    9.760000e-01
 TC1vq  TQ5n  1 4.380000e-01    9.250000e-01
 TX4vq   Q5n  1 3.950000e-01    2.979000e+00
 TX4vq  SQ5n  1 3.650000e-01    3.870000e+00
 TX4vq  TQ5n  1 3.400000e-01    5.645000e+00
 TX3vq   Q5n  1 3.950000e-01    2.761000e+00
 TX3vq  SQ5n  1 3.650000e-01    3.542000e+00
 TX3vq  TQ5n  1 3.400000e-01    5.170000e+00
 TX2vq   Q5n  1 3.950000e-01    2.530000e+00
 TX2vq  SQ5n  1 3.650000e-01    3.118000e+00
 TX2vq  TQ5n  1 3.400000e-01    4.428000e+00
 TX1vq   Q5n  1 3.950000e-01    2.250000e+00
 TX1vq  SQ5n  1 3.650000e-01    2.518000e+00
 TX1vq  TQ5n  1 3.400000e-01    3.200000e+00
 TC6eq   Q5n  1 3.950000e-01    2.571000e+00
 TC6eq  SQ5n  1 3.650000e-01    3.342000e+00
 TC6eq  TQ5n  1 3.400000e-01    4.660000e+00
 TC5eq   Q5n  1 3.980000e-01    1.685000e+00
 TC5eq  SQ5n  1 3.940000e-01    2.492000e+00
 TC5eq  TQ5n  1 3.850000e-01    3.375000e+00
 TC4eq   Q5n  1 3.990000e-01    1.378000e+00
 TC4eq  SQ5n  1 4.040000e-01    2.122000e+00
 TC4eq  TQ5n  1 4.110000e-01    2.798000e+00
 TC3eq   Q5n  1 4.010000e-01    1.121000e+00
 TC3eq  SQ5n  1 4.090000e-01    1.765000e+00
 TC3eq  TQ5n  1 4.240000e-01    2.131000e+00
 TC2eq   Q5n  1 4.040000e-01    9.200000e-01
 TC2eq  SQ5n  1 4.230000e-01    1.417000e+00
 TC2eq  TQ5n  1 4.380000e-01    1.595000e+00
 TC1eq   Q5n  1 4.040000e-01    8.500000e-01
 TC1eq  SQ5n  1 4.230000e-01    1.079000e+00
 TC1eq  TQ5n  1 4.380000e-01    9.250000e-01
 TX4eq   Q5n  1 3.950000e-01    2.389000e+00
 TX4eq  SQ5n  1 3.650000e-01    3.280000e+00
 TX4eq  TQ5n  1 3.400000e-01    4.595000e+00
 TX3eq   Q5n  1 3.950000e-01    2.111000e+00
 TX3eq  SQ5n  1 3.660000e-01    3.028000e+00
 TX3eq  TQ5n  1 3.520000e-01    4.093000e+00
 TX2eq   Q5n  1 3.950000e-01    1.890000e+00
 TX2eq  SQ5n  1 3.780000e-01    2.617000e+00
 TX2eq  TQ5n  1 3.660000e-01    3.404000e+00
 TX1eq   Q5n  1 3.980000e-01    1.589000e+00
 TX1eq  SQ5n  1 3.940000e-01    2.001000e+00
 TX1eq  TQ5n  1 3.850000e-01    2.347000e+00
  TP6h   Q5n  1 3.950000e-01    5.280000e+00
  TP6h  SQ5n  1 3.650000e-01    6.758000e+00
  TP6h  TQ5n  1 3.400000e-01    8.966000e+00
  TP5h   Q5n  1 3.950000e-01    4.935000e+00
  TP5h  SQ5n  1 3.650000e-01    6.388000e+00
  TP5h  TQ5n  1 3.400000e-01    8.520000e+00
  TP4h   Q5n  1 3.950000e-01    4.919000e+00
  TP4h  SQ5n  1 3.650000e-01    6.298000e+00
  TP4h  TQ5n  1 3.400000e-01    8.322000e+00
  TP3h   Q5n  1 3.950000e-01    4.599000e+00
  TP3h  SQ5n  1 3.650000e-01    5.955000e+00
  TP3h  TQ5n  1 3.400000e-01    7.924000e+00
  TP2h   Q5n  1 3.950000e-01    4.592000e+00
  TP2h  SQ5n  1 3.650000e-01    5.917000e+00
  TP2h  TQ5n  1 3.400000e-01    7.842000e+00
  TP1h   Q5n  1 3.950000e-01    4.267000e+00
  TP1h  SQ5n  1 3.650000e-01    5.599000e+00
  TP1h  TQ5n  1 3.400000e-01    7.529000e+00
  TN6h   Q5n  1 3.950000e-01    4.261000e+00
  TN6h  SQ5n  1 3.650000e-01    5.566000e+00
  TN6h  TQ5n  1 3.400000e-01    7.458000e+00
  TN5h   Q5n  1 3.950000e-01    4.014000e+00
  TN5h  SQ5n  1 3.650000e-01    5.259000e+00
  TN5h  TQ5n  1 3.400000e-01    7.145000e+00
  TN4h   Q5n  1 3.950000e-01    4.006000e+00
  TN4h  SQ5n  1 3.650000e-01    5.214000e+00
  TN4h  TQ5n  1 3.400000e-01    7.046000e+00
  TN3h   Q5n  1 3.950000e-01    3.756000e+00
  TN3h  SQ5n  1 3.650000e-01    4.887000e+00
  TN3h  TQ5n  1 3.400000e-01    6.671000e+00
  TN2h   Q5n  1 3.950000e-01    3.742000e+00
  TN2h  SQ5n  1 3.650000e-01    4.812000e+00
  TN2h  TQ5n  1 3.400000e-01    6.506000e+00
  TN1h   Q5n  1 3.950000e-01    3.482000e+00
  TN1h  SQ5n  1 3.650000e-01    4.434000e+00
  TN1h  TQ5n  1 3.400000e-01    6.030000e+00
  TC6h   Q5n  1 3.950000e-01    2.111000e+00
  TC6h  SQ5n  1 3.660000e-01    3.028000e+00
  TC6h  TQ5n  1 3.520000e-01    4.093000e+00
  TC5h   Q5n  1 4.010000e-01    1.216000e+00
  TC5h  SQ5n  1 4.090000e-01    2.238000e+00
  TC5h  TQ5n  1 4.240000e-01    3.064000e+00
  TC4h   Q5n  1 4.040000e-01    1.026000e+00
  TC4h  SQ5n  1 4.230000e-01    1.928000e+00
  TC4h  TQ5n  1 4.380000e-01    2.605000e+00
  TC3h   Q5n  1 4.650000e-01    8.220000e-01
  TC3h  SQ5n  1 4.840000e-01    1.469000e+00
  TC3h  TQ5n  1 5.050000e-01    1.818000e+00
  TC2h   Q5n  1 5.240000e-01    6.980000e-01
  TC2h  SQ5n  1 5.880000e-01    1.077000e+00
  TC2h  TQ5n  1 5.990000e-01    1.252000e+00
  TC1h   Q5n  1 5.240000e-01    6.450000e-01
  TC1h  SQ5n  1 5.880000e-01    8.340000e-01
  TC1h  TQ5n  1 5.990000e-01    7.620000e-01
  TX4h   Q5n  1 3.950000e-01    1.949000e+00
  TX4h  SQ5n  1 3.780000e-01    2.927000e+00
  TX4h  TQ5n  1 3.660000e-01    4.061000e+00
  TX3h   Q5n  1 3.980000e-01    1.709000e+00
  TX3h  SQ5n  1 3.940000e-01    2.617000e+00
  TX3h  TQ5n  1 3.850000e-01    3.637000e+00
  TX2h   Q5n  1 3.990000e-01    1.398000e+00
  TX2h  SQ5n  1 4.040000e-01    2.222000e+00
  TX2h  TQ5n  1 4.110000e-01    3.000000e+00
  TX1h   Q5n  1 4.010000e-01    1.121000e+00
  TX1h  SQ5n  1 4.090000e-01    1.765000e+00
  TX1h  TQ5n  1 4.240000e-01    2.131000e+00
 TP6dh   Q5n  1 3.950000e-01    5.680000e+00
 TP6dh  SQ5n  1 3.650000e-01    7.108000e+00
 TP6dh  TQ5n  1 3.400000e-01    9.246000e+00
 TP5dh   Q5n  1 3.950000e-01    5.265000e+00
 TP5dh  SQ5n  1 3.650000e-01    6.678000e+00
 TP5dh  TQ5n  1 3.400000e-01    9.070000e+00
 TP4dh   Q5n  1 3.950000e-01    5.249000e+00
 TP4dh  SQ5n  1 3.650000e-01    6.588000e+00
 TP4dh  TQ5n  1 3.400000e-01    8.872000e+00
 TP3dh   Q5n  1 3.950000e-01    4.909000e+00
 TP3dh  SQ5n  1 3.650000e-01    6.245000e+00
 TP3dh  TQ5n  1 3.400000e-01    8.474000e+00
 TP2dh   Q5n  1 3.950000e-01    4.902000e+00
 TP2dh  SQ5n  1 3.650000e-01    6.207000e+00
 TP2dh  TQ5n  1 3.400000e-01    8.392000e+00
 TP1dh   Q5n  1 3.950000e-01    4.587000e+00
 TP1dh  SQ5n  1 3.650000e-01    5.889000e+00
 TP1dh  TQ5n  1 3.400000e-01    8.059000e+00
 TN6dh   Q5n  1 3.950000e-01    4.581000e+00
 TN6dh  SQ5n  1 3.650000e-01    5.856000e+00
 TN6dh  TQ5n  1 3.400000e-01    7.988000e+00
 TN5dh   Q5n  1 3.950000e-01    4.254000e+00
 TN5dh  SQ5n  1 3.650000e-01    5.529000e+00
 TN5dh  TQ5n  1 3.400000e-01    7.625000e+00
 TN4dh   Q5n  1 3.950000e-01    4.246000e+00
 TN4dh  SQ5n  1 3.650000e-01    5.484000e+00
 TN4dh  TQ5n  1 3.400000e-01    7.526000e+00
 TN3dh   Q5n  1 3.950000e-01    3.996000e+00
 TN3dh  SQ5n  1 3.650000e-01    5.157000e+00
 TN3dh  TQ5n  1 3.400000e-01    7.151000e+00
 TN2dh   Q5n  1 3.950000e-01    3.982000e+00
 TN2dh  SQ5n  1 3.650000e-01    5.082000e+00
 TN2dh  TQ5n  1 3.400000e-01    6.986000e+00
 TN1dh   Q5n  1 3.950000e-01    3.722000e+00
 TN1dh  SQ5n  1 3.650000e-01    4.704000e+00
 TN1dh  TQ5n  1 3.400000e-01    6.520000e+00
 TP6ah   Q5n  1 3.950000e-01    4.640000e+00
 TP6ah  SQ5n  1 3.650000e-01    6.178000e+00
 TP6ah  TQ5n  1 3.400000e-01    8.416000e+00
 TP5ah   Q5n  1 3.950000e-01    4.305000e+00
 TP5ah  SQ5n  1 3.650000e-01    5.808000e+00
 TP5ah  TQ5n  1 3.400000e-01    7.990000e+00
 TP4ah   Q5n  1 3.950000e-01    4.289000e+00
 TP4ah  SQ5n  1 3.650000e-01    5.718000e+00
 TP4ah  TQ5n  1 3.400000e-01    7.792000e+00
 TP3ah   Q5n  1 3.950000e-01    4.039000e+00
 TP3ah  SQ5n  1 3.650000e-01    5.395000e+00
 TP3ah  TQ5n  1 3.400000e-01    7.444000e+00
 TP2ah   Q5n  1 3.950000e-01    4.032000e+00
 TP2ah  SQ5n  1 3.650000e-01    5.357000e+00
 TP2ah  TQ5n  1 3.400000e-01    7.362000e+00
 TP1ah   Q5n  1 3.950000e-01    3.787000e+00
 TP1ah  SQ5n  1 3.650000e-01    5.059000e+00
 TP1ah  TQ5n  1 3.400000e-01    7.049000e+00
 TN6ah   Q5n  1 3.950000e-01    3.781000e+00
 TN6ah  SQ5n  1 3.650000e-01    5.026000e+00
 TN6ah  TQ5n  1 3.400000e-01    6.978000e+00
 TN5ah   Q5n  1 3.950000e-01    3.534000e+00
 TN5ah  SQ5n  1 3.650000e-01    4.719000e+00
 TN5ah  TQ5n  1 3.400000e-01    6.655000e+00
 TN4ah   Q5n  1 3.950000e-01    3.526000e+00
 TN4ah  SQ5n  1 3.650000e-01    4.674000e+00
 TN4ah  TQ5n  1 3.400000e-01    6.556000e+00
 TN3ah   Q5n  1 3.950000e-01    3.266000e+00
 TN3ah  SQ5n  1 3.650000e-01    4.357000e+00
 TN3ah  TQ5n  1 3.400000e-01    6.211000e+00
 TN2ah   Q5n  1 3.950000e-01    3.252000e+00
 TN2ah  SQ5n  1 3.650000e-01    4.282000e+00
 TN2ah  TQ5n  1 3.400000e-01    6.046000e+00
 TN1ah   Q5n  1 3.950000e-01    2.992000e+00
 TN1ah  SQ5n  1 3.650000e-01    3.944000e+00
 TN1ah  TQ5n  1 3.400000e-01    5.550000e+00
 TC6vh   Q5n  1 3.950000e-01    2.571000e+00
 TC6vh  SQ5n  1 3.650000e-01    3.342000e+00
 TC6vh  TQ5n  1 3.400000e-01    4.920000e+00
 TC5vh   Q5n  1 3.980000e-01    1.685000e+00
 TC5vh  SQ5n  1 3.940000e-01    2.492000e+00
 TC5vh  TQ5n  1 3.850000e-01    3.375000e+00
 TC4vh   Q5n  1 3.990000e-01    1.378000e+00
 TC4vh  SQ5n  1 4.040000e-01    2.122000e+00
 TC4vh  TQ5n  1 4.040000e-01    2.867000e+00
 TC3vh   Q5n  1 4.010000e-01    1.121000e+00
 TC3vh  SQ5n  1 4.090000e-01    1.765000e+00
 TC3vh  TQ5n  1 4.110000e-01    2.199000e+00
 TC2vh   Q5n  1 4.650000e-01    7.810000e-01
 TC2vh  SQ5n  1 4.840000e-01    1.271000e+00
 TC2vh  TQ5n  1 4.380000e-01    1.595000e+00
 TC1vh   Q5n  1 4.650000e-01    7.210000e-01
 TC1vh  SQ5n  1 4.840000e-01    9.760000e-01
 TC1vh  TQ5n  1 4.380000e-01    9.250000e-01
 TX4vh   Q5n  1 3.950000e-01    2.389000e+00
 TX4vh  SQ5n  1 3.650000e-01    3.280000e+00
 TX4vh  TQ5n  1 3.400000e-01    4.875000e+00
 TX3vh   Q5n  1 3.950000e-01    2.111000e+00
 TX3vh  SQ5n  1 3.660000e-01    3.028000e+00
 TX3vh  TQ5n  1 3.400000e-01    4.380000e+00
 TX2vh   Q5n  1 3.950000e-01    1.890000e+00
 TX2vh  SQ5n  1 3.780000e-01    2.617000e+00
 TX2vh  TQ5n  1 3.660000e-01    3.404000e+00
 TX1vh   Q5n  1 3.980000e-01    1.589000e+00
 TX1vh  SQ5n  1 3.940000e-01    2.001000e+00
 TX1vh  TQ5n  1 3.850000e-01    2.347000e+00
 TC6eh   Q5n  1 3.950000e-01    1.931000e+00
 TC6eh  SQ5n  1 3.780000e-01    2.833000e+00
 TC6eh  TQ5n  1 3.660000e-01    3.862000e+00
 TC5eh   Q5n  1 4.040000e-01    1.061000e+00
 TC5eh  SQ5n  1 4.230000e-01    2.100000e+00
 TC5eh  TQ5n  1 4.380000e-01    2.946000e+00
 TC4eh   Q5n  1 4.650000e-01    8.730000e-01
 TC4eh  SQ5n  1 4.840000e-01    1.718000e+00
 TC4eh  TQ5n  1 5.050000e-01    2.306000e+00
 TC3eh   Q5n  1 5.110000e-01    7.670000e-01
 TC3eh  SQ5n  1 5.370000e-01    1.330000e+00
 TC3eh  TQ5n  1 5.610000e-01    1.654000e+00
 TC2eh   Q5n  1 5.240000e-01    6.980000e-01
 TC2eh  SQ5n  1 5.880000e-01    1.077000e+00
 TC2eh  TQ5n  1 5.990000e-01    1.252000e+00
 TC1eh   Q5n  1 5.240000e-01    6.450000e-01
 TC1eh  SQ5n  1 5.880000e-01    8.340000e-01
 TC1eh  TQ5n  1 5.990000e-01    7.620000e-01
 TX4eh   Q5n  1 3.980000e-01    1.727000e+00
 TX4eh  SQ5n  1 3.940000e-01    2.707000e+00
 TX4eh  TQ5n  1 3.850000e-01    3.827000e+00
 TX3eh   Q5n  1 3.990000e-01    1.438000e+00
 TX3eh  SQ5n  1 4.040000e-01    2.424000e+00
 TX3eh  TQ5n  1 4.110000e-01    3.407000e+00
 TX2eh   Q5n  1 4.010000e-01    1.200000e+00
 TX2eh  SQ5n  1 4.090000e-01    2.158000e+00
 TX2eh  TQ5n  1 4.240000e-01    2.907000e+00
 TX1eh   Q5n  1 4.040000e-01    9.670000e-01
 TX1eh  SQ5n  1 4.230000e-01    1.644000e+00
 TX1eh  TQ5n  1 4.380000e-01    2.043000e+00
  TP6r   Q5n  1 3.950000e-01    5.280000e+00
  TP6r  SQ5n  1 3.650000e-01    6.758000e+00
  TP6r  TQ5n  1 3.400000e-01    8.966000e+00
  TP5r   Q5n  1 3.950000e-01    4.935000e+00
  TP5r  SQ5n  1 3.650000e-01    6.388000e+00
  TP5r  TQ5n  1 3.400000e-01    8.520000e+00
  TP4r   Q5n  1 3.950000e-01    4.919000e+00
  TP4r  SQ5n  1 3.650000e-01    6.298000e+00
  TP4r  TQ5n  1 3.400000e-01    8.322000e+00
  TP3r   Q5n  1 3.950000e-01    4.599000e+00
  TP3r  SQ5n  1 3.650000e-01    5.955000e+00
  TP3r  TQ5n  1 3.400000e-01    7.924000e+00
  TP2r   Q5n  1 3.950000e-01    4.592000e+00
  TP2r  SQ5n  1 3.650000e-01    5.917000e+00
  TP2r  TQ5n  1 3.400000e-01    7.842000e+00
  TP1r   Q5n  1 3.950000e-01    4.267000e+00
  TP1r  SQ5n  1 3.650000e-01    5.599000e+00
  TP1r  TQ5n  1 3.400000e-01    7.529000e+00
  TN6r   Q5n  1 3.950000e-01    4.261000e+00
  TN6r  SQ5n  1 3.650000e-01    5.566000e+00
  TN6r  TQ5n  1 3.400000e-01    7.458000e+00
  TN5r   Q5n  1 3.950000e-01    4.014000e+00
  TN5r  SQ5n  1 3.650000e-01    5.259000e+00
  TN5r  TQ5n  1 3.400000e-01    7.145000e+00
  TN4r   Q5n  1 3.950000e-01    4.006000e+00
  TN4r  SQ5n  1 3.650000e-01    5.214000e+00
  TN4r  TQ5n  1 3.400000e-01    7.046000e+00
  TN3r   Q5n  1 3.950000e-01    3.756000e+00
  TN3r  SQ5n  1 3.650000e-01    4.887000e+00
  TN3r  TQ5n  1 3.400000e-01    6.671000e+00
  TN2r   Q5n  1 3.950000e-01    3.742000e+00
  TN2r  SQ5n  1 3.650000e-01    4.812000e+00
  TN2r  TQ5n  1 3.400000e-01    6.506000e+00
  TN1r   Q5n  1 3.950000e-01    3.482000e+00
  TN1r  SQ5n  1 3.650000e-01    4.434000e+00
  TN1r  TQ5n  1 3.400000e-01    6.030000e+00
  TC6r   Q5n  1 3.950000e-01    2.111000e+00
  TC6r  SQ5n  1 3.660000e-01    3.028000e+00
  TC6r  TQ5n  1 3.520000e-01    4.093000e+00
  TC5r   Q5n  1 4.010000e-01    1.216000e+00
  TC5r  SQ5n  1 4.090000e-01    2.238000e+00
  TC5r  TQ5n  1 4.240000e-01    3.064000e+00
  TC4r   Q5n  1 4.040000e-01    1.026000e+00
  TC4r  SQ5n  1 4.230000e-01    1.928000e+00
  TC4r  TQ5n  1 4.380000e-01    2.605000e+00
  TC3r   Q5n  1 4.650000e-01    8.220000e-01
  TC3r  SQ5n  1 4.840000e-01    1.469000e+00
  TC3r  TQ5n  1 5.050000e-01    1.818000e+00
  TC2r   Q5n  1 5.240000e-01    6.980000e-01
  TC2r  SQ5n  1 5.880000e-01    1.077000e+00
  TC2r  TQ5n  1 5.990000e-01    1.252000e+00
  TC1r   Q5n  1 5.240000e-01    6.450000e-01
  TC1r  SQ5n  1 5.880000e-01    8.340000e-01
  TC1r  TQ5n  1 5.990000e-01    7.620000e-01
  TX4r   Q5n  1 3.950000e-01    1.949000e+00
  TX4r  SQ5n  1 3.780000e-01    2.927000e+00
  TX4r  TQ5n  1 3.660000e-01    4.061000e+00
  TX3r   Q5n  1 3.980000e-01    1.709000e+00
  TX3r  SQ5n  1 3.940000e-01    2.617000e+00
  TX3r  TQ5n  1 3.850000e-01    3.637000e+00
  TX2r   Q5n  1 3.990000e-01    1.398000e+00
  TX2r  SQ5n  1 4.040000e-01    2.222000e+00
  TX2r  TQ5n  1 4.110000e-01    3.000000e+00
  TX1r   Q5n  1 4.010000e-01    1.121000e+00
  TX1r  SQ5n  1 4.090000e-01    1.765000e+00
  TX1r  TQ5n  1 4.240000e-01    2.131000e+00
 TP6dr   Q5n  1 3.950000e-01    5.680000e+00
 TP6dr  SQ5n  1 3.650000e-01    7.108000e+00
 TP6dr  TQ5n  1 3.400000e-01    9.246000e+00
 TP5dr   Q5n  1 3.950000e-01    5.265000e+00
 TP5dr  SQ5n  1 3.650000e-01    6.678000e+00
 TP5dr  TQ5n  1 3.400000e-01    9.070000e+00
 TP4dr   Q5n  1 3.950000e-01    5.249000e+00
 TP4dr  SQ5n  1 3.650000e-01    6.588000e+00
 TP4dr  TQ5n  1 3.400000e-01    8.872000e+00
 TP3dr   Q5n  1 3.950000e-01    4.909000e+00
 TP3dr  SQ5n  1 3.650000e-01    6.245000e+00
 TP3dr  TQ5n  1 3.400000e-01    8.474000e+00
 TP2dr   Q5n  1 3.950000e-01    4.902000e+00
 TP2dr  SQ5n  1 3.650000e-01    6.207000e+00
 TP2dr  TQ5n  1 3.400000e-01    8.392000e+00
 TP1dr   Q5n  1 3.950000e-01    4.587000e+00
 TP1dr  SQ5n  1 3.650000e-01    5.889000e+00
 TP1dr  TQ5n  1 3.400000e-01    8.059000e+00
 TN6dr   Q5n  1 3.950000e-01    4.581000e+00
 TN6dr  SQ5n  1 3.650000e-01    5.856000e+00
 TN6dr  TQ5n  1 3.400000e-01    7.988000e+00
 TN5dr   Q5n  1 3.950000e-01    4.254000e+00
 TN5dr  SQ5n  1 3.650000e-01    5.529000e+00
 TN5dr  TQ5n  1 3.400000e-01    7.625000e+00
 TN4dr   Q5n  1 3.950000e-01    4.246000e+00
 TN4dr  SQ5n  1 3.650000e-01    5.484000e+00
 TN4dr  TQ5n  1 3.400000e-01    7.526000e+00
 TN3dr   Q5n  1 3.950000e-01    3.996000e+00
 TN3dr  SQ5n  1 3.650000e-01    5.157000e+00
 TN3dr  TQ5n  1 3.400000e-01    7.151000e+00
 TN2dr   Q5n  1 3.950000e-01    3.982000e+00
 TN2dr  SQ5n  1 3.650000e-01    5.082000e+00
 TN2dr  TQ5n  1 3.400000e-01    6.986000e+00
 TN1dr   Q5n  1 3.950000e-01    3.722000e+00
 TN1dr  SQ5n  1 3.650000e-01    4.704000e+00
 TN1dr  TQ5n  1 3.400000e-01    6.520000e+00
 TP6ar   Q5n  1 3.950000e-01    4.640000e+00
 TP6ar  SQ5n  1 3.650000e-01    6.178000e+00
 TP6ar  TQ5n  1 3.400000e-01    8.416000e+00
 TP5ar   Q5n  1 3.950000e-01    4.305000e+00
 TP5ar  SQ5n  1 3.650000e-01    5.808000e+00
 TP5ar  TQ5n  1 3.400000e-01    7.990000e+00
 TP4ar   Q5n  1 3.950000e-01    4.289000e+00
 TP4ar  SQ5n  1 3.650000e-01    5.718000e+00
 TP4ar  TQ5n  1 3.400000e-01    7.792000e+00
 TP3ar   Q5n  1 3.950000e-01    4.039000e+00
 TP3ar  SQ5n  1 3.650000e-01    5.395000e+00
 TP3ar  TQ5n  1 3.400000e-01    7.444000e+00
 TP2ar   Q5n  1 3.950000e-01    4.032000e+00
 TP2ar  SQ5n  1 3.650000e-01    5.357000e+00
 TP2ar  TQ5n  1 3.400000e-01    7.362000e+00
 TP1ar   Q5n  1 3.950000e-01    3.787000e+00
 TP1ar  SQ5n  1 3.650000e-01    5.059000e+00
 TP1ar  TQ5n  1 3.400000e-01    7.049000e+00
 TN6ar   Q5n  1 3.950000e-01    3.781000e+00
 TN6ar  SQ5n  1 3.650000e-01    5.026000e+00
 TN6ar  TQ5n  1 3.400000e-01    6.978000e+00
 TN5ar   Q5n  1 3.950000e-01    3.534000e+00
 TN5ar  SQ5n  1 3.650000e-01    4.719000e+00
 TN5ar  TQ5n  1 3.400000e-01    6.655000e+00
 TN4ar   Q5n  1 3.950000e-01    3.526000e+00
 TN4ar  SQ5n  1 3.650000e-01    4.674000e+00
 TN4ar  TQ5n  1 3.400000e-01    6.556000e+00
 TN3ar   Q5n  1 3.950000e-01    3.266000e+00
 TN3ar  SQ5n  1 3.650000e-01    4.357000e+00
 TN3ar  TQ5n  1 3.400000e-01    6.211000e+00
 TN2ar   Q5n  1 3.950000e-01    3.252000e+00
 TN2ar  SQ5n  1 3.650000e-01    4.282000e+00
 TN2ar  TQ5n  1 3.400000e-01    6.046000e+00
 TN1ar   Q5n  1 3.950000e-01    2.992000e+00
 TN1ar  SQ5n  1 3.650000e-01    3.944000e+00
 TN1ar  TQ5n  1 3.400000e-01    5.550000e+00
 TC6vr   Q5n  1 3.950000e-01    2.571000e+00
 TC6vr  SQ5n  1 3.650000e-01    3.342000e+00
 TC6vr  TQ5n  1 3.400000e-01    4.920000e+00
 TC5vr   Q5n  1 3.980000e-01    1.685000e+00
 TC5vr  SQ5n  1 3.940000e-01    2.492000e+00
 TC5vr  TQ5n  1 3.850000e-01    3.375000e+00
 TC4vr   Q5n  1 3.990000e-01    1.378000e+00
 TC4vr  SQ5n  1 4.040000e-01    2.122000e+00
 TC4vr  TQ5n  1 4.040000e-01    2.867000e+00
 TC3vr   Q5n  1 4.010000e-01    1.121000e+00
 TC3vr  SQ5n  1 4.090000e-01    1.765000e+00
 TC3vr  TQ5n  1 4.110000e-01    2.199000e+00
 TC2vr   Q5n  1 4.650000e-01    7.810000e-01
 TC2vr  SQ5n  1 4.840000e-01    1.271000e+00
 TC2vr  TQ5n  1 4.380000e-01    1.595000e+00
 TC1vr   Q5n  1 4.650000e-01    7.210000e-01
 TC1vr  SQ5n  1 4.840000e-01    9.760000e-01
 TC1vr  TQ5n  1 4.380000e-01    9.250000e-01
 TX4vr   Q5n  1 3.950000e-01    2.389000e+00
 TX4vr  SQ5n  1 3.650000e-01    3.280000e+00
 TX4vr  TQ5n  1 3.400000e-01    4.875000e+00
 TX3vr   Q5n  1 3.950000e-01    2.111000e+00
 TX3vr  SQ5n  1 3.660000e-01    3.028000e+00
 TX3vr  TQ5n  1 3.400000e-01    4.380000e+00
 TX2vr   Q5n  1 3.950000e-01    1.890000e+00
 TX2vr  SQ5n  1 3.780000e-01    2.617000e+00
 TX2vr  TQ5n  1 3.660000e-01    3.404000e+00
 TX1vr   Q5n  1 3.980000e-01    1.589000e+00
 TX1vr  SQ5n  1 3.940000e-01    2.001000e+00
 TX1vr  TQ5n  1 3.850000e-01    2.347000e+00
 TC6er   Q5n  1 3.950000e-01    1.931000e+00
 TC6er  SQ5n  1 3.780000e-01    2.833000e+00
 TC6er  TQ5n  1 3.660000e-01    3.862000e+00
 TC5er   Q5n  1 4.040000e-01    1.061000e+00
 TC5er  SQ5n  1 4.230000e-01    2.100000e+00
 TC5er  TQ5n  1 4.380000e-01    2.946000e+00
 TC4er   Q5n  1 4.650000e-01    8.730000e-01
 TC4er  SQ5n  1 4.840000e-01    1.718000e+00
 TC4er  TQ5n  1 5.050000e-01    2.306000e+00
 TC3er   Q5n  1 5.110000e-01    7.670000e-01
 TC3er  SQ5n  1 5.370000e-01    1.330000e+00
 TC3er  TQ5n  1 5.610000e-01    1.654000e+00
 TC2er   Q5n  1 5.240000e-01    6.980000e-01
 TC2er  SQ5n  1 5.880000e-01    1.077000e+00
 TC2er  TQ5n  1 5.990000e-01    1.252000e+00
 TC1er   Q5n  1 5.240000e-01    6.450000e-01
 TC1er  SQ5n  1 5.880000e-01    8.340000e-01
 TC1er  TQ5n  1 5.990000e-01    7.620000e-01
 TX4er   Q5n  1 3.980000e-01    1.727000e+00
 TX4er  SQ5n  1 3.940000e-01    2.707000e+00
 TX4er  TQ5n  1 3.850000e-01    3.827000e+00
 TX3er   Q5n  1 3.990000e-01    1.438000e+00
 TX3er  SQ5n  1 4.040000e-01    2.424000e+00
 TX3er  TQ5n  1 4.110000e-01    3.407000e+00
 TX2er   Q5n  1 4.010000e-01    1.200000e+00
 TX2er  SQ5n  1 4.090000e-01    2.158000e+00
 TX2er  TQ5n  1 4.240000e-01    2.907000e+00
 TX1er   Q5n  1 4.040000e-01    9.670000e-01
 TX1er  SQ5n  1 4.230000e-01    1.644000e+00
 TX1er  TQ5n  1 4.380000e-01    2.043000e+00
    P6    Q4  1 4.700000e-01    5.719000e+00
    P6   SQ4  1 4.300000e-01    7.348000e+00
    P6   TQ4  1 3.950000e-01    1.039900e+01
    P5    Q4  1 4.700000e-01    5.441000e+00
    P5   SQ4  1 4.300000e-01    7.001000e+00
    P5   TQ4  1 3.950000e-01    9.926000e+00
    P4    Q4  1 4.700000e-01    5.420000e+00
    P4   SQ4  1 4.300000e-01    6.924000e+00
    P4   TQ4  1 3.950000e-01    9.746000e+00
    P3    Q4  1 4.700000e-01    5.407000e+00
    P3   SQ4  1 4.300000e-01    6.876000e+00
    P3   TQ4  1 3.950000e-01    9.636000e+00
    P2    Q4  1 4.700000e-01    5.148000e+00
    P2   SQ4  1 4.300000e-01    6.612000e+00
    P2   TQ4  1 3.950000e-01    9.318000e+00
    P1    Q4  1 4.700000e-01    4.911000e+00
    P1   SQ4  1 4.300000e-01    6.386000e+00
    P1   TQ4  1 3.950000e-01    9.018000e+00
    N6    Q4  1 4.700000e-01    4.903000e+00
    N6   SQ4  1 4.300000e-01    6.356000e+00
    N6   TQ4  1 3.950000e-01    8.949000e+00
    N5    Q4  1 4.700000e-01    4.893000e+00
    N5   SQ4  1 4.300000e-01    6.321000e+00
    N5   TQ4  1 3.950000e-01    8.868000e+00
    N4    Q4  1 4.700000e-01    4.691000e+00
    N4   SQ4  1 4.300000e-01    6.079000e+00
    N4   TQ4  1 3.950000e-01    8.530000e+00
    N3    Q4  1 4.700000e-01    4.497000e+00
    N3   SQ4  1 4.300000e-01    5.845000e+00
    N3   TQ4  1 3.950000e-01    8.155000e+00
    N2    Q4  1 4.700000e-01    4.477000e+00
    N2   SQ4  1 4.300000e-01    5.774000e+00
    N2   TQ4  1 3.950000e-01    7.990000e+00
    N1    Q4  1 4.700000e-01    4.449000e+00
    N1   SQ4  1 4.300000e-01    5.670000e+00
    N1   TQ4  1 3.950000e-01    7.751000e+00
    C6    Q4  1 4.700000e-01    3.763000e+00
    C6   SQ4  1 4.300000e-01    4.684000e+00
    C6   TQ4  1 3.950000e-01    6.536000e+00
    C5    Q4  1 4.700000e-01    3.278000e+00
    C5   SQ4  1 4.300000e-01    3.943000e+00
    C5   TQ4  1 3.980000e-01    5.543000e+00
    C4    Q4  1 4.700000e-01    3.055000e+00
    C4   SQ4  1 4.300000e-01    3.519000e+00
    C4   TQ4  1 3.990000e-01    4.819000e+00
    C3    Q4  1 4.700000e-01    2.787000e+00
    C3   SQ4  1 4.300000e-01    2.999000e+00
    C3   TQ4  1 4.010000e-01    3.874000e+00
    C2    Q4  1 5.700000e-01    2.229000e+00
    C2   SQ4  1 5.140000e-01    1.958000e+00
    C2   TQ4  1 5.110000e-01    2.472000e+00
    C1    Q4  1 5.700000e-01    2.143000e+00
    C1   SQ4  1 5.140000e-01    1.639000e+00
    C1   TQ4  1 5.110000e-01    1.790000e+00
    X4    Q4  1 4.700000e-01    3.619000e+00
    X4   SQ4  1 4.300000e-01    4.538000e+00
    X4   TQ4  1 3.950000e-01    6.494000e+00
    X3    Q4  1 4.700000e-01    3.483000e+00
    X3   SQ4  1 4.300000e-01    4.234000e+00
    X3   TQ4  1 3.950000e-01    6.096000e+00
    X2    Q4  1 4.700000e-01    3.254000e+00
    X2   SQ4  1 4.300000e-01    3.857000e+00
    X2   TQ4  1 3.980000e-01    5.344000e+00
    X1    Q4  1 4.700000e-01    2.967000e+00
    X1   SQ4  1 4.300000e-01    3.199000e+00
    X1   TQ4  1 3.990000e-01    4.085000e+00
   P6d    Q4  1 4.700000e-01    5.719000e+00
   P6d   SQ4  1 4.300000e-01    7.348000e+00
   P6d   TQ4  1 3.950000e-01    1.039900e+01
   P5d    Q4  1 4.700000e-01    5.441000e+00
   P5d   SQ4  1 4.300000e-01    7.001000e+00
   P5d   TQ4  1 3.950000e-01    9.926000e+00
   P4d    Q4  1 4.700000e-01    5.420000e+00
   P4d   SQ4  1 4.300000e-01    6.924000e+00
   P4d   TQ4  1 3.950000e-01    9.746000e+00
   P3d    Q4  1 4.700000e-01    5.407000e+00
   P3d   SQ4  1 4.300000e-01    6.876000e+00
   P3d   TQ4  1 3.950000e-01    9.636000e+00
   P2d    Q4  1 4.700000e-01    5.148000e+00
   P2d   SQ4  1 4.300000e-01    6.612000e+00
   P2d   TQ4  1 3.950000e-01    9.318000e+00
   P1d    Q4  1 4.700000e-01    4.911000e+00
   P1d   SQ4  1 4.300000e-01    6.386000e+00
   P1d   TQ4  1 3.950000e-01    9.018000e+00
   N6d    Q4  1 4.700000e-01    4.903000e+00
   N6d   SQ4  1 4.300000e-01    6.356000e+00
   N6d   TQ4  1 3.950000e-01    8.949000e+00
   N5d    Q4  1 4.700000e-01    4.893000e+00
   N5d   SQ4  1 4.300000e-01    6.321000e+00
   N5d   TQ4  1 3.950000e-01    8.868000e+00
   N4d    Q4  1 4.700000e-01    4.691000e+00
   N4d   SQ4  1 4.300000e-01    6.079000e+00
   N4d   TQ4  1 3.950000e-01    8.530000e+00
   N3d    Q4  1 4.700000e-01    4.497000e+00
   N3d   SQ4  1 4.300000e-01    5.845000e+00
   N3d   TQ4  1 3.950000e-01    8.155000e+00
   N2d    Q4  1 4.700000e-01    4.477000e+00
   N2d   SQ4  1 4.300000e-01    5.774000e+00
   N2d   TQ4  1 3.950000e-01    7.990000e+00
   N1d    Q4  1 4.700000e-01    4.449000e+00
   N1d   SQ4  1 4.300000e-01    5.670000e+00
   N1d   TQ4  1 3.950000e-01    7.751000e+00
   P6a    Q4  1 4.700000e-01    5.719000e+00
   P6a   SQ4  1 4.300000e-01    7.348000e+00
   P6a   TQ4  1 3.950000e-01    1.039900e+01
   P5a    Q4  1 4.700000e-01    5.441000e+00
   P5a   SQ4  1 4.300000e-01    7.001000e+00
   P5a   TQ4  1 3.950000e-01    9.926000e+00
   P4a    Q4  1 4.700000e-01    5.420000e+00
   P4a   SQ4  1 4.300000e-01    6.924000e+00
   P4a   TQ4  1 3.950000e-01    9.746000e+00
   P3a    Q4  1 4.700000e-01    5.407000e+00
   P3a   SQ4  1 4.300000e-01    6.876000e+00
   P3a   TQ4  1 3.950000e-01    9.636000e+00
   P2a    Q4  1 4.700000e-01    5.148000e+00
   P2a   SQ4  1 4.300000e-01    6.612000e+00
   P2a   TQ4  1 3.950000e-01    9.318000e+00
   P1a    Q4  1 4.700000e-01    4.911000e+00
   P1a   SQ4  1 4.300000e-01    6.386000e+00
   P1a   TQ4  1 3.950000e-01    9.018000e+00
   N6a    Q4  1 4.700000e-01    4.903000e+00
   N6a   SQ4  1 4.300000e-01    6.356000e+00
   N6a   TQ4  1 3.950000e-01    8.949000e+00
   N5a    Q4  1 4.700000e-01    4.893000e+00
   N5a   SQ4  1 4.300000e-01    6.321000e+00
   N5a   TQ4  1 3.950000e-01    8.868000e+00
   N4a    Q4  1 4.700000e-01    4.691000e+00
   N4a   SQ4  1 4.300000e-01    6.079000e+00
   N4a   TQ4  1 3.950000e-01    8.530000e+00
   N3a    Q4  1 4.700000e-01    4.497000e+00
   N3a   SQ4  1 4.300000e-01    5.845000e+00
   N3a   TQ4  1 3.950000e-01    8.155000e+00
   N2a    Q4  1 4.700000e-01    4.477000e+00
   N2a   SQ4  1 4.300000e-01    5.774000e+00
   N2a   TQ4  1 3.950000e-01    7.990000e+00
   N1a    Q4  1 4.700000e-01    4.449000e+00
   N1a   SQ4  1 4.300000e-01    5.670000e+00
   N1a   TQ4  1 3.950000e-01    7.751000e+00
   C6v    Q4  1 4.700000e-01    3.913000e+00
   C6v   SQ4  1 4.300000e-01    4.834000e+00
   C6v   TQ4  1 3.950000e-01    6.736000e+00
   C5v    Q4  1 4.700000e-01    3.448000e+00
   C5v   SQ4  1 4.300000e-01    4.103000e+00
   C5v   TQ4  1 3.950000e-01    5.794000e+00
   C4v    Q4  1 4.700000e-01    3.225000e+00
   C4v   SQ4  1 4.300000e-01    3.749000e+00
   C4v   TQ4  1 3.980000e-01    5.098000e+00
   C3v    Q4  1 4.700000e-01    2.967000e+00
   C3v   SQ4  1 4.300000e-01    3.199000e+00
   C3v   TQ4  1 3.990000e-01    4.085000e+00
   C2v    Q4  1 5.200000e-01    2.371000e+00
   C2v   SQ4  1 4.730000e-01    2.202000e+00
   C2v   TQ4  1 4.650000e-01    2.695000e+00
   C1v    Q4  1 5.200000e-01    2.276000e+00
   C1v   SQ4  1 4.730000e-01    1.855000e+00
   C1v   TQ4  1 4.650000e-01    1.945000e+00
   X4v    Q4  1 4.700000e-01    3.789000e+00
   X4v   SQ4  1 4.300000e-01    4.778000e+00
   X4v   TQ4  1 3.950000e-01    6.754000e+00
   X3v    Q4  1 4.700000e-01    3.593000e+00
   X3v   SQ4  1 4.300000e-01    4.444000e+00
   X3v   TQ4  1 3.950000e-01    6.276000e+00
   X2v    Q4  1 4.700000e-01    3.424000e+00
   X2v   SQ4  1 4.300000e-01    4.017000e+00
   X2v   TQ4  1 3.950000e-01    5.594000e+00
   X1v    Q4  1 4.700000e-01    3.137000e+00
   X1v   SQ4  1 4.300000e-01    3.429000e+00
   X1v   TQ4  1 3.980000e-01    4.362000e+00
   C6e    Q4  1 4.700000e-01    3.913000e+00
   C6e   SQ4  1 4.300000e-01    4.834000e+00
   C6e   TQ4  1 3.950000e-01    6.736000e+00
   C5e    Q4  1 4.700000e-01    3.448000e+00
   C5e   SQ4  1 4.300000e-01    4.103000e+00
   C5e   TQ4  1 3.950000e-01    5.794000e+00
   C4e    Q4  1 4.700000e-01    3.225000e+00
   C4e   SQ4  1 4.300000e-01    3.749000e+00
   C4e   TQ4  1 3.980000e-01    5.098000e+00
   C3e    Q4  1 4.700000e-01    2.967000e+00
   C3e   SQ4  1 4.300000e-01    3.199000e+00
   C3e   TQ4  1 3.990000e-01    4.085000e+00
   C2e    Q4  1 5.200000e-01    2.371000e+00
   C2e   SQ4  1 4.730000e-01    2.202000e+00
   C2e   TQ4  1 4.650000e-01    2.695000e+00
   C1e    Q4  1 5.200000e-01    2.276000e+00
   C1e   SQ4  1 4.730000e-01    1.855000e+00
   C1e   TQ4  1 4.650000e-01    1.945000e+00
   X4e    Q4  1 4.700000e-01    3.789000e+00
   X4e   SQ4  1 4.300000e-01    4.778000e+00
   X4e   TQ4  1 3.950000e-01    6.754000e+00
   X3e    Q4  1 4.700000e-01    3.593000e+00
   X3e   SQ4  1 4.300000e-01    4.444000e+00
   X3e   TQ4  1 3.950000e-01    6.276000e+00
   X2e    Q4  1 4.700000e-01    3.424000e+00
   X2e   SQ4  1 4.300000e-01    4.017000e+00
   X2e   TQ4  1 3.950000e-01    5.594000e+00
   X1e    Q4  1 4.700000e-01    3.137000e+00
   X1e   SQ4  1 4.300000e-01    3.429000e+00
   X1e   TQ4  1 3.980000e-01    4.362000e+00
   P6q    Q4  1 4.700000e-01    6.519000e+00
   P6q   SQ4  1 4.300000e-01    8.178000e+00
   P6q   TQ4  1 3.950000e-01    1.143900e+01
   P5q    Q4  1 4.700000e-01    6.201000e+00
   P5q   SQ4  1 4.300000e-01    7.811000e+00
   P5q   TQ4  1 3.950000e-01    1.088600e+01
   P4q    Q4  1 4.700000e-01    6.180000e+00
   P4q   SQ4  1 4.300000e-01    7.734000e+00
   P4q   TQ4  1 3.950000e-01    1.070600e+01
   P3q    Q4  1 4.700000e-01    6.167000e+00
   P3q   SQ4  1 4.300000e-01    7.686000e+00
   P3q   TQ4  1 3.950000e-01    1.059600e+01
   P2q    Q4  1 4.700000e-01    5.908000e+00
   P2q   SQ4  1 4.300000e-01    7.362000e+00
   P2q   TQ4  1 3.950000e-01    1.018800e+01
   P1q    Q4  1 4.700000e-01    5.651000e+00
   P1q   SQ4  1 4.300000e-01    7.096000e+00
   P1q   TQ4  1 3.950000e-01    9.818000e+00
   N6q    Q4  1 4.700000e-01    5.643000e+00
   N6q   SQ4  1 4.300000e-01    7.066000e+00
   N6q   TQ4  1 3.950000e-01    9.749000e+00
   N5q    Q4  1 4.700000e-01    5.633000e+00
   N5q   SQ4  1 4.300000e-01    7.031000e+00
   N5q   TQ4  1 3.950000e-01    9.668000e+00
   N4q    Q4  1 4.700000e-01    5.361000e+00
   N4q   SQ4  1 4.300000e-01    6.709000e+00
   N4q   TQ4  1 3.950000e-01    9.250000e+00
   N3q    Q4  1 4.700000e-01    5.097000e+00
   N3q   SQ4  1 4.300000e-01    6.425000e+00
   N3q   TQ4  1 3.950000e-01    8.885000e+00
   N2q    Q4  1 4.700000e-01    5.077000e+00
   N2q   SQ4  1 4.300000e-01    6.354000e+00
   N2q   TQ4  1 3.950000e-01    8.720000e+00
   N1q    Q4  1 4.700000e-01    5.049000e+00
   N1q   SQ4  1 4.300000e-01    6.250000e+00
   N1q   TQ4  1 3.950000e-01    8.481000e+00
   C6q    Q4  1 4.700000e-01    4.213000e+00
   C6q   SQ4  1 4.300000e-01    5.294000e+00
   C6q   TQ4  1 3.950000e-01    7.126000e+00
   C5q    Q4  1 4.700000e-01    3.728000e+00
   C5q   SQ4  1 4.300000e-01    4.553000e+00
   C5q   TQ4  1 3.950000e-01    6.234000e+00
   C4q    Q4  1 4.700000e-01    3.505000e+00
   C4q   SQ4  1 4.300000e-01    4.119000e+00
   C4q   TQ4  1 3.950000e-01    5.525000e+00
   C3q    Q4  1 4.700000e-01    3.307000e+00
   C3q   SQ4  1 4.300000e-01    3.589000e+00
   C3q   TQ4  1 3.950000e-01    4.605000e+00
   C2q    Q4  1 4.700000e-01    2.717000e+00
   C2q   SQ4  1 4.300000e-01    2.744000e+00
   C2q   TQ4  1 4.010000e-01    3.293000e+00
   C1q    Q4  1 4.700000e-01    2.613000e+00
   C1q   SQ4  1 4.300000e-01    2.362000e+00
   C1q   TQ4  1 4.010000e-01    2.424000e+00
   X4q    Q4  1 4.700000e-01    4.069000e+00
   X4q   SQ4  1 4.300000e-01    5.168000e+00
   X4q   TQ4  1 3.950000e-01    7.144000e+00
   X3q    Q4  1 4.700000e-01    3.913000e+00
   X3q   SQ4  1 4.300000e-01    4.834000e+00
   X3q   TQ4  1 3.950000e-01    6.736000e+00
   X2q    Q4  1 4.700000e-01    3.704000e+00
   X2q   SQ4  1 4.300000e-01    4.467000e+00
   X2q   TQ4  1 3.950000e-01    6.034000e+00
   X1q    Q4  1 4.700000e-01    3.417000e+00
   X1q   SQ4  1 4.300000e-01    3.799000e+00
   X1q   TQ4  1 3.950000e-01    4.785000e+00
  P6dq    Q4  1 4.700000e-01    6.519000e+00
  P6dq   SQ4  1 4.300000e-01    8.178000e+00
  P6dq   TQ4  1 3.950000e-01    1.143900e+01
  P5dq    Q4  1 4.700000e-01    6.201000e+00
  P5dq   SQ4  1 4.300000e-01    7.811000e+00
  P5dq   TQ4  1 3.950000e-01    1.088600e+01
  P4dq    Q4  1 4.700000e-01    6.180000e+00
  P4dq   SQ4  1 4.300000e-01    7.734000e+00
  P4dq   TQ4  1 3.950000e-01    1.070600e+01
  P3dq    Q4  1 4.700000e-01    6.167000e+00
  P3dq   SQ4  1 4.300000e-01    7.686000e+00
  P3dq   TQ4  1 3.950000e-01    1.059600e+01
  P2dq    Q4  1 4.700000e-01    5.908000e+00
  P2dq   SQ4  1 4.300000e-01    7.362000e+00
  P2dq   TQ4  1 3.950000e-01    1.018800e+01
  P1dq    Q4  1 4.700000e-01    5.651000e+00
  P1dq   SQ4  1 4.300000e-01    7.096000e+00
  P1dq   TQ4  1 3.950000e-01    9.818000e+00
  N6dq    Q4  1 4.700000e-01    5.643000e+00
  N6dq   SQ4  1 4.300000e-01    7.066000e+00
  N6dq   TQ4  1 3.950000e-01    9.749000e+00
  N5dq    Q4  1 4.700000e-01    5.633000e+00
  N5dq   SQ4  1 4.300000e-01    7.031000e+00
  N5dq   TQ4  1 3.950000e-01    9.668000e+00
  N4dq    Q4  1 4.700000e-01    5.361000e+00
  N4dq   SQ4  1 4.300000e-01    6.709000e+00
  N4dq   TQ4  1 3.950000e-01    9.250000e+00
  N3dq    Q4  1 4.700000e-01    5.097000e+00
  N3dq   SQ4  1 4.300000e-01    6.425000e+00
  N3dq   TQ4  1 3.950000e-01    8.885000e+00
  N2dq    Q4  1 4.700000e-01    5.077000e+00
  N2dq   SQ4  1 4.300000e-01    6.354000e+00
  N2dq   TQ4  1 3.950000e-01    8.720000e+00
  N1dq    Q4  1 4.700000e-01    5.049000e+00
  N1dq   SQ4  1 4.300000e-01    6.250000e+00
  N1dq   TQ4  1 3.950000e-01    8.481000e+00
  P6aq    Q4  1 4.700000e-01    6.519000e+00
  P6aq   SQ4  1 4.300000e-01    8.178000e+00
  P6aq   TQ4  1 3.950000e-01    1.143900e+01
  P5aq    Q4  1 4.700000e-01    6.201000e+00
  P5aq   SQ4  1 4.300000e-01    7.811000e+00
  P5aq   TQ4  1 3.950000e-01    1.088600e+01
  P4aq    Q4  1 4.700000e-01    6.180000e+00
  P4aq   SQ4  1 4.300000e-01    7.734000e+00
  P4aq   TQ4  1 3.950000e-01    1.070600e+01
  P3aq    Q4  1 4.700000e-01    6.167000e+00
  P3aq   SQ4  1 4.300000e-01    7.686000e+00
  P3aq   TQ4  1 3.950000e-01    1.059600e+01
  P2aq    Q4  1 4.700000e-01    5.908000e+00
  P2aq   SQ4  1 4.300000e-01    7.362000e+00
  P2aq   TQ4  1 3.950000e-01    1.018800e+01
  P1aq    Q4  1 4.700000e-01    5.651000e+00
  P1aq   SQ4  1 4.300000e-01    7.096000e+00
  P1aq   TQ4  1 3.950000e-01    9.818000e+00
  N6aq    Q4  1 4.700000e-01    5.643000e+00
  N6aq   SQ4  1 4.300000e-01    7.066000e+00
  N6aq   TQ4  1 3.950000e-01    9.749000e+00
  N5aq    Q4  1 4.700000e-01    5.633000e+00
  N5aq   SQ4  1 4.300000e-01    7.031000e+00
  N5aq   TQ4  1 3.950000e-01    9.668000e+00
  N4aq    Q4  1 4.700000e-01    5.361000e+00
  N4aq   SQ4  1 4.300000e-01    6.709000e+00
  N4aq   TQ4  1 3.950000e-01    9.250000e+00
  N3aq    Q4  1 4.700000e-01    5.097000e+00
  N3aq   SQ4  1 4.300000e-01    6.425000e+00
  N3aq   TQ4  1 3.950000e-01    8.885000e+00
  N2aq    Q4  1 4.700000e-01    5.077000e+00
  N2aq   SQ4  1 4.300000e-01    6.354000e+00
  N2aq   TQ4  1 3.950000e-01    8.720000e+00
  N1aq    Q4  1 4.700000e-01    5.049000e+00
  N1aq   SQ4  1 4.300000e-01    6.250000e+00
  N1aq   TQ4  1 3.950000e-01    8.481000e+00
  C6vq    Q4  1 4.700000e-01    4.403000e+00
  C6vq   SQ4  1 4.300000e-01    5.504000e+00
  C6vq   TQ4  1 3.950000e-01    7.366000e+00
  C5vq    Q4  1 4.700000e-01    3.878000e+00
  C5vq   SQ4  1 4.300000e-01    4.703000e+00
  C5vq   TQ4  1 3.950000e-01    6.434000e+00
  C4vq    Q4  1 4.700000e-01    3.675000e+00
  C4vq   SQ4  1 4.300000e-01    4.359000e+00
  C4vq   TQ4  1 3.950000e-01    5.785000e+00
  C3vq    Q4  1 4.700000e-01    3.417000e+00
  C3vq   SQ4  1 4.300000e-01    3.799000e+00
  C3vq   TQ4  1 3.950000e-01    4.785000e+00
  C2vq    Q4  1 4.700000e-01    2.897000e+00
  C2vq   SQ4  1 4.300000e-01    2.944000e+00
  C2vq   TQ4  1 3.990000e-01    3.501000e+00
  C1vq    Q4  1 4.700000e-01    2.793000e+00
  C1vq   SQ4  1 4.300000e-01    2.562000e+00
  C1vq   TQ4  1 3.990000e-01    2.628000e+00
  X4vq    Q4  1 4.700000e-01    4.239000e+00
  X4vq   SQ4  1 4.300000e-01    5.388000e+00
  X4vq   TQ4  1 3.950000e-01    7.344000e+00
  X3vq    Q4  1 4.700000e-01    4.043000e+00
  X3vq   SQ4  1 4.300000e-01    5.074000e+00
  X3vq   TQ4  1 3.950000e-01    6.926000e+00
  X2vq    Q4  1 4.700000e-01    3.854000e+00
  X2vq   SQ4  1 4.300000e-01    4.617000e+00
  X2vq   TQ4  1 3.950000e-01    6.234000e+00
  X1vq    Q4  1 4.700000e-01    3.587000e+00
  X1vq   SQ4  1 4.300000e-01    4.039000e+00
  X1vq   TQ4  1 3.950000e-01    5.045000e+00
  C6eq    Q4  1 4.700000e-01    4.403000e+00
  C6eq   SQ4  1 4.300000e-01    5.504000e+00
  C6eq   TQ4  1 3.950000e-01    7.366000e+00
  C5eq    Q4  1 4.700000e-01    3.878000e+00
  C5eq   SQ4  1 4.300000e-01    4.703000e+00
  C5eq   TQ4  1 3.950000e-01    6.434000e+00
  C4eq    Q4  1 4.700000e-01    3.675000e+00
  C4eq   SQ4  1 4.300000e-01    4.359000e+00
  C4eq   TQ4  1 3.950000e-01    5.785000e+00
  C3eq    Q4  1 4.700000e-01    3.417000e+00
  C3eq   SQ4  1 4.300000e-01    3.799000e+00
  C3eq   TQ4  1 3.950000e-01    4.785000e+00
  C2eq    Q4  1 4.700000e-01    2.897000e+00
  C2eq   SQ4  1 4.300000e-01    2.944000e+00
  C2eq   TQ4  1 3.990000e-01    3.501000e+00
  C1eq    Q4  1 4.700000e-01    2.793000e+00
  C1eq   SQ4  1 4.300000e-01    2.562000e+00
  C1eq   TQ4  1 3.990000e-01    2.628000e+00
  X4eq    Q4  1 4.700000e-01    4.239000e+00
  X4eq   SQ4  1 4.300000e-01    5.388000e+00
  X4eq   TQ4  1 3.950000e-01    7.344000e+00
  X3eq    Q4  1 4.700000e-01    4.043000e+00
  X3eq   SQ4  1 4.300000e-01    5.074000e+00
  X3eq   TQ4  1 3.950000e-01    6.926000e+00
  X2eq    Q4  1 4.700000e-01    3.854000e+00
  X2eq   SQ4  1 4.300000e-01    4.617000e+00
  X2eq   TQ4  1 3.950000e-01    6.234000e+00
  X1eq    Q4  1 4.700000e-01    3.587000e+00
  X1eq   SQ4  1 4.300000e-01    4.039000e+00
  X1eq   TQ4  1 3.950000e-01    5.045000e+00
   P6h    Q4  1 4.700000e-01    5.719000e+00
   P6h   SQ4  1 4.300000e-01    7.348000e+00
   P6h   TQ4  1 3.950000e-01    1.039900e+01
   P5h    Q4  1 4.700000e-01    5.441000e+00
   P5h   SQ4  1 4.300000e-01    7.001000e+00
   P5h   TQ4  1 3.950000e-01    9.926000e+00
   P4h    Q4  1 4.700000e-01    5.420000e+00
   P4h   SQ4  1 4.300000e-01    6.924000e+00
   P4h   TQ4  1 3.950000e-01    9.746000e+00
   P3h    Q4  1 4.700000e-01    5.407000e+00
   P3h   SQ4  1 4.300000e-01    6.876000e+00
   P3h   TQ4  1 3.950000e-01    9.636000e+00
   P2h    Q4  1 4.700000e-01    5.148000e+00
   P2h   SQ4  1 4.300000e-01    6.612000e+00
   P2h   TQ4  1 3.950000e-01    9.318000e+00
   P1h    Q4  1 4.700000e-01    4.911000e+00
   P1h   SQ4  1 4.300000e-01    6.386000e+00
   P1h   TQ4  1 3.950000e-01    9.018000e+00
   N6h    Q4  1 4.700000e-01    4.903000e+00
   N6h   SQ4  1 4.300000e-01    6.356000e+00
   N6h   TQ4  1 3.950000e-01    8.949000e+00
   N5h    Q4  1 4.700000e-01    4.893000e+00
   N5h   SQ4  1 4.300000e-01    6.321000e+00
   N5h   TQ4  1 3.950000e-01    8.868000e+00
   N4h    Q4  1 4.700000e-01    4.691000e+00
   N4h   SQ4  1 4.300000e-01    6.079000e+00
   N4h   TQ4  1 3.950000e-01    8.530000e+00
   N3h    Q4  1 4.700000e-01    4.497000e+00
   N3h   SQ4  1 4.300000e-01    5.845000e+00
   N3h   TQ4  1 3.950000e-01    8.155000e+00
   N2h    Q4  1 4.700000e-01    4.477000e+00
   N2h   SQ4  1 4.300000e-01    5.774000e+00
   N2h   TQ4  1 3.950000e-01    7.990000e+00
   N1h    Q4  1 4.700000e-01    4.449000e+00
   N1h   SQ4  1 4.300000e-01    5.670000e+00
   N1h   TQ4  1 3.950000e-01    7.751000e+00
   C6h    Q4  1 4.700000e-01    3.763000e+00
   C6h   SQ4  1 4.300000e-01    4.684000e+00
   C6h   TQ4  1 3.950000e-01    6.536000e+00
   C5h    Q4  1 4.700000e-01    3.278000e+00
   C5h   SQ4  1 4.300000e-01    3.943000e+00
   C5h   TQ4  1 3.980000e-01    5.543000e+00
   C4h    Q4  1 4.700000e-01    3.055000e+00
   C4h   SQ4  1 4.300000e-01    3.519000e+00
   C4h   TQ4  1 3.990000e-01    4.819000e+00
   C3h    Q4  1 4.700000e-01    2.787000e+00
   C3h   SQ4  1 4.300000e-01    2.999000e+00
   C3h   TQ4  1 4.010000e-01    3.874000e+00
   C2h    Q4  1 5.700000e-01    2.229000e+00
   C2h   SQ4  1 5.140000e-01    1.958000e+00
   C2h   TQ4  1 5.110000e-01    2.472000e+00
   C1h    Q4  1 5.700000e-01    2.143000e+00
   C1h   SQ4  1 5.140000e-01    1.639000e+00
   C1h   TQ4  1 5.110000e-01    1.790000e+00
   X4h    Q4  1 4.700000e-01    3.619000e+00
   X4h   SQ4  1 4.300000e-01    4.538000e+00
   X4h   TQ4  1 3.950000e-01    6.494000e+00
   X3h    Q4  1 4.700000e-01    3.483000e+00
   X3h   SQ4  1 4.300000e-01    4.234000e+00
   X3h   TQ4  1 3.950000e-01    6.096000e+00
   X2h    Q4  1 4.700000e-01    3.254000e+00
   X2h   SQ4  1 4.300000e-01    3.857000e+00
   X2h   TQ4  1 3.980000e-01    5.344000e+00
   X1h    Q4  1 4.700000e-01    2.967000e+00
   X1h   SQ4  1 4.300000e-01    3.199000e+00
   X1h   TQ4  1 3.990000e-01    4.085000e+00
  P6dh    Q4  1 4.700000e-01    5.719000e+00
  P6dh   SQ4  1 4.300000e-01    7.348000e+00
  P6dh   TQ4  1 3.950000e-01    1.039900e+01
  P5dh    Q4  1 4.700000e-01    5.441000e+00
  P5dh   SQ4  1 4.300000e-01    7.001000e+00
  P5dh   TQ4  1 3.950000e-01    9.926000e+00
  P4dh    Q4  1 4.700000e-01    5.420000e+00
  P4dh   SQ4  1 4.300000e-01    6.924000e+00
  P4dh   TQ4  1 3.950000e-01    9.746000e+00
  P3dh    Q4  1 4.700000e-01    5.407000e+00
  P3dh   SQ4  1 4.300000e-01    6.876000e+00
  P3dh   TQ4  1 3.950000e-01    9.636000e+00
  P2dh    Q4  1 4.700000e-01    5.148000e+00
  P2dh   SQ4  1 4.300000e-01    6.612000e+00
  P2dh   TQ4  1 3.950000e-01    9.318000e+00
  P1dh    Q4  1 4.700000e-01    4.911000e+00
  P1dh   SQ4  1 4.300000e-01    6.386000e+00
  P1dh   TQ4  1 3.950000e-01    9.018000e+00
  N6dh    Q4  1 4.700000e-01    4.903000e+00
  N6dh   SQ4  1 4.300000e-01    6.356000e+00
  N6dh   TQ4  1 3.950000e-01    8.949000e+00
  N5dh    Q4  1 4.700000e-01    4.893000e+00
  N5dh   SQ4  1 4.300000e-01    6.321000e+00
  N5dh   TQ4  1 3.950000e-01    8.868000e+00
  N4dh    Q4  1 4.700000e-01    4.691000e+00
  N4dh   SQ4  1 4.300000e-01    6.079000e+00
  N4dh   TQ4  1 3.950000e-01    8.530000e+00
  N3dh    Q4  1 4.700000e-01    4.497000e+00
  N3dh   SQ4  1 4.300000e-01    5.845000e+00
  N3dh   TQ4  1 3.950000e-01    8.155000e+00
  N2dh    Q4  1 4.700000e-01    4.477000e+00
  N2dh   SQ4  1 4.300000e-01    5.774000e+00
  N2dh   TQ4  1 3.950000e-01    7.990000e+00
  N1dh    Q4  1 4.700000e-01    4.449000e+00
  N1dh   SQ4  1 4.300000e-01    5.670000e+00
  N1dh   TQ4  1 3.950000e-01    7.751000e+00
  P6ah    Q4  1 4.700000e-01    5.719000e+00
  P6ah   SQ4  1 4.300000e-01    7.348000e+00
  P6ah   TQ4  1 3.950000e-01    1.039900e+01
  P5ah    Q4  1 4.700000e-01    5.441000e+00
  P5ah   SQ4  1 4.300000e-01    7.001000e+00
  P5ah   TQ4  1 3.950000e-01    9.926000e+00
  P4ah    Q4  1 4.700000e-01    5.420000e+00
  P4ah   SQ4  1 4.300000e-01    6.924000e+00
  P4ah   TQ4  1 3.950000e-01    9.746000e+00
  P3ah    Q4  1 4.700000e-01    5.407000e+00
  P3ah   SQ4  1 4.300000e-01    6.876000e+00
  P3ah   TQ4  1 3.950000e-01    9.636000e+00
  P2ah    Q4  1 4.700000e-01    5.148000e+00
  P2ah   SQ4  1 4.300000e-01    6.612000e+00
  P2ah   TQ4  1 3.950000e-01    9.318000e+00
  P1ah    Q4  1 4.700000e-01    4.911000e+00
  P1ah   SQ4  1 4.300000e-01    6.386000e+00
  P1ah   TQ4  1 3.950000e-01    9.018000e+00
  N6ah    Q4  1 4.700000e-01    4.903000e+00
  N6ah   SQ4  1 4.300000e-01    6.356000e+00
  N6ah   TQ4  1 3.950000e-01    8.949000e+00
  N5ah    Q4  1 4.700000e-01    4.893000e+00
  N5ah   SQ4  1 4.300000e-01    6.321000e+00
  N5ah   TQ4  1 3.950000e-01    8.868000e+00
  N4ah    Q4  1 4.700000e-01    4.691000e+00
  N4ah   SQ4  1 4.300000e-01    6.079000e+00
  N4ah   TQ4  1 3.950000e-01    8.530000e+00
  N3ah    Q4  1 4.700000e-01    4.497000e+00
  N3ah   SQ4  1 4.300000e-01    5.845000e+00
  N3ah   TQ4  1 3.950000e-01    8.155000e+00
  N2ah    Q4  1 4.700000e-01    4.477000e+00
  N2ah   SQ4  1 4.300000e-01    5.774000e+00
  N2ah   TQ4  1 3.950000e-01    7.990000e+00
  N1ah    Q4  1 4.700000e-01    4.449000e+00
  N1ah   SQ4  1 4.300000e-01    5.670000e+00
  N1ah   TQ4  1 3.950000e-01    7.751000e+00
  C6vh    Q4  1 4.700000e-01    3.913000e+00
  C6vh   SQ4  1 4.300000e-01    4.834000e+00
  C6vh   TQ4  1 3.950000e-01    6.736000e+00
  C5vh    Q4  1 4.700000e-01    3.448000e+00
  C5vh   SQ4  1 4.300000e-01    4.103000e+00
  C5vh   TQ4  1 3.950000e-01    5.794000e+00
  C4vh    Q4  1 4.700000e-01    3.225000e+00
  C4vh   SQ4  1 4.300000e-01    3.749000e+00
  C4vh   TQ4  1 3.980000e-01    5.098000e+00
  C3vh    Q4  1 4.700000e-01    2.967000e+00
  C3vh   SQ4  1 4.300000e-01    3.199000e+00
  C3vh   TQ4  1 3.990000e-01    4.085000e+00
  C2vh    Q4  1 5.200000e-01    2.371000e+00
  C2vh   SQ4  1 4.730000e-01    2.202000e+00
  C2vh   TQ4  1 4.650000e-01    2.695000e+00
  C1vh    Q4  1 5.200000e-01    2.276000e+00
  C1vh   SQ4  1 4.730000e-01    1.855000e+00
  C1vh   TQ4  1 4.650000e-01    1.945000e+00
  X4vh    Q4  1 4.700000e-01    3.789000e+00
  X4vh   SQ4  1 4.300000e-01    4.778000e+00
  X4vh   TQ4  1 3.950000e-01    6.754000e+00
  X3vh    Q4  1 4.700000e-01    3.593000e+00
  X3vh   SQ4  1 4.300000e-01    4.444000e+00
  X3vh   TQ4  1 3.950000e-01    6.276000e+00
  X2vh    Q4  1 4.700000e-01    3.424000e+00
  X2vh   SQ4  1 4.300000e-01    4.017000e+00
  X2vh   TQ4  1 3.950000e-01    5.594000e+00
  X1vh    Q4  1 4.700000e-01    3.137000e+00
  X1vh   SQ4  1 4.300000e-01    3.429000e+00
  X1vh   TQ4  1 3.980000e-01    4.362000e+00
  C6eh    Q4  1 4.700000e-01    3.913000e+00
  C6eh   SQ4  1 4.300000e-01    4.834000e+00
  C6eh   TQ4  1 3.950000e-01    6.736000e+00
  C5eh    Q4  1 4.700000e-01    3.448000e+00
  C5eh   SQ4  1 4.300000e-01    4.103000e+00
  C5eh   TQ4  1 3.950000e-01    5.794000e+00
  C4eh    Q4  1 4.700000e-01    3.225000e+00
  C4eh   SQ4  1 4.300000e-01    3.749000e+00
  C4eh   TQ4  1 3.980000e-01    5.098000e+00
  C3eh    Q4  1 4.700000e-01    2.967000e+00
  C3eh   SQ4  1 4.300000e-01    3.199000e+00
  C3eh   TQ4  1 3.990000e-01    4.085000e+00
  C2eh    Q4  1 5.200000e-01    2.371000e+00
  C2eh   SQ4  1 4.730000e-01    2.202000e+00
  C2eh   TQ4  1 4.650000e-01    2.695000e+00
  C1eh    Q4  1 5.200000e-01    2.276000e+00
  C1eh   SQ4  1 4.730000e-01    1.855000e+00
  C1eh   TQ4  1 4.650000e-01    1.945000e+00
  X4eh    Q4  1 4.700000e-01    3.789000e+00
  X4eh   SQ4  1 4.300000e-01    4.778000e+00
  X4eh   TQ4  1 3.950000e-01    6.754000e+00
  X3eh    Q4  1 4.700000e-01    3.593000e+00
  X3eh   SQ4  1 4.300000e-01    4.444000e+00
  X3eh   TQ4  1 3.950000e-01    6.276000e+00
  X2eh    Q4  1 4.700000e-01    3.424000e+00
  X2eh   SQ4  1 4.300000e-01    4.017000e+00
  X2eh   TQ4  1 3.950000e-01    5.594000e+00
  X1eh    Q4  1 4.700000e-01    3.137000e+00
  X1eh   SQ4  1 4.300000e-01    3.429000e+00
  X1eh   TQ4  1 3.980000e-01    4.362000e+00
   P6r    Q4  1 4.700000e-01    5.719000e+00
   P6r   SQ4  1 4.300000e-01    7.348000e+00
   P6r   TQ4  1 3.950000e-01    1.039900e+01
   P5r    Q4  1 4.700000e-01    5.441000e+00
   P5r   SQ4  1 4.300000e-01    7.001000e+00
   P5r   TQ4  1 3.950000e-01    9.926000e+00
   P4r    Q4  1 4.700000e-01    5.420000e+00
   P4r   SQ4  1 4.300000e-01    6.924000e+00
   P4r   TQ4  1 3.950000e-01    9.746000e+00
   P3r    Q4  1 4.700000e-01    5.407000e+00
   P3r   SQ4  1 4.300000e-01    6.876000e+00
   P3r   TQ4  1 3.950000e-01    9.636000e+00
   P2r    Q4  1 4.700000e-01    5.148000e+00
   P2r   SQ4  1 4.300000e-01    6.612000e+00
   P2r   TQ4  1 3.950000e-01    9.318000e+00
   P1r    Q4  1 4.700000e-01    4.911000e+00
   P1r   SQ4  1 4.300000e-01    6.386000e+00
   P1r   TQ4  1 3.950000e-01    9.018000e+00
   N6r    Q4  1 4.700000e-01    4.903000e+00
   N6r   SQ4  1 4.300000e-01    6.356000e+00
   N6r   TQ4  1 3.950000e-01    8.949000e+00
   N5r    Q4  1 4.700000e-01    4.893000e+00
   N5r   SQ4  1 4.300000e-01    6.321000e+00
   N5r   TQ4  1 3.950000e-01    8.868000e+00
   N4r    Q4  1 4.700000e-01    4.691000e+00
   N4r   SQ4  1 4.300000e-01    6.079000e+00
   N4r   TQ4  1 3.950000e-01    8.530000e+00
   N3r    Q4  1 4.700000e-01    4.497000e+00
   N3r   SQ4  1 4.300000e-01    5.845000e+00
   N3r   TQ4  1 3.950000e-01    8.155000e+00
   N2r    Q4  1 4.700000e-01    4.477000e+00
   N2r   SQ4  1 4.300000e-01    5.774000e+00
   N2r   TQ4  1 3.950000e-01    7.990000e+00
   N1r    Q4  1 4.700000e-01    4.449000e+00
   N1r   SQ4  1 4.300000e-01    5.670000e+00
   N1r   TQ4  1 3.950000e-01    7.751000e+00
   C6r    Q4  1 4.700000e-01    3.763000e+00
   C6r   SQ4  1 4.300000e-01    4.684000e+00
   C6r   TQ4  1 3.950000e-01    6.536000e+00
   C5r    Q4  1 4.700000e-01    3.278000e+00
   C5r   SQ4  1 4.300000e-01    3.943000e+00
   C5r   TQ4  1 3.980000e-01    5.543000e+00
   C4r    Q4  1 4.700000e-01    3.055000e+00
   C4r   SQ4  1 4.300000e-01    3.519000e+00
   C4r   TQ4  1 3.990000e-01    4.819000e+00
   C3r    Q4  1 4.700000e-01    2.787000e+00
   C3r   SQ4  1 4.300000e-01    2.999000e+00
   C3r   TQ4  1 4.010000e-01    3.874000e+00
   C2r    Q4  1 5.700000e-01    2.229000e+00
   C2r   SQ4  1 5.140000e-01    1.958000e+00
   C2r   TQ4  1 5.110000e-01    2.472000e+00
   C1r    Q4  1 5.700000e-01    2.143000e+00
   C1r   SQ4  1 5.140000e-01    1.639000e+00
   C1r   TQ4  1 5.110000e-01    1.790000e+00
   X4r    Q4  1 4.700000e-01    3.619000e+00
   X4r   SQ4  1 4.300000e-01    4.538000e+00
   X4r   TQ4  1 3.950000e-01    6.494000e+00
   X3r    Q4  1 4.700000e-01    3.483000e+00
   X3r   SQ4  1 4.300000e-01    4.234000e+00
   X3r   TQ4  1 3.950000e-01    6.096000e+00
   X2r    Q4  1 4.700000e-01    3.254000e+00
   X2r   SQ4  1 4.300000e-01    3.857000e+00
   X2r   TQ4  1 3.980000e-01    5.344000e+00
   X1r    Q4  1 4.700000e-01    2.967000e+00
   X1r   SQ4  1 4.300000e-01    3.199000e+00
   X1r   TQ4  1 3.990000e-01    4.085000e+00
  P6dr    Q4  1 4.700000e-01    5.719000e+00
  P6dr   SQ4  1 4.300000e-01    7.348000e+00
  P6dr   TQ4  1 3.950000e-01    1.039900e+01
  P5dr    Q4  1 4.700000e-01    5.441000e+00
  P5dr   SQ4  1 4.300000e-01    7.001000e+00
  P5dr   TQ4  1 3.950000e-01    9.926000e+00
  P4dr    Q4  1 4.700000e-01    5.420000e+00
  P4dr   SQ4  1 4.300000e-01    6.924000e+00
  P4dr   TQ4  1 3.950000e-01    9.746000e+00
  P3dr    Q4  1 4.700000e-01    5.407000e+00
  P3dr   SQ4  1 4.300000e-01    6.876000e+00
  P3dr   TQ4  1 3.950000e-01    9.636000e+00
  P2dr    Q4  1 4.700000e-01    5.148000e+00
  P2dr   SQ4  1 4.300000e-01    6.612000e+00
  P2dr   TQ4  1 3.950000e-01    9.318000e+00
  P1dr    Q4  1 4.700000e-01    4.911000e+00
  P1dr   SQ4  1 4.300000e-01    6.386000e+00
  P1dr   TQ4  1 3.950000e-01    9.018000e+00
  N6dr    Q4  1 4.700000e-01    4.903000e+00
  N6dr   SQ4  1 4.300000e-01    6.356000e+00
  N6dr   TQ4  1 3.950000e-01    8.949000e+00
  N5dr    Q4  1 4.700000e-01    4.893000e+00
  N5dr   SQ4  1 4.300000e-01    6.321000e+00
  N5dr   TQ4  1 3.950000e-01    8.868000e+00
  N4dr    Q4  1 4.700000e-01    4.691000e+00
  N4dr   SQ4  1 4.300000e-01    6.079000e+00
  N4dr   TQ4  1 3.950000e-01    8.530000e+00
  N3dr    Q4  1 4.700000e-01    4.497000e+00
  N3dr   SQ4  1 4.300000e-01    5.845000e+00
  N3dr   TQ4  1 3.950000e-01    8.155000e+00
  N2dr    Q4  1 4.700000e-01    4.477000e+00
  N2dr   SQ4  1 4.300000e-01    5.774000e+00
  N2dr   TQ4  1 3.950000e-01    7.990000e+00
  N1dr    Q4  1 4.700000e-01    4.449000e+00
  N1dr   SQ4  1 4.300000e-01    5.670000e+00
  N1dr   TQ4  1 3.950000e-01    7.751000e+00
  P6ar    Q4  1 4.700000e-01    5.719000e+00
  P6ar   SQ4  1 4.300000e-01    7.348000e+00
  P6ar   TQ4  1 3.950000e-01    1.039900e+01
  P5ar    Q4  1 4.700000e-01    5.441000e+00
  P5ar   SQ4  1 4.300000e-01    7.001000e+00
  P5ar   TQ4  1 3.950000e-01    9.926000e+00
  P4ar    Q4  1 4.700000e-01    5.420000e+00
  P4ar   SQ4  1 4.300000e-01    6.924000e+00
  P4ar   TQ4  1 3.950000e-01    9.746000e+00
  P3ar    Q4  1 4.700000e-01    5.407000e+00
  P3ar   SQ4  1 4.300000e-01    6.876000e+00
  P3ar   TQ4  1 3.950000e-01    9.636000e+00
  P2ar    Q4  1 4.700000e-01    5.148000e+00
  P2ar   SQ4  1 4.300000e-01    6.612000e+00
  P2ar   TQ4  1 3.950000e-01    9.318000e+00
  P1ar    Q4  1 4.700000e-01    4.911000e+00
  P1ar   SQ4  1 4.300000e-01    6.386000e+00
  P1ar   TQ4  1 3.950000e-01    9.018000e+00
  N6ar    Q4  1 4.700000e-01    4.903000e+00
  N6ar   SQ4  1 4.300000e-01    6.356000e+00
  N6ar   TQ4  1 3.950000e-01    8.949000e+00
  N5ar    Q4  1 4.700000e-01    4.893000e+00
  N5ar   SQ4  1 4.300000e-01    6.321000e+00
  N5ar   TQ4  1 3.950000e-01    8.868000e+00
  N4ar    Q4  1 4.700000e-01    4.691000e+00
  N4ar   SQ4  1 4.300000e-01    6.079000e+00
  N4ar   TQ4  1 3.950000e-01    8.530000e+00
  N3ar    Q4  1 4.700000e-01    4.497000e+00
  N3ar   SQ4  1 4.300000e-01    5.845000e+00
  N3ar   TQ4  1 3.950000e-01    8.155000e+00
  N2ar    Q4  1 4.700000e-01    4.477000e+00
  N2ar   SQ4  1 4.300000e-01    5.774000e+00
  N2ar   TQ4  1 3.950000e-01    7.990000e+00
  N1ar    Q4  1 4.700000e-01    4.449000e+00
  N1ar   SQ4  1 4.300000e-01    5.670000e+00
  N1ar   TQ4  1 3.950000e-01    7.751000e+00
  C6vr    Q4  1 4.700000e-01    3.913000e+00
  C6vr   SQ4  1 4.300000e-01    4.834000e+00
  C6vr   TQ4  1 3.950000e-01    6.736000e+00
  C5vr    Q4  1 4.700000e-01    3.448000e+00
  C5vr   SQ4  1 4.300000e-01    4.103000e+00
  C5vr   TQ4  1 3.950000e-01    5.794000e+00
  C4vr    Q4  1 4.700000e-01    3.225000e+00
  C4vr   SQ4  1 4.300000e-01    3.749000e+00
  C4vr   TQ4  1 3.980000e-01    5.098000e+00
  C3vr    Q4  1 4.700000e-01    2.967000e+00
  C3vr   SQ4  1 4.300000e-01    3.199000e+00
  C3vr   TQ4  1 3.990000e-01    4.085000e+00
  C2vr    Q4  1 5.200000e-01    2.371000e+00
  C2vr   SQ4  1 4.730000e-01    2.202000e+00
  C2vr   TQ4  1 4.650000e-01    2.695000e+00
  C1vr    Q4  1 5.200000e-01    2.276000e+00
  C1vr   SQ4  1 4.730000e-01    1.855000e+00
  C1vr   TQ4  1 4.650000e-01    1.945000e+00
  X4vr    Q4  1 4.700000e-01    3.789000e+00
  X4vr   SQ4  1 4.300000e-01    4.778000e+00
  X4vr   TQ4  1 3.950000e-01    6.754000e+00
  X3vr    Q4  1 4.700000e-01    3.593000e+00
  X3vr   SQ4  1 4.300000e-01    4.444000e+00
  X3vr   TQ4  1 3.950000e-01    6.276000e+00
  X2vr    Q4  1 4.700000e-01    3.424000e+00
  X2vr   SQ4  1 4.300000e-01    4.017000e+00
  X2vr   TQ4  1 3.950000e-01    5.594000e+00
  X1vr    Q4  1 4.700000e-01    3.137000e+00
  X1vr   SQ4  1 4.300000e-01    3.429000e+00
  X1vr   TQ4  1 3.980000e-01    4.362000e+00
  C6er    Q4  1 4.700000e-01    3.913000e+00
  C6er   SQ4  1 4.300000e-01    4.834000e+00
  C6er   TQ4  1 3.950000e-01    6.736000e+00
  C5er    Q4  1 4.700000e-01    3.448000e+00
  C5er   SQ4  1 4.300000e-01    4.103000e+00
  C5er   TQ4  1 3.950000e-01    5.794000e+00
  C4er    Q4  1 4.700000e-01    3.225000e+00
  C4er   SQ4  1 4.300000e-01    3.749000e+00
  C4er   TQ4  1 3.980000e-01    5.098000e+00
  C3er    Q4  1 4.700000e-01    2.967000e+00
  C3er   SQ4  1 4.300000e-01    3.199000e+00
  C3er   TQ4  1 3.990000e-01    4.085000e+00
  C2er    Q4  1 5.200000e-01    2.371000e+00
  C2er   SQ4  1 4.730000e-01    2.202000e+00
  C2er   TQ4  1 4.650000e-01    2.695000e+00
  C1er    Q4  1 5.200000e-01    2.276000e+00
  C1er   SQ4  1 4.730000e-01    1.855000e+00
  C1er   TQ4  1 4.650000e-01    1.945000e+00
  X4er    Q4  1 4.700000e-01    3.789000e+00
  X4er   SQ4  1 4.300000e-01    4.778000e+00
  X4er   TQ4  1 3.950000e-01    6.754000e+00
  X3er    Q4  1 4.700000e-01    3.593000e+00
  X3er   SQ4  1 4.300000e-01    4.444000e+00
  X3er   TQ4  1 3.950000e-01    6.276000e+00
  X2er    Q4  1 4.700000e-01    3.424000e+00
  X2er   SQ4  1 4.300000e-01    4.017000e+00
  X2er   TQ4  1 3.950000e-01    5.594000e+00
  X1er    Q4  1 4.700000e-01    3.137000e+00
  X1er   SQ4  1 4.300000e-01    3.429000e+00
  X1er   TQ4  1 3.980000e-01    4.362000e+00
   SP6    Q4  1 4.300000e-01    5.174000e+00
   SP6   SQ4  1 4.100000e-01    6.801000e+00
   SP6   TQ4  1 3.650000e-01    9.178000e+00
   SP5    Q4  1 4.300000e-01    4.880000e+00
   SP5   SQ4  1 4.100000e-01    6.480000e+00
   SP5   TQ4  1 3.650000e-01    8.741000e+00
   SP4    Q4  1 4.300000e-01    4.864000e+00
   SP4   SQ4  1 4.100000e-01    6.400000e+00
   SP4   TQ4  1 3.650000e-01    8.573000e+00
   SP3    Q4  1 4.300000e-01    4.855000e+00
   SP3   SQ4  1 4.100000e-01    6.352000e+00
   SP3   TQ4  1 3.650000e-01    8.472000e+00
   SP2    Q4  1 4.300000e-01    4.618000e+00
   SP2   SQ4  1 4.100000e-01    6.098000e+00
   SP2   TQ4  1 3.650000e-01    8.132000e+00
   SP1    Q4  1 4.300000e-01    4.413000e+00
   SP1   SQ4  1 4.100000e-01    5.802000e+00
   SP1   TQ4  1 3.650000e-01    7.808000e+00
   SN6    Q4  1 4.300000e-01    4.407000e+00
   SN6   SQ4  1 4.100000e-01    5.773000e+00
   SN6   TQ4  1 3.650000e-01    7.747000e+00
   SN5    Q4  1 4.300000e-01    4.401000e+00
   SN5   SQ4  1 4.100000e-01    5.739000e+00
   SN5   TQ4  1 3.650000e-01    7.677000e+00
   SN4    Q4  1 4.300000e-01    4.193000e+00
   SN4   SQ4  1 4.100000e-01    5.459000e+00
   SN4   TQ4  1 3.650000e-01    7.321000e+00
   SN3    Q4  1 4.300000e-01    4.003000e+00
   SN3   SQ4  1 4.100000e-01    5.167000e+00
   SN3   TQ4  1 3.650000e-01    6.954000e+00
   SN2    Q4  1 4.300000e-01    3.989000e+00
   SN2   SQ4  1 4.100000e-01    5.100000e+00
   SN2   TQ4  1 3.650000e-01    6.812000e+00
   SN1    Q4  1 4.300000e-01    3.970000e+00
   SN1   SQ4  1 4.100000e-01    5.002000e+00
   SN1   TQ4  1 3.650000e-01    6.609000e+00
   SC6    Q4  1 4.300000e-01    3.120000e+00
   SC6   SQ4  1 4.100000e-01    3.977000e+00
   SC6   TQ4  1 3.650000e-01    5.463000e+00
   SC5    Q4  1 4.300000e-01    2.486000e+00
   SC5   SQ4  1 4.100000e-01    3.405000e+00
   SC5   TQ4  1 3.940000e-01    4.494000e+00
   SC4    Q4  1 4.300000e-01    2.220000e+00
   SC4   SQ4  1 4.140000e-01    3.020000e+00
   SC4   TQ4  1 4.040000e-01    3.914000e+00
   SC3    Q4  1 4.300000e-01    1.961000e+00
   SC3   SQ4  1 4.180000e-01    2.554000e+00
   SC3   TQ4  1 4.090000e-01    3.274000e+00
   SC2    Q4  1 5.140000e-01    1.265000e+00
   SC2   SQ4  1 4.960000e-01    1.827000e+00
   SC2   TQ4  1 5.370000e-01    2.143000e+00
   SC1    Q4  1 5.140000e-01    1.206000e+00
   SC1   SQ4  1 4.960000e-01    1.534000e+00
   SC1   TQ4  1 5.370000e-01    1.639000e+00
   SX4    Q4  1 4.300000e-01    2.897000e+00
   SX4   SQ4  1 4.100000e-01    3.905000e+00
   SX4   TQ4  1 3.660000e-01    5.487000e+00
   SX3    Q4  1 4.300000e-01    2.670000e+00
   SX3   SQ4  1 4.100000e-01    3.687000e+00
   SX3   TQ4  1 3.780000e-01    5.036000e+00
   SX2    Q4  1 4.300000e-01    2.470000e+00
   SX2   SQ4  1 4.100000e-01    3.324000e+00
   SX2   TQ4  1 3.940000e-01    4.338000e+00
   SX1    Q4  1 4.300000e-01    2.161000e+00
   SX1   SQ4  1 4.140000e-01    2.725000e+00
   SX1   TQ4  1 4.040000e-01    3.351000e+00
  SP6d    Q4  1 4.300000e-01    5.174000e+00
  SP6d   SQ4  1 4.100000e-01    6.801000e+00
  SP6d   TQ4  1 3.650000e-01    9.178000e+00
  SP5d    Q4  1 4.300000e-01    4.880000e+00
  SP5d   SQ4  1 4.100000e-01    6.480000e+00
  SP5d   TQ4  1 3.650000e-01    8.741000e+00
  SP4d    Q4  1 4.300000e-01    4.864000e+00
  SP4d   SQ4  1 4.100000e-01    6.400000e+00
  SP4d   TQ4  1 3.650000e-01    8.573000e+00
  SP3d    Q4  1 4.300000e-01    4.855000e+00
  SP3d   SQ4  1 4.100000e-01    6.352000e+00
  SP3d   TQ4  1 3.650000e-01    8.472000e+00
  SP2d    Q4  1 4.300000e-01    4.618000e+00
  SP2d   SQ4  1 4.100000e-01    6.098000e+00
  SP2d   TQ4  1 3.650000e-01    8.132000e+00
  SP1d    Q4  1 4.300000e-01    4.413000e+00
  SP1d   SQ4  1 4.100000e-01    5.802000e+00
  SP1d   TQ4  1 3.650000e-01    7.808000e+00
  SN6d    Q4  1 4.300000e-01    4.407000e+00
  SN6d   SQ4  1 4.100000e-01    5.773000e+00
  SN6d   TQ4  1 3.650000e-01    7.747000e+00
  SN5d    Q4  1 4.300000e-01    4.401000e+00
  SN5d   SQ4  1 4.100000e-01    5.739000e+00
  SN5d   TQ4  1 3.650000e-01    7.677000e+00
  SN4d    Q4  1 4.300000e-01    4.193000e+00
  SN4d   SQ4  1 4.100000e-01    5.459000e+00
  SN4d   TQ4  1 3.650000e-01    7.321000e+00
  SN3d    Q4  1 4.300000e-01    4.003000e+00
  SN3d   SQ4  1 4.100000e-01    5.167000e+00
  SN3d   TQ4  1 3.650000e-01    6.954000e+00
  SN2d    Q4  1 4.300000e-01    3.989000e+00
  SN2d   SQ4  1 4.100000e-01    5.100000e+00
  SN2d   TQ4  1 3.650000e-01    6.812000e+00
  SN1d    Q4  1 4.300000e-01    3.970000e+00
  SN1d   SQ4  1 4.100000e-01    5.002000e+00
  SN1d   TQ4  1 3.650000e-01    6.609000e+00
  SP6a    Q4  1 4.300000e-01    5.174000e+00
  SP6a   SQ4  1 4.100000e-01    6.801000e+00
  SP6a   TQ4  1 3.650000e-01    9.178000e+00
  SP5a    Q4  1 4.300000e-01    4.880000e+00
  SP5a   SQ4  1 4.100000e-01    6.480000e+00
  SP5a   TQ4  1 3.650000e-01    8.741000e+00
  SP4a    Q4  1 4.300000e-01    4.864000e+00
  SP4a   SQ4  1 4.100000e-01    6.400000e+00
  SP4a   TQ4  1 3.650000e-01    8.573000e+00
  SP3a    Q4  1 4.300000e-01    4.855000e+00
  SP3a   SQ4  1 4.100000e-01    6.352000e+00
  SP3a   TQ4  1 3.650000e-01    8.472000e+00
  SP2a    Q4  1 4.300000e-01    4.618000e+00
  SP2a   SQ4  1 4.100000e-01    6.098000e+00
  SP2a   TQ4  1 3.650000e-01    8.132000e+00
  SP1a    Q4  1 4.300000e-01    4.413000e+00
  SP1a   SQ4  1 4.100000e-01    5.802000e+00
  SP1a   TQ4  1 3.650000e-01    7.808000e+00
  SN6a    Q4  1 4.300000e-01    4.407000e+00
  SN6a   SQ4  1 4.100000e-01    5.773000e+00
  SN6a   TQ4  1 3.650000e-01    7.747000e+00
  SN5a    Q4  1 4.300000e-01    4.401000e+00
  SN5a   SQ4  1 4.100000e-01    5.739000e+00
  SN5a   TQ4  1 3.650000e-01    7.677000e+00
  SN4a    Q4  1 4.300000e-01    4.193000e+00
  SN4a   SQ4  1 4.100000e-01    5.459000e+00
  SN4a   TQ4  1 3.650000e-01    7.321000e+00
  SN3a    Q4  1 4.300000e-01    4.003000e+00
  SN3a   SQ4  1 4.100000e-01    5.167000e+00
  SN3a   TQ4  1 3.650000e-01    6.954000e+00
  SN2a    Q4  1 4.300000e-01    3.989000e+00
  SN2a   SQ4  1 4.100000e-01    5.100000e+00
  SN2a   TQ4  1 3.650000e-01    6.812000e+00
  SN1a    Q4  1 4.300000e-01    3.970000e+00
  SN1a   SQ4  1 4.100000e-01    5.002000e+00
  SN1a   TQ4  1 3.650000e-01    6.609000e+00
  SC6v    Q4  1 4.300000e-01    3.270000e+00
  SC6v   SQ4  1 4.100000e-01    4.127000e+00
  SC6v   TQ4  1 3.650000e-01    5.623000e+00
  SC5v    Q4  1 4.300000e-01    2.646000e+00
  SC5v   SQ4  1 4.100000e-01    3.565000e+00
  SC5v   TQ4  1 3.780000e-01    4.790000e+00
  SC4v    Q4  1 4.300000e-01    2.450000e+00
  SC4v   SQ4  1 4.100000e-01    3.224000e+00
  SC4v   TQ4  1 3.940000e-01    4.145000e+00
  SC3v    Q4  1 4.300000e-01    2.161000e+00
  SC3v   SQ4  1 4.140000e-01    2.725000e+00
  SC3v   TQ4  1 4.040000e-01    3.351000e+00
  SC2v    Q4  1 4.730000e-01    1.448000e+00
  SC2v   SQ4  1 4.530000e-01    2.000000e+00
  SC2v   TQ4  1 4.840000e-01    2.371000e+00
  SC1v    Q4  1 4.730000e-01    1.385000e+00
  SC1v   SQ4  1 4.530000e-01    1.680000e+00
  SC1v   TQ4  1 4.840000e-01    1.812000e+00
  SX4v    Q4  1 4.300000e-01    3.137000e+00
  SX4v   SQ4  1 4.100000e-01    4.065000e+00
  SX4v   TQ4  1 3.650000e-01    5.648000e+00
  SX3v    Q4  1 4.300000e-01    2.880000e+00
  SX3v   SQ4  1 4.100000e-01    3.817000e+00
  SX3v   TQ4  1 3.660000e-01    5.303000e+00
  SX2v    Q4  1 4.300000e-01    2.630000e+00
  SX2v   SQ4  1 4.100000e-01    3.484000e+00
  SX2v   TQ4  1 3.780000e-01    4.627000e+00
  SX1v    Q4  1 4.300000e-01    2.391000e+00
  SX1v   SQ4  1 4.100000e-01    2.926000e+00
  SX1v   TQ4  1 3.940000e-01    3.568000e+00
  SC6e    Q4  1 4.300000e-01    3.270000e+00
  SC6e   SQ4  1 4.100000e-01    4.127000e+00
  SC6e   TQ4  1 3.650000e-01    5.623000e+00
  SC5e    Q4  1 4.300000e-01    2.646000e+00
  SC5e   SQ4  1 4.100000e-01    3.565000e+00
  SC5e   TQ4  1 3.780000e-01    4.790000e+00
  SC4e    Q4  1 4.300000e-01    2.450000e+00
  SC4e   SQ4  1 4.100000e-01    3.224000e+00
  SC4e   TQ4  1 3.940000e-01    4.145000e+00
  SC3e    Q4  1 4.300000e-01    2.161000e+00
  SC3e   SQ4  1 4.140000e-01    2.725000e+00
  SC3e   TQ4  1 4.040000e-01    3.351000e+00
  SC2e    Q4  1 4.730000e-01    1.448000e+00
  SC2e   SQ4  1 4.530000e-01    2.000000e+00
  SC2e   TQ4  1 4.840000e-01    2.371000e+00
  SC1e    Q4  1 4.730000e-01    1.385000e+00
  SC1e   SQ4  1 4.530000e-01    1.680000e+00
  SC1e   TQ4  1 4.840000e-01    1.812000e+00
  SX4e    Q4  1 4.300000e-01    3.137000e+00
  SX4e   SQ4  1 4.100000e-01    4.065000e+00
  SX4e   TQ4  1 3.650000e-01    5.648000e+00
  SX3e    Q4  1 4.300000e-01    2.880000e+00
  SX3e   SQ4  1 4.100000e-01    3.817000e+00
  SX3e   TQ4  1 3.660000e-01    5.303000e+00
  SX2e    Q4  1 4.300000e-01    2.630000e+00
  SX2e   SQ4  1 4.100000e-01    3.484000e+00
  SX2e   TQ4  1 3.780000e-01    4.627000e+00
  SX1e    Q4  1 4.300000e-01    2.391000e+00
  SX1e   SQ4  1 4.100000e-01    2.926000e+00
  SX1e   TQ4  1 3.940000e-01    3.568000e+00
  SP6q    Q4  1 4.300000e-01    6.004000e+00
  SP6q   SQ4  1 4.100000e-01    7.641000e+00
  SP6q   TQ4  1 3.650000e-01    1.010800e+01
  SP5q    Q4  1 4.300000e-01    5.690000e+00
  SP5q   SQ4  1 4.100000e-01    7.280000e+00
  SP5q   TQ4  1 3.650000e-01    9.611000e+00
  SP4q    Q4  1 4.300000e-01    5.674000e+00
  SP4q   SQ4  1 4.100000e-01    7.200000e+00
  SP4q   TQ4  1 3.650000e-01    9.443000e+00
  SP3q    Q4  1 4.300000e-01    5.665000e+00
  SP3q   SQ4  1 4.100000e-01    7.152000e+00
  SP3q   TQ4  1 3.650000e-01    9.342000e+00
  SP2q    Q4  1 4.300000e-01    5.368000e+00
  SP2q   SQ4  1 4.100000e-01    6.828000e+00
  SP2q   TQ4  1 3.650000e-01    8.982000e+00
  SP1q    Q4  1 4.300000e-01    5.123000e+00
  SP1q   SQ4  1 4.100000e-01    6.542000e+00
  SP1q   TQ4  1 3.650000e-01    8.638000e+00
  SN6q    Q4  1 4.300000e-01    5.117000e+00
  SN6q   SQ4  1 4.100000e-01    6.513000e+00
  SN6q   TQ4  1 3.650000e-01    8.577000e+00
  SN5q    Q4  1 4.300000e-01    5.111000e+00
  SN5q   SQ4  1 4.100000e-01    6.479000e+00
  SN5q   TQ4  1 3.650000e-01    8.507000e+00
  SN4q    Q4  1 4.300000e-01    4.823000e+00
  SN4q   SQ4  1 4.100000e-01    6.189000e+00
  SN4q   TQ4  1 3.650000e-01    8.131000e+00
  SN3q    Q4  1 4.300000e-01    4.583000e+00
  SN3q   SQ4  1 4.100000e-01    5.917000e+00
  SN3q   TQ4  1 3.650000e-01    7.754000e+00
  SN2q    Q4  1 4.300000e-01    4.569000e+00
  SN2q   SQ4  1 4.100000e-01    5.850000e+00
  SN2q   TQ4  1 3.650000e-01    7.612000e+00
  SN1q    Q4  1 4.300000e-01    4.550000e+00
  SN1q   SQ4  1 4.100000e-01    5.752000e+00
  SN1q   TQ4  1 3.650000e-01    7.409000e+00
  SC6q    Q4  1 4.300000e-01    3.730000e+00
  SC6q   SQ4  1 4.100000e-01    4.617000e+00
  SC6q   TQ4  1 3.650000e-01    6.053000e+00
  SC5q    Q4  1 4.300000e-01    3.096000e+00
  SC5q   SQ4  1 4.100000e-01    3.855000e+00
  SC5q   TQ4  1 3.650000e-01    5.209000e+00
  SC4q    Q4  1 4.300000e-01    2.820000e+00
  SC4q   SQ4  1 4.100000e-01    3.514000e+00
  SC4q   TQ4  1 3.660000e-01    4.673000e+00
  SC3q    Q4  1 4.300000e-01    2.551000e+00
  SC3q   SQ4  1 4.100000e-01    3.086000e+00
  SC3q   TQ4  1 3.780000e-01    3.824000e+00
  SC2q    Q4  1 4.300000e-01    1.915000e+00
  SC2q   SQ4  1 4.180000e-01    2.321000e+00
  SC2q   TQ4  1 4.090000e-01    2.832000e+00
  SC1q    Q4  1 4.300000e-01    1.845000e+00
  SC1q   SQ4  1 4.180000e-01    1.974000e+00
  SC1q   TQ4  1 4.090000e-01    2.172000e+00
  SX4q    Q4  1 4.300000e-01    3.527000e+00
  SX4q   SQ4  1 4.100000e-01    4.465000e+00
  SX4q   TQ4  1 3.650000e-01    6.008000e+00
  SX3q    Q4  1 4.300000e-01    3.270000e+00
  SX3q   SQ4  1 4.100000e-01    4.127000e+00
  SX3q   TQ4  1 3.650000e-01    5.623000e+00
  SX2q    Q4  1 4.300000e-01    3.080000e+00
  SX2q   SQ4  1 4.100000e-01    3.774000e+00
  SX2q   TQ4  1 3.650000e-01    5.040000e+00
  SX1q    Q4  1 4.300000e-01    2.761000e+00
  SX1q   SQ4  1 4.100000e-01    3.216000e+00
  SX1q   TQ4  1 3.660000e-01    4.052000e+00
 SP6dq    Q4  1 4.300000e-01    6.004000e+00
 SP6dq   SQ4  1 4.100000e-01    7.641000e+00
 SP6dq   TQ4  1 3.650000e-01    1.010800e+01
 SP5dq    Q4  1 4.300000e-01    5.690000e+00
 SP5dq   SQ4  1 4.100000e-01    7.280000e+00
 SP5dq   TQ4  1 3.650000e-01    9.611000e+00
 SP4dq    Q4  1 4.300000e-01    5.674000e+00
 SP4dq   SQ4  1 4.100000e-01    7.200000e+00
 SP4dq   TQ4  1 3.650000e-01    9.443000e+00
 SP3dq    Q4  1 4.300000e-01    5.665000e+00
 SP3dq   SQ4  1 4.100000e-01    7.152000e+00
 SP3dq   TQ4  1 3.650000e-01    9.342000e+00
 SP2dq    Q4  1 4.300000e-01    5.368000e+00
 SP2dq   SQ4  1 4.100000e-01    6.828000e+00
 SP2dq   TQ4  1 3.650000e-01    8.982000e+00
 SP1dq    Q4  1 4.300000e-01    5.123000e+00
 SP1dq   SQ4  1 4.100000e-01    6.542000e+00
 SP1dq   TQ4  1 3.650000e-01    8.638000e+00
 SN6dq    Q4  1 4.300000e-01    5.117000e+00
 SN6dq   SQ4  1 4.100000e-01    6.513000e+00
 SN6dq   TQ4  1 3.650000e-01    8.577000e+00
 SN5dq    Q4  1 4.300000e-01    5.111000e+00
 SN5dq   SQ4  1 4.100000e-01    6.479000e+00
 SN5dq   TQ4  1 3.650000e-01    8.507000e+00
 SN4dq    Q4  1 4.300000e-01    4.823000e+00
 SN4dq   SQ4  1 4.100000e-01    6.189000e+00
 SN4dq   TQ4  1 3.650000e-01    8.131000e+00
 SN3dq    Q4  1 4.300000e-01    4.583000e+00
 SN3dq   SQ4  1 4.100000e-01    5.917000e+00
 SN3dq   TQ4  1 3.650000e-01    7.754000e+00
 SN2dq    Q4  1 4.300000e-01    4.569000e+00
 SN2dq   SQ4  1 4.100000e-01    5.850000e+00
 SN2dq   TQ4  1 3.650000e-01    7.612000e+00
 SN1dq    Q4  1 4.300000e-01    4.550000e+00
 SN1dq   SQ4  1 4.100000e-01    5.752000e+00
 SN1dq   TQ4  1 3.650000e-01    7.409000e+00
 SP6aq    Q4  1 4.300000e-01    6.004000e+00
 SP6aq   SQ4  1 4.100000e-01    7.641000e+00
 SP6aq   TQ4  1 3.650000e-01    1.010800e+01
 SP5aq    Q4  1 4.300000e-01    5.690000e+00
 SP5aq   SQ4  1 4.100000e-01    7.280000e+00
 SP5aq   TQ4  1 3.650000e-01    9.611000e+00
 SP4aq    Q4  1 4.300000e-01    5.674000e+00
 SP4aq   SQ4  1 4.100000e-01    7.200000e+00
 SP4aq   TQ4  1 3.650000e-01    9.443000e+00
 SP3aq    Q4  1 4.300000e-01    5.665000e+00
 SP3aq   SQ4  1 4.100000e-01    7.152000e+00
 SP3aq   TQ4  1 3.650000e-01    9.342000e+00
 SP2aq    Q4  1 4.300000e-01    5.368000e+00
 SP2aq   SQ4  1 4.100000e-01    6.828000e+00
 SP2aq   TQ4  1 3.650000e-01    8.982000e+00
 SP1aq    Q4  1 4.300000e-01    5.123000e+00
 SP1aq   SQ4  1 4.100000e-01    6.542000e+00
 SP1aq   TQ4  1 3.650000e-01    8.638000e+00
 SN6aq    Q4  1 4.300000e-01    5.117000e+00
 SN6aq   SQ4  1 4.100000e-01    6.513000e+00
 SN6aq   TQ4  1 3.650000e-01    8.577000e+00
 SN5aq    Q4  1 4.300000e-01    5.111000e+00
 SN5aq   SQ4  1 4.100000e-01    6.479000e+00
 SN5aq   TQ4  1 3.650000e-01    8.507000e+00
 SN4aq    Q4  1 4.300000e-01    4.823000e+00
 SN4aq   SQ4  1 4.100000e-01    6.189000e+00
 SN4aq   TQ4  1 3.650000e-01    8.131000e+00
 SN3aq    Q4  1 4.300000e-01    4.583000e+00
 SN3aq   SQ4  1 4.100000e-01    5.917000e+00
 SN3aq   TQ4  1 3.650000e-01    7.754000e+00
 SN2aq    Q4  1 4.300000e-01    4.569000e+00
 SN2aq   SQ4  1 4.100000e-01    5.850000e+00
 SN2aq   TQ4  1 3.650000e-01    7.612000e+00
 SN1aq    Q4  1 4.300000e-01    4.550000e+00
 SN1aq   SQ4  1 4.100000e-01    5.752000e+00
 SN1aq   TQ4  1 3.650000e-01    7.409000e+00
 SC6vq    Q4  1 4.300000e-01    3.940000e+00
 SC6vq   SQ4  1 4.100000e-01    4.847000e+00
 SC6vq   TQ4  1 3.650000e-01    6.283000e+00
 SC5vq    Q4  1 4.300000e-01    3.246000e+00
 SC5vq   SQ4  1 4.100000e-01    4.005000e+00
 SC5vq   TQ4  1 3.650000e-01    5.369000e+00
 SC4vq    Q4  1 4.300000e-01    3.060000e+00
 SC4vq   SQ4  1 4.100000e-01    3.674000e+00
 SC4vq   TQ4  1 3.650000e-01    4.831000e+00
 SC3vq    Q4  1 4.300000e-01    2.761000e+00
 SC3vq   SQ4  1 4.100000e-01    3.216000e+00
 SC3vq   TQ4  1 3.660000e-01    4.052000e+00
 SC2vq    Q4  1 4.300000e-01    2.115000e+00
 SC2vq   SQ4  1 4.140000e-01    2.490000e+00
 SC2vq   TQ4  1 4.040000e-01    2.904000e+00
 SC1vq    Q4  1 4.300000e-01    2.045000e+00
 SC1vq   SQ4  1 4.140000e-01    2.139000e+00
 SC1vq   TQ4  1 4.040000e-01    2.235000e+00
 SX4vq    Q4  1 4.300000e-01    3.747000e+00
 SX4vq   SQ4  1 4.100000e-01    4.705000e+00
 SX4vq   TQ4  1 3.650000e-01    6.238000e+00
 SX3vq    Q4  1 4.300000e-01    3.510000e+00
 SX3vq   SQ4  1 4.100000e-01    4.377000e+00
 SX3vq   TQ4  1 3.650000e-01    5.823000e+00
 SX2vq    Q4  1 4.300000e-01    3.230000e+00
 SX2vq   SQ4  1 4.100000e-01    3.924000e+00
 SX2vq   TQ4  1 3.650000e-01    5.200000e+00
 SX1vq    Q4  1 4.300000e-01    3.001000e+00
 SX1vq   SQ4  1 4.100000e-01    3.376000e+00
 SX1vq   TQ4  1 3.650000e-01    4.209000e+00
 SC6eq    Q4  1 4.300000e-01    3.940000e+00
 SC6eq   SQ4  1 4.100000e-01    4.847000e+00
 SC6eq   TQ4  1 3.650000e-01    6.283000e+00
 SC5eq    Q4  1 4.300000e-01    3.246000e+00
 SC5eq   SQ4  1 4.100000e-01    4.005000e+00
 SC5eq   TQ4  1 3.650000e-01    5.369000e+00
 SC4eq    Q4  1 4.300000e-01    3.060000e+00
 SC4eq   SQ4  1 4.100000e-01    3.674000e+00
 SC4eq   TQ4  1 3.650000e-01    4.831000e+00
 SC3eq    Q4  1 4.300000e-01    2.761000e+00
 SC3eq   SQ4  1 4.100000e-01    3.216000e+00
 SC3eq   TQ4  1 3.660000e-01    4.052000e+00
 SC2eq    Q4  1 4.300000e-01    2.115000e+00
 SC2eq   SQ4  1 4.140000e-01    2.490000e+00
 SC2eq   TQ4  1 4.040000e-01    2.904000e+00
 SC1eq    Q4  1 4.300000e-01    2.045000e+00
 SC1eq   SQ4  1 4.140000e-01    2.139000e+00
 SC1eq   TQ4  1 4.040000e-01    2.235000e+00
 SX4eq    Q4  1 4.300000e-01    3.747000e+00
 SX4eq   SQ4  1 4.100000e-01    4.705000e+00
 SX4eq   TQ4  1 3.650000e-01    6.238000e+00
 SX3eq    Q4  1 4.300000e-01    3.510000e+00
 SX3eq   SQ4  1 4.100000e-01    4.377000e+00
 SX3eq   TQ4  1 3.650000e-01    5.823000e+00
 SX2eq    Q4  1 4.300000e-01    3.230000e+00
 SX2eq   SQ4  1 4.100000e-01    3.924000e+00
 SX2eq   TQ4  1 3.650000e-01    5.200000e+00
 SX1eq    Q4  1 4.300000e-01    3.001000e+00
 SX1eq   SQ4  1 4.100000e-01    3.376000e+00
 SX1eq   TQ4  1 3.650000e-01    4.209000e+00
  SP6h    Q4  1 4.300000e-01    5.174000e+00
  SP6h   SQ4  1 4.100000e-01    6.801000e+00
  SP6h   TQ4  1 3.650000e-01    9.178000e+00
  SP5h    Q4  1 4.300000e-01    4.880000e+00
  SP5h   SQ4  1 4.100000e-01    6.480000e+00
  SP5h   TQ4  1 3.650000e-01    8.741000e+00
  SP4h    Q4  1 4.300000e-01    4.864000e+00
  SP4h   SQ4  1 4.100000e-01    6.400000e+00
  SP4h   TQ4  1 3.650000e-01    8.573000e+00
  SP3h    Q4  1 4.300000e-01    4.855000e+00
  SP3h   SQ4  1 4.100000e-01    6.352000e+00
  SP3h   TQ4  1 3.650000e-01    8.472000e+00
  SP2h    Q4  1 4.300000e-01    4.618000e+00
  SP2h   SQ4  1 4.100000e-01    6.098000e+00
  SP2h   TQ4  1 3.650000e-01    8.132000e+00
  SP1h    Q4  1 4.300000e-01    4.413000e+00
  SP1h   SQ4  1 4.100000e-01    5.802000e+00
  SP1h   TQ4  1 3.650000e-01    7.808000e+00
  SN6h    Q4  1 4.300000e-01    4.407000e+00
  SN6h   SQ4  1 4.100000e-01    5.773000e+00
  SN6h   TQ4  1 3.650000e-01    7.747000e+00
  SN5h    Q4  1 4.300000e-01    4.401000e+00
  SN5h   SQ4  1 4.100000e-01    5.739000e+00
  SN5h   TQ4  1 3.650000e-01    7.677000e+00
  SN4h    Q4  1 4.300000e-01    4.193000e+00
  SN4h   SQ4  1 4.100000e-01    5.459000e+00
  SN4h   TQ4  1 3.650000e-01    7.321000e+00
  SN3h    Q4  1 4.300000e-01    4.003000e+00
  SN3h   SQ4  1 4.100000e-01    5.167000e+00
  SN3h   TQ4  1 3.650000e-01    6.954000e+00
  SN2h    Q4  1 4.300000e-01    3.989000e+00
  SN2h   SQ4  1 4.100000e-01    5.100000e+00
  SN2h   TQ4  1 3.650000e-01    6.812000e+00
  SN1h    Q4  1 4.300000e-01    3.970000e+00
  SN1h   SQ4  1 4.100000e-01    5.002000e+00
  SN1h   TQ4  1 3.650000e-01    6.609000e+00
  SC6h    Q4  1 4.300000e-01    3.120000e+00
  SC6h   SQ4  1 4.100000e-01    3.977000e+00
  SC6h   TQ4  1 3.650000e-01    5.463000e+00
  SC5h    Q4  1 4.300000e-01    2.486000e+00
  SC5h   SQ4  1 4.100000e-01    3.405000e+00
  SC5h   TQ4  1 3.940000e-01    4.494000e+00
  SC4h    Q4  1 4.300000e-01    2.220000e+00
  SC4h   SQ4  1 4.140000e-01    3.020000e+00
  SC4h   TQ4  1 4.040000e-01    3.914000e+00
  SC3h    Q4  1 4.300000e-01    1.961000e+00
  SC3h   SQ4  1 4.180000e-01    2.554000e+00
  SC3h   TQ4  1 4.090000e-01    3.274000e+00
  SC2h    Q4  1 5.140000e-01    1.265000e+00
  SC2h   SQ4  1 4.960000e-01    1.827000e+00
  SC2h   TQ4  1 5.370000e-01    2.143000e+00
  SC1h    Q4  1 5.140000e-01    1.206000e+00
  SC1h   SQ4  1 4.960000e-01    1.534000e+00
  SC1h   TQ4  1 5.370000e-01    1.639000e+00
  SX4h    Q4  1 4.300000e-01    2.897000e+00
  SX4h   SQ4  1 4.100000e-01    3.905000e+00
  SX4h   TQ4  1 3.660000e-01    5.487000e+00
  SX3h    Q4  1 4.300000e-01    2.670000e+00
  SX3h   SQ4  1 4.100000e-01    3.687000e+00
  SX3h   TQ4  1 3.780000e-01    5.036000e+00
  SX2h    Q4  1 4.300000e-01    2.470000e+00
  SX2h   SQ4  1 4.100000e-01    3.324000e+00
  SX2h   TQ4  1 3.940000e-01    4.338000e+00
  SX1h    Q4  1 4.300000e-01    2.161000e+00
  SX1h   SQ4  1 4.140000e-01    2.725000e+00
  SX1h   TQ4  1 4.040000e-01    3.351000e+00
 SP6dh    Q4  1 4.300000e-01    5.174000e+00
 SP6dh   SQ4  1 4.100000e-01    6.801000e+00
 SP6dh   TQ4  1 3.650000e-01    9.178000e+00
 SP5dh    Q4  1 4.300000e-01    4.880000e+00
 SP5dh   SQ4  1 4.100000e-01    6.480000e+00
 SP5dh   TQ4  1 3.650000e-01    8.741000e+00
 SP4dh    Q4  1 4.300000e-01    4.864000e+00
 SP4dh   SQ4  1 4.100000e-01    6.400000e+00
 SP4dh   TQ4  1 3.650000e-01    8.573000e+00
 SP3dh    Q4  1 4.300000e-01    4.855000e+00
 SP3dh   SQ4  1 4.100000e-01    6.352000e+00
 SP3dh   TQ4  1 3.650000e-01    8.472000e+00
 SP2dh    Q4  1 4.300000e-01    4.618000e+00
 SP2dh   SQ4  1 4.100000e-01    6.098000e+00
 SP2dh   TQ4  1 3.650000e-01    8.132000e+00
 SP1dh    Q4  1 4.300000e-01    4.413000e+00
 SP1dh   SQ4  1 4.100000e-01    5.802000e+00
 SP1dh   TQ4  1 3.650000e-01    7.808000e+00
 SN6dh    Q4  1 4.300000e-01    4.407000e+00
 SN6dh   SQ4  1 4.100000e-01    5.773000e+00
 SN6dh   TQ4  1 3.650000e-01    7.747000e+00
 SN5dh    Q4  1 4.300000e-01    4.401000e+00
 SN5dh   SQ4  1 4.100000e-01    5.739000e+00
 SN5dh   TQ4  1 3.650000e-01    7.677000e+00
 SN4dh    Q4  1 4.300000e-01    4.193000e+00
 SN4dh   SQ4  1 4.100000e-01    5.459000e+00
 SN4dh   TQ4  1 3.650000e-01    7.321000e+00
 SN3dh    Q4  1 4.300000e-01    4.003000e+00
 SN3dh   SQ4  1 4.100000e-01    5.167000e+00
 SN3dh   TQ4  1 3.650000e-01    6.954000e+00
 SN2dh    Q4  1 4.300000e-01    3.989000e+00
 SN2dh   SQ4  1 4.100000e-01    5.100000e+00
 SN2dh   TQ4  1 3.650000e-01    6.812000e+00
 SN1dh    Q4  1 4.300000e-01    3.970000e+00
 SN1dh   SQ4  1 4.100000e-01    5.002000e+00
 SN1dh   TQ4  1 3.650000e-01    6.609000e+00
 SP6ah    Q4  1 4.300000e-01    5.174000e+00
 SP6ah   SQ4  1 4.100000e-01    6.801000e+00
 SP6ah   TQ4  1 3.650000e-01    9.178000e+00
 SP5ah    Q4  1 4.300000e-01    4.880000e+00
 SP5ah   SQ4  1 4.100000e-01    6.480000e+00
 SP5ah   TQ4  1 3.650000e-01    8.741000e+00
 SP4ah    Q4  1 4.300000e-01    4.864000e+00
 SP4ah   SQ4  1 4.100000e-01    6.400000e+00
 SP4ah   TQ4  1 3.650000e-01    8.573000e+00
 SP3ah    Q4  1 4.300000e-01    4.855000e+00
 SP3ah   SQ4  1 4.100000e-01    6.352000e+00
 SP3ah   TQ4  1 3.650000e-01    8.472000e+00
 SP2ah    Q4  1 4.300000e-01    4.618000e+00
 SP2ah   SQ4  1 4.100000e-01    6.098000e+00
 SP2ah   TQ4  1 3.650000e-01    8.132000e+00
 SP1ah    Q4  1 4.300000e-01    4.413000e+00
 SP1ah   SQ4  1 4.100000e-01    5.802000e+00
 SP1ah   TQ4  1 3.650000e-01    7.808000e+00
 SN6ah    Q4  1 4.300000e-01    4.407000e+00
 SN6ah   SQ4  1 4.100000e-01    5.773000e+00
 SN6ah   TQ4  1 3.650000e-01    7.747000e+00
 SN5ah    Q4  1 4.300000e-01    4.401000e+00
 SN5ah   SQ4  1 4.100000e-01    5.739000e+00
 SN5ah   TQ4  1 3.650000e-01    7.677000e+00
 SN4ah    Q4  1 4.300000e-01    4.193000e+00
 SN4ah   SQ4  1 4.100000e-01    5.459000e+00
 SN4ah   TQ4  1 3.650000e-01    7.321000e+00
 SN3ah    Q4  1 4.300000e-01    4.003000e+00
 SN3ah   SQ4  1 4.100000e-01    5.167000e+00
 SN3ah   TQ4  1 3.650000e-01    6.954000e+00
 SN2ah    Q4  1 4.300000e-01    3.989000e+00
 SN2ah   SQ4  1 4.100000e-01    5.100000e+00
 SN2ah   TQ4  1 3.650000e-01    6.812000e+00
 SN1ah    Q4  1 4.300000e-01    3.970000e+00
 SN1ah   SQ4  1 4.100000e-01    5.002000e+00
 SN1ah   TQ4  1 3.650000e-01    6.609000e+00
 SC6vh    Q4  1 4.300000e-01    3.270000e+00
 SC6vh   SQ4  1 4.100000e-01    4.127000e+00
 SC6vh   TQ4  1 3.650000e-01    5.623000e+00
 SC5vh    Q4  1 4.300000e-01    2.646000e+00
 SC5vh   SQ4  1 4.100000e-01    3.565000e+00
 SC5vh   TQ4  1 3.780000e-01    4.790000e+00
 SC4vh    Q4  1 4.300000e-01    2.450000e+00
 SC4vh   SQ4  1 4.100000e-01    3.224000e+00
 SC4vh   TQ4  1 3.940000e-01    4.145000e+00
 SC3vh    Q4  1 4.300000e-01    2.161000e+00
 SC3vh   SQ4  1 4.140000e-01    2.725000e+00
 SC3vh   TQ4  1 4.040000e-01    3.351000e+00
 SC2vh    Q4  1 4.730000e-01    1.448000e+00
 SC2vh   SQ4  1 4.530000e-01    2.000000e+00
 SC2vh   TQ4  1 4.840000e-01    2.371000e+00
 SC1vh    Q4  1 4.730000e-01    1.385000e+00
 SC1vh   SQ4  1 4.530000e-01    1.680000e+00
 SC1vh   TQ4  1 4.840000e-01    1.812000e+00
 SX4vh    Q4  1 4.300000e-01    3.137000e+00
 SX4vh   SQ4  1 4.100000e-01    4.065000e+00
 SX4vh   TQ4  1 3.650000e-01    5.648000e+00
 SX3vh    Q4  1 4.300000e-01    2.880000e+00
 SX3vh   SQ4  1 4.100000e-01    3.817000e+00
 SX3vh   TQ4  1 3.660000e-01    5.303000e+00
 SX2vh    Q4  1 4.300000e-01    2.630000e+00
 SX2vh   SQ4  1 4.100000e-01    3.484000e+00
 SX2vh   TQ4  1 3.780000e-01    4.627000e+00
 SX1vh    Q4  1 4.300000e-01    2.391000e+00
 SX1vh   SQ4  1 4.100000e-01    2.926000e+00
 SX1vh   TQ4  1 3.940000e-01    3.568000e+00
 SC6eh    Q4  1 4.300000e-01    3.270000e+00
 SC6eh   SQ4  1 4.100000e-01    4.127000e+00
 SC6eh   TQ4  1 3.650000e-01    5.623000e+00
 SC5eh    Q4  1 4.300000e-01    2.646000e+00
 SC5eh   SQ4  1 4.100000e-01    3.565000e+00
 SC5eh   TQ4  1 3.780000e-01    4.790000e+00
 SC4eh    Q4  1 4.300000e-01    2.450000e+00
 SC4eh   SQ4  1 4.100000e-01    3.224000e+00
 SC4eh   TQ4  1 3.940000e-01    4.145000e+00
 SC3eh    Q4  1 4.300000e-01    2.161000e+00
 SC3eh   SQ4  1 4.140000e-01    2.725000e+00
 SC3eh   TQ4  1 4.040000e-01    3.351000e+00
 SC2eh    Q4  1 4.730000e-01    1.448000e+00
 SC2eh   SQ4  1 4.530000e-01    2.000000e+00
 SC2eh   TQ4  1 4.840000e-01    2.371000e+00
 SC1eh    Q4  1 4.730000e-01    1.385000e+00
 SC1eh   SQ4  1 4.530000e-01    1.680000e+00
 SC1eh   TQ4  1 4.840000e-01    1.812000e+00
 SX4eh    Q4  1 4.300000e-01    3.137000e+00
 SX4eh   SQ4  1 4.100000e-01    4.065000e+00
 SX4eh   TQ4  1 3.650000e-01    5.648000e+00
 SX3eh    Q4  1 4.300000e-01    2.880000e+00
 SX3eh   SQ4  1 4.100000e-01    3.817000e+00
 SX3eh   TQ4  1 3.660000e-01    5.303000e+00
 SX2eh    Q4  1 4.300000e-01    2.630000e+00
 SX2eh   SQ4  1 4.100000e-01    3.484000e+00
 SX2eh   TQ4  1 3.780000e-01    4.627000e+00
 SX1eh    Q4  1 4.300000e-01    2.391000e+00
 SX1eh   SQ4  1 4.100000e-01    2.926000e+00
 SX1eh   TQ4  1 3.940000e-01    3.568000e+00
  SP6r    Q4  1 4.300000e-01    5.174000e+00
  SP6r   SQ4  1 4.100000e-01    6.801000e+00
  SP6r   TQ4  1 3.650000e-01    9.178000e+00
  SP5r    Q4  1 4.300000e-01    4.880000e+00
  SP5r   SQ4  1 4.100000e-01    6.480000e+00
  SP5r   TQ4  1 3.650000e-01    8.741000e+00
  SP4r    Q4  1 4.300000e-01    4.864000e+00
  SP4r   SQ4  1 4.100000e-01    6.400000e+00
  SP4r   TQ4  1 3.650000e-01    8.573000e+00
  SP3r    Q4  1 4.300000e-01    4.855000e+00
  SP3r   SQ4  1 4.100000e-01    6.352000e+00
  SP3r   TQ4  1 3.650000e-01    8.472000e+00
  SP2r    Q4  1 4.300000e-01    4.618000e+00
  SP2r   SQ4  1 4.100000e-01    6.098000e+00
  SP2r   TQ4  1 3.650000e-01    8.132000e+00
  SP1r    Q4  1 4.300000e-01    4.413000e+00
  SP1r   SQ4  1 4.100000e-01    5.802000e+00
  SP1r   TQ4  1 3.650000e-01    7.808000e+00
  SN6r    Q4  1 4.300000e-01    4.407000e+00
  SN6r   SQ4  1 4.100000e-01    5.773000e+00
  SN6r   TQ4  1 3.650000e-01    7.747000e+00
  SN5r    Q4  1 4.300000e-01    4.401000e+00
  SN5r   SQ4  1 4.100000e-01    5.739000e+00
  SN5r   TQ4  1 3.650000e-01    7.677000e+00
  SN4r    Q4  1 4.300000e-01    4.193000e+00
  SN4r   SQ4  1 4.100000e-01    5.459000e+00
  SN4r   TQ4  1 3.650000e-01    7.321000e+00
  SN3r    Q4  1 4.300000e-01    4.003000e+00
  SN3r   SQ4  1 4.100000e-01    5.167000e+00
  SN3r   TQ4  1 3.650000e-01    6.954000e+00
  SN2r    Q4  1 4.300000e-01    3.989000e+00
  SN2r   SQ4  1 4.100000e-01    5.100000e+00
  SN2r   TQ4  1 3.650000e-01    6.812000e+00
  SN1r    Q4  1 4.300000e-01    3.970000e+00
  SN1r   SQ4  1 4.100000e-01    5.002000e+00
  SN1r   TQ4  1 3.650000e-01    6.609000e+00
  SC6r    Q4  1 4.300000e-01    3.120000e+00
  SC6r   SQ4  1 4.100000e-01    3.977000e+00
  SC6r   TQ4  1 3.650000e-01    5.463000e+00
  SC5r    Q4  1 4.300000e-01    2.486000e+00
  SC5r   SQ4  1 4.100000e-01    3.405000e+00
  SC5r   TQ4  1 3.940000e-01    4.494000e+00
  SC4r    Q4  1 4.300000e-01    2.220000e+00
  SC4r   SQ4  1 4.140000e-01    3.020000e+00
  SC4r   TQ4  1 4.040000e-01    3.914000e+00
  SC3r    Q4  1 4.300000e-01    1.961000e+00
  SC3r   SQ4  1 4.180000e-01    2.554000e+00
  SC3r   TQ4  1 4.090000e-01    3.274000e+00
  SC2r    Q4  1 5.140000e-01    1.265000e+00
  SC2r   SQ4  1 4.960000e-01    1.827000e+00
  SC2r   TQ4  1 5.370000e-01    2.143000e+00
  SC1r    Q4  1 5.140000e-01    1.206000e+00
  SC1r   SQ4  1 4.960000e-01    1.534000e+00
  SC1r   TQ4  1 5.370000e-01    1.639000e+00
  SX4r    Q4  1 4.300000e-01    2.897000e+00
  SX4r   SQ4  1 4.100000e-01    3.905000e+00
  SX4r   TQ4  1 3.660000e-01    5.487000e+00
  SX3r    Q4  1 4.300000e-01    2.670000e+00
  SX3r   SQ4  1 4.100000e-01    3.687000e+00
  SX3r   TQ4  1 3.780000e-01    5.036000e+00
  SX2r    Q4  1 4.300000e-01    2.470000e+00
  SX2r   SQ4  1 4.100000e-01    3.324000e+00
  SX2r   TQ4  1 3.940000e-01    4.338000e+00
  SX1r    Q4  1 4.300000e-01    2.161000e+00
  SX1r   SQ4  1 4.140000e-01    2.725000e+00
  SX1r   TQ4  1 4.040000e-01    3.351000e+00
 SP6dr    Q4  1 4.300000e-01    5.174000e+00
 SP6dr   SQ4  1 4.100000e-01    6.801000e+00
 SP6dr   TQ4  1 3.650000e-01    9.178000e+00
 SP5dr    Q4  1 4.300000e-01    4.880000e+00
 SP5dr   SQ4  1 4.100000e-01    6.480000e+00
 SP5dr   TQ4  1 3.650000e-01    8.741000e+00
 SP4dr    Q4  1 4.300000e-01    4.864000e+00
 SP4dr   SQ4  1 4.100000e-01    6.400000e+00
 SP4dr   TQ4  1 3.650000e-01    8.573000e+00
 SP3dr    Q4  1 4.300000e-01    4.855000e+00
 SP3dr   SQ4  1 4.100000e-01    6.352000e+00
 SP3dr   TQ4  1 3.650000e-01    8.472000e+00
 SP2dr    Q4  1 4.300000e-01    4.618000e+00
 SP2dr   SQ4  1 4.100000e-01    6.098000e+00
 SP2dr   TQ4  1 3.650000e-01    8.132000e+00
 SP1dr    Q4  1 4.300000e-01    4.413000e+00
 SP1dr   SQ4  1 4.100000e-01    5.802000e+00
 SP1dr   TQ4  1 3.650000e-01    7.808000e+00
 SN6dr    Q4  1 4.300000e-01    4.407000e+00
 SN6dr   SQ4  1 4.100000e-01    5.773000e+00
 SN6dr   TQ4  1 3.650000e-01    7.747000e+00
 SN5dr    Q4  1 4.300000e-01    4.401000e+00
 SN5dr   SQ4  1 4.100000e-01    5.739000e+00
 SN5dr   TQ4  1 3.650000e-01    7.677000e+00
 SN4dr    Q4  1 4.300000e-01    4.193000e+00
 SN4dr   SQ4  1 4.100000e-01    5.459000e+00
 SN4dr   TQ4  1 3.650000e-01    7.321000e+00
 SN3dr    Q4  1 4.300000e-01    4.003000e+00
 SN3dr   SQ4  1 4.100000e-01    5.167000e+00
 SN3dr   TQ4  1 3.650000e-01    6.954000e+00
 SN2dr    Q4  1 4.300000e-01    3.989000e+00
 SN2dr   SQ4  1 4.100000e-01    5.100000e+00
 SN2dr   TQ4  1 3.650000e-01    6.812000e+00
 SN1dr    Q4  1 4.300000e-01    3.970000e+00
 SN1dr   SQ4  1 4.100000e-01    5.002000e+00
 SN1dr   TQ4  1 3.650000e-01    6.609000e+00
 SP6ar    Q4  1 4.300000e-01    5.174000e+00
 SP6ar   SQ4  1 4.100000e-01    6.801000e+00
 SP6ar   TQ4  1 3.650000e-01    9.178000e+00
 SP5ar    Q4  1 4.300000e-01    4.880000e+00
 SP5ar   SQ4  1 4.100000e-01    6.480000e+00
 SP5ar   TQ4  1 3.650000e-01    8.741000e+00
 SP4ar    Q4  1 4.300000e-01    4.864000e+00
 SP4ar   SQ4  1 4.100000e-01    6.400000e+00
 SP4ar   TQ4  1 3.650000e-01    8.573000e+00
 SP3ar    Q4  1 4.300000e-01    4.855000e+00
 SP3ar   SQ4  1 4.100000e-01    6.352000e+00
 SP3ar   TQ4  1 3.650000e-01    8.472000e+00
 SP2ar    Q4  1 4.300000e-01    4.618000e+00
 SP2ar   SQ4  1 4.100000e-01    6.098000e+00
 SP2ar   TQ4  1 3.650000e-01    8.132000e+00
 SP1ar    Q4  1 4.300000e-01    4.413000e+00
 SP1ar   SQ4  1 4.100000e-01    5.802000e+00
 SP1ar   TQ4  1 3.650000e-01    7.808000e+00
 SN6ar    Q4  1 4.300000e-01    4.407000e+00
 SN6ar   SQ4  1 4.100000e-01    5.773000e+00
 SN6ar   TQ4  1 3.650000e-01    7.747000e+00
 SN5ar    Q4  1 4.300000e-01    4.401000e+00
 SN5ar   SQ4  1 4.100000e-01    5.739000e+00
 SN5ar   TQ4  1 3.650000e-01    7.677000e+00
 SN4ar    Q4  1 4.300000e-01    4.193000e+00
 SN4ar   SQ4  1 4.100000e-01    5.459000e+00
 SN4ar   TQ4  1 3.650000e-01    7.321000e+00
 SN3ar    Q4  1 4.300000e-01    4.003000e+00
 SN3ar   SQ4  1 4.100000e-01    5.167000e+00
 SN3ar   TQ4  1 3.650000e-01    6.954000e+00
 SN2ar    Q4  1 4.300000e-01    3.989000e+00
 SN2ar   SQ4  1 4.100000e-01    5.100000e+00
 SN2ar   TQ4  1 3.650000e-01    6.812000e+00
 SN1ar    Q4  1 4.300000e-01    3.970000e+00
 SN1ar   SQ4  1 4.100000e-01    5.002000e+00
 SN1ar   TQ4  1 3.650000e-01    6.609000e+00
 SC6vr    Q4  1 4.300000e-01    3.270000e+00
 SC6vr   SQ4  1 4.100000e-01    4.127000e+00
 SC6vr   TQ4  1 3.650000e-01    5.623000e+00
 SC5vr    Q4  1 4.300000e-01    2.646000e+00
 SC5vr   SQ4  1 4.100000e-01    3.565000e+00
 SC5vr   TQ4  1 3.780000e-01    4.790000e+00
 SC4vr    Q4  1 4.300000e-01    2.450000e+00
 SC4vr   SQ4  1 4.100000e-01    3.224000e+00
 SC4vr   TQ4  1 3.940000e-01    4.145000e+00
 SC3vr    Q4  1 4.300000e-01    2.161000e+00
 SC3vr   SQ4  1 4.140000e-01    2.725000e+00
 SC3vr   TQ4  1 4.040000e-01    3.351000e+00
 SC2vr    Q4  1 4.730000e-01    1.448000e+00
 SC2vr   SQ4  1 4.530000e-01    2.000000e+00
 SC2vr   TQ4  1 4.840000e-01    2.371000e+00
 SC1vr    Q4  1 4.730000e-01    1.385000e+00
 SC1vr   SQ4  1 4.530000e-01    1.680000e+00
 SC1vr   TQ4  1 4.840000e-01    1.812000e+00
 SX4vr    Q4  1 4.300000e-01    3.137000e+00
 SX4vr   SQ4  1 4.100000e-01    4.065000e+00
 SX4vr   TQ4  1 3.650000e-01    5.648000e+00
 SX3vr    Q4  1 4.300000e-01    2.880000e+00
 SX3vr   SQ4  1 4.100000e-01    3.817000e+00
 SX3vr   TQ4  1 3.660000e-01    5.303000e+00
 SX2vr    Q4  1 4.300000e-01    2.630000e+00
 SX2vr   SQ4  1 4.100000e-01    3.484000e+00
 SX2vr   TQ4  1 3.780000e-01    4.627000e+00
 SX1vr    Q4  1 4.300000e-01    2.391000e+00
 SX1vr   SQ4  1 4.100000e-01    2.926000e+00
 SX1vr   TQ4  1 3.940000e-01    3.568000e+00
 SC6er    Q4  1 4.300000e-01    3.270000e+00
 SC6er   SQ4  1 4.100000e-01    4.127000e+00
 SC6er   TQ4  1 3.650000e-01    5.623000e+00
 SC5er    Q4  1 4.300000e-01    2.646000e+00
 SC5er   SQ4  1 4.100000e-01    3.565000e+00
 SC5er   TQ4  1 3.780000e-01    4.790000e+00
 SC4er    Q4  1 4.300000e-01    2.450000e+00
 SC4er   SQ4  1 4.100000e-01    3.224000e+00
 SC4er   TQ4  1 3.940000e-01    4.145000e+00
 SC3er    Q4  1 4.300000e-01    2.161000e+00
 SC3er   SQ4  1 4.140000e-01    2.725000e+00
 SC3er   TQ4  1 4.040000e-01    3.351000e+00
 SC2er    Q4  1 4.730000e-01    1.448000e+00
 SC2er   SQ4  1 4.530000e-01    2.000000e+00
 SC2er   TQ4  1 4.840000e-01    2.371000e+00
 SC1er    Q4  1 4.730000e-01    1.385000e+00
 SC1er   SQ4  1 4.530000e-01    1.680000e+00
 SC1er   TQ4  1 4.840000e-01    1.812000e+00
 SX4er    Q4  1 4.300000e-01    3.137000e+00
 SX4er   SQ4  1 4.100000e-01    4.065000e+00
 SX4er   TQ4  1 3.650000e-01    5.648000e+00
 SX3er    Q4  1 4.300000e-01    2.880000e+00
 SX3er   SQ4  1 4.100000e-01    3.817000e+00
 SX3er   TQ4  1 3.660000e-01    5.303000e+00
 SX2er    Q4  1 4.300000e-01    2.630000e+00
 SX2er   SQ4  1 4.100000e-01    3.484000e+00
 SX2er   TQ4  1 3.780000e-01    4.627000e+00
 SX1er    Q4  1 4.300000e-01    2.391000e+00
 SX1er   SQ4  1 4.100000e-01    2.926000e+00
 SX1er   TQ4  1 3.940000e-01    3.568000e+00
   TP6    Q4  1 3.950000e-01    4.639000e+00
   TP6   SQ4  1 3.650000e-01    6.174000e+00
   TP6   TQ4  1 3.400000e-01    8.408000e+00
   TP5    Q4  1 3.950000e-01    4.306000e+00
   TP5   SQ4  1 3.650000e-01    5.813000e+00
   TP5   TQ4  1 3.400000e-01    8.001000e+00
   TP4    Q4  1 3.950000e-01    4.292000e+00
   TP4   SQ4  1 3.650000e-01    5.734000e+00
   TP4   TQ4  1 3.400000e-01    7.827000e+00
   TP3    Q4  1 3.950000e-01    4.283000e+00
   TP3   SQ4  1 3.650000e-01    5.688000e+00
   TP3   TQ4  1 3.400000e-01    7.726000e+00
   TP2    Q4  1 3.950000e-01    4.037000e+00
   TP2   SQ4  1 3.650000e-01    5.386000e+00
   TP2   TQ4  1 3.400000e-01    7.425000e+00
   TP1    Q4  1 3.950000e-01    3.793000e+00
   TP1   SQ4  1 3.650000e-01    5.092000e+00
   TP1   TQ4  1 3.400000e-01    7.122000e+00
   TN6    Q4  1 3.950000e-01    3.788000e+00
   TN6   SQ4  1 3.650000e-01    5.065000e+00
   TN6   TQ4  1 3.400000e-01    7.062000e+00
   TN5    Q4  1 3.950000e-01    3.782000e+00
   TN5   SQ4  1 3.650000e-01    5.033000e+00
   TN5   TQ4  1 3.400000e-01    6.993000e+00
   TN4    Q4  1 3.950000e-01    3.535000e+00
   TN4   SQ4  1 3.650000e-01    4.726000e+00
   TN4   TQ4  1 3.400000e-01    6.671000e+00
   TN3    Q4  1 3.950000e-01    3.277000e+00
   TN3   SQ4  1 3.650000e-01    4.419000e+00
   TN3   TQ4  1 3.400000e-01    6.348000e+00
   TN2    Q4  1 3.950000e-01    3.266000e+00
   TN2   SQ4  1 3.650000e-01    4.358000e+00
   TN2   TQ4  1 3.400000e-01    6.213000e+00
   TN1    Q4  1 3.950000e-01    3.250000e+00
   TN1   SQ4  1 3.650000e-01    4.271000e+00
   TN1   TQ4  1 3.400000e-01    6.022000e+00
   TC6    Q4  1 3.950000e-01    2.395000e+00
   TC6   SQ4  1 3.650000e-01    3.312000e+00
   TC6   TQ4  1 3.400000e-01    4.666000e+00
   TC5    Q4  1 3.980000e-01    1.713000e+00
   TC5   SQ4  1 3.940000e-01    2.636000e+00
   TC5   TQ4  1 3.850000e-01    3.678000e+00
   TC4    Q4  1 3.990000e-01    1.413000e+00
   TC4   SQ4  1 4.040000e-01    2.298000e+00
   TC4   TQ4  1 4.110000e-01    3.154000e+00
   TC3    Q4  1 4.010000e-01    1.168000e+00
   TC3   SQ4  1 4.090000e-01    1.998000e+00
   TC3   TQ4  1 4.240000e-01    2.591000e+00
   TC2    Q4  1 5.110000e-01    7.740000e-01
   TC2   SQ4  1 5.370000e-01    1.365000e+00
   TC2   TQ4  1 5.610000e-01    1.722000e+00
   TC1    Q4  1 5.110000e-01    7.300000e-01
   TC1   SQ4  1 5.370000e-01    1.151000e+00
   TC1   TQ4  1 5.610000e-01    1.304000e+00
   TX4    Q4  1 3.950000e-01    2.149000e+00
   TX4   SQ4  1 3.660000e-01    3.236000e+00
   TX4   TQ4  1 3.520000e-01    4.536000e+00
   TX3    Q4  1 3.950000e-01    1.955000e+00
   TX3   SQ4  1 3.780000e-01    2.958000e+00
   TX3   TQ4  1 3.660000e-01    4.127000e+00
   TX2    Q4  1 3.980000e-01    1.700000e+00
   TX2   SQ4  1 3.940000e-01    2.570000e+00
   TX2   TQ4  1 3.850000e-01    3.539000e+00
   TX1    Q4  1 3.990000e-01    1.366000e+00
   TX1   SQ4  1 4.040000e-01    2.059000e+00
   TX1   TQ4  1 4.110000e-01    2.673000e+00
  TP6d    Q4  1 3.950000e-01    4.639000e+00
  TP6d   SQ4  1 3.650000e-01    6.174000e+00
  TP6d   TQ4  1 3.400000e-01    8.408000e+00
  TP5d    Q4  1 3.950000e-01    4.306000e+00
  TP5d   SQ4  1 3.650000e-01    5.813000e+00
  TP5d   TQ4  1 3.400000e-01    8.001000e+00
  TP4d    Q4  1 3.950000e-01    4.292000e+00
  TP4d   SQ4  1 3.650000e-01    5.734000e+00
  TP4d   TQ4  1 3.400000e-01    7.827000e+00
  TP3d    Q4  1 3.950000e-01    4.283000e+00
  TP3d   SQ4  1 3.650000e-01    5.688000e+00
  TP3d   TQ4  1 3.400000e-01    7.726000e+00
  TP2d    Q4  1 3.950000e-01    4.037000e+00
  TP2d   SQ4  1 3.650000e-01    5.386000e+00
  TP2d   TQ4  1 3.400000e-01    7.425000e+00
  TP1d    Q4  1 3.950000e-01    3.793000e+00
  TP1d   SQ4  1 3.650000e-01    5.092000e+00
  TP1d   TQ4  1 3.400000e-01    7.122000e+00
  TN6d    Q4  1 3.950000e-01    3.788000e+00
  TN6d   SQ4  1 3.650000e-01    5.065000e+00
  TN6d   TQ4  1 3.400000e-01    7.062000e+00
  TN5d    Q4  1 3.950000e-01    3.782000e+00
  TN5d   SQ4  1 3.650000e-01    5.033000e+00
  TN5d   TQ4  1 3.400000e-01    6.993000e+00
  TN4d    Q4  1 3.950000e-01    3.535000e+00
  TN4d   SQ4  1 3.650000e-01    4.726000e+00
  TN4d   TQ4  1 3.400000e-01    6.671000e+00
  TN3d    Q4  1 3.950000e-01    3.277000e+00
  TN3d   SQ4  1 3.650000e-01    4.419000e+00
  TN3d   TQ4  1 3.400000e-01    6.348000e+00
  TN2d    Q4  1 3.950000e-01    3.266000e+00
  TN2d   SQ4  1 3.650000e-01    4.358000e+00
  TN2d   TQ4  1 3.400000e-01    6.213000e+00
  TN1d    Q4  1 3.950000e-01    3.250000e+00
  TN1d   SQ4  1 3.650000e-01    4.271000e+00
  TN1d   TQ4  1 3.400000e-01    6.022000e+00
  TP6a    Q4  1 3.950000e-01    4.639000e+00
  TP6a   SQ4  1 3.650000e-01    6.174000e+00
  TP6a   TQ4  1 3.400000e-01    8.408000e+00
  TP5a    Q4  1 3.950000e-01    4.306000e+00
  TP5a   SQ4  1 3.650000e-01    5.813000e+00
  TP5a   TQ4  1 3.400000e-01    8.001000e+00
  TP4a    Q4  1 3.950000e-01    4.292000e+00
  TP4a   SQ4  1 3.650000e-01    5.734000e+00
  TP4a   TQ4  1 3.400000e-01    7.827000e+00
  TP3a    Q4  1 3.950000e-01    4.283000e+00
  TP3a   SQ4  1 3.650000e-01    5.688000e+00
  TP3a   TQ4  1 3.400000e-01    7.726000e+00
  TP2a    Q4  1 3.950000e-01    4.037000e+00
  TP2a   SQ4  1 3.650000e-01    5.386000e+00
  TP2a   TQ4  1 3.400000e-01    7.425000e+00
  TP1a    Q4  1 3.950000e-01    3.793000e+00
  TP1a   SQ4  1 3.650000e-01    5.092000e+00
  TP1a   TQ4  1 3.400000e-01    7.122000e+00
  TN6a    Q4  1 3.950000e-01    3.788000e+00
  TN6a   SQ4  1 3.650000e-01    5.065000e+00
  TN6a   TQ4  1 3.400000e-01    7.062000e+00
  TN5a    Q4  1 3.950000e-01    3.782000e+00
  TN5a   SQ4  1 3.650000e-01    5.033000e+00
  TN5a   TQ4  1 3.400000e-01    6.993000e+00
  TN4a    Q4  1 3.950000e-01    3.535000e+00
  TN4a   SQ4  1 3.650000e-01    4.726000e+00
  TN4a   TQ4  1 3.400000e-01    6.671000e+00
  TN3a    Q4  1 3.950000e-01    3.277000e+00
  TN3a   SQ4  1 3.650000e-01    4.419000e+00
  TN3a   TQ4  1 3.400000e-01    6.348000e+00
  TN2a    Q4  1 3.950000e-01    3.266000e+00
  TN2a   SQ4  1 3.650000e-01    4.358000e+00
  TN2a   TQ4  1 3.400000e-01    6.213000e+00
  TN1a    Q4  1 3.950000e-01    3.250000e+00
  TN1a   SQ4  1 3.650000e-01    4.271000e+00
  TN1a   TQ4  1 3.400000e-01    6.022000e+00
  TC6v    Q4  1 3.950000e-01    2.595000e+00
  TC6v   SQ4  1 3.650000e-01    3.472000e+00
  TC6v   TQ4  1 3.400000e-01    4.946000e+00
  TC5v    Q4  1 3.950000e-01    1.935000e+00
  TC5v   SQ4  1 3.780000e-01    2.853000e+00
  TC5v   TQ4  1 3.660000e-01    3.905000e+00
  TC4v    Q4  1 3.980000e-01    1.684000e+00
  TC4v   SQ4  1 3.940000e-01    2.488000e+00
  TC4v   TQ4  1 3.850000e-01    3.367000e+00
  TC3v    Q4  1 3.990000e-01    1.366000e+00
  TC3v   SQ4  1 4.040000e-01    2.059000e+00
  TC3v   TQ4  1 4.110000e-01    2.673000e+00
  TC2v    Q4  1 4.650000e-01    8.300000e-01
  TC2v   SQ4  1 4.840000e-01    1.508000e+00
  TC2v   TQ4  1 5.050000e-01    1.893000e+00
  TC1v    Q4  1 4.650000e-01    7.810000e-01
  TC1v   SQ4  1 4.840000e-01    1.271000e+00
  TC1v   TQ4  1 5.050000e-01    1.428000e+00
  TX4v    Q4  1 3.950000e-01    2.409000e+00
  TX4v   SQ4  1 3.650000e-01    3.390000e+00
  TX4v   TQ4  1 3.400000e-01    4.839000e+00
  TX3v    Q4  1 3.950000e-01    2.135000e+00
  TX3v   SQ4  1 3.660000e-01    3.157000e+00
  TX3v   TQ4  1 3.520000e-01    4.368000e+00
  TX2v    Q4  1 3.950000e-01    1.922000e+00
  TX2v   SQ4  1 3.780000e-01    2.784000e+00
  TX2v   TQ4  1 3.660000e-01    3.759000e+00
  TX1v    Q4  1 3.980000e-01    1.636000e+00
  TX1v   SQ4  1 3.940000e-01    2.243000e+00
  TX1v   TQ4  1 3.850000e-01    2.854000e+00
  TC6e    Q4  1 3.950000e-01    2.595000e+00
  TC6e   SQ4  1 3.650000e-01    3.472000e+00
  TC6e   TQ4  1 3.400000e-01    4.946000e+00
  TC5e    Q4  1 3.950000e-01    1.935000e+00
  TC5e   SQ4  1 3.780000e-01    2.853000e+00
  TC5e   TQ4  1 3.660000e-01    3.905000e+00
  TC4e    Q4  1 3.980000e-01    1.684000e+00
  TC4e   SQ4  1 3.940000e-01    2.488000e+00
  TC4e   TQ4  1 3.850000e-01    3.367000e+00
  TC3e    Q4  1 3.990000e-01    1.366000e+00
  TC3e   SQ4  1 4.040000e-01    2.059000e+00
  TC3e   TQ4  1 4.110000e-01    2.673000e+00
  TC2e    Q4  1 4.650000e-01    8.300000e-01
  TC2e   SQ4  1 4.840000e-01    1.508000e+00
  TC2e   TQ4  1 5.050000e-01    1.893000e+00
  TC1e    Q4  1 4.650000e-01    7.810000e-01
  TC1e   SQ4  1 4.840000e-01    1.271000e+00
  TC1e   TQ4  1 5.050000e-01    1.428000e+00
  TX4e    Q4  1 3.950000e-01    2.409000e+00
  TX4e   SQ4  1 3.650000e-01    3.390000e+00
  TX4e   TQ4  1 3.400000e-01    4.839000e+00
  TX3e    Q4  1 3.950000e-01    2.135000e+00
  TX3e   SQ4  1 3.660000e-01    3.157000e+00
  TX3e   TQ4  1 3.520000e-01    4.368000e+00
  TX2e    Q4  1 3.950000e-01    1.922000e+00
  TX2e   SQ4  1 3.780000e-01    2.784000e+00
  TX2e   TQ4  1 3.660000e-01    3.759000e+00
  TX1e    Q4  1 3.980000e-01    1.636000e+00
  TX1e   SQ4  1 3.940000e-01    2.243000e+00
  TX1e   TQ4  1 3.850000e-01    2.854000e+00
  TP6q    Q4  1 3.950000e-01    5.679000e+00
  TP6q   SQ4  1 3.650000e-01    7.104000e+00
  TP6q   TQ4  1 3.400000e-01    9.238000e+00
  TP5q    Q4  1 3.950000e-01    5.266000e+00
  TP5q   SQ4  1 3.650000e-01    6.683000e+00
  TP5q   TQ4  1 3.400000e-01    8.801000e+00
  TP4q    Q4  1 3.950000e-01    5.252000e+00
  TP4q   SQ4  1 3.650000e-01    6.604000e+00
  TP4q   TQ4  1 3.400000e-01    8.627000e+00
  TP3q    Q4  1 3.950000e-01    5.243000e+00
  TP3q   SQ4  1 3.650000e-01    6.558000e+00
  TP3q   TQ4  1 3.400000e-01    8.526000e+00
  TP2q    Q4  1 3.950000e-01    4.907000e+00
  TP2q   SQ4  1 3.650000e-01    6.236000e+00
  TP2q   TQ4  1 3.400000e-01    8.185000e+00
  TP1q    Q4  1 3.950000e-01    4.593000e+00
  TP1q   SQ4  1 3.650000e-01    5.922000e+00
  TP1q   TQ4  1 3.400000e-01    7.852000e+00
  TN6q    Q4  1 3.950000e-01    4.588000e+00
  TN6q   SQ4  1 3.650000e-01    5.895000e+00
  TN6q   TQ4  1 3.400000e-01    7.792000e+00
  TN5q    Q4  1 3.950000e-01    4.582000e+00
  TN5q   SQ4  1 3.650000e-01    5.863000e+00
  TN5q   TQ4  1 3.400000e-01    7.723000e+00
  TN4q    Q4  1 3.950000e-01    4.255000e+00
  TN4q   SQ4  1 3.650000e-01    5.536000e+00
  TN4q   TQ4  1 3.400000e-01    7.391000e+00
  TN3q    Q4  1 3.950000e-01    4.007000e+00
  TN3q   SQ4  1 3.650000e-01    5.219000e+00
  TN3q   TQ4  1 3.400000e-01    7.058000e+00
  TN2q    Q4  1 3.950000e-01    3.996000e+00
  TN2q   SQ4  1 3.650000e-01    5.158000e+00
  TN2q   TQ4  1 3.400000e-01    6.923000e+00
  TN1q    Q4  1 3.950000e-01    3.980000e+00
  TN1q   SQ4  1 3.650000e-01    5.071000e+00
  TN1q   TQ4  1 3.400000e-01    6.732000e+00
  TC6q    Q4  1 3.950000e-01    2.985000e+00
  TC6q   SQ4  1 3.650000e-01    3.902000e+00
  TC6q   TQ4  1 3.400000e-01    5.456000e+00
  TC5q    Q4  1 3.950000e-01    2.375000e+00
  TC5q   SQ4  1 3.650000e-01    3.203000e+00
  TC5q   TQ4  1 3.400000e-01    4.427000e+00
  TC4q    Q4  1 3.950000e-01    2.086000e+00
  TC4q   SQ4  1 3.660000e-01    2.889000e+00
  TC4q   TQ4  1 3.520000e-01    3.797000e+00
  TC3q    Q4  1 3.950000e-01    1.857000e+00
  TC3q   SQ4  1 3.780000e-01    2.443000e+00
  TC3q   TQ4  1 3.660000e-01    3.038000e+00
  TC2q    Q4  1 4.010000e-01    1.130000e+00
  TC2q   SQ4  1 4.090000e-01    1.811000e+00
  TC2q   TQ4  1 4.240000e-01    2.221000e+00
  TC1q    Q4  1 4.010000e-01    1.074000e+00
  TC1q   SQ4  1 4.090000e-01    1.531000e+00
  TC1q   TQ4  1 4.240000e-01    1.667000e+00
  TX4q    Q4  1 3.950000e-01    2.799000e+00
  TX4q   SQ4  1 3.650000e-01    3.750000e+00
  TX4q   TQ4  1 3.400000e-01    5.379000e+00
  TX3q    Q4  1 3.950000e-01    2.595000e+00
  TX3q   SQ4  1 3.650000e-01    3.472000e+00
  TX3q   TQ4  1 3.400000e-01    4.946000e+00
  TX2q    Q4  1 3.950000e-01    2.362000e+00
  TX2q   SQ4  1 3.650000e-01    3.132000e+00
  TX2q   TQ4  1 3.400000e-01    4.270000e+00
  TX1q    Q4  1 3.950000e-01    2.037000e+00
  TX1q   SQ4  1 3.660000e-01    2.626000e+00
  TX1q   TQ4  1 3.520000e-01    3.236000e+00
 TP6dq    Q4  1 3.950000e-01    5.679000e+00
 TP6dq   SQ4  1 3.650000e-01    7.104000e+00
 TP6dq   TQ4  1 3.400000e-01    9.238000e+00
 TP5dq    Q4  1 3.950000e-01    5.266000e+00
 TP5dq   SQ4  1 3.650000e-01    6.683000e+00
 TP5dq   TQ4  1 3.400000e-01    8.801000e+00
 TP4dq    Q4  1 3.950000e-01    5.252000e+00
 TP4dq   SQ4  1 3.650000e-01    6.604000e+00
 TP4dq   TQ4  1 3.400000e-01    8.627000e+00
 TP3dq    Q4  1 3.950000e-01    5.243000e+00
 TP3dq   SQ4  1 3.650000e-01    6.558000e+00
 TP3dq   TQ4  1 3.400000e-01    8.526000e+00
 TP2dq    Q4  1 3.950000e-01    4.907000e+00
 TP2dq   SQ4  1 3.650000e-01    6.236000e+00
 TP2dq   TQ4  1 3.400000e-01    8.185000e+00
 TP1dq    Q4  1 3.950000e-01    4.593000e+00
 TP1dq   SQ4  1 3.650000e-01    5.922000e+00
 TP1dq   TQ4  1 3.400000e-01    7.852000e+00
 TN6dq    Q4  1 3.950000e-01    4.588000e+00
 TN6dq   SQ4  1 3.650000e-01    5.895000e+00
 TN6dq   TQ4  1 3.400000e-01    7.792000e+00
 TN5dq    Q4  1 3.950000e-01    4.582000e+00
 TN5dq   SQ4  1 3.650000e-01    5.863000e+00
 TN5dq   TQ4  1 3.400000e-01    7.723000e+00
 TN4dq    Q4  1 3.950000e-01    4.255000e+00
 TN4dq   SQ4  1 3.650000e-01    5.536000e+00
 TN4dq   TQ4  1 3.400000e-01    7.391000e+00
 TN3dq    Q4  1 3.950000e-01    4.007000e+00
 TN3dq   SQ4  1 3.650000e-01    5.219000e+00
 TN3dq   TQ4  1 3.400000e-01    7.058000e+00
 TN2dq    Q4  1 3.950000e-01    3.996000e+00
 TN2dq   SQ4  1 3.650000e-01    5.158000e+00
 TN2dq   TQ4  1 3.400000e-01    6.923000e+00
 TN1dq    Q4  1 3.950000e-01    3.980000e+00
 TN1dq   SQ4  1 3.650000e-01    5.071000e+00
 TN1dq   TQ4  1 3.400000e-01    6.732000e+00
 TP6aq    Q4  1 3.950000e-01    5.679000e+00
 TP6aq   SQ4  1 3.650000e-01    7.104000e+00
 TP6aq   TQ4  1 3.400000e-01    9.238000e+00
 TP5aq    Q4  1 3.950000e-01    5.266000e+00
 TP5aq   SQ4  1 3.650000e-01    6.683000e+00
 TP5aq   TQ4  1 3.400000e-01    8.801000e+00
 TP4aq    Q4  1 3.950000e-01    5.252000e+00
 TP4aq   SQ4  1 3.650000e-01    6.604000e+00
 TP4aq   TQ4  1 3.400000e-01    8.627000e+00
 TP3aq    Q4  1 3.950000e-01    5.243000e+00
 TP3aq   SQ4  1 3.650000e-01    6.558000e+00
 TP3aq   TQ4  1 3.400000e-01    8.526000e+00
 TP2aq    Q4  1 3.950000e-01    4.907000e+00
 TP2aq   SQ4  1 3.650000e-01    6.236000e+00
 TP2aq   TQ4  1 3.400000e-01    8.185000e+00
 TP1aq    Q4  1 3.950000e-01    4.593000e+00
 TP1aq   SQ4  1 3.650000e-01    5.922000e+00
 TP1aq   TQ4  1 3.400000e-01    7.852000e+00
 TN6aq    Q4  1 3.950000e-01    4.588000e+00
 TN6aq   SQ4  1 3.650000e-01    5.895000e+00
 TN6aq   TQ4  1 3.400000e-01    7.792000e+00
 TN5aq    Q4  1 3.950000e-01    4.582000e+00
 TN5aq   SQ4  1 3.650000e-01    5.863000e+00
 TN5aq   TQ4  1 3.400000e-01    7.723000e+00
 TN4aq    Q4  1 3.950000e-01    4.255000e+00
 TN4aq   SQ4  1 3.650000e-01    5.536000e+00
 TN4aq   TQ4  1 3.400000e-01    7.391000e+00
 TN3aq    Q4  1 3.950000e-01    4.007000e+00
 TN3aq   SQ4  1 3.650000e-01    5.219000e+00
 TN3aq   TQ4  1 3.400000e-01    7.058000e+00
 TN2aq    Q4  1 3.950000e-01    3.996000e+00
 TN2aq   SQ4  1 3.650000e-01    5.158000e+00
 TN2aq   TQ4  1 3.400000e-01    6.923000e+00
 TN1aq    Q4  1 3.950000e-01    3.980000e+00
 TN1aq   SQ4  1 3.650000e-01    5.071000e+00
 TN1aq   TQ4  1 3.400000e-01    6.732000e+00
 TC6vq    Q4  1 3.950000e-01    3.225000e+00
 TC6vq   SQ4  1 3.650000e-01    4.132000e+00
 TC6vq   TQ4  1 3.400000e-01    5.716000e+00
 TC5vq    Q4  1 3.950000e-01    2.575000e+00
 TC5vq   SQ4  1 3.650000e-01    3.363000e+00
 TC5vq   TQ4  1 3.400000e-01    4.707000e+00
 TC4vq    Q4  1 3.950000e-01    2.346000e+00
 TC4vq   SQ4  1 3.650000e-01    3.043000e+00
 TC4vq   TQ4  1 3.400000e-01    4.074000e+00
 TC3vq    Q4  1 3.950000e-01    2.037000e+00
 TC3vq   SQ4  1 3.660000e-01    2.626000e+00
 TC3vq   TQ4  1 3.520000e-01    3.236000e+00
 TC2vq    Q4  1 3.990000e-01    1.328000e+00
 TC2vq   SQ4  1 4.040000e-01    1.870000e+00
 TC2vq   TQ4  1 4.110000e-01    2.291000e+00
 TC1vq    Q4  1 3.990000e-01    1.271000e+00
 TC1vq   SQ4  1 4.040000e-01    1.586000e+00
 TC1vq   TQ4  1 4.110000e-01    1.721000e+00
 TX4vq    Q4  1 3.950000e-01    2.999000e+00
 TX4vq   SQ4  1 3.650000e-01    3.980000e+00
 TX4vq   TQ4  1 3.400000e-01    5.629000e+00
 TX3vq    Q4  1 3.950000e-01    2.785000e+00
 TX3vq   SQ4  1 3.650000e-01    3.672000e+00
 TX3vq   TQ4  1 3.400000e-01    5.206000e+00
 TX2vq    Q4  1 3.950000e-01    2.562000e+00
 TX2vq   SQ4  1 3.650000e-01    3.292000e+00
 TX2vq   TQ4  1 3.400000e-01    4.550000e+00
 TX1vq    Q4  1 3.950000e-01    2.297000e+00
 TX1vq   SQ4  1 3.650000e-01    2.779000e+00
 TX1vq   TQ4  1 3.400000e-01    3.493000e+00
 TC6eq    Q4  1 3.950000e-01    3.225000e+00
 TC6eq   SQ4  1 3.650000e-01    4.132000e+00
 TC6eq   TQ4  1 3.400000e-01    5.716000e+00
 TC5eq    Q4  1 3.950000e-01    2.575000e+00
 TC5eq   SQ4  1 3.650000e-01    3.363000e+00
 TC5eq   TQ4  1 3.400000e-01    4.707000e+00
 TC4eq    Q4  1 3.950000e-01    2.346000e+00
 TC4eq   SQ4  1 3.650000e-01    3.043000e+00
 TC4eq   TQ4  1 3.400000e-01    4.074000e+00
 TC3eq    Q4  1 3.950000e-01    2.037000e+00
 TC3eq   SQ4  1 3.660000e-01    2.626000e+00
 TC3eq   TQ4  1 3.520000e-01    3.236000e+00
 TC2eq    Q4  1 3.990000e-01    1.328000e+00
 TC2eq   SQ4  1 4.040000e-01    1.870000e+00
 TC2eq   TQ4  1 4.110000e-01    2.291000e+00
 TC1eq    Q4  1 3.990000e-01    1.271000e+00
 TC1eq   SQ4  1 4.040000e-01    1.586000e+00
 TC1eq   TQ4  1 4.110000e-01    1.721000e+00
 TX4eq    Q4  1 3.950000e-01    2.999000e+00
 TX4eq   SQ4  1 3.650000e-01    3.980000e+00
 TX4eq   TQ4  1 3.400000e-01    5.629000e+00
 TX3eq    Q4  1 3.950000e-01    2.785000e+00
 TX3eq   SQ4  1 3.650000e-01    3.672000e+00
 TX3eq   TQ4  1 3.400000e-01    5.206000e+00
 TX2eq    Q4  1 3.950000e-01    2.562000e+00
 TX2eq   SQ4  1 3.650000e-01    3.292000e+00
 TX2eq   TQ4  1 3.400000e-01    4.550000e+00
 TX1eq    Q4  1 3.950000e-01    2.297000e+00
 TX1eq   SQ4  1 3.650000e-01    2.779000e+00
 TX1eq   TQ4  1 3.400000e-01    3.493000e+00
  TP6h    Q4  1 3.950000e-01    4.639000e+00
  TP6h   SQ4  1 3.650000e-01    6.174000e+00
  TP6h   TQ4  1 3.400000e-01    8.408000e+00
  TP5h    Q4  1 3.950000e-01    4.306000e+00
  TP5h   SQ4  1 3.650000e-01    5.813000e+00
  TP5h   TQ4  1 3.400000e-01    8.001000e+00
  TP4h    Q4  1 3.950000e-01    4.292000e+00
  TP4h   SQ4  1 3.650000e-01    5.734000e+00
  TP4h   TQ4  1 3.400000e-01    7.827000e+00
  TP3h    Q4  1 3.950000e-01    4.283000e+00
  TP3h   SQ4  1 3.650000e-01    5.688000e+00
  TP3h   TQ4  1 3.400000e-01    7.726000e+00
  TP2h    Q4  1 3.950000e-01    4.037000e+00
  TP2h   SQ4  1 3.650000e-01    5.386000e+00
  TP2h   TQ4  1 3.400000e-01    7.425000e+00
  TP1h    Q4  1 3.950000e-01    3.793000e+00
  TP1h   SQ4  1 3.650000e-01    5.092000e+00
  TP1h   TQ4  1 3.400000e-01    7.122000e+00
  TN6h    Q4  1 3.950000e-01    3.788000e+00
  TN6h   SQ4  1 3.650000e-01    5.065000e+00
  TN6h   TQ4  1 3.400000e-01    7.062000e+00
  TN5h    Q4  1 3.950000e-01    3.782000e+00
  TN5h   SQ4  1 3.650000e-01    5.033000e+00
  TN5h   TQ4  1 3.400000e-01    6.993000e+00
  TN4h    Q4  1 3.950000e-01    3.535000e+00
  TN4h   SQ4  1 3.650000e-01    4.726000e+00
  TN4h   TQ4  1 3.400000e-01    6.671000e+00
  TN3h    Q4  1 3.950000e-01    3.277000e+00
  TN3h   SQ4  1 3.650000e-01    4.419000e+00
  TN3h   TQ4  1 3.400000e-01    6.348000e+00
  TN2h    Q4  1 3.950000e-01    3.266000e+00
  TN2h   SQ4  1 3.650000e-01    4.358000e+00
  TN2h   TQ4  1 3.400000e-01    6.213000e+00
  TN1h    Q4  1 3.950000e-01    3.250000e+00
  TN1h   SQ4  1 3.650000e-01    4.271000e+00
  TN1h   TQ4  1 3.400000e-01    6.022000e+00
  TC6h    Q4  1 3.950000e-01    2.395000e+00
  TC6h   SQ4  1 3.650000e-01    3.312000e+00
  TC6h   TQ4  1 3.400000e-01    4.666000e+00
  TC5h    Q4  1 3.980000e-01    1.713000e+00
  TC5h   SQ4  1 3.940000e-01    2.636000e+00
  TC5h   TQ4  1 3.850000e-01    3.678000e+00
  TC4h    Q4  1 3.990000e-01    1.413000e+00
  TC4h   SQ4  1 4.040000e-01    2.298000e+00
  TC4h   TQ4  1 4.110000e-01    3.154000e+00
  TC3h    Q4  1 4.010000e-01    1.168000e+00
  TC3h   SQ4  1 4.090000e-01    1.998000e+00
  TC3h   TQ4  1 4.240000e-01    2.591000e+00
  TC2h    Q4  1 5.110000e-01    7.740000e-01
  TC2h   SQ4  1 5.370000e-01    1.365000e+00
  TC2h   TQ4  1 5.610000e-01    1.722000e+00
  TC1h    Q4  1 5.110000e-01    7.300000e-01
  TC1h   SQ4  1 5.370000e-01    1.151000e+00
  TC1h   TQ4  1 5.610000e-01    1.304000e+00
  TX4h    Q4  1 3.950000e-01    2.149000e+00
  TX4h   SQ4  1 3.660000e-01    3.236000e+00
  TX4h   TQ4  1 3.520000e-01    4.536000e+00
  TX3h    Q4  1 3.950000e-01    1.955000e+00
  TX3h   SQ4  1 3.780000e-01    2.958000e+00
  TX3h   TQ4  1 3.660000e-01    4.127000e+00
  TX2h    Q4  1 3.980000e-01    1.700000e+00
  TX2h   SQ4  1 3.940000e-01    2.570000e+00
  TX2h   TQ4  1 3.850000e-01    3.539000e+00
  TX1h    Q4  1 3.990000e-01    1.366000e+00
  TX1h   SQ4  1 4.040000e-01    2.059000e+00
  TX1h   TQ4  1 4.110000e-01    2.673000e+00
 TP6dh    Q4  1 3.950000e-01    4.639000e+00
 TP6dh   SQ4  1 3.650000e-01    6.174000e+00
 TP6dh   TQ4  1 3.400000e-01    8.408000e+00
 TP5dh    Q4  1 3.950000e-01    4.306000e+00
 TP5dh   SQ4  1 3.650000e-01    5.813000e+00
 TP5dh   TQ4  1 3.400000e-01    8.001000e+00
 TP4dh    Q4  1 3.950000e-01    4.292000e+00
 TP4dh   SQ4  1 3.650000e-01    5.734000e+00
 TP4dh   TQ4  1 3.400000e-01    7.827000e+00
 TP3dh    Q4  1 3.950000e-01    4.283000e+00
 TP3dh   SQ4  1 3.650000e-01    5.688000e+00
 TP3dh   TQ4  1 3.400000e-01    7.726000e+00
 TP2dh    Q4  1 3.950000e-01    4.037000e+00
 TP2dh   SQ4  1 3.650000e-01    5.386000e+00
 TP2dh   TQ4  1 3.400000e-01    7.425000e+00
 TP1dh    Q4  1 3.950000e-01    3.793000e+00
 TP1dh   SQ4  1 3.650000e-01    5.092000e+00
 TP1dh   TQ4  1 3.400000e-01    7.122000e+00
 TN6dh    Q4  1 3.950000e-01    3.788000e+00
 TN6dh   SQ4  1 3.650000e-01    5.065000e+00
 TN6dh   TQ4  1 3.400000e-01    7.062000e+00
 TN5dh    Q4  1 3.950000e-01    3.782000e+00
 TN5dh   SQ4  1 3.650000e-01    5.033000e+00
 TN5dh   TQ4  1 3.400000e-01    6.993000e+00
 TN4dh    Q4  1 3.950000e-01    3.535000e+00
 TN4dh   SQ4  1 3.650000e-01    4.726000e+00
 TN4dh   TQ4  1 3.400000e-01    6.671000e+00
 TN3dh    Q4  1 3.950000e-01    3.277000e+00
 TN3dh   SQ4  1 3.650000e-01    4.419000e+00
 TN3dh   TQ4  1 3.400000e-01    6.348000e+00
 TN2dh    Q4  1 3.950000e-01    3.266000e+00
 TN2dh   SQ4  1 3.650000e-01    4.358000e+00
 TN2dh   TQ4  1 3.400000e-01    6.213000e+00
 TN1dh    Q4  1 3.950000e-01    3.250000e+00
 TN1dh   SQ4  1 3.650000e-01    4.271000e+00
 TN1dh   TQ4  1 3.400000e-01    6.022000e+00
 TP6ah    Q4  1 3.950000e-01    4.639000e+00
 TP6ah   SQ4  1 3.650000e-01    6.174000e+00
 TP6ah   TQ4  1 3.400000e-01    8.408000e+00
 TP5ah    Q4  1 3.950000e-01    4.306000e+00
 TP5ah   SQ4  1 3.650000e-01    5.813000e+00
 TP5ah   TQ4  1 3.400000e-01    8.001000e+00
 TP4ah    Q4  1 3.950000e-01    4.292000e+00
 TP4ah   SQ4  1 3.650000e-01    5.734000e+00
 TP4ah   TQ4  1 3.400000e-01    7.827000e+00
 TP3ah    Q4  1 3.950000e-01    4.283000e+00
 TP3ah   SQ4  1 3.650000e-01    5.688000e+00
 TP3ah   TQ4  1 3.400000e-01    7.726000e+00
 TP2ah    Q4  1 3.950000e-01    4.037000e+00
 TP2ah   SQ4  1 3.650000e-01    5.386000e+00
 TP2ah   TQ4  1 3.400000e-01    7.425000e+00
 TP1ah    Q4  1 3.950000e-01    3.793000e+00
 TP1ah   SQ4  1 3.650000e-01    5.092000e+00
 TP1ah   TQ4  1 3.400000e-01    7.122000e+00
 TN6ah    Q4  1 3.950000e-01    3.788000e+00
 TN6ah   SQ4  1 3.650000e-01    5.065000e+00
 TN6ah   TQ4  1 3.400000e-01    7.062000e+00
 TN5ah    Q4  1 3.950000e-01    3.782000e+00
 TN5ah   SQ4  1 3.650000e-01    5.033000e+00
 TN5ah   TQ4  1 3.400000e-01    6.993000e+00
 TN4ah    Q4  1 3.950000e-01    3.535000e+00
 TN4ah   SQ4  1 3.650000e-01    4.726000e+00
 TN4ah   TQ4  1 3.400000e-01    6.671000e+00
 TN3ah    Q4  1 3.950000e-01    3.277000e+00
 TN3ah   SQ4  1 3.650000e-01    4.419000e+00
 TN3ah   TQ4  1 3.400000e-01    6.348000e+00
 TN2ah    Q4  1 3.950000e-01    3.266000e+00
 TN2ah   SQ4  1 3.650000e-01    4.358000e+00
 TN2ah   TQ4  1 3.400000e-01    6.213000e+00
 TN1ah    Q4  1 3.950000e-01    3.250000e+00
 TN1ah   SQ4  1 3.650000e-01    4.271000e+00
 TN1ah   TQ4  1 3.400000e-01    6.022000e+00
 TC6vh    Q4  1 3.950000e-01    2.595000e+00
 TC6vh   SQ4  1 3.650000e-01    3.472000e+00
 TC6vh   TQ4  1 3.400000e-01    4.946000e+00
 TC5vh    Q4  1 3.950000e-01    1.935000e+00
 TC5vh   SQ4  1 3.780000e-01    2.853000e+00
 TC5vh   TQ4  1 3.660000e-01    3.905000e+00
 TC4vh    Q4  1 3.980000e-01    1.684000e+00
 TC4vh   SQ4  1 3.940000e-01    2.488000e+00
 TC4vh   TQ4  1 3.850000e-01    3.367000e+00
 TC3vh    Q4  1 3.990000e-01    1.366000e+00
 TC3vh   SQ4  1 4.040000e-01    2.059000e+00
 TC3vh   TQ4  1 4.110000e-01    2.673000e+00
 TC2vh    Q4  1 4.650000e-01    8.300000e-01
 TC2vh   SQ4  1 4.840000e-01    1.508000e+00
 TC2vh   TQ4  1 5.050000e-01    1.893000e+00
 TC1vh    Q4  1 4.650000e-01    7.810000e-01
 TC1vh   SQ4  1 4.840000e-01    1.271000e+00
 TC1vh   TQ4  1 5.050000e-01    1.428000e+00
 TX4vh    Q4  1 3.950000e-01    2.409000e+00
 TX4vh   SQ4  1 3.650000e-01    3.390000e+00
 TX4vh   TQ4  1 3.400000e-01    4.839000e+00
 TX3vh    Q4  1 3.950000e-01    2.135000e+00
 TX3vh   SQ4  1 3.660000e-01    3.157000e+00
 TX3vh   TQ4  1 3.520000e-01    4.368000e+00
 TX2vh    Q4  1 3.950000e-01    1.922000e+00
 TX2vh   SQ4  1 3.780000e-01    2.784000e+00
 TX2vh   TQ4  1 3.660000e-01    3.759000e+00
 TX1vh    Q4  1 3.980000e-01    1.636000e+00
 TX1vh   SQ4  1 3.940000e-01    2.243000e+00
 TX1vh   TQ4  1 3.850000e-01    2.854000e+00
 TC6eh    Q4  1 3.950000e-01    2.595000e+00
 TC6eh   SQ4  1 3.650000e-01    3.472000e+00
 TC6eh   TQ4  1 3.400000e-01    4.946000e+00
 TC5eh    Q4  1 3.950000e-01    1.935000e+00
 TC5eh   SQ4  1 3.780000e-01    2.853000e+00
 TC5eh   TQ4  1 3.660000e-01    3.905000e+00
 TC4eh    Q4  1 3.980000e-01    1.684000e+00
 TC4eh   SQ4  1 3.940000e-01    2.488000e+00
 TC4eh   TQ4  1 3.850000e-01    3.367000e+00
 TC3eh    Q4  1 3.990000e-01    1.366000e+00
 TC3eh   SQ4  1 4.040000e-01    2.059000e+00
 TC3eh   TQ4  1 4.110000e-01    2.673000e+00
 TC2eh    Q4  1 4.650000e-01    8.300000e-01
 TC2eh   SQ4  1 4.840000e-01    1.508000e+00
 TC2eh   TQ4  1 5.050000e-01    1.893000e+00
 TC1eh    Q4  1 4.650000e-01    7.810000e-01
 TC1eh   SQ4  1 4.840000e-01    1.271000e+00
 TC1eh   TQ4  1 5.050000e-01    1.428000e+00
 TX4eh    Q4  1 3.950000e-01    2.409000e+00
 TX4eh   SQ4  1 3.650000e-01    3.390000e+00
 TX4eh   TQ4  1 3.400000e-01    4.839000e+00
 TX3eh    Q4  1 3.950000e-01    2.135000e+00
 TX3eh   SQ4  1 3.660000e-01    3.157000e+00
 TX3eh   TQ4  1 3.520000e-01    4.368000e+00
 TX2eh    Q4  1 3.950000e-01    1.922000e+00
 TX2eh   SQ4  1 3.780000e-01    2.784000e+00
 TX2eh   TQ4  1 3.660000e-01    3.759000e+00
 TX1eh    Q4  1 3.980000e-01    1.636000e+00
 TX1eh   SQ4  1 3.940000e-01    2.243000e+00
 TX1eh   TQ4  1 3.850000e-01    2.854000e+00
  TP6r    Q4  1 3.950000e-01    4.639000e+00
  TP6r   SQ4  1 3.650000e-01    6.174000e+00
  TP6r   TQ4  1 3.400000e-01    8.408000e+00
  TP5r    Q4  1 3.950000e-01    4.306000e+00
  TP5r   SQ4  1 3.650000e-01    5.813000e+00
  TP5r   TQ4  1 3.400000e-01    8.001000e+00
  TP4r    Q4  1 3.950000e-01    4.292000e+00
  TP4r   SQ4  1 3.650000e-01    5.734000e+00
  TP4r   TQ4  1 3.400000e-01    7.827000e+00
  TP3r    Q4  1 3.950000e-01    4.283000e+00
  TP3r   SQ4  1 3.650000e-01    5.688000e+00
  TP3r   TQ4  1 3.400000e-01    7.726000e+00
  TP2r    Q4  1 3.950000e-01    4.037000e+00
  TP2r   SQ4  1 3.650000e-01    5.386000e+00
  TP2r   TQ4  1 3.400000e-01    7.425000e+00
  TP1r    Q4  1 3.950000e-01    3.793000e+00
  TP1r   SQ4  1 3.650000e-01    5.092000e+00
  TP1r   TQ4  1 3.400000e-01    7.122000e+00
  TN6r    Q4  1 3.950000e-01    3.788000e+00
  TN6r   SQ4  1 3.650000e-01    5.065000e+00
  TN6r   TQ4  1 3.400000e-01    7.062000e+00
  TN5r    Q4  1 3.950000e-01    3.782000e+00
  TN5r   SQ4  1 3.650000e-01    5.033000e+00
  TN5r   TQ4  1 3.400000e-01    6.993000e+00
  TN4r    Q4  1 3.950000e-01    3.535000e+00
  TN4r   SQ4  1 3.650000e-01    4.726000e+00
  TN4r   TQ4  1 3.400000e-01    6.671000e+00
  TN3r    Q4  1 3.950000e-01    3.277000e+00
  TN3r   SQ4  1 3.650000e-01    4.419000e+00
  TN3r   TQ4  1 3.400000e-01    6.348000e+00
  TN2r    Q4  1 3.950000e-01    3.266000e+00
  TN2r   SQ4  1 3.650000e-01    4.358000e+00
  TN2r   TQ4  1 3.400000e-01    6.213000e+00
  TN1r    Q4  1 3.950000e-01    3.250000e+00
  TN1r   SQ4  1 3.650000e-01    4.271000e+00
  TN1r   TQ4  1 3.400000e-01    6.022000e+00
  TC6r    Q4  1 3.950000e-01    2.395000e+00
  TC6r   SQ4  1 3.650000e-01    3.312000e+00
  TC6r   TQ4  1 3.400000e-01    4.666000e+00
  TC5r    Q4  1 3.980000e-01    1.713000e+00
  TC5r   SQ4  1 3.940000e-01    2.636000e+00
  TC5r   TQ4  1 3.850000e-01    3.678000e+00
  TC4r    Q4  1 3.990000e-01    1.413000e+00
  TC4r   SQ4  1 4.040000e-01    2.298000e+00
  TC4r   TQ4  1 4.110000e-01    3.154000e+00
  TC3r    Q4  1 4.010000e-01    1.168000e+00
  TC3r   SQ4  1 4.090000e-01    1.998000e+00
  TC3r   TQ4  1 4.240000e-01    2.591000e+00
  TC2r    Q4  1 5.110000e-01    7.740000e-01
  TC2r   SQ4  1 5.370000e-01    1.365000e+00
  TC2r   TQ4  1 5.610000e-01    1.722000e+00
  TC1r    Q4  1 5.110000e-01    7.300000e-01
  TC1r   SQ4  1 5.370000e-01    1.151000e+00
  TC1r   TQ4  1 5.610000e-01    1.304000e+00
  TX4r    Q4  1 3.950000e-01    2.149000e+00
  TX4r   SQ4  1 3.660000e-01    3.236000e+00
  TX4r   TQ4  1 3.520000e-01    4.536000e+00
  TX3r    Q4  1 3.950000e-01    1.955000e+00
  TX3r   SQ4  1 3.780000e-01    2.958000e+00
  TX3r   TQ4  1 3.660000e-01    4.127000e+00
  TX2r    Q4  1 3.980000e-01    1.700000e+00
  TX2r   SQ4  1 3.940000e-01    2.570000e+00
  TX2r   TQ4  1 3.850000e-01    3.539000e+00
  TX1r    Q4  1 3.990000e-01    1.366000e+00
  TX1r   SQ4  1 4.040000e-01    2.059000e+00
  TX1r   TQ4  1 4.110000e-01    2.673000e+00
 TP6dr    Q4  1 3.950000e-01    4.639000e+00
 TP6dr   SQ4  1 3.650000e-01    6.174000e+00
 TP6dr   TQ4  1 3.400000e-01    8.408000e+00
 TP5dr    Q4  1 3.950000e-01    4.306000e+00
 TP5dr   SQ4  1 3.650000e-01    5.813000e+00
 TP5dr   TQ4  1 3.400000e-01    8.001000e+00
 TP4dr    Q4  1 3.950000e-01    4.292000e+00
 TP4dr   SQ4  1 3.650000e-01    5.734000e+00
 TP4dr   TQ4  1 3.400000e-01    7.827000e+00
 TP3dr    Q4  1 3.950000e-01    4.283000e+00
 TP3dr   SQ4  1 3.650000e-01    5.688000e+00
 TP3dr   TQ4  1 3.400000e-01    7.726000e+00
 TP2dr    Q4  1 3.950000e-01    4.037000e+00
 TP2dr   SQ4  1 3.650000e-01    5.386000e+00
 TP2dr   TQ4  1 3.400000e-01    7.425000e+00
 TP1dr    Q4  1 3.950000e-01    3.793000e+00
 TP1dr   SQ4  1 3.650000e-01    5.092000e+00
 TP1dr   TQ4  1 3.400000e-01    7.122000e+00
 TN6dr    Q4  1 3.950000e-01    3.788000e+00
 TN6dr   SQ4  1 3.650000e-01    5.065000e+00
 TN6dr   TQ4  1 3.400000e-01    7.062000e+00
 TN5dr    Q4  1 3.950000e-01    3.782000e+00
 TN5dr   SQ4  1 3.650000e-01    5.033000e+00
 TN5dr   TQ4  1 3.400000e-01    6.993000e+00
 TN4dr    Q4  1 3.950000e-01    3.535000e+00
 TN4dr   SQ4  1 3.650000e-01    4.726000e+00
 TN4dr   TQ4  1 3.400000e-01    6.671000e+00
 TN3dr    Q4  1 3.950000e-01    3.277000e+00
 TN3dr   SQ4  1 3.650000e-01    4.419000e+00
 TN3dr   TQ4  1 3.400000e-01    6.348000e+00
 TN2dr    Q4  1 3.950000e-01    3.266000e+00
 TN2dr   SQ4  1 3.650000e-01    4.358000e+00
 TN2dr   TQ4  1 3.400000e-01    6.213000e+00
 TN1dr    Q4  1 3.950000e-01    3.250000e+00
 TN1dr   SQ4  1 3.650000e-01    4.271000e+00
 TN1dr   TQ4  1 3.400000e-01    6.022000e+00
 TP6ar    Q4  1 3.950000e-01    4.639000e+00
 TP6ar   SQ4  1 3.650000e-01    6.174000e+00
 TP6ar   TQ4  1 3.400000e-01    8.408000e+00
 TP5ar    Q4  1 3.950000e-01    4.306000e+00
 TP5ar   SQ4  1 3.650000e-01    5.813000e+00
 TP5ar   TQ4  1 3.400000e-01    8.001000e+00
 TP4ar    Q4  1 3.950000e-01    4.292000e+00
 TP4ar   SQ4  1 3.650000e-01    5.734000e+00
 TP4ar   TQ4  1 3.400000e-01    7.827000e+00
 TP3ar    Q4  1 3.950000e-01    4.283000e+00
 TP3ar   SQ4  1 3.650000e-01    5.688000e+00
 TP3ar   TQ4  1 3.400000e-01    7.726000e+00
 TP2ar    Q4  1 3.950000e-01    4.037000e+00
 TP2ar   SQ4  1 3.650000e-01    5.386000e+00
 TP2ar   TQ4  1 3.400000e-01    7.425000e+00
 TP1ar    Q4  1 3.950000e-01    3.793000e+00
 TP1ar   SQ4  1 3.650000e-01    5.092000e+00
 TP1ar   TQ4  1 3.400000e-01    7.122000e+00
 TN6ar    Q4  1 3.950000e-01    3.788000e+00
 TN6ar   SQ4  1 3.650000e-01    5.065000e+00
 TN6ar   TQ4  1 3.400000e-01    7.062000e+00
 TN5ar    Q4  1 3.950000e-01    3.782000e+00
 TN5ar   SQ4  1 3.650000e-01    5.033000e+00
 TN5ar   TQ4  1 3.400000e-01    6.993000e+00
 TN4ar    Q4  1 3.950000e-01    3.535000e+00
 TN4ar   SQ4  1 3.650000e-01    4.726000e+00
 TN4ar   TQ4  1 3.400000e-01    6.671000e+00
 TN3ar    Q4  1 3.950000e-01    3.277000e+00
 TN3ar   SQ4  1 3.650000e-01    4.419000e+00
 TN3ar   TQ4  1 3.400000e-01    6.348000e+00
 TN2ar    Q4  1 3.950000e-01    3.266000e+00
 TN2ar   SQ4  1 3.650000e-01    4.358000e+00
 TN2ar   TQ4  1 3.400000e-01    6.213000e+00
 TN1ar    Q4  1 3.950000e-01    3.250000e+00
 TN1ar   SQ4  1 3.650000e-01    4.271000e+00
 TN1ar   TQ4  1 3.400000e-01    6.022000e+00
 TC6vr    Q4  1 3.950000e-01    2.595000e+00
 TC6vr   SQ4  1 3.650000e-01    3.472000e+00
 TC6vr   TQ4  1 3.400000e-01    4.946000e+00
 TC5vr    Q4  1 3.950000e-01    1.935000e+00
 TC5vr   SQ4  1 3.780000e-01    2.853000e+00
 TC5vr   TQ4  1 3.660000e-01    3.905000e+00
 TC4vr    Q4  1 3.980000e-01    1.684000e+00
 TC4vr   SQ4  1 3.940000e-01    2.488000e+00
 TC4vr   TQ4  1 3.850000e-01    3.367000e+00
 TC3vr    Q4  1 3.990000e-01    1.366000e+00
 TC3vr   SQ4  1 4.040000e-01    2.059000e+00
 TC3vr   TQ4  1 4.110000e-01    2.673000e+00
 TC2vr    Q4  1 4.650000e-01    8.300000e-01
 TC2vr   SQ4  1 4.840000e-01    1.508000e+00
 TC2vr   TQ4  1 5.050000e-01    1.893000e+00
 TC1vr    Q4  1 4.650000e-01    7.810000e-01
 TC1vr   SQ4  1 4.840000e-01    1.271000e+00
 TC1vr   TQ4  1 5.050000e-01    1.428000e+00
 TX4vr    Q4  1 3.950000e-01    2.409000e+00
 TX4vr   SQ4  1 3.650000e-01    3.390000e+00
 TX4vr   TQ4  1 3.400000e-01    4.839000e+00
 TX3vr    Q4  1 3.950000e-01    2.135000e+00
 TX3vr   SQ4  1 3.660000e-01    3.157000e+00
 TX3vr   TQ4  1 3.520000e-01    4.368000e+00
 TX2vr    Q4  1 3.950000e-01    1.922000e+00
 TX2vr   SQ4  1 3.780000e-01    2.784000e+00
 TX2vr   TQ4  1 3.660000e-01    3.759000e+00
 TX1vr    Q4  1 3.980000e-01    1.636000e+00
 TX1vr   SQ4  1 3.940000e-01    2.243000e+00
 TX1vr   TQ4  1 3.850000e-01    2.854000e+00
 TC6er    Q4  1 3.950000e-01    2.595000e+00
 TC6er   SQ4  1 3.650000e-01    3.472000e+00
 TC6er   TQ4  1 3.400000e-01    4.946000e+00
 TC5er    Q4  1 3.950000e-01    1.935000e+00
 TC5er   SQ4  1 3.780000e-01    2.853000e+00
 TC5er   TQ4  1 3.660000e-01    3.905000e+00
 TC4er    Q4  1 3.980000e-01    1.684000e+00
 TC4er   SQ4  1 3.940000e-01    2.488000e+00
 TC4er   TQ4  1 3.850000e-01    3.367000e+00
 TC3er    Q4  1 3.990000e-01    1.366000e+00
 TC3er   SQ4  1 4.040000e-01    2.059000e+00
 TC3er   TQ4  1 4.110000e-01    2.673000e+00
 TC2er    Q4  1 4.650000e-01    8.300000e-01
 TC2er   SQ4  1 4.840000e-01    1.508000e+00
 TC2er   TQ4  1 5.050000e-01    1.893000e+00
 TC1er    Q4  1 4.650000e-01    7.810000e-01
 TC1er   SQ4  1 4.840000e-01    1.271000e+00
 TC1er   TQ4  1 5.050000e-01    1.428000e+00
 TX4er    Q4  1 3.950000e-01    2.409000e+00
 TX4er   SQ4  1 3.650000e-01    3.390000e+00
 TX4er   TQ4  1 3.400000e-01    4.839000e+00
 TX3er    Q4  1 3.950000e-01    2.135000e+00
 TX3er   SQ4  1 3.660000e-01    3.157000e+00
 TX3er   TQ4  1 3.520000e-01    4.368000e+00
 TX2er    Q4  1 3.950000e-01    1.922000e+00
 TX2er   SQ4  1 3.780000e-01    2.784000e+00
 TX2er   TQ4  1 3.660000e-01    3.759000e+00
 TX1er    Q4  1 3.980000e-01    1.636000e+00
 TX1er   SQ4  1 3.940000e-01    2.243000e+00
 TX1er   TQ4  1 3.850000e-01    2.854000e+00
    P6   Q4p  1 4.700000e-01    5.719000e+00
    P6  SQ4p  1 4.300000e-01    7.348000e+00
    P6  TQ4p  1 3.950000e-01    1.039900e+01
    P5   Q4p  1 4.700000e-01    5.441000e+00
    P5  SQ4p  1 4.300000e-01    7.001000e+00
    P5  TQ4p  1 3.950000e-01    9.926000e+00
    P4   Q4p  1 4.700000e-01    5.420000e+00
    P4  SQ4p  1 4.300000e-01    6.924000e+00
    P4  TQ4p  1 3.950000e-01    9.746000e+00
    P3   Q4p  1 4.700000e-01    5.407000e+00
    P3  SQ4p  1 4.300000e-01    6.876000e+00
    P3  TQ4p  1 3.950000e-01    9.636000e+00
    P2   Q4p  1 4.700000e-01    5.148000e+00
    P2  SQ4p  1 4.300000e-01    6.612000e+00
    P2  TQ4p  1 3.950000e-01    9.318000e+00
    P1   Q4p  1 4.700000e-01    4.911000e+00
    P1  SQ4p  1 4.300000e-01    6.386000e+00
    P1  TQ4p  1 3.950000e-01    9.018000e+00
    N6   Q4p  1 4.700000e-01    4.903000e+00
    N6  SQ4p  1 4.300000e-01    6.356000e+00
    N6  TQ4p  1 3.950000e-01    8.949000e+00
    N5   Q4p  1 4.700000e-01    4.893000e+00
    N5  SQ4p  1 4.300000e-01    6.321000e+00
    N5  TQ4p  1 3.950000e-01    8.868000e+00
    N4   Q4p  1 4.700000e-01    4.691000e+00
    N4  SQ4p  1 4.300000e-01    6.079000e+00
    N4  TQ4p  1 3.950000e-01    8.530000e+00
    N3   Q4p  1 4.700000e-01    4.497000e+00
    N3  SQ4p  1 4.300000e-01    5.845000e+00
    N3  TQ4p  1 3.950000e-01    8.155000e+00
    N2   Q4p  1 4.700000e-01    4.477000e+00
    N2  SQ4p  1 4.300000e-01    5.774000e+00
    N2  TQ4p  1 3.950000e-01    7.990000e+00
    N1   Q4p  1 4.700000e-01    4.449000e+00
    N1  SQ4p  1 4.300000e-01    5.670000e+00
    N1  TQ4p  1 3.950000e-01    7.751000e+00
    C6   Q4p  1 4.700000e-01    3.913000e+00
    C6  SQ4p  1 4.300000e-01    4.834000e+00
    C6  TQ4p  1 3.950000e-01    6.736000e+00
    C5   Q4p  1 4.700000e-01    3.448000e+00
    C5  SQ4p  1 4.300000e-01    4.103000e+00
    C5  TQ4p  1 3.950000e-01    5.794000e+00
    C4   Q4p  1 4.700000e-01    3.225000e+00
    C4  SQ4p  1 4.300000e-01    3.749000e+00
    C4  TQ4p  1 3.980000e-01    5.098000e+00
    C3   Q4p  1 4.700000e-01    2.967000e+00
    C3  SQ4p  1 4.300000e-01    3.199000e+00
    C3  TQ4p  1 3.990000e-01    4.085000e+00
    C2   Q4p  1 5.200000e-01    2.371000e+00
    C2  SQ4p  1 4.730000e-01    2.202000e+00
    C2  TQ4p  1 4.650000e-01    2.695000e+00
    C1   Q4p  1 5.200000e-01    2.276000e+00
    C1  SQ4p  1 4.730000e-01    1.855000e+00
    C1  TQ4p  1 4.650000e-01    1.945000e+00
    X4   Q4p  1 4.700000e-01    3.789000e+00
    X4  SQ4p  1 4.300000e-01    4.778000e+00
    X4  TQ4p  1 3.950000e-01    6.754000e+00
    X3   Q4p  1 4.700000e-01    3.593000e+00
    X3  SQ4p  1 4.300000e-01    4.444000e+00
    X3  TQ4p  1 3.950000e-01    6.276000e+00
    X2   Q4p  1 4.700000e-01    3.424000e+00
    X2  SQ4p  1 4.300000e-01    4.017000e+00
    X2  TQ4p  1 3.950000e-01    5.594000e+00
    X1   Q4p  1 4.700000e-01    3.137000e+00
    X1  SQ4p  1 4.300000e-01    3.429000e+00
    X1  TQ4p  1 3.980000e-01    4.362000e+00
   P6d   Q4p  1 4.700000e-01    5.209000e+00
   P6d  SQ4p  1 4.300000e-01    6.838000e+00
   P6d  TQ4p  1 3.950000e-01    1.007900e+01
   P5d   Q4p  1 4.700000e-01    4.961000e+00
   P5d  SQ4p  1 4.300000e-01    6.571000e+00
   P5d  TQ4p  1 3.950000e-01    9.686000e+00
   P4d   Q4p  1 4.700000e-01    4.940000e+00
   P4d  SQ4p  1 4.300000e-01    6.494000e+00
   P4d  TQ4p  1 3.950000e-01    9.506000e+00
   P3d   Q4p  1 4.700000e-01    4.927000e+00
   P3d  SQ4p  1 4.300000e-01    6.446000e+00
   P3d  TQ4p  1 3.950000e-01    9.396000e+00
   P2d   Q4p  1 4.700000e-01    4.728000e+00
   P2d  SQ4p  1 4.300000e-01    6.212000e+00
   P2d  TQ4p  1 3.950000e-01    9.078000e+00
   P1d   Q4p  1 4.700000e-01    4.541000e+00
   P1d  SQ4p  1 4.300000e-01    6.006000e+00
   P1d  TQ4p  1 3.950000e-01    8.778000e+00
   N6d   Q4p  1 4.700000e-01    4.533000e+00
   N6d  SQ4p  1 4.300000e-01    5.976000e+00
   N6d  TQ4p  1 3.950000e-01    8.709000e+00
   N5d   Q4p  1 4.700000e-01    4.523000e+00
   N5d  SQ4p  1 4.300000e-01    5.941000e+00
   N5d  TQ4p  1 3.950000e-01    8.628000e+00
   N4d   Q4p  1 4.700000e-01    4.511000e+00
   N4d  SQ4p  1 4.300000e-01    5.899000e+00
   N4d  TQ4p  1 3.950000e-01    8.530000e+00
   N3d   Q4p  1 4.700000e-01    4.137000e+00
   N3d  SQ4p  1 4.300000e-01    5.415000e+00
   N3d  TQ4p  1 3.950000e-01    7.915000e+00
   N2d   Q4p  1 4.700000e-01    4.117000e+00
   N2d  SQ4p  1 4.300000e-01    5.344000e+00
   N2d  TQ4p  1 3.950000e-01    7.750000e+00
   N1d   Q4p  1 4.700000e-01    4.089000e+00
   N1d  SQ4p  1 4.300000e-01    5.240000e+00
   N1d  TQ4p  1 3.950000e-01    7.511000e+00
   P6a   Q4p  1 4.700000e-01    5.969000e+00
   P6a  SQ4p  1 4.300000e-01    7.588000e+00
   P6a  TQ4p  1 3.950000e-01    1.103900e+01
   P5a   Q4p  1 4.700000e-01    5.701000e+00
   P5a  SQ4p  1 4.300000e-01    7.281000e+00
   P5a  TQ4p  1 3.950000e-01    1.055600e+01
   P4a   Q4p  1 4.700000e-01    5.680000e+00
   P4a  SQ4p  1 4.300000e-01    7.204000e+00
   P4a  TQ4p  1 3.950000e-01    1.037600e+01
   P3a   Q4p  1 4.700000e-01    5.667000e+00
   P3a  SQ4p  1 4.300000e-01    7.156000e+00
   P3a  TQ4p  1 3.950000e-01    1.026600e+01
   P2a   Q4p  1 4.700000e-01    5.398000e+00
   P2a  SQ4p  1 4.300000e-01    6.842000e+00
   P2a  TQ4p  1 3.950000e-01    9.878000e+00
   P1a   Q4p  1 4.700000e-01    5.141000e+00
   P1a  SQ4p  1 4.300000e-01    6.586000e+00
   P1a  TQ4p  1 3.950000e-01    9.498000e+00
   N6a   Q4p  1 4.700000e-01    5.133000e+00
   N6a  SQ4p  1 4.300000e-01    6.556000e+00
   N6a  TQ4p  1 3.950000e-01    9.429000e+00
   N5a   Q4p  1 4.700000e-01    5.123000e+00
   N5a  SQ4p  1 4.300000e-01    6.521000e+00
   N5a  TQ4p  1 3.950000e-01    9.348000e+00
   N4a   Q4p  1 4.700000e-01    4.881000e+00
   N4a  SQ4p  1 4.300000e-01    6.279000e+00
   N4a  TQ4p  1 3.950000e-01    9.010000e+00
   N3a   Q4p  1 4.700000e-01    4.677000e+00
   N3a  SQ4p  1 4.300000e-01    6.025000e+00
   N3a  TQ4p  1 3.950000e-01    8.645000e+00
   N2a   Q4p  1 4.700000e-01    4.657000e+00
   N2a  SQ4p  1 4.300000e-01    5.954000e+00
   N2a  TQ4p  1 3.950000e-01    8.480000e+00
   N1a   Q4p  1 4.700000e-01    4.629000e+00
   N1a  SQ4p  1 4.300000e-01    5.850000e+00
   N1a  TQ4p  1 3.950000e-01    8.241000e+00
   C6v   Q4p  1 4.700000e-01    3.483000e+00
   C6v  SQ4p  1 4.300000e-01    4.234000e+00
   C6v  TQ4p  1 3.950000e-01    6.276000e+00
   C5v   Q4p  1 4.700000e-01    2.928000e+00
   C5v  SQ4p  1 4.300000e-01    3.513000e+00
   C5v  TQ4p  1 3.990000e-01    5.262000e+00
   C4v   Q4p  1 4.850000e-01    2.661000e+00
   C4v  SQ4p  1 4.430000e-01    3.023000e+00
   C4v  TQ4p  1 4.010000e-01    4.603000e+00
   C3v   Q4p  1 5.200000e-01    2.434000e+00
   C3v  SQ4p  1 4.730000e-01    2.434000e+00
   C3v  TQ4p  1 4.040000e-01    3.699000e+00
   C2v   Q4p  1 6.200000e-01    2.170000e+00
   C2v  SQ4p  1 5.520000e-01    1.800000e+00
   C2v  TQ4p  1 5.240000e-01    2.397000e+00
   C1v   Q4p  1 6.200000e-01    2.091000e+00
   C1v  SQ4p  1 5.520000e-01    1.503000e+00
   C1v  TQ4p  1 5.240000e-01    1.731000e+00
   X4v   Q4p  1 4.700000e-01    3.339000e+00
   X4v  SQ4p  1 4.300000e-01    4.168000e+00
   X4v  TQ4p  1 3.950000e-01    6.314000e+00
   X3v   Q4p  1 4.700000e-01    3.143000e+00
   X3v  SQ4p  1 4.300000e-01    3.844000e+00
   X3v  TQ4p  1 3.980000e-01    5.843000e+00
   X2v   Q4p  1 4.700000e-01    2.904000e+00
   X2v  SQ4p  1 4.300000e-01    3.427000e+00
   X2v  TQ4p  1 3.990000e-01    5.065000e+00
   X1v   Q4p  1 4.850000e-01    2.576000e+00
   X1v  SQ4p  1 4.430000e-01    2.712000e+00
   X1v  TQ4p  1 4.010000e-01    3.874000e+00
   C6e   Q4p  1 4.700000e-01    3.913000e+00
   C6e  SQ4p  1 4.300000e-01    4.844000e+00
   C6e  TQ4p  1 3.950000e-01    6.926000e+00
   C5e   Q4p  1 4.700000e-01    3.448000e+00
   C5e  SQ4p  1 4.300000e-01    4.103000e+00
   C5e  TQ4p  1 3.950000e-01    5.974000e+00
   C4e   Q4p  1 4.700000e-01    3.225000e+00
   C4e  SQ4p  1 4.300000e-01    3.749000e+00
   C4e  TQ4p  1 3.950000e-01    5.345000e+00
   C3e   Q4p  1 4.700000e-01    2.967000e+00
   C3e  SQ4p  1 4.300000e-01    3.199000e+00
   C3e  TQ4p  1 3.980000e-01    4.362000e+00
   C2e   Q4p  1 5.200000e-01    2.351000e+00
   C2e  SQ4p  1 4.730000e-01    2.202000e+00
   C2e  TQ4p  1 4.040000e-01    3.123000e+00
   C1e   Q4p  1 5.200000e-01    2.256000e+00
   C1e  SQ4p  1 4.730000e-01    1.855000e+00
   C1e  TQ4p  1 4.040000e-01    2.260000e+00
   X4e   Q4p  1 4.700000e-01    3.789000e+00
   X4e  SQ4p  1 4.300000e-01    4.928000e+00
   X4e  TQ4p  1 3.950000e-01    6.954000e+00
   X3e   Q4p  1 4.700000e-01    3.593000e+00
   X3e  SQ4p  1 4.300000e-01    4.444000e+00
   X3e  TQ4p  1 3.950000e-01    6.536000e+00
   X2e   Q4p  1 4.700000e-01    3.424000e+00
   X2e  SQ4p  1 4.300000e-01    4.017000e+00
   X2e  TQ4p  1 3.950000e-01    5.774000e+00
   X1e   Q4p  1 4.700000e-01    3.137000e+00
   X1e  SQ4p  1 4.300000e-01    3.429000e+00
   X1e  TQ4p  1 3.950000e-01    4.605000e+00
   P6q   Q4p  1 4.700000e-01    6.519000e+00
   P6q  SQ4p  1 4.300000e-01    8.178000e+00
   P6q  TQ4p  1 3.950000e-01    1.143900e+01
   P5q   Q4p  1 4.700000e-01    6.201000e+00
   P5q  SQ4p  1 4.300000e-01    7.811000e+00
   P5q  TQ4p  1 3.950000e-01    1.088600e+01
   P4q   Q4p  1 4.700000e-01    6.180000e+00
   P4q  SQ4p  1 4.300000e-01    7.734000e+00
   P4q  TQ4p  1 3.950000e-01    1.070600e+01
   P3q   Q4p  1 4.700000e-01    6.167000e+00
   P3q  SQ4p  1 4.300000e-01    7.686000e+00
   P3q  TQ4p  1 3.950000e-01    1.059600e+01
   P2q   Q4p  1 4.700000e-01    5.908000e+00
   P2q  SQ4p  1 4.300000e-01    7.362000e+00
   P2q  TQ4p  1 3.950000e-01    1.018800e+01
   P1q   Q4p  1 4.700000e-01    5.651000e+00
   P1q  SQ4p  1 4.300000e-01    7.096000e+00
   P1q  TQ4p  1 3.950000e-01    9.818000e+00
   N6q   Q4p  1 4.700000e-01    5.643000e+00
   N6q  SQ4p  1 4.300000e-01    7.066000e+00
   N6q  TQ4p  1 3.950000e-01    9.749000e+00
   N5q   Q4p  1 4.700000e-01    5.633000e+00
   N5q  SQ4p  1 4.300000e-01    7.031000e+00
   N5q  TQ4p  1 3.950000e-01    9.668000e+00
   N4q   Q4p  1 4.700000e-01    5.361000e+00
   N4q  SQ4p  1 4.300000e-01    6.709000e+00
   N4q  TQ4p  1 3.950000e-01    9.250000e+00
   N3q   Q4p  1 4.700000e-01    5.097000e+00
   N3q  SQ4p  1 4.300000e-01    6.425000e+00
   N3q  TQ4p  1 3.950000e-01    8.885000e+00
   N2q   Q4p  1 4.700000e-01    5.077000e+00
   N2q  SQ4p  1 4.300000e-01    6.354000e+00
   N2q  TQ4p  1 3.950000e-01    8.720000e+00
   N1q   Q4p  1 4.700000e-01    5.049000e+00
   N1q  SQ4p  1 4.300000e-01    6.250000e+00
   N1q  TQ4p  1 3.950000e-01    8.481000e+00
   C6q   Q4p  1 4.700000e-01    4.403000e+00
   C6q  SQ4p  1 4.300000e-01    5.504000e+00
   C6q  TQ4p  1 3.950000e-01    7.366000e+00
   C5q   Q4p  1 4.700000e-01    3.878000e+00
   C5q  SQ4p  1 4.300000e-01    4.703000e+00
   C5q  TQ4p  1 3.950000e-01    6.434000e+00
   C4q   Q4p  1 4.700000e-01    3.675000e+00
   C4q  SQ4p  1 4.300000e-01    4.359000e+00
   C4q  TQ4p  1 3.950000e-01    5.785000e+00
   C3q   Q4p  1 4.700000e-01    3.417000e+00
   C3q  SQ4p  1 4.300000e-01    3.799000e+00
   C3q  TQ4p  1 3.950000e-01    4.785000e+00
   C2q   Q4p  1 4.700000e-01    2.897000e+00
   C2q  SQ4p  1 4.300000e-01    2.944000e+00
   C2q  TQ4p  1 3.990000e-01    3.501000e+00
   C1q   Q4p  1 4.700000e-01    2.793000e+00
   C1q  SQ4p  1 4.300000e-01    2.562000e+00
   C1q  TQ4p  1 3.990000e-01    2.628000e+00
   X4q   Q4p  1 4.700000e-01    4.239000e+00
   X4q  SQ4p  1 4.300000e-01    5.388000e+00
   X4q  TQ4p  1 3.950000e-01    7.344000e+00
   X3q   Q4p  1 4.700000e-01    4.043000e+00
   X3q  SQ4p  1 4.300000e-01    5.074000e+00
   X3q  TQ4p  1 3.950000e-01    6.926000e+00
   X2q   Q4p  1 4.700000e-01    3.854000e+00
   X2q  SQ4p  1 4.300000e-01    4.617000e+00
   X2q  TQ4p  1 3.950000e-01    6.234000e+00
   X1q   Q4p  1 4.700000e-01    3.587000e+00
   X1q  SQ4p  1 4.300000e-01    4.039000e+00
   X1q  TQ4p  1 3.950000e-01    5.045000e+00
  P6dq   Q4p  1 4.700000e-01    5.969000e+00
  P6dq  SQ4p  1 4.300000e-01    7.588000e+00
  P6dq  TQ4p  1 3.950000e-01    1.103900e+01
  P5dq   Q4p  1 4.700000e-01    5.701000e+00
  P5dq  SQ4p  1 4.300000e-01    7.281000e+00
  P5dq  TQ4p  1 3.950000e-01    1.055600e+01
  P4dq   Q4p  1 4.700000e-01    5.680000e+00
  P4dq  SQ4p  1 4.300000e-01    7.204000e+00
  P4dq  TQ4p  1 3.950000e-01    1.037600e+01
  P3dq   Q4p  1 4.700000e-01    5.667000e+00
  P3dq  SQ4p  1 4.300000e-01    7.156000e+00
  P3dq  TQ4p  1 3.950000e-01    1.026600e+01
  P2dq   Q4p  1 4.700000e-01    5.398000e+00
  P2dq  SQ4p  1 4.300000e-01    6.842000e+00
  P2dq  TQ4p  1 3.950000e-01    9.878000e+00
  P1dq   Q4p  1 4.700000e-01    5.141000e+00
  P1dq  SQ4p  1 4.300000e-01    6.586000e+00
  P1dq  TQ4p  1 3.950000e-01    9.498000e+00
  N6dq   Q4p  1 4.700000e-01    5.133000e+00
  N6dq  SQ4p  1 4.300000e-01    6.556000e+00
  N6dq  TQ4p  1 3.950000e-01    9.429000e+00
  N5dq   Q4p  1 4.700000e-01    5.123000e+00
  N5dq  SQ4p  1 4.300000e-01    6.521000e+00
  N5dq  TQ4p  1 3.950000e-01    9.348000e+00
  N4dq   Q4p  1 4.700000e-01    5.111000e+00
  N4dq  SQ4p  1 4.300000e-01    6.479000e+00
  N4dq  TQ4p  1 3.950000e-01    9.250000e+00
  N3dq   Q4p  1 4.700000e-01    4.677000e+00
  N3dq  SQ4p  1 4.300000e-01    6.025000e+00
  N3dq  TQ4p  1 3.950000e-01    8.645000e+00
  N2dq   Q4p  1 4.700000e-01    4.657000e+00
  N2dq  SQ4p  1 4.300000e-01    5.954000e+00
  N2dq  TQ4p  1 3.950000e-01    8.480000e+00
  N1dq   Q4p  1 4.700000e-01    4.629000e+00
  N1dq  SQ4p  1 4.300000e-01    5.850000e+00
  N1dq  TQ4p  1 3.950000e-01    8.241000e+00
  P6aq   Q4p  1 4.700000e-01    6.219000e+00
  P6aq  SQ4p  1 4.300000e-01    7.878000e+00
  P6aq  TQ4p  1 3.950000e-01    1.143900e+01
  P5aq   Q4p  1 4.700000e-01    6.201000e+00
  P5aq  SQ4p  1 4.300000e-01    7.811000e+00
  P5aq  TQ4p  1 3.950000e-01    1.128600e+01
  P4aq   Q4p  1 4.700000e-01    6.180000e+00
  P4aq  SQ4p  1 4.300000e-01    7.734000e+00
  P4aq  TQ4p  1 3.950000e-01    1.110600e+01
  P3aq   Q4p  1 4.700000e-01    6.167000e+00
  P3aq  SQ4p  1 4.300000e-01    7.686000e+00
  P3aq  TQ4p  1 3.950000e-01    1.099600e+01
  P2aq   Q4p  1 4.700000e-01    6.158000e+00
  P2aq  SQ4p  1 4.300000e-01    7.652000e+00
  P2aq  TQ4p  1 3.950000e-01    1.091800e+01
  P1aq   Q4p  1 4.700000e-01    5.901000e+00
  P1aq  SQ4p  1 4.300000e-01    7.336000e+00
  P1aq  TQ4p  1 3.950000e-01    1.045800e+01
  N6aq   Q4p  1 4.700000e-01    5.893000e+00
  N6aq  SQ4p  1 4.300000e-01    7.306000e+00
  N6aq  TQ4p  1 3.950000e-01    1.038900e+01
  N5aq   Q4p  1 4.700000e-01    5.883000e+00
  N5aq  SQ4p  1 4.300000e-01    7.271000e+00
  N5aq  TQ4p  1 3.950000e-01    1.030800e+01
  N4aq   Q4p  1 4.700000e-01    5.621000e+00
  N4aq  SQ4p  1 4.300000e-01    6.989000e+00
  N4aq  TQ4p  1 3.950000e-01    9.880000e+00
  N3aq   Q4p  1 4.700000e-01    5.347000e+00
  N3aq  SQ4p  1 4.300000e-01    6.655000e+00
  N3aq  TQ4p  1 3.950000e-01    9.445000e+00
  N2aq   Q4p  1 4.700000e-01    5.327000e+00
  N2aq  SQ4p  1 4.300000e-01    6.584000e+00
  N2aq  TQ4p  1 3.950000e-01    9.280000e+00
  N1aq   Q4p  1 4.700000e-01    5.299000e+00
  N1aq  SQ4p  1 4.300000e-01    6.480000e+00
  N1aq  TQ4p  1 3.950000e-01    9.041000e+00
  C6vq   Q4p  1 4.700000e-01    3.913000e+00
  C6vq  SQ4p  1 4.300000e-01    4.844000e+00
  C6vq  TQ4p  1 3.950000e-01    6.926000e+00
  C5vq   Q4p  1 4.700000e-01    3.448000e+00
  C5vq  SQ4p  1 4.300000e-01    4.103000e+00
  C5vq  TQ4p  1 3.950000e-01    5.974000e+00
  C4vq   Q4p  1 4.700000e-01    3.225000e+00
  C4vq  SQ4p  1 4.300000e-01    3.749000e+00
  C4vq  TQ4p  1 3.950000e-01    5.345000e+00
  C3vq   Q4p  1 4.700000e-01    2.967000e+00
  C3vq  SQ4p  1 4.300000e-01    3.199000e+00
  C3vq  TQ4p  1 3.980000e-01    4.362000e+00
  C2vq   Q4p  1 5.200000e-01    2.371000e+00
  C2vq  SQ4p  1 4.730000e-01    2.202000e+00
  C2vq  TQ4p  1 4.040000e-01    3.123000e+00
  C1vq   Q4p  1 5.200000e-01    2.276000e+00
  C1vq  SQ4p  1 4.730000e-01    1.855000e+00
  C1vq  TQ4p  1 4.040000e-01    2.260000e+00
  X4vq   Q4p  1 4.700000e-01    3.789000e+00
  X4vq  SQ4p  1 4.300000e-01    4.928000e+00
  X4vq  TQ4p  1 3.950000e-01    6.954000e+00
  X3vq   Q4p  1 4.700000e-01    3.593000e+00
  X3vq  SQ4p  1 4.300000e-01    4.444000e+00
  X3vq  TQ4p  1 3.950000e-01    6.536000e+00
  X2vq   Q4p  1 4.700000e-01    3.424000e+00
  X2vq  SQ4p  1 4.300000e-01    4.017000e+00
  X2vq  TQ4p  1 3.950000e-01    5.774000e+00
  X1vq   Q4p  1 4.700000e-01    3.137000e+00
  X1vq  SQ4p  1 4.300000e-01    3.429000e+00
  X1vq  TQ4p  1 3.950000e-01    4.605000e+00
  C6eq   Q4p  1 4.700000e-01    4.403000e+00
  C6eq  SQ4p  1 4.300000e-01    5.504000e+00
  C6eq  TQ4p  1 3.950000e-01    7.616000e+00
  C5eq   Q4p  1 4.700000e-01    3.878000e+00
  C5eq  SQ4p  1 4.300000e-01    4.713000e+00
  C5eq  TQ4p  1 3.950000e-01    6.624000e+00
  C4eq   Q4p  1 4.700000e-01    3.675000e+00
  C4eq  SQ4p  1 4.300000e-01    4.509000e+00
  C4eq  TQ4p  1 3.950000e-01    5.985000e+00
  C3eq   Q4p  1 4.700000e-01    3.417000e+00
  C3eq  SQ4p  1 4.300000e-01    3.799000e+00
  C3eq  TQ4p  1 3.950000e-01    5.045000e+00
  C2eq   Q4p  1 5.200000e-01    2.351000e+00
  C2eq  SQ4p  1 4.730000e-01    2.202000e+00
  C2eq  TQ4p  1 4.040000e-01    3.123000e+00
  C1eq   Q4p  1 5.200000e-01    2.256000e+00
  C1eq  SQ4p  1 4.730000e-01    1.855000e+00
  C1eq  TQ4p  1 4.040000e-01    2.260000e+00
  X4eq   Q4p  1 4.700000e-01    4.239000e+00
  X4eq  SQ4p  1 4.300000e-01    5.388000e+00
  X4eq  TQ4p  1 3.950000e-01    7.584000e+00
  X3eq   Q4p  1 4.700000e-01    4.043000e+00
  X3eq  SQ4p  1 4.300000e-01    5.074000e+00
  X3eq  TQ4p  1 3.950000e-01    7.126000e+00
  X2eq   Q4p  1 4.700000e-01    3.854000e+00
  X2eq  SQ4p  1 4.300000e-01    4.627000e+00
  X2eq  TQ4p  1 3.950000e-01    6.424000e+00
  X1eq   Q4p  1 4.700000e-01    3.587000e+00
  X1eq  SQ4p  1 4.300000e-01    4.189000e+00
  X1eq  TQ4p  1 3.950000e-01    5.245000e+00
   P6h   Q4p  1 4.700000e-01    5.719000e+00
   P6h  SQ4p  1 4.300000e-01    7.348000e+00
   P6h  TQ4p  1 3.950000e-01    1.039900e+01
   P5h   Q4p  1 4.700000e-01    5.441000e+00
   P5h  SQ4p  1 4.300000e-01    7.001000e+00
   P5h  TQ4p  1 3.950000e-01    9.926000e+00
   P4h   Q4p  1 4.700000e-01    5.420000e+00
   P4h  SQ4p  1 4.300000e-01    6.924000e+00
   P4h  TQ4p  1 3.950000e-01    9.746000e+00
   P3h   Q4p  1 4.700000e-01    5.407000e+00
   P3h  SQ4p  1 4.300000e-01    6.876000e+00
   P3h  TQ4p  1 3.950000e-01    9.636000e+00
   P2h   Q4p  1 4.700000e-01    5.148000e+00
   P2h  SQ4p  1 4.300000e-01    6.612000e+00
   P2h  TQ4p  1 3.950000e-01    9.318000e+00
   P1h   Q4p  1 4.700000e-01    4.911000e+00
   P1h  SQ4p  1 4.300000e-01    6.386000e+00
   P1h  TQ4p  1 3.950000e-01    9.018000e+00
   N6h   Q4p  1 4.700000e-01    4.903000e+00
   N6h  SQ4p  1 4.300000e-01    6.356000e+00
   N6h  TQ4p  1 3.950000e-01    8.949000e+00
   N5h   Q4p  1 4.700000e-01    4.893000e+00
   N5h  SQ4p  1 4.300000e-01    6.321000e+00
   N5h  TQ4p  1 3.950000e-01    8.868000e+00
   N4h   Q4p  1 4.700000e-01    4.691000e+00
   N4h  SQ4p  1 4.300000e-01    6.079000e+00
   N4h  TQ4p  1 3.950000e-01    8.530000e+00
   N3h   Q4p  1 4.700000e-01    4.497000e+00
   N3h  SQ4p  1 4.300000e-01    5.845000e+00
   N3h  TQ4p  1 3.950000e-01    8.155000e+00
   N2h   Q4p  1 4.700000e-01    4.477000e+00
   N2h  SQ4p  1 4.300000e-01    5.774000e+00
   N2h  TQ4p  1 3.950000e-01    7.990000e+00
   N1h   Q4p  1 4.700000e-01    4.449000e+00
   N1h  SQ4p  1 4.300000e-01    5.670000e+00
   N1h  TQ4p  1 3.950000e-01    7.751000e+00
   C6h   Q4p  1 4.700000e-01    3.913000e+00
   C6h  SQ4p  1 4.300000e-01    4.834000e+00
   C6h  TQ4p  1 3.950000e-01    6.736000e+00
   C5h   Q4p  1 4.700000e-01    3.448000e+00
   C5h  SQ4p  1 4.300000e-01    4.103000e+00
   C5h  TQ4p  1 3.950000e-01    5.794000e+00
   C4h   Q4p  1 4.700000e-01    3.225000e+00
   C4h  SQ4p  1 4.300000e-01    3.749000e+00
   C4h  TQ4p  1 3.980000e-01    5.098000e+00
   C3h   Q4p  1 4.700000e-01    2.967000e+00
   C3h  SQ4p  1 4.300000e-01    3.199000e+00
   C3h  TQ4p  1 3.990000e-01    4.085000e+00
   C2h   Q4p  1 5.200000e-01    2.371000e+00
   C2h  SQ4p  1 4.730000e-01    2.202000e+00
   C2h  TQ4p  1 4.650000e-01    2.695000e+00
   C1h   Q4p  1 5.200000e-01    2.276000e+00
   C1h  SQ4p  1 4.730000e-01    1.855000e+00
   C1h  TQ4p  1 4.650000e-01    1.945000e+00
   X4h   Q4p  1 4.700000e-01    3.789000e+00
   X4h  SQ4p  1 4.300000e-01    4.778000e+00
   X4h  TQ4p  1 3.950000e-01    6.754000e+00
   X3h   Q4p  1 4.700000e-01    3.593000e+00
   X3h  SQ4p  1 4.300000e-01    4.444000e+00
   X3h  TQ4p  1 3.950000e-01    6.276000e+00
   X2h   Q4p  1 4.700000e-01    3.424000e+00
   X2h  SQ4p  1 4.300000e-01    4.017000e+00
   X2h  TQ4p  1 3.950000e-01    5.594000e+00
   X1h   Q4p  1 4.700000e-01    3.137000e+00
   X1h  SQ4p  1 4.300000e-01    3.429000e+00
   X1h  TQ4p  1 3.980000e-01    4.362000e+00
  P6dh   Q4p  1 4.700000e-01    5.209000e+00
  P6dh  SQ4p  1 4.300000e-01    6.838000e+00
  P6dh  TQ4p  1 3.950000e-01    1.007900e+01
  P5dh   Q4p  1 4.700000e-01    4.961000e+00
  P5dh  SQ4p  1 4.300000e-01    6.571000e+00
  P5dh  TQ4p  1 3.950000e-01    9.686000e+00
  P4dh   Q4p  1 4.700000e-01    4.940000e+00
  P4dh  SQ4p  1 4.300000e-01    6.494000e+00
  P4dh  TQ4p  1 3.950000e-01    9.506000e+00
  P3dh   Q4p  1 4.700000e-01    4.927000e+00
  P3dh  SQ4p  1 4.300000e-01    6.446000e+00
  P3dh  TQ4p  1 3.950000e-01    9.396000e+00
  P2dh   Q4p  1 4.700000e-01    4.728000e+00
  P2dh  SQ4p  1 4.300000e-01    6.212000e+00
  P2dh  TQ4p  1 3.950000e-01    9.078000e+00
  P1dh   Q4p  1 4.700000e-01    4.541000e+00
  P1dh  SQ4p  1 4.300000e-01    6.006000e+00
  P1dh  TQ4p  1 3.950000e-01    8.778000e+00
  N6dh   Q4p  1 4.700000e-01    4.533000e+00
  N6dh  SQ4p  1 4.300000e-01    5.976000e+00
  N6dh  TQ4p  1 3.950000e-01    8.709000e+00
  N5dh   Q4p  1 4.700000e-01    4.523000e+00
  N5dh  SQ4p  1 4.300000e-01    5.941000e+00
  N5dh  TQ4p  1 3.950000e-01    8.628000e+00
  N4dh   Q4p  1 4.700000e-01    4.511000e+00
  N4dh  SQ4p  1 4.300000e-01    5.899000e+00
  N4dh  TQ4p  1 3.950000e-01    8.530000e+00
  N3dh   Q4p  1 4.700000e-01    4.137000e+00
  N3dh  SQ4p  1 4.300000e-01    5.415000e+00
  N3dh  TQ4p  1 3.950000e-01    7.915000e+00
  N2dh   Q4p  1 4.700000e-01    4.117000e+00
  N2dh  SQ4p  1 4.300000e-01    5.344000e+00
  N2dh  TQ4p  1 3.950000e-01    7.750000e+00
  N1dh   Q4p  1 4.700000e-01    4.089000e+00
  N1dh  SQ4p  1 4.300000e-01    5.240000e+00
  N1dh  TQ4p  1 3.950000e-01    7.511000e+00
  P6ah   Q4p  1 4.700000e-01    5.969000e+00
  P6ah  SQ4p  1 4.300000e-01    7.588000e+00
  P6ah  TQ4p  1 3.950000e-01    1.103900e+01
  P5ah   Q4p  1 4.700000e-01    5.701000e+00
  P5ah  SQ4p  1 4.300000e-01    7.281000e+00
  P5ah  TQ4p  1 3.950000e-01    1.055600e+01
  P4ah   Q4p  1 4.700000e-01    5.680000e+00
  P4ah  SQ4p  1 4.300000e-01    7.204000e+00
  P4ah  TQ4p  1 3.950000e-01    1.037600e+01
  P3ah   Q4p  1 4.700000e-01    5.667000e+00
  P3ah  SQ4p  1 4.300000e-01    7.156000e+00
  P3ah  TQ4p  1 3.950000e-01    1.026600e+01
  P2ah   Q4p  1 4.700000e-01    5.398000e+00
  P2ah  SQ4p  1 4.300000e-01    6.842000e+00
  P2ah  TQ4p  1 3.950000e-01    9.878000e+00
  P1ah   Q4p  1 4.700000e-01    5.141000e+00
  P1ah  SQ4p  1 4.300000e-01    6.586000e+00
  P1ah  TQ4p  1 3.950000e-01    9.498000e+00
  N6ah   Q4p  1 4.700000e-01    5.133000e+00
  N6ah  SQ4p  1 4.300000e-01    6.556000e+00
  N6ah  TQ4p  1 3.950000e-01    9.429000e+00
  N5ah   Q4p  1 4.700000e-01    5.123000e+00
  N5ah  SQ4p  1 4.300000e-01    6.521000e+00
  N5ah  TQ4p  1 3.950000e-01    9.348000e+00
  N4ah   Q4p  1 4.700000e-01    4.881000e+00
  N4ah  SQ4p  1 4.300000e-01    6.279000e+00
  N4ah  TQ4p  1 3.950000e-01    9.010000e+00
  N3ah   Q4p  1 4.700000e-01    4.677000e+00
  N3ah  SQ4p  1 4.300000e-01    6.025000e+00
  N3ah  TQ4p  1 3.950000e-01    8.645000e+00
  N2ah   Q4p  1 4.700000e-01    4.657000e+00
  N2ah  SQ4p  1 4.300000e-01    5.954000e+00
  N2ah  TQ4p  1 3.950000e-01    8.480000e+00
  N1ah   Q4p  1 4.700000e-01    4.629000e+00
  N1ah  SQ4p  1 4.300000e-01    5.850000e+00
  N1ah  TQ4p  1 3.950000e-01    8.241000e+00
  C6vh   Q4p  1 4.700000e-01    3.483000e+00
  C6vh  SQ4p  1 4.300000e-01    4.234000e+00
  C6vh  TQ4p  1 3.950000e-01    6.276000e+00
  C5vh   Q4p  1 4.700000e-01    2.928000e+00
  C5vh  SQ4p  1 4.300000e-01    3.513000e+00
  C5vh  TQ4p  1 3.990000e-01    5.262000e+00
  C4vh   Q4p  1 4.850000e-01    2.661000e+00
  C4vh  SQ4p  1 4.430000e-01    3.023000e+00
  C4vh  TQ4p  1 4.010000e-01    4.603000e+00
  C3vh   Q4p  1 5.200000e-01    2.434000e+00
  C3vh  SQ4p  1 4.730000e-01    2.434000e+00
  C3vh  TQ4p  1 4.040000e-01    3.699000e+00
  C2vh   Q4p  1 6.200000e-01    2.170000e+00
  C2vh  SQ4p  1 5.520000e-01    1.800000e+00
  C2vh  TQ4p  1 5.240000e-01    2.397000e+00
  C1vh   Q4p  1 6.200000e-01    2.091000e+00
  C1vh  SQ4p  1 5.520000e-01    1.503000e+00
  C1vh  TQ4p  1 5.240000e-01    1.731000e+00
  X4vh   Q4p  1 4.700000e-01    3.339000e+00
  X4vh  SQ4p  1 4.300000e-01    4.168000e+00
  X4vh  TQ4p  1 3.950000e-01    6.314000e+00
  X3vh   Q4p  1 4.700000e-01    3.143000e+00
  X3vh  SQ4p  1 4.300000e-01    3.844000e+00
  X3vh  TQ4p  1 3.980000e-01    5.843000e+00
  X2vh   Q4p  1 4.700000e-01    2.904000e+00
  X2vh  SQ4p  1 4.300000e-01    3.427000e+00
  X2vh  TQ4p  1 3.990000e-01    5.065000e+00
  X1vh   Q4p  1 4.850000e-01    2.576000e+00
  X1vh  SQ4p  1 4.430000e-01    2.712000e+00
  X1vh  TQ4p  1 4.010000e-01    3.874000e+00
  C6eh   Q4p  1 4.700000e-01    3.913000e+00
  C6eh  SQ4p  1 4.300000e-01    4.844000e+00
  C6eh  TQ4p  1 3.950000e-01    6.926000e+00
  C5eh   Q4p  1 4.700000e-01    3.448000e+00
  C5eh  SQ4p  1 4.300000e-01    4.103000e+00
  C5eh  TQ4p  1 3.950000e-01    5.974000e+00
  C4eh   Q4p  1 4.700000e-01    3.225000e+00
  C4eh  SQ4p  1 4.300000e-01    3.749000e+00
  C4eh  TQ4p  1 3.950000e-01    5.345000e+00
  C3eh   Q4p  1 4.700000e-01    2.967000e+00
  C3eh  SQ4p  1 4.300000e-01    3.199000e+00
  C3eh  TQ4p  1 3.980000e-01    4.362000e+00
  C2eh   Q4p  1 5.200000e-01    2.351000e+00
  C2eh  SQ4p  1 4.730000e-01    2.202000e+00
  C2eh  TQ4p  1 4.040000e-01    3.123000e+00
  C1eh   Q4p  1 5.200000e-01    2.256000e+00
  C1eh  SQ4p  1 4.730000e-01    1.855000e+00
  C1eh  TQ4p  1 4.040000e-01    2.260000e+00
  X4eh   Q4p  1 4.700000e-01    3.789000e+00
  X4eh  SQ4p  1 4.300000e-01    4.928000e+00
  X4eh  TQ4p  1 3.950000e-01    6.954000e+00
  X3eh   Q4p  1 4.700000e-01    3.593000e+00
  X3eh  SQ4p  1 4.300000e-01    4.444000e+00
  X3eh  TQ4p  1 3.950000e-01    6.536000e+00
  X2eh   Q4p  1 4.700000e-01    3.424000e+00
  X2eh  SQ4p  1 4.300000e-01    4.017000e+00
  X2eh  TQ4p  1 3.950000e-01    5.774000e+00
  X1eh   Q4p  1 4.700000e-01    3.137000e+00
  X1eh  SQ4p  1 4.300000e-01    3.429000e+00
  X1eh  TQ4p  1 3.950000e-01    4.605000e+00
   P6r   Q4p  1 4.700000e-01    5.719000e+00
   P6r  SQ4p  1 4.300000e-01    7.348000e+00
   P6r  TQ4p  1 3.950000e-01    1.039900e+01
   P5r   Q4p  1 4.700000e-01    5.441000e+00
   P5r  SQ4p  1 4.300000e-01    7.001000e+00
   P5r  TQ4p  1 3.950000e-01    9.926000e+00
   P4r   Q4p  1 4.700000e-01    5.420000e+00
   P4r  SQ4p  1 4.300000e-01    6.924000e+00
   P4r  TQ4p  1 3.950000e-01    9.746000e+00
   P3r   Q4p  1 4.700000e-01    5.407000e+00
   P3r  SQ4p  1 4.300000e-01    6.876000e+00
   P3r  TQ4p  1 3.950000e-01    9.636000e+00
   P2r   Q4p  1 4.700000e-01    5.148000e+00
   P2r  SQ4p  1 4.300000e-01    6.612000e+00
   P2r  TQ4p  1 3.950000e-01    9.318000e+00
   P1r   Q4p  1 4.700000e-01    4.911000e+00
   P1r  SQ4p  1 4.300000e-01    6.386000e+00
   P1r  TQ4p  1 3.950000e-01    9.018000e+00
   N6r   Q4p  1 4.700000e-01    4.903000e+00
   N6r  SQ4p  1 4.300000e-01    6.356000e+00
   N6r  TQ4p  1 3.950000e-01    8.949000e+00
   N5r   Q4p  1 4.700000e-01    4.893000e+00
   N5r  SQ4p  1 4.300000e-01    6.321000e+00
   N5r  TQ4p  1 3.950000e-01    8.868000e+00
   N4r   Q4p  1 4.700000e-01    4.691000e+00
   N4r  SQ4p  1 4.300000e-01    6.079000e+00
   N4r  TQ4p  1 3.950000e-01    8.530000e+00
   N3r   Q4p  1 4.700000e-01    4.497000e+00
   N3r  SQ4p  1 4.300000e-01    5.845000e+00
   N3r  TQ4p  1 3.950000e-01    8.155000e+00
   N2r   Q4p  1 4.700000e-01    4.477000e+00
   N2r  SQ4p  1 4.300000e-01    5.774000e+00
   N2r  TQ4p  1 3.950000e-01    7.990000e+00
   N1r   Q4p  1 4.700000e-01    4.449000e+00
   N1r  SQ4p  1 4.300000e-01    5.670000e+00
   N1r  TQ4p  1 3.950000e-01    7.751000e+00
   C6r   Q4p  1 4.700000e-01    3.913000e+00
   C6r  SQ4p  1 4.300000e-01    4.834000e+00
   C6r  TQ4p  1 3.950000e-01    6.736000e+00
   C5r   Q4p  1 4.700000e-01    3.448000e+00
   C5r  SQ4p  1 4.300000e-01    4.103000e+00
   C5r  TQ4p  1 3.950000e-01    5.794000e+00
   C4r   Q4p  1 4.700000e-01    3.225000e+00
   C4r  SQ4p  1 4.300000e-01    3.749000e+00
   C4r  TQ4p  1 3.980000e-01    5.098000e+00
   C3r   Q4p  1 4.700000e-01    2.967000e+00
   C3r  SQ4p  1 4.300000e-01    3.199000e+00
   C3r  TQ4p  1 3.990000e-01    4.085000e+00
   C2r   Q4p  1 5.200000e-01    2.371000e+00
   C2r  SQ4p  1 4.730000e-01    2.202000e+00
   C2r  TQ4p  1 4.650000e-01    2.695000e+00
   C1r   Q4p  1 5.200000e-01    2.276000e+00
   C1r  SQ4p  1 4.730000e-01    1.855000e+00
   C1r  TQ4p  1 4.650000e-01    1.945000e+00
   X4r   Q4p  1 4.700000e-01    3.789000e+00
   X4r  SQ4p  1 4.300000e-01    4.778000e+00
   X4r  TQ4p  1 3.950000e-01    6.754000e+00
   X3r   Q4p  1 4.700000e-01    3.593000e+00
   X3r  SQ4p  1 4.300000e-01    4.444000e+00
   X3r  TQ4p  1 3.950000e-01    6.276000e+00
   X2r   Q4p  1 4.700000e-01    3.424000e+00
   X2r  SQ4p  1 4.300000e-01    4.017000e+00
   X2r  TQ4p  1 3.950000e-01    5.594000e+00
   X1r   Q4p  1 4.700000e-01    3.137000e+00
   X1r  SQ4p  1 4.300000e-01    3.429000e+00
   X1r  TQ4p  1 3.980000e-01    4.362000e+00
  P6dr   Q4p  1 4.700000e-01    5.209000e+00
  P6dr  SQ4p  1 4.300000e-01    6.838000e+00
  P6dr  TQ4p  1 3.950000e-01    1.007900e+01
  P5dr   Q4p  1 4.700000e-01    4.961000e+00
  P5dr  SQ4p  1 4.300000e-01    6.571000e+00
  P5dr  TQ4p  1 3.950000e-01    9.686000e+00
  P4dr   Q4p  1 4.700000e-01    4.940000e+00
  P4dr  SQ4p  1 4.300000e-01    6.494000e+00
  P4dr  TQ4p  1 3.950000e-01    9.506000e+00
  P3dr   Q4p  1 4.700000e-01    4.927000e+00
  P3dr  SQ4p  1 4.300000e-01    6.446000e+00
  P3dr  TQ4p  1 3.950000e-01    9.396000e+00
  P2dr   Q4p  1 4.700000e-01    4.728000e+00
  P2dr  SQ4p  1 4.300000e-01    6.212000e+00
  P2dr  TQ4p  1 3.950000e-01    9.078000e+00
  P1dr   Q4p  1 4.700000e-01    4.541000e+00
  P1dr  SQ4p  1 4.300000e-01    6.006000e+00
  P1dr  TQ4p  1 3.950000e-01    8.778000e+00
  N6dr   Q4p  1 4.700000e-01    4.533000e+00
  N6dr  SQ4p  1 4.300000e-01    5.976000e+00
  N6dr  TQ4p  1 3.950000e-01    8.709000e+00
  N5dr   Q4p  1 4.700000e-01    4.523000e+00
  N5dr  SQ4p  1 4.300000e-01    5.941000e+00
  N5dr  TQ4p  1 3.950000e-01    8.628000e+00
  N4dr   Q4p  1 4.700000e-01    4.511000e+00
  N4dr  SQ4p  1 4.300000e-01    5.899000e+00
  N4dr  TQ4p  1 3.950000e-01    8.530000e+00
  N3dr   Q4p  1 4.700000e-01    4.137000e+00
  N3dr  SQ4p  1 4.300000e-01    5.415000e+00
  N3dr  TQ4p  1 3.950000e-01    7.915000e+00
  N2dr   Q4p  1 4.700000e-01    4.117000e+00
  N2dr  SQ4p  1 4.300000e-01    5.344000e+00
  N2dr  TQ4p  1 3.950000e-01    7.750000e+00
  N1dr   Q4p  1 4.700000e-01    4.089000e+00
  N1dr  SQ4p  1 4.300000e-01    5.240000e+00
  N1dr  TQ4p  1 3.950000e-01    7.511000e+00
  P6ar   Q4p  1 4.700000e-01    5.969000e+00
  P6ar  SQ4p  1 4.300000e-01    7.588000e+00
  P6ar  TQ4p  1 3.950000e-01    1.103900e+01
  P5ar   Q4p  1 4.700000e-01    5.701000e+00
  P5ar  SQ4p  1 4.300000e-01    7.281000e+00
  P5ar  TQ4p  1 3.950000e-01    1.055600e+01
  P4ar   Q4p  1 4.700000e-01    5.680000e+00
  P4ar  SQ4p  1 4.300000e-01    7.204000e+00
  P4ar  TQ4p  1 3.950000e-01    1.037600e+01
  P3ar   Q4p  1 4.700000e-01    5.667000e+00
  P3ar  SQ4p  1 4.300000e-01    7.156000e+00
  P3ar  TQ4p  1 3.950000e-01    1.026600e+01
  P2ar   Q4p  1 4.700000e-01    5.398000e+00
  P2ar  SQ4p  1 4.300000e-01    6.842000e+00
  P2ar  TQ4p  1 3.950000e-01    9.878000e+00
  P1ar   Q4p  1 4.700000e-01    5.141000e+00
  P1ar  SQ4p  1 4.300000e-01    6.586000e+00
  P1ar  TQ4p  1 3.950000e-01    9.498000e+00
  N6ar   Q4p  1 4.700000e-01    5.133000e+00
  N6ar  SQ4p  1 4.300000e-01    6.556000e+00
  N6ar  TQ4p  1 3.950000e-01    9.429000e+00
  N5ar   Q4p  1 4.700000e-01    5.123000e+00
  N5ar  SQ4p  1 4.300000e-01    6.521000e+00
  N5ar  TQ4p  1 3.950000e-01    9.348000e+00
  N4ar   Q4p  1 4.700000e-01    4.881000e+00
  N4ar  SQ4p  1 4.300000e-01    6.279000e+00
  N4ar  TQ4p  1 3.950000e-01    9.010000e+00
  N3ar   Q4p  1 4.700000e-01    4.677000e+00
  N3ar  SQ4p  1 4.300000e-01    6.025000e+00
  N3ar  TQ4p  1 3.950000e-01    8.645000e+00
  N2ar   Q4p  1 4.700000e-01    4.657000e+00
  N2ar  SQ4p  1 4.300000e-01    5.954000e+00
  N2ar  TQ4p  1 3.950000e-01    8.480000e+00
  N1ar   Q4p  1 4.700000e-01    4.629000e+00
  N1ar  SQ4p  1 4.300000e-01    5.850000e+00
  N1ar  TQ4p  1 3.950000e-01    8.241000e+00
  C6vr   Q4p  1 4.700000e-01    3.483000e+00
  C6vr  SQ4p  1 4.300000e-01    4.234000e+00
  C6vr  TQ4p  1 3.950000e-01    6.276000e+00
  C5vr   Q4p  1 4.700000e-01    2.928000e+00
  C5vr  SQ4p  1 4.300000e-01    3.513000e+00
  C5vr  TQ4p  1 3.990000e-01    5.262000e+00
  C4vr   Q4p  1 4.850000e-01    2.661000e+00
  C4vr  SQ4p  1 4.430000e-01    3.023000e+00
  C4vr  TQ4p  1 4.010000e-01    4.603000e+00
  C3vr   Q4p  1 5.200000e-01    2.434000e+00
  C3vr  SQ4p  1 4.730000e-01    2.434000e+00
  C3vr  TQ4p  1 4.040000e-01    3.699000e+00
  C2vr   Q4p  1 6.200000e-01    2.170000e+00
  C2vr  SQ4p  1 5.520000e-01    1.800000e+00
  C2vr  TQ4p  1 5.240000e-01    2.397000e+00
  C1vr   Q4p  1 6.200000e-01    2.091000e+00
  C1vr  SQ4p  1 5.520000e-01    1.503000e+00
  C1vr  TQ4p  1 5.240000e-01    1.731000e+00
  X4vr   Q4p  1 4.700000e-01    3.339000e+00
  X4vr  SQ4p  1 4.300000e-01    4.168000e+00
  X4vr  TQ4p  1 3.950000e-01    6.314000e+00
  X3vr   Q4p  1 4.700000e-01    3.143000e+00
  X3vr  SQ4p  1 4.300000e-01    3.844000e+00
  X3vr  TQ4p  1 3.980000e-01    5.843000e+00
  X2vr   Q4p  1 4.700000e-01    2.904000e+00
  X2vr  SQ4p  1 4.300000e-01    3.427000e+00
  X2vr  TQ4p  1 3.990000e-01    5.065000e+00
  X1vr   Q4p  1 4.850000e-01    2.576000e+00
  X1vr  SQ4p  1 4.430000e-01    2.712000e+00
  X1vr  TQ4p  1 4.010000e-01    3.874000e+00
  C6er   Q4p  1 4.700000e-01    3.913000e+00
  C6er  SQ4p  1 4.300000e-01    4.844000e+00
  C6er  TQ4p  1 3.950000e-01    6.926000e+00
  C5er   Q4p  1 4.700000e-01    3.448000e+00
  C5er  SQ4p  1 4.300000e-01    4.103000e+00
  C5er  TQ4p  1 3.950000e-01    5.974000e+00
  C4er   Q4p  1 4.700000e-01    3.225000e+00
  C4er  SQ4p  1 4.300000e-01    3.749000e+00
  C4er  TQ4p  1 3.950000e-01    5.345000e+00
  C3er   Q4p  1 4.700000e-01    2.967000e+00
  C3er  SQ4p  1 4.300000e-01    3.199000e+00
  C3er  TQ4p  1 3.980000e-01    4.362000e+00
  C2er   Q4p  1 5.200000e-01    2.351000e+00
  C2er  SQ4p  1 4.730000e-01    2.202000e+00
  C2er  TQ4p  1 4.040000e-01    3.123000e+00
  C1er   Q4p  1 5.200000e-01    2.256000e+00
  C1er  SQ4p  1 4.730000e-01    1.855000e+00
  C1er  TQ4p  1 4.040000e-01    2.260000e+00
  X4er   Q4p  1 4.700000e-01    3.789000e+00
  X4er  SQ4p  1 4.300000e-01    4.928000e+00
  X4er  TQ4p  1 3.950000e-01    6.954000e+00
  X3er   Q4p  1 4.700000e-01    3.593000e+00
  X3er  SQ4p  1 4.300000e-01    4.444000e+00
  X3er  TQ4p  1 3.950000e-01    6.536000e+00
  X2er   Q4p  1 4.700000e-01    3.424000e+00
  X2er  SQ4p  1 4.300000e-01    4.017000e+00
  X2er  TQ4p  1 3.950000e-01    5.774000e+00
  X1er   Q4p  1 4.700000e-01    3.137000e+00
  X1er  SQ4p  1 4.300000e-01    3.429000e+00
  X1er  TQ4p  1 3.950000e-01    4.605000e+00
   SP6   Q4p  1 4.300000e-01    5.174000e+00
   SP6  SQ4p  1 4.100000e-01    6.801000e+00
   SP6  TQ4p  1 3.650000e-01    9.178000e+00
   SP5   Q4p  1 4.300000e-01    4.880000e+00
   SP5  SQ4p  1 4.100000e-01    6.480000e+00
   SP5  TQ4p  1 3.650000e-01    8.741000e+00
   SP4   Q4p  1 4.300000e-01    4.864000e+00
   SP4  SQ4p  1 4.100000e-01    6.400000e+00
   SP4  TQ4p  1 3.650000e-01    8.573000e+00
   SP3   Q4p  1 4.300000e-01    4.855000e+00
   SP3  SQ4p  1 4.100000e-01    6.352000e+00
   SP3  TQ4p  1 3.650000e-01    8.472000e+00
   SP2   Q4p  1 4.300000e-01    4.618000e+00
   SP2  SQ4p  1 4.100000e-01    6.098000e+00
   SP2  TQ4p  1 3.650000e-01    8.132000e+00
   SP1   Q4p  1 4.300000e-01    4.413000e+00
   SP1  SQ4p  1 4.100000e-01    5.802000e+00
   SP1  TQ4p  1 3.650000e-01    7.808000e+00
   SN6   Q4p  1 4.300000e-01    4.407000e+00
   SN6  SQ4p  1 4.100000e-01    5.773000e+00
   SN6  TQ4p  1 3.650000e-01    7.747000e+00
   SN5   Q4p  1 4.300000e-01    4.401000e+00
   SN5  SQ4p  1 4.100000e-01    5.739000e+00
   SN5  TQ4p  1 3.650000e-01    7.677000e+00
   SN4   Q4p  1 4.300000e-01    4.193000e+00
   SN4  SQ4p  1 4.100000e-01    5.459000e+00
   SN4  TQ4p  1 3.650000e-01    7.321000e+00
   SN3   Q4p  1 4.300000e-01    4.003000e+00
   SN3  SQ4p  1 4.100000e-01    5.167000e+00
   SN3  TQ4p  1 3.650000e-01    6.954000e+00
   SN2   Q4p  1 4.300000e-01    3.989000e+00
   SN2  SQ4p  1 4.100000e-01    5.100000e+00
   SN2  TQ4p  1 3.650000e-01    6.812000e+00
   SN1   Q4p  1 4.300000e-01    3.970000e+00
   SN1  SQ4p  1 4.100000e-01    5.002000e+00
   SN1  TQ4p  1 3.650000e-01    6.609000e+00
   SC6   Q4p  1 4.300000e-01    3.270000e+00
   SC6  SQ4p  1 4.100000e-01    4.127000e+00
   SC6  TQ4p  1 3.650000e-01    5.623000e+00
   SC5   Q4p  1 4.300000e-01    2.646000e+00
   SC5  SQ4p  1 4.100000e-01    3.565000e+00
   SC5  TQ4p  1 3.780000e-01    4.790000e+00
   SC4   Q4p  1 4.300000e-01    2.450000e+00
   SC4  SQ4p  1 4.100000e-01    3.224000e+00
   SC4  TQ4p  1 3.940000e-01    4.145000e+00
   SC3   Q4p  1 4.300000e-01    2.161000e+00
   SC3  SQ4p  1 4.140000e-01    2.725000e+00
   SC3  TQ4p  1 4.040000e-01    3.351000e+00
   SC2   Q4p  1 4.730000e-01    1.448000e+00
   SC2  SQ4p  1 4.530000e-01    2.000000e+00
   SC2  TQ4p  1 4.840000e-01    2.371000e+00
   SC1   Q4p  1 4.730000e-01    1.385000e+00
   SC1  SQ4p  1 4.530000e-01    1.680000e+00
   SC1  TQ4p  1 4.840000e-01    1.812000e+00
   SX4   Q4p  1 4.300000e-01    3.137000e+00
   SX4  SQ4p  1 4.100000e-01    4.065000e+00
   SX4  TQ4p  1 3.650000e-01    5.648000e+00
   SX3   Q4p  1 4.300000e-01    2.880000e+00
   SX3  SQ4p  1 4.100000e-01    3.817000e+00
   SX3  TQ4p  1 3.660000e-01    5.303000e+00
   SX2   Q4p  1 4.300000e-01    2.630000e+00
   SX2  SQ4p  1 4.100000e-01    3.484000e+00
   SX2  TQ4p  1 3.780000e-01    4.627000e+00
   SX1   Q4p  1 4.300000e-01    2.391000e+00
   SX1  SQ4p  1 4.100000e-01    2.926000e+00
   SX1  TQ4p  1 3.940000e-01    3.568000e+00
  SP6d   Q4p  1 4.300000e-01    4.664000e+00
  SP6d  SQ4p  1 4.100000e-01    6.551000e+00
  SP6d  TQ4p  1 3.650000e-01    8.888000e+00
  SP5d   Q4p  1 4.300000e-01    4.450000e+00
  SP5d  SQ4p  1 4.100000e-01    6.260000e+00
  SP5d  TQ4p  1 3.650000e-01    8.471000e+00
  SP4d   Q4p  1 4.300000e-01    4.434000e+00
  SP4d  SQ4p  1 4.100000e-01    6.180000e+00
  SP4d  TQ4p  1 3.650000e-01    8.303000e+00
  SP3d   Q4p  1 4.300000e-01    4.425000e+00
  SP3d  SQ4p  1 4.100000e-01    6.132000e+00
  SP3d  TQ4p  1 3.650000e-01    8.202000e+00
  SP2d   Q4p  1 4.300000e-01    4.218000e+00
  SP2d  SQ4p  1 4.100000e-01    5.828000e+00
  SP2d  TQ4p  1 3.650000e-01    7.862000e+00
  SP1d   Q4p  1 4.300000e-01    4.033000e+00
  SP1d  SQ4p  1 4.100000e-01    5.562000e+00
  SP1d  TQ4p  1 3.650000e-01    7.538000e+00
  SN6d   Q4p  1 4.300000e-01    4.027000e+00
  SN6d  SQ4p  1 4.100000e-01    5.533000e+00
  SN6d  TQ4p  1 3.650000e-01    7.477000e+00
  SN5d   Q4p  1 4.300000e-01    4.021000e+00
  SN5d  SQ4p  1 4.100000e-01    5.499000e+00
  SN5d  TQ4p  1 3.650000e-01    7.407000e+00
  SN4d   Q4p  1 4.300000e-01    4.013000e+00
  SN4d  SQ4p  1 4.100000e-01    5.459000e+00
  SN4d  TQ4p  1 3.650000e-01    7.321000e+00
  SN3d   Q4p  1 4.300000e-01    3.573000e+00
  SN3d  SQ4p  1 4.100000e-01    4.937000e+00
  SN3d  TQ4p  1 3.650000e-01    6.724000e+00
  SN2d   Q4p  1 4.300000e-01    3.559000e+00
  SN2d  SQ4p  1 4.100000e-01    4.870000e+00
  SN2d  TQ4p  1 3.650000e-01    6.582000e+00
  SN1d   Q4p  1 4.300000e-01    3.540000e+00
  SN1d  SQ4p  1 4.100000e-01    4.772000e+00
  SN1d  TQ4p  1 3.650000e-01    6.379000e+00
  SP6a   Q4p  1 4.300000e-01    5.414000e+00
  SP6a  SQ4p  1 4.100000e-01    7.351000e+00
  SP6a  TQ4p  1 3.650000e-01    9.758000e+00
  SP5a   Q4p  1 4.300000e-01    5.160000e+00
  SP5a  SQ4p  1 4.100000e-01    6.990000e+00
  SP5a  TQ4p  1 3.650000e-01    9.321000e+00
  SP4a   Q4p  1 4.300000e-01    5.144000e+00
  SP4a  SQ4p  1 4.100000e-01    6.910000e+00
  SP4a  TQ4p  1 3.650000e-01    9.153000e+00
  SP3a   Q4p  1 4.300000e-01    5.135000e+00
  SP3a  SQ4p  1 4.100000e-01    6.862000e+00
  SP3a  TQ4p  1 3.650000e-01    9.052000e+00
  SP2a   Q4p  1 4.300000e-01    4.848000e+00
  SP2a  SQ4p  1 4.100000e-01    6.568000e+00
  SP2a  TQ4p  1 3.650000e-01    8.692000e+00
  SP1a   Q4p  1 4.300000e-01    4.613000e+00
  SP1a  SQ4p  1 4.100000e-01    6.292000e+00
  SP1a  TQ4p  1 3.650000e-01    8.348000e+00
  SN6a   Q4p  1 4.300000e-01    4.607000e+00
  SN6a  SQ4p  1 4.100000e-01    6.263000e+00
  SN6a  TQ4p  1 3.650000e-01    8.287000e+00
  SN5a   Q4p  1 4.300000e-01    4.601000e+00
  SN5a  SQ4p  1 4.100000e-01    6.229000e+00
  SN5a  TQ4p  1 3.650000e-01    8.217000e+00
  SN4a   Q4p  1 4.300000e-01    4.393000e+00
  SN4a  SQ4p  1 4.100000e-01    5.969000e+00
  SN4a  TQ4p  1 3.650000e-01    7.861000e+00
  SN3a   Q4p  1 4.300000e-01    4.183000e+00
  SN3a  SQ4p  1 4.100000e-01    5.647000e+00
  SN3a  TQ4p  1 3.650000e-01    7.484000e+00
  SN2a   Q4p  1 4.300000e-01    4.169000e+00
  SN2a  SQ4p  1 4.100000e-01    5.580000e+00
  SN2a  TQ4p  1 3.650000e-01    7.342000e+00
  SN1a   Q4p  1 4.300000e-01    4.150000e+00
  SN1a  SQ4p  1 4.100000e-01    5.482000e+00
  SN1a  TQ4p  1 3.650000e-01    7.139000e+00
  SC6v   Q4p  1 4.300000e-01    2.670000e+00
  SC6v  SQ4p  1 4.100000e-01    3.817000e+00
  SC6v  TQ4p  1 3.660000e-01    5.303000e+00
  SC5v   Q4p  1 4.300000e-01    2.056000e+00
  SC5v  SQ4p  1 4.140000e-01    3.199000e+00
  SC5v  TQ4p  1 4.040000e-01    4.255000e+00
  SC4v   Q4p  1 4.430000e-01    1.762000e+00
  SC4v  SQ4p  1 4.180000e-01    2.846000e+00
  SC4v  TQ4p  1 4.090000e-01    3.830000e+00
  SC3v   Q4p  1 4.730000e-01    1.490000e+00
  SC3v  SQ4p  1 4.210000e-01    2.396000e+00
  SC3v  TQ4p  1 4.230000e-01    3.103000e+00
  SC2v   Q4p  1 5.520000e-01    1.154000e+00
  SC2v  SQ4p  1 5.350000e-01    1.706000e+00
  SC2v  TQ4p  1 5.880000e-01    1.982000e+00
  SC1v   Q4p  1 5.520000e-01    1.100000e+00
  SC1v  SQ4p  1 5.350000e-01    1.434000e+00
  SC1v  TQ4p  1 5.880000e-01    1.522000e+00
  SX4v   Q4p  1 4.300000e-01    2.527000e+00
  SX4v  SQ4p  1 4.100000e-01    3.775000e+00
  SX4v  TQ4p  1 3.780000e-01    5.214000e+00
  SX3v   Q4p  1 4.300000e-01    2.280000e+00
  SX3v  SQ4p  1 4.100000e-01    3.527000e+00
  SX3v  TQ4p  1 3.940000e-01    4.730000e+00
  SX2v   Q4p  1 4.300000e-01    2.040000e+00
  SX2v  SQ4p  1 4.140000e-01    3.119000e+00
  SX2v  TQ4p  1 4.040000e-01    4.103000e+00
  SX1v   Q4p  1 4.430000e-01    1.705000e+00
  SX1v  SQ4p  1 4.180000e-01    2.554000e+00
  SX1v  TQ4p  1 4.090000e-01    3.274000e+00
  SC6e   Q4p  1 4.300000e-01    3.280000e+00
  SC6e  SQ4p  1 4.100000e-01    4.377000e+00
  SC6e  TQ4p  1 3.650000e-01    5.823000e+00
  SC5e   Q4p  1 4.300000e-01    2.646000e+00
  SC5e  SQ4p  1 4.100000e-01    3.695000e+00
  SC5e  TQ4p  1 3.660000e-01    5.049000e+00
  SC4e   Q4p  1 4.300000e-01    2.450000e+00
  SC4e  SQ4p  1 4.100000e-01    3.384000e+00
  SC4e  TQ4p  1 3.780000e-01    4.425000e+00
  SC3e   Q4p  1 4.300000e-01    2.161000e+00
  SC3e  SQ4p  1 4.100000e-01    2.926000e+00
  SC3e  TQ4p  1 3.940000e-01    3.568000e+00
  SC2e   Q4p  1 4.730000e-01    1.448000e+00
  SC2e  SQ4p  1 4.210000e-01    2.165000e+00
  SC2e  TQ4p  1 4.230000e-01    2.675000e+00
  SC1e   Q4p  1 4.730000e-01    1.385000e+00
  SC1e  SQ4p  1 4.210000e-01    1.820000e+00
  SC1e  TQ4p  1 4.230000e-01    2.036000e+00
  SX4e   Q4p  1 4.300000e-01    3.287000e+00
  SX4e  SQ4p  1 4.100000e-01    4.215000e+00
  SX4e  TQ4p  1 3.650000e-01    5.808000e+00
  SX3e   Q4p  1 4.300000e-01    2.880000e+00
  SX3e  SQ4p  1 4.100000e-01    3.977000e+00
  SX3e  TQ4p  1 3.650000e-01    5.463000e+00
  SX2e   Q4p  1 4.300000e-01    2.630000e+00
  SX2e  SQ4p  1 4.100000e-01    3.614000e+00
  SX2e  TQ4p  1 3.660000e-01    4.881000e+00
  SX1e   Q4p  1 4.300000e-01    2.391000e+00
  SX1e  SQ4p  1 4.100000e-01    3.086000e+00
  SX1e  TQ4p  1 3.780000e-01    3.824000e+00
  SP6q   Q4p  1 4.300000e-01    6.004000e+00
  SP6q  SQ4p  1 4.100000e-01    7.641000e+00
  SP6q  TQ4p  1 3.650000e-01    1.010800e+01
  SP5q   Q4p  1 4.300000e-01    5.690000e+00
  SP5q  SQ4p  1 4.100000e-01    7.280000e+00
  SP5q  TQ4p  1 3.650000e-01    9.611000e+00
  SP4q   Q4p  1 4.300000e-01    5.674000e+00
  SP4q  SQ4p  1 4.100000e-01    7.200000e+00
  SP4q  TQ4p  1 3.650000e-01    9.443000e+00
  SP3q   Q4p  1 4.300000e-01    5.665000e+00
  SP3q  SQ4p  1 4.100000e-01    7.152000e+00
  SP3q  TQ4p  1 3.650000e-01    9.342000e+00
  SP2q   Q4p  1 4.300000e-01    5.368000e+00
  SP2q  SQ4p  1 4.100000e-01    6.828000e+00
  SP2q  TQ4p  1 3.650000e-01    8.982000e+00
  SP1q   Q4p  1 4.300000e-01    5.123000e+00
  SP1q  SQ4p  1 4.100000e-01    6.542000e+00
  SP1q  TQ4p  1 3.650000e-01    8.638000e+00
  SN6q   Q4p  1 4.300000e-01    5.117000e+00
  SN6q  SQ4p  1 4.100000e-01    6.513000e+00
  SN6q  TQ4p  1 3.650000e-01    8.577000e+00
  SN5q   Q4p  1 4.300000e-01    5.111000e+00
  SN5q  SQ4p  1 4.100000e-01    6.479000e+00
  SN5q  TQ4p  1 3.650000e-01    8.507000e+00
  SN4q   Q4p  1 4.300000e-01    4.823000e+00
  SN4q  SQ4p  1 4.100000e-01    6.189000e+00
  SN4q  TQ4p  1 3.650000e-01    8.131000e+00
  SN3q   Q4p  1 4.300000e-01    4.583000e+00
  SN3q  SQ4p  1 4.100000e-01    5.917000e+00
  SN3q  TQ4p  1 3.650000e-01    7.754000e+00
  SN2q   Q4p  1 4.300000e-01    4.569000e+00
  SN2q  SQ4p  1 4.100000e-01    5.850000e+00
  SN2q  TQ4p  1 3.650000e-01    7.612000e+00
  SN1q   Q4p  1 4.300000e-01    4.550000e+00
  SN1q  SQ4p  1 4.100000e-01    5.752000e+00
  SN1q  TQ4p  1 3.650000e-01    7.409000e+00
  SC6q   Q4p  1 4.300000e-01    3.940000e+00
  SC6q  SQ4p  1 4.100000e-01    4.847000e+00
  SC6q  TQ4p  1 3.650000e-01    6.283000e+00
  SC5q   Q4p  1 4.300000e-01    3.246000e+00
  SC5q  SQ4p  1 4.100000e-01    4.005000e+00
  SC5q  TQ4p  1 3.650000e-01    5.369000e+00
  SC4q   Q4p  1 4.300000e-01    3.060000e+00
  SC4q  SQ4p  1 4.100000e-01    3.674000e+00
  SC4q  TQ4p  1 3.650000e-01    4.831000e+00
  SC3q   Q4p  1 4.300000e-01    2.761000e+00
  SC3q  SQ4p  1 4.100000e-01    3.216000e+00
  SC3q  TQ4p  1 3.660000e-01    4.052000e+00
  SC2q   Q4p  1 4.300000e-01    2.115000e+00
  SC2q  SQ4p  1 4.140000e-01    2.490000e+00
  SC2q  TQ4p  1 4.040000e-01    2.904000e+00
  SC1q   Q4p  1 4.300000e-01    2.045000e+00
  SC1q  SQ4p  1 4.140000e-01    2.139000e+00
  SC1q  TQ4p  1 4.040000e-01    2.235000e+00
  SX4q   Q4p  1 4.300000e-01    3.747000e+00
  SX4q  SQ4p  1 4.100000e-01    4.705000e+00
  SX4q  TQ4p  1 3.650000e-01    6.238000e+00
  SX3q   Q4p  1 4.300000e-01    3.510000e+00
  SX3q  SQ4p  1 4.100000e-01    4.377000e+00
  SX3q  TQ4p  1 3.650000e-01    5.823000e+00
  SX2q   Q4p  1 4.300000e-01    3.230000e+00
  SX2q  SQ4p  1 4.100000e-01    3.924000e+00
  SX2q  TQ4p  1 3.650000e-01    5.200000e+00
  SX1q   Q4p  1 4.300000e-01    3.001000e+00
  SX1q  SQ4p  1 4.100000e-01    3.376000e+00
  SX1q  TQ4p  1 3.650000e-01    4.209000e+00
 SP6dq   Q4p  1 4.300000e-01    5.414000e+00
 SP6dq  SQ4p  1 4.100000e-01    7.351000e+00
 SP6dq  TQ4p  1 3.650000e-01    9.758000e+00
 SP5dq   Q4p  1 4.300000e-01    5.160000e+00
 SP5dq  SQ4p  1 4.100000e-01    6.990000e+00
 SP5dq  TQ4p  1 3.650000e-01    9.321000e+00
 SP4dq   Q4p  1 4.300000e-01    5.144000e+00
 SP4dq  SQ4p  1 4.100000e-01    6.910000e+00
 SP4dq  TQ4p  1 3.650000e-01    9.153000e+00
 SP3dq   Q4p  1 4.300000e-01    5.135000e+00
 SP3dq  SQ4p  1 4.100000e-01    6.862000e+00
 SP3dq  TQ4p  1 3.650000e-01    9.052000e+00
 SP2dq   Q4p  1 4.300000e-01    4.848000e+00
 SP2dq  SQ4p  1 4.100000e-01    6.568000e+00
 SP2dq  TQ4p  1 3.650000e-01    8.692000e+00
 SP1dq   Q4p  1 4.300000e-01    4.613000e+00
 SP1dq  SQ4p  1 4.100000e-01    6.292000e+00
 SP1dq  TQ4p  1 3.650000e-01    8.348000e+00
 SN6dq   Q4p  1 4.300000e-01    4.607000e+00
 SN6dq  SQ4p  1 4.100000e-01    6.263000e+00
 SN6dq  TQ4p  1 3.650000e-01    8.287000e+00
 SN5dq   Q4p  1 4.300000e-01    4.601000e+00
 SN5dq  SQ4p  1 4.100000e-01    6.229000e+00
 SN5dq  TQ4p  1 3.650000e-01    8.217000e+00
 SN4dq   Q4p  1 4.300000e-01    4.593000e+00
 SN4dq  SQ4p  1 4.100000e-01    6.189000e+00
 SN4dq  TQ4p  1 3.650000e-01    8.131000e+00
 SN3dq   Q4p  1 4.300000e-01    4.183000e+00
 SN3dq  SQ4p  1 4.100000e-01    5.647000e+00
 SN3dq  TQ4p  1 3.650000e-01    7.484000e+00
 SN2dq   Q4p  1 4.300000e-01    4.169000e+00
 SN2dq  SQ4p  1 4.100000e-01    5.580000e+00
 SN2dq  TQ4p  1 3.650000e-01    7.342000e+00
 SN1dq   Q4p  1 4.300000e-01    4.150000e+00
 SN1dq  SQ4p  1 4.100000e-01    5.482000e+00
 SN1dq  TQ4p  1 3.650000e-01    7.139000e+00
 SP6aq   Q4p  1 4.300000e-01    5.704000e+00
 SP6aq  SQ4p  1 4.100000e-01    7.641000e+00
 SP6aq  TQ4p  1 3.650000e-01    1.010800e+01
 SP5aq   Q4p  1 4.300000e-01    5.690000e+00
 SP5aq  SQ4p  1 4.100000e-01    7.570000e+00
 SP5aq  TQ4p  1 3.650000e-01    9.961000e+00
 SP4aq   Q4p  1 4.300000e-01    5.674000e+00
 SP4aq  SQ4p  1 4.100000e-01    7.490000e+00
 SP4aq  TQ4p  1 3.650000e-01    9.793000e+00
 SP3aq   Q4p  1 4.300000e-01    5.665000e+00
 SP3aq  SQ4p  1 4.100000e-01    7.442000e+00
 SP3aq  TQ4p  1 3.650000e-01    9.692000e+00
 SP2aq   Q4p  1 4.300000e-01    5.658000e+00
 SP2aq  SQ4p  1 4.100000e-01    7.408000e+00
 SP2aq  TQ4p  1 3.650000e-01    9.622000e+00
 SP1aq   Q4p  1 4.300000e-01    5.363000e+00
 SP1aq  SQ4p  1 4.100000e-01    7.092000e+00
 SP1aq  TQ4p  1 3.650000e-01    9.218000e+00
 SN6aq   Q4p  1 4.300000e-01    5.357000e+00
 SN6aq  SQ4p  1 4.100000e-01    7.063000e+00
 SN6aq  TQ4p  1 3.650000e-01    9.157000e+00
 SN5aq   Q4p  1 4.300000e-01    5.351000e+00
 SN5aq  SQ4p  1 4.100000e-01    7.029000e+00
 SN5aq  TQ4p  1 3.650000e-01    9.087000e+00
 SN4aq   Q4p  1 4.300000e-01    5.103000e+00
 SN4aq  SQ4p  1 4.100000e-01    6.699000e+00
 SN4aq  TQ4p  1 3.650000e-01    8.711000e+00
 SN3aq   Q4p  1 4.300000e-01    4.813000e+00
 SN3aq  SQ4p  1 4.100000e-01    6.387000e+00
 SN3aq  TQ4p  1 3.650000e-01    8.314000e+00
 SN2aq   Q4p  1 4.300000e-01    4.799000e+00
 SN2aq  SQ4p  1 4.100000e-01    6.320000e+00
 SN2aq  TQ4p  1 3.650000e-01    8.172000e+00
 SN1aq   Q4p  1 4.300000e-01    4.780000e+00
 SN1aq  SQ4p  1 4.100000e-01    6.222000e+00
 SN1aq  TQ4p  1 3.650000e-01    7.969000e+00
 SC6vq   Q4p  1 4.300000e-01    3.280000e+00
 SC6vq  SQ4p  1 4.100000e-01    4.377000e+00
 SC6vq  TQ4p  1 3.650000e-01    5.823000e+00
 SC5vq   Q4p  1 4.300000e-01    2.646000e+00
 SC5vq  SQ4p  1 4.100000e-01    3.695000e+00
 SC5vq  TQ4p  1 3.660000e-01    5.049000e+00
 SC4vq   Q4p  1 4.300000e-01    2.450000e+00
 SC4vq  SQ4p  1 4.100000e-01    3.384000e+00
 SC4vq  TQ4p  1 3.780000e-01    4.425000e+00
 SC3vq   Q4p  1 4.300000e-01    2.161000e+00
 SC3vq  SQ4p  1 4.100000e-01    2.926000e+00
 SC3vq  TQ4p  1 3.940000e-01    3.568000e+00
 SC2vq   Q4p  1 4.730000e-01    1.448000e+00
 SC2vq  SQ4p  1 4.210000e-01    2.165000e+00
 SC2vq  TQ4p  1 4.230000e-01    2.675000e+00
 SC1vq   Q4p  1 4.730000e-01    1.385000e+00
 SC1vq  SQ4p  1 4.210000e-01    1.820000e+00
 SC1vq  TQ4p  1 4.230000e-01    2.036000e+00
 SX4vq   Q4p  1 4.300000e-01    3.287000e+00
 SX4vq  SQ4p  1 4.100000e-01    4.215000e+00
 SX4vq  TQ4p  1 3.650000e-01    5.808000e+00
 SX3vq   Q4p  1 4.300000e-01    2.880000e+00
 SX3vq  SQ4p  1 4.100000e-01    3.977000e+00
 SX3vq  TQ4p  1 3.650000e-01    5.463000e+00
 SX2vq   Q4p  1 4.300000e-01    2.630000e+00
 SX2vq  SQ4p  1 4.100000e-01    3.614000e+00
 SX2vq  TQ4p  1 3.660000e-01    4.881000e+00
 SX1vq   Q4p  1 4.300000e-01    2.391000e+00
 SX1vq  SQ4p  1 4.100000e-01    3.086000e+00
 SX1vq  TQ4p  1 3.780000e-01    3.824000e+00
 SC6eq   Q4p  1 4.300000e-01    3.940000e+00
 SC6eq  SQ4p  1 4.100000e-01    5.087000e+00
 SC6eq  TQ4p  1 3.650000e-01    6.543000e+00
 SC5eq   Q4p  1 4.300000e-01    3.256000e+00
 SC5eq  SQ4p  1 4.100000e-01    4.255000e+00
 SC5eq  TQ4p  1 3.650000e-01    5.569000e+00
 SC4eq   Q4p  1 4.300000e-01    3.210000e+00
 SC4eq  SQ4p  1 4.100000e-01    3.824000e+00
 SC4eq  TQ4p  1 3.650000e-01    4.991000e+00
 SC3eq   Q4p  1 4.300000e-01    2.761000e+00
 SC3eq  SQ4p  1 4.100000e-01    3.376000e+00
 SC3eq  TQ4p  1 3.650000e-01    4.209000e+00
 SC2eq   Q4p  1 4.730000e-01    1.448000e+00
 SC2eq  SQ4p  1 4.210000e-01    2.165000e+00
 SC2eq  TQ4p  1 4.230000e-01    2.675000e+00
 SC1eq   Q4p  1 4.730000e-01    1.385000e+00
 SC1eq  SQ4p  1 4.210000e-01    1.820000e+00
 SC1eq  TQ4p  1 4.230000e-01    2.036000e+00
 SX4eq   Q4p  1 4.300000e-01    3.747000e+00
 SX4eq  SQ4p  1 4.100000e-01    4.935000e+00
 SX4eq  TQ4p  1 3.650000e-01    6.468000e+00
 SX3eq   Q4p  1 4.300000e-01    3.510000e+00
 SX3eq  SQ4p  1 4.100000e-01    4.617000e+00
 SX3eq  TQ4p  1 3.650000e-01    6.053000e+00
 SX2eq   Q4p  1 4.300000e-01    3.240000e+00
 SX2eq  SQ4p  1 4.100000e-01    4.174000e+00
 SX2eq  TQ4p  1 3.650000e-01    5.400000e+00
 SX1eq   Q4p  1 4.300000e-01    3.151000e+00
 SX1eq  SQ4p  1 4.100000e-01    3.526000e+00
 SX1eq  TQ4p  1 3.650000e-01    4.369000e+00
  SP6h   Q4p  1 4.300000e-01    5.174000e+00
  SP6h  SQ4p  1 4.100000e-01    6.801000e+00
  SP6h  TQ4p  1 3.650000e-01    9.178000e+00
  SP5h   Q4p  1 4.300000e-01    4.880000e+00
  SP5h  SQ4p  1 4.100000e-01    6.480000e+00
  SP5h  TQ4p  1 3.650000e-01    8.741000e+00
  SP4h   Q4p  1 4.300000e-01    4.864000e+00
  SP4h  SQ4p  1 4.100000e-01    6.400000e+00
  SP4h  TQ4p  1 3.650000e-01    8.573000e+00
  SP3h   Q4p  1 4.300000e-01    4.855000e+00
  SP3h  SQ4p  1 4.100000e-01    6.352000e+00
  SP3h  TQ4p  1 3.650000e-01    8.472000e+00
  SP2h   Q4p  1 4.300000e-01    4.618000e+00
  SP2h  SQ4p  1 4.100000e-01    6.098000e+00
  SP2h  TQ4p  1 3.650000e-01    8.132000e+00
  SP1h   Q4p  1 4.300000e-01    4.413000e+00
  SP1h  SQ4p  1 4.100000e-01    5.802000e+00
  SP1h  TQ4p  1 3.650000e-01    7.808000e+00
  SN6h   Q4p  1 4.300000e-01    4.407000e+00
  SN6h  SQ4p  1 4.100000e-01    5.773000e+00
  SN6h  TQ4p  1 3.650000e-01    7.747000e+00
  SN5h   Q4p  1 4.300000e-01    4.401000e+00
  SN5h  SQ4p  1 4.100000e-01    5.739000e+00
  SN5h  TQ4p  1 3.650000e-01    7.677000e+00
  SN4h   Q4p  1 4.300000e-01    4.193000e+00
  SN4h  SQ4p  1 4.100000e-01    5.459000e+00
  SN4h  TQ4p  1 3.650000e-01    7.321000e+00
  SN3h   Q4p  1 4.300000e-01    4.003000e+00
  SN3h  SQ4p  1 4.100000e-01    5.167000e+00
  SN3h  TQ4p  1 3.650000e-01    6.954000e+00
  SN2h   Q4p  1 4.300000e-01    3.989000e+00
  SN2h  SQ4p  1 4.100000e-01    5.100000e+00
  SN2h  TQ4p  1 3.650000e-01    6.812000e+00
  SN1h   Q4p  1 4.300000e-01    3.970000e+00
  SN1h  SQ4p  1 4.100000e-01    5.002000e+00
  SN1h  TQ4p  1 3.650000e-01    6.609000e+00
  SC6h   Q4p  1 4.300000e-01    3.270000e+00
  SC6h  SQ4p  1 4.100000e-01    4.127000e+00
  SC6h  TQ4p  1 3.650000e-01    5.623000e+00
  SC5h   Q4p  1 4.300000e-01    2.646000e+00
  SC5h  SQ4p  1 4.100000e-01    3.565000e+00
  SC5h  TQ4p  1 3.780000e-01    4.790000e+00
  SC4h   Q4p  1 4.300000e-01    2.450000e+00
  SC4h  SQ4p  1 4.100000e-01    3.224000e+00
  SC4h  TQ4p  1 3.940000e-01    4.145000e+00
  SC3h   Q4p  1 4.300000e-01    2.161000e+00
  SC3h  SQ4p  1 4.140000e-01    2.725000e+00
  SC3h  TQ4p  1 4.040000e-01    3.351000e+00
  SC2h   Q4p  1 4.730000e-01    1.448000e+00
  SC2h  SQ4p  1 4.530000e-01    2.000000e+00
  SC2h  TQ4p  1 4.840000e-01    2.371000e+00
  SC1h   Q4p  1 4.730000e-01    1.385000e+00
  SC1h  SQ4p  1 4.530000e-01    1.680000e+00
  SC1h  TQ4p  1 4.840000e-01    1.812000e+00
  SX4h   Q4p  1 4.300000e-01    3.137000e+00
  SX4h  SQ4p  1 4.100000e-01    4.065000e+00
  SX4h  TQ4p  1 3.650000e-01    5.648000e+00
  SX3h   Q4p  1 4.300000e-01    2.880000e+00
  SX3h  SQ4p  1 4.100000e-01    3.817000e+00
  SX3h  TQ4p  1 3.660000e-01    5.303000e+00
  SX2h   Q4p  1 4.300000e-01    2.630000e+00
  SX2h  SQ4p  1 4.100000e-01    3.484000e+00
  SX2h  TQ4p  1 3.780000e-01    4.627000e+00
  SX1h   Q4p  1 4.300000e-01    2.391000e+00
  SX1h  SQ4p  1 4.100000e-01    2.926000e+00
  SX1h  TQ4p  1 3.940000e-01    3.568000e+00
 SP6dh   Q4p  1 4.300000e-01    4.664000e+00
 SP6dh  SQ4p  1 4.100000e-01    6.551000e+00
 SP6dh  TQ4p  1 3.650000e-01    8.888000e+00
 SP5dh   Q4p  1 4.300000e-01    4.450000e+00
 SP5dh  SQ4p  1 4.100000e-01    6.260000e+00
 SP5dh  TQ4p  1 3.650000e-01    8.471000e+00
 SP4dh   Q4p  1 4.300000e-01    4.434000e+00
 SP4dh  SQ4p  1 4.100000e-01    6.180000e+00
 SP4dh  TQ4p  1 3.650000e-01    8.303000e+00
 SP3dh   Q4p  1 4.300000e-01    4.425000e+00
 SP3dh  SQ4p  1 4.100000e-01    6.132000e+00
 SP3dh  TQ4p  1 3.650000e-01    8.202000e+00
 SP2dh   Q4p  1 4.300000e-01    4.218000e+00
 SP2dh  SQ4p  1 4.100000e-01    5.828000e+00
 SP2dh  TQ4p  1 3.650000e-01    7.862000e+00
 SP1dh   Q4p  1 4.300000e-01    4.033000e+00
 SP1dh  SQ4p  1 4.100000e-01    5.562000e+00
 SP1dh  TQ4p  1 3.650000e-01    7.538000e+00
 SN6dh   Q4p  1 4.300000e-01    4.027000e+00
 SN6dh  SQ4p  1 4.100000e-01    5.533000e+00
 SN6dh  TQ4p  1 3.650000e-01    7.477000e+00
 SN5dh   Q4p  1 4.300000e-01    4.021000e+00
 SN5dh  SQ4p  1 4.100000e-01    5.499000e+00
 SN5dh  TQ4p  1 3.650000e-01    7.407000e+00
 SN4dh   Q4p  1 4.300000e-01    4.013000e+00
 SN4dh  SQ4p  1 4.100000e-01    5.459000e+00
 SN4dh  TQ4p  1 3.650000e-01    7.321000e+00
 SN3dh   Q4p  1 4.300000e-01    3.573000e+00
 SN3dh  SQ4p  1 4.100000e-01    4.937000e+00
 SN3dh  TQ4p  1 3.650000e-01    6.724000e+00
 SN2dh   Q4p  1 4.300000e-01    3.559000e+00
 SN2dh  SQ4p  1 4.100000e-01    4.870000e+00
 SN2dh  TQ4p  1 3.650000e-01    6.582000e+00
 SN1dh   Q4p  1 4.300000e-01    3.540000e+00
 SN1dh  SQ4p  1 4.100000e-01    4.772000e+00
 SN1dh  TQ4p  1 3.650000e-01    6.379000e+00
 SP6ah   Q4p  1 4.300000e-01    5.414000e+00
 SP6ah  SQ4p  1 4.100000e-01    7.351000e+00
 SP6ah  TQ4p  1 3.650000e-01    9.758000e+00
 SP5ah   Q4p  1 4.300000e-01    5.160000e+00
 SP5ah  SQ4p  1 4.100000e-01    6.990000e+00
 SP5ah  TQ4p  1 3.650000e-01    9.321000e+00
 SP4ah   Q4p  1 4.300000e-01    5.144000e+00
 SP4ah  SQ4p  1 4.100000e-01    6.910000e+00
 SP4ah  TQ4p  1 3.650000e-01    9.153000e+00
 SP3ah   Q4p  1 4.300000e-01    5.135000e+00
 SP3ah  SQ4p  1 4.100000e-01    6.862000e+00
 SP3ah  TQ4p  1 3.650000e-01    9.052000e+00
 SP2ah   Q4p  1 4.300000e-01    4.848000e+00
 SP2ah  SQ4p  1 4.100000e-01    6.568000e+00
 SP2ah  TQ4p  1 3.650000e-01    8.692000e+00
 SP1ah   Q4p  1 4.300000e-01    4.613000e+00
 SP1ah  SQ4p  1 4.100000e-01    6.292000e+00
 SP1ah  TQ4p  1 3.650000e-01    8.348000e+00
 SN6ah   Q4p  1 4.300000e-01    4.607000e+00
 SN6ah  SQ4p  1 4.100000e-01    6.263000e+00
 SN6ah  TQ4p  1 3.650000e-01    8.287000e+00
 SN5ah   Q4p  1 4.300000e-01    4.601000e+00
 SN5ah  SQ4p  1 4.100000e-01    6.229000e+00
 SN5ah  TQ4p  1 3.650000e-01    8.217000e+00
 SN4ah   Q4p  1 4.300000e-01    4.393000e+00
 SN4ah  SQ4p  1 4.100000e-01    5.969000e+00
 SN4ah  TQ4p  1 3.650000e-01    7.861000e+00
 SN3ah   Q4p  1 4.300000e-01    4.183000e+00
 SN3ah  SQ4p  1 4.100000e-01    5.647000e+00
 SN3ah  TQ4p  1 3.650000e-01    7.484000e+00
 SN2ah   Q4p  1 4.300000e-01    4.169000e+00
 SN2ah  SQ4p  1 4.100000e-01    5.580000e+00
 SN2ah  TQ4p  1 3.650000e-01    7.342000e+00
 SN1ah   Q4p  1 4.300000e-01    4.150000e+00
 SN1ah  SQ4p  1 4.100000e-01    5.482000e+00
 SN1ah  TQ4p  1 3.650000e-01    7.139000e+00
 SC6vh   Q4p  1 4.300000e-01    2.670000e+00
 SC6vh  SQ4p  1 4.100000e-01    3.817000e+00
 SC6vh  TQ4p  1 3.660000e-01    5.303000e+00
 SC5vh   Q4p  1 4.300000e-01    2.056000e+00
 SC5vh  SQ4p  1 4.140000e-01    3.199000e+00
 SC5vh  TQ4p  1 4.040000e-01    4.255000e+00
 SC4vh   Q4p  1 4.430000e-01    1.762000e+00
 SC4vh  SQ4p  1 4.180000e-01    2.846000e+00
 SC4vh  TQ4p  1 4.090000e-01    3.830000e+00
 SC3vh   Q4p  1 4.730000e-01    1.490000e+00
 SC3vh  SQ4p  1 4.210000e-01    2.396000e+00
 SC3vh  TQ4p  1 4.230000e-01    3.103000e+00
 SC2vh   Q4p  1 5.520000e-01    1.154000e+00
 SC2vh  SQ4p  1 5.350000e-01    1.706000e+00
 SC2vh  TQ4p  1 5.880000e-01    1.982000e+00
 SC1vh   Q4p  1 5.520000e-01    1.100000e+00
 SC1vh  SQ4p  1 5.350000e-01    1.434000e+00
 SC1vh  TQ4p  1 5.880000e-01    1.522000e+00
 SX4vh   Q4p  1 4.300000e-01    2.527000e+00
 SX4vh  SQ4p  1 4.100000e-01    3.775000e+00
 SX4vh  TQ4p  1 3.780000e-01    5.214000e+00
 SX3vh   Q4p  1 4.300000e-01    2.280000e+00
 SX3vh  SQ4p  1 4.100000e-01    3.527000e+00
 SX3vh  TQ4p  1 3.940000e-01    4.730000e+00
 SX2vh   Q4p  1 4.300000e-01    2.040000e+00
 SX2vh  SQ4p  1 4.140000e-01    3.119000e+00
 SX2vh  TQ4p  1 4.040000e-01    4.103000e+00
 SX1vh   Q4p  1 4.430000e-01    1.705000e+00
 SX1vh  SQ4p  1 4.180000e-01    2.554000e+00
 SX1vh  TQ4p  1 4.090000e-01    3.274000e+00
 SC6eh   Q4p  1 4.300000e-01    3.280000e+00
 SC6eh  SQ4p  1 4.100000e-01    4.377000e+00
 SC6eh  TQ4p  1 3.650000e-01    5.823000e+00
 SC5eh   Q4p  1 4.300000e-01    2.646000e+00
 SC5eh  SQ4p  1 4.100000e-01    3.695000e+00
 SC5eh  TQ4p  1 3.660000e-01    5.049000e+00
 SC4eh   Q4p  1 4.300000e-01    2.450000e+00
 SC4eh  SQ4p  1 4.100000e-01    3.384000e+00
 SC4eh  TQ4p  1 3.780000e-01    4.425000e+00
 SC3eh   Q4p  1 4.300000e-01    2.161000e+00
 SC3eh  SQ4p  1 4.100000e-01    2.926000e+00
 SC3eh  TQ4p  1 3.940000e-01    3.568000e+00
 SC2eh   Q4p  1 4.730000e-01    1.448000e+00
 SC2eh  SQ4p  1 4.210000e-01    2.165000e+00
 SC2eh  TQ4p  1 4.230000e-01    2.675000e+00
 SC1eh   Q4p  1 4.730000e-01    1.385000e+00
 SC1eh  SQ4p  1 4.210000e-01    1.820000e+00
 SC1eh  TQ4p  1 4.230000e-01    2.036000e+00
 SX4eh   Q4p  1 4.300000e-01    3.287000e+00
 SX4eh  SQ4p  1 4.100000e-01    4.215000e+00
 SX4eh  TQ4p  1 3.650000e-01    5.808000e+00
 SX3eh   Q4p  1 4.300000e-01    2.880000e+00
 SX3eh  SQ4p  1 4.100000e-01    3.977000e+00
 SX3eh  TQ4p  1 3.650000e-01    5.463000e+00
 SX2eh   Q4p  1 4.300000e-01    2.630000e+00
 SX2eh  SQ4p  1 4.100000e-01    3.614000e+00
 SX2eh  TQ4p  1 3.660000e-01    4.881000e+00
 SX1eh   Q4p  1 4.300000e-01    2.391000e+00
 SX1eh  SQ4p  1 4.100000e-01    3.086000e+00
 SX1eh  TQ4p  1 3.780000e-01    3.824000e+00
  SP6r   Q4p  1 4.300000e-01    5.174000e+00
  SP6r  SQ4p  1 4.100000e-01    6.801000e+00
  SP6r  TQ4p  1 3.650000e-01    9.178000e+00
  SP5r   Q4p  1 4.300000e-01    4.880000e+00
  SP5r  SQ4p  1 4.100000e-01    6.480000e+00
  SP5r  TQ4p  1 3.650000e-01    8.741000e+00
  SP4r   Q4p  1 4.300000e-01    4.864000e+00
  SP4r  SQ4p  1 4.100000e-01    6.400000e+00
  SP4r  TQ4p  1 3.650000e-01    8.573000e+00
  SP3r   Q4p  1 4.300000e-01    4.855000e+00
  SP3r  SQ4p  1 4.100000e-01    6.352000e+00
  SP3r  TQ4p  1 3.650000e-01    8.472000e+00
  SP2r   Q4p  1 4.300000e-01    4.618000e+00
  SP2r  SQ4p  1 4.100000e-01    6.098000e+00
  SP2r  TQ4p  1 3.650000e-01    8.132000e+00
  SP1r   Q4p  1 4.300000e-01    4.413000e+00
  SP1r  SQ4p  1 4.100000e-01    5.802000e+00
  SP1r  TQ4p  1 3.650000e-01    7.808000e+00
  SN6r   Q4p  1 4.300000e-01    4.407000e+00
  SN6r  SQ4p  1 4.100000e-01    5.773000e+00
  SN6r  TQ4p  1 3.650000e-01    7.747000e+00
  SN5r   Q4p  1 4.300000e-01    4.401000e+00
  SN5r  SQ4p  1 4.100000e-01    5.739000e+00
  SN5r  TQ4p  1 3.650000e-01    7.677000e+00
  SN4r   Q4p  1 4.300000e-01    4.193000e+00
  SN4r  SQ4p  1 4.100000e-01    5.459000e+00
  SN4r  TQ4p  1 3.650000e-01    7.321000e+00
  SN3r   Q4p  1 4.300000e-01    4.003000e+00
  SN3r  SQ4p  1 4.100000e-01    5.167000e+00
  SN3r  TQ4p  1 3.650000e-01    6.954000e+00
  SN2r   Q4p  1 4.300000e-01    3.989000e+00
  SN2r  SQ4p  1 4.100000e-01    5.100000e+00
  SN2r  TQ4p  1 3.650000e-01    6.812000e+00
  SN1r   Q4p  1 4.300000e-01    3.970000e+00
  SN1r  SQ4p  1 4.100000e-01    5.002000e+00
  SN1r  TQ4p  1 3.650000e-01    6.609000e+00
  SC6r   Q4p  1 4.300000e-01    3.270000e+00
  SC6r  SQ4p  1 4.100000e-01    4.127000e+00
  SC6r  TQ4p  1 3.650000e-01    5.623000e+00
  SC5r   Q4p  1 4.300000e-01    2.646000e+00
  SC5r  SQ4p  1 4.100000e-01    3.565000e+00
  SC5r  TQ4p  1 3.780000e-01    4.790000e+00
  SC4r   Q4p  1 4.300000e-01    2.450000e+00
  SC4r  SQ4p  1 4.100000e-01    3.224000e+00
  SC4r  TQ4p  1 3.940000e-01    4.145000e+00
  SC3r   Q4p  1 4.300000e-01    2.161000e+00
  SC3r  SQ4p  1 4.140000e-01    2.725000e+00
  SC3r  TQ4p  1 4.040000e-01    3.351000e+00
  SC2r   Q4p  1 4.730000e-01    1.448000e+00
  SC2r  SQ4p  1 4.530000e-01    2.000000e+00
  SC2r  TQ4p  1 4.840000e-01    2.371000e+00
  SC1r   Q4p  1 4.730000e-01    1.385000e+00
  SC1r  SQ4p  1 4.530000e-01    1.680000e+00
  SC1r  TQ4p  1 4.840000e-01    1.812000e+00
  SX4r   Q4p  1 4.300000e-01    3.137000e+00
  SX4r  SQ4p  1 4.100000e-01    4.065000e+00
  SX4r  TQ4p  1 3.650000e-01    5.648000e+00
  SX3r   Q4p  1 4.300000e-01    2.880000e+00
  SX3r  SQ4p  1 4.100000e-01    3.817000e+00
  SX3r  TQ4p  1 3.660000e-01    5.303000e+00
  SX2r   Q4p  1 4.300000e-01    2.630000e+00
  SX2r  SQ4p  1 4.100000e-01    3.484000e+00
  SX2r  TQ4p  1 3.780000e-01    4.627000e+00
  SX1r   Q4p  1 4.300000e-01    2.391000e+00
  SX1r  SQ4p  1 4.100000e-01    2.926000e+00
  SX1r  TQ4p  1 3.940000e-01    3.568000e+00
 SP6dr   Q4p  1 4.300000e-01    4.664000e+00
 SP6dr  SQ4p  1 4.100000e-01    6.551000e+00
 SP6dr  TQ4p  1 3.650000e-01    8.888000e+00
 SP5dr   Q4p  1 4.300000e-01    4.450000e+00
 SP5dr  SQ4p  1 4.100000e-01    6.260000e+00
 SP5dr  TQ4p  1 3.650000e-01    8.471000e+00
 SP4dr   Q4p  1 4.300000e-01    4.434000e+00
 SP4dr  SQ4p  1 4.100000e-01    6.180000e+00
 SP4dr  TQ4p  1 3.650000e-01    8.303000e+00
 SP3dr   Q4p  1 4.300000e-01    4.425000e+00
 SP3dr  SQ4p  1 4.100000e-01    6.132000e+00
 SP3dr  TQ4p  1 3.650000e-01    8.202000e+00
 SP2dr   Q4p  1 4.300000e-01    4.218000e+00
 SP2dr  SQ4p  1 4.100000e-01    5.828000e+00
 SP2dr  TQ4p  1 3.650000e-01    7.862000e+00
 SP1dr   Q4p  1 4.300000e-01    4.033000e+00
 SP1dr  SQ4p  1 4.100000e-01    5.562000e+00
 SP1dr  TQ4p  1 3.650000e-01    7.538000e+00
 SN6dr   Q4p  1 4.300000e-01    4.027000e+00
 SN6dr  SQ4p  1 4.100000e-01    5.533000e+00
 SN6dr  TQ4p  1 3.650000e-01    7.477000e+00
 SN5dr   Q4p  1 4.300000e-01    4.021000e+00
 SN5dr  SQ4p  1 4.100000e-01    5.499000e+00
 SN5dr  TQ4p  1 3.650000e-01    7.407000e+00
 SN4dr   Q4p  1 4.300000e-01    4.013000e+00
 SN4dr  SQ4p  1 4.100000e-01    5.459000e+00
 SN4dr  TQ4p  1 3.650000e-01    7.321000e+00
 SN3dr   Q4p  1 4.300000e-01    3.573000e+00
 SN3dr  SQ4p  1 4.100000e-01    4.937000e+00
 SN3dr  TQ4p  1 3.650000e-01    6.724000e+00
 SN2dr   Q4p  1 4.300000e-01    3.559000e+00
 SN2dr  SQ4p  1 4.100000e-01    4.870000e+00
 SN2dr  TQ4p  1 3.650000e-01    6.582000e+00
 SN1dr   Q4p  1 4.300000e-01    3.540000e+00
 SN1dr  SQ4p  1 4.100000e-01    4.772000e+00
 SN1dr  TQ4p  1 3.650000e-01    6.379000e+00
 SP6ar   Q4p  1 4.300000e-01    5.414000e+00
 SP6ar  SQ4p  1 4.100000e-01    7.351000e+00
 SP6ar  TQ4p  1 3.650000e-01    9.758000e+00
 SP5ar   Q4p  1 4.300000e-01    5.160000e+00
 SP5ar  SQ4p  1 4.100000e-01    6.990000e+00
 SP5ar  TQ4p  1 3.650000e-01    9.321000e+00
 SP4ar   Q4p  1 4.300000e-01    5.144000e+00
 SP4ar  SQ4p  1 4.100000e-01    6.910000e+00
 SP4ar  TQ4p  1 3.650000e-01    9.153000e+00
 SP3ar   Q4p  1 4.300000e-01    5.135000e+00
 SP3ar  SQ4p  1 4.100000e-01    6.862000e+00
 SP3ar  TQ4p  1 3.650000e-01    9.052000e+00
 SP2ar   Q4p  1 4.300000e-01    4.848000e+00
 SP2ar  SQ4p  1 4.100000e-01    6.568000e+00
 SP2ar  TQ4p  1 3.650000e-01    8.692000e+00
 SP1ar   Q4p  1 4.300000e-01    4.613000e+00
 SP1ar  SQ4p  1 4.100000e-01    6.292000e+00
 SP1ar  TQ4p  1 3.650000e-01    8.348000e+00
 SN6ar   Q4p  1 4.300000e-01    4.607000e+00
 SN6ar  SQ4p  1 4.100000e-01    6.263000e+00
 SN6ar  TQ4p  1 3.650000e-01    8.287000e+00
 SN5ar   Q4p  1 4.300000e-01    4.601000e+00
 SN5ar  SQ4p  1 4.100000e-01    6.229000e+00
 SN5ar  TQ4p  1 3.650000e-01    8.217000e+00
 SN4ar   Q4p  1 4.300000e-01    4.393000e+00
 SN4ar  SQ4p  1 4.100000e-01    5.969000e+00
 SN4ar  TQ4p  1 3.650000e-01    7.861000e+00
 SN3ar   Q4p  1 4.300000e-01    4.183000e+00
 SN3ar  SQ4p  1 4.100000e-01    5.647000e+00
 SN3ar  TQ4p  1 3.650000e-01    7.484000e+00
 SN2ar   Q4p  1 4.300000e-01    4.169000e+00
 SN2ar  SQ4p  1 4.100000e-01    5.580000e+00
 SN2ar  TQ4p  1 3.650000e-01    7.342000e+00
 SN1ar   Q4p  1 4.300000e-01    4.150000e+00
 SN1ar  SQ4p  1 4.100000e-01    5.482000e+00
 SN1ar  TQ4p  1 3.650000e-01    7.139000e+00
 SC6vr   Q4p  1 4.300000e-01    2.670000e+00
 SC6vr  SQ4p  1 4.100000e-01    3.817000e+00
 SC6vr  TQ4p  1 3.660000e-01    5.303000e+00
 SC5vr   Q4p  1 4.300000e-01    2.056000e+00
 SC5vr  SQ4p  1 4.140000e-01    3.199000e+00
 SC5vr  TQ4p  1 4.040000e-01    4.255000e+00
 SC4vr   Q4p  1 4.430000e-01    1.762000e+00
 SC4vr  SQ4p  1 4.180000e-01    2.846000e+00
 SC4vr  TQ4p  1 4.090000e-01    3.830000e+00
 SC3vr   Q4p  1 4.730000e-01    1.490000e+00
 SC3vr  SQ4p  1 4.210000e-01    2.396000e+00
 SC3vr  TQ4p  1 4.230000e-01    3.103000e+00
 SC2vr   Q4p  1 5.520000e-01    1.154000e+00
 SC2vr  SQ4p  1 5.350000e-01    1.706000e+00
 SC2vr  TQ4p  1 5.880000e-01    1.982000e+00
 SC1vr   Q4p  1 5.520000e-01    1.100000e+00
 SC1vr  SQ4p  1 5.350000e-01    1.434000e+00
 SC1vr  TQ4p  1 5.880000e-01    1.522000e+00
 SX4vr   Q4p  1 4.300000e-01    2.527000e+00
 SX4vr  SQ4p  1 4.100000e-01    3.775000e+00
 SX4vr  TQ4p  1 3.780000e-01    5.214000e+00
 SX3vr   Q4p  1 4.300000e-01    2.280000e+00
 SX3vr  SQ4p  1 4.100000e-01    3.527000e+00
 SX3vr  TQ4p  1 3.940000e-01    4.730000e+00
 SX2vr   Q4p  1 4.300000e-01    2.040000e+00
 SX2vr  SQ4p  1 4.140000e-01    3.119000e+00
 SX2vr  TQ4p  1 4.040000e-01    4.103000e+00
 SX1vr   Q4p  1 4.430000e-01    1.705000e+00
 SX1vr  SQ4p  1 4.180000e-01    2.554000e+00
 SX1vr  TQ4p  1 4.090000e-01    3.274000e+00
 SC6er   Q4p  1 4.300000e-01    3.280000e+00
 SC6er  SQ4p  1 4.100000e-01    4.377000e+00
 SC6er  TQ4p  1 3.650000e-01    5.823000e+00
 SC5er   Q4p  1 4.300000e-01    2.646000e+00
 SC5er  SQ4p  1 4.100000e-01    3.695000e+00
 SC5er  TQ4p  1 3.660000e-01    5.049000e+00
 SC4er   Q4p  1 4.300000e-01    2.450000e+00
 SC4er  SQ4p  1 4.100000e-01    3.384000e+00
 SC4er  TQ4p  1 3.780000e-01    4.425000e+00
 SC3er   Q4p  1 4.300000e-01    2.161000e+00
 SC3er  SQ4p  1 4.100000e-01    2.926000e+00
 SC3er  TQ4p  1 3.940000e-01    3.568000e+00
 SC2er   Q4p  1 4.730000e-01    1.448000e+00
 SC2er  SQ4p  1 4.210000e-01    2.165000e+00
 SC2er  TQ4p  1 4.230000e-01    2.675000e+00
 SC1er   Q4p  1 4.730000e-01    1.385000e+00
 SC1er  SQ4p  1 4.210000e-01    1.820000e+00
 SC1er  TQ4p  1 4.230000e-01    2.036000e+00
 SX4er   Q4p  1 4.300000e-01    3.287000e+00
 SX4er  SQ4p  1 4.100000e-01    4.215000e+00
 SX4er  TQ4p  1 3.650000e-01    5.808000e+00
 SX3er   Q4p  1 4.300000e-01    2.880000e+00
 SX3er  SQ4p  1 4.100000e-01    3.977000e+00
 SX3er  TQ4p  1 3.650000e-01    5.463000e+00
 SX2er   Q4p  1 4.300000e-01    2.630000e+00
 SX2er  SQ4p  1 4.100000e-01    3.614000e+00
 SX2er  TQ4p  1 3.660000e-01    4.881000e+00
 SX1er   Q4p  1 4.300000e-01    2.391000e+00
 SX1er  SQ4p  1 4.100000e-01    3.086000e+00
 SX1er  TQ4p  1 3.780000e-01    3.824000e+00
   TP6   Q4p  1 3.950000e-01    4.639000e+00
   TP6  SQ4p  1 3.650000e-01    6.174000e+00
   TP6  TQ4p  1 3.400000e-01    8.408000e+00
   TP5   Q4p  1 3.950000e-01    4.306000e+00
   TP5  SQ4p  1 3.650000e-01    5.813000e+00
   TP5  TQ4p  1 3.400000e-01    8.001000e+00
   TP4   Q4p  1 3.950000e-01    4.292000e+00
   TP4  SQ4p  1 3.650000e-01    5.734000e+00
   TP4  TQ4p  1 3.400000e-01    7.827000e+00
   TP3   Q4p  1 3.950000e-01    4.283000e+00
   TP3  SQ4p  1 3.650000e-01    5.688000e+00
   TP3  TQ4p  1 3.400000e-01    7.726000e+00
   TP2   Q4p  1 3.950000e-01    4.037000e+00
   TP2  SQ4p  1 3.650000e-01    5.386000e+00
   TP2  TQ4p  1 3.400000e-01    7.425000e+00
   TP1   Q4p  1 3.950000e-01    3.793000e+00
   TP1  SQ4p  1 3.650000e-01    5.092000e+00
   TP1  TQ4p  1 3.400000e-01    7.122000e+00
   TN6   Q4p  1 3.950000e-01    3.788000e+00
   TN6  SQ4p  1 3.650000e-01    5.065000e+00
   TN6  TQ4p  1 3.400000e-01    7.062000e+00
   TN5   Q4p  1 3.950000e-01    3.782000e+00
   TN5  SQ4p  1 3.650000e-01    5.033000e+00
   TN5  TQ4p  1 3.400000e-01    6.993000e+00
   TN4   Q4p  1 3.950000e-01    3.535000e+00
   TN4  SQ4p  1 3.650000e-01    4.726000e+00
   TN4  TQ4p  1 3.400000e-01    6.671000e+00
   TN3   Q4p  1 3.950000e-01    3.277000e+00
   TN3  SQ4p  1 3.650000e-01    4.419000e+00
   TN3  TQ4p  1 3.400000e-01    6.348000e+00
   TN2   Q4p  1 3.950000e-01    3.266000e+00
   TN2  SQ4p  1 3.650000e-01    4.358000e+00
   TN2  TQ4p  1 3.400000e-01    6.213000e+00
   TN1   Q4p  1 3.950000e-01    3.250000e+00
   TN1  SQ4p  1 3.650000e-01    4.271000e+00
   TN1  TQ4p  1 3.400000e-01    6.022000e+00
   TC6   Q4p  1 3.950000e-01    2.595000e+00
   TC6  SQ4p  1 3.650000e-01    3.472000e+00
   TC6  TQ4p  1 3.400000e-01    4.946000e+00
   TC5   Q4p  1 3.950000e-01    1.935000e+00
   TC5  SQ4p  1 3.780000e-01    2.853000e+00
   TC5  TQ4p  1 3.660000e-01    3.905000e+00
   TC4   Q4p  1 3.980000e-01    1.684000e+00
   TC4  SQ4p  1 3.940000e-01    2.488000e+00
   TC4  TQ4p  1 3.850000e-01    3.367000e+00
   TC3   Q4p  1 3.990000e-01    1.366000e+00
   TC3  SQ4p  1 4.040000e-01    2.059000e+00
   TC3  TQ4p  1 4.110000e-01    2.673000e+00
   TC2   Q4p  1 4.650000e-01    8.300000e-01
   TC2  SQ4p  1 4.840000e-01    1.508000e+00
   TC2  TQ4p  1 5.050000e-01    1.893000e+00
   TC1   Q4p  1 4.650000e-01    7.810000e-01
   TC1  SQ4p  1 4.840000e-01    1.271000e+00
   TC1  TQ4p  1 5.050000e-01    1.428000e+00
   TX4   Q4p  1 3.950000e-01    2.409000e+00
   TX4  SQ4p  1 3.650000e-01    3.390000e+00
   TX4  TQ4p  1 3.400000e-01    4.839000e+00
   TX3   Q4p  1 3.950000e-01    2.135000e+00
   TX3  SQ4p  1 3.660000e-01    3.157000e+00
   TX3  TQ4p  1 3.520000e-01    4.368000e+00
   TX2   Q4p  1 3.950000e-01    1.922000e+00
   TX2  SQ4p  1 3.780000e-01    2.784000e+00
   TX2  TQ4p  1 3.660000e-01    3.759000e+00
   TX1   Q4p  1 3.980000e-01    1.636000e+00
   TX1  SQ4p  1 3.940000e-01    2.243000e+00
   TX1  TQ4p  1 3.850000e-01    2.854000e+00
  TP6d   Q4p  1 3.950000e-01    4.319000e+00
  TP6d  SQ4p  1 3.650000e-01    5.884000e+00
  TP6d  TQ4p  1 3.400000e-01    8.158000e+00
  TP5d   Q4p  1 3.950000e-01    4.066000e+00
  TP5d  SQ4p  1 3.650000e-01    5.543000e+00
  TP5d  TQ4p  1 3.400000e-01    7.771000e+00
  TP4d   Q4p  1 3.950000e-01    4.052000e+00
  TP4d  SQ4p  1 3.650000e-01    5.464000e+00
  TP4d  TQ4p  1 3.400000e-01    7.597000e+00
  TP3d   Q4p  1 3.950000e-01    4.043000e+00
  TP3d  SQ4p  1 3.650000e-01    5.418000e+00
  TP3d  TQ4p  1 3.400000e-01    7.496000e+00
  TP2d   Q4p  1 3.950000e-01    3.797000e+00
  TP2d  SQ4p  1 3.650000e-01    5.116000e+00
  TP2d  TQ4p  1 3.400000e-01    7.175000e+00
  TP1d   Q4p  1 3.950000e-01    3.553000e+00
  TP1d  SQ4p  1 3.650000e-01    4.822000e+00
  TP1d  TQ4p  1 3.400000e-01    6.882000e+00
  TN6d   Q4p  1 3.950000e-01    3.548000e+00
  TN6d  SQ4p  1 3.650000e-01    4.795000e+00
  TN6d  TQ4p  1 3.400000e-01    6.822000e+00
  TN5d   Q4p  1 3.950000e-01    3.542000e+00
  TN5d  SQ4p  1 3.650000e-01    4.763000e+00
  TN5d  TQ4p  1 3.400000e-01    6.753000e+00
  TN4d   Q4p  1 3.950000e-01    3.535000e+00
  TN4d  SQ4p  1 3.650000e-01    4.726000e+00
  TN4d  TQ4p  1 3.400000e-01    6.671000e+00
  TN3d   Q4p  1 3.950000e-01    3.037000e+00
  TN3d  SQ4p  1 3.650000e-01    4.189000e+00
  TN3d  TQ4p  1 3.400000e-01    6.088000e+00
  TN2d   Q4p  1 3.950000e-01    3.026000e+00
  TN2d  SQ4p  1 3.650000e-01    4.128000e+00
  TN2d  TQ4p  1 3.400000e-01    5.953000e+00
  TN1d   Q4p  1 3.950000e-01    3.010000e+00
  TN1d  SQ4p  1 3.650000e-01    4.041000e+00
  TN1d  TQ4p  1 3.400000e-01    5.762000e+00
  TP6a   Q4p  1 3.950000e-01    5.279000e+00
  TP6a  SQ4p  1 3.650000e-01    6.754000e+00
  TP6a  TQ4p  1 3.400000e-01    9.238000e+00
  TP5a   Q4p  1 3.950000e-01    4.936000e+00
  TP5a  SQ4p  1 3.650000e-01    6.393000e+00
  TP5a  TQ4p  1 3.400000e-01    8.801000e+00
  TP4a   Q4p  1 3.950000e-01    4.922000e+00
  TP4a  SQ4p  1 3.650000e-01    6.314000e+00
  TP4a  TQ4p  1 3.400000e-01    8.627000e+00
  TP3a   Q4p  1 3.950000e-01    4.913000e+00
  TP3a  SQ4p  1 3.650000e-01    6.268000e+00
  TP3a  TQ4p  1 3.400000e-01    8.526000e+00
  TP2a   Q4p  1 3.950000e-01    4.597000e+00
  TP2a  SQ4p  1 3.650000e-01    5.946000e+00
  TP2a  TQ4p  1 3.400000e-01    8.185000e+00
  TP1a   Q4p  1 3.950000e-01    4.273000e+00
  TP1a  SQ4p  1 3.650000e-01    5.632000e+00
  TP1a  TQ4p  1 3.400000e-01    7.852000e+00
  TN6a   Q4p  1 3.950000e-01    4.268000e+00
  TN6a  SQ4p  1 3.650000e-01    5.605000e+00
  TN6a  TQ4p  1 3.400000e-01    7.792000e+00
  TN5a   Q4p  1 3.950000e-01    4.262000e+00
  TN5a  SQ4p  1 3.650000e-01    5.573000e+00
  TN5a  TQ4p  1 3.400000e-01    7.723000e+00
  TN4a   Q4p  1 3.950000e-01    4.015000e+00
  TN4a  SQ4p  1 3.650000e-01    5.266000e+00
  TN4a  TQ4p  1 3.400000e-01    7.391000e+00
  TN3a   Q4p  1 3.950000e-01    3.767000e+00
  TN3a  SQ4p  1 3.650000e-01    4.949000e+00
  TN3a  TQ4p  1 3.400000e-01    7.058000e+00
  TN2a   Q4p  1 3.950000e-01    3.756000e+00
  TN2a  SQ4p  1 3.650000e-01    4.888000e+00
  TN2a  TQ4p  1 3.400000e-01    6.923000e+00
  TN1a   Q4p  1 3.950000e-01    3.740000e+00
  TN1a  SQ4p  1 3.650000e-01    4.801000e+00
  TN1a  TQ4p  1 3.400000e-01    6.732000e+00
  TC6v   Q4p  1 3.950000e-01    2.135000e+00
  TC6v  SQ4p  1 3.660000e-01    3.157000e+00
  TC6v  TQ4p  1 3.520000e-01    4.368000e+00
  TC5v   Q4p  1 3.990000e-01    1.442000e+00
  TC5v  SQ4p  1 4.040000e-01    2.443000e+00
  TC5v  TQ4p  1 4.110000e-01    3.446000e+00
  TC4v   Q4p  1 4.010000e-01    1.215000e+00
  TC4v  SQ4p  1 4.090000e-01    2.234000e+00
  TC4v  TQ4p  1 4.240000e-01    3.057000e+00
  TC3v   Q4p  1 4.040000e-01    1.013000e+00
  TC3v  SQ4p  1 4.230000e-01    1.869000e+00
  TC3v  TQ4p  1 4.380000e-01    2.488000e+00
  TC2v   Q4p  1 5.240000e-01    7.410000e-01
  TC2v  SQ4p  1 5.880000e-01    1.271000e+00
  TC2v  TQ4p  1 5.990000e-01    1.643000e+00
  TC1v   Q4p  1 5.240000e-01    6.980000e-01
  TC1v  SQ4p  1 5.880000e-01    1.077000e+00
  TC1v  TQ4p  1 5.990000e-01    1.251000e+00
  TX4v   Q4p  1 3.950000e-01    1.969000e+00
  TX4v  SQ4p  1 3.780000e-01    3.034000e+00
  TX4v  TQ4p  1 3.660000e-01    4.288000e+00
  TX3v   Q4p  1 3.980000e-01    1.732000e+00
  TX3v  SQ4p  1 3.940000e-01    2.737000e+00
  TX3v  TQ4p  1 3.850000e-01    3.889000e+00
  TX2v   Q4p  1 3.990000e-01    1.429000e+00
  TX2v  SQ4p  1 4.040000e-01    2.378000e+00
  TX2v  TQ4p  1 4.110000e-01    3.316000e+00
  TX1v   Q4p  1 4.010000e-01    1.168000e+00
  TX1v  SQ4p  1 4.090000e-01    1.998000e+00
  TX1v  TQ4p  1 4.240000e-01    2.591000e+00
  TC6e   Q4p  1 3.950000e-01    2.785000e+00
  TC6e  SQ4p  1 3.650000e-01    3.672000e+00
  TC6e  TQ4p  1 3.400000e-01    5.456000e+00
  TC5e   Q4p  1 3.950000e-01    2.115000e+00
  TC5e  SQ4p  1 3.660000e-01    3.049000e+00
  TC5e  TQ4p  1 3.400000e-01    4.427000e+00
  TC4e   Q4p  1 3.950000e-01    1.906000e+00
  TC4e  SQ4p  1 3.780000e-01    2.698000e+00
  TC4e  TQ4p  1 3.660000e-01    3.577000e+00
  TC3e   Q4p  1 3.980000e-01    1.636000e+00
  TC3e  SQ4p  1 3.940000e-01    2.243000e+00
  TC3e  TQ4p  1 3.850000e-01    2.854000e+00
  TC2e   Q4p  1 4.040000e-01    9.760000e-01
  TC2e  SQ4p  1 4.230000e-01    1.688000e+00
  TC2e  TQ4p  1 4.240000e-01    2.221000e+00
  TC1e   Q4p  1 4.040000e-01    9.200000e-01
  TC1e  SQ4p  1 4.230000e-01    1.417000e+00
  TC1e  TQ4p  1 4.240000e-01    1.667000e+00
  TX4e   Q4p  1 3.950000e-01    2.609000e+00
  TX4e  SQ4p  1 3.650000e-01    3.550000e+00
  TX4e  TQ4p  1 3.400000e-01    5.379000e+00
  TX3e   Q4p  1 3.950000e-01    2.395000e+00
  TX3e  SQ4p  1 3.650000e-01    3.312000e+00
  TX3e  TQ4p  1 3.400000e-01    4.946000e+00
  TX2e   Q4p  1 3.950000e-01    2.102000e+00
  TX2e  SQ4p  1 3.660000e-01    2.978000e+00
  TX2e  TQ4p  1 3.400000e-01    4.270000e+00
  TX1e   Q4p  1 3.950000e-01    1.857000e+00
  TX1e  SQ4p  1 3.780000e-01    2.443000e+00
  TX1e  TQ4p  1 3.660000e-01    3.038000e+00
  TP6q   Q4p  1 3.950000e-01    5.679000e+00
  TP6q  SQ4p  1 3.650000e-01    7.104000e+00
  TP6q  TQ4p  1 3.400000e-01    9.238000e+00
  TP5q   Q4p  1 3.950000e-01    5.266000e+00
  TP5q  SQ4p  1 3.650000e-01    6.683000e+00
  TP5q  TQ4p  1 3.400000e-01    8.801000e+00
  TP4q   Q4p  1 3.950000e-01    5.252000e+00
  TP4q  SQ4p  1 3.650000e-01    6.604000e+00
  TP4q  TQ4p  1 3.400000e-01    8.627000e+00
  TP3q   Q4p  1 3.950000e-01    5.243000e+00
  TP3q  SQ4p  1 3.650000e-01    6.558000e+00
  TP3q  TQ4p  1 3.400000e-01    8.526000e+00
  TP2q   Q4p  1 3.950000e-01    4.907000e+00
  TP2q  SQ4p  1 3.650000e-01    6.236000e+00
  TP2q  TQ4p  1 3.400000e-01    8.185000e+00
  TP1q   Q4p  1 3.950000e-01    4.593000e+00
  TP1q  SQ4p  1 3.650000e-01    5.922000e+00
  TP1q  TQ4p  1 3.400000e-01    7.852000e+00
  TN6q   Q4p  1 3.950000e-01    4.588000e+00
  TN6q  SQ4p  1 3.650000e-01    5.895000e+00
  TN6q  TQ4p  1 3.400000e-01    7.792000e+00
  TN5q   Q4p  1 3.950000e-01    4.582000e+00
  TN5q  SQ4p  1 3.650000e-01    5.863000e+00
  TN5q  TQ4p  1 3.400000e-01    7.723000e+00
  TN4q   Q4p  1 3.950000e-01    4.255000e+00
  TN4q  SQ4p  1 3.650000e-01    5.536000e+00
  TN4q  TQ4p  1 3.400000e-01    7.391000e+00
  TN3q   Q4p  1 3.950000e-01    4.007000e+00
  TN3q  SQ4p  1 3.650000e-01    5.219000e+00
  TN3q  TQ4p  1 3.400000e-01    7.058000e+00
  TN2q   Q4p  1 3.950000e-01    3.996000e+00
  TN2q  SQ4p  1 3.650000e-01    5.158000e+00
  TN2q  TQ4p  1 3.400000e-01    6.923000e+00
  TN1q   Q4p  1 3.950000e-01    3.980000e+00
  TN1q  SQ4p  1 3.650000e-01    5.071000e+00
  TN1q  TQ4p  1 3.400000e-01    6.732000e+00
  TC6q   Q4p  1 3.950000e-01    3.225000e+00
  TC6q  SQ4p  1 3.650000e-01    4.132000e+00
  TC6q  TQ4p  1 3.400000e-01    5.716000e+00
  TC5q   Q4p  1 3.950000e-01    2.575000e+00
  TC5q  SQ4p  1 3.650000e-01    3.363000e+00
  TC5q  TQ4p  1 3.400000e-01    4.707000e+00
  TC4q   Q4p  1 3.950000e-01    2.346000e+00
  TC4q  SQ4p  1 3.650000e-01    3.043000e+00
  TC4q  TQ4p  1 3.400000e-01    4.074000e+00
  TC3q   Q4p  1 3.950000e-01    2.037000e+00
  TC3q  SQ4p  1 3.660000e-01    2.626000e+00
  TC3q  TQ4p  1 3.520000e-01    3.236000e+00
  TC2q   Q4p  1 3.990000e-01    1.328000e+00
  TC2q  SQ4p  1 4.040000e-01    1.870000e+00
  TC2q  TQ4p  1 4.110000e-01    2.291000e+00
  TC1q   Q4p  1 3.990000e-01    1.271000e+00
  TC1q  SQ4p  1 4.040000e-01    1.586000e+00
  TC1q  TQ4p  1 4.110000e-01    1.721000e+00
  TX4q   Q4p  1 3.950000e-01    2.999000e+00
  TX4q  SQ4p  1 3.650000e-01    3.980000e+00
  TX4q  TQ4p  1 3.400000e-01    5.629000e+00
  TX3q   Q4p  1 3.950000e-01    2.785000e+00
  TX3q  SQ4p  1 3.650000e-01    3.672000e+00
  TX3q  TQ4p  1 3.400000e-01    5.206000e+00
  TX2q   Q4p  1 3.950000e-01    2.562000e+00
  TX2q  SQ4p  1 3.650000e-01    3.292000e+00
  TX2q  TQ4p  1 3.400000e-01    4.550000e+00
  TX1q   Q4p  1 3.950000e-01    2.297000e+00
  TX1q  SQ4p  1 3.650000e-01    2.779000e+00
  TX1q  TQ4p  1 3.400000e-01    3.493000e+00
 TP6dq   Q4p  1 3.950000e-01    5.279000e+00
 TP6dq  SQ4p  1 3.650000e-01    6.754000e+00
 TP6dq  TQ4p  1 3.400000e-01    8.958000e+00
 TP5dq   Q4p  1 3.950000e-01    4.936000e+00
 TP5dq  SQ4p  1 3.650000e-01    6.393000e+00
 TP5dq  TQ4p  1 3.400000e-01    8.531000e+00
 TP4dq   Q4p  1 3.950000e-01    4.922000e+00
 TP4dq  SQ4p  1 3.650000e-01    6.314000e+00
 TP4dq  TQ4p  1 3.400000e-01    8.357000e+00
 TP3dq   Q4p  1 3.950000e-01    4.913000e+00
 TP3dq  SQ4p  1 3.650000e-01    6.268000e+00
 TP3dq  TQ4p  1 3.400000e-01    8.256000e+00
 TP2dq   Q4p  1 3.950000e-01    4.597000e+00
 TP2dq  SQ4p  1 3.650000e-01    5.946000e+00
 TP2dq  TQ4p  1 3.400000e-01    7.905000e+00
 TP1dq   Q4p  1 3.950000e-01    4.273000e+00
 TP1dq  SQ4p  1 3.650000e-01    5.632000e+00
 TP1dq  TQ4p  1 3.400000e-01    7.602000e+00
 TN6dq   Q4p  1 3.950000e-01    4.268000e+00
 TN6dq  SQ4p  1 3.650000e-01    5.605000e+00
 TN6dq  TQ4p  1 3.400000e-01    7.542000e+00
 TN5dq   Q4p  1 3.950000e-01    4.262000e+00
 TN5dq  SQ4p  1 3.650000e-01    5.573000e+00
 TN5dq  TQ4p  1 3.400000e-01    7.473000e+00
 TN4dq   Q4p  1 3.950000e-01    4.255000e+00
 TN4dq  SQ4p  1 3.650000e-01    5.536000e+00
 TN4dq  TQ4p  1 3.400000e-01    7.391000e+00
 TN3dq   Q4p  1 3.950000e-01    3.767000e+00
 TN3dq  SQ4p  1 3.650000e-01    4.949000e+00
 TN3dq  TQ4p  1 3.400000e-01    6.808000e+00
 TN2dq   Q4p  1 3.950000e-01    3.756000e+00
 TN2dq  SQ4p  1 3.650000e-01    4.888000e+00
 TN2dq  TQ4p  1 3.400000e-01    6.673000e+00
 TN1dq   Q4p  1 3.950000e-01    3.740000e+00
 TN1dq  SQ4p  1 3.650000e-01    4.801000e+00
 TN1dq  TQ4p  1 3.400000e-01    6.482000e+00
 TP6aq   Q4p  1 3.950000e-01    5.679000e+00
 TP6aq  SQ4p  1 3.650000e-01    7.104000e+00
 TP6aq  TQ4p  1 3.400000e-01    9.238000e+00
 TP5aq   Q4p  1 3.950000e-01    5.666000e+00
 TP5aq  SQ4p  1 3.650000e-01    7.033000e+00
 TP5aq  TQ4p  1 3.400000e-01    9.081000e+00
 TP4aq   Q4p  1 3.950000e-01    5.652000e+00
 TP4aq  SQ4p  1 3.650000e-01    6.954000e+00
 TP4aq  TQ4p  1 3.400000e-01    8.907000e+00
 TP3aq   Q4p  1 3.950000e-01    5.643000e+00
 TP3aq  SQ4p  1 3.650000e-01    6.908000e+00
 TP3aq  TQ4p  1 3.400000e-01    8.806000e+00
 TP2aq   Q4p  1 3.950000e-01    5.637000e+00
 TP2aq  SQ4p  1 3.650000e-01    6.876000e+00
 TP2aq  TQ4p  1 3.400000e-01    8.735000e+00
 TP1aq   Q4p  1 3.950000e-01    5.233000e+00
 TP1aq  SQ4p  1 3.650000e-01    6.502000e+00
 TP1aq  TQ4p  1 3.400000e-01    8.682000e+00
 TN6aq   Q4p  1 3.950000e-01    5.228000e+00
 TN6aq  SQ4p  1 3.650000e-01    6.475000e+00
 TN6aq  TQ4p  1 3.400000e-01    8.622000e+00
 TN5aq   Q4p  1 3.950000e-01    5.222000e+00
 TN5aq  SQ4p  1 3.650000e-01    6.443000e+00
 TN5aq  TQ4p  1 3.400000e-01    8.553000e+00
 TN4aq   Q4p  1 3.950000e-01    4.885000e+00
 TN4aq  SQ4p  1 3.650000e-01    6.116000e+00
 TN4aq  TQ4p  1 3.400000e-01    8.191000e+00
 TN3aq   Q4p  1 3.950000e-01    4.567000e+00
 TN3aq  SQ4p  1 3.650000e-01    5.779000e+00
 TN3aq  TQ4p  1 3.400000e-01    7.818000e+00
 TN2aq   Q4p  1 3.950000e-01    4.556000e+00
 TN2aq  SQ4p  1 3.650000e-01    5.718000e+00
 TN2aq  TQ4p  1 3.400000e-01    7.683000e+00
 TN1aq   Q4p  1 3.950000e-01    4.540000e+00
 TN1aq  SQ4p  1 3.650000e-01    5.631000e+00
 TN1aq  TQ4p  1 3.400000e-01    7.492000e+00
 TC6vq   Q4p  1 3.950000e-01    2.785000e+00
 TC6vq  SQ4p  1 3.650000e-01    3.672000e+00
 TC6vq  TQ4p  1 3.400000e-01    5.206000e+00
 TC5vq   Q4p  1 3.950000e-01    2.115000e+00
 TC5vq  SQ4p  1 3.660000e-01    3.049000e+00
 TC5vq  TQ4p  1 3.520000e-01    4.138000e+00
 TC4vq   Q4p  1 3.950000e-01    1.906000e+00
 TC4vq  SQ4p  1 3.780000e-01    2.698000e+00
 TC4vq  TQ4p  1 3.660000e-01    3.577000e+00
 TC3vq   Q4p  1 3.980000e-01    1.636000e+00
 TC3vq  SQ4p  1 3.940000e-01    2.243000e+00
 TC3vq  TQ4p  1 3.850000e-01    2.854000e+00
 TC2vq   Q4p  1 4.040000e-01    9.760000e-01
 TC2vq  SQ4p  1 4.230000e-01    1.688000e+00
 TC2vq  TQ4p  1 4.380000e-01    2.130000e+00
 TC1vq   Q4p  1 4.040000e-01    9.200000e-01
 TC1vq  SQ4p  1 4.230000e-01    1.417000e+00
 TC1vq  TQ4p  1 4.380000e-01    1.594000e+00
 TX4vq   Q4p  1 3.950000e-01    2.609000e+00
 TX4vq  SQ4p  1 3.650000e-01    3.550000e+00
 TX4vq  TQ4p  1 3.400000e-01    5.119000e+00
 TX3vq   Q4p  1 3.950000e-01    2.395000e+00
 TX3vq  SQ4p  1 3.650000e-01    3.312000e+00
 TX3vq  TQ4p  1 3.400000e-01    4.666000e+00
 TX2vq   Q4p  1 3.950000e-01    2.102000e+00
 TX2vq  SQ4p  1 3.660000e-01    2.978000e+00
 TX2vq  TQ4p  1 3.520000e-01    3.986000e+00
 TX1vq   Q4p  1 3.950000e-01    1.857000e+00
 TX1vq  SQ4p  1 3.780000e-01    2.443000e+00
 TX1vq  TQ4p  1 3.660000e-01    3.038000e+00
 TC6eq   Q4p  1 3.950000e-01    3.475000e+00
 TC6eq  SQ4p  1 3.650000e-01    4.392000e+00
 TC6eq  TQ4p  1 3.400000e-01    6.176000e+00
 TC5eq   Q4p  1 3.950000e-01    2.765000e+00
 TC5eq  SQ4p  1 3.650000e-01    3.563000e+00
 TC5eq  TQ4p  1 3.400000e-01    5.217000e+00
 TC4eq   Q4p  1 3.950000e-01    2.546000e+00
 TC4eq  SQ4p  1 3.650000e-01    3.203000e+00
 TC4eq  TQ4p  1 3.400000e-01    4.614000e+00
 TC3eq   Q4p  1 3.950000e-01    2.297000e+00
 TC3eq  SQ4p  1 3.650000e-01    2.779000e+00
 TC3eq  TQ4p  1 3.400000e-01    3.773000e+00
 TC2eq   Q4p  1 4.040000e-01    9.760000e-01
 TC2eq  SQ4p  1 4.230000e-01    1.688000e+00
 TC2eq  TQ4p  1 4.240000e-01    2.221000e+00
 TC1eq   Q4p  1 4.040000e-01    9.200000e-01
 TC1eq  SQ4p  1 4.230000e-01    1.417000e+00
 TC1eq  TQ4p  1 4.240000e-01    1.667000e+00
 TX4eq   Q4p  1 3.950000e-01    3.239000e+00
 TX4eq  SQ4p  1 3.650000e-01    4.210000e+00
 TX4eq  TQ4p  1 3.400000e-01    6.109000e+00
 TX3eq   Q4p  1 3.950000e-01    2.985000e+00
 TX3eq  SQ4p  1 3.650000e-01    3.902000e+00
 TX3eq  TQ4p  1 3.400000e-01    5.716000e+00
 TX2eq   Q4p  1 3.950000e-01    2.752000e+00
 TX2eq  SQ4p  1 3.650000e-01    3.492000e+00
 TX2eq  TQ4p  1 3.400000e-01    5.060000e+00
 TX1eq   Q4p  1 3.950000e-01    2.497000e+00
 TX1eq  SQ4p  1 3.650000e-01    2.939000e+00
 TX1eq  TQ4p  1 3.400000e-01    4.033000e+00
  TP6h   Q4p  1 3.950000e-01    4.639000e+00
  TP6h  SQ4p  1 3.650000e-01    6.174000e+00
  TP6h  TQ4p  1 3.400000e-01    8.408000e+00
  TP5h   Q4p  1 3.950000e-01    4.306000e+00
  TP5h  SQ4p  1 3.650000e-01    5.813000e+00
  TP5h  TQ4p  1 3.400000e-01    8.001000e+00
  TP4h   Q4p  1 3.950000e-01    4.292000e+00
  TP4h  SQ4p  1 3.650000e-01    5.734000e+00
  TP4h  TQ4p  1 3.400000e-01    7.827000e+00
  TP3h   Q4p  1 3.950000e-01    4.283000e+00
  TP3h  SQ4p  1 3.650000e-01    5.688000e+00
  TP3h  TQ4p  1 3.400000e-01    7.726000e+00
  TP2h   Q4p  1 3.950000e-01    4.037000e+00
  TP2h  SQ4p  1 3.650000e-01    5.386000e+00
  TP2h  TQ4p  1 3.400000e-01    7.425000e+00
  TP1h   Q4p  1 3.950000e-01    3.793000e+00
  TP1h  SQ4p  1 3.650000e-01    5.092000e+00
  TP1h  TQ4p  1 3.400000e-01    7.122000e+00
  TN6h   Q4p  1 3.950000e-01    3.788000e+00
  TN6h  SQ4p  1 3.650000e-01    5.065000e+00
  TN6h  TQ4p  1 3.400000e-01    7.062000e+00
  TN5h   Q4p  1 3.950000e-01    3.782000e+00
  TN5h  SQ4p  1 3.650000e-01    5.033000e+00
  TN5h  TQ4p  1 3.400000e-01    6.993000e+00
  TN4h   Q4p  1 3.950000e-01    3.535000e+00
  TN4h  SQ4p  1 3.650000e-01    4.726000e+00
  TN4h  TQ4p  1 3.400000e-01    6.671000e+00
  TN3h   Q4p  1 3.950000e-01    3.277000e+00
  TN3h  SQ4p  1 3.650000e-01    4.419000e+00
  TN3h  TQ4p  1 3.400000e-01    6.348000e+00
  TN2h   Q4p  1 3.950000e-01    3.266000e+00
  TN2h  SQ4p  1 3.650000e-01    4.358000e+00
  TN2h  TQ4p  1 3.400000e-01    6.213000e+00
  TN1h   Q4p  1 3.950000e-01    3.250000e+00
  TN1h  SQ4p  1 3.650000e-01    4.271000e+00
  TN1h  TQ4p  1 3.400000e-01    6.022000e+00
  TC6h   Q4p  1 3.950000e-01    2.595000e+00
  TC6h  SQ4p  1 3.650000e-01    3.472000e+00
  TC6h  TQ4p  1 3.400000e-01    4.946000e+00
  TC5h   Q4p  1 3.950000e-01    1.935000e+00
  TC5h  SQ4p  1 3.780000e-01    2.853000e+00
  TC5h  TQ4p  1 3.660000e-01    3.905000e+00
  TC4h   Q4p  1 3.980000e-01    1.684000e+00
  TC4h  SQ4p  1 3.940000e-01    2.488000e+00
  TC4h  TQ4p  1 3.850000e-01    3.367000e+00
  TC3h   Q4p  1 3.990000e-01    1.366000e+00
  TC3h  SQ4p  1 4.040000e-01    2.059000e+00
  TC3h  TQ4p  1 4.110000e-01    2.673000e+00
  TC2h   Q4p  1 4.650000e-01    8.300000e-01
  TC2h  SQ4p  1 4.840000e-01    1.508000e+00
  TC2h  TQ4p  1 5.050000e-01    1.893000e+00
  TC1h   Q4p  1 4.650000e-01    7.810000e-01
  TC1h  SQ4p  1 4.840000e-01    1.271000e+00
  TC1h  TQ4p  1 5.050000e-01    1.428000e+00
  TX4h   Q4p  1 3.950000e-01    2.409000e+00
  TX4h  SQ4p  1 3.650000e-01    3.390000e+00
  TX4h  TQ4p  1 3.400000e-01    4.839000e+00
  TX3h   Q4p  1 3.950000e-01    2.135000e+00
  TX3h  SQ4p  1 3.660000e-01    3.157000e+00
  TX3h  TQ4p  1 3.520000e-01    4.368000e+00
  TX2h   Q4p  1 3.950000e-01    1.922000e+00
  TX2h  SQ4p  1 3.780000e-01    2.784000e+00
  TX2h  TQ4p  1 3.660000e-01    3.759000e+00
  TX1h   Q4p  1 3.980000e-01    1.636000e+00
  TX1h  SQ4p  1 3.940000e-01    2.243000e+00
  TX1h  TQ4p  1 3.850000e-01    2.854000e+00
 TP6dh   Q4p  1 3.950000e-01    4.319000e+00
 TP6dh  SQ4p  1 3.650000e-01    5.884000e+00
 TP6dh  TQ4p  1 3.400000e-01    8.158000e+00
 TP5dh   Q4p  1 3.950000e-01    4.066000e+00
 TP5dh  SQ4p  1 3.650000e-01    5.543000e+00
 TP5dh  TQ4p  1 3.400000e-01    7.771000e+00
 TP4dh   Q4p  1 3.950000e-01    4.052000e+00
 TP4dh  SQ4p  1 3.650000e-01    5.464000e+00
 TP4dh  TQ4p  1 3.400000e-01    7.597000e+00
 TP3dh   Q4p  1 3.950000e-01    4.043000e+00
 TP3dh  SQ4p  1 3.650000e-01    5.418000e+00
 TP3dh  TQ4p  1 3.400000e-01    7.496000e+00
 TP2dh   Q4p  1 3.950000e-01    3.797000e+00
 TP2dh  SQ4p  1 3.650000e-01    5.116000e+00
 TP2dh  TQ4p  1 3.400000e-01    7.175000e+00
 TP1dh   Q4p  1 3.950000e-01    3.553000e+00
 TP1dh  SQ4p  1 3.650000e-01    4.822000e+00
 TP1dh  TQ4p  1 3.400000e-01    6.882000e+00
 TN6dh   Q4p  1 3.950000e-01    3.548000e+00
 TN6dh  SQ4p  1 3.650000e-01    4.795000e+00
 TN6dh  TQ4p  1 3.400000e-01    6.822000e+00
 TN5dh   Q4p  1 3.950000e-01    3.542000e+00
 TN5dh  SQ4p  1 3.650000e-01    4.763000e+00
 TN5dh  TQ4p  1 3.400000e-01    6.753000e+00
 TN4dh   Q4p  1 3.950000e-01    3.535000e+00
 TN4dh  SQ4p  1 3.650000e-01    4.726000e+00
 TN4dh  TQ4p  1 3.400000e-01    6.671000e+00
 TN3dh   Q4p  1 3.950000e-01    3.037000e+00
 TN3dh  SQ4p  1 3.650000e-01    4.189000e+00
 TN3dh  TQ4p  1 3.400000e-01    6.088000e+00
 TN2dh   Q4p  1 3.950000e-01    3.026000e+00
 TN2dh  SQ4p  1 3.650000e-01    4.128000e+00
 TN2dh  TQ4p  1 3.400000e-01    5.953000e+00
 TN1dh   Q4p  1 3.950000e-01    3.010000e+00
 TN1dh  SQ4p  1 3.650000e-01    4.041000e+00
 TN1dh  TQ4p  1 3.400000e-01    5.762000e+00
 TP6ah   Q4p  1 3.950000e-01    5.279000e+00
 TP6ah  SQ4p  1 3.650000e-01    6.754000e+00
 TP6ah  TQ4p  1 3.400000e-01    9.238000e+00
 TP5ah   Q4p  1 3.950000e-01    4.936000e+00
 TP5ah  SQ4p  1 3.650000e-01    6.393000e+00
 TP5ah  TQ4p  1 3.400000e-01    8.801000e+00
 TP4ah   Q4p  1 3.950000e-01    4.922000e+00
 TP4ah  SQ4p  1 3.650000e-01    6.314000e+00
 TP4ah  TQ4p  1 3.400000e-01    8.627000e+00
 TP3ah   Q4p  1 3.950000e-01    4.913000e+00
 TP3ah  SQ4p  1 3.650000e-01    6.268000e+00
 TP3ah  TQ4p  1 3.400000e-01    8.526000e+00
 TP2ah   Q4p  1 3.950000e-01    4.597000e+00
 TP2ah  SQ4p  1 3.650000e-01    5.946000e+00
 TP2ah  TQ4p  1 3.400000e-01    8.185000e+00
 TP1ah   Q4p  1 3.950000e-01    4.273000e+00
 TP1ah  SQ4p  1 3.650000e-01    5.632000e+00
 TP1ah  TQ4p  1 3.400000e-01    7.852000e+00
 TN6ah   Q4p  1 3.950000e-01    4.268000e+00
 TN6ah  SQ4p  1 3.650000e-01    5.605000e+00
 TN6ah  TQ4p  1 3.400000e-01    7.792000e+00
 TN5ah   Q4p  1 3.950000e-01    4.262000e+00
 TN5ah  SQ4p  1 3.650000e-01    5.573000e+00
 TN5ah  TQ4p  1 3.400000e-01    7.723000e+00
 TN4ah   Q4p  1 3.950000e-01    4.015000e+00
 TN4ah  SQ4p  1 3.650000e-01    5.266000e+00
 TN4ah  TQ4p  1 3.400000e-01    7.391000e+00
 TN3ah   Q4p  1 3.950000e-01    3.767000e+00
 TN3ah  SQ4p  1 3.650000e-01    4.949000e+00
 TN3ah  TQ4p  1 3.400000e-01    7.058000e+00
 TN2ah   Q4p  1 3.950000e-01    3.756000e+00
 TN2ah  SQ4p  1 3.650000e-01    4.888000e+00
 TN2ah  TQ4p  1 3.400000e-01    6.923000e+00
 TN1ah   Q4p  1 3.950000e-01    3.740000e+00
 TN1ah  SQ4p  1 3.650000e-01    4.801000e+00
 TN1ah  TQ4p  1 3.400000e-01    6.732000e+00
 TC6vh   Q4p  1 3.950000e-01    2.135000e+00
 TC6vh  SQ4p  1 3.660000e-01    3.157000e+00
 TC6vh  TQ4p  1 3.520000e-01    4.368000e+00
 TC5vh   Q4p  1 3.990000e-01    1.442000e+00
 TC5vh  SQ4p  1 4.040000e-01    2.443000e+00
 TC5vh  TQ4p  1 4.110000e-01    3.446000e+00
 TC4vh   Q4p  1 4.010000e-01    1.215000e+00
 TC4vh  SQ4p  1 4.090000e-01    2.234000e+00
 TC4vh  TQ4p  1 4.240000e-01    3.057000e+00
 TC3vh   Q4p  1 4.040000e-01    1.013000e+00
 TC3vh  SQ4p  1 4.230000e-01    1.869000e+00
 TC3vh  TQ4p  1 4.380000e-01    2.488000e+00
 TC2vh   Q4p  1 5.240000e-01    7.410000e-01
 TC2vh  SQ4p  1 5.880000e-01    1.271000e+00
 TC2vh  TQ4p  1 5.990000e-01    1.643000e+00
 TC1vh   Q4p  1 5.240000e-01    6.980000e-01
 TC1vh  SQ4p  1 5.880000e-01    1.077000e+00
 TC1vh  TQ4p  1 5.990000e-01    1.251000e+00
 TX4vh   Q4p  1 3.950000e-01    1.969000e+00
 TX4vh  SQ4p  1 3.780000e-01    3.034000e+00
 TX4vh  TQ4p  1 3.660000e-01    4.288000e+00
 TX3vh   Q4p  1 3.980000e-01    1.732000e+00
 TX3vh  SQ4p  1 3.940000e-01    2.737000e+00
 TX3vh  TQ4p  1 3.850000e-01    3.889000e+00
 TX2vh   Q4p  1 3.990000e-01    1.429000e+00
 TX2vh  SQ4p  1 4.040000e-01    2.378000e+00
 TX2vh  TQ4p  1 4.110000e-01    3.316000e+00
 TX1vh   Q4p  1 4.010000e-01    1.168000e+00
 TX1vh  SQ4p  1 4.090000e-01    1.998000e+00
 TX1vh  TQ4p  1 4.240000e-01    2.591000e+00
 TC6eh   Q4p  1 3.950000e-01    2.785000e+00
 TC6eh  SQ4p  1 3.650000e-01    3.672000e+00
 TC6eh  TQ4p  1 3.400000e-01    5.456000e+00
 TC5eh   Q4p  1 3.950000e-01    2.115000e+00
 TC5eh  SQ4p  1 3.660000e-01    3.049000e+00
 TC5eh  TQ4p  1 3.400000e-01    4.427000e+00
 TC4eh   Q4p  1 3.950000e-01    1.906000e+00
 TC4eh  SQ4p  1 3.780000e-01    2.698000e+00
 TC4eh  TQ4p  1 3.660000e-01    3.577000e+00
 TC3eh   Q4p  1 3.980000e-01    1.636000e+00
 TC3eh  SQ4p  1 3.940000e-01    2.243000e+00
 TC3eh  TQ4p  1 3.850000e-01    2.854000e+00
 TC2eh   Q4p  1 4.040000e-01    9.760000e-01
 TC2eh  SQ4p  1 4.230000e-01    1.688000e+00
 TC2eh  TQ4p  1 4.240000e-01    2.221000e+00
 TC1eh   Q4p  1 4.040000e-01    9.200000e-01
 TC1eh  SQ4p  1 4.230000e-01    1.417000e+00
 TC1eh  TQ4p  1 4.240000e-01    1.667000e+00
 TX4eh   Q4p  1 3.950000e-01    2.609000e+00
 TX4eh  SQ4p  1 3.650000e-01    3.550000e+00
 TX4eh  TQ4p  1 3.400000e-01    5.379000e+00
 TX3eh   Q4p  1 3.950000e-01    2.395000e+00
 TX3eh  SQ4p  1 3.650000e-01    3.312000e+00
 TX3eh  TQ4p  1 3.400000e-01    4.946000e+00
 TX2eh   Q4p  1 3.950000e-01    2.102000e+00
 TX2eh  SQ4p  1 3.660000e-01    2.978000e+00
 TX2eh  TQ4p  1 3.400000e-01    4.270000e+00
 TX1eh   Q4p  1 3.950000e-01    1.857000e+00
 TX1eh  SQ4p  1 3.780000e-01    2.443000e+00
 TX1eh  TQ4p  1 3.660000e-01    3.038000e+00
  TP6r   Q4p  1 3.950000e-01    4.639000e+00
  TP6r  SQ4p  1 3.650000e-01    6.174000e+00
  TP6r  TQ4p  1 3.400000e-01    8.408000e+00
  TP5r   Q4p  1 3.950000e-01    4.306000e+00
  TP5r  SQ4p  1 3.650000e-01    5.813000e+00
  TP5r  TQ4p  1 3.400000e-01    8.001000e+00
  TP4r   Q4p  1 3.950000e-01    4.292000e+00
  TP4r  SQ4p  1 3.650000e-01    5.734000e+00
  TP4r  TQ4p  1 3.400000e-01    7.827000e+00
  TP3r   Q4p  1 3.950000e-01    4.283000e+00
  TP3r  SQ4p  1 3.650000e-01    5.688000e+00
  TP3r  TQ4p  1 3.400000e-01    7.726000e+00
  TP2r   Q4p  1 3.950000e-01    4.037000e+00
  TP2r  SQ4p  1 3.650000e-01    5.386000e+00
  TP2r  TQ4p  1 3.400000e-01    7.425000e+00
  TP1r   Q4p  1 3.950000e-01    3.793000e+00
  TP1r  SQ4p  1 3.650000e-01    5.092000e+00
  TP1r  TQ4p  1 3.400000e-01    7.122000e+00
  TN6r   Q4p  1 3.950000e-01    3.788000e+00
  TN6r  SQ4p  1 3.650000e-01    5.065000e+00
  TN6r  TQ4p  1 3.400000e-01    7.062000e+00
  TN5r   Q4p  1 3.950000e-01    3.782000e+00
  TN5r  SQ4p  1 3.650000e-01    5.033000e+00
  TN5r  TQ4p  1 3.400000e-01    6.993000e+00
  TN4r   Q4p  1 3.950000e-01    3.535000e+00
  TN4r  SQ4p  1 3.650000e-01    4.726000e+00
  TN4r  TQ4p  1 3.400000e-01    6.671000e+00
  TN3r   Q4p  1 3.950000e-01    3.277000e+00
  TN3r  SQ4p  1 3.650000e-01    4.419000e+00
  TN3r  TQ4p  1 3.400000e-01    6.348000e+00
  TN2r   Q4p  1 3.950000e-01    3.266000e+00
  TN2r  SQ4p  1 3.650000e-01    4.358000e+00
  TN2r  TQ4p  1 3.400000e-01    6.213000e+00
  TN1r   Q4p  1 3.950000e-01    3.250000e+00
  TN1r  SQ4p  1 3.650000e-01    4.271000e+00
  TN1r  TQ4p  1 3.400000e-01    6.022000e+00
  TC6r   Q4p  1 3.950000e-01    2.595000e+00
  TC6r  SQ4p  1 3.650000e-01    3.472000e+00
  TC6r  TQ4p  1 3.400000e-01    4.946000e+00
  TC5r   Q4p  1 3.950000e-01    1.935000e+00
  TC5r  SQ4p  1 3.780000e-01    2.853000e+00
  TC5r  TQ4p  1 3.660000e-01    3.905000e+00
  TC4r   Q4p  1 3.980000e-01    1.684000e+00
  TC4r  SQ4p  1 3.940000e-01    2.488000e+00
  TC4r  TQ4p  1 3.850000e-01    3.367000e+00
  TC3r   Q4p  1 3.990000e-01    1.366000e+00
  TC3r  SQ4p  1 4.040000e-01    2.059000e+00
  TC3r  TQ4p  1 4.110000e-01    2.673000e+00
  TC2r   Q4p  1 4.650000e-01    8.300000e-01
  TC2r  SQ4p  1 4.840000e-01    1.508000e+00
  TC2r  TQ4p  1 5.050000e-01    1.893000e+00
  TC1r   Q4p  1 4.650000e-01    7.810000e-01
  TC1r  SQ4p  1 4.840000e-01    1.271000e+00
  TC1r  TQ4p  1 5.050000e-01    1.428000e+00
  TX4r   Q4p  1 3.950000e-01    2.409000e+00
  TX4r  SQ4p  1 3.650000e-01    3.390000e+00
  TX4r  TQ4p  1 3.400000e-01    4.839000e+00
  TX3r   Q4p  1 3.950000e-01    2.135000e+00
  TX3r  SQ4p  1 3.660000e-01    3.157000e+00
  TX3r  TQ4p  1 3.520000e-01    4.368000e+00
  TX2r   Q4p  1 3.950000e-01    1.922000e+00
  TX2r  SQ4p  1 3.780000e-01    2.784000e+00
  TX2r  TQ4p  1 3.660000e-01    3.759000e+00
  TX1r   Q4p  1 3.980000e-01    1.636000e+00
  TX1r  SQ4p  1 3.940000e-01    2.243000e+00
  TX1r  TQ4p  1 3.850000e-01    2.854000e+00
 TP6dr   Q4p  1 3.950000e-01    4.319000e+00
 TP6dr  SQ4p  1 3.650000e-01    5.884000e+00
 TP6dr  TQ4p  1 3.400000e-01    8.158000e+00
 TP5dr   Q4p  1 3.950000e-01    4.066000e+00
 TP5dr  SQ4p  1 3.650000e-01    5.543000e+00
 TP5dr  TQ4p  1 3.400000e-01    7.771000e+00
 TP4dr   Q4p  1 3.950000e-01    4.052000e+00
 TP4dr  SQ4p  1 3.650000e-01    5.464000e+00
 TP4dr  TQ4p  1 3.400000e-01    7.597000e+00
 TP3dr   Q4p  1 3.950000e-01    4.043000e+00
 TP3dr  SQ4p  1 3.650000e-01    5.418000e+00
 TP3dr  TQ4p  1 3.400000e-01    7.496000e+00
 TP2dr   Q4p  1 3.950000e-01    3.797000e+00
 TP2dr  SQ4p  1 3.650000e-01    5.116000e+00
 TP2dr  TQ4p  1 3.400000e-01    7.175000e+00
 TP1dr   Q4p  1 3.950000e-01    3.553000e+00
 TP1dr  SQ4p  1 3.650000e-01    4.822000e+00
 TP1dr  TQ4p  1 3.400000e-01    6.882000e+00
 TN6dr   Q4p  1 3.950000e-01    3.548000e+00
 TN6dr  SQ4p  1 3.650000e-01    4.795000e+00
 TN6dr  TQ4p  1 3.400000e-01    6.822000e+00
 TN5dr   Q4p  1 3.950000e-01    3.542000e+00
 TN5dr  SQ4p  1 3.650000e-01    4.763000e+00
 TN5dr  TQ4p  1 3.400000e-01    6.753000e+00
 TN4dr   Q4p  1 3.950000e-01    3.535000e+00
 TN4dr  SQ4p  1 3.650000e-01    4.726000e+00
 TN4dr  TQ4p  1 3.400000e-01    6.671000e+00
 TN3dr   Q4p  1 3.950000e-01    3.037000e+00
 TN3dr  SQ4p  1 3.650000e-01    4.189000e+00
 TN3dr  TQ4p  1 3.400000e-01    6.088000e+00
 TN2dr   Q4p  1 3.950000e-01    3.026000e+00
 TN2dr  SQ4p  1 3.650000e-01    4.128000e+00
 TN2dr  TQ4p  1 3.400000e-01    5.953000e+00
 TN1dr   Q4p  1 3.950000e-01    3.010000e+00
 TN1dr  SQ4p  1 3.650000e-01    4.041000e+00
 TN1dr  TQ4p  1 3.400000e-01    5.762000e+00
 TP6ar   Q4p  1 3.950000e-01    5.279000e+00
 TP6ar  SQ4p  1 3.650000e-01    6.754000e+00
 TP6ar  TQ4p  1 3.400000e-01    9.238000e+00
 TP5ar   Q4p  1 3.950000e-01    4.936000e+00
 TP5ar  SQ4p  1 3.650000e-01    6.393000e+00
 TP5ar  TQ4p  1 3.400000e-01    8.801000e+00
 TP4ar   Q4p  1 3.950000e-01    4.922000e+00
 TP4ar  SQ4p  1 3.650000e-01    6.314000e+00
 TP4ar  TQ4p  1 3.400000e-01    8.627000e+00
 TP3ar   Q4p  1 3.950000e-01    4.913000e+00
 TP3ar  SQ4p  1 3.650000e-01    6.268000e+00
 TP3ar  TQ4p  1 3.400000e-01    8.526000e+00
 TP2ar   Q4p  1 3.950000e-01    4.597000e+00
 TP2ar  SQ4p  1 3.650000e-01    5.946000e+00
 TP2ar  TQ4p  1 3.400000e-01    8.185000e+00
 TP1ar   Q4p  1 3.950000e-01    4.273000e+00
 TP1ar  SQ4p  1 3.650000e-01    5.632000e+00
 TP1ar  TQ4p  1 3.400000e-01    7.852000e+00
 TN6ar   Q4p  1 3.950000e-01    4.268000e+00
 TN6ar  SQ4p  1 3.650000e-01    5.605000e+00
 TN6ar  TQ4p  1 3.400000e-01    7.792000e+00
 TN5ar   Q4p  1 3.950000e-01    4.262000e+00
 TN5ar  SQ4p  1 3.650000e-01    5.573000e+00
 TN5ar  TQ4p  1 3.400000e-01    7.723000e+00
 TN4ar   Q4p  1 3.950000e-01    4.015000e+00
 TN4ar  SQ4p  1 3.650000e-01    5.266000e+00
 TN4ar  TQ4p  1 3.400000e-01    7.391000e+00
 TN3ar   Q4p  1 3.950000e-01    3.767000e+00
 TN3ar  SQ4p  1 3.650000e-01    4.949000e+00
 TN3ar  TQ4p  1 3.400000e-01    7.058000e+00
 TN2ar   Q4p  1 3.950000e-01    3.756000e+00
 TN2ar  SQ4p  1 3.650000e-01    4.888000e+00
 TN2ar  TQ4p  1 3.400000e-01    6.923000e+00
 TN1ar   Q4p  1 3.950000e-01    3.740000e+00
 TN1ar  SQ4p  1 3.650000e-01    4.801000e+00
 TN1ar  TQ4p  1 3.400000e-01    6.732000e+00
 TC6vr   Q4p  1 3.950000e-01    2.135000e+00
 TC6vr  SQ4p  1 3.660000e-01    3.157000e+00
 TC6vr  TQ4p  1 3.520000e-01    4.368000e+00
 TC5vr   Q4p  1 3.990000e-01    1.442000e+00
 TC5vr  SQ4p  1 4.040000e-01    2.443000e+00
 TC5vr  TQ4p  1 4.110000e-01    3.446000e+00
 TC4vr   Q4p  1 4.010000e-01    1.215000e+00
 TC4vr  SQ4p  1 4.090000e-01    2.234000e+00
 TC4vr  TQ4p  1 4.240000e-01    3.057000e+00
 TC3vr   Q4p  1 4.040000e-01    1.013000e+00
 TC3vr  SQ4p  1 4.230000e-01    1.869000e+00
 TC3vr  TQ4p  1 4.380000e-01    2.488000e+00
 TC2vr   Q4p  1 5.240000e-01    7.410000e-01
 TC2vr  SQ4p  1 5.880000e-01    1.271000e+00
 TC2vr  TQ4p  1 5.990000e-01    1.643000e+00
 TC1vr   Q4p  1 5.240000e-01    6.980000e-01
 TC1vr  SQ4p  1 5.880000e-01    1.077000e+00
 TC1vr  TQ4p  1 5.990000e-01    1.251000e+00
 TX4vr   Q4p  1 3.950000e-01    1.969000e+00
 TX4vr  SQ4p  1 3.780000e-01    3.034000e+00
 TX4vr  TQ4p  1 3.660000e-01    4.288000e+00
 TX3vr   Q4p  1 3.980000e-01    1.732000e+00
 TX3vr  SQ4p  1 3.940000e-01    2.737000e+00
 TX3vr  TQ4p  1 3.850000e-01    3.889000e+00
 TX2vr   Q4p  1 3.990000e-01    1.429000e+00
 TX2vr  SQ4p  1 4.040000e-01    2.378000e+00
 TX2vr  TQ4p  1 4.110000e-01    3.316000e+00
 TX1vr   Q4p  1 4.010000e-01    1.168000e+00
 TX1vr  SQ4p  1 4.090000e-01    1.998000e+00
 TX1vr  TQ4p  1 4.240000e-01    2.591000e+00
 TC6er   Q4p  1 3.950000e-01    2.785000e+00
 TC6er  SQ4p  1 3.650000e-01    3.672000e+00
 TC6er  TQ4p  1 3.400000e-01    5.456000e+00
 TC5er   Q4p  1 3.950000e-01    2.115000e+00
 TC5er  SQ4p  1 3.660000e-01    3.049000e+00
 TC5er  TQ4p  1 3.400000e-01    4.427000e+00
 TC4er   Q4p  1 3.950000e-01    1.906000e+00
 TC4er  SQ4p  1 3.780000e-01    2.698000e+00
 TC4er  TQ4p  1 3.660000e-01    3.577000e+00
 TC3er   Q4p  1 3.980000e-01    1.636000e+00
 TC3er  SQ4p  1 3.940000e-01    2.243000e+00
 TC3er  TQ4p  1 3.850000e-01    2.854000e+00
 TC2er   Q4p  1 4.040000e-01    9.760000e-01
 TC2er  SQ4p  1 4.230000e-01    1.688000e+00
 TC2er  TQ4p  1 4.240000e-01    2.221000e+00
 TC1er   Q4p  1 4.040000e-01    9.200000e-01
 TC1er  SQ4p  1 4.230000e-01    1.417000e+00
 TC1er  TQ4p  1 4.240000e-01    1.667000e+00
 TX4er   Q4p  1 3.950000e-01    2.609000e+00
 TX4er  SQ4p  1 3.650000e-01    3.550000e+00
 TX4er  TQ4p  1 3.400000e-01    5.379000e+00
 TX3er   Q4p  1 3.950000e-01    2.395000e+00
 TX3er  SQ4p  1 3.650000e-01    3.312000e+00
 TX3er  TQ4p  1 3.400000e-01    4.946000e+00
 TX2er   Q4p  1 3.950000e-01    2.102000e+00
 TX2er  SQ4p  1 3.660000e-01    2.978000e+00
 TX2er  TQ4p  1 3.400000e-01    4.270000e+00
 TX1er   Q4p  1 3.950000e-01    1.857000e+00
 TX1er  SQ4p  1 3.780000e-01    2.443000e+00
 TX1er  TQ4p  1 3.660000e-01    3.038000e+00
    P6   Q4n  1 4.700000e-01    5.969000e+00
    P6  SQ4n  1 4.300000e-01    7.588000e+00
    P6  TQ4n  1 3.950000e-01    1.070900e+01
    P5   Q4n  1 4.700000e-01    5.701000e+00
    P5  SQ4n  1 4.300000e-01    7.281000e+00
    P5  TQ4n  1 3.950000e-01    1.024600e+01
    P4   Q4n  1 4.700000e-01    5.680000e+00
    P4  SQ4n  1 4.300000e-01    7.204000e+00
    P4  TQ4n  1 3.950000e-01    1.006600e+01
    P3   Q4n  1 4.700000e-01    5.667000e+00
    P3  SQ4n  1 4.300000e-01    7.156000e+00
    P3  TQ4n  1 3.950000e-01    9.956000e+00
    P2   Q4n  1 4.700000e-01    5.398000e+00
    P2  SQ4n  1 4.300000e-01    6.842000e+00
    P2  TQ4n  1 3.950000e-01    9.558000e+00
    P1   Q4n  1 4.700000e-01    5.141000e+00
    P1  SQ4n  1 4.300000e-01    6.586000e+00
    P1  TQ4n  1 3.950000e-01    9.258000e+00
    N6   Q4n  1 4.700000e-01    5.133000e+00
    N6  SQ4n  1 4.300000e-01    6.556000e+00
    N6  TQ4n  1 3.950000e-01    9.189000e+00
    N5   Q4n  1 4.700000e-01    5.123000e+00
    N5  SQ4n  1 4.300000e-01    6.521000e+00
    N5  TQ4n  1 3.950000e-01    9.108000e+00
    N4   Q4n  1 4.700000e-01    4.881000e+00
    N4  SQ4n  1 4.300000e-01    6.279000e+00
    N4  TQ4n  1 3.950000e-01    8.770000e+00
    N3   Q4n  1 4.700000e-01    4.677000e+00
    N3  SQ4n  1 4.300000e-01    6.025000e+00
    N3  TQ4n  1 3.950000e-01    8.405000e+00
    N2   Q4n  1 4.700000e-01    4.657000e+00
    N2  SQ4n  1 4.300000e-01    5.954000e+00
    N2  TQ4n  1 3.950000e-01    8.240000e+00
    N1   Q4n  1 4.700000e-01    4.629000e+00
    N1  SQ4n  1 4.300000e-01    5.850000e+00
    N1  TQ4n  1 3.950000e-01    8.001000e+00
    C6   Q4n  1 4.700000e-01    3.763000e+00
    C6  SQ4n  1 4.300000e-01    4.684000e+00
    C6  TQ4n  1 3.950000e-01    6.536000e+00
    C5   Q4n  1 4.700000e-01    3.278000e+00
    C5  SQ4n  1 4.300000e-01    3.943000e+00
    C5  TQ4n  1 3.980000e-01    5.543000e+00
    C4   Q4n  1 4.700000e-01    3.055000e+00
    C4  SQ4n  1 4.300000e-01    3.519000e+00
    C4  TQ4n  1 3.990000e-01    4.819000e+00
    C3   Q4n  1 4.700000e-01    2.787000e+00
    C3  SQ4n  1 4.300000e-01    2.999000e+00
    C3  TQ4n  1 4.010000e-01    3.874000e+00
    C2   Q4n  1 5.700000e-01    2.229000e+00
    C2  SQ4n  1 5.140000e-01    1.958000e+00
    C2  TQ4n  1 5.110000e-01    2.472000e+00
    C1   Q4n  1 5.700000e-01    2.143000e+00
    C1  SQ4n  1 5.140000e-01    1.639000e+00
    C1  TQ4n  1 5.110000e-01    1.790000e+00
    X4   Q4n  1 4.700000e-01    3.619000e+00
    X4  SQ4n  1 4.300000e-01    4.538000e+00
    X4  TQ4n  1 3.950000e-01    6.494000e+00
    X3   Q4n  1 4.700000e-01    3.483000e+00
    X3  SQ4n  1 4.300000e-01    4.234000e+00
    X3  TQ4n  1 3.950000e-01    6.096000e+00
    X2   Q4n  1 4.700000e-01    3.254000e+00
    X2  SQ4n  1 4.300000e-01    3.857000e+00
    X2  TQ4n  1 3.980000e-01    5.344000e+00
    X1   Q4n  1 4.700000e-01    2.967000e+00
    X1  SQ4n  1 4.300000e-01    3.199000e+00
    X1  TQ4n  1 3.990000e-01    4.085000e+00
   P6d   Q4n  1 4.700000e-01    5.969000e+00
   P6d  SQ4n  1 4.300000e-01    7.588000e+00
   P6d  TQ4n  1 3.950000e-01    1.103900e+01
   P5d   Q4n  1 4.700000e-01    5.701000e+00
   P5d  SQ4n  1 4.300000e-01    7.281000e+00
   P5d  TQ4n  1 3.950000e-01    1.055600e+01
   P4d   Q4n  1 4.700000e-01    5.680000e+00
   P4d  SQ4n  1 4.300000e-01    7.204000e+00
   P4d  TQ4n  1 3.950000e-01    1.037600e+01
   P3d   Q4n  1 4.700000e-01    5.667000e+00
   P3d  SQ4n  1 4.300000e-01    7.156000e+00
   P3d  TQ4n  1 3.950000e-01    1.026600e+01
   P2d   Q4n  1 4.700000e-01    5.398000e+00
   P2d  SQ4n  1 4.300000e-01    6.842000e+00
   P2d  TQ4n  1 3.950000e-01    9.878000e+00
   P1d   Q4n  1 4.700000e-01    5.141000e+00
   P1d  SQ4n  1 4.300000e-01    6.586000e+00
   P1d  TQ4n  1 3.950000e-01    9.498000e+00
   N6d   Q4n  1 4.700000e-01    5.133000e+00
   N6d  SQ4n  1 4.300000e-01    6.556000e+00
   N6d  TQ4n  1 3.950000e-01    9.429000e+00
   N5d   Q4n  1 4.700000e-01    5.123000e+00
   N5d  SQ4n  1 4.300000e-01    6.521000e+00
   N5d  TQ4n  1 3.950000e-01    9.348000e+00
   N4d   Q4n  1 4.700000e-01    4.881000e+00
   N4d  SQ4n  1 4.300000e-01    6.279000e+00
   N4d  TQ4n  1 3.950000e-01    9.010000e+00
   N3d   Q4n  1 4.700000e-01    4.677000e+00
   N3d  SQ4n  1 4.300000e-01    6.025000e+00
   N3d  TQ4n  1 3.950000e-01    8.645000e+00
   N2d   Q4n  1 4.700000e-01    4.657000e+00
   N2d  SQ4n  1 4.300000e-01    5.954000e+00
   N2d  TQ4n  1 3.950000e-01    8.480000e+00
   N1d   Q4n  1 4.700000e-01    4.629000e+00
   N1d  SQ4n  1 4.300000e-01    5.850000e+00
   N1d  TQ4n  1 3.950000e-01    8.241000e+00
   P6a   Q4n  1 4.700000e-01    5.209000e+00
   P6a  SQ4n  1 4.300000e-01    6.838000e+00
   P6a  TQ4n  1 3.950000e-01    1.007900e+01
   P5a   Q4n  1 4.700000e-01    4.961000e+00
   P5a  SQ4n  1 4.300000e-01    6.571000e+00
   P5a  TQ4n  1 3.950000e-01    9.686000e+00
   P4a   Q4n  1 4.700000e-01    4.940000e+00
   P4a  SQ4n  1 4.300000e-01    6.494000e+00
   P4a  TQ4n  1 3.950000e-01    9.506000e+00
   P3a   Q4n  1 4.700000e-01    4.927000e+00
   P3a  SQ4n  1 4.300000e-01    6.446000e+00
   P3a  TQ4n  1 3.950000e-01    9.396000e+00
   P2a   Q4n  1 4.700000e-01    4.728000e+00
   P2a  SQ4n  1 4.300000e-01    6.212000e+00
   P2a  TQ4n  1 3.950000e-01    9.078000e+00
   P1a   Q4n  1 4.700000e-01    4.541000e+00
   P1a  SQ4n  1 4.300000e-01    6.006000e+00
   P1a  TQ4n  1 3.950000e-01    8.778000e+00
   N6a   Q4n  1 4.700000e-01    4.533000e+00
   N6a  SQ4n  1 4.300000e-01    5.976000e+00
   N6a  TQ4n  1 3.950000e-01    8.709000e+00
   N5a   Q4n  1 4.700000e-01    4.523000e+00
   N5a  SQ4n  1 4.300000e-01    5.941000e+00
   N5a  TQ4n  1 3.950000e-01    8.628000e+00
   N4a   Q4n  1 4.700000e-01    4.321000e+00
   N4a  SQ4n  1 4.300000e-01    5.689000e+00
   N4a  TQ4n  1 3.950000e-01    8.280000e+00
   N3a   Q4n  1 4.700000e-01    4.137000e+00
   N3a  SQ4n  1 4.300000e-01    5.415000e+00
   N3a  TQ4n  1 3.950000e-01    7.915000e+00
   N2a   Q4n  1 4.700000e-01    4.117000e+00
   N2a  SQ4n  1 4.300000e-01    5.344000e+00
   N2a  TQ4n  1 3.950000e-01    7.750000e+00
   N1a   Q4n  1 4.700000e-01    4.089000e+00
   N1a  SQ4n  1 4.300000e-01    5.240000e+00
   N1a  TQ4n  1 3.950000e-01    7.511000e+00
   C6v   Q4n  1 4.700000e-01    3.913000e+00
   C6v  SQ4n  1 4.300000e-01    4.844000e+00
   C6v  TQ4n  1 3.950000e-01    6.926000e+00
   C5v   Q4n  1 4.700000e-01    3.448000e+00
   C5v  SQ4n  1 4.300000e-01    4.103000e+00
   C5v  TQ4n  1 3.950000e-01    5.974000e+00
   C4v   Q4n  1 4.700000e-01    3.225000e+00
   C4v  SQ4n  1 4.300000e-01    3.749000e+00
   C4v  TQ4n  1 3.950000e-01    5.345000e+00
   C3v   Q4n  1 4.700000e-01    2.967000e+00
   C3v  SQ4n  1 4.300000e-01    3.199000e+00
   C3v  TQ4n  1 3.980000e-01    4.362000e+00
   C2v   Q4n  1 5.200000e-01    2.351000e+00
   C2v  SQ4n  1 4.730000e-01    2.202000e+00
   C2v  TQ4n  1 4.040000e-01    3.123000e+00
   C1v   Q4n  1 5.200000e-01    2.256000e+00
   C1v  SQ4n  1 4.730000e-01    1.855000e+00
   C1v  TQ4n  1 4.040000e-01    2.260000e+00
   X4v   Q4n  1 4.700000e-01    3.789000e+00
   X4v  SQ4n  1 4.300000e-01    4.928000e+00
   X4v  TQ4n  1 3.950000e-01    6.954000e+00
   X3v   Q4n  1 4.700000e-01    3.593000e+00
   X3v  SQ4n  1 4.300000e-01    4.444000e+00
   X3v  TQ4n  1 3.950000e-01    6.536000e+00
   X2v   Q4n  1 4.700000e-01    3.424000e+00
   X2v  SQ4n  1 4.300000e-01    4.017000e+00
   X2v  TQ4n  1 3.950000e-01    5.774000e+00
   X1v   Q4n  1 4.700000e-01    3.137000e+00
   X1v  SQ4n  1 4.300000e-01    3.429000e+00
   X1v  TQ4n  1 3.950000e-01    4.605000e+00
   C6e   Q4n  1 4.700000e-01    3.483000e+00
   C6e  SQ4n  1 4.300000e-01    4.234000e+00
   C6e  TQ4n  1 3.950000e-01    6.276000e+00
   C5e   Q4n  1 4.700000e-01    2.928000e+00
   C5e  SQ4n  1 4.300000e-01    3.513000e+00
   C5e  TQ4n  1 3.990000e-01    5.262000e+00
   C4e   Q4n  1 4.850000e-01    2.661000e+00
   C4e  SQ4n  1 4.430000e-01    3.023000e+00
   C4e  TQ4n  1 4.010000e-01    4.603000e+00
   C3e   Q4n  1 5.200000e-01    2.434000e+00
   C3e  SQ4n  1 4.730000e-01    2.434000e+00
   C3e  TQ4n  1 4.040000e-01    3.699000e+00
   C2e   Q4n  1 6.200000e-01    2.170000e+00
   C2e  SQ4n  1 5.520000e-01    1.800000e+00
   C2e  TQ4n  1 5.240000e-01    2.397000e+00
   C1e   Q4n  1 6.200000e-01    2.091000e+00
   C1e  SQ4n  1 5.520000e-01    1.503000e+00
   C1e  TQ4n  1 5.240000e-01    1.731000e+00
   X4e   Q4n  1 4.700000e-01    3.339000e+00
   X4e  SQ4n  1 4.300000e-01    4.168000e+00
   X4e  TQ4n  1 3.950000e-01    6.314000e+00
   X3e   Q4n  1 4.700000e-01    3.143000e+00
   X3e  SQ4n  1 4.300000e-01    3.844000e+00
   X3e  TQ4n  1 3.980000e-01    5.843000e+00
   X2e   Q4n  1 4.700000e-01    2.904000e+00
   X2e  SQ4n  1 4.300000e-01    3.427000e+00
   X2e  TQ4n  1 3.990000e-01    5.065000e+00
   X1e   Q4n  1 4.850000e-01    2.576000e+00
   X1e  SQ4n  1 4.430000e-01    2.712000e+00
   X1e  TQ4n  1 4.010000e-01    3.874000e+00
   P6q   Q4n  1 4.700000e-01    6.519000e+00
   P6q  SQ4n  1 4.300000e-01    8.178000e+00
   P6q  TQ4n  1 3.950000e-01    1.143900e+01
   P5q   Q4n  1 4.700000e-01    6.501000e+00
   P5q  SQ4n  1 4.300000e-01    8.111000e+00
   P5q  TQ4n  1 3.950000e-01    1.128600e+01
   P4q   Q4n  1 4.700000e-01    6.480000e+00
   P4q  SQ4n  1 4.300000e-01    8.034000e+00
   P4q  TQ4n  1 3.950000e-01    1.110600e+01
   P3q   Q4n  1 4.700000e-01    6.467000e+00
   P3q  SQ4n  1 4.300000e-01    7.986000e+00
   P3q  TQ4n  1 3.950000e-01    1.099600e+01
   P2q   Q4n  1 4.700000e-01    6.158000e+00
   P2q  SQ4n  1 4.300000e-01    7.652000e+00
   P2q  TQ4n  1 3.950000e-01    1.051800e+01
   P1q   Q4n  1 4.700000e-01    5.901000e+00
   P1q  SQ4n  1 4.300000e-01    7.336000e+00
   P1q  TQ4n  1 3.950000e-01    1.012800e+01
   N6q   Q4n  1 4.700000e-01    5.893000e+00
   N6q  SQ4n  1 4.300000e-01    7.306000e+00
   N6q  TQ4n  1 3.950000e-01    1.005900e+01
   N5q   Q4n  1 4.700000e-01    5.883000e+00
   N5q  SQ4n  1 4.300000e-01    7.271000e+00
   N5q  TQ4n  1 3.950000e-01    9.978000e+00
   N4q   Q4n  1 4.700000e-01    5.621000e+00
   N4q  SQ4n  1 4.300000e-01    6.989000e+00
   N4q  TQ4n  1 3.950000e-01    9.570000e+00
   N3q   Q4n  1 4.700000e-01    5.347000e+00
   N3q  SQ4n  1 4.300000e-01    6.655000e+00
   N3q  TQ4n  1 3.950000e-01    9.125000e+00
   N2q   Q4n  1 4.700000e-01    5.327000e+00
   N2q  SQ4n  1 4.300000e-01    6.584000e+00
   N2q  TQ4n  1 3.950000e-01    8.960000e+00
   N1q   Q4n  1 4.700000e-01    5.299000e+00
   N1q  SQ4n  1 4.300000e-01    6.480000e+00
   N1q  TQ4n  1 3.950000e-01    8.721000e+00
   C6q   Q4n  1 4.700000e-01    4.213000e+00
   C6q  SQ4n  1 4.300000e-01    5.294000e+00
   C6q  TQ4n  1 3.950000e-01    7.126000e+00
   C5q   Q4n  1 4.700000e-01    3.728000e+00
   C5q  SQ4n  1 4.300000e-01    4.553000e+00
   C5q  TQ4n  1 3.950000e-01    6.234000e+00
   C4q   Q4n  1 4.700000e-01    3.505000e+00
   C4q  SQ4n  1 4.300000e-01    4.119000e+00
   C4q  TQ4n  1 3.950000e-01    5.525000e+00
   C3q   Q4n  1 4.700000e-01    3.307000e+00
   C3q  SQ4n  1 4.300000e-01    3.589000e+00
   C3q  TQ4n  1 3.950000e-01    4.605000e+00
   C2q   Q4n  1 4.700000e-01    2.717000e+00
   C2q  SQ4n  1 4.300000e-01    2.744000e+00
   C2q  TQ4n  1 4.010000e-01    3.293000e+00
   C1q   Q4n  1 4.700000e-01    2.613000e+00
   C1q  SQ4n  1 4.300000e-01    2.362000e+00
   C1q  TQ4n  1 4.010000e-01    2.424000e+00
   X4q   Q4n  1 4.700000e-01    4.069000e+00
   X4q  SQ4n  1 4.300000e-01    5.168000e+00
   X4q  TQ4n  1 3.950000e-01    7.144000e+00
   X3q   Q4n  1 4.700000e-01    3.913000e+00
   X3q  SQ4n  1 4.300000e-01    4.834000e+00
   X3q  TQ4n  1 3.950000e-01    6.736000e+00
   X2q   Q4n  1 4.700000e-01    3.704000e+00
   X2q  SQ4n  1 4.300000e-01    4.467000e+00
   X2q  TQ4n  1 3.950000e-01    6.034000e+00
   X1q   Q4n  1 4.700000e-01    3.417000e+00
   X1q  SQ4n  1 4.300000e-01    3.799000e+00
   X1q  TQ4n  1 3.950000e-01    4.785000e+00
  P6dq   Q4n  1 4.700000e-01    6.219000e+00
  P6dq  SQ4n  1 4.300000e-01    7.878000e+00
  P6dq  TQ4n  1 3.950000e-01    1.143900e+01
  P5dq   Q4n  1 4.700000e-01    6.201000e+00
  P5dq  SQ4n  1 4.300000e-01    7.811000e+00
  P5dq  TQ4n  1 3.950000e-01    1.128600e+01
  P4dq   Q4n  1 4.700000e-01    6.180000e+00
  P4dq  SQ4n  1 4.300000e-01    7.734000e+00
  P4dq  TQ4n  1 3.950000e-01    1.110600e+01
  P3dq   Q4n  1 4.700000e-01    6.167000e+00
  P3dq  SQ4n  1 4.300000e-01    7.686000e+00
  P3dq  TQ4n  1 3.950000e-01    1.099600e+01
  P2dq   Q4n  1 4.700000e-01    6.158000e+00
  P2dq  SQ4n  1 4.300000e-01    7.652000e+00
  P2dq  TQ4n  1 3.950000e-01    1.091800e+01
  P1dq   Q4n  1 4.700000e-01    5.901000e+00
  P1dq  SQ4n  1 4.300000e-01    7.336000e+00
  P1dq  TQ4n  1 3.950000e-01    1.045800e+01
  N6dq   Q4n  1 4.700000e-01    5.893000e+00
  N6dq  SQ4n  1 4.300000e-01    7.306000e+00
  N6dq  TQ4n  1 3.950000e-01    1.038900e+01
  N5dq   Q4n  1 4.700000e-01    5.883000e+00
  N5dq  SQ4n  1 4.300000e-01    7.271000e+00
  N5dq  TQ4n  1 3.950000e-01    1.030800e+01
  N4dq   Q4n  1 4.700000e-01    5.621000e+00
  N4dq  SQ4n  1 4.300000e-01    6.989000e+00
  N4dq  TQ4n  1 3.950000e-01    9.880000e+00
  N3dq   Q4n  1 4.700000e-01    5.347000e+00
  N3dq  SQ4n  1 4.300000e-01    6.655000e+00
  N3dq  TQ4n  1 3.950000e-01    9.445000e+00
  N2dq   Q4n  1 4.700000e-01    5.327000e+00
  N2dq  SQ4n  1 4.300000e-01    6.584000e+00
  N2dq  TQ4n  1 3.950000e-01    9.280000e+00
  N1dq   Q4n  1 4.700000e-01    5.299000e+00
  N1dq  SQ4n  1 4.300000e-01    6.480000e+00
  N1dq  TQ4n  1 3.950000e-01    9.041000e+00
  P6aq   Q4n  1 4.700000e-01    5.969000e+00
  P6aq  SQ4n  1 4.300000e-01    7.588000e+00
  P6aq  TQ4n  1 3.950000e-01    1.103900e+01
  P5aq   Q4n  1 4.700000e-01    5.701000e+00
  P5aq  SQ4n  1 4.300000e-01    7.281000e+00
  P5aq  TQ4n  1 3.950000e-01    1.055600e+01
  P4aq   Q4n  1 4.700000e-01    5.680000e+00
  P4aq  SQ4n  1 4.300000e-01    7.204000e+00
  P4aq  TQ4n  1 3.950000e-01    1.037600e+01
  P3aq   Q4n  1 4.700000e-01    5.667000e+00
  P3aq  SQ4n  1 4.300000e-01    7.156000e+00
  P3aq  TQ4n  1 3.950000e-01    1.026600e+01
  P2aq   Q4n  1 4.700000e-01    5.398000e+00
  P2aq  SQ4n  1 4.300000e-01    6.842000e+00
  P2aq  TQ4n  1 3.950000e-01    9.878000e+00
  P1aq   Q4n  1 4.700000e-01    5.141000e+00
  P1aq  SQ4n  1 4.300000e-01    6.586000e+00
  P1aq  TQ4n  1 3.950000e-01    9.498000e+00
  N6aq   Q4n  1 4.700000e-01    5.133000e+00
  N6aq  SQ4n  1 4.300000e-01    6.556000e+00
  N6aq  TQ4n  1 3.950000e-01    9.429000e+00
  N5aq   Q4n  1 4.700000e-01    5.123000e+00
  N5aq  SQ4n  1 4.300000e-01    6.521000e+00
  N5aq  TQ4n  1 3.950000e-01    9.348000e+00
  N4aq   Q4n  1 4.700000e-01    4.881000e+00
  N4aq  SQ4n  1 4.300000e-01    6.279000e+00
  N4aq  TQ4n  1 3.950000e-01    9.010000e+00
  N3aq   Q4n  1 4.700000e-01    4.677000e+00
  N3aq  SQ4n  1 4.300000e-01    6.025000e+00
  N3aq  TQ4n  1 3.950000e-01    8.645000e+00
  N2aq   Q4n  1 4.700000e-01    4.657000e+00
  N2aq  SQ4n  1 4.300000e-01    5.954000e+00
  N2aq  TQ4n  1 3.950000e-01    8.480000e+00
  N1aq   Q4n  1 4.700000e-01    4.629000e+00
  N1aq  SQ4n  1 4.300000e-01    5.850000e+00
  N1aq  TQ4n  1 3.950000e-01    8.241000e+00
  C6vq   Q4n  1 4.700000e-01    4.403000e+00
  C6vq  SQ4n  1 4.300000e-01    5.504000e+00
  C6vq  TQ4n  1 3.950000e-01    7.616000e+00
  C5vq   Q4n  1 4.700000e-01    3.878000e+00
  C5vq  SQ4n  1 4.300000e-01    4.713000e+00
  C5vq  TQ4n  1 3.950000e-01    6.624000e+00
  C4vq   Q4n  1 4.700000e-01    3.675000e+00
  C4vq  SQ4n  1 4.300000e-01    4.509000e+00
  C4vq  TQ4n  1 3.950000e-01    5.985000e+00
  C3vq   Q4n  1 4.700000e-01    3.417000e+00
  C3vq  SQ4n  1 4.300000e-01    3.799000e+00
  C3vq  TQ4n  1 3.950000e-01    5.045000e+00
  C2vq   Q4n  1 5.200000e-01    2.351000e+00
  C2vq  SQ4n  1 4.730000e-01    2.202000e+00
  C2vq  TQ4n  1 4.040000e-01    3.123000e+00
  C1vq   Q4n  1 5.200000e-01    2.256000e+00
  C1vq  SQ4n  1 4.730000e-01    1.855000e+00
  C1vq  TQ4n  1 4.040000e-01    2.260000e+00
  X4vq   Q4n  1 4.700000e-01    4.239000e+00
  X4vq  SQ4n  1 4.300000e-01    5.388000e+00
  X4vq  TQ4n  1 3.950000e-01    7.584000e+00
  X3vq   Q4n  1 4.700000e-01    4.043000e+00
  X3vq  SQ4n  1 4.300000e-01    5.074000e+00
  X3vq  TQ4n  1 3.950000e-01    7.126000e+00
  X2vq   Q4n  1 4.700000e-01    3.854000e+00
  X2vq  SQ4n  1 4.300000e-01    4.627000e+00
  X2vq  TQ4n  1 3.950000e-01    6.424000e+00
  X1vq   Q4n  1 4.700000e-01    3.587000e+00
  X1vq  SQ4n  1 4.300000e-01    4.189000e+00
  X1vq  TQ4n  1 3.950000e-01    5.245000e+00
  C6eq   Q4n  1 4.700000e-01    3.913000e+00
  C6eq  SQ4n  1 4.300000e-01    4.844000e+00
  C6eq  TQ4n  1 3.950000e-01    6.926000e+00
  C5eq   Q4n  1 4.700000e-01    3.448000e+00
  C5eq  SQ4n  1 4.300000e-01    4.103000e+00
  C5eq  TQ4n  1 3.950000e-01    5.974000e+00
  C4eq   Q4n  1 4.700000e-01    3.225000e+00
  C4eq  SQ4n  1 4.300000e-01    3.749000e+00
  C4eq  TQ4n  1 3.950000e-01    5.345000e+00
  C3eq   Q4n  1 4.700000e-01    2.967000e+00
  C3eq  SQ4n  1 4.300000e-01    3.199000e+00
  C3eq  TQ4n  1 3.980000e-01    4.362000e+00
  C2eq   Q4n  1 5.200000e-01    2.371000e+00
  C2eq  SQ4n  1 4.730000e-01    2.202000e+00
  C2eq  TQ4n  1 4.040000e-01    3.123000e+00
  C1eq   Q4n  1 5.200000e-01    2.276000e+00
  C1eq  SQ4n  1 4.730000e-01    1.855000e+00
  C1eq  TQ4n  1 4.040000e-01    2.260000e+00
  X4eq   Q4n  1 4.700000e-01    3.789000e+00
  X4eq  SQ4n  1 4.300000e-01    4.928000e+00
  X4eq  TQ4n  1 3.950000e-01    6.954000e+00
  X3eq   Q4n  1 4.700000e-01    3.593000e+00
  X3eq  SQ4n  1 4.300000e-01    4.444000e+00
  X3eq  TQ4n  1 3.950000e-01    6.536000e+00
  X2eq   Q4n  1 4.700000e-01    3.424000e+00
  X2eq  SQ4n  1 4.300000e-01    4.017000e+00
  X2eq  TQ4n  1 3.950000e-01    5.774000e+00
  X1eq   Q4n  1 4.700000e-01    3.137000e+00
  X1eq  SQ4n  1 4.300000e-01    3.429000e+00
  X1eq  TQ4n  1 3.950000e-01    4.605000e+00
   P6h   Q4n  1 4.700000e-01    5.969000e+00
   P6h  SQ4n  1 4.300000e-01    7.588000e+00
   P6h  TQ4n  1 3.950000e-01    1.070900e+01
   P5h   Q4n  1 4.700000e-01    5.701000e+00
   P5h  SQ4n  1 4.300000e-01    7.281000e+00
   P5h  TQ4n  1 3.950000e-01    1.024600e+01
   P4h   Q4n  1 4.700000e-01    5.680000e+00
   P4h  SQ4n  1 4.300000e-01    7.204000e+00
   P4h  TQ4n  1 3.950000e-01    1.006600e+01
   P3h   Q4n  1 4.700000e-01    5.667000e+00
   P3h  SQ4n  1 4.300000e-01    7.156000e+00
   P3h  TQ4n  1 3.950000e-01    9.956000e+00
   P2h   Q4n  1 4.700000e-01    5.398000e+00
   P2h  SQ4n  1 4.300000e-01    6.842000e+00
   P2h  TQ4n  1 3.950000e-01    9.558000e+00
   P1h   Q4n  1 4.700000e-01    5.141000e+00
   P1h  SQ4n  1 4.300000e-01    6.586000e+00
   P1h  TQ4n  1 3.950000e-01    9.258000e+00
   N6h   Q4n  1 4.700000e-01    5.133000e+00
   N6h  SQ4n  1 4.300000e-01    6.556000e+00
   N6h  TQ4n  1 3.950000e-01    9.189000e+00
   N5h   Q4n  1 4.700000e-01    5.123000e+00
   N5h  SQ4n  1 4.300000e-01    6.521000e+00
   N5h  TQ4n  1 3.950000e-01    9.108000e+00
   N4h   Q4n  1 4.700000e-01    4.881000e+00
   N4h  SQ4n  1 4.300000e-01    6.279000e+00
   N4h  TQ4n  1 3.950000e-01    8.770000e+00
   N3h   Q4n  1 4.700000e-01    4.677000e+00
   N3h  SQ4n  1 4.300000e-01    6.025000e+00
   N3h  TQ4n  1 3.950000e-01    8.405000e+00
   N2h   Q4n  1 4.700000e-01    4.657000e+00
   N2h  SQ4n  1 4.300000e-01    5.954000e+00
   N2h  TQ4n  1 3.950000e-01    8.240000e+00
   N1h   Q4n  1 4.700000e-01    4.629000e+00
   N1h  SQ4n  1 4.300000e-01    5.850000e+00
   N1h  TQ4n  1 3.950000e-01    8.001000e+00
   C6h   Q4n  1 4.700000e-01    3.763000e+00
   C6h  SQ4n  1 4.300000e-01    4.684000e+00
   C6h  TQ4n  1 3.950000e-01    6.536000e+00
   C5h   Q4n  1 4.700000e-01    3.278000e+00
   C5h  SQ4n  1 4.300000e-01    3.943000e+00
   C5h  TQ4n  1 3.980000e-01    5.543000e+00
   C4h   Q4n  1 4.700000e-01    3.055000e+00
   C4h  SQ4n  1 4.300000e-01    3.519000e+00
   C4h  TQ4n  1 3.990000e-01    4.819000e+00
   C3h   Q4n  1 4.700000e-01    2.787000e+00
   C3h  SQ4n  1 4.300000e-01    2.999000e+00
   C3h  TQ4n  1 4.010000e-01    3.874000e+00
   C2h   Q4n  1 5.700000e-01    2.229000e+00
   C2h  SQ4n  1 5.140000e-01    1.958000e+00
   C2h  TQ4n  1 5.110000e-01    2.472000e+00
   C1h   Q4n  1 5.700000e-01    2.143000e+00
   C1h  SQ4n  1 5.140000e-01    1.639000e+00
   C1h  TQ4n  1 5.110000e-01    1.790000e+00
   X4h   Q4n  1 4.700000e-01    3.619000e+00
   X4h  SQ4n  1 4.300000e-01    4.538000e+00
   X4h  TQ4n  1 3.950000e-01    6.494000e+00
   X3h   Q4n  1 4.700000e-01    3.483000e+00
   X3h  SQ4n  1 4.300000e-01    4.234000e+00
   X3h  TQ4n  1 3.950000e-01    6.096000e+00
   X2h   Q4n  1 4.700000e-01    3.254000e+00
   X2h  SQ4n  1 4.300000e-01    3.857000e+00
   X2h  TQ4n  1 3.980000e-01    5.344000e+00
   X1h   Q4n  1 4.700000e-01    2.967000e+00
   X1h  SQ4n  1 4.300000e-01    3.199000e+00
   X1h  TQ4n  1 3.990000e-01    4.085000e+00
  P6dh   Q4n  1 4.700000e-01    5.969000e+00
  P6dh  SQ4n  1 4.300000e-01    7.588000e+00
  P6dh  TQ4n  1 3.950000e-01    1.103900e+01
  P5dh   Q4n  1 4.700000e-01    5.701000e+00
  P5dh  SQ4n  1 4.300000e-01    7.281000e+00
  P5dh  TQ4n  1 3.950000e-01    1.055600e+01
  P4dh   Q4n  1 4.700000e-01    5.680000e+00
  P4dh  SQ4n  1 4.300000e-01    7.204000e+00
  P4dh  TQ4n  1 3.950000e-01    1.037600e+01
  P3dh   Q4n  1 4.700000e-01    5.667000e+00
  P3dh  SQ4n  1 4.300000e-01    7.156000e+00
  P3dh  TQ4n  1 3.950000e-01    1.026600e+01
  P2dh   Q4n  1 4.700000e-01    5.398000e+00
  P2dh  SQ4n  1 4.300000e-01    6.842000e+00
  P2dh  TQ4n  1 3.950000e-01    9.878000e+00
  P1dh   Q4n  1 4.700000e-01    5.141000e+00
  P1dh  SQ4n  1 4.300000e-01    6.586000e+00
  P1dh  TQ4n  1 3.950000e-01    9.498000e+00
  N6dh   Q4n  1 4.700000e-01    5.133000e+00
  N6dh  SQ4n  1 4.300000e-01    6.556000e+00
  N6dh  TQ4n  1 3.950000e-01    9.429000e+00
  N5dh   Q4n  1 4.700000e-01    5.123000e+00
  N5dh  SQ4n  1 4.300000e-01    6.521000e+00
  N5dh  TQ4n  1 3.950000e-01    9.348000e+00
  N4dh   Q4n  1 4.700000e-01    4.881000e+00
  N4dh  SQ4n  1 4.300000e-01    6.279000e+00
  N4dh  TQ4n  1 3.950000e-01    9.010000e+00
  N3dh   Q4n  1 4.700000e-01    4.677000e+00
  N3dh  SQ4n  1 4.300000e-01    6.025000e+00
  N3dh  TQ4n  1 3.950000e-01    8.645000e+00
  N2dh   Q4n  1 4.700000e-01    4.657000e+00
  N2dh  SQ4n  1 4.300000e-01    5.954000e+00
  N2dh  TQ4n  1 3.950000e-01    8.480000e+00
  N1dh   Q4n  1 4.700000e-01    4.629000e+00
  N1dh  SQ4n  1 4.300000e-01    5.850000e+00
  N1dh  TQ4n  1 3.950000e-01    8.241000e+00
  P6ah   Q4n  1 4.700000e-01    5.209000e+00
  P6ah  SQ4n  1 4.300000e-01    6.838000e+00
  P6ah  TQ4n  1 3.950000e-01    1.007900e+01
  P5ah   Q4n  1 4.700000e-01    4.961000e+00
  P5ah  SQ4n  1 4.300000e-01    6.571000e+00
  P5ah  TQ4n  1 3.950000e-01    9.686000e+00
  P4ah   Q4n  1 4.700000e-01    4.940000e+00
  P4ah  SQ4n  1 4.300000e-01    6.494000e+00
  P4ah  TQ4n  1 3.950000e-01    9.506000e+00
  P3ah   Q4n  1 4.700000e-01    4.927000e+00
  P3ah  SQ4n  1 4.300000e-01    6.446000e+00
  P3ah  TQ4n  1 3.950000e-01    9.396000e+00
  P2ah   Q4n  1 4.700000e-01    4.728000e+00
  P2ah  SQ4n  1 4.300000e-01    6.212000e+00
  P2ah  TQ4n  1 3.950000e-01    9.078000e+00
  P1ah   Q4n  1 4.700000e-01    4.541000e+00
  P1ah  SQ4n  1 4.300000e-01    6.006000e+00
  P1ah  TQ4n  1 3.950000e-01    8.778000e+00
  N6ah   Q4n  1 4.700000e-01    4.533000e+00
  N6ah  SQ4n  1 4.300000e-01    5.976000e+00
  N6ah  TQ4n  1 3.950000e-01    8.709000e+00
  N5ah   Q4n  1 4.700000e-01    4.523000e+00
  N5ah  SQ4n  1 4.300000e-01    5.941000e+00
  N5ah  TQ4n  1 3.950000e-01    8.628000e+00
  N4ah   Q4n  1 4.700000e-01    4.321000e+00
  N4ah  SQ4n  1 4.300000e-01    5.689000e+00
  N4ah  TQ4n  1 3.950000e-01    8.280000e+00
  N3ah   Q4n  1 4.700000e-01    4.137000e+00
  N3ah  SQ4n  1 4.300000e-01    5.415000e+00
  N3ah  TQ4n  1 3.950000e-01    7.915000e+00
  N2ah   Q4n  1 4.700000e-01    4.117000e+00
  N2ah  SQ4n  1 4.300000e-01    5.344000e+00
  N2ah  TQ4n  1 3.950000e-01    7.750000e+00
  N1ah   Q4n  1 4.700000e-01    4.089000e+00
  N1ah  SQ4n  1 4.300000e-01    5.240000e+00
  N1ah  TQ4n  1 3.950000e-01    7.511000e+00
  C6vh   Q4n  1 4.700000e-01    3.913000e+00
  C6vh  SQ4n  1 4.300000e-01    4.844000e+00
  C6vh  TQ4n  1 3.950000e-01    6.926000e+00
  C5vh   Q4n  1 4.700000e-01    3.448000e+00
  C5vh  SQ4n  1 4.300000e-01    4.103000e+00
  C5vh  TQ4n  1 3.950000e-01    5.974000e+00
  C4vh   Q4n  1 4.700000e-01    3.225000e+00
  C4vh  SQ4n  1 4.300000e-01    3.749000e+00
  C4vh  TQ4n  1 3.950000e-01    5.345000e+00
  C3vh   Q4n  1 4.700000e-01    2.967000e+00
  C3vh  SQ4n  1 4.300000e-01    3.199000e+00
  C3vh  TQ4n  1 3.980000e-01    4.362000e+00
  C2vh   Q4n  1 5.200000e-01    2.351000e+00
  C2vh  SQ4n  1 4.730000e-01    2.202000e+00
  C2vh  TQ4n  1 4.040000e-01    3.123000e+00
  C1vh   Q4n  1 5.200000e-01    2.256000e+00
  C1vh  SQ4n  1 4.730000e-01    1.855000e+00
  C1vh  TQ4n  1 4.040000e-01    2.260000e+00
  X4vh   Q4n  1 4.700000e-01    3.789000e+00
  X4vh  SQ4n  1 4.300000e-01    4.928000e+00
  X4vh  TQ4n  1 3.950000e-01    6.954000e+00
  X3vh   Q4n  1 4.700000e-01    3.593000e+00
  X3vh  SQ4n  1 4.300000e-01    4.444000e+00
  X3vh  TQ4n  1 3.950000e-01    6.536000e+00
  X2vh   Q4n  1 4.700000e-01    3.424000e+00
  X2vh  SQ4n  1 4.300000e-01    4.017000e+00
  X2vh  TQ4n  1 3.950000e-01    5.774000e+00
  X1vh   Q4n  1 4.700000e-01    3.137000e+00
  X1vh  SQ4n  1 4.300000e-01    3.429000e+00
  X1vh  TQ4n  1 3.950000e-01    4.605000e+00
  C6eh   Q4n  1 4.700000e-01    3.483000e+00
  C6eh  SQ4n  1 4.300000e-01    4.234000e+00
  C6eh  TQ4n  1 3.950000e-01    6.276000e+00
  C5eh   Q4n  1 4.700000e-01    2.928000e+00
  C5eh  SQ4n  1 4.300000e-01    3.513000e+00
  C5eh  TQ4n  1 3.990000e-01    5.262000e+00
  C4eh   Q4n  1 4.850000e-01    2.661000e+00
  C4eh  SQ4n  1 4.430000e-01    3.023000e+00
  C4eh  TQ4n  1 4.010000e-01    4.603000e+00
  C3eh   Q4n  1 5.200000e-01    2.434000e+00
  C3eh  SQ4n  1 4.730000e-01    2.434000e+00
  C3eh  TQ4n  1 4.040000e-01    3.699000e+00
  C2eh   Q4n  1 6.200000e-01    2.170000e+00
  C2eh  SQ4n  1 5.520000e-01    1.800000e+00
  C2eh  TQ4n  1 5.240000e-01    2.397000e+00
  C1eh   Q4n  1 6.200000e-01    2.091000e+00
  C1eh  SQ4n  1 5.520000e-01    1.503000e+00
  C1eh  TQ4n  1 5.240000e-01    1.731000e+00
  X4eh   Q4n  1 4.700000e-01    3.339000e+00
  X4eh  SQ4n  1 4.300000e-01    4.168000e+00
  X4eh  TQ4n  1 3.950000e-01    6.314000e+00
  X3eh   Q4n  1 4.700000e-01    3.143000e+00
  X3eh  SQ4n  1 4.300000e-01    3.844000e+00
  X3eh  TQ4n  1 3.980000e-01    5.843000e+00
  X2eh   Q4n  1 4.700000e-01    2.904000e+00
  X2eh  SQ4n  1 4.300000e-01    3.427000e+00
  X2eh  TQ4n  1 3.990000e-01    5.065000e+00
  X1eh   Q4n  1 4.850000e-01    2.576000e+00
  X1eh  SQ4n  1 4.430000e-01    2.712000e+00
  X1eh  TQ4n  1 4.010000e-01    3.874000e+00
   P6r   Q4n  1 4.700000e-01    5.969000e+00
   P6r  SQ4n  1 4.300000e-01    7.588000e+00
   P6r  TQ4n  1 3.950000e-01    1.070900e+01
   P5r   Q4n  1 4.700000e-01    5.701000e+00
   P5r  SQ4n  1 4.300000e-01    7.281000e+00
   P5r  TQ4n  1 3.950000e-01    1.024600e+01
   P4r   Q4n  1 4.700000e-01    5.680000e+00
   P4r  SQ4n  1 4.300000e-01    7.204000e+00
   P4r  TQ4n  1 3.950000e-01    1.006600e+01
   P3r   Q4n  1 4.700000e-01    5.667000e+00
   P3r  SQ4n  1 4.300000e-01    7.156000e+00
   P3r  TQ4n  1 3.950000e-01    9.956000e+00
   P2r   Q4n  1 4.700000e-01    5.398000e+00
   P2r  SQ4n  1 4.300000e-01    6.842000e+00
   P2r  TQ4n  1 3.950000e-01    9.558000e+00
   P1r   Q4n  1 4.700000e-01    5.141000e+00
   P1r  SQ4n  1 4.300000e-01    6.586000e+00
   P1r  TQ4n  1 3.950000e-01    9.258000e+00
   N6r   Q4n  1 4.700000e-01    5.133000e+00
   N6r  SQ4n  1 4.300000e-01    6.556000e+00
   N6r  TQ4n  1 3.950000e-01    9.189000e+00
   N5r   Q4n  1 4.700000e-01    5.123000e+00
   N5r  SQ4n  1 4.300000e-01    6.521000e+00
   N5r  TQ4n  1 3.950000e-01    9.108000e+00
   N4r   Q4n  1 4.700000e-01    4.881000e+00
   N4r  SQ4n  1 4.300000e-01    6.279000e+00
   N4r  TQ4n  1 3.950000e-01    8.770000e+00
   N3r   Q4n  1 4.700000e-01    4.677000e+00
   N3r  SQ4n  1 4.300000e-01    6.025000e+00
   N3r  TQ4n  1 3.950000e-01    8.405000e+00
   N2r   Q4n  1 4.700000e-01    4.657000e+00
   N2r  SQ4n  1 4.300000e-01    5.954000e+00
   N2r  TQ4n  1 3.950000e-01    8.240000e+00
   N1r   Q4n  1 4.700000e-01    4.629000e+00
   N1r  SQ4n  1 4.300000e-01    5.850000e+00
   N1r  TQ4n  1 3.950000e-01    8.001000e+00
   C6r   Q4n  1 4.700000e-01    3.763000e+00
   C6r  SQ4n  1 4.300000e-01    4.684000e+00
   C6r  TQ4n  1 3.950000e-01    6.536000e+00
   C5r   Q4n  1 4.700000e-01    3.278000e+00
   C5r  SQ4n  1 4.300000e-01    3.943000e+00
   C5r  TQ4n  1 3.980000e-01    5.543000e+00
   C4r   Q4n  1 4.700000e-01    3.055000e+00
   C4r  SQ4n  1 4.300000e-01    3.519000e+00
   C4r  TQ4n  1 3.990000e-01    4.819000e+00
   C3r   Q4n  1 4.700000e-01    2.787000e+00
   C3r  SQ4n  1 4.300000e-01    2.999000e+00
   C3r  TQ4n  1 4.010000e-01    3.874000e+00
   C2r   Q4n  1 5.700000e-01    2.229000e+00
   C2r  SQ4n  1 5.140000e-01    1.958000e+00
   C2r  TQ4n  1 5.110000e-01    2.472000e+00
   C1r   Q4n  1 5.700000e-01    2.143000e+00
   C1r  SQ4n  1 5.140000e-01    1.639000e+00
   C1r  TQ4n  1 5.110000e-01    1.790000e+00
   X4r   Q4n  1 4.700000e-01    3.619000e+00
   X4r  SQ4n  1 4.300000e-01    4.538000e+00
   X4r  TQ4n  1 3.950000e-01    6.494000e+00
   X3r   Q4n  1 4.700000e-01    3.483000e+00
   X3r  SQ4n  1 4.300000e-01    4.234000e+00
   X3r  TQ4n  1 3.950000e-01    6.096000e+00
   X2r   Q4n  1 4.700000e-01    3.254000e+00
   X2r  SQ4n  1 4.300000e-01    3.857000e+00
   X2r  TQ4n  1 3.980000e-01    5.344000e+00
   X1r   Q4n  1 4.700000e-01    2.967000e+00
   X1r  SQ4n  1 4.300000e-01    3.199000e+00
   X1r  TQ4n  1 3.990000e-01    4.085000e+00
  P6dr   Q4n  1 4.700000e-01    5.969000e+00
  P6dr  SQ4n  1 4.300000e-01    7.588000e+00
  P6dr  TQ4n  1 3.950000e-01    1.103900e+01
  P5dr   Q4n  1 4.700000e-01    5.701000e+00
  P5dr  SQ4n  1 4.300000e-01    7.281000e+00
  P5dr  TQ4n  1 3.950000e-01    1.055600e+01
  P4dr   Q4n  1 4.700000e-01    5.680000e+00
  P4dr  SQ4n  1 4.300000e-01    7.204000e+00
  P4dr  TQ4n  1 3.950000e-01    1.037600e+01
  P3dr   Q4n  1 4.700000e-01    5.667000e+00
  P3dr  SQ4n  1 4.300000e-01    7.156000e+00
  P3dr  TQ4n  1 3.950000e-01    1.026600e+01
  P2dr   Q4n  1 4.700000e-01    5.398000e+00
  P2dr  SQ4n  1 4.300000e-01    6.842000e+00
  P2dr  TQ4n  1 3.950000e-01    9.878000e+00
  P1dr   Q4n  1 4.700000e-01    5.141000e+00
  P1dr  SQ4n  1 4.300000e-01    6.586000e+00
  P1dr  TQ4n  1 3.950000e-01    9.498000e+00
  N6dr   Q4n  1 4.700000e-01    5.133000e+00
  N6dr  SQ4n  1 4.300000e-01    6.556000e+00
  N6dr  TQ4n  1 3.950000e-01    9.429000e+00
  N5dr   Q4n  1 4.700000e-01    5.123000e+00
  N5dr  SQ4n  1 4.300000e-01    6.521000e+00
  N5dr  TQ4n  1 3.950000e-01    9.348000e+00
  N4dr   Q4n  1 4.700000e-01    4.881000e+00
  N4dr  SQ4n  1 4.300000e-01    6.279000e+00
  N4dr  TQ4n  1 3.950000e-01    9.010000e+00
  N3dr   Q4n  1 4.700000e-01    4.677000e+00
  N3dr  SQ4n  1 4.300000e-01    6.025000e+00
  N3dr  TQ4n  1 3.950000e-01    8.645000e+00
  N2dr   Q4n  1 4.700000e-01    4.657000e+00
  N2dr  SQ4n  1 4.300000e-01    5.954000e+00
  N2dr  TQ4n  1 3.950000e-01    8.480000e+00
  N1dr   Q4n  1 4.700000e-01    4.629000e+00
  N1dr  SQ4n  1 4.300000e-01    5.850000e+00
  N1dr  TQ4n  1 3.950000e-01    8.241000e+00
  P6ar   Q4n  1 4.700000e-01    5.209000e+00
  P6ar  SQ4n  1 4.300000e-01    6.838000e+00
  P6ar  TQ4n  1 3.950000e-01    1.007900e+01
  P5ar   Q4n  1 4.700000e-01    4.961000e+00
  P5ar  SQ4n  1 4.300000e-01    6.571000e+00
  P5ar  TQ4n  1 3.950000e-01    9.686000e+00
  P4ar   Q4n  1 4.700000e-01    4.940000e+00
  P4ar  SQ4n  1 4.300000e-01    6.494000e+00
  P4ar  TQ4n  1 3.950000e-01    9.506000e+00
  P3ar   Q4n  1 4.700000e-01    4.927000e+00
  P3ar  SQ4n  1 4.300000e-01    6.446000e+00
  P3ar  TQ4n  1 3.950000e-01    9.396000e+00
  P2ar   Q4n  1 4.700000e-01    4.728000e+00
  P2ar  SQ4n  1 4.300000e-01    6.212000e+00
  P2ar  TQ4n  1 3.950000e-01    9.078000e+00
  P1ar   Q4n  1 4.700000e-01    4.541000e+00
  P1ar  SQ4n  1 4.300000e-01    6.006000e+00
  P1ar  TQ4n  1 3.950000e-01    8.778000e+00
  N6ar   Q4n  1 4.700000e-01    4.533000e+00
  N6ar  SQ4n  1 4.300000e-01    5.976000e+00
  N6ar  TQ4n  1 3.950000e-01    8.709000e+00
  N5ar   Q4n  1 4.700000e-01    4.523000e+00
  N5ar  SQ4n  1 4.300000e-01    5.941000e+00
  N5ar  TQ4n  1 3.950000e-01    8.628000e+00
  N4ar   Q4n  1 4.700000e-01    4.321000e+00
  N4ar  SQ4n  1 4.300000e-01    5.689000e+00
  N4ar  TQ4n  1 3.950000e-01    8.280000e+00
  N3ar   Q4n  1 4.700000e-01    4.137000e+00
  N3ar  SQ4n  1 4.300000e-01    5.415000e+00
  N3ar  TQ4n  1 3.950000e-01    7.915000e+00
  N2ar   Q4n  1 4.700000e-01    4.117000e+00
  N2ar  SQ4n  1 4.300000e-01    5.344000e+00
  N2ar  TQ4n  1 3.950000e-01    7.750000e+00
  N1ar   Q4n  1 4.700000e-01    4.089000e+00
  N1ar  SQ4n  1 4.300000e-01    5.240000e+00
  N1ar  TQ4n  1 3.950000e-01    7.511000e+00
  C6vr   Q4n  1 4.700000e-01    3.913000e+00
  C6vr  SQ4n  1 4.300000e-01    4.844000e+00
  C6vr  TQ4n  1 3.950000e-01    6.926000e+00
  C5vr   Q4n  1 4.700000e-01    3.448000e+00
  C5vr  SQ4n  1 4.300000e-01    4.103000e+00
  C5vr  TQ4n  1 3.950000e-01    5.974000e+00
  C4vr   Q4n  1 4.700000e-01    3.225000e+00
  C4vr  SQ4n  1 4.300000e-01    3.749000e+00
  C4vr  TQ4n  1 3.950000e-01    5.345000e+00
  C3vr   Q4n  1 4.700000e-01    2.967000e+00
  C3vr  SQ4n  1 4.300000e-01    3.199000e+00
  C3vr  TQ4n  1 3.980000e-01    4.362000e+00
  C2vr   Q4n  1 5.200000e-01    2.351000e+00
  C2vr  SQ4n  1 4.730000e-01    2.202000e+00
  C2vr  TQ4n  1 4.040000e-01    3.123000e+00
  C1vr   Q4n  1 5.200000e-01    2.256000e+00
  C1vr  SQ4n  1 4.730000e-01    1.855000e+00
  C1vr  TQ4n  1 4.040000e-01    2.260000e+00
  X4vr   Q4n  1 4.700000e-01    3.789000e+00
  X4vr  SQ4n  1 4.300000e-01    4.928000e+00
  X4vr  TQ4n  1 3.950000e-01    6.954000e+00
  X3vr   Q4n  1 4.700000e-01    3.593000e+00
  X3vr  SQ4n  1 4.300000e-01    4.444000e+00
  X3vr  TQ4n  1 3.950000e-01    6.536000e+00
  X2vr   Q4n  1 4.700000e-01    3.424000e+00
  X2vr  SQ4n  1 4.300000e-01    4.017000e+00
  X2vr  TQ4n  1 3.950000e-01    5.774000e+00
  X1vr   Q4n  1 4.700000e-01    3.137000e+00
  X1vr  SQ4n  1 4.300000e-01    3.429000e+00
  X1vr  TQ4n  1 3.950000e-01    4.605000e+00
  C6er   Q4n  1 4.700000e-01    3.483000e+00
  C6er  SQ4n  1 4.300000e-01    4.234000e+00
  C6er  TQ4n  1 3.950000e-01    6.276000e+00
  C5er   Q4n  1 4.700000e-01    2.928000e+00
  C5er  SQ4n  1 4.300000e-01    3.513000e+00
  C5er  TQ4n  1 3.990000e-01    5.262000e+00
  C4er   Q4n  1 4.850000e-01    2.661000e+00
  C4er  SQ4n  1 4.430000e-01    3.023000e+00
  C4er  TQ4n  1 4.010000e-01    4.603000e+00
  C3er   Q4n  1 5.200000e-01    2.434000e+00
  C3er  SQ4n  1 4.730000e-01    2.434000e+00
  C3er  TQ4n  1 4.040000e-01    3.699000e+00
  C2er   Q4n  1 6.200000e-01    2.170000e+00
  C2er  SQ4n  1 5.520000e-01    1.800000e+00
  C2er  TQ4n  1 5.240000e-01    2.397000e+00
  C1er   Q4n  1 6.200000e-01    2.091000e+00
  C1er  SQ4n  1 5.520000e-01    1.503000e+00
  C1er  TQ4n  1 5.240000e-01    1.731000e+00
  X4er   Q4n  1 4.700000e-01    3.339000e+00
  X4er  SQ4n  1 4.300000e-01    4.168000e+00
  X4er  TQ4n  1 3.950000e-01    6.314000e+00
  X3er   Q4n  1 4.700000e-01    3.143000e+00
  X3er  SQ4n  1 4.300000e-01    3.844000e+00
  X3er  TQ4n  1 3.980000e-01    5.843000e+00
  X2er   Q4n  1 4.700000e-01    2.904000e+00
  X2er  SQ4n  1 4.300000e-01    3.427000e+00
  X2er  TQ4n  1 3.990000e-01    5.065000e+00
  X1er   Q4n  1 4.850000e-01    2.576000e+00
  X1er  SQ4n  1 4.430000e-01    2.712000e+00
  X1er  TQ4n  1 4.010000e-01    3.874000e+00
   SP6   Q4n  1 4.300000e-01    5.414000e+00
   SP6  SQ4n  1 4.100000e-01    7.061000e+00
   SP6  TQ4n  1 3.650000e-01    9.468000e+00
   SP5   Q4n  1 4.300000e-01    5.160000e+00
   SP5  SQ4n  1 4.100000e-01    6.730000e+00
   SP5  TQ4n  1 3.650000e-01    9.031000e+00
   SP4   Q4n  1 4.300000e-01    5.144000e+00
   SP4  SQ4n  1 4.100000e-01    6.650000e+00
   SP4  TQ4n  1 3.650000e-01    8.863000e+00
   SP3   Q4n  1 4.300000e-01    5.135000e+00
   SP3  SQ4n  1 4.100000e-01    6.602000e+00
   SP3  TQ4n  1 3.650000e-01    8.762000e+00
   SP2   Q4n  1 4.300000e-01    4.848000e+00
   SP2  SQ4n  1 4.100000e-01    6.318000e+00
   SP2  TQ4n  1 3.650000e-01    8.402000e+00
   SP1   Q4n  1 4.300000e-01    4.613000e+00
   SP1  SQ4n  1 4.100000e-01    6.072000e+00
   SP1  TQ4n  1 3.650000e-01    8.078000e+00
   SN6   Q4n  1 4.300000e-01    4.607000e+00
   SN6  SQ4n  1 4.100000e-01    6.043000e+00
   SN6  TQ4n  1 3.650000e-01    8.017000e+00
   SN5   Q4n  1 4.300000e-01    4.601000e+00
   SN5  SQ4n  1 4.100000e-01    6.009000e+00
   SN5  TQ4n  1 3.650000e-01    7.947000e+00
   SN4   Q4n  1 4.300000e-01    4.393000e+00
   SN4  SQ4n  1 4.100000e-01    5.699000e+00
   SN4  TQ4n  1 3.650000e-01    7.591000e+00
   SN3   Q4n  1 4.300000e-01    4.183000e+00
   SN3  SQ4n  1 4.100000e-01    5.407000e+00
   SN3  TQ4n  1 3.650000e-01    7.214000e+00
   SN2   Q4n  1 4.300000e-01    4.169000e+00
   SN2  SQ4n  1 4.100000e-01    5.340000e+00
   SN2  TQ4n  1 3.650000e-01    7.072000e+00
   SN1   Q4n  1 4.300000e-01    4.150000e+00
   SN1  SQ4n  1 4.100000e-01    5.242000e+00
   SN1  TQ4n  1 3.650000e-01    6.869000e+00
   SC6   Q4n  1 4.300000e-01    3.120000e+00
   SC6  SQ4n  1 4.100000e-01    3.977000e+00
   SC6  TQ4n  1 3.650000e-01    5.463000e+00
   SC5   Q4n  1 4.300000e-01    2.486000e+00
   SC5  SQ4n  1 4.100000e-01    3.405000e+00
   SC5  TQ4n  1 3.940000e-01    4.494000e+00
   SC4   Q4n  1 4.300000e-01    2.220000e+00
   SC4  SQ4n  1 4.140000e-01    3.020000e+00
   SC4  TQ4n  1 4.040000e-01    3.914000e+00
   SC3   Q4n  1 4.300000e-01    1.961000e+00
   SC3  SQ4n  1 4.180000e-01    2.554000e+00
   SC3  TQ4n  1 4.090000e-01    3.274000e+00
   SC2   Q4n  1 5.140000e-01    1.265000e+00
   SC2  SQ4n  1 4.960000e-01    1.827000e+00
   SC2  TQ4n  1 5.370000e-01    2.143000e+00
   SC1   Q4n  1 5.140000e-01    1.206000e+00
   SC1  SQ4n  1 4.960000e-01    1.534000e+00
   SC1  TQ4n  1 5.370000e-01    1.639000e+00
   SX4   Q4n  1 4.300000e-01    2.897000e+00
   SX4  SQ4n  1 4.100000e-01    3.905000e+00
   SX4  TQ4n  1 3.660000e-01    5.487000e+00
   SX3   Q4n  1 4.300000e-01    2.670000e+00
   SX3  SQ4n  1 4.100000e-01    3.687000e+00
   SX3  TQ4n  1 3.780000e-01    5.036000e+00
   SX2   Q4n  1 4.300000e-01    2.470000e+00
   SX2  SQ4n  1 4.100000e-01    3.324000e+00
   SX2  TQ4n  1 3.940000e-01    4.338000e+00
   SX1   Q4n  1 4.300000e-01    2.161000e+00
   SX1  SQ4n  1 4.140000e-01    2.725000e+00
   SX1  TQ4n  1 4.040000e-01    3.351000e+00
  SP6d   Q4n  1 4.300000e-01    5.414000e+00
  SP6d  SQ4n  1 4.100000e-01    7.351000e+00
  SP6d  TQ4n  1 3.650000e-01    9.758000e+00
  SP5d   Q4n  1 4.300000e-01    5.160000e+00
  SP5d  SQ4n  1 4.100000e-01    6.990000e+00
  SP5d  TQ4n  1 3.650000e-01    9.321000e+00
  SP4d   Q4n  1 4.300000e-01    5.144000e+00
  SP4d  SQ4n  1 4.100000e-01    6.910000e+00
  SP4d  TQ4n  1 3.650000e-01    9.153000e+00
  SP3d   Q4n  1 4.300000e-01    5.135000e+00
  SP3d  SQ4n  1 4.100000e-01    6.862000e+00
  SP3d  TQ4n  1 3.650000e-01    9.052000e+00
  SP2d   Q4n  1 4.300000e-01    4.848000e+00
  SP2d  SQ4n  1 4.100000e-01    6.568000e+00
  SP2d  TQ4n  1 3.650000e-01    8.692000e+00
  SP1d   Q4n  1 4.300000e-01    4.613000e+00
  SP1d  SQ4n  1 4.100000e-01    6.292000e+00
  SP1d  TQ4n  1 3.650000e-01    8.348000e+00
  SN6d   Q4n  1 4.300000e-01    4.607000e+00
  SN6d  SQ4n  1 4.100000e-01    6.263000e+00
  SN6d  TQ4n  1 3.650000e-01    8.287000e+00
  SN5d   Q4n  1 4.300000e-01    4.601000e+00
  SN5d  SQ4n  1 4.100000e-01    6.229000e+00
  SN5d  TQ4n  1 3.650000e-01    8.217000e+00
  SN4d   Q4n  1 4.300000e-01    4.393000e+00
  SN4d  SQ4n  1 4.100000e-01    5.969000e+00
  SN4d  TQ4n  1 3.650000e-01    7.861000e+00
  SN3d   Q4n  1 4.300000e-01    4.183000e+00
  SN3d  SQ4n  1 4.100000e-01    5.647000e+00
  SN3d  TQ4n  1 3.650000e-01    7.484000e+00
  SN2d   Q4n  1 4.300000e-01    4.169000e+00
  SN2d  SQ4n  1 4.100000e-01    5.580000e+00
  SN2d  TQ4n  1 3.650000e-01    7.342000e+00
  SN1d   Q4n  1 4.300000e-01    4.150000e+00
  SN1d  SQ4n  1 4.100000e-01    5.482000e+00
  SN1d  TQ4n  1 3.650000e-01    7.139000e+00
  SP6a   Q4n  1 4.300000e-01    4.664000e+00
  SP6a  SQ4n  1 4.100000e-01    6.551000e+00
  SP6a  TQ4n  1 3.650000e-01    8.888000e+00
  SP5a   Q4n  1 4.300000e-01    4.450000e+00
  SP5a  SQ4n  1 4.100000e-01    6.260000e+00
  SP5a  TQ4n  1 3.650000e-01    8.471000e+00
  SP4a   Q4n  1 4.300000e-01    4.434000e+00
  SP4a  SQ4n  1 4.100000e-01    6.180000e+00
  SP4a  TQ4n  1 3.650000e-01    8.303000e+00
  SP3a   Q4n  1 4.300000e-01    4.425000e+00
  SP3a  SQ4n  1 4.100000e-01    6.132000e+00
  SP3a  TQ4n  1 3.650000e-01    8.202000e+00
  SP2a   Q4n  1 4.300000e-01    4.218000e+00
  SP2a  SQ4n  1 4.100000e-01    5.828000e+00
  SP2a  TQ4n  1 3.650000e-01    7.862000e+00
  SP1a   Q4n  1 4.300000e-01    4.033000e+00
  SP1a  SQ4n  1 4.100000e-01    5.562000e+00
  SP1a  TQ4n  1 3.650000e-01    7.538000e+00
  SN6a   Q4n  1 4.300000e-01    4.027000e+00
  SN6a  SQ4n  1 4.100000e-01    5.533000e+00
  SN6a  TQ4n  1 3.650000e-01    7.477000e+00
  SN5a   Q4n  1 4.300000e-01    4.021000e+00
  SN5a  SQ4n  1 4.100000e-01    5.499000e+00
  SN5a  TQ4n  1 3.650000e-01    7.407000e+00
  SN4a   Q4n  1 4.300000e-01    3.803000e+00
  SN4a  SQ4n  1 4.100000e-01    5.219000e+00
  SN4a  TQ4n  1 3.650000e-01    7.061000e+00
  SN3a   Q4n  1 4.300000e-01    3.573000e+00
  SN3a  SQ4n  1 4.100000e-01    4.937000e+00
  SN3a  TQ4n  1 3.650000e-01    6.724000e+00
  SN2a   Q4n  1 4.300000e-01    3.559000e+00
  SN2a  SQ4n  1 4.100000e-01    4.870000e+00
  SN2a  TQ4n  1 3.650000e-01    6.582000e+00
  SN1a   Q4n  1 4.300000e-01    3.540000e+00
  SN1a  SQ4n  1 4.100000e-01    4.772000e+00
  SN1a  TQ4n  1 3.650000e-01    6.379000e+00
  SC6v   Q4n  1 4.300000e-01    3.280000e+00
  SC6v  SQ4n  1 4.100000e-01    4.377000e+00
  SC6v  TQ4n  1 3.650000e-01    5.823000e+00
  SC5v   Q4n  1 4.300000e-01    2.646000e+00
  SC5v  SQ4n  1 4.100000e-01    3.695000e+00
  SC5v  TQ4n  1 3.660000e-01    5.049000e+00
  SC4v   Q4n  1 4.300000e-01    2.450000e+00
  SC4v  SQ4n  1 4.100000e-01    3.384000e+00
  SC4v  TQ4n  1 3.780000e-01    4.425000e+00
  SC3v   Q4n  1 4.300000e-01    2.161000e+00
  SC3v  SQ4n  1 4.100000e-01    2.926000e+00
  SC3v  TQ4n  1 3.940000e-01    3.568000e+00
  SC2v   Q4n  1 4.730000e-01    1.448000e+00
  SC2v  SQ4n  1 4.210000e-01    2.165000e+00
  SC2v  TQ4n  1 4.230000e-01    2.675000e+00
  SC1v   Q4n  1 4.730000e-01    1.385000e+00
  SC1v  SQ4n  1 4.210000e-01    1.820000e+00
  SC1v  TQ4n  1 4.230000e-01    2.036000e+00
  SX4v   Q4n  1 4.300000e-01    3.287000e+00
  SX4v  SQ4n  1 4.100000e-01    4.215000e+00
  SX4v  TQ4n  1 3.650000e-01    5.808000e+00
  SX3v   Q4n  1 4.300000e-01    2.880000e+00
  SX3v  SQ4n  1 4.100000e-01    3.977000e+00
  SX3v  TQ4n  1 3.650000e-01    5.463000e+00
  SX2v   Q4n  1 4.300000e-01    2.630000e+00
  SX2v  SQ4n  1 4.100000e-01    3.614000e+00
  SX2v  TQ4n  1 3.660000e-01    4.881000e+00
  SX1v   Q4n  1 4.300000e-01    2.391000e+00
  SX1v  SQ4n  1 4.100000e-01    3.086000e+00
  SX1v  TQ4n  1 3.780000e-01    3.824000e+00
  SC6e   Q4n  1 4.300000e-01    2.670000e+00
  SC6e  SQ4n  1 4.100000e-01    3.817000e+00
  SC6e  TQ4n  1 3.660000e-01    5.303000e+00
  SC5e   Q4n  1 4.300000e-01    2.056000e+00
  SC5e  SQ4n  1 4.140000e-01    3.199000e+00
  SC5e  TQ4n  1 4.040000e-01    4.255000e+00
  SC4e   Q4n  1 4.430000e-01    1.762000e+00
  SC4e  SQ4n  1 4.180000e-01    2.846000e+00
  SC4e  TQ4n  1 4.090000e-01    3.830000e+00
  SC3e   Q4n  1 4.730000e-01    1.490000e+00
  SC3e  SQ4n  1 4.210000e-01    2.396000e+00
  SC3e  TQ4n  1 4.230000e-01    3.103000e+00
  SC2e   Q4n  1 5.520000e-01    1.154000e+00
  SC2e  SQ4n  1 5.350000e-01    1.706000e+00
  SC2e  TQ4n  1 5.880000e-01    1.982000e+00
  SC1e   Q4n  1 5.520000e-01    1.100000e+00
  SC1e  SQ4n  1 5.350000e-01    1.434000e+00
  SC1e  TQ4n  1 5.880000e-01    1.522000e+00
  SX4e   Q4n  1 4.300000e-01    2.527000e+00
  SX4e  SQ4n  1 4.100000e-01    3.775000e+00
  SX4e  TQ4n  1 3.780000e-01    5.214000e+00
  SX3e   Q4n  1 4.300000e-01    2.280000e+00
  SX3e  SQ4n  1 4.100000e-01    3.527000e+00
  SX3e  TQ4n  1 3.940000e-01    4.730000e+00
  SX2e   Q4n  1 4.300000e-01    2.040000e+00
  SX2e  SQ4n  1 4.140000e-01    3.119000e+00
  SX2e  TQ4n  1 4.040000e-01    4.103000e+00
  SX1e   Q4n  1 4.430000e-01    1.705000e+00
  SX1e  SQ4n  1 4.180000e-01    2.554000e+00
  SX1e  TQ4n  1 4.090000e-01    3.274000e+00
  SP6q   Q4n  1 4.300000e-01    6.004000e+00
  SP6q  SQ4n  1 4.100000e-01    7.641000e+00
  SP6q  TQ4n  1 3.650000e-01    1.010800e+01
  SP5q   Q4n  1 4.300000e-01    5.990000e+00
  SP5q  SQ4n  1 4.100000e-01    7.570000e+00
  SP5q  TQ4n  1 3.650000e-01    9.961000e+00
  SP4q   Q4n  1 4.300000e-01    5.974000e+00
  SP4q  SQ4n  1 4.100000e-01    7.490000e+00
  SP4q  TQ4n  1 3.650000e-01    9.793000e+00
  SP3q   Q4n  1 4.300000e-01    5.965000e+00
  SP3q  SQ4n  1 4.100000e-01    7.442000e+00
  SP3q  TQ4n  1 3.650000e-01    9.692000e+00
  SP2q   Q4n  1 4.300000e-01    5.658000e+00
  SP2q  SQ4n  1 4.100000e-01    7.118000e+00
  SP2q  TQ4n  1 3.650000e-01    9.272000e+00
  SP1q   Q4n  1 4.300000e-01    5.363000e+00
  SP1q  SQ4n  1 4.100000e-01    6.802000e+00
  SP1q  TQ4n  1 3.650000e-01    8.928000e+00
  SN6q   Q4n  1 4.300000e-01    5.357000e+00
  SN6q  SQ4n  1 4.100000e-01    6.773000e+00
  SN6q  TQ4n  1 3.650000e-01    8.867000e+00
  SN5q   Q4n  1 4.300000e-01    5.351000e+00
  SN5q  SQ4n  1 4.100000e-01    6.739000e+00
  SN5q  TQ4n  1 3.650000e-01    8.797000e+00
  SN4q   Q4n  1 4.300000e-01    5.103000e+00
  SN4q  SQ4n  1 4.100000e-01    6.439000e+00
  SN4q  TQ4n  1 3.650000e-01    8.421000e+00
  SN3q   Q4n  1 4.300000e-01    4.813000e+00
  SN3q  SQ4n  1 4.100000e-01    6.137000e+00
  SN3q  TQ4n  1 3.650000e-01    8.024000e+00
  SN2q   Q4n  1 4.300000e-01    4.799000e+00
  SN2q  SQ4n  1 4.100000e-01    6.070000e+00
  SN2q  TQ4n  1 3.650000e-01    7.882000e+00
  SN1q   Q4n  1 4.300000e-01    4.780000e+00
  SN1q  SQ4n  1 4.100000e-01    5.972000e+00
  SN1q  TQ4n  1 3.650000e-01    7.679000e+00
  SC6q   Q4n  1 4.300000e-01    3.730000e+00
  SC6q  SQ4n  1 4.100000e-01    4.617000e+00
  SC6q  TQ4n  1 3.650000e-01    6.053000e+00
  SC5q   Q4n  1 4.300000e-01    3.096000e+00
  SC5q  SQ4n  1 4.100000e-01    3.855000e+00
  SC5q  TQ4n  1 3.650000e-01    5.209000e+00
  SC4q   Q4n  1 4.300000e-01    2.820000e+00
  SC4q  SQ4n  1 4.100000e-01    3.514000e+00
  SC4q  TQ4n  1 3.660000e-01    4.673000e+00
  SC3q   Q4n  1 4.300000e-01    2.551000e+00
  SC3q  SQ4n  1 4.100000e-01    3.086000e+00
  SC3q  TQ4n  1 3.780000e-01    3.824000e+00
  SC2q   Q4n  1 4.300000e-01    1.915000e+00
  SC2q  SQ4n  1 4.180000e-01    2.321000e+00
  SC2q  TQ4n  1 4.090000e-01    2.832000e+00
  SC1q   Q4n  1 4.300000e-01    1.845000e+00
  SC1q  SQ4n  1 4.180000e-01    1.974000e+00
  SC1q  TQ4n  1 4.090000e-01    2.172000e+00
  SX4q   Q4n  1 4.300000e-01    3.527000e+00
  SX4q  SQ4n  1 4.100000e-01    4.465000e+00
  SX4q  TQ4n  1 3.650000e-01    6.008000e+00
  SX3q   Q4n  1 4.300000e-01    3.270000e+00
  SX3q  SQ4n  1 4.100000e-01    4.127000e+00
  SX3q  TQ4n  1 3.650000e-01    5.623000e+00
  SX2q   Q4n  1 4.300000e-01    3.080000e+00
  SX2q  SQ4n  1 4.100000e-01    3.774000e+00
  SX2q  TQ4n  1 3.650000e-01    5.040000e+00
  SX1q   Q4n  1 4.300000e-01    2.761000e+00
  SX1q  SQ4n  1 4.100000e-01    3.216000e+00
  SX1q  TQ4n  1 3.660000e-01    4.052000e+00
 SP6dq   Q4n  1 4.300000e-01    5.704000e+00
 SP6dq  SQ4n  1 4.100000e-01    7.641000e+00
 SP6dq  TQ4n  1 3.650000e-01    1.010800e+01
 SP5dq   Q4n  1 4.300000e-01    5.690000e+00
 SP5dq  SQ4n  1 4.100000e-01    7.570000e+00
 SP5dq  TQ4n  1 3.650000e-01    9.961000e+00
 SP4dq   Q4n  1 4.300000e-01    5.674000e+00
 SP4dq  SQ4n  1 4.100000e-01    7.490000e+00
 SP4dq  TQ4n  1 3.650000e-01    9.793000e+00
 SP3dq   Q4n  1 4.300000e-01    5.665000e+00
 SP3dq  SQ4n  1 4.100000e-01    7.442000e+00
 SP3dq  TQ4n  1 3.650000e-01    9.692000e+00
 SP2dq   Q4n  1 4.300000e-01    5.658000e+00
 SP2dq  SQ4n  1 4.100000e-01    7.408000e+00
 SP2dq  TQ4n  1 3.650000e-01    9.622000e+00
 SP1dq   Q4n  1 4.300000e-01    5.363000e+00
 SP1dq  SQ4n  1 4.100000e-01    7.092000e+00
 SP1dq  TQ4n  1 3.650000e-01    9.218000e+00
 SN6dq   Q4n  1 4.300000e-01    5.357000e+00
 SN6dq  SQ4n  1 4.100000e-01    7.063000e+00
 SN6dq  TQ4n  1 3.650000e-01    9.157000e+00
 SN5dq   Q4n  1 4.300000e-01    5.351000e+00
 SN5dq  SQ4n  1 4.100000e-01    7.029000e+00
 SN5dq  TQ4n  1 3.650000e-01    9.087000e+00
 SN4dq   Q4n  1 4.300000e-01    5.103000e+00
 SN4dq  SQ4n  1 4.100000e-01    6.699000e+00
 SN4dq  TQ4n  1 3.650000e-01    8.711000e+00
 SN3dq   Q4n  1 4.300000e-01    4.813000e+00
 SN3dq  SQ4n  1 4.100000e-01    6.387000e+00
 SN3dq  TQ4n  1 3.650000e-01    8.314000e+00
 SN2dq   Q4n  1 4.300000e-01    4.799000e+00
 SN2dq  SQ4n  1 4.100000e-01    6.320000e+00
 SN2dq  TQ4n  1 3.650000e-01    8.172000e+00
 SN1dq   Q4n  1 4.300000e-01    4.780000e+00
 SN1dq  SQ4n  1 4.100000e-01    6.222000e+00
 SN1dq  TQ4n  1 3.650000e-01    7.969000e+00
 SP6aq   Q4n  1 4.300000e-01    5.414000e+00
 SP6aq  SQ4n  1 4.100000e-01    7.351000e+00
 SP6aq  TQ4n  1 3.650000e-01    9.758000e+00
 SP5aq   Q4n  1 4.300000e-01    5.160000e+00
 SP5aq  SQ4n  1 4.100000e-01    6.990000e+00
 SP5aq  TQ4n  1 3.650000e-01    9.321000e+00
 SP4aq   Q4n  1 4.300000e-01    5.144000e+00
 SP4aq  SQ4n  1 4.100000e-01    6.910000e+00
 SP4aq  TQ4n  1 3.650000e-01    9.153000e+00
 SP3aq   Q4n  1 4.300000e-01    5.135000e+00
 SP3aq  SQ4n  1 4.100000e-01    6.862000e+00
 SP3aq  TQ4n  1 3.650000e-01    9.052000e+00
 SP2aq   Q4n  1 4.300000e-01    4.848000e+00
 SP2aq  SQ4n  1 4.100000e-01    6.568000e+00
 SP2aq  TQ4n  1 3.650000e-01    8.692000e+00
 SP1aq   Q4n  1 4.300000e-01    4.613000e+00
 SP1aq  SQ4n  1 4.100000e-01    6.292000e+00
 SP1aq  TQ4n  1 3.650000e-01    8.348000e+00
 SN6aq   Q4n  1 4.300000e-01    4.607000e+00
 SN6aq  SQ4n  1 4.100000e-01    6.263000e+00
 SN6aq  TQ4n  1 3.650000e-01    8.287000e+00
 SN5aq   Q4n  1 4.300000e-01    4.601000e+00
 SN5aq  SQ4n  1 4.100000e-01    6.229000e+00
 SN5aq  TQ4n  1 3.650000e-01    8.217000e+00
 SN4aq   Q4n  1 4.300000e-01    4.393000e+00
 SN4aq  SQ4n  1 4.100000e-01    5.969000e+00
 SN4aq  TQ4n  1 3.650000e-01    7.861000e+00
 SN3aq   Q4n  1 4.300000e-01    4.183000e+00
 SN3aq  SQ4n  1 4.100000e-01    5.647000e+00
 SN3aq  TQ4n  1 3.650000e-01    7.484000e+00
 SN2aq   Q4n  1 4.300000e-01    4.169000e+00
 SN2aq  SQ4n  1 4.100000e-01    5.580000e+00
 SN2aq  TQ4n  1 3.650000e-01    7.342000e+00
 SN1aq   Q4n  1 4.300000e-01    4.150000e+00
 SN1aq  SQ4n  1 4.100000e-01    5.482000e+00
 SN1aq  TQ4n  1 3.650000e-01    7.139000e+00
 SC6vq   Q4n  1 4.300000e-01    3.940000e+00
 SC6vq  SQ4n  1 4.100000e-01    5.087000e+00
 SC6vq  TQ4n  1 3.650000e-01    6.543000e+00
 SC5vq   Q4n  1 4.300000e-01    3.256000e+00
 SC5vq  SQ4n  1 4.100000e-01    4.255000e+00
 SC5vq  TQ4n  1 3.650000e-01    5.569000e+00
 SC4vq   Q4n  1 4.300000e-01    3.210000e+00
 SC4vq  SQ4n  1 4.100000e-01    3.824000e+00
 SC4vq  TQ4n  1 3.650000e-01    4.991000e+00
 SC3vq   Q4n  1 4.300000e-01    2.761000e+00
 SC3vq  SQ4n  1 4.100000e-01    3.376000e+00
 SC3vq  TQ4n  1 3.650000e-01    4.209000e+00
 SC2vq   Q4n  1 4.730000e-01    1.448000e+00
 SC2vq  SQ4n  1 4.210000e-01    2.165000e+00
 SC2vq  TQ4n  1 4.230000e-01    2.675000e+00
 SC1vq   Q4n  1 4.730000e-01    1.385000e+00
 SC1vq  SQ4n  1 4.210000e-01    1.820000e+00
 SC1vq  TQ4n  1 4.230000e-01    2.036000e+00
 SX4vq   Q4n  1 4.300000e-01    3.747000e+00
 SX4vq  SQ4n  1 4.100000e-01    4.935000e+00
 SX4vq  TQ4n  1 3.650000e-01    6.468000e+00
 SX3vq   Q4n  1 4.300000e-01    3.510000e+00
 SX3vq  SQ4n  1 4.100000e-01    4.617000e+00
 SX3vq  TQ4n  1 3.650000e-01    6.053000e+00
 SX2vq   Q4n  1 4.300000e-01    3.240000e+00
 SX2vq  SQ4n  1 4.100000e-01    4.174000e+00
 SX2vq  TQ4n  1 3.650000e-01    5.400000e+00
 SX1vq   Q4n  1 4.300000e-01    3.151000e+00
 SX1vq  SQ4n  1 4.100000e-01    3.526000e+00
 SX1vq  TQ4n  1 3.650000e-01    4.369000e+00
 SC6eq   Q4n  1 4.300000e-01    3.280000e+00
 SC6eq  SQ4n  1 4.100000e-01    4.377000e+00
 SC6eq  TQ4n  1 3.650000e-01    5.823000e+00
 SC5eq   Q4n  1 4.300000e-01    2.646000e+00
 SC5eq  SQ4n  1 4.100000e-01    3.695000e+00
 SC5eq  TQ4n  1 3.660000e-01    5.049000e+00
 SC4eq   Q4n  1 4.300000e-01    2.450000e+00
 SC4eq  SQ4n  1 4.100000e-01    3.384000e+00
 SC4eq  TQ4n  1 3.780000e-01    4.425000e+00
 SC3eq   Q4n  1 4.300000e-01    2.161000e+00
 SC3eq  SQ4n  1 4.100000e-01    2.926000e+00
 SC3eq  TQ4n  1 3.940000e-01    3.568000e+00
 SC2eq   Q4n  1 4.730000e-01    1.448000e+00
 SC2eq  SQ4n  1 4.210000e-01    2.165000e+00
 SC2eq  TQ4n  1 4.230000e-01    2.675000e+00
 SC1eq   Q4n  1 4.730000e-01    1.385000e+00
 SC1eq  SQ4n  1 4.210000e-01    1.820000e+00
 SC1eq  TQ4n  1 4.230000e-01    2.036000e+00
 SX4eq   Q4n  1 4.300000e-01    3.287000e+00
 SX4eq  SQ4n  1 4.100000e-01    4.215000e+00
 SX4eq  TQ4n  1 3.650000e-01    5.808000e+00
 SX3eq   Q4n  1 4.300000e-01    2.880000e+00
 SX3eq  SQ4n  1 4.100000e-01    3.977000e+00
 SX3eq  TQ4n  1 3.650000e-01    5.463000e+00
 SX2eq   Q4n  1 4.300000e-01    2.630000e+00
 SX2eq  SQ4n  1 4.100000e-01    3.614000e+00
 SX2eq  TQ4n  1 3.660000e-01    4.881000e+00
 SX1eq   Q4n  1 4.300000e-01    2.391000e+00
 SX1eq  SQ4n  1 4.100000e-01    3.086000e+00
 SX1eq  TQ4n  1 3.780000e-01    3.824000e+00
  SP6h   Q4n  1 4.300000e-01    5.414000e+00
  SP6h  SQ4n  1 4.100000e-01    7.061000e+00
  SP6h  TQ4n  1 3.650000e-01    9.468000e+00
  SP5h   Q4n  1 4.300000e-01    5.160000e+00
  SP5h  SQ4n  1 4.100000e-01    6.730000e+00
  SP5h  TQ4n  1 3.650000e-01    9.031000e+00
  SP4h   Q4n  1 4.300000e-01    5.144000e+00
  SP4h  SQ4n  1 4.100000e-01    6.650000e+00
  SP4h  TQ4n  1 3.650000e-01    8.863000e+00
  SP3h   Q4n  1 4.300000e-01    5.135000e+00
  SP3h  SQ4n  1 4.100000e-01    6.602000e+00
  SP3h  TQ4n  1 3.650000e-01    8.762000e+00
  SP2h   Q4n  1 4.300000e-01    4.848000e+00
  SP2h  SQ4n  1 4.100000e-01    6.318000e+00
  SP2h  TQ4n  1 3.650000e-01    8.402000e+00
  SP1h   Q4n  1 4.300000e-01    4.613000e+00
  SP1h  SQ4n  1 4.100000e-01    6.072000e+00
  SP1h  TQ4n  1 3.650000e-01    8.078000e+00
  SN6h   Q4n  1 4.300000e-01    4.607000e+00
  SN6h  SQ4n  1 4.100000e-01    6.043000e+00
  SN6h  TQ4n  1 3.650000e-01    8.017000e+00
  SN5h   Q4n  1 4.300000e-01    4.601000e+00
  SN5h  SQ4n  1 4.100000e-01    6.009000e+00
  SN5h  TQ4n  1 3.650000e-01    7.947000e+00
  SN4h   Q4n  1 4.300000e-01    4.393000e+00
  SN4h  SQ4n  1 4.100000e-01    5.699000e+00
  SN4h  TQ4n  1 3.650000e-01    7.591000e+00
  SN3h   Q4n  1 4.300000e-01    4.183000e+00
  SN3h  SQ4n  1 4.100000e-01    5.407000e+00
  SN3h  TQ4n  1 3.650000e-01    7.214000e+00
  SN2h   Q4n  1 4.300000e-01    4.169000e+00
  SN2h  SQ4n  1 4.100000e-01    5.340000e+00
  SN2h  TQ4n  1 3.650000e-01    7.072000e+00
  SN1h   Q4n  1 4.300000e-01    4.150000e+00
  SN1h  SQ4n  1 4.100000e-01    5.242000e+00
  SN1h  TQ4n  1 3.650000e-01    6.869000e+00
  SC6h   Q4n  1 4.300000e-01    3.120000e+00
  SC6h  SQ4n  1 4.100000e-01    3.977000e+00
  SC6h  TQ4n  1 3.650000e-01    5.463000e+00
  SC5h   Q4n  1 4.300000e-01    2.486000e+00
  SC5h  SQ4n  1 4.100000e-01    3.405000e+00
  SC5h  TQ4n  1 3.940000e-01    4.494000e+00
  SC4h   Q4n  1 4.300000e-01    2.220000e+00
  SC4h  SQ4n  1 4.140000e-01    3.020000e+00
  SC4h  TQ4n  1 4.040000e-01    3.914000e+00
  SC3h   Q4n  1 4.300000e-01    1.961000e+00
  SC3h  SQ4n  1 4.180000e-01    2.554000e+00
  SC3h  TQ4n  1 4.090000e-01    3.274000e+00
  SC2h   Q4n  1 5.140000e-01    1.265000e+00
  SC2h  SQ4n  1 4.960000e-01    1.827000e+00
  SC2h  TQ4n  1 5.370000e-01    2.143000e+00
  SC1h   Q4n  1 5.140000e-01    1.206000e+00
  SC1h  SQ4n  1 4.960000e-01    1.534000e+00
  SC1h  TQ4n  1 5.370000e-01    1.639000e+00
  SX4h   Q4n  1 4.300000e-01    2.897000e+00
  SX4h  SQ4n  1 4.100000e-01    3.905000e+00
  SX4h  TQ4n  1 3.660000e-01    5.487000e+00
  SX3h   Q4n  1 4.300000e-01    2.670000e+00
  SX3h  SQ4n  1 4.100000e-01    3.687000e+00
  SX3h  TQ4n  1 3.780000e-01    5.036000e+00
  SX2h   Q4n  1 4.300000e-01    2.470000e+00
  SX2h  SQ4n  1 4.100000e-01    3.324000e+00
  SX2h  TQ4n  1 3.940000e-01    4.338000e+00
  SX1h   Q4n  1 4.300000e-01    2.161000e+00
  SX1h  SQ4n  1 4.140000e-01    2.725000e+00
  SX1h  TQ4n  1 4.040000e-01    3.351000e+00
 SP6dh   Q4n  1 4.300000e-01    5.414000e+00
 SP6dh  SQ4n  1 4.100000e-01    7.351000e+00
 SP6dh  TQ4n  1 3.650000e-01    9.758000e+00
 SP5dh   Q4n  1 4.300000e-01    5.160000e+00
 SP5dh  SQ4n  1 4.100000e-01    6.990000e+00
 SP5dh  TQ4n  1 3.650000e-01    9.321000e+00
 SP4dh   Q4n  1 4.300000e-01    5.144000e+00
 SP4dh  SQ4n  1 4.100000e-01    6.910000e+00
 SP4dh  TQ4n  1 3.650000e-01    9.153000e+00
 SP3dh   Q4n  1 4.300000e-01    5.135000e+00
 SP3dh  SQ4n  1 4.100000e-01    6.862000e+00
 SP3dh  TQ4n  1 3.650000e-01    9.052000e+00
 SP2dh   Q4n  1 4.300000e-01    4.848000e+00
 SP2dh  SQ4n  1 4.100000e-01    6.568000e+00
 SP2dh  TQ4n  1 3.650000e-01    8.692000e+00
 SP1dh   Q4n  1 4.300000e-01    4.613000e+00
 SP1dh  SQ4n  1 4.100000e-01    6.292000e+00
 SP1dh  TQ4n  1 3.650000e-01    8.348000e+00
 SN6dh   Q4n  1 4.300000e-01    4.607000e+00
 SN6dh  SQ4n  1 4.100000e-01    6.263000e+00
 SN6dh  TQ4n  1 3.650000e-01    8.287000e+00
 SN5dh   Q4n  1 4.300000e-01    4.601000e+00
 SN5dh  SQ4n  1 4.100000e-01    6.229000e+00
 SN5dh  TQ4n  1 3.650000e-01    8.217000e+00
 SN4dh   Q4n  1 4.300000e-01    4.393000e+00
 SN4dh  SQ4n  1 4.100000e-01    5.969000e+00
 SN4dh  TQ4n  1 3.650000e-01    7.861000e+00
 SN3dh   Q4n  1 4.300000e-01    4.183000e+00
 SN3dh  SQ4n  1 4.100000e-01    5.647000e+00
 SN3dh  TQ4n  1 3.650000e-01    7.484000e+00
 SN2dh   Q4n  1 4.300000e-01    4.169000e+00
 SN2dh  SQ4n  1 4.100000e-01    5.580000e+00
 SN2dh  TQ4n  1 3.650000e-01    7.342000e+00
 SN1dh   Q4n  1 4.300000e-01    4.150000e+00
 SN1dh  SQ4n  1 4.100000e-01    5.482000e+00
 SN1dh  TQ4n  1 3.650000e-01    7.139000e+00
 SP6ah   Q4n  1 4.300000e-01    4.664000e+00
 SP6ah  SQ4n  1 4.100000e-01    6.551000e+00
 SP6ah  TQ4n  1 3.650000e-01    8.888000e+00
 SP5ah   Q4n  1 4.300000e-01    4.450000e+00
 SP5ah  SQ4n  1 4.100000e-01    6.260000e+00
 SP5ah  TQ4n  1 3.650000e-01    8.471000e+00
 SP4ah   Q4n  1 4.300000e-01    4.434000e+00
 SP4ah  SQ4n  1 4.100000e-01    6.180000e+00
 SP4ah  TQ4n  1 3.650000e-01    8.303000e+00
 SP3ah   Q4n  1 4.300000e-01    4.425000e+00
 SP3ah  SQ4n  1 4.100000e-01    6.132000e+00
 SP3ah  TQ4n  1 3.650000e-01    8.202000e+00
 SP2ah   Q4n  1 4.300000e-01    4.218000e+00
 SP2ah  SQ4n  1 4.100000e-01    5.828000e+00
 SP2ah  TQ4n  1 3.650000e-01    7.862000e+00
 SP1ah   Q4n  1 4.300000e-01    4.033000e+00
 SP1ah  SQ4n  1 4.100000e-01    5.562000e+00
 SP1ah  TQ4n  1 3.650000e-01    7.538000e+00
 SN6ah   Q4n  1 4.300000e-01    4.027000e+00
 SN6ah  SQ4n  1 4.100000e-01    5.533000e+00
 SN6ah  TQ4n  1 3.650000e-01    7.477000e+00
 SN5ah   Q4n  1 4.300000e-01    4.021000e+00
 SN5ah  SQ4n  1 4.100000e-01    5.499000e+00
 SN5ah  TQ4n  1 3.650000e-01    7.407000e+00
 SN4ah   Q4n  1 4.300000e-01    3.803000e+00
 SN4ah  SQ4n  1 4.100000e-01    5.219000e+00
 SN4ah  TQ4n  1 3.650000e-01    7.061000e+00
 SN3ah   Q4n  1 4.300000e-01    3.573000e+00
 SN3ah  SQ4n  1 4.100000e-01    4.937000e+00
 SN3ah  TQ4n  1 3.650000e-01    6.724000e+00
 SN2ah   Q4n  1 4.300000e-01    3.559000e+00
 SN2ah  SQ4n  1 4.100000e-01    4.870000e+00
 SN2ah  TQ4n  1 3.650000e-01    6.582000e+00
 SN1ah   Q4n  1 4.300000e-01    3.540000e+00
 SN1ah  SQ4n  1 4.100000e-01    4.772000e+00
 SN1ah  TQ4n  1 3.650000e-01    6.379000e+00
 SC6vh   Q4n  1 4.300000e-01    3.280000e+00
 SC6vh  SQ4n  1 4.100000e-01    4.377000e+00
 SC6vh  TQ4n  1 3.650000e-01    5.823000e+00
 SC5vh   Q4n  1 4.300000e-01    2.646000e+00
 SC5vh  SQ4n  1 4.100000e-01    3.695000e+00
 SC5vh  TQ4n  1 3.660000e-01    5.049000e+00
 SC4vh   Q4n  1 4.300000e-01    2.450000e+00
 SC4vh  SQ4n  1 4.100000e-01    3.384000e+00
 SC4vh  TQ4n  1 3.780000e-01    4.425000e+00
 SC3vh   Q4n  1 4.300000e-01    2.161000e+00
 SC3vh  SQ4n  1 4.100000e-01    2.926000e+00
 SC3vh  TQ4n  1 3.940000e-01    3.568000e+00
 SC2vh   Q4n  1 4.730000e-01    1.448000e+00
 SC2vh  SQ4n  1 4.210000e-01    2.165000e+00
 SC2vh  TQ4n  1 4.230000e-01    2.675000e+00
 SC1vh   Q4n  1 4.730000e-01    1.385000e+00
 SC1vh  SQ4n  1 4.210000e-01    1.820000e+00
 SC1vh  TQ4n  1 4.230000e-01    2.036000e+00
 SX4vh   Q4n  1 4.300000e-01    3.287000e+00
 SX4vh  SQ4n  1 4.100000e-01    4.215000e+00
 SX4vh  TQ4n  1 3.650000e-01    5.808000e+00
 SX3vh   Q4n  1 4.300000e-01    2.880000e+00
 SX3vh  SQ4n  1 4.100000e-01    3.977000e+00
 SX3vh  TQ4n  1 3.650000e-01    5.463000e+00
 SX2vh   Q4n  1 4.300000e-01    2.630000e+00
 SX2vh  SQ4n  1 4.100000e-01    3.614000e+00
 SX2vh  TQ4n  1 3.660000e-01    4.881000e+00
 SX1vh   Q4n  1 4.300000e-01    2.391000e+00
 SX1vh  SQ4n  1 4.100000e-01    3.086000e+00
 SX1vh  TQ4n  1 3.780000e-01    3.824000e+00
 SC6eh   Q4n  1 4.300000e-01    2.670000e+00
 SC6eh  SQ4n  1 4.100000e-01    3.817000e+00
 SC6eh  TQ4n  1 3.660000e-01    5.303000e+00
 SC5eh   Q4n  1 4.300000e-01    2.056000e+00
 SC5eh  SQ4n  1 4.140000e-01    3.199000e+00
 SC5eh  TQ4n  1 4.040000e-01    4.255000e+00
 SC4eh   Q4n  1 4.430000e-01    1.762000e+00
 SC4eh  SQ4n  1 4.180000e-01    2.846000e+00
 SC4eh  TQ4n  1 4.090000e-01    3.830000e+00
 SC3eh   Q4n  1 4.730000e-01    1.490000e+00
 SC3eh  SQ4n  1 4.210000e-01    2.396000e+00
 SC3eh  TQ4n  1 4.230000e-01    3.103000e+00
 SC2eh   Q4n  1 5.520000e-01    1.154000e+00
 SC2eh  SQ4n  1 5.350000e-01    1.706000e+00
 SC2eh  TQ4n  1 5.880000e-01    1.982000e+00
 SC1eh   Q4n  1 5.520000e-01    1.100000e+00
 SC1eh  SQ4n  1 5.350000e-01    1.434000e+00
 SC1eh  TQ4n  1 5.880000e-01    1.522000e+00
 SX4eh   Q4n  1 4.300000e-01    2.527000e+00
 SX4eh  SQ4n  1 4.100000e-01    3.775000e+00
 SX4eh  TQ4n  1 3.780000e-01    5.214000e+00
 SX3eh   Q4n  1 4.300000e-01    2.280000e+00
 SX3eh  SQ4n  1 4.100000e-01    3.527000e+00
 SX3eh  TQ4n  1 3.940000e-01    4.730000e+00
 SX2eh   Q4n  1 4.300000e-01    2.040000e+00
 SX2eh  SQ4n  1 4.140000e-01    3.119000e+00
 SX2eh  TQ4n  1 4.040000e-01    4.103000e+00
 SX1eh   Q4n  1 4.430000e-01    1.705000e+00
 SX1eh  SQ4n  1 4.180000e-01    2.554000e+00
 SX1eh  TQ4n  1 4.090000e-01    3.274000e+00
  SP6r   Q4n  1 4.300000e-01    5.414000e+00
  SP6r  SQ4n  1 4.100000e-01    7.061000e+00
  SP6r  TQ4n  1 3.650000e-01    9.468000e+00
  SP5r   Q4n  1 4.300000e-01    5.160000e+00
  SP5r  SQ4n  1 4.100000e-01    6.730000e+00
  SP5r  TQ4n  1 3.650000e-01    9.031000e+00
  SP4r   Q4n  1 4.300000e-01    5.144000e+00
  SP4r  SQ4n  1 4.100000e-01    6.650000e+00
  SP4r  TQ4n  1 3.650000e-01    8.863000e+00
  SP3r   Q4n  1 4.300000e-01    5.135000e+00
  SP3r  SQ4n  1 4.100000e-01    6.602000e+00
  SP3r  TQ4n  1 3.650000e-01    8.762000e+00
  SP2r   Q4n  1 4.300000e-01    4.848000e+00
  SP2r  SQ4n  1 4.100000e-01    6.318000e+00
  SP2r  TQ4n  1 3.650000e-01    8.402000e+00
  SP1r   Q4n  1 4.300000e-01    4.613000e+00
  SP1r  SQ4n  1 4.100000e-01    6.072000e+00
  SP1r  TQ4n  1 3.650000e-01    8.078000e+00
  SN6r   Q4n  1 4.300000e-01    4.607000e+00
  SN6r  SQ4n  1 4.100000e-01    6.043000e+00
  SN6r  TQ4n  1 3.650000e-01    8.017000e+00
  SN5r   Q4n  1 4.300000e-01    4.601000e+00
  SN5r  SQ4n  1 4.100000e-01    6.009000e+00
  SN5r  TQ4n  1 3.650000e-01    7.947000e+00
  SN4r   Q4n  1 4.300000e-01    4.393000e+00
  SN4r  SQ4n  1 4.100000e-01    5.699000e+00
  SN4r  TQ4n  1 3.650000e-01    7.591000e+00
  SN3r   Q4n  1 4.300000e-01    4.183000e+00
  SN3r  SQ4n  1 4.100000e-01    5.407000e+00
  SN3r  TQ4n  1 3.650000e-01    7.214000e+00
  SN2r   Q4n  1 4.300000e-01    4.169000e+00
  SN2r  SQ4n  1 4.100000e-01    5.340000e+00
  SN2r  TQ4n  1 3.650000e-01    7.072000e+00
  SN1r   Q4n  1 4.300000e-01    4.150000e+00
  SN1r  SQ4n  1 4.100000e-01    5.242000e+00
  SN1r  TQ4n  1 3.650000e-01    6.869000e+00
  SC6r   Q4n  1 4.300000e-01    3.120000e+00
  SC6r  SQ4n  1 4.100000e-01    3.977000e+00
  SC6r  TQ4n  1 3.650000e-01    5.463000e+00
  SC5r   Q4n  1 4.300000e-01    2.486000e+00
  SC5r  SQ4n  1 4.100000e-01    3.405000e+00
  SC5r  TQ4n  1 3.940000e-01    4.494000e+00
  SC4r   Q4n  1 4.300000e-01    2.220000e+00
  SC4r  SQ4n  1 4.140000e-01    3.020000e+00
  SC4r  TQ4n  1 4.040000e-01    3.914000e+00
  SC3r   Q4n  1 4.300000e-01    1.961000e+00
  SC3r  SQ4n  1 4.180000e-01    2.554000e+00
  SC3r  TQ4n  1 4.090000e-01    3.274000e+00
  SC2r   Q4n  1 5.140000e-01    1.265000e+00
  SC2r  SQ4n  1 4.960000e-01    1.827000e+00
  SC2r  TQ4n  1 5.370000e-01    2.143000e+00
  SC1r   Q4n  1 5.140000e-01    1.206000e+00
  SC1r  SQ4n  1 4.960000e-01    1.534000e+00
  SC1r  TQ4n  1 5.370000e-01    1.639000e+00
  SX4r   Q4n  1 4.300000e-01    2.897000e+00
  SX4r  SQ4n  1 4.100000e-01    3.905000e+00
  SX4r  TQ4n  1 3.660000e-01    5.487000e+00
  SX3r   Q4n  1 4.300000e-01    2.670000e+00
  SX3r  SQ4n  1 4.100000e-01    3.687000e+00
  SX3r  TQ4n  1 3.780000e-01    5.036000e+00
  SX2r   Q4n  1 4.300000e-01    2.470000e+00
  SX2r  SQ4n  1 4.100000e-01    3.324000e+00
  SX2r  TQ4n  1 3.940000e-01    4.338000e+00
  SX1r   Q4n  1 4.300000e-01    2.161000e+00
  SX1r  SQ4n  1 4.140000e-01    2.725000e+00
  SX1r  TQ4n  1 4.040000e-01    3.351000e+00
 SP6dr   Q4n  1 4.300000e-01    5.414000e+00
 SP6dr  SQ4n  1 4.100000e-01    7.351000e+00
 SP6dr  TQ4n  1 3.650000e-01    9.758000e+00
 SP5dr   Q4n  1 4.300000e-01    5.160000e+00
 SP5dr  SQ4n  1 4.100000e-01    6.990000e+00
 SP5dr  TQ4n  1 3.650000e-01    9.321000e+00
 SP4dr   Q4n  1 4.300000e-01    5.144000e+00
 SP4dr  SQ4n  1 4.100000e-01    6.910000e+00
 SP4dr  TQ4n  1 3.650000e-01    9.153000e+00
 SP3dr   Q4n  1 4.300000e-01    5.135000e+00
 SP3dr  SQ4n  1 4.100000e-01    6.862000e+00
 SP3dr  TQ4n  1 3.650000e-01    9.052000e+00
 SP2dr   Q4n  1 4.300000e-01    4.848000e+00
 SP2dr  SQ4n  1 4.100000e-01    6.568000e+00
 SP2dr  TQ4n  1 3.650000e-01    8.692000e+00
 SP1dr   Q4n  1 4.300000e-01    4.613000e+00
 SP1dr  SQ4n  1 4.100000e-01    6.292000e+00
 SP1dr  TQ4n  1 3.650000e-01    8.348000e+00
 SN6dr   Q4n  1 4.300000e-01    4.607000e+00
 SN6dr  SQ4n  1 4.100000e-01    6.263000e+00
 SN6dr  TQ4n  1 3.650000e-01    8.287000e+00
 SN5dr   Q4n  1 4.300000e-01    4.601000e+00
 SN5dr  SQ4n  1 4.100000e-01    6.229000e+00
 SN5dr  TQ4n  1 3.650000e-01    8.217000e+00
 SN4dr   Q4n  1 4.300000e-01    4.393000e+00
 SN4dr  SQ4n  1 4.100000e-01    5.969000e+00
 SN4dr  TQ4n  1 3.650000e-01    7.861000e+00
 SN3dr   Q4n  1 4.300000e-01    4.183000e+00
 SN3dr  SQ4n  1 4.100000e-01    5.647000e+00
 SN3dr  TQ4n  1 3.650000e-01    7.484000e+00
 SN2dr   Q4n  1 4.300000e-01    4.169000e+00
 SN2dr  SQ4n  1 4.100000e-01    5.580000e+00
 SN2dr  TQ4n  1 3.650000e-01    7.342000e+00
 SN1dr   Q4n  1 4.300000e-01    4.150000e+00
 SN1dr  SQ4n  1 4.100000e-01    5.482000e+00
 SN1dr  TQ4n  1 3.650000e-01    7.139000e+00
 SP6ar   Q4n  1 4.300000e-01    4.664000e+00
 SP6ar  SQ4n  1 4.100000e-01    6.551000e+00
 SP6ar  TQ4n  1 3.650000e-01    8.888000e+00
 SP5ar   Q4n  1 4.300000e-01    4.450000e+00
 SP5ar  SQ4n  1 4.100000e-01    6.260000e+00
 SP5ar  TQ4n  1 3.650000e-01    8.471000e+00
 SP4ar   Q4n  1 4.300000e-01    4.434000e+00
 SP4ar  SQ4n  1 4.100000e-01    6.180000e+00
 SP4ar  TQ4n  1 3.650000e-01    8.303000e+00
 SP3ar   Q4n  1 4.300000e-01    4.425000e+00
 SP3ar  SQ4n  1 4.100000e-01    6.132000e+00
 SP3ar  TQ4n  1 3.650000e-01    8.202000e+00
 SP2ar   Q4n  1 4.300000e-01    4.218000e+00
 SP2ar  SQ4n  1 4.100000e-01    5.828000e+00
 SP2ar  TQ4n  1 3.650000e-01    7.862000e+00
 SP1ar   Q4n  1 4.300000e-01    4.033000e+00
 SP1ar  SQ4n  1 4.100000e-01    5.562000e+00
 SP1ar  TQ4n  1 3.650000e-01    7.538000e+00
 SN6ar   Q4n  1 4.300000e-01    4.027000e+00
 SN6ar  SQ4n  1 4.100000e-01    5.533000e+00
 SN6ar  TQ4n  1 3.650000e-01    7.477000e+00
 SN5ar   Q4n  1 4.300000e-01    4.021000e+00
 SN5ar  SQ4n  1 4.100000e-01    5.499000e+00
 SN5ar  TQ4n  1 3.650000e-01    7.407000e+00
 SN4ar   Q4n  1 4.300000e-01    3.803000e+00
 SN4ar  SQ4n  1 4.100000e-01    5.219000e+00
 SN4ar  TQ4n  1 3.650000e-01    7.061000e+00
 SN3ar   Q4n  1 4.300000e-01    3.573000e+00
 SN3ar  SQ4n  1 4.100000e-01    4.937000e+00
 SN3ar  TQ4n  1 3.650000e-01    6.724000e+00
 SN2ar   Q4n  1 4.300000e-01    3.559000e+00
 SN2ar  SQ4n  1 4.100000e-01    4.870000e+00
 SN2ar  TQ4n  1 3.650000e-01    6.582000e+00
 SN1ar   Q4n  1 4.300000e-01    3.540000e+00
 SN1ar  SQ4n  1 4.100000e-01    4.772000e+00
 SN1ar  TQ4n  1 3.650000e-01    6.379000e+00
 SC6vr   Q4n  1 4.300000e-01    3.280000e+00
 SC6vr  SQ4n  1 4.100000e-01    4.377000e+00
 SC6vr  TQ4n  1 3.650000e-01    5.823000e+00
 SC5vr   Q4n  1 4.300000e-01    2.646000e+00
 SC5vr  SQ4n  1 4.100000e-01    3.695000e+00
 SC5vr  TQ4n  1 3.660000e-01    5.049000e+00
 SC4vr   Q4n  1 4.300000e-01    2.450000e+00
 SC4vr  SQ4n  1 4.100000e-01    3.384000e+00
 SC4vr  TQ4n  1 3.780000e-01    4.425000e+00
 SC3vr   Q4n  1 4.300000e-01    2.161000e+00
 SC3vr  SQ4n  1 4.100000e-01    2.926000e+00
 SC3vr  TQ4n  1 3.940000e-01    3.568000e+00
 SC2vr   Q4n  1 4.730000e-01    1.448000e+00
 SC2vr  SQ4n  1 4.210000e-01    2.165000e+00
 SC2vr  TQ4n  1 4.230000e-01    2.675000e+00
 SC1vr   Q4n  1 4.730000e-01    1.385000e+00
 SC1vr  SQ4n  1 4.210000e-01    1.820000e+00
 SC1vr  TQ4n  1 4.230000e-01    2.036000e+00
 SX4vr   Q4n  1 4.300000e-01    3.287000e+00
 SX4vr  SQ4n  1 4.100000e-01    4.215000e+00
 SX4vr  TQ4n  1 3.650000e-01    5.808000e+00
 SX3vr   Q4n  1 4.300000e-01    2.880000e+00
 SX3vr  SQ4n  1 4.100000e-01    3.977000e+00
 SX3vr  TQ4n  1 3.650000e-01    5.463000e+00
 SX2vr   Q4n  1 4.300000e-01    2.630000e+00
 SX2vr  SQ4n  1 4.100000e-01    3.614000e+00
 SX2vr  TQ4n  1 3.660000e-01    4.881000e+00
 SX1vr   Q4n  1 4.300000e-01    2.391000e+00
 SX1vr  SQ4n  1 4.100000e-01    3.086000e+00
 SX1vr  TQ4n  1 3.780000e-01    3.824000e+00
 SC6er   Q4n  1 4.300000e-01    2.670000e+00
 SC6er  SQ4n  1 4.100000e-01    3.817000e+00
 SC6er  TQ4n  1 3.660000e-01    5.303000e+00
 SC5er   Q4n  1 4.300000e-01    2.056000e+00
 SC5er  SQ4n  1 4.140000e-01    3.199000e+00
 SC5er  TQ4n  1 4.040000e-01    4.255000e+00
 SC4er   Q4n  1 4.430000e-01    1.762000e+00
 SC4er  SQ4n  1 4.180000e-01    2.846000e+00
 SC4er  TQ4n  1 4.090000e-01    3.830000e+00
 SC3er   Q4n  1 4.730000e-01    1.490000e+00
 SC3er  SQ4n  1 4.210000e-01    2.396000e+00
 SC3er  TQ4n  1 4.230000e-01    3.103000e+00
 SC2er   Q4n  1 5.520000e-01    1.154000e+00
 SC2er  SQ4n  1 5.350000e-01    1.706000e+00
 SC2er  TQ4n  1 5.880000e-01    1.982000e+00
 SC1er   Q4n  1 5.520000e-01    1.100000e+00
 SC1er  SQ4n  1 5.350000e-01    1.434000e+00
 SC1er  TQ4n  1 5.880000e-01    1.522000e+00
 SX4er   Q4n  1 4.300000e-01    2.527000e+00
 SX4er  SQ4n  1 4.100000e-01    3.775000e+00
 SX4er  TQ4n  1 3.780000e-01    5.214000e+00
 SX3er   Q4n  1 4.300000e-01    2.280000e+00
 SX3er  SQ4n  1 4.100000e-01    3.527000e+00
 SX3er  TQ4n  1 3.940000e-01    4.730000e+00
 SX2er   Q4n  1 4.300000e-01    2.040000e+00
 SX2er  SQ4n  1 4.140000e-01    3.119000e+00
 SX2er  TQ4n  1 4.040000e-01    4.103000e+00
 SX1er   Q4n  1 4.430000e-01    1.705000e+00
 SX1er  SQ4n  1 4.180000e-01    2.554000e+00
 SX1er  TQ4n  1 4.090000e-01    3.274000e+00
   TP6   Q4n  1 3.950000e-01    4.949000e+00
   TP6  SQ4n  1 3.650000e-01    6.464000e+00
   TP6  TQ4n  1 3.400000e-01    8.688000e+00
   TP5   Q4n  1 3.950000e-01    4.626000e+00
   TP5  SQ4n  1 3.650000e-01    6.103000e+00
   TP5  TQ4n  1 3.400000e-01    8.251000e+00
   TP4   Q4n  1 3.950000e-01    4.612000e+00
   TP4  SQ4n  1 3.650000e-01    6.024000e+00
   TP4  TQ4n  1 3.400000e-01    8.077000e+00
   TP3   Q4n  1 3.950000e-01    4.603000e+00
   TP3  SQ4n  1 3.650000e-01    5.978000e+00
   TP3  TQ4n  1 3.400000e-01    7.976000e+00
   TP2   Q4n  1 3.950000e-01    4.277000e+00
   TP2  SQ4n  1 3.650000e-01    5.656000e+00
   TP2  TQ4n  1 3.400000e-01    7.655000e+00
   TP1   Q4n  1 3.950000e-01    4.033000e+00
   TP1  SQ4n  1 3.650000e-01    5.362000e+00
   TP1  TQ4n  1 3.400000e-01    7.372000e+00
   TN6   Q4n  1 3.950000e-01    4.028000e+00
   TN6  SQ4n  1 3.650000e-01    5.335000e+00
   TN6  TQ4n  1 3.400000e-01    7.312000e+00
   TN5   Q4n  1 3.950000e-01    4.022000e+00
   TN5  SQ4n  1 3.650000e-01    5.303000e+00
   TN5  TQ4n  1 3.400000e-01    7.243000e+00
   TN4   Q4n  1 3.950000e-01    3.775000e+00
   TN4  SQ4n  1 3.650000e-01    4.996000e+00
   TN4  TQ4n  1 3.400000e-01    6.911000e+00
   TN3   Q4n  1 3.950000e-01    3.527000e+00
   TN3  SQ4n  1 3.650000e-01    4.679000e+00
   TN3  TQ4n  1 3.400000e-01    6.568000e+00
   TN2   Q4n  1 3.950000e-01    3.516000e+00
   TN2  SQ4n  1 3.650000e-01    4.618000e+00
   TN2  TQ4n  1 3.400000e-01    6.433000e+00
   TN1   Q4n  1 3.950000e-01    3.500000e+00
   TN1  SQ4n  1 3.650000e-01    4.531000e+00
   TN1  TQ4n  1 3.400000e-01    6.242000e+00
   TC6   Q4n  1 3.950000e-01    2.395000e+00
   TC6  SQ4n  1 3.650000e-01    3.312000e+00
   TC6  TQ4n  1 3.400000e-01    4.666000e+00
   TC5   Q4n  1 3.980000e-01    1.713000e+00
   TC5  SQ4n  1 3.940000e-01    2.636000e+00
   TC5  TQ4n  1 3.850000e-01    3.678000e+00
   TC4   Q4n  1 3.990000e-01    1.413000e+00
   TC4  SQ4n  1 4.040000e-01    2.298000e+00
   TC4  TQ4n  1 4.110000e-01    3.154000e+00
   TC3   Q4n  1 4.010000e-01    1.168000e+00
   TC3  SQ4n  1 4.090000e-01    1.998000e+00
   TC3  TQ4n  1 4.240000e-01    2.591000e+00
   TC2   Q4n  1 5.110000e-01    7.740000e-01
   TC2  SQ4n  1 5.370000e-01    1.365000e+00
   TC2  TQ4n  1 5.610000e-01    1.722000e+00
   TC1   Q4n  1 5.110000e-01    7.300000e-01
   TC1  SQ4n  1 5.370000e-01    1.151000e+00
   TC1  TQ4n  1 5.610000e-01    1.304000e+00
   TX4   Q4n  1 3.950000e-01    2.149000e+00
   TX4  SQ4n  1 3.660000e-01    3.236000e+00
   TX4  TQ4n  1 3.520000e-01    4.536000e+00
   TX3   Q4n  1 3.950000e-01    1.955000e+00
   TX3  SQ4n  1 3.780000e-01    2.958000e+00
   TX3  TQ4n  1 3.660000e-01    4.127000e+00
   TX2   Q4n  1 3.980000e-01    1.700000e+00
   TX2  SQ4n  1 3.940000e-01    2.570000e+00
   TX2  TQ4n  1 3.850000e-01    3.539000e+00
   TX1   Q4n  1 3.990000e-01    1.366000e+00
   TX1  SQ4n  1 4.040000e-01    2.059000e+00
   TX1  TQ4n  1 4.110000e-01    2.673000e+00
  TP6d   Q4n  1 3.950000e-01    5.279000e+00
  TP6d  SQ4n  1 3.650000e-01    6.754000e+00
  TP6d  TQ4n  1 3.400000e-01    9.238000e+00
  TP5d   Q4n  1 3.950000e-01    4.936000e+00
  TP5d  SQ4n  1 3.650000e-01    6.393000e+00
  TP5d  TQ4n  1 3.400000e-01    8.801000e+00
  TP4d   Q4n  1 3.950000e-01    4.922000e+00
  TP4d  SQ4n  1 3.650000e-01    6.314000e+00
  TP4d  TQ4n  1 3.400000e-01    8.627000e+00
  TP3d   Q4n  1 3.950000e-01    4.913000e+00
  TP3d  SQ4n  1 3.650000e-01    6.268000e+00
  TP3d  TQ4n  1 3.400000e-01    8.526000e+00
  TP2d   Q4n  1 3.950000e-01    4.597000e+00
  TP2d  SQ4n  1 3.650000e-01    5.946000e+00
  TP2d  TQ4n  1 3.400000e-01    8.185000e+00
  TP1d   Q4n  1 3.950000e-01    4.273000e+00
  TP1d  SQ4n  1 3.650000e-01    5.632000e+00
  TP1d  TQ4n  1 3.400000e-01    7.852000e+00
  TN6d   Q4n  1 3.950000e-01    4.268000e+00
  TN6d  SQ4n  1 3.650000e-01    5.605000e+00
  TN6d  TQ4n  1 3.400000e-01    7.792000e+00
  TN5d   Q4n  1 3.950000e-01    4.262000e+00
  TN5d  SQ4n  1 3.650000e-01    5.573000e+00
  TN5d  TQ4n  1 3.400000e-01    7.723000e+00
  TN4d   Q4n  1 3.950000e-01    4.015000e+00
  TN4d  SQ4n  1 3.650000e-01    5.266000e+00
  TN4d  TQ4n  1 3.400000e-01    7.391000e+00
  TN3d   Q4n  1 3.950000e-01    3.767000e+00
  TN3d  SQ4n  1 3.650000e-01    4.949000e+00
  TN3d  TQ4n  1 3.400000e-01    7.058000e+00
  TN2d   Q4n  1 3.950000e-01    3.756000e+00
  TN2d  SQ4n  1 3.650000e-01    4.888000e+00
  TN2d  TQ4n  1 3.400000e-01    6.923000e+00
  TN1d   Q4n  1 3.950000e-01    3.740000e+00
  TN1d  SQ4n  1 3.650000e-01    4.801000e+00
  TN1d  TQ4n  1 3.400000e-01    6.732000e+00
  TP6a   Q4n  1 3.950000e-01    4.319000e+00
  TP6a  SQ4n  1 3.650000e-01    5.884000e+00
  TP6a  TQ4n  1 3.400000e-01    8.158000e+00
  TP5a   Q4n  1 3.950000e-01    4.066000e+00
  TP5a  SQ4n  1 3.650000e-01    5.543000e+00
  TP5a  TQ4n  1 3.400000e-01    7.771000e+00
  TP4a   Q4n  1 3.950000e-01    4.052000e+00
  TP4a  SQ4n  1 3.650000e-01    5.464000e+00
  TP4a  TQ4n  1 3.400000e-01    7.597000e+00
  TP3a   Q4n  1 3.950000e-01    4.043000e+00
  TP3a  SQ4n  1 3.650000e-01    5.418000e+00
  TP3a  TQ4n  1 3.400000e-01    7.496000e+00
  TP2a   Q4n  1 3.950000e-01    3.797000e+00
  TP2a  SQ4n  1 3.650000e-01    5.116000e+00
  TP2a  TQ4n  1 3.400000e-01    7.175000e+00
  TP1a   Q4n  1 3.950000e-01    3.553000e+00
  TP1a  SQ4n  1 3.650000e-01    4.822000e+00
  TP1a  TQ4n  1 3.400000e-01    6.882000e+00
  TN6a   Q4n  1 3.950000e-01    3.548000e+00
  TN6a  SQ4n  1 3.650000e-01    4.795000e+00
  TN6a  TQ4n  1 3.400000e-01    6.822000e+00
  TN5a   Q4n  1 3.950000e-01    3.542000e+00
  TN5a  SQ4n  1 3.650000e-01    4.763000e+00
  TN5a  TQ4n  1 3.400000e-01    6.753000e+00
  TN4a   Q4n  1 3.950000e-01    3.285000e+00
  TN4a  SQ4n  1 3.650000e-01    4.466000e+00
  TN4a  TQ4n  1 3.400000e-01    6.451000e+00
  TN3a   Q4n  1 3.950000e-01    3.037000e+00
  TN3a  SQ4n  1 3.650000e-01    4.189000e+00
  TN3a  TQ4n  1 3.400000e-01    6.088000e+00
  TN2a   Q4n  1 3.950000e-01    3.026000e+00
  TN2a  SQ4n  1 3.650000e-01    4.128000e+00
  TN2a  TQ4n  1 3.400000e-01    5.953000e+00
  TN1a   Q4n  1 3.950000e-01    3.010000e+00
  TN1a  SQ4n  1 3.650000e-01    4.041000e+00
  TN1a  TQ4n  1 3.400000e-01    5.762000e+00
  TC6v   Q4n  1 3.950000e-01    2.785000e+00
  TC6v  SQ4n  1 3.650000e-01    3.672000e+00
  TC6v  TQ4n  1 3.400000e-01    5.456000e+00
  TC5v   Q4n  1 3.950000e-01    2.115000e+00
  TC5v  SQ4n  1 3.660000e-01    3.049000e+00
  TC5v  TQ4n  1 3.400000e-01    4.427000e+00
  TC4v   Q4n  1 3.950000e-01    1.906000e+00
  TC4v  SQ4n  1 3.780000e-01    2.698000e+00
  TC4v  TQ4n  1 3.660000e-01    3.577000e+00
  TC3v   Q4n  1 3.980000e-01    1.636000e+00
  TC3v  SQ4n  1 3.940000e-01    2.243000e+00
  TC3v  TQ4n  1 3.850000e-01    2.854000e+00
  TC2v   Q4n  1 4.040000e-01    9.760000e-01
  TC2v  SQ4n  1 4.230000e-01    1.688000e+00
  TC2v  TQ4n  1 4.240000e-01    2.221000e+00
  TC1v   Q4n  1 4.040000e-01    9.200000e-01
  TC1v  SQ4n  1 4.230000e-01    1.417000e+00
  TC1v  TQ4n  1 4.240000e-01    1.667000e+00
  TX4v   Q4n  1 3.950000e-01    2.609000e+00
  TX4v  SQ4n  1 3.650000e-01    3.550000e+00
  TX4v  TQ4n  1 3.400000e-01    5.379000e+00
  TX3v   Q4n  1 3.950000e-01    2.395000e+00
  TX3v  SQ4n  1 3.650000e-01    3.312000e+00
  TX3v  TQ4n  1 3.400000e-01    4.946000e+00
  TX2v   Q4n  1 3.950000e-01    2.102000e+00
  TX2v  SQ4n  1 3.660000e-01    2.978000e+00
  TX2v  TQ4n  1 3.400000e-01    4.270000e+00
  TX1v   Q4n  1 3.950000e-01    1.857000e+00
  TX1v  SQ4n  1 3.780000e-01    2.443000e+00
  TX1v  TQ4n  1 3.660000e-01    3.038000e+00
  TC6e   Q4n  1 3.950000e-01    2.135000e+00
  TC6e  SQ4n  1 3.660000e-01    3.157000e+00
  TC6e  TQ4n  1 3.520000e-01    4.368000e+00
  TC5e   Q4n  1 3.990000e-01    1.442000e+00
  TC5e  SQ4n  1 4.040000e-01    2.443000e+00
  TC5e  TQ4n  1 4.110000e-01    3.446000e+00
  TC4e   Q4n  1 4.010000e-01    1.215000e+00
  TC4e  SQ4n  1 4.090000e-01    2.234000e+00
  TC4e  TQ4n  1 4.240000e-01    3.057000e+00
  TC3e   Q4n  1 4.040000e-01    1.013000e+00
  TC3e  SQ4n  1 4.230000e-01    1.869000e+00
  TC3e  TQ4n  1 4.380000e-01    2.488000e+00
  TC2e   Q4n  1 5.240000e-01    7.410000e-01
  TC2e  SQ4n  1 5.880000e-01    1.271000e+00
  TC2e  TQ4n  1 5.990000e-01    1.643000e+00
  TC1e   Q4n  1 5.240000e-01    6.980000e-01
  TC1e  SQ4n  1 5.880000e-01    1.077000e+00
  TC1e  TQ4n  1 5.990000e-01    1.251000e+00
  TX4e   Q4n  1 3.950000e-01    1.969000e+00
  TX4e  SQ4n  1 3.780000e-01    3.034000e+00
  TX4e  TQ4n  1 3.660000e-01    4.288000e+00
  TX3e   Q4n  1 3.980000e-01    1.732000e+00
  TX3e  SQ4n  1 3.940000e-01    2.737000e+00
  TX3e  TQ4n  1 3.850000e-01    3.889000e+00
  TX2e   Q4n  1 3.990000e-01    1.429000e+00
  TX2e  SQ4n  1 4.040000e-01    2.378000e+00
  TX2e  TQ4n  1 4.110000e-01    3.316000e+00
  TX1e   Q4n  1 4.010000e-01    1.168000e+00
  TX1e  SQ4n  1 4.090000e-01    1.998000e+00
  TX1e  TQ4n  1 4.240000e-01    2.591000e+00
  TP6q   Q4n  1 3.950000e-01    5.679000e+00
  TP6q  SQ4n  1 3.650000e-01    7.104000e+00
  TP6q  TQ4n  1 3.400000e-01    9.238000e+00
  TP5q   Q4n  1 3.950000e-01    5.666000e+00
  TP5q  SQ4n  1 3.650000e-01    7.033000e+00
  TP5q  TQ4n  1 3.400000e-01    9.081000e+00
  TP4q   Q4n  1 3.950000e-01    5.652000e+00
  TP4q  SQ4n  1 3.650000e-01    6.954000e+00
  TP4q  TQ4n  1 3.400000e-01    8.907000e+00
  TP3q   Q4n  1 3.950000e-01    5.643000e+00
  TP3q  SQ4n  1 3.650000e-01    6.908000e+00
  TP3q  TQ4n  1 3.400000e-01    8.806000e+00
  TP2q   Q4n  1 3.950000e-01    5.237000e+00
  TP2q  SQ4n  1 3.650000e-01    6.526000e+00
  TP2q  TQ4n  1 3.400000e-01    8.455000e+00
  TP1q   Q4n  1 3.950000e-01    4.903000e+00
  TP1q  SQ4n  1 3.650000e-01    6.212000e+00
  TP1q  TQ4n  1 3.400000e-01    8.132000e+00
  TN6q   Q4n  1 3.950000e-01    4.898000e+00
  TN6q  SQ4n  1 3.650000e-01    6.185000e+00
  TN6q  TQ4n  1 3.400000e-01    8.072000e+00
  TN5q   Q4n  1 3.950000e-01    4.892000e+00
  TN5q  SQ4n  1 3.650000e-01    6.153000e+00
  TN5q  TQ4n  1 3.400000e-01    8.003000e+00
  TN4q   Q4n  1 3.950000e-01    4.575000e+00
  TN4q  SQ4n  1 3.650000e-01    5.826000e+00
  TN4q  TQ4n  1 3.400000e-01    7.641000e+00
  TN3q   Q4n  1 3.950000e-01    4.247000e+00
  TN3q  SQ4n  1 3.650000e-01    5.489000e+00
  TN3q  TQ4n  1 3.400000e-01    7.288000e+00
  TN2q   Q4n  1 3.950000e-01    4.236000e+00
  TN2q  SQ4n  1 3.650000e-01    5.428000e+00
  TN2q  TQ4n  1 3.400000e-01    7.153000e+00
  TN1q   Q4n  1 3.950000e-01    4.220000e+00
  TN1q  SQ4n  1 3.650000e-01    5.341000e+00
  TN1q  TQ4n  1 3.400000e-01    6.962000e+00
  TC6q   Q4n  1 3.950000e-01    2.985000e+00
  TC6q  SQ4n  1 3.650000e-01    3.902000e+00
  TC6q  TQ4n  1 3.400000e-01    5.456000e+00
  TC5q   Q4n  1 3.950000e-01    2.375000e+00
  TC5q  SQ4n  1 3.650000e-01    3.203000e+00
  TC5q  TQ4n  1 3.400000e-01    4.427000e+00
  TC4q   Q4n  1 3.950000e-01    2.086000e+00
  TC4q  SQ4n  1 3.660000e-01    2.889000e+00
  TC4q  TQ4n  1 3.520000e-01    3.797000e+00
  TC3q   Q4n  1 3.950000e-01    1.857000e+00
  TC3q  SQ4n  1 3.780000e-01    2.443000e+00
  TC3q  TQ4n  1 3.660000e-01    3.038000e+00
  TC2q   Q4n  1 4.010000e-01    1.130000e+00
  TC2q  SQ4n  1 4.090000e-01    1.811000e+00
  TC2q  TQ4n  1 4.240000e-01    2.221000e+00
  TC1q   Q4n  1 4.010000e-01    1.074000e+00
  TC1q  SQ4n  1 4.090000e-01    1.531000e+00
  TC1q  TQ4n  1 4.240000e-01    1.667000e+00
  TX4q   Q4n  1 3.950000e-01    2.799000e+00
  TX4q  SQ4n  1 3.650000e-01    3.750000e+00
  TX4q  TQ4n  1 3.400000e-01    5.379000e+00
  TX3q   Q4n  1 3.950000e-01    2.595000e+00
  TX3q  SQ4n  1 3.650000e-01    3.472000e+00
  TX3q  TQ4n  1 3.400000e-01    4.946000e+00
  TX2q   Q4n  1 3.950000e-01    2.362000e+00
  TX2q  SQ4n  1 3.650000e-01    3.132000e+00
  TX2q  TQ4n  1 3.400000e-01    4.270000e+00
  TX1q   Q4n  1 3.950000e-01    2.037000e+00
  TX1q  SQ4n  1 3.660000e-01    2.626000e+00
  TX1q  TQ4n  1 3.520000e-01    3.236000e+00
 TP6dq   Q4n  1 3.950000e-01    5.679000e+00
 TP6dq  SQ4n  1 3.650000e-01    7.104000e+00
 TP6dq  TQ4n  1 3.400000e-01    9.238000e+00
 TP5dq   Q4n  1 3.950000e-01    5.666000e+00
 TP5dq  SQ4n  1 3.650000e-01    7.033000e+00
 TP5dq  TQ4n  1 3.400000e-01    9.081000e+00
 TP4dq   Q4n  1 3.950000e-01    5.652000e+00
 TP4dq  SQ4n  1 3.650000e-01    6.954000e+00
 TP4dq  TQ4n  1 3.400000e-01    8.907000e+00
 TP3dq   Q4n  1 3.950000e-01    5.643000e+00
 TP3dq  SQ4n  1 3.650000e-01    6.908000e+00
 TP3dq  TQ4n  1 3.400000e-01    8.806000e+00
 TP2dq   Q4n  1 3.950000e-01    5.637000e+00
 TP2dq  SQ4n  1 3.650000e-01    6.876000e+00
 TP2dq  TQ4n  1 3.400000e-01    8.735000e+00
 TP1dq   Q4n  1 3.950000e-01    5.233000e+00
 TP1dq  SQ4n  1 3.650000e-01    6.502000e+00
 TP1dq  TQ4n  1 3.400000e-01    8.682000e+00
 TN6dq   Q4n  1 3.950000e-01    5.228000e+00
 TN6dq  SQ4n  1 3.650000e-01    6.475000e+00
 TN6dq  TQ4n  1 3.400000e-01    8.622000e+00
 TN5dq   Q4n  1 3.950000e-01    5.222000e+00
 TN5dq  SQ4n  1 3.650000e-01    6.443000e+00
 TN5dq  TQ4n  1 3.400000e-01    8.553000e+00
 TN4dq   Q4n  1 3.950000e-01    4.885000e+00
 TN4dq  SQ4n  1 3.650000e-01    6.116000e+00
 TN4dq  TQ4n  1 3.400000e-01    8.191000e+00
 TN3dq   Q4n  1 3.950000e-01    4.567000e+00
 TN3dq  SQ4n  1 3.650000e-01    5.779000e+00
 TN3dq  TQ4n  1 3.400000e-01    7.818000e+00
 TN2dq   Q4n  1 3.950000e-01    4.556000e+00
 TN2dq  SQ4n  1 3.650000e-01    5.718000e+00
 TN2dq  TQ4n  1 3.400000e-01    7.683000e+00
 TN1dq   Q4n  1 3.950000e-01    4.540000e+00
 TN1dq  SQ4n  1 3.650000e-01    5.631000e+00
 TN1dq  TQ4n  1 3.400000e-01    7.492000e+00
 TP6aq   Q4n  1 3.950000e-01    5.279000e+00
 TP6aq  SQ4n  1 3.650000e-01    6.754000e+00
 TP6aq  TQ4n  1 3.400000e-01    8.958000e+00
 TP5aq   Q4n  1 3.950000e-01    4.936000e+00
 TP5aq  SQ4n  1 3.650000e-01    6.393000e+00
 TP5aq  TQ4n  1 3.400000e-01    8.531000e+00
 TP4aq   Q4n  1 3.950000e-01    4.922000e+00
 TP4aq  SQ4n  1 3.650000e-01    6.314000e+00
 TP4aq  TQ4n  1 3.400000e-01    8.357000e+00
 TP3aq   Q4n  1 3.950000e-01    4.913000e+00
 TP3aq  SQ4n  1 3.650000e-01    6.268000e+00
 TP3aq  TQ4n  1 3.400000e-01    8.256000e+00
 TP2aq   Q4n  1 3.950000e-01    4.597000e+00
 TP2aq  SQ4n  1 3.650000e-01    5.946000e+00
 TP2aq  TQ4n  1 3.400000e-01    7.905000e+00
 TP1aq   Q4n  1 3.950000e-01    4.273000e+00
 TP1aq  SQ4n  1 3.650000e-01    5.632000e+00
 TP1aq  TQ4n  1 3.400000e-01    7.602000e+00
 TN6aq   Q4n  1 3.950000e-01    4.268000e+00
 TN6aq  SQ4n  1 3.650000e-01    5.605000e+00
 TN6aq  TQ4n  1 3.400000e-01    7.542000e+00
 TN5aq   Q4n  1 3.950000e-01    4.262000e+00
 TN5aq  SQ4n  1 3.650000e-01    5.573000e+00
 TN5aq  TQ4n  1 3.400000e-01    7.473000e+00
 TN4aq   Q4n  1 3.950000e-01    4.015000e+00
 TN4aq  SQ4n  1 3.650000e-01    5.266000e+00
 TN4aq  TQ4n  1 3.400000e-01    7.161000e+00
 TN3aq   Q4n  1 3.950000e-01    3.767000e+00
 TN3aq  SQ4n  1 3.650000e-01    4.949000e+00
 TN3aq  TQ4n  1 3.400000e-01    6.808000e+00
 TN2aq   Q4n  1 3.950000e-01    3.756000e+00
 TN2aq  SQ4n  1 3.650000e-01    4.888000e+00
 TN2aq  TQ4n  1 3.400000e-01    6.673000e+00
 TN1aq   Q4n  1 3.950000e-01    3.740000e+00
 TN1aq  SQ4n  1 3.650000e-01    4.801000e+00
 TN1aq  TQ4n  1 3.400000e-01    6.482000e+00
 TC6vq   Q4n  1 3.950000e-01    3.475000e+00
 TC6vq  SQ4n  1 3.650000e-01    4.392000e+00
 TC6vq  TQ4n  1 3.400000e-01    6.176000e+00
 TC5vq   Q4n  1 3.950000e-01    2.765000e+00
 TC5vq  SQ4n  1 3.650000e-01    3.563000e+00
 TC5vq  TQ4n  1 3.400000e-01    5.217000e+00
 TC4vq   Q4n  1 3.950000e-01    2.546000e+00
 TC4vq  SQ4n  1 3.650000e-01    3.203000e+00
 TC4vq  TQ4n  1 3.400000e-01    4.614000e+00
 TC3vq   Q4n  1 3.950000e-01    2.297000e+00
 TC3vq  SQ4n  1 3.650000e-01    2.779000e+00
 TC3vq  TQ4n  1 3.400000e-01    3.773000e+00
 TC2vq   Q4n  1 4.040000e-01    9.760000e-01
 TC2vq  SQ4n  1 4.230000e-01    1.688000e+00
 TC2vq  TQ4n  1 4.240000e-01    2.221000e+00
 TC1vq   Q4n  1 4.040000e-01    9.200000e-01
 TC1vq  SQ4n  1 4.230000e-01    1.417000e+00
 TC1vq  TQ4n  1 4.240000e-01    1.667000e+00
 TX4vq   Q4n  1 3.950000e-01    3.239000e+00
 TX4vq  SQ4n  1 3.650000e-01    4.210000e+00
 TX4vq  TQ4n  1 3.400000e-01    6.109000e+00
 TX3vq   Q4n  1 3.950000e-01    2.985000e+00
 TX3vq  SQ4n  1 3.650000e-01    3.902000e+00
 TX3vq  TQ4n  1 3.400000e-01    5.716000e+00
 TX2vq   Q4n  1 3.950000e-01    2.752000e+00
 TX2vq  SQ4n  1 3.650000e-01    3.492000e+00
 TX2vq  TQ4n  1 3.400000e-01    5.060000e+00
 TX1vq   Q4n  1 3.950000e-01    2.497000e+00
 TX1vq  SQ4n  1 3.650000e-01    2.939000e+00
 TX1vq  TQ4n  1 3.400000e-01    4.033000e+00
 TC6eq   Q4n  1 3.950000e-01    2.785000e+00
 TC6eq  SQ4n  1 3.650000e-01    3.672000e+00
 TC6eq  TQ4n  1 3.400000e-01    5.206000e+00
 TC5eq   Q4n  1 3.950000e-01    2.115000e+00
 TC5eq  SQ4n  1 3.660000e-01    3.049000e+00
 TC5eq  TQ4n  1 3.520000e-01    4.138000e+00
 TC4eq   Q4n  1 3.950000e-01    1.906000e+00
 TC4eq  SQ4n  1 3.780000e-01    2.698000e+00
 TC4eq  TQ4n  1 3.660000e-01    3.577000e+00
 TC3eq   Q4n  1 3.980000e-01    1.636000e+00
 TC3eq  SQ4n  1 3.940000e-01    2.243000e+00
 TC3eq  TQ4n  1 3.850000e-01    2.854000e+00
 TC2eq   Q4n  1 4.040000e-01    9.760000e-01
 TC2eq  SQ4n  1 4.230000e-01    1.688000e+00
 TC2eq  TQ4n  1 4.380000e-01    2.130000e+00
 TC1eq   Q4n  1 4.040000e-01    9.200000e-01
 TC1eq  SQ4n  1 4.230000e-01    1.417000e+00
 TC1eq  TQ4n  1 4.380000e-01    1.594000e+00
 TX4eq   Q4n  1 3.950000e-01    2.609000e+00
 TX4eq  SQ4n  1 3.650000e-01    3.550000e+00
 TX4eq  TQ4n  1 3.400000e-01    5.119000e+00
 TX3eq   Q4n  1 3.950000e-01    2.395000e+00
 TX3eq  SQ4n  1 3.650000e-01    3.312000e+00
 TX3eq  TQ4n  1 3.400000e-01    4.666000e+00
 TX2eq   Q4n  1 3.950000e-01    2.102000e+00
 TX2eq  SQ4n  1 3.660000e-01    2.978000e+00
 TX2eq  TQ4n  1 3.520000e-01    3.986000e+00
 TX1eq   Q4n  1 3.950000e-01    1.857000e+00
 TX1eq  SQ4n  1 3.780000e-01    2.443000e+00
 TX1eq  TQ4n  1 3.660000e-01    3.038000e+00
  TP6h   Q4n  1 3.950000e-01    4.949000e+00
  TP6h  SQ4n  1 3.650000e-01    6.464000e+00
  TP6h  TQ4n  1 3.400000e-01    8.688000e+00
  TP5h   Q4n  1 3.950000e-01    4.626000e+00
  TP5h  SQ4n  1 3.650000e-01    6.103000e+00
  TP5h  TQ4n  1 3.400000e-01    8.251000e+00
  TP4h   Q4n  1 3.950000e-01    4.612000e+00
  TP4h  SQ4n  1 3.650000e-01    6.024000e+00
  TP4h  TQ4n  1 3.400000e-01    8.077000e+00
  TP3h   Q4n  1 3.950000e-01    4.603000e+00
  TP3h  SQ4n  1 3.650000e-01    5.978000e+00
  TP3h  TQ4n  1 3.400000e-01    7.976000e+00
  TP2h   Q4n  1 3.950000e-01    4.277000e+00
  TP2h  SQ4n  1 3.650000e-01    5.656000e+00
  TP2h  TQ4n  1 3.400000e-01    7.655000e+00
  TP1h   Q4n  1 3.950000e-01    4.033000e+00
  TP1h  SQ4n  1 3.650000e-01    5.362000e+00
  TP1h  TQ4n  1 3.400000e-01    7.372000e+00
  TN6h   Q4n  1 3.950000e-01    4.028000e+00
  TN6h  SQ4n  1 3.650000e-01    5.335000e+00
  TN6h  TQ4n  1 3.400000e-01    7.312000e+00
  TN5h   Q4n  1 3.950000e-01    4.022000e+00
  TN5h  SQ4n  1 3.650000e-01    5.303000e+00
  TN5h  TQ4n  1 3.400000e-01    7.243000e+00
  TN4h   Q4n  1 3.950000e-01    3.775000e+00
  TN4h  SQ4n  1 3.650000e-01    4.996000e+00
  TN4h  TQ4n  1 3.400000e-01    6.911000e+00
  TN3h   Q4n  1 3.950000e-01    3.527000e+00
  TN3h  SQ4n  1 3.650000e-01    4.679000e+00
  TN3h  TQ4n  1 3.400000e-01    6.568000e+00
  TN2h   Q4n  1 3.950000e-01    3.516000e+00
  TN2h  SQ4n  1 3.650000e-01    4.618000e+00
  TN2h  TQ4n  1 3.400000e-01    6.433000e+00
  TN1h   Q4n  1 3.950000e-01    3.500000e+00
  TN1h  SQ4n  1 3.650000e-01    4.531000e+00
  TN1h  TQ4n  1 3.400000e-01    6.242000e+00
  TC6h   Q4n  1 3.950000e-01    2.395000e+00
  TC6h  SQ4n  1 3.650000e-01    3.312000e+00
  TC6h  TQ4n  1 3.400000e-01    4.666000e+00
  TC5h   Q4n  1 3.980000e-01    1.713000e+00
  TC5h  SQ4n  1 3.940000e-01    2.636000e+00
  TC5h  TQ4n  1 3.850000e-01    3.678000e+00
  TC4h   Q4n  1 3.990000e-01    1.413000e+00
  TC4h  SQ4n  1 4.040000e-01    2.298000e+00
  TC4h  TQ4n  1 4.110000e-01    3.154000e+00
  TC3h   Q4n  1 4.010000e-01    1.168000e+00
  TC3h  SQ4n  1 4.090000e-01    1.998000e+00
  TC3h  TQ4n  1 4.240000e-01    2.591000e+00
  TC2h   Q4n  1 5.110000e-01    7.740000e-01
  TC2h  SQ4n  1 5.370000e-01    1.365000e+00
  TC2h  TQ4n  1 5.610000e-01    1.722000e+00
  TC1h   Q4n  1 5.110000e-01    7.300000e-01
  TC1h  SQ4n  1 5.370000e-01    1.151000e+00
  TC1h  TQ4n  1 5.610000e-01    1.304000e+00
  TX4h   Q4n  1 3.950000e-01    2.149000e+00
  TX4h  SQ4n  1 3.660000e-01    3.236000e+00
  TX4h  TQ4n  1 3.520000e-01    4.536000e+00
  TX3h   Q4n  1 3.950000e-01    1.955000e+00
  TX3h  SQ4n  1 3.780000e-01    2.958000e+00
  TX3h  TQ4n  1 3.660000e-01    4.127000e+00
  TX2h   Q4n  1 3.980000e-01    1.700000e+00
  TX2h  SQ4n  1 3.940000e-01    2.570000e+00
  TX2h  TQ4n  1 3.850000e-01    3.539000e+00
  TX1h   Q4n  1 3.990000e-01    1.366000e+00
  TX1h  SQ4n  1 4.040000e-01    2.059000e+00
  TX1h  TQ4n  1 4.110000e-01    2.673000e+00
 TP6dh   Q4n  1 3.950000e-01    5.279000e+00
 TP6dh  SQ4n  1 3.650000e-01    6.754000e+00
 TP6dh  TQ4n  1 3.400000e-01    9.238000e+00
 TP5dh   Q4n  1 3.950000e-01    4.936000e+00
 TP5dh  SQ4n  1 3.650000e-01    6.393000e+00
 TP5dh  TQ4n  1 3.400000e-01    8.801000e+00
 TP4dh   Q4n  1 3.950000e-01    4.922000e+00
 TP4dh  SQ4n  1 3.650000e-01    6.314000e+00
 TP4dh  TQ4n  1 3.400000e-01    8.627000e+00
 TP3dh   Q4n  1 3.950000e-01    4.913000e+00
 TP3dh  SQ4n  1 3.650000e-01    6.268000e+00
 TP3dh  TQ4n  1 3.400000e-01    8.526000e+00
 TP2dh   Q4n  1 3.950000e-01    4.597000e+00
 TP2dh  SQ4n  1 3.650000e-01    5.946000e+00
 TP2dh  TQ4n  1 3.400000e-01    8.185000e+00
 TP1dh   Q4n  1 3.950000e-01    4.273000e+00
 TP1dh  SQ4n  1 3.650000e-01    5.632000e+00
 TP1dh  TQ4n  1 3.400000e-01    7.852000e+00
 TN6dh   Q4n  1 3.950000e-01    4.268000e+00
 TN6dh  SQ4n  1 3.650000e-01    5.605000e+00
 TN6dh  TQ4n  1 3.400000e-01    7.792000e+00
 TN5dh   Q4n  1 3.950000e-01    4.262000e+00
 TN5dh  SQ4n  1 3.650000e-01    5.573000e+00
 TN5dh  TQ4n  1 3.400000e-01    7.723000e+00
 TN4dh   Q4n  1 3.950000e-01    4.015000e+00
 TN4dh  SQ4n  1 3.650000e-01    5.266000e+00
 TN4dh  TQ4n  1 3.400000e-01    7.391000e+00
 TN3dh   Q4n  1 3.950000e-01    3.767000e+00
 TN3dh  SQ4n  1 3.650000e-01    4.949000e+00
 TN3dh  TQ4n  1 3.400000e-01    7.058000e+00
 TN2dh   Q4n  1 3.950000e-01    3.756000e+00
 TN2dh  SQ4n  1 3.650000e-01    4.888000e+00
 TN2dh  TQ4n  1 3.400000e-01    6.923000e+00
 TN1dh   Q4n  1 3.950000e-01    3.740000e+00
 TN1dh  SQ4n  1 3.650000e-01    4.801000e+00
 TN1dh  TQ4n  1 3.400000e-01    6.732000e+00
 TP6ah   Q4n  1 3.950000e-01    4.319000e+00
 TP6ah  SQ4n  1 3.650000e-01    5.884000e+00
 TP6ah  TQ4n  1 3.400000e-01    8.158000e+00
 TP5ah   Q4n  1 3.950000e-01    4.066000e+00
 TP5ah  SQ4n  1 3.650000e-01    5.543000e+00
 TP5ah  TQ4n  1 3.400000e-01    7.771000e+00
 TP4ah   Q4n  1 3.950000e-01    4.052000e+00
 TP4ah  SQ4n  1 3.650000e-01    5.464000e+00
 TP4ah  TQ4n  1 3.400000e-01    7.597000e+00
 TP3ah   Q4n  1 3.950000e-01    4.043000e+00
 TP3ah  SQ4n  1 3.650000e-01    5.418000e+00
 TP3ah  TQ4n  1 3.400000e-01    7.496000e+00
 TP2ah   Q4n  1 3.950000e-01    3.797000e+00
 TP2ah  SQ4n  1 3.650000e-01    5.116000e+00
 TP2ah  TQ4n  1 3.400000e-01    7.175000e+00
 TP1ah   Q4n  1 3.950000e-01    3.553000e+00
 TP1ah  SQ4n  1 3.650000e-01    4.822000e+00
 TP1ah  TQ4n  1 3.400000e-01    6.882000e+00
 TN6ah   Q4n  1 3.950000e-01    3.548000e+00
 TN6ah  SQ4n  1 3.650000e-01    4.795000e+00
 TN6ah  TQ4n  1 3.400000e-01    6.822000e+00
 TN5ah   Q4n  1 3.950000e-01    3.542000e+00
 TN5ah  SQ4n  1 3.650000e-01    4.763000e+00
 TN5ah  TQ4n  1 3.400000e-01    6.753000e+00
 TN4ah   Q4n  1 3.950000e-01    3.285000e+00
 TN4ah  SQ4n  1 3.650000e-01    4.466000e+00
 TN4ah  TQ4n  1 3.400000e-01    6.451000e+00
 TN3ah   Q4n  1 3.950000e-01    3.037000e+00
 TN3ah  SQ4n  1 3.650000e-01    4.189000e+00
 TN3ah  TQ4n  1 3.400000e-01    6.088000e+00
 TN2ah   Q4n  1 3.950000e-01    3.026000e+00
 TN2ah  SQ4n  1 3.650000e-01    4.128000e+00
 TN2ah  TQ4n  1 3.400000e-01    5.953000e+00
 TN1ah   Q4n  1 3.950000e-01    3.010000e+00
 TN1ah  SQ4n  1 3.650000e-01    4.041000e+00
 TN1ah  TQ4n  1 3.400000e-01    5.762000e+00
 TC6vh   Q4n  1 3.950000e-01    2.785000e+00
 TC6vh  SQ4n  1 3.650000e-01    3.672000e+00
 TC6vh  TQ4n  1 3.400000e-01    5.456000e+00
 TC5vh   Q4n  1 3.950000e-01    2.115000e+00
 TC5vh  SQ4n  1 3.660000e-01    3.049000e+00
 TC5vh  TQ4n  1 3.400000e-01    4.427000e+00
 TC4vh   Q4n  1 3.950000e-01    1.906000e+00
 TC4vh  SQ4n  1 3.780000e-01    2.698000e+00
 TC4vh  TQ4n  1 3.660000e-01    3.577000e+00
 TC3vh   Q4n  1 3.980000e-01    1.636000e+00
 TC3vh  SQ4n  1 3.940000e-01    2.243000e+00
 TC3vh  TQ4n  1 3.850000e-01    2.854000e+00
 TC2vh   Q4n  1 4.040000e-01    9.760000e-01
 TC2vh  SQ4n  1 4.230000e-01    1.688000e+00
 TC2vh  TQ4n  1 4.240000e-01    2.221000e+00
 TC1vh   Q4n  1 4.040000e-01    9.200000e-01
 TC1vh  SQ4n  1 4.230000e-01    1.417000e+00
 TC1vh  TQ4n  1 4.240000e-01    1.667000e+00
 TX4vh   Q4n  1 3.950000e-01    2.609000e+00
 TX4vh  SQ4n  1 3.650000e-01    3.550000e+00
 TX4vh  TQ4n  1 3.400000e-01    5.379000e+00
 TX3vh   Q4n  1 3.950000e-01    2.395000e+00
 TX3vh  SQ4n  1 3.650000e-01    3.312000e+00
 TX3vh  TQ4n  1 3.400000e-01    4.946000e+00
 TX2vh   Q4n  1 3.950000e-01    2.102000e+00
 TX2vh  SQ4n  1 3.660000e-01    2.978000e+00
 TX2vh  TQ4n  1 3.400000e-01    4.270000e+00
 TX1vh   Q4n  1 3.950000e-01    1.857000e+00
 TX1vh  SQ4n  1 3.780000e-01    2.443000e+00
 TX1vh  TQ4n  1 3.660000e-01    3.038000e+00
 TC6eh   Q4n  1 3.950000e-01    2.135000e+00
 TC6eh  SQ4n  1 3.660000e-01    3.157000e+00
 TC6eh  TQ4n  1 3.520000e-01    4.368000e+00
 TC5eh   Q4n  1 3.990000e-01    1.442000e+00
 TC5eh  SQ4n  1 4.040000e-01    2.443000e+00
 TC5eh  TQ4n  1 4.110000e-01    3.446000e+00
 TC4eh   Q4n  1 4.010000e-01    1.215000e+00
 TC4eh  SQ4n  1 4.090000e-01    2.234000e+00
 TC4eh  TQ4n  1 4.240000e-01    3.057000e+00
 TC3eh   Q4n  1 4.040000e-01    1.013000e+00
 TC3eh  SQ4n  1 4.230000e-01    1.869000e+00
 TC3eh  TQ4n  1 4.380000e-01    2.488000e+00
 TC2eh   Q4n  1 5.240000e-01    7.410000e-01
 TC2eh  SQ4n  1 5.880000e-01    1.271000e+00
 TC2eh  TQ4n  1 5.990000e-01    1.643000e+00
 TC1eh   Q4n  1 5.240000e-01    6.980000e-01
 TC1eh  SQ4n  1 5.880000e-01    1.077000e+00
 TC1eh  TQ4n  1 5.990000e-01    1.251000e+00
 TX4eh   Q4n  1 3.950000e-01    1.969000e+00
 TX4eh  SQ4n  1 3.780000e-01    3.034000e+00
 TX4eh  TQ4n  1 3.660000e-01    4.288000e+00
 TX3eh   Q4n  1 3.980000e-01    1.732000e+00
 TX3eh  SQ4n  1 3.940000e-01    2.737000e+00
 TX3eh  TQ4n  1 3.850000e-01    3.889000e+00
 TX2eh   Q4n  1 3.990000e-01    1.429000e+00
 TX2eh  SQ4n  1 4.040000e-01    2.378000e+00
 TX2eh  TQ4n  1 4.110000e-01    3.316000e+00
 TX1eh   Q4n  1 4.010000e-01    1.168000e+00
 TX1eh  SQ4n  1 4.090000e-01    1.998000e+00
 TX1eh  TQ4n  1 4.240000e-01    2.591000e+00
  TP6r   Q4n  1 3.950000e-01    4.949000e+00
  TP6r  SQ4n  1 3.650000e-01    6.464000e+00
  TP6r  TQ4n  1 3.400000e-01    8.688000e+00
  TP5r   Q4n  1 3.950000e-01    4.626000e+00
  TP5r  SQ4n  1 3.650000e-01    6.103000e+00
  TP5r  TQ4n  1 3.400000e-01    8.251000e+00
  TP4r   Q4n  1 3.950000e-01    4.612000e+00
  TP4r  SQ4n  1 3.650000e-01    6.024000e+00
  TP4r  TQ4n  1 3.400000e-01    8.077000e+00
  TP3r   Q4n  1 3.950000e-01    4.603000e+00
  TP3r  SQ4n  1 3.650000e-01    5.978000e+00
  TP3r  TQ4n  1 3.400000e-01    7.976000e+00
  TP2r   Q4n  1 3.950000e-01    4.277000e+00
  TP2r  SQ4n  1 3.650000e-01    5.656000e+00
  TP2r  TQ4n  1 3.400000e-01    7.655000e+00
  TP1r   Q4n  1 3.950000e-01    4.033000e+00
  TP1r  SQ4n  1 3.650000e-01    5.362000e+00
  TP1r  TQ4n  1 3.400000e-01    7.372000e+00
  TN6r   Q4n  1 3.950000e-01    4.028000e+00
  TN6r  SQ4n  1 3.650000e-01    5.335000e+00
  TN6r  TQ4n  1 3.400000e-01    7.312000e+00
  TN5r   Q4n  1 3.950000e-01    4.022000e+00
  TN5r  SQ4n  1 3.650000e-01    5.303000e+00
  TN5r  TQ4n  1 3.400000e-01    7.243000e+00
  TN4r   Q4n  1 3.950000e-01    3.775000e+00
  TN4r  SQ4n  1 3.650000e-01    4.996000e+00
  TN4r  TQ4n  1 3.400000e-01    6.911000e+00
  TN3r   Q4n  1 3.950000e-01    3.527000e+00
  TN3r  SQ4n  1 3.650000e-01    4.679000e+00
  TN3r  TQ4n  1 3.400000e-01    6.568000e+00
  TN2r   Q4n  1 3.950000e-01    3.516000e+00
  TN2r  SQ4n  1 3.650000e-01    4.618000e+00
  TN2r  TQ4n  1 3.400000e-01    6.433000e+00
  TN1r   Q4n  1 3.950000e-01    3.500000e+00
  TN1r  SQ4n  1 3.650000e-01    4.531000e+00
  TN1r  TQ4n  1 3.400000e-01    6.242000e+00
  TC6r   Q4n  1 3.950000e-01    2.395000e+00
  TC6r  SQ4n  1 3.650000e-01    3.312000e+00
  TC6r  TQ4n  1 3.400000e-01    4.666000e+00
  TC5r   Q4n  1 3.980000e-01    1.713000e+00
  TC5r  SQ4n  1 3.940000e-01    2.636000e+00
  TC5r  TQ4n  1 3.850000e-01    3.678000e+00
  TC4r   Q4n  1 3.990000e-01    1.413000e+00
  TC4r  SQ4n  1 4.040000e-01    2.298000e+00
  TC4r  TQ4n  1 4.110000e-01    3.154000e+00
  TC3r   Q4n  1 4.010000e-01    1.168000e+00
  TC3r  SQ4n  1 4.090000e-01    1.998000e+00
  TC3r  TQ4n  1 4.240000e-01    2.591000e+00
  TC2r   Q4n  1 5.110000e-01    7.740000e-01
  TC2r  SQ4n  1 5.370000e-01    1.365000e+00
  TC2r  TQ4n  1 5.610000e-01    1.722000e+00
  TC1r   Q4n  1 5.110000e-01    7.300000e-01
  TC1r  SQ4n  1 5.370000e-01    1.151000e+00
  TC1r  TQ4n  1 5.610000e-01    1.304000e+00
  TX4r   Q4n  1 3.950000e-01    2.149000e+00
  TX4r  SQ4n  1 3.660000e-01    3.236000e+00
  TX4r  TQ4n  1 3.520000e-01    4.536000e+00
  TX3r   Q4n  1 3.950000e-01    1.955000e+00
  TX3r  SQ4n  1 3.780000e-01    2.958000e+00
  TX3r  TQ4n  1 3.660000e-01    4.127000e+00
  TX2r   Q4n  1 3.980000e-01    1.700000e+00
  TX2r  SQ4n  1 3.940000e-01    2.570000e+00
  TX2r  TQ4n  1 3.850000e-01    3.539000e+00
  TX1r   Q4n  1 3.990000e-01    1.366000e+00
  TX1r  SQ4n  1 4.040000e-01    2.059000e+00
  TX1r  TQ4n  1 4.110000e-01    2.673000e+00
 TP6dr   Q4n  1 3.950000e-01    5.279000e+00
 TP6dr  SQ4n  1 3.650000e-01    6.754000e+00
 TP6dr  TQ4n  1 3.400000e-01    9.238000e+00
 TP5dr   Q4n  1 3.950000e-01    4.936000e+00
 TP5dr  SQ4n  1 3.650000e-01    6.393000e+00
 TP5dr  TQ4n  1 3.400000e-01    8.801000e+00
 TP4dr   Q4n  1 3.950000e-01    4.922000e+00
 TP4dr  SQ4n  1 3.650000e-01    6.314000e+00
 TP4dr  TQ4n  1 3.400000e-01    8.627000e+00
 TP3dr   Q4n  1 3.950000e-01    4.913000e+00
 TP3dr  SQ4n  1 3.650000e-01    6.268000e+00
 TP3dr  TQ4n  1 3.400000e-01    8.526000e+00
 TP2dr   Q4n  1 3.950000e-01    4.597000e+00
 TP2dr  SQ4n  1 3.650000e-01    5.946000e+00
 TP2dr  TQ4n  1 3.400000e-01    8.185000e+00
 TP1dr   Q4n  1 3.950000e-01    4.273000e+00
 TP1dr  SQ4n  1 3.650000e-01    5.632000e+00
 TP1dr  TQ4n  1 3.400000e-01    7.852000e+00
 TN6dr   Q4n  1 3.950000e-01    4.268000e+00
 TN6dr  SQ4n  1 3.650000e-01    5.605000e+00
 TN6dr  TQ4n  1 3.400000e-01    7.792000e+00
 TN5dr   Q4n  1 3.950000e-01    4.262000e+00
 TN5dr  SQ4n  1 3.650000e-01    5.573000e+00
 TN5dr  TQ4n  1 3.400000e-01    7.723000e+00
 TN4dr   Q4n  1 3.950000e-01    4.015000e+00
 TN4dr  SQ4n  1 3.650000e-01    5.266000e+00
 TN4dr  TQ4n  1 3.400000e-01    7.391000e+00
 TN3dr   Q4n  1 3.950000e-01    3.767000e+00
 TN3dr  SQ4n  1 3.650000e-01    4.949000e+00
 TN3dr  TQ4n  1 3.400000e-01    7.058000e+00
 TN2dr   Q4n  1 3.950000e-01    3.756000e+00
 TN2dr  SQ4n  1 3.650000e-01    4.888000e+00
 TN2dr  TQ4n  1 3.400000e-01    6.923000e+00
 TN1dr   Q4n  1 3.950000e-01    3.740000e+00
 TN1dr  SQ4n  1 3.650000e-01    4.801000e+00
 TN1dr  TQ4n  1 3.400000e-01    6.732000e+00
 TP6ar   Q4n  1 3.950000e-01    4.319000e+00
 TP6ar  SQ4n  1 3.650000e-01    5.884000e+00
 TP6ar  TQ4n  1 3.400000e-01    8.158000e+00
 TP5ar   Q4n  1 3.950000e-01    4.066000e+00
 TP5ar  SQ4n  1 3.650000e-01    5.543000e+00
 TP5ar  TQ4n  1 3.400000e-01    7.771000e+00
 TP4ar   Q4n  1 3.950000e-01    4.052000e+00
 TP4ar  SQ4n  1 3.650000e-01    5.464000e+00
 TP4ar  TQ4n  1 3.400000e-01    7.597000e+00
 TP3ar   Q4n  1 3.950000e-01    4.043000e+00
 TP3ar  SQ4n  1 3.650000e-01    5.418000e+00
 TP3ar  TQ4n  1 3.400000e-01    7.496000e+00
 TP2ar   Q4n  1 3.950000e-01    3.797000e+00
 TP2ar  SQ4n  1 3.650000e-01    5.116000e+00
 TP2ar  TQ4n  1 3.400000e-01    7.175000e+00
 TP1ar   Q4n  1 3.950000e-01    3.553000e+00
 TP1ar  SQ4n  1 3.650000e-01    4.822000e+00
 TP1ar  TQ4n  1 3.400000e-01    6.882000e+00
 TN6ar   Q4n  1 3.950000e-01    3.548000e+00
 TN6ar  SQ4n  1 3.650000e-01    4.795000e+00
 TN6ar  TQ4n  1 3.400000e-01    6.822000e+00
 TN5ar   Q4n  1 3.950000e-01    3.542000e+00
 TN5ar  SQ4n  1 3.650000e-01    4.763000e+00
 TN5ar  TQ4n  1 3.400000e-01    6.753000e+00
 TN4ar   Q4n  1 3.950000e-01    3.285000e+00
 TN4ar  SQ4n  1 3.650000e-01    4.466000e+00
 TN4ar  TQ4n  1 3.400000e-01    6.451000e+00
 TN3ar   Q4n  1 3.950000e-01    3.037000e+00
 TN3ar  SQ4n  1 3.650000e-01    4.189000e+00
 TN3ar  TQ4n  1 3.400000e-01    6.088000e+00
 TN2ar   Q4n  1 3.950000e-01    3.026000e+00
 TN2ar  SQ4n  1 3.650000e-01    4.128000e+00
 TN2ar  TQ4n  1 3.400000e-01    5.953000e+00
 TN1ar   Q4n  1 3.950000e-01    3.010000e+00
 TN1ar  SQ4n  1 3.650000e-01    4.041000e+00
 TN1ar  TQ4n  1 3.400000e-01    5.762000e+00
 TC6vr   Q4n  1 3.950000e-01    2.785000e+00
 TC6vr  SQ4n  1 3.650000e-01    3.672000e+00
 TC6vr  TQ4n  1 3.400000e-01    5.456000e+00
 TC5vr   Q4n  1 3.950000e-01    2.115000e+00
 TC5vr  SQ4n  1 3.660000e-01    3.049000e+00
 TC5vr  TQ4n  1 3.400000e-01    4.427000e+00
 TC4vr   Q4n  1 3.950000e-01    1.906000e+00
 TC4vr  SQ4n  1 3.780000e-01    2.698000e+00
 TC4vr  TQ4n  1 3.660000e-01    3.577000e+00
 TC3vr   Q4n  1 3.980000e-01    1.636000e+00
 TC3vr  SQ4n  1 3.940000e-01    2.243000e+00
 TC3vr  TQ4n  1 3.850000e-01    2.854000e+00
 TC2vr   Q4n  1 4.040000e-01    9.760000e-01
 TC2vr  SQ4n  1 4.230000e-01    1.688000e+00
 TC2vr  TQ4n  1 4.240000e-01    2.221000e+00
 TC1vr   Q4n  1 4.040000e-01    9.200000e-01
 TC1vr  SQ4n  1 4.230000e-01    1.417000e+00
 TC1vr  TQ4n  1 4.240000e-01    1.667000e+00
 TX4vr   Q4n  1 3.950000e-01    2.609000e+00
 TX4vr  SQ4n  1 3.650000e-01    3.550000e+00
 TX4vr  TQ4n  1 3.400000e-01    5.379000e+00
 TX3vr   Q4n  1 3.950000e-01    2.395000e+00
 TX3vr  SQ4n  1 3.650000e-01    3.312000e+00
 TX3vr  TQ4n  1 3.400000e-01    4.946000e+00
 TX2vr   Q4n  1 3.950000e-01    2.102000e+00
 TX2vr  SQ4n  1 3.660000e-01    2.978000e+00
 TX2vr  TQ4n  1 3.400000e-01    4.270000e+00
 TX1vr   Q4n  1 3.950000e-01    1.857000e+00
 TX1vr  SQ4n  1 3.780000e-01    2.443000e+00
 TX1vr  TQ4n  1 3.660000e-01    3.038000e+00
 TC6er   Q4n  1 3.950000e-01    2.135000e+00
 TC6er  SQ4n  1 3.660000e-01    3.157000e+00
 TC6er  TQ4n  1 3.520000e-01    4.368000e+00
 TC5er   Q4n  1 3.990000e-01    1.442000e+00
 TC5er  SQ4n  1 4.040000e-01    2.443000e+00
 TC5er  TQ4n  1 4.110000e-01    3.446000e+00
 TC4er   Q4n  1 4.010000e-01    1.215000e+00
 TC4er  SQ4n  1 4.090000e-01    2.234000e+00
 TC4er  TQ4n  1 4.240000e-01    3.057000e+00
 TC3er   Q4n  1 4.040000e-01    1.013000e+00
 TC3er  SQ4n  1 4.230000e-01    1.869000e+00
 TC3er  TQ4n  1 4.380000e-01    2.488000e+00
 TC2er   Q4n  1 5.240000e-01    7.410000e-01
 TC2er  SQ4n  1 5.880000e-01    1.271000e+00
 TC2er  TQ4n  1 5.990000e-01    1.643000e+00
 TC1er   Q4n  1 5.240000e-01    6.980000e-01
 TC1er  SQ4n  1 5.880000e-01    1.077000e+00
 TC1er  TQ4n  1 5.990000e-01    1.251000e+00
 TX4er   Q4n  1 3.950000e-01    1.969000e+00
 TX4er  SQ4n  1 3.780000e-01    3.034000e+00
 TX4er  TQ4n  1 3.660000e-01    4.288000e+00
 TX3er   Q4n  1 3.980000e-01    1.732000e+00
 TX3er  SQ4n  1 3.940000e-01    2.737000e+00
 TX3er  TQ4n  1 3.850000e-01    3.889000e+00
 TX2er   Q4n  1 3.990000e-01    1.429000e+00
 TX2er  SQ4n  1 4.040000e-01    2.378000e+00
 TX2er  TQ4n  1 4.110000e-01    3.316000e+00
 TX1er   Q4n  1 4.010000e-01    1.168000e+00
 TX1er  SQ4n  1 4.090000e-01    1.998000e+00
 TX1er  TQ4n  1 4.240000e-01    2.591000e+00
    P6    Q3  1 4.700000e-01    5.195000e+00
    P6   SQ3  1 4.300000e-01    6.785000e+00
    P6   TQ3  1 3.950000e-01    9.717000e+00
    P5    Q3  1 4.700000e-01    5.182000e+00
    P5   SQ3  1 4.300000e-01    6.736000e+00
    P5   TQ3  1 3.950000e-01    9.604000e+00
    P4    Q3  1 4.700000e-01    5.165000e+00
    P4   SQ3  1 4.300000e-01    6.676000e+00
    P4   TQ3  1 3.950000e-01    9.466000e+00
    P3    Q3  1 4.700000e-01    5.155000e+00
    P3   SQ3  1 4.300000e-01    6.638000e+00
    P3   TQ3  1 3.950000e-01    9.377000e+00
    P2    Q3  1 4.700000e-01    4.917000e+00
    P2   SQ3  1 4.300000e-01    6.410000e+00
    P2   TQ3  1 3.950000e-01    9.073000e+00
    P1    Q3  1 4.700000e-01    4.721000e+00
    P1   SQ3  1 4.300000e-01    6.188000e+00
    P1   TQ3  1 3.950000e-01    8.782000e+00
    N6    Q3  1 4.700000e-01    4.714000e+00
    N6   SQ3  1 4.300000e-01    6.163000e+00
    N6   TQ3  1 3.950000e-01    8.723000e+00
    N5    Q3  1 4.700000e-01    4.706000e+00
    N5   SQ3  1 4.300000e-01    6.133000e+00
    N5   TQ3  1 3.950000e-01    8.654000e+00
    N4    Q3  1 4.700000e-01    4.696000e+00
    N4   SQ3  1 4.300000e-01    6.095000e+00
    N4   TQ3  1 3.950000e-01    8.568000e+00
    N3    Q3  1 4.700000e-01    4.503000e+00
    N3   SQ3  1 4.300000e-01    5.868000e+00
    N3   TQ3  1 3.950000e-01    8.208000e+00
    N2    Q3  1 4.700000e-01    4.485000e+00
    N2   SQ3  1 4.300000e-01    5.804000e+00
    N2   TQ3  1 3.950000e-01    8.059000e+00
    N1    Q3  1 4.700000e-01    4.460000e+00
    N1   SQ3  1 4.300000e-01    5.710000e+00
    N1   TQ3  1 3.950000e-01    7.843000e+00
    C6    Q3  1 4.700000e-01    3.778000e+00
    C6   SQ3  1 4.300000e-01    4.738000e+00
    C6   TQ3  1 3.950000e-01    6.662000e+00
    C5    Q3  1 4.700000e-01    3.575000e+00
    C5   SQ3  1 4.300000e-01    4.379000e+00
    C5   TQ3  1 3.950000e-01    6.125000e+00
    C4    Q3  1 4.700000e-01    3.417000e+00
    C4   SQ3  1 4.300000e-01    3.990000e+00
    C4   TQ3  1 3.950000e-01    5.533000e+00
    C3    Q3  1 4.700000e-01    3.166000e+00
    C3   SQ3  1 4.300000e-01    3.535000e+00
    C3   TQ3  1 3.980000e-01    4.606000e+00
    C2    Q3  1 5.200000e-01    2.402000e+00
    C2   SQ3  1 4.730000e-01    2.316000e+00
    C2   TQ3  1 4.650000e-01    2.942000e+00
    C1    Q3  1 5.200000e-01    2.315000e+00
    C1   SQ3  1 4.730000e-01    1.996000e+00
    C1   TQ3  1 4.650000e-01    2.251000e+00
    X4    Q3  1 4.700000e-01    3.802000e+00
    X4   SQ3  1 4.300000e-01    4.825000e+00
    X4   TQ3  1 3.950000e-01    6.862000e+00
    X3    Q3  1 4.700000e-01    3.608000e+00
    X3   SQ3  1 4.300000e-01    4.498000e+00
    X3   TQ3  1 3.950000e-01    6.402000e+00
    X2    Q3  1 4.700000e-01    3.444000e+00
    X2   SQ3  1 4.300000e-01    4.089000e+00
    X2   TQ3  1 3.950000e-01    5.761000e+00
    X1    Q3  1 4.700000e-01    3.166000e+00
    X1   SQ3  1 4.300000e-01    3.535000e+00
    X1   TQ3  1 3.980000e-01    4.606000e+00
   P6d    Q3  1 4.700000e-01    5.195000e+00
   P6d   SQ3  1 4.300000e-01    6.785000e+00
   P6d   TQ3  1 3.950000e-01    9.717000e+00
   P5d    Q3  1 4.700000e-01    5.182000e+00
   P5d   SQ3  1 4.300000e-01    6.736000e+00
   P5d   TQ3  1 3.950000e-01    9.604000e+00
   P4d    Q3  1 4.700000e-01    5.165000e+00
   P4d   SQ3  1 4.300000e-01    6.676000e+00
   P4d   TQ3  1 3.950000e-01    9.466000e+00
   P3d    Q3  1 4.700000e-01    5.155000e+00
   P3d   SQ3  1 4.300000e-01    6.638000e+00
   P3d   TQ3  1 3.950000e-01    9.377000e+00
   P2d    Q3  1 4.700000e-01    4.917000e+00
   P2d   SQ3  1 4.300000e-01    6.410000e+00
   P2d   TQ3  1 3.950000e-01    9.073000e+00
   P1d    Q3  1 4.700000e-01    4.721000e+00
   P1d   SQ3  1 4.300000e-01    6.188000e+00
   P1d   TQ3  1 3.950000e-01    8.782000e+00
   N6d    Q3  1 4.700000e-01    4.714000e+00
   N6d   SQ3  1 4.300000e-01    6.163000e+00
   N6d   TQ3  1 3.950000e-01    8.723000e+00
   N5d    Q3  1 4.700000e-01    4.706000e+00
   N5d   SQ3  1 4.300000e-01    6.133000e+00
   N5d   TQ3  1 3.950000e-01    8.654000e+00
   N4d    Q3  1 4.700000e-01    4.696000e+00
   N4d   SQ3  1 4.300000e-01    6.095000e+00
   N4d   TQ3  1 3.950000e-01    8.568000e+00
   N3d    Q3  1 4.700000e-01    4.503000e+00
   N3d   SQ3  1 4.300000e-01    5.868000e+00
   N3d   TQ3  1 3.950000e-01    8.208000e+00
   N2d    Q3  1 4.700000e-01    4.485000e+00
   N2d   SQ3  1 4.300000e-01    5.804000e+00
   N2d   TQ3  1 3.950000e-01    8.059000e+00
   N1d    Q3  1 4.700000e-01    4.460000e+00
   N1d   SQ3  1 4.300000e-01    5.710000e+00
   N1d   TQ3  1 3.950000e-01    7.843000e+00
   P6a    Q3  1 4.700000e-01    5.195000e+00
   P6a   SQ3  1 4.300000e-01    6.785000e+00
   P6a   TQ3  1 3.950000e-01    9.717000e+00
   P5a    Q3  1 4.700000e-01    5.182000e+00
   P5a   SQ3  1 4.300000e-01    6.736000e+00
   P5a   TQ3  1 3.950000e-01    9.604000e+00
   P4a    Q3  1 4.700000e-01    5.165000e+00
   P4a   SQ3  1 4.300000e-01    6.676000e+00
   P4a   TQ3  1 3.950000e-01    9.466000e+00
   P3a    Q3  1 4.700000e-01    5.155000e+00
   P3a   SQ3  1 4.300000e-01    6.638000e+00
   P3a   TQ3  1 3.950000e-01    9.377000e+00
   P2a    Q3  1 4.700000e-01    4.917000e+00
   P2a   SQ3  1 4.300000e-01    6.410000e+00
   P2a   TQ3  1 3.950000e-01    9.073000e+00
   P1a    Q3  1 4.700000e-01    4.721000e+00
   P1a   SQ3  1 4.300000e-01    6.188000e+00
   P1a   TQ3  1 3.950000e-01    8.782000e+00
   N6a    Q3  1 4.700000e-01    4.714000e+00
   N6a   SQ3  1 4.300000e-01    6.163000e+00
   N6a   TQ3  1 3.950000e-01    8.723000e+00
   N5a    Q3  1 4.700000e-01    4.706000e+00
   N5a   SQ3  1 4.300000e-01    6.133000e+00
   N5a   TQ3  1 3.950000e-01    8.654000e+00
   N4a    Q3  1 4.700000e-01    4.696000e+00
   N4a   SQ3  1 4.300000e-01    6.095000e+00
   N4a   TQ3  1 3.950000e-01    8.568000e+00
   N3a    Q3  1 4.700000e-01    4.503000e+00
   N3a   SQ3  1 4.300000e-01    5.868000e+00
   N3a   TQ3  1 3.950000e-01    8.208000e+00
   N2a    Q3  1 4.700000e-01    4.485000e+00
   N2a   SQ3  1 4.300000e-01    5.804000e+00
   N2a   TQ3  1 3.950000e-01    8.059000e+00
   N1a    Q3  1 4.700000e-01    4.460000e+00
   N1a   SQ3  1 4.300000e-01    5.710000e+00
   N1a   TQ3  1 3.950000e-01    7.843000e+00
   C6v    Q3  1 4.700000e-01    3.928000e+00
   C6v   SQ3  1 4.300000e-01    4.888000e+00
   C6v   TQ3  1 3.950000e-01    6.862000e+00
   C5v    Q3  1 4.700000e-01    3.745000e+00
   C5v   SQ3  1 4.300000e-01    4.619000e+00
   C5v   TQ3  1 3.950000e-01    6.385000e+00
   C4v    Q3  1 4.700000e-01    3.527000e+00
   C4v   SQ3  1 4.300000e-01    4.200000e+00
   C4v   TQ3  1 3.950000e-01    5.713000e+00
   C3v    Q3  1 4.700000e-01    3.336000e+00
   C3v   SQ3  1 4.300000e-01    3.695000e+00
   C3v   TQ3  1 3.950000e-01    4.850000e+00
   C2v    Q3  1 4.850000e-01    2.542000e+00
   C2v   SQ3  1 4.430000e-01    2.587000e+00
   C2v   TQ3  1 4.040000e-01    3.408000e+00
   C1v    Q3  1 4.850000e-01    2.449000e+00
   C1v   SQ3  1 4.430000e-01    2.245000e+00
   C1v   TQ3  1 4.040000e-01    2.611000e+00
   X4v    Q3  1 4.700000e-01    3.952000e+00
   X4v   SQ3  1 4.300000e-01    4.975000e+00
   X4v   TQ3  1 3.950000e-01    7.062000e+00
   X3v    Q3  1 4.700000e-01    3.778000e+00
   X3v   SQ3  1 4.300000e-01    4.738000e+00
   X3v   TQ3  1 3.950000e-01    6.662000e+00
   X2v    Q3  1 4.700000e-01    3.554000e+00
   X2v   SQ3  1 4.300000e-01    4.299000e+00
   X2v   TQ3  1 3.950000e-01    5.941000e+00
   X1v    Q3  1 4.700000e-01    3.336000e+00
   X1v   SQ3  1 4.300000e-01    3.695000e+00
   X1v   TQ3  1 3.950000e-01    4.850000e+00
   C6e    Q3  1 4.700000e-01    3.928000e+00
   C6e   SQ3  1 4.300000e-01    4.888000e+00
   C6e   TQ3  1 3.950000e-01    6.862000e+00
   C5e    Q3  1 4.700000e-01    3.745000e+00
   C5e   SQ3  1 4.300000e-01    4.619000e+00
   C5e   TQ3  1 3.950000e-01    6.385000e+00
   C4e    Q3  1 4.700000e-01    3.527000e+00
   C4e   SQ3  1 4.300000e-01    4.200000e+00
   C4e   TQ3  1 3.950000e-01    5.713000e+00
   C3e    Q3  1 4.700000e-01    3.336000e+00
   C3e   SQ3  1 4.300000e-01    3.695000e+00
   C3e   TQ3  1 3.950000e-01    4.850000e+00
   C2e    Q3  1 4.850000e-01    2.542000e+00
   C2e   SQ3  1 4.430000e-01    2.587000e+00
   C2e   TQ3  1 4.040000e-01    3.408000e+00
   C1e    Q3  1 4.850000e-01    2.449000e+00
   C1e   SQ3  1 4.430000e-01    2.245000e+00
   C1e   TQ3  1 4.040000e-01    2.611000e+00
   X4e    Q3  1 4.700000e-01    3.952000e+00
   X4e   SQ3  1 4.300000e-01    4.975000e+00
   X4e   TQ3  1 3.950000e-01    7.062000e+00
   X3e    Q3  1 4.700000e-01    3.778000e+00
   X3e   SQ3  1 4.300000e-01    4.738000e+00
   X3e   TQ3  1 3.950000e-01    6.662000e+00
   X2e    Q3  1 4.700000e-01    3.554000e+00
   X2e   SQ3  1 4.300000e-01    4.299000e+00
   X2e   TQ3  1 3.950000e-01    5.941000e+00
   X1e    Q3  1 4.700000e-01    3.336000e+00
   X1e   SQ3  1 4.300000e-01    3.695000e+00
   X1e   TQ3  1 3.950000e-01    4.850000e+00
   P6q    Q3  1 4.700000e-01    5.955000e+00
   P6q   SQ3  1 4.300000e-01    7.535000e+00
   P6q   TQ3  1 3.950000e-01    1.058700e+01
   P5q    Q3  1 4.700000e-01    5.942000e+00
   P5q   SQ3  1 4.300000e-01    7.486000e+00
   P5q   TQ3  1 3.950000e-01    1.047400e+01
   P4q    Q3  1 4.700000e-01    5.925000e+00
   P4q   SQ3  1 4.300000e-01    7.426000e+00
   P4q   TQ3  1 3.950000e-01    1.033600e+01
   P3q    Q3  1 4.700000e-01    5.915000e+00
   P3q   SQ3  1 4.300000e-01    7.388000e+00
   P3q   TQ3  1 3.950000e-01    1.024700e+01
   P2q    Q3  1 4.700000e-01    5.657000e+00
   P2q   SQ3  1 4.300000e-01    7.120000e+00
   P2q   TQ3  1 3.950000e-01    9.873000e+00
   P1q    Q3  1 4.700000e-01    5.391000e+00
   P1q   SQ3  1 4.300000e-01    6.818000e+00
   P1q   TQ3  1 3.950000e-01    9.502000e+00
   N6q    Q3  1 4.700000e-01    5.384000e+00
   N6q   SQ3  1 4.300000e-01    6.793000e+00
   N6q   TQ3  1 3.950000e-01    9.443000e+00
   N5q    Q3  1 4.700000e-01    5.376000e+00
   N5q   SQ3  1 4.300000e-01    6.763000e+00
   N5q   TQ3  1 3.950000e-01    9.374000e+00
   N4q    Q3  1 4.700000e-01    5.366000e+00
   N4q   SQ3  1 4.300000e-01    6.725000e+00
   N4q   TQ3  1 3.950000e-01    9.288000e+00
   N3q    Q3  1 4.700000e-01    5.103000e+00
   N3q   SQ3  1 4.300000e-01    6.448000e+00
   N3q   TQ3  1 3.950000e-01    8.938000e+00
   N2q    Q3  1 4.700000e-01    5.085000e+00
   N2q   SQ3  1 4.300000e-01    6.384000e+00
   N2q   TQ3  1 3.950000e-01    8.789000e+00
   N1q    Q3  1 4.700000e-01    5.060000e+00
   N1q   SQ3  1 4.300000e-01    6.290000e+00
   N1q   TQ3  1 3.950000e-01    8.573000e+00
   C6q    Q3  1 4.700000e-01    4.228000e+00
   C6q   SQ3  1 4.300000e-01    5.348000e+00
   C6q   TQ3  1 3.950000e-01    7.252000e+00
   C5q    Q3  1 4.700000e-01    4.025000e+00
   C5q   SQ3  1 4.300000e-01    5.009000e+00
   C5q   TQ3  1 3.950000e-01    6.775000e+00
   C4q    Q3  1 4.700000e-01    3.847000e+00
   C4q   SQ3  1 4.300000e-01    4.590000e+00
   C4q   TQ3  1 3.950000e-01    6.173000e+00
   C3q    Q3  1 4.700000e-01    3.616000e+00
   C3q   SQ3  1 4.300000e-01    4.145000e+00
   C3q   TQ3  1 3.950000e-01    5.290000e+00
   C2q    Q3  1 4.700000e-01    2.932000e+00
   C2q   SQ3  1 4.300000e-01    3.070000e+00
   C2q   TQ3  1 3.990000e-01    3.790000e+00
   C1q    Q3  1 4.700000e-01    2.835000e+00
   C1q   SQ3  1 4.300000e-01    2.718000e+00
   C1q   TQ3  1 3.990000e-01    2.984000e+00
   X4q    Q3  1 4.700000e-01    4.252000e+00
   X4q   SQ3  1 4.300000e-01    5.435000e+00
   X4q   TQ3  1 3.950000e-01    7.452000e+00
   X3q    Q3  1 4.700000e-01    4.058000e+00
   X3q   SQ3  1 4.300000e-01    5.128000e+00
   X3q   TQ3  1 3.950000e-01    7.052000e+00
   X2q    Q3  1 4.700000e-01    3.874000e+00
   X2q   SQ3  1 4.300000e-01    4.689000e+00
   X2q   TQ3  1 3.950000e-01    6.401000e+00
   X1q    Q3  1 4.700000e-01    3.616000e+00
   X1q   SQ3  1 4.300000e-01    4.145000e+00
   X1q   TQ3  1 3.950000e-01    5.290000e+00
  P6dq    Q3  1 4.700000e-01    5.955000e+00
  P6dq   SQ3  1 4.300000e-01    7.535000e+00
  P6dq   TQ3  1 3.950000e-01    1.058700e+01
  P5dq    Q3  1 4.700000e-01    5.942000e+00
  P5dq   SQ3  1 4.300000e-01    7.486000e+00
  P5dq   TQ3  1 3.950000e-01    1.047400e+01
  P4dq    Q3  1 4.700000e-01    5.925000e+00
  P4dq   SQ3  1 4.300000e-01    7.426000e+00
  P4dq   TQ3  1 3.950000e-01    1.033600e+01
  P3dq    Q3  1 4.700000e-01    5.915000e+00
  P3dq   SQ3  1 4.300000e-01    7.388000e+00
  P3dq   TQ3  1 3.950000e-01    1.024700e+01
  P2dq    Q3  1 4.700000e-01    5.657000e+00
  P2dq   SQ3  1 4.300000e-01    7.120000e+00
  P2dq   TQ3  1 3.950000e-01    9.873000e+00
  P1dq    Q3  1 4.700000e-01    5.391000e+00
  P1dq   SQ3  1 4.300000e-01    6.818000e+00
  P1dq   TQ3  1 3.950000e-01    9.502000e+00
  N6dq    Q3  1 4.700000e-01    5.384000e+00
  N6dq   SQ3  1 4.300000e-01    6.793000e+00
  N6dq   TQ3  1 3.950000e-01    9.443000e+00
  N5dq    Q3  1 4.700000e-01    5.376000e+00
  N5dq   SQ3  1 4.300000e-01    6.763000e+00
  N5dq   TQ3  1 3.950000e-01    9.374000e+00
  N4dq    Q3  1 4.700000e-01    5.366000e+00
  N4dq   SQ3  1 4.300000e-01    6.725000e+00
  N4dq   TQ3  1 3.950000e-01    9.288000e+00
  N3dq    Q3  1 4.700000e-01    5.103000e+00
  N3dq   SQ3  1 4.300000e-01    6.448000e+00
  N3dq   TQ3  1 3.950000e-01    8.938000e+00
  N2dq    Q3  1 4.700000e-01    5.085000e+00
  N2dq   SQ3  1 4.300000e-01    6.384000e+00
  N2dq   TQ3  1 3.950000e-01    8.789000e+00
  N1dq    Q3  1 4.700000e-01    5.060000e+00
  N1dq   SQ3  1 4.300000e-01    6.290000e+00
  N1dq   TQ3  1 3.950000e-01    8.573000e+00
  P6aq    Q3  1 4.700000e-01    5.955000e+00
  P6aq   SQ3  1 4.300000e-01    7.535000e+00
  P6aq   TQ3  1 3.950000e-01    1.058700e+01
  P5aq    Q3  1 4.700000e-01    5.942000e+00
  P5aq   SQ3  1 4.300000e-01    7.486000e+00
  P5aq   TQ3  1 3.950000e-01    1.047400e+01
  P4aq    Q3  1 4.700000e-01    5.925000e+00
  P4aq   SQ3  1 4.300000e-01    7.426000e+00
  P4aq   TQ3  1 3.950000e-01    1.033600e+01
  P3aq    Q3  1 4.700000e-01    5.915000e+00
  P3aq   SQ3  1 4.300000e-01    7.388000e+00
  P3aq   TQ3  1 3.950000e-01    1.024700e+01
  P2aq    Q3  1 4.700000e-01    5.657000e+00
  P2aq   SQ3  1 4.300000e-01    7.120000e+00
  P2aq   TQ3  1 3.950000e-01    9.873000e+00
  P1aq    Q3  1 4.700000e-01    5.391000e+00
  P1aq   SQ3  1 4.300000e-01    6.818000e+00
  P1aq   TQ3  1 3.950000e-01    9.502000e+00
  N6aq    Q3  1 4.700000e-01    5.384000e+00
  N6aq   SQ3  1 4.300000e-01    6.793000e+00
  N6aq   TQ3  1 3.950000e-01    9.443000e+00
  N5aq    Q3  1 4.700000e-01    5.376000e+00
  N5aq   SQ3  1 4.300000e-01    6.763000e+00
  N5aq   TQ3  1 3.950000e-01    9.374000e+00
  N4aq    Q3  1 4.700000e-01    5.366000e+00
  N4aq   SQ3  1 4.300000e-01    6.725000e+00
  N4aq   TQ3  1 3.950000e-01    9.288000e+00
  N3aq    Q3  1 4.700000e-01    5.103000e+00
  N3aq   SQ3  1 4.300000e-01    6.448000e+00
  N3aq   TQ3  1 3.950000e-01    8.938000e+00
  N2aq    Q3  1 4.700000e-01    5.085000e+00
  N2aq   SQ3  1 4.300000e-01    6.384000e+00
  N2aq   TQ3  1 3.950000e-01    8.789000e+00
  N1aq    Q3  1 4.700000e-01    5.060000e+00
  N1aq   SQ3  1 4.300000e-01    6.290000e+00
  N1aq   TQ3  1 3.950000e-01    8.573000e+00
  C6vq    Q3  1 4.700000e-01    4.418000e+00
  C6vq   SQ3  1 4.300000e-01    5.558000e+00
  C6vq   TQ3  1 3.950000e-01    7.492000e+00
  C5vq    Q3  1 4.700000e-01    4.195000e+00
  C5vq   SQ3  1 4.300000e-01    5.229000e+00
  C5vq   TQ3  1 3.950000e-01    6.975000e+00
  C4vq    Q3  1 4.700000e-01    3.977000e+00
  C4vq   SQ3  1 4.300000e-01    4.830000e+00
  C4vq   TQ3  1 3.950000e-01    6.363000e+00
  C3vq    Q3  1 4.700000e-01    3.766000e+00
  C3vq   SQ3  1 4.300000e-01    4.295000e+00
  C3vq   TQ3  1 3.950000e-01    5.490000e+00
  C2vq    Q3  1 4.700000e-01    3.102000e+00
  C2vq   SQ3  1 4.300000e-01    3.300000e+00
  C2vq   TQ3  1 3.980000e-01    4.066000e+00
  C1vq    Q3  1 4.700000e-01    3.005000e+00
  C1vq   SQ3  1 4.300000e-01    2.948000e+00
  C1vq   TQ3  1 3.980000e-01    3.258000e+00
  X4vq    Q3  1 4.700000e-01    4.442000e+00
  X4vq   SQ3  1 4.300000e-01    5.645000e+00
  X4vq   TQ3  1 3.950000e-01    7.692000e+00
  X3vq    Q3  1 4.700000e-01    4.228000e+00
  X3vq   SQ3  1 4.300000e-01    5.348000e+00
  X3vq   TQ3  1 3.950000e-01    7.252000e+00
  X2vq    Q3  1 4.700000e-01    4.004000e+00
  X2vq   SQ3  1 4.300000e-01    4.929000e+00
  X2vq   TQ3  1 3.950000e-01    6.591000e+00
  X1vq    Q3  1 4.700000e-01    3.766000e+00
  X1vq   SQ3  1 4.300000e-01    4.295000e+00
  X1vq   TQ3  1 3.950000e-01    5.490000e+00
  C6eq    Q3  1 4.700000e-01    4.418000e+00
  C6eq   SQ3  1 4.300000e-01    5.558000e+00
  C6eq   TQ3  1 3.950000e-01    7.492000e+00
  C5eq    Q3  1 4.700000e-01    4.195000e+00
  C5eq   SQ3  1 4.300000e-01    5.229000e+00
  C5eq   TQ3  1 3.950000e-01    6.975000e+00
  C4eq    Q3  1 4.700000e-01    3.977000e+00
  C4eq   SQ3  1 4.300000e-01    4.830000e+00
  C4eq   TQ3  1 3.950000e-01    6.363000e+00
  C3eq    Q3  1 4.700000e-01    3.766000e+00
  C3eq   SQ3  1 4.300000e-01    4.295000e+00
  C3eq   TQ3  1 3.950000e-01    5.490000e+00
  C2eq    Q3  1 4.700000e-01    3.102000e+00
  C2eq   SQ3  1 4.300000e-01    3.300000e+00
  C2eq   TQ3  1 3.980000e-01    4.066000e+00
  C1eq    Q3  1 4.700000e-01    3.005000e+00
  C1eq   SQ3  1 4.300000e-01    2.948000e+00
  C1eq   TQ3  1 3.980000e-01    3.258000e+00
  X4eq    Q3  1 4.700000e-01    4.442000e+00
  X4eq   SQ3  1 4.300000e-01    5.645000e+00
  X4eq   TQ3  1 3.950000e-01    7.692000e+00
  X3eq    Q3  1 4.700000e-01    4.228000e+00
  X3eq   SQ3  1 4.300000e-01    5.348000e+00
  X3eq   TQ3  1 3.950000e-01    7.252000e+00
  X2eq    Q3  1 4.700000e-01    4.004000e+00
  X2eq   SQ3  1 4.300000e-01    4.929000e+00
  X2eq   TQ3  1 3.950000e-01    6.591000e+00
  X1eq    Q3  1 4.700000e-01    3.766000e+00
  X1eq   SQ3  1 4.300000e-01    4.295000e+00
  X1eq   TQ3  1 3.950000e-01    5.490000e+00
   P6h    Q3  1 4.700000e-01    5.195000e+00
   P6h   SQ3  1 4.300000e-01    6.785000e+00
   P6h   TQ3  1 3.950000e-01    9.717000e+00
   P5h    Q3  1 4.700000e-01    5.182000e+00
   P5h   SQ3  1 4.300000e-01    6.736000e+00
   P5h   TQ3  1 3.950000e-01    9.604000e+00
   P4h    Q3  1 4.700000e-01    5.165000e+00
   P4h   SQ3  1 4.300000e-01    6.676000e+00
   P4h   TQ3  1 3.950000e-01    9.466000e+00
   P3h    Q3  1 4.700000e-01    5.155000e+00
   P3h   SQ3  1 4.300000e-01    6.638000e+00
   P3h   TQ3  1 3.950000e-01    9.377000e+00
   P2h    Q3  1 4.700000e-01    4.917000e+00
   P2h   SQ3  1 4.300000e-01    6.410000e+00
   P2h   TQ3  1 3.950000e-01    9.073000e+00
   P1h    Q3  1 4.700000e-01    4.721000e+00
   P1h   SQ3  1 4.300000e-01    6.188000e+00
   P1h   TQ3  1 3.950000e-01    8.782000e+00
   N6h    Q3  1 4.700000e-01    4.714000e+00
   N6h   SQ3  1 4.300000e-01    6.163000e+00
   N6h   TQ3  1 3.950000e-01    8.723000e+00
   N5h    Q3  1 4.700000e-01    4.706000e+00
   N5h   SQ3  1 4.300000e-01    6.133000e+00
   N5h   TQ3  1 3.950000e-01    8.654000e+00
   N4h    Q3  1 4.700000e-01    4.696000e+00
   N4h   SQ3  1 4.300000e-01    6.095000e+00
   N4h   TQ3  1 3.950000e-01    8.568000e+00
   N3h    Q3  1 4.700000e-01    4.503000e+00
   N3h   SQ3  1 4.300000e-01    5.868000e+00
   N3h   TQ3  1 3.950000e-01    8.208000e+00
   N2h    Q3  1 4.700000e-01    4.485000e+00
   N2h   SQ3  1 4.300000e-01    5.804000e+00
   N2h   TQ3  1 3.950000e-01    8.059000e+00
   N1h    Q3  1 4.700000e-01    4.460000e+00
   N1h   SQ3  1 4.300000e-01    5.710000e+00
   N1h   TQ3  1 3.950000e-01    7.843000e+00
   C6h    Q3  1 4.700000e-01    3.778000e+00
   C6h   SQ3  1 4.300000e-01    4.738000e+00
   C6h   TQ3  1 3.950000e-01    6.662000e+00
   C5h    Q3  1 4.700000e-01    3.575000e+00
   C5h   SQ3  1 4.300000e-01    4.379000e+00
   C5h   TQ3  1 3.950000e-01    6.125000e+00
   C4h    Q3  1 4.700000e-01    3.417000e+00
   C4h   SQ3  1 4.300000e-01    3.990000e+00
   C4h   TQ3  1 3.950000e-01    5.533000e+00
   C3h    Q3  1 4.700000e-01    3.166000e+00
   C3h   SQ3  1 4.300000e-01    3.535000e+00
   C3h   TQ3  1 3.980000e-01    4.606000e+00
   C2h    Q3  1 5.200000e-01    2.402000e+00
   C2h   SQ3  1 4.730000e-01    2.316000e+00
   C2h   TQ3  1 4.650000e-01    2.942000e+00
   C1h    Q3  1 5.200000e-01    2.315000e+00
   C1h   SQ3  1 4.730000e-01    1.996000e+00
   C1h   TQ3  1 4.650000e-01    2.251000e+00
   X4h    Q3  1 4.700000e-01    3.802000e+00
   X4h   SQ3  1 4.300000e-01    4.825000e+00
   X4h   TQ3  1 3.950000e-01    6.862000e+00
   X3h    Q3  1 4.700000e-01    3.608000e+00
   X3h   SQ3  1 4.300000e-01    4.498000e+00
   X3h   TQ3  1 3.950000e-01    6.402000e+00
   X2h    Q3  1 4.700000e-01    3.444000e+00
   X2h   SQ3  1 4.300000e-01    4.089000e+00
   X2h   TQ3  1 3.950000e-01    5.761000e+00
   X1h    Q3  1 4.700000e-01    3.166000e+00
   X1h   SQ3  1 4.300000e-01    3.535000e+00
   X1h   TQ3  1 3.980000e-01    4.606000e+00
  P6dh    Q3  1 4.700000e-01    5.195000e+00
  P6dh   SQ3  1 4.300000e-01    6.785000e+00
  P6dh   TQ3  1 3.950000e-01    9.717000e+00
  P5dh    Q3  1 4.700000e-01    5.182000e+00
  P5dh   SQ3  1 4.300000e-01    6.736000e+00
  P5dh   TQ3  1 3.950000e-01    9.604000e+00
  P4dh    Q3  1 4.700000e-01    5.165000e+00
  P4dh   SQ3  1 4.300000e-01    6.676000e+00
  P4dh   TQ3  1 3.950000e-01    9.466000e+00
  P3dh    Q3  1 4.700000e-01    5.155000e+00
  P3dh   SQ3  1 4.300000e-01    6.638000e+00
  P3dh   TQ3  1 3.950000e-01    9.377000e+00
  P2dh    Q3  1 4.700000e-01    4.917000e+00
  P2dh   SQ3  1 4.300000e-01    6.410000e+00
  P2dh   TQ3  1 3.950000e-01    9.073000e+00
  P1dh    Q3  1 4.700000e-01    4.721000e+00
  P1dh   SQ3  1 4.300000e-01    6.188000e+00
  P1dh   TQ3  1 3.950000e-01    8.782000e+00
  N6dh    Q3  1 4.700000e-01    4.714000e+00
  N6dh   SQ3  1 4.300000e-01    6.163000e+00
  N6dh   TQ3  1 3.950000e-01    8.723000e+00
  N5dh    Q3  1 4.700000e-01    4.706000e+00
  N5dh   SQ3  1 4.300000e-01    6.133000e+00
  N5dh   TQ3  1 3.950000e-01    8.654000e+00
  N4dh    Q3  1 4.700000e-01    4.696000e+00
  N4dh   SQ3  1 4.300000e-01    6.095000e+00
  N4dh   TQ3  1 3.950000e-01    8.568000e+00
  N3dh    Q3  1 4.700000e-01    4.503000e+00
  N3dh   SQ3  1 4.300000e-01    5.868000e+00
  N3dh   TQ3  1 3.950000e-01    8.208000e+00
  N2dh    Q3  1 4.700000e-01    4.485000e+00
  N2dh   SQ3  1 4.300000e-01    5.804000e+00
  N2dh   TQ3  1 3.950000e-01    8.059000e+00
  N1dh    Q3  1 4.700000e-01    4.460000e+00
  N1dh   SQ3  1 4.300000e-01    5.710000e+00
  N1dh   TQ3  1 3.950000e-01    7.843000e+00
  P6ah    Q3  1 4.700000e-01    5.195000e+00
  P6ah   SQ3  1 4.300000e-01    6.785000e+00
  P6ah   TQ3  1 3.950000e-01    9.717000e+00
  P5ah    Q3  1 4.700000e-01    5.182000e+00
  P5ah   SQ3  1 4.300000e-01    6.736000e+00
  P5ah   TQ3  1 3.950000e-01    9.604000e+00
  P4ah    Q3  1 4.700000e-01    5.165000e+00
  P4ah   SQ3  1 4.300000e-01    6.676000e+00
  P4ah   TQ3  1 3.950000e-01    9.466000e+00
  P3ah    Q3  1 4.700000e-01    5.155000e+00
  P3ah   SQ3  1 4.300000e-01    6.638000e+00
  P3ah   TQ3  1 3.950000e-01    9.377000e+00
  P2ah    Q3  1 4.700000e-01    4.917000e+00
  P2ah   SQ3  1 4.300000e-01    6.410000e+00
  P2ah   TQ3  1 3.950000e-01    9.073000e+00
  P1ah    Q3  1 4.700000e-01    4.721000e+00
  P1ah   SQ3  1 4.300000e-01    6.188000e+00
  P1ah   TQ3  1 3.950000e-01    8.782000e+00
  N6ah    Q3  1 4.700000e-01    4.714000e+00
  N6ah   SQ3  1 4.300000e-01    6.163000e+00
  N6ah   TQ3  1 3.950000e-01    8.723000e+00
  N5ah    Q3  1 4.700000e-01    4.706000e+00
  N5ah   SQ3  1 4.300000e-01    6.133000e+00
  N5ah   TQ3  1 3.950000e-01    8.654000e+00
  N4ah    Q3  1 4.700000e-01    4.696000e+00
  N4ah   SQ3  1 4.300000e-01    6.095000e+00
  N4ah   TQ3  1 3.950000e-01    8.568000e+00
  N3ah    Q3  1 4.700000e-01    4.503000e+00
  N3ah   SQ3  1 4.300000e-01    5.868000e+00
  N3ah   TQ3  1 3.950000e-01    8.208000e+00
  N2ah    Q3  1 4.700000e-01    4.485000e+00
  N2ah   SQ3  1 4.300000e-01    5.804000e+00
  N2ah   TQ3  1 3.950000e-01    8.059000e+00
  N1ah    Q3  1 4.700000e-01    4.460000e+00
  N1ah   SQ3  1 4.300000e-01    5.710000e+00
  N1ah   TQ3  1 3.950000e-01    7.843000e+00
  C6vh    Q3  1 4.700000e-01    3.928000e+00
  C6vh   SQ3  1 4.300000e-01    4.888000e+00
  C6vh   TQ3  1 3.950000e-01    6.862000e+00
  C5vh    Q3  1 4.700000e-01    3.745000e+00
  C5vh   SQ3  1 4.300000e-01    4.619000e+00
  C5vh   TQ3  1 3.950000e-01    6.385000e+00
  C4vh    Q3  1 4.700000e-01    3.527000e+00
  C4vh   SQ3  1 4.300000e-01    4.200000e+00
  C4vh   TQ3  1 3.950000e-01    5.713000e+00
  C3vh    Q3  1 4.700000e-01    3.336000e+00
  C3vh   SQ3  1 4.300000e-01    3.695000e+00
  C3vh   TQ3  1 3.950000e-01    4.850000e+00
  C2vh    Q3  1 4.850000e-01    2.542000e+00
  C2vh   SQ3  1 4.430000e-01    2.587000e+00
  C2vh   TQ3  1 4.040000e-01    3.408000e+00
  C1vh    Q3  1 4.850000e-01    2.449000e+00
  C1vh   SQ3  1 4.430000e-01    2.245000e+00
  C1vh   TQ3  1 4.040000e-01    2.611000e+00
  X4vh    Q3  1 4.700000e-01    3.952000e+00
  X4vh   SQ3  1 4.300000e-01    4.975000e+00
  X4vh   TQ3  1 3.950000e-01    7.062000e+00
  X3vh    Q3  1 4.700000e-01    3.778000e+00
  X3vh   SQ3  1 4.300000e-01    4.738000e+00
  X3vh   TQ3  1 3.950000e-01    6.662000e+00
  X2vh    Q3  1 4.700000e-01    3.554000e+00
  X2vh   SQ3  1 4.300000e-01    4.299000e+00
  X2vh   TQ3  1 3.950000e-01    5.941000e+00
  X1vh    Q3  1 4.700000e-01    3.336000e+00
  X1vh   SQ3  1 4.300000e-01    3.695000e+00
  X1vh   TQ3  1 3.950000e-01    4.850000e+00
  C6eh    Q3  1 4.700000e-01    3.928000e+00
  C6eh   SQ3  1 4.300000e-01    4.888000e+00
  C6eh   TQ3  1 3.950000e-01    6.862000e+00
  C5eh    Q3  1 4.700000e-01    3.745000e+00
  C5eh   SQ3  1 4.300000e-01    4.619000e+00
  C5eh   TQ3  1 3.950000e-01    6.385000e+00
  C4eh    Q3  1 4.700000e-01    3.527000e+00
  C4eh   SQ3  1 4.300000e-01    4.200000e+00
  C4eh   TQ3  1 3.950000e-01    5.713000e+00
  C3eh    Q3  1 4.700000e-01    3.336000e+00
  C3eh   SQ3  1 4.300000e-01    3.695000e+00
  C3eh   TQ3  1 3.950000e-01    4.850000e+00
  C2eh    Q3  1 4.850000e-01    2.542000e+00
  C2eh   SQ3  1 4.430000e-01    2.587000e+00
  C2eh   TQ3  1 4.040000e-01    3.408000e+00
  C1eh    Q3  1 4.850000e-01    2.449000e+00
  C1eh   SQ3  1 4.430000e-01    2.245000e+00
  C1eh   TQ3  1 4.040000e-01    2.611000e+00
  X4eh    Q3  1 4.700000e-01    3.952000e+00
  X4eh   SQ3  1 4.300000e-01    4.975000e+00
  X4eh   TQ3  1 3.950000e-01    7.062000e+00
  X3eh    Q3  1 4.700000e-01    3.778000e+00
  X3eh   SQ3  1 4.300000e-01    4.738000e+00
  X3eh   TQ3  1 3.950000e-01    6.662000e+00
  X2eh    Q3  1 4.700000e-01    3.554000e+00
  X2eh   SQ3  1 4.300000e-01    4.299000e+00
  X2eh   TQ3  1 3.950000e-01    5.941000e+00
  X1eh    Q3  1 4.700000e-01    3.336000e+00
  X1eh   SQ3  1 4.300000e-01    3.695000e+00
  X1eh   TQ3  1 3.950000e-01    4.850000e+00
   P6r    Q3  1 4.700000e-01    5.195000e+00
   P6r   SQ3  1 4.300000e-01    6.785000e+00
   P6r   TQ3  1 3.950000e-01    9.717000e+00
   P5r    Q3  1 4.700000e-01    5.182000e+00
   P5r   SQ3  1 4.300000e-01    6.736000e+00
   P5r   TQ3  1 3.950000e-01    9.604000e+00
   P4r    Q3  1 4.700000e-01    5.165000e+00
   P4r   SQ3  1 4.300000e-01    6.676000e+00
   P4r   TQ3  1 3.950000e-01    9.466000e+00
   P3r    Q3  1 4.700000e-01    5.155000e+00
   P3r   SQ3  1 4.300000e-01    6.638000e+00
   P3r   TQ3  1 3.950000e-01    9.377000e+00
   P2r    Q3  1 4.700000e-01    4.917000e+00
   P2r   SQ3  1 4.300000e-01    6.410000e+00
   P2r   TQ3  1 3.950000e-01    9.073000e+00
   P1r    Q3  1 4.700000e-01    4.721000e+00
   P1r   SQ3  1 4.300000e-01    6.188000e+00
   P1r   TQ3  1 3.950000e-01    8.782000e+00
   N6r    Q3  1 4.700000e-01    4.714000e+00
   N6r   SQ3  1 4.300000e-01    6.163000e+00
   N6r   TQ3  1 3.950000e-01    8.723000e+00
   N5r    Q3  1 4.700000e-01    4.706000e+00
   N5r   SQ3  1 4.300000e-01    6.133000e+00
   N5r   TQ3  1 3.950000e-01    8.654000e+00
   N4r    Q3  1 4.700000e-01    4.696000e+00
   N4r   SQ3  1 4.300000e-01    6.095000e+00
   N4r   TQ3  1 3.950000e-01    8.568000e+00
   N3r    Q3  1 4.700000e-01    4.503000e+00
   N3r   SQ3  1 4.300000e-01    5.868000e+00
   N3r   TQ3  1 3.950000e-01    8.208000e+00
   N2r    Q3  1 4.700000e-01    4.485000e+00
   N2r   SQ3  1 4.300000e-01    5.804000e+00
   N2r   TQ3  1 3.950000e-01    8.059000e+00
   N1r    Q3  1 4.700000e-01    4.460000e+00
   N1r   SQ3  1 4.300000e-01    5.710000e+00
   N1r   TQ3  1 3.950000e-01    7.843000e+00
   C6r    Q3  1 4.700000e-01    3.778000e+00
   C6r   SQ3  1 4.300000e-01    4.738000e+00
   C6r   TQ3  1 3.950000e-01    6.662000e+00
   C5r    Q3  1 4.700000e-01    3.575000e+00
   C5r   SQ3  1 4.300000e-01    4.379000e+00
   C5r   TQ3  1 3.950000e-01    6.125000e+00
   C4r    Q3  1 4.700000e-01    3.417000e+00
   C4r   SQ3  1 4.300000e-01    3.990000e+00
   C4r   TQ3  1 3.950000e-01    5.533000e+00
   C3r    Q3  1 4.700000e-01    3.166000e+00
   C3r   SQ3  1 4.300000e-01    3.535000e+00
   C3r   TQ3  1 3.980000e-01    4.606000e+00
   C2r    Q3  1 5.200000e-01    2.402000e+00
   C2r   SQ3  1 4.730000e-01    2.316000e+00
   C2r   TQ3  1 4.650000e-01    2.942000e+00
   C1r    Q3  1 5.200000e-01    2.315000e+00
   C1r   SQ3  1 4.730000e-01    1.996000e+00
   C1r   TQ3  1 4.650000e-01    2.251000e+00
   X4r    Q3  1 4.700000e-01    3.802000e+00
   X4r   SQ3  1 4.300000e-01    4.825000e+00
   X4r   TQ3  1 3.950000e-01    6.862000e+00
   X3r    Q3  1 4.700000e-01    3.608000e+00
   X3r   SQ3  1 4.300000e-01    4.498000e+00
   X3r   TQ3  1 3.950000e-01    6.402000e+00
   X2r    Q3  1 4.700000e-01    3.444000e+00
   X2r   SQ3  1 4.300000e-01    4.089000e+00
   X2r   TQ3  1 3.950000e-01    5.761000e+00
   X1r    Q3  1 4.700000e-01    3.166000e+00
   X1r   SQ3  1 4.300000e-01    3.535000e+00
   X1r   TQ3  1 3.980000e-01    4.606000e+00
  P6dr    Q3  1 4.700000e-01    5.195000e+00
  P6dr   SQ3  1 4.300000e-01    6.785000e+00
  P6dr   TQ3  1 3.950000e-01    9.717000e+00
  P5dr    Q3  1 4.700000e-01    5.182000e+00
  P5dr   SQ3  1 4.300000e-01    6.736000e+00
  P5dr   TQ3  1 3.950000e-01    9.604000e+00
  P4dr    Q3  1 4.700000e-01    5.165000e+00
  P4dr   SQ3  1 4.300000e-01    6.676000e+00
  P4dr   TQ3  1 3.950000e-01    9.466000e+00
  P3dr    Q3  1 4.700000e-01    5.155000e+00
  P3dr   SQ3  1 4.300000e-01    6.638000e+00
  P3dr   TQ3  1 3.950000e-01    9.377000e+00
  P2dr    Q3  1 4.700000e-01    4.917000e+00
  P2dr   SQ3  1 4.300000e-01    6.410000e+00
  P2dr   TQ3  1 3.950000e-01    9.073000e+00
  P1dr    Q3  1 4.700000e-01    4.721000e+00
  P1dr   SQ3  1 4.300000e-01    6.188000e+00
  P1dr   TQ3  1 3.950000e-01    8.782000e+00
  N6dr    Q3  1 4.700000e-01    4.714000e+00
  N6dr   SQ3  1 4.300000e-01    6.163000e+00
  N6dr   TQ3  1 3.950000e-01    8.723000e+00
  N5dr    Q3  1 4.700000e-01    4.706000e+00
  N5dr   SQ3  1 4.300000e-01    6.133000e+00
  N5dr   TQ3  1 3.950000e-01    8.654000e+00
  N4dr    Q3  1 4.700000e-01    4.696000e+00
  N4dr   SQ3  1 4.300000e-01    6.095000e+00
  N4dr   TQ3  1 3.950000e-01    8.568000e+00
  N3dr    Q3  1 4.700000e-01    4.503000e+00
  N3dr   SQ3  1 4.300000e-01    5.868000e+00
  N3dr   TQ3  1 3.950000e-01    8.208000e+00
  N2dr    Q3  1 4.700000e-01    4.485000e+00
  N2dr   SQ3  1 4.300000e-01    5.804000e+00
  N2dr   TQ3  1 3.950000e-01    8.059000e+00
  N1dr    Q3  1 4.700000e-01    4.460000e+00
  N1dr   SQ3  1 4.300000e-01    5.710000e+00
  N1dr   TQ3  1 3.950000e-01    7.843000e+00
  P6ar    Q3  1 4.700000e-01    5.195000e+00
  P6ar   SQ3  1 4.300000e-01    6.785000e+00
  P6ar   TQ3  1 3.950000e-01    9.717000e+00
  P5ar    Q3  1 4.700000e-01    5.182000e+00
  P5ar   SQ3  1 4.300000e-01    6.736000e+00
  P5ar   TQ3  1 3.950000e-01    9.604000e+00
  P4ar    Q3  1 4.700000e-01    5.165000e+00
  P4ar   SQ3  1 4.300000e-01    6.676000e+00
  P4ar   TQ3  1 3.950000e-01    9.466000e+00
  P3ar    Q3  1 4.700000e-01    5.155000e+00
  P3ar   SQ3  1 4.300000e-01    6.638000e+00
  P3ar   TQ3  1 3.950000e-01    9.377000e+00
  P2ar    Q3  1 4.700000e-01    4.917000e+00
  P2ar   SQ3  1 4.300000e-01    6.410000e+00
  P2ar   TQ3  1 3.950000e-01    9.073000e+00
  P1ar    Q3  1 4.700000e-01    4.721000e+00
  P1ar   SQ3  1 4.300000e-01    6.188000e+00
  P1ar   TQ3  1 3.950000e-01    8.782000e+00
  N6ar    Q3  1 4.700000e-01    4.714000e+00
  N6ar   SQ3  1 4.300000e-01    6.163000e+00
  N6ar   TQ3  1 3.950000e-01    8.723000e+00
  N5ar    Q3  1 4.700000e-01    4.706000e+00
  N5ar   SQ3  1 4.300000e-01    6.133000e+00
  N5ar   TQ3  1 3.950000e-01    8.654000e+00
  N4ar    Q3  1 4.700000e-01    4.696000e+00
  N4ar   SQ3  1 4.300000e-01    6.095000e+00
  N4ar   TQ3  1 3.950000e-01    8.568000e+00
  N3ar    Q3  1 4.700000e-01    4.503000e+00
  N3ar   SQ3  1 4.300000e-01    5.868000e+00
  N3ar   TQ3  1 3.950000e-01    8.208000e+00
  N2ar    Q3  1 4.700000e-01    4.485000e+00
  N2ar   SQ3  1 4.300000e-01    5.804000e+00
  N2ar   TQ3  1 3.950000e-01    8.059000e+00
  N1ar    Q3  1 4.700000e-01    4.460000e+00
  N1ar   SQ3  1 4.300000e-01    5.710000e+00
  N1ar   TQ3  1 3.950000e-01    7.843000e+00
  C6vr    Q3  1 4.700000e-01    3.928000e+00
  C6vr   SQ3  1 4.300000e-01    4.888000e+00
  C6vr   TQ3  1 3.950000e-01    6.862000e+00
  C5vr    Q3  1 4.700000e-01    3.745000e+00
  C5vr   SQ3  1 4.300000e-01    4.619000e+00
  C5vr   TQ3  1 3.950000e-01    6.385000e+00
  C4vr    Q3  1 4.700000e-01    3.527000e+00
  C4vr   SQ3  1 4.300000e-01    4.200000e+00
  C4vr   TQ3  1 3.950000e-01    5.713000e+00
  C3vr    Q3  1 4.700000e-01    3.336000e+00
  C3vr   SQ3  1 4.300000e-01    3.695000e+00
  C3vr   TQ3  1 3.950000e-01    4.850000e+00
  C2vr    Q3  1 4.850000e-01    2.542000e+00
  C2vr   SQ3  1 4.430000e-01    2.587000e+00
  C2vr   TQ3  1 4.040000e-01    3.408000e+00
  C1vr    Q3  1 4.850000e-01    2.449000e+00
  C1vr   SQ3  1 4.430000e-01    2.245000e+00
  C1vr   TQ3  1 4.040000e-01    2.611000e+00
  X4vr    Q3  1 4.700000e-01    3.952000e+00
  X4vr   SQ3  1 4.300000e-01    4.975000e+00
  X4vr   TQ3  1 3.950000e-01    7.062000e+00
  X3vr    Q3  1 4.700000e-01    3.778000e+00
  X3vr   SQ3  1 4.300000e-01    4.738000e+00
  X3vr   TQ3  1 3.950000e-01    6.662000e+00
  X2vr    Q3  1 4.700000e-01    3.554000e+00
  X2vr   SQ3  1 4.300000e-01    4.299000e+00
  X2vr   TQ3  1 3.950000e-01    5.941000e+00
  X1vr    Q3  1 4.700000e-01    3.336000e+00
  X1vr   SQ3  1 4.300000e-01    3.695000e+00
  X1vr   TQ3  1 3.950000e-01    4.850000e+00
  C6er    Q3  1 4.700000e-01    3.928000e+00
  C6er   SQ3  1 4.300000e-01    4.888000e+00
  C6er   TQ3  1 3.950000e-01    6.862000e+00
  C5er    Q3  1 4.700000e-01    3.745000e+00
  C5er   SQ3  1 4.300000e-01    4.619000e+00
  C5er   TQ3  1 3.950000e-01    6.385000e+00
  C4er    Q3  1 4.700000e-01    3.527000e+00
  C4er   SQ3  1 4.300000e-01    4.200000e+00
  C4er   TQ3  1 3.950000e-01    5.713000e+00
  C3er    Q3  1 4.700000e-01    3.336000e+00
  C3er   SQ3  1 4.300000e-01    3.695000e+00
  C3er   TQ3  1 3.950000e-01    4.850000e+00
  C2er    Q3  1 4.850000e-01    2.542000e+00
  C2er   SQ3  1 4.430000e-01    2.587000e+00
  C2er   TQ3  1 4.040000e-01    3.408000e+00
  C1er    Q3  1 4.850000e-01    2.449000e+00
  C1er   SQ3  1 4.430000e-01    2.245000e+00
  C1er   TQ3  1 4.040000e-01    2.611000e+00
  X4er    Q3  1 4.700000e-01    3.952000e+00
  X4er   SQ3  1 4.300000e-01    4.975000e+00
  X4er   TQ3  1 3.950000e-01    7.062000e+00
  X3er    Q3  1 4.700000e-01    3.778000e+00
  X3er   SQ3  1 4.300000e-01    4.738000e+00
  X3er   TQ3  1 3.950000e-01    6.662000e+00
  X2er    Q3  1 4.700000e-01    3.554000e+00
  X2er   SQ3  1 4.300000e-01    4.299000e+00
  X2er   TQ3  1 3.950000e-01    5.941000e+00
  X1er    Q3  1 4.700000e-01    3.336000e+00
  X1er   SQ3  1 4.300000e-01    3.695000e+00
  X1er   TQ3  1 3.950000e-01    4.850000e+00
   SP6    Q3  1 4.300000e-01    4.659000e+00
   SP6   SQ3  1 4.100000e-01    6.305000e+00
   SP6   TQ3  1 3.650000e-01    8.565000e+00
   SP5    Q3  1 4.300000e-01    4.651000e+00
   SP5   SQ3  1 4.100000e-01    6.265000e+00
   SP5   TQ3  1 3.650000e-01    8.480000e+00
   SP4    Q3  1 4.300000e-01    4.641000e+00
   SP4   SQ3  1 4.100000e-01    6.214000e+00
   SP4   TQ3  1 3.650000e-01    8.374000e+00
   SP3    Q3  1 4.300000e-01    4.634000e+00
   SP3   SQ3  1 4.100000e-01    6.180000e+00
   SP3   TQ3  1 3.650000e-01    8.303000e+00
   SP2    Q3  1 4.300000e-01    4.429000e+00
   SP2   SQ3  1 4.100000e-01    5.885000e+00
   SP2   TQ3  1 3.650000e-01    7.981000e+00
   SP1    Q3  1 4.300000e-01    4.226000e+00
   SP1   SQ3  1 4.100000e-01    5.626000e+00
   SP1   TQ3  1 3.650000e-01    7.670000e+00
   SN6    Q3  1 4.300000e-01    4.221000e+00
   SN6   SQ3  1 4.100000e-01    5.603000e+00
   SN6   TQ3  1 3.650000e-01    7.622000e+00
   SN5    Q3  1 4.300000e-01    4.216000e+00
   SN5   SQ3  1 4.100000e-01    5.575000e+00
   SN5   TQ3  1 3.650000e-01    7.565000e+00
   SN4    Q3  1 4.300000e-01    4.209000e+00
   SN4   SQ3  1 4.100000e-01    5.541000e+00
   SN4   TQ3  1 3.650000e-01    7.493000e+00
   SN3    Q3  1 4.300000e-01    4.020000e+00
   SN3   SQ3  1 4.100000e-01    5.257000e+00
   SN3   TQ3  1 3.650000e-01    7.142000e+00
   SN2    Q3  1 4.300000e-01    4.009000e+00
   SN2   SQ3  1 4.100000e-01    5.198000e+00
   SN2   TQ3  1 3.650000e-01    7.017000e+00
   SN1    Q3  1 4.300000e-01    3.991000e+00
   SN1   SQ3  1 4.100000e-01    5.110000e+00
   SN1   TQ3  1 3.650000e-01    6.835000e+00
   SC6    Q3  1 4.300000e-01    3.143000e+00
   SC6   SQ3  1 4.100000e-01    4.098000e+00
   SC6   TQ3  1 3.650000e-01    5.718000e+00
   SC5    Q3  1 4.300000e-01    2.881000e+00
   SC5   SQ3  1 4.100000e-01    3.826000e+00
   SC5   TQ3  1 3.660000e-01    5.322000e+00
   SC4    Q3  1 4.300000e-01    2.638000e+00
   SC4   SQ3  1 4.100000e-01    3.528000e+00
   SC4   TQ3  1 3.780000e-01    4.716000e+00
   SC3    Q3  1 4.300000e-01    2.424000e+00
   SC3   SQ3  1 4.100000e-01    3.090000e+00
   SC3   TQ3  1 3.940000e-01    3.885000e+00
   SC2    Q3  1 4.730000e-01    1.480000e+00
   SC2   SQ3  1 4.530000e-01    2.163000e+00
   SC2   TQ3  1 4.840000e-01    2.654000e+00
   SC1    Q3  1 4.730000e-01    1.421000e+00
   SC1   SQ3  1 4.530000e-01    1.862000e+00
   SC1   TQ3  1 4.840000e-01    2.131000e+00
   SX4    Q3  1 4.300000e-01    3.159000e+00
   SX4   SQ3  1 4.100000e-01    4.179000e+00
   SX4   TQ3  1 3.650000e-01    5.887000e+00
   SX3    Q3  1 4.300000e-01    2.903000e+00
   SX3   SQ3  1 4.100000e-01    3.938000e+00
   SX3   TQ3  1 3.660000e-01    5.557000e+00
   SX2    Q3  1 4.300000e-01    2.657000e+00
   SX2   SQ3  1 4.100000e-01    3.621000e+00
   SX2   TQ3  1 3.780000e-01    4.904000e+00
   SX1    Q3  1 4.300000e-01    2.424000e+00
   SX1   SQ3  1 4.100000e-01    3.090000e+00
   SX1   TQ3  1 3.940000e-01    3.885000e+00
  SP6d    Q3  1 4.300000e-01    4.659000e+00
  SP6d   SQ3  1 4.100000e-01    6.305000e+00
  SP6d   TQ3  1 3.650000e-01    8.565000e+00
  SP5d    Q3  1 4.300000e-01    4.651000e+00
  SP5d   SQ3  1 4.100000e-01    6.265000e+00
  SP5d   TQ3  1 3.650000e-01    8.480000e+00
  SP4d    Q3  1 4.300000e-01    4.641000e+00
  SP4d   SQ3  1 4.100000e-01    6.214000e+00
  SP4d   TQ3  1 3.650000e-01    8.374000e+00
  SP3d    Q3  1 4.300000e-01    4.634000e+00
  SP3d   SQ3  1 4.100000e-01    6.180000e+00
  SP3d   TQ3  1 3.650000e-01    8.303000e+00
  SP2d    Q3  1 4.300000e-01    4.429000e+00
  SP2d   SQ3  1 4.100000e-01    5.885000e+00
  SP2d   TQ3  1 3.650000e-01    7.981000e+00
  SP1d    Q3  1 4.300000e-01    4.226000e+00
  SP1d   SQ3  1 4.100000e-01    5.626000e+00
  SP1d   TQ3  1 3.650000e-01    7.670000e+00
  SN6d    Q3  1 4.300000e-01    4.221000e+00
  SN6d   SQ3  1 4.100000e-01    5.603000e+00
  SN6d   TQ3  1 3.650000e-01    7.622000e+00
  SN5d    Q3  1 4.300000e-01    4.216000e+00
  SN5d   SQ3  1 4.100000e-01    5.575000e+00
  SN5d   TQ3  1 3.650000e-01    7.565000e+00
  SN4d    Q3  1 4.300000e-01    4.209000e+00
  SN4d   SQ3  1 4.100000e-01    5.541000e+00
  SN4d   TQ3  1 3.650000e-01    7.493000e+00
  SN3d    Q3  1 4.300000e-01    4.020000e+00
  SN3d   SQ3  1 4.100000e-01    5.257000e+00
  SN3d   TQ3  1 3.650000e-01    7.142000e+00
  SN2d    Q3  1 4.300000e-01    4.009000e+00
  SN2d   SQ3  1 4.100000e-01    5.198000e+00
  SN2d   TQ3  1 3.650000e-01    7.017000e+00
  SN1d    Q3  1 4.300000e-01    3.991000e+00
  SN1d   SQ3  1 4.100000e-01    5.110000e+00
  SN1d   TQ3  1 3.650000e-01    6.835000e+00
  SP6a    Q3  1 4.300000e-01    4.659000e+00
  SP6a   SQ3  1 4.100000e-01    6.305000e+00
  SP6a   TQ3  1 3.650000e-01    8.565000e+00
  SP5a    Q3  1 4.300000e-01    4.651000e+00
  SP5a   SQ3  1 4.100000e-01    6.265000e+00
  SP5a   TQ3  1 3.650000e-01    8.480000e+00
  SP4a    Q3  1 4.300000e-01    4.641000e+00
  SP4a   SQ3  1 4.100000e-01    6.214000e+00
  SP4a   TQ3  1 3.650000e-01    8.374000e+00
  SP3a    Q3  1 4.300000e-01    4.634000e+00
  SP3a   SQ3  1 4.100000e-01    6.180000e+00
  SP3a   TQ3  1 3.650000e-01    8.303000e+00
  SP2a    Q3  1 4.300000e-01    4.429000e+00
  SP2a   SQ3  1 4.100000e-01    5.885000e+00
  SP2a   TQ3  1 3.650000e-01    7.981000e+00
  SP1a    Q3  1 4.300000e-01    4.226000e+00
  SP1a   SQ3  1 4.100000e-01    5.626000e+00
  SP1a   TQ3  1 3.650000e-01    7.670000e+00
  SN6a    Q3  1 4.300000e-01    4.221000e+00
  SN6a   SQ3  1 4.100000e-01    5.603000e+00
  SN6a   TQ3  1 3.650000e-01    7.622000e+00
  SN5a    Q3  1 4.300000e-01    4.216000e+00
  SN5a   SQ3  1 4.100000e-01    5.575000e+00
  SN5a   TQ3  1 3.650000e-01    7.565000e+00
  SN4a    Q3  1 4.300000e-01    4.209000e+00
  SN4a   SQ3  1 4.100000e-01    5.541000e+00
  SN4a   TQ3  1 3.650000e-01    7.493000e+00
  SN3a    Q3  1 4.300000e-01    4.020000e+00
  SN3a   SQ3  1 4.100000e-01    5.257000e+00
  SN3a   TQ3  1 3.650000e-01    7.142000e+00
  SN2a    Q3  1 4.300000e-01    4.009000e+00
  SN2a   SQ3  1 4.100000e-01    5.198000e+00
  SN2a   TQ3  1 3.650000e-01    7.017000e+00
  SN1a    Q3  1 4.300000e-01    3.991000e+00
  SN1a   SQ3  1 4.100000e-01    5.110000e+00
  SN1a   TQ3  1 3.650000e-01    6.835000e+00
  SC6v    Q3  1 4.300000e-01    3.293000e+00
  SC6v   SQ3  1 4.100000e-01    4.248000e+00
  SC6v   TQ3  1 3.650000e-01    5.878000e+00
  SC5v    Q3  1 4.300000e-01    3.121000e+00
  SC5v   SQ3  1 4.100000e-01    3.986000e+00
  SC5v   TQ3  1 3.650000e-01    5.482000e+00
  SC4v    Q3  1 4.300000e-01    2.848000e+00
  SC4v   SQ3  1 4.100000e-01    3.658000e+00
  SC4v   TQ3  1 3.660000e-01    4.973000e+00
  SC3v    Q3  1 4.300000e-01    2.584000e+00
  SC3v   SQ3  1 4.100000e-01    3.250000e+00
  SC3v   TQ3  1 3.780000e-01    4.155000e+00
  SC2v    Q3  1 4.430000e-01    1.694000e+00
  SC2v   SQ3  1 4.210000e-01    2.340000e+00
  SC2v   TQ3  1 4.230000e-01    2.999000e+00
  SC1v    Q3  1 4.430000e-01    1.630000e+00
  SC1v   SQ3  1 4.210000e-01    2.016000e+00
  SC1v   TQ3  1 4.230000e-01    2.400000e+00
  SX4v    Q3  1 4.300000e-01    3.309000e+00
  SX4v   SQ3  1 4.100000e-01    4.329000e+00
  SX4v   TQ3  1 3.650000e-01    6.047000e+00
  SX3v    Q3  1 4.300000e-01    3.143000e+00
  SX3v   SQ3  1 4.100000e-01    4.098000e+00
  SX3v   TQ3  1 3.650000e-01    5.718000e+00
  SX2v    Q3  1 4.300000e-01    2.867000e+00
  SX2v   SQ3  1 4.100000e-01    3.751000e+00
  SX2v   TQ3  1 3.660000e-01    5.167000e+00
  SX1v    Q3  1 4.300000e-01    2.584000e+00
  SX1v   SQ3  1 4.100000e-01    3.250000e+00
  SX1v   TQ3  1 3.780000e-01    4.155000e+00
  SC6e    Q3  1 4.300000e-01    3.293000e+00
  SC6e   SQ3  1 4.100000e-01    4.248000e+00
  SC6e   TQ3  1 3.650000e-01    5.878000e+00
  SC5e    Q3  1 4.300000e-01    3.121000e+00
  SC5e   SQ3  1 4.100000e-01    3.986000e+00
  SC5e   TQ3  1 3.650000e-01    5.482000e+00
  SC4e    Q3  1 4.300000e-01    2.848000e+00
  SC4e   SQ3  1 4.100000e-01    3.658000e+00
  SC4e   TQ3  1 3.660000e-01    4.973000e+00
  SC3e    Q3  1 4.300000e-01    2.584000e+00
  SC3e   SQ3  1 4.100000e-01    3.250000e+00
  SC3e   TQ3  1 3.780000e-01    4.155000e+00
  SC2e    Q3  1 4.430000e-01    1.694000e+00
  SC2e   SQ3  1 4.210000e-01    2.340000e+00
  SC2e   TQ3  1 4.230000e-01    2.999000e+00
  SC1e    Q3  1 4.430000e-01    1.630000e+00
  SC1e   SQ3  1 4.210000e-01    2.016000e+00
  SC1e   TQ3  1 4.230000e-01    2.400000e+00
  SX4e    Q3  1 4.300000e-01    3.309000e+00
  SX4e   SQ3  1 4.100000e-01    4.329000e+00
  SX4e   TQ3  1 3.650000e-01    6.047000e+00
  SX3e    Q3  1 4.300000e-01    3.143000e+00
  SX3e   SQ3  1 4.100000e-01    4.098000e+00
  SX3e   TQ3  1 3.650000e-01    5.718000e+00
  SX2e    Q3  1 4.300000e-01    2.867000e+00
  SX2e   SQ3  1 4.100000e-01    3.751000e+00
  SX2e   TQ3  1 3.660000e-01    5.167000e+00
  SX1e    Q3  1 4.300000e-01    2.584000e+00
  SX1e   SQ3  1 4.100000e-01    3.250000e+00
  SX1e   TQ3  1 3.780000e-01    4.155000e+00
  SP6q    Q3  1 4.300000e-01    5.409000e+00
  SP6q   SQ3  1 4.100000e-01    7.035000e+00
  SP6q   TQ3  1 3.650000e-01    9.415000e+00
  SP5q    Q3  1 4.300000e-01    5.401000e+00
  SP5q   SQ3  1 4.100000e-01    6.995000e+00
  SP5q   TQ3  1 3.650000e-01    9.330000e+00
  SP4q    Q3  1 4.300000e-01    5.391000e+00
  SP4q   SQ3  1 4.100000e-01    6.944000e+00
  SP4q   TQ3  1 3.650000e-01    9.224000e+00
  SP3q    Q3  1 4.300000e-01    5.384000e+00
  SP3q   SQ3  1 4.100000e-01    6.910000e+00
  SP3q   TQ3  1 3.650000e-01    9.153000e+00
  SP2q    Q3  1 4.300000e-01    5.139000e+00
  SP2q   SQ3  1 4.100000e-01    6.625000e+00
  SP2q   TQ3  1 3.650000e-01    8.811000e+00
  SP1q    Q3  1 4.300000e-01    4.856000e+00
  SP1q   SQ3  1 4.100000e-01    6.356000e+00
  SP1q   TQ3  1 3.650000e-01    8.480000e+00
  SN6q    Q3  1 4.300000e-01    4.851000e+00
  SN6q   SQ3  1 4.100000e-01    6.333000e+00
  SN6q   TQ3  1 3.650000e-01    8.432000e+00
  SN5q    Q3  1 4.300000e-01    4.846000e+00
  SN5q   SQ3  1 4.100000e-01    6.305000e+00
  SN5q   TQ3  1 3.650000e-01    8.375000e+00
  SN4q    Q3  1 4.300000e-01    4.839000e+00
  SN4q   SQ3  1 4.100000e-01    6.271000e+00
  SN4q   TQ3  1 3.650000e-01    8.303000e+00
  SN3q    Q3  1 4.300000e-01    4.600000e+00
  SN3q   SQ3  1 4.100000e-01    6.007000e+00
  SN3q   TQ3  1 3.650000e-01    7.942000e+00
  SN2q    Q3  1 4.300000e-01    4.589000e+00
  SN2q   SQ3  1 4.100000e-01    5.948000e+00
  SN2q   TQ3  1 3.650000e-01    7.817000e+00
  SN1q    Q3  1 4.300000e-01    4.571000e+00
  SN1q   SQ3  1 4.100000e-01    5.860000e+00
  SN1q   TQ3  1 3.650000e-01    7.635000e+00
  SC6q    Q3  1 4.300000e-01    3.753000e+00
  SC6q   SQ3  1 4.100000e-01    4.738000e+00
  SC6q   TQ3  1 3.650000e-01    6.308000e+00
  SC5q    Q3  1 4.300000e-01    3.511000e+00
  SC5q   SQ3  1 4.100000e-01    4.386000e+00
  SC5q   TQ3  1 3.650000e-01    5.842000e+00
  SC4q    Q3  1 4.300000e-01    3.238000e+00
  SC4q   SQ3  1 4.100000e-01    3.968000e+00
  SC4q   TQ3  1 3.650000e-01    5.292000e+00
  SC3q    Q3  1 4.300000e-01    3.034000e+00
  SC3q   SQ3  1 4.100000e-01    3.540000e+00
  SC3q   TQ3  1 3.650000e-01    4.552000e+00
  SC2q    Q3  1 4.300000e-01    2.150000e+00
  SC2q   SQ3  1 4.140000e-01    2.668000e+00
  SC2q   TQ3  1 4.040000e-01    3.243000e+00
  SC1q    Q3  1 4.300000e-01    2.085000e+00
  SC1q   SQ3  1 4.140000e-01    2.339000e+00
  SC1q   TQ3  1 4.040000e-01    2.616000e+00
  SX4q    Q3  1 4.300000e-01    3.769000e+00
  SX4q   SQ3  1 4.100000e-01    4.819000e+00
  SX4q   TQ3  1 3.650000e-01    6.477000e+00
  SX3q    Q3  1 4.300000e-01    3.533000e+00
  SX3q   SQ3  1 4.100000e-01    4.498000e+00
  SX3q   TQ3  1 3.650000e-01    6.078000e+00
  SX2q    Q3  1 4.300000e-01    3.257000e+00
  SX2q   SQ3  1 4.100000e-01    4.061000e+00
  SX2q   TQ3  1 3.650000e-01    5.487000e+00
  SX1q    Q3  1 4.300000e-01    3.034000e+00
  SX1q   SQ3  1 4.100000e-01    3.540000e+00
  SX1q   TQ3  1 3.650000e-01    4.552000e+00
 SP6dq    Q3  1 4.300000e-01    5.409000e+00
 SP6dq   SQ3  1 4.100000e-01    7.035000e+00
 SP6dq   TQ3  1 3.650000e-01    9.415000e+00
 SP5dq    Q3  1 4.300000e-01    5.401000e+00
 SP5dq   SQ3  1 4.100000e-01    6.995000e+00
 SP5dq   TQ3  1 3.650000e-01    9.330000e+00
 SP4dq    Q3  1 4.300000e-01    5.391000e+00
 SP4dq   SQ3  1 4.100000e-01    6.944000e+00
 SP4dq   TQ3  1 3.650000e-01    9.224000e+00
 SP3dq    Q3  1 4.300000e-01    5.384000e+00
 SP3dq   SQ3  1 4.100000e-01    6.910000e+00
 SP3dq   TQ3  1 3.650000e-01    9.153000e+00
 SP2dq    Q3  1 4.300000e-01    5.139000e+00
 SP2dq   SQ3  1 4.100000e-01    6.625000e+00
 SP2dq   TQ3  1 3.650000e-01    8.811000e+00
 SP1dq    Q3  1 4.300000e-01    4.856000e+00
 SP1dq   SQ3  1 4.100000e-01    6.356000e+00
 SP1dq   TQ3  1 3.650000e-01    8.480000e+00
 SN6dq    Q3  1 4.300000e-01    4.851000e+00
 SN6dq   SQ3  1 4.100000e-01    6.333000e+00
 SN6dq   TQ3  1 3.650000e-01    8.432000e+00
 SN5dq    Q3  1 4.300000e-01    4.846000e+00
 SN5dq   SQ3  1 4.100000e-01    6.305000e+00
 SN5dq   TQ3  1 3.650000e-01    8.375000e+00
 SN4dq    Q3  1 4.300000e-01    4.839000e+00
 SN4dq   SQ3  1 4.100000e-01    6.271000e+00
 SN4dq   TQ3  1 3.650000e-01    8.303000e+00
 SN3dq    Q3  1 4.300000e-01    4.600000e+00
 SN3dq   SQ3  1 4.100000e-01    6.007000e+00
 SN3dq   TQ3  1 3.650000e-01    7.942000e+00
 SN2dq    Q3  1 4.300000e-01    4.589000e+00
 SN2dq   SQ3  1 4.100000e-01    5.948000e+00
 SN2dq   TQ3  1 3.650000e-01    7.817000e+00
 SN1dq    Q3  1 4.300000e-01    4.571000e+00
 SN1dq   SQ3  1 4.100000e-01    5.860000e+00
 SN1dq   TQ3  1 3.650000e-01    7.635000e+00
 SP6aq    Q3  1 4.300000e-01    5.409000e+00
 SP6aq   SQ3  1 4.100000e-01    7.035000e+00
 SP6aq   TQ3  1 3.650000e-01    9.415000e+00
 SP5aq    Q3  1 4.300000e-01    5.401000e+00
 SP5aq   SQ3  1 4.100000e-01    6.995000e+00
 SP5aq   TQ3  1 3.650000e-01    9.330000e+00
 SP4aq    Q3  1 4.300000e-01    5.391000e+00
 SP4aq   SQ3  1 4.100000e-01    6.944000e+00
 SP4aq   TQ3  1 3.650000e-01    9.224000e+00
 SP3aq    Q3  1 4.300000e-01    5.384000e+00
 SP3aq   SQ3  1 4.100000e-01    6.910000e+00
 SP3aq   TQ3  1 3.650000e-01    9.153000e+00
 SP2aq    Q3  1 4.300000e-01    5.139000e+00
 SP2aq   SQ3  1 4.100000e-01    6.625000e+00
 SP2aq   TQ3  1 3.650000e-01    8.811000e+00
 SP1aq    Q3  1 4.300000e-01    4.856000e+00
 SP1aq   SQ3  1 4.100000e-01    6.356000e+00
 SP1aq   TQ3  1 3.650000e-01    8.480000e+00
 SN6aq    Q3  1 4.300000e-01    4.851000e+00
 SN6aq   SQ3  1 4.100000e-01    6.333000e+00
 SN6aq   TQ3  1 3.650000e-01    8.432000e+00
 SN5aq    Q3  1 4.300000e-01    4.846000e+00
 SN5aq   SQ3  1 4.100000e-01    6.305000e+00
 SN5aq   TQ3  1 3.650000e-01    8.375000e+00
 SN4aq    Q3  1 4.300000e-01    4.839000e+00
 SN4aq   SQ3  1 4.100000e-01    6.271000e+00
 SN4aq   TQ3  1 3.650000e-01    8.303000e+00
 SN3aq    Q3  1 4.300000e-01    4.600000e+00
 SN3aq   SQ3  1 4.100000e-01    6.007000e+00
 SN3aq   TQ3  1 3.650000e-01    7.942000e+00
 SN2aq    Q3  1 4.300000e-01    4.589000e+00
 SN2aq   SQ3  1 4.100000e-01    5.948000e+00
 SN2aq   TQ3  1 3.650000e-01    7.817000e+00
 SN1aq    Q3  1 4.300000e-01    4.571000e+00
 SN1aq   SQ3  1 4.100000e-01    5.860000e+00
 SN1aq   TQ3  1 3.650000e-01    7.635000e+00
 SC6vq    Q3  1 4.300000e-01    3.963000e+00
 SC6vq   SQ3  1 4.100000e-01    4.968000e+00
 SC6vq   TQ3  1 3.650000e-01    6.538000e+00
 SC5vq    Q3  1 4.300000e-01    3.731000e+00
 SC5vq   SQ3  1 4.100000e-01    4.626000e+00
 SC5vq   TQ3  1 3.650000e-01    6.072000e+00
 SC4vq    Q3  1 4.300000e-01    3.478000e+00
 SC4vq   SQ3  1 4.100000e-01    4.218000e+00
 SC4vq   TQ3  1 3.650000e-01    5.492000e+00
 SC3vq    Q3  1 4.300000e-01    3.184000e+00
 SC3vq   SQ3  1 4.100000e-01    3.690000e+00
 SC3vq   TQ3  1 3.650000e-01    4.712000e+00
 SC2vq    Q3  1 4.300000e-01    2.380000e+00
 SC2vq   SQ3  1 4.100000e-01    2.869000e+00
 SC2vq   TQ3  1 3.940000e-01    3.456000e+00
 SC1vq    Q3  1 4.300000e-01    2.315000e+00
 SC1vq   SQ3  1 4.100000e-01    2.537000e+00
 SC1vq   TQ3  1 3.940000e-01    2.814000e+00
 SX4vq    Q3  1 4.300000e-01    3.979000e+00
 SX4vq   SQ3  1 4.100000e-01    5.049000e+00
 SX4vq   TQ3  1 3.650000e-01    6.707000e+00
 SX3vq    Q3  1 4.300000e-01    3.753000e+00
 SX3vq   SQ3  1 4.100000e-01    4.738000e+00
 SX3vq   TQ3  1 3.650000e-01    6.308000e+00
 SX2vq    Q3  1 4.300000e-01    3.497000e+00
 SX2vq   SQ3  1 4.100000e-01    4.311000e+00
 SX2vq   TQ3  1 3.650000e-01    5.687000e+00
 SX1vq    Q3  1 4.300000e-01    3.184000e+00
 SX1vq   SQ3  1 4.100000e-01    3.690000e+00
 SX1vq   TQ3  1 3.650000e-01    4.712000e+00
 SC6eq    Q3  1 4.300000e-01    3.963000e+00
 SC6eq   SQ3  1 4.100000e-01    4.968000e+00
 SC6eq   TQ3  1 3.650000e-01    6.538000e+00
 SC5eq    Q3  1 4.300000e-01    3.731000e+00
 SC5eq   SQ3  1 4.100000e-01    4.626000e+00
 SC5eq   TQ3  1 3.650000e-01    6.072000e+00
 SC4eq    Q3  1 4.300000e-01    3.478000e+00
 SC4eq   SQ3  1 4.100000e-01    4.218000e+00
 SC4eq   TQ3  1 3.650000e-01    5.492000e+00
 SC3eq    Q3  1 4.300000e-01    3.184000e+00
 SC3eq   SQ3  1 4.100000e-01    3.690000e+00
 SC3eq   TQ3  1 3.650000e-01    4.712000e+00
 SC2eq    Q3  1 4.300000e-01    2.380000e+00
 SC2eq   SQ3  1 4.100000e-01    2.869000e+00
 SC2eq   TQ3  1 3.940000e-01    3.456000e+00
 SC1eq    Q3  1 4.300000e-01    2.315000e+00
 SC1eq   SQ3  1 4.100000e-01    2.537000e+00
 SC1eq   TQ3  1 3.940000e-01    2.814000e+00
 SX4eq    Q3  1 4.300000e-01    3.979000e+00
 SX4eq   SQ3  1 4.100000e-01    5.049000e+00
 SX4eq   TQ3  1 3.650000e-01    6.707000e+00
 SX3eq    Q3  1 4.300000e-01    3.753000e+00
 SX3eq   SQ3  1 4.100000e-01    4.738000e+00
 SX3eq   TQ3  1 3.650000e-01    6.308000e+00
 SX2eq    Q3  1 4.300000e-01    3.497000e+00
 SX2eq   SQ3  1 4.100000e-01    4.311000e+00
 SX2eq   TQ3  1 3.650000e-01    5.687000e+00
 SX1eq    Q3  1 4.300000e-01    3.184000e+00
 SX1eq   SQ3  1 4.100000e-01    3.690000e+00
 SX1eq   TQ3  1 3.650000e-01    4.712000e+00
  SP6h    Q3  1 4.300000e-01    4.659000e+00
  SP6h   SQ3  1 4.100000e-01    6.305000e+00
  SP6h   TQ3  1 3.650000e-01    8.565000e+00
  SP5h    Q3  1 4.300000e-01    4.651000e+00
  SP5h   SQ3  1 4.100000e-01    6.265000e+00
  SP5h   TQ3  1 3.650000e-01    8.480000e+00
  SP4h    Q3  1 4.300000e-01    4.641000e+00
  SP4h   SQ3  1 4.100000e-01    6.214000e+00
  SP4h   TQ3  1 3.650000e-01    8.374000e+00
  SP3h    Q3  1 4.300000e-01    4.634000e+00
  SP3h   SQ3  1 4.100000e-01    6.180000e+00
  SP3h   TQ3  1 3.650000e-01    8.303000e+00
  SP2h    Q3  1 4.300000e-01    4.429000e+00
  SP2h   SQ3  1 4.100000e-01    5.885000e+00
  SP2h   TQ3  1 3.650000e-01    7.981000e+00
  SP1h    Q3  1 4.300000e-01    4.226000e+00
  SP1h   SQ3  1 4.100000e-01    5.626000e+00
  SP1h   TQ3  1 3.650000e-01    7.670000e+00
  SN6h    Q3  1 4.300000e-01    4.221000e+00
  SN6h   SQ3  1 4.100000e-01    5.603000e+00
  SN6h   TQ3  1 3.650000e-01    7.622000e+00
  SN5h    Q3  1 4.300000e-01    4.216000e+00
  SN5h   SQ3  1 4.100000e-01    5.575000e+00
  SN5h   TQ3  1 3.650000e-01    7.565000e+00
  SN4h    Q3  1 4.300000e-01    4.209000e+00
  SN4h   SQ3  1 4.100000e-01    5.541000e+00
  SN4h   TQ3  1 3.650000e-01    7.493000e+00
  SN3h    Q3  1 4.300000e-01    4.020000e+00
  SN3h   SQ3  1 4.100000e-01    5.257000e+00
  SN3h   TQ3  1 3.650000e-01    7.142000e+00
  SN2h    Q3  1 4.300000e-01    4.009000e+00
  SN2h   SQ3  1 4.100000e-01    5.198000e+00
  SN2h   TQ3  1 3.650000e-01    7.017000e+00
  SN1h    Q3  1 4.300000e-01    3.991000e+00
  SN1h   SQ3  1 4.100000e-01    5.110000e+00
  SN1h   TQ3  1 3.650000e-01    6.835000e+00
  SC6h    Q3  1 4.300000e-01    3.143000e+00
  SC6h   SQ3  1 4.100000e-01    4.098000e+00
  SC6h   TQ3  1 3.650000e-01    5.718000e+00
  SC5h    Q3  1 4.300000e-01    2.881000e+00
  SC5h   SQ3  1 4.100000e-01    3.826000e+00
  SC5h   TQ3  1 3.660000e-01    5.322000e+00
  SC4h    Q3  1 4.300000e-01    2.638000e+00
  SC4h   SQ3  1 4.100000e-01    3.528000e+00
  SC4h   TQ3  1 3.780000e-01    4.716000e+00
  SC3h    Q3  1 4.300000e-01    2.424000e+00
  SC3h   SQ3  1 4.100000e-01    3.090000e+00
  SC3h   TQ3  1 3.940000e-01    3.885000e+00
  SC2h    Q3  1 4.730000e-01    1.480000e+00
  SC2h   SQ3  1 4.530000e-01    2.163000e+00
  SC2h   TQ3  1 4.840000e-01    2.654000e+00
  SC1h    Q3  1 4.730000e-01    1.421000e+00
  SC1h   SQ3  1 4.530000e-01    1.862000e+00
  SC1h   TQ3  1 4.840000e-01    2.131000e+00
  SX4h    Q3  1 4.300000e-01    3.159000e+00
  SX4h   SQ3  1 4.100000e-01    4.179000e+00
  SX4h   TQ3  1 3.650000e-01    5.887000e+00
  SX3h    Q3  1 4.300000e-01    2.903000e+00
  SX3h   SQ3  1 4.100000e-01    3.938000e+00
  SX3h   TQ3  1 3.660000e-01    5.557000e+00
  SX2h    Q3  1 4.300000e-01    2.657000e+00
  SX2h   SQ3  1 4.100000e-01    3.621000e+00
  SX2h   TQ3  1 3.780000e-01    4.904000e+00
  SX1h    Q3  1 4.300000e-01    2.424000e+00
  SX1h   SQ3  1 4.100000e-01    3.090000e+00
  SX1h   TQ3  1 3.940000e-01    3.885000e+00
 SP6dh    Q3  1 4.300000e-01    4.659000e+00
 SP6dh   SQ3  1 4.100000e-01    6.305000e+00
 SP6dh   TQ3  1 3.650000e-01    8.565000e+00
 SP5dh    Q3  1 4.300000e-01    4.651000e+00
 SP5dh   SQ3  1 4.100000e-01    6.265000e+00
 SP5dh   TQ3  1 3.650000e-01    8.480000e+00
 SP4dh    Q3  1 4.300000e-01    4.641000e+00
 SP4dh   SQ3  1 4.100000e-01    6.214000e+00
 SP4dh   TQ3  1 3.650000e-01    8.374000e+00
 SP3dh    Q3  1 4.300000e-01    4.634000e+00
 SP3dh   SQ3  1 4.100000e-01    6.180000e+00
 SP3dh   TQ3  1 3.650000e-01    8.303000e+00
 SP2dh    Q3  1 4.300000e-01    4.429000e+00
 SP2dh   SQ3  1 4.100000e-01    5.885000e+00
 SP2dh   TQ3  1 3.650000e-01    7.981000e+00
 SP1dh    Q3  1 4.300000e-01    4.226000e+00
 SP1dh   SQ3  1 4.100000e-01    5.626000e+00
 SP1dh   TQ3  1 3.650000e-01    7.670000e+00
 SN6dh    Q3  1 4.300000e-01    4.221000e+00
 SN6dh   SQ3  1 4.100000e-01    5.603000e+00
 SN6dh   TQ3  1 3.650000e-01    7.622000e+00
 SN5dh    Q3  1 4.300000e-01    4.216000e+00
 SN5dh   SQ3  1 4.100000e-01    5.575000e+00
 SN5dh   TQ3  1 3.650000e-01    7.565000e+00
 SN4dh    Q3  1 4.300000e-01    4.209000e+00
 SN4dh   SQ3  1 4.100000e-01    5.541000e+00
 SN4dh   TQ3  1 3.650000e-01    7.493000e+00
 SN3dh    Q3  1 4.300000e-01    4.020000e+00
 SN3dh   SQ3  1 4.100000e-01    5.257000e+00
 SN3dh   TQ3  1 3.650000e-01    7.142000e+00
 SN2dh    Q3  1 4.300000e-01    4.009000e+00
 SN2dh   SQ3  1 4.100000e-01    5.198000e+00
 SN2dh   TQ3  1 3.650000e-01    7.017000e+00
 SN1dh    Q3  1 4.300000e-01    3.991000e+00
 SN1dh   SQ3  1 4.100000e-01    5.110000e+00
 SN1dh   TQ3  1 3.650000e-01    6.835000e+00
 SP6ah    Q3  1 4.300000e-01    4.659000e+00
 SP6ah   SQ3  1 4.100000e-01    6.305000e+00
 SP6ah   TQ3  1 3.650000e-01    8.565000e+00
 SP5ah    Q3  1 4.300000e-01    4.651000e+00
 SP5ah   SQ3  1 4.100000e-01    6.265000e+00
 SP5ah   TQ3  1 3.650000e-01    8.480000e+00
 SP4ah    Q3  1 4.300000e-01    4.641000e+00
 SP4ah   SQ3  1 4.100000e-01    6.214000e+00
 SP4ah   TQ3  1 3.650000e-01    8.374000e+00
 SP3ah    Q3  1 4.300000e-01    4.634000e+00
 SP3ah   SQ3  1 4.100000e-01    6.180000e+00
 SP3ah   TQ3  1 3.650000e-01    8.303000e+00
 SP2ah    Q3  1 4.300000e-01    4.429000e+00
 SP2ah   SQ3  1 4.100000e-01    5.885000e+00
 SP2ah   TQ3  1 3.650000e-01    7.981000e+00
 SP1ah    Q3  1 4.300000e-01    4.226000e+00
 SP1ah   SQ3  1 4.100000e-01    5.626000e+00
 SP1ah   TQ3  1 3.650000e-01    7.670000e+00
 SN6ah    Q3  1 4.300000e-01    4.221000e+00
 SN6ah   SQ3  1 4.100000e-01    5.603000e+00
 SN6ah   TQ3  1 3.650000e-01    7.622000e+00
 SN5ah    Q3  1 4.300000e-01    4.216000e+00
 SN5ah   SQ3  1 4.100000e-01    5.575000e+00
 SN5ah   TQ3  1 3.650000e-01    7.565000e+00
 SN4ah    Q3  1 4.300000e-01    4.209000e+00
 SN4ah   SQ3  1 4.100000e-01    5.541000e+00
 SN4ah   TQ3  1 3.650000e-01    7.493000e+00
 SN3ah    Q3  1 4.300000e-01    4.020000e+00
 SN3ah   SQ3  1 4.100000e-01    5.257000e+00
 SN3ah   TQ3  1 3.650000e-01    7.142000e+00
 SN2ah    Q3  1 4.300000e-01    4.009000e+00
 SN2ah   SQ3  1 4.100000e-01    5.198000e+00
 SN2ah   TQ3  1 3.650000e-01    7.017000e+00
 SN1ah    Q3  1 4.300000e-01    3.991000e+00
 SN1ah   SQ3  1 4.100000e-01    5.110000e+00
 SN1ah   TQ3  1 3.650000e-01    6.835000e+00
 SC6vh    Q3  1 4.300000e-01    3.293000e+00
 SC6vh   SQ3  1 4.100000e-01    4.248000e+00
 SC6vh   TQ3  1 3.650000e-01    5.878000e+00
 SC5vh    Q3  1 4.300000e-01    3.121000e+00
 SC5vh   SQ3  1 4.100000e-01    3.986000e+00
 SC5vh   TQ3  1 3.650000e-01    5.482000e+00
 SC4vh    Q3  1 4.300000e-01    2.848000e+00
 SC4vh   SQ3  1 4.100000e-01    3.658000e+00
 SC4vh   TQ3  1 3.660000e-01    4.973000e+00
 SC3vh    Q3  1 4.300000e-01    2.584000e+00
 SC3vh   SQ3  1 4.100000e-01    3.250000e+00
 SC3vh   TQ3  1 3.780000e-01    4.155000e+00
 SC2vh    Q3  1 4.430000e-01    1.694000e+00
 SC2vh   SQ3  1 4.210000e-01    2.340000e+00
 SC2vh   TQ3  1 4.230000e-01    2.999000e+00
 SC1vh    Q3  1 4.430000e-01    1.630000e+00
 SC1vh   SQ3  1 4.210000e-01    2.016000e+00
 SC1vh   TQ3  1 4.230000e-01    2.400000e+00
 SX4vh    Q3  1 4.300000e-01    3.309000e+00
 SX4vh   SQ3  1 4.100000e-01    4.329000e+00
 SX4vh   TQ3  1 3.650000e-01    6.047000e+00
 SX3vh    Q3  1 4.300000e-01    3.143000e+00
 SX3vh   SQ3  1 4.100000e-01    4.098000e+00
 SX3vh   TQ3  1 3.650000e-01    5.718000e+00
 SX2vh    Q3  1 4.300000e-01    2.867000e+00
 SX2vh   SQ3  1 4.100000e-01    3.751000e+00
 SX2vh   TQ3  1 3.660000e-01    5.167000e+00
 SX1vh    Q3  1 4.300000e-01    2.584000e+00
 SX1vh   SQ3  1 4.100000e-01    3.250000e+00
 SX1vh   TQ3  1 3.780000e-01    4.155000e+00
 SC6eh    Q3  1 4.300000e-01    3.293000e+00
 SC6eh   SQ3  1 4.100000e-01    4.248000e+00
 SC6eh   TQ3  1 3.650000e-01    5.878000e+00
 SC5eh    Q3  1 4.300000e-01    3.121000e+00
 SC5eh   SQ3  1 4.100000e-01    3.986000e+00
 SC5eh   TQ3  1 3.650000e-01    5.482000e+00
 SC4eh    Q3  1 4.300000e-01    2.848000e+00
 SC4eh   SQ3  1 4.100000e-01    3.658000e+00
 SC4eh   TQ3  1 3.660000e-01    4.973000e+00
 SC3eh    Q3  1 4.300000e-01    2.584000e+00
 SC3eh   SQ3  1 4.100000e-01    3.250000e+00
 SC3eh   TQ3  1 3.780000e-01    4.155000e+00
 SC2eh    Q3  1 4.430000e-01    1.694000e+00
 SC2eh   SQ3  1 4.210000e-01    2.340000e+00
 SC2eh   TQ3  1 4.230000e-01    2.999000e+00
 SC1eh    Q3  1 4.430000e-01    1.630000e+00
 SC1eh   SQ3  1 4.210000e-01    2.016000e+00
 SC1eh   TQ3  1 4.230000e-01    2.400000e+00
 SX4eh    Q3  1 4.300000e-01    3.309000e+00
 SX4eh   SQ3  1 4.100000e-01    4.329000e+00
 SX4eh   TQ3  1 3.650000e-01    6.047000e+00
 SX3eh    Q3  1 4.300000e-01    3.143000e+00
 SX3eh   SQ3  1 4.100000e-01    4.098000e+00
 SX3eh   TQ3  1 3.650000e-01    5.718000e+00
 SX2eh    Q3  1 4.300000e-01    2.867000e+00
 SX2eh   SQ3  1 4.100000e-01    3.751000e+00
 SX2eh   TQ3  1 3.660000e-01    5.167000e+00
 SX1eh    Q3  1 4.300000e-01    2.584000e+00
 SX1eh   SQ3  1 4.100000e-01    3.250000e+00
 SX1eh   TQ3  1 3.780000e-01    4.155000e+00
  SP6r    Q3  1 4.300000e-01    4.659000e+00
  SP6r   SQ3  1 4.100000e-01    6.305000e+00
  SP6r   TQ3  1 3.650000e-01    8.565000e+00
  SP5r    Q3  1 4.300000e-01    4.651000e+00
  SP5r   SQ3  1 4.100000e-01    6.265000e+00
  SP5r   TQ3  1 3.650000e-01    8.480000e+00
  SP4r    Q3  1 4.300000e-01    4.641000e+00
  SP4r   SQ3  1 4.100000e-01    6.214000e+00
  SP4r   TQ3  1 3.650000e-01    8.374000e+00
  SP3r    Q3  1 4.300000e-01    4.634000e+00
  SP3r   SQ3  1 4.100000e-01    6.180000e+00
  SP3r   TQ3  1 3.650000e-01    8.303000e+00
  SP2r    Q3  1 4.300000e-01    4.429000e+00
  SP2r   SQ3  1 4.100000e-01    5.885000e+00
  SP2r   TQ3  1 3.650000e-01    7.981000e+00
  SP1r    Q3  1 4.300000e-01    4.226000e+00
  SP1r   SQ3  1 4.100000e-01    5.626000e+00
  SP1r   TQ3  1 3.650000e-01    7.670000e+00
  SN6r    Q3  1 4.300000e-01    4.221000e+00
  SN6r   SQ3  1 4.100000e-01    5.603000e+00
  SN6r   TQ3  1 3.650000e-01    7.622000e+00
  SN5r    Q3  1 4.300000e-01    4.216000e+00
  SN5r   SQ3  1 4.100000e-01    5.575000e+00
  SN5r   TQ3  1 3.650000e-01    7.565000e+00
  SN4r    Q3  1 4.300000e-01    4.209000e+00
  SN4r   SQ3  1 4.100000e-01    5.541000e+00
  SN4r   TQ3  1 3.650000e-01    7.493000e+00
  SN3r    Q3  1 4.300000e-01    4.020000e+00
  SN3r   SQ3  1 4.100000e-01    5.257000e+00
  SN3r   TQ3  1 3.650000e-01    7.142000e+00
  SN2r    Q3  1 4.300000e-01    4.009000e+00
  SN2r   SQ3  1 4.100000e-01    5.198000e+00
  SN2r   TQ3  1 3.650000e-01    7.017000e+00
  SN1r    Q3  1 4.300000e-01    3.991000e+00
  SN1r   SQ3  1 4.100000e-01    5.110000e+00
  SN1r   TQ3  1 3.650000e-01    6.835000e+00
  SC6r    Q3  1 4.300000e-01    3.143000e+00
  SC6r   SQ3  1 4.100000e-01    4.098000e+00
  SC6r   TQ3  1 3.650000e-01    5.718000e+00
  SC5r    Q3  1 4.300000e-01    2.881000e+00
  SC5r   SQ3  1 4.100000e-01    3.826000e+00
  SC5r   TQ3  1 3.660000e-01    5.322000e+00
  SC4r    Q3  1 4.300000e-01    2.638000e+00
  SC4r   SQ3  1 4.100000e-01    3.528000e+00
  SC4r   TQ3  1 3.780000e-01    4.716000e+00
  SC3r    Q3  1 4.300000e-01    2.424000e+00
  SC3r   SQ3  1 4.100000e-01    3.090000e+00
  SC3r   TQ3  1 3.940000e-01    3.885000e+00
  SC2r    Q3  1 4.730000e-01    1.480000e+00
  SC2r   SQ3  1 4.530000e-01    2.163000e+00
  SC2r   TQ3  1 4.840000e-01    2.654000e+00
  SC1r    Q3  1 4.730000e-01    1.421000e+00
  SC1r   SQ3  1 4.530000e-01    1.862000e+00
  SC1r   TQ3  1 4.840000e-01    2.131000e+00
  SX4r    Q3  1 4.300000e-01    3.159000e+00
  SX4r   SQ3  1 4.100000e-01    4.179000e+00
  SX4r   TQ3  1 3.650000e-01    5.887000e+00
  SX3r    Q3  1 4.300000e-01    2.903000e+00
  SX3r   SQ3  1 4.100000e-01    3.938000e+00
  SX3r   TQ3  1 3.660000e-01    5.557000e+00
  SX2r    Q3  1 4.300000e-01    2.657000e+00
  SX2r   SQ3  1 4.100000e-01    3.621000e+00
  SX2r   TQ3  1 3.780000e-01    4.904000e+00
  SX1r    Q3  1 4.300000e-01    2.424000e+00
  SX1r   SQ3  1 4.100000e-01    3.090000e+00
  SX1r   TQ3  1 3.940000e-01    3.885000e+00
 SP6dr    Q3  1 4.300000e-01    4.659000e+00
 SP6dr   SQ3  1 4.100000e-01    6.305000e+00
 SP6dr   TQ3  1 3.650000e-01    8.565000e+00
 SP5dr    Q3  1 4.300000e-01    4.651000e+00
 SP5dr   SQ3  1 4.100000e-01    6.265000e+00
 SP5dr   TQ3  1 3.650000e-01    8.480000e+00
 SP4dr    Q3  1 4.300000e-01    4.641000e+00
 SP4dr   SQ3  1 4.100000e-01    6.214000e+00
 SP4dr   TQ3  1 3.650000e-01    8.374000e+00
 SP3dr    Q3  1 4.300000e-01    4.634000e+00
 SP3dr   SQ3  1 4.100000e-01    6.180000e+00
 SP3dr   TQ3  1 3.650000e-01    8.303000e+00
 SP2dr    Q3  1 4.300000e-01    4.429000e+00
 SP2dr   SQ3  1 4.100000e-01    5.885000e+00
 SP2dr   TQ3  1 3.650000e-01    7.981000e+00
 SP1dr    Q3  1 4.300000e-01    4.226000e+00
 SP1dr   SQ3  1 4.100000e-01    5.626000e+00
 SP1dr   TQ3  1 3.650000e-01    7.670000e+00
 SN6dr    Q3  1 4.300000e-01    4.221000e+00
 SN6dr   SQ3  1 4.100000e-01    5.603000e+00
 SN6dr   TQ3  1 3.650000e-01    7.622000e+00
 SN5dr    Q3  1 4.300000e-01    4.216000e+00
 SN5dr   SQ3  1 4.100000e-01    5.575000e+00
 SN5dr   TQ3  1 3.650000e-01    7.565000e+00
 SN4dr    Q3  1 4.300000e-01    4.209000e+00
 SN4dr   SQ3  1 4.100000e-01    5.541000e+00
 SN4dr   TQ3  1 3.650000e-01    7.493000e+00
 SN3dr    Q3  1 4.300000e-01    4.020000e+00
 SN3dr   SQ3  1 4.100000e-01    5.257000e+00
 SN3dr   TQ3  1 3.650000e-01    7.142000e+00
 SN2dr    Q3  1 4.300000e-01    4.009000e+00
 SN2dr   SQ3  1 4.100000e-01    5.198000e+00
 SN2dr   TQ3  1 3.650000e-01    7.017000e+00
 SN1dr    Q3  1 4.300000e-01    3.991000e+00
 SN1dr   SQ3  1 4.100000e-01    5.110000e+00
 SN1dr   TQ3  1 3.650000e-01    6.835000e+00
 SP6ar    Q3  1 4.300000e-01    4.659000e+00
 SP6ar   SQ3  1 4.100000e-01    6.305000e+00
 SP6ar   TQ3  1 3.650000e-01    8.565000e+00
 SP5ar    Q3  1 4.300000e-01    4.651000e+00
 SP5ar   SQ3  1 4.100000e-01    6.265000e+00
 SP5ar   TQ3  1 3.650000e-01    8.480000e+00
 SP4ar    Q3  1 4.300000e-01    4.641000e+00
 SP4ar   SQ3  1 4.100000e-01    6.214000e+00
 SP4ar   TQ3  1 3.650000e-01    8.374000e+00
 SP3ar    Q3  1 4.300000e-01    4.634000e+00
 SP3ar   SQ3  1 4.100000e-01    6.180000e+00
 SP3ar   TQ3  1 3.650000e-01    8.303000e+00
 SP2ar    Q3  1 4.300000e-01    4.429000e+00
 SP2ar   SQ3  1 4.100000e-01    5.885000e+00
 SP2ar   TQ3  1 3.650000e-01    7.981000e+00
 SP1ar    Q3  1 4.300000e-01    4.226000e+00
 SP1ar   SQ3  1 4.100000e-01    5.626000e+00
 SP1ar   TQ3  1 3.650000e-01    7.670000e+00
 SN6ar    Q3  1 4.300000e-01    4.221000e+00
 SN6ar   SQ3  1 4.100000e-01    5.603000e+00
 SN6ar   TQ3  1 3.650000e-01    7.622000e+00
 SN5ar    Q3  1 4.300000e-01    4.216000e+00
 SN5ar   SQ3  1 4.100000e-01    5.575000e+00
 SN5ar   TQ3  1 3.650000e-01    7.565000e+00
 SN4ar    Q3  1 4.300000e-01    4.209000e+00
 SN4ar   SQ3  1 4.100000e-01    5.541000e+00
 SN4ar   TQ3  1 3.650000e-01    7.493000e+00
 SN3ar    Q3  1 4.300000e-01    4.020000e+00
 SN3ar   SQ3  1 4.100000e-01    5.257000e+00
 SN3ar   TQ3  1 3.650000e-01    7.142000e+00
 SN2ar    Q3  1 4.300000e-01    4.009000e+00
 SN2ar   SQ3  1 4.100000e-01    5.198000e+00
 SN2ar   TQ3  1 3.650000e-01    7.017000e+00
 SN1ar    Q3  1 4.300000e-01    3.991000e+00
 SN1ar   SQ3  1 4.100000e-01    5.110000e+00
 SN1ar   TQ3  1 3.650000e-01    6.835000e+00
 SC6vr    Q3  1 4.300000e-01    3.293000e+00
 SC6vr   SQ3  1 4.100000e-01    4.248000e+00
 SC6vr   TQ3  1 3.650000e-01    5.878000e+00
 SC5vr    Q3  1 4.300000e-01    3.121000e+00
 SC5vr   SQ3  1 4.100000e-01    3.986000e+00
 SC5vr   TQ3  1 3.650000e-01    5.482000e+00
 SC4vr    Q3  1 4.300000e-01    2.848000e+00
 SC4vr   SQ3  1 4.100000e-01    3.658000e+00
 SC4vr   TQ3  1 3.660000e-01    4.973000e+00
 SC3vr    Q3  1 4.300000e-01    2.584000e+00
 SC3vr   SQ3  1 4.100000e-01    3.250000e+00
 SC3vr   TQ3  1 3.780000e-01    4.155000e+00
 SC2vr    Q3  1 4.430000e-01    1.694000e+00
 SC2vr   SQ3  1 4.210000e-01    2.340000e+00
 SC2vr   TQ3  1 4.230000e-01    2.999000e+00
 SC1vr    Q3  1 4.430000e-01    1.630000e+00
 SC1vr   SQ3  1 4.210000e-01    2.016000e+00
 SC1vr   TQ3  1 4.230000e-01    2.400000e+00
 SX4vr    Q3  1 4.300000e-01    3.309000e+00
 SX4vr   SQ3  1 4.100000e-01    4.329000e+00
 SX4vr   TQ3  1 3.650000e-01    6.047000e+00
 SX3vr    Q3  1 4.300000e-01    3.143000e+00
 SX3vr   SQ3  1 4.100000e-01    4.098000e+00
 SX3vr   TQ3  1 3.650000e-01    5.718000e+00
 SX2vr    Q3  1 4.300000e-01    2.867000e+00
 SX2vr   SQ3  1 4.100000e-01    3.751000e+00
 SX2vr   TQ3  1 3.660000e-01    5.167000e+00
 SX1vr    Q3  1 4.300000e-01    2.584000e+00
 SX1vr   SQ3  1 4.100000e-01    3.250000e+00
 SX1vr   TQ3  1 3.780000e-01    4.155000e+00
 SC6er    Q3  1 4.300000e-01    3.293000e+00
 SC6er   SQ3  1 4.100000e-01    4.248000e+00
 SC6er   TQ3  1 3.650000e-01    5.878000e+00
 SC5er    Q3  1 4.300000e-01    3.121000e+00
 SC5er   SQ3  1 4.100000e-01    3.986000e+00
 SC5er   TQ3  1 3.650000e-01    5.482000e+00
 SC4er    Q3  1 4.300000e-01    2.848000e+00
 SC4er   SQ3  1 4.100000e-01    3.658000e+00
 SC4er   TQ3  1 3.660000e-01    4.973000e+00
 SC3er    Q3  1 4.300000e-01    2.584000e+00
 SC3er   SQ3  1 4.100000e-01    3.250000e+00
 SC3er   TQ3  1 3.780000e-01    4.155000e+00
 SC2er    Q3  1 4.430000e-01    1.694000e+00
 SC2er   SQ3  1 4.210000e-01    2.340000e+00
 SC2er   TQ3  1 4.230000e-01    2.999000e+00
 SC1er    Q3  1 4.430000e-01    1.630000e+00
 SC1er   SQ3  1 4.210000e-01    2.016000e+00
 SC1er   TQ3  1 4.230000e-01    2.400000e+00
 SX4er    Q3  1 4.300000e-01    3.309000e+00
 SX4er   SQ3  1 4.100000e-01    4.329000e+00
 SX4er   TQ3  1 3.650000e-01    6.047000e+00
 SX3er    Q3  1 4.300000e-01    3.143000e+00
 SX3er   SQ3  1 4.100000e-01    4.098000e+00
 SX3er   TQ3  1 3.650000e-01    5.718000e+00
 SX2er    Q3  1 4.300000e-01    2.867000e+00
 SX2er   SQ3  1 4.100000e-01    3.751000e+00
 SX2er   TQ3  1 3.660000e-01    5.167000e+00
 SX1er    Q3  1 4.300000e-01    2.584000e+00
 SX1er   SQ3  1 4.100000e-01    3.250000e+00
 SX1er   TQ3  1 3.780000e-01    4.155000e+00
   TP6    Q3  1 3.950000e-01    4.076000e+00
   TP6   SQ3  1 3.650000e-01    5.596000e+00
   TP6   TQ3  1 3.400000e-01    7.887000e+00
   TP5    Q3  1 3.950000e-01    4.070000e+00
   TP5   SQ3  1 3.650000e-01    5.566000e+00
   TP5   TQ3  1 3.400000e-01    7.822000e+00
   TP4    Q3  1 3.950000e-01    4.063000e+00
   TP4   SQ3  1 3.650000e-01    5.528000e+00
   TP4   TQ3  1 3.400000e-01    7.738000e+00
   TP3    Q3  1 3.950000e-01    4.059000e+00
   TP3   SQ3  1 3.650000e-01    5.502000e+00
   TP3   TQ3  1 3.400000e-01    7.681000e+00
   TP2    Q3  1 3.950000e-01    3.815000e+00
   TP2   SQ3  1 3.650000e-01    5.213000e+00
   TP2   TQ3  1 3.400000e-01    7.389000e+00
   TP1    Q3  1 3.950000e-01    3.572000e+00
   TP1   SQ3  1 3.650000e-01    4.928000e+00
   TP1   TQ3  1 3.400000e-01    7.115000e+00
   TN6    Q3  1 3.950000e-01    3.569000e+00
   TN6   SQ3  1 3.650000e-01    4.910000e+00
   TN6   TQ3  1 3.400000e-01    7.075000e+00
   TN5    Q3  1 3.950000e-01    3.565000e+00
   TN5   SQ3  1 3.650000e-01    4.888000e+00
   TN5   TQ3  1 3.400000e-01    7.027000e+00
   TN4    Q3  1 3.950000e-01    3.560000e+00
   TN4   SQ3  1 3.650000e-01    4.861000e+00
   TN4   TQ3  1 3.400000e-01    6.968000e+00
   TN3    Q3  1 3.950000e-01    3.304000e+00
   TN3   SQ3  1 3.650000e-01    4.566000e+00
   TN3   TQ3  1 3.400000e-01    6.671000e+00
   TN2    Q3  1 3.950000e-01    3.295000e+00
   TN2   SQ3  1 3.650000e-01    4.518000e+00
   TN2   TQ3  1 3.400000e-01    6.565000e+00
   TN1    Q3  1 3.950000e-01    3.282000e+00
   TN1   SQ3  1 3.650000e-01    4.448000e+00
   TN1   TQ3  1 3.400000e-01    6.411000e+00
   TC6    Q3  1 3.950000e-01    2.431000e+00
   TC6   SQ3  1 3.650000e-01    3.513000e+00
   TC6   TQ3  1 3.400000e-01    5.108000e+00
   TC5    Q3  1 3.950000e-01    2.155000e+00
   TC5   SQ3  1 3.660000e-01    3.267000e+00
   TC5   TQ3  1 3.520000e-01    4.602000e+00
   TC4    Q3  1 3.950000e-01    1.950000e+00
   TC4   SQ3  1 3.780000e-01    2.933000e+00
   TC4   TQ3  1 3.660000e-01    4.073000e+00
   TC3    Q3  1 3.980000e-01    1.687000e+00
   TC3   SQ3  1 3.940000e-01    2.503000e+00
   TC3   TQ3  1 3.850000e-01    3.400000e+00
   TC2    Q3  1 4.650000e-01    8.780000e-01
   TC2   SQ3  1 4.840000e-01    1.742000e+00
   TC2   TQ3  1 5.050000e-01    2.353000e+00
   TC1    Q3  1 4.650000e-01    8.360000e-01
   TC1   SQ3  1 4.840000e-01    1.538000e+00
   TC1   TQ3  1 5.050000e-01    1.954000e+00
   TX4    Q3  1 3.950000e-01    2.443000e+00
   TX4   SQ3  1 3.650000e-01    3.578000e+00
   TX4   TQ3  1 3.400000e-01    5.252000e+00
   TX3    Q3  1 3.950000e-01    2.171000e+00
   TX3   SQ3  1 3.660000e-01    3.358000e+00
   TX3   TQ3  1 3.520000e-01    4.795000e+00
   TX2    Q3  1 3.950000e-01    1.964000e+00
   TX2   SQ3  1 3.780000e-01    3.005000e+00
   TX2   TQ3  1 3.660000e-01    4.227000e+00
   TX1    Q3  1 3.980000e-01    1.687000e+00
   TX1   SQ3  1 3.940000e-01    2.503000e+00
   TX1   TQ3  1 3.850000e-01    3.400000e+00
  TP6d    Q3  1 3.950000e-01    4.076000e+00
  TP6d   SQ3  1 3.650000e-01    5.596000e+00
  TP6d   TQ3  1 3.400000e-01    7.887000e+00
  TP5d    Q3  1 3.950000e-01    4.070000e+00
  TP5d   SQ3  1 3.650000e-01    5.566000e+00
  TP5d   TQ3  1 3.400000e-01    7.822000e+00
  TP4d    Q3  1 3.950000e-01    4.063000e+00
  TP4d   SQ3  1 3.650000e-01    5.528000e+00
  TP4d   TQ3  1 3.400000e-01    7.738000e+00
  TP3d    Q3  1 3.950000e-01    4.059000e+00
  TP3d   SQ3  1 3.650000e-01    5.502000e+00
  TP3d   TQ3  1 3.400000e-01    7.681000e+00
  TP2d    Q3  1 3.950000e-01    3.815000e+00
  TP2d   SQ3  1 3.650000e-01    5.213000e+00
  TP2d   TQ3  1 3.400000e-01    7.389000e+00
  TP1d    Q3  1 3.950000e-01    3.572000e+00
  TP1d   SQ3  1 3.650000e-01    4.928000e+00
  TP1d   TQ3  1 3.400000e-01    7.115000e+00
  TN6d    Q3  1 3.950000e-01    3.569000e+00
  TN6d   SQ3  1 3.650000e-01    4.910000e+00
  TN6d   TQ3  1 3.400000e-01    7.075000e+00
  TN5d    Q3  1 3.950000e-01    3.565000e+00
  TN5d   SQ3  1 3.650000e-01    4.888000e+00
  TN5d   TQ3  1 3.400000e-01    7.027000e+00
  TN4d    Q3  1 3.950000e-01    3.560000e+00
  TN4d   SQ3  1 3.650000e-01    4.861000e+00
  TN4d   TQ3  1 3.400000e-01    6.968000e+00
  TN3d    Q3  1 3.950000e-01    3.304000e+00
  TN3d   SQ3  1 3.650000e-01    4.566000e+00
  TN3d   TQ3  1 3.400000e-01    6.671000e+00
  TN2d    Q3  1 3.950000e-01    3.295000e+00
  TN2d   SQ3  1 3.650000e-01    4.518000e+00
  TN2d   TQ3  1 3.400000e-01    6.565000e+00
  TN1d    Q3  1 3.950000e-01    3.282000e+00
  TN1d   SQ3  1 3.650000e-01    4.448000e+00
  TN1d   TQ3  1 3.400000e-01    6.411000e+00
  TP6a    Q3  1 3.950000e-01    4.076000e+00
  TP6a   SQ3  1 3.650000e-01    5.596000e+00
  TP6a   TQ3  1 3.400000e-01    7.887000e+00
  TP5a    Q3  1 3.950000e-01    4.070000e+00
  TP5a   SQ3  1 3.650000e-01    5.566000e+00
  TP5a   TQ3  1 3.400000e-01    7.822000e+00
  TP4a    Q3  1 3.950000e-01    4.063000e+00
  TP4a   SQ3  1 3.650000e-01    5.528000e+00
  TP4a   TQ3  1 3.400000e-01    7.738000e+00
  TP3a    Q3  1 3.950000e-01    4.059000e+00
  TP3a   SQ3  1 3.650000e-01    5.502000e+00
  TP3a   TQ3  1 3.400000e-01    7.681000e+00
  TP2a    Q3  1 3.950000e-01    3.815000e+00
  TP2a   SQ3  1 3.650000e-01    5.213000e+00
  TP2a   TQ3  1 3.400000e-01    7.389000e+00
  TP1a    Q3  1 3.950000e-01    3.572000e+00
  TP1a   SQ3  1 3.650000e-01    4.928000e+00
  TP1a   TQ3  1 3.400000e-01    7.115000e+00
  TN6a    Q3  1 3.950000e-01    3.569000e+00
  TN6a   SQ3  1 3.650000e-01    4.910000e+00
  TN6a   TQ3  1 3.400000e-01    7.075000e+00
  TN5a    Q3  1 3.950000e-01    3.565000e+00
  TN5a   SQ3  1 3.650000e-01    4.888000e+00
  TN5a   TQ3  1 3.400000e-01    7.027000e+00
  TN4a    Q3  1 3.950000e-01    3.560000e+00
  TN4a   SQ3  1 3.650000e-01    4.861000e+00
  TN4a   TQ3  1 3.400000e-01    6.968000e+00
  TN3a    Q3  1 3.950000e-01    3.304000e+00
  TN3a   SQ3  1 3.650000e-01    4.566000e+00
  TN3a   TQ3  1 3.400000e-01    6.671000e+00
  TN2a    Q3  1 3.950000e-01    3.295000e+00
  TN2a   SQ3  1 3.650000e-01    4.518000e+00
  TN2a   TQ3  1 3.400000e-01    6.565000e+00
  TN1a    Q3  1 3.950000e-01    3.282000e+00
  TN1a   SQ3  1 3.650000e-01    4.448000e+00
  TN1a   TQ3  1 3.400000e-01    6.411000e+00
  TC6v    Q3  1 3.950000e-01    2.631000e+00
  TC6v   SQ3  1 3.650000e-01    3.673000e+00
  TC6v   TQ3  1 3.400000e-01    5.388000e+00
  TC5v    Q3  1 3.950000e-01    2.415000e+00
  TC5v   SQ3  1 3.650000e-01    3.421000e+00
  TC5v   TQ3  1 3.400000e-01    4.907000e+00
  TC4v    Q3  1 3.950000e-01    2.130000e+00
  TC4v   SQ3  1 3.660000e-01    3.131000e+00
  TC4v   TQ3  1 3.520000e-01    4.313000e+00
  TC3v    Q3  1 3.950000e-01    1.909000e+00
  TC3v   SQ3  1 3.780000e-01    2.715000e+00
  TC3v   TQ3  1 3.660000e-01    3.612000e+00
  TC2v    Q3  1 4.040000e-01    1.031000e+00
  TC2v   SQ3  1 4.230000e-01    1.956000e+00
  TC2v   TQ3  1 4.380000e-01    2.660000e+00
  TC1v    Q3  1 4.040000e-01    9.830000e-01
  TC1v   SQ3  1 4.230000e-01    1.723000e+00
  TC1v   TQ3  1 4.380000e-01    2.199000e+00
  TX4v    Q3  1 3.950000e-01    2.643000e+00
  TX4v   SQ3  1 3.650000e-01    3.738000e+00
  TX4v   TQ3  1 3.400000e-01    5.532000e+00
  TX3v    Q3  1 3.950000e-01    2.431000e+00
  TX3v   SQ3  1 3.650000e-01    3.513000e+00
  TX3v   TQ3  1 3.400000e-01    5.108000e+00
  TX2v    Q3  1 3.950000e-01    2.144000e+00
  TX2v   SQ3  1 3.660000e-01    3.206000e+00
  TX2v   TQ3  1 3.520000e-01    4.473000e+00
  TX1v    Q3  1 3.950000e-01    1.909000e+00
  TX1v   SQ3  1 3.780000e-01    2.715000e+00
  TX1v   TQ3  1 3.660000e-01    3.612000e+00
  TC6e    Q3  1 3.950000e-01    2.631000e+00
  TC6e   SQ3  1 3.650000e-01    3.673000e+00
  TC6e   TQ3  1 3.400000e-01    5.388000e+00
  TC5e    Q3  1 3.950000e-01    2.415000e+00
  TC5e   SQ3  1 3.650000e-01    3.421000e+00
  TC5e   TQ3  1 3.400000e-01    4.907000e+00
  TC4e    Q3  1 3.950000e-01    2.130000e+00
  TC4e   SQ3  1 3.660000e-01    3.131000e+00
  TC4e   TQ3  1 3.520000e-01    4.313000e+00
  TC3e    Q3  1 3.950000e-01    1.909000e+00
  TC3e   SQ3  1 3.780000e-01    2.715000e+00
  TC3e   TQ3  1 3.660000e-01    3.612000e+00
  TC2e    Q3  1 4.040000e-01    1.031000e+00
  TC2e   SQ3  1 4.230000e-01    1.956000e+00
  TC2e   TQ3  1 4.380000e-01    2.660000e+00
  TC1e    Q3  1 4.040000e-01    9.830000e-01
  TC1e   SQ3  1 4.230000e-01    1.723000e+00
  TC1e   TQ3  1 4.380000e-01    2.199000e+00
  TX4e    Q3  1 3.950000e-01    2.643000e+00
  TX4e   SQ3  1 3.650000e-01    3.738000e+00
  TX4e   TQ3  1 3.400000e-01    5.532000e+00
  TX3e    Q3  1 3.950000e-01    2.431000e+00
  TX3e   SQ3  1 3.650000e-01    3.513000e+00
  TX3e   TQ3  1 3.400000e-01    5.108000e+00
  TX2e    Q3  1 3.950000e-01    2.144000e+00
  TX2e   SQ3  1 3.660000e-01    3.206000e+00
  TX2e   TQ3  1 3.520000e-01    4.473000e+00
  TX1e    Q3  1 3.950000e-01    1.909000e+00
  TX1e   SQ3  1 3.780000e-01    2.715000e+00
  TX1e   TQ3  1 3.660000e-01    3.612000e+00
  TP6q    Q3  1 3.950000e-01    4.946000e+00
  TP6q   SQ3  1 3.650000e-01    6.446000e+00
  TP6q   TQ3  1 3.400000e-01    8.647000e+00
  TP5q    Q3  1 3.950000e-01    4.940000e+00
  TP5q   SQ3  1 3.650000e-01    6.416000e+00
  TP5q   TQ3  1 3.400000e-01    8.582000e+00
  TP4q    Q3  1 3.950000e-01    4.933000e+00
  TP4q   SQ3  1 3.650000e-01    6.378000e+00
  TP4q   TQ3  1 3.400000e-01    8.498000e+00
  TP3q    Q3  1 3.950000e-01    4.929000e+00
  TP3q   SQ3  1 3.650000e-01    6.352000e+00
  TP3q   TQ3  1 3.400000e-01    8.441000e+00
  TP2q    Q3  1 3.950000e-01    4.615000e+00
  TP2q   SQ3  1 3.650000e-01    6.043000e+00
  TP2q   TQ3  1 3.400000e-01    8.119000e+00
  TP1q    Q3  1 3.950000e-01    4.292000e+00
  TP1q   SQ3  1 3.650000e-01    5.738000e+00
  TP1q   TQ3  1 3.400000e-01    7.835000e+00
  TN6q    Q3  1 3.950000e-01    4.289000e+00
  TN6q   SQ3  1 3.650000e-01    5.720000e+00
  TN6q   TQ3  1 3.400000e-01    7.795000e+00
  TN5q    Q3  1 3.950000e-01    4.285000e+00
  TN5q   SQ3  1 3.650000e-01    5.698000e+00
  TN5q   TQ3  1 3.400000e-01    7.747000e+00
  TN4q    Q3  1 3.950000e-01    4.280000e+00
  TN4q   SQ3  1 3.650000e-01    5.671000e+00
  TN4q   TQ3  1 3.400000e-01    7.688000e+00
  TN3q    Q3  1 3.950000e-01    4.034000e+00
  TN3q   SQ3  1 3.650000e-01    5.366000e+00
  TN3q   TQ3  1 3.400000e-01    7.381000e+00
  TN2q    Q3  1 3.950000e-01    4.025000e+00
  TN2q   SQ3  1 3.650000e-01    5.318000e+00
  TN2q   TQ3  1 3.400000e-01    7.275000e+00
  TN1q    Q3  1 3.950000e-01    4.012000e+00
  TN1q   SQ3  1 3.650000e-01    5.248000e+00
  TN1q   TQ3  1 3.400000e-01    7.121000e+00
  TC6q    Q3  1 3.950000e-01    3.021000e+00
  TC6q   SQ3  1 3.650000e-01    4.103000e+00
  TC6q   TQ3  1 3.400000e-01    5.898000e+00
  TC5q    Q3  1 3.950000e-01    2.805000e+00
  TC5q   SQ3  1 3.650000e-01    3.781000e+00
  TC5q   TQ3  1 3.400000e-01    5.447000e+00
  TC4q    Q3  1 3.950000e-01    2.590000e+00
  TC4q   SQ3  1 3.650000e-01    3.445000e+00
  TC4q   TQ3  1 3.400000e-01    4.888000e+00
  TC3q    Q3  1 3.950000e-01    2.349000e+00
  TC3q   SQ3  1 3.650000e-01    3.060000e+00
  TC3q   TQ3  1 3.400000e-01    4.111000e+00
  TC2q    Q3  1 3.990000e-01    1.384000e+00
  TC2q   SQ3  1 4.040000e-01    2.151000e+00
  TC2q   TQ3  1 4.110000e-01    2.857000e+00
  TC1q    Q3  1 3.990000e-01    1.335000e+00
  TC1q   SQ3  1 4.040000e-01    1.907000e+00
  TC1q   TQ3  1 4.110000e-01    2.366000e+00
  TX4q    Q3  1 3.950000e-01    3.033000e+00
  TX4q   SQ3  1 3.650000e-01    4.168000e+00
  TX4q   TQ3  1 3.400000e-01    6.042000e+00
  TX3q    Q3  1 3.950000e-01    2.821000e+00
  TX3q   SQ3  1 3.650000e-01    3.873000e+00
  TX3q   TQ3  1 3.400000e-01    5.648000e+00
  TX2q    Q3  1 3.950000e-01    2.604000e+00
  TX2q   SQ3  1 3.650000e-01    3.521000e+00
  TX2q   TQ3  1 3.400000e-01    5.054000e+00
  TX1q    Q3  1 3.950000e-01    2.349000e+00
  TX1q   SQ3  1 3.650000e-01    3.060000e+00
  TX1q   TQ3  1 3.400000e-01    4.111000e+00
 TP6dq    Q3  1 3.950000e-01    4.946000e+00
 TP6dq   SQ3  1 3.650000e-01    6.446000e+00
 TP6dq   TQ3  1 3.400000e-01    8.647000e+00
 TP5dq    Q3  1 3.950000e-01    4.940000e+00
 TP5dq   SQ3  1 3.650000e-01    6.416000e+00
 TP5dq   TQ3  1 3.400000e-01    8.582000e+00
 TP4dq    Q3  1 3.950000e-01    4.933000e+00
 TP4dq   SQ3  1 3.650000e-01    6.378000e+00
 TP4dq   TQ3  1 3.400000e-01    8.498000e+00
 TP3dq    Q3  1 3.950000e-01    4.929000e+00
 TP3dq   SQ3  1 3.650000e-01    6.352000e+00
 TP3dq   TQ3  1 3.400000e-01    8.441000e+00
 TP2dq    Q3  1 3.950000e-01    4.615000e+00
 TP2dq   SQ3  1 3.650000e-01    6.043000e+00
 TP2dq   TQ3  1 3.400000e-01    8.119000e+00
 TP1dq    Q3  1 3.950000e-01    4.292000e+00
 TP1dq   SQ3  1 3.650000e-01    5.738000e+00
 TP1dq   TQ3  1 3.400000e-01    7.835000e+00
 TN6dq    Q3  1 3.950000e-01    4.289000e+00
 TN6dq   SQ3  1 3.650000e-01    5.720000e+00
 TN6dq   TQ3  1 3.400000e-01    7.795000e+00
 TN5dq    Q3  1 3.950000e-01    4.285000e+00
 TN5dq   SQ3  1 3.650000e-01    5.698000e+00
 TN5dq   TQ3  1 3.400000e-01    7.747000e+00
 TN4dq    Q3  1 3.950000e-01    4.280000e+00
 TN4dq   SQ3  1 3.650000e-01    5.671000e+00
 TN4dq   TQ3  1 3.400000e-01    7.688000e+00
 TN3dq    Q3  1 3.950000e-01    4.034000e+00
 TN3dq   SQ3  1 3.650000e-01    5.366000e+00
 TN3dq   TQ3  1 3.400000e-01    7.381000e+00
 TN2dq    Q3  1 3.950000e-01    4.025000e+00
 TN2dq   SQ3  1 3.650000e-01    5.318000e+00
 TN2dq   TQ3  1 3.400000e-01    7.275000e+00
 TN1dq    Q3  1 3.950000e-01    4.012000e+00
 TN1dq   SQ3  1 3.650000e-01    5.248000e+00
 TN1dq   TQ3  1 3.400000e-01    7.121000e+00
 TP6aq    Q3  1 3.950000e-01    4.946000e+00
 TP6aq   SQ3  1 3.650000e-01    6.446000e+00
 TP6aq   TQ3  1 3.400000e-01    8.647000e+00
 TP5aq    Q3  1 3.950000e-01    4.940000e+00
 TP5aq   SQ3  1 3.650000e-01    6.416000e+00
 TP5aq   TQ3  1 3.400000e-01    8.582000e+00
 TP4aq    Q3  1 3.950000e-01    4.933000e+00
 TP4aq   SQ3  1 3.650000e-01    6.378000e+00
 TP4aq   TQ3  1 3.400000e-01    8.498000e+00
 TP3aq    Q3  1 3.950000e-01    4.929000e+00
 TP3aq   SQ3  1 3.650000e-01    6.352000e+00
 TP3aq   TQ3  1 3.400000e-01    8.441000e+00
 TP2aq    Q3  1 3.950000e-01    4.615000e+00
 TP2aq   SQ3  1 3.650000e-01    6.043000e+00
 TP2aq   TQ3  1 3.400000e-01    8.119000e+00
 TP1aq    Q3  1 3.950000e-01    4.292000e+00
 TP1aq   SQ3  1 3.650000e-01    5.738000e+00
 TP1aq   TQ3  1 3.400000e-01    7.835000e+00
 TN6aq    Q3  1 3.950000e-01    4.289000e+00
 TN6aq   SQ3  1 3.650000e-01    5.720000e+00
 TN6aq   TQ3  1 3.400000e-01    7.795000e+00
 TN5aq    Q3  1 3.950000e-01    4.285000e+00
 TN5aq   SQ3  1 3.650000e-01    5.698000e+00
 TN5aq   TQ3  1 3.400000e-01    7.747000e+00
 TN4aq    Q3  1 3.950000e-01    4.280000e+00
 TN4aq   SQ3  1 3.650000e-01    5.671000e+00
 TN4aq   TQ3  1 3.400000e-01    7.688000e+00
 TN3aq    Q3  1 3.950000e-01    4.034000e+00
 TN3aq   SQ3  1 3.650000e-01    5.366000e+00
 TN3aq   TQ3  1 3.400000e-01    7.381000e+00
 TN2aq    Q3  1 3.950000e-01    4.025000e+00
 TN2aq   SQ3  1 3.650000e-01    5.318000e+00
 TN2aq   TQ3  1 3.400000e-01    7.275000e+00
 TN1aq    Q3  1 3.950000e-01    4.012000e+00
 TN1aq   SQ3  1 3.650000e-01    5.248000e+00
 TN1aq   TQ3  1 3.400000e-01    7.121000e+00
 TC6vq    Q3  1 3.950000e-01    3.261000e+00
 TC6vq   SQ3  1 3.650000e-01    4.333000e+00
 TC6vq   TQ3  1 3.400000e-01    6.158000e+00
 TC5vq    Q3  1 3.950000e-01    3.005000e+00
 TC5vq   SQ3  1 3.650000e-01    4.011000e+00
 TC5vq   TQ3  1 3.400000e-01    5.697000e+00
 TC4vq    Q3  1 3.950000e-01    2.780000e+00
 TC4vq   SQ3  1 3.650000e-01    3.645000e+00
 TC4vq   TQ3  1 3.400000e-01    5.148000e+00
 TC3vq    Q3  1 3.950000e-01    2.549000e+00
 TC3vq   SQ3  1 3.650000e-01    3.220000e+00
 TC3vq   TQ3  1 3.400000e-01    4.391000e+00
 TC2vq    Q3  1 3.980000e-01    1.654000e+00
 TC2vq   SQ3  1 3.940000e-01    2.336000e+00
 TC2vq   TQ3  1 3.850000e-01    3.050000e+00
 TC1vq    Q3  1 3.980000e-01    1.606000e+00
 TC1vq   SQ3  1 3.940000e-01    2.087000e+00
 TC1vq   TQ3  1 3.850000e-01    2.526000e+00
 TX4vq    Q3  1 3.950000e-01    3.273000e+00
 TX4vq   SQ3  1 3.650000e-01    4.398000e+00
 TX4vq   TQ3  1 3.400000e-01    6.302000e+00
 TX3vq    Q3  1 3.950000e-01    3.021000e+00
 TX3vq   SQ3  1 3.650000e-01    4.103000e+00
 TX3vq   TQ3  1 3.400000e-01    5.898000e+00
 TX2vq    Q3  1 3.950000e-01    2.794000e+00
 TX2vq   SQ3  1 3.650000e-01    3.721000e+00
 TX2vq   TQ3  1 3.400000e-01    5.314000e+00
 TX1vq    Q3  1 3.950000e-01    2.549000e+00
 TX1vq   SQ3  1 3.650000e-01    3.220000e+00
 TX1vq   TQ3  1 3.400000e-01    4.391000e+00
 TC6eq    Q3  1 3.950000e-01    3.261000e+00
 TC6eq   SQ3  1 3.650000e-01    4.333000e+00
 TC6eq   TQ3  1 3.400000e-01    6.158000e+00
 TC5eq    Q3  1 3.950000e-01    3.005000e+00
 TC5eq   SQ3  1 3.650000e-01    4.011000e+00
 TC5eq   TQ3  1 3.400000e-01    5.697000e+00
 TC4eq    Q3  1 3.950000e-01    2.780000e+00
 TC4eq   SQ3  1 3.650000e-01    3.645000e+00
 TC4eq   TQ3  1 3.400000e-01    5.148000e+00
 TC3eq    Q3  1 3.950000e-01    2.549000e+00
 TC3eq   SQ3  1 3.650000e-01    3.220000e+00
 TC3eq   TQ3  1 3.400000e-01    4.391000e+00
 TC2eq    Q3  1 3.980000e-01    1.654000e+00
 TC2eq   SQ3  1 3.940000e-01    2.336000e+00
 TC2eq   TQ3  1 3.850000e-01    3.050000e+00
 TC1eq    Q3  1 3.980000e-01    1.606000e+00
 TC1eq   SQ3  1 3.940000e-01    2.087000e+00
 TC1eq   TQ3  1 3.850000e-01    2.526000e+00
 TX4eq    Q3  1 3.950000e-01    3.273000e+00
 TX4eq   SQ3  1 3.650000e-01    4.398000e+00
 TX4eq   TQ3  1 3.400000e-01    6.302000e+00
 TX3eq    Q3  1 3.950000e-01    3.021000e+00
 TX3eq   SQ3  1 3.650000e-01    4.103000e+00
 TX3eq   TQ3  1 3.400000e-01    5.898000e+00
 TX2eq    Q3  1 3.950000e-01    2.794000e+00
 TX2eq   SQ3  1 3.650000e-01    3.721000e+00
 TX2eq   TQ3  1 3.400000e-01    5.314000e+00
 TX1eq    Q3  1 3.950000e-01    2.549000e+00
 TX1eq   SQ3  1 3.650000e-01    3.220000e+00
 TX1eq   TQ3  1 3.400000e-01    4.391000e+00
  TP6h    Q3  1 3.950000e-01    4.076000e+00
  TP6h   SQ3  1 3.650000e-01    5.596000e+00
  TP6h   TQ3  1 3.400000e-01    7.887000e+00
  TP5h    Q3  1 3.950000e-01    4.070000e+00
  TP5h   SQ3  1 3.650000e-01    5.566000e+00
  TP5h   TQ3  1 3.400000e-01    7.822000e+00
  TP4h    Q3  1 3.950000e-01    4.063000e+00
  TP4h   SQ3  1 3.650000e-01    5.528000e+00
  TP4h   TQ3  1 3.400000e-01    7.738000e+00
  TP3h    Q3  1 3.950000e-01    4.059000e+00
  TP3h   SQ3  1 3.650000e-01    5.502000e+00
  TP3h   TQ3  1 3.400000e-01    7.681000e+00
  TP2h    Q3  1 3.950000e-01    3.815000e+00
  TP2h   SQ3  1 3.650000e-01    5.213000e+00
  TP2h   TQ3  1 3.400000e-01    7.389000e+00
  TP1h    Q3  1 3.950000e-01    3.572000e+00
  TP1h   SQ3  1 3.650000e-01    4.928000e+00
  TP1h   TQ3  1 3.400000e-01    7.115000e+00
  TN6h    Q3  1 3.950000e-01    3.569000e+00
  TN6h   SQ3  1 3.650000e-01    4.910000e+00
  TN6h   TQ3  1 3.400000e-01    7.075000e+00
  TN5h    Q3  1 3.950000e-01    3.565000e+00
  TN5h   SQ3  1 3.650000e-01    4.888000e+00
  TN5h   TQ3  1 3.400000e-01    7.027000e+00
  TN4h    Q3  1 3.950000e-01    3.560000e+00
  TN4h   SQ3  1 3.650000e-01    4.861000e+00
  TN4h   TQ3  1 3.400000e-01    6.968000e+00
  TN3h    Q3  1 3.950000e-01    3.304000e+00
  TN3h   SQ3  1 3.650000e-01    4.566000e+00
  TN3h   TQ3  1 3.400000e-01    6.671000e+00
  TN2h    Q3  1 3.950000e-01    3.295000e+00
  TN2h   SQ3  1 3.650000e-01    4.518000e+00
  TN2h   TQ3  1 3.400000e-01    6.565000e+00
  TN1h    Q3  1 3.950000e-01    3.282000e+00
  TN1h   SQ3  1 3.650000e-01    4.448000e+00
  TN1h   TQ3  1 3.400000e-01    6.411000e+00
  TC6h    Q3  1 3.950000e-01    2.431000e+00
  TC6h   SQ3  1 3.650000e-01    3.513000e+00
  TC6h   TQ3  1 3.400000e-01    5.108000e+00
  TC5h    Q3  1 3.950000e-01    2.155000e+00
  TC5h   SQ3  1 3.660000e-01    3.267000e+00
  TC5h   TQ3  1 3.520000e-01    4.602000e+00
  TC4h    Q3  1 3.950000e-01    1.950000e+00
  TC4h   SQ3  1 3.780000e-01    2.933000e+00
  TC4h   TQ3  1 3.660000e-01    4.073000e+00
  TC3h    Q3  1 3.980000e-01    1.687000e+00
  TC3h   SQ3  1 3.940000e-01    2.503000e+00
  TC3h   TQ3  1 3.850000e-01    3.400000e+00
  TC2h    Q3  1 4.650000e-01    8.780000e-01
  TC2h   SQ3  1 4.840000e-01    1.742000e+00
  TC2h   TQ3  1 5.050000e-01    2.353000e+00
  TC1h    Q3  1 4.650000e-01    8.360000e-01
  TC1h   SQ3  1 4.840000e-01    1.538000e+00
  TC1h   TQ3  1 5.050000e-01    1.954000e+00
  TX4h    Q3  1 3.950000e-01    2.443000e+00
  TX4h   SQ3  1 3.650000e-01    3.578000e+00
  TX4h   TQ3  1 3.400000e-01    5.252000e+00
  TX3h    Q3  1 3.950000e-01    2.171000e+00
  TX3h   SQ3  1 3.660000e-01    3.358000e+00
  TX3h   TQ3  1 3.520000e-01    4.795000e+00
  TX2h    Q3  1 3.950000e-01    1.964000e+00
  TX2h   SQ3  1 3.780000e-01    3.005000e+00
  TX2h   TQ3  1 3.660000e-01    4.227000e+00
  TX1h    Q3  1 3.980000e-01    1.687000e+00
  TX1h   SQ3  1 3.940000e-01    2.503000e+00
  TX1h   TQ3  1 3.850000e-01    3.400000e+00
 TP6dh    Q3  1 3.950000e-01    4.076000e+00
 TP6dh   SQ3  1 3.650000e-01    5.596000e+00
 TP6dh   TQ3  1 3.400000e-01    7.887000e+00
 TP5dh    Q3  1 3.950000e-01    4.070000e+00
 TP5dh   SQ3  1 3.650000e-01    5.566000e+00
 TP5dh   TQ3  1 3.400000e-01    7.822000e+00
 TP4dh    Q3  1 3.950000e-01    4.063000e+00
 TP4dh   SQ3  1 3.650000e-01    5.528000e+00
 TP4dh   TQ3  1 3.400000e-01    7.738000e+00
 TP3dh    Q3  1 3.950000e-01    4.059000e+00
 TP3dh   SQ3  1 3.650000e-01    5.502000e+00
 TP3dh   TQ3  1 3.400000e-01    7.681000e+00
 TP2dh    Q3  1 3.950000e-01    3.815000e+00
 TP2dh   SQ3  1 3.650000e-01    5.213000e+00
 TP2dh   TQ3  1 3.400000e-01    7.389000e+00
 TP1dh    Q3  1 3.950000e-01    3.572000e+00
 TP1dh   SQ3  1 3.650000e-01    4.928000e+00
 TP1dh   TQ3  1 3.400000e-01    7.115000e+00
 TN6dh    Q3  1 3.950000e-01    3.569000e+00
 TN6dh   SQ3  1 3.650000e-01    4.910000e+00
 TN6dh   TQ3  1 3.400000e-01    7.075000e+00
 TN5dh    Q3  1 3.950000e-01    3.565000e+00
 TN5dh   SQ3  1 3.650000e-01    4.888000e+00
 TN5dh   TQ3  1 3.400000e-01    7.027000e+00
 TN4dh    Q3  1 3.950000e-01    3.560000e+00
 TN4dh   SQ3  1 3.650000e-01    4.861000e+00
 TN4dh   TQ3  1 3.400000e-01    6.968000e+00
 TN3dh    Q3  1 3.950000e-01    3.304000e+00
 TN3dh   SQ3  1 3.650000e-01    4.566000e+00
 TN3dh   TQ3  1 3.400000e-01    6.671000e+00
 TN2dh    Q3  1 3.950000e-01    3.295000e+00
 TN2dh   SQ3  1 3.650000e-01    4.518000e+00
 TN2dh   TQ3  1 3.400000e-01    6.565000e+00
 TN1dh    Q3  1 3.950000e-01    3.282000e+00
 TN1dh   SQ3  1 3.650000e-01    4.448000e+00
 TN1dh   TQ3  1 3.400000e-01    6.411000e+00
 TP6ah    Q3  1 3.950000e-01    4.076000e+00
 TP6ah   SQ3  1 3.650000e-01    5.596000e+00
 TP6ah   TQ3  1 3.400000e-01    7.887000e+00
 TP5ah    Q3  1 3.950000e-01    4.070000e+00
 TP5ah   SQ3  1 3.650000e-01    5.566000e+00
 TP5ah   TQ3  1 3.400000e-01    7.822000e+00
 TP4ah    Q3  1 3.950000e-01    4.063000e+00
 TP4ah   SQ3  1 3.650000e-01    5.528000e+00
 TP4ah   TQ3  1 3.400000e-01    7.738000e+00
 TP3ah    Q3  1 3.950000e-01    4.059000e+00
 TP3ah   SQ3  1 3.650000e-01    5.502000e+00
 TP3ah   TQ3  1 3.400000e-01    7.681000e+00
 TP2ah    Q3  1 3.950000e-01    3.815000e+00
 TP2ah   SQ3  1 3.650000e-01    5.213000e+00
 TP2ah   TQ3  1 3.400000e-01    7.389000e+00
 TP1ah    Q3  1 3.950000e-01    3.572000e+00
 TP1ah   SQ3  1 3.650000e-01    4.928000e+00
 TP1ah   TQ3  1 3.400000e-01    7.115000e+00
 TN6ah    Q3  1 3.950000e-01    3.569000e+00
 TN6ah   SQ3  1 3.650000e-01    4.910000e+00
 TN6ah   TQ3  1 3.400000e-01    7.075000e+00
 TN5ah    Q3  1 3.950000e-01    3.565000e+00
 TN5ah   SQ3  1 3.650000e-01    4.888000e+00
 TN5ah   TQ3  1 3.400000e-01    7.027000e+00
 TN4ah    Q3  1 3.950000e-01    3.560000e+00
 TN4ah   SQ3  1 3.650000e-01    4.861000e+00
 TN4ah   TQ3  1 3.400000e-01    6.968000e+00
 TN3ah    Q3  1 3.950000e-01    3.304000e+00
 TN3ah   SQ3  1 3.650000e-01    4.566000e+00
 TN3ah   TQ3  1 3.400000e-01    6.671000e+00
 TN2ah    Q3  1 3.950000e-01    3.295000e+00
 TN2ah   SQ3  1 3.650000e-01    4.518000e+00
 TN2ah   TQ3  1 3.400000e-01    6.565000e+00
 TN1ah    Q3  1 3.950000e-01    3.282000e+00
 TN1ah   SQ3  1 3.650000e-01    4.448000e+00
 TN1ah   TQ3  1 3.400000e-01    6.411000e+00
 TC6vh    Q3  1 3.950000e-01    2.631000e+00
 TC6vh   SQ3  1 3.650000e-01    3.673000e+00
 TC6vh   TQ3  1 3.400000e-01    5.388000e+00
 TC5vh    Q3  1 3.950000e-01    2.415000e+00
 TC5vh   SQ3  1 3.650000e-01    3.421000e+00
 TC5vh   TQ3  1 3.400000e-01    4.907000e+00
 TC4vh    Q3  1 3.950000e-01    2.130000e+00
 TC4vh   SQ3  1 3.660000e-01    3.131000e+00
 TC4vh   TQ3  1 3.520000e-01    4.313000e+00
 TC3vh    Q3  1 3.950000e-01    1.909000e+00
 TC3vh   SQ3  1 3.780000e-01    2.715000e+00
 TC3vh   TQ3  1 3.660000e-01    3.612000e+00
 TC2vh    Q3  1 4.040000e-01    1.031000e+00
 TC2vh   SQ3  1 4.230000e-01    1.956000e+00
 TC2vh   TQ3  1 4.380000e-01    2.660000e+00
 TC1vh    Q3  1 4.040000e-01    9.830000e-01
 TC1vh   SQ3  1 4.230000e-01    1.723000e+00
 TC1vh   TQ3  1 4.380000e-01    2.199000e+00
 TX4vh    Q3  1 3.950000e-01    2.643000e+00
 TX4vh   SQ3  1 3.650000e-01    3.738000e+00
 TX4vh   TQ3  1 3.400000e-01    5.532000e+00
 TX3vh    Q3  1 3.950000e-01    2.431000e+00
 TX3vh   SQ3  1 3.650000e-01    3.513000e+00
 TX3vh   TQ3  1 3.400000e-01    5.108000e+00
 TX2vh    Q3  1 3.950000e-01    2.144000e+00
 TX2vh   SQ3  1 3.660000e-01    3.206000e+00
 TX2vh   TQ3  1 3.520000e-01    4.473000e+00
 TX1vh    Q3  1 3.950000e-01    1.909000e+00
 TX1vh   SQ3  1 3.780000e-01    2.715000e+00
 TX1vh   TQ3  1 3.660000e-01    3.612000e+00
 TC6eh    Q3  1 3.950000e-01    2.631000e+00
 TC6eh   SQ3  1 3.650000e-01    3.673000e+00
 TC6eh   TQ3  1 3.400000e-01    5.388000e+00
 TC5eh    Q3  1 3.950000e-01    2.415000e+00
 TC5eh   SQ3  1 3.650000e-01    3.421000e+00
 TC5eh   TQ3  1 3.400000e-01    4.907000e+00
 TC4eh    Q3  1 3.950000e-01    2.130000e+00
 TC4eh   SQ3  1 3.660000e-01    3.131000e+00
 TC4eh   TQ3  1 3.520000e-01    4.313000e+00
 TC3eh    Q3  1 3.950000e-01    1.909000e+00
 TC3eh   SQ3  1 3.780000e-01    2.715000e+00
 TC3eh   TQ3  1 3.660000e-01    3.612000e+00
 TC2eh    Q3  1 4.040000e-01    1.031000e+00
 TC2eh   SQ3  1 4.230000e-01    1.956000e+00
 TC2eh   TQ3  1 4.380000e-01    2.660000e+00
 TC1eh    Q3  1 4.040000e-01    9.830000e-01
 TC1eh   SQ3  1 4.230000e-01    1.723000e+00
 TC1eh   TQ3  1 4.380000e-01    2.199000e+00
 TX4eh    Q3  1 3.950000e-01    2.643000e+00
 TX4eh   SQ3  1 3.650000e-01    3.738000e+00
 TX4eh   TQ3  1 3.400000e-01    5.532000e+00
 TX3eh    Q3  1 3.950000e-01    2.431000e+00
 TX3eh   SQ3  1 3.650000e-01    3.513000e+00
 TX3eh   TQ3  1 3.400000e-01    5.108000e+00
 TX2eh    Q3  1 3.950000e-01    2.144000e+00
 TX2eh   SQ3  1 3.660000e-01    3.206000e+00
 TX2eh   TQ3  1 3.520000e-01    4.473000e+00
 TX1eh    Q3  1 3.950000e-01    1.909000e+00
 TX1eh   SQ3  1 3.780000e-01    2.715000e+00
 TX1eh   TQ3  1 3.660000e-01    3.612000e+00
  TP6r    Q3  1 3.950000e-01    4.076000e+00
  TP6r   SQ3  1 3.650000e-01    5.596000e+00
  TP6r   TQ3  1 3.400000e-01    7.887000e+00
  TP5r    Q3  1 3.950000e-01    4.070000e+00
  TP5r   SQ3  1 3.650000e-01    5.566000e+00
  TP5r   TQ3  1 3.400000e-01    7.822000e+00
  TP4r    Q3  1 3.950000e-01    4.063000e+00
  TP4r   SQ3  1 3.650000e-01    5.528000e+00
  TP4r   TQ3  1 3.400000e-01    7.738000e+00
  TP3r    Q3  1 3.950000e-01    4.059000e+00
  TP3r   SQ3  1 3.650000e-01    5.502000e+00
  TP3r   TQ3  1 3.400000e-01    7.681000e+00
  TP2r    Q3  1 3.950000e-01    3.815000e+00
  TP2r   SQ3  1 3.650000e-01    5.213000e+00
  TP2r   TQ3  1 3.400000e-01    7.389000e+00
  TP1r    Q3  1 3.950000e-01    3.572000e+00
  TP1r   SQ3  1 3.650000e-01    4.928000e+00
  TP1r   TQ3  1 3.400000e-01    7.115000e+00
  TN6r    Q3  1 3.950000e-01    3.569000e+00
  TN6r   SQ3  1 3.650000e-01    4.910000e+00
  TN6r   TQ3  1 3.400000e-01    7.075000e+00
  TN5r    Q3  1 3.950000e-01    3.565000e+00
  TN5r   SQ3  1 3.650000e-01    4.888000e+00
  TN5r   TQ3  1 3.400000e-01    7.027000e+00
  TN4r    Q3  1 3.950000e-01    3.560000e+00
  TN4r   SQ3  1 3.650000e-01    4.861000e+00
  TN4r   TQ3  1 3.400000e-01    6.968000e+00
  TN3r    Q3  1 3.950000e-01    3.304000e+00
  TN3r   SQ3  1 3.650000e-01    4.566000e+00
  TN3r   TQ3  1 3.400000e-01    6.671000e+00
  TN2r    Q3  1 3.950000e-01    3.295000e+00
  TN2r   SQ3  1 3.650000e-01    4.518000e+00
  TN2r   TQ3  1 3.400000e-01    6.565000e+00
  TN1r    Q3  1 3.950000e-01    3.282000e+00
  TN1r   SQ3  1 3.650000e-01    4.448000e+00
  TN1r   TQ3  1 3.400000e-01    6.411000e+00
  TC6r    Q3  1 3.950000e-01    2.431000e+00
  TC6r   SQ3  1 3.650000e-01    3.513000e+00
  TC6r   TQ3  1 3.400000e-01    5.108000e+00
  TC5r    Q3  1 3.950000e-01    2.155000e+00
  TC5r   SQ3  1 3.660000e-01    3.267000e+00
  TC5r   TQ3  1 3.520000e-01    4.602000e+00
  TC4r    Q3  1 3.950000e-01    1.950000e+00
  TC4r   SQ3  1 3.780000e-01    2.933000e+00
  TC4r   TQ3  1 3.660000e-01    4.073000e+00
  TC3r    Q3  1 3.980000e-01    1.687000e+00
  TC3r   SQ3  1 3.940000e-01    2.503000e+00
  TC3r   TQ3  1 3.850000e-01    3.400000e+00
  TC2r    Q3  1 4.650000e-01    8.780000e-01
  TC2r   SQ3  1 4.840000e-01    1.742000e+00
  TC2r   TQ3  1 5.050000e-01    2.353000e+00
  TC1r    Q3  1 4.650000e-01    8.360000e-01
  TC1r   SQ3  1 4.840000e-01    1.538000e+00
  TC1r   TQ3  1 5.050000e-01    1.954000e+00
  TX4r    Q3  1 3.950000e-01    2.443000e+00
  TX4r   SQ3  1 3.650000e-01    3.578000e+00
  TX4r   TQ3  1 3.400000e-01    5.252000e+00
  TX3r    Q3  1 3.950000e-01    2.171000e+00
  TX3r   SQ3  1 3.660000e-01    3.358000e+00
  TX3r   TQ3  1 3.520000e-01    4.795000e+00
  TX2r    Q3  1 3.950000e-01    1.964000e+00
  TX2r   SQ3  1 3.780000e-01    3.005000e+00
  TX2r   TQ3  1 3.660000e-01    4.227000e+00
  TX1r    Q3  1 3.980000e-01    1.687000e+00
  TX1r   SQ3  1 3.940000e-01    2.503000e+00
  TX1r   TQ3  1 3.850000e-01    3.400000e+00
 TP6dr    Q3  1 3.950000e-01    4.076000e+00
 TP6dr   SQ3  1 3.650000e-01    5.596000e+00
 TP6dr   TQ3  1 3.400000e-01    7.887000e+00
 TP5dr    Q3  1 3.950000e-01    4.070000e+00
 TP5dr   SQ3  1 3.650000e-01    5.566000e+00
 TP5dr   TQ3  1 3.400000e-01    7.822000e+00
 TP4dr    Q3  1 3.950000e-01    4.063000e+00
 TP4dr   SQ3  1 3.650000e-01    5.528000e+00
 TP4dr   TQ3  1 3.400000e-01    7.738000e+00
 TP3dr    Q3  1 3.950000e-01    4.059000e+00
 TP3dr   SQ3  1 3.650000e-01    5.502000e+00
 TP3dr   TQ3  1 3.400000e-01    7.681000e+00
 TP2dr    Q3  1 3.950000e-01    3.815000e+00
 TP2dr   SQ3  1 3.650000e-01    5.213000e+00
 TP2dr   TQ3  1 3.400000e-01    7.389000e+00
 TP1dr    Q3  1 3.950000e-01    3.572000e+00
 TP1dr   SQ3  1 3.650000e-01    4.928000e+00
 TP1dr   TQ3  1 3.400000e-01    7.115000e+00
 TN6dr    Q3  1 3.950000e-01    3.569000e+00
 TN6dr   SQ3  1 3.650000e-01    4.910000e+00
 TN6dr   TQ3  1 3.400000e-01    7.075000e+00
 TN5dr    Q3  1 3.950000e-01    3.565000e+00
 TN5dr   SQ3  1 3.650000e-01    4.888000e+00
 TN5dr   TQ3  1 3.400000e-01    7.027000e+00
 TN4dr    Q3  1 3.950000e-01    3.560000e+00
 TN4dr   SQ3  1 3.650000e-01    4.861000e+00
 TN4dr   TQ3  1 3.400000e-01    6.968000e+00
 TN3dr    Q3  1 3.950000e-01    3.304000e+00
 TN3dr   SQ3  1 3.650000e-01    4.566000e+00
 TN3dr   TQ3  1 3.400000e-01    6.671000e+00
 TN2dr    Q3  1 3.950000e-01    3.295000e+00
 TN2dr   SQ3  1 3.650000e-01    4.518000e+00
 TN2dr   TQ3  1 3.400000e-01    6.565000e+00
 TN1dr    Q3  1 3.950000e-01    3.282000e+00
 TN1dr   SQ3  1 3.650000e-01    4.448000e+00
 TN1dr   TQ3  1 3.400000e-01    6.411000e+00
 TP6ar    Q3  1 3.950000e-01    4.076000e+00
 TP6ar   SQ3  1 3.650000e-01    5.596000e+00
 TP6ar   TQ3  1 3.400000e-01    7.887000e+00
 TP5ar    Q3  1 3.950000e-01    4.070000e+00
 TP5ar   SQ3  1 3.650000e-01    5.566000e+00
 TP5ar   TQ3  1 3.400000e-01    7.822000e+00
 TP4ar    Q3  1 3.950000e-01    4.063000e+00
 TP4ar   SQ3  1 3.650000e-01    5.528000e+00
 TP4ar   TQ3  1 3.400000e-01    7.738000e+00
 TP3ar    Q3  1 3.950000e-01    4.059000e+00
 TP3ar   SQ3  1 3.650000e-01    5.502000e+00
 TP3ar   TQ3  1 3.400000e-01    7.681000e+00
 TP2ar    Q3  1 3.950000e-01    3.815000e+00
 TP2ar   SQ3  1 3.650000e-01    5.213000e+00
 TP2ar   TQ3  1 3.400000e-01    7.389000e+00
 TP1ar    Q3  1 3.950000e-01    3.572000e+00
 TP1ar   SQ3  1 3.650000e-01    4.928000e+00
 TP1ar   TQ3  1 3.400000e-01    7.115000e+00
 TN6ar    Q3  1 3.950000e-01    3.569000e+00
 TN6ar   SQ3  1 3.650000e-01    4.910000e+00
 TN6ar   TQ3  1 3.400000e-01    7.075000e+00
 TN5ar    Q3  1 3.950000e-01    3.565000e+00
 TN5ar   SQ3  1 3.650000e-01    4.888000e+00
 TN5ar   TQ3  1 3.400000e-01    7.027000e+00
 TN4ar    Q3  1 3.950000e-01    3.560000e+00
 TN4ar   SQ3  1 3.650000e-01    4.861000e+00
 TN4ar   TQ3  1 3.400000e-01    6.968000e+00
 TN3ar    Q3  1 3.950000e-01    3.304000e+00
 TN3ar   SQ3  1 3.650000e-01    4.566000e+00
 TN3ar   TQ3  1 3.400000e-01    6.671000e+00
 TN2ar    Q3  1 3.950000e-01    3.295000e+00
 TN2ar   SQ3  1 3.650000e-01    4.518000e+00
 TN2ar   TQ3  1 3.400000e-01    6.565000e+00
 TN1ar    Q3  1 3.950000e-01    3.282000e+00
 TN1ar   SQ3  1 3.650000e-01    4.448000e+00
 TN1ar   TQ3  1 3.400000e-01    6.411000e+00
 TC6vr    Q3  1 3.950000e-01    2.631000e+00
 TC6vr   SQ3  1 3.650000e-01    3.673000e+00
 TC6vr   TQ3  1 3.400000e-01    5.388000e+00
 TC5vr    Q3  1 3.950000e-01    2.415000e+00
 TC5vr   SQ3  1 3.650000e-01    3.421000e+00
 TC5vr   TQ3  1 3.400000e-01    4.907000e+00
 TC4vr    Q3  1 3.950000e-01    2.130000e+00
 TC4vr   SQ3  1 3.660000e-01    3.131000e+00
 TC4vr   TQ3  1 3.520000e-01    4.313000e+00
 TC3vr    Q3  1 3.950000e-01    1.909000e+00
 TC3vr   SQ3  1 3.780000e-01    2.715000e+00
 TC3vr   TQ3  1 3.660000e-01    3.612000e+00
 TC2vr    Q3  1 4.040000e-01    1.031000e+00
 TC2vr   SQ3  1 4.230000e-01    1.956000e+00
 TC2vr   TQ3  1 4.380000e-01    2.660000e+00
 TC1vr    Q3  1 4.040000e-01    9.830000e-01
 TC1vr   SQ3  1 4.230000e-01    1.723000e+00
 TC1vr   TQ3  1 4.380000e-01    2.199000e+00
 TX4vr    Q3  1 3.950000e-01    2.643000e+00
 TX4vr   SQ3  1 3.650000e-01    3.738000e+00
 TX4vr   TQ3  1 3.400000e-01    5.532000e+00
 TX3vr    Q3  1 3.950000e-01    2.431000e+00
 TX3vr   SQ3  1 3.650000e-01    3.513000e+00
 TX3vr   TQ3  1 3.400000e-01    5.108000e+00
 TX2vr    Q3  1 3.950000e-01    2.144000e+00
 TX2vr   SQ3  1 3.660000e-01    3.206000e+00
 TX2vr   TQ3  1 3.520000e-01    4.473000e+00
 TX1vr    Q3  1 3.950000e-01    1.909000e+00
 TX1vr   SQ3  1 3.780000e-01    2.715000e+00
 TX1vr   TQ3  1 3.660000e-01    3.612000e+00
 TC6er    Q3  1 3.950000e-01    2.631000e+00
 TC6er   SQ3  1 3.650000e-01    3.673000e+00
 TC6er   TQ3  1 3.400000e-01    5.388000e+00
 TC5er    Q3  1 3.950000e-01    2.415000e+00
 TC5er   SQ3  1 3.650000e-01    3.421000e+00
 TC5er   TQ3  1 3.400000e-01    4.907000e+00
 TC4er    Q3  1 3.950000e-01    2.130000e+00
 TC4er   SQ3  1 3.660000e-01    3.131000e+00
 TC4er   TQ3  1 3.520000e-01    4.313000e+00
 TC3er    Q3  1 3.950000e-01    1.909000e+00
 TC3er   SQ3  1 3.780000e-01    2.715000e+00
 TC3er   TQ3  1 3.660000e-01    3.612000e+00
 TC2er    Q3  1 4.040000e-01    1.031000e+00
 TC2er   SQ3  1 4.230000e-01    1.956000e+00
 TC2er   TQ3  1 4.380000e-01    2.660000e+00
 TC1er    Q3  1 4.040000e-01    9.830000e-01
 TC1er   SQ3  1 4.230000e-01    1.723000e+00
 TC1er   TQ3  1 4.380000e-01    2.199000e+00
 TX4er    Q3  1 3.950000e-01    2.643000e+00
 TX4er   SQ3  1 3.650000e-01    3.738000e+00
 TX4er   TQ3  1 3.400000e-01    5.532000e+00
 TX3er    Q3  1 3.950000e-01    2.431000e+00
 TX3er   SQ3  1 3.650000e-01    3.513000e+00
 TX3er   TQ3  1 3.400000e-01    5.108000e+00
 TX2er    Q3  1 3.950000e-01    2.144000e+00
 TX2er   SQ3  1 3.660000e-01    3.206000e+00
 TX2er   TQ3  1 3.520000e-01    4.473000e+00
 TX1er    Q3  1 3.950000e-01    1.909000e+00
 TX1er   SQ3  1 3.780000e-01    2.715000e+00
 TX1er   TQ3  1 3.660000e-01    3.612000e+00
    P6   Q3p  1 4.700000e-01    5.195000e+00
    P6  SQ3p  1 4.300000e-01    6.785000e+00
    P6  TQ3p  1 3.950000e-01    9.717000e+00
    P5   Q3p  1 4.700000e-01    5.182000e+00
    P5  SQ3p  1 4.300000e-01    6.736000e+00
    P5  TQ3p  1 3.950000e-01    9.604000e+00
    P4   Q3p  1 4.700000e-01    5.165000e+00
    P4  SQ3p  1 4.300000e-01    6.676000e+00
    P4  TQ3p  1 3.950000e-01    9.466000e+00
    P3   Q3p  1 4.700000e-01    5.155000e+00
    P3  SQ3p  1 4.300000e-01    6.638000e+00
    P3  TQ3p  1 3.950000e-01    9.377000e+00
    P2   Q3p  1 4.700000e-01    4.917000e+00
    P2  SQ3p  1 4.300000e-01    6.410000e+00
    P2  TQ3p  1 3.950000e-01    9.073000e+00
    P1   Q3p  1 4.700000e-01    4.721000e+00
    P1  SQ3p  1 4.300000e-01    6.188000e+00
    P1  TQ3p  1 3.950000e-01    8.782000e+00
    N6   Q3p  1 4.700000e-01    4.714000e+00
    N6  SQ3p  1 4.300000e-01    6.163000e+00
    N6  TQ3p  1 3.950000e-01    8.723000e+00
    N5   Q3p  1 4.700000e-01    4.706000e+00
    N5  SQ3p  1 4.300000e-01    6.133000e+00
    N5  TQ3p  1 3.950000e-01    8.654000e+00
    N4   Q3p  1 4.700000e-01    4.696000e+00
    N4  SQ3p  1 4.300000e-01    6.095000e+00
    N4  TQ3p  1 3.950000e-01    8.568000e+00
    N3   Q3p  1 4.700000e-01    4.503000e+00
    N3  SQ3p  1 4.300000e-01    5.868000e+00
    N3  TQ3p  1 3.950000e-01    8.208000e+00
    N2   Q3p  1 4.700000e-01    4.485000e+00
    N2  SQ3p  1 4.300000e-01    5.804000e+00
    N2  TQ3p  1 3.950000e-01    8.059000e+00
    N1   Q3p  1 4.700000e-01    4.460000e+00
    N1  SQ3p  1 4.300000e-01    5.710000e+00
    N1  TQ3p  1 3.950000e-01    7.843000e+00
    C6   Q3p  1 4.700000e-01    3.928000e+00
    C6  SQ3p  1 4.300000e-01    4.888000e+00
    C6  TQ3p  1 3.950000e-01    6.862000e+00
    C5   Q3p  1 4.700000e-01    3.745000e+00
    C5  SQ3p  1 4.300000e-01    4.619000e+00
    C5  TQ3p  1 3.950000e-01    6.385000e+00
    C4   Q3p  1 4.700000e-01    3.527000e+00
    C4  SQ3p  1 4.300000e-01    4.200000e+00
    C4  TQ3p  1 3.950000e-01    5.713000e+00
    C3   Q3p  1 4.700000e-01    3.336000e+00
    C3  SQ3p  1 4.300000e-01    3.695000e+00
    C3  TQ3p  1 3.950000e-01    4.850000e+00
    C2   Q3p  1 4.850000e-01    2.542000e+00
    C2  SQ3p  1 4.430000e-01    2.587000e+00
    C2  TQ3p  1 4.040000e-01    3.408000e+00
    C1   Q3p  1 4.850000e-01    2.449000e+00
    C1  SQ3p  1 4.430000e-01    2.245000e+00
    C1  TQ3p  1 4.040000e-01    2.611000e+00
    X4   Q3p  1 4.700000e-01    3.952000e+00
    X4  SQ3p  1 4.300000e-01    4.975000e+00
    X4  TQ3p  1 3.950000e-01    7.062000e+00
    X3   Q3p  1 4.700000e-01    3.778000e+00
    X3  SQ3p  1 4.300000e-01    4.738000e+00
    X3  TQ3p  1 3.950000e-01    6.662000e+00
    X2   Q3p  1 4.700000e-01    3.554000e+00
    X2  SQ3p  1 4.300000e-01    4.299000e+00
    X2  TQ3p  1 3.950000e-01    5.941000e+00
    X1   Q3p  1 4.700000e-01    3.336000e+00
    X1  SQ3p  1 4.300000e-01    3.695000e+00
    X1  TQ3p  1 3.950000e-01    4.850000e+00
   P6d   Q3p  1 4.700000e-01    4.775000e+00
   P6d  SQ3p  1 4.300000e-01    6.385000e+00
   P6d  TQ3p  1 3.950000e-01    9.477000e+00
   P5d   Q3p  1 4.700000e-01    4.762000e+00
   P5d  SQ3p  1 4.300000e-01    6.336000e+00
   P5d  TQ3p  1 3.950000e-01    9.364000e+00
   P4d   Q3p  1 4.700000e-01    4.745000e+00
   P4d  SQ3p  1 4.300000e-01    6.276000e+00
   P4d  TQ3p  1 3.950000e-01    9.226000e+00
   P3d   Q3p  1 4.700000e-01    4.735000e+00
   P3d  SQ3p  1 4.300000e-01    6.238000e+00
   P3d  TQ3p  1 3.950000e-01    9.137000e+00
   P2d   Q3p  1 4.700000e-01    4.547000e+00
   P2d  SQ3p  1 4.300000e-01    6.030000e+00
   P2d  TQ3p  1 3.950000e-01    8.833000e+00
   P1d   Q3p  1 4.700000e-01    4.541000e+00
   P1d  SQ3p  1 4.300000e-01    6.008000e+00
   P1d  TQ3p  1 3.950000e-01    8.782000e+00
   N6d   Q3p  1 4.700000e-01    4.534000e+00
   N6d  SQ3p  1 4.300000e-01    5.983000e+00
   N6d  TQ3p  1 3.950000e-01    8.723000e+00
   N5d   Q3p  1 4.700000e-01    4.526000e+00
   N5d  SQ3p  1 4.300000e-01    5.953000e+00
   N5d  TQ3p  1 3.950000e-01    8.654000e+00
   N4d   Q3p  1 4.700000e-01    4.516000e+00
   N4d  SQ3p  1 4.300000e-01    5.915000e+00
   N4d  TQ3p  1 3.950000e-01    8.568000e+00
   N3d   Q3p  1 4.700000e-01    4.143000e+00
   N3d  SQ3p  1 4.300000e-01    5.438000e+00
   N3d  TQ3p  1 3.950000e-01    7.968000e+00
   N2d   Q3p  1 4.700000e-01    4.125000e+00
   N2d  SQ3p  1 4.300000e-01    5.374000e+00
   N2d  TQ3p  1 3.950000e-01    7.819000e+00
   N1d   Q3p  1 4.700000e-01    4.100000e+00
   N1d  SQ3p  1 4.300000e-01    5.280000e+00
   N1d  TQ3p  1 3.950000e-01    7.603000e+00
   P6a   Q3p  1 4.700000e-01    5.445000e+00
   P6a  SQ3p  1 4.300000e-01    7.015000e+00
   P6a  TQ3p  1 3.950000e-01    1.027700e+01
   P5a   Q3p  1 4.700000e-01    5.432000e+00
   P5a  SQ3p  1 4.300000e-01    6.966000e+00
   P5a  TQ3p  1 3.950000e-01    1.016400e+01
   P4a   Q3p  1 4.700000e-01    5.415000e+00
   P4a  SQ3p  1 4.300000e-01    6.906000e+00
   P4a  TQ3p  1 3.950000e-01    1.002600e+01
   P3a   Q3p  1 4.700000e-01    5.405000e+00
   P3a  SQ3p  1 4.300000e-01    6.868000e+00
   P3a  TQ3p  1 3.950000e-01    9.937000e+00
   P2a   Q3p  1 4.700000e-01    5.147000e+00
   P2a  SQ3p  1 4.300000e-01    6.610000e+00
   P2a  TQ3p  1 3.950000e-01    9.553000e+00
   P1a   Q3p  1 4.700000e-01    4.911000e+00
   P1a  SQ3p  1 4.300000e-01    6.388000e+00
   P1a  TQ3p  1 3.950000e-01    9.262000e+00
   N6a   Q3p  1 4.700000e-01    4.904000e+00
   N6a  SQ3p  1 4.300000e-01    6.363000e+00
   N6a  TQ3p  1 3.950000e-01    9.203000e+00
   N5a   Q3p  1 4.700000e-01    4.896000e+00
   N5a  SQ3p  1 4.300000e-01    6.333000e+00
   N5a  TQ3p  1 3.950000e-01    9.134000e+00
   N4a   Q3p  1 4.700000e-01    4.886000e+00
   N4a  SQ3p  1 4.300000e-01    6.295000e+00
   N4a  TQ3p  1 3.950000e-01    9.048000e+00
   N3a   Q3p  1 4.700000e-01    4.683000e+00
   N3a  SQ3p  1 4.300000e-01    6.048000e+00
   N3a  TQ3p  1 3.950000e-01    8.698000e+00
   N2a   Q3p  1 4.700000e-01    4.665000e+00
   N2a  SQ3p  1 4.300000e-01    5.984000e+00
   N2a  TQ3p  1 3.950000e-01    8.549000e+00
   N1a   Q3p  1 4.700000e-01    4.640000e+00
   N1a  SQ3p  1 4.300000e-01    5.890000e+00
   N1a  TQ3p  1 3.950000e-01    8.333000e+00
   C6v   Q3p  1 4.700000e-01    3.498000e+00
   C6v  SQ3p  1 4.300000e-01    4.288000e+00
   C6v  TQ3p  1 3.950000e-01    6.402000e+00
   C5v   Q3p  1 4.700000e-01    3.295000e+00
   C5v  SQ3p  1 4.300000e-01    4.009000e+00
   C5v  TQ3p  1 3.950000e-01    5.945000e+00
   C4v   Q3p  1 4.700000e-01    3.077000e+00
   C4v  SQ3p  1 4.300000e-01    3.600000e+00
   C4v  TQ3p  1 3.980000e-01    5.284000e+00
   C3v   Q3p  1 4.700000e-01    2.816000e+00
   C3v  SQ3p  1 4.300000e-01    3.105000e+00
   C3v  TQ3p  1 3.990000e-01    4.328000e+00
   C2v   Q3p  1 6.200000e-01    2.196000e+00
   C2v  SQ3p  1 5.140000e-01    2.064000e+00
   C2v  TQ3p  1 5.110000e-01    2.697000e+00
   C1v   Q3p  1 6.200000e-01    2.123000e+00
   C1v  SQ3p  1 5.140000e-01    1.769000e+00
   C1v  TQ3p  1 5.110000e-01    2.067000e+00
   X4v   Q3p  1 4.700000e-01    3.522000e+00
   X4v  SQ3p  1 4.300000e-01    4.375000e+00
   X4v  TQ3p  1 3.950000e-01    6.602000e+00
   X3v   Q3p  1 4.700000e-01    3.328000e+00
   X3v  SQ3p  1 4.300000e-01    4.128000e+00
   X3v  TQ3p  1 3.950000e-01    6.222000e+00
   X2v   Q3p  1 4.700000e-01    3.104000e+00
   X2v  SQ3p  1 4.300000e-01    3.699000e+00
   X2v  TQ3p  1 3.980000e-01    5.510000e+00
   X1v   Q3p  1 4.700000e-01    2.816000e+00
   X1v  SQ3p  1 4.300000e-01    3.105000e+00
   X1v  TQ3p  1 3.990000e-01    4.328000e+00
   C6e   Q3p  1 4.700000e-01    3.928000e+00
   C6e  SQ3p  1 4.300000e-01    4.898000e+00
   C6e  TQ3p  1 3.950000e-01    7.052000e+00
   C5e   Q3p  1 4.700000e-01    3.745000e+00
   C5e  SQ3p  1 4.300000e-01    4.769000e+00
   C5e  TQ3p  1 3.950000e-01    6.585000e+00
   C4e   Q3p  1 4.700000e-01    3.527000e+00
   C4e  SQ3p  1 4.300000e-01    4.200000e+00
   C4e  TQ3p  1 3.950000e-01    5.973000e+00
   C3e   Q3p  1 4.700000e-01    3.336000e+00
   C3e  SQ3p  1 4.300000e-01    3.695000e+00
   C3e  TQ3p  1 3.950000e-01    5.030000e+00
   C2e   Q3p  1 4.850000e-01    2.542000e+00
   C2e  SQ3p  1 4.430000e-01    2.587000e+00
   C2e  TQ3p  1 4.010000e-01    3.580000e+00
   C1e   Q3p  1 4.850000e-01    2.449000e+00
   C1e  SQ3p  1 4.430000e-01    2.245000e+00
   C1e  TQ3p  1 4.010000e-01    2.778000e+00
   X4e   Q3p  1 4.700000e-01    3.952000e+00
   X4e  SQ3p  1 4.300000e-01    4.985000e+00
   X4e  TQ3p  1 3.950000e-01    7.252000e+00
   X3e   Q3p  1 4.700000e-01    3.778000e+00
   X3e  SQ3p  1 4.300000e-01    4.888000e+00
   X3e  TQ3p  1 3.950000e-01    6.862000e+00
   X2e   Q3p  1 4.700000e-01    3.554000e+00
   X2e  SQ3p  1 4.300000e-01    4.299000e+00
   X2e  TQ3p  1 3.950000e-01    6.201000e+00
   X1e   Q3p  1 4.700000e-01    3.336000e+00
   X1e  SQ3p  1 4.300000e-01    3.695000e+00
   X1e  TQ3p  1 3.950000e-01    5.030000e+00
   P6q   Q3p  1 4.700000e-01    5.955000e+00
   P6q  SQ3p  1 4.300000e-01    7.535000e+00
   P6q  TQ3p  1 3.950000e-01    1.058700e+01
   P5q   Q3p  1 4.700000e-01    5.942000e+00
   P5q  SQ3p  1 4.300000e-01    7.486000e+00
   P5q  TQ3p  1 3.950000e-01    1.047400e+01
   P4q   Q3p  1 4.700000e-01    5.925000e+00
   P4q  SQ3p  1 4.300000e-01    7.426000e+00
   P4q  TQ3p  1 3.950000e-01    1.033600e+01
   P3q   Q3p  1 4.700000e-01    5.915000e+00
   P3q  SQ3p  1 4.300000e-01    7.388000e+00
   P3q  TQ3p  1 3.950000e-01    1.024700e+01
   P2q   Q3p  1 4.700000e-01    5.657000e+00
   P2q  SQ3p  1 4.300000e-01    7.120000e+00
   P2q  TQ3p  1 3.950000e-01    9.873000e+00
   P1q   Q3p  1 4.700000e-01    5.391000e+00
   P1q  SQ3p  1 4.300000e-01    6.818000e+00
   P1q  TQ3p  1 3.950000e-01    9.502000e+00
   N6q   Q3p  1 4.700000e-01    5.384000e+00
   N6q  SQ3p  1 4.300000e-01    6.793000e+00
   N6q  TQ3p  1 3.950000e-01    9.443000e+00
   N5q   Q3p  1 4.700000e-01    5.376000e+00
   N5q  SQ3p  1 4.300000e-01    6.763000e+00
   N5q  TQ3p  1 3.950000e-01    9.374000e+00
   N4q   Q3p  1 4.700000e-01    5.366000e+00
   N4q  SQ3p  1 4.300000e-01    6.725000e+00
   N4q  TQ3p  1 3.950000e-01    9.288000e+00
   N3q   Q3p  1 4.700000e-01    5.103000e+00
   N3q  SQ3p  1 4.300000e-01    6.448000e+00
   N3q  TQ3p  1 3.950000e-01    8.938000e+00
   N2q   Q3p  1 4.700000e-01    5.085000e+00
   N2q  SQ3p  1 4.300000e-01    6.384000e+00
   N2q  TQ3p  1 3.950000e-01    8.789000e+00
   N1q   Q3p  1 4.700000e-01    5.060000e+00
   N1q  SQ3p  1 4.300000e-01    6.290000e+00
   N1q  TQ3p  1 3.950000e-01    8.573000e+00
   C6q   Q3p  1 4.700000e-01    4.418000e+00
   C6q  SQ3p  1 4.300000e-01    5.558000e+00
   C6q  TQ3p  1 3.950000e-01    7.492000e+00
   C5q   Q3p  1 4.700000e-01    4.195000e+00
   C5q  SQ3p  1 4.300000e-01    5.229000e+00
   C5q  TQ3p  1 3.950000e-01    6.975000e+00
   C4q   Q3p  1 4.700000e-01    3.977000e+00
   C4q  SQ3p  1 4.300000e-01    4.830000e+00
   C4q  TQ3p  1 3.950000e-01    6.363000e+00
   C3q   Q3p  1 4.700000e-01    3.766000e+00
   C3q  SQ3p  1 4.300000e-01    4.295000e+00
   C3q  TQ3p  1 3.950000e-01    5.490000e+00
   C2q   Q3p  1 4.700000e-01    3.102000e+00
   C2q  SQ3p  1 4.300000e-01    3.300000e+00
   C2q  TQ3p  1 3.980000e-01    4.066000e+00
   C1q   Q3p  1 4.700000e-01    3.005000e+00
   C1q  SQ3p  1 4.300000e-01    2.948000e+00
   C1q  TQ3p  1 3.980000e-01    3.258000e+00
   X4q   Q3p  1 4.700000e-01    4.442000e+00
   X4q  SQ3p  1 4.300000e-01    5.645000e+00
   X4q  TQ3p  1 3.950000e-01    7.692000e+00
   X3q   Q3p  1 4.700000e-01    4.228000e+00
   X3q  SQ3p  1 4.300000e-01    5.348000e+00
   X3q  TQ3p  1 3.950000e-01    7.252000e+00
   X2q   Q3p  1 4.700000e-01    4.004000e+00
   X2q  SQ3p  1 4.300000e-01    4.929000e+00
   X2q  TQ3p  1 3.950000e-01    6.591000e+00
   X1q   Q3p  1 4.700000e-01    3.766000e+00
   X1q  SQ3p  1 4.300000e-01    4.295000e+00
   X1q  TQ3p  1 3.950000e-01    5.490000e+00
  P6dq   Q3p  1 4.700000e-01    5.445000e+00
  P6dq  SQ3p  1 4.300000e-01    7.015000e+00
  P6dq  TQ3p  1 3.950000e-01    1.027700e+01
  P5dq   Q3p  1 4.700000e-01    5.432000e+00
  P5dq  SQ3p  1 4.300000e-01    6.966000e+00
  P5dq  TQ3p  1 3.950000e-01    1.016400e+01
  P4dq   Q3p  1 4.700000e-01    5.415000e+00
  P4dq  SQ3p  1 4.300000e-01    6.906000e+00
  P4dq  TQ3p  1 3.950000e-01    1.002600e+01
  P3dq   Q3p  1 4.700000e-01    5.405000e+00
  P3dq  SQ3p  1 4.300000e-01    6.868000e+00
  P3dq  TQ3p  1 3.950000e-01    9.937000e+00
  P2dq   Q3p  1 4.700000e-01    5.147000e+00
  P2dq  SQ3p  1 4.300000e-01    6.610000e+00
  P2dq  TQ3p  1 3.950000e-01    9.553000e+00
  P1dq   Q3p  1 4.700000e-01    5.141000e+00
  P1dq  SQ3p  1 4.300000e-01    6.588000e+00
  P1dq  TQ3p  1 3.950000e-01    9.502000e+00
  N6dq   Q3p  1 4.700000e-01    5.134000e+00
  N6dq  SQ3p  1 4.300000e-01    6.563000e+00
  N6dq  TQ3p  1 3.950000e-01    9.443000e+00
  N5dq   Q3p  1 4.700000e-01    5.126000e+00
  N5dq  SQ3p  1 4.300000e-01    6.533000e+00
  N5dq  TQ3p  1 3.950000e-01    9.374000e+00
  N4dq   Q3p  1 4.700000e-01    5.116000e+00
  N4dq  SQ3p  1 4.300000e-01    6.495000e+00
  N4dq  TQ3p  1 3.950000e-01    9.288000e+00
  N3dq   Q3p  1 4.700000e-01    4.683000e+00
  N3dq  SQ3p  1 4.300000e-01    6.048000e+00
  N3dq  TQ3p  1 3.950000e-01    8.698000e+00
  N2dq   Q3p  1 4.700000e-01    4.665000e+00
  N2dq  SQ3p  1 4.300000e-01    5.984000e+00
  N2dq  TQ3p  1 3.950000e-01    8.549000e+00
  N1dq   Q3p  1 4.700000e-01    4.640000e+00
  N1dq  SQ3p  1 4.300000e-01    5.890000e+00
  N1dq  TQ3p  1 3.950000e-01    8.333000e+00
  P6aq   Q3p  1 4.700000e-01    6.205000e+00
  P6aq  SQ3p  1 4.300000e-01    7.825000e+00
  P6aq  TQ3p  1 3.950000e-01    1.131700e+01
  P5aq   Q3p  1 4.700000e-01    6.192000e+00
  P5aq  SQ3p  1 4.300000e-01    7.776000e+00
  P5aq  TQ3p  1 3.950000e-01    1.120400e+01
  P4aq   Q3p  1 4.700000e-01    6.175000e+00
  P4aq  SQ3p  1 4.300000e-01    7.716000e+00
  P4aq  TQ3p  1 3.950000e-01    1.106600e+01
  P3aq   Q3p  1 4.700000e-01    6.165000e+00
  P3aq  SQ3p  1 4.300000e-01    7.678000e+00
  P3aq  TQ3p  1 3.950000e-01    1.097700e+01
  P2aq   Q3p  1 4.700000e-01    5.907000e+00
  P2aq  SQ3p  1 4.300000e-01    7.360000e+00
  P2aq  TQ3p  1 3.950000e-01    1.051300e+01
  P1aq   Q3p  1 4.700000e-01    5.651000e+00
  P1aq  SQ3p  1 4.300000e-01    7.098000e+00
  P1aq  TQ3p  1 3.950000e-01    1.013200e+01
  N6aq   Q3p  1 4.700000e-01    5.644000e+00
  N6aq  SQ3p  1 4.300000e-01    7.073000e+00
  N6aq  TQ3p  1 3.950000e-01    1.007300e+01
  N5aq   Q3p  1 4.700000e-01    5.636000e+00
  N5aq  SQ3p  1 4.300000e-01    7.043000e+00
  N5aq  TQ3p  1 3.950000e-01    1.000400e+01
  N4aq   Q3p  1 4.700000e-01    5.626000e+00
  N4aq  SQ3p  1 4.300000e-01    7.005000e+00
  N4aq  TQ3p  1 3.950000e-01    9.918000e+00
  N3aq   Q3p  1 4.700000e-01    5.353000e+00
  N3aq  SQ3p  1 4.300000e-01    6.678000e+00
  N3aq  TQ3p  1 3.950000e-01    9.498000e+00
  N2aq   Q3p  1 4.700000e-01    5.335000e+00
  N2aq  SQ3p  1 4.300000e-01    6.614000e+00
  N2aq  TQ3p  1 3.950000e-01    9.349000e+00
  N1aq   Q3p  1 4.700000e-01    5.310000e+00
  N1aq  SQ3p  1 4.300000e-01    6.520000e+00
  N1aq  TQ3p  1 3.950000e-01    9.133000e+00
  C6vq   Q3p  1 4.700000e-01    3.928000e+00
  C6vq  SQ3p  1 4.300000e-01    4.898000e+00
  C6vq  TQ3p  1 3.950000e-01    7.052000e+00
  C5vq   Q3p  1 4.700000e-01    3.745000e+00
  C5vq  SQ3p  1 4.300000e-01    4.769000e+00
  C5vq  TQ3p  1 3.950000e-01    6.585000e+00
  C4vq   Q3p  1 4.700000e-01    3.527000e+00
  C4vq  SQ3p  1 4.300000e-01    4.200000e+00
  C4vq  TQ3p  1 3.950000e-01    5.973000e+00
  C3vq   Q3p  1 4.700000e-01    3.336000e+00
  C3vq  SQ3p  1 4.300000e-01    3.695000e+00
  C3vq  TQ3p  1 3.950000e-01    5.030000e+00
  C2vq   Q3p  1 4.850000e-01    2.542000e+00
  C2vq  SQ3p  1 4.430000e-01    2.587000e+00
  C2vq  TQ3p  1 4.010000e-01    3.580000e+00
  C1vq   Q3p  1 4.850000e-01    2.449000e+00
  C1vq  SQ3p  1 4.430000e-01    2.245000e+00
  C1vq  TQ3p  1 4.010000e-01    2.778000e+00
  X4vq   Q3p  1 4.700000e-01    3.952000e+00
  X4vq  SQ3p  1 4.300000e-01    4.985000e+00
  X4vq  TQ3p  1 3.950000e-01    7.252000e+00
  X3vq   Q3p  1 4.700000e-01    3.778000e+00
  X3vq  SQ3p  1 4.300000e-01    4.888000e+00
  X3vq  TQ3p  1 3.950000e-01    6.862000e+00
  X2vq   Q3p  1 4.700000e-01    3.554000e+00
  X2vq  SQ3p  1 4.300000e-01    4.299000e+00
  X2vq  TQ3p  1 3.950000e-01    6.201000e+00
  X1vq   Q3p  1 4.700000e-01    3.336000e+00
  X1vq  SQ3p  1 4.300000e-01    3.695000e+00
  X1vq  TQ3p  1 3.950000e-01    5.030000e+00
  C6eq   Q3p  1 4.700000e-01    4.418000e+00
  C6eq  SQ3p  1 4.300000e-01    5.558000e+00
  C6eq  TQ3p  1 3.950000e-01    7.742000e+00
  C5eq   Q3p  1 4.700000e-01    4.195000e+00
  C5eq  SQ3p  1 4.300000e-01    5.229000e+00
  C5eq  TQ3p  1 3.950000e-01    7.215000e+00
  C4eq   Q3p  1 4.700000e-01    3.977000e+00
  C4eq  SQ3p  1 4.300000e-01    4.830000e+00
  C4eq  TQ3p  1 3.950000e-01    6.563000e+00
  C3eq   Q3p  1 4.700000e-01    3.766000e+00
  C3eq  SQ3p  1 4.300000e-01    4.305000e+00
  C3eq  TQ3p  1 3.950000e-01    5.680000e+00
  C2eq   Q3p  1 4.700000e-01    3.102000e+00
  C2eq  SQ3p  1 4.300000e-01    3.300000e+00
  C2eq  TQ3p  1 3.950000e-01    4.306000e+00
  C1eq   Q3p  1 4.700000e-01    3.005000e+00
  C1eq  SQ3p  1 4.300000e-01    2.948000e+00
  C1eq  TQ3p  1 3.950000e-01    3.492000e+00
  X4eq   Q3p  1 4.700000e-01    4.442000e+00
  X4eq  SQ3p  1 4.300000e-01    5.645000e+00
  X4eq  TQ3p  1 3.950000e-01    7.942000e+00
  X3eq   Q3p  1 4.700000e-01    4.228000e+00
  X3eq  SQ3p  1 4.300000e-01    5.348000e+00
  X3eq  TQ3p  1 3.950000e-01    7.492000e+00
  X2eq   Q3p  1 4.700000e-01    4.004000e+00
  X2eq  SQ3p  1 4.300000e-01    4.929000e+00
  X2eq  TQ3p  1 3.950000e-01    6.791000e+00
  X1eq   Q3p  1 4.700000e-01    3.766000e+00
  X1eq  SQ3p  1 4.300000e-01    4.305000e+00
  X1eq  TQ3p  1 3.950000e-01    5.680000e+00
   P6h   Q3p  1 4.700000e-01    5.195000e+00
   P6h  SQ3p  1 4.300000e-01    6.785000e+00
   P6h  TQ3p  1 3.950000e-01    9.717000e+00
   P5h   Q3p  1 4.700000e-01    5.182000e+00
   P5h  SQ3p  1 4.300000e-01    6.736000e+00
   P5h  TQ3p  1 3.950000e-01    9.604000e+00
   P4h   Q3p  1 4.700000e-01    5.165000e+00
   P4h  SQ3p  1 4.300000e-01    6.676000e+00
   P4h  TQ3p  1 3.950000e-01    9.466000e+00
   P3h   Q3p  1 4.700000e-01    5.155000e+00
   P3h  SQ3p  1 4.300000e-01    6.638000e+00
   P3h  TQ3p  1 3.950000e-01    9.377000e+00
   P2h   Q3p  1 4.700000e-01    4.917000e+00
   P2h  SQ3p  1 4.300000e-01    6.410000e+00
   P2h  TQ3p  1 3.950000e-01    9.073000e+00
   P1h   Q3p  1 4.700000e-01    4.721000e+00
   P1h  SQ3p  1 4.300000e-01    6.188000e+00
   P1h  TQ3p  1 3.950000e-01    8.782000e+00
   N6h   Q3p  1 4.700000e-01    4.714000e+00
   N6h  SQ3p  1 4.300000e-01    6.163000e+00
   N6h  TQ3p  1 3.950000e-01    8.723000e+00
   N5h   Q3p  1 4.700000e-01    4.706000e+00
   N5h  SQ3p  1 4.300000e-01    6.133000e+00
   N5h  TQ3p  1 3.950000e-01    8.654000e+00
   N4h   Q3p  1 4.700000e-01    4.696000e+00
   N4h  SQ3p  1 4.300000e-01    6.095000e+00
   N4h  TQ3p  1 3.950000e-01    8.568000e+00
   N3h   Q3p  1 4.700000e-01    4.503000e+00
   N3h  SQ3p  1 4.300000e-01    5.868000e+00
   N3h  TQ3p  1 3.950000e-01    8.208000e+00
   N2h   Q3p  1 4.700000e-01    4.485000e+00
   N2h  SQ3p  1 4.300000e-01    5.804000e+00
   N2h  TQ3p  1 3.950000e-01    8.059000e+00
   N1h   Q3p  1 4.700000e-01    4.460000e+00
   N1h  SQ3p  1 4.300000e-01    5.710000e+00
   N1h  TQ3p  1 3.950000e-01    7.843000e+00
   C6h   Q3p  1 4.700000e-01    3.928000e+00
   C6h  SQ3p  1 4.300000e-01    4.888000e+00
   C6h  TQ3p  1 3.950000e-01    6.862000e+00
   C5h   Q3p  1 4.700000e-01    3.745000e+00
   C5h  SQ3p  1 4.300000e-01    4.619000e+00
   C5h  TQ3p  1 3.950000e-01    6.385000e+00
   C4h   Q3p  1 4.700000e-01    3.527000e+00
   C4h  SQ3p  1 4.300000e-01    4.200000e+00
   C4h  TQ3p  1 3.950000e-01    5.713000e+00
   C3h   Q3p  1 4.700000e-01    3.336000e+00
   C3h  SQ3p  1 4.300000e-01    3.695000e+00
   C3h  TQ3p  1 3.950000e-01    4.850000e+00
   C2h   Q3p  1 4.850000e-01    2.542000e+00
   C2h  SQ3p  1 4.430000e-01    2.587000e+00
   C2h  TQ3p  1 4.040000e-01    3.408000e+00
   C1h   Q3p  1 4.850000e-01    2.449000e+00
   C1h  SQ3p  1 4.430000e-01    2.245000e+00
   C1h  TQ3p  1 4.040000e-01    2.611000e+00
   X4h   Q3p  1 4.700000e-01    3.952000e+00
   X4h  SQ3p  1 4.300000e-01    4.975000e+00
   X4h  TQ3p  1 3.950000e-01    7.062000e+00
   X3h   Q3p  1 4.700000e-01    3.778000e+00
   X3h  SQ3p  1 4.300000e-01    4.738000e+00
   X3h  TQ3p  1 3.950000e-01    6.662000e+00
   X2h   Q3p  1 4.700000e-01    3.554000e+00
   X2h  SQ3p  1 4.300000e-01    4.299000e+00
   X2h  TQ3p  1 3.950000e-01    5.941000e+00
   X1h   Q3p  1 4.700000e-01    3.336000e+00
   X1h  SQ3p  1 4.300000e-01    3.695000e+00
   X1h  TQ3p  1 3.950000e-01    4.850000e+00
  P6dh   Q3p  1 4.700000e-01    4.775000e+00
  P6dh  SQ3p  1 4.300000e-01    6.385000e+00
  P6dh  TQ3p  1 3.950000e-01    9.477000e+00
  P5dh   Q3p  1 4.700000e-01    4.762000e+00
  P5dh  SQ3p  1 4.300000e-01    6.336000e+00
  P5dh  TQ3p  1 3.950000e-01    9.364000e+00
  P4dh   Q3p  1 4.700000e-01    4.745000e+00
  P4dh  SQ3p  1 4.300000e-01    6.276000e+00
  P4dh  TQ3p  1 3.950000e-01    9.226000e+00
  P3dh   Q3p  1 4.700000e-01    4.735000e+00
  P3dh  SQ3p  1 4.300000e-01    6.238000e+00
  P3dh  TQ3p  1 3.950000e-01    9.137000e+00
  P2dh   Q3p  1 4.700000e-01    4.547000e+00
  P2dh  SQ3p  1 4.300000e-01    6.030000e+00
  P2dh  TQ3p  1 3.950000e-01    8.833000e+00
  P1dh   Q3p  1 4.700000e-01    4.541000e+00
  P1dh  SQ3p  1 4.300000e-01    6.008000e+00
  P1dh  TQ3p  1 3.950000e-01    8.782000e+00
  N6dh   Q3p  1 4.700000e-01    4.534000e+00
  N6dh  SQ3p  1 4.300000e-01    5.983000e+00
  N6dh  TQ3p  1 3.950000e-01    8.723000e+00
  N5dh   Q3p  1 4.700000e-01    4.526000e+00
  N5dh  SQ3p  1 4.300000e-01    5.953000e+00
  N5dh  TQ3p  1 3.950000e-01    8.654000e+00
  N4dh   Q3p  1 4.700000e-01    4.516000e+00
  N4dh  SQ3p  1 4.300000e-01    5.915000e+00
  N4dh  TQ3p  1 3.950000e-01    8.568000e+00
  N3dh   Q3p  1 4.700000e-01    4.143000e+00
  N3dh  SQ3p  1 4.300000e-01    5.438000e+00
  N3dh  TQ3p  1 3.950000e-01    7.968000e+00
  N2dh   Q3p  1 4.700000e-01    4.125000e+00
  N2dh  SQ3p  1 4.300000e-01    5.374000e+00
  N2dh  TQ3p  1 3.950000e-01    7.819000e+00
  N1dh   Q3p  1 4.700000e-01    4.100000e+00
  N1dh  SQ3p  1 4.300000e-01    5.280000e+00
  N1dh  TQ3p  1 3.950000e-01    7.603000e+00
  P6ah   Q3p  1 4.700000e-01    5.445000e+00
  P6ah  SQ3p  1 4.300000e-01    7.015000e+00
  P6ah  TQ3p  1 3.950000e-01    1.027700e+01
  P5ah   Q3p  1 4.700000e-01    5.432000e+00
  P5ah  SQ3p  1 4.300000e-01    6.966000e+00
  P5ah  TQ3p  1 3.950000e-01    1.016400e+01
  P4ah   Q3p  1 4.700000e-01    5.415000e+00
  P4ah  SQ3p  1 4.300000e-01    6.906000e+00
  P4ah  TQ3p  1 3.950000e-01    1.002600e+01
  P3ah   Q3p  1 4.700000e-01    5.405000e+00
  P3ah  SQ3p  1 4.300000e-01    6.868000e+00
  P3ah  TQ3p  1 3.950000e-01    9.937000e+00
  P2ah   Q3p  1 4.700000e-01    5.147000e+00
  P2ah  SQ3p  1 4.300000e-01    6.610000e+00
  P2ah  TQ3p  1 3.950000e-01    9.553000e+00
  P1ah   Q3p  1 4.700000e-01    4.911000e+00
  P1ah  SQ3p  1 4.300000e-01    6.388000e+00
  P1ah  TQ3p  1 3.950000e-01    9.262000e+00
  N6ah   Q3p  1 4.700000e-01    4.904000e+00
  N6ah  SQ3p  1 4.300000e-01    6.363000e+00
  N6ah  TQ3p  1 3.950000e-01    9.203000e+00
  N5ah   Q3p  1 4.700000e-01    4.896000e+00
  N5ah  SQ3p  1 4.300000e-01    6.333000e+00
  N5ah  TQ3p  1 3.950000e-01    9.134000e+00
  N4ah   Q3p  1 4.700000e-01    4.886000e+00
  N4ah  SQ3p  1 4.300000e-01    6.295000e+00
  N4ah  TQ3p  1 3.950000e-01    9.048000e+00
  N3ah   Q3p  1 4.700000e-01    4.683000e+00
  N3ah  SQ3p  1 4.300000e-01    6.048000e+00
  N3ah  TQ3p  1 3.950000e-01    8.698000e+00
  N2ah   Q3p  1 4.700000e-01    4.665000e+00
  N2ah  SQ3p  1 4.300000e-01    5.984000e+00
  N2ah  TQ3p  1 3.950000e-01    8.549000e+00
  N1ah   Q3p  1 4.700000e-01    4.640000e+00
  N1ah  SQ3p  1 4.300000e-01    5.890000e+00
  N1ah  TQ3p  1 3.950000e-01    8.333000e+00
  C6vh   Q3p  1 4.700000e-01    3.498000e+00
  C6vh  SQ3p  1 4.300000e-01    4.288000e+00
  C6vh  TQ3p  1 3.950000e-01    6.402000e+00
  C5vh   Q3p  1 4.700000e-01    3.295000e+00
  C5vh  SQ3p  1 4.300000e-01    4.009000e+00
  C5vh  TQ3p  1 3.950000e-01    5.945000e+00
  C4vh   Q3p  1 4.700000e-01    3.077000e+00
  C4vh  SQ3p  1 4.300000e-01    3.600000e+00
  C4vh  TQ3p  1 3.980000e-01    5.284000e+00
  C3vh   Q3p  1 4.700000e-01    2.816000e+00
  C3vh  SQ3p  1 4.300000e-01    3.105000e+00
  C3vh  TQ3p  1 3.990000e-01    4.328000e+00
  C2vh   Q3p  1 6.200000e-01    2.196000e+00
  C2vh  SQ3p  1 5.140000e-01    2.064000e+00
  C2vh  TQ3p  1 5.110000e-01    2.697000e+00
  C1vh   Q3p  1 6.200000e-01    2.123000e+00
  C1vh  SQ3p  1 5.140000e-01    1.769000e+00
  C1vh  TQ3p  1 5.110000e-01    2.067000e+00
  X4vh   Q3p  1 4.700000e-01    3.522000e+00
  X4vh  SQ3p  1 4.300000e-01    4.375000e+00
  X4vh  TQ3p  1 3.950000e-01    6.602000e+00
  X3vh   Q3p  1 4.700000e-01    3.328000e+00
  X3vh  SQ3p  1 4.300000e-01    4.128000e+00
  X3vh  TQ3p  1 3.950000e-01    6.222000e+00
  X2vh   Q3p  1 4.700000e-01    3.104000e+00
  X2vh  SQ3p  1 4.300000e-01    3.699000e+00
  X2vh  TQ3p  1 3.980000e-01    5.510000e+00
  X1vh   Q3p  1 4.700000e-01    2.816000e+00
  X1vh  SQ3p  1 4.300000e-01    3.105000e+00
  X1vh  TQ3p  1 3.990000e-01    4.328000e+00
  C6eh   Q3p  1 4.700000e-01    3.928000e+00
  C6eh  SQ3p  1 4.300000e-01    4.898000e+00
  C6eh  TQ3p  1 3.950000e-01    7.052000e+00
  C5eh   Q3p  1 4.700000e-01    3.745000e+00
  C5eh  SQ3p  1 4.300000e-01    4.769000e+00
  C5eh  TQ3p  1 3.950000e-01    6.585000e+00
  C4eh   Q3p  1 4.700000e-01    3.527000e+00
  C4eh  SQ3p  1 4.300000e-01    4.200000e+00
  C4eh  TQ3p  1 3.950000e-01    5.973000e+00
  C3eh   Q3p  1 4.700000e-01    3.336000e+00
  C3eh  SQ3p  1 4.300000e-01    3.695000e+00
  C3eh  TQ3p  1 3.950000e-01    5.030000e+00
  C2eh   Q3p  1 4.850000e-01    2.542000e+00
  C2eh  SQ3p  1 4.430000e-01    2.587000e+00
  C2eh  TQ3p  1 4.010000e-01    3.580000e+00
  C1eh   Q3p  1 4.850000e-01    2.449000e+00
  C1eh  SQ3p  1 4.430000e-01    2.245000e+00
  C1eh  TQ3p  1 4.010000e-01    2.778000e+00
  X4eh   Q3p  1 4.700000e-01    3.952000e+00
  X4eh  SQ3p  1 4.300000e-01    4.985000e+00
  X4eh  TQ3p  1 3.950000e-01    7.252000e+00
  X3eh   Q3p  1 4.700000e-01    3.778000e+00
  X3eh  SQ3p  1 4.300000e-01    4.888000e+00
  X3eh  TQ3p  1 3.950000e-01    6.862000e+00
  X2eh   Q3p  1 4.700000e-01    3.554000e+00
  X2eh  SQ3p  1 4.300000e-01    4.299000e+00
  X2eh  TQ3p  1 3.950000e-01    6.201000e+00
  X1eh   Q3p  1 4.700000e-01    3.336000e+00
  X1eh  SQ3p  1 4.300000e-01    3.695000e+00
  X1eh  TQ3p  1 3.950000e-01    5.030000e+00
   P6r   Q3p  1 4.700000e-01    5.195000e+00
   P6r  SQ3p  1 4.300000e-01    6.785000e+00
   P6r  TQ3p  1 3.950000e-01    9.717000e+00
   P5r   Q3p  1 4.700000e-01    5.182000e+00
   P5r  SQ3p  1 4.300000e-01    6.736000e+00
   P5r  TQ3p  1 3.950000e-01    9.604000e+00
   P4r   Q3p  1 4.700000e-01    5.165000e+00
   P4r  SQ3p  1 4.300000e-01    6.676000e+00
   P4r  TQ3p  1 3.950000e-01    9.466000e+00
   P3r   Q3p  1 4.700000e-01    5.155000e+00
   P3r  SQ3p  1 4.300000e-01    6.638000e+00
   P3r  TQ3p  1 3.950000e-01    9.377000e+00
   P2r   Q3p  1 4.700000e-01    4.917000e+00
   P2r  SQ3p  1 4.300000e-01    6.410000e+00
   P2r  TQ3p  1 3.950000e-01    9.073000e+00
   P1r   Q3p  1 4.700000e-01    4.721000e+00
   P1r  SQ3p  1 4.300000e-01    6.188000e+00
   P1r  TQ3p  1 3.950000e-01    8.782000e+00
   N6r   Q3p  1 4.700000e-01    4.714000e+00
   N6r  SQ3p  1 4.300000e-01    6.163000e+00
   N6r  TQ3p  1 3.950000e-01    8.723000e+00
   N5r   Q3p  1 4.700000e-01    4.706000e+00
   N5r  SQ3p  1 4.300000e-01    6.133000e+00
   N5r  TQ3p  1 3.950000e-01    8.654000e+00
   N4r   Q3p  1 4.700000e-01    4.696000e+00
   N4r  SQ3p  1 4.300000e-01    6.095000e+00
   N4r  TQ3p  1 3.950000e-01    8.568000e+00
   N3r   Q3p  1 4.700000e-01    4.503000e+00
   N3r  SQ3p  1 4.300000e-01    5.868000e+00
   N3r  TQ3p  1 3.950000e-01    8.208000e+00
   N2r   Q3p  1 4.700000e-01    4.485000e+00
   N2r  SQ3p  1 4.300000e-01    5.804000e+00
   N2r  TQ3p  1 3.950000e-01    8.059000e+00
   N1r   Q3p  1 4.700000e-01    4.460000e+00
   N1r  SQ3p  1 4.300000e-01    5.710000e+00
   N1r  TQ3p  1 3.950000e-01    7.843000e+00
   C6r   Q3p  1 4.700000e-01    3.928000e+00
   C6r  SQ3p  1 4.300000e-01    4.888000e+00
   C6r  TQ3p  1 3.950000e-01    6.862000e+00
   C5r   Q3p  1 4.700000e-01    3.745000e+00
   C5r  SQ3p  1 4.300000e-01    4.619000e+00
   C5r  TQ3p  1 3.950000e-01    6.385000e+00
   C4r   Q3p  1 4.700000e-01    3.527000e+00
   C4r  SQ3p  1 4.300000e-01    4.200000e+00
   C4r  TQ3p  1 3.950000e-01    5.713000e+00
   C3r   Q3p  1 4.700000e-01    3.336000e+00
   C3r  SQ3p  1 4.300000e-01    3.695000e+00
   C3r  TQ3p  1 3.950000e-01    4.850000e+00
   C2r   Q3p  1 4.850000e-01    2.542000e+00
   C2r  SQ3p  1 4.430000e-01    2.587000e+00
   C2r  TQ3p  1 4.040000e-01    3.408000e+00
   C1r   Q3p  1 4.850000e-01    2.449000e+00
   C1r  SQ3p  1 4.430000e-01    2.245000e+00
   C1r  TQ3p  1 4.040000e-01    2.611000e+00
   X4r   Q3p  1 4.700000e-01    3.952000e+00
   X4r  SQ3p  1 4.300000e-01    4.975000e+00
   X4r  TQ3p  1 3.950000e-01    7.062000e+00
   X3r   Q3p  1 4.700000e-01    3.778000e+00
   X3r  SQ3p  1 4.300000e-01    4.738000e+00
   X3r  TQ3p  1 3.950000e-01    6.662000e+00
   X2r   Q3p  1 4.700000e-01    3.554000e+00
   X2r  SQ3p  1 4.300000e-01    4.299000e+00
   X2r  TQ3p  1 3.950000e-01    5.941000e+00
   X1r   Q3p  1 4.700000e-01    3.336000e+00
   X1r  SQ3p  1 4.300000e-01    3.695000e+00
   X1r  TQ3p  1 3.950000e-01    4.850000e+00
  P6dr   Q3p  1 4.700000e-01    4.775000e+00
  P6dr  SQ3p  1 4.300000e-01    6.385000e+00
  P6dr  TQ3p  1 3.950000e-01    9.477000e+00
  P5dr   Q3p  1 4.700000e-01    4.762000e+00
  P5dr  SQ3p  1 4.300000e-01    6.336000e+00
  P5dr  TQ3p  1 3.950000e-01    9.364000e+00
  P4dr   Q3p  1 4.700000e-01    4.745000e+00
  P4dr  SQ3p  1 4.300000e-01    6.276000e+00
  P4dr  TQ3p  1 3.950000e-01    9.226000e+00
  P3dr   Q3p  1 4.700000e-01    4.735000e+00
  P3dr  SQ3p  1 4.300000e-01    6.238000e+00
  P3dr  TQ3p  1 3.950000e-01    9.137000e+00
  P2dr   Q3p  1 4.700000e-01    4.547000e+00
  P2dr  SQ3p  1 4.300000e-01    6.030000e+00
  P2dr  TQ3p  1 3.950000e-01    8.833000e+00
  P1dr   Q3p  1 4.700000e-01    4.541000e+00
  P1dr  SQ3p  1 4.300000e-01    6.008000e+00
  P1dr  TQ3p  1 3.950000e-01    8.782000e+00
  N6dr   Q3p  1 4.700000e-01    4.534000e+00
  N6dr  SQ3p  1 4.300000e-01    5.983000e+00
  N6dr  TQ3p  1 3.950000e-01    8.723000e+00
  N5dr   Q3p  1 4.700000e-01    4.526000e+00
  N5dr  SQ3p  1 4.300000e-01    5.953000e+00
  N5dr  TQ3p  1 3.950000e-01    8.654000e+00
  N4dr   Q3p  1 4.700000e-01    4.516000e+00
  N4dr  SQ3p  1 4.300000e-01    5.915000e+00
  N4dr  TQ3p  1 3.950000e-01    8.568000e+00
  N3dr   Q3p  1 4.700000e-01    4.143000e+00
  N3dr  SQ3p  1 4.300000e-01    5.438000e+00
  N3dr  TQ3p  1 3.950000e-01    7.968000e+00
  N2dr   Q3p  1 4.700000e-01    4.125000e+00
  N2dr  SQ3p  1 4.300000e-01    5.374000e+00
  N2dr  TQ3p  1 3.950000e-01    7.819000e+00
  N1dr   Q3p  1 4.700000e-01    4.100000e+00
  N1dr  SQ3p  1 4.300000e-01    5.280000e+00
  N1dr  TQ3p  1 3.950000e-01    7.603000e+00
  P6ar   Q3p  1 4.700000e-01    5.445000e+00
  P6ar  SQ3p  1 4.300000e-01    7.015000e+00
  P6ar  TQ3p  1 3.950000e-01    1.027700e+01
  P5ar   Q3p  1 4.700000e-01    5.432000e+00
  P5ar  SQ3p  1 4.300000e-01    6.966000e+00
  P5ar  TQ3p  1 3.950000e-01    1.016400e+01
  P4ar   Q3p  1 4.700000e-01    5.415000e+00
  P4ar  SQ3p  1 4.300000e-01    6.906000e+00
  P4ar  TQ3p  1 3.950000e-01    1.002600e+01
  P3ar   Q3p  1 4.700000e-01    5.405000e+00
  P3ar  SQ3p  1 4.300000e-01    6.868000e+00
  P3ar  TQ3p  1 3.950000e-01    9.937000e+00
  P2ar   Q3p  1 4.700000e-01    5.147000e+00
  P2ar  SQ3p  1 4.300000e-01    6.610000e+00
  P2ar  TQ3p  1 3.950000e-01    9.553000e+00
  P1ar   Q3p  1 4.700000e-01    4.911000e+00
  P1ar  SQ3p  1 4.300000e-01    6.388000e+00
  P1ar  TQ3p  1 3.950000e-01    9.262000e+00
  N6ar   Q3p  1 4.700000e-01    4.904000e+00
  N6ar  SQ3p  1 4.300000e-01    6.363000e+00
  N6ar  TQ3p  1 3.950000e-01    9.203000e+00
  N5ar   Q3p  1 4.700000e-01    4.896000e+00
  N5ar  SQ3p  1 4.300000e-01    6.333000e+00
  N5ar  TQ3p  1 3.950000e-01    9.134000e+00
  N4ar   Q3p  1 4.700000e-01    4.886000e+00
  N4ar  SQ3p  1 4.300000e-01    6.295000e+00
  N4ar  TQ3p  1 3.950000e-01    9.048000e+00
  N3ar   Q3p  1 4.700000e-01    4.683000e+00
  N3ar  SQ3p  1 4.300000e-01    6.048000e+00
  N3ar  TQ3p  1 3.950000e-01    8.698000e+00
  N2ar   Q3p  1 4.700000e-01    4.665000e+00
  N2ar  SQ3p  1 4.300000e-01    5.984000e+00
  N2ar  TQ3p  1 3.950000e-01    8.549000e+00
  N1ar   Q3p  1 4.700000e-01    4.640000e+00
  N1ar  SQ3p  1 4.300000e-01    5.890000e+00
  N1ar  TQ3p  1 3.950000e-01    8.333000e+00
  C6vr   Q3p  1 4.700000e-01    3.498000e+00
  C6vr  SQ3p  1 4.300000e-01    4.288000e+00
  C6vr  TQ3p  1 3.950000e-01    6.402000e+00
  C5vr   Q3p  1 4.700000e-01    3.295000e+00
  C5vr  SQ3p  1 4.300000e-01    4.009000e+00
  C5vr  TQ3p  1 3.950000e-01    5.945000e+00
  C4vr   Q3p  1 4.700000e-01    3.077000e+00
  C4vr  SQ3p  1 4.300000e-01    3.600000e+00
  C4vr  TQ3p  1 3.980000e-01    5.284000e+00
  C3vr   Q3p  1 4.700000e-01    2.816000e+00
  C3vr  SQ3p  1 4.300000e-01    3.105000e+00
  C3vr  TQ3p  1 3.990000e-01    4.328000e+00
  C2vr   Q3p  1 6.200000e-01    2.196000e+00
  C2vr  SQ3p  1 5.140000e-01    2.064000e+00
  C2vr  TQ3p  1 5.110000e-01    2.697000e+00
  C1vr   Q3p  1 6.200000e-01    2.123000e+00
  C1vr  SQ3p  1 5.140000e-01    1.769000e+00
  C1vr  TQ3p  1 5.110000e-01    2.067000e+00
  X4vr   Q3p  1 4.700000e-01    3.522000e+00
  X4vr  SQ3p  1 4.300000e-01    4.375000e+00
  X4vr  TQ3p  1 3.950000e-01    6.602000e+00
  X3vr   Q3p  1 4.700000e-01    3.328000e+00
  X3vr  SQ3p  1 4.300000e-01    4.128000e+00
  X3vr  TQ3p  1 3.950000e-01    6.222000e+00
  X2vr   Q3p  1 4.700000e-01    3.104000e+00
  X2vr  SQ3p  1 4.300000e-01    3.699000e+00
  X2vr  TQ3p  1 3.980000e-01    5.510000e+00
  X1vr   Q3p  1 4.700000e-01    2.816000e+00
  X1vr  SQ3p  1 4.300000e-01    3.105000e+00
  X1vr  TQ3p  1 3.990000e-01    4.328000e+00
  C6er   Q3p  1 4.700000e-01    3.928000e+00
  C6er  SQ3p  1 4.300000e-01    4.898000e+00
  C6er  TQ3p  1 3.950000e-01    7.052000e+00
  C5er   Q3p  1 4.700000e-01    3.745000e+00
  C5er  SQ3p  1 4.300000e-01    4.769000e+00
  C5er  TQ3p  1 3.950000e-01    6.585000e+00
  C4er   Q3p  1 4.700000e-01    3.527000e+00
  C4er  SQ3p  1 4.300000e-01    4.200000e+00
  C4er  TQ3p  1 3.950000e-01    5.973000e+00
  C3er   Q3p  1 4.700000e-01    3.336000e+00
  C3er  SQ3p  1 4.300000e-01    3.695000e+00
  C3er  TQ3p  1 3.950000e-01    5.030000e+00
  C2er   Q3p  1 4.850000e-01    2.542000e+00
  C2er  SQ3p  1 4.430000e-01    2.587000e+00
  C2er  TQ3p  1 4.010000e-01    3.580000e+00
  C1er   Q3p  1 4.850000e-01    2.449000e+00
  C1er  SQ3p  1 4.430000e-01    2.245000e+00
  C1er  TQ3p  1 4.010000e-01    2.778000e+00
  X4er   Q3p  1 4.700000e-01    3.952000e+00
  X4er  SQ3p  1 4.300000e-01    4.985000e+00
  X4er  TQ3p  1 3.950000e-01    7.252000e+00
  X3er   Q3p  1 4.700000e-01    3.778000e+00
  X3er  SQ3p  1 4.300000e-01    4.888000e+00
  X3er  TQ3p  1 3.950000e-01    6.862000e+00
  X2er   Q3p  1 4.700000e-01    3.554000e+00
  X2er  SQ3p  1 4.300000e-01    4.299000e+00
  X2er  TQ3p  1 3.950000e-01    6.201000e+00
  X1er   Q3p  1 4.700000e-01    3.336000e+00
  X1er  SQ3p  1 4.300000e-01    3.695000e+00
  X1er  TQ3p  1 3.950000e-01    5.030000e+00
   SP6   Q3p  1 4.300000e-01    4.659000e+00
   SP6  SQ3p  1 4.100000e-01    6.305000e+00
   SP6  TQ3p  1 3.650000e-01    8.565000e+00
   SP5   Q3p  1 4.300000e-01    4.651000e+00
   SP5  SQ3p  1 4.100000e-01    6.265000e+00
   SP5  TQ3p  1 3.650000e-01    8.480000e+00
   SP4   Q3p  1 4.300000e-01    4.641000e+00
   SP4  SQ3p  1 4.100000e-01    6.214000e+00
   SP4  TQ3p  1 3.650000e-01    8.374000e+00
   SP3   Q3p  1 4.300000e-01    4.634000e+00
   SP3  SQ3p  1 4.100000e-01    6.180000e+00
   SP3  TQ3p  1 3.650000e-01    8.303000e+00
   SP2   Q3p  1 4.300000e-01    4.429000e+00
   SP2  SQ3p  1 4.100000e-01    5.885000e+00
   SP2  TQ3p  1 3.650000e-01    7.981000e+00
   SP1   Q3p  1 4.300000e-01    4.226000e+00
   SP1  SQ3p  1 4.100000e-01    5.626000e+00
   SP1  TQ3p  1 3.650000e-01    7.670000e+00
   SN6   Q3p  1 4.300000e-01    4.221000e+00
   SN6  SQ3p  1 4.100000e-01    5.603000e+00
   SN6  TQ3p  1 3.650000e-01    7.622000e+00
   SN5   Q3p  1 4.300000e-01    4.216000e+00
   SN5  SQ3p  1 4.100000e-01    5.575000e+00
   SN5  TQ3p  1 3.650000e-01    7.565000e+00
   SN4   Q3p  1 4.300000e-01    4.209000e+00
   SN4  SQ3p  1 4.100000e-01    5.541000e+00
   SN4  TQ3p  1 3.650000e-01    7.493000e+00
   SN3   Q3p  1 4.300000e-01    4.020000e+00
   SN3  SQ3p  1 4.100000e-01    5.257000e+00
   SN3  TQ3p  1 3.650000e-01    7.142000e+00
   SN2   Q3p  1 4.300000e-01    4.009000e+00
   SN2  SQ3p  1 4.100000e-01    5.198000e+00
   SN2  TQ3p  1 3.650000e-01    7.017000e+00
   SN1   Q3p  1 4.300000e-01    3.991000e+00
   SN1  SQ3p  1 4.100000e-01    5.110000e+00
   SN1  TQ3p  1 3.650000e-01    6.835000e+00
   SC6   Q3p  1 4.300000e-01    3.293000e+00
   SC6  SQ3p  1 4.100000e-01    4.248000e+00
   SC6  TQ3p  1 3.650000e-01    5.878000e+00
   SC5   Q3p  1 4.300000e-01    3.121000e+00
   SC5  SQ3p  1 4.100000e-01    3.986000e+00
   SC5  TQ3p  1 3.650000e-01    5.482000e+00
   SC4   Q3p  1 4.300000e-01    2.848000e+00
   SC4  SQ3p  1 4.100000e-01    3.658000e+00
   SC4  TQ3p  1 3.660000e-01    4.973000e+00
   SC3   Q3p  1 4.300000e-01    2.584000e+00
   SC3  SQ3p  1 4.100000e-01    3.250000e+00
   SC3  TQ3p  1 3.780000e-01    4.155000e+00
   SC2   Q3p  1 4.430000e-01    1.694000e+00
   SC2  SQ3p  1 4.210000e-01    2.340000e+00
   SC2  TQ3p  1 4.230000e-01    2.999000e+00
   SC1   Q3p  1 4.430000e-01    1.630000e+00
   SC1  SQ3p  1 4.210000e-01    2.016000e+00
   SC1  TQ3p  1 4.230000e-01    2.400000e+00
   SX4   Q3p  1 4.300000e-01    3.309000e+00
   SX4  SQ3p  1 4.100000e-01    4.329000e+00
   SX4  TQ3p  1 3.650000e-01    6.047000e+00
   SX3   Q3p  1 4.300000e-01    3.143000e+00
   SX3  SQ3p  1 4.100000e-01    4.098000e+00
   SX3  TQ3p  1 3.650000e-01    5.718000e+00
   SX2   Q3p  1 4.300000e-01    2.867000e+00
   SX2  SQ3p  1 4.100000e-01    3.751000e+00
   SX2  TQ3p  1 3.660000e-01    5.167000e+00
   SX1   Q3p  1 4.300000e-01    2.584000e+00
   SX1  SQ3p  1 4.100000e-01    3.250000e+00
   SX1  TQ3p  1 3.780000e-01    4.155000e+00
  SP6d   Q3p  1 4.300000e-01    4.259000e+00
  SP6d  SQ3p  1 4.100000e-01    6.035000e+00
  SP6d  TQ3p  1 3.650000e-01    8.295000e+00
  SP5d   Q3p  1 4.300000e-01    4.251000e+00
  SP5d  SQ3p  1 4.100000e-01    5.995000e+00
  SP5d  TQ3p  1 3.650000e-01    8.210000e+00
  SP4d   Q3p  1 4.300000e-01    4.241000e+00
  SP4d  SQ3p  1 4.100000e-01    5.944000e+00
  SP4d  TQ3p  1 3.650000e-01    8.104000e+00
  SP3d   Q3p  1 4.300000e-01    4.234000e+00
  SP3d  SQ3p  1 4.100000e-01    5.910000e+00
  SP3d  TQ3p  1 3.650000e-01    8.033000e+00
  SP2d   Q3p  1 4.300000e-01    4.049000e+00
  SP2d  SQ3p  1 4.100000e-01    5.645000e+00
  SP2d  TQ3p  1 3.650000e-01    7.711000e+00
  SP1d   Q3p  1 4.300000e-01    4.046000e+00
  SP1d  SQ3p  1 4.100000e-01    5.626000e+00
  SP1d  TQ3p  1 3.650000e-01    7.670000e+00
  SN6d   Q3p  1 4.300000e-01    4.041000e+00
  SN6d  SQ3p  1 4.100000e-01    5.603000e+00
  SN6d  TQ3p  1 3.650000e-01    7.622000e+00
  SN5d   Q3p  1 4.300000e-01    4.036000e+00
  SN5d  SQ3p  1 4.100000e-01    5.575000e+00
  SN5d  TQ3p  1 3.650000e-01    7.565000e+00
  SN4d   Q3p  1 4.300000e-01    4.029000e+00
  SN4d  SQ3p  1 4.100000e-01    5.541000e+00
  SN4d  TQ3p  1 3.650000e-01    7.493000e+00
  SN3d   Q3p  1 4.300000e-01    3.590000e+00
  SN3d  SQ3p  1 4.100000e-01    5.027000e+00
  SN3d  TQ3p  1 3.650000e-01    6.912000e+00
  SN2d   Q3p  1 4.300000e-01    3.579000e+00
  SN2d  SQ3p  1 4.100000e-01    4.968000e+00
  SN2d  TQ3p  1 3.650000e-01    6.787000e+00
  SN1d   Q3p  1 4.300000e-01    3.561000e+00
  SN1d  SQ3p  1 4.100000e-01    4.880000e+00
  SN1d  TQ3p  1 3.650000e-01    6.605000e+00
  SP6a   Q3p  1 4.300000e-01    4.889000e+00
  SP6a  SQ3p  1 4.100000e-01    6.775000e+00
  SP6a  TQ3p  1 3.650000e-01    9.125000e+00
  SP5a   Q3p  1 4.300000e-01    4.881000e+00
  SP5a  SQ3p  1 4.100000e-01    6.735000e+00
  SP5a  TQ3p  1 3.650000e-01    9.040000e+00
  SP4a   Q3p  1 4.300000e-01    4.871000e+00
  SP4a  SQ3p  1 4.100000e-01    6.684000e+00
  SP4a  TQ3p  1 3.650000e-01    8.934000e+00
  SP3a   Q3p  1 4.300000e-01    4.864000e+00
  SP3a  SQ3p  1 4.100000e-01    6.650000e+00
  SP3a  TQ3p  1 3.650000e-01    8.863000e+00
  SP2a   Q3p  1 4.300000e-01    4.629000e+00
  SP2a  SQ3p  1 4.100000e-01    6.375000e+00
  SP2a  TQ3p  1 3.650000e-01    8.521000e+00
  SP1a   Q3p  1 4.300000e-01    4.426000e+00
  SP1a  SQ3p  1 4.100000e-01    6.136000e+00
  SP1a  TQ3p  1 3.650000e-01    8.210000e+00
  SN6a   Q3p  1 4.300000e-01    4.421000e+00
  SN6a  SQ3p  1 4.100000e-01    6.113000e+00
  SN6a  TQ3p  1 3.650000e-01    8.162000e+00
  SN5a   Q3p  1 4.300000e-01    4.416000e+00
  SN5a  SQ3p  1 4.100000e-01    6.085000e+00
  SN5a  TQ3p  1 3.650000e-01    8.105000e+00
  SN4a   Q3p  1 4.300000e-01    4.409000e+00
  SN4a  SQ3p  1 4.100000e-01    6.051000e+00
  SN4a  TQ3p  1 3.650000e-01    8.033000e+00
  SN3a   Q3p  1 4.300000e-01    4.200000e+00
  SN3a  SQ3p  1 4.100000e-01    5.737000e+00
  SN3a  TQ3p  1 3.650000e-01    7.672000e+00
  SN2a   Q3p  1 4.300000e-01    4.189000e+00
  SN2a  SQ3p  1 4.100000e-01    5.678000e+00
  SN2a  TQ3p  1 3.650000e-01    7.547000e+00
  SN1a   Q3p  1 4.300000e-01    4.171000e+00
  SN1a  SQ3p  1 4.100000e-01    5.590000e+00
  SN1a  TQ3p  1 3.650000e-01    7.365000e+00
  SC6v   Q3p  1 4.300000e-01    2.693000e+00
  SC6v  SQ3p  1 4.100000e-01    3.938000e+00
  SC6v  TQ3p  1 3.660000e-01    5.557000e+00
  SC5v   Q3p  1 4.300000e-01    2.511000e+00
  SC5v  SQ3p  1 4.100000e-01    3.696000e+00
  SC5v  TQ3p  1 3.780000e-01    5.054000e+00
  SC4v   Q3p  1 4.300000e-01    2.248000e+00
  SC4v  SQ3p  1 4.100000e-01    3.368000e+00
  SC4v  TQ3p  1 3.940000e-01    4.423000e+00
  SC3v   Q3p  1 4.300000e-01    1.994000e+00
  SC3v  SQ3p  1 4.140000e-01    2.887000e+00
  SC3v  TQ3p  1 4.040000e-01    3.661000e+00
  SC2v   Q3p  1 5.140000e-01    1.294000e+00
  SC2v  SQ3p  1 4.960000e-01    1.975000e+00
  SC2v  TQ3p  1 5.370000e-01    2.398000e+00
  SC1v   Q3p  1 5.140000e-01    1.240000e+00
  SC1v  SQ3p  1 4.960000e-01    1.701000e+00
  SC1v  TQ3p  1 5.370000e-01    1.926000e+00
  SX4v   Q3p  1 4.300000e-01    2.709000e+00
  SX4v  SQ3p  1 4.100000e-01    4.019000e+00
  SX4v  TQ3p  1 3.660000e-01    5.725000e+00
  SX3v   Q3p  1 4.300000e-01    2.533000e+00
  SX3v  SQ3p  1 4.100000e-01    3.808000e+00
  SX3v  TQ3p  1 3.780000e-01    5.281000e+00
  SX2v   Q3p  1 4.300000e-01    2.267000e+00
  SX2v  SQ3p  1 4.100000e-01    3.461000e+00
  SX2v  TQ3p  1 3.940000e-01    4.603000e+00
  SX1v   Q3p  1 4.300000e-01    1.994000e+00
  SX1v  SQ3p  1 4.140000e-01    2.887000e+00
  SX1v  TQ3p  1 4.040000e-01    3.661000e+00
  SC6e   Q3p  1 4.300000e-01    3.303000e+00
  SC6e  SQ3p  1 4.100000e-01    4.498000e+00
  SC6e  TQ3p  1 3.650000e-01    6.078000e+00
  SC5e   Q3p  1 4.300000e-01    3.271000e+00
  SC5e  SQ3p  1 4.100000e-01    4.136000e+00
  SC5e  TQ3p  1 3.650000e-01    5.642000e+00
  SC4e   Q3p  1 4.300000e-01    2.848000e+00
  SC4e  SQ3p  1 4.100000e-01    3.818000e+00
  SC4e  TQ3p  1 3.650000e-01    5.132000e+00
  SC3e   Q3p  1 4.300000e-01    2.584000e+00
  SC3e  SQ3p  1 4.100000e-01    3.380000e+00
  SC3e  TQ3p  1 3.660000e-01    4.394000e+00
  SC2e   Q3p  1 4.430000e-01    1.694000e+00
  SC2e  SQ3p  1 4.180000e-01    2.497000e+00
  SC2e  TQ3p  1 4.090000e-01    3.167000e+00
  SC1e   Q3p  1 4.430000e-01    1.630000e+00
  SC1e  SQ3p  1 4.180000e-01    2.172000e+00
  SC1e  TQ3p  1 4.090000e-01    2.548000e+00
  SX4e   Q3p  1 4.300000e-01    3.319000e+00
  SX4e  SQ3p  1 4.100000e-01    4.579000e+00
  SX4e  TQ3p  1 3.650000e-01    6.247000e+00
  SX3e   Q3p  1 4.300000e-01    3.293000e+00
  SX3e  SQ3p  1 4.100000e-01    4.248000e+00
  SX3e  TQ3p  1 3.650000e-01    5.878000e+00
  SX2e   Q3p  1 4.300000e-01    2.867000e+00
  SX2e  SQ3p  1 4.100000e-01    3.911000e+00
  SX2e  TQ3p  1 3.650000e-01    5.327000e+00
  SX1e   Q3p  1 4.300000e-01    2.584000e+00
  SX1e  SQ3p  1 4.100000e-01    3.380000e+00
  SX1e  TQ3p  1 3.660000e-01    4.394000e+00
  SP6q   Q3p  1 4.300000e-01    5.409000e+00
  SP6q  SQ3p  1 4.100000e-01    7.035000e+00
  SP6q  TQ3p  1 3.650000e-01    9.415000e+00
  SP5q   Q3p  1 4.300000e-01    5.401000e+00
  SP5q  SQ3p  1 4.100000e-01    6.995000e+00
  SP5q  TQ3p  1 3.650000e-01    9.330000e+00
  SP4q   Q3p  1 4.300000e-01    5.391000e+00
  SP4q  SQ3p  1 4.100000e-01    6.944000e+00
  SP4q  TQ3p  1 3.650000e-01    9.224000e+00
  SP3q   Q3p  1 4.300000e-01    5.384000e+00
  SP3q  SQ3p  1 4.100000e-01    6.910000e+00
  SP3q  TQ3p  1 3.650000e-01    9.153000e+00
  SP2q   Q3p  1 4.300000e-01    5.139000e+00
  SP2q  SQ3p  1 4.100000e-01    6.625000e+00
  SP2q  TQ3p  1 3.650000e-01    8.811000e+00
  SP1q   Q3p  1 4.300000e-01    4.856000e+00
  SP1q  SQ3p  1 4.100000e-01    6.356000e+00
  SP1q  TQ3p  1 3.650000e-01    8.480000e+00
  SN6q   Q3p  1 4.300000e-01    4.851000e+00
  SN6q  SQ3p  1 4.100000e-01    6.333000e+00
  SN6q  TQ3p  1 3.650000e-01    8.432000e+00
  SN5q   Q3p  1 4.300000e-01    4.846000e+00
  SN5q  SQ3p  1 4.100000e-01    6.305000e+00
  SN5q  TQ3p  1 3.650000e-01    8.375000e+00
  SN4q   Q3p  1 4.300000e-01    4.839000e+00
  SN4q  SQ3p  1 4.100000e-01    6.271000e+00
  SN4q  TQ3p  1 3.650000e-01    8.303000e+00
  SN3q   Q3p  1 4.300000e-01    4.600000e+00
  SN3q  SQ3p  1 4.100000e-01    6.007000e+00
  SN3q  TQ3p  1 3.650000e-01    7.942000e+00
  SN2q   Q3p  1 4.300000e-01    4.589000e+00
  SN2q  SQ3p  1 4.100000e-01    5.948000e+00
  SN2q  TQ3p  1 3.650000e-01    7.817000e+00
  SN1q   Q3p  1 4.300000e-01    4.571000e+00
  SN1q  SQ3p  1 4.100000e-01    5.860000e+00
  SN1q  TQ3p  1 3.650000e-01    7.635000e+00
  SC6q   Q3p  1 4.300000e-01    3.963000e+00
  SC6q  SQ3p  1 4.100000e-01    4.968000e+00
  SC6q  TQ3p  1 3.650000e-01    6.538000e+00
  SC5q   Q3p  1 4.300000e-01    3.731000e+00
  SC5q  SQ3p  1 4.100000e-01    4.626000e+00
  SC5q  TQ3p  1 3.650000e-01    6.072000e+00
  SC4q   Q3p  1 4.300000e-01    3.478000e+00
  SC4q  SQ3p  1 4.100000e-01    4.218000e+00
  SC4q  TQ3p  1 3.650000e-01    5.492000e+00
  SC3q   Q3p  1 4.300000e-01    3.184000e+00
  SC3q  SQ3p  1 4.100000e-01    3.690000e+00
  SC3q  TQ3p  1 3.650000e-01    4.712000e+00
  SC2q   Q3p  1 4.300000e-01    2.380000e+00
  SC2q  SQ3p  1 4.100000e-01    2.869000e+00
  SC2q  TQ3p  1 3.940000e-01    3.456000e+00
  SC1q   Q3p  1 4.300000e-01    2.315000e+00
  SC1q  SQ3p  1 4.100000e-01    2.537000e+00
  SC1q  TQ3p  1 3.940000e-01    2.814000e+00
  SX4q   Q3p  1 4.300000e-01    3.979000e+00
  SX4q  SQ3p  1 4.100000e-01    5.049000e+00
  SX4q  TQ3p  1 3.650000e-01    6.707000e+00
  SX3q   Q3p  1 4.300000e-01    3.753000e+00
  SX3q  SQ3p  1 4.100000e-01    4.738000e+00
  SX3q  TQ3p  1 3.650000e-01    6.308000e+00
  SX2q   Q3p  1 4.300000e-01    3.497000e+00
  SX2q  SQ3p  1 4.100000e-01    4.311000e+00
  SX2q  TQ3p  1 3.650000e-01    5.687000e+00
  SX1q   Q3p  1 4.300000e-01    3.184000e+00
  SX1q  SQ3p  1 4.100000e-01    3.690000e+00
  SX1q  TQ3p  1 3.650000e-01    4.712000e+00
 SP6dq   Q3p  1 4.300000e-01    4.889000e+00
 SP6dq  SQ3p  1 4.100000e-01    6.775000e+00
 SP6dq  TQ3p  1 3.650000e-01    9.125000e+00
 SP5dq   Q3p  1 4.300000e-01    4.881000e+00
 SP5dq  SQ3p  1 4.100000e-01    6.735000e+00
 SP5dq  TQ3p  1 3.650000e-01    9.040000e+00
 SP4dq   Q3p  1 4.300000e-01    4.871000e+00
 SP4dq  SQ3p  1 4.100000e-01    6.684000e+00
 SP4dq  TQ3p  1 3.650000e-01    8.934000e+00
 SP3dq   Q3p  1 4.300000e-01    4.864000e+00
 SP3dq  SQ3p  1 4.100000e-01    6.650000e+00
 SP3dq  TQ3p  1 3.650000e-01    8.863000e+00
 SP2dq   Q3p  1 4.300000e-01    4.629000e+00
 SP2dq  SQ3p  1 4.100000e-01    6.375000e+00
 SP2dq  TQ3p  1 3.650000e-01    8.521000e+00
 SP1dq   Q3p  1 4.300000e-01    4.626000e+00
 SP1dq  SQ3p  1 4.100000e-01    6.356000e+00
 SP1dq  TQ3p  1 3.650000e-01    8.480000e+00
 SN6dq   Q3p  1 4.300000e-01    4.621000e+00
 SN6dq  SQ3p  1 4.100000e-01    6.333000e+00
 SN6dq  TQ3p  1 3.650000e-01    8.432000e+00
 SN5dq   Q3p  1 4.300000e-01    4.616000e+00
 SN5dq  SQ3p  1 4.100000e-01    6.305000e+00
 SN5dq  TQ3p  1 3.650000e-01    8.375000e+00
 SN4dq   Q3p  1 4.300000e-01    4.609000e+00
 SN4dq  SQ3p  1 4.100000e-01    6.271000e+00
 SN4dq  TQ3p  1 3.650000e-01    8.303000e+00
 SN3dq   Q3p  1 4.300000e-01    4.200000e+00
 SN3dq  SQ3p  1 4.100000e-01    5.737000e+00
 SN3dq  TQ3p  1 3.650000e-01    7.672000e+00
 SN2dq   Q3p  1 4.300000e-01    4.189000e+00
 SN2dq  SQ3p  1 4.100000e-01    5.678000e+00
 SN2dq  TQ3p  1 3.650000e-01    7.547000e+00
 SN1dq   Q3p  1 4.300000e-01    4.171000e+00
 SN1dq  SQ3p  1 4.100000e-01    5.590000e+00
 SN1dq  TQ3p  1 3.650000e-01    7.365000e+00
 SP6aq   Q3p  1 4.300000e-01    5.699000e+00
 SP6aq  SQ3p  1 4.100000e-01    7.615000e+00
 SP6aq  TQ3p  1 3.650000e-01    1.005500e+01
 SP5aq   Q3p  1 4.300000e-01    5.691000e+00
 SP5aq  SQ3p  1 4.100000e-01    7.575000e+00
 SP5aq  TQ3p  1 3.650000e-01    9.970000e+00
 SP4aq   Q3p  1 4.300000e-01    5.681000e+00
 SP4aq  SQ3p  1 4.100000e-01    7.524000e+00
 SP4aq  TQ3p  1 3.650000e-01    9.864000e+00
 SP3aq   Q3p  1 4.300000e-01    5.674000e+00
 SP3aq  SQ3p  1 4.100000e-01    7.490000e+00
 SP3aq  TQ3p  1 3.650000e-01    9.793000e+00
 SP2aq   Q3p  1 4.300000e-01    5.379000e+00
 SP2aq  SQ3p  1 4.100000e-01    7.175000e+00
 SP2aq  TQ3p  1 3.650000e-01    9.391000e+00
 SP1aq   Q3p  1 4.300000e-01    5.136000e+00
 SP1aq  SQ3p  1 4.100000e-01    6.866000e+00
 SP1aq  TQ3p  1 3.650000e-01    9.060000e+00
 SN6aq   Q3p  1 4.300000e-01    5.131000e+00
 SN6aq  SQ3p  1 4.100000e-01    6.843000e+00
 SN6aq  TQ3p  1 3.650000e-01    9.012000e+00
 SN5aq   Q3p  1 4.300000e-01    5.126000e+00
 SN5aq  SQ3p  1 4.100000e-01    6.815000e+00
 SN5aq  TQ3p  1 3.650000e-01    8.955000e+00
 SN4aq   Q3p  1 4.300000e-01    5.119000e+00
 SN4aq  SQ3p  1 4.100000e-01    6.781000e+00
 SN4aq  TQ3p  1 3.650000e-01    8.883000e+00
 SN3aq   Q3p  1 4.300000e-01    4.830000e+00
 SN3aq  SQ3p  1 4.100000e-01    6.477000e+00
 SN3aq  TQ3p  1 3.650000e-01    8.502000e+00
 SN2aq   Q3p  1 4.300000e-01    4.819000e+00
 SN2aq  SQ3p  1 4.100000e-01    6.418000e+00
 SN2aq  TQ3p  1 3.650000e-01    8.377000e+00
 SN1aq   Q3p  1 4.300000e-01    4.801000e+00
 SN1aq  SQ3p  1 4.100000e-01    6.330000e+00
 SN1aq  TQ3p  1 3.650000e-01    8.195000e+00
 SC6vq   Q3p  1 4.300000e-01    3.303000e+00
 SC6vq  SQ3p  1 4.100000e-01    4.498000e+00
 SC6vq  TQ3p  1 3.650000e-01    6.078000e+00
 SC5vq   Q3p  1 4.300000e-01    3.271000e+00
 SC5vq  SQ3p  1 4.100000e-01    4.136000e+00
 SC5vq  TQ3p  1 3.650000e-01    5.642000e+00
 SC4vq   Q3p  1 4.300000e-01    2.848000e+00
 SC4vq  SQ3p  1 4.100000e-01    3.818000e+00
 SC4vq  TQ3p  1 3.650000e-01    5.132000e+00
 SC3vq   Q3p  1 4.300000e-01    2.584000e+00
 SC3vq  SQ3p  1 4.100000e-01    3.380000e+00
 SC3vq  TQ3p  1 3.660000e-01    4.394000e+00
 SC2vq   Q3p  1 4.430000e-01    1.694000e+00
 SC2vq  SQ3p  1 4.180000e-01    2.497000e+00
 SC2vq  TQ3p  1 4.090000e-01    3.167000e+00
 SC1vq   Q3p  1 4.430000e-01    1.630000e+00
 SC1vq  SQ3p  1 4.180000e-01    2.172000e+00
 SC1vq  TQ3p  1 4.090000e-01    2.548000e+00
 SX4vq   Q3p  1 4.300000e-01    3.319000e+00
 SX4vq  SQ3p  1 4.100000e-01    4.579000e+00
 SX4vq  TQ3p  1 3.650000e-01    6.247000e+00
 SX3vq   Q3p  1 4.300000e-01    3.293000e+00
 SX3vq  SQ3p  1 4.100000e-01    4.248000e+00
 SX3vq  TQ3p  1 3.650000e-01    5.878000e+00
 SX2vq   Q3p  1 4.300000e-01    2.867000e+00
 SX2vq  SQ3p  1 4.100000e-01    3.911000e+00
 SX2vq  TQ3p  1 3.650000e-01    5.327000e+00
 SX1vq   Q3p  1 4.300000e-01    2.584000e+00
 SX1vq  SQ3p  1 4.100000e-01    3.380000e+00
 SX1vq  TQ3p  1 3.660000e-01    4.394000e+00
 SC6eq   Q3p  1 4.300000e-01    3.963000e+00
 SC6eq  SQ3p  1 4.100000e-01    5.208000e+00
 SC6eq  TQ3p  1 3.650000e-01    6.798000e+00
 SC5eq   Q3p  1 4.300000e-01    3.731000e+00
 SC5eq  SQ3p  1 4.100000e-01    4.856000e+00
 SC5eq  TQ3p  1 3.650000e-01    6.302000e+00
 SC4eq   Q3p  1 4.300000e-01    3.478000e+00
 SC4eq  SQ3p  1 4.100000e-01    4.458000e+00
 SC4eq  TQ3p  1 3.650000e-01    5.722000e+00
 SC3eq   Q3p  1 4.300000e-01    3.194000e+00
 SC3eq  SQ3p  1 4.100000e-01    3.940000e+00
 SC3eq  TQ3p  1 3.650000e-01    4.912000e+00
 SC2eq   Q3p  1 4.300000e-01    2.380000e+00
 SC2eq  SQ3p  1 4.100000e-01    3.029000e+00
 SC2eq  TQ3p  1 3.780000e-01    3.708000e+00
 SC1eq   Q3p  1 4.300000e-01    2.315000e+00
 SC1eq  SQ3p  1 4.100000e-01    2.697000e+00
 SC1eq  TQ3p  1 3.780000e-01    3.038000e+00
 SX4eq   Q3p  1 4.300000e-01    3.979000e+00
 SX4eq  SQ3p  1 4.100000e-01    5.289000e+00
 SX4eq  TQ3p  1 3.650000e-01    6.967000e+00
 SX3eq   Q3p  1 4.300000e-01    3.753000e+00
 SX3eq  SQ3p  1 4.100000e-01    4.968000e+00
 SX3eq  TQ3p  1 3.650000e-01    6.538000e+00
 SX2eq   Q3p  1 4.300000e-01    3.497000e+00
 SX2eq  SQ3p  1 4.100000e-01    4.551000e+00
 SX2eq  TQ3p  1 3.650000e-01    5.917000e+00
 SX1eq   Q3p  1 4.300000e-01    3.194000e+00
 SX1eq  SQ3p  1 4.100000e-01    3.940000e+00
 SX1eq  TQ3p  1 3.650000e-01    4.912000e+00
  SP6h   Q3p  1 4.300000e-01    4.659000e+00
  SP6h  SQ3p  1 4.100000e-01    6.305000e+00
  SP6h  TQ3p  1 3.650000e-01    8.565000e+00
  SP5h   Q3p  1 4.300000e-01    4.651000e+00
  SP5h  SQ3p  1 4.100000e-01    6.265000e+00
  SP5h  TQ3p  1 3.650000e-01    8.480000e+00
  SP4h   Q3p  1 4.300000e-01    4.641000e+00
  SP4h  SQ3p  1 4.100000e-01    6.214000e+00
  SP4h  TQ3p  1 3.650000e-01    8.374000e+00
  SP3h   Q3p  1 4.300000e-01    4.634000e+00
  SP3h  SQ3p  1 4.100000e-01    6.180000e+00
  SP3h  TQ3p  1 3.650000e-01    8.303000e+00
  SP2h   Q3p  1 4.300000e-01    4.429000e+00
  SP2h  SQ3p  1 4.100000e-01    5.885000e+00
  SP2h  TQ3p  1 3.650000e-01    7.981000e+00
  SP1h   Q3p  1 4.300000e-01    4.226000e+00
  SP1h  SQ3p  1 4.100000e-01    5.626000e+00
  SP1h  TQ3p  1 3.650000e-01    7.670000e+00
  SN6h   Q3p  1 4.300000e-01    4.221000e+00
  SN6h  SQ3p  1 4.100000e-01    5.603000e+00
  SN6h  TQ3p  1 3.650000e-01    7.622000e+00
  SN5h   Q3p  1 4.300000e-01    4.216000e+00
  SN5h  SQ3p  1 4.100000e-01    5.575000e+00
  SN5h  TQ3p  1 3.650000e-01    7.565000e+00
  SN4h   Q3p  1 4.300000e-01    4.209000e+00
  SN4h  SQ3p  1 4.100000e-01    5.541000e+00
  SN4h  TQ3p  1 3.650000e-01    7.493000e+00
  SN3h   Q3p  1 4.300000e-01    4.020000e+00
  SN3h  SQ3p  1 4.100000e-01    5.257000e+00
  SN3h  TQ3p  1 3.650000e-01    7.142000e+00
  SN2h   Q3p  1 4.300000e-01    4.009000e+00
  SN2h  SQ3p  1 4.100000e-01    5.198000e+00
  SN2h  TQ3p  1 3.650000e-01    7.017000e+00
  SN1h   Q3p  1 4.300000e-01    3.991000e+00
  SN1h  SQ3p  1 4.100000e-01    5.110000e+00
  SN1h  TQ3p  1 3.650000e-01    6.835000e+00
  SC6h   Q3p  1 4.300000e-01    3.293000e+00
  SC6h  SQ3p  1 4.100000e-01    4.248000e+00
  SC6h  TQ3p  1 3.650000e-01    5.878000e+00
  SC5h   Q3p  1 4.300000e-01    3.121000e+00
  SC5h  SQ3p  1 4.100000e-01    3.986000e+00
  SC5h  TQ3p  1 3.650000e-01    5.482000e+00
  SC4h   Q3p  1 4.300000e-01    2.848000e+00
  SC4h  SQ3p  1 4.100000e-01    3.658000e+00
  SC4h  TQ3p  1 3.660000e-01    4.973000e+00
  SC3h   Q3p  1 4.300000e-01    2.584000e+00
  SC3h  SQ3p  1 4.100000e-01    3.250000e+00
  SC3h  TQ3p  1 3.780000e-01    4.155000e+00
  SC2h   Q3p  1 4.430000e-01    1.694000e+00
  SC2h  SQ3p  1 4.210000e-01    2.340000e+00
  SC2h  TQ3p  1 4.230000e-01    2.999000e+00
  SC1h   Q3p  1 4.430000e-01    1.630000e+00
  SC1h  SQ3p  1 4.210000e-01    2.016000e+00
  SC1h  TQ3p  1 4.230000e-01    2.400000e+00
  SX4h   Q3p  1 4.300000e-01    3.309000e+00
  SX4h  SQ3p  1 4.100000e-01    4.329000e+00
  SX4h  TQ3p  1 3.650000e-01    6.047000e+00
  SX3h   Q3p  1 4.300000e-01    3.143000e+00
  SX3h  SQ3p  1 4.100000e-01    4.098000e+00
  SX3h  TQ3p  1 3.650000e-01    5.718000e+00
  SX2h   Q3p  1 4.300000e-01    2.867000e+00
  SX2h  SQ3p  1 4.100000e-01    3.751000e+00
  SX2h  TQ3p  1 3.660000e-01    5.167000e+00
  SX1h   Q3p  1 4.300000e-01    2.584000e+00
  SX1h  SQ3p  1 4.100000e-01    3.250000e+00
  SX1h  TQ3p  1 3.780000e-01    4.155000e+00
 SP6dh   Q3p  1 4.300000e-01    4.259000e+00
 SP6dh  SQ3p  1 4.100000e-01    6.035000e+00
 SP6dh  TQ3p  1 3.650000e-01    8.295000e+00
 SP5dh   Q3p  1 4.300000e-01    4.251000e+00
 SP5dh  SQ3p  1 4.100000e-01    5.995000e+00
 SP5dh  TQ3p  1 3.650000e-01    8.210000e+00
 SP4dh   Q3p  1 4.300000e-01    4.241000e+00
 SP4dh  SQ3p  1 4.100000e-01    5.944000e+00
 SP4dh  TQ3p  1 3.650000e-01    8.104000e+00
 SP3dh   Q3p  1 4.300000e-01    4.234000e+00
 SP3dh  SQ3p  1 4.100000e-01    5.910000e+00
 SP3dh  TQ3p  1 3.650000e-01    8.033000e+00
 SP2dh   Q3p  1 4.300000e-01    4.049000e+00
 SP2dh  SQ3p  1 4.100000e-01    5.645000e+00
 SP2dh  TQ3p  1 3.650000e-01    7.711000e+00
 SP1dh   Q3p  1 4.300000e-01    4.046000e+00
 SP1dh  SQ3p  1 4.100000e-01    5.626000e+00
 SP1dh  TQ3p  1 3.650000e-01    7.670000e+00
 SN6dh   Q3p  1 4.300000e-01    4.041000e+00
 SN6dh  SQ3p  1 4.100000e-01    5.603000e+00
 SN6dh  TQ3p  1 3.650000e-01    7.622000e+00
 SN5dh   Q3p  1 4.300000e-01    4.036000e+00
 SN5dh  SQ3p  1 4.100000e-01    5.575000e+00
 SN5dh  TQ3p  1 3.650000e-01    7.565000e+00
 SN4dh   Q3p  1 4.300000e-01    4.029000e+00
 SN4dh  SQ3p  1 4.100000e-01    5.541000e+00
 SN4dh  TQ3p  1 3.650000e-01    7.493000e+00
 SN3dh   Q3p  1 4.300000e-01    3.590000e+00
 SN3dh  SQ3p  1 4.100000e-01    5.027000e+00
 SN3dh  TQ3p  1 3.650000e-01    6.912000e+00
 SN2dh   Q3p  1 4.300000e-01    3.579000e+00
 SN2dh  SQ3p  1 4.100000e-01    4.968000e+00
 SN2dh  TQ3p  1 3.650000e-01    6.787000e+00
 SN1dh   Q3p  1 4.300000e-01    3.561000e+00
 SN1dh  SQ3p  1 4.100000e-01    4.880000e+00
 SN1dh  TQ3p  1 3.650000e-01    6.605000e+00
 SP6ah   Q3p  1 4.300000e-01    4.889000e+00
 SP6ah  SQ3p  1 4.100000e-01    6.775000e+00
 SP6ah  TQ3p  1 3.650000e-01    9.125000e+00
 SP5ah   Q3p  1 4.300000e-01    4.881000e+00
 SP5ah  SQ3p  1 4.100000e-01    6.735000e+00
 SP5ah  TQ3p  1 3.650000e-01    9.040000e+00
 SP4ah   Q3p  1 4.300000e-01    4.871000e+00
 SP4ah  SQ3p  1 4.100000e-01    6.684000e+00
 SP4ah  TQ3p  1 3.650000e-01    8.934000e+00
 SP3ah   Q3p  1 4.300000e-01    4.864000e+00
 SP3ah  SQ3p  1 4.100000e-01    6.650000e+00
 SP3ah  TQ3p  1 3.650000e-01    8.863000e+00
 SP2ah   Q3p  1 4.300000e-01    4.629000e+00
 SP2ah  SQ3p  1 4.100000e-01    6.375000e+00
 SP2ah  TQ3p  1 3.650000e-01    8.521000e+00
 SP1ah   Q3p  1 4.300000e-01    4.426000e+00
 SP1ah  SQ3p  1 4.100000e-01    6.136000e+00
 SP1ah  TQ3p  1 3.650000e-01    8.210000e+00
 SN6ah   Q3p  1 4.300000e-01    4.421000e+00
 SN6ah  SQ3p  1 4.100000e-01    6.113000e+00
 SN6ah  TQ3p  1 3.650000e-01    8.162000e+00
 SN5ah   Q3p  1 4.300000e-01    4.416000e+00
 SN5ah  SQ3p  1 4.100000e-01    6.085000e+00
 SN5ah  TQ3p  1 3.650000e-01    8.105000e+00
 SN4ah   Q3p  1 4.300000e-01    4.409000e+00
 SN4ah  SQ3p  1 4.100000e-01    6.051000e+00
 SN4ah  TQ3p  1 3.650000e-01    8.033000e+00
 SN3ah   Q3p  1 4.300000e-01    4.200000e+00
 SN3ah  SQ3p  1 4.100000e-01    5.737000e+00
 SN3ah  TQ3p  1 3.650000e-01    7.672000e+00
 SN2ah   Q3p  1 4.300000e-01    4.189000e+00
 SN2ah  SQ3p  1 4.100000e-01    5.678000e+00
 SN2ah  TQ3p  1 3.650000e-01    7.547000e+00
 SN1ah   Q3p  1 4.300000e-01    4.171000e+00
 SN1ah  SQ3p  1 4.100000e-01    5.590000e+00
 SN1ah  TQ3p  1 3.650000e-01    7.365000e+00
 SC6vh   Q3p  1 4.300000e-01    2.693000e+00
 SC6vh  SQ3p  1 4.100000e-01    3.938000e+00
 SC6vh  TQ3p  1 3.660000e-01    5.557000e+00
 SC5vh   Q3p  1 4.300000e-01    2.511000e+00
 SC5vh  SQ3p  1 4.100000e-01    3.696000e+00
 SC5vh  TQ3p  1 3.780000e-01    5.054000e+00
 SC4vh   Q3p  1 4.300000e-01    2.248000e+00
 SC4vh  SQ3p  1 4.100000e-01    3.368000e+00
 SC4vh  TQ3p  1 3.940000e-01    4.423000e+00
 SC3vh   Q3p  1 4.300000e-01    1.994000e+00
 SC3vh  SQ3p  1 4.140000e-01    2.887000e+00
 SC3vh  TQ3p  1 4.040000e-01    3.661000e+00
 SC2vh   Q3p  1 5.140000e-01    1.294000e+00
 SC2vh  SQ3p  1 4.960000e-01    1.975000e+00
 SC2vh  TQ3p  1 5.370000e-01    2.398000e+00
 SC1vh   Q3p  1 5.140000e-01    1.240000e+00
 SC1vh  SQ3p  1 4.960000e-01    1.701000e+00
 SC1vh  TQ3p  1 5.370000e-01    1.926000e+00
 SX4vh   Q3p  1 4.300000e-01    2.709000e+00
 SX4vh  SQ3p  1 4.100000e-01    4.019000e+00
 SX4vh  TQ3p  1 3.660000e-01    5.725000e+00
 SX3vh   Q3p  1 4.300000e-01    2.533000e+00
 SX3vh  SQ3p  1 4.100000e-01    3.808000e+00
 SX3vh  TQ3p  1 3.780000e-01    5.281000e+00
 SX2vh   Q3p  1 4.300000e-01    2.267000e+00
 SX2vh  SQ3p  1 4.100000e-01    3.461000e+00
 SX2vh  TQ3p  1 3.940000e-01    4.603000e+00
 SX1vh   Q3p  1 4.300000e-01    1.994000e+00
 SX1vh  SQ3p  1 4.140000e-01    2.887000e+00
 SX1vh  TQ3p  1 4.040000e-01    3.661000e+00
 SC6eh   Q3p  1 4.300000e-01    3.303000e+00
 SC6eh  SQ3p  1 4.100000e-01    4.498000e+00
 SC6eh  TQ3p  1 3.650000e-01    6.078000e+00
 SC5eh   Q3p  1 4.300000e-01    3.271000e+00
 SC5eh  SQ3p  1 4.100000e-01    4.136000e+00
 SC5eh  TQ3p  1 3.650000e-01    5.642000e+00
 SC4eh   Q3p  1 4.300000e-01    2.848000e+00
 SC4eh  SQ3p  1 4.100000e-01    3.818000e+00
 SC4eh  TQ3p  1 3.650000e-01    5.132000e+00
 SC3eh   Q3p  1 4.300000e-01    2.584000e+00
 SC3eh  SQ3p  1 4.100000e-01    3.380000e+00
 SC3eh  TQ3p  1 3.660000e-01    4.394000e+00
 SC2eh   Q3p  1 4.430000e-01    1.694000e+00
 SC2eh  SQ3p  1 4.180000e-01    2.497000e+00
 SC2eh  TQ3p  1 4.090000e-01    3.167000e+00
 SC1eh   Q3p  1 4.430000e-01    1.630000e+00
 SC1eh  SQ3p  1 4.180000e-01    2.172000e+00
 SC1eh  TQ3p  1 4.090000e-01    2.548000e+00
 SX4eh   Q3p  1 4.300000e-01    3.319000e+00
 SX4eh  SQ3p  1 4.100000e-01    4.579000e+00
 SX4eh  TQ3p  1 3.650000e-01    6.247000e+00
 SX3eh   Q3p  1 4.300000e-01    3.293000e+00
 SX3eh  SQ3p  1 4.100000e-01    4.248000e+00
 SX3eh  TQ3p  1 3.650000e-01    5.878000e+00
 SX2eh   Q3p  1 4.300000e-01    2.867000e+00
 SX2eh  SQ3p  1 4.100000e-01    3.911000e+00
 SX2eh  TQ3p  1 3.650000e-01    5.327000e+00
 SX1eh   Q3p  1 4.300000e-01    2.584000e+00
 SX1eh  SQ3p  1 4.100000e-01    3.380000e+00
 SX1eh  TQ3p  1 3.660000e-01    4.394000e+00
  SP6r   Q3p  1 4.300000e-01    4.659000e+00
  SP6r  SQ3p  1 4.100000e-01    6.305000e+00
  SP6r  TQ3p  1 3.650000e-01    8.565000e+00
  SP5r   Q3p  1 4.300000e-01    4.651000e+00
  SP5r  SQ3p  1 4.100000e-01    6.265000e+00
  SP5r  TQ3p  1 3.650000e-01    8.480000e+00
  SP4r   Q3p  1 4.300000e-01    4.641000e+00
  SP4r  SQ3p  1 4.100000e-01    6.214000e+00
  SP4r  TQ3p  1 3.650000e-01    8.374000e+00
  SP3r   Q3p  1 4.300000e-01    4.634000e+00
  SP3r  SQ3p  1 4.100000e-01    6.180000e+00
  SP3r  TQ3p  1 3.650000e-01    8.303000e+00
  SP2r   Q3p  1 4.300000e-01    4.429000e+00
  SP2r  SQ3p  1 4.100000e-01    5.885000e+00
  SP2r  TQ3p  1 3.650000e-01    7.981000e+00
  SP1r   Q3p  1 4.300000e-01    4.226000e+00
  SP1r  SQ3p  1 4.100000e-01    5.626000e+00
  SP1r  TQ3p  1 3.650000e-01    7.670000e+00
  SN6r   Q3p  1 4.300000e-01    4.221000e+00
  SN6r  SQ3p  1 4.100000e-01    5.603000e+00
  SN6r  TQ3p  1 3.650000e-01    7.622000e+00
  SN5r   Q3p  1 4.300000e-01    4.216000e+00
  SN5r  SQ3p  1 4.100000e-01    5.575000e+00
  SN5r  TQ3p  1 3.650000e-01    7.565000e+00
  SN4r   Q3p  1 4.300000e-01    4.209000e+00
  SN4r  SQ3p  1 4.100000e-01    5.541000e+00
  SN4r  TQ3p  1 3.650000e-01    7.493000e+00
  SN3r   Q3p  1 4.300000e-01    4.020000e+00
  SN3r  SQ3p  1 4.100000e-01    5.257000e+00
  SN3r  TQ3p  1 3.650000e-01    7.142000e+00
  SN2r   Q3p  1 4.300000e-01    4.009000e+00
  SN2r  SQ3p  1 4.100000e-01    5.198000e+00
  SN2r  TQ3p  1 3.650000e-01    7.017000e+00
  SN1r   Q3p  1 4.300000e-01    3.991000e+00
  SN1r  SQ3p  1 4.100000e-01    5.110000e+00
  SN1r  TQ3p  1 3.650000e-01    6.835000e+00
  SC6r   Q3p  1 4.300000e-01    3.293000e+00
  SC6r  SQ3p  1 4.100000e-01    4.248000e+00
  SC6r  TQ3p  1 3.650000e-01    5.878000e+00
  SC5r   Q3p  1 4.300000e-01    3.121000e+00
  SC5r  SQ3p  1 4.100000e-01    3.986000e+00
  SC5r  TQ3p  1 3.650000e-01    5.482000e+00
  SC4r   Q3p  1 4.300000e-01    2.848000e+00
  SC4r  SQ3p  1 4.100000e-01    3.658000e+00
  SC4r  TQ3p  1 3.660000e-01    4.973000e+00
  SC3r   Q3p  1 4.300000e-01    2.584000e+00
  SC3r  SQ3p  1 4.100000e-01    3.250000e+00
  SC3r  TQ3p  1 3.780000e-01    4.155000e+00
  SC2r   Q3p  1 4.430000e-01    1.694000e+00
  SC2r  SQ3p  1 4.210000e-01    2.340000e+00
  SC2r  TQ3p  1 4.230000e-01    2.999000e+00
  SC1r   Q3p  1 4.430000e-01    1.630000e+00
  SC1r  SQ3p  1 4.210000e-01    2.016000e+00
  SC1r  TQ3p  1 4.230000e-01    2.400000e+00
  SX4r   Q3p  1 4.300000e-01    3.309000e+00
  SX4r  SQ3p  1 4.100000e-01    4.329000e+00
  SX4r  TQ3p  1 3.650000e-01    6.047000e+00
  SX3r   Q3p  1 4.300000e-01    3.143000e+00
  SX3r  SQ3p  1 4.100000e-01    4.098000e+00
  SX3r  TQ3p  1 3.650000e-01    5.718000e+00
  SX2r   Q3p  1 4.300000e-01    2.867000e+00
  SX2r  SQ3p  1 4.100000e-01    3.751000e+00
  SX2r  TQ3p  1 3.660000e-01    5.167000e+00
  SX1r   Q3p  1 4.300000e-01    2.584000e+00
  SX1r  SQ3p  1 4.100000e-01    3.250000e+00
  SX1r  TQ3p  1 3.780000e-01    4.155000e+00
 SP6dr   Q3p  1 4.300000e-01    4.259000e+00
 SP6dr  SQ3p  1 4.100000e-01    6.035000e+00
 SP6dr  TQ3p  1 3.650000e-01    8.295000e+00
 SP5dr   Q3p  1 4.300000e-01    4.251000e+00
 SP5dr  SQ3p  1 4.100000e-01    5.995000e+00
 SP5dr  TQ3p  1 3.650000e-01    8.210000e+00
 SP4dr   Q3p  1 4.300000e-01    4.241000e+00
 SP4dr  SQ3p  1 4.100000e-01    5.944000e+00
 SP4dr  TQ3p  1 3.650000e-01    8.104000e+00
 SP3dr   Q3p  1 4.300000e-01    4.234000e+00
 SP3dr  SQ3p  1 4.100000e-01    5.910000e+00
 SP3dr  TQ3p  1 3.650000e-01    8.033000e+00
 SP2dr   Q3p  1 4.300000e-01    4.049000e+00
 SP2dr  SQ3p  1 4.100000e-01    5.645000e+00
 SP2dr  TQ3p  1 3.650000e-01    7.711000e+00
 SP1dr   Q3p  1 4.300000e-01    4.046000e+00
 SP1dr  SQ3p  1 4.100000e-01    5.626000e+00
 SP1dr  TQ3p  1 3.650000e-01    7.670000e+00
 SN6dr   Q3p  1 4.300000e-01    4.041000e+00
 SN6dr  SQ3p  1 4.100000e-01    5.603000e+00
 SN6dr  TQ3p  1 3.650000e-01    7.622000e+00
 SN5dr   Q3p  1 4.300000e-01    4.036000e+00
 SN5dr  SQ3p  1 4.100000e-01    5.575000e+00
 SN5dr  TQ3p  1 3.650000e-01    7.565000e+00
 SN4dr   Q3p  1 4.300000e-01    4.029000e+00
 SN4dr  SQ3p  1 4.100000e-01    5.541000e+00
 SN4dr  TQ3p  1 3.650000e-01    7.493000e+00
 SN3dr   Q3p  1 4.300000e-01    3.590000e+00
 SN3dr  SQ3p  1 4.100000e-01    5.027000e+00
 SN3dr  TQ3p  1 3.650000e-01    6.912000e+00
 SN2dr   Q3p  1 4.300000e-01    3.579000e+00
 SN2dr  SQ3p  1 4.100000e-01    4.968000e+00
 SN2dr  TQ3p  1 3.650000e-01    6.787000e+00
 SN1dr   Q3p  1 4.300000e-01    3.561000e+00
 SN1dr  SQ3p  1 4.100000e-01    4.880000e+00
 SN1dr  TQ3p  1 3.650000e-01    6.605000e+00
 SP6ar   Q3p  1 4.300000e-01    4.889000e+00
 SP6ar  SQ3p  1 4.100000e-01    6.775000e+00
 SP6ar  TQ3p  1 3.650000e-01    9.125000e+00
 SP5ar   Q3p  1 4.300000e-01    4.881000e+00
 SP5ar  SQ3p  1 4.100000e-01    6.735000e+00
 SP5ar  TQ3p  1 3.650000e-01    9.040000e+00
 SP4ar   Q3p  1 4.300000e-01    4.871000e+00
 SP4ar  SQ3p  1 4.100000e-01    6.684000e+00
 SP4ar  TQ3p  1 3.650000e-01    8.934000e+00
 SP3ar   Q3p  1 4.300000e-01    4.864000e+00
 SP3ar  SQ3p  1 4.100000e-01    6.650000e+00
 SP3ar  TQ3p  1 3.650000e-01    8.863000e+00
 SP2ar   Q3p  1 4.300000e-01    4.629000e+00
 SP2ar  SQ3p  1 4.100000e-01    6.375000e+00
 SP2ar  TQ3p  1 3.650000e-01    8.521000e+00
 SP1ar   Q3p  1 4.300000e-01    4.426000e+00
 SP1ar  SQ3p  1 4.100000e-01    6.136000e+00
 SP1ar  TQ3p  1 3.650000e-01    8.210000e+00
 SN6ar   Q3p  1 4.300000e-01    4.421000e+00
 SN6ar  SQ3p  1 4.100000e-01    6.113000e+00
 SN6ar  TQ3p  1 3.650000e-01    8.162000e+00
 SN5ar   Q3p  1 4.300000e-01    4.416000e+00
 SN5ar  SQ3p  1 4.100000e-01    6.085000e+00
 SN5ar  TQ3p  1 3.650000e-01    8.105000e+00
 SN4ar   Q3p  1 4.300000e-01    4.409000e+00
 SN4ar  SQ3p  1 4.100000e-01    6.051000e+00
 SN4ar  TQ3p  1 3.650000e-01    8.033000e+00
 SN3ar   Q3p  1 4.300000e-01    4.200000e+00
 SN3ar  SQ3p  1 4.100000e-01    5.737000e+00
 SN3ar  TQ3p  1 3.650000e-01    7.672000e+00
 SN2ar   Q3p  1 4.300000e-01    4.189000e+00
 SN2ar  SQ3p  1 4.100000e-01    5.678000e+00
 SN2ar  TQ3p  1 3.650000e-01    7.547000e+00
 SN1ar   Q3p  1 4.300000e-01    4.171000e+00
 SN1ar  SQ3p  1 4.100000e-01    5.590000e+00
 SN1ar  TQ3p  1 3.650000e-01    7.365000e+00
 SC6vr   Q3p  1 4.300000e-01    2.693000e+00
 SC6vr  SQ3p  1 4.100000e-01    3.938000e+00
 SC6vr  TQ3p  1 3.660000e-01    5.557000e+00
 SC5vr   Q3p  1 4.300000e-01    2.511000e+00
 SC5vr  SQ3p  1 4.100000e-01    3.696000e+00
 SC5vr  TQ3p  1 3.780000e-01    5.054000e+00
 SC4vr   Q3p  1 4.300000e-01    2.248000e+00
 SC4vr  SQ3p  1 4.100000e-01    3.368000e+00
 SC4vr  TQ3p  1 3.940000e-01    4.423000e+00
 SC3vr   Q3p  1 4.300000e-01    1.994000e+00
 SC3vr  SQ3p  1 4.140000e-01    2.887000e+00
 SC3vr  TQ3p  1 4.040000e-01    3.661000e+00
 SC2vr   Q3p  1 5.140000e-01    1.294000e+00
 SC2vr  SQ3p  1 4.960000e-01    1.975000e+00
 SC2vr  TQ3p  1 5.370000e-01    2.398000e+00
 SC1vr   Q3p  1 5.140000e-01    1.240000e+00
 SC1vr  SQ3p  1 4.960000e-01    1.701000e+00
 SC1vr  TQ3p  1 5.370000e-01    1.926000e+00
 SX4vr   Q3p  1 4.300000e-01    2.709000e+00
 SX4vr  SQ3p  1 4.100000e-01    4.019000e+00
 SX4vr  TQ3p  1 3.660000e-01    5.725000e+00
 SX3vr   Q3p  1 4.300000e-01    2.533000e+00
 SX3vr  SQ3p  1 4.100000e-01    3.808000e+00
 SX3vr  TQ3p  1 3.780000e-01    5.281000e+00
 SX2vr   Q3p  1 4.300000e-01    2.267000e+00
 SX2vr  SQ3p  1 4.100000e-01    3.461000e+00
 SX2vr  TQ3p  1 3.940000e-01    4.603000e+00
 SX1vr   Q3p  1 4.300000e-01    1.994000e+00
 SX1vr  SQ3p  1 4.140000e-01    2.887000e+00
 SX1vr  TQ3p  1 4.040000e-01    3.661000e+00
 SC6er   Q3p  1 4.300000e-01    3.303000e+00
 SC6er  SQ3p  1 4.100000e-01    4.498000e+00
 SC6er  TQ3p  1 3.650000e-01    6.078000e+00
 SC5er   Q3p  1 4.300000e-01    3.271000e+00
 SC5er  SQ3p  1 4.100000e-01    4.136000e+00
 SC5er  TQ3p  1 3.650000e-01    5.642000e+00
 SC4er   Q3p  1 4.300000e-01    2.848000e+00
 SC4er  SQ3p  1 4.100000e-01    3.818000e+00
 SC4er  TQ3p  1 3.650000e-01    5.132000e+00
 SC3er   Q3p  1 4.300000e-01    2.584000e+00
 SC3er  SQ3p  1 4.100000e-01    3.380000e+00
 SC3er  TQ3p  1 3.660000e-01    4.394000e+00
 SC2er   Q3p  1 4.430000e-01    1.694000e+00
 SC2er  SQ3p  1 4.180000e-01    2.497000e+00
 SC2er  TQ3p  1 4.090000e-01    3.167000e+00
 SC1er   Q3p  1 4.430000e-01    1.630000e+00
 SC1er  SQ3p  1 4.180000e-01    2.172000e+00
 SC1er  TQ3p  1 4.090000e-01    2.548000e+00
 SX4er   Q3p  1 4.300000e-01    3.319000e+00
 SX4er  SQ3p  1 4.100000e-01    4.579000e+00
 SX4er  TQ3p  1 3.650000e-01    6.247000e+00
 SX3er   Q3p  1 4.300000e-01    3.293000e+00
 SX3er  SQ3p  1 4.100000e-01    4.248000e+00
 SX3er  TQ3p  1 3.650000e-01    5.878000e+00
 SX2er   Q3p  1 4.300000e-01    2.867000e+00
 SX2er  SQ3p  1 4.100000e-01    3.911000e+00
 SX2er  TQ3p  1 3.650000e-01    5.327000e+00
 SX1er   Q3p  1 4.300000e-01    2.584000e+00
 SX1er  SQ3p  1 4.100000e-01    3.380000e+00
 SX1er  TQ3p  1 3.660000e-01    4.394000e+00
   TP6   Q3p  1 3.950000e-01    4.076000e+00
   TP6  SQ3p  1 3.650000e-01    5.596000e+00
   TP6  TQ3p  1 3.400000e-01    7.887000e+00
   TP5   Q3p  1 3.950000e-01    4.070000e+00
   TP5  SQ3p  1 3.650000e-01    5.566000e+00
   TP5  TQ3p  1 3.400000e-01    7.822000e+00
   TP4   Q3p  1 3.950000e-01    4.063000e+00
   TP4  SQ3p  1 3.650000e-01    5.528000e+00
   TP4  TQ3p  1 3.400000e-01    7.738000e+00
   TP3   Q3p  1 3.950000e-01    4.059000e+00
   TP3  SQ3p  1 3.650000e-01    5.502000e+00
   TP3  TQ3p  1 3.400000e-01    7.681000e+00
   TP2   Q3p  1 3.950000e-01    3.815000e+00
   TP2  SQ3p  1 3.650000e-01    5.213000e+00
   TP2  TQ3p  1 3.400000e-01    7.389000e+00
   TP1   Q3p  1 3.950000e-01    3.572000e+00
   TP1  SQ3p  1 3.650000e-01    4.928000e+00
   TP1  TQ3p  1 3.400000e-01    7.115000e+00
   TN6   Q3p  1 3.950000e-01    3.569000e+00
   TN6  SQ3p  1 3.650000e-01    4.910000e+00
   TN6  TQ3p  1 3.400000e-01    7.075000e+00
   TN5   Q3p  1 3.950000e-01    3.565000e+00
   TN5  SQ3p  1 3.650000e-01    4.888000e+00
   TN5  TQ3p  1 3.400000e-01    7.027000e+00
   TN4   Q3p  1 3.950000e-01    3.560000e+00
   TN4  SQ3p  1 3.650000e-01    4.861000e+00
   TN4  TQ3p  1 3.400000e-01    6.968000e+00
   TN3   Q3p  1 3.950000e-01    3.304000e+00
   TN3  SQ3p  1 3.650000e-01    4.566000e+00
   TN3  TQ3p  1 3.400000e-01    6.671000e+00
   TN2   Q3p  1 3.950000e-01    3.295000e+00
   TN2  SQ3p  1 3.650000e-01    4.518000e+00
   TN2  TQ3p  1 3.400000e-01    6.565000e+00
   TN1   Q3p  1 3.950000e-01    3.282000e+00
   TN1  SQ3p  1 3.650000e-01    4.448000e+00
   TN1  TQ3p  1 3.400000e-01    6.411000e+00
   TC6   Q3p  1 3.950000e-01    2.631000e+00
   TC6  SQ3p  1 3.650000e-01    3.673000e+00
   TC6  TQ3p  1 3.400000e-01    5.388000e+00
   TC5   Q3p  1 3.950000e-01    2.415000e+00
   TC5  SQ3p  1 3.650000e-01    3.421000e+00
   TC5  TQ3p  1 3.400000e-01    4.907000e+00
   TC4   Q3p  1 3.950000e-01    2.130000e+00
   TC4  SQ3p  1 3.660000e-01    3.131000e+00
   TC4  TQ3p  1 3.520000e-01    4.313000e+00
   TC3   Q3p  1 3.950000e-01    1.909000e+00
   TC3  SQ3p  1 3.780000e-01    2.715000e+00
   TC3  TQ3p  1 3.660000e-01    3.612000e+00
   TC2   Q3p  1 4.040000e-01    1.031000e+00
   TC2  SQ3p  1 4.230000e-01    1.956000e+00
   TC2  TQ3p  1 4.380000e-01    2.660000e+00
   TC1   Q3p  1 4.040000e-01    9.830000e-01
   TC1  SQ3p  1 4.230000e-01    1.723000e+00
   TC1  TQ3p  1 4.380000e-01    2.199000e+00
   TX4   Q3p  1 3.950000e-01    2.643000e+00
   TX4  SQ3p  1 3.650000e-01    3.738000e+00
   TX4  TQ3p  1 3.400000e-01    5.532000e+00
   TX3   Q3p  1 3.950000e-01    2.431000e+00
   TX3  SQ3p  1 3.650000e-01    3.513000e+00
   TX3  TQ3p  1 3.400000e-01    5.108000e+00
   TX2   Q3p  1 3.950000e-01    2.144000e+00
   TX2  SQ3p  1 3.660000e-01    3.206000e+00
   TX2  TQ3p  1 3.520000e-01    4.473000e+00
   TX1   Q3p  1 3.950000e-01    1.909000e+00
   TX1  SQ3p  1 3.780000e-01    2.715000e+00
   TX1  TQ3p  1 3.660000e-01    3.612000e+00
  TP6d   Q3p  1 3.950000e-01    3.836000e+00
  TP6d  SQ3p  1 3.650000e-01    5.326000e+00
  TP6d  TQ3p  1 3.400000e-01    7.637000e+00
  TP5d   Q3p  1 3.950000e-01    3.830000e+00
  TP5d  SQ3p  1 3.650000e-01    5.296000e+00
  TP5d  TQ3p  1 3.400000e-01    7.572000e+00
  TP4d   Q3p  1 3.950000e-01    3.823000e+00
  TP4d  SQ3p  1 3.650000e-01    5.258000e+00
  TP4d  TQ3p  1 3.400000e-01    7.488000e+00
  TP3d   Q3p  1 3.950000e-01    3.819000e+00
  TP3d  SQ3p  1 3.650000e-01    5.232000e+00
  TP3d  TQ3p  1 3.400000e-01    7.431000e+00
  TP2d   Q3p  1 3.950000e-01    3.575000e+00
  TP2d  SQ3p  1 3.650000e-01    4.943000e+00
  TP2d  TQ3p  1 3.400000e-01    7.149000e+00
  TP1d   Q3p  1 3.950000e-01    3.572000e+00
  TP1d  SQ3p  1 3.650000e-01    4.928000e+00
  TP1d  TQ3p  1 3.400000e-01    7.115000e+00
  TN6d   Q3p  1 3.950000e-01    3.569000e+00
  TN6d  SQ3p  1 3.650000e-01    4.910000e+00
  TN6d  TQ3p  1 3.400000e-01    7.075000e+00
  TN5d   Q3p  1 3.950000e-01    3.565000e+00
  TN5d  SQ3p  1 3.650000e-01    4.888000e+00
  TN5d  TQ3p  1 3.400000e-01    7.027000e+00
  TN4d   Q3p  1 3.950000e-01    3.560000e+00
  TN4d  SQ3p  1 3.650000e-01    4.861000e+00
  TN4d  TQ3p  1 3.400000e-01    6.968000e+00
  TN3d   Q3p  1 3.950000e-01    3.064000e+00
  TN3d  SQ3p  1 3.650000e-01    4.336000e+00
  TN3d  TQ3p  1 3.400000e-01    6.411000e+00
  TN2d   Q3p  1 3.950000e-01    3.055000e+00
  TN2d  SQ3p  1 3.650000e-01    4.288000e+00
  TN2d  TQ3p  1 3.400000e-01    6.305000e+00
  TN1d   Q3p  1 3.950000e-01    3.042000e+00
  TN1d  SQ3p  1 3.650000e-01    4.218000e+00
  TN1d  TQ3p  1 3.400000e-01    6.151000e+00
  TP6a   Q3p  1 3.950000e-01    4.636000e+00
  TP6a  SQ3p  1 3.650000e-01    6.156000e+00
  TP6a  TQ3p  1 3.400000e-01    8.647000e+00
  TP5a   Q3p  1 3.950000e-01    4.630000e+00
  TP5a  SQ3p  1 3.650000e-01    6.126000e+00
  TP5a  TQ3p  1 3.400000e-01    8.582000e+00
  TP4a   Q3p  1 3.950000e-01    4.623000e+00
  TP4a  SQ3p  1 3.650000e-01    6.088000e+00
  TP4a  TQ3p  1 3.400000e-01    8.498000e+00
  TP3a   Q3p  1 3.950000e-01    4.619000e+00
  TP3a  SQ3p  1 3.650000e-01    6.062000e+00
  TP3a  TQ3p  1 3.400000e-01    8.441000e+00
  TP2a   Q3p  1 3.950000e-01    4.295000e+00
  TP2a  SQ3p  1 3.650000e-01    5.753000e+00
  TP2a  TQ3p  1 3.400000e-01    8.119000e+00
  TP1a   Q3p  1 3.950000e-01    4.052000e+00
  TP1a  SQ3p  1 3.650000e-01    5.468000e+00
  TP1a  TQ3p  1 3.400000e-01    7.835000e+00
  TN6a   Q3p  1 3.950000e-01    4.049000e+00
  TN6a  SQ3p  1 3.650000e-01    5.450000e+00
  TN6a  TQ3p  1 3.400000e-01    7.795000e+00
  TN5a   Q3p  1 3.950000e-01    4.045000e+00
  TN5a  SQ3p  1 3.650000e-01    5.428000e+00
  TN5a  TQ3p  1 3.400000e-01    7.747000e+00
  TN4a   Q3p  1 3.950000e-01    4.040000e+00
  TN4a  SQ3p  1 3.650000e-01    5.401000e+00
  TN4a  TQ3p  1 3.400000e-01    7.688000e+00
  TN3a   Q3p  1 3.950000e-01    3.794000e+00
  TN3a  SQ3p  1 3.650000e-01    5.096000e+00
  TN3a  TQ3p  1 3.400000e-01    7.381000e+00
  TN2a   Q3p  1 3.950000e-01    3.785000e+00
  TN2a  SQ3p  1 3.650000e-01    5.048000e+00
  TN2a  TQ3p  1 3.400000e-01    7.275000e+00
  TN1a   Q3p  1 3.950000e-01    3.772000e+00
  TN1a  SQ3p  1 3.650000e-01    4.978000e+00
  TN1a  TQ3p  1 3.400000e-01    7.121000e+00
  TC6v   Q3p  1 3.950000e-01    2.171000e+00
  TC6v  SQ3p  1 3.660000e-01    3.358000e+00
  TC6v  TQ3p  1 3.520000e-01    4.795000e+00
  TC5v   Q3p  1 3.950000e-01    1.975000e+00
  TC5v  SQ3p  1 3.780000e-01    3.064000e+00
  TC5v  TQ3p  1 3.660000e-01    4.351000e+00
  TC4v   Q3p  1 3.980000e-01    1.728000e+00
  TC4v  SQ3p  1 3.940000e-01    2.712000e+00
  TC4v  TQ3p  1 3.850000e-01    3.838000e+00
  TC3v   Q3p  1 3.990000e-01    1.416000e+00
  TC3v  SQ3p  1 4.040000e-01    2.313000e+00
  TC3v  TQ3p  1 4.110000e-01    3.185000e+00
  TC2v   Q3p  1 5.110000e-01    8.180000e-01
  TC2v  SQ3p  1 5.370000e-01    1.576000e+00
  TC2v  TQ3p  1 5.610000e-01    2.136000e+00
  TC1v   Q3p  1 5.110000e-01    7.800000e-01
  TC1v  SQ3p  1 5.370000e-01    1.392000e+00
  TC1v  TQ3p  1 5.610000e-01    1.776000e+00
  TX4v   Q3p  1 3.950000e-01    2.183000e+00
  TX4v  SQ3p  1 3.660000e-01    3.423000e+00
  TX4v  TQ3p  1 3.520000e-01    4.935000e+00
  TX3v   Q3p  1 3.950000e-01    1.991000e+00
  TX3v  SQ3p  1 3.780000e-01    3.152000e+00
  TX3v  TQ3p  1 3.660000e-01    4.537000e+00
  TX2v   Q3p  1 3.980000e-01    1.741000e+00
  TX2v  SQ3p  1 3.940000e-01    2.782000e+00
  TX2v  TQ3p  1 3.850000e-01    3.985000e+00
  TX1v   Q3p  1 3.990000e-01    1.416000e+00
  TX1v  SQ3p  1 4.040000e-01    2.313000e+00
  TX1v  TQ3p  1 4.110000e-01    3.185000e+00
  TC6e   Q3p  1 3.950000e-01    2.821000e+00
  TC6e  SQ3p  1 3.650000e-01    3.873000e+00
  TC6e  TQ3p  1 3.400000e-01    5.898000e+00
  TC5e   Q3p  1 3.950000e-01    2.615000e+00
  TC5e  SQ3p  1 3.650000e-01    3.581000e+00
  TC5e  TQ3p  1 3.400000e-01    5.447000e+00
  TC4e   Q3p  1 3.950000e-01    2.390000e+00
  TC4e  SQ3p  1 3.650000e-01    3.285000e+00
  TC4e  TQ3p  1 3.400000e-01    4.888000e+00
  TC3e   Q3p  1 3.950000e-01    2.089000e+00
  TC3e  SQ3p  1 3.660000e-01    2.906000e+00
  TC3e  TQ3p  1 3.400000e-01    4.111000e+00
  TC2e   Q3p  1 4.010000e-01    1.186000e+00
  TC2e  SQ3p  1 4.090000e-01    2.088000e+00
  TC2e  TQ3p  1 4.110000e-01    2.857000e+00
  TC1e   Q3p  1 4.010000e-01    1.137000e+00
  TC1e  SQ3p  1 4.090000e-01    1.847000e+00
  TC1e  TQ3p  1 4.110000e-01    2.366000e+00
  TX4e   Q3p  1 3.950000e-01    2.833000e+00
  TX4e  SQ3p  1 3.650000e-01    3.938000e+00
  TX4e  TQ3p  1 3.400000e-01    6.042000e+00
  TX3e   Q3p  1 3.950000e-01    2.631000e+00
  TX3e  SQ3p  1 3.650000e-01    3.673000e+00
  TX3e  TQ3p  1 3.400000e-01    5.648000e+00
  TX2e   Q3p  1 3.950000e-01    2.404000e+00
  TX2e  SQ3p  1 3.650000e-01    3.361000e+00
  TX2e  TQ3p  1 3.400000e-01    5.054000e+00
  TX1e   Q3p  1 3.950000e-01    2.089000e+00
  TX1e  SQ3p  1 3.660000e-01    2.906000e+00
  TX1e  TQ3p  1 3.400000e-01    4.111000e+00
  TP6q   Q3p  1 3.950000e-01    4.946000e+00
  TP6q  SQ3p  1 3.650000e-01    6.446000e+00
  TP6q  TQ3p  1 3.400000e-01    8.647000e+00
  TP5q   Q3p  1 3.950000e-01    4.940000e+00
  TP5q  SQ3p  1 3.650000e-01    6.416000e+00
  TP5q  TQ3p  1 3.400000e-01    8.582000e+00
  TP4q   Q3p  1 3.950000e-01    4.933000e+00
  TP4q  SQ3p  1 3.650000e-01    6.378000e+00
  TP4q  TQ3p  1 3.400000e-01    8.498000e+00
  TP3q   Q3p  1 3.950000e-01    4.929000e+00
  TP3q  SQ3p  1 3.650000e-01    6.352000e+00
  TP3q  TQ3p  1 3.400000e-01    8.441000e+00
  TP2q   Q3p  1 3.950000e-01    4.615000e+00
  TP2q  SQ3p  1 3.650000e-01    6.043000e+00
  TP2q  TQ3p  1 3.400000e-01    8.119000e+00
  TP1q   Q3p  1 3.950000e-01    4.292000e+00
  TP1q  SQ3p  1 3.650000e-01    5.738000e+00
  TP1q  TQ3p  1 3.400000e-01    7.835000e+00
  TN6q   Q3p  1 3.950000e-01    4.289000e+00
  TN6q  SQ3p  1 3.650000e-01    5.720000e+00
  TN6q  TQ3p  1 3.400000e-01    7.795000e+00
  TN5q   Q3p  1 3.950000e-01    4.285000e+00
  TN5q  SQ3p  1 3.650000e-01    5.698000e+00
  TN5q  TQ3p  1 3.400000e-01    7.747000e+00
  TN4q   Q3p  1 3.950000e-01    4.280000e+00
  TN4q  SQ3p  1 3.650000e-01    5.671000e+00
  TN4q  TQ3p  1 3.400000e-01    7.688000e+00
  TN3q   Q3p  1 3.950000e-01    4.034000e+00
  TN3q  SQ3p  1 3.650000e-01    5.366000e+00
  TN3q  TQ3p  1 3.400000e-01    7.381000e+00
  TN2q   Q3p  1 3.950000e-01    4.025000e+00
  TN2q  SQ3p  1 3.650000e-01    5.318000e+00
  TN2q  TQ3p  1 3.400000e-01    7.275000e+00
  TN1q   Q3p  1 3.950000e-01    4.012000e+00
  TN1q  SQ3p  1 3.650000e-01    5.248000e+00
  TN1q  TQ3p  1 3.400000e-01    7.121000e+00
  TC6q   Q3p  1 3.950000e-01    3.261000e+00
  TC6q  SQ3p  1 3.650000e-01    4.333000e+00
  TC6q  TQ3p  1 3.400000e-01    6.158000e+00
  TC5q   Q3p  1 3.950000e-01    3.005000e+00
  TC5q  SQ3p  1 3.650000e-01    4.011000e+00
  TC5q  TQ3p  1 3.400000e-01    5.697000e+00
  TC4q   Q3p  1 3.950000e-01    2.780000e+00
  TC4q  SQ3p  1 3.650000e-01    3.645000e+00
  TC4q  TQ3p  1 3.400000e-01    5.148000e+00
  TC3q   Q3p  1 3.950000e-01    2.549000e+00
  TC3q  SQ3p  1 3.650000e-01    3.220000e+00
  TC3q  TQ3p  1 3.400000e-01    4.391000e+00
  TC2q   Q3p  1 3.980000e-01    1.654000e+00
  TC2q  SQ3p  1 3.940000e-01    2.336000e+00
  TC2q  TQ3p  1 3.850000e-01    3.050000e+00
  TC1q   Q3p  1 3.980000e-01    1.606000e+00
  TC1q  SQ3p  1 3.940000e-01    2.087000e+00
  TC1q  TQ3p  1 3.850000e-01    2.526000e+00
  TX4q   Q3p  1 3.950000e-01    3.273000e+00
  TX4q  SQ3p  1 3.650000e-01    4.398000e+00
  TX4q  TQ3p  1 3.400000e-01    6.302000e+00
  TX3q   Q3p  1 3.950000e-01    3.021000e+00
  TX3q  SQ3p  1 3.650000e-01    4.103000e+00
  TX3q  TQ3p  1 3.400000e-01    5.898000e+00
  TX2q   Q3p  1 3.950000e-01    2.794000e+00
  TX2q  SQ3p  1 3.650000e-01    3.721000e+00
  TX2q  TQ3p  1 3.400000e-01    5.314000e+00
  TX1q   Q3p  1 3.950000e-01    2.549000e+00
  TX1q  SQ3p  1 3.650000e-01    3.220000e+00
  TX1q  TQ3p  1 3.400000e-01    4.391000e+00
 TP6dq   Q3p  1 3.950000e-01    4.636000e+00
 TP6dq  SQ3p  1 3.650000e-01    6.156000e+00
 TP6dq  TQ3p  1 3.400000e-01    8.367000e+00
 TP5dq   Q3p  1 3.950000e-01    4.630000e+00
 TP5dq  SQ3p  1 3.650000e-01    6.126000e+00
 TP5dq  TQ3p  1 3.400000e-01    8.302000e+00
 TP4dq   Q3p  1 3.950000e-01    4.623000e+00
 TP4dq  SQ3p  1 3.650000e-01    6.088000e+00
 TP4dq  TQ3p  1 3.400000e-01    8.218000e+00
 TP3dq   Q3p  1 3.950000e-01    4.619000e+00
 TP3dq  SQ3p  1 3.650000e-01    6.062000e+00
 TP3dq  TQ3p  1 3.400000e-01    8.161000e+00
 TP2dq   Q3p  1 3.950000e-01    4.295000e+00
 TP2dq  SQ3p  1 3.650000e-01    5.753000e+00
 TP2dq  TQ3p  1 3.400000e-01    7.869000e+00
 TP1dq   Q3p  1 3.950000e-01    4.292000e+00
 TP1dq  SQ3p  1 3.650000e-01    5.738000e+00
 TP1dq  TQ3p  1 3.400000e-01    7.835000e+00
 TN6dq   Q3p  1 3.950000e-01    4.289000e+00
 TN6dq  SQ3p  1 3.650000e-01    5.720000e+00
 TN6dq  TQ3p  1 3.400000e-01    7.795000e+00
 TN5dq   Q3p  1 3.950000e-01    4.285000e+00
 TN5dq  SQ3p  1 3.650000e-01    5.698000e+00
 TN5dq  TQ3p  1 3.400000e-01    7.747000e+00
 TN4dq   Q3p  1 3.950000e-01    4.280000e+00
 TN4dq  SQ3p  1 3.650000e-01    5.671000e+00
 TN4dq  TQ3p  1 3.400000e-01    7.688000e+00
 TN3dq   Q3p  1 3.950000e-01    3.794000e+00
 TN3dq  SQ3p  1 3.650000e-01    5.096000e+00
 TN3dq  TQ3p  1 3.400000e-01    7.131000e+00
 TN2dq   Q3p  1 3.950000e-01    3.785000e+00
 TN2dq  SQ3p  1 3.650000e-01    5.048000e+00
 TN2dq  TQ3p  1 3.400000e-01    7.025000e+00
 TN1dq   Q3p  1 3.950000e-01    3.772000e+00
 TN1dq  SQ3p  1 3.650000e-01    4.978000e+00
 TN1dq  TQ3p  1 3.400000e-01    6.871000e+00
 TP6aq   Q3p  1 3.950000e-01    5.676000e+00
 TP6aq  SQ3p  1 3.650000e-01    7.086000e+00
 TP6aq  TQ3p  1 3.400000e-01    9.197000e+00
 TP5aq   Q3p  1 3.950000e-01    5.670000e+00
 TP5aq  SQ3p  1 3.650000e-01    7.056000e+00
 TP5aq  TQ3p  1 3.400000e-01    9.132000e+00
 TP4aq   Q3p  1 3.950000e-01    5.663000e+00
 TP4aq  SQ3p  1 3.650000e-01    7.018000e+00
 TP4aq  TQ3p  1 3.400000e-01    9.048000e+00
 TP3aq   Q3p  1 3.950000e-01    5.659000e+00
 TP3aq  SQ3p  1 3.650000e-01    6.992000e+00
 TP3aq  TQ3p  1 3.400000e-01    8.991000e+00
 TP2aq   Q3p  1 3.950000e-01    5.255000e+00
 TP2aq  SQ3p  1 3.650000e-01    6.623000e+00
 TP2aq  TQ3p  1 3.400000e-01    8.949000e+00
 TP1aq   Q3p  1 3.950000e-01    4.922000e+00
 TP1aq  SQ3p  1 3.650000e-01    6.318000e+00
 TP1aq  TQ3p  1 3.400000e-01    8.635000e+00
 TN6aq   Q3p  1 3.950000e-01    4.919000e+00
 TN6aq  SQ3p  1 3.650000e-01    6.300000e+00
 TN6aq  TQ3p  1 3.400000e-01    8.595000e+00
 TN5aq   Q3p  1 3.950000e-01    4.915000e+00
 TN5aq  SQ3p  1 3.650000e-01    6.278000e+00
 TN5aq  TQ3p  1 3.400000e-01    8.547000e+00
 TN4aq   Q3p  1 3.950000e-01    4.910000e+00
 TN4aq  SQ3p  1 3.650000e-01    6.251000e+00
 TN4aq  TQ3p  1 3.400000e-01    8.488000e+00
 TN3aq   Q3p  1 3.950000e-01    4.594000e+00
 TN3aq  SQ3p  1 3.650000e-01    5.926000e+00
 TN3aq  TQ3p  1 3.400000e-01    8.141000e+00
 TN2aq   Q3p  1 3.950000e-01    4.585000e+00
 TN2aq  SQ3p  1 3.650000e-01    5.878000e+00
 TN2aq  TQ3p  1 3.400000e-01    8.035000e+00
 TN1aq   Q3p  1 3.950000e-01    4.572000e+00
 TN1aq  SQ3p  1 3.650000e-01    5.808000e+00
 TN1aq  TQ3p  1 3.400000e-01    7.881000e+00
 TC6vq   Q3p  1 3.950000e-01    2.821000e+00
 TC6vq  SQ3p  1 3.650000e-01    3.873000e+00
 TC6vq  TQ3p  1 3.400000e-01    5.648000e+00
 TC5vq   Q3p  1 3.950000e-01    2.615000e+00
 TC5vq  SQ3p  1 3.650000e-01    3.581000e+00
 TC5vq  TQ3p  1 3.400000e-01    5.187000e+00
 TC4vq   Q3p  1 3.950000e-01    2.390000e+00
 TC4vq  SQ3p  1 3.650000e-01    3.285000e+00
 TC4vq  TQ3p  1 3.400000e-01    4.608000e+00
 TC3vq   Q3p  1 3.950000e-01    2.089000e+00
 TC3vq  SQ3p  1 3.660000e-01    2.906000e+00
 TC3vq  TQ3p  1 3.520000e-01    3.833000e+00
 TC2vq   Q3p  1 4.010000e-01    1.186000e+00
 TC2vq  SQ3p  1 4.090000e-01    2.088000e+00
 TC2vq  TQ3p  1 4.240000e-01    2.769000e+00
 TC1vq   Q3p  1 4.010000e-01    1.137000e+00
 TC1vq  SQ3p  1 4.090000e-01    1.847000e+00
 TC1vq  TQ3p  1 4.240000e-01    2.293000e+00
 TX4vq   Q3p  1 3.950000e-01    2.833000e+00
 TX4vq  SQ3p  1 3.650000e-01    3.938000e+00
 TX4vq  TQ3p  1 3.400000e-01    5.792000e+00
 TX3vq   Q3p  1 3.950000e-01    2.631000e+00
 TX3vq  SQ3p  1 3.650000e-01    3.673000e+00
 TX3vq  TQ3p  1 3.400000e-01    5.388000e+00
 TX2vq   Q3p  1 3.950000e-01    2.404000e+00
 TX2vq  SQ3p  1 3.650000e-01    3.361000e+00
 TX2vq  TQ3p  1 3.400000e-01    4.774000e+00
 TX1vq   Q3p  1 3.950000e-01    2.089000e+00
 TX1vq  SQ3p  1 3.660000e-01    2.906000e+00
 TX1vq  TQ3p  1 3.520000e-01    3.833000e+00
 TC6eq   Q3p  1 3.950000e-01    3.511000e+00
 TC6eq  SQ3p  1 3.650000e-01    4.593000e+00
 TC6eq  TQ3p  1 3.400000e-01    6.618000e+00
 TC5eq   Q3p  1 3.950000e-01    3.245000e+00
 TC5eq  SQ3p  1 3.650000e-01    4.241000e+00
 TC5eq  TQ3p  1 3.400000e-01    6.177000e+00
 TC4eq   Q3p  1 3.950000e-01    2.980000e+00
 TC4eq  SQ3p  1 3.650000e-01    3.875000e+00
 TC4eq  TQ3p  1 3.400000e-01    5.658000e+00
 TC3eq   Q3p  1 3.950000e-01    2.739000e+00
 TC3eq  SQ3p  1 3.650000e-01    3.420000e+00
 TC3eq  TQ3p  1 3.400000e-01    4.901000e+00
 TC2eq   Q3p  1 3.950000e-01    1.876000e+00
 TC2eq  SQ3p  1 3.780000e-01    2.541000e+00
 TC2eq  TQ3p  1 3.660000e-01    3.244000e+00
 TC1eq   Q3p  1 3.950000e-01    1.827000e+00
 TC1eq  SQ3p  1 3.780000e-01    2.280000e+00
 TC1eq  TQ3p  1 3.660000e-01    2.692000e+00
 TX4eq   Q3p  1 3.950000e-01    3.523000e+00
 TX4eq  SQ3p  1 3.650000e-01    4.658000e+00
 TX4eq  TQ3p  1 3.400000e-01    6.762000e+00
 TX3eq   Q3p  1 3.950000e-01    3.261000e+00
 TX3eq  SQ3p  1 3.650000e-01    4.333000e+00
 TX3eq  TQ3p  1 3.400000e-01    6.378000e+00
 TX2eq   Q3p  1 3.950000e-01    2.994000e+00
 TX2eq  SQ3p  1 3.650000e-01    3.951000e+00
 TX2eq  TQ3p  1 3.400000e-01    5.824000e+00
 TX1eq   Q3p  1 3.950000e-01    2.739000e+00
 TX1eq  SQ3p  1 3.650000e-01    3.420000e+00
 TX1eq  TQ3p  1 3.400000e-01    4.901000e+00
  TP6h   Q3p  1 3.950000e-01    4.076000e+00
  TP6h  SQ3p  1 3.650000e-01    5.596000e+00
  TP6h  TQ3p  1 3.400000e-01    7.887000e+00
  TP5h   Q3p  1 3.950000e-01    4.070000e+00
  TP5h  SQ3p  1 3.650000e-01    5.566000e+00
  TP5h  TQ3p  1 3.400000e-01    7.822000e+00
  TP4h   Q3p  1 3.950000e-01    4.063000e+00
  TP4h  SQ3p  1 3.650000e-01    5.528000e+00
  TP4h  TQ3p  1 3.400000e-01    7.738000e+00
  TP3h   Q3p  1 3.950000e-01    4.059000e+00
  TP3h  SQ3p  1 3.650000e-01    5.502000e+00
  TP3h  TQ3p  1 3.400000e-01    7.681000e+00
  TP2h   Q3p  1 3.950000e-01    3.815000e+00
  TP2h  SQ3p  1 3.650000e-01    5.213000e+00
  TP2h  TQ3p  1 3.400000e-01    7.389000e+00
  TP1h   Q3p  1 3.950000e-01    3.572000e+00
  TP1h  SQ3p  1 3.650000e-01    4.928000e+00
  TP1h  TQ3p  1 3.400000e-01    7.115000e+00
  TN6h   Q3p  1 3.950000e-01    3.569000e+00
  TN6h  SQ3p  1 3.650000e-01    4.910000e+00
  TN6h  TQ3p  1 3.400000e-01    7.075000e+00
  TN5h   Q3p  1 3.950000e-01    3.565000e+00
  TN5h  SQ3p  1 3.650000e-01    4.888000e+00
  TN5h  TQ3p  1 3.400000e-01    7.027000e+00
  TN4h   Q3p  1 3.950000e-01    3.560000e+00
  TN4h  SQ3p  1 3.650000e-01    4.861000e+00
  TN4h  TQ3p  1 3.400000e-01    6.968000e+00
  TN3h   Q3p  1 3.950000e-01    3.304000e+00
  TN3h  SQ3p  1 3.650000e-01    4.566000e+00
  TN3h  TQ3p  1 3.400000e-01    6.671000e+00
  TN2h   Q3p  1 3.950000e-01    3.295000e+00
  TN2h  SQ3p  1 3.650000e-01    4.518000e+00
  TN2h  TQ3p  1 3.400000e-01    6.565000e+00
  TN1h   Q3p  1 3.950000e-01    3.282000e+00
  TN1h  SQ3p  1 3.650000e-01    4.448000e+00
  TN1h  TQ3p  1 3.400000e-01    6.411000e+00
  TC6h   Q3p  1 3.950000e-01    2.631000e+00
  TC6h  SQ3p  1 3.650000e-01    3.673000e+00
  TC6h  TQ3p  1 3.400000e-01    5.388000e+00
  TC5h   Q3p  1 3.950000e-01    2.415000e+00
  TC5h  SQ3p  1 3.650000e-01    3.421000e+00
  TC5h  TQ3p  1 3.400000e-01    4.907000e+00
  TC4h   Q3p  1 3.950000e-01    2.130000e+00
  TC4h  SQ3p  1 3.660000e-01    3.131000e+00
  TC4h  TQ3p  1 3.520000e-01    4.313000e+00
  TC3h   Q3p  1 3.950000e-01    1.909000e+00
  TC3h  SQ3p  1 3.780000e-01    2.715000e+00
  TC3h  TQ3p  1 3.660000e-01    3.612000e+00
  TC2h   Q3p  1 4.040000e-01    1.031000e+00
  TC2h  SQ3p  1 4.230000e-01    1.956000e+00
  TC2h  TQ3p  1 4.380000e-01    2.660000e+00
  TC1h   Q3p  1 4.040000e-01    9.830000e-01
  TC1h  SQ3p  1 4.230000e-01    1.723000e+00
  TC1h  TQ3p  1 4.380000e-01    2.199000e+00
  TX4h   Q3p  1 3.950000e-01    2.643000e+00
  TX4h  SQ3p  1 3.650000e-01    3.738000e+00
  TX4h  TQ3p  1 3.400000e-01    5.532000e+00
  TX3h   Q3p  1 3.950000e-01    2.431000e+00
  TX3h  SQ3p  1 3.650000e-01    3.513000e+00
  TX3h  TQ3p  1 3.400000e-01    5.108000e+00
  TX2h   Q3p  1 3.950000e-01    2.144000e+00
  TX2h  SQ3p  1 3.660000e-01    3.206000e+00
  TX2h  TQ3p  1 3.520000e-01    4.473000e+00
  TX1h   Q3p  1 3.950000e-01    1.909000e+00
  TX1h  SQ3p  1 3.780000e-01    2.715000e+00
  TX1h  TQ3p  1 3.660000e-01    3.612000e+00
 TP6dh   Q3p  1 3.950000e-01    3.836000e+00
 TP6dh  SQ3p  1 3.650000e-01    5.326000e+00
 TP6dh  TQ3p  1 3.400000e-01    7.637000e+00
 TP5dh   Q3p  1 3.950000e-01    3.830000e+00
 TP5dh  SQ3p  1 3.650000e-01    5.296000e+00
 TP5dh  TQ3p  1 3.400000e-01    7.572000e+00
 TP4dh   Q3p  1 3.950000e-01    3.823000e+00
 TP4dh  SQ3p  1 3.650000e-01    5.258000e+00
 TP4dh  TQ3p  1 3.400000e-01    7.488000e+00
 TP3dh   Q3p  1 3.950000e-01    3.819000e+00
 TP3dh  SQ3p  1 3.650000e-01    5.232000e+00
 TP3dh  TQ3p  1 3.400000e-01    7.431000e+00
 TP2dh   Q3p  1 3.950000e-01    3.575000e+00
 TP2dh  SQ3p  1 3.650000e-01    4.943000e+00
 TP2dh  TQ3p  1 3.400000e-01    7.149000e+00
 TP1dh   Q3p  1 3.950000e-01    3.572000e+00
 TP1dh  SQ3p  1 3.650000e-01    4.928000e+00
 TP1dh  TQ3p  1 3.400000e-01    7.115000e+00
 TN6dh   Q3p  1 3.950000e-01    3.569000e+00
 TN6dh  SQ3p  1 3.650000e-01    4.910000e+00
 TN6dh  TQ3p  1 3.400000e-01    7.075000e+00
 TN5dh   Q3p  1 3.950000e-01    3.565000e+00
 TN5dh  SQ3p  1 3.650000e-01    4.888000e+00
 TN5dh  TQ3p  1 3.400000e-01    7.027000e+00
 TN4dh   Q3p  1 3.950000e-01    3.560000e+00
 TN4dh  SQ3p  1 3.650000e-01    4.861000e+00
 TN4dh  TQ3p  1 3.400000e-01    6.968000e+00
 TN3dh   Q3p  1 3.950000e-01    3.064000e+00
 TN3dh  SQ3p  1 3.650000e-01    4.336000e+00
 TN3dh  TQ3p  1 3.400000e-01    6.411000e+00
 TN2dh   Q3p  1 3.950000e-01    3.055000e+00
 TN2dh  SQ3p  1 3.650000e-01    4.288000e+00
 TN2dh  TQ3p  1 3.400000e-01    6.305000e+00
 TN1dh   Q3p  1 3.950000e-01    3.042000e+00
 TN1dh  SQ3p  1 3.650000e-01    4.218000e+00
 TN1dh  TQ3p  1 3.400000e-01    6.151000e+00
 TP6ah   Q3p  1 3.950000e-01    4.636000e+00
 TP6ah  SQ3p  1 3.650000e-01    6.156000e+00
 TP6ah  TQ3p  1 3.400000e-01    8.647000e+00
 TP5ah   Q3p  1 3.950000e-01    4.630000e+00
 TP5ah  SQ3p  1 3.650000e-01    6.126000e+00
 TP5ah  TQ3p  1 3.400000e-01    8.582000e+00
 TP4ah   Q3p  1 3.950000e-01    4.623000e+00
 TP4ah  SQ3p  1 3.650000e-01    6.088000e+00
 TP4ah  TQ3p  1 3.400000e-01    8.498000e+00
 TP3ah   Q3p  1 3.950000e-01    4.619000e+00
 TP3ah  SQ3p  1 3.650000e-01    6.062000e+00
 TP3ah  TQ3p  1 3.400000e-01    8.441000e+00
 TP2ah   Q3p  1 3.950000e-01    4.295000e+00
 TP2ah  SQ3p  1 3.650000e-01    5.753000e+00
 TP2ah  TQ3p  1 3.400000e-01    8.119000e+00
 TP1ah   Q3p  1 3.950000e-01    4.052000e+00
 TP1ah  SQ3p  1 3.650000e-01    5.468000e+00
 TP1ah  TQ3p  1 3.400000e-01    7.835000e+00
 TN6ah   Q3p  1 3.950000e-01    4.049000e+00
 TN6ah  SQ3p  1 3.650000e-01    5.450000e+00
 TN6ah  TQ3p  1 3.400000e-01    7.795000e+00
 TN5ah   Q3p  1 3.950000e-01    4.045000e+00
 TN5ah  SQ3p  1 3.650000e-01    5.428000e+00
 TN5ah  TQ3p  1 3.400000e-01    7.747000e+00
 TN4ah   Q3p  1 3.950000e-01    4.040000e+00
 TN4ah  SQ3p  1 3.650000e-01    5.401000e+00
 TN4ah  TQ3p  1 3.400000e-01    7.688000e+00
 TN3ah   Q3p  1 3.950000e-01    3.794000e+00
 TN3ah  SQ3p  1 3.650000e-01    5.096000e+00
 TN3ah  TQ3p  1 3.400000e-01    7.381000e+00
 TN2ah   Q3p  1 3.950000e-01    3.785000e+00
 TN2ah  SQ3p  1 3.650000e-01    5.048000e+00
 TN2ah  TQ3p  1 3.400000e-01    7.275000e+00
 TN1ah   Q3p  1 3.950000e-01    3.772000e+00
 TN1ah  SQ3p  1 3.650000e-01    4.978000e+00
 TN1ah  TQ3p  1 3.400000e-01    7.121000e+00
 TC6vh   Q3p  1 3.950000e-01    2.171000e+00
 TC6vh  SQ3p  1 3.660000e-01    3.358000e+00
 TC6vh  TQ3p  1 3.520000e-01    4.795000e+00
 TC5vh   Q3p  1 3.950000e-01    1.975000e+00
 TC5vh  SQ3p  1 3.780000e-01    3.064000e+00
 TC5vh  TQ3p  1 3.660000e-01    4.351000e+00
 TC4vh   Q3p  1 3.980000e-01    1.728000e+00
 TC4vh  SQ3p  1 3.940000e-01    2.712000e+00
 TC4vh  TQ3p  1 3.850000e-01    3.838000e+00
 TC3vh   Q3p  1 3.990000e-01    1.416000e+00
 TC3vh  SQ3p  1 4.040000e-01    2.313000e+00
 TC3vh  TQ3p  1 4.110000e-01    3.185000e+00
 TC2vh   Q3p  1 5.110000e-01    8.180000e-01
 TC2vh  SQ3p  1 5.370000e-01    1.576000e+00
 TC2vh  TQ3p  1 5.610000e-01    2.136000e+00
 TC1vh   Q3p  1 5.110000e-01    7.800000e-01
 TC1vh  SQ3p  1 5.370000e-01    1.392000e+00
 TC1vh  TQ3p  1 5.610000e-01    1.776000e+00
 TX4vh   Q3p  1 3.950000e-01    2.183000e+00
 TX4vh  SQ3p  1 3.660000e-01    3.423000e+00
 TX4vh  TQ3p  1 3.520000e-01    4.935000e+00
 TX3vh   Q3p  1 3.950000e-01    1.991000e+00
 TX3vh  SQ3p  1 3.780000e-01    3.152000e+00
 TX3vh  TQ3p  1 3.660000e-01    4.537000e+00
 TX2vh   Q3p  1 3.980000e-01    1.741000e+00
 TX2vh  SQ3p  1 3.940000e-01    2.782000e+00
 TX2vh  TQ3p  1 3.850000e-01    3.985000e+00
 TX1vh   Q3p  1 3.990000e-01    1.416000e+00
 TX1vh  SQ3p  1 4.040000e-01    2.313000e+00
 TX1vh  TQ3p  1 4.110000e-01    3.185000e+00
 TC6eh   Q3p  1 3.950000e-01    2.821000e+00
 TC6eh  SQ3p  1 3.650000e-01    3.873000e+00
 TC6eh  TQ3p  1 3.400000e-01    5.898000e+00
 TC5eh   Q3p  1 3.950000e-01    2.615000e+00
 TC5eh  SQ3p  1 3.650000e-01    3.581000e+00
 TC5eh  TQ3p  1 3.400000e-01    5.447000e+00
 TC4eh   Q3p  1 3.950000e-01    2.390000e+00
 TC4eh  SQ3p  1 3.650000e-01    3.285000e+00
 TC4eh  TQ3p  1 3.400000e-01    4.888000e+00
 TC3eh   Q3p  1 3.950000e-01    2.089000e+00
 TC3eh  SQ3p  1 3.660000e-01    2.906000e+00
 TC3eh  TQ3p  1 3.400000e-01    4.111000e+00
 TC2eh   Q3p  1 4.010000e-01    1.186000e+00
 TC2eh  SQ3p  1 4.090000e-01    2.088000e+00
 TC2eh  TQ3p  1 4.110000e-01    2.857000e+00
 TC1eh   Q3p  1 4.010000e-01    1.137000e+00
 TC1eh  SQ3p  1 4.090000e-01    1.847000e+00
 TC1eh  TQ3p  1 4.110000e-01    2.366000e+00
 TX4eh   Q3p  1 3.950000e-01    2.833000e+00
 TX4eh  SQ3p  1 3.650000e-01    3.938000e+00
 TX4eh  TQ3p  1 3.400000e-01    6.042000e+00
 TX3eh   Q3p  1 3.950000e-01    2.631000e+00
 TX3eh  SQ3p  1 3.650000e-01    3.673000e+00
 TX3eh  TQ3p  1 3.400000e-01    5.648000e+00
 TX2eh   Q3p  1 3.950000e-01    2.404000e+00
 TX2eh  SQ3p  1 3.650000e-01    3.361000e+00
 TX2eh  TQ3p  1 3.400000e-01    5.054000e+00
 TX1eh   Q3p  1 3.950000e-01    2.089000e+00
 TX1eh  SQ3p  1 3.660000e-01    2.906000e+00
 TX1eh  TQ3p  1 3.400000e-01    4.111000e+00
  TP6r   Q3p  1 3.950000e-01    4.076000e+00
  TP6r  SQ3p  1 3.650000e-01    5.596000e+00
  TP6r  TQ3p  1 3.400000e-01    7.887000e+00
  TP5r   Q3p  1 3.950000e-01    4.070000e+00
  TP5r  SQ3p  1 3.650000e-01    5.566000e+00
  TP5r  TQ3p  1 3.400000e-01    7.822000e+00
  TP4r   Q3p  1 3.950000e-01    4.063000e+00
  TP4r  SQ3p  1 3.650000e-01    5.528000e+00
  TP4r  TQ3p  1 3.400000e-01    7.738000e+00
  TP3r   Q3p  1 3.950000e-01    4.059000e+00
  TP3r  SQ3p  1 3.650000e-01    5.502000e+00
  TP3r  TQ3p  1 3.400000e-01    7.681000e+00
  TP2r   Q3p  1 3.950000e-01    3.815000e+00
  TP2r  SQ3p  1 3.650000e-01    5.213000e+00
  TP2r  TQ3p  1 3.400000e-01    7.389000e+00
  TP1r   Q3p  1 3.950000e-01    3.572000e+00
  TP1r  SQ3p  1 3.650000e-01    4.928000e+00
  TP1r  TQ3p  1 3.400000e-01    7.115000e+00
  TN6r   Q3p  1 3.950000e-01    3.569000e+00
  TN6r  SQ3p  1 3.650000e-01    4.910000e+00
  TN6r  TQ3p  1 3.400000e-01    7.075000e+00
  TN5r   Q3p  1 3.950000e-01    3.565000e+00
  TN5r  SQ3p  1 3.650000e-01    4.888000e+00
  TN5r  TQ3p  1 3.400000e-01    7.027000e+00
  TN4r   Q3p  1 3.950000e-01    3.560000e+00
  TN4r  SQ3p  1 3.650000e-01    4.861000e+00
  TN4r  TQ3p  1 3.400000e-01    6.968000e+00
  TN3r   Q3p  1 3.950000e-01    3.304000e+00
  TN3r  SQ3p  1 3.650000e-01    4.566000e+00
  TN3r  TQ3p  1 3.400000e-01    6.671000e+00
  TN2r   Q3p  1 3.950000e-01    3.295000e+00
  TN2r  SQ3p  1 3.650000e-01    4.518000e+00
  TN2r  TQ3p  1 3.400000e-01    6.565000e+00
  TN1r   Q3p  1 3.950000e-01    3.282000e+00
  TN1r  SQ3p  1 3.650000e-01    4.448000e+00
  TN1r  TQ3p  1 3.400000e-01    6.411000e+00
  TC6r   Q3p  1 3.950000e-01    2.631000e+00
  TC6r  SQ3p  1 3.650000e-01    3.673000e+00
  TC6r  TQ3p  1 3.400000e-01    5.388000e+00
  TC5r   Q3p  1 3.950000e-01    2.415000e+00
  TC5r  SQ3p  1 3.650000e-01    3.421000e+00
  TC5r  TQ3p  1 3.400000e-01    4.907000e+00
  TC4r   Q3p  1 3.950000e-01    2.130000e+00
  TC4r  SQ3p  1 3.660000e-01    3.131000e+00
  TC4r  TQ3p  1 3.520000e-01    4.313000e+00
  TC3r   Q3p  1 3.950000e-01    1.909000e+00
  TC3r  SQ3p  1 3.780000e-01    2.715000e+00
  TC3r  TQ3p  1 3.660000e-01    3.612000e+00
  TC2r   Q3p  1 4.040000e-01    1.031000e+00
  TC2r  SQ3p  1 4.230000e-01    1.956000e+00
  TC2r  TQ3p  1 4.380000e-01    2.660000e+00
  TC1r   Q3p  1 4.040000e-01    9.830000e-01
  TC1r  SQ3p  1 4.230000e-01    1.723000e+00
  TC1r  TQ3p  1 4.380000e-01    2.199000e+00
  TX4r   Q3p  1 3.950000e-01    2.643000e+00
  TX4r  SQ3p  1 3.650000e-01    3.738000e+00
  TX4r  TQ3p  1 3.400000e-01    5.532000e+00
  TX3r   Q3p  1 3.950000e-01    2.431000e+00
  TX3r  SQ3p  1 3.650000e-01    3.513000e+00
  TX3r  TQ3p  1 3.400000e-01    5.108000e+00
  TX2r   Q3p  1 3.950000e-01    2.144000e+00
  TX2r  SQ3p  1 3.660000e-01    3.206000e+00
  TX2r  TQ3p  1 3.520000e-01    4.473000e+00
  TX1r   Q3p  1 3.950000e-01    1.909000e+00
  TX1r  SQ3p  1 3.780000e-01    2.715000e+00
  TX1r  TQ3p  1 3.660000e-01    3.612000e+00
 TP6dr   Q3p  1 3.950000e-01    3.836000e+00
 TP6dr  SQ3p  1 3.650000e-01    5.326000e+00
 TP6dr  TQ3p  1 3.400000e-01    7.637000e+00
 TP5dr   Q3p  1 3.950000e-01    3.830000e+00
 TP5dr  SQ3p  1 3.650000e-01    5.296000e+00
 TP5dr  TQ3p  1 3.400000e-01    7.572000e+00
 TP4dr   Q3p  1 3.950000e-01    3.823000e+00
 TP4dr  SQ3p  1 3.650000e-01    5.258000e+00
 TP4dr  TQ3p  1 3.400000e-01    7.488000e+00
 TP3dr   Q3p  1 3.950000e-01    3.819000e+00
 TP3dr  SQ3p  1 3.650000e-01    5.232000e+00
 TP3dr  TQ3p  1 3.400000e-01    7.431000e+00
 TP2dr   Q3p  1 3.950000e-01    3.575000e+00
 TP2dr  SQ3p  1 3.650000e-01    4.943000e+00
 TP2dr  TQ3p  1 3.400000e-01    7.149000e+00
 TP1dr   Q3p  1 3.950000e-01    3.572000e+00
 TP1dr  SQ3p  1 3.650000e-01    4.928000e+00
 TP1dr  TQ3p  1 3.400000e-01    7.115000e+00
 TN6dr   Q3p  1 3.950000e-01    3.569000e+00
 TN6dr  SQ3p  1 3.650000e-01    4.910000e+00
 TN6dr  TQ3p  1 3.400000e-01    7.075000e+00
 TN5dr   Q3p  1 3.950000e-01    3.565000e+00
 TN5dr  SQ3p  1 3.650000e-01    4.888000e+00
 TN5dr  TQ3p  1 3.400000e-01    7.027000e+00
 TN4dr   Q3p  1 3.950000e-01    3.560000e+00
 TN4dr  SQ3p  1 3.650000e-01    4.861000e+00
 TN4dr  TQ3p  1 3.400000e-01    6.968000e+00
 TN3dr   Q3p  1 3.950000e-01    3.064000e+00
 TN3dr  SQ3p  1 3.650000e-01    4.336000e+00
 TN3dr  TQ3p  1 3.400000e-01    6.411000e+00
 TN2dr   Q3p  1 3.950000e-01    3.055000e+00
 TN2dr  SQ3p  1 3.650000e-01    4.288000e+00
 TN2dr  TQ3p  1 3.400000e-01    6.305000e+00
 TN1dr   Q3p  1 3.950000e-01    3.042000e+00
 TN1dr  SQ3p  1 3.650000e-01    4.218000e+00
 TN1dr  TQ3p  1 3.400000e-01    6.151000e+00
 TP6ar   Q3p  1 3.950000e-01    4.636000e+00
 TP6ar  SQ3p  1 3.650000e-01    6.156000e+00
 TP6ar  TQ3p  1 3.400000e-01    8.647000e+00
 TP5ar   Q3p  1 3.950000e-01    4.630000e+00
 TP5ar  SQ3p  1 3.650000e-01    6.126000e+00
 TP5ar  TQ3p  1 3.400000e-01    8.582000e+00
 TP4ar   Q3p  1 3.950000e-01    4.623000e+00
 TP4ar  SQ3p  1 3.650000e-01    6.088000e+00
 TP4ar  TQ3p  1 3.400000e-01    8.498000e+00
 TP3ar   Q3p  1 3.950000e-01    4.619000e+00
 TP3ar  SQ3p  1 3.650000e-01    6.062000e+00
 TP3ar  TQ3p  1 3.400000e-01    8.441000e+00
 TP2ar   Q3p  1 3.950000e-01    4.295000e+00
 TP2ar  SQ3p  1 3.650000e-01    5.753000e+00
 TP2ar  TQ3p  1 3.400000e-01    8.119000e+00
 TP1ar   Q3p  1 3.950000e-01    4.052000e+00
 TP1ar  SQ3p  1 3.650000e-01    5.468000e+00
 TP1ar  TQ3p  1 3.400000e-01    7.835000e+00
 TN6ar   Q3p  1 3.950000e-01    4.049000e+00
 TN6ar  SQ3p  1 3.650000e-01    5.450000e+00
 TN6ar  TQ3p  1 3.400000e-01    7.795000e+00
 TN5ar   Q3p  1 3.950000e-01    4.045000e+00
 TN5ar  SQ3p  1 3.650000e-01    5.428000e+00
 TN5ar  TQ3p  1 3.400000e-01    7.747000e+00
 TN4ar   Q3p  1 3.950000e-01    4.040000e+00
 TN4ar  SQ3p  1 3.650000e-01    5.401000e+00
 TN4ar  TQ3p  1 3.400000e-01    7.688000e+00
 TN3ar   Q3p  1 3.950000e-01    3.794000e+00
 TN3ar  SQ3p  1 3.650000e-01    5.096000e+00
 TN3ar  TQ3p  1 3.400000e-01    7.381000e+00
 TN2ar   Q3p  1 3.950000e-01    3.785000e+00
 TN2ar  SQ3p  1 3.650000e-01    5.048000e+00
 TN2ar  TQ3p  1 3.400000e-01    7.275000e+00
 TN1ar   Q3p  1 3.950000e-01    3.772000e+00
 TN1ar  SQ3p  1 3.650000e-01    4.978000e+00
 TN1ar  TQ3p  1 3.400000e-01    7.121000e+00
 TC6vr   Q3p  1 3.950000e-01    2.171000e+00
 TC6vr  SQ3p  1 3.660000e-01    3.358000e+00
 TC6vr  TQ3p  1 3.520000e-01    4.795000e+00
 TC5vr   Q3p  1 3.950000e-01    1.975000e+00
 TC5vr  SQ3p  1 3.780000e-01    3.064000e+00
 TC5vr  TQ3p  1 3.660000e-01    4.351000e+00
 TC4vr   Q3p  1 3.980000e-01    1.728000e+00
 TC4vr  SQ3p  1 3.940000e-01    2.712000e+00
 TC4vr  TQ3p  1 3.850000e-01    3.838000e+00
 TC3vr   Q3p  1 3.990000e-01    1.416000e+00
 TC3vr  SQ3p  1 4.040000e-01    2.313000e+00
 TC3vr  TQ3p  1 4.110000e-01    3.185000e+00
 TC2vr   Q3p  1 5.110000e-01    8.180000e-01
 TC2vr  SQ3p  1 5.370000e-01    1.576000e+00
 TC2vr  TQ3p  1 5.610000e-01    2.136000e+00
 TC1vr   Q3p  1 5.110000e-01    7.800000e-01
 TC1vr  SQ3p  1 5.370000e-01    1.392000e+00
 TC1vr  TQ3p  1 5.610000e-01    1.776000e+00
 TX4vr   Q3p  1 3.950000e-01    2.183000e+00
 TX4vr  SQ3p  1 3.660000e-01    3.423000e+00
 TX4vr  TQ3p  1 3.520000e-01    4.935000e+00
 TX3vr   Q3p  1 3.950000e-01    1.991000e+00
 TX3vr  SQ3p  1 3.780000e-01    3.152000e+00
 TX3vr  TQ3p  1 3.660000e-01    4.537000e+00
 TX2vr   Q3p  1 3.980000e-01    1.741000e+00
 TX2vr  SQ3p  1 3.940000e-01    2.782000e+00
 TX2vr  TQ3p  1 3.850000e-01    3.985000e+00
 TX1vr   Q3p  1 3.990000e-01    1.416000e+00
 TX1vr  SQ3p  1 4.040000e-01    2.313000e+00
 TX1vr  TQ3p  1 4.110000e-01    3.185000e+00
 TC6er   Q3p  1 3.950000e-01    2.821000e+00
 TC6er  SQ3p  1 3.650000e-01    3.873000e+00
 TC6er  TQ3p  1 3.400000e-01    5.898000e+00
 TC5er   Q3p  1 3.950000e-01    2.615000e+00
 TC5er  SQ3p  1 3.650000e-01    3.581000e+00
 TC5er  TQ3p  1 3.400000e-01    5.447000e+00
 TC4er   Q3p  1 3.950000e-01    2.390000e+00
 TC4er  SQ3p  1 3.650000e-01    3.285000e+00
 TC4er  TQ3p  1 3.400000e-01    4.888000e+00
 TC3er   Q3p  1 3.950000e-01    2.089000e+00
 TC3er  SQ3p  1 3.660000e-01    2.906000e+00
 TC3er  TQ3p  1 3.400000e-01    4.111000e+00
 TC2er   Q3p  1 4.010000e-01    1.186000e+00
 TC2er  SQ3p  1 4.090000e-01    2.088000e+00
 TC2er  TQ3p  1 4.110000e-01    2.857000e+00
 TC1er   Q3p  1 4.010000e-01    1.137000e+00
 TC1er  SQ3p  1 4.090000e-01    1.847000e+00
 TC1er  TQ3p  1 4.110000e-01    2.366000e+00
 TX4er   Q3p  1 3.950000e-01    2.833000e+00
 TX4er  SQ3p  1 3.650000e-01    3.938000e+00
 TX4er  TQ3p  1 3.400000e-01    6.042000e+00
 TX3er   Q3p  1 3.950000e-01    2.631000e+00
 TX3er  SQ3p  1 3.650000e-01    3.673000e+00
 TX3er  TQ3p  1 3.400000e-01    5.648000e+00
 TX2er   Q3p  1 3.950000e-01    2.404000e+00
 TX2er  SQ3p  1 3.650000e-01    3.361000e+00
 TX2er  TQ3p  1 3.400000e-01    5.054000e+00
 TX1er   Q3p  1 3.950000e-01    2.089000e+00
 TX1er  SQ3p  1 3.660000e-01    2.906000e+00
 TX1er  TQ3p  1 3.400000e-01    4.111000e+00
    P6   Q3n  1 4.700000e-01    5.445000e+00
    P6  SQ3n  1 4.300000e-01    7.015000e+00
    P6  TQ3n  1 3.950000e-01    9.957000e+00
    P5   Q3n  1 4.700000e-01    5.432000e+00
    P5  SQ3n  1 4.300000e-01    6.966000e+00
    P5  TQ3n  1 3.950000e-01    9.844000e+00
    P4   Q3n  1 4.700000e-01    5.415000e+00
    P4  SQ3n  1 4.300000e-01    6.906000e+00
    P4  TQ3n  1 3.950000e-01    9.706000e+00
    P3   Q3n  1 4.700000e-01    5.405000e+00
    P3  SQ3n  1 4.300000e-01    6.868000e+00
    P3  TQ3n  1 3.950000e-01    9.617000e+00
    P2   Q3n  1 4.700000e-01    5.147000e+00
    P2  SQ3n  1 4.300000e-01    6.610000e+00
    P2  TQ3n  1 3.950000e-01    9.313000e+00
    P1   Q3n  1 4.700000e-01    4.911000e+00
    P1  SQ3n  1 4.300000e-01    6.388000e+00
    P1  TQ3n  1 3.950000e-01    9.022000e+00
    N6   Q3n  1 4.700000e-01    4.904000e+00
    N6  SQ3n  1 4.300000e-01    6.363000e+00
    N6  TQ3n  1 3.950000e-01    8.963000e+00
    N5   Q3n  1 4.700000e-01    4.896000e+00
    N5  SQ3n  1 4.300000e-01    6.333000e+00
    N5  TQ3n  1 3.950000e-01    8.894000e+00
    N4   Q3n  1 4.700000e-01    4.886000e+00
    N4  SQ3n  1 4.300000e-01    6.295000e+00
    N4  TQ3n  1 3.950000e-01    8.808000e+00
    N3   Q3n  1 4.700000e-01    4.683000e+00
    N3  SQ3n  1 4.300000e-01    6.048000e+00
    N3  TQ3n  1 3.950000e-01    8.458000e+00
    N2   Q3n  1 4.700000e-01    4.665000e+00
    N2  SQ3n  1 4.300000e-01    5.984000e+00
    N2  TQ3n  1 3.950000e-01    8.309000e+00
    N1   Q3n  1 4.700000e-01    4.640000e+00
    N1  SQ3n  1 4.300000e-01    5.890000e+00
    N1  TQ3n  1 3.950000e-01    8.093000e+00
    C6   Q3n  1 4.700000e-01    3.778000e+00
    C6  SQ3n  1 4.300000e-01    4.738000e+00
    C6  TQ3n  1 3.950000e-01    6.662000e+00
    C5   Q3n  1 4.700000e-01    3.575000e+00
    C5  SQ3n  1 4.300000e-01    4.379000e+00
    C5  TQ3n  1 3.950000e-01    6.125000e+00
    C4   Q3n  1 4.700000e-01    3.417000e+00
    C4  SQ3n  1 4.300000e-01    3.990000e+00
    C4  TQ3n  1 3.950000e-01    5.533000e+00
    C3   Q3n  1 4.700000e-01    3.166000e+00
    C3  SQ3n  1 4.300000e-01    3.535000e+00
    C3  TQ3n  1 3.980000e-01    4.606000e+00
    C2   Q3n  1 5.200000e-01    2.402000e+00
    C2  SQ3n  1 4.730000e-01    2.316000e+00
    C2  TQ3n  1 4.650000e-01    2.942000e+00
    C1   Q3n  1 5.200000e-01    2.315000e+00
    C1  SQ3n  1 4.730000e-01    1.996000e+00
    C1  TQ3n  1 4.650000e-01    2.251000e+00
    X4   Q3n  1 4.700000e-01    3.802000e+00
    X4  SQ3n  1 4.300000e-01    4.825000e+00
    X4  TQ3n  1 3.950000e-01    6.862000e+00
    X3   Q3n  1 4.700000e-01    3.608000e+00
    X3  SQ3n  1 4.300000e-01    4.498000e+00
    X3  TQ3n  1 3.950000e-01    6.402000e+00
    X2   Q3n  1 4.700000e-01    3.444000e+00
    X2  SQ3n  1 4.300000e-01    4.089000e+00
    X2  TQ3n  1 3.950000e-01    5.761000e+00
    X1   Q3n  1 4.700000e-01    3.166000e+00
    X1  SQ3n  1 4.300000e-01    3.535000e+00
    X1  TQ3n  1 3.980000e-01    4.606000e+00
   P6d   Q3n  1 4.700000e-01    5.445000e+00
   P6d  SQ3n  1 4.300000e-01    7.015000e+00
   P6d  TQ3n  1 3.950000e-01    1.027700e+01
   P5d   Q3n  1 4.700000e-01    5.432000e+00
   P5d  SQ3n  1 4.300000e-01    6.966000e+00
   P5d  TQ3n  1 3.950000e-01    1.016400e+01
   P4d   Q3n  1 4.700000e-01    5.415000e+00
   P4d  SQ3n  1 4.300000e-01    6.906000e+00
   P4d  TQ3n  1 3.950000e-01    1.002600e+01
   P3d   Q3n  1 4.700000e-01    5.405000e+00
   P3d  SQ3n  1 4.300000e-01    6.868000e+00
   P3d  TQ3n  1 3.950000e-01    9.937000e+00
   P2d   Q3n  1 4.700000e-01    5.147000e+00
   P2d  SQ3n  1 4.300000e-01    6.610000e+00
   P2d  TQ3n  1 3.950000e-01    9.553000e+00
   P1d   Q3n  1 4.700000e-01    4.911000e+00
   P1d  SQ3n  1 4.300000e-01    6.388000e+00
   P1d  TQ3n  1 3.950000e-01    9.262000e+00
   N6d   Q3n  1 4.700000e-01    4.904000e+00
   N6d  SQ3n  1 4.300000e-01    6.363000e+00
   N6d  TQ3n  1 3.950000e-01    9.203000e+00
   N5d   Q3n  1 4.700000e-01    4.896000e+00
   N5d  SQ3n  1 4.300000e-01    6.333000e+00
   N5d  TQ3n  1 3.950000e-01    9.134000e+00
   N4d   Q3n  1 4.700000e-01    4.886000e+00
   N4d  SQ3n  1 4.300000e-01    6.295000e+00
   N4d  TQ3n  1 3.950000e-01    9.048000e+00
   N3d   Q3n  1 4.700000e-01    4.683000e+00
   N3d  SQ3n  1 4.300000e-01    6.048000e+00
   N3d  TQ3n  1 3.950000e-01    8.698000e+00
   N2d   Q3n  1 4.700000e-01    4.665000e+00
   N2d  SQ3n  1 4.300000e-01    5.984000e+00
   N2d  TQ3n  1 3.950000e-01    8.549000e+00
   N1d   Q3n  1 4.700000e-01    4.640000e+00
   N1d  SQ3n  1 4.300000e-01    5.890000e+00
   N1d  TQ3n  1 3.950000e-01    8.333000e+00
   P6a   Q3n  1 4.700000e-01    4.775000e+00
   P6a  SQ3n  1 4.300000e-01    6.385000e+00
   P6a  TQ3n  1 3.950000e-01    9.477000e+00
   P5a   Q3n  1 4.700000e-01    4.762000e+00
   P5a  SQ3n  1 4.300000e-01    6.336000e+00
   P5a  TQ3n  1 3.950000e-01    9.364000e+00
   P4a   Q3n  1 4.700000e-01    4.745000e+00
   P4a  SQ3n  1 4.300000e-01    6.276000e+00
   P4a  TQ3n  1 3.950000e-01    9.226000e+00
   P3a   Q3n  1 4.700000e-01    4.735000e+00
   P3a  SQ3n  1 4.300000e-01    6.238000e+00
   P3a  TQ3n  1 3.950000e-01    9.137000e+00
   P2a   Q3n  1 4.700000e-01    4.547000e+00
   P2a  SQ3n  1 4.300000e-01    6.030000e+00
   P2a  TQ3n  1 3.950000e-01    8.833000e+00
   P1a   Q3n  1 4.700000e-01    4.351000e+00
   P1a  SQ3n  1 4.300000e-01    5.798000e+00
   P1a  TQ3n  1 3.950000e-01    8.532000e+00
   N6a   Q3n  1 4.700000e-01    4.344000e+00
   N6a  SQ3n  1 4.300000e-01    5.773000e+00
   N6a  TQ3n  1 3.950000e-01    8.473000e+00
   N5a   Q3n  1 4.700000e-01    4.336000e+00
   N5a  SQ3n  1 4.300000e-01    5.743000e+00
   N5a  TQ3n  1 3.950000e-01    8.404000e+00
   N4a   Q3n  1 4.700000e-01    4.326000e+00
   N4a  SQ3n  1 4.300000e-01    5.705000e+00
   N4a  TQ3n  1 3.950000e-01    8.318000e+00
   N3a   Q3n  1 4.700000e-01    4.143000e+00
   N3a  SQ3n  1 4.300000e-01    5.438000e+00
   N3a  TQ3n  1 3.950000e-01    7.968000e+00
   N2a   Q3n  1 4.700000e-01    4.125000e+00
   N2a  SQ3n  1 4.300000e-01    5.374000e+00
   N2a  TQ3n  1 3.950000e-01    7.819000e+00
   N1a   Q3n  1 4.700000e-01    4.100000e+00
   N1a  SQ3n  1 4.300000e-01    5.280000e+00
   N1a  TQ3n  1 3.950000e-01    7.603000e+00
   C6v   Q3n  1 4.700000e-01    3.928000e+00
   C6v  SQ3n  1 4.300000e-01    4.898000e+00
   C6v  TQ3n  1 3.950000e-01    7.052000e+00
   C5v   Q3n  1 4.700000e-01    3.745000e+00
   C5v  SQ3n  1 4.300000e-01    4.769000e+00
   C5v  TQ3n  1 3.950000e-01    6.585000e+00
   C4v   Q3n  1 4.700000e-01    3.527000e+00
   C4v  SQ3n  1 4.300000e-01    4.200000e+00
   C4v  TQ3n  1 3.950000e-01    5.973000e+00
   C3v   Q3n  1 4.700000e-01    3.336000e+00
   C3v  SQ3n  1 4.300000e-01    3.695000e+00
   C3v  TQ3n  1 3.950000e-01    5.030000e+00
   C2v   Q3n  1 4.850000e-01    2.542000e+00
   C2v  SQ3n  1 4.430000e-01    2.587000e+00
   C2v  TQ3n  1 4.010000e-01    3.580000e+00
   C1v   Q3n  1 4.850000e-01    2.449000e+00
   C1v  SQ3n  1 4.430000e-01    2.245000e+00
   C1v  TQ3n  1 4.010000e-01    2.778000e+00
   X4v   Q3n  1 4.700000e-01    3.952000e+00
   X4v  SQ3n  1 4.300000e-01    4.985000e+00
   X4v  TQ3n  1 3.950000e-01    7.252000e+00
   X3v   Q3n  1 4.700000e-01    3.778000e+00
   X3v  SQ3n  1 4.300000e-01    4.888000e+00
   X3v  TQ3n  1 3.950000e-01    6.862000e+00
   X2v   Q3n  1 4.700000e-01    3.554000e+00
   X2v  SQ3n  1 4.300000e-01    4.299000e+00
   X2v  TQ3n  1 3.950000e-01    6.201000e+00
   X1v   Q3n  1 4.700000e-01    3.336000e+00
   X1v  SQ3n  1 4.300000e-01    3.695000e+00
   X1v  TQ3n  1 3.950000e-01    5.030000e+00
   C6e   Q3n  1 4.700000e-01    3.498000e+00
   C6e  SQ3n  1 4.300000e-01    4.288000e+00
   C6e  TQ3n  1 3.950000e-01    6.402000e+00
   C5e   Q3n  1 4.700000e-01    3.295000e+00
   C5e  SQ3n  1 4.300000e-01    4.009000e+00
   C5e  TQ3n  1 3.950000e-01    5.945000e+00
   C4e   Q3n  1 4.700000e-01    3.077000e+00
   C4e  SQ3n  1 4.300000e-01    3.600000e+00
   C4e  TQ3n  1 3.980000e-01    5.284000e+00
   C3e   Q3n  1 4.700000e-01    2.816000e+00
   C3e  SQ3n  1 4.300000e-01    3.105000e+00
   C3e  TQ3n  1 3.990000e-01    4.328000e+00
   C2e   Q3n  1 6.200000e-01    2.196000e+00
   C2e  SQ3n  1 5.140000e-01    2.064000e+00
   C2e  TQ3n  1 5.110000e-01    2.697000e+00
   C1e   Q3n  1 6.200000e-01    2.123000e+00
   C1e  SQ3n  1 5.140000e-01    1.769000e+00
   C1e  TQ3n  1 5.110000e-01    2.067000e+00
   X4e   Q3n  1 4.700000e-01    3.522000e+00
   X4e  SQ3n  1 4.300000e-01    4.375000e+00
   X4e  TQ3n  1 3.950000e-01    6.602000e+00
   X3e   Q3n  1 4.700000e-01    3.328000e+00
   X3e  SQ3n  1 4.300000e-01    4.128000e+00
   X3e  TQ3n  1 3.950000e-01    6.222000e+00
   X2e   Q3n  1 4.700000e-01    3.104000e+00
   X2e  SQ3n  1 4.300000e-01    3.699000e+00
   X2e  TQ3n  1 3.980000e-01    5.510000e+00
   X1e   Q3n  1 4.700000e-01    2.816000e+00
   X1e  SQ3n  1 4.300000e-01    3.105000e+00
   X1e  TQ3n  1 3.990000e-01    4.328000e+00
   P6q   Q3n  1 4.700000e-01    6.205000e+00
   P6q  SQ3n  1 4.300000e-01    7.825000e+00
   P6q  TQ3n  1 3.950000e-01    1.091700e+01
   P5q   Q3n  1 4.700000e-01    6.192000e+00
   P5q  SQ3n  1 4.300000e-01    7.776000e+00
   P5q  TQ3n  1 3.950000e-01    1.080400e+01
   P4q   Q3n  1 4.700000e-01    6.175000e+00
   P4q  SQ3n  1 4.300000e-01    7.716000e+00
   P4q  TQ3n  1 3.950000e-01    1.066600e+01
   P3q   Q3n  1 4.700000e-01    6.165000e+00
   P3q  SQ3n  1 4.300000e-01    7.678000e+00
   P3q  TQ3n  1 3.950000e-01    1.057700e+01
   P2q   Q3n  1 4.700000e-01    5.907000e+00
   P2q  SQ3n  1 4.300000e-01    7.360000e+00
   P2q  TQ3n  1 3.950000e-01    1.018300e+01
   P1q   Q3n  1 4.700000e-01    5.651000e+00
   P1q  SQ3n  1 4.300000e-01    7.098000e+00
   P1q  TQ3n  1 3.950000e-01    9.822000e+00
   N6q   Q3n  1 4.700000e-01    5.644000e+00
   N6q  SQ3n  1 4.300000e-01    7.073000e+00
   N6q  TQ3n  1 3.950000e-01    9.763000e+00
   N5q   Q3n  1 4.700000e-01    5.636000e+00
   N5q  SQ3n  1 4.300000e-01    7.043000e+00
   N5q  TQ3n  1 3.950000e-01    9.694000e+00
   N4q   Q3n  1 4.700000e-01    5.626000e+00
   N4q  SQ3n  1 4.300000e-01    7.005000e+00
   N4q  TQ3n  1 3.950000e-01    9.608000e+00
   N3q   Q3n  1 4.700000e-01    5.353000e+00
   N3q  SQ3n  1 4.300000e-01    6.678000e+00
   N3q  TQ3n  1 3.950000e-01    9.178000e+00
   N2q   Q3n  1 4.700000e-01    5.335000e+00
   N2q  SQ3n  1 4.300000e-01    6.614000e+00
   N2q  TQ3n  1 3.950000e-01    9.029000e+00
   N1q   Q3n  1 4.700000e-01    5.310000e+00
   N1q  SQ3n  1 4.300000e-01    6.520000e+00
   N1q  TQ3n  1 3.950000e-01    8.813000e+00
   C6q   Q3n  1 4.700000e-01    4.228000e+00
   C6q  SQ3n  1 4.300000e-01    5.348000e+00
   C6q  TQ3n  1 3.950000e-01    7.252000e+00
   C5q   Q3n  1 4.700000e-01    4.025000e+00
   C5q  SQ3n  1 4.300000e-01    5.009000e+00
   C5q  TQ3n  1 3.950000e-01    6.775000e+00
   C4q   Q3n  1 4.700000e-01    3.847000e+00
   C4q  SQ3n  1 4.300000e-01    4.590000e+00
   C4q  TQ3n  1 3.950000e-01    6.173000e+00
   C3q   Q3n  1 4.700000e-01    3.616000e+00
   C3q  SQ3n  1 4.300000e-01    4.145000e+00
   C3q  TQ3n  1 3.950000e-01    5.290000e+00
   C2q   Q3n  1 4.700000e-01    2.932000e+00
   C2q  SQ3n  1 4.300000e-01    3.070000e+00
   C2q  TQ3n  1 3.990000e-01    3.790000e+00
   C1q   Q3n  1 4.700000e-01    2.835000e+00
   C1q  SQ3n  1 4.300000e-01    2.718000e+00
   C1q  TQ3n  1 3.990000e-01    2.984000e+00
   X4q   Q3n  1 4.700000e-01    4.252000e+00
   X4q  SQ3n  1 4.300000e-01    5.435000e+00
   X4q  TQ3n  1 3.950000e-01    7.452000e+00
   X3q   Q3n  1 4.700000e-01    4.058000e+00
   X3q  SQ3n  1 4.300000e-01    5.128000e+00
   X3q  TQ3n  1 3.950000e-01    7.052000e+00
   X2q   Q3n  1 4.700000e-01    3.874000e+00
   X2q  SQ3n  1 4.300000e-01    4.689000e+00
   X2q  TQ3n  1 3.950000e-01    6.401000e+00
   X1q   Q3n  1 4.700000e-01    3.616000e+00
   X1q  SQ3n  1 4.300000e-01    4.145000e+00
   X1q  TQ3n  1 3.950000e-01    5.290000e+00
  P6dq   Q3n  1 4.700000e-01    6.205000e+00
  P6dq  SQ3n  1 4.300000e-01    7.825000e+00
  P6dq  TQ3n  1 3.950000e-01    1.131700e+01
  P5dq   Q3n  1 4.700000e-01    6.192000e+00
  P5dq  SQ3n  1 4.300000e-01    7.776000e+00
  P5dq  TQ3n  1 3.950000e-01    1.120400e+01
  P4dq   Q3n  1 4.700000e-01    6.175000e+00
  P4dq  SQ3n  1 4.300000e-01    7.716000e+00
  P4dq  TQ3n  1 3.950000e-01    1.106600e+01
  P3dq   Q3n  1 4.700000e-01    6.165000e+00
  P3dq  SQ3n  1 4.300000e-01    7.678000e+00
  P3dq  TQ3n  1 3.950000e-01    1.097700e+01
  P2dq   Q3n  1 4.700000e-01    5.907000e+00
  P2dq  SQ3n  1 4.300000e-01    7.360000e+00
  P2dq  TQ3n  1 3.950000e-01    1.051300e+01
  P1dq   Q3n  1 4.700000e-01    5.651000e+00
  P1dq  SQ3n  1 4.300000e-01    7.098000e+00
  P1dq  TQ3n  1 3.950000e-01    1.013200e+01
  N6dq   Q3n  1 4.700000e-01    5.644000e+00
  N6dq  SQ3n  1 4.300000e-01    7.073000e+00
  N6dq  TQ3n  1 3.950000e-01    1.007300e+01
  N5dq   Q3n  1 4.700000e-01    5.636000e+00
  N5dq  SQ3n  1 4.300000e-01    7.043000e+00
  N5dq  TQ3n  1 3.950000e-01    1.000400e+01
  N4dq   Q3n  1 4.700000e-01    5.626000e+00
  N4dq  SQ3n  1 4.300000e-01    7.005000e+00
  N4dq  TQ3n  1 3.950000e-01    9.918000e+00
  N3dq   Q3n  1 4.700000e-01    5.353000e+00
  N3dq  SQ3n  1 4.300000e-01    6.678000e+00
  N3dq  TQ3n  1 3.950000e-01    9.498000e+00
  N2dq   Q3n  1 4.700000e-01    5.335000e+00
  N2dq  SQ3n  1 4.300000e-01    6.614000e+00
  N2dq  TQ3n  1 3.950000e-01    9.349000e+00
  N1dq   Q3n  1 4.700000e-01    5.310000e+00
  N1dq  SQ3n  1 4.300000e-01    6.520000e+00
  N1dq  TQ3n  1 3.950000e-01    9.133000e+00
  P6aq   Q3n  1 4.700000e-01    5.445000e+00
  P6aq  SQ3n  1 4.300000e-01    7.015000e+00
  P6aq  TQ3n  1 3.950000e-01    1.027700e+01
  P5aq   Q3n  1 4.700000e-01    5.432000e+00
  P5aq  SQ3n  1 4.300000e-01    6.966000e+00
  P5aq  TQ3n  1 3.950000e-01    1.016400e+01
  P4aq   Q3n  1 4.700000e-01    5.415000e+00
  P4aq  SQ3n  1 4.300000e-01    6.906000e+00
  P4aq  TQ3n  1 3.950000e-01    1.002600e+01
  P3aq   Q3n  1 4.700000e-01    5.405000e+00
  P3aq  SQ3n  1 4.300000e-01    6.868000e+00
  P3aq  TQ3n  1 3.950000e-01    9.937000e+00
  P2aq   Q3n  1 4.700000e-01    5.147000e+00
  P2aq  SQ3n  1 4.300000e-01    6.610000e+00
  P2aq  TQ3n  1 3.950000e-01    9.553000e+00
  P1aq   Q3n  1 4.700000e-01    4.911000e+00
  P1aq  SQ3n  1 4.300000e-01    6.388000e+00
  P1aq  TQ3n  1 3.950000e-01    9.262000e+00
  N6aq   Q3n  1 4.700000e-01    4.904000e+00
  N6aq  SQ3n  1 4.300000e-01    6.363000e+00
  N6aq  TQ3n  1 3.950000e-01    9.203000e+00
  N5aq   Q3n  1 4.700000e-01    4.896000e+00
  N5aq  SQ3n  1 4.300000e-01    6.333000e+00
  N5aq  TQ3n  1 3.950000e-01    9.134000e+00
  N4aq   Q3n  1 4.700000e-01    4.886000e+00
  N4aq  SQ3n  1 4.300000e-01    6.295000e+00
  N4aq  TQ3n  1 3.950000e-01    9.048000e+00
  N3aq   Q3n  1 4.700000e-01    4.683000e+00
  N3aq  SQ3n  1 4.300000e-01    6.048000e+00
  N3aq  TQ3n  1 3.950000e-01    8.698000e+00
  N2aq   Q3n  1 4.700000e-01    4.665000e+00
  N2aq  SQ3n  1 4.300000e-01    5.984000e+00
  N2aq  TQ3n  1 3.950000e-01    8.549000e+00
  N1aq   Q3n  1 4.700000e-01    4.640000e+00
  N1aq  SQ3n  1 4.300000e-01    5.890000e+00
  N1aq  TQ3n  1 3.950000e-01    8.333000e+00
  C6vq   Q3n  1 4.700000e-01    4.418000e+00
  C6vq  SQ3n  1 4.300000e-01    5.558000e+00
  C6vq  TQ3n  1 3.950000e-01    7.742000e+00
  C5vq   Q3n  1 4.700000e-01    4.195000e+00
  C5vq  SQ3n  1 4.300000e-01    5.229000e+00
  C5vq  TQ3n  1 3.950000e-01    7.215000e+00
  C4vq   Q3n  1 4.700000e-01    3.977000e+00
  C4vq  SQ3n  1 4.300000e-01    4.830000e+00
  C4vq  TQ3n  1 3.950000e-01    6.563000e+00
  C3vq   Q3n  1 4.700000e-01    3.766000e+00
  C3vq  SQ3n  1 4.300000e-01    4.305000e+00
  C3vq  TQ3n  1 3.950000e-01    5.680000e+00
  C2vq   Q3n  1 4.700000e-01    3.102000e+00
  C2vq  SQ3n  1 4.300000e-01    3.300000e+00
  C2vq  TQ3n  1 3.950000e-01    4.306000e+00
  C1vq   Q3n  1 4.700000e-01    3.005000e+00
  C1vq  SQ3n  1 4.300000e-01    2.948000e+00
  C1vq  TQ3n  1 3.950000e-01    3.492000e+00
  X4vq   Q3n  1 4.700000e-01    4.442000e+00
  X4vq  SQ3n  1 4.300000e-01    5.645000e+00
  X4vq  TQ3n  1 3.950000e-01    7.942000e+00
  X3vq   Q3n  1 4.700000e-01    4.228000e+00
  X3vq  SQ3n  1 4.300000e-01    5.348000e+00
  X3vq  TQ3n  1 3.950000e-01    7.492000e+00
  X2vq   Q3n  1 4.700000e-01    4.004000e+00
  X2vq  SQ3n  1 4.300000e-01    4.929000e+00
  X2vq  TQ3n  1 3.950000e-01    6.791000e+00
  X1vq   Q3n  1 4.700000e-01    3.766000e+00
  X1vq  SQ3n  1 4.300000e-01    4.305000e+00
  X1vq  TQ3n  1 3.950000e-01    5.680000e+00
  C6eq   Q3n  1 4.700000e-01    3.928000e+00
  C6eq  SQ3n  1 4.300000e-01    4.898000e+00
  C6eq  TQ3n  1 3.950000e-01    7.052000e+00
  C5eq   Q3n  1 4.700000e-01    3.745000e+00
  C5eq  SQ3n  1 4.300000e-01    4.769000e+00
  C5eq  TQ3n  1 3.950000e-01    6.585000e+00
  C4eq   Q3n  1 4.700000e-01    3.527000e+00
  C4eq  SQ3n  1 4.300000e-01    4.200000e+00
  C4eq  TQ3n  1 3.950000e-01    5.973000e+00
  C3eq   Q3n  1 4.700000e-01    3.336000e+00
  C3eq  SQ3n  1 4.300000e-01    3.695000e+00
  C3eq  TQ3n  1 3.950000e-01    5.030000e+00
  C2eq   Q3n  1 4.850000e-01    2.542000e+00
  C2eq  SQ3n  1 4.430000e-01    2.587000e+00
  C2eq  TQ3n  1 4.010000e-01    3.580000e+00
  C1eq   Q3n  1 4.850000e-01    2.449000e+00
  C1eq  SQ3n  1 4.430000e-01    2.245000e+00
  C1eq  TQ3n  1 4.010000e-01    2.778000e+00
  X4eq   Q3n  1 4.700000e-01    3.952000e+00
  X4eq  SQ3n  1 4.300000e-01    4.985000e+00
  X4eq  TQ3n  1 3.950000e-01    7.252000e+00
  X3eq   Q3n  1 4.700000e-01    3.778000e+00
  X3eq  SQ3n  1 4.300000e-01    4.888000e+00
  X3eq  TQ3n  1 3.950000e-01    6.862000e+00
  X2eq   Q3n  1 4.700000e-01    3.554000e+00
  X2eq  SQ3n  1 4.300000e-01    4.299000e+00
  X2eq  TQ3n  1 3.950000e-01    6.201000e+00
  X1eq   Q3n  1 4.700000e-01    3.336000e+00
  X1eq  SQ3n  1 4.300000e-01    3.695000e+00
  X1eq  TQ3n  1 3.950000e-01    5.030000e+00
   P6h   Q3n  1 4.700000e-01    5.445000e+00
   P6h  SQ3n  1 4.300000e-01    7.015000e+00
   P6h  TQ3n  1 3.950000e-01    9.957000e+00
   P5h   Q3n  1 4.700000e-01    5.432000e+00
   P5h  SQ3n  1 4.300000e-01    6.966000e+00
   P5h  TQ3n  1 3.950000e-01    9.844000e+00
   P4h   Q3n  1 4.700000e-01    5.415000e+00
   P4h  SQ3n  1 4.300000e-01    6.906000e+00
   P4h  TQ3n  1 3.950000e-01    9.706000e+00
   P3h   Q3n  1 4.700000e-01    5.405000e+00
   P3h  SQ3n  1 4.300000e-01    6.868000e+00
   P3h  TQ3n  1 3.950000e-01    9.617000e+00
   P2h   Q3n  1 4.700000e-01    5.147000e+00
   P2h  SQ3n  1 4.300000e-01    6.610000e+00
   P2h  TQ3n  1 3.950000e-01    9.313000e+00
   P1h   Q3n  1 4.700000e-01    4.911000e+00
   P1h  SQ3n  1 4.300000e-01    6.388000e+00
   P1h  TQ3n  1 3.950000e-01    9.022000e+00
   N6h   Q3n  1 4.700000e-01    4.904000e+00
   N6h  SQ3n  1 4.300000e-01    6.363000e+00
   N6h  TQ3n  1 3.950000e-01    8.963000e+00
   N5h   Q3n  1 4.700000e-01    4.896000e+00
   N5h  SQ3n  1 4.300000e-01    6.333000e+00
   N5h  TQ3n  1 3.950000e-01    8.894000e+00
   N4h   Q3n  1 4.700000e-01    4.886000e+00
   N4h  SQ3n  1 4.300000e-01    6.295000e+00
   N4h  TQ3n  1 3.950000e-01    8.808000e+00
   N3h   Q3n  1 4.700000e-01    4.683000e+00
   N3h  SQ3n  1 4.300000e-01    6.048000e+00
   N3h  TQ3n  1 3.950000e-01    8.458000e+00
   N2h   Q3n  1 4.700000e-01    4.665000e+00
   N2h  SQ3n  1 4.300000e-01    5.984000e+00
   N2h  TQ3n  1 3.950000e-01    8.309000e+00
   N1h   Q3n  1 4.700000e-01    4.640000e+00
   N1h  SQ3n  1 4.300000e-01    5.890000e+00
   N1h  TQ3n  1 3.950000e-01    8.093000e+00
   C6h   Q3n  1 4.700000e-01    3.778000e+00
   C6h  SQ3n  1 4.300000e-01    4.738000e+00
   C6h  TQ3n  1 3.950000e-01    6.662000e+00
   C5h   Q3n  1 4.700000e-01    3.575000e+00
   C5h  SQ3n  1 4.300000e-01    4.379000e+00
   C5h  TQ3n  1 3.950000e-01    6.125000e+00
   C4h   Q3n  1 4.700000e-01    3.417000e+00
   C4h  SQ3n  1 4.300000e-01    3.990000e+00
   C4h  TQ3n  1 3.950000e-01    5.533000e+00
   C3h   Q3n  1 4.700000e-01    3.166000e+00
   C3h  SQ3n  1 4.300000e-01    3.535000e+00
   C3h  TQ3n  1 3.980000e-01    4.606000e+00
   C2h   Q3n  1 5.200000e-01    2.402000e+00
   C2h  SQ3n  1 4.730000e-01    2.316000e+00
   C2h  TQ3n  1 4.650000e-01    2.942000e+00
   C1h   Q3n  1 5.200000e-01    2.315000e+00
   C1h  SQ3n  1 4.730000e-01    1.996000e+00
   C1h  TQ3n  1 4.650000e-01    2.251000e+00
   X4h   Q3n  1 4.700000e-01    3.802000e+00
   X4h  SQ3n  1 4.300000e-01    4.825000e+00
   X4h  TQ3n  1 3.950000e-01    6.862000e+00
   X3h   Q3n  1 4.700000e-01    3.608000e+00
   X3h  SQ3n  1 4.300000e-01    4.498000e+00
   X3h  TQ3n  1 3.950000e-01    6.402000e+00
   X2h   Q3n  1 4.700000e-01    3.444000e+00
   X2h  SQ3n  1 4.300000e-01    4.089000e+00
   X2h  TQ3n  1 3.950000e-01    5.761000e+00
   X1h   Q3n  1 4.700000e-01    3.166000e+00
   X1h  SQ3n  1 4.300000e-01    3.535000e+00
   X1h  TQ3n  1 3.980000e-01    4.606000e+00
  P6dh   Q3n  1 4.700000e-01    5.445000e+00
  P6dh  SQ3n  1 4.300000e-01    7.015000e+00
  P6dh  TQ3n  1 3.950000e-01    1.027700e+01
  P5dh   Q3n  1 4.700000e-01    5.432000e+00
  P5dh  SQ3n  1 4.300000e-01    6.966000e+00
  P5dh  TQ3n  1 3.950000e-01    1.016400e+01
  P4dh   Q3n  1 4.700000e-01    5.415000e+00
  P4dh  SQ3n  1 4.300000e-01    6.906000e+00
  P4dh  TQ3n  1 3.950000e-01    1.002600e+01
  P3dh   Q3n  1 4.700000e-01    5.405000e+00
  P3dh  SQ3n  1 4.300000e-01    6.868000e+00
  P3dh  TQ3n  1 3.950000e-01    9.937000e+00
  P2dh   Q3n  1 4.700000e-01    5.147000e+00
  P2dh  SQ3n  1 4.300000e-01    6.610000e+00
  P2dh  TQ3n  1 3.950000e-01    9.553000e+00
  P1dh   Q3n  1 4.700000e-01    4.911000e+00
  P1dh  SQ3n  1 4.300000e-01    6.388000e+00
  P1dh  TQ3n  1 3.950000e-01    9.262000e+00
  N6dh   Q3n  1 4.700000e-01    4.904000e+00
  N6dh  SQ3n  1 4.300000e-01    6.363000e+00
  N6dh  TQ3n  1 3.950000e-01    9.203000e+00
  N5dh   Q3n  1 4.700000e-01    4.896000e+00
  N5dh  SQ3n  1 4.300000e-01    6.333000e+00
  N5dh  TQ3n  1 3.950000e-01    9.134000e+00
  N4dh   Q3n  1 4.700000e-01    4.886000e+00
  N4dh  SQ3n  1 4.300000e-01    6.295000e+00
  N4dh  TQ3n  1 3.950000e-01    9.048000e+00
  N3dh   Q3n  1 4.700000e-01    4.683000e+00
  N3dh  SQ3n  1 4.300000e-01    6.048000e+00
  N3dh  TQ3n  1 3.950000e-01    8.698000e+00
  N2dh   Q3n  1 4.700000e-01    4.665000e+00
  N2dh  SQ3n  1 4.300000e-01    5.984000e+00
  N2dh  TQ3n  1 3.950000e-01    8.549000e+00
  N1dh   Q3n  1 4.700000e-01    4.640000e+00
  N1dh  SQ3n  1 4.300000e-01    5.890000e+00
  N1dh  TQ3n  1 3.950000e-01    8.333000e+00
  P6ah   Q3n  1 4.700000e-01    4.775000e+00
  P6ah  SQ3n  1 4.300000e-01    6.385000e+00
  P6ah  TQ3n  1 3.950000e-01    9.477000e+00
  P5ah   Q3n  1 4.700000e-01    4.762000e+00
  P5ah  SQ3n  1 4.300000e-01    6.336000e+00
  P5ah  TQ3n  1 3.950000e-01    9.364000e+00
  P4ah   Q3n  1 4.700000e-01    4.745000e+00
  P4ah  SQ3n  1 4.300000e-01    6.276000e+00
  P4ah  TQ3n  1 3.950000e-01    9.226000e+00
  P3ah   Q3n  1 4.700000e-01    4.735000e+00
  P3ah  SQ3n  1 4.300000e-01    6.238000e+00
  P3ah  TQ3n  1 3.950000e-01    9.137000e+00
  P2ah   Q3n  1 4.700000e-01    4.547000e+00
  P2ah  SQ3n  1 4.300000e-01    6.030000e+00
  P2ah  TQ3n  1 3.950000e-01    8.833000e+00
  P1ah   Q3n  1 4.700000e-01    4.351000e+00
  P1ah  SQ3n  1 4.300000e-01    5.798000e+00
  P1ah  TQ3n  1 3.950000e-01    8.532000e+00
  N6ah   Q3n  1 4.700000e-01    4.344000e+00
  N6ah  SQ3n  1 4.300000e-01    5.773000e+00
  N6ah  TQ3n  1 3.950000e-01    8.473000e+00
  N5ah   Q3n  1 4.700000e-01    4.336000e+00
  N5ah  SQ3n  1 4.300000e-01    5.743000e+00
  N5ah  TQ3n  1 3.950000e-01    8.404000e+00
  N4ah   Q3n  1 4.700000e-01    4.326000e+00
  N4ah  SQ3n  1 4.300000e-01    5.705000e+00
  N4ah  TQ3n  1 3.950000e-01    8.318000e+00
  N3ah   Q3n  1 4.700000e-01    4.143000e+00
  N3ah  SQ3n  1 4.300000e-01    5.438000e+00
  N3ah  TQ3n  1 3.950000e-01    7.968000e+00
  N2ah   Q3n  1 4.700000e-01    4.125000e+00
  N2ah  SQ3n  1 4.300000e-01    5.374000e+00
  N2ah  TQ3n  1 3.950000e-01    7.819000e+00
  N1ah   Q3n  1 4.700000e-01    4.100000e+00
  N1ah  SQ3n  1 4.300000e-01    5.280000e+00
  N1ah  TQ3n  1 3.950000e-01    7.603000e+00
  C6vh   Q3n  1 4.700000e-01    3.928000e+00
  C6vh  SQ3n  1 4.300000e-01    4.898000e+00
  C6vh  TQ3n  1 3.950000e-01    7.052000e+00
  C5vh   Q3n  1 4.700000e-01    3.745000e+00
  C5vh  SQ3n  1 4.300000e-01    4.769000e+00
  C5vh  TQ3n  1 3.950000e-01    6.585000e+00
  C4vh   Q3n  1 4.700000e-01    3.527000e+00
  C4vh  SQ3n  1 4.300000e-01    4.200000e+00
  C4vh  TQ3n  1 3.950000e-01    5.973000e+00
  C3vh   Q3n  1 4.700000e-01    3.336000e+00
  C3vh  SQ3n  1 4.300000e-01    3.695000e+00
  C3vh  TQ3n  1 3.950000e-01    5.030000e+00
  C2vh   Q3n  1 4.850000e-01    2.542000e+00
  C2vh  SQ3n  1 4.430000e-01    2.587000e+00
  C2vh  TQ3n  1 4.010000e-01    3.580000e+00
  C1vh   Q3n  1 4.850000e-01    2.449000e+00
  C1vh  SQ3n  1 4.430000e-01    2.245000e+00
  C1vh  TQ3n  1 4.010000e-01    2.778000e+00
  X4vh   Q3n  1 4.700000e-01    3.952000e+00
  X4vh  SQ3n  1 4.300000e-01    4.985000e+00
  X4vh  TQ3n  1 3.950000e-01    7.252000e+00
  X3vh   Q3n  1 4.700000e-01    3.778000e+00
  X3vh  SQ3n  1 4.300000e-01    4.888000e+00
  X3vh  TQ3n  1 3.950000e-01    6.862000e+00
  X2vh   Q3n  1 4.700000e-01    3.554000e+00
  X2vh  SQ3n  1 4.300000e-01    4.299000e+00
  X2vh  TQ3n  1 3.950000e-01    6.201000e+00
  X1vh   Q3n  1 4.700000e-01    3.336000e+00
  X1vh  SQ3n  1 4.300000e-01    3.695000e+00
  X1vh  TQ3n  1 3.950000e-01    5.030000e+00
  C6eh   Q3n  1 4.700000e-01    3.498000e+00
  C6eh  SQ3n  1 4.300000e-01    4.288000e+00
  C6eh  TQ3n  1 3.950000e-01    6.402000e+00
  C5eh   Q3n  1 4.700000e-01    3.295000e+00
  C5eh  SQ3n  1 4.300000e-01    4.009000e+00
  C5eh  TQ3n  1 3.950000e-01    5.945000e+00
  C4eh   Q3n  1 4.700000e-01    3.077000e+00
  C4eh  SQ3n  1 4.300000e-01    3.600000e+00
  C4eh  TQ3n  1 3.980000e-01    5.284000e+00
  C3eh   Q3n  1 4.700000e-01    2.816000e+00
  C3eh  SQ3n  1 4.300000e-01    3.105000e+00
  C3eh  TQ3n  1 3.990000e-01    4.328000e+00
  C2eh   Q3n  1 6.200000e-01    2.196000e+00
  C2eh  SQ3n  1 5.140000e-01    2.064000e+00
  C2eh  TQ3n  1 5.110000e-01    2.697000e+00
  C1eh   Q3n  1 6.200000e-01    2.123000e+00
  C1eh  SQ3n  1 5.140000e-01    1.769000e+00
  C1eh  TQ3n  1 5.110000e-01    2.067000e+00
  X4eh   Q3n  1 4.700000e-01    3.522000e+00
  X4eh  SQ3n  1 4.300000e-01    4.375000e+00
  X4eh  TQ3n  1 3.950000e-01    6.602000e+00
  X3eh   Q3n  1 4.700000e-01    3.328000e+00
  X3eh  SQ3n  1 4.300000e-01    4.128000e+00
  X3eh  TQ3n  1 3.950000e-01    6.222000e+00
  X2eh   Q3n  1 4.700000e-01    3.104000e+00
  X2eh  SQ3n  1 4.300000e-01    3.699000e+00
  X2eh  TQ3n  1 3.980000e-01    5.510000e+00
  X1eh   Q3n  1 4.700000e-01    2.816000e+00
  X1eh  SQ3n  1 4.300000e-01    3.105000e+00
  X1eh  TQ3n  1 3.990000e-01    4.328000e+00
   P6r   Q3n  1 4.700000e-01    5.445000e+00
   P6r  SQ3n  1 4.300000e-01    7.015000e+00
   P6r  TQ3n  1 3.950000e-01    9.957000e+00
   P5r   Q3n  1 4.700000e-01    5.432000e+00
   P5r  SQ3n  1 4.300000e-01    6.966000e+00
   P5r  TQ3n  1 3.950000e-01    9.844000e+00
   P4r   Q3n  1 4.700000e-01    5.415000e+00
   P4r  SQ3n  1 4.300000e-01    6.906000e+00
   P4r  TQ3n  1 3.950000e-01    9.706000e+00
   P3r   Q3n  1 4.700000e-01    5.405000e+00
   P3r  SQ3n  1 4.300000e-01    6.868000e+00
   P3r  TQ3n  1 3.950000e-01    9.617000e+00
   P2r   Q3n  1 4.700000e-01    5.147000e+00
   P2r  SQ3n  1 4.300000e-01    6.610000e+00
   P2r  TQ3n  1 3.950000e-01    9.313000e+00
   P1r   Q3n  1 4.700000e-01    4.911000e+00
   P1r  SQ3n  1 4.300000e-01    6.388000e+00
   P1r  TQ3n  1 3.950000e-01    9.022000e+00
   N6r   Q3n  1 4.700000e-01    4.904000e+00
   N6r  SQ3n  1 4.300000e-01    6.363000e+00
   N6r  TQ3n  1 3.950000e-01    8.963000e+00
   N5r   Q3n  1 4.700000e-01    4.896000e+00
   N5r  SQ3n  1 4.300000e-01    6.333000e+00
   N5r  TQ3n  1 3.950000e-01    8.894000e+00
   N4r   Q3n  1 4.700000e-01    4.886000e+00
   N4r  SQ3n  1 4.300000e-01    6.295000e+00
   N4r  TQ3n  1 3.950000e-01    8.808000e+00
   N3r   Q3n  1 4.700000e-01    4.683000e+00
   N3r  SQ3n  1 4.300000e-01    6.048000e+00
   N3r  TQ3n  1 3.950000e-01    8.458000e+00
   N2r   Q3n  1 4.700000e-01    4.665000e+00
   N2r  SQ3n  1 4.300000e-01    5.984000e+00
   N2r  TQ3n  1 3.950000e-01    8.309000e+00
   N1r   Q3n  1 4.700000e-01    4.640000e+00
   N1r  SQ3n  1 4.300000e-01    5.890000e+00
   N1r  TQ3n  1 3.950000e-01    8.093000e+00
   C6r   Q3n  1 4.700000e-01    3.778000e+00
   C6r  SQ3n  1 4.300000e-01    4.738000e+00
   C6r  TQ3n  1 3.950000e-01    6.662000e+00
   C5r   Q3n  1 4.700000e-01    3.575000e+00
   C5r  SQ3n  1 4.300000e-01    4.379000e+00
   C5r  TQ3n  1 3.950000e-01    6.125000e+00
   C4r   Q3n  1 4.700000e-01    3.417000e+00
   C4r  SQ3n  1 4.300000e-01    3.990000e+00
   C4r  TQ3n  1 3.950000e-01    5.533000e+00
   C3r   Q3n  1 4.700000e-01    3.166000e+00
   C3r  SQ3n  1 4.300000e-01    3.535000e+00
   C3r  TQ3n  1 3.980000e-01    4.606000e+00
   C2r   Q3n  1 5.200000e-01    2.402000e+00
   C2r  SQ3n  1 4.730000e-01    2.316000e+00
   C2r  TQ3n  1 4.650000e-01    2.942000e+00
   C1r   Q3n  1 5.200000e-01    2.315000e+00
   C1r  SQ3n  1 4.730000e-01    1.996000e+00
   C1r  TQ3n  1 4.650000e-01    2.251000e+00
   X4r   Q3n  1 4.700000e-01    3.802000e+00
   X4r  SQ3n  1 4.300000e-01    4.825000e+00
   X4r  TQ3n  1 3.950000e-01    6.862000e+00
   X3r   Q3n  1 4.700000e-01    3.608000e+00
   X3r  SQ3n  1 4.300000e-01    4.498000e+00
   X3r  TQ3n  1 3.950000e-01    6.402000e+00
   X2r   Q3n  1 4.700000e-01    3.444000e+00
   X2r  SQ3n  1 4.300000e-01    4.089000e+00
   X2r  TQ3n  1 3.950000e-01    5.761000e+00
   X1r   Q3n  1 4.700000e-01    3.166000e+00
   X1r  SQ3n  1 4.300000e-01    3.535000e+00
   X1r  TQ3n  1 3.980000e-01    4.606000e+00
  P6dr   Q3n  1 4.700000e-01    5.445000e+00
  P6dr  SQ3n  1 4.300000e-01    7.015000e+00
  P6dr  TQ3n  1 3.950000e-01    1.027700e+01
  P5dr   Q3n  1 4.700000e-01    5.432000e+00
  P5dr  SQ3n  1 4.300000e-01    6.966000e+00
  P5dr  TQ3n  1 3.950000e-01    1.016400e+01
  P4dr   Q3n  1 4.700000e-01    5.415000e+00
  P4dr  SQ3n  1 4.300000e-01    6.906000e+00
  P4dr  TQ3n  1 3.950000e-01    1.002600e+01
  P3dr   Q3n  1 4.700000e-01    5.405000e+00
  P3dr  SQ3n  1 4.300000e-01    6.868000e+00
  P3dr  TQ3n  1 3.950000e-01    9.937000e+00
  P2dr   Q3n  1 4.700000e-01    5.147000e+00
  P2dr  SQ3n  1 4.300000e-01    6.610000e+00
  P2dr  TQ3n  1 3.950000e-01    9.553000e+00
  P1dr   Q3n  1 4.700000e-01    4.911000e+00
  P1dr  SQ3n  1 4.300000e-01    6.388000e+00
  P1dr  TQ3n  1 3.950000e-01    9.262000e+00
  N6dr   Q3n  1 4.700000e-01    4.904000e+00
  N6dr  SQ3n  1 4.300000e-01    6.363000e+00
  N6dr  TQ3n  1 3.950000e-01    9.203000e+00
  N5dr   Q3n  1 4.700000e-01    4.896000e+00
  N5dr  SQ3n  1 4.300000e-01    6.333000e+00
  N5dr  TQ3n  1 3.950000e-01    9.134000e+00
  N4dr   Q3n  1 4.700000e-01    4.886000e+00
  N4dr  SQ3n  1 4.300000e-01    6.295000e+00
  N4dr  TQ3n  1 3.950000e-01    9.048000e+00
  N3dr   Q3n  1 4.700000e-01    4.683000e+00
  N3dr  SQ3n  1 4.300000e-01    6.048000e+00
  N3dr  TQ3n  1 3.950000e-01    8.698000e+00
  N2dr   Q3n  1 4.700000e-01    4.665000e+00
  N2dr  SQ3n  1 4.300000e-01    5.984000e+00
  N2dr  TQ3n  1 3.950000e-01    8.549000e+00
  N1dr   Q3n  1 4.700000e-01    4.640000e+00
  N1dr  SQ3n  1 4.300000e-01    5.890000e+00
  N1dr  TQ3n  1 3.950000e-01    8.333000e+00
  P6ar   Q3n  1 4.700000e-01    4.775000e+00
  P6ar  SQ3n  1 4.300000e-01    6.385000e+00
  P6ar  TQ3n  1 3.950000e-01    9.477000e+00
  P5ar   Q3n  1 4.700000e-01    4.762000e+00
  P5ar  SQ3n  1 4.300000e-01    6.336000e+00
  P5ar  TQ3n  1 3.950000e-01    9.364000e+00
  P4ar   Q3n  1 4.700000e-01    4.745000e+00
  P4ar  SQ3n  1 4.300000e-01    6.276000e+00
  P4ar  TQ3n  1 3.950000e-01    9.226000e+00
  P3ar   Q3n  1 4.700000e-01    4.735000e+00
  P3ar  SQ3n  1 4.300000e-01    6.238000e+00
  P3ar  TQ3n  1 3.950000e-01    9.137000e+00
  P2ar   Q3n  1 4.700000e-01    4.547000e+00
  P2ar  SQ3n  1 4.300000e-01    6.030000e+00
  P2ar  TQ3n  1 3.950000e-01    8.833000e+00
  P1ar   Q3n  1 4.700000e-01    4.351000e+00
  P1ar  SQ3n  1 4.300000e-01    5.798000e+00
  P1ar  TQ3n  1 3.950000e-01    8.532000e+00
  N6ar   Q3n  1 4.700000e-01    4.344000e+00
  N6ar  SQ3n  1 4.300000e-01    5.773000e+00
  N6ar  TQ3n  1 3.950000e-01    8.473000e+00
  N5ar   Q3n  1 4.700000e-01    4.336000e+00
  N5ar  SQ3n  1 4.300000e-01    5.743000e+00
  N5ar  TQ3n  1 3.950000e-01    8.404000e+00
  N4ar   Q3n  1 4.700000e-01    4.326000e+00
  N4ar  SQ3n  1 4.300000e-01    5.705000e+00
  N4ar  TQ3n  1 3.950000e-01    8.318000e+00
  N3ar   Q3n  1 4.700000e-01    4.143000e+00
  N3ar  SQ3n  1 4.300000e-01    5.438000e+00
  N3ar  TQ3n  1 3.950000e-01    7.968000e+00
  N2ar   Q3n  1 4.700000e-01    4.125000e+00
  N2ar  SQ3n  1 4.300000e-01    5.374000e+00
  N2ar  TQ3n  1 3.950000e-01    7.819000e+00
  N1ar   Q3n  1 4.700000e-01    4.100000e+00
  N1ar  SQ3n  1 4.300000e-01    5.280000e+00
  N1ar  TQ3n  1 3.950000e-01    7.603000e+00
  C6vr   Q3n  1 4.700000e-01    3.928000e+00
  C6vr  SQ3n  1 4.300000e-01    4.898000e+00
  C6vr  TQ3n  1 3.950000e-01    7.052000e+00
  C5vr   Q3n  1 4.700000e-01    3.745000e+00
  C5vr  SQ3n  1 4.300000e-01    4.769000e+00
  C5vr  TQ3n  1 3.950000e-01    6.585000e+00
  C4vr   Q3n  1 4.700000e-01    3.527000e+00
  C4vr  SQ3n  1 4.300000e-01    4.200000e+00
  C4vr  TQ3n  1 3.950000e-01    5.973000e+00
  C3vr   Q3n  1 4.700000e-01    3.336000e+00
  C3vr  SQ3n  1 4.300000e-01    3.695000e+00
  C3vr  TQ3n  1 3.950000e-01    5.030000e+00
  C2vr   Q3n  1 4.850000e-01    2.542000e+00
  C2vr  SQ3n  1 4.430000e-01    2.587000e+00
  C2vr  TQ3n  1 4.010000e-01    3.580000e+00
  C1vr   Q3n  1 4.850000e-01    2.449000e+00
  C1vr  SQ3n  1 4.430000e-01    2.245000e+00
  C1vr  TQ3n  1 4.010000e-01    2.778000e+00
  X4vr   Q3n  1 4.700000e-01    3.952000e+00
  X4vr  SQ3n  1 4.300000e-01    4.985000e+00
  X4vr  TQ3n  1 3.950000e-01    7.252000e+00
  X3vr   Q3n  1 4.700000e-01    3.778000e+00
  X3vr  SQ3n  1 4.300000e-01    4.888000e+00
  X3vr  TQ3n  1 3.950000e-01    6.862000e+00
  X2vr   Q3n  1 4.700000e-01    3.554000e+00
  X2vr  SQ3n  1 4.300000e-01    4.299000e+00
  X2vr  TQ3n  1 3.950000e-01    6.201000e+00
  X1vr   Q3n  1 4.700000e-01    3.336000e+00
  X1vr  SQ3n  1 4.300000e-01    3.695000e+00
  X1vr  TQ3n  1 3.950000e-01    5.030000e+00
  C6er   Q3n  1 4.700000e-01    3.498000e+00
  C6er  SQ3n  1 4.300000e-01    4.288000e+00
  C6er  TQ3n  1 3.950000e-01    6.402000e+00
  C5er   Q3n  1 4.700000e-01    3.295000e+00
  C5er  SQ3n  1 4.300000e-01    4.009000e+00
  C5er  TQ3n  1 3.950000e-01    5.945000e+00
  C4er   Q3n  1 4.700000e-01    3.077000e+00
  C4er  SQ3n  1 4.300000e-01    3.600000e+00
  C4er  TQ3n  1 3.980000e-01    5.284000e+00
  C3er   Q3n  1 4.700000e-01    2.816000e+00
  C3er  SQ3n  1 4.300000e-01    3.105000e+00
  C3er  TQ3n  1 3.990000e-01    4.328000e+00
  C2er   Q3n  1 6.200000e-01    2.196000e+00
  C2er  SQ3n  1 5.140000e-01    2.064000e+00
  C2er  TQ3n  1 5.110000e-01    2.697000e+00
  C1er   Q3n  1 6.200000e-01    2.123000e+00
  C1er  SQ3n  1 5.140000e-01    1.769000e+00
  C1er  TQ3n  1 5.110000e-01    2.067000e+00
  X4er   Q3n  1 4.700000e-01    3.522000e+00
  X4er  SQ3n  1 4.300000e-01    4.375000e+00
  X4er  TQ3n  1 3.950000e-01    6.602000e+00
  X3er   Q3n  1 4.700000e-01    3.328000e+00
  X3er  SQ3n  1 4.300000e-01    4.128000e+00
  X3er  TQ3n  1 3.950000e-01    6.222000e+00
  X2er   Q3n  1 4.700000e-01    3.104000e+00
  X2er  SQ3n  1 4.300000e-01    3.699000e+00
  X2er  TQ3n  1 3.980000e-01    5.510000e+00
  X1er   Q3n  1 4.700000e-01    2.816000e+00
  X1er  SQ3n  1 4.300000e-01    3.105000e+00
  X1er  TQ3n  1 3.990000e-01    4.328000e+00
   SP6   Q3n  1 4.300000e-01    4.889000e+00
   SP6  SQ3n  1 4.100000e-01    6.525000e+00
   SP6  TQ3n  1 3.650000e-01    8.835000e+00
   SP5   Q3n  1 4.300000e-01    4.881000e+00
   SP5  SQ3n  1 4.100000e-01    6.485000e+00
   SP5  TQ3n  1 3.650000e-01    8.750000e+00
   SP4   Q3n  1 4.300000e-01    4.871000e+00
   SP4  SQ3n  1 4.100000e-01    6.434000e+00
   SP4  TQ3n  1 3.650000e-01    8.644000e+00
   SP3   Q3n  1 4.300000e-01    4.864000e+00
   SP3  SQ3n  1 4.100000e-01    6.400000e+00
   SP3  TQ3n  1 3.650000e-01    8.573000e+00
   SP2   Q3n  1 4.300000e-01    4.629000e+00
   SP2  SQ3n  1 4.100000e-01    6.155000e+00
   SP2  TQ3n  1 3.650000e-01    8.251000e+00
   SP1   Q3n  1 4.300000e-01    4.426000e+00
   SP1  SQ3n  1 4.100000e-01    5.866000e+00
   SP1  TQ3n  1 3.650000e-01    7.940000e+00
   SN6   Q3n  1 4.300000e-01    4.421000e+00
   SN6  SQ3n  1 4.100000e-01    5.843000e+00
   SN6  TQ3n  1 3.650000e-01    7.892000e+00
   SN5   Q3n  1 4.300000e-01    4.416000e+00
   SN5  SQ3n  1 4.100000e-01    5.815000e+00
   SN5  TQ3n  1 3.650000e-01    7.835000e+00
   SN4   Q3n  1 4.300000e-01    4.409000e+00
   SN4  SQ3n  1 4.100000e-01    5.781000e+00
   SN4  TQ3n  1 3.650000e-01    7.763000e+00
   SN3   Q3n  1 4.300000e-01    4.200000e+00
   SN3  SQ3n  1 4.100000e-01    5.497000e+00
   SN3  TQ3n  1 3.650000e-01    7.402000e+00
   SN2   Q3n  1 4.300000e-01    4.189000e+00
   SN2  SQ3n  1 4.100000e-01    5.438000e+00
   SN2  TQ3n  1 3.650000e-01    7.277000e+00
   SN1   Q3n  1 4.300000e-01    4.171000e+00
   SN1  SQ3n  1 4.100000e-01    5.350000e+00
   SN1  TQ3n  1 3.650000e-01    7.095000e+00
   SC6   Q3n  1 4.300000e-01    3.143000e+00
   SC6  SQ3n  1 4.100000e-01    4.098000e+00
   SC6  TQ3n  1 3.650000e-01    5.718000e+00
   SC5   Q3n  1 4.300000e-01    2.881000e+00
   SC5  SQ3n  1 4.100000e-01    3.826000e+00
   SC5  TQ3n  1 3.660000e-01    5.322000e+00
   SC4   Q3n  1 4.300000e-01    2.638000e+00
   SC4  SQ3n  1 4.100000e-01    3.528000e+00
   SC4  TQ3n  1 3.780000e-01    4.716000e+00
   SC3   Q3n  1 4.300000e-01    2.424000e+00
   SC3  SQ3n  1 4.100000e-01    3.090000e+00
   SC3  TQ3n  1 3.940000e-01    3.885000e+00
   SC2   Q3n  1 4.730000e-01    1.480000e+00
   SC2  SQ3n  1 4.530000e-01    2.163000e+00
   SC2  TQ3n  1 4.840000e-01    2.654000e+00
   SC1   Q3n  1 4.730000e-01    1.421000e+00
   SC1  SQ3n  1 4.530000e-01    1.862000e+00
   SC1  TQ3n  1 4.840000e-01    2.131000e+00
   SX4   Q3n  1 4.300000e-01    3.159000e+00
   SX4  SQ3n  1 4.100000e-01    4.179000e+00
   SX4  TQ3n  1 3.650000e-01    5.887000e+00
   SX3   Q3n  1 4.300000e-01    2.903000e+00
   SX3  SQ3n  1 4.100000e-01    3.938000e+00
   SX3  TQ3n  1 3.660000e-01    5.557000e+00
   SX2   Q3n  1 4.300000e-01    2.657000e+00
   SX2  SQ3n  1 4.100000e-01    3.621000e+00
   SX2  TQ3n  1 3.780000e-01    4.904000e+00
   SX1   Q3n  1 4.300000e-01    2.424000e+00
   SX1  SQ3n  1 4.100000e-01    3.090000e+00
   SX1  TQ3n  1 3.940000e-01    3.885000e+00
  SP6d   Q3n  1 4.300000e-01    4.889000e+00
  SP6d  SQ3n  1 4.100000e-01    6.775000e+00
  SP6d  TQ3n  1 3.650000e-01    9.125000e+00
  SP5d   Q3n  1 4.300000e-01    4.881000e+00
  SP5d  SQ3n  1 4.100000e-01    6.735000e+00
  SP5d  TQ3n  1 3.650000e-01    9.040000e+00
  SP4d   Q3n  1 4.300000e-01    4.871000e+00
  SP4d  SQ3n  1 4.100000e-01    6.684000e+00
  SP4d  TQ3n  1 3.650000e-01    8.934000e+00
  SP3d   Q3n  1 4.300000e-01    4.864000e+00
  SP3d  SQ3n  1 4.100000e-01    6.650000e+00
  SP3d  TQ3n  1 3.650000e-01    8.863000e+00
  SP2d   Q3n  1 4.300000e-01    4.629000e+00
  SP2d  SQ3n  1 4.100000e-01    6.375000e+00
  SP2d  TQ3n  1 3.650000e-01    8.521000e+00
  SP1d   Q3n  1 4.300000e-01    4.426000e+00
  SP1d  SQ3n  1 4.100000e-01    6.136000e+00
  SP1d  TQ3n  1 3.650000e-01    8.210000e+00
  SN6d   Q3n  1 4.300000e-01    4.421000e+00
  SN6d  SQ3n  1 4.100000e-01    6.113000e+00
  SN6d  TQ3n  1 3.650000e-01    8.162000e+00
  SN5d   Q3n  1 4.300000e-01    4.416000e+00
  SN5d  SQ3n  1 4.100000e-01    6.085000e+00
  SN5d  TQ3n  1 3.650000e-01    8.105000e+00
  SN4d   Q3n  1 4.300000e-01    4.409000e+00
  SN4d  SQ3n  1 4.100000e-01    6.051000e+00
  SN4d  TQ3n  1 3.650000e-01    8.033000e+00
  SN3d   Q3n  1 4.300000e-01    4.200000e+00
  SN3d  SQ3n  1 4.100000e-01    5.737000e+00
  SN3d  TQ3n  1 3.650000e-01    7.672000e+00
  SN2d   Q3n  1 4.300000e-01    4.189000e+00
  SN2d  SQ3n  1 4.100000e-01    5.678000e+00
  SN2d  TQ3n  1 3.650000e-01    7.547000e+00
  SN1d   Q3n  1 4.300000e-01    4.171000e+00
  SN1d  SQ3n  1 4.100000e-01    5.590000e+00
  SN1d  TQ3n  1 3.650000e-01    7.365000e+00
  SP6a   Q3n  1 4.300000e-01    4.259000e+00
  SP6a  SQ3n  1 4.100000e-01    6.035000e+00
  SP6a  TQ3n  1 3.650000e-01    8.295000e+00
  SP5a   Q3n  1 4.300000e-01    4.251000e+00
  SP5a  SQ3n  1 4.100000e-01    5.995000e+00
  SP5a  TQ3n  1 3.650000e-01    8.210000e+00
  SP4a   Q3n  1 4.300000e-01    4.241000e+00
  SP4a  SQ3n  1 4.100000e-01    5.944000e+00
  SP4a  TQ3n  1 3.650000e-01    8.104000e+00
  SP3a   Q3n  1 4.300000e-01    4.234000e+00
  SP3a  SQ3n  1 4.100000e-01    5.910000e+00
  SP3a  TQ3n  1 3.650000e-01    8.033000e+00
  SP2a   Q3n  1 4.300000e-01    4.049000e+00
  SP2a  SQ3n  1 4.100000e-01    5.645000e+00
  SP2a  TQ3n  1 3.650000e-01    7.711000e+00
  SP1a   Q3n  1 4.300000e-01    3.836000e+00
  SP1a  SQ3n  1 4.100000e-01    5.386000e+00
  SP1a  TQ3n  1 3.650000e-01    7.410000e+00
  SN6a   Q3n  1 4.300000e-01    3.831000e+00
  SN6a  SQ3n  1 4.100000e-01    5.363000e+00
  SN6a  TQ3n  1 3.650000e-01    7.362000e+00
  SN5a   Q3n  1 4.300000e-01    3.826000e+00
  SN5a  SQ3n  1 4.100000e-01    5.335000e+00
  SN5a  TQ3n  1 3.650000e-01    7.305000e+00
  SN4a   Q3n  1 4.300000e-01    3.819000e+00
  SN4a  SQ3n  1 4.100000e-01    5.301000e+00
  SN4a  TQ3n  1 3.650000e-01    7.233000e+00
  SN3a   Q3n  1 4.300000e-01    3.590000e+00
  SN3a  SQ3n  1 4.100000e-01    5.027000e+00
  SN3a  TQ3n  1 3.650000e-01    6.912000e+00
  SN2a   Q3n  1 4.300000e-01    3.579000e+00
  SN2a  SQ3n  1 4.100000e-01    4.968000e+00
  SN2a  TQ3n  1 3.650000e-01    6.787000e+00
  SN1a   Q3n  1 4.300000e-01    3.561000e+00
  SN1a  SQ3n  1 4.100000e-01    4.880000e+00
  SN1a  TQ3n  1 3.650000e-01    6.605000e+00
  SC6v   Q3n  1 4.300000e-01    3.303000e+00
  SC6v  SQ3n  1 4.100000e-01    4.498000e+00
  SC6v  TQ3n  1 3.650000e-01    6.078000e+00
  SC5v   Q3n  1 4.300000e-01    3.271000e+00
  SC5v  SQ3n  1 4.100000e-01    4.136000e+00
  SC5v  TQ3n  1 3.650000e-01    5.642000e+00
  SC4v   Q3n  1 4.300000e-01    2.848000e+00
  SC4v  SQ3n  1 4.100000e-01    3.818000e+00
  SC4v  TQ3n  1 3.650000e-01    5.132000e+00
  SC3v   Q3n  1 4.300000e-01    2.584000e+00
  SC3v  SQ3n  1 4.100000e-01    3.380000e+00
  SC3v  TQ3n  1 3.660000e-01    4.394000e+00
  SC2v   Q3n  1 4.430000e-01    1.694000e+00
  SC2v  SQ3n  1 4.180000e-01    2.497000e+00
  SC2v  TQ3n  1 4.090000e-01    3.167000e+00
  SC1v   Q3n  1 4.430000e-01    1.630000e+00
  SC1v  SQ3n  1 4.180000e-01    2.172000e+00
  SC1v  TQ3n  1 4.090000e-01    2.548000e+00
  SX4v   Q3n  1 4.300000e-01    3.319000e+00
  SX4v  SQ3n  1 4.100000e-01    4.579000e+00
  SX4v  TQ3n  1 3.650000e-01    6.247000e+00
  SX3v   Q3n  1 4.300000e-01    3.293000e+00
  SX3v  SQ3n  1 4.100000e-01    4.248000e+00
  SX3v  TQ3n  1 3.650000e-01    5.878000e+00
  SX2v   Q3n  1 4.300000e-01    2.867000e+00
  SX2v  SQ3n  1 4.100000e-01    3.911000e+00
  SX2v  TQ3n  1 3.650000e-01    5.327000e+00
  SX1v   Q3n  1 4.300000e-01    2.584000e+00
  SX1v  SQ3n  1 4.100000e-01    3.380000e+00
  SX1v  TQ3n  1 3.660000e-01    4.394000e+00
  SC6e   Q3n  1 4.300000e-01    2.693000e+00
  SC6e  SQ3n  1 4.100000e-01    3.938000e+00
  SC6e  TQ3n  1 3.660000e-01    5.557000e+00
  SC5e   Q3n  1 4.300000e-01    2.511000e+00
  SC5e  SQ3n  1 4.100000e-01    3.696000e+00
  SC5e  TQ3n  1 3.780000e-01    5.054000e+00
  SC4e   Q3n  1 4.300000e-01    2.248000e+00
  SC4e  SQ3n  1 4.100000e-01    3.368000e+00
  SC4e  TQ3n  1 3.940000e-01    4.423000e+00
  SC3e   Q3n  1 4.300000e-01    1.994000e+00
  SC3e  SQ3n  1 4.140000e-01    2.887000e+00
  SC3e  TQ3n  1 4.040000e-01    3.661000e+00
  SC2e   Q3n  1 5.140000e-01    1.294000e+00
  SC2e  SQ3n  1 4.960000e-01    1.975000e+00
  SC2e  TQ3n  1 5.370000e-01    2.398000e+00
  SC1e   Q3n  1 5.140000e-01    1.240000e+00
  SC1e  SQ3n  1 4.960000e-01    1.701000e+00
  SC1e  TQ3n  1 5.370000e-01    1.926000e+00
  SX4e   Q3n  1 4.300000e-01    2.709000e+00
  SX4e  SQ3n  1 4.100000e-01    4.019000e+00
  SX4e  TQ3n  1 3.660000e-01    5.725000e+00
  SX3e   Q3n  1 4.300000e-01    2.533000e+00
  SX3e  SQ3n  1 4.100000e-01    3.808000e+00
  SX3e  TQ3n  1 3.780000e-01    5.281000e+00
  SX2e   Q3n  1 4.300000e-01    2.267000e+00
  SX2e  SQ3n  1 4.100000e-01    3.461000e+00
  SX2e  TQ3n  1 3.940000e-01    4.603000e+00
  SX1e   Q3n  1 4.300000e-01    1.994000e+00
  SX1e  SQ3n  1 4.140000e-01    2.887000e+00
  SX1e  TQ3n  1 4.040000e-01    3.661000e+00
  SP6q   Q3n  1 4.300000e-01    5.699000e+00
  SP6q  SQ3n  1 4.100000e-01    7.325000e+00
  SP6q  TQ3n  1 3.650000e-01    9.705000e+00
  SP5q   Q3n  1 4.300000e-01    5.691000e+00
  SP5q  SQ3n  1 4.100000e-01    7.285000e+00
  SP5q  TQ3n  1 3.650000e-01    9.620000e+00
  SP4q   Q3n  1 4.300000e-01    5.681000e+00
  SP4q  SQ3n  1 4.100000e-01    7.234000e+00
  SP4q  TQ3n  1 3.650000e-01    9.514000e+00
  SP3q   Q3n  1 4.300000e-01    5.674000e+00
  SP3q  SQ3n  1 4.100000e-01    7.200000e+00
  SP3q  TQ3n  1 3.650000e-01    9.443000e+00
  SP2q   Q3n  1 4.300000e-01    5.379000e+00
  SP2q  SQ3n  1 4.100000e-01    6.885000e+00
  SP2q  TQ3n  1 3.650000e-01    9.101000e+00
  SP1q   Q3n  1 4.300000e-01    5.136000e+00
  SP1q  SQ3n  1 4.100000e-01    6.606000e+00
  SP1q  TQ3n  1 3.650000e-01    8.770000e+00
  SN6q   Q3n  1 4.300000e-01    5.131000e+00
  SN6q  SQ3n  1 4.100000e-01    6.583000e+00
  SN6q  TQ3n  1 3.650000e-01    8.722000e+00
  SN5q   Q3n  1 4.300000e-01    5.126000e+00
  SN5q  SQ3n  1 4.100000e-01    6.555000e+00
  SN5q  TQ3n  1 3.650000e-01    8.665000e+00
  SN4q   Q3n  1 4.300000e-01    5.119000e+00
  SN4q  SQ3n  1 4.100000e-01    6.521000e+00
  SN4q  TQ3n  1 3.650000e-01    8.593000e+00
  SN3q   Q3n  1 4.300000e-01    4.830000e+00
  SN3q  SQ3n  1 4.100000e-01    6.227000e+00
  SN3q  TQ3n  1 3.650000e-01    8.212000e+00
  SN2q   Q3n  1 4.300000e-01    4.819000e+00
  SN2q  SQ3n  1 4.100000e-01    6.168000e+00
  SN2q  TQ3n  1 3.650000e-01    8.087000e+00
  SN1q   Q3n  1 4.300000e-01    4.801000e+00
  SN1q  SQ3n  1 4.100000e-01    6.080000e+00
  SN1q  TQ3n  1 3.650000e-01    7.905000e+00
  SC6q   Q3n  1 4.300000e-01    3.753000e+00
  SC6q  SQ3n  1 4.100000e-01    4.738000e+00
  SC6q  TQ3n  1 3.650000e-01    6.308000e+00
  SC5q   Q3n  1 4.300000e-01    3.511000e+00
  SC5q  SQ3n  1 4.100000e-01    4.386000e+00
  SC5q  TQ3n  1 3.650000e-01    5.842000e+00
  SC4q   Q3n  1 4.300000e-01    3.238000e+00
  SC4q  SQ3n  1 4.100000e-01    3.968000e+00
  SC4q  TQ3n  1 3.650000e-01    5.292000e+00
  SC3q   Q3n  1 4.300000e-01    3.034000e+00
  SC3q  SQ3n  1 4.100000e-01    3.540000e+00
  SC3q  TQ3n  1 3.650000e-01    4.552000e+00
  SC2q   Q3n  1 4.300000e-01    2.150000e+00
  SC2q  SQ3n  1 4.140000e-01    2.668000e+00
  SC2q  TQ3n  1 4.040000e-01    3.243000e+00
  SC1q   Q3n  1 4.300000e-01    2.085000e+00
  SC1q  SQ3n  1 4.140000e-01    2.339000e+00
  SC1q  TQ3n  1 4.040000e-01    2.616000e+00
  SX4q   Q3n  1 4.300000e-01    3.769000e+00
  SX4q  SQ3n  1 4.100000e-01    4.819000e+00
  SX4q  TQ3n  1 3.650000e-01    6.477000e+00
  SX3q   Q3n  1 4.300000e-01    3.533000e+00
  SX3q  SQ3n  1 4.100000e-01    4.498000e+00
  SX3q  TQ3n  1 3.650000e-01    6.078000e+00
  SX2q   Q3n  1 4.300000e-01    3.257000e+00
  SX2q  SQ3n  1 4.100000e-01    4.061000e+00
  SX2q  TQ3n  1 3.650000e-01    5.487000e+00
  SX1q   Q3n  1 4.300000e-01    3.034000e+00
  SX1q  SQ3n  1 4.100000e-01    3.540000e+00
  SX1q  TQ3n  1 3.650000e-01    4.552000e+00
 SP6dq   Q3n  1 4.300000e-01    5.699000e+00
 SP6dq  SQ3n  1 4.100000e-01    7.615000e+00
 SP6dq  TQ3n  1 3.650000e-01    1.005500e+01
 SP5dq   Q3n  1 4.300000e-01    5.691000e+00
 SP5dq  SQ3n  1 4.100000e-01    7.575000e+00
 SP5dq  TQ3n  1 3.650000e-01    9.970000e+00
 SP4dq   Q3n  1 4.300000e-01    5.681000e+00
 SP4dq  SQ3n  1 4.100000e-01    7.524000e+00
 SP4dq  TQ3n  1 3.650000e-01    9.864000e+00
 SP3dq   Q3n  1 4.300000e-01    5.674000e+00
 SP3dq  SQ3n  1 4.100000e-01    7.490000e+00
 SP3dq  TQ3n  1 3.650000e-01    9.793000e+00
 SP2dq   Q3n  1 4.300000e-01    5.379000e+00
 SP2dq  SQ3n  1 4.100000e-01    7.175000e+00
 SP2dq  TQ3n  1 3.650000e-01    9.391000e+00
 SP1dq   Q3n  1 4.300000e-01    5.136000e+00
 SP1dq  SQ3n  1 4.100000e-01    6.866000e+00
 SP1dq  TQ3n  1 3.650000e-01    9.060000e+00
 SN6dq   Q3n  1 4.300000e-01    5.131000e+00
 SN6dq  SQ3n  1 4.100000e-01    6.843000e+00
 SN6dq  TQ3n  1 3.650000e-01    9.012000e+00
 SN5dq   Q3n  1 4.300000e-01    5.126000e+00
 SN5dq  SQ3n  1 4.100000e-01    6.815000e+00
 SN5dq  TQ3n  1 3.650000e-01    8.955000e+00
 SN4dq   Q3n  1 4.300000e-01    5.119000e+00
 SN4dq  SQ3n  1 4.100000e-01    6.781000e+00
 SN4dq  TQ3n  1 3.650000e-01    8.883000e+00
 SN3dq   Q3n  1 4.300000e-01    4.830000e+00
 SN3dq  SQ3n  1 4.100000e-01    6.477000e+00
 SN3dq  TQ3n  1 3.650000e-01    8.502000e+00
 SN2dq   Q3n  1 4.300000e-01    4.819000e+00
 SN2dq  SQ3n  1 4.100000e-01    6.418000e+00
 SN2dq  TQ3n  1 3.650000e-01    8.377000e+00
 SN1dq   Q3n  1 4.300000e-01    4.801000e+00
 SN1dq  SQ3n  1 4.100000e-01    6.330000e+00
 SN1dq  TQ3n  1 3.650000e-01    8.195000e+00
 SP6aq   Q3n  1 4.300000e-01    4.889000e+00
 SP6aq  SQ3n  1 4.100000e-01    6.775000e+00
 SP6aq  TQ3n  1 3.650000e-01    9.125000e+00
 SP5aq   Q3n  1 4.300000e-01    4.881000e+00
 SP5aq  SQ3n  1 4.100000e-01    6.735000e+00
 SP5aq  TQ3n  1 3.650000e-01    9.040000e+00
 SP4aq   Q3n  1 4.300000e-01    4.871000e+00
 SP4aq  SQ3n  1 4.100000e-01    6.684000e+00
 SP4aq  TQ3n  1 3.650000e-01    8.934000e+00
 SP3aq   Q3n  1 4.300000e-01    4.864000e+00
 SP3aq  SQ3n  1 4.100000e-01    6.650000e+00
 SP3aq  TQ3n  1 3.650000e-01    8.863000e+00
 SP2aq   Q3n  1 4.300000e-01    4.629000e+00
 SP2aq  SQ3n  1 4.100000e-01    6.375000e+00
 SP2aq  TQ3n  1 3.650000e-01    8.521000e+00
 SP1aq   Q3n  1 4.300000e-01    4.426000e+00
 SP1aq  SQ3n  1 4.100000e-01    6.136000e+00
 SP1aq  TQ3n  1 3.650000e-01    8.210000e+00
 SN6aq   Q3n  1 4.300000e-01    4.421000e+00
 SN6aq  SQ3n  1 4.100000e-01    6.113000e+00
 SN6aq  TQ3n  1 3.650000e-01    8.162000e+00
 SN5aq   Q3n  1 4.300000e-01    4.416000e+00
 SN5aq  SQ3n  1 4.100000e-01    6.085000e+00
 SN5aq  TQ3n  1 3.650000e-01    8.105000e+00
 SN4aq   Q3n  1 4.300000e-01    4.409000e+00
 SN4aq  SQ3n  1 4.100000e-01    6.051000e+00
 SN4aq  TQ3n  1 3.650000e-01    8.033000e+00
 SN3aq   Q3n  1 4.300000e-01    4.200000e+00
 SN3aq  SQ3n  1 4.100000e-01    5.737000e+00
 SN3aq  TQ3n  1 3.650000e-01    7.672000e+00
 SN2aq   Q3n  1 4.300000e-01    4.189000e+00
 SN2aq  SQ3n  1 4.100000e-01    5.678000e+00
 SN2aq  TQ3n  1 3.650000e-01    7.547000e+00
 SN1aq   Q3n  1 4.300000e-01    4.171000e+00
 SN1aq  SQ3n  1 4.100000e-01    5.590000e+00
 SN1aq  TQ3n  1 3.650000e-01    7.365000e+00
 SC6vq   Q3n  1 4.300000e-01    3.963000e+00
 SC6vq  SQ3n  1 4.100000e-01    5.208000e+00
 SC6vq  TQ3n  1 3.650000e-01    6.798000e+00
 SC5vq   Q3n  1 4.300000e-01    3.731000e+00
 SC5vq  SQ3n  1 4.100000e-01    4.856000e+00
 SC5vq  TQ3n  1 3.650000e-01    6.302000e+00
 SC4vq   Q3n  1 4.300000e-01    3.478000e+00
 SC4vq  SQ3n  1 4.100000e-01    4.458000e+00
 SC4vq  TQ3n  1 3.650000e-01    5.722000e+00
 SC3vq   Q3n  1 4.300000e-01    3.194000e+00
 SC3vq  SQ3n  1 4.100000e-01    3.940000e+00
 SC3vq  TQ3n  1 3.650000e-01    4.912000e+00
 SC2vq   Q3n  1 4.300000e-01    2.380000e+00
 SC2vq  SQ3n  1 4.100000e-01    3.029000e+00
 SC2vq  TQ3n  1 3.780000e-01    3.708000e+00
 SC1vq   Q3n  1 4.300000e-01    2.315000e+00
 SC1vq  SQ3n  1 4.100000e-01    2.697000e+00
 SC1vq  TQ3n  1 3.780000e-01    3.038000e+00
 SX4vq   Q3n  1 4.300000e-01    3.979000e+00
 SX4vq  SQ3n  1 4.100000e-01    5.289000e+00
 SX4vq  TQ3n  1 3.650000e-01    6.967000e+00
 SX3vq   Q3n  1 4.300000e-01    3.753000e+00
 SX3vq  SQ3n  1 4.100000e-01    4.968000e+00
 SX3vq  TQ3n  1 3.650000e-01    6.538000e+00
 SX2vq   Q3n  1 4.300000e-01    3.497000e+00
 SX2vq  SQ3n  1 4.100000e-01    4.551000e+00
 SX2vq  TQ3n  1 3.650000e-01    5.917000e+00
 SX1vq   Q3n  1 4.300000e-01    3.194000e+00
 SX1vq  SQ3n  1 4.100000e-01    3.940000e+00
 SX1vq  TQ3n  1 3.650000e-01    4.912000e+00
 SC6eq   Q3n  1 4.300000e-01    3.303000e+00
 SC6eq  SQ3n  1 4.100000e-01    4.498000e+00
 SC6eq  TQ3n  1 3.650000e-01    6.078000e+00
 SC5eq   Q3n  1 4.300000e-01    3.271000e+00
 SC5eq  SQ3n  1 4.100000e-01    4.136000e+00
 SC5eq  TQ3n  1 3.650000e-01    5.642000e+00
 SC4eq   Q3n  1 4.300000e-01    2.848000e+00
 SC4eq  SQ3n  1 4.100000e-01    3.818000e+00
 SC4eq  TQ3n  1 3.650000e-01    5.132000e+00
 SC3eq   Q3n  1 4.300000e-01    2.584000e+00
 SC3eq  SQ3n  1 4.100000e-01    3.380000e+00
 SC3eq  TQ3n  1 3.660000e-01    4.394000e+00
 SC2eq   Q3n  1 4.430000e-01    1.694000e+00
 SC2eq  SQ3n  1 4.180000e-01    2.497000e+00
 SC2eq  TQ3n  1 4.090000e-01    3.167000e+00
 SC1eq   Q3n  1 4.430000e-01    1.630000e+00
 SC1eq  SQ3n  1 4.180000e-01    2.172000e+00
 SC1eq  TQ3n  1 4.090000e-01    2.548000e+00
 SX4eq   Q3n  1 4.300000e-01    3.319000e+00
 SX4eq  SQ3n  1 4.100000e-01    4.579000e+00
 SX4eq  TQ3n  1 3.650000e-01    6.247000e+00
 SX3eq   Q3n  1 4.300000e-01    3.293000e+00
 SX3eq  SQ3n  1 4.100000e-01    4.248000e+00
 SX3eq  TQ3n  1 3.650000e-01    5.878000e+00
 SX2eq   Q3n  1 4.300000e-01    2.867000e+00
 SX2eq  SQ3n  1 4.100000e-01    3.911000e+00
 SX2eq  TQ3n  1 3.650000e-01    5.327000e+00
 SX1eq   Q3n  1 4.300000e-01    2.584000e+00
 SX1eq  SQ3n  1 4.100000e-01    3.380000e+00
 SX1eq  TQ3n  1 3.660000e-01    4.394000e+00
  SP6h   Q3n  1 4.300000e-01    4.889000e+00
  SP6h  SQ3n  1 4.100000e-01    6.525000e+00
  SP6h  TQ3n  1 3.650000e-01    8.835000e+00
  SP5h   Q3n  1 4.300000e-01    4.881000e+00
  SP5h  SQ3n  1 4.100000e-01    6.485000e+00
  SP5h  TQ3n  1 3.650000e-01    8.750000e+00
  SP4h   Q3n  1 4.300000e-01    4.871000e+00
  SP4h  SQ3n  1 4.100000e-01    6.434000e+00
  SP4h  TQ3n  1 3.650000e-01    8.644000e+00
  SP3h   Q3n  1 4.300000e-01    4.864000e+00
  SP3h  SQ3n  1 4.100000e-01    6.400000e+00
  SP3h  TQ3n  1 3.650000e-01    8.573000e+00
  SP2h   Q3n  1 4.300000e-01    4.629000e+00
  SP2h  SQ3n  1 4.100000e-01    6.155000e+00
  SP2h  TQ3n  1 3.650000e-01    8.251000e+00
  SP1h   Q3n  1 4.300000e-01    4.426000e+00
  SP1h  SQ3n  1 4.100000e-01    5.866000e+00
  SP1h  TQ3n  1 3.650000e-01    7.940000e+00
  SN6h   Q3n  1 4.300000e-01    4.421000e+00
  SN6h  SQ3n  1 4.100000e-01    5.843000e+00
  SN6h  TQ3n  1 3.650000e-01    7.892000e+00
  SN5h   Q3n  1 4.300000e-01    4.416000e+00
  SN5h  SQ3n  1 4.100000e-01    5.815000e+00
  SN5h  TQ3n  1 3.650000e-01    7.835000e+00
  SN4h   Q3n  1 4.300000e-01    4.409000e+00
  SN4h  SQ3n  1 4.100000e-01    5.781000e+00
  SN4h  TQ3n  1 3.650000e-01    7.763000e+00
  SN3h   Q3n  1 4.300000e-01    4.200000e+00
  SN3h  SQ3n  1 4.100000e-01    5.497000e+00
  SN3h  TQ3n  1 3.650000e-01    7.402000e+00
  SN2h   Q3n  1 4.300000e-01    4.189000e+00
  SN2h  SQ3n  1 4.100000e-01    5.438000e+00
  SN2h  TQ3n  1 3.650000e-01    7.277000e+00
  SN1h   Q3n  1 4.300000e-01    4.171000e+00
  SN1h  SQ3n  1 4.100000e-01    5.350000e+00
  SN1h  TQ3n  1 3.650000e-01    7.095000e+00
  SC6h   Q3n  1 4.300000e-01    3.143000e+00
  SC6h  SQ3n  1 4.100000e-01    4.098000e+00
  SC6h  TQ3n  1 3.650000e-01    5.718000e+00
  SC5h   Q3n  1 4.300000e-01    2.881000e+00
  SC5h  SQ3n  1 4.100000e-01    3.826000e+00
  SC5h  TQ3n  1 3.660000e-01    5.322000e+00
  SC4h   Q3n  1 4.300000e-01    2.638000e+00
  SC4h  SQ3n  1 4.100000e-01    3.528000e+00
  SC4h  TQ3n  1 3.780000e-01    4.716000e+00
  SC3h   Q3n  1 4.300000e-01    2.424000e+00
  SC3h  SQ3n  1 4.100000e-01    3.090000e+00
  SC3h  TQ3n  1 3.940000e-01    3.885000e+00
  SC2h   Q3n  1 4.730000e-01    1.480000e+00
  SC2h  SQ3n  1 4.530000e-01    2.163000e+00
  SC2h  TQ3n  1 4.840000e-01    2.654000e+00
  SC1h   Q3n  1 4.730000e-01    1.421000e+00
  SC1h  SQ3n  1 4.530000e-01    1.862000e+00
  SC1h  TQ3n  1 4.840000e-01    2.131000e+00
  SX4h   Q3n  1 4.300000e-01    3.159000e+00
  SX4h  SQ3n  1 4.100000e-01    4.179000e+00
  SX4h  TQ3n  1 3.650000e-01    5.887000e+00
  SX3h   Q3n  1 4.300000e-01    2.903000e+00
  SX3h  SQ3n  1 4.100000e-01    3.938000e+00
  SX3h  TQ3n  1 3.660000e-01    5.557000e+00
  SX2h   Q3n  1 4.300000e-01    2.657000e+00
  SX2h  SQ3n  1 4.100000e-01    3.621000e+00
  SX2h  TQ3n  1 3.780000e-01    4.904000e+00
  SX1h   Q3n  1 4.300000e-01    2.424000e+00
  SX1h  SQ3n  1 4.100000e-01    3.090000e+00
  SX1h  TQ3n  1 3.940000e-01    3.885000e+00
 SP6dh   Q3n  1 4.300000e-01    4.889000e+00
 SP6dh  SQ3n  1 4.100000e-01    6.775000e+00
 SP6dh  TQ3n  1 3.650000e-01    9.125000e+00
 SP5dh   Q3n  1 4.300000e-01    4.881000e+00
 SP5dh  SQ3n  1 4.100000e-01    6.735000e+00
 SP5dh  TQ3n  1 3.650000e-01    9.040000e+00
 SP4dh   Q3n  1 4.300000e-01    4.871000e+00
 SP4dh  SQ3n  1 4.100000e-01    6.684000e+00
 SP4dh  TQ3n  1 3.650000e-01    8.934000e+00
 SP3dh   Q3n  1 4.300000e-01    4.864000e+00
 SP3dh  SQ3n  1 4.100000e-01    6.650000e+00
 SP3dh  TQ3n  1 3.650000e-01    8.863000e+00
 SP2dh   Q3n  1 4.300000e-01    4.629000e+00
 SP2dh  SQ3n  1 4.100000e-01    6.375000e+00
 SP2dh  TQ3n  1 3.650000e-01    8.521000e+00
 SP1dh   Q3n  1 4.300000e-01    4.426000e+00
 SP1dh  SQ3n  1 4.100000e-01    6.136000e+00
 SP1dh  TQ3n  1 3.650000e-01    8.210000e+00
 SN6dh   Q3n  1 4.300000e-01    4.421000e+00
 SN6dh  SQ3n  1 4.100000e-01    6.113000e+00
 SN6dh  TQ3n  1 3.650000e-01    8.162000e+00
 SN5dh   Q3n  1 4.300000e-01    4.416000e+00
 SN5dh  SQ3n  1 4.100000e-01    6.085000e+00
 SN5dh  TQ3n  1 3.650000e-01    8.105000e+00
 SN4dh   Q3n  1 4.300000e-01    4.409000e+00
 SN4dh  SQ3n  1 4.100000e-01    6.051000e+00
 SN4dh  TQ3n  1 3.650000e-01    8.033000e+00
 SN3dh   Q3n  1 4.300000e-01    4.200000e+00
 SN3dh  SQ3n  1 4.100000e-01    5.737000e+00
 SN3dh  TQ3n  1 3.650000e-01    7.672000e+00
 SN2dh   Q3n  1 4.300000e-01    4.189000e+00
 SN2dh  SQ3n  1 4.100000e-01    5.678000e+00
 SN2dh  TQ3n  1 3.650000e-01    7.547000e+00
 SN1dh   Q3n  1 4.300000e-01    4.171000e+00
 SN1dh  SQ3n  1 4.100000e-01    5.590000e+00
 SN1dh  TQ3n  1 3.650000e-01    7.365000e+00
 SP6ah   Q3n  1 4.300000e-01    4.259000e+00
 SP6ah  SQ3n  1 4.100000e-01    6.035000e+00
 SP6ah  TQ3n  1 3.650000e-01    8.295000e+00
 SP5ah   Q3n  1 4.300000e-01    4.251000e+00
 SP5ah  SQ3n  1 4.100000e-01    5.995000e+00
 SP5ah  TQ3n  1 3.650000e-01    8.210000e+00
 SP4ah   Q3n  1 4.300000e-01    4.241000e+00
 SP4ah  SQ3n  1 4.100000e-01    5.944000e+00
 SP4ah  TQ3n  1 3.650000e-01    8.104000e+00
 SP3ah   Q3n  1 4.300000e-01    4.234000e+00
 SP3ah  SQ3n  1 4.100000e-01    5.910000e+00
 SP3ah  TQ3n  1 3.650000e-01    8.033000e+00
 SP2ah   Q3n  1 4.300000e-01    4.049000e+00
 SP2ah  SQ3n  1 4.100000e-01    5.645000e+00
 SP2ah  TQ3n  1 3.650000e-01    7.711000e+00
 SP1ah   Q3n  1 4.300000e-01    3.836000e+00
 SP1ah  SQ3n  1 4.100000e-01    5.386000e+00
 SP1ah  TQ3n  1 3.650000e-01    7.410000e+00
 SN6ah   Q3n  1 4.300000e-01    3.831000e+00
 SN6ah  SQ3n  1 4.100000e-01    5.363000e+00
 SN6ah  TQ3n  1 3.650000e-01    7.362000e+00
 SN5ah   Q3n  1 4.300000e-01    3.826000e+00
 SN5ah  SQ3n  1 4.100000e-01    5.335000e+00
 SN5ah  TQ3n  1 3.650000e-01    7.305000e+00
 SN4ah   Q3n  1 4.300000e-01    3.819000e+00
 SN4ah  SQ3n  1 4.100000e-01    5.301000e+00
 SN4ah  TQ3n  1 3.650000e-01    7.233000e+00
 SN3ah   Q3n  1 4.300000e-01    3.590000e+00
 SN3ah  SQ3n  1 4.100000e-01    5.027000e+00
 SN3ah  TQ3n  1 3.650000e-01    6.912000e+00
 SN2ah   Q3n  1 4.300000e-01    3.579000e+00
 SN2ah  SQ3n  1 4.100000e-01    4.968000e+00
 SN2ah  TQ3n  1 3.650000e-01    6.787000e+00
 SN1ah   Q3n  1 4.300000e-01    3.561000e+00
 SN1ah  SQ3n  1 4.100000e-01    4.880000e+00
 SN1ah  TQ3n  1 3.650000e-01    6.605000e+00
 SC6vh   Q3n  1 4.300000e-01    3.303000e+00
 SC6vh  SQ3n  1 4.100000e-01    4.498000e+00
 SC6vh  TQ3n  1 3.650000e-01    6.078000e+00
 SC5vh   Q3n  1 4.300000e-01    3.271000e+00
 SC5vh  SQ3n  1 4.100000e-01    4.136000e+00
 SC5vh  TQ3n  1 3.650000e-01    5.642000e+00
 SC4vh   Q3n  1 4.300000e-01    2.848000e+00
 SC4vh  SQ3n  1 4.100000e-01    3.818000e+00
 SC4vh  TQ3n  1 3.650000e-01    5.132000e+00
 SC3vh   Q3n  1 4.300000e-01    2.584000e+00
 SC3vh  SQ3n  1 4.100000e-01    3.380000e+00
 SC3vh  TQ3n  1 3.660000e-01    4.394000e+00
 SC2vh   Q3n  1 4.430000e-01    1.694000e+00
 SC2vh  SQ3n  1 4.180000e-01    2.497000e+00
 SC2vh  TQ3n  1 4.090000e-01    3.167000e+00
 SC1vh   Q3n  1 4.430000e-01    1.630000e+00
 SC1vh  SQ3n  1 4.180000e-01    2.172000e+00
 SC1vh  TQ3n  1 4.090000e-01    2.548000e+00
 SX4vh   Q3n  1 4.300000e-01    3.319000e+00
 SX4vh  SQ3n  1 4.100000e-01    4.579000e+00
 SX4vh  TQ3n  1 3.650000e-01    6.247000e+00
 SX3vh   Q3n  1 4.300000e-01    3.293000e+00
 SX3vh  SQ3n  1 4.100000e-01    4.248000e+00
 SX3vh  TQ3n  1 3.650000e-01    5.878000e+00
 SX2vh   Q3n  1 4.300000e-01    2.867000e+00
 SX2vh  SQ3n  1 4.100000e-01    3.911000e+00
 SX2vh  TQ3n  1 3.650000e-01    5.327000e+00
 SX1vh   Q3n  1 4.300000e-01    2.584000e+00
 SX1vh  SQ3n  1 4.100000e-01    3.380000e+00
 SX1vh  TQ3n  1 3.660000e-01    4.394000e+00
 SC6eh   Q3n  1 4.300000e-01    2.693000e+00
 SC6eh  SQ3n  1 4.100000e-01    3.938000e+00
 SC6eh  TQ3n  1 3.660000e-01    5.557000e+00
 SC5eh   Q3n  1 4.300000e-01    2.511000e+00
 SC5eh  SQ3n  1 4.100000e-01    3.696000e+00
 SC5eh  TQ3n  1 3.780000e-01    5.054000e+00
 SC4eh   Q3n  1 4.300000e-01    2.248000e+00
 SC4eh  SQ3n  1 4.100000e-01    3.368000e+00
 SC4eh  TQ3n  1 3.940000e-01    4.423000e+00
 SC3eh   Q3n  1 4.300000e-01    1.994000e+00
 SC3eh  SQ3n  1 4.140000e-01    2.887000e+00
 SC3eh  TQ3n  1 4.040000e-01    3.661000e+00
 SC2eh   Q3n  1 5.140000e-01    1.294000e+00
 SC2eh  SQ3n  1 4.960000e-01    1.975000e+00
 SC2eh  TQ3n  1 5.370000e-01    2.398000e+00
 SC1eh   Q3n  1 5.140000e-01    1.240000e+00
 SC1eh  SQ3n  1 4.960000e-01    1.701000e+00
 SC1eh  TQ3n  1 5.370000e-01    1.926000e+00
 SX4eh   Q3n  1 4.300000e-01    2.709000e+00
 SX4eh  SQ3n  1 4.100000e-01    4.019000e+00
 SX4eh  TQ3n  1 3.660000e-01    5.725000e+00
 SX3eh   Q3n  1 4.300000e-01    2.533000e+00
 SX3eh  SQ3n  1 4.100000e-01    3.808000e+00
 SX3eh  TQ3n  1 3.780000e-01    5.281000e+00
 SX2eh   Q3n  1 4.300000e-01    2.267000e+00
 SX2eh  SQ3n  1 4.100000e-01    3.461000e+00
 SX2eh  TQ3n  1 3.940000e-01    4.603000e+00
 SX1eh   Q3n  1 4.300000e-01    1.994000e+00
 SX1eh  SQ3n  1 4.140000e-01    2.887000e+00
 SX1eh  TQ3n  1 4.040000e-01    3.661000e+00
  SP6r   Q3n  1 4.300000e-01    4.889000e+00
  SP6r  SQ3n  1 4.100000e-01    6.525000e+00
  SP6r  TQ3n  1 3.650000e-01    8.835000e+00
  SP5r   Q3n  1 4.300000e-01    4.881000e+00
  SP5r  SQ3n  1 4.100000e-01    6.485000e+00
  SP5r  TQ3n  1 3.650000e-01    8.750000e+00
  SP4r   Q3n  1 4.300000e-01    4.871000e+00
  SP4r  SQ3n  1 4.100000e-01    6.434000e+00
  SP4r  TQ3n  1 3.650000e-01    8.644000e+00
  SP3r   Q3n  1 4.300000e-01    4.864000e+00
  SP3r  SQ3n  1 4.100000e-01    6.400000e+00
  SP3r  TQ3n  1 3.650000e-01    8.573000e+00
  SP2r   Q3n  1 4.300000e-01    4.629000e+00
  SP2r  SQ3n  1 4.100000e-01    6.155000e+00
  SP2r  TQ3n  1 3.650000e-01    8.251000e+00
  SP1r   Q3n  1 4.300000e-01    4.426000e+00
  SP1r  SQ3n  1 4.100000e-01    5.866000e+00
  SP1r  TQ3n  1 3.650000e-01    7.940000e+00
  SN6r   Q3n  1 4.300000e-01    4.421000e+00
  SN6r  SQ3n  1 4.100000e-01    5.843000e+00
  SN6r  TQ3n  1 3.650000e-01    7.892000e+00
  SN5r   Q3n  1 4.300000e-01    4.416000e+00
  SN5r  SQ3n  1 4.100000e-01    5.815000e+00
  SN5r  TQ3n  1 3.650000e-01    7.835000e+00
  SN4r   Q3n  1 4.300000e-01    4.409000e+00
  SN4r  SQ3n  1 4.100000e-01    5.781000e+00
  SN4r  TQ3n  1 3.650000e-01    7.763000e+00
  SN3r   Q3n  1 4.300000e-01    4.200000e+00
  SN3r  SQ3n  1 4.100000e-01    5.497000e+00
  SN3r  TQ3n  1 3.650000e-01    7.402000e+00
  SN2r   Q3n  1 4.300000e-01    4.189000e+00
  SN2r  SQ3n  1 4.100000e-01    5.438000e+00
  SN2r  TQ3n  1 3.650000e-01    7.277000e+00
  SN1r   Q3n  1 4.300000e-01    4.171000e+00
  SN1r  SQ3n  1 4.100000e-01    5.350000e+00
  SN1r  TQ3n  1 3.650000e-01    7.095000e+00
  SC6r   Q3n  1 4.300000e-01    3.143000e+00
  SC6r  SQ3n  1 4.100000e-01    4.098000e+00
  SC6r  TQ3n  1 3.650000e-01    5.718000e+00
  SC5r   Q3n  1 4.300000e-01    2.881000e+00
  SC5r  SQ3n  1 4.100000e-01    3.826000e+00
  SC5r  TQ3n  1 3.660000e-01    5.322000e+00
  SC4r   Q3n  1 4.300000e-01    2.638000e+00
  SC4r  SQ3n  1 4.100000e-01    3.528000e+00
  SC4r  TQ3n  1 3.780000e-01    4.716000e+00
  SC3r   Q3n  1 4.300000e-01    2.424000e+00
  SC3r  SQ3n  1 4.100000e-01    3.090000e+00
  SC3r  TQ3n  1 3.940000e-01    3.885000e+00
  SC2r   Q3n  1 4.730000e-01    1.480000e+00
  SC2r  SQ3n  1 4.530000e-01    2.163000e+00
  SC2r  TQ3n  1 4.840000e-01    2.654000e+00
  SC1r   Q3n  1 4.730000e-01    1.421000e+00
  SC1r  SQ3n  1 4.530000e-01    1.862000e+00
  SC1r  TQ3n  1 4.840000e-01    2.131000e+00
  SX4r   Q3n  1 4.300000e-01    3.159000e+00
  SX4r  SQ3n  1 4.100000e-01    4.179000e+00
  SX4r  TQ3n  1 3.650000e-01    5.887000e+00
  SX3r   Q3n  1 4.300000e-01    2.903000e+00
  SX3r  SQ3n  1 4.100000e-01    3.938000e+00
  SX3r  TQ3n  1 3.660000e-01    5.557000e+00
  SX2r   Q3n  1 4.300000e-01    2.657000e+00
  SX2r  SQ3n  1 4.100000e-01    3.621000e+00
  SX2r  TQ3n  1 3.780000e-01    4.904000e+00
  SX1r   Q3n  1 4.300000e-01    2.424000e+00
  SX1r  SQ3n  1 4.100000e-01    3.090000e+00
  SX1r  TQ3n  1 3.940000e-01    3.885000e+00
 SP6dr   Q3n  1 4.300000e-01    4.889000e+00
 SP6dr  SQ3n  1 4.100000e-01    6.775000e+00
 SP6dr  TQ3n  1 3.650000e-01    9.125000e+00
 SP5dr   Q3n  1 4.300000e-01    4.881000e+00
 SP5dr  SQ3n  1 4.100000e-01    6.735000e+00
 SP5dr  TQ3n  1 3.650000e-01    9.040000e+00
 SP4dr   Q3n  1 4.300000e-01    4.871000e+00
 SP4dr  SQ3n  1 4.100000e-01    6.684000e+00
 SP4dr  TQ3n  1 3.650000e-01    8.934000e+00
 SP3dr   Q3n  1 4.300000e-01    4.864000e+00
 SP3dr  SQ3n  1 4.100000e-01    6.650000e+00
 SP3dr  TQ3n  1 3.650000e-01    8.863000e+00
 SP2dr   Q3n  1 4.300000e-01    4.629000e+00
 SP2dr  SQ3n  1 4.100000e-01    6.375000e+00
 SP2dr  TQ3n  1 3.650000e-01    8.521000e+00
 SP1dr   Q3n  1 4.300000e-01    4.426000e+00
 SP1dr  SQ3n  1 4.100000e-01    6.136000e+00
 SP1dr  TQ3n  1 3.650000e-01    8.210000e+00
 SN6dr   Q3n  1 4.300000e-01    4.421000e+00
 SN6dr  SQ3n  1 4.100000e-01    6.113000e+00
 SN6dr  TQ3n  1 3.650000e-01    8.162000e+00
 SN5dr   Q3n  1 4.300000e-01    4.416000e+00
 SN5dr  SQ3n  1 4.100000e-01    6.085000e+00
 SN5dr  TQ3n  1 3.650000e-01    8.105000e+00
 SN4dr   Q3n  1 4.300000e-01    4.409000e+00
 SN4dr  SQ3n  1 4.100000e-01    6.051000e+00
 SN4dr  TQ3n  1 3.650000e-01    8.033000e+00
 SN3dr   Q3n  1 4.300000e-01    4.200000e+00
 SN3dr  SQ3n  1 4.100000e-01    5.737000e+00
 SN3dr  TQ3n  1 3.650000e-01    7.672000e+00
 SN2dr   Q3n  1 4.300000e-01    4.189000e+00
 SN2dr  SQ3n  1 4.100000e-01    5.678000e+00
 SN2dr  TQ3n  1 3.650000e-01    7.547000e+00
 SN1dr   Q3n  1 4.300000e-01    4.171000e+00
 SN1dr  SQ3n  1 4.100000e-01    5.590000e+00
 SN1dr  TQ3n  1 3.650000e-01    7.365000e+00
 SP6ar   Q3n  1 4.300000e-01    4.259000e+00
 SP6ar  SQ3n  1 4.100000e-01    6.035000e+00
 SP6ar  TQ3n  1 3.650000e-01    8.295000e+00
 SP5ar   Q3n  1 4.300000e-01    4.251000e+00
 SP5ar  SQ3n  1 4.100000e-01    5.995000e+00
 SP5ar  TQ3n  1 3.650000e-01    8.210000e+00
 SP4ar   Q3n  1 4.300000e-01    4.241000e+00
 SP4ar  SQ3n  1 4.100000e-01    5.944000e+00
 SP4ar  TQ3n  1 3.650000e-01    8.104000e+00
 SP3ar   Q3n  1 4.300000e-01    4.234000e+00
 SP3ar  SQ3n  1 4.100000e-01    5.910000e+00
 SP3ar  TQ3n  1 3.650000e-01    8.033000e+00
 SP2ar   Q3n  1 4.300000e-01    4.049000e+00
 SP2ar  SQ3n  1 4.100000e-01    5.645000e+00
 SP2ar  TQ3n  1 3.650000e-01    7.711000e+00
 SP1ar   Q3n  1 4.300000e-01    3.836000e+00
 SP1ar  SQ3n  1 4.100000e-01    5.386000e+00
 SP1ar  TQ3n  1 3.650000e-01    7.410000e+00
 SN6ar   Q3n  1 4.300000e-01    3.831000e+00
 SN6ar  SQ3n  1 4.100000e-01    5.363000e+00
 SN6ar  TQ3n  1 3.650000e-01    7.362000e+00
 SN5ar   Q3n  1 4.300000e-01    3.826000e+00
 SN5ar  SQ3n  1 4.100000e-01    5.335000e+00
 SN5ar  TQ3n  1 3.650000e-01    7.305000e+00
 SN4ar   Q3n  1 4.300000e-01    3.819000e+00
 SN4ar  SQ3n  1 4.100000e-01    5.301000e+00
 SN4ar  TQ3n  1 3.650000e-01    7.233000e+00
 SN3ar   Q3n  1 4.300000e-01    3.590000e+00
 SN3ar  SQ3n  1 4.100000e-01    5.027000e+00
 SN3ar  TQ3n  1 3.650000e-01    6.912000e+00
 SN2ar   Q3n  1 4.300000e-01    3.579000e+00
 SN2ar  SQ3n  1 4.100000e-01    4.968000e+00
 SN2ar  TQ3n  1 3.650000e-01    6.787000e+00
 SN1ar   Q3n  1 4.300000e-01    3.561000e+00
 SN1ar  SQ3n  1 4.100000e-01    4.880000e+00
 SN1ar  TQ3n  1 3.650000e-01    6.605000e+00
 SC6vr   Q3n  1 4.300000e-01    3.303000e+00
 SC6vr  SQ3n  1 4.100000e-01    4.498000e+00
 SC6vr  TQ3n  1 3.650000e-01    6.078000e+00
 SC5vr   Q3n  1 4.300000e-01    3.271000e+00
 SC5vr  SQ3n  1 4.100000e-01    4.136000e+00
 SC5vr  TQ3n  1 3.650000e-01    5.642000e+00
 SC4vr   Q3n  1 4.300000e-01    2.848000e+00
 SC4vr  SQ3n  1 4.100000e-01    3.818000e+00
 SC4vr  TQ3n  1 3.650000e-01    5.132000e+00
 SC3vr   Q3n  1 4.300000e-01    2.584000e+00
 SC3vr  SQ3n  1 4.100000e-01    3.380000e+00
 SC3vr  TQ3n  1 3.660000e-01    4.394000e+00
 SC2vr   Q3n  1 4.430000e-01    1.694000e+00
 SC2vr  SQ3n  1 4.180000e-01    2.497000e+00
 SC2vr  TQ3n  1 4.090000e-01    3.167000e+00
 SC1vr   Q3n  1 4.430000e-01    1.630000e+00
 SC1vr  SQ3n  1 4.180000e-01    2.172000e+00
 SC1vr  TQ3n  1 4.090000e-01    2.548000e+00
 SX4vr   Q3n  1 4.300000e-01    3.319000e+00
 SX4vr  SQ3n  1 4.100000e-01    4.579000e+00
 SX4vr  TQ3n  1 3.650000e-01    6.247000e+00
 SX3vr   Q3n  1 4.300000e-01    3.293000e+00
 SX3vr  SQ3n  1 4.100000e-01    4.248000e+00
 SX3vr  TQ3n  1 3.650000e-01    5.878000e+00
 SX2vr   Q3n  1 4.300000e-01    2.867000e+00
 SX2vr  SQ3n  1 4.100000e-01    3.911000e+00
 SX2vr  TQ3n  1 3.650000e-01    5.327000e+00
 SX1vr   Q3n  1 4.300000e-01    2.584000e+00
 SX1vr  SQ3n  1 4.100000e-01    3.380000e+00
 SX1vr  TQ3n  1 3.660000e-01    4.394000e+00
 SC6er   Q3n  1 4.300000e-01    2.693000e+00
 SC6er  SQ3n  1 4.100000e-01    3.938000e+00
 SC6er  TQ3n  1 3.660000e-01    5.557000e+00
 SC5er   Q3n  1 4.300000e-01    2.511000e+00
 SC5er  SQ3n  1 4.100000e-01    3.696000e+00
 SC5er  TQ3n  1 3.780000e-01    5.054000e+00
 SC4er   Q3n  1 4.300000e-01    2.248000e+00
 SC4er  SQ3n  1 4.100000e-01    3.368000e+00
 SC4er  TQ3n  1 3.940000e-01    4.423000e+00
 SC3er   Q3n  1 4.300000e-01    1.994000e+00
 SC3er  SQ3n  1 4.140000e-01    2.887000e+00
 SC3er  TQ3n  1 4.040000e-01    3.661000e+00
 SC2er   Q3n  1 5.140000e-01    1.294000e+00
 SC2er  SQ3n  1 4.960000e-01    1.975000e+00
 SC2er  TQ3n  1 5.370000e-01    2.398000e+00
 SC1er   Q3n  1 5.140000e-01    1.240000e+00
 SC1er  SQ3n  1 4.960000e-01    1.701000e+00
 SC1er  TQ3n  1 5.370000e-01    1.926000e+00
 SX4er   Q3n  1 4.300000e-01    2.709000e+00
 SX4er  SQ3n  1 4.100000e-01    4.019000e+00
 SX4er  TQ3n  1 3.660000e-01    5.725000e+00
 SX3er   Q3n  1 4.300000e-01    2.533000e+00
 SX3er  SQ3n  1 4.100000e-01    3.808000e+00
 SX3er  TQ3n  1 3.780000e-01    5.281000e+00
 SX2er   Q3n  1 4.300000e-01    2.267000e+00
 SX2er  SQ3n  1 4.100000e-01    3.461000e+00
 SX2er  TQ3n  1 3.940000e-01    4.603000e+00
 SX1er   Q3n  1 4.300000e-01    1.994000e+00
 SX1er  SQ3n  1 4.140000e-01    2.887000e+00
 SX1er  TQ3n  1 4.040000e-01    3.661000e+00
   TP6   Q3n  1 3.950000e-01    4.316000e+00
   TP6  SQ3n  1 3.650000e-01    5.866000e+00
   TP6  TQ3n  1 3.400000e-01    8.117000e+00
   TP5   Q3n  1 3.950000e-01    4.310000e+00
   TP5  SQ3n  1 3.650000e-01    5.836000e+00
   TP5  TQ3n  1 3.400000e-01    8.052000e+00
   TP4   Q3n  1 3.950000e-01    4.303000e+00
   TP4  SQ3n  1 3.650000e-01    5.798000e+00
   TP4  TQ3n  1 3.400000e-01    7.968000e+00
   TP3   Q3n  1 3.950000e-01    4.299000e+00
   TP3  SQ3n  1 3.650000e-01    5.772000e+00
   TP3  TQ3n  1 3.400000e-01    7.911000e+00
   TP2   Q3n  1 3.950000e-01    4.055000e+00
   TP2  SQ3n  1 3.650000e-01    5.483000e+00
   TP2  TQ3n  1 3.400000e-01    7.639000e+00
   TP1   Q3n  1 3.950000e-01    3.812000e+00
   TP1  SQ3n  1 3.650000e-01    5.198000e+00
   TP1  TQ3n  1 3.400000e-01    7.355000e+00
   TN6   Q3n  1 3.950000e-01    3.809000e+00
   TN6  SQ3n  1 3.650000e-01    5.180000e+00
   TN6  TQ3n  1 3.400000e-01    7.315000e+00
   TN5   Q3n  1 3.950000e-01    3.805000e+00
   TN5  SQ3n  1 3.650000e-01    5.158000e+00
   TN5  TQ3n  1 3.400000e-01    7.267000e+00
   TN4   Q3n  1 3.950000e-01    3.800000e+00
   TN4  SQ3n  1 3.650000e-01    5.131000e+00
   TN4  TQ3n  1 3.400000e-01    7.208000e+00
   TN3   Q3n  1 3.950000e-01    3.554000e+00
   TN3  SQ3n  1 3.650000e-01    4.826000e+00
   TN3  TQ3n  1 3.400000e-01    6.891000e+00
   TN2   Q3n  1 3.950000e-01    3.545000e+00
   TN2  SQ3n  1 3.650000e-01    4.778000e+00
   TN2  TQ3n  1 3.400000e-01    6.785000e+00
   TN1   Q3n  1 3.950000e-01    3.532000e+00
   TN1  SQ3n  1 3.650000e-01    4.708000e+00
   TN1  TQ3n  1 3.400000e-01    6.631000e+00
   TC6   Q3n  1 3.950000e-01    2.431000e+00
   TC6  SQ3n  1 3.650000e-01    3.513000e+00
   TC6  TQ3n  1 3.400000e-01    5.108000e+00
   TC5   Q3n  1 3.950000e-01    2.155000e+00
   TC5  SQ3n  1 3.660000e-01    3.267000e+00
   TC5  TQ3n  1 3.520000e-01    4.602000e+00
   TC4   Q3n  1 3.950000e-01    1.950000e+00
   TC4  SQ3n  1 3.780000e-01    2.933000e+00
   TC4  TQ3n  1 3.660000e-01    4.073000e+00
   TC3   Q3n  1 3.980000e-01    1.687000e+00
   TC3  SQ3n  1 3.940000e-01    2.503000e+00
   TC3  TQ3n  1 3.850000e-01    3.400000e+00
   TC2   Q3n  1 4.650000e-01    8.780000e-01
   TC2  SQ3n  1 4.840000e-01    1.742000e+00
   TC2  TQ3n  1 5.050000e-01    2.353000e+00
   TC1   Q3n  1 4.650000e-01    8.360000e-01
   TC1  SQ3n  1 4.840000e-01    1.538000e+00
   TC1  TQ3n  1 5.050000e-01    1.954000e+00
   TX4   Q3n  1 3.950000e-01    2.443000e+00
   TX4  SQ3n  1 3.650000e-01    3.578000e+00
   TX4  TQ3n  1 3.400000e-01    5.252000e+00
   TX3   Q3n  1 3.950000e-01    2.171000e+00
   TX3  SQ3n  1 3.660000e-01    3.358000e+00
   TX3  TQ3n  1 3.520000e-01    4.795000e+00
   TX2   Q3n  1 3.950000e-01    1.964000e+00
   TX2  SQ3n  1 3.780000e-01    3.005000e+00
   TX2  TQ3n  1 3.660000e-01    4.227000e+00
   TX1   Q3n  1 3.980000e-01    1.687000e+00
   TX1  SQ3n  1 3.940000e-01    2.503000e+00
   TX1  TQ3n  1 3.850000e-01    3.400000e+00
  TP6d   Q3n  1 3.950000e-01    4.636000e+00
  TP6d  SQ3n  1 3.650000e-01    6.156000e+00
  TP6d  TQ3n  1 3.400000e-01    8.647000e+00
  TP5d   Q3n  1 3.950000e-01    4.630000e+00
  TP5d  SQ3n  1 3.650000e-01    6.126000e+00
  TP5d  TQ3n  1 3.400000e-01    8.582000e+00
  TP4d   Q3n  1 3.950000e-01    4.623000e+00
  TP4d  SQ3n  1 3.650000e-01    6.088000e+00
  TP4d  TQ3n  1 3.400000e-01    8.498000e+00
  TP3d   Q3n  1 3.950000e-01    4.619000e+00
  TP3d  SQ3n  1 3.650000e-01    6.062000e+00
  TP3d  TQ3n  1 3.400000e-01    8.441000e+00
  TP2d   Q3n  1 3.950000e-01    4.295000e+00
  TP2d  SQ3n  1 3.650000e-01    5.753000e+00
  TP2d  TQ3n  1 3.400000e-01    8.119000e+00
  TP1d   Q3n  1 3.950000e-01    4.052000e+00
  TP1d  SQ3n  1 3.650000e-01    5.468000e+00
  TP1d  TQ3n  1 3.400000e-01    7.835000e+00
  TN6d   Q3n  1 3.950000e-01    4.049000e+00
  TN6d  SQ3n  1 3.650000e-01    5.450000e+00
  TN6d  TQ3n  1 3.400000e-01    7.795000e+00
  TN5d   Q3n  1 3.950000e-01    4.045000e+00
  TN5d  SQ3n  1 3.650000e-01    5.428000e+00
  TN5d  TQ3n  1 3.400000e-01    7.747000e+00
  TN4d   Q3n  1 3.950000e-01    4.040000e+00
  TN4d  SQ3n  1 3.650000e-01    5.401000e+00
  TN4d  TQ3n  1 3.400000e-01    7.688000e+00
  TN3d   Q3n  1 3.950000e-01    3.794000e+00
  TN3d  SQ3n  1 3.650000e-01    5.096000e+00
  TN3d  TQ3n  1 3.400000e-01    7.381000e+00
  TN2d   Q3n  1 3.950000e-01    3.785000e+00
  TN2d  SQ3n  1 3.650000e-01    5.048000e+00
  TN2d  TQ3n  1 3.400000e-01    7.275000e+00
  TN1d   Q3n  1 3.950000e-01    3.772000e+00
  TN1d  SQ3n  1 3.650000e-01    4.978000e+00
  TN1d  TQ3n  1 3.400000e-01    7.121000e+00
  TP6a   Q3n  1 3.950000e-01    3.836000e+00
  TP6a  SQ3n  1 3.650000e-01    5.326000e+00
  TP6a  TQ3n  1 3.400000e-01    7.637000e+00
  TP5a   Q3n  1 3.950000e-01    3.830000e+00
  TP5a  SQ3n  1 3.650000e-01    5.296000e+00
  TP5a  TQ3n  1 3.400000e-01    7.572000e+00
  TP4a   Q3n  1 3.950000e-01    3.823000e+00
  TP4a  SQ3n  1 3.650000e-01    5.258000e+00
  TP4a  TQ3n  1 3.400000e-01    7.488000e+00
  TP3a   Q3n  1 3.950000e-01    3.819000e+00
  TP3a  SQ3n  1 3.650000e-01    5.232000e+00
  TP3a  TQ3n  1 3.400000e-01    7.431000e+00
  TP2a   Q3n  1 3.950000e-01    3.575000e+00
  TP2a  SQ3n  1 3.650000e-01    4.943000e+00
  TP2a  TQ3n  1 3.400000e-01    7.149000e+00
  TP1a   Q3n  1 3.950000e-01    3.322000e+00
  TP1a  SQ3n  1 3.650000e-01    4.668000e+00
  TP1a  TQ3n  1 3.400000e-01    6.895000e+00
  TN6a   Q3n  1 3.950000e-01    3.319000e+00
  TN6a  SQ3n  1 3.650000e-01    4.650000e+00
  TN6a  TQ3n  1 3.400000e-01    6.855000e+00
  TN5a   Q3n  1 3.950000e-01    3.315000e+00
  TN5a  SQ3n  1 3.650000e-01    4.628000e+00
  TN5a  TQ3n  1 3.400000e-01    6.807000e+00
  TN4a   Q3n  1 3.950000e-01    3.310000e+00
  TN4a  SQ3n  1 3.650000e-01    4.601000e+00
  TN4a  TQ3n  1 3.400000e-01    6.748000e+00
  TN3a   Q3n  1 3.950000e-01    3.064000e+00
  TN3a  SQ3n  1 3.650000e-01    4.336000e+00
  TN3a  TQ3n  1 3.400000e-01    6.411000e+00
  TN2a   Q3n  1 3.950000e-01    3.055000e+00
  TN2a  SQ3n  1 3.650000e-01    4.288000e+00
  TN2a  TQ3n  1 3.400000e-01    6.305000e+00
  TN1a   Q3n  1 3.950000e-01    3.042000e+00
  TN1a  SQ3n  1 3.650000e-01    4.218000e+00
  TN1a  TQ3n  1 3.400000e-01    6.151000e+00
  TC6v   Q3n  1 3.950000e-01    2.821000e+00
  TC6v  SQ3n  1 3.650000e-01    3.873000e+00
  TC6v  TQ3n  1 3.400000e-01    5.898000e+00
  TC5v   Q3n  1 3.950000e-01    2.615000e+00
  TC5v  SQ3n  1 3.650000e-01    3.581000e+00
  TC5v  TQ3n  1 3.400000e-01    5.447000e+00
  TC4v   Q3n  1 3.950000e-01    2.390000e+00
  TC4v  SQ3n  1 3.650000e-01    3.285000e+00
  TC4v  TQ3n  1 3.400000e-01    4.888000e+00
  TC3v   Q3n  1 3.950000e-01    2.089000e+00
  TC3v  SQ3n  1 3.660000e-01    2.906000e+00
  TC3v  TQ3n  1 3.400000e-01    4.111000e+00
  TC2v   Q3n  1 4.010000e-01    1.186000e+00
  TC2v  SQ3n  1 4.090000e-01    2.088000e+00
  TC2v  TQ3n  1 4.110000e-01    2.857000e+00
  TC1v   Q3n  1 4.010000e-01    1.137000e+00
  TC1v  SQ3n  1 4.090000e-01    1.847000e+00
  TC1v  TQ3n  1 4.110000e-01    2.366000e+00
  TX4v   Q3n  1 3.950000e-01    2.833000e+00
  TX4v  SQ3n  1 3.650000e-01    3.938000e+00
  TX4v  TQ3n  1 3.400000e-01    6.042000e+00
  TX3v   Q3n  1 3.950000e-01    2.631000e+00
  TX3v  SQ3n  1 3.650000e-01    3.673000e+00
  TX3v  TQ3n  1 3.400000e-01    5.648000e+00
  TX2v   Q3n  1 3.950000e-01    2.404000e+00
  TX2v  SQ3n  1 3.650000e-01    3.361000e+00
  TX2v  TQ3n  1 3.400000e-01    5.054000e+00
  TX1v   Q3n  1 3.950000e-01    2.089000e+00
  TX1v  SQ3n  1 3.660000e-01    2.906000e+00
  TX1v  TQ3n  1 3.400000e-01    4.111000e+00
  TC6e   Q3n  1 3.950000e-01    2.171000e+00
  TC6e  SQ3n  1 3.660000e-01    3.358000e+00
  TC6e  TQ3n  1 3.520000e-01    4.795000e+00
  TC5e   Q3n  1 3.950000e-01    1.975000e+00
  TC5e  SQ3n  1 3.780000e-01    3.064000e+00
  TC5e  TQ3n  1 3.660000e-01    4.351000e+00
  TC4e   Q3n  1 3.980000e-01    1.728000e+00
  TC4e  SQ3n  1 3.940000e-01    2.712000e+00
  TC4e  TQ3n  1 3.850000e-01    3.838000e+00
  TC3e   Q3n  1 3.990000e-01    1.416000e+00
  TC3e  SQ3n  1 4.040000e-01    2.313000e+00
  TC3e  TQ3n  1 4.110000e-01    3.185000e+00
  TC2e   Q3n  1 5.110000e-01    8.180000e-01
  TC2e  SQ3n  1 5.370000e-01    1.576000e+00
  TC2e  TQ3n  1 5.610000e-01    2.136000e+00
  TC1e   Q3n  1 5.110000e-01    7.800000e-01
  TC1e  SQ3n  1 5.370000e-01    1.392000e+00
  TC1e  TQ3n  1 5.610000e-01    1.776000e+00
  TX4e   Q3n  1 3.950000e-01    2.183000e+00
  TX4e  SQ3n  1 3.660000e-01    3.423000e+00
  TX4e  TQ3n  1 3.520000e-01    4.935000e+00
  TX3e   Q3n  1 3.950000e-01    1.991000e+00
  TX3e  SQ3n  1 3.780000e-01    3.152000e+00
  TX3e  TQ3n  1 3.660000e-01    4.537000e+00
  TX2e   Q3n  1 3.980000e-01    1.741000e+00
  TX2e  SQ3n  1 3.940000e-01    2.782000e+00
  TX2e  TQ3n  1 3.850000e-01    3.985000e+00
  TX1e   Q3n  1 3.990000e-01    1.416000e+00
  TX1e  SQ3n  1 4.040000e-01    2.313000e+00
  TX1e  TQ3n  1 4.110000e-01    3.185000e+00
  TP6q   Q3n  1 3.950000e-01    5.276000e+00
  TP6q  SQ3n  1 3.650000e-01    6.736000e+00
  TP6q  TQ3n  1 3.400000e-01    8.917000e+00
  TP5q   Q3n  1 3.950000e-01    5.270000e+00
  TP5q  SQ3n  1 3.650000e-01    6.706000e+00
  TP5q  TQ3n  1 3.400000e-01    8.852000e+00
  TP4q   Q3n  1 3.950000e-01    5.263000e+00
  TP4q  SQ3n  1 3.650000e-01    6.668000e+00
  TP4q  TQ3n  1 3.400000e-01    8.768000e+00
  TP3q   Q3n  1 3.950000e-01    5.259000e+00
  TP3q  SQ3n  1 3.650000e-01    6.642000e+00
  TP3q  TQ3n  1 3.400000e-01    8.711000e+00
  TP2q   Q3n  1 3.950000e-01    4.925000e+00
  TP2q  SQ3n  1 3.650000e-01    6.333000e+00
  TP2q  TQ3n  1 3.400000e-01    8.399000e+00
  TP1q   Q3n  1 3.950000e-01    4.612000e+00
  TP1q  SQ3n  1 3.650000e-01    6.028000e+00
  TP1q  TQ3n  1 3.400000e-01    8.085000e+00
  TN6q   Q3n  1 3.950000e-01    4.609000e+00
  TN6q  SQ3n  1 3.650000e-01    6.010000e+00
  TN6q  TQ3n  1 3.400000e-01    8.045000e+00
  TN5q   Q3n  1 3.950000e-01    4.605000e+00
  TN5q  SQ3n  1 3.650000e-01    5.988000e+00
  TN5q  TQ3n  1 3.400000e-01    7.997000e+00
  TN4q   Q3n  1 3.950000e-01    4.600000e+00
  TN4q  SQ3n  1 3.650000e-01    5.961000e+00
  TN4q  TQ3n  1 3.400000e-01    7.938000e+00
  TN3q   Q3n  1 3.950000e-01    4.274000e+00
  TN3q  SQ3n  1 3.650000e-01    5.636000e+00
  TN3q  TQ3n  1 3.400000e-01    7.611000e+00
  TN2q   Q3n  1 3.950000e-01    4.265000e+00
  TN2q  SQ3n  1 3.650000e-01    5.588000e+00
  TN2q  TQ3n  1 3.400000e-01    7.505000e+00
  TN1q   Q3n  1 3.950000e-01    4.252000e+00
  TN1q  SQ3n  1 3.650000e-01    5.518000e+00
  TN1q  TQ3n  1 3.400000e-01    7.351000e+00
  TC6q   Q3n  1 3.950000e-01    3.021000e+00
  TC6q  SQ3n  1 3.650000e-01    4.103000e+00
  TC6q  TQ3n  1 3.400000e-01    5.898000e+00
  TC5q   Q3n  1 3.950000e-01    2.805000e+00
  TC5q  SQ3n  1 3.650000e-01    3.781000e+00
  TC5q  TQ3n  1 3.400000e-01    5.447000e+00
  TC4q   Q3n  1 3.950000e-01    2.590000e+00
  TC4q  SQ3n  1 3.650000e-01    3.445000e+00
  TC4q  TQ3n  1 3.400000e-01    4.888000e+00
  TC3q   Q3n  1 3.950000e-01    2.349000e+00
  TC3q  SQ3n  1 3.650000e-01    3.060000e+00
  TC3q  TQ3n  1 3.400000e-01    4.111000e+00
  TC2q   Q3n  1 3.990000e-01    1.384000e+00
  TC2q  SQ3n  1 4.040000e-01    2.151000e+00
  TC2q  TQ3n  1 4.110000e-01    2.857000e+00
  TC1q   Q3n  1 3.990000e-01    1.335000e+00
  TC1q  SQ3n  1 4.040000e-01    1.907000e+00
  TC1q  TQ3n  1 4.110000e-01    2.366000e+00
  TX4q   Q3n  1 3.950000e-01    3.033000e+00
  TX4q  SQ3n  1 3.650000e-01    4.168000e+00
  TX4q  TQ3n  1 3.400000e-01    6.042000e+00
  TX3q   Q3n  1 3.950000e-01    2.821000e+00
  TX3q  SQ3n  1 3.650000e-01    3.873000e+00
  TX3q  TQ3n  1 3.400000e-01    5.648000e+00
  TX2q   Q3n  1 3.950000e-01    2.604000e+00
  TX2q  SQ3n  1 3.650000e-01    3.521000e+00
  TX2q  TQ3n  1 3.400000e-01    5.054000e+00
  TX1q   Q3n  1 3.950000e-01    2.349000e+00
  TX1q  SQ3n  1 3.650000e-01    3.060000e+00
  TX1q  TQ3n  1 3.400000e-01    4.111000e+00
 TP6dq   Q3n  1 3.950000e-01    5.676000e+00
 TP6dq  SQ3n  1 3.650000e-01    7.086000e+00
 TP6dq  TQ3n  1 3.400000e-01    9.197000e+00
 TP5dq   Q3n  1 3.950000e-01    5.670000e+00
 TP5dq  SQ3n  1 3.650000e-01    7.056000e+00
 TP5dq  TQ3n  1 3.400000e-01    9.132000e+00
 TP4dq   Q3n  1 3.950000e-01    5.663000e+00
 TP4dq  SQ3n  1 3.650000e-01    7.018000e+00
 TP4dq  TQ3n  1 3.400000e-01    9.048000e+00
 TP3dq   Q3n  1 3.950000e-01    5.659000e+00
 TP3dq  SQ3n  1 3.650000e-01    6.992000e+00
 TP3dq  TQ3n  1 3.400000e-01    8.991000e+00
 TP2dq   Q3n  1 3.950000e-01    5.255000e+00
 TP2dq  SQ3n  1 3.650000e-01    6.623000e+00
 TP2dq  TQ3n  1 3.400000e-01    8.949000e+00
 TP1dq   Q3n  1 3.950000e-01    4.922000e+00
 TP1dq  SQ3n  1 3.650000e-01    6.318000e+00
 TP1dq  TQ3n  1 3.400000e-01    8.635000e+00
 TN6dq   Q3n  1 3.950000e-01    4.919000e+00
 TN6dq  SQ3n  1 3.650000e-01    6.300000e+00
 TN6dq  TQ3n  1 3.400000e-01    8.595000e+00
 TN5dq   Q3n  1 3.950000e-01    4.915000e+00
 TN5dq  SQ3n  1 3.650000e-01    6.278000e+00
 TN5dq  TQ3n  1 3.400000e-01    8.547000e+00
 TN4dq   Q3n  1 3.950000e-01    4.910000e+00
 TN4dq  SQ3n  1 3.650000e-01    6.251000e+00
 TN4dq  TQ3n  1 3.400000e-01    8.488000e+00
 TN3dq   Q3n  1 3.950000e-01    4.594000e+00
 TN3dq  SQ3n  1 3.650000e-01    5.926000e+00
 TN3dq  TQ3n  1 3.400000e-01    8.141000e+00
 TN2dq   Q3n  1 3.950000e-01    4.585000e+00
 TN2dq  SQ3n  1 3.650000e-01    5.878000e+00
 TN2dq  TQ3n  1 3.400000e-01    8.035000e+00
 TN1dq   Q3n  1 3.950000e-01    4.572000e+00
 TN1dq  SQ3n  1 3.650000e-01    5.808000e+00
 TN1dq  TQ3n  1 3.400000e-01    7.881000e+00
 TP6aq   Q3n  1 3.950000e-01    4.636000e+00
 TP6aq  SQ3n  1 3.650000e-01    6.156000e+00
 TP6aq  TQ3n  1 3.400000e-01    8.367000e+00
 TP5aq   Q3n  1 3.950000e-01    4.630000e+00
 TP5aq  SQ3n  1 3.650000e-01    6.126000e+00
 TP5aq  TQ3n  1 3.400000e-01    8.302000e+00
 TP4aq   Q3n  1 3.950000e-01    4.623000e+00
 TP4aq  SQ3n  1 3.650000e-01    6.088000e+00
 TP4aq  TQ3n  1 3.400000e-01    8.218000e+00
 TP3aq   Q3n  1 3.950000e-01    4.619000e+00
 TP3aq  SQ3n  1 3.650000e-01    6.062000e+00
 TP3aq  TQ3n  1 3.400000e-01    8.161000e+00
 TP2aq   Q3n  1 3.950000e-01    4.295000e+00
 TP2aq  SQ3n  1 3.650000e-01    5.753000e+00
 TP2aq  TQ3n  1 3.400000e-01    7.869000e+00
 TP1aq   Q3n  1 3.950000e-01    4.052000e+00
 TP1aq  SQ3n  1 3.650000e-01    5.468000e+00
 TP1aq  TQ3n  1 3.400000e-01    7.605000e+00
 TN6aq   Q3n  1 3.950000e-01    4.049000e+00
 TN6aq  SQ3n  1 3.650000e-01    5.450000e+00
 TN6aq  TQ3n  1 3.400000e-01    7.565000e+00
 TN5aq   Q3n  1 3.950000e-01    4.045000e+00
 TN5aq  SQ3n  1 3.650000e-01    5.428000e+00
 TN5aq  TQ3n  1 3.400000e-01    7.517000e+00
 TN4aq   Q3n  1 3.950000e-01    4.040000e+00
 TN4aq  SQ3n  1 3.650000e-01    5.401000e+00
 TN4aq  TQ3n  1 3.400000e-01    7.458000e+00
 TN3aq   Q3n  1 3.950000e-01    3.794000e+00
 TN3aq  SQ3n  1 3.650000e-01    5.096000e+00
 TN3aq  TQ3n  1 3.400000e-01    7.131000e+00
 TN2aq   Q3n  1 3.950000e-01    3.785000e+00
 TN2aq  SQ3n  1 3.650000e-01    5.048000e+00
 TN2aq  TQ3n  1 3.400000e-01    7.025000e+00
 TN1aq   Q3n  1 3.950000e-01    3.772000e+00
 TN1aq  SQ3n  1 3.650000e-01    4.978000e+00
 TN1aq  TQ3n  1 3.400000e-01    6.871000e+00
 TC6vq   Q3n  1 3.950000e-01    3.511000e+00
 TC6vq  SQ3n  1 3.650000e-01    4.593000e+00
 TC6vq  TQ3n  1 3.400000e-01    6.618000e+00
 TC5vq   Q3n  1 3.950000e-01    3.245000e+00
 TC5vq  SQ3n  1 3.650000e-01    4.241000e+00
 TC5vq  TQ3n  1 3.400000e-01    6.177000e+00
 TC4vq   Q3n  1 3.950000e-01    2.980000e+00
 TC4vq  SQ3n  1 3.650000e-01    3.875000e+00
 TC4vq  TQ3n  1 3.400000e-01    5.658000e+00
 TC3vq   Q3n  1 3.950000e-01    2.739000e+00
 TC3vq  SQ3n  1 3.650000e-01    3.420000e+00
 TC3vq  TQ3n  1 3.400000e-01    4.901000e+00
 TC2vq   Q3n  1 3.950000e-01    1.876000e+00
 TC2vq  SQ3n  1 3.780000e-01    2.541000e+00
 TC2vq  TQ3n  1 3.660000e-01    3.244000e+00
 TC1vq   Q3n  1 3.950000e-01    1.827000e+00
 TC1vq  SQ3n  1 3.780000e-01    2.280000e+00
 TC1vq  TQ3n  1 3.660000e-01    2.692000e+00
 TX4vq   Q3n  1 3.950000e-01    3.523000e+00
 TX4vq  SQ3n  1 3.650000e-01    4.658000e+00
 TX4vq  TQ3n  1 3.400000e-01    6.762000e+00
 TX3vq   Q3n  1 3.950000e-01    3.261000e+00
 TX3vq  SQ3n  1 3.650000e-01    4.333000e+00
 TX3vq  TQ3n  1 3.400000e-01    6.378000e+00
 TX2vq   Q3n  1 3.950000e-01    2.994000e+00
 TX2vq  SQ3n  1 3.650000e-01    3.951000e+00
 TX2vq  TQ3n  1 3.400000e-01    5.824000e+00
 TX1vq   Q3n  1 3.950000e-01    2.739000e+00
 TX1vq  SQ3n  1 3.650000e-01    3.420000e+00
 TX1vq  TQ3n  1 3.400000e-01    4.901000e+00
 TC6eq   Q3n  1 3.950000e-01    2.821000e+00
 TC6eq  SQ3n  1 3.650000e-01    3.873000e+00
 TC6eq  TQ3n  1 3.400000e-01    5.648000e+00
 TC5eq   Q3n  1 3.950000e-01    2.615000e+00
 TC5eq  SQ3n  1 3.650000e-01    3.581000e+00
 TC5eq  TQ3n  1 3.400000e-01    5.187000e+00
 TC4eq   Q3n  1 3.950000e-01    2.390000e+00
 TC4eq  SQ3n  1 3.650000e-01    3.285000e+00
 TC4eq  TQ3n  1 3.400000e-01    4.608000e+00
 TC3eq   Q3n  1 3.950000e-01    2.089000e+00
 TC3eq  SQ3n  1 3.660000e-01    2.906000e+00
 TC3eq  TQ3n  1 3.520000e-01    3.833000e+00
 TC2eq   Q3n  1 4.010000e-01    1.186000e+00
 TC2eq  SQ3n  1 4.090000e-01    2.088000e+00
 TC2eq  TQ3n  1 4.240000e-01    2.769000e+00
 TC1eq   Q3n  1 4.010000e-01    1.137000e+00
 TC1eq  SQ3n  1 4.090000e-01    1.847000e+00
 TC1eq  TQ3n  1 4.240000e-01    2.293000e+00
 TX4eq   Q3n  1 3.950000e-01    2.833000e+00
 TX4eq  SQ3n  1 3.650000e-01    3.938000e+00
 TX4eq  TQ3n  1 3.400000e-01    5.792000e+00
 TX3eq   Q3n  1 3.950000e-01    2.631000e+00
 TX3eq  SQ3n  1 3.650000e-01    3.673000e+00
 TX3eq  TQ3n  1 3.400000e-01    5.388000e+00
 TX2eq   Q3n  1 3.950000e-01    2.404000e+00
 TX2eq  SQ3n  1 3.650000e-01    3.361000e+00
 TX2eq  TQ3n  1 3.400000e-01    4.774000e+00
 TX1eq   Q3n  1 3.950000e-01    2.089000e+00
 TX1eq  SQ3n  1 3.660000e-01    2.906000e+00
 TX1eq  TQ3n  1 3.520000e-01    3.833000e+00
  TP6h   Q3n  1 3.950000e-01    4.316000e+00
  TP6h  SQ3n  1 3.650000e-01    5.866000e+00
  TP6h  TQ3n  1 3.400000e-01    8.117000e+00
  TP5h   Q3n  1 3.950000e-01    4.310000e+00
  TP5h  SQ3n  1 3.650000e-01    5.836000e+00
  TP5h  TQ3n  1 3.400000e-01    8.052000e+00
  TP4h   Q3n  1 3.950000e-01    4.303000e+00
  TP4h  SQ3n  1 3.650000e-01    5.798000e+00
  TP4h  TQ3n  1 3.400000e-01    7.968000e+00
  TP3h   Q3n  1 3.950000e-01    4.299000e+00
  TP3h  SQ3n  1 3.650000e-01    5.772000e+00
  TP3h  TQ3n  1 3.400000e-01    7.911000e+00
  TP2h   Q3n  1 3.950000e-01    4.055000e+00
  TP2h  SQ3n  1 3.650000e-01    5.483000e+00
  TP2h  TQ3n  1 3.400000e-01    7.639000e+00
  TP1h   Q3n  1 3.950000e-01    3.812000e+00
  TP1h  SQ3n  1 3.650000e-01    5.198000e+00
  TP1h  TQ3n  1 3.400000e-01    7.355000e+00
  TN6h   Q3n  1 3.950000e-01    3.809000e+00
  TN6h  SQ3n  1 3.650000e-01    5.180000e+00
  TN6h  TQ3n  1 3.400000e-01    7.315000e+00
  TN5h   Q3n  1 3.950000e-01    3.805000e+00
  TN5h  SQ3n  1 3.650000e-01    5.158000e+00
  TN5h  TQ3n  1 3.400000e-01    7.267000e+00
  TN4h   Q3n  1 3.950000e-01    3.800000e+00
  TN4h  SQ3n  1 3.650000e-01    5.131000e+00
  TN4h  TQ3n  1 3.400000e-01    7.208000e+00
  TN3h   Q3n  1 3.950000e-01    3.554000e+00
  TN3h  SQ3n  1 3.650000e-01    4.826000e+00
  TN3h  TQ3n  1 3.400000e-01    6.891000e+00
  TN2h   Q3n  1 3.950000e-01    3.545000e+00
  TN2h  SQ3n  1 3.650000e-01    4.778000e+00
  TN2h  TQ3n  1 3.400000e-01    6.785000e+00
  TN1h   Q3n  1 3.950000e-01    3.532000e+00
  TN1h  SQ3n  1 3.650000e-01    4.708000e+00
  TN1h  TQ3n  1 3.400000e-01    6.631000e+00
  TC6h   Q3n  1 3.950000e-01    2.431000e+00
  TC6h  SQ3n  1 3.650000e-01    3.513000e+00
  TC6h  TQ3n  1 3.400000e-01    5.108000e+00
  TC5h   Q3n  1 3.950000e-01    2.155000e+00
  TC5h  SQ3n  1 3.660000e-01    3.267000e+00
  TC5h  TQ3n  1 3.520000e-01    4.602000e+00
  TC4h   Q3n  1 3.950000e-01    1.950000e+00
  TC4h  SQ3n  1 3.780000e-01    2.933000e+00
  TC4h  TQ3n  1 3.660000e-01    4.073000e+00
  TC3h   Q3n  1 3.980000e-01    1.687000e+00
  TC3h  SQ3n  1 3.940000e-01    2.503000e+00
  TC3h  TQ3n  1 3.850000e-01    3.400000e+00
  TC2h   Q3n  1 4.650000e-01    8.780000e-01
  TC2h  SQ3n  1 4.840000e-01    1.742000e+00
  TC2h  TQ3n  1 5.050000e-01    2.353000e+00
  TC1h   Q3n  1 4.650000e-01    8.360000e-01
  TC1h  SQ3n  1 4.840000e-01    1.538000e+00
  TC1h  TQ3n  1 5.050000e-01    1.954000e+00
  TX4h   Q3n  1 3.950000e-01    2.443000e+00
  TX4h  SQ3n  1 3.650000e-01    3.578000e+00
  TX4h  TQ3n  1 3.400000e-01    5.252000e+00
  TX3h   Q3n  1 3.950000e-01    2.171000e+00
  TX3h  SQ3n  1 3.660000e-01    3.358000e+00
  TX3h  TQ3n  1 3.520000e-01    4.795000e+00
  TX2h   Q3n  1 3.950000e-01    1.964000e+00
  TX2h  SQ3n  1 3.780000e-01    3.005000e+00
  TX2h  TQ3n  1 3.660000e-01    4.227000e+00
  TX1h   Q3n  1 3.980000e-01    1.687000e+00
  TX1h  SQ3n  1 3.940000e-01    2.503000e+00
  TX1h  TQ3n  1 3.850000e-01    3.400000e+00
 TP6dh   Q3n  1 3.950000e-01    4.636000e+00
 TP6dh  SQ3n  1 3.650000e-01    6.156000e+00
 TP6dh  TQ3n  1 3.400000e-01    8.647000e+00
 TP5dh   Q3n  1 3.950000e-01    4.630000e+00
 TP5dh  SQ3n  1 3.650000e-01    6.126000e+00
 TP5dh  TQ3n  1 3.400000e-01    8.582000e+00
 TP4dh   Q3n  1 3.950000e-01    4.623000e+00
 TP4dh  SQ3n  1 3.650000e-01    6.088000e+00
 TP4dh  TQ3n  1 3.400000e-01    8.498000e+00
 TP3dh   Q3n  1 3.950000e-01    4.619000e+00
 TP3dh  SQ3n  1 3.650000e-01    6.062000e+00
 TP3dh  TQ3n  1 3.400000e-01    8.441000e+00
 TP2dh   Q3n  1 3.950000e-01    4.295000e+00
 TP2dh  SQ3n  1 3.650000e-01    5.753000e+00
 TP2dh  TQ3n  1 3.400000e-01    8.119000e+00
 TP1dh   Q3n  1 3.950000e-01    4.052000e+00
 TP1dh  SQ3n  1 3.650000e-01    5.468000e+00
 TP1dh  TQ3n  1 3.400000e-01    7.835000e+00
 TN6dh   Q3n  1 3.950000e-01    4.049000e+00
 TN6dh  SQ3n  1 3.650000e-01    5.450000e+00
 TN6dh  TQ3n  1 3.400000e-01    7.795000e+00
 TN5dh   Q3n  1 3.950000e-01    4.045000e+00
 TN5dh  SQ3n  1 3.650000e-01    5.428000e+00
 TN5dh  TQ3n  1 3.400000e-01    7.747000e+00
 TN4dh   Q3n  1 3.950000e-01    4.040000e+00
 TN4dh  SQ3n  1 3.650000e-01    5.401000e+00
 TN4dh  TQ3n  1 3.400000e-01    7.688000e+00
 TN3dh   Q3n  1 3.950000e-01    3.794000e+00
 TN3dh  SQ3n  1 3.650000e-01    5.096000e+00
 TN3dh  TQ3n  1 3.400000e-01    7.381000e+00
 TN2dh   Q3n  1 3.950000e-01    3.785000e+00
 TN2dh  SQ3n  1 3.650000e-01    5.048000e+00
 TN2dh  TQ3n  1 3.400000e-01    7.275000e+00
 TN1dh   Q3n  1 3.950000e-01    3.772000e+00
 TN1dh  SQ3n  1 3.650000e-01    4.978000e+00
 TN1dh  TQ3n  1 3.400000e-01    7.121000e+00
 TP6ah   Q3n  1 3.950000e-01    3.836000e+00
 TP6ah  SQ3n  1 3.650000e-01    5.326000e+00
 TP6ah  TQ3n  1 3.400000e-01    7.637000e+00
 TP5ah   Q3n  1 3.950000e-01    3.830000e+00
 TP5ah  SQ3n  1 3.650000e-01    5.296000e+00
 TP5ah  TQ3n  1 3.400000e-01    7.572000e+00
 TP4ah   Q3n  1 3.950000e-01    3.823000e+00
 TP4ah  SQ3n  1 3.650000e-01    5.258000e+00
 TP4ah  TQ3n  1 3.400000e-01    7.488000e+00
 TP3ah   Q3n  1 3.950000e-01    3.819000e+00
 TP3ah  SQ3n  1 3.650000e-01    5.232000e+00
 TP3ah  TQ3n  1 3.400000e-01    7.431000e+00
 TP2ah   Q3n  1 3.950000e-01    3.575000e+00
 TP2ah  SQ3n  1 3.650000e-01    4.943000e+00
 TP2ah  TQ3n  1 3.400000e-01    7.149000e+00
 TP1ah   Q3n  1 3.950000e-01    3.322000e+00
 TP1ah  SQ3n  1 3.650000e-01    4.668000e+00
 TP1ah  TQ3n  1 3.400000e-01    6.895000e+00
 TN6ah   Q3n  1 3.950000e-01    3.319000e+00
 TN6ah  SQ3n  1 3.650000e-01    4.650000e+00
 TN6ah  TQ3n  1 3.400000e-01    6.855000e+00
 TN5ah   Q3n  1 3.950000e-01    3.315000e+00
 TN5ah  SQ3n  1 3.650000e-01    4.628000e+00
 TN5ah  TQ3n  1 3.400000e-01    6.807000e+00
 TN4ah   Q3n  1 3.950000e-01    3.310000e+00
 TN4ah  SQ3n  1 3.650000e-01    4.601000e+00
 TN4ah  TQ3n  1 3.400000e-01    6.748000e+00
 TN3ah   Q3n  1 3.950000e-01    3.064000e+00
 TN3ah  SQ3n  1 3.650000e-01    4.336000e+00
 TN3ah  TQ3n  1 3.400000e-01    6.411000e+00
 TN2ah   Q3n  1 3.950000e-01    3.055000e+00
 TN2ah  SQ3n  1 3.650000e-01    4.288000e+00
 TN2ah  TQ3n  1 3.400000e-01    6.305000e+00
 TN1ah   Q3n  1 3.950000e-01    3.042000e+00
 TN1ah  SQ3n  1 3.650000e-01    4.218000e+00
 TN1ah  TQ3n  1 3.400000e-01    6.151000e+00
 TC6vh   Q3n  1 3.950000e-01    2.821000e+00
 TC6vh  SQ3n  1 3.650000e-01    3.873000e+00
 TC6vh  TQ3n  1 3.400000e-01    5.898000e+00
 TC5vh   Q3n  1 3.950000e-01    2.615000e+00
 TC5vh  SQ3n  1 3.650000e-01    3.581000e+00
 TC5vh  TQ3n  1 3.400000e-01    5.447000e+00
 TC4vh   Q3n  1 3.950000e-01    2.390000e+00
 TC4vh  SQ3n  1 3.650000e-01    3.285000e+00
 TC4vh  TQ3n  1 3.400000e-01    4.888000e+00
 TC3vh   Q3n  1 3.950000e-01    2.089000e+00
 TC3vh  SQ3n  1 3.660000e-01    2.906000e+00
 TC3vh  TQ3n  1 3.400000e-01    4.111000e+00
 TC2vh   Q3n  1 4.010000e-01    1.186000e+00
 TC2vh  SQ3n  1 4.090000e-01    2.088000e+00
 TC2vh  TQ3n  1 4.110000e-01    2.857000e+00
 TC1vh   Q3n  1 4.010000e-01    1.137000e+00
 TC1vh  SQ3n  1 4.090000e-01    1.847000e+00
 TC1vh  TQ3n  1 4.110000e-01    2.366000e+00
 TX4vh   Q3n  1 3.950000e-01    2.833000e+00
 TX4vh  SQ3n  1 3.650000e-01    3.938000e+00
 TX4vh  TQ3n  1 3.400000e-01    6.042000e+00
 TX3vh   Q3n  1 3.950000e-01    2.631000e+00
 TX3vh  SQ3n  1 3.650000e-01    3.673000e+00
 TX3vh  TQ3n  1 3.400000e-01    5.648000e+00
 TX2vh   Q3n  1 3.950000e-01    2.404000e+00
 TX2vh  SQ3n  1 3.650000e-01    3.361000e+00
 TX2vh  TQ3n  1 3.400000e-01    5.054000e+00
 TX1vh   Q3n  1 3.950000e-01    2.089000e+00
 TX1vh  SQ3n  1 3.660000e-01    2.906000e+00
 TX1vh  TQ3n  1 3.400000e-01    4.111000e+00
 TC6eh   Q3n  1 3.950000e-01    2.171000e+00
 TC6eh  SQ3n  1 3.660000e-01    3.358000e+00
 TC6eh  TQ3n  1 3.520000e-01    4.795000e+00
 TC5eh   Q3n  1 3.950000e-01    1.975000e+00
 TC5eh  SQ3n  1 3.780000e-01    3.064000e+00
 TC5eh  TQ3n  1 3.660000e-01    4.351000e+00
 TC4eh   Q3n  1 3.980000e-01    1.728000e+00
 TC4eh  SQ3n  1 3.940000e-01    2.712000e+00
 TC4eh  TQ3n  1 3.850000e-01    3.838000e+00
 TC3eh   Q3n  1 3.990000e-01    1.416000e+00
 TC3eh  SQ3n  1 4.040000e-01    2.313000e+00
 TC3eh  TQ3n  1 4.110000e-01    3.185000e+00
 TC2eh   Q3n  1 5.110000e-01    8.180000e-01
 TC2eh  SQ3n  1 5.370000e-01    1.576000e+00
 TC2eh  TQ3n  1 5.610000e-01    2.136000e+00
 TC1eh   Q3n  1 5.110000e-01    7.800000e-01
 TC1eh  SQ3n  1 5.370000e-01    1.392000e+00
 TC1eh  TQ3n  1 5.610000e-01    1.776000e+00
 TX4eh   Q3n  1 3.950000e-01    2.183000e+00
 TX4eh  SQ3n  1 3.660000e-01    3.423000e+00
 TX4eh  TQ3n  1 3.520000e-01    4.935000e+00
 TX3eh   Q3n  1 3.950000e-01    1.991000e+00
 TX3eh  SQ3n  1 3.780000e-01    3.152000e+00
 TX3eh  TQ3n  1 3.660000e-01    4.537000e+00
 TX2eh   Q3n  1 3.980000e-01    1.741000e+00
 TX2eh  SQ3n  1 3.940000e-01    2.782000e+00
 TX2eh  TQ3n  1 3.850000e-01    3.985000e+00
 TX1eh   Q3n  1 3.990000e-01    1.416000e+00
 TX1eh  SQ3n  1 4.040000e-01    2.313000e+00
 TX1eh  TQ3n  1 4.110000e-01    3.185000e+00
  TP6r   Q3n  1 3.950000e-01    4.316000e+00
  TP6r  SQ3n  1 3.650000e-01    5.866000e+00
  TP6r  TQ3n  1 3.400000e-01    8.117000e+00
  TP5r   Q3n  1 3.950000e-01    4.310000e+00
  TP5r  SQ3n  1 3.650000e-01    5.836000e+00
  TP5r  TQ3n  1 3.400000e-01    8.052000e+00
  TP4r   Q3n  1 3.950000e-01    4.303000e+00
  TP4r  SQ3n  1 3.650000e-01    5.798000e+00
  TP4r  TQ3n  1 3.400000e-01    7.968000e+00
  TP3r   Q3n  1 3.950000e-01    4.299000e+00
  TP3r  SQ3n  1 3.650000e-01    5.772000e+00
  TP3r  TQ3n  1 3.400000e-01    7.911000e+00
  TP2r   Q3n  1 3.950000e-01    4.055000e+00
  TP2r  SQ3n  1 3.650000e-01    5.483000e+00
  TP2r  TQ3n  1 3.400000e-01    7.639000e+00
  TP1r   Q3n  1 3.950000e-01    3.812000e+00
  TP1r  SQ3n  1 3.650000e-01    5.198000e+00
  TP1r  TQ3n  1 3.400000e-01    7.355000e+00
  TN6r   Q3n  1 3.950000e-01    3.809000e+00
  TN6r  SQ3n  1 3.650000e-01    5.180000e+00
  TN6r  TQ3n  1 3.400000e-01    7.315000e+00
  TN5r   Q3n  1 3.950000e-01    3.805000e+00
  TN5r  SQ3n  1 3.650000e-01    5.158000e+00
  TN5r  TQ3n  1 3.400000e-01    7.267000e+00
  TN4r   Q3n  1 3.950000e-01    3.800000e+00
  TN4r  SQ3n  1 3.650000e-01    5.131000e+00
  TN4r  TQ3n  1 3.400000e-01    7.208000e+00
  TN3r   Q3n  1 3.950000e-01    3.554000e+00
  TN3r  SQ3n  1 3.650000e-01    4.826000e+00
  TN3r  TQ3n  1 3.400000e-01    6.891000e+00
  TN2r   Q3n  1 3.950000e-01    3.545000e+00
  TN2r  SQ3n  1 3.650000e-01    4.778000e+00
  TN2r  TQ3n  1 3.400000e-01    6.785000e+00
  TN1r   Q3n  1 3.950000e-01    3.532000e+00
  TN1r  SQ3n  1 3.650000e-01    4.708000e+00
  TN1r  TQ3n  1 3.400000e-01    6.631000e+00
  TC6r   Q3n  1 3.950000e-01    2.431000e+00
  TC6r  SQ3n  1 3.650000e-01    3.513000e+00
  TC6r  TQ3n  1 3.400000e-01    5.108000e+00
  TC5r   Q3n  1 3.950000e-01    2.155000e+00
  TC5r  SQ3n  1 3.660000e-01    3.267000e+00
  TC5r  TQ3n  1 3.520000e-01    4.602000e+00
  TC4r   Q3n  1 3.950000e-01    1.950000e+00
  TC4r  SQ3n  1 3.780000e-01    2.933000e+00
  TC4r  TQ3n  1 3.660000e-01    4.073000e+00
  TC3r   Q3n  1 3.980000e-01    1.687000e+00
  TC3r  SQ3n  1 3.940000e-01    2.503000e+00
  TC3r  TQ3n  1 3.850000e-01    3.400000e+00
  TC2r   Q3n  1 4.650000e-01    8.780000e-01
  TC2r  SQ3n  1 4.840000e-01    1.742000e+00
  TC2r  TQ3n  1 5.050000e-01    2.353000e+00
  TC1r   Q3n  1 4.650000e-01    8.360000e-01
  TC1r  SQ3n  1 4.840000e-01    1.538000e+00
  TC1r  TQ3n  1 5.050000e-01    1.954000e+00
  TX4r   Q3n  1 3.950000e-01    2.443000e+00
  TX4r  SQ3n  1 3.650000e-01    3.578000e+00
  TX4r  TQ3n  1 3.400000e-01    5.252000e+00
  TX3r   Q3n  1 3.950000e-01    2.171000e+00
  TX3r  SQ3n  1 3.660000e-01    3.358000e+00
  TX3r  TQ3n  1 3.520000e-01    4.795000e+00
  TX2r   Q3n  1 3.950000e-01    1.964000e+00
  TX2r  SQ3n  1 3.780000e-01    3.005000e+00
  TX2r  TQ3n  1 3.660000e-01    4.227000e+00
  TX1r   Q3n  1 3.980000e-01    1.687000e+00
  TX1r  SQ3n  1 3.940000e-01    2.503000e+00
  TX1r  TQ3n  1 3.850000e-01    3.400000e+00
 TP6dr   Q3n  1 3.950000e-01    4.636000e+00
 TP6dr  SQ3n  1 3.650000e-01    6.156000e+00
 TP6dr  TQ3n  1 3.400000e-01    8.647000e+00
 TP5dr   Q3n  1 3.950000e-01    4.630000e+00
 TP5dr  SQ3n  1 3.650000e-01    6.126000e+00
 TP5dr  TQ3n  1 3.400000e-01    8.582000e+00
 TP4dr   Q3n  1 3.950000e-01    4.623000e+00
 TP4dr  SQ3n  1 3.650000e-01    6.088000e+00
 TP4dr  TQ3n  1 3.400000e-01    8.498000e+00
 TP3dr   Q3n  1 3.950000e-01    4.619000e+00
 TP3dr  SQ3n  1 3.650000e-01    6.062000e+00
 TP3dr  TQ3n  1 3.400000e-01    8.441000e+00
 TP2dr   Q3n  1 3.950000e-01    4.295000e+00
 TP2dr  SQ3n  1 3.650000e-01    5.753000e+00
 TP2dr  TQ3n  1 3.400000e-01    8.119000e+00
 TP1dr   Q3n  1 3.950000e-01    4.052000e+00
 TP1dr  SQ3n  1 3.650000e-01    5.468000e+00
 TP1dr  TQ3n  1 3.400000e-01    7.835000e+00
 TN6dr   Q3n  1 3.950000e-01    4.049000e+00
 TN6dr  SQ3n  1 3.650000e-01    5.450000e+00
 TN6dr  TQ3n  1 3.400000e-01    7.795000e+00
 TN5dr   Q3n  1 3.950000e-01    4.045000e+00
 TN5dr  SQ3n  1 3.650000e-01    5.428000e+00
 TN5dr  TQ3n  1 3.400000e-01    7.747000e+00
 TN4dr   Q3n  1 3.950000e-01    4.040000e+00
 TN4dr  SQ3n  1 3.650000e-01    5.401000e+00
 TN4dr  TQ3n  1 3.400000e-01    7.688000e+00
 TN3dr   Q3n  1 3.950000e-01    3.794000e+00
 TN3dr  SQ3n  1 3.650000e-01    5.096000e+00
 TN3dr  TQ3n  1 3.400000e-01    7.381000e+00
 TN2dr   Q3n  1 3.950000e-01    3.785000e+00
 TN2dr  SQ3n  1 3.650000e-01    5.048000e+00
 TN2dr  TQ3n  1 3.400000e-01    7.275000e+00
 TN1dr   Q3n  1 3.950000e-01    3.772000e+00
 TN1dr  SQ3n  1 3.650000e-01    4.978000e+00
 TN1dr  TQ3n  1 3.400000e-01    7.121000e+00
 TP6ar   Q3n  1 3.950000e-01    3.836000e+00
 TP6ar  SQ3n  1 3.650000e-01    5.326000e+00
 TP6ar  TQ3n  1 3.400000e-01    7.637000e+00
 TP5ar   Q3n  1 3.950000e-01    3.830000e+00
 TP5ar  SQ3n  1 3.650000e-01    5.296000e+00
 TP5ar  TQ3n  1 3.400000e-01    7.572000e+00
 TP4ar   Q3n  1 3.950000e-01    3.823000e+00
 TP4ar  SQ3n  1 3.650000e-01    5.258000e+00
 TP4ar  TQ3n  1 3.400000e-01    7.488000e+00
 TP3ar   Q3n  1 3.950000e-01    3.819000e+00
 TP3ar  SQ3n  1 3.650000e-01    5.232000e+00
 TP3ar  TQ3n  1 3.400000e-01    7.431000e+00
 TP2ar   Q3n  1 3.950000e-01    3.575000e+00
 TP2ar  SQ3n  1 3.650000e-01    4.943000e+00
 TP2ar  TQ3n  1 3.400000e-01    7.149000e+00
 TP1ar   Q3n  1 3.950000e-01    3.322000e+00
 TP1ar  SQ3n  1 3.650000e-01    4.668000e+00
 TP1ar  TQ3n  1 3.400000e-01    6.895000e+00
 TN6ar   Q3n  1 3.950000e-01    3.319000e+00
 TN6ar  SQ3n  1 3.650000e-01    4.650000e+00
 TN6ar  TQ3n  1 3.400000e-01    6.855000e+00
 TN5ar   Q3n  1 3.950000e-01    3.315000e+00
 TN5ar  SQ3n  1 3.650000e-01    4.628000e+00
 TN5ar  TQ3n  1 3.400000e-01    6.807000e+00
 TN4ar   Q3n  1 3.950000e-01    3.310000e+00
 TN4ar  SQ3n  1 3.650000e-01    4.601000e+00
 TN4ar  TQ3n  1 3.400000e-01    6.748000e+00
 TN3ar   Q3n  1 3.950000e-01    3.064000e+00
 TN3ar  SQ3n  1 3.650000e-01    4.336000e+00
 TN3ar  TQ3n  1 3.400000e-01    6.411000e+00
 TN2ar   Q3n  1 3.950000e-01    3.055000e+00
 TN2ar  SQ3n  1 3.650000e-01    4.288000e+00
 TN2ar  TQ3n  1 3.400000e-01    6.305000e+00
 TN1ar   Q3n  1 3.950000e-01    3.042000e+00
 TN1ar  SQ3n  1 3.650000e-01    4.218000e+00
 TN1ar  TQ3n  1 3.400000e-01    6.151000e+00
 TC6vr   Q3n  1 3.950000e-01    2.821000e+00
 TC6vr  SQ3n  1 3.650000e-01    3.873000e+00
 TC6vr  TQ3n  1 3.400000e-01    5.898000e+00
 TC5vr   Q3n  1 3.950000e-01    2.615000e+00
 TC5vr  SQ3n  1 3.650000e-01    3.581000e+00
 TC5vr  TQ3n  1 3.400000e-01    5.447000e+00
 TC4vr   Q3n  1 3.950000e-01    2.390000e+00
 TC4vr  SQ3n  1 3.650000e-01    3.285000e+00
 TC4vr  TQ3n  1 3.400000e-01    4.888000e+00
 TC3vr   Q3n  1 3.950000e-01    2.089000e+00
 TC3vr  SQ3n  1 3.660000e-01    2.906000e+00
 TC3vr  TQ3n  1 3.400000e-01    4.111000e+00
 TC2vr   Q3n  1 4.010000e-01    1.186000e+00
 TC2vr  SQ3n  1 4.090000e-01    2.088000e+00
 TC2vr  TQ3n  1 4.110000e-01    2.857000e+00
 TC1vr   Q3n  1 4.010000e-01    1.137000e+00
 TC1vr  SQ3n  1 4.090000e-01    1.847000e+00
 TC1vr  TQ3n  1 4.110000e-01    2.366000e+00
 TX4vr   Q3n  1 3.950000e-01    2.833000e+00
 TX4vr  SQ3n  1 3.650000e-01    3.938000e+00
 TX4vr  TQ3n  1 3.400000e-01    6.042000e+00
 TX3vr   Q3n  1 3.950000e-01    2.631000e+00
 TX3vr  SQ3n  1 3.650000e-01    3.673000e+00
 TX3vr  TQ3n  1 3.400000e-01    5.648000e+00
 TX2vr   Q3n  1 3.950000e-01    2.404000e+00
 TX2vr  SQ3n  1 3.650000e-01    3.361000e+00
 TX2vr  TQ3n  1 3.400000e-01    5.054000e+00
 TX1vr   Q3n  1 3.950000e-01    2.089000e+00
 TX1vr  SQ3n  1 3.660000e-01    2.906000e+00
 TX1vr  TQ3n  1 3.400000e-01    4.111000e+00
 TC6er   Q3n  1 3.950000e-01    2.171000e+00
 TC6er  SQ3n  1 3.660000e-01    3.358000e+00
 TC6er  TQ3n  1 3.520000e-01    4.795000e+00
 TC5er   Q3n  1 3.950000e-01    1.975000e+00
 TC5er  SQ3n  1 3.780000e-01    3.064000e+00
 TC5er  TQ3n  1 3.660000e-01    4.351000e+00
 TC4er   Q3n  1 3.980000e-01    1.728000e+00
 TC4er  SQ3n  1 3.940000e-01    2.712000e+00
 TC4er  TQ3n  1 3.850000e-01    3.838000e+00
 TC3er   Q3n  1 3.990000e-01    1.416000e+00
 TC3er  SQ3n  1 4.040000e-01    2.313000e+00
 TC3er  TQ3n  1 4.110000e-01    3.185000e+00
 TC2er   Q3n  1 5.110000e-01    8.180000e-01
 TC2er  SQ3n  1 5.370000e-01    1.576000e+00
 TC2er  TQ3n  1 5.610000e-01    2.136000e+00
 TC1er   Q3n  1 5.110000e-01    7.800000e-01
 TC1er  SQ3n  1 5.370000e-01    1.392000e+00
 TC1er  TQ3n  1 5.610000e-01    1.776000e+00
 TX4er   Q3n  1 3.950000e-01    2.183000e+00
 TX4er  SQ3n  1 3.660000e-01    3.423000e+00
 TX4er  TQ3n  1 3.520000e-01    4.935000e+00
 TX3er   Q3n  1 3.950000e-01    1.991000e+00
 TX3er  SQ3n  1 3.780000e-01    3.152000e+00
 TX3er  TQ3n  1 3.660000e-01    4.537000e+00
 TX2er   Q3n  1 3.980000e-01    1.741000e+00
 TX2er  SQ3n  1 3.940000e-01    2.782000e+00
 TX2er  TQ3n  1 3.850000e-01    3.985000e+00
 TX1er   Q3n  1 3.990000e-01    1.416000e+00
 TX1er  SQ3n  1 4.040000e-01    2.313000e+00
 TX1er  TQ3n  1 4.110000e-01    3.185000e+00
    P6    Q2  1 4.700000e-01    4.950000e+00
    P6   SQ2  1 4.300000e-01    6.531000e+00
    P6   TQ2  1 3.950000e-01    9.352000e+00
    P5    Q2  1 4.700000e-01    5.174000e+00
    P5   SQ2  1 4.300000e-01    6.709000e+00
    P5   TQ2  1 3.950000e-01    9.542000e+00
    P4    Q2  1 4.700000e-01    5.166000e+00
    P4   SQ2  1 4.300000e-01    6.678000e+00
    P4   TQ2  1 3.950000e-01    9.469000e+00
    P3    Q2  1 4.700000e-01    4.929000e+00
    P3   SQ2  1 4.300000e-01    6.454000e+00
    P3   TQ2  1 3.950000e-01    9.174000e+00
    P2    Q2  1 4.700000e-01    4.924000e+00
    P2   SQ2  1 4.300000e-01    6.435000e+00
    P2   TQ2  1 3.950000e-01    9.130000e+00
    P1    Q2  1 4.700000e-01    4.730000e+00
    P1   SQ2  1 4.300000e-01    6.219000e+00
    P1   TQ2  1 3.950000e-01    8.854000e+00
    N6    Q2  1 4.700000e-01    4.725000e+00
    N6   SQ2  1 4.300000e-01    6.201000e+00
    N6   TQ2  1 3.950000e-01    8.811000e+00
    N5    Q2  1 4.700000e-01    4.718000e+00
    N5   SQ2  1 4.300000e-01    6.177000e+00
    N5   TQ2  1 3.950000e-01    8.757000e+00
    N4    Q2  1 4.700000e-01    4.710000e+00
    N4   SQ2  1 4.300000e-01    6.148000e+00
    N4   TQ2  1 3.950000e-01    8.689000e+00
    N3    Q2  1 4.700000e-01    4.520000e+00
    N3   SQ2  1 4.300000e-01    5.929000e+00
    N3   TQ2  1 3.950000e-01    8.350000e+00
    N2    Q2  1 4.700000e-01    4.505000e+00
    N2   SQ2  1 4.300000e-01    5.875000e+00
    N2   TQ2  1 3.950000e-01    8.225000e+00
    N1    Q2  1 4.700000e-01    4.483000e+00
    N1   SQ2  1 4.300000e-01    5.795000e+00
    N1   TQ2  1 3.950000e-01    8.039000e+00
    C6    Q2  1 4.700000e-01    4.087000e+00
    C6   SQ2  1 4.300000e-01    5.232000e+00
    C6   TQ2  1 3.950000e-01    7.291000e+00
    C5    Q2  1 4.700000e-01    3.778000e+00
    C5   SQ2  1 4.300000e-01    4.736000e+00
    C5   TQ2  1 3.950000e-01    6.656000e+00
    C4    Q2  1 4.700000e-01    3.564000e+00
    C4   SQ2  1 4.300000e-01    4.337000e+00
    C4   TQ2  1 3.950000e-01    6.028000e+00
    C3    Q2  1 4.700000e-01    3.382000e+00
    C3   SQ2  1 4.300000e-01    3.862000e+00
    C3   TQ2  1 3.950000e-01    5.236000e+00
    C2    Q2  1 5.200000e-01    2.449000e+00
    C2   SQ2  1 4.730000e-01    2.490000e+00
    C2   TQ2  1 4.650000e-01    3.317000e+00
    C1    Q2  1 5.200000e-01    2.370000e+00
    C1   SQ2  1 4.730000e-01    2.201000e+00
    C1   TQ2  1 4.650000e-01    2.694000e+00
    X4    Q2  1 4.700000e-01    3.977000e+00
    X4   SQ2  1 4.300000e-01    5.068000e+00
    X4   TQ2  1 3.950000e-01    7.277000e+00
    X3    Q2  1 4.700000e-01    3.807000e+00
    X3   SQ2  1 4.300000e-01    4.842000e+00
    X3   TQ2  1 3.950000e-01    6.901000e+00
    X2    Q2  1 4.700000e-01    3.588000e+00
    X2   SQ2  1 4.300000e-01    4.425000e+00
    X2   TQ2  1 3.950000e-01    6.232000e+00
    X1    Q2  1 4.700000e-01    3.382000e+00
    X1   SQ2  1 4.300000e-01    3.862000e+00
    X1   TQ2  1 3.950000e-01    5.236000e+00
   P6d    Q2  1 4.700000e-01    4.950000e+00
   P6d   SQ2  1 4.300000e-01    6.531000e+00
   P6d   TQ2  1 3.950000e-01    9.352000e+00
   P5d    Q2  1 4.700000e-01    5.174000e+00
   P5d   SQ2  1 4.300000e-01    6.709000e+00
   P5d   TQ2  1 3.950000e-01    9.542000e+00
   P4d    Q2  1 4.700000e-01    5.166000e+00
   P4d   SQ2  1 4.300000e-01    6.678000e+00
   P4d   TQ2  1 3.950000e-01    9.469000e+00
   P3d    Q2  1 4.700000e-01    4.929000e+00
   P3d   SQ2  1 4.300000e-01    6.454000e+00
   P3d   TQ2  1 3.950000e-01    9.174000e+00
   P2d    Q2  1 4.700000e-01    4.924000e+00
   P2d   SQ2  1 4.300000e-01    6.435000e+00
   P2d   TQ2  1 3.950000e-01    9.130000e+00
   P1d    Q2  1 4.700000e-01    4.730000e+00
   P1d   SQ2  1 4.300000e-01    6.219000e+00
   P1d   TQ2  1 3.950000e-01    8.854000e+00
   N6d    Q2  1 4.700000e-01    4.725000e+00
   N6d   SQ2  1 4.300000e-01    6.201000e+00
   N6d   TQ2  1 3.950000e-01    8.811000e+00
   N5d    Q2  1 4.700000e-01    4.718000e+00
   N5d   SQ2  1 4.300000e-01    6.177000e+00
   N5d   TQ2  1 3.950000e-01    8.757000e+00
   N4d    Q2  1 4.700000e-01    4.710000e+00
   N4d   SQ2  1 4.300000e-01    6.148000e+00
   N4d   TQ2  1 3.950000e-01    8.689000e+00
   N3d    Q2  1 4.700000e-01    4.520000e+00
   N3d   SQ2  1 4.300000e-01    5.929000e+00
   N3d   TQ2  1 3.950000e-01    8.350000e+00
   N2d    Q2  1 4.700000e-01    4.505000e+00
   N2d   SQ2  1 4.300000e-01    5.875000e+00
   N2d   TQ2  1 3.950000e-01    8.225000e+00
   N1d    Q2  1 4.700000e-01    4.483000e+00
   N1d   SQ2  1 4.300000e-01    5.795000e+00
   N1d   TQ2  1 3.950000e-01    8.039000e+00
   P6a    Q2  1 4.700000e-01    4.950000e+00
   P6a   SQ2  1 4.300000e-01    6.531000e+00
   P6a   TQ2  1 3.950000e-01    9.352000e+00
   P5a    Q2  1 4.700000e-01    5.174000e+00
   P5a   SQ2  1 4.300000e-01    6.709000e+00
   P5a   TQ2  1 3.950000e-01    9.542000e+00
   P4a    Q2  1 4.700000e-01    5.166000e+00
   P4a   SQ2  1 4.300000e-01    6.678000e+00
   P4a   TQ2  1 3.950000e-01    9.469000e+00
   P3a    Q2  1 4.700000e-01    4.929000e+00
   P3a   SQ2  1 4.300000e-01    6.454000e+00
   P3a   TQ2  1 3.950000e-01    9.174000e+00
   P2a    Q2  1 4.700000e-01    4.924000e+00
   P2a   SQ2  1 4.300000e-01    6.435000e+00
   P2a   TQ2  1 3.950000e-01    9.130000e+00
   P1a    Q2  1 4.700000e-01    4.730000e+00
   P1a   SQ2  1 4.300000e-01    6.219000e+00
   P1a   TQ2  1 3.950000e-01    8.854000e+00
   N6a    Q2  1 4.700000e-01    4.725000e+00
   N6a   SQ2  1 4.300000e-01    6.201000e+00
   N6a   TQ2  1 3.950000e-01    8.811000e+00
   N5a    Q2  1 4.700000e-01    4.718000e+00
   N5a   SQ2  1 4.300000e-01    6.177000e+00
   N5a   TQ2  1 3.950000e-01    8.757000e+00
   N4a    Q2  1 4.700000e-01    4.710000e+00
   N4a   SQ2  1 4.300000e-01    6.148000e+00
   N4a   TQ2  1 3.950000e-01    8.689000e+00
   N3a    Q2  1 4.700000e-01    4.520000e+00
   N3a   SQ2  1 4.300000e-01    5.929000e+00
   N3a   TQ2  1 3.950000e-01    8.350000e+00
   N2a    Q2  1 4.700000e-01    4.505000e+00
   N2a   SQ2  1 4.300000e-01    5.875000e+00
   N2a   TQ2  1 3.950000e-01    8.225000e+00
   N1a    Q2  1 4.700000e-01    4.483000e+00
   N1a   SQ2  1 4.300000e-01    5.795000e+00
   N1a   TQ2  1 3.950000e-01    8.039000e+00
   C6v    Q2  1 4.700000e-01    4.257000e+00
   C6v   SQ2  1 4.300000e-01    5.452000e+00
   C6v   TQ2  1 3.950000e-01    7.491000e+00
   C5v    Q2  1 4.700000e-01    3.928000e+00
   C5v   SQ2  1 4.300000e-01    4.886000e+00
   C5v   TQ2  1 3.950000e-01    6.856000e+00
   C4v    Q2  1 4.700000e-01    3.734000e+00
   C4v   SQ2  1 4.300000e-01    4.577000e+00
   C4v   TQ2  1 3.950000e-01    6.288000e+00
   C3v    Q2  1 4.700000e-01    3.492000e+00
   C3v   SQ2  1 4.300000e-01    4.072000e+00
   C3v   TQ2  1 3.950000e-01    5.416000e+00
   C2v    Q2  1 4.850000e-01    2.593000e+00
   C2v   SQ2  1 4.430000e-01    2.772000e+00
   C2v   TQ2  1 4.040000e-01    3.839000e+00
   C1v    Q2  1 4.850000e-01    2.509000e+00
   C1v   SQ2  1 4.430000e-01    2.464000e+00
   C1v   TQ2  1 4.040000e-01    3.121000e+00
   X4v    Q2  1 4.700000e-01    4.107000e+00
   X4v   SQ2  1 4.300000e-01    5.308000e+00
   X4v   TQ2  1 3.950000e-01    7.467000e+00
   X3v    Q2  1 4.700000e-01    3.957000e+00
   X3v   SQ2  1 4.300000e-01    4.992000e+00
   X3v   TQ2  1 3.950000e-01    7.101000e+00
   X2v    Q2  1 4.700000e-01    3.758000e+00
   X2v   SQ2  1 4.300000e-01    4.665000e+00
   X2v   TQ2  1 3.950000e-01    6.492000e+00
   X1v    Q2  1 4.700000e-01    3.492000e+00
   X1v   SQ2  1 4.300000e-01    4.072000e+00
   X1v   TQ2  1 3.950000e-01    5.416000e+00
   C6e    Q2  1 4.700000e-01    4.257000e+00
   C6e   SQ2  1 4.300000e-01    5.452000e+00
   C6e   TQ2  1 3.950000e-01    7.491000e+00
   C5e    Q2  1 4.700000e-01    3.928000e+00
   C5e   SQ2  1 4.300000e-01    4.886000e+00
   C5e   TQ2  1 3.950000e-01    6.856000e+00
   C4e    Q2  1 4.700000e-01    3.734000e+00
   C4e   SQ2  1 4.300000e-01    4.577000e+00
   C4e   TQ2  1 3.950000e-01    6.288000e+00
   C3e    Q2  1 4.700000e-01    3.492000e+00
   C3e   SQ2  1 4.300000e-01    4.072000e+00
   C3e   TQ2  1 3.950000e-01    5.416000e+00
   C2e    Q2  1 4.850000e-01    2.593000e+00
   C2e   SQ2  1 4.430000e-01    2.772000e+00
   C2e   TQ2  1 4.040000e-01    3.839000e+00
   C1e    Q2  1 4.850000e-01    2.509000e+00
   C1e   SQ2  1 4.430000e-01    2.464000e+00
   C1e   TQ2  1 4.040000e-01    3.121000e+00
   X4e    Q2  1 4.700000e-01    4.107000e+00
   X4e   SQ2  1 4.300000e-01    5.308000e+00
   X4e   TQ2  1 3.950000e-01    7.467000e+00
   X3e    Q2  1 4.700000e-01    3.957000e+00
   X3e   SQ2  1 4.300000e-01    4.992000e+00
   X3e   TQ2  1 3.950000e-01    7.101000e+00
   X2e    Q2  1 4.700000e-01    3.758000e+00
   X2e   SQ2  1 4.300000e-01    4.665000e+00
   X2e   TQ2  1 3.950000e-01    6.492000e+00
   X1e    Q2  1 4.700000e-01    3.492000e+00
   X1e   SQ2  1 4.300000e-01    4.072000e+00
   X1e   TQ2  1 3.950000e-01    5.416000e+00
   P6q    Q2  1 4.700000e-01    5.690000e+00
   P6q   SQ2  1 4.300000e-01    7.241000e+00
   P6q   TQ2  1 3.950000e-01    1.015200e+01
   P5q    Q2  1 4.700000e-01    5.934000e+00
   P5q   SQ2  1 4.300000e-01    7.459000e+00
   P5q   TQ2  1 3.950000e-01    1.041200e+01
   P4q    Q2  1 4.700000e-01    5.926000e+00
   P4q   SQ2  1 4.300000e-01    7.428000e+00
   P4q   TQ2  1 3.950000e-01    1.033900e+01
   P3q    Q2  1 4.700000e-01    5.669000e+00
   P3q   SQ2  1 4.300000e-01    7.164000e+00
   P3q   TQ2  1 3.950000e-01    9.974000e+00
   P2q    Q2  1 4.700000e-01    5.664000e+00
   P2q   SQ2  1 4.300000e-01    7.145000e+00
   P2q   TQ2  1 3.950000e-01    9.930000e+00
   P1q    Q2  1 4.700000e-01    5.400000e+00
   P1q   SQ2  1 4.300000e-01    6.849000e+00
   P1q   TQ2  1 3.950000e-01    9.574000e+00
   N6q    Q2  1 4.700000e-01    5.395000e+00
   N6q   SQ2  1 4.300000e-01    6.831000e+00
   N6q   TQ2  1 3.950000e-01    9.531000e+00
   N5q    Q2  1 4.700000e-01    5.388000e+00
   N5q   SQ2  1 4.300000e-01    6.807000e+00
   N5q   TQ2  1 3.950000e-01    9.477000e+00
   N4q    Q2  1 4.700000e-01    5.380000e+00
   N4q   SQ2  1 4.300000e-01    6.778000e+00
   N4q   TQ2  1 3.950000e-01    9.409000e+00
   N3q    Q2  1 4.700000e-01    5.120000e+00
   N3q   SQ2  1 4.300000e-01    6.509000e+00
   N3q   TQ2  1 3.950000e-01    9.080000e+00
   N2q    Q2  1 4.700000e-01    5.105000e+00
   N2q   SQ2  1 4.300000e-01    6.455000e+00
   N2q   TQ2  1 3.950000e-01    8.955000e+00
   N1q    Q2  1 4.700000e-01    5.083000e+00
   N1q   SQ2  1 4.300000e-01    6.375000e+00
   N1q   TQ2  1 3.950000e-01    8.769000e+00
   C6q    Q2  1 4.700000e-01    4.627000e+00
   C6q   SQ2  1 4.300000e-01    5.842000e+00
   C6q   TQ2  1 3.950000e-01    7.981000e+00
   C5q    Q2  1 4.700000e-01    4.228000e+00
   C5q   SQ2  1 4.300000e-01    5.346000e+00
   C5q   TQ2  1 3.950000e-01    7.246000e+00
   C4q    Q2  1 4.700000e-01    4.014000e+00
   C4q   SQ2  1 4.300000e-01    4.967000e+00
   C4q   TQ2  1 3.950000e-01    6.678000e+00
   C3q    Q2  1 4.700000e-01    3.812000e+00
   C3q   SQ2  1 4.300000e-01    4.462000e+00
   C3q   TQ2  1 3.950000e-01    5.876000e+00
   C2q    Q2  1 4.700000e-01    2.984000e+00
   C2q   SQ2  1 4.300000e-01    3.261000e+00
   C2q   TQ2  1 3.990000e-01    4.226000e+00
   C1q    Q2  1 4.700000e-01    2.897000e+00
   C1q   SQ2  1 4.300000e-01    2.943000e+00
   C1q   TQ2  1 3.990000e-01    3.500000e+00
   X4q    Q2  1 4.700000e-01    4.467000e+00
   X4q   SQ2  1 4.300000e-01    5.738000e+00
   X4q   TQ2  1 3.950000e-01    7.907000e+00
   X3q    Q2  1 4.700000e-01    4.257000e+00
   X3q   SQ2  1 4.300000e-01    5.452000e+00
   X3q   TQ2  1 3.950000e-01    7.491000e+00
   X2q    Q2  1 4.700000e-01    4.038000e+00
   X2q   SQ2  1 4.300000e-01    5.055000e+00
   X2q   TQ2  1 3.950000e-01    6.882000e+00
   X1q    Q2  1 4.700000e-01    3.812000e+00
   X1q   SQ2  1 4.300000e-01    4.462000e+00
   X1q   TQ2  1 3.950000e-01    5.876000e+00
  P6dq    Q2  1 4.700000e-01    5.690000e+00
  P6dq   SQ2  1 4.300000e-01    7.241000e+00
  P6dq   TQ2  1 3.950000e-01    1.015200e+01
  P5dq    Q2  1 4.700000e-01    5.934000e+00
  P5dq   SQ2  1 4.300000e-01    7.459000e+00
  P5dq   TQ2  1 3.950000e-01    1.041200e+01
  P4dq    Q2  1 4.700000e-01    5.926000e+00
  P4dq   SQ2  1 4.300000e-01    7.428000e+00
  P4dq   TQ2  1 3.950000e-01    1.033900e+01
  P3dq    Q2  1 4.700000e-01    5.669000e+00
  P3dq   SQ2  1 4.300000e-01    7.164000e+00
  P3dq   TQ2  1 3.950000e-01    9.974000e+00
  P2dq    Q2  1 4.700000e-01    5.664000e+00
  P2dq   SQ2  1 4.300000e-01    7.145000e+00
  P2dq   TQ2  1 3.950000e-01    9.930000e+00
  P1dq    Q2  1 4.700000e-01    5.400000e+00
  P1dq   SQ2  1 4.300000e-01    6.849000e+00
  P1dq   TQ2  1 3.950000e-01    9.574000e+00
  N6dq    Q2  1 4.700000e-01    5.395000e+00
  N6dq   SQ2  1 4.300000e-01    6.831000e+00
  N6dq   TQ2  1 3.950000e-01    9.531000e+00
  N5dq    Q2  1 4.700000e-01    5.388000e+00
  N5dq   SQ2  1 4.300000e-01    6.807000e+00
  N5dq   TQ2  1 3.950000e-01    9.477000e+00
  N4dq    Q2  1 4.700000e-01    5.380000e+00
  N4dq   SQ2  1 4.300000e-01    6.778000e+00
  N4dq   TQ2  1 3.950000e-01    9.409000e+00
  N3dq    Q2  1 4.700000e-01    5.120000e+00
  N3dq   SQ2  1 4.300000e-01    6.509000e+00
  N3dq   TQ2  1 3.950000e-01    9.080000e+00
  N2dq    Q2  1 4.700000e-01    5.105000e+00
  N2dq   SQ2  1 4.300000e-01    6.455000e+00
  N2dq   TQ2  1 3.950000e-01    8.955000e+00
  N1dq    Q2  1 4.700000e-01    5.083000e+00
  N1dq   SQ2  1 4.300000e-01    6.375000e+00
  N1dq   TQ2  1 3.950000e-01    8.769000e+00
  P6aq    Q2  1 4.700000e-01    5.690000e+00
  P6aq   SQ2  1 4.300000e-01    7.241000e+00
  P6aq   TQ2  1 3.950000e-01    1.015200e+01
  P5aq    Q2  1 4.700000e-01    5.934000e+00
  P5aq   SQ2  1 4.300000e-01    7.459000e+00
  P5aq   TQ2  1 3.950000e-01    1.041200e+01
  P4aq    Q2  1 4.700000e-01    5.926000e+00
  P4aq   SQ2  1 4.300000e-01    7.428000e+00
  P4aq   TQ2  1 3.950000e-01    1.033900e+01
  P3aq    Q2  1 4.700000e-01    5.669000e+00
  P3aq   SQ2  1 4.300000e-01    7.164000e+00
  P3aq   TQ2  1 3.950000e-01    9.974000e+00
  P2aq    Q2  1 4.700000e-01    5.664000e+00
  P2aq   SQ2  1 4.300000e-01    7.145000e+00
  P2aq   TQ2  1 3.950000e-01    9.930000e+00
  P1aq    Q2  1 4.700000e-01    5.400000e+00
  P1aq   SQ2  1 4.300000e-01    6.849000e+00
  P1aq   TQ2  1 3.950000e-01    9.574000e+00
  N6aq    Q2  1 4.700000e-01    5.395000e+00
  N6aq   SQ2  1 4.300000e-01    6.831000e+00
  N6aq   TQ2  1 3.950000e-01    9.531000e+00
  N5aq    Q2  1 4.700000e-01    5.388000e+00
  N5aq   SQ2  1 4.300000e-01    6.807000e+00
  N5aq   TQ2  1 3.950000e-01    9.477000e+00
  N4aq    Q2  1 4.700000e-01    5.380000e+00
  N4aq   SQ2  1 4.300000e-01    6.778000e+00
  N4aq   TQ2  1 3.950000e-01    9.409000e+00
  N3aq    Q2  1 4.700000e-01    5.120000e+00
  N3aq   SQ2  1 4.300000e-01    6.509000e+00
  N3aq   TQ2  1 3.950000e-01    9.080000e+00
  N2aq    Q2  1 4.700000e-01    5.105000e+00
  N2aq   SQ2  1 4.300000e-01    6.455000e+00
  N2aq   TQ2  1 3.950000e-01    8.955000e+00
  N1aq    Q2  1 4.700000e-01    5.083000e+00
  N1aq   SQ2  1 4.300000e-01    6.375000e+00
  N1aq   TQ2  1 3.950000e-01    8.769000e+00
  C6vq    Q2  1 4.700000e-01    4.817000e+00
  C6vq   SQ2  1 4.300000e-01    6.042000e+00
  C6vq   TQ2  1 3.950000e-01    8.221000e+00
  C5vq    Q2  1 4.700000e-01    4.418000e+00
  C5vq   SQ2  1 4.300000e-01    5.556000e+00
  C5vq   TQ2  1 3.950000e-01    7.486000e+00
  C4vq    Q2  1 4.700000e-01    4.184000e+00
  C4vq   SQ2  1 4.300000e-01    5.187000e+00
  C4vq   TQ2  1 3.950000e-01    6.878000e+00
  C3vq    Q2  1 4.700000e-01    3.942000e+00
  C3vq   SQ2  1 4.300000e-01    4.702000e+00
  C3vq   TQ2  1 3.950000e-01    6.066000e+00
  C2vq    Q2  1 4.700000e-01    3.154000e+00
  C2vq   SQ2  1 4.300000e-01    3.491000e+00
  C2vq   TQ2  1 3.980000e-01    4.504000e+00
  C1vq    Q2  1 4.700000e-01    3.067000e+00
  C1vq   SQ2  1 4.300000e-01    3.173000e+00
  C1vq   TQ2  1 3.980000e-01    3.776000e+00
  X4vq    Q2  1 4.700000e-01    4.647000e+00
  X4vq   SQ2  1 4.300000e-01    5.918000e+00
  X4vq   TQ2  1 3.950000e-01    8.157000e+00
  X3vq    Q2  1 4.700000e-01    4.447000e+00
  X3vq   SQ2  1 4.300000e-01    5.662000e+00
  X3vq   TQ2  1 3.950000e-01    7.731000e+00
  X2vq    Q2  1 4.700000e-01    4.208000e+00
  X2vq   SQ2  1 4.300000e-01    5.275000e+00
  X2vq   TQ2  1 3.950000e-01    7.082000e+00
  X1vq    Q2  1 4.700000e-01    3.942000e+00
  X1vq   SQ2  1 4.300000e-01    4.702000e+00
  X1vq   TQ2  1 3.950000e-01    6.066000e+00
  C6eq    Q2  1 4.700000e-01    4.817000e+00
  C6eq   SQ2  1 4.300000e-01    6.042000e+00
  C6eq   TQ2  1 3.950000e-01    8.221000e+00
  C5eq    Q2  1 4.700000e-01    4.418000e+00
  C5eq   SQ2  1 4.300000e-01    5.556000e+00
  C5eq   TQ2  1 3.950000e-01    7.486000e+00
  C4eq    Q2  1 4.700000e-01    4.184000e+00
  C4eq   SQ2  1 4.300000e-01    5.187000e+00
  C4eq   TQ2  1 3.950000e-01    6.878000e+00
  C3eq    Q2  1 4.700000e-01    3.942000e+00
  C3eq   SQ2  1 4.300000e-01    4.702000e+00
  C3eq   TQ2  1 3.950000e-01    6.066000e+00
  C2eq    Q2  1 4.700000e-01    3.154000e+00
  C2eq   SQ2  1 4.300000e-01    3.491000e+00
  C2eq   TQ2  1 3.980000e-01    4.504000e+00
  C1eq    Q2  1 4.700000e-01    3.067000e+00
  C1eq   SQ2  1 4.300000e-01    3.173000e+00
  C1eq   TQ2  1 3.980000e-01    3.776000e+00
  X4eq    Q2  1 4.700000e-01    4.647000e+00
  X4eq   SQ2  1 4.300000e-01    5.918000e+00
  X4eq   TQ2  1 3.950000e-01    8.157000e+00
  X3eq    Q2  1 4.700000e-01    4.447000e+00
  X3eq   SQ2  1 4.300000e-01    5.662000e+00
  X3eq   TQ2  1 3.950000e-01    7.731000e+00
  X2eq    Q2  1 4.700000e-01    4.208000e+00
  X2eq   SQ2  1 4.300000e-01    5.275000e+00
  X2eq   TQ2  1 3.950000e-01    7.082000e+00
  X1eq    Q2  1 4.700000e-01    3.942000e+00
  X1eq   SQ2  1 4.300000e-01    4.702000e+00
  X1eq   TQ2  1 3.950000e-01    6.066000e+00
   P6h    Q2  1 4.700000e-01    4.950000e+00
   P6h   SQ2  1 4.300000e-01    6.531000e+00
   P6h   TQ2  1 3.950000e-01    9.352000e+00
   P5h    Q2  1 4.700000e-01    5.174000e+00
   P5h   SQ2  1 4.300000e-01    6.709000e+00
   P5h   TQ2  1 3.950000e-01    9.542000e+00
   P4h    Q2  1 4.700000e-01    5.166000e+00
   P4h   SQ2  1 4.300000e-01    6.678000e+00
   P4h   TQ2  1 3.950000e-01    9.469000e+00
   P3h    Q2  1 4.700000e-01    4.929000e+00
   P3h   SQ2  1 4.300000e-01    6.454000e+00
   P3h   TQ2  1 3.950000e-01    9.174000e+00
   P2h    Q2  1 4.700000e-01    4.924000e+00
   P2h   SQ2  1 4.300000e-01    6.435000e+00
   P2h   TQ2  1 3.950000e-01    9.130000e+00
   P1h    Q2  1 4.700000e-01    4.730000e+00
   P1h   SQ2  1 4.300000e-01    6.219000e+00
   P1h   TQ2  1 3.950000e-01    8.854000e+00
   N6h    Q2  1 4.700000e-01    4.725000e+00
   N6h   SQ2  1 4.300000e-01    6.201000e+00
   N6h   TQ2  1 3.950000e-01    8.811000e+00
   N5h    Q2  1 4.700000e-01    4.718000e+00
   N5h   SQ2  1 4.300000e-01    6.177000e+00
   N5h   TQ2  1 3.950000e-01    8.757000e+00
   N4h    Q2  1 4.700000e-01    4.710000e+00
   N4h   SQ2  1 4.300000e-01    6.148000e+00
   N4h   TQ2  1 3.950000e-01    8.689000e+00
   N3h    Q2  1 4.700000e-01    4.520000e+00
   N3h   SQ2  1 4.300000e-01    5.929000e+00
   N3h   TQ2  1 3.950000e-01    8.350000e+00
   N2h    Q2  1 4.700000e-01    4.505000e+00
   N2h   SQ2  1 4.300000e-01    5.875000e+00
   N2h   TQ2  1 3.950000e-01    8.225000e+00
   N1h    Q2  1 4.700000e-01    4.483000e+00
   N1h   SQ2  1 4.300000e-01    5.795000e+00
   N1h   TQ2  1 3.950000e-01    8.039000e+00
   C6h    Q2  1 4.700000e-01    4.087000e+00
   C6h   SQ2  1 4.300000e-01    5.232000e+00
   C6h   TQ2  1 3.950000e-01    7.291000e+00
   C5h    Q2  1 4.700000e-01    3.778000e+00
   C5h   SQ2  1 4.300000e-01    4.736000e+00
   C5h   TQ2  1 3.950000e-01    6.656000e+00
   C4h    Q2  1 4.700000e-01    3.564000e+00
   C4h   SQ2  1 4.300000e-01    4.337000e+00
   C4h   TQ2  1 3.950000e-01    6.028000e+00
   C3h    Q2  1 4.700000e-01    3.382000e+00
   C3h   SQ2  1 4.300000e-01    3.862000e+00
   C3h   TQ2  1 3.950000e-01    5.236000e+00
   C2h    Q2  1 5.200000e-01    2.449000e+00
   C2h   SQ2  1 4.730000e-01    2.490000e+00
   C2h   TQ2  1 4.650000e-01    3.317000e+00
   C1h    Q2  1 5.200000e-01    2.370000e+00
   C1h   SQ2  1 4.730000e-01    2.201000e+00
   C1h   TQ2  1 4.650000e-01    2.694000e+00
   X4h    Q2  1 4.700000e-01    3.977000e+00
   X4h   SQ2  1 4.300000e-01    5.068000e+00
   X4h   TQ2  1 3.950000e-01    7.277000e+00
   X3h    Q2  1 4.700000e-01    3.807000e+00
   X3h   SQ2  1 4.300000e-01    4.842000e+00
   X3h   TQ2  1 3.950000e-01    6.901000e+00
   X2h    Q2  1 4.700000e-01    3.588000e+00
   X2h   SQ2  1 4.300000e-01    4.425000e+00
   X2h   TQ2  1 3.950000e-01    6.232000e+00
   X1h    Q2  1 4.700000e-01    3.382000e+00
   X1h   SQ2  1 4.300000e-01    3.862000e+00
   X1h   TQ2  1 3.950000e-01    5.236000e+00
  P6dh    Q2  1 4.700000e-01    4.950000e+00
  P6dh   SQ2  1 4.300000e-01    6.531000e+00
  P6dh   TQ2  1 3.950000e-01    9.352000e+00
  P5dh    Q2  1 4.700000e-01    5.174000e+00
  P5dh   SQ2  1 4.300000e-01    6.709000e+00
  P5dh   TQ2  1 3.950000e-01    9.542000e+00
  P4dh    Q2  1 4.700000e-01    5.166000e+00
  P4dh   SQ2  1 4.300000e-01    6.678000e+00
  P4dh   TQ2  1 3.950000e-01    9.469000e+00
  P3dh    Q2  1 4.700000e-01    4.929000e+00
  P3dh   SQ2  1 4.300000e-01    6.454000e+00
  P3dh   TQ2  1 3.950000e-01    9.174000e+00
  P2dh    Q2  1 4.700000e-01    4.924000e+00
  P2dh   SQ2  1 4.300000e-01    6.435000e+00
  P2dh   TQ2  1 3.950000e-01    9.130000e+00
  P1dh    Q2  1 4.700000e-01    4.730000e+00
  P1dh   SQ2  1 4.300000e-01    6.219000e+00
  P1dh   TQ2  1 3.950000e-01    8.854000e+00
  N6dh    Q2  1 4.700000e-01    4.725000e+00
  N6dh   SQ2  1 4.300000e-01    6.201000e+00
  N6dh   TQ2  1 3.950000e-01    8.811000e+00
  N5dh    Q2  1 4.700000e-01    4.718000e+00
  N5dh   SQ2  1 4.300000e-01    6.177000e+00
  N5dh   TQ2  1 3.950000e-01    8.757000e+00
  N4dh    Q2  1 4.700000e-01    4.710000e+00
  N4dh   SQ2  1 4.300000e-01    6.148000e+00
  N4dh   TQ2  1 3.950000e-01    8.689000e+00
  N3dh    Q2  1 4.700000e-01    4.520000e+00
  N3dh   SQ2  1 4.300000e-01    5.929000e+00
  N3dh   TQ2  1 3.950000e-01    8.350000e+00
  N2dh    Q2  1 4.700000e-01    4.505000e+00
  N2dh   SQ2  1 4.300000e-01    5.875000e+00
  N2dh   TQ2  1 3.950000e-01    8.225000e+00
  N1dh    Q2  1 4.700000e-01    4.483000e+00
  N1dh   SQ2  1 4.300000e-01    5.795000e+00
  N1dh   TQ2  1 3.950000e-01    8.039000e+00
  P6ah    Q2  1 4.700000e-01    4.950000e+00
  P6ah   SQ2  1 4.300000e-01    6.531000e+00
  P6ah   TQ2  1 3.950000e-01    9.352000e+00
  P5ah    Q2  1 4.700000e-01    5.174000e+00
  P5ah   SQ2  1 4.300000e-01    6.709000e+00
  P5ah   TQ2  1 3.950000e-01    9.542000e+00
  P4ah    Q2  1 4.700000e-01    5.166000e+00
  P4ah   SQ2  1 4.300000e-01    6.678000e+00
  P4ah   TQ2  1 3.950000e-01    9.469000e+00
  P3ah    Q2  1 4.700000e-01    4.929000e+00
  P3ah   SQ2  1 4.300000e-01    6.454000e+00
  P3ah   TQ2  1 3.950000e-01    9.174000e+00
  P2ah    Q2  1 4.700000e-01    4.924000e+00
  P2ah   SQ2  1 4.300000e-01    6.435000e+00
  P2ah   TQ2  1 3.950000e-01    9.130000e+00
  P1ah    Q2  1 4.700000e-01    4.730000e+00
  P1ah   SQ2  1 4.300000e-01    6.219000e+00
  P1ah   TQ2  1 3.950000e-01    8.854000e+00
  N6ah    Q2  1 4.700000e-01    4.725000e+00
  N6ah   SQ2  1 4.300000e-01    6.201000e+00
  N6ah   TQ2  1 3.950000e-01    8.811000e+00
  N5ah    Q2  1 4.700000e-01    4.718000e+00
  N5ah   SQ2  1 4.300000e-01    6.177000e+00
  N5ah   TQ2  1 3.950000e-01    8.757000e+00
  N4ah    Q2  1 4.700000e-01    4.710000e+00
  N4ah   SQ2  1 4.300000e-01    6.148000e+00
  N4ah   TQ2  1 3.950000e-01    8.689000e+00
  N3ah    Q2  1 4.700000e-01    4.520000e+00
  N3ah   SQ2  1 4.300000e-01    5.929000e+00
  N3ah   TQ2  1 3.950000e-01    8.350000e+00
  N2ah    Q2  1 4.700000e-01    4.505000e+00
  N2ah   SQ2  1 4.300000e-01    5.875000e+00
  N2ah   TQ2  1 3.950000e-01    8.225000e+00
  N1ah    Q2  1 4.700000e-01    4.483000e+00
  N1ah   SQ2  1 4.300000e-01    5.795000e+00
  N1ah   TQ2  1 3.950000e-01    8.039000e+00
  C6vh    Q2  1 4.700000e-01    4.257000e+00
  C6vh   SQ2  1 4.300000e-01    5.452000e+00
  C6vh   TQ2  1 3.950000e-01    7.491000e+00
  C5vh    Q2  1 4.700000e-01    3.928000e+00
  C5vh   SQ2  1 4.300000e-01    4.886000e+00
  C5vh   TQ2  1 3.950000e-01    6.856000e+00
  C4vh    Q2  1 4.700000e-01    3.734000e+00
  C4vh   SQ2  1 4.300000e-01    4.577000e+00
  C4vh   TQ2  1 3.950000e-01    6.288000e+00
  C3vh    Q2  1 4.700000e-01    3.492000e+00
  C3vh   SQ2  1 4.300000e-01    4.072000e+00
  C3vh   TQ2  1 3.950000e-01    5.416000e+00
  C2vh    Q2  1 4.850000e-01    2.593000e+00
  C2vh   SQ2  1 4.430000e-01    2.772000e+00
  C2vh   TQ2  1 4.040000e-01    3.839000e+00
  C1vh    Q2  1 4.850000e-01    2.509000e+00
  C1vh   SQ2  1 4.430000e-01    2.464000e+00
  C1vh   TQ2  1 4.040000e-01    3.121000e+00
  X4vh    Q2  1 4.700000e-01    4.107000e+00
  X4vh   SQ2  1 4.300000e-01    5.308000e+00
  X4vh   TQ2  1 3.950000e-01    7.467000e+00
  X3vh    Q2  1 4.700000e-01    3.957000e+00
  X3vh   SQ2  1 4.300000e-01    4.992000e+00
  X3vh   TQ2  1 3.950000e-01    7.101000e+00
  X2vh    Q2  1 4.700000e-01    3.758000e+00
  X2vh   SQ2  1 4.300000e-01    4.665000e+00
  X2vh   TQ2  1 3.950000e-01    6.492000e+00
  X1vh    Q2  1 4.700000e-01    3.492000e+00
  X1vh   SQ2  1 4.300000e-01    4.072000e+00
  X1vh   TQ2  1 3.950000e-01    5.416000e+00
  C6eh    Q2  1 4.700000e-01    4.257000e+00
  C6eh   SQ2  1 4.300000e-01    5.452000e+00
  C6eh   TQ2  1 3.950000e-01    7.491000e+00
  C5eh    Q2  1 4.700000e-01    3.928000e+00
  C5eh   SQ2  1 4.300000e-01    4.886000e+00
  C5eh   TQ2  1 3.950000e-01    6.856000e+00
  C4eh    Q2  1 4.700000e-01    3.734000e+00
  C4eh   SQ2  1 4.300000e-01    4.577000e+00
  C4eh   TQ2  1 3.950000e-01    6.288000e+00
  C3eh    Q2  1 4.700000e-01    3.492000e+00
  C3eh   SQ2  1 4.300000e-01    4.072000e+00
  C3eh   TQ2  1 3.950000e-01    5.416000e+00
  C2eh    Q2  1 4.850000e-01    2.593000e+00
  C2eh   SQ2  1 4.430000e-01    2.772000e+00
  C2eh   TQ2  1 4.040000e-01    3.839000e+00
  C1eh    Q2  1 4.850000e-01    2.509000e+00
  C1eh   SQ2  1 4.430000e-01    2.464000e+00
  C1eh   TQ2  1 4.040000e-01    3.121000e+00
  X4eh    Q2  1 4.700000e-01    4.107000e+00
  X4eh   SQ2  1 4.300000e-01    5.308000e+00
  X4eh   TQ2  1 3.950000e-01    7.467000e+00
  X3eh    Q2  1 4.700000e-01    3.957000e+00
  X3eh   SQ2  1 4.300000e-01    4.992000e+00
  X3eh   TQ2  1 3.950000e-01    7.101000e+00
  X2eh    Q2  1 4.700000e-01    3.758000e+00
  X2eh   SQ2  1 4.300000e-01    4.665000e+00
  X2eh   TQ2  1 3.950000e-01    6.492000e+00
  X1eh    Q2  1 4.700000e-01    3.492000e+00
  X1eh   SQ2  1 4.300000e-01    4.072000e+00
  X1eh   TQ2  1 3.950000e-01    5.416000e+00
   P6r    Q2  1 4.700000e-01    4.950000e+00
   P6r   SQ2  1 4.300000e-01    6.531000e+00
   P6r   TQ2  1 3.950000e-01    9.352000e+00
   P5r    Q2  1 4.700000e-01    5.174000e+00
   P5r   SQ2  1 4.300000e-01    6.709000e+00
   P5r   TQ2  1 3.950000e-01    9.542000e+00
   P4r    Q2  1 4.700000e-01    5.166000e+00
   P4r   SQ2  1 4.300000e-01    6.678000e+00
   P4r   TQ2  1 3.950000e-01    9.469000e+00
   P3r    Q2  1 4.700000e-01    4.929000e+00
   P3r   SQ2  1 4.300000e-01    6.454000e+00
   P3r   TQ2  1 3.950000e-01    9.174000e+00
   P2r    Q2  1 4.700000e-01    4.924000e+00
   P2r   SQ2  1 4.300000e-01    6.435000e+00
   P2r   TQ2  1 3.950000e-01    9.130000e+00
   P1r    Q2  1 4.700000e-01    4.730000e+00
   P1r   SQ2  1 4.300000e-01    6.219000e+00
   P1r   TQ2  1 3.950000e-01    8.854000e+00
   N6r    Q2  1 4.700000e-01    4.725000e+00
   N6r   SQ2  1 4.300000e-01    6.201000e+00
   N6r   TQ2  1 3.950000e-01    8.811000e+00
   N5r    Q2  1 4.700000e-01    4.718000e+00
   N5r   SQ2  1 4.300000e-01    6.177000e+00
   N5r   TQ2  1 3.950000e-01    8.757000e+00
   N4r    Q2  1 4.700000e-01    4.710000e+00
   N4r   SQ2  1 4.300000e-01    6.148000e+00
   N4r   TQ2  1 3.950000e-01    8.689000e+00
   N3r    Q2  1 4.700000e-01    4.520000e+00
   N3r   SQ2  1 4.300000e-01    5.929000e+00
   N3r   TQ2  1 3.950000e-01    8.350000e+00
   N2r    Q2  1 4.700000e-01    4.505000e+00
   N2r   SQ2  1 4.300000e-01    5.875000e+00
   N2r   TQ2  1 3.950000e-01    8.225000e+00
   N1r    Q2  1 4.700000e-01    4.483000e+00
   N1r   SQ2  1 4.300000e-01    5.795000e+00
   N1r   TQ2  1 3.950000e-01    8.039000e+00
   C6r    Q2  1 4.700000e-01    4.087000e+00
   C6r   SQ2  1 4.300000e-01    5.232000e+00
   C6r   TQ2  1 3.950000e-01    7.291000e+00
   C5r    Q2  1 4.700000e-01    3.778000e+00
   C5r   SQ2  1 4.300000e-01    4.736000e+00
   C5r   TQ2  1 3.950000e-01    6.656000e+00
   C4r    Q2  1 4.700000e-01    3.564000e+00
   C4r   SQ2  1 4.300000e-01    4.337000e+00
   C4r   TQ2  1 3.950000e-01    6.028000e+00
   C3r    Q2  1 4.700000e-01    3.382000e+00
   C3r   SQ2  1 4.300000e-01    3.862000e+00
   C3r   TQ2  1 3.950000e-01    5.236000e+00
   C2r    Q2  1 5.200000e-01    2.449000e+00
   C2r   SQ2  1 4.730000e-01    2.490000e+00
   C2r   TQ2  1 4.650000e-01    3.317000e+00
   C1r    Q2  1 5.200000e-01    2.370000e+00
   C1r   SQ2  1 4.730000e-01    2.201000e+00
   C1r   TQ2  1 4.650000e-01    2.694000e+00
   X4r    Q2  1 4.700000e-01    3.977000e+00
   X4r   SQ2  1 4.300000e-01    5.068000e+00
   X4r   TQ2  1 3.950000e-01    7.277000e+00
   X3r    Q2  1 4.700000e-01    3.807000e+00
   X3r   SQ2  1 4.300000e-01    4.842000e+00
   X3r   TQ2  1 3.950000e-01    6.901000e+00
   X2r    Q2  1 4.700000e-01    3.588000e+00
   X2r   SQ2  1 4.300000e-01    4.425000e+00
   X2r   TQ2  1 3.950000e-01    6.232000e+00
   X1r    Q2  1 4.700000e-01    3.382000e+00
   X1r   SQ2  1 4.300000e-01    3.862000e+00
   X1r   TQ2  1 3.950000e-01    5.236000e+00
  P6dr    Q2  1 4.700000e-01    4.950000e+00
  P6dr   SQ2  1 4.300000e-01    6.531000e+00
  P6dr   TQ2  1 3.950000e-01    9.352000e+00
  P5dr    Q2  1 4.700000e-01    5.174000e+00
  P5dr   SQ2  1 4.300000e-01    6.709000e+00
  P5dr   TQ2  1 3.950000e-01    9.542000e+00
  P4dr    Q2  1 4.700000e-01    5.166000e+00
  P4dr   SQ2  1 4.300000e-01    6.678000e+00
  P4dr   TQ2  1 3.950000e-01    9.469000e+00
  P3dr    Q2  1 4.700000e-01    4.929000e+00
  P3dr   SQ2  1 4.300000e-01    6.454000e+00
  P3dr   TQ2  1 3.950000e-01    9.174000e+00
  P2dr    Q2  1 4.700000e-01    4.924000e+00
  P2dr   SQ2  1 4.300000e-01    6.435000e+00
  P2dr   TQ2  1 3.950000e-01    9.130000e+00
  P1dr    Q2  1 4.700000e-01    4.730000e+00
  P1dr   SQ2  1 4.300000e-01    6.219000e+00
  P1dr   TQ2  1 3.950000e-01    8.854000e+00
  N6dr    Q2  1 4.700000e-01    4.725000e+00
  N6dr   SQ2  1 4.300000e-01    6.201000e+00
  N6dr   TQ2  1 3.950000e-01    8.811000e+00
  N5dr    Q2  1 4.700000e-01    4.718000e+00
  N5dr   SQ2  1 4.300000e-01    6.177000e+00
  N5dr   TQ2  1 3.950000e-01    8.757000e+00
  N4dr    Q2  1 4.700000e-01    4.710000e+00
  N4dr   SQ2  1 4.300000e-01    6.148000e+00
  N4dr   TQ2  1 3.950000e-01    8.689000e+00
  N3dr    Q2  1 4.700000e-01    4.520000e+00
  N3dr   SQ2  1 4.300000e-01    5.929000e+00
  N3dr   TQ2  1 3.950000e-01    8.350000e+00
  N2dr    Q2  1 4.700000e-01    4.505000e+00
  N2dr   SQ2  1 4.300000e-01    5.875000e+00
  N2dr   TQ2  1 3.950000e-01    8.225000e+00
  N1dr    Q2  1 4.700000e-01    4.483000e+00
  N1dr   SQ2  1 4.300000e-01    5.795000e+00
  N1dr   TQ2  1 3.950000e-01    8.039000e+00
  P6ar    Q2  1 4.700000e-01    4.950000e+00
  P6ar   SQ2  1 4.300000e-01    6.531000e+00
  P6ar   TQ2  1 3.950000e-01    9.352000e+00
  P5ar    Q2  1 4.700000e-01    5.174000e+00
  P5ar   SQ2  1 4.300000e-01    6.709000e+00
  P5ar   TQ2  1 3.950000e-01    9.542000e+00
  P4ar    Q2  1 4.700000e-01    5.166000e+00
  P4ar   SQ2  1 4.300000e-01    6.678000e+00
  P4ar   TQ2  1 3.950000e-01    9.469000e+00
  P3ar    Q2  1 4.700000e-01    4.929000e+00
  P3ar   SQ2  1 4.300000e-01    6.454000e+00
  P3ar   TQ2  1 3.950000e-01    9.174000e+00
  P2ar    Q2  1 4.700000e-01    4.924000e+00
  P2ar   SQ2  1 4.300000e-01    6.435000e+00
  P2ar   TQ2  1 3.950000e-01    9.130000e+00
  P1ar    Q2  1 4.700000e-01    4.730000e+00
  P1ar   SQ2  1 4.300000e-01    6.219000e+00
  P1ar   TQ2  1 3.950000e-01    8.854000e+00
  N6ar    Q2  1 4.700000e-01    4.725000e+00
  N6ar   SQ2  1 4.300000e-01    6.201000e+00
  N6ar   TQ2  1 3.950000e-01    8.811000e+00
  N5ar    Q2  1 4.700000e-01    4.718000e+00
  N5ar   SQ2  1 4.300000e-01    6.177000e+00
  N5ar   TQ2  1 3.950000e-01    8.757000e+00
  N4ar    Q2  1 4.700000e-01    4.710000e+00
  N4ar   SQ2  1 4.300000e-01    6.148000e+00
  N4ar   TQ2  1 3.950000e-01    8.689000e+00
  N3ar    Q2  1 4.700000e-01    4.520000e+00
  N3ar   SQ2  1 4.300000e-01    5.929000e+00
  N3ar   TQ2  1 3.950000e-01    8.350000e+00
  N2ar    Q2  1 4.700000e-01    4.505000e+00
  N2ar   SQ2  1 4.300000e-01    5.875000e+00
  N2ar   TQ2  1 3.950000e-01    8.225000e+00
  N1ar    Q2  1 4.700000e-01    4.483000e+00
  N1ar   SQ2  1 4.300000e-01    5.795000e+00
  N1ar   TQ2  1 3.950000e-01    8.039000e+00
  C6vr    Q2  1 4.700000e-01    4.257000e+00
  C6vr   SQ2  1 4.300000e-01    5.452000e+00
  C6vr   TQ2  1 3.950000e-01    7.491000e+00
  C5vr    Q2  1 4.700000e-01    3.928000e+00
  C5vr   SQ2  1 4.300000e-01    4.886000e+00
  C5vr   TQ2  1 3.950000e-01    6.856000e+00
  C4vr    Q2  1 4.700000e-01    3.734000e+00
  C4vr   SQ2  1 4.300000e-01    4.577000e+00
  C4vr   TQ2  1 3.950000e-01    6.288000e+00
  C3vr    Q2  1 4.700000e-01    3.492000e+00
  C3vr   SQ2  1 4.300000e-01    4.072000e+00
  C3vr   TQ2  1 3.950000e-01    5.416000e+00
  C2vr    Q2  1 4.850000e-01    2.593000e+00
  C2vr   SQ2  1 4.430000e-01    2.772000e+00
  C2vr   TQ2  1 4.040000e-01    3.839000e+00
  C1vr    Q2  1 4.850000e-01    2.509000e+00
  C1vr   SQ2  1 4.430000e-01    2.464000e+00
  C1vr   TQ2  1 4.040000e-01    3.121000e+00
  X4vr    Q2  1 4.700000e-01    4.107000e+00
  X4vr   SQ2  1 4.300000e-01    5.308000e+00
  X4vr   TQ2  1 3.950000e-01    7.467000e+00
  X3vr    Q2  1 4.700000e-01    3.957000e+00
  X3vr   SQ2  1 4.300000e-01    4.992000e+00
  X3vr   TQ2  1 3.950000e-01    7.101000e+00
  X2vr    Q2  1 4.700000e-01    3.758000e+00
  X2vr   SQ2  1 4.300000e-01    4.665000e+00
  X2vr   TQ2  1 3.950000e-01    6.492000e+00
  X1vr    Q2  1 4.700000e-01    3.492000e+00
  X1vr   SQ2  1 4.300000e-01    4.072000e+00
  X1vr   TQ2  1 3.950000e-01    5.416000e+00
  C6er    Q2  1 4.700000e-01    4.257000e+00
  C6er   SQ2  1 4.300000e-01    5.452000e+00
  C6er   TQ2  1 3.950000e-01    7.491000e+00
  C5er    Q2  1 4.700000e-01    3.928000e+00
  C5er   SQ2  1 4.300000e-01    4.886000e+00
  C5er   TQ2  1 3.950000e-01    6.856000e+00
  C4er    Q2  1 4.700000e-01    3.734000e+00
  C4er   SQ2  1 4.300000e-01    4.577000e+00
  C4er   TQ2  1 3.950000e-01    6.288000e+00
  C3er    Q2  1 4.700000e-01    3.492000e+00
  C3er   SQ2  1 4.300000e-01    4.072000e+00
  C3er   TQ2  1 3.950000e-01    5.416000e+00
  C2er    Q2  1 4.850000e-01    2.593000e+00
  C2er   SQ2  1 4.430000e-01    2.772000e+00
  C2er   TQ2  1 4.040000e-01    3.839000e+00
  C1er    Q2  1 4.850000e-01    2.509000e+00
  C1er   SQ2  1 4.430000e-01    2.464000e+00
  C1er   TQ2  1 4.040000e-01    3.121000e+00
  X4er    Q2  1 4.700000e-01    4.107000e+00
  X4er   SQ2  1 4.300000e-01    5.308000e+00
  X4er   TQ2  1 3.950000e-01    7.467000e+00
  X3er    Q2  1 4.700000e-01    3.957000e+00
  X3er   SQ2  1 4.300000e-01    4.992000e+00
  X3er   TQ2  1 3.950000e-01    7.101000e+00
  X2er    Q2  1 4.700000e-01    3.758000e+00
  X2er   SQ2  1 4.300000e-01    4.665000e+00
  X2er   TQ2  1 3.950000e-01    6.492000e+00
  X1er    Q2  1 4.700000e-01    3.492000e+00
  X1er   SQ2  1 4.300000e-01    4.072000e+00
  X1er   TQ2  1 3.950000e-01    5.416000e+00
   SP6    Q2  1 4.300000e-01    4.446000e+00
   SP6   SQ2  1 4.100000e-01    5.969000e+00
   SP6   TQ2  1 3.650000e-01    8.157000e+00
   SP5    Q2  1 4.300000e-01    4.644000e+00
   SP5   SQ2  1 4.100000e-01    6.230000e+00
   SP5   TQ2  1 3.650000e-01    8.407000e+00
   SP4    Q2  1 4.300000e-01    4.640000e+00
   SP4   SQ2  1 4.100000e-01    6.211000e+00
   SP4   TQ2  1 3.650000e-01    8.367000e+00
   SP3    Q2  1 4.300000e-01    4.437000e+00
   SP3   SQ2  1 4.100000e-01    5.924000e+00
   SP3   TQ2  1 3.650000e-01    8.062000e+00
   SP2    Q2  1 4.300000e-01    4.434000e+00
   SP2   SQ2  1 4.100000e-01    5.909000e+00
   SP2   TQ2  1 3.650000e-01    8.032000e+00
   SP1    Q2  1 4.300000e-01    4.232000e+00
   SP1   SQ2  1 4.100000e-01    5.657000e+00
   SP1   TQ2  1 3.650000e-01    7.736000e+00
   SN6    Q2  1 4.300000e-01    4.229000e+00
   SN6   SQ2  1 4.100000e-01    5.642000e+00
   SN6   TQ2  1 3.650000e-01    7.704000e+00
   SN5    Q2  1 4.300000e-01    4.225000e+00
   SN5   SQ2  1 4.100000e-01    5.623000e+00
   SN5   TQ2  1 3.650000e-01    7.664000e+00
   SN4    Q2  1 4.300000e-01    4.220000e+00
   SN4   SQ2  1 4.100000e-01    5.598000e+00
   SN4   TQ2  1 3.650000e-01    7.612000e+00
   SN3    Q2  1 4.300000e-01    4.033000e+00
   SN3   SQ2  1 4.100000e-01    5.324000e+00
   SN3   TQ2  1 3.650000e-01    7.281000e+00
   SN2    Q2  1 4.300000e-01    4.024000e+00
   SN2   SQ2  1 4.100000e-01    5.276000e+00
   SN2   TQ2  1 3.650000e-01    7.181000e+00
   SN1    Q2  1 4.300000e-01    4.010000e+00
   SN1   SQ2  1 4.100000e-01    5.204000e+00
   SN1   TQ2  1 3.650000e-01    7.030000e+00
   SC6    Q2  1 4.300000e-01    3.556000e+00
   SC6   SQ2  1 4.100000e-01    4.613000e+00
   SC6   TQ2  1 3.650000e-01    6.317000e+00
   SC5    Q2  1 4.300000e-01    3.147000e+00
   SC5   SQ2  1 4.100000e-01    4.115000e+00
   SC5   TQ2  1 3.650000e-01    5.754000e+00
   SC4    Q2  1 4.300000e-01    2.878000e+00
   SC4   SQ2  1 4.100000e-01    3.809000e+00
   SC4   TQ2  1 3.660000e-01    5.288000e+00
   SC3    Q2  1 4.300000e-01    2.620000e+00
   SC3   SQ2  1 4.100000e-01    3.436000e+00
   SC3   TQ2  1 3.780000e-01    4.529000e+00
   SC2    Q2  1 4.730000e-01    1.518000e+00
   SC2   SQ2  1 4.530000e-01    2.354000e+00
   SC2   TQ2  1 4.840000e-01    2.987000e+00
   SC1    Q2  1 4.730000e-01    1.466000e+00
   SC1   SQ2  1 4.530000e-01    2.089000e+00
   SC1   TQ2  1 4.840000e-01    2.525000e+00
   SX4    Q2  1 4.300000e-01    3.330000e+00
   SX4   SQ2  1 4.100000e-01    4.432000e+00
   SX4   TQ2  1 3.650000e-01    6.262000e+00
   SX3    Q2  1 4.300000e-01    3.166000e+00
   SX3   SQ2  1 4.100000e-01    4.213000e+00
   SX3   TQ2  1 3.650000e-01    5.957000e+00
   SX2    Q2  1 4.300000e-01    2.894000e+00
   SX2   SQ2  1 4.100000e-01    3.891000e+00
   SX2   TQ2  1 3.660000e-01    5.458000e+00
   SX1    Q2  1 4.300000e-01    2.620000e+00
   SX1   SQ2  1 4.100000e-01    3.436000e+00
   SX1   TQ2  1 3.780000e-01    4.529000e+00
  SP6d    Q2  1 4.300000e-01    4.446000e+00
  SP6d   SQ2  1 4.100000e-01    5.969000e+00
  SP6d   TQ2  1 3.650000e-01    8.157000e+00
  SP5d    Q2  1 4.300000e-01    4.644000e+00
  SP5d   SQ2  1 4.100000e-01    6.230000e+00
  SP5d   TQ2  1 3.650000e-01    8.407000e+00
  SP4d    Q2  1 4.300000e-01    4.640000e+00
  SP4d   SQ2  1 4.100000e-01    6.211000e+00
  SP4d   TQ2  1 3.650000e-01    8.367000e+00
  SP3d    Q2  1 4.300000e-01    4.437000e+00
  SP3d   SQ2  1 4.100000e-01    5.924000e+00
  SP3d   TQ2  1 3.650000e-01    8.062000e+00
  SP2d    Q2  1 4.300000e-01    4.434000e+00
  SP2d   SQ2  1 4.100000e-01    5.909000e+00
  SP2d   TQ2  1 3.650000e-01    8.032000e+00
  SP1d    Q2  1 4.300000e-01    4.232000e+00
  SP1d   SQ2  1 4.100000e-01    5.657000e+00
  SP1d   TQ2  1 3.650000e-01    7.736000e+00
  SN6d    Q2  1 4.300000e-01    4.229000e+00
  SN6d   SQ2  1 4.100000e-01    5.642000e+00
  SN6d   TQ2  1 3.650000e-01    7.704000e+00
  SN5d    Q2  1 4.300000e-01    4.225000e+00
  SN5d   SQ2  1 4.100000e-01    5.623000e+00
  SN5d   TQ2  1 3.650000e-01    7.664000e+00
  SN4d    Q2  1 4.300000e-01    4.220000e+00
  SN4d   SQ2  1 4.100000e-01    5.598000e+00
  SN4d   TQ2  1 3.650000e-01    7.612000e+00
  SN3d    Q2  1 4.300000e-01    4.033000e+00
  SN3d   SQ2  1 4.100000e-01    5.324000e+00
  SN3d   TQ2  1 3.650000e-01    7.281000e+00
  SN2d    Q2  1 4.300000e-01    4.024000e+00
  SN2d   SQ2  1 4.100000e-01    5.276000e+00
  SN2d   TQ2  1 3.650000e-01    7.181000e+00
  SN1d    Q2  1 4.300000e-01    4.010000e+00
  SN1d   SQ2  1 4.100000e-01    5.204000e+00
  SN1d   TQ2  1 3.650000e-01    7.030000e+00
  SP6a    Q2  1 4.300000e-01    4.446000e+00
  SP6a   SQ2  1 4.100000e-01    5.969000e+00
  SP6a   TQ2  1 3.650000e-01    8.157000e+00
  SP5a    Q2  1 4.300000e-01    4.644000e+00
  SP5a   SQ2  1 4.100000e-01    6.230000e+00
  SP5a   TQ2  1 3.650000e-01    8.407000e+00
  SP4a    Q2  1 4.300000e-01    4.640000e+00
  SP4a   SQ2  1 4.100000e-01    6.211000e+00
  SP4a   TQ2  1 3.650000e-01    8.367000e+00
  SP3a    Q2  1 4.300000e-01    4.437000e+00
  SP3a   SQ2  1 4.100000e-01    5.924000e+00
  SP3a   TQ2  1 3.650000e-01    8.062000e+00
  SP2a    Q2  1 4.300000e-01    4.434000e+00
  SP2a   SQ2  1 4.100000e-01    5.909000e+00
  SP2a   TQ2  1 3.650000e-01    8.032000e+00
  SP1a    Q2  1 4.300000e-01    4.232000e+00
  SP1a   SQ2  1 4.100000e-01    5.657000e+00
  SP1a   TQ2  1 3.650000e-01    7.736000e+00
  SN6a    Q2  1 4.300000e-01    4.229000e+00
  SN6a   SQ2  1 4.100000e-01    5.642000e+00
  SN6a   TQ2  1 3.650000e-01    7.704000e+00
  SN5a    Q2  1 4.300000e-01    4.225000e+00
  SN5a   SQ2  1 4.100000e-01    5.623000e+00
  SN5a   TQ2  1 3.650000e-01    7.664000e+00
  SN4a    Q2  1 4.300000e-01    4.220000e+00
  SN4a   SQ2  1 4.100000e-01    5.598000e+00
  SN4a   TQ2  1 3.650000e-01    7.612000e+00
  SN3a    Q2  1 4.300000e-01    4.033000e+00
  SN3a   SQ2  1 4.100000e-01    5.324000e+00
  SN3a   TQ2  1 3.650000e-01    7.281000e+00
  SN2a    Q2  1 4.300000e-01    4.024000e+00
  SN2a   SQ2  1 4.100000e-01    5.276000e+00
  SN2a   TQ2  1 3.650000e-01    7.181000e+00
  SN1a    Q2  1 4.300000e-01    4.010000e+00
  SN1a   SQ2  1 4.100000e-01    5.204000e+00
  SN1a   TQ2  1 3.650000e-01    7.030000e+00
  SC6v    Q2  1 4.300000e-01    3.776000e+00
  SC6v   SQ2  1 4.100000e-01    4.853000e+00
  SC6v   TQ2  1 3.650000e-01    6.547000e+00
  SC5v    Q2  1 4.300000e-01    3.297000e+00
  SC5v   SQ2  1 4.100000e-01    4.265000e+00
  SC5v   TQ2  1 3.650000e-01    5.914000e+00
  SC4v    Q2  1 4.300000e-01    3.118000e+00
  SC4v   SQ2  1 4.100000e-01    3.969000e+00
  SC4v   TQ2  1 3.650000e-01    5.448000e+00
  SC3v    Q2  1 4.300000e-01    2.830000e+00
  SC3v   SQ2  1 4.100000e-01    3.566000e+00
  SC3v   TQ2  1 3.660000e-01    4.780000e+00
  SC2v    Q2  1 4.430000e-01    1.734000e+00
  SC2v   SQ2  1 4.210000e-01    2.546000e+00
  SC2v   TQ2  1 4.230000e-01    3.381000e+00
  SC1v    Q2  1 4.430000e-01    1.678000e+00
  SC1v   SQ2  1 4.210000e-01    2.260000e+00
  SC1v   TQ2  1 4.230000e-01    2.852000e+00
  SX4v    Q2  1 4.300000e-01    3.570000e+00
  SX4v   SQ2  1 4.100000e-01    4.682000e+00
  SX4v   TQ2  1 3.650000e-01    6.462000e+00
  SX3v    Q2  1 4.300000e-01    3.316000e+00
  SX3v   SQ2  1 4.100000e-01    4.363000e+00
  SX3v   TQ2  1 3.650000e-01    6.117000e+00
  SX2v    Q2  1 4.300000e-01    3.134000e+00
  SX2v   SQ2  1 4.100000e-01    4.051000e+00
  SX2v   TQ2  1 3.650000e-01    5.618000e+00
  SX1v    Q2  1 4.300000e-01    2.830000e+00
  SX1v   SQ2  1 4.100000e-01    3.566000e+00
  SX1v   TQ2  1 3.660000e-01    4.780000e+00
  SC6e    Q2  1 4.300000e-01    3.776000e+00
  SC6e   SQ2  1 4.100000e-01    4.853000e+00
  SC6e   TQ2  1 3.650000e-01    6.547000e+00
  SC5e    Q2  1 4.300000e-01    3.297000e+00
  SC5e   SQ2  1 4.100000e-01    4.265000e+00
  SC5e   TQ2  1 3.650000e-01    5.914000e+00
  SC4e    Q2  1 4.300000e-01    3.118000e+00
  SC4e   SQ2  1 4.100000e-01    3.969000e+00
  SC4e   TQ2  1 3.650000e-01    5.448000e+00
  SC3e    Q2  1 4.300000e-01    2.830000e+00
  SC3e   SQ2  1 4.100000e-01    3.566000e+00
  SC3e   TQ2  1 3.660000e-01    4.780000e+00
  SC2e    Q2  1 4.430000e-01    1.734000e+00
  SC2e   SQ2  1 4.210000e-01    2.546000e+00
  SC2e   TQ2  1 4.230000e-01    3.381000e+00
  SC1e    Q2  1 4.430000e-01    1.678000e+00
  SC1e   SQ2  1 4.210000e-01    2.260000e+00
  SC1e   TQ2  1 4.230000e-01    2.852000e+00
  SX4e    Q2  1 4.300000e-01    3.570000e+00
  SX4e   SQ2  1 4.100000e-01    4.682000e+00
  SX4e   TQ2  1 3.650000e-01    6.462000e+00
  SX3e    Q2  1 4.300000e-01    3.316000e+00
  SX3e   SQ2  1 4.100000e-01    4.363000e+00
  SX3e   TQ2  1 3.650000e-01    6.117000e+00
  SX2e    Q2  1 4.300000e-01    3.134000e+00
  SX2e   SQ2  1 4.100000e-01    4.051000e+00
  SX2e   TQ2  1 3.650000e-01    5.618000e+00
  SX1e    Q2  1 4.300000e-01    2.830000e+00
  SX1e   SQ2  1 4.100000e-01    3.566000e+00
  SX1e   TQ2  1 3.660000e-01    4.780000e+00
  SP6q    Q2  1 4.300000e-01    5.156000e+00
  SP6q   SQ2  1 4.100000e-01    6.709000e+00
  SP6q   TQ2  1 3.650000e-01    8.987000e+00
  SP5q    Q2  1 4.300000e-01    5.394000e+00
  SP5q   SQ2  1 4.100000e-01    6.960000e+00
  SP5q   TQ2  1 3.650000e-01    9.257000e+00
  SP4q    Q2  1 4.300000e-01    5.390000e+00
  SP4q   SQ2  1 4.100000e-01    6.941000e+00
  SP4q   TQ2  1 3.650000e-01    9.217000e+00
  SP3q    Q2  1 4.300000e-01    5.147000e+00
  SP3q   SQ2  1 4.100000e-01    6.664000e+00
  SP3q   TQ2  1 3.650000e-01    8.892000e+00
  SP2q    Q2  1 4.300000e-01    5.144000e+00
  SP2q   SQ2  1 4.100000e-01    6.649000e+00
  SP2q   TQ2  1 3.650000e-01    8.862000e+00
  SP1q    Q2  1 4.300000e-01    4.862000e+00
  SP1q   SQ2  1 4.100000e-01    6.387000e+00
  SP1q   TQ2  1 3.650000e-01    8.546000e+00
  SN6q    Q2  1 4.300000e-01    4.859000e+00
  SN6q   SQ2  1 4.100000e-01    6.372000e+00
  SN6q   TQ2  1 3.650000e-01    8.514000e+00
  SN5q    Q2  1 4.300000e-01    4.855000e+00
  SN5q   SQ2  1 4.100000e-01    6.353000e+00
  SN5q   TQ2  1 3.650000e-01    8.474000e+00
  SN4q    Q2  1 4.300000e-01    4.850000e+00
  SN4q   SQ2  1 4.100000e-01    6.328000e+00
  SN4q   TQ2  1 3.650000e-01    8.422000e+00
  SN3q    Q2  1 4.300000e-01    4.613000e+00
  SN3q   SQ2  1 4.100000e-01    6.074000e+00
  SN3q   TQ2  1 3.650000e-01    8.081000e+00
  SN2q    Q2  1 4.300000e-01    4.604000e+00
  SN2q   SQ2  1 4.100000e-01    6.026000e+00
  SN2q   TQ2  1 3.650000e-01    7.981000e+00
  SN1q    Q2  1 4.300000e-01    4.590000e+00
  SN1q   SQ2  1 4.100000e-01    5.954000e+00
  SN1q   TQ2  1 3.650000e-01    7.830000e+00
  SC6q    Q2  1 4.300000e-01    4.166000e+00
  SC6q   SQ2  1 4.100000e-01    5.323000e+00
  SC6q   TQ2  1 3.650000e-01    7.037000e+00
  SC5q    Q2  1 4.300000e-01    3.757000e+00
  SC5q   SQ2  1 4.100000e-01    4.755000e+00
  SC5q   TQ2  1 3.650000e-01    6.344000e+00
  SC4q    Q2  1 4.300000e-01    3.508000e+00
  SC4q   SQ2  1 4.100000e-01    4.369000e+00
  SC4q   TQ2  1 3.650000e-01    5.808000e+00
  SC3q    Q2  1 4.300000e-01    3.220000e+00
  SC3q   SQ2  1 4.100000e-01    3.876000e+00
  SC3q   TQ2  1 3.650000e-01    5.099000e+00
  SC2q    Q2  1 4.300000e-01    2.192000e+00
  SC2q   SQ2  1 4.140000e-01    2.878000e+00
  SC2q   TQ2  1 4.040000e-01    3.642000e+00
  SC1q    Q2  1 4.300000e-01    2.134000e+00
  SC1q   SQ2  1 4.140000e-01    2.587000e+00
  SC1q   TQ2  1 4.040000e-01    3.089000e+00
  SX4q    Q2  1 4.300000e-01    4.000000e+00
  SX4q   SQ2  1 4.100000e-01    5.152000e+00
  SX4q   TQ2  1 3.650000e-01    6.922000e+00
  SX3q    Q2  1 4.300000e-01    3.776000e+00
  SX3q   SQ2  1 4.100000e-01    4.853000e+00
  SX3q   TQ2  1 3.650000e-01    6.547000e+00
  SX2q    Q2  1 4.300000e-01    3.524000e+00
  SX2q   SQ2  1 4.100000e-01    4.451000e+00
  SX2q   TQ2  1 3.650000e-01    5.978000e+00
  SX1q    Q2  1 4.300000e-01    3.220000e+00
  SX1q   SQ2  1 4.100000e-01    3.876000e+00
  SX1q   TQ2  1 3.650000e-01    5.099000e+00
 SP6dq    Q2  1 4.300000e-01    5.156000e+00
 SP6dq   SQ2  1 4.100000e-01    6.709000e+00
 SP6dq   TQ2  1 3.650000e-01    8.987000e+00
 SP5dq    Q2  1 4.300000e-01    5.394000e+00
 SP5dq   SQ2  1 4.100000e-01    6.960000e+00
 SP5dq   TQ2  1 3.650000e-01    9.257000e+00
 SP4dq    Q2  1 4.300000e-01    5.390000e+00
 SP4dq   SQ2  1 4.100000e-01    6.941000e+00
 SP4dq   TQ2  1 3.650000e-01    9.217000e+00
 SP3dq    Q2  1 4.300000e-01    5.147000e+00
 SP3dq   SQ2  1 4.100000e-01    6.664000e+00
 SP3dq   TQ2  1 3.650000e-01    8.892000e+00
 SP2dq    Q2  1 4.300000e-01    5.144000e+00
 SP2dq   SQ2  1 4.100000e-01    6.649000e+00
 SP2dq   TQ2  1 3.650000e-01    8.862000e+00
 SP1dq    Q2  1 4.300000e-01    4.862000e+00
 SP1dq   SQ2  1 4.100000e-01    6.387000e+00
 SP1dq   TQ2  1 3.650000e-01    8.546000e+00
 SN6dq    Q2  1 4.300000e-01    4.859000e+00
 SN6dq   SQ2  1 4.100000e-01    6.372000e+00
 SN6dq   TQ2  1 3.650000e-01    8.514000e+00
 SN5dq    Q2  1 4.300000e-01    4.855000e+00
 SN5dq   SQ2  1 4.100000e-01    6.353000e+00
 SN5dq   TQ2  1 3.650000e-01    8.474000e+00
 SN4dq    Q2  1 4.300000e-01    4.850000e+00
 SN4dq   SQ2  1 4.100000e-01    6.328000e+00
 SN4dq   TQ2  1 3.650000e-01    8.422000e+00
 SN3dq    Q2  1 4.300000e-01    4.613000e+00
 SN3dq   SQ2  1 4.100000e-01    6.074000e+00
 SN3dq   TQ2  1 3.650000e-01    8.081000e+00
 SN2dq    Q2  1 4.300000e-01    4.604000e+00
 SN2dq   SQ2  1 4.100000e-01    6.026000e+00
 SN2dq   TQ2  1 3.650000e-01    7.981000e+00
 SN1dq    Q2  1 4.300000e-01    4.590000e+00
 SN1dq   SQ2  1 4.100000e-01    5.954000e+00
 SN1dq   TQ2  1 3.650000e-01    7.830000e+00
 SP6aq    Q2  1 4.300000e-01    5.156000e+00
 SP6aq   SQ2  1 4.100000e-01    6.709000e+00
 SP6aq   TQ2  1 3.650000e-01    8.987000e+00
 SP5aq    Q2  1 4.300000e-01    5.394000e+00
 SP5aq   SQ2  1 4.100000e-01    6.960000e+00
 SP5aq   TQ2  1 3.650000e-01    9.257000e+00
 SP4aq    Q2  1 4.300000e-01    5.390000e+00
 SP4aq   SQ2  1 4.100000e-01    6.941000e+00
 SP4aq   TQ2  1 3.650000e-01    9.217000e+00
 SP3aq    Q2  1 4.300000e-01    5.147000e+00
 SP3aq   SQ2  1 4.100000e-01    6.664000e+00
 SP3aq   TQ2  1 3.650000e-01    8.892000e+00
 SP2aq    Q2  1 4.300000e-01    5.144000e+00
 SP2aq   SQ2  1 4.100000e-01    6.649000e+00
 SP2aq   TQ2  1 3.650000e-01    8.862000e+00
 SP1aq    Q2  1 4.300000e-01    4.862000e+00
 SP1aq   SQ2  1 4.100000e-01    6.387000e+00
 SP1aq   TQ2  1 3.650000e-01    8.546000e+00
 SN6aq    Q2  1 4.300000e-01    4.859000e+00
 SN6aq   SQ2  1 4.100000e-01    6.372000e+00
 SN6aq   TQ2  1 3.650000e-01    8.514000e+00
 SN5aq    Q2  1 4.300000e-01    4.855000e+00
 SN5aq   SQ2  1 4.100000e-01    6.353000e+00
 SN5aq   TQ2  1 3.650000e-01    8.474000e+00
 SN4aq    Q2  1 4.300000e-01    4.850000e+00
 SN4aq   SQ2  1 4.100000e-01    6.328000e+00
 SN4aq   TQ2  1 3.650000e-01    8.422000e+00
 SN3aq    Q2  1 4.300000e-01    4.613000e+00
 SN3aq   SQ2  1 4.100000e-01    6.074000e+00
 SN3aq   TQ2  1 3.650000e-01    8.081000e+00
 SN2aq    Q2  1 4.300000e-01    4.604000e+00
 SN2aq   SQ2  1 4.100000e-01    6.026000e+00
 SN2aq   TQ2  1 3.650000e-01    7.981000e+00
 SN1aq    Q2  1 4.300000e-01    4.590000e+00
 SN1aq   SQ2  1 4.100000e-01    5.954000e+00
 SN1aq   TQ2  1 3.650000e-01    7.830000e+00
 SC6vq    Q2  1 4.300000e-01    4.366000e+00
 SC6vq   SQ2  1 4.100000e-01    5.563000e+00
 SC6vq   TQ2  1 3.650000e-01    7.307000e+00
 SC5vq    Q2  1 4.300000e-01    3.967000e+00
 SC5vq   SQ2  1 4.100000e-01    4.985000e+00
 SC5vq   TQ2  1 3.650000e-01    6.574000e+00
 SC4vq    Q2  1 4.300000e-01    3.728000e+00
 SC4vq   SQ2  1 4.100000e-01    4.609000e+00
 SC4vq   TQ2  1 3.650000e-01    6.038000e+00
 SC3vq    Q2  1 4.300000e-01    3.460000e+00
 SC3vq   SQ2  1 4.100000e-01    4.126000e+00
 SC3vq   TQ2  1 3.650000e-01    5.299000e+00
 SC2vq    Q2  1 4.300000e-01    2.422000e+00
 SC2vq   SQ2  1 4.100000e-01    3.080000e+00
 SC2vq   TQ2  1 3.940000e-01    3.866000e+00
 SC1vq    Q2  1 4.300000e-01    2.364000e+00
 SC1vq   SQ2  1 4.100000e-01    2.787000e+00
 SC1vq   TQ2  1 3.940000e-01    3.299000e+00
 SX4vq    Q2  1 4.300000e-01    4.180000e+00
 SX4vq   SQ2  1 4.100000e-01    5.392000e+00
 SX4vq   TQ2  1 3.650000e-01    7.182000e+00
 SX3vq    Q2  1 4.300000e-01    3.986000e+00
 SX3vq   SQ2  1 4.100000e-01    5.083000e+00
 SX3vq   TQ2  1 3.650000e-01    6.777000e+00
 SX2vq    Q2  1 4.300000e-01    3.744000e+00
 SX2vq   SQ2  1 4.100000e-01    4.691000e+00
 SX2vq   TQ2  1 3.650000e-01    6.208000e+00
 SX1vq    Q2  1 4.300000e-01    3.460000e+00
 SX1vq   SQ2  1 4.100000e-01    4.126000e+00
 SX1vq   TQ2  1 3.650000e-01    5.299000e+00
 SC6eq    Q2  1 4.300000e-01    4.366000e+00
 SC6eq   SQ2  1 4.100000e-01    5.563000e+00
 SC6eq   TQ2  1 3.650000e-01    7.307000e+00
 SC5eq    Q2  1 4.300000e-01    3.967000e+00
 SC5eq   SQ2  1 4.100000e-01    4.985000e+00
 SC5eq   TQ2  1 3.650000e-01    6.574000e+00
 SC4eq    Q2  1 4.300000e-01    3.728000e+00
 SC4eq   SQ2  1 4.100000e-01    4.609000e+00
 SC4eq   TQ2  1 3.650000e-01    6.038000e+00
 SC3eq    Q2  1 4.300000e-01    3.460000e+00
 SC3eq   SQ2  1 4.100000e-01    4.126000e+00
 SC3eq   TQ2  1 3.650000e-01    5.299000e+00
 SC2eq    Q2  1 4.300000e-01    2.422000e+00
 SC2eq   SQ2  1 4.100000e-01    3.080000e+00
 SC2eq   TQ2  1 3.940000e-01    3.866000e+00
 SC1eq    Q2  1 4.300000e-01    2.364000e+00
 SC1eq   SQ2  1 4.100000e-01    2.787000e+00
 SC1eq   TQ2  1 3.940000e-01    3.299000e+00
 SX4eq    Q2  1 4.300000e-01    4.180000e+00
 SX4eq   SQ2  1 4.100000e-01    5.392000e+00
 SX4eq   TQ2  1 3.650000e-01    7.182000e+00
 SX3eq    Q2  1 4.300000e-01    3.986000e+00
 SX3eq   SQ2  1 4.100000e-01    5.083000e+00
 SX3eq   TQ2  1 3.650000e-01    6.777000e+00
 SX2eq    Q2  1 4.300000e-01    3.744000e+00
 SX2eq   SQ2  1 4.100000e-01    4.691000e+00
 SX2eq   TQ2  1 3.650000e-01    6.208000e+00
 SX1eq    Q2  1 4.300000e-01    3.460000e+00
 SX1eq   SQ2  1 4.100000e-01    4.126000e+00
 SX1eq   TQ2  1 3.650000e-01    5.299000e+00
  SP6h    Q2  1 4.300000e-01    4.446000e+00
  SP6h   SQ2  1 4.100000e-01    5.969000e+00
  SP6h   TQ2  1 3.650000e-01    8.157000e+00
  SP5h    Q2  1 4.300000e-01    4.644000e+00
  SP5h   SQ2  1 4.100000e-01    6.230000e+00
  SP5h   TQ2  1 3.650000e-01    8.407000e+00
  SP4h    Q2  1 4.300000e-01    4.640000e+00
  SP4h   SQ2  1 4.100000e-01    6.211000e+00
  SP4h   TQ2  1 3.650000e-01    8.367000e+00
  SP3h    Q2  1 4.300000e-01    4.437000e+00
  SP3h   SQ2  1 4.100000e-01    5.924000e+00
  SP3h   TQ2  1 3.650000e-01    8.062000e+00
  SP2h    Q2  1 4.300000e-01    4.434000e+00
  SP2h   SQ2  1 4.100000e-01    5.909000e+00
  SP2h   TQ2  1 3.650000e-01    8.032000e+00
  SP1h    Q2  1 4.300000e-01    4.232000e+00
  SP1h   SQ2  1 4.100000e-01    5.657000e+00
  SP1h   TQ2  1 3.650000e-01    7.736000e+00
  SN6h    Q2  1 4.300000e-01    4.229000e+00
  SN6h   SQ2  1 4.100000e-01    5.642000e+00
  SN6h   TQ2  1 3.650000e-01    7.704000e+00
  SN5h    Q2  1 4.300000e-01    4.225000e+00
  SN5h   SQ2  1 4.100000e-01    5.623000e+00
  SN5h   TQ2  1 3.650000e-01    7.664000e+00
  SN4h    Q2  1 4.300000e-01    4.220000e+00
  SN4h   SQ2  1 4.100000e-01    5.598000e+00
  SN4h   TQ2  1 3.650000e-01    7.612000e+00
  SN3h    Q2  1 4.300000e-01    4.033000e+00
  SN3h   SQ2  1 4.100000e-01    5.324000e+00
  SN3h   TQ2  1 3.650000e-01    7.281000e+00
  SN2h    Q2  1 4.300000e-01    4.024000e+00
  SN2h   SQ2  1 4.100000e-01    5.276000e+00
  SN2h   TQ2  1 3.650000e-01    7.181000e+00
  SN1h    Q2  1 4.300000e-01    4.010000e+00
  SN1h   SQ2  1 4.100000e-01    5.204000e+00
  SN1h   TQ2  1 3.650000e-01    7.030000e+00
  SC6h    Q2  1 4.300000e-01    3.556000e+00
  SC6h   SQ2  1 4.100000e-01    4.613000e+00
  SC6h   TQ2  1 3.650000e-01    6.317000e+00
  SC5h    Q2  1 4.300000e-01    3.147000e+00
  SC5h   SQ2  1 4.100000e-01    4.115000e+00
  SC5h   TQ2  1 3.650000e-01    5.754000e+00
  SC4h    Q2  1 4.300000e-01    2.878000e+00
  SC4h   SQ2  1 4.100000e-01    3.809000e+00
  SC4h   TQ2  1 3.660000e-01    5.288000e+00
  SC3h    Q2  1 4.300000e-01    2.620000e+00
  SC3h   SQ2  1 4.100000e-01    3.436000e+00
  SC3h   TQ2  1 3.780000e-01    4.529000e+00
  SC2h    Q2  1 4.730000e-01    1.518000e+00
  SC2h   SQ2  1 4.530000e-01    2.354000e+00
  SC2h   TQ2  1 4.840000e-01    2.987000e+00
  SC1h    Q2  1 4.730000e-01    1.466000e+00
  SC1h   SQ2  1 4.530000e-01    2.089000e+00
  SC1h   TQ2  1 4.840000e-01    2.525000e+00
  SX4h    Q2  1 4.300000e-01    3.330000e+00
  SX4h   SQ2  1 4.100000e-01    4.432000e+00
  SX4h   TQ2  1 3.650000e-01    6.262000e+00
  SX3h    Q2  1 4.300000e-01    3.166000e+00
  SX3h   SQ2  1 4.100000e-01    4.213000e+00
  SX3h   TQ2  1 3.650000e-01    5.957000e+00
  SX2h    Q2  1 4.300000e-01    2.894000e+00
  SX2h   SQ2  1 4.100000e-01    3.891000e+00
  SX2h   TQ2  1 3.660000e-01    5.458000e+00
  SX1h    Q2  1 4.300000e-01    2.620000e+00
  SX1h   SQ2  1 4.100000e-01    3.436000e+00
  SX1h   TQ2  1 3.780000e-01    4.529000e+00
 SP6dh    Q2  1 4.300000e-01    4.446000e+00
 SP6dh   SQ2  1 4.100000e-01    5.969000e+00
 SP6dh   TQ2  1 3.650000e-01    8.157000e+00
 SP5dh    Q2  1 4.300000e-01    4.644000e+00
 SP5dh   SQ2  1 4.100000e-01    6.230000e+00
 SP5dh   TQ2  1 3.650000e-01    8.407000e+00
 SP4dh    Q2  1 4.300000e-01    4.640000e+00
 SP4dh   SQ2  1 4.100000e-01    6.211000e+00
 SP4dh   TQ2  1 3.650000e-01    8.367000e+00
 SP3dh    Q2  1 4.300000e-01    4.437000e+00
 SP3dh   SQ2  1 4.100000e-01    5.924000e+00
 SP3dh   TQ2  1 3.650000e-01    8.062000e+00
 SP2dh    Q2  1 4.300000e-01    4.434000e+00
 SP2dh   SQ2  1 4.100000e-01    5.909000e+00
 SP2dh   TQ2  1 3.650000e-01    8.032000e+00
 SP1dh    Q2  1 4.300000e-01    4.232000e+00
 SP1dh   SQ2  1 4.100000e-01    5.657000e+00
 SP1dh   TQ2  1 3.650000e-01    7.736000e+00
 SN6dh    Q2  1 4.300000e-01    4.229000e+00
 SN6dh   SQ2  1 4.100000e-01    5.642000e+00
 SN6dh   TQ2  1 3.650000e-01    7.704000e+00
 SN5dh    Q2  1 4.300000e-01    4.225000e+00
 SN5dh   SQ2  1 4.100000e-01    5.623000e+00
 SN5dh   TQ2  1 3.650000e-01    7.664000e+00
 SN4dh    Q2  1 4.300000e-01    4.220000e+00
 SN4dh   SQ2  1 4.100000e-01    5.598000e+00
 SN4dh   TQ2  1 3.650000e-01    7.612000e+00
 SN3dh    Q2  1 4.300000e-01    4.033000e+00
 SN3dh   SQ2  1 4.100000e-01    5.324000e+00
 SN3dh   TQ2  1 3.650000e-01    7.281000e+00
 SN2dh    Q2  1 4.300000e-01    4.024000e+00
 SN2dh   SQ2  1 4.100000e-01    5.276000e+00
 SN2dh   TQ2  1 3.650000e-01    7.181000e+00
 SN1dh    Q2  1 4.300000e-01    4.010000e+00
 SN1dh   SQ2  1 4.100000e-01    5.204000e+00
 SN1dh   TQ2  1 3.650000e-01    7.030000e+00
 SP6ah    Q2  1 4.300000e-01    4.446000e+00
 SP6ah   SQ2  1 4.100000e-01    5.969000e+00
 SP6ah   TQ2  1 3.650000e-01    8.157000e+00
 SP5ah    Q2  1 4.300000e-01    4.644000e+00
 SP5ah   SQ2  1 4.100000e-01    6.230000e+00
 SP5ah   TQ2  1 3.650000e-01    8.407000e+00
 SP4ah    Q2  1 4.300000e-01    4.640000e+00
 SP4ah   SQ2  1 4.100000e-01    6.211000e+00
 SP4ah   TQ2  1 3.650000e-01    8.367000e+00
 SP3ah    Q2  1 4.300000e-01    4.437000e+00
 SP3ah   SQ2  1 4.100000e-01    5.924000e+00
 SP3ah   TQ2  1 3.650000e-01    8.062000e+00
 SP2ah    Q2  1 4.300000e-01    4.434000e+00
 SP2ah   SQ2  1 4.100000e-01    5.909000e+00
 SP2ah   TQ2  1 3.650000e-01    8.032000e+00
 SP1ah    Q2  1 4.300000e-01    4.232000e+00
 SP1ah   SQ2  1 4.100000e-01    5.657000e+00
 SP1ah   TQ2  1 3.650000e-01    7.736000e+00
 SN6ah    Q2  1 4.300000e-01    4.229000e+00
 SN6ah   SQ2  1 4.100000e-01    5.642000e+00
 SN6ah   TQ2  1 3.650000e-01    7.704000e+00
 SN5ah    Q2  1 4.300000e-01    4.225000e+00
 SN5ah   SQ2  1 4.100000e-01    5.623000e+00
 SN5ah   TQ2  1 3.650000e-01    7.664000e+00
 SN4ah    Q2  1 4.300000e-01    4.220000e+00
 SN4ah   SQ2  1 4.100000e-01    5.598000e+00
 SN4ah   TQ2  1 3.650000e-01    7.612000e+00
 SN3ah    Q2  1 4.300000e-01    4.033000e+00
 SN3ah   SQ2  1 4.100000e-01    5.324000e+00
 SN3ah   TQ2  1 3.650000e-01    7.281000e+00
 SN2ah    Q2  1 4.300000e-01    4.024000e+00
 SN2ah   SQ2  1 4.100000e-01    5.276000e+00
 SN2ah   TQ2  1 3.650000e-01    7.181000e+00
 SN1ah    Q2  1 4.300000e-01    4.010000e+00
 SN1ah   SQ2  1 4.100000e-01    5.204000e+00
 SN1ah   TQ2  1 3.650000e-01    7.030000e+00
 SC6vh    Q2  1 4.300000e-01    3.776000e+00
 SC6vh   SQ2  1 4.100000e-01    4.853000e+00
 SC6vh   TQ2  1 3.650000e-01    6.547000e+00
 SC5vh    Q2  1 4.300000e-01    3.297000e+00
 SC5vh   SQ2  1 4.100000e-01    4.265000e+00
 SC5vh   TQ2  1 3.650000e-01    5.914000e+00
 SC4vh    Q2  1 4.300000e-01    3.118000e+00
 SC4vh   SQ2  1 4.100000e-01    3.969000e+00
 SC4vh   TQ2  1 3.650000e-01    5.448000e+00
 SC3vh    Q2  1 4.300000e-01    2.830000e+00
 SC3vh   SQ2  1 4.100000e-01    3.566000e+00
 SC3vh   TQ2  1 3.660000e-01    4.780000e+00
 SC2vh    Q2  1 4.430000e-01    1.734000e+00
 SC2vh   SQ2  1 4.210000e-01    2.546000e+00
 SC2vh   TQ2  1 4.230000e-01    3.381000e+00
 SC1vh    Q2  1 4.430000e-01    1.678000e+00
 SC1vh   SQ2  1 4.210000e-01    2.260000e+00
 SC1vh   TQ2  1 4.230000e-01    2.852000e+00
 SX4vh    Q2  1 4.300000e-01    3.570000e+00
 SX4vh   SQ2  1 4.100000e-01    4.682000e+00
 SX4vh   TQ2  1 3.650000e-01    6.462000e+00
 SX3vh    Q2  1 4.300000e-01    3.316000e+00
 SX3vh   SQ2  1 4.100000e-01    4.363000e+00
 SX3vh   TQ2  1 3.650000e-01    6.117000e+00
 SX2vh    Q2  1 4.300000e-01    3.134000e+00
 SX2vh   SQ2  1 4.100000e-01    4.051000e+00
 SX2vh   TQ2  1 3.650000e-01    5.618000e+00
 SX1vh    Q2  1 4.300000e-01    2.830000e+00
 SX1vh   SQ2  1 4.100000e-01    3.566000e+00
 SX1vh   TQ2  1 3.660000e-01    4.780000e+00
 SC6eh    Q2  1 4.300000e-01    3.776000e+00
 SC6eh   SQ2  1 4.100000e-01    4.853000e+00
 SC6eh   TQ2  1 3.650000e-01    6.547000e+00
 SC5eh    Q2  1 4.300000e-01    3.297000e+00
 SC5eh   SQ2  1 4.100000e-01    4.265000e+00
 SC5eh   TQ2  1 3.650000e-01    5.914000e+00
 SC4eh    Q2  1 4.300000e-01    3.118000e+00
 SC4eh   SQ2  1 4.100000e-01    3.969000e+00
 SC4eh   TQ2  1 3.650000e-01    5.448000e+00
 SC3eh    Q2  1 4.300000e-01    2.830000e+00
 SC3eh   SQ2  1 4.100000e-01    3.566000e+00
 SC3eh   TQ2  1 3.660000e-01    4.780000e+00
 SC2eh    Q2  1 4.430000e-01    1.734000e+00
 SC2eh   SQ2  1 4.210000e-01    2.546000e+00
 SC2eh   TQ2  1 4.230000e-01    3.381000e+00
 SC1eh    Q2  1 4.430000e-01    1.678000e+00
 SC1eh   SQ2  1 4.210000e-01    2.260000e+00
 SC1eh   TQ2  1 4.230000e-01    2.852000e+00
 SX4eh    Q2  1 4.300000e-01    3.570000e+00
 SX4eh   SQ2  1 4.100000e-01    4.682000e+00
 SX4eh   TQ2  1 3.650000e-01    6.462000e+00
 SX3eh    Q2  1 4.300000e-01    3.316000e+00
 SX3eh   SQ2  1 4.100000e-01    4.363000e+00
 SX3eh   TQ2  1 3.650000e-01    6.117000e+00
 SX2eh    Q2  1 4.300000e-01    3.134000e+00
 SX2eh   SQ2  1 4.100000e-01    4.051000e+00
 SX2eh   TQ2  1 3.650000e-01    5.618000e+00
 SX1eh    Q2  1 4.300000e-01    2.830000e+00
 SX1eh   SQ2  1 4.100000e-01    3.566000e+00
 SX1eh   TQ2  1 3.660000e-01    4.780000e+00
  SP6r    Q2  1 4.300000e-01    4.446000e+00
  SP6r   SQ2  1 4.100000e-01    5.969000e+00
  SP6r   TQ2  1 3.650000e-01    8.157000e+00
  SP5r    Q2  1 4.300000e-01    4.644000e+00
  SP5r   SQ2  1 4.100000e-01    6.230000e+00
  SP5r   TQ2  1 3.650000e-01    8.407000e+00
  SP4r    Q2  1 4.300000e-01    4.640000e+00
  SP4r   SQ2  1 4.100000e-01    6.211000e+00
  SP4r   TQ2  1 3.650000e-01    8.367000e+00
  SP3r    Q2  1 4.300000e-01    4.437000e+00
  SP3r   SQ2  1 4.100000e-01    5.924000e+00
  SP3r   TQ2  1 3.650000e-01    8.062000e+00
  SP2r    Q2  1 4.300000e-01    4.434000e+00
  SP2r   SQ2  1 4.100000e-01    5.909000e+00
  SP2r   TQ2  1 3.650000e-01    8.032000e+00
  SP1r    Q2  1 4.300000e-01    4.232000e+00
  SP1r   SQ2  1 4.100000e-01    5.657000e+00
  SP1r   TQ2  1 3.650000e-01    7.736000e+00
  SN6r    Q2  1 4.300000e-01    4.229000e+00
  SN6r   SQ2  1 4.100000e-01    5.642000e+00
  SN6r   TQ2  1 3.650000e-01    7.704000e+00
  SN5r    Q2  1 4.300000e-01    4.225000e+00
  SN5r   SQ2  1 4.100000e-01    5.623000e+00
  SN5r   TQ2  1 3.650000e-01    7.664000e+00
  SN4r    Q2  1 4.300000e-01    4.220000e+00
  SN4r   SQ2  1 4.100000e-01    5.598000e+00
  SN4r   TQ2  1 3.650000e-01    7.612000e+00
  SN3r    Q2  1 4.300000e-01    4.033000e+00
  SN3r   SQ2  1 4.100000e-01    5.324000e+00
  SN3r   TQ2  1 3.650000e-01    7.281000e+00
  SN2r    Q2  1 4.300000e-01    4.024000e+00
  SN2r   SQ2  1 4.100000e-01    5.276000e+00
  SN2r   TQ2  1 3.650000e-01    7.181000e+00
  SN1r    Q2  1 4.300000e-01    4.010000e+00
  SN1r   SQ2  1 4.100000e-01    5.204000e+00
  SN1r   TQ2  1 3.650000e-01    7.030000e+00
  SC6r    Q2  1 4.300000e-01    3.556000e+00
  SC6r   SQ2  1 4.100000e-01    4.613000e+00
  SC6r   TQ2  1 3.650000e-01    6.317000e+00
  SC5r    Q2  1 4.300000e-01    3.147000e+00
  SC5r   SQ2  1 4.100000e-01    4.115000e+00
  SC5r   TQ2  1 3.650000e-01    5.754000e+00
  SC4r    Q2  1 4.300000e-01    2.878000e+00
  SC4r   SQ2  1 4.100000e-01    3.809000e+00
  SC4r   TQ2  1 3.660000e-01    5.288000e+00
  SC3r    Q2  1 4.300000e-01    2.620000e+00
  SC3r   SQ2  1 4.100000e-01    3.436000e+00
  SC3r   TQ2  1 3.780000e-01    4.529000e+00
  SC2r    Q2  1 4.730000e-01    1.518000e+00
  SC2r   SQ2  1 4.530000e-01    2.354000e+00
  SC2r   TQ2  1 4.840000e-01    2.987000e+00
  SC1r    Q2  1 4.730000e-01    1.466000e+00
  SC1r   SQ2  1 4.530000e-01    2.089000e+00
  SC1r   TQ2  1 4.840000e-01    2.525000e+00
  SX4r    Q2  1 4.300000e-01    3.330000e+00
  SX4r   SQ2  1 4.100000e-01    4.432000e+00
  SX4r   TQ2  1 3.650000e-01    6.262000e+00
  SX3r    Q2  1 4.300000e-01    3.166000e+00
  SX3r   SQ2  1 4.100000e-01    4.213000e+00
  SX3r   TQ2  1 3.650000e-01    5.957000e+00
  SX2r    Q2  1 4.300000e-01    2.894000e+00
  SX2r   SQ2  1 4.100000e-01    3.891000e+00
  SX2r   TQ2  1 3.660000e-01    5.458000e+00
  SX1r    Q2  1 4.300000e-01    2.620000e+00
  SX1r   SQ2  1 4.100000e-01    3.436000e+00
  SX1r   TQ2  1 3.780000e-01    4.529000e+00
 SP6dr    Q2  1 4.300000e-01    4.446000e+00
 SP6dr   SQ2  1 4.100000e-01    5.969000e+00
 SP6dr   TQ2  1 3.650000e-01    8.157000e+00
 SP5dr    Q2  1 4.300000e-01    4.644000e+00
 SP5dr   SQ2  1 4.100000e-01    6.230000e+00
 SP5dr   TQ2  1 3.650000e-01    8.407000e+00
 SP4dr    Q2  1 4.300000e-01    4.640000e+00
 SP4dr   SQ2  1 4.100000e-01    6.211000e+00
 SP4dr   TQ2  1 3.650000e-01    8.367000e+00
 SP3dr    Q2  1 4.300000e-01    4.437000e+00
 SP3dr   SQ2  1 4.100000e-01    5.924000e+00
 SP3dr   TQ2  1 3.650000e-01    8.062000e+00
 SP2dr    Q2  1 4.300000e-01    4.434000e+00
 SP2dr   SQ2  1 4.100000e-01    5.909000e+00
 SP2dr   TQ2  1 3.650000e-01    8.032000e+00
 SP1dr    Q2  1 4.300000e-01    4.232000e+00
 SP1dr   SQ2  1 4.100000e-01    5.657000e+00
 SP1dr   TQ2  1 3.650000e-01    7.736000e+00
 SN6dr    Q2  1 4.300000e-01    4.229000e+00
 SN6dr   SQ2  1 4.100000e-01    5.642000e+00
 SN6dr   TQ2  1 3.650000e-01    7.704000e+00
 SN5dr    Q2  1 4.300000e-01    4.225000e+00
 SN5dr   SQ2  1 4.100000e-01    5.623000e+00
 SN5dr   TQ2  1 3.650000e-01    7.664000e+00
 SN4dr    Q2  1 4.300000e-01    4.220000e+00
 SN4dr   SQ2  1 4.100000e-01    5.598000e+00
 SN4dr   TQ2  1 3.650000e-01    7.612000e+00
 SN3dr    Q2  1 4.300000e-01    4.033000e+00
 SN3dr   SQ2  1 4.100000e-01    5.324000e+00
 SN3dr   TQ2  1 3.650000e-01    7.281000e+00
 SN2dr    Q2  1 4.300000e-01    4.024000e+00
 SN2dr   SQ2  1 4.100000e-01    5.276000e+00
 SN2dr   TQ2  1 3.650000e-01    7.181000e+00
 SN1dr    Q2  1 4.300000e-01    4.010000e+00
 SN1dr   SQ2  1 4.100000e-01    5.204000e+00
 SN1dr   TQ2  1 3.650000e-01    7.030000e+00
 SP6ar    Q2  1 4.300000e-01    4.446000e+00
 SP6ar   SQ2  1 4.100000e-01    5.969000e+00
 SP6ar   TQ2  1 3.650000e-01    8.157000e+00
 SP5ar    Q2  1 4.300000e-01    4.644000e+00
 SP5ar   SQ2  1 4.100000e-01    6.230000e+00
 SP5ar   TQ2  1 3.650000e-01    8.407000e+00
 SP4ar    Q2  1 4.300000e-01    4.640000e+00
 SP4ar   SQ2  1 4.100000e-01    6.211000e+00
 SP4ar   TQ2  1 3.650000e-01    8.367000e+00
 SP3ar    Q2  1 4.300000e-01    4.437000e+00
 SP3ar   SQ2  1 4.100000e-01    5.924000e+00
 SP3ar   TQ2  1 3.650000e-01    8.062000e+00
 SP2ar    Q2  1 4.300000e-01    4.434000e+00
 SP2ar   SQ2  1 4.100000e-01    5.909000e+00
 SP2ar   TQ2  1 3.650000e-01    8.032000e+00
 SP1ar    Q2  1 4.300000e-01    4.232000e+00
 SP1ar   SQ2  1 4.100000e-01    5.657000e+00
 SP1ar   TQ2  1 3.650000e-01    7.736000e+00
 SN6ar    Q2  1 4.300000e-01    4.229000e+00
 SN6ar   SQ2  1 4.100000e-01    5.642000e+00
 SN6ar   TQ2  1 3.650000e-01    7.704000e+00
 SN5ar    Q2  1 4.300000e-01    4.225000e+00
 SN5ar   SQ2  1 4.100000e-01    5.623000e+00
 SN5ar   TQ2  1 3.650000e-01    7.664000e+00
 SN4ar    Q2  1 4.300000e-01    4.220000e+00
 SN4ar   SQ2  1 4.100000e-01    5.598000e+00
 SN4ar   TQ2  1 3.650000e-01    7.612000e+00
 SN3ar    Q2  1 4.300000e-01    4.033000e+00
 SN3ar   SQ2  1 4.100000e-01    5.324000e+00
 SN3ar   TQ2  1 3.650000e-01    7.281000e+00
 SN2ar    Q2  1 4.300000e-01    4.024000e+00
 SN2ar   SQ2  1 4.100000e-01    5.276000e+00
 SN2ar   TQ2  1 3.650000e-01    7.181000e+00
 SN1ar    Q2  1 4.300000e-01    4.010000e+00
 SN1ar   SQ2  1 4.100000e-01    5.204000e+00
 SN1ar   TQ2  1 3.650000e-01    7.030000e+00
 SC6vr    Q2  1 4.300000e-01    3.776000e+00
 SC6vr   SQ2  1 4.100000e-01    4.853000e+00
 SC6vr   TQ2  1 3.650000e-01    6.547000e+00
 SC5vr    Q2  1 4.300000e-01    3.297000e+00
 SC5vr   SQ2  1 4.100000e-01    4.265000e+00
 SC5vr   TQ2  1 3.650000e-01    5.914000e+00
 SC4vr    Q2  1 4.300000e-01    3.118000e+00
 SC4vr   SQ2  1 4.100000e-01    3.969000e+00
 SC4vr   TQ2  1 3.650000e-01    5.448000e+00
 SC3vr    Q2  1 4.300000e-01    2.830000e+00
 SC3vr   SQ2  1 4.100000e-01    3.566000e+00
 SC3vr   TQ2  1 3.660000e-01    4.780000e+00
 SC2vr    Q2  1 4.430000e-01    1.734000e+00
 SC2vr   SQ2  1 4.210000e-01    2.546000e+00
 SC2vr   TQ2  1 4.230000e-01    3.381000e+00
 SC1vr    Q2  1 4.430000e-01    1.678000e+00
 SC1vr   SQ2  1 4.210000e-01    2.260000e+00
 SC1vr   TQ2  1 4.230000e-01    2.852000e+00
 SX4vr    Q2  1 4.300000e-01    3.570000e+00
 SX4vr   SQ2  1 4.100000e-01    4.682000e+00
 SX4vr   TQ2  1 3.650000e-01    6.462000e+00
 SX3vr    Q2  1 4.300000e-01    3.316000e+00
 SX3vr   SQ2  1 4.100000e-01    4.363000e+00
 SX3vr   TQ2  1 3.650000e-01    6.117000e+00
 SX2vr    Q2  1 4.300000e-01    3.134000e+00
 SX2vr   SQ2  1 4.100000e-01    4.051000e+00
 SX2vr   TQ2  1 3.650000e-01    5.618000e+00
 SX1vr    Q2  1 4.300000e-01    2.830000e+00
 SX1vr   SQ2  1 4.100000e-01    3.566000e+00
 SX1vr   TQ2  1 3.660000e-01    4.780000e+00
 SC6er    Q2  1 4.300000e-01    3.776000e+00
 SC6er   SQ2  1 4.100000e-01    4.853000e+00
 SC6er   TQ2  1 3.650000e-01    6.547000e+00
 SC5er    Q2  1 4.300000e-01    3.297000e+00
 SC5er   SQ2  1 4.100000e-01    4.265000e+00
 SC5er   TQ2  1 3.650000e-01    5.914000e+00
 SC4er    Q2  1 4.300000e-01    3.118000e+00
 SC4er   SQ2  1 4.100000e-01    3.969000e+00
 SC4er   TQ2  1 3.650000e-01    5.448000e+00
 SC3er    Q2  1 4.300000e-01    2.830000e+00
 SC3er   SQ2  1 4.100000e-01    3.566000e+00
 SC3er   TQ2  1 3.660000e-01    4.780000e+00
 SC2er    Q2  1 4.430000e-01    1.734000e+00
 SC2er   SQ2  1 4.210000e-01    2.546000e+00
 SC2er   TQ2  1 4.230000e-01    3.381000e+00
 SC1er    Q2  1 4.430000e-01    1.678000e+00
 SC1er   SQ2  1 4.210000e-01    2.260000e+00
 SC1er   TQ2  1 4.230000e-01    2.852000e+00
 SX4er    Q2  1 4.300000e-01    3.570000e+00
 SX4er   SQ2  1 4.100000e-01    4.682000e+00
 SX4er   TQ2  1 3.650000e-01    6.462000e+00
 SX3er    Q2  1 4.300000e-01    3.316000e+00
 SX3er   SQ2  1 4.100000e-01    4.363000e+00
 SX3er   TQ2  1 3.650000e-01    6.117000e+00
 SX2er    Q2  1 4.300000e-01    3.134000e+00
 SX2er   SQ2  1 4.100000e-01    4.051000e+00
 SX2er   TQ2  1 3.650000e-01    5.618000e+00
 SX1er    Q2  1 4.300000e-01    2.830000e+00
 SX1er   SQ2  1 4.100000e-01    3.566000e+00
 SX1er   TQ2  1 3.660000e-01    4.780000e+00
   TP6    Q2  1 3.950000e-01    3.830000e+00
   TP6   SQ2  1 3.650000e-01    5.295000e+00
   TP6   TQ2  1 3.400000e-01    7.568000e+00
   TP5    Q2  1 3.950000e-01    4.070000e+00
   TP5   SQ2  1 3.650000e-01    5.567000e+00
   TP5   TQ2  1 3.400000e-01    7.822000e+00
   TP4    Q2  1 3.950000e-01    4.069000e+00
   TP4   SQ2  1 3.650000e-01    5.561000e+00
   TP4   TQ2  1 3.400000e-01    7.810000e+00
   TP3    Q2  1 3.950000e-01    3.828000e+00
   TP3   SQ2  1 3.650000e-01    5.282000e+00
   TP3   TQ2  1 3.400000e-01    7.541000e+00
   TP2    Q2  1 3.950000e-01    3.826000e+00
   TP2   SQ2  1 3.650000e-01    5.274000e+00
   TP2   TQ2  1 3.400000e-01    7.522000e+00
   TP1    Q2  1 3.950000e-01    3.585000e+00
   TP1   SQ2  1 3.650000e-01    4.996000e+00
   TP1   TQ2  1 3.400000e-01    7.264000e+00
   TN6    Q2  1 3.950000e-01    3.583000e+00
   TN6   SQ2  1 3.650000e-01    4.985000e+00
   TN6   TQ2  1 3.400000e-01    7.242000e+00
   TN5    Q2  1 3.950000e-01    3.580000e+00
   TN5   SQ2  1 3.650000e-01    4.972000e+00
   TN5   TQ2  1 3.400000e-01    7.212000e+00
   TN4    Q2  1 3.950000e-01    3.577000e+00
   TN4   SQ2  1 3.650000e-01    4.954000e+00
   TN4   TQ2  1 3.400000e-01    7.172000e+00
   TN3    Q2  1 3.950000e-01    3.322000e+00
   TN3   SQ2  1 3.650000e-01    4.669000e+00
   TN3   TQ2  1 3.400000e-01    6.897000e+00
   TN2    Q2  1 3.950000e-01    3.316000e+00
   TN2   SQ2  1 3.650000e-01    4.632000e+00
   TN2   TQ2  1 3.400000e-01    6.817000e+00
   TN1    Q2  1 3.950000e-01    3.306000e+00
   TN1   SQ2  1 3.650000e-01    4.576000e+00
   TN1   TQ2  1 3.400000e-01    6.694000e+00
   TC6    Q2  1 3.950000e-01    2.848000e+00
   TC6   SQ2  1 3.650000e-01    4.021000e+00
   TC6   TQ2  1 3.400000e-01    5.974000e+00
   TC5    Q2  1 3.950000e-01    2.444000e+00
   TC5   SQ2  1 3.650000e-01    3.584000e+00
   TC5   TQ2  1 3.400000e-01    5.264000e+00
   TC4    Q2  1 3.950000e-01    2.163000e+00
   TC4   SQ2  1 3.660000e-01    3.313000e+00
   TC4   TQ2  1 3.520000e-01    4.700000e+00
   TC3    Q2  1 3.950000e-01    1.947000e+00
   TC3   SQ2  1 3.780000e-01    2.920000e+00
   TC3   TQ2  1 3.660000e-01    4.047000e+00
   TC2    Q2  1 4.650000e-01    9.150000e-01
   TC2   SQ2  1 4.840000e-01    1.920000e+00
   TC2   TQ2  1 5.050000e-01    2.704000e+00
   TC1    Q2  1 4.650000e-01    8.780000e-01
   TC1   SQ2  1 4.840000e-01    1.743000e+00
   TC1   TQ2  1 5.050000e-01    2.356000e+00
   TX4    Q2  1 3.950000e-01    2.668000e+00
   TX4   SQ2  1 3.650000e-01    3.876000e+00
   TX4   TQ2  1 3.400000e-01    5.834000e+00
   TX3    Q2  1 3.950000e-01    2.458000e+00
   TX3   SQ2  1 3.650000e-01    3.661000e+00
   TX3   TQ2  1 3.400000e-01    5.434000e+00
   TX2    Q2  1 3.950000e-01    2.175000e+00
   TX2   SQ2  1 3.660000e-01    3.377000e+00
   TX2   TQ2  1 3.520000e-01    4.837000e+00
   TX1    Q2  1 3.950000e-01    1.947000e+00
   TX1   SQ2  1 3.780000e-01    2.920000e+00
   TX1   TQ2  1 3.660000e-01    4.047000e+00
  TP6d    Q2  1 3.950000e-01    3.830000e+00
  TP6d   SQ2  1 3.650000e-01    5.295000e+00
  TP6d   TQ2  1 3.400000e-01    7.568000e+00
  TP5d    Q2  1 3.950000e-01    4.070000e+00
  TP5d   SQ2  1 3.650000e-01    5.567000e+00
  TP5d   TQ2  1 3.400000e-01    7.822000e+00
  TP4d    Q2  1 3.950000e-01    4.069000e+00
  TP4d   SQ2  1 3.650000e-01    5.561000e+00
  TP4d   TQ2  1 3.400000e-01    7.810000e+00
  TP3d    Q2  1 3.950000e-01    3.828000e+00
  TP3d   SQ2  1 3.650000e-01    5.282000e+00
  TP3d   TQ2  1 3.400000e-01    7.541000e+00
  TP2d    Q2  1 3.950000e-01    3.826000e+00
  TP2d   SQ2  1 3.650000e-01    5.274000e+00
  TP2d   TQ2  1 3.400000e-01    7.522000e+00
  TP1d    Q2  1 3.950000e-01    3.585000e+00
  TP1d   SQ2  1 3.650000e-01    4.996000e+00
  TP1d   TQ2  1 3.400000e-01    7.264000e+00
  TN6d    Q2  1 3.950000e-01    3.583000e+00
  TN6d   SQ2  1 3.650000e-01    4.985000e+00
  TN6d   TQ2  1 3.400000e-01    7.242000e+00
  TN5d    Q2  1 3.950000e-01    3.580000e+00
  TN5d   SQ2  1 3.650000e-01    4.972000e+00
  TN5d   TQ2  1 3.400000e-01    7.212000e+00
  TN4d    Q2  1 3.950000e-01    3.577000e+00
  TN4d   SQ2  1 3.650000e-01    4.954000e+00
  TN4d   TQ2  1 3.400000e-01    7.172000e+00
  TN3d    Q2  1 3.950000e-01    3.322000e+00
  TN3d   SQ2  1 3.650000e-01    4.669000e+00
  TN3d   TQ2  1 3.400000e-01    6.897000e+00
  TN2d    Q2  1 3.950000e-01    3.316000e+00
  TN2d   SQ2  1 3.650000e-01    4.632000e+00
  TN2d   TQ2  1 3.400000e-01    6.817000e+00
  TN1d    Q2  1 3.950000e-01    3.306000e+00
  TN1d   SQ2  1 3.650000e-01    4.576000e+00
  TN1d   TQ2  1 3.400000e-01    6.694000e+00
  TP6a    Q2  1 3.950000e-01    3.830000e+00
  TP6a   SQ2  1 3.650000e-01    5.295000e+00
  TP6a   TQ2  1 3.400000e-01    7.568000e+00
  TP5a    Q2  1 3.950000e-01    4.070000e+00
  TP5a   SQ2  1 3.650000e-01    5.567000e+00
  TP5a   TQ2  1 3.400000e-01    7.822000e+00
  TP4a    Q2  1 3.950000e-01    4.069000e+00
  TP4a   SQ2  1 3.650000e-01    5.561000e+00
  TP4a   TQ2  1 3.400000e-01    7.810000e+00
  TP3a    Q2  1 3.950000e-01    3.828000e+00
  TP3a   SQ2  1 3.650000e-01    5.282000e+00
  TP3a   TQ2  1 3.400000e-01    7.541000e+00
  TP2a    Q2  1 3.950000e-01    3.826000e+00
  TP2a   SQ2  1 3.650000e-01    5.274000e+00
  TP2a   TQ2  1 3.400000e-01    7.522000e+00
  TP1a    Q2  1 3.950000e-01    3.585000e+00
  TP1a   SQ2  1 3.650000e-01    4.996000e+00
  TP1a   TQ2  1 3.400000e-01    7.264000e+00
  TN6a    Q2  1 3.950000e-01    3.583000e+00
  TN6a   SQ2  1 3.650000e-01    4.985000e+00
  TN6a   TQ2  1 3.400000e-01    7.242000e+00
  TN5a    Q2  1 3.950000e-01    3.580000e+00
  TN5a   SQ2  1 3.650000e-01    4.972000e+00
  TN5a   TQ2  1 3.400000e-01    7.212000e+00
  TN4a    Q2  1 3.950000e-01    3.577000e+00
  TN4a   SQ2  1 3.650000e-01    4.954000e+00
  TN4a   TQ2  1 3.400000e-01    7.172000e+00
  TN3a    Q2  1 3.950000e-01    3.322000e+00
  TN3a   SQ2  1 3.650000e-01    4.669000e+00
  TN3a   TQ2  1 3.400000e-01    6.897000e+00
  TN2a    Q2  1 3.950000e-01    3.316000e+00
  TN2a   SQ2  1 3.650000e-01    4.632000e+00
  TN2a   TQ2  1 3.400000e-01    6.817000e+00
  TN1a    Q2  1 3.950000e-01    3.306000e+00
  TN1a   SQ2  1 3.650000e-01    4.576000e+00
  TN1a   TQ2  1 3.400000e-01    6.694000e+00
  TC6v    Q2  1 3.950000e-01    3.048000e+00
  TC6v   SQ2  1 3.650000e-01    4.251000e+00
  TC6v   TQ2  1 3.400000e-01    6.224000e+00
  TC5v    Q2  1 3.950000e-01    2.644000e+00
  TC5v   SQ2  1 3.650000e-01    3.744000e+00
  TC5v   TQ2  1 3.400000e-01    5.544000e+00
  TC4v    Q2  1 3.950000e-01    2.423000e+00
  TC4v   SQ2  1 3.650000e-01    3.468000e+00
  TC4v   TQ2  1 3.400000e-01    5.009000e+00
  TC3v    Q2  1 3.950000e-01    2.127000e+00
  TC3v   SQ2  1 3.660000e-01    3.119000e+00
  TC3v   TQ2  1 3.520000e-01    4.286000e+00
  TC2v    Q2  1 4.040000e-01    1.073000e+00
  TC2v   SQ2  1 4.230000e-01    2.160000e+00
  TC2v   TQ2  1 4.380000e-01    3.064000e+00
  TC1v    Q2  1 4.040000e-01    1.032000e+00
  TC1v   SQ2  1 4.230000e-01    1.957000e+00
  TC1v   TQ2  1 4.380000e-01    2.663000e+00
  TX4v    Q2  1 3.950000e-01    2.858000e+00
  TX4v   SQ2  1 3.650000e-01    4.076000e+00
  TX4v   TQ2  1 3.400000e-01    6.094000e+00
  TX3v    Q2  1 3.950000e-01    2.658000e+00
  TX3v   SQ2  1 3.650000e-01    3.821000e+00
  TX3v   TQ2  1 3.400000e-01    5.714000e+00
  TX2v    Q2  1 3.950000e-01    2.435000e+00
  TX2v   SQ2  1 3.650000e-01    3.532000e+00
  TX2v   TQ2  1 3.400000e-01    5.151000e+00
  TX1v    Q2  1 3.950000e-01    2.127000e+00
  TX1v   SQ2  1 3.660000e-01    3.119000e+00
  TX1v   TQ2  1 3.520000e-01    4.286000e+00
  TC6e    Q2  1 3.950000e-01    3.048000e+00
  TC6e   SQ2  1 3.650000e-01    4.251000e+00
  TC6e   TQ2  1 3.400000e-01    6.224000e+00
  TC5e    Q2  1 3.950000e-01    2.644000e+00
  TC5e   SQ2  1 3.650000e-01    3.744000e+00
  TC5e   TQ2  1 3.400000e-01    5.544000e+00
  TC4e    Q2  1 3.950000e-01    2.423000e+00
  TC4e   SQ2  1 3.650000e-01    3.468000e+00
  TC4e   TQ2  1 3.400000e-01    5.009000e+00
  TC3e    Q2  1 3.950000e-01    2.127000e+00
  TC3e   SQ2  1 3.660000e-01    3.119000e+00
  TC3e   TQ2  1 3.520000e-01    4.286000e+00
  TC2e    Q2  1 4.040000e-01    1.073000e+00
  TC2e   SQ2  1 4.230000e-01    2.160000e+00
  TC2e   TQ2  1 4.380000e-01    3.064000e+00
  TC1e    Q2  1 4.040000e-01    1.032000e+00
  TC1e   SQ2  1 4.230000e-01    1.957000e+00
  TC1e   TQ2  1 4.380000e-01    2.663000e+00
  TX4e    Q2  1 3.950000e-01    2.858000e+00
  TX4e   SQ2  1 3.650000e-01    4.076000e+00
  TX4e   TQ2  1 3.400000e-01    6.094000e+00
  TX3e    Q2  1 3.950000e-01    2.658000e+00
  TX3e   SQ2  1 3.650000e-01    3.821000e+00
  TX3e   TQ2  1 3.400000e-01    5.714000e+00
  TX2e    Q2  1 3.950000e-01    2.435000e+00
  TX2e   SQ2  1 3.650000e-01    3.532000e+00
  TX2e   TQ2  1 3.400000e-01    5.151000e+00
  TX1e    Q2  1 3.950000e-01    2.127000e+00
  TX1e   SQ2  1 3.660000e-01    3.119000e+00
  TX1e   TQ2  1 3.520000e-01    4.286000e+00
  TP6q    Q2  1 3.950000e-01    4.630000e+00
  TP6q   SQ2  1 3.650000e-01    6.125000e+00
  TP6q   TQ2  1 3.400000e-01    8.298000e+00
  TP5q    Q2  1 3.950000e-01    4.940000e+00
  TP5q   SQ2  1 3.650000e-01    6.417000e+00
  TP5q   TQ2  1 3.400000e-01    8.582000e+00
  TP4q    Q2  1 3.950000e-01    4.939000e+00
  TP4q   SQ2  1 3.650000e-01    6.411000e+00
  TP4q   TQ2  1 3.400000e-01    8.570000e+00
  TP3q    Q2  1 3.950000e-01    4.628000e+00
  TP3q   SQ2  1 3.650000e-01    6.112000e+00
  TP3q   TQ2  1 3.400000e-01    8.271000e+00
  TP2q    Q2  1 3.950000e-01    4.626000e+00
  TP2q   SQ2  1 3.650000e-01    6.104000e+00
  TP2q   TQ2  1 3.400000e-01    8.252000e+00
  TP1q    Q2  1 3.950000e-01    4.305000e+00
  TP1q   SQ2  1 3.650000e-01    5.806000e+00
  TP1q   TQ2  1 3.400000e-01    7.984000e+00
  TN6q    Q2  1 3.950000e-01    4.303000e+00
  TN6q   SQ2  1 3.650000e-01    5.795000e+00
  TN6q   TQ2  1 3.400000e-01    7.962000e+00
  TN5q    Q2  1 3.950000e-01    4.300000e+00
  TN5q   SQ2  1 3.650000e-01    5.782000e+00
  TN5q   TQ2  1 3.400000e-01    7.932000e+00
  TN4q    Q2  1 3.950000e-01    4.297000e+00
  TN4q   SQ2  1 3.650000e-01    5.764000e+00
  TN4q   TQ2  1 3.400000e-01    7.892000e+00
  TN3q    Q2  1 3.950000e-01    4.052000e+00
  TN3q   SQ2  1 3.650000e-01    5.469000e+00
  TN3q   TQ2  1 3.400000e-01    7.607000e+00
  TN2q    Q2  1 3.950000e-01    4.046000e+00
  TN2q   SQ2  1 3.650000e-01    5.432000e+00
  TN2q   TQ2  1 3.400000e-01    7.527000e+00
  TN1q    Q2  1 3.950000e-01    4.036000e+00
  TN1q   SQ2  1 3.650000e-01    5.376000e+00
  TN1q   TQ2  1 3.400000e-01    7.404000e+00
  TC6q    Q2  1 3.950000e-01    3.538000e+00
  TC6q   SQ2  1 3.650000e-01    4.741000e+00
  TC6q   TQ2  1 3.400000e-01    6.704000e+00
  TC5q    Q2  1 3.950000e-01    3.034000e+00
  TC5q   SQ2  1 3.650000e-01    4.174000e+00
  TC5q   TQ2  1 3.400000e-01    6.054000e+00
  TC4q    Q2  1 3.950000e-01    2.813000e+00
  TC4q   SQ2  1 3.650000e-01    3.828000e+00
  TC4q   TQ2  1 3.400000e-01    5.549000e+00
  TC3q    Q2  1 3.950000e-01    2.587000e+00
  TC3q   SQ2  1 3.650000e-01    3.433000e+00
  TC3q   TQ2  1 3.400000e-01    4.860000e+00
  TC2q    Q2  1 3.990000e-01    1.426000e+00
  TC2q   SQ2  1 4.040000e-01    2.364000e+00
  TC2q   TQ2  1 4.110000e-01    3.288000e+00
  TC1q    Q2  1 3.990000e-01    1.384000e+00
  TC1q   SQ2  1 4.040000e-01    2.152000e+00
  TC1q   TQ2  1 4.110000e-01    2.860000e+00
  TX4q    Q2  1 3.950000e-01    3.298000e+00
  TX4q   SQ2  1 3.650000e-01    4.536000e+00
  TX4q   TQ2  1 3.400000e-01    6.604000e+00
  TX3q    Q2  1 3.950000e-01    3.048000e+00
  TX3q   SQ2  1 3.650000e-01    4.251000e+00
  TX3q   TQ2  1 3.400000e-01    6.224000e+00
  TX2q    Q2  1 3.950000e-01    2.825000e+00
  TX2q   SQ2  1 3.650000e-01    3.892000e+00
  TX2q   TQ2  1 3.400000e-01    5.691000e+00
  TX1q    Q2  1 3.950000e-01    2.587000e+00
  TX1q   SQ2  1 3.650000e-01    3.433000e+00
  TX1q   TQ2  1 3.400000e-01    4.860000e+00
 TP6dq    Q2  1 3.950000e-01    4.630000e+00
 TP6dq   SQ2  1 3.650000e-01    6.125000e+00
 TP6dq   TQ2  1 3.400000e-01    8.298000e+00
 TP5dq    Q2  1 3.950000e-01    4.940000e+00
 TP5dq   SQ2  1 3.650000e-01    6.417000e+00
 TP5dq   TQ2  1 3.400000e-01    8.582000e+00
 TP4dq    Q2  1 3.950000e-01    4.939000e+00
 TP4dq   SQ2  1 3.650000e-01    6.411000e+00
 TP4dq   TQ2  1 3.400000e-01    8.570000e+00
 TP3dq    Q2  1 3.950000e-01    4.628000e+00
 TP3dq   SQ2  1 3.650000e-01    6.112000e+00
 TP3dq   TQ2  1 3.400000e-01    8.271000e+00
 TP2dq    Q2  1 3.950000e-01    4.626000e+00
 TP2dq   SQ2  1 3.650000e-01    6.104000e+00
 TP2dq   TQ2  1 3.400000e-01    8.252000e+00
 TP1dq    Q2  1 3.950000e-01    4.305000e+00
 TP1dq   SQ2  1 3.650000e-01    5.806000e+00
 TP1dq   TQ2  1 3.400000e-01    7.984000e+00
 TN6dq    Q2  1 3.950000e-01    4.303000e+00
 TN6dq   SQ2  1 3.650000e-01    5.795000e+00
 TN6dq   TQ2  1 3.400000e-01    7.962000e+00
 TN5dq    Q2  1 3.950000e-01    4.300000e+00
 TN5dq   SQ2  1 3.650000e-01    5.782000e+00
 TN5dq   TQ2  1 3.400000e-01    7.932000e+00
 TN4dq    Q2  1 3.950000e-01    4.297000e+00
 TN4dq   SQ2  1 3.650000e-01    5.764000e+00
 TN4dq   TQ2  1 3.400000e-01    7.892000e+00
 TN3dq    Q2  1 3.950000e-01    4.052000e+00
 TN3dq   SQ2  1 3.650000e-01    5.469000e+00
 TN3dq   TQ2  1 3.400000e-01    7.607000e+00
 TN2dq    Q2  1 3.950000e-01    4.046000e+00
 TN2dq   SQ2  1 3.650000e-01    5.432000e+00
 TN2dq   TQ2  1 3.400000e-01    7.527000e+00
 TN1dq    Q2  1 3.950000e-01    4.036000e+00
 TN1dq   SQ2  1 3.650000e-01    5.376000e+00
 TN1dq   TQ2  1 3.400000e-01    7.404000e+00
 TP6aq    Q2  1 3.950000e-01    4.630000e+00
 TP6aq   SQ2  1 3.650000e-01    6.125000e+00
 TP6aq   TQ2  1 3.400000e-01    8.298000e+00
 TP5aq    Q2  1 3.950000e-01    4.940000e+00
 TP5aq   SQ2  1 3.650000e-01    6.417000e+00
 TP5aq   TQ2  1 3.400000e-01    8.582000e+00
 TP4aq    Q2  1 3.950000e-01    4.939000e+00
 TP4aq   SQ2  1 3.650000e-01    6.411000e+00
 TP4aq   TQ2  1 3.400000e-01    8.570000e+00
 TP3aq    Q2  1 3.950000e-01    4.628000e+00
 TP3aq   SQ2  1 3.650000e-01    6.112000e+00
 TP3aq   TQ2  1 3.400000e-01    8.271000e+00
 TP2aq    Q2  1 3.950000e-01    4.626000e+00
 TP2aq   SQ2  1 3.650000e-01    6.104000e+00
 TP2aq   TQ2  1 3.400000e-01    8.252000e+00
 TP1aq    Q2  1 3.950000e-01    4.305000e+00
 TP1aq   SQ2  1 3.650000e-01    5.806000e+00
 TP1aq   TQ2  1 3.400000e-01    7.984000e+00
 TN6aq    Q2  1 3.950000e-01    4.303000e+00
 TN6aq   SQ2  1 3.650000e-01    5.795000e+00
 TN6aq   TQ2  1 3.400000e-01    7.962000e+00
 TN5aq    Q2  1 3.950000e-01    4.300000e+00
 TN5aq   SQ2  1 3.650000e-01    5.782000e+00
 TN5aq   TQ2  1 3.400000e-01    7.932000e+00
 TN4aq    Q2  1 3.950000e-01    4.297000e+00
 TN4aq   SQ2  1 3.650000e-01    5.764000e+00
 TN4aq   TQ2  1 3.400000e-01    7.892000e+00
 TN3aq    Q2  1 3.950000e-01    4.052000e+00
 TN3aq   SQ2  1 3.650000e-01    5.469000e+00
 TN3aq   TQ2  1 3.400000e-01    7.607000e+00
 TN2aq    Q2  1 3.950000e-01    4.046000e+00
 TN2aq   SQ2  1 3.650000e-01    5.432000e+00
 TN2aq   TQ2  1 3.400000e-01    7.527000e+00
 TN1aq    Q2  1 3.950000e-01    4.036000e+00
 TN1aq   SQ2  1 3.650000e-01    5.376000e+00
 TN1aq   TQ2  1 3.400000e-01    7.404000e+00
 TC6vq    Q2  1 3.950000e-01    3.778000e+00
 TC6vq   SQ2  1 3.650000e-01    5.011000e+00
 TC6vq   TQ2  1 3.400000e-01    6.944000e+00
 TC5vq    Q2  1 3.950000e-01    3.274000e+00
 TC5vq   SQ2  1 3.650000e-01    4.404000e+00
 TC5vq   TQ2  1 3.400000e-01    6.314000e+00
 TC4vq    Q2  1 3.950000e-01    3.013000e+00
 TC4vq   SQ2  1 3.650000e-01    4.058000e+00
 TC4vq   TQ2  1 3.400000e-01    5.799000e+00
 TC3vq    Q2  1 3.950000e-01    2.777000e+00
 TC3vq   SQ2  1 3.650000e-01    3.633000e+00
 TC3vq   TQ2  1 3.400000e-01    5.120000e+00
 TC2vq    Q2  1 3.980000e-01    1.697000e+00
 TC2vq   SQ2  1 3.940000e-01    2.556000e+00
 TC2vq   TQ2  1 3.850000e-01    3.510000e+00
 TC1vq    Q2  1 3.980000e-01    1.655000e+00
 TC1vq   SQ2  1 3.940000e-01    2.338000e+00
 TC1vq   TQ2  1 3.850000e-01    3.053000e+00
 TX4vq    Q2  1 3.950000e-01    3.548000e+00
 TX4vq   SQ2  1 3.650000e-01    4.796000e+00
 TX4vq   TQ2  1 3.400000e-01    6.824000e+00
 TX3vq    Q2  1 3.950000e-01    3.288000e+00
 TX3vq   SQ2  1 3.650000e-01    4.481000e+00
 TX3vq   TQ2  1 3.400000e-01    6.484000e+00
 TX2vq    Q2  1 3.950000e-01    3.025000e+00
 TX2vq   SQ2  1 3.650000e-01    4.122000e+00
 TX2vq   TQ2  1 3.400000e-01    5.941000e+00
 TX1vq    Q2  1 3.950000e-01    2.777000e+00
 TX1vq   SQ2  1 3.650000e-01    3.633000e+00
 TX1vq   TQ2  1 3.400000e-01    5.120000e+00
 TC6eq    Q2  1 3.950000e-01    3.778000e+00
 TC6eq   SQ2  1 3.650000e-01    5.011000e+00
 TC6eq   TQ2  1 3.400000e-01    6.944000e+00
 TC5eq    Q2  1 3.950000e-01    3.274000e+00
 TC5eq   SQ2  1 3.650000e-01    4.404000e+00
 TC5eq   TQ2  1 3.400000e-01    6.314000e+00
 TC4eq    Q2  1 3.950000e-01    3.013000e+00
 TC4eq   SQ2  1 3.650000e-01    4.058000e+00
 TC4eq   TQ2  1 3.400000e-01    5.799000e+00
 TC3eq    Q2  1 3.950000e-01    2.777000e+00
 TC3eq   SQ2  1 3.650000e-01    3.633000e+00
 TC3eq   TQ2  1 3.400000e-01    5.120000e+00
 TC2eq    Q2  1 3.980000e-01    1.697000e+00
 TC2eq   SQ2  1 3.940000e-01    2.556000e+00
 TC2eq   TQ2  1 3.850000e-01    3.510000e+00
 TC1eq    Q2  1 3.980000e-01    1.655000e+00
 TC1eq   SQ2  1 3.940000e-01    2.338000e+00
 TC1eq   TQ2  1 3.850000e-01    3.053000e+00
 TX4eq    Q2  1 3.950000e-01    3.548000e+00
 TX4eq   SQ2  1 3.650000e-01    4.796000e+00
 TX4eq   TQ2  1 3.400000e-01    6.824000e+00
 TX3eq    Q2  1 3.950000e-01    3.288000e+00
 TX3eq   SQ2  1 3.650000e-01    4.481000e+00
 TX3eq   TQ2  1 3.400000e-01    6.484000e+00
 TX2eq    Q2  1 3.950000e-01    3.025000e+00
 TX2eq   SQ2  1 3.650000e-01    4.122000e+00
 TX2eq   TQ2  1 3.400000e-01    5.941000e+00
 TX1eq    Q2  1 3.950000e-01    2.777000e+00
 TX1eq   SQ2  1 3.650000e-01    3.633000e+00
 TX1eq   TQ2  1 3.400000e-01    5.120000e+00
  TP6h    Q2  1 3.950000e-01    3.830000e+00
  TP6h   SQ2  1 3.650000e-01    5.295000e+00
  TP6h   TQ2  1 3.400000e-01    7.568000e+00
  TP5h    Q2  1 3.950000e-01    4.070000e+00
  TP5h   SQ2  1 3.650000e-01    5.567000e+00
  TP5h   TQ2  1 3.400000e-01    7.822000e+00
  TP4h    Q2  1 3.950000e-01    4.069000e+00
  TP4h   SQ2  1 3.650000e-01    5.561000e+00
  TP4h   TQ2  1 3.400000e-01    7.810000e+00
  TP3h    Q2  1 3.950000e-01    3.828000e+00
  TP3h   SQ2  1 3.650000e-01    5.282000e+00
  TP3h   TQ2  1 3.400000e-01    7.541000e+00
  TP2h    Q2  1 3.950000e-01    3.826000e+00
  TP2h   SQ2  1 3.650000e-01    5.274000e+00
  TP2h   TQ2  1 3.400000e-01    7.522000e+00
  TP1h    Q2  1 3.950000e-01    3.585000e+00
  TP1h   SQ2  1 3.650000e-01    4.996000e+00
  TP1h   TQ2  1 3.400000e-01    7.264000e+00
  TN6h    Q2  1 3.950000e-01    3.583000e+00
  TN6h   SQ2  1 3.650000e-01    4.985000e+00
  TN6h   TQ2  1 3.400000e-01    7.242000e+00
  TN5h    Q2  1 3.950000e-01    3.580000e+00
  TN5h   SQ2  1 3.650000e-01    4.972000e+00
  TN5h   TQ2  1 3.400000e-01    7.212000e+00
  TN4h    Q2  1 3.950000e-01    3.577000e+00
  TN4h   SQ2  1 3.650000e-01    4.954000e+00
  TN4h   TQ2  1 3.400000e-01    7.172000e+00
  TN3h    Q2  1 3.950000e-01    3.322000e+00
  TN3h   SQ2  1 3.650000e-01    4.669000e+00
  TN3h   TQ2  1 3.400000e-01    6.897000e+00
  TN2h    Q2  1 3.950000e-01    3.316000e+00
  TN2h   SQ2  1 3.650000e-01    4.632000e+00
  TN2h   TQ2  1 3.400000e-01    6.817000e+00
  TN1h    Q2  1 3.950000e-01    3.306000e+00
  TN1h   SQ2  1 3.650000e-01    4.576000e+00
  TN1h   TQ2  1 3.400000e-01    6.694000e+00
  TC6h    Q2  1 3.950000e-01    2.848000e+00
  TC6h   SQ2  1 3.650000e-01    4.021000e+00
  TC6h   TQ2  1 3.400000e-01    5.974000e+00
  TC5h    Q2  1 3.950000e-01    2.444000e+00
  TC5h   SQ2  1 3.650000e-01    3.584000e+00
  TC5h   TQ2  1 3.400000e-01    5.264000e+00
  TC4h    Q2  1 3.950000e-01    2.163000e+00
  TC4h   SQ2  1 3.660000e-01    3.313000e+00
  TC4h   TQ2  1 3.520000e-01    4.700000e+00
  TC3h    Q2  1 3.950000e-01    1.947000e+00
  TC3h   SQ2  1 3.780000e-01    2.920000e+00
  TC3h   TQ2  1 3.660000e-01    4.047000e+00
  TC2h    Q2  1 4.650000e-01    9.150000e-01
  TC2h   SQ2  1 4.840000e-01    1.920000e+00
  TC2h   TQ2  1 5.050000e-01    2.704000e+00
  TC1h    Q2  1 4.650000e-01    8.780000e-01
  TC1h   SQ2  1 4.840000e-01    1.743000e+00
  TC1h   TQ2  1 5.050000e-01    2.356000e+00
  TX4h    Q2  1 3.950000e-01    2.668000e+00
  TX4h   SQ2  1 3.650000e-01    3.876000e+00
  TX4h   TQ2  1 3.400000e-01    5.834000e+00
  TX3h    Q2  1 3.950000e-01    2.458000e+00
  TX3h   SQ2  1 3.650000e-01    3.661000e+00
  TX3h   TQ2  1 3.400000e-01    5.434000e+00
  TX2h    Q2  1 3.950000e-01    2.175000e+00
  TX2h   SQ2  1 3.660000e-01    3.377000e+00
  TX2h   TQ2  1 3.520000e-01    4.837000e+00
  TX1h    Q2  1 3.950000e-01    1.947000e+00
  TX1h   SQ2  1 3.780000e-01    2.920000e+00
  TX1h   TQ2  1 3.660000e-01    4.047000e+00
 TP6dh    Q2  1 3.950000e-01    3.830000e+00
 TP6dh   SQ2  1 3.650000e-01    5.295000e+00
 TP6dh   TQ2  1 3.400000e-01    7.568000e+00
 TP5dh    Q2  1 3.950000e-01    4.070000e+00
 TP5dh   SQ2  1 3.650000e-01    5.567000e+00
 TP5dh   TQ2  1 3.400000e-01    7.822000e+00
 TP4dh    Q2  1 3.950000e-01    4.069000e+00
 TP4dh   SQ2  1 3.650000e-01    5.561000e+00
 TP4dh   TQ2  1 3.400000e-01    7.810000e+00
 TP3dh    Q2  1 3.950000e-01    3.828000e+00
 TP3dh   SQ2  1 3.650000e-01    5.282000e+00
 TP3dh   TQ2  1 3.400000e-01    7.541000e+00
 TP2dh    Q2  1 3.950000e-01    3.826000e+00
 TP2dh   SQ2  1 3.650000e-01    5.274000e+00
 TP2dh   TQ2  1 3.400000e-01    7.522000e+00
 TP1dh    Q2  1 3.950000e-01    3.585000e+00
 TP1dh   SQ2  1 3.650000e-01    4.996000e+00
 TP1dh   TQ2  1 3.400000e-01    7.264000e+00
 TN6dh    Q2  1 3.950000e-01    3.583000e+00
 TN6dh   SQ2  1 3.650000e-01    4.985000e+00
 TN6dh   TQ2  1 3.400000e-01    7.242000e+00
 TN5dh    Q2  1 3.950000e-01    3.580000e+00
 TN5dh   SQ2  1 3.650000e-01    4.972000e+00
 TN5dh   TQ2  1 3.400000e-01    7.212000e+00
 TN4dh    Q2  1 3.950000e-01    3.577000e+00
 TN4dh   SQ2  1 3.650000e-01    4.954000e+00
 TN4dh   TQ2  1 3.400000e-01    7.172000e+00
 TN3dh    Q2  1 3.950000e-01    3.322000e+00
 TN3dh   SQ2  1 3.650000e-01    4.669000e+00
 TN3dh   TQ2  1 3.400000e-01    6.897000e+00
 TN2dh    Q2  1 3.950000e-01    3.316000e+00
 TN2dh   SQ2  1 3.650000e-01    4.632000e+00
 TN2dh   TQ2  1 3.400000e-01    6.817000e+00
 TN1dh    Q2  1 3.950000e-01    3.306000e+00
 TN1dh   SQ2  1 3.650000e-01    4.576000e+00
 TN1dh   TQ2  1 3.400000e-01    6.694000e+00
 TP6ah    Q2  1 3.950000e-01    3.830000e+00
 TP6ah   SQ2  1 3.650000e-01    5.295000e+00
 TP6ah   TQ2  1 3.400000e-01    7.568000e+00
 TP5ah    Q2  1 3.950000e-01    4.070000e+00
 TP5ah   SQ2  1 3.650000e-01    5.567000e+00
 TP5ah   TQ2  1 3.400000e-01    7.822000e+00
 TP4ah    Q2  1 3.950000e-01    4.069000e+00
 TP4ah   SQ2  1 3.650000e-01    5.561000e+00
 TP4ah   TQ2  1 3.400000e-01    7.810000e+00
 TP3ah    Q2  1 3.950000e-01    3.828000e+00
 TP3ah   SQ2  1 3.650000e-01    5.282000e+00
 TP3ah   TQ2  1 3.400000e-01    7.541000e+00
 TP2ah    Q2  1 3.950000e-01    3.826000e+00
 TP2ah   SQ2  1 3.650000e-01    5.274000e+00
 TP2ah   TQ2  1 3.400000e-01    7.522000e+00
 TP1ah    Q2  1 3.950000e-01    3.585000e+00
 TP1ah   SQ2  1 3.650000e-01    4.996000e+00
 TP1ah   TQ2  1 3.400000e-01    7.264000e+00
 TN6ah    Q2  1 3.950000e-01    3.583000e+00
 TN6ah   SQ2  1 3.650000e-01    4.985000e+00
 TN6ah   TQ2  1 3.400000e-01    7.242000e+00
 TN5ah    Q2  1 3.950000e-01    3.580000e+00
 TN5ah   SQ2  1 3.650000e-01    4.972000e+00
 TN5ah   TQ2  1 3.400000e-01    7.212000e+00
 TN4ah    Q2  1 3.950000e-01    3.577000e+00
 TN4ah   SQ2  1 3.650000e-01    4.954000e+00
 TN4ah   TQ2  1 3.400000e-01    7.172000e+00
 TN3ah    Q2  1 3.950000e-01    3.322000e+00
 TN3ah   SQ2  1 3.650000e-01    4.669000e+00
 TN3ah   TQ2  1 3.400000e-01    6.897000e+00
 TN2ah    Q2  1 3.950000e-01    3.316000e+00
 TN2ah   SQ2  1 3.650000e-01    4.632000e+00
 TN2ah   TQ2  1 3.400000e-01    6.817000e+00
 TN1ah    Q2  1 3.950000e-01    3.306000e+00
 TN1ah   SQ2  1 3.650000e-01    4.576000e+00
 TN1ah   TQ2  1 3.400000e-01    6.694000e+00
 TC6vh    Q2  1 3.950000e-01    3.048000e+00
 TC6vh   SQ2  1 3.650000e-01    4.251000e+00
 TC6vh   TQ2  1 3.400000e-01    6.224000e+00
 TC5vh    Q2  1 3.950000e-01    2.644000e+00
 TC5vh   SQ2  1 3.650000e-01    3.744000e+00
 TC5vh   TQ2  1 3.400000e-01    5.544000e+00
 TC4vh    Q2  1 3.950000e-01    2.423000e+00
 TC4vh   SQ2  1 3.650000e-01    3.468000e+00
 TC4vh   TQ2  1 3.400000e-01    5.009000e+00
 TC3vh    Q2  1 3.950000e-01    2.127000e+00
 TC3vh   SQ2  1 3.660000e-01    3.119000e+00
 TC3vh   TQ2  1 3.520000e-01    4.286000e+00
 TC2vh    Q2  1 4.040000e-01    1.073000e+00
 TC2vh   SQ2  1 4.230000e-01    2.160000e+00
 TC2vh   TQ2  1 4.380000e-01    3.064000e+00
 TC1vh    Q2  1 4.040000e-01    1.032000e+00
 TC1vh   SQ2  1 4.230000e-01    1.957000e+00
 TC1vh   TQ2  1 4.380000e-01    2.663000e+00
 TX4vh    Q2  1 3.950000e-01    2.858000e+00
 TX4vh   SQ2  1 3.650000e-01    4.076000e+00
 TX4vh   TQ2  1 3.400000e-01    6.094000e+00
 TX3vh    Q2  1 3.950000e-01    2.658000e+00
 TX3vh   SQ2  1 3.650000e-01    3.821000e+00
 TX3vh   TQ2  1 3.400000e-01    5.714000e+00
 TX2vh    Q2  1 3.950000e-01    2.435000e+00
 TX2vh   SQ2  1 3.650000e-01    3.532000e+00
 TX2vh   TQ2  1 3.400000e-01    5.151000e+00
 TX1vh    Q2  1 3.950000e-01    2.127000e+00
 TX1vh   SQ2  1 3.660000e-01    3.119000e+00
 TX1vh   TQ2  1 3.520000e-01    4.286000e+00
 TC6eh    Q2  1 3.950000e-01    3.048000e+00
 TC6eh   SQ2  1 3.650000e-01    4.251000e+00
 TC6eh   TQ2  1 3.400000e-01    6.224000e+00
 TC5eh    Q2  1 3.950000e-01    2.644000e+00
 TC5eh   SQ2  1 3.650000e-01    3.744000e+00
 TC5eh   TQ2  1 3.400000e-01    5.544000e+00
 TC4eh    Q2  1 3.950000e-01    2.423000e+00
 TC4eh   SQ2  1 3.650000e-01    3.468000e+00
 TC4eh   TQ2  1 3.400000e-01    5.009000e+00
 TC3eh    Q2  1 3.950000e-01    2.127000e+00
 TC3eh   SQ2  1 3.660000e-01    3.119000e+00
 TC3eh   TQ2  1 3.520000e-01    4.286000e+00
 TC2eh    Q2  1 4.040000e-01    1.073000e+00
 TC2eh   SQ2  1 4.230000e-01    2.160000e+00
 TC2eh   TQ2  1 4.380000e-01    3.064000e+00
 TC1eh    Q2  1 4.040000e-01    1.032000e+00
 TC1eh   SQ2  1 4.230000e-01    1.957000e+00
 TC1eh   TQ2  1 4.380000e-01    2.663000e+00
 TX4eh    Q2  1 3.950000e-01    2.858000e+00
 TX4eh   SQ2  1 3.650000e-01    4.076000e+00
 TX4eh   TQ2  1 3.400000e-01    6.094000e+00
 TX3eh    Q2  1 3.950000e-01    2.658000e+00
 TX3eh   SQ2  1 3.650000e-01    3.821000e+00
 TX3eh   TQ2  1 3.400000e-01    5.714000e+00
 TX2eh    Q2  1 3.950000e-01    2.435000e+00
 TX2eh   SQ2  1 3.650000e-01    3.532000e+00
 TX2eh   TQ2  1 3.400000e-01    5.151000e+00
 TX1eh    Q2  1 3.950000e-01    2.127000e+00
 TX1eh   SQ2  1 3.660000e-01    3.119000e+00
 TX1eh   TQ2  1 3.520000e-01    4.286000e+00
  TP6r    Q2  1 3.950000e-01    3.830000e+00
  TP6r   SQ2  1 3.650000e-01    5.295000e+00
  TP6r   TQ2  1 3.400000e-01    7.568000e+00
  TP5r    Q2  1 3.950000e-01    4.070000e+00
  TP5r   SQ2  1 3.650000e-01    5.567000e+00
  TP5r   TQ2  1 3.400000e-01    7.822000e+00
  TP4r    Q2  1 3.950000e-01    4.069000e+00
  TP4r   SQ2  1 3.650000e-01    5.561000e+00
  TP4r   TQ2  1 3.400000e-01    7.810000e+00
  TP3r    Q2  1 3.950000e-01    3.828000e+00
  TP3r   SQ2  1 3.650000e-01    5.282000e+00
  TP3r   TQ2  1 3.400000e-01    7.541000e+00
  TP2r    Q2  1 3.950000e-01    3.826000e+00
  TP2r   SQ2  1 3.650000e-01    5.274000e+00
  TP2r   TQ2  1 3.400000e-01    7.522000e+00
  TP1r    Q2  1 3.950000e-01    3.585000e+00
  TP1r   SQ2  1 3.650000e-01    4.996000e+00
  TP1r   TQ2  1 3.400000e-01    7.264000e+00
  TN6r    Q2  1 3.950000e-01    3.583000e+00
  TN6r   SQ2  1 3.650000e-01    4.985000e+00
  TN6r   TQ2  1 3.400000e-01    7.242000e+00
  TN5r    Q2  1 3.950000e-01    3.580000e+00
  TN5r   SQ2  1 3.650000e-01    4.972000e+00
  TN5r   TQ2  1 3.400000e-01    7.212000e+00
  TN4r    Q2  1 3.950000e-01    3.577000e+00
  TN4r   SQ2  1 3.650000e-01    4.954000e+00
  TN4r   TQ2  1 3.400000e-01    7.172000e+00
  TN3r    Q2  1 3.950000e-01    3.322000e+00
  TN3r   SQ2  1 3.650000e-01    4.669000e+00
  TN3r   TQ2  1 3.400000e-01    6.897000e+00
  TN2r    Q2  1 3.950000e-01    3.316000e+00
  TN2r   SQ2  1 3.650000e-01    4.632000e+00
  TN2r   TQ2  1 3.400000e-01    6.817000e+00
  TN1r    Q2  1 3.950000e-01    3.306000e+00
  TN1r   SQ2  1 3.650000e-01    4.576000e+00
  TN1r   TQ2  1 3.400000e-01    6.694000e+00
  TC6r    Q2  1 3.950000e-01    2.848000e+00
  TC6r   SQ2  1 3.650000e-01    4.021000e+00
  TC6r   TQ2  1 3.400000e-01    5.974000e+00
  TC5r    Q2  1 3.950000e-01    2.444000e+00
  TC5r   SQ2  1 3.650000e-01    3.584000e+00
  TC5r   TQ2  1 3.400000e-01    5.264000e+00
  TC4r    Q2  1 3.950000e-01    2.163000e+00
  TC4r   SQ2  1 3.660000e-01    3.313000e+00
  TC4r   TQ2  1 3.520000e-01    4.700000e+00
  TC3r    Q2  1 3.950000e-01    1.947000e+00
  TC3r   SQ2  1 3.780000e-01    2.920000e+00
  TC3r   TQ2  1 3.660000e-01    4.047000e+00
  TC2r    Q2  1 4.650000e-01    9.150000e-01
  TC2r   SQ2  1 4.840000e-01    1.920000e+00
  TC2r   TQ2  1 5.050000e-01    2.704000e+00
  TC1r    Q2  1 4.650000e-01    8.780000e-01
  TC1r   SQ2  1 4.840000e-01    1.743000e+00
  TC1r   TQ2  1 5.050000e-01    2.356000e+00
  TX4r    Q2  1 3.950000e-01    2.668000e+00
  TX4r   SQ2  1 3.650000e-01    3.876000e+00
  TX4r   TQ2  1 3.400000e-01    5.834000e+00
  TX3r    Q2  1 3.950000e-01    2.458000e+00
  TX3r   SQ2  1 3.650000e-01    3.661000e+00
  TX3r   TQ2  1 3.400000e-01    5.434000e+00
  TX2r    Q2  1 3.950000e-01    2.175000e+00
  TX2r   SQ2  1 3.660000e-01    3.377000e+00
  TX2r   TQ2  1 3.520000e-01    4.837000e+00
  TX1r    Q2  1 3.950000e-01    1.947000e+00
  TX1r   SQ2  1 3.780000e-01    2.920000e+00
  TX1r   TQ2  1 3.660000e-01    4.047000e+00
 TP6dr    Q2  1 3.950000e-01    3.830000e+00
 TP6dr   SQ2  1 3.650000e-01    5.295000e+00
 TP6dr   TQ2  1 3.400000e-01    7.568000e+00
 TP5dr    Q2  1 3.950000e-01    4.070000e+00
 TP5dr   SQ2  1 3.650000e-01    5.567000e+00
 TP5dr   TQ2  1 3.400000e-01    7.822000e+00
 TP4dr    Q2  1 3.950000e-01    4.069000e+00
 TP4dr   SQ2  1 3.650000e-01    5.561000e+00
 TP4dr   TQ2  1 3.400000e-01    7.810000e+00
 TP3dr    Q2  1 3.950000e-01    3.828000e+00
 TP3dr   SQ2  1 3.650000e-01    5.282000e+00
 TP3dr   TQ2  1 3.400000e-01    7.541000e+00
 TP2dr    Q2  1 3.950000e-01    3.826000e+00
 TP2dr   SQ2  1 3.650000e-01    5.274000e+00
 TP2dr   TQ2  1 3.400000e-01    7.522000e+00
 TP1dr    Q2  1 3.950000e-01    3.585000e+00
 TP1dr   SQ2  1 3.650000e-01    4.996000e+00
 TP1dr   TQ2  1 3.400000e-01    7.264000e+00
 TN6dr    Q2  1 3.950000e-01    3.583000e+00
 TN6dr   SQ2  1 3.650000e-01    4.985000e+00
 TN6dr   TQ2  1 3.400000e-01    7.242000e+00
 TN5dr    Q2  1 3.950000e-01    3.580000e+00
 TN5dr   SQ2  1 3.650000e-01    4.972000e+00
 TN5dr   TQ2  1 3.400000e-01    7.212000e+00
 TN4dr    Q2  1 3.950000e-01    3.577000e+00
 TN4dr   SQ2  1 3.650000e-01    4.954000e+00
 TN4dr   TQ2  1 3.400000e-01    7.172000e+00
 TN3dr    Q2  1 3.950000e-01    3.322000e+00
 TN3dr   SQ2  1 3.650000e-01    4.669000e+00
 TN3dr   TQ2  1 3.400000e-01    6.897000e+00
 TN2dr    Q2  1 3.950000e-01    3.316000e+00
 TN2dr   SQ2  1 3.650000e-01    4.632000e+00
 TN2dr   TQ2  1 3.400000e-01    6.817000e+00
 TN1dr    Q2  1 3.950000e-01    3.306000e+00
 TN1dr   SQ2  1 3.650000e-01    4.576000e+00
 TN1dr   TQ2  1 3.400000e-01    6.694000e+00
 TP6ar    Q2  1 3.950000e-01    3.830000e+00
 TP6ar   SQ2  1 3.650000e-01    5.295000e+00
 TP6ar   TQ2  1 3.400000e-01    7.568000e+00
 TP5ar    Q2  1 3.950000e-01    4.070000e+00
 TP5ar   SQ2  1 3.650000e-01    5.567000e+00
 TP5ar   TQ2  1 3.400000e-01    7.822000e+00
 TP4ar    Q2  1 3.950000e-01    4.069000e+00
 TP4ar   SQ2  1 3.650000e-01    5.561000e+00
 TP4ar   TQ2  1 3.400000e-01    7.810000e+00
 TP3ar    Q2  1 3.950000e-01    3.828000e+00
 TP3ar   SQ2  1 3.650000e-01    5.282000e+00
 TP3ar   TQ2  1 3.400000e-01    7.541000e+00
 TP2ar    Q2  1 3.950000e-01    3.826000e+00
 TP2ar   SQ2  1 3.650000e-01    5.274000e+00
 TP2ar   TQ2  1 3.400000e-01    7.522000e+00
 TP1ar    Q2  1 3.950000e-01    3.585000e+00
 TP1ar   SQ2  1 3.650000e-01    4.996000e+00
 TP1ar   TQ2  1 3.400000e-01    7.264000e+00
 TN6ar    Q2  1 3.950000e-01    3.583000e+00
 TN6ar   SQ2  1 3.650000e-01    4.985000e+00
 TN6ar   TQ2  1 3.400000e-01    7.242000e+00
 TN5ar    Q2  1 3.950000e-01    3.580000e+00
 TN5ar   SQ2  1 3.650000e-01    4.972000e+00
 TN5ar   TQ2  1 3.400000e-01    7.212000e+00
 TN4ar    Q2  1 3.950000e-01    3.577000e+00
 TN4ar   SQ2  1 3.650000e-01    4.954000e+00
 TN4ar   TQ2  1 3.400000e-01    7.172000e+00
 TN3ar    Q2  1 3.950000e-01    3.322000e+00
 TN3ar   SQ2  1 3.650000e-01    4.669000e+00
 TN3ar   TQ2  1 3.400000e-01    6.897000e+00
 TN2ar    Q2  1 3.950000e-01    3.316000e+00
 TN2ar   SQ2  1 3.650000e-01    4.632000e+00
 TN2ar   TQ2  1 3.400000e-01    6.817000e+00
 TN1ar    Q2  1 3.950000e-01    3.306000e+00
 TN1ar   SQ2  1 3.650000e-01    4.576000e+00
 TN1ar   TQ2  1 3.400000e-01    6.694000e+00
 TC6vr    Q2  1 3.950000e-01    3.048000e+00
 TC6vr   SQ2  1 3.650000e-01    4.251000e+00
 TC6vr   TQ2  1 3.400000e-01    6.224000e+00
 TC5vr    Q2  1 3.950000e-01    2.644000e+00
 TC5vr   SQ2  1 3.650000e-01    3.744000e+00
 TC5vr   TQ2  1 3.400000e-01    5.544000e+00
 TC4vr    Q2  1 3.950000e-01    2.423000e+00
 TC4vr   SQ2  1 3.650000e-01    3.468000e+00
 TC4vr   TQ2  1 3.400000e-01    5.009000e+00
 TC3vr    Q2  1 3.950000e-01    2.127000e+00
 TC3vr   SQ2  1 3.660000e-01    3.119000e+00
 TC3vr   TQ2  1 3.520000e-01    4.286000e+00
 TC2vr    Q2  1 4.040000e-01    1.073000e+00
 TC2vr   SQ2  1 4.230000e-01    2.160000e+00
 TC2vr   TQ2  1 4.380000e-01    3.064000e+00
 TC1vr    Q2  1 4.040000e-01    1.032000e+00
 TC1vr   SQ2  1 4.230000e-01    1.957000e+00
 TC1vr   TQ2  1 4.380000e-01    2.663000e+00
 TX4vr    Q2  1 3.950000e-01    2.858000e+00
 TX4vr   SQ2  1 3.650000e-01    4.076000e+00
 TX4vr   TQ2  1 3.400000e-01    6.094000e+00
 TX3vr    Q2  1 3.950000e-01    2.658000e+00
 TX3vr   SQ2  1 3.650000e-01    3.821000e+00
 TX3vr   TQ2  1 3.400000e-01    5.714000e+00
 TX2vr    Q2  1 3.950000e-01    2.435000e+00
 TX2vr   SQ2  1 3.650000e-01    3.532000e+00
 TX2vr   TQ2  1 3.400000e-01    5.151000e+00
 TX1vr    Q2  1 3.950000e-01    2.127000e+00
 TX1vr   SQ2  1 3.660000e-01    3.119000e+00
 TX1vr   TQ2  1 3.520000e-01    4.286000e+00
 TC6er    Q2  1 3.950000e-01    3.048000e+00
 TC6er   SQ2  1 3.650000e-01    4.251000e+00
 TC6er   TQ2  1 3.400000e-01    6.224000e+00
 TC5er    Q2  1 3.950000e-01    2.644000e+00
 TC5er   SQ2  1 3.650000e-01    3.744000e+00
 TC5er   TQ2  1 3.400000e-01    5.544000e+00
 TC4er    Q2  1 3.950000e-01    2.423000e+00
 TC4er   SQ2  1 3.650000e-01    3.468000e+00
 TC4er   TQ2  1 3.400000e-01    5.009000e+00
 TC3er    Q2  1 3.950000e-01    2.127000e+00
 TC3er   SQ2  1 3.660000e-01    3.119000e+00
 TC3er   TQ2  1 3.520000e-01    4.286000e+00
 TC2er    Q2  1 4.040000e-01    1.073000e+00
 TC2er   SQ2  1 4.230000e-01    2.160000e+00
 TC2er   TQ2  1 4.380000e-01    3.064000e+00
 TC1er    Q2  1 4.040000e-01    1.032000e+00
 TC1er   SQ2  1 4.230000e-01    1.957000e+00
 TC1er   TQ2  1 4.380000e-01    2.663000e+00
 TX4er    Q2  1 3.950000e-01    2.858000e+00
 TX4er   SQ2  1 3.650000e-01    4.076000e+00
 TX4er   TQ2  1 3.400000e-01    6.094000e+00
 TX3er    Q2  1 3.950000e-01    2.658000e+00
 TX3er   SQ2  1 3.650000e-01    3.821000e+00
 TX3er   TQ2  1 3.400000e-01    5.714000e+00
 TX2er    Q2  1 3.950000e-01    2.435000e+00
 TX2er   SQ2  1 3.650000e-01    3.532000e+00
 TX2er   TQ2  1 3.400000e-01    5.151000e+00
 TX1er    Q2  1 3.950000e-01    2.127000e+00
 TX1er   SQ2  1 3.660000e-01    3.119000e+00
 TX1er   TQ2  1 3.520000e-01    4.286000e+00
    P6   Q2p  1 4.700000e-01    4.950000e+00
    P6  SQ2p  1 4.300000e-01    6.531000e+00
    P6  TQ2p  1 3.950000e-01    9.352000e+00
    P5   Q2p  1 4.700000e-01    5.174000e+00
    P5  SQ2p  1 4.300000e-01    6.709000e+00
    P5  TQ2p  1 3.950000e-01    9.542000e+00
    P4   Q2p  1 4.700000e-01    5.166000e+00
    P4  SQ2p  1 4.300000e-01    6.678000e+00
    P4  TQ2p  1 3.950000e-01    9.469000e+00
    P3   Q2p  1 4.700000e-01    4.929000e+00
    P3  SQ2p  1 4.300000e-01    6.454000e+00
    P3  TQ2p  1 3.950000e-01    9.174000e+00
    P2   Q2p  1 4.700000e-01    4.924000e+00
    P2  SQ2p  1 4.300000e-01    6.435000e+00
    P2  TQ2p  1 3.950000e-01    9.130000e+00
    P1   Q2p  1 4.700000e-01    4.730000e+00
    P1  SQ2p  1 4.300000e-01    6.219000e+00
    P1  TQ2p  1 3.950000e-01    8.854000e+00
    N6   Q2p  1 4.700000e-01    4.725000e+00
    N6  SQ2p  1 4.300000e-01    6.201000e+00
    N6  TQ2p  1 3.950000e-01    8.811000e+00
    N5   Q2p  1 4.700000e-01    4.718000e+00
    N5  SQ2p  1 4.300000e-01    6.177000e+00
    N5  TQ2p  1 3.950000e-01    8.757000e+00
    N4   Q2p  1 4.700000e-01    4.710000e+00
    N4  SQ2p  1 4.300000e-01    6.148000e+00
    N4  TQ2p  1 3.950000e-01    8.689000e+00
    N3   Q2p  1 4.700000e-01    4.520000e+00
    N3  SQ2p  1 4.300000e-01    5.929000e+00
    N3  TQ2p  1 3.950000e-01    8.350000e+00
    N2   Q2p  1 4.700000e-01    4.505000e+00
    N2  SQ2p  1 4.300000e-01    5.875000e+00
    N2  TQ2p  1 3.950000e-01    8.225000e+00
    N1   Q2p  1 4.700000e-01    4.483000e+00
    N1  SQ2p  1 4.300000e-01    5.795000e+00
    N1  TQ2p  1 3.950000e-01    8.039000e+00
    C6   Q2p  1 4.700000e-01    4.257000e+00
    C6  SQ2p  1 4.300000e-01    5.452000e+00
    C6  TQ2p  1 3.950000e-01    7.491000e+00
    C5   Q2p  1 4.700000e-01    3.928000e+00
    C5  SQ2p  1 4.300000e-01    4.886000e+00
    C5  TQ2p  1 3.950000e-01    6.856000e+00
    C4   Q2p  1 4.700000e-01    3.734000e+00
    C4  SQ2p  1 4.300000e-01    4.577000e+00
    C4  TQ2p  1 3.950000e-01    6.288000e+00
    C3   Q2p  1 4.700000e-01    3.492000e+00
    C3  SQ2p  1 4.300000e-01    4.072000e+00
    C3  TQ2p  1 3.950000e-01    5.416000e+00
    C2   Q2p  1 4.850000e-01    2.593000e+00
    C2  SQ2p  1 4.430000e-01    2.772000e+00
    C2  TQ2p  1 4.040000e-01    3.839000e+00
    C1   Q2p  1 4.850000e-01    2.509000e+00
    C1  SQ2p  1 4.430000e-01    2.464000e+00
    C1  TQ2p  1 4.040000e-01    3.121000e+00
    X4   Q2p  1 4.700000e-01    4.107000e+00
    X4  SQ2p  1 4.300000e-01    5.308000e+00
    X4  TQ2p  1 3.950000e-01    7.467000e+00
    X3   Q2p  1 4.700000e-01    3.957000e+00
    X3  SQ2p  1 4.300000e-01    4.992000e+00
    X3  TQ2p  1 3.950000e-01    7.101000e+00
    X2   Q2p  1 4.700000e-01    3.758000e+00
    X2  SQ2p  1 4.300000e-01    4.665000e+00
    X2  TQ2p  1 3.950000e-01    6.492000e+00
    X1   Q2p  1 4.700000e-01    3.492000e+00
    X1  SQ2p  1 4.300000e-01    4.072000e+00
    X1  TQ2p  1 3.950000e-01    5.416000e+00
   P6d   Q2p  1 4.700000e-01    4.580000e+00
   P6d  SQ2p  1 4.300000e-01    6.151000e+00
   P6d  TQ2p  1 3.950000e-01    9.112000e+00
   P5d   Q2p  1 4.700000e-01    4.754000e+00
   P5d  SQ2p  1 4.300000e-01    6.309000e+00
   P5d  TQ2p  1 3.950000e-01    9.302000e+00
   P4d   Q2p  1 4.700000e-01    4.746000e+00
   P4d  SQ2p  1 4.300000e-01    6.278000e+00
   P4d  TQ2p  1 3.950000e-01    9.229000e+00
   P3d   Q2p  1 4.700000e-01    4.559000e+00
   P3d  SQ2p  1 4.300000e-01    6.074000e+00
   P3d  TQ2p  1 3.950000e-01    8.934000e+00
   P2d   Q2p  1 4.700000e-01    4.554000e+00
   P2d  SQ2p  1 4.300000e-01    6.055000e+00
   P2d  TQ2p  1 3.950000e-01    8.890000e+00
   P1d   Q2p  1 4.700000e-01    4.550000e+00
   P1d  SQ2p  1 4.300000e-01    6.039000e+00
   P1d  TQ2p  1 3.950000e-01    8.854000e+00
   N6d   Q2p  1 4.700000e-01    4.545000e+00
   N6d  SQ2p  1 4.300000e-01    6.021000e+00
   N6d  TQ2p  1 3.950000e-01    8.811000e+00
   N5d   Q2p  1 4.700000e-01    4.538000e+00
   N5d  SQ2p  1 4.300000e-01    5.997000e+00
   N5d  TQ2p  1 3.950000e-01    8.757000e+00
   N4d   Q2p  1 4.700000e-01    4.530000e+00
   N4d  SQ2p  1 4.300000e-01    5.968000e+00
   N4d  TQ2p  1 3.950000e-01    8.689000e+00
   N3d   Q2p  1 4.700000e-01    4.160000e+00
   N3d  SQ2p  1 4.300000e-01    5.499000e+00
   N3d  TQ2p  1 3.950000e-01    8.110000e+00
   N2d   Q2p  1 4.700000e-01    4.145000e+00
   N2d  SQ2p  1 4.300000e-01    5.445000e+00
   N2d  TQ2p  1 3.950000e-01    7.985000e+00
   N1d   Q2p  1 4.700000e-01    4.123000e+00
   N1d  SQ2p  1 4.300000e-01    5.365000e+00
   N1d  TQ2p  1 3.950000e-01    7.799000e+00
   P6a   Q2p  1 4.700000e-01    5.180000e+00
   P6a  SQ2p  1 4.300000e-01    6.731000e+00
   P6a  TQ2p  1 3.950000e-01    9.832000e+00
   P5a   Q2p  1 4.700000e-01    5.424000e+00
   P5a  SQ2p  1 4.300000e-01    6.939000e+00
   P5a  TQ2p  1 3.950000e-01    1.010200e+01
   P4a   Q2p  1 4.700000e-01    5.416000e+00
   P4a  SQ2p  1 4.300000e-01    6.908000e+00
   P4a  TQ2p  1 3.950000e-01    1.002900e+01
   P3a   Q2p  1 4.700000e-01    5.159000e+00
   P3a  SQ2p  1 4.300000e-01    6.654000e+00
   P3a  TQ2p  1 3.950000e-01    9.654000e+00
   P2a   Q2p  1 4.700000e-01    5.154000e+00
   P2a  SQ2p  1 4.300000e-01    6.635000e+00
   P2a  TQ2p  1 3.950000e-01    9.610000e+00
   P1a   Q2p  1 4.700000e-01    4.920000e+00
   P1a  SQ2p  1 4.300000e-01    6.419000e+00
   P1a  TQ2p  1 3.950000e-01    9.334000e+00
   N6a   Q2p  1 4.700000e-01    4.915000e+00
   N6a  SQ2p  1 4.300000e-01    6.401000e+00
   N6a  TQ2p  1 3.950000e-01    9.291000e+00
   N5a   Q2p  1 4.700000e-01    4.908000e+00
   N5a  SQ2p  1 4.300000e-01    6.377000e+00
   N5a  TQ2p  1 3.950000e-01    9.237000e+00
   N4a   Q2p  1 4.700000e-01    4.900000e+00
   N4a  SQ2p  1 4.300000e-01    6.348000e+00
   N4a  TQ2p  1 3.950000e-01    9.169000e+00
   N3a   Q2p  1 4.700000e-01    4.700000e+00
   N3a  SQ2p  1 4.300000e-01    6.109000e+00
   N3a  TQ2p  1 3.950000e-01    8.840000e+00
   N2a   Q2p  1 4.700000e-01    4.685000e+00
   N2a  SQ2p  1 4.300000e-01    6.055000e+00
   N2a  TQ2p  1 3.950000e-01    8.715000e+00
   N1a   Q2p  1 4.700000e-01    4.663000e+00
   N1a  SQ2p  1 4.300000e-01    5.975000e+00
   N1a  TQ2p  1 3.950000e-01    8.529000e+00
   C6v   Q2p  1 4.700000e-01    3.807000e+00
   C6v  SQ2p  1 4.300000e-01    4.992000e+00
   C6v  TQ2p  1 3.950000e-01    7.101000e+00
   C5v   Q2p  1 4.700000e-01    3.498000e+00
   C5v  SQ2p  1 4.300000e-01    4.286000e+00
   C5v  TQ2p  1 3.950000e-01    6.396000e+00
   C4v   Q2p  1 4.700000e-01    3.284000e+00
   C4v  SQ2p  1 4.300000e-01    3.967000e+00
   C4v  TQ2p  1 3.950000e-01    5.848000e+00
   C3v   Q2p  1 4.700000e-01    3.042000e+00
   C3v  SQ2p  1 4.300000e-01    3.472000e+00
   C3v  TQ2p  1 3.980000e-01    4.989000e+00
   C2v   Q2p  1 6.200000e-01    2.236000e+00
   C2v  SQ2p  1 5.140000e-01    2.223000e+00
   C2v  TQ2p  1 5.110000e-01    3.038000e+00
   C1v   Q2p  1 6.200000e-01    2.170000e+00
   C1v  SQ2p  1 5.140000e-01    1.958000e+00
   C1v  TQ2p  1 5.110000e-01    2.471000e+00
   X4v   Q2p  1 4.700000e-01    3.657000e+00
   X4v  SQ2p  1 4.300000e-01    4.678000e+00
   X4v  TQ2p  1 3.950000e-01    7.077000e+00
   X3v   Q2p  1 4.700000e-01    3.527000e+00
   X3v  SQ2p  1 4.300000e-01    4.392000e+00
   X3v  TQ2p  1 3.950000e-01    6.641000e+00
   X2v   Q2p  1 4.700000e-01    3.308000e+00
   X2v  SQ2p  1 4.300000e-01    4.055000e+00
   X2v  TQ2p  1 3.950000e-01    6.052000e+00
   X1v   Q2p  1 4.700000e-01    3.042000e+00
   X1v  SQ2p  1 4.300000e-01    3.472000e+00
   X1v  TQ2p  1 3.980000e-01    4.989000e+00
   C6e   Q2p  1 4.700000e-01    4.257000e+00
   C6e  SQ2p  1 4.300000e-01    5.452000e+00
   C6e  TQ2p  1 3.950000e-01    7.731000e+00
   C5e   Q2p  1 4.700000e-01    3.928000e+00
   C5e  SQ2p  1 4.300000e-01    4.896000e+00
   C5e  TQ2p  1 3.950000e-01    7.046000e+00
   C4e   Q2p  1 4.700000e-01    3.734000e+00
   C4e  SQ2p  1 4.300000e-01    4.727000e+00
   C4e  TQ2p  1 3.950000e-01    6.488000e+00
   C3e   Q2p  1 4.700000e-01    3.492000e+00
   C3e  SQ2p  1 4.300000e-01    4.072000e+00
   C3e  TQ2p  1 3.950000e-01    5.676000e+00
   C2e   Q2p  1 4.850000e-01    2.593000e+00
   C2e  SQ2p  1 4.430000e-01    2.772000e+00
   C2e  TQ2p  1 4.010000e-01    4.014000e+00
   C1e   Q2p  1 4.850000e-01    2.509000e+00
   C1e  SQ2p  1 4.430000e-01    2.464000e+00
   C1e  TQ2p  1 4.010000e-01    3.292000e+00
   X4e   Q2p  1 4.700000e-01    4.107000e+00
   X4e  SQ2p  1 4.300000e-01    5.308000e+00
   X4e  TQ2p  1 3.950000e-01    7.667000e+00
   X3e   Q2p  1 4.700000e-01    3.957000e+00
   X3e  SQ2p  1 4.300000e-01    5.002000e+00
   X3e  TQ2p  1 3.950000e-01    7.291000e+00
   X2e   Q2p  1 4.700000e-01    3.758000e+00
   X2e  SQ2p  1 4.300000e-01    4.815000e+00
   X2e  TQ2p  1 3.950000e-01    6.692000e+00
   X1e   Q2p  1 4.700000e-01    3.492000e+00
   X1e  SQ2p  1 4.300000e-01    4.072000e+00
   X1e  TQ2p  1 3.950000e-01    5.676000e+00
   P6q   Q2p  1 4.700000e-01    5.690000e+00
   P6q  SQ2p  1 4.300000e-01    7.241000e+00
   P6q  TQ2p  1 3.950000e-01    1.015200e+01
   P5q   Q2p  1 4.700000e-01    5.934000e+00
   P5q  SQ2p  1 4.300000e-01    7.459000e+00
   P5q  TQ2p  1 3.950000e-01    1.041200e+01
   P4q   Q2p  1 4.700000e-01    5.926000e+00
   P4q  SQ2p  1 4.300000e-01    7.428000e+00
   P4q  TQ2p  1 3.950000e-01    1.033900e+01
   P3q   Q2p  1 4.700000e-01    5.669000e+00
   P3q  SQ2p  1 4.300000e-01    7.164000e+00
   P3q  TQ2p  1 3.950000e-01    9.974000e+00
   P2q   Q2p  1 4.700000e-01    5.664000e+00
   P2q  SQ2p  1 4.300000e-01    7.145000e+00
   P2q  TQ2p  1 3.950000e-01    9.930000e+00
   P1q   Q2p  1 4.700000e-01    5.400000e+00
   P1q  SQ2p  1 4.300000e-01    6.849000e+00
   P1q  TQ2p  1 3.950000e-01    9.574000e+00
   N6q   Q2p  1 4.700000e-01    5.395000e+00
   N6q  SQ2p  1 4.300000e-01    6.831000e+00
   N6q  TQ2p  1 3.950000e-01    9.531000e+00
   N5q   Q2p  1 4.700000e-01    5.388000e+00
   N5q  SQ2p  1 4.300000e-01    6.807000e+00
   N5q  TQ2p  1 3.950000e-01    9.477000e+00
   N4q   Q2p  1 4.700000e-01    5.380000e+00
   N4q  SQ2p  1 4.300000e-01    6.778000e+00
   N4q  TQ2p  1 3.950000e-01    9.409000e+00
   N3q   Q2p  1 4.700000e-01    5.120000e+00
   N3q  SQ2p  1 4.300000e-01    6.509000e+00
   N3q  TQ2p  1 3.950000e-01    9.080000e+00
   N2q   Q2p  1 4.700000e-01    5.105000e+00
   N2q  SQ2p  1 4.300000e-01    6.455000e+00
   N2q  TQ2p  1 3.950000e-01    8.955000e+00
   N1q   Q2p  1 4.700000e-01    5.083000e+00
   N1q  SQ2p  1 4.300000e-01    6.375000e+00
   N1q  TQ2p  1 3.950000e-01    8.769000e+00
   C6q   Q2p  1 4.700000e-01    4.817000e+00
   C6q  SQ2p  1 4.300000e-01    6.042000e+00
   C6q  TQ2p  1 3.950000e-01    8.221000e+00
   C5q   Q2p  1 4.700000e-01    4.418000e+00
   C5q  SQ2p  1 4.300000e-01    5.556000e+00
   C5q  TQ2p  1 3.950000e-01    7.486000e+00
   C4q   Q2p  1 4.700000e-01    4.184000e+00
   C4q  SQ2p  1 4.300000e-01    5.187000e+00
   C4q  TQ2p  1 3.950000e-01    6.878000e+00
   C3q   Q2p  1 4.700000e-01    3.942000e+00
   C3q  SQ2p  1 4.300000e-01    4.702000e+00
   C3q  TQ2p  1 3.950000e-01    6.066000e+00
   C2q   Q2p  1 4.700000e-01    3.154000e+00
   C2q  SQ2p  1 4.300000e-01    3.491000e+00
   C2q  TQ2p  1 3.980000e-01    4.504000e+00
   C1q   Q2p  1 4.700000e-01    3.067000e+00
   C1q  SQ2p  1 4.300000e-01    3.173000e+00
   C1q  TQ2p  1 3.980000e-01    3.776000e+00
   X4q   Q2p  1 4.700000e-01    4.647000e+00
   X4q  SQ2p  1 4.300000e-01    5.918000e+00
   X4q  TQ2p  1 3.950000e-01    8.157000e+00
   X3q   Q2p  1 4.700000e-01    4.447000e+00
   X3q  SQ2p  1 4.300000e-01    5.662000e+00
   X3q  TQ2p  1 3.950000e-01    7.731000e+00
   X2q   Q2p  1 4.700000e-01    4.208000e+00
   X2q  SQ2p  1 4.300000e-01    5.275000e+00
   X2q  TQ2p  1 3.950000e-01    7.082000e+00
   X1q   Q2p  1 4.700000e-01    3.942000e+00
   X1q  SQ2p  1 4.300000e-01    4.702000e+00
   X1q  TQ2p  1 3.950000e-01    6.066000e+00
  P6dq   Q2p  1 4.700000e-01    5.180000e+00
  P6dq  SQ2p  1 4.300000e-01    6.731000e+00
  P6dq  TQ2p  1 3.950000e-01    9.832000e+00
  P5dq   Q2p  1 4.700000e-01    5.424000e+00
  P5dq  SQ2p  1 4.300000e-01    6.939000e+00
  P5dq  TQ2p  1 3.950000e-01    1.010200e+01
  P4dq   Q2p  1 4.700000e-01    5.416000e+00
  P4dq  SQ2p  1 4.300000e-01    6.908000e+00
  P4dq  TQ2p  1 3.950000e-01    1.002900e+01
  P3dq   Q2p  1 4.700000e-01    5.159000e+00
  P3dq  SQ2p  1 4.300000e-01    6.654000e+00
  P3dq  TQ2p  1 3.950000e-01    9.654000e+00
  P2dq   Q2p  1 4.700000e-01    5.154000e+00
  P2dq  SQ2p  1 4.300000e-01    6.635000e+00
  P2dq  TQ2p  1 3.950000e-01    9.610000e+00
  P1dq   Q2p  1 4.700000e-01    5.150000e+00
  P1dq  SQ2p  1 4.300000e-01    6.619000e+00
  P1dq  TQ2p  1 3.950000e-01    9.574000e+00
  N6dq   Q2p  1 4.700000e-01    5.145000e+00
  N6dq  SQ2p  1 4.300000e-01    6.601000e+00
  N6dq  TQ2p  1 3.950000e-01    9.531000e+00
  N5dq   Q2p  1 4.700000e-01    5.138000e+00
  N5dq  SQ2p  1 4.300000e-01    6.577000e+00
  N5dq  TQ2p  1 3.950000e-01    9.477000e+00
  N4dq   Q2p  1 4.700000e-01    5.130000e+00
  N4dq  SQ2p  1 4.300000e-01    6.548000e+00
  N4dq  TQ2p  1 3.950000e-01    9.409000e+00
  N3dq   Q2p  1 4.700000e-01    4.700000e+00
  N3dq  SQ2p  1 4.300000e-01    6.109000e+00
  N3dq  TQ2p  1 3.950000e-01    8.840000e+00
  N2dq   Q2p  1 4.700000e-01    4.685000e+00
  N2dq  SQ2p  1 4.300000e-01    6.055000e+00
  N2dq  TQ2p  1 3.950000e-01    8.715000e+00
  N1dq   Q2p  1 4.700000e-01    4.663000e+00
  N1dq  SQ2p  1 4.300000e-01    5.975000e+00
  N1dq  TQ2p  1 3.950000e-01    8.529000e+00
  P6aq   Q2p  1 4.700000e-01    5.940000e+00
  P6aq  SQ2p  1 4.300000e-01    7.481000e+00
  P6aq  TQ2p  1 3.950000e-01    1.079200e+01
  P5aq   Q2p  1 4.700000e-01    6.184000e+00
  P5aq  SQ2p  1 4.300000e-01    7.749000e+00
  P5aq  TQ2p  1 3.950000e-01    1.114200e+01
  P4aq   Q2p  1 4.700000e-01    6.176000e+00
  P4aq  SQ2p  1 4.300000e-01    7.718000e+00
  P4aq  TQ2p  1 3.950000e-01    1.106900e+01
  P3aq   Q2p  1 4.700000e-01    5.919000e+00
  P3aq  SQ2p  1 4.300000e-01    7.404000e+00
  P3aq  TQ2p  1 3.950000e-01    1.061400e+01
  P2aq   Q2p  1 4.700000e-01    5.914000e+00
  P2aq  SQ2p  1 4.300000e-01    7.385000e+00
  P2aq  TQ2p  1 3.950000e-01    1.057000e+01
  P1aq   Q2p  1 4.700000e-01    5.660000e+00
  P1aq  SQ2p  1 4.300000e-01    7.129000e+00
  P1aq  TQ2p  1 3.950000e-01    1.020400e+01
  N6aq   Q2p  1 4.700000e-01    5.655000e+00
  N6aq  SQ2p  1 4.300000e-01    7.111000e+00
  N6aq  TQ2p  1 3.950000e-01    1.016100e+01
  N5aq   Q2p  1 4.700000e-01    5.648000e+00
  N5aq  SQ2p  1 4.300000e-01    7.087000e+00
  N5aq  TQ2p  1 3.950000e-01    1.010700e+01
  N4aq   Q2p  1 4.700000e-01    5.640000e+00
  N4aq  SQ2p  1 4.300000e-01    7.058000e+00
  N4aq  TQ2p  1 3.950000e-01    1.003900e+01
  N3aq   Q2p  1 4.700000e-01    5.370000e+00
  N3aq  SQ2p  1 4.300000e-01    6.739000e+00
  N3aq  TQ2p  1 3.950000e-01    9.640000e+00
  N2aq   Q2p  1 4.700000e-01    5.355000e+00
  N2aq  SQ2p  1 4.300000e-01    6.685000e+00
  N2aq  TQ2p  1 3.950000e-01    9.515000e+00
  N1aq   Q2p  1 4.700000e-01    5.333000e+00
  N1aq  SQ2p  1 4.300000e-01    6.605000e+00
  N1aq  TQ2p  1 3.950000e-01    9.329000e+00
  C6vq   Q2p  1 4.700000e-01    4.257000e+00
  C6vq  SQ2p  1 4.300000e-01    5.452000e+00
  C6vq  TQ2p  1 3.950000e-01    7.731000e+00
  C5vq   Q2p  1 4.700000e-01    3.928000e+00
  C5vq  SQ2p  1 4.300000e-01    4.896000e+00
  C5vq  TQ2p  1 3.950000e-01    7.046000e+00
  C4vq   Q2p  1 4.700000e-01    3.734000e+00
  C4vq  SQ2p  1 4.300000e-01    4.727000e+00
  C4vq  TQ2p  1 3.950000e-01    6.488000e+00
  C3vq   Q2p  1 4.700000e-01    3.492000e+00
  C3vq  SQ2p  1 4.300000e-01    4.072000e+00
  C3vq  TQ2p  1 3.950000e-01    5.676000e+00
  C2vq   Q2p  1 4.850000e-01    2.593000e+00
  C2vq  SQ2p  1 4.430000e-01    2.772000e+00
  C2vq  TQ2p  1 4.010000e-01    4.014000e+00
  C1vq   Q2p  1 4.850000e-01    2.509000e+00
  C1vq  SQ2p  1 4.430000e-01    2.464000e+00
  C1vq  TQ2p  1 4.010000e-01    3.292000e+00
  X4vq   Q2p  1 4.700000e-01    4.107000e+00
  X4vq  SQ2p  1 4.300000e-01    5.308000e+00
  X4vq  TQ2p  1 3.950000e-01    7.667000e+00
  X3vq   Q2p  1 4.700000e-01    3.957000e+00
  X3vq  SQ2p  1 4.300000e-01    5.002000e+00
  X3vq  TQ2p  1 3.950000e-01    7.291000e+00
  X2vq   Q2p  1 4.700000e-01    3.758000e+00
  X2vq  SQ2p  1 4.300000e-01    4.815000e+00
  X2vq  TQ2p  1 3.950000e-01    6.692000e+00
  X1vq   Q2p  1 4.700000e-01    3.492000e+00
  X1vq  SQ2p  1 4.300000e-01    4.072000e+00
  X1vq  TQ2p  1 3.950000e-01    5.676000e+00
  C6eq   Q2p  1 4.700000e-01    4.817000e+00
  C6eq  SQ2p  1 4.300000e-01    6.042000e+00
  C6eq  TQ2p  1 3.950000e-01    8.461000e+00
  C5eq   Q2p  1 4.700000e-01    4.418000e+00
  C5eq  SQ2p  1 4.300000e-01    5.556000e+00
  C5eq  TQ2p  1 3.950000e-01    7.736000e+00
  C4eq   Q2p  1 4.700000e-01    4.184000e+00
  C4eq  SQ2p  1 4.300000e-01    5.187000e+00
  C4eq  TQ2p  1 3.950000e-01    7.118000e+00
  C3eq   Q2p  1 4.700000e-01    3.942000e+00
  C3eq  SQ2p  1 4.300000e-01    4.702000e+00
  C3eq  TQ2p  1 3.950000e-01    6.266000e+00
  C2eq   Q2p  1 4.700000e-01    3.154000e+00
  C2eq  SQ2p  1 4.300000e-01    3.491000e+00
  C2eq  TQ2p  1 3.950000e-01    4.747000e+00
  C1eq   Q2p  1 4.700000e-01    3.067000e+00
  C1eq  SQ2p  1 4.300000e-01    3.173000e+00
  C1eq  TQ2p  1 3.950000e-01    4.014000e+00
  X4eq   Q2p  1 4.700000e-01    4.647000e+00
  X4eq  SQ2p  1 4.300000e-01    5.918000e+00
  X4eq  TQ2p  1 3.950000e-01    8.397000e+00
  X3eq   Q2p  1 4.700000e-01    4.447000e+00
  X3eq  SQ2p  1 4.300000e-01    5.662000e+00
  X3eq  TQ2p  1 3.950000e-01    7.981000e+00
  X2eq   Q2p  1 4.700000e-01    4.208000e+00
  X2eq  SQ2p  1 4.300000e-01    5.275000e+00
  X2eq  TQ2p  1 3.950000e-01    7.322000e+00
  X1eq   Q2p  1 4.700000e-01    3.942000e+00
  X1eq  SQ2p  1 4.300000e-01    4.702000e+00
  X1eq  TQ2p  1 3.950000e-01    6.266000e+00
   P6h   Q2p  1 4.700000e-01    4.950000e+00
   P6h  SQ2p  1 4.300000e-01    6.531000e+00
   P6h  TQ2p  1 3.950000e-01    9.352000e+00
   P5h   Q2p  1 4.700000e-01    5.174000e+00
   P5h  SQ2p  1 4.300000e-01    6.709000e+00
   P5h  TQ2p  1 3.950000e-01    9.542000e+00
   P4h   Q2p  1 4.700000e-01    5.166000e+00
   P4h  SQ2p  1 4.300000e-01    6.678000e+00
   P4h  TQ2p  1 3.950000e-01    9.469000e+00
   P3h   Q2p  1 4.700000e-01    4.929000e+00
   P3h  SQ2p  1 4.300000e-01    6.454000e+00
   P3h  TQ2p  1 3.950000e-01    9.174000e+00
   P2h   Q2p  1 4.700000e-01    4.924000e+00
   P2h  SQ2p  1 4.300000e-01    6.435000e+00
   P2h  TQ2p  1 3.950000e-01    9.130000e+00
   P1h   Q2p  1 4.700000e-01    4.730000e+00
   P1h  SQ2p  1 4.300000e-01    6.219000e+00
   P1h  TQ2p  1 3.950000e-01    8.854000e+00
   N6h   Q2p  1 4.700000e-01    4.725000e+00
   N6h  SQ2p  1 4.300000e-01    6.201000e+00
   N6h  TQ2p  1 3.950000e-01    8.811000e+00
   N5h   Q2p  1 4.700000e-01    4.718000e+00
   N5h  SQ2p  1 4.300000e-01    6.177000e+00
   N5h  TQ2p  1 3.950000e-01    8.757000e+00
   N4h   Q2p  1 4.700000e-01    4.710000e+00
   N4h  SQ2p  1 4.300000e-01    6.148000e+00
   N4h  TQ2p  1 3.950000e-01    8.689000e+00
   N3h   Q2p  1 4.700000e-01    4.520000e+00
   N3h  SQ2p  1 4.300000e-01    5.929000e+00
   N3h  TQ2p  1 3.950000e-01    8.350000e+00
   N2h   Q2p  1 4.700000e-01    4.505000e+00
   N2h  SQ2p  1 4.300000e-01    5.875000e+00
   N2h  TQ2p  1 3.950000e-01    8.225000e+00
   N1h   Q2p  1 4.700000e-01    4.483000e+00
   N1h  SQ2p  1 4.300000e-01    5.795000e+00
   N1h  TQ2p  1 3.950000e-01    8.039000e+00
   C6h   Q2p  1 4.700000e-01    4.257000e+00
   C6h  SQ2p  1 4.300000e-01    5.452000e+00
   C6h  TQ2p  1 3.950000e-01    7.491000e+00
   C5h   Q2p  1 4.700000e-01    3.928000e+00
   C5h  SQ2p  1 4.300000e-01    4.886000e+00
   C5h  TQ2p  1 3.950000e-01    6.856000e+00
   C4h   Q2p  1 4.700000e-01    3.734000e+00
   C4h  SQ2p  1 4.300000e-01    4.577000e+00
   C4h  TQ2p  1 3.950000e-01    6.288000e+00
   C3h   Q2p  1 4.700000e-01    3.492000e+00
   C3h  SQ2p  1 4.300000e-01    4.072000e+00
   C3h  TQ2p  1 3.950000e-01    5.416000e+00
   C2h   Q2p  1 4.850000e-01    2.593000e+00
   C2h  SQ2p  1 4.430000e-01    2.772000e+00
   C2h  TQ2p  1 4.040000e-01    3.839000e+00
   C1h   Q2p  1 4.850000e-01    2.509000e+00
   C1h  SQ2p  1 4.430000e-01    2.464000e+00
   C1h  TQ2p  1 4.040000e-01    3.121000e+00
   X4h   Q2p  1 4.700000e-01    4.107000e+00
   X4h  SQ2p  1 4.300000e-01    5.308000e+00
   X4h  TQ2p  1 3.950000e-01    7.467000e+00
   X3h   Q2p  1 4.700000e-01    3.957000e+00
   X3h  SQ2p  1 4.300000e-01    4.992000e+00
   X3h  TQ2p  1 3.950000e-01    7.101000e+00
   X2h   Q2p  1 4.700000e-01    3.758000e+00
   X2h  SQ2p  1 4.300000e-01    4.665000e+00
   X2h  TQ2p  1 3.950000e-01    6.492000e+00
   X1h   Q2p  1 4.700000e-01    3.492000e+00
   X1h  SQ2p  1 4.300000e-01    4.072000e+00
   X1h  TQ2p  1 3.950000e-01    5.416000e+00
  P6dh   Q2p  1 4.700000e-01    4.580000e+00
  P6dh  SQ2p  1 4.300000e-01    6.151000e+00
  P6dh  TQ2p  1 3.950000e-01    9.112000e+00
  P5dh   Q2p  1 4.700000e-01    4.754000e+00
  P5dh  SQ2p  1 4.300000e-01    6.309000e+00
  P5dh  TQ2p  1 3.950000e-01    9.302000e+00
  P4dh   Q2p  1 4.700000e-01    4.746000e+00
  P4dh  SQ2p  1 4.300000e-01    6.278000e+00
  P4dh  TQ2p  1 3.950000e-01    9.229000e+00
  P3dh   Q2p  1 4.700000e-01    4.559000e+00
  P3dh  SQ2p  1 4.300000e-01    6.074000e+00
  P3dh  TQ2p  1 3.950000e-01    8.934000e+00
  P2dh   Q2p  1 4.700000e-01    4.554000e+00
  P2dh  SQ2p  1 4.300000e-01    6.055000e+00
  P2dh  TQ2p  1 3.950000e-01    8.890000e+00
  P1dh   Q2p  1 4.700000e-01    4.550000e+00
  P1dh  SQ2p  1 4.300000e-01    6.039000e+00
  P1dh  TQ2p  1 3.950000e-01    8.854000e+00
  N6dh   Q2p  1 4.700000e-01    4.545000e+00
  N6dh  SQ2p  1 4.300000e-01    6.021000e+00
  N6dh  TQ2p  1 3.950000e-01    8.811000e+00
  N5dh   Q2p  1 4.700000e-01    4.538000e+00
  N5dh  SQ2p  1 4.300000e-01    5.997000e+00
  N5dh  TQ2p  1 3.950000e-01    8.757000e+00
  N4dh   Q2p  1 4.700000e-01    4.530000e+00
  N4dh  SQ2p  1 4.300000e-01    5.968000e+00
  N4dh  TQ2p  1 3.950000e-01    8.689000e+00
  N3dh   Q2p  1 4.700000e-01    4.160000e+00
  N3dh  SQ2p  1 4.300000e-01    5.499000e+00
  N3dh  TQ2p  1 3.950000e-01    8.110000e+00
  N2dh   Q2p  1 4.700000e-01    4.145000e+00
  N2dh  SQ2p  1 4.300000e-01    5.445000e+00
  N2dh  TQ2p  1 3.950000e-01    7.985000e+00
  N1dh   Q2p  1 4.700000e-01    4.123000e+00
  N1dh  SQ2p  1 4.300000e-01    5.365000e+00
  N1dh  TQ2p  1 3.950000e-01    7.799000e+00
  P6ah   Q2p  1 4.700000e-01    5.180000e+00
  P6ah  SQ2p  1 4.300000e-01    6.731000e+00
  P6ah  TQ2p  1 3.950000e-01    9.832000e+00
  P5ah   Q2p  1 4.700000e-01    5.424000e+00
  P5ah  SQ2p  1 4.300000e-01    6.939000e+00
  P5ah  TQ2p  1 3.950000e-01    1.010200e+01
  P4ah   Q2p  1 4.700000e-01    5.416000e+00
  P4ah  SQ2p  1 4.300000e-01    6.908000e+00
  P4ah  TQ2p  1 3.950000e-01    1.002900e+01
  P3ah   Q2p  1 4.700000e-01    5.159000e+00
  P3ah  SQ2p  1 4.300000e-01    6.654000e+00
  P3ah  TQ2p  1 3.950000e-01    9.654000e+00
  P2ah   Q2p  1 4.700000e-01    5.154000e+00
  P2ah  SQ2p  1 4.300000e-01    6.635000e+00
  P2ah  TQ2p  1 3.950000e-01    9.610000e+00
  P1ah   Q2p  1 4.700000e-01    4.920000e+00
  P1ah  SQ2p  1 4.300000e-01    6.419000e+00
  P1ah  TQ2p  1 3.950000e-01    9.334000e+00
  N6ah   Q2p  1 4.700000e-01    4.915000e+00
  N6ah  SQ2p  1 4.300000e-01    6.401000e+00
  N6ah  TQ2p  1 3.950000e-01    9.291000e+00
  N5ah   Q2p  1 4.700000e-01    4.908000e+00
  N5ah  SQ2p  1 4.300000e-01    6.377000e+00
  N5ah  TQ2p  1 3.950000e-01    9.237000e+00
  N4ah   Q2p  1 4.700000e-01    4.900000e+00
  N4ah  SQ2p  1 4.300000e-01    6.348000e+00
  N4ah  TQ2p  1 3.950000e-01    9.169000e+00
  N3ah   Q2p  1 4.700000e-01    4.700000e+00
  N3ah  SQ2p  1 4.300000e-01    6.109000e+00
  N3ah  TQ2p  1 3.950000e-01    8.840000e+00
  N2ah   Q2p  1 4.700000e-01    4.685000e+00
  N2ah  SQ2p  1 4.300000e-01    6.055000e+00
  N2ah  TQ2p  1 3.950000e-01    8.715000e+00
  N1ah   Q2p  1 4.700000e-01    4.663000e+00
  N1ah  SQ2p  1 4.300000e-01    5.975000e+00
  N1ah  TQ2p  1 3.950000e-01    8.529000e+00
  C6vh   Q2p  1 4.700000e-01    3.807000e+00
  C6vh  SQ2p  1 4.300000e-01    4.992000e+00
  C6vh  TQ2p  1 3.950000e-01    7.101000e+00
  C5vh   Q2p  1 4.700000e-01    3.498000e+00
  C5vh  SQ2p  1 4.300000e-01    4.286000e+00
  C5vh  TQ2p  1 3.950000e-01    6.396000e+00
  C4vh   Q2p  1 4.700000e-01    3.284000e+00
  C4vh  SQ2p  1 4.300000e-01    3.967000e+00
  C4vh  TQ2p  1 3.950000e-01    5.848000e+00
  C3vh   Q2p  1 4.700000e-01    3.042000e+00
  C3vh  SQ2p  1 4.300000e-01    3.472000e+00
  C3vh  TQ2p  1 3.980000e-01    4.989000e+00
  C2vh   Q2p  1 6.200000e-01    2.236000e+00
  C2vh  SQ2p  1 5.140000e-01    2.223000e+00
  C2vh  TQ2p  1 5.110000e-01    3.038000e+00
  C1vh   Q2p  1 6.200000e-01    2.170000e+00
  C1vh  SQ2p  1 5.140000e-01    1.958000e+00
  C1vh  TQ2p  1 5.110000e-01    2.471000e+00
  X4vh   Q2p  1 4.700000e-01    3.657000e+00
  X4vh  SQ2p  1 4.300000e-01    4.678000e+00
  X4vh  TQ2p  1 3.950000e-01    7.077000e+00
  X3vh   Q2p  1 4.700000e-01    3.527000e+00
  X3vh  SQ2p  1 4.300000e-01    4.392000e+00
  X3vh  TQ2p  1 3.950000e-01    6.641000e+00
  X2vh   Q2p  1 4.700000e-01    3.308000e+00
  X2vh  SQ2p  1 4.300000e-01    4.055000e+00
  X2vh  TQ2p  1 3.950000e-01    6.052000e+00
  X1vh   Q2p  1 4.700000e-01    3.042000e+00
  X1vh  SQ2p  1 4.300000e-01    3.472000e+00
  X1vh  TQ2p  1 3.980000e-01    4.989000e+00
  C6eh   Q2p  1 4.700000e-01    4.257000e+00
  C6eh  SQ2p  1 4.300000e-01    5.452000e+00
  C6eh  TQ2p  1 3.950000e-01    7.731000e+00
  C5eh   Q2p  1 4.700000e-01    3.928000e+00
  C5eh  SQ2p  1 4.300000e-01    4.896000e+00
  C5eh  TQ2p  1 3.950000e-01    7.046000e+00
  C4eh   Q2p  1 4.700000e-01    3.734000e+00
  C4eh  SQ2p  1 4.300000e-01    4.727000e+00
  C4eh  TQ2p  1 3.950000e-01    6.488000e+00
  C3eh   Q2p  1 4.700000e-01    3.492000e+00
  C3eh  SQ2p  1 4.300000e-01    4.072000e+00
  C3eh  TQ2p  1 3.950000e-01    5.676000e+00
  C2eh   Q2p  1 4.850000e-01    2.593000e+00
  C2eh  SQ2p  1 4.430000e-01    2.772000e+00
  C2eh  TQ2p  1 4.010000e-01    4.014000e+00
  C1eh   Q2p  1 4.850000e-01    2.509000e+00
  C1eh  SQ2p  1 4.430000e-01    2.464000e+00
  C1eh  TQ2p  1 4.010000e-01    3.292000e+00
  X4eh   Q2p  1 4.700000e-01    4.107000e+00
  X4eh  SQ2p  1 4.300000e-01    5.308000e+00
  X4eh  TQ2p  1 3.950000e-01    7.667000e+00
  X3eh   Q2p  1 4.700000e-01    3.957000e+00
  X3eh  SQ2p  1 4.300000e-01    5.002000e+00
  X3eh  TQ2p  1 3.950000e-01    7.291000e+00
  X2eh   Q2p  1 4.700000e-01    3.758000e+00
  X2eh  SQ2p  1 4.300000e-01    4.815000e+00
  X2eh  TQ2p  1 3.950000e-01    6.692000e+00
  X1eh   Q2p  1 4.700000e-01    3.492000e+00
  X1eh  SQ2p  1 4.300000e-01    4.072000e+00
  X1eh  TQ2p  1 3.950000e-01    5.676000e+00
   P6r   Q2p  1 4.700000e-01    4.950000e+00
   P6r  SQ2p  1 4.300000e-01    6.531000e+00
   P6r  TQ2p  1 3.950000e-01    9.352000e+00
   P5r   Q2p  1 4.700000e-01    5.174000e+00
   P5r  SQ2p  1 4.300000e-01    6.709000e+00
   P5r  TQ2p  1 3.950000e-01    9.542000e+00
   P4r   Q2p  1 4.700000e-01    5.166000e+00
   P4r  SQ2p  1 4.300000e-01    6.678000e+00
   P4r  TQ2p  1 3.950000e-01    9.469000e+00
   P3r   Q2p  1 4.700000e-01    4.929000e+00
   P3r  SQ2p  1 4.300000e-01    6.454000e+00
   P3r  TQ2p  1 3.950000e-01    9.174000e+00
   P2r   Q2p  1 4.700000e-01    4.924000e+00
   P2r  SQ2p  1 4.300000e-01    6.435000e+00
   P2r  TQ2p  1 3.950000e-01    9.130000e+00
   P1r   Q2p  1 4.700000e-01    4.730000e+00
   P1r  SQ2p  1 4.300000e-01    6.219000e+00
   P1r  TQ2p  1 3.950000e-01    8.854000e+00
   N6r   Q2p  1 4.700000e-01    4.725000e+00
   N6r  SQ2p  1 4.300000e-01    6.201000e+00
   N6r  TQ2p  1 3.950000e-01    8.811000e+00
   N5r   Q2p  1 4.700000e-01    4.718000e+00
   N5r  SQ2p  1 4.300000e-01    6.177000e+00
   N5r  TQ2p  1 3.950000e-01    8.757000e+00
   N4r   Q2p  1 4.700000e-01    4.710000e+00
   N4r  SQ2p  1 4.300000e-01    6.148000e+00
   N4r  TQ2p  1 3.950000e-01    8.689000e+00
   N3r   Q2p  1 4.700000e-01    4.520000e+00
   N3r  SQ2p  1 4.300000e-01    5.929000e+00
   N3r  TQ2p  1 3.950000e-01    8.350000e+00
   N2r   Q2p  1 4.700000e-01    4.505000e+00
   N2r  SQ2p  1 4.300000e-01    5.875000e+00
   N2r  TQ2p  1 3.950000e-01    8.225000e+00
   N1r   Q2p  1 4.700000e-01    4.483000e+00
   N1r  SQ2p  1 4.300000e-01    5.795000e+00
   N1r  TQ2p  1 3.950000e-01    8.039000e+00
   C6r   Q2p  1 4.700000e-01    4.257000e+00
   C6r  SQ2p  1 4.300000e-01    5.452000e+00
   C6r  TQ2p  1 3.950000e-01    7.491000e+00
   C5r   Q2p  1 4.700000e-01    3.928000e+00
   C5r  SQ2p  1 4.300000e-01    4.886000e+00
   C5r  TQ2p  1 3.950000e-01    6.856000e+00
   C4r   Q2p  1 4.700000e-01    3.734000e+00
   C4r  SQ2p  1 4.300000e-01    4.577000e+00
   C4r  TQ2p  1 3.950000e-01    6.288000e+00
   C3r   Q2p  1 4.700000e-01    3.492000e+00
   C3r  SQ2p  1 4.300000e-01    4.072000e+00
   C3r  TQ2p  1 3.950000e-01    5.416000e+00
   C2r   Q2p  1 4.850000e-01    2.593000e+00
   C2r  SQ2p  1 4.430000e-01    2.772000e+00
   C2r  TQ2p  1 4.040000e-01    3.839000e+00
   C1r   Q2p  1 4.850000e-01    2.509000e+00
   C1r  SQ2p  1 4.430000e-01    2.464000e+00
   C1r  TQ2p  1 4.040000e-01    3.121000e+00
   X4r   Q2p  1 4.700000e-01    4.107000e+00
   X4r  SQ2p  1 4.300000e-01    5.308000e+00
   X4r  TQ2p  1 3.950000e-01    7.467000e+00
   X3r   Q2p  1 4.700000e-01    3.957000e+00
   X3r  SQ2p  1 4.300000e-01    4.992000e+00
   X3r  TQ2p  1 3.950000e-01    7.101000e+00
   X2r   Q2p  1 4.700000e-01    3.758000e+00
   X2r  SQ2p  1 4.300000e-01    4.665000e+00
   X2r  TQ2p  1 3.950000e-01    6.492000e+00
   X1r   Q2p  1 4.700000e-01    3.492000e+00
   X1r  SQ2p  1 4.300000e-01    4.072000e+00
   X1r  TQ2p  1 3.950000e-01    5.416000e+00
  P6dr   Q2p  1 4.700000e-01    4.580000e+00
  P6dr  SQ2p  1 4.300000e-01    6.151000e+00
  P6dr  TQ2p  1 3.950000e-01    9.112000e+00
  P5dr   Q2p  1 4.700000e-01    4.754000e+00
  P5dr  SQ2p  1 4.300000e-01    6.309000e+00
  P5dr  TQ2p  1 3.950000e-01    9.302000e+00
  P4dr   Q2p  1 4.700000e-01    4.746000e+00
  P4dr  SQ2p  1 4.300000e-01    6.278000e+00
  P4dr  TQ2p  1 3.950000e-01    9.229000e+00
  P3dr   Q2p  1 4.700000e-01    4.559000e+00
  P3dr  SQ2p  1 4.300000e-01    6.074000e+00
  P3dr  TQ2p  1 3.950000e-01    8.934000e+00
  P2dr   Q2p  1 4.700000e-01    4.554000e+00
  P2dr  SQ2p  1 4.300000e-01    6.055000e+00
  P2dr  TQ2p  1 3.950000e-01    8.890000e+00
  P1dr   Q2p  1 4.700000e-01    4.550000e+00
  P1dr  SQ2p  1 4.300000e-01    6.039000e+00
  P1dr  TQ2p  1 3.950000e-01    8.854000e+00
  N6dr   Q2p  1 4.700000e-01    4.545000e+00
  N6dr  SQ2p  1 4.300000e-01    6.021000e+00
  N6dr  TQ2p  1 3.950000e-01    8.811000e+00
  N5dr   Q2p  1 4.700000e-01    4.538000e+00
  N5dr  SQ2p  1 4.300000e-01    5.997000e+00
  N5dr  TQ2p  1 3.950000e-01    8.757000e+00
  N4dr   Q2p  1 4.700000e-01    4.530000e+00
  N4dr  SQ2p  1 4.300000e-01    5.968000e+00
  N4dr  TQ2p  1 3.950000e-01    8.689000e+00
  N3dr   Q2p  1 4.700000e-01    4.160000e+00
  N3dr  SQ2p  1 4.300000e-01    5.499000e+00
  N3dr  TQ2p  1 3.950000e-01    8.110000e+00
  N2dr   Q2p  1 4.700000e-01    4.145000e+00
  N2dr  SQ2p  1 4.300000e-01    5.445000e+00
  N2dr  TQ2p  1 3.950000e-01    7.985000e+00
  N1dr   Q2p  1 4.700000e-01    4.123000e+00
  N1dr  SQ2p  1 4.300000e-01    5.365000e+00
  N1dr  TQ2p  1 3.950000e-01    7.799000e+00
  P6ar   Q2p  1 4.700000e-01    5.180000e+00
  P6ar  SQ2p  1 4.300000e-01    6.731000e+00
  P6ar  TQ2p  1 3.950000e-01    9.832000e+00
  P5ar   Q2p  1 4.700000e-01    5.424000e+00
  P5ar  SQ2p  1 4.300000e-01    6.939000e+00
  P5ar  TQ2p  1 3.950000e-01    1.010200e+01
  P4ar   Q2p  1 4.700000e-01    5.416000e+00
  P4ar  SQ2p  1 4.300000e-01    6.908000e+00
  P4ar  TQ2p  1 3.950000e-01    1.002900e+01
  P3ar   Q2p  1 4.700000e-01    5.159000e+00
  P3ar  SQ2p  1 4.300000e-01    6.654000e+00
  P3ar  TQ2p  1 3.950000e-01    9.654000e+00
  P2ar   Q2p  1 4.700000e-01    5.154000e+00
  P2ar  SQ2p  1 4.300000e-01    6.635000e+00
  P2ar  TQ2p  1 3.950000e-01    9.610000e+00
  P1ar   Q2p  1 4.700000e-01    4.920000e+00
  P1ar  SQ2p  1 4.300000e-01    6.419000e+00
  P1ar  TQ2p  1 3.950000e-01    9.334000e+00
  N6ar   Q2p  1 4.700000e-01    4.915000e+00
  N6ar  SQ2p  1 4.300000e-01    6.401000e+00
  N6ar  TQ2p  1 3.950000e-01    9.291000e+00
  N5ar   Q2p  1 4.700000e-01    4.908000e+00
  N5ar  SQ2p  1 4.300000e-01    6.377000e+00
  N5ar  TQ2p  1 3.950000e-01    9.237000e+00
  N4ar   Q2p  1 4.700000e-01    4.900000e+00
  N4ar  SQ2p  1 4.300000e-01    6.348000e+00
  N4ar  TQ2p  1 3.950000e-01    9.169000e+00
  N3ar   Q2p  1 4.700000e-01    4.700000e+00
  N3ar  SQ2p  1 4.300000e-01    6.109000e+00
  N3ar  TQ2p  1 3.950000e-01    8.840000e+00
  N2ar   Q2p  1 4.700000e-01    4.685000e+00
  N2ar  SQ2p  1 4.300000e-01    6.055000e+00
  N2ar  TQ2p  1 3.950000e-01    8.715000e+00
  N1ar   Q2p  1 4.700000e-01    4.663000e+00
  N1ar  SQ2p  1 4.300000e-01    5.975000e+00
  N1ar  TQ2p  1 3.950000e-01    8.529000e+00
  C6vr   Q2p  1 4.700000e-01    3.807000e+00
  C6vr  SQ2p  1 4.300000e-01    4.992000e+00
  C6vr  TQ2p  1 3.950000e-01    7.101000e+00
  C5vr   Q2p  1 4.700000e-01    3.498000e+00
  C5vr  SQ2p  1 4.300000e-01    4.286000e+00
  C5vr  TQ2p  1 3.950000e-01    6.396000e+00
  C4vr   Q2p  1 4.700000e-01    3.284000e+00
  C4vr  SQ2p  1 4.300000e-01    3.967000e+00
  C4vr  TQ2p  1 3.950000e-01    5.848000e+00
  C3vr   Q2p  1 4.700000e-01    3.042000e+00
  C3vr  SQ2p  1 4.300000e-01    3.472000e+00
  C3vr  TQ2p  1 3.980000e-01    4.989000e+00
  C2vr   Q2p  1 6.200000e-01    2.236000e+00
  C2vr  SQ2p  1 5.140000e-01    2.223000e+00
  C2vr  TQ2p  1 5.110000e-01    3.038000e+00
  C1vr   Q2p  1 6.200000e-01    2.170000e+00
  C1vr  SQ2p  1 5.140000e-01    1.958000e+00
  C1vr  TQ2p  1 5.110000e-01    2.471000e+00
  X4vr   Q2p  1 4.700000e-01    3.657000e+00
  X4vr  SQ2p  1 4.300000e-01    4.678000e+00
  X4vr  TQ2p  1 3.950000e-01    7.077000e+00
  X3vr   Q2p  1 4.700000e-01    3.527000e+00
  X3vr  SQ2p  1 4.300000e-01    4.392000e+00
  X3vr  TQ2p  1 3.950000e-01    6.641000e+00
  X2vr   Q2p  1 4.700000e-01    3.308000e+00
  X2vr  SQ2p  1 4.300000e-01    4.055000e+00
  X2vr  TQ2p  1 3.950000e-01    6.052000e+00
  X1vr   Q2p  1 4.700000e-01    3.042000e+00
  X1vr  SQ2p  1 4.300000e-01    3.472000e+00
  X1vr  TQ2p  1 3.980000e-01    4.989000e+00
  C6er   Q2p  1 4.700000e-01    4.257000e+00
  C6er  SQ2p  1 4.300000e-01    5.452000e+00
  C6er  TQ2p  1 3.950000e-01    7.731000e+00
  C5er   Q2p  1 4.700000e-01    3.928000e+00
  C5er  SQ2p  1 4.300000e-01    4.896000e+00
  C5er  TQ2p  1 3.950000e-01    7.046000e+00
  C4er   Q2p  1 4.700000e-01    3.734000e+00
  C4er  SQ2p  1 4.300000e-01    4.727000e+00
  C4er  TQ2p  1 3.950000e-01    6.488000e+00
  C3er   Q2p  1 4.700000e-01    3.492000e+00
  C3er  SQ2p  1 4.300000e-01    4.072000e+00
  C3er  TQ2p  1 3.950000e-01    5.676000e+00
  C2er   Q2p  1 4.850000e-01    2.593000e+00
  C2er  SQ2p  1 4.430000e-01    2.772000e+00
  C2er  TQ2p  1 4.010000e-01    4.014000e+00
  C1er   Q2p  1 4.850000e-01    2.509000e+00
  C1er  SQ2p  1 4.430000e-01    2.464000e+00
  C1er  TQ2p  1 4.010000e-01    3.292000e+00
  X4er   Q2p  1 4.700000e-01    4.107000e+00
  X4er  SQ2p  1 4.300000e-01    5.308000e+00
  X4er  TQ2p  1 3.950000e-01    7.667000e+00
  X3er   Q2p  1 4.700000e-01    3.957000e+00
  X3er  SQ2p  1 4.300000e-01    5.002000e+00
  X3er  TQ2p  1 3.950000e-01    7.291000e+00
  X2er   Q2p  1 4.700000e-01    3.758000e+00
  X2er  SQ2p  1 4.300000e-01    4.815000e+00
  X2er  TQ2p  1 3.950000e-01    6.692000e+00
  X1er   Q2p  1 4.700000e-01    3.492000e+00
  X1er  SQ2p  1 4.300000e-01    4.072000e+00
  X1er  TQ2p  1 3.950000e-01    5.676000e+00
   SP6   Q2p  1 4.300000e-01    4.446000e+00
   SP6  SQ2p  1 4.100000e-01    5.969000e+00
   SP6  TQ2p  1 3.650000e-01    8.157000e+00
   SP5   Q2p  1 4.300000e-01    4.644000e+00
   SP5  SQ2p  1 4.100000e-01    6.230000e+00
   SP5  TQ2p  1 3.650000e-01    8.407000e+00
   SP4   Q2p  1 4.300000e-01    4.640000e+00
   SP4  SQ2p  1 4.100000e-01    6.211000e+00
   SP4  TQ2p  1 3.650000e-01    8.367000e+00
   SP3   Q2p  1 4.300000e-01    4.437000e+00
   SP3  SQ2p  1 4.100000e-01    5.924000e+00
   SP3  TQ2p  1 3.650000e-01    8.062000e+00
   SP2   Q2p  1 4.300000e-01    4.434000e+00
   SP2  SQ2p  1 4.100000e-01    5.909000e+00
   SP2  TQ2p  1 3.650000e-01    8.032000e+00
   SP1   Q2p  1 4.300000e-01    4.232000e+00
   SP1  SQ2p  1 4.100000e-01    5.657000e+00
   SP1  TQ2p  1 3.650000e-01    7.736000e+00
   SN6   Q2p  1 4.300000e-01    4.229000e+00
   SN6  SQ2p  1 4.100000e-01    5.642000e+00
   SN6  TQ2p  1 3.650000e-01    7.704000e+00
   SN5   Q2p  1 4.300000e-01    4.225000e+00
   SN5  SQ2p  1 4.100000e-01    5.623000e+00
   SN5  TQ2p  1 3.650000e-01    7.664000e+00
   SN4   Q2p  1 4.300000e-01    4.220000e+00
   SN4  SQ2p  1 4.100000e-01    5.598000e+00
   SN4  TQ2p  1 3.650000e-01    7.612000e+00
   SN3   Q2p  1 4.300000e-01    4.033000e+00
   SN3  SQ2p  1 4.100000e-01    5.324000e+00
   SN3  TQ2p  1 3.650000e-01    7.281000e+00
   SN2   Q2p  1 4.300000e-01    4.024000e+00
   SN2  SQ2p  1 4.100000e-01    5.276000e+00
   SN2  TQ2p  1 3.650000e-01    7.181000e+00
   SN1   Q2p  1 4.300000e-01    4.010000e+00
   SN1  SQ2p  1 4.100000e-01    5.204000e+00
   SN1  TQ2p  1 3.650000e-01    7.030000e+00
   SC6   Q2p  1 4.300000e-01    3.776000e+00
   SC6  SQ2p  1 4.100000e-01    4.853000e+00
   SC6  TQ2p  1 3.650000e-01    6.547000e+00
   SC5   Q2p  1 4.300000e-01    3.297000e+00
   SC5  SQ2p  1 4.100000e-01    4.265000e+00
   SC5  TQ2p  1 3.650000e-01    5.914000e+00
   SC4   Q2p  1 4.300000e-01    3.118000e+00
   SC4  SQ2p  1 4.100000e-01    3.969000e+00
   SC4  TQ2p  1 3.650000e-01    5.448000e+00
   SC3   Q2p  1 4.300000e-01    2.830000e+00
   SC3  SQ2p  1 4.100000e-01    3.566000e+00
   SC3  TQ2p  1 3.660000e-01    4.780000e+00
   SC2   Q2p  1 4.430000e-01    1.734000e+00
   SC2  SQ2p  1 4.210000e-01    2.546000e+00
   SC2  TQ2p  1 4.230000e-01    3.381000e+00
   SC1   Q2p  1 4.430000e-01    1.678000e+00
   SC1  SQ2p  1 4.210000e-01    2.260000e+00
   SC1  TQ2p  1 4.230000e-01    2.852000e+00
   SX4   Q2p  1 4.300000e-01    3.570000e+00
   SX4  SQ2p  1 4.100000e-01    4.682000e+00
   SX4  TQ2p  1 3.650000e-01    6.462000e+00
   SX3   Q2p  1 4.300000e-01    3.316000e+00
   SX3  SQ2p  1 4.100000e-01    4.363000e+00
   SX3  TQ2p  1 3.650000e-01    6.117000e+00
   SX2   Q2p  1 4.300000e-01    3.134000e+00
   SX2  SQ2p  1 4.100000e-01    4.051000e+00
   SX2  TQ2p  1 3.650000e-01    5.618000e+00
   SX1   Q2p  1 4.300000e-01    2.830000e+00
   SX1  SQ2p  1 4.100000e-01    3.566000e+00
   SX1  TQ2p  1 3.660000e-01    4.780000e+00
  SP6d   Q2p  1 4.300000e-01    4.066000e+00
  SP6d  SQ2p  1 4.100000e-01    5.729000e+00
  SP6d  TQ2p  1 3.650000e-01    7.887000e+00
  SP5d   Q2p  1 4.300000e-01    4.244000e+00
  SP5d  SQ2p  1 4.100000e-01    5.960000e+00
  SP5d  TQ2p  1 3.650000e-01    8.137000e+00
  SP4d   Q2p  1 4.300000e-01    4.240000e+00
  SP4d  SQ2p  1 4.100000e-01    5.941000e+00
  SP4d  TQ2p  1 3.650000e-01    8.097000e+00
  SP3d   Q2p  1 4.300000e-01    4.057000e+00
  SP3d  SQ2p  1 4.100000e-01    5.684000e+00
  SP3d  TQ2p  1 3.650000e-01    7.792000e+00
  SP2d   Q2p  1 4.300000e-01    4.054000e+00
  SP2d  SQ2p  1 4.100000e-01    5.669000e+00
  SP2d  TQ2p  1 3.650000e-01    7.762000e+00
  SP1d   Q2p  1 4.300000e-01    4.052000e+00
  SP1d  SQ2p  1 4.100000e-01    5.657000e+00
  SP1d  TQ2p  1 3.650000e-01    7.736000e+00
  SN6d   Q2p  1 4.300000e-01    4.049000e+00
  SN6d  SQ2p  1 4.100000e-01    5.642000e+00
  SN6d  TQ2p  1 3.650000e-01    7.704000e+00
  SN5d   Q2p  1 4.300000e-01    4.045000e+00
  SN5d  SQ2p  1 4.100000e-01    5.623000e+00
  SN5d  TQ2p  1 3.650000e-01    7.664000e+00
  SN4d   Q2p  1 4.300000e-01    4.040000e+00
  SN4d  SQ2p  1 4.100000e-01    5.598000e+00
  SN4d  TQ2p  1 3.650000e-01    7.612000e+00
  SN3d   Q2p  1 4.300000e-01    3.603000e+00
  SN3d  SQ2p  1 4.100000e-01    5.094000e+00
  SN3d  TQ2p  1 3.650000e-01    7.051000e+00
  SN2d   Q2p  1 4.300000e-01    3.594000e+00
  SN2d  SQ2p  1 4.100000e-01    5.046000e+00
  SN2d  TQ2p  1 3.650000e-01    6.951000e+00
  SN1d   Q2p  1 4.300000e-01    3.580000e+00
  SN1d  SQ2p  1 4.100000e-01    4.974000e+00
  SN1d  TQ2p  1 3.650000e-01    6.800000e+00
  SP6a   Q2p  1 4.300000e-01    4.646000e+00
  SP6a  SQ2p  1 4.100000e-01    6.459000e+00
  SP6a  TQ2p  1 3.650000e-01    8.697000e+00
  SP5a   Q2p  1 4.300000e-01    4.874000e+00
  SP5a  SQ2p  1 4.100000e-01    6.700000e+00
  SP5a  TQ2p  1 3.650000e-01    8.967000e+00
  SP4a   Q2p  1 4.300000e-01    4.870000e+00
  SP4a  SQ2p  1 4.100000e-01    6.681000e+00
  SP4a  TQ2p  1 3.650000e-01    8.927000e+00
  SP3a   Q2p  1 4.300000e-01    4.637000e+00
  SP3a  SQ2p  1 4.100000e-01    6.414000e+00
  SP3a  TQ2p  1 3.650000e-01    8.602000e+00
  SP2a   Q2p  1 4.300000e-01    4.634000e+00
  SP2a  SQ2p  1 4.100000e-01    6.399000e+00
  SP2a  TQ2p  1 3.650000e-01    8.572000e+00
  SP1a   Q2p  1 4.300000e-01    4.432000e+00
  SP1a  SQ2p  1 4.100000e-01    6.167000e+00
  SP1a  TQ2p  1 3.650000e-01    8.276000e+00
  SN6a   Q2p  1 4.300000e-01    4.429000e+00
  SN6a  SQ2p  1 4.100000e-01    6.152000e+00
  SN6a  TQ2p  1 3.650000e-01    8.244000e+00
  SN5a   Q2p  1 4.300000e-01    4.425000e+00
  SN5a  SQ2p  1 4.100000e-01    6.133000e+00
  SN5a  TQ2p  1 3.650000e-01    8.204000e+00
  SN4a   Q2p  1 4.300000e-01    4.420000e+00
  SN4a  SQ2p  1 4.100000e-01    6.108000e+00
  SN4a  TQ2p  1 3.650000e-01    8.152000e+00
  SN3a   Q2p  1 4.300000e-01    4.213000e+00
  SN3a  SQ2p  1 4.100000e-01    5.804000e+00
  SN3a  TQ2p  1 3.650000e-01    7.811000e+00
  SN2a   Q2p  1 4.300000e-01    4.204000e+00
  SN2a  SQ2p  1 4.100000e-01    5.756000e+00
  SN2a  TQ2p  1 3.650000e-01    7.711000e+00
  SN1a   Q2p  1 4.300000e-01    4.190000e+00
  SN1a  SQ2p  1 4.100000e-01    5.684000e+00
  SN1a  TQ2p  1 3.650000e-01    7.560000e+00
  SC6v   Q2p  1 4.300000e-01    3.316000e+00
  SC6v  SQ2p  1 4.100000e-01    4.363000e+00
  SC6v  TQ2p  1 3.650000e-01    6.117000e+00
  SC5v   Q2p  1 4.300000e-01    2.697000e+00
  SC5v  SQ2p  1 4.100000e-01    3.955000e+00
  SC5v  TQ2p  1 3.660000e-01    5.593000e+00
  SC4v   Q2p  1 4.300000e-01    2.508000e+00
  SC4v  SQ2p  1 4.100000e-01    3.679000e+00
  SC4v  TQ2p  1 3.780000e-01    5.021000e+00
  SC3v   Q2p  1 4.300000e-01    2.230000e+00
  SC3v  SQ2p  1 4.100000e-01    3.276000e+00
  SC3v  TQ2p  1 3.940000e-01    4.244000e+00
  SC2v   Q2p  1 5.140000e-01    1.329000e+00
  SC2v  SQ2p  1 4.960000e-01    2.150000e+00
  SC2v  TQ2p  1 5.370000e-01    2.698000e+00
  SC1v   Q2p  1 5.140000e-01    1.281000e+00
  SC1v  SQ2p  1 4.960000e-01    1.908000e+00
  SC1v  TQ2p  1 5.370000e-01    2.282000e+00
  SX4v   Q2p  1 4.300000e-01    2.940000e+00
  SX4v  SQ2p  1 4.100000e-01    4.282000e+00
  SX4v  TQ2p  1 3.650000e-01    6.102000e+00
  SX3v   Q2p  1 4.300000e-01    2.716000e+00
  SX3v  SQ2p  1 4.100000e-01    4.053000e+00
  SX3v  TQ2p  1 3.660000e-01    5.795000e+00
  SX2v   Q2p  1 4.300000e-01    2.524000e+00
  SX2v  SQ2p  1 4.100000e-01    3.761000e+00
  SX2v  TQ2p  1 3.780000e-01    5.185000e+00
  SX1v   Q2p  1 4.300000e-01    2.230000e+00
  SX1v  SQ2p  1 4.100000e-01    3.276000e+00
  SX1v  TQ2p  1 3.940000e-01    4.244000e+00
  SC6e   Q2p  1 4.300000e-01    3.776000e+00
  SC6e  SQ2p  1 4.100000e-01    5.083000e+00
  SC6e  TQ2p  1 3.650000e-01    6.777000e+00
  SC5e   Q2p  1 4.300000e-01    3.307000e+00
  SC5e  SQ2p  1 4.100000e-01    4.515000e+00
  SC5e  TQ2p  1 3.650000e-01    6.114000e+00
  SC4e   Q2p  1 4.300000e-01    3.268000e+00
  SC4e  SQ2p  1 4.100000e-01    4.119000e+00
  SC4e  TQ2p  1 3.650000e-01    5.608000e+00
  SC3e   Q2p  1 4.300000e-01    2.830000e+00
  SC3e  SQ2p  1 4.100000e-01    3.726000e+00
  SC3e  TQ2p  1 3.650000e-01    4.939000e+00
  SC2e   Q2p  1 4.430000e-01    1.734000e+00
  SC2e  SQ2p  1 4.180000e-01    2.705000e+00
  SC2e  TQ2p  1 4.090000e-01    3.562000e+00
  SC1e   Q2p  1 4.430000e-01    1.678000e+00
  SC1e  SQ2p  1 4.180000e-01    2.418000e+00
  SC1e  TQ2p  1 4.090000e-01    3.015000e+00
  SX4e   Q2p  1 4.300000e-01    3.570000e+00
  SX4e  SQ2p  1 4.100000e-01    4.922000e+00
  SX4e  TQ2p  1 3.650000e-01    6.692000e+00
  SX3e   Q2p  1 4.300000e-01    3.326000e+00
  SX3e  SQ2p  1 4.100000e-01    4.613000e+00
  SX3e  TQ2p  1 3.650000e-01    6.317000e+00
  SX2e   Q2p  1 4.300000e-01    3.284000e+00
  SX2e  SQ2p  1 4.100000e-01    4.201000e+00
  SX2e  TQ2p  1 3.650000e-01    5.778000e+00
  SX1e   Q2p  1 4.300000e-01    2.830000e+00
  SX1e  SQ2p  1 4.100000e-01    3.726000e+00
  SX1e  TQ2p  1 3.650000e-01    4.939000e+00
  SP6q   Q2p  1 4.300000e-01    5.156000e+00
  SP6q  SQ2p  1 4.100000e-01    6.709000e+00
  SP6q  TQ2p  1 3.650000e-01    8.987000e+00
  SP5q   Q2p  1 4.300000e-01    5.394000e+00
  SP5q  SQ2p  1 4.100000e-01    6.960000e+00
  SP5q  TQ2p  1 3.650000e-01    9.257000e+00
  SP4q   Q2p  1 4.300000e-01    5.390000e+00
  SP4q  SQ2p  1 4.100000e-01    6.941000e+00
  SP4q  TQ2p  1 3.650000e-01    9.217000e+00
  SP3q   Q2p  1 4.300000e-01    5.147000e+00
  SP3q  SQ2p  1 4.100000e-01    6.664000e+00
  SP3q  TQ2p  1 3.650000e-01    8.892000e+00
  SP2q   Q2p  1 4.300000e-01    5.144000e+00
  SP2q  SQ2p  1 4.100000e-01    6.649000e+00
  SP2q  TQ2p  1 3.650000e-01    8.862000e+00
  SP1q   Q2p  1 4.300000e-01    4.862000e+00
  SP1q  SQ2p  1 4.100000e-01    6.387000e+00
  SP1q  TQ2p  1 3.650000e-01    8.546000e+00
  SN6q   Q2p  1 4.300000e-01    4.859000e+00
  SN6q  SQ2p  1 4.100000e-01    6.372000e+00
  SN6q  TQ2p  1 3.650000e-01    8.514000e+00
  SN5q   Q2p  1 4.300000e-01    4.855000e+00
  SN5q  SQ2p  1 4.100000e-01    6.353000e+00
  SN5q  TQ2p  1 3.650000e-01    8.474000e+00
  SN4q   Q2p  1 4.300000e-01    4.850000e+00
  SN4q  SQ2p  1 4.100000e-01    6.328000e+00
  SN4q  TQ2p  1 3.650000e-01    8.422000e+00
  SN3q   Q2p  1 4.300000e-01    4.613000e+00
  SN3q  SQ2p  1 4.100000e-01    6.074000e+00
  SN3q  TQ2p  1 3.650000e-01    8.081000e+00
  SN2q   Q2p  1 4.300000e-01    4.604000e+00
  SN2q  SQ2p  1 4.100000e-01    6.026000e+00
  SN2q  TQ2p  1 3.650000e-01    7.981000e+00
  SN1q   Q2p  1 4.300000e-01    4.590000e+00
  SN1q  SQ2p  1 4.100000e-01    5.954000e+00
  SN1q  TQ2p  1 3.650000e-01    7.830000e+00
  SC6q   Q2p  1 4.300000e-01    4.366000e+00
  SC6q  SQ2p  1 4.100000e-01    5.563000e+00
  SC6q  TQ2p  1 3.650000e-01    7.307000e+00
  SC5q   Q2p  1 4.300000e-01    3.967000e+00
  SC5q  SQ2p  1 4.100000e-01    4.985000e+00
  SC5q  TQ2p  1 3.650000e-01    6.574000e+00
  SC4q   Q2p  1 4.300000e-01    3.728000e+00
  SC4q  SQ2p  1 4.100000e-01    4.609000e+00
  SC4q  TQ2p  1 3.650000e-01    6.038000e+00
  SC3q   Q2p  1 4.300000e-01    3.460000e+00
  SC3q  SQ2p  1 4.100000e-01    4.126000e+00
  SC3q  TQ2p  1 3.650000e-01    5.299000e+00
  SC2q   Q2p  1 4.300000e-01    2.422000e+00
  SC2q  SQ2p  1 4.100000e-01    3.080000e+00
  SC2q  TQ2p  1 3.940000e-01    3.866000e+00
  SC1q   Q2p  1 4.300000e-01    2.364000e+00
  SC1q  SQ2p  1 4.100000e-01    2.787000e+00
  SC1q  TQ2p  1 3.940000e-01    3.299000e+00
  SX4q   Q2p  1 4.300000e-01    4.180000e+00
  SX4q  SQ2p  1 4.100000e-01    5.392000e+00
  SX4q  TQ2p  1 3.650000e-01    7.182000e+00
  SX3q   Q2p  1 4.300000e-01    3.986000e+00
  SX3q  SQ2p  1 4.100000e-01    5.083000e+00
  SX3q  TQ2p  1 3.650000e-01    6.777000e+00
  SX2q   Q2p  1 4.300000e-01    3.744000e+00
  SX2q  SQ2p  1 4.100000e-01    4.691000e+00
  SX2q  TQ2p  1 3.650000e-01    6.208000e+00
  SX1q   Q2p  1 4.300000e-01    3.460000e+00
  SX1q  SQ2p  1 4.100000e-01    4.126000e+00
  SX1q  TQ2p  1 3.650000e-01    5.299000e+00
 SP6dq   Q2p  1 4.300000e-01    4.646000e+00
 SP6dq  SQ2p  1 4.100000e-01    6.459000e+00
 SP6dq  TQ2p  1 3.650000e-01    8.697000e+00
 SP5dq   Q2p  1 4.300000e-01    4.874000e+00
 SP5dq  SQ2p  1 4.100000e-01    6.700000e+00
 SP5dq  TQ2p  1 3.650000e-01    8.967000e+00
 SP4dq   Q2p  1 4.300000e-01    4.870000e+00
 SP4dq  SQ2p  1 4.100000e-01    6.681000e+00
 SP4dq  TQ2p  1 3.650000e-01    8.927000e+00
 SP3dq   Q2p  1 4.300000e-01    4.637000e+00
 SP3dq  SQ2p  1 4.100000e-01    6.414000e+00
 SP3dq  TQ2p  1 3.650000e-01    8.602000e+00
 SP2dq   Q2p  1 4.300000e-01    4.634000e+00
 SP2dq  SQ2p  1 4.100000e-01    6.399000e+00
 SP2dq  TQ2p  1 3.650000e-01    8.572000e+00
 SP1dq   Q2p  1 4.300000e-01    4.632000e+00
 SP1dq  SQ2p  1 4.100000e-01    6.387000e+00
 SP1dq  TQ2p  1 3.650000e-01    8.546000e+00
 SN6dq   Q2p  1 4.300000e-01    4.629000e+00
 SN6dq  SQ2p  1 4.100000e-01    6.372000e+00
 SN6dq  TQ2p  1 3.650000e-01    8.514000e+00
 SN5dq   Q2p  1 4.300000e-01    4.625000e+00
 SN5dq  SQ2p  1 4.100000e-01    6.353000e+00
 SN5dq  TQ2p  1 3.650000e-01    8.474000e+00
 SN4dq   Q2p  1 4.300000e-01    4.620000e+00
 SN4dq  SQ2p  1 4.100000e-01    6.328000e+00
 SN4dq  TQ2p  1 3.650000e-01    8.422000e+00
 SN3dq   Q2p  1 4.300000e-01    4.213000e+00
 SN3dq  SQ2p  1 4.100000e-01    5.804000e+00
 SN3dq  TQ2p  1 3.650000e-01    7.811000e+00
 SN2dq   Q2p  1 4.300000e-01    4.204000e+00
 SN2dq  SQ2p  1 4.100000e-01    5.756000e+00
 SN2dq  TQ2p  1 3.650000e-01    7.711000e+00
 SN1dq   Q2p  1 4.300000e-01    4.190000e+00
 SN1dq  SQ2p  1 4.100000e-01    5.684000e+00
 SN1dq  TQ2p  1 3.650000e-01    7.560000e+00
 SP6aq   Q2p  1 4.300000e-01    5.396000e+00
 SP6aq  SQ2p  1 4.100000e-01    7.259000e+00
 SP6aq  TQ2p  1 3.650000e-01    9.567000e+00
 SP5aq   Q2p  1 4.300000e-01    5.684000e+00
 SP5aq  SQ2p  1 4.100000e-01    7.540000e+00
 SP5aq  TQ2p  1 3.650000e-01    9.897000e+00
 SP4aq   Q2p  1 4.300000e-01    5.680000e+00
 SP4aq  SQ2p  1 4.100000e-01    7.521000e+00
 SP4aq  TQ2p  1 3.650000e-01    9.857000e+00
 SP3aq   Q2p  1 4.300000e-01    5.387000e+00
 SP3aq  SQ2p  1 4.100000e-01    7.214000e+00
 SP3aq  TQ2p  1 3.650000e-01    9.472000e+00
 SP2aq   Q2p  1 4.300000e-01    5.384000e+00
 SP2aq  SQ2p  1 4.100000e-01    7.199000e+00
 SP2aq  TQ2p  1 3.650000e-01    9.442000e+00
 SP1aq   Q2p  1 4.300000e-01    5.142000e+00
 SP1aq  SQ2p  1 4.100000e-01    6.897000e+00
 SP1aq  TQ2p  1 3.650000e-01    9.126000e+00
 SN6aq   Q2p  1 4.300000e-01    5.139000e+00
 SN6aq  SQ2p  1 4.100000e-01    6.882000e+00
 SN6aq  TQ2p  1 3.650000e-01    9.094000e+00
 SN5aq   Q2p  1 4.300000e-01    5.135000e+00
 SN5aq  SQ2p  1 4.100000e-01    6.863000e+00
 SN5aq  TQ2p  1 3.650000e-01    9.054000e+00
 SN4aq   Q2p  1 4.300000e-01    5.130000e+00
 SN4aq  SQ2p  1 4.100000e-01    6.838000e+00
 SN4aq  TQ2p  1 3.650000e-01    9.002000e+00
 SN3aq   Q2p  1 4.300000e-01    4.843000e+00
 SN3aq  SQ2p  1 4.100000e-01    6.544000e+00
 SN3aq  TQ2p  1 3.650000e-01    8.641000e+00
 SN2aq   Q2p  1 4.300000e-01    4.834000e+00
 SN2aq  SQ2p  1 4.100000e-01    6.496000e+00
 SN2aq  TQ2p  1 3.650000e-01    8.541000e+00
 SN1aq   Q2p  1 4.300000e-01    4.820000e+00
 SN1aq  SQ2p  1 4.100000e-01    6.424000e+00
 SN1aq  TQ2p  1 3.650000e-01    8.390000e+00
 SC6vq   Q2p  1 4.300000e-01    3.776000e+00
 SC6vq  SQ2p  1 4.100000e-01    5.083000e+00
 SC6vq  TQ2p  1 3.650000e-01    6.777000e+00
 SC5vq   Q2p  1 4.300000e-01    3.307000e+00
 SC5vq  SQ2p  1 4.100000e-01    4.515000e+00
 SC5vq  TQ2p  1 3.650000e-01    6.114000e+00
 SC4vq   Q2p  1 4.300000e-01    3.268000e+00
 SC4vq  SQ2p  1 4.100000e-01    4.119000e+00
 SC4vq  TQ2p  1 3.650000e-01    5.608000e+00
 SC3vq   Q2p  1 4.300000e-01    2.830000e+00
 SC3vq  SQ2p  1 4.100000e-01    3.726000e+00
 SC3vq  TQ2p  1 3.650000e-01    4.939000e+00
 SC2vq   Q2p  1 4.430000e-01    1.734000e+00
 SC2vq  SQ2p  1 4.180000e-01    2.705000e+00
 SC2vq  TQ2p  1 4.090000e-01    3.562000e+00
 SC1vq   Q2p  1 4.430000e-01    1.678000e+00
 SC1vq  SQ2p  1 4.180000e-01    2.418000e+00
 SC1vq  TQ2p  1 4.090000e-01    3.015000e+00
 SX4vq   Q2p  1 4.300000e-01    3.570000e+00
 SX4vq  SQ2p  1 4.100000e-01    4.922000e+00
 SX4vq  TQ2p  1 3.650000e-01    6.692000e+00
 SX3vq   Q2p  1 4.300000e-01    3.326000e+00
 SX3vq  SQ2p  1 4.100000e-01    4.613000e+00
 SX3vq  TQ2p  1 3.650000e-01    6.317000e+00
 SX2vq   Q2p  1 4.300000e-01    3.284000e+00
 SX2vq  SQ2p  1 4.100000e-01    4.201000e+00
 SX2vq  TQ2p  1 3.650000e-01    5.778000e+00
 SX1vq   Q2p  1 4.300000e-01    2.830000e+00
 SX1vq  SQ2p  1 4.100000e-01    3.726000e+00
 SX1vq  TQ2p  1 3.650000e-01    4.939000e+00
 SC6eq   Q2p  1 4.300000e-01    4.366000e+00
 SC6eq  SQ2p  1 4.100000e-01    5.833000e+00
 SC6eq  TQ2p  1 3.650000e-01    7.577000e+00
 SC5eq   Q2p  1 4.300000e-01    3.967000e+00
 SC5eq  SQ2p  1 4.100000e-01    5.225000e+00
 SC5eq  TQ2p  1 3.650000e-01    6.834000e+00
 SC4eq   Q2p  1 4.300000e-01    3.728000e+00
 SC4eq  SQ2p  1 4.100000e-01    4.839000e+00
 SC4eq  TQ2p  1 3.650000e-01    6.268000e+00
 SC3eq   Q2p  1 4.300000e-01    3.460000e+00
 SC3eq  SQ2p  1 4.100000e-01    4.366000e+00
 SC3eq  TQ2p  1 3.650000e-01    5.529000e+00
 SC2eq   Q2p  1 4.300000e-01    2.422000e+00
 SC2eq  SQ2p  1 4.100000e-01    3.240000e+00
 SC2eq  TQ2p  1 3.780000e-01    4.135000e+00
 SC1eq   Q2p  1 4.300000e-01    2.364000e+00
 SC1eq  SQ2p  1 4.100000e-01    2.947000e+00
 SC1eq  TQ2p  1 3.780000e-01    3.544000e+00
 SX4eq   Q2p  1 4.300000e-01    4.180000e+00
 SX4eq  SQ2p  1 4.100000e-01    5.632000e+00
 SX4eq  TQ2p  1 3.650000e-01    7.452000e+00
 SX3eq   Q2p  1 4.300000e-01    3.986000e+00
 SX3eq  SQ2p  1 4.100000e-01    5.323000e+00
 SX3eq  TQ2p  1 3.650000e-01    7.037000e+00
 SX2eq   Q2p  1 4.300000e-01    3.744000e+00
 SX2eq  SQ2p  1 4.100000e-01    4.921000e+00
 SX2eq  TQ2p  1 3.650000e-01    6.438000e+00
 SX1eq   Q2p  1 4.300000e-01    3.460000e+00
 SX1eq  SQ2p  1 4.100000e-01    4.366000e+00
 SX1eq  TQ2p  1 3.650000e-01    5.529000e+00
  SP6h   Q2p  1 4.300000e-01    4.446000e+00
  SP6h  SQ2p  1 4.100000e-01    5.969000e+00
  SP6h  TQ2p  1 3.650000e-01    8.157000e+00
  SP5h   Q2p  1 4.300000e-01    4.644000e+00
  SP5h  SQ2p  1 4.100000e-01    6.230000e+00
  SP5h  TQ2p  1 3.650000e-01    8.407000e+00
  SP4h   Q2p  1 4.300000e-01    4.640000e+00
  SP4h  SQ2p  1 4.100000e-01    6.211000e+00
  SP4h  TQ2p  1 3.650000e-01    8.367000e+00
  SP3h   Q2p  1 4.300000e-01    4.437000e+00
  SP3h  SQ2p  1 4.100000e-01    5.924000e+00
  SP3h  TQ2p  1 3.650000e-01    8.062000e+00
  SP2h   Q2p  1 4.300000e-01    4.434000e+00
  SP2h  SQ2p  1 4.100000e-01    5.909000e+00
  SP2h  TQ2p  1 3.650000e-01    8.032000e+00
  SP1h   Q2p  1 4.300000e-01    4.232000e+00
  SP1h  SQ2p  1 4.100000e-01    5.657000e+00
  SP1h  TQ2p  1 3.650000e-01    7.736000e+00
  SN6h   Q2p  1 4.300000e-01    4.229000e+00
  SN6h  SQ2p  1 4.100000e-01    5.642000e+00
  SN6h  TQ2p  1 3.650000e-01    7.704000e+00
  SN5h   Q2p  1 4.300000e-01    4.225000e+00
  SN5h  SQ2p  1 4.100000e-01    5.623000e+00
  SN5h  TQ2p  1 3.650000e-01    7.664000e+00
  SN4h   Q2p  1 4.300000e-01    4.220000e+00
  SN4h  SQ2p  1 4.100000e-01    5.598000e+00
  SN4h  TQ2p  1 3.650000e-01    7.612000e+00
  SN3h   Q2p  1 4.300000e-01    4.033000e+00
  SN3h  SQ2p  1 4.100000e-01    5.324000e+00
  SN3h  TQ2p  1 3.650000e-01    7.281000e+00
  SN2h   Q2p  1 4.300000e-01    4.024000e+00
  SN2h  SQ2p  1 4.100000e-01    5.276000e+00
  SN2h  TQ2p  1 3.650000e-01    7.181000e+00
  SN1h   Q2p  1 4.300000e-01    4.010000e+00
  SN1h  SQ2p  1 4.100000e-01    5.204000e+00
  SN1h  TQ2p  1 3.650000e-01    7.030000e+00
  SC6h   Q2p  1 4.300000e-01    3.776000e+00
  SC6h  SQ2p  1 4.100000e-01    4.853000e+00
  SC6h  TQ2p  1 3.650000e-01    6.547000e+00
  SC5h   Q2p  1 4.300000e-01    3.297000e+00
  SC5h  SQ2p  1 4.100000e-01    4.265000e+00
  SC5h  TQ2p  1 3.650000e-01    5.914000e+00
  SC4h   Q2p  1 4.300000e-01    3.118000e+00
  SC4h  SQ2p  1 4.100000e-01    3.969000e+00
  SC4h  TQ2p  1 3.650000e-01    5.448000e+00
  SC3h   Q2p  1 4.300000e-01    2.830000e+00
  SC3h  SQ2p  1 4.100000e-01    3.566000e+00
  SC3h  TQ2p  1 3.660000e-01    4.780000e+00
  SC2h   Q2p  1 4.430000e-01    1.734000e+00
  SC2h  SQ2p  1 4.210000e-01    2.546000e+00
  SC2h  TQ2p  1 4.230000e-01    3.381000e+00
  SC1h   Q2p  1 4.430000e-01    1.678000e+00
  SC1h  SQ2p  1 4.210000e-01    2.260000e+00
  SC1h  TQ2p  1 4.230000e-01    2.852000e+00
  SX4h   Q2p  1 4.300000e-01    3.570000e+00
  SX4h  SQ2p  1 4.100000e-01    4.682000e+00
  SX4h  TQ2p  1 3.650000e-01    6.462000e+00
  SX3h   Q2p  1 4.300000e-01    3.316000e+00
  SX3h  SQ2p  1 4.100000e-01    4.363000e+00
  SX3h  TQ2p  1 3.650000e-01    6.117000e+00
  SX2h   Q2p  1 4.300000e-01    3.134000e+00
  SX2h  SQ2p  1 4.100000e-01    4.051000e+00
  SX2h  TQ2p  1 3.650000e-01    5.618000e+00
  SX1h   Q2p  1 4.300000e-01    2.830000e+00
  SX1h  SQ2p  1 4.100000e-01    3.566000e+00
  SX1h  TQ2p  1 3.660000e-01    4.780000e+00
 SP6dh   Q2p  1 4.300000e-01    4.066000e+00
 SP6dh  SQ2p  1 4.100000e-01    5.729000e+00
 SP6dh  TQ2p  1 3.650000e-01    7.887000e+00
 SP5dh   Q2p  1 4.300000e-01    4.244000e+00
 SP5dh  SQ2p  1 4.100000e-01    5.960000e+00
 SP5dh  TQ2p  1 3.650000e-01    8.137000e+00
 SP4dh   Q2p  1 4.300000e-01    4.240000e+00
 SP4dh  SQ2p  1 4.100000e-01    5.941000e+00
 SP4dh  TQ2p  1 3.650000e-01    8.097000e+00
 SP3dh   Q2p  1 4.300000e-01    4.057000e+00
 SP3dh  SQ2p  1 4.100000e-01    5.684000e+00
 SP3dh  TQ2p  1 3.650000e-01    7.792000e+00
 SP2dh   Q2p  1 4.300000e-01    4.054000e+00
 SP2dh  SQ2p  1 4.100000e-01    5.669000e+00
 SP2dh  TQ2p  1 3.650000e-01    7.762000e+00
 SP1dh   Q2p  1 4.300000e-01    4.052000e+00
 SP1dh  SQ2p  1 4.100000e-01    5.657000e+00
 SP1dh  TQ2p  1 3.650000e-01    7.736000e+00
 SN6dh   Q2p  1 4.300000e-01    4.049000e+00
 SN6dh  SQ2p  1 4.100000e-01    5.642000e+00
 SN6dh  TQ2p  1 3.650000e-01    7.704000e+00
 SN5dh   Q2p  1 4.300000e-01    4.045000e+00
 SN5dh  SQ2p  1 4.100000e-01    5.623000e+00
 SN5dh  TQ2p  1 3.650000e-01    7.664000e+00
 SN4dh   Q2p  1 4.300000e-01    4.040000e+00
 SN4dh  SQ2p  1 4.100000e-01    5.598000e+00
 SN4dh  TQ2p  1 3.650000e-01    7.612000e+00
 SN3dh   Q2p  1 4.300000e-01    3.603000e+00
 SN3dh  SQ2p  1 4.100000e-01    5.094000e+00
 SN3dh  TQ2p  1 3.650000e-01    7.051000e+00
 SN2dh   Q2p  1 4.300000e-01    3.594000e+00
 SN2dh  SQ2p  1 4.100000e-01    5.046000e+00
 SN2dh  TQ2p  1 3.650000e-01    6.951000e+00
 SN1dh   Q2p  1 4.300000e-01    3.580000e+00
 SN1dh  SQ2p  1 4.100000e-01    4.974000e+00
 SN1dh  TQ2p  1 3.650000e-01    6.800000e+00
 SP6ah   Q2p  1 4.300000e-01    4.646000e+00
 SP6ah  SQ2p  1 4.100000e-01    6.459000e+00
 SP6ah  TQ2p  1 3.650000e-01    8.697000e+00
 SP5ah   Q2p  1 4.300000e-01    4.874000e+00
 SP5ah  SQ2p  1 4.100000e-01    6.700000e+00
 SP5ah  TQ2p  1 3.650000e-01    8.967000e+00
 SP4ah   Q2p  1 4.300000e-01    4.870000e+00
 SP4ah  SQ2p  1 4.100000e-01    6.681000e+00
 SP4ah  TQ2p  1 3.650000e-01    8.927000e+00
 SP3ah   Q2p  1 4.300000e-01    4.637000e+00
 SP3ah  SQ2p  1 4.100000e-01    6.414000e+00
 SP3ah  TQ2p  1 3.650000e-01    8.602000e+00
 SP2ah   Q2p  1 4.300000e-01    4.634000e+00
 SP2ah  SQ2p  1 4.100000e-01    6.399000e+00
 SP2ah  TQ2p  1 3.650000e-01    8.572000e+00
 SP1ah   Q2p  1 4.300000e-01    4.432000e+00
 SP1ah  SQ2p  1 4.100000e-01    6.167000e+00
 SP1ah  TQ2p  1 3.650000e-01    8.276000e+00
 SN6ah   Q2p  1 4.300000e-01    4.429000e+00
 SN6ah  SQ2p  1 4.100000e-01    6.152000e+00
 SN6ah  TQ2p  1 3.650000e-01    8.244000e+00
 SN5ah   Q2p  1 4.300000e-01    4.425000e+00
 SN5ah  SQ2p  1 4.100000e-01    6.133000e+00
 SN5ah  TQ2p  1 3.650000e-01    8.204000e+00
 SN4ah   Q2p  1 4.300000e-01    4.420000e+00
 SN4ah  SQ2p  1 4.100000e-01    6.108000e+00
 SN4ah  TQ2p  1 3.650000e-01    8.152000e+00
 SN3ah   Q2p  1 4.300000e-01    4.213000e+00
 SN3ah  SQ2p  1 4.100000e-01    5.804000e+00
 SN3ah  TQ2p  1 3.650000e-01    7.811000e+00
 SN2ah   Q2p  1 4.300000e-01    4.204000e+00
 SN2ah  SQ2p  1 4.100000e-01    5.756000e+00
 SN2ah  TQ2p  1 3.650000e-01    7.711000e+00
 SN1ah   Q2p  1 4.300000e-01    4.190000e+00
 SN1ah  SQ2p  1 4.100000e-01    5.684000e+00
 SN1ah  TQ2p  1 3.650000e-01    7.560000e+00
 SC6vh   Q2p  1 4.300000e-01    3.316000e+00
 SC6vh  SQ2p  1 4.100000e-01    4.363000e+00
 SC6vh  TQ2p  1 3.650000e-01    6.117000e+00
 SC5vh   Q2p  1 4.300000e-01    2.697000e+00
 SC5vh  SQ2p  1 4.100000e-01    3.955000e+00
 SC5vh  TQ2p  1 3.660000e-01    5.593000e+00
 SC4vh   Q2p  1 4.300000e-01    2.508000e+00
 SC4vh  SQ2p  1 4.100000e-01    3.679000e+00
 SC4vh  TQ2p  1 3.780000e-01    5.021000e+00
 SC3vh   Q2p  1 4.300000e-01    2.230000e+00
 SC3vh  SQ2p  1 4.100000e-01    3.276000e+00
 SC3vh  TQ2p  1 3.940000e-01    4.244000e+00
 SC2vh   Q2p  1 5.140000e-01    1.329000e+00
 SC2vh  SQ2p  1 4.960000e-01    2.150000e+00
 SC2vh  TQ2p  1 5.370000e-01    2.698000e+00
 SC1vh   Q2p  1 5.140000e-01    1.281000e+00
 SC1vh  SQ2p  1 4.960000e-01    1.908000e+00
 SC1vh  TQ2p  1 5.370000e-01    2.282000e+00
 SX4vh   Q2p  1 4.300000e-01    2.940000e+00
 SX4vh  SQ2p  1 4.100000e-01    4.282000e+00
 SX4vh  TQ2p  1 3.650000e-01    6.102000e+00
 SX3vh   Q2p  1 4.300000e-01    2.716000e+00
 SX3vh  SQ2p  1 4.100000e-01    4.053000e+00
 SX3vh  TQ2p  1 3.660000e-01    5.795000e+00
 SX2vh   Q2p  1 4.300000e-01    2.524000e+00
 SX2vh  SQ2p  1 4.100000e-01    3.761000e+00
 SX2vh  TQ2p  1 3.780000e-01    5.185000e+00
 SX1vh   Q2p  1 4.300000e-01    2.230000e+00
 SX1vh  SQ2p  1 4.100000e-01    3.276000e+00
 SX1vh  TQ2p  1 3.940000e-01    4.244000e+00
 SC6eh   Q2p  1 4.300000e-01    3.776000e+00
 SC6eh  SQ2p  1 4.100000e-01    5.083000e+00
 SC6eh  TQ2p  1 3.650000e-01    6.777000e+00
 SC5eh   Q2p  1 4.300000e-01    3.307000e+00
 SC5eh  SQ2p  1 4.100000e-01    4.515000e+00
 SC5eh  TQ2p  1 3.650000e-01    6.114000e+00
 SC4eh   Q2p  1 4.300000e-01    3.268000e+00
 SC4eh  SQ2p  1 4.100000e-01    4.119000e+00
 SC4eh  TQ2p  1 3.650000e-01    5.608000e+00
 SC3eh   Q2p  1 4.300000e-01    2.830000e+00
 SC3eh  SQ2p  1 4.100000e-01    3.726000e+00
 SC3eh  TQ2p  1 3.650000e-01    4.939000e+00
 SC2eh   Q2p  1 4.430000e-01    1.734000e+00
 SC2eh  SQ2p  1 4.180000e-01    2.705000e+00
 SC2eh  TQ2p  1 4.090000e-01    3.562000e+00
 SC1eh   Q2p  1 4.430000e-01    1.678000e+00
 SC1eh  SQ2p  1 4.180000e-01    2.418000e+00
 SC1eh  TQ2p  1 4.090000e-01    3.015000e+00
 SX4eh   Q2p  1 4.300000e-01    3.570000e+00
 SX4eh  SQ2p  1 4.100000e-01    4.922000e+00
 SX4eh  TQ2p  1 3.650000e-01    6.692000e+00
 SX3eh   Q2p  1 4.300000e-01    3.326000e+00
 SX3eh  SQ2p  1 4.100000e-01    4.613000e+00
 SX3eh  TQ2p  1 3.650000e-01    6.317000e+00
 SX2eh   Q2p  1 4.300000e-01    3.284000e+00
 SX2eh  SQ2p  1 4.100000e-01    4.201000e+00
 SX2eh  TQ2p  1 3.650000e-01    5.778000e+00
 SX1eh   Q2p  1 4.300000e-01    2.830000e+00
 SX1eh  SQ2p  1 4.100000e-01    3.726000e+00
 SX1eh  TQ2p  1 3.650000e-01    4.939000e+00
  SP6r   Q2p  1 4.300000e-01    4.446000e+00
  SP6r  SQ2p  1 4.100000e-01    5.969000e+00
  SP6r  TQ2p  1 3.650000e-01    8.157000e+00
  SP5r   Q2p  1 4.300000e-01    4.644000e+00
  SP5r  SQ2p  1 4.100000e-01    6.230000e+00
  SP5r  TQ2p  1 3.650000e-01    8.407000e+00
  SP4r   Q2p  1 4.300000e-01    4.640000e+00
  SP4r  SQ2p  1 4.100000e-01    6.211000e+00
  SP4r  TQ2p  1 3.650000e-01    8.367000e+00
  SP3r   Q2p  1 4.300000e-01    4.437000e+00
  SP3r  SQ2p  1 4.100000e-01    5.924000e+00
  SP3r  TQ2p  1 3.650000e-01    8.062000e+00
  SP2r   Q2p  1 4.300000e-01    4.434000e+00
  SP2r  SQ2p  1 4.100000e-01    5.909000e+00
  SP2r  TQ2p  1 3.650000e-01    8.032000e+00
  SP1r   Q2p  1 4.300000e-01    4.232000e+00
  SP1r  SQ2p  1 4.100000e-01    5.657000e+00
  SP1r  TQ2p  1 3.650000e-01    7.736000e+00
  SN6r   Q2p  1 4.300000e-01    4.229000e+00
  SN6r  SQ2p  1 4.100000e-01    5.642000e+00
  SN6r  TQ2p  1 3.650000e-01    7.704000e+00
  SN5r   Q2p  1 4.300000e-01    4.225000e+00
  SN5r  SQ2p  1 4.100000e-01    5.623000e+00
  SN5r  TQ2p  1 3.650000e-01    7.664000e+00
  SN4r   Q2p  1 4.300000e-01    4.220000e+00
  SN4r  SQ2p  1 4.100000e-01    5.598000e+00
  SN4r  TQ2p  1 3.650000e-01    7.612000e+00
  SN3r   Q2p  1 4.300000e-01    4.033000e+00
  SN3r  SQ2p  1 4.100000e-01    5.324000e+00
  SN3r  TQ2p  1 3.650000e-01    7.281000e+00
  SN2r   Q2p  1 4.300000e-01    4.024000e+00
  SN2r  SQ2p  1 4.100000e-01    5.276000e+00
  SN2r  TQ2p  1 3.650000e-01    7.181000e+00
  SN1r   Q2p  1 4.300000e-01    4.010000e+00
  SN1r  SQ2p  1 4.100000e-01    5.204000e+00
  SN1r  TQ2p  1 3.650000e-01    7.030000e+00
  SC6r   Q2p  1 4.300000e-01    3.776000e+00
  SC6r  SQ2p  1 4.100000e-01    4.853000e+00
  SC6r  TQ2p  1 3.650000e-01    6.547000e+00
  SC5r   Q2p  1 4.300000e-01    3.297000e+00
  SC5r  SQ2p  1 4.100000e-01    4.265000e+00
  SC5r  TQ2p  1 3.650000e-01    5.914000e+00
  SC4r   Q2p  1 4.300000e-01    3.118000e+00
  SC4r  SQ2p  1 4.100000e-01    3.969000e+00
  SC4r  TQ2p  1 3.650000e-01    5.448000e+00
  SC3r   Q2p  1 4.300000e-01    2.830000e+00
  SC3r  SQ2p  1 4.100000e-01    3.566000e+00
  SC3r  TQ2p  1 3.660000e-01    4.780000e+00
  SC2r   Q2p  1 4.430000e-01    1.734000e+00
  SC2r  SQ2p  1 4.210000e-01    2.546000e+00
  SC2r  TQ2p  1 4.230000e-01    3.381000e+00
  SC1r   Q2p  1 4.430000e-01    1.678000e+00
  SC1r  SQ2p  1 4.210000e-01    2.260000e+00
  SC1r  TQ2p  1 4.230000e-01    2.852000e+00
  SX4r   Q2p  1 4.300000e-01    3.570000e+00
  SX4r  SQ2p  1 4.100000e-01    4.682000e+00
  SX4r  TQ2p  1 3.650000e-01    6.462000e+00
  SX3r   Q2p  1 4.300000e-01    3.316000e+00
  SX3r  SQ2p  1 4.100000e-01    4.363000e+00
  SX3r  TQ2p  1 3.650000e-01    6.117000e+00
  SX2r   Q2p  1 4.300000e-01    3.134000e+00
  SX2r  SQ2p  1 4.100000e-01    4.051000e+00
  SX2r  TQ2p  1 3.650000e-01    5.618000e+00
  SX1r   Q2p  1 4.300000e-01    2.830000e+00
  SX1r  SQ2p  1 4.100000e-01    3.566000e+00
  SX1r  TQ2p  1 3.660000e-01    4.780000e+00
 SP6dr   Q2p  1 4.300000e-01    4.066000e+00
 SP6dr  SQ2p  1 4.100000e-01    5.729000e+00
 SP6dr  TQ2p  1 3.650000e-01    7.887000e+00
 SP5dr   Q2p  1 4.300000e-01    4.244000e+00
 SP5dr  SQ2p  1 4.100000e-01    5.960000e+00
 SP5dr  TQ2p  1 3.650000e-01    8.137000e+00
 SP4dr   Q2p  1 4.300000e-01    4.240000e+00
 SP4dr  SQ2p  1 4.100000e-01    5.941000e+00
 SP4dr  TQ2p  1 3.650000e-01    8.097000e+00
 SP3dr   Q2p  1 4.300000e-01    4.057000e+00
 SP3dr  SQ2p  1 4.100000e-01    5.684000e+00
 SP3dr  TQ2p  1 3.650000e-01    7.792000e+00
 SP2dr   Q2p  1 4.300000e-01    4.054000e+00
 SP2dr  SQ2p  1 4.100000e-01    5.669000e+00
 SP2dr  TQ2p  1 3.650000e-01    7.762000e+00
 SP1dr   Q2p  1 4.300000e-01    4.052000e+00
 SP1dr  SQ2p  1 4.100000e-01    5.657000e+00
 SP1dr  TQ2p  1 3.650000e-01    7.736000e+00
 SN6dr   Q2p  1 4.300000e-01    4.049000e+00
 SN6dr  SQ2p  1 4.100000e-01    5.642000e+00
 SN6dr  TQ2p  1 3.650000e-01    7.704000e+00
 SN5dr   Q2p  1 4.300000e-01    4.045000e+00
 SN5dr  SQ2p  1 4.100000e-01    5.623000e+00
 SN5dr  TQ2p  1 3.650000e-01    7.664000e+00
 SN4dr   Q2p  1 4.300000e-01    4.040000e+00
 SN4dr  SQ2p  1 4.100000e-01    5.598000e+00
 SN4dr  TQ2p  1 3.650000e-01    7.612000e+00
 SN3dr   Q2p  1 4.300000e-01    3.603000e+00
 SN3dr  SQ2p  1 4.100000e-01    5.094000e+00
 SN3dr  TQ2p  1 3.650000e-01    7.051000e+00
 SN2dr   Q2p  1 4.300000e-01    3.594000e+00
 SN2dr  SQ2p  1 4.100000e-01    5.046000e+00
 SN2dr  TQ2p  1 3.650000e-01    6.951000e+00
 SN1dr   Q2p  1 4.300000e-01    3.580000e+00
 SN1dr  SQ2p  1 4.100000e-01    4.974000e+00
 SN1dr  TQ2p  1 3.650000e-01    6.800000e+00
 SP6ar   Q2p  1 4.300000e-01    4.646000e+00
 SP6ar  SQ2p  1 4.100000e-01    6.459000e+00
 SP6ar  TQ2p  1 3.650000e-01    8.697000e+00
 SP5ar   Q2p  1 4.300000e-01    4.874000e+00
 SP5ar  SQ2p  1 4.100000e-01    6.700000e+00
 SP5ar  TQ2p  1 3.650000e-01    8.967000e+00
 SP4ar   Q2p  1 4.300000e-01    4.870000e+00
 SP4ar  SQ2p  1 4.100000e-01    6.681000e+00
 SP4ar  TQ2p  1 3.650000e-01    8.927000e+00
 SP3ar   Q2p  1 4.300000e-01    4.637000e+00
 SP3ar  SQ2p  1 4.100000e-01    6.414000e+00
 SP3ar  TQ2p  1 3.650000e-01    8.602000e+00
 SP2ar   Q2p  1 4.300000e-01    4.634000e+00
 SP2ar  SQ2p  1 4.100000e-01    6.399000e+00
 SP2ar  TQ2p  1 3.650000e-01    8.572000e+00
 SP1ar   Q2p  1 4.300000e-01    4.432000e+00
 SP1ar  SQ2p  1 4.100000e-01    6.167000e+00
 SP1ar  TQ2p  1 3.650000e-01    8.276000e+00
 SN6ar   Q2p  1 4.300000e-01    4.429000e+00
 SN6ar  SQ2p  1 4.100000e-01    6.152000e+00
 SN6ar  TQ2p  1 3.650000e-01    8.244000e+00
 SN5ar   Q2p  1 4.300000e-01    4.425000e+00
 SN5ar  SQ2p  1 4.100000e-01    6.133000e+00
 SN5ar  TQ2p  1 3.650000e-01    8.204000e+00
 SN4ar   Q2p  1 4.300000e-01    4.420000e+00
 SN4ar  SQ2p  1 4.100000e-01    6.108000e+00
 SN4ar  TQ2p  1 3.650000e-01    8.152000e+00
 SN3ar   Q2p  1 4.300000e-01    4.213000e+00
 SN3ar  SQ2p  1 4.100000e-01    5.804000e+00
 SN3ar  TQ2p  1 3.650000e-01    7.811000e+00
 SN2ar   Q2p  1 4.300000e-01    4.204000e+00
 SN2ar  SQ2p  1 4.100000e-01    5.756000e+00
 SN2ar  TQ2p  1 3.650000e-01    7.711000e+00
 SN1ar   Q2p  1 4.300000e-01    4.190000e+00
 SN1ar  SQ2p  1 4.100000e-01    5.684000e+00
 SN1ar  TQ2p  1 3.650000e-01    7.560000e+00
 SC6vr   Q2p  1 4.300000e-01    3.316000e+00
 SC6vr  SQ2p  1 4.100000e-01    4.363000e+00
 SC6vr  TQ2p  1 3.650000e-01    6.117000e+00
 SC5vr   Q2p  1 4.300000e-01    2.697000e+00
 SC5vr  SQ2p  1 4.100000e-01    3.955000e+00
 SC5vr  TQ2p  1 3.660000e-01    5.593000e+00
 SC4vr   Q2p  1 4.300000e-01    2.508000e+00
 SC4vr  SQ2p  1 4.100000e-01    3.679000e+00
 SC4vr  TQ2p  1 3.780000e-01    5.021000e+00
 SC3vr   Q2p  1 4.300000e-01    2.230000e+00
 SC3vr  SQ2p  1 4.100000e-01    3.276000e+00
 SC3vr  TQ2p  1 3.940000e-01    4.244000e+00
 SC2vr   Q2p  1 5.140000e-01    1.329000e+00
 SC2vr  SQ2p  1 4.960000e-01    2.150000e+00
 SC2vr  TQ2p  1 5.370000e-01    2.698000e+00
 SC1vr   Q2p  1 5.140000e-01    1.281000e+00
 SC1vr  SQ2p  1 4.960000e-01    1.908000e+00
 SC1vr  TQ2p  1 5.370000e-01    2.282000e+00
 SX4vr   Q2p  1 4.300000e-01    2.940000e+00
 SX4vr  SQ2p  1 4.100000e-01    4.282000e+00
 SX4vr  TQ2p  1 3.650000e-01    6.102000e+00
 SX3vr   Q2p  1 4.300000e-01    2.716000e+00
 SX3vr  SQ2p  1 4.100000e-01    4.053000e+00
 SX3vr  TQ2p  1 3.660000e-01    5.795000e+00
 SX2vr   Q2p  1 4.300000e-01    2.524000e+00
 SX2vr  SQ2p  1 4.100000e-01    3.761000e+00
 SX2vr  TQ2p  1 3.780000e-01    5.185000e+00
 SX1vr   Q2p  1 4.300000e-01    2.230000e+00
 SX1vr  SQ2p  1 4.100000e-01    3.276000e+00
 SX1vr  TQ2p  1 3.940000e-01    4.244000e+00
 SC6er   Q2p  1 4.300000e-01    3.776000e+00
 SC6er  SQ2p  1 4.100000e-01    5.083000e+00
 SC6er  TQ2p  1 3.650000e-01    6.777000e+00
 SC5er   Q2p  1 4.300000e-01    3.307000e+00
 SC5er  SQ2p  1 4.100000e-01    4.515000e+00
 SC5er  TQ2p  1 3.650000e-01    6.114000e+00
 SC4er   Q2p  1 4.300000e-01    3.268000e+00
 SC4er  SQ2p  1 4.100000e-01    4.119000e+00
 SC4er  TQ2p  1 3.650000e-01    5.608000e+00
 SC3er   Q2p  1 4.300000e-01    2.830000e+00
 SC3er  SQ2p  1 4.100000e-01    3.726000e+00
 SC3er  TQ2p  1 3.650000e-01    4.939000e+00
 SC2er   Q2p  1 4.430000e-01    1.734000e+00
 SC2er  SQ2p  1 4.180000e-01    2.705000e+00
 SC2er  TQ2p  1 4.090000e-01    3.562000e+00
 SC1er   Q2p  1 4.430000e-01    1.678000e+00
 SC1er  SQ2p  1 4.180000e-01    2.418000e+00
 SC1er  TQ2p  1 4.090000e-01    3.015000e+00
 SX4er   Q2p  1 4.300000e-01    3.570000e+00
 SX4er  SQ2p  1 4.100000e-01    4.922000e+00
 SX4er  TQ2p  1 3.650000e-01    6.692000e+00
 SX3er   Q2p  1 4.300000e-01    3.326000e+00
 SX3er  SQ2p  1 4.100000e-01    4.613000e+00
 SX3er  TQ2p  1 3.650000e-01    6.317000e+00
 SX2er   Q2p  1 4.300000e-01    3.284000e+00
 SX2er  SQ2p  1 4.100000e-01    4.201000e+00
 SX2er  TQ2p  1 3.650000e-01    5.778000e+00
 SX1er   Q2p  1 4.300000e-01    2.830000e+00
 SX1er  SQ2p  1 4.100000e-01    3.726000e+00
 SX1er  TQ2p  1 3.650000e-01    4.939000e+00
   TP6   Q2p  1 3.950000e-01    3.830000e+00
   TP6  SQ2p  1 3.650000e-01    5.295000e+00
   TP6  TQ2p  1 3.400000e-01    7.568000e+00
   TP5   Q2p  1 3.950000e-01    4.070000e+00
   TP5  SQ2p  1 3.650000e-01    5.567000e+00
   TP5  TQ2p  1 3.400000e-01    7.822000e+00
   TP4   Q2p  1 3.950000e-01    4.069000e+00
   TP4  SQ2p  1 3.650000e-01    5.561000e+00
   TP4  TQ2p  1 3.400000e-01    7.810000e+00
   TP3   Q2p  1 3.950000e-01    3.828000e+00
   TP3  SQ2p  1 3.650000e-01    5.282000e+00
   TP3  TQ2p  1 3.400000e-01    7.541000e+00
   TP2   Q2p  1 3.950000e-01    3.826000e+00
   TP2  SQ2p  1 3.650000e-01    5.274000e+00
   TP2  TQ2p  1 3.400000e-01    7.522000e+00
   TP1   Q2p  1 3.950000e-01    3.585000e+00
   TP1  SQ2p  1 3.650000e-01    4.996000e+00
   TP1  TQ2p  1 3.400000e-01    7.264000e+00
   TN6   Q2p  1 3.950000e-01    3.583000e+00
   TN6  SQ2p  1 3.650000e-01    4.985000e+00
   TN6  TQ2p  1 3.400000e-01    7.242000e+00
   TN5   Q2p  1 3.950000e-01    3.580000e+00
   TN5  SQ2p  1 3.650000e-01    4.972000e+00
   TN5  TQ2p  1 3.400000e-01    7.212000e+00
   TN4   Q2p  1 3.950000e-01    3.577000e+00
   TN4  SQ2p  1 3.650000e-01    4.954000e+00
   TN4  TQ2p  1 3.400000e-01    7.172000e+00
   TN3   Q2p  1 3.950000e-01    3.322000e+00
   TN3  SQ2p  1 3.650000e-01    4.669000e+00
   TN3  TQ2p  1 3.400000e-01    6.897000e+00
   TN2   Q2p  1 3.950000e-01    3.316000e+00
   TN2  SQ2p  1 3.650000e-01    4.632000e+00
   TN2  TQ2p  1 3.400000e-01    6.817000e+00
   TN1   Q2p  1 3.950000e-01    3.306000e+00
   TN1  SQ2p  1 3.650000e-01    4.576000e+00
   TN1  TQ2p  1 3.400000e-01    6.694000e+00
   TC6   Q2p  1 3.950000e-01    3.048000e+00
   TC6  SQ2p  1 3.650000e-01    4.251000e+00
   TC6  TQ2p  1 3.400000e-01    6.224000e+00
   TC5   Q2p  1 3.950000e-01    2.644000e+00
   TC5  SQ2p  1 3.650000e-01    3.744000e+00
   TC5  TQ2p  1 3.400000e-01    5.544000e+00
   TC4   Q2p  1 3.950000e-01    2.423000e+00
   TC4  SQ2p  1 3.650000e-01    3.468000e+00
   TC4  TQ2p  1 3.400000e-01    5.009000e+00
   TC3   Q2p  1 3.950000e-01    2.127000e+00
   TC3  SQ2p  1 3.660000e-01    3.119000e+00
   TC3  TQ2p  1 3.520000e-01    4.286000e+00
   TC2   Q2p  1 4.040000e-01    1.073000e+00
   TC2  SQ2p  1 4.230000e-01    2.160000e+00
   TC2  TQ2p  1 4.380000e-01    3.064000e+00
   TC1   Q2p  1 4.040000e-01    1.032000e+00
   TC1  SQ2p  1 4.230000e-01    1.957000e+00
   TC1  TQ2p  1 4.380000e-01    2.663000e+00
   TX4   Q2p  1 3.950000e-01    2.858000e+00
   TX4  SQ2p  1 3.650000e-01    4.076000e+00
   TX4  TQ2p  1 3.400000e-01    6.094000e+00
   TX3   Q2p  1 3.950000e-01    2.658000e+00
   TX3  SQ2p  1 3.650000e-01    3.821000e+00
   TX3  TQ2p  1 3.400000e-01    5.714000e+00
   TX2   Q2p  1 3.950000e-01    2.435000e+00
   TX2  SQ2p  1 3.650000e-01    3.532000e+00
   TX2  TQ2p  1 3.400000e-01    5.151000e+00
   TX1   Q2p  1 3.950000e-01    2.127000e+00
   TX1  SQ2p  1 3.660000e-01    3.119000e+00
   TX1  TQ2p  1 3.520000e-01    4.286000e+00
  TP6d   Q2p  1 3.950000e-01    3.590000e+00
  TP6d  SQ2p  1 3.650000e-01    5.025000e+00
  TP6d  TQ2p  1 3.400000e-01    7.328000e+00
  TP5d   Q2p  1 3.950000e-01    3.830000e+00
  TP5d  SQ2p  1 3.650000e-01    5.297000e+00
  TP5d  TQ2p  1 3.400000e-01    7.572000e+00
  TP4d   Q2p  1 3.950000e-01    3.829000e+00
  TP4d  SQ2p  1 3.650000e-01    5.291000e+00
  TP4d  TQ2p  1 3.400000e-01    7.560000e+00
  TP3d   Q2p  1 3.950000e-01    3.588000e+00
  TP3d  SQ2p  1 3.650000e-01    5.012000e+00
  TP3d  TQ2p  1 3.400000e-01    7.301000e+00
  TP2d   Q2p  1 3.950000e-01    3.586000e+00
  TP2d  SQ2p  1 3.650000e-01    5.004000e+00
  TP2d  TQ2p  1 3.400000e-01    7.282000e+00
  TP1d   Q2p  1 3.950000e-01    3.585000e+00
  TP1d  SQ2p  1 3.650000e-01    4.996000e+00
  TP1d  TQ2p  1 3.400000e-01    7.264000e+00
  TN6d   Q2p  1 3.950000e-01    3.583000e+00
  TN6d  SQ2p  1 3.650000e-01    4.985000e+00
  TN6d  TQ2p  1 3.400000e-01    7.242000e+00
  TN5d   Q2p  1 3.950000e-01    3.580000e+00
  TN5d  SQ2p  1 3.650000e-01    4.972000e+00
  TN5d  TQ2p  1 3.400000e-01    7.212000e+00
  TN4d   Q2p  1 3.950000e-01    3.577000e+00
  TN4d  SQ2p  1 3.650000e-01    4.954000e+00
  TN4d  TQ2p  1 3.400000e-01    7.172000e+00
  TN3d   Q2p  1 3.950000e-01    3.082000e+00
  TN3d  SQ2p  1 3.650000e-01    4.439000e+00
  TN3d  TQ2p  1 3.400000e-01    6.637000e+00
  TN2d   Q2p  1 3.950000e-01    3.076000e+00
  TN2d  SQ2p  1 3.650000e-01    4.402000e+00
  TN2d  TQ2p  1 3.400000e-01    6.557000e+00
  TN1d   Q2p  1 3.950000e-01    3.066000e+00
  TN1d  SQ2p  1 3.650000e-01    4.346000e+00
  TN1d  TQ2p  1 3.400000e-01    6.434000e+00
  TP6a   Q2p  1 3.950000e-01    4.310000e+00
  TP6a  SQ2p  1 3.650000e-01    5.835000e+00
  TP6a  TQ2p  1 3.400000e-01    8.298000e+00
  TP5a   Q2p  1 3.950000e-01    4.630000e+00
  TP5a  SQ2p  1 3.650000e-01    6.127000e+00
  TP5a  TQ2p  1 3.400000e-01    8.582000e+00
  TP4a   Q2p  1 3.950000e-01    4.629000e+00
  TP4a  SQ2p  1 3.650000e-01    6.121000e+00
  TP4a  TQ2p  1 3.400000e-01    8.570000e+00
  TP3a   Q2p  1 3.950000e-01    4.308000e+00
  TP3a  SQ2p  1 3.650000e-01    5.822000e+00
  TP3a  TQ2p  1 3.400000e-01    8.271000e+00
  TP2a   Q2p  1 3.950000e-01    4.306000e+00
  TP2a  SQ2p  1 3.650000e-01    5.814000e+00
  TP2a  TQ2p  1 3.400000e-01    8.252000e+00
  TP1a   Q2p  1 3.950000e-01    4.065000e+00
  TP1a  SQ2p  1 3.650000e-01    5.536000e+00
  TP1a  TQ2p  1 3.400000e-01    7.984000e+00
  TN6a   Q2p  1 3.950000e-01    4.063000e+00
  TN6a  SQ2p  1 3.650000e-01    5.525000e+00
  TN6a  TQ2p  1 3.400000e-01    7.962000e+00
  TN5a   Q2p  1 3.950000e-01    4.060000e+00
  TN5a  SQ2p  1 3.650000e-01    5.512000e+00
  TN5a  TQ2p  1 3.400000e-01    7.932000e+00
  TN4a   Q2p  1 3.950000e-01    4.057000e+00
  TN4a  SQ2p  1 3.650000e-01    5.494000e+00
  TN4a  TQ2p  1 3.400000e-01    7.892000e+00
  TN3a   Q2p  1 3.950000e-01    3.812000e+00
  TN3a  SQ2p  1 3.650000e-01    5.199000e+00
  TN3a  TQ2p  1 3.400000e-01    7.607000e+00
  TN2a   Q2p  1 3.950000e-01    3.806000e+00
  TN2a  SQ2p  1 3.650000e-01    5.162000e+00
  TN2a  TQ2p  1 3.400000e-01    7.527000e+00
  TN1a   Q2p  1 3.950000e-01    3.796000e+00
  TN1a  SQ2p  1 3.650000e-01    5.106000e+00
  TN1a  TQ2p  1 3.400000e-01    7.404000e+00
  TC6v   Q2p  1 3.950000e-01    2.658000e+00
  TC6v  SQ2p  1 3.650000e-01    3.821000e+00
  TC6v  TQ2p  1 3.400000e-01    5.714000e+00
  TC5v   Q2p  1 3.950000e-01    2.184000e+00
  TC5v  SQ2p  1 3.660000e-01    3.429000e+00
  TC5v  TQ2p  1 3.520000e-01    4.947000e+00
  TC4v   Q2p  1 3.950000e-01    1.983000e+00
  TC4v  SQ2p  1 3.780000e-01    3.108000e+00
  TC4v  TQ2p  1 3.660000e-01    4.445000e+00
  TC3v   Q2p  1 3.980000e-01    1.725000e+00
  TC3v  SQ2p  1 3.940000e-01    2.701000e+00
  TC3v  TQ2p  1 3.850000e-01    3.813000e+00
  TC2v   Q2p  1 5.110000e-01    8.510000e-01
  TC2v  SQ2p  1 5.370000e-01    1.737000e+00
  TC2v  TQ2p  1 5.610000e-01    2.452000e+00
  TC1v   Q2p  1 5.110000e-01    8.180000e-01
  TC1v  SQ2p  1 5.370000e-01    1.577000e+00
  TC1v  TQ2p  1 5.610000e-01    2.139000e+00
  TX4v   Q2p  1 3.950000e-01    2.468000e+00
  TX4v  SQ2p  1 3.650000e-01    3.716000e+00
  TX4v  TQ2p  1 3.400000e-01    5.554000e+00
  TX3v   Q2p  1 3.950000e-01    2.198000e+00
  TX3v  SQ2p  1 3.660000e-01    3.506000e+00
  TX3v  TQ2p  1 3.520000e-01    5.111000e+00
  TX2v   Q2p  1 3.950000e-01    1.995000e+00
  TX2v  SQ2p  1 3.780000e-01    3.171000e+00
  TX2v  TQ2p  1 3.660000e-01    4.577000e+00
  TX1v   Q2p  1 3.980000e-01    1.725000e+00
  TX1v  SQ2p  1 3.940000e-01    2.701000e+00
  TX1v  TQ2p  1 3.850000e-01    3.813000e+00
  TC6e   Q2p  1 3.950000e-01    3.288000e+00
  TC6e  SQ2p  1 3.650000e-01    4.481000e+00
  TC6e  TQ2p  1 3.400000e-01    6.704000e+00
  TC5e   Q2p  1 3.950000e-01    2.834000e+00
  TC5e  SQ2p  1 3.650000e-01    3.944000e+00
  TC5e  TQ2p  1 3.400000e-01    6.054000e+00
  TC4e   Q2p  1 3.950000e-01    2.623000e+00
  TC4e  SQ2p  1 3.650000e-01    3.628000e+00
  TC4e  TQ2p  1 3.400000e-01    5.549000e+00
  TC3e   Q2p  1 3.950000e-01    2.387000e+00
  TC3e  SQ2p  1 3.650000e-01    3.273000e+00
  TC3e  TQ2p  1 3.400000e-01    4.860000e+00
  TC2e   Q2p  1 4.010000e-01    1.228000e+00
  TC2e  SQ2p  1 4.090000e-01    2.299000e+00
  TC2e  TQ2p  1 4.110000e-01    3.288000e+00
  TC1e   Q2p  1 4.010000e-01    1.186000e+00
  TC1e  SQ2p  1 4.090000e-01    2.090000e+00
  TC1e  TQ2p  1 4.110000e-01    2.860000e+00
  TX4e   Q2p  1 3.950000e-01    3.058000e+00
  TX4e  SQ2p  1 3.650000e-01    4.306000e+00
  TX4e  TQ2p  1 3.400000e-01    6.604000e+00
  TX3e   Q2p  1 3.950000e-01    2.848000e+00
  TX3e  SQ2p  1 3.650000e-01    4.021000e+00
  TX3e  TQ2p  1 3.400000e-01    6.224000e+00
  TX2e   Q2p  1 3.950000e-01    2.635000e+00
  TX2e  SQ2p  1 3.650000e-01    3.692000e+00
  TX2e  TQ2p  1 3.400000e-01    5.691000e+00
  TX1e   Q2p  1 3.950000e-01    2.387000e+00
  TX1e  SQ2p  1 3.650000e-01    3.273000e+00
  TX1e  TQ2p  1 3.400000e-01    4.860000e+00
  TP6q   Q2p  1 3.950000e-01    4.630000e+00
  TP6q  SQ2p  1 3.650000e-01    6.125000e+00
  TP6q  TQ2p  1 3.400000e-01    8.298000e+00
  TP5q   Q2p  1 3.950000e-01    4.940000e+00
  TP5q  SQ2p  1 3.650000e-01    6.417000e+00
  TP5q  TQ2p  1 3.400000e-01    8.582000e+00
  TP4q   Q2p  1 3.950000e-01    4.939000e+00
  TP4q  SQ2p  1 3.650000e-01    6.411000e+00
  TP4q  TQ2p  1 3.400000e-01    8.570000e+00
  TP3q   Q2p  1 3.950000e-01    4.628000e+00
  TP3q  SQ2p  1 3.650000e-01    6.112000e+00
  TP3q  TQ2p  1 3.400000e-01    8.271000e+00
  TP2q   Q2p  1 3.950000e-01    4.626000e+00
  TP2q  SQ2p  1 3.650000e-01    6.104000e+00
  TP2q  TQ2p  1 3.400000e-01    8.252000e+00
  TP1q   Q2p  1 3.950000e-01    4.305000e+00
  TP1q  SQ2p  1 3.650000e-01    5.806000e+00
  TP1q  TQ2p  1 3.400000e-01    7.984000e+00
  TN6q   Q2p  1 3.950000e-01    4.303000e+00
  TN6q  SQ2p  1 3.650000e-01    5.795000e+00
  TN6q  TQ2p  1 3.400000e-01    7.962000e+00
  TN5q   Q2p  1 3.950000e-01    4.300000e+00
  TN5q  SQ2p  1 3.650000e-01    5.782000e+00
  TN5q  TQ2p  1 3.400000e-01    7.932000e+00
  TN4q   Q2p  1 3.950000e-01    4.297000e+00
  TN4q  SQ2p  1 3.650000e-01    5.764000e+00
  TN4q  TQ2p  1 3.400000e-01    7.892000e+00
  TN3q   Q2p  1 3.950000e-01    4.052000e+00
  TN3q  SQ2p  1 3.650000e-01    5.469000e+00
  TN3q  TQ2p  1 3.400000e-01    7.607000e+00
  TN2q   Q2p  1 3.950000e-01    4.046000e+00
  TN2q  SQ2p  1 3.650000e-01    5.432000e+00
  TN2q  TQ2p  1 3.400000e-01    7.527000e+00
  TN1q   Q2p  1 3.950000e-01    4.036000e+00
  TN1q  SQ2p  1 3.650000e-01    5.376000e+00
  TN1q  TQ2p  1 3.400000e-01    7.404000e+00
  TC6q   Q2p  1 3.950000e-01    3.778000e+00
  TC6q  SQ2p  1 3.650000e-01    5.011000e+00
  TC6q  TQ2p  1 3.400000e-01    6.944000e+00
  TC5q   Q2p  1 3.950000e-01    3.274000e+00
  TC5q  SQ2p  1 3.650000e-01    4.404000e+00
  TC5q  TQ2p  1 3.400000e-01    6.314000e+00
  TC4q   Q2p  1 3.950000e-01    3.013000e+00
  TC4q  SQ2p  1 3.650000e-01    4.058000e+00
  TC4q  TQ2p  1 3.400000e-01    5.799000e+00
  TC3q   Q2p  1 3.950000e-01    2.777000e+00
  TC3q  SQ2p  1 3.650000e-01    3.633000e+00
  TC3q  TQ2p  1 3.400000e-01    5.120000e+00
  TC2q   Q2p  1 3.980000e-01    1.697000e+00
  TC2q  SQ2p  1 3.940000e-01    2.556000e+00
  TC2q  TQ2p  1 3.850000e-01    3.510000e+00
  TC1q   Q2p  1 3.980000e-01    1.655000e+00
  TC1q  SQ2p  1 3.940000e-01    2.338000e+00
  TC1q  TQ2p  1 3.850000e-01    3.053000e+00
  TX4q   Q2p  1 3.950000e-01    3.548000e+00
  TX4q  SQ2p  1 3.650000e-01    4.796000e+00
  TX4q  TQ2p  1 3.400000e-01    6.824000e+00
  TX3q   Q2p  1 3.950000e-01    3.288000e+00
  TX3q  SQ2p  1 3.650000e-01    4.481000e+00
  TX3q  TQ2p  1 3.400000e-01    6.484000e+00
  TX2q   Q2p  1 3.950000e-01    3.025000e+00
  TX2q  SQ2p  1 3.650000e-01    4.122000e+00
  TX2q  TQ2p  1 3.400000e-01    5.941000e+00
  TX1q   Q2p  1 3.950000e-01    2.777000e+00
  TX1q  SQ2p  1 3.650000e-01    3.633000e+00
  TX1q  TQ2p  1 3.400000e-01    5.120000e+00
 TP6dq   Q2p  1 3.950000e-01    4.310000e+00
 TP6dq  SQ2p  1 3.650000e-01    5.835000e+00
 TP6dq  TQ2p  1 3.400000e-01    8.048000e+00
 TP5dq   Q2p  1 3.950000e-01    4.630000e+00
 TP5dq  SQ2p  1 3.650000e-01    6.127000e+00
 TP5dq  TQ2p  1 3.400000e-01    8.302000e+00
 TP4dq   Q2p  1 3.950000e-01    4.629000e+00
 TP4dq  SQ2p  1 3.650000e-01    6.121000e+00
 TP4dq  TQ2p  1 3.400000e-01    8.290000e+00
 TP3dq   Q2p  1 3.950000e-01    4.308000e+00
 TP3dq  SQ2p  1 3.650000e-01    5.822000e+00
 TP3dq  TQ2p  1 3.400000e-01    8.021000e+00
 TP2dq   Q2p  1 3.950000e-01    4.306000e+00
 TP2dq  SQ2p  1 3.650000e-01    5.814000e+00
 TP2dq  TQ2p  1 3.400000e-01    8.002000e+00
 TP1dq   Q2p  1 3.950000e-01    4.305000e+00
 TP1dq  SQ2p  1 3.650000e-01    5.806000e+00
 TP1dq  TQ2p  1 3.400000e-01    7.984000e+00
 TN6dq   Q2p  1 3.950000e-01    4.303000e+00
 TN6dq  SQ2p  1 3.650000e-01    5.795000e+00
 TN6dq  TQ2p  1 3.400000e-01    7.962000e+00
 TN5dq   Q2p  1 3.950000e-01    4.300000e+00
 TN5dq  SQ2p  1 3.650000e-01    5.782000e+00
 TN5dq  TQ2p  1 3.400000e-01    7.932000e+00
 TN4dq   Q2p  1 3.950000e-01    4.297000e+00
 TN4dq  SQ2p  1 3.650000e-01    5.764000e+00
 TN4dq  TQ2p  1 3.400000e-01    7.892000e+00
 TN3dq   Q2p  1 3.950000e-01    3.812000e+00
 TN3dq  SQ2p  1 3.650000e-01    5.199000e+00
 TN3dq  TQ2p  1 3.400000e-01    7.357000e+00
 TN2dq   Q2p  1 3.950000e-01    3.806000e+00
 TN2dq  SQ2p  1 3.650000e-01    5.162000e+00
 TN2dq  TQ2p  1 3.400000e-01    7.277000e+00
 TN1dq   Q2p  1 3.950000e-01    3.796000e+00
 TN1dq  SQ2p  1 3.650000e-01    5.106000e+00
 TN1dq  TQ2p  1 3.400000e-01    7.154000e+00
 TP6aq   Q2p  1 3.950000e-01    5.270000e+00
 TP6aq  SQ2p  1 3.650000e-01    6.705000e+00
 TP6aq  TQ2p  1 3.400000e-01    9.128000e+00
 TP5aq   Q2p  1 3.950000e-01    5.670000e+00
 TP5aq  SQ2p  1 3.650000e-01    7.057000e+00
 TP5aq  TQ2p  1 3.400000e-01    9.132000e+00
 TP4aq   Q2p  1 3.950000e-01    5.669000e+00
 TP4aq  SQ2p  1 3.650000e-01    7.051000e+00
 TP4aq  TQ2p  1 3.400000e-01    9.120000e+00
 TP3aq   Q2p  1 3.950000e-01    5.268000e+00
 TP3aq  SQ2p  1 3.650000e-01    6.692000e+00
 TP3aq  TQ2p  1 3.400000e-01    9.101000e+00
 TP2aq   Q2p  1 3.950000e-01    5.266000e+00
 TP2aq  SQ2p  1 3.650000e-01    6.684000e+00
 TP2aq  TQ2p  1 3.400000e-01    9.082000e+00
 TP1aq   Q2p  1 3.950000e-01    4.935000e+00
 TP1aq  SQ2p  1 3.650000e-01    6.386000e+00
 TP1aq  TQ2p  1 3.400000e-01    8.784000e+00
 TN6aq   Q2p  1 3.950000e-01    4.933000e+00
 TN6aq  SQ2p  1 3.650000e-01    6.375000e+00
 TN6aq  TQ2p  1 3.400000e-01    8.762000e+00
 TN5aq   Q2p  1 3.950000e-01    4.930000e+00
 TN5aq  SQ2p  1 3.650000e-01    6.362000e+00
 TN5aq  TQ2p  1 3.400000e-01    8.732000e+00
 TN4aq   Q2p  1 3.950000e-01    4.927000e+00
 TN4aq  SQ2p  1 3.650000e-01    6.344000e+00
 TN4aq  TQ2p  1 3.400000e-01    8.692000e+00
 TN3aq   Q2p  1 3.950000e-01    4.612000e+00
 TN3aq  SQ2p  1 3.650000e-01    6.029000e+00
 TN3aq  TQ2p  1 3.400000e-01    8.367000e+00
 TN2aq   Q2p  1 3.950000e-01    4.606000e+00
 TN2aq  SQ2p  1 3.650000e-01    5.992000e+00
 TN2aq  TQ2p  1 3.400000e-01    8.287000e+00
 TN1aq   Q2p  1 3.950000e-01    4.596000e+00
 TN1aq  SQ2p  1 3.650000e-01    5.936000e+00
 TN1aq  TQ2p  1 3.400000e-01    8.164000e+00
 TC6vq   Q2p  1 3.950000e-01    3.288000e+00
 TC6vq  SQ2p  1 3.650000e-01    4.481000e+00
 TC6vq  TQ2p  1 3.400000e-01    6.484000e+00
 TC5vq   Q2p  1 3.950000e-01    2.834000e+00
 TC5vq  SQ2p  1 3.650000e-01    3.944000e+00
 TC5vq  TQ2p  1 3.400000e-01    5.804000e+00
 TC4vq   Q2p  1 3.950000e-01    2.623000e+00
 TC4vq  SQ2p  1 3.650000e-01    3.628000e+00
 TC4vq  TQ2p  1 3.400000e-01    5.289000e+00
 TC3vq   Q2p  1 3.950000e-01    2.387000e+00
 TC3vq  SQ2p  1 3.650000e-01    3.273000e+00
 TC3vq  TQ2p  1 3.400000e-01    4.580000e+00
 TC2vq   Q2p  1 4.010000e-01    1.228000e+00
 TC2vq  SQ2p  1 4.090000e-01    2.299000e+00
 TC2vq  TQ2p  1 4.240000e-01    3.186000e+00
 TC1vq   Q2p  1 4.010000e-01    1.186000e+00
 TC1vq  SQ2p  1 4.090000e-01    2.090000e+00
 TC1vq  TQ2p  1 4.240000e-01    2.772000e+00
 TX4vq   Q2p  1 3.950000e-01    3.058000e+00
 TX4vq  SQ2p  1 3.650000e-01    4.306000e+00
 TX4vq  TQ2p  1 3.400000e-01    6.344000e+00
 TX3vq   Q2p  1 3.950000e-01    2.848000e+00
 TX3vq  SQ2p  1 3.650000e-01    4.021000e+00
 TX3vq  TQ2p  1 3.400000e-01    5.974000e+00
 TX2vq   Q2p  1 3.950000e-01    2.635000e+00
 TX2vq  SQ2p  1 3.650000e-01    3.692000e+00
 TX2vq  TQ2p  1 3.400000e-01    5.431000e+00
 TX1vq   Q2p  1 3.950000e-01    2.387000e+00
 TX1vq  SQ2p  1 3.650000e-01    3.273000e+00
 TX1vq  TQ2p  1 3.400000e-01    4.580000e+00
 TC6eq   Q2p  1 3.950000e-01    4.018000e+00
 TC6eq  SQ2p  1 3.650000e-01    5.281000e+00
 TC6eq  TQ2p  1 3.400000e-01    7.424000e+00
 TC5eq   Q2p  1 3.950000e-01    3.524000e+00
 TC5eq  SQ2p  1 3.650000e-01    4.664000e+00
 TC5eq  TQ2p  1 3.400000e-01    6.774000e+00
 TC4eq   Q2p  1 3.950000e-01    3.253000e+00
 TC4eq  SQ2p  1 3.650000e-01    4.288000e+00
 TC4eq  TQ2p  1 3.400000e-01    6.279000e+00
 TC3eq   Q2p  1 3.950000e-01    2.977000e+00
 TC3eq  SQ2p  1 3.650000e-01    3.863000e+00
 TC3eq  TQ2p  1 3.400000e-01    5.630000e+00
 TC2eq   Q2p  1 3.950000e-01    1.919000e+00
 TC2eq  SQ2p  1 3.780000e-01    2.769000e+00
 TC2eq  TQ2p  1 3.660000e-01    3.727000e+00
 TC1eq   Q2p  1 3.950000e-01    1.876000e+00
 TC1eq  SQ2p  1 3.780000e-01    2.543000e+00
 TC1eq  TQ2p  1 3.660000e-01    3.248000e+00
 TX4eq   Q2p  1 3.950000e-01    3.788000e+00
 TX4eq  SQ2p  1 3.650000e-01    5.066000e+00
 TX4eq  TQ2p  1 3.400000e-01    7.314000e+00
 TX3eq   Q2p  1 3.950000e-01    3.538000e+00
 TX3eq  SQ2p  1 3.650000e-01    4.741000e+00
 TX3eq  TQ2p  1 3.400000e-01    6.944000e+00
 TX2eq   Q2p  1 3.950000e-01    3.265000e+00
 TX2eq  SQ2p  1 3.650000e-01    4.352000e+00
 TX2eq  TQ2p  1 3.400000e-01    6.421000e+00
 TX1eq   Q2p  1 3.950000e-01    2.977000e+00
 TX1eq  SQ2p  1 3.650000e-01    3.863000e+00
 TX1eq  TQ2p  1 3.400000e-01    5.630000e+00
  TP6h   Q2p  1 3.950000e-01    3.830000e+00
  TP6h  SQ2p  1 3.650000e-01    5.295000e+00
  TP6h  TQ2p  1 3.400000e-01    7.568000e+00
  TP5h   Q2p  1 3.950000e-01    4.070000e+00
  TP5h  SQ2p  1 3.650000e-01    5.567000e+00
  TP5h  TQ2p  1 3.400000e-01    7.822000e+00
  TP4h   Q2p  1 3.950000e-01    4.069000e+00
  TP4h  SQ2p  1 3.650000e-01    5.561000e+00
  TP4h  TQ2p  1 3.400000e-01    7.810000e+00
  TP3h   Q2p  1 3.950000e-01    3.828000e+00
  TP3h  SQ2p  1 3.650000e-01    5.282000e+00
  TP3h  TQ2p  1 3.400000e-01    7.541000e+00
  TP2h   Q2p  1 3.950000e-01    3.826000e+00
  TP2h  SQ2p  1 3.650000e-01    5.274000e+00
  TP2h  TQ2p  1 3.400000e-01    7.522000e+00
  TP1h   Q2p  1 3.950000e-01    3.585000e+00
  TP1h  SQ2p  1 3.650000e-01    4.996000e+00
  TP1h  TQ2p  1 3.400000e-01    7.264000e+00
  TN6h   Q2p  1 3.950000e-01    3.583000e+00
  TN6h  SQ2p  1 3.650000e-01    4.985000e+00
  TN6h  TQ2p  1 3.400000e-01    7.242000e+00
  TN5h   Q2p  1 3.950000e-01    3.580000e+00
  TN5h  SQ2p  1 3.650000e-01    4.972000e+00
  TN5h  TQ2p  1 3.400000e-01    7.212000e+00
  TN4h   Q2p  1 3.950000e-01    3.577000e+00
  TN4h  SQ2p  1 3.650000e-01    4.954000e+00
  TN4h  TQ2p  1 3.400000e-01    7.172000e+00
  TN3h   Q2p  1 3.950000e-01    3.322000e+00
  TN3h  SQ2p  1 3.650000e-01    4.669000e+00
  TN3h  TQ2p  1 3.400000e-01    6.897000e+00
  TN2h   Q2p  1 3.950000e-01    3.316000e+00
  TN2h  SQ2p  1 3.650000e-01    4.632000e+00
  TN2h  TQ2p  1 3.400000e-01    6.817000e+00
  TN1h   Q2p  1 3.950000e-01    3.306000e+00
  TN1h  SQ2p  1 3.650000e-01    4.576000e+00
  TN1h  TQ2p  1 3.400000e-01    6.694000e+00
  TC6h   Q2p  1 3.950000e-01    3.048000e+00
  TC6h  SQ2p  1 3.650000e-01    4.251000e+00
  TC6h  TQ2p  1 3.400000e-01    6.224000e+00
  TC5h   Q2p  1 3.950000e-01    2.644000e+00
  TC5h  SQ2p  1 3.650000e-01    3.744000e+00
  TC5h  TQ2p  1 3.400000e-01    5.544000e+00
  TC4h   Q2p  1 3.950000e-01    2.423000e+00
  TC4h  SQ2p  1 3.650000e-01    3.468000e+00
  TC4h  TQ2p  1 3.400000e-01    5.009000e+00
  TC3h   Q2p  1 3.950000e-01    2.127000e+00
  TC3h  SQ2p  1 3.660000e-01    3.119000e+00
  TC3h  TQ2p  1 3.520000e-01    4.286000e+00
  TC2h   Q2p  1 4.040000e-01    1.073000e+00
  TC2h  SQ2p  1 4.230000e-01    2.160000e+00
  TC2h  TQ2p  1 4.380000e-01    3.064000e+00
  TC1h   Q2p  1 4.040000e-01    1.032000e+00
  TC1h  SQ2p  1 4.230000e-01    1.957000e+00
  TC1h  TQ2p  1 4.380000e-01    2.663000e+00
  TX4h   Q2p  1 3.950000e-01    2.858000e+00
  TX4h  SQ2p  1 3.650000e-01    4.076000e+00
  TX4h  TQ2p  1 3.400000e-01    6.094000e+00
  TX3h   Q2p  1 3.950000e-01    2.658000e+00
  TX3h  SQ2p  1 3.650000e-01    3.821000e+00
  TX3h  TQ2p  1 3.400000e-01    5.714000e+00
  TX2h   Q2p  1 3.950000e-01    2.435000e+00
  TX2h  SQ2p  1 3.650000e-01    3.532000e+00
  TX2h  TQ2p  1 3.400000e-01    5.151000e+00
  TX1h   Q2p  1 3.950000e-01    2.127000e+00
  TX1h  SQ2p  1 3.660000e-01    3.119000e+00
  TX1h  TQ2p  1 3.520000e-01    4.286000e+00
 TP6dh   Q2p  1 3.950000e-01    3.590000e+00
 TP6dh  SQ2p  1 3.650000e-01    5.025000e+00
 TP6dh  TQ2p  1 3.400000e-01    7.328000e+00
 TP5dh   Q2p  1 3.950000e-01    3.830000e+00
 TP5dh  SQ2p  1 3.650000e-01    5.297000e+00
 TP5dh  TQ2p  1 3.400000e-01    7.572000e+00
 TP4dh   Q2p  1 3.950000e-01    3.829000e+00
 TP4dh  SQ2p  1 3.650000e-01    5.291000e+00
 TP4dh  TQ2p  1 3.400000e-01    7.560000e+00
 TP3dh   Q2p  1 3.950000e-01    3.588000e+00
 TP3dh  SQ2p  1 3.650000e-01    5.012000e+00
 TP3dh  TQ2p  1 3.400000e-01    7.301000e+00
 TP2dh   Q2p  1 3.950000e-01    3.586000e+00
 TP2dh  SQ2p  1 3.650000e-01    5.004000e+00
 TP2dh  TQ2p  1 3.400000e-01    7.282000e+00
 TP1dh   Q2p  1 3.950000e-01    3.585000e+00
 TP1dh  SQ2p  1 3.650000e-01    4.996000e+00
 TP1dh  TQ2p  1 3.400000e-01    7.264000e+00
 TN6dh   Q2p  1 3.950000e-01    3.583000e+00
 TN6dh  SQ2p  1 3.650000e-01    4.985000e+00
 TN6dh  TQ2p  1 3.400000e-01    7.242000e+00
 TN5dh   Q2p  1 3.950000e-01    3.580000e+00
 TN5dh  SQ2p  1 3.650000e-01    4.972000e+00
 TN5dh  TQ2p  1 3.400000e-01    7.212000e+00
 TN4dh   Q2p  1 3.950000e-01    3.577000e+00
 TN4dh  SQ2p  1 3.650000e-01    4.954000e+00
 TN4dh  TQ2p  1 3.400000e-01    7.172000e+00
 TN3dh   Q2p  1 3.950000e-01    3.082000e+00
 TN3dh  SQ2p  1 3.650000e-01    4.439000e+00
 TN3dh  TQ2p  1 3.400000e-01    6.637000e+00
 TN2dh   Q2p  1 3.950000e-01    3.076000e+00
 TN2dh  SQ2p  1 3.650000e-01    4.402000e+00
 TN2dh  TQ2p  1 3.400000e-01    6.557000e+00
 TN1dh   Q2p  1 3.950000e-01    3.066000e+00
 TN1dh  SQ2p  1 3.650000e-01    4.346000e+00
 TN1dh  TQ2p  1 3.400000e-01    6.434000e+00
 TP6ah   Q2p  1 3.950000e-01    4.310000e+00
 TP6ah  SQ2p  1 3.650000e-01    5.835000e+00
 TP6ah  TQ2p  1 3.400000e-01    8.298000e+00
 TP5ah   Q2p  1 3.950000e-01    4.630000e+00
 TP5ah  SQ2p  1 3.650000e-01    6.127000e+00
 TP5ah  TQ2p  1 3.400000e-01    8.582000e+00
 TP4ah   Q2p  1 3.950000e-01    4.629000e+00
 TP4ah  SQ2p  1 3.650000e-01    6.121000e+00
 TP4ah  TQ2p  1 3.400000e-01    8.570000e+00
 TP3ah   Q2p  1 3.950000e-01    4.308000e+00
 TP3ah  SQ2p  1 3.650000e-01    5.822000e+00
 TP3ah  TQ2p  1 3.400000e-01    8.271000e+00
 TP2ah   Q2p  1 3.950000e-01    4.306000e+00
 TP2ah  SQ2p  1 3.650000e-01    5.814000e+00
 TP2ah  TQ2p  1 3.400000e-01    8.252000e+00
 TP1ah   Q2p  1 3.950000e-01    4.065000e+00
 TP1ah  SQ2p  1 3.650000e-01    5.536000e+00
 TP1ah  TQ2p  1 3.400000e-01    7.984000e+00
 TN6ah   Q2p  1 3.950000e-01    4.063000e+00
 TN6ah  SQ2p  1 3.650000e-01    5.525000e+00
 TN6ah  TQ2p  1 3.400000e-01    7.962000e+00
 TN5ah   Q2p  1 3.950000e-01    4.060000e+00
 TN5ah  SQ2p  1 3.650000e-01    5.512000e+00
 TN5ah  TQ2p  1 3.400000e-01    7.932000e+00
 TN4ah   Q2p  1 3.950000e-01    4.057000e+00
 TN4ah  SQ2p  1 3.650000e-01    5.494000e+00
 TN4ah  TQ2p  1 3.400000e-01    7.892000e+00
 TN3ah   Q2p  1 3.950000e-01    3.812000e+00
 TN3ah  SQ2p  1 3.650000e-01    5.199000e+00
 TN3ah  TQ2p  1 3.400000e-01    7.607000e+00
 TN2ah   Q2p  1 3.950000e-01    3.806000e+00
 TN2ah  SQ2p  1 3.650000e-01    5.162000e+00
 TN2ah  TQ2p  1 3.400000e-01    7.527000e+00
 TN1ah   Q2p  1 3.950000e-01    3.796000e+00
 TN1ah  SQ2p  1 3.650000e-01    5.106000e+00
 TN1ah  TQ2p  1 3.400000e-01    7.404000e+00
 TC6vh   Q2p  1 3.950000e-01    2.658000e+00
 TC6vh  SQ2p  1 3.650000e-01    3.821000e+00
 TC6vh  TQ2p  1 3.400000e-01    5.714000e+00
 TC5vh   Q2p  1 3.950000e-01    2.184000e+00
 TC5vh  SQ2p  1 3.660000e-01    3.429000e+00
 TC5vh  TQ2p  1 3.520000e-01    4.947000e+00
 TC4vh   Q2p  1 3.950000e-01    1.983000e+00
 TC4vh  SQ2p  1 3.780000e-01    3.108000e+00
 TC4vh  TQ2p  1 3.660000e-01    4.445000e+00
 TC3vh   Q2p  1 3.980000e-01    1.725000e+00
 TC3vh  SQ2p  1 3.940000e-01    2.701000e+00
 TC3vh  TQ2p  1 3.850000e-01    3.813000e+00
 TC2vh   Q2p  1 5.110000e-01    8.510000e-01
 TC2vh  SQ2p  1 5.370000e-01    1.737000e+00
 TC2vh  TQ2p  1 5.610000e-01    2.452000e+00
 TC1vh   Q2p  1 5.110000e-01    8.180000e-01
 TC1vh  SQ2p  1 5.370000e-01    1.577000e+00
 TC1vh  TQ2p  1 5.610000e-01    2.139000e+00
 TX4vh   Q2p  1 3.950000e-01    2.468000e+00
 TX4vh  SQ2p  1 3.650000e-01    3.716000e+00
 TX4vh  TQ2p  1 3.400000e-01    5.554000e+00
 TX3vh   Q2p  1 3.950000e-01    2.198000e+00
 TX3vh  SQ2p  1 3.660000e-01    3.506000e+00
 TX3vh  TQ2p  1 3.520000e-01    5.111000e+00
 TX2vh   Q2p  1 3.950000e-01    1.995000e+00
 TX2vh  SQ2p  1 3.780000e-01    3.171000e+00
 TX2vh  TQ2p  1 3.660000e-01    4.577000e+00
 TX1vh   Q2p  1 3.980000e-01    1.725000e+00
 TX1vh  SQ2p  1 3.940000e-01    2.701000e+00
 TX1vh  TQ2p  1 3.850000e-01    3.813000e+00
 TC6eh   Q2p  1 3.950000e-01    3.288000e+00
 TC6eh  SQ2p  1 3.650000e-01    4.481000e+00
 TC6eh  TQ2p  1 3.400000e-01    6.704000e+00
 TC5eh   Q2p  1 3.950000e-01    2.834000e+00
 TC5eh  SQ2p  1 3.650000e-01    3.944000e+00
 TC5eh  TQ2p  1 3.400000e-01    6.054000e+00
 TC4eh   Q2p  1 3.950000e-01    2.623000e+00
 TC4eh  SQ2p  1 3.650000e-01    3.628000e+00
 TC4eh  TQ2p  1 3.400000e-01    5.549000e+00
 TC3eh   Q2p  1 3.950000e-01    2.387000e+00
 TC3eh  SQ2p  1 3.650000e-01    3.273000e+00
 TC3eh  TQ2p  1 3.400000e-01    4.860000e+00
 TC2eh   Q2p  1 4.010000e-01    1.228000e+00
 TC2eh  SQ2p  1 4.090000e-01    2.299000e+00
 TC2eh  TQ2p  1 4.110000e-01    3.288000e+00
 TC1eh   Q2p  1 4.010000e-01    1.186000e+00
 TC1eh  SQ2p  1 4.090000e-01    2.090000e+00
 TC1eh  TQ2p  1 4.110000e-01    2.860000e+00
 TX4eh   Q2p  1 3.950000e-01    3.058000e+00
 TX4eh  SQ2p  1 3.650000e-01    4.306000e+00
 TX4eh  TQ2p  1 3.400000e-01    6.604000e+00
 TX3eh   Q2p  1 3.950000e-01    2.848000e+00
 TX3eh  SQ2p  1 3.650000e-01    4.021000e+00
 TX3eh  TQ2p  1 3.400000e-01    6.224000e+00
 TX2eh   Q2p  1 3.950000e-01    2.635000e+00
 TX2eh  SQ2p  1 3.650000e-01    3.692000e+00
 TX2eh  TQ2p  1 3.400000e-01    5.691000e+00
 TX1eh   Q2p  1 3.950000e-01    2.387000e+00
 TX1eh  SQ2p  1 3.650000e-01    3.273000e+00
 TX1eh  TQ2p  1 3.400000e-01    4.860000e+00
  TP6r   Q2p  1 3.950000e-01    3.830000e+00
  TP6r  SQ2p  1 3.650000e-01    5.295000e+00
  TP6r  TQ2p  1 3.400000e-01    7.568000e+00
  TP5r   Q2p  1 3.950000e-01    4.070000e+00
  TP5r  SQ2p  1 3.650000e-01    5.567000e+00
  TP5r  TQ2p  1 3.400000e-01    7.822000e+00
  TP4r   Q2p  1 3.950000e-01    4.069000e+00
  TP4r  SQ2p  1 3.650000e-01    5.561000e+00
  TP4r  TQ2p  1 3.400000e-01    7.810000e+00
  TP3r   Q2p  1 3.950000e-01    3.828000e+00
  TP3r  SQ2p  1 3.650000e-01    5.282000e+00
  TP3r  TQ2p  1 3.400000e-01    7.541000e+00
  TP2r   Q2p  1 3.950000e-01    3.826000e+00
  TP2r  SQ2p  1 3.650000e-01    5.274000e+00
  TP2r  TQ2p  1 3.400000e-01    7.522000e+00
  TP1r   Q2p  1 3.950000e-01    3.585000e+00
  TP1r  SQ2p  1 3.650000e-01    4.996000e+00
  TP1r  TQ2p  1 3.400000e-01    7.264000e+00
  TN6r   Q2p  1 3.950000e-01    3.583000e+00
  TN6r  SQ2p  1 3.650000e-01    4.985000e+00
  TN6r  TQ2p  1 3.400000e-01    7.242000e+00
  TN5r   Q2p  1 3.950000e-01    3.580000e+00
  TN5r  SQ2p  1 3.650000e-01    4.972000e+00
  TN5r  TQ2p  1 3.400000e-01    7.212000e+00
  TN4r   Q2p  1 3.950000e-01    3.577000e+00
  TN4r  SQ2p  1 3.650000e-01    4.954000e+00
  TN4r  TQ2p  1 3.400000e-01    7.172000e+00
  TN3r   Q2p  1 3.950000e-01    3.322000e+00
  TN3r  SQ2p  1 3.650000e-01    4.669000e+00
  TN3r  TQ2p  1 3.400000e-01    6.897000e+00
  TN2r   Q2p  1 3.950000e-01    3.316000e+00
  TN2r  SQ2p  1 3.650000e-01    4.632000e+00
  TN2r  TQ2p  1 3.400000e-01    6.817000e+00
  TN1r   Q2p  1 3.950000e-01    3.306000e+00
  TN1r  SQ2p  1 3.650000e-01    4.576000e+00
  TN1r  TQ2p  1 3.400000e-01    6.694000e+00
  TC6r   Q2p  1 3.950000e-01    3.048000e+00
  TC6r  SQ2p  1 3.650000e-01    4.251000e+00
  TC6r  TQ2p  1 3.400000e-01    6.224000e+00
  TC5r   Q2p  1 3.950000e-01    2.644000e+00
  TC5r  SQ2p  1 3.650000e-01    3.744000e+00
  TC5r  TQ2p  1 3.400000e-01    5.544000e+00
  TC4r   Q2p  1 3.950000e-01    2.423000e+00
  TC4r  SQ2p  1 3.650000e-01    3.468000e+00
  TC4r  TQ2p  1 3.400000e-01    5.009000e+00
  TC3r   Q2p  1 3.950000e-01    2.127000e+00
  TC3r  SQ2p  1 3.660000e-01    3.119000e+00
  TC3r  TQ2p  1 3.520000e-01    4.286000e+00
  TC2r   Q2p  1 4.040000e-01    1.073000e+00
  TC2r  SQ2p  1 4.230000e-01    2.160000e+00
  TC2r  TQ2p  1 4.380000e-01    3.064000e+00
  TC1r   Q2p  1 4.040000e-01    1.032000e+00
  TC1r  SQ2p  1 4.230000e-01    1.957000e+00
  TC1r  TQ2p  1 4.380000e-01    2.663000e+00
  TX4r   Q2p  1 3.950000e-01    2.858000e+00
  TX4r  SQ2p  1 3.650000e-01    4.076000e+00
  TX4r  TQ2p  1 3.400000e-01    6.094000e+00
  TX3r   Q2p  1 3.950000e-01    2.658000e+00
  TX3r  SQ2p  1 3.650000e-01    3.821000e+00
  TX3r  TQ2p  1 3.400000e-01    5.714000e+00
  TX2r   Q2p  1 3.950000e-01    2.435000e+00
  TX2r  SQ2p  1 3.650000e-01    3.532000e+00
  TX2r  TQ2p  1 3.400000e-01    5.151000e+00
  TX1r   Q2p  1 3.950000e-01    2.127000e+00
  TX1r  SQ2p  1 3.660000e-01    3.119000e+00
  TX1r  TQ2p  1 3.520000e-01    4.286000e+00
 TP6dr   Q2p  1 3.950000e-01    3.590000e+00
 TP6dr  SQ2p  1 3.650000e-01    5.025000e+00
 TP6dr  TQ2p  1 3.400000e-01    7.328000e+00
 TP5dr   Q2p  1 3.950000e-01    3.830000e+00
 TP5dr  SQ2p  1 3.650000e-01    5.297000e+00
 TP5dr  TQ2p  1 3.400000e-01    7.572000e+00
 TP4dr   Q2p  1 3.950000e-01    3.829000e+00
 TP4dr  SQ2p  1 3.650000e-01    5.291000e+00
 TP4dr  TQ2p  1 3.400000e-01    7.560000e+00
 TP3dr   Q2p  1 3.950000e-01    3.588000e+00
 TP3dr  SQ2p  1 3.650000e-01    5.012000e+00
 TP3dr  TQ2p  1 3.400000e-01    7.301000e+00
 TP2dr   Q2p  1 3.950000e-01    3.586000e+00
 TP2dr  SQ2p  1 3.650000e-01    5.004000e+00
 TP2dr  TQ2p  1 3.400000e-01    7.282000e+00
 TP1dr   Q2p  1 3.950000e-01    3.585000e+00
 TP1dr  SQ2p  1 3.650000e-01    4.996000e+00
 TP1dr  TQ2p  1 3.400000e-01    7.264000e+00
 TN6dr   Q2p  1 3.950000e-01    3.583000e+00
 TN6dr  SQ2p  1 3.650000e-01    4.985000e+00
 TN6dr  TQ2p  1 3.400000e-01    7.242000e+00
 TN5dr   Q2p  1 3.950000e-01    3.580000e+00
 TN5dr  SQ2p  1 3.650000e-01    4.972000e+00
 TN5dr  TQ2p  1 3.400000e-01    7.212000e+00
 TN4dr   Q2p  1 3.950000e-01    3.577000e+00
 TN4dr  SQ2p  1 3.650000e-01    4.954000e+00
 TN4dr  TQ2p  1 3.400000e-01    7.172000e+00
 TN3dr   Q2p  1 3.950000e-01    3.082000e+00
 TN3dr  SQ2p  1 3.650000e-01    4.439000e+00
 TN3dr  TQ2p  1 3.400000e-01    6.637000e+00
 TN2dr   Q2p  1 3.950000e-01    3.076000e+00
 TN2dr  SQ2p  1 3.650000e-01    4.402000e+00
 TN2dr  TQ2p  1 3.400000e-01    6.557000e+00
 TN1dr   Q2p  1 3.950000e-01    3.066000e+00
 TN1dr  SQ2p  1 3.650000e-01    4.346000e+00
 TN1dr  TQ2p  1 3.400000e-01    6.434000e+00
 TP6ar   Q2p  1 3.950000e-01    4.310000e+00
 TP6ar  SQ2p  1 3.650000e-01    5.835000e+00
 TP6ar  TQ2p  1 3.400000e-01    8.298000e+00
 TP5ar   Q2p  1 3.950000e-01    4.630000e+00
 TP5ar  SQ2p  1 3.650000e-01    6.127000e+00
 TP5ar  TQ2p  1 3.400000e-01    8.582000e+00
 TP4ar   Q2p  1 3.950000e-01    4.629000e+00
 TP4ar  SQ2p  1 3.650000e-01    6.121000e+00
 TP4ar  TQ2p  1 3.400000e-01    8.570000e+00
 TP3ar   Q2p  1 3.950000e-01    4.308000e+00
 TP3ar  SQ2p  1 3.650000e-01    5.822000e+00
 TP3ar  TQ2p  1 3.400000e-01    8.271000e+00
 TP2ar   Q2p  1 3.950000e-01    4.306000e+00
 TP2ar  SQ2p  1 3.650000e-01    5.814000e+00
 TP2ar  TQ2p  1 3.400000e-01    8.252000e+00
 TP1ar   Q2p  1 3.950000e-01    4.065000e+00
 TP1ar  SQ2p  1 3.650000e-01    5.536000e+00
 TP1ar  TQ2p  1 3.400000e-01    7.984000e+00
 TN6ar   Q2p  1 3.950000e-01    4.063000e+00
 TN6ar  SQ2p  1 3.650000e-01    5.525000e+00
 TN6ar  TQ2p  1 3.400000e-01    7.962000e+00
 TN5ar   Q2p  1 3.950000e-01    4.060000e+00
 TN5ar  SQ2p  1 3.650000e-01    5.512000e+00
 TN5ar  TQ2p  1 3.400000e-01    7.932000e+00
 TN4ar   Q2p  1 3.950000e-01    4.057000e+00
 TN4ar  SQ2p  1 3.650000e-01    5.494000e+00
 TN4ar  TQ2p  1 3.400000e-01    7.892000e+00
 TN3ar   Q2p  1 3.950000e-01    3.812000e+00
 TN3ar  SQ2p  1 3.650000e-01    5.199000e+00
 TN3ar  TQ2p  1 3.400000e-01    7.607000e+00
 TN2ar   Q2p  1 3.950000e-01    3.806000e+00
 TN2ar  SQ2p  1 3.650000e-01    5.162000e+00
 TN2ar  TQ2p  1 3.400000e-01    7.527000e+00
 TN1ar   Q2p  1 3.950000e-01    3.796000e+00
 TN1ar  SQ2p  1 3.650000e-01    5.106000e+00
 TN1ar  TQ2p  1 3.400000e-01    7.404000e+00
 TC6vr   Q2p  1 3.950000e-01    2.658000e+00
 TC6vr  SQ2p  1 3.650000e-01    3.821000e+00
 TC6vr  TQ2p  1 3.400000e-01    5.714000e+00
 TC5vr   Q2p  1 3.950000e-01    2.184000e+00
 TC5vr  SQ2p  1 3.660000e-01    3.429000e+00
 TC5vr  TQ2p  1 3.520000e-01    4.947000e+00
 TC4vr   Q2p  1 3.950000e-01    1.983000e+00
 TC4vr  SQ2p  1 3.780000e-01    3.108000e+00
 TC4vr  TQ2p  1 3.660000e-01    4.445000e+00
 TC3vr   Q2p  1 3.980000e-01    1.725000e+00
 TC3vr  SQ2p  1 3.940000e-01    2.701000e+00
 TC3vr  TQ2p  1 3.850000e-01    3.813000e+00
 TC2vr   Q2p  1 5.110000e-01    8.510000e-01
 TC2vr  SQ2p  1 5.370000e-01    1.737000e+00
 TC2vr  TQ2p  1 5.610000e-01    2.452000e+00
 TC1vr   Q2p  1 5.110000e-01    8.180000e-01
 TC1vr  SQ2p  1 5.370000e-01    1.577000e+00
 TC1vr  TQ2p  1 5.610000e-01    2.139000e+00
 TX4vr   Q2p  1 3.950000e-01    2.468000e+00
 TX4vr  SQ2p  1 3.650000e-01    3.716000e+00
 TX4vr  TQ2p  1 3.400000e-01    5.554000e+00
 TX3vr   Q2p  1 3.950000e-01    2.198000e+00
 TX3vr  SQ2p  1 3.660000e-01    3.506000e+00
 TX3vr  TQ2p  1 3.520000e-01    5.111000e+00
 TX2vr   Q2p  1 3.950000e-01    1.995000e+00
 TX2vr  SQ2p  1 3.780000e-01    3.171000e+00
 TX2vr  TQ2p  1 3.660000e-01    4.577000e+00
 TX1vr   Q2p  1 3.980000e-01    1.725000e+00
 TX1vr  SQ2p  1 3.940000e-01    2.701000e+00
 TX1vr  TQ2p  1 3.850000e-01    3.813000e+00
 TC6er   Q2p  1 3.950000e-01    3.288000e+00
 TC6er  SQ2p  1 3.650000e-01    4.481000e+00
 TC6er  TQ2p  1 3.400000e-01    6.704000e+00
 TC5er   Q2p  1 3.950000e-01    2.834000e+00
 TC5er  SQ2p  1 3.650000e-01    3.944000e+00
 TC5er  TQ2p  1 3.400000e-01    6.054000e+00
 TC4er   Q2p  1 3.950000e-01    2.623000e+00
 TC4er  SQ2p  1 3.650000e-01    3.628000e+00
 TC4er  TQ2p  1 3.400000e-01    5.549000e+00
 TC3er   Q2p  1 3.950000e-01    2.387000e+00
 TC3er  SQ2p  1 3.650000e-01    3.273000e+00
 TC3er  TQ2p  1 3.400000e-01    4.860000e+00
 TC2er   Q2p  1 4.010000e-01    1.228000e+00
 TC2er  SQ2p  1 4.090000e-01    2.299000e+00
 TC2er  TQ2p  1 4.110000e-01    3.288000e+00
 TC1er   Q2p  1 4.010000e-01    1.186000e+00
 TC1er  SQ2p  1 4.090000e-01    2.090000e+00
 TC1er  TQ2p  1 4.110000e-01    2.860000e+00
 TX4er   Q2p  1 3.950000e-01    3.058000e+00
 TX4er  SQ2p  1 3.650000e-01    4.306000e+00
 TX4er  TQ2p  1 3.400000e-01    6.604000e+00
 TX3er   Q2p  1 3.950000e-01    2.848000e+00
 TX3er  SQ2p  1 3.650000e-01    4.021000e+00
 TX3er  TQ2p  1 3.400000e-01    6.224000e+00
 TX2er   Q2p  1 3.950000e-01    2.635000e+00
 TX2er  SQ2p  1 3.650000e-01    3.692000e+00
 TX2er  TQ2p  1 3.400000e-01    5.691000e+00
 TX1er   Q2p  1 3.950000e-01    2.387000e+00
 TX1er  SQ2p  1 3.650000e-01    3.273000e+00
 TX1er  TQ2p  1 3.400000e-01    4.860000e+00
    P6   Q2n  1 4.700000e-01    5.180000e+00
    P6  SQ2n  1 4.300000e-01    6.731000e+00
    P6  TQ2n  1 3.950000e-01    9.592000e+00
    P5   Q2n  1 4.700000e-01    5.424000e+00
    P5  SQ2n  1 4.300000e-01    6.939000e+00
    P5  TQ2n  1 3.950000e-01    9.782000e+00
    P4   Q2n  1 4.700000e-01    5.416000e+00
    P4  SQ2n  1 4.300000e-01    6.908000e+00
    P4  TQ2n  1 3.950000e-01    9.709000e+00
    P3   Q2n  1 4.700000e-01    5.159000e+00
    P3  SQ2n  1 4.300000e-01    6.654000e+00
    P3  TQ2n  1 3.950000e-01    9.414000e+00
    P2   Q2n  1 4.700000e-01    5.154000e+00
    P2  SQ2n  1 4.300000e-01    6.635000e+00
    P2  TQ2n  1 3.950000e-01    9.370000e+00
    P1   Q2n  1 4.700000e-01    4.920000e+00
    P1  SQ2n  1 4.300000e-01    6.419000e+00
    P1  TQ2n  1 3.950000e-01    9.094000e+00
    N6   Q2n  1 4.700000e-01    4.915000e+00
    N6  SQ2n  1 4.300000e-01    6.401000e+00
    N6  TQ2n  1 3.950000e-01    9.051000e+00
    N5   Q2n  1 4.700000e-01    4.908000e+00
    N5  SQ2n  1 4.300000e-01    6.377000e+00
    N5  TQ2n  1 3.950000e-01    8.997000e+00
    N4   Q2n  1 4.700000e-01    4.900000e+00
    N4  SQ2n  1 4.300000e-01    6.348000e+00
    N4  TQ2n  1 3.950000e-01    8.929000e+00
    N3   Q2n  1 4.700000e-01    4.700000e+00
    N3  SQ2n  1 4.300000e-01    6.109000e+00
    N3  TQ2n  1 3.950000e-01    8.600000e+00
    N2   Q2n  1 4.700000e-01    4.685000e+00
    N2  SQ2n  1 4.300000e-01    6.055000e+00
    N2  TQ2n  1 3.950000e-01    8.475000e+00
    N1   Q2n  1 4.700000e-01    4.663000e+00
    N1  SQ2n  1 4.300000e-01    5.975000e+00
    N1  TQ2n  1 3.950000e-01    8.289000e+00
    C6   Q2n  1 4.700000e-01    4.087000e+00
    C6  SQ2n  1 4.300000e-01    5.232000e+00
    C6  TQ2n  1 3.950000e-01    7.291000e+00
    C5   Q2n  1 4.700000e-01    3.778000e+00
    C5  SQ2n  1 4.300000e-01    4.736000e+00
    C5  TQ2n  1 3.950000e-01    6.656000e+00
    C4   Q2n  1 4.700000e-01    3.564000e+00
    C4  SQ2n  1 4.300000e-01    4.337000e+00
    C4  TQ2n  1 3.950000e-01    6.028000e+00
    C3   Q2n  1 4.700000e-01    3.382000e+00
    C3  SQ2n  1 4.300000e-01    3.862000e+00
    C3  TQ2n  1 3.950000e-01    5.236000e+00
    C2   Q2n  1 5.200000e-01    2.449000e+00
    C2  SQ2n  1 4.730000e-01    2.490000e+00
    C2  TQ2n  1 4.650000e-01    3.317000e+00
    C1   Q2n  1 5.200000e-01    2.370000e+00
    C1  SQ2n  1 4.730000e-01    2.201000e+00
    C1  TQ2n  1 4.650000e-01    2.694000e+00
    X4   Q2n  1 4.700000e-01    3.977000e+00
    X4  SQ2n  1 4.300000e-01    5.068000e+00
    X4  TQ2n  1 3.950000e-01    7.277000e+00
    X3   Q2n  1 4.700000e-01    3.807000e+00
    X3  SQ2n  1 4.300000e-01    4.842000e+00
    X3  TQ2n  1 3.950000e-01    6.901000e+00
    X2   Q2n  1 4.700000e-01    3.588000e+00
    X2  SQ2n  1 4.300000e-01    4.425000e+00
    X2  TQ2n  1 3.950000e-01    6.232000e+00
    X1   Q2n  1 4.700000e-01    3.382000e+00
    X1  SQ2n  1 4.300000e-01    3.862000e+00
    X1  TQ2n  1 3.950000e-01    5.236000e+00
   P6d   Q2n  1 4.700000e-01    5.180000e+00
   P6d  SQ2n  1 4.300000e-01    6.731000e+00
   P6d  TQ2n  1 3.950000e-01    9.832000e+00
   P5d   Q2n  1 4.700000e-01    5.424000e+00
   P5d  SQ2n  1 4.300000e-01    6.939000e+00
   P5d  TQ2n  1 3.950000e-01    1.010200e+01
   P4d   Q2n  1 4.700000e-01    5.416000e+00
   P4d  SQ2n  1 4.300000e-01    6.908000e+00
   P4d  TQ2n  1 3.950000e-01    1.002900e+01
   P3d   Q2n  1 4.700000e-01    5.159000e+00
   P3d  SQ2n  1 4.300000e-01    6.654000e+00
   P3d  TQ2n  1 3.950000e-01    9.654000e+00
   P2d   Q2n  1 4.700000e-01    5.154000e+00
   P2d  SQ2n  1 4.300000e-01    6.635000e+00
   P2d  TQ2n  1 3.950000e-01    9.610000e+00
   P1d   Q2n  1 4.700000e-01    4.920000e+00
   P1d  SQ2n  1 4.300000e-01    6.419000e+00
   P1d  TQ2n  1 3.950000e-01    9.334000e+00
   N6d   Q2n  1 4.700000e-01    4.915000e+00
   N6d  SQ2n  1 4.300000e-01    6.401000e+00
   N6d  TQ2n  1 3.950000e-01    9.291000e+00
   N5d   Q2n  1 4.700000e-01    4.908000e+00
   N5d  SQ2n  1 4.300000e-01    6.377000e+00
   N5d  TQ2n  1 3.950000e-01    9.237000e+00
   N4d   Q2n  1 4.700000e-01    4.900000e+00
   N4d  SQ2n  1 4.300000e-01    6.348000e+00
   N4d  TQ2n  1 3.950000e-01    9.169000e+00
   N3d   Q2n  1 4.700000e-01    4.700000e+00
   N3d  SQ2n  1 4.300000e-01    6.109000e+00
   N3d  TQ2n  1 3.950000e-01    8.840000e+00
   N2d   Q2n  1 4.700000e-01    4.685000e+00
   N2d  SQ2n  1 4.300000e-01    6.055000e+00
   N2d  TQ2n  1 3.950000e-01    8.715000e+00
   N1d   Q2n  1 4.700000e-01    4.663000e+00
   N1d  SQ2n  1 4.300000e-01    5.975000e+00
   N1d  TQ2n  1 3.950000e-01    8.529000e+00
   P6a   Q2n  1 4.700000e-01    4.580000e+00
   P6a  SQ2n  1 4.300000e-01    6.151000e+00
   P6a  TQ2n  1 3.950000e-01    9.112000e+00
   P5a   Q2n  1 4.700000e-01    4.754000e+00
   P5a  SQ2n  1 4.300000e-01    6.309000e+00
   P5a  TQ2n  1 3.950000e-01    9.302000e+00
   P4a   Q2n  1 4.700000e-01    4.746000e+00
   P4a  SQ2n  1 4.300000e-01    6.278000e+00
   P4a  TQ2n  1 3.950000e-01    9.229000e+00
   P3a   Q2n  1 4.700000e-01    4.559000e+00
   P3a  SQ2n  1 4.300000e-01    6.074000e+00
   P3a  TQ2n  1 3.950000e-01    8.934000e+00
   P2a   Q2n  1 4.700000e-01    4.554000e+00
   P2a  SQ2n  1 4.300000e-01    6.055000e+00
   P2a  TQ2n  1 3.950000e-01    8.890000e+00
   P1a   Q2n  1 4.700000e-01    4.360000e+00
   P1a  SQ2n  1 4.300000e-01    5.829000e+00
   P1a  TQ2n  1 3.950000e-01    8.604000e+00
   N6a   Q2n  1 4.700000e-01    4.355000e+00
   N6a  SQ2n  1 4.300000e-01    5.811000e+00
   N6a  TQ2n  1 3.950000e-01    8.561000e+00
   N5a   Q2n  1 4.700000e-01    4.348000e+00
   N5a  SQ2n  1 4.300000e-01    5.787000e+00
   N5a  TQ2n  1 3.950000e-01    8.507000e+00
   N4a   Q2n  1 4.700000e-01    4.340000e+00
   N4a  SQ2n  1 4.300000e-01    5.758000e+00
   N4a  TQ2n  1 3.950000e-01    8.439000e+00
   N3a   Q2n  1 4.700000e-01    4.160000e+00
   N3a  SQ2n  1 4.300000e-01    5.499000e+00
   N3a  TQ2n  1 3.950000e-01    8.110000e+00
   N2a   Q2n  1 4.700000e-01    4.145000e+00
   N2a  SQ2n  1 4.300000e-01    5.445000e+00
   N2a  TQ2n  1 3.950000e-01    7.985000e+00
   N1a   Q2n  1 4.700000e-01    4.123000e+00
   N1a  SQ2n  1 4.300000e-01    5.365000e+00
   N1a  TQ2n  1 3.950000e-01    7.799000e+00
   C6v   Q2n  1 4.700000e-01    4.257000e+00
   C6v  SQ2n  1 4.300000e-01    5.452000e+00
   C6v  TQ2n  1 3.950000e-01    7.731000e+00
   C5v   Q2n  1 4.700000e-01    3.928000e+00
   C5v  SQ2n  1 4.300000e-01    4.896000e+00
   C5v  TQ2n  1 3.950000e-01    7.046000e+00
   C4v   Q2n  1 4.700000e-01    3.734000e+00
   C4v  SQ2n  1 4.300000e-01    4.727000e+00
   C4v  TQ2n  1 3.950000e-01    6.488000e+00
   C3v   Q2n  1 4.700000e-01    3.492000e+00
   C3v  SQ2n  1 4.300000e-01    4.072000e+00
   C3v  TQ2n  1 3.950000e-01    5.676000e+00
   C2v   Q2n  1 4.850000e-01    2.593000e+00
   C2v  SQ2n  1 4.430000e-01    2.772000e+00
   C2v  TQ2n  1 4.010000e-01    4.014000e+00
   C1v   Q2n  1 4.850000e-01    2.509000e+00
   C1v  SQ2n  1 4.430000e-01    2.464000e+00
   C1v  TQ2n  1 4.010000e-01    3.292000e+00
   X4v   Q2n  1 4.700000e-01    4.107000e+00
   X4v  SQ2n  1 4.300000e-01    5.308000e+00
   X4v  TQ2n  1 3.950000e-01    7.667000e+00
   X3v   Q2n  1 4.700000e-01    3.957000e+00
   X3v  SQ2n  1 4.300000e-01    5.002000e+00
   X3v  TQ2n  1 3.950000e-01    7.291000e+00
   X2v   Q2n  1 4.700000e-01    3.758000e+00
   X2v  SQ2n  1 4.300000e-01    4.815000e+00
   X2v  TQ2n  1 3.950000e-01    6.692000e+00
   X1v   Q2n  1 4.700000e-01    3.492000e+00
   X1v  SQ2n  1 4.300000e-01    4.072000e+00
   X1v  TQ2n  1 3.950000e-01    5.676000e+00
   C6e   Q2n  1 4.700000e-01    3.807000e+00
   C6e  SQ2n  1 4.300000e-01    4.992000e+00
   C6e  TQ2n  1 3.950000e-01    7.101000e+00
   C5e   Q2n  1 4.700000e-01    3.498000e+00
   C5e  SQ2n  1 4.300000e-01    4.286000e+00
   C5e  TQ2n  1 3.950000e-01    6.396000e+00
   C4e   Q2n  1 4.700000e-01    3.284000e+00
   C4e  SQ2n  1 4.300000e-01    3.967000e+00
   C4e  TQ2n  1 3.950000e-01    5.848000e+00
   C3e   Q2n  1 4.700000e-01    3.042000e+00
   C3e  SQ2n  1 4.300000e-01    3.472000e+00
   C3e  TQ2n  1 3.980000e-01    4.989000e+00
   C2e   Q2n  1 6.200000e-01    2.236000e+00
   C2e  SQ2n  1 5.140000e-01    2.223000e+00
   C2e  TQ2n  1 5.110000e-01    3.038000e+00
   C1e   Q2n  1 6.200000e-01    2.170000e+00
   C1e  SQ2n  1 5.140000e-01    1.958000e+00
   C1e  TQ2n  1 5.110000e-01    2.471000e+00
   X4e   Q2n  1 4.700000e-01    3.657000e+00
   X4e  SQ2n  1 4.300000e-01    4.678000e+00
   X4e  TQ2n  1 3.950000e-01    7.077000e+00
   X3e   Q2n  1 4.700000e-01    3.527000e+00
   X3e  SQ2n  1 4.300000e-01    4.392000e+00
   X3e  TQ2n  1 3.950000e-01    6.641000e+00
   X2e   Q2n  1 4.700000e-01    3.308000e+00
   X2e  SQ2n  1 4.300000e-01    4.055000e+00
   X2e  TQ2n  1 3.950000e-01    6.052000e+00
   X1e   Q2n  1 4.700000e-01    3.042000e+00
   X1e  SQ2n  1 4.300000e-01    3.472000e+00
   X1e  TQ2n  1 3.980000e-01    4.989000e+00
   P6q   Q2n  1 4.700000e-01    5.940000e+00
   P6q  SQ2n  1 4.300000e-01    7.481000e+00
   P6q  TQ2n  1 3.950000e-01    1.046200e+01
   P5q   Q2n  1 4.700000e-01    6.184000e+00
   P5q  SQ2n  1 4.300000e-01    7.749000e+00
   P5q  TQ2n  1 3.950000e-01    1.074200e+01
   P4q   Q2n  1 4.700000e-01    6.176000e+00
   P4q  SQ2n  1 4.300000e-01    7.718000e+00
   P4q  TQ2n  1 3.950000e-01    1.066900e+01
   P3q   Q2n  1 4.700000e-01    5.919000e+00
   P3q  SQ2n  1 4.300000e-01    7.404000e+00
   P3q  TQ2n  1 3.950000e-01    1.028400e+01
   P2q   Q2n  1 4.700000e-01    5.914000e+00
   P2q  SQ2n  1 4.300000e-01    7.385000e+00
   P2q  TQ2n  1 3.950000e-01    1.024000e+01
   P1q   Q2n  1 4.700000e-01    5.660000e+00
   P1q  SQ2n  1 4.300000e-01    7.129000e+00
   P1q  TQ2n  1 3.950000e-01    9.894000e+00
   N6q   Q2n  1 4.700000e-01    5.655000e+00
   N6q  SQ2n  1 4.300000e-01    7.111000e+00
   N6q  TQ2n  1 3.950000e-01    9.851000e+00
   N5q   Q2n  1 4.700000e-01    5.648000e+00
   N5q  SQ2n  1 4.300000e-01    7.087000e+00
   N5q  TQ2n  1 3.950000e-01    9.797000e+00
   N4q   Q2n  1 4.700000e-01    5.640000e+00
   N4q  SQ2n  1 4.300000e-01    7.058000e+00
   N4q  TQ2n  1 3.950000e-01    9.729000e+00
   N3q   Q2n  1 4.700000e-01    5.370000e+00
   N3q  SQ2n  1 4.300000e-01    6.739000e+00
   N3q  TQ2n  1 3.950000e-01    9.320000e+00
   N2q   Q2n  1 4.700000e-01    5.355000e+00
   N2q  SQ2n  1 4.300000e-01    6.685000e+00
   N2q  TQ2n  1 3.950000e-01    9.195000e+00
   N1q   Q2n  1 4.700000e-01    5.333000e+00
   N1q  SQ2n  1 4.300000e-01    6.605000e+00
   N1q  TQ2n  1 3.950000e-01    9.009000e+00
   C6q   Q2n  1 4.700000e-01    4.627000e+00
   C6q  SQ2n  1 4.300000e-01    5.842000e+00
   C6q  TQ2n  1 3.950000e-01    7.981000e+00
   C5q   Q2n  1 4.700000e-01    4.228000e+00
   C5q  SQ2n  1 4.300000e-01    5.346000e+00
   C5q  TQ2n  1 3.950000e-01    7.246000e+00
   C4q   Q2n  1 4.700000e-01    4.014000e+00
   C4q  SQ2n  1 4.300000e-01    4.967000e+00
   C4q  TQ2n  1 3.950000e-01    6.678000e+00
   C3q   Q2n  1 4.700000e-01    3.812000e+00
   C3q  SQ2n  1 4.300000e-01    4.462000e+00
   C3q  TQ2n  1 3.950000e-01    5.876000e+00
   C2q   Q2n  1 4.700000e-01    2.984000e+00
   C2q  SQ2n  1 4.300000e-01    3.261000e+00
   C2q  TQ2n  1 3.990000e-01    4.226000e+00
   C1q   Q2n  1 4.700000e-01    2.897000e+00
   C1q  SQ2n  1 4.300000e-01    2.943000e+00
   C1q  TQ2n  1 3.990000e-01    3.500000e+00
   X4q   Q2n  1 4.700000e-01    4.467000e+00
   X4q  SQ2n  1 4.300000e-01    5.738000e+00
   X4q  TQ2n  1 3.950000e-01    7.907000e+00
   X3q   Q2n  1 4.700000e-01    4.257000e+00
   X3q  SQ2n  1 4.300000e-01    5.452000e+00
   X3q  TQ2n  1 3.950000e-01    7.491000e+00
   X2q   Q2n  1 4.700000e-01    4.038000e+00
   X2q  SQ2n  1 4.300000e-01    5.055000e+00
   X2q  TQ2n  1 3.950000e-01    6.882000e+00
   X1q   Q2n  1 4.700000e-01    3.812000e+00
   X1q  SQ2n  1 4.300000e-01    4.462000e+00
   X1q  TQ2n  1 3.950000e-01    5.876000e+00
  P6dq   Q2n  1 4.700000e-01    5.940000e+00
  P6dq  SQ2n  1 4.300000e-01    7.481000e+00
  P6dq  TQ2n  1 3.950000e-01    1.079200e+01
  P5dq   Q2n  1 4.700000e-01    6.184000e+00
  P5dq  SQ2n  1 4.300000e-01    7.749000e+00
  P5dq  TQ2n  1 3.950000e-01    1.114200e+01
  P4dq   Q2n  1 4.700000e-01    6.176000e+00
  P4dq  SQ2n  1 4.300000e-01    7.718000e+00
  P4dq  TQ2n  1 3.950000e-01    1.106900e+01
  P3dq   Q2n  1 4.700000e-01    5.919000e+00
  P3dq  SQ2n  1 4.300000e-01    7.404000e+00
  P3dq  TQ2n  1 3.950000e-01    1.061400e+01
  P2dq   Q2n  1 4.700000e-01    5.914000e+00
  P2dq  SQ2n  1 4.300000e-01    7.385000e+00
  P2dq  TQ2n  1 3.950000e-01    1.057000e+01
  P1dq   Q2n  1 4.700000e-01    5.660000e+00
  P1dq  SQ2n  1 4.300000e-01    7.129000e+00
  P1dq  TQ2n  1 3.950000e-01    1.020400e+01
  N6dq   Q2n  1 4.700000e-01    5.655000e+00
  N6dq  SQ2n  1 4.300000e-01    7.111000e+00
  N6dq  TQ2n  1 3.950000e-01    1.016100e+01
  N5dq   Q2n  1 4.700000e-01    5.648000e+00
  N5dq  SQ2n  1 4.300000e-01    7.087000e+00
  N5dq  TQ2n  1 3.950000e-01    1.010700e+01
  N4dq   Q2n  1 4.700000e-01    5.640000e+00
  N4dq  SQ2n  1 4.300000e-01    7.058000e+00
  N4dq  TQ2n  1 3.950000e-01    1.003900e+01
  N3dq   Q2n  1 4.700000e-01    5.370000e+00
  N3dq  SQ2n  1 4.300000e-01    6.739000e+00
  N3dq  TQ2n  1 3.950000e-01    9.640000e+00
  N2dq   Q2n  1 4.700000e-01    5.355000e+00
  N2dq  SQ2n  1 4.300000e-01    6.685000e+00
  N2dq  TQ2n  1 3.950000e-01    9.515000e+00
  N1dq   Q2n  1 4.700000e-01    5.333000e+00
  N1dq  SQ2n  1 4.300000e-01    6.605000e+00
  N1dq  TQ2n  1 3.950000e-01    9.329000e+00
  P6aq   Q2n  1 4.700000e-01    5.180000e+00
  P6aq  SQ2n  1 4.300000e-01    6.731000e+00
  P6aq  TQ2n  1 3.950000e-01    9.832000e+00
  P5aq   Q2n  1 4.700000e-01    5.424000e+00
  P5aq  SQ2n  1 4.300000e-01    6.939000e+00
  P5aq  TQ2n  1 3.950000e-01    1.010200e+01
  P4aq   Q2n  1 4.700000e-01    5.416000e+00
  P4aq  SQ2n  1 4.300000e-01    6.908000e+00
  P4aq  TQ2n  1 3.950000e-01    1.002900e+01
  P3aq   Q2n  1 4.700000e-01    5.159000e+00
  P3aq  SQ2n  1 4.300000e-01    6.654000e+00
  P3aq  TQ2n  1 3.950000e-01    9.654000e+00
  P2aq   Q2n  1 4.700000e-01    5.154000e+00
  P2aq  SQ2n  1 4.300000e-01    6.635000e+00
  P2aq  TQ2n  1 3.950000e-01    9.610000e+00
  P1aq   Q2n  1 4.700000e-01    4.920000e+00
  P1aq  SQ2n  1 4.300000e-01    6.419000e+00
  P1aq  TQ2n  1 3.950000e-01    9.334000e+00
  N6aq   Q2n  1 4.700000e-01    4.915000e+00
  N6aq  SQ2n  1 4.300000e-01    6.401000e+00
  N6aq  TQ2n  1 3.950000e-01    9.291000e+00
  N5aq   Q2n  1 4.700000e-01    4.908000e+00
  N5aq  SQ2n  1 4.300000e-01    6.377000e+00
  N5aq  TQ2n  1 3.950000e-01    9.237000e+00
  N4aq   Q2n  1 4.700000e-01    4.900000e+00
  N4aq  SQ2n  1 4.300000e-01    6.348000e+00
  N4aq  TQ2n  1 3.950000e-01    9.169000e+00
  N3aq   Q2n  1 4.700000e-01    4.700000e+00
  N3aq  SQ2n  1 4.300000e-01    6.109000e+00
  N3aq  TQ2n  1 3.950000e-01    8.840000e+00
  N2aq   Q2n  1 4.700000e-01    4.685000e+00
  N2aq  SQ2n  1 4.300000e-01    6.055000e+00
  N2aq  TQ2n  1 3.950000e-01    8.715000e+00
  N1aq   Q2n  1 4.700000e-01    4.663000e+00
  N1aq  SQ2n  1 4.300000e-01    5.975000e+00
  N1aq  TQ2n  1 3.950000e-01    8.529000e+00
  C6vq   Q2n  1 4.700000e-01    4.817000e+00
  C6vq  SQ2n  1 4.300000e-01    6.042000e+00
  C6vq  TQ2n  1 3.950000e-01    8.461000e+00
  C5vq   Q2n  1 4.700000e-01    4.418000e+00
  C5vq  SQ2n  1 4.300000e-01    5.556000e+00
  C5vq  TQ2n  1 3.950000e-01    7.736000e+00
  C4vq   Q2n  1 4.700000e-01    4.184000e+00
  C4vq  SQ2n  1 4.300000e-01    5.187000e+00
  C4vq  TQ2n  1 3.950000e-01    7.118000e+00
  C3vq   Q2n  1 4.700000e-01    3.942000e+00
  C3vq  SQ2n  1 4.300000e-01    4.702000e+00
  C3vq  TQ2n  1 3.950000e-01    6.266000e+00
  C2vq   Q2n  1 4.700000e-01    3.154000e+00
  C2vq  SQ2n  1 4.300000e-01    3.491000e+00
  C2vq  TQ2n  1 3.950000e-01    4.747000e+00
  C1vq   Q2n  1 4.700000e-01    3.067000e+00
  C1vq  SQ2n  1 4.300000e-01    3.173000e+00
  C1vq  TQ2n  1 3.950000e-01    4.014000e+00
  X4vq   Q2n  1 4.700000e-01    4.647000e+00
  X4vq  SQ2n  1 4.300000e-01    5.918000e+00
  X4vq  TQ2n  1 3.950000e-01    8.397000e+00
  X3vq   Q2n  1 4.700000e-01    4.447000e+00
  X3vq  SQ2n  1 4.300000e-01    5.662000e+00
  X3vq  TQ2n  1 3.950000e-01    7.981000e+00
  X2vq   Q2n  1 4.700000e-01    4.208000e+00
  X2vq  SQ2n  1 4.300000e-01    5.275000e+00
  X2vq  TQ2n  1 3.950000e-01    7.322000e+00
  X1vq   Q2n  1 4.700000e-01    3.942000e+00
  X1vq  SQ2n  1 4.300000e-01    4.702000e+00
  X1vq  TQ2n  1 3.950000e-01    6.266000e+00
  C6eq   Q2n  1 4.700000e-01    4.257000e+00
  C6eq  SQ2n  1 4.300000e-01    5.452000e+00
  C6eq  TQ2n  1 3.950000e-01    7.731000e+00
  C5eq   Q2n  1 4.700000e-01    3.928000e+00
  C5eq  SQ2n  1 4.300000e-01    4.896000e+00
  C5eq  TQ2n  1 3.950000e-01    7.046000e+00
  C4eq   Q2n  1 4.700000e-01    3.734000e+00
  C4eq  SQ2n  1 4.300000e-01    4.727000e+00
  C4eq  TQ2n  1 3.950000e-01    6.488000e+00
  C3eq   Q2n  1 4.700000e-01    3.492000e+00
  C3eq  SQ2n  1 4.300000e-01    4.072000e+00
  C3eq  TQ2n  1 3.950000e-01    5.676000e+00
  C2eq   Q2n  1 4.850000e-01    2.593000e+00
  C2eq  SQ2n  1 4.430000e-01    2.772000e+00
  C2eq  TQ2n  1 4.010000e-01    4.014000e+00
  C1eq   Q2n  1 4.850000e-01    2.509000e+00
  C1eq  SQ2n  1 4.430000e-01    2.464000e+00
  C1eq  TQ2n  1 4.010000e-01    3.292000e+00
  X4eq   Q2n  1 4.700000e-01    4.107000e+00
  X4eq  SQ2n  1 4.300000e-01    5.308000e+00
  X4eq  TQ2n  1 3.950000e-01    7.667000e+00
  X3eq   Q2n  1 4.700000e-01    3.957000e+00
  X3eq  SQ2n  1 4.300000e-01    5.002000e+00
  X3eq  TQ2n  1 3.950000e-01    7.291000e+00
  X2eq   Q2n  1 4.700000e-01    3.758000e+00
  X2eq  SQ2n  1 4.300000e-01    4.815000e+00
  X2eq  TQ2n  1 3.950000e-01    6.692000e+00
  X1eq   Q2n  1 4.700000e-01    3.492000e+00
  X1eq  SQ2n  1 4.300000e-01    4.072000e+00
  X1eq  TQ2n  1 3.950000e-01    5.676000e+00
   P6h   Q2n  1 4.700000e-01    5.180000e+00
   P6h  SQ2n  1 4.300000e-01    6.731000e+00
   P6h  TQ2n  1 3.950000e-01    9.592000e+00
   P5h   Q2n  1 4.700000e-01    5.424000e+00
   P5h  SQ2n  1 4.300000e-01    6.939000e+00
   P5h  TQ2n  1 3.950000e-01    9.782000e+00
   P4h   Q2n  1 4.700000e-01    5.416000e+00
   P4h  SQ2n  1 4.300000e-01    6.908000e+00
   P4h  TQ2n  1 3.950000e-01    9.709000e+00
   P3h   Q2n  1 4.700000e-01    5.159000e+00
   P3h  SQ2n  1 4.300000e-01    6.654000e+00
   P3h  TQ2n  1 3.950000e-01    9.414000e+00
   P2h   Q2n  1 4.700000e-01    5.154000e+00
   P2h  SQ2n  1 4.300000e-01    6.635000e+00
   P2h  TQ2n  1 3.950000e-01    9.370000e+00
   P1h   Q2n  1 4.700000e-01    4.920000e+00
   P1h  SQ2n  1 4.300000e-01    6.419000e+00
   P1h  TQ2n  1 3.950000e-01    9.094000e+00
   N6h   Q2n  1 4.700000e-01    4.915000e+00
   N6h  SQ2n  1 4.300000e-01    6.401000e+00
   N6h  TQ2n  1 3.950000e-01    9.051000e+00
   N5h   Q2n  1 4.700000e-01    4.908000e+00
   N5h  SQ2n  1 4.300000e-01    6.377000e+00
   N5h  TQ2n  1 3.950000e-01    8.997000e+00
   N4h   Q2n  1 4.700000e-01    4.900000e+00
   N4h  SQ2n  1 4.300000e-01    6.348000e+00
   N4h  TQ2n  1 3.950000e-01    8.929000e+00
   N3h   Q2n  1 4.700000e-01    4.700000e+00
   N3h  SQ2n  1 4.300000e-01    6.109000e+00
   N3h  TQ2n  1 3.950000e-01    8.600000e+00
   N2h   Q2n  1 4.700000e-01    4.685000e+00
   N2h  SQ2n  1 4.300000e-01    6.055000e+00
   N2h  TQ2n  1 3.950000e-01    8.475000e+00
   N1h   Q2n  1 4.700000e-01    4.663000e+00
   N1h  SQ2n  1 4.300000e-01    5.975000e+00
   N1h  TQ2n  1 3.950000e-01    8.289000e+00
   C6h   Q2n  1 4.700000e-01    4.087000e+00
   C6h  SQ2n  1 4.300000e-01    5.232000e+00
   C6h  TQ2n  1 3.950000e-01    7.291000e+00
   C5h   Q2n  1 4.700000e-01    3.778000e+00
   C5h  SQ2n  1 4.300000e-01    4.736000e+00
   C5h  TQ2n  1 3.950000e-01    6.656000e+00
   C4h   Q2n  1 4.700000e-01    3.564000e+00
   C4h  SQ2n  1 4.300000e-01    4.337000e+00
   C4h  TQ2n  1 3.950000e-01    6.028000e+00
   C3h   Q2n  1 4.700000e-01    3.382000e+00
   C3h  SQ2n  1 4.300000e-01    3.862000e+00
   C3h  TQ2n  1 3.950000e-01    5.236000e+00
   C2h   Q2n  1 5.200000e-01    2.449000e+00
   C2h  SQ2n  1 4.730000e-01    2.490000e+00
   C2h  TQ2n  1 4.650000e-01    3.317000e+00
   C1h   Q2n  1 5.200000e-01    2.370000e+00
   C1h  SQ2n  1 4.730000e-01    2.201000e+00
   C1h  TQ2n  1 4.650000e-01    2.694000e+00
   X4h   Q2n  1 4.700000e-01    3.977000e+00
   X4h  SQ2n  1 4.300000e-01    5.068000e+00
   X4h  TQ2n  1 3.950000e-01    7.277000e+00
   X3h   Q2n  1 4.700000e-01    3.807000e+00
   X3h  SQ2n  1 4.300000e-01    4.842000e+00
   X3h  TQ2n  1 3.950000e-01    6.901000e+00
   X2h   Q2n  1 4.700000e-01    3.588000e+00
   X2h  SQ2n  1 4.300000e-01    4.425000e+00
   X2h  TQ2n  1 3.950000e-01    6.232000e+00
   X1h   Q2n  1 4.700000e-01    3.382000e+00
   X1h  SQ2n  1 4.300000e-01    3.862000e+00
   X1h  TQ2n  1 3.950000e-01    5.236000e+00
  P6dh   Q2n  1 4.700000e-01    5.180000e+00
  P6dh  SQ2n  1 4.300000e-01    6.731000e+00
  P6dh  TQ2n  1 3.950000e-01    9.832000e+00
  P5dh   Q2n  1 4.700000e-01    5.424000e+00
  P5dh  SQ2n  1 4.300000e-01    6.939000e+00
  P5dh  TQ2n  1 3.950000e-01    1.010200e+01
  P4dh   Q2n  1 4.700000e-01    5.416000e+00
  P4dh  SQ2n  1 4.300000e-01    6.908000e+00
  P4dh  TQ2n  1 3.950000e-01    1.002900e+01
  P3dh   Q2n  1 4.700000e-01    5.159000e+00
  P3dh  SQ2n  1 4.300000e-01    6.654000e+00
  P3dh  TQ2n  1 3.950000e-01    9.654000e+00
  P2dh   Q2n  1 4.700000e-01    5.154000e+00
  P2dh  SQ2n  1 4.300000e-01    6.635000e+00
  P2dh  TQ2n  1 3.950000e-01    9.610000e+00
  P1dh   Q2n  1 4.700000e-01    4.920000e+00
  P1dh  SQ2n  1 4.300000e-01    6.419000e+00
  P1dh  TQ2n  1 3.950000e-01    9.334000e+00
  N6dh   Q2n  1 4.700000e-01    4.915000e+00
  N6dh  SQ2n  1 4.300000e-01    6.401000e+00
  N6dh  TQ2n  1 3.950000e-01    9.291000e+00
  N5dh   Q2n  1 4.700000e-01    4.908000e+00
  N5dh  SQ2n  1 4.300000e-01    6.377000e+00
  N5dh  TQ2n  1 3.950000e-01    9.237000e+00
  N4dh   Q2n  1 4.700000e-01    4.900000e+00
  N4dh  SQ2n  1 4.300000e-01    6.348000e+00
  N4dh  TQ2n  1 3.950000e-01    9.169000e+00
  N3dh   Q2n  1 4.700000e-01    4.700000e+00
  N3dh  SQ2n  1 4.300000e-01    6.109000e+00
  N3dh  TQ2n  1 3.950000e-01    8.840000e+00
  N2dh   Q2n  1 4.700000e-01    4.685000e+00
  N2dh  SQ2n  1 4.300000e-01    6.055000e+00
  N2dh  TQ2n  1 3.950000e-01    8.715000e+00
  N1dh   Q2n  1 4.700000e-01    4.663000e+00
  N1dh  SQ2n  1 4.300000e-01    5.975000e+00
  N1dh  TQ2n  1 3.950000e-01    8.529000e+00
  P6ah   Q2n  1 4.700000e-01    4.580000e+00
  P6ah  SQ2n  1 4.300000e-01    6.151000e+00
  P6ah  TQ2n  1 3.950000e-01    9.112000e+00
  P5ah   Q2n  1 4.700000e-01    4.754000e+00
  P5ah  SQ2n  1 4.300000e-01    6.309000e+00
  P5ah  TQ2n  1 3.950000e-01    9.302000e+00
  P4ah   Q2n  1 4.700000e-01    4.746000e+00
  P4ah  SQ2n  1 4.300000e-01    6.278000e+00
  P4ah  TQ2n  1 3.950000e-01    9.229000e+00
  P3ah   Q2n  1 4.700000e-01    4.559000e+00
  P3ah  SQ2n  1 4.300000e-01    6.074000e+00
  P3ah  TQ2n  1 3.950000e-01    8.934000e+00
  P2ah   Q2n  1 4.700000e-01    4.554000e+00
  P2ah  SQ2n  1 4.300000e-01    6.055000e+00
  P2ah  TQ2n  1 3.950000e-01    8.890000e+00
  P1ah   Q2n  1 4.700000e-01    4.360000e+00
  P1ah  SQ2n  1 4.300000e-01    5.829000e+00
  P1ah  TQ2n  1 3.950000e-01    8.604000e+00
  N6ah   Q2n  1 4.700000e-01    4.355000e+00
  N6ah  SQ2n  1 4.300000e-01    5.811000e+00
  N6ah  TQ2n  1 3.950000e-01    8.561000e+00
  N5ah   Q2n  1 4.700000e-01    4.348000e+00
  N5ah  SQ2n  1 4.300000e-01    5.787000e+00
  N5ah  TQ2n  1 3.950000e-01    8.507000e+00
  N4ah   Q2n  1 4.700000e-01    4.340000e+00
  N4ah  SQ2n  1 4.300000e-01    5.758000e+00
  N4ah  TQ2n  1 3.950000e-01    8.439000e+00
  N3ah   Q2n  1 4.700000e-01    4.160000e+00
  N3ah  SQ2n  1 4.300000e-01    5.499000e+00
  N3ah  TQ2n  1 3.950000e-01    8.110000e+00
  N2ah   Q2n  1 4.700000e-01    4.145000e+00
  N2ah  SQ2n  1 4.300000e-01    5.445000e+00
  N2ah  TQ2n  1 3.950000e-01    7.985000e+00
  N1ah   Q2n  1 4.700000e-01    4.123000e+00
  N1ah  SQ2n  1 4.300000e-01    5.365000e+00
  N1ah  TQ2n  1 3.950000e-01    7.799000e+00
  C6vh   Q2n  1 4.700000e-01    4.257000e+00
  C6vh  SQ2n  1 4.300000e-01    5.452000e+00
  C6vh  TQ2n  1 3.950000e-01    7.731000e+00
  C5vh   Q2n  1 4.700000e-01    3.928000e+00
  C5vh  SQ2n  1 4.300000e-01    4.896000e+00
  C5vh  TQ2n  1 3.950000e-01    7.046000e+00
  C4vh   Q2n  1 4.700000e-01    3.734000e+00
  C4vh  SQ2n  1 4.300000e-01    4.727000e+00
  C4vh  TQ2n  1 3.950000e-01    6.488000e+00
  C3vh   Q2n  1 4.700000e-01    3.492000e+00
  C3vh  SQ2n  1 4.300000e-01    4.072000e+00
  C3vh  TQ2n  1 3.950000e-01    5.676000e+00
  C2vh   Q2n  1 4.850000e-01    2.593000e+00
  C2vh  SQ2n  1 4.430000e-01    2.772000e+00
  C2vh  TQ2n  1 4.010000e-01    4.014000e+00
  C1vh   Q2n  1 4.850000e-01    2.509000e+00
  C1vh  SQ2n  1 4.430000e-01    2.464000e+00
  C1vh  TQ2n  1 4.010000e-01    3.292000e+00
  X4vh   Q2n  1 4.700000e-01    4.107000e+00
  X4vh  SQ2n  1 4.300000e-01    5.308000e+00
  X4vh  TQ2n  1 3.950000e-01    7.667000e+00
  X3vh   Q2n  1 4.700000e-01    3.957000e+00
  X3vh  SQ2n  1 4.300000e-01    5.002000e+00
  X3vh  TQ2n  1 3.950000e-01    7.291000e+00
  X2vh   Q2n  1 4.700000e-01    3.758000e+00
  X2vh  SQ2n  1 4.300000e-01    4.815000e+00
  X2vh  TQ2n  1 3.950000e-01    6.692000e+00
  X1vh   Q2n  1 4.700000e-01    3.492000e+00
  X1vh  SQ2n  1 4.300000e-01    4.072000e+00
  X1vh  TQ2n  1 3.950000e-01    5.676000e+00
  C6eh   Q2n  1 4.700000e-01    3.807000e+00
  C6eh  SQ2n  1 4.300000e-01    4.992000e+00
  C6eh  TQ2n  1 3.950000e-01    7.101000e+00
  C5eh   Q2n  1 4.700000e-01    3.498000e+00
  C5eh  SQ2n  1 4.300000e-01    4.286000e+00
  C5eh  TQ2n  1 3.950000e-01    6.396000e+00
  C4eh   Q2n  1 4.700000e-01    3.284000e+00
  C4eh  SQ2n  1 4.300000e-01    3.967000e+00
  C4eh  TQ2n  1 3.950000e-01    5.848000e+00
  C3eh   Q2n  1 4.700000e-01    3.042000e+00
  C3eh  SQ2n  1 4.300000e-01    3.472000e+00
  C3eh  TQ2n  1 3.980000e-01    4.989000e+00
  C2eh   Q2n  1 6.200000e-01    2.236000e+00
  C2eh  SQ2n  1 5.140000e-01    2.223000e+00
  C2eh  TQ2n  1 5.110000e-01    3.038000e+00
  C1eh   Q2n  1 6.200000e-01    2.170000e+00
  C1eh  SQ2n  1 5.140000e-01    1.958000e+00
  C1eh  TQ2n  1 5.110000e-01    2.471000e+00
  X4eh   Q2n  1 4.700000e-01    3.657000e+00
  X4eh  SQ2n  1 4.300000e-01    4.678000e+00
  X4eh  TQ2n  1 3.950000e-01    7.077000e+00
  X3eh   Q2n  1 4.700000e-01    3.527000e+00
  X3eh  SQ2n  1 4.300000e-01    4.392000e+00
  X3eh  TQ2n  1 3.950000e-01    6.641000e+00
  X2eh   Q2n  1 4.700000e-01    3.308000e+00
  X2eh  SQ2n  1 4.300000e-01    4.055000e+00
  X2eh  TQ2n  1 3.950000e-01    6.052000e+00
  X1eh   Q2n  1 4.700000e-01    3.042000e+00
  X1eh  SQ2n  1 4.300000e-01    3.472000e+00
  X1eh  TQ2n  1 3.980000e-01    4.989000e+00
   P6r   Q2n  1 4.700000e-01    5.180000e+00
   P6r  SQ2n  1 4.300000e-01    6.731000e+00
   P6r  TQ2n  1 3.950000e-01    9.592000e+00
   P5r   Q2n  1 4.700000e-01    5.424000e+00
   P5r  SQ2n  1 4.300000e-01    6.939000e+00
   P5r  TQ2n  1 3.950000e-01    9.782000e+00
   P4r   Q2n  1 4.700000e-01    5.416000e+00
   P4r  SQ2n  1 4.300000e-01    6.908000e+00
   P4r  TQ2n  1 3.950000e-01    9.709000e+00
   P3r   Q2n  1 4.700000e-01    5.159000e+00
   P3r  SQ2n  1 4.300000e-01    6.654000e+00
   P3r  TQ2n  1 3.950000e-01    9.414000e+00
   P2r   Q2n  1 4.700000e-01    5.154000e+00
   P2r  SQ2n  1 4.300000e-01    6.635000e+00
   P2r  TQ2n  1 3.950000e-01    9.370000e+00
   P1r   Q2n  1 4.700000e-01    4.920000e+00
   P1r  SQ2n  1 4.300000e-01    6.419000e+00
   P1r  TQ2n  1 3.950000e-01    9.094000e+00
   N6r   Q2n  1 4.700000e-01    4.915000e+00
   N6r  SQ2n  1 4.300000e-01    6.401000e+00
   N6r  TQ2n  1 3.950000e-01    9.051000e+00
   N5r   Q2n  1 4.700000e-01    4.908000e+00
   N5r  SQ2n  1 4.300000e-01    6.377000e+00
   N5r  TQ2n  1 3.950000e-01    8.997000e+00
   N4r   Q2n  1 4.700000e-01    4.900000e+00
   N4r  SQ2n  1 4.300000e-01    6.348000e+00
   N4r  TQ2n  1 3.950000e-01    8.929000e+00
   N3r   Q2n  1 4.700000e-01    4.700000e+00
   N3r  SQ2n  1 4.300000e-01    6.109000e+00
   N3r  TQ2n  1 3.950000e-01    8.600000e+00
   N2r   Q2n  1 4.700000e-01    4.685000e+00
   N2r  SQ2n  1 4.300000e-01    6.055000e+00
   N2r  TQ2n  1 3.950000e-01    8.475000e+00
   N1r   Q2n  1 4.700000e-01    4.663000e+00
   N1r  SQ2n  1 4.300000e-01    5.975000e+00
   N1r  TQ2n  1 3.950000e-01    8.289000e+00
   C6r   Q2n  1 4.700000e-01    4.087000e+00
   C6r  SQ2n  1 4.300000e-01    5.232000e+00
   C6r  TQ2n  1 3.950000e-01    7.291000e+00
   C5r   Q2n  1 4.700000e-01    3.778000e+00
   C5r  SQ2n  1 4.300000e-01    4.736000e+00
   C5r  TQ2n  1 3.950000e-01    6.656000e+00
   C4r   Q2n  1 4.700000e-01    3.564000e+00
   C4r  SQ2n  1 4.300000e-01    4.337000e+00
   C4r  TQ2n  1 3.950000e-01    6.028000e+00
   C3r   Q2n  1 4.700000e-01    3.382000e+00
   C3r  SQ2n  1 4.300000e-01    3.862000e+00
   C3r  TQ2n  1 3.950000e-01    5.236000e+00
   C2r   Q2n  1 5.200000e-01    2.449000e+00
   C2r  SQ2n  1 4.730000e-01    2.490000e+00
   C2r  TQ2n  1 4.650000e-01    3.317000e+00
   C1r   Q2n  1 5.200000e-01    2.370000e+00
   C1r  SQ2n  1 4.730000e-01    2.201000e+00
   C1r  TQ2n  1 4.650000e-01    2.694000e+00
   X4r   Q2n  1 4.700000e-01    3.977000e+00
   X4r  SQ2n  1 4.300000e-01    5.068000e+00
   X4r  TQ2n  1 3.950000e-01    7.277000e+00
   X3r   Q2n  1 4.700000e-01    3.807000e+00
   X3r  SQ2n  1 4.300000e-01    4.842000e+00
   X3r  TQ2n  1 3.950000e-01    6.901000e+00
   X2r   Q2n  1 4.700000e-01    3.588000e+00
   X2r  SQ2n  1 4.300000e-01    4.425000e+00
   X2r  TQ2n  1 3.950000e-01    6.232000e+00
   X1r   Q2n  1 4.700000e-01    3.382000e+00
   X1r  SQ2n  1 4.300000e-01    3.862000e+00
   X1r  TQ2n  1 3.950000e-01    5.236000e+00
  P6dr   Q2n  1 4.700000e-01    5.180000e+00
  P6dr  SQ2n  1 4.300000e-01    6.731000e+00
  P6dr  TQ2n  1 3.950000e-01    9.832000e+00
  P5dr   Q2n  1 4.700000e-01    5.424000e+00
  P5dr  SQ2n  1 4.300000e-01    6.939000e+00
  P5dr  TQ2n  1 3.950000e-01    1.010200e+01
  P4dr   Q2n  1 4.700000e-01    5.416000e+00
  P4dr  SQ2n  1 4.300000e-01    6.908000e+00
  P4dr  TQ2n  1 3.950000e-01    1.002900e+01
  P3dr   Q2n  1 4.700000e-01    5.159000e+00
  P3dr  SQ2n  1 4.300000e-01    6.654000e+00
  P3dr  TQ2n  1 3.950000e-01    9.654000e+00
  P2dr   Q2n  1 4.700000e-01    5.154000e+00
  P2dr  SQ2n  1 4.300000e-01    6.635000e+00
  P2dr  TQ2n  1 3.950000e-01    9.610000e+00
  P1dr   Q2n  1 4.700000e-01    4.920000e+00
  P1dr  SQ2n  1 4.300000e-01    6.419000e+00
  P1dr  TQ2n  1 3.950000e-01    9.334000e+00
  N6dr   Q2n  1 4.700000e-01    4.915000e+00
  N6dr  SQ2n  1 4.300000e-01    6.401000e+00
  N6dr  TQ2n  1 3.950000e-01    9.291000e+00
  N5dr   Q2n  1 4.700000e-01    4.908000e+00
  N5dr  SQ2n  1 4.300000e-01    6.377000e+00
  N5dr  TQ2n  1 3.950000e-01    9.237000e+00
  N4dr   Q2n  1 4.700000e-01    4.900000e+00
  N4dr  SQ2n  1 4.300000e-01    6.348000e+00
  N4dr  TQ2n  1 3.950000e-01    9.169000e+00
  N3dr   Q2n  1 4.700000e-01    4.700000e+00
  N3dr  SQ2n  1 4.300000e-01    6.109000e+00
  N3dr  TQ2n  1 3.950000e-01    8.840000e+00
  N2dr   Q2n  1 4.700000e-01    4.685000e+00
  N2dr  SQ2n  1 4.300000e-01    6.055000e+00
  N2dr  TQ2n  1 3.950000e-01    8.715000e+00
  N1dr   Q2n  1 4.700000e-01    4.663000e+00
  N1dr  SQ2n  1 4.300000e-01    5.975000e+00
  N1dr  TQ2n  1 3.950000e-01    8.529000e+00
  P6ar   Q2n  1 4.700000e-01    4.580000e+00
  P6ar  SQ2n  1 4.300000e-01    6.151000e+00
  P6ar  TQ2n  1 3.950000e-01    9.112000e+00
  P5ar   Q2n  1 4.700000e-01    4.754000e+00
  P5ar  SQ2n  1 4.300000e-01    6.309000e+00
  P5ar  TQ2n  1 3.950000e-01    9.302000e+00
  P4ar   Q2n  1 4.700000e-01    4.746000e+00
  P4ar  SQ2n  1 4.300000e-01    6.278000e+00
  P4ar  TQ2n  1 3.950000e-01    9.229000e+00
  P3ar   Q2n  1 4.700000e-01    4.559000e+00
  P3ar  SQ2n  1 4.300000e-01    6.074000e+00
  P3ar  TQ2n  1 3.950000e-01    8.934000e+00
  P2ar   Q2n  1 4.700000e-01    4.554000e+00
  P2ar  SQ2n  1 4.300000e-01    6.055000e+00
  P2ar  TQ2n  1 3.950000e-01    8.890000e+00
  P1ar   Q2n  1 4.700000e-01    4.360000e+00
  P1ar  SQ2n  1 4.300000e-01    5.829000e+00
  P1ar  TQ2n  1 3.950000e-01    8.604000e+00
  N6ar   Q2n  1 4.700000e-01    4.355000e+00
  N6ar  SQ2n  1 4.300000e-01    5.811000e+00
  N6ar  TQ2n  1 3.950000e-01    8.561000e+00
  N5ar   Q2n  1 4.700000e-01    4.348000e+00
  N5ar  SQ2n  1 4.300000e-01    5.787000e+00
  N5ar  TQ2n  1 3.950000e-01    8.507000e+00
  N4ar   Q2n  1 4.700000e-01    4.340000e+00
  N4ar  SQ2n  1 4.300000e-01    5.758000e+00
  N4ar  TQ2n  1 3.950000e-01    8.439000e+00
  N3ar   Q2n  1 4.700000e-01    4.160000e+00
  N3ar  SQ2n  1 4.300000e-01    5.499000e+00
  N3ar  TQ2n  1 3.950000e-01    8.110000e+00
  N2ar   Q2n  1 4.700000e-01    4.145000e+00
  N2ar  SQ2n  1 4.300000e-01    5.445000e+00
  N2ar  TQ2n  1 3.950000e-01    7.985000e+00
  N1ar   Q2n  1 4.700000e-01    4.123000e+00
  N1ar  SQ2n  1 4.300000e-01    5.365000e+00
  N1ar  TQ2n  1 3.950000e-01    7.799000e+00
  C6vr   Q2n  1 4.700000e-01    4.257000e+00
  C6vr  SQ2n  1 4.300000e-01    5.452000e+00
  C6vr  TQ2n  1 3.950000e-01    7.731000e+00
  C5vr   Q2n  1 4.700000e-01    3.928000e+00
  C5vr  SQ2n  1 4.300000e-01    4.896000e+00
  C5vr  TQ2n  1 3.950000e-01    7.046000e+00
  C4vr   Q2n  1 4.700000e-01    3.734000e+00
  C4vr  SQ2n  1 4.300000e-01    4.727000e+00
  C4vr  TQ2n  1 3.950000e-01    6.488000e+00
  C3vr   Q2n  1 4.700000e-01    3.492000e+00
  C3vr  SQ2n  1 4.300000e-01    4.072000e+00
  C3vr  TQ2n  1 3.950000e-01    5.676000e+00
  C2vr   Q2n  1 4.850000e-01    2.593000e+00
  C2vr  SQ2n  1 4.430000e-01    2.772000e+00
  C2vr  TQ2n  1 4.010000e-01    4.014000e+00
  C1vr   Q2n  1 4.850000e-01    2.509000e+00
  C1vr  SQ2n  1 4.430000e-01    2.464000e+00
  C1vr  TQ2n  1 4.010000e-01    3.292000e+00
  X4vr   Q2n  1 4.700000e-01    4.107000e+00
  X4vr  SQ2n  1 4.300000e-01    5.308000e+00
  X4vr  TQ2n  1 3.950000e-01    7.667000e+00
  X3vr   Q2n  1 4.700000e-01    3.957000e+00
  X3vr  SQ2n  1 4.300000e-01    5.002000e+00
  X3vr  TQ2n  1 3.950000e-01    7.291000e+00
  X2vr   Q2n  1 4.700000e-01    3.758000e+00
  X2vr  SQ2n  1 4.300000e-01    4.815000e+00
  X2vr  TQ2n  1 3.950000e-01    6.692000e+00
  X1vr   Q2n  1 4.700000e-01    3.492000e+00
  X1vr  SQ2n  1 4.300000e-01    4.072000e+00
  X1vr  TQ2n  1 3.950000e-01    5.676000e+00
  C6er   Q2n  1 4.700000e-01    3.807000e+00
  C6er  SQ2n  1 4.300000e-01    4.992000e+00
  C6er  TQ2n  1 3.950000e-01    7.101000e+00
  C5er   Q2n  1 4.700000e-01    3.498000e+00
  C5er  SQ2n  1 4.300000e-01    4.286000e+00
  C5er  TQ2n  1 3.950000e-01    6.396000e+00
  C4er   Q2n  1 4.700000e-01    3.284000e+00
  C4er  SQ2n  1 4.300000e-01    3.967000e+00
  C4er  TQ2n  1 3.950000e-01    5.848000e+00
  C3er   Q2n  1 4.700000e-01    3.042000e+00
  C3er  SQ2n  1 4.300000e-01    3.472000e+00
  C3er  TQ2n  1 3.980000e-01    4.989000e+00
  C2er   Q2n  1 6.200000e-01    2.236000e+00
  C2er  SQ2n  1 5.140000e-01    2.223000e+00
  C2er  TQ2n  1 5.110000e-01    3.038000e+00
  C1er   Q2n  1 6.200000e-01    2.170000e+00
  C1er  SQ2n  1 5.140000e-01    1.958000e+00
  C1er  TQ2n  1 5.110000e-01    2.471000e+00
  X4er   Q2n  1 4.700000e-01    3.657000e+00
  X4er  SQ2n  1 4.300000e-01    4.678000e+00
  X4er  TQ2n  1 3.950000e-01    7.077000e+00
  X3er   Q2n  1 4.700000e-01    3.527000e+00
  X3er  SQ2n  1 4.300000e-01    4.392000e+00
  X3er  TQ2n  1 3.950000e-01    6.641000e+00
  X2er   Q2n  1 4.700000e-01    3.308000e+00
  X2er  SQ2n  1 4.300000e-01    4.055000e+00
  X2er  TQ2n  1 3.950000e-01    6.052000e+00
  X1er   Q2n  1 4.700000e-01    3.042000e+00
  X1er  SQ2n  1 4.300000e-01    3.472000e+00
  X1er  TQ2n  1 3.980000e-01    4.989000e+00
   SP6   Q2n  1 4.300000e-01    4.646000e+00
   SP6  SQ2n  1 4.100000e-01    6.239000e+00
   SP6  TQ2n  1 3.650000e-01    8.427000e+00
   SP5   Q2n  1 4.300000e-01    4.874000e+00
   SP5  SQ2n  1 4.100000e-01    6.450000e+00
   SP5  TQ2n  1 3.650000e-01    8.677000e+00
   SP4   Q2n  1 4.300000e-01    4.870000e+00
   SP4  SQ2n  1 4.100000e-01    6.431000e+00
   SP4  TQ2n  1 3.650000e-01    8.637000e+00
   SP3   Q2n  1 4.300000e-01    4.637000e+00
   SP3  SQ2n  1 4.100000e-01    6.194000e+00
   SP3  TQ2n  1 3.650000e-01    8.332000e+00
   SP2   Q2n  1 4.300000e-01    4.634000e+00
   SP2  SQ2n  1 4.100000e-01    6.179000e+00
   SP2  TQ2n  1 3.650000e-01    8.302000e+00
   SP1   Q2n  1 4.300000e-01    4.432000e+00
   SP1  SQ2n  1 4.100000e-01    5.897000e+00
   SP1  TQ2n  1 3.650000e-01    8.006000e+00
   SN6   Q2n  1 4.300000e-01    4.429000e+00
   SN6  SQ2n  1 4.100000e-01    5.882000e+00
   SN6  TQ2n  1 3.650000e-01    7.974000e+00
   SN5   Q2n  1 4.300000e-01    4.425000e+00
   SN5  SQ2n  1 4.100000e-01    5.863000e+00
   SN5  TQ2n  1 3.650000e-01    7.934000e+00
   SN4   Q2n  1 4.300000e-01    4.420000e+00
   SN4  SQ2n  1 4.100000e-01    5.838000e+00
   SN4  TQ2n  1 3.650000e-01    7.882000e+00
   SN3   Q2n  1 4.300000e-01    4.213000e+00
   SN3  SQ2n  1 4.100000e-01    5.564000e+00
   SN3  TQ2n  1 3.650000e-01    7.541000e+00
   SN2   Q2n  1 4.300000e-01    4.204000e+00
   SN2  SQ2n  1 4.100000e-01    5.516000e+00
   SN2  TQ2n  1 3.650000e-01    7.441000e+00
   SN1   Q2n  1 4.300000e-01    4.190000e+00
   SN1  SQ2n  1 4.100000e-01    5.444000e+00
   SN1  TQ2n  1 3.650000e-01    7.290000e+00
   SC6   Q2n  1 4.300000e-01    3.556000e+00
   SC6  SQ2n  1 4.100000e-01    4.613000e+00
   SC6  TQ2n  1 3.650000e-01    6.317000e+00
   SC5   Q2n  1 4.300000e-01    3.147000e+00
   SC5  SQ2n  1 4.100000e-01    4.115000e+00
   SC5  TQ2n  1 3.650000e-01    5.754000e+00
   SC4   Q2n  1 4.300000e-01    2.878000e+00
   SC4  SQ2n  1 4.100000e-01    3.809000e+00
   SC4  TQ2n  1 3.660000e-01    5.288000e+00
   SC3   Q2n  1 4.300000e-01    2.620000e+00
   SC3  SQ2n  1 4.100000e-01    3.436000e+00
   SC3  TQ2n  1 3.780000e-01    4.529000e+00
   SC2   Q2n  1 4.730000e-01    1.518000e+00
   SC2  SQ2n  1 4.530000e-01    2.354000e+00
   SC2  TQ2n  1 4.840000e-01    2.987000e+00
   SC1   Q2n  1 4.730000e-01    1.466000e+00
   SC1  SQ2n  1 4.530000e-01    2.089000e+00
   SC1  TQ2n  1 4.840000e-01    2.525000e+00
   SX4   Q2n  1 4.300000e-01    3.330000e+00
   SX4  SQ2n  1 4.100000e-01    4.432000e+00
   SX4  TQ2n  1 3.650000e-01    6.262000e+00
   SX3   Q2n  1 4.300000e-01    3.166000e+00
   SX3  SQ2n  1 4.100000e-01    4.213000e+00
   SX3  TQ2n  1 3.650000e-01    5.957000e+00
   SX2   Q2n  1 4.300000e-01    2.894000e+00
   SX2  SQ2n  1 4.100000e-01    3.891000e+00
   SX2  TQ2n  1 3.660000e-01    5.458000e+00
   SX1   Q2n  1 4.300000e-01    2.620000e+00
   SX1  SQ2n  1 4.100000e-01    3.436000e+00
   SX1  TQ2n  1 3.780000e-01    4.529000e+00
  SP6d   Q2n  1 4.300000e-01    4.646000e+00
  SP6d  SQ2n  1 4.100000e-01    6.459000e+00
  SP6d  TQ2n  1 3.650000e-01    8.697000e+00
  SP5d   Q2n  1 4.300000e-01    4.874000e+00
  SP5d  SQ2n  1 4.100000e-01    6.700000e+00
  SP5d  TQ2n  1 3.650000e-01    8.967000e+00
  SP4d   Q2n  1 4.300000e-01    4.870000e+00
  SP4d  SQ2n  1 4.100000e-01    6.681000e+00
  SP4d  TQ2n  1 3.650000e-01    8.927000e+00
  SP3d   Q2n  1 4.300000e-01    4.637000e+00
  SP3d  SQ2n  1 4.100000e-01    6.414000e+00
  SP3d  TQ2n  1 3.650000e-01    8.602000e+00
  SP2d   Q2n  1 4.300000e-01    4.634000e+00
  SP2d  SQ2n  1 4.100000e-01    6.399000e+00
  SP2d  TQ2n  1 3.650000e-01    8.572000e+00
  SP1d   Q2n  1 4.300000e-01    4.432000e+00
  SP1d  SQ2n  1 4.100000e-01    6.167000e+00
  SP1d  TQ2n  1 3.650000e-01    8.276000e+00
  SN6d   Q2n  1 4.300000e-01    4.429000e+00
  SN6d  SQ2n  1 4.100000e-01    6.152000e+00
  SN6d  TQ2n  1 3.650000e-01    8.244000e+00
  SN5d   Q2n  1 4.300000e-01    4.425000e+00
  SN5d  SQ2n  1 4.100000e-01    6.133000e+00
  SN5d  TQ2n  1 3.650000e-01    8.204000e+00
  SN4d   Q2n  1 4.300000e-01    4.420000e+00
  SN4d  SQ2n  1 4.100000e-01    6.108000e+00
  SN4d  TQ2n  1 3.650000e-01    8.152000e+00
  SN3d   Q2n  1 4.300000e-01    4.213000e+00
  SN3d  SQ2n  1 4.100000e-01    5.804000e+00
  SN3d  TQ2n  1 3.650000e-01    7.811000e+00
  SN2d   Q2n  1 4.300000e-01    4.204000e+00
  SN2d  SQ2n  1 4.100000e-01    5.756000e+00
  SN2d  TQ2n  1 3.650000e-01    7.711000e+00
  SN1d   Q2n  1 4.300000e-01    4.190000e+00
  SN1d  SQ2n  1 4.100000e-01    5.684000e+00
  SN1d  TQ2n  1 3.650000e-01    7.560000e+00
  SP6a   Q2n  1 4.300000e-01    4.066000e+00
  SP6a  SQ2n  1 4.100000e-01    5.729000e+00
  SP6a  TQ2n  1 3.650000e-01    7.887000e+00
  SP5a   Q2n  1 4.300000e-01    4.244000e+00
  SP5a  SQ2n  1 4.100000e-01    5.960000e+00
  SP5a  TQ2n  1 3.650000e-01    8.137000e+00
  SP4a   Q2n  1 4.300000e-01    4.240000e+00
  SP4a  SQ2n  1 4.100000e-01    5.941000e+00
  SP4a  TQ2n  1 3.650000e-01    8.097000e+00
  SP3a   Q2n  1 4.300000e-01    4.057000e+00
  SP3a  SQ2n  1 4.100000e-01    5.684000e+00
  SP3a  TQ2n  1 3.650000e-01    7.792000e+00
  SP2a   Q2n  1 4.300000e-01    4.054000e+00
  SP2a  SQ2n  1 4.100000e-01    5.669000e+00
  SP2a  TQ2n  1 3.650000e-01    7.762000e+00
  SP1a   Q2n  1 4.300000e-01    3.842000e+00
  SP1a  SQ2n  1 4.100000e-01    5.417000e+00
  SP1a  TQ2n  1 3.650000e-01    7.476000e+00
  SN6a   Q2n  1 4.300000e-01    3.839000e+00
  SN6a  SQ2n  1 4.100000e-01    5.402000e+00
  SN6a  TQ2n  1 3.650000e-01    7.444000e+00
  SN5a   Q2n  1 4.300000e-01    3.835000e+00
  SN5a  SQ2n  1 4.100000e-01    5.383000e+00
  SN5a  TQ2n  1 3.650000e-01    7.404000e+00
  SN4a   Q2n  1 4.300000e-01    3.830000e+00
  SN4a  SQ2n  1 4.100000e-01    5.358000e+00
  SN4a  TQ2n  1 3.650000e-01    7.352000e+00
  SN3a   Q2n  1 4.300000e-01    3.603000e+00
  SN3a  SQ2n  1 4.100000e-01    5.094000e+00
  SN3a  TQ2n  1 3.650000e-01    7.051000e+00
  SN2a   Q2n  1 4.300000e-01    3.594000e+00
  SN2a  SQ2n  1 4.100000e-01    5.046000e+00
  SN2a  TQ2n  1 3.650000e-01    6.951000e+00
  SN1a   Q2n  1 4.300000e-01    3.580000e+00
  SN1a  SQ2n  1 4.100000e-01    4.974000e+00
  SN1a  TQ2n  1 3.650000e-01    6.800000e+00
  SC6v   Q2n  1 4.300000e-01    3.776000e+00
  SC6v  SQ2n  1 4.100000e-01    5.083000e+00
  SC6v  TQ2n  1 3.650000e-01    6.777000e+00
  SC5v   Q2n  1 4.300000e-01    3.307000e+00
  SC5v  SQ2n  1 4.100000e-01    4.515000e+00
  SC5v  TQ2n  1 3.650000e-01    6.114000e+00
  SC4v   Q2n  1 4.300000e-01    3.268000e+00
  SC4v  SQ2n  1 4.100000e-01    4.119000e+00
  SC4v  TQ2n  1 3.650000e-01    5.608000e+00
  SC3v   Q2n  1 4.300000e-01    2.830000e+00
  SC3v  SQ2n  1 4.100000e-01    3.726000e+00
  SC3v  TQ2n  1 3.650000e-01    4.939000e+00
  SC2v   Q2n  1 4.430000e-01    1.734000e+00
  SC2v  SQ2n  1 4.180000e-01    2.705000e+00
  SC2v  TQ2n  1 4.090000e-01    3.562000e+00
  SC1v   Q2n  1 4.430000e-01    1.678000e+00
  SC1v  SQ2n  1 4.180000e-01    2.418000e+00
  SC1v  TQ2n  1 4.090000e-01    3.015000e+00
  SX4v   Q2n  1 4.300000e-01    3.570000e+00
  SX4v  SQ2n  1 4.100000e-01    4.922000e+00
  SX4v  TQ2n  1 3.650000e-01    6.692000e+00
  SX3v   Q2n  1 4.300000e-01    3.326000e+00
  SX3v  SQ2n  1 4.100000e-01    4.613000e+00
  SX3v  TQ2n  1 3.650000e-01    6.317000e+00
  SX2v   Q2n  1 4.300000e-01    3.284000e+00
  SX2v  SQ2n  1 4.100000e-01    4.201000e+00
  SX2v  TQ2n  1 3.650000e-01    5.778000e+00
  SX1v   Q2n  1 4.300000e-01    2.830000e+00
  SX1v  SQ2n  1 4.100000e-01    3.726000e+00
  SX1v  TQ2n  1 3.650000e-01    4.939000e+00
  SC6e   Q2n  1 4.300000e-01    3.316000e+00
  SC6e  SQ2n  1 4.100000e-01    4.363000e+00
  SC6e  TQ2n  1 3.650000e-01    6.117000e+00
  SC5e   Q2n  1 4.300000e-01    2.697000e+00
  SC5e  SQ2n  1 4.100000e-01    3.955000e+00
  SC5e  TQ2n  1 3.660000e-01    5.593000e+00
  SC4e   Q2n  1 4.300000e-01    2.508000e+00
  SC4e  SQ2n  1 4.100000e-01    3.679000e+00
  SC4e  TQ2n  1 3.780000e-01    5.021000e+00
  SC3e   Q2n  1 4.300000e-01    2.230000e+00
  SC3e  SQ2n  1 4.100000e-01    3.276000e+00
  SC3e  TQ2n  1 3.940000e-01    4.244000e+00
  SC2e   Q2n  1 5.140000e-01    1.329000e+00
  SC2e  SQ2n  1 4.960000e-01    2.150000e+00
  SC2e  TQ2n  1 5.370000e-01    2.698000e+00
  SC1e   Q2n  1 5.140000e-01    1.281000e+00
  SC1e  SQ2n  1 4.960000e-01    1.908000e+00
  SC1e  TQ2n  1 5.370000e-01    2.282000e+00
  SX4e   Q2n  1 4.300000e-01    2.940000e+00
  SX4e  SQ2n  1 4.100000e-01    4.282000e+00
  SX4e  TQ2n  1 3.650000e-01    6.102000e+00
  SX3e   Q2n  1 4.300000e-01    2.716000e+00
  SX3e  SQ2n  1 4.100000e-01    4.053000e+00
  SX3e  TQ2n  1 3.660000e-01    5.795000e+00
  SX2e   Q2n  1 4.300000e-01    2.524000e+00
  SX2e  SQ2n  1 4.100000e-01    3.761000e+00
  SX2e  TQ2n  1 3.780000e-01    5.185000e+00
  SX1e   Q2n  1 4.300000e-01    2.230000e+00
  SX1e  SQ2n  1 4.100000e-01    3.276000e+00
  SX1e  TQ2n  1 3.940000e-01    4.244000e+00
  SP6q   Q2n  1 4.300000e-01    5.396000e+00
  SP6q  SQ2n  1 4.100000e-01    6.969000e+00
  SP6q  TQ2n  1 3.650000e-01    9.277000e+00
  SP5q   Q2n  1 4.300000e-01    5.684000e+00
  SP5q  SQ2n  1 4.100000e-01    7.250000e+00
  SP5q  TQ2n  1 3.650000e-01    9.547000e+00
  SP4q   Q2n  1 4.300000e-01    5.680000e+00
  SP4q  SQ2n  1 4.100000e-01    7.231000e+00
  SP4q  TQ2n  1 3.650000e-01    9.507000e+00
  SP3q   Q2n  1 4.300000e-01    5.387000e+00
  SP3q  SQ2n  1 4.100000e-01    6.924000e+00
  SP3q  TQ2n  1 3.650000e-01    9.182000e+00
  SP2q   Q2n  1 4.300000e-01    5.384000e+00
  SP2q  SQ2n  1 4.100000e-01    6.909000e+00
  SP2q  TQ2n  1 3.650000e-01    9.152000e+00
  SP1q   Q2n  1 4.300000e-01    5.142000e+00
  SP1q  SQ2n  1 4.100000e-01    6.637000e+00
  SP1q  TQ2n  1 3.650000e-01    8.836000e+00
  SN6q   Q2n  1 4.300000e-01    5.139000e+00
  SN6q  SQ2n  1 4.100000e-01    6.622000e+00
  SN6q  TQ2n  1 3.650000e-01    8.804000e+00
  SN5q   Q2n  1 4.300000e-01    5.135000e+00
  SN5q  SQ2n  1 4.100000e-01    6.603000e+00
  SN5q  TQ2n  1 3.650000e-01    8.764000e+00
  SN4q   Q2n  1 4.300000e-01    5.130000e+00
  SN4q  SQ2n  1 4.100000e-01    6.578000e+00
  SN4q  TQ2n  1 3.650000e-01    8.712000e+00
  SN3q   Q2n  1 4.300000e-01    4.843000e+00
  SN3q  SQ2n  1 4.100000e-01    6.294000e+00
  SN3q  TQ2n  1 3.650000e-01    8.351000e+00
  SN2q   Q2n  1 4.300000e-01    4.834000e+00
  SN2q  SQ2n  1 4.100000e-01    6.246000e+00
  SN2q  TQ2n  1 3.650000e-01    8.251000e+00
  SN1q   Q2n  1 4.300000e-01    4.820000e+00
  SN1q  SQ2n  1 4.100000e-01    6.174000e+00
  SN1q  TQ2n  1 3.650000e-01    8.100000e+00
  SC6q   Q2n  1 4.300000e-01    4.166000e+00
  SC6q  SQ2n  1 4.100000e-01    5.323000e+00
  SC6q  TQ2n  1 3.650000e-01    7.037000e+00
  SC5q   Q2n  1 4.300000e-01    3.757000e+00
  SC5q  SQ2n  1 4.100000e-01    4.755000e+00
  SC5q  TQ2n  1 3.650000e-01    6.344000e+00
  SC4q   Q2n  1 4.300000e-01    3.508000e+00
  SC4q  SQ2n  1 4.100000e-01    4.369000e+00
  SC4q  TQ2n  1 3.650000e-01    5.808000e+00
  SC3q   Q2n  1 4.300000e-01    3.220000e+00
  SC3q  SQ2n  1 4.100000e-01    3.876000e+00
  SC3q  TQ2n  1 3.650000e-01    5.099000e+00
  SC2q   Q2n  1 4.300000e-01    2.192000e+00
  SC2q  SQ2n  1 4.140000e-01    2.878000e+00
  SC2q  TQ2n  1 4.040000e-01    3.642000e+00
  SC1q   Q2n  1 4.300000e-01    2.134000e+00
  SC1q  SQ2n  1 4.140000e-01    2.587000e+00
  SC1q  TQ2n  1 4.040000e-01    3.089000e+00
  SX4q   Q2n  1 4.300000e-01    4.000000e+00
  SX4q  SQ2n  1 4.100000e-01    5.152000e+00
  SX4q  TQ2n  1 3.650000e-01    6.922000e+00
  SX3q   Q2n  1 4.300000e-01    3.776000e+00
  SX3q  SQ2n  1 4.100000e-01    4.853000e+00
  SX3q  TQ2n  1 3.650000e-01    6.547000e+00
  SX2q   Q2n  1 4.300000e-01    3.524000e+00
  SX2q  SQ2n  1 4.100000e-01    4.451000e+00
  SX2q  TQ2n  1 3.650000e-01    5.978000e+00
  SX1q   Q2n  1 4.300000e-01    3.220000e+00
  SX1q  SQ2n  1 4.100000e-01    3.876000e+00
  SX1q  TQ2n  1 3.650000e-01    5.099000e+00
 SP6dq   Q2n  1 4.300000e-01    5.396000e+00
 SP6dq  SQ2n  1 4.100000e-01    7.259000e+00
 SP6dq  TQ2n  1 3.650000e-01    9.567000e+00
 SP5dq   Q2n  1 4.300000e-01    5.684000e+00
 SP5dq  SQ2n  1 4.100000e-01    7.540000e+00
 SP5dq  TQ2n  1 3.650000e-01    9.897000e+00
 SP4dq   Q2n  1 4.300000e-01    5.680000e+00
 SP4dq  SQ2n  1 4.100000e-01    7.521000e+00
 SP4dq  TQ2n  1 3.650000e-01    9.857000e+00
 SP3dq   Q2n  1 4.300000e-01    5.387000e+00
 SP3dq  SQ2n  1 4.100000e-01    7.214000e+00
 SP3dq  TQ2n  1 3.650000e-01    9.472000e+00
 SP2dq   Q2n  1 4.300000e-01    5.384000e+00
 SP2dq  SQ2n  1 4.100000e-01    7.199000e+00
 SP2dq  TQ2n  1 3.650000e-01    9.442000e+00
 SP1dq   Q2n  1 4.300000e-01    5.142000e+00
 SP1dq  SQ2n  1 4.100000e-01    6.897000e+00
 SP1dq  TQ2n  1 3.650000e-01    9.126000e+00
 SN6dq   Q2n  1 4.300000e-01    5.139000e+00
 SN6dq  SQ2n  1 4.100000e-01    6.882000e+00
 SN6dq  TQ2n  1 3.650000e-01    9.094000e+00
 SN5dq   Q2n  1 4.300000e-01    5.135000e+00
 SN5dq  SQ2n  1 4.100000e-01    6.863000e+00
 SN5dq  TQ2n  1 3.650000e-01    9.054000e+00
 SN4dq   Q2n  1 4.300000e-01    5.130000e+00
 SN4dq  SQ2n  1 4.100000e-01    6.838000e+00
 SN4dq  TQ2n  1 3.650000e-01    9.002000e+00
 SN3dq   Q2n  1 4.300000e-01    4.843000e+00
 SN3dq  SQ2n  1 4.100000e-01    6.544000e+00
 SN3dq  TQ2n  1 3.650000e-01    8.641000e+00
 SN2dq   Q2n  1 4.300000e-01    4.834000e+00
 SN2dq  SQ2n  1 4.100000e-01    6.496000e+00
 SN2dq  TQ2n  1 3.650000e-01    8.541000e+00
 SN1dq   Q2n  1 4.300000e-01    4.820000e+00
 SN1dq  SQ2n  1 4.100000e-01    6.424000e+00
 SN1dq  TQ2n  1 3.650000e-01    8.390000e+00
 SP6aq   Q2n  1 4.300000e-01    4.646000e+00
 SP6aq  SQ2n  1 4.100000e-01    6.459000e+00
 SP6aq  TQ2n  1 3.650000e-01    8.697000e+00
 SP5aq   Q2n  1 4.300000e-01    4.874000e+00
 SP5aq  SQ2n  1 4.100000e-01    6.700000e+00
 SP5aq  TQ2n  1 3.650000e-01    8.967000e+00
 SP4aq   Q2n  1 4.300000e-01    4.870000e+00
 SP4aq  SQ2n  1 4.100000e-01    6.681000e+00
 SP4aq  TQ2n  1 3.650000e-01    8.927000e+00
 SP3aq   Q2n  1 4.300000e-01    4.637000e+00
 SP3aq  SQ2n  1 4.100000e-01    6.414000e+00
 SP3aq  TQ2n  1 3.650000e-01    8.602000e+00
 SP2aq   Q2n  1 4.300000e-01    4.634000e+00
 SP2aq  SQ2n  1 4.100000e-01    6.399000e+00
 SP2aq  TQ2n  1 3.650000e-01    8.572000e+00
 SP1aq   Q2n  1 4.300000e-01    4.432000e+00
 SP1aq  SQ2n  1 4.100000e-01    6.167000e+00
 SP1aq  TQ2n  1 3.650000e-01    8.276000e+00
 SN6aq   Q2n  1 4.300000e-01    4.429000e+00
 SN6aq  SQ2n  1 4.100000e-01    6.152000e+00
 SN6aq  TQ2n  1 3.650000e-01    8.244000e+00
 SN5aq   Q2n  1 4.300000e-01    4.425000e+00
 SN5aq  SQ2n  1 4.100000e-01    6.133000e+00
 SN5aq  TQ2n  1 3.650000e-01    8.204000e+00
 SN4aq   Q2n  1 4.300000e-01    4.420000e+00
 SN4aq  SQ2n  1 4.100000e-01    6.108000e+00
 SN4aq  TQ2n  1 3.650000e-01    8.152000e+00
 SN3aq   Q2n  1 4.300000e-01    4.213000e+00
 SN3aq  SQ2n  1 4.100000e-01    5.804000e+00
 SN3aq  TQ2n  1 3.650000e-01    7.811000e+00
 SN2aq   Q2n  1 4.300000e-01    4.204000e+00
 SN2aq  SQ2n  1 4.100000e-01    5.756000e+00
 SN2aq  TQ2n  1 3.650000e-01    7.711000e+00
 SN1aq   Q2n  1 4.300000e-01    4.190000e+00
 SN1aq  SQ2n  1 4.100000e-01    5.684000e+00
 SN1aq  TQ2n  1 3.650000e-01    7.560000e+00
 SC6vq   Q2n  1 4.300000e-01    4.366000e+00
 SC6vq  SQ2n  1 4.100000e-01    5.833000e+00
 SC6vq  TQ2n  1 3.650000e-01    7.577000e+00
 SC5vq   Q2n  1 4.300000e-01    3.967000e+00
 SC5vq  SQ2n  1 4.100000e-01    5.225000e+00
 SC5vq  TQ2n  1 3.650000e-01    6.834000e+00
 SC4vq   Q2n  1 4.300000e-01    3.728000e+00
 SC4vq  SQ2n  1 4.100000e-01    4.839000e+00
 SC4vq  TQ2n  1 3.650000e-01    6.268000e+00
 SC3vq   Q2n  1 4.300000e-01    3.460000e+00
 SC3vq  SQ2n  1 4.100000e-01    4.366000e+00
 SC3vq  TQ2n  1 3.650000e-01    5.529000e+00
 SC2vq   Q2n  1 4.300000e-01    2.422000e+00
 SC2vq  SQ2n  1 4.100000e-01    3.240000e+00
 SC2vq  TQ2n  1 3.780000e-01    4.135000e+00
 SC1vq   Q2n  1 4.300000e-01    2.364000e+00
 SC1vq  SQ2n  1 4.100000e-01    2.947000e+00
 SC1vq  TQ2n  1 3.780000e-01    3.544000e+00
 SX4vq   Q2n  1 4.300000e-01    4.180000e+00
 SX4vq  SQ2n  1 4.100000e-01    5.632000e+00
 SX4vq  TQ2n  1 3.650000e-01    7.452000e+00
 SX3vq   Q2n  1 4.300000e-01    3.986000e+00
 SX3vq  SQ2n  1 4.100000e-01    5.323000e+00
 SX3vq  TQ2n  1 3.650000e-01    7.037000e+00
 SX2vq   Q2n  1 4.300000e-01    3.744000e+00
 SX2vq  SQ2n  1 4.100000e-01    4.921000e+00
 SX2vq  TQ2n  1 3.650000e-01    6.438000e+00
 SX1vq   Q2n  1 4.300000e-01    3.460000e+00
 SX1vq  SQ2n  1 4.100000e-01    4.366000e+00
 SX1vq  TQ2n  1 3.650000e-01    5.529000e+00
 SC6eq   Q2n  1 4.300000e-01    3.776000e+00
 SC6eq  SQ2n  1 4.100000e-01    5.083000e+00
 SC6eq  TQ2n  1 3.650000e-01    6.777000e+00
 SC5eq   Q2n  1 4.300000e-01    3.307000e+00
 SC5eq  SQ2n  1 4.100000e-01    4.515000e+00
 SC5eq  TQ2n  1 3.650000e-01    6.114000e+00
 SC4eq   Q2n  1 4.300000e-01    3.268000e+00
 SC4eq  SQ2n  1 4.100000e-01    4.119000e+00
 SC4eq  TQ2n  1 3.650000e-01    5.608000e+00
 SC3eq   Q2n  1 4.300000e-01    2.830000e+00
 SC3eq  SQ2n  1 4.100000e-01    3.726000e+00
 SC3eq  TQ2n  1 3.650000e-01    4.939000e+00
 SC2eq   Q2n  1 4.430000e-01    1.734000e+00
 SC2eq  SQ2n  1 4.180000e-01    2.705000e+00
 SC2eq  TQ2n  1 4.090000e-01    3.562000e+00
 SC1eq   Q2n  1 4.430000e-01    1.678000e+00
 SC1eq  SQ2n  1 4.180000e-01    2.418000e+00
 SC1eq  TQ2n  1 4.090000e-01    3.015000e+00
 SX4eq   Q2n  1 4.300000e-01    3.570000e+00
 SX4eq  SQ2n  1 4.100000e-01    4.922000e+00
 SX4eq  TQ2n  1 3.650000e-01    6.692000e+00
 SX3eq   Q2n  1 4.300000e-01    3.326000e+00
 SX3eq  SQ2n  1 4.100000e-01    4.613000e+00
 SX3eq  TQ2n  1 3.650000e-01    6.317000e+00
 SX2eq   Q2n  1 4.300000e-01    3.284000e+00
 SX2eq  SQ2n  1 4.100000e-01    4.201000e+00
 SX2eq  TQ2n  1 3.650000e-01    5.778000e+00
 SX1eq   Q2n  1 4.300000e-01    2.830000e+00
 SX1eq  SQ2n  1 4.100000e-01    3.726000e+00
 SX1eq  TQ2n  1 3.650000e-01    4.939000e+00
  SP6h   Q2n  1 4.300000e-01    4.646000e+00
  SP6h  SQ2n  1 4.100000e-01    6.239000e+00
  SP6h  TQ2n  1 3.650000e-01    8.427000e+00
  SP5h   Q2n  1 4.300000e-01    4.874000e+00
  SP5h  SQ2n  1 4.100000e-01    6.450000e+00
  SP5h  TQ2n  1 3.650000e-01    8.677000e+00
  SP4h   Q2n  1 4.300000e-01    4.870000e+00
  SP4h  SQ2n  1 4.100000e-01    6.431000e+00
  SP4h  TQ2n  1 3.650000e-01    8.637000e+00
  SP3h   Q2n  1 4.300000e-01    4.637000e+00
  SP3h  SQ2n  1 4.100000e-01    6.194000e+00
  SP3h  TQ2n  1 3.650000e-01    8.332000e+00
  SP2h   Q2n  1 4.300000e-01    4.634000e+00
  SP2h  SQ2n  1 4.100000e-01    6.179000e+00
  SP2h  TQ2n  1 3.650000e-01    8.302000e+00
  SP1h   Q2n  1 4.300000e-01    4.432000e+00
  SP1h  SQ2n  1 4.100000e-01    5.897000e+00
  SP1h  TQ2n  1 3.650000e-01    8.006000e+00
  SN6h   Q2n  1 4.300000e-01    4.429000e+00
  SN6h  SQ2n  1 4.100000e-01    5.882000e+00
  SN6h  TQ2n  1 3.650000e-01    7.974000e+00
  SN5h   Q2n  1 4.300000e-01    4.425000e+00
  SN5h  SQ2n  1 4.100000e-01    5.863000e+00
  SN5h  TQ2n  1 3.650000e-01    7.934000e+00
  SN4h   Q2n  1 4.300000e-01    4.420000e+00
  SN4h  SQ2n  1 4.100000e-01    5.838000e+00
  SN4h  TQ2n  1 3.650000e-01    7.882000e+00
  SN3h   Q2n  1 4.300000e-01    4.213000e+00
  SN3h  SQ2n  1 4.100000e-01    5.564000e+00
  SN3h  TQ2n  1 3.650000e-01    7.541000e+00
  SN2h   Q2n  1 4.300000e-01    4.204000e+00
  SN2h  SQ2n  1 4.100000e-01    5.516000e+00
  SN2h  TQ2n  1 3.650000e-01    7.441000e+00
  SN1h   Q2n  1 4.300000e-01    4.190000e+00
  SN1h  SQ2n  1 4.100000e-01    5.444000e+00
  SN1h  TQ2n  1 3.650000e-01    7.290000e+00
  SC6h   Q2n  1 4.300000e-01    3.556000e+00
  SC6h  SQ2n  1 4.100000e-01    4.613000e+00
  SC6h  TQ2n  1 3.650000e-01    6.317000e+00
  SC5h   Q2n  1 4.300000e-01    3.147000e+00
  SC5h  SQ2n  1 4.100000e-01    4.115000e+00
  SC5h  TQ2n  1 3.650000e-01    5.754000e+00
  SC4h   Q2n  1 4.300000e-01    2.878000e+00
  SC4h  SQ2n  1 4.100000e-01    3.809000e+00
  SC4h  TQ2n  1 3.660000e-01    5.288000e+00
  SC3h   Q2n  1 4.300000e-01    2.620000e+00
  SC3h  SQ2n  1 4.100000e-01    3.436000e+00
  SC3h  TQ2n  1 3.780000e-01    4.529000e+00
  SC2h   Q2n  1 4.730000e-01    1.518000e+00
  SC2h  SQ2n  1 4.530000e-01    2.354000e+00
  SC2h  TQ2n  1 4.840000e-01    2.987000e+00
  SC1h   Q2n  1 4.730000e-01    1.466000e+00
  SC1h  SQ2n  1 4.530000e-01    2.089000e+00
  SC1h  TQ2n  1 4.840000e-01    2.525000e+00
  SX4h   Q2n  1 4.300000e-01    3.330000e+00
  SX4h  SQ2n  1 4.100000e-01    4.432000e+00
  SX4h  TQ2n  1 3.650000e-01    6.262000e+00
  SX3h   Q2n  1 4.300000e-01    3.166000e+00
  SX3h  SQ2n  1 4.100000e-01    4.213000e+00
  SX3h  TQ2n  1 3.650000e-01    5.957000e+00
  SX2h   Q2n  1 4.300000e-01    2.894000e+00
  SX2h  SQ2n  1 4.100000e-01    3.891000e+00
  SX2h  TQ2n  1 3.660000e-01    5.458000e+00
  SX1h   Q2n  1 4.300000e-01    2.620000e+00
  SX1h  SQ2n  1 4.100000e-01    3.436000e+00
  SX1h  TQ2n  1 3.780000e-01    4.529000e+00
 SP6dh   Q2n  1 4.300000e-01    4.646000e+00
 SP6dh  SQ2n  1 4.100000e-01    6.459000e+00
 SP6dh  TQ2n  1 3.650000e-01    8.697000e+00
 SP5dh   Q2n  1 4.300000e-01    4.874000e+00
 SP5dh  SQ2n  1 4.100000e-01    6.700000e+00
 SP5dh  TQ2n  1 3.650000e-01    8.967000e+00
 SP4dh   Q2n  1 4.300000e-01    4.870000e+00
 SP4dh  SQ2n  1 4.100000e-01    6.681000e+00
 SP4dh  TQ2n  1 3.650000e-01    8.927000e+00
 SP3dh   Q2n  1 4.300000e-01    4.637000e+00
 SP3dh  SQ2n  1 4.100000e-01    6.414000e+00
 SP3dh  TQ2n  1 3.650000e-01    8.602000e+00
 SP2dh   Q2n  1 4.300000e-01    4.634000e+00
 SP2dh  SQ2n  1 4.100000e-01    6.399000e+00
 SP2dh  TQ2n  1 3.650000e-01    8.572000e+00
 SP1dh   Q2n  1 4.300000e-01    4.432000e+00
 SP1dh  SQ2n  1 4.100000e-01    6.167000e+00
 SP1dh  TQ2n  1 3.650000e-01    8.276000e+00
 SN6dh   Q2n  1 4.300000e-01    4.429000e+00
 SN6dh  SQ2n  1 4.100000e-01    6.152000e+00
 SN6dh  TQ2n  1 3.650000e-01    8.244000e+00
 SN5dh   Q2n  1 4.300000e-01    4.425000e+00
 SN5dh  SQ2n  1 4.100000e-01    6.133000e+00
 SN5dh  TQ2n  1 3.650000e-01    8.204000e+00
 SN4dh   Q2n  1 4.300000e-01    4.420000e+00
 SN4dh  SQ2n  1 4.100000e-01    6.108000e+00
 SN4dh  TQ2n  1 3.650000e-01    8.152000e+00
 SN3dh   Q2n  1 4.300000e-01    4.213000e+00
 SN3dh  SQ2n  1 4.100000e-01    5.804000e+00
 SN3dh  TQ2n  1 3.650000e-01    7.811000e+00
 SN2dh   Q2n  1 4.300000e-01    4.204000e+00
 SN2dh  SQ2n  1 4.100000e-01    5.756000e+00
 SN2dh  TQ2n  1 3.650000e-01    7.711000e+00
 SN1dh   Q2n  1 4.300000e-01    4.190000e+00
 SN1dh  SQ2n  1 4.100000e-01    5.684000e+00
 SN1dh  TQ2n  1 3.650000e-01    7.560000e+00
 SP6ah   Q2n  1 4.300000e-01    4.066000e+00
 SP6ah  SQ2n  1 4.100000e-01    5.729000e+00
 SP6ah  TQ2n  1 3.650000e-01    7.887000e+00
 SP5ah   Q2n  1 4.300000e-01    4.244000e+00
 SP5ah  SQ2n  1 4.100000e-01    5.960000e+00
 SP5ah  TQ2n  1 3.650000e-01    8.137000e+00
 SP4ah   Q2n  1 4.300000e-01    4.240000e+00
 SP4ah  SQ2n  1 4.100000e-01    5.941000e+00
 SP4ah  TQ2n  1 3.650000e-01    8.097000e+00
 SP3ah   Q2n  1 4.300000e-01    4.057000e+00
 SP3ah  SQ2n  1 4.100000e-01    5.684000e+00
 SP3ah  TQ2n  1 3.650000e-01    7.792000e+00
 SP2ah   Q2n  1 4.300000e-01    4.054000e+00
 SP2ah  SQ2n  1 4.100000e-01    5.669000e+00
 SP2ah  TQ2n  1 3.650000e-01    7.762000e+00
 SP1ah   Q2n  1 4.300000e-01    3.842000e+00
 SP1ah  SQ2n  1 4.100000e-01    5.417000e+00
 SP1ah  TQ2n  1 3.650000e-01    7.476000e+00
 SN6ah   Q2n  1 4.300000e-01    3.839000e+00
 SN6ah  SQ2n  1 4.100000e-01    5.402000e+00
 SN6ah  TQ2n  1 3.650000e-01    7.444000e+00
 SN5ah   Q2n  1 4.300000e-01    3.835000e+00
 SN5ah  SQ2n  1 4.100000e-01    5.383000e+00
 SN5ah  TQ2n  1 3.650000e-01    7.404000e+00
 SN4ah   Q2n  1 4.300000e-01    3.830000e+00
 SN4ah  SQ2n  1 4.100000e-01    5.358000e+00
 SN4ah  TQ2n  1 3.650000e-01    7.352000e+00
 SN3ah   Q2n  1 4.300000e-01    3.603000e+00
 SN3ah  SQ2n  1 4.100000e-01    5.094000e+00
 SN3ah  TQ2n  1 3.650000e-01    7.051000e+00
 SN2ah   Q2n  1 4.300000e-01    3.594000e+00
 SN2ah  SQ2n  1 4.100000e-01    5.046000e+00
 SN2ah  TQ2n  1 3.650000e-01    6.951000e+00
 SN1ah   Q2n  1 4.300000e-01    3.580000e+00
 SN1ah  SQ2n  1 4.100000e-01    4.974000e+00
 SN1ah  TQ2n  1 3.650000e-01    6.800000e+00
 SC6vh   Q2n  1 4.300000e-01    3.776000e+00
 SC6vh  SQ2n  1 4.100000e-01    5.083000e+00
 SC6vh  TQ2n  1 3.650000e-01    6.777000e+00
 SC5vh   Q2n  1 4.300000e-01    3.307000e+00
 SC5vh  SQ2n  1 4.100000e-01    4.515000e+00
 SC5vh  TQ2n  1 3.650000e-01    6.114000e+00
 SC4vh   Q2n  1 4.300000e-01    3.268000e+00
 SC4vh  SQ2n  1 4.100000e-01    4.119000e+00
 SC4vh  TQ2n  1 3.650000e-01    5.608000e+00
 SC3vh   Q2n  1 4.300000e-01    2.830000e+00
 SC3vh  SQ2n  1 4.100000e-01    3.726000e+00
 SC3vh  TQ2n  1 3.650000e-01    4.939000e+00
 SC2vh   Q2n  1 4.430000e-01    1.734000e+00
 SC2vh  SQ2n  1 4.180000e-01    2.705000e+00
 SC2vh  TQ2n  1 4.090000e-01    3.562000e+00
 SC1vh   Q2n  1 4.430000e-01    1.678000e+00
 SC1vh  SQ2n  1 4.180000e-01    2.418000e+00
 SC1vh  TQ2n  1 4.090000e-01    3.015000e+00
 SX4vh   Q2n  1 4.300000e-01    3.570000e+00
 SX4vh  SQ2n  1 4.100000e-01    4.922000e+00
 SX4vh  TQ2n  1 3.650000e-01    6.692000e+00
 SX3vh   Q2n  1 4.300000e-01    3.326000e+00
 SX3vh  SQ2n  1 4.100000e-01    4.613000e+00
 SX3vh  TQ2n  1 3.650000e-01    6.317000e+00
 SX2vh   Q2n  1 4.300000e-01    3.284000e+00
 SX2vh  SQ2n  1 4.100000e-01    4.201000e+00
 SX2vh  TQ2n  1 3.650000e-01    5.778000e+00
 SX1vh   Q2n  1 4.300000e-01    2.830000e+00
 SX1vh  SQ2n  1 4.100000e-01    3.726000e+00
 SX1vh  TQ2n  1 3.650000e-01    4.939000e+00
 SC6eh   Q2n  1 4.300000e-01    3.316000e+00
 SC6eh  SQ2n  1 4.100000e-01    4.363000e+00
 SC6eh  TQ2n  1 3.650000e-01    6.117000e+00
 SC5eh   Q2n  1 4.300000e-01    2.697000e+00
 SC5eh  SQ2n  1 4.100000e-01    3.955000e+00
 SC5eh  TQ2n  1 3.660000e-01    5.593000e+00
 SC4eh   Q2n  1 4.300000e-01    2.508000e+00
 SC4eh  SQ2n  1 4.100000e-01    3.679000e+00
 SC4eh  TQ2n  1 3.780000e-01    5.021000e+00
 SC3eh   Q2n  1 4.300000e-01    2.230000e+00
 SC3eh  SQ2n  1 4.100000e-01    3.276000e+00
 SC3eh  TQ2n  1 3.940000e-01    4.244000e+00
 SC2eh   Q2n  1 5.140000e-01    1.329000e+00
 SC2eh  SQ2n  1 4.960000e-01    2.150000e+00
 SC2eh  TQ2n  1 5.370000e-01    2.698000e+00
 SC1eh   Q2n  1 5.140000e-01    1.281000e+00
 SC1eh  SQ2n  1 4.960000e-01    1.908000e+00
 SC1eh  TQ2n  1 5.370000e-01    2.282000e+00
 SX4eh   Q2n  1 4.300000e-01    2.940000e+00
 SX4eh  SQ2n  1 4.100000e-01    4.282000e+00
 SX4eh  TQ2n  1 3.650000e-01    6.102000e+00
 SX3eh   Q2n  1 4.300000e-01    2.716000e+00
 SX3eh  SQ2n  1 4.100000e-01    4.053000e+00
 SX3eh  TQ2n  1 3.660000e-01    5.795000e+00
 SX2eh   Q2n  1 4.300000e-01    2.524000e+00
 SX2eh  SQ2n  1 4.100000e-01    3.761000e+00
 SX2eh  TQ2n  1 3.780000e-01    5.185000e+00
 SX1eh   Q2n  1 4.300000e-01    2.230000e+00
 SX1eh  SQ2n  1 4.100000e-01    3.276000e+00
 SX1eh  TQ2n  1 3.940000e-01    4.244000e+00
  SP6r   Q2n  1 4.300000e-01    4.646000e+00
  SP6r  SQ2n  1 4.100000e-01    6.239000e+00
  SP6r  TQ2n  1 3.650000e-01    8.427000e+00
  SP5r   Q2n  1 4.300000e-01    4.874000e+00
  SP5r  SQ2n  1 4.100000e-01    6.450000e+00
  SP5r  TQ2n  1 3.650000e-01    8.677000e+00
  SP4r   Q2n  1 4.300000e-01    4.870000e+00
  SP4r  SQ2n  1 4.100000e-01    6.431000e+00
  SP4r  TQ2n  1 3.650000e-01    8.637000e+00
  SP3r   Q2n  1 4.300000e-01    4.637000e+00
  SP3r  SQ2n  1 4.100000e-01    6.194000e+00
  SP3r  TQ2n  1 3.650000e-01    8.332000e+00
  SP2r   Q2n  1 4.300000e-01    4.634000e+00
  SP2r  SQ2n  1 4.100000e-01    6.179000e+00
  SP2r  TQ2n  1 3.650000e-01    8.302000e+00
  SP1r   Q2n  1 4.300000e-01    4.432000e+00
  SP1r  SQ2n  1 4.100000e-01    5.897000e+00
  SP1r  TQ2n  1 3.650000e-01    8.006000e+00
  SN6r   Q2n  1 4.300000e-01    4.429000e+00
  SN6r  SQ2n  1 4.100000e-01    5.882000e+00
  SN6r  TQ2n  1 3.650000e-01    7.974000e+00
  SN5r   Q2n  1 4.300000e-01    4.425000e+00
  SN5r  SQ2n  1 4.100000e-01    5.863000e+00
  SN5r  TQ2n  1 3.650000e-01    7.934000e+00
  SN4r   Q2n  1 4.300000e-01    4.420000e+00
  SN4r  SQ2n  1 4.100000e-01    5.838000e+00
  SN4r  TQ2n  1 3.650000e-01    7.882000e+00
  SN3r   Q2n  1 4.300000e-01    4.213000e+00
  SN3r  SQ2n  1 4.100000e-01    5.564000e+00
  SN3r  TQ2n  1 3.650000e-01    7.541000e+00
  SN2r   Q2n  1 4.300000e-01    4.204000e+00
  SN2r  SQ2n  1 4.100000e-01    5.516000e+00
  SN2r  TQ2n  1 3.650000e-01    7.441000e+00
  SN1r   Q2n  1 4.300000e-01    4.190000e+00
  SN1r  SQ2n  1 4.100000e-01    5.444000e+00
  SN1r  TQ2n  1 3.650000e-01    7.290000e+00
  SC6r   Q2n  1 4.300000e-01    3.556000e+00
  SC6r  SQ2n  1 4.100000e-01    4.613000e+00
  SC6r  TQ2n  1 3.650000e-01    6.317000e+00
  SC5r   Q2n  1 4.300000e-01    3.147000e+00
  SC5r  SQ2n  1 4.100000e-01    4.115000e+00
  SC5r  TQ2n  1 3.650000e-01    5.754000e+00
  SC4r   Q2n  1 4.300000e-01    2.878000e+00
  SC4r  SQ2n  1 4.100000e-01    3.809000e+00
  SC4r  TQ2n  1 3.660000e-01    5.288000e+00
  SC3r   Q2n  1 4.300000e-01    2.620000e+00
  SC3r  SQ2n  1 4.100000e-01    3.436000e+00
  SC3r  TQ2n  1 3.780000e-01    4.529000e+00
  SC2r   Q2n  1 4.730000e-01    1.518000e+00
  SC2r  SQ2n  1 4.530000e-01    2.354000e+00
  SC2r  TQ2n  1 4.840000e-01    2.987000e+00
  SC1r   Q2n  1 4.730000e-01    1.466000e+00
  SC1r  SQ2n  1 4.530000e-01    2.089000e+00
  SC1r  TQ2n  1 4.840000e-01    2.525000e+00
  SX4r   Q2n  1 4.300000e-01    3.330000e+00
  SX4r  SQ2n  1 4.100000e-01    4.432000e+00
  SX4r  TQ2n  1 3.650000e-01    6.262000e+00
  SX3r   Q2n  1 4.300000e-01    3.166000e+00
  SX3r  SQ2n  1 4.100000e-01    4.213000e+00
  SX3r  TQ2n  1 3.650000e-01    5.957000e+00
  SX2r   Q2n  1 4.300000e-01    2.894000e+00
  SX2r  SQ2n  1 4.100000e-01    3.891000e+00
  SX2r  TQ2n  1 3.660000e-01    5.458000e+00
  SX1r   Q2n  1 4.300000e-01    2.620000e+00
  SX1r  SQ2n  1 4.100000e-01    3.436000e+00
  SX1r  TQ2n  1 3.780000e-01    4.529000e+00
 SP6dr   Q2n  1 4.300000e-01    4.646000e+00
 SP6dr  SQ2n  1 4.100000e-01    6.459000e+00
 SP6dr  TQ2n  1 3.650000e-01    8.697000e+00
 SP5dr   Q2n  1 4.300000e-01    4.874000e+00
 SP5dr  SQ2n  1 4.100000e-01    6.700000e+00
 SP5dr  TQ2n  1 3.650000e-01    8.967000e+00
 SP4dr   Q2n  1 4.300000e-01    4.870000e+00
 SP4dr  SQ2n  1 4.100000e-01    6.681000e+00
 SP4dr  TQ2n  1 3.650000e-01    8.927000e+00
 SP3dr   Q2n  1 4.300000e-01    4.637000e+00
 SP3dr  SQ2n  1 4.100000e-01    6.414000e+00
 SP3dr  TQ2n  1 3.650000e-01    8.602000e+00
 SP2dr   Q2n  1 4.300000e-01    4.634000e+00
 SP2dr  SQ2n  1 4.100000e-01    6.399000e+00
 SP2dr  TQ2n  1 3.650000e-01    8.572000e+00
 SP1dr   Q2n  1 4.300000e-01    4.432000e+00
 SP1dr  SQ2n  1 4.100000e-01    6.167000e+00
 SP1dr  TQ2n  1 3.650000e-01    8.276000e+00
 SN6dr   Q2n  1 4.300000e-01    4.429000e+00
 SN6dr  SQ2n  1 4.100000e-01    6.152000e+00
 SN6dr  TQ2n  1 3.650000e-01    8.244000e+00
 SN5dr   Q2n  1 4.300000e-01    4.425000e+00
 SN5dr  SQ2n  1 4.100000e-01    6.133000e+00
 SN5dr  TQ2n  1 3.650000e-01    8.204000e+00
 SN4dr   Q2n  1 4.300000e-01    4.420000e+00
 SN4dr  SQ2n  1 4.100000e-01    6.108000e+00
 SN4dr  TQ2n  1 3.650000e-01    8.152000e+00
 SN3dr   Q2n  1 4.300000e-01    4.213000e+00
 SN3dr  SQ2n  1 4.100000e-01    5.804000e+00
 SN3dr  TQ2n  1 3.650000e-01    7.811000e+00
 SN2dr   Q2n  1 4.300000e-01    4.204000e+00
 SN2dr  SQ2n  1 4.100000e-01    5.756000e+00
 SN2dr  TQ2n  1 3.650000e-01    7.711000e+00
 SN1dr   Q2n  1 4.300000e-01    4.190000e+00
 SN1dr  SQ2n  1 4.100000e-01    5.684000e+00
 SN1dr  TQ2n  1 3.650000e-01    7.560000e+00
 SP6ar   Q2n  1 4.300000e-01    4.066000e+00
 SP6ar  SQ2n  1 4.100000e-01    5.729000e+00
 SP6ar  TQ2n  1 3.650000e-01    7.887000e+00
 SP5ar   Q2n  1 4.300000e-01    4.244000e+00
 SP5ar  SQ2n  1 4.100000e-01    5.960000e+00
 SP5ar  TQ2n  1 3.650000e-01    8.137000e+00
 SP4ar   Q2n  1 4.300000e-01    4.240000e+00
 SP4ar  SQ2n  1 4.100000e-01    5.941000e+00
 SP4ar  TQ2n  1 3.650000e-01    8.097000e+00
 SP3ar   Q2n  1 4.300000e-01    4.057000e+00
 SP3ar  SQ2n  1 4.100000e-01    5.684000e+00
 SP3ar  TQ2n  1 3.650000e-01    7.792000e+00
 SP2ar   Q2n  1 4.300000e-01    4.054000e+00
 SP2ar  SQ2n  1 4.100000e-01    5.669000e+00
 SP2ar  TQ2n  1 3.650000e-01    7.762000e+00
 SP1ar   Q2n  1 4.300000e-01    3.842000e+00
 SP1ar  SQ2n  1 4.100000e-01    5.417000e+00
 SP1ar  TQ2n  1 3.650000e-01    7.476000e+00
 SN6ar   Q2n  1 4.300000e-01    3.839000e+00
 SN6ar  SQ2n  1 4.100000e-01    5.402000e+00
 SN6ar  TQ2n  1 3.650000e-01    7.444000e+00
 SN5ar   Q2n  1 4.300000e-01    3.835000e+00
 SN5ar  SQ2n  1 4.100000e-01    5.383000e+00
 SN5ar  TQ2n  1 3.650000e-01    7.404000e+00
 SN4ar   Q2n  1 4.300000e-01    3.830000e+00
 SN4ar  SQ2n  1 4.100000e-01    5.358000e+00
 SN4ar  TQ2n  1 3.650000e-01    7.352000e+00
 SN3ar   Q2n  1 4.300000e-01    3.603000e+00
 SN3ar  SQ2n  1 4.100000e-01    5.094000e+00
 SN3ar  TQ2n  1 3.650000e-01    7.051000e+00
 SN2ar   Q2n  1 4.300000e-01    3.594000e+00
 SN2ar  SQ2n  1 4.100000e-01    5.046000e+00
 SN2ar  TQ2n  1 3.650000e-01    6.951000e+00
 SN1ar   Q2n  1 4.300000e-01    3.580000e+00
 SN1ar  SQ2n  1 4.100000e-01    4.974000e+00
 SN1ar  TQ2n  1 3.650000e-01    6.800000e+00
 SC6vr   Q2n  1 4.300000e-01    3.776000e+00
 SC6vr  SQ2n  1 4.100000e-01    5.083000e+00
 SC6vr  TQ2n  1 3.650000e-01    6.777000e+00
 SC5vr   Q2n  1 4.300000e-01    3.307000e+00
 SC5vr  SQ2n  1 4.100000e-01    4.515000e+00
 SC5vr  TQ2n  1 3.650000e-01    6.114000e+00
 SC4vr   Q2n  1 4.300000e-01    3.268000e+00
 SC4vr  SQ2n  1 4.100000e-01    4.119000e+00
 SC4vr  TQ2n  1 3.650000e-01    5.608000e+00
 SC3vr   Q2n  1 4.300000e-01    2.830000e+00
 SC3vr  SQ2n  1 4.100000e-01    3.726000e+00
 SC3vr  TQ2n  1 3.650000e-01    4.939000e+00
 SC2vr   Q2n  1 4.430000e-01    1.734000e+00
 SC2vr  SQ2n  1 4.180000e-01    2.705000e+00
 SC2vr  TQ2n  1 4.090000e-01    3.562000e+00
 SC1vr   Q2n  1 4.430000e-01    1.678000e+00
 SC1vr  SQ2n  1 4.180000e-01    2.418000e+00
 SC1vr  TQ2n  1 4.090000e-01    3.015000e+00
 SX4vr   Q2n  1 4.300000e-01    3.570000e+00
 SX4vr  SQ2n  1 4.100000e-01    4.922000e+00
 SX4vr  TQ2n  1 3.650000e-01    6.692000e+00
 SX3vr   Q2n  1 4.300000e-01    3.326000e+00
 SX3vr  SQ2n  1 4.100000e-01    4.613000e+00
 SX3vr  TQ2n  1 3.650000e-01    6.317000e+00
 SX2vr   Q2n  1 4.300000e-01    3.284000e+00
 SX2vr  SQ2n  1 4.100000e-01    4.201000e+00
 SX2vr  TQ2n  1 3.650000e-01    5.778000e+00
 SX1vr   Q2n  1 4.300000e-01    2.830000e+00
 SX1vr  SQ2n  1 4.100000e-01    3.726000e+00
 SX1vr  TQ2n  1 3.650000e-01    4.939000e+00
 SC6er   Q2n  1 4.300000e-01    3.316000e+00
 SC6er  SQ2n  1 4.100000e-01    4.363000e+00
 SC6er  TQ2n  1 3.650000e-01    6.117000e+00
 SC5er   Q2n  1 4.300000e-01    2.697000e+00
 SC5er  SQ2n  1 4.100000e-01    3.955000e+00
 SC5er  TQ2n  1 3.660000e-01    5.593000e+00
 SC4er   Q2n  1 4.300000e-01    2.508000e+00
 SC4er  SQ2n  1 4.100000e-01    3.679000e+00
 SC4er  TQ2n  1 3.780000e-01    5.021000e+00
 SC3er   Q2n  1 4.300000e-01    2.230000e+00
 SC3er  SQ2n  1 4.100000e-01    3.276000e+00
 SC3er  TQ2n  1 3.940000e-01    4.244000e+00
 SC2er   Q2n  1 5.140000e-01    1.329000e+00
 SC2er  SQ2n  1 4.960000e-01    2.150000e+00
 SC2er  TQ2n  1 5.370000e-01    2.698000e+00
 SC1er   Q2n  1 5.140000e-01    1.281000e+00
 SC1er  SQ2n  1 4.960000e-01    1.908000e+00
 SC1er  TQ2n  1 5.370000e-01    2.282000e+00
 SX4er   Q2n  1 4.300000e-01    2.940000e+00
 SX4er  SQ2n  1 4.100000e-01    4.282000e+00
 SX4er  TQ2n  1 3.650000e-01    6.102000e+00
 SX3er   Q2n  1 4.300000e-01    2.716000e+00
 SX3er  SQ2n  1 4.100000e-01    4.053000e+00
 SX3er  TQ2n  1 3.660000e-01    5.795000e+00
 SX2er   Q2n  1 4.300000e-01    2.524000e+00
 SX2er  SQ2n  1 4.100000e-01    3.761000e+00
 SX2er  TQ2n  1 3.780000e-01    5.185000e+00
 SX1er   Q2n  1 4.300000e-01    2.230000e+00
 SX1er  SQ2n  1 4.100000e-01    3.276000e+00
 SX1er  TQ2n  1 3.940000e-01    4.244000e+00
   TP6   Q2n  1 3.950000e-01    4.070000e+00
   TP6  SQ2n  1 3.650000e-01    5.565000e+00
   TP6  TQ2n  1 3.400000e-01    7.818000e+00
   TP5   Q2n  1 3.950000e-01    4.310000e+00
   TP5  SQ2n  1 3.650000e-01    5.837000e+00
   TP5  TQ2n  1 3.400000e-01    8.052000e+00
   TP4   Q2n  1 3.950000e-01    4.309000e+00
   TP4  SQ2n  1 3.650000e-01    5.831000e+00
   TP4  TQ2n  1 3.400000e-01    8.040000e+00
   TP3   Q2n  1 3.950000e-01    4.068000e+00
   TP3  SQ2n  1 3.650000e-01    5.552000e+00
   TP3  TQ2n  1 3.400000e-01    7.791000e+00
   TP2   Q2n  1 3.950000e-01    4.066000e+00
   TP2  SQ2n  1 3.650000e-01    5.544000e+00
   TP2  TQ2n  1 3.400000e-01    7.772000e+00
   TP1   Q2n  1 3.950000e-01    3.825000e+00
   TP1  SQ2n  1 3.650000e-01    5.266000e+00
   TP1  TQ2n  1 3.400000e-01    7.504000e+00
   TN6   Q2n  1 3.950000e-01    3.823000e+00
   TN6  SQ2n  1 3.650000e-01    5.255000e+00
   TN6  TQ2n  1 3.400000e-01    7.482000e+00
   TN5   Q2n  1 3.950000e-01    3.820000e+00
   TN5  SQ2n  1 3.650000e-01    5.242000e+00
   TN5  TQ2n  1 3.400000e-01    7.452000e+00
   TN4   Q2n  1 3.950000e-01    3.817000e+00
   TN4  SQ2n  1 3.650000e-01    5.224000e+00
   TN4  TQ2n  1 3.400000e-01    7.412000e+00
   TN3   Q2n  1 3.950000e-01    3.572000e+00
   TN3  SQ2n  1 3.650000e-01    4.929000e+00
   TN3  TQ2n  1 3.400000e-01    7.117000e+00
   TN2   Q2n  1 3.950000e-01    3.566000e+00
   TN2  SQ2n  1 3.650000e-01    4.892000e+00
   TN2  TQ2n  1 3.400000e-01    7.037000e+00
   TN1   Q2n  1 3.950000e-01    3.556000e+00
   TN1  SQ2n  1 3.650000e-01    4.836000e+00
   TN1  TQ2n  1 3.400000e-01    6.914000e+00
   TC6   Q2n  1 3.950000e-01    2.848000e+00
   TC6  SQ2n  1 3.650000e-01    4.021000e+00
   TC6  TQ2n  1 3.400000e-01    5.974000e+00
   TC5   Q2n  1 3.950000e-01    2.444000e+00
   TC5  SQ2n  1 3.650000e-01    3.584000e+00
   TC5  TQ2n  1 3.400000e-01    5.264000e+00
   TC4   Q2n  1 3.950000e-01    2.163000e+00
   TC4  SQ2n  1 3.660000e-01    3.313000e+00
   TC4  TQ2n  1 3.520000e-01    4.700000e+00
   TC3   Q2n  1 3.950000e-01    1.947000e+00
   TC3  SQ2n  1 3.780000e-01    2.920000e+00
   TC3  TQ2n  1 3.660000e-01    4.047000e+00
   TC2   Q2n  1 4.650000e-01    9.150000e-01
   TC2  SQ2n  1 4.840000e-01    1.920000e+00
   TC2  TQ2n  1 5.050000e-01    2.704000e+00
   TC1   Q2n  1 4.650000e-01    8.780000e-01
   TC1  SQ2n  1 4.840000e-01    1.743000e+00
   TC1  TQ2n  1 5.050000e-01    2.356000e+00
   TX4   Q2n  1 3.950000e-01    2.668000e+00
   TX4  SQ2n  1 3.650000e-01    3.876000e+00
   TX4  TQ2n  1 3.400000e-01    5.834000e+00
   TX3   Q2n  1 3.950000e-01    2.458000e+00
   TX3  SQ2n  1 3.650000e-01    3.661000e+00
   TX3  TQ2n  1 3.400000e-01    5.434000e+00
   TX2   Q2n  1 3.950000e-01    2.175000e+00
   TX2  SQ2n  1 3.660000e-01    3.377000e+00
   TX2  TQ2n  1 3.520000e-01    4.837000e+00
   TX1   Q2n  1 3.950000e-01    1.947000e+00
   TX1  SQ2n  1 3.780000e-01    2.920000e+00
   TX1  TQ2n  1 3.660000e-01    4.047000e+00
  TP6d   Q2n  1 3.950000e-01    4.310000e+00
  TP6d  SQ2n  1 3.650000e-01    5.835000e+00
  TP6d  TQ2n  1 3.400000e-01    8.298000e+00
  TP5d   Q2n  1 3.950000e-01    4.630000e+00
  TP5d  SQ2n  1 3.650000e-01    6.127000e+00
  TP5d  TQ2n  1 3.400000e-01    8.582000e+00
  TP4d   Q2n  1 3.950000e-01    4.629000e+00
  TP4d  SQ2n  1 3.650000e-01    6.121000e+00
  TP4d  TQ2n  1 3.400000e-01    8.570000e+00
  TP3d   Q2n  1 3.950000e-01    4.308000e+00
  TP3d  SQ2n  1 3.650000e-01    5.822000e+00
  TP3d  TQ2n  1 3.400000e-01    8.271000e+00
  TP2d   Q2n  1 3.950000e-01    4.306000e+00
  TP2d  SQ2n  1 3.650000e-01    5.814000e+00
  TP2d  TQ2n  1 3.400000e-01    8.252000e+00
  TP1d   Q2n  1 3.950000e-01    4.065000e+00
  TP1d  SQ2n  1 3.650000e-01    5.536000e+00
  TP1d  TQ2n  1 3.400000e-01    7.984000e+00
  TN6d   Q2n  1 3.950000e-01    4.063000e+00
  TN6d  SQ2n  1 3.650000e-01    5.525000e+00
  TN6d  TQ2n  1 3.400000e-01    7.962000e+00
  TN5d   Q2n  1 3.950000e-01    4.060000e+00
  TN5d  SQ2n  1 3.650000e-01    5.512000e+00
  TN5d  TQ2n  1 3.400000e-01    7.932000e+00
  TN4d   Q2n  1 3.950000e-01    4.057000e+00
  TN4d  SQ2n  1 3.650000e-01    5.494000e+00
  TN4d  TQ2n  1 3.400000e-01    7.892000e+00
  TN3d   Q2n  1 3.950000e-01    3.812000e+00
  TN3d  SQ2n  1 3.650000e-01    5.199000e+00
  TN3d  TQ2n  1 3.400000e-01    7.607000e+00
  TN2d   Q2n  1 3.950000e-01    3.806000e+00
  TN2d  SQ2n  1 3.650000e-01    5.162000e+00
  TN2d  TQ2n  1 3.400000e-01    7.527000e+00
  TN1d   Q2n  1 3.950000e-01    3.796000e+00
  TN1d  SQ2n  1 3.650000e-01    5.106000e+00
  TN1d  TQ2n  1 3.400000e-01    7.404000e+00
  TP6a   Q2n  1 3.950000e-01    3.590000e+00
  TP6a  SQ2n  1 3.650000e-01    5.025000e+00
  TP6a  TQ2n  1 3.400000e-01    7.328000e+00
  TP5a   Q2n  1 3.950000e-01    3.830000e+00
  TP5a  SQ2n  1 3.650000e-01    5.297000e+00
  TP5a  TQ2n  1 3.400000e-01    7.572000e+00
  TP4a   Q2n  1 3.950000e-01    3.829000e+00
  TP4a  SQ2n  1 3.650000e-01    5.291000e+00
  TP4a  TQ2n  1 3.400000e-01    7.560000e+00
  TP3a   Q2n  1 3.950000e-01    3.588000e+00
  TP3a  SQ2n  1 3.650000e-01    5.012000e+00
  TP3a  TQ2n  1 3.400000e-01    7.301000e+00
  TP2a   Q2n  1 3.950000e-01    3.586000e+00
  TP2a  SQ2n  1 3.650000e-01    5.004000e+00
  TP2a  TQ2n  1 3.400000e-01    7.282000e+00
  TP1a   Q2n  1 3.950000e-01    3.335000e+00
  TP1a  SQ2n  1 3.650000e-01    4.736000e+00
  TP1a  TQ2n  1 3.400000e-01    7.044000e+00
  TN6a   Q2n  1 3.950000e-01    3.333000e+00
  TN6a  SQ2n  1 3.650000e-01    4.725000e+00
  TN6a  TQ2n  1 3.400000e-01    7.022000e+00
  TN5a   Q2n  1 3.950000e-01    3.330000e+00
  TN5a  SQ2n  1 3.650000e-01    4.712000e+00
  TN5a  TQ2n  1 3.400000e-01    6.992000e+00
  TN4a   Q2n  1 3.950000e-01    3.327000e+00
  TN4a  SQ2n  1 3.650000e-01    4.694000e+00
  TN4a  TQ2n  1 3.400000e-01    6.952000e+00
  TN3a   Q2n  1 3.950000e-01    3.082000e+00
  TN3a  SQ2n  1 3.650000e-01    4.439000e+00
  TN3a  TQ2n  1 3.400000e-01    6.637000e+00
  TN2a   Q2n  1 3.950000e-01    3.076000e+00
  TN2a  SQ2n  1 3.650000e-01    4.402000e+00
  TN2a  TQ2n  1 3.400000e-01    6.557000e+00
  TN1a   Q2n  1 3.950000e-01    3.066000e+00
  TN1a  SQ2n  1 3.650000e-01    4.346000e+00
  TN1a  TQ2n  1 3.400000e-01    6.434000e+00
  TC6v   Q2n  1 3.950000e-01    3.288000e+00
  TC6v  SQ2n  1 3.650000e-01    4.481000e+00
  TC6v  TQ2n  1 3.400000e-01    6.704000e+00
  TC5v   Q2n  1 3.950000e-01    2.834000e+00
  TC5v  SQ2n  1 3.650000e-01    3.944000e+00
  TC5v  TQ2n  1 3.400000e-01    6.054000e+00
  TC4v   Q2n  1 3.950000e-01    2.623000e+00
  TC4v  SQ2n  1 3.650000e-01    3.628000e+00
  TC4v  TQ2n  1 3.400000e-01    5.549000e+00
  TC3v   Q2n  1 3.950000e-01    2.387000e+00
  TC3v  SQ2n  1 3.650000e-01    3.273000e+00
  TC3v  TQ2n  1 3.400000e-01    4.860000e+00
  TC2v   Q2n  1 4.010000e-01    1.228000e+00
  TC2v  SQ2n  1 4.090000e-01    2.299000e+00
  TC2v  TQ2n  1 4.110000e-01    3.288000e+00
  TC1v   Q2n  1 4.010000e-01    1.186000e+00
  TC1v  SQ2n  1 4.090000e-01    2.090000e+00
  TC1v  TQ2n  1 4.110000e-01    2.860000e+00
  TX4v   Q2n  1 3.950000e-01    3.058000e+00
  TX4v  SQ2n  1 3.650000e-01    4.306000e+00
  TX4v  TQ2n  1 3.400000e-01    6.604000e+00
  TX3v   Q2n  1 3.950000e-01    2.848000e+00
  TX3v  SQ2n  1 3.650000e-01    4.021000e+00
  TX3v  TQ2n  1 3.400000e-01    6.224000e+00
  TX2v   Q2n  1 3.950000e-01    2.635000e+00
  TX2v  SQ2n  1 3.650000e-01    3.692000e+00
  TX2v  TQ2n  1 3.400000e-01    5.691000e+00
  TX1v   Q2n  1 3.950000e-01    2.387000e+00
  TX1v  SQ2n  1 3.650000e-01    3.273000e+00
  TX1v  TQ2n  1 3.400000e-01    4.860000e+00
  TC6e   Q2n  1 3.950000e-01    2.658000e+00
  TC6e  SQ2n  1 3.650000e-01    3.821000e+00
  TC6e  TQ2n  1 3.400000e-01    5.714000e+00
  TC5e   Q2n  1 3.950000e-01    2.184000e+00
  TC5e  SQ2n  1 3.660000e-01    3.429000e+00
  TC5e  TQ2n  1 3.520000e-01    4.947000e+00
  TC4e   Q2n  1 3.950000e-01    1.983000e+00
  TC4e  SQ2n  1 3.780000e-01    3.108000e+00
  TC4e  TQ2n  1 3.660000e-01    4.445000e+00
  TC3e   Q2n  1 3.980000e-01    1.725000e+00
  TC3e  SQ2n  1 3.940000e-01    2.701000e+00
  TC3e  TQ2n  1 3.850000e-01    3.813000e+00
  TC2e   Q2n  1 5.110000e-01    8.510000e-01
  TC2e  SQ2n  1 5.370000e-01    1.737000e+00
  TC2e  TQ2n  1 5.610000e-01    2.452000e+00
  TC1e   Q2n  1 5.110000e-01    8.180000e-01
  TC1e  SQ2n  1 5.370000e-01    1.577000e+00
  TC1e  TQ2n  1 5.610000e-01    2.139000e+00
  TX4e   Q2n  1 3.950000e-01    2.468000e+00
  TX4e  SQ2n  1 3.650000e-01    3.716000e+00
  TX4e  TQ2n  1 3.400000e-01    5.554000e+00
  TX3e   Q2n  1 3.950000e-01    2.198000e+00
  TX3e  SQ2n  1 3.660000e-01    3.506000e+00
  TX3e  TQ2n  1 3.520000e-01    5.111000e+00
  TX2e   Q2n  1 3.950000e-01    1.995000e+00
  TX2e  SQ2n  1 3.780000e-01    3.171000e+00
  TX2e  TQ2n  1 3.660000e-01    4.577000e+00
  TX1e   Q2n  1 3.980000e-01    1.725000e+00
  TX1e  SQ2n  1 3.940000e-01    2.701000e+00
  TX1e  TQ2n  1 3.850000e-01    3.813000e+00
  TP6q   Q2n  1 3.950000e-01    4.940000e+00
  TP6q  SQ2n  1 3.650000e-01    6.415000e+00
  TP6q  TQ2n  1 3.400000e-01    8.578000e+00
  TP5q   Q2n  1 3.950000e-01    5.270000e+00
  TP5q  SQ2n  1 3.650000e-01    6.707000e+00
  TP5q  TQ2n  1 3.400000e-01    8.852000e+00
  TP4q   Q2n  1 3.950000e-01    5.269000e+00
  TP4q  SQ2n  1 3.650000e-01    6.701000e+00
  TP4q  TQ2n  1 3.400000e-01    8.840000e+00
  TP3q   Q2n  1 3.950000e-01    4.938000e+00
  TP3q  SQ2n  1 3.650000e-01    6.402000e+00
  TP3q  TQ2n  1 3.400000e-01    8.551000e+00
  TP2q   Q2n  1 3.950000e-01    4.936000e+00
  TP2q  SQ2n  1 3.650000e-01    6.394000e+00
  TP2q  TQ2n  1 3.400000e-01    8.532000e+00
  TP1q   Q2n  1 3.950000e-01    4.625000e+00
  TP1q  SQ2n  1 3.650000e-01    6.096000e+00
  TP1q  TQ2n  1 3.400000e-01    8.234000e+00
  TN6q   Q2n  1 3.950000e-01    4.623000e+00
  TN6q  SQ2n  1 3.650000e-01    6.085000e+00
  TN6q  TQ2n  1 3.400000e-01    8.212000e+00
  TN5q   Q2n  1 3.950000e-01    4.620000e+00
  TN5q  SQ2n  1 3.650000e-01    6.072000e+00
  TN5q  TQ2n  1 3.400000e-01    8.182000e+00
  TN4q   Q2n  1 3.950000e-01    4.617000e+00
  TN4q  SQ2n  1 3.650000e-01    6.054000e+00
  TN4q  TQ2n  1 3.400000e-01    8.142000e+00
  TN3q   Q2n  1 3.950000e-01    4.292000e+00
  TN3q  SQ2n  1 3.650000e-01    5.739000e+00
  TN3q  TQ2n  1 3.400000e-01    7.837000e+00
  TN2q   Q2n  1 3.950000e-01    4.286000e+00
  TN2q  SQ2n  1 3.650000e-01    5.702000e+00
  TN2q  TQ2n  1 3.400000e-01    7.757000e+00
  TN1q   Q2n  1 3.950000e-01    4.276000e+00
  TN1q  SQ2n  1 3.650000e-01    5.646000e+00
  TN1q  TQ2n  1 3.400000e-01    7.634000e+00
  TC6q   Q2n  1 3.950000e-01    3.538000e+00
  TC6q  SQ2n  1 3.650000e-01    4.741000e+00
  TC6q  TQ2n  1 3.400000e-01    6.704000e+00
  TC5q   Q2n  1 3.950000e-01    3.034000e+00
  TC5q  SQ2n  1 3.650000e-01    4.174000e+00
  TC5q  TQ2n  1 3.400000e-01    6.054000e+00
  TC4q   Q2n  1 3.950000e-01    2.813000e+00
  TC4q  SQ2n  1 3.650000e-01    3.828000e+00
  TC4q  TQ2n  1 3.400000e-01    5.549000e+00
  TC3q   Q2n  1 3.950000e-01    2.587000e+00
  TC3q  SQ2n  1 3.650000e-01    3.433000e+00
  TC3q  TQ2n  1 3.400000e-01    4.860000e+00
  TC2q   Q2n  1 3.990000e-01    1.426000e+00
  TC2q  SQ2n  1 4.040000e-01    2.364000e+00
  TC2q  TQ2n  1 4.110000e-01    3.288000e+00
  TC1q   Q2n  1 3.990000e-01    1.384000e+00
  TC1q  SQ2n  1 4.040000e-01    2.152000e+00
  TC1q  TQ2n  1 4.110000e-01    2.860000e+00
  TX4q   Q2n  1 3.950000e-01    3.298000e+00
  TX4q  SQ2n  1 3.650000e-01    4.536000e+00
  TX4q  TQ2n  1 3.400000e-01    6.604000e+00
  TX3q   Q2n  1 3.950000e-01    3.048000e+00
  TX3q  SQ2n  1 3.650000e-01    4.251000e+00
  TX3q  TQ2n  1 3.400000e-01    6.224000e+00
  TX2q   Q2n  1 3.950000e-01    2.825000e+00
  TX2q  SQ2n  1 3.650000e-01    3.892000e+00
  TX2q  TQ2n  1 3.400000e-01    5.691000e+00
  TX1q   Q2n  1 3.950000e-01    2.587000e+00
  TX1q  SQ2n  1 3.650000e-01    3.433000e+00
  TX1q  TQ2n  1 3.400000e-01    4.860000e+00
 TP6dq   Q2n  1 3.950000e-01    5.270000e+00
 TP6dq  SQ2n  1 3.650000e-01    6.705000e+00
 TP6dq  TQ2n  1 3.400000e-01    9.128000e+00
 TP5dq   Q2n  1 3.950000e-01    5.670000e+00
 TP5dq  SQ2n  1 3.650000e-01    7.057000e+00
 TP5dq  TQ2n  1 3.400000e-01    9.132000e+00
 TP4dq   Q2n  1 3.950000e-01    5.669000e+00
 TP4dq  SQ2n  1 3.650000e-01    7.051000e+00
 TP4dq  TQ2n  1 3.400000e-01    9.120000e+00
 TP3dq   Q2n  1 3.950000e-01    5.268000e+00
 TP3dq  SQ2n  1 3.650000e-01    6.692000e+00
 TP3dq  TQ2n  1 3.400000e-01    9.101000e+00
 TP2dq   Q2n  1 3.950000e-01    5.266000e+00
 TP2dq  SQ2n  1 3.650000e-01    6.684000e+00
 TP2dq  TQ2n  1 3.400000e-01    9.082000e+00
 TP1dq   Q2n  1 3.950000e-01    4.935000e+00
 TP1dq  SQ2n  1 3.650000e-01    6.386000e+00
 TP1dq  TQ2n  1 3.400000e-01    8.784000e+00
 TN6dq   Q2n  1 3.950000e-01    4.933000e+00
 TN6dq  SQ2n  1 3.650000e-01    6.375000e+00
 TN6dq  TQ2n  1 3.400000e-01    8.762000e+00
 TN5dq   Q2n  1 3.950000e-01    4.930000e+00
 TN5dq  SQ2n  1 3.650000e-01    6.362000e+00
 TN5dq  TQ2n  1 3.400000e-01    8.732000e+00
 TN4dq   Q2n  1 3.950000e-01    4.927000e+00
 TN4dq  SQ2n  1 3.650000e-01    6.344000e+00
 TN4dq  TQ2n  1 3.400000e-01    8.692000e+00
 TN3dq   Q2n  1 3.950000e-01    4.612000e+00
 TN3dq  SQ2n  1 3.650000e-01    6.029000e+00
 TN3dq  TQ2n  1 3.400000e-01    8.367000e+00
 TN2dq   Q2n  1 3.950000e-01    4.606000e+00
 TN2dq  SQ2n  1 3.650000e-01    5.992000e+00
 TN2dq  TQ2n  1 3.400000e-01    8.287000e+00
 TN1dq   Q2n  1 3.950000e-01    4.596000e+00
 TN1dq  SQ2n  1 3.650000e-01    5.936000e+00
 TN1dq  TQ2n  1 3.400000e-01    8.164000e+00
 TP6aq   Q2n  1 3.950000e-01    4.310000e+00
 TP6aq  SQ2n  1 3.650000e-01    5.835000e+00
 TP6aq  TQ2n  1 3.400000e-01    8.048000e+00
 TP5aq   Q2n  1 3.950000e-01    4.630000e+00
 TP5aq  SQ2n  1 3.650000e-01    6.127000e+00
 TP5aq  TQ2n  1 3.400000e-01    8.302000e+00
 TP4aq   Q2n  1 3.950000e-01    4.629000e+00
 TP4aq  SQ2n  1 3.650000e-01    6.121000e+00
 TP4aq  TQ2n  1 3.400000e-01    8.290000e+00
 TP3aq   Q2n  1 3.950000e-01    4.308000e+00
 TP3aq  SQ2n  1 3.650000e-01    5.822000e+00
 TP3aq  TQ2n  1 3.400000e-01    8.021000e+00
 TP2aq   Q2n  1 3.950000e-01    4.306000e+00
 TP2aq  SQ2n  1 3.650000e-01    5.814000e+00
 TP2aq  TQ2n  1 3.400000e-01    8.002000e+00
 TP1aq   Q2n  1 3.950000e-01    4.065000e+00
 TP1aq  SQ2n  1 3.650000e-01    5.536000e+00
 TP1aq  TQ2n  1 3.400000e-01    7.754000e+00
 TN6aq   Q2n  1 3.950000e-01    4.063000e+00
 TN6aq  SQ2n  1 3.650000e-01    5.525000e+00
 TN6aq  TQ2n  1 3.400000e-01    7.732000e+00
 TN5aq   Q2n  1 3.950000e-01    4.060000e+00
 TN5aq  SQ2n  1 3.650000e-01    5.512000e+00
 TN5aq  TQ2n  1 3.400000e-01    7.702000e+00
 TN4aq   Q2n  1 3.950000e-01    4.057000e+00
 TN4aq  SQ2n  1 3.650000e-01    5.494000e+00
 TN4aq  TQ2n  1 3.400000e-01    7.662000e+00
 TN3aq   Q2n  1 3.950000e-01    3.812000e+00
 TN3aq  SQ2n  1 3.650000e-01    5.199000e+00
 TN3aq  TQ2n  1 3.400000e-01    7.357000e+00
 TN2aq   Q2n  1 3.950000e-01    3.806000e+00
 TN2aq  SQ2n  1 3.650000e-01    5.162000e+00
 TN2aq  TQ2n  1 3.400000e-01    7.277000e+00
 TN1aq   Q2n  1 3.950000e-01    3.796000e+00
 TN1aq  SQ2n  1 3.650000e-01    5.106000e+00
 TN1aq  TQ2n  1 3.400000e-01    7.154000e+00
 TC6vq   Q2n  1 3.950000e-01    4.018000e+00
 TC6vq  SQ2n  1 3.650000e-01    5.281000e+00
 TC6vq  TQ2n  1 3.400000e-01    7.424000e+00
 TC5vq   Q2n  1 3.950000e-01    3.524000e+00
 TC5vq  SQ2n  1 3.650000e-01    4.664000e+00
 TC5vq  TQ2n  1 3.400000e-01    6.774000e+00
 TC4vq   Q2n  1 3.950000e-01    3.253000e+00
 TC4vq  SQ2n  1 3.650000e-01    4.288000e+00
 TC4vq  TQ2n  1 3.400000e-01    6.279000e+00
 TC3vq   Q2n  1 3.950000e-01    2.977000e+00
 TC3vq  SQ2n  1 3.650000e-01    3.863000e+00
 TC3vq  TQ2n  1 3.400000e-01    5.630000e+00
 TC2vq   Q2n  1 3.950000e-01    1.919000e+00
 TC2vq  SQ2n  1 3.780000e-01    2.769000e+00
 TC2vq  TQ2n  1 3.660000e-01    3.727000e+00
 TC1vq   Q2n  1 3.950000e-01    1.876000e+00
 TC1vq  SQ2n  1 3.780000e-01    2.543000e+00
 TC1vq  TQ2n  1 3.660000e-01    3.248000e+00
 TX4vq   Q2n  1 3.950000e-01    3.788000e+00
 TX4vq  SQ2n  1 3.650000e-01    5.066000e+00
 TX4vq  TQ2n  1 3.400000e-01    7.314000e+00
 TX3vq   Q2n  1 3.950000e-01    3.538000e+00
 TX3vq  SQ2n  1 3.650000e-01    4.741000e+00
 TX3vq  TQ2n  1 3.400000e-01    6.944000e+00
 TX2vq   Q2n  1 3.950000e-01    3.265000e+00
 TX2vq  SQ2n  1 3.650000e-01    4.352000e+00
 TX2vq  TQ2n  1 3.400000e-01    6.421000e+00
 TX1vq   Q2n  1 3.950000e-01    2.977000e+00
 TX1vq  SQ2n  1 3.650000e-01    3.863000e+00
 TX1vq  TQ2n  1 3.400000e-01    5.630000e+00
 TC6eq   Q2n  1 3.950000e-01    3.288000e+00
 TC6eq  SQ2n  1 3.650000e-01    4.481000e+00
 TC6eq  TQ2n  1 3.400000e-01    6.484000e+00
 TC5eq   Q2n  1 3.950000e-01    2.834000e+00
 TC5eq  SQ2n  1 3.650000e-01    3.944000e+00
 TC5eq  TQ2n  1 3.400000e-01    5.804000e+00
 TC4eq   Q2n  1 3.950000e-01    2.623000e+00
 TC4eq  SQ2n  1 3.650000e-01    3.628000e+00
 TC4eq  TQ2n  1 3.400000e-01    5.289000e+00
 TC3eq   Q2n  1 3.950000e-01    2.387000e+00
 TC3eq  SQ2n  1 3.650000e-01    3.273000e+00
 TC3eq  TQ2n  1 3.400000e-01    4.580000e+00
 TC2eq   Q2n  1 4.010000e-01    1.228000e+00
 TC2eq  SQ2n  1 4.090000e-01    2.299000e+00
 TC2eq  TQ2n  1 4.240000e-01    3.186000e+00
 TC1eq   Q2n  1 4.010000e-01    1.186000e+00
 TC1eq  SQ2n  1 4.090000e-01    2.090000e+00
 TC1eq  TQ2n  1 4.240000e-01    2.772000e+00
 TX4eq   Q2n  1 3.950000e-01    3.058000e+00
 TX4eq  SQ2n  1 3.650000e-01    4.306000e+00
 TX4eq  TQ2n  1 3.400000e-01    6.344000e+00
 TX3eq   Q2n  1 3.950000e-01    2.848000e+00
 TX3eq  SQ2n  1 3.650000e-01    4.021000e+00
 TX3eq  TQ2n  1 3.400000e-01    5.974000e+00
 TX2eq   Q2n  1 3.950000e-01    2.635000e+00
 TX2eq  SQ2n  1 3.650000e-01    3.692000e+00
 TX2eq  TQ2n  1 3.400000e-01    5.431000e+00
 TX1eq   Q2n  1 3.950000e-01    2.387000e+00
 TX1eq  SQ2n  1 3.650000e-01    3.273000e+00
 TX1eq  TQ2n  1 3.400000e-01    4.580000e+00
  TP6h   Q2n  1 3.950000e-01    4.070000e+00
  TP6h  SQ2n  1 3.650000e-01    5.565000e+00
  TP6h  TQ2n  1 3.400000e-01    7.818000e+00
  TP5h   Q2n  1 3.950000e-01    4.310000e+00
  TP5h  SQ2n  1 3.650000e-01    5.837000e+00
  TP5h  TQ2n  1 3.400000e-01    8.052000e+00
  TP4h   Q2n  1 3.950000e-01    4.309000e+00
  TP4h  SQ2n  1 3.650000e-01    5.831000e+00
  TP4h  TQ2n  1 3.400000e-01    8.040000e+00
  TP3h   Q2n  1 3.950000e-01    4.068000e+00
  TP3h  SQ2n  1 3.650000e-01    5.552000e+00
  TP3h  TQ2n  1 3.400000e-01    7.791000e+00
  TP2h   Q2n  1 3.950000e-01    4.066000e+00
  TP2h  SQ2n  1 3.650000e-01    5.544000e+00
  TP2h  TQ2n  1 3.400000e-01    7.772000e+00
  TP1h   Q2n  1 3.950000e-01    3.825000e+00
  TP1h  SQ2n  1 3.650000e-01    5.266000e+00
  TP1h  TQ2n  1 3.400000e-01    7.504000e+00
  TN6h   Q2n  1 3.950000e-01    3.823000e+00
  TN6h  SQ2n  1 3.650000e-01    5.255000e+00
  TN6h  TQ2n  1 3.400000e-01    7.482000e+00
  TN5h   Q2n  1 3.950000e-01    3.820000e+00
  TN5h  SQ2n  1 3.650000e-01    5.242000e+00
  TN5h  TQ2n  1 3.400000e-01    7.452000e+00
  TN4h   Q2n  1 3.950000e-01    3.817000e+00
  TN4h  SQ2n  1 3.650000e-01    5.224000e+00
  TN4h  TQ2n  1 3.400000e-01    7.412000e+00
  TN3h   Q2n  1 3.950000e-01    3.572000e+00
  TN3h  SQ2n  1 3.650000e-01    4.929000e+00
  TN3h  TQ2n  1 3.400000e-01    7.117000e+00
  TN2h   Q2n  1 3.950000e-01    3.566000e+00
  TN2h  SQ2n  1 3.650000e-01    4.892000e+00
  TN2h  TQ2n  1 3.400000e-01    7.037000e+00
  TN1h   Q2n  1 3.950000e-01    3.556000e+00
  TN1h  SQ2n  1 3.650000e-01    4.836000e+00
  TN1h  TQ2n  1 3.400000e-01    6.914000e+00
  TC6h   Q2n  1 3.950000e-01    2.848000e+00
  TC6h  SQ2n  1 3.650000e-01    4.021000e+00
  TC6h  TQ2n  1 3.400000e-01    5.974000e+00
  TC5h   Q2n  1 3.950000e-01    2.444000e+00
  TC5h  SQ2n  1 3.650000e-01    3.584000e+00
  TC5h  TQ2n  1 3.400000e-01    5.264000e+00
  TC4h   Q2n  1 3.950000e-01    2.163000e+00
  TC4h  SQ2n  1 3.660000e-01    3.313000e+00
  TC4h  TQ2n  1 3.520000e-01    4.700000e+00
  TC3h   Q2n  1 3.950000e-01    1.947000e+00
  TC3h  SQ2n  1 3.780000e-01    2.920000e+00
  TC3h  TQ2n  1 3.660000e-01    4.047000e+00
  TC2h   Q2n  1 4.650000e-01    9.150000e-01
  TC2h  SQ2n  1 4.840000e-01    1.920000e+00
  TC2h  TQ2n  1 5.050000e-01    2.704000e+00
  TC1h   Q2n  1 4.650000e-01    8.780000e-01
  TC1h  SQ2n  1 4.840000e-01    1.743000e+00
  TC1h  TQ2n  1 5.050000e-01    2.356000e+00
  TX4h   Q2n  1 3.950000e-01    2.668000e+00
  TX4h  SQ2n  1 3.650000e-01    3.876000e+00
  TX4h  TQ2n  1 3.400000e-01    5.834000e+00
  TX3h   Q2n  1 3.950000e-01    2.458000e+00
  TX3h  SQ2n  1 3.650000e-01    3.661000e+00
  TX3h  TQ2n  1 3.400000e-01    5.434000e+00
  TX2h   Q2n  1 3.950000e-01    2.175000e+00
  TX2h  SQ2n  1 3.660000e-01    3.377000e+00
  TX2h  TQ2n  1 3.520000e-01    4.837000e+00
  TX1h   Q2n  1 3.950000e-01    1.947000e+00
  TX1h  SQ2n  1 3.780000e-01    2.920000e+00
  TX1h  TQ2n  1 3.660000e-01    4.047000e+00
 TP6dh   Q2n  1 3.950000e-01    4.310000e+00
 TP6dh  SQ2n  1 3.650000e-01    5.835000e+00
 TP6dh  TQ2n  1 3.400000e-01    8.298000e+00
 TP5dh   Q2n  1 3.950000e-01    4.630000e+00
 TP5dh  SQ2n  1 3.650000e-01    6.127000e+00
 TP5dh  TQ2n  1 3.400000e-01    8.582000e+00
 TP4dh   Q2n  1 3.950000e-01    4.629000e+00
 TP4dh  SQ2n  1 3.650000e-01    6.121000e+00
 TP4dh  TQ2n  1 3.400000e-01    8.570000e+00
 TP3dh   Q2n  1 3.950000e-01    4.308000e+00
 TP3dh  SQ2n  1 3.650000e-01    5.822000e+00
 TP3dh  TQ2n  1 3.400000e-01    8.271000e+00
 TP2dh   Q2n  1 3.950000e-01    4.306000e+00
 TP2dh  SQ2n  1 3.650000e-01    5.814000e+00
 TP2dh  TQ2n  1 3.400000e-01    8.252000e+00
 TP1dh   Q2n  1 3.950000e-01    4.065000e+00
 TP1dh  SQ2n  1 3.650000e-01    5.536000e+00
 TP1dh  TQ2n  1 3.400000e-01    7.984000e+00
 TN6dh   Q2n  1 3.950000e-01    4.063000e+00
 TN6dh  SQ2n  1 3.650000e-01    5.525000e+00
 TN6dh  TQ2n  1 3.400000e-01    7.962000e+00
 TN5dh   Q2n  1 3.950000e-01    4.060000e+00
 TN5dh  SQ2n  1 3.650000e-01    5.512000e+00
 TN5dh  TQ2n  1 3.400000e-01    7.932000e+00
 TN4dh   Q2n  1 3.950000e-01    4.057000e+00
 TN4dh  SQ2n  1 3.650000e-01    5.494000e+00
 TN4dh  TQ2n  1 3.400000e-01    7.892000e+00
 TN3dh   Q2n  1 3.950000e-01    3.812000e+00
 TN3dh  SQ2n  1 3.650000e-01    5.199000e+00
 TN3dh  TQ2n  1 3.400000e-01    7.607000e+00
 TN2dh   Q2n  1 3.950000e-01    3.806000e+00
 TN2dh  SQ2n  1 3.650000e-01    5.162000e+00
 TN2dh  TQ2n  1 3.400000e-01    7.527000e+00
 TN1dh   Q2n  1 3.950000e-01    3.796000e+00
 TN1dh  SQ2n  1 3.650000e-01    5.106000e+00
 TN1dh  TQ2n  1 3.400000e-01    7.404000e+00
 TP6ah   Q2n  1 3.950000e-01    3.590000e+00
 TP6ah  SQ2n  1 3.650000e-01    5.025000e+00
 TP6ah  TQ2n  1 3.400000e-01    7.328000e+00
 TP5ah   Q2n  1 3.950000e-01    3.830000e+00
 TP5ah  SQ2n  1 3.650000e-01    5.297000e+00
 TP5ah  TQ2n  1 3.400000e-01    7.572000e+00
 TP4ah   Q2n  1 3.950000e-01    3.829000e+00
 TP4ah  SQ2n  1 3.650000e-01    5.291000e+00
 TP4ah  TQ2n  1 3.400000e-01    7.560000e+00
 TP3ah   Q2n  1 3.950000e-01    3.588000e+00
 TP3ah  SQ2n  1 3.650000e-01    5.012000e+00
 TP3ah  TQ2n  1 3.400000e-01    7.301000e+00
 TP2ah   Q2n  1 3.950000e-01    3.586000e+00
 TP2ah  SQ2n  1 3.650000e-01    5.004000e+00
 TP2ah  TQ2n  1 3.400000e-01    7.282000e+00
 TP1ah   Q2n  1 3.950000e-01    3.335000e+00
 TP1ah  SQ2n  1 3.650000e-01    4.736000e+00
 TP1ah  TQ2n  1 3.400000e-01    7.044000e+00
 TN6ah   Q2n  1 3.950000e-01    3.333000e+00
 TN6ah  SQ2n  1 3.650000e-01    4.725000e+00
 TN6ah  TQ2n  1 3.400000e-01    7.022000e+00
 TN5ah   Q2n  1 3.950000e-01    3.330000e+00
 TN5ah  SQ2n  1 3.650000e-01    4.712000e+00
 TN5ah  TQ2n  1 3.400000e-01    6.992000e+00
 TN4ah   Q2n  1 3.950000e-01    3.327000e+00
 TN4ah  SQ2n  1 3.650000e-01    4.694000e+00
 TN4ah  TQ2n  1 3.400000e-01    6.952000e+00
 TN3ah   Q2n  1 3.950000e-01    3.082000e+00
 TN3ah  SQ2n  1 3.650000e-01    4.439000e+00
 TN3ah  TQ2n  1 3.400000e-01    6.637000e+00
 TN2ah   Q2n  1 3.950000e-01    3.076000e+00
 TN2ah  SQ2n  1 3.650000e-01    4.402000e+00
 TN2ah  TQ2n  1 3.400000e-01    6.557000e+00
 TN1ah   Q2n  1 3.950000e-01    3.066000e+00
 TN1ah  SQ2n  1 3.650000e-01    4.346000e+00
 TN1ah  TQ2n  1 3.400000e-01    6.434000e+00
 TC6vh   Q2n  1 3.950000e-01    3.288000e+00
 TC6vh  SQ2n  1 3.650000e-01    4.481000e+00
 TC6vh  TQ2n  1 3.400000e-01    6.704000e+00
 TC5vh   Q2n  1 3.950000e-01    2.834000e+00
 TC5vh  SQ2n  1 3.650000e-01    3.944000e+00
 TC5vh  TQ2n  1 3.400000e-01    6.054000e+00
 TC4vh   Q2n  1 3.950000e-01    2.623000e+00
 TC4vh  SQ2n  1 3.650000e-01    3.628000e+00
 TC4vh  TQ2n  1 3.400000e-01    5.549000e+00
 TC3vh   Q2n  1 3.950000e-01    2.387000e+00
 TC3vh  SQ2n  1 3.650000e-01    3.273000e+00
 TC3vh  TQ2n  1 3.400000e-01    4.860000e+00
 TC2vh   Q2n  1 4.010000e-01    1.228000e+00
 TC2vh  SQ2n  1 4.090000e-01    2.299000e+00
 TC2vh  TQ2n  1 4.110000e-01    3.288000e+00
 TC1vh   Q2n  1 4.010000e-01    1.186000e+00
 TC1vh  SQ2n  1 4.090000e-01    2.090000e+00
 TC1vh  TQ2n  1 4.110000e-01    2.860000e+00
 TX4vh   Q2n  1 3.950000e-01    3.058000e+00
 TX4vh  SQ2n  1 3.650000e-01    4.306000e+00
 TX4vh  TQ2n  1 3.400000e-01    6.604000e+00
 TX3vh   Q2n  1 3.950000e-01    2.848000e+00
 TX3vh  SQ2n  1 3.650000e-01    4.021000e+00
 TX3vh  TQ2n  1 3.400000e-01    6.224000e+00
 TX2vh   Q2n  1 3.950000e-01    2.635000e+00
 TX2vh  SQ2n  1 3.650000e-01    3.692000e+00
 TX2vh  TQ2n  1 3.400000e-01    5.691000e+00
 TX1vh   Q2n  1 3.950000e-01    2.387000e+00
 TX1vh  SQ2n  1 3.650000e-01    3.273000e+00
 TX1vh  TQ2n  1 3.400000e-01    4.860000e+00
 TC6eh   Q2n  1 3.950000e-01    2.658000e+00
 TC6eh  SQ2n  1 3.650000e-01    3.821000e+00
 TC6eh  TQ2n  1 3.400000e-01    5.714000e+00
 TC5eh   Q2n  1 3.950000e-01    2.184000e+00
 TC5eh  SQ2n  1 3.660000e-01    3.429000e+00
 TC5eh  TQ2n  1 3.520000e-01    4.947000e+00
 TC4eh   Q2n  1 3.950000e-01    1.983000e+00
 TC4eh  SQ2n  1 3.780000e-01    3.108000e+00
 TC4eh  TQ2n  1 3.660000e-01    4.445000e+00
 TC3eh   Q2n  1 3.980000e-01    1.725000e+00
 TC3eh  SQ2n  1 3.940000e-01    2.701000e+00
 TC3eh  TQ2n  1 3.850000e-01    3.813000e+00
 TC2eh   Q2n  1 5.110000e-01    8.510000e-01
 TC2eh  SQ2n  1 5.370000e-01    1.737000e+00
 TC2eh  TQ2n  1 5.610000e-01    2.452000e+00
 TC1eh   Q2n  1 5.110000e-01    8.180000e-01
 TC1eh  SQ2n  1 5.370000e-01    1.577000e+00
 TC1eh  TQ2n  1 5.610000e-01    2.139000e+00
 TX4eh   Q2n  1 3.950000e-01    2.468000e+00
 TX4eh  SQ2n  1 3.650000e-01    3.716000e+00
 TX4eh  TQ2n  1 3.400000e-01    5.554000e+00
 TX3eh   Q2n  1 3.950000e-01    2.198000e+00
 TX3eh  SQ2n  1 3.660000e-01    3.506000e+00
 TX3eh  TQ2n  1 3.520000e-01    5.111000e+00
 TX2eh   Q2n  1 3.950000e-01    1.995000e+00
 TX2eh  SQ2n  1 3.780000e-01    3.171000e+00
 TX2eh  TQ2n  1 3.660000e-01    4.577000e+00
 TX1eh   Q2n  1 3.980000e-01    1.725000e+00
 TX1eh  SQ2n  1 3.940000e-01    2.701000e+00
 TX1eh  TQ2n  1 3.850000e-01    3.813000e+00
  TP6r   Q2n  1 3.950000e-01    4.070000e+00
  TP6r  SQ2n  1 3.650000e-01    5.565000e+00
  TP6r  TQ2n  1 3.400000e-01    7.818000e+00
  TP5r   Q2n  1 3.950000e-01    4.310000e+00
  TP5r  SQ2n  1 3.650000e-01    5.837000e+00
  TP5r  TQ2n  1 3.400000e-01    8.052000e+00
  TP4r   Q2n  1 3.950000e-01    4.309000e+00
  TP4r  SQ2n  1 3.650000e-01    5.831000e+00
  TP4r  TQ2n  1 3.400000e-01    8.040000e+00
  TP3r   Q2n  1 3.950000e-01    4.068000e+00
  TP3r  SQ2n  1 3.650000e-01    5.552000e+00
  TP3r  TQ2n  1 3.400000e-01    7.791000e+00
  TP2r   Q2n  1 3.950000e-01    4.066000e+00
  TP2r  SQ2n  1 3.650000e-01    5.544000e+00
  TP2r  TQ2n  1 3.400000e-01    7.772000e+00
  TP1r   Q2n  1 3.950000e-01    3.825000e+00
  TP1r  SQ2n  1 3.650000e-01    5.266000e+00
  TP1r  TQ2n  1 3.400000e-01    7.504000e+00
  TN6r   Q2n  1 3.950000e-01    3.823000e+00
  TN6r  SQ2n  1 3.650000e-01    5.255000e+00
  TN6r  TQ2n  1 3.400000e-01    7.482000e+00
  TN5r   Q2n  1 3.950000e-01    3.820000e+00
  TN5r  SQ2n  1 3.650000e-01    5.242000e+00
  TN5r  TQ2n  1 3.400000e-01    7.452000e+00
  TN4r   Q2n  1 3.950000e-01    3.817000e+00
  TN4r  SQ2n  1 3.650000e-01    5.224000e+00
  TN4r  TQ2n  1 3.400000e-01    7.412000e+00
  TN3r   Q2n  1 3.950000e-01    3.572000e+00
  TN3r  SQ2n  1 3.650000e-01    4.929000e+00
  TN3r  TQ2n  1 3.400000e-01    7.117000e+00
  TN2r   Q2n  1 3.950000e-01    3.566000e+00
  TN2r  SQ2n  1 3.650000e-01    4.892000e+00
  TN2r  TQ2n  1 3.400000e-01    7.037000e+00
  TN1r   Q2n  1 3.950000e-01    3.556000e+00
  TN1r  SQ2n  1 3.650000e-01    4.836000e+00
  TN1r  TQ2n  1 3.400000e-01    6.914000e+00
  TC6r   Q2n  1 3.950000e-01    2.848000e+00
  TC6r  SQ2n  1 3.650000e-01    4.021000e+00
  TC6r  TQ2n  1 3.400000e-01    5.974000e+00
  TC5r   Q2n  1 3.950000e-01    2.444000e+00
  TC5r  SQ2n  1 3.650000e-01    3.584000e+00
  TC5r  TQ2n  1 3.400000e-01    5.264000e+00
  TC4r   Q2n  1 3.950000e-01    2.163000e+00
  TC4r  SQ2n  1 3.660000e-01    3.313000e+00
  TC4r  TQ2n  1 3.520000e-01    4.700000e+00
  TC3r   Q2n  1 3.950000e-01    1.947000e+00
  TC3r  SQ2n  1 3.780000e-01    2.920000e+00
  TC3r  TQ2n  1 3.660000e-01    4.047000e+00
  TC2r   Q2n  1 4.650000e-01    9.150000e-01
  TC2r  SQ2n  1 4.840000e-01    1.920000e+00
  TC2r  TQ2n  1 5.050000e-01    2.704000e+00
  TC1r   Q2n  1 4.650000e-01    8.780000e-01
  TC1r  SQ2n  1 4.840000e-01    1.743000e+00
  TC1r  TQ2n  1 5.050000e-01    2.356000e+00
  TX4r   Q2n  1 3.950000e-01    2.668000e+00
  TX4r  SQ2n  1 3.650000e-01    3.876000e+00
  TX4r  TQ2n  1 3.400000e-01    5.834000e+00
  TX3r   Q2n  1 3.950000e-01    2.458000e+00
  TX3r  SQ2n  1 3.650000e-01    3.661000e+00
  TX3r  TQ2n  1 3.400000e-01    5.434000e+00
  TX2r   Q2n  1 3.950000e-01    2.175000e+00
  TX2r  SQ2n  1 3.660000e-01    3.377000e+00
  TX2r  TQ2n  1 3.520000e-01    4.837000e+00
  TX1r   Q2n  1 3.950000e-01    1.947000e+00
  TX1r  SQ2n  1 3.780000e-01    2.920000e+00
  TX1r  TQ2n  1 3.660000e-01    4.047000e+00
 TP6dr   Q2n  1 3.950000e-01    4.310000e+00
 TP6dr  SQ2n  1 3.650000e-01    5.835000e+00
 TP6dr  TQ2n  1 3.400000e-01    8.298000e+00
 TP5dr   Q2n  1 3.950000e-01    4.630000e+00
 TP5dr  SQ2n  1 3.650000e-01    6.127000e+00
 TP5dr  TQ2n  1 3.400000e-01    8.582000e+00
 TP4dr   Q2n  1 3.950000e-01    4.629000e+00
 TP4dr  SQ2n  1 3.650000e-01    6.121000e+00
 TP4dr  TQ2n  1 3.400000e-01    8.570000e+00
 TP3dr   Q2n  1 3.950000e-01    4.308000e+00
 TP3dr  SQ2n  1 3.650000e-01    5.822000e+00
 TP3dr  TQ2n  1 3.400000e-01    8.271000e+00
 TP2dr   Q2n  1 3.950000e-01    4.306000e+00
 TP2dr  SQ2n  1 3.650000e-01    5.814000e+00
 TP2dr  TQ2n  1 3.400000e-01    8.252000e+00
 TP1dr   Q2n  1 3.950000e-01    4.065000e+00
 TP1dr  SQ2n  1 3.650000e-01    5.536000e+00
 TP1dr  TQ2n  1 3.400000e-01    7.984000e+00
 TN6dr   Q2n  1 3.950000e-01    4.063000e+00
 TN6dr  SQ2n  1 3.650000e-01    5.525000e+00
 TN6dr  TQ2n  1 3.400000e-01    7.962000e+00
 TN5dr   Q2n  1 3.950000e-01    4.060000e+00
 TN5dr  SQ2n  1 3.650000e-01    5.512000e+00
 TN5dr  TQ2n  1 3.400000e-01    7.932000e+00
 TN4dr   Q2n  1 3.950000e-01    4.057000e+00
 TN4dr  SQ2n  1 3.650000e-01    5.494000e+00
 TN4dr  TQ2n  1 3.400000e-01    7.892000e+00
 TN3dr   Q2n  1 3.950000e-01    3.812000e+00
 TN3dr  SQ2n  1 3.650000e-01    5.199000e+00
 TN3dr  TQ2n  1 3.400000e-01    7.607000e+00
 TN2dr   Q2n  1 3.950000e-01    3.806000e+00
 TN2dr  SQ2n  1 3.650000e-01    5.162000e+00
 TN2dr  TQ2n  1 3.400000e-01    7.527000e+00
 TN1dr   Q2n  1 3.950000e-01    3.796000e+00
 TN1dr  SQ2n  1 3.650000e-01    5.106000e+00
 TN1dr  TQ2n  1 3.400000e-01    7.404000e+00
 TP6ar   Q2n  1 3.950000e-01    3.590000e+00
 TP6ar  SQ2n  1 3.650000e-01    5.025000e+00
 TP6ar  TQ2n  1 3.400000e-01    7.328000e+00
 TP5ar   Q2n  1 3.950000e-01    3.830000e+00
 TP5ar  SQ2n  1 3.650000e-01    5.297000e+00
 TP5ar  TQ2n  1 3.400000e-01    7.572000e+00
 TP4ar   Q2n  1 3.950000e-01    3.829000e+00
 TP4ar  SQ2n  1 3.650000e-01    5.291000e+00
 TP4ar  TQ2n  1 3.400000e-01    7.560000e+00
 TP3ar   Q2n  1 3.950000e-01    3.588000e+00
 TP3ar  SQ2n  1 3.650000e-01    5.012000e+00
 TP3ar  TQ2n  1 3.400000e-01    7.301000e+00
 TP2ar   Q2n  1 3.950000e-01    3.586000e+00
 TP2ar  SQ2n  1 3.650000e-01    5.004000e+00
 TP2ar  TQ2n  1 3.400000e-01    7.282000e+00
 TP1ar   Q2n  1 3.950000e-01    3.335000e+00
 TP1ar  SQ2n  1 3.650000e-01    4.736000e+00
 TP1ar  TQ2n  1 3.400000e-01    7.044000e+00
 TN6ar   Q2n  1 3.950000e-01    3.333000e+00
 TN6ar  SQ2n  1 3.650000e-01    4.725000e+00
 TN6ar  TQ2n  1 3.400000e-01    7.022000e+00
 TN5ar   Q2n  1 3.950000e-01    3.330000e+00
 TN5ar  SQ2n  1 3.650000e-01    4.712000e+00
 TN5ar  TQ2n  1 3.400000e-01    6.992000e+00
 TN4ar   Q2n  1 3.950000e-01    3.327000e+00
 TN4ar  SQ2n  1 3.650000e-01    4.694000e+00
 TN4ar  TQ2n  1 3.400000e-01    6.952000e+00
 TN3ar   Q2n  1 3.950000e-01    3.082000e+00
 TN3ar  SQ2n  1 3.650000e-01    4.439000e+00
 TN3ar  TQ2n  1 3.400000e-01    6.637000e+00
 TN2ar   Q2n  1 3.950000e-01    3.076000e+00
 TN2ar  SQ2n  1 3.650000e-01    4.402000e+00
 TN2ar  TQ2n  1 3.400000e-01    6.557000e+00
 TN1ar   Q2n  1 3.950000e-01    3.066000e+00
 TN1ar  SQ2n  1 3.650000e-01    4.346000e+00
 TN1ar  TQ2n  1 3.400000e-01    6.434000e+00
 TC6vr   Q2n  1 3.950000e-01    3.288000e+00
 TC6vr  SQ2n  1 3.650000e-01    4.481000e+00
 TC6vr  TQ2n  1 3.400000e-01    6.704000e+00
 TC5vr   Q2n  1 3.950000e-01    2.834000e+00
 TC5vr  SQ2n  1 3.650000e-01    3.944000e+00
 TC5vr  TQ2n  1 3.400000e-01    6.054000e+00
 TC4vr   Q2n  1 3.950000e-01    2.623000e+00
 TC4vr  SQ2n  1 3.650000e-01    3.628000e+00
 TC4vr  TQ2n  1 3.400000e-01    5.549000e+00
 TC3vr   Q2n  1 3.950000e-01    2.387000e+00
 TC3vr  SQ2n  1 3.650000e-01    3.273000e+00
 TC3vr  TQ2n  1 3.400000e-01    4.860000e+00
 TC2vr   Q2n  1 4.010000e-01    1.228000e+00
 TC2vr  SQ2n  1 4.090000e-01    2.299000e+00
 TC2vr  TQ2n  1 4.110000e-01    3.288000e+00
 TC1vr   Q2n  1 4.010000e-01    1.186000e+00
 TC1vr  SQ2n  1 4.090000e-01    2.090000e+00
 TC1vr  TQ2n  1 4.110000e-01    2.860000e+00
 TX4vr   Q2n  1 3.950000e-01    3.058000e+00
 TX4vr  SQ2n  1 3.650000e-01    4.306000e+00
 TX4vr  TQ2n  1 3.400000e-01    6.604000e+00
 TX3vr   Q2n  1 3.950000e-01    2.848000e+00
 TX3vr  SQ2n  1 3.650000e-01    4.021000e+00
 TX3vr  TQ2n  1 3.400000e-01    6.224000e+00
 TX2vr   Q2n  1 3.950000e-01    2.635000e+00
 TX2vr  SQ2n  1 3.650000e-01    3.692000e+00
 TX2vr  TQ2n  1 3.400000e-01    5.691000e+00
 TX1vr   Q2n  1 3.950000e-01    2.387000e+00
 TX1vr  SQ2n  1 3.650000e-01    3.273000e+00
 TX1vr  TQ2n  1 3.400000e-01    4.860000e+00
 TC6er   Q2n  1 3.950000e-01    2.658000e+00
 TC6er  SQ2n  1 3.650000e-01    3.821000e+00
 TC6er  TQ2n  1 3.400000e-01    5.714000e+00
 TC5er   Q2n  1 3.950000e-01    2.184000e+00
 TC5er  SQ2n  1 3.660000e-01    3.429000e+00
 TC5er  TQ2n  1 3.520000e-01    4.947000e+00
 TC4er   Q2n  1 3.950000e-01    1.983000e+00
 TC4er  SQ2n  1 3.780000e-01    3.108000e+00
 TC4er  TQ2n  1 3.660000e-01    4.445000e+00
 TC3er   Q2n  1 3.980000e-01    1.725000e+00
 TC3er  SQ2n  1 3.940000e-01    2.701000e+00
 TC3er  TQ2n  1 3.850000e-01    3.813000e+00
 TC2er   Q2n  1 5.110000e-01    8.510000e-01
 TC2er  SQ2n  1 5.370000e-01    1.737000e+00
 TC2er  TQ2n  1 5.610000e-01    2.452000e+00
 TC1er   Q2n  1 5.110000e-01    8.180000e-01
 TC1er  SQ2n  1 5.370000e-01    1.577000e+00
 TC1er  TQ2n  1 5.610000e-01    2.139000e+00
 TX4er   Q2n  1 3.950000e-01    2.468000e+00
 TX4er  SQ2n  1 3.650000e-01    3.716000e+00
 TX4er  TQ2n  1 3.400000e-01    5.554000e+00
 TX3er   Q2n  1 3.950000e-01    2.198000e+00
 TX3er  SQ2n  1 3.660000e-01    3.506000e+00
 TX3er  TQ2n  1 3.520000e-01    5.111000e+00
 TX2er   Q2n  1 3.950000e-01    1.995000e+00
 TX2er  SQ2n  1 3.780000e-01    3.171000e+00
 TX2er  TQ2n  1 3.660000e-01    4.577000e+00
 TX1er   Q2n  1 3.980000e-01    1.725000e+00
 TX1er  SQ2n  1 3.940000e-01    2.701000e+00
 TX1er  TQ2n  1 3.850000e-01    3.813000e+00
    P6    Q1  1 4.700000e-01    4.745000e+00
    P6   SQ1  1 4.300000e-01    6.275000e+00
    P6   TQ1  1 3.950000e-01    8.983000e+00
    P5    Q1  1 4.700000e-01    4.937000e+00
    P5   SQ1  1 4.300000e-01    6.481000e+00
    P5   TQ1  1 3.950000e-01    9.236000e+00
    P4    Q1  1 4.700000e-01    4.936000e+00
    P4   SQ1  1 4.300000e-01    6.478000e+00
    P4   TQ1  1 3.950000e-01    9.229000e+00
    P3    Q1  1 4.700000e-01    4.933000e+00
    P3   SQ1  1 4.300000e-01    6.469000e+00
    P3   TQ1  1 3.950000e-01    9.210000e+00
    P2    Q1  1 4.700000e-01    4.931000e+00
    P2   SQ1  1 4.300000e-01    6.460000e+00
    P2   TQ1  1 3.950000e-01    9.189000e+00
    P1    Q1  1 4.700000e-01    4.929000e+00
    P1   SQ1  1 4.300000e-01    6.452000e+00
    P1   TQ1  1 3.950000e-01    9.170000e+00
    N6    Q1  1 4.700000e-01    4.926000e+00
    N6   SQ1  1 4.300000e-01    6.441000e+00
    N6   TQ1  1 3.950000e-01    9.144000e+00
    N5    Q1  1 4.700000e-01    4.731000e+00
    N5   SQ1  1 4.300000e-01    6.226000e+00
    N5   TQ1  1 3.950000e-01    8.869000e+00
    N4    Q1  1 4.700000e-01    4.726000e+00
    N4   SQ1  1 4.300000e-01    6.205000e+00
    N4   TQ1  1 3.950000e-01    8.821000e+00
    N3    Q1  1 4.700000e-01    4.718000e+00
    N3   SQ1  1 4.300000e-01    6.176000e+00
    N3   TQ1  1 3.950000e-01    8.754000e+00
    N2    Q1  1 4.700000e-01    4.526000e+00
    N2   SQ1  1 4.300000e-01    5.954000e+00
    N2   TQ1  1 3.950000e-01    8.407000e+00
    N1    Q1  1 4.700000e-01    4.319000e+00
    N1   SQ1  1 4.300000e-01    5.679000e+00
    N1   TQ1  1 3.950000e-01    8.017000e+00
    C6    Q1  1 4.700000e-01    4.288000e+00
    C6   SQ1  1 4.300000e-01    5.568000e+00
    C6   TQ1  1 3.950000e-01    7.760000e+00
    C5    Q1  1 4.700000e-01    3.964000e+00
    C5   SQ1  1 4.300000e-01    5.018000e+00
    C5   TQ1  1 3.950000e-01    7.162000e+00
    C4    Q1  1 4.700000e-01    3.776000e+00
    C4   SQ1  1 4.300000e-01    4.732000e+00
    C4   TQ1  1 3.950000e-01    6.647000e+00
    C3    Q1  1 4.700000e-01    3.544000e+00
    C3   SQ1  1 4.300000e-01    4.264000e+00
    C3   TQ1  1 3.950000e-01    5.859000e+00
    C2    Q1  1 4.850000e-01    2.651000e+00
    C2   SQ1  1 4.430000e-01    2.985000e+00
    C2   TQ1  1 4.040000e-01    4.335000e+00
    C1    Q1  1 4.850000e-01    2.578000e+00
    C1   SQ1  1 4.430000e-01    2.717000e+00
    C1   TQ1  1 4.040000e-01    3.712000e+00
    X4    Q1  1 4.700000e-01    4.006000e+00
    X4   SQ1  1 4.300000e-01    5.172000e+00
    X4   TQ1  1 3.950000e-01    7.518000e+00
    X3    Q1  1 4.700000e-01    3.988000e+00
    X3   SQ1  1 4.300000e-01    5.108000e+00
    X3   TQ1  1 3.950000e-01    7.370000e+00
    X2    Q1  1 4.700000e-01    3.797000e+00
    X2   SQ1  1 4.300000e-01    4.808000e+00
    X2   TQ1  1 3.950000e-01    6.822000e+00
    X1    Q1  1 4.700000e-01    3.544000e+00
    X1   SQ1  1 4.300000e-01    4.264000e+00
    X1   TQ1  1 3.950000e-01    5.859000e+00
   P6d    Q1  1 4.700000e-01    4.745000e+00
   P6d   SQ1  1 4.300000e-01    6.275000e+00
   P6d   TQ1  1 3.950000e-01    8.983000e+00
   P5d    Q1  1 4.700000e-01    4.937000e+00
   P5d   SQ1  1 4.300000e-01    6.481000e+00
   P5d   TQ1  1 3.950000e-01    9.236000e+00
   P4d    Q1  1 4.700000e-01    4.936000e+00
   P4d   SQ1  1 4.300000e-01    6.478000e+00
   P4d   TQ1  1 3.950000e-01    9.229000e+00
   P3d    Q1  1 4.700000e-01    4.933000e+00
   P3d   SQ1  1 4.300000e-01    6.469000e+00
   P3d   TQ1  1 3.950000e-01    9.210000e+00
   P2d    Q1  1 4.700000e-01    4.931000e+00
   P2d   SQ1  1 4.300000e-01    6.460000e+00
   P2d   TQ1  1 3.950000e-01    9.189000e+00
   P1d    Q1  1 4.700000e-01    4.929000e+00
   P1d   SQ1  1 4.300000e-01    6.452000e+00
   P1d   TQ1  1 3.950000e-01    9.170000e+00
   N6d    Q1  1 4.700000e-01    4.926000e+00
   N6d   SQ1  1 4.300000e-01    6.441000e+00
   N6d   TQ1  1 3.950000e-01    9.144000e+00
   N5d    Q1  1 4.700000e-01    4.731000e+00
   N5d   SQ1  1 4.300000e-01    6.226000e+00
   N5d   TQ1  1 3.950000e-01    8.869000e+00
   N4d    Q1  1 4.700000e-01    4.726000e+00
   N4d   SQ1  1 4.300000e-01    6.205000e+00
   N4d   TQ1  1 3.950000e-01    8.821000e+00
   N3d    Q1  1 4.700000e-01    4.718000e+00
   N3d   SQ1  1 4.300000e-01    6.176000e+00
   N3d   TQ1  1 3.950000e-01    8.754000e+00
   N2d    Q1  1 4.700000e-01    4.526000e+00
   N2d   SQ1  1 4.300000e-01    5.954000e+00
   N2d   TQ1  1 3.950000e-01    8.407000e+00
   N1d    Q1  1 4.700000e-01    4.319000e+00
   N1d   SQ1  1 4.300000e-01    5.679000e+00
   N1d   TQ1  1 3.950000e-01    8.017000e+00
   P6a    Q1  1 4.700000e-01    4.745000e+00
   P6a   SQ1  1 4.300000e-01    6.275000e+00
   P6a   TQ1  1 3.950000e-01    8.983000e+00
   P5a    Q1  1 4.700000e-01    4.937000e+00
   P5a   SQ1  1 4.300000e-01    6.481000e+00
   P5a   TQ1  1 3.950000e-01    9.236000e+00
   P4a    Q1  1 4.700000e-01    4.936000e+00
   P4a   SQ1  1 4.300000e-01    6.478000e+00
   P4a   TQ1  1 3.950000e-01    9.229000e+00
   P3a    Q1  1 4.700000e-01    4.933000e+00
   P3a   SQ1  1 4.300000e-01    6.469000e+00
   P3a   TQ1  1 3.950000e-01    9.210000e+00
   P2a    Q1  1 4.700000e-01    4.931000e+00
   P2a   SQ1  1 4.300000e-01    6.460000e+00
   P2a   TQ1  1 3.950000e-01    9.189000e+00
   P1a    Q1  1 4.700000e-01    4.929000e+00
   P1a   SQ1  1 4.300000e-01    6.452000e+00
   P1a   TQ1  1 3.950000e-01    9.170000e+00
   N6a    Q1  1 4.700000e-01    4.926000e+00
   N6a   SQ1  1 4.300000e-01    6.441000e+00
   N6a   TQ1  1 3.950000e-01    9.144000e+00
   N5a    Q1  1 4.700000e-01    4.731000e+00
   N5a   SQ1  1 4.300000e-01    6.226000e+00
   N5a   TQ1  1 3.950000e-01    8.869000e+00
   N4a    Q1  1 4.700000e-01    4.726000e+00
   N4a   SQ1  1 4.300000e-01    6.205000e+00
   N4a   TQ1  1 3.950000e-01    8.821000e+00
   N3a    Q1  1 4.700000e-01    4.718000e+00
   N3a   SQ1  1 4.300000e-01    6.176000e+00
   N3a   TQ1  1 3.950000e-01    8.754000e+00
   N2a    Q1  1 4.700000e-01    4.526000e+00
   N2a   SQ1  1 4.300000e-01    5.954000e+00
   N2a   TQ1  1 3.950000e-01    8.407000e+00
   N1a    Q1  1 4.700000e-01    4.319000e+00
   N1a   SQ1  1 4.300000e-01    5.679000e+00
   N1a   TQ1  1 3.950000e-01    8.017000e+00
   C6v    Q1  1 4.700000e-01    4.478000e+00
   C6v   SQ1  1 4.300000e-01    5.778000e+00
   C6v   TQ1  1 3.950000e-01    8.000000e+00
   C5v    Q1  1 4.700000e-01    4.094000e+00
   C5v   SQ1  1 4.300000e-01    5.258000e+00
   C5v   TQ1  1 3.950000e-01    7.352000e+00
   C4v    Q1  1 4.700000e-01    3.926000e+00
   C4v   SQ1  1 4.300000e-01    4.882000e+00
   C4v   TQ1  1 3.950000e-01    6.847000e+00
   C3v    Q1  1 4.700000e-01    3.714000e+00
   C3v   SQ1  1 4.300000e-01    4.504000e+00
   C3v   TQ1  1 3.950000e-01    6.119000e+00
   C2v    Q1  1 4.700000e-01    2.864000e+00
   C2v   SQ1  1 4.300000e-01    3.280000e+00
   C2v   TQ1  1 4.010000e-01    4.514000e+00
   C1v    Q1  1 4.700000e-01    2.789000e+00
   C1v   SQ1  1 4.300000e-01    3.005000e+00
   C1v   TQ1  1 4.010000e-01    3.886000e+00
   X4v    Q1  1 4.700000e-01    4.136000e+00
   X4v   SQ1  1 4.300000e-01    5.412000e+00
   X4v   TQ1  1 3.950000e-01    7.708000e+00
   X3v    Q1  1 4.700000e-01    4.118000e+00
   X3v   SQ1  1 4.300000e-01    5.348000e+00
   X3v   TQ1  1 3.950000e-01    7.560000e+00
   X2v    Q1  1 4.700000e-01    3.947000e+00
   X2v   SQ1  1 4.300000e-01    4.958000e+00
   X2v   TQ1  1 3.950000e-01    7.022000e+00
   X1v    Q1  1 4.700000e-01    3.714000e+00
   X1v   SQ1  1 4.300000e-01    4.504000e+00
   X1v   TQ1  1 3.950000e-01    6.119000e+00
   C6e    Q1  1 4.700000e-01    4.478000e+00
   C6e   SQ1  1 4.300000e-01    5.778000e+00
   C6e   TQ1  1 3.950000e-01    8.000000e+00
   C5e    Q1  1 4.700000e-01    4.094000e+00
   C5e   SQ1  1 4.300000e-01    5.258000e+00
   C5e   TQ1  1 3.950000e-01    7.352000e+00
   C4e    Q1  1 4.700000e-01    3.926000e+00
   C4e   SQ1  1 4.300000e-01    4.882000e+00
   C4e   TQ1  1 3.950000e-01    6.847000e+00
   C3e    Q1  1 4.700000e-01    3.714000e+00
   C3e   SQ1  1 4.300000e-01    4.504000e+00
   C3e   TQ1  1 3.950000e-01    6.119000e+00
   C2e    Q1  1 4.700000e-01    2.864000e+00
   C2e   SQ1  1 4.300000e-01    3.280000e+00
   C2e   TQ1  1 4.010000e-01    4.514000e+00
   C1e    Q1  1 4.700000e-01    2.789000e+00
   C1e   SQ1  1 4.300000e-01    3.005000e+00
   C1e   TQ1  1 4.010000e-01    3.886000e+00
   X4e    Q1  1 4.700000e-01    4.136000e+00
   X4e   SQ1  1 4.300000e-01    5.412000e+00
   X4e   TQ1  1 3.950000e-01    7.708000e+00
   X3e    Q1  1 4.700000e-01    4.118000e+00
   X3e   SQ1  1 4.300000e-01    5.348000e+00
   X3e   TQ1  1 3.950000e-01    7.560000e+00
   X2e    Q1  1 4.700000e-01    3.947000e+00
   X2e   SQ1  1 4.300000e-01    4.958000e+00
   X2e   TQ1  1 3.950000e-01    7.022000e+00
   X1e    Q1  1 4.700000e-01    3.714000e+00
   X1e   SQ1  1 4.300000e-01    4.504000e+00
   X1e   TQ1  1 3.950000e-01    6.119000e+00
   P6q    Q1  1 4.700000e-01    5.415000e+00
   P6q   SQ1  1 4.300000e-01    6.905000e+00
   P6q   TQ1  1 3.950000e-01    9.703000e+00
   P5q    Q1  1 4.700000e-01    5.677000e+00
   P5q   SQ1  1 4.300000e-01    7.191000e+00
   P5q   TQ1  1 3.950000e-01    1.003600e+01
   P4q    Q1  1 4.700000e-01    5.676000e+00
   P4q   SQ1  1 4.300000e-01    7.188000e+00
   P4q   TQ1  1 3.950000e-01    1.002900e+01
   P3q    Q1  1 4.700000e-01    5.673000e+00
   P3q   SQ1  1 4.300000e-01    7.179000e+00
   P3q   TQ1  1 3.950000e-01    1.001000e+01
   P2q    Q1  1 4.700000e-01    5.671000e+00
   P2q   SQ1  1 4.300000e-01    7.170000e+00
   P2q   TQ1  1 3.950000e-01    9.989000e+00
   P1q    Q1  1 4.700000e-01    5.669000e+00
   P1q   SQ1  1 4.300000e-01    7.162000e+00
   P1q   TQ1  1 3.950000e-01    9.970000e+00
   N6q    Q1  1 4.700000e-01    5.666000e+00
   N6q   SQ1  1 4.300000e-01    7.151000e+00
   N6q   TQ1  1 3.950000e-01    9.944000e+00
   N5q    Q1  1 4.700000e-01    5.401000e+00
   N5q   SQ1  1 4.300000e-01    6.856000e+00
   N5q   TQ1  1 3.950000e-01    9.589000e+00
   N4q    Q1  1 4.700000e-01    5.396000e+00
   N4q   SQ1  1 4.300000e-01    6.835000e+00
   N4q   TQ1  1 3.950000e-01    9.541000e+00
   N3q    Q1  1 4.700000e-01    5.388000e+00
   N3q   SQ1  1 4.300000e-01    6.806000e+00
   N3q   TQ1  1 3.950000e-01    9.474000e+00
   N2q    Q1  1 4.700000e-01    5.126000e+00
   N2q   SQ1  1 4.300000e-01    6.534000e+00
   N2q   TQ1  1 3.950000e-01    9.137000e+00
   N1q    Q1  1 4.700000e-01    4.879000e+00
   N1q   SQ1  1 4.300000e-01    6.269000e+00
   N1q   TQ1  1 3.950000e-01    8.747000e+00
   C6q    Q1  1 4.700000e-01    4.848000e+00
   C6q   SQ1  1 4.300000e-01    6.158000e+00
   C6q   TQ1  1 3.950000e-01    8.490000e+00
   C5q    Q1  1 4.700000e-01    4.454000e+00
   C5q   SQ1  1 4.300000e-01    5.688000e+00
   C5q   TQ1  1 3.950000e-01    7.792000e+00
   C4q    Q1  1 4.700000e-01    4.226000e+00
   C4q   SQ1  1 4.300000e-01    5.342000e+00
   C4q   TQ1  1 3.950000e-01    7.237000e+00
   C3q    Q1  1 4.700000e-01    3.994000e+00
   C3q   SQ1  1 4.300000e-01    4.894000e+00
   C3q   TQ1  1 3.950000e-01    6.509000e+00
   C2q    Q1  1 4.700000e-01    3.214000e+00
   C2q   SQ1  1 4.300000e-01    3.710000e+00
   C2q   TQ1  1 3.980000e-01    5.008000e+00
   C1q    Q1  1 4.700000e-01    3.139000e+00
   C1q   SQ1  1 4.300000e-01    3.435000e+00
   C1q   TQ1  1 3.980000e-01    4.375000e+00
   X4q    Q1  1 4.700000e-01    4.496000e+00
   X4q   SQ1  1 4.300000e-01    5.842000e+00
   X4q   TQ1  1 3.950000e-01    8.148000e+00
   X3q    Q1  1 4.700000e-01    4.478000e+00
   X3q   SQ1  1 4.300000e-01    5.778000e+00
   X3q   TQ1  1 3.950000e-01    8.000000e+00
   X2q    Q1  1 4.700000e-01    4.247000e+00
   X2q   SQ1  1 4.300000e-01    5.418000e+00
   X2q   TQ1  1 3.950000e-01    7.412000e+00
   X1q    Q1  1 4.700000e-01    3.994000e+00
   X1q   SQ1  1 4.300000e-01    4.894000e+00
   X1q   TQ1  1 3.950000e-01    6.509000e+00
  P6dq    Q1  1 4.700000e-01    5.415000e+00
  P6dq   SQ1  1 4.300000e-01    6.905000e+00
  P6dq   TQ1  1 3.950000e-01    9.703000e+00
  P5dq    Q1  1 4.700000e-01    5.677000e+00
  P5dq   SQ1  1 4.300000e-01    7.191000e+00
  P5dq   TQ1  1 3.950000e-01    1.003600e+01
  P4dq    Q1  1 4.700000e-01    5.676000e+00
  P4dq   SQ1  1 4.300000e-01    7.188000e+00
  P4dq   TQ1  1 3.950000e-01    1.002900e+01
  P3dq    Q1  1 4.700000e-01    5.673000e+00
  P3dq   SQ1  1 4.300000e-01    7.179000e+00
  P3dq   TQ1  1 3.950000e-01    1.001000e+01
  P2dq    Q1  1 4.700000e-01    5.671000e+00
  P2dq   SQ1  1 4.300000e-01    7.170000e+00
  P2dq   TQ1  1 3.950000e-01    9.989000e+00
  P1dq    Q1  1 4.700000e-01    5.669000e+00
  P1dq   SQ1  1 4.300000e-01    7.162000e+00
  P1dq   TQ1  1 3.950000e-01    9.970000e+00
  N6dq    Q1  1 4.700000e-01    5.666000e+00
  N6dq   SQ1  1 4.300000e-01    7.151000e+00
  N6dq   TQ1  1 3.950000e-01    9.944000e+00
  N5dq    Q1  1 4.700000e-01    5.401000e+00
  N5dq   SQ1  1 4.300000e-01    6.856000e+00
  N5dq   TQ1  1 3.950000e-01    9.589000e+00
  N4dq    Q1  1 4.700000e-01    5.396000e+00
  N4dq   SQ1  1 4.300000e-01    6.835000e+00
  N4dq   TQ1  1 3.950000e-01    9.541000e+00
  N3dq    Q1  1 4.700000e-01    5.388000e+00
  N3dq   SQ1  1 4.300000e-01    6.806000e+00
  N3dq   TQ1  1 3.950000e-01    9.474000e+00
  N2dq    Q1  1 4.700000e-01    5.126000e+00
  N2dq   SQ1  1 4.300000e-01    6.534000e+00
  N2dq   TQ1  1 3.950000e-01    9.137000e+00
  N1dq    Q1  1 4.700000e-01    4.879000e+00
  N1dq   SQ1  1 4.300000e-01    6.269000e+00
  N1dq   TQ1  1 3.950000e-01    8.747000e+00
  P6aq    Q1  1 4.700000e-01    5.415000e+00
  P6aq   SQ1  1 4.300000e-01    6.905000e+00
  P6aq   TQ1  1 3.950000e-01    9.703000e+00
  P5aq    Q1  1 4.700000e-01    5.677000e+00
  P5aq   SQ1  1 4.300000e-01    7.191000e+00
  P5aq   TQ1  1 3.950000e-01    1.003600e+01
  P4aq    Q1  1 4.700000e-01    5.676000e+00
  P4aq   SQ1  1 4.300000e-01    7.188000e+00
  P4aq   TQ1  1 3.950000e-01    1.002900e+01
  P3aq    Q1  1 4.700000e-01    5.673000e+00
  P3aq   SQ1  1 4.300000e-01    7.179000e+00
  P3aq   TQ1  1 3.950000e-01    1.001000e+01
  P2aq    Q1  1 4.700000e-01    5.671000e+00
  P2aq   SQ1  1 4.300000e-01    7.170000e+00
  P2aq   TQ1  1 3.950000e-01    9.989000e+00
  P1aq    Q1  1 4.700000e-01    5.669000e+00
  P1aq   SQ1  1 4.300000e-01    7.162000e+00
  P1aq   TQ1  1 3.950000e-01    9.970000e+00
  N6aq    Q1  1 4.700000e-01    5.666000e+00
  N6aq   SQ1  1 4.300000e-01    7.151000e+00
  N6aq   TQ1  1 3.950000e-01    9.944000e+00
  N5aq    Q1  1 4.700000e-01    5.401000e+00
  N5aq   SQ1  1 4.300000e-01    6.856000e+00
  N5aq   TQ1  1 3.950000e-01    9.589000e+00
  N4aq    Q1  1 4.700000e-01    5.396000e+00
  N4aq   SQ1  1 4.300000e-01    6.835000e+00
  N4aq   TQ1  1 3.950000e-01    9.541000e+00
  N3aq    Q1  1 4.700000e-01    5.388000e+00
  N3aq   SQ1  1 4.300000e-01    6.806000e+00
  N3aq   TQ1  1 3.950000e-01    9.474000e+00
  N2aq    Q1  1 4.700000e-01    5.126000e+00
  N2aq   SQ1  1 4.300000e-01    6.534000e+00
  N2aq   TQ1  1 3.950000e-01    9.137000e+00
  N1aq    Q1  1 4.700000e-01    4.879000e+00
  N1aq   SQ1  1 4.300000e-01    6.269000e+00
  N1aq   TQ1  1 3.950000e-01    8.747000e+00
  C6vq    Q1  1 4.700000e-01    5.078000e+00
  C6vq   SQ1  1 4.300000e-01    6.358000e+00
  C6vq   TQ1  1 3.950000e-01    8.730000e+00
  C5vq    Q1  1 4.700000e-01    4.634000e+00
  C5vq   SQ1  1 4.300000e-01    5.868000e+00
  C5vq   TQ1  1 3.950000e-01    8.042000e+00
  C4vq    Q1  1 4.700000e-01    4.416000e+00
  C4vq   SQ1  1 4.300000e-01    5.552000e+00
  C4vq   TQ1  1 3.950000e-01    7.477000e+00
  C3vq    Q1  1 4.700000e-01    4.164000e+00
  C3vq   SQ1  1 4.300000e-01    5.114000e+00
  C3vq   TQ1  1 3.950000e-01    6.709000e+00
  C2vq    Q1  1 4.700000e-01    3.384000e+00
  C2vq   SQ1  1 4.300000e-01    3.870000e+00
  C2vq   TQ1  1 3.950000e-01    5.255000e+00
  C1vq    Q1  1 4.700000e-01    3.309000e+00
  C1vq   SQ1  1 4.300000e-01    3.595000e+00
  C1vq   TQ1  1 3.950000e-01    4.618000e+00
  X4vq    Q1  1 4.700000e-01    4.676000e+00
  X4vq   SQ1  1 4.300000e-01    6.022000e+00
  X4vq   TQ1  1 3.950000e-01    8.398000e+00
  X3vq    Q1  1 4.700000e-01    4.658000e+00
  X3vq   SQ1  1 4.300000e-01    5.958000e+00
  X3vq   TQ1  1 3.950000e-01    8.250000e+00
  X2vq    Q1  1 4.700000e-01    4.437000e+00
  X2vq   SQ1  1 4.300000e-01    5.628000e+00
  X2vq   TQ1  1 3.950000e-01    7.652000e+00
  X1vq    Q1  1 4.700000e-01    4.164000e+00
  X1vq   SQ1  1 4.300000e-01    5.114000e+00
  X1vq   TQ1  1 3.950000e-01    6.709000e+00
  C6eq    Q1  1 4.700000e-01    5.078000e+00
  C6eq   SQ1  1 4.300000e-01    6.358000e+00
  C6eq   TQ1  1 3.950000e-01    8.730000e+00
  C5eq    Q1  1 4.700000e-01    4.634000e+00
  C5eq   SQ1  1 4.300000e-01    5.868000e+00
  C5eq   TQ1  1 3.950000e-01    8.042000e+00
  C4eq    Q1  1 4.700000e-01    4.416000e+00
  C4eq   SQ1  1 4.300000e-01    5.552000e+00
  C4eq   TQ1  1 3.950000e-01    7.477000e+00
  C3eq    Q1  1 4.700000e-01    4.164000e+00
  C3eq   SQ1  1 4.300000e-01    5.114000e+00
  C3eq   TQ1  1 3.950000e-01    6.709000e+00
  C2eq    Q1  1 4.700000e-01    3.384000e+00
  C2eq   SQ1  1 4.300000e-01    3.870000e+00
  C2eq   TQ1  1 3.950000e-01    5.255000e+00
  C1eq    Q1  1 4.700000e-01    3.309000e+00
  C1eq   SQ1  1 4.300000e-01    3.595000e+00
  C1eq   TQ1  1 3.950000e-01    4.618000e+00
  X4eq    Q1  1 4.700000e-01    4.676000e+00
  X4eq   SQ1  1 4.300000e-01    6.022000e+00
  X4eq   TQ1  1 3.950000e-01    8.398000e+00
  X3eq    Q1  1 4.700000e-01    4.658000e+00
  X3eq   SQ1  1 4.300000e-01    5.958000e+00
  X3eq   TQ1  1 3.950000e-01    8.250000e+00
  X2eq    Q1  1 4.700000e-01    4.437000e+00
  X2eq   SQ1  1 4.300000e-01    5.628000e+00
  X2eq   TQ1  1 3.950000e-01    7.652000e+00
  X1eq    Q1  1 4.700000e-01    4.164000e+00
  X1eq   SQ1  1 4.300000e-01    5.114000e+00
  X1eq   TQ1  1 3.950000e-01    6.709000e+00
   P6h    Q1  1 4.700000e-01    4.745000e+00
   P6h   SQ1  1 4.300000e-01    6.275000e+00
   P6h   TQ1  1 3.950000e-01    8.983000e+00
   P5h    Q1  1 4.700000e-01    4.937000e+00
   P5h   SQ1  1 4.300000e-01    6.481000e+00
   P5h   TQ1  1 3.950000e-01    9.236000e+00
   P4h    Q1  1 4.700000e-01    4.936000e+00
   P4h   SQ1  1 4.300000e-01    6.478000e+00
   P4h   TQ1  1 3.950000e-01    9.229000e+00
   P3h    Q1  1 4.700000e-01    4.933000e+00
   P3h   SQ1  1 4.300000e-01    6.469000e+00
   P3h   TQ1  1 3.950000e-01    9.210000e+00
   P2h    Q1  1 4.700000e-01    4.931000e+00
   P2h   SQ1  1 4.300000e-01    6.460000e+00
   P2h   TQ1  1 3.950000e-01    9.189000e+00
   P1h    Q1  1 4.700000e-01    4.929000e+00
   P1h   SQ1  1 4.300000e-01    6.452000e+00
   P1h   TQ1  1 3.950000e-01    9.170000e+00
   N6h    Q1  1 4.700000e-01    4.926000e+00
   N6h   SQ1  1 4.300000e-01    6.441000e+00
   N6h   TQ1  1 3.950000e-01    9.144000e+00
   N5h    Q1  1 4.700000e-01    4.731000e+00
   N5h   SQ1  1 4.300000e-01    6.226000e+00
   N5h   TQ1  1 3.950000e-01    8.869000e+00
   N4h    Q1  1 4.700000e-01    4.726000e+00
   N4h   SQ1  1 4.300000e-01    6.205000e+00
   N4h   TQ1  1 3.950000e-01    8.821000e+00
   N3h    Q1  1 4.700000e-01    4.718000e+00
   N3h   SQ1  1 4.300000e-01    6.176000e+00
   N3h   TQ1  1 3.950000e-01    8.754000e+00
   N2h    Q1  1 4.700000e-01    4.526000e+00
   N2h   SQ1  1 4.300000e-01    5.954000e+00
   N2h   TQ1  1 3.950000e-01    8.407000e+00
   N1h    Q1  1 4.700000e-01    4.319000e+00
   N1h   SQ1  1 4.300000e-01    5.679000e+00
   N1h   TQ1  1 3.950000e-01    8.017000e+00
   C6h    Q1  1 4.700000e-01    4.288000e+00
   C6h   SQ1  1 4.300000e-01    5.568000e+00
   C6h   TQ1  1 3.950000e-01    7.760000e+00
   C5h    Q1  1 4.700000e-01    3.964000e+00
   C5h   SQ1  1 4.300000e-01    5.018000e+00
   C5h   TQ1  1 3.950000e-01    7.162000e+00
   C4h    Q1  1 4.700000e-01    3.776000e+00
   C4h   SQ1  1 4.300000e-01    4.732000e+00
   C4h   TQ1  1 3.950000e-01    6.647000e+00
   C3h    Q1  1 4.700000e-01    3.544000e+00
   C3h   SQ1  1 4.300000e-01    4.264000e+00
   C3h   TQ1  1 3.950000e-01    5.859000e+00
   C2h    Q1  1 4.850000e-01    2.651000e+00
   C2h   SQ1  1 4.430000e-01    2.985000e+00
   C2h   TQ1  1 4.040000e-01    4.335000e+00
   C1h    Q1  1 4.850000e-01    2.578000e+00
   C1h   SQ1  1 4.430000e-01    2.717000e+00
   C1h   TQ1  1 4.040000e-01    3.712000e+00
   X4h    Q1  1 4.700000e-01    4.006000e+00
   X4h   SQ1  1 4.300000e-01    5.172000e+00
   X4h   TQ1  1 3.950000e-01    7.518000e+00
   X3h    Q1  1 4.700000e-01    3.988000e+00
   X3h   SQ1  1 4.300000e-01    5.108000e+00
   X3h   TQ1  1 3.950000e-01    7.370000e+00
   X2h    Q1  1 4.700000e-01    3.797000e+00
   X2h   SQ1  1 4.300000e-01    4.808000e+00
   X2h   TQ1  1 3.950000e-01    6.822000e+00
   X1h    Q1  1 4.700000e-01    3.544000e+00
   X1h   SQ1  1 4.300000e-01    4.264000e+00
   X1h   TQ1  1 3.950000e-01    5.859000e+00
  P6dh    Q1  1 4.700000e-01    4.745000e+00
  P6dh   SQ1  1 4.300000e-01    6.275000e+00
  P6dh   TQ1  1 3.950000e-01    8.983000e+00
  P5dh    Q1  1 4.700000e-01    4.937000e+00
  P5dh   SQ1  1 4.300000e-01    6.481000e+00
  P5dh   TQ1  1 3.950000e-01    9.236000e+00
  P4dh    Q1  1 4.700000e-01    4.936000e+00
  P4dh   SQ1  1 4.300000e-01    6.478000e+00
  P4dh   TQ1  1 3.950000e-01    9.229000e+00
  P3dh    Q1  1 4.700000e-01    4.933000e+00
  P3dh   SQ1  1 4.300000e-01    6.469000e+00
  P3dh   TQ1  1 3.950000e-01    9.210000e+00
  P2dh    Q1  1 4.700000e-01    4.931000e+00
  P2dh   SQ1  1 4.300000e-01    6.460000e+00
  P2dh   TQ1  1 3.950000e-01    9.189000e+00
  P1dh    Q1  1 4.700000e-01    4.929000e+00
  P1dh   SQ1  1 4.300000e-01    6.452000e+00
  P1dh   TQ1  1 3.950000e-01    9.170000e+00
  N6dh    Q1  1 4.700000e-01    4.926000e+00
  N6dh   SQ1  1 4.300000e-01    6.441000e+00
  N6dh   TQ1  1 3.950000e-01    9.144000e+00
  N5dh    Q1  1 4.700000e-01    4.731000e+00
  N5dh   SQ1  1 4.300000e-01    6.226000e+00
  N5dh   TQ1  1 3.950000e-01    8.869000e+00
  N4dh    Q1  1 4.700000e-01    4.726000e+00
  N4dh   SQ1  1 4.300000e-01    6.205000e+00
  N4dh   TQ1  1 3.950000e-01    8.821000e+00
  N3dh    Q1  1 4.700000e-01    4.718000e+00
  N3dh   SQ1  1 4.300000e-01    6.176000e+00
  N3dh   TQ1  1 3.950000e-01    8.754000e+00
  N2dh    Q1  1 4.700000e-01    4.526000e+00
  N2dh   SQ1  1 4.300000e-01    5.954000e+00
  N2dh   TQ1  1 3.950000e-01    8.407000e+00
  N1dh    Q1  1 4.700000e-01    4.319000e+00
  N1dh   SQ1  1 4.300000e-01    5.679000e+00
  N1dh   TQ1  1 3.950000e-01    8.017000e+00
  P6ah    Q1  1 4.700000e-01    4.745000e+00
  P6ah   SQ1  1 4.300000e-01    6.275000e+00
  P6ah   TQ1  1 3.950000e-01    8.983000e+00
  P5ah    Q1  1 4.700000e-01    4.937000e+00
  P5ah   SQ1  1 4.300000e-01    6.481000e+00
  P5ah   TQ1  1 3.950000e-01    9.236000e+00
  P4ah    Q1  1 4.700000e-01    4.936000e+00
  P4ah   SQ1  1 4.300000e-01    6.478000e+00
  P4ah   TQ1  1 3.950000e-01    9.229000e+00
  P3ah    Q1  1 4.700000e-01    4.933000e+00
  P3ah   SQ1  1 4.300000e-01    6.469000e+00
  P3ah   TQ1  1 3.950000e-01    9.210000e+00
  P2ah    Q1  1 4.700000e-01    4.931000e+00
  P2ah   SQ1  1 4.300000e-01    6.460000e+00
  P2ah   TQ1  1 3.950000e-01    9.189000e+00
  P1ah    Q1  1 4.700000e-01    4.929000e+00
  P1ah   SQ1  1 4.300000e-01    6.452000e+00
  P1ah   TQ1  1 3.950000e-01    9.170000e+00
  N6ah    Q1  1 4.700000e-01    4.926000e+00
  N6ah   SQ1  1 4.300000e-01    6.441000e+00
  N6ah   TQ1  1 3.950000e-01    9.144000e+00
  N5ah    Q1  1 4.700000e-01    4.731000e+00
  N5ah   SQ1  1 4.300000e-01    6.226000e+00
  N5ah   TQ1  1 3.950000e-01    8.869000e+00
  N4ah    Q1  1 4.700000e-01    4.726000e+00
  N4ah   SQ1  1 4.300000e-01    6.205000e+00
  N4ah   TQ1  1 3.950000e-01    8.821000e+00
  N3ah    Q1  1 4.700000e-01    4.718000e+00
  N3ah   SQ1  1 4.300000e-01    6.176000e+00
  N3ah   TQ1  1 3.950000e-01    8.754000e+00
  N2ah    Q1  1 4.700000e-01    4.526000e+00
  N2ah   SQ1  1 4.300000e-01    5.954000e+00
  N2ah   TQ1  1 3.950000e-01    8.407000e+00
  N1ah    Q1  1 4.700000e-01    4.319000e+00
  N1ah   SQ1  1 4.300000e-01    5.679000e+00
  N1ah   TQ1  1 3.950000e-01    8.017000e+00
  C6vh    Q1  1 4.700000e-01    4.478000e+00
  C6vh   SQ1  1 4.300000e-01    5.778000e+00
  C6vh   TQ1  1 3.950000e-01    8.000000e+00
  C5vh    Q1  1 4.700000e-01    4.094000e+00
  C5vh   SQ1  1 4.300000e-01    5.258000e+00
  C5vh   TQ1  1 3.950000e-01    7.352000e+00
  C4vh    Q1  1 4.700000e-01    3.926000e+00
  C4vh   SQ1  1 4.300000e-01    4.882000e+00
  C4vh   TQ1  1 3.950000e-01    6.847000e+00
  C3vh    Q1  1 4.700000e-01    3.714000e+00
  C3vh   SQ1  1 4.300000e-01    4.504000e+00
  C3vh   TQ1  1 3.950000e-01    6.119000e+00
  C2vh    Q1  1 4.700000e-01    2.864000e+00
  C2vh   SQ1  1 4.300000e-01    3.280000e+00
  C2vh   TQ1  1 4.010000e-01    4.514000e+00
  C1vh    Q1  1 4.700000e-01    2.789000e+00
  C1vh   SQ1  1 4.300000e-01    3.005000e+00
  C1vh   TQ1  1 4.010000e-01    3.886000e+00
  X4vh    Q1  1 4.700000e-01    4.136000e+00
  X4vh   SQ1  1 4.300000e-01    5.412000e+00
  X4vh   TQ1  1 3.950000e-01    7.708000e+00
  X3vh    Q1  1 4.700000e-01    4.118000e+00
  X3vh   SQ1  1 4.300000e-01    5.348000e+00
  X3vh   TQ1  1 3.950000e-01    7.560000e+00
  X2vh    Q1  1 4.700000e-01    3.947000e+00
  X2vh   SQ1  1 4.300000e-01    4.958000e+00
  X2vh   TQ1  1 3.950000e-01    7.022000e+00
  X1vh    Q1  1 4.700000e-01    3.714000e+00
  X1vh   SQ1  1 4.300000e-01    4.504000e+00
  X1vh   TQ1  1 3.950000e-01    6.119000e+00
  C6eh    Q1  1 4.700000e-01    4.478000e+00
  C6eh   SQ1  1 4.300000e-01    5.778000e+00
  C6eh   TQ1  1 3.950000e-01    8.000000e+00
  C5eh    Q1  1 4.700000e-01    4.094000e+00
  C5eh   SQ1  1 4.300000e-01    5.258000e+00
  C5eh   TQ1  1 3.950000e-01    7.352000e+00
  C4eh    Q1  1 4.700000e-01    3.926000e+00
  C4eh   SQ1  1 4.300000e-01    4.882000e+00
  C4eh   TQ1  1 3.950000e-01    6.847000e+00
  C3eh    Q1  1 4.700000e-01    3.714000e+00
  C3eh   SQ1  1 4.300000e-01    4.504000e+00
  C3eh   TQ1  1 3.950000e-01    6.119000e+00
  C2eh    Q1  1 4.700000e-01    2.864000e+00
  C2eh   SQ1  1 4.300000e-01    3.280000e+00
  C2eh   TQ1  1 4.010000e-01    4.514000e+00
  C1eh    Q1  1 4.700000e-01    2.789000e+00
  C1eh   SQ1  1 4.300000e-01    3.005000e+00
  C1eh   TQ1  1 4.010000e-01    3.886000e+00
  X4eh    Q1  1 4.700000e-01    4.136000e+00
  X4eh   SQ1  1 4.300000e-01    5.412000e+00
  X4eh   TQ1  1 3.950000e-01    7.708000e+00
  X3eh    Q1  1 4.700000e-01    4.118000e+00
  X3eh   SQ1  1 4.300000e-01    5.348000e+00
  X3eh   TQ1  1 3.950000e-01    7.560000e+00
  X2eh    Q1  1 4.700000e-01    3.947000e+00
  X2eh   SQ1  1 4.300000e-01    4.958000e+00
  X2eh   TQ1  1 3.950000e-01    7.022000e+00
  X1eh    Q1  1 4.700000e-01    3.714000e+00
  X1eh   SQ1  1 4.300000e-01    4.504000e+00
  X1eh   TQ1  1 3.950000e-01    6.119000e+00
   P6r    Q1  1 4.700000e-01    4.745000e+00
   P6r   SQ1  1 4.300000e-01    6.275000e+00
   P6r   TQ1  1 3.950000e-01    8.983000e+00
   P5r    Q1  1 4.700000e-01    4.937000e+00
   P5r   SQ1  1 4.300000e-01    6.481000e+00
   P5r   TQ1  1 3.950000e-01    9.236000e+00
   P4r    Q1  1 4.700000e-01    4.936000e+00
   P4r   SQ1  1 4.300000e-01    6.478000e+00
   P4r   TQ1  1 3.950000e-01    9.229000e+00
   P3r    Q1  1 4.700000e-01    4.933000e+00
   P3r   SQ1  1 4.300000e-01    6.469000e+00
   P3r   TQ1  1 3.950000e-01    9.210000e+00
   P2r    Q1  1 4.700000e-01    4.931000e+00
   P2r   SQ1  1 4.300000e-01    6.460000e+00
   P2r   TQ1  1 3.950000e-01    9.189000e+00
   P1r    Q1  1 4.700000e-01    4.929000e+00
   P1r   SQ1  1 4.300000e-01    6.452000e+00
   P1r   TQ1  1 3.950000e-01    9.170000e+00
   N6r    Q1  1 4.700000e-01    4.926000e+00
   N6r   SQ1  1 4.300000e-01    6.441000e+00
   N6r   TQ1  1 3.950000e-01    9.144000e+00
   N5r    Q1  1 4.700000e-01    4.731000e+00
   N5r   SQ1  1 4.300000e-01    6.226000e+00
   N5r   TQ1  1 3.950000e-01    8.869000e+00
   N4r    Q1  1 4.700000e-01    4.726000e+00
   N4r   SQ1  1 4.300000e-01    6.205000e+00
   N4r   TQ1  1 3.950000e-01    8.821000e+00
   N3r    Q1  1 4.700000e-01    4.718000e+00
   N3r   SQ1  1 4.300000e-01    6.176000e+00
   N3r   TQ1  1 3.950000e-01    8.754000e+00
   N2r    Q1  1 4.700000e-01    4.526000e+00
   N2r   SQ1  1 4.300000e-01    5.954000e+00
   N2r   TQ1  1 3.950000e-01    8.407000e+00
   N1r    Q1  1 4.700000e-01    4.319000e+00
   N1r   SQ1  1 4.300000e-01    5.679000e+00
   N1r   TQ1  1 3.950000e-01    8.017000e+00
   C6r    Q1  1 4.700000e-01    4.288000e+00
   C6r   SQ1  1 4.300000e-01    5.568000e+00
   C6r   TQ1  1 3.950000e-01    7.760000e+00
   C5r    Q1  1 4.700000e-01    3.964000e+00
   C5r   SQ1  1 4.300000e-01    5.018000e+00
   C5r   TQ1  1 3.950000e-01    7.162000e+00
   C4r    Q1  1 4.700000e-01    3.776000e+00
   C4r   SQ1  1 4.300000e-01    4.732000e+00
   C4r   TQ1  1 3.950000e-01    6.647000e+00
   C3r    Q1  1 4.700000e-01    3.544000e+00
   C3r   SQ1  1 4.300000e-01    4.264000e+00
   C3r   TQ1  1 3.950000e-01    5.859000e+00
   C2r    Q1  1 4.850000e-01    2.651000e+00
   C2r   SQ1  1 4.430000e-01    2.985000e+00
   C2r   TQ1  1 4.040000e-01    4.335000e+00
   C1r    Q1  1 4.850000e-01    2.578000e+00
   C1r   SQ1  1 4.430000e-01    2.717000e+00
   C1r   TQ1  1 4.040000e-01    3.712000e+00
   X4r    Q1  1 4.700000e-01    4.006000e+00
   X4r   SQ1  1 4.300000e-01    5.172000e+00
   X4r   TQ1  1 3.950000e-01    7.518000e+00
   X3r    Q1  1 4.700000e-01    3.988000e+00
   X3r   SQ1  1 4.300000e-01    5.108000e+00
   X3r   TQ1  1 3.950000e-01    7.370000e+00
   X2r    Q1  1 4.700000e-01    3.797000e+00
   X2r   SQ1  1 4.300000e-01    4.808000e+00
   X2r   TQ1  1 3.950000e-01    6.822000e+00
   X1r    Q1  1 4.700000e-01    3.544000e+00
   X1r   SQ1  1 4.300000e-01    4.264000e+00
   X1r   TQ1  1 3.950000e-01    5.859000e+00
  P6dr    Q1  1 4.700000e-01    4.745000e+00
  P6dr   SQ1  1 4.300000e-01    6.275000e+00
  P6dr   TQ1  1 3.950000e-01    8.983000e+00
  P5dr    Q1  1 4.700000e-01    4.937000e+00
  P5dr   SQ1  1 4.300000e-01    6.481000e+00
  P5dr   TQ1  1 3.950000e-01    9.236000e+00
  P4dr    Q1  1 4.700000e-01    4.936000e+00
  P4dr   SQ1  1 4.300000e-01    6.478000e+00
  P4dr   TQ1  1 3.950000e-01    9.229000e+00
  P3dr    Q1  1 4.700000e-01    4.933000e+00
  P3dr   SQ1  1 4.300000e-01    6.469000e+00
  P3dr   TQ1  1 3.950000e-01    9.210000e+00
  P2dr    Q1  1 4.700000e-01    4.931000e+00
  P2dr   SQ1  1 4.300000e-01    6.460000e+00
  P2dr   TQ1  1 3.950000e-01    9.189000e+00
  P1dr    Q1  1 4.700000e-01    4.929000e+00
  P1dr   SQ1  1 4.300000e-01    6.452000e+00
  P1dr   TQ1  1 3.950000e-01    9.170000e+00
  N6dr    Q1  1 4.700000e-01    4.926000e+00
  N6dr   SQ1  1 4.300000e-01    6.441000e+00
  N6dr   TQ1  1 3.950000e-01    9.144000e+00
  N5dr    Q1  1 4.700000e-01    4.731000e+00
  N5dr   SQ1  1 4.300000e-01    6.226000e+00
  N5dr   TQ1  1 3.950000e-01    8.869000e+00
  N4dr    Q1  1 4.700000e-01    4.726000e+00
  N4dr   SQ1  1 4.300000e-01    6.205000e+00
  N4dr   TQ1  1 3.950000e-01    8.821000e+00
  N3dr    Q1  1 4.700000e-01    4.718000e+00
  N3dr   SQ1  1 4.300000e-01    6.176000e+00
  N3dr   TQ1  1 3.950000e-01    8.754000e+00
  N2dr    Q1  1 4.700000e-01    4.526000e+00
  N2dr   SQ1  1 4.300000e-01    5.954000e+00
  N2dr   TQ1  1 3.950000e-01    8.407000e+00
  N1dr    Q1  1 4.700000e-01    4.319000e+00
  N1dr   SQ1  1 4.300000e-01    5.679000e+00
  N1dr   TQ1  1 3.950000e-01    8.017000e+00
  P6ar    Q1  1 4.700000e-01    4.745000e+00
  P6ar   SQ1  1 4.300000e-01    6.275000e+00
  P6ar   TQ1  1 3.950000e-01    8.983000e+00
  P5ar    Q1  1 4.700000e-01    4.937000e+00
  P5ar   SQ1  1 4.300000e-01    6.481000e+00
  P5ar   TQ1  1 3.950000e-01    9.236000e+00
  P4ar    Q1  1 4.700000e-01    4.936000e+00
  P4ar   SQ1  1 4.300000e-01    6.478000e+00
  P4ar   TQ1  1 3.950000e-01    9.229000e+00
  P3ar    Q1  1 4.700000e-01    4.933000e+00
  P3ar   SQ1  1 4.300000e-01    6.469000e+00
  P3ar   TQ1  1 3.950000e-01    9.210000e+00
  P2ar    Q1  1 4.700000e-01    4.931000e+00
  P2ar   SQ1  1 4.300000e-01    6.460000e+00
  P2ar   TQ1  1 3.950000e-01    9.189000e+00
  P1ar    Q1  1 4.700000e-01    4.929000e+00
  P1ar   SQ1  1 4.300000e-01    6.452000e+00
  P1ar   TQ1  1 3.950000e-01    9.170000e+00
  N6ar    Q1  1 4.700000e-01    4.926000e+00
  N6ar   SQ1  1 4.300000e-01    6.441000e+00
  N6ar   TQ1  1 3.950000e-01    9.144000e+00
  N5ar    Q1  1 4.700000e-01    4.731000e+00
  N5ar   SQ1  1 4.300000e-01    6.226000e+00
  N5ar   TQ1  1 3.950000e-01    8.869000e+00
  N4ar    Q1  1 4.700000e-01    4.726000e+00
  N4ar   SQ1  1 4.300000e-01    6.205000e+00
  N4ar   TQ1  1 3.950000e-01    8.821000e+00
  N3ar    Q1  1 4.700000e-01    4.718000e+00
  N3ar   SQ1  1 4.300000e-01    6.176000e+00
  N3ar   TQ1  1 3.950000e-01    8.754000e+00
  N2ar    Q1  1 4.700000e-01    4.526000e+00
  N2ar   SQ1  1 4.300000e-01    5.954000e+00
  N2ar   TQ1  1 3.950000e-01    8.407000e+00
  N1ar    Q1  1 4.700000e-01    4.319000e+00
  N1ar   SQ1  1 4.300000e-01    5.679000e+00
  N1ar   TQ1  1 3.950000e-01    8.017000e+00
  C6vr    Q1  1 4.700000e-01    4.478000e+00
  C6vr   SQ1  1 4.300000e-01    5.778000e+00
  C6vr   TQ1  1 3.950000e-01    8.000000e+00
  C5vr    Q1  1 4.700000e-01    4.094000e+00
  C5vr   SQ1  1 4.300000e-01    5.258000e+00
  C5vr   TQ1  1 3.950000e-01    7.352000e+00
  C4vr    Q1  1 4.700000e-01    3.926000e+00
  C4vr   SQ1  1 4.300000e-01    4.882000e+00
  C4vr   TQ1  1 3.950000e-01    6.847000e+00
  C3vr    Q1  1 4.700000e-01    3.714000e+00
  C3vr   SQ1  1 4.300000e-01    4.504000e+00
  C3vr   TQ1  1 3.950000e-01    6.119000e+00
  C2vr    Q1  1 4.700000e-01    2.864000e+00
  C2vr   SQ1  1 4.300000e-01    3.280000e+00
  C2vr   TQ1  1 4.010000e-01    4.514000e+00
  C1vr    Q1  1 4.700000e-01    2.789000e+00
  C1vr   SQ1  1 4.300000e-01    3.005000e+00
  C1vr   TQ1  1 4.010000e-01    3.886000e+00
  X4vr    Q1  1 4.700000e-01    4.136000e+00
  X4vr   SQ1  1 4.300000e-01    5.412000e+00
  X4vr   TQ1  1 3.950000e-01    7.708000e+00
  X3vr    Q1  1 4.700000e-01    4.118000e+00
  X3vr   SQ1  1 4.300000e-01    5.348000e+00
  X3vr   TQ1  1 3.950000e-01    7.560000e+00
  X2vr    Q1  1 4.700000e-01    3.947000e+00
  X2vr   SQ1  1 4.300000e-01    4.958000e+00
  X2vr   TQ1  1 3.950000e-01    7.022000e+00
  X1vr    Q1  1 4.700000e-01    3.714000e+00
  X1vr   SQ1  1 4.300000e-01    4.504000e+00
  X1vr   TQ1  1 3.950000e-01    6.119000e+00
  C6er    Q1  1 4.700000e-01    4.478000e+00
  C6er   SQ1  1 4.300000e-01    5.778000e+00
  C6er   TQ1  1 3.950000e-01    8.000000e+00
  C5er    Q1  1 4.700000e-01    4.094000e+00
  C5er   SQ1  1 4.300000e-01    5.258000e+00
  C5er   TQ1  1 3.950000e-01    7.352000e+00
  C4er    Q1  1 4.700000e-01    3.926000e+00
  C4er   SQ1  1 4.300000e-01    4.882000e+00
  C4er   TQ1  1 3.950000e-01    6.847000e+00
  C3er    Q1  1 4.700000e-01    3.714000e+00
  C3er   SQ1  1 4.300000e-01    4.504000e+00
  C3er   TQ1  1 3.950000e-01    6.119000e+00
  C2er    Q1  1 4.700000e-01    2.864000e+00
  C2er   SQ1  1 4.300000e-01    3.280000e+00
  C2er   TQ1  1 4.010000e-01    4.514000e+00
  C1er    Q1  1 4.700000e-01    2.789000e+00
  C1er   SQ1  1 4.300000e-01    3.005000e+00
  C1er   TQ1  1 4.010000e-01    3.886000e+00
  X4er    Q1  1 4.700000e-01    4.136000e+00
  X4er   SQ1  1 4.300000e-01    5.412000e+00
  X4er   TQ1  1 3.950000e-01    7.708000e+00
  X3er    Q1  1 4.700000e-01    4.118000e+00
  X3er   SQ1  1 4.300000e-01    5.348000e+00
  X3er   TQ1  1 3.950000e-01    7.560000e+00
  X2er    Q1  1 4.700000e-01    3.947000e+00
  X2er   SQ1  1 4.300000e-01    4.958000e+00
  X2er   TQ1  1 3.950000e-01    7.022000e+00
  X1er    Q1  1 4.700000e-01    3.714000e+00
  X1er   SQ1  1 4.300000e-01    4.504000e+00
  X1er   TQ1  1 3.950000e-01    6.119000e+00
   SP6    Q1  1 4.300000e-01    4.237000e+00
   SP6   SQ1  1 4.100000e-01    5.683000e+00
   SP6   TQ1  1 3.650000e-01    7.791000e+00
   SP5    Q1  1 4.300000e-01    4.441000e+00
   SP5   SQ1  1 4.100000e-01    5.946000e+00
   SP5   TQ1  1 3.650000e-01    8.108000e+00
   SP4    Q1  1 4.300000e-01    4.444000e+00
   SP4   SQ1  1 4.100000e-01    5.961000e+00
   SP4   TQ1  1 3.650000e-01    8.139000e+00
   SP3    Q1  1 4.300000e-01    4.444000e+00
   SP3   SQ1  1 4.100000e-01    5.961000e+00
   SP3   TQ1  1 3.650000e-01    8.140000e+00
   SP2    Q1  1 4.300000e-01    4.444000e+00
   SP2   SQ1  1 4.100000e-01    5.958000e+00
   SP2   TQ1  1 3.650000e-01    8.133000e+00
   SP1    Q1  1 4.300000e-01    4.443000e+00
   SP1   SQ1  1 4.100000e-01    5.953000e+00
   SP1   TQ1  1 3.650000e-01    8.123000e+00
   SN6    Q1  1 4.300000e-01    4.441000e+00
   SN6   SQ1  1 4.100000e-01    5.946000e+00
   SN6   TQ1  1 3.650000e-01    8.108000e+00
   SN5    Q1  1 4.300000e-01    4.239000e+00
   SN5   SQ1  1 4.100000e-01    5.694000e+00
   SN5   TQ1  1 3.650000e-01    7.814000e+00
   SN4    Q1  1 4.300000e-01    4.236000e+00
   SN4   SQ1  1 4.100000e-01    5.678000e+00
   SN4   TQ1  1 3.650000e-01    7.779000e+00
   SN3    Q1  1 4.300000e-01    4.231000e+00
   SN3   SQ1  1 4.100000e-01    5.653000e+00
   SN3   TQ1  1 3.650000e-01    7.727000e+00
   SN2    Q1  1 4.300000e-01    4.043000e+00
   SN2   SQ1  1 4.100000e-01    5.375000e+00
   SN2   TQ1  1 3.650000e-01    7.387000e+00
   SN1    Q1  1 4.300000e-01    3.821000e+00
   SN1   SQ1  1 4.100000e-01    5.084000e+00
   SN1   TQ1  1 3.650000e-01    7.030000e+00
   SC6    Q1  1 4.300000e-01    3.800000e+00
   SC6   SQ1  1 4.100000e-01    4.977000e+00
   SC6   TQ1  1 3.650000e-01    6.806000e+00
   SC5    Q1  1 4.300000e-01    3.323000e+00
   SC5   SQ1  1 4.100000e-01    4.398000e+00
   SC5   TQ1  1 3.650000e-01    6.192000e+00
   SC4    Q1  1 4.300000e-01    3.147000e+00
   SC4   SQ1  1 4.100000e-01    4.114000e+00
   SC4   TQ1  1 3.650000e-01    5.751000e+00
   SC3    Q1  1 4.300000e-01    2.862000e+00
   SC3   SQ1  1 4.100000e-01    3.728000e+00
   SC3   TQ1  1 3.660000e-01    5.118000e+00
   SC2    Q1  1 4.430000e-01    1.767000e+00
   SC2   SQ1  1 4.210000e-01    2.716000e+00
   SC2   TQ1  1 4.230000e-01    3.696000e+00
   SC1    Q1  1 4.430000e-01    1.715000e+00
   SC1   SQ1  1 4.210000e-01    2.448000e+00
   SC1   TQ1  1 4.230000e-01    3.201000e+00
   SX4    Q1  1 4.300000e-01    3.352000e+00
   SX4   SQ1  1 4.100000e-01    4.548000e+00
   SX4   TQ1  1 3.650000e-01    6.505000e+00
   SX3    Q1  1 4.300000e-01    3.340000e+00
   SX3   SQ1  1 4.100000e-01    4.487000e+00
   SX3   TQ1  1 3.650000e-01    6.376000e+00
   SX2    Q1  1 4.300000e-01    3.161000e+00
   SX2   SQ1  1 4.100000e-01    4.189000e+00
   SX2   TQ1  1 3.650000e-01    5.907000e+00
   SX1    Q1  1 4.300000e-01    2.862000e+00
   SX1   SQ1  1 4.100000e-01    3.728000e+00
   SX1   TQ1  1 3.660000e-01    5.118000e+00
  SP6d    Q1  1 4.300000e-01    4.237000e+00
  SP6d   SQ1  1 4.100000e-01    5.683000e+00
  SP6d   TQ1  1 3.650000e-01    7.791000e+00
  SP5d    Q1  1 4.300000e-01    4.441000e+00
  SP5d   SQ1  1 4.100000e-01    5.946000e+00
  SP5d   TQ1  1 3.650000e-01    8.108000e+00
  SP4d    Q1  1 4.300000e-01    4.444000e+00
  SP4d   SQ1  1 4.100000e-01    5.961000e+00
  SP4d   TQ1  1 3.650000e-01    8.139000e+00
  SP3d    Q1  1 4.300000e-01    4.444000e+00
  SP3d   SQ1  1 4.100000e-01    5.961000e+00
  SP3d   TQ1  1 3.650000e-01    8.140000e+00
  SP2d    Q1  1 4.300000e-01    4.444000e+00
  SP2d   SQ1  1 4.100000e-01    5.958000e+00
  SP2d   TQ1  1 3.650000e-01    8.133000e+00
  SP1d    Q1  1 4.300000e-01    4.443000e+00
  SP1d   SQ1  1 4.100000e-01    5.953000e+00
  SP1d   TQ1  1 3.650000e-01    8.123000e+00
  SN6d    Q1  1 4.300000e-01    4.441000e+00
  SN6d   SQ1  1 4.100000e-01    5.946000e+00
  SN6d   TQ1  1 3.650000e-01    8.108000e+00
  SN5d    Q1  1 4.300000e-01    4.239000e+00
  SN5d   SQ1  1 4.100000e-01    5.694000e+00
  SN5d   TQ1  1 3.650000e-01    7.814000e+00
  SN4d    Q1  1 4.300000e-01    4.236000e+00
  SN4d   SQ1  1 4.100000e-01    5.678000e+00
  SN4d   TQ1  1 3.650000e-01    7.779000e+00
  SN3d    Q1  1 4.300000e-01    4.231000e+00
  SN3d   SQ1  1 4.100000e-01    5.653000e+00
  SN3d   TQ1  1 3.650000e-01    7.727000e+00
  SN2d    Q1  1 4.300000e-01    4.043000e+00
  SN2d   SQ1  1 4.100000e-01    5.375000e+00
  SN2d   TQ1  1 3.650000e-01    7.387000e+00
  SN1d    Q1  1 4.300000e-01    3.821000e+00
  SN1d   SQ1  1 4.100000e-01    5.084000e+00
  SN1d   TQ1  1 3.650000e-01    7.030000e+00
  SP6a    Q1  1 4.300000e-01    4.237000e+00
  SP6a   SQ1  1 4.100000e-01    5.683000e+00
  SP6a   TQ1  1 3.650000e-01    7.791000e+00
  SP5a    Q1  1 4.300000e-01    4.441000e+00
  SP5a   SQ1  1 4.100000e-01    5.946000e+00
  SP5a   TQ1  1 3.650000e-01    8.108000e+00
  SP4a    Q1  1 4.300000e-01    4.444000e+00
  SP4a   SQ1  1 4.100000e-01    5.961000e+00
  SP4a   TQ1  1 3.650000e-01    8.139000e+00
  SP3a    Q1  1 4.300000e-01    4.444000e+00
  SP3a   SQ1  1 4.100000e-01    5.961000e+00
  SP3a   TQ1  1 3.650000e-01    8.140000e+00
  SP2a    Q1  1 4.300000e-01    4.444000e+00
  SP2a   SQ1  1 4.100000e-01    5.958000e+00
  SP2a   TQ1  1 3.650000e-01    8.133000e+00
  SP1a    Q1  1 4.300000e-01    4.443000e+00
  SP1a   SQ1  1 4.100000e-01    5.953000e+00
  SP1a   TQ1  1 3.650000e-01    8.123000e+00
  SN6a    Q1  1 4.300000e-01    4.441000e+00
  SN6a   SQ1  1 4.100000e-01    5.946000e+00
  SN6a   TQ1  1 3.650000e-01    8.108000e+00
  SN5a    Q1  1 4.300000e-01    4.239000e+00
  SN5a   SQ1  1 4.100000e-01    5.694000e+00
  SN5a   TQ1  1 3.650000e-01    7.814000e+00
  SN4a    Q1  1 4.300000e-01    4.236000e+00
  SN4a   SQ1  1 4.100000e-01    5.678000e+00
  SN4a   TQ1  1 3.650000e-01    7.779000e+00
  SN3a    Q1  1 4.300000e-01    4.231000e+00
  SN3a   SQ1  1 4.100000e-01    5.653000e+00
  SN3a   TQ1  1 3.650000e-01    7.727000e+00
  SN2a    Q1  1 4.300000e-01    4.043000e+00
  SN2a   SQ1  1 4.100000e-01    5.375000e+00
  SN2a   TQ1  1 3.650000e-01    7.387000e+00
  SN1a    Q1  1 4.300000e-01    3.821000e+00
  SN1a   SQ1  1 4.100000e-01    5.084000e+00
  SN1a   TQ1  1 3.650000e-01    7.030000e+00
  SC6v    Q1  1 4.300000e-01    4.010000e+00
  SC6v   SQ1  1 4.100000e-01    5.207000e+00
  SC6v   TQ1  1 3.650000e-01    7.036000e+00
  SC5v    Q1  1 4.300000e-01    3.563000e+00
  SC5v   SQ1  1 4.100000e-01    4.648000e+00
  SC5v   TQ1  1 3.650000e-01    6.392000e+00
  SC4v    Q1  1 4.300000e-01    3.297000e+00
  SC4v   SQ1  1 4.100000e-01    4.264000e+00
  SC4v   TQ1  1 3.650000e-01    5.911000e+00
  SC3v    Q1  1 4.300000e-01    3.102000e+00
  SC3v   SQ1  1 4.100000e-01    3.888000e+00
  SC3v   TQ1  1 3.650000e-01    5.278000e+00
  SC2v    Q1  1 4.300000e-01    2.026000e+00
  SC2v   SQ1  1 4.180000e-01    2.876000e+00
  SC2v   TQ1  1 4.090000e-01    3.888000e+00
  SC1v    Q1  1 4.300000e-01    1.972000e+00
  SC1v   SQ1  1 4.180000e-01    2.607000e+00
  SC1v   TQ1  1 4.090000e-01    3.376000e+00
  SX4v    Q1  1 4.300000e-01    3.592000e+00
  SX4v   SQ1  1 4.100000e-01    4.798000e+00
  SX4v   TQ1  1 3.650000e-01    6.705000e+00
  SX3v    Q1  1 4.300000e-01    3.580000e+00
  SX3v   SQ1  1 4.100000e-01    4.737000e+00
  SX3v   TQ1  1 3.650000e-01    6.576000e+00
  SX2v    Q1  1 4.300000e-01    3.311000e+00
  SX2v   SQ1  1 4.100000e-01    4.339000e+00
  SX2v   TQ1  1 3.650000e-01    6.067000e+00
  SX1v    Q1  1 4.300000e-01    3.102000e+00
  SX1v   SQ1  1 4.100000e-01    3.888000e+00
  SX1v   TQ1  1 3.650000e-01    5.278000e+00
  SC6e    Q1  1 4.300000e-01    4.010000e+00
  SC6e   SQ1  1 4.100000e-01    5.207000e+00
  SC6e   TQ1  1 3.650000e-01    7.036000e+00
  SC5e    Q1  1 4.300000e-01    3.563000e+00
  SC5e   SQ1  1 4.100000e-01    4.648000e+00
  SC5e   TQ1  1 3.650000e-01    6.392000e+00
  SC4e    Q1  1 4.300000e-01    3.297000e+00
  SC4e   SQ1  1 4.100000e-01    4.264000e+00
  SC4e   TQ1  1 3.650000e-01    5.911000e+00
  SC3e    Q1  1 4.300000e-01    3.102000e+00
  SC3e   SQ1  1 4.100000e-01    3.888000e+00
  SC3e   TQ1  1 3.650000e-01    5.278000e+00
  SC2e    Q1  1 4.300000e-01    2.026000e+00
  SC2e   SQ1  1 4.180000e-01    2.876000e+00
  SC2e   TQ1  1 4.090000e-01    3.888000e+00
  SC1e    Q1  1 4.300000e-01    1.972000e+00
  SC1e   SQ1  1 4.180000e-01    2.607000e+00
  SC1e   TQ1  1 4.090000e-01    3.376000e+00
  SX4e    Q1  1 4.300000e-01    3.592000e+00
  SX4e   SQ1  1 4.100000e-01    4.798000e+00
  SX4e   TQ1  1 3.650000e-01    6.705000e+00
  SX3e    Q1  1 4.300000e-01    3.580000e+00
  SX3e   SQ1  1 4.100000e-01    4.737000e+00
  SX3e   TQ1  1 3.650000e-01    6.576000e+00
  SX2e    Q1  1 4.300000e-01    3.311000e+00
  SX2e   SQ1  1 4.100000e-01    4.339000e+00
  SX2e   TQ1  1 3.650000e-01    6.067000e+00
  SX1e    Q1  1 4.300000e-01    3.102000e+00
  SX1e   SQ1  1 4.100000e-01    3.888000e+00
  SX1e   TQ1  1 3.650000e-01    5.278000e+00
  SP6q    Q1  1 4.300000e-01    4.867000e+00
  SP6q   SQ1  1 4.100000e-01    6.413000e+00
  SP6q   TQ1  1 3.650000e-01    8.601000e+00
  SP5q    Q1  1 4.300000e-01    5.151000e+00
  SP5q   SQ1  1 4.100000e-01    6.686000e+00
  SP5q   TQ1  1 3.650000e-01    8.938000e+00
  SP4q    Q1  1 4.300000e-01    5.154000e+00
  SP4q   SQ1  1 4.100000e-01    6.701000e+00
  SP4q   TQ1  1 3.650000e-01    8.969000e+00
  SP3q    Q1  1 4.300000e-01    5.154000e+00
  SP3q   SQ1  1 4.100000e-01    6.701000e+00
  SP3q   TQ1  1 3.650000e-01    8.970000e+00
  SP2q    Q1  1 4.300000e-01    5.154000e+00
  SP2q   SQ1  1 4.100000e-01    6.698000e+00
  SP2q   TQ1  1 3.650000e-01    8.963000e+00
  SP1q    Q1  1 4.300000e-01    5.153000e+00
  SP1q   SQ1  1 4.100000e-01    6.693000e+00
  SP1q   TQ1  1 3.650000e-01    8.953000e+00
  SN6q    Q1  1 4.300000e-01    5.151000e+00
  SN6q   SQ1  1 4.100000e-01    6.686000e+00
  SN6q   TQ1  1 3.650000e-01    8.938000e+00
  SN5q    Q1  1 4.300000e-01    4.869000e+00
  SN5q   SQ1  1 4.100000e-01    6.424000e+00
  SN5q   TQ1  1 3.650000e-01    8.624000e+00
  SN4q    Q1  1 4.300000e-01    4.866000e+00
  SN4q   SQ1  1 4.100000e-01    6.408000e+00
  SN4q   TQ1  1 3.650000e-01    8.589000e+00
  SN3q    Q1  1 4.300000e-01    4.861000e+00
  SN3q   SQ1  1 4.100000e-01    6.383000e+00
  SN3q   TQ1  1 3.650000e-01    8.537000e+00
  SN2q    Q1  1 4.300000e-01    4.623000e+00
  SN2q   SQ1  1 4.100000e-01    6.125000e+00
  SN2q   TQ1  1 3.650000e-01    8.187000e+00
  SN1q    Q1  1 4.300000e-01    4.411000e+00
  SN1q   SQ1  1 4.100000e-01    5.794000e+00
  SN1q   TQ1  1 3.650000e-01    7.790000e+00
  SC6q    Q1  1 4.300000e-01    4.390000e+00
  SC6q   SQ1  1 4.100000e-01    5.687000e+00
  SC6q   TQ1  1 3.650000e-01    7.566000e+00
  SC5q    Q1  1 4.300000e-01    3.993000e+00
  SC5q   SQ1  1 4.100000e-01    5.118000e+00
  SC5q   TQ1  1 3.650000e-01    6.852000e+00
  SC4q    Q1  1 4.300000e-01    3.757000e+00
  SC4q   SQ1  1 4.100000e-01    4.754000e+00
  SC4q   TQ1  1 3.650000e-01    6.341000e+00
  SC3q    Q1  1 4.300000e-01    3.492000e+00
  SC3q   SQ1  1 4.100000e-01    4.288000e+00
  SC3q   TQ1  1 3.650000e-01    5.638000e+00
  SC2q    Q1  1 4.300000e-01    2.456000e+00
  SC2q   SQ1  1 4.100000e-01    3.255000e+00
  SC2q   TQ1  1 3.940000e-01    4.205000e+00
  SC1q    Q1  1 4.300000e-01    2.402000e+00
  SC1q   SQ1  1 4.100000e-01    2.981000e+00
  SC1q   TQ1  1 3.940000e-01    3.673000e+00
  SX4q    Q1  1 4.300000e-01    4.022000e+00
  SX4q   SQ1  1 4.100000e-01    5.268000e+00
  SX4q   TQ1  1 3.650000e-01    7.165000e+00
  SX3q    Q1  1 4.300000e-01    4.010000e+00
  SX3q   SQ1  1 4.100000e-01    5.207000e+00
  SX3q   TQ1  1 3.650000e-01    7.036000e+00
  SX2q    Q1  1 4.300000e-01    3.771000e+00
  SX2q   SQ1  1 4.100000e-01    4.829000e+00
  SX2q   TQ1  1 3.650000e-01    6.497000e+00
  SX1q    Q1  1 4.300000e-01    3.492000e+00
  SX1q   SQ1  1 4.100000e-01    4.288000e+00
  SX1q   TQ1  1 3.650000e-01    5.638000e+00
 SP6dq    Q1  1 4.300000e-01    4.867000e+00
 SP6dq   SQ1  1 4.100000e-01    6.413000e+00
 SP6dq   TQ1  1 3.650000e-01    8.601000e+00
 SP5dq    Q1  1 4.300000e-01    5.151000e+00
 SP5dq   SQ1  1 4.100000e-01    6.686000e+00
 SP5dq   TQ1  1 3.650000e-01    8.938000e+00
 SP4dq    Q1  1 4.300000e-01    5.154000e+00
 SP4dq   SQ1  1 4.100000e-01    6.701000e+00
 SP4dq   TQ1  1 3.650000e-01    8.969000e+00
 SP3dq    Q1  1 4.300000e-01    5.154000e+00
 SP3dq   SQ1  1 4.100000e-01    6.701000e+00
 SP3dq   TQ1  1 3.650000e-01    8.970000e+00
 SP2dq    Q1  1 4.300000e-01    5.154000e+00
 SP2dq   SQ1  1 4.100000e-01    6.698000e+00
 SP2dq   TQ1  1 3.650000e-01    8.963000e+00
 SP1dq    Q1  1 4.300000e-01    5.153000e+00
 SP1dq   SQ1  1 4.100000e-01    6.693000e+00
 SP1dq   TQ1  1 3.650000e-01    8.953000e+00
 SN6dq    Q1  1 4.300000e-01    5.151000e+00
 SN6dq   SQ1  1 4.100000e-01    6.686000e+00
 SN6dq   TQ1  1 3.650000e-01    8.938000e+00
 SN5dq    Q1  1 4.300000e-01    4.869000e+00
 SN5dq   SQ1  1 4.100000e-01    6.424000e+00
 SN5dq   TQ1  1 3.650000e-01    8.624000e+00
 SN4dq    Q1  1 4.300000e-01    4.866000e+00
 SN4dq   SQ1  1 4.100000e-01    6.408000e+00
 SN4dq   TQ1  1 3.650000e-01    8.589000e+00
 SN3dq    Q1  1 4.300000e-01    4.861000e+00
 SN3dq   SQ1  1 4.100000e-01    6.383000e+00
 SN3dq   TQ1  1 3.650000e-01    8.537000e+00
 SN2dq    Q1  1 4.300000e-01    4.623000e+00
 SN2dq   SQ1  1 4.100000e-01    6.125000e+00
 SN2dq   TQ1  1 3.650000e-01    8.187000e+00
 SN1dq    Q1  1 4.300000e-01    4.411000e+00
 SN1dq   SQ1  1 4.100000e-01    5.794000e+00
 SN1dq   TQ1  1 3.650000e-01    7.790000e+00
 SP6aq    Q1  1 4.300000e-01    4.867000e+00
 SP6aq   SQ1  1 4.100000e-01    6.413000e+00
 SP6aq   TQ1  1 3.650000e-01    8.601000e+00
 SP5aq    Q1  1 4.300000e-01    5.151000e+00
 SP5aq   SQ1  1 4.100000e-01    6.686000e+00
 SP5aq   TQ1  1 3.650000e-01    8.938000e+00
 SP4aq    Q1  1 4.300000e-01    5.154000e+00
 SP4aq   SQ1  1 4.100000e-01    6.701000e+00
 SP4aq   TQ1  1 3.650000e-01    8.969000e+00
 SP3aq    Q1  1 4.300000e-01    5.154000e+00
 SP3aq   SQ1  1 4.100000e-01    6.701000e+00
 SP3aq   TQ1  1 3.650000e-01    8.970000e+00
 SP2aq    Q1  1 4.300000e-01    5.154000e+00
 SP2aq   SQ1  1 4.100000e-01    6.698000e+00
 SP2aq   TQ1  1 3.650000e-01    8.963000e+00
 SP1aq    Q1  1 4.300000e-01    5.153000e+00
 SP1aq   SQ1  1 4.100000e-01    6.693000e+00
 SP1aq   TQ1  1 3.650000e-01    8.953000e+00
 SN6aq    Q1  1 4.300000e-01    5.151000e+00
 SN6aq   SQ1  1 4.100000e-01    6.686000e+00
 SN6aq   TQ1  1 3.650000e-01    8.938000e+00
 SN5aq    Q1  1 4.300000e-01    4.869000e+00
 SN5aq   SQ1  1 4.100000e-01    6.424000e+00
 SN5aq   TQ1  1 3.650000e-01    8.624000e+00
 SN4aq    Q1  1 4.300000e-01    4.866000e+00
 SN4aq   SQ1  1 4.100000e-01    6.408000e+00
 SN4aq   TQ1  1 3.650000e-01    8.589000e+00
 SN3aq    Q1  1 4.300000e-01    4.861000e+00
 SN3aq   SQ1  1 4.100000e-01    6.383000e+00
 SN3aq   TQ1  1 3.650000e-01    8.537000e+00
 SN2aq    Q1  1 4.300000e-01    4.623000e+00
 SN2aq   SQ1  1 4.100000e-01    6.125000e+00
 SN2aq   TQ1  1 3.650000e-01    8.187000e+00
 SN1aq    Q1  1 4.300000e-01    4.411000e+00
 SN1aq   SQ1  1 4.100000e-01    5.794000e+00
 SN1aq   TQ1  1 3.650000e-01    7.790000e+00
 SC6vq    Q1  1 4.300000e-01    4.590000e+00
 SC6vq   SQ1  1 4.100000e-01    5.957000e+00
 SC6vq   TQ1  1 3.650000e-01    7.836000e+00
 SC5vq    Q1  1 4.300000e-01    4.173000e+00
 SC5vq   SQ1  1 4.100000e-01    5.358000e+00
 SC5vq   TQ1  1 3.650000e-01    7.112000e+00
 SC4vq    Q1  1 4.300000e-01    3.967000e+00
 SC4vq   SQ1  1 4.100000e-01    4.984000e+00
 SC4vq   TQ1  1 3.650000e-01    6.571000e+00
 SC3vq    Q1  1 4.300000e-01    3.712000e+00
 SC3vq   SQ1  1 4.100000e-01    4.528000e+00
 SC3vq   TQ1  1 3.650000e-01    5.868000e+00
 SC2vq    Q1  1 4.300000e-01    2.616000e+00
 SC2vq   SQ1  1 4.100000e-01    3.415000e+00
 SC2vq   TQ1  1 3.780000e-01    4.488000e+00
 SC1vq    Q1  1 4.300000e-01    2.562000e+00
 SC1vq   SQ1  1 4.100000e-01    3.141000e+00
 SC1vq   TQ1  1 3.780000e-01    3.934000e+00
 SX4vq    Q1  1 4.300000e-01    4.202000e+00
 SX4vq   SQ1  1 4.100000e-01    5.508000e+00
 SX4vq   TQ1  1 3.650000e-01    7.425000e+00
 SX3vq    Q1  1 4.300000e-01    4.190000e+00
 SX3vq   SQ1  1 4.100000e-01    5.447000e+00
 SX3vq   TQ1  1 3.650000e-01    7.296000e+00
 SX2vq    Q1  1 4.300000e-01    3.981000e+00
 SX2vq   SQ1  1 4.100000e-01    5.059000e+00
 SX2vq   TQ1  1 3.650000e-01    6.727000e+00
 SX1vq    Q1  1 4.300000e-01    3.712000e+00
 SX1vq   SQ1  1 4.100000e-01    4.528000e+00
 SX1vq   TQ1  1 3.650000e-01    5.868000e+00
 SC6eq    Q1  1 4.300000e-01    4.590000e+00
 SC6eq   SQ1  1 4.100000e-01    5.957000e+00
 SC6eq   TQ1  1 3.650000e-01    7.836000e+00
 SC5eq    Q1  1 4.300000e-01    4.173000e+00
 SC5eq   SQ1  1 4.100000e-01    5.358000e+00
 SC5eq   TQ1  1 3.650000e-01    7.112000e+00
 SC4eq    Q1  1 4.300000e-01    3.967000e+00
 SC4eq   SQ1  1 4.100000e-01    4.984000e+00
 SC4eq   TQ1  1 3.650000e-01    6.571000e+00
 SC3eq    Q1  1 4.300000e-01    3.712000e+00
 SC3eq   SQ1  1 4.100000e-01    4.528000e+00
 SC3eq   TQ1  1 3.650000e-01    5.868000e+00
 SC2eq    Q1  1 4.300000e-01    2.616000e+00
 SC2eq   SQ1  1 4.100000e-01    3.415000e+00
 SC2eq   TQ1  1 3.780000e-01    4.488000e+00
 SC1eq    Q1  1 4.300000e-01    2.562000e+00
 SC1eq   SQ1  1 4.100000e-01    3.141000e+00
 SC1eq   TQ1  1 3.780000e-01    3.934000e+00
 SX4eq    Q1  1 4.300000e-01    4.202000e+00
 SX4eq   SQ1  1 4.100000e-01    5.508000e+00
 SX4eq   TQ1  1 3.650000e-01    7.425000e+00
 SX3eq    Q1  1 4.300000e-01    4.190000e+00
 SX3eq   SQ1  1 4.100000e-01    5.447000e+00
 SX3eq   TQ1  1 3.650000e-01    7.296000e+00
 SX2eq    Q1  1 4.300000e-01    3.981000e+00
 SX2eq   SQ1  1 4.100000e-01    5.059000e+00
 SX2eq   TQ1  1 3.650000e-01    6.727000e+00
 SX1eq    Q1  1 4.300000e-01    3.712000e+00
 SX1eq   SQ1  1 4.100000e-01    4.528000e+00
 SX1eq   TQ1  1 3.650000e-01    5.868000e+00
  SP6h    Q1  1 4.300000e-01    4.237000e+00
  SP6h   SQ1  1 4.100000e-01    5.683000e+00
  SP6h   TQ1  1 3.650000e-01    7.791000e+00
  SP5h    Q1  1 4.300000e-01    4.441000e+00
  SP5h   SQ1  1 4.100000e-01    5.946000e+00
  SP5h   TQ1  1 3.650000e-01    8.108000e+00
  SP4h    Q1  1 4.300000e-01    4.444000e+00
  SP4h   SQ1  1 4.100000e-01    5.961000e+00
  SP4h   TQ1  1 3.650000e-01    8.139000e+00
  SP3h    Q1  1 4.300000e-01    4.444000e+00
  SP3h   SQ1  1 4.100000e-01    5.961000e+00
  SP3h   TQ1  1 3.650000e-01    8.140000e+00
  SP2h    Q1  1 4.300000e-01    4.444000e+00
  SP2h   SQ1  1 4.100000e-01    5.958000e+00
  SP2h   TQ1  1 3.650000e-01    8.133000e+00
  SP1h    Q1  1 4.300000e-01    4.443000e+00
  SP1h   SQ1  1 4.100000e-01    5.953000e+00
  SP1h   TQ1  1 3.650000e-01    8.123000e+00
  SN6h    Q1  1 4.300000e-01    4.441000e+00
  SN6h   SQ1  1 4.100000e-01    5.946000e+00
  SN6h   TQ1  1 3.650000e-01    8.108000e+00
  SN5h    Q1  1 4.300000e-01    4.239000e+00
  SN5h   SQ1  1 4.100000e-01    5.694000e+00
  SN5h   TQ1  1 3.650000e-01    7.814000e+00
  SN4h    Q1  1 4.300000e-01    4.236000e+00
  SN4h   SQ1  1 4.100000e-01    5.678000e+00
  SN4h   TQ1  1 3.650000e-01    7.779000e+00
  SN3h    Q1  1 4.300000e-01    4.231000e+00
  SN3h   SQ1  1 4.100000e-01    5.653000e+00
  SN3h   TQ1  1 3.650000e-01    7.727000e+00
  SN2h    Q1  1 4.300000e-01    4.043000e+00
  SN2h   SQ1  1 4.100000e-01    5.375000e+00
  SN2h   TQ1  1 3.650000e-01    7.387000e+00
  SN1h    Q1  1 4.300000e-01    3.821000e+00
  SN1h   SQ1  1 4.100000e-01    5.084000e+00
  SN1h   TQ1  1 3.650000e-01    7.030000e+00
  SC6h    Q1  1 4.300000e-01    3.800000e+00
  SC6h   SQ1  1 4.100000e-01    4.977000e+00
  SC6h   TQ1  1 3.650000e-01    6.806000e+00
  SC5h    Q1  1 4.300000e-01    3.323000e+00
  SC5h   SQ1  1 4.100000e-01    4.398000e+00
  SC5h   TQ1  1 3.650000e-01    6.192000e+00
  SC4h    Q1  1 4.300000e-01    3.147000e+00
  SC4h   SQ1  1 4.100000e-01    4.114000e+00
  SC4h   TQ1  1 3.650000e-01    5.751000e+00
  SC3h    Q1  1 4.300000e-01    2.862000e+00
  SC3h   SQ1  1 4.100000e-01    3.728000e+00
  SC3h   TQ1  1 3.660000e-01    5.118000e+00
  SC2h    Q1  1 4.430000e-01    1.767000e+00
  SC2h   SQ1  1 4.210000e-01    2.716000e+00
  SC2h   TQ1  1 4.230000e-01    3.696000e+00
  SC1h    Q1  1 4.430000e-01    1.715000e+00
  SC1h   SQ1  1 4.210000e-01    2.448000e+00
  SC1h   TQ1  1 4.230000e-01    3.201000e+00
  SX4h    Q1  1 4.300000e-01    3.352000e+00
  SX4h   SQ1  1 4.100000e-01    4.548000e+00
  SX4h   TQ1  1 3.650000e-01    6.505000e+00
  SX3h    Q1  1 4.300000e-01    3.340000e+00
  SX3h   SQ1  1 4.100000e-01    4.487000e+00
  SX3h   TQ1  1 3.650000e-01    6.376000e+00
  SX2h    Q1  1 4.300000e-01    3.161000e+00
  SX2h   SQ1  1 4.100000e-01    4.189000e+00
  SX2h   TQ1  1 3.650000e-01    5.907000e+00
  SX1h    Q1  1 4.300000e-01    2.862000e+00
  SX1h   SQ1  1 4.100000e-01    3.728000e+00
  SX1h   TQ1  1 3.660000e-01    5.118000e+00
 SP6dh    Q1  1 4.300000e-01    4.237000e+00
 SP6dh   SQ1  1 4.100000e-01    5.683000e+00
 SP6dh   TQ1  1 3.650000e-01    7.791000e+00
 SP5dh    Q1  1 4.300000e-01    4.441000e+00
 SP5dh   SQ1  1 4.100000e-01    5.946000e+00
 SP5dh   TQ1  1 3.650000e-01    8.108000e+00
 SP4dh    Q1  1 4.300000e-01    4.444000e+00
 SP4dh   SQ1  1 4.100000e-01    5.961000e+00
 SP4dh   TQ1  1 3.650000e-01    8.139000e+00
 SP3dh    Q1  1 4.300000e-01    4.444000e+00
 SP3dh   SQ1  1 4.100000e-01    5.961000e+00
 SP3dh   TQ1  1 3.650000e-01    8.140000e+00
 SP2dh    Q1  1 4.300000e-01    4.444000e+00
 SP2dh   SQ1  1 4.100000e-01    5.958000e+00
 SP2dh   TQ1  1 3.650000e-01    8.133000e+00
 SP1dh    Q1  1 4.300000e-01    4.443000e+00
 SP1dh   SQ1  1 4.100000e-01    5.953000e+00
 SP1dh   TQ1  1 3.650000e-01    8.123000e+00
 SN6dh    Q1  1 4.300000e-01    4.441000e+00
 SN6dh   SQ1  1 4.100000e-01    5.946000e+00
 SN6dh   TQ1  1 3.650000e-01    8.108000e+00
 SN5dh    Q1  1 4.300000e-01    4.239000e+00
 SN5dh   SQ1  1 4.100000e-01    5.694000e+00
 SN5dh   TQ1  1 3.650000e-01    7.814000e+00
 SN4dh    Q1  1 4.300000e-01    4.236000e+00
 SN4dh   SQ1  1 4.100000e-01    5.678000e+00
 SN4dh   TQ1  1 3.650000e-01    7.779000e+00
 SN3dh    Q1  1 4.300000e-01    4.231000e+00
 SN3dh   SQ1  1 4.100000e-01    5.653000e+00
 SN3dh   TQ1  1 3.650000e-01    7.727000e+00
 SN2dh    Q1  1 4.300000e-01    4.043000e+00
 SN2dh   SQ1  1 4.100000e-01    5.375000e+00
 SN2dh   TQ1  1 3.650000e-01    7.387000e+00
 SN1dh    Q1  1 4.300000e-01    3.821000e+00
 SN1dh   SQ1  1 4.100000e-01    5.084000e+00
 SN1dh   TQ1  1 3.650000e-01    7.030000e+00
 SP6ah    Q1  1 4.300000e-01    4.237000e+00
 SP6ah   SQ1  1 4.100000e-01    5.683000e+00
 SP6ah   TQ1  1 3.650000e-01    7.791000e+00
 SP5ah    Q1  1 4.300000e-01    4.441000e+00
 SP5ah   SQ1  1 4.100000e-01    5.946000e+00
 SP5ah   TQ1  1 3.650000e-01    8.108000e+00
 SP4ah    Q1  1 4.300000e-01    4.444000e+00
 SP4ah   SQ1  1 4.100000e-01    5.961000e+00
 SP4ah   TQ1  1 3.650000e-01    8.139000e+00
 SP3ah    Q1  1 4.300000e-01    4.444000e+00
 SP3ah   SQ1  1 4.100000e-01    5.961000e+00
 SP3ah   TQ1  1 3.650000e-01    8.140000e+00
 SP2ah    Q1  1 4.300000e-01    4.444000e+00
 SP2ah   SQ1  1 4.100000e-01    5.958000e+00
 SP2ah   TQ1  1 3.650000e-01    8.133000e+00
 SP1ah    Q1  1 4.300000e-01    4.443000e+00
 SP1ah   SQ1  1 4.100000e-01    5.953000e+00
 SP1ah   TQ1  1 3.650000e-01    8.123000e+00
 SN6ah    Q1  1 4.300000e-01    4.441000e+00
 SN6ah   SQ1  1 4.100000e-01    5.946000e+00
 SN6ah   TQ1  1 3.650000e-01    8.108000e+00
 SN5ah    Q1  1 4.300000e-01    4.239000e+00
 SN5ah   SQ1  1 4.100000e-01    5.694000e+00
 SN5ah   TQ1  1 3.650000e-01    7.814000e+00
 SN4ah    Q1  1 4.300000e-01    4.236000e+00
 SN4ah   SQ1  1 4.100000e-01    5.678000e+00
 SN4ah   TQ1  1 3.650000e-01    7.779000e+00
 SN3ah    Q1  1 4.300000e-01    4.231000e+00
 SN3ah   SQ1  1 4.100000e-01    5.653000e+00
 SN3ah   TQ1  1 3.650000e-01    7.727000e+00
 SN2ah    Q1  1 4.300000e-01    4.043000e+00
 SN2ah   SQ1  1 4.100000e-01    5.375000e+00
 SN2ah   TQ1  1 3.650000e-01    7.387000e+00
 SN1ah    Q1  1 4.300000e-01    3.821000e+00
 SN1ah   SQ1  1 4.100000e-01    5.084000e+00
 SN1ah   TQ1  1 3.650000e-01    7.030000e+00
 SC6vh    Q1  1 4.300000e-01    4.010000e+00
 SC6vh   SQ1  1 4.100000e-01    5.207000e+00
 SC6vh   TQ1  1 3.650000e-01    7.036000e+00
 SC5vh    Q1  1 4.300000e-01    3.563000e+00
 SC5vh   SQ1  1 4.100000e-01    4.648000e+00
 SC5vh   TQ1  1 3.650000e-01    6.392000e+00
 SC4vh    Q1  1 4.300000e-01    3.297000e+00
 SC4vh   SQ1  1 4.100000e-01    4.264000e+00
 SC4vh   TQ1  1 3.650000e-01    5.911000e+00
 SC3vh    Q1  1 4.300000e-01    3.102000e+00
 SC3vh   SQ1  1 4.100000e-01    3.888000e+00
 SC3vh   TQ1  1 3.650000e-01    5.278000e+00
 SC2vh    Q1  1 4.300000e-01    2.026000e+00
 SC2vh   SQ1  1 4.180000e-01    2.876000e+00
 SC2vh   TQ1  1 4.090000e-01    3.888000e+00
 SC1vh    Q1  1 4.300000e-01    1.972000e+00
 SC1vh   SQ1  1 4.180000e-01    2.607000e+00
 SC1vh   TQ1  1 4.090000e-01    3.376000e+00
 SX4vh    Q1  1 4.300000e-01    3.592000e+00
 SX4vh   SQ1  1 4.100000e-01    4.798000e+00
 SX4vh   TQ1  1 3.650000e-01    6.705000e+00
 SX3vh    Q1  1 4.300000e-01    3.580000e+00
 SX3vh   SQ1  1 4.100000e-01    4.737000e+00
 SX3vh   TQ1  1 3.650000e-01    6.576000e+00
 SX2vh    Q1  1 4.300000e-01    3.311000e+00
 SX2vh   SQ1  1 4.100000e-01    4.339000e+00
 SX2vh   TQ1  1 3.650000e-01    6.067000e+00
 SX1vh    Q1  1 4.300000e-01    3.102000e+00
 SX1vh   SQ1  1 4.100000e-01    3.888000e+00
 SX1vh   TQ1  1 3.650000e-01    5.278000e+00
 SC6eh    Q1  1 4.300000e-01    4.010000e+00
 SC6eh   SQ1  1 4.100000e-01    5.207000e+00
 SC6eh   TQ1  1 3.650000e-01    7.036000e+00
 SC5eh    Q1  1 4.300000e-01    3.563000e+00
 SC5eh   SQ1  1 4.100000e-01    4.648000e+00
 SC5eh   TQ1  1 3.650000e-01    6.392000e+00
 SC4eh    Q1  1 4.300000e-01    3.297000e+00
 SC4eh   SQ1  1 4.100000e-01    4.264000e+00
 SC4eh   TQ1  1 3.650000e-01    5.911000e+00
 SC3eh    Q1  1 4.300000e-01    3.102000e+00
 SC3eh   SQ1  1 4.100000e-01    3.888000e+00
 SC3eh   TQ1  1 3.650000e-01    5.278000e+00
 SC2eh    Q1  1 4.300000e-01    2.026000e+00
 SC2eh   SQ1  1 4.180000e-01    2.876000e+00
 SC2eh   TQ1  1 4.090000e-01    3.888000e+00
 SC1eh    Q1  1 4.300000e-01    1.972000e+00
 SC1eh   SQ1  1 4.180000e-01    2.607000e+00
 SC1eh   TQ1  1 4.090000e-01    3.376000e+00
 SX4eh    Q1  1 4.300000e-01    3.592000e+00
 SX4eh   SQ1  1 4.100000e-01    4.798000e+00
 SX4eh   TQ1  1 3.650000e-01    6.705000e+00
 SX3eh    Q1  1 4.300000e-01    3.580000e+00
 SX3eh   SQ1  1 4.100000e-01    4.737000e+00
 SX3eh   TQ1  1 3.650000e-01    6.576000e+00
 SX2eh    Q1  1 4.300000e-01    3.311000e+00
 SX2eh   SQ1  1 4.100000e-01    4.339000e+00
 SX2eh   TQ1  1 3.650000e-01    6.067000e+00
 SX1eh    Q1  1 4.300000e-01    3.102000e+00
 SX1eh   SQ1  1 4.100000e-01    3.888000e+00
 SX1eh   TQ1  1 3.650000e-01    5.278000e+00
  SP6r    Q1  1 4.300000e-01    4.237000e+00
  SP6r   SQ1  1 4.100000e-01    5.683000e+00
  SP6r   TQ1  1 3.650000e-01    7.791000e+00
  SP5r    Q1  1 4.300000e-01    4.441000e+00
  SP5r   SQ1  1 4.100000e-01    5.946000e+00
  SP5r   TQ1  1 3.650000e-01    8.108000e+00
  SP4r    Q1  1 4.300000e-01    4.444000e+00
  SP4r   SQ1  1 4.100000e-01    5.961000e+00
  SP4r   TQ1  1 3.650000e-01    8.139000e+00
  SP3r    Q1  1 4.300000e-01    4.444000e+00
  SP3r   SQ1  1 4.100000e-01    5.961000e+00
  SP3r   TQ1  1 3.650000e-01    8.140000e+00
  SP2r    Q1  1 4.300000e-01    4.444000e+00
  SP2r   SQ1  1 4.100000e-01    5.958000e+00
  SP2r   TQ1  1 3.650000e-01    8.133000e+00
  SP1r    Q1  1 4.300000e-01    4.443000e+00
  SP1r   SQ1  1 4.100000e-01    5.953000e+00
  SP1r   TQ1  1 3.650000e-01    8.123000e+00
  SN6r    Q1  1 4.300000e-01    4.441000e+00
  SN6r   SQ1  1 4.100000e-01    5.946000e+00
  SN6r   TQ1  1 3.650000e-01    8.108000e+00
  SN5r    Q1  1 4.300000e-01    4.239000e+00
  SN5r   SQ1  1 4.100000e-01    5.694000e+00
  SN5r   TQ1  1 3.650000e-01    7.814000e+00
  SN4r    Q1  1 4.300000e-01    4.236000e+00
  SN4r   SQ1  1 4.100000e-01    5.678000e+00
  SN4r   TQ1  1 3.650000e-01    7.779000e+00
  SN3r    Q1  1 4.300000e-01    4.231000e+00
  SN3r   SQ1  1 4.100000e-01    5.653000e+00
  SN3r   TQ1  1 3.650000e-01    7.727000e+00
  SN2r    Q1  1 4.300000e-01    4.043000e+00
  SN2r   SQ1  1 4.100000e-01    5.375000e+00
  SN2r   TQ1  1 3.650000e-01    7.387000e+00
  SN1r    Q1  1 4.300000e-01    3.821000e+00
  SN1r   SQ1  1 4.100000e-01    5.084000e+00
  SN1r   TQ1  1 3.650000e-01    7.030000e+00
  SC6r    Q1  1 4.300000e-01    3.800000e+00
  SC6r   SQ1  1 4.100000e-01    4.977000e+00
  SC6r   TQ1  1 3.650000e-01    6.806000e+00
  SC5r    Q1  1 4.300000e-01    3.323000e+00
  SC5r   SQ1  1 4.100000e-01    4.398000e+00
  SC5r   TQ1  1 3.650000e-01    6.192000e+00
  SC4r    Q1  1 4.300000e-01    3.147000e+00
  SC4r   SQ1  1 4.100000e-01    4.114000e+00
  SC4r   TQ1  1 3.650000e-01    5.751000e+00
  SC3r    Q1  1 4.300000e-01    2.862000e+00
  SC3r   SQ1  1 4.100000e-01    3.728000e+00
  SC3r   TQ1  1 3.660000e-01    5.118000e+00
  SC2r    Q1  1 4.430000e-01    1.767000e+00
  SC2r   SQ1  1 4.210000e-01    2.716000e+00
  SC2r   TQ1  1 4.230000e-01    3.696000e+00
  SC1r    Q1  1 4.430000e-01    1.715000e+00
  SC1r   SQ1  1 4.210000e-01    2.448000e+00
  SC1r   TQ1  1 4.230000e-01    3.201000e+00
  SX4r    Q1  1 4.300000e-01    3.352000e+00
  SX4r   SQ1  1 4.100000e-01    4.548000e+00
  SX4r   TQ1  1 3.650000e-01    6.505000e+00
  SX3r    Q1  1 4.300000e-01    3.340000e+00
  SX3r   SQ1  1 4.100000e-01    4.487000e+00
  SX3r   TQ1  1 3.650000e-01    6.376000e+00
  SX2r    Q1  1 4.300000e-01    3.161000e+00
  SX2r   SQ1  1 4.100000e-01    4.189000e+00
  SX2r   TQ1  1 3.650000e-01    5.907000e+00
  SX1r    Q1  1 4.300000e-01    2.862000e+00
  SX1r   SQ1  1 4.100000e-01    3.728000e+00
  SX1r   TQ1  1 3.660000e-01    5.118000e+00
 SP6dr    Q1  1 4.300000e-01    4.237000e+00
 SP6dr   SQ1  1 4.100000e-01    5.683000e+00
 SP6dr   TQ1  1 3.650000e-01    7.791000e+00
 SP5dr    Q1  1 4.300000e-01    4.441000e+00
 SP5dr   SQ1  1 4.100000e-01    5.946000e+00
 SP5dr   TQ1  1 3.650000e-01    8.108000e+00
 SP4dr    Q1  1 4.300000e-01    4.444000e+00
 SP4dr   SQ1  1 4.100000e-01    5.961000e+00
 SP4dr   TQ1  1 3.650000e-01    8.139000e+00
 SP3dr    Q1  1 4.300000e-01    4.444000e+00
 SP3dr   SQ1  1 4.100000e-01    5.961000e+00
 SP3dr   TQ1  1 3.650000e-01    8.140000e+00
 SP2dr    Q1  1 4.300000e-01    4.444000e+00
 SP2dr   SQ1  1 4.100000e-01    5.958000e+00
 SP2dr   TQ1  1 3.650000e-01    8.133000e+00
 SP1dr    Q1  1 4.300000e-01    4.443000e+00
 SP1dr   SQ1  1 4.100000e-01    5.953000e+00
 SP1dr   TQ1  1 3.650000e-01    8.123000e+00
 SN6dr    Q1  1 4.300000e-01    4.441000e+00
 SN6dr   SQ1  1 4.100000e-01    5.946000e+00
 SN6dr   TQ1  1 3.650000e-01    8.108000e+00
 SN5dr    Q1  1 4.300000e-01    4.239000e+00
 SN5dr   SQ1  1 4.100000e-01    5.694000e+00
 SN5dr   TQ1  1 3.650000e-01    7.814000e+00
 SN4dr    Q1  1 4.300000e-01    4.236000e+00
 SN4dr   SQ1  1 4.100000e-01    5.678000e+00
 SN4dr   TQ1  1 3.650000e-01    7.779000e+00
 SN3dr    Q1  1 4.300000e-01    4.231000e+00
 SN3dr   SQ1  1 4.100000e-01    5.653000e+00
 SN3dr   TQ1  1 3.650000e-01    7.727000e+00
 SN2dr    Q1  1 4.300000e-01    4.043000e+00
 SN2dr   SQ1  1 4.100000e-01    5.375000e+00
 SN2dr   TQ1  1 3.650000e-01    7.387000e+00
 SN1dr    Q1  1 4.300000e-01    3.821000e+00
 SN1dr   SQ1  1 4.100000e-01    5.084000e+00
 SN1dr   TQ1  1 3.650000e-01    7.030000e+00
 SP6ar    Q1  1 4.300000e-01    4.237000e+00
 SP6ar   SQ1  1 4.100000e-01    5.683000e+00
 SP6ar   TQ1  1 3.650000e-01    7.791000e+00
 SP5ar    Q1  1 4.300000e-01    4.441000e+00
 SP5ar   SQ1  1 4.100000e-01    5.946000e+00
 SP5ar   TQ1  1 3.650000e-01    8.108000e+00
 SP4ar    Q1  1 4.300000e-01    4.444000e+00
 SP4ar   SQ1  1 4.100000e-01    5.961000e+00
 SP4ar   TQ1  1 3.650000e-01    8.139000e+00
 SP3ar    Q1  1 4.300000e-01    4.444000e+00
 SP3ar   SQ1  1 4.100000e-01    5.961000e+00
 SP3ar   TQ1  1 3.650000e-01    8.140000e+00
 SP2ar    Q1  1 4.300000e-01    4.444000e+00
 SP2ar   SQ1  1 4.100000e-01    5.958000e+00
 SP2ar   TQ1  1 3.650000e-01    8.133000e+00
 SP1ar    Q1  1 4.300000e-01    4.443000e+00
 SP1ar   SQ1  1 4.100000e-01    5.953000e+00
 SP1ar   TQ1  1 3.650000e-01    8.123000e+00
 SN6ar    Q1  1 4.300000e-01    4.441000e+00
 SN6ar   SQ1  1 4.100000e-01    5.946000e+00
 SN6ar   TQ1  1 3.650000e-01    8.108000e+00
 SN5ar    Q1  1 4.300000e-01    4.239000e+00
 SN5ar   SQ1  1 4.100000e-01    5.694000e+00
 SN5ar   TQ1  1 3.650000e-01    7.814000e+00
 SN4ar    Q1  1 4.300000e-01    4.236000e+00
 SN4ar   SQ1  1 4.100000e-01    5.678000e+00
 SN4ar   TQ1  1 3.650000e-01    7.779000e+00
 SN3ar    Q1  1 4.300000e-01    4.231000e+00
 SN3ar   SQ1  1 4.100000e-01    5.653000e+00
 SN3ar   TQ1  1 3.650000e-01    7.727000e+00
 SN2ar    Q1  1 4.300000e-01    4.043000e+00
 SN2ar   SQ1  1 4.100000e-01    5.375000e+00
 SN2ar   TQ1  1 3.650000e-01    7.387000e+00
 SN1ar    Q1  1 4.300000e-01    3.821000e+00
 SN1ar   SQ1  1 4.100000e-01    5.084000e+00
 SN1ar   TQ1  1 3.650000e-01    7.030000e+00
 SC6vr    Q1  1 4.300000e-01    4.010000e+00
 SC6vr   SQ1  1 4.100000e-01    5.207000e+00
 SC6vr   TQ1  1 3.650000e-01    7.036000e+00
 SC5vr    Q1  1 4.300000e-01    3.563000e+00
 SC5vr   SQ1  1 4.100000e-01    4.648000e+00
 SC5vr   TQ1  1 3.650000e-01    6.392000e+00
 SC4vr    Q1  1 4.300000e-01    3.297000e+00
 SC4vr   SQ1  1 4.100000e-01    4.264000e+00
 SC4vr   TQ1  1 3.650000e-01    5.911000e+00
 SC3vr    Q1  1 4.300000e-01    3.102000e+00
 SC3vr   SQ1  1 4.100000e-01    3.888000e+00
 SC3vr   TQ1  1 3.650000e-01    5.278000e+00
 SC2vr    Q1  1 4.300000e-01    2.026000e+00
 SC2vr   SQ1  1 4.180000e-01    2.876000e+00
 SC2vr   TQ1  1 4.090000e-01    3.888000e+00
 SC1vr    Q1  1 4.300000e-01    1.972000e+00
 SC1vr   SQ1  1 4.180000e-01    2.607000e+00
 SC1vr   TQ1  1 4.090000e-01    3.376000e+00
 SX4vr    Q1  1 4.300000e-01    3.592000e+00
 SX4vr   SQ1  1 4.100000e-01    4.798000e+00
 SX4vr   TQ1  1 3.650000e-01    6.705000e+00
 SX3vr    Q1  1 4.300000e-01    3.580000e+00
 SX3vr   SQ1  1 4.100000e-01    4.737000e+00
 SX3vr   TQ1  1 3.650000e-01    6.576000e+00
 SX2vr    Q1  1 4.300000e-01    3.311000e+00
 SX2vr   SQ1  1 4.100000e-01    4.339000e+00
 SX2vr   TQ1  1 3.650000e-01    6.067000e+00
 SX1vr    Q1  1 4.300000e-01    3.102000e+00
 SX1vr   SQ1  1 4.100000e-01    3.888000e+00
 SX1vr   TQ1  1 3.650000e-01    5.278000e+00
 SC6er    Q1  1 4.300000e-01    4.010000e+00
 SC6er   SQ1  1 4.100000e-01    5.207000e+00
 SC6er   TQ1  1 3.650000e-01    7.036000e+00
 SC5er    Q1  1 4.300000e-01    3.563000e+00
 SC5er   SQ1  1 4.100000e-01    4.648000e+00
 SC5er   TQ1  1 3.650000e-01    6.392000e+00
 SC4er    Q1  1 4.300000e-01    3.297000e+00
 SC4er   SQ1  1 4.100000e-01    4.264000e+00
 SC4er   TQ1  1 3.650000e-01    5.911000e+00
 SC3er    Q1  1 4.300000e-01    3.102000e+00
 SC3er   SQ1  1 4.100000e-01    3.888000e+00
 SC3er   TQ1  1 3.650000e-01    5.278000e+00
 SC2er    Q1  1 4.300000e-01    2.026000e+00
 SC2er   SQ1  1 4.180000e-01    2.876000e+00
 SC2er   TQ1  1 4.090000e-01    3.888000e+00
 SC1er    Q1  1 4.300000e-01    1.972000e+00
 SC1er   SQ1  1 4.180000e-01    2.607000e+00
 SC1er   TQ1  1 4.090000e-01    3.376000e+00
 SX4er    Q1  1 4.300000e-01    3.592000e+00
 SX4er   SQ1  1 4.100000e-01    4.798000e+00
 SX4er   TQ1  1 3.650000e-01    6.705000e+00
 SX3er    Q1  1 4.300000e-01    3.580000e+00
 SX3er   SQ1  1 4.100000e-01    4.737000e+00
 SX3er   TQ1  1 3.650000e-01    6.576000e+00
 SX2er    Q1  1 4.300000e-01    3.311000e+00
 SX2er   SQ1  1 4.100000e-01    4.339000e+00
 SX2er   TQ1  1 3.650000e-01    6.067000e+00
 SX1er    Q1  1 4.300000e-01    3.102000e+00
 SX1er   SQ1  1 4.100000e-01    3.888000e+00
 SX1er   TQ1  1 3.650000e-01    5.278000e+00
   TP6    Q1  1 3.950000e-01    3.572000e+00
   TP6   SQ1  1 3.650000e-01    4.927000e+00
   TP6   TQ1  1 3.400000e-01    7.114000e+00
   TP5    Q1  1 3.950000e-01    3.820000e+00
   TP5   SQ1  1 3.650000e-01    5.240000e+00
   TP5   TQ1  1 3.400000e-01    7.448000e+00
   TP4    Q1  1 3.950000e-01    3.827000e+00
   TP4   SQ1  1 3.650000e-01    5.279000e+00
   TP4   TQ1  1 3.400000e-01    7.533000e+00
   TP3    Q1  1 3.950000e-01    3.830000e+00
   TP3   SQ1  1 3.650000e-01    5.294000e+00
   TP3   TQ1  1 3.400000e-01    7.566000e+00
   TP2    Q1  1 3.950000e-01    3.831000e+00
   TP2   SQ1  1 3.650000e-01    5.300000e+00
   TP2   TQ1  1 3.400000e-01    7.580000e+00
   TP1    Q1  1 3.950000e-01    3.831000e+00
   TP1   SQ1  1 3.650000e-01    5.302000e+00
   TP1   TQ1  1 3.400000e-01    7.585000e+00
   TN6    Q1  1 3.950000e-01    3.831000e+00
   TN6   SQ1  1 3.650000e-01    5.303000e+00
   TN6   TQ1  1 3.400000e-01    7.586000e+00
   TN5    Q1  1 3.950000e-01    3.591000e+00
   TN5   SQ1  1 3.650000e-01    5.030000e+00
   TN5   TQ1  1 3.400000e-01    7.341000e+00
   TN4    Q1  1 3.950000e-01    3.590000e+00
   TN4   SQ1  1 3.650000e-01    5.024000e+00
   TN4   TQ1  1 3.400000e-01    7.326000e+00
   TN3    Q1  1 3.950000e-01    3.587000e+00
   TN3   SQ1  1 3.650000e-01    5.011000e+00
   TN3   TQ1  1 3.400000e-01    7.298000e+00
   TN2    Q1  1 3.950000e-01    3.333000e+00
   TN2   SQ1  1 3.650000e-01    4.728000e+00
   TN2   TQ1  1 3.400000e-01    7.028000e+00
   TN1    Q1  1 3.950000e-01    3.086000e+00
   TN1   SQ1  1 3.650000e-01    4.458000e+00
   TN1   TQ1  1 3.400000e-01    6.679000e+00
   TC6    Q1  1 3.950000e-01    3.072000e+00
   TC6   SQ1  1 3.650000e-01    4.382000e+00
   TC6   TQ1  1 3.400000e-01    6.512000e+00
   TC5    Q1  1 3.950000e-01    2.670000e+00
   TC5   SQ1  1 3.650000e-01    3.887000e+00
   TC5   TQ1  1 3.400000e-01    5.860000e+00
   TC4    Q1  1 3.950000e-01    2.452000e+00
   TC4   SQ1  1 3.650000e-01    3.627000e+00
   TC4   TQ1  1 3.400000e-01    5.360000e+00
   TC3    Q1  1 3.950000e-01    2.161000e+00
   TC3   SQ1  1 3.660000e-01    3.302000e+00
   TC3   TQ1  1 3.520000e-01    4.676000e+00
   TC2    Q1  1 4.040000e-01    1.109000e+00
   TC2   SQ1  1 4.230000e-01    2.334000e+00
   TC2   TQ1  1 4.380000e-01    3.408000e+00
   TC1    Q1  1 4.040000e-01    1.072000e+00
   TC1   SQ1  1 4.230000e-01    2.152000e+00
   TC1   TQ1  1 4.380000e-01    3.049000e+00
   TX4    Q1  1 3.950000e-01    2.690000e+00
   TX4   SQ1  1 3.650000e-01    3.996000e+00
   TX4   TQ1  1 3.400000e-01    6.100000e+00
   TX3    Q1  1 3.950000e-01    2.682000e+00
   TX3   SQ1  1 3.650000e-01    3.952000e+00
   TX3   TQ1  1 3.400000e-01    6.002000e+00
   TX2    Q1  1 3.950000e-01    2.462000e+00
   TX2   SQ1  1 3.650000e-01    3.683000e+00
   TX2   TQ1  1 3.400000e-01    5.483000e+00
   TX1    Q1  1 3.950000e-01    2.161000e+00
   TX1   SQ1  1 3.660000e-01    3.302000e+00
   TX1   TQ1  1 3.520000e-01    4.676000e+00
  TP6d    Q1  1 3.950000e-01    3.572000e+00
  TP6d   SQ1  1 3.650000e-01    4.927000e+00
  TP6d   TQ1  1 3.400000e-01    7.114000e+00
  TP5d    Q1  1 3.950000e-01    3.820000e+00
  TP5d   SQ1  1 3.650000e-01    5.240000e+00
  TP5d   TQ1  1 3.400000e-01    7.448000e+00
  TP4d    Q1  1 3.950000e-01    3.827000e+00
  TP4d   SQ1  1 3.650000e-01    5.279000e+00
  TP4d   TQ1  1 3.400000e-01    7.533000e+00
  TP3d    Q1  1 3.950000e-01    3.830000e+00
  TP3d   SQ1  1 3.650000e-01    5.294000e+00
  TP3d   TQ1  1 3.400000e-01    7.566000e+00
  TP2d    Q1  1 3.950000e-01    3.831000e+00
  TP2d   SQ1  1 3.650000e-01    5.300000e+00
  TP2d   TQ1  1 3.400000e-01    7.580000e+00
  TP1d    Q1  1 3.950000e-01    3.831000e+00
  TP1d   SQ1  1 3.650000e-01    5.302000e+00
  TP1d   TQ1  1 3.400000e-01    7.585000e+00
  TN6d    Q1  1 3.950000e-01    3.831000e+00
  TN6d   SQ1  1 3.650000e-01    5.303000e+00
  TN6d   TQ1  1 3.400000e-01    7.586000e+00
  TN5d    Q1  1 3.950000e-01    3.591000e+00
  TN5d   SQ1  1 3.650000e-01    5.030000e+00
  TN5d   TQ1  1 3.400000e-01    7.341000e+00
  TN4d    Q1  1 3.950000e-01    3.590000e+00
  TN4d   SQ1  1 3.650000e-01    5.024000e+00
  TN4d   TQ1  1 3.400000e-01    7.326000e+00
  TN3d    Q1  1 3.950000e-01    3.587000e+00
  TN3d   SQ1  1 3.650000e-01    5.011000e+00
  TN3d   TQ1  1 3.400000e-01    7.298000e+00
  TN2d    Q1  1 3.950000e-01    3.333000e+00
  TN2d   SQ1  1 3.650000e-01    4.728000e+00
  TN2d   TQ1  1 3.400000e-01    7.028000e+00
  TN1d    Q1  1 3.950000e-01    3.086000e+00
  TN1d   SQ1  1 3.650000e-01    4.458000e+00
  TN1d   TQ1  1 3.400000e-01    6.679000e+00
  TP6a    Q1  1 3.950000e-01    3.572000e+00
  TP6a   SQ1  1 3.650000e-01    4.927000e+00
  TP6a   TQ1  1 3.400000e-01    7.114000e+00
  TP5a    Q1  1 3.950000e-01    3.820000e+00
  TP5a   SQ1  1 3.650000e-01    5.240000e+00
  TP5a   TQ1  1 3.400000e-01    7.448000e+00
  TP4a    Q1  1 3.950000e-01    3.827000e+00
  TP4a   SQ1  1 3.650000e-01    5.279000e+00
  TP4a   TQ1  1 3.400000e-01    7.533000e+00
  TP3a    Q1  1 3.950000e-01    3.830000e+00
  TP3a   SQ1  1 3.650000e-01    5.294000e+00
  TP3a   TQ1  1 3.400000e-01    7.566000e+00
  TP2a    Q1  1 3.950000e-01    3.831000e+00
  TP2a   SQ1  1 3.650000e-01    5.300000e+00
  TP2a   TQ1  1 3.400000e-01    7.580000e+00
  TP1a    Q1  1 3.950000e-01    3.831000e+00
  TP1a   SQ1  1 3.650000e-01    5.302000e+00
  TP1a   TQ1  1 3.400000e-01    7.585000e+00
  TN6a    Q1  1 3.950000e-01    3.831000e+00
  TN6a   SQ1  1 3.650000e-01    5.303000e+00
  TN6a   TQ1  1 3.400000e-01    7.586000e+00
  TN5a    Q1  1 3.950000e-01    3.591000e+00
  TN5a   SQ1  1 3.650000e-01    5.030000e+00
  TN5a   TQ1  1 3.400000e-01    7.341000e+00
  TN4a    Q1  1 3.950000e-01    3.590000e+00
  TN4a   SQ1  1 3.650000e-01    5.024000e+00
  TN4a   TQ1  1 3.400000e-01    7.326000e+00
  TN3a    Q1  1 3.950000e-01    3.587000e+00
  TN3a   SQ1  1 3.650000e-01    5.011000e+00
  TN3a   TQ1  1 3.400000e-01    7.298000e+00
  TN2a    Q1  1 3.950000e-01    3.333000e+00
  TN2a   SQ1  1 3.650000e-01    4.728000e+00
  TN2a   TQ1  1 3.400000e-01    7.028000e+00
  TN1a    Q1  1 3.950000e-01    3.086000e+00
  TN1a   SQ1  1 3.650000e-01    4.458000e+00
  TN1a   TQ1  1 3.400000e-01    6.679000e+00
  TC6v    Q1  1 3.950000e-01    3.312000e+00
  TC6v   SQ1  1 3.650000e-01    4.612000e+00
  TC6v   TQ1  1 3.400000e-01    6.772000e+00
  TC5v    Q1  1 3.950000e-01    2.860000e+00
  TC5v   SQ1  1 3.650000e-01    4.087000e+00
  TC5v   TQ1  1 3.400000e-01    6.120000e+00
  TC4v    Q1  1 3.950000e-01    2.652000e+00
  TC4v   SQ1  1 3.650000e-01    3.787000e+00
  TC4v   TQ1  1 3.400000e-01    5.640000e+00
  TC3v    Q1  1 3.950000e-01    2.421000e+00
  TC3v   SQ1  1 3.650000e-01    3.456000e+00
  TC3v   TQ1  1 3.400000e-01    4.984000e+00
  TC2v    Q1  1 4.010000e-01    1.264000e+00
  TC2v   SQ1  1 4.090000e-01    2.479000e+00
  TC2v   TQ1  1 4.240000e-01    3.541000e+00
  TC1v    Q1  1 4.010000e-01    1.227000e+00
  TC1v   SQ1  1 4.090000e-01    2.291000e+00
  TC1v   TQ1  1 4.240000e-01    3.171000e+00
  TX4v    Q1  1 3.950000e-01    2.880000e+00
  TX4v   SQ1  1 3.650000e-01    4.196000e+00
  TX4v   TQ1  1 3.400000e-01    6.360000e+00
  TX3v    Q1  1 3.950000e-01    2.872000e+00
  TX3v   SQ1  1 3.650000e-01    4.152000e+00
  TX3v   TQ1  1 3.400000e-01    6.262000e+00
  TX2v    Q1  1 3.950000e-01    2.662000e+00
  TX2v   SQ1  1 3.650000e-01    3.843000e+00
  TX2v   TQ1  1 3.400000e-01    5.763000e+00
  TX1v    Q1  1 3.950000e-01    2.421000e+00
  TX1v   SQ1  1 3.650000e-01    3.456000e+00
  TX1v   TQ1  1 3.400000e-01    4.984000e+00
  TC6e    Q1  1 3.950000e-01    3.312000e+00
  TC6e   SQ1  1 3.650000e-01    4.612000e+00
  TC6e   TQ1  1 3.400000e-01    6.772000e+00
  TC5e    Q1  1 3.950000e-01    2.860000e+00
  TC5e   SQ1  1 3.650000e-01    4.087000e+00
  TC5e   TQ1  1 3.400000e-01    6.120000e+00
  TC4e    Q1  1 3.950000e-01    2.652000e+00
  TC4e   SQ1  1 3.650000e-01    3.787000e+00
  TC4e   TQ1  1 3.400000e-01    5.640000e+00
  TC3e    Q1  1 3.950000e-01    2.421000e+00
  TC3e   SQ1  1 3.650000e-01    3.456000e+00
  TC3e   TQ1  1 3.400000e-01    4.984000e+00
  TC2e    Q1  1 4.010000e-01    1.264000e+00
  TC2e   SQ1  1 4.090000e-01    2.479000e+00
  TC2e   TQ1  1 4.240000e-01    3.541000e+00
  TC1e    Q1  1 4.010000e-01    1.227000e+00
  TC1e   SQ1  1 4.090000e-01    2.291000e+00
  TC1e   TQ1  1 4.240000e-01    3.171000e+00
  TX4e    Q1  1 3.950000e-01    2.880000e+00
  TX4e   SQ1  1 3.650000e-01    4.196000e+00
  TX4e   TQ1  1 3.400000e-01    6.360000e+00
  TX3e    Q1  1 3.950000e-01    2.872000e+00
  TX3e   SQ1  1 3.650000e-01    4.152000e+00
  TX3e   TQ1  1 3.400000e-01    6.262000e+00
  TX2e    Q1  1 3.950000e-01    2.662000e+00
  TX2e   SQ1  1 3.650000e-01    3.843000e+00
  TX2e   TQ1  1 3.400000e-01    5.763000e+00
  TX1e    Q1  1 3.950000e-01    2.421000e+00
  TX1e   SQ1  1 3.650000e-01    3.456000e+00
  TX1e   TQ1  1 3.400000e-01    4.984000e+00
  TP6q    Q1  1 3.950000e-01    4.292000e+00
  TP6q   SQ1  1 3.650000e-01    5.737000e+00
  TP6q   TQ1  1 3.400000e-01    7.834000e+00
  TP5q    Q1  1 3.950000e-01    4.620000e+00
  TP5q   SQ1  1 3.650000e-01    6.070000e+00
  TP5q   TQ1  1 3.400000e-01    8.178000e+00
  TP4q    Q1  1 3.950000e-01    4.627000e+00
  TP4q   SQ1  1 3.650000e-01    6.109000e+00
  TP4q   TQ1  1 3.400000e-01    8.263000e+00
  TP3q    Q1  1 3.950000e-01    4.630000e+00
  TP3q   SQ1  1 3.650000e-01    6.124000e+00
  TP3q   TQ1  1 3.400000e-01    8.296000e+00
  TP2q    Q1  1 3.950000e-01    4.631000e+00
  TP2q   SQ1  1 3.650000e-01    6.130000e+00
  TP2q   TQ1  1 3.400000e-01    8.310000e+00
  TP1q    Q1  1 3.950000e-01    4.631000e+00
  TP1q   SQ1  1 3.650000e-01    6.132000e+00
  TP1q   TQ1  1 3.400000e-01    8.315000e+00
  TN6q    Q1  1 3.950000e-01    4.631000e+00
  TN6q   SQ1  1 3.650000e-01    6.133000e+00
  TN6q   TQ1  1 3.400000e-01    8.316000e+00
  TN5q    Q1  1 3.950000e-01    4.311000e+00
  TN5q   SQ1  1 3.650000e-01    5.840000e+00
  TN5q   TQ1  1 3.400000e-01    8.061000e+00
  TN4q    Q1  1 3.950000e-01    4.310000e+00
  TN4q   SQ1  1 3.650000e-01    5.834000e+00
  TN4q   TQ1  1 3.400000e-01    8.046000e+00
  TN3q    Q1  1 3.950000e-01    4.307000e+00
  TN3q   SQ1  1 3.650000e-01    5.821000e+00
  TN3q   TQ1  1 3.400000e-01    8.018000e+00
  TN2q    Q1  1 3.950000e-01    4.063000e+00
  TN2q   SQ1  1 3.650000e-01    5.528000e+00
  TN2q   TQ1  1 3.400000e-01    7.738000e+00
  TN1q    Q1  1 3.950000e-01    3.816000e+00
  TN1q   SQ1  1 3.650000e-01    5.218000e+00
  TN1q   TQ1  1 3.400000e-01    7.399000e+00
  TC6q    Q1  1 3.950000e-01    3.802000e+00
  TC6q   SQ1  1 3.650000e-01    5.142000e+00
  TC6q   TQ1  1 3.400000e-01    7.232000e+00
  TC5q    Q1  1 3.950000e-01    3.300000e+00
  TC5q   SQ1  1 3.650000e-01    4.547000e+00
  TC5q   TQ1  1 3.400000e-01    6.630000e+00
  TC4q    Q1  1 3.950000e-01    3.042000e+00
  TC4q   SQ1  1 3.650000e-01    4.217000e+00
  TC4q   TQ1  1 3.400000e-01    6.150000e+00
  TC3q    Q1  1 3.950000e-01    2.811000e+00
  TC3q   SQ1  1 3.650000e-01    3.816000e+00
  TC3q   TQ1  1 3.400000e-01    5.524000e+00
  TC2q    Q1  1 3.980000e-01    1.733000e+00
  TC2q   SQ1  1 3.940000e-01    2.742000e+00
  TC2q   TQ1  1 3.850000e-01    3.900000e+00
  TC1q    Q1  1 3.980000e-01    1.695000e+00
  TC1q   SQ1  1 3.940000e-01    2.548000e+00
  TC1q   TQ1  1 3.850000e-01    3.492000e+00
  TX4q    Q1  1 3.950000e-01    3.320000e+00
  TX4q   SQ1  1 3.650000e-01    4.656000e+00
  TX4q   TQ1  1 3.400000e-01    6.870000e+00
  TX3q    Q1  1 3.950000e-01    3.312000e+00
  TX3q   SQ1  1 3.650000e-01    4.612000e+00
  TX3q   TQ1  1 3.400000e-01    6.772000e+00
  TX2q    Q1  1 3.950000e-01    3.052000e+00
  TX2q   SQ1  1 3.650000e-01    4.273000e+00
  TX2q   TQ1  1 3.400000e-01    6.273000e+00
  TX1q    Q1  1 3.950000e-01    2.811000e+00
  TX1q   SQ1  1 3.650000e-01    3.816000e+00
  TX1q   TQ1  1 3.400000e-01    5.524000e+00
 TP6dq    Q1  1 3.950000e-01    4.292000e+00
 TP6dq   SQ1  1 3.650000e-01    5.737000e+00
 TP6dq   TQ1  1 3.400000e-01    7.834000e+00
 TP5dq    Q1  1 3.950000e-01    4.620000e+00
 TP5dq   SQ1  1 3.650000e-01    6.070000e+00
 TP5dq   TQ1  1 3.400000e-01    8.178000e+00
 TP4dq    Q1  1 3.950000e-01    4.627000e+00
 TP4dq   SQ1  1 3.650000e-01    6.109000e+00
 TP4dq   TQ1  1 3.400000e-01    8.263000e+00
 TP3dq    Q1  1 3.950000e-01    4.630000e+00
 TP3dq   SQ1  1 3.650000e-01    6.124000e+00
 TP3dq   TQ1  1 3.400000e-01    8.296000e+00
 TP2dq    Q1  1 3.950000e-01    4.631000e+00
 TP2dq   SQ1  1 3.650000e-01    6.130000e+00
 TP2dq   TQ1  1 3.400000e-01    8.310000e+00
 TP1dq    Q1  1 3.950000e-01    4.631000e+00
 TP1dq   SQ1  1 3.650000e-01    6.132000e+00
 TP1dq   TQ1  1 3.400000e-01    8.315000e+00
 TN6dq    Q1  1 3.950000e-01    4.631000e+00
 TN6dq   SQ1  1 3.650000e-01    6.133000e+00
 TN6dq   TQ1  1 3.400000e-01    8.316000e+00
 TN5dq    Q1  1 3.950000e-01    4.311000e+00
 TN5dq   SQ1  1 3.650000e-01    5.840000e+00
 TN5dq   TQ1  1 3.400000e-01    8.061000e+00
 TN4dq    Q1  1 3.950000e-01    4.310000e+00
 TN4dq   SQ1  1 3.650000e-01    5.834000e+00
 TN4dq   TQ1  1 3.400000e-01    8.046000e+00
 TN3dq    Q1  1 3.950000e-01    4.307000e+00
 TN3dq   SQ1  1 3.650000e-01    5.821000e+00
 TN3dq   TQ1  1 3.400000e-01    8.018000e+00
 TN2dq    Q1  1 3.950000e-01    4.063000e+00
 TN2dq   SQ1  1 3.650000e-01    5.528000e+00
 TN2dq   TQ1  1 3.400000e-01    7.738000e+00
 TN1dq    Q1  1 3.950000e-01    3.816000e+00
 TN1dq   SQ1  1 3.650000e-01    5.218000e+00
 TN1dq   TQ1  1 3.400000e-01    7.399000e+00
 TP6aq    Q1  1 3.950000e-01    4.292000e+00
 TP6aq   SQ1  1 3.650000e-01    5.737000e+00
 TP6aq   TQ1  1 3.400000e-01    7.834000e+00
 TP5aq    Q1  1 3.950000e-01    4.620000e+00
 TP5aq   SQ1  1 3.650000e-01    6.070000e+00
 TP5aq   TQ1  1 3.400000e-01    8.178000e+00
 TP4aq    Q1  1 3.950000e-01    4.627000e+00
 TP4aq   SQ1  1 3.650000e-01    6.109000e+00
 TP4aq   TQ1  1 3.400000e-01    8.263000e+00
 TP3aq    Q1  1 3.950000e-01    4.630000e+00
 TP3aq   SQ1  1 3.650000e-01    6.124000e+00
 TP3aq   TQ1  1 3.400000e-01    8.296000e+00
 TP2aq    Q1  1 3.950000e-01    4.631000e+00
 TP2aq   SQ1  1 3.650000e-01    6.130000e+00
 TP2aq   TQ1  1 3.400000e-01    8.310000e+00
 TP1aq    Q1  1 3.950000e-01    4.631000e+00
 TP1aq   SQ1  1 3.650000e-01    6.132000e+00
 TP1aq   TQ1  1 3.400000e-01    8.315000e+00
 TN6aq    Q1  1 3.950000e-01    4.631000e+00
 TN6aq   SQ1  1 3.650000e-01    6.133000e+00
 TN6aq   TQ1  1 3.400000e-01    8.316000e+00
 TN5aq    Q1  1 3.950000e-01    4.311000e+00
 TN5aq   SQ1  1 3.650000e-01    5.840000e+00
 TN5aq   TQ1  1 3.400000e-01    8.061000e+00
 TN4aq    Q1  1 3.950000e-01    4.310000e+00
 TN4aq   SQ1  1 3.650000e-01    5.834000e+00
 TN4aq   TQ1  1 3.400000e-01    8.046000e+00
 TN3aq    Q1  1 3.950000e-01    4.307000e+00
 TN3aq   SQ1  1 3.650000e-01    5.821000e+00
 TN3aq   TQ1  1 3.400000e-01    8.018000e+00
 TN2aq    Q1  1 3.950000e-01    4.063000e+00
 TN2aq   SQ1  1 3.650000e-01    5.528000e+00
 TN2aq   TQ1  1 3.400000e-01    7.738000e+00
 TN1aq    Q1  1 3.950000e-01    3.816000e+00
 TN1aq   SQ1  1 3.650000e-01    5.218000e+00
 TN1aq   TQ1  1 3.400000e-01    7.399000e+00
 TC6vq    Q1  1 3.950000e-01    4.042000e+00
 TC6vq   SQ1  1 3.650000e-01    5.412000e+00
 TC6vq   TQ1  1 3.400000e-01    7.482000e+00
 TC5vq    Q1  1 3.950000e-01    3.550000e+00
 TC5vq   SQ1  1 3.650000e-01    4.807000e+00
 TC5vq   TQ1  1 3.400000e-01    6.850000e+00
 TC4vq    Q1  1 3.950000e-01    3.282000e+00
 TC4vq   SQ1  1 3.650000e-01    4.447000e+00
 TC4vq   TQ1  1 3.400000e-01    6.410000e+00
 TC3vq    Q1  1 3.950000e-01    3.011000e+00
 TC3vq   SQ1  1 3.650000e-01    4.046000e+00
 TC3vq   TQ1  1 3.400000e-01    5.774000e+00
 TC2vq    Q1  1 3.950000e-01    1.956000e+00
 TC2vq   SQ1  1 3.780000e-01    2.964000e+00
 TC2vq   TQ1  1 3.660000e-01    4.138000e+00
 TC1vq    Q1  1 3.950000e-01    1.917000e+00
 TC1vq   SQ1  1 3.780000e-01    2.761000e+00
 TC1vq   TQ1  1 3.660000e-01    3.709000e+00
 TX4vq    Q1  1 3.950000e-01    3.570000e+00
 TX4vq   SQ1  1 3.650000e-01    4.916000e+00
 TX4vq   TQ1  1 3.400000e-01    7.090000e+00
 TX3vq    Q1  1 3.950000e-01    3.562000e+00
 TX3vq   SQ1  1 3.650000e-01    4.872000e+00
 TX3vq   TQ1  1 3.400000e-01    6.992000e+00
 TX2vq    Q1  1 3.950000e-01    3.292000e+00
 TX2vq   SQ1  1 3.650000e-01    4.503000e+00
 TX2vq   TQ1  1 3.400000e-01    6.533000e+00
 TX1vq    Q1  1 3.950000e-01    3.011000e+00
 TX1vq   SQ1  1 3.650000e-01    4.046000e+00
 TX1vq   TQ1  1 3.400000e-01    5.774000e+00
 TC6eq    Q1  1 3.950000e-01    4.042000e+00
 TC6eq   SQ1  1 3.650000e-01    5.412000e+00
 TC6eq   TQ1  1 3.400000e-01    7.482000e+00
 TC5eq    Q1  1 3.950000e-01    3.550000e+00
 TC5eq   SQ1  1 3.650000e-01    4.807000e+00
 TC5eq   TQ1  1 3.400000e-01    6.850000e+00
 TC4eq    Q1  1 3.950000e-01    3.282000e+00
 TC4eq   SQ1  1 3.650000e-01    4.447000e+00
 TC4eq   TQ1  1 3.400000e-01    6.410000e+00
 TC3eq    Q1  1 3.950000e-01    3.011000e+00
 TC3eq   SQ1  1 3.650000e-01    4.046000e+00
 TC3eq   TQ1  1 3.400000e-01    5.774000e+00
 TC2eq    Q1  1 3.950000e-01    1.956000e+00
 TC2eq   SQ1  1 3.780000e-01    2.964000e+00
 TC2eq   TQ1  1 3.660000e-01    4.138000e+00
 TC1eq    Q1  1 3.950000e-01    1.917000e+00
 TC1eq   SQ1  1 3.780000e-01    2.761000e+00
 TC1eq   TQ1  1 3.660000e-01    3.709000e+00
 TX4eq    Q1  1 3.950000e-01    3.570000e+00
 TX4eq   SQ1  1 3.650000e-01    4.916000e+00
 TX4eq   TQ1  1 3.400000e-01    7.090000e+00
 TX3eq    Q1  1 3.950000e-01    3.562000e+00
 TX3eq   SQ1  1 3.650000e-01    4.872000e+00
 TX3eq   TQ1  1 3.400000e-01    6.992000e+00
 TX2eq    Q1  1 3.950000e-01    3.292000e+00
 TX2eq   SQ1  1 3.650000e-01    4.503000e+00
 TX2eq   TQ1  1 3.400000e-01    6.533000e+00
 TX1eq    Q1  1 3.950000e-01    3.011000e+00
 TX1eq   SQ1  1 3.650000e-01    4.046000e+00
 TX1eq   TQ1  1 3.400000e-01    5.774000e+00
  TP6h    Q1  1 3.950000e-01    3.572000e+00
  TP6h   SQ1  1 3.650000e-01    4.927000e+00
  TP6h   TQ1  1 3.400000e-01    7.114000e+00
  TP5h    Q1  1 3.950000e-01    3.820000e+00
  TP5h   SQ1  1 3.650000e-01    5.240000e+00
  TP5h   TQ1  1 3.400000e-01    7.448000e+00
  TP4h    Q1  1 3.950000e-01    3.827000e+00
  TP4h   SQ1  1 3.650000e-01    5.279000e+00
  TP4h   TQ1  1 3.400000e-01    7.533000e+00
  TP3h    Q1  1 3.950000e-01    3.830000e+00
  TP3h   SQ1  1 3.650000e-01    5.294000e+00
  TP3h   TQ1  1 3.400000e-01    7.566000e+00
  TP2h    Q1  1 3.950000e-01    3.831000e+00
  TP2h   SQ1  1 3.650000e-01    5.300000e+00
  TP2h   TQ1  1 3.400000e-01    7.580000e+00
  TP1h    Q1  1 3.950000e-01    3.831000e+00
  TP1h   SQ1  1 3.650000e-01    5.302000e+00
  TP1h   TQ1  1 3.400000e-01    7.585000e+00
  TN6h    Q1  1 3.950000e-01    3.831000e+00
  TN6h   SQ1  1 3.650000e-01    5.303000e+00
  TN6h   TQ1  1 3.400000e-01    7.586000e+00
  TN5h    Q1  1 3.950000e-01    3.591000e+00
  TN5h   SQ1  1 3.650000e-01    5.030000e+00
  TN5h   TQ1  1 3.400000e-01    7.341000e+00
  TN4h    Q1  1 3.950000e-01    3.590000e+00
  TN4h   SQ1  1 3.650000e-01    5.024000e+00
  TN4h   TQ1  1 3.400000e-01    7.326000e+00
  TN3h    Q1  1 3.950000e-01    3.587000e+00
  TN3h   SQ1  1 3.650000e-01    5.011000e+00
  TN3h   TQ1  1 3.400000e-01    7.298000e+00
  TN2h    Q1  1 3.950000e-01    3.333000e+00
  TN2h   SQ1  1 3.650000e-01    4.728000e+00
  TN2h   TQ1  1 3.400000e-01    7.028000e+00
  TN1h    Q1  1 3.950000e-01    3.086000e+00
  TN1h   SQ1  1 3.650000e-01    4.458000e+00
  TN1h   TQ1  1 3.400000e-01    6.679000e+00
  TC6h    Q1  1 3.950000e-01    3.072000e+00
  TC6h   SQ1  1 3.650000e-01    4.382000e+00
  TC6h   TQ1  1 3.400000e-01    6.512000e+00
  TC5h    Q1  1 3.950000e-01    2.670000e+00
  TC5h   SQ1  1 3.650000e-01    3.887000e+00
  TC5h   TQ1  1 3.400000e-01    5.860000e+00
  TC4h    Q1  1 3.950000e-01    2.452000e+00
  TC4h   SQ1  1 3.650000e-01    3.627000e+00
  TC4h   TQ1  1 3.400000e-01    5.360000e+00
  TC3h    Q1  1 3.950000e-01    2.161000e+00
  TC3h   SQ1  1 3.660000e-01    3.302000e+00
  TC3h   TQ1  1 3.520000e-01    4.676000e+00
  TC2h    Q1  1 4.040000e-01    1.109000e+00
  TC2h   SQ1  1 4.230000e-01    2.334000e+00
  TC2h   TQ1  1 4.380000e-01    3.408000e+00
  TC1h    Q1  1 4.040000e-01    1.072000e+00
  TC1h   SQ1  1 4.230000e-01    2.152000e+00
  TC1h   TQ1  1 4.380000e-01    3.049000e+00
  TX4h    Q1  1 3.950000e-01    2.690000e+00
  TX4h   SQ1  1 3.650000e-01    3.996000e+00
  TX4h   TQ1  1 3.400000e-01    6.100000e+00
  TX3h    Q1  1 3.950000e-01    2.682000e+00
  TX3h   SQ1  1 3.650000e-01    3.952000e+00
  TX3h   TQ1  1 3.400000e-01    6.002000e+00
  TX2h    Q1  1 3.950000e-01    2.462000e+00
  TX2h   SQ1  1 3.650000e-01    3.683000e+00
  TX2h   TQ1  1 3.400000e-01    5.483000e+00
  TX1h    Q1  1 3.950000e-01    2.161000e+00
  TX1h   SQ1  1 3.660000e-01    3.302000e+00
  TX1h   TQ1  1 3.520000e-01    4.676000e+00
 TP6dh    Q1  1 3.950000e-01    3.572000e+00
 TP6dh   SQ1  1 3.650000e-01    4.927000e+00
 TP6dh   TQ1  1 3.400000e-01    7.114000e+00
 TP5dh    Q1  1 3.950000e-01    3.820000e+00
 TP5dh   SQ1  1 3.650000e-01    5.240000e+00
 TP5dh   TQ1  1 3.400000e-01    7.448000e+00
 TP4dh    Q1  1 3.950000e-01    3.827000e+00
 TP4dh   SQ1  1 3.650000e-01    5.279000e+00
 TP4dh   TQ1  1 3.400000e-01    7.533000e+00
 TP3dh    Q1  1 3.950000e-01    3.830000e+00
 TP3dh   SQ1  1 3.650000e-01    5.294000e+00
 TP3dh   TQ1  1 3.400000e-01    7.566000e+00
 TP2dh    Q1  1 3.950000e-01    3.831000e+00
 TP2dh   SQ1  1 3.650000e-01    5.300000e+00
 TP2dh   TQ1  1 3.400000e-01    7.580000e+00
 TP1dh    Q1  1 3.950000e-01    3.831000e+00
 TP1dh   SQ1  1 3.650000e-01    5.302000e+00
 TP1dh   TQ1  1 3.400000e-01    7.585000e+00
 TN6dh    Q1  1 3.950000e-01    3.831000e+00
 TN6dh   SQ1  1 3.650000e-01    5.303000e+00
 TN6dh   TQ1  1 3.400000e-01    7.586000e+00
 TN5dh    Q1  1 3.950000e-01    3.591000e+00
 TN5dh   SQ1  1 3.650000e-01    5.030000e+00
 TN5dh   TQ1  1 3.400000e-01    7.341000e+00
 TN4dh    Q1  1 3.950000e-01    3.590000e+00
 TN4dh   SQ1  1 3.650000e-01    5.024000e+00
 TN4dh   TQ1  1 3.400000e-01    7.326000e+00
 TN3dh    Q1  1 3.950000e-01    3.587000e+00
 TN3dh   SQ1  1 3.650000e-01    5.011000e+00
 TN3dh   TQ1  1 3.400000e-01    7.298000e+00
 TN2dh    Q1  1 3.950000e-01    3.333000e+00
 TN2dh   SQ1  1 3.650000e-01    4.728000e+00
 TN2dh   TQ1  1 3.400000e-01    7.028000e+00
 TN1dh    Q1  1 3.950000e-01    3.086000e+00
 TN1dh   SQ1  1 3.650000e-01    4.458000e+00
 TN1dh   TQ1  1 3.400000e-01    6.679000e+00
 TP6ah    Q1  1 3.950000e-01    3.572000e+00
 TP6ah   SQ1  1 3.650000e-01    4.927000e+00
 TP6ah   TQ1  1 3.400000e-01    7.114000e+00
 TP5ah    Q1  1 3.950000e-01    3.820000e+00
 TP5ah   SQ1  1 3.650000e-01    5.240000e+00
 TP5ah   TQ1  1 3.400000e-01    7.448000e+00
 TP4ah    Q1  1 3.950000e-01    3.827000e+00
 TP4ah   SQ1  1 3.650000e-01    5.279000e+00
 TP4ah   TQ1  1 3.400000e-01    7.533000e+00
 TP3ah    Q1  1 3.950000e-01    3.830000e+00
 TP3ah   SQ1  1 3.650000e-01    5.294000e+00
 TP3ah   TQ1  1 3.400000e-01    7.566000e+00
 TP2ah    Q1  1 3.950000e-01    3.831000e+00
 TP2ah   SQ1  1 3.650000e-01    5.300000e+00
 TP2ah   TQ1  1 3.400000e-01    7.580000e+00
 TP1ah    Q1  1 3.950000e-01    3.831000e+00
 TP1ah   SQ1  1 3.650000e-01    5.302000e+00
 TP1ah   TQ1  1 3.400000e-01    7.585000e+00
 TN6ah    Q1  1 3.950000e-01    3.831000e+00
 TN6ah   SQ1  1 3.650000e-01    5.303000e+00
 TN6ah   TQ1  1 3.400000e-01    7.586000e+00
 TN5ah    Q1  1 3.950000e-01    3.591000e+00
 TN5ah   SQ1  1 3.650000e-01    5.030000e+00
 TN5ah   TQ1  1 3.400000e-01    7.341000e+00
 TN4ah    Q1  1 3.950000e-01    3.590000e+00
 TN4ah   SQ1  1 3.650000e-01    5.024000e+00
 TN4ah   TQ1  1 3.400000e-01    7.326000e+00
 TN3ah    Q1  1 3.950000e-01    3.587000e+00
 TN3ah   SQ1  1 3.650000e-01    5.011000e+00
 TN3ah   TQ1  1 3.400000e-01    7.298000e+00
 TN2ah    Q1  1 3.950000e-01    3.333000e+00
 TN2ah   SQ1  1 3.650000e-01    4.728000e+00
 TN2ah   TQ1  1 3.400000e-01    7.028000e+00
 TN1ah    Q1  1 3.950000e-01    3.086000e+00
 TN1ah   SQ1  1 3.650000e-01    4.458000e+00
 TN1ah   TQ1  1 3.400000e-01    6.679000e+00
 TC6vh    Q1  1 3.950000e-01    3.312000e+00
 TC6vh   SQ1  1 3.650000e-01    4.612000e+00
 TC6vh   TQ1  1 3.400000e-01    6.772000e+00
 TC5vh    Q1  1 3.950000e-01    2.860000e+00
 TC5vh   SQ1  1 3.650000e-01    4.087000e+00
 TC5vh   TQ1  1 3.400000e-01    6.120000e+00
 TC4vh    Q1  1 3.950000e-01    2.652000e+00
 TC4vh   SQ1  1 3.650000e-01    3.787000e+00
 TC4vh   TQ1  1 3.400000e-01    5.640000e+00
 TC3vh    Q1  1 3.950000e-01    2.421000e+00
 TC3vh   SQ1  1 3.650000e-01    3.456000e+00
 TC3vh   TQ1  1 3.400000e-01    4.984000e+00
 TC2vh    Q1  1 4.010000e-01    1.264000e+00
 TC2vh   SQ1  1 4.090000e-01    2.479000e+00
 TC2vh   TQ1  1 4.240000e-01    3.541000e+00
 TC1vh    Q1  1 4.010000e-01    1.227000e+00
 TC1vh   SQ1  1 4.090000e-01    2.291000e+00
 TC1vh   TQ1  1 4.240000e-01    3.171000e+00
 TX4vh    Q1  1 3.950000e-01    2.880000e+00
 TX4vh   SQ1  1 3.650000e-01    4.196000e+00
 TX4vh   TQ1  1 3.400000e-01    6.360000e+00
 TX3vh    Q1  1 3.950000e-01    2.872000e+00
 TX3vh   SQ1  1 3.650000e-01    4.152000e+00
 TX3vh   TQ1  1 3.400000e-01    6.262000e+00
 TX2vh    Q1  1 3.950000e-01    2.662000e+00
 TX2vh   SQ1  1 3.650000e-01    3.843000e+00
 TX2vh   TQ1  1 3.400000e-01    5.763000e+00
 TX1vh    Q1  1 3.950000e-01    2.421000e+00
 TX1vh   SQ1  1 3.650000e-01    3.456000e+00
 TX1vh   TQ1  1 3.400000e-01    4.984000e+00
 TC6eh    Q1  1 3.950000e-01    3.312000e+00
 TC6eh   SQ1  1 3.650000e-01    4.612000e+00
 TC6eh   TQ1  1 3.400000e-01    6.772000e+00
 TC5eh    Q1  1 3.950000e-01    2.860000e+00
 TC5eh   SQ1  1 3.650000e-01    4.087000e+00
 TC5eh   TQ1  1 3.400000e-01    6.120000e+00
 TC4eh    Q1  1 3.950000e-01    2.652000e+00
 TC4eh   SQ1  1 3.650000e-01    3.787000e+00
 TC4eh   TQ1  1 3.400000e-01    5.640000e+00
 TC3eh    Q1  1 3.950000e-01    2.421000e+00
 TC3eh   SQ1  1 3.650000e-01    3.456000e+00
 TC3eh   TQ1  1 3.400000e-01    4.984000e+00
 TC2eh    Q1  1 4.010000e-01    1.264000e+00
 TC2eh   SQ1  1 4.090000e-01    2.479000e+00
 TC2eh   TQ1  1 4.240000e-01    3.541000e+00
 TC1eh    Q1  1 4.010000e-01    1.227000e+00
 TC1eh   SQ1  1 4.090000e-01    2.291000e+00
 TC1eh   TQ1  1 4.240000e-01    3.171000e+00
 TX4eh    Q1  1 3.950000e-01    2.880000e+00
 TX4eh   SQ1  1 3.650000e-01    4.196000e+00
 TX4eh   TQ1  1 3.400000e-01    6.360000e+00
 TX3eh    Q1  1 3.950000e-01    2.872000e+00
 TX3eh   SQ1  1 3.650000e-01    4.152000e+00
 TX3eh   TQ1  1 3.400000e-01    6.262000e+00
 TX2eh    Q1  1 3.950000e-01    2.662000e+00
 TX2eh   SQ1  1 3.650000e-01    3.843000e+00
 TX2eh   TQ1  1 3.400000e-01    5.763000e+00
 TX1eh    Q1  1 3.950000e-01    2.421000e+00
 TX1eh   SQ1  1 3.650000e-01    3.456000e+00
 TX1eh   TQ1  1 3.400000e-01    4.984000e+00
  TP6r    Q1  1 3.950000e-01    3.572000e+00
  TP6r   SQ1  1 3.650000e-01    4.927000e+00
  TP6r   TQ1  1 3.400000e-01    7.114000e+00
  TP5r    Q1  1 3.950000e-01    3.820000e+00
  TP5r   SQ1  1 3.650000e-01    5.240000e+00
  TP5r   TQ1  1 3.400000e-01    7.448000e+00
  TP4r    Q1  1 3.950000e-01    3.827000e+00
  TP4r   SQ1  1 3.650000e-01    5.279000e+00
  TP4r   TQ1  1 3.400000e-01    7.533000e+00
  TP3r    Q1  1 3.950000e-01    3.830000e+00
  TP3r   SQ1  1 3.650000e-01    5.294000e+00
  TP3r   TQ1  1 3.400000e-01    7.566000e+00
  TP2r    Q1  1 3.950000e-01    3.831000e+00
  TP2r   SQ1  1 3.650000e-01    5.300000e+00
  TP2r   TQ1  1 3.400000e-01    7.580000e+00
  TP1r    Q1  1 3.950000e-01    3.831000e+00
  TP1r   SQ1  1 3.650000e-01    5.302000e+00
  TP1r   TQ1  1 3.400000e-01    7.585000e+00
  TN6r    Q1  1 3.950000e-01    3.831000e+00
  TN6r   SQ1  1 3.650000e-01    5.303000e+00
  TN6r   TQ1  1 3.400000e-01    7.586000e+00
  TN5r    Q1  1 3.950000e-01    3.591000e+00
  TN5r   SQ1  1 3.650000e-01    5.030000e+00
  TN5r   TQ1  1 3.400000e-01    7.341000e+00
  TN4r    Q1  1 3.950000e-01    3.590000e+00
  TN4r   SQ1  1 3.650000e-01    5.024000e+00
  TN4r   TQ1  1 3.400000e-01    7.326000e+00
  TN3r    Q1  1 3.950000e-01    3.587000e+00
  TN3r   SQ1  1 3.650000e-01    5.011000e+00
  TN3r   TQ1  1 3.400000e-01    7.298000e+00
  TN2r    Q1  1 3.950000e-01    3.333000e+00
  TN2r   SQ1  1 3.650000e-01    4.728000e+00
  TN2r   TQ1  1 3.400000e-01    7.028000e+00
  TN1r    Q1  1 3.950000e-01    3.086000e+00
  TN1r   SQ1  1 3.650000e-01    4.458000e+00
  TN1r   TQ1  1 3.400000e-01    6.679000e+00
  TC6r    Q1  1 3.950000e-01    3.072000e+00
  TC6r   SQ1  1 3.650000e-01    4.382000e+00
  TC6r   TQ1  1 3.400000e-01    6.512000e+00
  TC5r    Q1  1 3.950000e-01    2.670000e+00
  TC5r   SQ1  1 3.650000e-01    3.887000e+00
  TC5r   TQ1  1 3.400000e-01    5.860000e+00
  TC4r    Q1  1 3.950000e-01    2.452000e+00
  TC4r   SQ1  1 3.650000e-01    3.627000e+00
  TC4r   TQ1  1 3.400000e-01    5.360000e+00
  TC3r    Q1  1 3.950000e-01    2.161000e+00
  TC3r   SQ1  1 3.660000e-01    3.302000e+00
  TC3r   TQ1  1 3.520000e-01    4.676000e+00
  TC2r    Q1  1 4.040000e-01    1.109000e+00
  TC2r   SQ1  1 4.230000e-01    2.334000e+00
  TC2r   TQ1  1 4.380000e-01    3.408000e+00
  TC1r    Q1  1 4.040000e-01    1.072000e+00
  TC1r   SQ1  1 4.230000e-01    2.152000e+00
  TC1r   TQ1  1 4.380000e-01    3.049000e+00
  TX4r    Q1  1 3.950000e-01    2.690000e+00
  TX4r   SQ1  1 3.650000e-01    3.996000e+00
  TX4r   TQ1  1 3.400000e-01    6.100000e+00
  TX3r    Q1  1 3.950000e-01    2.682000e+00
  TX3r   SQ1  1 3.650000e-01    3.952000e+00
  TX3r   TQ1  1 3.400000e-01    6.002000e+00
  TX2r    Q1  1 3.950000e-01    2.462000e+00
  TX2r   SQ1  1 3.650000e-01    3.683000e+00
  TX2r   TQ1  1 3.400000e-01    5.483000e+00
  TX1r    Q1  1 3.950000e-01    2.161000e+00
  TX1r   SQ1  1 3.660000e-01    3.302000e+00
  TX1r   TQ1  1 3.520000e-01    4.676000e+00
 TP6dr    Q1  1 3.950000e-01    3.572000e+00
 TP6dr   SQ1  1 3.650000e-01    4.927000e+00
 TP6dr   TQ1  1 3.400000e-01    7.114000e+00
 TP5dr    Q1  1 3.950000e-01    3.820000e+00
 TP5dr   SQ1  1 3.650000e-01    5.240000e+00
 TP5dr   TQ1  1 3.400000e-01    7.448000e+00
 TP4dr    Q1  1 3.950000e-01    3.827000e+00
 TP4dr   SQ1  1 3.650000e-01    5.279000e+00
 TP4dr   TQ1  1 3.400000e-01    7.533000e+00
 TP3dr    Q1  1 3.950000e-01    3.830000e+00
 TP3dr   SQ1  1 3.650000e-01    5.294000e+00
 TP3dr   TQ1  1 3.400000e-01    7.566000e+00
 TP2dr    Q1  1 3.950000e-01    3.831000e+00
 TP2dr   SQ1  1 3.650000e-01    5.300000e+00
 TP2dr   TQ1  1 3.400000e-01    7.580000e+00
 TP1dr    Q1  1 3.950000e-01    3.831000e+00
 TP1dr   SQ1  1 3.650000e-01    5.302000e+00
 TP1dr   TQ1  1 3.400000e-01    7.585000e+00
 TN6dr    Q1  1 3.950000e-01    3.831000e+00
 TN6dr   SQ1  1 3.650000e-01    5.303000e+00
 TN6dr   TQ1  1 3.400000e-01    7.586000e+00
 TN5dr    Q1  1 3.950000e-01    3.591000e+00
 TN5dr   SQ1  1 3.650000e-01    5.030000e+00
 TN5dr   TQ1  1 3.400000e-01    7.341000e+00
 TN4dr    Q1  1 3.950000e-01    3.590000e+00
 TN4dr   SQ1  1 3.650000e-01    5.024000e+00
 TN4dr   TQ1  1 3.400000e-01    7.326000e+00
 TN3dr    Q1  1 3.950000e-01    3.587000e+00
 TN3dr   SQ1  1 3.650000e-01    5.011000e+00
 TN3dr   TQ1  1 3.400000e-01    7.298000e+00
 TN2dr    Q1  1 3.950000e-01    3.333000e+00
 TN2dr   SQ1  1 3.650000e-01    4.728000e+00
 TN2dr   TQ1  1 3.400000e-01    7.028000e+00
 TN1dr    Q1  1 3.950000e-01    3.086000e+00
 TN1dr   SQ1  1 3.650000e-01    4.458000e+00
 TN1dr   TQ1  1 3.400000e-01    6.679000e+00
 TP6ar    Q1  1 3.950000e-01    3.572000e+00
 TP6ar   SQ1  1 3.650000e-01    4.927000e+00
 TP6ar   TQ1  1 3.400000e-01    7.114000e+00
 TP5ar    Q1  1 3.950000e-01    3.820000e+00
 TP5ar   SQ1  1 3.650000e-01    5.240000e+00
 TP5ar   TQ1  1 3.400000e-01    7.448000e+00
 TP4ar    Q1  1 3.950000e-01    3.827000e+00
 TP4ar   SQ1  1 3.650000e-01    5.279000e+00
 TP4ar   TQ1  1 3.400000e-01    7.533000e+00
 TP3ar    Q1  1 3.950000e-01    3.830000e+00
 TP3ar   SQ1  1 3.650000e-01    5.294000e+00
 TP3ar   TQ1  1 3.400000e-01    7.566000e+00
 TP2ar    Q1  1 3.950000e-01    3.831000e+00
 TP2ar   SQ1  1 3.650000e-01    5.300000e+00
 TP2ar   TQ1  1 3.400000e-01    7.580000e+00
 TP1ar    Q1  1 3.950000e-01    3.831000e+00
 TP1ar   SQ1  1 3.650000e-01    5.302000e+00
 TP1ar   TQ1  1 3.400000e-01    7.585000e+00
 TN6ar    Q1  1 3.950000e-01    3.831000e+00
 TN6ar   SQ1  1 3.650000e-01    5.303000e+00
 TN6ar   TQ1  1 3.400000e-01    7.586000e+00
 TN5ar    Q1  1 3.950000e-01    3.591000e+00
 TN5ar   SQ1  1 3.650000e-01    5.030000e+00
 TN5ar   TQ1  1 3.400000e-01    7.341000e+00
 TN4ar    Q1  1 3.950000e-01    3.590000e+00
 TN4ar   SQ1  1 3.650000e-01    5.024000e+00
 TN4ar   TQ1  1 3.400000e-01    7.326000e+00
 TN3ar    Q1  1 3.950000e-01    3.587000e+00
 TN3ar   SQ1  1 3.650000e-01    5.011000e+00
 TN3ar   TQ1  1 3.400000e-01    7.298000e+00
 TN2ar    Q1  1 3.950000e-01    3.333000e+00
 TN2ar   SQ1  1 3.650000e-01    4.728000e+00
 TN2ar   TQ1  1 3.400000e-01    7.028000e+00
 TN1ar    Q1  1 3.950000e-01    3.086000e+00
 TN1ar   SQ1  1 3.650000e-01    4.458000e+00
 TN1ar   TQ1  1 3.400000e-01    6.679000e+00
 TC6vr    Q1  1 3.950000e-01    3.312000e+00
 TC6vr   SQ1  1 3.650000e-01    4.612000e+00
 TC6vr   TQ1  1 3.400000e-01    6.772000e+00
 TC5vr    Q1  1 3.950000e-01    2.860000e+00
 TC5vr   SQ1  1 3.650000e-01    4.087000e+00
 TC5vr   TQ1  1 3.400000e-01    6.120000e+00
 TC4vr    Q1  1 3.950000e-01    2.652000e+00
 TC4vr   SQ1  1 3.650000e-01    3.787000e+00
 TC4vr   TQ1  1 3.400000e-01    5.640000e+00
 TC3vr    Q1  1 3.950000e-01    2.421000e+00
 TC3vr   SQ1  1 3.650000e-01    3.456000e+00
 TC3vr   TQ1  1 3.400000e-01    4.984000e+00
 TC2vr    Q1  1 4.010000e-01    1.264000e+00
 TC2vr   SQ1  1 4.090000e-01    2.479000e+00
 TC2vr   TQ1  1 4.240000e-01    3.541000e+00
 TC1vr    Q1  1 4.010000e-01    1.227000e+00
 TC1vr   SQ1  1 4.090000e-01    2.291000e+00
 TC1vr   TQ1  1 4.240000e-01    3.171000e+00
 TX4vr    Q1  1 3.950000e-01    2.880000e+00
 TX4vr   SQ1  1 3.650000e-01    4.196000e+00
 TX4vr   TQ1  1 3.400000e-01    6.360000e+00
 TX3vr    Q1  1 3.950000e-01    2.872000e+00
 TX3vr   SQ1  1 3.650000e-01    4.152000e+00
 TX3vr   TQ1  1 3.400000e-01    6.262000e+00
 TX2vr    Q1  1 3.950000e-01    2.662000e+00
 TX2vr   SQ1  1 3.650000e-01    3.843000e+00
 TX2vr   TQ1  1 3.400000e-01    5.763000e+00
 TX1vr    Q1  1 3.950000e-01    2.421000e+00
 TX1vr   SQ1  1 3.650000e-01    3.456000e+00
 TX1vr   TQ1  1 3.400000e-01    4.984000e+00
 TC6er    Q1  1 3.950000e-01    3.312000e+00
 TC6er   SQ1  1 3.650000e-01    4.612000e+00
 TC6er   TQ1  1 3.400000e-01    6.772000e+00
 TC5er    Q1  1 3.950000e-01    2.860000e+00
 TC5er   SQ1  1 3.650000e-01    4.087000e+00
 TC5er   TQ1  1 3.400000e-01    6.120000e+00
 TC4er    Q1  1 3.950000e-01    2.652000e+00
 TC4er   SQ1  1 3.650000e-01    3.787000e+00
 TC4er   TQ1  1 3.400000e-01    5.640000e+00
 TC3er    Q1  1 3.950000e-01    2.421000e+00
 TC3er   SQ1  1 3.650000e-01    3.456000e+00
 TC3er   TQ1  1 3.400000e-01    4.984000e+00
 TC2er    Q1  1 4.010000e-01    1.264000e+00
 TC2er   SQ1  1 4.090000e-01    2.479000e+00
 TC2er   TQ1  1 4.240000e-01    3.541000e+00
 TC1er    Q1  1 4.010000e-01    1.227000e+00
 TC1er   SQ1  1 4.090000e-01    2.291000e+00
 TC1er   TQ1  1 4.240000e-01    3.171000e+00
 TX4er    Q1  1 3.950000e-01    2.880000e+00
 TX4er   SQ1  1 3.650000e-01    4.196000e+00
 TX4er   TQ1  1 3.400000e-01    6.360000e+00
 TX3er    Q1  1 3.950000e-01    2.872000e+00
 TX3er   SQ1  1 3.650000e-01    4.152000e+00
 TX3er   TQ1  1 3.400000e-01    6.262000e+00
 TX2er    Q1  1 3.950000e-01    2.662000e+00
 TX2er   SQ1  1 3.650000e-01    3.843000e+00
 TX2er   TQ1  1 3.400000e-01    5.763000e+00
 TX1er    Q1  1 3.950000e-01    2.421000e+00
 TX1er   SQ1  1 3.650000e-01    3.456000e+00
 TX1er   TQ1  1 3.400000e-01    4.984000e+00
    P6   Q1p  1 4.700000e-01    4.745000e+00
    P6  SQ1p  1 4.300000e-01    6.275000e+00
    P6  TQ1p  1 3.950000e-01    8.983000e+00
    P5   Q1p  1 4.700000e-01    4.937000e+00
    P5  SQ1p  1 4.300000e-01    6.481000e+00
    P5  TQ1p  1 3.950000e-01    9.236000e+00
    P4   Q1p  1 4.700000e-01    4.936000e+00
    P4  SQ1p  1 4.300000e-01    6.478000e+00
    P4  TQ1p  1 3.950000e-01    9.229000e+00
    P3   Q1p  1 4.700000e-01    4.933000e+00
    P3  SQ1p  1 4.300000e-01    6.469000e+00
    P3  TQ1p  1 3.950000e-01    9.210000e+00
    P2   Q1p  1 4.700000e-01    4.931000e+00
    P2  SQ1p  1 4.300000e-01    6.460000e+00
    P2  TQ1p  1 3.950000e-01    9.189000e+00
    P1   Q1p  1 4.700000e-01    4.929000e+00
    P1  SQ1p  1 4.300000e-01    6.452000e+00
    P1  TQ1p  1 3.950000e-01    9.170000e+00
    N6   Q1p  1 4.700000e-01    4.926000e+00
    N6  SQ1p  1 4.300000e-01    6.441000e+00
    N6  TQ1p  1 3.950000e-01    9.144000e+00
    N5   Q1p  1 4.700000e-01    4.731000e+00
    N5  SQ1p  1 4.300000e-01    6.226000e+00
    N5  TQ1p  1 3.950000e-01    8.869000e+00
    N4   Q1p  1 4.700000e-01    4.726000e+00
    N4  SQ1p  1 4.300000e-01    6.205000e+00
    N4  TQ1p  1 3.950000e-01    8.821000e+00
    N3   Q1p  1 4.700000e-01    4.718000e+00
    N3  SQ1p  1 4.300000e-01    6.176000e+00
    N3  TQ1p  1 3.950000e-01    8.754000e+00
    N2   Q1p  1 4.700000e-01    4.526000e+00
    N2  SQ1p  1 4.300000e-01    5.954000e+00
    N2  TQ1p  1 3.950000e-01    8.407000e+00
    N1   Q1p  1 4.700000e-01    4.319000e+00
    N1  SQ1p  1 4.300000e-01    5.679000e+00
    N1  TQ1p  1 3.950000e-01    8.017000e+00
    C6   Q1p  1 4.700000e-01    4.478000e+00
    C6  SQ1p  1 4.300000e-01    5.778000e+00
    C6  TQ1p  1 3.950000e-01    8.000000e+00
    C5   Q1p  1 4.700000e-01    4.094000e+00
    C5  SQ1p  1 4.300000e-01    5.258000e+00
    C5  TQ1p  1 3.950000e-01    7.352000e+00
    C4   Q1p  1 4.700000e-01    3.926000e+00
    C4  SQ1p  1 4.300000e-01    4.882000e+00
    C4  TQ1p  1 3.950000e-01    6.847000e+00
    C3   Q1p  1 4.700000e-01    3.714000e+00
    C3  SQ1p  1 4.300000e-01    4.504000e+00
    C3  TQ1p  1 3.950000e-01    6.119000e+00
    C2   Q1p  1 4.700000e-01    2.864000e+00
    C2  SQ1p  1 4.300000e-01    3.280000e+00
    C2  TQ1p  1 4.010000e-01    4.514000e+00
    C1   Q1p  1 4.700000e-01    2.789000e+00
    C1  SQ1p  1 4.300000e-01    3.005000e+00
    C1  TQ1p  1 4.010000e-01    3.886000e+00
    X4   Q1p  1 4.700000e-01    4.136000e+00
    X4  SQ1p  1 4.300000e-01    5.412000e+00
    X4  TQ1p  1 3.950000e-01    7.708000e+00
    X3   Q1p  1 4.700000e-01    4.118000e+00
    X3  SQ1p  1 4.300000e-01    5.348000e+00
    X3  TQ1p  1 3.950000e-01    7.560000e+00
    X2   Q1p  1 4.700000e-01    3.947000e+00
    X2  SQ1p  1 4.300000e-01    4.958000e+00
    X2  TQ1p  1 3.950000e-01    7.022000e+00
    X1   Q1p  1 4.700000e-01    3.714000e+00
    X1  SQ1p  1 4.300000e-01    4.504000e+00
    X1  TQ1p  1 3.950000e-01    6.119000e+00
   P6d   Q1p  1 4.700000e-01    4.565000e+00
   P6d  SQ1p  1 4.300000e-01    6.095000e+00
   P6d  TQ1p  1 3.950000e-01    8.983000e+00
   P5d   Q1p  1 4.700000e-01    4.567000e+00
   P5d  SQ1p  1 4.300000e-01    6.101000e+00
   P5d  TQ1p  1 3.950000e-01    8.996000e+00
   P4d   Q1p  1 4.700000e-01    4.566000e+00
   P4d  SQ1p  1 4.300000e-01    6.098000e+00
   P4d  TQ1p  1 3.950000e-01    8.989000e+00
   P3d   Q1p  1 4.700000e-01    4.563000e+00
   P3d  SQ1p  1 4.300000e-01    6.089000e+00
   P3d  TQ1p  1 3.950000e-01    8.970000e+00
   P2d   Q1p  1 4.700000e-01    4.561000e+00
   P2d  SQ1p  1 4.300000e-01    6.080000e+00
   P2d  TQ1p  1 3.950000e-01    8.949000e+00
   P1d   Q1p  1 4.700000e-01    4.559000e+00
   P1d  SQ1p  1 4.300000e-01    6.072000e+00
   P1d  TQ1p  1 3.950000e-01    8.930000e+00
   N6d   Q1p  1 4.700000e-01    4.556000e+00
   N6d  SQ1p  1 4.300000e-01    6.061000e+00
   N6d  TQ1p  1 3.950000e-01    8.904000e+00
   N5d   Q1p  1 4.700000e-01    4.551000e+00
   N5d  SQ1p  1 4.300000e-01    6.046000e+00
   N5d  TQ1p  1 3.950000e-01    8.869000e+00
   N4d   Q1p  1 4.700000e-01    4.546000e+00
   N4d  SQ1p  1 4.300000e-01    6.025000e+00
   N4d  TQ1p  1 3.950000e-01    8.821000e+00
   N3d   Q1p  1 4.700000e-01    4.538000e+00
   N3d  SQ1p  1 4.300000e-01    5.996000e+00
   N3d  TQ1p  1 3.950000e-01    8.754000e+00
   N2d   Q1p  1 4.700000e-01    4.166000e+00
   N2d  SQ1p  1 4.300000e-01    5.524000e+00
   N2d  TQ1p  1 3.950000e-01    8.167000e+00
   N1d   Q1p  1 4.700000e-01    4.019000e+00
   N1d  SQ1p  1 4.300000e-01    5.229000e+00
   N1d  TQ1p  1 3.950000e-01    7.817000e+00
   P6a   Q1p  1 4.700000e-01    4.935000e+00
   P6a  SQ1p  1 4.300000e-01    6.475000e+00
   P6a  TQ1p  1 3.950000e-01    9.463000e+00
   P5a   Q1p  1 4.700000e-01    5.167000e+00
   P5a  SQ1p  1 4.300000e-01    6.681000e+00
   P5a  TQ1p  1 3.950000e-01    9.716000e+00
   P4a   Q1p  1 4.700000e-01    5.166000e+00
   P4a  SQ1p  1 4.300000e-01    6.678000e+00
   P4a  TQ1p  1 3.950000e-01    9.709000e+00
   P3a   Q1p  1 4.700000e-01    5.163000e+00
   P3a  SQ1p  1 4.300000e-01    6.669000e+00
   P3a  TQ1p  1 3.950000e-01    9.690000e+00
   P2a   Q1p  1 4.700000e-01    5.161000e+00
   P2a  SQ1p  1 4.300000e-01    6.660000e+00
   P2a  TQ1p  1 3.950000e-01    9.669000e+00
   P1a   Q1p  1 4.700000e-01    5.159000e+00
   P1a  SQ1p  1 4.300000e-01    6.652000e+00
   P1a  TQ1p  1 3.950000e-01    9.650000e+00
   N6a   Q1p  1 4.700000e-01    5.156000e+00
   N6a  SQ1p  1 4.300000e-01    6.641000e+00
   N6a  TQ1p  1 3.950000e-01    9.624000e+00
   N5a   Q1p  1 4.700000e-01    4.921000e+00
   N5a  SQ1p  1 4.300000e-01    6.426000e+00
   N5a  TQ1p  1 3.950000e-01    9.349000e+00
   N4a   Q1p  1 4.700000e-01    4.916000e+00
   N4a  SQ1p  1 4.300000e-01    6.405000e+00
   N4a  TQ1p  1 3.950000e-01    9.301000e+00
   N3a   Q1p  1 4.700000e-01    4.908000e+00
   N3a  SQ1p  1 4.300000e-01    6.376000e+00
   N3a  TQ1p  1 3.950000e-01    9.234000e+00
   N2a   Q1p  1 4.700000e-01    4.706000e+00
   N2a  SQ1p  1 4.300000e-01    6.134000e+00
   N2a  TQ1p  1 3.950000e-01    8.897000e+00
   N1a   Q1p  1 4.700000e-01    4.509000e+00
   N1a  SQ1p  1 4.300000e-01    5.889000e+00
   N1a  TQ1p  1 3.950000e-01    8.507000e+00
   C6v   Q1p  1 4.700000e-01    3.988000e+00
   C6v  SQ1p  1 4.300000e-01    5.118000e+00
   C6v  TQ1p  1 3.950000e-01    7.560000e+00
   C5v   Q1p  1 4.700000e-01    3.644000e+00
   C5v  SQ1p  1 4.300000e-01    4.628000e+00
   C5v  TQ1p  1 3.950000e-01    6.962000e+00
   C4v   Q1p  1 4.700000e-01    3.496000e+00
   C4v  SQ1p  1 4.300000e-01    4.282000e+00
   C4v  TQ1p  1 3.950000e-01    6.387000e+00
   C3v   Q1p  1 4.700000e-01    3.264000e+00
   C3v  SQ1p  1 4.300000e-01    3.894000e+00
   C3v  TQ1p  1 3.950000e-01    5.679000e+00
   C2v   Q1p  1 5.700000e-01    2.350000e+00
   C2v  SQ1p  1 5.080000e-01    2.422000e+00
   C2v  TQ1p  1 4.650000e-01    3.748000e+00
   C1v   Q1p  1 5.700000e-01    2.287000e+00
   C1v  SQ1p  1 5.080000e-01    2.189000e+00
   C1v  TQ1p  1 4.650000e-01    3.207000e+00
   X4v   Q1p  1 4.700000e-01    3.686000e+00
   X4v  SQ1p  1 4.300000e-01    4.782000e+00
   X4v  TQ1p  1 3.950000e-01    7.318000e+00
   X3v   Q1p  1 4.700000e-01    3.668000e+00
   X3v  SQ1p  1 4.300000e-01    4.718000e+00
   X3v  TQ1p  1 3.950000e-01    7.170000e+00
   X2v   Q1p  1 4.700000e-01    3.517000e+00
   X2v  SQ1p  1 4.300000e-01    4.358000e+00
   X2v  TQ1p  1 3.950000e-01    6.562000e+00
   X1v   Q1p  1 4.700000e-01    3.264000e+00
   X1v  SQ1p  1 4.300000e-01    3.894000e+00
   X1v  TQ1p  1 3.950000e-01    5.679000e+00
   C6e   Q1p  1 4.700000e-01    4.478000e+00
   C6e  SQ1p  1 4.300000e-01    5.778000e+00
   C6e  TQ1p  1 3.950000e-01    8.250000e+00
   C5e   Q1p  1 4.700000e-01    4.094000e+00
   C5e  SQ1p  1 4.300000e-01    5.258000e+00
   C5e  TQ1p  1 3.950000e-01    7.552000e+00
   C4e   Q1p  1 4.700000e-01    3.926000e+00
   C4e  SQ1p  1 4.300000e-01    4.892000e+00
   C4e  TQ1p  1 3.950000e-01    7.037000e+00
   C3e   Q1p  1 4.700000e-01    3.714000e+00
   C3e  SQ1p  1 4.300000e-01    4.654000e+00
   C3e  TQ1p  1 3.950000e-01    6.319000e+00
   C2e   Q1p  1 4.700000e-01    2.864000e+00
   C2e  SQ1p  1 4.300000e-01    3.280000e+00
   C2e  TQ1p  1 3.990000e-01    4.729000e+00
   C1e   Q1p  1 4.700000e-01    2.789000e+00
   C1e  SQ1p  1 4.300000e-01    3.005000e+00
   C1e  TQ1p  1 3.990000e-01    4.098000e+00
   X4e   Q1p  1 4.700000e-01    4.136000e+00
   X4e  SQ1p  1 4.300000e-01    5.412000e+00
   X4e  TQ1p  1 3.950000e-01    7.908000e+00
   X3e   Q1p  1 4.700000e-01    4.118000e+00
   X3e  SQ1p  1 4.300000e-01    5.348000e+00
   X3e  TQ1p  1 3.950000e-01    7.760000e+00
   X2e   Q1p  1 4.700000e-01    3.947000e+00
   X2e  SQ1p  1 4.300000e-01    4.968000e+00
   X2e  TQ1p  1 3.950000e-01    7.212000e+00
   X1e   Q1p  1 4.700000e-01    3.714000e+00
   X1e  SQ1p  1 4.300000e-01    4.654000e+00
   X1e  TQ1p  1 3.950000e-01    6.319000e+00
   P6q   Q1p  1 4.700000e-01    5.415000e+00
   P6q  SQ1p  1 4.300000e-01    6.905000e+00
   P6q  TQ1p  1 3.950000e-01    9.703000e+00
   P5q   Q1p  1 4.700000e-01    5.677000e+00
   P5q  SQ1p  1 4.300000e-01    7.191000e+00
   P5q  TQ1p  1 3.950000e-01    1.003600e+01
   P4q   Q1p  1 4.700000e-01    5.676000e+00
   P4q  SQ1p  1 4.300000e-01    7.188000e+00
   P4q  TQ1p  1 3.950000e-01    1.002900e+01
   P3q   Q1p  1 4.700000e-01    5.673000e+00
   P3q  SQ1p  1 4.300000e-01    7.179000e+00
   P3q  TQ1p  1 3.950000e-01    1.001000e+01
   P2q   Q1p  1 4.700000e-01    5.671000e+00
   P2q  SQ1p  1 4.300000e-01    7.170000e+00
   P2q  TQ1p  1 3.950000e-01    9.989000e+00
   P1q   Q1p  1 4.700000e-01    5.669000e+00
   P1q  SQ1p  1 4.300000e-01    7.162000e+00
   P1q  TQ1p  1 3.950000e-01    9.970000e+00
   N6q   Q1p  1 4.700000e-01    5.666000e+00
   N6q  SQ1p  1 4.300000e-01    7.151000e+00
   N6q  TQ1p  1 3.950000e-01    9.944000e+00
   N5q   Q1p  1 4.700000e-01    5.401000e+00
   N5q  SQ1p  1 4.300000e-01    6.856000e+00
   N5q  TQ1p  1 3.950000e-01    9.589000e+00
   N4q   Q1p  1 4.700000e-01    5.396000e+00
   N4q  SQ1p  1 4.300000e-01    6.835000e+00
   N4q  TQ1p  1 3.950000e-01    9.541000e+00
   N3q   Q1p  1 4.700000e-01    5.388000e+00
   N3q  SQ1p  1 4.300000e-01    6.806000e+00
   N3q  TQ1p  1 3.950000e-01    9.474000e+00
   N2q   Q1p  1 4.700000e-01    5.126000e+00
   N2q  SQ1p  1 4.300000e-01    6.534000e+00
   N2q  TQ1p  1 3.950000e-01    9.137000e+00
   N1q   Q1p  1 4.700000e-01    4.879000e+00
   N1q  SQ1p  1 4.300000e-01    6.269000e+00
   N1q  TQ1p  1 3.950000e-01    8.747000e+00
   C6q   Q1p  1 4.700000e-01    5.078000e+00
   C6q  SQ1p  1 4.300000e-01    6.358000e+00
   C6q  TQ1p  1 3.950000e-01    8.730000e+00
   C5q   Q1p  1 4.700000e-01    4.634000e+00
   C5q  SQ1p  1 4.300000e-01    5.868000e+00
   C5q  TQ1p  1 3.950000e-01    8.042000e+00
   C4q   Q1p  1 4.700000e-01    4.416000e+00
   C4q  SQ1p  1 4.300000e-01    5.552000e+00
   C4q  TQ1p  1 3.950000e-01    7.477000e+00
   C3q   Q1p  1 4.700000e-01    4.164000e+00
   C3q  SQ1p  1 4.300000e-01    5.114000e+00
   C3q  TQ1p  1 3.950000e-01    6.709000e+00
   C2q   Q1p  1 4.700000e-01    3.384000e+00
   C2q  SQ1p  1 4.300000e-01    3.870000e+00
   C2q  TQ1p  1 3.950000e-01    5.255000e+00
   C1q   Q1p  1 4.700000e-01    3.309000e+00
   C1q  SQ1p  1 4.300000e-01    3.595000e+00
   C1q  TQ1p  1 3.950000e-01    4.618000e+00
   X4q   Q1p  1 4.700000e-01    4.676000e+00
   X4q  SQ1p  1 4.300000e-01    6.022000e+00
   X4q  TQ1p  1 3.950000e-01    8.398000e+00
   X3q   Q1p  1 4.700000e-01    4.658000e+00
   X3q  SQ1p  1 4.300000e-01    5.958000e+00
   X3q  TQ1p  1 3.950000e-01    8.250000e+00
   X2q   Q1p  1 4.700000e-01    4.437000e+00
   X2q  SQ1p  1 4.300000e-01    5.628000e+00
   X2q  TQ1p  1 3.950000e-01    7.652000e+00
   X1q   Q1p  1 4.700000e-01    4.164000e+00
   X1q  SQ1p  1 4.300000e-01    5.114000e+00
   X1q  TQ1p  1 3.950000e-01    6.709000e+00
  P6dq   Q1p  1 4.700000e-01    5.165000e+00
  P6dq  SQ1p  1 4.300000e-01    6.675000e+00
  P6dq  TQ1p  1 3.950000e-01    9.703000e+00
  P5dq   Q1p  1 4.700000e-01    5.167000e+00
  P5dq  SQ1p  1 4.300000e-01    6.681000e+00
  P5dq  TQ1p  1 3.950000e-01    9.716000e+00
  P4dq   Q1p  1 4.700000e-01    5.166000e+00
  P4dq  SQ1p  1 4.300000e-01    6.678000e+00
  P4dq  TQ1p  1 3.950000e-01    9.709000e+00
  P3dq   Q1p  1 4.700000e-01    5.163000e+00
  P3dq  SQ1p  1 4.300000e-01    6.669000e+00
  P3dq  TQ1p  1 3.950000e-01    9.690000e+00
  P2dq   Q1p  1 4.700000e-01    5.161000e+00
  P2dq  SQ1p  1 4.300000e-01    6.660000e+00
  P2dq  TQ1p  1 3.950000e-01    9.669000e+00
  P1dq   Q1p  1 4.700000e-01    5.159000e+00
  P1dq  SQ1p  1 4.300000e-01    6.652000e+00
  P1dq  TQ1p  1 3.950000e-01    9.650000e+00
  N6dq   Q1p  1 4.700000e-01    5.156000e+00
  N6dq  SQ1p  1 4.300000e-01    6.641000e+00
  N6dq  TQ1p  1 3.950000e-01    9.624000e+00
  N5dq   Q1p  1 4.700000e-01    5.151000e+00
  N5dq  SQ1p  1 4.300000e-01    6.626000e+00
  N5dq  TQ1p  1 3.950000e-01    9.589000e+00
  N4dq   Q1p  1 4.700000e-01    5.146000e+00
  N4dq  SQ1p  1 4.300000e-01    6.605000e+00
  N4dq  TQ1p  1 3.950000e-01    9.541000e+00
  N3dq   Q1p  1 4.700000e-01    5.138000e+00
  N3dq  SQ1p  1 4.300000e-01    6.576000e+00
  N3dq  TQ1p  1 3.950000e-01    9.474000e+00
  N2dq   Q1p  1 4.700000e-01    4.706000e+00
  N2dq  SQ1p  1 4.300000e-01    6.134000e+00
  N2dq  TQ1p  1 3.950000e-01    8.897000e+00
  N1dq   Q1p  1 4.700000e-01    4.509000e+00
  N1dq  SQ1p  1 4.300000e-01    5.889000e+00
  N1dq  TQ1p  1 3.950000e-01    8.507000e+00
  P6aq   Q1p  1 4.700000e-01    5.675000e+00
  P6aq  SQ1p  1 4.300000e-01    7.185000e+00
  P6aq  TQ1p  1 3.950000e-01    1.033300e+01
  P5aq   Q1p  1 4.700000e-01    5.927000e+00
  P5aq  SQ1p  1 4.300000e-01    7.431000e+00
  P5aq  TQ1p  1 3.950000e-01    1.067600e+01
  P4aq   Q1p  1 4.700000e-01    5.926000e+00
  P4aq  SQ1p  1 4.300000e-01    7.428000e+00
  P4aq  TQ1p  1 3.950000e-01    1.066900e+01
  P3aq   Q1p  1 4.700000e-01    5.923000e+00
  P3aq  SQ1p  1 4.300000e-01    7.419000e+00
  P3aq  TQ1p  1 3.950000e-01    1.065000e+01
  P2aq   Q1p  1 4.700000e-01    5.921000e+00
  P2aq  SQ1p  1 4.300000e-01    7.410000e+00
  P2aq  TQ1p  1 3.950000e-01    1.062900e+01
  P1aq   Q1p  1 4.700000e-01    5.919000e+00
  P1aq  SQ1p  1 4.300000e-01    7.402000e+00
  P1aq  TQ1p  1 3.950000e-01    1.061000e+01
  N6aq   Q1p  1 4.700000e-01    5.916000e+00
  N6aq  SQ1p  1 4.300000e-01    7.391000e+00
  N6aq  TQ1p  1 3.950000e-01    1.058400e+01
  N5aq   Q1p  1 4.700000e-01    5.661000e+00
  N5aq  SQ1p  1 4.300000e-01    7.136000e+00
  N5aq  TQ1p  1 3.950000e-01    1.021900e+01
  N4aq   Q1p  1 4.700000e-01    5.656000e+00
  N4aq  SQ1p  1 4.300000e-01    7.115000e+00
  N4aq  TQ1p  1 3.950000e-01    1.017100e+01
  N3aq   Q1p  1 4.700000e-01    5.648000e+00
  N3aq  SQ1p  1 4.300000e-01    7.086000e+00
  N3aq  TQ1p  1 3.950000e-01    1.010400e+01
  N2aq   Q1p  1 4.700000e-01    5.376000e+00
  N2aq  SQ1p  1 4.300000e-01    6.764000e+00
  N2aq  TQ1p  1 3.950000e-01    9.697000e+00
  N1aq   Q1p  1 4.700000e-01    5.109000e+00
  N1aq  SQ1p  1 4.300000e-01    6.469000e+00
  N1aq  TQ1p  1 3.950000e-01    9.227000e+00
  C6vq   Q1p  1 4.700000e-01    4.478000e+00
  C6vq  SQ1p  1 4.300000e-01    5.778000e+00
  C6vq  TQ1p  1 3.950000e-01    8.250000e+00
  C5vq   Q1p  1 4.700000e-01    4.094000e+00
  C5vq  SQ1p  1 4.300000e-01    5.258000e+00
  C5vq  TQ1p  1 3.950000e-01    7.552000e+00
  C4vq   Q1p  1 4.700000e-01    3.926000e+00
  C4vq  SQ1p  1 4.300000e-01    4.892000e+00
  C4vq  TQ1p  1 3.950000e-01    7.037000e+00
  C3vq   Q1p  1 4.700000e-01    3.714000e+00
  C3vq  SQ1p  1 4.300000e-01    4.654000e+00
  C3vq  TQ1p  1 3.950000e-01    6.319000e+00
  C2vq   Q1p  1 4.700000e-01    2.864000e+00
  C2vq  SQ1p  1 4.300000e-01    3.280000e+00
  C2vq  TQ1p  1 3.990000e-01    4.729000e+00
  C1vq   Q1p  1 4.700000e-01    2.789000e+00
  C1vq  SQ1p  1 4.300000e-01    3.005000e+00
  C1vq  TQ1p  1 3.990000e-01    4.098000e+00
  X4vq   Q1p  1 4.700000e-01    4.136000e+00
  X4vq  SQ1p  1 4.300000e-01    5.412000e+00
  X4vq  TQ1p  1 3.950000e-01    7.908000e+00
  X3vq   Q1p  1 4.700000e-01    4.118000e+00
  X3vq  SQ1p  1 4.300000e-01    5.348000e+00
  X3vq  TQ1p  1 3.950000e-01    7.760000e+00
  X2vq   Q1p  1 4.700000e-01    3.947000e+00
  X2vq  SQ1p  1 4.300000e-01    4.968000e+00
  X2vq  TQ1p  1 3.950000e-01    7.212000e+00
  X1vq   Q1p  1 4.700000e-01    3.714000e+00
  X1vq  SQ1p  1 4.300000e-01    4.654000e+00
  X1vq  TQ1p  1 3.950000e-01    6.319000e+00
  C6eq   Q1p  1 4.700000e-01    5.078000e+00
  C6eq  SQ1p  1 4.300000e-01    6.358000e+00
  C6eq  TQ1p  1 3.950000e-01    8.970000e+00
  C5eq   Q1p  1 4.700000e-01    4.634000e+00
  C5eq  SQ1p  1 4.300000e-01    5.868000e+00
  C5eq  TQ1p  1 3.950000e-01    8.282000e+00
  C4eq   Q1p  1 4.700000e-01    4.416000e+00
  C4eq  SQ1p  1 4.300000e-01    5.552000e+00
  C4eq  TQ1p  1 3.950000e-01    7.727000e+00
  C3eq   Q1p  1 4.700000e-01    4.164000e+00
  C3eq  SQ1p  1 4.300000e-01    5.114000e+00
  C3eq  TQ1p  1 3.950000e-01    6.949000e+00
  C2eq   Q1p  1 4.700000e-01    3.384000e+00
  C2eq  SQ1p  1 4.300000e-01    3.870000e+00
  C2eq  TQ1p  1 3.950000e-01    5.435000e+00
  C1eq   Q1p  1 4.700000e-01    3.309000e+00
  C1eq  SQ1p  1 4.300000e-01    3.595000e+00
  C1eq  TQ1p  1 3.950000e-01    4.798000e+00
  X4eq   Q1p  1 4.700000e-01    4.676000e+00
  X4eq  SQ1p  1 4.300000e-01    6.022000e+00
  X4eq  TQ1p  1 3.950000e-01    8.638000e+00
  X3eq   Q1p  1 4.700000e-01    4.658000e+00
  X3eq  SQ1p  1 4.300000e-01    5.958000e+00
  X3eq  TQ1p  1 3.950000e-01    8.490000e+00
  X2eq   Q1p  1 4.700000e-01    4.437000e+00
  X2eq  SQ1p  1 4.300000e-01    5.628000e+00
  X2eq  TQ1p  1 3.950000e-01    7.902000e+00
  X1eq   Q1p  1 4.700000e-01    4.164000e+00
  X1eq  SQ1p  1 4.300000e-01    5.114000e+00
  X1eq  TQ1p  1 3.950000e-01    6.949000e+00
   P6h   Q1p  1 4.700000e-01    4.745000e+00
   P6h  SQ1p  1 4.300000e-01    6.275000e+00
   P6h  TQ1p  1 3.950000e-01    8.983000e+00
   P5h   Q1p  1 4.700000e-01    4.937000e+00
   P5h  SQ1p  1 4.300000e-01    6.481000e+00
   P5h  TQ1p  1 3.950000e-01    9.236000e+00
   P4h   Q1p  1 4.700000e-01    4.936000e+00
   P4h  SQ1p  1 4.300000e-01    6.478000e+00
   P4h  TQ1p  1 3.950000e-01    9.229000e+00
   P3h   Q1p  1 4.700000e-01    4.933000e+00
   P3h  SQ1p  1 4.300000e-01    6.469000e+00
   P3h  TQ1p  1 3.950000e-01    9.210000e+00
   P2h   Q1p  1 4.700000e-01    4.931000e+00
   P2h  SQ1p  1 4.300000e-01    6.460000e+00
   P2h  TQ1p  1 3.950000e-01    9.189000e+00
   P1h   Q1p  1 4.700000e-01    4.929000e+00
   P1h  SQ1p  1 4.300000e-01    6.452000e+00
   P1h  TQ1p  1 3.950000e-01    9.170000e+00
   N6h   Q1p  1 4.700000e-01    4.926000e+00
   N6h  SQ1p  1 4.300000e-01    6.441000e+00
   N6h  TQ1p  1 3.950000e-01    9.144000e+00
   N5h   Q1p  1 4.700000e-01    4.731000e+00
   N5h  SQ1p  1 4.300000e-01    6.226000e+00
   N5h  TQ1p  1 3.950000e-01    8.869000e+00
   N4h   Q1p  1 4.700000e-01    4.726000e+00
   N4h  SQ1p  1 4.300000e-01    6.205000e+00
   N4h  TQ1p  1 3.950000e-01    8.821000e+00
   N3h   Q1p  1 4.700000e-01    4.718000e+00
   N3h  SQ1p  1 4.300000e-01    6.176000e+00
   N3h  TQ1p  1 3.950000e-01    8.754000e+00
   N2h   Q1p  1 4.700000e-01    4.526000e+00
   N2h  SQ1p  1 4.300000e-01    5.954000e+00
   N2h  TQ1p  1 3.950000e-01    8.407000e+00
   N1h   Q1p  1 4.700000e-01    4.319000e+00
   N1h  SQ1p  1 4.300000e-01    5.679000e+00
   N1h  TQ1p  1 3.950000e-01    8.017000e+00
   C6h   Q1p  1 4.700000e-01    4.478000e+00
   C6h  SQ1p  1 4.300000e-01    5.778000e+00
   C6h  TQ1p  1 3.950000e-01    8.000000e+00
   C5h   Q1p  1 4.700000e-01    4.094000e+00
   C5h  SQ1p  1 4.300000e-01    5.258000e+00
   C5h  TQ1p  1 3.950000e-01    7.352000e+00
   C4h   Q1p  1 4.700000e-01    3.926000e+00
   C4h  SQ1p  1 4.300000e-01    4.882000e+00
   C4h  TQ1p  1 3.950000e-01    6.847000e+00
   C3h   Q1p  1 4.700000e-01    3.714000e+00
   C3h  SQ1p  1 4.300000e-01    4.504000e+00
   C3h  TQ1p  1 3.950000e-01    6.119000e+00
   C2h   Q1p  1 4.700000e-01    2.864000e+00
   C2h  SQ1p  1 4.300000e-01    3.280000e+00
   C2h  TQ1p  1 4.010000e-01    4.514000e+00
   C1h   Q1p  1 4.700000e-01    2.789000e+00
   C1h  SQ1p  1 4.300000e-01    3.005000e+00
   C1h  TQ1p  1 4.010000e-01    3.886000e+00
   X4h   Q1p  1 4.700000e-01    4.136000e+00
   X4h  SQ1p  1 4.300000e-01    5.412000e+00
   X4h  TQ1p  1 3.950000e-01    7.708000e+00
   X3h   Q1p  1 4.700000e-01    4.118000e+00
   X3h  SQ1p  1 4.300000e-01    5.348000e+00
   X3h  TQ1p  1 3.950000e-01    7.560000e+00
   X2h   Q1p  1 4.700000e-01    3.947000e+00
   X2h  SQ1p  1 4.300000e-01    4.958000e+00
   X2h  TQ1p  1 3.950000e-01    7.022000e+00
   X1h   Q1p  1 4.700000e-01    3.714000e+00
   X1h  SQ1p  1 4.300000e-01    4.504000e+00
   X1h  TQ1p  1 3.950000e-01    6.119000e+00
  P6dh   Q1p  1 4.700000e-01    4.565000e+00
  P6dh  SQ1p  1 4.300000e-01    6.095000e+00
  P6dh  TQ1p  1 3.950000e-01    8.983000e+00
  P5dh   Q1p  1 4.700000e-01    4.567000e+00
  P5dh  SQ1p  1 4.300000e-01    6.101000e+00
  P5dh  TQ1p  1 3.950000e-01    8.996000e+00
  P4dh   Q1p  1 4.700000e-01    4.566000e+00
  P4dh  SQ1p  1 4.300000e-01    6.098000e+00
  P4dh  TQ1p  1 3.950000e-01    8.989000e+00
  P3dh   Q1p  1 4.700000e-01    4.563000e+00
  P3dh  SQ1p  1 4.300000e-01    6.089000e+00
  P3dh  TQ1p  1 3.950000e-01    8.970000e+00
  P2dh   Q1p  1 4.700000e-01    4.561000e+00
  P2dh  SQ1p  1 4.300000e-01    6.080000e+00
  P2dh  TQ1p  1 3.950000e-01    8.949000e+00
  P1dh   Q1p  1 4.700000e-01    4.559000e+00
  P1dh  SQ1p  1 4.300000e-01    6.072000e+00
  P1dh  TQ1p  1 3.950000e-01    8.930000e+00
  N6dh   Q1p  1 4.700000e-01    4.556000e+00
  N6dh  SQ1p  1 4.300000e-01    6.061000e+00
  N6dh  TQ1p  1 3.950000e-01    8.904000e+00
  N5dh   Q1p  1 4.700000e-01    4.551000e+00
  N5dh  SQ1p  1 4.300000e-01    6.046000e+00
  N5dh  TQ1p  1 3.950000e-01    8.869000e+00
  N4dh   Q1p  1 4.700000e-01    4.546000e+00
  N4dh  SQ1p  1 4.300000e-01    6.025000e+00
  N4dh  TQ1p  1 3.950000e-01    8.821000e+00
  N3dh   Q1p  1 4.700000e-01    4.538000e+00
  N3dh  SQ1p  1 4.300000e-01    5.996000e+00
  N3dh  TQ1p  1 3.950000e-01    8.754000e+00
  N2dh   Q1p  1 4.700000e-01    4.166000e+00
  N2dh  SQ1p  1 4.300000e-01    5.524000e+00
  N2dh  TQ1p  1 3.950000e-01    8.167000e+00
  N1dh   Q1p  1 4.700000e-01    4.019000e+00
  N1dh  SQ1p  1 4.300000e-01    5.229000e+00
  N1dh  TQ1p  1 3.950000e-01    7.817000e+00
  P6ah   Q1p  1 4.700000e-01    4.935000e+00
  P6ah  SQ1p  1 4.300000e-01    6.475000e+00
  P6ah  TQ1p  1 3.950000e-01    9.463000e+00
  P5ah   Q1p  1 4.700000e-01    5.167000e+00
  P5ah  SQ1p  1 4.300000e-01    6.681000e+00
  P5ah  TQ1p  1 3.950000e-01    9.716000e+00
  P4ah   Q1p  1 4.700000e-01    5.166000e+00
  P4ah  SQ1p  1 4.300000e-01    6.678000e+00
  P4ah  TQ1p  1 3.950000e-01    9.709000e+00
  P3ah   Q1p  1 4.700000e-01    5.163000e+00
  P3ah  SQ1p  1 4.300000e-01    6.669000e+00
  P3ah  TQ1p  1 3.950000e-01    9.690000e+00
  P2ah   Q1p  1 4.700000e-01    5.161000e+00
  P2ah  SQ1p  1 4.300000e-01    6.660000e+00
  P2ah  TQ1p  1 3.950000e-01    9.669000e+00
  P1ah   Q1p  1 4.700000e-01    5.159000e+00
  P1ah  SQ1p  1 4.300000e-01    6.652000e+00
  P1ah  TQ1p  1 3.950000e-01    9.650000e+00
  N6ah   Q1p  1 4.700000e-01    5.156000e+00
  N6ah  SQ1p  1 4.300000e-01    6.641000e+00
  N6ah  TQ1p  1 3.950000e-01    9.624000e+00
  N5ah   Q1p  1 4.700000e-01    4.921000e+00
  N5ah  SQ1p  1 4.300000e-01    6.426000e+00
  N5ah  TQ1p  1 3.950000e-01    9.349000e+00
  N4ah   Q1p  1 4.700000e-01    4.916000e+00
  N4ah  SQ1p  1 4.300000e-01    6.405000e+00
  N4ah  TQ1p  1 3.950000e-01    9.301000e+00
  N3ah   Q1p  1 4.700000e-01    4.908000e+00
  N3ah  SQ1p  1 4.300000e-01    6.376000e+00
  N3ah  TQ1p  1 3.950000e-01    9.234000e+00
  N2ah   Q1p  1 4.700000e-01    4.706000e+00
  N2ah  SQ1p  1 4.300000e-01    6.134000e+00
  N2ah  TQ1p  1 3.950000e-01    8.897000e+00
  N1ah   Q1p  1 4.700000e-01    4.509000e+00
  N1ah  SQ1p  1 4.300000e-01    5.889000e+00
  N1ah  TQ1p  1 3.950000e-01    8.507000e+00
  C6vh   Q1p  1 4.700000e-01    3.988000e+00
  C6vh  SQ1p  1 4.300000e-01    5.118000e+00
  C6vh  TQ1p  1 3.950000e-01    7.560000e+00
  C5vh   Q1p  1 4.700000e-01    3.644000e+00
  C5vh  SQ1p  1 4.300000e-01    4.628000e+00
  C5vh  TQ1p  1 3.950000e-01    6.962000e+00
  C4vh   Q1p  1 4.700000e-01    3.496000e+00
  C4vh  SQ1p  1 4.300000e-01    4.282000e+00
  C4vh  TQ1p  1 3.950000e-01    6.387000e+00
  C3vh   Q1p  1 4.700000e-01    3.264000e+00
  C3vh  SQ1p  1 4.300000e-01    3.894000e+00
  C3vh  TQ1p  1 3.950000e-01    5.679000e+00
  C2vh   Q1p  1 5.700000e-01    2.350000e+00
  C2vh  SQ1p  1 5.080000e-01    2.422000e+00
  C2vh  TQ1p  1 4.650000e-01    3.748000e+00
  C1vh   Q1p  1 5.700000e-01    2.287000e+00
  C1vh  SQ1p  1 5.080000e-01    2.189000e+00
  C1vh  TQ1p  1 4.650000e-01    3.207000e+00
  X4vh   Q1p  1 4.700000e-01    3.686000e+00
  X4vh  SQ1p  1 4.300000e-01    4.782000e+00
  X4vh  TQ1p  1 3.950000e-01    7.318000e+00
  X3vh   Q1p  1 4.700000e-01    3.668000e+00
  X3vh  SQ1p  1 4.300000e-01    4.718000e+00
  X3vh  TQ1p  1 3.950000e-01    7.170000e+00
  X2vh   Q1p  1 4.700000e-01    3.517000e+00
  X2vh  SQ1p  1 4.300000e-01    4.358000e+00
  X2vh  TQ1p  1 3.950000e-01    6.562000e+00
  X1vh   Q1p  1 4.700000e-01    3.264000e+00
  X1vh  SQ1p  1 4.300000e-01    3.894000e+00
  X1vh  TQ1p  1 3.950000e-01    5.679000e+00
  C6eh   Q1p  1 4.700000e-01    4.478000e+00
  C6eh  SQ1p  1 4.300000e-01    5.778000e+00
  C6eh  TQ1p  1 3.950000e-01    8.250000e+00
  C5eh   Q1p  1 4.700000e-01    4.094000e+00
  C5eh  SQ1p  1 4.300000e-01    5.258000e+00
  C5eh  TQ1p  1 3.950000e-01    7.552000e+00
  C4eh   Q1p  1 4.700000e-01    3.926000e+00
  C4eh  SQ1p  1 4.300000e-01    4.892000e+00
  C4eh  TQ1p  1 3.950000e-01    7.037000e+00
  C3eh   Q1p  1 4.700000e-01    3.714000e+00
  C3eh  SQ1p  1 4.300000e-01    4.654000e+00
  C3eh  TQ1p  1 3.950000e-01    6.319000e+00
  C2eh   Q1p  1 4.700000e-01    2.864000e+00
  C2eh  SQ1p  1 4.300000e-01    3.280000e+00
  C2eh  TQ1p  1 3.990000e-01    4.729000e+00
  C1eh   Q1p  1 4.700000e-01    2.789000e+00
  C1eh  SQ1p  1 4.300000e-01    3.005000e+00
  C1eh  TQ1p  1 3.990000e-01    4.098000e+00
  X4eh   Q1p  1 4.700000e-01    4.136000e+00
  X4eh  SQ1p  1 4.300000e-01    5.412000e+00
  X4eh  TQ1p  1 3.950000e-01    7.908000e+00
  X3eh   Q1p  1 4.700000e-01    4.118000e+00
  X3eh  SQ1p  1 4.300000e-01    5.348000e+00
  X3eh  TQ1p  1 3.950000e-01    7.760000e+00
  X2eh   Q1p  1 4.700000e-01    3.947000e+00
  X2eh  SQ1p  1 4.300000e-01    4.968000e+00
  X2eh  TQ1p  1 3.950000e-01    7.212000e+00
  X1eh   Q1p  1 4.700000e-01    3.714000e+00
  X1eh  SQ1p  1 4.300000e-01    4.654000e+00
  X1eh  TQ1p  1 3.950000e-01    6.319000e+00
   P6r   Q1p  1 4.700000e-01    4.745000e+00
   P6r  SQ1p  1 4.300000e-01    6.275000e+00
   P6r  TQ1p  1 3.950000e-01    8.983000e+00
   P5r   Q1p  1 4.700000e-01    4.937000e+00
   P5r  SQ1p  1 4.300000e-01    6.481000e+00
   P5r  TQ1p  1 3.950000e-01    9.236000e+00
   P4r   Q1p  1 4.700000e-01    4.936000e+00
   P4r  SQ1p  1 4.300000e-01    6.478000e+00
   P4r  TQ1p  1 3.950000e-01    9.229000e+00
   P3r   Q1p  1 4.700000e-01    4.933000e+00
   P3r  SQ1p  1 4.300000e-01    6.469000e+00
   P3r  TQ1p  1 3.950000e-01    9.210000e+00
   P2r   Q1p  1 4.700000e-01    4.931000e+00
   P2r  SQ1p  1 4.300000e-01    6.460000e+00
   P2r  TQ1p  1 3.950000e-01    9.189000e+00
   P1r   Q1p  1 4.700000e-01    4.929000e+00
   P1r  SQ1p  1 4.300000e-01    6.452000e+00
   P1r  TQ1p  1 3.950000e-01    9.170000e+00
   N6r   Q1p  1 4.700000e-01    4.926000e+00
   N6r  SQ1p  1 4.300000e-01    6.441000e+00
   N6r  TQ1p  1 3.950000e-01    9.144000e+00
   N5r   Q1p  1 4.700000e-01    4.731000e+00
   N5r  SQ1p  1 4.300000e-01    6.226000e+00
   N5r  TQ1p  1 3.950000e-01    8.869000e+00
   N4r   Q1p  1 4.700000e-01    4.726000e+00
   N4r  SQ1p  1 4.300000e-01    6.205000e+00
   N4r  TQ1p  1 3.950000e-01    8.821000e+00
   N3r   Q1p  1 4.700000e-01    4.718000e+00
   N3r  SQ1p  1 4.300000e-01    6.176000e+00
   N3r  TQ1p  1 3.950000e-01    8.754000e+00
   N2r   Q1p  1 4.700000e-01    4.526000e+00
   N2r  SQ1p  1 4.300000e-01    5.954000e+00
   N2r  TQ1p  1 3.950000e-01    8.407000e+00
   N1r   Q1p  1 4.700000e-01    4.319000e+00
   N1r  SQ1p  1 4.300000e-01    5.679000e+00
   N1r  TQ1p  1 3.950000e-01    8.017000e+00
   C6r   Q1p  1 4.700000e-01    4.478000e+00
   C6r  SQ1p  1 4.300000e-01    5.778000e+00
   C6r  TQ1p  1 3.950000e-01    8.000000e+00
   C5r   Q1p  1 4.700000e-01    4.094000e+00
   C5r  SQ1p  1 4.300000e-01    5.258000e+00
   C5r  TQ1p  1 3.950000e-01    7.352000e+00
   C4r   Q1p  1 4.700000e-01    3.926000e+00
   C4r  SQ1p  1 4.300000e-01    4.882000e+00
   C4r  TQ1p  1 3.950000e-01    6.847000e+00
   C3r   Q1p  1 4.700000e-01    3.714000e+00
   C3r  SQ1p  1 4.300000e-01    4.504000e+00
   C3r  TQ1p  1 3.950000e-01    6.119000e+00
   C2r   Q1p  1 4.700000e-01    2.864000e+00
   C2r  SQ1p  1 4.300000e-01    3.280000e+00
   C2r  TQ1p  1 4.010000e-01    4.514000e+00
   C1r   Q1p  1 4.700000e-01    2.789000e+00
   C1r  SQ1p  1 4.300000e-01    3.005000e+00
   C1r  TQ1p  1 4.010000e-01    3.886000e+00
   X4r   Q1p  1 4.700000e-01    4.136000e+00
   X4r  SQ1p  1 4.300000e-01    5.412000e+00
   X4r  TQ1p  1 3.950000e-01    7.708000e+00
   X3r   Q1p  1 4.700000e-01    4.118000e+00
   X3r  SQ1p  1 4.300000e-01    5.348000e+00
   X3r  TQ1p  1 3.950000e-01    7.560000e+00
   X2r   Q1p  1 4.700000e-01    3.947000e+00
   X2r  SQ1p  1 4.300000e-01    4.958000e+00
   X2r  TQ1p  1 3.950000e-01    7.022000e+00
   X1r   Q1p  1 4.700000e-01    3.714000e+00
   X1r  SQ1p  1 4.300000e-01    4.504000e+00
   X1r  TQ1p  1 3.950000e-01    6.119000e+00
  P6dr   Q1p  1 4.700000e-01    4.565000e+00
  P6dr  SQ1p  1 4.300000e-01    6.095000e+00
  P6dr  TQ1p  1 3.950000e-01    8.983000e+00
  P5dr   Q1p  1 4.700000e-01    4.567000e+00
  P5dr  SQ1p  1 4.300000e-01    6.101000e+00
  P5dr  TQ1p  1 3.950000e-01    8.996000e+00
  P4dr   Q1p  1 4.700000e-01    4.566000e+00
  P4dr  SQ1p  1 4.300000e-01    6.098000e+00
  P4dr  TQ1p  1 3.950000e-01    8.989000e+00
  P3dr   Q1p  1 4.700000e-01    4.563000e+00
  P3dr  SQ1p  1 4.300000e-01    6.089000e+00
  P3dr  TQ1p  1 3.950000e-01    8.970000e+00
  P2dr   Q1p  1 4.700000e-01    4.561000e+00
  P2dr  SQ1p  1 4.300000e-01    6.080000e+00
  P2dr  TQ1p  1 3.950000e-01    8.949000e+00
  P1dr   Q1p  1 4.700000e-01    4.559000e+00
  P1dr  SQ1p  1 4.300000e-01    6.072000e+00
  P1dr  TQ1p  1 3.950000e-01    8.930000e+00
  N6dr   Q1p  1 4.700000e-01    4.556000e+00
  N6dr  SQ1p  1 4.300000e-01    6.061000e+00
  N6dr  TQ1p  1 3.950000e-01    8.904000e+00
  N5dr   Q1p  1 4.700000e-01    4.551000e+00
  N5dr  SQ1p  1 4.300000e-01    6.046000e+00
  N5dr  TQ1p  1 3.950000e-01    8.869000e+00
  N4dr   Q1p  1 4.700000e-01    4.546000e+00
  N4dr  SQ1p  1 4.300000e-01    6.025000e+00
  N4dr  TQ1p  1 3.950000e-01    8.821000e+00
  N3dr   Q1p  1 4.700000e-01    4.538000e+00
  N3dr  SQ1p  1 4.300000e-01    5.996000e+00
  N3dr  TQ1p  1 3.950000e-01    8.754000e+00
  N2dr   Q1p  1 4.700000e-01    4.166000e+00
  N2dr  SQ1p  1 4.300000e-01    5.524000e+00
  N2dr  TQ1p  1 3.950000e-01    8.167000e+00
  N1dr   Q1p  1 4.700000e-01    4.019000e+00
  N1dr  SQ1p  1 4.300000e-01    5.229000e+00
  N1dr  TQ1p  1 3.950000e-01    7.817000e+00
  P6ar   Q1p  1 4.700000e-01    4.935000e+00
  P6ar  SQ1p  1 4.300000e-01    6.475000e+00
  P6ar  TQ1p  1 3.950000e-01    9.463000e+00
  P5ar   Q1p  1 4.700000e-01    5.167000e+00
  P5ar  SQ1p  1 4.300000e-01    6.681000e+00
  P5ar  TQ1p  1 3.950000e-01    9.716000e+00
  P4ar   Q1p  1 4.700000e-01    5.166000e+00
  P4ar  SQ1p  1 4.300000e-01    6.678000e+00
  P4ar  TQ1p  1 3.950000e-01    9.709000e+00
  P3ar   Q1p  1 4.700000e-01    5.163000e+00
  P3ar  SQ1p  1 4.300000e-01    6.669000e+00
  P3ar  TQ1p  1 3.950000e-01    9.690000e+00
  P2ar   Q1p  1 4.700000e-01    5.161000e+00
  P2ar  SQ1p  1 4.300000e-01    6.660000e+00
  P2ar  TQ1p  1 3.950000e-01    9.669000e+00
  P1ar   Q1p  1 4.700000e-01    5.159000e+00
  P1ar  SQ1p  1 4.300000e-01    6.652000e+00
  P1ar  TQ1p  1 3.950000e-01    9.650000e+00
  N6ar   Q1p  1 4.700000e-01    5.156000e+00
  N6ar  SQ1p  1 4.300000e-01    6.641000e+00
  N6ar  TQ1p  1 3.950000e-01    9.624000e+00
  N5ar   Q1p  1 4.700000e-01    4.921000e+00
  N5ar  SQ1p  1 4.300000e-01    6.426000e+00
  N5ar  TQ1p  1 3.950000e-01    9.349000e+00
  N4ar   Q1p  1 4.700000e-01    4.916000e+00
  N4ar  SQ1p  1 4.300000e-01    6.405000e+00
  N4ar  TQ1p  1 3.950000e-01    9.301000e+00
  N3ar   Q1p  1 4.700000e-01    4.908000e+00
  N3ar  SQ1p  1 4.300000e-01    6.376000e+00
  N3ar  TQ1p  1 3.950000e-01    9.234000e+00
  N2ar   Q1p  1 4.700000e-01    4.706000e+00
  N2ar  SQ1p  1 4.300000e-01    6.134000e+00
  N2ar  TQ1p  1 3.950000e-01    8.897000e+00
  N1ar   Q1p  1 4.700000e-01    4.509000e+00
  N1ar  SQ1p  1 4.300000e-01    5.889000e+00
  N1ar  TQ1p  1 3.950000e-01    8.507000e+00
  C6vr   Q1p  1 4.700000e-01    3.988000e+00
  C6vr  SQ1p  1 4.300000e-01    5.118000e+00
  C6vr  TQ1p  1 3.950000e-01    7.560000e+00
  C5vr   Q1p  1 4.700000e-01    3.644000e+00
  C5vr  SQ1p  1 4.300000e-01    4.628000e+00
  C5vr  TQ1p  1 3.950000e-01    6.962000e+00
  C4vr   Q1p  1 4.700000e-01    3.496000e+00
  C4vr  SQ1p  1 4.300000e-01    4.282000e+00
  C4vr  TQ1p  1 3.950000e-01    6.387000e+00
  C3vr   Q1p  1 4.700000e-01    3.264000e+00
  C3vr  SQ1p  1 4.300000e-01    3.894000e+00
  C3vr  TQ1p  1 3.950000e-01    5.679000e+00
  C2vr   Q1p  1 5.700000e-01    2.350000e+00
  C2vr  SQ1p  1 5.080000e-01    2.422000e+00
  C2vr  TQ1p  1 4.650000e-01    3.748000e+00
  C1vr   Q1p  1 5.700000e-01    2.287000e+00
  C1vr  SQ1p  1 5.080000e-01    2.189000e+00
  C1vr  TQ1p  1 4.650000e-01    3.207000e+00
  X4vr   Q1p  1 4.700000e-01    3.686000e+00
  X4vr  SQ1p  1 4.300000e-01    4.782000e+00
  X4vr  TQ1p  1 3.950000e-01    7.318000e+00
  X3vr   Q1p  1 4.700000e-01    3.668000e+00
  X3vr  SQ1p  1 4.300000e-01    4.718000e+00
  X3vr  TQ1p  1 3.950000e-01    7.170000e+00
  X2vr   Q1p  1 4.700000e-01    3.517000e+00
  X2vr  SQ1p  1 4.300000e-01    4.358000e+00
  X2vr  TQ1p  1 3.950000e-01    6.562000e+00
  X1vr   Q1p  1 4.700000e-01    3.264000e+00
  X1vr  SQ1p  1 4.300000e-01    3.894000e+00
  X1vr  TQ1p  1 3.950000e-01    5.679000e+00
  C6er   Q1p  1 4.700000e-01    4.478000e+00
  C6er  SQ1p  1 4.300000e-01    5.778000e+00
  C6er  TQ1p  1 3.950000e-01    8.250000e+00
  C5er   Q1p  1 4.700000e-01    4.094000e+00
  C5er  SQ1p  1 4.300000e-01    5.258000e+00
  C5er  TQ1p  1 3.950000e-01    7.552000e+00
  C4er   Q1p  1 4.700000e-01    3.926000e+00
  C4er  SQ1p  1 4.300000e-01    4.892000e+00
  C4er  TQ1p  1 3.950000e-01    7.037000e+00
  C3er   Q1p  1 4.700000e-01    3.714000e+00
  C3er  SQ1p  1 4.300000e-01    4.654000e+00
  C3er  TQ1p  1 3.950000e-01    6.319000e+00
  C2er   Q1p  1 4.700000e-01    2.864000e+00
  C2er  SQ1p  1 4.300000e-01    3.280000e+00
  C2er  TQ1p  1 3.990000e-01    4.729000e+00
  C1er   Q1p  1 4.700000e-01    2.789000e+00
  C1er  SQ1p  1 4.300000e-01    3.005000e+00
  C1er  TQ1p  1 3.990000e-01    4.098000e+00
  X4er   Q1p  1 4.700000e-01    4.136000e+00
  X4er  SQ1p  1 4.300000e-01    5.412000e+00
  X4er  TQ1p  1 3.950000e-01    7.908000e+00
  X3er   Q1p  1 4.700000e-01    4.118000e+00
  X3er  SQ1p  1 4.300000e-01    5.348000e+00
  X3er  TQ1p  1 3.950000e-01    7.760000e+00
  X2er   Q1p  1 4.700000e-01    3.947000e+00
  X2er  SQ1p  1 4.300000e-01    4.968000e+00
  X2er  TQ1p  1 3.950000e-01    7.212000e+00
  X1er   Q1p  1 4.700000e-01    3.714000e+00
  X1er  SQ1p  1 4.300000e-01    4.654000e+00
  X1er  TQ1p  1 3.950000e-01    6.319000e+00
   SP6   Q1p  1 4.300000e-01    4.237000e+00
   SP6  SQ1p  1 4.100000e-01    5.683000e+00
   SP6  TQ1p  1 3.650000e-01    7.791000e+00
   SP5   Q1p  1 4.300000e-01    4.441000e+00
   SP5  SQ1p  1 4.100000e-01    5.946000e+00
   SP5  TQ1p  1 3.650000e-01    8.108000e+00
   SP4   Q1p  1 4.300000e-01    4.444000e+00
   SP4  SQ1p  1 4.100000e-01    5.961000e+00
   SP4  TQ1p  1 3.650000e-01    8.139000e+00
   SP3   Q1p  1 4.300000e-01    4.444000e+00
   SP3  SQ1p  1 4.100000e-01    5.961000e+00
   SP3  TQ1p  1 3.650000e-01    8.140000e+00
   SP2   Q1p  1 4.300000e-01    4.444000e+00
   SP2  SQ1p  1 4.100000e-01    5.958000e+00
   SP2  TQ1p  1 3.650000e-01    8.133000e+00
   SP1   Q1p  1 4.300000e-01    4.443000e+00
   SP1  SQ1p  1 4.100000e-01    5.953000e+00
   SP1  TQ1p  1 3.650000e-01    8.123000e+00
   SN6   Q1p  1 4.300000e-01    4.441000e+00
   SN6  SQ1p  1 4.100000e-01    5.946000e+00
   SN6  TQ1p  1 3.650000e-01    8.108000e+00
   SN5   Q1p  1 4.300000e-01    4.239000e+00
   SN5  SQ1p  1 4.100000e-01    5.694000e+00
   SN5  TQ1p  1 3.650000e-01    7.814000e+00
   SN4   Q1p  1 4.300000e-01    4.236000e+00
   SN4  SQ1p  1 4.100000e-01    5.678000e+00
   SN4  TQ1p  1 3.650000e-01    7.779000e+00
   SN3   Q1p  1 4.300000e-01    4.231000e+00
   SN3  SQ1p  1 4.100000e-01    5.653000e+00
   SN3  TQ1p  1 3.650000e-01    7.727000e+00
   SN2   Q1p  1 4.300000e-01    4.043000e+00
   SN2  SQ1p  1 4.100000e-01    5.375000e+00
   SN2  TQ1p  1 3.650000e-01    7.387000e+00
   SN1   Q1p  1 4.300000e-01    3.821000e+00
   SN1  SQ1p  1 4.100000e-01    5.084000e+00
   SN1  TQ1p  1 3.650000e-01    7.030000e+00
   SC6   Q1p  1 4.300000e-01    4.010000e+00
   SC6  SQ1p  1 4.100000e-01    5.207000e+00
   SC6  TQ1p  1 3.650000e-01    7.036000e+00
   SC5   Q1p  1 4.300000e-01    3.563000e+00
   SC5  SQ1p  1 4.100000e-01    4.648000e+00
   SC5  TQ1p  1 3.650000e-01    6.392000e+00
   SC4   Q1p  1 4.300000e-01    3.297000e+00
   SC4  SQ1p  1 4.100000e-01    4.264000e+00
   SC4  TQ1p  1 3.650000e-01    5.911000e+00
   SC3   Q1p  1 4.300000e-01    3.102000e+00
   SC3  SQ1p  1 4.100000e-01    3.888000e+00
   SC3  TQ1p  1 3.650000e-01    5.278000e+00
   SC2   Q1p  1 4.300000e-01    2.026000e+00
   SC2  SQ1p  1 4.180000e-01    2.876000e+00
   SC2  TQ1p  1 4.090000e-01    3.888000e+00
   SC1   Q1p  1 4.300000e-01    1.972000e+00
   SC1  SQ1p  1 4.180000e-01    2.607000e+00
   SC1  TQ1p  1 4.090000e-01    3.376000e+00
   SX4   Q1p  1 4.300000e-01    3.592000e+00
   SX4  SQ1p  1 4.100000e-01    4.798000e+00
   SX4  TQ1p  1 3.650000e-01    6.705000e+00
   SX3   Q1p  1 4.300000e-01    3.580000e+00
   SX3  SQ1p  1 4.100000e-01    4.737000e+00
   SX3  TQ1p  1 3.650000e-01    6.576000e+00
   SX2   Q1p  1 4.300000e-01    3.311000e+00
   SX2  SQ1p  1 4.100000e-01    4.339000e+00
   SX2  TQ1p  1 3.650000e-01    6.067000e+00
   SX1   Q1p  1 4.300000e-01    3.102000e+00
   SX1  SQ1p  1 4.100000e-01    3.888000e+00
   SX1  TQ1p  1 3.650000e-01    5.278000e+00
  SP6d   Q1p  1 4.300000e-01    4.057000e+00
  SP6d  SQ1p  1 4.100000e-01    5.683000e+00
  SP6d  TQ1p  1 3.650000e-01    7.791000e+00
  SP5d   Q1p  1 4.300000e-01    4.061000e+00
  SP5d  SQ1p  1 4.100000e-01    5.706000e+00
  SP5d  TQ1p  1 3.650000e-01    7.838000e+00
  SP4d   Q1p  1 4.300000e-01    4.064000e+00
  SP4d  SQ1p  1 4.100000e-01    5.721000e+00
  SP4d  TQ1p  1 3.650000e-01    7.869000e+00
  SP3d   Q1p  1 4.300000e-01    4.064000e+00
  SP3d  SQ1p  1 4.100000e-01    5.721000e+00
  SP3d  TQ1p  1 3.650000e-01    7.870000e+00
  SP2d   Q1p  1 4.300000e-01    4.064000e+00
  SP2d  SQ1p  1 4.100000e-01    5.718000e+00
  SP2d  TQ1p  1 3.650000e-01    7.863000e+00
  SP1d   Q1p  1 4.300000e-01    4.063000e+00
  SP1d  SQ1p  1 4.100000e-01    5.713000e+00
  SP1d  TQ1p  1 3.650000e-01    7.853000e+00
  SN6d   Q1p  1 4.300000e-01    4.061000e+00
  SN6d  SQ1p  1 4.100000e-01    5.706000e+00
  SN6d  TQ1p  1 3.650000e-01    7.838000e+00
  SN5d   Q1p  1 4.300000e-01    4.059000e+00
  SN5d  SQ1p  1 4.100000e-01    5.694000e+00
  SN5d  TQ1p  1 3.650000e-01    7.814000e+00
  SN4d   Q1p  1 4.300000e-01    4.056000e+00
  SN4d  SQ1p  1 4.100000e-01    5.678000e+00
  SN4d  TQ1p  1 3.650000e-01    7.779000e+00
  SN3d   Q1p  1 4.300000e-01    4.051000e+00
  SN3d  SQ1p  1 4.100000e-01    5.653000e+00
  SN3d  TQ1p  1 3.650000e-01    7.727000e+00
  SN2d   Q1p  1 4.300000e-01    3.613000e+00
  SN2d  SQ1p  1 4.100000e-01    5.145000e+00
  SN2d  TQ1p  1 3.650000e-01    7.157000e+00
  SN1d   Q1p  1 4.300000e-01    3.371000e+00
  SN1d  SQ1p  1 4.100000e-01    4.844000e+00
  SN1d  TQ1p  1 3.650000e-01    6.800000e+00
  SP6a   Q1p  1 4.300000e-01    4.437000e+00
  SP6a  SQ1p  1 4.100000e-01    6.193000e+00
  SP6a  TQ1p  1 3.650000e-01    8.331000e+00
  SP5a   Q1p  1 4.300000e-01    4.641000e+00
  SP5a  SQ1p  1 4.100000e-01    6.436000e+00
  SP5a  TQ1p  1 3.650000e-01    8.648000e+00
  SP4a   Q1p  1 4.300000e-01    4.644000e+00
  SP4a  SQ1p  1 4.100000e-01    6.451000e+00
  SP4a  TQ1p  1 3.650000e-01    8.679000e+00
  SP3a   Q1p  1 4.300000e-01    4.644000e+00
  SP3a  SQ1p  1 4.100000e-01    6.451000e+00
  SP3a  TQ1p  1 3.650000e-01    8.680000e+00
  SP2a   Q1p  1 4.300000e-01    4.644000e+00
  SP2a  SQ1p  1 4.100000e-01    6.448000e+00
  SP2a  TQ1p  1 3.650000e-01    8.673000e+00
  SP1a   Q1p  1 4.300000e-01    4.643000e+00
  SP1a  SQ1p  1 4.100000e-01    6.443000e+00
  SP1a  TQ1p  1 3.650000e-01    8.663000e+00
  SN6a   Q1p  1 4.300000e-01    4.641000e+00
  SN6a  SQ1p  1 4.100000e-01    6.436000e+00
  SN6a  TQ1p  1 3.650000e-01    8.648000e+00
  SN5a   Q1p  1 4.300000e-01    4.439000e+00
  SN5a  SQ1p  1 4.100000e-01    6.204000e+00
  SN5a  TQ1p  1 3.650000e-01    8.354000e+00
  SN4a   Q1p  1 4.300000e-01    4.436000e+00
  SN4a  SQ1p  1 4.100000e-01    6.188000e+00
  SN4a  TQ1p  1 3.650000e-01    8.319000e+00
  SN3a   Q1p  1 4.300000e-01    4.431000e+00
  SN3a  SQ1p  1 4.100000e-01    6.163000e+00
  SN3a  TQ1p  1 3.650000e-01    8.267000e+00
  SN2a   Q1p  1 4.300000e-01    4.223000e+00
  SN2a  SQ1p  1 4.100000e-01    5.855000e+00
  SN2a  TQ1p  1 3.650000e-01    7.917000e+00
  SN1a   Q1p  1 4.300000e-01    4.031000e+00
  SN1a  SQ1p  1 4.100000e-01    5.554000e+00
  SN1a  TQ1p  1 3.650000e-01    7.520000e+00
  SC6v   Q1p  1 4.300000e-01    3.350000e+00
  SC6v  SQ1p  1 4.100000e-01    4.737000e+00
  SC6v  TQ1p  1 3.650000e-01    6.576000e+00
  SC5v   Q1p  1 4.300000e-01    2.933000e+00
  SC5v  SQ1p  1 4.100000e-01    4.248000e+00
  SC5v  TQ1p  1 3.650000e-01    6.032000e+00
  SC4v   Q1p  1 4.300000e-01    2.697000e+00
  SC4v  SQ1p  1 4.100000e-01    3.954000e+00
  SC4v  TQ1p  1 3.660000e-01    5.590000e+00
  SC3v   Q1p  1 4.300000e-01    2.492000e+00
  SC3v  SQ1p  1 4.100000e-01    3.598000e+00
  SC3v  TQ1p  1 3.780000e-01    4.856000e+00
  SC2v   Q1p  1 5.080000e-01    1.361000e+00
  SC2v  SQ1p  1 4.530000e-01    2.512000e+00
  SC2v  TQ1p  1 4.840000e-01    3.263000e+00
  SC1v   Q1p  1 5.080000e-01    1.315000e+00
  SC1v  SQ1p  1 4.530000e-01    2.264000e+00
  SC1v  TQ1p  1 4.840000e-01    2.830000e+00
  SX4v   Q1p  1 4.300000e-01    2.962000e+00
  SX4v  SQ1p  1 4.100000e-01    4.398000e+00
  SX4v  TQ1p  1 3.650000e-01    6.345000e+00
  SX3v   Q1p  1 4.300000e-01    2.950000e+00
  SX3v  SQ1p  1 4.100000e-01    4.337000e+00
  SX3v  TQ1p  1 3.650000e-01    6.216000e+00
  SX2v   Q1p  1 4.300000e-01    2.711000e+00
  SX2v  SQ1p  1 4.100000e-01    4.029000e+00
  SX2v  TQ1p  1 3.660000e-01    5.746000e+00
  SX1v   Q1p  1 4.300000e-01    2.492000e+00
  SX1v  SQ1p  1 4.100000e-01    3.598000e+00
  SX1v  TQ1p  1 3.780000e-01    4.856000e+00
  SC6e   Q1p  1 4.300000e-01    4.010000e+00
  SC6e  SQ1p  1 4.100000e-01    5.447000e+00
  SC6e  TQ1p  1 3.650000e-01    7.296000e+00
  SC5e   Q1p  1 4.300000e-01    3.563000e+00
  SC5e  SQ1p  1 4.100000e-01    4.888000e+00
  SC5e  TQ1p  1 3.650000e-01    6.622000e+00
  SC4e   Q1p  1 4.300000e-01    3.307000e+00
  SC4e  SQ1p  1 4.100000e-01    4.514000e+00
  SC4e  TQ1p  1 3.650000e-01    6.111000e+00
  SC3e   Q1p  1 4.300000e-01    3.252000e+00
  SC3e  SQ1p  1 4.100000e-01    4.038000e+00
  SC3e  TQ1p  1 3.650000e-01    5.438000e+00
  SC2e   Q1p  1 4.300000e-01    2.026000e+00
  SC2e  SQ1p  1 4.140000e-01    3.051000e+00
  SC2e  TQ1p  1 4.040000e-01    3.973000e+00
  SC1e   Q1p  1 4.300000e-01    1.972000e+00
  SC1e  SQ1p  1 4.140000e-01    2.779000e+00
  SC1e  TQ1p  1 4.040000e-01    3.454000e+00
  SX4e   Q1p  1 4.300000e-01    3.592000e+00
  SX4e  SQ1p  1 4.100000e-01    5.038000e+00
  SX4e  TQ1p  1 3.650000e-01    6.935000e+00
  SX3e   Q1p  1 4.300000e-01    3.580000e+00
  SX3e  SQ1p  1 4.100000e-01    4.977000e+00
  SX3e  TQ1p  1 3.650000e-01    6.806000e+00
  SX2e   Q1p  1 4.300000e-01    3.321000e+00
  SX2e  SQ1p  1 4.100000e-01    4.589000e+00
  SX2e  TQ1p  1 3.650000e-01    6.267000e+00
  SX1e   Q1p  1 4.300000e-01    3.252000e+00
  SX1e  SQ1p  1 4.100000e-01    4.038000e+00
  SX1e  TQ1p  1 3.650000e-01    5.438000e+00
  SP6q   Q1p  1 4.300000e-01    4.867000e+00
  SP6q  SQ1p  1 4.100000e-01    6.413000e+00
  SP6q  TQ1p  1 3.650000e-01    8.601000e+00
  SP5q   Q1p  1 4.300000e-01    5.151000e+00
  SP5q  SQ1p  1 4.100000e-01    6.686000e+00
  SP5q  TQ1p  1 3.650000e-01    8.938000e+00
  SP4q   Q1p  1 4.300000e-01    5.154000e+00
  SP4q  SQ1p  1 4.100000e-01    6.701000e+00
  SP4q  TQ1p  1 3.650000e-01    8.969000e+00
  SP3q   Q1p  1 4.300000e-01    5.154000e+00
  SP3q  SQ1p  1 4.100000e-01    6.701000e+00
  SP3q  TQ1p  1 3.650000e-01    8.970000e+00
  SP2q   Q1p  1 4.300000e-01    5.154000e+00
  SP2q  SQ1p  1 4.100000e-01    6.698000e+00
  SP2q  TQ1p  1 3.650000e-01    8.963000e+00
  SP1q   Q1p  1 4.300000e-01    5.153000e+00
  SP1q  SQ1p  1 4.100000e-01    6.693000e+00
  SP1q  TQ1p  1 3.650000e-01    8.953000e+00
  SN6q   Q1p  1 4.300000e-01    5.151000e+00
  SN6q  SQ1p  1 4.100000e-01    6.686000e+00
  SN6q  TQ1p  1 3.650000e-01    8.938000e+00
  SN5q   Q1p  1 4.300000e-01    4.869000e+00
  SN5q  SQ1p  1 4.100000e-01    6.424000e+00
  SN5q  TQ1p  1 3.650000e-01    8.624000e+00
  SN4q   Q1p  1 4.300000e-01    4.866000e+00
  SN4q  SQ1p  1 4.100000e-01    6.408000e+00
  SN4q  TQ1p  1 3.650000e-01    8.589000e+00
  SN3q   Q1p  1 4.300000e-01    4.861000e+00
  SN3q  SQ1p  1 4.100000e-01    6.383000e+00
  SN3q  TQ1p  1 3.650000e-01    8.537000e+00
  SN2q   Q1p  1 4.300000e-01    4.623000e+00
  SN2q  SQ1p  1 4.100000e-01    6.125000e+00
  SN2q  TQ1p  1 3.650000e-01    8.187000e+00
  SN1q   Q1p  1 4.300000e-01    4.411000e+00
  SN1q  SQ1p  1 4.100000e-01    5.794000e+00
  SN1q  TQ1p  1 3.650000e-01    7.790000e+00
  SC6q   Q1p  1 4.300000e-01    4.590000e+00
  SC6q  SQ1p  1 4.100000e-01    5.957000e+00
  SC6q  TQ1p  1 3.650000e-01    7.836000e+00
  SC5q   Q1p  1 4.300000e-01    4.173000e+00
  SC5q  SQ1p  1 4.100000e-01    5.358000e+00
  SC5q  TQ1p  1 3.650000e-01    7.112000e+00
  SC4q   Q1p  1 4.300000e-01    3.967000e+00
  SC4q  SQ1p  1 4.100000e-01    4.984000e+00
  SC4q  TQ1p  1 3.650000e-01    6.571000e+00
  SC3q   Q1p  1 4.300000e-01    3.712000e+00
  SC3q  SQ1p  1 4.100000e-01    4.528000e+00
  SC3q  TQ1p  1 3.650000e-01    5.868000e+00
  SC2q   Q1p  1 4.300000e-01    2.616000e+00
  SC2q  SQ1p  1 4.100000e-01    3.415000e+00
  SC2q  TQ1p  1 3.780000e-01    4.488000e+00
  SC1q   Q1p  1 4.300000e-01    2.562000e+00
  SC1q  SQ1p  1 4.100000e-01    3.141000e+00
  SC1q  TQ1p  1 3.780000e-01    3.934000e+00
  SX4q   Q1p  1 4.300000e-01    4.202000e+00
  SX4q  SQ1p  1 4.100000e-01    5.508000e+00
  SX4q  TQ1p  1 3.650000e-01    7.425000e+00
  SX3q   Q1p  1 4.300000e-01    4.190000e+00
  SX3q  SQ1p  1 4.100000e-01    5.447000e+00
  SX3q  TQ1p  1 3.650000e-01    7.296000e+00
  SX2q   Q1p  1 4.300000e-01    3.981000e+00
  SX2q  SQ1p  1 4.100000e-01    5.059000e+00
  SX2q  TQ1p  1 3.650000e-01    6.727000e+00
  SX1q   Q1p  1 4.300000e-01    3.712000e+00
  SX1q  SQ1p  1 4.100000e-01    4.528000e+00
  SX1q  TQ1p  1 3.650000e-01    5.868000e+00
 SP6dq   Q1p  1 4.300000e-01    4.637000e+00
 SP6dq  SQ1p  1 4.100000e-01    6.413000e+00
 SP6dq  TQ1p  1 3.650000e-01    8.601000e+00
 SP5dq   Q1p  1 4.300000e-01    4.641000e+00
 SP5dq  SQ1p  1 4.100000e-01    6.436000e+00
 SP5dq  TQ1p  1 3.650000e-01    8.648000e+00
 SP4dq   Q1p  1 4.300000e-01    4.644000e+00
 SP4dq  SQ1p  1 4.100000e-01    6.451000e+00
 SP4dq  TQ1p  1 3.650000e-01    8.679000e+00
 SP3dq   Q1p  1 4.300000e-01    4.644000e+00
 SP3dq  SQ1p  1 4.100000e-01    6.451000e+00
 SP3dq  TQ1p  1 3.650000e-01    8.680000e+00
 SP2dq   Q1p  1 4.300000e-01    4.644000e+00
 SP2dq  SQ1p  1 4.100000e-01    6.448000e+00
 SP2dq  TQ1p  1 3.650000e-01    8.673000e+00
 SP1dq   Q1p  1 4.300000e-01    4.643000e+00
 SP1dq  SQ1p  1 4.100000e-01    6.443000e+00
 SP1dq  TQ1p  1 3.650000e-01    8.663000e+00
 SN6dq   Q1p  1 4.300000e-01    4.641000e+00
 SN6dq  SQ1p  1 4.100000e-01    6.436000e+00
 SN6dq  TQ1p  1 3.650000e-01    8.648000e+00
 SN5dq   Q1p  1 4.300000e-01    4.639000e+00
 SN5dq  SQ1p  1 4.100000e-01    6.424000e+00
 SN5dq  TQ1p  1 3.650000e-01    8.624000e+00
 SN4dq   Q1p  1 4.300000e-01    4.636000e+00
 SN4dq  SQ1p  1 4.100000e-01    6.408000e+00
 SN4dq  TQ1p  1 3.650000e-01    8.589000e+00
 SN3dq   Q1p  1 4.300000e-01    4.631000e+00
 SN3dq  SQ1p  1 4.100000e-01    6.383000e+00
 SN3dq  TQ1p  1 3.650000e-01    8.537000e+00
 SN2dq   Q1p  1 4.300000e-01    4.223000e+00
 SN2dq  SQ1p  1 4.100000e-01    5.855000e+00
 SN2dq  TQ1p  1 3.650000e-01    7.917000e+00
 SN1dq   Q1p  1 4.300000e-01    4.031000e+00
 SN1dq  SQ1p  1 4.100000e-01    5.554000e+00
 SN1dq  TQ1p  1 3.650000e-01    7.520000e+00
 SP6aq   Q1p  1 4.300000e-01    5.147000e+00
 SP6aq  SQ1p  1 4.100000e-01    6.923000e+00
 SP6aq  TQ1p  1 3.650000e-01    9.181000e+00
 SP5aq   Q1p  1 4.300000e-01    5.391000e+00
 SP5aq  SQ1p  1 4.100000e-01    7.236000e+00
 SP5aq  TQ1p  1 3.650000e-01    9.518000e+00
 SP4aq   Q1p  1 4.300000e-01    5.394000e+00
 SP4aq  SQ1p  1 4.100000e-01    7.251000e+00
 SP4aq  TQ1p  1 3.650000e-01    9.549000e+00
 SP3aq   Q1p  1 4.300000e-01    5.394000e+00
 SP3aq  SQ1p  1 4.100000e-01    7.251000e+00
 SP3aq  TQ1p  1 3.650000e-01    9.550000e+00
 SP2aq   Q1p  1 4.300000e-01    5.394000e+00
 SP2aq  SQ1p  1 4.100000e-01    7.248000e+00
 SP2aq  TQ1p  1 3.650000e-01    9.543000e+00
 SP1aq   Q1p  1 4.300000e-01    5.393000e+00
 SP1aq  SQ1p  1 4.100000e-01    7.243000e+00
 SP1aq  TQ1p  1 3.650000e-01    9.533000e+00
 SN6aq   Q1p  1 4.300000e-01    5.391000e+00
 SN6aq  SQ1p  1 4.100000e-01    7.236000e+00
 SN6aq  TQ1p  1 3.650000e-01    9.518000e+00
 SN5aq   Q1p  1 4.300000e-01    5.149000e+00
 SN5aq  SQ1p  1 4.100000e-01    6.934000e+00
 SN5aq  TQ1p  1 3.650000e-01    9.204000e+00
 SN4aq   Q1p  1 4.300000e-01    5.146000e+00
 SN4aq  SQ1p  1 4.100000e-01    6.918000e+00
 SN4aq  TQ1p  1 3.650000e-01    9.169000e+00
 SN3aq   Q1p  1 4.300000e-01    5.141000e+00
 SN3aq  SQ1p  1 4.100000e-01    6.893000e+00
 SN3aq  TQ1p  1 3.650000e-01    9.117000e+00
 SN2aq   Q1p  1 4.300000e-01    4.853000e+00
 SN2aq  SQ1p  1 4.100000e-01    6.595000e+00
 SN2aq  TQ1p  1 3.650000e-01    8.747000e+00
 SN1aq   Q1p  1 4.300000e-01    4.611000e+00
 SN1aq  SQ1p  1 4.100000e-01    6.284000e+00
 SN1aq  TQ1p  1 3.650000e-01    8.330000e+00
 SC6vq   Q1p  1 4.300000e-01    4.010000e+00
 SC6vq  SQ1p  1 4.100000e-01    5.447000e+00
 SC6vq  TQ1p  1 3.650000e-01    7.296000e+00
 SC5vq   Q1p  1 4.300000e-01    3.563000e+00
 SC5vq  SQ1p  1 4.100000e-01    4.888000e+00
 SC5vq  TQ1p  1 3.650000e-01    6.622000e+00
 SC4vq   Q1p  1 4.300000e-01    3.307000e+00
 SC4vq  SQ1p  1 4.100000e-01    4.514000e+00
 SC4vq  TQ1p  1 3.650000e-01    6.111000e+00
 SC3vq   Q1p  1 4.300000e-01    3.252000e+00
 SC3vq  SQ1p  1 4.100000e-01    4.038000e+00
 SC3vq  TQ1p  1 3.650000e-01    5.438000e+00
 SC2vq   Q1p  1 4.300000e-01    2.026000e+00
 SC2vq  SQ1p  1 4.140000e-01    3.051000e+00
 SC2vq  TQ1p  1 4.040000e-01    3.973000e+00
 SC1vq   Q1p  1 4.300000e-01    1.972000e+00
 SC1vq  SQ1p  1 4.140000e-01    2.779000e+00
 SC1vq  TQ1p  1 4.040000e-01    3.454000e+00
 SX4vq   Q1p  1 4.300000e-01    3.592000e+00
 SX4vq  SQ1p  1 4.100000e-01    5.038000e+00
 SX4vq  TQ1p  1 3.650000e-01    6.935000e+00
 SX3vq   Q1p  1 4.300000e-01    3.580000e+00
 SX3vq  SQ1p  1 4.100000e-01    4.977000e+00
 SX3vq  TQ1p  1 3.650000e-01    6.806000e+00
 SX2vq   Q1p  1 4.300000e-01    3.321000e+00
 SX2vq  SQ1p  1 4.100000e-01    4.589000e+00
 SX2vq  TQ1p  1 3.650000e-01    6.267000e+00
 SX1vq   Q1p  1 4.300000e-01    3.252000e+00
 SX1vq  SQ1p  1 4.100000e-01    4.038000e+00
 SX1vq  TQ1p  1 3.650000e-01    5.438000e+00
 SC6eq   Q1p  1 4.300000e-01    4.590000e+00
 SC6eq  SQ1p  1 4.100000e-01    6.177000e+00
 SC6eq  TQ1p  1 3.650000e-01    8.106000e+00
 SC5eq   Q1p  1 4.300000e-01    4.173000e+00
 SC5eq  SQ1p  1 4.100000e-01    5.598000e+00
 SC5eq  TQ1p  1 3.650000e-01    7.382000e+00
 SC4eq   Q1p  1 4.300000e-01    3.967000e+00
 SC4eq  SQ1p  1 4.100000e-01    5.224000e+00
 SC4eq  TQ1p  1 3.650000e-01    6.831000e+00
 SC3eq   Q1p  1 4.300000e-01    3.712000e+00
 SC3eq  SQ1p  1 4.100000e-01    4.758000e+00
 SC3eq  TQ1p  1 3.650000e-01    6.098000e+00
 SC2eq   Q1p  1 4.300000e-01    2.616000e+00
 SC2eq  SQ1p  1 4.100000e-01    3.545000e+00
 SC2eq  TQ1p  1 3.660000e-01    4.738000e+00
 SC1eq   Q1p  1 4.300000e-01    2.562000e+00
 SC1eq  SQ1p  1 4.100000e-01    3.271000e+00
 SC1eq  TQ1p  1 3.660000e-01    4.165000e+00
 SX4eq   Q1p  1 4.300000e-01    4.202000e+00
 SX4eq  SQ1p  1 4.100000e-01    5.748000e+00
 SX4eq  TQ1p  1 3.650000e-01    7.695000e+00
 SX3eq   Q1p  1 4.300000e-01    4.190000e+00
 SX3eq  SQ1p  1 4.100000e-01    5.687000e+00
 SX3eq  TQ1p  1 3.650000e-01    7.566000e+00
 SX2eq   Q1p  1 4.300000e-01    3.981000e+00
 SX2eq  SQ1p  1 4.100000e-01    5.299000e+00
 SX2eq  TQ1p  1 3.650000e-01    6.987000e+00
 SX1eq   Q1p  1 4.300000e-01    3.712000e+00
 SX1eq  SQ1p  1 4.100000e-01    4.758000e+00
 SX1eq  TQ1p  1 3.650000e-01    6.098000e+00
  SP6h   Q1p  1 4.300000e-01    4.237000e+00
  SP6h  SQ1p  1 4.100000e-01    5.683000e+00
  SP6h  TQ1p  1 3.650000e-01    7.791000e+00
  SP5h   Q1p  1 4.300000e-01    4.441000e+00
  SP5h  SQ1p  1 4.100000e-01    5.946000e+00
  SP5h  TQ1p  1 3.650000e-01    8.108000e+00
  SP4h   Q1p  1 4.300000e-01    4.444000e+00
  SP4h  SQ1p  1 4.100000e-01    5.961000e+00
  SP4h  TQ1p  1 3.650000e-01    8.139000e+00
  SP3h   Q1p  1 4.300000e-01    4.444000e+00
  SP3h  SQ1p  1 4.100000e-01    5.961000e+00
  SP3h  TQ1p  1 3.650000e-01    8.140000e+00
  SP2h   Q1p  1 4.300000e-01    4.444000e+00
  SP2h  SQ1p  1 4.100000e-01    5.958000e+00
  SP2h  TQ1p  1 3.650000e-01    8.133000e+00
  SP1h   Q1p  1 4.300000e-01    4.443000e+00
  SP1h  SQ1p  1 4.100000e-01    5.953000e+00
  SP1h  TQ1p  1 3.650000e-01    8.123000e+00
  SN6h   Q1p  1 4.300000e-01    4.441000e+00
  SN6h  SQ1p  1 4.100000e-01    5.946000e+00
  SN6h  TQ1p  1 3.650000e-01    8.108000e+00
  SN5h   Q1p  1 4.300000e-01    4.239000e+00
  SN5h  SQ1p  1 4.100000e-01    5.694000e+00
  SN5h  TQ1p  1 3.650000e-01    7.814000e+00
  SN4h   Q1p  1 4.300000e-01    4.236000e+00
  SN4h  SQ1p  1 4.100000e-01    5.678000e+00
  SN4h  TQ1p  1 3.650000e-01    7.779000e+00
  SN3h   Q1p  1 4.300000e-01    4.231000e+00
  SN3h  SQ1p  1 4.100000e-01    5.653000e+00
  SN3h  TQ1p  1 3.650000e-01    7.727000e+00
  SN2h   Q1p  1 4.300000e-01    4.043000e+00
  SN2h  SQ1p  1 4.100000e-01    5.375000e+00
  SN2h  TQ1p  1 3.650000e-01    7.387000e+00
  SN1h   Q1p  1 4.300000e-01    3.821000e+00
  SN1h  SQ1p  1 4.100000e-01    5.084000e+00
  SN1h  TQ1p  1 3.650000e-01    7.030000e+00
  SC6h   Q1p  1 4.300000e-01    4.010000e+00
  SC6h  SQ1p  1 4.100000e-01    5.207000e+00
  SC6h  TQ1p  1 3.650000e-01    7.036000e+00
  SC5h   Q1p  1 4.300000e-01    3.563000e+00
  SC5h  SQ1p  1 4.100000e-01    4.648000e+00
  SC5h  TQ1p  1 3.650000e-01    6.392000e+00
  SC4h   Q1p  1 4.300000e-01    3.297000e+00
  SC4h  SQ1p  1 4.100000e-01    4.264000e+00
  SC4h  TQ1p  1 3.650000e-01    5.911000e+00
  SC3h   Q1p  1 4.300000e-01    3.102000e+00
  SC3h  SQ1p  1 4.100000e-01    3.888000e+00
  SC3h  TQ1p  1 3.650000e-01    5.278000e+00
  SC2h   Q1p  1 4.300000e-01    2.026000e+00
  SC2h  SQ1p  1 4.180000e-01    2.876000e+00
  SC2h  TQ1p  1 4.090000e-01    3.888000e+00
  SC1h   Q1p  1 4.300000e-01    1.972000e+00
  SC1h  SQ1p  1 4.180000e-01    2.607000e+00
  SC1h  TQ1p  1 4.090000e-01    3.376000e+00
  SX4h   Q1p  1 4.300000e-01    3.592000e+00
  SX4h  SQ1p  1 4.100000e-01    4.798000e+00
  SX4h  TQ1p  1 3.650000e-01    6.705000e+00
  SX3h   Q1p  1 4.300000e-01    3.580000e+00
  SX3h  SQ1p  1 4.100000e-01    4.737000e+00
  SX3h  TQ1p  1 3.650000e-01    6.576000e+00
  SX2h   Q1p  1 4.300000e-01    3.311000e+00
  SX2h  SQ1p  1 4.100000e-01    4.339000e+00
  SX2h  TQ1p  1 3.650000e-01    6.067000e+00
  SX1h   Q1p  1 4.300000e-01    3.102000e+00
  SX1h  SQ1p  1 4.100000e-01    3.888000e+00
  SX1h  TQ1p  1 3.650000e-01    5.278000e+00
 SP6dh   Q1p  1 4.300000e-01    4.057000e+00
 SP6dh  SQ1p  1 4.100000e-01    5.683000e+00
 SP6dh  TQ1p  1 3.650000e-01    7.791000e+00
 SP5dh   Q1p  1 4.300000e-01    4.061000e+00
 SP5dh  SQ1p  1 4.100000e-01    5.706000e+00
 SP5dh  TQ1p  1 3.650000e-01    7.838000e+00
 SP4dh   Q1p  1 4.300000e-01    4.064000e+00
 SP4dh  SQ1p  1 4.100000e-01    5.721000e+00
 SP4dh  TQ1p  1 3.650000e-01    7.869000e+00
 SP3dh   Q1p  1 4.300000e-01    4.064000e+00
 SP3dh  SQ1p  1 4.100000e-01    5.721000e+00
 SP3dh  TQ1p  1 3.650000e-01    7.870000e+00
 SP2dh   Q1p  1 4.300000e-01    4.064000e+00
 SP2dh  SQ1p  1 4.100000e-01    5.718000e+00
 SP2dh  TQ1p  1 3.650000e-01    7.863000e+00
 SP1dh   Q1p  1 4.300000e-01    4.063000e+00
 SP1dh  SQ1p  1 4.100000e-01    5.713000e+00
 SP1dh  TQ1p  1 3.650000e-01    7.853000e+00
 SN6dh   Q1p  1 4.300000e-01    4.061000e+00
 SN6dh  SQ1p  1 4.100000e-01    5.706000e+00
 SN6dh  TQ1p  1 3.650000e-01    7.838000e+00
 SN5dh   Q1p  1 4.300000e-01    4.059000e+00
 SN5dh  SQ1p  1 4.100000e-01    5.694000e+00
 SN5dh  TQ1p  1 3.650000e-01    7.814000e+00
 SN4dh   Q1p  1 4.300000e-01    4.056000e+00
 SN4dh  SQ1p  1 4.100000e-01    5.678000e+00
 SN4dh  TQ1p  1 3.650000e-01    7.779000e+00
 SN3dh   Q1p  1 4.300000e-01    4.051000e+00
 SN3dh  SQ1p  1 4.100000e-01    5.653000e+00
 SN3dh  TQ1p  1 3.650000e-01    7.727000e+00
 SN2dh   Q1p  1 4.300000e-01    3.613000e+00
 SN2dh  SQ1p  1 4.100000e-01    5.145000e+00
 SN2dh  TQ1p  1 3.650000e-01    7.157000e+00
 SN1dh   Q1p  1 4.300000e-01    3.371000e+00
 SN1dh  SQ1p  1 4.100000e-01    4.844000e+00
 SN1dh  TQ1p  1 3.650000e-01    6.800000e+00
 SP6ah   Q1p  1 4.300000e-01    4.437000e+00
 SP6ah  SQ1p  1 4.100000e-01    6.193000e+00
 SP6ah  TQ1p  1 3.650000e-01    8.331000e+00
 SP5ah   Q1p  1 4.300000e-01    4.641000e+00
 SP5ah  SQ1p  1 4.100000e-01    6.436000e+00
 SP5ah  TQ1p  1 3.650000e-01    8.648000e+00
 SP4ah   Q1p  1 4.300000e-01    4.644000e+00
 SP4ah  SQ1p  1 4.100000e-01    6.451000e+00
 SP4ah  TQ1p  1 3.650000e-01    8.679000e+00
 SP3ah   Q1p  1 4.300000e-01    4.644000e+00
 SP3ah  SQ1p  1 4.100000e-01    6.451000e+00
 SP3ah  TQ1p  1 3.650000e-01    8.680000e+00
 SP2ah   Q1p  1 4.300000e-01    4.644000e+00
 SP2ah  SQ1p  1 4.100000e-01    6.448000e+00
 SP2ah  TQ1p  1 3.650000e-01    8.673000e+00
 SP1ah   Q1p  1 4.300000e-01    4.643000e+00
 SP1ah  SQ1p  1 4.100000e-01    6.443000e+00
 SP1ah  TQ1p  1 3.650000e-01    8.663000e+00
 SN6ah   Q1p  1 4.300000e-01    4.641000e+00
 SN6ah  SQ1p  1 4.100000e-01    6.436000e+00
 SN6ah  TQ1p  1 3.650000e-01    8.648000e+00
 SN5ah   Q1p  1 4.300000e-01    4.439000e+00
 SN5ah  SQ1p  1 4.100000e-01    6.204000e+00
 SN5ah  TQ1p  1 3.650000e-01    8.354000e+00
 SN4ah   Q1p  1 4.300000e-01    4.436000e+00
 SN4ah  SQ1p  1 4.100000e-01    6.188000e+00
 SN4ah  TQ1p  1 3.650000e-01    8.319000e+00
 SN3ah   Q1p  1 4.300000e-01    4.431000e+00
 SN3ah  SQ1p  1 4.100000e-01    6.163000e+00
 SN3ah  TQ1p  1 3.650000e-01    8.267000e+00
 SN2ah   Q1p  1 4.300000e-01    4.223000e+00
 SN2ah  SQ1p  1 4.100000e-01    5.855000e+00
 SN2ah  TQ1p  1 3.650000e-01    7.917000e+00
 SN1ah   Q1p  1 4.300000e-01    4.031000e+00
 SN1ah  SQ1p  1 4.100000e-01    5.554000e+00
 SN1ah  TQ1p  1 3.650000e-01    7.520000e+00
 SC6vh   Q1p  1 4.300000e-01    3.350000e+00
 SC6vh  SQ1p  1 4.100000e-01    4.737000e+00
 SC6vh  TQ1p  1 3.650000e-01    6.576000e+00
 SC5vh   Q1p  1 4.300000e-01    2.933000e+00
 SC5vh  SQ1p  1 4.100000e-01    4.248000e+00
 SC5vh  TQ1p  1 3.650000e-01    6.032000e+00
 SC4vh   Q1p  1 4.300000e-01    2.697000e+00
 SC4vh  SQ1p  1 4.100000e-01    3.954000e+00
 SC4vh  TQ1p  1 3.660000e-01    5.590000e+00
 SC3vh   Q1p  1 4.300000e-01    2.492000e+00
 SC3vh  SQ1p  1 4.100000e-01    3.598000e+00
 SC3vh  TQ1p  1 3.780000e-01    4.856000e+00
 SC2vh   Q1p  1 5.080000e-01    1.361000e+00
 SC2vh  SQ1p  1 4.530000e-01    2.512000e+00
 SC2vh  TQ1p  1 4.840000e-01    3.263000e+00
 SC1vh   Q1p  1 5.080000e-01    1.315000e+00
 SC1vh  SQ1p  1 4.530000e-01    2.264000e+00
 SC1vh  TQ1p  1 4.840000e-01    2.830000e+00
 SX4vh   Q1p  1 4.300000e-01    2.962000e+00
 SX4vh  SQ1p  1 4.100000e-01    4.398000e+00
 SX4vh  TQ1p  1 3.650000e-01    6.345000e+00
 SX3vh   Q1p  1 4.300000e-01    2.950000e+00
 SX3vh  SQ1p  1 4.100000e-01    4.337000e+00
 SX3vh  TQ1p  1 3.650000e-01    6.216000e+00
 SX2vh   Q1p  1 4.300000e-01    2.711000e+00
 SX2vh  SQ1p  1 4.100000e-01    4.029000e+00
 SX2vh  TQ1p  1 3.660000e-01    5.746000e+00
 SX1vh   Q1p  1 4.300000e-01    2.492000e+00
 SX1vh  SQ1p  1 4.100000e-01    3.598000e+00
 SX1vh  TQ1p  1 3.780000e-01    4.856000e+00
 SC6eh   Q1p  1 4.300000e-01    4.010000e+00
 SC6eh  SQ1p  1 4.100000e-01    5.447000e+00
 SC6eh  TQ1p  1 3.650000e-01    7.296000e+00
 SC5eh   Q1p  1 4.300000e-01    3.563000e+00
 SC5eh  SQ1p  1 4.100000e-01    4.888000e+00
 SC5eh  TQ1p  1 3.650000e-01    6.622000e+00
 SC4eh   Q1p  1 4.300000e-01    3.307000e+00
 SC4eh  SQ1p  1 4.100000e-01    4.514000e+00
 SC4eh  TQ1p  1 3.650000e-01    6.111000e+00
 SC3eh   Q1p  1 4.300000e-01    3.252000e+00
 SC3eh  SQ1p  1 4.100000e-01    4.038000e+00
 SC3eh  TQ1p  1 3.650000e-01    5.438000e+00
 SC2eh   Q1p  1 4.300000e-01    2.026000e+00
 SC2eh  SQ1p  1 4.140000e-01    3.051000e+00
 SC2eh  TQ1p  1 4.040000e-01    3.973000e+00
 SC1eh   Q1p  1 4.300000e-01    1.972000e+00
 SC1eh  SQ1p  1 4.140000e-01    2.779000e+00
 SC1eh  TQ1p  1 4.040000e-01    3.454000e+00
 SX4eh   Q1p  1 4.300000e-01    3.592000e+00
 SX4eh  SQ1p  1 4.100000e-01    5.038000e+00
 SX4eh  TQ1p  1 3.650000e-01    6.935000e+00
 SX3eh   Q1p  1 4.300000e-01    3.580000e+00
 SX3eh  SQ1p  1 4.100000e-01    4.977000e+00
 SX3eh  TQ1p  1 3.650000e-01    6.806000e+00
 SX2eh   Q1p  1 4.300000e-01    3.321000e+00
 SX2eh  SQ1p  1 4.100000e-01    4.589000e+00
 SX2eh  TQ1p  1 3.650000e-01    6.267000e+00
 SX1eh   Q1p  1 4.300000e-01    3.252000e+00
 SX1eh  SQ1p  1 4.100000e-01    4.038000e+00
 SX1eh  TQ1p  1 3.650000e-01    5.438000e+00
  SP6r   Q1p  1 4.300000e-01    4.237000e+00
  SP6r  SQ1p  1 4.100000e-01    5.683000e+00
  SP6r  TQ1p  1 3.650000e-01    7.791000e+00
  SP5r   Q1p  1 4.300000e-01    4.441000e+00
  SP5r  SQ1p  1 4.100000e-01    5.946000e+00
  SP5r  TQ1p  1 3.650000e-01    8.108000e+00
  SP4r   Q1p  1 4.300000e-01    4.444000e+00
  SP4r  SQ1p  1 4.100000e-01    5.961000e+00
  SP4r  TQ1p  1 3.650000e-01    8.139000e+00
  SP3r   Q1p  1 4.300000e-01    4.444000e+00
  SP3r  SQ1p  1 4.100000e-01    5.961000e+00
  SP3r  TQ1p  1 3.650000e-01    8.140000e+00
  SP2r   Q1p  1 4.300000e-01    4.444000e+00
  SP2r  SQ1p  1 4.100000e-01    5.958000e+00
  SP2r  TQ1p  1 3.650000e-01    8.133000e+00
  SP1r   Q1p  1 4.300000e-01    4.443000e+00
  SP1r  SQ1p  1 4.100000e-01    5.953000e+00
  SP1r  TQ1p  1 3.650000e-01    8.123000e+00
  SN6r   Q1p  1 4.300000e-01    4.441000e+00
  SN6r  SQ1p  1 4.100000e-01    5.946000e+00
  SN6r  TQ1p  1 3.650000e-01    8.108000e+00
  SN5r   Q1p  1 4.300000e-01    4.239000e+00
  SN5r  SQ1p  1 4.100000e-01    5.694000e+00
  SN5r  TQ1p  1 3.650000e-01    7.814000e+00
  SN4r   Q1p  1 4.300000e-01    4.236000e+00
  SN4r  SQ1p  1 4.100000e-01    5.678000e+00
  SN4r  TQ1p  1 3.650000e-01    7.779000e+00
  SN3r   Q1p  1 4.300000e-01    4.231000e+00
  SN3r  SQ1p  1 4.100000e-01    5.653000e+00
  SN3r  TQ1p  1 3.650000e-01    7.727000e+00
  SN2r   Q1p  1 4.300000e-01    4.043000e+00
  SN2r  SQ1p  1 4.100000e-01    5.375000e+00
  SN2r  TQ1p  1 3.650000e-01    7.387000e+00
  SN1r   Q1p  1 4.300000e-01    3.821000e+00
  SN1r  SQ1p  1 4.100000e-01    5.084000e+00
  SN1r  TQ1p  1 3.650000e-01    7.030000e+00
  SC6r   Q1p  1 4.300000e-01    4.010000e+00
  SC6r  SQ1p  1 4.100000e-01    5.207000e+00
  SC6r  TQ1p  1 3.650000e-01    7.036000e+00
  SC5r   Q1p  1 4.300000e-01    3.563000e+00
  SC5r  SQ1p  1 4.100000e-01    4.648000e+00
  SC5r  TQ1p  1 3.650000e-01    6.392000e+00
  SC4r   Q1p  1 4.300000e-01    3.297000e+00
  SC4r  SQ1p  1 4.100000e-01    4.264000e+00
  SC4r  TQ1p  1 3.650000e-01    5.911000e+00
  SC3r   Q1p  1 4.300000e-01    3.102000e+00
  SC3r  SQ1p  1 4.100000e-01    3.888000e+00
  SC3r  TQ1p  1 3.650000e-01    5.278000e+00
  SC2r   Q1p  1 4.300000e-01    2.026000e+00
  SC2r  SQ1p  1 4.180000e-01    2.876000e+00
  SC2r  TQ1p  1 4.090000e-01    3.888000e+00
  SC1r   Q1p  1 4.300000e-01    1.972000e+00
  SC1r  SQ1p  1 4.180000e-01    2.607000e+00
  SC1r  TQ1p  1 4.090000e-01    3.376000e+00
  SX4r   Q1p  1 4.300000e-01    3.592000e+00
  SX4r  SQ1p  1 4.100000e-01    4.798000e+00
  SX4r  TQ1p  1 3.650000e-01    6.705000e+00
  SX3r   Q1p  1 4.300000e-01    3.580000e+00
  SX3r  SQ1p  1 4.100000e-01    4.737000e+00
  SX3r  TQ1p  1 3.650000e-01    6.576000e+00
  SX2r   Q1p  1 4.300000e-01    3.311000e+00
  SX2r  SQ1p  1 4.100000e-01    4.339000e+00
  SX2r  TQ1p  1 3.650000e-01    6.067000e+00
  SX1r   Q1p  1 4.300000e-01    3.102000e+00
  SX1r  SQ1p  1 4.100000e-01    3.888000e+00
  SX1r  TQ1p  1 3.650000e-01    5.278000e+00
 SP6dr   Q1p  1 4.300000e-01    4.057000e+00
 SP6dr  SQ1p  1 4.100000e-01    5.683000e+00
 SP6dr  TQ1p  1 3.650000e-01    7.791000e+00
 SP5dr   Q1p  1 4.300000e-01    4.061000e+00
 SP5dr  SQ1p  1 4.100000e-01    5.706000e+00
 SP5dr  TQ1p  1 3.650000e-01    7.838000e+00
 SP4dr   Q1p  1 4.300000e-01    4.064000e+00
 SP4dr  SQ1p  1 4.100000e-01    5.721000e+00
 SP4dr  TQ1p  1 3.650000e-01    7.869000e+00
 SP3dr   Q1p  1 4.300000e-01    4.064000e+00
 SP3dr  SQ1p  1 4.100000e-01    5.721000e+00
 SP3dr  TQ1p  1 3.650000e-01    7.870000e+00
 SP2dr   Q1p  1 4.300000e-01    4.064000e+00
 SP2dr  SQ1p  1 4.100000e-01    5.718000e+00
 SP2dr  TQ1p  1 3.650000e-01    7.863000e+00
 SP1dr   Q1p  1 4.300000e-01    4.063000e+00
 SP1dr  SQ1p  1 4.100000e-01    5.713000e+00
 SP1dr  TQ1p  1 3.650000e-01    7.853000e+00
 SN6dr   Q1p  1 4.300000e-01    4.061000e+00
 SN6dr  SQ1p  1 4.100000e-01    5.706000e+00
 SN6dr  TQ1p  1 3.650000e-01    7.838000e+00
 SN5dr   Q1p  1 4.300000e-01    4.059000e+00
 SN5dr  SQ1p  1 4.100000e-01    5.694000e+00
 SN5dr  TQ1p  1 3.650000e-01    7.814000e+00
 SN4dr   Q1p  1 4.300000e-01    4.056000e+00
 SN4dr  SQ1p  1 4.100000e-01    5.678000e+00
 SN4dr  TQ1p  1 3.650000e-01    7.779000e+00
 SN3dr   Q1p  1 4.300000e-01    4.051000e+00
 SN3dr  SQ1p  1 4.100000e-01    5.653000e+00
 SN3dr  TQ1p  1 3.650000e-01    7.727000e+00
 SN2dr   Q1p  1 4.300000e-01    3.613000e+00
 SN2dr  SQ1p  1 4.100000e-01    5.145000e+00
 SN2dr  TQ1p  1 3.650000e-01    7.157000e+00
 SN1dr   Q1p  1 4.300000e-01    3.371000e+00
 SN1dr  SQ1p  1 4.100000e-01    4.844000e+00
 SN1dr  TQ1p  1 3.650000e-01    6.800000e+00
 SP6ar   Q1p  1 4.300000e-01    4.437000e+00
 SP6ar  SQ1p  1 4.100000e-01    6.193000e+00
 SP6ar  TQ1p  1 3.650000e-01    8.331000e+00
 SP5ar   Q1p  1 4.300000e-01    4.641000e+00
 SP5ar  SQ1p  1 4.100000e-01    6.436000e+00
 SP5ar  TQ1p  1 3.650000e-01    8.648000e+00
 SP4ar   Q1p  1 4.300000e-01    4.644000e+00
 SP4ar  SQ1p  1 4.100000e-01    6.451000e+00
 SP4ar  TQ1p  1 3.650000e-01    8.679000e+00
 SP3ar   Q1p  1 4.300000e-01    4.644000e+00
 SP3ar  SQ1p  1 4.100000e-01    6.451000e+00
 SP3ar  TQ1p  1 3.650000e-01    8.680000e+00
 SP2ar   Q1p  1 4.300000e-01    4.644000e+00
 SP2ar  SQ1p  1 4.100000e-01    6.448000e+00
 SP2ar  TQ1p  1 3.650000e-01    8.673000e+00
 SP1ar   Q1p  1 4.300000e-01    4.643000e+00
 SP1ar  SQ1p  1 4.100000e-01    6.443000e+00
 SP1ar  TQ1p  1 3.650000e-01    8.663000e+00
 SN6ar   Q1p  1 4.300000e-01    4.641000e+00
 SN6ar  SQ1p  1 4.100000e-01    6.436000e+00
 SN6ar  TQ1p  1 3.650000e-01    8.648000e+00
 SN5ar   Q1p  1 4.300000e-01    4.439000e+00
 SN5ar  SQ1p  1 4.100000e-01    6.204000e+00
 SN5ar  TQ1p  1 3.650000e-01    8.354000e+00
 SN4ar   Q1p  1 4.300000e-01    4.436000e+00
 SN4ar  SQ1p  1 4.100000e-01    6.188000e+00
 SN4ar  TQ1p  1 3.650000e-01    8.319000e+00
 SN3ar   Q1p  1 4.300000e-01    4.431000e+00
 SN3ar  SQ1p  1 4.100000e-01    6.163000e+00
 SN3ar  TQ1p  1 3.650000e-01    8.267000e+00
 SN2ar   Q1p  1 4.300000e-01    4.223000e+00
 SN2ar  SQ1p  1 4.100000e-01    5.855000e+00
 SN2ar  TQ1p  1 3.650000e-01    7.917000e+00
 SN1ar   Q1p  1 4.300000e-01    4.031000e+00
 SN1ar  SQ1p  1 4.100000e-01    5.554000e+00
 SN1ar  TQ1p  1 3.650000e-01    7.520000e+00
 SC6vr   Q1p  1 4.300000e-01    3.350000e+00
 SC6vr  SQ1p  1 4.100000e-01    4.737000e+00
 SC6vr  TQ1p  1 3.650000e-01    6.576000e+00
 SC5vr   Q1p  1 4.300000e-01    2.933000e+00
 SC5vr  SQ1p  1 4.100000e-01    4.248000e+00
 SC5vr  TQ1p  1 3.650000e-01    6.032000e+00
 SC4vr   Q1p  1 4.300000e-01    2.697000e+00
 SC4vr  SQ1p  1 4.100000e-01    3.954000e+00
 SC4vr  TQ1p  1 3.660000e-01    5.590000e+00
 SC3vr   Q1p  1 4.300000e-01    2.492000e+00
 SC3vr  SQ1p  1 4.100000e-01    3.598000e+00
 SC3vr  TQ1p  1 3.780000e-01    4.856000e+00
 SC2vr   Q1p  1 5.080000e-01    1.361000e+00
 SC2vr  SQ1p  1 4.530000e-01    2.512000e+00
 SC2vr  TQ1p  1 4.840000e-01    3.263000e+00
 SC1vr   Q1p  1 5.080000e-01    1.315000e+00
 SC1vr  SQ1p  1 4.530000e-01    2.264000e+00
 SC1vr  TQ1p  1 4.840000e-01    2.830000e+00
 SX4vr   Q1p  1 4.300000e-01    2.962000e+00
 SX4vr  SQ1p  1 4.100000e-01    4.398000e+00
 SX4vr  TQ1p  1 3.650000e-01    6.345000e+00
 SX3vr   Q1p  1 4.300000e-01    2.950000e+00
 SX3vr  SQ1p  1 4.100000e-01    4.337000e+00
 SX3vr  TQ1p  1 3.650000e-01    6.216000e+00
 SX2vr   Q1p  1 4.300000e-01    2.711000e+00
 SX2vr  SQ1p  1 4.100000e-01    4.029000e+00
 SX2vr  TQ1p  1 3.660000e-01    5.746000e+00
 SX1vr   Q1p  1 4.300000e-01    2.492000e+00
 SX1vr  SQ1p  1 4.100000e-01    3.598000e+00
 SX1vr  TQ1p  1 3.780000e-01    4.856000e+00
 SC6er   Q1p  1 4.300000e-01    4.010000e+00
 SC6er  SQ1p  1 4.100000e-01    5.447000e+00
 SC6er  TQ1p  1 3.650000e-01    7.296000e+00
 SC5er   Q1p  1 4.300000e-01    3.563000e+00
 SC5er  SQ1p  1 4.100000e-01    4.888000e+00
 SC5er  TQ1p  1 3.650000e-01    6.622000e+00
 SC4er   Q1p  1 4.300000e-01    3.307000e+00
 SC4er  SQ1p  1 4.100000e-01    4.514000e+00
 SC4er  TQ1p  1 3.650000e-01    6.111000e+00
 SC3er   Q1p  1 4.300000e-01    3.252000e+00
 SC3er  SQ1p  1 4.100000e-01    4.038000e+00
 SC3er  TQ1p  1 3.650000e-01    5.438000e+00
 SC2er   Q1p  1 4.300000e-01    2.026000e+00
 SC2er  SQ1p  1 4.140000e-01    3.051000e+00
 SC2er  TQ1p  1 4.040000e-01    3.973000e+00
 SC1er   Q1p  1 4.300000e-01    1.972000e+00
 SC1er  SQ1p  1 4.140000e-01    2.779000e+00
 SC1er  TQ1p  1 4.040000e-01    3.454000e+00
 SX4er   Q1p  1 4.300000e-01    3.592000e+00
 SX4er  SQ1p  1 4.100000e-01    5.038000e+00
 SX4er  TQ1p  1 3.650000e-01    6.935000e+00
 SX3er   Q1p  1 4.300000e-01    3.580000e+00
 SX3er  SQ1p  1 4.100000e-01    4.977000e+00
 SX3er  TQ1p  1 3.650000e-01    6.806000e+00
 SX2er   Q1p  1 4.300000e-01    3.321000e+00
 SX2er  SQ1p  1 4.100000e-01    4.589000e+00
 SX2er  TQ1p  1 3.650000e-01    6.267000e+00
 SX1er   Q1p  1 4.300000e-01    3.252000e+00
 SX1er  SQ1p  1 4.100000e-01    4.038000e+00
 SX1er  TQ1p  1 3.650000e-01    5.438000e+00
   TP6   Q1p  1 3.950000e-01    3.572000e+00
   TP6  SQ1p  1 3.650000e-01    4.927000e+00
   TP6  TQ1p  1 3.400000e-01    7.114000e+00
   TP5   Q1p  1 3.950000e-01    3.820000e+00
   TP5  SQ1p  1 3.650000e-01    5.240000e+00
   TP5  TQ1p  1 3.400000e-01    7.448000e+00
   TP4   Q1p  1 3.950000e-01    3.827000e+00
   TP4  SQ1p  1 3.650000e-01    5.279000e+00
   TP4  TQ1p  1 3.400000e-01    7.533000e+00
   TP3   Q1p  1 3.950000e-01    3.830000e+00
   TP3  SQ1p  1 3.650000e-01    5.294000e+00
   TP3  TQ1p  1 3.400000e-01    7.566000e+00
   TP2   Q1p  1 3.950000e-01    3.831000e+00
   TP2  SQ1p  1 3.650000e-01    5.300000e+00
   TP2  TQ1p  1 3.400000e-01    7.580000e+00
   TP1   Q1p  1 3.950000e-01    3.831000e+00
   TP1  SQ1p  1 3.650000e-01    5.302000e+00
   TP1  TQ1p  1 3.400000e-01    7.585000e+00
   TN6   Q1p  1 3.950000e-01    3.831000e+00
   TN6  SQ1p  1 3.650000e-01    5.303000e+00
   TN6  TQ1p  1 3.400000e-01    7.586000e+00
   TN5   Q1p  1 3.950000e-01    3.591000e+00
   TN5  SQ1p  1 3.650000e-01    5.030000e+00
   TN5  TQ1p  1 3.400000e-01    7.341000e+00
   TN4   Q1p  1 3.950000e-01    3.590000e+00
   TN4  SQ1p  1 3.650000e-01    5.024000e+00
   TN4  TQ1p  1 3.400000e-01    7.326000e+00
   TN3   Q1p  1 3.950000e-01    3.587000e+00
   TN3  SQ1p  1 3.650000e-01    5.011000e+00
   TN3  TQ1p  1 3.400000e-01    7.298000e+00
   TN2   Q1p  1 3.950000e-01    3.333000e+00
   TN2  SQ1p  1 3.650000e-01    4.728000e+00
   TN2  TQ1p  1 3.400000e-01    7.028000e+00
   TN1   Q1p  1 3.950000e-01    3.086000e+00
   TN1  SQ1p  1 3.650000e-01    4.458000e+00
   TN1  TQ1p  1 3.400000e-01    6.679000e+00
   TC6   Q1p  1 3.950000e-01    3.312000e+00
   TC6  SQ1p  1 3.650000e-01    4.612000e+00
   TC6  TQ1p  1 3.400000e-01    6.772000e+00
   TC5   Q1p  1 3.950000e-01    2.860000e+00
   TC5  SQ1p  1 3.650000e-01    4.087000e+00
   TC5  TQ1p  1 3.400000e-01    6.120000e+00
   TC4   Q1p  1 3.950000e-01    2.652000e+00
   TC4  SQ1p  1 3.650000e-01    3.787000e+00
   TC4  TQ1p  1 3.400000e-01    5.640000e+00
   TC3   Q1p  1 3.950000e-01    2.421000e+00
   TC3  SQ1p  1 3.650000e-01    3.456000e+00
   TC3  TQ1p  1 3.400000e-01    4.984000e+00
   TC2   Q1p  1 4.010000e-01    1.264000e+00
   TC2  SQ1p  1 4.090000e-01    2.479000e+00
   TC2  TQ1p  1 4.240000e-01    3.541000e+00
   TC1   Q1p  1 4.010000e-01    1.227000e+00
   TC1  SQ1p  1 4.090000e-01    2.291000e+00
   TC1  TQ1p  1 4.240000e-01    3.171000e+00
   TX4   Q1p  1 3.950000e-01    2.880000e+00
   TX4  SQ1p  1 3.650000e-01    4.196000e+00
   TX4  TQ1p  1 3.400000e-01    6.360000e+00
   TX3   Q1p  1 3.950000e-01    2.872000e+00
   TX3  SQ1p  1 3.650000e-01    4.152000e+00
   TX3  TQ1p  1 3.400000e-01    6.262000e+00
   TX2   Q1p  1 3.950000e-01    2.662000e+00
   TX2  SQ1p  1 3.650000e-01    3.843000e+00
   TX2  TQ1p  1 3.400000e-01    5.763000e+00
   TX1   Q1p  1 3.950000e-01    2.421000e+00
   TX1  SQ1p  1 3.650000e-01    3.456000e+00
   TX1  TQ1p  1 3.400000e-01    4.984000e+00
  TP6d   Q1p  1 3.950000e-01    3.572000e+00
  TP6d  SQ1p  1 3.650000e-01    4.927000e+00
  TP6d  TQ1p  1 3.400000e-01    7.114000e+00
  TP5d   Q1p  1 3.950000e-01    3.580000e+00
  TP5d  SQ1p  1 3.650000e-01    4.970000e+00
  TP5d  TQ1p  1 3.400000e-01    7.208000e+00
  TP4d   Q1p  1 3.950000e-01    3.587000e+00
  TP4d  SQ1p  1 3.650000e-01    5.009000e+00
  TP4d  TQ1p  1 3.400000e-01    7.293000e+00
  TP3d   Q1p  1 3.950000e-01    3.590000e+00
  TP3d  SQ1p  1 3.650000e-01    5.024000e+00
  TP3d  TQ1p  1 3.400000e-01    7.326000e+00
  TP2d   Q1p  1 3.950000e-01    3.591000e+00
  TP2d  SQ1p  1 3.650000e-01    5.030000e+00
  TP2d  TQ1p  1 3.400000e-01    7.340000e+00
  TP1d   Q1p  1 3.950000e-01    3.591000e+00
  TP1d  SQ1p  1 3.650000e-01    5.032000e+00
  TP1d  TQ1p  1 3.400000e-01    7.345000e+00
  TN6d   Q1p  1 3.950000e-01    3.591000e+00
  TN6d  SQ1p  1 3.650000e-01    5.033000e+00
  TN6d  TQ1p  1 3.400000e-01    7.346000e+00
  TN5d   Q1p  1 3.950000e-01    3.591000e+00
  TN5d  SQ1p  1 3.650000e-01    5.030000e+00
  TN5d  TQ1p  1 3.400000e-01    7.341000e+00
  TN4d   Q1p  1 3.950000e-01    3.590000e+00
  TN4d  SQ1p  1 3.650000e-01    5.024000e+00
  TN4d  TQ1p  1 3.400000e-01    7.326000e+00
  TN3d   Q1p  1 3.950000e-01    3.587000e+00
  TN3d  SQ1p  1 3.650000e-01    5.011000e+00
  TN3d  TQ1p  1 3.400000e-01    7.298000e+00
  TN2d   Q1p  1 3.950000e-01    3.093000e+00
  TN2d  SQ1p  1 3.650000e-01    4.498000e+00
  TN2d  TQ1p  1 3.400000e-01    6.768000e+00
  TN1d   Q1p  1 3.950000e-01    2.886000e+00
  TN1d  SQ1p  1 3.650000e-01    4.228000e+00
  TN1d  TQ1p  1 3.400000e-01    6.429000e+00
  TP6a   Q1p  1 3.950000e-01    4.052000e+00
  TP6a  SQ1p  1 3.650000e-01    5.467000e+00
  TP6a  TQ1p  1 3.400000e-01    7.834000e+00
  TP5a   Q1p  1 3.950000e-01    4.300000e+00
  TP5a  SQ1p  1 3.650000e-01    5.780000e+00
  TP5a  TQ1p  1 3.400000e-01    8.178000e+00
  TP4a   Q1p  1 3.950000e-01    4.307000e+00
  TP4a  SQ1p  1 3.650000e-01    5.819000e+00
  TP4a  TQ1p  1 3.400000e-01    8.263000e+00
  TP3a   Q1p  1 3.950000e-01    4.310000e+00
  TP3a  SQ1p  1 3.650000e-01    5.834000e+00
  TP3a  TQ1p  1 3.400000e-01    8.296000e+00
  TP2a   Q1p  1 3.950000e-01    4.311000e+00
  TP2a  SQ1p  1 3.650000e-01    5.840000e+00
  TP2a  TQ1p  1 3.400000e-01    8.310000e+00
  TP1a   Q1p  1 3.950000e-01    4.311000e+00
  TP1a  SQ1p  1 3.650000e-01    5.842000e+00
  TP1a  TQ1p  1 3.400000e-01    8.315000e+00
  TN6a   Q1p  1 3.950000e-01    4.311000e+00
  TN6a  SQ1p  1 3.650000e-01    5.843000e+00
  TN6a  TQ1p  1 3.400000e-01    8.316000e+00
  TN5a   Q1p  1 3.950000e-01    4.071000e+00
  TN5a  SQ1p  1 3.650000e-01    5.570000e+00
  TN5a  TQ1p  1 3.400000e-01    8.061000e+00
  TN4a   Q1p  1 3.950000e-01    4.070000e+00
  TN4a  SQ1p  1 3.650000e-01    5.564000e+00
  TN4a  TQ1p  1 3.400000e-01    8.046000e+00
  TN3a   Q1p  1 3.950000e-01    4.067000e+00
  TN3a  SQ1p  1 3.650000e-01    5.551000e+00
  TN3a  TQ1p  1 3.400000e-01    8.018000e+00
  TN2a   Q1p  1 3.950000e-01    3.823000e+00
  TN2a  SQ1p  1 3.650000e-01    5.258000e+00
  TN2a  TQ1p  1 3.400000e-01    7.738000e+00
  TN1a   Q1p  1 3.950000e-01    3.576000e+00
  TN1a  SQ1p  1 3.650000e-01    4.948000e+00
  TN1a  TQ1p  1 3.400000e-01    7.399000e+00
  TC6v   Q1p  1 3.950000e-01    2.872000e+00
  TC6v  SQ1p  1 3.650000e-01    4.152000e+00
  TC6v  TQ1p  1 3.400000e-01    6.262000e+00
  TC5v   Q1p  1 3.950000e-01    2.470000e+00
  TC5v  SQ1p  1 3.650000e-01    3.727000e+00
  TC5v  TQ1p  1 3.400000e-01    5.580000e+00
  TC4v   Q1p  1 3.950000e-01    2.192000e+00
  TC4v  SQ1p  1 3.660000e-01    3.472000e+00
  TC4v  TQ1p  1 3.520000e-01    5.040000e+00
  TC3v   Q1p  1 3.950000e-01    1.981000e+00
  TC3v  SQ1p  1 3.780000e-01    3.098000e+00
  TC3v  TQ1p  1 3.660000e-01    4.422000e+00
  TC2v   Q1p  1 4.650000e-01    9.460000e-01
  TC2v  SQ1p  1 4.840000e-01    2.072000e+00
  TC2v  TQ1p  1 5.050000e-01    3.002000e+00
  TC1v   Q1p  1 4.650000e-01    9.130000e-01
  TC1v  SQ1p  1 4.840000e-01    1.914000e+00
  TC1v  TQ1p  1 5.050000e-01    2.691000e+00
  TX4v   Q1p  1 3.950000e-01    2.490000e+00
  TX4v  SQ1p  1 3.650000e-01    3.836000e+00
  TX4v  TQ1p  1 3.400000e-01    5.820000e+00
  TX3v   Q1p  1 3.950000e-01    2.482000e+00
  TX3v  SQ1p  1 3.650000e-01    3.792000e+00
  TX3v  TQ1p  1 3.400000e-01    5.722000e+00
  TX2v   Q1p  1 3.950000e-01    2.202000e+00
  TX2v  SQ1p  1 3.660000e-01    3.528000e+00
  TX2v  TQ1p  1 3.520000e-01    5.158000e+00
  TX1v   Q1p  1 3.950000e-01    1.981000e+00
  TX1v  SQ1p  1 3.780000e-01    3.098000e+00
  TX1v  TQ1p  1 3.660000e-01    4.422000e+00
  TC6e   Q1p  1 3.950000e-01    3.562000e+00
  TC6e  SQ1p  1 3.650000e-01    4.872000e+00
  TC6e  TQ1p  1 3.400000e-01    7.232000e+00
  TC5e   Q1p  1 3.950000e-01    3.060000e+00
  TC5e  SQ1p  1 3.650000e-01    4.317000e+00
  TC5e  TQ1p  1 3.400000e-01    6.630000e+00
  TC4e   Q1p  1 3.950000e-01    2.842000e+00
  TC4e  SQ1p  1 3.650000e-01    3.987000e+00
  TC4e  TQ1p  1 3.400000e-01    6.150000e+00
  TC3e   Q1p  1 3.950000e-01    2.621000e+00
  TC3e  SQ1p  1 3.650000e-01    3.616000e+00
  TC3e  TQ1p  1 3.400000e-01    5.524000e+00
  TC2e   Q1p  1 3.990000e-01    1.463000e+00
  TC2e  SQ1p  1 4.040000e-01    2.546000e+00
  TC2e  TQ1p  1 4.040000e-01    3.737000e+00
  TC1e   Q1p  1 3.990000e-01    1.425000e+00
  TC1e  SQ1p  1 4.040000e-01    2.356000e+00
  TC1e  TQ1p  1 4.040000e-01    3.348000e+00
  TX4e   Q1p  1 3.950000e-01    3.080000e+00
  TX4e  SQ1p  1 3.650000e-01    4.426000e+00
  TX4e  TQ1p  1 3.400000e-01    6.870000e+00
  TX3e   Q1p  1 3.950000e-01    3.072000e+00
  TX3e  SQ1p  1 3.650000e-01    4.382000e+00
  TX3e  TQ1p  1 3.400000e-01    6.772000e+00
  TX2e   Q1p  1 3.950000e-01    2.852000e+00
  TX2e  SQ1p  1 3.650000e-01    4.043000e+00
  TX2e  TQ1p  1 3.400000e-01    6.273000e+00
  TX1e   Q1p  1 3.950000e-01    2.621000e+00
  TX1e  SQ1p  1 3.650000e-01    3.616000e+00
  TX1e  TQ1p  1 3.400000e-01    5.524000e+00
  TP6q   Q1p  1 3.950000e-01    4.292000e+00
  TP6q  SQ1p  1 3.650000e-01    5.737000e+00
  TP6q  TQ1p  1 3.400000e-01    7.834000e+00
  TP5q   Q1p  1 3.950000e-01    4.620000e+00
  TP5q  SQ1p  1 3.650000e-01    6.070000e+00
  TP5q  TQ1p  1 3.400000e-01    8.178000e+00
  TP4q   Q1p  1 3.950000e-01    4.627000e+00
  TP4q  SQ1p  1 3.650000e-01    6.109000e+00
  TP4q  TQ1p  1 3.400000e-01    8.263000e+00
  TP3q   Q1p  1 3.950000e-01    4.630000e+00
  TP3q  SQ1p  1 3.650000e-01    6.124000e+00
  TP3q  TQ1p  1 3.400000e-01    8.296000e+00
  TP2q   Q1p  1 3.950000e-01    4.631000e+00
  TP2q  SQ1p  1 3.650000e-01    6.130000e+00
  TP2q  TQ1p  1 3.400000e-01    8.310000e+00
  TP1q   Q1p  1 3.950000e-01    4.631000e+00
  TP1q  SQ1p  1 3.650000e-01    6.132000e+00
  TP1q  TQ1p  1 3.400000e-01    8.315000e+00
  TN6q   Q1p  1 3.950000e-01    4.631000e+00
  TN6q  SQ1p  1 3.650000e-01    6.133000e+00
  TN6q  TQ1p  1 3.400000e-01    8.316000e+00
  TN5q   Q1p  1 3.950000e-01    4.311000e+00
  TN5q  SQ1p  1 3.650000e-01    5.840000e+00
  TN5q  TQ1p  1 3.400000e-01    8.061000e+00
  TN4q   Q1p  1 3.950000e-01    4.310000e+00
  TN4q  SQ1p  1 3.650000e-01    5.834000e+00
  TN4q  TQ1p  1 3.400000e-01    8.046000e+00
  TN3q   Q1p  1 3.950000e-01    4.307000e+00
  TN3q  SQ1p  1 3.650000e-01    5.821000e+00
  TN3q  TQ1p  1 3.400000e-01    8.018000e+00
  TN2q   Q1p  1 3.950000e-01    4.063000e+00
  TN2q  SQ1p  1 3.650000e-01    5.528000e+00
  TN2q  TQ1p  1 3.400000e-01    7.738000e+00
  TN1q   Q1p  1 3.950000e-01    3.816000e+00
  TN1q  SQ1p  1 3.650000e-01    5.218000e+00
  TN1q  TQ1p  1 3.400000e-01    7.399000e+00
  TC6q   Q1p  1 3.950000e-01    4.042000e+00
  TC6q  SQ1p  1 3.650000e-01    5.412000e+00
  TC6q  TQ1p  1 3.400000e-01    7.482000e+00
  TC5q   Q1p  1 3.950000e-01    3.550000e+00
  TC5q  SQ1p  1 3.650000e-01    4.807000e+00
  TC5q  TQ1p  1 3.400000e-01    6.850000e+00
  TC4q   Q1p  1 3.950000e-01    3.282000e+00
  TC4q  SQ1p  1 3.650000e-01    4.447000e+00
  TC4q  TQ1p  1 3.400000e-01    6.410000e+00
  TC3q   Q1p  1 3.950000e-01    3.011000e+00
  TC3q  SQ1p  1 3.650000e-01    4.046000e+00
  TC3q  TQ1p  1 3.400000e-01    5.774000e+00
  TC2q   Q1p  1 3.950000e-01    1.956000e+00
  TC2q  SQ1p  1 3.780000e-01    2.964000e+00
  TC2q  TQ1p  1 3.660000e-01    4.138000e+00
  TC1q   Q1p  1 3.950000e-01    1.917000e+00
  TC1q  SQ1p  1 3.780000e-01    2.761000e+00
  TC1q  TQ1p  1 3.660000e-01    3.709000e+00
  TX4q   Q1p  1 3.950000e-01    3.570000e+00
  TX4q  SQ1p  1 3.650000e-01    4.916000e+00
  TX4q  TQ1p  1 3.400000e-01    7.090000e+00
  TX3q   Q1p  1 3.950000e-01    3.562000e+00
  TX3q  SQ1p  1 3.650000e-01    4.872000e+00
  TX3q  TQ1p  1 3.400000e-01    6.992000e+00
  TX2q   Q1p  1 3.950000e-01    3.292000e+00
  TX2q  SQ1p  1 3.650000e-01    4.503000e+00
  TX2q  TQ1p  1 3.400000e-01    6.533000e+00
  TX1q   Q1p  1 3.950000e-01    3.011000e+00
  TX1q  SQ1p  1 3.650000e-01    4.046000e+00
  TX1q  TQ1p  1 3.400000e-01    5.774000e+00
 TP6dq   Q1p  1 3.950000e-01    4.292000e+00
 TP6dq  SQ1p  1 3.650000e-01    5.737000e+00
 TP6dq  TQ1p  1 3.400000e-01    7.834000e+00
 TP5dq   Q1p  1 3.950000e-01    4.300000e+00
 TP5dq  SQ1p  1 3.650000e-01    5.780000e+00
 TP5dq  TQ1p  1 3.400000e-01    7.928000e+00
 TP4dq   Q1p  1 3.950000e-01    4.307000e+00
 TP4dq  SQ1p  1 3.650000e-01    5.819000e+00
 TP4dq  TQ1p  1 3.400000e-01    8.013000e+00
 TP3dq   Q1p  1 3.950000e-01    4.310000e+00
 TP3dq  SQ1p  1 3.650000e-01    5.834000e+00
 TP3dq  TQ1p  1 3.400000e-01    8.046000e+00
 TP2dq   Q1p  1 3.950000e-01    4.311000e+00
 TP2dq  SQ1p  1 3.650000e-01    5.840000e+00
 TP2dq  TQ1p  1 3.400000e-01    8.060000e+00
 TP1dq   Q1p  1 3.950000e-01    4.311000e+00
 TP1dq  SQ1p  1 3.650000e-01    5.842000e+00
 TP1dq  TQ1p  1 3.400000e-01    8.065000e+00
 TN6dq   Q1p  1 3.950000e-01    4.311000e+00
 TN6dq  SQ1p  1 3.650000e-01    5.843000e+00
 TN6dq  TQ1p  1 3.400000e-01    8.066000e+00
 TN5dq   Q1p  1 3.950000e-01    4.311000e+00
 TN5dq  SQ1p  1 3.650000e-01    5.840000e+00
 TN5dq  TQ1p  1 3.400000e-01    8.061000e+00
 TN4dq   Q1p  1 3.950000e-01    4.310000e+00
 TN4dq  SQ1p  1 3.650000e-01    5.834000e+00
 TN4dq  TQ1p  1 3.400000e-01    8.046000e+00
 TN3dq   Q1p  1 3.950000e-01    4.307000e+00
 TN3dq  SQ1p  1 3.650000e-01    5.821000e+00
 TN3dq  TQ1p  1 3.400000e-01    8.018000e+00
 TN2dq   Q1p  1 3.950000e-01    3.823000e+00
 TN2dq  SQ1p  1 3.650000e-01    5.258000e+00
 TN2dq  TQ1p  1 3.400000e-01    7.488000e+00
 TN1dq   Q1p  1 3.950000e-01    3.576000e+00
 TN1dq  SQ1p  1 3.650000e-01    4.948000e+00
 TN1dq  TQ1p  1 3.400000e-01    7.159000e+00
 TP6aq   Q1p  1 3.950000e-01    4.922000e+00
 TP6aq  SQ1p  1 3.650000e-01    6.317000e+00
 TP6aq  TQ1p  1 3.400000e-01    8.634000e+00
 TP5aq   Q1p  1 3.950000e-01    5.260000e+00
 TP5aq  SQ1p  1 3.650000e-01    6.650000e+00
 TP5aq  TQ1p  1 3.400000e-01    9.008000e+00
 TP4aq   Q1p  1 3.950000e-01    5.267000e+00
 TP4aq  SQ1p  1 3.650000e-01    6.689000e+00
 TP4aq  TQ1p  1 3.400000e-01    9.093000e+00
 TP3aq   Q1p  1 3.950000e-01    5.270000e+00
 TP3aq  SQ1p  1 3.650000e-01    6.704000e+00
 TP3aq  TQ1p  1 3.400000e-01    9.126000e+00
 TP2aq   Q1p  1 3.950000e-01    5.271000e+00
 TP2aq  SQ1p  1 3.650000e-01    6.710000e+00
 TP2aq  TQ1p  1 3.400000e-01    9.140000e+00
 TP1aq   Q1p  1 3.950000e-01    5.271000e+00
 TP1aq  SQ1p  1 3.650000e-01    6.712000e+00
 TP1aq  TQ1p  1 3.400000e-01    9.145000e+00
 TN6aq   Q1p  1 3.950000e-01    5.271000e+00
 TN6aq  SQ1p  1 3.650000e-01    6.713000e+00
 TN6aq  TQ1p  1 3.400000e-01    9.146000e+00
 TN5aq   Q1p  1 3.950000e-01    4.941000e+00
 TN5aq  SQ1p  1 3.650000e-01    6.420000e+00
 TN5aq  TQ1p  1 3.400000e-01    8.861000e+00
 TN4aq   Q1p  1 3.950000e-01    4.940000e+00
 TN4aq  SQ1p  1 3.650000e-01    6.414000e+00
 TN4aq  TQ1p  1 3.400000e-01    8.846000e+00
 TN3aq   Q1p  1 3.950000e-01    4.937000e+00
 TN3aq  SQ1p  1 3.650000e-01    6.401000e+00
 TN3aq  TQ1p  1 3.400000e-01    8.818000e+00
 TN2aq   Q1p  1 3.950000e-01    4.623000e+00
 TN2aq  SQ1p  1 3.650000e-01    6.088000e+00
 TN2aq  TQ1p  1 3.400000e-01    8.498000e+00
 TN1aq   Q1p  1 3.950000e-01    4.296000e+00
 TN1aq  SQ1p  1 3.650000e-01    5.758000e+00
 TN1aq  TQ1p  1 3.400000e-01    8.129000e+00
 TC6vq   Q1p  1 3.950000e-01    3.562000e+00
 TC6vq  SQ1p  1 3.650000e-01    4.872000e+00
 TC6vq  TQ1p  1 3.400000e-01    6.992000e+00
 TC5vq   Q1p  1 3.950000e-01    3.060000e+00
 TC5vq  SQ1p  1 3.650000e-01    4.317000e+00
 TC5vq  TQ1p  1 3.400000e-01    6.370000e+00
 TC4vq   Q1p  1 3.950000e-01    2.842000e+00
 TC4vq  SQ1p  1 3.650000e-01    3.987000e+00
 TC4vq  TQ1p  1 3.400000e-01    5.900000e+00
 TC3vq   Q1p  1 3.950000e-01    2.621000e+00
 TC3vq  SQ1p  1 3.650000e-01    3.616000e+00
 TC3vq  TQ1p  1 3.400000e-01    5.264000e+00
 TC2vq   Q1p  1 3.990000e-01    1.463000e+00
 TC2vq  SQ1p  1 4.040000e-01    2.546000e+00
 TC2vq  TQ1p  1 4.110000e-01    3.654000e+00
 TC1vq   Q1p  1 3.990000e-01    1.425000e+00
 TC1vq  SQ1p  1 4.040000e-01    2.356000e+00
 TC1vq  TQ1p  1 4.110000e-01    3.272000e+00
 TX4vq   Q1p  1 3.950000e-01    3.080000e+00
 TX4vq  SQ1p  1 3.650000e-01    4.426000e+00
 TX4vq  TQ1p  1 3.400000e-01    6.610000e+00
 TX3vq   Q1p  1 3.950000e-01    3.072000e+00
 TX3vq  SQ1p  1 3.650000e-01    4.382000e+00
 TX3vq  TQ1p  1 3.400000e-01    6.512000e+00
 TX2vq   Q1p  1 3.950000e-01    2.852000e+00
 TX2vq  SQ1p  1 3.650000e-01    4.043000e+00
 TX2vq  TQ1p  1 3.400000e-01    6.023000e+00
 TX1vq   Q1p  1 3.950000e-01    2.621000e+00
 TX1vq  SQ1p  1 3.650000e-01    3.616000e+00
 TX1vq  TQ1p  1 3.400000e-01    5.264000e+00
 TC6eq   Q1p  1 3.950000e-01    4.282000e+00
 TC6eq  SQ1p  1 3.650000e-01    5.682000e+00
 TC6eq  TQ1p  1 3.400000e-01    7.962000e+00
 TC5eq   Q1p  1 3.950000e-01    3.790000e+00
 TC5eq  SQ1p  1 3.650000e-01    5.077000e+00
 TC5eq  TQ1p  1 3.400000e-01    7.340000e+00
 TC4eq   Q1p  1 3.950000e-01    3.532000e+00
 TC4eq  SQ1p  1 3.650000e-01    4.707000e+00
 TC4eq  TQ1p  1 3.400000e-01    6.870000e+00
 TC3eq   Q1p  1 3.950000e-01    3.251000e+00
 TC3eq  SQ1p  1 3.650000e-01    4.276000e+00
 TC3eq  TQ1p  1 3.400000e-01    6.254000e+00
 TC2eq   Q1p  1 3.950000e-01    2.136000e+00
 TC2eq  SQ1p  1 3.660000e-01    3.163000e+00
 TC2eq  TQ1p  1 3.400000e-01    4.678000e+00
 TC1eq   Q1p  1 3.950000e-01    2.097000e+00
 TC1eq  SQ1p  1 3.660000e-01    2.954000e+00
 TC1eq  TQ1p  1 3.400000e-01    4.216000e+00
 TX4eq   Q1p  1 3.950000e-01    3.810000e+00
 TX4eq  SQ1p  1 3.650000e-01    5.186000e+00
 TX4eq  TQ1p  1 3.400000e-01    7.580000e+00
 TX3eq   Q1p  1 3.950000e-01    3.802000e+00
 TX3eq  SQ1p  1 3.650000e-01    5.142000e+00
 TX3eq  TQ1p  1 3.400000e-01    7.482000e+00
 TX2eq   Q1p  1 3.950000e-01    3.542000e+00
 TX2eq  SQ1p  1 3.650000e-01    4.763000e+00
 TX2eq  TQ1p  1 3.400000e-01    6.993000e+00
 TX1eq   Q1p  1 3.950000e-01    3.251000e+00
 TX1eq  SQ1p  1 3.650000e-01    4.276000e+00
 TX1eq  TQ1p  1 3.400000e-01    6.254000e+00
  TP6h   Q1p  1 3.950000e-01    3.572000e+00
  TP6h  SQ1p  1 3.650000e-01    4.927000e+00
  TP6h  TQ1p  1 3.400000e-01    7.114000e+00
  TP5h   Q1p  1 3.950000e-01    3.820000e+00
  TP5h  SQ1p  1 3.650000e-01    5.240000e+00
  TP5h  TQ1p  1 3.400000e-01    7.448000e+00
  TP4h   Q1p  1 3.950000e-01    3.827000e+00
  TP4h  SQ1p  1 3.650000e-01    5.279000e+00
  TP4h  TQ1p  1 3.400000e-01    7.533000e+00
  TP3h   Q1p  1 3.950000e-01    3.830000e+00
  TP3h  SQ1p  1 3.650000e-01    5.294000e+00
  TP3h  TQ1p  1 3.400000e-01    7.566000e+00
  TP2h   Q1p  1 3.950000e-01    3.831000e+00
  TP2h  SQ1p  1 3.650000e-01    5.300000e+00
  TP2h  TQ1p  1 3.400000e-01    7.580000e+00
  TP1h   Q1p  1 3.950000e-01    3.831000e+00
  TP1h  SQ1p  1 3.650000e-01    5.302000e+00
  TP1h  TQ1p  1 3.400000e-01    7.585000e+00
  TN6h   Q1p  1 3.950000e-01    3.831000e+00
  TN6h  SQ1p  1 3.650000e-01    5.303000e+00
  TN6h  TQ1p  1 3.400000e-01    7.586000e+00
  TN5h   Q1p  1 3.950000e-01    3.591000e+00
  TN5h  SQ1p  1 3.650000e-01    5.030000e+00
  TN5h  TQ1p  1 3.400000e-01    7.341000e+00
  TN4h   Q1p  1 3.950000e-01    3.590000e+00
  TN4h  SQ1p  1 3.650000e-01    5.024000e+00
  TN4h  TQ1p  1 3.400000e-01    7.326000e+00
  TN3h   Q1p  1 3.950000e-01    3.587000e+00
  TN3h  SQ1p  1 3.650000e-01    5.011000e+00
  TN3h  TQ1p  1 3.400000e-01    7.298000e+00
  TN2h   Q1p  1 3.950000e-01    3.333000e+00
  TN2h  SQ1p  1 3.650000e-01    4.728000e+00
  TN2h  TQ1p  1 3.400000e-01    7.028000e+00
  TN1h   Q1p  1 3.950000e-01    3.086000e+00
  TN1h  SQ1p  1 3.650000e-01    4.458000e+00
  TN1h  TQ1p  1 3.400000e-01    6.679000e+00
  TC6h   Q1p  1 3.950000e-01    3.312000e+00
  TC6h  SQ1p  1 3.650000e-01    4.612000e+00
  TC6h  TQ1p  1 3.400000e-01    6.772000e+00
  TC5h   Q1p  1 3.950000e-01    2.860000e+00
  TC5h  SQ1p  1 3.650000e-01    4.087000e+00
  TC5h  TQ1p  1 3.400000e-01    6.120000e+00
  TC4h   Q1p  1 3.950000e-01    2.652000e+00
  TC4h  SQ1p  1 3.650000e-01    3.787000e+00
  TC4h  TQ1p  1 3.400000e-01    5.640000e+00
  TC3h   Q1p  1 3.950000e-01    2.421000e+00
  TC3h  SQ1p  1 3.650000e-01    3.456000e+00
  TC3h  TQ1p  1 3.400000e-01    4.984000e+00
  TC2h   Q1p  1 4.010000e-01    1.264000e+00
  TC2h  SQ1p  1 4.090000e-01    2.479000e+00
  TC2h  TQ1p  1 4.240000e-01    3.541000e+00
  TC1h   Q1p  1 4.010000e-01    1.227000e+00
  TC1h  SQ1p  1 4.090000e-01    2.291000e+00
  TC1h  TQ1p  1 4.240000e-01    3.171000e+00
  TX4h   Q1p  1 3.950000e-01    2.880000e+00
  TX4h  SQ1p  1 3.650000e-01    4.196000e+00
  TX4h  TQ1p  1 3.400000e-01    6.360000e+00
  TX3h   Q1p  1 3.950000e-01    2.872000e+00
  TX3h  SQ1p  1 3.650000e-01    4.152000e+00
  TX3h  TQ1p  1 3.400000e-01    6.262000e+00
  TX2h   Q1p  1 3.950000e-01    2.662000e+00
  TX2h  SQ1p  1 3.650000e-01    3.843000e+00
  TX2h  TQ1p  1 3.400000e-01    5.763000e+00
  TX1h   Q1p  1 3.950000e-01    2.421000e+00
  TX1h  SQ1p  1 3.650000e-01    3.456000e+00
  TX1h  TQ1p  1 3.400000e-01    4.984000e+00
 TP6dh   Q1p  1 3.950000e-01    3.572000e+00
 TP6dh  SQ1p  1 3.650000e-01    4.927000e+00
 TP6dh  TQ1p  1 3.400000e-01    7.114000e+00
 TP5dh   Q1p  1 3.950000e-01    3.580000e+00
 TP5dh  SQ1p  1 3.650000e-01    4.970000e+00
 TP5dh  TQ1p  1 3.400000e-01    7.208000e+00
 TP4dh   Q1p  1 3.950000e-01    3.587000e+00
 TP4dh  SQ1p  1 3.650000e-01    5.009000e+00
 TP4dh  TQ1p  1 3.400000e-01    7.293000e+00
 TP3dh   Q1p  1 3.950000e-01    3.590000e+00
 TP3dh  SQ1p  1 3.650000e-01    5.024000e+00
 TP3dh  TQ1p  1 3.400000e-01    7.326000e+00
 TP2dh   Q1p  1 3.950000e-01    3.591000e+00
 TP2dh  SQ1p  1 3.650000e-01    5.030000e+00
 TP2dh  TQ1p  1 3.400000e-01    7.340000e+00
 TP1dh   Q1p  1 3.950000e-01    3.591000e+00
 TP1dh  SQ1p  1 3.650000e-01    5.032000e+00
 TP1dh  TQ1p  1 3.400000e-01    7.345000e+00
 TN6dh   Q1p  1 3.950000e-01    3.591000e+00
 TN6dh  SQ1p  1 3.650000e-01    5.033000e+00
 TN6dh  TQ1p  1 3.400000e-01    7.346000e+00
 TN5dh   Q1p  1 3.950000e-01    3.591000e+00
 TN5dh  SQ1p  1 3.650000e-01    5.030000e+00
 TN5dh  TQ1p  1 3.400000e-01    7.341000e+00
 TN4dh   Q1p  1 3.950000e-01    3.590000e+00
 TN4dh  SQ1p  1 3.650000e-01    5.024000e+00
 TN4dh  TQ1p  1 3.400000e-01    7.326000e+00
 TN3dh   Q1p  1 3.950000e-01    3.587000e+00
 TN3dh  SQ1p  1 3.650000e-01    5.011000e+00
 TN3dh  TQ1p  1 3.400000e-01    7.298000e+00
 TN2dh   Q1p  1 3.950000e-01    3.093000e+00
 TN2dh  SQ1p  1 3.650000e-01    4.498000e+00
 TN2dh  TQ1p  1 3.400000e-01    6.768000e+00
 TN1dh   Q1p  1 3.950000e-01    2.886000e+00
 TN1dh  SQ1p  1 3.650000e-01    4.228000e+00
 TN1dh  TQ1p  1 3.400000e-01    6.429000e+00
 TP6ah   Q1p  1 3.950000e-01    4.052000e+00
 TP6ah  SQ1p  1 3.650000e-01    5.467000e+00
 TP6ah  TQ1p  1 3.400000e-01    7.834000e+00
 TP5ah   Q1p  1 3.950000e-01    4.300000e+00
 TP5ah  SQ1p  1 3.650000e-01    5.780000e+00
 TP5ah  TQ1p  1 3.400000e-01    8.178000e+00
 TP4ah   Q1p  1 3.950000e-01    4.307000e+00
 TP4ah  SQ1p  1 3.650000e-01    5.819000e+00
 TP4ah  TQ1p  1 3.400000e-01    8.263000e+00
 TP3ah   Q1p  1 3.950000e-01    4.310000e+00
 TP3ah  SQ1p  1 3.650000e-01    5.834000e+00
 TP3ah  TQ1p  1 3.400000e-01    8.296000e+00
 TP2ah   Q1p  1 3.950000e-01    4.311000e+00
 TP2ah  SQ1p  1 3.650000e-01    5.840000e+00
 TP2ah  TQ1p  1 3.400000e-01    8.310000e+00
 TP1ah   Q1p  1 3.950000e-01    4.311000e+00
 TP1ah  SQ1p  1 3.650000e-01    5.842000e+00
 TP1ah  TQ1p  1 3.400000e-01    8.315000e+00
 TN6ah   Q1p  1 3.950000e-01    4.311000e+00
 TN6ah  SQ1p  1 3.650000e-01    5.843000e+00
 TN6ah  TQ1p  1 3.400000e-01    8.316000e+00
 TN5ah   Q1p  1 3.950000e-01    4.071000e+00
 TN5ah  SQ1p  1 3.650000e-01    5.570000e+00
 TN5ah  TQ1p  1 3.400000e-01    8.061000e+00
 TN4ah   Q1p  1 3.950000e-01    4.070000e+00
 TN4ah  SQ1p  1 3.650000e-01    5.564000e+00
 TN4ah  TQ1p  1 3.400000e-01    8.046000e+00
 TN3ah   Q1p  1 3.950000e-01    4.067000e+00
 TN3ah  SQ1p  1 3.650000e-01    5.551000e+00
 TN3ah  TQ1p  1 3.400000e-01    8.018000e+00
 TN2ah   Q1p  1 3.950000e-01    3.823000e+00
 TN2ah  SQ1p  1 3.650000e-01    5.258000e+00
 TN2ah  TQ1p  1 3.400000e-01    7.738000e+00
 TN1ah   Q1p  1 3.950000e-01    3.576000e+00
 TN1ah  SQ1p  1 3.650000e-01    4.948000e+00
 TN1ah  TQ1p  1 3.400000e-01    7.399000e+00
 TC6vh   Q1p  1 3.950000e-01    2.872000e+00
 TC6vh  SQ1p  1 3.650000e-01    4.152000e+00
 TC6vh  TQ1p  1 3.400000e-01    6.262000e+00
 TC5vh   Q1p  1 3.950000e-01    2.470000e+00
 TC5vh  SQ1p  1 3.650000e-01    3.727000e+00
 TC5vh  TQ1p  1 3.400000e-01    5.580000e+00
 TC4vh   Q1p  1 3.950000e-01    2.192000e+00
 TC4vh  SQ1p  1 3.660000e-01    3.472000e+00
 TC4vh  TQ1p  1 3.520000e-01    5.040000e+00
 TC3vh   Q1p  1 3.950000e-01    1.981000e+00
 TC3vh  SQ1p  1 3.780000e-01    3.098000e+00
 TC3vh  TQ1p  1 3.660000e-01    4.422000e+00
 TC2vh   Q1p  1 4.650000e-01    9.460000e-01
 TC2vh  SQ1p  1 4.840000e-01    2.072000e+00
 TC2vh  TQ1p  1 5.050000e-01    3.002000e+00
 TC1vh   Q1p  1 4.650000e-01    9.130000e-01
 TC1vh  SQ1p  1 4.840000e-01    1.914000e+00
 TC1vh  TQ1p  1 5.050000e-01    2.691000e+00
 TX4vh   Q1p  1 3.950000e-01    2.490000e+00
 TX4vh  SQ1p  1 3.650000e-01    3.836000e+00
 TX4vh  TQ1p  1 3.400000e-01    5.820000e+00
 TX3vh   Q1p  1 3.950000e-01    2.482000e+00
 TX3vh  SQ1p  1 3.650000e-01    3.792000e+00
 TX3vh  TQ1p  1 3.400000e-01    5.722000e+00
 TX2vh   Q1p  1 3.950000e-01    2.202000e+00
 TX2vh  SQ1p  1 3.660000e-01    3.528000e+00
 TX2vh  TQ1p  1 3.520000e-01    5.158000e+00
 TX1vh   Q1p  1 3.950000e-01    1.981000e+00
 TX1vh  SQ1p  1 3.780000e-01    3.098000e+00
 TX1vh  TQ1p  1 3.660000e-01    4.422000e+00
 TC6eh   Q1p  1 3.950000e-01    3.562000e+00
 TC6eh  SQ1p  1 3.650000e-01    4.872000e+00
 TC6eh  TQ1p  1 3.400000e-01    7.232000e+00
 TC5eh   Q1p  1 3.950000e-01    3.060000e+00
 TC5eh  SQ1p  1 3.650000e-01    4.317000e+00
 TC5eh  TQ1p  1 3.400000e-01    6.630000e+00
 TC4eh   Q1p  1 3.950000e-01    2.842000e+00
 TC4eh  SQ1p  1 3.650000e-01    3.987000e+00
 TC4eh  TQ1p  1 3.400000e-01    6.150000e+00
 TC3eh   Q1p  1 3.950000e-01    2.621000e+00
 TC3eh  SQ1p  1 3.650000e-01    3.616000e+00
 TC3eh  TQ1p  1 3.400000e-01    5.524000e+00
 TC2eh   Q1p  1 3.990000e-01    1.463000e+00
 TC2eh  SQ1p  1 4.040000e-01    2.546000e+00
 TC2eh  TQ1p  1 4.040000e-01    3.737000e+00
 TC1eh   Q1p  1 3.990000e-01    1.425000e+00
 TC1eh  SQ1p  1 4.040000e-01    2.356000e+00
 TC1eh  TQ1p  1 4.040000e-01    3.348000e+00
 TX4eh   Q1p  1 3.950000e-01    3.080000e+00
 TX4eh  SQ1p  1 3.650000e-01    4.426000e+00
 TX4eh  TQ1p  1 3.400000e-01    6.870000e+00
 TX3eh   Q1p  1 3.950000e-01    3.072000e+00
 TX3eh  SQ1p  1 3.650000e-01    4.382000e+00
 TX3eh  TQ1p  1 3.400000e-01    6.772000e+00
 TX2eh   Q1p  1 3.950000e-01    2.852000e+00
 TX2eh  SQ1p  1 3.650000e-01    4.043000e+00
 TX2eh  TQ1p  1 3.400000e-01    6.273000e+00
 TX1eh   Q1p  1 3.950000e-01    2.621000e+00
 TX1eh  SQ1p  1 3.650000e-01    3.616000e+00
 TX1eh  TQ1p  1 3.400000e-01    5.524000e+00
  TP6r   Q1p  1 3.950000e-01    3.572000e+00
  TP6r  SQ1p  1 3.650000e-01    4.927000e+00
  TP6r  TQ1p  1 3.400000e-01    7.114000e+00
  TP5r   Q1p  1 3.950000e-01    3.820000e+00
  TP5r  SQ1p  1 3.650000e-01    5.240000e+00
  TP5r  TQ1p  1 3.400000e-01    7.448000e+00
  TP4r   Q1p  1 3.950000e-01    3.827000e+00
  TP4r  SQ1p  1 3.650000e-01    5.279000e+00
  TP4r  TQ1p  1 3.400000e-01    7.533000e+00
  TP3r   Q1p  1 3.950000e-01    3.830000e+00
  TP3r  SQ1p  1 3.650000e-01    5.294000e+00
  TP3r  TQ1p  1 3.400000e-01    7.566000e+00
  TP2r   Q1p  1 3.950000e-01    3.831000e+00
  TP2r  SQ1p  1 3.650000e-01    5.300000e+00
  TP2r  TQ1p  1 3.400000e-01    7.580000e+00
  TP1r   Q1p  1 3.950000e-01    3.831000e+00
  TP1r  SQ1p  1 3.650000e-01    5.302000e+00
  TP1r  TQ1p  1 3.400000e-01    7.585000e+00
  TN6r   Q1p  1 3.950000e-01    3.831000e+00
  TN6r  SQ1p  1 3.650000e-01    5.303000e+00
  TN6r  TQ1p  1 3.400000e-01    7.586000e+00
  TN5r   Q1p  1 3.950000e-01    3.591000e+00
  TN5r  SQ1p  1 3.650000e-01    5.030000e+00
  TN5r  TQ1p  1 3.400000e-01    7.341000e+00
  TN4r   Q1p  1 3.950000e-01    3.590000e+00
  TN4r  SQ1p  1 3.650000e-01    5.024000e+00
  TN4r  TQ1p  1 3.400000e-01    7.326000e+00
  TN3r   Q1p  1 3.950000e-01    3.587000e+00
  TN3r  SQ1p  1 3.650000e-01    5.011000e+00
  TN3r  TQ1p  1 3.400000e-01    7.298000e+00
  TN2r   Q1p  1 3.950000e-01    3.333000e+00
  TN2r  SQ1p  1 3.650000e-01    4.728000e+00
  TN2r  TQ1p  1 3.400000e-01    7.028000e+00
  TN1r   Q1p  1 3.950000e-01    3.086000e+00
  TN1r  SQ1p  1 3.650000e-01    4.458000e+00
  TN1r  TQ1p  1 3.400000e-01    6.679000e+00
  TC6r   Q1p  1 3.950000e-01    3.312000e+00
  TC6r  SQ1p  1 3.650000e-01    4.612000e+00
  TC6r  TQ1p  1 3.400000e-01    6.772000e+00
  TC5r   Q1p  1 3.950000e-01    2.860000e+00
  TC5r  SQ1p  1 3.650000e-01    4.087000e+00
  TC5r  TQ1p  1 3.400000e-01    6.120000e+00
  TC4r   Q1p  1 3.950000e-01    2.652000e+00
  TC4r  SQ1p  1 3.650000e-01    3.787000e+00
  TC4r  TQ1p  1 3.400000e-01    5.640000e+00
  TC3r   Q1p  1 3.950000e-01    2.421000e+00
  TC3r  SQ1p  1 3.650000e-01    3.456000e+00
  TC3r  TQ1p  1 3.400000e-01    4.984000e+00
  TC2r   Q1p  1 4.010000e-01    1.264000e+00
  TC2r  SQ1p  1 4.090000e-01    2.479000e+00
  TC2r  TQ1p  1 4.240000e-01    3.541000e+00
  TC1r   Q1p  1 4.010000e-01    1.227000e+00
  TC1r  SQ1p  1 4.090000e-01    2.291000e+00
  TC1r  TQ1p  1 4.240000e-01    3.171000e+00
  TX4r   Q1p  1 3.950000e-01    2.880000e+00
  TX4r  SQ1p  1 3.650000e-01    4.196000e+00
  TX4r  TQ1p  1 3.400000e-01    6.360000e+00
  TX3r   Q1p  1 3.950000e-01    2.872000e+00
  TX3r  SQ1p  1 3.650000e-01    4.152000e+00
  TX3r  TQ1p  1 3.400000e-01    6.262000e+00
  TX2r   Q1p  1 3.950000e-01    2.662000e+00
  TX2r  SQ1p  1 3.650000e-01    3.843000e+00
  TX2r  TQ1p  1 3.400000e-01    5.763000e+00
  TX1r   Q1p  1 3.950000e-01    2.421000e+00
  TX1r  SQ1p  1 3.650000e-01    3.456000e+00
  TX1r  TQ1p  1 3.400000e-01    4.984000e+00
 TP6dr   Q1p  1 3.950000e-01    3.572000e+00
 TP6dr  SQ1p  1 3.650000e-01    4.927000e+00
 TP6dr  TQ1p  1 3.400000e-01    7.114000e+00
 TP5dr   Q1p  1 3.950000e-01    3.580000e+00
 TP5dr  SQ1p  1 3.650000e-01    4.970000e+00
 TP5dr  TQ1p  1 3.400000e-01    7.208000e+00
 TP4dr   Q1p  1 3.950000e-01    3.587000e+00
 TP4dr  SQ1p  1 3.650000e-01    5.009000e+00
 TP4dr  TQ1p  1 3.400000e-01    7.293000e+00
 TP3dr   Q1p  1 3.950000e-01    3.590000e+00
 TP3dr  SQ1p  1 3.650000e-01    5.024000e+00
 TP3dr  TQ1p  1 3.400000e-01    7.326000e+00
 TP2dr   Q1p  1 3.950000e-01    3.591000e+00
 TP2dr  SQ1p  1 3.650000e-01    5.030000e+00
 TP2dr  TQ1p  1 3.400000e-01    7.340000e+00
 TP1dr   Q1p  1 3.950000e-01    3.591000e+00
 TP1dr  SQ1p  1 3.650000e-01    5.032000e+00
 TP1dr  TQ1p  1 3.400000e-01    7.345000e+00
 TN6dr   Q1p  1 3.950000e-01    3.591000e+00
 TN6dr  SQ1p  1 3.650000e-01    5.033000e+00
 TN6dr  TQ1p  1 3.400000e-01    7.346000e+00
 TN5dr   Q1p  1 3.950000e-01    3.591000e+00
 TN5dr  SQ1p  1 3.650000e-01    5.030000e+00
 TN5dr  TQ1p  1 3.400000e-01    7.341000e+00
 TN4dr   Q1p  1 3.950000e-01    3.590000e+00
 TN4dr  SQ1p  1 3.650000e-01    5.024000e+00
 TN4dr  TQ1p  1 3.400000e-01    7.326000e+00
 TN3dr   Q1p  1 3.950000e-01    3.587000e+00
 TN3dr  SQ1p  1 3.650000e-01    5.011000e+00
 TN3dr  TQ1p  1 3.400000e-01    7.298000e+00
 TN2dr   Q1p  1 3.950000e-01    3.093000e+00
 TN2dr  SQ1p  1 3.650000e-01    4.498000e+00
 TN2dr  TQ1p  1 3.400000e-01    6.768000e+00
 TN1dr   Q1p  1 3.950000e-01    2.886000e+00
 TN1dr  SQ1p  1 3.650000e-01    4.228000e+00
 TN1dr  TQ1p  1 3.400000e-01    6.429000e+00
 TP6ar   Q1p  1 3.950000e-01    4.052000e+00
 TP6ar  SQ1p  1 3.650000e-01    5.467000e+00
 TP6ar  TQ1p  1 3.400000e-01    7.834000e+00
 TP5ar   Q1p  1 3.950000e-01    4.300000e+00
 TP5ar  SQ1p  1 3.650000e-01    5.780000e+00
 TP5ar  TQ1p  1 3.400000e-01    8.178000e+00
 TP4ar   Q1p  1 3.950000e-01    4.307000e+00
 TP4ar  SQ1p  1 3.650000e-01    5.819000e+00
 TP4ar  TQ1p  1 3.400000e-01    8.263000e+00
 TP3ar   Q1p  1 3.950000e-01    4.310000e+00
 TP3ar  SQ1p  1 3.650000e-01    5.834000e+00
 TP3ar  TQ1p  1 3.400000e-01    8.296000e+00
 TP2ar   Q1p  1 3.950000e-01    4.311000e+00
 TP2ar  SQ1p  1 3.650000e-01    5.840000e+00
 TP2ar  TQ1p  1 3.400000e-01    8.310000e+00
 TP1ar   Q1p  1 3.950000e-01    4.311000e+00
 TP1ar  SQ1p  1 3.650000e-01    5.842000e+00
 TP1ar  TQ1p  1 3.400000e-01    8.315000e+00
 TN6ar   Q1p  1 3.950000e-01    4.311000e+00
 TN6ar  SQ1p  1 3.650000e-01    5.843000e+00
 TN6ar  TQ1p  1 3.400000e-01    8.316000e+00
 TN5ar   Q1p  1 3.950000e-01    4.071000e+00
 TN5ar  SQ1p  1 3.650000e-01    5.570000e+00
 TN5ar  TQ1p  1 3.400000e-01    8.061000e+00
 TN4ar   Q1p  1 3.950000e-01    4.070000e+00
 TN4ar  SQ1p  1 3.650000e-01    5.564000e+00
 TN4ar  TQ1p  1 3.400000e-01    8.046000e+00
 TN3ar   Q1p  1 3.950000e-01    4.067000e+00
 TN3ar  SQ1p  1 3.650000e-01    5.551000e+00
 TN3ar  TQ1p  1 3.400000e-01    8.018000e+00
 TN2ar   Q1p  1 3.950000e-01    3.823000e+00
 TN2ar  SQ1p  1 3.650000e-01    5.258000e+00
 TN2ar  TQ1p  1 3.400000e-01    7.738000e+00
 TN1ar   Q1p  1 3.950000e-01    3.576000e+00
 TN1ar  SQ1p  1 3.650000e-01    4.948000e+00
 TN1ar  TQ1p  1 3.400000e-01    7.399000e+00
 TC6vr   Q1p  1 3.950000e-01    2.872000e+00
 TC6vr  SQ1p  1 3.650000e-01    4.152000e+00
 TC6vr  TQ1p  1 3.400000e-01    6.262000e+00
 TC5vr   Q1p  1 3.950000e-01    2.470000e+00
 TC5vr  SQ1p  1 3.650000e-01    3.727000e+00
 TC5vr  TQ1p  1 3.400000e-01    5.580000e+00
 TC4vr   Q1p  1 3.950000e-01    2.192000e+00
 TC4vr  SQ1p  1 3.660000e-01    3.472000e+00
 TC4vr  TQ1p  1 3.520000e-01    5.040000e+00
 TC3vr   Q1p  1 3.950000e-01    1.981000e+00
 TC3vr  SQ1p  1 3.780000e-01    3.098000e+00
 TC3vr  TQ1p  1 3.660000e-01    4.422000e+00
 TC2vr   Q1p  1 4.650000e-01    9.460000e-01
 TC2vr  SQ1p  1 4.840000e-01    2.072000e+00
 TC2vr  TQ1p  1 5.050000e-01    3.002000e+00
 TC1vr   Q1p  1 4.650000e-01    9.130000e-01
 TC1vr  SQ1p  1 4.840000e-01    1.914000e+00
 TC1vr  TQ1p  1 5.050000e-01    2.691000e+00
 TX4vr   Q1p  1 3.950000e-01    2.490000e+00
 TX4vr  SQ1p  1 3.650000e-01    3.836000e+00
 TX4vr  TQ1p  1 3.400000e-01    5.820000e+00
 TX3vr   Q1p  1 3.950000e-01    2.482000e+00
 TX3vr  SQ1p  1 3.650000e-01    3.792000e+00
 TX3vr  TQ1p  1 3.400000e-01    5.722000e+00
 TX2vr   Q1p  1 3.950000e-01    2.202000e+00
 TX2vr  SQ1p  1 3.660000e-01    3.528000e+00
 TX2vr  TQ1p  1 3.520000e-01    5.158000e+00
 TX1vr   Q1p  1 3.950000e-01    1.981000e+00
 TX1vr  SQ1p  1 3.780000e-01    3.098000e+00
 TX1vr  TQ1p  1 3.660000e-01    4.422000e+00
 TC6er   Q1p  1 3.950000e-01    3.562000e+00
 TC6er  SQ1p  1 3.650000e-01    4.872000e+00
 TC6er  TQ1p  1 3.400000e-01    7.232000e+00
 TC5er   Q1p  1 3.950000e-01    3.060000e+00
 TC5er  SQ1p  1 3.650000e-01    4.317000e+00
 TC5er  TQ1p  1 3.400000e-01    6.630000e+00
 TC4er   Q1p  1 3.950000e-01    2.842000e+00
 TC4er  SQ1p  1 3.650000e-01    3.987000e+00
 TC4er  TQ1p  1 3.400000e-01    6.150000e+00
 TC3er   Q1p  1 3.950000e-01    2.621000e+00
 TC3er  SQ1p  1 3.650000e-01    3.616000e+00
 TC3er  TQ1p  1 3.400000e-01    5.524000e+00
 TC2er   Q1p  1 3.990000e-01    1.463000e+00
 TC2er  SQ1p  1 4.040000e-01    2.546000e+00
 TC2er  TQ1p  1 4.040000e-01    3.737000e+00
 TC1er   Q1p  1 3.990000e-01    1.425000e+00
 TC1er  SQ1p  1 4.040000e-01    2.356000e+00
 TC1er  TQ1p  1 4.040000e-01    3.348000e+00
 TX4er   Q1p  1 3.950000e-01    3.080000e+00
 TX4er  SQ1p  1 3.650000e-01    4.426000e+00
 TX4er  TQ1p  1 3.400000e-01    6.870000e+00
 TX3er   Q1p  1 3.950000e-01    3.072000e+00
 TX3er  SQ1p  1 3.650000e-01    4.382000e+00
 TX3er  TQ1p  1 3.400000e-01    6.772000e+00
 TX2er   Q1p  1 3.950000e-01    2.852000e+00
 TX2er  SQ1p  1 3.650000e-01    4.043000e+00
 TX2er  TQ1p  1 3.400000e-01    6.273000e+00
 TX1er   Q1p  1 3.950000e-01    2.621000e+00
 TX1er  SQ1p  1 3.650000e-01    3.616000e+00
 TX1er  TQ1p  1 3.400000e-01    5.524000e+00
    P6   Q1n  1 4.700000e-01    4.935000e+00
    P6  SQ1n  1 4.300000e-01    6.475000e+00
    P6  TQ1n  1 3.950000e-01    9.223000e+00
    P5   Q1n  1 4.700000e-01    5.167000e+00
    P5  SQ1n  1 4.300000e-01    6.681000e+00
    P5  TQ1n  1 3.950000e-01    9.476000e+00
    P4   Q1n  1 4.700000e-01    5.166000e+00
    P4  SQ1n  1 4.300000e-01    6.678000e+00
    P4  TQ1n  1 3.950000e-01    9.469000e+00
    P3   Q1n  1 4.700000e-01    5.163000e+00
    P3  SQ1n  1 4.300000e-01    6.669000e+00
    P3  TQ1n  1 3.950000e-01    9.450000e+00
    P2   Q1n  1 4.700000e-01    5.161000e+00
    P2  SQ1n  1 4.300000e-01    6.660000e+00
    P2  TQ1n  1 3.950000e-01    9.429000e+00
    P1   Q1n  1 4.700000e-01    5.159000e+00
    P1  SQ1n  1 4.300000e-01    6.652000e+00
    P1  TQ1n  1 3.950000e-01    9.410000e+00
    N6   Q1n  1 4.700000e-01    5.156000e+00
    N6  SQ1n  1 4.300000e-01    6.641000e+00
    N6  TQ1n  1 3.950000e-01    9.384000e+00
    N5   Q1n  1 4.700000e-01    4.921000e+00
    N5  SQ1n  1 4.300000e-01    6.426000e+00
    N5  TQ1n  1 3.950000e-01    9.109000e+00
    N4   Q1n  1 4.700000e-01    4.916000e+00
    N4  SQ1n  1 4.300000e-01    6.405000e+00
    N4  TQ1n  1 3.950000e-01    9.061000e+00
    N3   Q1n  1 4.700000e-01    4.908000e+00
    N3  SQ1n  1 4.300000e-01    6.376000e+00
    N3  TQ1n  1 3.950000e-01    8.994000e+00
    N2   Q1n  1 4.700000e-01    4.706000e+00
    N2  SQ1n  1 4.300000e-01    6.134000e+00
    N2  TQ1n  1 3.950000e-01    8.657000e+00
    N1   Q1n  1 4.700000e-01    4.509000e+00
    N1  SQ1n  1 4.300000e-01    5.889000e+00
    N1  TQ1n  1 3.950000e-01    8.257000e+00
    C6   Q1n  1 4.700000e-01    4.288000e+00
    C6  SQ1n  1 4.300000e-01    5.568000e+00
    C6  TQ1n  1 3.950000e-01    7.760000e+00
    C5   Q1n  1 4.700000e-01    3.964000e+00
    C5  SQ1n  1 4.300000e-01    5.018000e+00
    C5  TQ1n  1 3.950000e-01    7.162000e+00
    C4   Q1n  1 4.700000e-01    3.776000e+00
    C4  SQ1n  1 4.300000e-01    4.732000e+00
    C4  TQ1n  1 3.950000e-01    6.647000e+00
    C3   Q1n  1 4.700000e-01    3.544000e+00
    C3  SQ1n  1 4.300000e-01    4.264000e+00
    C3  TQ1n  1 3.950000e-01    5.859000e+00
    C2   Q1n  1 4.850000e-01    2.651000e+00
    C2  SQ1n  1 4.430000e-01    2.985000e+00
    C2  TQ1n  1 4.040000e-01    4.335000e+00
    C1   Q1n  1 4.850000e-01    2.578000e+00
    C1  SQ1n  1 4.430000e-01    2.717000e+00
    C1  TQ1n  1 4.040000e-01    3.712000e+00
    X4   Q1n  1 4.700000e-01    4.006000e+00
    X4  SQ1n  1 4.300000e-01    5.172000e+00
    X4  TQ1n  1 3.950000e-01    7.518000e+00
    X3   Q1n  1 4.700000e-01    3.988000e+00
    X3  SQ1n  1 4.300000e-01    5.108000e+00
    X3  TQ1n  1 3.950000e-01    7.370000e+00
    X2   Q1n  1 4.700000e-01    3.797000e+00
    X2  SQ1n  1 4.300000e-01    4.808000e+00
    X2  TQ1n  1 3.950000e-01    6.822000e+00
    X1   Q1n  1 4.700000e-01    3.544000e+00
    X1  SQ1n  1 4.300000e-01    4.264000e+00
    X1  TQ1n  1 3.950000e-01    5.859000e+00
   P6d   Q1n  1 4.700000e-01    4.935000e+00
   P6d  SQ1n  1 4.300000e-01    6.475000e+00
   P6d  TQ1n  1 3.950000e-01    9.463000e+00
   P5d   Q1n  1 4.700000e-01    5.167000e+00
   P5d  SQ1n  1 4.300000e-01    6.681000e+00
   P5d  TQ1n  1 3.950000e-01    9.716000e+00
   P4d   Q1n  1 4.700000e-01    5.166000e+00
   P4d  SQ1n  1 4.300000e-01    6.678000e+00
   P4d  TQ1n  1 3.950000e-01    9.709000e+00
   P3d   Q1n  1 4.700000e-01    5.163000e+00
   P3d  SQ1n  1 4.300000e-01    6.669000e+00
   P3d  TQ1n  1 3.950000e-01    9.690000e+00
   P2d   Q1n  1 4.700000e-01    5.161000e+00
   P2d  SQ1n  1 4.300000e-01    6.660000e+00
   P2d  TQ1n  1 3.950000e-01    9.669000e+00
   P1d   Q1n  1 4.700000e-01    5.159000e+00
   P1d  SQ1n  1 4.300000e-01    6.652000e+00
   P1d  TQ1n  1 3.950000e-01    9.650000e+00
   N6d   Q1n  1 4.700000e-01    5.156000e+00
   N6d  SQ1n  1 4.300000e-01    6.641000e+00
   N6d  TQ1n  1 3.950000e-01    9.624000e+00
   N5d   Q1n  1 4.700000e-01    4.921000e+00
   N5d  SQ1n  1 4.300000e-01    6.426000e+00
   N5d  TQ1n  1 3.950000e-01    9.349000e+00
   N4d   Q1n  1 4.700000e-01    4.916000e+00
   N4d  SQ1n  1 4.300000e-01    6.405000e+00
   N4d  TQ1n  1 3.950000e-01    9.301000e+00
   N3d   Q1n  1 4.700000e-01    4.908000e+00
   N3d  SQ1n  1 4.300000e-01    6.376000e+00
   N3d  TQ1n  1 3.950000e-01    9.234000e+00
   N2d   Q1n  1 4.700000e-01    4.706000e+00
   N2d  SQ1n  1 4.300000e-01    6.134000e+00
   N2d  TQ1n  1 3.950000e-01    8.897000e+00
   N1d   Q1n  1 4.700000e-01    4.509000e+00
   N1d  SQ1n  1 4.300000e-01    5.889000e+00
   N1d  TQ1n  1 3.950000e-01    8.507000e+00
   P6a   Q1n  1 4.700000e-01    4.375000e+00
   P6a  SQ1n  1 4.300000e-01    5.885000e+00
   P6a  TQ1n  1 3.950000e-01    8.733000e+00
   P5a   Q1n  1 4.700000e-01    4.567000e+00
   P5a  SQ1n  1 4.300000e-01    6.101000e+00
   P5a  TQ1n  1 3.950000e-01    8.996000e+00
   P4a   Q1n  1 4.700000e-01    4.566000e+00
   P4a  SQ1n  1 4.300000e-01    6.098000e+00
   P4a  TQ1n  1 3.950000e-01    8.989000e+00
   P3a   Q1n  1 4.700000e-01    4.563000e+00
   P3a  SQ1n  1 4.300000e-01    6.089000e+00
   P3a  TQ1n  1 3.950000e-01    8.970000e+00
   P2a   Q1n  1 4.700000e-01    4.561000e+00
   P2a  SQ1n  1 4.300000e-01    6.080000e+00
   P2a  TQ1n  1 3.950000e-01    8.949000e+00
   P1a   Q1n  1 4.700000e-01    4.559000e+00
   P1a  SQ1n  1 4.300000e-01    6.072000e+00
   P1a  TQ1n  1 3.950000e-01    8.930000e+00
   N6a   Q1n  1 4.700000e-01    4.556000e+00
   N6a  SQ1n  1 4.300000e-01    6.061000e+00
   N6a  TQ1n  1 3.950000e-01    8.904000e+00
   N5a   Q1n  1 4.700000e-01    4.361000e+00
   N5a  SQ1n  1 4.300000e-01    5.836000e+00
   N5a  TQ1n  1 3.950000e-01    8.619000e+00
   N4a   Q1n  1 4.700000e-01    4.356000e+00
   N4a  SQ1n  1 4.300000e-01    5.815000e+00
   N4a  TQ1n  1 3.950000e-01    8.571000e+00
   N3a   Q1n  1 4.700000e-01    4.348000e+00
   N3a  SQ1n  1 4.300000e-01    5.786000e+00
   N3a  TQ1n  1 3.950000e-01    8.504000e+00
   N2a   Q1n  1 4.700000e-01    4.166000e+00
   N2a  SQ1n  1 4.300000e-01    5.524000e+00
   N2a  TQ1n  1 3.950000e-01    8.167000e+00
   N1a   Q1n  1 4.700000e-01    4.019000e+00
   N1a  SQ1n  1 4.300000e-01    5.229000e+00
   N1a  TQ1n  1 3.950000e-01    7.817000e+00
   C6v   Q1n  1 4.700000e-01    4.478000e+00
   C6v  SQ1n  1 4.300000e-01    5.778000e+00
   C6v  TQ1n  1 3.950000e-01    8.250000e+00
   C5v   Q1n  1 4.700000e-01    4.094000e+00
   C5v  SQ1n  1 4.300000e-01    5.258000e+00
   C5v  TQ1n  1 3.950000e-01    7.552000e+00
   C4v   Q1n  1 4.700000e-01    3.926000e+00
   C4v  SQ1n  1 4.300000e-01    4.892000e+00
   C4v  TQ1n  1 3.950000e-01    7.037000e+00
   C3v   Q1n  1 4.700000e-01    3.714000e+00
   C3v  SQ1n  1 4.300000e-01    4.654000e+00
   C3v  TQ1n  1 3.950000e-01    6.319000e+00
   C2v   Q1n  1 4.700000e-01    2.864000e+00
   C2v  SQ1n  1 4.300000e-01    3.280000e+00
   C2v  TQ1n  1 3.990000e-01    4.729000e+00
   C1v   Q1n  1 4.700000e-01    2.789000e+00
   C1v  SQ1n  1 4.300000e-01    3.005000e+00
   C1v  TQ1n  1 3.990000e-01    4.098000e+00
   X4v   Q1n  1 4.700000e-01    4.136000e+00
   X4v  SQ1n  1 4.300000e-01    5.412000e+00
   X4v  TQ1n  1 3.950000e-01    7.908000e+00
   X3v   Q1n  1 4.700000e-01    4.118000e+00
   X3v  SQ1n  1 4.300000e-01    5.348000e+00
   X3v  TQ1n  1 3.950000e-01    7.760000e+00
   X2v   Q1n  1 4.700000e-01    3.947000e+00
   X2v  SQ1n  1 4.300000e-01    4.968000e+00
   X2v  TQ1n  1 3.950000e-01    7.212000e+00
   X1v   Q1n  1 4.700000e-01    3.714000e+00
   X1v  SQ1n  1 4.300000e-01    4.654000e+00
   X1v  TQ1n  1 3.950000e-01    6.319000e+00
   C6e   Q1n  1 4.700000e-01    3.988000e+00
   C6e  SQ1n  1 4.300000e-01    5.118000e+00
   C6e  TQ1n  1 3.950000e-01    7.560000e+00
   C5e   Q1n  1 4.700000e-01    3.644000e+00
   C5e  SQ1n  1 4.300000e-01    4.628000e+00
   C5e  TQ1n  1 3.950000e-01    6.962000e+00
   C4e   Q1n  1 4.700000e-01    3.496000e+00
   C4e  SQ1n  1 4.300000e-01    4.282000e+00
   C4e  TQ1n  1 3.950000e-01    6.387000e+00
   C3e   Q1n  1 4.700000e-01    3.264000e+00
   C3e  SQ1n  1 4.300000e-01    3.894000e+00
   C3e  TQ1n  1 3.950000e-01    5.679000e+00
   C2e   Q1n  1 5.700000e-01    2.350000e+00
   C2e  SQ1n  1 5.080000e-01    2.422000e+00
   C2e  TQ1n  1 4.650000e-01    3.748000e+00
   C1e   Q1n  1 5.700000e-01    2.287000e+00
   C1e  SQ1n  1 5.080000e-01    2.189000e+00
   C1e  TQ1n  1 4.650000e-01    3.207000e+00
   X4e   Q1n  1 4.700000e-01    3.686000e+00
   X4e  SQ1n  1 4.300000e-01    4.782000e+00
   X4e  TQ1n  1 3.950000e-01    7.318000e+00
   X3e   Q1n  1 4.700000e-01    3.668000e+00
   X3e  SQ1n  1 4.300000e-01    4.718000e+00
   X3e  TQ1n  1 3.950000e-01    7.170000e+00
   X2e   Q1n  1 4.700000e-01    3.517000e+00
   X2e  SQ1n  1 4.300000e-01    4.358000e+00
   X2e  TQ1n  1 3.950000e-01    6.562000e+00
   X1e   Q1n  1 4.700000e-01    3.264000e+00
   X1e  SQ1n  1 4.300000e-01    3.894000e+00
   X1e  TQ1n  1 3.950000e-01    5.679000e+00
   P6q   Q1n  1 4.700000e-01    5.675000e+00
   P6q  SQ1n  1 4.300000e-01    7.185000e+00
   P6q  TQ1n  1 3.950000e-01    1.002300e+01
   P5q   Q1n  1 4.700000e-01    5.927000e+00
   P5q  SQ1n  1 4.300000e-01    7.431000e+00
   P5q  TQ1n  1 3.950000e-01    1.034600e+01
   P4q   Q1n  1 4.700000e-01    5.926000e+00
   P4q  SQ1n  1 4.300000e-01    7.428000e+00
   P4q  TQ1n  1 3.950000e-01    1.033900e+01
   P3q   Q1n  1 4.700000e-01    5.923000e+00
   P3q  SQ1n  1 4.300000e-01    7.419000e+00
   P3q  TQ1n  1 3.950000e-01    1.032000e+01
   P2q   Q1n  1 4.700000e-01    5.921000e+00
   P2q  SQ1n  1 4.300000e-01    7.410000e+00
   P2q  TQ1n  1 3.950000e-01    1.029900e+01
   P1q   Q1n  1 4.700000e-01    5.919000e+00
   P1q  SQ1n  1 4.300000e-01    7.402000e+00
   P1q  TQ1n  1 3.950000e-01    1.028000e+01
   N6q   Q1n  1 4.700000e-01    5.916000e+00
   N6q  SQ1n  1 4.300000e-01    7.391000e+00
   N6q  TQ1n  1 3.950000e-01    1.025400e+01
   N5q   Q1n  1 4.700000e-01    5.661000e+00
   N5q  SQ1n  1 4.300000e-01    7.136000e+00
   N5q  TQ1n  1 3.950000e-01    9.909000e+00
   N4q   Q1n  1 4.700000e-01    5.656000e+00
   N4q  SQ1n  1 4.300000e-01    7.115000e+00
   N4q  TQ1n  1 3.950000e-01    9.861000e+00
   N3q   Q1n  1 4.700000e-01    5.648000e+00
   N3q  SQ1n  1 4.300000e-01    7.086000e+00
   N3q  TQ1n  1 3.950000e-01    9.794000e+00
   N2q   Q1n  1 4.700000e-01    5.376000e+00
   N2q  SQ1n  1 4.300000e-01    6.764000e+00
   N2q  TQ1n  1 3.950000e-01    9.377000e+00
   N1q   Q1n  1 4.700000e-01    5.109000e+00
   N1q  SQ1n  1 4.300000e-01    6.469000e+00
   N1q  TQ1n  1 3.950000e-01    8.987000e+00
   C6q   Q1n  1 4.700000e-01    4.848000e+00
   C6q  SQ1n  1 4.300000e-01    6.158000e+00
   C6q  TQ1n  1 3.950000e-01    8.490000e+00
   C5q   Q1n  1 4.700000e-01    4.454000e+00
   C5q  SQ1n  1 4.300000e-01    5.688000e+00
   C5q  TQ1n  1 3.950000e-01    7.792000e+00
   C4q   Q1n  1 4.700000e-01    4.226000e+00
   C4q  SQ1n  1 4.300000e-01    5.342000e+00
   C4q  TQ1n  1 3.950000e-01    7.237000e+00
   C3q   Q1n  1 4.700000e-01    3.994000e+00
   C3q  SQ1n  1 4.300000e-01    4.894000e+00
   C3q  TQ1n  1 3.950000e-01    6.509000e+00
   C2q   Q1n  1 4.700000e-01    3.214000e+00
   C2q  SQ1n  1 4.300000e-01    3.710000e+00
   C2q  TQ1n  1 3.980000e-01    5.008000e+00
   C1q   Q1n  1 4.700000e-01    3.139000e+00
   C1q  SQ1n  1 4.300000e-01    3.435000e+00
   C1q  TQ1n  1 3.980000e-01    4.375000e+00
   X4q   Q1n  1 4.700000e-01    4.496000e+00
   X4q  SQ1n  1 4.300000e-01    5.842000e+00
   X4q  TQ1n  1 3.950000e-01    8.148000e+00
   X3q   Q1n  1 4.700000e-01    4.478000e+00
   X3q  SQ1n  1 4.300000e-01    5.778000e+00
   X3q  TQ1n  1 3.950000e-01    8.000000e+00
   X2q   Q1n  1 4.700000e-01    4.247000e+00
   X2q  SQ1n  1 4.300000e-01    5.418000e+00
   X2q  TQ1n  1 3.950000e-01    7.412000e+00
   X1q   Q1n  1 4.700000e-01    3.994000e+00
   X1q  SQ1n  1 4.300000e-01    4.894000e+00
   X1q  TQ1n  1 3.950000e-01    6.509000e+00
  P6dq   Q1n  1 4.700000e-01    5.675000e+00
  P6dq  SQ1n  1 4.300000e-01    7.185000e+00
  P6dq  TQ1n  1 3.950000e-01    1.033300e+01
  P5dq   Q1n  1 4.700000e-01    5.927000e+00
  P5dq  SQ1n  1 4.300000e-01    7.431000e+00
  P5dq  TQ1n  1 3.950000e-01    1.067600e+01
  P4dq   Q1n  1 4.700000e-01    5.926000e+00
  P4dq  SQ1n  1 4.300000e-01    7.428000e+00
  P4dq  TQ1n  1 3.950000e-01    1.066900e+01
  P3dq   Q1n  1 4.700000e-01    5.923000e+00
  P3dq  SQ1n  1 4.300000e-01    7.419000e+00
  P3dq  TQ1n  1 3.950000e-01    1.065000e+01
  P2dq   Q1n  1 4.700000e-01    5.921000e+00
  P2dq  SQ1n  1 4.300000e-01    7.410000e+00
  P2dq  TQ1n  1 3.950000e-01    1.062900e+01
  P1dq   Q1n  1 4.700000e-01    5.919000e+00
  P1dq  SQ1n  1 4.300000e-01    7.402000e+00
  P1dq  TQ1n  1 3.950000e-01    1.061000e+01
  N6dq   Q1n  1 4.700000e-01    5.916000e+00
  N6dq  SQ1n  1 4.300000e-01    7.391000e+00
  N6dq  TQ1n  1 3.950000e-01    1.058400e+01
  N5dq   Q1n  1 4.700000e-01    5.661000e+00
  N5dq  SQ1n  1 4.300000e-01    7.136000e+00
  N5dq  TQ1n  1 3.950000e-01    1.021900e+01
  N4dq   Q1n  1 4.700000e-01    5.656000e+00
  N4dq  SQ1n  1 4.300000e-01    7.115000e+00
  N4dq  TQ1n  1 3.950000e-01    1.017100e+01
  N3dq   Q1n  1 4.700000e-01    5.648000e+00
  N3dq  SQ1n  1 4.300000e-01    7.086000e+00
  N3dq  TQ1n  1 3.950000e-01    1.010400e+01
  N2dq   Q1n  1 4.700000e-01    5.376000e+00
  N2dq  SQ1n  1 4.300000e-01    6.764000e+00
  N2dq  TQ1n  1 3.950000e-01    9.697000e+00
  N1dq   Q1n  1 4.700000e-01    5.109000e+00
  N1dq  SQ1n  1 4.300000e-01    6.469000e+00
  N1dq  TQ1n  1 3.950000e-01    9.227000e+00
  P6aq   Q1n  1 4.700000e-01    4.935000e+00
  P6aq  SQ1n  1 4.300000e-01    6.475000e+00
  P6aq  TQ1n  1 3.950000e-01    9.463000e+00
  P5aq   Q1n  1 4.700000e-01    5.167000e+00
  P5aq  SQ1n  1 4.300000e-01    6.681000e+00
  P5aq  TQ1n  1 3.950000e-01    9.716000e+00
  P4aq   Q1n  1 4.700000e-01    5.166000e+00
  P4aq  SQ1n  1 4.300000e-01    6.678000e+00
  P4aq  TQ1n  1 3.950000e-01    9.709000e+00
  P3aq   Q1n  1 4.700000e-01    5.163000e+00
  P3aq  SQ1n  1 4.300000e-01    6.669000e+00
  P3aq  TQ1n  1 3.950000e-01    9.690000e+00
  P2aq   Q1n  1 4.700000e-01    5.161000e+00
  P2aq  SQ1n  1 4.300000e-01    6.660000e+00
  P2aq  TQ1n  1 3.950000e-01    9.669000e+00
  P1aq   Q1n  1 4.700000e-01    5.159000e+00
  P1aq  SQ1n  1 4.300000e-01    6.652000e+00
  P1aq  TQ1n  1 3.950000e-01    9.650000e+00
  N6aq   Q1n  1 4.700000e-01    5.156000e+00
  N6aq  SQ1n  1 4.300000e-01    6.641000e+00
  N6aq  TQ1n  1 3.950000e-01    9.624000e+00
  N5aq   Q1n  1 4.700000e-01    4.921000e+00
  N5aq  SQ1n  1 4.300000e-01    6.426000e+00
  N5aq  TQ1n  1 3.950000e-01    9.349000e+00
  N4aq   Q1n  1 4.700000e-01    4.916000e+00
  N4aq  SQ1n  1 4.300000e-01    6.405000e+00
  N4aq  TQ1n  1 3.950000e-01    9.301000e+00
  N3aq   Q1n  1 4.700000e-01    4.908000e+00
  N3aq  SQ1n  1 4.300000e-01    6.376000e+00
  N3aq  TQ1n  1 3.950000e-01    9.234000e+00
  N2aq   Q1n  1 4.700000e-01    4.706000e+00
  N2aq  SQ1n  1 4.300000e-01    6.134000e+00
  N2aq  TQ1n  1 3.950000e-01    8.897000e+00
  N1aq   Q1n  1 4.700000e-01    4.509000e+00
  N1aq  SQ1n  1 4.300000e-01    5.889000e+00
  N1aq  TQ1n  1 3.950000e-01    8.507000e+00
  C6vq   Q1n  1 4.700000e-01    5.078000e+00
  C6vq  SQ1n  1 4.300000e-01    6.358000e+00
  C6vq  TQ1n  1 3.950000e-01    8.970000e+00
  C5vq   Q1n  1 4.700000e-01    4.634000e+00
  C5vq  SQ1n  1 4.300000e-01    5.868000e+00
  C5vq  TQ1n  1 3.950000e-01    8.282000e+00
  C4vq   Q1n  1 4.700000e-01    4.416000e+00
  C4vq  SQ1n  1 4.300000e-01    5.552000e+00
  C4vq  TQ1n  1 3.950000e-01    7.727000e+00
  C3vq   Q1n  1 4.700000e-01    4.164000e+00
  C3vq  SQ1n  1 4.300000e-01    5.114000e+00
  C3vq  TQ1n  1 3.950000e-01    6.949000e+00
  C2vq   Q1n  1 4.700000e-01    3.384000e+00
  C2vq  SQ1n  1 4.300000e-01    3.870000e+00
  C2vq  TQ1n  1 3.950000e-01    5.435000e+00
  C1vq   Q1n  1 4.700000e-01    3.309000e+00
  C1vq  SQ1n  1 4.300000e-01    3.595000e+00
  C1vq  TQ1n  1 3.950000e-01    4.798000e+00
  X4vq   Q1n  1 4.700000e-01    4.676000e+00
  X4vq  SQ1n  1 4.300000e-01    6.022000e+00
  X4vq  TQ1n  1 3.950000e-01    8.638000e+00
  X3vq   Q1n  1 4.700000e-01    4.658000e+00
  X3vq  SQ1n  1 4.300000e-01    5.958000e+00
  X3vq  TQ1n  1 3.950000e-01    8.490000e+00
  X2vq   Q1n  1 4.700000e-01    4.437000e+00
  X2vq  SQ1n  1 4.300000e-01    5.628000e+00
  X2vq  TQ1n  1 3.950000e-01    7.902000e+00
  X1vq   Q1n  1 4.700000e-01    4.164000e+00
  X1vq  SQ1n  1 4.300000e-01    5.114000e+00
  X1vq  TQ1n  1 3.950000e-01    6.949000e+00
  C6eq   Q1n  1 4.700000e-01    4.478000e+00
  C6eq  SQ1n  1 4.300000e-01    5.778000e+00
  C6eq  TQ1n  1 3.950000e-01    8.250000e+00
  C5eq   Q1n  1 4.700000e-01    4.094000e+00
  C5eq  SQ1n  1 4.300000e-01    5.258000e+00
  C5eq  TQ1n  1 3.950000e-01    7.552000e+00
  C4eq   Q1n  1 4.700000e-01    3.926000e+00
  C4eq  SQ1n  1 4.300000e-01    4.892000e+00
  C4eq  TQ1n  1 3.950000e-01    7.037000e+00
  C3eq   Q1n  1 4.700000e-01    3.714000e+00
  C3eq  SQ1n  1 4.300000e-01    4.654000e+00
  C3eq  TQ1n  1 3.950000e-01    6.319000e+00
  C2eq   Q1n  1 4.700000e-01    2.864000e+00
  C2eq  SQ1n  1 4.300000e-01    3.280000e+00
  C2eq  TQ1n  1 3.990000e-01    4.729000e+00
  C1eq   Q1n  1 4.700000e-01    2.789000e+00
  C1eq  SQ1n  1 4.300000e-01    3.005000e+00
  C1eq  TQ1n  1 3.990000e-01    4.098000e+00
  X4eq   Q1n  1 4.700000e-01    4.136000e+00
  X4eq  SQ1n  1 4.300000e-01    5.412000e+00
  X4eq  TQ1n  1 3.950000e-01    7.908000e+00
  X3eq   Q1n  1 4.700000e-01    4.118000e+00
  X3eq  SQ1n  1 4.300000e-01    5.348000e+00
  X3eq  TQ1n  1 3.950000e-01    7.760000e+00
  X2eq   Q1n  1 4.700000e-01    3.947000e+00
  X2eq  SQ1n  1 4.300000e-01    4.968000e+00
  X2eq  TQ1n  1 3.950000e-01    7.212000e+00
  X1eq   Q1n  1 4.700000e-01    3.714000e+00
  X1eq  SQ1n  1 4.300000e-01    4.654000e+00
  X1eq  TQ1n  1 3.950000e-01    6.319000e+00
   P6h   Q1n  1 4.700000e-01    4.935000e+00
   P6h  SQ1n  1 4.300000e-01    6.475000e+00
   P6h  TQ1n  1 3.950000e-01    9.223000e+00
   P5h   Q1n  1 4.700000e-01    5.167000e+00
   P5h  SQ1n  1 4.300000e-01    6.681000e+00
   P5h  TQ1n  1 3.950000e-01    9.476000e+00
   P4h   Q1n  1 4.700000e-01    5.166000e+00
   P4h  SQ1n  1 4.300000e-01    6.678000e+00
   P4h  TQ1n  1 3.950000e-01    9.469000e+00
   P3h   Q1n  1 4.700000e-01    5.163000e+00
   P3h  SQ1n  1 4.300000e-01    6.669000e+00
   P3h  TQ1n  1 3.950000e-01    9.450000e+00
   P2h   Q1n  1 4.700000e-01    5.161000e+00
   P2h  SQ1n  1 4.300000e-01    6.660000e+00
   P2h  TQ1n  1 3.950000e-01    9.429000e+00
   P1h   Q1n  1 4.700000e-01    5.159000e+00
   P1h  SQ1n  1 4.300000e-01    6.652000e+00
   P1h  TQ1n  1 3.950000e-01    9.410000e+00
   N6h   Q1n  1 4.700000e-01    5.156000e+00
   N6h  SQ1n  1 4.300000e-01    6.641000e+00
   N6h  TQ1n  1 3.950000e-01    9.384000e+00
   N5h   Q1n  1 4.700000e-01    4.921000e+00
   N5h  SQ1n  1 4.300000e-01    6.426000e+00
   N5h  TQ1n  1 3.950000e-01    9.109000e+00
   N4h   Q1n  1 4.700000e-01    4.916000e+00
   N4h  SQ1n  1 4.300000e-01    6.405000e+00
   N4h  TQ1n  1 3.950000e-01    9.061000e+00
   N3h   Q1n  1 4.700000e-01    4.908000e+00
   N3h  SQ1n  1 4.300000e-01    6.376000e+00
   N3h  TQ1n  1 3.950000e-01    8.994000e+00
   N2h   Q1n  1 4.700000e-01    4.706000e+00
   N2h  SQ1n  1 4.300000e-01    6.134000e+00
   N2h  TQ1n  1 3.950000e-01    8.657000e+00
   N1h   Q1n  1 4.700000e-01    4.509000e+00
   N1h  SQ1n  1 4.300000e-01    5.889000e+00
   N1h  TQ1n  1 3.950000e-01    8.257000e+00
   C6h   Q1n  1 4.700000e-01    4.288000e+00
   C6h  SQ1n  1 4.300000e-01    5.568000e+00
   C6h  TQ1n  1 3.950000e-01    7.760000e+00
   C5h   Q1n  1 4.700000e-01    3.964000e+00
   C5h  SQ1n  1 4.300000e-01    5.018000e+00
   C5h  TQ1n  1 3.950000e-01    7.162000e+00
   C4h   Q1n  1 4.700000e-01    3.776000e+00
   C4h  SQ1n  1 4.300000e-01    4.732000e+00
   C4h  TQ1n  1 3.950000e-01    6.647000e+00
   C3h   Q1n  1 4.700000e-01    3.544000e+00
   C3h  SQ1n  1 4.300000e-01    4.264000e+00
   C3h  TQ1n  1 3.950000e-01    5.859000e+00
   C2h   Q1n  1 4.850000e-01    2.651000e+00
   C2h  SQ1n  1 4.430000e-01    2.985000e+00
   C2h  TQ1n  1 4.040000e-01    4.335000e+00
   C1h   Q1n  1 4.850000e-01    2.578000e+00
   C1h  SQ1n  1 4.430000e-01    2.717000e+00
   C1h  TQ1n  1 4.040000e-01    3.712000e+00
   X4h   Q1n  1 4.700000e-01    4.006000e+00
   X4h  SQ1n  1 4.300000e-01    5.172000e+00
   X4h  TQ1n  1 3.950000e-01    7.518000e+00
   X3h   Q1n  1 4.700000e-01    3.988000e+00
   X3h  SQ1n  1 4.300000e-01    5.108000e+00
   X3h  TQ1n  1 3.950000e-01    7.370000e+00
   X2h   Q1n  1 4.700000e-01    3.797000e+00
   X2h  SQ1n  1 4.300000e-01    4.808000e+00
   X2h  TQ1n  1 3.950000e-01    6.822000e+00
   X1h   Q1n  1 4.700000e-01    3.544000e+00
   X1h  SQ1n  1 4.300000e-01    4.264000e+00
   X1h  TQ1n  1 3.950000e-01    5.859000e+00
  P6dh   Q1n  1 4.700000e-01    4.935000e+00
  P6dh  SQ1n  1 4.300000e-01    6.475000e+00
  P6dh  TQ1n  1 3.950000e-01    9.463000e+00
  P5dh   Q1n  1 4.700000e-01    5.167000e+00
  P5dh  SQ1n  1 4.300000e-01    6.681000e+00
  P5dh  TQ1n  1 3.950000e-01    9.716000e+00
  P4dh   Q1n  1 4.700000e-01    5.166000e+00
  P4dh  SQ1n  1 4.300000e-01    6.678000e+00
  P4dh  TQ1n  1 3.950000e-01    9.709000e+00
  P3dh   Q1n  1 4.700000e-01    5.163000e+00
  P3dh  SQ1n  1 4.300000e-01    6.669000e+00
  P3dh  TQ1n  1 3.950000e-01    9.690000e+00
  P2dh   Q1n  1 4.700000e-01    5.161000e+00
  P2dh  SQ1n  1 4.300000e-01    6.660000e+00
  P2dh  TQ1n  1 3.950000e-01    9.669000e+00
  P1dh   Q1n  1 4.700000e-01    5.159000e+00
  P1dh  SQ1n  1 4.300000e-01    6.652000e+00
  P1dh  TQ1n  1 3.950000e-01    9.650000e+00
  N6dh   Q1n  1 4.700000e-01    5.156000e+00
  N6dh  SQ1n  1 4.300000e-01    6.641000e+00
  N6dh  TQ1n  1 3.950000e-01    9.624000e+00
  N5dh   Q1n  1 4.700000e-01    4.921000e+00
  N5dh  SQ1n  1 4.300000e-01    6.426000e+00
  N5dh  TQ1n  1 3.950000e-01    9.349000e+00
  N4dh   Q1n  1 4.700000e-01    4.916000e+00
  N4dh  SQ1n  1 4.300000e-01    6.405000e+00
  N4dh  TQ1n  1 3.950000e-01    9.301000e+00
  N3dh   Q1n  1 4.700000e-01    4.908000e+00
  N3dh  SQ1n  1 4.300000e-01    6.376000e+00
  N3dh  TQ1n  1 3.950000e-01    9.234000e+00
  N2dh   Q1n  1 4.700000e-01    4.706000e+00
  N2dh  SQ1n  1 4.300000e-01    6.134000e+00
  N2dh  TQ1n  1 3.950000e-01    8.897000e+00
  N1dh   Q1n  1 4.700000e-01    4.509000e+00
  N1dh  SQ1n  1 4.300000e-01    5.889000e+00
  N1dh  TQ1n  1 3.950000e-01    8.507000e+00
  P6ah   Q1n  1 4.700000e-01    4.375000e+00
  P6ah  SQ1n  1 4.300000e-01    5.885000e+00
  P6ah  TQ1n  1 3.950000e-01    8.733000e+00
  P5ah   Q1n  1 4.700000e-01    4.567000e+00
  P5ah  SQ1n  1 4.300000e-01    6.101000e+00
  P5ah  TQ1n  1 3.950000e-01    8.996000e+00
  P4ah   Q1n  1 4.700000e-01    4.566000e+00
  P4ah  SQ1n  1 4.300000e-01    6.098000e+00
  P4ah  TQ1n  1 3.950000e-01    8.989000e+00
  P3ah   Q1n  1 4.700000e-01    4.563000e+00
  P3ah  SQ1n  1 4.300000e-01    6.089000e+00
  P3ah  TQ1n  1 3.950000e-01    8.970000e+00
  P2ah   Q1n  1 4.700000e-01    4.561000e+00
  P2ah  SQ1n  1 4.300000e-01    6.080000e+00
  P2ah  TQ1n  1 3.950000e-01    8.949000e+00
  P1ah   Q1n  1 4.700000e-01    4.559000e+00
  P1ah  SQ1n  1 4.300000e-01    6.072000e+00
  P1ah  TQ1n  1 3.950000e-01    8.930000e+00
  N6ah   Q1n  1 4.700000e-01    4.556000e+00
  N6ah  SQ1n  1 4.300000e-01    6.061000e+00
  N6ah  TQ1n  1 3.950000e-01    8.904000e+00
  N5ah   Q1n  1 4.700000e-01    4.361000e+00
  N5ah  SQ1n  1 4.300000e-01    5.836000e+00
  N5ah  TQ1n  1 3.950000e-01    8.619000e+00
  N4ah   Q1n  1 4.700000e-01    4.356000e+00
  N4ah  SQ1n  1 4.300000e-01    5.815000e+00
  N4ah  TQ1n  1 3.950000e-01    8.571000e+00
  N3ah   Q1n  1 4.700000e-01    4.348000e+00
  N3ah  SQ1n  1 4.300000e-01    5.786000e+00
  N3ah  TQ1n  1 3.950000e-01    8.504000e+00
  N2ah   Q1n  1 4.700000e-01    4.166000e+00
  N2ah  SQ1n  1 4.300000e-01    5.524000e+00
  N2ah  TQ1n  1 3.950000e-01    8.167000e+00
  N1ah   Q1n  1 4.700000e-01    4.019000e+00
  N1ah  SQ1n  1 4.300000e-01    5.229000e+00
  N1ah  TQ1n  1 3.950000e-01    7.817000e+00
  C6vh   Q1n  1 4.700000e-01    4.478000e+00
  C6vh  SQ1n  1 4.300000e-01    5.778000e+00
  C6vh  TQ1n  1 3.950000e-01    8.250000e+00
  C5vh   Q1n  1 4.700000e-01    4.094000e+00
  C5vh  SQ1n  1 4.300000e-01    5.258000e+00
  C5vh  TQ1n  1 3.950000e-01    7.552000e+00
  C4vh   Q1n  1 4.700000e-01    3.926000e+00
  C4vh  SQ1n  1 4.300000e-01    4.892000e+00
  C4vh  TQ1n  1 3.950000e-01    7.037000e+00
  C3vh   Q1n  1 4.700000e-01    3.714000e+00
  C3vh  SQ1n  1 4.300000e-01    4.654000e+00
  C3vh  TQ1n  1 3.950000e-01    6.319000e+00
  C2vh   Q1n  1 4.700000e-01    2.864000e+00
  C2vh  SQ1n  1 4.300000e-01    3.280000e+00
  C2vh  TQ1n  1 3.990000e-01    4.729000e+00
  C1vh   Q1n  1 4.700000e-01    2.789000e+00
  C1vh  SQ1n  1 4.300000e-01    3.005000e+00
  C1vh  TQ1n  1 3.990000e-01    4.098000e+00
  X4vh   Q1n  1 4.700000e-01    4.136000e+00
  X4vh  SQ1n  1 4.300000e-01    5.412000e+00
  X4vh  TQ1n  1 3.950000e-01    7.908000e+00
  X3vh   Q1n  1 4.700000e-01    4.118000e+00
  X3vh  SQ1n  1 4.300000e-01    5.348000e+00
  X3vh  TQ1n  1 3.950000e-01    7.760000e+00
  X2vh   Q1n  1 4.700000e-01    3.947000e+00
  X2vh  SQ1n  1 4.300000e-01    4.968000e+00
  X2vh  TQ1n  1 3.950000e-01    7.212000e+00
  X1vh   Q1n  1 4.700000e-01    3.714000e+00
  X1vh  SQ1n  1 4.300000e-01    4.654000e+00
  X1vh  TQ1n  1 3.950000e-01    6.319000e+00
  C6eh   Q1n  1 4.700000e-01    3.988000e+00
  C6eh  SQ1n  1 4.300000e-01    5.118000e+00
  C6eh  TQ1n  1 3.950000e-01    7.560000e+00
  C5eh   Q1n  1 4.700000e-01    3.644000e+00
  C5eh  SQ1n  1 4.300000e-01    4.628000e+00
  C5eh  TQ1n  1 3.950000e-01    6.962000e+00
  C4eh   Q1n  1 4.700000e-01    3.496000e+00
  C4eh  SQ1n  1 4.300000e-01    4.282000e+00
  C4eh  TQ1n  1 3.950000e-01    6.387000e+00
  C3eh   Q1n  1 4.700000e-01    3.264000e+00
  C3eh  SQ1n  1 4.300000e-01    3.894000e+00
  C3eh  TQ1n  1 3.950000e-01    5.679000e+00
  C2eh   Q1n  1 5.700000e-01    2.350000e+00
  C2eh  SQ1n  1 5.080000e-01    2.422000e+00
  C2eh  TQ1n  1 4.650000e-01    3.748000e+00
  C1eh   Q1n  1 5.700000e-01    2.287000e+00
  C1eh  SQ1n  1 5.080000e-01    2.189000e+00
  C1eh  TQ1n  1 4.650000e-01    3.207000e+00
  X4eh   Q1n  1 4.700000e-01    3.686000e+00
  X4eh  SQ1n  1 4.300000e-01    4.782000e+00
  X4eh  TQ1n  1 3.950000e-01    7.318000e+00
  X3eh   Q1n  1 4.700000e-01    3.668000e+00
  X3eh  SQ1n  1 4.300000e-01    4.718000e+00
  X3eh  TQ1n  1 3.950000e-01    7.170000e+00
  X2eh   Q1n  1 4.700000e-01    3.517000e+00
  X2eh  SQ1n  1 4.300000e-01    4.358000e+00
  X2eh  TQ1n  1 3.950000e-01    6.562000e+00
  X1eh   Q1n  1 4.700000e-01    3.264000e+00
  X1eh  SQ1n  1 4.300000e-01    3.894000e+00
  X1eh  TQ1n  1 3.950000e-01    5.679000e+00
   P6r   Q1n  1 4.700000e-01    4.935000e+00
   P6r  SQ1n  1 4.300000e-01    6.475000e+00
   P6r  TQ1n  1 3.950000e-01    9.223000e+00
   P5r   Q1n  1 4.700000e-01    5.167000e+00
   P5r  SQ1n  1 4.300000e-01    6.681000e+00
   P5r  TQ1n  1 3.950000e-01    9.476000e+00
   P4r   Q1n  1 4.700000e-01    5.166000e+00
   P4r  SQ1n  1 4.300000e-01    6.678000e+00
   P4r  TQ1n  1 3.950000e-01    9.469000e+00
   P3r   Q1n  1 4.700000e-01    5.163000e+00
   P3r  SQ1n  1 4.300000e-01    6.669000e+00
   P3r  TQ1n  1 3.950000e-01    9.450000e+00
   P2r   Q1n  1 4.700000e-01    5.161000e+00
   P2r  SQ1n  1 4.300000e-01    6.660000e+00
   P2r  TQ1n  1 3.950000e-01    9.429000e+00
   P1r   Q1n  1 4.700000e-01    5.159000e+00
   P1r  SQ1n  1 4.300000e-01    6.652000e+00
   P1r  TQ1n  1 3.950000e-01    9.410000e+00
   N6r   Q1n  1 4.700000e-01    5.156000e+00
   N6r  SQ1n  1 4.300000e-01    6.641000e+00
   N6r  TQ1n  1 3.950000e-01    9.384000e+00
   N5r   Q1n  1 4.700000e-01    4.921000e+00
   N5r  SQ1n  1 4.300000e-01    6.426000e+00
   N5r  TQ1n  1 3.950000e-01    9.109000e+00
   N4r   Q1n  1 4.700000e-01    4.916000e+00
   N4r  SQ1n  1 4.300000e-01    6.405000e+00
   N4r  TQ1n  1 3.950000e-01    9.061000e+00
   N3r   Q1n  1 4.700000e-01    4.908000e+00
   N3r  SQ1n  1 4.300000e-01    6.376000e+00
   N3r  TQ1n  1 3.950000e-01    8.994000e+00
   N2r   Q1n  1 4.700000e-01    4.706000e+00
   N2r  SQ1n  1 4.300000e-01    6.134000e+00
   N2r  TQ1n  1 3.950000e-01    8.657000e+00
   N1r   Q1n  1 4.700000e-01    4.509000e+00
   N1r  SQ1n  1 4.300000e-01    5.889000e+00
   N1r  TQ1n  1 3.950000e-01    8.257000e+00
   C6r   Q1n  1 4.700000e-01    4.288000e+00
   C6r  SQ1n  1 4.300000e-01    5.568000e+00
   C6r  TQ1n  1 3.950000e-01    7.760000e+00
   C5r   Q1n  1 4.700000e-01    3.964000e+00
   C5r  SQ1n  1 4.300000e-01    5.018000e+00
   C5r  TQ1n  1 3.950000e-01    7.162000e+00
   C4r   Q1n  1 4.700000e-01    3.776000e+00
   C4r  SQ1n  1 4.300000e-01    4.732000e+00
   C4r  TQ1n  1 3.950000e-01    6.647000e+00
   C3r   Q1n  1 4.700000e-01    3.544000e+00
   C3r  SQ1n  1 4.300000e-01    4.264000e+00
   C3r  TQ1n  1 3.950000e-01    5.859000e+00
   C2r   Q1n  1 4.850000e-01    2.651000e+00
   C2r  SQ1n  1 4.430000e-01    2.985000e+00
   C2r  TQ1n  1 4.040000e-01    4.335000e+00
   C1r   Q1n  1 4.850000e-01    2.578000e+00
   C1r  SQ1n  1 4.430000e-01    2.717000e+00
   C1r  TQ1n  1 4.040000e-01    3.712000e+00
   X4r   Q1n  1 4.700000e-01    4.006000e+00
   X4r  SQ1n  1 4.300000e-01    5.172000e+00
   X4r  TQ1n  1 3.950000e-01    7.518000e+00
   X3r   Q1n  1 4.700000e-01    3.988000e+00
   X3r  SQ1n  1 4.300000e-01    5.108000e+00
   X3r  TQ1n  1 3.950000e-01    7.370000e+00
   X2r   Q1n  1 4.700000e-01    3.797000e+00
   X2r  SQ1n  1 4.300000e-01    4.808000e+00
   X2r  TQ1n  1 3.950000e-01    6.822000e+00
   X1r   Q1n  1 4.700000e-01    3.544000e+00
   X1r  SQ1n  1 4.300000e-01    4.264000e+00
   X1r  TQ1n  1 3.950000e-01    5.859000e+00
  P6dr   Q1n  1 4.700000e-01    4.935000e+00
  P6dr  SQ1n  1 4.300000e-01    6.475000e+00
  P6dr  TQ1n  1 3.950000e-01    9.463000e+00
  P5dr   Q1n  1 4.700000e-01    5.167000e+00
  P5dr  SQ1n  1 4.300000e-01    6.681000e+00
  P5dr  TQ1n  1 3.950000e-01    9.716000e+00
  P4dr   Q1n  1 4.700000e-01    5.166000e+00
  P4dr  SQ1n  1 4.300000e-01    6.678000e+00
  P4dr  TQ1n  1 3.950000e-01    9.709000e+00
  P3dr   Q1n  1 4.700000e-01    5.163000e+00
  P3dr  SQ1n  1 4.300000e-01    6.669000e+00
  P3dr  TQ1n  1 3.950000e-01    9.690000e+00
  P2dr   Q1n  1 4.700000e-01    5.161000e+00
  P2dr  SQ1n  1 4.300000e-01    6.660000e+00
  P2dr  TQ1n  1 3.950000e-01    9.669000e+00
  P1dr   Q1n  1 4.700000e-01    5.159000e+00
  P1dr  SQ1n  1 4.300000e-01    6.652000e+00
  P1dr  TQ1n  1 3.950000e-01    9.650000e+00
  N6dr   Q1n  1 4.700000e-01    5.156000e+00
  N6dr  SQ1n  1 4.300000e-01    6.641000e+00
  N6dr  TQ1n  1 3.950000e-01    9.624000e+00
  N5dr   Q1n  1 4.700000e-01    4.921000e+00
  N5dr  SQ1n  1 4.300000e-01    6.426000e+00
  N5dr  TQ1n  1 3.950000e-01    9.349000e+00
  N4dr   Q1n  1 4.700000e-01    4.916000e+00
  N4dr  SQ1n  1 4.300000e-01    6.405000e+00
  N4dr  TQ1n  1 3.950000e-01    9.301000e+00
  N3dr   Q1n  1 4.700000e-01    4.908000e+00
  N3dr  SQ1n  1 4.300000e-01    6.376000e+00
  N3dr  TQ1n  1 3.950000e-01    9.234000e+00
  N2dr   Q1n  1 4.700000e-01    4.706000e+00
  N2dr  SQ1n  1 4.300000e-01    6.134000e+00
  N2dr  TQ1n  1 3.950000e-01    8.897000e+00
  N1dr   Q1n  1 4.700000e-01    4.509000e+00
  N1dr  SQ1n  1 4.300000e-01    5.889000e+00
  N1dr  TQ1n  1 3.950000e-01    8.507000e+00
  P6ar   Q1n  1 4.700000e-01    4.375000e+00
  P6ar  SQ1n  1 4.300000e-01    5.885000e+00
  P6ar  TQ1n  1 3.950000e-01    8.733000e+00
  P5ar   Q1n  1 4.700000e-01    4.567000e+00
  P5ar  SQ1n  1 4.300000e-01    6.101000e+00
  P5ar  TQ1n  1 3.950000e-01    8.996000e+00
  P4ar   Q1n  1 4.700000e-01    4.566000e+00
  P4ar  SQ1n  1 4.300000e-01    6.098000e+00
  P4ar  TQ1n  1 3.950000e-01    8.989000e+00
  P3ar   Q1n  1 4.700000e-01    4.563000e+00
  P3ar  SQ1n  1 4.300000e-01    6.089000e+00
  P3ar  TQ1n  1 3.950000e-01    8.970000e+00
  P2ar   Q1n  1 4.700000e-01    4.561000e+00
  P2ar  SQ1n  1 4.300000e-01    6.080000e+00
  P2ar  TQ1n  1 3.950000e-01    8.949000e+00
  P1ar   Q1n  1 4.700000e-01    4.559000e+00
  P1ar  SQ1n  1 4.300000e-01    6.072000e+00
  P1ar  TQ1n  1 3.950000e-01    8.930000e+00
  N6ar   Q1n  1 4.700000e-01    4.556000e+00
  N6ar  SQ1n  1 4.300000e-01    6.061000e+00
  N6ar  TQ1n  1 3.950000e-01    8.904000e+00
  N5ar   Q1n  1 4.700000e-01    4.361000e+00
  N5ar  SQ1n  1 4.300000e-01    5.836000e+00
  N5ar  TQ1n  1 3.950000e-01    8.619000e+00
  N4ar   Q1n  1 4.700000e-01    4.356000e+00
  N4ar  SQ1n  1 4.300000e-01    5.815000e+00
  N4ar  TQ1n  1 3.950000e-01    8.571000e+00
  N3ar   Q1n  1 4.700000e-01    4.348000e+00
  N3ar  SQ1n  1 4.300000e-01    5.786000e+00
  N3ar  TQ1n  1 3.950000e-01    8.504000e+00
  N2ar   Q1n  1 4.700000e-01    4.166000e+00
  N2ar  SQ1n  1 4.300000e-01    5.524000e+00
  N2ar  TQ1n  1 3.950000e-01    8.167000e+00
  N1ar   Q1n  1 4.700000e-01    4.019000e+00
  N1ar  SQ1n  1 4.300000e-01    5.229000e+00
  N1ar  TQ1n  1 3.950000e-01    7.817000e+00
  C6vr   Q1n  1 4.700000e-01    4.478000e+00
  C6vr  SQ1n  1 4.300000e-01    5.778000e+00
  C6vr  TQ1n  1 3.950000e-01    8.250000e+00
  C5vr   Q1n  1 4.700000e-01    4.094000e+00
  C5vr  SQ1n  1 4.300000e-01    5.258000e+00
  C5vr  TQ1n  1 3.950000e-01    7.552000e+00
  C4vr   Q1n  1 4.700000e-01    3.926000e+00
  C4vr  SQ1n  1 4.300000e-01    4.892000e+00
  C4vr  TQ1n  1 3.950000e-01    7.037000e+00
  C3vr   Q1n  1 4.700000e-01    3.714000e+00
  C3vr  SQ1n  1 4.300000e-01    4.654000e+00
  C3vr  TQ1n  1 3.950000e-01    6.319000e+00
  C2vr   Q1n  1 4.700000e-01    2.864000e+00
  C2vr  SQ1n  1 4.300000e-01    3.280000e+00
  C2vr  TQ1n  1 3.990000e-01    4.729000e+00
  C1vr   Q1n  1 4.700000e-01    2.789000e+00
  C1vr  SQ1n  1 4.300000e-01    3.005000e+00
  C1vr  TQ1n  1 3.990000e-01    4.098000e+00
  X4vr   Q1n  1 4.700000e-01    4.136000e+00
  X4vr  SQ1n  1 4.300000e-01    5.412000e+00
  X4vr  TQ1n  1 3.950000e-01    7.908000e+00
  X3vr   Q1n  1 4.700000e-01    4.118000e+00
  X3vr  SQ1n  1 4.300000e-01    5.348000e+00
  X3vr  TQ1n  1 3.950000e-01    7.760000e+00
  X2vr   Q1n  1 4.700000e-01    3.947000e+00
  X2vr  SQ1n  1 4.300000e-01    4.968000e+00
  X2vr  TQ1n  1 3.950000e-01    7.212000e+00
  X1vr   Q1n  1 4.700000e-01    3.714000e+00
  X1vr  SQ1n  1 4.300000e-01    4.654000e+00
  X1vr  TQ1n  1 3.950000e-01    6.319000e+00
  C6er   Q1n  1 4.700000e-01    3.988000e+00
  C6er  SQ1n  1 4.300000e-01    5.118000e+00
  C6er  TQ1n  1 3.950000e-01    7.560000e+00
  C5er   Q1n  1 4.700000e-01    3.644000e+00
  C5er  SQ1n  1 4.300000e-01    4.628000e+00
  C5er  TQ1n  1 3.950000e-01    6.962000e+00
  C4er   Q1n  1 4.700000e-01    3.496000e+00
  C4er  SQ1n  1 4.300000e-01    4.282000e+00
  C4er  TQ1n  1 3.950000e-01    6.387000e+00
  C3er   Q1n  1 4.700000e-01    3.264000e+00
  C3er  SQ1n  1 4.300000e-01    3.894000e+00
  C3er  TQ1n  1 3.950000e-01    5.679000e+00
  C2er   Q1n  1 5.700000e-01    2.350000e+00
  C2er  SQ1n  1 5.080000e-01    2.422000e+00
  C2er  TQ1n  1 4.650000e-01    3.748000e+00
  C1er   Q1n  1 5.700000e-01    2.287000e+00
  C1er  SQ1n  1 5.080000e-01    2.189000e+00
  C1er  TQ1n  1 4.650000e-01    3.207000e+00
  X4er   Q1n  1 4.700000e-01    3.686000e+00
  X4er  SQ1n  1 4.300000e-01    4.782000e+00
  X4er  TQ1n  1 3.950000e-01    7.318000e+00
  X3er   Q1n  1 4.700000e-01    3.668000e+00
  X3er  SQ1n  1 4.300000e-01    4.718000e+00
  X3er  TQ1n  1 3.950000e-01    7.170000e+00
  X2er   Q1n  1 4.700000e-01    3.517000e+00
  X2er  SQ1n  1 4.300000e-01    4.358000e+00
  X2er  TQ1n  1 3.950000e-01    6.562000e+00
  X1er   Q1n  1 4.700000e-01    3.264000e+00
  X1er  SQ1n  1 4.300000e-01    3.894000e+00
  X1er  TQ1n  1 3.950000e-01    5.679000e+00
   SP6   Q1n  1 4.300000e-01    4.437000e+00
   SP6  SQ1n  1 4.100000e-01    5.923000e+00
   SP6  TQ1n  1 3.650000e-01    8.061000e+00
   SP5   Q1n  1 4.300000e-01    4.641000e+00
   SP5  SQ1n  1 4.100000e-01    6.216000e+00
   SP5  TQ1n  1 3.650000e-01    8.378000e+00
   SP4   Q1n  1 4.300000e-01    4.644000e+00
   SP4  SQ1n  1 4.100000e-01    6.231000e+00
   SP4  TQ1n  1 3.650000e-01    8.409000e+00
   SP3   Q1n  1 4.300000e-01    4.644000e+00
   SP3  SQ1n  1 4.100000e-01    6.231000e+00
   SP3  TQ1n  1 3.650000e-01    8.410000e+00
   SP2   Q1n  1 4.300000e-01    4.644000e+00
   SP2  SQ1n  1 4.100000e-01    6.228000e+00
   SP2  TQ1n  1 3.650000e-01    8.403000e+00
   SP1   Q1n  1 4.300000e-01    4.643000e+00
   SP1  SQ1n  1 4.100000e-01    6.223000e+00
   SP1  TQ1n  1 3.650000e-01    8.393000e+00
   SN6   Q1n  1 4.300000e-01    4.641000e+00
   SN6  SQ1n  1 4.100000e-01    6.216000e+00
   SN6  TQ1n  1 3.650000e-01    8.378000e+00
   SN5   Q1n  1 4.300000e-01    4.439000e+00
   SN5  SQ1n  1 4.100000e-01    5.934000e+00
   SN5  TQ1n  1 3.650000e-01    8.084000e+00
   SN4   Q1n  1 4.300000e-01    4.436000e+00
   SN4  SQ1n  1 4.100000e-01    5.918000e+00
   SN4  TQ1n  1 3.650000e-01    8.049000e+00
   SN3   Q1n  1 4.300000e-01    4.431000e+00
   SN3  SQ1n  1 4.100000e-01    5.893000e+00
   SN3  TQ1n  1 3.650000e-01    7.997000e+00
   SN2   Q1n  1 4.300000e-01    4.223000e+00
   SN2  SQ1n  1 4.100000e-01    5.615000e+00
   SN2  TQ1n  1 3.650000e-01    7.647000e+00
   SN1   Q1n  1 4.300000e-01    4.031000e+00
   SN1  SQ1n  1 4.100000e-01    5.314000e+00
   SN1  TQ1n  1 3.650000e-01    7.260000e+00
   SC6   Q1n  1 4.300000e-01    3.800000e+00
   SC6  SQ1n  1 4.100000e-01    4.977000e+00
   SC6  TQ1n  1 3.650000e-01    6.806000e+00
   SC5   Q1n  1 4.300000e-01    3.323000e+00
   SC5  SQ1n  1 4.100000e-01    4.398000e+00
   SC5  TQ1n  1 3.650000e-01    6.192000e+00
   SC4   Q1n  1 4.300000e-01    3.147000e+00
   SC4  SQ1n  1 4.100000e-01    4.114000e+00
   SC4  TQ1n  1 3.650000e-01    5.751000e+00
   SC3   Q1n  1 4.300000e-01    2.862000e+00
   SC3  SQ1n  1 4.100000e-01    3.728000e+00
   SC3  TQ1n  1 3.660000e-01    5.118000e+00
   SC2   Q1n  1 4.430000e-01    1.767000e+00
   SC2  SQ1n  1 4.210000e-01    2.716000e+00
   SC2  TQ1n  1 4.230000e-01    3.696000e+00
   SC1   Q1n  1 4.430000e-01    1.715000e+00
   SC1  SQ1n  1 4.210000e-01    2.448000e+00
   SC1  TQ1n  1 4.230000e-01    3.201000e+00
   SX4   Q1n  1 4.300000e-01    3.352000e+00
   SX4  SQ1n  1 4.100000e-01    4.548000e+00
   SX4  TQ1n  1 3.650000e-01    6.505000e+00
   SX3   Q1n  1 4.300000e-01    3.340000e+00
   SX3  SQ1n  1 4.100000e-01    4.487000e+00
   SX3  TQ1n  1 3.650000e-01    6.376000e+00
   SX2   Q1n  1 4.300000e-01    3.161000e+00
   SX2  SQ1n  1 4.100000e-01    4.189000e+00
   SX2  TQ1n  1 3.650000e-01    5.907000e+00
   SX1   Q1n  1 4.300000e-01    2.862000e+00
   SX1  SQ1n  1 4.100000e-01    3.728000e+00
   SX1  TQ1n  1 3.660000e-01    5.118000e+00
  SP6d   Q1n  1 4.300000e-01    4.437000e+00
  SP6d  SQ1n  1 4.100000e-01    6.193000e+00
  SP6d  TQ1n  1 3.650000e-01    8.331000e+00
  SP5d   Q1n  1 4.300000e-01    4.641000e+00
  SP5d  SQ1n  1 4.100000e-01    6.436000e+00
  SP5d  TQ1n  1 3.650000e-01    8.648000e+00
  SP4d   Q1n  1 4.300000e-01    4.644000e+00
  SP4d  SQ1n  1 4.100000e-01    6.451000e+00
  SP4d  TQ1n  1 3.650000e-01    8.679000e+00
  SP3d   Q1n  1 4.300000e-01    4.644000e+00
  SP3d  SQ1n  1 4.100000e-01    6.451000e+00
  SP3d  TQ1n  1 3.650000e-01    8.680000e+00
  SP2d   Q1n  1 4.300000e-01    4.644000e+00
  SP2d  SQ1n  1 4.100000e-01    6.448000e+00
  SP2d  TQ1n  1 3.650000e-01    8.673000e+00
  SP1d   Q1n  1 4.300000e-01    4.643000e+00
  SP1d  SQ1n  1 4.100000e-01    6.443000e+00
  SP1d  TQ1n  1 3.650000e-01    8.663000e+00
  SN6d   Q1n  1 4.300000e-01    4.641000e+00
  SN6d  SQ1n  1 4.100000e-01    6.436000e+00
  SN6d  TQ1n  1 3.650000e-01    8.648000e+00
  SN5d   Q1n  1 4.300000e-01    4.439000e+00
  SN5d  SQ1n  1 4.100000e-01    6.204000e+00
  SN5d  TQ1n  1 3.650000e-01    8.354000e+00
  SN4d   Q1n  1 4.300000e-01    4.436000e+00
  SN4d  SQ1n  1 4.100000e-01    6.188000e+00
  SN4d  TQ1n  1 3.650000e-01    8.319000e+00
  SN3d   Q1n  1 4.300000e-01    4.431000e+00
  SN3d  SQ1n  1 4.100000e-01    6.163000e+00
  SN3d  TQ1n  1 3.650000e-01    8.267000e+00
  SN2d   Q1n  1 4.300000e-01    4.223000e+00
  SN2d  SQ1n  1 4.100000e-01    5.855000e+00
  SN2d  TQ1n  1 3.650000e-01    7.917000e+00
  SN1d   Q1n  1 4.300000e-01    4.031000e+00
  SN1d  SQ1n  1 4.100000e-01    5.554000e+00
  SN1d  TQ1n  1 3.650000e-01    7.520000e+00
  SP6a   Q1n  1 4.300000e-01    3.847000e+00
  SP6a  SQ1n  1 4.100000e-01    5.443000e+00
  SP6a  TQ1n  1 3.650000e-01    7.531000e+00
  SP5a   Q1n  1 4.300000e-01    4.061000e+00
  SP5a  SQ1n  1 4.100000e-01    5.706000e+00
  SP5a  TQ1n  1 3.650000e-01    7.838000e+00
  SP4a   Q1n  1 4.300000e-01    4.064000e+00
  SP4a  SQ1n  1 4.100000e-01    5.721000e+00
  SP4a  TQ1n  1 3.650000e-01    7.869000e+00
  SP3a   Q1n  1 4.300000e-01    4.064000e+00
  SP3a  SQ1n  1 4.100000e-01    5.721000e+00
  SP3a  TQ1n  1 3.650000e-01    7.870000e+00
  SP2a   Q1n  1 4.300000e-01    4.064000e+00
  SP2a  SQ1n  1 4.100000e-01    5.718000e+00
  SP2a  TQ1n  1 3.650000e-01    7.863000e+00
  SP1a   Q1n  1 4.300000e-01    4.063000e+00
  SP1a  SQ1n  1 4.100000e-01    5.713000e+00
  SP1a  TQ1n  1 3.650000e-01    7.853000e+00
  SN6a   Q1n  1 4.300000e-01    4.061000e+00
  SN6a  SQ1n  1 4.100000e-01    5.706000e+00
  SN6a  TQ1n  1 3.650000e-01    7.838000e+00
  SN5a   Q1n  1 4.300000e-01    3.849000e+00
  SN5a  SQ1n  1 4.100000e-01    5.454000e+00
  SN5a  TQ1n  1 3.650000e-01    7.554000e+00
  SN4a   Q1n  1 4.300000e-01    3.846000e+00
  SN4a  SQ1n  1 4.100000e-01    5.438000e+00
  SN4a  TQ1n  1 3.650000e-01    7.519000e+00
  SN3a   Q1n  1 4.300000e-01    3.841000e+00
  SN3a  SQ1n  1 4.100000e-01    5.413000e+00
  SN3a  TQ1n  1 3.650000e-01    7.467000e+00
  SN2a   Q1n  1 4.300000e-01    3.613000e+00
  SN2a  SQ1n  1 4.100000e-01    5.145000e+00
  SN2a  TQ1n  1 3.650000e-01    7.157000e+00
  SN1a   Q1n  1 4.300000e-01    3.371000e+00
  SN1a  SQ1n  1 4.100000e-01    4.844000e+00
  SN1a  TQ1n  1 3.650000e-01    6.800000e+00
  SC6v   Q1n  1 4.300000e-01    4.010000e+00
  SC6v  SQ1n  1 4.100000e-01    5.447000e+00
  SC6v  TQ1n  1 3.650000e-01    7.296000e+00
  SC5v   Q1n  1 4.300000e-01    3.563000e+00
  SC5v  SQ1n  1 4.100000e-01    4.888000e+00
  SC5v  TQ1n  1 3.650000e-01    6.622000e+00
  SC4v   Q1n  1 4.300000e-01    3.307000e+00
  SC4v  SQ1n  1 4.100000e-01    4.514000e+00
  SC4v  TQ1n  1 3.650000e-01    6.111000e+00
  SC3v   Q1n  1 4.300000e-01    3.252000e+00
  SC3v  SQ1n  1 4.100000e-01    4.038000e+00
  SC3v  TQ1n  1 3.650000e-01    5.438000e+00
  SC2v   Q1n  1 4.300000e-01    2.026000e+00
  SC2v  SQ1n  1 4.140000e-01    3.051000e+00
  SC2v  TQ1n  1 4.040000e-01    3.973000e+00
  SC1v   Q1n  1 4.300000e-01    1.972000e+00
  SC1v  SQ1n  1 4.140000e-01    2.779000e+00
  SC1v  TQ1n  1 4.040000e-01    3.454000e+00
  SX4v   Q1n  1 4.300000e-01    3.592000e+00
  SX4v  SQ1n  1 4.100000e-01    5.038000e+00
  SX4v  TQ1n  1 3.650000e-01    6.935000e+00
  SX3v   Q1n  1 4.300000e-01    3.580000e+00
  SX3v  SQ1n  1 4.100000e-01    4.977000e+00
  SX3v  TQ1n  1 3.650000e-01    6.806000e+00
  SX2v   Q1n  1 4.300000e-01    3.321000e+00
  SX2v  SQ1n  1 4.100000e-01    4.589000e+00
  SX2v  TQ1n  1 3.650000e-01    6.267000e+00
  SX1v   Q1n  1 4.300000e-01    3.252000e+00
  SX1v  SQ1n  1 4.100000e-01    4.038000e+00
  SX1v  TQ1n  1 3.650000e-01    5.438000e+00
  SC6e   Q1n  1 4.300000e-01    3.350000e+00
  SC6e  SQ1n  1 4.100000e-01    4.737000e+00
  SC6e  TQ1n  1 3.650000e-01    6.576000e+00
  SC5e   Q1n  1 4.300000e-01    2.933000e+00
  SC5e  SQ1n  1 4.100000e-01    4.248000e+00
  SC5e  TQ1n  1 3.650000e-01    6.032000e+00
  SC4e   Q1n  1 4.300000e-01    2.697000e+00
  SC4e  SQ1n  1 4.100000e-01    3.954000e+00
  SC4e  TQ1n  1 3.660000e-01    5.590000e+00
  SC3e   Q1n  1 4.300000e-01    2.492000e+00
  SC3e  SQ1n  1 4.100000e-01    3.598000e+00
  SC3e  TQ1n  1 3.780000e-01    4.856000e+00
  SC2e   Q1n  1 5.080000e-01    1.361000e+00
  SC2e  SQ1n  1 4.530000e-01    2.512000e+00
  SC2e  TQ1n  1 4.840000e-01    3.263000e+00
  SC1e   Q1n  1 5.080000e-01    1.315000e+00
  SC1e  SQ1n  1 4.530000e-01    2.264000e+00
  SC1e  TQ1n  1 4.840000e-01    2.830000e+00
  SX4e   Q1n  1 4.300000e-01    2.962000e+00
  SX4e  SQ1n  1 4.100000e-01    4.398000e+00
  SX4e  TQ1n  1 3.650000e-01    6.345000e+00
  SX3e   Q1n  1 4.300000e-01    2.950000e+00
  SX3e  SQ1n  1 4.100000e-01    4.337000e+00
  SX3e  TQ1n  1 3.650000e-01    6.216000e+00
  SX2e   Q1n  1 4.300000e-01    2.711000e+00
  SX2e  SQ1n  1 4.100000e-01    4.029000e+00
  SX2e  TQ1n  1 3.660000e-01    5.746000e+00
  SX1e   Q1n  1 4.300000e-01    2.492000e+00
  SX1e  SQ1n  1 4.100000e-01    3.598000e+00
  SX1e  TQ1n  1 3.780000e-01    4.856000e+00
  SP6q   Q1n  1 4.300000e-01    5.147000e+00
  SP6q  SQ1n  1 4.100000e-01    6.663000e+00
  SP6q  TQ1n  1 3.650000e-01    8.891000e+00
  SP5q   Q1n  1 4.300000e-01    5.391000e+00
  SP5q  SQ1n  1 4.100000e-01    6.946000e+00
  SP5q  TQ1n  1 3.650000e-01    9.228000e+00
  SP4q   Q1n  1 4.300000e-01    5.394000e+00
  SP4q  SQ1n  1 4.100000e-01    6.961000e+00
  SP4q  TQ1n  1 3.650000e-01    9.259000e+00
  SP3q   Q1n  1 4.300000e-01    5.394000e+00
  SP3q  SQ1n  1 4.100000e-01    6.961000e+00
  SP3q  TQ1n  1 3.650000e-01    9.260000e+00
  SP2q   Q1n  1 4.300000e-01    5.394000e+00
  SP2q  SQ1n  1 4.100000e-01    6.958000e+00
  SP2q  TQ1n  1 3.650000e-01    9.253000e+00
  SP1q   Q1n  1 4.300000e-01    5.393000e+00
  SP1q  SQ1n  1 4.100000e-01    6.953000e+00
  SP1q  TQ1n  1 3.650000e-01    9.243000e+00
  SN6q   Q1n  1 4.300000e-01    5.391000e+00
  SN6q  SQ1n  1 4.100000e-01    6.946000e+00
  SN6q  TQ1n  1 3.650000e-01    9.228000e+00
  SN5q   Q1n  1 4.300000e-01    5.149000e+00
  SN5q  SQ1n  1 4.100000e-01    6.674000e+00
  SN5q  TQ1n  1 3.650000e-01    8.914000e+00
  SN4q   Q1n  1 4.300000e-01    5.146000e+00
  SN4q  SQ1n  1 4.100000e-01    6.658000e+00
  SN4q  TQ1n  1 3.650000e-01    8.879000e+00
  SN3q   Q1n  1 4.300000e-01    5.141000e+00
  SN3q  SQ1n  1 4.100000e-01    6.633000e+00
  SN3q  TQ1n  1 3.650000e-01    8.827000e+00
  SN2q   Q1n  1 4.300000e-01    4.853000e+00
  SN2q  SQ1n  1 4.100000e-01    6.345000e+00
  SN2q  TQ1n  1 3.650000e-01    8.457000e+00
  SN1q   Q1n  1 4.300000e-01    4.611000e+00
  SN1q  SQ1n  1 4.100000e-01    6.064000e+00
  SN1q  TQ1n  1 3.650000e-01    8.060000e+00
  SC6q   Q1n  1 4.300000e-01    4.390000e+00
  SC6q  SQ1n  1 4.100000e-01    5.687000e+00
  SC6q  TQ1n  1 3.650000e-01    7.566000e+00
  SC5q   Q1n  1 4.300000e-01    3.993000e+00
  SC5q  SQ1n  1 4.100000e-01    5.118000e+00
  SC5q  TQ1n  1 3.650000e-01    6.852000e+00
  SC4q   Q1n  1 4.300000e-01    3.757000e+00
  SC4q  SQ1n  1 4.100000e-01    4.754000e+00
  SC4q  TQ1n  1 3.650000e-01    6.341000e+00
  SC3q   Q1n  1 4.300000e-01    3.492000e+00
  SC3q  SQ1n  1 4.100000e-01    4.288000e+00
  SC3q  TQ1n  1 3.650000e-01    5.638000e+00
  SC2q   Q1n  1 4.300000e-01    2.456000e+00
  SC2q  SQ1n  1 4.100000e-01    3.255000e+00
  SC2q  TQ1n  1 3.940000e-01    4.205000e+00
  SC1q   Q1n  1 4.300000e-01    2.402000e+00
  SC1q  SQ1n  1 4.100000e-01    2.981000e+00
  SC1q  TQ1n  1 3.940000e-01    3.673000e+00
  SX4q   Q1n  1 4.300000e-01    4.022000e+00
  SX4q  SQ1n  1 4.100000e-01    5.268000e+00
  SX4q  TQ1n  1 3.650000e-01    7.165000e+00
  SX3q   Q1n  1 4.300000e-01    4.010000e+00
  SX3q  SQ1n  1 4.100000e-01    5.207000e+00
  SX3q  TQ1n  1 3.650000e-01    7.036000e+00
  SX2q   Q1n  1 4.300000e-01    3.771000e+00
  SX2q  SQ1n  1 4.100000e-01    4.829000e+00
  SX2q  TQ1n  1 3.650000e-01    6.497000e+00
  SX1q   Q1n  1 4.300000e-01    3.492000e+00
  SX1q  SQ1n  1 4.100000e-01    4.288000e+00
  SX1q  TQ1n  1 3.650000e-01    5.638000e+00
 SP6dq   Q1n  1 4.300000e-01    5.147000e+00
 SP6dq  SQ1n  1 4.100000e-01    6.923000e+00
 SP6dq  TQ1n  1 3.650000e-01    9.181000e+00
 SP5dq   Q1n  1 4.300000e-01    5.391000e+00
 SP5dq  SQ1n  1 4.100000e-01    7.236000e+00
 SP5dq  TQ1n  1 3.650000e-01    9.518000e+00
 SP4dq   Q1n  1 4.300000e-01    5.394000e+00
 SP4dq  SQ1n  1 4.100000e-01    7.251000e+00
 SP4dq  TQ1n  1 3.650000e-01    9.549000e+00
 SP3dq   Q1n  1 4.300000e-01    5.394000e+00
 SP3dq  SQ1n  1 4.100000e-01    7.251000e+00
 SP3dq  TQ1n  1 3.650000e-01    9.550000e+00
 SP2dq   Q1n  1 4.300000e-01    5.394000e+00
 SP2dq  SQ1n  1 4.100000e-01    7.248000e+00
 SP2dq  TQ1n  1 3.650000e-01    9.543000e+00
 SP1dq   Q1n  1 4.300000e-01    5.393000e+00
 SP1dq  SQ1n  1 4.100000e-01    7.243000e+00
 SP1dq  TQ1n  1 3.650000e-01    9.533000e+00
 SN6dq   Q1n  1 4.300000e-01    5.391000e+00
 SN6dq  SQ1n  1 4.100000e-01    7.236000e+00
 SN6dq  TQ1n  1 3.650000e-01    9.518000e+00
 SN5dq   Q1n  1 4.300000e-01    5.149000e+00
 SN5dq  SQ1n  1 4.100000e-01    6.934000e+00
 SN5dq  TQ1n  1 3.650000e-01    9.204000e+00
 SN4dq   Q1n  1 4.300000e-01    5.146000e+00
 SN4dq  SQ1n  1 4.100000e-01    6.918000e+00
 SN4dq  TQ1n  1 3.650000e-01    9.169000e+00
 SN3dq   Q1n  1 4.300000e-01    5.141000e+00
 SN3dq  SQ1n  1 4.100000e-01    6.893000e+00
 SN3dq  TQ1n  1 3.650000e-01    9.117000e+00
 SN2dq   Q1n  1 4.300000e-01    4.853000e+00
 SN2dq  SQ1n  1 4.100000e-01    6.595000e+00
 SN2dq  TQ1n  1 3.650000e-01    8.747000e+00
 SN1dq   Q1n  1 4.300000e-01    4.611000e+00
 SN1dq  SQ1n  1 4.100000e-01    6.284000e+00
 SN1dq  TQ1n  1 3.650000e-01    8.330000e+00
 SP6aq   Q1n  1 4.300000e-01    4.437000e+00
 SP6aq  SQ1n  1 4.100000e-01    6.193000e+00
 SP6aq  TQ1n  1 3.650000e-01    8.331000e+00
 SP5aq   Q1n  1 4.300000e-01    4.641000e+00
 SP5aq  SQ1n  1 4.100000e-01    6.436000e+00
 SP5aq  TQ1n  1 3.650000e-01    8.648000e+00
 SP4aq   Q1n  1 4.300000e-01    4.644000e+00
 SP4aq  SQ1n  1 4.100000e-01    6.451000e+00
 SP4aq  TQ1n  1 3.650000e-01    8.679000e+00
 SP3aq   Q1n  1 4.300000e-01    4.644000e+00
 SP3aq  SQ1n  1 4.100000e-01    6.451000e+00
 SP3aq  TQ1n  1 3.650000e-01    8.680000e+00
 SP2aq   Q1n  1 4.300000e-01    4.644000e+00
 SP2aq  SQ1n  1 4.100000e-01    6.448000e+00
 SP2aq  TQ1n  1 3.650000e-01    8.673000e+00
 SP1aq   Q1n  1 4.300000e-01    4.643000e+00
 SP1aq  SQ1n  1 4.100000e-01    6.443000e+00
 SP1aq  TQ1n  1 3.650000e-01    8.663000e+00
 SN6aq   Q1n  1 4.300000e-01    4.641000e+00
 SN6aq  SQ1n  1 4.100000e-01    6.436000e+00
 SN6aq  TQ1n  1 3.650000e-01    8.648000e+00
 SN5aq   Q1n  1 4.300000e-01    4.439000e+00
 SN5aq  SQ1n  1 4.100000e-01    6.204000e+00
 SN5aq  TQ1n  1 3.650000e-01    8.354000e+00
 SN4aq   Q1n  1 4.300000e-01    4.436000e+00
 SN4aq  SQ1n  1 4.100000e-01    6.188000e+00
 SN4aq  TQ1n  1 3.650000e-01    8.319000e+00
 SN3aq   Q1n  1 4.300000e-01    4.431000e+00
 SN3aq  SQ1n  1 4.100000e-01    6.163000e+00
 SN3aq  TQ1n  1 3.650000e-01    8.267000e+00
 SN2aq   Q1n  1 4.300000e-01    4.223000e+00
 SN2aq  SQ1n  1 4.100000e-01    5.855000e+00
 SN2aq  TQ1n  1 3.650000e-01    7.917000e+00
 SN1aq   Q1n  1 4.300000e-01    4.031000e+00
 SN1aq  SQ1n  1 4.100000e-01    5.554000e+00
 SN1aq  TQ1n  1 3.650000e-01    7.520000e+00
 SC6vq   Q1n  1 4.300000e-01    4.590000e+00
 SC6vq  SQ1n  1 4.100000e-01    6.177000e+00
 SC6vq  TQ1n  1 3.650000e-01    8.106000e+00
 SC5vq   Q1n  1 4.300000e-01    4.173000e+00
 SC5vq  SQ1n  1 4.100000e-01    5.598000e+00
 SC5vq  TQ1n  1 3.650000e-01    7.382000e+00
 SC4vq   Q1n  1 4.300000e-01    3.967000e+00
 SC4vq  SQ1n  1 4.100000e-01    5.224000e+00
 SC4vq  TQ1n  1 3.650000e-01    6.831000e+00
 SC3vq   Q1n  1 4.300000e-01    3.712000e+00
 SC3vq  SQ1n  1 4.100000e-01    4.758000e+00
 SC3vq  TQ1n  1 3.650000e-01    6.098000e+00
 SC2vq   Q1n  1 4.300000e-01    2.616000e+00
 SC2vq  SQ1n  1 4.100000e-01    3.545000e+00
 SC2vq  TQ1n  1 3.660000e-01    4.738000e+00
 SC1vq   Q1n  1 4.300000e-01    2.562000e+00
 SC1vq  SQ1n  1 4.100000e-01    3.271000e+00
 SC1vq  TQ1n  1 3.660000e-01    4.165000e+00
 SX4vq   Q1n  1 4.300000e-01    4.202000e+00
 SX4vq  SQ1n  1 4.100000e-01    5.748000e+00
 SX4vq  TQ1n  1 3.650000e-01    7.695000e+00
 SX3vq   Q1n  1 4.300000e-01    4.190000e+00
 SX3vq  SQ1n  1 4.100000e-01    5.687000e+00
 SX3vq  TQ1n  1 3.650000e-01    7.566000e+00
 SX2vq   Q1n  1 4.300000e-01    3.981000e+00
 SX2vq  SQ1n  1 4.100000e-01    5.299000e+00
 SX2vq  TQ1n  1 3.650000e-01    6.987000e+00
 SX1vq   Q1n  1 4.300000e-01    3.712000e+00
 SX1vq  SQ1n  1 4.100000e-01    4.758000e+00
 SX1vq  TQ1n  1 3.650000e-01    6.098000e+00
 SC6eq   Q1n  1 4.300000e-01    4.010000e+00
 SC6eq  SQ1n  1 4.100000e-01    5.447000e+00
 SC6eq  TQ1n  1 3.650000e-01    7.296000e+00
 SC5eq   Q1n  1 4.300000e-01    3.563000e+00
 SC5eq  SQ1n  1 4.100000e-01    4.888000e+00
 SC5eq  TQ1n  1 3.650000e-01    6.622000e+00
 SC4eq   Q1n  1 4.300000e-01    3.307000e+00
 SC4eq  SQ1n  1 4.100000e-01    4.514000e+00
 SC4eq  TQ1n  1 3.650000e-01    6.111000e+00
 SC3eq   Q1n  1 4.300000e-01    3.252000e+00
 SC3eq  SQ1n  1 4.100000e-01    4.038000e+00
 SC3eq  TQ1n  1 3.650000e-01    5.438000e+00
 SC2eq   Q1n  1 4.300000e-01    2.026000e+00
 SC2eq  SQ1n  1 4.140000e-01    3.051000e+00
 SC2eq  TQ1n  1 4.040000e-01    3.973000e+00
 SC1eq   Q1n  1 4.300000e-01    1.972000e+00
 SC1eq  SQ1n  1 4.140000e-01    2.779000e+00
 SC1eq  TQ1n  1 4.040000e-01    3.454000e+00
 SX4eq   Q1n  1 4.300000e-01    3.592000e+00
 SX4eq  SQ1n  1 4.100000e-01    5.038000e+00
 SX4eq  TQ1n  1 3.650000e-01    6.935000e+00
 SX3eq   Q1n  1 4.300000e-01    3.580000e+00
 SX3eq  SQ1n  1 4.100000e-01    4.977000e+00
 SX3eq  TQ1n  1 3.650000e-01    6.806000e+00
 SX2eq   Q1n  1 4.300000e-01    3.321000e+00
 SX2eq  SQ1n  1 4.100000e-01    4.589000e+00
 SX2eq  TQ1n  1 3.650000e-01    6.267000e+00
 SX1eq   Q1n  1 4.300000e-01    3.252000e+00
 SX1eq  SQ1n  1 4.100000e-01    4.038000e+00
 SX1eq  TQ1n  1 3.650000e-01    5.438000e+00
  SP6h   Q1n  1 4.300000e-01    4.437000e+00
  SP6h  SQ1n  1 4.100000e-01    5.923000e+00
  SP6h  TQ1n  1 3.650000e-01    8.061000e+00
  SP5h   Q1n  1 4.300000e-01    4.641000e+00
  SP5h  SQ1n  1 4.100000e-01    6.216000e+00
  SP5h  TQ1n  1 3.650000e-01    8.378000e+00
  SP4h   Q1n  1 4.300000e-01    4.644000e+00
  SP4h  SQ1n  1 4.100000e-01    6.231000e+00
  SP4h  TQ1n  1 3.650000e-01    8.409000e+00
  SP3h   Q1n  1 4.300000e-01    4.644000e+00
  SP3h  SQ1n  1 4.100000e-01    6.231000e+00
  SP3h  TQ1n  1 3.650000e-01    8.410000e+00
  SP2h   Q1n  1 4.300000e-01    4.644000e+00
  SP2h  SQ1n  1 4.100000e-01    6.228000e+00
  SP2h  TQ1n  1 3.650000e-01    8.403000e+00
  SP1h   Q1n  1 4.300000e-01    4.643000e+00
  SP1h  SQ1n  1 4.100000e-01    6.223000e+00
  SP1h  TQ1n  1 3.650000e-01    8.393000e+00
  SN6h   Q1n  1 4.300000e-01    4.641000e+00
  SN6h  SQ1n  1 4.100000e-01    6.216000e+00
  SN6h  TQ1n  1 3.650000e-01    8.378000e+00
  SN5h   Q1n  1 4.300000e-01    4.439000e+00
  SN5h  SQ1n  1 4.100000e-01    5.934000e+00
  SN5h  TQ1n  1 3.650000e-01    8.084000e+00
  SN4h   Q1n  1 4.300000e-01    4.436000e+00
  SN4h  SQ1n  1 4.100000e-01    5.918000e+00
  SN4h  TQ1n  1 3.650000e-01    8.049000e+00
  SN3h   Q1n  1 4.300000e-01    4.431000e+00
  SN3h  SQ1n  1 4.100000e-01    5.893000e+00
  SN3h  TQ1n  1 3.650000e-01    7.997000e+00
  SN2h   Q1n  1 4.300000e-01    4.223000e+00
  SN2h  SQ1n  1 4.100000e-01    5.615000e+00
  SN2h  TQ1n  1 3.650000e-01    7.647000e+00
  SN1h   Q1n  1 4.300000e-01    4.031000e+00
  SN1h  SQ1n  1 4.100000e-01    5.314000e+00
  SN1h  TQ1n  1 3.650000e-01    7.260000e+00
  SC6h   Q1n  1 4.300000e-01    3.800000e+00
  SC6h  SQ1n  1 4.100000e-01    4.977000e+00
  SC6h  TQ1n  1 3.650000e-01    6.806000e+00
  SC5h   Q1n  1 4.300000e-01    3.323000e+00
  SC5h  SQ1n  1 4.100000e-01    4.398000e+00
  SC5h  TQ1n  1 3.650000e-01    6.192000e+00
  SC4h   Q1n  1 4.300000e-01    3.147000e+00
  SC4h  SQ1n  1 4.100000e-01    4.114000e+00
  SC4h  TQ1n  1 3.650000e-01    5.751000e+00
  SC3h   Q1n  1 4.300000e-01    2.862000e+00
  SC3h  SQ1n  1 4.100000e-01    3.728000e+00
  SC3h  TQ1n  1 3.660000e-01    5.118000e+00
  SC2h   Q1n  1 4.430000e-01    1.767000e+00
  SC2h  SQ1n  1 4.210000e-01    2.716000e+00
  SC2h  TQ1n  1 4.230000e-01    3.696000e+00
  SC1h   Q1n  1 4.430000e-01    1.715000e+00
  SC1h  SQ1n  1 4.210000e-01    2.448000e+00
  SC1h  TQ1n  1 4.230000e-01    3.201000e+00
  SX4h   Q1n  1 4.300000e-01    3.352000e+00
  SX4h  SQ1n  1 4.100000e-01    4.548000e+00
  SX4h  TQ1n  1 3.650000e-01    6.505000e+00
  SX3h   Q1n  1 4.300000e-01    3.340000e+00
  SX3h  SQ1n  1 4.100000e-01    4.487000e+00
  SX3h  TQ1n  1 3.650000e-01    6.376000e+00
  SX2h   Q1n  1 4.300000e-01    3.161000e+00
  SX2h  SQ1n  1 4.100000e-01    4.189000e+00
  SX2h  TQ1n  1 3.650000e-01    5.907000e+00
  SX1h   Q1n  1 4.300000e-01    2.862000e+00
  SX1h  SQ1n  1 4.100000e-01    3.728000e+00
  SX1h  TQ1n  1 3.660000e-01    5.118000e+00
 SP6dh   Q1n  1 4.300000e-01    4.437000e+00
 SP6dh  SQ1n  1 4.100000e-01    6.193000e+00
 SP6dh  TQ1n  1 3.650000e-01    8.331000e+00
 SP5dh   Q1n  1 4.300000e-01    4.641000e+00
 SP5dh  SQ1n  1 4.100000e-01    6.436000e+00
 SP5dh  TQ1n  1 3.650000e-01    8.648000e+00
 SP4dh   Q1n  1 4.300000e-01    4.644000e+00
 SP4dh  SQ1n  1 4.100000e-01    6.451000e+00
 SP4dh  TQ1n  1 3.650000e-01    8.679000e+00
 SP3dh   Q1n  1 4.300000e-01    4.644000e+00
 SP3dh  SQ1n  1 4.100000e-01    6.451000e+00
 SP3dh  TQ1n  1 3.650000e-01    8.680000e+00
 SP2dh   Q1n  1 4.300000e-01    4.644000e+00
 SP2dh  SQ1n  1 4.100000e-01    6.448000e+00
 SP2dh  TQ1n  1 3.650000e-01    8.673000e+00
 SP1dh   Q1n  1 4.300000e-01    4.643000e+00
 SP1dh  SQ1n  1 4.100000e-01    6.443000e+00
 SP1dh  TQ1n  1 3.650000e-01    8.663000e+00
 SN6dh   Q1n  1 4.300000e-01    4.641000e+00
 SN6dh  SQ1n  1 4.100000e-01    6.436000e+00
 SN6dh  TQ1n  1 3.650000e-01    8.648000e+00
 SN5dh   Q1n  1 4.300000e-01    4.439000e+00
 SN5dh  SQ1n  1 4.100000e-01    6.204000e+00
 SN5dh  TQ1n  1 3.650000e-01    8.354000e+00
 SN4dh   Q1n  1 4.300000e-01    4.436000e+00
 SN4dh  SQ1n  1 4.100000e-01    6.188000e+00
 SN4dh  TQ1n  1 3.650000e-01    8.319000e+00
 SN3dh   Q1n  1 4.300000e-01    4.431000e+00
 SN3dh  SQ1n  1 4.100000e-01    6.163000e+00
 SN3dh  TQ1n  1 3.650000e-01    8.267000e+00
 SN2dh   Q1n  1 4.300000e-01    4.223000e+00
 SN2dh  SQ1n  1 4.100000e-01    5.855000e+00
 SN2dh  TQ1n  1 3.650000e-01    7.917000e+00
 SN1dh   Q1n  1 4.300000e-01    4.031000e+00
 SN1dh  SQ1n  1 4.100000e-01    5.554000e+00
 SN1dh  TQ1n  1 3.650000e-01    7.520000e+00
 SP6ah   Q1n  1 4.300000e-01    3.847000e+00
 SP6ah  SQ1n  1 4.100000e-01    5.443000e+00
 SP6ah  TQ1n  1 3.650000e-01    7.531000e+00
 SP5ah   Q1n  1 4.300000e-01    4.061000e+00
 SP5ah  SQ1n  1 4.100000e-01    5.706000e+00
 SP5ah  TQ1n  1 3.650000e-01    7.838000e+00
 SP4ah   Q1n  1 4.300000e-01    4.064000e+00
 SP4ah  SQ1n  1 4.100000e-01    5.721000e+00
 SP4ah  TQ1n  1 3.650000e-01    7.869000e+00
 SP3ah   Q1n  1 4.300000e-01    4.064000e+00
 SP3ah  SQ1n  1 4.100000e-01    5.721000e+00
 SP3ah  TQ1n  1 3.650000e-01    7.870000e+00
 SP2ah   Q1n  1 4.300000e-01    4.064000e+00
 SP2ah  SQ1n  1 4.100000e-01    5.718000e+00
 SP2ah  TQ1n  1 3.650000e-01    7.863000e+00
 SP1ah   Q1n  1 4.300000e-01    4.063000e+00
 SP1ah  SQ1n  1 4.100000e-01    5.713000e+00
 SP1ah  TQ1n  1 3.650000e-01    7.853000e+00
 SN6ah   Q1n  1 4.300000e-01    4.061000e+00
 SN6ah  SQ1n  1 4.100000e-01    5.706000e+00
 SN6ah  TQ1n  1 3.650000e-01    7.838000e+00
 SN5ah   Q1n  1 4.300000e-01    3.849000e+00
 SN5ah  SQ1n  1 4.100000e-01    5.454000e+00
 SN5ah  TQ1n  1 3.650000e-01    7.554000e+00
 SN4ah   Q1n  1 4.300000e-01    3.846000e+00
 SN4ah  SQ1n  1 4.100000e-01    5.438000e+00
 SN4ah  TQ1n  1 3.650000e-01    7.519000e+00
 SN3ah   Q1n  1 4.300000e-01    3.841000e+00
 SN3ah  SQ1n  1 4.100000e-01    5.413000e+00
 SN3ah  TQ1n  1 3.650000e-01    7.467000e+00
 SN2ah   Q1n  1 4.300000e-01    3.613000e+00
 SN2ah  SQ1n  1 4.100000e-01    5.145000e+00
 SN2ah  TQ1n  1 3.650000e-01    7.157000e+00
 SN1ah   Q1n  1 4.300000e-01    3.371000e+00
 SN1ah  SQ1n  1 4.100000e-01    4.844000e+00
 SN1ah  TQ1n  1 3.650000e-01    6.800000e+00
 SC6vh   Q1n  1 4.300000e-01    4.010000e+00
 SC6vh  SQ1n  1 4.100000e-01    5.447000e+00
 SC6vh  TQ1n  1 3.650000e-01    7.296000e+00
 SC5vh   Q1n  1 4.300000e-01    3.563000e+00
 SC5vh  SQ1n  1 4.100000e-01    4.888000e+00
 SC5vh  TQ1n  1 3.650000e-01    6.622000e+00
 SC4vh   Q1n  1 4.300000e-01    3.307000e+00
 SC4vh  SQ1n  1 4.100000e-01    4.514000e+00
 SC4vh  TQ1n  1 3.650000e-01    6.111000e+00
 SC3vh   Q1n  1 4.300000e-01    3.252000e+00
 SC3vh  SQ1n  1 4.100000e-01    4.038000e+00
 SC3vh  TQ1n  1 3.650000e-01    5.438000e+00
 SC2vh   Q1n  1 4.300000e-01    2.026000e+00
 SC2vh  SQ1n  1 4.140000e-01    3.051000e+00
 SC2vh  TQ1n  1 4.040000e-01    3.973000e+00
 SC1vh   Q1n  1 4.300000e-01    1.972000e+00
 SC1vh  SQ1n  1 4.140000e-01    2.779000e+00
 SC1vh  TQ1n  1 4.040000e-01    3.454000e+00
 SX4vh   Q1n  1 4.300000e-01    3.592000e+00
 SX4vh  SQ1n  1 4.100000e-01    5.038000e+00
 SX4vh  TQ1n  1 3.650000e-01    6.935000e+00
 SX3vh   Q1n  1 4.300000e-01    3.580000e+00
 SX3vh  SQ1n  1 4.100000e-01    4.977000e+00
 SX3vh  TQ1n  1 3.650000e-01    6.806000e+00
 SX2vh   Q1n  1 4.300000e-01    3.321000e+00
 SX2vh  SQ1n  1 4.100000e-01    4.589000e+00
 SX2vh  TQ1n  1 3.650000e-01    6.267000e+00
 SX1vh   Q1n  1 4.300000e-01    3.252000e+00
 SX1vh  SQ1n  1 4.100000e-01    4.038000e+00
 SX1vh  TQ1n  1 3.650000e-01    5.438000e+00
 SC6eh   Q1n  1 4.300000e-01    3.350000e+00
 SC6eh  SQ1n  1 4.100000e-01    4.737000e+00
 SC6eh  TQ1n  1 3.650000e-01    6.576000e+00
 SC5eh   Q1n  1 4.300000e-01    2.933000e+00
 SC5eh  SQ1n  1 4.100000e-01    4.248000e+00
 SC5eh  TQ1n  1 3.650000e-01    6.032000e+00
 SC4eh   Q1n  1 4.300000e-01    2.697000e+00
 SC4eh  SQ1n  1 4.100000e-01    3.954000e+00
 SC4eh  TQ1n  1 3.660000e-01    5.590000e+00
 SC3eh   Q1n  1 4.300000e-01    2.492000e+00
 SC3eh  SQ1n  1 4.100000e-01    3.598000e+00
 SC3eh  TQ1n  1 3.780000e-01    4.856000e+00
 SC2eh   Q1n  1 5.080000e-01    1.361000e+00
 SC2eh  SQ1n  1 4.530000e-01    2.512000e+00
 SC2eh  TQ1n  1 4.840000e-01    3.263000e+00
 SC1eh   Q1n  1 5.080000e-01    1.315000e+00
 SC1eh  SQ1n  1 4.530000e-01    2.264000e+00
 SC1eh  TQ1n  1 4.840000e-01    2.830000e+00
 SX4eh   Q1n  1 4.300000e-01    2.962000e+00
 SX4eh  SQ1n  1 4.100000e-01    4.398000e+00
 SX4eh  TQ1n  1 3.650000e-01    6.345000e+00
 SX3eh   Q1n  1 4.300000e-01    2.950000e+00
 SX3eh  SQ1n  1 4.100000e-01    4.337000e+00
 SX3eh  TQ1n  1 3.650000e-01    6.216000e+00
 SX2eh   Q1n  1 4.300000e-01    2.711000e+00
 SX2eh  SQ1n  1 4.100000e-01    4.029000e+00
 SX2eh  TQ1n  1 3.660000e-01    5.746000e+00
 SX1eh   Q1n  1 4.300000e-01    2.492000e+00
 SX1eh  SQ1n  1 4.100000e-01    3.598000e+00
 SX1eh  TQ1n  1 3.780000e-01    4.856000e+00
  SP6r   Q1n  1 4.300000e-01    4.437000e+00
  SP6r  SQ1n  1 4.100000e-01    5.923000e+00
  SP6r  TQ1n  1 3.650000e-01    8.061000e+00
  SP5r   Q1n  1 4.300000e-01    4.641000e+00
  SP5r  SQ1n  1 4.100000e-01    6.216000e+00
  SP5r  TQ1n  1 3.650000e-01    8.378000e+00
  SP4r   Q1n  1 4.300000e-01    4.644000e+00
  SP4r  SQ1n  1 4.100000e-01    6.231000e+00
  SP4r  TQ1n  1 3.650000e-01    8.409000e+00
  SP3r   Q1n  1 4.300000e-01    4.644000e+00
  SP3r  SQ1n  1 4.100000e-01    6.231000e+00
  SP3r  TQ1n  1 3.650000e-01    8.410000e+00
  SP2r   Q1n  1 4.300000e-01    4.644000e+00
  SP2r  SQ1n  1 4.100000e-01    6.228000e+00
  SP2r  TQ1n  1 3.650000e-01    8.403000e+00
  SP1r   Q1n  1 4.300000e-01    4.643000e+00
  SP1r  SQ1n  1 4.100000e-01    6.223000e+00
  SP1r  TQ1n  1 3.650000e-01    8.393000e+00
  SN6r   Q1n  1 4.300000e-01    4.641000e+00
  SN6r  SQ1n  1 4.100000e-01    6.216000e+00
  SN6r  TQ1n  1 3.650000e-01    8.378000e+00
  SN5r   Q1n  1 4.300000e-01    4.439000e+00
  SN5r  SQ1n  1 4.100000e-01    5.934000e+00
  SN5r  TQ1n  1 3.650000e-01    8.084000e+00
  SN4r   Q1n  1 4.300000e-01    4.436000e+00
  SN4r  SQ1n  1 4.100000e-01    5.918000e+00
  SN4r  TQ1n  1 3.650000e-01    8.049000e+00
  SN3r   Q1n  1 4.300000e-01    4.431000e+00
  SN3r  SQ1n  1 4.100000e-01    5.893000e+00
  SN3r  TQ1n  1 3.650000e-01    7.997000e+00
  SN2r   Q1n  1 4.300000e-01    4.223000e+00
  SN2r  SQ1n  1 4.100000e-01    5.615000e+00
  SN2r  TQ1n  1 3.650000e-01    7.647000e+00
  SN1r   Q1n  1 4.300000e-01    4.031000e+00
  SN1r  SQ1n  1 4.100000e-01    5.314000e+00
  SN1r  TQ1n  1 3.650000e-01    7.260000e+00
  SC6r   Q1n  1 4.300000e-01    3.800000e+00
  SC6r  SQ1n  1 4.100000e-01    4.977000e+00
  SC6r  TQ1n  1 3.650000e-01    6.806000e+00
  SC5r   Q1n  1 4.300000e-01    3.323000e+00
  SC5r  SQ1n  1 4.100000e-01    4.398000e+00
  SC5r  TQ1n  1 3.650000e-01    6.192000e+00
  SC4r   Q1n  1 4.300000e-01    3.147000e+00
  SC4r  SQ1n  1 4.100000e-01    4.114000e+00
  SC4r  TQ1n  1 3.650000e-01    5.751000e+00
  SC3r   Q1n  1 4.300000e-01    2.862000e+00
  SC3r  SQ1n  1 4.100000e-01    3.728000e+00
  SC3r  TQ1n  1 3.660000e-01    5.118000e+00
  SC2r   Q1n  1 4.430000e-01    1.767000e+00
  SC2r  SQ1n  1 4.210000e-01    2.716000e+00
  SC2r  TQ1n  1 4.230000e-01    3.696000e+00
  SC1r   Q1n  1 4.430000e-01    1.715000e+00
  SC1r  SQ1n  1 4.210000e-01    2.448000e+00
  SC1r  TQ1n  1 4.230000e-01    3.201000e+00
  SX4r   Q1n  1 4.300000e-01    3.352000e+00
  SX4r  SQ1n  1 4.100000e-01    4.548000e+00
  SX4r  TQ1n  1 3.650000e-01    6.505000e+00
  SX3r   Q1n  1 4.300000e-01    3.340000e+00
  SX3r  SQ1n  1 4.100000e-01    4.487000e+00
  SX3r  TQ1n  1 3.650000e-01    6.376000e+00
  SX2r   Q1n  1 4.300000e-01    3.161000e+00
  SX2r  SQ1n  1 4.100000e-01    4.189000e+00
  SX2r  TQ1n  1 3.650000e-01    5.907000e+00
  SX1r   Q1n  1 4.300000e-01    2.862000e+00
  SX1r  SQ1n  1 4.100000e-01    3.728000e+00
  SX1r  TQ1n  1 3.660000e-01    5.118000e+00
 SP6dr   Q1n  1 4.300000e-01    4.437000e+00
 SP6dr  SQ1n  1 4.100000e-01    6.193000e+00
 SP6dr  TQ1n  1 3.650000e-01    8.331000e+00
 SP5dr   Q1n  1 4.300000e-01    4.641000e+00
 SP5dr  SQ1n  1 4.100000e-01    6.436000e+00
 SP5dr  TQ1n  1 3.650000e-01    8.648000e+00
 SP4dr   Q1n  1 4.300000e-01    4.644000e+00
 SP4dr  SQ1n  1 4.100000e-01    6.451000e+00
 SP4dr  TQ1n  1 3.650000e-01    8.679000e+00
 SP3dr   Q1n  1 4.300000e-01    4.644000e+00
 SP3dr  SQ1n  1 4.100000e-01    6.451000e+00
 SP3dr  TQ1n  1 3.650000e-01    8.680000e+00
 SP2dr   Q1n  1 4.300000e-01    4.644000e+00
 SP2dr  SQ1n  1 4.100000e-01    6.448000e+00
 SP2dr  TQ1n  1 3.650000e-01    8.673000e+00
 SP1dr   Q1n  1 4.300000e-01    4.643000e+00
 SP1dr  SQ1n  1 4.100000e-01    6.443000e+00
 SP1dr  TQ1n  1 3.650000e-01    8.663000e+00
 SN6dr   Q1n  1 4.300000e-01    4.641000e+00
 SN6dr  SQ1n  1 4.100000e-01    6.436000e+00
 SN6dr  TQ1n  1 3.650000e-01    8.648000e+00
 SN5dr   Q1n  1 4.300000e-01    4.439000e+00
 SN5dr  SQ1n  1 4.100000e-01    6.204000e+00
 SN5dr  TQ1n  1 3.650000e-01    8.354000e+00
 SN4dr   Q1n  1 4.300000e-01    4.436000e+00
 SN4dr  SQ1n  1 4.100000e-01    6.188000e+00
 SN4dr  TQ1n  1 3.650000e-01    8.319000e+00
 SN3dr   Q1n  1 4.300000e-01    4.431000e+00
 SN3dr  SQ1n  1 4.100000e-01    6.163000e+00
 SN3dr  TQ1n  1 3.650000e-01    8.267000e+00
 SN2dr   Q1n  1 4.300000e-01    4.223000e+00
 SN2dr  SQ1n  1 4.100000e-01    5.855000e+00
 SN2dr  TQ1n  1 3.650000e-01    7.917000e+00
 SN1dr   Q1n  1 4.300000e-01    4.031000e+00
 SN1dr  SQ1n  1 4.100000e-01    5.554000e+00
 SN1dr  TQ1n  1 3.650000e-01    7.520000e+00
 SP6ar   Q1n  1 4.300000e-01    3.847000e+00
 SP6ar  SQ1n  1 4.100000e-01    5.443000e+00
 SP6ar  TQ1n  1 3.650000e-01    7.531000e+00
 SP5ar   Q1n  1 4.300000e-01    4.061000e+00
 SP5ar  SQ1n  1 4.100000e-01    5.706000e+00
 SP5ar  TQ1n  1 3.650000e-01    7.838000e+00
 SP4ar   Q1n  1 4.300000e-01    4.064000e+00
 SP4ar  SQ1n  1 4.100000e-01    5.721000e+00
 SP4ar  TQ1n  1 3.650000e-01    7.869000e+00
 SP3ar   Q1n  1 4.300000e-01    4.064000e+00
 SP3ar  SQ1n  1 4.100000e-01    5.721000e+00
 SP3ar  TQ1n  1 3.650000e-01    7.870000e+00
 SP2ar   Q1n  1 4.300000e-01    4.064000e+00
 SP2ar  SQ1n  1 4.100000e-01    5.718000e+00
 SP2ar  TQ1n  1 3.650000e-01    7.863000e+00
 SP1ar   Q1n  1 4.300000e-01    4.063000e+00
 SP1ar  SQ1n  1 4.100000e-01    5.713000e+00
 SP1ar  TQ1n  1 3.650000e-01    7.853000e+00
 SN6ar   Q1n  1 4.300000e-01    4.061000e+00
 SN6ar  SQ1n  1 4.100000e-01    5.706000e+00
 SN6ar  TQ1n  1 3.650000e-01    7.838000e+00
 SN5ar   Q1n  1 4.300000e-01    3.849000e+00
 SN5ar  SQ1n  1 4.100000e-01    5.454000e+00
 SN5ar  TQ1n  1 3.650000e-01    7.554000e+00
 SN4ar   Q1n  1 4.300000e-01    3.846000e+00
 SN4ar  SQ1n  1 4.100000e-01    5.438000e+00
 SN4ar  TQ1n  1 3.650000e-01    7.519000e+00
 SN3ar   Q1n  1 4.300000e-01    3.841000e+00
 SN3ar  SQ1n  1 4.100000e-01    5.413000e+00
 SN3ar  TQ1n  1 3.650000e-01    7.467000e+00
 SN2ar   Q1n  1 4.300000e-01    3.613000e+00
 SN2ar  SQ1n  1 4.100000e-01    5.145000e+00
 SN2ar  TQ1n  1 3.650000e-01    7.157000e+00
 SN1ar   Q1n  1 4.300000e-01    3.371000e+00
 SN1ar  SQ1n  1 4.100000e-01    4.844000e+00
 SN1ar  TQ1n  1 3.650000e-01    6.800000e+00
 SC6vr   Q1n  1 4.300000e-01    4.010000e+00
 SC6vr  SQ1n  1 4.100000e-01    5.447000e+00
 SC6vr  TQ1n  1 3.650000e-01    7.296000e+00
 SC5vr   Q1n  1 4.300000e-01    3.563000e+00
 SC5vr  SQ1n  1 4.100000e-01    4.888000e+00
 SC5vr  TQ1n  1 3.650000e-01    6.622000e+00
 SC4vr   Q1n  1 4.300000e-01    3.307000e+00
 SC4vr  SQ1n  1 4.100000e-01    4.514000e+00
 SC4vr  TQ1n  1 3.650000e-01    6.111000e+00
 SC3vr   Q1n  1 4.300000e-01    3.252000e+00
 SC3vr  SQ1n  1 4.100000e-01    4.038000e+00
 SC3vr  TQ1n  1 3.650000e-01    5.438000e+00
 SC2vr   Q1n  1 4.300000e-01    2.026000e+00
 SC2vr  SQ1n  1 4.140000e-01    3.051000e+00
 SC2vr  TQ1n  1 4.040000e-01    3.973000e+00
 SC1vr   Q1n  1 4.300000e-01    1.972000e+00
 SC1vr  SQ1n  1 4.140000e-01    2.779000e+00
 SC1vr  TQ1n  1 4.040000e-01    3.454000e+00
 SX4vr   Q1n  1 4.300000e-01    3.592000e+00
 SX4vr  SQ1n  1 4.100000e-01    5.038000e+00
 SX4vr  TQ1n  1 3.650000e-01    6.935000e+00
 SX3vr   Q1n  1 4.300000e-01    3.580000e+00
 SX3vr  SQ1n  1 4.100000e-01    4.977000e+00
 SX3vr  TQ1n  1 3.650000e-01    6.806000e+00
 SX2vr   Q1n  1 4.300000e-01    3.321000e+00
 SX2vr  SQ1n  1 4.100000e-01    4.589000e+00
 SX2vr  TQ1n  1 3.650000e-01    6.267000e+00
 SX1vr   Q1n  1 4.300000e-01    3.252000e+00
 SX1vr  SQ1n  1 4.100000e-01    4.038000e+00
 SX1vr  TQ1n  1 3.650000e-01    5.438000e+00
 SC6er   Q1n  1 4.300000e-01    3.350000e+00
 SC6er  SQ1n  1 4.100000e-01    4.737000e+00
 SC6er  TQ1n  1 3.650000e-01    6.576000e+00
 SC5er   Q1n  1 4.300000e-01    2.933000e+00
 SC5er  SQ1n  1 4.100000e-01    4.248000e+00
 SC5er  TQ1n  1 3.650000e-01    6.032000e+00
 SC4er   Q1n  1 4.300000e-01    2.697000e+00
 SC4er  SQ1n  1 4.100000e-01    3.954000e+00
 SC4er  TQ1n  1 3.660000e-01    5.590000e+00
 SC3er   Q1n  1 4.300000e-01    2.492000e+00
 SC3er  SQ1n  1 4.100000e-01    3.598000e+00
 SC3er  TQ1n  1 3.780000e-01    4.856000e+00
 SC2er   Q1n  1 5.080000e-01    1.361000e+00
 SC2er  SQ1n  1 4.530000e-01    2.512000e+00
 SC2er  TQ1n  1 4.840000e-01    3.263000e+00
 SC1er   Q1n  1 5.080000e-01    1.315000e+00
 SC1er  SQ1n  1 4.530000e-01    2.264000e+00
 SC1er  TQ1n  1 4.840000e-01    2.830000e+00
 SX4er   Q1n  1 4.300000e-01    2.962000e+00
 SX4er  SQ1n  1 4.100000e-01    4.398000e+00
 SX4er  TQ1n  1 3.650000e-01    6.345000e+00
 SX3er   Q1n  1 4.300000e-01    2.950000e+00
 SX3er  SQ1n  1 4.100000e-01    4.337000e+00
 SX3er  TQ1n  1 3.650000e-01    6.216000e+00
 SX2er   Q1n  1 4.300000e-01    2.711000e+00
 SX2er  SQ1n  1 4.100000e-01    4.029000e+00
 SX2er  TQ1n  1 3.660000e-01    5.746000e+00
 SX1er   Q1n  1 4.300000e-01    2.492000e+00
 SX1er  SQ1n  1 4.100000e-01    3.598000e+00
 SX1er  TQ1n  1 3.780000e-01    4.856000e+00
   TP6   Q1n  1 3.950000e-01    3.812000e+00
   TP6  SQ1n  1 3.650000e-01    5.197000e+00
   TP6  TQ1n  1 3.400000e-01    7.354000e+00
   TP5   Q1n  1 3.950000e-01    4.060000e+00
   TP5  SQ1n  1 3.650000e-01    5.510000e+00
   TP5  TQ1n  1 3.400000e-01    7.698000e+00
   TP4   Q1n  1 3.950000e-01    4.067000e+00
   TP4  SQ1n  1 3.650000e-01    5.549000e+00
   TP4  TQ1n  1 3.400000e-01    7.783000e+00
   TP3   Q1n  1 3.950000e-01    4.070000e+00
   TP3  SQ1n  1 3.650000e-01    5.564000e+00
   TP3  TQ1n  1 3.400000e-01    7.816000e+00
   TP2   Q1n  1 3.950000e-01    4.071000e+00
   TP2  SQ1n  1 3.650000e-01    5.570000e+00
   TP2  TQ1n  1 3.400000e-01    7.830000e+00
   TP1   Q1n  1 3.950000e-01    4.071000e+00
   TP1  SQ1n  1 3.650000e-01    5.572000e+00
   TP1  TQ1n  1 3.400000e-01    7.835000e+00
   TN6   Q1n  1 3.950000e-01    4.071000e+00
   TN6  SQ1n  1 3.650000e-01    5.573000e+00
   TN6  TQ1n  1 3.400000e-01    7.836000e+00
   TN5   Q1n  1 3.950000e-01    3.831000e+00
   TN5  SQ1n  1 3.650000e-01    5.300000e+00
   TN5  TQ1n  1 3.400000e-01    7.581000e+00
   TN4   Q1n  1 3.950000e-01    3.830000e+00
   TN4  SQ1n  1 3.650000e-01    5.294000e+00
   TN4  TQ1n  1 3.400000e-01    7.566000e+00
   TN3   Q1n  1 3.950000e-01    3.827000e+00
   TN3  SQ1n  1 3.650000e-01    5.281000e+00
   TN3  TQ1n  1 3.400000e-01    7.538000e+00
   TN2   Q1n  1 3.950000e-01    3.583000e+00
   TN2  SQ1n  1 3.650000e-01    4.988000e+00
   TN2  TQ1n  1 3.400000e-01    7.248000e+00
   TN1   Q1n  1 3.950000e-01    3.326000e+00
   TN1  SQ1n  1 3.650000e-01    4.688000e+00
   TN1  TQ1n  1 3.400000e-01    6.939000e+00
   TC6   Q1n  1 3.950000e-01    3.072000e+00
   TC6  SQ1n  1 3.650000e-01    4.382000e+00
   TC6  TQ1n  1 3.400000e-01    6.512000e+00
   TC5   Q1n  1 3.950000e-01    2.670000e+00
   TC5  SQ1n  1 3.650000e-01    3.887000e+00
   TC5  TQ1n  1 3.400000e-01    5.860000e+00
   TC4   Q1n  1 3.950000e-01    2.452000e+00
   TC4  SQ1n  1 3.650000e-01    3.627000e+00
   TC4  TQ1n  1 3.400000e-01    5.360000e+00
   TC3   Q1n  1 3.950000e-01    2.161000e+00
   TC3  SQ1n  1 3.660000e-01    3.302000e+00
   TC3  TQ1n  1 3.520000e-01    4.676000e+00
   TC2   Q1n  1 4.040000e-01    1.109000e+00
   TC2  SQ1n  1 4.230000e-01    2.334000e+00
   TC2  TQ1n  1 4.380000e-01    3.408000e+00
   TC1   Q1n  1 4.040000e-01    1.072000e+00
   TC1  SQ1n  1 4.230000e-01    2.152000e+00
   TC1  TQ1n  1 4.380000e-01    3.049000e+00
   TX4   Q1n  1 3.950000e-01    2.690000e+00
   TX4  SQ1n  1 3.650000e-01    3.996000e+00
   TX4  TQ1n  1 3.400000e-01    6.100000e+00
   TX3   Q1n  1 3.950000e-01    2.682000e+00
   TX3  SQ1n  1 3.650000e-01    3.952000e+00
   TX3  TQ1n  1 3.400000e-01    6.002000e+00
   TX2   Q1n  1 3.950000e-01    2.462000e+00
   TX2  SQ1n  1 3.650000e-01    3.683000e+00
   TX2  TQ1n  1 3.400000e-01    5.483000e+00
   TX1   Q1n  1 3.950000e-01    2.161000e+00
   TX1  SQ1n  1 3.660000e-01    3.302000e+00
   TX1  TQ1n  1 3.520000e-01    4.676000e+00
  TP6d   Q1n  1 3.950000e-01    4.052000e+00
  TP6d  SQ1n  1 3.650000e-01    5.467000e+00
  TP6d  TQ1n  1 3.400000e-01    7.834000e+00
  TP5d   Q1n  1 3.950000e-01    4.300000e+00
  TP5d  SQ1n  1 3.650000e-01    5.780000e+00
  TP5d  TQ1n  1 3.400000e-01    8.178000e+00
  TP4d   Q1n  1 3.950000e-01    4.307000e+00
  TP4d  SQ1n  1 3.650000e-01    5.819000e+00
  TP4d  TQ1n  1 3.400000e-01    8.263000e+00
  TP3d   Q1n  1 3.950000e-01    4.310000e+00
  TP3d  SQ1n  1 3.650000e-01    5.834000e+00
  TP3d  TQ1n  1 3.400000e-01    8.296000e+00
  TP2d   Q1n  1 3.950000e-01    4.311000e+00
  TP2d  SQ1n  1 3.650000e-01    5.840000e+00
  TP2d  TQ1n  1 3.400000e-01    8.310000e+00
  TP1d   Q1n  1 3.950000e-01    4.311000e+00
  TP1d  SQ1n  1 3.650000e-01    5.842000e+00
  TP1d  TQ1n  1 3.400000e-01    8.315000e+00
  TN6d   Q1n  1 3.950000e-01    4.311000e+00
  TN6d  SQ1n  1 3.650000e-01    5.843000e+00
  TN6d  TQ1n  1 3.400000e-01    8.316000e+00
  TN5d   Q1n  1 3.950000e-01    4.071000e+00
  TN5d  SQ1n  1 3.650000e-01    5.570000e+00
  TN5d  TQ1n  1 3.400000e-01    8.061000e+00
  TN4d   Q1n  1 3.950000e-01    4.070000e+00
  TN4d  SQ1n  1 3.650000e-01    5.564000e+00
  TN4d  TQ1n  1 3.400000e-01    8.046000e+00
  TN3d   Q1n  1 3.950000e-01    4.067000e+00
  TN3d  SQ1n  1 3.650000e-01    5.551000e+00
  TN3d  TQ1n  1 3.400000e-01    8.018000e+00
  TN2d   Q1n  1 3.950000e-01    3.823000e+00
  TN2d  SQ1n  1 3.650000e-01    5.258000e+00
  TN2d  TQ1n  1 3.400000e-01    7.738000e+00
  TN1d   Q1n  1 3.950000e-01    3.576000e+00
  TN1d  SQ1n  1 3.650000e-01    4.948000e+00
  TN1d  TQ1n  1 3.400000e-01    7.399000e+00
  TP6a   Q1n  1 3.950000e-01    3.322000e+00
  TP6a  SQ1n  1 3.650000e-01    4.667000e+00
  TP6a  TQ1n  1 3.400000e-01    6.894000e+00
  TP5a   Q1n  1 3.950000e-01    3.580000e+00
  TP5a  SQ1n  1 3.650000e-01    4.970000e+00
  TP5a  TQ1n  1 3.400000e-01    7.208000e+00
  TP4a   Q1n  1 3.950000e-01    3.587000e+00
  TP4a  SQ1n  1 3.650000e-01    5.009000e+00
  TP4a  TQ1n  1 3.400000e-01    7.293000e+00
  TP3a   Q1n  1 3.950000e-01    3.590000e+00
  TP3a  SQ1n  1 3.650000e-01    5.024000e+00
  TP3a  TQ1n  1 3.400000e-01    7.326000e+00
  TP2a   Q1n  1 3.950000e-01    3.591000e+00
  TP2a  SQ1n  1 3.650000e-01    5.030000e+00
  TP2a  TQ1n  1 3.400000e-01    7.340000e+00
  TP1a   Q1n  1 3.950000e-01    3.591000e+00
  TP1a  SQ1n  1 3.650000e-01    5.032000e+00
  TP1a  TQ1n  1 3.400000e-01    7.345000e+00
  TN6a   Q1n  1 3.950000e-01    3.591000e+00
  TN6a  SQ1n  1 3.650000e-01    5.033000e+00
  TN6a  TQ1n  1 3.400000e-01    7.346000e+00
  TN5a   Q1n  1 3.950000e-01    3.341000e+00
  TN5a  SQ1n  1 3.650000e-01    4.770000e+00
  TN5a  TQ1n  1 3.400000e-01    7.121000e+00
  TN4a   Q1n  1 3.950000e-01    3.340000e+00
  TN4a  SQ1n  1 3.650000e-01    4.764000e+00
  TN4a  TQ1n  1 3.400000e-01    7.106000e+00
  TN3a   Q1n  1 3.950000e-01    3.337000e+00
  TN3a  SQ1n  1 3.650000e-01    4.751000e+00
  TN3a  TQ1n  1 3.400000e-01    7.078000e+00
  TN2a   Q1n  1 3.950000e-01    3.093000e+00
  TN2a  SQ1n  1 3.650000e-01    4.498000e+00
  TN2a  TQ1n  1 3.400000e-01    6.768000e+00
  TN1a   Q1n  1 3.950000e-01    2.886000e+00
  TN1a  SQ1n  1 3.650000e-01    4.228000e+00
  TN1a  TQ1n  1 3.400000e-01    6.429000e+00
  TC6v   Q1n  1 3.950000e-01    3.562000e+00
  TC6v  SQ1n  1 3.650000e-01    4.872000e+00
  TC6v  TQ1n  1 3.400000e-01    7.232000e+00
  TC5v   Q1n  1 3.950000e-01    3.060000e+00
  TC5v  SQ1n  1 3.650000e-01    4.317000e+00
  TC5v  TQ1n  1 3.400000e-01    6.630000e+00
  TC4v   Q1n  1 3.950000e-01    2.842000e+00
  TC4v  SQ1n  1 3.650000e-01    3.987000e+00
  TC4v  TQ1n  1 3.400000e-01    6.150000e+00
  TC3v   Q1n  1 3.950000e-01    2.621000e+00
  TC3v  SQ1n  1 3.650000e-01    3.616000e+00
  TC3v  TQ1n  1 3.400000e-01    5.524000e+00
  TC2v   Q1n  1 3.990000e-01    1.463000e+00
  TC2v  SQ1n  1 4.040000e-01    2.546000e+00
  TC2v  TQ1n  1 4.040000e-01    3.737000e+00
  TC1v   Q1n  1 3.990000e-01    1.425000e+00
  TC1v  SQ1n  1 4.040000e-01    2.356000e+00
  TC1v  TQ1n  1 4.040000e-01    3.348000e+00
  TX4v   Q1n  1 3.950000e-01    3.080000e+00
  TX4v  SQ1n  1 3.650000e-01    4.426000e+00
  TX4v  TQ1n  1 3.400000e-01    6.870000e+00
  TX3v   Q1n  1 3.950000e-01    3.072000e+00
  TX3v  SQ1n  1 3.650000e-01    4.382000e+00
  TX3v  TQ1n  1 3.400000e-01    6.772000e+00
  TX2v   Q1n  1 3.950000e-01    2.852000e+00
  TX2v  SQ1n  1 3.650000e-01    4.043000e+00
  TX2v  TQ1n  1 3.400000e-01    6.273000e+00
  TX1v   Q1n  1 3.950000e-01    2.621000e+00
  TX1v  SQ1n  1 3.650000e-01    3.616000e+00
  TX1v  TQ1n  1 3.400000e-01    5.524000e+00
  TC6e   Q1n  1 3.950000e-01    2.872000e+00
  TC6e  SQ1n  1 3.650000e-01    4.152000e+00
  TC6e  TQ1n  1 3.400000e-01    6.262000e+00
  TC5e   Q1n  1 3.950000e-01    2.470000e+00
  TC5e  SQ1n  1 3.650000e-01    3.727000e+00
  TC5e  TQ1n  1 3.400000e-01    5.580000e+00
  TC4e   Q1n  1 3.950000e-01    2.192000e+00
  TC4e  SQ1n  1 3.660000e-01    3.472000e+00
  TC4e  TQ1n  1 3.520000e-01    5.040000e+00
  TC3e   Q1n  1 3.950000e-01    1.981000e+00
  TC3e  SQ1n  1 3.780000e-01    3.098000e+00
  TC3e  TQ1n  1 3.660000e-01    4.422000e+00
  TC2e   Q1n  1 4.650000e-01    9.460000e-01
  TC2e  SQ1n  1 4.840000e-01    2.072000e+00
  TC2e  TQ1n  1 5.050000e-01    3.002000e+00
  TC1e   Q1n  1 4.650000e-01    9.130000e-01
  TC1e  SQ1n  1 4.840000e-01    1.914000e+00
  TC1e  TQ1n  1 5.050000e-01    2.691000e+00
  TX4e   Q1n  1 3.950000e-01    2.490000e+00
  TX4e  SQ1n  1 3.650000e-01    3.836000e+00
  TX4e  TQ1n  1 3.400000e-01    5.820000e+00
  TX3e   Q1n  1 3.950000e-01    2.482000e+00
  TX3e  SQ1n  1 3.650000e-01    3.792000e+00
  TX3e  TQ1n  1 3.400000e-01    5.722000e+00
  TX2e   Q1n  1 3.950000e-01    2.202000e+00
  TX2e  SQ1n  1 3.660000e-01    3.528000e+00
  TX2e  TQ1n  1 3.520000e-01    5.158000e+00
  TX1e   Q1n  1 3.950000e-01    1.981000e+00
  TX1e  SQ1n  1 3.780000e-01    3.098000e+00
  TX1e  TQ1n  1 3.660000e-01    4.422000e+00
  TP6q   Q1n  1 3.950000e-01    4.612000e+00
  TP6q  SQ1n  1 3.650000e-01    6.027000e+00
  TP6q  TQ1n  1 3.400000e-01    8.084000e+00
  TP5q   Q1n  1 3.950000e-01    4.930000e+00
  TP5q  SQ1n  1 3.650000e-01    6.360000e+00
  TP5q  TQ1n  1 3.400000e-01    8.458000e+00
  TP4q   Q1n  1 3.950000e-01    4.937000e+00
  TP4q  SQ1n  1 3.650000e-01    6.399000e+00
  TP4q  TQ1n  1 3.400000e-01    8.543000e+00
  TP3q   Q1n  1 3.950000e-01    4.940000e+00
  TP3q  SQ1n  1 3.650000e-01    6.414000e+00
  TP3q  TQ1n  1 3.400000e-01    8.576000e+00
  TP2q   Q1n  1 3.950000e-01    4.941000e+00
  TP2q  SQ1n  1 3.650000e-01    6.420000e+00
  TP2q  TQ1n  1 3.400000e-01    8.590000e+00
  TP1q   Q1n  1 3.950000e-01    4.941000e+00
  TP1q  SQ1n  1 3.650000e-01    6.422000e+00
  TP1q  TQ1n  1 3.400000e-01    8.595000e+00
  TN6q   Q1n  1 3.950000e-01    4.941000e+00
  TN6q  SQ1n  1 3.650000e-01    6.423000e+00
  TN6q  TQ1n  1 3.400000e-01    8.596000e+00
  TN5q   Q1n  1 3.950000e-01    4.631000e+00
  TN5q  SQ1n  1 3.650000e-01    6.130000e+00
  TN5q  TQ1n  1 3.400000e-01    8.311000e+00
  TN4q   Q1n  1 3.950000e-01    4.630000e+00
  TN4q  SQ1n  1 3.650000e-01    6.124000e+00
  TN4q  TQ1n  1 3.400000e-01    8.296000e+00
  TN3q   Q1n  1 3.950000e-01    4.627000e+00
  TN3q  SQ1n  1 3.650000e-01    6.111000e+00
  TN3q  TQ1n  1 3.400000e-01    8.268000e+00
  TN2q   Q1n  1 3.950000e-01    4.303000e+00
  TN2q  SQ1n  1 3.650000e-01    5.798000e+00
  TN2q  TQ1n  1 3.400000e-01    7.968000e+00
  TN1q   Q1n  1 3.950000e-01    4.056000e+00
  TN1q  SQ1n  1 3.650000e-01    5.488000e+00
  TN1q  TQ1n  1 3.400000e-01    7.649000e+00
  TC6q   Q1n  1 3.950000e-01    3.802000e+00
  TC6q  SQ1n  1 3.650000e-01    5.142000e+00
  TC6q  TQ1n  1 3.400000e-01    7.232000e+00
  TC5q   Q1n  1 3.950000e-01    3.300000e+00
  TC5q  SQ1n  1 3.650000e-01    4.547000e+00
  TC5q  TQ1n  1 3.400000e-01    6.630000e+00
  TC4q   Q1n  1 3.950000e-01    3.042000e+00
  TC4q  SQ1n  1 3.650000e-01    4.217000e+00
  TC4q  TQ1n  1 3.400000e-01    6.150000e+00
  TC3q   Q1n  1 3.950000e-01    2.811000e+00
  TC3q  SQ1n  1 3.650000e-01    3.816000e+00
  TC3q  TQ1n  1 3.400000e-01    5.524000e+00
  TC2q   Q1n  1 3.980000e-01    1.733000e+00
  TC2q  SQ1n  1 3.940000e-01    2.742000e+00
  TC2q  TQ1n  1 3.850000e-01    3.900000e+00
  TC1q   Q1n  1 3.980000e-01    1.695000e+00
  TC1q  SQ1n  1 3.940000e-01    2.548000e+00
  TC1q  TQ1n  1 3.850000e-01    3.492000e+00
  TX4q   Q1n  1 3.950000e-01    3.320000e+00
  TX4q  SQ1n  1 3.650000e-01    4.656000e+00
  TX4q  TQ1n  1 3.400000e-01    6.870000e+00
  TX3q   Q1n  1 3.950000e-01    3.312000e+00
  TX3q  SQ1n  1 3.650000e-01    4.612000e+00
  TX3q  TQ1n  1 3.400000e-01    6.772000e+00
  TX2q   Q1n  1 3.950000e-01    3.052000e+00
  TX2q  SQ1n  1 3.650000e-01    4.273000e+00
  TX2q  TQ1n  1 3.400000e-01    6.273000e+00
  TX1q   Q1n  1 3.950000e-01    2.811000e+00
  TX1q  SQ1n  1 3.650000e-01    3.816000e+00
  TX1q  TQ1n  1 3.400000e-01    5.524000e+00
 TP6dq   Q1n  1 3.950000e-01    4.922000e+00
 TP6dq  SQ1n  1 3.650000e-01    6.317000e+00
 TP6dq  TQ1n  1 3.400000e-01    8.634000e+00
 TP5dq   Q1n  1 3.950000e-01    5.260000e+00
 TP5dq  SQ1n  1 3.650000e-01    6.650000e+00
 TP5dq  TQ1n  1 3.400000e-01    9.008000e+00
 TP4dq   Q1n  1 3.950000e-01    5.267000e+00
 TP4dq  SQ1n  1 3.650000e-01    6.689000e+00
 TP4dq  TQ1n  1 3.400000e-01    9.093000e+00
 TP3dq   Q1n  1 3.950000e-01    5.270000e+00
 TP3dq  SQ1n  1 3.650000e-01    6.704000e+00
 TP3dq  TQ1n  1 3.400000e-01    9.126000e+00
 TP2dq   Q1n  1 3.950000e-01    5.271000e+00
 TP2dq  SQ1n  1 3.650000e-01    6.710000e+00
 TP2dq  TQ1n  1 3.400000e-01    9.140000e+00
 TP1dq   Q1n  1 3.950000e-01    5.271000e+00
 TP1dq  SQ1n  1 3.650000e-01    6.712000e+00
 TP1dq  TQ1n  1 3.400000e-01    9.145000e+00
 TN6dq   Q1n  1 3.950000e-01    5.271000e+00
 TN6dq  SQ1n  1 3.650000e-01    6.713000e+00
 TN6dq  TQ1n  1 3.400000e-01    9.146000e+00
 TN5dq   Q1n  1 3.950000e-01    4.941000e+00
 TN5dq  SQ1n  1 3.650000e-01    6.420000e+00
 TN5dq  TQ1n  1 3.400000e-01    8.861000e+00
 TN4dq   Q1n  1 3.950000e-01    4.940000e+00
 TN4dq  SQ1n  1 3.650000e-01    6.414000e+00
 TN4dq  TQ1n  1 3.400000e-01    8.846000e+00
 TN3dq   Q1n  1 3.950000e-01    4.937000e+00
 TN3dq  SQ1n  1 3.650000e-01    6.401000e+00
 TN3dq  TQ1n  1 3.400000e-01    8.818000e+00
 TN2dq   Q1n  1 3.950000e-01    4.623000e+00
 TN2dq  SQ1n  1 3.650000e-01    6.088000e+00
 TN2dq  TQ1n  1 3.400000e-01    8.498000e+00
 TN1dq   Q1n  1 3.950000e-01    4.296000e+00
 TN1dq  SQ1n  1 3.650000e-01    5.758000e+00
 TN1dq  TQ1n  1 3.400000e-01    8.129000e+00
 TP6aq   Q1n  1 3.950000e-01    4.052000e+00
 TP6aq  SQ1n  1 3.650000e-01    5.467000e+00
 TP6aq  TQ1n  1 3.400000e-01    7.604000e+00
 TP5aq   Q1n  1 3.950000e-01    4.300000e+00
 TP5aq  SQ1n  1 3.650000e-01    5.780000e+00
 TP5aq  TQ1n  1 3.400000e-01    7.928000e+00
 TP4aq   Q1n  1 3.950000e-01    4.307000e+00
 TP4aq  SQ1n  1 3.650000e-01    5.819000e+00
 TP4aq  TQ1n  1 3.400000e-01    8.013000e+00
 TP3aq   Q1n  1 3.950000e-01    4.310000e+00
 TP3aq  SQ1n  1 3.650000e-01    5.834000e+00
 TP3aq  TQ1n  1 3.400000e-01    8.046000e+00
 TP2aq   Q1n  1 3.950000e-01    4.311000e+00
 TP2aq  SQ1n  1 3.650000e-01    5.840000e+00
 TP2aq  TQ1n  1 3.400000e-01    8.060000e+00
 TP1aq   Q1n  1 3.950000e-01    4.311000e+00
 TP1aq  SQ1n  1 3.650000e-01    5.842000e+00
 TP1aq  TQ1n  1 3.400000e-01    8.065000e+00
 TN6aq   Q1n  1 3.950000e-01    4.311000e+00
 TN6aq  SQ1n  1 3.650000e-01    5.843000e+00
 TN6aq  TQ1n  1 3.400000e-01    8.066000e+00
 TN5aq   Q1n  1 3.950000e-01    4.071000e+00
 TN5aq  SQ1n  1 3.650000e-01    5.570000e+00
 TN5aq  TQ1n  1 3.400000e-01    7.831000e+00
 TN4aq   Q1n  1 3.950000e-01    4.070000e+00
 TN4aq  SQ1n  1 3.650000e-01    5.564000e+00
 TN4aq  TQ1n  1 3.400000e-01    7.816000e+00
 TN3aq   Q1n  1 3.950000e-01    4.067000e+00
 TN3aq  SQ1n  1 3.650000e-01    5.551000e+00
 TN3aq  TQ1n  1 3.400000e-01    7.788000e+00
 TN2aq   Q1n  1 3.950000e-01    3.823000e+00
 TN2aq  SQ1n  1 3.650000e-01    5.258000e+00
 TN2aq  TQ1n  1 3.400000e-01    7.488000e+00
 TN1aq   Q1n  1 3.950000e-01    3.576000e+00
 TN1aq  SQ1n  1 3.650000e-01    4.948000e+00
 TN1aq  TQ1n  1 3.400000e-01    7.159000e+00
 TC6vq   Q1n  1 3.950000e-01    4.282000e+00
 TC6vq  SQ1n  1 3.650000e-01    5.682000e+00
 TC6vq  TQ1n  1 3.400000e-01    7.962000e+00
 TC5vq   Q1n  1 3.950000e-01    3.790000e+00
 TC5vq  SQ1n  1 3.650000e-01    5.077000e+00
 TC5vq  TQ1n  1 3.400000e-01    7.340000e+00
 TC4vq   Q1n  1 3.950000e-01    3.532000e+00
 TC4vq  SQ1n  1 3.650000e-01    4.707000e+00
 TC4vq  TQ1n  1 3.400000e-01    6.870000e+00
 TC3vq   Q1n  1 3.950000e-01    3.251000e+00
 TC3vq  SQ1n  1 3.650000e-01    4.276000e+00
 TC3vq  TQ1n  1 3.400000e-01    6.254000e+00
 TC2vq   Q1n  1 3.950000e-01    2.136000e+00
 TC2vq  SQ1n  1 3.660000e-01    3.163000e+00
 TC2vq  TQ1n  1 3.400000e-01    4.678000e+00
 TC1vq   Q1n  1 3.950000e-01    2.097000e+00
 TC1vq  SQ1n  1 3.660000e-01    2.954000e+00
 TC1vq  TQ1n  1 3.400000e-01    4.216000e+00
 TX4vq   Q1n  1 3.950000e-01    3.810000e+00
 TX4vq  SQ1n  1 3.650000e-01    5.186000e+00
 TX4vq  TQ1n  1 3.400000e-01    7.580000e+00
 TX3vq   Q1n  1 3.950000e-01    3.802000e+00
 TX3vq  SQ1n  1 3.650000e-01    5.142000e+00
 TX3vq  TQ1n  1 3.400000e-01    7.482000e+00
 TX2vq   Q1n  1 3.950000e-01    3.542000e+00
 TX2vq  SQ1n  1 3.650000e-01    4.763000e+00
 TX2vq  TQ1n  1 3.400000e-01    6.993000e+00
 TX1vq   Q1n  1 3.950000e-01    3.251000e+00
 TX1vq  SQ1n  1 3.650000e-01    4.276000e+00
 TX1vq  TQ1n  1 3.400000e-01    6.254000e+00
 TC6eq   Q1n  1 3.950000e-01    3.562000e+00
 TC6eq  SQ1n  1 3.650000e-01    4.872000e+00
 TC6eq  TQ1n  1 3.400000e-01    6.992000e+00
 TC5eq   Q1n  1 3.950000e-01    3.060000e+00
 TC5eq  SQ1n  1 3.650000e-01    4.317000e+00
 TC5eq  TQ1n  1 3.400000e-01    6.370000e+00
 TC4eq   Q1n  1 3.950000e-01    2.842000e+00
 TC4eq  SQ1n  1 3.650000e-01    3.987000e+00
 TC4eq  TQ1n  1 3.400000e-01    5.900000e+00
 TC3eq   Q1n  1 3.950000e-01    2.621000e+00
 TC3eq  SQ1n  1 3.650000e-01    3.616000e+00
 TC3eq  TQ1n  1 3.400000e-01    5.264000e+00
 TC2eq   Q1n  1 3.990000e-01    1.463000e+00
 TC2eq  SQ1n  1 4.040000e-01    2.546000e+00
 TC2eq  TQ1n  1 4.110000e-01    3.654000e+00
 TC1eq   Q1n  1 3.990000e-01    1.425000e+00
 TC1eq  SQ1n  1 4.040000e-01    2.356000e+00
 TC1eq  TQ1n  1 4.110000e-01    3.272000e+00
 TX4eq   Q1n  1 3.950000e-01    3.080000e+00
 TX4eq  SQ1n  1 3.650000e-01    4.426000e+00
 TX4eq  TQ1n  1 3.400000e-01    6.610000e+00
 TX3eq   Q1n  1 3.950000e-01    3.072000e+00
 TX3eq  SQ1n  1 3.650000e-01    4.382000e+00
 TX3eq  TQ1n  1 3.400000e-01    6.512000e+00
 TX2eq   Q1n  1 3.950000e-01    2.852000e+00
 TX2eq  SQ1n  1 3.650000e-01    4.043000e+00
 TX2eq  TQ1n  1 3.400000e-01    6.023000e+00
 TX1eq   Q1n  1 3.950000e-01    2.621000e+00
 TX1eq  SQ1n  1 3.650000e-01    3.616000e+00
 TX1eq  TQ1n  1 3.400000e-01    5.264000e+00
  TP6h   Q1n  1 3.950000e-01    3.812000e+00
  TP6h  SQ1n  1 3.650000e-01    5.197000e+00
  TP6h  TQ1n  1 3.400000e-01    7.354000e+00
  TP5h   Q1n  1 3.950000e-01    4.060000e+00
  TP5h  SQ1n  1 3.650000e-01    5.510000e+00
  TP5h  TQ1n  1 3.400000e-01    7.698000e+00
  TP4h   Q1n  1 3.950000e-01    4.067000e+00
  TP4h  SQ1n  1 3.650000e-01    5.549000e+00
  TP4h  TQ1n  1 3.400000e-01    7.783000e+00
  TP3h   Q1n  1 3.950000e-01    4.070000e+00
  TP3h  SQ1n  1 3.650000e-01    5.564000e+00
  TP3h  TQ1n  1 3.400000e-01    7.816000e+00
  TP2h   Q1n  1 3.950000e-01    4.071000e+00
  TP2h  SQ1n  1 3.650000e-01    5.570000e+00
  TP2h  TQ1n  1 3.400000e-01    7.830000e+00
  TP1h   Q1n  1 3.950000e-01    4.071000e+00
  TP1h  SQ1n  1 3.650000e-01    5.572000e+00
  TP1h  TQ1n  1 3.400000e-01    7.835000e+00
  TN6h   Q1n  1 3.950000e-01    4.071000e+00
  TN6h  SQ1n  1 3.650000e-01    5.573000e+00
  TN6h  TQ1n  1 3.400000e-01    7.836000e+00
  TN5h   Q1n  1 3.950000e-01    3.831000e+00
  TN5h  SQ1n  1 3.650000e-01    5.300000e+00
  TN5h  TQ1n  1 3.400000e-01    7.581000e+00
  TN4h   Q1n  1 3.950000e-01    3.830000e+00
  TN4h  SQ1n  1 3.650000e-01    5.294000e+00
  TN4h  TQ1n  1 3.400000e-01    7.566000e+00
  TN3h   Q1n  1 3.950000e-01    3.827000e+00
  TN3h  SQ1n  1 3.650000e-01    5.281000e+00
  TN3h  TQ1n  1 3.400000e-01    7.538000e+00
  TN2h   Q1n  1 3.950000e-01    3.583000e+00
  TN2h  SQ1n  1 3.650000e-01    4.988000e+00
  TN2h  TQ1n  1 3.400000e-01    7.248000e+00
  TN1h   Q1n  1 3.950000e-01    3.326000e+00
  TN1h  SQ1n  1 3.650000e-01    4.688000e+00
  TN1h  TQ1n  1 3.400000e-01    6.939000e+00
  TC6h   Q1n  1 3.950000e-01    3.072000e+00
  TC6h  SQ1n  1 3.650000e-01    4.382000e+00
  TC6h  TQ1n  1 3.400000e-01    6.512000e+00
  TC5h   Q1n  1 3.950000e-01    2.670000e+00
  TC5h  SQ1n  1 3.650000e-01    3.887000e+00
  TC5h  TQ1n  1 3.400000e-01    5.860000e+00
  TC4h   Q1n  1 3.950000e-01    2.452000e+00
  TC4h  SQ1n  1 3.650000e-01    3.627000e+00
  TC4h  TQ1n  1 3.400000e-01    5.360000e+00
  TC3h   Q1n  1 3.950000e-01    2.161000e+00
  TC3h  SQ1n  1 3.660000e-01    3.302000e+00
  TC3h  TQ1n  1 3.520000e-01    4.676000e+00
  TC2h   Q1n  1 4.040000e-01    1.109000e+00
  TC2h  SQ1n  1 4.230000e-01    2.334000e+00
  TC2h  TQ1n  1 4.380000e-01    3.408000e+00
  TC1h   Q1n  1 4.040000e-01    1.072000e+00
  TC1h  SQ1n  1 4.230000e-01    2.152000e+00
  TC1h  TQ1n  1 4.380000e-01    3.049000e+00
  TX4h   Q1n  1 3.950000e-01    2.690000e+00
  TX4h  SQ1n  1 3.650000e-01    3.996000e+00
  TX4h  TQ1n  1 3.400000e-01    6.100000e+00
  TX3h   Q1n  1 3.950000e-01    2.682000e+00
  TX3h  SQ1n  1 3.650000e-01    3.952000e+00
  TX3h  TQ1n  1 3.400000e-01    6.002000e+00
  TX2h   Q1n  1 3.950000e-01    2.462000e+00
  TX2h  SQ1n  1 3.650000e-01    3.683000e+00
  TX2h  TQ1n  1 3.400000e-01    5.483000e+00
  TX1h   Q1n  1 3.950000e-01    2.161000e+00
  TX1h  SQ1n  1 3.660000e-01    3.302000e+00
  TX1h  TQ1n  1 3.520000e-01    4.676000e+00
 TP6dh   Q1n  1 3.950000e-01    4.052000e+00
 TP6dh  SQ1n  1 3.650000e-01    5.467000e+00
 TP6dh  TQ1n  1 3.400000e-01    7.834000e+00
 TP5dh   Q1n  1 3.950000e-01    4.300000e+00
 TP5dh  SQ1n  1 3.650000e-01    5.780000e+00
 TP5dh  TQ1n  1 3.400000e-01    8.178000e+00
 TP4dh   Q1n  1 3.950000e-01    4.307000e+00
 TP4dh  SQ1n  1 3.650000e-01    5.819000e+00
 TP4dh  TQ1n  1 3.400000e-01    8.263000e+00
 TP3dh   Q1n  1 3.950000e-01    4.310000e+00
 TP3dh  SQ1n  1 3.650000e-01    5.834000e+00
 TP3dh  TQ1n  1 3.400000e-01    8.296000e+00
 TP2dh   Q1n  1 3.950000e-01    4.311000e+00
 TP2dh  SQ1n  1 3.650000e-01    5.840000e+00
 TP2dh  TQ1n  1 3.400000e-01    8.310000e+00
 TP1dh   Q1n  1 3.950000e-01    4.311000e+00
 TP1dh  SQ1n  1 3.650000e-01    5.842000e+00
 TP1dh  TQ1n  1 3.400000e-01    8.315000e+00
 TN6dh   Q1n  1 3.950000e-01    4.311000e+00
 TN6dh  SQ1n  1 3.650000e-01    5.843000e+00
 TN6dh  TQ1n  1 3.400000e-01    8.316000e+00
 TN5dh   Q1n  1 3.950000e-01    4.071000e+00
 TN5dh  SQ1n  1 3.650000e-01    5.570000e+00
 TN5dh  TQ1n  1 3.400000e-01    8.061000e+00
 TN4dh   Q1n  1 3.950000e-01    4.070000e+00
 TN4dh  SQ1n  1 3.650000e-01    5.564000e+00
 TN4dh  TQ1n  1 3.400000e-01    8.046000e+00
 TN3dh   Q1n  1 3.950000e-01    4.067000e+00
 TN3dh  SQ1n  1 3.650000e-01    5.551000e+00
 TN3dh  TQ1n  1 3.400000e-01    8.018000e+00
 TN2dh   Q1n  1 3.950000e-01    3.823000e+00
 TN2dh  SQ1n  1 3.650000e-01    5.258000e+00
 TN2dh  TQ1n  1 3.400000e-01    7.738000e+00
 TN1dh   Q1n  1 3.950000e-01    3.576000e+00
 TN1dh  SQ1n  1 3.650000e-01    4.948000e+00
 TN1dh  TQ1n  1 3.400000e-01    7.399000e+00
 TP6ah   Q1n  1 3.950000e-01    3.322000e+00
 TP6ah  SQ1n  1 3.650000e-01    4.667000e+00
 TP6ah  TQ1n  1 3.400000e-01    6.894000e+00
 TP5ah   Q1n  1 3.950000e-01    3.580000e+00
 TP5ah  SQ1n  1 3.650000e-01    4.970000e+00
 TP5ah  TQ1n  1 3.400000e-01    7.208000e+00
 TP4ah   Q1n  1 3.950000e-01    3.587000e+00
 TP4ah  SQ1n  1 3.650000e-01    5.009000e+00
 TP4ah  TQ1n  1 3.400000e-01    7.293000e+00
 TP3ah   Q1n  1 3.950000e-01    3.590000e+00
 TP3ah  SQ1n  1 3.650000e-01    5.024000e+00
 TP3ah  TQ1n  1 3.400000e-01    7.326000e+00
 TP2ah   Q1n  1 3.950000e-01    3.591000e+00
 TP2ah  SQ1n  1 3.650000e-01    5.030000e+00
 TP2ah  TQ1n  1 3.400000e-01    7.340000e+00
 TP1ah   Q1n  1 3.950000e-01    3.591000e+00
 TP1ah  SQ1n  1 3.650000e-01    5.032000e+00
 TP1ah  TQ1n  1 3.400000e-01    7.345000e+00
 TN6ah   Q1n  1 3.950000e-01    3.591000e+00
 TN6ah  SQ1n  1 3.650000e-01    5.033000e+00
 TN6ah  TQ1n  1 3.400000e-01    7.346000e+00
 TN5ah   Q1n  1 3.950000e-01    3.341000e+00
 TN5ah  SQ1n  1 3.650000e-01    4.770000e+00
 TN5ah  TQ1n  1 3.400000e-01    7.121000e+00
 TN4ah   Q1n  1 3.950000e-01    3.340000e+00
 TN4ah  SQ1n  1 3.650000e-01    4.764000e+00
 TN4ah  TQ1n  1 3.400000e-01    7.106000e+00
 TN3ah   Q1n  1 3.950000e-01    3.337000e+00
 TN3ah  SQ1n  1 3.650000e-01    4.751000e+00
 TN3ah  TQ1n  1 3.400000e-01    7.078000e+00
 TN2ah   Q1n  1 3.950000e-01    3.093000e+00
 TN2ah  SQ1n  1 3.650000e-01    4.498000e+00
 TN2ah  TQ1n  1 3.400000e-01    6.768000e+00
 TN1ah   Q1n  1 3.950000e-01    2.886000e+00
 TN1ah  SQ1n  1 3.650000e-01    4.228000e+00
 TN1ah  TQ1n  1 3.400000e-01    6.429000e+00
 TC6vh   Q1n  1 3.950000e-01    3.562000e+00
 TC6vh  SQ1n  1 3.650000e-01    4.872000e+00
 TC6vh  TQ1n  1 3.400000e-01    7.232000e+00
 TC5vh   Q1n  1 3.950000e-01    3.060000e+00
 TC5vh  SQ1n  1 3.650000e-01    4.317000e+00
 TC5vh  TQ1n  1 3.400000e-01    6.630000e+00
 TC4vh   Q1n  1 3.950000e-01    2.842000e+00
 TC4vh  SQ1n  1 3.650000e-01    3.987000e+00
 TC4vh  TQ1n  1 3.400000e-01    6.150000e+00
 TC3vh   Q1n  1 3.950000e-01    2.621000e+00
 TC3vh  SQ1n  1 3.650000e-01    3.616000e+00
 TC3vh  TQ1n  1 3.400000e-01    5.524000e+00
 TC2vh   Q1n  1 3.990000e-01    1.463000e+00
 TC2vh  SQ1n  1 4.040000e-01    2.546000e+00
 TC2vh  TQ1n  1 4.040000e-01    3.737000e+00
 TC1vh   Q1n  1 3.990000e-01    1.425000e+00
 TC1vh  SQ1n  1 4.040000e-01    2.356000e+00
 TC1vh  TQ1n  1 4.040000e-01    3.348000e+00
 TX4vh   Q1n  1 3.950000e-01    3.080000e+00
 TX4vh  SQ1n  1 3.650000e-01    4.426000e+00
 TX4vh  TQ1n  1 3.400000e-01    6.870000e+00
 TX3vh   Q1n  1 3.950000e-01    3.072000e+00
 TX3vh  SQ1n  1 3.650000e-01    4.382000e+00
 TX3vh  TQ1n  1 3.400000e-01    6.772000e+00
 TX2vh   Q1n  1 3.950000e-01    2.852000e+00
 TX2vh  SQ1n  1 3.650000e-01    4.043000e+00
 TX2vh  TQ1n  1 3.400000e-01    6.273000e+00
 TX1vh   Q1n  1 3.950000e-01    2.621000e+00
 TX1vh  SQ1n  1 3.650000e-01    3.616000e+00
 TX1vh  TQ1n  1 3.400000e-01    5.524000e+00
 TC6eh   Q1n  1 3.950000e-01    2.872000e+00
 TC6eh  SQ1n  1 3.650000e-01    4.152000e+00
 TC6eh  TQ1n  1 3.400000e-01    6.262000e+00
 TC5eh   Q1n  1 3.950000e-01    2.470000e+00
 TC5eh  SQ1n  1 3.650000e-01    3.727000e+00
 TC5eh  TQ1n  1 3.400000e-01    5.580000e+00
 TC4eh   Q1n  1 3.950000e-01    2.192000e+00
 TC4eh  SQ1n  1 3.660000e-01    3.472000e+00
 TC4eh  TQ1n  1 3.520000e-01    5.040000e+00
 TC3eh   Q1n  1 3.950000e-01    1.981000e+00
 TC3eh  SQ1n  1 3.780000e-01    3.098000e+00
 TC3eh  TQ1n  1 3.660000e-01    4.422000e+00
 TC2eh   Q1n  1 4.650000e-01    9.460000e-01
 TC2eh  SQ1n  1 4.840000e-01    2.072000e+00
 TC2eh  TQ1n  1 5.050000e-01    3.002000e+00
 TC1eh   Q1n  1 4.650000e-01    9.130000e-01
 TC1eh  SQ1n  1 4.840000e-01    1.914000e+00
 TC1eh  TQ1n  1 5.050000e-01    2.691000e+00
 TX4eh   Q1n  1 3.950000e-01    2.490000e+00
 TX4eh  SQ1n  1 3.650000e-01    3.836000e+00
 TX4eh  TQ1n  1 3.400000e-01    5.820000e+00
 TX3eh   Q1n  1 3.950000e-01    2.482000e+00
 TX3eh  SQ1n  1 3.650000e-01    3.792000e+00
 TX3eh  TQ1n  1 3.400000e-01    5.722000e+00
 TX2eh   Q1n  1 3.950000e-01    2.202000e+00
 TX2eh  SQ1n  1 3.660000e-01    3.528000e+00
 TX2eh  TQ1n  1 3.520000e-01    5.158000e+00
 TX1eh   Q1n  1 3.950000e-01    1.981000e+00
 TX1eh  SQ1n  1 3.780000e-01    3.098000e+00
 TX1eh  TQ1n  1 3.660000e-01    4.422000e+00
  TP6r   Q1n  1 3.950000e-01    3.812000e+00
  TP6r  SQ1n  1 3.650000e-01    5.197000e+00
  TP6r  TQ1n  1 3.400000e-01    7.354000e+00
  TP5r   Q1n  1 3.950000e-01    4.060000e+00
  TP5r  SQ1n  1 3.650000e-01    5.510000e+00
  TP5r  TQ1n  1 3.400000e-01    7.698000e+00
  TP4r   Q1n  1 3.950000e-01    4.067000e+00
  TP4r  SQ1n  1 3.650000e-01    5.549000e+00
  TP4r  TQ1n  1 3.400000e-01    7.783000e+00
  TP3r   Q1n  1 3.950000e-01    4.070000e+00
  TP3r  SQ1n  1 3.650000e-01    5.564000e+00
  TP3r  TQ1n  1 3.400000e-01    7.816000e+00
  TP2r   Q1n  1 3.950000e-01    4.071000e+00
  TP2r  SQ1n  1 3.650000e-01    5.570000e+00
  TP2r  TQ1n  1 3.400000e-01    7.830000e+00
  TP1r   Q1n  1 3.950000e-01    4.071000e+00
  TP1r  SQ1n  1 3.650000e-01    5.572000e+00
  TP1r  TQ1n  1 3.400000e-01    7.835000e+00
  TN6r   Q1n  1 3.950000e-01    4.071000e+00
  TN6r  SQ1n  1 3.650000e-01    5.573000e+00
  TN6r  TQ1n  1 3.400000e-01    7.836000e+00
  TN5r   Q1n  1 3.950000e-01    3.831000e+00
  TN5r  SQ1n  1 3.650000e-01    5.300000e+00
  TN5r  TQ1n  1 3.400000e-01    7.581000e+00
  TN4r   Q1n  1 3.950000e-01    3.830000e+00
  TN4r  SQ1n  1 3.650000e-01    5.294000e+00
  TN4r  TQ1n  1 3.400000e-01    7.566000e+00
  TN3r   Q1n  1 3.950000e-01    3.827000e+00
  TN3r  SQ1n  1 3.650000e-01    5.281000e+00
  TN3r  TQ1n  1 3.400000e-01    7.538000e+00
  TN2r   Q1n  1 3.950000e-01    3.583000e+00
  TN2r  SQ1n  1 3.650000e-01    4.988000e+00
  TN2r  TQ1n  1 3.400000e-01    7.248000e+00
  TN1r   Q1n  1 3.950000e-01    3.326000e+00
  TN1r  SQ1n  1 3.650000e-01    4.688000e+00
  TN1r  TQ1n  1 3.400000e-01    6.939000e+00
  TC6r   Q1n  1 3.950000e-01    3.072000e+00
  TC6r  SQ1n  1 3.650000e-01    4.382000e+00
  TC6r  TQ1n  1 3.400000e-01    6.512000e+00
  TC5r   Q1n  1 3.950000e-01    2.670000e+00
  TC5r  SQ1n  1 3.650000e-01    3.887000e+00
  TC5r  TQ1n  1 3.400000e-01    5.860000e+00
  TC4r   Q1n  1 3.950000e-01    2.452000e+00
  TC4r  SQ1n  1 3.650000e-01    3.627000e+00
  TC4r  TQ1n  1 3.400000e-01    5.360000e+00
  TC3r   Q1n  1 3.950000e-01    2.161000e+00
  TC3r  SQ1n  1 3.660000e-01    3.302000e+00
  TC3r  TQ1n  1 3.520000e-01    4.676000e+00
  TC2r   Q1n  1 4.040000e-01    1.109000e+00
  TC2r  SQ1n  1 4.230000e-01    2.334000e+00
  TC2r  TQ1n  1 4.380000e-01    3.408000e+00
  TC1r   Q1n  1 4.040000e-01    1.072000e+00
  TC1r  SQ1n  1 4.230000e-01    2.152000e+00
  TC1r  TQ1n  1 4.380000e-01    3.049000e+00
  TX4r   Q1n  1 3.950000e-01    2.690000e+00
  TX4r  SQ1n  1 3.650000e-01    3.996000e+00
  TX4r  TQ1n  1 3.400000e-01    6.100000e+00
  TX3r   Q1n  1 3.950000e-01    2.682000e+00
  TX3r  SQ1n  1 3.650000e-01    3.952000e+00
  TX3r  TQ1n  1 3.400000e-01    6.002000e+00
  TX2r   Q1n  1 3.950000e-01    2.462000e+00
  TX2r  SQ1n  1 3.650000e-01    3.683000e+00
  TX2r  TQ1n  1 3.400000e-01    5.483000e+00
  TX1r   Q1n  1 3.950000e-01    2.161000e+00
  TX1r  SQ1n  1 3.660000e-01    3.302000e+00
  TX1r  TQ1n  1 3.520000e-01    4.676000e+00
 TP6dr   Q1n  1 3.950000e-01    4.052000e+00
 TP6dr  SQ1n  1 3.650000e-01    5.467000e+00
 TP6dr  TQ1n  1 3.400000e-01    7.834000e+00
 TP5dr   Q1n  1 3.950000e-01    4.300000e+00
 TP5dr  SQ1n  1 3.650000e-01    5.780000e+00
 TP5dr  TQ1n  1 3.400000e-01    8.178000e+00
 TP4dr   Q1n  1 3.950000e-01    4.307000e+00
 TP4dr  SQ1n  1 3.650000e-01    5.819000e+00
 TP4dr  TQ1n  1 3.400000e-01    8.263000e+00
 TP3dr   Q1n  1 3.950000e-01    4.310000e+00
 TP3dr  SQ1n  1 3.650000e-01    5.834000e+00
 TP3dr  TQ1n  1 3.400000e-01    8.296000e+00
 TP2dr   Q1n  1 3.950000e-01    4.311000e+00
 TP2dr  SQ1n  1 3.650000e-01    5.840000e+00
 TP2dr  TQ1n  1 3.400000e-01    8.310000e+00
 TP1dr   Q1n  1 3.950000e-01    4.311000e+00
 TP1dr  SQ1n  1 3.650000e-01    5.842000e+00
 TP1dr  TQ1n  1 3.400000e-01    8.315000e+00
 TN6dr   Q1n  1 3.950000e-01    4.311000e+00
 TN6dr  SQ1n  1 3.650000e-01    5.843000e+00
 TN6dr  TQ1n  1 3.400000e-01    8.316000e+00
 TN5dr   Q1n  1 3.950000e-01    4.071000e+00
 TN5dr  SQ1n  1 3.650000e-01    5.570000e+00
 TN5dr  TQ1n  1 3.400000e-01    8.061000e+00
 TN4dr   Q1n  1 3.950000e-01    4.070000e+00
 TN4dr  SQ1n  1 3.650000e-01    5.564000e+00
 TN4dr  TQ1n  1 3.400000e-01    8.046000e+00
 TN3dr   Q1n  1 3.950000e-01    4.067000e+00
 TN3dr  SQ1n  1 3.650000e-01    5.551000e+00
 TN3dr  TQ1n  1 3.400000e-01    8.018000e+00
 TN2dr   Q1n  1 3.950000e-01    3.823000e+00
 TN2dr  SQ1n  1 3.650000e-01    5.258000e+00
 TN2dr  TQ1n  1 3.400000e-01    7.738000e+00
 TN1dr   Q1n  1 3.950000e-01    3.576000e+00
 TN1dr  SQ1n  1 3.650000e-01    4.948000e+00
 TN1dr  TQ1n  1 3.400000e-01    7.399000e+00
 TP6ar   Q1n  1 3.950000e-01    3.322000e+00
 TP6ar  SQ1n  1 3.650000e-01    4.667000e+00
 TP6ar  TQ1n  1 3.400000e-01    6.894000e+00
 TP5ar   Q1n  1 3.950000e-01    3.580000e+00
 TP5ar  SQ1n  1 3.650000e-01    4.970000e+00
 TP5ar  TQ1n  1 3.400000e-01    7.208000e+00
 TP4ar   Q1n  1 3.950000e-01    3.587000e+00
 TP4ar  SQ1n  1 3.650000e-01    5.009000e+00
 TP4ar  TQ1n  1 3.400000e-01    7.293000e+00
 TP3ar   Q1n  1 3.950000e-01    3.590000e+00
 TP3ar  SQ1n  1 3.650000e-01    5.024000e+00
 TP3ar  TQ1n  1 3.400000e-01    7.326000e+00
 TP2ar   Q1n  1 3.950000e-01    3.591000e+00
 TP2ar  SQ1n  1 3.650000e-01    5.030000e+00
 TP2ar  TQ1n  1 3.400000e-01    7.340000e+00
 TP1ar   Q1n  1 3.950000e-01    3.591000e+00
 TP1ar  SQ1n  1 3.650000e-01    5.032000e+00
 TP1ar  TQ1n  1 3.400000e-01    7.345000e+00
 TN6ar   Q1n  1 3.950000e-01    3.591000e+00
 TN6ar  SQ1n  1 3.650000e-01    5.033000e+00
 TN6ar  TQ1n  1 3.400000e-01    7.346000e+00
 TN5ar   Q1n  1 3.950000e-01    3.341000e+00
 TN5ar  SQ1n  1 3.650000e-01    4.770000e+00
 TN5ar  TQ1n  1 3.400000e-01    7.121000e+00
 TN4ar   Q1n  1 3.950000e-01    3.340000e+00
 TN4ar  SQ1n  1 3.650000e-01    4.764000e+00
 TN4ar  TQ1n  1 3.400000e-01    7.106000e+00
 TN3ar   Q1n  1 3.950000e-01    3.337000e+00
 TN3ar  SQ1n  1 3.650000e-01    4.751000e+00
 TN3ar  TQ1n  1 3.400000e-01    7.078000e+00
 TN2ar   Q1n  1 3.950000e-01    3.093000e+00
 TN2ar  SQ1n  1 3.650000e-01    4.498000e+00
 TN2ar  TQ1n  1 3.400000e-01    6.768000e+00
 TN1ar   Q1n  1 3.950000e-01    2.886000e+00
 TN1ar  SQ1n  1 3.650000e-01    4.228000e+00
 TN1ar  TQ1n  1 3.400000e-01    6.429000e+00
 TC6vr   Q1n  1 3.950000e-01    3.562000e+00
 TC6vr  SQ1n  1 3.650000e-01    4.872000e+00
 TC6vr  TQ1n  1 3.400000e-01    7.232000e+00
 TC5vr   Q1n  1 3.950000e-01    3.060000e+00
 TC5vr  SQ1n  1 3.650000e-01    4.317000e+00
 TC5vr  TQ1n  1 3.400000e-01    6.630000e+00
 TC4vr   Q1n  1 3.950000e-01    2.842000e+00
 TC4vr  SQ1n  1 3.650000e-01    3.987000e+00
 TC4vr  TQ1n  1 3.400000e-01    6.150000e+00
 TC3vr   Q1n  1 3.950000e-01    2.621000e+00
 TC3vr  SQ1n  1 3.650000e-01    3.616000e+00
 TC3vr  TQ1n  1 3.400000e-01    5.524000e+00
 TC2vr   Q1n  1 3.990000e-01    1.463000e+00
 TC2vr  SQ1n  1 4.040000e-01    2.546000e+00
 TC2vr  TQ1n  1 4.040000e-01    3.737000e+00
 TC1vr   Q1n  1 3.990000e-01    1.425000e+00
 TC1vr  SQ1n  1 4.040000e-01    2.356000e+00
 TC1vr  TQ1n  1 4.040000e-01    3.348000e+00
 TX4vr   Q1n  1 3.950000e-01    3.080000e+00
 TX4vr  SQ1n  1 3.650000e-01    4.426000e+00
 TX4vr  TQ1n  1 3.400000e-01    6.870000e+00
 TX3vr   Q1n  1 3.950000e-01    3.072000e+00
 TX3vr  SQ1n  1 3.650000e-01    4.382000e+00
 TX3vr  TQ1n  1 3.400000e-01    6.772000e+00
 TX2vr   Q1n  1 3.950000e-01    2.852000e+00
 TX2vr  SQ1n  1 3.650000e-01    4.043000e+00
 TX2vr  TQ1n  1 3.400000e-01    6.273000e+00
 TX1vr   Q1n  1 3.950000e-01    2.621000e+00
 TX1vr  SQ1n  1 3.650000e-01    3.616000e+00
 TX1vr  TQ1n  1 3.400000e-01    5.524000e+00
 TC6er   Q1n  1 3.950000e-01    2.872000e+00
 TC6er  SQ1n  1 3.650000e-01    4.152000e+00
 TC6er  TQ1n  1 3.400000e-01    6.262000e+00
 TC5er   Q1n  1 3.950000e-01    2.470000e+00
 TC5er  SQ1n  1 3.650000e-01    3.727000e+00
 TC5er  TQ1n  1 3.400000e-01    5.580000e+00
 TC4er   Q1n  1 3.950000e-01    2.192000e+00
 TC4er  SQ1n  1 3.660000e-01    3.472000e+00
 TC4er  TQ1n  1 3.520000e-01    5.040000e+00
 TC3er   Q1n  1 3.950000e-01    1.981000e+00
 TC3er  SQ1n  1 3.780000e-01    3.098000e+00
 TC3er  TQ1n  1 3.660000e-01    4.422000e+00
 TC2er   Q1n  1 4.650000e-01    9.460000e-01
 TC2er  SQ1n  1 4.840000e-01    2.072000e+00
 TC2er  TQ1n  1 5.050000e-01    3.002000e+00
 TC1er   Q1n  1 4.650000e-01    9.130000e-01
 TC1er  SQ1n  1 4.840000e-01    1.914000e+00
 TC1er  TQ1n  1 5.050000e-01    2.691000e+00
 TX4er   Q1n  1 3.950000e-01    2.490000e+00
 TX4er  SQ1n  1 3.650000e-01    3.836000e+00
 TX4er  TQ1n  1 3.400000e-01    5.820000e+00
 TX3er   Q1n  1 3.950000e-01    2.482000e+00
 TX3er  SQ1n  1 3.650000e-01    3.792000e+00
 TX3er  TQ1n  1 3.400000e-01    5.722000e+00
 TX2er   Q1n  1 3.950000e-01    2.202000e+00
 TX2er  SQ1n  1 3.660000e-01    3.528000e+00
 TX2er  TQ1n  1 3.520000e-01    5.158000e+00
 TX1er   Q1n  1 3.950000e-01    1.981000e+00
 TX1er  SQ1n  1 3.780000e-01    3.098000e+00
 TX1er  TQ1n  1 3.660000e-01    4.422000e+00
